cancer0
299690
    1DOPC   NC3    1   2.884   8.680  16.093 -0.1758  0.0899 -0.0218
    1DOPC   PO4    2   2.931   9.052  16.149  0.0106 -0.0568  0.4141
    1DOPC   GL1    3   2.856   9.105  15.659 -0.2518 -0.0975  0.1643
    1DOPC   GL2    4   2.643   9.301  15.680 -0.0414 -0.1506  0.3414
    1DOPC   C1A    5   2.926   8.962  15.230 -0.0641  0.2379  0.2547
    1DOPC   D2A    6   3.024   8.933  14.820 -0.2051  0.0794  0.0253
    1DOPC   C3A    7   2.836   9.130  14.418  0.0716  0.0592 -0.0730
    1DOPC   C4A    8   2.615   9.156  14.005 -0.2006  0.3827 -0.2316
    1DOPC   C1B    9   2.410   9.180  15.326 -0.3016  0.2798 -0.0507
    1DOPC   D2B   10   2.078   9.231  15.021  0.1760 -0.1235  0.0168
    1DOPC   C3B   11   2.160   9.076  14.583 -0.0347  0.1260  0.0999
    1DOPC   C4B   12   2.087   9.153  14.148  0.0349  0.0727 -0.1952
    2DOPC   NC3   13   8.567   3.188  15.484 -0.2458 -0.1783 -0.2337
    2DOPC   PO4   14   8.927   3.350  15.554  0.0037 -0.2635  0.0275
    2DOPC   GL1   15   9.023   3.431  15.194  0.4600 -0.0010  0.1733
    2DOPC   GL2   16   9.200   3.652  15.217 -0.1075 -0.0591 -0.0704
    2DOPC   C1A   17   8.921   3.679  14.846  0.1869 -0.0694 -0.1526
    2DOPC   D2A   18   8.974   3.626  14.370 -0.1154  0.0038  0.0149
    2DOPC   C3A   19   8.680   3.815  14.055 -0.0101  0.2594 -0.0867
    2DOPC   C4A   20   8.621   3.639  13.598 -0.5325 -0.1894  0.1218
    2DOPC   C1B   21   9.487   3.433  14.870 -0.0614 -0.1115 -0.0389
    2DOPC   D2B   22   9.526   3.315  14.454 -0.1556  0.0142 -0.2535
    2DOPC   C3B   23  10.022   3.482  14.512 -0.1860  0.0129  0.3227
    2DOPC   C4B   24  10.357   3.651  14.266 -0.0647 -0.2184  0.0565
    3DOPE   NH3   25   9.013  10.012  15.516 -0.1138 -0.2619  0.2483
    3DOPE   PO4   26   9.280   9.891  15.410  0.1707  0.0489  0.1150
    3DOPE   GL1   27   9.314   9.952  15.071  0.2940 -0.3230  0.1559
    3DOPE   GL2   28   8.988  10.032  15.034 -0.1903 -0.2521  0.0128
    3DOPE   C1A   29   9.361   9.879  14.608 -0.2778  0.1523  0.4200
    3DOPE   D2A   30   9.695   9.718  14.382 -0.1472  0.3495  0.2282
    3DOPE   C3A   31   9.469   9.507  14.037 -0.0308 -0.2978  0.2364
    3DOPE   C4A   32   9.471   9.499  13.584  0.1495  0.1943  0.0994
    3DOPE   C1B   33   8.790   9.907  14.686  0.0055  0.0992 -0.1625
    3DOPE   D2B   34   8.511   9.916  14.296  0.0446 -0.2195  0.2197
    3DOPE   C3B   35   8.728  10.032  13.887  0.2219 -0.0691 -0.1634
    3DOPE   C4B   36   8.710  10.358  13.522 -0.1981  0.1719 -0.3932
    4DOPE   NH3   37   0.687   8.524  16.126 -0.1288 -0.1135  0.1031
    4DOPE   PO4   38   0.616   8.834  16.087 -0.2764  0.0704  0.0372
    4DOPE   GL1   39   0.828   8.854  15.759  0.3311  0.1169  0.1605
    4DOPE   GL2   40   0.814   8.640  15.608 -0.1955 -0.0613 -0.2176
    4DOPE   C1A   41   1.145   9.087  15.518  0.2345 -0.0870  0.1525
    4DOPE   D2A   42   1.435   9.185  15.244 -0.1389 -0.2431  0.2005
    4DOPE   C3A   43   1.597   9.525  15.025 -0.0828 -0.0217 -0.1900
    4DOPE   C4A   44   1.888   9.580  14.772  0.2027 -0.0595  0.2128
    4DOPE   C1B   45   0.850   8.758  15.135 -0.1785  0.2930  0.0332
    4DOPE   D2B   46   0.808   8.727  14.636  0.1556 -0.2460 -0.0200
    4DOPE   C3B   47   1.080   8.955  14.313  0.0878 -0.4230  0.0469
    4DOPE   C4B   48   1.444   9.217  14.193  0.0697  0.0494  0.2919
    5DOPC   NC3   49   7.921  11.341  15.723  0.0137  0.3558 -0.0978
    5DOPC   PO4   50   8.029  11.587  15.976  0.2258 -0.1599  0.0610
    5DOPC   GL1   51   8.324  11.515  15.685  0.1030  0.1924 -0.1637
    5DOPC   GL2   52   8.335  11.321  15.432 -0.1501 -0.3941  0.1536
    5DOPC   C1A   53   8.468  11.840  15.370  0.3020 -0.1409 -0.0032
    5DOPC   D2A   54   8.938  11.872  15.303  0.1805 -0.1067  0.1981
    5DOPC   C3A   55   8.956  11.536  15.029 -0.2998  0.2345  0.1121
    5DOPC   C4A   56   9.099  11.244  14.673  0.0020 -0.0721 -0.1894
    5DOPC   C1B   57   8.361  11.324  15.013 -0.0965 -0.0043 -0.2640
    5DOPC   D2B   58   8.171  11.359  14.554 -0.0222  0.0428  0.0816
    5DOPC   C3B   59   8.304  11.806  14.418 -0.1626 -0.1580 -0.0246
    5DOPC   C4B   60   8.342  12.034  14.016  0.0321 -0.2439 -0.1335
    6DOPC   NC3   61  10.084  10.251  15.062  0.1450 -0.0942  0.1674
    6DOPC   PO4   62  10.314  10.281  15.364  0.0374 -0.2614 -0.5327
    6DOPC   GL1   63  10.372   9.839  15.251 -0.1834 -0.1513  0.0419
    6DOPC   GL2   64  10.556   9.629  15.425  0.0106 -0.1098 -0.0000
    6DOPC   C1A   65  10.559   9.512  14.935 -0.0693 -0.0478 -0.1140
    6DOPC   D2A   66  10.701   9.614  14.532 -0.1302 -0.1961  0.1333
    6DOPC   C3A   67  10.781  10.037  14.647 -0.1651  0.0401 -0.2747
    6DOPC   C4A   68  10.995  10.349  14.470 -0.1515 -0.2275 -0.2466
    6DOPC   C1B   69  10.829   9.954  15.218 -0.0447 -0.0695 -0.2125
    6DOPC   D2B   70  10.686  10.367  15.058 -0.0959  0.0874 -0.0897
    6DOPC   C3B   71  10.463  10.431  14.672 -0.1436 -0.0593 -0.4143
    6DOPC   C4B   72  10.355  10.564  14.255 -0.2845 -0.1608  0.0275
    7POSM   NC3   73   4.668   2.953  15.700 -0.0873 -0.0711  0.4218
    7POSM   PO4   74   4.308   3.136  15.673  0.0150 -0.0683  0.1430
    7POSM   AM1   75   4.092   3.223  15.427 -0.0585 -0.3427  0.2209
    7POSM   AM2   76   4.135   3.185  15.154  0.1929  0.4226  0.1584
    7POSM   T1A   77   3.696   3.357  15.184 -0.1557 -0.2248  0.0323
    7POSM   C2A   78   3.276   3.538  15.132 -0.0156  0.0892  0.1631
    7POSM   C3A   79   2.818   3.432  14.984  0.1789  0.0039  0.2751
    7POSM   C1B   80   4.080   2.874  15.032  0.0202 -0.3320 -0.1029
    7POSM   D2B   81   3.937   2.461  14.909  0.2046 -0.1610 -0.2911
    7POSM   C3B   82   4.098   2.226  14.545 -0.1613  0.0399  0.2526
    7POSM   C4B   83   4.449   2.109  14.256  0.0078 -0.3068  0.1547
    8DOPS   CNO   84   8.243   9.523  16.069  0.1755  0.0091  0.3865
    8DOPS   PO4   85   8.033   9.792  15.897  0.0863 -0.0050  0.0374
    8DOPS   GL1   86   8.048  10.103  15.596 -0.3909  0.0641 -0.3210
    8DOPS   GL2   87   7.954   9.910  15.423 -0.0212  0.1598 -0.0831
    8DOPS   C1A   88   8.141  10.263  15.174  0.2081  0.0212 -0.1239
    8DOPS   D2A   89   8.322  10.104  14.772 -0.0465  0.0044  0.2959
    8DOPS   C3A   90   8.391  10.500  14.512 -0.0648  0.1714 -0.2925
    8DOPS   C4A   91   8.121  10.827  14.339 -0.1151 -0.1096 -0.2641
    8DOPS   C1B   92   8.119   9.751  15.014  0.2415  0.2723 -0.0076
    8DOPS   D2B   93   8.027   9.683  14.542 -0.0478 -0.0814  0.0234
    8DOPS   C3B   94   8.127   9.392  14.273  0.0161  0.1704 -0.1297
    8DOPS   C4B   95   8.145   9.124  13.927  0.2342 -0.3242 -0.0046
    9DOPC   NC3   96   6.168   2.140  16.279 -0.0353 -0.0730  0.2578
    9DOPC   PO4   97   6.007   2.470  16.420  0.0525 -0.2466  0.2691
    9DOPC   GL1   98   6.046   2.530  16.060 -0.0539  0.1253 -0.1373
    9DOPC   GL2   99   5.738   2.599  16.008 -0.3872 -0.1783  0.1479
    9DOPC   C1A  100   6.049   2.815  15.648  0.0978 -0.2474 -0.0697
    9DOPC   D2A  101   5.919   3.082  15.314 -0.2413  0.0895 -0.1540
    9DOPC   C3A  102   5.942   2.972  14.898  0.0981  0.1690 -0.2338
    9DOPC   C4A  103   6.238   2.687  14.644  0.3493  0.1388 -0.1443
    9DOPC   C1B  104   5.476   2.428  15.656  0.2030 -0.1772  0.0580
    9DOPC   D2B  105   5.221   2.332  15.264  0.1781 -0.1867 -0.0236
    9DOPC   C3B  106   4.971   2.680  15.234  0.3588 -0.2906 -0.1239
    9DOPC   C4B  107   4.629   3.007  15.030  0.0088  0.2047  0.3220
   10DOPE   NH3  108   3.486   5.822  15.784 -0.1459  0.0526  0.1057
   10DOPE   PO4  109   3.387   6.031  15.972  0.0754 -0.2583 -0.2409
   10DOPE   GL1  110   3.024   5.997  15.760 -0.3169  0.1221 -0.0599
   10DOPE   GL2  111   2.969   5.750  15.608 -0.1507 -0.0994 -0.1288
   10DOPE   C1A  112   2.838   6.141  15.360  0.3046 -0.0222 -0.0874
   10DOPE   D2A  113   2.716   6.104  14.902 -0.0735 -0.0841 -0.0510
   10DOPE   C3A  114   2.441   5.776  14.647 -0.0073  0.0084 -0.2086
   10DOPE   C4A  115   2.120   5.481  14.527  0.2500  0.1292 -0.0977
   10DOPE   C1B  116   3.244   5.756  15.213  0.1435  0.3487  0.2422
   10DOPE   D2B  117   3.416   6.033  14.920  0.1125 -0.2042  0.3039
   10DOPE   C3B  118   3.128   6.251  14.708  0.0588 -0.0741  0.1037
   10DOPE   C4B  119   3.085   6.476  14.339 -0.0907 -0.1994 -0.0728
   11POSM   NC3  120   8.523   9.160  15.306  0.0257  0.0258 -0.0434
   11POSM   PO4  121   8.879   9.136  15.377  0.0597 -0.2757  0.3188
   11POSM   AM1  122   8.972   9.052  15.108  0.2530 -0.4745 -0.3486
   11POSM   AM2  123   9.130   9.132  14.907  0.1189  0.1077  0.0615
   11POSM   T1A  124   8.734   8.966  14.697 -0.1078  0.0586 -0.0457
   11POSM   C2A  125   8.802   8.697  14.333  0.0380 -0.1185 -0.1553
   11POSM   C3A  126   8.740   8.515  13.907  0.0448  0.1019 -0.1871
   11POSM   C1B  127   9.023   9.388  14.655  0.0754  0.1896  0.1870
   11POSM   D2B  128   9.025   9.646  14.228 -0.2998  0.0779 -0.1053
   11POSM   C3B  129   8.991   9.440  13.819  0.0706  0.2813  0.1576
   11POSM   C4B  130   9.038   9.310  13.407  0.1669  0.2149 -0.0104
   12DOPS   CNO  131   5.818  10.459  16.038 -0.1937  0.0058  0.0047
   12DOPS   PO4  132   5.479  10.631  15.891 -0.0823  0.2079  0.0156
   12DOPS   GL1  133   5.597  10.896  15.518 -0.0643 -0.0432 -0.0196
   12DOPS   GL2  134   5.853  10.723  15.520 -0.0896  0.3210 -0.0174
   12DOPS   C1A  135   5.703  11.285  15.203 -0.1328  0.1049  0.1015
   12DOPS   D2A  136   5.699  11.736  15.018  0.2153 -0.0453  0.1695
   12DOPS   C3A  137   5.573  12.013  14.660  0.0253 -0.0940  0.2936
   12DOPS   C4A  138   5.554  12.166  14.222  0.1900 -0.2050  0.0918
   12DOPS   C1B  139   5.605  10.637  15.150  0.2484 -0.0834  0.0364
   12DOPS   D2B  140   5.692  10.825  14.782  0.0655  0.0799 -0.0740
   12DOPS   C3B  141   5.634  11.283  14.696  0.0677 -0.3578 -0.1230
   12DOPS   C4B  142   5.301  11.527  14.758 -0.0836 -0.0252  0.2287
   13DOPC   NC3  143   9.603   3.441  15.460 -0.0103  0.0937 -0.0656
   13DOPC   PO4  144   9.936   3.432  15.681 -0.1692 -0.0084  0.0173
   13DOPC   GL1  145  10.140   3.355  15.225  0.3333  0.0504 -0.3889
   13DOPC   GL2  146   9.903   3.267  15.087  0.2514 -0.1104  0.1143
   13DOPC   C1A  147  10.351   2.985  15.092 -0.3134 -0.0209  0.0422
   13DOPC   D2A  148  10.580   2.621  14.916 -0.1023  0.0594 -0.1274
   13DOPC   C3A  149  10.888   2.298  15.012 -0.0389  0.0234 -0.0447
   13DOPC   C4A  150  11.073   1.888  14.896  0.0186 -0.2362 -0.2144
   13DOPC   C1B  151   9.734   2.953  14.836  0.4075  0.0367  0.0367
   13DOPC   D2B  152   9.581   2.531  14.925  0.1228  0.0695 -0.0239
   13DOPC   C3B  153   9.880   2.162  14.890  0.1813 -0.2313  0.4128
   13DOPC   C4B  154  10.168   1.835  14.814 -0.2743  0.2164  0.2068
   14DOPE   NH3  155   6.352   5.099  16.348  0.0148 -0.3852 -0.0599
   14DOPE   PO4  156   6.318   4.783  16.214 -0.2038  0.1355  0.2236
   14DOPE   GL1  157   6.085   4.593  15.889  0.3629 -0.0984 -0.2854
   14DOPE   GL2  158   5.808   4.684  15.852  0.1085 -0.0210  0.0590
   14DOPE   C1A  159   6.048   4.478  15.439  0.0636 -0.0787  0.0691
   14DOPE   D2A  160   6.068   4.330  14.950  0.1487  0.1681  0.0604
   14DOPE   C3A  161   6.031   3.910  14.724 -0.0048 -0.3169  0.2400
   14DOPE   C4A  162   5.986   3.502  14.524  0.0199  0.1477  0.1793
   14DOPE   C1B  163   5.713   4.860  15.494 -0.2194 -0.1159  0.1649
   14DOPE   D2B  164   5.578   5.244  15.247 -0.1485 -0.1603  0.3111
   14DOPE   C3B  165   5.908   5.618  15.191  0.0710 -0.2982 -0.0505
   14DOPE   C4B  166   6.281   5.829  15.024  0.1663 -0.2119  0.4621
   15DOPE   NH3  167   5.358   5.339  15.814 -0.0488 -0.0650 -0.0477
   15DOPE   PO4  168   5.005   5.270  15.726 -0.0759 -0.0079  0.1457
   15DOPE   GL1  169   5.220   5.085  15.426 -0.1805  0.1086 -0.2069
   15DOPE   GL2  170   4.959   5.091  15.244  0.2381  0.0330  0.1510
   15DOPE   C1A  171   5.349   4.905  14.990  0.0177  0.0409 -0.0928
   15DOPE   D2A  172   5.391   5.111  14.598  0.0949 -0.0874  0.1587
   15DOPE   C3A  173   5.582   5.436  14.339  0.0720 -0.1132 -0.1515
   15DOPE   C4A  174   5.638   5.505  13.840  0.0974  0.2696  0.0590
   15DOPE   C1B  175   4.955   5.138  14.804  0.4065 -0.2021  0.1063
   15DOPE   D2B  176   4.963   5.076  14.321 -0.0071  0.1844  0.2117
   15DOPE   C3B  177   5.150   5.211  13.873 -0.2003  0.0924  0.4154
   15DOPE   C4B  178   5.154   5.166  13.416 -0.1784  0.2019 -0.0151
   16DOPC   NC3  179   7.769  10.220  15.930  0.0401 -0.1439  0.2057
   16DOPC   PO4  180   7.933  10.553  15.794  0.2566 -0.0760  0.0830
   16DOPC   GL1  181   7.969  10.656  15.427 -0.3003  0.0810 -0.0313
   16DOPC   GL2  182   8.038  10.931  15.429  0.0278  0.0939  0.0798
   16DOPC   C1A  183   7.732  10.556  14.999  0.3600  0.0793  0.0681
   16DOPC   D2A  184   7.420  10.441  14.745 -0.1064 -0.2858  0.2087
   16DOPC   C3A  185   7.585  10.216  14.371  0.1357  0.0492  0.1418
   16DOPC   C4A  186   7.565   9.961  13.936 -0.0151 -0.2565 -0.0889
   16DOPC   C1B  187   7.889  11.325  15.221  0.2982 -0.0234 -0.1359
   16DOPC   D2B  188   7.540  11.673  15.224 -0.0486  0.0073 -0.1774
   16DOPC   C3B  189   7.614  12.115  15.376 -0.0273  0.2829  0.0975
   16DOPC   C4B  190   7.731  12.593  15.441 -0.1094  0.3430 -0.1589
   17POSM   NC3  191  10.400   6.800  15.792  0.0463 -0.1224 -0.1824
   17POSM   PO4  192  10.051   6.945  15.888  0.1481 -0.3329 -0.0963
   17POSM   AM1  193   9.962   6.780  15.637 -0.2076  0.0604  0.0764
   17POSM   AM2  194  10.000   6.524  15.467 -0.1204 -0.0034 -0.1639
   17POSM   T1A  195   9.623   6.762  15.293  0.1143 -0.2472 -0.0471
   17POSM   C2A  196   9.237   6.735  15.004 -0.1671  0.4686 -0.1041
   17POSM   C3A  197   8.822   6.903  14.821  0.0261 -0.1650  0.2102
   17POSM   C1B  198  10.083   6.611  15.131 -0.4245  0.1496 -0.2700
   17POSM   D2B  199  10.068   6.745  14.709  0.0915 -0.2366 -0.3501
   17POSM   C3B  200  10.050   7.137  14.445 -0.0017  0.1634 -0.1917
   17POSM   C4B  201  10.183   7.555  14.606 -0.1449 -0.0661  0.1915
   18DOPE   NH3  202   0.094   9.089  16.275 -0.3001 -0.2043 -0.0809
   18DOPE   PO4  203   0.086   8.828  16.057 -0.0633  0.2720 -0.2526
   18DOPE   GL1  204   0.257   9.084  15.858 -0.0300 -0.1824 -0.1527
   18DOPE   GL2  205   0.141   9.151  15.603  0.0450 -0.0034  0.2329
   18DOPE   C1A  206   0.634   9.176  15.537  0.1748  0.0821  0.2670
   18DOPE   D2A  207   0.835   9.252  15.139  0.1554 -0.0320  0.1180
   18DOPE   C3A  208   1.158   9.017  14.844 -0.0224  0.0961  0.0610
   18DOPE   C4A  209   1.624   9.078  14.713  0.0352  0.2129 -0.0022
   18DOPE   C1B  210  -0.092   9.433  15.327  0.1387 -0.2230  0.1499
   18DOPE   D2B  211  -0.089   9.876  15.314 -0.0320 -0.2422 -0.0883
   18DOPE   C3B  212  -0.204  10.134  14.907  0.1248 -0.3686 -0.1260
   18DOPE   C4B  213  -0.558  10.186  14.661 -0.0307 -0.1376 -0.0536
   19DOPS   CNO  214   5.168   1.117  16.292  0.1498  0.2122  0.0120
   19DOPS   PO4  215   5.000   1.285  16.029  0.1688 -0.2306  0.2752
   19DOPS   GL1  216   5.161   1.227  15.762 -0.2427  0.1609 -0.4037
   19DOPS   GL2  217   5.334   1.488  15.657  0.2452 -0.3057  0.0091
   19DOPS   C1A  218   5.061   1.233  15.296  0.0064  0.1226 -0.3023
   19DOPS   D2A  219   5.052   1.382  14.840 -0.0190  0.1684 -0.2528
   19DOPS   C3A  220   5.454   1.196  14.630 -0.0848 -0.0694 -0.0374
   19DOPS   C4A  221   5.836   1.415  14.594  0.1857 -0.0402  0.1468
   19DOPS   C1B  222   5.103   1.788  15.298 -0.1742  0.1683 -0.1397
   19DOPS   D2B  223   5.022   1.881  14.871 -0.0523  0.0129 -0.2166
   19DOPS   C3B  224   4.888   2.184  14.508  0.2870  0.4057  0.0100
   19DOPS   C4B  225   4.905   2.591  14.253 -0.0564 -0.0568  0.0903
   20POSM   NC3  226   7.469   8.629  16.060 -0.0556  0.0874  0.1482
   20POSM   PO4  227   7.136   8.848  16.166  0.3493  0.1924 -0.1441
   20POSM   AM1  228   7.013   8.634  15.921 -0.3605  0.2562 -0.2117
   20POSM   AM2  229   6.898   8.655  15.648 -0.0388  0.0342 -0.1410
   20POSM   T1A  230   7.130   8.273  15.652  0.0304  0.2918  0.1415
   20POSM   C2A  231   7.020   7.846  15.577  0.1574  0.2745  0.2991
   20POSM   C3A  232   6.905   7.482  15.334 -0.1205 -0.0449 -0.1435
   20POSM   C1B  233   6.929   8.619  15.344  0.0627 -0.1041  0.1331
   20POSM   D2B  234   7.017   8.541  14.900 -0.2647 -0.2122 -0.1330
   20POSM   C3B  235   6.917   8.821  14.544 -0.3140  0.0148 -0.1680
   20POSM   C4B  236   6.566   9.126  14.478 -0.1528  0.3761  0.0927
   21POSM   NC3  237   4.430   8.297  16.295 -0.1381 -0.0508 -0.0121
   21POSM   PO4  238   4.350   8.679  16.269  0.0148 -0.1677  0.1808
   21POSM   AM1  239   4.449   8.691  15.940 -0.5700 -0.0078 -0.0436
   21POSM   AM2  240   4.707   8.784  15.881  0.1346 -0.1782  0.1635
   21POSM   T1A  241   4.457   8.393  15.515  0.2060 -0.0553 -0.2014
   21POSM   C2A  242   4.347   8.199  15.169 -0.1219 -0.0589 -0.0889
   21POSM   C3A  243   4.292   8.093  14.720 -0.1064 -0.3023 -0.4037
   21POSM   C1B  244   4.864   8.617  15.644 -0.0398 -0.1107  0.2058
   21POSM   D2B  245   4.881   8.515  15.178 -0.2032  0.0756 -0.1282
   21POSM   C3B  246   4.752   8.815  14.844 -0.0038  0.2454  0.0718
   21POSM   C4B  247   4.997   8.904  14.461  0.3798  0.0237  0.3569
   22DOPC   NC3  248   3.258   0.050  16.632  0.2553 -0.1311 -0.0363
   22DOPC   PO4  249   2.955   0.286  16.553  0.2047  0.1930 -0.0391
   22DOPC   GL1  250   3.049   0.540  16.267  0.0688 -0.3335 -0.4285
   22DOPC   GL2  251   3.213   0.503  16.003  0.1378 -0.2053  0.1036
   22DOPC   C1A  252   2.754   0.661  15.955  0.4787  0.1796  0.0655
   22DOPC   D2A  253   2.424   0.985  15.792  0.2652 -0.0810  0.2686
   22DOPC   C3A  254   2.085   0.968  15.531  0.0892 -0.0227 -0.1224
   22DOPC   C4A  255   1.828   0.650  15.294 -0.4394  0.1316 -0.1632
   22DOPC   C1B  256   2.997   0.336  15.643  0.0294 -0.2085 -0.0101
   22DOPC   D2B  257   2.882   0.273  15.175  0.0143  0.1185 -0.2223
   22DOPC   C3B  258   3.149   0.583  15.038 -0.1336  0.0557 -0.0726
   22DOPC   C4B  259   3.398   0.738  14.666  0.1916 -0.1338  0.1336
   23DOPS   CNO  260   8.190   4.920  16.137  0.0794 -0.0362 -0.2820
   23DOPS   PO4  261   7.913   4.667  16.190  0.1194 -0.0383  0.0430
   23DOPS   GL1  262   7.927   4.704  15.805  0.1079 -0.0691  0.0486
   23DOPS   GL2  263   7.815   4.974  15.807  0.3088  0.0289 -0.0961
   23DOPS   C1A  264   8.087   4.419  15.441 -0.1741 -0.0545  0.0388
   23DOPS   D2A  265   8.167   4.177  15.070 -0.2323 -0.1228 -0.0428
   23DOPS   C3A  266   7.997   3.703  15.015  0.1975  0.1391  0.2199
   23DOPS   C4A  267   7.627   3.410  14.943  0.0312 -0.0167  0.1329
   23DOPS   C1B  268   7.757   5.173  15.350  0.0036 -0.1388  0.2909
   23DOPS   D2B  269   7.617   5.252  14.934 -0.2384  0.0782  0.3144
   23DOPS   C3B  270   7.855   5.516  14.608  0.2737  0.2431  0.0169
   23DOPS   C4B  271   7.560   5.719  14.343 -0.0427  0.1152 -0.0081
   24DOPE   NH3  272   9.319  10.414  15.628  0.4824 -0.0528  0.1402
   24DOPE   PO4  273   9.237  10.758  15.691  0.0604 -0.3169 -0.0350
   24DOPE   GL1  274   9.126  10.800  15.318  0.1144 -0.2853 -0.0318
   24DOPE   GL2  275   9.054  10.505  15.202 -0.0087 -0.0573 -0.1307
   24DOPE   C1A  276   9.281  11.170  15.117 -0.1748 -0.0614  0.0036
   24DOPE   D2A  277   9.485  11.481  14.854 -0.2822  0.0289  0.0784
   24DOPE   C3A  278   9.429  11.451  14.369  0.0552  0.0940 -0.0896
   24DOPE   C4A  279   9.423  11.614  13.923 -0.1460 -0.2511 -0.2042
   24DOPE   C1B  280   9.032  10.401  14.753  0.1290 -0.0491  0.0861
   24DOPE   D2B  281   8.875  10.265  14.292  0.1430 -0.0043 -0.1261
   24DOPE   C3B  282   9.090  10.506  13.979  0.0835  0.1828  0.0861
   24DOPE   C4B  283   8.986  10.796  13.665 -0.3446  0.1281  0.1972
   25POSM   NC3  284   9.676   5.752  15.961 -0.1242  0.1223 -0.1862
   25POSM   PO4  285  10.021   5.935  15.975 -0.2638 -0.0640  0.3200
   25POSM   AM1  286  10.095   6.044  15.688 -0.2264  0.2734 -0.3197
   25POSM   AM2  287  10.355   6.186  15.598  0.1212 -0.0419  0.0203
   25POSM   T1A  288  10.094   5.932  15.186 -0.0747  0.5364  0.2729
   25POSM   C2A  289  10.139   6.163  14.756  0.1907 -0.1138  0.0943
   25POSM   C3A  290  10.128   5.899  14.401  0.1530  0.0618 -0.0005
   25POSM   C1B  291  10.471   6.257  15.268 -0.0438  0.3271 -0.0704
   25POSM   D2B  292  10.514   6.548  14.877 -0.4733 -0.0677 -0.1433
   25POSM   C3B  293  10.556   6.973  14.787  0.3105  0.1153  0.0677
   25POSM   C4B  294  10.535   7.242  14.405  0.0549  0.0986 -0.0477
   26POSM   NC3  295  11.119   2.748  15.830  0.1466 -0.0399  0.0784
   26POSM   PO4  296  11.063   2.415  15.651 -0.2821 -0.1028  0.0897
   26POSM   AM1  297  11.141   2.522  15.373  0.1146 -0.4292 -0.0130
   26POSM   AM2  298  11.308   2.713  15.274  0.2606  0.0252  0.0987
   26POSM   T1A  299  11.372   2.394  14.924  0.1031  0.0005 -0.2383
   26POSM   C2A  300  11.194   2.309  14.512  0.2358  0.0979  0.1243
   26POSM   C3A  301  11.201   2.594  14.130 -0.3745  0.0123 -0.0333
   26POSM   C1B  302  11.240   2.866  14.957 -0.0141 -0.0142  0.0387
   26POSM   D2B  303  10.974   2.818  14.549  0.3915 -0.0361 -0.0143
   26POSM   C3B  304  10.640   2.660  14.321 -0.3167 -0.1269  0.1964
   26POSM   C4B  305  10.321   2.393  14.128 -0.0261  0.1369 -0.0294
   27DOPC   NC3  306   1.573   8.008  15.904 -0.3536 -0.3846  0.5544
   27DOPC   PO4  307   1.984   7.984  15.943  0.0293 -0.1778 -0.1581
   27DOPC   GL1  308   1.894   8.107  15.599  0.1651  0.0318  0.3925
   27DOPC   GL2  309   1.729   8.358  15.579 -0.3046  0.0069 -0.1730
   27DOPC   C1A  310   1.530   8.006  15.304 -0.0682  0.2523  0.3646
   27DOPC   D2A  311   1.167   7.753  15.313  0.1692 -0.0668 -0.0333
   27DOPC   C3A  312   0.898   7.800  14.955 -0.0614 -0.0526 -0.1515
   27DOPC   C4A  313   0.921   7.817  14.556  0.2485 -0.1891  0.0033
   27DOPC   C1B  314   1.849   8.731  15.696  0.1398 -0.0958  0.4712
   27DOPC   D2B  315   1.939   9.178  15.467  0.0772  0.0045  0.0104
   27DOPC   C3B  316   1.635   9.554  15.489  0.0095 -0.0742  0.0762
   27DOPC   C4B  317   1.148   9.639  15.399  0.1608 -0.1993 -0.1942
   28DOPC   NC3  318   1.280   3.045  16.332 -0.3444 -0.0566 -0.0157
   28DOPC   PO4  319   1.491   3.202  15.988 -0.0572  0.1307  0.0180
   28DOPC   GL1  320   1.371   2.950  15.574  0.2113  0.0832  0.1233
   28DOPC   GL2  321   1.363   2.683  15.346  0.0203 -0.2076  0.0119
   28DOPC   C1A  322   0.993   3.043  15.294 -0.1077 -0.0930  0.1946
   28DOPC   D2A  323   0.889   3.441  15.073  0.1983  0.0260 -0.1683
   28DOPC   C3A  324   0.874   3.572  14.644 -0.0311  0.4570 -0.2839
   28DOPC   C4A  325   0.967   3.336  14.218  0.0231 -0.0888  0.0858
   28DOPC   C1B  326   1.269   2.212  15.207  0.2503 -0.1131 -0.3313
   28DOPC   D2B  327   1.286   2.083  14.785 -0.2552 -0.2789 -0.0618
   28DOPC   C3B  328   1.198   2.421  14.424 -0.4070 -0.0367 -0.1646
   28DOPC   C4B  329   1.353   2.915  14.352  0.2085  0.1002 -0.1849
   29POSM   NC3  330   6.463   0.137  16.189 -0.0436 -0.0750 -0.1951
   29POSM   PO4  331   6.650   0.154  15.798  0.3412 -0.2852 -0.1483
   29POSM   AM1  332   6.631   0.107  15.483  0.2132  0.1293  0.0668
   29POSM   AM2  333   6.701   0.235  15.249  0.0408  0.1759 -0.2835
   29POSM   T1A  334   6.400  -0.092  15.089 -0.1576 -0.1938 -0.0472
   29POSM   C2A  335   6.400  -0.140  14.666 -0.1613 -0.0511  0.1423
   29POSM   C3A  336   6.466  -0.239  14.289  0.0224 -0.0078 -0.0281
   29POSM   C1B  337   6.542   0.399  15.019  0.1295 -0.0450  0.1670
   29POSM   D2B  338   6.250   0.535  14.659 -0.0705  0.0356 -0.1642
   29POSM   C3B  339   6.346   0.727  14.286  0.0778 -0.0546  0.4344
   29POSM   C4B  340   6.507   1.088  14.003 -0.1419 -0.1595  0.2347
   30POSM   NC3  341  11.660   5.468  15.888  0.3763  0.3492  0.1917
   30POSM   PO4  342  11.310   5.638  15.890  0.0458  0.4789 -0.0946
   30POSM   AM1  343  11.278   5.617  15.567  0.0905 -0.1278  0.1731
   30POSM   AM2  344  11.442   5.705  15.334  0.2559 -0.0410  0.0205
   30POSM   T1A  345  11.235   5.238  15.258 -0.0056  0.0017 -0.0621
   30POSM   C2A  346  11.012   4.837  15.199  0.2011  0.3073  0.0658
   30POSM   C3A  347  10.943   4.725  14.766 -0.0559  0.2980  0.1608
   30POSM   C1B  348  11.406   5.951  15.135  0.0332 -0.1882 -0.0236
   30POSM   D2B  349  11.450   6.175  14.765 -0.0187 -0.0095 -0.0425
   30POSM   C3B  350  11.053   6.179  14.490 -0.1349 -0.0584  0.0311
   30POSM   C4B  351  10.904   6.342  14.036  0.0122 -0.0799 -0.0822
   31DOPE   NH3  352  10.228  11.000  16.108 -0.0889 -0.1258 -0.1045
   31DOPE   PO4  353  10.101  11.056  15.836 -0.2945  0.0299 -0.0497
   31DOPE   GL1  354  10.054  10.949  15.475  0.1836 -0.0881  0.0370
   31DOPE   GL2  355  10.276  10.776  15.325  0.0845 -0.1402  0.1787
   31DOPE   C1A  356   9.813  11.036  15.118 -0.0333  0.3039  0.1706
   31DOPE   D2A  357   9.962  11.226  14.740 -0.0724  0.2051  0.1630
   31DOPE   C3A  358  10.311  11.128  14.470  0.0839  0.1164  0.1190
   31DOPE   C4A  359  10.503  11.127  14.069 -0.0275 -0.0384 -0.2841
   31DOPE   C1B  360  10.185  10.766  14.896  0.1684 -0.1451  0.1493
   31DOPE   D2B  361   9.970  10.775  14.488 -0.2502 -0.1006 -0.0675
   31DOPE   C3B  362   9.593  10.930  14.330  0.0215  0.1996  0.1495
   31DOPE   C4B  363   9.144  11.048  14.203  0.3471 -0.0657 -0.1705
   32DOPC   NC3  364   6.638   9.684  16.037 -0.0528 -0.0180 -0.0274
   32DOPC   PO4  365   6.984   9.645  15.892 -0.0759  0.1896 -0.0808
   32DOPC   GL1  366   7.031   9.614  15.495  0.1009 -0.1185  0.1543
   32DOPC   GL2  367   7.027   9.476  15.262  0.1888 -0.1184 -0.0104
   32DOPC   C1A  368   6.776   9.965  15.277 -0.0373  0.2131 -0.0966
   32DOPC   D2A  369   6.497  10.356  15.124 -0.2729  0.1209 -0.3262
   32DOPC   C3A  370   6.077  10.135  15.082 -0.2069 -0.0131 -0.5113
   32DOPC   C4A  371   6.032   9.686  14.924 -0.2470 -0.0682  0.3833
   32DOPC   C1B  372   7.057   9.629  14.789 -0.0536 -0.2198  0.0928
   32DOPC   D2B  373   7.416   9.674  14.527  0.3806 -0.0740  0.0406
   32DOPC   C3B  374   7.515   9.514  14.100 -0.1070  0.3565 -0.0070
   32DOPC   C4B  375   7.663   9.130  13.879  0.0372  0.0195 -0.4265
   33DOPE   NH3  376   8.412   6.222  15.901 -0.1573  0.0999 -0.1444
   33DOPE   PO4  377   8.637   6.281  15.645 -0.3590  0.0134 -0.0010
   33DOPE   GL1  378   8.344   6.634  15.599 -0.2923  0.2117 -0.5279
   33DOPE   GL2  379   8.056   6.461  15.629  0.2566 -0.0889  0.0630
   33DOPE   C1A  380   8.019   6.950  15.413 -0.1251 -0.1012  0.0600
   33DOPE   D2A  381   7.728   7.219  15.107 -0.0728 -0.1328  0.0542
   33DOPE   C3A  382   7.607   7.068  14.742  0.4300  0.2062  0.0987
   33DOPE   C4A  383   7.603   7.185  14.346 -0.0882 -0.0808 -0.0659
   33DOPE   C1B  384   7.942   6.196  15.315  0.1771 -0.0019 -0.0234
   33DOPE   D2B  385   7.515   6.177  15.223 -0.1786 -0.2325 -0.0539
   33DOPE   C3B  386   7.509   6.003  14.778  0.1340  0.3199  0.3445
   33DOPE   C4B  387   7.591   6.215  14.338  0.1888  0.2232 -0.1051
   34DOPE   NH3  388  10.326   3.740  15.940 -0.0907  0.0263  0.2052
   34DOPE   PO4  389  10.325   3.841  15.609  0.2967 -0.2959  0.1513
   34DOPE   GL1  390  10.404   3.692  15.233  0.0387  0.1985 -0.2306
   34DOPE   GL2  391  10.588   3.495  15.224  0.1349 -0.1190  0.1980
   34DOPE   C1A  392  10.395   3.502  14.788  0.0162  0.1973  0.1333
   34DOPE   D2A  393  10.380   3.112  14.413 -0.1388 -0.3826  0.0566
   34DOPE   C3A  394   9.935   2.981  14.335 -0.1958 -0.0659 -0.4215
   34DOPE   C4A  395   9.636   3.062  13.974  0.0306 -0.0062  0.2836
   34DOPE   C1B  396  10.864   3.649  14.865  0.1061  0.2337 -0.0564
   34DOPE   D2B  397  10.970   3.926  14.500 -0.4560 -0.1323  0.2252
   34DOPE   C3B  398  10.786   4.211  14.154 -0.0304 -0.3885 -0.2396
   34DOPE   C4B  399  10.608   4.267  13.713  0.2266 -0.0314  0.0629
   35DOPE   NH3  400   7.790   2.854  16.207  0.2113 -0.1490  0.1361
   35DOPE   PO4  401   7.867   2.958  15.946 -0.1793  0.4223  0.1510
   35DOPE   GL1  402   7.460   2.805  15.731  0.0560  0.3890 -0.0629
   35DOPE   GL2  403   7.474   3.125  15.591  0.0761  0.2729  0.1011
   35DOPE   C1A  404   7.376   2.742  15.303 -0.1493  0.3498 -0.0846
   35DOPE   D2A  405   7.306   2.943  14.864 -0.2329 -0.0414  0.2058
   35DOPE   C3A  406   7.151   2.673  14.504 -0.0112 -0.0303 -0.1434
   35DOPE   C4A  407   6.793   2.488  14.180 -0.0034  0.1123 -0.0780
   35DOPE   C1B  408   7.240   3.338  15.242  0.0606 -0.1309 -0.0232
   35DOPE   D2B  409   7.207   3.614  14.845  0.2406 -0.0427 -0.2825
   35DOPE   C3B  410   7.232   3.348  14.442 -0.3259  0.1033 -0.3517
   35DOPE   C4B  411   7.356   2.980  14.139  0.1536  0.1170  0.1176
   36DOPS   CNO  412   0.507   5.018  16.691 -0.1801  0.0193  0.2006
   36DOPS   PO4  413   0.693   4.955  16.384  0.3004  0.0639 -0.0847
   36DOPS   GL1  414   0.971   5.102  16.104 -0.1431 -0.0370  0.0134
   36DOPS   GL2  415   0.835   5.184  15.840 -0.4333 -0.0126  0.2804
   36DOPS   C1A  416   1.290   5.373  15.893  0.0231  0.1672  0.0853
   36DOPS   D2A  417   1.301   5.696  15.559 -0.2592 -0.2271 -0.0472
   36DOPS   C3A  418   1.417   5.869  15.143 -0.0039 -0.1694 -0.1693
   36DOPS   C4A  419   1.433   6.033  14.727 -0.0079  0.3339  0.0921
   36DOPS   C1B  420   0.932   5.381  15.479 -0.4840  0.0318 -0.1443
   36DOPS   D2B  421   0.918   5.652  15.096 -0.1677 -0.0437  0.4736
   36DOPS   C3B  422   1.010   5.356  14.771 -0.0425  0.2477  0.1072
   36DOPS   C4B  423   1.160   5.291  14.323 -0.1396  0.1697  0.0606
   37DOPE   NH3  424   5.868   7.962  16.180 -0.1671 -0.1211 -0.0730
   37DOPE   PO4  425   6.087   8.025  15.935 -0.1294  0.0299 -0.2432
   37DOPE   GL1  426   6.195   7.996  15.630  0.2479 -0.1605  0.0093
   37DOPE   GL2  427   5.918   7.944  15.488 -0.1992 -0.3427 -0.0809
   37DOPE   C1A  428   6.592   8.110  15.446 -0.2385 -0.5202  0.1549
   37DOPE   D2A  429   6.781   8.083  15.067  0.1132 -0.1945 -0.1636
   37DOPE   C3A  430   6.825   7.721  14.808  0.1066 -0.0024  0.0711
   37DOPE   C4A  431   6.623   7.563  14.469  0.1727  0.0147 -0.1977
   37DOPE   C1B  432   6.181   7.727  15.169 -0.1106 -0.3077 -0.0784
   37DOPE   D2B  433   6.382   7.566  14.894 -0.4584  0.0423  0.4004
   37DOPE   C3B  434   6.237   7.211  14.583  0.1332 -0.1411  0.0339
   37DOPE   C4B  435   6.144   7.012  14.177 -0.0342  0.0897  0.1634
   38DOPE   NH3  436   3.591   6.492  15.866 -0.4400  0.0656 -0.1598
   38DOPE   PO4  437   3.786   6.726  15.891 -0.2395  0.1928 -0.1894
   38DOPE   GL1  438   3.675   6.832  15.510 -0.1596 -0.4624 -0.1372
   38DOPE   GL2  439   3.828   6.614  15.431  0.0364  0.0328 -0.3227
   38DOPE   C1A  440   3.672   6.876  15.085 -0.2033  0.1512 -0.1650
   38DOPE   D2A  441   3.462   6.742  14.721  0.1105  0.2706  0.0028
   38DOPE   C3A  442   3.582   6.336  14.538  0.0332 -0.0427 -0.0124
   38DOPE   C4A  443   3.362   6.043  14.291 -0.0701 -0.3980  0.2811
   38DOPE   C1B  444   3.837   6.333  14.990  0.2537  0.2432 -0.3553
   38DOPE   D2B  445   4.012   6.142  14.638  0.2648  0.0064  0.0910
   38DOPE   C3B  446   3.852   6.078  14.170  0.0935 -0.2373 -0.0728
   38DOPE   C4B  447   4.044   5.794  13.897  0.0134 -0.0994  0.2821
   39POSM   NC3  448   3.471   0.712  16.409  0.1395  0.1857  0.0358
   39POSM   PO4  449   3.650   0.371  16.397 -0.0303 -0.0573 -0.1210
   39POSM   AM1  450   3.799   0.325  16.120 -0.0161  0.2575  0.0152
   39POSM   AM2  451   3.833   0.496  15.873 -0.5090 -0.1050  0.2236
   39POSM   T1A  452   3.995   0.027  15.793  0.2689  0.2120  0.0026
   39POSM   C2A  453   3.778  -0.254  15.512  0.0216 -0.3876  0.0796
   39POSM   C3A  454   3.432  -0.359  15.226 -0.0831  0.3283  0.0832
   39POSM   C1B  455   3.848   0.744  15.718 -0.1789  0.0036  0.0747
   39POSM   D2B  456   4.014   1.065  15.418 -0.0606 -0.4400  0.2388
   39POSM   C3B  457   4.064   0.973  15.020 -0.0744  0.0570 -0.2326
   39POSM   C4B  458   3.879   0.750  14.658 -0.3783  0.1204 -0.1784
   40POSM   NC3  459   4.202   3.549  15.967 -0.1496 -0.1695  0.2821
   40POSM   PO4  460   4.587   3.469  16.001 -0.1350  0.0905  0.0748
   40POSM   AM1  461   4.700   3.555  15.696 -0.1953 -0.0879  0.1034
   40POSM   AM2  462   4.666   3.484  15.409  0.0361 -0.1308  0.0415
   40POSM   T1A  463   5.134   3.631  15.479 -0.0867  0.5196 -0.1371
   40POSM   C2A  464   5.323   3.975  15.181 -0.0401 -0.2723 -0.5595
   40POSM   C3A  465   5.347   4.123  14.728 -0.2660 -0.4060 -0.1693
   40POSM   C1B  466   4.599   3.548  15.118 -0.1355 -0.2367 -0.1836
   40POSM   D2B  467   4.391   3.392  14.713 -0.0763  0.1396  0.1622
   40POSM   C3B  468   4.687   3.051  14.541 -0.0783 -0.2037 -0.0091
   40POSM   C4B  469   4.970   2.783  14.731 -0.2796  0.0637  0.2561
   41DOPC   NC3  470   6.367   7.523  16.533 -0.1493  0.3923 -0.3078
   41DOPC   PO4  471   6.217   7.603  16.178  0.0451  0.0482 -0.0770
   41DOPC   GL1  472   6.242   7.395  15.852 -0.3449 -0.1797  0.1683
   41DOPC   GL2  473   6.125   7.474  15.585 -0.0059  0.4831 -0.1390
   41DOPC   C1A  474   6.571   7.163  15.522 -0.1190 -0.2057 -0.0608
   41DOPC   D2A  475   6.738   6.765  15.362 -0.1657 -0.0757 -0.2347
   41DOPC   C3A  476   6.558   6.410  15.114 -0.5259 -0.0028  0.1327
   41DOPC   C4A  477   6.491   6.165  14.712  0.1901 -0.1398  0.0461
   41DOPC   C1B  478   6.187   7.226  15.217  0.2182  0.2279 -0.2119
   41DOPC   D2B  479   6.575   7.157  15.012  0.0273 -0.4716 -0.0460
   41DOPC   C3B  480   6.666   6.906  14.678 -0.0993 -0.2240 -0.1254
   41DOPC   C4B  481   6.613   6.567  14.349  0.2278  0.0726  0.3127
   42DOPC   NC3  482   3.815   9.415  16.304 -0.2622 -0.0196 -0.0010
   42DOPC   PO4  483   4.132   9.519  16.057  0.2692 -0.1905  0.1835
   42DOPC   GL1  484   4.148   9.101  15.894  0.0537 -0.2180 -0.0837
   42DOPC   GL2  485   4.441   9.193  15.897  0.2177  0.1063  0.3192
   42DOPC   C1A  486   3.968   8.838  15.536  0.0223  0.2407  0.1632
   42DOPC   D2A  487   3.811   8.429  15.366 -0.0957 -0.1045  0.1671
   42DOPC   C3A  488   3.749   8.201  14.952 -0.1635 -0.0522  0.0229
   42DOPC   C4A  489   3.871   8.332  14.486  0.2555 -0.2696  0.0635
   42DOPC   C1B  490   4.478   8.970  15.509 -0.0273 -0.1207  0.2032
   42DOPC   D2B  491   4.376   8.704  15.155 -0.0723  0.1624  0.1839
   42DOPC   C3B  492   4.018   8.682  14.889 -0.0464 -0.4204 -0.0874
   42DOPC   C4B  493   3.754   8.878  14.546  0.1859  0.2952  0.3313
   43POSM   NC3  494   2.395  10.163  15.873  0.1325  0.1911  0.1121
   43POSM   PO4  495   2.763  10.261  15.737 -0.0235  0.0160 -0.1041
   43POSM   AM1  496   2.686  10.135  15.452  0.0652 -0.0734  0.2562
   43POSM   AM2  497   2.800   9.933  15.300 -0.0664  0.1627 -0.1137
   43POSM   T1A  498   2.475  10.121  14.991  0.0804 -0.0738 -0.1560
   43POSM   C2A  499   2.275   9.859  14.712 -0.3013  0.1975 -0.0998
   43POSM   C3A  500   2.352   9.492  14.547 -0.3995  0.0855  0.0199
   43POSM   C1B  501   3.056   9.961  15.058  0.0192  0.2789 -0.1392
   43POSM   D2B  502   3.307   9.973  14.723 -0.1912 -0.0082 -0.1186
   43POSM   C3B  503   3.210   9.707  14.399 -0.2168  0.2986  0.4519
   43POSM   C4B  504   2.888   9.585  14.115 -0.0736 -0.0543  0.0240
   44DOPC   NC3  505   8.491   2.077  15.653 -0.0525  0.0085  0.2500
   44DOPC   PO4  506   8.622   2.436  15.734 -0.1280  0.3282  0.2647
   44DOPC   GL1  507   8.811   2.252  15.343 -0.1112 -0.1306 -0.0302
   44DOPC   GL2  508   8.623   2.241  15.115 -0.2024  0.0629 -0.2025
   44DOPC   C1A  509   9.127   2.143  14.991 -0.0806 -0.4341  0.3253
   44DOPC   D2A  510   9.431   2.081  14.648 -0.2807 -0.2011  0.0673
   44DOPC   C3A  511   9.582   2.341  14.295  0.2064  0.0116  0.2292
   44DOPC   C4A  512   9.818   2.373  13.969  0.1318  0.1328 -0.0579
   44DOPC   C1B  513   8.684   2.377  14.695 -0.0578  0.0538  0.0362
   44DOPC   D2B  514   8.672   2.471  14.245 -0.0085  0.1553 -0.3379
   44DOPC   C3B  515   8.796   2.834  14.025  0.2594  0.0460 -0.1229
   44DOPC   C4B  516   8.665   3.236  14.116  0.1895 -0.1526  0.1719
   45POSM   NC3  517  34.445   7.875  15.764 -0.0093  0.1488 -0.2837
   45POSM   PO4  518  34.764   8.081  15.735  0.0442 -0.2278 -0.1091
   45POSM   AM1  519  34.981   8.017  15.432 -0.0342 -0.1777 -0.0331
   45POSM   AM2  520  35.191   8.171  15.275  0.0931  0.2395  0.3445
   45POSM   T1A  521  35.064   7.723  15.081  0.0778 -0.1640  0.1636
   45POSM   C2A  522  35.149   7.423  14.757 -0.0284 -0.4357 -0.0316
   45POSM   C3A  523  35.318   7.006  14.579  0.0834  0.2394  0.4966
   45POSM   C1B  524  35.305   8.187  14.901  0.3438  0.4483  0.1782
   45POSM   D2B  525  35.389   8.259  14.431  0.1925 -0.1148  0.3433
   45POSM   C3B  526  35.804   8.154  14.208  0.1705 -0.0032  0.0455
   45POSM   C4B  527  36.008   7.781  14.037  0.1855 -0.0263  0.0893
   46DOPC   NC3  528   3.584   4.932  15.793 -0.3032 -0.0363  0.2276
   46DOPC   PO4  529   3.548   5.313  15.815 -0.0680  0.2275  0.1491
   46DOPC   GL1  530   3.298   5.308  15.594  0.0402  0.0751  0.2266
   46DOPC   GL2  531   3.420   5.119  15.339  0.0264  0.2215 -0.0150
   46DOPC   C1A  532   2.931   5.328  15.355  0.2155  0.1097  0.0007
   46DOPC   D2A  533   2.875   5.524  14.938  0.2797  0.0082 -0.1026
   46DOPC   C3A  534   3.283   5.546  14.717 -0.1235  0.1445  0.1113
   46DOPC   C4A  535   3.581   5.647  14.415 -0.0750 -0.1103  0.2615
   46DOPC   C1B  536   3.146   4.781  15.252  0.1654 -0.1979  0.0747
   46DOPC   D2B  537   2.708   4.692  15.230 -0.0976 -0.1982 -0.0300
   46DOPC   C3B  538   2.600   4.614  14.776  0.0223 -0.0415 -0.0068
   46DOPC   C4B  539   2.608   4.797  14.374 -0.0831 -0.0067 -0.1039
   47POSM   NC3  540   1.984  10.822  15.726 -0.0649  0.0573  0.0605
   47POSM   PO4  541   1.827  10.474  15.796  0.1983 -0.1170 -0.2262
   47POSM   AM1  542   1.587  10.599  15.579 -0.0839  0.0923 -0.0374
   47POSM   AM2  543   1.585  10.518  15.314  0.1907  0.2014 -0.0463
   47POSM   T1A  544   1.490  11.036  15.340  0.3438 -0.2917  0.0699
   47POSM   C2A  545   1.428  11.444  15.117 -0.1417  0.2925 -0.0741
   47POSM   C3A  546   1.226  11.687  14.797 -0.1964  0.1925  0.1678
   47POSM   C1B  547   1.377  10.672  15.069  0.2779  0.1256  0.0799
   47POSM   D2B  548   1.298  10.691  14.559  0.0538  0.2184 -0.3673
   47POSM   C3B  549   1.771  10.661  14.503 -0.0838 -0.1100 -0.1182
   47POSM   C4B  550   2.074  10.576  14.182  0.3250 -0.0149 -0.2609
   48DOPE   NH3  551   3.639   7.498  16.253  0.0165 -0.1310  0.1157
   48DOPE   PO4  552   3.869   7.368  16.103 -0.0015  0.1884  0.0131
   48DOPE   GL1  553   3.766   7.169  15.780  0.2122 -0.2407  0.2346
   48DOPE   GL2  554   3.458   7.056  15.833  0.1442 -0.1669  0.2215
   48DOPE   C1A  555   3.721   7.407  15.410  0.0977  0.0483 -0.0242
   48DOPE   D2A  556   3.936   7.373  15.009 -0.3151  0.0829  0.2868
   48DOPE   C3A  557   4.030   7.323  14.529 -0.3064 -0.1286  0.2143
   48DOPE   C4A  558   4.017   7.026  14.223  0.1654 -0.3669 -0.2118
   48DOPE   C1B  559   3.225   7.018  15.360  0.1248 -0.1313 -0.3930
   48DOPE   D2B  560   2.785   7.165  15.209  0.0304 -0.1145  0.3456
   48DOPE   C3B  561   2.888   7.545  15.029  0.0239 -0.1211 -0.3695
   48DOPE   C4B  562   3.027   7.658  14.603 -0.1163  0.0420 -0.2830
   49DOPC   NC3  563  11.080   1.932  15.428 -0.0502  0.1831 -0.0806
   49DOPC   PO4  564  11.005   1.607  15.623 -0.1310  0.1204 -0.1378
   49DOPC   GL1  565  10.585   1.718  15.392 -0.0892 -0.1633 -0.2215
   49DOPC   GL2  566  10.626   1.819  15.096  0.1094  0.4251  0.0804
   49DOPC   C1A  567  10.245   1.494  15.184 -0.1133  0.0363  0.2606
   49DOPC   D2A  568   9.852   1.444  14.849  0.1447  0.0807  0.3159
   49DOPC   C3A  569   9.567   1.241  14.525  0.2285 -0.1563  0.1149
   49DOPC   C4A  570   9.554   1.299  14.048  0.0683  0.0783 -0.1312
   49DOPC   C1B  571  10.327   2.178  15.156 -0.3976  0.1480 -0.0999
   49DOPC   D2B  572  10.073   2.571  15.043 -0.2940  0.3105 -0.0114
   49DOPC   C3B  573  10.124   2.552  14.593 -0.2231  0.2998  0.0070
   49DOPC   C4B  574  10.005   2.126  14.382  0.1283 -0.1398 -0.0945
   50DOPC   NC3  575   6.434   0.635  15.559  0.3319  0.1603 -0.0252
   50DOPC   PO4  576   6.589   0.971  15.630  0.0327  0.1522 -0.2386
   50DOPC   GL1  577   6.633   1.090  15.274 -0.0161  0.0882 -0.0088
   50DOPC   GL2  578   6.593   0.875  15.149  0.0932  0.0927 -0.2119
   50DOPC   C1A  579   6.928   1.191  14.907  0.0696 -0.1520  0.0174
   50DOPC   D2A  580   6.995   1.580  14.601 -0.1583  0.0033  0.0012
   50DOPC   C3A  581   7.192   1.678  14.140  0.1152 -0.0780  0.0433
   50DOPC   C4A  582   7.292   1.885  13.709 -0.0386 -0.0404  0.2834
   50DOPC   C1B  583   6.787   0.701  14.744  0.5279  0.0706  0.0143
   50DOPC   D2B  584   6.813   0.716  14.270  0.0180  0.0909  0.3123
   50DOPC   C3B  585   7.039   0.987  13.972 -0.3414  0.0272  0.0307
   50DOPC   C4B  586   7.477   0.966  13.776 -0.0976  0.2061 -0.1953
   51DOPC   NC3  587   4.009   4.241  15.399  0.1087  0.0149  0.1510
   51DOPC   PO4  588   4.319   4.484  15.565  0.0626  0.0732  0.0668
   51DOPC   GL1  589   4.262   4.719  15.268 -0.1574  0.0891  0.4506
   51DOPC   GL2  590   4.254   4.601  15.057  0.1303  0.2690  0.2615
   51DOPC   C1A  591   4.331   5.056  14.998  0.0806 -0.1098  0.2885
   51DOPC   D2A  592   4.504   5.263  14.641 -0.0775 -0.1907 -0.0434
   51DOPC   C3A  593   4.560   5.326  14.152  0.0698 -0.0823 -0.0467
   51DOPC   C4A  594   4.738   5.314  13.698 -0.1509 -0.0324  0.1129
   51DOPC   C1B  595   4.047   4.273  14.778 -0.0168 -0.1208 -0.0005
   51DOPC   D2B  596   3.650   4.130  14.626 -0.1289  0.2053 -0.2166
   51DOPC   C3B  597   3.278   4.222  14.431  0.1083 -0.0934 -0.3975
   51DOPC   C4B  598   2.807   4.285  14.431 -0.1161  0.2339 -0.3341
   52DOPC   NC3  599   9.949   9.536  15.671  0.1198 -0.3648  0.0768
   52DOPC   PO4  600   9.807   9.172  15.802  0.2700 -0.3950 -0.0154
   52DOPC   GL1  601   9.919   9.037  15.371 -0.1094  0.0469  0.4226
   52DOPC   GL2  602  10.082   8.784  15.237 -0.1872  0.0751  0.0021
   52DOPC   C1A  603   9.794   9.034  14.901 -0.2391  0.3480  0.3241
   52DOPC   D2A  604   9.996   8.882  14.496 -0.0404 -0.0303 -0.2008
   52DOPC   C3A  605   9.702   8.768  14.113 -0.1117  0.2675 -0.0940
   52DOPC   C4A  606   9.511   8.990  13.762  0.3535  0.0006  0.1690
   52DOPC   C1B  607  10.121   8.481  14.851  0.3401  0.1114  0.4447
   52DOPC   D2B  608   9.762   8.412  14.540  0.0231  0.0325 -0.1441
   52DOPC   C3B  609   9.925   8.020  14.328  0.0824 -0.0202  0.0568
   52DOPC   C4B  610   9.890   7.598  14.162  0.0234  0.0755 -0.0257
   53DOPS   CNO  611   5.605   5.119  16.377 -0.0380 -0.3475 -0.0377
   53DOPS   PO4  612   5.923   5.105  16.144 -0.1026  0.0279  0.3638
   53DOPS   GL1  613   6.185   5.082  15.883  0.4233  0.4413 -0.1803
   53DOPS   GL2  614   6.058   5.146  15.659  0.0975 -0.0319 -0.0804
   53DOPS   C1A  615   6.608   5.190  15.699 -0.0780 -0.0875 -0.0453
   53DOPS   D2A  616   6.574   5.412  15.297 -0.0281  0.1072  0.0285
   53DOPS   C3A  617   7.052   5.531  15.336  0.1969  0.2666  0.1038
   53DOPS   C4A  618   7.409   5.632  15.114 -0.0744  0.2002  0.1112
   53DOPS   C1B  619   6.262   5.589  15.641 -0.3007 -0.1617 -0.0869
   53DOPS   D2B  620   6.462   5.985  15.446  0.2174  0.3379 -0.1223
   53DOPS   C3B  621   6.759   5.929  15.103 -0.1618 -0.3524 -0.1201
   53DOPS   C4B  622   7.089   5.801  14.812 -0.1771 -0.0568  0.0056
   54DOPC   NC3  623   6.663   4.500  15.873  0.4154 -0.0598  0.0324
   54DOPC   PO4  624   7.037   4.563  16.017  0.5050  0.0352  0.0445
   54DOPC   GL1  625   7.001   4.307  15.598 -0.0562 -0.4738 -0.1052
   54DOPC   GL2  626   6.798   4.053  15.684  0.1308  0.0587 -0.0673
   54DOPC   C1A  627   7.284   4.295  15.217 -0.2853 -0.0984 -0.2895
   54DOPC   D2A  628   7.604   3.981  15.050 -0.1429 -0.2825 -0.3727
   54DOPC   C3A  629   7.564   3.817  14.613  0.1356 -0.0398  0.0306
   54DOPC   C4A  630   7.337   3.932  14.237  0.2570 -0.2461  0.2055
   54DOPC   C1B  631   6.485   4.277  15.479 -0.0311 -0.3382 -0.2009
   54DOPC   D2B  632   6.473   4.784  15.370 -0.0713 -0.1444 -0.0311
   54DOPC   C3B  633   6.593   4.915  14.967  0.0142 -0.0694 -0.2761
   54DOPC   C4B  634   6.431   5.125  14.639 -0.0958  0.0012  0.0731
   55DOPS   CNO  635   8.076   8.045  15.749  0.0133  0.1010 -0.0362
   55DOPS   PO4  636   8.196   8.409  15.700 -0.0048 -0.6260 -0.0265
   55DOPS   GL1  637   7.915   8.271  15.390  0.3619  0.1956  0.3398
   55DOPS   GL2  638   7.663   8.354  15.629  0.1300 -0.0256 -0.2661
   55DOPS   C1A  639   7.914   8.110  14.961  0.0030  0.1756  0.2176
   55DOPS   D2A  640   7.805   7.963  14.522  0.2722 -0.0176  0.0427
   55DOPS   C3A  641   8.078   8.015  14.146  0.0944 -0.0112  0.1011
   55DOPS   C4A  642   8.203   8.172  13.749  0.0940  0.1646  0.3528
   55DOPS   C1B  643   7.460   8.351  15.214 -0.0485  0.0432  0.5072
   55DOPS   D2B  644   7.516   8.442  14.801 -0.1648 -0.0336  0.1193
   55DOPS   C3B  645   7.352   8.663  14.425  0.1063  0.0056  0.0146
   55DOPS   C4B  646   7.219   8.934  14.105 -0.5006  0.0734 -0.0513
   56POSM   NC3  647  11.343   0.622  15.673  0.0503 -0.0388 -0.1942
   56POSM   PO4  648  11.604   0.737  15.923 -0.0285  0.0791 -0.1460
   56POSM   AM1  649  11.812   0.641  15.684 -0.0403 -0.2978 -0.3620
   56POSM   AM2  650  11.896   0.374  15.573 -0.5178 -0.0553 -0.3796
   56POSM   T1A  651  12.185   0.647  15.359  0.3012 -0.0419  0.2596
   56POSM   C2A  652  12.310   0.645  14.878 -0.2322  0.2341  0.0146
   56POSM   C3A  653  12.289   0.518  14.465 -0.1483  0.4437 -0.0749
   56POSM   C1B  654  12.027   0.203  15.295  0.2949 -0.1548  0.1463
   56POSM   D2B  655  11.993   0.129  14.819 -0.2280  0.1312  0.2235
   56POSM   C3B  656  11.606   0.301  14.696 -0.0952  0.1342  0.2099
   56POSM   C4B  657  11.222   0.343  14.468 -0.0018  0.1020  0.4494
   57DOPS   CNO  658   5.331   4.849  15.889 -0.0542  0.2413 -0.1985
   57DOPS   PO4  659   4.987   4.746  15.883 -0.2433  0.0315 -0.2356
   57DOPS   GL1  660   4.806   4.602  15.511 -0.0200 -0.1019  0.1623
   57DOPS   GL2  661   5.044   4.530  15.381  0.2739  0.1331 -0.0022
   57DOPS   C1A  662   4.703   4.717  15.076 -0.0148 -0.3198 -0.0417
   57DOPS   D2A  663   4.616   4.770  14.650 -0.0493 -0.0172 -0.0737
   57DOPS   C3A  664   4.147   4.784  14.533 -0.5274 -0.2972  0.1912
   57DOPS   C4A  665   3.820   4.561  14.304  0.1945  0.0556  0.1285
   57DOPS   C1B  666   5.057   4.422  14.973 -0.1660  0.0894 -0.2434
   57DOPS   D2B  667   5.202   4.623  14.562 -0.1732 -0.0902  0.2641
   57DOPS   C3B  668   4.875   4.498  14.239 -0.2306 -0.0926  0.4926
   57DOPS   C4B  669   4.609   4.259  13.905  0.0650  0.1042 -0.0505
   58DOPS   CNO  670   0.716   3.363  15.620  0.0773  0.0156  0.0551
   58DOPS   PO4  671   0.479   3.130  15.799 -0.1651 -0.1524  0.0193
   58DOPS   GL1  672   0.439   2.782  15.586 -0.1485  0.4922  0.1523
   58DOPS   GL2  673   0.534   2.917  15.331 -0.2556  0.1078 -0.0205
   58DOPS   C1A  674   0.276   2.462  15.245 -0.1466  0.0523 -0.0684
   58DOPS   D2A  675   0.454   2.276  14.881  0.3697  0.1768  0.0417
   58DOPS   C3A  676   0.761   2.216  14.535 -0.1488  0.0832  0.1061
   58DOPS   C4A  677   1.011   1.979  14.258  0.0720  0.0460 -0.0284
   58DOPS   C1B  678   0.616   2.784  14.883  0.3181  0.0264 -0.1545
   58DOPS   D2B  679   0.928   2.936  14.599  0.0796 -0.1775  0.1157
   58DOPS   C3B  680   0.837   2.707  14.253 -0.0225 -0.0269  0.3946
   58DOPS   C4B  681   1.042   2.448  13.911 -0.0585 -0.1025  0.2156
   59DOPE   NH3  682   3.937   4.545  15.897  0.2403 -0.0159  0.3700
   59DOPE   PO4  683   3.731   4.293  15.780 -0.0448 -0.1519  0.1438
   59DOPE   GL1  684   3.547   4.551  15.534  0.0109 -0.0920  0.1302
   59DOPE   GL2  685   3.844   4.706  15.417 -0.2123 -0.1515 -0.1142
   59DOPE   C1A  686   3.413   4.313  15.147  0.1642  0.1775 -0.3367
   59DOPE   D2A  687   3.256   3.933  14.855  0.2876  0.1053 -0.3345
   59DOPE   C3A  688   2.991   3.749  14.533  0.1445  0.1139  0.2344
   59DOPE   C4A  689   2.997   3.617  14.076  0.3008  0.0058  0.1616
   59DOPE   C1B  690   3.763   4.742  14.971  0.0629 -0.0268 -0.0688
   59DOPE   D2B  691   3.438   4.612  14.713  0.1154 -0.0874  0.0518
   59DOPE   C3B  692   3.033   4.427  14.814  0.1066 -0.4676 -0.4710
   59DOPE   C4B  693   2.681   4.104  14.881 -0.0329 -0.1228  0.3245
   60DOPE   NH3  694   8.638   0.095  15.744  0.3696 -0.1501  0.1598
   60DOPE   PO4  695   8.522   0.032  15.462  0.1074  0.1108 -0.1729
   60DOPE   GL1  696   8.506   0.274  15.116  0.4558 -0.1264  0.3484
   60DOPE   GL2  697   8.487   0.538  15.195  0.5186  0.1972  0.2450
   60DOPE   C1A  698   8.638   0.410  14.709 -0.0489  0.1260  0.0481
   60DOPE   D2A  699   8.844   0.775  14.442 -0.0793 -0.1061 -0.0066
   60DOPE   C3A  700   8.594   1.058  14.144 -0.2811  0.0969  0.0843
   60DOPE   C4A  701   8.632   1.277  13.686  0.4719 -0.2570  0.1255
   60DOPE   C1B  702   8.783   0.755  15.008 -0.1292 -0.2225  0.0548
   60DOPE   D2B  703   9.090   1.012  14.834 -0.1165 -0.2699 -0.1226
   60DOPE   C3B  704   9.459   1.243  15.007  0.0679  0.1523 -0.1246
   60DOPE   C4B  705   9.426   1.740  15.013  0.0891  0.1634 -0.2067
   61DOPE   NH3  706   7.436   9.558  15.721  0.0395 -0.2152  0.0215
   61DOPE   PO4  707   7.507   9.830  15.580  0.0696 -0.0565  0.2157
   61DOPE   GL1  708   7.409   9.848  15.169 -0.0151  0.1138 -0.1059
   61DOPE   GL2  709   7.450  10.206  15.241 -0.3330  0.2139 -0.0726
   61DOPE   C1A  710   7.723  10.040  14.860  0.0889 -0.2882  0.1603
   61DOPE   D2A  711   7.949  10.373  14.645 -0.1358  0.1925 -0.2177
   61DOPE   C3A  712   8.085  10.192  14.250  0.1173 -0.1620 -0.0146
   61DOPE   C4A  713   8.029   9.802  14.040  0.2438 -0.3589  0.1718
   61DOPE   C1B  714   7.072  10.081  14.954 -0.1510  0.0428 -0.0569
   61DOPE   D2B  715   7.084  10.065  14.526  0.1158  0.0452 -0.2981
   61DOPE   C3B  716   6.965   9.838  14.168 -0.4660  0.1247 -0.1160
   61DOPE   C4B  717   6.628   9.658  13.990 -0.0790  0.0960 -0.1856
   62DOPC   NC3  718   4.091   6.883  16.269  0.0531  0.0545  0.4128
   62DOPC   PO4  719   4.324   7.170  16.226 -0.1729 -0.0647 -0.1718
   62DOPC   GL1  720   4.253   6.916  15.780 -0.2287 -0.0168 -0.2484
   62DOPC   GL2  721   4.523   6.888  15.732  0.0259  0.1481  0.0318
   62DOPC   C1A  722   4.119   7.053  15.347 -0.0228 -0.2491 -0.0305
   62DOPC   D2A  723   4.230   6.998  14.917  0.0276  0.1300 -0.0351
   62DOPC   C3A  724   4.308   6.496  14.886  0.0646  0.2276  0.0407
   62DOPC   C4A  725   4.350   6.156  15.152  0.0670  0.1189  0.1577
   62DOPC   C1B  726   4.605   6.975  15.247 -0.0920 -0.0383  0.0568
   62DOPC   D2B  727   4.722   6.850  14.844  0.2621  0.2243  0.0309
   62DOPC   C3B  728   4.466   6.915  14.483 -0.0319  0.1174 -0.0648
   62DOPC   C4B  729   4.583   6.859  13.978 -0.1569 -0.3274  0.3649
   63DOPC   NC3  730  11.707   4.358  15.784 -0.1590 -0.1918 -0.1528
   63DOPC   PO4  731  11.442   4.641  15.851  0.1341  0.4499 -0.3508
   63DOPC   GL1  732  11.422   4.669  15.396  0.2385 -0.3002 -0.0601
   63DOPC   GL2  733  11.453   4.438  15.334  0.0507  0.1173 -0.4011
   63DOPC   C1A  734  11.401   4.769  14.931  0.1681  0.0691  0.0719
   63DOPC   D2A  735  11.415   4.979  14.582 -0.1150 -0.0524  0.1967
   63DOPC   C3A  736  11.313   5.277  14.229  0.1519 -0.1464 -0.1072
   63DOPC   C4A  737  10.948   5.372  13.904  0.3215  0.0747  0.0908
   63DOPC   C1B  738  11.703   4.384  14.913  0.0025 -0.3314  0.0974
   63DOPC   D2B  739  11.929   4.254  14.477 -0.0550 -0.1728  0.3599
   63DOPC   C3B  740  12.359   4.245  14.346 -0.1080  0.2061 -0.1080
   63DOPC   C4B  741  12.761   4.460  14.295 -0.0413 -0.2311  0.1051
   64POSM   NC3  742   4.533   4.951  15.614  0.1191  0.2135 -0.0638
   64POSM   PO4  743   4.164   4.957  15.728  0.1355  0.0941 -0.0064
   64POSM   AM1  744   4.061   5.185  15.579  0.2396 -0.1295  0.0992
   64POSM   AM2  745   3.908   5.223  15.350  0.1444 -0.1309 -0.0327
   64POSM   T1A  746   4.319   5.507  15.309 -0.0416  0.1197  0.1751
   64POSM   C2A  747   4.320   5.709  14.798 -0.1322  0.2267  0.2281
   64POSM   C3A  748   4.636   5.944  14.659  0.0819  0.2404 -0.1846
   64POSM   C1B  749   3.816   5.219  14.999 -0.1849  0.1632  0.0116
   64POSM   D2B  750   3.507   5.120  14.644  0.1308 -0.2327 -0.1821
   64POSM   C3B  751   3.392   4.826  14.255  0.1784  0.3234 -0.0102
   64POSM   C4B  752   2.979   4.639  13.960  0.1818 -0.0769  0.0781
   65POSM   NC3  753   1.611  10.168  16.106  0.3190 -0.1574 -0.2701
   65POSM   PO4  754   1.968  10.054  16.034 -0.1847  0.1536  0.1882
   65POSM   AM1  755   1.975   9.992  15.730 -0.0055  0.0368 -0.2592
   65POSM   AM2  756   1.796  10.003  15.531  0.0462  0.1349  0.1307
   65POSM   T1A  757   2.178   9.835  15.273  0.1801 -0.0532 -0.1425
   65POSM   C2A  758   2.523   9.570  15.104  0.2793  0.2714  0.0338
   65POSM   C3A  759   2.650   9.197  14.868  0.1853  0.0138  0.1749
   65POSM   C1B  760   1.710   9.986  15.197 -0.1635  0.0932 -0.2690
   65POSM   D2B  761   1.430   9.958  14.871  0.1332 -0.0861 -0.0965
   65POSM   C3B  762   1.463  10.024  14.446  0.0693  0.0921 -0.0903
   65POSM   C4B  763   1.584  10.337  14.149 -0.1001 -0.0297  0.0758
   66DOPE   NH3  764   3.311   2.553  15.706  0.1510 -0.2240  0.1306
   66DOPE   PO4  765   3.397   2.855  15.669  0.0390 -0.1285  0.2135
   66DOPE   GL1  766   3.027   2.903  15.567 -0.2114 -0.1288  0.0025
   66DOPE   GL2  767   2.867   3.084  15.569 -0.0319 -0.0668 -0.1816
   66DOPE   C1A  768   2.953   2.972  15.087  0.0228 -0.2623  0.0502
   66DOPE   D2A  769   2.855   2.828  14.639  0.0600 -0.0398  0.1166
   66DOPE   C3A  770   3.096   2.935  14.218  0.0710 -0.2990  0.2271
   66DOPE   C4A  771   3.493   2.807  14.003  0.1655  0.0497 -0.0465
   66DOPE   C1B  772   2.478   3.198  15.294  0.4285 -0.2359  0.2791
   66DOPE   D2B  773   2.111   3.318  14.988  0.1915  0.1137 -0.2985
   66DOPE   C3B  774   2.382   3.423  14.666 -0.0411 -0.1210 -0.2114
   66DOPE   C4B  775   2.725   3.337  14.398 -0.3758 -0.0630  0.1399
   67DOPE   NH3  776   0.894   3.443  16.392  0.1532 -0.1750  0.2267
   67DOPE   PO4  777   1.122   3.542  16.187 -0.0608  0.3324  0.3116
   67DOPE   GL1  778   1.265   3.706  15.822  0.2318  0.0061 -0.2705
   67DOPE   GL2  779   1.214   3.430  15.646 -0.2400 -0.1013  0.1018
   67DOPE   C1A  780   1.563   4.048  15.761 -0.0349  0.1454 -0.1770
   67DOPE   D2A  781   1.816   4.337  15.513  0.0116  0.0765  0.0641
   67DOPE   C3A  782   2.182   4.637  15.678 -0.1254  0.1135  0.1775
   67DOPE   C4A  783   2.423   5.006  15.530  0.2541  0.1760  0.0980
   67DOPE   C1B  784   1.601   3.676  15.367  0.4121  0.0884  0.0724
   67DOPE   D2B  785   1.936   3.974  15.241 -0.0936  0.1036 -0.4861
   67DOPE   C3B  786   1.970   4.171  14.885 -0.1770  0.1089  0.0845
   67DOPE   C4B  787   2.115   4.560  14.632  0.1133  0.0022 -0.0492
   68DOPE   NH3  788   4.797  11.445  16.152  0.0360  0.1123 -0.0227
   68DOPE   PO4  789   5.000  11.553  15.939 -0.1139 -0.2267  0.0690
   68DOPE   GL1  790   4.950  11.764  15.642  0.1003 -0.2084 -0.1852
   68DOPE   GL2  791   4.770  11.992  15.671  0.1413  0.3463  0.0785
   68DOPE   C1A  792   4.998  11.800  15.150 -0.1080  0.0062  0.3374
   68DOPE   D2A  793   4.854  11.827  14.765 -0.0131 -0.1165  0.0075
   68DOPE   C3A  794   5.166  11.928  14.470  0.1103  0.0006 -0.2336
   68DOPE   C4A  795   5.141  11.901  14.009  0.0350 -0.1618  0.1494
   68DOPE   C1B  796   4.903  12.270  15.343  0.1068 -0.0922  0.0401
   68DOPE   D2B  797   4.730  12.580  15.001  0.1363  0.2786  0.0302
   68DOPE   C3B  798   4.559  13.002  14.909  0.1990  0.0643  0.2897
   68DOPE   C4B  799   4.325  13.390  14.998 -0.1987  0.0950 -0.0952
   69DOPC   NC3  800   0.721   1.903  16.455  0.1151 -0.2054 -0.1983
   69DOPC   PO4  801   0.483   1.758  16.208 -0.3075  0.0505 -0.0076
   69DOPC   GL1  802   0.499   1.591  15.703 -0.2696 -0.4602  0.1126
   69DOPC   GL2  803   0.501   1.307  15.794  0.2429  0.1820 -0.2429
   69DOPC   C1A  804   0.522   1.616  15.233  0.3257 -0.1067 -0.0261
   69DOPC   D2A  805   0.424   1.302  14.814 -0.1448  0.0812  0.0314
   69DOPC   C3A  806   0.207   1.330  14.391  0.1711  0.3372 -0.1130
   69DOPC   C4A  807   0.317   1.290  13.945  0.1350 -0.1563  0.0549
   69DOPC   C1B  808   0.592   1.149  15.358  0.0198  0.0833  0.1252
   69DOPC   D2B  809   0.894   1.009  15.056  0.0472  0.0036 -0.1016
   69DOPC   C3B  810   0.803   1.041  14.623 -0.0815 -0.2777  0.1346
   69DOPC   C4B  811   0.733   1.397  14.325  0.3281  0.4337  0.0474
   70DOPC   NC3  812   0.425   5.346  16.166  0.1115 -0.4756  0.2719
   70DOPC   PO4  813   0.660   5.598  16.202 -0.1534  0.1618 -0.1556
   70DOPC   GL1  814   0.436   5.596  15.800  0.2424 -0.0606  0.1657
   70DOPC   GL2  815   0.701   5.776  15.631 -0.0323 -0.3306 -0.1364
   70DOPC   C1A  816   0.427   5.251  15.503  0.2430 -0.0958 -0.0482
   70DOPC   D2A  817   0.463   5.387  15.078  0.1795  0.2998 -0.1952
   70DOPC   C3A  818   0.448   5.219  14.676  0.1839  0.1189 -0.1667
   70DOPC   C4A  819   0.170   5.304  14.288 -0.2033 -0.1314  0.0758
   70DOPC   C1B  820   0.907   6.081  15.336  0.1578 -0.2895  0.0724
   70DOPC   D2B  821   0.884   6.091  14.805 -0.4096  0.3465  0.0493
   70DOPC   C3B  822   1.055   6.283  14.446 -0.1044 -0.1107  0.0683
   70DOPC   C4B  823   1.307   6.122  14.061  0.3114  0.0581  0.0793
   71POSM   NC3  824   5.176   1.752  16.087  0.0508 -0.2104 -0.1997
   71POSM   PO4  825   5.545   1.674  16.252 -0.1533  0.2983  0.2051
   71POSM   AM1  826   5.658   1.817  15.986 -0.2753  0.0087  0.1709
   71POSM   AM2  827   5.727   2.085  16.051  0.3496 -0.0860  0.2227
   71POSM   T1A  828   5.535   1.976  15.496  0.0004  0.0609 -0.0370
   71POSM   C2A  829   5.554   2.077  15.018  0.4240  0.0161 -0.0698
   71POSM   C3A  830   5.363   2.168  14.628 -0.1737  0.1194 -0.0291
   71POSM   C1B  831   5.942   2.119  15.819 -0.3236 -0.4832  0.1480
   71POSM   D2B  832   6.211   2.143  15.460  0.1563  0.0793  0.0005
   71POSM   C3B  833   5.887   2.375  15.409  0.2145  0.0778 -0.1102
   71POSM   C4B  834   5.594   2.711  15.237  0.0733  0.0395  0.0550
   72DOPC   NC3  835   2.940  11.621  15.603  0.2501  0.1151  0.1459
   72DOPC   PO4  836   2.721  11.420  15.852  0.3268 -0.1288 -0.1964
   72DOPC   GL1  837   2.477  11.330  15.511 -0.2081 -0.3076  0.2468
   72DOPC   GL2  838   2.358  11.071  15.395  0.5086  0.0559 -0.1742
   72DOPC   C1A  839   2.440  11.547  15.140  0.1550 -0.1804  0.0527
   72DOPC   D2A  840   2.249  11.885  14.893 -0.2334 -0.0904 -0.0393
   72DOPC   C3A  841   2.412  12.106  14.560 -0.0023  0.1427 -0.2430
   72DOPC   C4A  842   2.366  12.371  14.158  0.0494 -0.3535 -0.0666
   72DOPC   C1B  843   2.445  10.671  15.077 -0.1468 -0.2404  0.4464
   72DOPC   D2B  844   2.227  10.494  14.693  0.0427 -0.3320 -0.1261
   72DOPC   C3B  845   2.523  10.312  14.392 -0.1855  0.1761  0.0256
   72DOPC   C4B  846   2.510  10.298  13.957 -0.1828  0.1719  0.1482
   73DOPE   NH3  847   7.866   1.674  15.907  0.0726  0.2032  0.2022
   73DOPE   PO4  848   7.989   1.971  15.854  0.1146 -0.2887  0.0594
   73DOPE   GL1  849   8.126   1.879  15.451  0.2046  0.2986 -0.2894
   73DOPE   GL2  850   8.122   2.123  15.322 -0.3133  0.0624  0.8713
   73DOPE   C1A  851   8.461   1.814  15.100 -0.0573 -0.2103  0.4116
   73DOPE   D2A  852   8.600   1.867  14.721  0.1119  0.1845 -0.0231
   73DOPE   C3A  853   8.947   1.987  14.370 -0.3166 -0.0559 -0.1391
   73DOPE   C4A  854   9.222   2.128  14.019 -0.0948  0.1587  0.1514
   73DOPE   C1B  855   8.216   2.187  14.867 -0.2752  0.0064 -0.0226
   73DOPE   D2B  856   8.356   2.089  14.361  0.0432  0.0711  0.3210
   73DOPE   C3B  857   8.297   2.263  13.944 -0.0586 -0.1274 -0.0604
   73DOPE   C4B  858   8.012   2.476  13.650  0.1700  0.1780  0.1403
   74DOPC   NC3  859   3.156   7.296  16.097 -0.0994 -0.0962 -0.1133
   74DOPC   PO4  860   2.973   6.935  16.009 -0.1330  0.2889 -0.0539
   74DOPC   GL1  861   2.787   7.083  15.726 -0.0219 -0.0109  0.2565
   74DOPC   GL2  862   2.952   7.329  15.627  0.0931 -0.0569  0.0337
   74DOPC   C1A  863   2.638   6.753  15.400 -0.1294  0.0692 -0.1058
   74DOPC   D2A  864   2.366   6.443  15.270 -0.1865  0.0703 -0.0111
   74DOPC   C3A  865   2.294   6.346  14.828 -0.2839  0.0806 -0.1590
   74DOPC   C4A  866   1.884   6.434  14.597 -0.0132 -0.1613  0.0055
   74DOPC   C1B  867   3.268   7.557  15.338  0.2759  0.0067  0.1156
   74DOPC   D2B  868   3.565   7.713  15.035  0.3656  0.2187 -0.2432
   74DOPC   C3B  869   3.526   7.539  14.611 -0.1474 -0.1249 -0.0114
   74DOPC   C4B  870   3.518   7.117  14.373 -0.2197  0.2827  0.0784
   75DOPE   NH3  871   0.381   8.539  15.707 -0.0498 -0.2494  0.0039
   75DOPE   PO4  872   0.118   8.576  15.567 -0.0067 -0.0241  0.1914
   75DOPE   GL1  873   0.272   8.552  15.190  0.1125  0.0451  0.0721
   75DOPE   GL2  874   0.362   8.859  15.212  0.0574  0.1430  0.0534
   75DOPE   C1A  875   0.367   8.630  14.693 -0.2025  0.2191 -0.1149
   75DOPE   D2A  876   0.226   8.645  14.260 -0.3363  0.0785 -0.0998
   75DOPE   C3A  877   0.559   8.447  13.988  0.0420 -0.3271 -0.0349
   75DOPE   C4A  878   0.699   8.000  13.985 -0.0839  0.2293 -0.0906
   75DOPE   C1B  879   0.283   9.210  14.903 -0.0463 -0.2507  0.1930
   75DOPE   D2B  880   0.301   9.286  14.495 -0.3641  0.0382  0.1424
   75DOPE   C3B  881   0.083   9.610  14.222 -0.1341 -0.2090 -0.4174
   75DOPE   C4B  882  -0.011  10.045  13.993 -0.2830 -0.1300  0.4169
   76DOPE   NH3  883  10.144   0.489  15.905 -0.0860 -0.0979 -0.1760
   76DOPE   PO4  884   9.899   0.663  15.788 -0.0696 -0.2677  0.0570
   76DOPE   GL1  885   9.630   0.801  15.396 -0.1347 -0.0415 -0.1587
   76DOPE   GL2  886   9.379   0.686  15.215  0.2888  0.2350  0.2365
   76DOPE   C1A  887   9.864   0.938  15.017  0.1424  0.1944  0.1320
   76DOPE   D2A  888   9.896   0.845  14.595  0.3106  0.2459  0.0008
   76DOPE   C3A  889   9.983   1.066  14.236  0.0032  0.1832 -0.0052
   76DOPE   C4A  890  10.161   0.911  13.764  0.1249 -0.1532 -0.3663
   76DOPE   C1B  891   9.480   0.600  14.740 -0.1772  0.2394  0.0735
   76DOPE   D2B  892   9.498   0.670  14.330 -0.0486 -0.0675  0.0112
   76DOPE   C3B  893   9.118   0.628  14.062  0.1971 -0.6321 -0.0814
   76DOPE   C4B  894   8.707   0.590  13.830 -0.1762 -0.0967  0.1332
   77DOPC   NC3  895   3.891   2.767  15.575 -0.2856  0.1268  0.3843
   77DOPC   PO4  896   3.793   2.432  15.471  0.1899 -0.0348 -0.0765
   77DOPC   GL1  897   3.535   2.550  15.271  0.0804  0.4559  0.0759
   77DOPC   GL2  898   3.558   2.794  15.189  0.1714  0.2093 -0.0843
   77DOPC   C1A  899   3.246   2.495  14.847 -0.1492  0.2224  0.1653
   77DOPC   D2A  900   3.098   2.464  14.360 -0.0167  0.1907 -0.0557
   77DOPC   C3A  901   3.232   2.251  13.963 -0.2158 -0.3154 -0.0648
   77DOPC   C4A  902   3.176   1.796  13.802 -0.1674  0.0624 -0.0835
   77DOPC   C1B  903   3.548   2.979  14.764 -0.1543  0.0777  0.3448
   77DOPC   D2B  904   3.322   3.323  14.485  0.4885  0.0435  0.1724
   77DOPC   C3B  905   3.531   3.308  14.061 -0.1524 -0.0190  0.0448
   77DOPC   C4B  906   3.898   3.515  13.888 -0.2708 -0.1545  0.3367
   78DOPC   NC3  907   4.883   4.128  15.569  0.0564  0.0429  0.3557
   78DOPC   PO4  908   4.522   4.005  15.626 -0.0223  0.1340  0.1683
   78DOPC   GL1  909   4.600   3.937  15.263  0.0131 -0.1613 -0.0169
   78DOPC   GL2  910   4.508   4.161  15.144  0.0250  0.1422  0.0123
   78DOPC   C1A  911   4.897   3.907  14.937 -0.3601 -0.1852  0.0957
   78DOPC   D2A  912   4.975   3.991  14.494  0.1390 -0.1377 -0.0744
   78DOPC   C3A  913   5.061   3.863  14.074  0.2563  0.3916  0.1868
   78DOPC   C4A  914   4.900   3.524  13.790 -0.1796  0.2003  0.0877
   78DOPC   C1B  915   4.628   4.277  14.718  0.1931 -0.3480 -0.1506
   78DOPC   D2B  916   4.384   4.305  14.344  0.3277  0.2734 -0.0664
   78DOPC   C3B  917   4.019   3.953  14.293  0.0451 -0.1307  0.0055
   78DOPC   C4B  918   3.541   3.834  14.220 -0.2778 -0.1920 -0.1327
   79DOPC   NC3  919  11.133   9.095  15.992 -0.0607  0.0124 -0.1866
   79DOPC   PO4  920  10.818   8.892  15.856  0.0297 -0.0925 -0.1556
   79DOPC   GL1  921  10.855   9.050  15.527  0.1919 -0.3991 -0.1434
   79DOPC   GL2  922  11.132   9.150  15.458  0.0590 -0.4730  0.2602
   79DOPC   C1A  923  10.878   9.001  15.069 -0.1095  0.3777 -0.1533
   79DOPC   D2A  924  11.100   9.037  14.674  0.2314  0.2760 -0.1981
   79DOPC   C3A  925  10.693   9.087  14.366  0.3210 -0.1227 -0.1292
   79DOPC   C4A  926  10.291   8.950  14.085  0.2519 -0.1459 -0.1532
   79DOPC   C1B  927  11.255   9.346  15.103 -0.0981 -0.0866  0.0031
   79DOPC   D2B  928  11.155   9.626  14.764 -0.0652  0.1950 -0.2360
   79DOPC   C3B  929  11.189   9.460  14.366  0.3532 -0.0533  0.1344
   79DOPC   C4B  930  10.920   9.451  14.010 -0.2173 -0.3432  0.3492
   80DOPC   NC3  931  34.485   1.687  15.797 -0.0592 -0.0967  0.1423
   80DOPC   PO4  932  34.681   1.386  15.929  0.1728 -0.2341  0.0019
   80DOPC   GL1  933  34.832   1.396  15.546  0.1524 -0.2929 -0.0723
   80DOPC   GL2  934  34.690   1.633  15.360  0.1670 -0.1510 -0.0043
   80DOPC   C1A  935  34.658   1.196  15.146  0.4369 -0.1162 -0.0473
   80DOPC   D2A  936  34.567   1.365  14.754 -0.0525  0.0352 -0.0846
   80DOPC   C3A  937  34.343   1.631  14.389 -0.0724  0.2711  0.0757
   80DOPC   C4A  938  34.211   1.772  13.930  0.1004 -0.1763  0.2740
   80DOPC   C1B  939  34.253   1.560  15.241  0.0634 -0.4824  0.2648
   80DOPC   D2B  940  34.063   1.602  14.792 -0.1491 -0.3420  0.0021
   80DOPC   C3B  941  33.644   1.479  14.671 -0.0132  0.0967  0.0594
   80DOPC   C4B  942  33.423   1.761  14.389 -0.1276  0.1571  0.0095
   81DOPC   NC3  943   6.300   3.489  16.209  0.1751  0.0327 -0.0978
   81DOPC   PO4  944   6.397   3.868  16.074 -0.3223 -0.0649 -0.1585
   81DOPC   GL1  945   6.095   4.030  15.942 -0.0901 -0.1523 -0.1509
   81DOPC   GL2  946   5.906   3.759  15.871 -0.5672  0.1607  0.3175
   81DOPC   C1A  947   6.089   3.985  15.463 -0.2162  0.0171  0.2892
   81DOPC   D2A  948   6.382   4.008  15.088  0.0169 -0.2984  0.0173
   81DOPC   C3A  949   6.697   3.766  14.839  0.0311 -0.0122 -0.1401
   81DOPC   C4A  950   6.863   3.655  14.463  0.1912 -0.3272  0.5160
   81DOPC   C1B  951   6.235   3.364  15.705  0.1790  0.0427  0.1463
   81DOPC   D2B  952   6.510   3.071  15.466  0.3390  0.0042 -0.1151
   81DOPC   C3B  953   6.773   3.367  15.148  0.0493  0.2665  0.0123
   81DOPC   C4B  954   6.799   3.226  14.669  0.0889  0.0339 -0.4971
   82DOPE   NH3  955  11.256   7.109  15.672 -0.1492  0.1347 -0.1028
   82DOPE   PO4  956  11.059   7.344  15.562  0.6375  0.2972  0.1501
   82DOPE   GL1  957  10.800   7.402  15.377  0.5523  0.2141  0.1005
   82DOPE   GL2  958  10.483   7.234  15.302 -0.0434  0.2785 -0.1136
   82DOPE   C1A  959  10.672   7.483  14.890 -0.0603  0.3434 -0.0451
   82DOPE   D2A  960  10.773   7.698  14.517  0.0989  0.0739 -0.0674
   82DOPE   C3A  961  10.511   7.646  14.188  0.1509 -0.0449  0.1476
   82DOPE   C4A  962  10.197   7.930  13.927  0.2197  0.1926 -0.1826
   82DOPE   C1B  963  10.075   7.136  15.158 -0.0055  0.1379 -0.0991
   82DOPE   D2B  964   9.778   7.328  14.836  0.2591 -0.2382  0.0347
   82DOPE   C3B  965   9.534   6.940  14.641 -0.0634  0.0576 -0.0211
   82DOPE   C4B  966   9.175   6.795  14.457 -0.0132  0.0699 -0.1885
   83DOPE   NH3  967   9.056   6.515  15.917  0.0497 -0.0544  0.2916
   83DOPE   PO4  968   9.200   6.398  15.649 -0.2486  0.0187 -0.1391
   83DOPE   GL1  969   9.117   6.165  15.302 -0.0735 -0.0684 -0.1060
   83DOPE   GL2  970   8.922   6.364  15.224 -0.1397 -0.1436 -0.0202
   83DOPE   C1A  971   9.347   5.966  14.931 -0.1307 -0.1797  0.1280
   83DOPE   D2A  972   9.727   5.896  14.720  0.2184  0.0094  0.0775
   83DOPE   C3A  973   9.661   6.066  14.291 -0.1139  0.1790 -0.0503
   83DOPE   C4A  974   9.465   6.186  13.913  0.1979  0.0718  0.4360
   83DOPE   C1B  975   8.999   6.352  14.762 -0.0523 -0.0162 -0.0423
   83DOPE   D2B  976   9.240   6.273  14.382 -0.1101  0.1545  0.1242
   83DOPE   C3B  977   8.945   6.213  13.999 -0.2797 -0.2255 -0.1203
   83DOPE   C4B  978   8.912   5.936  13.648 -0.0630 -0.3089 -0.1853
   84POSM   NC3  979   4.764   8.954  16.336 -0.2188  0.1139 -0.0778
   84POSM   PO4  980   5.116   8.996  16.102  0.1602  0.2196 -0.3090
   84POSM   AM1  981   5.286   8.958  15.767 -0.1736  0.4939 -0.0028
   84POSM   AM2  982   5.478   9.020  15.561 -0.0632  0.1129 -0.2011
   84POSM   T1A  983   5.309   8.593  15.393  0.3257  0.0899 -0.0443
   84POSM   C2A  984   5.562   8.273  15.264 -0.0746 -0.2348  0.0746
   84POSM   C3A  985   5.809   8.003  14.981  0.1293 -0.1157  0.4873
   84POSM   C1B  986   5.666   8.923  15.301  0.2125 -0.0547 -0.0161
   84POSM   D2B  987   5.850   8.816  14.884 -0.0928  0.1126  0.0365
   84POSM   C3B  988   5.978   8.428  14.722  0.1880 -0.1438  0.1935
   84POSM   C4B  989   5.949   8.213  14.346 -0.1410  0.1650  0.1502
   85DOPC   NC3  990   7.239   0.276  15.313  0.0777 -0.3890  0.1657
   85DOPC   PO4  991   7.543   0.500  15.311 -0.6825 -0.0903 -0.0576
   85DOPC   GL1  992   7.717   0.502  15.024 -0.2059  0.0963  0.5010
   85DOPC   GL2  993   7.623   0.222  14.845  0.2087  0.0902 -0.0078
   85DOPC   C1A  994   7.667   0.666  14.603 -0.4111 -0.0602  0.3912
   85DOPC   D2A  995   7.822   0.878  14.289 -0.1244 -0.0754  0.1356
   85DOPC   C3A  996   7.750   0.608  13.875  0.1571  0.1879  0.1588
   85DOPC   C4A  997   7.944   0.284  13.666 -0.3167 -0.2482  0.0374
   85DOPC   C1B  998   7.827  -0.158  14.646  0.2297 -0.3161  0.1683
   85DOPC   D2B  999   8.068  -0.427  14.351  0.3404  0.2594  0.4902
   85DOPC   C3B 1000   8.344  -0.743  14.147  0.2524 -0.0375  0.3084
   85DOPC   C4B 1001   8.527  -1.042  14.384  0.0054 -0.1516 -0.2017
   86POSM   NC3 1002   4.291   1.881  16.499  0.0920  0.1316  0.5525
   86POSM   PO4 1003   4.068   1.911  16.185 -0.1485  0.0437 -0.2980
   86POSM   AM1 1004   4.165   1.744  15.916  0.1564  0.0041 -0.0181
   86POSM   AM2 1005   4.051   1.479  15.756  0.1707 -0.1058  0.0245
   86POSM   T1A 1006   4.447   1.806  15.547  0.2760 -0.0496  0.0559
   86POSM   C2A 1007   4.624   1.714  15.162  0.0150  0.4166  0.1107
   86POSM   C3A 1008   4.570   1.843  14.759 -0.1964 -0.1619 -0.1355
   86POSM   C1B 1009   3.901   1.565  15.444  0.1630  0.0722  0.2704
   86POSM   D2B 1010   3.581   1.502  15.090  0.0071  0.0364 -0.1937
   86POSM   C3B 1011   3.721   1.236  14.720 -0.4474  0.1749 -0.1183
   86POSM   C4B 1012   3.521   1.049  14.312  0.1409  0.1309  0.5209
   87POSM   NC3 1013   0.819   9.787  16.123 -0.0474 -0.2761 -0.4209
   87POSM   PO4 1014   1.228   9.874  16.139  0.5128  0.2288 -0.0973
   87POSM   AM1 1015   1.166   9.997  15.878 -0.1959 -0.0285  0.3783
   87POSM   AM2 1016   1.335  10.112  15.685  0.0210 -0.0620 -0.0481
   87POSM   T1A 1017   0.863  10.339  15.739  0.3580  0.0536 -0.1082
   87POSM   C2A 1018   0.654  10.793  15.648  0.1482 -0.1381 -0.0701
   87POSM   C3A 1019   0.886  11.150  15.500  0.0064  0.2547 -0.3539
   87POSM   C1B 1020   1.246  10.180  15.329 -0.1069 -0.1981  0.0520
   87POSM   D2B 1021   1.107  10.295  14.862 -0.0339  0.0647 -0.0068
   87POSM   C3B 1022   0.691  10.120  14.704  0.0242  0.0380 -0.0638
   87POSM   C4B 1023   0.909   9.828  14.381  0.0093 -0.1201 -0.1035
   88DOPS   CNO 1024   5.465   6.704  16.290 -0.4286  0.1723 -0.1099
   88DOPS   PO4 1025   5.544   7.092  16.380  0.3116 -0.2726 -0.2049
   88DOPS   GL1 1026   5.872   6.924  15.968  0.2554 -0.2276  0.0040
   88DOPS   GL2 1027   5.847   6.635  15.996  0.1019 -0.0267  0.0225
   88DOPS   C1A 1028   6.112   6.949  15.574 -0.0655  0.5721  0.1983
   88DOPS   D2A 1029   6.216   6.715  15.140 -0.1597 -0.0762  0.1402
   88DOPS   C3A 1030   6.007   6.838  14.835 -0.1209 -0.3315 -0.1729
   88DOPS   C4A 1031   5.606   7.102  14.826 -0.0979 -0.0166 -0.1228
   88DOPS   C1B 1032   5.585   6.869  15.680  0.3151 -0.1193  0.2411
   88DOPS   D2B 1033   5.708   6.875  15.229  0.3048 -0.0643 -0.0154
   88DOPS   C3B 1034   5.631   6.533  14.891  0.0287  0.0974  0.0066
   88DOPS   C4B 1035   5.571   6.050  14.965  0.0220  0.0223 -0.3580
   89DOPC   NC3 1036   2.689   9.552  16.106 -0.0498  0.0923 -0.0178
   89DOPC   PO4 1037   2.797   9.901  16.062  0.0882 -0.0158  0.1760
   89DOPC   GL1 1038   2.959   9.740  15.710 -0.1935  0.0491 -0.1134
   89DOPC   GL2 1039   3.116   9.535  15.807  0.0970  0.0376  0.0616
   89DOPC   C1A 1040   2.942   9.463  15.286 -0.1327  0.0533  0.2773
   89DOPC   D2A 1041   2.998   9.543  14.828  0.1016 -0.0774 -0.1817
   89DOPC   C3A 1042   2.739   9.825  14.509 -0.1309  0.0999  0.0888
   89DOPC   C4A 1043   2.453   9.804  14.160  0.2750 -0.2243  0.0564
   89DOPC   C1B 1044   3.376   9.213  15.658 -0.0312 -0.1101 -0.0822
   89DOPC   D2B 1045   3.219   8.758  15.601  0.0918 -0.0623 -0.0883
   89DOPC   C3B 1046   3.372   8.484  15.187 -0.0465 -0.1914 -0.0724
   89DOPC   C4B 1047   3.389   8.639  14.771 -0.1714  0.0813 -0.1893
   90DOPE   NH3 1048   4.196   7.704  16.255 -0.1691 -0.2812 -0.0863
   90DOPE   PO4 1049   4.004   7.930  16.362  0.0900  0.2163 -0.0651
   90DOPE   GL1 1050   3.975   7.818  15.904 -0.1476 -0.0077 -0.0906
   90DOPE   GL2 1051   4.211   8.009  15.842  0.1833  0.0006  0.1812
   90DOPE   C1A 1052   3.963   7.890  15.444 -0.2113  0.0875  0.1193
   90DOPE   D2A 1053   4.131   7.794  15.069 -0.1063 -0.4491 -0.1288
   90DOPE   C3A 1054   4.436   7.458  14.879  0.1092  0.0123  0.2506
   90DOPE   C4A 1055   4.818   7.407  14.612  0.0527  0.0371  0.2530
   90DOPE   C1B 1056   4.669   7.961  15.670 -0.1634 -0.1167 -0.1793
   90DOPE   D2B 1057   4.667   7.678  15.263 -0.0206  0.2074  0.1304
   90DOPE   C3B 1058   4.789   7.915  14.883 -0.1118  0.2548 -0.0422
   90DOPE   C4B 1059   4.789   8.332  14.672  0.0507 -0.2758  0.0270
   91DOPE   NH3 1060   5.567   1.109  15.929  0.2902  0.3679 -0.0845
   91DOPE   PO4 1061   5.781   1.311  15.873 -0.3554 -0.1377 -0.0993
   91DOPE   GL1 1062   5.730   1.374  15.417 -0.3712  0.3981  0.3022
   91DOPE   GL2 1063   5.800   1.606  15.453  0.2617 -0.2090 -0.2382
   91DOPE   C1A 1064   5.520   1.551  15.051  0.3367  0.0047  0.0794
   91DOPE   D2A 1065   5.428   1.671  14.664  0.1180 -0.0958 -0.1891
   91DOPE   C3A 1066   5.687   1.731  14.265 -0.1179 -0.0900 -0.1253
   91DOPE   C4A 1067   5.724   2.019  13.919  0.1836  0.1387  0.0860
   91DOPE   C1B 1068   5.984   1.856  15.120 -0.2879 -0.1464 -0.0100
   91DOPE   D2B 1069   5.871   1.935  14.681  0.1232  0.0803 -0.0619
   91DOPE   C3B 1070   6.127   2.082  14.349 -0.1747 -0.2172 -0.1078
   91DOPE   C4B 1071   6.223   1.803  13.982 -0.0048  0.1221 -0.2196
   92DOPC   NC3 1072   7.258   3.872  15.913 -0.1617  0.0148  0.0155
   92DOPC   PO4 1073   7.158   3.573  16.160  0.0992  0.1140  0.1438
   92DOPC   GL1 1074   6.810   3.609  15.834 -0.0574 -0.0662  0.2370
   92DOPC   GL2 1075   6.990   3.466  15.653 -0.2272 -0.3028 -0.0821
   92DOPC   C1A 1076   6.522   3.692  15.467  0.2434  0.0217  0.0975
   92DOPC   D2A 1077   6.270   3.449  15.156 -0.0062 -0.3349 -0.0791
   92DOPC   C3A 1078   6.418   3.097  14.982 -0.0109 -0.0884 -0.1414
   92DOPC   C4A 1079   6.697   2.783  14.774  0.0798 -0.2218 -0.3522
   92DOPC   C1B 1080   7.046   3.797  15.305 -0.1607  0.0941 -0.0955
   92DOPC   D2B 1081   6.854   4.159  15.161  0.1356  0.1448  0.0391
   92DOPC   C3B 1082   6.587   4.459  15.040  0.3974  0.0949 -0.0487
   92DOPC   C4B 1083   6.521   4.553  14.650 -0.0598  0.1581 -0.0116
   93POSM   NC3 1084   8.163   9.015  16.067  0.0607  0.2106  0.0203
   93POSM   PO4 1085   8.277   9.048  15.702 -0.1158 -0.3839  0.1164
   93POSM   AM1 1086   8.160   8.835  15.475  0.0657 -0.1940  0.3493
   93POSM   AM2 1087   8.212   8.691  15.237  0.3259 -0.0228  0.0817
   93POSM   T1A 1088   7.693   8.802  15.240 -0.0805 -0.2542  0.1717
   93POSM   C2A 1089   7.695   8.869  14.768 -0.1199  0.0507 -0.0348
   93POSM   C3A 1090   7.714   9.114  14.353  0.0901 -0.0857  0.2709
   93POSM   C1B 1091   8.075   8.597  14.918 -0.3682  0.0847 -0.0810
   93POSM   D2B 1092   7.912   8.507  14.517  0.1582  0.2635  0.1852
   93POSM   C3B 1093   7.905   8.662  14.094 -0.0270  0.3352  0.1834
   93POSM   C4B 1094   7.693   8.594  13.704 -0.0902  0.1094  0.3809
   94POSM   NC3 1095   2.783  10.766  15.647  0.0811 -0.2391  0.2093
   94POSM   PO4 1096   2.451  10.662  15.820  0.1362  0.1936 -0.0468
   94POSM   AM1 1097   2.290  10.570  15.542  0.1202  0.4068 -0.0718
   94POSM   AM2 1098   2.271  10.331  15.412 -0.1463  0.2751  0.0879
   94POSM   T1A 1099   1.988  10.827  15.214 -0.3484 -0.0599 -0.2210
   94POSM   C2A 1100   1.755  10.952  14.893  0.1161 -0.0968 -0.0557
   94POSM   C3A 1101   1.552  11.291  14.662 -0.0508  0.3503  0.3305
   94POSM   C1B 1102   2.031  10.353  15.194  0.0293 -0.2481  0.1499
   94POSM   D2B 1103   1.843  10.255  14.808  0.0053  0.2041 -0.0788
   94POSM   C3B 1104   1.935  10.073  14.373 -0.0732 -0.0497 -0.1775
   94POSM   C4B 1105   2.099   9.988  13.901 -0.0132  0.0608 -0.1355
   95DOPC   NC3 1106   8.394  10.460  15.576 -0.0711 -0.1986  0.1614
   95DOPC   PO4 1107   8.702  10.372  15.741 -0.3645 -0.0431  0.1021
   95DOPC   GL1 1108   8.676  10.250  15.282 -0.4363  0.0306  0.1329
   95DOPC   GL2 1109   8.586  10.455  15.029  0.0032  0.0107  0.2925
   95DOPC   C1A 1110   8.568   9.804  15.129 -0.1303 -0.0373  0.1232
   95DOPC   D2A 1111   8.553   9.413  14.843 -0.2855  0.2248  0.1434
   95DOPC   C3A 1112   8.589   9.424  14.433  0.1332  0.0965  0.0274
   95DOPC   C4A 1113   8.676   9.160  14.114  0.2325 -0.2051 -0.0119
   95DOPC   C1B 1114   8.200  10.774  14.986  0.2245  0.4406  0.2795
   95DOPC   D2B 1115   7.851  10.923  14.733 -0.1542 -0.0137  0.1391
   95DOPC   C3B 1116   7.570  10.728  14.397 -0.2130  0.0332  0.3998
   95DOPC   C4B 1117   7.154  10.541  14.298  0.1479 -0.2038  0.1637
   96DOPS   CNO 1118   4.298   6.266  16.314  0.0529  0.0646 -0.1226
   96DOPS   PO4 1119   4.474   6.581  16.149  0.1679 -0.0782  0.1999
   96DOPS   GL1 1120   4.766   6.461  15.862 -0.4906  0.4730  0.1583
   96DOPS   GL2 1121   4.703   6.366  15.682  0.1366 -0.1693  0.0403
   96DOPS   C1A 1122   5.064   6.758  15.595  0.0601 -0.1753 -0.0734
   96DOPS   D2A 1123   5.101   7.117  15.319 -0.1525  0.3538  0.2109
   96DOPS   C3A 1124   5.123   7.452  14.987  0.0382 -0.1592  0.2144
   96DOPS   C4A 1125   5.449   7.762  14.849 -0.1597 -0.2766  0.0730
   96DOPS   C1B 1126   4.727   6.487  15.240  0.0120  0.0115  0.0273
   96DOPS   D2B 1127   4.837   6.353  14.841 -0.0754 -0.0202  0.4059
   96DOPS   C3B 1128   4.583   6.461  14.448  0.0921 -0.0943  0.0950
   96DOPS   C4B 1129   4.182   6.463  14.195  0.3249  0.2049  0.1800
   97DOPE   NH3 1130  10.480   5.196  16.186  0.1028  0.2000  0.0206
   97DOPE   PO4 1131  10.616   5.017  15.922 -0.0858  0.0328 -0.1060
   97DOPE   GL1 1132  10.557   4.972  15.520 -0.4273 -0.2356  0.1369
   97DOPE   GL2 1133  10.321   5.130  15.482 -0.2212 -0.2974  0.1461
   97DOPE   C1A 1134  10.645   5.200  15.130  0.0036 -0.0327  0.2095
   97DOPE   D2A 1135  10.990   5.238  14.803  0.0280 -0.0658 -0.2162
   97DOPE   C3A 1136  10.742   5.073  14.461 -0.0137 -0.1114  0.0336
   97DOPE   C4A 1137  10.502   5.024  14.031  0.1279 -0.2668 -0.1055
   97DOPE   C1B 1138  10.149   5.449  15.160 -0.1696 -0.3009  0.1547
   97DOPE   D2B 1139  10.047   5.440  14.738 -0.2321  0.1754 -0.1136
   97DOPE   C3B 1140   9.776   5.367  14.334  0.1719 -0.2693 -0.0122
   97DOPE   C4B 1141   9.612   5.253  13.969 -0.0332 -0.3044 -0.0422
   98DOPS   CNO 1142   5.145   9.719  15.925 -0.2781 -0.0209 -0.2911
   98DOPS   PO4 1143   5.334   9.399  15.865  0.2351  0.2116 -0.0522
   98DOPS   GL1 1144   5.069   9.432  15.606  0.3322  0.0403  0.0594
   98DOPS   GL2 1145   4.897   9.201  15.674  0.1013  0.0963 -0.4222
   98DOPS   C1A 1146   5.209   9.418  15.178 -0.2111  0.0970  0.3910
   98DOPS   D2A 1147   5.015   9.345  14.772 -0.0375  0.2665  0.2051
   98DOPS   C3A 1148   5.162   9.344  14.351  0.2078 -0.0101  0.0972
   98DOPS   C4A 1149   5.108   9.154  13.925 -0.3562 -0.0419  0.0708
   98DOPS   C1B 1150   4.949   8.993  15.271  0.1019 -0.1559  0.3209
   98DOPS   D2B 1151   5.328   8.965  14.995  0.1126  0.1157 -0.2259
   98DOPS   C3B 1152   5.495   9.127  14.590 -0.0795  0.0545 -0.1483
   98DOPS   C4B 1153   5.603   9.206  14.113  0.0250  0.2171  0.1492
   99DOPS   CNO 1154   1.949   2.264  16.421  0.2109  0.0130  0.1032
   99DOPS   PO4 1155   2.046   1.942  16.277  0.2355  0.0616  0.0270
   99DOPS   GL1 1156   1.984   1.977  15.819 -0.1260  0.0491  0.2008
   99DOPS   GL2 1157   2.123   2.033  15.553 -0.0546 -0.2111 -0.1712
   99DOPS   C1A 1158   1.817   1.599  15.561 -0.0527  0.0241 -0.0806
   99DOPS   D2A 1159   1.943   1.314  15.205 -0.2131 -0.0802  0.2987
   99DOPS   C3A 1160   1.727   1.212  14.755 -0.1157 -0.0953 -0.0621
   99DOPS   C4A 1161   1.642   1.175  14.294  0.1991  0.2591 -0.0251
   99DOPS   C1B 1162   2.331   1.675  15.373  0.0831 -0.3918 -0.4163
   99DOPS   D2B 1163   2.413   1.342  15.162  0.1409  0.1375  0.1863
   99DOPS   C3B 1164   2.682   1.241  14.829  0.1778  0.1694  0.1446
   99DOPS   C4B 1165   3.065   1.048  14.836  0.3270 -0.3156 -0.0007
  100POSM   NC3 1166   2.031   7.577  16.206  0.2663  0.1494  0.0624
  100POSM   PO4 1167   2.289   7.512  15.906 -0.0973  0.2611  0.0587
  100POSM   AM1 1168   2.133   7.643  15.639  0.1739  0.4765  0.0184
  100POSM   AM2 1169   1.830   7.675  15.573 -0.3656  0.2550 -0.1997
  100POSM   T1A 1170   2.331   7.941  15.271  0.2823 -0.0688 -0.0109
  100POSM   C2A 1171   2.412   8.311  14.987  0.0600 -0.1606 -0.1446
  100POSM   C3A 1172   2.509   8.735  14.804  0.1095  0.3099 -0.1721
  100POSM   C1B 1173   1.895   7.687  15.268  0.0639 -0.0636  0.2552
  100POSM   D2B 1174   1.800   7.795  14.836 -0.0153 -0.0975  0.0992
  100POSM   C3B 1175   2.054   8.013  14.585 -0.0289  0.2551 -0.1987
  100POSM   C4B 1176   2.297   8.362  14.532  0.0506  0.0351 -0.3650
  101POSM   NC3 1177   8.658   5.741  16.458  0.4094 -0.2126  0.0082
  101POSM   PO4 1178   8.526   5.709  16.117  0.1321  0.3976 -0.1037
  101POSM   AM1 1179   8.549   5.713  15.772  0.0131 -0.1322 -0.0568
  101POSM   AM2 1180   8.730   5.753  15.549  0.0888 -0.1595 -0.0870
  101POSM   T1A 1181   8.289   5.792  15.359  0.0487  0.4085 -0.0420
  101POSM   C2A 1182   8.445   6.074  15.030 -0.3089 -0.0806 -0.0023
  101POSM   C3A 1183   8.444   6.456  14.781  0.5756 -0.1518 -0.0691
  101POSM   C1B 1184   8.858   5.840  15.234 -0.1362  0.1003  0.2389
  101POSM   D2B 1185   8.859   5.864  14.773  0.5462 -0.2813  0.1776
  101POSM   C3B 1186   8.592   6.117  14.443  0.0073  0.1110 -0.0914
  101POSM   C4B 1187   8.202   6.406  14.322 -0.2061 -0.3437  0.3721
  102DOPC   NC3 1188   3.710   1.993  15.683 -0.1210 -0.0360  0.0654
  102DOPC   PO4 1189   3.364   2.074  15.867 -0.2417 -0.1512  0.3341
  102DOPC   GL1 1190   3.136   2.122  15.564 -0.0180  0.1441 -0.1165
  102DOPC   GL2 1191   3.357   2.127  15.325 -0.0211  0.1854 -0.0184
  102DOPC   C1A 1192   2.921   1.911  15.236 -0.0054 -0.1201  0.0477
  102DOPC   D2A 1193   2.667   1.790  14.910  0.0479 -0.3790 -0.1835
  102DOPC   C3A 1194   2.178   1.766  14.832  0.6432  0.2537  0.2925
  102DOPC   C4A 1195   1.872   1.835  15.113 -0.0331 -0.0276  0.1098
  102DOPC   C1B 1196   3.229   2.025  14.867 -0.0231 -0.0482 -0.2121
  102DOPC   D2B 1197   3.077   1.862  14.427 -0.2302 -0.2635  0.3407
  102DOPC   C3B 1198   3.260   1.443  14.233  0.0025 -0.0857 -0.0885
  102DOPC   C4B 1199   3.404   1.292  13.811 -0.0107  0.1110  0.1178
  103POSM   NC3 1200   5.315  11.230  15.658  0.0488  0.2551 -0.1899
  103POSM   PO4 1201   4.958  11.079  15.792 -0.2848 -0.1725  0.3702
  103POSM   AM1 1202   4.989  10.954  15.469 -0.4011 -0.0727 -0.0087
  103POSM   AM2 1203   5.082  10.676  15.453 -0.0661 -0.2332 -0.0713
  103POSM   T1A 1204   5.231  10.986  15.057  0.0660 -0.1227  0.0521
  103POSM   C2A 1205   5.193  10.881  14.587  0.3009 -0.2039  0.4207
  103POSM   C3A 1206   5.263  10.858  14.119  0.2423  0.0377 -0.0896
  103POSM   C1B 1207   5.054  10.499  15.161 -0.0840 -0.4366  0.2759
  103POSM   D2B 1208   5.327  10.304  14.859 -0.0562  0.0995 -0.1043
  103POSM   C3B 1209   5.536  10.505  14.453 -0.1854 -0.1432 -0.0629
  103POSM   C4B 1210   5.851  10.796  14.265 -0.1209  0.1475 -0.0750
  104DOPC   NC3 1211   6.736   6.724  15.916 -0.0044 -0.1886 -0.1497
  104DOPC   PO4 1212   7.098   6.913  15.949  0.2678 -0.0665  0.1264
  104DOPC   GL1 1213   7.284   6.679  15.638 -0.6390 -0.3000  0.0790
  104DOPC   GL2 1214   7.580   6.681  15.651 -0.2302  0.2663  0.2112
  104DOPC   C1A 1215   7.153   6.457  15.247 -0.0752 -0.1241  0.0354
  104DOPC   D2A 1216   6.955   6.456  14.801  0.0553 -0.0504 -0.0469
  104DOPC   C3A 1217   7.025   6.213  14.361 -0.1385 -0.0418  0.1789
  104DOPC   C4A 1218   7.231   6.173  13.963  0.1333 -0.1969 -0.0807
  104DOPC   C1B 1219   7.590   6.741  15.207 -0.2652  0.0920  0.0757
  104DOPC   D2B 1220   7.511   6.534  14.824 -0.2503 -0.1127  0.1801
  104DOPC   C3B 1221   7.910   6.676  14.655 -0.0315  0.1576  0.1955
  104DOPC   C4B 1222   8.054   6.964  14.338  0.2340 -0.2843  0.0407
  105POSM   NC3 1223   8.030   6.823  15.941 -0.0209 -0.0034 -0.0651
  105POSM   PO4 1224   8.151   6.519  16.164  0.0154  0.0888  0.0104
  105POSM   AM1 1225   7.902   6.346  16.055 -0.4373 -0.1238  0.1041
  105POSM   AM2 1226   7.749   6.142  16.222 -0.0543 -0.6700 -0.1548
  105POSM   T1A 1227   7.595   6.208  15.718 -0.2770  0.1928  0.0105
  105POSM   C2A 1228   7.213   6.068  15.611 -0.0186 -0.0025  0.1755
  105POSM   C3A 1229   6.802   6.317  15.591 -0.1767  0.1457 -0.0391
  105POSM   C1B 1230   7.512   5.947  16.180 -0.0488 -0.3378 -0.0100
  105POSM   D2B 1231   7.215   5.686  15.890  0.0453  0.1001 -0.1453
  105POSM   C3B 1232   6.807   5.841  15.818  0.2505 -0.1016  0.0435
  105POSM   C4B 1233   6.528   6.115  16.064 -0.1503  0.2738  0.0746
  106POSM   NC3 1234   8.605   1.251  15.966  0.0706  0.1957  0.1786
  106POSM   PO4 1235   8.848   1.433  15.797  0.0462  0.1463  0.0271
  106POSM   AM1 1236   8.780   1.350  15.446 -0.0035  0.0400 -0.2016
  106POSM   AM2 1237   8.530   1.372  15.317  0.0302 -0.0044 -0.3695
  106POSM   T1A 1238   8.946   1.622  15.027  0.2131 -0.1103  0.0332
  106POSM   C2A 1239   9.093   1.547  14.579  0.1499  0.2589 -0.1006
  106POSM   C3A 1240   9.137   1.126  14.331 -0.2046  0.0289  0.0245
  106POSM   C1B 1241   8.612   1.259  15.023  0.2720  0.3590 -0.1233
  106POSM   D2B 1242   8.662   1.258  14.552 -0.0270  0.1033 -0.2526
  106POSM   C3B 1243   8.459   1.556  14.309  0.0136 -0.2256  0.0306
  106POSM   C4B 1244   8.508   1.813  13.926  0.2537  0.2990 -0.0424
  107DOPC   NC3 1245   2.249   3.061  15.725  0.0281 -0.2687  0.0988
  107DOPC   PO4 1246   2.050   3.195  16.046 -0.1154  0.2002  0.3373
  107DOPC   GL1 1247   1.781   3.392  15.712  0.1497 -0.0011 -0.0600
  107DOPC   GL2 1248   1.801   3.209  15.428 -0.0820 -0.2830 -0.1126
  107DOPC   C1A 1249   2.165   3.565  15.466  0.0501  0.1613 -0.0953
  107DOPC   D2A 1250   2.479   3.893  15.294  0.3040  0.0433 -0.1528
  107DOPC   C3A 1251   2.332   4.335  15.229 -0.0373  0.1519  0.1240
  107DOPC   C4A 1252   2.123   4.687  15.125  0.0081  0.2176 -0.2017
  107DOPC   C1B 1253   1.473   3.241  15.115  0.1659 -0.1252 -0.3547
  107DOPC   D2B 1254   1.280   3.234  14.732 -0.4401  0.0542 -0.1346
  107DOPC   C3B 1255   1.504   3.462  14.472 -0.3683 -0.4677 -0.2787
  107DOPC   C4B 1256   1.942   3.460  14.263  0.1764  0.1243  0.0061
  108DOPE   NH3 1257   2.916   2.111  16.085  0.0883 -0.0461 -0.0720
  108DOPE   PO4 1258   2.893   2.347  15.849  0.0484  0.0897  0.1407
  108DOPE   GL1 1259   2.744   2.302  15.576  0.2650 -0.2360  0.0297
  108DOPE   GL2 1260   2.543   2.215  15.408 -0.2866  0.0931 -0.0645
  108DOPE   C1A 1261   2.852   2.466  15.144 -0.2630  0.2105  0.1016
  108DOPE   D2A 1262   2.808   2.281  14.783 -0.1235  0.0983  0.0550
  108DOPE   C3A 1263   2.470   2.064  14.529  0.1186 -0.3859 -0.1887
  108DOPE   C4A 1264   2.162   1.800  14.316 -0.1096  0.2632  0.2117
  108DOPE   C1B 1265   2.308   2.190  15.014 -0.1271 -0.0634 -0.1239
  108DOPE   D2B 1266   2.192   2.462  14.680 -0.1353  0.2658  0.1255
  108DOPE   C3B 1267   2.518   2.551  14.338  0.0834  0.2665  0.2208
  108DOPE   C4B 1268   2.580   2.639  13.912  0.2174  0.2364 -0.0653
  109DOPC   NC3 1269   0.946   4.604  16.020  0.2999  0.3580  0.1809
  109DOPC   PO4 1270   1.263   4.573  16.184 -0.4047  0.0051  0.0371
  109DOPC   GL1 1271   1.294   4.706  15.776  0.6116 -0.0817  0.1085
  109DOPC   GL2 1272   1.273   4.421  15.682  0.1160 -0.1109  0.0985
  109DOPC   C1A 1273   1.066   4.855  15.396  0.1657  0.0058 -0.0487
  109DOPC   D2A 1274   0.854   5.038  15.054  0.0317 -0.2278 -0.2640
  109DOPC   C3A 1275   0.836   4.915  14.625  0.0070 -0.1639 -0.1664
  109DOPC   C4A 1276   0.863   4.838  14.199 -0.3138 -0.0997 -0.1528
  109DOPC   C1B 1277   1.424   4.249  15.273  0.0730  0.1050  0.0856
  109DOPC   D2B 1278   1.381   4.238  14.737 -0.1005 -0.0923  0.0359
  109DOPC   C3B 1279   1.666   4.301  14.421  0.2395  0.0767 -0.0365
  109DOPC   C4B 1280   2.027   4.061  14.291 -0.1220 -0.3484 -0.3030
  110POSM   NC3 1281  10.483   8.100  15.917  0.1105 -0.0990  0.2660
  110POSM   PO4 1282  10.133   7.938  15.921 -0.0473  0.1223 -0.0745
  110POSM   AM1 1283  10.041   7.860  15.586 -0.0767 -0.3628  0.1539
  110POSM   AM2 1284   9.831   7.687  15.500  0.0662  0.2697 -0.0110
  110POSM   T1A 1285  10.242   7.679  15.137 -0.0410 -0.1983 -0.0182
  110POSM   C2A 1286  10.411   7.975  14.862  0.2077  0.2815 -0.0150
  110POSM   C3A 1287  10.414   8.183  14.463  0.1633  0.1133 -0.5264
  110POSM   C1B 1288   9.602   7.591  15.290 -0.1037 -0.2659  0.2781
  110POSM   D2B 1289   9.291   7.631  14.956 -0.0742 -0.1098 -0.1556
  110POSM   C3B 1290   9.217   7.269  14.714  0.1580 -0.2144 -0.2476
  110POSM   C4B 1291   8.916   7.180  14.389 -0.1015  0.1702 -0.0569
  111POSM   NC3 1292  34.423   9.622  15.812  0.0421  0.0751 -0.2933
  111POSM   PO4 1293  34.694   9.522  16.038  0.0236  0.0905 -0.3331
  111POSM   AM1 1294  34.892   9.641  15.753 -0.0881  0.1362 -0.2148
  111POSM   AM2 1295  35.142   9.715  15.835  0.0460 -0.0509 -0.0965
  111POSM   T1A 1296  35.078   9.718  15.277 -0.0694 -0.1977  0.2905
  111POSM   C2A 1297  35.217   9.673  14.832 -0.1038  0.1906  0.3541
  111POSM   C3A 1298  35.458   9.355  14.642  0.0530 -0.1951 -0.0929
  111POSM   C1B 1299  35.418   9.831  15.597 -0.0095 -0.1200 -0.0761
  111POSM   D2B 1300  35.530   9.997  15.241  0.0734 -0.2311  0.1062
  111POSM   C3B 1301  35.703   9.745  14.949 -0.1032  0.1517 -0.1984
  111POSM   C4B 1302  35.991   9.507  14.630 -0.1176  0.2137  0.1286
  112POSM   NC3 1303   4.145   6.433  15.832  0.0596 -0.1147 -0.0163
  112POSM   PO4 1304   3.930   6.151  15.941 -0.1064 -0.1116 -0.1067
  112POSM   AM1 1305   3.828   6.152  15.613  0.0296 -0.0201  0.1659
  112POSM   AM2 1306   3.586   6.141  15.414 -0.0575 -0.1778 -0.1250
  112POSM   T1A 1307   3.891   5.799  15.256  0.2743  0.0927 -0.0519
  112POSM   C2A 1308   3.809   5.692  14.817  0.1359  0.1141 -0.4604
  112POSM   C3A 1309   3.950   5.384  14.515  0.0893  0.0587  0.2139
  112POSM   C1B 1310   3.273   6.359  15.288  0.0603  0.5093  0.0676
  112POSM   D2B 1311   3.039   6.680  15.010  0.0613  0.0540 -0.2839
  112POSM   C3B 1312   2.703   6.575  14.716  0.1112 -0.2396  0.0224
  112POSM   C4B 1313   2.437   6.837  14.426  0.0994  0.2474  0.3241
  113POSM   NC3 1314   2.739  10.925  16.142 -0.3963  0.2072  0.0948
  113POSM   PO4 1315   3.114  11.035  15.973  0.2313 -0.0579  0.0977
  113POSM   AM1 1316   3.065  11.188  15.674 -0.3149 -0.0128 -0.0101
  113POSM   AM2 1317   3.257  11.278  15.427 -0.1996 -0.0078 -0.0408
  113POSM   T1A 1318   2.841  11.053  15.246 -0.2004 -0.3567 -0.2210
  113POSM   C2A 1319   2.482  11.098  14.874 -0.0904 -0.3323 -0.1119
  113POSM   C3A 1320   2.217  10.994  14.496  0.1091 -0.1377 -0.1415
  113POSM   C1B 1321   3.281  11.255  15.104 -0.3383 -0.0464  0.2884
  113POSM   D2B 1322   3.263  11.034  14.683  0.3726  0.3820 -0.0360
  113POSM   C3B 1323   3.225  10.951  14.196 -0.3380  0.0897 -0.0595
  113POSM   C4B 1324   2.798  10.989  13.978 -0.3993  0.3002  0.2399
  114DOPC   NC3 1325  10.935   7.915  15.675  0.3650 -0.0703  0.1495
  114DOPC   PO4 1326  11.250   8.146  15.733  0.0784  0.1863  0.3691
  114DOPC   GL1 1327  11.245   8.035  15.346  0.0437 -0.1518  0.0446
  114DOPC   GL2 1328  11.298   7.764  15.344  0.1830  0.1534 -0.0403
  114DOPC   C1A 1329  11.203   8.279  15.006 -0.1014 -0.2801  0.0445
  114DOPC   D2A 1330  11.221   8.145  14.590 -0.0247  0.0117  0.2492
  114DOPC   C3A 1331  11.380   7.748  14.365 -0.1196 -0.1713 -0.1574
  114DOPC   C4A 1332  11.673   7.633  13.997  0.3014  0.0823 -0.0777
  114DOPC   C1B 1333  11.538   7.973  14.980  0.1201  0.2896 -0.0420
  114DOPC   D2B 1334  11.766   7.940  14.625  0.0432  0.0233 -0.2888
  114DOPC   C3B 1335  11.840   8.309  14.433 -0.0721  0.2851 -0.0261
  114DOPC   C4B 1336  12.185   8.574  14.253 -0.0838  0.0508 -0.1658
  115POSM   NC3 1337  11.078   8.514  15.445 -0.1060  0.1979  0.0103
  115POSM   PO4 1338  10.800   8.422  15.688  0.0580  0.0643  0.0890
  115POSM   AM1 1339  10.669   8.241  15.449  0.5652 -0.1153 -0.3882
  115POSM   AM2 1340  10.506   8.296  15.235  0.0983  0.1323  0.0217
  115POSM   T1A 1341  10.789   7.826  15.213  0.0279  0.1731  0.1643
  115POSM   C2A 1342  11.120   7.709  14.877 -0.0375 -0.2106  0.2061
  115POSM   C3A 1343  11.507   7.446  14.765 -0.0603  0.0146  0.1875
  115POSM   C1B 1344  10.619   8.421  14.978 -0.0907  0.0283  0.2338
  115POSM   D2B 1345  10.939   8.566  14.699 -0.0978 -0.1835 -0.1331
  115POSM   C3B 1346  10.978   8.598  14.225 -0.2138  0.0213  0.1495
  115POSM   C4B 1347  11.180   8.712  13.834  0.0861 -0.3742  0.1437
  116DOPS   CNO 1348   5.446   5.727  16.158 -0.0807 -0.0955 -0.0369
  116DOPS   PO4 1349   5.096   5.780  16.167  0.0861 -0.2249 -0.0412
  116DOPS   GL1 1350   5.155   5.884  15.760 -0.0054 -0.5902  0.1060
  116DOPS   GL2 1351   4.882   5.791  15.636 -0.2249  0.0943  0.0813
  116DOPS   C1A 1352   5.133   6.252  15.470  0.0603  0.0320  0.2583
  116DOPS   D2A 1353   5.528   6.421  15.369 -0.2268  0.0759 -0.2727
  116DOPS   C3A 1354   5.866   6.517  15.486 -0.0987  0.0416  0.1058
  116DOPS   C4A 1355   6.275   6.455  15.754  0.0513  0.3033 -0.0653
  116DOPS   C1B 1356   4.818   5.945  15.193  0.1076 -0.0966  0.3369
  116DOPS   D2B 1357   5.121   5.907  14.828 -0.0662  0.1349  0.2407
  116DOPS   C3B 1358   5.436   5.565  14.825  0.2376 -0.2571 -0.3212
  116DOPS   C4B 1359   5.799   5.241  14.799 -0.2892  0.2622 -0.1192
  117DOPS   CNO 1360   1.121   7.322  16.261  0.1596  0.0442 -0.4642
  117DOPS   PO4 1361   0.862   7.167  16.054 -0.0144 -0.1007 -0.0539
  117DOPS   GL1 1362   0.691   7.288  15.688  0.0715  0.4345  0.0366
  117DOPS   GL2 1363   0.660   7.019  15.611  0.2872 -0.0382  0.0261
  117DOPS   C1A 1364   0.949   7.281  15.281  0.1233  0.0571 -0.1316
  117DOPS   D2A 1365   0.956   7.324  14.784 -0.1778 -0.2091 -0.2424
  117DOPS   C3A 1366   1.378   7.093  14.650 -0.0771 -0.0149 -0.1361
  117DOPS   C4A 1367   1.841   6.940  14.608 -0.1534 -0.0522  0.0904
  117DOPS   C1B 1368   0.450   6.997  15.207  0.2968  0.2429 -0.1095
  117DOPS   D2B 1369   0.141   6.896  14.887  0.1196  0.3721 -0.1321
  117DOPS   C3B 1370   0.135   6.739  14.477 -0.1327 -0.1768  0.0199
  117DOPS   C4B 1371   0.085   6.901  14.016 -0.0509  0.0132  0.0410
  118DOPS   CNO 1372   5.064   8.014  16.483 -0.1755 -0.1492 -0.1928
  118DOPS   PO4 1373   5.372   8.113  16.275  0.2056 -0.4132  0.1383
  118DOPS   GL1 1374   5.447   8.031  15.922 -0.1247  0.1161  0.0954
  118DOPS   GL2 1375   5.544   7.850  15.758 -0.2283 -0.0587  0.2665
  118DOPS   C1A 1376   5.141   8.166  15.605 -0.1861  0.1972  0.1708
  118DOPS   D2A 1377   5.137   7.934  15.251  0.3011 -0.0756  0.2884
  118DOPS   C3A 1378   5.263   8.272  14.871 -0.0600  0.0274  0.2677
  118DOPS   C4A 1379   5.492   8.492  14.542 -0.1461  0.1031 -0.1285
  118DOPS   C1B 1380   5.518   7.583  15.418 -0.0519  0.1141  0.1929
  118DOPS   D2B 1381   5.795   7.486  15.077 -0.1093  0.0472 -0.0087
  118DOPS   C3B 1382   5.945   7.661  14.670  0.4987  0.4161 -0.2023
  118DOPS   C4B 1383   5.633   7.834  14.398 -0.2375  0.2857  0.1150
  119POSM   NC3 1384   7.892   4.225  15.891 -0.5206 -0.1635  0.0844
  119POSM   PO4 1385   7.759   3.872  16.039  0.0885 -0.1619 -0.0593
  119POSM   AM1 1386   7.968   3.753  15.803 -0.1888 -0.0869  0.1230
  119POSM   AM2 1387   8.075   3.856  15.533  0.0577  0.0878 -0.0978
  119POSM   T1A 1388   7.914   3.444  15.447  0.1406 -0.0877 -0.0703
  119POSM   C2A 1389   7.783   3.014  15.157  0.0598  0.2202  0.2256
  119POSM   C3A 1390   7.814   2.875  14.668 -0.2340 -0.0487 -0.2282
  119POSM   C1B 1391   8.307   3.734  15.396  0.2060 -0.0155 -0.2878
  119POSM   D2B 1392   8.487   3.477  15.087  0.3366  0.2091 -0.1374
  119POSM   C3B 1393   8.163   3.226  14.904 -0.2747  0.0927 -0.0344
  119POSM   C4B 1394   7.926   3.422  14.488  0.1107  0.0312  0.0200
  120DOPE   NH3 1395   7.243  11.512  16.318 -0.0996 -0.2772 -0.0427
  120DOPE   PO4 1396   7.198  11.241  16.367  0.1566  0.2244 -0.3083
  120DOPE   GL1 1397   7.275  11.140  16.005 -0.2270  0.4648 -0.2850
  120DOPE   GL2 1398   7.079  10.933  15.943 -0.0046 -0.2213  0.1985
  120DOPE   C1A 1399   7.426  11.193  15.527  0.3435  0.2474 -0.1209
  120DOPE   D2A 1400   7.484  11.039  15.120 -0.0060 -0.1142 -0.1091
  120DOPE   C3A 1401   7.529  11.329  14.826 -0.5756  0.1983 -0.0074
  120DOPE   C4A 1402   7.803  11.650  14.555  0.1742 -0.1089  0.2863
  120DOPE   C1B 1403   6.939  10.929  15.518  0.2236  0.1565  0.3483
  120DOPE   D2B 1404   6.992  10.995  15.039 -0.0985 -0.0845  0.2117
  120DOPE   C3B 1405   7.189  10.914  14.686  0.0100 -0.1268 -0.1213
  120DOPE   C4B 1406   7.180  11.044  14.226  0.0501  0.1067 -0.1078
  121POSM   NC3 1407   5.441   0.471  16.643 -0.1192  0.3693 -0.2591
  121POSM   PO4 1408   5.445   0.726  16.322  0.0842  0.0447 -0.1042
  121POSM   AM1 1409   5.208   0.709  16.060  0.0195 -0.3729  0.2534
  121POSM   AM2 1410   5.188   0.724  15.766  0.1810 -0.0377  0.1281
  121POSM   T1A 1411   4.834   0.362  15.876  0.2018 -0.3797 -0.4463
  121POSM   C2A 1412   4.480   0.213  15.543  0.5168  0.1915  0.3786
  121POSM   C3A 1413   4.190   0.019  15.241 -0.3881  0.0809 -0.1893
  121POSM   C1B 1414   5.136   0.725  15.385  0.1163  0.1215 -0.2020
  121POSM   D2B 1415   5.165   0.832  14.953 -0.2289 -0.4086 -0.0238
  121POSM   C3B 1416   4.908   0.725  14.590 -0.4976  0.3045  0.2495
  121POSM   C4B 1417   5.013   0.760  14.172  0.1635  0.0541 -0.3832
  122DOPS   CNO 1418   7.673   7.485  15.880  0.1780  0.0740  0.2918
  122DOPS   PO4 1419   7.533   7.151  15.818  0.0077  0.0803 -0.1205
  122DOPS   GL1 1420   7.307   7.271  15.449 -0.1848 -0.0589  0.3615
  122DOPS   GL2 1421   7.159   7.046  15.387 -0.1127  0.3561 -0.0708
  122DOPS   C1A 1422   7.326   7.580  15.081 -0.1203  0.0258 -0.2632
  122DOPS   D2A 1423   7.306   7.956  14.948 -0.1226 -0.0318  0.0139
  122DOPS   C3A 1424   7.135   8.138  14.553 -0.3047  0.0144  0.0555
  122DOPS   C4A 1425   6.916   8.408  14.291  0.1834  0.0381  0.2948
  122DOPS   C1B 1426   7.109   6.925  14.912  0.2025  0.0550 -0.1510
  122DOPS   D2B 1427   7.062   7.201  14.592  0.1317 -0.1117 -0.0283
  122DOPS   C3B 1428   7.295   7.606  14.469 -0.1153 -0.2748  0.0496
  122DOPS   C4B 1429   7.635   7.673  14.137  0.0972  0.0756  0.3878
  123POSM   NC3 1430  10.184   4.780  15.821 -0.0035  0.2694 -0.1651
  123POSM   PO4 1431  10.032   5.124  15.913  0.0464 -0.0488  0.2138
  123POSM   AM1 1432   9.836   5.087  15.645  0.0754  0.0853 -0.1101
  123POSM   AM2 1433   9.912   4.895  15.418 -0.3074 -0.0341  0.3219
  123POSM   T1A 1434   9.673   5.342  15.227 -0.0496  0.0680 -0.3073
  123POSM   C2A 1435   9.494   5.498  14.850  0.0917  0.1557 -0.1265
  123POSM   C3A 1436   9.339   5.762  14.452 -0.0843 -0.0152  0.2770
  123POSM   C1B 1437  10.074   4.962  15.124 -0.2079  0.0848 -0.1728
  123POSM   D2B 1438  10.325   5.023  14.768 -0.1123  0.2382  0.0202
  123POSM   C3B 1439  10.126   4.957  14.377  0.3090  0.3964 -0.4648
  123POSM   C4B 1440   9.968   4.872  13.955  0.0466 -0.1787 -0.1410
  124POSM   NC3 1441   4.985   3.424  16.401  0.3216  0.2625  0.2637
  124POSM   PO4 1442   5.327   3.204  16.367 -0.1262 -0.0099  0.2752
  124POSM   AM1 1443   5.457   3.157  16.051 -0.1265 -0.2155  0.0949
  124POSM   AM2 1444   5.482   2.957  15.830 -0.0994 -0.1838 -0.0792
  124POSM   T1A 1445   5.580   3.368  15.625 -0.0391  0.3807  0.1494
  124POSM   C2A 1446   5.536   3.356  15.198  0.4741  0.0664  0.0852
  124POSM   C3A 1447   5.471   3.144  14.841  0.4338 -0.1966  0.0533
  124POSM   C1B 1448   5.286   2.967  15.504  0.2670 -0.1941 -0.1870
  124POSM   D2B 1449   5.047   3.209  15.213  0.3351 -0.2464 -0.2771
  124POSM   C3B 1450   4.964   3.399  14.724  0.2353  0.1220  0.1642
  124POSM   C4B 1451   4.840   3.433  14.270  0.0824 -0.0076 -0.1812
  125POSM   NC3 1452   2.471   7.953  15.819 -0.1696  0.0092  0.1583
  125POSM   PO4 1453   2.620   8.232  16.004 -0.0187  0.0759 -0.0328
  125POSM   AM1 1454   2.673   8.409  15.735  0.2003 -0.4476 -0.1895
  125POSM   AM2 1455   2.869   8.412  15.524  0.2155  0.0279  0.3546
  125POSM   T1A 1456   2.394   8.631  15.382 -0.4314 -0.0454  0.2068
  125POSM   C2A 1457   2.058   8.686  15.103 -0.4093  0.3657 -0.0257
  125POSM   C3A 1458   1.820   8.639  14.685 -0.1043  0.2248 -0.1480
  125POSM   C1B 1459   2.904   8.442  15.182  0.0992 -0.0759  0.3950
  125POSM   D2B 1460   3.019   8.285  14.702 -0.2544 -0.0498  0.2876
  125POSM   C3B 1461   2.998   8.620  14.450 -0.0624 -0.4298 -0.2368
  125POSM   C4B 1462   2.588   8.660  14.281  0.0515  0.0921  0.3689
  126DOPE   NH3 1463  11.715   9.015  15.875  0.1049  0.1356 -0.0409
  126DOPE   PO4 1464  11.554   8.818  15.652  0.1414 -0.1736  0.3412
  126DOPE   GL1 1465  11.529   8.964  15.262 -0.1887 -0.2662 -0.0699
  126DOPE   GL2 1466  11.337   8.790  15.131  0.5094  0.1409 -0.0977
  126DOPE   C1A 1467  11.698   9.179  14.832  0.0374  0.3179  0.2462
  126DOPE   D2A 1468  11.511   9.107  14.419 -0.0022 -0.1657 -0.0292
  126DOPE   C3A 1469  11.306   9.157  13.993  0.0174 -0.1282 -0.0305
  126DOPE   C4A 1470  11.366   9.098  13.545  0.0401 -0.1099  0.4752
  126DOPE   C1B 1471  11.425   8.599  14.681  0.1616 -0.1522  0.1614
  126DOPE   D2B 1472  11.467   8.602  14.254 -0.0193 -0.0065  0.0696
  126DOPE   C3B 1473  11.837   8.920  14.103 -0.0388 -0.1806 -0.0375
  126DOPE   C4B 1474  12.275   9.125  14.098  0.0096 -0.1599 -0.1280
  127DOPE   NH3 1475   0.948   7.667  15.927 -0.0345  0.0827  0.2209
  127DOPE   PO4 1476   1.262   7.653  15.841 -0.0447 -0.0009  0.0133
  127DOPE   GL1 1477   1.411   7.483  15.556 -0.1487 -0.1710  0.2188
  127DOPE   GL2 1478   1.364   7.136  15.669  0.2551  0.2313 -0.2146
  127DOPE   C1A 1479   1.384   7.396  15.102 -0.2208 -0.0478  0.0070
  127DOPE   D2A 1480   1.370   7.644  14.750 -0.1587 -0.1304 -0.0631
  127DOPE   C3A 1481   1.597   7.926  14.428  0.0431 -0.1524 -0.0809
  127DOPE   C4A 1482   1.857   8.301  14.257 -0.1507 -0.1557  0.0343
  127DOPE   C1B 1483   1.319   6.897  15.286  0.0801  0.2666  0.0524
  127DOPE   D2B 1484   0.973   6.720  15.022 -0.0650  0.1705  0.0641
  127DOPE   C3B 1485   1.027   6.791  14.505  0.0081  0.2355 -0.1712
  127DOPE   C4B 1486   0.919   6.948  14.077 -0.0811  0.1556 -0.0950
  128DOPS   CNO 1487  10.480   0.834  15.713  0.1906  0.0892 -0.2737
  128DOPS   PO4 1488  10.668   0.537  15.884  0.1606  0.1730  0.1457
  128DOPS   GL1 1489  10.900   0.581  15.628  0.6985 -0.2006 -0.1759
  128DOPS   GL2 1490  10.806   0.713  15.358 -0.0758 -0.1222  0.0564
  128DOPS   C1A 1491  10.942   0.186  15.329 -0.1908  0.0356  0.2588
  128DOPS   D2A 1492  10.696  -0.183  15.215 -0.0303  0.0768 -0.2558
  128DOPS   C3A 1493  10.804  -0.582  15.102  0.0033 -0.1377  0.0520
  128DOPS   C4A 1494  10.835  -0.963  14.861 -0.0938  0.4524 -0.1358
  128DOPS   C1B 1495  10.926   0.898  14.940 -0.4501 -0.1567  0.3349
  128DOPS   D2B 1496  10.924   0.836  14.465  0.0544 -0.1582 -0.0986
  128DOPS   C3B 1497  10.999   1.148  14.170 -0.0816 -0.1959  0.1510
  128DOPS   C4B 1498  10.890   1.615  14.150 -0.0088  0.1055  0.2181
  129DOPS   CNO 1499   0.350   4.624  16.342  0.2397  0.3309 -0.4537
  129DOPS   PO4 1500   0.090   4.518  16.147  0.3565 -0.3151 -0.3312
  129DOPS   GL1 1501   0.165   4.535  15.743  0.1854 -0.1804  0.0395
  129DOPS   GL2 1502  -0.128   4.416  15.645 -0.2800  0.1253 -0.0092
  129DOPS   C1A 1503   0.225   4.232  15.348 -0.0262  0.3761  0.0791
  129DOPS   D2A 1504   0.029   3.879  15.124  0.1190 -0.2854 -0.2331
  129DOPS   C3A 1505  -0.406   3.673  15.172  0.0456 -0.0511  0.0215
  129DOPS   C4A 1506  -0.770   3.304  15.198  0.0910 -0.1408  0.2325
  129DOPS   C1B 1507  -0.101   4.571  15.174  0.4711 -0.1874 -0.0114
  129DOPS   D2B 1508  -0.013   4.510  14.688  0.0919 -0.2672  0.1531
  129DOPS   C3B 1509   0.029   4.814  14.311  0.4119 -0.2160  0.1455
  129DOPS   C4B 1510  -0.084   4.896  13.883 -0.2984 -0.0167  0.1600
  130DOPE   NH3 1511   3.647   9.916  16.324  0.3557 -0.3352 -0.1888
  130DOPE   PO4 1512   3.959   9.909  16.305  0.0415  0.1916 -0.0124
  130DOPE   GL1 1513   3.884   9.862  15.858  0.4892 -0.0769 -0.1873
  130DOPE   GL2 1514   3.672   9.648  15.853 -0.2398  0.1795 -0.2213
  130DOPE   C1A 1515   3.850   9.793  15.388 -0.1729 -0.0324 -0.0125
  130DOPE   D2A 1516   3.762   9.674  14.947 -0.0504 -0.0301 -0.1227
  130DOPE   C3A 1517   3.488   9.360  14.652 -0.3077 -0.3702  0.0320
  130DOPE   C4A 1518   3.301   9.012  14.425 -0.0728 -0.2947  0.1762
  130DOPE   C1B 1519   3.774   9.330  15.464 -0.1770 -0.1871  0.1790
  130DOPE   D2B 1520   4.061   9.212  15.092 -0.2063  0.0708 -0.0219
  130DOPE   C3B 1521   4.014   9.384  14.643  0.0371 -0.0135 -0.0102
  130DOPE   C4B 1522   3.793   9.293  14.277 -0.2183 -0.3027  0.0769
  131DOPC   NC3 1523   4.287  10.132  15.490 -0.1072 -0.0924 -0.0956
  131DOPC   PO4 1524   4.585  10.272  15.741  0.1675  0.0144 -0.1814
  131DOPC   GL1 1525   4.717  10.405  15.418  0.1018 -0.2693  0.0228
  131DOPC   GL2 1526   4.601  10.693  15.318 -0.1329  0.1558 -0.2988
  131DOPC   C1A 1527   4.541  10.205  15.003  0.0859  0.1019 -0.1148
  131DOPC   D2A 1528   4.341  10.498  14.607 -0.0636  0.1199 -0.2401
  131DOPC   C3A 1529   4.002  10.574  14.326  0.0862 -0.0662  0.1193
  131DOPC   C4A 1530   3.511  10.591  14.451 -0.1990 -0.2190  0.1274
  131DOPC   C1B 1531   4.719  10.744  14.883 -0.1279  0.0926 -0.0863
  131DOPC   D2B 1532   4.807  10.614  14.449 -0.0301 -0.0805 -0.0009
  131DOPC   C3B 1533   5.098  10.409  14.124 -0.0668  0.4206  0.4790
  131DOPC   C4B 1534   5.170  10.153  13.750  0.0872 -0.0335 -0.1112
  132DOPE   NH3 1535   5.622   9.039  16.045  0.0159  0.0757 -0.2863
  132DOPE   PO4 1536   5.694   8.745  16.027 -0.0269 -0.0006  0.0473
  132DOPE   GL1 1537   5.980   8.948  15.741  0.2510  0.1357 -0.0571
  132DOPE   GL2 1538   6.139   8.740  15.746 -0.3610 -0.2286  0.0506
  132DOPE   C1A 1539   6.029   9.230  15.390 -0.1248  0.2431 -0.1483
  132DOPE   D2A 1540   6.261   9.155  14.995 -0.4089  0.0491 -0.0199
  132DOPE   C3A 1541   6.693   9.114  14.946  0.1447  0.2204  0.0715
  132DOPE   C4A 1542   7.132   8.973  15.045  0.1429  0.2080 -0.1263
  132DOPE   C1B 1543   6.019   8.439  15.394  0.0194 -0.1788  0.2958
  132DOPE   D2B 1544   6.295   8.229  15.037 -0.1433  0.3362  0.1694
  132DOPE   C3B 1545   6.261   8.015  14.668 -0.1842  0.0858  0.0243
  132DOPE   C4B 1546   6.525   8.015  14.320 -0.0568  0.1070 -0.1392
  133DOPC   NC3 1547  33.976   3.277  15.852 -0.2892 -0.1048  0.1153
  133DOPC   PO4 1548  34.243   3.052  16.014  0.2021  0.2087 -0.1892
  133DOPC   GL1 1549  34.379   2.970  15.726  0.2774 -0.0089  0.5004
  133DOPC   GL2 1550  34.539   3.162  15.563  0.2108 -0.0182  0.1740
  133DOPC   C1A 1551  34.096   2.873  15.408  0.1236  0.1401  0.2476
  133DOPC   D2A 1552  33.919   2.796  15.001  0.1715 -0.2003 -0.0716
  133DOPC   C3A 1553  33.975   2.517  14.649  0.0664  0.2372  0.0626
  133DOPC   C4A 1554  34.284   2.164  14.508  0.5196 -0.0093 -0.2541
  133DOPC   C1B 1555  34.891   3.318  15.286  0.0061 -0.1143  0.2763
  133DOPC   D2B 1556  34.869   3.301  14.836 -0.0130  0.1391  0.1185
  133DOPC   C3B 1557  35.060   3.714  14.794 -0.0416 -0.1962 -0.0077
  133DOPC   C4B 1558  35.001   4.177  14.772 -0.2515 -0.2192 -0.0385
  134DOPE   NH3 1559   9.602   4.773  15.869 -0.0864 -0.1009  0.3348
  134DOPE   PO4 1560   9.695   4.485  15.739 -0.2397 -0.0899  0.2665
  134DOPE   GL1 1561   9.486   4.627  15.377 -0.3326  0.2119 -0.2460
  134DOPE   GL2 1562   9.415   4.961  15.473 -0.3009 -0.1019  0.0923
  134DOPE   C1A 1563   9.663   4.570  14.937  0.1372  0.0102  0.0125
  134DOPE   D2A 1564   9.958   4.522  14.568  0.0203 -0.0348  0.2757
  134DOPE   C3A 1565   9.791   4.363  14.178 -0.4072 -0.0828  0.2785
  134DOPE   C4A 1566   9.941   4.413  13.745  0.0565  0.3833 -0.4398
  134DOPE   C1B 1567   9.323   4.904  15.097  0.3862  0.0170 -0.2472
  134DOPE   D2B 1568   9.626   5.031  14.773  0.0734  0.1716  0.1928
  134DOPE   C3B 1569   9.601   4.796  14.357 -0.3064  0.2905 -0.0688
  134DOPE   C4B 1570   9.481   4.804  13.899 -0.0635 -0.1260  0.0393
  135DOPE   NH3 1571  10.012   8.689  15.699 -0.0829  0.1861 -0.1617
  135DOPE   PO4 1572  10.175   8.401  15.610 -0.1998  0.3991  0.0435
  135DOPE   GL1 1573   9.927   8.316  15.350  0.1632 -0.0816  0.2448
  135DOPE   GL2 1574  10.073   8.116  15.169 -0.1749  0.0967  0.1581
  135DOPE   C1A 1575   9.632   8.387  14.978  0.2142 -0.0307 -0.0296
  135DOPE   D2A 1576   9.395   8.070  14.794  0.0163  0.1263 -0.0190
  135DOPE   C3A 1577   9.424   8.083  14.294  0.2200 -0.2501 -0.0515
  135DOPE   C4A 1578   9.077   8.065  13.926  0.1296  0.0704  0.1579
  135DOPE   C1B 1579   9.867   7.870  14.860  0.1039  0.2864 -0.0292
  135DOPE   D2B 1580   9.543   7.651  14.542 -0.2693  0.1925  0.2162
  135DOPE   C3B 1581   9.131   7.749  14.455 -0.1851  0.0737  0.1619
  135DOPE   C4B 1582   8.787   7.620  14.169  0.0624 -0.4121 -0.1269
  136DOPC   NC3 1583   2.915   0.061  16.126 -0.0784  0.1537 -0.2821
  136DOPC   PO4 1584   2.595  -0.074  15.917  0.1289 -0.1858  0.1896
  136DOPC   GL1 1585   2.561   0.254  15.799  0.0143  0.0177 -0.3094
  136DOPC   GL2 1586   2.253   0.420  15.822 -0.0720 -0.1570 -0.4039
  136DOPC   C1A 1587   2.532   0.519  15.416  0.4994  0.0125  0.0656
  136DOPC   D2A 1588   2.644   0.894  15.212 -0.1090 -0.0199 -0.1544
  136DOPC   C3A 1589   3.052   0.909  15.447 -0.0323 -0.1109 -0.0620
  136DOPC   C4A 1590   3.395   0.650  15.550 -0.2177  0.1161 -0.1549
  136DOPC   C1B 1591   2.014   0.227  15.528 -0.0155 -0.1187  0.2272
  136DOPC   D2B 1592   1.877   0.035  15.106  0.2416 -0.0809  0.2860
  136DOPC   C3B 1593   2.035   0.087  14.666  0.0105 -0.0162  0.2512
  136DOPC   C4B 1594   2.202   0.332  14.313  0.1344  0.1215  0.2287
  137DOPC   NC3 1595  10.982   4.543  15.612 -0.0340 -0.1388 -0.0214
  137DOPC   PO4 1596  10.607   4.492  15.588 -0.2571  0.0064  0.0101
  137DOPC   GL1 1597  10.748   4.295  15.273  0.4348  0.0034 -0.1487
  137DOPC   GL2 1598  10.536   4.123  15.160  0.0207 -0.0036 -0.0683
  137DOPC   C1A 1599  11.029   4.255  14.875  0.2143 -0.2505 -0.3845
  137DOPC   D2A 1600  11.301   4.381  14.524  0.0123 -0.0580  0.4969
  137DOPC   C3A 1601  11.469   3.957  14.484 -0.1875 -0.2696  0.0711
  137DOPC   C4A 1602  11.306   3.566  14.665 -0.0630 -0.0970 -0.0132
  137DOPC   C1B 1603  10.433   4.015  14.714 -0.2849 -0.2738  0.0217
  137DOPC   D2B 1604  10.180   4.078  14.359  0.1261 -0.0387  0.3124
  137DOPC   C3B 1605  10.214   3.979  13.913 -0.3406  0.0252 -0.2391
  137DOPC   C4B 1606  10.286   3.698  13.576  0.0384  0.1684 -0.4137
  138DOPE   NH3 1607   7.604   1.903  15.562 -0.2032  0.5161 -0.2265
  138DOPE   PO4 1608   7.649   2.140  15.486 -0.0651  0.1211 -0.0299
  138DOPE   GL1 1609   7.627   2.213  15.170 -0.1680 -0.0716  0.1283
  138DOPE   GL2 1610   7.764   2.103  14.913 -0.1656 -0.1040 -0.0062
  138DOPE   C1A 1611   7.283   2.308  14.820  0.3331  0.0253 -0.4504
  138DOPE   D2A 1612   6.847   2.205  14.716 -0.0523  0.0595  0.1141
  138DOPE   C3A 1613   6.854   2.034  14.304  0.1140  0.1770  0.0149
  138DOPE   C4A 1614   6.808   2.018  13.830  0.0601  0.2605 -0.1472
  138DOPE   C1B 1615   7.774   2.316  14.572 -0.0545 -0.0374  0.1756
  138DOPE   D2B 1616   7.664   2.598  14.230  0.3182 -0.2212  0.0908
  138DOPE   C3B 1617   7.905   2.996  14.214  0.1168  0.3985  0.1230
  138DOPE   C4B 1618   8.289   3.028  14.448  0.0412  0.2737 -0.0290
  139DOPE   NH3 1619  12.071   6.698  15.691 -0.1515  0.0130  0.1088
  139DOPE   PO4 1620  11.746   6.759  15.718 -0.0067  0.1887  0.0832
  139DOPE   GL1 1621  11.574   6.779  15.397  0.1211 -0.2397  0.0687
  139DOPE   GL2 1622  11.799   6.853  15.226  0.2158 -0.0355 -0.1168
  139DOPE   C1A 1623  11.416   6.651  14.959  0.2011  0.1979  0.0404
  139DOPE   D2A 1624  10.981   6.523  14.793 -0.1360 -0.0636  0.0432
  139DOPE   C3A 1625  10.749   6.645  14.410  0.1907  0.0839 -0.4748
  139DOPE   C4A 1626  10.448   6.740  14.129  0.1103  0.0375 -0.1875
  139DOPE   C1B 1627  11.740   6.969  14.828  0.1604 -0.0190  0.3039
  139DOPE   D2B 1628  11.834   6.960  14.338  0.0511  0.0247  0.1214
  139DOPE   C3B 1629  11.579   6.675  14.041  0.1690 -0.0036  0.2272
  139DOPE   C4B 1630  11.372   6.290  13.862  0.1652 -0.0816 -0.2207
  140DOPS   CNO 1631   1.812   5.495  16.327  0.0950  0.0926  0.0506
  140DOPS   PO4 1632   1.945   5.134  16.261 -0.3370 -0.2108 -0.0537
  140DOPS   GL1 1633   1.901   4.992  15.813 -0.1510  0.1786 -0.1544
  140DOPS   GL2 1634   1.642   4.994  15.775 -0.2980  0.1968  0.0765
  140DOPS   C1A 1635   1.923   5.066  15.348  0.2055 -0.2968  0.1360
  140DOPS   D2A 1636   1.840   5.394  15.074  0.2281 -0.1898  0.0116
  140DOPS   C3A 1637   1.563   5.445  14.728 -0.0592  0.1906 -0.2152
  140DOPS   C4A 1638   1.525   5.657  14.270  0.3494  0.3158 -0.4010
  140DOPS   C1B 1639   1.547   4.714  15.364 -0.1421  0.0638  0.2601
  140DOPS   D2B 1640   1.654   4.545  14.956  0.0305  0.1916 -0.2112
  140DOPS   C3B 1641   1.773   4.868  14.711  0.0627  0.1848 -0.3470
  140DOPS   C4B 1642   2.212   5.025  14.627  0.0971  0.0025 -0.2495
  141POSM   NC3 1643   4.532  10.757  15.833  0.1045 -0.2372 -0.2479
  141POSM   PO4 1644   4.407  11.121  15.967 -0.0830  0.0615  0.1479
  141POSM   AM1 1645   4.526  11.270  15.672 -0.1276 -0.4187  0.0160
  141POSM   AM2 1646   4.592  11.190  15.412 -0.1061  0.1641  0.1099
  141POSM   T1A 1647   4.556  11.676  15.358  0.1852  0.0983 -0.1721
  141POSM   C2A 1648   4.557  12.064  15.067 -0.1715 -0.1593  0.4321
  141POSM   C3A 1649   4.735  12.282  14.635 -0.0841 -0.2607  0.1997
  141POSM   C1B 1650   4.738  11.272  15.131  0.1829 -0.3392  0.0168
  141POSM   D2B 1651   4.859  11.239  14.712 -0.3177 -0.0319 -0.0210
  141POSM   C3B 1652   4.768  11.078  14.290 -0.2884 -0.1193 -0.0230
  141POSM   C4B 1653   4.803  10.797  13.902  0.2693  0.3705  0.1650
  142DOPC   NC3 1654   0.313   5.951  16.411  0.2326 -0.2861  0.0070
  142DOPC   PO4 1655   0.101   5.824  16.071 -0.0973  0.2666  0.2311
  142DOPC   GL1 1656  -0.020   5.981  15.738  0.0486 -0.0186  0.4919
  142DOPC   GL2 1657  -0.098   5.742  15.627 -0.0189  0.1469 -0.4290
  142DOPC   C1A 1658   0.331   6.160  15.523 -0.1909 -0.2196 -0.0816
  142DOPC   D2A 1659   0.550   6.462  15.228 -0.0874  0.3848 -0.0776
  142DOPC   C3A 1660   0.499   6.526  14.808  0.0724  0.0793  0.1129
  142DOPC   C4A 1661   0.525   6.435  14.363 -0.1017  0.0234  0.2522
  142DOPC   C1B 1662   0.242   5.725  15.330 -0.0350 -0.3322  0.1487
  142DOPC   D2B 1663   0.451   5.961  15.012  0.3724 -0.2925  0.1663
  142DOPC   C3B 1664   0.546   5.767  14.587 -0.0044 -0.0721  0.0210
  142DOPC   C4B 1665   0.851   5.875  14.231 -0.1759  0.2459  0.1111
  143DOPC   NC3 1666   3.583   3.806  15.434 -0.3175  0.0284 -0.1021
  143DOPC   PO4 1667   3.957   3.780  15.516  0.2045 -0.0026  0.1497
  143DOPC   GL1 1668   4.068   3.887  15.171 -0.3475  0.0675  0.0855
  143DOPC   GL2 1669   3.901   3.757  15.014 -0.1216  0.0249  0.0311
  143DOPC   C1A 1670   4.351   3.886  14.789 -0.2280 -0.0138 -0.1392
  143DOPC   D2A 1671   4.544   3.804  14.422  0.0315 -0.0659  0.0264
  143DOPC   C3A 1672   4.470   3.815  13.980  0.0784 -0.2091 -0.1159
  143DOPC   C4A 1673   4.130   4.004  13.767  0.0852  0.4375 -0.3209
  143DOPC   C1B 1674   3.841   3.493  14.686  0.0264 -0.0287  0.0395
  143DOPC   D2B 1675   4.022   3.319  14.289  0.0846  0.4030 -0.2568
  143DOPC   C3B 1676   4.381   3.306  14.059  0.0139  0.0504  0.1641
  143DOPC   C4B 1677   4.509   3.094  13.655  0.1022  0.0228  0.0349
  144DOPS   CNO 1678   3.255   1.596  16.146  0.2530 -0.0698 -0.3707
  144DOPS   PO4 1679   3.638   1.650  16.140 -0.3417  0.0452 -0.0166
  144DOPS   GL1 1680   3.553   1.384  15.898 -0.2651 -0.0921  0.1587
  144DOPS   GL2 1681   3.740   1.167  15.943  0.0252 -0.1297 -0.2191
  144DOPS   C1A 1682   3.495   1.145  15.537  0.0532  0.2252  0.0311
  144DOPS   D2A 1683   3.563   0.959  15.108 -0.0237  0.1354  0.0713
  144DOPS   C3A 1684   3.693   0.545  15.055  0.1725 -0.1980 -0.1298
  144DOPS   C4A 1685   3.807   0.318  15.424 -0.1316  0.0583  0.2337
  144DOPS   C1B 1686   3.294   1.018  15.949  0.0080  0.1204  0.1767
  144DOPS   D2B 1687   2.887   1.199  15.762 -0.2189  0.2166 -0.0571
  144DOPS   C3B 1688   2.895   1.415  15.342 -0.0798 -0.2441 -0.1042
  144DOPS   C4B 1689   3.073   1.525  14.898 -0.0378 -0.0595  0.1691
  145DOPC   NC3 1690   9.911  11.801  16.428  0.2621 -0.0212 -0.0681
  145DOPC   PO4 1691   9.969  11.445  16.276  0.0166  0.1824  0.0506
  145DOPC   GL1 1692  10.283  11.558  15.971  0.0199 -0.0715  0.0552
  145DOPC   GL2 1693  10.265  11.507  15.727  0.4652  0.0829  0.0292
  145DOPC   C1A 1694  10.518  11.903  15.796  0.1592 -0.1622  0.0917
  145DOPC   D2A 1695  10.291  12.232  15.552 -0.3715 -0.0688 -0.1463
  145DOPC   C3A 1696  10.061  12.161  15.136  0.0733 -0.3270 -0.1863
  145DOPC   C4A 1697  10.272  12.094  14.723 -0.0355  0.1408  0.0221
  145DOPC   C1B 1698   9.937  11.867  15.632  0.2738 -0.0314  0.2198
  145DOPC   D2B 1699   9.477  11.959  15.605  0.0504 -0.1210 -0.0528
  145DOPC   C3B 1700   9.363  12.026  15.124  0.0313 -0.2418 -0.1718
  145DOPC   C4B 1701   9.674  12.119  14.861 -0.2059  0.1517 -0.0884
  146POSM   NC3 1702   8.773   4.714  16.092  0.0647  0.0364  0.0264
  146POSM   PO4 1703   9.093   4.831  15.878 -0.2414  0.0478  0.0129
  146POSM   AM1 1704   9.010   4.763  15.555  0.0071  0.1635 -0.1085
  146POSM   AM2 1705   8.930   4.938  15.351  0.0689 -0.2853  0.2080
  146POSM   T1A 1706   9.017   4.470  15.145 -0.1392  0.0741 -0.2720
  146POSM   C2A 1707   9.130   4.115  14.872 -0.1177 -0.0353  0.0572
  146POSM   C3A 1708   9.337   3.827  14.587 -0.3547 -0.4487 -0.2598
  146POSM   C1B 1709   8.699   5.191  15.320  0.1578  0.2741  0.0714
  146POSM   D2B 1710   8.585   5.506  14.963 -0.0310 -0.1590 -0.1156
  146POSM   C3B 1711   8.347   5.726  14.647 -0.4307  0.3067  0.2570
  146POSM   C4B 1712   8.092   5.862  14.280 -0.0876 -0.0453 -0.1306
  147DOPC   NC3 1713   6.290   1.275  15.948 -0.0058  0.3087  0.0008
  147DOPC   PO4 1714   6.154   0.910  15.890 -0.0479 -0.3049  0.1592
  147DOPC   GL1 1715   6.108   0.981  15.537  0.0190  0.2394 -0.2565
  147DOPC   GL2 1716   6.169   1.203  15.411  0.4977  0.4050  0.2260
  147DOPC   C1A 1717   6.079   0.710  15.135 -0.0248  0.0866 -0.0567
  147DOPC   D2A 1718   6.067   0.218  14.992 -0.2772 -0.3448 -0.0214
  147DOPC   C3A 1719   5.749   0.233  14.677 -0.1814 -0.1750 -0.0617
  147DOPC   C4A 1720   5.585   0.142  14.324  0.1169 -0.0991  0.1749
  147DOPC   C1B 1721   6.175   1.315  14.948 -0.1963  0.0613  0.1703
  147DOPC   D2B 1722   6.372   1.016  14.728  0.0247 -0.1309  0.2141
  147DOPC   C3B 1723   6.716   1.176  14.448 -0.1550 -0.1173  0.1158
  147DOPC   C4B 1724   6.719   1.500  14.196 -0.2595  0.0757 -0.1420
  148DOPC   NC3 1725   9.351   0.575  15.693 -0.2203 -0.1835 -0.0068
  148DOPC   PO4 1726   9.314   0.197  15.701 -0.0423  0.0749 -0.1838
  148DOPC   GL1 1727   9.277   0.198  15.337  0.1916  0.1738 -0.4355
  148DOPC   GL2 1728   9.058  -0.020  15.241  0.0526 -0.1575  0.0752
  148DOPC   C1A 1729   9.105   0.361  14.916 -0.2705 -0.3006  0.2212
  148DOPC   D2A 1730   9.238   0.255  14.456 -0.1839 -0.0591  0.2163
  148DOPC   C3A 1731   9.368  -0.135  14.253 -0.0562 -0.1053 -0.0385
  148DOPC   C4A 1732   9.299  -0.543  14.031 -0.4324  0.1951 -0.1536
  148DOPC   C1B 1733   8.835  -0.076  14.844 -0.1225 -0.1626  0.2841
  148DOPC   D2B 1734   8.872  -0.113  14.361  0.0396  0.1262  0.0740
  148DOPC   C3B 1735   9.037   0.156  14.012  0.4269  0.3273 -0.0193
  148DOPC   C4B 1736   9.169   0.364  13.554  0.0140 -0.3121  0.2345
  149DOPE   NH3 1737   6.401  34.310  15.612  0.1934  0.0238 -0.0366
  149DOPE   PO4 1738   6.723  34.260  15.605 -0.1252  0.0534 -0.0155
  149DOPE   GL1 1739   6.733  34.276  15.250 -0.0501 -0.0837  0.1366
  149DOPE   GL2 1740   6.975  34.458  15.182 -0.0079  0.1079  0.1685
  149DOPE   C1A 1741   6.713  34.217  14.774  0.0077  0.0595 -0.3001
  149DOPE   D2A 1742   6.701  33.945  14.440 -0.2766  0.2386 -0.0716
  149DOPE   C3A 1743   6.772  34.013  13.950  0.1714  0.3012 -0.1134
  149DOPE   C4A 1744   6.776  34.255  13.528 -0.1086  0.2235 -0.1228
  149DOPE   C1B 1745   6.914  34.744  14.834  0.0889  0.1232  0.1206
  149DOPE   D2B 1746   6.643  34.955  14.518  0.3418  0.0253 -0.3082
  149DOPE   C3B 1747   6.440  34.993  14.079 -0.0767 -0.1509  0.0568
  149DOPE   C4B 1748   6.357  35.022  13.582  0.0849  0.2395  0.3907
  150POSM   NC3 1749  10.958   1.075  15.782 -0.2723  0.0209 -0.0100
  150POSM   PO4 1750  10.596   1.328  15.791  0.0105 -0.3521  0.1673
  150POSM   AM1 1751  10.593   1.231  15.479  0.1679 -0.0877  0.3003
  150POSM   AM2 1752  10.756   1.228  15.295  0.1031 -0.0984  0.1134
  150POSM   T1A 1753  10.447   0.920  15.107 -0.0259  0.2392  0.2576
  150POSM   C2A 1754  10.475   0.809  14.648 -0.0077 -0.2797  0.0053
  150POSM   C3A 1755  10.434   0.737  14.152  0.1244  0.0454 -0.2158
  150POSM   C1B 1756  10.659   1.352  14.995 -0.2293  0.1722 -0.0803
  150POSM   D2B 1757  10.266   1.252  14.720 -0.1591 -0.2615 -0.1099
  150POSM   C3B 1758  10.101   1.530  14.385  0.0850 -0.1041 -0.0817
  150POSM   C4B 1759  10.087   1.425  13.901  0.0416 -0.1988  0.1444
  151POSM   NC3 1760   1.469   6.991  16.121  0.0234  0.0188 -0.0782
  151POSM   PO4 1761   1.654   7.318  16.007  0.0854 -0.1120  0.0510
  151POSM   AM1 1762   1.818   7.157  15.796 -0.0192 -0.0540 -0.1904
  151POSM   AM2 1763   2.082   7.130  15.663  0.0970 -0.0650  0.0444
  151POSM   T1A 1764   1.739   7.167  15.300 -0.2840 -0.1902 -0.0391
  151POSM   C2A 1765   1.879   7.313  14.868 -0.1295 -0.1038 -0.3456
  151POSM   C3A 1766   1.764   7.477  14.445  0.1249 -0.0354 -0.0319
  151POSM   C1B 1767   2.194   7.095  15.362 -0.4104 -0.0453 -0.1595
  151POSM   D2B 1768   2.331   6.849  14.996 -0.1544 -0.0557 -0.2825
  151POSM   C3B 1769   2.657   7.126  14.730 -0.0541 -0.4236  0.2357
  151POSM   C4B 1770   2.689   7.386  14.336 -0.1609  0.1264  0.2922
  152DOPE   NH3 1771   1.306   2.232  16.011 -0.0457 -0.2124  0.2754
  152DOPE   PO4 1772   1.616   2.165  16.072  0.0060  0.2231  0.0419
  152DOPE   GL1 1773   1.576   2.167  15.618  0.2921 -0.0239 -0.0241
  152DOPE   GL2 1774   1.718   2.338  15.493  0.0382  0.0107  0.2294
  152DOPE   C1A 1775   1.413   1.794  15.363  0.3000 -0.1597  0.1196
  152DOPE   D2A 1776   1.495   1.525  15.013 -0.0459  0.2170 -0.0319
  152DOPE   C3A 1777   1.587   1.669  14.581  0.2545  0.2704  0.1480
  152DOPE   C4A 1778   1.674   1.644  14.137 -0.1124  0.1913 -0.1544
  152DOPE   C1B 1779   1.795   2.327  15.037  0.0133 -0.0686 -0.1813
  152DOPE   D2B 1780   1.822   2.065  14.649  0.0198 -0.1570 -0.2672
  152DOPE   C3B 1781   1.972   2.262  14.219  0.1902  0.0704  0.3809
  152DOPE   C4B 1782   2.324   2.169  13.983  0.0698  0.1961  0.0657
  153POSM   NC3 1783   0.982   3.026  15.945  0.4457  0.4414 -0.1800
  153POSM   PO4 1784   1.043   2.639  16.138 -0.2938 -0.0776 -0.2158
  153POSM   AM1 1785   1.018   2.563  15.801 -0.0533  0.1210 -0.0113
  153POSM   AM2 1786   0.839   2.605  15.593  0.0142  0.1734  0.1812
  153POSM   T1A 1787   0.996   2.125  15.559  0.1551  0.2282 -0.0830
  153POSM   C2A 1788   0.928   1.705  15.636 -0.2011 -0.0852 -0.1409
  153POSM   C3A 1789   1.094   1.272  15.744  0.1194 -0.0486 -0.0334
  153POSM   C1B 1790   0.851   2.526  15.297  0.2175  0.0052 -0.1278
  153POSM   D2B 1791   0.988   2.500  14.882  0.0008 -0.0938 -0.0241
  153POSM   C3B 1792   1.445   2.672  14.832  0.1570 -0.2470  0.1536
  153POSM   C4B 1793   1.774   2.590  14.491 -0.0446  0.0403  0.0452
  154DOPE   NH3 1794   4.232  10.235  16.087  0.1687 -0.0882 -0.0797
  154DOPE   PO4 1795   4.114  10.413  15.862 -0.0118 -0.0577 -0.0188
  154DOPE   GL1 1796   4.158  10.569  15.519 -0.3478  0.2382  0.2903
  154DOPE   GL2 1797   4.123  10.862  15.541  0.0341 -0.1155 -0.4402
  154DOPE   C1A 1798   4.227  10.613  15.069  0.0202 -0.1654 -0.2923
  154DOPE   D2A 1799   4.325  10.966  14.746 -0.0233 -0.2157 -0.1115
  154DOPE   C3A 1800   4.307  10.973  14.291  0.3813 -0.0144  0.1213
  154DOPE   C4A 1801   4.276  10.841  13.840 -0.0858 -0.1217 -0.1839
  154DOPE   C1B 1802   4.180  11.145  15.246  0.3513  0.3166  0.0463
  154DOPE   D2B 1803   4.173  11.533  14.924  0.0471  0.0817  0.3629
  154DOPE   C3B 1804   4.444  11.460  14.522  0.0689 -0.1031 -0.3221
  154DOPE   C4B 1805   4.460  11.430  14.012  0.0941 -0.2266  0.1332
  155POSM   NC3 1806  34.408   5.023  16.148  0.0873 -0.0700 -0.1058
  155POSM   PO4 1807  34.764   5.054  16.312  0.0857 -0.0050 -0.0062
  155POSM   AM1 1808  34.922   4.972  16.029  0.3078 -0.4346 -0.0245
  155POSM   AM2 1809  35.115   4.823  15.922  0.2104 -0.2142 -0.1352
  155POSM   T1A 1810  34.758   4.963  15.547  0.3531 -0.0402  0.0861
  155POSM   C2A 1811  34.691   5.177  15.127  0.1573 -0.0105  0.0547
  155POSM   C3A 1812  34.553   5.304  14.711 -0.4690 -0.0229 -0.0665
  155POSM   C1B 1813  35.257   4.747  15.611  0.1212 -0.0286 -0.1054
  155POSM   D2B 1814  35.065   4.820  15.221 -0.1655  0.2359  0.1892
  155POSM   C3B 1815  35.270   4.600  14.905  0.1389  0.0243  0.1912
  155POSM   C4B 1816  35.216   4.604  14.430  0.2424 -0.2267  0.6621
  156DOPS   CNO 1817  12.047   2.908  15.174 -0.0533  0.0587  0.3558
  156DOPS   PO4 1818  11.795   2.767  15.419  0.3949 -0.0363 -0.0943
  156DOPS   GL1 1819  11.762   2.521  15.107 -0.1478  0.0513 -0.0025
  156DOPS   GL2 1820  12.010   2.387  15.105 -0.2119 -0.2159  0.2514
  156DOPS   C1A 1821  11.753   2.497  14.623 -0.2448  0.0117  0.0440
  156DOPS   D2A 1822  11.702   2.150  14.325 -0.5089  0.3002 -0.1278
  156DOPS   C3A 1823  11.730   1.765  14.075  0.0627 -0.2724  0.0030
  156DOPS   C4A 1824  11.764   1.621  13.632  0.2158 -0.1610 -0.0604
  156DOPS   C1B 1825  12.160   2.197  14.732 -0.4261 -0.2375 -0.3000
  156DOPS   D2B 1826  12.011   1.766  14.520  0.0689  0.1515 -0.3762
  156DOPS   C3B 1827  12.231   1.419  14.670 -0.2910 -0.2459  0.2218
  156DOPS   C4B 1828  12.370   1.035  14.500 -0.1430 -0.0421 -0.0065
  157DOPC   NC3 1829   5.449  10.293  15.545 -0.2365  0.1736 -0.0990
  157DOPC   PO4 1830   5.107  10.064  15.558 -0.0226  0.2664 -0.0056
  157DOPC   GL1 1831   5.232   9.847  15.228  0.2470  0.0373 -0.0133
  157DOPC   GL2 1832   4.984   9.938  15.045 -0.0017  0.1064 -0.1420
  157DOPC   C1A 1833   5.353   9.729  14.764  0.1488  0.0533  0.0283
  157DOPC   D2A 1834   5.654   9.613  14.445  0.2400 -0.1061  0.3557
  157DOPC   C3A 1835   6.001   9.763  14.116  0.1446 -0.1377  0.0817
  157DOPC   C4A 1836   6.330  10.100  13.956 -0.1168 -0.3671  0.0222
  157DOPC   C1B 1837   4.951   9.982  14.614  0.0648  0.2489  0.2785
  157DOPC   D2B 1838   4.638  10.147  14.334  0.3119  0.4782  0.0607
  157DOPC   C3B 1839   4.483  10.409  14.017 -0.0565  0.0406 -0.0339
  157DOPC   C4B 1840   4.602  10.353  13.578 -0.0243  0.2283  0.1407
  158DOPS   CNO 1841   0.567  10.056  16.565  0.0688  0.1675  0.0631
  158DOPS   PO4 1842   0.427  10.079  16.240  0.1711  0.2217 -0.0062
  158DOPS   GL1 1843   0.437  10.384  15.989 -0.0174 -0.5292  0.1129
  158DOPS   GL2 1844   0.161  10.616  16.032  0.1629 -0.2693 -0.2738
  158DOPS   C1A 1845   0.398  10.210  15.598 -0.1701  0.0482 -0.0954
  158DOPS   D2A 1846   0.280  10.206  15.103 -0.2686 -0.1126  0.1222
  158DOPS   C3A 1847   0.456  10.547  14.786  0.1259 -0.2356  0.1451
  158DOPS   C4A 1848   0.795  10.744  14.691 -0.2776 -0.0336 -0.4169
  158DOPS   C1B 1849   0.099  10.889  15.687  0.0005  0.0392  0.1398
  158DOPS   D2B 1850   0.257  11.164  15.365 -0.0575 -0.1364  0.0253
  158DOPS   C3B 1851   0.581  11.152  15.053  0.4426  0.1626  0.2927
  158DOPS   C4B 1852   0.692  11.239  14.601 -0.1373 -0.0714 -0.4969
  159DOPE   NH3 1853   9.392   9.103  15.393  0.1305  0.2082 -0.0140
  159DOPE   PO4 1854   9.390   9.413  15.437 -0.0046  0.0599  0.2365
  159DOPE   GL1 1855   9.609   9.588  15.199  0.3149 -0.1086  0.2383
  159DOPE   GL2 1856   9.466   9.517  14.936 -0.2903  0.0961  0.0773
  159DOPE   C1A 1857   9.807   9.873  14.901  0.1983  0.0570 -0.0349
  159DOPE   D2A 1858  10.267   9.902  14.763 -0.0377 -0.2163  0.2492
  159DOPE   C3A 1859  10.291   9.943  14.319 -0.0260  0.4655  0.2607
  159DOPE   C4A 1860  10.214  10.126  13.903 -0.1128  0.0408  0.0812
  159DOPE   C1B 1861   9.523   9.228  14.577  0.1500 -0.0841  0.0443
  159DOPE   D2B 1862   9.223   9.123  14.234  0.2754  0.2963  0.2319
  159DOPE   C3B 1863   9.038   8.966  13.872  0.2148 -0.3504 -0.2077
  159DOPE   C4B 1864   8.890   8.778  13.487 -0.0593  0.3154  0.0364
  160DOPC   NC3 1865   1.824   6.213  16.683  0.4294  0.0676  0.1797
  160DOPC   PO4 1866   1.726   6.139  16.343  0.3330 -0.2948  0.3704
  160DOPC   GL1 1867   1.773   6.288  16.040 -0.1680 -0.2579 -0.1734
  160DOPC   GL2 1868   1.671   6.600  15.981 -0.1540 -0.0991 -0.1378
  160DOPC   C1A 1869   1.407   6.237  15.742  0.0888  0.2725 -0.1001
  160DOPC   D2A 1870   1.304   6.409  15.294  0.0877  0.1894 -0.2904
  160DOPC   C3A 1871   1.420   6.498  14.828 -0.1172 -0.1805 -0.1742
  160DOPC   C4A 1872   1.441   6.595  14.400  0.2288 -0.0281  0.0365
  160DOPC   C1B 1873   1.697   6.777  15.564 -0.2873  0.0582 -0.1313
  160DOPC   D2B 1874   1.797   6.647  15.137 -0.0074 -0.0323  0.1141
  160DOPC   C3B 1875   1.829   6.215  15.034  0.1550 -0.1417  0.2150
  160DOPC   C4B 1876   2.181   5.924  15.042 -0.0872  0.1560 -0.2755
  161DOPS   CNO 1877  33.799   2.702  15.936 -0.1899 -0.0576 -0.0332
  161DOPS   PO4 1878  34.107   2.536  16.124  0.0805 -0.1384 -0.1564
  161DOPS   GL1 1879  34.227   2.595  15.828 -0.0061 -0.1993  0.1980
  161DOPS   GL2 1880  34.107   2.406  15.636 -0.0239 -0.2286  0.1961
  161DOPS   C1A 1881  34.559   2.646  15.433 -0.0734  0.2324 -0.2922
  161DOPS   D2A 1882  34.687   2.881  15.054  0.0941 -0.1914 -0.1524
  161DOPS   C3A 1883  34.353   3.147  14.897 -0.1182 -0.3296 -0.0773
  161DOPS   C4A 1884  34.511   3.578  14.673 -0.2942 -0.1375 -0.3647
  161DOPS   C1B 1885  34.218   2.356  15.201 -0.2550 -0.1338  0.3456
  161DOPS   D2B 1886  34.489   2.441  14.842 -0.0806 -0.1358  0.3148
  161DOPS   C3B 1887  34.354   2.760  14.597  0.2208 -0.3337  0.0378
  161DOPS   C4B 1888  34.489   3.185  14.390 -0.0043 -0.0430  0.3294
  162DOPC   NC3 1889   4.910   2.115  15.694  0.1761 -0.1596  0.0761
  162DOPC   PO4 1890   4.636   2.377  15.684 -0.0591 -0.2741  0.2484
  162DOPC   GL1 1891   4.545   2.169  15.270  0.0249 -0.3755 -0.0676
  162DOPC   GL2 1892   4.785   2.235  15.127  0.1385 -0.0432  0.2117
  162DOPC   C1A 1893   4.181   2.014  15.105 -0.2352 -0.1782  0.1981
  162DOPC   D2A 1894   3.792   1.896  14.908  0.2551 -0.0658  0.0839
  162DOPC   C3A 1895   3.611   1.753  14.582 -0.1890 -0.0431  0.2701
  162DOPC   C4A 1896   3.543   1.823  14.125  0.0859 -0.2522 -0.0929
  162DOPC   C1B 1897   4.502   2.447  14.844  0.0706  0.1984 -0.1971
  162DOPC   D2B 1898   4.382   2.622  14.436  0.2973 -0.1766  0.1488
  162DOPC   C3B 1899   3.886   2.678  14.437  0.1038 -0.1350  0.0650
  162DOPC   C4B 1900   3.611   2.294  14.358  0.2016  0.2902  0.2751
  163DOPE   NH3 1901  10.335   9.068  15.832 -0.1080 -0.1141  0.1217
  163DOPE   PO4 1902  10.280   9.195  15.553  0.0651  0.0391 -0.1299
  163DOPE   GL1 1903  10.308   9.267  15.177 -0.0538 -0.1513 -0.1026
  163DOPE   GL2 1904  10.094   9.428  15.093 -0.2058  0.3253 -0.0398
  163DOPE   C1A 1905  10.347   8.968  14.838 -0.5173 -0.0004  0.0327
  163DOPE   D2A 1906  10.473   8.654  14.507 -0.2951 -0.2915  0.0194
  163DOPE   C3A 1907  10.098   8.488  14.207 -0.0245 -0.5244 -0.4269
  163DOPE   C4A 1908   9.982   8.351  13.803 -0.0584  0.0579 -0.1387
  163DOPE   C1B 1909   9.994   9.399  14.654  0.2621 -0.1079  0.2259
  163DOPE   D2B 1910   9.914   9.303  14.206  0.1637  0.0800 -0.1529
  163DOPE   C3B 1911   9.994   9.288  13.756 -0.0622 -0.1116 -0.2207
  163DOPE   C4B 1912  10.003   9.577  13.389  0.1584 -0.2425  0.1984
  164POSM   NC3 1913   6.093   9.013  16.188 -0.2131 -0.0960 -0.1661
  164POSM   PO4 1914   6.315   9.349  16.184  0.3413 -0.0265  0.1688
  164POSM   AM1 1915   6.442   9.260  15.874  0.3751 -0.3594  0.0046
  164POSM   AM2 1916   6.481   9.416  15.632  0.3377 -0.1254 -0.2039
  164POSM   T1A 1917   6.509   8.965  15.513  0.1300 -0.0486  0.1056
  164POSM   C2A 1918   6.432   8.683  15.179 -0.0039  0.0872 -0.1507
  164POSM   C3A 1919   6.420   8.691  14.709 -0.1005  0.1334 -0.2457
  164POSM   C1B 1920   6.497   9.472  15.337 -0.0236 -0.0639  0.0547
  164POSM   D2B 1921   6.557   9.545  14.854 -0.0125  0.0843  0.0744
  164POSM   C3B 1922   6.551   9.979  14.740 -0.0481  0.1057  0.1011
  164POSM   C4B 1923   6.660  10.212  14.371  0.1395 -0.3168 -0.2174
  165DOPE   NH3 1924   4.710   9.732  15.579 -0.2475  0.1010 -0.3396
  165DOPE   PO4 1925   4.500   9.780  15.805  0.1173 -0.5039  0.1487
  165DOPE   GL1 1926   4.224   9.670  15.562 -0.1353  0.0918 -0.0312
  165DOPE   GL2 1927   4.274   9.430  15.510 -0.0005 -0.1512  0.2307
  165DOPE   C1A 1928   4.300   9.714  15.100  0.5019  0.2259 -0.4002
  165DOPE   D2A 1929   4.347   9.910  14.660  0.2024 -0.1302 -0.2909
  165DOPE   C3A 1930   4.646   9.528  14.522 -0.0445 -0.0585 -0.0989
  165DOPE   C4A 1931   4.545   9.185  14.178 -0.0142  0.1689 -0.0861
  165DOPE   C1B 1932   4.504   9.221  15.119 -0.0471 -0.1463  0.1662
  165DOPE   D2B 1933   4.397   9.087  14.694 -0.2141 -0.1080 -0.3970
  165DOPE   C3B 1934   4.423   8.676  14.463 -0.1031  0.0949  0.1136
  165DOPE   C4B 1935   4.575   8.626  14.045  0.0301 -0.3226  0.0835
  166POSM   NC3 1936   6.912   9.176  15.706 -0.1747 -0.1115  0.1482
  166POSM   PO4 1937   7.303   9.009  15.701 -0.4837  0.2511  0.0378
  166POSM   AM1 1938   7.469   9.191  15.446 -0.3857  0.0806 -0.1604
  166POSM   AM2 1939   7.731   9.312  15.374 -0.2540 -0.3276  0.1232
  166POSM   T1A 1940   7.508   9.348  14.970 -0.0510  0.0067  0.0959
  166POSM   C2A 1941   7.258   9.220  14.605  0.0147  0.0743 -0.2162
  166POSM   C3A 1942   7.012   9.394  14.292  0.1808 -0.1903 -0.1647
  166POSM   C1B 1943   7.963   9.242  15.120  0.1724 -0.0087 -0.0056
  166POSM   D2B 1944   8.163   9.094  14.702 -0.0159 -0.3113  0.1378
  166POSM   C3B 1945   8.308   8.872  14.415  0.0245  0.1684 -0.0003
  166POSM   C4B 1946   8.370   8.381  14.288  0.1436  0.0367 -0.1217
  167DOPC   NC3 1947   8.908   5.329  15.827  0.1712 -0.1440  0.1218
  167DOPC   PO4 1948   8.757   5.223  16.163 -0.1544 -0.0239  0.0119
  167DOPC   GL1 1949   8.445   5.267  15.865 -0.1799  0.4164 -0.4057
  167DOPC   GL2 1950   8.492   5.008  15.703  0.2583  0.2013  0.0557
  167DOPC   C1A 1951   8.140   5.356  15.550 -0.2683  0.1648 -0.0610
  167DOPC   D2A 1952   8.100   5.343  15.060  0.0296  0.0227  0.0269
  167DOPC   C3A 1953   8.348   5.135  14.803 -0.2221  0.2547 -0.3921
  167DOPC   C4A 1954   8.448   5.001  14.383 -0.1259 -0.0903  0.2224
  167DOPC   C1B 1955   8.220   4.940  15.322  0.0658 -0.1478  0.0603
  167DOPC   D2B 1956   8.001   4.844  14.960  0.0561 -0.0366 -0.0209
  167DOPC   C3B 1957   7.929   5.058  14.495 -0.0115  0.0851  0.3115
  167DOPC   C4B 1958   8.127   5.362  14.163  0.1749  0.1293 -0.0627
  168DOPE   NH3 1959   6.294  10.813  16.411 -0.0087 -0.1389 -0.3413
  168DOPE   PO4 1960   6.309  10.528  16.307  0.2551  0.0256 -0.4243
  168DOPE   GL1 1961   6.263  10.403  15.814  0.1280 -0.1736 -0.0160
  168DOPE   GL2 1962   6.422  10.151  15.922  0.1228  0.0096  0.1350
  168DOPE   C1A 1963   6.385  10.701  15.435 -0.0710 -0.0393  0.0115
  168DOPE   D2A 1964   6.081  10.720  15.056 -0.0864 -0.0366 -0.3086
  168DOPE   C3A 1965   6.268  10.511  14.686 -0.0949  0.2395  0.3804
  168DOPE   C4A 1966   6.319  10.566  14.210 -0.0397 -0.1822  0.1275
  168DOPE   C1B 1967   6.698  10.364  15.605 -0.0897  0.0040  0.0184
  168DOPE   D2B 1968   6.971  10.509  15.256  0.0209  0.0570  0.0440
  168DOPE   C3B 1969   6.873  10.551  14.817 -0.0617  0.0811 -0.0532
  168DOPE   C4B 1970   6.715  10.837  14.531 -0.1018  0.1381  0.2086
  169POSM   NC3 1971   7.157   1.092  15.338 -0.0407 -0.4206 -0.1157
  169POSM   PO4 1972   7.031   0.704  15.403 -0.2520  0.1814  0.1411
  169POSM   AM1 1973   7.047   0.643  15.105 -0.0376  0.2892  0.2064
  169POSM   AM2 1974   7.250   0.810  14.938  0.1603  0.0707  0.0325
  169POSM   T1A 1975   7.134   0.419  14.600 -0.2084  0.2723  0.2311
  169POSM   C2A 1976   7.377   0.168  14.393  0.5116  0.1284  0.0076
  169POSM   C3A 1977   7.534   0.167  13.942  0.1051 -0.2923 -0.0452
  169POSM   C1B 1978   7.243   0.891  14.595 -0.0815 -0.2852  0.0749
  169POSM   D2B 1979   7.319   0.627  14.146 -0.2052 -0.3361 -0.3317
  169POSM   C3B 1980   7.016   0.247  14.084 -0.0251 -0.1902 -0.2046
  169POSM   C4B 1981   6.727  -0.005  13.849  0.0909  0.3960  0.1773
  170DOPE   NH3 1982   9.748  10.673  15.777 -0.1178  0.1648 -0.2319
  170DOPE   PO4 1983   9.850  10.463  15.529 -0.3264 -0.1272 -0.1518
  170DOPE   GL1 1984   9.585  10.637  15.201 -0.1100  0.1136  0.0580
  170DOPE   GL2 1985   9.656  10.459  15.009 -0.3560  0.1958 -0.2702
  170DOPE   C1A 1986   9.360  10.749  14.807  0.3915 -0.0519 -0.1235
  170DOPE   D2A 1987   9.283  10.494  14.396 -0.1847  0.0702  0.1651
  170DOPE   C3A 1988   9.452  10.136  14.184 -0.2360  0.0032 -0.0592
  170DOPE   C4A 1989   9.212   9.946  13.845 -0.0313 -0.1331  0.1675
  170DOPE   C1B 1990   9.725  10.285  14.601  0.0117 -0.2845 -0.1651
  170DOPE   D2B 1991   9.888  10.367  14.191 -0.0878 -0.3335  0.1183
  170DOPE   C3B 1992   9.589  10.640  13.921 -0.1982 -0.2425  0.1606
  170DOPE   C4B 1993   9.563  11.084  13.885  0.2565 -0.1704 -0.3851
  171DOPE   NH3 1994   0.335   4.143  15.854  0.3300  0.2953 -0.1038
  171DOPE   PO4 1995   0.568   4.251  16.056 -0.1936  0.2086 -0.1406
  171DOPE   GL1 1996   0.744   4.165  15.672  0.1291  0.0136 -0.4917
  171DOPE   GL2 1997   0.862   3.928  15.641  0.1334  0.0340  0.0687
  171DOPE   C1A 1998   0.860   4.356  15.303 -0.0065 -0.0952  0.2328
  171DOPE   D2A 1999   1.024   4.571  14.946  0.1281  0.1191  0.3824
  171DOPE   C3A 2000   0.934   4.391  14.546  0.1256 -0.2579 -0.1068
  171DOPE   C4A 2001   0.710   4.085  14.360  0.1167  0.3103  0.0479
  171DOPE   C1B 2002   1.166   3.787  15.286 -0.1393 -0.0009  0.0084
  171DOPE   D2B 2003   1.381   3.674  14.908 -0.1200  0.0895 -0.1492
  171DOPE   C3B 2004   1.816   3.742  14.755 -0.0052 -0.0658  0.1741
  171DOPE   C4B 2005   2.248   3.812  14.894  0.0668  0.1562 -0.1651
  172DOPE   NH3 2006   8.994   6.979  16.253  0.0778  0.0355  0.0840
  172DOPE   PO4 2007   9.017   6.996  15.977 -0.2224  0.2721 -0.1388
  172DOPE   GL1 2008   9.050   6.944  15.592  0.0744  0.2961  0.1215
  172DOPE   GL2 2009   8.842   6.725  15.494 -0.1192  0.0642 -0.1326
  172DOPE   C1A 2010   8.894   7.189  15.193 -0.2295  0.0853  0.3693
  172DOPE   D2A 2011   8.685   7.459  14.822  0.0365  0.3595  0.0728
  172DOPE   C3A 2012   8.212   7.500  14.816 -0.1236  0.2697 -0.2701
  172DOPE   C4A 2013   7.723   7.627  14.800  0.1915  0.1037 -0.0539
  172DOPE   C1B 2014   8.529   6.748  15.203  0.1945  0.2582 -0.0332
  172DOPE   D2B 2015   8.246   6.977  14.956 -0.0988 -0.0335  0.1340
  172DOPE   C3B 2016   8.444   7.125  14.590 -0.0144 -0.1135 -0.1379
  172DOPE   C4B 2017   8.462   7.132  14.126 -0.0370  0.4771 -0.0793
  173DOPE   NH3 2018   2.068   1.251  16.544  0.0963 -0.0354 -0.2024
  173DOPE   PO4 2019   1.840   1.014  16.601  0.0663 -0.1426  0.0827
  173DOPE   GL1 2020   1.732   0.973  16.235  0.1086 -0.2026  0.0152
  173DOPE   GL2 2021   2.042   1.074  16.075 -0.0519 -0.2222  0.1467
  173DOPE   C1A 2022   1.302   0.907  15.987  0.1092  0.2652 -0.0242
  173DOPE   D2A 2023   1.128   0.488  16.051 -0.0930  0.0356  0.3368
  173DOPE   C3A 2024   1.025   0.255  15.654 -0.2972 -0.4038 -0.1423
  173DOPE   C4A 2025   0.838   0.020  15.321  0.1803  0.0622  0.3554
  173DOPE   C1B 2026   1.681   1.152  15.769  0.1811 -0.0532 -0.1039
  173DOPE   D2B 2027   1.471   1.165  15.347 -0.2062 -0.0987 -0.0633
  173DOPE   C3B 2028   1.487   0.846  15.016  0.1418  0.2878 -0.0304
  173DOPE   C4B 2029   1.833   0.632  14.744 -0.0219 -0.1777 -0.2506
  174POSM   NC3 2030   9.765   2.076  15.372  0.2053 -0.2969  0.0522
  174POSM   PO4 2031   9.540   2.383  15.504  0.0040  0.1237 -0.2195
  174POSM   AM1 2032   9.366   2.588  15.330  0.3115 -0.0318 -0.5077
  174POSM   AM2 2033   9.104   2.582  15.225 -0.1407 -0.2769 -0.0914
  174POSM   T1A 2034   9.336   3.008  15.140  0.0363  0.3238 -0.0006
  174POSM   C2A 2035   9.130   3.129  14.773  0.2437  0.0381 -0.4707
  174POSM   C3A 2036   8.805   2.892  14.482 -0.0031 -0.5059  0.0080
  174POSM   C1B 2037   9.098   2.635  14.894 -0.1692 -0.0394  0.2495
  174POSM   D2B 2038   9.129   2.424  14.491 -0.0093  0.1386  0.1792
  174POSM   C3B 2039   9.328   2.799  14.299  0.1097  0.2293  0.0242
  174POSM   C4B 2040   9.158   3.156  14.119  0.1007 -0.1895 -0.1457
  175DOPE   NH3 2041   9.037   8.107  15.891  0.0343  0.3114  0.0347
  175DOPE   PO4 2042   9.132   8.351  15.730  0.1170  0.1009  0.0708
  175DOPE   GL1 2043   8.944   8.099  15.435  0.2683  0.0198 -0.0665
  175DOPE   GL2 2044   8.932   8.135  15.168  0.3249  0.2191  0.0474
  175DOPE   C1A 2045   8.730   7.663  15.358 -0.2167 -0.2083 -0.2286
  175DOPE   D2A 2046   8.357   7.436  15.400 -0.1915 -0.1018  0.0041
  175DOPE   C3A 2047   7.970   7.720  15.230  0.0826 -0.0582  0.2918
  175DOPE   C4A 2048   7.571   7.911  15.398 -0.0294  0.1527  0.1955
  175DOPE   C1B 2049   9.172   8.513  14.931 -0.0909 -0.1514 -0.2832
  175DOPE   D2B 2050   9.293   8.716  14.556 -0.1604 -0.0753  0.0624
  175DOPE   C3B 2051   9.207   8.478  14.110 -0.1708 -0.0993  0.1340
  175DOPE   C4B 2052   9.303   8.503  13.694 -0.0080  0.1868  0.0072
  176DOPE   NH3 2053   8.189  11.109  16.237 -0.1110  0.0155  0.3773
  176DOPE   PO4 2054   8.301  11.121  15.911 -0.3034 -0.0931 -0.0018
  176DOPE   GL1 2055   8.455  10.851  15.731 -0.2161  0.2523 -0.2415
  176DOPE   GL2 2056   8.754  10.954  15.790  0.2286 -0.1474  0.2244
  176DOPE   C1A 2057   8.612  10.843  15.322  0.1854 -0.1492 -0.1939
  176DOPE   D2A 2058   8.840  10.934  14.959  0.1332 -0.0871 -0.2168
  176DOPE   C3A 2059   8.875  10.750  14.484  0.2344 -0.1270 -0.1937
  176DOPE   C4A 2060   8.728  10.859  14.051  0.1955 -0.1319  0.2940
  176DOPE   C1B 2061   8.916  11.220  15.451  0.2000 -0.0765  0.1116
  176DOPE   D2B 2062   9.297  11.469  15.507 -0.0551  0.4155 -0.0614
  176DOPE   C3B 2063   9.676  11.598  15.299 -0.2882 -0.4271 -0.1251
  176DOPE   C4B 2064   9.952  11.716  14.953  0.1360 -0.2579  0.1015
  177POSM   NC3 2065   8.975   3.831  16.116  0.2290  0.0010  0.0195
  177POSM   PO4 2066   8.803   4.170  16.076 -0.0452  0.1965  0.0586
  177POSM   AM1 2067   8.742   4.185  15.774  0.0829 -0.1575 -0.0431
  177POSM   AM2 2068   8.731   4.401  15.631 -0.2027 -0.3625  0.4900
  177POSM   T1A 2069   8.684   4.062  15.264 -0.4322  0.3498  0.3156
  177POSM   C2A 2070   8.643   4.217  14.779  0.0270  0.1249 -0.0375
  177POSM   C3A 2071   8.900   4.156  14.352  0.1126 -0.1693 -0.0700
  177POSM   C1B 2072   8.562   4.611  15.441  0.3096  0.0553  0.1540
  177POSM   D2B 2073   8.513   4.754  15.011 -0.1879 -0.0904 -0.0528
  177POSM   C3B 2074   8.269   4.561  14.676  0.1845  0.0065  0.0688
  177POSM   C4B 2075   8.157   4.560  14.226  0.2041  0.2333 -0.1535
  178DOPC   NC3 2076   3.630   8.460  15.851 -0.0245  0.1865  0.0940
  178DOPC   PO4 2077   3.253   8.383  15.904  0.2375 -0.3599  0.0949
  178DOPC   GL1 2078   3.183   8.102  15.671 -0.1398 -0.0366 -0.2210
  178DOPC   GL2 2079   3.411   8.041  15.486 -0.0454  0.4250 -0.2418
  178DOPC   C1A 2080   2.848   7.864  15.459 -0.0557  0.0966  0.1771
  178DOPC   D2A 2081   2.537   7.541  15.458  0.1685  0.0124  0.1708
  178DOPC   C3A 2082   2.424   7.458  15.012  0.0003  0.1579 -0.0980
  178DOPC   C4A 2083   2.269   7.525  14.560 -0.0997  0.2416 -0.0429
  178DOPC   C1B 2084   3.119   7.945  15.070 -0.2317  0.1134 -0.0064
  178DOPC   D2B 2085   2.725   8.008  14.899 -0.3405 -0.0958 -0.0582
  178DOPC   C3B 2086   2.587   7.861  14.463  0.2826  0.3089  0.2163
  178DOPC   C4B 2087   2.623   7.824  13.990 -0.1146  0.3177  0.0500
  179DOPE   NH3 2088   1.577   2.647  15.882 -0.0625 -0.1372  0.1574
  179DOPE   PO4 2089   1.787   2.797  15.749  0.0564  0.1001  0.0912
  179DOPE   GL1 2090   1.966   2.739  15.431  0.1731 -0.0237 -0.0207
  179DOPE   GL2 2091   2.196   2.522  15.406  0.0507  0.0019  0.1963
  179DOPE   C1A 2092   1.918   2.861  14.996 -0.2425  0.0410 -0.1693
  179DOPE   D2A 2093   1.875   3.082  14.596  0.2056 -0.1470  0.2791
  179DOPE   C3A 2094   1.786   2.921  14.126  0.1890  0.2623 -0.1007
  179DOPE   C4A 2095   1.999   2.609  13.857 -0.4814 -0.1058 -0.0553
  179DOPE   C1B 2096   2.445   2.738  15.110  0.0322 -0.1598  0.1438
  179DOPE   D2B 2097   2.367   2.926  14.688 -0.2926  0.2180  0.3634
  179DOPE   C3B 2098   2.342   3.063  14.254  0.2856  0.0859 -0.0019
  179DOPE   C4B 2099   2.677   3.127  13.881  0.1427 -0.2622 -0.1163
  180DOPC   NC3 2100  10.858   5.825  15.769 -0.0516 -0.0146 -0.0279
  180DOPC   PO4 2101  10.539   5.624  15.917 -0.2117  0.0804  0.0619
  180DOPC   GL1 2102  10.463   5.615  15.509  0.0167 -0.2280 -0.2407
  180DOPC   GL2 2103  10.715   5.431  15.508  0.0490  0.2076  0.0792
  180DOPC   C1A 2104  10.547   5.756  15.095  0.1571 -0.1356  0.0956
  180DOPC   D2A 2105  10.554   5.544  14.762 -0.0146  0.1306 -0.1203
  180DOPC   C3A 2106  10.365   5.399  14.355  0.1402  0.0690 -0.1775
  180DOPC   C4A 2107  10.182   5.411  13.921  0.0059  0.0938 -0.2568
  180DOPC   C1B 2108  10.979   5.614  15.160  0.0424  0.0336 -0.0655
  180DOPC   D2B 2109  11.084   5.715  14.707 -0.2598 -0.1017  0.1336
  180DOPC   C3B 2110  10.810   5.816  14.277 -0.0430  0.1682  0.0715
  180DOPC   C4B 2111  10.459   5.819  13.937 -0.4045  0.2171  0.1009
  181POSM   NC3 2112   1.563   0.087  16.604  0.0435 -0.2188  0.2763
  181POSM   PO4 2113   1.929   0.154  16.442 -0.4041  0.2758  0.2174
  181POSM   AM1 2114   1.764   0.233  16.186 -0.1051 -0.1501  0.2565
  181POSM   AM2 2115   1.549   0.170  16.086 -0.1067  0.1744  0.1459
  181POSM   T1A 2116   1.745   0.576  15.811  0.1540  0.0537 -0.2054
  181POSM   C2A 2117   1.353   0.728  15.538  0.0832 -0.2057  0.2568
  181POSM   C3A 2118   1.166   0.542  15.155  0.0062 -0.1583 -0.0067
  181POSM   C1B 2119   1.493   0.178  15.748  0.2707 -0.1240 -0.3195
  181POSM   D2B 2120   1.348   0.104  15.311 -0.3246 -0.0136 -0.2411
  181POSM   C3B 2121   1.452  -0.309  15.095  0.1109 -0.1532 -0.1040
  181POSM   C4B 2122   1.229  -0.564  14.809  0.0655 -0.1375 -0.0780
  182DOPE   NH3 2123   7.765   2.470  15.833  0.1412  0.0853  0.3824
  182DOPE   PO4 2124   8.089   2.461  15.786 -0.0326  0.1822 -0.0636
  182DOPE   GL1 2125   8.328   2.533  15.394 -0.2832  0.1063 -0.2883
  182DOPE   GL2 2126   8.604   2.726  15.311  0.0787  0.3290 -0.0756
  182DOPE   C1A 2127   8.313   2.751  14.934  0.2961  0.1425 -0.1955
  182DOPE   D2A 2128   8.224   2.551  14.523  0.0214 -0.1063  0.3337
  182DOPE   C3A 2129   8.269   2.752  14.053  0.1721  0.2387  0.2779
  182DOPE   C4A 2130   8.391   2.781  13.613 -0.1416 -0.2564  0.1164
  182DOPE   C1B 2131   8.722   3.066  15.018  0.0736 -0.0078  0.0198
  182DOPE   D2B 2132   8.637   3.367  14.600 -0.0025 -0.1620  0.1291
  182DOPE   C3B 2133   8.385   3.733  14.657 -0.1518  0.1704 -0.0417
  182DOPE   C4B 2134   8.016   4.001  14.627 -0.0077  0.0762 -0.0390
  183DOPE   NH3 2135   9.820   3.984  15.640 -0.3004 -0.2537  0.2931
  183DOPE   PO4 2136   9.494   3.928  15.535  0.0221  0.1850 -0.4658
  183DOPE   GL1 2137   9.683   4.228  15.295 -0.2229 -0.0272  0.4718
  183DOPE   GL2 2138   9.586   4.034  15.057  0.1387 -0.0140 -0.1810
  183DOPE   C1A 2139  10.044   4.208  15.010 -0.0304 -0.1196  0.1245
  183DOPE   D2A 2140  10.420   4.508  14.901 -0.1934  0.1502 -0.0985
  183DOPE   C3A 2141  10.479   4.565  14.454 -0.2349 -0.0544  0.0895
  183DOPE   C4A 2142  10.324   4.463  14.040 -0.1013 -0.1846  0.0216
  183DOPE   C1B 2143   9.831   3.894  14.701  0.2489  0.2196 -0.1617
  183DOPE   D2B 2144   9.743   3.830  14.260  0.4877  0.0213 -0.0605
  183DOPE   C3B 2145   9.442   3.550  14.022 -0.1884 -0.2022  0.0662
  183DOPE   C4B 2146   9.129   3.509  13.698  0.3754 -0.1399 -0.0274
  184POSM   NC3 2147   4.300   0.739  15.968 -0.1538 -0.0284  0.1314
  184POSM   PO4 2148   4.394   1.067  16.087 -0.0415  0.1766 -0.0683
  184POSM   AM1 2149   4.565   1.161  15.803 -0.0889 -0.1375 -0.1146
  184POSM   AM2 2150   4.792   1.043  15.671 -0.1873 -0.0934 -0.1855
  184POSM   T1A 2151   4.460   1.260  15.350 -0.0684  0.0047 -0.1819
  184POSM   C2A 2152   4.172   1.478  15.047  0.1200  0.1630 -0.0144
  184POSM   C3A 2153   4.102   1.650  14.602  0.0707  0.0289  0.1259
  184POSM   C1B 2154   4.622   0.728  15.548 -0.0332 -0.0674 -0.1602
  184POSM   D2B 2155   4.228   0.619  15.367  0.2087 -0.1248  0.2238
  184POSM   C3B 2156   4.194   0.465  14.960 -0.0369 -0.0752  0.0042
  184POSM   C4B 2157   4.425   0.732  14.586  0.0338  0.1974  0.0171
  185DOPS   CNO 2158   8.448   1.737  15.998 -0.1179  0.0208 -0.1933
  185DOPS   PO4 2159   8.333   1.554  15.695 -0.1989  0.1445  0.0675
  185DOPS   GL1 2160   8.096   1.415  15.359 -0.3406 -0.4381  0.0992
  185DOPS   GL2 2161   7.818   1.498  15.414  0.3732  0.0393 -0.0688
  185DOPS   C1A 2162   8.098   1.298  14.896 -0.1114 -0.1073 -0.1387
  185DOPS   D2A 2163   7.813   1.383  14.512 -0.1037  0.0380  0.2815
  185DOPS   C3A 2164   8.016   1.293  14.157 -0.2009  0.1130 -0.1535
  185DOPS   C4A 2165   8.158   1.508  13.790 -0.0489 -0.0992 -0.1653
  185DOPS   C1B 2166   7.794   1.640  15.000 -0.0660 -0.1832 -0.0976
  185DOPS   D2B 2167   8.102   1.774  14.650 -0.1514  0.1730  0.4929
  185DOPS   C3B 2168   7.872   1.893  14.277 -0.0830 -0.3546 -0.1128
  185DOPS   C4B 2169   7.700   2.141  13.944 -0.0710 -0.4824 -0.2208
  186DOPC   NC3 2170   3.691  11.023  15.323  0.1224  0.2276  0.0927
  186DOPC   PO4 2171   3.466  10.859  15.638  0.0971 -0.2374 -0.0051
  186DOPC   GL1 2172   3.290  10.723  15.331 -0.1686 -0.0608  0.0449
  186DOPC   GL2 2173   3.134  10.440  15.353  0.3896 -0.2848 -0.2526
  186DOPC   C1A 2174   3.452  10.509  14.924 -0.1718  0.1278  0.0630
  186DOPC   D2A 2175   3.795  10.758  14.766  0.1290 -0.4303 -0.0456
  186DOPC   C3A 2176   3.884  11.211  14.609 -0.3145 -0.2442 -0.4054
  186DOPC   C4A 2177   3.950  11.551  14.403 -0.4473  0.1902 -0.0118
  186DOPC   C1B 2178   3.009  10.678  14.925 -0.1927 -0.1576  0.2681
  186DOPC   D2B 2179   2.735  10.728  14.537  0.1776 -0.1642  0.0043
  186DOPC   C3B 2180   2.888  11.197  14.438 -0.0632 -0.1866 -0.3706
  186DOPC   C4B 2181   3.026  11.437  14.034  0.0017  0.1280  0.2775
  187POSM   NC3 2182   5.208   6.298  16.005  0.0043 -0.0340  0.1493
  187POSM   PO4 2183   5.598   6.193  16.077 -0.3248  0.0394 -0.1134
  187POSM   AM1 2184   5.644   5.970  15.797  0.1332 -0.0118 -0.2083
  187POSM   AM2 2185   5.854   5.986  15.603  0.2821 -0.2686  0.0983
  187POSM   T1A 2186   5.445   5.817  15.384  0.0972 -0.1048  0.0088
  187POSM   C2A 2187   5.119   5.574  15.222 -0.1736  0.0741  0.0340
  187POSM   C3A 2188   4.725   5.526  15.001 -0.0404 -0.1890  0.0896
  187POSM   C1B 2189   5.971   6.115  15.308 -0.1546  0.0032 -0.2638
  187POSM   D2B 2190   6.068   6.270  14.946 -0.1934  0.0055  0.1446
  187POSM   C3B 2191   6.028   5.938  14.605  0.3597 -0.1192  0.3278
  187POSM   C4B 2192   6.074   5.503  14.495 -0.4365  0.0701  0.0054
  188DOPE   NH3 2193   6.942   1.981  16.062 -0.1271  0.0507  0.0599
  188DOPE   PO4 2194   7.155   1.813  15.833 -0.1459  0.1955  0.0142
  188DOPE   GL1 2195   7.211   1.906  15.374  0.0045 -0.2231  0.5387
  188DOPE   GL2 2196   7.337   1.574  15.329 -0.1451  0.2740 -0.0048
  188DOPE   C1A 2197   7.344   1.821  14.924 -0.2227 -0.3037  0.2624
  188DOPE   D2A 2198   7.442   1.893  14.523  0.1226 -0.3411  0.0582
  188DOPE   C3A 2199   7.259   2.221  14.273  0.0230 -0.1282 -0.0249
  188DOPE   C4A 2200   7.204   2.396  13.898  0.1613  0.0652  0.2121
  188DOPE   C1B 2201   6.921   1.617  15.105  0.3042 -0.0374  0.1639
  188DOPE   D2B 2202   6.482   1.696  15.087 -0.3792  0.0172  0.5195
  188DOPE   C3B 2203   6.327   1.692  14.603 -0.0369  0.1744  0.3060
  188DOPE   C4B 2204   6.257   1.316  14.359 -0.2533 -0.2189  0.0436
  189DOPS   CNO 2205   6.420  34.266  16.134  0.0158 -0.0246 -0.2103
  189DOPS   PO4 2206   6.067  34.452  16.053 -0.0238 -0.2547 -0.4408
  189DOPS   GL1 2207   5.999  34.662  15.694 -0.1286 -0.1153 -0.1942
  189DOPS   GL2 2208   6.178  34.784  15.527  0.2580  0.0652 -0.0360
  189DOPS   C1A 2209   5.931  34.452  15.309 -0.0768 -0.2491 -0.2164
  189DOPS   D2A 2210   5.951  34.448  14.886  0.2435  0.0846 -0.0741
  189DOPS   C3A 2211   5.546  34.461  14.643 -0.1953 -0.0980  0.1354
  189DOPS   C4A 2212   5.186  34.535  14.382  0.2752 -0.2267  0.0570
  189DOPS   C1B 2213   5.878  35.119  15.458 -0.0028 -0.0979  0.2371
  189DOPS   D2B 2214   5.646  35.505  15.470 -0.0010  0.1061 -0.0946
  189DOPS   C3B 2215   5.643  35.718  15.040  0.4516  0.0333  0.0614
  189DOPS   C4B 2216   5.907  35.612  14.659  0.2705  0.0075 -0.0649
  190DOPS   CNO 2217   5.912  10.234  15.581  0.1485 -0.0899  0.3221
  190DOPS   PO4 2218   5.738   9.940  15.751 -0.0078 -0.3175  0.1612
  190DOPS   GL1 2219   5.502   9.762  15.550  0.2919 -0.0264  0.0607
  190DOPS   GL2 2220   5.636   9.536  15.415 -0.3703 -0.0511 -0.0694
  190DOPS   C1A 2221   5.641   9.948  15.095 -0.1190 -0.2448  0.0188
  190DOPS   D2A 2222   5.714  10.105  14.667 -0.0125  0.1639 -0.0481
  190DOPS   C3A 2223   5.395  10.058  14.353 -0.1514 -0.0734  0.1344
  190DOPS   C4A 2224   5.009   9.843  14.178 -0.3307 -0.0520 -0.0193
  190DOPS   C1B 2225   5.686   9.396  14.975  0.0209  0.0723  0.0969
  190DOPS   D2B 2226   5.997   9.254  14.592  0.2171 -0.0152  0.2379
  190DOPS   C3B 2227   6.300   9.574  14.466 -0.0015 -0.1508 -0.0511
  190DOPS   C4B 2228   6.169  10.035  14.484 -0.1662 -0.0325 -0.1580
  191DOPE   NH3 2229  11.157  34.380  16.067  0.0455 -0.0088  0.1850
  191DOPE   PO4 2230  11.483  34.436  16.117 -0.1870  0.0988  0.2312
  191DOPE   GL1 2231  11.457  34.699  15.864  0.1833 -0.1738  0.1386
  191DOPE   GL2 2232  11.162  34.740  15.765 -0.1133  0.1269  0.0373
  191DOPE   C1A 2233  11.516  34.773  15.415  0.0566 -0.0768  0.0755
  191DOPE   D2A 2234  11.373  35.114  15.160  0.1733  0.2145 -0.0070
  191DOPE   C3A 2235  11.373  35.442  14.797  0.0828  0.0176  0.0237
  191DOPE   C4A 2236  11.384  35.784  14.430  0.0862  0.1982  0.2692
  191DOPE   C1B 2237  11.101  34.429  15.517 -0.2112  0.0049  0.2150
  191DOPE   D2B 2238  11.255  34.279  15.161 -0.3118  0.1594 -0.0701
  191DOPE   C3B 2239  11.090  34.324  14.689 -0.2174  0.1001  0.1421
  191DOPE   C4B 2240  11.029  34.606  14.315 -0.1578  0.0121 -0.0761
  192DOPC   NC3 2241   7.290   3.075  16.064 -0.1653  0.0583 -0.1481
  192DOPC   PO4 2242   7.026   2.955  16.255 -0.0093  0.1802 -0.0902
  192DOPC   GL1 2243   6.894   3.006  15.819 -0.1646  0.1195  0.2683
  192DOPC   GL2 2244   6.919   2.728  15.767  0.1926 -0.1519 -0.3601
  192DOPC   C1A 2245   6.950   2.934  15.314  0.0127 -0.0322  0.0388
  192DOPC   D2A 2246   6.961   2.496  15.266  0.0926 -0.0441 -0.0346
  192DOPC   C3A 2247   6.644   2.211  15.153 -0.0037  0.0254  0.1809
  192DOPC   C4A 2248   6.316   2.132  14.820  0.3120 -0.2159 -0.0689
  192DOPC   C1B 2249   6.500   2.573  15.614  0.0695  0.1780  0.1977
  192DOPC   D2B 2250   6.306   2.588  15.169  0.1658 -0.0750 -0.1426
  192DOPC   C3B 2251   5.940   2.460  14.961 -0.0563 -0.0821  0.0822
  192DOPC   C4B 2252   5.595   2.643  14.782 -0.0181  0.1051  0.2492
  193DOPS   CNO 2253  11.035   7.161  16.172 -0.3814  0.0762 -0.1481
  193DOPS   PO4 2254  10.915   6.874  15.927  0.0961 -0.0755  0.0311
  193DOPS   GL1 2255  10.741   6.828  15.540 -0.3357  0.0909 -0.1070
  193DOPS   GL2 2256  10.914   6.952  15.314 -0.2065  0.2007 -0.0174
  193DOPS   C1A 2257  10.916   6.457  15.255  0.0425  0.2583 -0.1567
  193DOPS   D2A 2258  10.898   6.113  15.058 -0.0663 -0.1532 -0.1097
  193DOPS   C3A 2259  10.627   6.057  14.704  0.0541  0.0483  0.2034
  193DOPS   C4A 2260  10.412   6.306  14.330  0.2980  0.0062 -0.0716
  193DOPS   C1B 2261  11.044   7.080  14.877  0.1772  0.1706 -0.0008
  193DOPS   D2B 2262  11.137   7.304  14.472  0.0525  0.0519 -0.0506
  193DOPS   C3B 2263  10.937   7.432  14.061  0.2510 -0.0044  0.1841
  193DOPS   C4B 2264  10.642   7.152  13.833  0.1478  0.2219  0.0363
  194DOPE   NH3 2265   3.571  10.534  16.109  0.0497  0.1050 -0.0925
  194DOPE   PO4 2266   3.619  10.286  15.914 -0.1625  0.1446 -0.1643
  194DOPE   GL1 2267   3.810  10.245  15.494  0.0246  0.1905  0.2172
  194DOPE   GL2 2268   3.741  10.476  15.417 -0.2668 -0.2755 -0.2455
  194DOPE   C1A 2269   3.995  10.198  15.073 -0.0651  0.0842  0.1308
  194DOPE   D2A 2270   3.886  10.182  14.641  0.2121 -0.0810 -0.2569
  194DOPE   C3A 2271   4.097  10.076  14.226  0.1016  0.1947 -0.0914
  194DOPE   C4A 2272   4.393   9.952  13.836  0.1320  0.0021 -0.0547
  194DOPE   C1B 2273   3.507  10.084  15.220 -0.2096 -0.3064 -0.0619
  194DOPE   D2B 2274   3.360   9.659  15.373  0.2654 -0.0971  0.1990
  194DOPE   C3B 2275   3.381   9.333  15.127 -0.0933  0.4370  0.4231
  194DOPE   C4B 2276   3.631   8.945  15.014 -0.2789  0.2037  0.0369
  195DOPE   NH3 2277   8.644   8.771  15.585 -0.1977  0.0698  0.1452
  195DOPE   PO4 2278   8.682   8.483  15.541 -0.0087 -0.1195  0.0472
  195DOPE   GL1 2279   8.540   8.347  15.221 -0.0957 -0.1601  0.2792
  195DOPE   GL2 2280   8.318   8.118  15.281  0.0767  0.0239  0.1561
  195DOPE   C1A 2281   8.630   8.381  14.747  0.0592 -0.3072  0.0493
  195DOPE   D2A 2282   8.839   8.200  14.362  0.0665  0.0566  0.1388
  195DOPE   C3A 2283   8.577   8.055  14.020  0.3652  0.0069  0.2790
  195DOPE   C4A 2284   8.348   7.654  13.894 -0.4310  0.0368 -0.0761
  195DOPE   C1B 2285   8.452   7.930  14.876  0.0823  0.1414  0.0188
  195DOPE   D2B 2286   8.435   7.790  14.435 -0.0268  0.1347 -0.2871
  195DOPE   C3B 2287   8.103   7.526  14.313  0.2878  0.2604  0.1218
  195DOPE   C4B 2288   7.928   7.310  13.945  0.0106 -0.1249 -0.1743
  196DOPE   NH3 2289   7.433   4.843  16.216 -0.0988  0.0754  0.2686
  196DOPE   PO4 2290   7.251   5.099  16.133 -0.0050  0.1678  0.0662
  196DOPE   GL1 2291   7.281   4.843  15.739  0.4192  0.3472 -0.0903
  196DOPE   GL2 2292   7.017   4.879  15.607  0.1521 -0.4611  0.1783
  196DOPE   C1A 2293   7.590   4.709  15.423 -0.0296  0.2673  0.1400
  196DOPE   D2A 2294   7.741   4.443  15.075 -0.4754  0.2291 -0.1848
  196DOPE   C3A 2295   7.401   4.352  14.741  0.1282  0.1064  0.2980
  196DOPE   C4A 2296   7.059   4.118  14.638  0.1439  0.1095  0.0213
  196DOPE   C1B 2297   6.970   4.684  15.185  0.3565  0.0111  0.1926
  196DOPE   D2B 2298   6.975   4.637  14.770  0.3884 -0.1488  0.0601
  196DOPE   C3B 2299   6.917   4.910  14.414 -0.4886 -0.1694 -0.0148
  196DOPE   C4B 2300   6.701   5.230  14.124  0.0660 -0.1050  0.1992
  197DOPC   NC3 2301  10.805  10.392  16.051  0.1737 -0.0678  0.0994
  197DOPC   PO4 2302  10.723  10.801  16.115 -0.6840  0.2132 -0.2325
  197DOPC   GL1 2303  10.800  11.025  15.796 -0.0294  0.2979  0.0797
  197DOPC   GL2 2304  10.576  11.031  15.701  0.0144 -0.0332  0.0790
  197DOPC   C1A 2305  10.788  11.490  15.668 -0.3066  0.0115 -0.0639
  197DOPC   D2A 2306  11.015  11.669  15.325  0.0152  0.0720 -0.0594
  197DOPC   C3A 2307  11.172  11.342  15.145 -0.0150 -0.0779 -0.0640
  197DOPC   C4A 2308  11.434  10.979  14.982 -0.2017 -0.0007  0.0333
  197DOPC   C1B 2309  10.807  11.065  15.347  0.0735  0.1898  0.1341
  197DOPC   D2B 2310  10.725  11.190  14.909  0.5330 -0.0265 -0.3666
  197DOPC   C3B 2311  11.125  11.225  14.656 -0.0273  0.0422  0.1926
  197DOPC   C4B 2312  11.402  11.528  14.440 -0.1107  0.3397  0.0562
  198POSM   NC3 2313   2.481   6.863  15.948 -0.0944 -0.0806 -0.1047
  198POSM   PO4 2314   2.170   6.599  15.915 -0.0438 -0.0541  0.0309
  198POSM   AM1 2315   2.082   6.367  15.709 -0.5206 -0.0940  0.1032
  198POSM   AM2 2316   1.919   6.318  15.525 -0.1407 -0.1022 -0.0097
  198POSM   T1A 2317   2.250   5.878  15.609 -0.0043 -0.1264 -0.0508
  198POSM   C2A 2318   2.267   5.498  15.383 -0.0484 -0.1288  0.0302
  198POSM   C3A 2319   2.492   5.211  15.044 -0.3322  0.2213  0.1158
  198POSM   C1B 2320   1.751   6.004  15.508  0.1415 -0.3354  0.2299
  198POSM   D2B 2321   1.793   5.518  15.623  0.5810 -0.0136  0.3991
  198POSM   C3B 2322   1.467   5.235  15.409 -0.1909  0.2661  0.0006
  198POSM   C4B 2323   1.367   5.037  14.988 -0.2927 -0.0194 -0.2544
  199POSM   NC3 2324  33.770   9.461  16.270 -0.1434  0.2193 -0.0576
  199POSM   PO4 2325  34.066   9.352  16.100 -0.2571  0.2000  0.0050
  199POSM   AM1 2326  34.044   9.384  15.766  0.5100  0.1253  0.2448
  199POSM   AM2 2327  34.033   9.259  15.482  0.0745 -0.3372 -0.0766
  199POSM   T1A 2328  34.137   9.720  15.414  0.2493  0.0102  0.1313
  199POSM   C2A 2329  34.180  10.187  15.269  0.0012 -0.0914 -0.0312
  199POSM   C3A 2330  33.994  10.590  15.107 -0.0550 -0.1675 -0.0773
  199POSM   C1B 2331  34.057   9.123  15.161  0.0443  0.2271 -0.1323
  199POSM   D2B 2332  34.195   9.023  14.745 -0.2264  0.1448 -0.1984
  199POSM   C3B 2333  34.485   9.301  14.476 -0.2456 -0.1122  0.2452
  199POSM   C4B 2334  34.649   9.187  14.043  0.0157  0.0646 -0.2398
  200DOPC   NC3 2335   5.007   4.324  16.223  0.1745  0.1405 -0.4791
  200DOPC   PO4 2336   5.265   4.031  16.288 -0.1778  0.0948  0.0883
  200DOPC   GL1 2337   5.386   4.015  15.898  0.0597 -0.2864  0.1855
  200DOPC   GL2 2338   5.299   4.346  15.860 -0.2613 -0.0954  0.1867
  200DOPC   C1A 2339   5.600   3.911  15.523  0.0920  0.1230 -0.0255
  200DOPC   D2A 2340   5.815   3.783  15.122 -0.0091 -0.1529 -0.1060
  200DOPC   C3A 2341   5.543   3.678  14.778  0.1349 -0.0350  0.2958
  200DOPC   C4A 2342   5.352   3.482  14.429 -0.0966 -0.2934 -0.0346
  200DOPC   C1B 2343   5.500   4.395  15.455 -0.0501 -0.0629 -0.0060
  200DOPC   D2B 2344   5.577   4.413  15.048 -0.0067 -0.4858  0.1500
  200DOPC   C3B 2345   5.831   4.808  15.026  0.0601 -0.1778 -0.0553
  200DOPC   C4B 2346   6.122   5.161  15.175  0.1137  0.1969 -0.0777
  201DOPC   NC3 2347   7.879   5.718  16.569  0.3950 -0.0336 -0.0759
  201DOPC   PO4 2348   8.125   6.013  16.497 -0.3892 -0.3691 -0.1052
  201DOPC   GL1 2349   8.114   5.762  16.193 -0.2478 -0.1077 -0.0118
  201DOPC   GL2 2350   8.112   5.453  16.176 -0.1392 -0.1420 -0.0473
  201DOPC   C1A 2351   7.954   5.908  15.767 -0.2382  0.3444 -0.1616
  201DOPC   D2A 2352   7.784   5.696  15.422 -0.0654 -0.0831 -0.1943
  201DOPC   C3A 2353   7.931   5.815  15.025  0.0711  0.3783  0.0706
  201DOPC   C4A 2354   8.023   6.102  14.663 -0.2315 -0.0118 -0.1620
  201DOPC   C1B 2355   7.659   5.504  15.947  0.0490  0.1406 -0.0772
  201DOPC   D2B 2356   7.364   5.279  15.624  0.0646 -0.0248 -0.1664
  201DOPC   C3B 2357   7.269   5.065  15.233 -0.0121  0.1904 -0.3191
  201DOPC   C4B 2358   7.454   4.821  14.824 -0.0441 -0.1421  0.0545
  202DOPS   CNO 2359   1.010   7.863  16.443 -0.1645 -0.0618 -0.3146
  202DOPS   PO4 2360   1.145   8.135  16.225 -0.0272  0.2492 -0.0281
  202DOPS   GL1 2361   1.203   8.297  15.777  0.1723 -0.1814  0.3179
  202DOPS   GL2 2362   1.159   8.109  15.616 -0.0163  0.0615  0.0467
  202DOPS   C1A 2363   1.316   8.629  15.456  0.3070 -0.3106  0.1792
  202DOPS   D2A 2364   1.401   8.663  15.012  0.2052  0.3249  0.1399
  202DOPS   C3A 2365   1.328   8.545  14.501 -0.2395  0.4078  0.2807
  202DOPS   C4A 2366   1.547   8.747  14.133 -0.1197 -0.1486  0.0276
  202DOPS   C1B 2367   1.084   8.226  15.213 -0.3093  0.1821  0.1050
  202DOPS   D2B 2368   1.192   8.165  14.769  0.0467 -0.1067 -0.1085
  202DOPS   C3B 2369   1.589   8.242  14.823  0.0029 -0.2348 -0.0628
  202DOPS   C4B 2370   1.918   8.203  15.148  0.0651  0.1400  0.1813
  203DOPE   NH3 2371   8.233   0.982  15.453  0.0974 -0.0134 -0.1366
  203DOPE   PO4 2372   8.034   1.104  15.683  0.0855  0.2469  0.0927
  203DOPE   GL1 2373   7.848   1.030  15.276  0.0663 -0.0516 -0.1239
  203DOPE   GL2 2374   7.597   1.145  15.122 -0.0622  0.0195 -0.1839
  203DOPE   C1A 2375   8.123   0.823  14.939 -0.1068 -0.1597  0.1056
  203DOPE   D2A 2376   8.310   0.965  14.607 -0.1087  0.2953 -0.2526
  203DOPE   C3A 2377   8.272   0.706  14.223  0.3746  0.1012  0.1148
  203DOPE   C4A 2378   8.216   0.919  13.760  0.1084  0.1952  0.0318
  203DOPE   C1B 2379   7.400   1.334  14.747  0.4716  0.0204 -0.3630
  203DOPE   D2B 2380   7.346   1.274  14.314 -0.0371 -0.1011 -0.1219
  203DOPE   C3B 2381   7.589   1.465  13.955 -0.0067 -0.1625  0.2221
  203DOPE   C4B 2382   7.793   1.787  13.614 -0.0554  0.0470 -0.0061
  204DOPS   CNO 2383   9.668   5.287  16.190  0.2915  0.0203 -0.0323
  204DOPS   PO4 2384   9.433   5.245  15.882  0.0445  0.0185  0.0937
  204DOPS   GL1 2385   9.402   5.511  15.581  0.3135  0.3005  0.1988
  204DOPS   GL2 2386   9.163   5.363  15.362 -0.4997 -0.1265 -0.2665
  204DOPS   C1A 2387   9.568   5.848  15.361 -0.1334 -0.2214  0.0226
  204DOPS   D2A 2388   9.623   6.272  15.160  0.2412  0.0575  0.0764
  204DOPS   C3A 2389   9.688   6.375  14.733  0.1188  0.0787 -0.0885
  204DOPS   C4A 2390   9.814   6.584  14.325  0.0072  0.2375 -0.0202
  204DOPS   C1B 2391   9.031   5.283  14.947  0.1027 -0.1106 -0.0864
  204DOPS   D2B 2392   8.859   4.956  14.617 -0.0503  0.1442  0.1122
  204DOPS   C3B 2393   9.077   4.569  14.593  0.2607 -0.1957  0.0580
  204DOPS   C4B 2394   9.471   4.328  14.558  0.1791 -0.0754 -0.0142
  205DOPE   NH3 2395  10.792   1.563  12.490 -0.4498  0.0195 -0.1122
  205DOPE   PO4 2396  10.724   1.820  12.356  0.1195  0.0238  0.0098
  205DOPE   GL1 2397  11.187   1.802  12.370  0.1921 -0.0786 -0.2768
  205DOPE   GL2 2398  11.237   1.678  12.155  0.0042 -0.2374 -0.0599
  205DOPE   C1A 2399  11.679   1.825  12.318 -0.0372 -0.2633  0.0408
  205DOPE   D2A 2400  12.162   1.810  12.382 -0.3329 -0.0290 -0.0335
  205DOPE   C3A 2401  12.247   1.871  12.830  0.2885  0.4202 -0.1850
  205DOPE   C4A 2402  12.120   1.673  13.240  0.1456  0.3800  0.3892
  205DOPE   C1B 2403  11.453   1.460  11.781  0.3389  0.0622  0.0373
  205DOPE   D2B 2404  11.826   1.217  11.605 -0.2556  0.0136  0.1741
  205DOPE   C3B 2405  12.246   1.231  11.799  0.1048  0.5354  0.0466
  205DOPE   C4B 2406  12.509   1.586  12.066 -0.1248 -0.2452 -0.0749
  206DOPS   CNO 2407   1.659   3.902  12.787 -0.1286 -0.0385 -0.0135
  206DOPS   PO4 2408   1.600   3.591  12.603 -0.0109 -0.0633 -0.3872
  206DOPS   GL1 2409   1.660   3.444  12.920  0.0558  0.1217  0.0625
  206DOPS   GL2 2410   1.825   3.583  13.175 -0.0005 -0.2973 -0.2333
  206DOPS   C1A 2411   1.949   3.061  13.135 -0.2159  0.1421  0.0526
  206DOPS   D2A 2412   2.082   2.674  13.329 -0.0510 -0.1504  0.0108
  206DOPS   C3A 2413   2.042   2.385  12.951 -0.3345 -0.4060  0.1599
  206DOPS   C4A 2414   1.770   2.319  12.590  0.3736  0.0658 -0.0631
  206DOPS   C1B 2415   1.565   3.246  13.312 -0.0257 -0.0775  0.0302
  206DOPS   D2B 2416   1.141   3.016  13.155  0.2203 -0.2935 -0.3499
  206DOPS   C3B 2417   1.068   2.590  13.326  0.0106  0.1374  0.1683
  206DOPS   C4B 2418   0.706   2.369  13.499 -0.0666  0.2835 -0.1287
  207DOPE   NH3 2419  10.263   1.926  12.229  0.0680 -0.1987 -0.0493
  207DOPE   PO4 2420  10.184   1.955  12.558 -0.2022  0.0909  0.0929
  207DOPE   GL1 2421   9.843   2.146  12.420 -0.0685  0.2952  0.0546
  207DOPE   GL2 2422   9.655   1.996  12.696  0.0493  0.1494 -0.3148
  207DOPE   C1A 2423   9.543   2.528  12.519  0.1511  0.1864  0.0756
  207DOPE   D2A 2424   9.450   2.639  12.917 -0.1136  0.1779  0.0502
  207DOPE   C3A 2425   9.244   3.076  13.025  0.1111  0.2555 -0.0763
  207DOPE   C4A 2426   8.904   3.331  12.826 -0.1848 -0.0881 -0.0515
  207DOPE   C1B 2427   9.492   2.171  13.102 -0.2091  0.1985 -0.0776
  207DOPE   D2B 2428   9.280   2.085  13.559  0.0248  0.1597  0.2400
  207DOPE   C3B 2429   9.356   1.693  13.831 -0.1461 -0.0543 -0.0989
  207DOPE   C4B 2430   9.069   1.528  14.103  0.0045  0.2018  0.3028
  208DOPE   NH3 2431  10.411   1.380  12.213 -0.1995 -0.2635  0.0079
  208DOPE   PO4 2432  10.345   1.448  12.511 -0.0082  0.2762  0.0303
  208DOPE   GL1 2433  10.396   1.546  12.793 -0.1123  0.0552 -0.4216
  208DOPE   GL2 2434  10.548   1.760  12.891 -0.2021  0.1173 -0.0742
  208DOPE   C1A 2435  10.035   1.657  13.129  0.1709  0.1303  0.0533
  208DOPE   D2A 2436   9.769   1.807  13.487 -0.0265  0.2835 -0.5148
  208DOPE   C3A 2437   9.820   1.880  13.905 -0.1629  0.0194  0.2441
  208DOPE   C4A 2438   9.648   1.779  14.365  0.3350  0.0010  0.4654
  208DOPE   C1B 2439  10.553   2.044  13.246  0.3249 -0.1504 -0.0262
  208DOPE   D2B 2440  10.532   2.480  13.379  0.0174  0.0916 -0.1023
  208DOPE   C3B 2441  10.130   2.610  13.478  0.2390 -0.0187  0.1373
  208DOPE   C4B 2442   9.682   2.506  13.497 -0.2222  0.0469  0.3806
  209DOPC   NC3 2443  10.305   2.536  12.013  0.1081 -0.2060 -0.1154
  209DOPC   PO4 2444  10.175   2.431  12.363 -0.1116  0.2339  0.0977
  209DOPC   GL1 2445  10.003   2.459  12.760  0.2172 -0.0179 -0.0828
  209DOPC   GL2 2446   9.998   2.792  12.865 -0.0356  0.2208 -0.1254
  209DOPC   C1A 2447  10.047   2.243  13.156 -0.0772  0.0248 -0.4129
  209DOPC   D2A 2448  10.164   2.081  13.605 -0.0926 -0.0601  0.4229
  209DOPC   C3A 2449  10.367   1.687  13.520  0.0938 -0.0754 -0.0373
  209DOPC   C4A 2450  10.362   1.324  13.302 -0.0036  0.0145 -0.1662
  209DOPC   C1B 2451   9.725   3.006  13.203 -0.1886  0.0541  0.1245
  209DOPC   D2B 2452   9.396   3.037  13.536  0.1054  0.1276 -0.0606
  209DOPC   C3B 2453   8.925   3.062  13.540  0.2018 -0.1388 -0.0112
  209DOPC   C4B 2454   8.587   3.302  13.275  0.1431 -0.1516 -0.0860
  210DOPC   NC3 2455   2.357   6.822  13.054 -0.0425 -0.1116 -0.0017
  210DOPC   PO4 2456   2.300   7.057  12.727  0.3900  0.0063 -0.1376
  210DOPC   GL1 2457   2.181   7.409  12.919  0.3142 -0.1709 -0.1335
  210DOPC   GL2 2458   2.069   7.264  13.116 -0.3448  0.0458  0.1483
  210DOPC   C1A 2459   2.370   7.796  13.031  0.1422 -0.1738 -0.2718
  210DOPC   D2A 2460   2.554   8.143  13.234  0.0152  0.0686  0.0050
  210DOPC   C3A 2461   2.668   8.295  13.649  0.1852  0.1408 -0.1544
  210DOPC   C4A 2462   2.890   8.304  14.034  0.2640  0.2785  0.1672
  210DOPC   C1B 2463   2.053   7.604  13.435  0.0823 -0.2309  0.0599
  210DOPC   D2B 2464   2.299   7.923  13.594  0.4415  0.4536 -0.0842
  210DOPC   C3B 2465   2.221   8.102  14.029 -0.1524 -0.3960  0.0484
  210DOPC   C4B 2466   2.175   8.602  13.991  0.0305  0.0890  0.0232
  211DOPE   NH3 2467  34.083   7.388  12.577 -0.2219  0.0929 -0.2916
  211DOPE   PO4 2468  34.008   7.614  12.396  0.2342  0.0687  0.0799
  211DOPE   GL1 2469  34.404   7.739  12.646  0.0998 -0.2451  0.0457
  211DOPE   GL2 2470  34.485   7.839  12.393 -0.0021  0.2219 -0.0729
  211DOPE   C1A 2471  34.494   8.160  12.850  0.1488  0.1227  0.2461
  211DOPE   D2A 2472  34.509   8.555  13.094  0.5178  0.2233  0.1375
  211DOPE   C3A 2473  34.827   8.487  13.431 -0.1860  0.3222 -0.0557
  211DOPE   C4A 2474  34.840   8.796  13.792  0.0316 -0.1925  0.0214
  211DOPE   C1B 2475  34.887   7.971  12.568  0.1128  0.0591  0.1009
  211DOPE   D2B 2476  35.048   8.154  12.986 -0.2509 -0.2925 -0.2255
  211DOPE   C3B 2477  35.037   7.924  13.326 -0.2684  0.2851  0.0894
  211DOPE   C4B 2478  34.716   7.620  13.479  0.2150  0.2120 -0.1419
  212DOPE   NH3 2479  11.422   9.625  12.250 -0.0873 -0.0223 -0.0844
  212DOPE   PO4 2480  11.603   9.810  12.436  0.0069 -0.2393 -0.0049
  212DOPE   GL1 2481  11.487   9.840  12.748 -0.1110  0.1659  0.2381
  212DOPE   GL2 2482  11.205   9.833  12.893  0.0806  0.2995  0.2364
  212DOPE   C1A 2483  11.587   9.728  13.219 -0.2091  0.0653  0.1895
  212DOPE   D2A 2484  11.740   9.690  13.641  0.1963  0.3891  0.0118
  212DOPE   C3A 2485  11.391   9.818  13.960  0.0186  0.2509  0.1489
  212DOPE   C4A 2486  11.340  10.034  14.300 -0.1595  0.0973  0.2844
  212DOPE   C1B 2487  10.809   9.625  13.051  0.1615 -0.0245 -0.3438
  212DOPE   D2B 2488  10.365   9.632  13.102 -0.0939 -0.0661 -0.0394
  212DOPE   C3B 2489  10.448   9.664  13.583  0.1395 -0.0916 -0.2716
  212DOPE   C4B 2490  10.358   9.544  14.027  0.1031 -0.0318 -0.3831
  213DOPE   NH3 2491   6.227   5.550  12.550  0.0375  0.0441  0.3650
  213DOPE   PO4 2492   6.228   5.536  12.886  0.1901  0.0769  0.3999
  213DOPE   GL1 2493   6.229   5.500  13.277  0.0796  0.3569 -0.1376
  213DOPE   GL2 2494   6.483   5.309  13.273  0.1013 -0.1277 -0.2091
  213DOPE   C1A 2495   6.084   5.749  13.650 -0.0350 -0.2159  0.0907
  213DOPE   D2A 2496   5.970   5.830  14.133  0.1669 -0.2273 -0.3215
  213DOPE   C3A 2497   6.311   6.122  14.197  0.4379 -0.0397  0.0805
  213DOPE   C4A 2498   6.725   5.991  13.972  0.0169 -0.1862 -0.1292
  213DOPE   C1B 2499   6.207   5.205  13.613  0.0797 -0.1595 -0.1217
  213DOPE   D2B 2500   6.101   5.285  14.056  0.1743 -0.1777  0.0879
  213DOPE   C3B 2501   5.947   4.989  14.372  0.0429  0.0955  0.2370
  213DOPE   C4B 2502   5.834   4.628  14.579 -0.2330 -0.0316 -0.1913
  214POSM   NC3 2503   1.622   7.607  11.997 -0.3717 -0.0925 -0.1563
  214POSM   PO4 2504   1.368   7.884  12.100  0.0180 -0.2549 -0.1676
  214POSM   AM1 2505   1.506   7.919  12.411 -0.1813 -0.3224 -0.0461
  214POSM   AM2 2506   1.435   7.884  12.666  0.0748 -0.0006 -0.0463
  214POSM   T1A 2507   1.772   8.214  12.742 -0.0678  0.0882 -0.3547
  214POSM   C2A 2508   1.771   8.567  13.089 -0.0312 -0.1621  0.0945
  214POSM   C3A 2509   1.651   8.791  13.516 -0.1447 -0.0761  0.0809
  214POSM   C1B 2510   1.328   7.817  12.985  0.0634 -0.1473 -0.1725
  214POSM   D2B 2511   1.112   7.664  13.347 -0.1959 -0.0533 -0.1317
  214POSM   C3B 2512   1.088   8.011  13.655 -0.3122 -0.0599  0.1280
  214POSM   C4B 2513   1.341   8.341  13.815  0.1791 -0.0937 -0.1021
  215DOPE   NH3 2514   3.987   7.133  12.873  0.1438 -0.0712  0.1675
  215DOPE   PO4 2515   4.103   7.442  12.896  0.2668 -0.1335  0.1103
  215DOPE   GL1 2516   3.994   7.425  13.293 -0.0664  0.0189 -0.0059
  215DOPE   GL2 2517   4.146   7.129  13.325 -0.1219  0.0704 -0.0267
  215DOPE   C1A 2518   4.036   7.794  13.593  0.3325 -0.0140  0.0462
  215DOPE   D2A 2519   3.713   8.108  13.810  0.3728  0.0823 -0.1229
  215DOPE   C3A 2520   3.841   8.599  13.903  0.2940 -0.2258 -0.0905
  215DOPE   C4A 2521   4.128   8.900  14.171 -0.2778  0.1174 -0.3104
  215DOPE   C1B 2522   4.101   7.261  13.783 -0.1174  0.1823 -0.0390
  215DOPE   D2B 2523   4.197   7.633  14.076 -0.3101 -0.0353  0.2040
  215DOPE   C3B 2524   4.154   8.072  14.138 -0.4113 -0.0787 -0.0490
  215DOPE   C4B 2525   4.248   8.388  13.775  0.0326 -0.1548  0.0956
  216POSM   NC3 2526   7.240   6.782  12.740 -0.0009 -0.1250  0.0246
  216POSM   PO4 2527   7.122   6.846  12.381 -0.0078 -0.1534 -0.1439
  216POSM   AM1 2528   7.155   7.183  12.475  0.0349  0.0309  0.0013
  216POSM   AM2 2529   7.158   7.306  12.718  0.1246  0.0434 -0.0740
  216POSM   T1A 2530   7.044   7.683  12.441  0.0924  0.1409 -0.0310
  216POSM   C2A 2531   6.844   7.994  12.741  0.0083  0.1461 -0.1700
  216POSM   C3A 2532   6.907   8.153  13.216 -0.1368  0.0660 -0.2568
  216POSM   C1B 2533   7.183   7.572  12.896  0.0290 -0.2044 -0.2304
  216POSM   D2B 2534   7.313   7.814  13.228  0.0139  0.1546 -0.0022
  216POSM   C3B 2535   7.496   7.593  13.561  0.0665  0.0767 -0.1983
  216POSM   C4B 2536   7.501   7.112  13.706 -0.0090  0.2070 -0.3933
  217POSM   NC3 2537   1.078   0.522  12.669  0.0718  0.0211  0.1113
  217POSM   PO4 2538   0.704   0.510  12.518 -0.3093  0.1625  0.2408
  217POSM   AM1 2539   0.703   0.678  12.820 -0.1462 -0.2492 -0.0540
  217POSM   AM2 2540   0.763   0.645  13.079 -0.1803  0.0940 -0.0407
  217POSM   T1A 2541   0.752   1.114  13.067  0.0346  0.1729 -0.1468
  217POSM   C2A 2542   0.904   1.326  13.423  0.1956  0.5517 -0.1577
  217POSM   C3A 2543   0.791   1.521  13.856  0.3882 -0.0475  0.0087
  217POSM   C1B 2544   0.713   0.673  13.407  0.1212 -0.4297 -0.1097
  217POSM   D2B 2545   0.591   0.981  13.671  0.0654 -0.3023 -0.0633
  217POSM   C3B 2546   0.990   1.038  13.924 -0.1006  0.0965  0.1741
  217POSM   C4B 2547   1.202   1.369  14.152  0.0885  0.0132 -0.0134
  218DOPC   NC3 2548  11.103   9.146  12.246 -0.1392  0.2091  0.0661
  218DOPC   PO4 2549  11.124   8.760  12.185  0.1309 -0.0826  0.1634
  218DOPC   GL1 2550  10.698   8.914  12.111 -0.0121  0.1814  0.2001
  218DOPC   GL2 2551  10.396   8.743  12.188  0.1423 -0.2173 -0.0325
  218DOPC   C1A 2552  10.382   9.292  12.142 -0.3834  0.0984 -0.0080
  218DOPC   D2A 2553  10.367   9.775  12.241  0.1433 -0.1613  0.1188
  218DOPC   C3A 2554  10.521  10.263  12.251  0.1064  0.1803 -0.0521
  218DOPC   C4A 2555  10.862  10.527  12.427  0.2510 -0.1306 -0.2069
  218DOPC   C1B 2556   9.964   8.868  12.264  0.0135  0.0473 -0.2461
  218DOPC   D2B 2557   9.622   8.796  12.580  0.1290  0.4180  0.2547
  218DOPC   C3B 2558   9.283   9.051  12.318 -0.1992  0.1685  0.0434
  218DOPC   C4B 2559   8.978   9.340  12.249 -0.2001  0.0828 -0.1515
  219DOPC   NC3 2560   6.909   8.782  12.729 -0.0680 -0.0445 -0.0088
  219DOPC   PO4 2561   7.098   8.491  12.552 -0.1542 -0.2398 -0.2783
  219DOPC   GL1 2562   7.487   8.476  12.394 -0.1703  0.0181  0.3108
  219DOPC   GL2 2563   7.561   8.743  12.506 -0.2089 -0.0590  0.1957
  219DOPC   C1A 2564   7.927   8.319  12.571  0.0006  0.0470  0.0480
  219DOPC   D2A 2565   8.144   8.256  13.034 -0.1742  0.2075 -0.2555
  219DOPC   C3A 2566   8.057   8.535  13.375  0.0859 -0.1163 -0.0968
  219DOPC   C4A 2567   8.279   8.703  13.687  0.1268 -0.0615  0.2307
  219DOPC   C1B 2568   7.762   9.024  12.811  0.0756  0.2355 -0.4147
  219DOPC   D2B 2569   8.218   9.183  12.823  0.3584 -0.0575 -0.2637
  219DOPC   C3B 2570   8.387   9.042  13.248 -0.0369  0.1521 -0.0105
  219DOPC   C4B 2571   8.597   9.129  13.654 -0.3364  0.1922 -0.2496
  220DOPC   NC3 2572   2.830   4.997  12.239 -0.1010 -0.2514 -0.2523
  220DOPC   PO4 2573   3.084   5.215  12.443  0.0416 -0.1025 -0.0309
  220DOPC   GL1 2574   3.424   4.982  12.622 -0.1239  0.3084  0.2198
  220DOPC   GL2 2575   3.699   4.960  12.371  0.0770  0.1467  0.1718
  220DOPC   C1A 2576   3.646   4.951  13.003  0.1133 -0.1973 -0.1552
  220DOPC   D2A 2577   3.915   4.643  13.221 -0.3335 -0.1660 -0.4228
  220DOPC   C3A 2578   4.263   4.857  13.550  0.0037  0.0501 -0.0362
  220DOPC   C4A 2579   4.631   4.834  13.828 -0.2664  0.0885 -0.1711
  220DOPC   C1B 2580   4.183   4.892  12.279 -0.0183 -0.0404  0.1257
  220DOPC   D2B 2581   4.605   4.892  12.375 -0.0157 -0.4436  0.0862
  220DOPC   C3B 2582   4.693   4.522  12.701 -0.2360  0.1090  0.0207
  220DOPC   C4B 2583   4.603   4.130  12.893  0.1889 -0.0523  0.2869
  221DOPE   NH3 2584   7.081   1.088  11.949 -0.0133  0.0540  0.1165
  221DOPE   PO4 2585   7.324   1.027  12.138 -0.0459  0.2449  0.3110
  221DOPE   GL1 2586   7.303   1.046  12.596 -0.1856  0.4485 -0.1548
  221DOPE   GL2 2587   7.105   1.236  12.668  0.1099 -0.1462  0.3572
  221DOPE   C1A 2588   7.432   0.836  13.014  0.5265  0.0642  0.2176
  221DOPE   D2A 2589   7.566   0.559  13.400  0.2618 -0.2647  0.1720
  221DOPE   C3A 2590   7.207   0.570  13.677  0.2334 -0.0449 -0.3284
  221DOPE   C4A 2591   6.735   0.554  13.723 -0.1967 -0.0952 -0.0873
  221DOPE   C1B 2592   7.321   1.327  13.071 -0.3396  0.2215  0.3444
  221DOPE   D2B 2593   7.316   1.435  13.522  0.3267 -0.1431 -0.0839
  221DOPE   C3B 2594   6.984   1.409  13.795  0.1972 -0.3494 -0.2119
  221DOPE   C4B 2595   6.510   1.510  13.684 -0.1241  0.1006  0.1549
  222POSM   NC3 2596   6.006   0.315  12.429  0.0762 -0.0711 -0.1130
  222POSM   PO4 2597   5.616   0.118  12.397  0.0457 -0.1071 -0.0111
  222POSM   AM1 2598   5.635   0.047  12.725 -0.0040 -0.4126 -0.4350
  222POSM   AM2 2599   5.885   0.031  12.888  0.0040 -0.1071  0.1359
  222POSM   T1A 2600   5.537  -0.333  13.111  0.1056 -0.0176 -0.2722
  222POSM   C2A 2601   5.702  -0.532  13.548 -0.0615 -0.1321  0.0227
  222POSM   C3A 2602   5.913  -0.690  13.917 -0.2392 -0.0021  0.1951
  222POSM   C1B 2603   6.110   0.285  12.947  0.1502  0.1031 -0.0867
  222POSM   D2B 2604   6.351   0.633  13.184  0.2036 -0.0245  0.2125
  222POSM   C3B 2605   6.882   0.672  13.246 -0.1697  0.2195  0.3332
  222POSM   C4B 2606   7.167   0.955  13.396  0.0253  0.0057 -0.2675
  223DOPE   NH3 2607   0.650   9.867  12.311 -0.1485  0.2176  0.0528
  223DOPE   PO4 2608   0.501   9.763  12.583 -0.1133  0.2918 -0.1579
  223DOPE   GL1 2609   0.804   9.596  12.722  0.0900 -0.3239 -0.1901
  223DOPE   GL2 2610   0.809   9.344  12.683 -0.1277 -0.0234  0.1853
  223DOPE   C1A 2611   1.117   9.648  13.106  0.0573  0.0991 -0.0296
  223DOPE   D2A 2612   1.321   9.395  13.446 -0.0146 -0.1126 -0.0757
  223DOPE   C3A 2613   1.176   8.994  13.745  0.1153  0.2127 -0.1404
  223DOPE   C4A 2614   0.952   8.588  13.643 -0.0776 -0.1389 -0.1934
  223DOPE   C1B 2615   0.814   9.081  13.108  0.2155  0.2115 -0.1195
  223DOPE   D2B 2616   0.452   9.031  13.426  0.1095  0.1349  0.0855
  223DOPE   C3B 2617   0.644   8.939  13.854 -0.0846 -0.0953  0.0529
  223DOPE   C4B 2618   0.591   8.983  14.278  0.0308  0.0062 -0.2326
  224DOPC   NC3 2619  10.429   0.664  11.941 -0.2803  0.0221 -0.1618
  224DOPC   PO4 2620  10.149   0.921  12.035 -0.0100 -0.0183 -0.0611
  224DOPC   GL1 2621  10.048   0.637  12.289  0.1197 -0.3160 -0.2941
  224DOPC   GL2 2622  10.292   0.517  12.447 -0.4207 -0.1621  0.2674
  224DOPC   C1A 2623   9.745   0.448  12.531  0.1474 -0.1874  0.0307
  224DOPC   D2A 2624   9.357   0.226  12.420 -0.1585 -0.0337  0.2161
  224DOPC   C3A 2625   9.196  -0.047  12.770  0.1110 -0.2626  0.2131
  224DOPC   C4A 2626   9.332  -0.439  13.000  0.0679 -0.0279  0.1127
  224DOPC   C1B 2627  10.131   0.183  12.726  0.0890  0.2773 -0.0576
  224DOPC   D2B 2628  10.057  -0.092  13.142 -0.1796 -0.0901 -0.1208
  224DOPC   C3B 2629   9.737   0.100  13.507 -0.0080 -0.1269  0.2732
  224DOPC   C4B 2630   9.490   0.287  13.855  0.1726 -0.0441 -0.1640
  225POSM   NC3 2631   7.660   0.623  12.074  0.2342 -0.2353 -0.1448
  225POSM   PO4 2632   7.436   0.402  12.298 -0.3189 -0.1591 -0.2331
  225POSM   AM1 2633   7.648   0.539  12.526 -0.2405  0.0156 -0.3273
  225POSM   AM2 2634   7.721   0.550  12.827 -0.0382  0.0423  0.2157
  225POSM   T1A 2635   8.154   0.665  12.552 -0.0294 -0.1070  0.1230
  225POSM   C2A 2636   8.424   0.450  12.832  0.0799 -0.0342  0.1426
  225POSM   C3A 2637   8.727   0.190  13.024  0.0680 -0.0381 -0.2202
  225POSM   C1B 2638   7.972   0.603  13.034  0.1741  0.1341  0.0006
  225POSM   D2B 2639   8.252   0.377  13.280 -0.3730 -0.2372 -0.0560
  225POSM   C3B 2640   8.602   0.645  13.265 -0.3438  0.0779 -0.1594
  225POSM   C4B 2641   9.037   0.554  13.111 -0.0794 -0.0877 -0.0683
  226DOPE   NH3 2642   8.579   5.566  12.821  0.3202  0.2102 -0.2969
  226DOPE   PO4 2643   8.442   5.630  12.531  0.1185 -0.0350  0.2856
  226DOPE   GL1 2644   8.066   5.639  12.703  0.0598 -0.2224  0.3047
  226DOPE   GL2 2645   8.078   5.670  12.928 -0.1116  0.0732  0.0814
  226DOPE   C1A 2646   7.683   5.952  12.579  0.0286  0.2185 -0.0616
  226DOPE   D2A 2647   7.542   6.375  12.733 -0.0632  0.0771  0.1913
  226DOPE   C3A 2648   7.741   6.481  13.155  0.0301 -0.0022  0.0028
  226DOPE   C4A 2649   8.151   6.648  13.286  0.2506  0.2922  0.0622
  226DOPE   C1B 2650   8.257   5.502  13.311  0.2919 -0.0388  0.3490
  226DOPE   D2B 2651   8.647   5.489  13.588  0.0236  0.0561  0.2189
  226DOPE   C3B 2652   8.650   5.348  13.995  0.2644  0.0957  0.2490
  226DOPE   C4B 2653   8.731   5.422  14.429  0.2005  0.0858 -0.2880
  227DOPE   NH3 2654   0.349   3.560  12.468  0.0577 -0.1497 -0.3238
  227DOPE   PO4 2655   0.342   3.857  12.600  0.1807  0.0143  0.1869
  227DOPE   GL1 2656   0.387   4.030  12.968  0.0095 -0.1565  0.0069
  227DOPE   GL2 2657   0.255   4.346  12.971 -0.0539 -0.0596  0.2038
  227DOPE   C1A 2658   0.370   3.865  13.430  0.2091 -0.3041  0.1708
  227DOPE   D2A 2659  -0.010   4.057  13.721  0.1037  0.3206 -0.3924
  227DOPE   C3A 2660  -0.379   4.186  13.912 -0.1037  0.0284  0.2580
  227DOPE   C4A 2661  -0.433   4.620  14.114  0.0193  0.0263  0.2284
  227DOPE   C1B 2662   0.311   4.748  13.170  0.3409  0.2291 -0.0256
  227DOPE   D2B 2663   0.122   5.128  13.394  0.0707  0.1351  0.2114
  227DOPE   C3B 2664  -0.305   5.129  13.459  0.0522 -0.0692 -0.0235
  227DOPE   C4B 2665  -0.578   5.077  13.847 -0.3203  0.1078 -0.1470
  228DOPC   NC3 2666   5.122   6.686  12.595  0.0411 -0.3489 -0.2771
  228DOPC   PO4 2667   4.945   6.782  12.929  0.3096  0.0649 -0.0340
  228DOPC   GL1 2668   4.822   6.537  13.134  0.1356 -0.3628 -0.4711
  228DOPC   GL2 2669   5.042   6.428  13.324  0.2889 -0.0536 -0.1256
  228DOPC   C1A 2670   4.453   6.604  13.481 -0.2831 -0.3910 -0.1660
  228DOPC   D2A 2671   4.146   6.752  13.785 -0.0151  0.1176 -0.0399
  228DOPC   C3A 2672   3.753   6.824  13.680 -0.0134  0.1146  0.1163
  228DOPC   C4A 2673   3.435   7.094  13.859  0.0512  0.0929  0.1672
  228DOPC   C1B 2674   4.880   6.197  13.656 -0.0278 -0.0465 -0.1752
  228DOPC   D2B 2675   4.621   6.387  13.995  0.2958  0.2854  0.1876
  228DOPC   C3B 2676   4.463   5.986  14.071 -0.4283  0.2086 -0.0280
  228DOPC   C4B 2677   4.260   5.655  14.309  0.0397 -0.1129 -0.0651
  229DOPE   NH3 2678   1.973   7.755  12.381  0.0350  0.1358  0.4298
  229DOPE   PO4 2679   2.106   7.476  12.415 -0.0884  0.0737 -0.1160
  229DOPE   GL1 2680   1.778   7.586  12.737  0.1091  0.0851  0.2945
  229DOPE   GL2 2681   1.620   7.351  12.850  0.2498  0.1620 -0.3840
  229DOPE   C1A 2682   1.854   7.905  13.118 -0.1848  0.4717  0.1753
  229DOPE   D2A 2683   1.586   8.103  13.441 -0.0413  0.1562  0.1238
  229DOPE   C3A 2684   1.801   8.018  13.835 -0.0651 -0.0193 -0.1293
  229DOPE   C4A 2685   1.991   7.649  14.048  0.1903 -0.1009  0.1136
  229DOPE   C1B 2686   1.438   7.328  13.255  0.0829  0.1380 -0.0136
  229DOPE   D2B 2687   1.494   7.559  13.610 -0.2539  0.2513  0.2780
  229DOPE   C3B 2688   1.079   7.344  13.788  0.0047 -0.1293 -0.0417
  229DOPE   C4B 2689   0.781   7.447  14.175 -0.3289  0.1162  0.0795
  230POSM   NC3 2690   7.973   5.146  13.103  0.1213  0.2010  0.4402
  230POSM   PO4 2691   7.699   5.332  12.869  0.1819  0.0826 -0.2406
  230POSM   AM1 2692   7.680   5.535  13.128 -0.4016  0.1619  0.0064
  230POSM   AM2 2693   7.746   5.492  13.389  0.0444 -0.1750  0.2156
  230POSM   T1A 2694   7.383   5.799  13.453 -0.0013 -0.2431  0.2653
  230POSM   C2A 2695   7.162   5.615  13.824 -0.0796 -0.0259  0.0655
  230POSM   C3A 2696   7.093   5.584  14.287 -0.1947  0.1125  0.1476
  230POSM   C1B 2697   7.601   5.425  13.670 -0.0597 -0.2139 -0.0145
  230POSM   D2B 2698   7.586   5.229  14.102 -0.1514 -0.1184  0.3122
  230POSM   C3B 2699   7.386   5.221  14.475  0.6023  0.0141  0.2576
  230POSM   C4B 2700   7.093   5.298  14.833 -0.1931  0.1897 -0.0437
  231DOPC   NC3 2701   7.597   6.681  12.296 -0.0167 -0.2586 -0.2639
  231DOPC   PO4 2702   7.859   6.789  12.062 -0.0072 -0.0518  0.1551
  231DOPC   GL1 2703   8.244   6.928  11.947 -0.1140 -0.1758  0.0952
  231DOPC   GL2 2704   8.288   7.107  12.228  0.0184  0.2035 -0.0740
  231DOPC   C1A 2705   8.586   7.167  11.823 -0.0728 -0.2071 -0.0733
  231DOPC   D2A 2706   8.945   7.299  12.050  0.1983  0.1772  0.2155
  231DOPC   C3A 2707   9.126   7.597  12.436  0.3520 -0.2311 -0.1625
  231DOPC   C4A 2708   9.153   7.897  12.869  0.1321 -0.1053  0.0950
  231DOPC   C1B 2709   8.570   7.477  12.340 -0.0642 -0.1470  0.0174
  231DOPC   D2B 2710   8.714   7.873  12.334  0.1656  0.2642  0.2197
  231DOPC   C3B 2711   8.522   8.138  12.682 -0.2354  0.0598  0.0189
  231DOPC   C4B 2712   8.506   8.570  12.638  0.4038 -0.2814  0.2204
  232POSM   NC3 2713   7.082  10.880  12.396 -0.1146 -0.0745  0.1195
  232POSM   PO4 2714   7.022  11.103  12.727  0.0379 -0.2027  0.2226
  232POSM   AM1 2715   7.113  11.038  13.064 -0.2760  0.0420  0.0909
  232POSM   AM2 2716   7.118  11.241  13.269 -0.3132  0.0843 -0.1103
  232POSM   T1A 2717   6.838  10.787  13.444 -0.2941 -0.3913 -0.1392
  232POSM   C2A 2718   6.475  10.595  13.563  0.0150 -0.1140  0.1711
  232POSM   C3A 2719   6.060  10.562  13.734  0.1651 -0.0966  0.2193
  232POSM   C1B 2720   7.249  11.433  13.464  0.1794 -0.2346 -0.1057
  232POSM   D2B 2721   7.518  11.799  13.659  0.1507  0.3255  0.0905
  232POSM   C3B 2722   7.477  12.170  13.437  0.1881 -0.1704  0.2199
  232POSM   C4B 2723   7.369  12.547  13.177  0.4680  0.0385 -0.0993
  233DOPE   NH3 2724   5.478   0.640  12.238  0.0579 -0.1039 -0.0568
  233DOPE   PO4 2725   5.611   0.604  12.527 -0.1461  0.3031  0.2971
  233DOPE   GL1 2726   5.692   0.561  12.878 -0.1335  0.0473  0.0331
  233DOPE   GL2 2727   5.519   0.419  12.977  0.0108  0.0466 -0.2151
  233DOPE   C1A 2728   5.815   0.582  13.291  0.1228 -0.3338  0.3354
  233DOPE   D2A 2729   5.877   0.373  13.725 -0.0852 -0.0685  0.0546
  233DOPE   C3A 2730   5.931   0.499  14.142 -0.0378 -0.3885  0.0525
  233DOPE   C4A 2731   6.129   0.160  14.390  0.1852 -0.2146 -0.0522
  233DOPE   C1B 2732   5.562   0.119  13.302 -0.0678 -0.1412 -0.0260
  233DOPE   D2B 2733   5.953  -0.086  13.521 -0.1422 -0.1537 -0.0386
  233DOPE   C3B 2734   6.000  -0.149  13.975 -0.0982  0.2321  0.3143
  233DOPE   C4B 2735   5.945  -0.366  14.387  0.1010 -0.0627  0.0147
  234DOPC   NC3 2736   8.405   4.704  12.751  0.1059  0.3536  0.0966
  234DOPC   PO4 2737   8.357   4.417  12.544  0.1148  0.0585  0.0122
  234DOPC   GL1 2738   8.515   4.120  12.740 -0.0898  0.1366  0.1205
  234DOPC   GL2 2739   8.636   4.309  12.951 -0.0702 -0.0287  0.2627
  234DOPC   C1A 2740   8.949   3.943  12.815 -0.1720  0.0017 -0.2368
  234DOPC   D2A 2741   9.254   3.693  12.566  0.0535  0.1018 -0.0520
  234DOPC   C3A 2742   9.190   3.316  12.349  0.2255 -0.1178  0.1008
  234DOPC   C4A 2743   8.845   3.067  12.384 -0.1483  0.0535 -0.2478
  234DOPC   C1B 2744   8.767   4.665  13.180 -0.0013  0.0196  0.0720
  234DOPC   D2B 2745   9.140   4.855  13.397  0.0420 -0.3093 -0.1834
  234DOPC   C3B 2746   9.314   4.415  13.627 -0.3584  0.1212  0.0306
  234DOPC   C4B 2747   9.346   4.040  14.017 -0.3104  0.1677 -0.0598
  235DOPE   NH3 2748  11.451   0.190  12.119 -0.0985 -0.1535  0.1401
  235DOPE   PO4 2749  11.583   0.460  11.992  0.0486  0.3044  0.0292
  235DOPE   GL1 2750  11.746   0.649  12.318  0.1599  0.0175 -0.2611
  235DOPE   GL2 2751  11.740   0.492  12.566 -0.3214 -0.1837 -0.1090
  235DOPE   C1A 2752  11.752   1.027  12.629  0.0594 -0.1509 -0.0289
  235DOPE   D2A 2753  11.840   1.155  13.050 -0.1999 -0.1603 -0.1659
  235DOPE   C3A 2754  11.935   1.191  13.494  0.1401 -0.0416  0.0747
  235DOPE   C4A 2755  11.968   1.015  13.914  0.0481 -0.3642  0.2150
  235DOPE   C1B 2756  11.811   0.691  12.997 -0.1967  0.0172  0.0396
  235DOPE   D2B 2757  11.654   0.752  13.447 -0.1209  0.1196 -0.3405
  235DOPE   C3B 2758  11.826   0.499  13.850 -0.0090 -0.0798  0.0066
  235DOPE   C4B 2759  11.943   0.230  14.270  0.2599 -0.3404  0.1343
  236POSM   NC3 2760   1.425   3.990  12.150 -0.1202  0.0025 -0.2840
  236POSM   PO4 2761   1.211   3.958  12.473 -0.1273  0.3295 -0.1507
  236POSM   AM1 2762   1.214   4.095  12.789 -0.0311 -0.0172 -0.0772
  236POSM   AM2 2763   1.055   4.189  13.000  0.2008 -0.0519 -0.1703
  236POSM   T1A 2764   1.446   3.983  13.257  0.1145 -0.0387  0.2084
  236POSM   C2A 2765   1.457   3.748  13.658  0.0801  0.4082 -0.0084
  236POSM   C3A 2766   1.600   3.766  14.116  0.1284  0.1742  0.0043
  236POSM   C1B 2767   1.094   4.284  13.350  0.4075  0.1763  0.0138
  236POSM   D2B 2768   1.467   4.276  13.674  0.2425  0.0905 -0.0877
  236POSM   C3B 2769   1.265   4.270  14.109  0.1018 -0.1206 -0.1934
  236POSM   C4B 2770   1.183   3.932  14.415 -0.0177 -0.0512  0.0647
  237DOPC   NC3 2771   5.430   6.636  12.974  0.0585 -0.2610  0.1025
  237DOPC   PO4 2772   5.697   6.639  12.638 -0.2256  0.1111  0.0452
  237DOPC   GL1 2773   5.959   6.785  12.876 -0.2233 -0.0574 -0.0774
  237DOPC   GL2 2774   5.935   6.597  13.078 -0.1201 -0.0967  0.4765
  237DOPC   C1A 2775   5.836   7.106  13.151 -0.4913 -0.2874  0.3339
  237DOPC   D2A 2776   5.942   7.548  13.224 -0.0029 -0.1092 -0.1194
  237DOPC   C3A 2777   6.015   7.795  13.606 -0.1938  0.0792  0.0640
  237DOPC   C4A 2778   6.147   8.058  13.943 -0.1265  0.0395  0.0637
  237DOPC   C1B 2779   6.322   6.552  13.290 -0.0235 -0.0923  0.0828
  237DOPC   D2B 2780   6.646   6.794  13.400 -0.1602  0.0570 -0.3662
  237DOPC   C3B 2781   6.939   7.027  13.764  0.0232 -0.2032  0.0619
  237DOPC   C4B 2782   7.149   7.342  14.086  0.1667  0.1253 -0.1576
  238POSM   NC3 2783   9.229   1.602  11.939  0.1040 -0.3709  0.2162
  238POSM   PO4 2784   9.260   1.669  12.283  0.1700 -0.1381  0.1995
  238POSM   AM1 2785   8.976   1.695  12.481  0.1305 -0.1772  0.0117
  238POSM   AM2 2786   8.702   1.731  12.374 -0.2248 -0.0224 -0.0728
  238POSM   T1A 2787   8.599   1.365  12.645 -0.2928  0.1320  0.0116
  238POSM   C2A 2788   8.256   1.103  12.772  0.0233  0.0389  0.2492
  238POSM   C3A 2789   8.259   0.983  13.232  0.0358  0.3850  0.2551
  238POSM   C1B 2790   8.345   1.793  12.543  0.3678  0.0155 -0.2508
  238POSM   D2B 2791   8.057   1.836  12.944  0.0339  0.1021  0.0366
  238POSM   C3B 2792   7.851   2.115  13.253  0.0534 -0.2848  0.1198
  238POSM   C4B 2793   7.517   2.325  13.473 -0.1198 -0.0738  0.1264
  239POSM   NC3 2794   1.729   6.251  12.266 -0.1475 -0.0944 -0.2252
  239POSM   PO4 2795   1.603   6.633  12.202  0.0056  0.2888  0.1324
  239POSM   AM1 2796   1.404   6.769  12.448  0.2419 -0.1030 -0.1131
  239POSM   AM2 2797   1.395   6.961  12.640 -0.0648 -0.1374  0.0391
  239POSM   T1A 2798   0.983   6.596  12.602 -0.1478  0.0363  0.2508
  239POSM   C2A 2799   0.586   6.448  12.662 -0.3323  0.0439 -0.2166
  239POSM   C3A 2800   0.178   6.166  12.686  0.2941  0.0418  0.2170
  239POSM   C1B 2801   1.198   6.980  12.889 -0.1349  0.0340  0.2843
  239POSM   D2B 2802   0.864   7.188  13.234  0.2562 -0.0988  0.0292
  239POSM   C3B 2803   0.776   6.899  13.573  0.1726 -0.0031 -0.1867
  239POSM   C4B 2804   0.478   6.647  13.815 -0.1150 -0.0595  0.1045
  240DOPC   NC3 2805   5.121   1.735  12.324 -0.1599 -0.1591 -0.3409
  240DOPC   PO4 2806   4.962   1.858  12.645  0.1745  0.2351 -0.2174
  240DOPC   GL1 2807   4.959   1.903  13.064  0.1084 -0.1733 -0.3338
  240DOPC   GL2 2808   5.244   1.824  13.152  0.0118 -0.1368 -0.2887
  240DOPC   C1A 2809   4.938   2.090  13.464  0.1683 -0.1262 -0.3031
  240DOPC   D2A 2810   4.903   2.108  13.946  0.1399 -0.0268  0.0652
  240DOPC   C3A 2811   5.305   2.226  14.149  0.0669  0.0648  0.3262
  240DOPC   C4A 2812   5.718   2.384  14.315 -0.0120  0.0156 -0.1602
  240DOPC   C1B 2813   5.672   1.848  13.363  0.0373  0.0003  0.3647
  240DOPC   D2B 2814   5.966   1.530  13.490  0.0982  0.1470 -0.0760
  240DOPC   C3B 2815   5.988   1.365  13.904  0.2620 -0.2096  0.1814
  240DOPC   C4B 2816   5.937   0.977  14.094 -0.3211 -0.0979 -0.3483
  241DOPE   NH3 2817   3.295   0.587  12.445 -0.2859 -0.3870 -0.0283
  241DOPE   PO4 2818   3.027   0.752  12.435  0.0614  0.1676  0.3401
  241DOPE   GL1 2819   2.935   0.979  12.773 -0.2019 -0.0178 -0.1485
  241DOPE   GL2 2820   2.817   1.219  12.723  0.2354  0.1076 -0.2395
  241DOPE   C1A 2821   3.109   1.145  13.170 -0.1383  0.2430  0.1627
  241DOPE   D2A 2822   3.480   1.438  13.281  0.1426 -0.3019  0.2204
  241DOPE   C3A 2823   3.280   1.825  13.291  0.0281  0.2316  0.0490
  241DOPE   C4A 2824   3.158   2.202  13.388 -0.0047  0.2149 -0.0601
  241DOPE   C1B 2825   2.913   1.612  12.967 -0.0967  0.0021  0.0306
  241DOPE   D2B 2826   2.706   1.774  13.290 -0.1625  0.0237 -0.1077
  241DOPE   C3B 2827   2.730   1.983  13.681 -0.1744  0.1431 -0.1935
  241DOPE   C4B 2828   2.797   2.118  14.112 -0.0366 -0.2791  0.1789
  242POSM   NC3 2829   3.880  12.085  12.150  0.0041 -0.0963 -0.1699
  242POSM   PO4 2830   3.521  12.081  12.335  0.0656 -0.0773 -0.2130
  242POSM   AM1 2831   3.474  12.044  12.689  0.4040  0.0116 -0.0664
  242POSM   AM2 2832   3.243  12.047  12.898 -0.1314  0.0650  0.3375
  242POSM   T1A 2833   3.545  12.239  13.188  0.0465  0.1705  0.1222
  242POSM   C2A 2834   3.548  12.112  13.665 -0.1021 -0.2046 -0.4198
  242POSM   C3A 2835   3.189  11.987  13.949 -0.1769 -0.2402 -0.3253
  242POSM   C1B 2836   3.048  11.833  13.110  0.0960 -0.0479  0.0096
  242POSM   D2B 2837   2.744  11.583  13.363 -0.0016  0.2262  0.1524
  242POSM   C3B 2838   2.790  11.798  13.796 -0.0205  0.0273  0.3234
  242POSM   C4B 2839   2.738  12.031  14.236 -0.1801  0.4312  0.5826
  243POSM   NC3 2840   4.422   1.800  12.140 -0.0079  0.4526  0.0050
  243POSM   PO4 2841   4.725   2.065  12.259  0.0852  0.1506  0.1237
  243POSM   AM1 2842   4.557   2.116  12.472  0.3005  0.0973 -0.6339
  243POSM   AM2 2843   4.421   1.908  12.664 -0.3191 -0.0434 -0.0953
  243POSM   T1A 2844   4.337   2.390  12.842  0.1951  0.3119  0.0111
  243POSM   C2A 2845   4.002   2.670  13.073 -0.2376 -0.0196  0.2446
  243POSM   C3A 2846   4.112   3.027  13.290  0.0138  0.2006  0.2556
  243POSM   C1B 2847   4.036   1.913  12.638  0.0513  0.3711  0.0269
  243POSM   D2B 2848   3.610   1.830  12.548  0.0368 -0.0606  0.1163
  243POSM   C3B 2849   3.241   2.011  12.779  0.0303 -0.2145  0.0922
  243POSM   C4B 2850   2.787   2.069  12.912  0.0919  0.0154 -0.2096
  244DOPS   CNO 2851   7.254   6.209  12.355 -0.0200 -0.1640 -0.1140
  244DOPS   PO4 2852   7.088   6.241  12.679  0.2537  0.0633  0.0558
  244DOPS   GL1 2853   7.246   6.133  12.941 -0.1046 -0.2793 -0.0018
  244DOPS   GL2 2854   7.012   5.934  13.102 -0.1883  0.0360  0.0548
  244DOPS   C1A 2855   7.215   6.284  13.372 -0.0702 -0.0228  0.0160
  244DOPS   D2A 2856   6.894   6.504  13.721  0.0612  0.0123 -0.0521
  244DOPS   C3A 2857   7.065   6.689  14.116 -0.0374  0.1181  0.2245
  244DOPS   C4A 2858   7.336   6.792  14.436  0.2290 -0.1689  0.2903
  244DOPS   C1B 2859   6.851   5.712  13.473 -0.1879 -0.0406  0.0771
  244DOPS   D2B 2860   6.602   5.548  13.794  0.0418  0.3390 -0.1556
  244DOPS   C3B 2861   6.535   5.651  14.289  0.3010 -0.2289 -0.0321
  244DOPS   C4B 2862   6.615   5.592  14.734 -0.0864  0.0205  0.0261
  245DOPC   NC3 2863   2.760   9.977  12.609  0.1800 -0.1850 -0.2978
  245DOPC   PO4 2864   2.949   9.791  12.326 -0.0261  0.1560  0.0806
  245DOPC   GL1 2865   2.849   9.472  12.651 -0.1494 -0.1404 -0.1774
  245DOPC   GL2 2866   3.075   9.352  12.589 -0.5218  0.3188  0.2020
  245DOPC   C1A 2867   2.461   9.487  12.866  0.1338 -0.1444 -0.0085
  245DOPC   D2A 2868   2.173   9.544  13.249  0.1457 -0.1699  0.3678
  245DOPC   C3A 2869   1.828   9.760  13.458  0.0015  0.1224  0.0663
  245DOPC   C4A 2870   1.539   9.882  13.784  0.0699  0.2014 -0.1867
  245DOPC   C1B 2871   2.701   9.022  12.542  0.1078  0.3204 -0.1182
  245DOPC   D2B 2872   2.326   8.941  12.817  0.0089 -0.0201 -0.0003
  245DOPC   C3B 2873   2.062   8.979  13.182  0.1551 -0.0610 -0.0259
  245DOPC   C4B 2874   2.161   9.048  13.638  0.2227 -0.0813  0.1377
  246POSM   NC3 2875  34.669   4.296  12.453  0.3570  0.3299 -0.1128
  246POSM   PO4 2876  34.915   4.560  12.507 -0.0767  0.3775  0.0304
  246POSM   AM1 2877  34.748   4.810  12.648 -0.1149  0.4841 -0.1739
  246POSM   AM2 2878  34.436   4.823  12.662  0.2682 -0.1324 -0.1574
  246POSM   T1A 2879  34.667   5.250  12.821 -0.0299  0.0845  0.0836
  246POSM   C2A 2880  34.526   5.713  12.779 -0.2179 -0.0459 -0.0366
  246POSM   C3A 2881  34.213   6.068  12.766 -0.1586  0.1171 -0.1036
  246POSM   C1B 2882  34.516   4.702  13.032  0.1787  0.2192 -0.0191
  246POSM   D2B 2883  34.539   4.562  13.486  0.0082  0.2024 -0.0357
  246POSM   C3B 2884  34.853   4.483  13.843 -0.0521 -0.0422 -0.1929
  246POSM   C4B 2885  35.254   4.401  14.006 -0.2449 -0.0092  0.2891
  247DOPE   NH3 2886   6.142   3.585  12.312  0.2966 -0.0691  0.1965
  247DOPE   PO4 2887   6.242   3.328  12.311 -0.0481  0.0934  0.0378
  247DOPE   GL1 2888   6.314   3.283  12.713  0.0105 -0.1708 -0.0769
  247DOPE   GL2 2889   6.112   3.038  12.861 -0.3326 -0.4141 -0.0752
  247DOPE   C1A 2890   6.358   3.471  13.195 -0.1287  0.4304  0.0410
  247DOPE   D2A 2891   6.164   3.585  13.602 -0.0370  0.0545  0.1153
  247DOPE   C3A 2892   6.388   3.641  14.013 -0.2359 -0.1447  0.2519
  247DOPE   C4A 2893   6.412   3.892  14.373  0.0800 -0.0065  0.0414
  247DOPE   C1B 2894   6.003   2.954  13.262 -0.0995  0.0767 -0.1818
  247DOPE   D2B 2895   6.085   3.101  13.691 -0.0102  0.2489  0.0130
  247DOPE   C3B 2896   6.114   3.141  14.125 -0.2021 -0.2429 -0.0721
  247DOPE   C4B 2897   6.357   3.092  14.461 -0.3759  0.1869 -0.0304
  248POSM   NC3 2898   1.853   7.048  12.490 -0.1529 -0.0485 -0.0329
  248POSM   PO4 2899   1.651   7.163  12.165 -0.0160 -0.1391  0.1428
  248POSM   AM1 2900   1.397   7.251  12.322 -0.3082 -0.0927  0.0903
  248POSM   AM2 2901   1.327   7.482  12.397 -0.2783  0.4078  0.0824
  248POSM   T1A 2902   0.943   7.102  12.416 -0.1208 -0.1772  0.0550
  248POSM   C2A 2903   0.697   7.197  12.754  0.2304 -0.1500  0.0952
  248POSM   C3A 2904   0.435   7.437  13.098 -0.1120 -0.0016 -0.0846
  248POSM   C1B 2905   1.083   7.521  12.658  0.1075 -0.0088  0.3716
  248POSM   D2B 2906   0.779   7.764  12.916 -0.3490 -0.0997 -0.3410
  248POSM   C3B 2907   0.836   8.039  13.200 -0.3815  0.0005 -0.1513
  248POSM   C4B 2908   0.588   8.327  13.412 -0.2110  0.0257 -0.1600
  249POSM   NC3 2909   3.251   6.689  12.678  0.4362 -0.0169  0.1355
  249POSM   PO4 2910   3.533   6.943  12.671 -0.2533 -0.0452  0.0398
  249POSM   AM1 2911   3.599   6.897  12.981 -0.0791 -0.0908  0.2162
  249POSM   AM2 2912   3.487   7.060  13.242  0.1817 -0.4278 -0.0917
  249POSM   T1A 2913   3.522   6.542  13.301  0.4025  0.4585  0.0023
  249POSM   C2A 2914   3.217   6.194  13.346  0.0678 -0.2877 -0.2564
  249POSM   C3A 2915   3.131   6.005  13.779  0.1324 -0.0395  0.1632
  249POSM   C1B 2916   3.521   7.382  13.460 -0.0363  0.0123 -0.0874
  249POSM   D2B 2917   3.318   7.773  13.672  0.1974 -0.1547 -0.2864
  249POSM   C3B 2918   3.189   7.917  14.121 -0.4343 -0.2335  0.0803
  249POSM   C4B 2919   3.487   8.023  14.550 -0.1957  0.0078 -0.1916
  250POSM   NC3 2920   1.949   6.115  12.846 -0.1800 -0.0640 -0.0658
  250POSM   PO4 2921   2.325   6.293  12.902  0.0689  0.3886  0.0503
  250POSM   AM1 2922   2.353   6.322  13.230  0.3112  0.0447  0.2595
  250POSM   AM2 2923   2.240   6.481  13.447  0.0627 -0.0151 -0.2988
  250POSM   T1A 2924   2.672   6.354  13.622  0.0227  0.2170  0.1488
  250POSM   C2A 2925   2.724   6.403  14.024  0.1389  0.1791  0.1550
  250POSM   C3A 2926   2.625   6.220  14.437  0.1321 -0.0300  0.0292
  250POSM   C1B 2927   2.104   6.778  13.539  0.1058  0.3815  0.3465
  250POSM   D2B 2928   1.928   7.174  13.638  0.2336 -0.0322 -0.0401
  250POSM   C3B 2929   1.561   7.167  13.862  0.1138  0.0108 -0.1585
  250POSM   C4B 2930   1.341   7.319  14.220 -0.0715  0.2703 -0.2417
  251DOPS   CNO 2931   8.722   4.755  12.120 -0.2161 -0.2520  0.0483
  251DOPS   PO4 2932   8.785   4.778  12.441 -0.2574 -0.3174 -0.1180
  251DOPS   GL1 2933   9.103   4.673  12.407 -0.1150  0.1087  0.1439
  251DOPS   GL2 2934   9.220   4.591  12.085  0.0401 -0.0987 -0.0529
  251DOPS   C1A 2935   9.381   4.334  12.541 -0.0233  0.0885  0.3622
  251DOPS   D2A 2936   9.487   4.011  12.908 -0.1235  0.1115 -0.1400
  251DOPS   C3A 2937   9.435   3.929  13.398 -0.2653  0.0647  0.1781
  251DOPS   C4A 2938   9.737   3.949  13.690 -0.1628 -0.2267 -0.0925
  251DOPS   C1B 2939   9.556   4.767  12.396  0.2564 -0.1253 -0.0600
  251DOPS   D2B 2940   9.770   4.838  12.876 -0.0929  0.2989  0.0483
  251DOPS   C3B 2941   9.797   5.165  13.179  0.1332 -0.2370  0.2694
  251DOPS   C4B 2942   9.800   5.501  13.533 -0.0670 -0.0826 -0.2075
  252POSM   NC3 2943   7.201   0.468  12.763  0.1924  0.0587  0.3707
  252POSM   PO4 2944   7.048   0.713  12.463 -0.2667  0.3704  0.0632
  252POSM   AM1 2945   6.821   0.954  12.441 -0.0211 -0.2020  0.0739
  252POSM   AM2 2946   6.589   0.997  12.635  0.0822 -0.2463 -0.1220
  252POSM   T1A 2947   6.754   1.440  12.380 -0.2229  0.1526  0.2532
  252POSM   C2A 2948   6.707   1.871  12.300  0.1254 -0.0914 -0.0629
  252POSM   C3A 2949   6.655   2.216  12.015 -0.0660 -0.0298 -0.1418
  252POSM   C1B 2950   6.716   1.043  12.953  0.3162 -0.1943 -0.0444
  252POSM   D2B 2951   6.853   1.335  13.279  0.1436  0.1401 -0.0883
  252POSM   C3B 2952   6.696   1.759  13.254  0.1327  0.2337  0.1406
  252POSM   C4B 2953   6.732   2.199  13.136  0.3061  0.3393 -0.3594
  253DOPE   NH3 2954  10.897   3.264  12.562  0.0635 -0.0524  0.2144
  253DOPE   PO4 2955  10.673   3.340  12.386  0.1632 -0.2066 -0.1373
  253DOPE   GL1 2956  10.647   3.793  12.530 -0.2968 -0.1104 -0.2398
  253DOPE   GL2 2957  10.484   3.819  12.260 -0.3624 -0.0453 -0.0040
  253DOPE   C1A 2958  10.850   4.127  12.805  0.0584  0.2374  0.1873
  253DOPE   D2A 2959  11.044   4.345  13.092  0.3037  0.1942 -0.0249
  253DOPE   C3A 2960  11.215   4.148  13.471  0.0250  0.0618  0.0310
  253DOPE   C4A 2961  11.605   3.946  13.617 -0.0341 -0.2291  0.0829
  253DOPE   C1B 2962  10.362   4.096  12.657 -0.1564 -0.1567 -0.0270
  253DOPE   D2B 2963  10.028   4.360  12.769  0.2178  0.3335 -0.1003
  253DOPE   C3B 2964   9.759   4.348  13.140 -0.1512  0.0065  0.1909
  253DOPE   C4B 2965   9.684   4.679  13.441  0.1773 -0.0796 -0.1225
  254DOPE   NH3 2966   9.997  11.324  12.237 -0.2493 -0.0897 -0.3319
  254DOPE   PO4 2967  10.145  11.286  11.928  0.1959  0.1849  0.2513
  254DOPE   GL1 2968  10.413  11.065  12.280 -0.0377 -0.1046 -0.0401
  254DOPE   GL2 2969  10.572  10.874  12.203 -0.1951  0.1790  0.4149
  254DOPE   C1A 2970  10.529  10.884  12.704 -0.0844 -0.0316 -0.0661
  254DOPE   D2A 2971  10.246  10.852  13.138  0.0223 -0.0118  0.1565
  254DOPE   C3A 2972  10.469  10.859  13.569  0.0610 -0.1026 -0.3405
  254DOPE   C4A 2973  10.712  10.551  13.879 -0.0059 -0.1535  0.3758
  254DOPE   C1B 2974  10.134  10.702  12.315 -0.0244  0.0102  0.3170
  254DOPE   D2B 2975   9.877  10.445  12.570 -0.0191  0.0255 -0.2067
  254DOPE   C3B 2976  10.076  10.363  12.950  0.2453 -0.1141  0.1637
  254DOPE   C4B 2977  10.278  10.191  13.325 -0.1069  0.0571  0.3029
  255DOPE   NH3 2978   4.443   6.826  13.030  0.0306 -0.5194 -0.0847
  255DOPE   PO4 2979   4.508   7.124  12.929 -0.1791 -0.0831  0.0451
  255DOPE   GL1 2980   4.651   7.100  13.344  0.1913 -0.2182 -0.0355
  255DOPE   GL2 2981   4.911   6.977  13.399 -0.0382  0.0639  0.2121
  255DOPE   C1A 2982   4.584   7.362  13.732 -0.0327 -0.2947  0.1151
  255DOPE   D2A 2983   4.767   7.561  14.100  0.2031  0.0985 -0.2858
  255DOPE   C3A 2984   4.448   7.735  14.459  0.1640 -0.0043 -0.0860
  255DOPE   C4A 2985   3.984   7.835  14.507  0.3854 -0.3541 -0.0576
  255DOPE   C1B 2986   4.982   6.663  13.791  0.0571 -0.0448  0.3076
  255DOPE   D2B 2987   5.000   6.604  14.244 -0.1462 -0.0565 -0.0371
  255DOPE   C3B 2988   5.282   6.355  14.555  0.0414 -0.2302  0.1477
  255DOPE   C4B 2989   5.500   5.933  14.510 -0.1518  0.1148  0.1882
  256DOPE   NH3 2990   0.920   3.153  12.283 -0.3814 -0.0239  0.1362
  256DOPE   PO4 2991   0.646   3.167  12.210 -0.0735  0.0969  0.0047
  256DOPE   GL1 2992   0.558   2.748  12.284  0.1649 -0.0791 -0.0543
  256DOPE   GL2 2993   0.745   2.635  12.039 -0.3664  0.0740  0.1228
  256DOPE   C1A 2994   0.239   2.406  12.184  0.3379 -0.3661  0.2782
  256DOPE   D2A 2995   0.343   2.011  11.963  0.1368  0.0665 -0.1970
  256DOPE   C3A 2996   0.805   1.889  12.125 -0.2894 -0.2622  0.0432
  256DOPE   C4A 2997   0.914   1.611  12.527  0.3027  0.2308 -0.1128
  256DOPE   C1B 2998   0.732   2.343  12.391 -0.2046  0.1214 -0.1559
  256DOPE   D2B 2999   0.599   2.041  12.685  0.0554 -0.1364  0.0896
  256DOPE   C3B 3000   0.414   2.108  13.096 -0.0481 -0.2289 -0.2931
  256DOPE   C4B 3001   0.351   1.977  13.556  0.2675  0.0800 -0.0886
  257POSM   NC3 3002   0.668   3.134  13.075  0.0619 -0.0182  0.1322
  257POSM   PO4 3003   0.612   3.205  12.679 -0.0572 -0.0717 -0.0126
  257POSM   AM1 3004   0.759   2.892  12.696 -0.0811  0.2180 -0.1277
  257POSM   AM2 3005   0.966   2.763  12.589 -0.0926 -0.1110  0.0588
  257POSM   T1A 3006   0.762   2.445  12.910  0.1709 -0.0284 -0.1834
  257POSM   C2A 3007   0.922   2.113  13.136  0.1183 -0.0270 -0.0383
  257POSM   C3A 3008   0.906   1.870  13.490  0.1893 -0.1044 -0.2240
  257POSM   C1B 3009   1.168   2.640  12.765  0.3891 -0.1885 -0.0686
  257POSM   D2B 3010   1.432   2.305  13.016  0.0540 -0.1178 -0.2571
  257POSM   C3B 3011   1.410   1.992  13.426  0.1374 -0.0946  0.0561
  257POSM   C4B 3012   1.328   1.783  13.833 -0.1004 -0.0406 -0.1147
  258DOPC   NC3 3013  11.431   8.883  12.551 -0.0423  0.2508 -0.3265
  258DOPC   PO4 3014  11.121   8.858  12.814 -0.0970 -0.3069  0.0512
  258DOPC   GL1 3015  10.842   9.072  12.705 -0.2460 -0.0061  0.1382
  258DOPC   GL2 3016  10.648   9.068  12.528  0.0560  0.1581 -0.1742
  258DOPC   C1A 3017  10.564   9.165  13.014 -0.0448 -0.0974  0.0307
  258DOPC   D2A 3018  10.221   9.127  13.294 -0.2381  0.1089 -0.2465
  258DOPC   C3A 3019  10.483   9.173  13.683 -0.1020 -0.1698  0.2485
  258DOPC   C4A 3020  10.791   8.943  13.933  0.2187 -0.2294  0.4181
  258DOPC   C1B 3021  10.228   9.047  12.625  0.2434  0.0594 -0.0674
  258DOPC   D2B 3022  10.012   9.382  12.887  0.2473  0.3675 -0.3389
  258DOPC   C3B 3023   9.670   9.412  12.586  0.1564 -0.0122 -0.3268
  258DOPC   C4B 3024   9.216   9.348  12.693  0.1768  0.1211 -0.2123
  259DOPC   NC3 3025   6.830  10.715  12.945 -0.0006  0.3087  0.2000
  259DOPC   PO4 3026   6.481  10.520  12.892 -0.2719  0.1262  0.0747
  259DOPC   GL1 3027   6.257  10.242  12.995  0.2386  0.5488 -0.1696
  259DOPC   GL2 3028   6.399   9.975  13.082 -0.4270 -0.0153 -0.2014
  259DOPC   C1A 3029   6.004  10.115  13.399  0.0155  0.3320  0.2975
  259DOPC   D2A 3030   5.582   9.840  13.473 -0.0404  0.0647  0.3056
  259DOPC   C3A 3031   5.133   9.756  13.497 -0.0189 -0.0555  0.1173
  259DOPC   C4A 3032   4.829   9.526  13.819 -0.0172 -0.0355  0.1193
  259DOPC   C1B 3033   6.050   9.640  13.137 -0.2887  0.0216  0.2248
  259DOPC   D2B 3034   5.712   9.335  13.129  0.2922  0.0741  0.1897
  259DOPC   C3B 3035   5.488   9.346  13.600 -0.1650 -0.1839  0.2946
  259DOPC   C4B 3036   5.406   9.650  13.976 -0.0869  0.0046 -0.1152
  260POSM   NC3 3037   2.173   5.080  12.277  0.2255 -0.1375 -0.0030
  260POSM   PO4 3038   1.952   5.194  12.590  0.2323  0.2542 -0.0734
  260POSM   AM1 3039   1.812   5.231  12.887 -0.1551 -0.1986 -0.2967
  260POSM   AM2 3040   1.872   5.284  13.163 -0.4870 -0.2796 -0.2103
  260POSM   T1A 3041   1.430   5.109  13.194  0.1201 -0.1941  0.0753
  260POSM   C2A 3042   1.022   4.901  13.369  0.0889 -0.0608  0.0691
  260POSM   C3A 3043   0.995   4.594  13.723  0.0560 -0.0888 -0.1454
  260POSM   C1B 3044   1.761   5.406  13.428  0.2324 -0.1856 -0.0849
  260POSM   D2B 3045   1.476   5.404  13.810  0.0541  0.0444 -0.0618
  260POSM   C3B 3046   1.146   5.736  13.793 -0.1043 -0.2345 -0.0585
  260POSM   C4B 3047   0.897   6.019  13.462  0.1652  0.3051 -0.1953
  261POSM   NC3 3048   8.068   6.206  12.897 -0.1159 -0.0489  0.2736
  261POSM   PO4 3049   8.381   6.121  12.684 -0.0987  0.0784 -0.1041
  261POSM   AM1 3050   8.624   6.032  12.924  0.0484 -0.0922  0.2217
  261POSM   AM2 3051   8.534   5.960  13.167 -0.0603  0.2749  0.2018
  261POSM   T1A 3052   8.939   5.729  13.187  0.0096 -0.1502  0.1963
  261POSM   C2A 3053   9.189   5.497  13.451 -0.0680 -0.1766 -0.1198
  261POSM   C3A 3054   9.128   5.291  13.870  0.2073  0.4836  0.1267
  261POSM   C1B 3055   8.450   6.015  13.481 -0.0218 -0.0055  0.1658
  261POSM   D2B 3056   8.249   6.192  13.844  0.2108 -0.3290 -0.2260
  261POSM   C3B 3057   7.987   6.584  13.803 -0.2105  0.1220 -0.0836
  261POSM   C4B 3058   7.644   6.758  14.075 -0.1937 -0.0286  0.0737
  262DOPS   CNO 3059   8.351   4.283  12.080 -0.3327 -0.0639  0.2280
  262DOPS   PO4 3060   8.217   3.971  11.965  0.0827  0.1124  0.2152
  262DOPS   GL1 3061   8.331   3.634  12.196 -0.1374  0.0163  0.0088
  262DOPS   GL2 3062   8.599   3.807  12.230  0.3947  0.0252 -0.1747
  262DOPS   C1A 3063   8.517   3.455  12.559 -0.1006  0.0732 -0.2516
  262DOPS   D2A 3064   8.405   3.061  12.838  0.0633 -0.0565  0.3363
  262DOPS   C3A 3065   8.234   2.570  12.821 -0.1931  0.1575  0.1015
  262DOPS   C4A 3066   8.033   2.689  13.218  0.0415 -0.2832  0.0520
  262DOPS   C1B 3067   8.842   3.471  12.052  0.1456 -0.4085 -0.0577
  262DOPS   D2B 3068   9.173   3.159  11.859 -0.0226 -0.4764 -0.0681
  262DOPS   C3B 3069   9.524   3.014  12.133  0.0325 -0.1338  0.0070
  262DOPS   C4B 3070   9.572   3.052  12.632  0.0182 -0.1391 -0.0424
  263DOPE   NH3 3071   7.557   7.165  12.135  0.1393  0.0630  0.1971
  263DOPE   PO4 3072   7.696   7.156  12.416 -0.0904 -0.1243  0.1199
  263DOPE   GL1 3073   7.763   7.535  12.516  0.0081 -0.2095 -0.4895
  263DOPE   GL2 3074   7.748   7.608  12.189  0.1414 -0.0184 -0.0658
  263DOPE   C1A 3075   7.478   7.876  12.627  0.1199  0.0180 -0.3754
  263DOPE   D2A 3076   7.341   8.232  12.940  0.3094 -0.0737  0.2385
  263DOPE   C3A 3077   7.317   8.260  13.432  0.0585  0.0007  0.0069
  263DOPE   C4A 3078   7.205   8.300  13.892  0.2112  0.2257 -0.0499
  263DOPE   C1B 3079   8.070   7.940  12.142  0.2903 -0.1791  0.4496
  263DOPE   D2B 3080   8.154   8.416  12.163 -0.0544 -0.0829  0.0779
  263DOPE   C3B 3081   8.062   8.778  12.416  0.2336  0.0409 -0.0499
  263DOPE   C4B 3082   8.017   9.262  12.385 -0.0088 -0.2660  0.0367
  264DOPC   NC3 3083   6.777   5.507  12.896  0.3935 -0.0455  0.2537
  264DOPC   PO4 3084   6.677   5.305  12.596  0.0600  0.1785 -0.1732
  264DOPC   GL1 3085   6.359   5.106  12.857  0.0705  0.2365 -0.0080
  264DOPC   GL2 3086   6.052   5.044  12.783  0.0374 -0.0701 -0.0738
  264DOPC   C1A 3087   6.473   4.827  13.195  0.1418  0.0387 -0.1815
  264DOPC   D2A 3088   6.508   4.410  13.425  0.3660 -0.1345 -0.2287
  264DOPC   C3A 3089   6.804   4.313  13.701  0.1744  0.0717 -0.3914
  264DOPC   C4A 3090   6.895   3.963  14.025  0.3123 -0.2926 -0.0943
  264DOPC   C1B 3091   6.000   4.985  13.231  0.0767 -0.1434 -0.1392
  264DOPC   D2B 3092   6.079   4.639  13.546  0.2488  0.0064  0.0964
  264DOPC   C3B 3093   5.834   4.641  13.962  0.1727 -0.2520 -0.1557
  264DOPC   C4B 3094   5.484   4.947  14.129  0.2048  0.1522 -0.0864
  265DOPC   NC3 3095   4.411   7.640  13.246  0.0749 -0.0224  0.2363
  265DOPC   PO4 3096   4.779   7.480  13.119 -0.1064 -0.0782 -0.1363
  265DOPC   GL1 3097   4.810   7.657  13.502  0.0068  0.4486  0.0353
  265DOPC   GL2 3098   5.065   7.534  13.588 -0.1897 -0.0750  0.0838
  265DOPC   C1A 3099   4.583   7.956  13.770  0.1278 -0.1560 -0.1305
  265DOPC   D2A 3100   4.672   8.139  14.215 -0.3260  0.2645  0.4036
  265DOPC   C3A 3101   5.061   8.430  14.135  0.1686 -0.2553  0.1395
  265DOPC   C4A 3102   5.383   8.739  14.021 -0.0124  0.3307  0.0423
  265DOPC   C1B 3103   5.092   7.161  13.830  0.0906  0.2371  0.2731
  265DOPC   D2B 3104   4.947   7.099  14.242 -0.1793 -0.1743 -0.1350
  265DOPC   C3B 3105   5.171   6.953  14.626 -0.1524  0.0649  0.3910
  265DOPC   C4B 3106   5.190   6.680  15.039 -0.2527  0.2142 -0.2057
  266DOPC   NC3 3107   4.096  10.049  12.551 -0.0160 -0.0981 -0.0444
  266DOPC   PO4 3108   3.964   9.826  12.267 -0.0634  0.2350  0.1171
  266DOPC   GL1 3109   4.117   9.498  12.420  0.2868  0.0903 -0.1585
  266DOPC   GL2 3110   3.989   9.511  12.670 -0.0332 -0.1032  0.0021
  266DOPC   C1A 3111   4.550   9.349  12.531 -0.1429  0.0068 -0.1590
  266DOPC   D2A 3112   4.919   9.313  12.742 -0.1130 -0.1521 -0.1527
  266DOPC   C3A 3113   4.950   9.804  12.675 -0.0505  0.0100  0.1228
  266DOPC   C4A 3114   4.640  10.149  12.647  0.1695  0.1279  0.0583
  266DOPC   C1B 3115   3.958   9.884  13.025  0.3822  0.0511  0.2560
  266DOPC   D2B 3116   4.172  10.204  13.213  0.0674 -0.1242 -0.0962
  266DOPC   C3B 3117   4.407  10.507  12.995  0.1498  0.2647  0.0533
  266DOPC   C4B 3118   4.528  10.849  12.767  0.2284 -0.1528  0.1016
  267DOPE   NH3 3119   8.933   1.289  12.249  0.0324  0.1929  0.0713
  267DOPE   PO4 3120   8.806   1.378  11.979 -0.2011  0.3661 -0.2666
  267DOPE   GL1 3121   8.348   1.370  11.936 -0.1154  0.2609 -0.1504
  267DOPE   GL2 3122   8.405   1.280  12.239 -0.2091 -0.2617  0.1109
  267DOPE   C1A 3123   8.028   1.065  12.081  0.0690 -0.0491 -0.0754
  267DOPE   D2A 3124   7.780   0.975  12.484  0.3098 -0.0215 -0.1941
  267DOPE   C3A 3125   7.776   1.168  12.959  0.4130  0.2824  0.0202
  267DOPE   C4A 3126   7.712   1.200  13.411 -0.0386  0.0052 -0.0702
  267DOPE   C1B 3127   8.017   1.430  12.483 -0.4019  0.2606 -0.0075
  267DOPE   D2B 3128   7.614   1.527  12.687  0.2713  0.0495  0.0238
  267DOPE   C3B 3129   7.395   1.888  12.837 -0.1213 -0.2276  0.0633
  267DOPE   C4B 3130   7.192   1.910  13.216 -0.1880 -0.0121 -0.0697
  268DOPC   NC3 3131  10.463   7.634  11.727 -0.2216  0.0141  0.1151
  268DOPC   PO4 3132  10.510   7.680  12.142 -0.1117  0.1225 -0.0047
  268DOPC   GL1 3133  10.281   7.601  12.472 -0.0115 -0.1442 -0.0262
  268DOPC   GL2 3134  10.051   7.432  12.430  0.0221 -0.1585 -0.0526
  268DOPC   C1A 3135  10.183   7.636  12.949 -0.0002  0.1458  0.0429
  268DOPC   D2A 3136  10.231   7.830  13.425  0.3746 -0.0350  0.0380
  268DOPC   C3A 3137  10.264   7.454  13.687  0.2217 -0.2356 -0.1769
  268DOPC   C4A 3138  10.029   7.151  13.981 -0.0500 -0.2298  0.2484
  268DOPC   C1B 3139   9.746   7.586  12.730 -0.1910 -0.0978  0.0303
  268DOPC   D2B 3140   9.616   7.637  13.186 -0.1015 -0.1575  0.4076
  268DOPC   C3B 3141   9.220   7.792  13.366  0.0561  0.1094  0.0559
  268DOPC   C4B 3142   9.007   8.209  13.351 -0.1955 -0.1151 -0.0886
  269POSM   NC3 3143   2.123   3.906  12.933 -0.1299  0.1701  0.2050
  269POSM   PO4 3144   2.208   3.876  12.539 -0.1514  0.2877  0.0392
  269POSM   AM1 3145   2.515   3.908  12.618 -0.1978 -0.1847 -0.1644
  269POSM   AM2 3146   2.635   3.820  12.860  0.1217  0.1218  0.1975
  269POSM   T1A 3147   2.964   4.113  12.485  0.1876 -0.0665  0.0511
  269POSM   C2A 3148   3.416   4.325  12.373  0.2810 -0.1918 -0.1293
  269POSM   C3A 3149   3.708   4.586  12.689  0.1223  0.3594  0.0344
  269POSM   C1B 3150   2.906   3.702  13.092 -0.0616 -0.0361  0.0906
  269POSM   D2B 3151   3.007   3.707  13.514 -0.1270 -0.0854  0.2168
  269POSM   C3B 3152   3.146   4.067  13.805 -0.1182 -0.0326  0.0903
  269POSM   C4B 3153   3.522   4.297  14.001  0.0245 -0.2403 -0.2229
  270DOPS   CNO 3154   2.236  34.102  12.218  0.1460 -0.1842 -0.2825
  270DOPS   PO4 3155   2.451  34.310  12.454 -0.1709  0.4055  0.0597
  270DOPS   GL1 3156   2.322  34.038  12.664  0.0895  0.0574 -0.0613
  270DOPS   GL2 3157   2.491  34.100  12.910  0.1897 -0.1071  0.3327
  270DOPS   C1A 3158   2.524  33.609  12.550  0.1636  0.3211  0.2799
  270DOPS   D2A 3159   2.838  33.308  12.614  0.3797  0.0384 -0.2193
  270DOPS   C3A 3160   2.715  32.894  12.670  0.3627 -0.2520  0.2015
  270DOPS   C4A 3161   2.331  32.631  12.541  0.2356 -0.1132  0.0182
  270DOPS   C1B 3162   2.295  33.673  12.950 -0.3680  0.0729 -0.1536
  270DOPS   D2B 3163   2.120  33.309  13.217  0.0220  0.1508 -0.5945
  270DOPS   C3B 3164   2.333  33.166  13.594 -0.0241  0.2060 -0.0192
  270DOPS   C4B 3165   2.205  33.193  13.999  0.4258 -0.1230 -0.0700
  271DOPE   NH3 3166   2.174   5.644  12.557  0.0276 -0.2129 -0.2263
  271DOPE   PO4 3167   1.997   5.616  12.844  0.0503  0.0029 -0.1804
  271DOPE   GL1 3168   1.669   5.723  13.042 -0.1094 -0.0244 -0.0119
  271DOPE   GL2 3169   1.789   5.887  13.276  0.1879 -0.2630  0.3975
  271DOPE   C1A 3170   1.286   5.750  13.291  0.0399  0.3558  0.1731
  271DOPE   D2A 3171   1.028   5.417  13.419  0.1748  0.2799  0.0397
  271DOPE   C3A 3172   0.805   5.317  13.800 -0.2137 -0.1090  0.0331
  271DOPE   C4A 3173   0.698   5.363  14.229 -0.1011 -0.0334  0.1533
  271DOPE   C1B 3174   1.968   6.148  13.607  0.1529 -0.1202 -0.0894
  271DOPE   D2B 3175   1.716   6.527  13.776  0.2248 -0.1284 -0.0903
  271DOPE   C3B 3176   1.326   6.675  13.902  0.0088  0.0223 -0.1828
  271DOPE   C4B 3177   0.947   6.427  13.993  0.0129  0.4405 -0.1633
  272POSM   NC3 3178   0.317   2.483  12.726  0.0177 -0.0633 -0.2295
  272POSM   PO4 3179   0.333   2.848  12.911  0.3469  0.0403  0.4111
  272POSM   AM1 3180   0.408   2.733  13.203  0.3290 -0.2767  0.1116
  272POSM   AM2 3181   0.204   2.628  13.361 -0.3239  0.0052 -0.2567
  272POSM   T1A 3182   0.623   2.794  13.660  0.0423  0.1039  0.1027
  272POSM   C2A 3183   1.027   2.935  13.836  0.1304  0.3045  0.2673
  272POSM   C3A 3184   1.505   2.833  13.781  0.2279  0.1314  0.2780
  272POSM   C1B 3185   0.177   2.540  13.682  0.0805  0.2724  0.1531
  272POSM   D2B 3186   0.362   2.628  14.115 -0.1913 -0.0613 -0.0509
  272POSM   C3B 3187   0.488   2.229  13.973 -0.0707 -0.0949 -0.2620
  272POSM   C4B 3188   0.338   1.809  14.097  0.0019 -0.0709 -0.1888
  273DOPC   NC3 3189   6.176   4.702  12.393  0.2280 -0.1130  0.0080
  273DOPC   PO4 3190   6.569   4.731  12.374  0.0982  0.0727 -0.0486
  273DOPC   GL1 3191   6.461   4.349  12.515  0.1689 -0.1029 -0.1072
  273DOPC   GL2 3192   6.521   4.461  12.815 -0.0710 -0.1072  0.3455
  273DOPC   C1A 3193   6.093   4.094  12.539 -0.0207  0.0372 -0.1431
  273DOPC   D2A 3194   5.650   4.092  12.331 -0.1645 -0.0173  0.0992
  273DOPC   C3A 3195   5.433   4.516  12.377  0.3129 -0.0120 -0.1794
  273DOPC   C4A 3196   5.102   4.863  12.363 -0.0020  0.2410 -0.1672
  273DOPC   C1B 3197   6.125   4.490  13.069  0.1377 -0.0707 -0.0085
  273DOPC   D2B 3198   5.691   4.598  12.881 -0.2137 -0.1531 -0.3601
  273DOPC   C3B 3199   5.519   5.095  12.935 -0.1616 -0.0930 -0.1131
  273DOPC   C4B 3200   5.244   5.480  13.026  0.1931  0.1417 -0.0632
  274DOPS   CNO 3201   3.519   0.122  12.525 -0.1261  0.2716 -0.0064
  274DOPS   PO4 3202   3.382   0.243  12.877  0.1333  0.0631  0.0039
  274DOPS   GL1 3203   3.370   0.266  13.281  0.0502 -0.0964  0.3162
  274DOPS   GL2 3204   3.653   0.384  13.312 -0.4760 -0.0340 -0.3351
  274DOPS   C1A 3205   3.135   0.305  13.693 -0.0886  0.1217  0.0113
  274DOPS   D2A 3206   2.767   0.174  13.955 -0.0606  0.2222  0.2390
  274DOPS   C3A 3207   2.580   0.573  14.156  0.0117  0.0979  0.4078
  274DOPS   C4A 3208   2.535   0.969  14.449 -0.0335 -0.1249  0.3472
  274DOPS   C1B 3209   3.643   0.347  13.779  0.0500 -0.2184 -0.0630
  274DOPS   D2B 3210   3.706   0.553  14.180  0.1895 -0.0484 -0.1979
  274DOPS   C3B 3211   4.110   0.526  14.247  0.1594 -0.0376  0.2343
  274DOPS   C4B 3212   4.491   0.606  14.065 -0.0003  0.3763 -0.3294
  275DOPC   NC3 3213   1.542   4.899  12.757  0.0634 -0.0459  0.1948
  275DOPC   PO4 3214   1.409   4.539  12.613 -0.0387 -0.1060 -0.0780
  275DOPC   GL1 3215   1.467   4.378  12.994 -0.1615 -0.0195  0.2656
  275DOPC   GL2 3216   1.722   4.344  12.977 -0.0972 -0.2008  0.0835
  275DOPC   C1A 3217   1.578   4.665  13.295  0.1350 -0.2028  0.1958
  275DOPC   D2A 3218   1.536   4.946  13.634 -0.0966  0.0103  0.0138
  275DOPC   C3A 3219   1.415   4.803  14.060 -0.0544  0.0834  0.1336
  275DOPC   C4A 3220   1.372   4.682  14.522 -0.1288 -0.0756  0.3443
  275DOPC   C1B 3221   1.897   4.164  13.337 -0.0237  0.1784  0.2734
  275DOPC   D2B 3222   1.904   4.062  13.817  0.0500  0.0892 -0.0416
  275DOPC   C3B 3223   2.075   3.648  13.800 -0.1097 -0.2579 -0.1771
  275DOPC   C4B 3224   2.538   3.570  13.772  0.0365 -0.2072  0.3685
  276DOPC   NC3 3225   5.288   2.745  13.122  0.0465 -0.3308 -0.0089
  276DOPC   PO4 3226   5.004   2.916  12.866 -0.1294 -0.1144 -0.1214
  276DOPC   GL1 3227   4.852   3.052  13.273 -0.1879  0.5478 -0.0632
  276DOPC   GL2 3228   4.574   2.918  13.162 -0.1161 -0.0253  0.1089
  276DOPC   C1A 3229   5.078   2.869  13.635 -0.0885 -0.0910  0.0637
  276DOPC   D2A 3230   5.031   3.080  13.989 -0.2082 -0.1441  0.1225
  276DOPC   C3A 3231   5.314   2.974  14.382  0.1508 -0.2019 -0.0699
  276DOPC   C4A 3232   5.755   3.022  14.444  0.1390 -0.0686  0.4806
  276DOPC   C1B 3233   4.419   3.324  13.007 -0.0356 -0.2818  0.3510
  276DOPC   D2B 3234   4.089   3.586  12.835  0.1949 -0.3734  0.1666
  276DOPC   C3B 3235   3.702   3.469  12.676 -0.0210 -0.1007 -0.1682
  276DOPC   C4B 3236   3.256   3.212  12.754  0.1866  0.2492  0.1334
  277DOPE   NH3 3237   7.607   3.937  12.125  0.1336  0.2206 -0.1809
  277DOPE   PO4 3238   7.264   3.844  12.132  0.1266 -0.1392  0.2114
  277DOPE   GL1 3239   7.324   3.617  12.483  0.1186 -0.1861 -0.3924
  277DOPE   GL2 3240   7.117   3.404  12.378 -0.0732  0.2344  0.2900
  277DOPE   C1A 3241   7.458   3.230  12.689 -0.4018 -0.1778  0.0726
  277DOPE   D2A 3242   7.191   2.878  12.777  0.0218  0.2234 -0.1537
  277DOPE   C3A 3243   6.731   2.833  12.951 -0.0640 -0.1553 -0.0866
  277DOPE   C4A 3244   6.461   2.919  13.336 -0.0961  0.0481 -0.1250
  277DOPE   C1B 3245   7.185   2.934  12.281  0.0287  0.0626 -0.3127
  277DOPE   D2B 3246   7.376   2.525  12.468 -0.3052  0.0985 -0.1490
  277DOPE   C3B 3247   7.204   2.322  12.877 -0.0368  0.0741 -0.2199
  277DOPE   C4B 3248   7.043   2.562  13.270 -0.0992 -0.0377 -0.0493
  278DOPC   NC3 3249   1.205   3.663  12.884  0.0926 -0.0541  0.2342
  278DOPC   PO4 3250   1.179   3.331  12.744 -0.1378 -0.2275  0.0242
  278DOPC   GL1 3251   1.425   3.066  12.518  0.0200 -0.2203  0.1754
  278DOPC   GL2 3252   1.540   2.968  12.752 -0.1510 -0.0078 -0.0953
  278DOPC   C1A 3253   1.345   2.739  12.223 -0.3320  0.0321  0.0835
  278DOPC   D2A 3254   1.195   2.296  12.233  0.1132  0.1350  0.4229
  278DOPC   C3A 3255   1.104   2.139  12.643 -0.3805  0.1423 -0.2610
  278DOPC   C4A 3256   1.336   1.799  12.855  0.1296  0.1179 -0.0150
  278DOPC   C1B 3257   1.550   2.752  13.146 -0.0476  0.1039 -0.1525
  278DOPC   D2B 3258   1.659   2.458  13.449  0.1916  0.1509 -0.3218
  278DOPC   C3B 3259   1.523   2.368  13.890 -0.3100 -0.2196 -0.3206
  278DOPC   C4B 3260   1.482   2.104  14.251 -0.3877  0.0255  0.0650
  279DOPC   NC3 3261   6.680  11.382  12.885  0.0291  0.2698 -0.0647
  279DOPC   PO4 3262   6.655  11.759  12.784 -0.0236 -0.0430 -0.1770
  279DOPC   GL1 3263   6.999  11.731  13.073  0.0870 -0.0440 -0.0620
  279DOPC   GL2 3264   7.175  11.544  12.920 -0.0932  0.2308 -0.3887
  279DOPC   C1A 3265   7.060  11.898  13.498 -0.0804  0.0359  0.0455
  279DOPC   D2A 3266   7.134  12.150  13.924 -0.4935  0.1926 -0.0044
  279DOPC   C3A 3267   7.262  12.008  14.323 -0.0367  0.0093 -0.3496
  279DOPC   C4A 3268   7.440  11.916  14.750  0.0415  0.2142  0.0042
  279DOPC   C1B 3269   7.537  11.774  13.083 -0.0853  0.2108  0.1706
  279DOPC   D2B 3270   7.894  11.637  13.286  0.1208 -0.0926 -0.0945
  279DOPC   C3B 3271   7.981  11.805  13.724 -0.1685  0.2787 -0.0812
  279DOPC   C4B 3272   7.842  11.980  14.141 -0.3759 -0.0489  0.0239
  280POSM   NC3 3273   5.457  12.086  12.351 -0.1387  0.2786 -0.0763
  280POSM   PO4 3274   5.265  11.781  12.479  0.0264  0.2648  0.0633
  280POSM   AM1 3275   5.186  11.563  12.711  0.1621 -0.1190  0.1637
  280POSM   AM2 3276   4.986  11.556  12.940  0.2238  0.1848 -0.1001
  280POSM   T1A 3277   5.156  11.061  12.901 -0.1574 -0.1867  0.2755
  280POSM   C2A 3278   4.900  10.621  13.016  0.0311  0.1989 -0.1999
  280POSM   C3A 3279   5.177  10.212  13.117  0.0027 -0.1632  0.0418
  280POSM   C1B 3280   4.705  11.284  13.001 -0.2126  0.4071  0.2354
  280POSM   D2B 3281   4.318  11.085  13.130 -0.1796  0.0686  0.0574
  280POSM   C3B 3282   4.112  10.746  13.346  0.0965  0.1232  0.0938
  280POSM   C4B 3283   4.108  10.411  13.679 -0.1114 -0.1479  0.0868
  281DOPE   NH3 3284   5.314   3.105  12.543 -0.1460 -0.0917 -0.0892
  281DOPE   PO4 3285   5.507   3.105  12.810  0.4268 -0.0238 -0.4336
  281DOPE   GL1 3286   5.293   3.338  12.967 -0.1623  0.0550  0.1900
  281DOPE   GL2 3287   5.259   3.304  13.235 -0.0416  0.4579 -0.1218
  281DOPE   C1A 3288   5.221   3.724  12.676 -0.2949  0.2883 -0.2060
  281DOPE   D2A 3289   5.079   4.121  12.601  0.0432 -0.0393  0.0038
  281DOPE   C3A 3290   5.173   4.432  12.965 -0.0843 -0.1372  0.0753
  281DOPE   C4A 3291   5.403   4.693  13.269 -0.1118 -0.0605 -0.3822
  281DOPE   C1B 3292   5.549   3.050  13.457  0.1925  0.0384 -0.2200
  281DOPE   D2B 3293   5.543   3.119  13.899 -0.1150  0.1962  0.0008
  281DOPE   C3B 3294   5.722   3.433  14.076  0.2341  0.0618  0.1207
  281DOPE   C4B 3295   5.754   3.879  14.237  0.0386  0.3472 -0.0045
  282DOPS   CNO 3296   4.641   2.921  12.547 -0.2046 -0.1961 -0.0542
  282DOPS   PO4 3297   4.919   3.024  12.300  0.3450 -0.1723  0.0020
  282DOPS   GL1 3298   4.849   3.361  12.653 -0.2027  0.3118  0.1103
  282DOPS   GL2 3299   4.868   3.471  12.894  0.2569  0.0666  0.3365
  282DOPS   C1A 3300   4.654   3.773  12.561  0.0149  0.0992 -0.4889
  282DOPS   D2A 3301   4.248   3.989  12.655  0.0093  0.1034 -0.0957
  282DOPS   C3A 3302   4.194   4.438  12.785 -0.0454 -0.1111 -0.0502
  282DOPS   C4A 3303   4.403   4.495  13.188 -0.1459  0.2599 -0.2718
  282DOPS   C1B 3304   4.777   3.491  13.310 -0.0199 -0.0758 -0.0154
  282DOPS   D2B 3305   4.353   3.527  13.562  0.3078 -0.3356 -0.3546
  282DOPS   C3B 3306   3.971   3.460  13.395 -0.0730 -0.3881  0.1188
  282DOPS   C4B 3307   3.619   3.583  13.164  0.1469 -0.0107 -0.0819
  283DOPC   NC3 3308   3.301  11.613  12.616  0.1145 -0.1733  0.3540
  283DOPC   PO4 3309   3.575  11.534  12.862 -0.1315  0.0120 -0.0019
  283DOPC   GL1 3310   3.657  11.468  13.239  0.0234  0.2574 -0.0548
  283DOPC   GL2 3311   3.694  11.202  13.310  0.3876 -0.1426  0.0652
  283DOPC   C1A 3312   3.857  11.822  13.473 -0.1660 -0.0063  0.2293
  283DOPC   D2A 3313   4.168  12.013  13.678  0.1100  0.2142 -0.1770
  283DOPC   C3A 3314   4.307  12.043  14.081  0.1897 -0.1099 -0.1113
  283DOPC   C4A 3315   4.206  12.436  14.293 -0.4233 -0.0721  0.4371
  283DOPC   C1B 3316   3.726  10.960  13.731 -0.1940  0.1060 -0.0820
  283DOPC   D2B 3317   3.753  11.003  14.185 -0.0487  0.0135  0.1254
  283DOPC   C3B 3318   3.505  11.310  14.206 -0.4655 -0.0311 -0.1086
  283DOPC   C4B 3319   3.205  11.607  14.491 -0.1631 -0.0187 -0.3877
  284DOPE   NH3 3320   0.847   3.616  12.518 -0.0292 -0.1165 -0.1312
  284DOPE   PO4 3321   0.755   3.787  12.813 -0.0836 -0.1479 -0.2399
  284DOPE   GL1 3322   0.776   3.643  13.124  0.1865  0.4302 -0.0467
  284DOPE   GL2 3323   0.932   3.715  13.349 -0.1326 -0.0683  0.0712
  284DOPE   C1A 3324   0.553   3.387  13.483  0.0231 -0.0377 -0.1718
  284DOPE   D2A 3325   0.512   3.383  13.912 -0.1052 -0.1589  0.2321
  284DOPE   C3A 3326   0.422   3.837  13.946 -0.3820  0.0232  0.2553
  284DOPE   C4A 3327   0.191   4.101  14.230  0.3082  0.0124  0.2000
  284DOPE   C1B 3328   1.074   3.440  13.633  0.3560  0.0670 -0.1367
  284DOPE   D2B 3329   1.366   3.302  13.972 -0.0633  0.1642  0.3522
  284DOPE   C3B 3330   1.770   3.285  13.777 -0.0279  0.1345 -0.1474
  284DOPE   C4B 3331   2.208   3.104  13.744 -0.0819  0.2656  0.0861
  285DOPE   NH3 3332   6.153   6.392  12.614  0.0318  0.0765  0.3627
  285DOPE   PO4 3333   6.144   6.083  12.482  0.0050 -0.0467 -0.0010
  285DOPE   GL1 3334   5.932   5.940  12.825 -0.1005  0.0968 -0.1070
  285DOPE   GL2 3335   5.765   6.188  12.855 -0.3492 -0.2913  0.1069
  285DOPE   C1A 3336   5.556   5.743  12.671  0.1542 -0.1112  0.1115
  285DOPE   D2A 3337   5.144   5.717  12.535  0.0404  0.0102 -0.1114
  285DOPE   C3A 3338   5.046   5.286  12.600  0.0429 -0.0876 -0.1129
  285DOPE   C4A 3339   5.038   4.912  12.872  0.1485 -0.2034  0.0020
  285DOPE   C1B 3340   5.603   6.363  13.325 -0.0884  0.0455  0.0077
  285DOPE   D2B 3341   5.425   6.497  13.738 -0.0939 -0.2495 -0.1883
  285DOPE   C3B 3342   5.555   6.337  14.149  0.0500 -0.1489 -0.0202
  285DOPE   C4B 3343   5.888   6.400  14.491 -0.0509  0.0637  0.1811
  286POSM   NC3 3344   9.199   6.498  12.188 -0.0023  0.1059 -0.1056
  286POSM   PO4 3345   8.946   6.786  12.255 -0.2951  0.3778 -0.2733
  286POSM   AM1 3346   8.863   6.841  12.559 -0.0830 -0.0806 -0.0782
  286POSM   AM2 3347   8.686   7.086  12.634  0.0052  0.0230  0.1582
  286POSM   T1A 3348   8.915   6.856  13.101  0.0724  0.4003  0.1345
  286POSM   C2A 3349   8.944   6.889  13.556  0.2147  0.2032 -0.1794
  286POSM   C3A 3350   9.026   7.342  13.831  0.0227  0.5989 -0.0491
  286POSM   C1B 3351   8.625   7.384  12.797  0.1411 -0.2240 -0.0571
  286POSM   D2B 3352   8.814   7.626  13.153 -0.0238  0.1854 -0.0120
  286POSM   C3B 3353   8.536   8.002  13.267  0.0341  0.1978  0.1176
  286POSM   C4B 3354   8.574   8.476  13.223 -0.2145 -0.1256 -0.1778
  287POSM   NC3 3355   9.194  11.527  12.435  0.1158  0.0558  0.2856
  287POSM   PO4 3356   9.551  11.621  12.600 -0.0380 -0.1587  0.0828
  287POSM   AM1 3357   9.494  11.342  12.710  0.2291 -0.0521  0.1527
  287POSM   AM2 3358   9.493  11.250  12.995 -0.1224  0.1683  0.3300
  287POSM   T1A 3359   9.122  11.034  12.730  0.0439 -0.1357  0.0960
  287POSM   C2A 3360   8.787  10.720  12.784 -0.0919 -0.0499  0.1517
  287POSM   C3A 3361   8.782  10.275  12.742 -0.0115  0.0488  0.0462
  287POSM   C1B 3362   9.494  11.051  13.220 -0.1227  0.2111 -0.0008
  287POSM   D2B 3363   9.422  10.725  13.481 -0.0920  0.1605 -0.1261
  287POSM   C3B 3364   9.169  10.311  13.465  0.0665 -0.0456 -0.1805
  287POSM   C4B 3365   9.143   9.901  13.290  0.0679 -0.0060 -0.1926
  288DOPC   NC3 3366   0.812   4.264  12.509  0.3755  0.0019  0.1519
  288DOPC   PO4 3367   1.001   4.446  12.211 -0.2933  0.2240 -0.1592
  288DOPC   GL1 3368   0.924   4.682  12.653 -0.0194  0.5071  0.4750
  288DOPC   GL2 3369   0.721   4.836  12.502  0.1291  0.2567  0.2660
  288DOPC   C1A 3370   0.753   4.593  13.097  0.2207  0.1903  0.1462
  288DOPC   D2A 3371   0.541   4.324  13.469  0.2484  0.2404  0.2178
  288DOPC   C3A 3372   0.831   4.069  13.693 -0.0610  0.2071 -0.5131
  288DOPC   C4A 3373   1.025   3.778  13.980 -0.3254 -0.3803 -0.1175
  288DOPC   C1B 3374   0.602   5.130  12.823  0.2588  0.2835  0.0884
  288DOPC   D2B 3375   0.621   5.172  13.298  0.0545 -0.1803 -0.0307
  288DOPC   C3B 3376   0.528   4.813  13.624  0.1368 -0.0222  0.1248
  288DOPC   C4B 3377   0.426   4.965  14.034 -0.1944  0.1357  0.1105
  289DOPC   NC3 3378   3.433  10.666  12.529  0.0300  0.0188  0.1398
  289DOPC   PO4 3379   3.835  10.563  12.546  0.0756 -0.0225  0.3452
  289DOPC   GL1 3380   3.619  10.277  12.822  0.0138  0.1506  0.7252
  289DOPC   GL2 3381   3.501  10.518  13.056 -0.0351 -0.1569 -0.0495
  289DOPC   C1A 3382   3.563  10.032  13.257 -0.3146 -0.1463 -0.1493
  289DOPC   D2A 3383   3.892   9.967  13.593 -0.0852  0.0405  0.0071
  289DOPC   C3A 3384   3.675   9.797  14.025 -0.1201  0.1544  0.0484
  289DOPC   C4A 3385   3.730   9.793  14.436  0.2827 -0.1143  0.0790
  289DOPC   C1B 3386   3.652  10.511  13.521  0.0763  0.3107 -0.1973
  289DOPC   D2B 3387   3.645  10.442  13.999 -0.1996  0.0456 -0.1163
  289DOPC   C3B 3388   3.361  10.181  14.219  0.0636  0.3431  0.1934
  289DOPC   C4B 3389   2.984  10.041  14.050 -0.0258 -0.1424 -0.2098
  290DOPC   NC3 3390   6.642   6.993  12.344 -0.0044  0.3385  0.0177
  290DOPC   PO4 3391   6.296   6.856  12.505 -0.3625 -0.2993 -0.1163
  290DOPC   GL1 3392   6.105   7.140  12.757  0.0409 -0.0890 -0.0786
  290DOPC   GL2 3393   6.211   7.361  12.607  0.3976  0.1608  0.1947
  290DOPC   C1A 3394   6.300   7.278  13.186  0.1656  0.3050  0.0321
  290DOPC   D2A 3395   6.539   7.395  13.525 -0.1565 -0.3872  0.1353
  290DOPC   C3A 3396   6.431   7.629  13.911 -0.0600 -0.0093 -0.1673
  290DOPC   C4A 3397   6.134   7.625  14.271 -0.2861 -0.0723 -0.1616
  290DOPC   C1B 3398   6.644   7.440  12.691 -0.0544 -0.0140  0.1603
  290DOPC   D2B 3399   6.732   7.639  13.121  0.1074 -0.0009  0.1027
  290DOPC   C3B 3400   6.584   7.893  13.478  0.1643 -0.3706 -0.1761
  290DOPC   C4B 3401   6.739   8.232  13.751  0.0496 -0.3786  0.2603
  291POSM   NC3 3402   2.601   4.042  12.171  0.1155  0.2769  0.0739
  291POSM   PO4 3403   2.357   3.804  11.950 -0.0195  0.0152  0.0088
  291POSM   AM1 3404   2.422   3.643  12.242  0.2176  0.0153  0.1179
  291POSM   AM2 3405   2.331   3.392  12.281 -0.1124 -0.0120  0.2515
  291POSM   T1A 3406   2.887   3.526  12.480  0.3739  0.3539 -0.0515
  291POSM   C2A 3407   3.331   3.653  12.443  0.0450 -0.2588  0.3048
  291POSM   C3A 3408   3.731   3.932  12.510 -0.2144  0.1360  0.1619
  291POSM   C1B 3409   2.610   3.144  12.273 -0.2672  0.2260 -0.0229
  291POSM   D2B 3410   3.107   3.124  12.285 -0.1190  0.2043  0.0277
  291POSM   C3B 3411   3.603   3.150  12.315 -0.1406  0.0710 -0.0542
  291POSM   C4B 3412   4.061   3.256  12.356 -0.1916  0.4077  0.0315
  292DOPC   NC3 3413   0.925  10.734  12.616 -0.2919 -0.1498  0.0027
  292DOPC   PO4 3414   1.004  10.460  12.364  0.5542 -0.1321  0.1008
  292DOPC   GL1 3415   1.207  10.387  12.723 -0.3735  0.4853  0.1186
  292DOPC   GL2 3416   1.349  10.630  12.858 -0.3150  0.2651 -0.0355
  292DOPC   C1A 3417   1.499  10.165  13.012  0.1510  0.2128 -0.0864
  292DOPC   D2A 3418   1.703   9.770  12.998  0.0700  0.1504  0.0677
  292DOPC   C3A 3419   1.753   9.350  13.220  0.1713  0.1278  0.2279
  292DOPC   C4A 3420   1.732   9.272  13.701 -0.3857  0.0714  0.4658
  292DOPC   C1B 3421   1.782  10.808  13.032 -0.1832 -0.1143  0.4475
  292DOPC   D2B 3422   2.033  11.171  13.245  0.0909  0.0637  0.0566
  292DOPC   C3B 3423   2.341  11.517  13.018  0.2457  0.0702 -0.2057
  292DOPC   C4B 3424   2.789  11.503  12.850 -0.1549 -0.2182  0.1902
  293POSM   NC3 3425  10.809   5.560  12.096  0.2918  0.0961  0.0008
  293POSM   PO4 3426  11.142   5.372  12.066  0.2120  0.1988  0.0522
  293POSM   AM1 3427  11.135   5.258  12.396  0.0047  0.3333  0.2538
  293POSM   AM2 3428  11.096   5.414  12.650  0.0972 -0.0949  0.1328
  293POSM   T1A 3429  10.805   4.986  12.713 -0.1087  0.1023 -0.1023
  293POSM   C2A 3430  10.721   4.896  13.221 -0.1964 -0.0800 -0.0356
  293POSM   C3A 3431  10.540   4.744  13.582  0.2060 -0.1204  0.0341
  293POSM   C1B 3432  10.792   5.488  12.615 -0.1458 -0.2646 -0.0494
  293POSM   D2B 3433  10.340   5.409  12.772  0.1482 -0.1434 -0.3161
  293POSM   C3B 3434  10.296   4.961  12.905 -0.0722  0.1194 -0.2129
  293POSM   C4B 3435  10.147   4.677  13.242  0.3413 -0.3966 -0.0238
  294DOPS   CNO 3436   9.886   2.220  11.994 -0.0744 -0.0177  0.1896
  294DOPS   PO4 3437   9.650   1.902  12.030  0.1084 -0.2964 -0.0121
  294DOPS   GL1 3438   9.369   2.148  12.284 -0.2991 -0.0926  0.0687
  294DOPS   GL2 3439   9.311   2.361  12.010  0.0167 -0.2554  0.0704
  294DOPS   C1A 3440   9.136   2.148  12.705 -0.1264 -0.0820 -0.1131
  294DOPS   D2A 3441   8.975   2.212  13.107  0.0797  0.1622 -0.0025
  294DOPS   C3A 3442   9.135   2.555  13.371  0.2383  0.1046 -0.0079
  294DOPS   C4A 3443   9.221   2.607  13.796  0.2484 -0.4958  0.1929
  294DOPS   C1B 3444   9.078   2.568  12.323  0.0174  0.1307  0.2561
  294DOPS   D2B 3445   8.959   2.764  12.735 -0.2112 -0.0023  0.1605
  294DOPS   C3B 3446   8.692   2.647  13.070  0.1838 -0.1885  0.0836
  294DOPS   C4B 3447   8.384   2.371  13.265  0.1721  0.0883 -0.2239
  295DOPC   NC3 3448   4.553   6.990  12.394  0.1193  0.1232  0.0216
  295DOPC   PO4 3449   4.638   6.627  12.525 -0.0697  0.0941  0.2127
  295DOPC   GL1 3450   4.794   6.270  12.627 -0.3107  0.0113 -0.3635
  295DOPC   GL2 3451   5.052   6.241  12.755  0.0595  0.0527  0.1426
  295DOPC   C1A 3452   4.725   5.940  12.343  0.0837 -0.1677  0.2086
  295DOPC   D2A 3453   4.769   5.530  12.299 -0.1489 -0.2175  0.1600
  295DOPC   C3A 3454   4.426   5.302  12.569 -0.1206  0.0477  0.0208
  295DOPC   C4A 3455   4.303   4.922  12.878  0.0335  0.0243 -0.1255
  295DOPC   C1B 3456   5.286   6.019  13.051  0.0171  0.2695 -0.3552
  295DOPC   D2B 3457   5.662   5.777  13.226 -0.1520  0.0254  0.0439
  295DOPC   C3B 3458   5.649   5.342  13.406  0.1057  0.0101 -0.1609
  295DOPC   C4B 3459   5.625   4.926  13.649  0.1371 -0.2352 -0.0788
  296DOPS   CNO 3460   0.433  10.788  12.517  0.0730  0.0345 -0.1279
  296DOPS   PO4 3461   0.509  10.560  12.819 -0.2195  0.3147  0.0564
  296DOPS   GL1 3462   0.642  10.514  13.157 -0.2230  0.2260  0.0208
  296DOPS   GL2 3463   0.912  10.473  13.091  0.3771  0.1521  0.0060
  296DOPS   C1A 3464   0.533  10.119  13.475  0.2580  0.0436 -0.1541
  296DOPS   D2A 3465   0.562   9.840  13.843  0.1270 -0.0147  0.0114
  296DOPS   C3A 3466   0.412  10.029  14.243 -0.1113 -0.2554 -0.1858
  296DOPS   C4A 3467   0.180  10.066  14.594 -0.3045 -0.3654  0.1714
  296DOPS   C1B 3468   1.113  10.108  13.310  0.2141  0.0576  0.0833
  296DOPS   D2B 3469   1.052   9.852  13.703  0.0188 -0.0628 -0.0550
  296DOPS   C3B 3470   1.116  10.132  14.075  0.1190 -0.2427 -0.2620
  296DOPS   C4B 3471   0.811  10.435  14.294 -0.6095  0.0993  0.1252
  297DOPE   NH3 3472   4.105   7.909  12.603  0.2418  0.1401 -0.0861
  297DOPE   PO4 3473   4.250   8.056  12.850 -0.0738  0.2006  0.2965
  297DOPE   GL1 3474   4.350   8.358  13.098  0.0464  0.0025 -0.2160
  297DOPE   GL2 3475   4.350   8.156  13.320  0.0749 -0.2295  0.0397
  297DOPE   C1A 3476   4.200   8.771  12.912  0.0700  0.0760  0.1735
  297DOPE   D2A 3477   3.885   9.105  12.908 -0.0615  0.3487  0.1756
  297DOPE   C3A 3478   3.979   9.458  13.248 -0.0678 -0.0600  0.1610
  297DOPE   C4A 3479   4.421   9.357  13.508  0.1834 -0.2279 -0.1821
  297DOPE   C1B 3480   4.732   8.379  13.528  0.1020 -0.0251  0.1391
  297DOPE   D2B 3481   5.053   8.645  13.697 -0.1570 -0.1485 -0.1178
  297DOPE   C3B 3482   5.370   8.315  13.726  0.2551  0.0097 -0.0266
  297DOPE   C4B 3483   5.566   7.881  13.832  0.1259 -0.0522 -0.3222
  298DOPE   NH3 3484  10.599   2.946  12.121 -0.2003 -0.1050  0.1361
  298DOPE   PO4 3485  10.559   2.779  12.374 -0.0939  0.0432 -0.0135
  298DOPE   GL1 3486  10.503   2.788  12.699  0.2996 -0.0725 -0.2923
  298DOPE   GL2 3487  10.478   3.088  12.799  0.1808 -0.2581 -0.0912
  298DOPE   C1A 3488  10.753   2.550  12.985  0.0010 -0.1747  0.2159
  298DOPE   D2A 3489  11.172   2.568  13.217 -0.1397  0.1693 -0.0469
  298DOPE   C3A 3490  11.225   2.776  13.626 -0.0997 -0.6470  0.1417
  298DOPE   C4A 3491  11.594   2.998  13.807  0.2794  0.1281 -0.0309
  298DOPE   C1B 3492  10.416   2.922  13.207 -0.0722 -0.3372 -0.0344
  298DOPE   D2B 3493  10.762   2.899  13.484  0.0219 -0.0787 -0.2134
  298DOPE   C3B 3494  10.729   2.540  13.842 -0.0332  0.4408 -0.1199
  298DOPE   C4B 3495  10.859   2.167  14.210  0.0530  0.1037 -0.2099
  299DOPE   NH3 3496   7.218   4.655  12.520  0.1556  0.1709  0.2677
  299DOPE   PO4 3497   6.960   4.527  12.625  0.1003 -0.1865  0.1566
  299DOPE   GL1 3498   6.970   4.254  12.922  0.1088 -0.1644 -0.0774
  299DOPE   GL2 3499   7.023   4.330  13.200 -0.1362 -0.1068 -0.1937
  299DOPE   C1A 3500   6.607   4.039  13.119 -0.0893  0.0764  0.2849
  299DOPE   D2A 3501   6.559   3.870  13.571 -0.3485  0.0357 -0.1005
  299DOPE   C3A 3502   6.357   4.212  13.899 -0.0412 -0.3062  0.1068
  299DOPE   C4A 3503   6.056   4.255  14.250  0.2955 -0.0421 -0.2611
  299DOPE   C1B 3504   7.233   4.016  13.433  0.1781 -0.2715  0.0847
  299DOPE   D2B 3505   7.508   3.772  13.680  0.0722 -0.3329 -0.1565
  299DOPE   C3B 3506   7.784   3.397  13.659 -0.1386  0.1467 -0.3617
  299DOPE   C4B 3507   7.868   2.929  13.690  0.0831 -0.0285 -0.2959
  300DOPC   NC3 3508   5.737   1.144  12.429 -0.1007  0.0481  0.0260
  300DOPC   PO4 3509   5.539   1.412  12.245  0.2256 -0.1605  0.2241
  300DOPC   GL1 3510   5.604   1.610  12.571 -0.0330  0.1884 -0.3601
  300DOPC   GL2 3511   5.414   1.507  12.730  0.1077 -0.0161  0.1682
  300DOPC   C1A 3512   5.863   1.442  12.950  0.1107  0.1733  0.0337
  300DOPC   D2A 3513   6.318   1.347  13.165  0.3734 -0.0641 -0.1585
  300DOPC   C3A 3514   6.373   1.055  13.527 -0.2426  0.1817 -0.2671
  300DOPC   C4A 3515   6.286   0.768  13.789 -0.2992  0.0452  0.1919
  300DOPC   C1B 3516   5.445   1.346  13.180  0.1110  0.4554 -0.1196
  300DOPC   D2B 3517   5.505   1.390  13.564  0.1879  0.1735  0.3243
  300DOPC   C3B 3518   5.301   1.677  13.827  0.0003 -0.0829 -0.1062
  300DOPC   C4B 3519   5.134   1.754  14.274 -0.0905 -0.1207  0.0788
  301DOPS   CNO 3520  11.053   7.357  11.693 -0.0856 -0.3787 -0.1369
  301DOPS   PO4 3521  10.938   7.387  12.043  0.0047  0.3860  0.0477
  301DOPS   GL1 3522  10.990   7.573  12.507 -0.2010 -0.2019 -0.0411
  301DOPS   GL2 3523  11.120   7.428  12.688 -0.0194  0.2067  0.1700
  301DOPS   C1A 3524  10.729   7.674  12.873 -0.0953  0.2106 -0.1179
  301DOPS   D2A 3525  10.633   7.551  13.329  0.2137  0.0548  0.1214
  301DOPS   C3A 3526  10.667   7.842  13.685 -0.0649 -0.1356  0.0378
  301DOPS   C4A 3527  10.878   8.088  13.973 -0.1281  0.1575 -0.0473
  301DOPS   C1B 3528  11.142   7.504  13.164 -0.1870  0.0401  0.0885
  301DOPS   D2B 3529  11.059   7.440  13.600 -0.0253  0.2926 -0.0781
  301DOPS   C3B 3530  11.229   7.784  13.805 -0.3332 -0.2468  0.1809
  301DOPS   C4B 3531  11.398   8.163  13.964  0.0535 -0.2008  0.0366
  302DOPS   CNO 3532   7.374  10.251  12.487 -0.2619 -0.3486 -0.2568
  302DOPS   PO4 3533   7.048  10.414  12.677  0.0068 -0.1877 -0.0893
  302DOPS   GL1 3534   7.172  10.420  12.977  0.0240  0.0546  0.1207
  302DOPS   GL2 3535   7.308  10.106  13.030  0.4655  0.0668  0.1090
  302DOPS   C1A 3536   7.296  10.483  13.448  0.2126 -0.1171  0.2798
  302DOPS   D2A 3537   7.485  10.557  13.856  0.3401 -0.1019 -0.3810
  302DOPS   C3A 3538   7.908  10.419  13.763  0.0595 -0.0576 -0.0389
  302DOPS   C4A 3539   8.238  10.054  13.676 -0.1650  0.0050 -0.2410
  302DOPS   C1B 3540   7.150   9.925  13.470  0.2666  0.1349 -0.1947
  302DOPS   D2B 3541   7.138   9.530  13.707 -0.0898 -0.1415 -0.1962
  302DOPS   C3B 3542   6.887   9.192  13.848  0.3440  0.0068 -0.0154
  302DOPS   C4B 3543   6.710   8.881  14.090 -0.3206  0.2036  0.0198
  303DOPC   NC3 3544   6.567   9.699  12.667 -0.1340  0.0261  0.0833
  303DOPC   PO4 3545   6.578  10.082  12.611  0.0331  0.1914  0.0986
  303DOPC   GL1 3546   6.835  10.101  12.928  0.2083  0.1319 -0.3382
  303DOPC   GL2 3547   6.794  10.325  13.243  0.2969 -0.3005 -0.2291
  303DOPC   C1A 3548   6.895   9.686  13.103 -0.3805 -0.1086 -0.1782
  303DOPC   D2A 3549   7.312   9.452  13.214 -0.1419 -0.2695  0.1231
  303DOPC   C3A 3550   7.599   9.534  13.534 -0.0390  0.3013  0.2223
  303DOPC   C4A 3551   8.031   9.458  13.624 -0.1789 -0.2571 -0.1545
  303DOPC   C1B 3552   6.712  10.022  13.571 -0.0922  0.4082 -0.2338
  303DOPC   D2B 3553   6.584   9.591  13.486 -0.1239 -0.3068  0.2318
  303DOPC   C3B 3554   6.501   9.380  13.021  0.1567  0.0824 -0.0825
  303DOPC   C4B 3555   6.792   9.263  12.633 -0.1545  0.1781 -0.1730
  304DOPS   CNO 3556   1.828   4.195  12.320 -0.1497  0.0961 -0.2454
  304DOPS   PO4 3557   2.193   4.327  12.271 -0.2484  0.0094  0.2272
  304DOPS   GL1 3558   2.245   4.300  12.693  0.3600  0.0020  0.3672
  304DOPS   GL2 3559   2.550   4.341  12.681  0.3404 -0.1720 -0.0885
  304DOPS   C1A 3560   2.371   4.284  13.163  0.0035  0.0413 -0.0844
  304DOPS   D2A 3561   2.383   4.208  13.670 -0.0801 -0.3869 -0.0326
  304DOPS   C3A 3562   2.639   4.050  14.017  0.2726 -0.0456 -0.0027
  304DOPS   C4A 3563   2.497   3.880  14.471  0.3818 -0.1385 -0.0534
  304DOPS   C1B 3564   2.896   4.241  12.961 -0.2830  0.2748 -0.0793
  304DOPS   D2B 3565   3.293   3.943  12.882 -0.0571 -0.0202 -0.0164
  304DOPS   C3B 3566   3.727   4.100  13.019  0.1774 -0.1847  0.2338
  304DOPS   C4B 3567   4.157   3.952  13.165  0.0845 -0.0329 -0.1978
  305DOPS   CNO 3568   3.966   6.472  12.402 -0.0392  0.0034  0.3505
  305DOPS   PO4 3569   4.030   6.616  12.757  0.2888 -0.2154  0.2283
  305DOPS   GL1 3570   3.912   6.371  13.132 -0.1797  0.0264  0.1014
  305DOPS   GL2 3571   3.999   6.678  13.248 -0.2764  0.2347  0.2665
  305DOPS   C1A 3572   4.178   6.029  13.365  0.1964 -0.1018  0.0251
  305DOPS   D2A 3573   4.493   5.773  13.545  0.0377 -0.3095 -0.0579
  305DOPS   C3A 3574   4.863   5.757  13.825  0.2799  0.0924 -0.0592
  305DOPS   C4A 3575   5.014   5.615  14.260 -0.3412 -0.3322 -0.1836
  305DOPS   C1B 3576   3.907   6.321  13.616 -0.2455  0.0688  0.1444
  305DOPS   D2B 3577   3.553   6.343  13.912 -0.1693 -0.0928 -0.0951
  305DOPS   C3B 3578   3.724   6.662  14.222 -0.0869 -0.0193  0.1545
  305DOPS   C4B 3579   3.932   6.657  14.600 -0.2215  0.2022 -0.0143
  306DOPC   NC3 3580   0.683   9.049  12.084  0.1274  0.0703  0.0052
  306DOPC   PO4 3581   0.838   9.418  12.171 -0.0489 -0.3603 -0.0586
  306DOPC   GL1 3582   1.198   9.391  12.233 -0.1647 -0.0230  0.4013
  306DOPC   GL2 3583   1.385   9.590  12.084 -0.1416 -0.1760 -0.3142
  306DOPC   C1A 3584   1.461   9.042  12.450  0.0843 -0.1219 -0.2217
  306DOPC   D2A 3585   1.824   8.909  12.717 -0.0312 -0.1336  0.0581
  306DOPC   C3A 3586   2.117   8.585  12.526 -0.2025 -0.0480  0.0267
  306DOPC   C4A 3587   2.318   8.185  12.735  0.0700 -0.0134 -0.0336
  306DOPC   C1B 3588   1.715   9.453  12.330  0.0239  0.0524 -0.1561
  306DOPC   D2B 3589   1.998   9.367  12.708  0.0981  0.1337 -0.0714
  306DOPC   C3B 3590   2.090   9.844  12.783 -0.1034  0.0120  0.2483
  306DOPC   C4B 3591   2.411  10.076  13.045  0.1092 -0.2216  0.2536
  307DOPE   NH3 3592  10.762   0.688  12.374  0.2957  0.3181 -0.0928
  307DOPE   PO4 3593  10.608   0.988  12.426 -0.1299 -0.1994 -0.1361
  307DOPE   GL1 3594  10.457   0.851  12.746 -0.3810  0.2016  0.1349
  307DOPE   GL2 3595  10.412   1.061  12.867  0.1174 -0.0013  0.1322
  307DOPE   C1A 3596  10.574   0.435  12.871 -0.3152  0.0414 -0.3140
  307DOPE   D2A 3597  10.629  -0.043  12.943 -0.0497 -0.4133 -0.2471
  307DOPE   C3A 3598  10.369  -0.366  12.902 -0.3765 -0.1885  0.4400
  307DOPE   C4A 3599  10.162  -0.633  13.139 -0.1869 -0.1289  0.1321
  307DOPE   C1B 3600  10.406   0.822  13.255  0.0246  0.2852 -0.0160
  307DOPE   D2B 3601  10.448   0.559  13.630 -0.1478 -0.0777 -0.0216
  307DOPE   C3B 3602  10.252   0.115  13.608 -0.1728  0.0648  0.0758
  307DOPE   C4B 3603  10.144  -0.338  13.540  0.0761  0.3341 -0.0222
  308DOPE   NH3 3604  34.433  11.643  13.009 -0.0273 -0.0243 -0.0111
  308DOPE   PO4 3605  34.706  11.622  12.871  0.0148 -0.3408 -0.0297
  308DOPE   GL1 3606  34.713  11.941  13.230 -0.2632 -0.1135  0.3147
  308DOPE   GL2 3607  35.015  11.964  13.155 -0.0547  0.0912 -0.0232
  308DOPE   C1A 3608  34.869  11.728  13.628  0.0932 -0.3274  0.1851
  308DOPE   D2A 3609  35.303  11.908  13.790 -0.3447  0.1894  0.0052
  308DOPE   C3A 3610  35.582  11.531  13.876  0.0547  0.0315 -0.3749
  308DOPE   C4A 3611  36.026  11.318  13.908  0.0928 -0.1912 -0.0208
  308DOPE   C1B 3612  35.201  11.571  13.331 -0.2418 -0.0320 -0.1348
  308DOPE   D2B 3613  35.211  11.243  13.612  0.0794 -0.1493 -0.0567
  308DOPE   C3B 3614  35.433  10.860  13.698 -0.1535  0.0056  0.0534
  308DOPE   C4B 3615  35.590  10.444  13.586 -0.0245 -0.0324 -0.2270
  309POSM   NC3 3616   6.154   2.268  12.289  0.1143  0.0755  0.3458
  309POSM   PO4 3617   5.774   2.383  12.311 -0.3384 -0.2236  0.1268
  309POSM   AM1 3618   5.872   2.377  12.656  0.1937  0.1642  0.0802
  309POSM   AM2 3619   6.043   2.497  12.845 -0.2266 -0.0304 -0.0247
  309POSM   T1A 3620   5.821   2.315  13.202 -0.4193 -0.2398  0.4042
  309POSM   C2A 3621   5.686   2.527  13.571  0.1694 -0.1370 -0.3672
  309POSM   C3A 3622   5.848   2.715  13.962  0.4810 -0.1576  0.0123
  309POSM   C1B 3623   6.216   2.514  13.140 -0.1810  0.2668  0.1774
  309POSM   D2B 3624   6.214   2.589  13.587 -0.0309  0.0319 -0.0408
  309POSM   C3B 3625   6.520   2.821  13.944 -0.2316  0.1287  0.2229
  309POSM   C4B 3626   6.738   3.149  14.151 -0.0323  0.2146 -0.0177
  310DOPS   CNO 3627   9.562  11.764  12.160 -0.4823  0.5683  0.1207
  310DOPS   PO4 3628   9.534  11.408  12.033 -0.1418  0.0946  0.1575
  310DOPS   GL1 3629   9.289  11.103  12.218 -0.0437  0.0701 -0.0067
  310DOPS   GL2 3630   9.509  11.013  12.402  0.1383  0.2371  0.0242
  310DOPS   C1A 3631   8.828  10.957  12.303 -0.1975  0.0630  0.1300
  310DOPS   D2A 3632   8.373  10.859  12.443 -0.1949 -0.3152  0.3685
  310DOPS   C3A 3633   8.244  10.698  12.855  0.0927 -0.1806  0.1884
  310DOPS   C4A 3634   8.137  10.508  13.234 -0.2691  0.1768  0.4266
  310DOPS   C1B 3635   9.364  10.589  12.473  0.2938 -0.0211  0.2379
  310DOPS   D2B 3636   9.492  10.108  12.411 -0.1657 -0.0107 -0.2151
  310DOPS   C3B 3637   9.156   9.788  12.609 -0.1767  0.1103  0.0202
  310DOPS   C4B 3638   8.870   9.661  12.929 -0.2582 -0.0918  0.0584
  311DOPC   NC3 3639   8.912   2.154  12.295  0.0272 -0.1055  0.3105
  311DOPC   PO4 3640   8.868   2.090  11.945  0.4349 -0.0272  0.3681
  311DOPC   GL1 3641   8.467   2.069  12.094 -0.1759  0.0479  0.3417
  311DOPC   GL2 3642   8.428   1.848  11.912 -0.0151 -0.1070  0.0830
  311DOPC   C1A 3643   8.088   2.280  12.228  0.0009  0.1779  0.0427
  311DOPC   D2A 3644   7.714   2.134  12.505  0.1695  0.0452  0.1099
  311DOPC   C3A 3645   7.732   2.443  12.812  0.0433  0.2149  0.2024
  311DOPC   C4A 3646   7.533   2.677  13.090 -0.1119 -0.3052  0.2779
  311DOPC   C1B 3647   7.969   1.767  12.068  0.3443 -0.3447 -0.2434
  311DOPC   D2B 3648   7.593   1.502  12.191  0.0401  0.0579  0.1074
  311DOPC   C3B 3649   7.228   1.667  12.414  0.1846  0.1082 -0.1429
  311DOPC   C4B 3650   7.111   2.088  12.486  0.2238 -0.1081  0.1579
  312DOPE   NH3 3651   0.366   3.518  12.985  0.1769  0.2035  0.0903
  312DOPE   PO4 3652   0.177   3.338  12.861 -0.2706  0.1164 -0.0371
  312DOPE   GL1 3653   0.059   3.289  13.229 -0.0907  0.2586 -0.7031
  312DOPE   GL2 3654  -0.061   3.442  13.421 -0.0758  0.1384  0.0265
  312DOPE   C1A 3655   0.177   3.061  13.621  0.0566  0.1085 -0.0968
  312DOPE   D2A 3656  -0.063   2.883  14.004  0.1995  0.1815  0.0913
  312DOPE   C3A 3657  -0.104   2.482  14.173 -0.1002 -0.3108 -0.0049
  312DOPE   C4A 3658   0.218   2.239  14.413  0.2077 -0.0302 -0.1276
  312DOPE   C1B 3659   0.031   3.539  13.876 -0.1132  0.1033  0.0397
  312DOPE   D2B 3660   0.213   3.558  14.320 -0.1054 -0.3078 -0.0143
  312DOPE   C3B 3661   0.332   3.134  14.380  0.0149 -0.1790  0.1325
  312DOPE   C4B 3662   0.168   2.723  14.591 -0.0751 -0.0725  0.0831
  313DOPS   CNO 3663   6.080   2.720  12.107  0.0689 -0.0544  0.1510
  313DOPS   PO4 3664   6.211   2.744  12.444  0.1606 -0.0903  0.1631
  313DOPS   GL1 3665   6.448   2.534  12.577 -0.0455  0.0048  0.1019
  313DOPS   GL2 3666   6.720   2.645  12.399 -0.2292 -0.4535 -0.0847
  313DOPS   C1A 3667   6.418   2.077  12.685 -0.1633 -0.1218 -0.0050
  313DOPS   D2A 3668   6.195   1.741  12.442 -0.3844 -0.0700  0.0427
  313DOPS   C3A 3669   6.305   1.612  11.991  0.1434  0.1139  0.1177
  313DOPS   C4A 3670   6.373   1.325  11.642 -0.1007  0.2290  0.0273
  313DOPS   C1B 3671   7.056   2.457  12.086  0.1261 -0.1101  0.3085
  313DOPS   D2B 3672   7.477   2.323  12.043 -0.0550  0.0842 -0.1599
  313DOPS   C3B 3673   7.719   2.693  12.173  0.0850 -0.0177 -0.0257
  313DOPS   C4B 3674   7.794   2.922  12.595 -0.1530 -0.0295  0.2173
  314DOPS   CNO 3675  10.679   8.070  11.789  0.2592  0.1182 -0.2239
  314DOPS   PO4 3676  10.363   8.138  11.967 -0.3348 -0.0475  0.4163
  314DOPS   GL1 3677  10.065   8.377  12.146  0.3461 -0.3263 -0.4256
  314DOPS   GL2 3678   9.855   8.319  12.019  0.1353 -0.2069  0.0544
  314DOPS   C1A 3679  10.000   8.459  12.628  0.1598  0.0756  0.2148
  314DOPS   D2A 3680  10.000   8.679  13.060 -0.1664 -0.1408  0.0888
  314DOPS   C3A 3681   9.738   9.011  13.110  0.1240  0.0117  0.1084
  314DOPS   C4A 3682   9.551   9.443  13.129  0.0766 -0.0898  0.3396
  314DOPS   C1B 3683   9.450   8.476  12.232 -0.3181  0.1467 -0.0881
  314DOPS   D2B 3684   9.031   8.624  12.211  0.0508 -0.1031  0.0880
  314DOPS   C3B 3685   8.907   8.932  12.555  0.0369 -0.0844 -0.0169
  314DOPS   C4B 3686   8.840   9.115  12.971  0.2712  0.0846  0.2097
  315DOPE   NH3 3687   0.159  11.132  12.753  0.1414  0.4656 -0.0059
  315DOPE   PO4 3688   0.102  10.916  12.972 -0.1333  0.0359  0.1423
  315DOPE   GL1 3689   0.208  10.567  13.191  0.0268  0.1536  0.1067
  315DOPE   GL2 3690   0.129  10.321  13.235  0.1278 -0.1375  0.0506
  315DOPE   C1A 3691   0.247  10.481  13.681 -0.3390 -0.0914  0.2507
  315DOPE   D2A 3692   0.363  10.526  14.077  0.1179 -0.1847  0.3945
  315DOPE   C3A 3693   0.558  10.905  14.164 -0.2266  0.0662  0.2600
  315DOPE   C4A 3694   1.008  11.025  14.255  0.0745 -0.1553  0.0804
  315DOPE   C1B 3695  -0.204  10.495  13.496 -0.1403 -0.2019 -0.0367
  315DOPE   D2B 3696  -0.475  10.302  13.807  0.0047 -0.4915 -0.0444
  315DOPE   C3B 3697  -0.494  10.087  14.178  0.1019  0.0279 -0.0363
  315DOPE   C4B 3698  -0.281   9.773  14.468  0.0402  0.0432 -0.1625
  316DOPE   NH3 3699   4.328   6.164  12.625  0.0733 -0.1233  0.1032
  316DOPE   PO4 3700   4.429   6.333  12.889 -0.3251  0.1301  0.0825
  316DOPE   GL1 3701   4.671   6.137  13.136  0.0791 -0.4432  0.0461
  316DOPE   GL2 3702   4.767   5.915  12.909 -0.1481 -0.0561  0.0482
  316DOPE   C1A 3703   4.899   5.802  13.325 -0.3005  0.0735 -0.0433
  316DOPE   D2A 3704   5.315   5.706  13.534  0.3832 -0.0519  0.1952
  316DOPE   C3A 3705   5.337   5.915  13.907  0.0812 -0.1241 -0.1486
  316DOPE   C4A 3706   4.978   6.101  14.179 -0.2783  0.0593  0.0283
  316DOPE   C1B 3707   4.720   5.462  13.000 -0.0423 -0.0821  0.0230
  316DOPE   D2B 3708   4.690   5.105  13.251  0.3760  0.0182  0.3240
  316DOPE   C3B 3709   4.887   4.740  13.362  0.0203 -0.1851 -0.0292
  316DOPE   C4B 3710   4.787   4.312  13.476  0.3788  0.0937  0.5490
  317POSM   NC3 3711  11.398   1.045  12.139 -0.0494  0.0140 -0.0841
  317POSM   PO4 3712  11.311   0.709  12.319  0.0114 -0.3982 -0.0415
  317POSM   AM1 3713  11.222   0.723  12.651 -0.2867  0.0878 -0.4366
  317POSM   AM2 3714  11.001   0.676  12.828 -0.2473  0.2757 -0.0477
  317POSM   T1A 3715  11.363   0.957  13.063 -0.0795 -0.1920 -0.1240
  317POSM   C2A 3716  11.376   1.250  13.436  0.1266  0.1888 -0.2887
  317POSM   C3A 3717  11.491   1.301  13.923 -0.1063  0.2512 -0.1078
  317POSM   C1B 3718  10.841   0.896  13.062  0.1718 -0.2836 -0.0970
  317POSM   D2B 3719  10.946   1.021  13.479  0.1285 -0.1262  0.0941
  317POSM   C3B 3720  11.185   0.575  13.481 -0.0765  0.2567  0.4100
  317POSM   C4B 3721  11.443   0.201  13.643  0.0623 -0.1306  0.2709
  318DOPC   NC3 3722   7.640   5.064  12.452  0.0313  0.4194  0.3029
  318DOPC   PO4 3723   7.620   4.829  12.736 -0.0616 -0.0776  0.1202
  318DOPC   GL1 3724   7.936   4.675  12.893  0.1273 -0.2076 -0.5522
  318DOPC   GL2 3725   7.742   4.544  13.178  0.1031 -0.1168 -0.1963
  318DOPC   C1A 3726   8.220   4.690  13.235 -0.1485  0.2705 -0.0761
  318DOPC   D2A 3727   8.156   4.549  13.711 -0.0038 -0.1547 -0.4072
  318DOPC   C3A 3728   7.781   4.731  13.938 -0.1948 -0.0111 -0.0496
  318DOPC   C4A 3729   7.456   4.739  14.290  0.1013 -0.2024 -0.0313
  318DOPC   C1B 3730   7.490   4.452  13.498  0.0074 -0.1432 -0.0952
  318DOPC   D2B 3731   7.305   4.312  13.879 -0.2367  0.4340  0.0640
  318DOPC   C3B 3732   7.677   4.300  14.183  0.0993  0.2976 -0.1100
  318DOPC   C4B 3733   7.816   4.486  14.576  0.2138  0.0627  0.0731
  319DOPC   NC3 3734   2.964   5.716  12.425  0.1459  0.0035 -0.2333
  319DOPC   PO4 3735   3.200   5.968  12.662  0.4159 -0.0500 -0.0392
  319DOPC   GL1 3736   3.314   5.595  12.706  0.2183 -0.3275  0.0537
  319DOPC   GL2 3737   3.522   5.416  12.582 -0.0706 -0.2465 -0.0742
  319DOPC   C1A 3738   3.196   5.254  13.039  0.1005  0.2645 -0.6073
  319DOPC   D2A 3739   3.150   4.986  13.379 -0.2645 -0.1017 -0.2359
  319DOPC   C3A 3740   3.397   4.608  13.574 -0.0654 -0.2709  0.1942
  319DOPC   C4A 3741   3.739   4.255  13.482  0.0872 -0.1991  0.0700
  319DOPC   C1B 3742   3.938   5.380  12.773 -0.1521 -0.1121  0.2531
  319DOPC   D2B 3743   4.283   5.668  12.890 -0.0588 -0.2209 -0.1520
  319DOPC   C3B 3744   4.222   5.481  13.313 -0.0270 -0.2815  0.0851
  319DOPC   C4B 3745   4.194   5.327  13.739 -0.3865 -0.1324  0.0927
  320DOPE   NH3 3746   8.753  12.377  13.017 -0.1476 -0.0919 -0.1831
  320DOPE   PO4 3747   8.922  12.167  12.828  0.1000 -0.0017  0.1855
  320DOPE   GL1 3748   8.783  11.858  13.128  0.1207  0.1573  0.2215
  320DOPE   GL2 3749   8.634  11.632  13.031 -0.0237  0.1227  0.1546
  320DOPE   C1A 3750   8.513  12.071  13.459 -0.0147  0.0010  0.1110
  320DOPE   D2A 3751   8.306  12.457  13.567  0.0347  0.1254 -0.3750
  320DOPE   C3A 3752   8.444  12.723  13.863  0.5506 -0.1613 -0.1076
  320DOPE   C4A 3753   8.831  12.991  14.068 -0.1244  0.1664 -0.3702
  320DOPE   C1B 3754   8.650  11.152  12.976  0.2359  0.3021 -0.3136
  320DOPE   D2B 3755   9.004  10.983  13.222 -0.1579  0.0071  0.2483
  320DOPE   C3B 3756   9.219  10.660  13.031  0.1022 -0.2320  0.0709
  320DOPE   C4B 3757   9.251  10.233  12.871 -0.0168 -0.1746  0.3035
  321POSM   NC3 3758  10.300  11.803  12.107 -0.0904 -0.0981  0.0707
  321POSM   PO4 3759  10.061  11.807  12.376 -0.0606 -0.0392  0.0585
  321POSM   AM1 3760  10.093  11.554  12.614  0.5872 -0.0580  0.0498
  321POSM   AM2 3761  10.261  11.495  12.806 -0.0458 -0.0296  0.3091
  321POSM   T1A 3762   9.938  11.082  12.746  0.1517  0.0526  0.1304
  321POSM   C2A 3763   9.715  10.751  12.964  0.1253  0.0194 -0.1983
  321POSM   C3A 3764   9.624  10.365  13.224 -0.1254  0.1735 -0.3082
  321POSM   C1B 3765  10.332  11.448  13.166  0.2435 -0.1690 -0.1480
  321POSM   D2B 3766  10.266  11.317  13.639 -0.0517  0.0364  0.0725
  321POSM   C3B 3767  10.457  11.587  14.004  0.2176  0.1711 -0.0529
  321POSM   C4B 3768  10.518  11.841  14.366  0.1314 -0.1221 -0.3357
  322DOPE   NH3 3769   6.745   6.013  12.387  0.1912 -0.0716 -0.1316
  322DOPE   PO4 3770   6.634   5.909  12.668  0.0180 -0.0322 -0.0531
  322DOPE   GL1 3771   6.341   6.024  12.923 -0.1943 -0.0510  0.1866
  322DOPE   GL2 3772   6.504   5.899  13.173  0.0219  0.2069 -0.2228
  322DOPE   C1A 3773   6.060   6.130  13.255 -0.1574 -0.1402  0.1751
  322DOPE   D2A 3774   5.923   6.197  13.654 -0.0576 -0.2226  0.1797
  322DOPE   C3A 3775   5.920   6.665  13.791  0.2129  0.4431 -0.0402
  322DOPE   C4A 3776   6.175   6.949  13.503 -0.0748 -0.0108 -0.0041
  322DOPE   C1B 3777   6.607   6.171  13.488  0.0599 -0.2975  0.1506
  322DOPE   D2B 3778   6.359   6.404  13.743 -0.2710 -0.1843  0.1374
  322DOPE   C3B 3779   6.484   6.805  13.890 -0.2710 -0.0060  0.1621
  322DOPE   C4B 3780   6.647   7.117  14.133 -0.1633 -0.0096  0.0655
  323DOPC   NC3 3781   7.460   5.541  12.500  0.1501  0.0424  0.4189
  323DOPC   PO4 3782   7.103   5.683  12.513  0.3115  0.2551  0.2326
  323DOPC   GL1 3783   7.337   5.710  12.900  0.1537 -0.0481  0.0667
  323DOPC   GL2 3784   7.240   5.496  13.079  0.3112 -0.0594 -0.2805
  323DOPC   C1A 3785   7.676   5.960  13.084 -0.0930  0.1052  0.2106
  323DOPC   D2A 3786   7.944   5.959  13.417  0.0613  0.2098 -0.0276
  323DOPC   C3A 3787   8.132   5.703  13.784 -0.0186  0.2660  0.1818
  323DOPC   C4A 3788   8.555   5.796  13.966 -0.2479 -0.2005 -0.1550
  323DOPC   C1B 3789   7.176   5.286  13.411  0.1103  0.0416  0.0973
  323DOPC   D2B 3790   7.242   5.067  13.808  0.4234  0.0437  0.0518
  323DOPC   C3B 3791   7.014   4.741  13.985 -0.2289  0.0039 -0.0404
  323DOPC   C4B 3792   6.749   4.436  14.186 -0.5333 -0.3723  0.0709
  324DOPS   CNO 3793   2.119   0.270  12.362  0.3348  0.1462 -0.2441
  324DOPS   PO4 3794   2.088   0.620  12.539  0.1995  0.0943  0.1880
  324DOPS   GL1 3795   1.841   0.698  12.780  0.5664  0.0456  0.0137
  324DOPS   GL2 3796   1.814   0.655  13.026 -0.1499 -0.0346  0.2413
  324DOPS   C1A 3797   1.435   0.951  12.711 -0.3851 -0.0474  0.2086
  324DOPS   D2A 3798   1.173   1.291  12.864  0.0766 -0.1124  0.0516
  324DOPS   C3A 3799   1.327   1.473  13.223 -0.0735  0.1781 -0.5042
  324DOPS   C4A 3800   1.691   1.539  13.534  0.1168 -0.1623 -0.0016
  324DOPS   C1B 3801   2.058   0.631  13.448 -0.3088  0.0804  0.3026
  324DOPS   D2B 3802   2.129   0.626  13.898 -0.0035 -0.0245  0.1061
  324DOPS   C3B 3803   1.805   0.757  14.115  0.1510 -0.2646 -0.0271
  324DOPS   C4B 3804   1.387   0.693  14.090  0.1255 -0.3884 -0.1745
  325DOPE   NH3 3805   3.467   9.603  12.333  0.1386  0.0428 -0.0465
  325DOPE   PO4 3806   3.497   9.691  12.630 -0.2531  0.1220 -0.0851
  325DOPE   GL1 3807   3.644   9.475  12.980  0.1697  0.1558 -0.1787
  325DOPE   GL2 3808   3.340   9.355  12.999  0.0386 -0.1304 -0.2254
  325DOPE   C1A 3809   3.522   9.578  13.440  0.1323 -0.4059 -0.0195
  325DOPE   D2A 3810   3.197   9.732  13.711 -0.1827  0.1704  0.1129
  325DOPE   C3A 3811   2.991   9.283  13.667  0.1032  0.1957 -0.0630
  325DOPE   C4A 3812   2.563   9.275  13.463 -0.0161  0.1465  0.0919
  325DOPE   C1B 3813   3.541   9.081  13.359 -0.1765  0.5049  0.1212
  325DOPE   D2B 3814   3.942   9.055  13.612  0.0354  0.2844  0.0929
  325DOPE   C3B 3815   4.010   9.418  13.834 -0.0084 -0.1087 -0.4201
  325DOPE   C4B 3816   4.251   9.591  14.224  0.1005 -0.1165  0.2670
  326DOPE   NH3 3817   2.367   5.301  12.905  0.1354  0.4030 -0.2753
  326DOPE   PO4 3818   2.530   5.317  12.639 -0.0646 -0.2700 -0.0141
  326DOPE   GL1 3819   2.767   5.037  12.795 -0.0688 -0.1907 -0.0084
  326DOPE   GL2 3820   2.693   4.970  13.032 -0.0344  0.3157 -0.2846
  326DOPE   C1A 3821   3.091   4.718  12.847  0.0718  0.4045  0.3169
  326DOPE   D2A 3822   3.368   4.470  13.132 -0.0968 -0.1658  0.0759
  326DOPE   C3A 3823   3.308   4.097  13.339 -0.0001  0.2483 -0.0669
  326DOPE   C4A 3824   3.527   3.814  13.635  0.0038 -0.2055 -0.2901
  326DOPE   C1B 3825   2.807   4.616  13.331  0.1308 -0.1140  0.4404
  326DOPE   D2B 3826   2.778   4.163  13.417  0.2662 -0.0601  0.1332
  326DOPE   C3B 3827   2.476   3.794  13.311  0.1487 -0.3663  0.0282
  326DOPE   C4B 3828   2.244   3.396  13.364  0.1543  0.0097  0.3304
  327DOPS   CNO 3829  10.638  11.383  12.029  0.2908  0.0701 -0.1374
  327DOPS   PO4 3830  10.493  11.477  12.401  0.1316  0.1337  0.0610
  327DOPS   GL1 3831  10.733  11.677  12.629 -0.0731  0.0357 -0.1235
  327DOPS   GL2 3832  10.739  11.451  12.879  0.1281  0.2348  0.0961
  327DOPS   C1A 3833  10.900  11.937  12.973  0.1199 -0.0337  0.4173
  327DOPS   D2A 3834  10.564  12.103  13.310 -0.3507 -0.0464  0.3595
  327DOPS   C3A 3835  10.712  11.701  13.460 -0.1885  0.2378 -0.0983
  327DOPS   C4A 3836  11.175  11.623  13.287 -0.0980  0.1877  0.2508
  327DOPS   C1B 3837  10.695  11.205  13.263 -0.0564 -0.0276  0.1897
  327DOPS   D2B 3838  10.878  11.269  13.673  0.0685 -0.0354 -0.0671
  327DOPS   C3B 3839  11.002  11.649  13.913  0.2534 -0.2192  0.3242
  327DOPS   C4B 3840  11.044  12.057  14.114  0.2697  0.0091 -0.0534
  328DOPE   NH3 3841  11.145   3.109  12.080  0.1562 -0.2742  0.0206
  328DOPE   PO4 3842  11.060   2.790  12.218  0.2821 -0.4184  0.1026
  328DOPE   GL1 3843  11.005   2.734  12.629 -0.0631  0.1155 -0.0591
  328DOPE   GL2 3844  11.320   2.665  12.698 -0.0121  0.0085 -0.1228
  328DOPE   C1A 3845  11.006   2.974  12.996 -0.0275 -0.0465  0.1581
  328DOPE   D2A 3846  10.775   3.311  13.129 -0.0488 -0.0430 -0.2628
  328DOPE   C3A 3847  10.734   3.427  13.576  0.2034 -0.1116  0.3312
  328DOPE   C4A 3848  10.714   3.788  13.843 -0.2940 -0.0152  0.1063
  328DOPE   C1B 3849  11.554   2.358  12.942  0.1436  0.1616 -0.0282
  328DOPE   D2B 3850  11.796   2.059  12.768  0.5027  0.0556 -0.1571
  328DOPE   C3B 3851  11.844   1.593  12.771  0.1838  0.0996 -0.2967
  328DOPE   C4B 3852  12.206   1.240  12.699 -0.1909  0.4290 -0.0698
  329DOPS   CNO 3853   5.043   0.938  12.196  0.0506 -0.0695  0.0136
  329DOPS   PO4 3854   5.271   1.055  12.458  0.1405 -0.0856  0.0592
  329DOPS   GL1 3855   5.245   1.091  12.836  0.1660 -0.0275 -0.2223
  329DOPS   GL2 3856   5.456   0.931  12.909  0.1578  0.1384 -0.0353
  329DOPS   C1A 3857   4.939   1.141  13.167  0.1591 -0.0883  0.1298
  329DOPS   D2A 3858   4.869   1.584  13.428 -0.1863 -0.1923  0.0468
  329DOPS   C3A 3859   4.793   1.613  13.905 -0.1853  0.0805  0.1708
  329DOPS   C4A 3860   4.579   1.632  14.315  0.0111  0.0090 -0.1535
  329DOPS   C1B 3861   5.357   0.854  13.303  0.0307  0.2605 -0.1884
  329DOPS   D2B 3862   5.278   0.536  13.694 -0.0413  0.2258  0.1011
  329DOPS   C3B 3863   5.484   0.108  13.790  0.0716  0.0918  0.1122
  329DOPS   C4B 3864   5.515  -0.326  14.078  0.1804  0.2555 -0.1522
  330DOPS   CNO 3865  10.883   0.961  11.885 -0.0116  0.1073 -0.1155
  330DOPS   PO4 3866  10.919   1.254  12.140 -0.0293  0.0519  0.0820
  330DOPS   GL1 3867  11.040   1.107  12.422  0.3487 -0.2256 -0.2012
  330DOPS   GL2 3868  11.035   1.150  12.698  0.2389  0.1836 -0.0507
  330DOPS   C1A 3869  11.438   1.382  12.496  0.2332 -0.1970  0.1757
  330DOPS   D2A 3870  11.385   1.733  12.797  0.4817  0.0541 -0.1011
  330DOPS   C3A 3871  11.318   1.676  13.276  0.3941  0.0351  0.1545
  330DOPS   C4A 3872  11.222   1.652  13.741  0.1405 -0.0687 -0.0239
  330DOPS   C1B 3873  10.912   1.415  13.021  0.0258  0.4060 -0.0868
  330DOPS   D2B 3874  10.825   1.566  13.435  0.0945 -0.2225 -0.0423
  330DOPS   C3B 3875  10.603   1.335  13.810 -0.1968 -0.1620  0.4064
  330DOPS   C4B 3876  10.458   1.203  14.224  0.1263 -0.2979 -0.2073
  331DOPC   NC3 3877   4.825   1.389  12.687  0.0604 -0.1696  0.1190
  331DOPC   PO4 3878   4.668   1.378  12.320 -0.1457 -0.1595 -0.0614
  331DOPC   GL1 3879   4.306   1.189  12.371 -0.2076  0.0841  0.1068
  331DOPC   GL2 3880   4.329   1.287  12.654 -0.1797  0.2454 -0.0403
  331DOPC   C1A 3881   3.891   1.403  12.452  0.1630 -0.1130 -0.0623
  331DOPC   D2A 3882   3.581   1.326  12.815  0.2179 -0.0624 -0.0828
  331DOPC   C3A 3883   3.934   1.207  13.145 -0.2481 -0.1609  0.1515
  331DOPC   C4A 3884   4.035   1.149  13.608  0.2502 -0.1728  0.1314
  331DOPC   C1B 3885   4.207   1.586  12.958  0.3126  0.1101 -0.1594
  331DOPC   D2B 3886   3.880   1.864  13.096 -0.1828 -0.0792  0.1129
  331DOPC   C3B 3887   3.871   2.277  13.354  0.1758  0.1384  0.4387
  331DOPC   C4B 3888   4.087   2.559  13.602  0.0343  0.2058 -0.0094
  332DOPC   NC3 3889   9.584   7.550  12.064 -0.1051 -0.1942 -0.0399
  332DOPC   PO4 3890   9.562   7.140  12.196 -0.0064 -0.1152 -0.1946
  332DOPC   GL1 3891   9.303   7.067  12.433  0.2373  0.0365 -0.2672
  332DOPC   GL2 3892   9.431   6.958  12.675 -0.3151 -0.0069 -0.2900
  332DOPC   C1A 3893   9.126   7.276  12.861 -0.0077  0.2369 -0.1696
  332DOPC   D2A 3894   9.190   7.307  13.354 -0.0859  0.0236  0.1954
  332DOPC   C3A 3895   9.484   7.042  13.601  0.1101 -0.1905  0.3393
  332DOPC   C4A 3896   9.790   6.714  13.721 -0.0249  0.1758  0.3989
  332DOPC   C1B 3897   9.582   7.122  13.130  0.4357  0.1335  0.2158
  332DOPC   D2B 3898   9.947   7.297  13.336 -0.0665  0.1601  0.3251
  332DOPC   C3B 3899   9.666   7.562  13.683 -0.0036  0.0832  0.0915
  332DOPC   C4B 3900   9.387   7.633  14.044 -0.1612  0.0316  0.0824
  333DOPE   NH3 3901   6.867   4.116  12.306  0.0249  0.0933  0.2719
  333DOPE   PO4 3902   6.747   3.923  12.553  0.0165 -0.1738  0.0536
  333DOPE   GL1 3903   6.634   3.605  12.682  0.3033 -0.2531  0.1677
  333DOPE   GL2 3904   6.320   3.721  12.746  0.0306 -0.0964  0.1673
  333DOPE   C1A 3905   6.893   3.291  12.781 -0.1195  0.2470  0.1600
  333DOPE   D2A 3906   7.043   3.153  13.200 -0.0609 -0.0151  0.2531
  333DOPE   C3A 3907   7.165   3.430  13.519  0.0938 -0.1924 -0.1177
  333DOPE   C4A 3908   7.127   3.467  13.942  0.1562 -0.2248 -0.1548
  333DOPE   C1B 3909   6.092   3.985  13.088  0.0160  0.1850 -0.2463
  333DOPE   D2B 3910   6.079   4.129  13.503 -0.0545 -0.1382 -0.4530
  333DOPE   C3B 3911   5.703   4.202  13.852 -0.0111  0.1123  0.0282
  333DOPE   C4B 3912   5.440   4.335  14.221 -0.0880  0.1347  0.0455
  334DOPC   NC3 3913   9.815  11.680  12.973 -0.0875  0.1720 -0.1697
  334DOPC   PO4 3914   9.591  11.810  13.315  0.0743 -0.1683  0.1957
  334DOPC   GL1 3915   9.559  11.491  13.347  0.2879  0.2146  0.6677
  334DOPC   GL2 3916   9.771  11.379  13.482  0.2364 -0.1370 -0.2701
  334DOPC   C1A 3917   9.230  11.271  13.586  0.2892  0.1023  0.3614
  334DOPC   D2A 3918   8.881  11.309  13.891  0.1466  0.1223  0.0280
  334DOPC   C3A 3919   8.460  11.464  14.066 -0.2415  0.1028  0.2281
  334DOPC   C4A 3920   8.004  11.468  14.099  0.1068 -0.3012  0.5165
  334DOPC   C1B 3921   9.923  10.966  13.543 -0.1282  0.2001  0.1159
  334DOPC   D2B 3922  10.010  10.504  13.558 -0.1017 -0.2605 -0.0521
  334DOPC   C3B 3923   9.720  10.177  13.750 -0.0025 -0.1421 -0.0173
  334DOPC   C4B 3924   9.817   9.790  13.893 -0.0303 -0.0523 -0.1234
  335POSM   NC3 3925   5.376   2.728  12.213 -0.1831  0.1433  0.1512
  335POSM   PO4 3926   5.458   2.662  12.594  0.2227  0.0239  0.1535
  335POSM   AM1 3927   5.457   2.413  12.821 -0.0841  0.1760 -0.1110
  335POSM   AM2 3928   5.511   2.123  12.776  0.0598  0.1077  0.0000
  335POSM   T1A 3929   5.374   2.253  13.261 -0.2833  0.0868  0.2929
  335POSM   C2A 3930   5.246   2.426  13.699 -0.1324  0.2313  0.1786
  335POSM   C3A 3931   5.377   2.698  14.033 -0.0579  0.0954  0.1120
  335POSM   C1B 3932   5.758   1.967  12.902 -0.1136  0.1362  0.1945
  335POSM   D2B 3933   6.204   1.924  13.075  0.3143  0.0917 -0.2877
  335POSM   C3B 3934   6.367   2.034  13.532 -0.3807 -0.0551  0.0517
  335POSM   C4B 3935   6.392   2.282  13.953 -0.1717  0.0264 -0.0727
  336DOPC   NC3 3936   2.601   7.297  12.413 -0.1967  0.3084  0.2671
  336DOPC   PO4 3937   2.999   7.343  12.428 -0.0418  0.1837  0.0648
  336DOPC   GL1 3938   2.868   7.558  12.700  0.2953  0.0047  0.1627
  336DOPC   GL2 3939   2.721   7.819  12.466 -0.4074  0.1769 -0.2737
  336DOPC   C1A 3940   3.024   7.634  13.166 -0.1044  0.3167  0.1004
  336DOPC   D2A 3941   2.850   7.847  13.591 -0.0357 -0.0285  0.3706
  336DOPC   C3A 3942   3.171   8.198  13.669  0.0220 -0.1656  0.2671
  336DOPC   C4A 3943   3.392   8.446  13.998  0.1493  0.1053 -0.1038
  336DOPC   C1B 3944   2.831   8.088  12.789  0.1690  0.0393 -0.4112
  336DOPC   D2B 3945   2.685   8.560  12.905 -0.0128  0.0079  0.1284
  336DOPC   C3B 3946   2.256   8.539  13.094 -0.2256  0.1969  0.3046
  336DOPC   C4B 3947   2.178   8.500  13.543  0.0304 -0.1530 -0.1926
  337DOPC   NC3 3948   5.891   8.059  12.357  0.2951 -0.2169 -0.1062
  337DOPC   PO4 3949   5.689   8.385  12.486 -0.1548 -0.0863  0.1563
  337DOPC   GL1 3950   5.690   8.454  12.838  0.1007 -0.1009 -0.1293
  337DOPC   GL2 3951   5.796   8.183  12.924  0.0354 -0.1117 -0.0671
  337DOPC   C1A 3952   5.890   8.755  13.139  0.3098  0.2372 -0.1763
  337DOPC   D2A 3953   6.317   8.836  13.283 -0.2199  0.0333  0.0010
  337DOPC   C3A 3954   6.282   9.205  13.480  0.2083  0.2913  0.1733
  337DOPC   C4A 3955   6.025   9.535  13.677 -0.2447  0.0533 -0.0146
  337DOPC   C1B 3956   6.226   8.440  12.901  0.0483  0.1628  0.1042
  337DOPC   D2B 3957   6.690   8.414  12.893  0.6613 -0.0847  0.2859
  337DOPC   C3B 3958   6.791   8.619  13.278 -0.1008  0.1684 -0.0469
  337DOPC   C4B 3959   6.972   8.699  13.697  0.1939 -0.0581  0.0160
  338DOPE   NH3 3960   3.555  10.124  12.364  0.3557 -0.1547  0.1084
  338DOPE   PO4 3961   3.265  10.158  12.517  0.0716 -0.1845 -0.0123
  338DOPE   GL1 3962   3.279  10.041  12.875  0.1585  0.0081  0.1453
  338DOPE   GL2 3963   3.092   9.767  12.899  0.0160 -0.1114  0.1783
  338DOPE   C1A 3964   3.120  10.090  13.298 -0.0677 -0.1091 -0.2259
  338DOPE   D2A 3965   3.240  10.249  13.697 -0.1277  0.1233 -0.1371
  338DOPE   C3A 3966   3.269  10.725  13.730 -0.2162  0.0146 -0.3171
  338DOPE   C4A 3967   3.097  11.146  13.623 -0.4622 -0.2522  0.0840
  338DOPE   C1B 3968   2.832   9.638  13.247  0.0244 -0.0581 -0.0044
  338DOPE   D2B 3969   2.555   9.833  13.574 -0.0385 -0.0467  0.0947
  338DOPE   C3B 3970   2.222   9.534  13.772 -0.0977 -0.6574  0.2903
  338DOPE   C4B 3971   1.934   9.589  14.199 -0.1815 -0.0394  0.0530
  339DOPE   NH3 3972   0.783  10.849  12.083 -0.0005  0.2038  0.0497
  339DOPE   PO4 3973   1.099  10.964  12.158  0.1023 -0.3395 -0.0049
  339DOPE   GL1 3974   1.333  10.956  12.500 -0.1867  0.1853  0.3915
  339DOPE   GL2 3975   1.392  11.265  12.446 -0.2016  0.2969 -0.1557
  339DOPE   C1A 3976   1.644  10.602  12.381 -0.4240  0.0137  0.0211
  339DOPE   D2A 3977   1.956  10.339  12.582 -0.2233  0.0471  0.1198
  339DOPE   C3A 3978   1.990  10.374  13.051 -0.0323 -0.2086  0.2095
  339DOPE   C4A 3979   2.131  10.237  13.467  0.0003 -0.0635  0.1910
  339DOPE   C1B 3980   1.429  11.460  12.947 -0.0850  0.0069 -0.1410
  339DOPE   D2B 3981   1.348  11.600  13.359 -0.1956  0.0473 -0.1670
  339DOPE   C3B 3982   1.820  11.753  13.420 -0.3186  0.2399 -0.1493
  339DOPE   C4B 3983   2.250  11.703  13.483 -0.0129 -0.1321  0.2401
  340DOPC   NC3 3984  34.380   7.367  12.108  0.0634 -0.2245 -0.2020
  340DOPC   PO4 3985  34.485   7.102  12.406  0.3562  0.0622 -0.0847
  340DOPC   GL1 3986  34.470   7.104  12.737 -0.0411  0.1765  0.0327
  340DOPC   GL2 3987  34.268   7.050  12.889 -0.1458 -0.2629 -0.1341
  340DOPC   C1A 3988  34.587   7.287  13.120 -0.3784 -0.0686 -0.1001
  340DOPC   D2A 3989  34.774   7.053  13.417  0.0009 -0.1593 -0.1425
  340DOPC   C3A 3990  35.148   7.251  13.533 -0.2117 -0.0264  0.1603
  340DOPC   C4A 3991  35.357   7.698  13.618  0.1816  0.2758 -0.0208
  340DOPC   C1B 3992  34.298   6.856  13.372 -0.1943 -0.0258  0.3859
  340DOPC   D2B 3993  34.378   6.424  13.608  0.0002 -0.0777  0.0194
  340DOPC   C3B 3994  34.268   6.121  13.937 -0.2082 -0.2931 -0.0249
  340DOPC   C4B 3995  34.512   5.764  14.180 -0.0717 -0.1967 -0.0349
  341DOPE   NH3 3996   8.861   5.847  12.549  0.1874  0.0532 -0.0700
  341DOPE   PO4 3997   9.047   5.879  12.254 -0.3264  0.0681  0.2240
  341DOPE   GL1 3998   9.237   6.152  12.556  0.0200  0.2290  0.3745
  341DOPE   GL2 3999   9.174   5.995  12.850 -0.2003  0.0093 -0.0628
  341DOPE   C1A 4000   9.691   6.392  12.539  0.0059  0.0458 -0.2855
  341DOPE   D2A 4001   9.878   6.845  12.448  0.0507 -0.0173  0.0498
  341DOPE   C3A 4002  10.026   7.092  12.750  0.1246  0.1665 -0.2634
  341DOPE   C4A 4003  10.421   7.107  12.979  0.2382  0.3193  0.1638
  341DOPE   C1B 4004   9.549   6.223  13.043 -0.3949  0.2974 -0.1054
  341DOPE   D2B 4005   9.766   6.663  12.932  0.0182 -0.0589  0.0175
  341DOPE   C3B 4006  10.077   6.782  13.226 -0.0131  0.0846 -0.0876
  341DOPE   C4B 4007  10.384   6.927  13.496 -0.2503  0.1568 -0.3678
  342DOPS   CNO 4008   6.605  10.625  12.428 -0.0811  0.0209 -0.3496
  342DOPS   PO4 4009   6.582  10.969  12.608  0.0096 -0.1661  0.0592
  342DOPS   GL1 4010   6.254  10.950  12.932  0.0781 -0.1343 -0.0617
  342DOPS   GL2 4011   6.419  10.983  13.088 -0.0318  0.0277  0.1305
  342DOPS   C1A 4012   6.006  10.650  13.239 -0.0582 -0.2369 -0.1759
  342DOPS   D2A 4013   5.642  10.455  13.417 -0.2757  0.0306 -0.3423
  342DOPS   C3A 4014   5.593  10.471  13.875  0.0246  0.1581  0.1161
  342DOPS   C4A 4015   5.852  10.275  14.207 -0.1817  0.0359 -0.1897
  342DOPS   C1B 4016   6.262  11.061  13.454 -0.2205 -0.1745 -0.0716
  342DOPS   D2B 4017   6.451  11.016  13.916 -0.0698  0.1124  0.1611
  342DOPS   C3B 4018   6.766  10.659  13.992  0.2380  0.0396  0.2227
  342DOPS   C4B 4019   7.051  10.259  13.848  0.0786 -0.1609 -0.2236
  343DOPC   NC3 4020   3.949  11.022  12.763  0.0663 -0.0217  0.0449
  343DOPC   PO4 4021   3.584  10.981  12.865 -0.3206  0.2390 -0.1455
  343DOPC   GL1 4022   3.354  10.977  13.065  0.0813  0.0678 -0.0986
  343DOPC   GL2 4023   3.198  11.276  13.123 -0.1387 -0.0596  0.0908
  343DOPC   C1A 4024   3.022  10.742  13.271 -0.2200 -0.3155 -0.1785
  343DOPC   D2A 4025   2.820  10.516  13.661 -0.2084  0.1021 -0.1120
  343DOPC   C3A 4026   3.004  10.537  14.127  0.0239  0.1127 -0.2812
  343DOPC   C4A 4027   3.045  10.339  14.533  0.3123 -0.3175 -0.0761
  343DOPC   C1B 4028   2.770  11.139  13.190 -0.5058 -0.0529  0.0105
  343DOPC   D2B 4029   2.438  10.997  13.475 -0.0222  0.1553 -0.1340
  343DOPC   C3B 4030   2.475  11.409  13.759  0.1570 -0.3089 -0.0839
  343DOPC   C4B 4031   2.491  11.446  14.220  0.0651  0.0877  0.1504
  344POSM   NC3 4032   8.031   6.434  12.401  0.1260 -0.0479 -0.0033
  344POSM   PO4 4033   8.365   6.644  12.352  0.0385  0.0246  0.1354
  344POSM   AM1 4034   8.392   6.718  12.680  0.0544 -0.1760  0.0602
  344POSM   AM2 4035   8.493   6.588  12.921 -0.1188 -0.1525 -0.0318
  344POSM   T1A 4036   8.436   7.049  13.065 -0.2058 -0.0263 -0.1293
  344POSM   C2A 4037   8.313   7.448  13.247 -0.2861  0.0634 -0.0869
  344POSM   C3A 4038   8.013   7.564  13.560 -0.0243  0.0431  0.0962
  344POSM   C1B 4039   8.622   6.441  13.234 -0.0898 -0.1109  0.0812
  344POSM   D2B 4040   8.633   6.486  13.708  0.0429 -0.3430 -0.2194
  344POSM   C3B 4041   8.805   6.733  14.025  0.2478 -0.2256 -0.1533
  344POSM   C4B 4042   8.633   6.691  14.393  0.0026  0.1859 -0.1090
  345DOPC   NC3 4043   2.479   6.617  12.588  0.1043 -0.0419 -0.3713
  345DOPC   PO4 4044   2.122   6.435  12.461  0.0844 -0.0419 -0.0474
  345DOPC   GL1 4045   2.026   6.671  12.767  0.3242  0.0294 -0.0238
  345DOPC   GL2 4046   1.722   6.575  12.737 -0.2758 -0.0401 -0.1596
  345DOPC   C1A 4047   1.710   6.899  13.103  0.0679 -0.0001  0.1466
  345DOPC   D2A 4048   1.423   6.851  13.441  0.0519 -0.0050 -0.2010
  345DOPC   C3A 4049   1.003   6.627  13.245 -0.0544  0.1875  0.0913
  345DOPC   C4A 4050   0.587   6.727  13.131  0.2235  0.1101 -0.0919
  345DOPC   C1B 4051   1.689   6.403  13.225  0.1929 -0.0492  0.1412
  345DOPC   D2B 4052   1.403   6.194  13.554  0.1148  0.4879 -0.0222
  345DOPC   C3B 4053   1.638   5.838  13.734  0.1334 -0.0821  0.0876
  345DOPC   C4B 4054   1.943   5.603  13.999  0.0877 -0.1488 -0.2723
  346POSM   NC3 4055   4.901   7.299  12.683 -0.0548  0.1212  0.0297
  346POSM   PO4 4056   5.080   7.657  12.743 -0.1035 -0.2202  0.1950
  346POSM   AM1 4057   5.180   7.837  12.972  0.0263  0.0766 -0.2932
  346POSM   AM2 4058   5.408   7.944  13.138  0.1091 -0.4292  0.0023
  346POSM   T1A 4059   5.032   8.056  13.424 -0.0027  0.2060  0.0737
  346POSM   C2A 4060   5.047   7.975  13.909  0.1575 -0.3552  0.1851
  346POSM   C3A 4061   5.085   7.925  14.412  0.1258  0.0999  0.0994
  346POSM   C1B 4062   5.636   8.013  13.327  0.1878 -0.1619  0.2480
  346POSM   D2B 4063   5.927   8.343  13.487  0.0008  0.2164  0.0645
  346POSM   C3B 4064   5.926   8.513  13.956  0.1920 -0.3286 -0.1432
  346POSM   C4B 4065   5.977   8.789  14.386  0.0034 -0.0908 -0.0272
  347DOPE   NH3 4066   2.783   6.212  13.125 -0.3237 -0.0544 -0.4237
  347DOPE   PO4 4067   2.804   6.408  12.888  0.0431 -0.0065 -0.2044
  347DOPE   GL1 4068   2.811   6.654  13.201  0.3560 -0.3748  0.0840
  347DOPE   GL2 4069   3.074   6.739  13.193  0.0359  0.2838 -0.2708
  347DOPE   C1A 4070   2.617   6.841  13.572 -0.0510  0.1017  0.0499
  347DOPE   D2A 4071   2.344   6.816  13.943  0.1271  0.0484 -0.0858
  347DOPE   C3A 4072   2.126   6.454  14.060  0.0119 -0.0538  0.2866
  347DOPE   C4A 4073   1.789   6.191  14.179 -0.0225 -0.3096 -0.0232
  347DOPE   C1B 4074   3.063   6.699  13.685 -0.1338  0.3029  0.3422
  347DOPE   D2B 4075   2.848   6.925  14.031 -0.1669  0.1485 -0.0434
  347DOPE   C3B 4076   3.034   7.071  14.473  0.1454 -0.3675 -0.1183
  347DOPE   C4B 4077   3.212   7.153  14.874  0.0790 -0.2588  0.1899
  348DOPE   NH3 4078   8.700   6.233  12.269  0.1348  0.5212 -0.0970
  348DOPE   PO4 4079   8.813   6.345  12.542  0.0224 -0.0939  0.0009
  348DOPE   GL1 4080   8.941   6.465  12.853 -0.0854  0.0346  0.1553
  348DOPE   GL2 4081   9.198   6.539  12.749  0.1355  0.1062 -0.1492
  348DOPE   C1A 4082   9.078   6.250  13.268  0.2118 -0.0661  0.2742
  348DOPE   D2A 4083   9.404   5.954  13.483  0.0322  0.2647  0.3844
  348DOPE   C3A 4084   9.411   5.698  13.874 -0.1420 -0.1546 -0.1443
  348DOPE   C4A 4085   8.998   5.691  14.168 -0.4492  0.4229  0.1814
  348DOPE   C1B 4086   9.363   6.682  13.213  0.0605 -0.0147  0.3052
  348DOPE   D2B 4087   9.337   6.520  13.578 -0.1596  0.0687 -0.0921
  348DOPE   C3B 4088   9.326   6.734  13.984  0.3607  0.0660  0.2042
  348DOPE   C4B 4089   9.567   7.125  14.183  0.3014 -0.0836  0.4439
  349DOPS   CNO 4090   6.691   0.279  12.301 -0.0779  0.1926  0.1599
  349DOPS   PO4 4091   6.568   0.520  12.581  0.0367  0.0369  0.0711
  349DOPS   GL1 4092   6.562   0.104  12.715 -0.2284 -0.2930 -0.0854
  349DOPS   GL2 4093   6.768   0.152  12.875 -0.0562  0.1122  0.0071
  349DOPS   C1A 4094   6.325  -0.268  12.595  0.0341  0.0417  0.3202
  349DOPS   D2A 4095   6.484  -0.715  12.431 -0.2492 -0.0985  0.0578
  349DOPS   C3A 4096   6.790  -0.897  12.708  0.0557 -0.0665  0.2532
  349DOPS   C4A 4097   6.935  -0.760  13.130  0.2022  0.0787  0.0814
  349DOPS   C1B 4098   7.027   0.180  13.278  0.3350  0.3248  0.2277
  349DOPS   D2B 4099   7.444   0.128  13.457  0.1195 -0.2758 -0.3040
  349DOPS   C3B 4100   7.666  -0.229  13.575  0.0538 -0.2052  0.1045
  349DOPS   C4B 4101   7.985  -0.481  13.774 -0.1698  0.2426  0.0775
  350DOPE   NH3 4102   1.597   0.396  12.491 -0.0662  0.1538 -0.0284
  350DOPE   PO4 4103   1.475   0.254  12.768  0.2824  0.2248 -0.2049
  350DOPE   GL1 4104   1.361   0.377  13.094  0.1462  0.2184  0.2213
  350DOPE   GL2 4105   1.118   0.328  13.191 -0.2062 -0.0721 -0.1160
  350DOPE   C1A 4106   1.611   0.483  13.510 -0.1065  0.0899  0.1332
  350DOPE   D2A 4107   1.738   0.303  13.897 -0.1802  0.2672 -0.1277
  350DOPE   C3A 4108   1.687   0.349  14.374  0.0625 -0.1554  0.0104
  350DOPE   C4A 4109   1.537   0.174  14.803 -0.5864 -0.1682  0.0587
  350DOPE   C1B 4110   1.180   0.828  13.093  0.0730  0.2431  0.2342
  350DOPE   D2B 4111   1.546   1.057  13.199 -0.1769 -0.1614  0.0437
  350DOPE   C3B 4112   1.706   1.402  12.925 -0.2214  0.1715  0.2936
  350DOPE   C4B 4113   1.960   1.832  12.909 -0.2550 -0.0639 -0.0792
  351DOPE   NH3 4114   9.823   1.595  12.411  0.1794  0.1958 -0.0550
  351DOPE   PO4 4115   9.877   1.313  12.247  0.1249  0.0501 -0.1184
  351DOPE   GL1 4116  10.046   1.050  12.561  0.0960 -0.1732 -0.1536
  351DOPE   GL2 4117   9.956   1.252  12.784 -0.0024 -0.0291  0.0818
  351DOPE   C1A 4118   9.995   0.719  12.886 -0.1566 -0.0554  0.0166
  351DOPE   D2A 4119  10.067   0.372  13.190 -0.1005 -0.1913 -0.2864
  351DOPE   C3A 4120   9.884   0.553  13.603  0.2810  0.0167 -0.1194
  351DOPE   C4A 4121   9.609   0.808  13.870 -0.0665  0.2369 -0.2079
  351DOPE   C1B 4122   9.862   1.060  13.201  0.0483 -0.0888 -0.1062
  351DOPE   D2B 4123   9.758   1.198  13.592  0.0996  0.1097 -0.0595
  351DOPE   C3B 4124   9.289   1.227  13.643  0.3656  0.1224 -0.1411
  351DOPE   C4B 4125   9.022   0.914  13.599 -0.0406 -0.2337  0.1725
  352POSM   NC3 4126  11.357   9.300  13.037  0.1791  0.0170  0.3843
  352POSM   PO4 4127  11.241   9.357  12.672 -0.0687  0.2197  0.1654
  352POSM   AM1 4128  10.974   9.520  12.605  0.0149  0.0294 -0.0468
  352POSM   AM2 4129  10.884   9.715  12.427 -0.0162 -0.2048  0.1500
  352POSM   T1A 4130  10.462   9.516  12.640 -0.0825 -0.1305 -0.0630
  352POSM   C2A 4131  10.168   9.839  12.728  0.0682 -0.1776  0.0508
  352POSM   C3A 4132   9.715  10.020  12.838  0.0014 -0.1580  0.2893
  352POSM   C1B 4133  10.805  10.017  12.632  0.0794  0.2334  0.3789
  352POSM   D2B 4134  10.528  10.347  12.785 -0.0681 -0.4870 -0.0308
  352POSM   C3B 4135  10.638  10.586  13.157  0.1774 -0.0667  0.0155
  352POSM   C4B 4136  11.002  10.513  13.368  0.1694  0.0095  0.2201
  353DOPC   NC3 4137  10.789   8.628  12.517  0.1442 -0.0260  0.3774
  353DOPC   PO4 4138  10.733   8.386  12.261  0.2967 -0.0922  0.2150
  353DOPC   GL1 4139  10.422   8.243  12.386  0.1258 -0.0424 -0.5423
  353DOPC   GL2 4140  10.534   8.148  12.639 -0.0491  0.2259 -0.0358
  353DOPC   C1A 4141  10.093   7.998  12.652  0.4222  0.0090  0.1248
  353DOPC   D2A 4142   9.997   8.106  13.066  0.0922 -0.0795  0.1831
  353DOPC   C3A 4143   9.712   8.118  13.409  0.0651 -0.0228 -0.2005
  353DOPC   C4A 4144   9.601   8.031  13.824 -0.0392 -0.0546 -0.2988
  353DOPC   C1B 4145  10.483   8.556  12.918 -0.0231  0.0894  0.1025
  353DOPC   D2B 4146  10.683   8.800  13.384  0.0544  0.1670  0.2008
  353DOPC   C3B 4147  10.892   9.208  13.359  0.3609  0.4112  0.1190
  353DOPC   C4B 4148  11.082   9.616  13.488 -0.2721 -0.1684 -0.1457
  354DOPC   NC3 4149   4.771   0.190  12.062  0.1730 -0.1019 -0.0708
  354DOPC   PO4 4150   4.632   0.094  12.443  0.2243  0.0566 -0.2011
  354DOPC   GL1 4151   4.849   0.282  12.791 -0.1393 -0.1161 -0.1275
  354DOPC   GL2 4152   4.606   0.424  12.805 -0.1785  0.3047  0.2012
  354DOPC   C1A 4153   5.007   0.495  13.189  0.2109  0.1405  0.1282
  354DOPC   D2A 4154   4.884   0.796  13.537  0.1069 -0.1780  0.2739
  354DOPC   C3A 4155   5.110   1.182  13.719  0.0435 -0.0514 -0.0448
  354DOPC   C4A 4156   5.452   1.234  14.090 -0.1567  0.1870  0.2429
  354DOPC   C1B 4157   4.206   0.354  13.040 -0.1751 -0.0936 -0.3209
  354DOPC   D2B 4158   4.084   0.125  13.472 -0.1566  0.2005 -0.3405
  354DOPC   C3B 4159   4.425  -0.107  13.633 -0.0908 -0.2437 -0.1372
  354DOPC   C4B 4160   4.718  -0.465  13.517 -0.0009 -0.0117 -0.1807
  355DOPE   NH3 4161   4.044   0.822  12.640 -0.0952 -0.3674 -0.0567
  355DOPE   PO4 4162   3.813   0.623  12.555 -0.1467  0.0138  0.0279
  355DOPE   GL1 4163   3.677   0.717  12.932  0.1596 -0.0194 -0.0981
  355DOPE   GL2 4164   3.381   0.772  12.977 -0.0747 -0.1596  0.1409
  355DOPE   C1A 4165   3.964   0.727  13.321 -0.0139 -0.1545 -0.1982
  355DOPE   D2A 4166   4.062   0.597  13.777  0.0698  0.0539 -0.1945
  355DOPE   C3A 4167   4.019   0.961  14.079 -0.2739 -0.1479  0.0733
  355DOPE   C4A 4168   4.159   1.125  14.443  0.1180  0.0820 -0.1172
  355DOPE   C1B 4169   3.476   0.943  13.359 -0.0686 -0.0552  0.0000
  355DOPE   D2B 4170   3.638   0.884  13.760  0.4247  0.2043  0.2317
  355DOPE   C3B 4171   3.255   0.765  14.037  0.0799 -0.0297 -0.2234
  355DOPE   C4B 4172   2.986   0.696  14.423 -0.1783  0.0030 -0.0703
  356DOPE   NH3 4173   7.929   4.641  12.399 -0.1211  0.1154 -0.0027
  356DOPE   PO4 4174   7.728   4.393  12.459 -0.1933  0.0341  0.1580
  356DOPE   GL1 4175   7.899   4.222  12.812 -0.0691 -0.1363  0.2231
  356DOPE   GL2 4176   8.064   4.221  12.936 -0.0473  0.2502  0.2996
  356DOPE   C1A 4177   7.769   4.051  13.251 -0.0957  0.1439  0.1575
  356DOPE   D2A 4178   7.786   4.131  13.716 -0.0243 -0.0631 -0.0542
  356DOPE   C3A 4179   7.871   3.863  14.098 -0.2208 -0.2691  0.1350
  356DOPE   C4A 4180   7.600   3.466  14.093 -0.2689  0.3472  0.2341
  356DOPE   C1B 4181   8.312   4.192  13.276  0.1839 -0.0606  0.0165
  356DOPE   D2B 4182   8.678   4.354  13.510 -0.0047  0.1925 -0.1580
  356DOPE   C3B 4183   8.875   4.426  13.910 -0.1840  0.0256  0.3809
  356DOPE   C4B 4184   8.679   4.604  14.276  0.0172  0.0830 -0.3680
  357POSM   NC3 4185   6.343   0.584  12.135 -0.1353  0.1844 -0.1200
  357POSM   PO4 4186   5.978   0.749  12.179 -0.0769  0.2145  0.0830
  357POSM   AM1 4187   6.050   0.822  12.465 -0.3532  0.2023  0.3207
  357POSM   AM2 4188   6.083   0.724  12.714  0.3206  0.2609  0.2144
  357POSM   T1A 4189   6.217   1.259  12.626  0.0375 -0.0136 -0.0923
  357POSM   C2A 4190   6.503   1.572  12.793 -0.0971  0.1719  0.0377
  357POSM   C3A 4191   6.901   1.828  12.828  0.0904 -0.2144 -0.0493
  357POSM   C1B 4192   6.018   0.938  13.007 -0.1774 -0.2234 -0.0656
  357POSM   D2B 4193   5.878   1.073  13.391 -0.0016  0.1146 -0.1551
  357POSM   C3B 4194   5.703   0.860  13.702  0.1958 -0.0347  0.0318
  357POSM   C4B 4195   5.497   0.750  14.082  0.2053  0.0966 -0.2405
  358POSM   NC3 4196   6.849   4.944  12.902  0.1137  0.0567 -0.1053
  358POSM   PO4 4197   7.154   5.104  12.743 -0.2634 -0.2783  0.1181
  358POSM   AM1 4198   7.296   4.996  12.992  0.0177 -0.1201  0.1879
  358POSM   AM2 4199   7.250   4.754  13.114 -0.0808  0.0505 -0.0295
  358POSM   T1A 4200   7.547   4.963  13.431 -0.0459 -0.2909  0.0399
  358POSM   C2A 4201   8.020   5.084  13.599 -0.0489  0.0542  0.2212
  358POSM   C3A 4202   8.326   4.978  13.913  0.0857  0.0700  0.1477
  358POSM   C1B 4203   7.048   4.780  13.433  0.3304 -0.4297  0.1184
  358POSM   D2B 4204   6.753   5.100  13.635 -0.2933  0.0529 -0.1275
  358POSM   C3B 4205   6.580   4.753  13.826 -0.1972 -0.0594 -0.5282
  358POSM   C4B 4206   6.346   4.708  14.224 -0.0297  0.0370 -0.1308
  359POSM   NC3 4207   0.578  10.080  12.972 -0.1203  0.1216  0.2873
  359POSM   PO4 4208   0.820  10.151  12.710  0.0257 -0.0930  0.1067
  359POSM   AM1 4209   1.056   9.977  12.623  0.0220  0.3060 -0.3048
  359POSM   AM2 4210   1.125   9.782  12.482 -0.1974  0.1055  0.2152
  359POSM   T1A 4211   1.559   9.968  12.499 -0.0013 -0.1469 -0.2539
  359POSM   C2A 4212   1.834   9.905  12.167 -0.0107 -0.1120  0.0742
  359POSM   C3A 4213   2.004  10.223  11.860  0.0031  0.1063  0.0737
  359POSM   C1B 4214   1.296   9.528  12.627 -0.2086  0.1420 -0.1063
  359POSM   D2B 4215   1.386   9.178  12.989 -0.1452 -0.1838 -0.0091
  359POSM   C3B 4216   1.224   8.783  13.189  0.2442  0.1495  0.3448
  359POSM   C4B 4217   1.179   8.380  13.232 -0.2565  0.0058  0.2378
  360POSM   NC3 4218   8.801   4.281  12.385 -0.1632  0.2571  0.1023
  360POSM   PO4 4219   8.961   4.158  12.057  0.1248  0.3546 -0.4539
  360POSM   AM1 4220   9.236   4.031  12.038 -0.0972  0.0964  0.2799
  360POSM   AM2 4221   9.504   4.015  12.219  0.0871 -0.0928  0.0623
  360POSM   T1A 4222   9.599   3.749  11.849  0.1415  0.0976  0.0050
  360POSM   C2A 4223   9.929   3.386  11.851  0.2220  0.2396 -0.3033
  360POSM   C3A 4224   9.929   2.906  11.807  0.0984 -0.1011  0.1640
  360POSM   C1B 4225   9.721   3.876  12.435  0.1317 -0.0810  0.3968
  360POSM   D2B 4226   9.979   3.886  12.809 -0.1318  0.3795 -0.1358
  360POSM   C3B 4227   9.881   3.793  13.246 -0.0623 -0.0842  0.1319
  360POSM   C4B 4228   9.650   3.465  13.477 -0.0570  0.1717  0.1123
  361DOPC   NC3 4229   3.549   6.336  12.735  0.1762  0.1135 -0.0339
  361DOPC   PO4 4230   3.840   6.026  12.730  0.0211 -0.3617  0.1767
  361DOPC   GL1 4231   3.595   5.956  13.055  0.1039 -0.0122 -0.1262
  361DOPC   GL2 4232   3.640   5.602  13.072 -0.1728  0.0264 -0.0861
  361DOPC   C1A 4233   3.598   5.992  13.536  0.0972 -0.1078  0.0137
  361DOPC   D2A 4234   3.487   5.711  13.936  0.2177  0.0833  0.0468
  361DOPC   C3A 4235   3.759   5.364  14.047  0.0626  0.0785 -0.0699
  361DOPC   C4A 4236   4.158   5.022  14.061  0.1232 -0.0680 -0.1139
  361DOPC   C1B 4237   3.745   5.424  13.464  0.0096  0.0371 -0.1617
  361DOPC   D2B 4238   3.612   5.067  13.632  0.0561 -0.0106  0.3413
  361DOPC   C3B 4239   3.820   4.706  13.801 -0.1905  0.1970  0.2056
  361DOPC   C4B 4240   4.185   4.531  13.976 -0.0228  0.0587 -0.1045
  362DOPC   NC3 4241   9.624   0.937  12.459  0.4004  0.0302 -0.1890
  362DOPC   PO4 4242   9.372   1.170  12.323  0.2248  0.1203 -0.4844
  362DOPC   GL1 4243   9.177   1.352  12.647 -0.0801 -0.0487  0.1852
  362DOPC   GL2 4244   9.464   1.432  12.754  0.2705 -0.1873 -0.1592
  362DOPC   C1A 4245   8.935   1.542  12.925 -0.2242  0.2142  0.2736
  362DOPC   D2A 4246   8.608   1.393  13.238  0.4241  0.1047  0.0489
  362DOPC   C3A 4247   8.138   1.456  13.306  0.0449 -0.3055 -0.4346
  362DOPC   C4A 4248   7.643   1.652  13.202  0.1266  0.2812  0.0117
  362DOPC   C1B 4249   9.369   1.705  13.167 -0.3062 -0.0889 -0.3995
  362DOPC   D2B 4250   9.007   1.646  13.466 -0.2018  0.0067  0.0678
  362DOPC   C3B 4251   8.796   2.053  13.531  0.1030  0.1303  0.0537
  362DOPC   C4B 4252   8.734   2.419  13.731 -0.0217  0.0463  0.0856
  363DOPE   NH3 4253   8.072   7.136  12.696  0.0031 -0.1184 -0.0072
  363DOPE   PO4 4254   7.962   6.822  12.655 -0.1291 -0.0659  0.2974
  363DOPE   GL1 4255   7.725   6.879  12.912 -0.0195 -0.3090  0.2302
  363DOPE   GL2 4256   7.555   7.137  12.940 -0.2903 -0.1128  0.0718
  363DOPE   C1A 4257   7.880   7.024  13.309 -0.2413 -0.0449  0.0349
  363DOPE   D2A 4258   8.177   7.100  13.613 -0.0023 -0.2875  0.1081
  363DOPE   C3A 4259   8.559   7.339  13.605 -0.4839 -0.2026 -0.0451
  363DOPE   C4A 4260   8.796   7.769  13.656  0.1370  0.0826  0.0366
  363DOPE   C1B 4261   7.681   7.563  13.004  0.1898 -0.2568 -0.1666
  363DOPE   D2B 4262   7.800   7.981  13.238 -0.0198  0.0522  0.3432
  363DOPE   C3B 4263   7.688   8.058  13.692  0.2390 -0.0551  0.0339
  363DOPE   C4B 4264   7.610   8.247  14.120  0.0252 -0.1378  0.2408
  364DOPC   NC3 4265   6.678   6.367  12.883  0.1929  0.2759 -0.3013
  364DOPC   PO4 4266   6.671   6.527  12.559 -0.1694  0.1018  0.0235
  364DOPC   GL1 4267   6.711   6.790  12.779 -0.2596 -0.2844 -0.3169
  364DOPC   GL2 4268   6.504   6.887  12.980 -0.1700 -0.0978  0.2565
  364DOPC   C1A 4269   7.007   6.657  13.148  0.1167  0.0214 -0.0356
  364DOPC   D2A 4270   7.402   6.768  13.354 -0.1047  0.2831  0.3032
  364DOPC   C3A 4271   7.565   6.494  13.641 -0.0618  0.0450 -0.3573
  364DOPC   C4A 4272   7.748   6.113  13.911  0.1280  0.0977  0.2572
  364DOPC   C1B 4273   6.839   7.140  13.076 -0.0281 -0.2478  0.0596
  364DOPC   D2B 4274   7.097   7.331  13.381 -0.1647  0.1074  0.2715
  364DOPC   C3B 4275   6.961   7.648  13.738 -0.0550 -0.1862  0.2106
  364DOPC   C4B 4276   7.090   7.840  14.107 -0.1065  0.0806  0.3251
  365DOPC   NC3 4277   9.985   7.013  11.929 -0.0438 -0.1114  0.1382
  365DOPC   PO4 4278  10.070   7.387  11.857 -0.2261  0.0331 -0.0047
  365DOPC   GL1 4279   9.947   7.825  11.912 -0.0209  0.1503 -0.1526
  365DOPC   GL2 4280   9.972   7.860  12.216  0.2761  0.1989  0.2684
  365DOPC   C1A 4281   9.490   8.012  11.901  0.0558 -0.1187 -0.2556
  365DOPC   D2A 4282   9.085   8.144  12.145  0.0003 -0.0113  0.0368
  365DOPC   C3A 4283   9.007   8.273  12.617 -0.1182 -0.0716 -0.1720
  365DOPC   C4A 4284   9.025   8.604  12.983  0.2520 -0.0314  0.0461
  365DOPC   C1B 4285   9.573   8.039  12.476 -0.0728 -0.3222  0.1671
  365DOPC   D2B 4286   9.451   8.341  12.768  0.0192  0.1318 -0.0244
  365DOPC   C3B 4287   9.552   8.558  13.171  0.0897 -0.2279 -0.0775
  365DOPC   C4B 4288   9.324   8.891  13.323 -0.0810  0.0449  0.0229
  366DOPS   CNO 4289   8.959  12.289  12.328 -0.2755 -0.1815 -0.1279
  366DOPS   PO4 4290   9.195  12.010  12.411  0.2233 -0.1127  0.1309
  366DOPS   GL1 4291   8.837  11.809  12.569 -0.2968 -0.4569 -0.1777
  366DOPS   GL2 4292   8.766  11.715  12.301  0.1945 -0.4946 -0.0540
  366DOPS   C1A 4293   8.382  11.900  12.590 -0.0007  0.0922 -0.0647
  366DOPS   D2A 4294   8.010  11.940  12.882  0.0984  0.1861 -0.0625
  366DOPS   C3A 4295   7.962  12.119  13.322 -0.1581 -0.0550  0.3203
  366DOPS   C4A 4296   7.840  12.327  13.746 -0.0801  0.3704  0.1152
  366DOPS   C1B 4297   8.469  11.427  12.524 -0.2561  0.1242  0.0158
  366DOPS   D2B 4298   8.164  11.361  12.922  0.1025 -0.1460  0.0486
  366DOPS   C3B 4299   8.156  11.028  13.204 -0.2551 -0.1584 -0.1383
  366DOPS   C4B 4300   8.514  10.826  13.439 -0.0474 -0.0824 -0.1637
  367POSM   NC3 4301  11.611   5.443  12.516  0.1053 -0.1112 -0.3591
  367POSM   PO4 4302  11.467   5.760  12.331 -0.2143  0.3161  0.3101
  367POSM   AM1 4303  11.134   5.826  12.444 -0.0033  0.0699 -0.3009
  367POSM   AM2 4304  11.113   5.987  12.686 -0.0545 -0.1666 -0.2983
  367POSM   T1A 4305  10.612   5.971  12.449 -0.2441  0.1173 -0.1792
  367POSM   C2A 4306  10.179   5.891  12.628 -0.2187  0.1858 -0.0495
  367POSM   C3A 4307   9.733   5.917  12.662 -0.0364 -0.2257  0.0984
  367POSM   C1B 4308  11.069   5.838  12.969  0.4470 -0.2970  0.2081
  367POSM   D2B 4309  11.061   5.490  13.210 -0.1886  0.0760  0.1739
  367POSM   C3B 4310  10.653   5.361  13.439 -0.0784 -0.1104 -0.3326
  367POSM   C4B 4311  10.247   5.107  13.520  0.0480  0.0707 -0.3126
  368DOPS   CNO 4312   7.070   9.782  12.545  0.0603  0.1154  0.0314
  368DOPS   PO4 4313   7.415   9.772  12.327 -0.0816 -0.2494 -0.1592
  368DOPS   GL1 4314   7.404   9.550  12.681  0.1318  0.0552  0.6222
  368DOPS   GL2 4315   7.625   9.726  12.863  0.0383 -0.1541 -0.2264
  368DOPS   C1A 4316   7.236   9.147  12.868  0.0749  0.1998  0.1030
  368DOPS   D2A 4317   7.228   8.739  13.128  0.0023 -0.0441  0.3702
  368DOPS   C3A 4318   7.638   8.619  13.021 -0.2331  0.2261  0.4643
  368DOPS   C4A 4319   8.106   8.719  12.894  0.0804  0.1149  0.0753
  368DOPS   C1B 4320   7.891   9.413  13.166 -0.1917 -0.1799 -0.1675
  368DOPS   D2B 4321   7.772   9.012  13.431 -0.0012  0.0411 -0.1318
  368DOPS   C3B 4322   7.316   9.057  13.508  0.0151 -0.0117 -0.0951
  368DOPS   C4B 4323   6.872   9.105  13.290  0.0201 -0.3394  0.3563
  369POSM   NC3 4324   2.198   5.548  13.475 -0.1407  0.0574 -0.0862
  369POSM   PO4 4325   2.278   5.786  13.146  0.0039  0.0892  0.1819
  369POSM   AM1 4326   2.464   5.904  13.404  0.1445  0.2635 -0.2434
  369POSM   AM2 4327   2.739   5.845  13.482  0.4440 -0.1830  0.0226
  369POSM   T1A 4328   2.389   6.029  13.849  0.3357  0.0473  0.0484
  369POSM   C2A 4329   2.207   6.021  14.293  0.1344  0.0022  0.1572
  369POSM   C3A 4330   1.942   5.932  14.613 -0.1447 -0.0419  0.1070
  369POSM   C1B 4331   2.751   5.607  13.786  0.2150  0.2284  0.6933
  369POSM   D2B 4332   2.567   5.620  14.188  0.1293  0.1763  0.1266
  369POSM   C3B 4333   2.676   5.314  14.551 -0.1447  0.0702  0.1148
  369POSM   C4B 4334   2.972   4.975  14.790 -0.2262 -0.1188  0.1886
  370DOPC   NC3 4335   3.254   7.796  12.620  0.0225  0.3216 -0.3345
  370DOPC   PO4 4336   3.554   8.022  12.684  0.0227 -0.2364 -0.1448
  370DOPC   GL1 4337   3.515   8.393  12.741  0.2082  0.2793 -0.0256
  370DOPC   GL2 4338   3.205   8.408  12.597  0.3460 -0.2461  0.0965
  370DOPC   C1A 4339   3.732   8.668  13.089  0.3067 -0.0695 -0.1140
  370DOPC   D2A 4340   4.018   8.560  13.399 -0.2383  0.0141 -0.1412
  370DOPC   C3A 4341   4.420   8.745  13.357  0.4196 -0.2085  0.2419
  370DOPC   C4A 4342   4.753   9.021  13.416 -0.1235 -0.2192  0.1719
  370DOPC   C1B 4343   3.130   8.855  12.881  0.1910  0.0846 -0.0427
  370DOPC   D2B 4344   2.818   9.132  13.041 -0.0466  0.0954 -0.0998
  370DOPC   C3B 4345   2.612   8.823  13.312 -0.1343 -0.2226  0.1575
  370DOPC   C4B 4346   2.572   8.768  13.753  0.0521 -0.3118 -0.0950
  371DOPC   NC3 4347   8.400   5.055  12.394 -0.1305 -0.4449  0.0355
  371DOPC   PO4 4348   8.144   5.173  12.640  0.3435  0.0490 -0.1059
  371DOPC   GL1 4349   8.447   5.146  12.975 -0.0044  0.2270  0.0184
  371DOPC   GL2 4350   8.750   5.082  12.858  0.2376  0.1702 -0.0618
  371DOPC   C1A 4351   8.563   5.043  13.420 -0.0262  0.2955  0.0855
  371DOPC   D2A 4352   8.819   4.910  13.815 -0.2400 -0.0237  0.1612
  371DOPC   C3A 4353   9.120   4.954  14.174  0.1647  0.1114  0.0911
  371DOPC   C4A 4354   9.332   5.223  14.409  0.0858  0.1150 -0.1873
  371DOPC   C1B 4355   9.249   4.949  12.868  0.3570  0.1530  0.1007
  371DOPC   D2B 4356   9.252   4.505  13.006 -0.0725 -0.0188  0.2907
  371DOPC   C3B 4357   9.028   4.190  13.233 -0.1347 -0.1128  0.1223
  371DOPC   C4B 4358   9.000   4.006  13.646 -0.3031  0.1338 -0.0896
  372DOPC   NC3 4359   2.369   0.662  13.015 -0.0459  0.0924  0.0147
  372DOPC   PO4 4360   2.474   0.320  12.978  0.2448 -0.0645  0.1588
  372DOPC   GL1 4361   2.463   0.370  13.389 -0.3737  0.0607 -0.2202
  372DOPC   GL2 4362   2.731   0.405  13.530 -0.0144 -0.0871 -0.1369
  372DOPC   C1A 4363   2.283   0.118  13.769 -0.2518  0.1405  0.0904
  372DOPC   D2A 4364   2.286  -0.143  14.120  0.0688  0.0409  0.1539
  372DOPC   C3A 4365   1.850  -0.124  14.118  0.0712 -0.1320 -0.0337
  372DOPC   C4A 4366   1.530  -0.189  14.538  0.3480 -0.2224  0.3445
  372DOPC   C1B 4367   2.499   0.769  13.624  0.0104  0.0495  0.2208
  372DOPC   D2B 4368   2.571   1.092  13.917 -0.1355 -0.2923 -0.1151
  372DOPC   C3B 4369   2.183   1.107  14.191 -0.3552  0.1273  0.1644
  372DOPC   C4B 4370   2.200   1.277  14.632  0.2488 -0.3572  0.2078
  373POSM   NC3 4371   7.518  11.750  12.545  0.2176  0.2092 -0.3341
  373POSM   PO4 4372   7.535  11.362  12.377 -0.1620 -0.0671  0.4401
  373POSM   AM1 4373   7.473  11.250  12.686 -0.3708  0.0132  0.0608
  373POSM   AM2 4374   7.510  10.983  12.750  0.0464  0.1308  0.1344
  373POSM   T1A 4375   7.630  11.217  13.177  0.1241 -0.0101  0.5644
  373POSM   C2A 4376   7.690  11.305  13.625  0.2411  0.0859  0.0021
  373POSM   C3A 4377   7.796  10.976  13.997 -0.1393 -0.0659 -0.0588
  373POSM   C1B 4378   7.619  10.712  13.058  0.0852  0.0381  0.1336
  373POSM   D2B 4379   7.701  10.303  13.243 -0.0775 -0.2024  0.2491
  373POSM   C3B 4380   7.974   9.937  13.209 -0.1260 -0.0616  0.0276
  373POSM   C4B 4381   8.280   9.719  12.945  0.2554  0.1415 -0.0170
  374POSM   NC3 4382   1.854   3.655  12.196 -0.0362  0.0165 -0.3205
  374POSM   PO4 4383   1.663   3.318  12.163  0.1095  0.1730 -0.2856
  374POSM   AM1 4384   1.867   3.237  12.447 -0.2044 -0.2039  0.0138
  374POSM   AM2 4385   2.038   3.321  12.653  0.1803  0.1943  0.0484
  374POSM   T1A 4386   2.161   2.882  12.646  0.0635  0.1023 -0.1489
  374POSM   C2A 4387   2.401   2.765  12.971  0.1387 -0.0775 -0.5218
  374POSM   C3A 4388   2.655   2.894  13.332 -0.1701 -0.0188 -0.2504
  374POSM   C1B 4389   2.323   3.326  12.837 -0.0088 -0.0663  0.1883
  374POSM   D2B 4390   2.688   3.258  13.019  0.1609 -0.3608  0.2073
  374POSM   C3B 4391   3.060   3.224  13.273  0.0556 -0.0823  0.3127
  374POSM   C4B 4392   3.154   3.212  13.726 -0.1232 -0.1714 -0.0168
  375DOPE   NH3 4393   5.833   3.062  12.443 -0.0253 -0.0622 -0.2532
  375DOPE   PO4 4394   5.685   3.344  12.338 -0.1077 -0.0662 -0.2298
  375DOPE   GL1 4395   5.772   3.696  12.619 -0.2005  0.1205  0.3896
  375DOPE   GL2 4396   5.917   3.488  12.820  0.4667  0.1709 -0.0537
  375DOPE   C1A 4397   5.576   3.925  13.007 -0.1736 -0.1905  0.3435
  375DOPE   D2A 4398   5.635   4.242  13.314  0.2533 -0.0700  0.2145
  375DOPE   C3A 4399   5.256   4.354  13.619 -0.0771 -0.1903 -0.1492
  375DOPE   C4A 4400   5.182   4.667  13.862  0.1174  0.3378  0.1839
  375DOPE   C1B 4401   5.750   3.507  13.255 -0.3326  0.0219  0.2926
  375DOPE   D2B 4402   5.596   3.620  13.658  0.1147  0.0327  0.1015
  375DOPE   C3B 4403   5.248   3.839  13.620  0.1661  0.2906 -0.0851
  375DOPE   C4B 4404   5.050   3.970  13.214 -0.2143  0.0248  0.2987
  376DOPS   CNO 4405  11.102   3.763  12.523  0.0033 -0.3301 -0.0514
  376DOPS   PO4 4406  11.091   3.588  12.226  0.2253  0.0910  0.1812
  376DOPS   GL1 4407  11.102   4.098  12.205  0.1965 -0.0069 -0.1473
  376DOPS   GL2 4408  10.825   4.156  12.101  0.0143  0.0935 -0.1899
  376DOPS   C1A 4409  11.202   4.485  12.433  0.2685  0.1049  0.0201
  376DOPS   D2A 4410  11.407   4.894  12.514 -0.0976  0.2666  0.1414
  376DOPS   C3A 4411  11.236   4.974  12.984 -0.0945  0.0195  0.0472
  376DOPS   C4A 4412  11.142   4.973  13.446  0.0517  0.0485  0.0660
  376DOPS   C1B 4413  10.667   4.447  12.440  0.2080 -0.0482  0.0555
  376DOPS   D2B 4414  10.529   4.542  12.847 -0.0108  0.2406  0.1033
  376DOPS   C3B 4415  10.542   4.375  13.231  0.1755 -0.1425  0.2461
  376DOPS   C4B 4416  10.185   4.184  13.395  0.0421  0.0052  0.3007
  377DOPE   NH3 4417  10.938  11.194  12.469 -0.1983 -0.3572  0.1586
  377DOPE   PO4 4418  11.246  11.223  12.441  0.2488  0.0675  0.1035
  377DOPE   GL1 4419  11.432  11.229  12.764 -0.1683 -0.0297  0.2217
  377DOPE   GL2 4420  11.244  11.256  12.991  0.0320 -0.0814 -0.1644
  377DOPE   C1A 4421  11.795  11.134  13.069 -0.1112 -0.1414 -0.0995
  377DOPE   D2A 4422  12.071  11.262  13.412 -0.1043  0.0292  0.3869
  377DOPE   C3A 4423  12.065  11.293  13.908 -0.0445  0.0593 -0.1063
  377DOPE   C4A 4424  12.371  11.599  14.055 -0.1011 -0.2667 -0.1567
  377DOPE   C1B 4425  11.214  10.964  13.383  0.0005  0.0657  0.2358
  377DOPE   D2B 4426  11.223  10.874  13.831 -0.1241 -0.2566  0.3407
  377DOPE   C3B 4427  11.047  11.108  14.156 -0.0040 -0.0464 -0.2700
  377DOPE   C4B 4428  10.806  11.450  14.310  0.0839  0.0071 -0.0244
  378DOPC   NC3 4429   1.239   4.889  12.291  0.1549 -0.1338  0.3966
  378DOPC   PO4 4430   1.581   5.025  12.289 -0.0153  0.2285  0.1264
  378DOPC   GL1 4431   1.496   5.334  12.455 -0.0647  0.0761  0.2530
  378DOPC   GL2 4432   1.334   5.385  12.724 -0.0248 -0.0134  0.2589
  378DOPC   C1A 4433   1.485   5.814  12.494 -0.0964  0.0670  0.4729
  378DOPC   D2A 4434   1.460   6.115  12.846  0.0852 -0.3138  0.0503
  378DOPC   C3A 4435   0.981   6.146  12.983  0.2207  0.4378 -0.2825
  378DOPC   C4A 4436   0.533   6.227  13.118  0.1554 -0.0897 -0.1924
  378DOPC   C1B 4437   0.968   5.646  12.804  0.1084 -0.0776  0.0617
  378DOPC   D2B 4438   0.535   5.639  12.989  0.1334 -0.1422  0.1408
  378DOPC   C3B 4439   0.474   5.651  13.440 -0.1412 -0.1213  0.0041
  378DOPC   C4B 4440   0.146   5.527  13.716 -0.2254  0.1733 -0.4316
  379DOPC   NC3 4441   4.379   2.527  12.237  0.3385  0.2727  0.0165
  379DOPC   PO4 4442   4.045   2.307  12.143 -0.0354 -0.1801  0.1826
  379DOPC   GL1 4443   3.984   2.510  12.536  0.4285 -0.1358 -0.0594
  379DOPC   GL2 4444   3.950   2.746  12.379  0.2277 -0.1757  0.0351
  379DOPC   C1A 4445   3.547   2.548  12.764  0.0711  0.1146  0.0399
  379DOPC   D2A 4446   3.134   2.728  12.876 -0.1992  0.0081  0.1467
  379DOPC   C3A 4447   3.211   2.758  13.347  0.0873  0.1581  0.0244
  379DOPC   C4A 4448   2.971   2.583  13.676  0.3572  0.2088 -0.1305
  379DOPC   C1B 4449   3.877   3.017  12.769  0.0270 -0.0919  0.1013
  379DOPC   D2B 4450   3.604   3.019  13.159 -0.2394  0.2480 -0.2340
  379DOPC   C3B 4451   3.668   2.991  13.586  0.1055 -0.0818  0.1597
  379DOPC   C4B 4452   3.993   3.020  13.859 -0.1128  0.4126 -0.1154
  380POSM   NC3 4453  10.631   7.303  12.472 -0.1283  0.1657  0.3072
  380POSM   PO4 4454  10.482   7.143  12.122 -0.1416  0.0130  0.2278
  380POSM   AM1 4455  10.366   6.910  12.327  0.0406 -0.1434 -0.0416
  380POSM   AM2 4456  10.524   6.823  12.526 -0.1944 -0.0730  0.4930
  380POSM   T1A 4457  10.218   6.447  12.530 -0.0315 -0.1826 -0.0561
  380POSM   C2A 4458  10.132   6.281  12.942 -0.2457 -0.0388 -0.0818
  380POSM   C3A 4459   9.877   6.349  13.349  0.3354  0.0448  0.0102
  380POSM   C1B 4460  10.545   6.659  12.837 -0.2380 -0.0390  0.2060
  380POSM   D2B 4461  10.584   6.515  13.298  0.3516  0.2851  0.0126
  380POSM   C3B 4462  10.318   6.481  13.661 -0.0835  0.2263  0.0820
  380POSM   C4B 4463  10.022   6.330  13.980 -0.2135  0.0995  0.1243
  381POSM   NC3 4464  34.692   9.699  12.389 -0.1527 -0.3378  0.0189
  381POSM   PO4 4465  35.001   9.493  12.192  0.1062  0.0888 -0.0302
  381POSM   AM1 4466  35.107   9.306  12.446 -0.4516 -0.3050  0.3460
  381POSM   AM2 4467  34.971   9.327  12.680 -0.1693  0.0271 -0.1973
  381POSM   T1A 4468  35.290   8.887  12.630 -0.0774  0.1795 -0.0824
  381POSM   C2A 4469  35.520   8.605  12.939  0.1957  0.0984  0.2067
  381POSM   C3A 4470  35.738   8.236  12.729  0.2199  0.1133 -0.0895
  381POSM   C1B 4471  35.090   9.349  13.008 -0.1156 -0.0340 -0.2007
  381POSM   D2B 4472  35.365   9.646  13.280 -0.0880 -0.6597  0.1016
  381POSM   C3B 4473  35.495   9.369  13.611  0.1303 -0.1453 -0.4051
  381POSM   C4B 4474  35.657   9.396  14.048 -0.3751  0.0202 -0.1264
  382DOPS   CNO 4475   7.641   3.411  12.103 -0.0313  0.0383 -0.0300
  382DOPS   PO4 4476   7.923   3.594  12.045 -0.0787  0.0705 -0.0113
  382DOPS   GL1 4477   7.904   3.506  12.486  0.0275  0.0603 -0.0275
  382DOPS   GL2 4478   8.092   3.317  12.445 -0.4494 -0.0453 -0.0636
  382DOPS   C1A 4479   7.884   3.297  12.943 -0.2687  0.1256 -0.1067
  382DOPS   D2A 4480   8.134   3.162  13.334  0.0494  0.1088 -0.1636
  382DOPS   C3A 4481   8.291   3.282  13.778 -0.0189  0.1097 -0.2655
  382DOPS   C4A 4482   8.267   3.583  14.149  0.2294 -0.1653  0.2186
  382DOPS   C1B 4483   8.237   2.881  12.284 -0.1059  0.1516  0.0806
  382DOPS   D2B 4484   8.577   2.592  12.478  0.1372  0.2148  0.2714
  382DOPS   C3B 4485   8.629   2.197  12.702 -0.0762 -0.0218 -0.3269
  382DOPS   C4B 4486   8.587   1.883  13.006  0.1152 -0.3731 -0.0960
  383POSM   NC3 4487   2.989   0.129  12.504  0.0736 -0.1915  0.1891
  383POSM   PO4 4488   2.719  -0.037  12.734 -0.2104  0.1793 -0.0586
  383POSM   AM1 4489   2.662  -0.168  13.067 -0.1156 -0.0156 -0.0006
  383POSM   AM2 4490   2.522  -0.099  13.285 -0.2191  0.1354  0.0053
  383POSM   T1A 4491   2.792  -0.592  13.335 -0.2437  0.5196 -0.0586
  383POSM   C2A 4492   2.660  -0.583  13.773 -0.1240 -0.0493 -0.2377
  383POSM   C3A 4493   2.586  -0.620  14.265 -0.0504  0.0466 -0.0145
  383POSM   C1B 4494   2.370  -0.387  13.371  0.1537 -0.4321  0.2678
  383POSM   D2B 4495   2.260  -0.885  13.422 -0.1028 -0.0183 -0.3051
  383POSM   C3B 4496   2.712  -1.128  13.512  0.2806  0.0036 -0.0488
  383POSM   C4B 4497   3.182  -1.128  13.519  0.0002  0.1142  0.0134
  384DOPE   NH3 4498   4.561   7.669  12.701 -0.1513  0.1772  0.0916
  384DOPE   PO4 4499   4.576   7.849  12.417  0.1380  0.0215 -0.0417
  384DOPE   GL1 4500   4.725   8.116  12.722 -0.2563  0.0385 -0.1370
  384DOPE   GL2 4501   4.784   8.034  13.005 -0.2233 -0.2376 -0.2657
  384DOPE   C1A 4502   4.722   8.556  12.572  0.0497  0.3558 -0.1576
  384DOPE   D2A 4503   4.864   8.921  12.471  0.0770 -0.0573 -0.1074
  384DOPE   C3A 4504   5.300   8.985  12.512 -0.0680 -0.1268 -0.5503
  384DOPE   C4A 4505   5.778   8.990  12.686 -0.2361 -0.2468  0.0615
  384DOPE   C1B 4506   4.810   8.496  13.049 -0.0874  0.2415 -0.1086
  384DOPE   D2B 4507   4.659   8.921  12.902  0.0971  0.0634 -0.2291
  384DOPE   C3B 4508   4.393   9.294  13.033  0.0163  0.2340  0.1120
  384DOPE   C4B 4509   4.415   9.756  12.846 -0.0273  0.0866  0.0942
  385DOPE   NH3 4510   2.577   0.521  12.550  0.0069  0.0457 -0.0917
  385DOPE   PO4 4511   2.517   0.844  12.530 -0.2084  0.0043  0.0033
  385DOPE   GL1 4512   2.364   1.134  12.804 -0.2141 -0.1525 -0.0090
  385DOPE   GL2 4513   2.085   1.087  12.848  0.0904  0.4363  0.2325
  385DOPE   C1A 4514   2.311   1.508  13.088 -0.0201  0.0350 -0.0249
  385DOPE   D2A 4515   2.127   1.779  13.408 -0.0089  0.2178  0.1937
  385DOPE   C3A 4516   2.113   2.208  13.451  0.1386 -0.2155 -0.3380
  385DOPE   C4A 4517   2.508   2.406  13.328 -0.4236  0.1315  0.2580
  385DOPE   C1B 4518   2.038   1.134  13.275  0.1436  0.0130  0.2113
  385DOPE   D2B 4519   2.000   1.123  13.715 -0.2789  0.3631  0.0675
  385DOPE   C3B 4520   1.498   1.040  13.733 -0.0629 -0.1479  0.0007
  385DOPE   C4B 4521   1.174   0.748  13.563 -0.0396  0.1204  0.0172
  386DOPE   NH3 4522   2.930   0.225  13.119 -0.4081  0.1902 -0.1750
  386DOPE   PO4 4523   2.943   0.469  12.878  0.1112  0.1750  0.2951
  386DOPE   GL1 4524   2.859   0.698  13.186  0.1467  0.3170 -0.2603
  386DOPE   GL2 4525   3.124   0.637  13.385  0.1423  0.2463 -0.1121
  386DOPE   C1A 4526   2.579   1.067  13.236  0.1634 -0.2115  0.1188
  386DOPE   D2A 4527   2.383   1.409  13.546  0.1335  0.0361 -0.2122
  386DOPE   C3A 4528   2.066   1.550  13.879 -0.0805 -0.0595 -0.1658
  386DOPE   C4A 4529   1.819   1.964  13.784  0.0442 -0.2073  0.3244
  386DOPE   C1B 4530   2.990   0.988  13.633 -0.0141  0.0561  0.0695
  386DOPE   D2B 4531   2.883   1.404  13.546 -0.0143 -0.3525 -0.3093
  386DOPE   C3B 4532   2.648   1.621  13.953  0.3407  0.1340 -0.0568
  386DOPE   C4B 4533   2.558   1.433  14.267 -0.0023  0.0703 -0.0708
  387DOPS   CNO 4534   4.569   0.706  12.192  0.0600 -0.1229 -0.2721
  387DOPS   PO4 4535   4.547   0.850  12.536  0.0176  0.1134 -0.1427
  387DOPS   GL1 4536   4.627   0.898  12.927 -0.1029  0.3710  0.1936
  387DOPS   GL2 4537   4.381   0.808  13.067 -0.0208  0.3818 -0.0688
  387DOPS   C1A 4538   4.475   1.289  13.205  0.2855 -0.2287  0.0528
  387DOPS   D2A 4539   4.403   1.604  13.553  0.0840 -0.2856  0.2207
  387DOPS   C3A 4540   3.965   1.616  13.600 -0.1896 -0.1391  0.3052
  387DOPS   C4A 4541   3.645   1.887  13.586 -0.1069 -0.0892 -0.3373
  387DOPS   C1B 4542   4.420   0.881  13.497 -0.1251 -0.1222 -0.3231
  387DOPS   D2B 4543   4.499   1.216  13.791  0.3116 -0.2699 -0.1658
  387DOPS   C3B 4544   4.624   1.182  14.194  0.1737  0.0341 -0.0016
  387DOPS   C4B 4545   4.969   1.226  14.366 -0.2626 -0.2385 -0.1772
  388POSM   NC3 4546   7.400   4.300  12.862 -0.0383 -0.0641 -0.0868
  388POSM   PO4 4547   7.264   4.127  12.549  0.2899 -0.0043 -0.5197
  388POSM   AM1 4548   7.243   3.918  12.811  0.0985  0.1734 -0.0615
  388POSM   AM2 4549   7.040   3.772  12.976 -0.0644 -0.0674 -0.0013
  388POSM   T1A 4550   7.482   3.593  13.097 -0.1114  0.3178  0.1055
  388POSM   C2A 4551   7.579   3.203  13.281 -0.0367 -0.1057 -0.2677
  388POSM   C3A 4552   7.374   2.850  13.575 -0.2737  0.2010 -0.1210
  388POSM   C1B 4553   6.828   3.592  13.190  0.0618 -0.1483  0.3833
  388POSM   D2B 4554   6.665   3.345  13.638  0.0763 -0.1381  0.1336
  388POSM   C3B 4555   6.900   2.943  13.645  0.2496 -0.3485  0.0992
  388POSM   C4B 4556   6.735   2.503  13.645  0.2415 -0.2235 -0.3190
  389POSM   NC3 4557   9.119   5.099  12.183  0.1173  0.0591  0.0013
  389POSM   PO4 4558   8.881   5.315  12.434  0.3290  0.0593  0.0886
  389POSM   AM1 4559   9.108   5.286  12.663  0.2528  0.3638  0.0623
  389POSM   AM2 4560   9.167   5.473  12.855  0.1697 -0.1896 -0.2188
  389POSM   T1A 4561   9.611   5.265  12.655  0.1848  0.1422 -0.3215
  389POSM   C2A 4562   9.974   5.051  12.507 -0.1926  0.1438 -0.0436
  389POSM   C3A 4563  10.462   4.969  12.400 -0.1005 -0.2613  0.2533
  389POSM   C1B 4564   9.478   5.594  12.971  0.0101 -0.1222 -0.2173
  389POSM   D2B 4565   9.992   5.634  13.047  0.0239  0.0938  0.2836
  389POSM   C3B 4566  10.131   5.881  13.375 -0.0874 -0.1796  0.0307
  389POSM   C4B 4567   9.901   5.876  13.773 -0.0885 -0.3562  0.3686
  390DOPE   NH3 4568   8.024   3.952  12.430  0.1596  0.2116 -0.0956
  390DOPE   PO4 4569   7.715   3.904  12.588  0.1883  0.2171 -0.0120
  390DOPE   GL1 4570   7.890   3.777  12.938  0.0015 -0.0599  0.2486
  390DOPE   GL2 4571   8.190   3.712  12.783  0.0601  0.2211  0.1287
  390DOPE   C1A 4572   8.136   3.644  13.266  0.2213 -0.0412  0.2711
  390DOPE   D2A 4573   8.181   3.862  13.649 -0.1851  0.3929 -0.3162
  390DOPE   C3A 4574   8.357   4.166  13.917 -0.1859  0.0558  0.0018
  390DOPE   C4A 4575   8.389   4.182  14.365  0.0259 -0.0019 -0.1794
  390DOPE   C1B 4576   8.586   3.694  12.978  0.1027 -0.0550 -0.1348
  390DOPE   D2B 4577   8.958   3.626  13.227  0.0379 -0.3764 -0.5706
  390DOPE   C3B 4578   9.318   3.533  13.097  0.0091  0.3482  0.4731
  390DOPE   C4B 4579   9.715   3.451  12.916 -0.0825 -0.0812  0.0639
  391DOPS   CNO 4580   0.582  11.284  12.424  0.0717 -0.0846  0.2802
  391DOPS   PO4 4581   0.899  11.260  12.582 -0.1574  0.1710  0.0565
  391DOPS   GL1 4582   1.165  11.054  12.937  0.0847 -0.2697 -0.0370
  391DOPS   GL2 4583   1.044  10.921  13.138 -0.0534 -0.0487  0.1503
  391DOPS   C1A 4584   1.486  11.099  13.286 -0.0671 -0.0830  0.0250
  391DOPS   D2A 4585   1.724  11.285  13.654  0.1310 -0.0874  0.0671
  391DOPS   C3A 4586   1.932  11.588  13.892 -0.4324  0.1669  0.1110
  391DOPS   C4A 4587   1.923  12.050  13.833 -0.1508  0.1046  0.1542
  391DOPS   C1B 4588   1.346  10.591  13.368  0.2508  0.0763 -0.2155
  391DOPS   D2B 4589   1.785  10.633  13.517  0.1730 -0.1863  0.0316
  391DOPS   C3B 4590   1.726  10.849  13.877 -0.1589  0.1459 -0.2006
  391DOPS   C4B 4591   1.512  10.976  14.196 -0.0648  0.0539  0.2841
  392DOPE   NH3 4592   5.549   7.538  12.859  0.1305 -0.1632  0.1668
  392DOPE   PO4 4593   5.804   7.754  12.704  0.4307  0.0261 -0.1882
  392DOPE   GL1 4594   6.126   7.898  12.713 -0.7117 -0.3572  0.2198
  392DOPE   GL2 4595   6.334   7.810  12.795 -0.0437  0.0594 -0.3774
  392DOPE   C1A 4596   6.413   8.166  12.459  0.2984 -0.6105 -0.0286
  392DOPE   D2A 4597   6.537   8.641  12.432  0.1206  0.0986  0.2659
  392DOPE   C3A 4598   6.289   8.947  12.663  0.0421 -0.1469  0.2768
  392DOPE   C4A 4599   6.147   9.359  12.682  0.2475 -0.0350  0.1097
  392DOPE   C1B 4600   6.214   7.998  13.153 -0.1301 -0.3299  0.2389
  392DOPE   D2B 4601   6.387   8.350  13.417  0.1091  0.1392  0.1019
  392DOPE   C3B 4602   6.397   8.643  13.780  0.0717 -0.1394 -0.0041
  392DOPE   C4B 4603   6.397   8.485  14.254 -0.0282 -0.0089  0.0869
  393POSM   NC3 4604  34.225   2.378  12.111 -0.0162  0.0981 -0.0583
  393POSM   PO4 4605  34.380   2.665  12.368 -0.3367  0.1242 -0.0015
  393POSM   AM1 4606  34.498   2.387  12.513 -0.0312 -0.4592 -0.4883
  393POSM   AM2 4607  34.342   2.184  12.607  0.0880  0.2801 -0.0399
  393POSM   T1A 4608  34.785   2.010  12.644 -0.3417  0.0135  0.2126
  393POSM   C2A 4609  34.970   1.652  12.520  0.0626 -0.2506  0.1335
  393POSM   C3A 4610  35.183   1.434  12.216 -0.2323  0.0676  0.0152
  393POSM   C1B 4611  34.245   2.024  12.901 -0.1515 -0.1115  0.1714
  393POSM   D2B 4612  33.944   1.883  13.183 -0.0051  0.2757 -0.1526
  393POSM   C3B 4613  33.535   1.964  13.460  0.3723  0.0346 -0.5100
  393POSM   C4B 4614  33.125   2.093  13.681 -0.2600 -0.2788 -0.2890
  394POSM   NC3 4615   0.481  10.921  13.260  0.0303  0.1065  0.1455
  394POSM   PO4 4616   0.625  11.017  12.898 -0.1119  0.1554  0.2167
  394POSM   AM1 4617   0.769  11.260  13.078  0.2026 -0.2821 -0.3030
  394POSM   AM2 4618   0.929  11.504  13.024 -0.1730  0.2235 -0.5265
  394POSM   T1A 4619   1.022  11.257  13.521 -0.0678 -0.1079  0.4455
  394POSM   C2A 4620   1.213  10.887  13.685  0.1709 -0.1595  0.0302
  394POSM   C3A 4621   1.209  10.571  13.929 -0.1335 -0.0973 -0.0241
  394POSM   C1B 4622   0.922  11.889  13.105 -0.4002  0.1676 -0.0002
  394POSM   D2B 4623   1.039  12.346  13.200  0.2347  0.0846  0.1249
  394POSM   C3B 4624   1.081  12.600  13.591 -0.0170  0.3612  0.2992
  394POSM   C4B 4625   1.165  12.927  13.873 -0.2520  0.0721  0.0626
  395DOPC   NC3 4626   3.552   7.434  12.503 -0.0333  0.2498 -0.4567
  395DOPC   PO4 4627   3.572   7.437  12.885  0.0063 -0.1910 -0.1799
  395DOPC   GL1 4628   3.485   7.789  13.094 -0.2001 -0.2689 -0.3227
  395DOPC   GL2 4629   3.798   7.814  13.153  0.4039  0.0256  0.3217
  395DOPC   C1A 4630   3.136   8.100  13.152  0.1350 -0.1336  0.1344
  395DOPC   D2A 4631   3.031   8.466  13.274 -0.1167  0.2214  0.2283
  395DOPC   C3A 4632   3.059   8.830  13.541  0.0456 -0.0219 -0.0256
  395DOPC   C4A 4633   3.004   8.815  13.971  0.2127  0.0498 -0.0843
  395DOPC   C1B 4634   3.596   8.212  13.297  0.2773 -0.0055 -0.0877
  395DOPC   D2B 4635   3.541   8.623  13.521  0.1894 -0.1493  0.2696
  395DOPC   C3B 4636   3.487   8.924  13.889  0.1853  0.2147  0.1500
  395DOPC   C4B 4637   3.340   9.327  14.000 -0.0416  0.0434  0.0968
  396POSM   NC3 4638   1.162   6.906  11.980  0.2508 -0.1266 -0.1066
  396POSM   PO4 4639   1.232   7.274  11.875  0.3406  0.1773 -0.0580
  396POSM   AM1 4640   0.959   7.415  12.026 -0.2392  0.0134  0.2968
  396POSM   AM2 4641   0.928   7.679  12.224 -0.1540 -0.1352 -0.0735
  396POSM   T1A 4642   0.531   7.259  12.145 -0.0988  0.4288  0.1674
  396POSM   C2A 4643   0.331   6.925  12.418  0.0931 -0.2665 -0.2090
  396POSM   C3A 4644   0.163   6.884  12.849  0.2996  0.0981  0.2715
  396POSM   C1B 4645   0.629   7.638  12.479  0.1838 -0.1959 -0.0869
  396POSM   D2B 4646   0.234   7.413  12.651 -0.1073  0.0906 -0.0834
  396POSM   C3B 4647   0.029   7.708  12.955  0.0027 -0.2672 -0.2339
  396POSM   C4B 4648  -0.403   7.719  13.098 -0.0817 -0.1966  0.0663
  397DOPE   NH3 4649   4.932   2.504  12.408  0.3290 -0.2318  0.1763
  397DOPE   PO4 4650   5.073   2.314  12.624  0.0976  0.0043  0.3914
  397DOPE   GL1 4651   4.742   2.226  12.883 -0.1617  0.0939  0.0583
  397DOPE   GL2 4652   4.783   2.454  13.066  0.1554  0.2726  0.1867
  397DOPE   C1A 4653   4.480   1.989  13.236 -0.1150 -0.1949 -0.3138
  397DOPE   D2A 4654   4.274   2.066  13.703 -0.0221 -0.0876  0.1305
  397DOPE   C3A 4655   4.125   1.728  14.078  0.1189  0.0508  0.2151
  397DOPE   C4A 4656   3.769   1.430  14.131  0.3332  0.1115 -0.1364
  397DOPE   C1B 4657   4.627   2.523  13.533 -0.0331 -0.0462  0.1243
  397DOPE   D2B 4658   4.475   2.662  13.926  0.0494 -0.3134  0.0972
  397DOPE   C3B 4659   4.102   2.436  14.073 -0.3189 -0.1323 -0.2668
  397DOPE   C4B 4660   3.695   2.388  13.886 -0.3241  0.0793 -0.1808
  398DOPS   CNO 4661   2.594   6.123  12.521 -0.0641  0.0528 -0.1818
  398DOPS   PO4 4662   2.635   5.847  12.771  0.1111  0.0894  0.0636
  398DOPS   GL1 4663   2.847   5.561  12.884 -0.1870  0.0380  0.2791
  398DOPS   GL2 4664   3.033   5.726  13.069  0.0868 -0.1049 -0.0875
  398DOPS   C1A 4665   2.750   5.374  13.302 -0.1161 -0.1176  0.1438
  398DOPS   D2A 4666   2.700   5.114  13.579 -0.1543  0.2580  0.3164
  398DOPS   C3A 4667   2.481   4.773  13.767  0.3930 -0.0453  0.2906
  398DOPS   C4A 4668   2.289   4.506  14.180  0.0131 -0.1263  0.1197
  398DOPS   C1B 4669   3.241   5.608  13.451  0.2532 -0.2759  0.0041
  398DOPS   D2B 4670   3.238   5.290  13.825  0.1392  0.0275  0.0285
  398DOPS   C3B 4671   3.110   5.501  14.197 -0.0151  0.0950 -0.2382
  398DOPS   C4B 4672   2.928   5.810  14.472  0.1912  0.3861 -0.1709
  399DOPC   NC3 4673   3.125   7.183  12.860  0.1004  0.3965 -0.0635
  399DOPC   PO4 4674   2.830   6.973  12.695 -0.0779  0.2214  0.2115
  399DOPC   GL1 4675   2.752   7.058  13.128 -0.2922 -0.1988 -0.2317
  399DOPC   GL2 4676   2.645   7.305  13.025 -0.0930  0.0133  0.2468
  399DOPC   C1A 4677   3.029   7.231  13.441  0.0099 -0.0245  0.0044
  399DOPC   D2A 4678   2.882   7.393  13.813  0.3751  0.0606  0.2774
  399DOPC   C3A 4679   3.203   7.434  14.121 -0.4658  0.2350 -0.0048
  399DOPC   C4A 4680   3.702   7.514  13.980  0.0279 -0.1861  0.2830
  399DOPC   C1B 4681   2.446   7.262  13.472 -0.0261  0.1445 -0.3929
  399DOPC   D2B 4682   2.374   7.424  13.912 -0.0516  0.3879 -0.1966
  399DOPC   C3B 4683   2.160   7.219  14.187  0.1192  0.0370 -0.2049
  399DOPC   C4B 4684   1.898   6.865  14.152 -0.1640  0.0233 -0.1610
  400DOPC   NC3 4685   7.883  10.973  12.313 -0.1822 -0.1173 -0.3897
  400DOPC   PO4 4686   7.564  10.694  12.346 -0.0240 -0.0351  0.0205
  400DOPC   GL1 4687   7.819  10.588  12.646 -0.1011  0.0508 -0.0375
  400DOPC   GL2 4688   8.022  10.496  12.424  0.3584 -0.2179  0.2212
  400DOPC   C1A 4689   8.055  10.223  12.827 -0.0647  0.1392 -0.2175
  400DOPC   D2A 4690   8.442  10.134  13.120 -0.0213 -0.0647  0.1423
  400DOPC   C3A 4691   8.582   9.783  13.431  0.2392 -0.0421  0.1007
  400DOPC   C4A 4692   8.463   9.600  13.860  0.4301  0.2463  0.1857
  400DOPC   C1B 4693   8.420  10.203  12.417 -0.2393 -0.1126 -0.2109
  400DOPC   D2B 4694   8.567   9.780  12.380  0.2541 -0.0634  0.1706
  400DOPC   C3B 4695   8.542   9.367  12.502  0.0745 -0.2039  0.0170
  400DOPC   C4B 4696   8.489   9.013  12.281  0.0124  0.2609 -0.1361
  401DOPC   NC3 4697   1.949   4.621  12.569  0.2277 -0.3666 -0.0233
  401DOPC   PO4 4698   2.324   4.758  12.635  0.1650  0.1656  0.2409
  401DOPC   GL1 4699   2.139   4.881  12.936 -0.0538 -0.1554 -0.0660
  401DOPC   GL2 4700   2.016   4.746  13.047 -0.1989 -0.3239 -0.0642
  401DOPC   C1A 4701   2.279   5.050  13.366 -0.0526  0.3336 -0.0358
  401DOPC   D2A 4702   2.007   5.124  13.738  0.1469  0.0989 -0.0756
  401DOPC   C3A 4703   2.243   5.182  14.077  0.0893 -0.0704 -0.1235
  401DOPC   C4A 4704   2.719   5.147  14.048 -0.0621 -0.2473 -0.1512
  401DOPC   C1B 4705   2.021   4.667  13.512  0.1215  0.3357  0.1415
  401DOPC   D2B 4706   1.852   4.529  13.904  0.1322  0.0516  0.2687
  401DOPC   C3B 4707   1.907   4.804  14.227  0.0007 -0.0789 -0.2056
  401DOPC   C4B 4708   1.773   5.228  14.292  0.0499  0.0811  0.0947
  402DOPS   CNO 4709   5.096   8.159  12.384  0.0339 -0.0621 -0.0303
  402DOPS   PO4 4710   5.356   8.054  12.592  0.3491 -0.4902  0.1528
  402DOPS   GL1 4711   5.180   8.275  12.853 -0.4618  0.6671 -0.4000
  402DOPS   GL2 4712   5.245   8.498  12.715 -0.0333 -0.3174 -0.5058
  402DOPS   C1A 4713   5.258   8.469  13.266  0.2251 -0.1190  0.3214
  402DOPS   D2A 4714   5.414   8.821  13.450  0.2912 -0.0823  0.4235
  402DOPS   C3A 4715   5.810   8.965  13.661  0.0114 -0.0343 -0.0983
  402DOPS   C4A 4716   6.177   9.097  13.963 -0.1851 -0.1794 -0.3182
  402DOPS   C1B 4717   5.162   8.874  12.954 -0.2614 -0.3262  0.2943
  402DOPS   D2B 4718   5.179   9.263  13.243 -0.3328 -0.4072  0.0795
  402DOPS   C3B 4719   4.794   9.551  13.220  0.2037 -0.1695  0.2316
  402DOPS   C4B 4720   4.653   9.992  13.244 -0.2914  0.1536  0.0198
  403POSM   NC3 4721   2.224  34.587  12.766 -0.0315 -0.0716 -0.1477
  403POSM   PO4 4722   2.001  34.917  12.874 -0.0891  0.1193  0.0284
  403POSM   AM1 4723   1.894  34.821  13.176 -0.0292 -0.0477  0.1114
  403POSM   AM2 4724   1.633  34.750  13.281 -0.1914 -0.1600  0.1428
  403POSM   T1A 4725   1.945  34.494  13.559 -0.1317  0.0762 -0.2809
  403POSM   C2A 4726   2.165  34.123  13.833  0.0113 -0.0726 -0.0641
  403POSM   C3A 4727   2.316  33.666  13.905 -0.2940  0.0662 -0.0516
  403POSM   C1B 4728   1.424  34.748  13.555 -0.0705 -0.2607  0.2336
  403POSM   D2B 4729   1.308  34.757  14.002 -0.0130  0.2037  0.0941
  403POSM   C3B 4730   1.231  34.944  14.427 -0.0104  0.0496 -0.2178
  403POSM   C4B 4731   1.271  35.318  14.630 -0.0381  0.2617  0.1628
  404POSM   NC3 4732   5.868  11.739  12.466 -0.0068 -0.1014  0.4167
  404POSM   PO4 4733   5.643  11.481  12.674  0.1797 -0.1362 -0.1046
  404POSM   AM1 4734   5.801  11.225  12.791  0.2738 -0.1084 -0.1130
  404POSM   AM2 4735   5.879  11.223  13.045  0.1968 -0.1576  0.1711
  404POSM   T1A 4736   5.696  10.738  12.816  0.0267  0.3315 -0.1593
  404POSM   C2A 4737   5.664  10.197  12.794  0.0647  0.3468  0.1290
  404POSM   C3A 4738   5.425   9.765  12.945 -0.1581 -0.2937  0.2096
  404POSM   C1B 4739   5.767  11.092  13.367 -0.0394 -0.0704 -0.1089
  404POSM   D2B 4740   5.909  11.045  13.819 -0.2286 -0.4064 -0.1435
  404POSM   C3B 4741   5.652  11.260  14.167 -0.1881 -0.0204  0.0109
  404POSM   C4B 4742   5.538  11.658  14.332 -0.0663 -0.1805  0.0643
  405DOPE   NH3 4743  33.602   6.046  12.362 -0.1387  0.2237 -0.0896
  405DOPE   PO4 4744  33.631   6.364  12.558 -0.2015  0.0367  0.0210
  405DOPE   GL1 4745  33.988   6.413  12.902 -0.0626  0.1203  0.2171
  405DOPE   GL2 4746  33.993   6.396  13.140  0.3455 -0.0585  0.3470
  405DOPE   C1A 4747  34.441   6.593  12.943 -0.1242  0.3432  0.1257
  405DOPE   D2A 4748  34.793   6.484  13.215  0.0342  0.0408 -0.3894
  405DOPE   C3A 4749  34.761   5.991  13.186 -0.0278 -0.0432 -0.1930
  405DOPE   C4A 4750  34.752   5.525  13.210 -0.2058 -0.2308  0.1417
  405DOPE   C1B 4751  34.080   6.002  13.379  0.2689 -0.0069  0.0647
  405DOPE   D2B 4752  34.428   5.847  13.554  0.0692  0.1280  0.3031
  405DOPE   C3B 4753  34.795   6.132  13.654 -0.0267 -0.3698  0.2789
  405DOPE   C4B 4754  35.260   6.198  13.771 -0.3109 -0.2136  0.0231
  406DOPC   NC3 4755   5.015   0.713  12.763 -0.4507  0.2098  0.0443
  406DOPC   PO4 4756   5.013   0.495  12.434  0.0451  0.0274 -0.1158
  406DOPC   GL1 4757   5.210   0.239  12.621 -0.2646  0.0476 -0.0994
  406DOPC   GL2 4758   5.111  -0.022  12.466 -0.1172 -0.0111  0.3133
  406DOPC   C1A 4759   5.130  -0.020  12.983 -0.0352  0.0076  0.1619
  406DOPC   D2A 4760   5.074   0.007  13.436 -0.0883  0.0522 -0.0732
  406DOPC   C3A 4761   5.122  -0.278  13.776  0.1184  0.2820 -0.1006
  406DOPC   C4A 4762   5.025  -0.629  14.053 -0.0791  0.1881  0.1586
  406DOPC   C1B 4763   5.077  -0.473  12.635 -0.1846 -0.2087 -0.0741
  406DOPC   D2B 4764   4.897  -0.874  12.825  0.0724 -0.0483 -0.1865
  406DOPC   C3B 4765   4.698  -0.909  13.214 -0.0428 -0.0703  0.0004
  406DOPC   C4B 4766   4.657  -1.055  13.661 -0.3445 -0.0200 -0.1611
  407POSM   NC3 4767  10.050   2.957  12.398 -0.0386 -0.0246  0.0891
  407POSM   PO4 4768  10.082   3.361  12.344 -0.0359  0.0149  0.0061
  407POSM   AM1 4769  10.152   3.418  12.675  0.1001  0.3459 -0.4060
  407POSM   AM2 4770  10.326   3.596  12.830 -0.0156 -0.1426  0.1072
  407POSM   T1A 4771  10.124   3.371  13.197 -0.1470  0.2531 -0.0595
  407POSM   C2A 4772  10.069   3.135  13.607  0.1186  0.0190 -0.1654
  407POSM   C3A 4773  10.232   2.889  13.967 -0.0449  0.0019  0.0806
  407POSM   C1B 4774  10.447   3.815  13.087 -0.3329 -0.0407 -0.2337
  407POSM   D2B 4775  10.855   3.891  13.267  0.1480 -0.2085  0.2666
  407POSM   C3B 4776  11.153   3.621  13.532 -0.2939  0.0957 -0.0220
  407POSM   C4B 4777  11.186   3.231  13.746  0.5336 -0.1657  0.0048
  408POSM   NC3 4778   5.708   7.077  12.414 -0.1946 -0.0997  0.0389
  408POSM   PO4 4779   5.358   7.102  12.587  0.0051  0.1769  0.1493
  408POSM   AM1 4780   5.362   7.081  12.971 -0.1768 -0.2361  0.0632
  408POSM   AM2 4781   5.277   7.316  13.161  0.0138 -0.0723 -0.0209
  408POSM   T1A 4782   5.417   6.931  13.474  0.0514  0.1769  0.0619
  408POSM   C2A 4783   5.492   6.920  13.977 -0.0606 -0.0350  0.1572
  408POSM   C3A 4784   5.747   6.919  14.399  0.1099  0.1092  0.0154
  408POSM   C1B 4785   5.478   7.477  13.356  0.2461 -0.4096  0.0100
  408POSM   D2B 4786   5.790   7.349  13.689  0.0104 -0.1166 -0.3530
  408POSM   C3B 4787   5.640   7.442  14.098 -0.1289  0.0156 -0.4699
  408POSM   C4B 4788   5.262   7.405  14.431  0.0543  0.1476  0.3005
  409DOPC   NC3 4789   2.826  20.764  16.153 -0.1954  0.3666  0.2826
  409DOPC   PO4 4790   2.565  20.646  16.390  0.2786  0.0857 -0.1706
  409DOPC   GL1 4791   2.437  20.579  16.010  0.1211 -0.1253  0.0985
  409DOPC   GL2 4792   2.328  20.209  16.030 -0.0819  0.2211  0.3060
  409DOPC   C1A 4793   2.455  20.399  15.603 -0.0486 -0.0899 -0.0367
  409DOPC   D2A 4794   2.411  20.429  15.124 -0.0322 -0.0346 -0.2714
  409DOPC   C3A 4795   2.045  20.525  14.858 -0.0284 -0.1649 -0.2080
  409DOPC   C4A 4796   1.675  20.742  14.743 -0.2495 -0.4247 -0.1590
  409DOPC   C1B 4797   2.114  20.049  15.654 -0.1842 -0.1646 -0.0674
  409DOPC   D2B 4798   1.995  20.214  15.214 -0.0272 -0.4964 -0.0014
  409DOPC   C3B 4799   1.739  20.109  14.838  0.1371 -0.2780  0.3300
  409DOPC   C4B 4800   1.313  20.099  14.726 -0.3254  0.3677  0.1871
  410DOPC   NC3 4801   8.985  15.308  15.798 -0.1977 -0.2389  0.5964
  410DOPC   PO4 4802   9.284  15.066  15.738  0.2065  0.1178  0.1619
  410DOPC   GL1 4803   9.482  14.935  15.417  0.2159  0.2779 -0.0093
  410DOPC   GL2 4804   9.557  14.620  15.362 -0.2484 -0.0126 -0.0636
  410DOPC   C1A 4805   9.300  15.116  15.063 -0.3557  0.0995  0.1793
  410DOPC   D2A 4806   9.108  15.487  14.829 -0.3093 -0.0308 -0.1369
  410DOPC   C3A 4807   8.990  15.557  14.404  0.0481  0.0314  0.2568
  410DOPC   C4A 4808   8.660  15.425  14.133  0.0464  0.1911  0.1466
  410DOPC   C1B 4809   9.683  14.436  14.971 -0.3394 -0.0635 -0.1205
  410DOPC   D2B 4810   9.698  14.810  14.699  0.4350  0.1897  0.2594
  410DOPC   C3B 4811  10.138  14.974  14.567  0.1559 -0.4008  0.2489
  410DOPC   C4B 4812  10.572  14.804  14.639 -0.1529 -0.1722  0.0123
  411DOPE   NH3 4813   8.843  21.172  15.524  0.1583 -0.0152 -0.2395
  411DOPE   PO4 4814   9.037  21.200  15.297 -0.2401 -0.2284 -0.0795
  411DOPE   GL1 4815   9.071  21.508  15.096 -0.3512 -0.0668  0.2357
  411DOPE   GL2 4816   8.776  21.518  15.042 -0.1186  0.1797 -0.0904
  411DOPE   C1A 4817   9.349  21.537  14.714  0.1257 -0.0805  0.1333
  411DOPE   D2A 4818   9.718  21.293  14.590  0.2423  0.2171 -0.0119
  411DOPE   C3A 4819   9.769  21.072  14.209  0.2644  0.0229 -0.0442
  411DOPE   C4A 4820   9.749  20.676  13.858  0.2611 -0.2873  0.1174
  411DOPE   C1B 4821   8.904  21.583  14.539 -0.2784  0.0507 -0.1031
  411DOPE   D2B 4822   9.086  21.834  14.151 -0.3832 -0.1573 -0.1624
  411DOPE   C3B 4823   9.230  21.481  13.825  0.0880  0.0893  0.1706
  411DOPE   C4B 4824   9.379  21.015  13.838  0.1566 -0.2546  0.0878
  412DOPE   NH3 4825   1.028  20.483  16.733 -0.1633 -0.1190 -0.0182
  412DOPE   PO4 4826   1.071  20.769  16.673  0.3103  0.1190  0.0024
  412DOPE   GL1 4827   1.056  20.789  16.262 -0.2629 -0.1345  0.0818
  412DOPE   GL2 4828   0.745  20.831  16.294 -0.0525 -0.1337 -0.2527
  412DOPE   C1A 4829   1.334  20.975  15.966  0.1724 -0.2799  0.0113
  412DOPE   D2A 4830   1.729  21.163  15.759 -0.0131 -0.1028 -0.0818
  412DOPE   C3A 4831   1.927  21.116  15.354  0.1117 -0.2878  0.1511
  412DOPE   C4A 4832   2.074  21.008  14.944 -0.0465  0.0581 -0.0532
  412DOPE   C1B 4833   0.842  20.667  15.851 -0.1934 -0.0914 -0.0159
  412DOPE   D2B 4834   0.699  20.710  15.398 -0.1112 -0.2790  0.0569
  412DOPE   C3B 4835   0.918  20.962  15.090 -0.0178  0.0289  0.3102
  412DOPE   C4B 4836   0.728  21.115  14.740  0.2921  0.2884  0.2026
  413DOPC   NC3 4837   9.459  22.663  16.516 -0.0273 -0.0664 -0.2725
  413DOPC   PO4 4838   9.238  22.968  16.406 -0.0303  0.2220  0.1440
  413DOPC   GL1 4839   9.283  23.052  15.973  0.2454 -0.4728  0.2068
  413DOPC   GL2 4840   9.093  22.860  15.778 -0.0917 -0.2369  0.3224
  413DOPC   C1A 4841   9.546  23.129  15.566 -0.0848 -0.1049  0.0117
  413DOPC   D2A 4842   9.820  23.287  15.276  0.2833 -0.2774  0.0510
  413DOPC   C3A 4843   9.736  23.200  14.774 -0.0727  0.1243  0.0125
  413DOPC   C4A 4844   9.492  23.128  14.351 -0.2269  0.2652 -0.3780
  413DOPC   C1B 4845   8.915  22.964  15.383  0.1254 -0.3636 -0.1027
  413DOPC   D2B 4846   8.766  23.244  15.063 -0.0193 -0.3138  0.3504
  413DOPC   C3B 4847   8.701  23.682  14.838 -0.2773 -0.1981  0.2088
  413DOPC   C4B 4848   8.779  23.794  14.319 -0.1944 -0.0572 -0.3449
  414DOPC   NC3 4849  11.107  21.414  15.921  0.4647  0.0114 -0.0542
  414DOPC   PO4 4850  10.751  21.308  15.976  0.2633 -0.0792  0.0160
  414DOPC   GL1 4851  10.457  21.251  15.695  0.1381  0.0124 -0.3700
  414DOPC   GL2 4852  10.704  21.194  15.501  0.0833  0.2836  0.1016
  414DOPC   C1A 4853  10.320  21.410  15.285 -0.2850 -0.3073  0.1815
  414DOPC   D2A 4854  10.145  21.182  14.884 -0.0743  0.3591  0.0132
  414DOPC   C3A 4855  10.567  21.170  14.642 -0.2643 -0.0143 -0.1889
  414DOPC   C4A 4856  10.723  21.203  14.207 -0.1089 -0.2283  0.0569
  414DOPC   C1B 4857  10.741  21.433  15.059  0.2153  0.0921  0.0590
  414DOPC   D2B 4858  10.844  21.633  14.618 -0.0744 -0.1900  0.0647
  414DOPC   C3B 4859  10.503  21.754  14.341  0.2077  0.0515  0.0789
  414DOPC   C4B 4860  10.124  21.842  14.000  0.2585 -0.0143 -0.0553
  415POSM   NC3 4861   3.631  14.370  16.035  0.2021  0.0722  0.0085
  415POSM   PO4 4862   3.444  14.721  16.107 -0.0776  0.2117 -0.1378
  415POSM   AM1 4863   3.345  14.875  15.849 -0.0429 -0.2984 -0.3596
  415POSM   AM2 4864   3.364  14.834  15.602  0.0267 -0.2303 -0.2859
  415POSM   T1A 4865   3.076  15.256  15.646  0.5697  0.1540  0.0479
  415POSM   C2A 4866   2.750  15.521  15.831 -0.0143  0.1973 -0.0029
  415POSM   C3A 4867   2.359  15.357  16.026  0.2702 -0.0039  0.0373
  415POSM   C1B 4868   3.587  14.734  15.362 -0.4930 -0.1701 -0.1628
  415POSM   D2B 4869   3.726  14.572  14.963  0.3077  0.0833  0.1874
  415POSM   C3B 4870   3.460  14.302  14.655  0.2399 -0.2081  0.1986
  415POSM   C4B 4871   3.717  14.111  14.302 -0.2300 -0.4446  0.2387
  416DOPS   CNO 4872   7.949  21.946  15.785  0.0505  0.1457 -0.1546
  416DOPS   PO4 4873   8.223  21.768  15.683  0.1322 -0.0841 -0.0491
  416DOPS   GL1 4874   7.985  21.844  15.360 -0.0429  0.0095  0.1526
  416DOPS   GL2 4875   8.070  21.598  15.136  0.1537  0.0799 -0.1851
  416DOPS   C1A 4876   8.012  22.083  14.966  0.0811 -0.0966 -0.3153
  416DOPS   D2A 4877   8.180  22.258  14.550 -0.0286 -0.0447  0.1226
  416DOPS   C3A 4878   8.529  22.557  14.412  0.0629 -0.1377 -0.4049
  416DOPS   C4A 4879   8.914  22.799  14.355 -0.1484 -0.0921  0.0609
  416DOPS   C1B 4880   7.983  21.390  14.680 -0.4043 -0.4773  0.2372
  416DOPS   D2B 4881   7.858  21.181  14.263 -0.1253  0.1609  0.2524
  416DOPS   C3B 4882   8.116  20.947  13.985 -0.0281  0.3082  0.0501
  416DOPS   C4B 4883   8.420  21.067  13.628  0.1515 -0.0898  0.1436
  417DOPC   NC3 4884   4.924  14.028  16.473  0.0483  0.0546 -0.0135
  417DOPC   PO4 4885   5.283  14.158  16.327 -0.0996  0.2791  0.4412
  417DOPC   GL1 4886   5.432  14.354  15.985  0.0265 -0.2254 -0.4232
  417DOPC   GL2 4887   5.196  14.402  15.847 -0.0557 -0.2695  0.1057
  417DOPC   C1A 4888   5.656  14.637  15.648 -0.4267 -0.0500 -0.3384
  417DOPC   D2A 4889   5.912  14.893  15.356  0.2067 -0.2392 -0.1285
  417DOPC   C3A 4890   5.840  14.661  14.972 -0.0628 -0.3415  0.1904
  417DOPC   C4A 4891   5.896  14.236  14.774  0.1301  0.0883  0.0760
  417DOPC   C1B 4892   4.767  14.343  15.663 -0.0736 -0.0893 -0.0354
  417DOPC   D2B 4893   4.449  14.408  15.378  0.1480  0.1553 -0.1045
  417DOPC   C3B 4894   4.118  14.633  15.599  0.0925 -0.0417 -0.1131
  417DOPC   C4B 4895   3.931  15.072  15.651  0.1159 -0.0784  0.0440
  418DOPE   NH3 4896   1.572  16.798  16.504 -0.2251 -0.1183 -0.0050
  418DOPE   PO4 4897   1.855  16.728  16.326 -0.1120  0.0855 -0.2618
  418DOPE   GL1 4898   2.136  16.725  16.049  0.2913 -0.2201  0.0814
  418DOPE   GL2 4899   2.439  16.830  16.137  0.1472 -0.2349 -0.2615
  418DOPE   C1A 4900   2.127  16.842  15.628  0.2594  0.2733  0.2186
  418DOPE   D2A 4901   2.219  17.063  15.259  0.0736  0.2116  0.2341
  418DOPE   C3A 4902   2.181  17.070  14.790  0.1697  0.0024 -0.1070
  418DOPE   C4A 4903   2.272  16.839  14.429  0.1377 -0.2833  0.0776
  418DOPE   C1B 4904   2.529  17.120  15.839  0.2677  0.0288  0.1401
  418DOPE   D2B 4905   2.773  17.510  15.626  0.4924 -0.2856  0.0584
  418DOPE   C3B 4906   3.072  17.492  15.244  0.2354 -0.1911 -0.0636
  418DOPE   C4B 4907   3.195  17.756  14.856  0.6270 -0.0505 -0.1389
  419POSM   NC3 4908   8.354  21.371  15.513 -0.1745  0.1633  0.1563
  419POSM   PO4 4909   8.407  20.969  15.629 -0.1600  0.4430 -0.2130
  419POSM   AM1 4910   8.482  20.953  15.303 -0.1453  0.0856  0.1991
  419POSM   AM2 4911   8.500  21.145  15.127  0.1103  0.4044  0.0880
  419POSM   T1A 4912   8.623  20.657  14.935 -0.1137  0.0338  0.3172
  419POSM   C2A 4913   8.626  20.438  14.530  0.3431  0.0384 -0.1718
  419POSM   C3A 4914   8.332  20.308  14.173  0.0824 -0.2287  0.0514
  419POSM   C1B 4915   8.458  21.225  14.829  0.0292  0.1547  0.1377
  419POSM   D2B 4916   8.404  21.257  14.413  0.2052 -0.0796 -0.0379
  419POSM   C3B 4917   8.768  21.340  14.139 -0.0824 -0.0268  0.1115
  419POSM   C4B 4918   9.185  21.265  14.345  0.2223 -0.1368 -0.0999
  420DOPS   CNO 4919   6.218  22.743  15.849 -0.0494  0.0043 -0.1344
  420DOPS   PO4 4920   5.816  22.693  15.825 -0.0928 -0.1851  0.0050
  420DOPS   GL1 4921   5.840  23.101  15.681  0.0202 -0.1005 -0.1294
  420DOPS   GL2 4922   5.606  23.196  15.592 -0.1571 -0.1871  0.1179
  420DOPS   C1A 4923   6.096  23.418  15.357 -0.4307  0.0341 -0.2788
  420DOPS   D2A 4924   6.039  23.712  14.943  0.1182  0.4362 -0.1073
  420DOPS   C3A 4925   6.030  23.508  14.612  0.1571 -0.2016  0.3121
  420DOPS   C4A 4926   6.320  23.591  14.267 -0.1268 -0.0083 -0.1448
  420DOPS   C1B 4927   5.623  23.021  15.221 -0.1312  0.0645  0.2525
  420DOPS   D2B 4928   5.725  23.236  14.873 -0.1011  0.1752  0.3407
  420DOPS   C3B 4929   5.674  23.271  14.365  0.0439 -0.1367 -0.0394
  420DOPS   C4B 4930   5.543  23.184  13.941  0.1663  0.1050  0.1150
  421DOPC   NC3 4931  10.348  14.393  15.839  0.2935  0.1708 -0.1393
  421DOPC   PO4 4932  10.423  14.775  15.820  0.0593 -0.0456  0.0561
  421DOPC   GL1 4933  10.680  14.634  15.506 -0.3536  0.1262 -0.1285
  421DOPC   GL2 4934  10.405  14.706  15.339 -0.2192  0.2991 -0.2123
  421DOPC   C1A 4935  10.943  14.363  15.341  0.1366  0.1898 -0.1684
  421DOPC   D2A 4936  10.905  13.933  15.160  0.2752 -0.0193  0.1142
  421DOPC   C3A 4937  10.787  13.896  14.706  0.1285  0.0252  0.4305
  421DOPC   C4A 4938  10.549  13.687  14.389 -0.2287  0.0763 -0.0738
  421DOPC   C1B 4939  10.016  14.366  15.333 -0.0256 -0.2757  0.1980
  421DOPC   D2B 4940   9.861  13.996  14.991 -0.2726  0.1149  0.2825
  421DOPC   C3B 4941   9.854  14.224  14.585  0.4276 -0.0916  0.0066
  421DOPC   C4B 4942   9.451  14.424  14.366 -0.2650 -0.0768  0.0861
  422DOPE   NH3 4943   6.102  16.697  16.505  0.0127 -0.1986 -0.0455
  422DOPE   PO4 4944   6.013  16.411  16.461  0.3520  0.0966 -0.0094
  422DOPE   GL1 4945   5.971  16.395  16.054 -0.1829 -0.2890 -0.0675
  422DOPE   GL2 4946   5.902  16.684  15.987 -0.1283 -0.0055 -0.1496
  422DOPE   C1A 4947   6.070  16.032  15.773  0.0905  0.1655 -0.1032
  422DOPE   D2A 4948   6.202  15.751  15.450  0.0724 -0.1281  0.2121
  422DOPE   C3A 4949   6.272  15.762  15.033  0.1333 -0.5376  0.0559
  422DOPE   C4A 4950   6.559  16.012  14.725 -0.1745  0.2213 -0.1401
  422DOPE   C1B 4951   6.252  16.542  15.712 -0.0449  0.1939  0.1740
  422DOPE   D2B 4952   6.310  16.595  15.280  0.0070 -0.0209  0.1527
  422DOPE   C3B 4953   6.294  16.453  14.878 -0.3067  0.0029 -0.1919
  422DOPE   C4B 4954   6.238  16.344  14.445  0.0572 -0.0399 -0.1160
  423DOPE   NH3 4955   5.106  17.185  16.356  0.0330  0.0827  0.1589
  423DOPE   PO4 4956   5.158  16.904  16.264 -0.2532 -0.0932  0.1779
  423DOPE   GL1 4957   5.150  16.930  15.866  0.0116 -0.1972  0.1376
  423DOPE   GL2 4958   5.257  17.165  15.833  0.0446 -0.2179  0.0570
  423DOPE   C1A 4959   5.148  16.603  15.506 -0.2216 -0.2675 -0.0974
  423DOPE   D2A 4960   5.345  16.402  15.232 -0.2581  0.1403  0.1737
  423DOPE   C3A 4961   5.304  16.380  14.815 -0.2145  0.1353 -0.0454
  423DOPE   C4A 4962   5.062  16.297  14.417  0.2847  0.1915 -0.0150
  423DOPE   C1B 4963   5.208  17.097  15.430 -0.0462  0.1281  0.3603
  423DOPE   D2B 4964   5.113  16.870  15.018 -0.1983 -0.1679 -0.0580
  423DOPE   C3B 4965   4.877  17.135  14.682 -0.1471 -0.0476 -0.0135
  423DOPE   C4B 4966   4.700  17.449  14.340 -0.2942 -0.0191 -0.2483
  424DOPC   NC3 4967   7.716  21.963  16.276  0.0789 -0.0955  0.3630
  424DOPC   PO4 4968   8.036  22.222  16.218  0.0062 -0.1911 -0.0601
  424DOPC   GL1 4969   8.172  22.309  15.818 -0.2200  0.3006 -0.0102
  424DOPC   GL2 4970   8.406  22.503  15.812  0.1071 -0.0284 -0.2374
  424DOPC   C1A 4971   7.967  22.396  15.389  0.3134  0.0373  0.1722
  424DOPC   D2A 4972   7.603  22.360  15.089  0.1807 -0.0086 -0.0792
  424DOPC   C3A 4973   7.614  22.262  14.666  0.0061 -0.1637 -0.1281
  424DOPC   C4A 4974   7.749  22.160  14.231 -0.1110  0.5098 -0.1610
  424DOPC   C1B 4975   8.484  22.959  15.700  0.1188  0.1003 -0.3038
  424DOPC   D2B 4976   8.780  23.324  15.756  0.0796  0.0293  0.1596
  424DOPC   C3B 4977   8.767  23.656  15.419  0.3802  0.0065  0.0986
  424DOPC   C4B 4978   8.723  24.078  15.431 -0.0836 -0.2544  0.0664
  425POSM   NC3 4979   9.522  19.481  16.024  0.0625  0.2261  0.1226
  425POSM   PO4 4980   9.162  19.454  16.133  0.2514  0.0725 -0.2213
  425POSM   AM1 4981   9.082  19.267  15.877 -0.2550 -0.1015 -0.0622
  425POSM   AM2 4982   9.182  19.016  15.767 -0.0163  0.2413 -0.2741
  425POSM   T1A 4983   8.815  19.260  15.479 -0.1631  0.1170 -0.0822
  425POSM   C2A 4984   8.648  19.174  15.042  0.0945 -0.0564 -0.2129
  425POSM   C3A 4985   8.255  18.951  14.822  0.2958  0.1915 -0.2385
  425POSM   C1B 4986   9.275  18.842  15.587  0.0595 -0.2418  0.3997
  425POSM   D2B 4987   9.639  18.774  15.319 -0.1641 -0.0126  0.1351
  425POSM   C3B 4988  10.039  19.045  15.455  0.1466 -0.3666 -0.0234
  425POSM   C4B 4989  10.356  18.846  15.751 -0.1991 -0.5049  0.3623
  426DOPE   NH3 4990   0.479  21.050  16.612 -0.2206  0.3219 -0.1341
  426DOPE   PO4 4991   0.368  21.346  16.641 -0.1709  0.6227 -0.1958
  426DOPE   GL1 4992   0.741  21.313  16.312 -0.4517  0.1202  0.1421
  426DOPE   GL2 4993   0.678  21.587  16.308  0.0246 -0.0968 -0.1670
  426DOPE   C1A 4994   0.932  21.196  15.917 -0.0197  0.0483  0.0950
  426DOPE   D2A 4995   1.106  21.000  15.534 -0.0111 -0.1915  0.0411
  426DOPE   C3A 4996   1.313  20.590  15.568  0.2112  0.4658 -0.0171
  426DOPE   C4A 4997   1.540  20.202  15.650 -0.2194  0.1781 -0.0181
  426DOPE   C1B 4998   0.419  21.622  15.979 -0.0853  0.0653  0.2213
  426DOPE   D2B 4999   0.032  21.527  15.703 -0.4350  0.1252  0.1712
  426DOPE   C3B 5000  -0.189  21.422  15.311 -0.1650 -0.0523  0.0417
  426DOPE   C4B 5001  -0.333  21.578  14.899  0.0474  0.1161 -0.1435
  427DOPS   CNO 5002   4.151  12.756  16.539  0.1803 -0.1413 -0.0589
  427DOPS   PO4 5003   4.080  12.903  16.190  0.0132 -0.2374  0.0049
  427DOPS   GL1 5004   4.167  13.158  15.805  0.2334 -0.0960 -0.4169
  427DOPS   GL2 5005   4.479  13.251  15.781 -0.0464  0.1202  0.2146
  427DOPS   C1A 5006   4.290  12.998  15.363 -0.0371 -0.0328  0.0087
  427DOPS   D2A 5007   4.040  12.820  14.949 -0.1907 -0.0349 -0.0375
  427DOPS   C3A 5008   4.232  12.858  14.546  0.1961  0.1242 -0.2010
  427DOPS   C4A 5009   4.533  13.204  14.336  0.1117 -0.1256  0.1568
  427DOPS   C1B 5010   4.696  13.513  15.447 -0.1752  0.2260  0.0766
  427DOPS   D2B 5011   4.736  13.926  15.271  0.0140 -0.0165  0.1409
  427DOPS   C3B 5012   4.562  13.905  14.827  0.0560 -0.1122 -0.2509
  427DOPS   C4B 5013   4.193  13.755  14.608  0.1333 -0.1914 -0.0230
  428POSM   NC3 5014   7.174  20.302  16.562 -0.1761  0.4251  0.0807
  428POSM   PO4 5015   6.848  20.519  16.394  0.0861 -0.3362 -0.2467
  428POSM   AM1 5016   6.828  20.434  16.092 -0.2170 -0.2458 -0.0864
  428POSM   AM2 5017   7.011  20.369  15.862 -0.0369 -0.1482  0.2284
  428POSM   T1A 5018   6.542  20.168  15.761 -0.0284  0.2563  0.1076
  428POSM   C2A 5019   6.474  19.717  15.614  0.0309  0.0184 -0.2639
  428POSM   C3A 5020   6.590  19.309  15.886  0.1977  0.1738 -0.1246
  428POSM   C1B 5021   7.057  20.629  15.600  0.2835 -0.1140  0.1459
  428POSM   D2B 5022   7.187  21.049  15.403 -0.0994  0.1317 -0.0607
  428POSM   C3B 5023   6.984  21.082  14.952 -0.2188 -0.1616 -0.1861
  428POSM   C4B 5024   6.919  20.834  14.518  0.1123 -0.0670 -0.4645
  429POSM   NC3 5025   4.625  19.914  16.731  0.2892  0.0206  0.2335
  429POSM   PO4 5026   4.394  20.185  16.562 -0.1061 -0.4521  0.1836
  429POSM   AM1 5027   4.173  20.264  16.335  0.5006  0.0638 -0.1246
  429POSM   AM2 5028   3.896  20.396  16.350  0.0102 -0.3243  0.0896
  429POSM   T1A 5029   4.132  20.217  15.838  0.0564  0.1445  0.2292
  429POSM   C2A 5030   4.112  20.230  15.360 -0.0264 -0.0567  0.1336
  429POSM   C3A 5031   4.375  20.065  15.033 -0.0223  0.1009 -0.1533
  429POSM   C1B 5032   4.015  20.630  16.125  0.2325 -0.1185  0.0484
  429POSM   D2B 5033   4.303  20.665  15.740 -0.0546  0.0901 -0.0312
  429POSM   C3B 5034   4.744  20.625  15.504  0.0929  0.1292  0.0179
  429POSM   C4B 5035   5.186  20.552  15.328  0.1667 -0.1183  0.4279
  430DOPC   NC3 5036   2.540  12.012  16.255  0.4150  0.0725  0.0601
  430DOPC   PO4 5037   2.873  11.862  16.111 -0.3303  0.0770 -0.1626
  430DOPC   GL1 5038   2.875  12.177  15.785  0.2693 -0.4729 -0.2250
  430DOPC   GL2 5039   3.050  12.417  15.823  0.1290 -0.3070 -0.2555
  430DOPC   C1A 5040   2.714  12.444  15.430 -0.0635  0.3689 -0.0667
  430DOPC   D2A 5041   2.263  12.363  15.230  0.1834 -0.3017 -0.4754
  430DOPC   C3A 5042   1.818  12.492  15.220  0.1596 -0.0501 -0.4123
  430DOPC   C4A 5043   1.498  12.787  15.432  0.0743 -0.0753  0.4716
  430DOPC   C1B 5044   3.124  12.059  15.469 -0.1387 -0.4075 -0.1768
  430DOPC   D2B 5045   3.157  11.820  15.078 -0.1508 -0.3175 -0.1477
  430DOPC   C3B 5046   2.894  11.542  15.000 -0.1103  0.1144  0.3802
  430DOPC   C4B 5047   2.588  11.576  14.669 -0.3010 -0.1757 -0.0313
  431DOPS   CNO 5048   7.463  15.734  16.498 -0.0621 -0.3193  0.0628
  431DOPS   PO4 5049   7.612  16.085  16.491 -0.1246  0.1129 -0.0884
  431DOPS   GL1 5050   7.755  16.380  16.286 -0.1530  0.3456  0.4107
  431DOPS   GL2 5051   7.599  16.588  16.420 -0.0285  0.0102  0.4076
  431DOPS   C1A 5052   7.690  16.477  15.805  0.3352 -0.0838 -0.1433
  431DOPS   D2A 5053   7.810  16.456  15.335 -0.0092 -0.0501 -0.0505
  431DOPS   C3A 5054   7.693  16.495  14.843 -0.2077 -0.1105  0.0233
  431DOPS   C4A 5055   7.328  16.352  14.592  0.1844 -0.2070  0.0148
  431DOPS   C1B 5056   7.699  16.905  16.109 -0.1769 -0.0541  0.0350
  431DOPS   D2B 5057   7.465  17.052  15.715  0.2637  0.2015 -0.0250
  431DOPS   C3B 5058   7.682  17.394  15.547  0.1267 -0.0010  0.0142
  431DOPS   C4B 5059   7.844  17.503  15.084 -0.1151  0.3113  0.1946
  432DOPE   NH3 5060   9.148  21.610  15.659 -0.5505 -0.0567  0.1582
  432DOPE   PO4 5061   9.233  21.903  15.672  0.4896  0.0943 -0.1597
  432DOPE   GL1 5062   9.300  22.235  15.370  0.2943  0.2313  0.1523
  432DOPE   GL2 5063   9.129  22.418  15.306  0.1536  0.0004  0.0331
  432DOPE   C1A 5064   9.524  22.426  15.037 -0.4527 -0.0895  0.0919
  432DOPE   D2A 5065   9.766  22.429  14.623 -0.1317 -0.0646 -0.1238
  432DOPE   C3A 5066  10.003  22.864  14.514  0.0923 -0.1155  0.3038
  432DOPE   C4A 5067  10.204  22.977  14.135 -0.1583  0.1569  0.6057
  432DOPE   C1B 5068   9.079  22.330  14.879  0.1402  0.3086  0.2153
  432DOPE   D2B 5069   8.721  22.034  14.779 -0.1277 -0.1062  0.1009
  432DOPE   C3B 5070   8.546  21.842  14.315  0.0903 -0.0084 -0.3193
  432DOPE   C4B 5071   8.239  21.981  13.956  0.0209  0.1949 -0.1823
  433POSM   NC3 5072   9.483  17.794  16.184 -0.3870  0.3354  0.2041
  433POSM   PO4 5073   9.827  17.705  16.081 -0.2776 -0.0245  0.3516
  433POSM   AM1 5074   9.850  17.807  15.745  0.1566 -0.1004 -0.1881
  433POSM   AM2 5075   9.950  17.999  15.561  0.2483 -0.2338 -0.2937
  433POSM   T1A 5076   9.788  17.535  15.299  0.3144 -0.0704  0.2680
  433POSM   C2A 5077   9.744  17.549  14.851 -0.2218 -0.0682 -0.2672
  433POSM   C3A 5078   9.486  17.685  14.500  0.1913 -0.0131 -0.3381
  433POSM   C1B 5079   9.780  18.196  15.334  0.2192  0.0631 -0.0359
  433POSM   D2B 5080   9.653  18.394  14.882  0.1067  0.0875  0.1753
  433POSM   C3B 5081   9.917  18.179  14.564  0.1269 -0.0030 -0.3397
  433POSM   C4B 5082   9.777  17.962  14.242  0.0865 -0.1249 -0.0820
  434POSM   NC3 5083  11.148  13.091  15.794 -0.0428 -0.3533 -0.1149
  434POSM   PO4 5084  11.104  13.460  15.642 -0.1675  0.1258  0.0764
  434POSM   AM1 5085  11.120  13.543  15.342 -0.2704 -0.0074 -0.1702
  434POSM   AM2 5086  11.308  13.654  15.130  0.0872 -0.0924  0.1723
  434POSM   T1A 5087  10.917  13.400  14.903  0.1049  0.1116  0.1685
  434POSM   C2A 5088  11.068  13.255  14.497 -0.1451 -0.2010  0.1429
  434POSM   C3A 5089  11.045  13.350  14.045  0.0426  0.0807 -0.2725
  434POSM   C1B 5090  11.229  13.753  14.852  0.0114 -0.0598 -0.3033
  434POSM   D2B 5091  11.331  13.837  14.447  0.0917  0.0393 -0.2630
  434POSM   C3B 5092  10.978  13.863  14.153  0.0788 -0.0643  0.1045
  434POSM   C4B 5093  10.939  13.684  13.729  0.0516  0.4033  0.3598
  435DOPC   NC3 5094   1.309  19.513  16.446  0.0101 -0.1229 -0.0819
  435DOPC   PO4 5095   1.631  19.557  16.637 -0.0374  0.0544  0.2118
  435DOPC   GL1 5096   1.602  19.857  16.370 -0.3164  0.0841 -0.0631
  435DOPC   GL2 5097   1.856  19.775  16.198  0.3487 -0.3194  0.3833
  435DOPC   C1A 5098   1.341  19.760  16.025  0.0758  0.2382  0.0446
  435DOPC   D2A 5099   0.955  19.736  15.790  0.3812  0.1411 -0.0329
  435DOPC   C3A 5100   0.648  19.374  15.738 -0.1722  0.1443 -0.0686
  435DOPC   C4A 5101   0.405  19.172  15.459  0.0492 -0.1603 -0.3011
  435DOPC   C1B 5102   1.819  20.226  16.071  0.0008  0.5134 -0.1340
  435DOPC   D2B 5103   1.758  20.665  15.948 -0.1321 -0.1844  0.1873
  435DOPC   C3B 5104   1.780  20.976  16.298 -0.0583 -0.2827  0.0516
  435DOPC   C4B 5105   1.735  21.276  16.587  0.1853 -0.0492  0.0463
  436DOPC   NC3 5106   0.620  14.138  15.322 -0.1112  0.1004 -0.1174
  436DOPC   PO4 5107   0.895  13.852  15.484  0.3720 -0.1151 -0.0483
  436DOPC   GL1 5108   1.052  14.042  15.074 -0.2635 -0.3133 -0.2465
  436DOPC   GL2 5109   1.204  13.858  14.983 -0.0854 -0.0271 -0.2047
  436DOPC   C1A 5110   1.084  14.253  14.648  0.0935 -0.2276 -0.4789
  436DOPC   D2A 5111   0.913  14.578  14.328 -0.2682  0.0046  0.2393
  436DOPC   C3A 5112   0.817  15.063  14.291  0.0373 -0.1701 -0.0201
  436DOPC   C4A 5113   0.392  15.272  14.463 -0.3741 -0.1845  0.0782
  436DOPC   C1B 5114   1.299  13.754  14.554  0.3234 -0.0647  0.1913
  436DOPC   D2B 5115   1.273  13.962  14.159  0.0584 -0.2714  0.0780
  436DOPC   C3B 5116   0.923  13.827  13.858 -0.2593  0.0837 -0.1538
  436DOPC   C4B 5117   0.439  13.760  13.757  0.1075 -0.0156 -0.2631
  437POSM   NC3 5118   5.994  11.794  16.189 -0.1919 -0.3013 -0.1100
  437POSM   PO4 5119   6.345  11.777  16.121  0.1904  0.1947  0.0506
  437POSM   AM1 5120   6.294  11.867  15.825 -0.2322  0.0244  0.1846
  437POSM   AM2 5121   6.208  12.070  15.669  0.1661  0.1716 -0.1971
  437POSM   T1A 5122   6.150  11.679  15.381 -0.1410  0.1537 -0.1789
  437POSM   C2A 5123   6.179  11.470  14.956 -0.0307  0.2405 -0.0330
  437POSM   C3A 5124   5.994  11.573  14.557  0.0203 -0.1082  0.2502
  437POSM   C1B 5125   5.917  12.137  15.441 -0.0021 -0.4460 -0.1893
  437POSM   D2B 5126   5.855  12.264  15.018  0.2008 -0.0089  0.4884
  437POSM   C3B 5127   6.239  12.417  14.726  0.0688 -0.0732 -0.1566
  437POSM   C4B 5128   6.505  12.699  14.459 -0.0963 -0.0516 -0.3166
  438POSM   NC3 5129  10.777  17.318  15.569 -0.3373  0.1459  0.0655
  438POSM   PO4 5130  11.100  17.080  15.628  0.2852 -0.4421 -0.1347
  438POSM   AM1 5131  11.154  17.059  15.303  0.2208  0.1912  0.1365
  438POSM   AM2 5132  11.255  17.186  15.056  0.0181 -0.2694  0.1995
  438POSM   T1A 5133  11.168  16.727  14.911  0.0761 -0.3339 -0.0092
  438POSM   C2A 5134  11.156  16.538  14.480 -0.1369  0.1249 -0.1687
  438POSM   C3A 5135  11.469  16.483  14.112 -0.2380  0.0152 -0.0089
  438POSM   C1B 5136  11.125  17.359  14.815  0.0786 -0.1480 -0.1735
  438POSM   D2B 5137  10.845  17.435  14.468  0.0391  0.1087  0.0853
  438POSM   C3B 5138  11.102  17.364  14.070 -0.0623 -0.2096 -0.4012
  438POSM   C4B 5139  10.898  17.209  13.678  0.1147  0.0810 -0.4905
  439DOPE   NH3 5140   9.961  21.747  16.319 -0.1087 -0.0942  0.1214
  439DOPE   PO4 5141   9.893  21.885  16.045 -0.2438  0.1802  0.0434
  439DOPE   GL1 5142  10.061  22.050  15.673 -0.1833 -0.0307  0.0463
  439DOPE   GL2 5143  10.115  21.883  15.469 -0.0094 -0.1238  0.1271
  439DOPE   C1A 5144  10.195  22.371  15.374  0.1116 -0.0779  0.1149
  439DOPE   D2A 5145  10.532  22.580  15.187  0.1143  0.0346 -0.1442
  439DOPE   C3A 5146  10.836  22.792  14.882 -0.1083 -0.1742  0.0486
  439DOPE   C4A 5147  11.006  22.650  14.518 -0.1313 -0.2152  0.2264
  439DOPE   C1B 5148  10.517  21.945  15.246 -0.3125  0.0568  0.0249
  439DOPE   D2B 5149  10.510  21.984  14.802 -0.1566  0.1827 -0.0090
  439DOPE   C3B 5150  10.112  22.032  14.510  0.1760  0.0197 -0.2668
  439DOPE   C4B 5151   9.769  22.101  14.254  0.1580 -0.2783 -0.1444
  440DOPC   NC3 5152   6.276  21.204  15.850 -0.0638  0.0352  0.2487
  440DOPC   PO4 5153   6.429  21.504  16.006 -0.0478 -0.1270 -0.4399
  440DOPC   GL1 5154   6.329  21.652  15.650 -0.0029  0.1318 -0.0061
  440DOPC   GL2 5155   6.650  21.704  15.639  0.2113  0.1567 -0.1310
  440DOPC   C1A 5156   6.387  21.799  15.181 -0.1526  0.0836  0.0386
  440DOPC   D2A 5157   6.105  21.815  14.813  0.1308 -0.1487 -0.0178
  440DOPC   C3A 5158   5.666  22.005  14.776  0.0745  0.2315 -0.2753
  440DOPC   C4A 5159   5.390  21.881  14.389 -0.4405  0.1659  0.0588
  440DOPC   C1B 5160   6.963  21.705  15.330  0.1251  0.1508  0.0095
  440DOPC   D2B 5161   7.086  21.573  14.921  0.0515 -0.1118  0.2986
  440DOPC   C3B 5162   6.941  21.376  14.508 -0.4891 -0.1508  0.2558
  440DOPC   C4B 5163   6.851  21.053  14.089  0.1717  0.2556  0.2391
  441DOPE   NH3 5164   7.855  18.137  16.537 -0.1487 -0.0225  0.2384
  441DOPE   PO4 5165   8.105  18.202  16.359 -0.2868  0.1993 -0.1404
  441DOPE   GL1 5166   7.871  18.263  16.068  0.1892  0.2198  0.2229
  441DOPE   GL2 5167   7.647  18.053  16.038 -0.0775 -0.1380  0.0733
  441DOPE   C1A 5168   7.793  18.644  15.811 -0.1422  0.0705  0.0321
  441DOPE   D2A 5169   7.914  19.084  15.673  0.1375 -0.4307  0.2363
  441DOPE   C3A 5170   7.807  19.001  15.280  0.3078 -0.0731 -0.1594
  441DOPE   C4A 5171   7.477  18.977  14.945 -0.1648  0.0382 -0.0178
  441DOPE   C1B 5172   7.628  18.235  15.609  0.1914 -0.1215  0.1004
  441DOPE   D2B 5173   7.514  18.197  15.166 -0.1128  0.1781  0.0527
  441DOPE   C3B 5174   7.740  17.952  14.872  0.2996 -0.1729  0.3540
  441DOPE   C4B 5175   7.969  17.657  14.572  0.1386 -0.2575  0.0945
  442DOPE   NH3 5176  10.819  15.120  15.674 -0.0009  0.1391  0.0954
  442DOPE   PO4 5177  10.532  15.231  15.672  0.0960 -0.1515 -0.1417
  442DOPE   GL1 5178  10.225  15.136  15.403  0.0225 -0.2651  0.5170
  442DOPE   GL2 5179  10.291  15.412  15.297 -0.0728 -0.2012  0.0063
  442DOPE   C1A 5180  10.054  14.901  15.039  0.1980  0.0744  0.0520
  442DOPE   D2A 5181  10.184  14.528  14.813 -0.1521  0.0493  0.0396
  442DOPE   C3A 5182  10.148  14.559  14.388  0.0302 -0.1310  0.0439
  442DOPE   C4A 5183   9.767  14.798  14.114  0.0255 -0.1180  0.0588
  442DOPE   C1B 5184  10.459  15.213  14.928 -0.2034 -0.2625  0.3176
  442DOPE   D2B 5185  10.495  15.289  14.427  0.1964  0.0819 -0.4186
  442DOPE   C3B 5186  10.354  14.965  14.122  0.1363  0.1728 -0.2961
  442DOPE   C4B 5187  10.157  14.825  13.795  0.1009  0.0580  0.3461
  443DOPE   NH3 5188   7.400  14.256  16.505  0.2308 -0.0469  0.0692
  443DOPE   PO4 5189   7.145  14.344  16.414  0.2102 -0.2415 -0.1091
  443DOPE   GL1 5190   7.089  14.628  16.147  0.1678  0.1118  0.2056
  443DOPE   GL2 5191   7.233  14.755  15.896 -0.0718 -0.1996 -0.1655
  443DOPE   C1A 5192   6.774  14.607  15.801  0.0430 -0.0025 -0.0809
  443DOPE   D2A 5193   6.774  14.478  15.391  0.2414  0.0064  0.2140
  443DOPE   C3A 5194   6.845  14.294  14.931 -0.0018  0.2636  0.0045
  443DOPE   C4A 5195   6.767  14.186  14.485 -0.0248  0.0841  0.0844
  443DOPE   C1B 5196   7.172  14.805  15.431  0.1233 -0.2372 -0.0297
  443DOPE   D2B 5197   7.117  15.239  15.227 -0.1026  0.0338  0.1128
  443DOPE   C3B 5198   7.366  15.469  14.907  0.6031  0.2232 -0.1402
  443DOPE   C4B 5199   7.719  15.331  14.578 -0.0556  0.1218 -0.3260
  444DOPS   CNO 5200   0.812  16.800  16.472  0.0610  0.0200 -0.0375
  444DOPS   PO4 5201   1.122  16.678  16.335 -0.1710  0.0119 -0.1212
  444DOPS   GL1 5202   1.298  16.903  16.163 -0.0019  0.2505  0.0284
  444DOPS   GL2 5203   1.491  16.819  15.983  0.1240 -0.0910  0.1409
  444DOPS   C1A 5204   1.272  17.303  15.998 -0.3332  0.0042  0.0937
  444DOPS   D2A 5205   1.348  17.568  15.684 -0.0018 -0.1694  0.2448
  444DOPS   C3A 5206   1.757  17.454  15.458 -0.0220  0.0335 -0.1803
  444DOPS   C4A 5207   2.070  17.714  15.264 -0.3707  0.0835  0.0931
  444DOPS   C1B 5208   1.189  16.766  15.676 -0.0572  0.2640 -0.0023
  444DOPS   D2B 5209   0.807  16.671  15.432  0.1794  0.1614 -0.0012
  444DOPS   C3B 5210   0.826  16.966  15.095  0.0408  0.1555 -0.0137
  444DOPS   C4B 5211   0.637  17.377  14.833  0.0278  0.0152 -0.2397
  445DOPE   NH3 5212   6.561  18.649  16.660 -0.1714 -0.0416  0.0558
  445DOPE   PO4 5213   6.355  18.413  16.562  0.1033 -0.0056  0.0724
  445DOPE   GL1 5214   6.267  18.629  16.217 -0.1057 -0.1202  0.2374
  445DOPE   GL2 5215   6.569  18.704  16.125 -0.1528  0.2502 -0.0915
  445DOPE   C1A 5216   6.138  19.064  16.087  0.1062 -0.0743 -0.3083
  445DOPE   D2A 5217   6.108  19.324  15.717  0.0953  0.1359  0.0931
  445DOPE   C3A 5218   6.194  19.467  15.303 -0.2778 -0.0585  0.1777
  445DOPE   C4A 5219   6.317  19.759  15.047  0.2055  0.1488 -0.0521
  445DOPE   C1B 5220   6.742  18.801  15.638  0.5877 -0.0008 -0.3544
  445DOPE   D2B 5221   6.428  19.058  15.419 -0.1492 -0.0180  0.1336
  445DOPE   C3B 5222   6.340  18.995  15.007  0.2727 -0.1865  0.0999
  445DOPE   C4B 5223   6.035  19.234  14.761  0.1555 -0.0723  0.1476
  446DOPE   NH3 5224   3.479  17.327  16.213 -0.0045 -0.1105 -0.0067
  446DOPE   PO4 5225   3.540  17.654  16.294 -0.1010  0.0508  0.0532
  446DOPE   GL1 5226   3.608  17.735  15.921 -0.6908  0.2337 -0.0364
  446DOPE   GL2 5227   3.877  17.870  15.910 -0.1978  0.2690  0.1261
  446DOPE   C1A 5228   3.501  18.007  15.605 -0.1522 -0.4277 -0.0942
  446DOPE   D2A 5229   3.524  18.285  15.202 -0.0215 -0.2944 -0.1316
  446DOPE   C3A 5230   3.411  18.279  14.788  0.0516  0.0102  0.2764
  446DOPE   C4A 5231   3.195  18.086  14.445  0.1062 -0.1284  0.0802
  446DOPE   C1B 5232   3.904  17.682  15.463  0.2475  0.1457  0.0361
  446DOPE   D2B 5233   3.666  17.600  15.068 -0.1250  0.2482 -0.1500
  446DOPE   C3B 5234   3.831  17.452  14.682 -0.0373  0.1799 -0.0770
  446DOPE   C4B 5235   3.568  17.558  14.373  0.1974 -0.2895 -0.0765
  447POSM   NC3 5236   3.246  11.530  15.951 -0.1411  0.2279  0.2120
  447POSM   PO4 5237   3.556  11.314  15.852  0.1476 -0.2476 -0.0676
  447POSM   AM1 5238   3.620  11.512  15.621  0.3195 -0.2296  0.2222
  447POSM   AM2 5239   3.580  11.789  15.522  0.0447  0.1983  0.0329
  447POSM   T1A 5240   3.759  11.506  15.144  0.2670  0.0940  0.1749
  447POSM   C2A 5241   3.647  11.698  14.752  0.1114  0.1859  0.2260
  447POSM   C3A 5242   3.424  12.078  14.707  0.0248 -0.2433  0.0130
  447POSM   C1B 5243   3.594  12.034  15.264 -0.1755 -0.2107 -0.1987
  447POSM   D2B 5244   3.851  12.386  15.098  0.0088 -0.1914  0.2519
  447POSM   C3B 5245   3.565  12.549  14.827 -0.1196  0.3458 -0.0016
  447POSM   C4B 5246   3.597  13.000  14.636 -0.2437  0.4523 -0.1756
  448POSM   NC3 5247   4.466  14.992  15.998  0.0477 -0.3614  0.1231
  448POSM   PO4 5248   4.628  15.263  16.198  0.0897  0.3333  0.1696
  448POSM   AM1 5249   4.538  15.421  15.909 -0.2854  0.1159 -0.0804
  448POSM   AM2 5250   4.307  15.429  15.731  0.4134  0.0121  0.2274
  448POSM   T1A 5251   4.750  15.501  15.491  0.1921  0.0272  0.1328
  448POSM   C2A 5252   5.101  15.759  15.412  0.0620 -0.1461 -0.1283
  448POSM   C3A 5253   5.304  15.929  15.088  0.0013  0.2431  0.4293
  448POSM   C1B 5254   4.273  15.336  15.371  0.0229 -0.5476 -0.2366
  448POSM   D2B 5255   4.252  14.965  15.051  0.1094 -0.1682 -0.1842
  448POSM   C3B 5256   4.549  14.685  14.986 -0.1938  0.1719  0.3000
  448POSM   C4B 5257   4.827  14.343  14.878  0.2985  0.3061  0.4235
  449DOPC   NC3 5258   5.693  18.946  16.407 -0.2639 -0.0448  0.2284
  449DOPC   PO4 5259   5.775  18.596  16.549 -0.0970  0.0744  0.1259
  449DOPC   GL1 5260   5.839  18.147  16.320  0.0044  0.0215  0.0702
  449DOPC   GL2 5261   5.962  18.326  16.101 -0.2298  0.0926  0.1557
  449DOPC   C1A 5262   6.015  17.864  15.957 -0.0691 -0.2097  0.1690
  449DOPC   D2A 5263   6.098  17.771  15.559 -0.0010 -0.0919 -0.1878
  449DOPC   C3A 5264   5.739  17.618  15.248  0.0074  0.2105  0.0592
  449DOPC   C4A 5265   5.501  17.375  14.967 -0.1183  0.0627 -0.1941
  449DOPC   C1B 5266   5.680  18.520  15.786 -0.0367  0.0406  0.0437
  449DOPC   D2B 5267   5.642  18.617  15.361  0.3073  0.0621 -0.0166
  449DOPC   C3B 5268   5.979  18.485  15.098  0.1185 -0.0184  0.0990
  449DOPC   C4B 5269   6.244  18.106  15.064 -0.2154 -0.0530  0.1077
  450DOPC   NC3 5270   3.481  20.662  16.651  0.2225 -0.2065 -0.3053
  450DOPC   PO4 5271   3.393  20.826  16.333  0.1826  0.1786 -0.1772
  450DOPC   GL1 5272   3.175  20.444  16.189  0.2843 -0.3678 -0.1439
  450DOPC   GL2 5273   3.383  20.323  16.120 -0.0713  0.0558 -0.5250
  450DOPC   C1A 5274   2.897  20.383  15.813  0.3072 -0.1967 -0.0637
  450DOPC   D2A 5275   2.922  20.229  15.388 -0.1141 -0.0172 -0.1269
  450DOPC   C3A 5276   3.216  20.024  15.089 -0.0103  0.0947 -0.0336
  450DOPC   C4A 5277   3.561  19.867  14.765 -0.4680 -0.1225 -0.2808
  450DOPC   C1B 5278   3.470  20.261  15.657  0.3536  0.0836  0.3720
  450DOPC   D2B 5279   3.627  20.157  15.272  0.0750  0.2034  0.1085
  450DOPC   C3B 5280   3.937  20.278  14.889  0.3292  0.0462  0.2165
  450DOPC   C4B 5281   4.259  20.467  14.659  0.0195  0.2831  0.0343
  451POSM   NC3 5282   2.472  21.637  16.100 -0.0880 -0.0206  0.0596
  451POSM   PO4 5283   2.608  22.002  16.015  0.2148 -0.0788 -0.1912
  451POSM   AM1 5284   2.563  21.868  15.741  0.2296  0.0246 -0.0617
  451POSM   AM2 5285   2.628  21.640  15.613  0.0923  0.0181  0.1879
  451POSM   T1A 5286   2.233  21.771  15.368  0.0390 -0.4245  0.0518
  451POSM   C2A 5287   1.957  21.624  15.105 -0.2192  0.3323  0.2238
  451POSM   C3A 5288   1.779  21.360  14.772  0.1744  0.0063  0.3449
  451POSM   C1B 5289   2.771  21.592  15.308  0.1635  0.0114 -0.2636
  451POSM   D2B 5290   2.832  21.656  14.835 -0.0168  0.0141  0.3446
  451POSM   C3B 5291   2.820  21.267  14.576 -0.1001 -0.0700 -0.0298
  451POSM   C4B 5292   2.793  20.820  14.480  0.2417  0.0454 -0.0130
  452DOPC   NC3 5293   8.925  14.448  16.069  0.1417 -0.0321 -0.0953
  452DOPC   PO4 5294   8.601  14.390  16.273 -0.0891 -0.0566 -0.3981
  452DOPC   GL1 5295   8.572  14.133  15.900  0.1077 -0.3636  0.1839
  452DOPC   GL2 5296   8.541  14.392  15.734  0.0564  0.0279 -0.0556
  452DOPC   C1A 5297   8.367  13.929  15.512  0.0249  0.3893  0.1611
  452DOPC   D2A 5298   8.544  13.724  15.104 -0.1509  0.0624  0.1634
  452DOPC   C3A 5299   8.275  13.607  14.764  0.2826  0.0722  0.1857
  452DOPC   C4A 5300   8.044  13.722  14.380 -0.0059 -0.1074 -0.0053
  452DOPC   C1B 5301   8.545  14.624  15.319  0.0502  0.0485  0.0687
  452DOPC   D2B 5302   8.812  14.819  14.985  0.2042 -0.0022  0.2068
  452DOPC   C3B 5303   8.508  14.936  14.664 -0.1674  0.1965 -0.2093
  452DOPC   C4B 5304   8.096  15.025  14.800 -0.1985  0.0309 -0.2669
  453POSM   NC3 5305   0.395  19.702  16.476 -0.0217 -0.2046 -0.3382
  453POSM   PO4 5306   0.038  19.838  16.455  0.0646 -0.0241 -0.0253
  453POSM   AM1 5307   0.112  19.860  16.121  0.2033  0.0037 -0.1148
  453POSM   AM2 5308   0.076  20.087  15.995 -0.5203 -0.1307 -0.1004
  453POSM   T1A 5309   0.089  19.534  15.734 -0.0349 -0.0503  0.2332
  453POSM   C2A 5310   0.014  19.351  15.330  0.0021 -0.0475  0.1805
  453POSM   C3A 5311   0.124  19.244  14.899 -0.0474 -0.1654 -0.0216
  453POSM   C1B 5312  -0.026  20.012  15.703  0.3713 -0.2560 -0.1782
  453POSM   D2B 5313   0.058  20.097  15.284  0.1548  0.0151 -0.1524
  453POSM   C3B 5314   0.236  19.707  15.097  0.0377  0.1701 -0.1801
  453POSM   C4B 5315   0.552  19.431  15.037  0.1012  0.1614 -0.3261
  454DOPC   NC3 5316   2.255  16.327  16.282  0.0205 -0.2328  0.2357
  454DOPC   PO4 5317   2.658  16.297  16.135 -0.2644  0.0599  0.0586
  454DOPC   GL1 5318   2.647  16.285  15.761  0.2216  0.0376  0.0321
  454DOPC   GL2 5319   2.348  16.326  15.751 -0.2046 -0.0741  0.0377
  454DOPC   C1A 5320   2.691  16.744  15.628  0.1691  0.2323  0.0222
  454DOPC   D2A 5321   2.702  17.092  15.369 -0.0813 -0.1634  0.0443
  454DOPC   C3A 5322   2.939  17.137  14.995 -0.0067  0.1423  0.4967
  454DOPC   C4A 5323   3.070  16.780  14.764 -0.0760 -0.3540  0.0768
  454DOPC   C1B 5324   2.387  16.479  15.324 -0.1853  0.1311 -0.0038
  454DOPC   D2B 5325   2.269  16.504  14.830 -0.2133  0.2653  0.1304
  454DOPC   C3B 5326   2.419  16.219  14.465 -0.2269 -0.1302 -0.2543
  454DOPC   C4B 5327   2.237  15.929  14.138 -0.0558  0.1279 -0.1291
  455POSM   NC3 5328   1.639  22.299  16.201 -0.0491  0.0308 -0.0943
  455POSM   PO4 5329   1.601  22.690  16.113 -0.0904 -0.1530 -0.1430
  455POSM   AM1 5330   1.453  22.551  15.861 -0.1322  0.0736  0.0918
  455POSM   AM2 5331   1.547  22.452  15.626  0.0392 -0.0989 -0.1881
  455POSM   T1A 5332   1.038  22.693  15.576  0.2852  0.1597 -0.0612
  455POSM   C2A 5333   0.719  22.798  15.211  0.1116 -0.0261  0.3543
  455POSM   C3A 5334   0.599  23.087  14.857 -0.3034  0.0164 -0.2018
  455POSM   C1B 5335   1.424  22.436  15.339 -0.2714  0.0384  0.0685
  455POSM   D2B 5336   1.174  22.449  14.963  0.1161  0.3024  0.0022
  455POSM   C3B 5337   1.488  22.207  14.730 -0.1673  0.0349 -0.3561
  455POSM   C4B 5338   1.642  22.235  14.314  0.1986  0.3715 -0.2342
  456DOPE   NH3 5339   3.179  17.989  16.431 -0.0856  0.0175 -0.0690
  456DOPE   PO4 5340   3.466  18.124  16.508  0.1798  0.0135 -0.2777
  456DOPE   GL1 5341   3.504  18.113  16.106 -0.1940  0.2054 -0.1448
  456DOPE   GL2 5342   3.237  18.202  16.010  0.0009 -0.0398 -0.1037
  456DOPE   C1A 5343   3.729  18.468  15.811  0.0849  0.0449 -0.1313
  456DOPE   D2A 5344   3.837  18.668  15.418  0.0210 -0.1635  0.2961
  456DOPE   C3A 5345   4.079  18.737  14.994 -0.1798  0.0845 -0.0358
  456DOPE   C4A 5346   4.377  18.604  14.658  0.2904  0.0301  0.1959
  456DOPE   C1B 5347   3.246  18.444  15.606  0.3126 -0.1744  0.1734
  456DOPE   D2B 5348   3.377  18.828  15.386  0.0779 -0.0907  0.0607
  456DOPE   C3B 5349   3.584  18.699  14.957 -0.3168 -0.2046 -0.0981
  456DOPE   C4B 5350   3.810  18.813  14.587  0.1381  0.0147 -0.3918
  457DOPC   NC3 5351  10.721  13.587  15.941 -0.1350  0.0846 -0.0410
  457DOPC   PO4 5352  10.497  13.874  15.786  0.0699  0.0624 -0.0137
  457DOPC   GL1 5353  10.282  13.945  15.474 -0.0075 -0.0533 -0.2628
  457DOPC   GL2 5354  10.402  14.084  15.201  0.2463  0.2879  0.1054
  457DOPC   C1A 5355   9.850  13.799  15.570 -0.0259 -0.0757  0.0319
  457DOPC   D2A 5356   9.547  13.614  15.306  0.1989  0.1768 -0.1937
  457DOPC   C3A 5357   9.601  13.561  14.879  0.2000 -0.1867  0.0781
  457DOPC   C4A 5358   9.447  13.681  14.466 -0.1309 -0.0535  0.3267
  457DOPC   C1B 5359  10.285  14.009  14.759 -0.0548  0.1047 -0.1367
  457DOPC   D2B 5360  10.217  14.020  14.265  0.2249  0.0394  0.0203
  457DOPC   C3B 5361  10.011  14.318  13.988 -0.1369  0.2005  0.0078
  457DOPC   C4B 5362  10.105  14.342  13.526  0.1166  0.2101 -0.0412
  458DOPC   NC3 5363   6.418  12.412  16.005 -0.0023 -0.2274 -0.2765
  458DOPC   PO4 5364   6.204  12.726  16.101 -0.0428  0.1407  0.2240
  458DOPC   GL1 5365   6.141  12.662  15.674 -0.1456  0.3108  0.1827
  458DOPC   GL2 5366   6.390  12.521  15.471  0.0618  0.1065  0.2061
  458DOPC   C1A 5367   6.190  13.016  15.385 -0.0127  0.1236 -0.4733
  458DOPC   D2A 5368   6.256  13.455  15.358 -0.2558  0.0092 -0.1444
  458DOPC   C3A 5369   6.358  13.405  14.946  0.0009  0.1717  0.0254
  458DOPC   C4A 5370   6.232  13.306  14.528 -0.0620 -0.2225 -0.2822
  458DOPC   C1B 5371   6.355  12.233  15.114  0.1022  0.0334 -0.0010
  458DOPC   D2B 5372   6.157  11.914  14.861  0.0409 -0.2611  0.2950
  458DOPC   C3B 5373   6.031  12.070  14.421  0.1522  0.0724  0.2414
  458DOPC   C4B 5374   6.008  12.300  14.034 -0.1044 -0.2524 -0.4475
  459DOPC   NC3 5375   4.199  16.949  16.376 -0.1731  0.0320  0.2043
  459DOPC   PO4 5376   3.797  16.913  16.368  0.3519 -0.2642 -0.1851
  459DOPC   GL1 5377   3.832  16.836  16.011 -0.2634  0.0837  0.0393
  459DOPC   GL2 5378   3.816  16.625  15.822 -0.0543  0.1753  0.0855
  459DOPC   C1A 5379   4.187  16.920  15.716  0.2182  0.0668 -0.2518
  459DOPC   D2A 5380   4.577  16.984  15.653  0.0426 -0.2997  0.0321
  459DOPC   C3A 5381   4.588  17.100  15.248 -0.0854 -0.0195  0.1605
  459DOPC   C4A 5382   4.389  17.230  14.800 -0.2296  0.1320  0.0684
  459DOPC   C1B 5383   3.843  16.736  15.404 -0.2631 -0.0403  0.0538
  459DOPC   D2B 5384   3.776  16.499  15.057  0.1039  0.1198 -0.0943
  459DOPC   C3B 5385   4.009  16.377  14.633  0.1566  0.3428 -0.1486
  459DOPC   C4B 5386   4.038  16.341  14.194 -0.3526 -0.1743 -0.3641
  460DOPC   NC3 5387  10.170  20.910  15.562  0.1957 -0.5028 -0.0047
  460DOPC   PO4 5388   9.884  20.937  15.840  0.0003  0.3209 -0.0957
  460DOPC   GL1 5389   9.778  20.732  15.488 -0.3641  0.1697  0.3991
  460DOPC   GL2 5390   9.850  20.509  15.483 -0.0119  0.1485 -0.1858
  460DOPC   C1A 5391  10.032  20.763  15.093  0.0708  0.4176  0.1125
  460DOPC   D2A 5392   9.887  20.806  14.625 -0.0316 -0.0913 -0.0284
  460DOPC   C3A 5393   9.422  20.848  14.518 -0.0251  0.2338 -0.1161
  460DOPC   C4A 5394   9.150  20.758  14.242  0.2904  0.0569  0.1245
  460DOPC   C1B 5395   9.850  20.175  15.179 -0.1748 -0.2456 -0.2600
  460DOPC   D2B 5396   9.796  19.877  14.811  0.2657 -0.3687 -0.1545
  460DOPC   C3B 5397   9.462  19.577  14.998  0.1974  0.1806  0.1043
  460DOPC   C4B 5398   9.281  19.133  15.152 -0.2007 -0.5246  0.1268
  461DOPS   CNO 5399   5.742  17.340  16.668 -0.3337 -0.0356 -0.1279
  461DOPS   PO4 5400   6.096  17.252  16.522  0.1547  0.0425 -0.0146
  461DOPS   GL1 5401   6.071  17.241  16.108  0.1739 -0.0310  0.3618
  461DOPS   GL2 5402   5.912  17.358  15.961  0.4612 -0.0566  0.0337
  461DOPS   C1A 5403   6.134  17.019  15.698 -0.0100 -0.1168 -0.0049
  461DOPS   D2A 5404   6.574  16.893  15.608 -0.2051  0.0882  0.0625
  461DOPS   C3A 5405   6.636  17.012  15.152  0.3738 -0.3041  0.3985
  461DOPS   C4A 5406   6.351  16.923  14.769  0.0245 -0.0622 -0.0844
  461DOPS   C1B 5407   6.346  17.435  15.866 -0.1189  0.1585 -0.0758
  461DOPS   D2B 5408   6.673  17.393  15.572 -0.0644  0.1649 -0.0685
  461DOPS   C3B 5409   6.564  17.641  15.132 -0.0952 -0.3266  0.1862
  461DOPS   C4B 5410   6.695  17.752  14.705  0.1996  0.0053  0.2288
  462DOPC   NC3 5411   6.921  15.634  16.415 -0.1095 -0.0123  0.0917
  462DOPC   PO4 5412   6.628  15.854  16.560  0.1694 -0.0897 -0.5529
  462DOPC   GL1 5413   6.657  16.039  16.253 -0.1259 -0.0605  0.4685
  462DOPC   GL2 5414   6.343  16.053  16.151 -0.2343  0.0858  0.0465
  462DOPC   C1A 5415   7.007  15.966  15.998 -0.1486  0.1253  0.2228
  462DOPC   D2A 5416   7.514  15.950  15.965  0.2087 -0.0814  0.3672
  462DOPC   C3A 5417   7.774  16.014  15.610 -0.1523  0.0415 -0.1137
  462DOPC   C4A 5418   7.975  16.017  15.167 -0.1356 -0.0974 -0.3114
  462DOPC   C1B 5419   6.578  16.200  15.778 -0.1196 -0.2115  0.1514
  462DOPC   D2B 5420   6.840  16.449  15.447 -0.1555 -0.0412  0.1148
  462DOPC   C3B 5421   6.770  16.369  15.007 -0.4129 -0.0287 -0.0630
  462DOPC   C4B 5422   6.823  16.709  14.664  0.0798 -0.0363  0.2251
  463DOPS   CNO 5423   7.971  20.563  16.150 -0.0614  0.4006  0.0385
  463DOPS   PO4 5424   7.841  20.260  15.977  0.3020 -0.4060  0.4298
  463DOPS   GL1 5425   7.770  20.240  15.617  0.0943 -0.0951 -0.0116
  463DOPS   GL2 5426   7.455  20.352  15.622 -0.0002  0.0470 -0.0040
  463DOPS   C1A 5427   7.716  20.212  15.147  0.0958 -0.1220 -0.0991
  463DOPS   D2A 5428   7.313  20.122  14.903  0.0472 -0.0445 -0.2658
  463DOPS   C3A 5429   7.445  19.805  14.547 -0.0715  0.0422  0.0552
  463DOPS   C4A 5430   7.464  19.694  14.104  0.0108  0.0691  0.0134
  463DOPS   C1B 5431   7.339  20.544  15.220 -0.0094  0.3553  0.0812
  463DOPS   D2B 5432   7.192  20.638  14.863  0.0605 -0.1750  0.0648
  463DOPS   C3B 5433   6.959  20.273  14.691  0.2697  0.0114 -0.1212
  463DOPS   C4B 5434   6.854  19.909  14.997 -0.0572 -0.2091 -0.0546
  464POSM   NC3 5435  12.312  11.903  15.535  0.1290  0.2704  0.1038
  464POSM   PO4 5436  12.198  12.262  15.569 -0.2219  0.0235  0.1351
  464POSM   AM1 5437  12.091  12.204  15.234 -0.0132  0.1962 -0.2359
  464POSM   AM2 5438  11.919  12.246  15.009  0.0627 -0.1177  0.0817
  464POSM   T1A 5439  12.307  12.084  14.750 -0.2846 -0.2969  0.0913
  464POSM   C2A 5440  12.343  12.034  14.332  0.1702 -0.2216 -0.3210
  464POSM   C3A 5441  12.234  12.216  13.935 -0.2030  0.1430  0.1167
  464POSM   C1B 5442  11.658  12.158  14.802  0.2958 -0.4800  0.0093
  464POSM   D2B 5443  11.204  12.102  14.593 -0.1504  0.1351 -0.4835
  464POSM   C3B 5444  10.994  12.384  14.948  0.2951 -0.2578  0.2499
  464POSM   C4B 5445  10.531  12.442  15.017  0.2621 -0.0514 -0.0524
  465DOPS   CNO 5446   4.662  16.723  16.076  0.1182  0.1316 -0.1600
  465DOPS   PO4 5447   4.689  16.352  16.151 -0.2874  0.1502 -0.2703
  465DOPS   GL1 5448   4.518  16.221  15.764 -0.2731  0.0541  0.2841
  465DOPS   GL2 5449   4.682  16.384  15.641  0.0031  0.0105 -0.0921
  465DOPS   C1A 5450   4.187  16.440  15.506 -0.0041  0.2271  0.3599
  465DOPS   D2A 5451   4.245  16.742  15.106 -0.2316  0.4506 -0.0888
  465DOPS   C3A 5452   3.925  16.964  14.869  0.2501 -0.0172  0.0668
  465DOPS   C4A 5453   3.468  16.965  14.940 -0.3754 -0.2376  0.0846
  465DOPS   C1B 5454   4.698  16.576  15.231 -0.2405 -0.0926  0.0564
  465DOPS   D2B 5455   4.738  16.602  14.755 -0.1646  0.0011  0.1194
  465DOPS   C3B 5456   4.310  16.747  14.616 -0.1008 -0.2034  0.0261
  465DOPS   C4B 5457   4.098  17.109  14.410 -0.2496  0.3521 -0.1050
  466DOPS   CNO 5458   1.217  14.799  15.481  0.0452  0.0127 -0.0912
  466DOPS   PO4 5459   0.937  14.493  15.437 -0.0037  0.0203  0.2061
  466DOPS   GL1 5460   0.848  14.552  15.009 -0.1642 -0.2306  0.1375
  466DOPS   GL2 5461   0.650  14.731  15.116  0.1922  0.0037 -0.1450
  466DOPS   C1A 5462   0.450  14.368  14.804 -0.0589 -0.0990  0.1799
  466DOPS   D2A 5463   0.203  14.356  14.414  0.3605  0.0386 -0.3145
  466DOPS   C3A 5464   0.180  14.134  14.033  0.0475  0.1479 -0.0006
  466DOPS   C4A 5465  -0.131  13.928  13.699 -0.1949 -0.1985 -0.0102
  466DOPS   C1B 5466   0.577  14.778  14.639 -0.0201 -0.0378  0.0844
  466DOPS   D2B 5467   0.436  14.675  14.151 -0.0537  0.2537 -0.2597
  466DOPS   C3B 5468   0.666  14.847  13.762 -0.0381  0.1259 -0.1563
  466DOPS   C4B 5469   0.472  14.879  13.344  0.1716 -0.3730  0.2233
  467DOPE   NH3 5470   3.834  15.666  16.313 -0.1305 -0.0811  0.1026
  467DOPE   PO4 5471   3.832  15.995  16.202  0.3257  0.0262 -0.1686
  467DOPE   GL1 5472   3.545  15.804  15.973 -0.2945  0.1993 -0.1033
  467DOPE   GL2 5473   3.531  16.073  15.830 -0.0281 -0.2073 -0.0926
  467DOPE   C1A 5474   3.295  15.720  15.600  0.3695 -0.2314  0.0278
  467DOPE   D2A 5475   2.971  15.613  15.283 -0.0890 -0.1432 -0.2378
  467DOPE   C3A 5476   2.960  15.931  14.921  0.1055 -0.1399  0.1513
  467DOPE   C4A 5477   2.785  16.351  14.785 -0.0221  0.1519 -0.0990
  467DOPE   C1B 5478   3.254  16.252  15.524  0.0747 -0.2490  0.2480
  467DOPE   D2B 5479   2.801  16.240  15.306  0.1787 -0.1273 -0.0331
  467DOPE   C3B 5480   2.548  15.919  15.485  0.3681 -0.2177  0.1301
  467DOPE   C4B 5481   2.263  15.604  15.625 -0.0073 -0.1436 -0.0313
  468DOPE   NH3 5482   8.418  12.456  16.036  0.1698 -0.0970  0.3009
  468DOPE   PO4 5483   8.700  12.589  16.179 -0.0654 -0.0681  0.0175
  468DOPE   GL1 5484   8.880  12.578  15.813 -0.0822  0.0705 -0.3175
  468DOPE   GL2 5485   9.069  12.738  15.798 -0.1603  0.0841 -0.3058
  468DOPE   C1A 5486   8.719  12.784  15.421  0.2979  0.2140 -0.0103
  468DOPE   D2A 5487   8.524  12.885  14.996  0.4203 -0.4163  0.0829
  468DOPE   C3A 5488   8.682  13.077  14.539 -0.0015  0.0054 -0.1718
  468DOPE   C4A 5489   9.075  13.381  14.349  0.2531 -0.0117 -0.1301
  468DOPE   C1B 5490   8.975  13.180  15.559  0.1301  0.0626 -0.0041
  468DOPE   D2B 5491   9.040  13.586  15.400 -0.0121 -0.1926 -0.1203
  468DOPE   C3B 5492   9.119  13.767  14.998  0.2734 -0.5865  0.0970
  468DOPE   C4B 5493   9.410  14.051  14.759  0.0182  0.1352  0.4404
  469DOPE   NH3 5494   7.117  21.663  15.842 -0.0482 -0.0741  0.0259
  469DOPE   PO4 5495   7.396  21.770  15.955  0.0880  0.1025  0.0182
  469DOPE   GL1 5496   7.605  21.708  15.654  0.2563  0.2086 -0.0066
  469DOPE   GL2 5497   7.517  21.984  15.502 -0.2194  0.3688 -0.0535
  469DOPE   C1A 5498   7.470  21.537  15.286  0.2173 -0.4282  0.4261
  469DOPE   D2A 5499   7.637  21.750  14.925 -0.2854 -0.1725  0.1248
  469DOPE   C3A 5500   7.511  21.777  14.460 -0.2914  0.1070  0.1908
  469DOPE   C4A 5501   7.725  21.582  14.103 -0.1731  0.1347 -0.0052
  469DOPE   C1B 5502   7.258  22.034  15.108  0.2102  0.0411  0.3907
  469DOPE   D2B 5503   7.152  22.132  14.684  0.2876 -0.2362 -0.1508
  469DOPE   C3B 5504   6.996  21.870  14.348  0.2239 -0.0899  0.1082
  469DOPE   C4B 5505   6.507  21.921  14.324 -0.0053  0.2186  0.0216
  470DOPC   NC3 5506   3.872  19.459  16.667 -0.2116 -0.0457 -0.0375
  470DOPC   PO4 5507   4.199  19.215  16.558  0.1090 -0.0322  0.1035
  470DOPC   GL1 5508   4.270  19.173  16.160 -0.0075  0.1928 -0.1182
  470DOPC   GL2 5509   4.325  19.394  15.965  0.0543 -0.0370  0.2422
  470DOPC   C1A 5510   4.090  18.847  15.816  0.1055 -0.1986  0.2929
  470DOPC   D2A 5511   4.213  18.413  15.758 -0.0175  0.2150  0.0063
  470DOPC   C3A 5512   3.994  18.235  15.388  0.1304  0.1599  0.0953
  470DOPC   C4A 5513   4.054  17.891  15.081 -0.1051 -0.0322  0.1195
  470DOPC   C1B 5514   4.401  19.162  15.552  0.1686 -0.0432  0.1602
  470DOPC   D2B 5515   4.422  19.167  15.089  0.0981  0.0033 -0.0517
  470DOPC   C3B 5516   4.713  18.825  14.926 -0.2358 -0.0740  0.2336
  470DOPC   C4B 5517   5.130  18.696  14.934 -0.1272  0.1887 -0.1794
  471DOPC   NC3 5518  10.652  16.376  15.355  0.0178 -0.1079 -0.1442
  471DOPC   PO4 5519  10.910  16.058  15.336  0.1026  0.1200  0.1120
  471DOPC   GL1 5520  11.163  15.832  15.227  0.1565 -0.1344  0.0505
  471DOPC   GL2 5521  11.403  15.764  15.349 -0.2274  0.0075  0.0500
  471DOPC   C1A 5522  11.262  15.699  14.780 -0.1984 -0.0518  0.4226
  471DOPC   D2A 5523  11.471  15.342  14.540  0.2248  0.0722  0.1160
  471DOPC   C3A 5524  11.358  15.092  14.166  0.2873  0.0892 -0.0142
  471DOPC   C4A 5525  11.229  15.130  13.710 -0.0020 -0.3195 -0.1995
  471DOPC   C1B 5526  11.589  15.448  15.044 -0.0012  0.0991  0.6865
  471DOPC   D2B 5527  12.025  15.475  14.866 -0.4438 -0.1039  0.2306
  471DOPC   C3B 5528  12.338  15.444  14.508  0.2217 -0.0227  0.0676
  471DOPC   C4B 5529  12.628  15.665  14.168  0.3940  0.0838  0.0163
  472POSM   NC3 5530   3.017  16.656  16.418  0.0496 -0.1039  0.0461
  472POSM   PO4 5531   3.329  16.845  16.223  0.2881  0.2050 -0.0520
  472POSM   AM1 5532   3.428  16.942  15.960 -0.2183 -0.2825 -0.1252
  472POSM   AM2 5533   3.333  16.898  15.689  0.0319 -0.0231  0.0966
  472POSM   T1A 5534   3.720  17.234  15.723 -0.1388  0.1146  0.5483
  472POSM   C2A 5535   4.228  17.454  15.707  0.2869  0.1623  0.2089
  472POSM   C3A 5536   4.322  17.928  15.677 -0.0268  0.0277 -0.0004
  472POSM   C1B 5537   3.352  16.704  15.362 -0.0353 -0.1215 -0.2026
  472POSM   D2B 5538   3.178  16.432  15.060 -0.3527  0.0481  0.4361
  472POSM   C3B 5539   3.445  16.466  14.647  0.1308  0.1826  0.3554
  472POSM   C4B 5540   3.766  16.728  14.394  0.0421  0.0219  0.1951
  473POSM   NC3 5541   1.699  21.767  16.249  0.2303  0.0073 -0.1887
  473POSM   PO4 5542   2.061  21.971  16.229 -0.0664 -0.1028  0.1229
  473POSM   AM1 5543   2.072  21.790  15.923  0.1666  0.1107 -0.2012
  473POSM   AM2 5544   1.857  21.721  15.755 -0.1241 -0.0188 -0.1345
  473POSM   T1A 5545   2.176  21.368  15.697  0.3142  0.0533 -0.1656
  473POSM   C2A 5546   2.158  20.893  15.655 -0.0898  0.0142 -0.2958
  473POSM   C3A 5547   1.855  20.576  15.476  0.1487 -0.0493 -0.0096
  473POSM   C1B 5548   1.692  21.771  15.522 -0.1359  0.0042  0.0928
  473POSM   D2B 5549   1.448  21.951  15.151  0.2188  0.3401 -0.3705
  473POSM   C3B 5550   1.389  21.659  14.743  0.1329  0.0151 -0.1703
  473POSM   C4B 5551   1.233  21.179  14.718 -0.3731  0.4332 -0.0668
  474DOPE   NH3 5552   2.432  14.134  16.004 -0.0895 -0.0316 -0.0183
  474DOPE   PO4 5553   2.434  14.453  16.086 -0.4420 -0.0305  0.1683
  474DOPE   GL1 5554   2.559  14.627  15.764  0.1856  0.2218  0.1841
  474DOPE   GL2 5555   2.576  14.960  15.888  0.0558  0.1781 -0.1063
  474DOPE   C1A 5556   2.425  14.724  15.355 -0.0033  0.2205 -0.0221
  474DOPE   D2A 5557   2.518  14.935  14.942  0.0282 -0.0967  0.0013
  474DOPE   C3A 5558   2.915  14.879  14.732 -0.2743 -0.0268 -0.1145
  474DOPE   C4A 5559   3.332  14.872  14.605 -0.2641 -0.0051 -0.1150
  474DOPE   C1B 5560   2.577  15.192  15.508  0.0436 -0.1931 -0.0026
  474DOPE   D2B 5561   2.525  15.486  15.192  0.0788  0.1807 -0.3816
  474DOPE   C3B 5562   2.786  15.345  14.818 -0.0495  0.0480  0.0728
  474DOPE   C4B 5563   2.880  15.332  14.358  0.1668  0.3443 -0.0451
  475DOPE   NH3 5564   1.056  15.126  15.797 -0.0819 -0.0360  0.0986
  475DOPE   PO4 5565   1.109  15.107  16.145  0.3344  0.3469 -0.0932
  475DOPE   GL1 5566   1.515  15.227  15.949 -0.3055  0.2478 -0.0360
  475DOPE   GL2 5567   1.772  15.175  15.865 -0.0441  0.2105 -0.0127
  475DOPE   C1A 5568   1.684  15.594  15.685  0.1188 -0.0320  0.1860
  475DOPE   D2A 5569   1.742  15.990  15.450  0.0618  0.3489  0.0256
  475DOPE   C3A 5570   2.059  16.105  15.152 -0.0156 -0.1377 -0.1368
  475DOPE   C4A 5571   2.435  15.947  14.939  0.3649  0.0767  0.2856
  475DOPE   C1B 5572   1.560  15.191  15.443 -0.1562  0.1435 -0.2166
  475DOPE   D2B 5573   1.701  14.979  15.077  0.2680 -0.1284 -0.2857
  475DOPE   C3B 5574   1.686  15.117  14.654 -0.1049 -0.2906  0.0152
  475DOPE   C4B 5575   1.691  15.500  14.439 -0.3687 -0.0772  0.2341
  476DOPE   NH3 5576   5.070  23.105  16.118 -0.1310 -0.2399  0.2711
  476DOPE   PO4 5577   5.124  23.142  15.794  0.2877  0.0031  0.1481
  476DOPE   GL1 5578   5.196  23.363  15.491  0.0318 -0.0519  0.1135
  476DOPE   GL2 5579   5.255  23.656  15.543 -0.4064  0.2750 -0.2268
  476DOPE   C1A 5580   5.332  23.510  15.041  0.0785 -0.0277 -0.0048
  476DOPE   D2A 5581   5.384  23.638  14.601  0.1791 -0.2657 -0.0381
  476DOPE   C3A 5582   5.359  24.009  14.374 -0.1625  0.1274 -0.1037
  476DOPE   C4A 5583   5.203  24.465  14.346  0.2917  0.3121  0.0029
  476DOPE   C1B 5584   5.209  23.991  15.222 -0.0183  0.1717 -0.1108
  476DOPE   D2B 5585   5.107  24.117  14.768  0.0504  0.3013 -0.1698
  476DOPE   C3B 5586   4.863  23.869  14.500 -0.1317  0.0594  0.1842
  476DOPE   C4B 5587   4.823  23.913  14.039  0.0065  0.0682 -0.0885
  477DOPC   NC3 5588   0.577  12.910  15.832  0.0040  0.2772  0.0068
  477DOPC   PO4 5589   0.273  13.172  15.733 -0.0469 -0.2530  0.1312
  477DOPC   GL1 5590   0.280  13.175  15.339  0.1366 -0.0220 -0.1705
  477DOPC   GL2 5591   0.317  12.968  15.161 -0.2561 -0.0359 -0.4744
  477DOPC   C1A 5592  -0.045  13.246  15.009  0.3215  0.4698 -0.1792
  477DOPC   D2A 5593  -0.121  13.414  14.605  0.0462 -0.1666  0.0356
  477DOPC   C3A 5594  -0.376  13.294  14.199  0.0118  0.1423  0.4696
  477DOPC   C4A 5595  -0.586  12.975  13.881  0.4653 -0.0159 -0.0789
  477DOPC   C1B 5596   0.147  12.830  14.770  0.0375 -0.2241  0.0700
  477DOPC   D2B 5597   0.265  12.591  14.432  0.2531  0.1826 -0.1585
  477DOPC   C3B 5598   0.300  12.761  13.999 -0.0727  0.2338 -0.0047
  477DOPC   C4B 5599   0.690  12.801  13.794  0.0182 -0.1842 -0.0437
  478DOPC   NC3 5600   0.531  16.133  15.872  0.1938 -0.0865  0.0289
  478DOPC   PO4 5601   0.804  16.369  15.951  0.1873 -0.0709 -0.2512
  478DOPC   GL1 5602   0.698  16.754  15.863  0.1688 -0.1639  0.0213
  478DOPC   GL2 5603   0.831  16.969  15.945 -0.2221 -0.2658  0.0594
  478DOPC   C1A 5604   0.562  17.087  15.505 -0.1970 -0.0790  0.1513
  478DOPC   D2A 5605   0.360  17.507  15.407  0.1387  0.0940  0.0503
  478DOPC   C3A 5606   0.255  17.695  15.022 -0.0854 -0.0309  0.2063
  478DOPC   C4A 5607   0.037  17.922  14.681  0.4389  0.1473  0.1141
  478DOPC   C1B 5608   1.004  17.222  15.585  0.3539 -0.0960 -0.2497
  478DOPC   D2B 5609   0.913  17.627  15.350 -0.1273 -0.4058  0.1960
  478DOPC   C3B 5610   1.069  17.657  14.880 -0.0994  0.4556 -0.1082
  478DOPC   C4B 5611   1.275  17.938  14.621  0.2011  0.1128  0.1866
  479POSM   NC3 5612   4.585  13.171  16.243  0.2123 -0.1697  0.2705
  479POSM   PO4 5613   4.699  13.532  16.365 -0.4342  0.1402 -0.1864
  479POSM   AM1 5614   4.757  13.733  16.141  0.1284 -0.1189  0.2835
  479POSM   AM2 5615   4.918  13.867  15.975  0.0656  0.3347  0.0776
  479POSM   T1A 5616   4.531  13.938  15.759  0.0078  0.3342 -0.2830
  479POSM   C2A 5617   4.122  14.128  15.700  0.1181  0.1723 -0.3161
  479POSM   C3A 5618   3.840  14.258  15.331 -0.0012 -0.1785 -0.2043
  479POSM   C1B 5619   5.076  13.962  15.659 -0.1309  0.1292  0.1379
  479POSM   D2B 5620   5.198  14.267  15.331  0.0106 -0.2327  0.0319
  479POSM   C3B 5621   4.941  14.640  15.324  0.0799  0.1207  0.1451
  479POSM   C4B 5622   4.553  14.880  15.513 -0.0496 -0.2469 -0.2374
  480DOPC   NC3 5623   2.266  22.948  16.653  0.1438  0.0530 -0.1229
  480DOPC   PO4 5624   2.514  22.847  16.379  0.0581  0.2104 -0.0431
  480DOPC   GL1 5625   2.420  22.775  16.005  0.0719  0.2448  0.4401
  480DOPC   GL2 5626   2.726  22.709  15.903  0.2768 -0.2720 -0.1598
  480DOPC   C1A 5627   2.508  23.100  15.682  0.1626 -0.0346 -0.3846
  480DOPC   D2A 5628   2.525  23.337  15.277  0.2084  0.0030  0.4083
  480DOPC   C3A 5629   2.667  23.708  15.017 -0.4246  0.1493 -0.2172
  480DOPC   C4A 5630   2.780  23.915  14.564 -0.1565  0.0624  0.1661
  480DOPC   C1B 5631   2.517  22.402  15.586  0.0988 -0.0840 -0.0628
  480DOPC   D2B 5632   2.649  22.069  15.305 -0.1426  0.1132  0.0059
  480DOPC   C3B 5633   3.076  21.956  15.156 -0.0740  0.1559  0.2731
  480DOPC   C4B 5634   3.396  21.909  14.842  0.1260  0.2296  0.1484
  481DOPE   NH3 5635   7.932  13.641  16.283  0.2249  0.0455 -0.0880
  481DOPE   PO4 5636   7.872  13.453  16.078  0.0086 -0.1439  0.2310
  481DOPE   GL1 5637   7.911  13.681  15.793  0.3429 -0.0200  0.1682
  481DOPE   GL2 5638   7.875  13.933  15.901  0.0707 -0.1858  0.2957
  481DOPE   C1A 5639   8.054  13.616  15.290  0.0459 -0.2594  0.0440
  481DOPE   D2A 5640   8.164  13.231  15.124 -0.0074 -0.0745 -0.0594
  481DOPE   C3A 5641   8.145  13.083  14.631 -0.0754 -0.3018  0.0524
  481DOPE   C4A 5642   8.251  13.183  14.189 -0.0961 -0.0975 -0.2393
  481DOPE   C1B 5643   7.835  14.042  15.498 -0.2578  0.2166  0.0350
  481DOPE   D2B 5644   8.056  14.082  15.133  0.0147 -0.0686  0.1375
  481DOPE   C3B 5645   7.838  13.760  14.893 -0.0727  0.1299 -0.0521
  481DOPE   C4B 5646   7.769  13.356  14.708 -0.1514 -0.0080 -0.2386
  482DOPC   NC3 5647   3.201  18.488  16.651  0.0908  0.2688 -0.0823
  482DOPC   PO4 5648   2.935  18.471  16.370 -0.0530  0.3948 -0.0550
  482DOPC   GL1 5649   2.880  18.637  16.024 -0.2828  0.0898  0.0161
  482DOPC   GL2 5650   2.834  18.847  15.871  0.3762 -0.1608  0.1530
  482DOPC   C1A 5651   2.777  18.277  15.689 -0.1785  0.1647 -0.0018
  482DOPC   D2A 5652   2.648  18.183  15.295  0.1545  0.1263  0.0398
  482DOPC   C3A 5653   2.532  18.516  14.984  0.0178  0.1566 -0.0381
  482DOPC   C4A 5654   2.347  18.959  15.075 -0.0877  0.1840  0.1059
  482DOPC   C1B 5655   3.284  18.877  15.867 -0.3184  0.1867  0.3321
  482DOPC   D2B 5656   3.654  19.118  15.730  0.0159 -0.0073  0.3312
  482DOPC   C3B 5657   3.924  19.224  15.409  0.2264 -0.1992 -0.1559
  482DOPC   C4B 5658   3.839  19.206  14.933 -0.2176  0.3397  0.0462
  483DOPE   NH3 5659   0.078  20.361  16.445  0.2563 -0.0411  0.2932
  483DOPE   PO4 5660   0.262  20.604  16.419 -0.1843 -0.1685  0.0082
  483DOPE   GL1 5661   0.428  20.617  16.045  0.1031  0.0127 -0.1162
  483DOPE   GL2 5662   0.398  20.773  15.770  0.3571  0.1419  0.2715
  483DOPE   C1A 5663   0.465  20.328  15.692 -0.3717  0.4319 -0.0141
  483DOPE   D2A 5664   0.491  20.329  15.215 -0.1266 -0.1232  0.1875
  483DOPE   C3A 5665   0.764  19.984  15.025  0.1559 -0.1838  0.1930
  483DOPE   C4A 5666   0.959  19.681  14.774  0.1063  0.1755  0.0095
  483DOPE   C1B 5667   0.492  21.195  15.695  0.0408  0.2435 -0.0727
  483DOPE   D2B 5668   0.322  21.389  15.326 -0.2292  0.1006 -0.2292
  483DOPE   C3B 5669   0.300  21.374  14.852  0.2480  0.0498 -0.0160
  483DOPE   C4B 5670   0.218  20.933  14.657 -0.0126 -0.1199  0.3803
  484DOPE   NH3 5671   9.371  12.587  16.163 -0.1776  0.1821 -0.1826
  484DOPE   PO4 5672   9.431  12.884  16.077  0.0107 -0.3584 -0.2841
  484DOPE   GL1 5673   9.486  12.760  15.713 -0.4809  0.1665  0.1932
  484DOPE   GL2 5674   9.557  12.425  15.758 -0.2036 -0.0461 -0.3148
  484DOPE   C1A 5675   9.310  12.800  15.324  0.3142 -0.1332  0.0208
  484DOPE   D2A 5676   9.545  13.103  15.096  0.0196  0.2424  0.3182
  484DOPE   C3A 5677   9.870  13.039  14.761  0.0953  0.0809  0.0867
  484DOPE   C4A 5678   9.994  12.950  14.390  0.0158 -0.1089 -0.1527
  484DOPE   C1B 5679   9.631  12.372  15.303 -0.1400 -0.0366 -0.0365
  484DOPE   D2B 5680   9.528  12.607  14.861 -0.1692  0.0180 -0.2102
  484DOPE   C3B 5681   9.277  12.266  14.598  0.1902  0.2088  0.5786
  484DOPE   C4B 5682   9.256  11.824  14.607 -0.1633 -0.0815  0.1457
  485DOPC   NC3 5683   2.974  14.636  16.005 -0.2516 -0.2453  0.1495
  485DOPC   PO4 5684   2.918  14.284  15.821  0.1506  0.0859  0.3349
  485DOPC   GL1 5685   3.048  14.508  15.486 -0.1453 -0.2883  0.3613
  485DOPC   GL2 5686   2.903  14.747  15.497 -0.0811 -0.1115 -0.1581
  485DOPC   C1A 5687   3.089  14.495  15.048 -0.3798  0.3293  0.0871
  485DOPC   D2A 5688   2.951  14.401  14.598 -0.0257  0.0043 -0.1147
  485DOPC   C3A 5689   3.094  14.629  14.246 -0.3232  0.1239 -0.5381
  485DOPC   C4A 5690   3.118  14.709  13.773 -0.3148 -0.0767 -0.3604
  485DOPC   C1B 5691   3.039  15.087  15.166 -0.0834  0.1237 -0.1356
  485DOPC   D2B 5692   3.277  15.408  14.957 -0.1274  0.0438  0.1855
  485DOPC   C3B 5693   3.200  15.651  14.580  0.1098 -0.0286 -0.1435
  485DOPC   C4B 5694   3.132  16.111  14.470  0.2880 -0.0886 -0.0619
  486DOPC   NC3 5695   4.361  16.059  16.325 -0.2076 -0.1779  0.1322
  486DOPC   PO4 5696   4.316  15.772  16.116  0.1997  0.3008 -0.0974
  486DOPC   GL1 5697   4.255  15.849  15.878  0.0548 -0.2404 -0.2438
  486DOPC   GL2 5698   4.025  16.019  15.762  0.0194 -0.2184 -0.6503
  486DOPC   C1A 5699   4.417  15.931  15.445 -0.1309  0.0187  0.0265
  486DOPC   D2A 5700   4.761  16.049  15.161  0.1083  0.2040  0.1033
  486DOPC   C3A 5701   4.670  15.964  14.685 -0.2035 -0.0866 -0.0835
  486DOPC   C4A 5702   4.460  16.281  14.448 -0.1376  0.0929 -0.2487
  486DOPC   C1B 5703   3.769  16.095  15.399 -0.1285 -0.1902  0.1043
  486DOPC   D2B 5704   3.537  16.080  14.983  0.0649 -0.1213 -0.1503
  486DOPC   C3B 5705   3.669  15.635  14.744 -0.0458 -0.0834  0.1635
  486DOPC   C4B 5706   3.727  15.176  14.516 -0.3319 -0.0274  0.1241
  487DOPC   NC3 5707  11.056  20.903  15.913  0.0881 -0.0375 -0.1589
  487DOPC   PO4 5708  11.113  20.494  15.810  0.2052 -0.1574  0.3120
  487DOPC   GL1 5709  11.124  20.281  15.420 -0.2515 -0.1023  0.5640
  487DOPC   GL2 5710  11.178  20.496  15.149 -0.0512  0.2513  0.1542
  487DOPC   C1A 5711  10.836  20.106  15.101 -0.0835 -0.0709  0.0956
  487DOPC   D2A 5712  10.759  20.233  14.670  0.1735 -0.2340  0.0038
  487DOPC   C3A 5713  10.811  19.948  14.330 -0.1461 -0.1058 -0.2638
  487DOPC   C4A 5714  10.505  19.671  14.124 -0.2925  0.0022 -0.1043
  487DOPC   C1B 5715  10.988  20.654  14.824  0.2057  0.0076 -0.1466
  487DOPC   D2B 5716  10.779  20.670  14.438  0.4807 -0.0124  0.0197
  487DOPC   C3B 5717  10.507  20.360  14.288 -0.3467  0.0107 -0.1208
  487DOPC   C4B 5718  10.223  20.025  14.226  0.0085 -0.0730 -0.0895
  488DOPC   NC3 5719  34.586  13.349  15.503 -0.2975  0.3258  0.1061
  488DOPC   PO4 5720  34.456  13.190  15.806 -0.2115  0.3684 -0.0143
  488DOPC   GL1 5721  34.508  12.864  15.636 -0.0067 -0.1053 -0.2703
  488DOPC   GL2 5722  34.758  12.729  15.653  0.0418 -0.2447  0.2591
  488DOPC   C1A 5723  34.505  12.810  15.177  0.0634 -0.0707  0.0918
  488DOPC   D2A 5724  34.272  12.972  14.792  0.3377  0.3269 -0.1325
  488DOPC   C3A 5725  34.278  12.818  14.373  0.2016  0.0099  0.0499
  488DOPC   C4A 5726  34.399  12.595  14.005 -0.3889 -0.0871  0.0909
  488DOPC   C1B 5727  34.713  12.364  15.350 -0.2567 -0.0012  0.2484
  488DOPC   D2B 5728  34.691  12.345  14.841 -0.1692  0.1451  0.1527
  488DOPC   C3B 5729  34.244  12.476  14.833  0.0547  0.1340 -0.0336
  488DOPC   C4B 5730  33.875  12.551  14.519  0.0550 -0.0941 -0.1638
  489DOPC   NC3 5731   5.751  16.024  16.324 -0.0163 -0.0365 -0.2994
  489DOPC   PO4 5732   5.936  15.670  16.411  0.0089  0.2089 -0.1059
  489DOPC   GL1 5733   6.119  15.657  16.061 -0.0721  0.3175 -0.0875
  489DOPC   GL2 5734   5.956  15.415  15.976  0.1356  0.2048 -0.2304
  489DOPC   C1A 5735   6.543  15.665  15.800  0.0321  0.0819  0.3540
  489DOPC   D2A 5736   6.660  15.405  15.426 -0.3568  0.1724 -0.0393
  489DOPC   C3A 5737   6.871  15.580  15.004  0.1723  0.1816  0.2003
  489DOPC   C4A 5738   7.059  15.917  14.749  0.1741  0.3024 -0.3015
  489DOPC   C1B 5739   6.076  15.275  15.559  0.5218  0.0986 -0.4764
  489DOPC   D2B 5740   6.064  15.346  15.097  0.2535  0.1954  0.1512
  489DOPC   C3B 5741   6.246  14.950  14.942  0.3759 -0.1954  0.1368
  489DOPC   C4B 5742   6.232  14.623  14.626 -0.4886 -0.0904  0.1022
  490DOPE   NH3 5743   9.391  18.604  16.128  0.1383 -0.0889 -0.1490
  490DOPE   PO4 5744   9.607  18.610  16.356 -0.1019 -0.2845 -0.1517
  490DOPE   GL1 5745   9.774  18.747  16.015 -0.2498  0.5479 -0.3218
  490DOPE   GL2 5746   9.721  18.998  15.890  0.1119  0.2520 -0.2432
  490DOPE   C1A 5747   9.961  18.499  15.683  0.1735  0.0563  0.0855
  490DOPE   D2A 5748  10.215  18.495  15.319  0.1595  0.3365 -0.1948
  490DOPE   C3A 5749  10.035  18.775  15.004 -0.1900  0.1201  0.0397
  490DOPE   C4A 5750  10.094  19.004  14.621  0.2495  0.3047 -0.1447
  490DOPE   C1B 5751   9.632  19.301  15.508  0.1468  0.0443 -0.1766
  490DOPE   D2B 5752   9.764  19.187  15.083  0.0476  0.0694 -0.0639
  490DOPE   C3B 5753   9.525  19.028  14.721 -0.0086  0.0243  0.0489
  490DOPE   C4B 5754   9.292  18.780  14.472  0.1315 -0.0991 -0.0162
  491DOPE   NH3 5755   8.496  18.548  16.341  0.2191  0.0002  0.2069
  491DOPE   PO4 5756   8.821  18.497  16.342 -0.2331 -0.0087  0.1945
  491DOPE   GL1 5757   8.917  18.605  15.924 -0.2137  0.2273 -0.2086
  491DOPE   GL2 5758   8.688  18.781  15.710 -0.1465  0.3045 -0.0462
  491DOPE   C1A 5759   8.973  18.398  15.566  0.0307  0.2764  0.0724
  491DOPE   D2A 5760   8.783  18.161  15.159 -0.2190 -0.0299  0.3206
  491DOPE   C3A 5761   8.721  18.046  14.695 -0.0559  0.4218 -0.0141
  491DOPE   C4A 5762   8.514  17.664  14.504  0.2002 -0.0124 -0.1309
  491DOPE   C1B 5763   8.867  18.801  15.321 -0.1828  0.1903  0.3689
  491DOPE   D2B 5764   8.942  18.734  14.845  0.0271  0.2156 -0.0793
  491DOPE   C3B 5765   8.862  18.463  14.476  0.3647 -0.2206  0.2493
  491DOPE   C4B 5766   8.808  18.062  14.226 -0.2849  0.3771 -0.1424
  492POSM   NC3 5767   4.960  21.083  16.652 -0.1117 -0.0155 -0.1147
  492POSM   PO4 5768   5.208  21.168  16.349  0.0949  0.0237  0.0101
  492POSM   AM1 5769   5.262  20.935  16.104  0.0028  0.0917  0.0276
  492POSM   AM2 5770   5.309  20.905  15.865 -0.0888 -0.3222 -0.0738
  492POSM   T1A 5771   5.171  20.437  15.966  0.0457  0.1032  0.1569
  492POSM   C2A 5772   5.106  20.110  15.627  0.1814  0.1668 -0.0199
  492POSM   C3A 5773   4.765  20.098  15.317 -0.2022 -0.0200 -0.0474
  492POSM   C1B 5774   5.515  20.679  15.706  0.1011 -0.2648  0.0553
  492POSM   D2B 5775   5.726  20.291  15.480 -0.0954 -0.2176 -0.0465
  492POSM   C3B 5776   5.445  19.947  15.294  0.2152 -0.0531 -0.1736
  492POSM   C4B 5777   5.088  19.669  15.259  0.1269 -0.1961  0.2117
  493DOPC   NC3 5778   6.822  11.906  15.973  0.0766  0.0243 -0.3180
  493DOPC   PO4 5779   7.189  11.932  16.042 -0.0357  0.0593  0.0874
  493DOPC   GL1 5780   7.245  12.150  15.627 -0.0489 -0.0026 -0.2358
  493DOPC   GL2 5781   7.152  11.860  15.519  0.0659 -0.0414  0.0134
  493DOPC   C1A 5782   7.308  12.433  15.221  0.2331 -0.2923  0.2567
  493DOPC   D2A 5783   7.293  12.547  14.768  0.2395 -0.0570 -0.0184
  493DOPC   C3A 5784   6.990  12.857  14.543  0.1376  0.0133 -0.4567
  493DOPC   C4A 5785   6.711  13.234  14.641 -0.0129  0.3271  0.0712
  493DOPC   C1B 5786   7.086  11.969  15.078 -0.1439  0.2250 -0.0094
  493DOPC   D2B 5787   6.947  11.825  14.695  0.2108  0.0226  0.0778
  493DOPC   C3B 5788   7.261  11.539  14.464 -0.0111 -0.0897  0.1278
  493DOPC   C4B 5789   7.598  11.247  14.366  0.0076  0.2475 -0.0571
  494POSM   NC3 5790   3.631  12.869  16.279 -0.0740  0.1043  0.2291
  494POSM   PO4 5791   3.257  12.930  16.217  0.0240  0.2935  0.2011
  494POSM   AM1 5792   3.386  12.974  15.907  0.0743 -0.0318  0.1095
  494POSM   AM2 5793   3.293  13.171  15.728  0.1307  0.0346  0.3107
  494POSM   T1A 5794   3.745  13.319  15.743 -0.0220 -0.1895  0.1662
  494POSM   C2A 5795   4.042  13.626  15.561 -0.1680  0.2007  0.3926
  494POSM   C3A 5796   4.241  13.945  15.223  0.0032 -0.0639  0.0944
  494POSM   C1B 5797   3.364  13.154  15.407 -0.0103  0.0358 -0.4063
  494POSM   D2B 5798   3.199  13.029  15.014 -0.2512  0.2426  0.3875
  494POSM   C3B 5799   3.150  12.791  14.590  0.1692 -0.1979  0.0819
  494POSM   C4B 5800   3.237  12.428  14.422  0.1229  0.1198  0.0965
  495POSM   NC3 5801   1.172  22.125  16.763  0.2198 -0.2807  0.4603
  495POSM   PO4 5802   1.319  22.029  16.432 -0.1598 -0.0658  0.1753
  495POSM   AM1 5803   1.205  22.026  16.127 -0.0231  0.4925  0.0838
  495POSM   AM2 5804   1.389  22.010  15.871  0.2001  0.1223  0.2215
  495POSM   T1A 5805   0.847  22.239  15.835 -0.2969 -0.1572  0.0432
  495POSM   C2A 5806   0.517  22.494  15.580 -0.0131 -0.0738 -0.1842
  495POSM   C3A 5807   0.180  22.516  15.336 -0.0585  0.1778  0.1067
  495POSM   C1B 5808   1.230  22.045  15.607  0.3138  0.0938  0.1390
  495POSM   D2B 5809   0.851  22.068  15.378  0.1124  0.1567  0.1976
  495POSM   C3B 5810   0.926  21.960  14.922 -0.2411  0.0344  0.1982
  495POSM   C4B 5811   0.827  21.655  14.565 -0.2615  0.0733 -0.2629
  496DOPS   CNO 5812   4.983  18.539  16.331  0.3941  0.1470  0.1859
  496DOPS   PO4 5813   5.259  18.662  16.495  0.1195 -0.5060  0.3472
  496DOPS   GL1 5814   5.352  18.910  16.103 -0.3094  0.1701  0.2377
  496DOPS   GL2 5815   5.197  18.790  15.891 -0.1847  0.1190  0.1405
  496DOPS   C1A 5816   5.647  19.007  15.712  0.2642  0.1863  0.1746
  496DOPS   D2A 5817   5.902  19.070  15.295  0.0854  0.0503  0.0503
  496DOPS   C3A 5818   5.699  18.862  14.898  0.3909 -0.0388 -0.1065
  496DOPS   C4A 5819   5.607  18.467  14.726 -0.0265  0.1473 -0.0101
  496DOPS   C1B 5820   4.887  18.879  15.509  0.3572  0.1230 -0.1169
  496DOPS   D2B 5821   4.894  19.237  15.203  0.0430 -0.1455  0.0600
  496DOPS   C3B 5822   5.142  19.141  14.819  0.0584  0.3108  0.1100
  496DOPS   C4B 5823   5.350  18.876  14.525 -0.3551 -0.0374  0.2126
  497DOPC   NC3 5824   2.210  20.960  16.158  0.0666 -0.2261 -0.0714
  497DOPC   PO4 5825   2.494  21.154  16.263 -0.2935  0.4324 -0.3432
  497DOPC   GL1 5826   2.579  21.132  15.789 -0.0124 -0.1105  0.1438
  497DOPC   GL2 5827   2.689  20.926  15.669 -0.0625  0.1939 -0.1078
  497DOPC   C1A 5828   2.453  21.203  15.354 -0.3027  0.2030  0.0767
  497DOPC   D2A 5829   2.430  21.396  14.949 -0.2660 -0.0436  0.2342
  497DOPC   C3A 5830   2.366  21.826  14.807  0.2590 -0.0390 -0.0338
  497DOPC   C4A 5831   2.389  21.998  14.368 -0.0029 -0.0260  0.0439
  497DOPC   C1B 5832   2.913  20.793  15.322  0.0279 -0.1003 -0.0158
  497DOPC   D2B 5833   3.261  20.552  15.205 -0.0410  0.1563 -0.0325
  497DOPC   C3B 5834   3.452  20.353  14.800  0.0826  0.1598  0.1340
  497DOPC   C4B 5835   3.764  20.473  14.434  0.2700  0.0963  0.0276
  498DOPE   NH3 5836   3.864  18.804  16.501  0.0433 -0.1571  0.0340
  498DOPE   PO4 5837   3.668  19.051  16.568 -0.1556  0.4226 -0.0960
  498DOPE   GL1 5838   3.621  19.244  16.205 -0.0368  0.0380 -0.4416
  498DOPE   GL2 5839   3.868  19.375  16.160  0.0950 -0.1325 -0.1126
  498DOPE   C1A 5840   3.371  19.498  15.924 -0.1369 -0.0197  0.0584
  498DOPE   D2A 5841   3.397  19.732  15.517 -0.1185  0.4342 -0.0520
  498DOPE   C3A 5842   3.378  19.505  15.084 -0.1573 -0.0336  0.0738
  498DOPE   C4A 5843   3.332  19.130  14.826 -0.1947  0.1070 -0.0221
  498DOPE   C1B 5844   3.821  19.581  15.739  0.1533 -0.2014  0.0870
  498DOPE   D2B 5845   3.867  19.766  15.315 -0.0272 -0.0175 -0.1778
  498DOPE   C3B 5846   4.197  19.576  15.081  0.0682 -0.2487 -0.1113
  498DOPE   C4B 5847   4.645  19.667  14.945  0.2345 -0.2825 -0.1374
  499DOPE   NH3 5848   5.152  12.628  16.002 -0.0757  0.1414  0.0960
  499DOPE   PO4 5849   4.935  12.866  16.088  0.1987  0.0919 -0.0143
  499DOPE   GL1 5850   5.092  13.023  15.712 -0.0888 -0.1157 -0.0927
  499DOPE   GL2 5851   5.336  12.949  15.664 -0.1650 -0.1699 -0.1786
  499DOPE   C1A 5852   5.173  13.439  15.542  0.1538 -0.0708  0.3339
  499DOPE   D2A 5853   5.198  13.723  15.143  0.0675 -0.2513 -0.1225
  499DOPE   C3A 5854   4.977  13.766  14.715 -0.0452  0.0541 -0.0638
  499DOPE   C4A 5855   4.854  13.688  14.268  0.0254  0.0230 -0.1689
  499DOPE   C1B 5856   5.327  13.120  15.230  0.0600  0.0071  0.0401
  499DOPE   D2B 5857   5.382  13.321  14.775  0.0735  0.1003 -0.2123
  499DOPE   C3B 5858   5.703  13.128  14.510 -0.1177  0.1497 -0.2354
  499DOPE   C4B 5859   5.745  13.124  14.046  0.1014  0.0993 -0.0895
  500DOPC   NC3 5860   7.024  15.025  16.859 -0.1083 -0.0143  0.1975
  500DOPC   PO4 5861   7.179  15.290  16.654  0.1731  0.0409  0.2285
  500DOPC   GL1 5862   7.263  15.233  16.208 -0.1877 -0.0979 -0.1643
  500DOPC   GL2 5863   7.549  15.336  16.254  0.2565  0.1989 -0.1910
  500DOPC   C1A 5864   6.933  15.152  15.920  0.1396 -0.0182  0.2054
  500DOPC   D2A 5865   6.507  15.101  15.768 -0.1409  0.2216 -0.1943
  500DOPC   C3A 5866   6.423  14.808  15.423  0.0374  0.0632  0.3908
  500DOPC   C4A 5867   6.650  14.723  15.018 -0.2279 -0.0689 -0.0331
  500DOPC   C1B 5868   7.453  15.240  15.775  0.0911  0.0372  0.0506
  500DOPC   D2B 5869   7.449  15.519  15.433  0.3639  0.4072  0.1198
  500DOPC   C3B 5870   7.128  15.815  15.308 -0.2542  0.0029  0.3245
  500DOPC   C4B 5871   6.743  15.953  15.318  0.0809 -0.0307 -0.0189
  501POSM   NC3 5872   7.519  21.046  15.773 -0.0740  0.0119 -0.2555
  501POSM   PO4 5873   7.787  20.803  15.712 -0.0381 -0.0585  0.1161
  501POSM   AM1 5874   7.858  20.660  15.407  0.0551  0.1721  0.1965
  501POSM   AM2 5875   8.095  20.597  15.262 -0.1999 -0.2028  0.3372
  501POSM   T1A 5876   7.702  20.689  14.944  0.1491 -0.0392  0.1910
  501POSM   C2A 5877   7.550  20.911  14.530 -0.1482  0.2641 -0.0663
  501POSM   C3A 5878   7.535  20.838  14.047 -0.0114 -0.2425 -0.1361
  501POSM   C1B 5879   8.112  20.433  14.993  0.1046  0.2189 -0.0850
  501POSM   D2B 5880   7.795  20.276  14.611 -0.0700 -0.1452 -0.0916
  501POSM   C3B 5881   7.394  20.430  14.365 -0.1215  0.0141 -0.1561
  501POSM   C4B 5882   7.048  20.549  14.060  0.0391  0.3162 -0.1615
  502POSM   NC3 5883   2.390  22.387  16.265 -0.1005  0.0858  0.1629
  502POSM   PO4 5884   2.062  22.552  16.326  0.0070  0.1695 -0.2107
  502POSM   AM1 5885   2.056  22.556  16.030 -0.0795 -0.0627 -0.0552
  502POSM   AM2 5886   2.070  22.316  15.864  0.0918 -0.0025 -0.4529
  502POSM   T1A 5887   1.985  22.686  15.552 -0.0787  0.2150 -0.0156
  502POSM   C2A 5888   1.944  22.725  15.103  0.0410  0.0830 -0.0323
  502POSM   C3A 5889   1.953  22.511  14.634  0.0109  0.2975  0.1684
  502POSM   C1B 5890   2.008  22.157  15.585  0.1004 -0.1061  0.2281
  502POSM   D2B 5891   1.876  22.217  15.136  0.0378 -0.0957  0.0510
  502POSM   C3B 5892   1.840  21.918  14.785  0.0208 -0.0218  0.1328
  502POSM   C4B 5893   1.854  21.738  14.351 -0.0559 -0.1589  0.0484
  503DOPC   NC3 5894   8.897  21.951  15.234  0.0856  0.0340 -0.0083
  503DOPC   PO4 5895   8.707  21.707  15.503 -0.2791  0.0685 -0.0363
  503DOPC   GL1 5896   8.423  21.844  15.202  0.1371 -0.0376  0.1449
  503DOPC   GL2 5897   8.400  22.076  15.289  0.1285 -0.1482  0.0325
  503DOPC   C1A 5898   8.336  21.714  14.745  0.0761 -0.0715 -0.1954
  503DOPC   D2A 5899   8.066  21.780  14.408  0.3007 -0.0278  0.1812
  503DOPC   C3A 5900   8.205  21.500  14.024 -0.0599 -0.2441  0.2864
  503DOPC   C4A 5901   8.001  21.346  13.619 -0.0851 -0.1702  0.1579
  503DOPC   C1B 5902   8.435  22.429  14.948  0.3562 -0.0563  0.0740
  503DOPC   D2B 5903   8.105  22.681  14.783  0.1004  0.0136 -0.2752
  503DOPC   C3B 5904   7.860  22.646  14.408 -0.1163  0.1208  0.2204
  503DOPC   C4B 5905   7.646  22.609  14.059 -0.0037  0.1585  0.3821
  504DOPS   CNO 5906   4.615  18.286  16.762 -0.0424 -0.2354 -0.0495
  504DOPS   PO4 5907   4.418  18.245  16.448  0.2883  0.2141  0.3112
  504DOPS   GL1 5908   4.527  18.423  16.146 -0.2843  0.1019  0.0563
  504DOPS   GL2 5909   4.663  18.262  15.972 -0.1302  0.3373 -0.1346
  504DOPS   C1A 5910   4.636  18.831  16.001  0.2425 -0.2483  0.3190
  504DOPS   D2A 5911   4.846  19.220  15.855 -0.0445  0.1212 -0.1401
  504DOPS   C3A 5912   5.225  19.218  15.630  0.2264 -0.3158  0.1255
  504DOPS   C4A 5913   5.335  18.997  15.241 -0.3448 -0.0803 -0.1517
  504DOPS   C1B 5914   4.669  18.405  15.537 -0.0229 -0.0188 -0.3452
  504DOPS   D2B 5915   4.481  18.645  15.279 -0.0026  0.3030  0.1767
  504DOPS   C3B 5916   4.366  18.324  15.056 -0.0756  0.4668  0.1084
  504DOPS   C4B 5917   3.957  18.292  14.835  0.0570  0.1836  0.0600
  505DOPE   NH3 5918  10.299  16.868  16.259 -0.0627 -0.0485  0.2548
  505DOPE   PO4 5919  10.232  16.577  16.089  0.1271  0.1724  0.1041
  505DOPE   GL1 5920  10.167  16.796  15.757 -0.2543 -0.0160  0.2453
  505DOPE   GL2 5921   9.851  16.825  15.800  0.0237 -0.1976 -0.1669
  505DOPE   C1A 5922  10.117  16.625  15.367 -0.1621 -0.1252  0.0840
  505DOPE   D2A 5923   9.992  16.653  14.926 -0.0330  0.0750  0.1807
  505DOPE   C3A 5924   9.718  16.768  14.538  0.0453 -0.1481  0.1332
  505DOPE   C4A 5925   9.329  17.048  14.417 -0.1336 -0.0388 -0.3668
  505DOPE   C1B 5926   9.790  16.997  15.288  0.2215  0.0796 -0.1037
  505DOPE   D2B 5927   9.532  17.013  14.910 -0.0325  0.0274  0.1273
  505DOPE   C3B 5928   9.084  17.040  14.877 -0.0227  0.0232  0.6484
  505DOPE   C4B 5929   8.715  17.125  14.611 -0.1087 -0.2836 -0.0016
  506DOPS   CNO 5930   4.755  21.415  16.302  0.2082 -0.4631 -0.0540
  506DOPS   PO4 5931   4.760  21.066  16.208  0.0852 -0.2874  0.1563
  506DOPS   GL1 5932   4.800  21.021  15.893  0.0931  0.1558 -0.0008
  506DOPS   GL2 5933   4.552  21.091  15.751  0.3252  0.1115 -0.0922
  506DOPS   C1A 5934   5.007  21.101  15.450 -0.4267 -0.1892  0.2285
  506DOPS   D2A 5935   4.928  20.960  14.985  0.0738  0.0459  0.1082
  506DOPS   C3A 5936   5.298  20.812  14.742 -0.0338  0.2034  0.0458
  506DOPS   C4A 5937   5.685  20.603  14.481 -0.3483  0.0102 -0.1647
  506DOPS   C1B 5938   4.447  20.972  15.338 -0.1004 -0.1918 -0.3129
  506DOPS   D2B 5939   4.456  20.520  15.111 -0.0176  0.2020 -0.1168
  506DOPS   C3B 5940   4.858  20.392  14.847  0.3264 -0.1977  0.1767
  506DOPS   C4B 5941   5.135  20.378  14.513  0.1277  0.1611 -0.0544
  507DOPS   CNO 5942   1.891  13.458  15.986 -0.1486  0.2024 -0.1765
  507DOPS   PO4 5943   1.722  13.472  15.650 -0.2447 -0.0766  0.3726
  507DOPS   GL1 5944   1.802  13.187  15.444 -0.0493  0.3230  0.1122
  507DOPS   GL2 5945   2.085  13.132  15.317  0.1425 -0.1890  0.0313
  507DOPS   C1A 5946   1.707  13.040  15.026  0.3458 -0.2036 -0.0798
  507DOPS   D2A 5947   1.549  12.688  14.765 -0.0554 -0.0204  0.0924
  507DOPS   C3A 5948   1.289  12.576  14.370  0.0043 -0.2108  0.2302
  507DOPS   C4A 5949   1.082  12.343  14.010 -0.3160 -0.1490  0.2097
  507DOPS   C1B 5950   2.193  12.837  14.981 -0.1720  0.1045  0.0240
  507DOPS   D2B 5951   2.326  12.796  14.574  0.0650 -0.1547 -0.0165
  507DOPS   C3B 5952   2.475  13.056  14.188  0.1631 -0.1919  0.2554
  507DOPS   C4B 5953   2.553  13.453  14.017  0.1889  0.0734  0.0731
  508POSM   NC3 5954   2.710  18.860  16.692  0.0843  0.1925 -0.2372
  508POSM   PO4 5955   2.508  18.959  16.302 -0.2233  0.1591  0.1412
  508POSM   AM1 5956   2.440  19.047  15.983 -0.1135  0.1453  0.0118
  508POSM   AM2 5957   2.222  19.078  15.769 -0.0573  0.0392  0.3017
  508POSM   T1A 5958   2.574  19.136  15.493  0.1182 -0.0298  0.0905
  508POSM   C2A 5959   2.422  19.445  15.167  0.3701 -0.0893  0.2961
  508POSM   C3A 5960   2.170  19.355  14.829 -0.0300 -0.0842  0.0088
  508POSM   C1B 5961   2.088  19.268  15.508  0.2017 -0.1960  0.0318
  508POSM   D2B 5962   1.986  19.654  15.231 -0.0099  0.1193 -0.0633
  508POSM   C3B 5963   1.667  19.612  14.907 -0.1679 -0.4405 -0.1108
  508POSM   C4B 5964   1.357  19.548  14.515 -0.0566  0.0690 -0.0165
  509POSM   NC3 5965   8.850  18.092  16.597 -0.0666  0.0485 -0.0999
  509POSM   PO4 5966   8.524  18.023  16.402  0.1816  0.2710 -0.1895
  509POSM   AM1 5967   8.519  18.160  16.107  0.3808 -0.3168  0.1648
  509POSM   AM2 5968   8.657  18.227  15.904 -0.0980  0.1607  0.1055
  509POSM   T1A 5969   8.205  18.409  15.727 -0.0560 -0.2981  0.1279
  509POSM   C2A 5970   7.936  18.509  15.343  0.2620  0.0013 -0.0700
  509POSM   C3A 5971   7.941  18.413  14.857  0.2280 -0.1684  0.0924
  509POSM   C1B 5972   8.595  18.064  15.646 -0.0896 -0.2146 -0.1396
  509POSM   D2B 5973   8.441  17.749  15.302  0.0222  0.1587  0.1360
  509POSM   C3B 5974   8.258  17.953  14.916  0.0851  0.5348 -0.0116
  509POSM   C4B 5975   8.190  18.130  14.492 -0.1835 -0.1889 -0.0153
  510DOPC   NC3 5976   3.095  13.793  15.646 -0.3061  0.0543  0.1163
  510DOPC   PO4 5977   2.712  13.810  15.680  0.2402 -0.0924  0.1292
  510DOPC   GL1 5978   2.701  13.745  15.339  0.0134  0.2469 -0.1636
  510DOPC   GL2 5979   2.927  13.855  15.191 -0.2653 -0.0907 -0.1650
  510DOPC   C1A 5980   2.346  13.555  15.042 -0.0001  0.1009 -0.1730
  510DOPC   D2A 5981   2.321  13.318  14.643 -0.0103  0.1342  0.2267
  510DOPC   C3A 5982   2.016  13.365  14.300 -0.0814  0.2322 -0.2032
  510DOPC   C4A 5983   1.525  13.463  14.176  0.1006  0.3455 -0.3246
  510DOPC   C1B 5984   2.628  13.982  14.814  0.1802  0.3459 -0.3500
  510DOPC   D2B 5985   2.371  13.785  14.487 -0.0238 -0.1220  0.2880
  510DOPC   C3B 5986   2.373  13.920  13.997 -0.1873 -0.1573 -0.1272
  510DOPC   C4B 5987   2.114  14.053  13.598 -0.2181 -0.0103 -0.2202
  511POSM   NC3 5988   5.365  22.706  15.685 -0.4110  0.1128 -0.4714
  511POSM   PO4 5989   5.022  22.548  15.773 -0.1586 -0.3844 -0.1198
  511POSM   AM1 5990   5.167  22.349  15.525  0.3026 -0.0693  0.0945
  511POSM   AM2 5991   5.121  22.144  15.317  0.0972 -0.2140 -0.1912
  511POSM   T1A 5992   5.360  22.540  15.080  0.1404  0.0551  0.0011
  511POSM   C2A 5993   5.641  22.716  14.773 -0.0709 -0.3352 -0.5433
  511POSM   C3A 5994   6.000  22.882  14.633  0.2320 -0.0588 -0.0088
  511POSM   C1B 5995   5.493  22.136  15.308 -0.3069 -0.5396 -0.0739
  511POSM   D2B 5996   5.908  22.291  15.072 -0.0433 -0.1697  0.0164
  511POSM   C3B 5997   6.180  22.298  14.637 -0.0722  0.0944  0.2213
  511POSM   C4B 5998   6.192  22.505  14.256 -0.1756 -0.0348 -0.1874
  512DOPC   NC3 5999   7.006  19.089  16.311 -0.2024 -0.0149  0.1524
  512DOPC   PO4 6000   6.988  18.740  16.406  0.0886 -0.0588  0.1355
  512DOPC   GL1 6001   7.103  18.497  16.021 -0.0554  0.1881 -0.0105
  512DOPC   GL2 6002   7.222  18.571  15.765  0.0580 -0.0572 -0.0526
  512DOPC   C1A 6003   6.809  18.299  15.768 -0.3235 -0.3091 -0.0567
  512DOPC   D2A 6004   6.364  18.173  15.912  0.0102  0.1150  0.1176
  512DOPC   C3A 6005   6.028  18.219  15.629  0.1664  0.1329 -0.0746
  512DOPC   C4A 6006   5.594  18.115  15.485 -0.0939  0.2196 -0.0989
  512DOPC   C1B 6007   7.359  18.661  15.325 -0.0367  0.0458  0.1050
  512DOPC   D2B 6008   7.222  18.505  14.898  0.5535 -0.2197  0.1795
  512DOPC   C3B 6009   7.436  18.301  14.604  0.1838  0.1082 -0.2234
  512DOPC   C4B 6010   7.799  18.398  14.334  0.1028 -0.0832  0.3200
  513POSM   NC3 6011   7.231  17.648  16.762  0.1670  0.0277 -0.0409
  513POSM   PO4 6012   7.413  17.836  16.442  0.0663 -0.0582  0.0507
  513POSM   AM1 6013   7.201  17.772  16.201  0.2954  0.1998 -0.0093
  513POSM   AM2 6014   6.914  17.795  16.123  0.2376 -0.0249 -0.2427
  513POSM   T1A 6015   7.194  18.005  15.738 -0.1567 -0.0462  0.1133
  513POSM   C2A 6016   7.038  18.244  15.381  0.3484  0.1458  0.3385
  513POSM   C3A 6017   6.817  18.169  15.019  0.0289 -0.1299 -0.0213
  513POSM   C1B 6018   6.737  17.809  15.838 -0.0604 -0.2729 -0.2527
  513POSM   D2B 6019   6.514  17.990  15.493  0.0841 -0.1833 -0.0417
  513POSM   C3B 6020   6.362  18.446  15.407  0.1716  0.1695  0.3267
  513POSM   C4B 6021   6.155  18.744  15.694  0.0214 -0.0091  0.0393
  514POSM   NC3 6022   8.585  13.035  16.419  0.0670 -0.0574  0.0378
  514POSM   PO4 6023   8.438  13.332  16.194 -0.0781 -0.1349 -0.0209
  514POSM   AM1 6024   8.299  13.378  15.881  0.1537 -0.0669  0.2543
  514POSM   AM2 6025   8.116  13.271  15.677  0.2231 -0.2178 -0.1080
  514POSM   T1A 6026   8.488  13.394  15.423 -0.0991  0.0654  0.0242
  514POSM   C2A 6027   8.804  13.280  15.077  0.1533 -0.1016 -0.1601
  514POSM   C3A 6028   8.986  12.903  14.907 -0.2893  0.2566  0.3656
  514POSM   C1B 6029   8.106  12.957  15.550 -0.1899 -0.1336  0.0257
  514POSM   D2B 6030   8.282  12.543  15.387  0.0044 -0.3020 -0.1028
  514POSM   C3B 6031   8.060  12.165  15.202  0.0248 -0.3762  0.2902
  514POSM   C4B 6032   8.030  11.727  14.958 -0.0011  0.1428  0.2859
  515DOPC   NC3 6033   2.012  13.757  16.365  0.0245 -0.2516  0.1433
  515DOPC   PO4 6034   1.943  14.114  16.123 -0.2021 -0.0790 -0.0332
  515DOPC   GL1 6035   1.807  14.382  15.887 -0.0445 -0.1084 -0.1656
  515DOPC   GL2 6036   1.795  14.178  15.655 -0.0769  0.3676  0.1686
  515DOPC   C1A 6037   1.870  14.757  15.649  0.1600 -0.0835  0.2107
  515DOPC   D2A 6038   2.107  15.102  15.494 -0.0683 -0.1718 -0.3809
  515DOPC   C3A 6039   2.004  15.448  15.182  0.1709  0.1681 -0.0007
  515DOPC   C4A 6040   2.092  15.631  14.757  0.0435  0.3664  0.3589
  515DOPC   C1B 6041   1.638  14.439  15.329  0.0726  0.3177 -0.2487
  515DOPC   D2B 6042   1.295  14.509  15.047  0.1187  0.4753 -0.0602
  515DOPC   C3B 6043   1.282  14.840  14.683 -0.2075  0.1402 -0.1107
  515DOPC   C4B 6044   1.252  15.219  14.507 -0.4020 -0.0908 -0.0004
  516DOPE   NH3 6045   2.257  13.602  15.578  0.0213 -0.0822 -0.0333
  516DOPE   PO4 6046   2.192  13.937  15.570 -0.0349  0.2567 -0.0462
  516DOPE   GL1 6047   2.281  14.150  15.207  0.2925 -0.3361  0.0460
  516DOPE   GL2 6048   2.062  14.309  15.120 -0.0053  0.2010 -0.2061
  516DOPE   C1A 6049   2.563  14.427  14.933 -0.1995  0.0371  0.1498
  516DOPE   D2A 6050   2.520  14.612  14.502 -0.1250  0.0242 -0.2587
  516DOPE   C3A 6051   2.598  14.384  14.102  0.1100 -0.0433 -0.0586
  516DOPE   C4A 6052   2.746  14.230  13.642  0.1220  0.2243 -0.2166
  516DOPE   C1B 6053   2.133  14.008  14.813  0.2605  0.0671  0.0313
  516DOPE   D2B 6054   2.133  14.211  14.373 -0.1963  0.1353 -0.0657
  516DOPE   C3B 6055   1.909  14.614  14.258 -0.0773  0.2121  0.0636
  516DOPE   C4B 6056   2.014  14.966  14.026 -0.0660 -0.0942  0.2745
  517DOPC   NC3 6057   0.422  15.411  16.431 -0.1793 -0.3130  0.1596
  517DOPC   PO4 6058   0.798  15.489  16.368  0.0754 -0.1984  0.0127
  517DOPC   GL1 6059   0.974  15.483  16.020  0.1872 -0.1846 -0.2902
  517DOPC   GL2 6060   1.250  15.701  16.023 -0.0593 -0.0479 -0.3720
  517DOPC   C1A 6061   0.819  15.788  15.674  0.1167  0.0514 -0.0295
  517DOPC   D2A 6062   0.805  16.154  15.401 -0.0452 -0.0693 -0.4610
  517DOPC   C3A 6063   0.502  16.355  15.088 -0.0995  0.0760  0.1457
  517DOPC   C4A 6064   0.518  16.353  14.632 -0.1555 -0.0332 -0.0413
  517DOPC   C1B 6065   1.289  15.809  15.574  0.2131  0.1020 -0.0880
  517DOPC   D2B 6066   1.160  15.832  15.107 -0.0645 -0.1868 -0.0067
  517DOPC   C3B 6067   0.933  16.216  14.899  0.0258  0.1597  0.1021
  517DOPC   C4B 6068   0.998  16.675  14.733  0.1786 -0.0397  0.2643
  518POSM   NC3 6069   8.895  19.899  16.235 -0.2754  0.1472  0.2194
  518POSM   PO4 6070   9.314  20.010  16.287 -0.2377  0.1082  0.1638
  518POSM   AM1 6071   9.326  19.899  15.950 -0.1576 -0.1216 -0.0176
  518POSM   AM2 6072   9.119  19.854  15.785 -0.0186  0.1712  0.0575
  518POSM   T1A 6073   9.601  19.796  15.533  0.1222 -0.2510 -0.1670
  518POSM   C2A 6074   9.972  19.638  15.252  0.1594  0.0031  0.2116
  518POSM   C3A 6075  10.249  19.314  15.029  0.0799 -0.1144 -0.2664
  518POSM   C1B 6076   9.121  19.678  15.501  0.1825  0.1660  0.1312
  518POSM   D2B 6077   8.972  19.614  15.059 -0.4394 -0.2992  0.0520
  518POSM   C3B 6078   9.090  19.290  14.753 -0.2383  0.1020 -0.2982
  518POSM   C4B 6079   8.929  19.149  14.334  0.0948 -0.0079  0.3270
  519POSM   NC3 6080   1.171  21.186  16.444  0.0538 -0.0645  0.1967
  519POSM   PO4 6081   1.059  21.527  16.620  0.1878  0.0073 -0.0927
  519POSM   AM1 6082   1.141  21.611  16.304 -0.1906 -0.0832  0.2827
  519POSM   AM2 6083   1.269  21.470  16.068 -0.2429 -0.1226  0.0571
  519POSM   T1A 6084   0.918  21.740  15.863 -0.0443 -0.1502 -0.0847
  519POSM   C2A 6085   0.818  21.495  15.466  0.1843  0.2412  0.3820
  519POSM   C3A 6086   0.890  21.463  15.009  0.0231 -0.2299  0.1242
  519POSM   C1B 6087   1.328  21.423  15.718  0.1485  0.0593  0.0184
  519POSM   D2B 6088   1.525  21.374  15.285  0.0521  0.3067 -0.2933
  519POSM   C3B 6089   1.421  20.906  15.215 -0.3551 -0.0158  0.1722
  519POSM   C4B 6090   1.481  20.447  15.135  0.2508  0.1947  0.4130
  520POSM   NC3 6091   3.149  17.149  16.522  0.1898 -0.2720  0.0067
  520POSM   PO4 6092   2.935  17.474  16.395 -0.0975  0.2501 -0.1542
  520POSM   AM1 6093   3.086  17.561  16.134  0.0519  0.3016  0.1420
  520POSM   AM2 6094   3.091  17.744  15.918  0.0335 -0.2198  0.2539
  520POSM   T1A 6095   3.278  17.416  15.681 -0.1249 -0.0794  0.1077
  520POSM   C2A 6096   3.495  17.230  15.306  0.0902 -0.1738 -0.1361
  520POSM   C3A 6097   3.965  17.233  15.283 -0.4557 -0.1646 -0.2914
  520POSM   C1B 6098   3.057  17.893  15.628 -0.0749 -0.2814 -0.0304
  520POSM   D2B 6099   3.097  18.075  15.217 -0.1153  0.2783 -0.0528
  520POSM   C3B 6100   2.853  18.223  14.847  0.1567 -0.0738 -0.2460
  520POSM   C4B 6101   2.726  18.344  14.427 -0.3135 -0.0294 -0.1641
  521POSM   NC3 6102   2.981  23.087  16.425 -0.0504 -0.2264  0.3123
  521POSM   PO4 6103   3.245  22.928  16.188  0.1733  0.0529 -0.1224
  521POSM   AM1 6104   3.192  22.813  15.876  0.0549  0.0162  0.1043
  521POSM   AM2 6105   3.346  22.837  15.642 -0.0525  0.0794 -0.2628
  521POSM   T1A 6106   2.875  22.844  15.479  0.0420  0.1356  0.0389
  521POSM   C2A 6107   2.558  22.713  15.189  0.0911 -0.0455  0.2210
  521POSM   C3A 6108   2.320  22.329  15.009  0.2054 -0.2270  0.0743
  521POSM   C1B 6109   3.388  22.796  15.324  0.2762 -0.2713  0.5225
  521POSM   D2B 6110   3.540  22.658  14.930 -0.2220  0.3128  0.2849
  521POSM   C3B 6111   3.443  22.373  14.592  0.1800  0.1820  0.0604
  521POSM   C4B 6112   3.538  21.956  14.376  0.0034 -0.2831 -0.0575
  522DOPC   NC3 6113  11.554  18.952  15.370  0.1525 -0.1334  0.2040
  522DOPC   PO4 6114  11.494  18.746  15.639  0.1841  0.4376  0.1733
  522DOPC   GL1 6115  11.179  18.610  15.378 -0.2854  0.2000  0.1687
  522DOPC   GL2 6116  10.929  18.693  15.554  0.2417 -0.3621 -0.1974
  522DOPC   C1A 6117  11.072  18.886  15.015  0.0821 -0.2400  0.0133
  522DOPC   D2A 6118  10.842  19.225  14.937  0.0279  0.0699 -0.2705
  522DOPC   C3A 6119  10.649  19.271  14.485 -0.0722  0.0733  0.1330
  522DOPC   C4A 6120  10.728  19.189  13.985  0.2872 -0.0752 -0.0481
  522DOPC   C1B 6121  10.751  18.446  15.257  0.2477  0.3270  0.2835
  522DOPC   D2B 6122  10.925  18.429  14.791  0.0321 -0.5317  0.0172
  522DOPC   C3B 6123  10.767  18.679  14.405 -0.0069 -0.2174  0.0122
  522DOPC   C4B 6124  10.896  18.701  13.986  0.0372  0.0597  0.2175
  523POSM   NC3 6125  10.559  19.798  16.271 -0.4554  0.0906  0.2132
  523POSM   PO4 6126  10.392  19.947  15.958 -0.0245 -0.2600  0.1120
  523POSM   AM1 6127  10.506  19.778  15.689 -0.1480  0.2231  0.1615
  523POSM   AM2 6128  10.718  19.763  15.535 -0.1328  0.0920  0.2267
  523POSM   T1A 6129  10.575  19.274  15.535 -0.3991  0.2536 -0.0122
  523POSM   C2A 6130  10.529  18.879  15.314 -0.0513  0.1669 -0.0864
  523POSM   C3A 6131  10.575  18.759  14.883  0.3236  0.0941 -0.0137
  523POSM   C1B 6132  10.645  19.672  15.190 -0.2364  0.0190 -0.1300
  523POSM   D2B 6133  10.564  19.782  14.714  0.0919 -0.1387  0.0501
  523POSM   C3B 6134  10.190  19.599  14.539 -0.2089  0.2602 -0.0452
  523POSM   C4B 6135   9.799  19.417  14.524  0.3425  0.1272  0.1955
  524DOPS   CNO 6136   4.914  18.039  16.370 -0.0429 -0.1221 -0.4550
  524DOPS   PO4 6137   4.999  17.675  16.371  0.3482 -0.0319  0.0887
  524DOPS   GL1 6138   5.083  17.801  15.975  0.0187  0.3154  0.1639
  524DOPS   GL2 6139   4.923  17.494  15.923 -0.1748  0.1399  0.2562
  524DOPS   C1A 6140   5.074  18.006  15.529  0.2078 -0.1999  0.2192
  524DOPS   D2A 6141   4.822  18.077  15.172 -0.1516 -0.2103  0.3455
  524DOPS   C3A 6142   4.783  18.243  14.789 -0.0016  0.1648  0.1098
  524DOPS   C4A 6143   4.746  18.262  14.335 -0.0241 -0.2820  0.0176
  524DOPS   C1B 6144   4.714  17.543  15.504  0.4797  0.1742  0.1795
  524DOPS   D2B 6145   4.401  17.564  15.192 -0.1264  0.6128 -0.1476
  524DOPS   C3B 6146   4.589  17.777  14.847  0.3552  0.3696 -0.1314
  524DOPS   C4B 6147   5.003  17.694  14.588  0.0529 -0.1058 -0.0492
  525DOPS   CNO 6148   1.274  18.805  16.689  0.0322 -0.1540 -0.0208
  525DOPS   PO4 6149   1.036  19.086  16.548  0.1803 -0.0625 -0.1069
  525DOPS   GL1 6150   1.091  18.983  16.119 -0.4143 -0.2124  0.1349
  525DOPS   GL2 6151   1.075  19.216  15.956  0.0484 -0.1529 -0.2412
  525DOPS   C1A 6152   1.056  18.639  15.839 -0.1717 -0.0008  0.0049
  525DOPS   D2A 6153   1.456  18.539  15.573  0.1015 -0.1907 -0.1210
  525DOPS   C3A 6154   1.591  18.354  15.150 -0.1110 -0.1913  0.1441
  525DOPS   C4A 6155   1.741  18.068  14.781 -0.2495  0.0301  0.1110
  525DOPS   C1B 6156   0.955  19.049  15.549  0.1191 -0.2503  0.0461
  525DOPS   D2B 6157   0.783  19.005  15.082  0.2020 -0.1687  0.1761
  525DOPS   C3B 6158   1.027  19.194  14.683 -0.1605  0.2350  0.0239
  525DOPS   C4B 6159   1.088  19.160  14.205  0.0445  0.0289  0.1880
  526DOPS   CNO 6160   6.555  20.068  16.705  0.2936 -0.1009  0.0341
  526DOPS   PO4 6161   6.255  19.904  16.524 -0.2178  0.2010 -0.1591
  526DOPS   GL1 6162   6.005  19.839  16.195  0.1558 -0.1382 -0.3469
  526DOPS   GL2 6163   6.195  19.856  15.964  0.4467  0.3183 -0.0229
  526DOPS   C1A 6164   5.687  19.575  15.991 -0.5056 -0.0991 -0.0882
  526DOPS   D2A 6165   5.252  19.617  15.892  0.1575  0.1478  0.2333
  526DOPS   C3A 6166   4.800  19.711  15.722  0.1089  0.0237  0.0687
  526DOPS   C4A 6167   4.358  19.810  15.670  0.1405  0.2117  0.2671
  526DOPS   C1B 6168   5.880  19.830  15.592  0.1338 -0.3497  0.2174
  526DOPS   D2B 6169   5.650  19.490  15.380  0.1544 -0.1014 -0.1978
  526DOPS   C3B 6170   5.527  19.433  14.950 -0.1747 -0.5630 -0.1520
  526DOPS   C4B 6171   5.620  19.241  14.578  0.0625  0.2106  0.1137
  527POSM   NC3 6172   8.232  14.834  16.666  0.0899  0.1139 -0.0791
  527POSM   PO4 6173   7.890  15.098  16.594  0.1281  0.1586  0.2100
  527POSM   AM1 6174   7.860  15.030  16.274  0.1424 -0.0776 -0.3005
  527POSM   AM2 6175   7.660  14.909  16.068  0.0083 -0.0885 -0.2455
  527POSM   T1A 6176   7.916  15.318  15.852 -0.0487 -0.3643  0.0517
  527POSM   C2A 6177   8.024  15.507  15.468  0.0268 -0.0517  0.2214
  527POSM   C3A 6178   7.993  15.478  15.038 -0.0817 -0.0297 -0.2430
  527POSM   C1B 6179   7.793  14.877  15.747 -0.0586  0.0488  0.2263
  527POSM   D2B 6180   7.715  15.030  15.305 -0.1320  0.0975 -0.1645
  527POSM   C3B 6181   7.634  14.874  14.927 -0.0410 -0.3161 -0.1659
  527POSM   C4B 6182   7.780  14.726  14.495  0.0279  0.0754 -0.1667
  528DOPE   NH3 6183   8.098  23.548  16.179 -0.3235 -0.1916 -0.0564
  528DOPE   PO4 6184   8.278  23.275  16.134  0.0343 -0.0420  0.0454
  528DOPE   GL1 6185   7.973  23.082  15.858 -0.2976  0.0950 -0.4177
  528DOPE   GL2 6186   8.018  22.826  15.785  0.1133 -0.0220 -0.1550
  528DOPE   C1A 6187   8.230  23.275  15.458  0.2499  0.0139  0.1623
  528DOPE   D2A 6188   8.260  23.312  15.023  0.1312 -0.0218 -0.0508
  528DOPE   C3A 6189   8.509  23.007  14.707  0.0859 -0.1446  0.1494
  528DOPE   C4A 6190   8.757  22.729  14.963  0.0215  0.3497 -0.0180
  528DOPE   C1B 6191   7.578  22.802  15.667  0.1560 -0.0813  0.1681
  528DOPE   D2B 6192   7.357  22.466  15.506 -0.2143  0.0322  0.0978
  528DOPE   C3B 6193   7.048  22.490  15.110  0.1104  0.0440  0.0996
  528DOPE   C4B 6194   7.158  22.627  14.679  0.1907 -0.2001 -0.0041
  529POSM   NC3 6195   4.484  12.656  16.162  0.1358 -0.1781 -0.4476
  529POSM   PO4 6196   4.697  12.403  16.006  0.1447  0.1163  0.1387
  529POSM   AM1 6197   4.645  12.503  15.697  0.0590 -0.0987 -0.0359
  529POSM   AM2 6198   4.735  12.720  15.545 -0.1625  0.0908  0.0223
  529POSM   T1A 6199   4.313  12.503  15.318  0.0577 -0.2323 -0.2457
  529POSM   C2A 6200   4.312  12.394  14.823  0.0724  0.3926 -0.0957
  529POSM   C3A 6201   4.314  11.952  14.556  0.2549  0.1108 -0.0367
  529POSM   C1B 6202   4.797  13.013  15.383 -0.0560  0.0159  0.0139
  529POSM   D2B 6203   4.894  13.337  15.031 -0.2299 -0.0391  0.2825
  529POSM   C3B 6204   4.915  13.229  14.618  0.2276 -0.0496  0.1547
  529POSM   C4B 6205   5.097  13.259  14.172  0.2863  0.2886  0.2658
  530DOPS   CNO 6206   7.278  19.783  16.463 -0.0126  0.2975  0.3879
  530DOPS   PO4 6207   7.109  19.571  16.219 -0.1749  0.0070 -0.2433
  530DOPS   GL1 6208   7.075  19.289  15.869 -0.1211  0.0816  0.0270
  530DOPS   GL2 6209   7.182  19.042  15.825  0.1629 -0.2117  0.1053
  530DOPS   C1A 6210   6.953  19.434  15.466  0.1219 -0.1689  0.0116
  530DOPS   D2A 6211   6.654  19.375  15.086  0.0397 -0.0172 -0.3161
  530DOPS   C3A 6212   6.842  19.568  14.679 -0.1911  0.1015 -0.0647
  530DOPS   C4A 6213   6.947  19.888  14.364  0.0362  0.0041  0.0958
  530DOPS   C1B 6214   7.058  18.988  15.335 -0.1791  0.0328  0.1712
  530DOPS   D2B 6215   6.719  18.700  15.162  0.0604 -0.0538 -0.0174
  530DOPS   C3B 6216   6.453  18.542  14.789 -0.1036  0.2517  0.3598
  530DOPS   C4B 6217   6.573  18.176  14.517 -0.3895 -0.1605 -0.1262
  531POSM   NC3 6218   9.391  16.598  16.090 -0.1600 -0.2662 -0.0792
  531POSM   PO4 6219   9.738  16.399  16.165 -0.2115 -0.4511 -0.0051
  531POSM   AM1 6220   9.801  16.398  15.845  0.1602  0.0358  0.0298
  531POSM   AM2 6221   9.782  16.231  15.577 -0.1103  0.0546  0.3656
  531POSM   T1A 6222   9.470  16.578  15.509  0.0066 -0.1035  0.0513
  531POSM   C2A 6223   9.258  16.965  15.368 -0.2331  0.2320  0.0437
  531POSM   C3A 6224   9.227  17.442  15.196 -0.0616 -0.0577 -0.1754
  531POSM   C1B 6225   9.789  16.256  15.218 -0.0618  0.3196  0.1244
  531POSM   D2B 6226   9.643  16.307  14.813  0.1312  0.1572 -0.0036
  531POSM   C3B 6227   9.256  16.137  14.727  0.2296 -0.0083 -0.0844
  531POSM   C4B 6228   8.928  15.912  14.808 -0.0885 -0.3545  0.0684
  532POSM   NC3 6229   5.291  14.704  16.280  0.2294 -0.4695  0.3993
  532POSM   PO4 6230   5.032  14.867  16.021 -0.0416 -0.1360  0.0733
  532POSM   AM1 6231   5.078  14.910  15.675  0.0460  0.0839 -0.0556
  532POSM   AM2 6232   5.014  15.119  15.516 -0.1537  0.1239  0.1014
  532POSM   T1A 6233   5.384  14.855  15.279  0.2890 -0.2239 -0.1414
  532POSM   C2A 6234   5.392  14.597  14.842  0.4126  0.2247 -0.1458
  532POSM   C3A 6235   5.529  14.392  14.408  0.1209  0.0684 -0.0561
  532POSM   C1B 6236   4.866  15.124  15.141  0.3914  0.0766 -0.0559
  532POSM   D2B 6237   4.758  15.077  14.691 -0.1382  0.0427  0.2533
  532POSM   C3B 6238   4.793  15.448  14.427 -0.1118  0.2424  0.3057
  532POSM   C4B 6239   4.736  15.839  14.157  0.0662  0.1023  0.2402
  533POSM   NC3 6240   2.110  19.712  16.627  0.2787 -0.0011 -0.1333
  533POSM   PO4 6241   2.160  19.354  16.386 -0.0612  0.0172 -0.1074
  533POSM   AM1 6242   2.072  19.395  16.065 -0.1023  0.0703 -0.1228
  533POSM   AM2 6243   2.255  19.551  15.906  0.0696  0.0139 -0.3839
  533POSM   T1A 6244   1.803  19.671  15.739  0.0285  0.2288  0.5538
  533POSM   C2A 6245   1.392  19.700  15.543 -0.0191  0.0465 -0.0435
  533POSM   C3A 6246   1.290  19.937  15.190  0.1693 -0.4033  0.2022
  533POSM   C1B 6247   2.444  19.685  15.660  0.0171  0.0544 -0.3000
  533POSM   D2B 6248   2.446  19.937  15.306 -0.0820 -0.0067  0.0767
  533POSM   C3B 6249   2.380  19.901  14.893  0.0929 -0.2662  0.1662
  533POSM   C4B 6250   2.086  19.769  14.509  0.0596  0.4497 -0.1639
  534DOPE   NH3 6251  10.991  20.065  15.963 -0.0768  0.1699 -0.0179
  534DOPE   PO4 6252  11.160  19.949  15.730  0.0017 -0.0280 -0.0748
  534DOPE   GL1 6253  11.275  19.840  15.319  0.2442 -0.1176 -0.1889
  534DOPE   GL2 6254  11.165  19.686  15.129  0.0302 -0.1128  0.0449
  534DOPE   C1A 6255  11.301  20.095  14.907  0.0156  0.0061 -0.0748
  534DOPE   D2A 6256  11.290  20.279  14.493  0.0840 -0.2300 -0.2040
  534DOPE   C3A 6257  10.995  20.346  14.145 -0.1557  0.0050 -0.0493
  534DOPE   C4A 6258  10.713  20.545  13.854  0.0705 -0.0213 -0.3743
  534DOPE   C1B 6259  11.137  19.616  14.678 -0.3675  0.1461 -0.2203
  534DOPE   D2B 6260  11.037  19.461  14.213  0.1586  0.1633 -0.1446
  534DOPE   C3B 6261  11.239  19.456  13.780  0.1536  0.2202 -0.4892
  534DOPE   C4B 6262  11.478  19.270  13.437 -0.2017  0.1253  0.0316
  535DOPE   NH3 6263   1.443  18.374  16.787 -0.0384  0.0100 -0.0540
  535DOPE   PO4 6264   1.754  18.497  16.700 -0.0637  0.0212  0.0701
  535DOPE   GL1 6265   1.585  18.570  16.345  0.1610  0.1293 -0.2695
  535DOPE   GL2 6266   1.318  18.416  16.288 -0.0576  0.0716  0.2316
  535DOPE   C1A 6267   1.558  18.828  15.971  0.1038 -0.0117 -0.0703
  535DOPE   D2A 6268   1.642  19.099  15.647  0.0695  0.0298  0.1033
  535DOPE   C3A 6269   1.735  19.186  15.182  0.3305  0.1857  0.2712
  535DOPE   C4A 6270   1.538  19.083  14.788  0.2824  0.0577  0.3438
  535DOPE   C1B 6271   1.190  18.113  16.010  0.0090 -0.2365 -0.4356
  535DOPE   D2B 6272   1.067  18.127  15.573  0.1899  0.0216 -0.0038
  535DOPE   C3B 6273   1.059  18.548  15.345  0.2063 -0.2066  0.1658
  535DOPE   C4B 6274   1.280  18.844  15.113 -0.2219 -0.0981 -0.0958
  536DOPS   CNO 6275  11.161  12.649  16.128  0.1981 -0.3147  0.0915
  536DOPS   PO4 6276  10.800  12.770  16.084 -0.1407  0.1003 -0.2500
  536DOPS   GL1 6277  10.827  12.803  15.690 -0.2601 -0.1018 -0.3325
  536DOPS   GL2 6278  10.699  13.140  15.738 -0.0487 -0.1153  0.1580
  536DOPS   C1A 6279  10.758  12.429  15.474 -0.2223  0.2279  0.0496
  536DOPS   D2A 6280  10.710  12.029  15.236  0.0302 -0.1954 -0.2335
  536DOPS   C3A 6281  10.457  11.697  15.305  0.4562 -0.0566  0.0871
  536DOPS   C4A 6282  10.101  11.372  15.264 -0.1689 -0.0057 -0.0134
  536DOPS   C1B 6283  10.704  13.136  15.273  0.1230 -0.0042 -0.1287
  536DOPS   D2B 6284  10.458  13.159  14.818  0.0486  0.1051 -0.1868
  536DOPS   C3B 6285  10.437  12.793  14.551 -0.2210  0.1494 -0.0662
  536DOPS   C4B 6286  10.728  12.343  14.517  0.1054  0.2456 -0.2950
  537DOPS   CNO 6287  34.642  15.771  16.629  0.0426 -0.2435  0.1329
  537DOPS   PO4 6288  34.505  15.746  16.264  0.1486 -0.0428  0.0227
  537DOPS   GL1 6289  34.823  15.931  15.924  0.0880 -0.2814 -0.0004
  537DOPS   GL2 6290  34.667  16.233  15.813 -0.3786 -0.1071  0.1499
  537DOPS   C1A 6291  34.540  15.853  15.509  0.1960  0.1662 -0.0715
  537DOPS   D2A 6292  34.409  15.992  15.055 -0.1461  0.2982 -0.0693
  537DOPS   C3A 6293  34.243  15.650  14.881 -0.1080  0.2467  0.0305
  537DOPS   C4A 6294  33.984  15.405  14.537  0.1354  0.0574  0.1027
  537DOPS   C1B 6295  34.279  16.264  15.511  0.2636  0.1356  0.2761
  537DOPS   D2B 6296  34.089  16.468  15.153  0.0023  0.1953  0.1499
  537DOPS   C3B 6297  33.915  16.572  14.777  0.2568 -0.0509  0.1070
  537DOPS   C4B 6298  33.599  16.918  14.624  0.2989 -0.2616  0.1303
  538DOPE   NH3 6299   4.430  21.514  15.962  0.2996 -0.2664  0.0273
  538DOPE   PO4 6300   4.134  21.628  15.920 -0.0052  0.2228  0.0037
  538DOPE   GL1 6301   3.977  21.318  15.784 -0.0288 -0.0509 -0.0677
  538DOPE   GL2 6302   4.066  21.116  15.630  0.2000 -0.0275 -0.0145
  538DOPE   C1A 6303   3.666  21.415  15.429 -0.2473 -0.3090 -0.1155
  538DOPE   D2A 6304   3.299  21.481  15.136 -0.1531 -0.0711  0.0465
  538DOPE   C3A 6305   2.928  21.231  15.044 -0.2043  0.0877  0.0091
  538DOPE   C4A 6306   2.568  20.907  14.958  0.2212 -0.1120 -0.1101
  538DOPE   C1B 6307   3.851  20.800  15.402  0.1537 -0.0065 -0.4087
  538DOPE   D2B 6308   3.690  20.725  14.941 -0.0186  0.2588  0.0188
  538DOPE   C3B 6309   3.507  21.017  14.644 -0.1321 -0.0238 -0.0068
  538DOPE   C4B 6310   3.250  21.447  14.646  0.2669  0.1531  0.0645
  539DOPC   NC3 6311   4.810  22.085  15.706  0.0551  0.0169  0.1577
  539DOPC   PO4 6312   4.477  21.926  15.730 -0.1900  0.3736  0.0271
  539DOPC   GL1 6313   4.449  22.119  15.336  0.1535 -0.2064  0.1452
  539DOPC   GL2 6314   4.697  22.028  15.148 -0.0709 -0.3875 -0.2527
  539DOPC   C1A 6315   4.254  22.477  15.074  0.0438 -0.2073 -0.3109
  539DOPC   D2A 6316   4.121  22.765  14.775 -0.2325  0.1562  0.2560
  539DOPC   C3A 6317   4.253  23.006  14.388 -0.1646 -0.0226 -0.0133
  539DOPC   C4A 6318   4.157  23.242  13.971 -0.0008  0.0903  0.1153
  539DOPC   C1B 6319   4.960  22.245  14.880 -0.1859  0.0714  0.1529
  539DOPC   D2B 6320   5.288  22.388  14.599  0.0241 -0.1011  0.1658
  539DOPC   C3B 6321   5.735  22.297  14.426  0.0223  0.0473  0.2253
  539DOPC   C4B 6322   5.984  21.930  14.286  0.0207 -0.0763 -0.0840
  540DOPE   NH3 6323   5.883  20.256  16.438  0.2117  0.1102  0.0088
  540DOPE   PO4 6324   5.906  20.271  16.114 -0.6433  0.0515 -0.0887
  540DOPE   GL1 6325   6.141  20.486  15.880 -0.1172 -0.1157 -0.0406
  540DOPE   GL2 6326   6.073  20.727  15.741 -0.0503  0.0301 -0.0841
  540DOPE   C1A 6327   6.260  20.344  15.427  0.0047  0.2704  0.2636
  540DOPE   D2A 6328   6.423  20.287  15.032 -0.3633  0.2406 -0.0035
  540DOPE   C3A 6329   6.572  20.581  14.728  0.0425 -0.1063 -0.2055
  540DOPE   C4A 6330   6.488  21.022  14.784 -0.1381  0.2749 -0.0543
  540DOPE   C1B 6331   6.178  20.795  15.253 -0.2938  0.1632 -0.2007
  540DOPE   D2B 6332   6.066  20.581  14.826  0.0399 -0.0343  0.2812
  540DOPE   C3B 6333   5.863  20.168  14.959  0.1292 -0.1082  0.0702
  540DOPE   C4B 6334   5.894  19.740  14.828 -0.0553 -0.0883 -0.0467
  541DOPC   NC3 6335  34.453  15.050  15.772  0.0407  0.1895  0.2419
  541DOPC   PO4 6336  34.088  14.877  15.768 -0.1561  0.1947  0.5537
  541DOPC   GL1 6337  33.991  14.822  15.404  0.1169  0.1683 -0.3680
  541DOPC   GL2 6338  34.251  14.861  15.281  0.0491 -0.5584 -0.0083
  541DOPC   C1A 6339  33.968  14.526  15.066  0.2613 -0.0532 -0.0721
  541DOPC   D2A 6340  33.981  14.138  14.870  0.2365  0.3370 -0.2385
  541DOPC   C3A 6341  33.935  14.310  14.424 -0.0781 -0.3045 -0.2447
  541DOPC   C4A 6342  33.995  14.517  14.026 -0.1169  0.1051 -0.0632
  541DOPC   C1B 6343  34.456  15.101  14.965  0.0097  0.1624 -0.2108
  541DOPC   D2B 6344  34.718  15.391  14.705  0.0659 -0.3439 -0.3293
  541DOPC   C3B 6345  34.428  15.606  14.446 -0.2989  0.5455  0.2088
  541DOPC   C4B 6346  34.014  15.768  14.294 -0.1582 -0.0715  0.0781
  542DOPE   NH3 6347   9.705  15.706  16.060 -0.0709 -0.0399 -0.1561
  542DOPE   PO4 6348   9.567  15.943  15.908 -0.1350  0.0938 -0.1124
  542DOPE   GL1 6349   9.549  15.755  15.469  0.0559  0.3962 -0.2238
  542DOPE   GL2 6350   9.242  15.669  15.495  0.2625 -0.0116  0.1503
  542DOPE   C1A 6351   9.418  15.797  15.015 -0.0444  0.1065  0.0536
  542DOPE   D2A 6352   9.468  15.671  14.514 -0.0045 -0.2396 -0.1215
  542DOPE   C3A 6353   9.724  15.834  14.194  0.0064 -0.1189  0.1338
  542DOPE   C4A 6354   9.676  16.262  14.301  0.1955  0.1688 -0.1487
  542DOPE   C1B 6355   9.216  16.125  15.317 -0.1654 -0.0042 -0.0829
  542DOPE   D2B 6356   9.184  16.526  15.087  0.1215  0.1013 -0.0977
  542DOPE   C3B 6357   9.176  16.579  14.622 -0.0404  0.0865 -0.0507
  542DOPE   C4B 6358   9.266  16.633  14.185  0.1946  0.1481 -0.0207
  543DOPE   NH3 6359   9.448  20.798  16.077  0.3651  0.3291  0.1704
  543DOPE   PO4 6360   9.390  20.533  15.936  0.0566 -0.1773 -0.0234
  543DOPE   GL1 6361   9.283  20.420  15.516  0.1035  0.0540 -0.0666
  543DOPE   GL2 6362   9.428  20.253  15.519  0.0199 -0.2644 -0.1230
  543DOPE   C1A 6363   9.479  20.580  15.095  0.2281 -0.1420 -0.1401
  543DOPE   D2A 6364   9.606  20.404  14.715 -0.2471 -0.2137 -0.0303
  543DOPE   C3A 6365   9.419  20.300  14.308  0.1244  0.0447 -0.0251
  543DOPE   C4A 6366   9.328  19.970  14.049 -0.0136  0.1837  0.1222
  543DOPE   C1B 6367   9.383  20.024  15.101  0.0723  0.3894 -0.0111
  543DOPE   D2B 6368   9.244  19.930  14.699  0.1294 -0.2065 -0.1562
  543DOPE   C3B 6369   8.841  19.988  14.496  0.0797  0.0693 -0.1449
  543DOPE   C4B 6370   8.614  19.719  14.235 -0.1573 -0.0394  0.4213
  544DOPC   NC3 6371   1.730  11.717  15.985  0.0886  0.0832  0.0461
  544DOPC   PO4 6372   2.083  11.789  16.164 -0.1180 -0.1175 -0.1663
  544DOPC   GL1 6373   2.375  11.801  15.894  0.1432  0.5039 -0.1892
  544DOPC   GL2 6374   2.213  11.618  15.723  0.0984 -0.0649  0.0887
  544DOPC   C1A 6375   2.541  11.983  15.491 -0.1136  0.0349  0.0475
  544DOPC   D2A 6376   2.680  12.128  15.057  0.0664  0.0794 -0.1425
  544DOPC   C3A 6377   2.648  12.596  14.980 -0.0184  0.0127  0.0993
  544DOPC   C4A 6378   2.721  13.011  14.729 -0.1313 -0.2136 -0.3710
  544DOPC   C1B 6379   1.864  11.732  15.457 -0.1062 -0.1187  0.2049
  544DOPC   D2B 6380   1.717  12.005  15.108 -0.0362 -0.3296 -0.1715
  544DOPC   C3B 6381   1.762  11.813  14.705 -0.0164 -0.1484  0.2060
  544DOPC   C4B 6382   1.895  11.862  14.304  0.3536 -0.0576 -0.0164
  545DOPC   NC3 6383  10.347  16.231  15.697 -0.0228  0.3272 -0.0928
  545DOPC   PO4 6384  10.510  15.852  15.649  0.0782 -0.1288 -0.0312
  545DOPC   GL1 6385  10.643  15.678  15.286  0.1174  0.2355 -0.0624
  545DOPC   GL2 6386  10.460  15.872  15.089 -0.1271  0.1694 -0.3244
  545DOPC   C1A 6387  10.899  15.385  15.092  0.2006  0.0808  0.1988
  545DOPC   D2A 6388  10.946  15.183  14.694  0.1835  0.0064 -0.2140
  545DOPC   C3A 6389  11.080  14.777  14.563 -0.2246  0.0603 -0.0182
  545DOPC   C4A 6390  11.503  14.559  14.688  0.1599  0.1530  0.1180
  545DOPC   C1B 6391  10.302  15.616  14.797  0.1721 -0.1675 -0.0840
  545DOPC   D2B 6392  10.060  15.516  14.428 -0.0590  0.2651 -0.0087
  545DOPC   C3B 6393   9.922  15.312  14.047 -0.0867 -0.2895 -0.0610
  545DOPC   C4B 6394   9.954  15.294  13.565  0.3131 -0.4315 -0.2393
  546DOPE   NH3 6395   6.662  14.119  16.597 -0.5002  0.0800 -0.2932
  546DOPE   PO4 6396   6.884  13.915  16.459 -0.0495  0.1551  0.0695
  546DOPE   GL1 6397   6.831  14.071  16.141 -0.3881  0.1463  0.0202
  546DOPE   GL2 6398   7.020  14.154  15.947  0.1334 -0.0433 -0.1368
  546DOPE   C1A 6399   6.590  14.172  15.712 -0.0331  0.1567  0.1053
  546DOPE   D2A 6400   6.550  13.926  15.312  0.0059 -0.1157  0.2672
  546DOPE   C3A 6401   6.875  13.746  14.984 -0.1365 -0.0009 -0.0397
  546DOPE   C4A 6402   6.952  13.669  14.543 -0.3803 -0.0692 -0.1125
  546DOPE   C1B 6403   7.369  14.251  15.722 -0.0989 -0.2213  0.0887
  546DOPE   D2B 6404   7.631  14.510  15.474  0.1573 -0.0422  0.1081
  546DOPE   C3B 6405   7.757  14.394  14.992  0.0096 -0.4366  0.2166
  546DOPE   C4B 6406   7.845  14.235  14.541  0.1234 -0.1179 -0.1726
  547DOPE   NH3 6407  11.672  18.327  15.786 -0.1141  0.5798  0.2009
  547DOPE   PO4 6408  11.389  18.234  15.612  0.1006 -0.0081  0.2523
  547DOPE   GL1 6409  11.138  18.147  15.210 -0.0304 -0.0173 -0.1005
  547DOPE   GL2 6410  11.271  18.177  14.960  0.1583  0.2407 -0.0940
  547DOPE   C1A 6411  10.713  17.964  15.020 -0.6900 -0.1440  0.2271
  547DOPE   D2A 6412  10.557  17.653  14.779 -0.0526 -0.3545  0.1761
  547DOPE   C3A 6413  10.211  17.775  14.511 -0.0276  0.1278  0.1352
  547DOPE   C4A 6414  10.258  18.075  14.174 -0.0687 -0.0129  0.1400
  547DOPE   C1B 6415  11.014  17.912  14.664 -0.3412 -0.1179  0.0213
  547DOPE   D2B 6416  10.716  17.902  14.285 -0.0168  0.3267  0.1318
  547DOPE   C3B 6417  10.910  17.785  13.893 -0.0389  0.1183 -0.0231
  547DOPE   C4B 6418  11.169  17.830  13.566  0.2080 -0.0572 -0.1216
  548DOPS   CNO 6419   1.339  15.985  16.462 -0.0725  0.0726  0.0802
  548DOPS   PO4 6420   1.550  16.310  16.393  0.0364 -0.0691  0.0957
  548DOPS   GL1 6421   1.522  16.360  15.983  0.1498 -0.1513  0.1608
  548DOPS   GL2 6422   1.361  16.276  15.782  0.0141 -0.1864  0.1275
  548DOPS   C1A 6423   1.725  16.484  15.571 -0.1236  0.1136  0.2238
  548DOPS   D2A 6424   1.850  16.720  15.210  0.0698 -0.1087 -0.1774
  548DOPS   C3A 6425   1.705  17.119  15.114 -0.1535  0.2194  0.0374
  548DOPS   C4A 6426   1.305  17.346  15.153 -0.1781  0.1274  0.0147
  548DOPS   C1B 6427   1.298  16.316  15.312 -0.0151  0.1246 -0.1514
  548DOPS   D2B 6428   1.497  16.497  14.928  0.1498 -0.1654  0.1288
  548DOPS   C3B 6429   1.830  16.756  14.698  0.1220  0.1852  0.2651
  548DOPS   C4B 6430   1.821  17.101  14.402 -0.0683 -0.4667 -0.1445
  549POSM   NC3 6431   4.656  22.896  15.813  0.0942  0.1828  0.0122
  549POSM   PO4 6432   4.562  23.252  15.898 -0.1547 -0.1044  0.0300
  549POSM   AM1 6433   4.709  23.284  15.536  0.2399 -0.0862 -0.1599
  549POSM   AM2 6434   4.854  23.072  15.350  0.2007  0.1784  0.1299
  549POSM   T1A 6435   4.806  23.465  15.074 -0.0794 -0.0485  0.1141
  549POSM   C2A 6436   4.825  23.427  14.592 -0.0441  0.0807 -0.0747
  549POSM   C3A 6437   5.156  23.314  14.270 -0.0201 -0.1599  0.0215
  549POSM   C1B 6438   5.115  23.001  15.137  0.0307 -0.1266 -0.2570
  549POSM   D2B 6439   5.132  22.950  14.688 -0.1143 -0.3191  0.0995
  549POSM   C3B 6440   5.338  22.825  14.219 -0.1297 -0.0732  0.1977
  549POSM   C4B 6441   5.782  22.786  14.174  0.0772 -0.4313 -0.0754
  550DOPC   NC3 6442   0.406  16.928  16.151 -0.1186  0.1289 -0.0428
  550DOPC   PO4 6443   0.605  17.251  16.349 -0.2732 -0.1631  0.0255
  550DOPC   GL1 6444   0.702  17.368  15.873 -0.1152  0.3242 -0.0212
  550DOPC   GL2 6445   0.448  17.357  15.908 -0.0746 -0.0558 -0.0132
  550DOPC   C1A 6446   0.744  17.799  15.849  0.0993 -0.1488  0.1327
  550DOPC   D2A 6447   0.740  18.248  15.919  0.0403 -0.2816 -0.0891
  550DOPC   C3A 6448   0.326  18.292  15.728 -0.0869 -0.3577  0.1762
  550DOPC   C4A 6449   0.089  18.327  15.302 -0.0214 -0.0070  0.1152
  550DOPC   C1B 6450   0.296  17.796  15.739  0.0315  0.1464  0.1979
  550DOPC   D2B 6451   0.603  18.001  15.391 -0.0700  0.0189  0.0278
  550DOPC   C3B 6452   0.402  18.154  14.974 -0.0443  0.1672  0.3912
  550DOPC   C4B 6453   0.461  18.400  14.544 -0.3781 -0.2137 -0.1415
  551DOPC   NC3 6454   3.445  15.094  16.739 -0.1252  0.2468 -0.1007
  551DOPC   PO4 6455   3.567  15.217  16.370 -0.0422 -0.0386  0.1372
  551DOPC   GL1 6456   3.746  15.296  16.026 -0.3077 -0.1393 -0.4326
  551DOPC   GL2 6457   3.527  15.279  15.856  0.0689  0.0676 -0.1509
  551DOPC   C1A 6458   3.839  15.586  15.656  0.3485  0.1711  0.0031
  551DOPC   D2A 6459   3.884  15.631  15.201  0.2554 -0.0782 -0.1535
  551DOPC   C3A 6460   4.114  15.974  14.990  0.1051  0.2183  0.2309
  551DOPC   C4A 6461   4.402  16.305  14.948  0.0110  0.0981 -0.1661
  551DOPC   C1B 6462   3.507  15.261  15.386  0.0996  0.0600 -0.2516
  551DOPC   D2B 6463   3.709  15.144  14.999 -0.4919  0.1978 -0.2262
  551DOPC   C3B 6464   4.101  15.403  14.824  0.0248 -0.1731  0.3398
  551DOPC   C4B 6465   4.498  15.569  14.965  0.0164  0.1741 -0.3255
  552DOPS   CNO 6466   2.261  12.858  16.027  0.1437 -0.3216 -0.0334
  552DOPS   PO4 6467   2.318  13.154  15.815 -0.1520 -0.2564 -0.1171
  552DOPS   GL1 6468   2.512  12.973  15.558 -0.3927 -0.2253 -0.2602
  552DOPS   GL2 6469   2.644  13.082  15.270  0.1784  0.1406 -0.1629
  552DOPS   C1A 6470   3.005  12.819  15.497 -0.1389  0.2097 -0.0986
  552DOPS   D2A 6471   3.328  12.561  15.351 -0.0343 -0.3017  0.2296
  552DOPS   C3A 6472   3.109  12.397  14.975  0.2980 -0.0391 -0.3578
  552DOPS   C4A 6473   2.928  12.052  14.679  0.1531 -0.3363 -0.2136
  552DOPS   C1B 6474   2.839  13.408  14.980  0.3614 -0.1960 -0.1230
  552DOPS   D2B 6475   2.763  13.529  14.572 -0.2745 -0.0762  0.0768
  552DOPS   C3B 6476   2.925  13.265  14.170 -0.2406  0.2757 -0.1063
  552DOPS   C4B 6477   2.748  13.105  13.774 -0.2694 -0.0263  0.3486
  553DOPC   NC3 6478   9.785  22.973  16.268  0.2853 -0.0646 -0.5910
  553DOPC   PO4 6479   9.629  22.738  16.029  0.0965 -0.2908 -0.3951
  553DOPC   GL1 6480   9.942  22.960  15.819  0.2839 -0.0805  0.0528
  553DOPC   GL2 6481  10.161  22.897  15.889  0.0590 -0.2569  0.1877
  553DOPC   C1A 6482  10.158  22.930  15.403 -0.1945  0.1107 -0.1481
  553DOPC   D2A 6483  10.259  23.047  14.969 -0.1937  0.0812 -0.2162
  553DOPC   C3A 6484  10.374  23.502  14.918 -0.1259 -0.1216 -0.2125
  553DOPC   C4A 6485  10.640  23.827  14.713  0.4097  0.1826  0.1386
  553DOPC   C1B 6486  10.225  23.305  15.695 -0.5332 -0.2745 -0.3858
  553DOPC   D2B 6487  10.177  23.608  15.394 -0.0344  0.2153 -0.1574
  553DOPC   C3B 6488  10.262  23.954  15.094 -0.1013 -0.0044  0.1883
  553DOPC   C4B 6489  10.437  24.305  14.813  0.3015 -0.3712 -0.1827
  554POSM   NC3 6490   8.010  16.323  16.700  0.1417 -0.1600  0.0560
  554POSM   PO4 6491   8.190  16.569  16.424  0.2449 -0.1620 -0.1147
  554POSM   AM1 6492   8.430  16.528  16.234  0.1454  0.2447 -0.0175
  554POSM   AM2 6493   8.651  16.744  16.095  0.0680  0.1607 -0.0655
  554POSM   T1A 6494   8.576  16.313  15.813 -0.0806 -0.1688  0.0463
  554POSM   C2A 6495   8.792  15.952  15.665 -0.0790 -0.0396 -0.0786
  554POSM   C3A 6496   8.799  15.707  15.307 -0.3061 -0.0041  0.2379
  554POSM   C1B 6497   8.597  16.937  15.784  0.1600 -0.0450  0.0504
  554POSM   D2B 6498   8.868  17.206  15.495  0.0301 -0.0686  0.1704
  554POSM   C3B 6499   8.630  17.249  15.107 -0.1199  0.1754 -0.0340
  554POSM   C4B 6500   8.306  17.386  14.880  0.0383 -0.0266 -0.2770
  555DOPC   NC3 6501   5.339  13.167  16.129  0.0616  0.2144  0.0088
  555DOPC   PO4 6502   5.697  13.249  15.961 -0.0616  0.1938 -0.1850
  555DOPC   GL1 6503   5.795  13.199  15.574 -0.2096 -0.0899  0.0932
  555DOPC   GL2 6504   5.634  13.477  15.455 -0.1802  0.1193  0.2349
  555DOPC   C1A 6505   5.701  12.842  15.263  0.3547  0.0752  0.1706
  555DOPC   D2A 6506   5.539  12.647  14.943 -0.0199  0.1093  0.1139
  555DOPC   C3A 6507   5.749  12.484  14.529 -0.0359 -0.1660  0.1136
  555DOPC   C4A 6508   6.007  12.767  14.290 -0.0686 -0.0131  0.0267
  555DOPC   C1B 6509   5.810  13.275  15.101 -0.4543  0.2418 -0.2238
  555DOPC   D2B 6510   5.971  12.885  14.844  0.1003  0.5627  0.1240
  555DOPC   C3B 6511   6.490  12.825  15.009  0.2650 -0.0213  0.2302
  555DOPC   C4B 6512   6.770  13.075  15.318  0.1007 -0.0136 -0.1449
  556DOPC   NC3 6513   9.834  12.131  16.062  0.1283  0.3925  0.0364
  556DOPC   PO4 6514   9.434  12.079  16.112 -0.1041  0.1293  0.1525
  556DOPC   GL1 6515   9.167  12.178  15.878  0.2230  0.0891 -0.1400
  556DOPC   GL2 6516   8.946  12.020  15.885  0.0629  0.3569 -0.0553
  556DOPC   C1A 6517   9.158  12.364  15.495  0.3729 -0.1867  0.0629
  556DOPC   D2A 6518   9.108  12.391  15.008  0.1452  0.0818  0.2895
  556DOPC   C3A 6519   8.895  12.002  14.831 -0.2569  0.3214  0.1953
  556DOPC   C4A 6520   8.488  11.793  14.892  0.0840 -0.2836  0.3169
  556DOPC   C1B 6521   8.690  12.222  15.544  0.1417  0.0366 -0.1247
  556DOPC   D2B 6522   8.587  12.414  15.049  0.2023 -0.0289 -0.0760
  556DOPC   C3B 6523   8.521  12.323  14.619 -0.2566  0.1882  0.1832
  556DOPC   C4B 6524   8.230  12.451  14.220 -0.1983 -0.2611  0.1713
  557DOPE   NH3 6525   5.770  11.039  15.895 -0.1139  0.1413 -0.4750
  557DOPE   PO4 6526   6.067  10.914  15.916 -0.5131  0.3734 -0.0848
  557DOPE   GL1 6527   6.393  11.131  15.806  0.1619 -0.1104  0.1005
  557DOPE   GL2 6528   6.432  11.422  15.741 -0.0363  0.0626  0.1093
  557DOPE   C1A 6529   6.384  11.217  15.350  0.0964 -0.0047 -0.2348
  557DOPE   D2A 6530   6.479  11.023  14.960 -0.1360  0.0434  0.1467
  557DOPE   C3A 6531   6.288  11.139  14.517  0.0802  0.0038  0.0929
  557DOPE   C4A 6532   6.138  11.339  14.164 -0.1232 -0.2299  0.0959
  557DOPE   C1B 6533   6.794  11.523  15.460 -0.1146  0.2036 -0.0288
  557DOPE   D2B 6534   7.033  11.488  15.072 -0.1676 -0.3191 -0.2120
  557DOPE   C3B 6535   6.874  11.309  14.677 -0.0290  0.0971  0.0557
  557DOPE   C4B 6536   6.750  11.289  14.210  0.1676 -0.2958  0.0035
  558POSM   NC3 6537  10.420  12.551  15.933  0.2855 -0.0080  0.2435
  558POSM   PO4 6538  10.063  12.528  15.847 -0.0755 -0.3323 -0.2075
  558POSM   AM1 6539   9.994  12.652  15.569 -0.0129 -0.0608 -0.0919
  558POSM   AM2 6540   9.857  12.874  15.460 -0.0872 -0.0446 -0.1630
  558POSM   T1A 6541  10.038  12.664  15.086  0.1703 -0.0445 -0.2560
  558POSM   C2A 6542  10.029  12.530  14.656 -0.0835 -0.6021 -0.3963
  558POSM   C3A 6543  10.046  12.237  14.281 -0.1836 -0.0962 -0.1079
  558POSM   C1B 6544  10.057  13.109  15.311  0.1121 -0.1066 -0.1139
  558POSM   D2B 6545  10.085  13.547  15.114 -0.1054  0.0536 -0.1276
  558POSM   C3B 6546  10.038  13.564  14.661 -0.4058  0.0532 -0.1651
  558POSM   C4B 6547   9.877  13.454  14.238  0.0717  0.2930 -0.0071
  559POSM   NC3 6548   2.039  18.830  16.202  0.3081 -0.1757 -0.0666
  559POSM   PO4 6549   2.278  18.594  16.054 -0.1029  0.2495  0.0579
  559POSM   AM1 6550   2.309  18.622  15.760 -0.2894 -0.1810  0.0727
  559POSM   AM2 6551   2.482  18.655  15.529 -0.3101  0.2488 -0.0841
  559POSM   T1A 6552   1.984  18.734  15.438  0.1059  0.0886 -0.1742
  559POSM   C2A 6553   1.884  18.760  14.991  0.1996  0.1749 -0.0202
  559POSM   C3A 6554   1.858  18.535  14.614  0.1401 -0.0875 -0.0417
  559POSM   C1B 6555   2.754  18.699  15.397  0.1699 -0.0212  0.2284
  559POSM   D2B 6556   3.050  18.590  15.053 -0.4436 -0.4225 -0.0233
  559POSM   C3B 6557   2.885  18.758  14.675 -0.2300 -0.1282  0.1009
  559POSM   C4B 6558   2.719  18.915  14.256 -0.1309 -0.1631  0.2113
  560DOPE   NH3 6559   0.669  13.363  15.549 -0.1321  0.1570 -0.0025
  560DOPE   PO4 6560   0.807  13.153  15.382  0.0052 -0.0089  0.3641
  560DOPE   GL1 6561   0.911  13.389  15.094 -0.1604  0.2962 -0.1079
  560DOPE   GL2 6562   1.200  13.163  15.103  0.1832 -0.1047 -0.0131
  560DOPE   C1A 6563   0.901  13.422  14.630 -0.0139 -0.0061  0.1457
  560DOPE   D2A 6564   1.031  13.444  14.226  0.0976  0.1501  0.1013
  560DOPE   C3A 6565   0.792  13.345  13.871  0.1453  0.0977 -0.2986
  560DOPE   C4A 6566   0.419  13.282  13.524 -0.1695 -0.3001 -0.2288
  560DOPE   C1B 6567   1.386  13.198  14.669 -0.2711 -0.1283  0.0236
  560DOPE   D2B 6568   1.693  13.017  14.387  0.1000 -0.0639 -0.2803
  560DOPE   C3B 6569   1.935  12.663  14.341  0.2080 -0.1597  0.1891
  560DOPE   C4B 6570   1.961  12.390  14.747  0.1706 -0.4040  0.0946
  561POSM   NC3 6571   0.092  13.947  15.732  0.0451  0.1413  0.2543
  561POSM   PO4 6572   0.237  13.714  15.445  0.4942  0.3318 -0.2872
  561POSM   AM1 6573   0.425  13.611  15.191  0.1069 -0.3131  0.0601
  561POSM   AM2 6574   0.587  13.712  15.004 -0.0686 -0.0582 -0.4818
  561POSM   T1A 6575   0.463  13.302  14.789 -0.4410 -0.0586 -0.2439
  561POSM   C2A 6576   0.717  12.898  14.888 -0.0446 -0.0822  0.4004
  561POSM   C3A 6577   1.001  12.578  14.748  0.4872  0.0132 -0.2115
  561POSM   C1B 6578   0.702  13.911  14.765 -0.1564 -0.1880  0.3522
  561POSM   D2B 6579   0.604  14.102  14.345 -0.2451 -0.0444 -0.1216
  561POSM   C3B 6580   0.774  14.344  13.940 -0.0898  0.3490 -0.3555
  561POSM   C4B 6581   1.216  14.261  13.722 -0.0882 -0.2993  0.2763
  562DOPE   NH3 6582   4.213  22.324  15.681 -0.0468  0.0100  0.0591
  562DOPE   PO4 6583   4.474  22.462  15.718  0.1011  0.1641 -0.2222
  562DOPE   GL1 6584   4.567  22.596  15.449 -0.4604 -0.0092 -0.1043
  562DOPE   GL2 6585   4.411  22.846  15.365 -0.0192  0.0347  0.1230
  562DOPE   C1A 6586   4.745  22.618  15.040 -0.1335 -0.1559 -0.3310
  562DOPE   D2A 6587   4.664  22.865  14.679  0.1869 -0.3272 -0.2197
  562DOPE   C3A 6588   4.789  22.993  14.314 -0.2708 -0.2434  0.1895
  562DOPE   C4A 6589   4.713  23.317  13.985 -0.2487 -0.2675 -0.0528
  562DOPE   C1B 6590   4.441  23.156  15.060  0.0340 -0.0824 -0.1710
  562DOPE   D2B 6591   4.352  23.576  14.818  0.2551 -0.2873  0.0469
  562DOPE   C3B 6592   4.314  23.711  14.348 -0.1218  0.1533 -0.1112
  562DOPE   C4B 6593   4.291  23.738  13.900 -0.0217  0.2224 -0.0605
  563POSM   NC3 6594   0.643  16.347  16.409 -0.1993 -0.0814 -0.1882
  563POSM   PO4 6595   0.315  16.463  16.228 -0.0428  0.0466  0.1028
  563POSM   AM1 6596   0.185  16.607  15.937 -0.0102 -0.6462 -0.1008
  563POSM   AM2 6597   0.291  16.666  15.684 -0.0450  0.3946  0.1426
  563POSM   T1A 6598  -0.187  16.704  15.596 -0.0111  0.1946 -0.1315
  563POSM   C2A 6599  -0.240  16.911  15.177  0.1603 -0.3212  0.3320
  563POSM   C3A 6600  -0.400  16.896  14.737  0.1488 -0.1657  0.2161
  563POSM   C1B 6601   0.287  16.705  15.367  0.3208  0.0276 -0.3875
  563POSM   D2B 6602   0.333  16.757  14.907 -0.1103 -0.0078  0.3405
  563POSM   C3B 6603   0.149  16.887  14.513  0.4234 -0.1204 -0.0058
  563POSM   C4B 6604   0.040  17.201  14.124  0.1157 -0.0516  0.1778
  564DOPS   CNO 6605  12.023  13.734  15.603  0.0789 -0.0121 -0.2661
  564DOPS   PO4 6606  11.716  13.755  15.378  0.0998 -0.0872 -0.1444
  564DOPS   GL1 6607  11.763  13.725  15.035  0.2869  0.4052  0.0107
  564DOPS   GL2 6608  11.702  13.483  14.875 -0.1582 -0.0501  0.0901
  564DOPS   C1A 6609  11.749  14.118  14.755  0.1271  0.0957  0.0491
  564DOPS   D2A 6610  11.552  14.245  14.333  0.1978  0.0687 -0.1560
  564DOPS   C3A 6611  11.863  14.295  14.017  0.1156 -0.1499 -0.2978
  564DOPS   C4A 6612  12.161  14.217  13.636  0.1162 -0.3071  0.1096
  564DOPS   C1B 6613  11.890  13.695  14.485  0.1560 -0.0864  0.1244
  564DOPS   D2B 6614  12.125  13.454  14.177 -0.0292  0.2633  0.0536
  564DOPS   C3B 6615  11.889  13.163  13.990  0.1512 -0.0287  0.3055
  564DOPS   C4B 6616  11.787  12.732  14.148 -0.1048  0.2443 -0.1846
  565DOPC   NC3 6617   5.604  21.481  16.241  0.4153  0.0717  0.1785
  565DOPC   PO4 6618   5.447  21.735  15.966  0.0559 -0.1887  0.0529
  565DOPC   GL1 6619   5.509  21.504  15.591 -0.1381  0.0438  0.2168
  565DOPC   GL2 6620   5.295  21.572  15.416  0.0901 -0.0999  0.0352
  565DOPC   C1A 6621   5.509  21.093  15.440  0.2298  0.1081 -0.0786
  565DOPC   D2A 6622   5.636  20.704  15.198  0.0657 -0.1037  0.1154
  565DOPC   C3A 6623   5.435  20.364  14.945  0.0503 -0.0869 -0.3926
  565DOPC   C4A 6624   5.234  19.992  14.861  0.3086  0.2717  0.0756
  565DOPC   C1B 6625   5.254  21.767  14.946 -0.3178  0.0822 -0.1132
  565DOPC   D2B 6626   4.969  21.694  14.578  0.1863  0.2633 -0.1353
  565DOPC   C3B 6627   4.897  22.110  14.406  0.1520  0.3523 -0.3707
  565DOPC   C4B 6628   4.841  22.467  14.216 -0.0993 -0.0426  0.2584
  566DOPS   CNO 6629   0.812  22.117  16.422  0.0202 -0.1186  0.1253
  566DOPS   PO4 6630   0.457  22.222  16.394  0.1139 -0.0054  0.1116
  566DOPS   GL1 6631   0.467  22.091  16.055  0.1289 -0.4016 -0.0303
  566DOPS   GL2 6632   0.148  22.046  16.046 -0.0599 -0.2631  0.2465
  566DOPS   C1A 6633   0.356  22.011  15.603 -0.0462 -0.2610  0.1112
  566DOPS   D2A 6634   0.509  21.801  15.152  0.0801 -0.0717  0.0680
  566DOPS   C3A 6635   0.408  21.855  14.688 -0.1325  0.1469  0.1351
  566DOPS   C4A 6636   0.436  21.813  14.266  0.1917 -0.0046  0.0839
  566DOPS   C1B 6637  -0.155  22.225  15.693  0.2916  0.1747  0.0339
  566DOPS   D2B 6638  -0.368  22.387  15.317 -0.0231 -0.2403 -0.1743
  566DOPS   C3B 6639  -0.422  22.221  14.902  0.0132  0.2535  0.0140
  566DOPS   C4B 6640  -0.171  21.950  14.557 -0.1576 -0.2685 -0.0234
  567DOPE   NH3 6641   9.366  20.894  15.580  0.3343 -0.0290 -0.0872
  567DOPE   PO4 6642   9.362  21.145  15.766  0.1282 -0.0936  0.0037
  567DOPE   GL1 6643   9.478  21.363  15.372  0.2068  0.3937 -0.3109
  567DOPE   GL2 6644   9.735  21.178  15.404  0.0056  0.3602  0.2845
  567DOPE   C1A 6645   9.748  21.559  15.033  0.0918 -0.0907  0.0273
  567DOPE   D2A 6646  10.191  21.635  14.816 -0.0518 -0.1907 -0.0691
  567DOPE   C3A 6647  10.069  21.503  14.369 -0.1072 -0.0069  0.1006
  567DOPE   C4A 6648  10.221  21.329  14.004  0.0206 -0.1977  0.0186
  567DOPE   C1B 6649   9.565  21.059  15.010  0.1095 -0.2706 -0.3329
  567DOPE   D2B 6650   9.129  21.105  14.822 -0.2437 -0.0927  0.1156
  567DOPE   C3B 6651   8.784  20.954  14.551 -0.0797 -0.0893 -0.0284
  567DOPE   C4B 6652   8.588  20.813  14.201 -0.1100  0.0043  0.2732
  568DOPC   NC3 6653   2.031  18.266  16.321  0.1324  0.0236 -0.2463
  568DOPC   PO4 6654   1.673  18.086  16.410  0.2832  0.2480 -0.2059
  568DOPC   GL1 6655   1.651  18.195  16.016  0.0663  0.3867  0.1892
  568DOPC   GL2 6656   1.797  18.437  15.911  0.0267 -0.1026 -0.0066
  568DOPC   C1A 6657   1.578  18.021  15.619 -0.2667  0.1802 -0.0122
  568DOPC   D2A 6658   1.349  17.914  15.221 -0.1299  0.1077 -0.1138
  568DOPC   C3A 6659   0.986  18.140  15.065 -0.2465  0.0512  0.2159
  568DOPC   C4A 6660   0.959  18.556  14.855 -0.0487 -0.0509 -0.2658
  568DOPC   C1B 6661   2.061  18.228  15.572  0.0306 -0.0191 -0.1409
  568DOPC   D2B 6662   2.075  18.211  15.159 -0.1055  0.1251 -0.2780
  568DOPC   C3B 6663   2.315  17.994  14.848  0.1364  0.0492 -0.1410
  568DOPC   C4B 6664   2.586  17.882  14.466  0.2629 -0.1444  0.3249
  569DOPS   CNO 6665  34.645  14.582  15.563 -0.2432  0.4845  0.0725
  569DOPS   PO4 6666  34.908  14.429  15.790  0.1966  0.1659  0.2086
  569DOPS   GL1 6667  35.009  14.438  15.380 -0.0089 -0.2749  0.0139
  569DOPS   GL2 6668  34.805  14.172  15.299 -0.1132  0.0650 -0.2574
  569DOPS   C1A 6669  34.823  14.744  15.059  0.0721  0.2247  0.1084
  569DOPS   D2A 6670  34.798  14.860  14.630  0.1733  0.2381 -0.0711
  569DOPS   C3A 6671  34.388  15.100  14.400 -0.0661 -0.0938  0.1182
  569DOPS   C4A 6672  34.288  15.392  14.053  0.1580  0.0494  0.2233
  569DOPS   C1B 6673  34.526  14.370  14.973 -0.1763 -0.5507  0.0068
  569DOPS   D2B 6674  34.312  14.507  14.608 -0.3711  0.1800  0.0400
  569DOPS   C3B 6675  33.954  14.804  14.535 -0.1849  0.1454  0.1521
  569DOPS   C4B 6676  33.541  15.057  14.460 -0.2123 -0.1077  0.1077
  570DOPC   NC3 6677   3.103  13.453  16.157  0.1015  0.3778 -0.2505
  570DOPC   PO4 6678   3.382  13.707  16.053  0.1015  0.0846  0.1064
  570DOPC   GL1 6679   3.535  13.955  15.776  0.0836 -0.1279 -0.1875
  570DOPC   GL2 6680   3.428  14.182  15.604  0.0514  0.0982  0.1494
  570DOPC   C1A 6681   3.531  13.667  15.423  0.0042 -0.0805  0.0549
  570DOPC   D2A 6682   3.352  13.550  15.025 -0.1099  0.1969 -0.1122
  570DOPC   C3A 6683   3.179  13.788  14.664  0.2463  0.0351 -0.0443
  570DOPC   C4A 6684   2.957  13.981  14.321 -0.0522  0.0414  0.0678
  570DOPC   C1B 6685   3.382  14.067  15.131  0.0373  0.1234 -0.0583
  570DOPC   D2B 6686   3.683  13.873  14.946  0.1498 -0.0783 -0.2352
  570DOPC   C3B 6687   3.968  14.170  14.854  0.0457  0.3182  0.1644
  570DOPC   C4B 6688   4.389  14.347  14.659  0.0392  0.2329  0.1374
  571DOPE   NH3 6689  10.420  20.848  16.227  0.2769 -0.0707 -0.1994
  571DOPE   PO4 6690  10.549  20.815  15.946  0.2257  0.1007  0.0298
  571DOPE   GL1 6691  10.615  20.707  15.531  0.0120 -0.2242 -0.0785
  571DOPE   GL2 6692  10.862  20.708  15.450 -0.0766 -0.0473  0.1322
  571DOPE   C1A 6693  10.454  20.371  15.260 -0.3088 -0.1640 -0.1514
  571DOPE   D2A 6694  10.232  20.004  15.009  0.0446 -0.1922 -0.0032
  571DOPE   C3A 6695  10.098  20.255  14.628 -0.0227 -0.2828 -0.0488
  571DOPE   C4A 6696   9.957  20.417  14.225 -0.0650 -0.3475  0.1841
  571DOPE   C1B 6697  10.632  20.873  15.086  0.1874  0.2499 -0.1710
  571DOPE   D2B 6698  10.342  20.673  14.744  0.2840  0.2559 -0.1011
  571DOPE   C3B 6699  10.342  20.895  14.316  0.2111 -0.1422 -0.0730
  571DOPE   C4B 6700  10.232  20.803  13.921  0.1289 -0.4351  0.0706
  572POSM   NC3 6701   7.037  20.866  16.002 -0.4164 -0.2709 -0.1818
  572POSM   PO4 6702   6.814  21.213  15.927 -0.0540  0.0257  0.0729
  572POSM   AM1 6703   6.660  21.147  15.630  0.0875  0.3181 -0.0570
  572POSM   AM2 6704   6.509  21.261  15.429 -0.2294  0.0667  0.1386
  572POSM   T1A 6705   6.681  20.787  15.296  0.1558  0.0561 -0.0442
  572POSM   C2A 6706   6.852  20.374  15.222 -0.2433 -0.0601 -0.2017
  572POSM   C3A 6707   6.983  19.989  15.471 -0.3152  0.2389 -0.2928
  572POSM   C1B 6708   6.578  21.319  15.143  0.1294 -0.2738  0.4855
  572POSM   D2B 6709   6.607  21.594  14.748  0.1845 -0.0009  0.1278
  572POSM   C3B 6710   6.663  22.013  14.842  0.4749 -0.0861  0.3767
  572POSM   C4B 6711   6.753  22.357  14.526 -0.0672 -0.1838  0.0306
  573DOPE   NH3 6712   5.085  21.372  15.899 -0.0510  0.3708  0.2390
  573DOPE   PO4 6713   4.878  21.618  15.806 -0.0227 -0.1567  0.0466
  573DOPE   GL1 6714   4.878  21.722  15.404 -0.0878  0.1221  0.0501
  573DOPE   GL2 6715   4.617  21.608  15.376 -0.2331 -0.0603 -0.0060
  573DOPE   C1A 6716   4.912  21.446  15.043  0.1934  0.1055  0.2580
  573DOPE   D2A 6717   4.635  21.296  14.648  0.0075  0.1004  0.0234
  573DOPE   C3A 6718   4.734  20.878  14.530 -0.0166 -0.3307  0.1142
  573DOPE   C4A 6719   4.656  20.490  14.373  0.0670  0.1445 -0.0722
  573DOPE   C1B 6720   4.283  21.463  15.174 -0.2082  0.0431 -0.0036
  573DOPE   D2B 6721   4.028  21.084  15.052  0.2824 -0.3703 -0.1403
  573DOPE   C3B 6722   4.119  20.924  14.582  0.0851  0.1182  0.3059
  573DOPE   C4B 6723   4.225  21.265  14.274  0.0205 -0.0725 -0.1307
  574POSM   NC3 6724   8.089  21.057  15.949 -0.0078 -0.0805  0.0737
  574POSM   PO4 6725   7.870  21.378  15.809  0.4939  0.0784 -0.0749
  574POSM   AM1 6726   7.851  21.292  15.486 -0.4778 -0.2988  0.0863
  574POSM   AM2 6727   7.985  21.083  15.393  0.0649 -0.4296 -0.1547
  574POSM   T1A 6728   7.567  21.162  15.044 -0.0239  0.1461  0.3260
  574POSM   C2A 6729   7.466  21.372  14.680 -0.1332 -0.3858 -0.4132
  574POSM   C3A 6730   7.346  21.306  14.214  0.0559  0.0525 -0.0511
  574POSM   C1B 6731   8.038  21.076  15.075  0.0272 -0.0486  0.5010
  574POSM   D2B 6732   8.099  20.826  14.658 -0.0935  0.0420 -0.0050
  574POSM   C3B 6733   7.947  20.640  14.310 -0.1610  0.2144  0.1575
  574POSM   C4B 6734   7.941  20.455  13.893  0.5354 -0.0742 -0.1497
  575DOPC   NC3 6735   8.645  16.766  16.669 -0.0702 -0.2394  0.2186
  575DOPC   PO4 6736   8.426  17.067  16.542  0.1556  0.0574 -0.1250
  575DOPC   GL1 6737   8.255  16.979  16.175  0.2193 -0.4056  0.0498
  575DOPC   GL2 6738   8.162  16.787  15.959 -0.0096  0.2268  0.3915
  575DOPC   C1A 6739   8.234  17.291  15.917  0.2350  0.0938  0.0919
  575DOPC   D2A 6740   8.150  17.361  15.432 -0.0611  0.0079  0.0865
  575DOPC   C3A 6741   8.240  16.942  15.190  0.4808  0.3650  0.0663
  575DOPC   C4A 6742   8.598  16.764  14.950 -0.1091  0.3386  0.0833
  575DOPC   C1B 6743   7.902  16.863  15.620 -0.0668 -0.3142 -0.0661
  575DOPC   D2B 6744   7.648  16.920  15.250  0.2551  0.1376 -0.4986
  575DOPC   C3B 6745   7.831  16.996  14.829 -0.3192 -0.2615 -0.1930
  575DOPC   C4B 6746   8.199  16.956  14.614 -0.1216  0.4262 -0.0391
  576DOPE   NH3 6747   6.381  22.010  15.972 -0.1440  0.3726 -0.1328
  576DOPE   PO4 6748   6.601  22.214  16.079  0.0315  0.0651  0.3661
  576DOPE   GL1 6749   6.556  22.295  15.642  0.0464 -0.0604  0.5628
  576DOPE   GL2 6750   6.751  22.494  15.632  0.1230  0.2055  0.1358
  576DOPE   C1A 6751   6.580  22.337  15.203  0.2746  0.2175  0.1761
  576DOPE   D2A 6752   6.527  22.673  14.833  0.1795  0.2118 -0.2229
  576DOPE   C3A 6753   6.405  22.958  14.471  0.0049  0.3407  0.0530
  576DOPE   C4A 6754   6.123  23.166  14.196 -0.2822 -0.0951 -0.0421
  576DOPE   C1B 6755   7.002  22.884  15.604  0.3728  0.0339 -0.0864
  576DOPE   D2B 6756   7.334  22.928  15.218  0.4267  0.1316 -0.0447
  576DOPE   C3B 6757   7.593  22.757  14.883 -0.1261 -0.0330  0.0414
  576DOPE   C4B 6758   7.861  23.075  14.672  0.0318 -0.0704 -0.2967
  577POSM   NC3 6759   6.867  12.792  16.114  0.0406 -0.1528  0.0755
  577POSM   PO4 6760   6.919  12.392  16.127 -0.2140 -0.0587  0.1969
  577POSM   AM1 6761   6.879  12.333  15.828 -0.0799 -0.1113  0.2636
  577POSM   AM2 6762   6.908  12.511  15.572 -0.1296  0.0079 -0.1384
  577POSM   T1A 6763   6.705  12.063  15.442 -0.0613 -0.0858  0.0286
  577POSM   C2A 6764   6.608  11.774  15.068  0.2190 -0.2511 -0.1094
  577POSM   C3A 6765   6.500  11.651  14.606  0.0445 -0.2681  0.1385
  577POSM   C1B 6766   6.806  12.519  15.224  0.1488  0.0584  0.0570
  577POSM   D2B 6767   6.750  12.390  14.779  0.0288 -0.0514 -0.0467
  577POSM   C3B 6768   6.590  12.157  14.424  0.0587  0.2041  0.2499
  577POSM   C4B 6769   6.361  11.892  14.119  0.3228  0.0158  0.1410
  578DOPE   NH3 6770   9.955  21.453  15.740 -0.4362  0.2799 -0.0381
  578DOPE   PO4 6771   9.667  21.581  15.707  0.0641  0.0121 -0.0654
  578DOPE   GL1 6772   9.617  21.783  15.402  0.0975  0.0218  0.0799
  578DOPE   GL2 6773   9.708  22.099  15.403  0.2037 -0.1698  0.2172
  578DOPE   C1A 6774   9.348  21.941  15.032 -0.0239  0.1393  0.0287
  578DOPE   D2A 6775   9.327  22.091  14.545  0.0734 -0.0357  0.0973
  578DOPE   C3A 6776   8.949  22.281  14.384 -0.2184  0.2701  0.0092
  578DOPE   C4A 6777   8.641  22.238  14.051 -0.1425  0.0587 -0.1693
  578DOPE   C1B 6778   9.961  22.032  15.003 -0.0749 -0.2085 -0.3057
  578DOPE   D2B 6779   9.726  21.833  14.677 -0.5093  0.0683  0.1735
  578DOPE   C3B 6780   9.552  21.616  14.282 -0.4841 -0.0184 -0.1711
  578DOPE   C4B 6781   9.760  21.456  13.881 -0.0547 -0.1746  0.2283
  579DOPE   NH3 6782   0.549  14.809  15.672  0.0474  0.0486  0.2026
  579DOPE   PO4 6783   0.286  14.998  15.720  0.0286  0.0021  0.1403
  579DOPE   GL1 6784   0.434  15.260  15.460  0.2562 -0.0343  0.4229
  579DOPE   GL2 6785   0.672  15.265  15.455 -0.2132  0.1910  0.3282
  579DOPE   C1A 6786   0.445  15.710  15.424 -0.1737 -0.1101  0.4033
  579DOPE   D2A 6787   0.258  16.138  15.488 -0.2341  0.2747  0.0280
  579DOPE   C3A 6788  -0.003  16.352  15.209  0.2529 -0.2007 -0.0119
  579DOPE   C4A 6789  -0.121  16.407  14.743 -0.3374  0.1416  0.2563
  579DOPE   C1B 6790   1.091  15.259  15.267  0.0167  0.1772  0.0828
  579DOPE   D2B 6791   1.445  15.405  14.960  0.1094 -0.1018 -0.2352
  579DOPE   C3B 6792   1.590  15.867  14.895 -0.1195  0.5379  0.2955
  579DOPE   C4B 6793   1.877  16.117  14.701 -0.2347 -0.0466  0.0881
  580DOPE   NH3 6794   8.942  18.997  16.267 -0.1194 -0.1158 -0.2253
  580DOPE   PO4 6795   8.705  19.145  16.146 -0.0407 -0.0988  0.2231
  580DOPE   GL1 6796   8.341  19.303  15.980  0.1698 -0.3927 -0.3310
  580DOPE   GL2 6797   8.365  19.255  15.692 -0.4043  0.1062 -0.0135
  580DOPE   C1A 6798   7.906  19.509  15.950  0.2140  0.3157  0.1744
  580DOPE   D2A 6799   7.491  19.469  15.760  0.0006 -0.1632 -0.0025
  580DOPE   C3A 6800   7.400  19.359  15.280  0.2834  0.0595  0.0638
  580DOPE   C4A 6801   7.282  19.669  15.016 -0.1965 -0.0292  0.0096
  580DOPE   C1B 6802   8.356  18.905  15.377  0.1149  0.0777  0.1040
  580DOPE   D2B 6803   8.450  18.447  15.322 -0.1886  0.2842 -0.0471
  580DOPE   C3B 6804   8.419  18.414  14.897 -0.0360  0.0045  0.0224
  580DOPE   C4B 6805   8.369  18.613  14.495  0.1156  0.1058  0.2651
  581DOPE   NH3 6806   1.187  13.146  15.705  0.1571  0.0983  0.2984
  581DOPE   PO4 6807   1.120  12.920  15.926 -0.0745 -0.0803 -0.4783
  581DOPE   GL1 6808   1.155  12.567  15.618  0.2532  0.1598  0.1868
  581DOPE   GL2 6809   1.008  12.661  15.340 -0.0993  0.2333  0.3165
  581DOPE   C1A 6810   0.920  12.188  15.534 -0.0824  0.4094 -0.0373
  581DOPE   D2A 6811   0.854  11.766  15.535  0.0983  0.2870 -0.2068
  581DOPE   C3A 6812   0.946  11.480  15.157 -0.0288 -0.0025  0.0921
  581DOPE   C4A 6813   1.087  11.065  14.965  0.0427 -0.3839  0.0280
  581DOPE   C1B 6814   1.329  12.386  15.154  0.0198  0.2108  0.1259
  581DOPE   D2B 6815   1.468  12.226  14.731  0.1887 -0.0180  0.0568
  581DOPE   C3B 6816   1.057  12.144  14.487 -0.1277  0.1278 -0.0329
  581DOPE   C4B 6817   0.657  12.168  14.210  0.0758  0.0446 -0.0458
  582POSM   NC3 6818   9.605  13.934  16.226 -0.0641 -0.0904  0.0858
  582POSM   PO4 6819   9.315  14.179  16.241 -0.0788  0.2734 -0.1422
  582POSM   AM1 6820   9.340  14.108  15.922 -0.0981 -0.1320  0.1463
  582POSM   AM2 6821   9.125  14.133  15.719  0.0489 -0.0161 -0.4084
  582POSM   T1A 6822   9.499  14.112  15.391 -0.5044 -0.3488  0.2071
  582POSM   C2A 6823   9.185  14.312  15.130 -0.3101 -0.1011  0.2195
  582POSM   C3A 6824   9.168  14.586  14.745  0.5732  0.0349  0.1548
  582POSM   C1B 6825   8.900  14.055  15.481  0.3860  0.0444  0.0602
  582POSM   D2B 6826   8.698  14.232  15.098  0.0061 -0.0056  0.2985
  582POSM   C3B 6827   8.909  14.093  14.724  0.0141 -0.0527  0.0477
  582POSM   C4B 6828   9.113  14.012  14.334 -0.3881  0.2722  0.1442
  583DOPE   NH3 6829   8.886  20.326  15.892 -0.2830 -0.3896  0.0134
  583DOPE   PO4 6830   8.615  20.132  15.901 -0.1908 -0.0622 -0.2685
  583DOPE   GL1 6831   8.649  20.025  15.587  0.0449 -0.0865 -0.1525
  583DOPE   GL2 6832   8.887  20.134  15.447  0.1237 -0.1632  0.1591
  583DOPE   C1A 6833   8.493  19.621  15.319 -0.5071  0.2644  0.2542
  583DOPE   D2A 6834   8.116  19.404  15.189  0.1669 -0.0932 -0.0534
  583DOPE   C3A 6835   7.863  19.698  15.445 -0.0340  0.0628 -0.0372
  583DOPE   C4A 6836   7.446  19.882  15.426 -0.0969 -0.5722 -0.0530
  583DOPE   C1B 6837   8.908  20.219  14.999  0.1361 -0.3510  0.2483
  583DOPE   D2B 6838   9.087  20.409  14.628 -0.1533  0.1618  0.0789
  583DOPE   C3B 6839   8.869  20.336  14.181  0.0339 -0.0258  0.0284
  583DOPE   C4B 6840   8.725  20.046  13.871 -0.2448 -0.0704  0.0381
  584DOPE   NH3 6841   9.588  22.221  15.880  0.0583  0.0909 -0.0539
  584DOPE   PO4 6842   9.320  22.400  15.779 -0.0440  0.0990  0.0239
  584DOPE   GL1 6843   9.484  22.680  15.551 -0.0165  0.0791 -0.0811
  584DOPE   GL2 6844   9.803  22.604  15.496 -0.1197  0.2549  0.1396
  584DOPE   C1A 6845   9.360  22.884  15.142  0.0338  0.0458 -0.0695
  584DOPE   D2A 6846   9.280  22.895  14.729  0.4215  0.1472  0.1305
  584DOPE   C3A 6847   9.368  22.554  14.383  0.0314  0.1153 -0.0106
  584DOPE   C4A 6848   9.246  22.384  13.977 -0.2304  0.2287  0.1625
  584DOPE   C1B 6849   9.915  22.706  15.025 -0.1389 -0.1071 -0.1549
  584DOPE   D2B 6850  10.283  22.442  14.800  0.0313  0.1154  0.0172
  584DOPE   C3B 6851  10.501  22.786  14.502  0.4455  0.1042 -0.2732
  584DOPE   C4B 6852  10.743  23.138  14.180  0.0776 -0.0255 -0.0698
  585POSM   NC3 6853   8.085  15.521  16.724  0.2137 -0.0298 -0.2474
  585POSM   PO4 6854   8.349  15.808  16.690 -0.0525  0.0462  0.2238
  585POSM   AM1 6855   8.282  15.940  16.378  0.5243 -0.1946  0.0017
  585POSM   AM2 6856   8.149  16.131  16.198 -0.2088 -0.1967  0.2580
  585POSM   T1A 6857   8.273  15.789  15.892  0.3261  0.0205  0.0310
  585POSM   C2A 6858   8.381  16.007  15.482 -0.2997 -0.2990  0.2182
  585POSM   C3A 6859   8.453  15.905  15.025  0.1075  0.0046 -0.1116
  585POSM   C1B 6860   8.094  16.283  15.872  0.0362  0.0890 -0.3212
  585POSM   D2B 6861   8.310  16.542  15.506 -0.3577  0.0697  0.1641
  585POSM   C3B 6862   8.237  16.457  15.030  0.0293 -0.2652  0.2264
  585POSM   C4B 6863   8.058  16.149  14.738 -0.0309 -0.1325  0.2103
  586DOPC   NC3 6864   2.786  20.179  16.272 -0.0391 -0.0170  0.1946
  586DOPC   PO4 6865   3.038  19.883  16.331 -0.0537 -0.4521  0.1277
  586DOPC   GL1 6866   2.860  19.786  15.995 -0.2859  0.0822 -0.5680
  586DOPC   GL2 6867   3.071  19.883  15.790 -0.0905  0.0333  0.0947
  586DOPC   C1A 6868   2.884  19.416  15.781  0.2500 -0.2546 -0.2580
  586DOPC   D2A 6869   3.124  19.235  15.438 -0.2850  0.1690 -0.0399
  586DOPC   C3A 6870   2.901  19.046  15.098 -0.0995  0.0832  0.0872
  586DOPC   C4A 6871   2.670  19.245  14.715  0.1149  0.3407 -0.3241
  586DOPC   C1B 6872   2.917  19.699  15.363  0.1655 -0.3001 -0.0901
  586DOPC   D2B 6873   2.845  19.608  15.006 -0.2769  0.1204 -0.1943
  586DOPC   C3B 6874   2.741  19.706  14.573  0.3866 -0.1024  0.2448
  586DOPC   C4B 6875   2.518  19.889  14.234  0.1196  0.0007  0.0475
  587DOPE   NH3 6876   1.426  13.830  15.466 -0.1497 -0.1330 -0.1882
  587DOPE   PO4 6877   1.298  13.539  15.402  0.2215 -0.0131  0.1102
  587DOPE   GL1 6878   1.663  13.613  15.115  0.0802 -0.1117  0.1265
  587DOPE   GL2 6879   1.915  13.756  15.202 -0.1216 -0.0203  0.1219
  587DOPE   C1A 6880   1.787  13.664  14.682 -0.0724 -0.0288 -0.0433
  587DOPE   D2A 6881   1.868  13.827  14.261  0.3350  0.1255 -0.1427
  587DOPE   C3A 6882   1.719  14.151  13.935 -0.1222  0.2106  0.1206
  587DOPE   C4A 6883   1.631  14.324  13.507  0.1337  0.0171 -0.1769
  587DOPE   C1B 6884   1.688  14.104  14.979  0.0058 -0.1210 -0.0120
  587DOPE   D2B 6885   1.691  14.514  14.782 -0.1470  0.2494 -0.1332
  587DOPE   C3B 6886   2.104  14.768  14.715  0.2126 -0.1273 -0.0892
  587DOPE   C4B 6887   2.242  15.152  14.476  0.2276 -0.2393  0.2381
  588DOPC   NC3 6888  10.765  16.972  15.977  0.0148  0.1809 -0.1959
  588DOPC   PO4 6889  10.684  16.716  15.739  0.0394  0.0289  0.3389
  588DOPC   GL1 6890  10.679  16.920  15.402  0.1869 -0.0056 -0.0936
  588DOPC   GL2 6891  10.759  16.826  15.191  0.7151  0.0033  0.0580
  588DOPC   C1A 6892  10.302  17.009  15.156  0.3382  0.1990 -0.0392
  588DOPC   D2A 6893  10.078  17.122  14.755 -0.0199 -0.1746 -0.0604
  588DOPC   C3A 6894  10.240  16.867  14.509  0.0588  0.0878  0.0240
  588DOPC   C4A 6895  10.425  16.537  14.316 -0.1964 -0.1992 -0.1183
  588DOPC   C1B 6896  10.744  16.479  14.848  0.0415  0.1365 -0.1537
  588DOPC   D2B 6897  10.872  15.998  14.824 -0.0228 -0.0664  0.0280
  588DOPC   C3B 6898  10.748  15.662  14.488 -0.0230 -0.1246 -0.0646
  588DOPC   C4B 6899  10.962  15.355  14.206  0.1172 -0.3536  0.1466
  589POSM   NC3 6900   2.332  11.164  15.951 -0.1803  0.1441 -0.2004
  589POSM   PO4 6901   1.940  11.275  16.065 -0.0800 -0.1762 -0.0984
  589POSM   AM1 6902   1.837  11.343  15.735 -0.1916 -0.5451 -0.1968
  589POSM   AM2 6903   1.907  11.261  15.488  0.0901  0.0998  0.3460
  589POSM   T1A 6904   1.399  11.508  15.609 -0.1728  0.0842 -0.3978
  589POSM   C2A 6905   1.305  11.885  15.354 -0.0534  0.0139  0.0705
  589POSM   C3A 6906   0.970  12.108  15.054 -0.0003  0.3078 -0.0289
  589POSM   C1B 6907   1.933  11.335  15.137 -0.1366 -0.2614 -0.0223
  589POSM   D2B 6908   2.043  11.411  14.704  0.0950 -0.0956 -0.0320
  589POSM   C3B 6909   1.896  11.324  14.298 -0.0295  0.0924  0.0366
  589POSM   C4B 6910   2.121  11.117  13.987  0.0661  0.1593  0.0975
  590DOPE   NH3 6911   8.295  14.125  16.533 -0.0361 -0.2552 -0.0540
  590DOPE   PO4 6912   7.967  14.110  16.414  0.0546  0.3269  0.0242
  590DOPE   GL1 6913   8.174  14.330  16.123  0.1694 -0.3564  0.2980
  590DOPE   GL2 6914   8.163  14.655  16.212  0.0157  0.0690  0.1071
  590DOPE   C1A 6915   8.072  14.473  15.660 -0.1031 -0.3952  0.0578
  590DOPE   D2A 6916   8.056  14.708  15.263  0.0065  0.5668 -0.1330
  590DOPE   C3A 6917   8.191  14.531  14.835 -0.3221  0.0424  0.0291
  590DOPE   C4A 6918   8.370  14.105  14.681 -0.1676  0.1102 -0.1548
  590DOPE   C1B 6919   8.275  14.940  15.913 -0.2779 -0.0812  0.0620
  590DOPE   D2B 6920   8.486  15.336  15.703 -0.0960  0.0262  0.2787
  590DOPE   C3B 6921   8.526  15.313  15.193 -0.2764  0.0885  0.3356
  590DOPE   C4B 6922   8.629  15.485  14.787  0.1905 -0.1987 -0.0030
  591DOPE   NH3 6923  10.097  15.476  15.843 -0.2563 -0.2228  0.2837
  591DOPE   PO4 6924   9.993  15.706  15.590  0.0260 -0.0934 -0.2233
  591DOPE   GL1 6925   9.926  15.832  15.213 -0.3920  0.0547  0.1225
  591DOPE   GL2 6926   9.881  15.643  15.006 -0.0205 -0.2650 -0.3152
  591DOPE   C1A 6927  10.072  16.073  14.855  0.0061 -0.2361 -0.1111
  591DOPE   D2A 6928  10.418  16.137  14.558 -0.0759 -0.1109  0.0554
  591DOPE   C3A 6929  10.284  15.984  14.130 -0.2304 -0.3253  0.2190
  591DOPE   C4A 6930  10.178  15.885  13.684  0.0221  0.2839 -0.0762
  591DOPE   C1B 6931   9.689  15.296  14.742 -0.1400 -0.2375 -0.1763
  591DOPE   D2B 6932   9.328  15.166  14.561  0.3395 -0.1328  0.3201
  591DOPE   C3B 6933   9.400  15.265  14.135 -0.4367 -0.1311  0.2049
  591DOPE   C4B 6934   9.551  15.520  13.748 -0.1903  0.1193  0.0965
  592POSM   NC3 6935   3.077  12.285  16.314  0.0373 -0.2587 -0.1030
  592POSM   PO4 6936   3.401  12.442  16.232 -0.1096 -0.0061 -0.0696
  592POSM   AM1 6937   3.580  12.471  15.939 -0.1094  0.0379  0.1890
  592POSM   AM2 6938   3.605  12.361  15.706  0.0247 -0.1160  0.0050
  592POSM   T1A 6939   3.751  12.828  15.606  0.1031  0.2167  0.1653
  592POSM   C2A 6940   3.854  13.143  15.278 -0.1715  0.1693  0.2449
  592POSM   C3A 6941   3.789  13.342  14.868 -0.5132  0.0312  0.0004
  592POSM   C1B 6942   3.941  12.300  15.622 -0.0555 -0.0203  0.0098
  592POSM   D2B 6943   4.203  12.015  15.413 -0.0695 -0.0696 -0.2892
  592POSM   C3B 6944   4.021  11.978  14.979 -0.3816  0.0385  0.0400
  592POSM   C4B 6945   3.883  12.195  14.576  0.1146 -0.2616  0.1203
  593DOPS   CNO 6946   7.007  13.237  16.207  0.2206  0.0823  0.2157
  593DOPS   PO4 6947   7.313  13.487  16.157 -0.1308  0.3495 -0.0056
  593DOPS   GL1 6948   7.516  13.516  15.741  0.0831  0.2371 -0.1059
  593DOPS   GL2 6949   7.485  13.760  15.641 -0.1290  0.5001  0.1174
  593DOPS   C1A 6950   7.663  13.289  15.339  0.0234  0.0378 -0.0754
  593DOPS   D2A 6951   7.753  12.910  15.071  0.1880 -0.1326 -0.4263
  593DOPS   C3A 6952   8.073  12.591  14.938  0.1392 -0.1357  0.1660
  593DOPS   C4A 6953   7.916  12.280  14.655  0.0967 -0.1295  0.0621
  593DOPS   C1B 6954   7.446  13.825  15.199 -0.0008  0.1826 -0.2295
  593DOPS   D2B 6955   7.374  13.973  14.737  0.3495  0.2726  0.4126
  593DOPS   C3B 6956   7.491  13.689  14.465 -0.0857 -0.1121 -0.0450
  593DOPS   C4B 6957   7.310  13.616  14.040 -0.1829 -0.1500 -0.0162
  594DOPC   NC3 6958   3.010  22.003  15.667  0.3239 -0.4667 -0.2985
  594DOPC   PO4 6959   3.014  22.279  15.938 -0.0855  0.0472  0.1182
  594DOPC   GL1 6960   3.081  22.448  15.622  0.2313  0.6246 -0.2715
  594DOPC   GL2 6961   2.989  22.395  15.371 -0.2179 -0.0710  0.0836
  594DOPC   C1A 6962   3.528  22.400  15.485  0.0752  0.3712  0.2840
  594DOPC   D2A 6963   3.720  22.254  15.105  0.0954 -0.0581  0.1274
  594DOPC   C3A 6964   3.972  22.328  14.681  0.4034  0.0465  0.0497
  594DOPC   C4A 6965   4.404  22.482  14.481  0.1583  0.0252 -0.1341
  594DOPC   C1B 6966   3.016  22.595  14.899  0.0542  0.0072  0.1048
  594DOPC   D2B 6967   3.209  22.953  14.670 -0.1543 -0.3389 -0.1017
  594DOPC   C3B 6968   3.637  22.823  14.466  0.3180 -0.0043 -0.3607
  594DOPC   C4B 6969   3.878  22.862  14.098 -0.1417  0.0161 -0.1653
  595POSM   NC3 6970   5.294  18.213  16.691  0.5363  0.0054 -0.1986
  595POSM   PO4 6971   5.446  17.831  16.655  0.0886 -0.1781  0.2291
  595POSM   AM1 6972   5.437  17.932  16.332 -0.0897  0.1340 -0.0791
  595POSM   AM2 6973   5.399  18.153  16.164 -0.1981 -0.0375 -0.0857
  595POSM   T1A 6974   5.547  17.767  15.842  0.1612 -0.2354 -0.3611
  595POSM   C2A 6975   5.305  17.575  15.437  0.1409  0.1276 -0.0449
  595POSM   C3A 6976   4.978  17.390  15.125 -0.0821  0.0615  0.3569
  595POSM   C1B 6977   5.227  18.317  15.903 -0.0621  0.1775  0.2021
  595POSM   D2B 6978   5.181  18.472  15.480  0.2747 -0.1052  0.0252
  595POSM   C3B 6979   5.295  18.236  15.101 -0.0891  0.0094 -0.2028
  595POSM   C4B 6980   5.209  17.813  15.038 -0.0136 -0.3325 -0.2254
  596DOPE   NH3 6981   6.229  13.504  16.336 -0.1716 -0.2720 -0.4052
  596DOPE   PO4 6982   6.519  13.586  16.374  0.1168  0.2279  0.4743
  596DOPE   GL1 6983   6.860  13.631  16.032 -0.1903 -0.0203  0.0965
  596DOPE   GL2 6984   6.684  13.435  15.943 -0.4217  0.3053 -0.0690
  596DOPE   C1A 6985   6.888  13.759  15.617  0.0192 -0.6082 -0.0104
  596DOPE   D2A 6986   7.053  14.104  15.379 -0.0074 -0.0430  0.1080
  596DOPE   C3A 6987   7.285  14.403  15.128 -0.2977 -0.0092 -0.0559
  596DOPE   C4A 6988   7.347  14.447  14.672  0.0503 -0.0890  0.0416
  596DOPE   C1B 6989   6.407  13.707  15.737 -0.0141 -0.1554 -0.1361
  596DOPE   D2B 6990   6.025  13.858  15.494 -0.1563  0.0227  0.0836
  596DOPE   C3B 6991   5.930  13.778  15.023 -0.2678 -0.2148 -0.0969
  596DOPE   C4B 6992   5.981  13.743  14.587 -0.1143 -0.1909 -0.4072
  597DOPS   CNO 6993   5.181  11.775  16.417 -0.0116  0.2177  0.2953
  597DOPS   PO4 6994   5.524  11.675  16.329 -0.1080  0.1897 -0.0088
  597DOPS   GL1 6995   5.455  11.621  15.904  0.1736  0.4289  0.1049
  597DOPS   GL2 6996   5.712  11.633  15.833  0.0770  0.0403 -0.0237
  597DOPS   C1A 6997   5.405  11.673  15.455 -0.1391  0.2502  0.0226
  597DOPS   D2A 6998   5.428  12.093  15.268  0.0207 -0.1460 -0.0490
  597DOPS   C3A 6999   5.202  12.223  14.913  0.0747 -0.0644  0.1607
  597DOPS   C4A 7000   5.198  12.529  14.522 -0.1752 -0.1064 -0.2886
  597DOPS   C1B 7001   5.546  12.082  15.752 -0.0296  0.1707 -0.1014
  597DOPS   D2B 7002   5.556  12.535  15.606  0.0876 -0.1993  0.2912
  597DOPS   C3B 7003   5.175  12.665  15.339 -0.1663  0.2634 -0.2584
  597DOPS   C4B 7004   5.078  12.873  14.871  0.0720  0.0429 -0.1541
  598DOPS   CNO 7005   6.406  21.945  16.471  0.0182  0.0036  0.0665
  598DOPS   PO4 7006   6.083  21.791  16.300 -0.0567  0.2595 -0.0345
  598DOPS   GL1 7007   5.951  21.816  15.951 -0.2210 -0.1934 -0.1036
  598DOPS   GL2 7008   5.939  21.538  15.885  0.3132  0.0874 -0.1021
  598DOPS   C1A 7009   5.888  21.887  15.502 -0.1211  0.0445 -0.3718
  598DOPS   D2A 7010   5.743  21.664  15.141  0.0394 -0.3217  0.2458
  598DOPS   C3A 7011   5.427  21.310  14.971  0.2693 -0.2468  0.1648
  598DOPS   C4A 7012   5.178  21.263  14.617  0.0658 -0.1014 -0.1164
  598DOPS   C1B 7013   5.925  21.370  15.495 -0.1302 -0.0330 -0.1738
  598DOPS   D2B 7014   6.090  21.275  15.036  0.2525  0.0297  0.4802
  598DOPS   C3B 7015   5.811  21.017  14.754 -0.1374 -0.1322 -0.0591
  598DOPS   C4B 7016   5.538  21.066  14.325 -0.0457 -0.2196  0.3953
  599DOPE   NH3 7017  11.251  12.130  16.272  0.0293 -0.1755  0.2241
  599DOPE   PO4 7018  11.446  12.216  16.030  0.3353  0.0400 -0.0859
  599DOPE   GL1 7019  11.537  12.233  15.649  0.1513  0.0473  0.1508
  599DOPE   GL2 7020  11.738  12.058  15.523 -0.2197 -0.0321  0.2516
  599DOPE   C1A 7021  11.463  12.425  15.181  0.2299  0.0251  0.2127
  599DOPE   D2A 7022  11.518  12.612  14.764  0.0486 -0.1198 -0.0291
  599DOPE   C3A 7023  11.185  12.554  14.503  0.0089  0.0900 -0.0505
  599DOPE   C4A 7024  11.100  12.545  14.041  0.1165  0.2512  0.0548
  599DOPE   C1B 7025  11.508  11.879  15.240  0.0541  0.4316 -0.1209
  599DOPE   D2B 7026  11.286  11.746  14.864 -0.1005  0.3302 -0.0877
  599DOPE   C3B 7027  10.800  11.698  14.798 -0.0020 -0.1427  0.3662
  599DOPE   C4B 7028  10.385  11.524  14.796  0.0436  0.4900  0.1114
  600DOPC   NC3 7029   6.156  15.047  16.582  0.3501 -0.0846  0.0019
  600DOPC   PO4 7030   6.265  14.914  16.209 -0.0831 -0.3488 -0.3190
  600DOPC   GL1 7031   6.228  14.745  15.856  0.0811 -0.2512  0.2413
  600DOPC   GL2 7032   6.244  14.491  15.963 -0.0239  0.1052  0.1612
  600DOPC   C1A 7033   6.117  14.414  15.505 -0.1500  0.1916  0.2491
  600DOPC   D2A 7034   6.285  14.359  15.098 -0.0312  0.0870 -0.5111
  600DOPC   C3A 7035   6.368  13.997  14.857 -0.0593 -0.0463  0.0330
  600DOPC   C4A 7036   6.453  13.727  14.462  0.1605  0.2336 -0.0405
  600DOPC   C1B 7037   5.918  14.175  15.899  0.0267 -0.0134 -0.1958
  600DOPC   D2B 7038   5.562  14.094  15.648 -0.0222 -0.0221  0.4329
  600DOPC   C3B 7039   5.664  14.221  15.201 -0.3764 -0.3109 -0.2255
  600DOPC   C4B 7040   5.429  14.067  14.835 -0.1429  0.0029 -0.2066
  601DOPS   CNO 7041  10.396  17.916  15.916  0.1320  0.0074  0.1735
  601DOPS   PO4 7042  10.483  17.659  15.680 -0.2276  0.1969  0.0395
  601DOPS   GL1 7043  10.549  17.631  15.306  0.5345  0.0818  0.3665
  601DOPS   GL2 7044  10.281  17.516  15.232 -0.1152 -0.1839  0.0836
  601DOPS   C1A 7045  10.725  17.282  15.066 -0.0121  0.0827 -0.1728
  601DOPS   D2A 7046  10.714  16.989  14.711  0.1899  0.0962 -0.0687
  601DOPS   C3A 7047  11.140  17.019  14.482 -0.1810  0.0161  0.2062
  601DOPS   C4A 7048  11.539  16.927  14.319  0.1447 -0.0068  0.1228
  601DOPS   C1B 7049  10.119  17.876  15.015 -0.0982 -0.0949 -0.1286
  601DOPS   D2B 7050  10.349  18.303  14.814 -0.0735  0.0491  0.2167
  601DOPS   C3B 7051  10.294  18.490  14.417  0.0498  0.2420  0.2483
  601DOPS   C4B 7052  10.386  18.693  14.005  0.3243  0.0606 -0.0158
  602DOPE   NH3 7053   2.951  21.281  16.107  0.0582  0.0603 -0.0819
  602DOPE   PO4 7054   2.959  21.591  15.967  0.0989 -0.0372 -0.1320
  602DOPE   GL1 7055   3.167  21.554  15.604  0.2375 -0.0936  0.0290
  602DOPE   GL2 7056   3.118  21.237  15.587 -0.1158  0.0197  0.0806
  602DOPE   C1A 7057   3.491  21.891  15.404 -0.3946 -0.0128  0.0047
  602DOPE   D2A 7058   4.000  21.913  15.478 -0.0223  0.2717 -0.3633
  602DOPE   C3A 7059   4.114  21.958  15.025  0.4111  0.1393 -0.0352
  602DOPE   C4A 7060   4.478  22.091  14.762  0.1937 -0.0634 -0.1084
  602DOPE   C1B 7061   3.332  21.012  15.241  0.2067  0.0461  0.2590
  602DOPE   D2B 7062   3.142  20.853  14.851  0.3174 -0.5188 -0.6668
  602DOPE   C3B 7063   2.899  20.440  14.879 -0.1818  0.0474  0.0326
  602DOPE   C4B 7064   2.538  20.249  14.629  0.2023  0.4100 -0.2936
  603DOPE   NH3 7065   8.224  20.428  15.665  0.1339 -0.1029  0.2448
  603DOPE   PO4 7066   8.511  20.437  15.498  0.1073 -0.1018 -0.0253
  603DOPE   GL1 7067   8.468  20.218  15.212 -0.2923 -0.2586 -0.0744
  603DOPE   GL2 7068   8.242  20.031  15.345  0.1088 -0.3568 -0.1504
  603DOPE   C1A 7069   8.441  20.031  14.795  0.0595  0.1337 -0.2521
  603DOPE   D2A 7070   8.144  19.837  14.491  0.1577 -0.0260 -0.0249
  603DOPE   C3A 7071   7.989  19.447  14.438  0.0391 -0.0274  0.1771
  603DOPE   C4A 7072   7.831  19.029  14.321  0.0291 -0.0807 -0.1230
  603DOPE   C1B 7073   8.069  19.818  14.949  0.0351 -0.2777 -0.1580
  603DOPE   D2B 7074   7.715  19.488  14.893  0.0231 -0.0559  0.1755
  603DOPE   C3B 7075   7.426  19.263  14.563  0.0172 -0.1147  0.0317
  603DOPE   C4B 7076   7.413  19.188  14.098 -0.0078  0.1931  0.0521
  604DOPE   NH3 7077   6.473  16.351  16.625 -0.2683  0.5368  0.2389
  604DOPE   PO4 7078   6.628  16.619  16.589  0.1823  0.1189 -0.3444
  604DOPE   GL1 7079   6.939  16.672  16.359 -0.0571 -0.2114  0.3182
  604DOPE   GL2 7080   7.122  16.911  16.381  0.3610 -0.0498  0.1355
  604DOPE   C1A 7081   7.063  16.545  15.903  0.1737 -0.0120  0.1090
  604DOPE   D2A 7082   7.311  16.235  15.575  0.0847 -0.2582 -0.1038
  604DOPE   C3A 7083   7.349  16.483  15.201  0.0307 -0.0874  0.0443
  604DOPE   C4A 7084   7.283  16.811  14.837 -0.0574 -0.4476  0.1011
  604DOPE   C1B 7085   6.987  17.099  15.924  0.2934  0.0456 -0.3078
  604DOPE   D2B 7086   7.174  17.488  15.750  0.3376 -0.0247  0.0010
  604DOPE   C3B 7087   6.997  17.760  15.401 -0.2224  0.0246  0.1220
  604DOPE   C4B 7088   7.152  17.765  14.935 -0.1649  0.0598  0.1865
  605DOPC   NC3 7089  11.157  21.826  16.564 -0.1968  0.2258 -0.0016
  605DOPC   PO4 7090  11.213  21.849  16.138 -0.0444 -0.0348  0.0156
  605DOPC   GL1 7091  11.198  21.918  15.729 -0.2988 -0.1667 -0.0575
  605DOPC   GL2 7092  11.025  22.175  15.726 -0.1857  0.2306  0.2969
  605DOPC   C1A 7093  11.480  21.927  15.372  0.0620  0.0785  0.2767
  605DOPC   D2A 7094  11.644  22.018  14.975 -0.0667  0.0936  0.2511
  605DOPC   C3A 7095  11.749  22.131  14.489  0.1394  0.0016 -0.2871
  605DOPC   C4A 7096  11.638  21.944  14.073  0.4490 -0.2012  0.1284
  605DOPC   C1B 7097  11.038  22.362  15.324 -0.3885 -0.2009  0.1675
  605DOPC   D2B 7098  11.367  22.693  15.084 -0.1532  0.2378  0.0900
  605DOPC   C3B 7099  11.427  22.394  14.793 -0.0160 -0.4251 -0.0441
  605DOPC   C4B 7100  11.268  22.054  14.514  0.2082  0.0326 -0.3314
  606POSM   NC3 7101   2.773  18.042  16.158 -0.0776 -0.0714  0.2790
  606POSM   PO4 7102   2.416  18.050  16.264  0.1345 -0.2537 -0.0265
  606POSM   AM1 7103   2.243  18.002  16.036 -0.2082  0.1311  0.0398
  606POSM   AM2 7104   2.028  17.886  15.938  0.1344 -0.0722  0.0224
  606POSM   T1A 7105   2.384  17.867  15.575  0.2115 -0.3155 -0.0556
  606POSM   C2A 7106   2.566  17.672  15.199  0.0953  0.0117 -0.1517
  606POSM   C3A 7107   2.468  17.526  14.802 -0.0096  0.1016  0.0450
  606POSM   C1B 7108   1.836  17.672  15.890  0.0948 -0.3235  0.1559
  606POSM   D2B 7109   1.749  17.224  15.864 -0.0509  0.1305 -0.3691
  606POSM   C3B 7110   1.601  16.975  15.544  0.2333  0.0699  0.0044
  606POSM   C4B 7111   1.318  16.856  15.173 -0.2479  0.0479 -0.0486
  607POSM   NC3 7112   0.205  21.724  16.451 -0.0501 -0.0060 -0.2537
  607POSM   PO4 7113  -0.076  21.516  16.328 -0.2474  0.2856  0.1039
  607POSM   AM1 7114  -0.232  21.382  16.106  0.1361  0.1938  0.1998
  607POSM   AM2 7115  -0.201  21.137  15.936 -0.1761  0.0595 -0.1335
  607POSM   T1A 7116  -0.533  21.367  15.704 -0.0018  0.0329  0.1238
  607POSM   C2A 7117  -0.836  21.536  15.361 -0.1539  0.0222 -0.1546
  607POSM   C3A 7118  -1.108  21.889  15.397  0.1343 -0.2150  0.1891
  607POSM   C1B 7119  -0.057  21.035  15.659 -0.0600  0.1739  0.1304
  607POSM   D2B 7120  -0.040  20.974  15.192 -0.2886  0.0674  0.1069
  607POSM   C3B 7121   0.398  20.950  15.078  0.0488  0.1614 -0.0801
  607POSM   C4B 7122   0.653  20.585  14.835 -0.0060  0.2000  0.0167
  608DOPC   NC3 7123   5.147  16.451  15.978 -0.0664 -0.1604  0.2973
  608DOPC   PO4 7124   5.162  16.116  16.197  0.2932 -0.2776 -0.1862
  608DOPC   GL1 7125   5.460  16.060  15.898 -0.0740  0.0493  0.0316
  608DOPC   GL2 7126   5.584  16.257  15.743  0.0550  0.1499 -0.0352
  608DOPC   C1A 7127   5.711  15.731  15.707  0.0284 -0.0329 -0.2418
  608DOPC   D2A 7128   5.587  15.325  15.471 -0.2076 -0.1027 -0.4715
  608DOPC   C3A 7129   5.352  15.431  15.096  0.2782  0.1179 -0.1051
  608DOPC   C4A 7130   4.954  15.603  14.894 -0.2419  0.0876 -0.1608
  608DOPC   C1B 7131   5.658  16.680  15.549 -0.2319 -0.1104  0.0608
  608DOPC   D2B 7132   5.776  17.084  15.282 -0.2748 -0.0291  0.0976
  608DOPC   C3B 7133   6.151  17.302  15.175  0.0996  0.1116 -0.0074
  608DOPC   C4B 7134   6.206  17.634  14.846 -0.1456 -0.1540  0.2462
  609DOPC   NC3 7135   8.024  17.370  16.366  0.0894  0.0725 -0.0767
  609DOPC   PO4 7136   7.981  17.768  16.267 -0.0366  0.0081  0.3477
  609DOPC   GL1 7137   8.336  17.776  16.074  0.1841 -0.0230 -0.1738
  609DOPC   GL2 7138   8.176  17.925  15.817 -0.0438  0.0821  0.1034
  609DOPC   C1A 7139   8.624  17.586  15.750  0.1710 -0.1755  0.0112
  609DOPC   D2A 7140   8.911  17.726  15.448  0.0559 -0.1560 -0.4843
  609DOPC   C3A 7141   8.807  17.677  15.007 -0.0296  0.0548 -0.0828
  609DOPC   C4A 7142   9.026  17.561  14.628  0.1273  0.0281  0.2933
  609DOPC   C1B 7143   7.874  17.860  15.535 -0.1764 -0.4209  0.0240
  609DOPC   D2B 7144   7.478  17.746  15.272  0.0562 -0.1612 -0.0288
  609DOPC   C3B 7145   7.256  17.323  15.278  0.2246 -0.0392 -0.0696
  609DOPC   C4B 7146   7.143  16.909  15.346 -0.0100 -0.3290  0.1912
  610DOPS   CNO 7147   0.478  20.189  16.743 -0.0178  0.1174 -0.0521
  610DOPS   PO4 7148   0.815  20.004  16.687 -0.1157  0.0613  0.0766
  610DOPS   GL1 7149   0.722  20.316  16.349 -0.2471 -0.2059 -0.0936
  610DOPS   GL2 7150   0.514  20.195  16.219  0.0030 -0.1117  0.1752
  610DOPS   C1A 7151   1.006  20.181  16.009 -0.0198 -0.3294  0.2595
  610DOPS   D2A 7152   0.997  20.115  15.523  0.2445 -0.0528 -0.1137
  610DOPS   C3A 7153   1.017  20.398  15.163  0.1227  0.0970 -0.2025
  610DOPS   C4A 7154   1.145  20.595  14.776  0.0541  0.2145  0.1804
  610DOPS   C1B 7155   0.498  19.824  15.933  0.0136 -0.3520 -0.0081
  610DOPS   D2B 7156   0.535  19.885  15.452  0.0145 -0.0674  0.1550
  610DOPS   C3B 7157   0.933  19.598  15.333 -0.4259 -0.3474 -0.0756
  610DOPS   C4B 7158   1.270  19.400  15.125  0.1263  0.0323 -0.1497
  611DOPE   NH3 7159   7.639  13.079  15.820  0.0515  0.5976 -0.0414
  611DOPE   PO4 7160   7.502  12.948  16.075  0.2709  0.0041  0.3116
  611DOPE   GL1 7161   7.126  13.045  15.817 -0.1900 -0.1345 -0.1015
  611DOPE   GL2 7162   7.110  13.295  15.683 -0.0607 -0.0386  0.0085
  611DOPE   C1A 7163   7.271  12.897  15.413  0.0197  0.0491  0.0709
  611DOPE   D2A 7164   7.258  13.001  14.958  0.1724  0.0244 -0.1062
  611DOPE   C3A 7165   7.525  12.888  14.563  0.3535 -0.1840 -0.3436
  611DOPE   C4A 7166   7.708  13.213  14.244 -0.1531 -0.1938 -0.3036
  611DOPE   C1B 7167   7.157  13.437  15.273  0.2576  0.1236  0.1037
  611DOPE   D2B 7168   7.338  13.447  14.873 -0.0421 -0.1484  0.1597
  611DOPE   C3B 7169   7.221  13.259  14.454  0.0794 -0.1745 -0.1068
  611DOPE   C4B 7170   7.259  13.089  14.047  0.3253  0.0845  0.0804
  612DOPS   CNO 7171   9.849  17.253  16.267  0.2693  0.0148  0.0277
  612DOPS   PO4 7172   9.617  16.971  16.255  0.3391  0.1531 -0.1171
  612DOPS   GL1 7173   9.258  17.031  15.901  0.2428  0.1961  0.1190
  612DOPS   GL2 7174   9.043  16.886  15.860 -0.1723  0.1169 -0.2112
  612DOPS   C1A 7175   9.207  17.463  15.795 -0.1094  0.4726 -0.2095
  612DOPS   D2A 7176   9.391  17.884  15.665 -0.1082  0.2943 -0.0126
  612DOPS   C3A 7177   9.255  18.030  15.255  0.0588  0.2463  0.2488
  612DOPS   C4A 7178   9.264  18.490  15.170 -0.0485  0.0298  0.2121
  612DOPS   C1B 7179   8.869  16.619  15.529 -0.1895 -0.0386  0.0337
  612DOPS   D2B 7180   8.779  16.335  15.173 -0.0401 -0.4791 -0.3720
  612DOPS   C3B 7181   8.674  16.327  14.729  0.3690 -0.2333 -0.2371
  612DOPS   C4B 7182   8.925  16.256  14.383 -0.1064  0.0756 -0.2089
  613DOPE   NH3 7183   9.228  12.683  12.132 -0.0530 -0.2909  0.0974
  613DOPE   PO4 7184   9.525  12.618  12.041  0.0955  0.5643 -0.2391
  613DOPE   GL1 7185   9.753  12.852  12.267  0.3239 -0.2363  0.0143
  613DOPE   GL2 7186   9.993  12.773  12.182 -0.1263  0.2291  0.2790
  613DOPE   C1A 7187   9.844  13.351  12.143 -0.0656  0.3036 -0.3534
  613DOPE   D2A 7188  10.289  13.487  12.119  0.1622  0.0498  0.1167
  613DOPE   C3A 7189  10.586  13.188  12.355 -0.2843 -0.2956 -0.0895
  613DOPE   C4A 7190  10.935  12.923  12.589 -0.0633  0.1129  0.0141
  613DOPE   C1B 7191  10.446  12.818  12.070 -0.1669  0.4900 -0.1077
  613DOPE   D2B 7192  10.794  12.527  12.150  0.3553 -0.0452 -0.0900
  613DOPE   C3B 7193  11.210  12.638  12.335  0.3339 -0.0117  0.2360
  613DOPE   C4B 7194  11.531  12.958  12.281 -0.2069  0.0707 -0.1461
  614DOPS   CNO 7195   1.684  15.703  12.616 -0.5340 -0.0120 -0.4161
  614DOPS   PO4 7196   1.774  15.449  12.887 -0.0438 -0.2851 -0.1628
  614DOPS   GL1 7197   1.924  15.168  13.005 -0.0337  0.0982 -0.0532
  614DOPS   GL2 7198   1.724  14.930  12.902  0.1524 -0.1108 -0.2977
  614DOPS   C1A 7199   2.125  14.771  13.100 -0.0768 -0.2768 -0.0673
  614DOPS   D2A 7200   2.012  14.420  12.879  0.2201  0.0298 -0.2295
  614DOPS   C3A 7201   2.072  14.374  12.394 -0.2520 -0.1539 -0.1422
  614DOPS   C4A 7202   1.950  14.132  12.003 -0.1725 -0.4870  0.0069
  614DOPS   C1B 7203   1.656  14.847  13.352 -0.0374  0.1116  0.0123
  614DOPS   D2B 7204   1.662  14.715  13.781  0.3422  0.0574 -0.2289
  614DOPS   C3B 7205   1.506  15.003  14.079 -0.2545  0.2080  0.2374
  614DOPS   C4B 7206   1.126  15.337  14.042  0.2279 -0.0106  0.2383
  615DOPE   NH3 7207   9.509  12.848  12.998 -0.0782 -0.1149  0.1694
  615DOPE   PO4 7208   9.360  13.033  13.250  0.0545 -0.0276 -0.2583
  615DOPE   GL1 7209   9.108  13.366  13.305 -0.0404  0.2324  0.2820
  615DOPE   GL2 7210   9.254  13.547  13.091  0.0171 -0.2371 -0.2176
  615DOPE   C1A 7211   9.085  13.798  13.479  0.0070 -0.1395  0.0127
  615DOPE   D2A 7212   8.881  14.165  13.519  0.1202 -0.0285  0.1275
  615DOPE   C3A 7213   9.227  14.301  13.368 -0.3628  0.2518  0.0172
  615DOPE   C4A 7214   9.337  14.757  13.280  0.1472  0.0594 -0.0170
  615DOPE   C1B 7215   9.570  13.843  13.264 -0.1374 -0.3827 -0.1755
  615DOPE   D2B 7216   9.649  14.138  13.622 -0.1634  0.0264  0.2676
  615DOPE   C3B 7217   9.632  14.599  13.697  0.0950  0.2515 -0.0027
  615DOPE   C4B 7218   9.468  15.042  13.692 -0.1702  0.2348  0.1597
  616DOPE   NH3 7219   9.716  12.210  12.522 -0.0843 -0.0300  0.4194
  616DOPE   PO4 7220   9.690  12.523  12.576  0.1442 -0.0445 -0.2679
  616DOPE   GL1 7221   9.905  12.830  12.733 -0.1932 -0.4030 -0.2756
  616DOPE   GL2 7222   9.956  13.082  12.610 -0.1115  0.4303 -0.1062
  616DOPE   C1A 7223  10.033  12.953  13.159 -0.2656  0.0845  0.0514
  616DOPE   D2A 7224   9.861  12.995  13.609  0.1417  0.2527  0.1044
  616DOPE   C3A 7225   9.844  13.408  13.708 -0.0978 -0.1813 -0.0302
  616DOPE   C4A 7226  10.012  13.853  13.736  0.0935  0.0411 -0.2360
  616DOPE   C1B 7227  10.234  13.445  12.636  0.3766 -0.1671 -0.1125
  616DOPE   D2B 7228  10.382  13.840  12.837 -0.2362  0.0456  0.2230
  616DOPE   C3B 7229  10.079  14.032  13.130 -0.1034  0.2478  0.0956
  616DOPE   C4B 7230   9.713  14.347  13.198 -0.3154  0.0397 -0.0237
  617DOPC   NC3 7231   9.260  13.250  12.225 -0.0903  0.2332  0.0516
  617DOPC   PO4 7232   9.438  13.068  12.557  0.0628  0.0805 -0.2004
  617DOPC   GL1 7233   9.612  13.320  12.819 -0.6978  0.3536 -0.0779
  617DOPC   GL2 7234   9.686  13.643  12.660  0.2073  0.0200 -0.0251
  617DOPC   C1A 7235   9.902  13.507  13.112 -0.0876 -0.1956 -0.0218
  617DOPC   D2A 7236  10.257  13.370  13.394  0.4894 -0.0375  0.0242
  617DOPC   C3A 7237  10.433  13.774  13.477 -0.2113  0.1007  0.1821
  617DOPC   C4A 7238  10.513  13.996  13.833  0.1833  0.0766 -0.2834
  617DOPC   C1B 7239   9.727  14.164  12.616 -0.3408  0.0089  0.2345
  617DOPC   D2B 7240  10.053  14.440  12.850  0.2663 -0.0209  0.0554
  617DOPC   C3B 7241   9.916  14.884  12.873  0.0120 -0.1434 -0.1744
  617DOPC   C4B 7242   9.459  15.077  12.894  0.0719 -0.0580  0.0950
  618DOPC   NC3 7243   1.434  18.618  12.953 -0.1353 -0.1236  0.0399
  618DOPC   PO4 7244   1.225  18.792  12.659 -0.0671  0.3150 -0.0241
  618DOPC   GL1 7245   1.610  18.930  12.559 -0.0944 -0.3079  0.2331
  618DOPC   GL2 7246   1.676  19.175  12.779  0.1799 -0.0783 -0.0975
  618DOPC   C1A 7247   1.644  19.345  12.345 -0.2337 -0.1496  0.2471
  618DOPC   D2A 7248   1.977  19.648  12.342 -0.1202 -0.3404  0.0877
  618DOPC   C3A 7249   2.175  19.482  12.728 -0.3076  0.0977 -0.0679
  618DOPC   C4A 7250   2.154  19.209  13.020 -0.1158 -0.0073 -0.2158
  618DOPC   C1B 7251   1.688  19.350  13.232  0.0994 -0.0351 -0.0823
  618DOPC   D2B 7252   1.904  19.609  13.615 -0.3268  0.2382 -0.0156
  618DOPC   C3B 7253   2.184  19.503  13.979 -0.2809 -0.1974 -0.1777
  618DOPC   C4B 7254   2.398  19.396  14.365  0.3374 -0.1579  0.1044
  619DOPE   NH3 7255   0.099  19.500  13.300 -0.0507 -0.1054 -0.2035
  619DOPE   PO4 7256   0.083  19.773  13.235  0.0116 -0.0146  0.1010
  619DOPE   GL1 7257  -0.293  19.834  13.417  0.2357  0.1431  0.1558
  619DOPE   GL2 7258  -0.257  20.108  13.485 -0.0584 -0.2040 -0.0100
  619DOPE   C1A 7259  -0.779  19.855  13.584  0.0060 -0.1863 -0.1185
  619DOPE   D2A 7260  -0.851  20.164  13.864  0.1491 -0.1308 -0.1629
  619DOPE   C3A 7261  -0.766  20.300  14.285 -0.0014  0.0910  0.0808
  619DOPE   C4A 7262  -0.499  20.201  14.624  0.1187  0.0450  0.1068
  619DOPE   C1B 7263  -0.399  20.123  13.898  0.0165  0.0457 -0.1349
  619DOPE   D2B 7264  -0.473  19.797  14.232 -0.3804 -0.0156 -0.0770
  619DOPE   C3B 7265  -0.630  19.372  14.398 -0.1203  0.2609  0.0180
  619DOPE   C4B 7266  -0.879  19.010  14.587  0.2216 -0.1060 -0.0758
  620DOPE   NH3 7267  11.312  21.652  12.487  0.2687  0.2666  0.2240
  620DOPE   PO4 7268  11.050  21.733  12.567  0.0951 -0.1903 -0.1564
  620DOPE   GL1 7269  11.092  21.545  12.941  0.0168 -0.2310  0.0916
  620DOPE   GL2 7270  10.833  21.353  12.953  0.1547 -0.4044 -0.1113
  620DOPE   C1A 7271  11.209  21.242  13.244  0.4209  0.1113 -0.1867
  620DOPE   D2A 7272  11.497  21.082  13.513 -0.3715 -0.0307  0.1473
  620DOPE   C3A 7273  11.474  20.657  13.651 -0.0967  0.1901 -0.2422
  620DOPE   C4A 7274  11.509  20.199  13.862 -0.1862  0.3347  0.0926
  620DOPE   C1B 7275  10.813  20.950  12.861  0.0167  0.2217 -0.1320
  620DOPE   D2B 7276  10.617  20.656  13.100 -0.1489  0.3286  0.2404
  620DOPE   C3B 7277  10.209  20.734  13.434  0.0689 -0.2090 -0.2493
  620DOPE   C4B 7278   9.936  21.022  13.565 -0.2954 -0.0888 -0.0576
  621DOPE   NH3 7279   6.482  17.024  12.869  0.1378  0.1595 -0.1430
  621DOPE   PO4 7280   6.353  17.295  12.979 -0.1096  0.2354  0.1087
  621DOPE   GL1 7281   6.255  17.236  13.362 -0.0168  0.0282 -0.0836
  621DOPE   GL2 7282   6.422  17.049  13.474 -0.0743  0.0942  0.2347
  621DOPE   C1A 7283   6.113  17.592  13.673 -0.0844  0.3725  0.1740
  621DOPE   D2A 7284   6.221  17.773  14.081  0.1111 -0.0319 -0.1751
  621DOPE   C3A 7285   6.645  17.794  14.184 -0.1175 -0.1558 -0.2127
  621DOPE   C4A 7286   7.088  17.634  14.094  0.2092  0.2989 -0.3228
  621DOPE   C1B 7287   6.582  16.912  13.843 -0.0466 -0.0149  0.1922
  621DOPE   D2B 7288   6.388  16.767  14.167 -0.3369 -0.0555  0.2309
  621DOPE   C3B 7289   6.070  16.959  14.327 -0.2433  0.0379  0.0115
  621DOPE   C4B 7290   5.893  17.213  14.672  0.2091  0.0198  0.0354
  622POSM   NC3 7291   0.424  19.601  12.902  0.0993  0.1199  0.1203
  622POSM   PO4 7292   0.621  19.673  12.588  0.2907  0.1007 -0.2890
  622POSM   AM1 7293   0.878  19.710  12.832  0.3193 -0.1310 -0.1169
  622POSM   AM2 7294   1.019  19.594  13.097 -0.3774  0.1695 -0.0410
  622POSM   T1A 7295   1.271  19.964  13.054  0.1448  0.0199 -0.1029
  622POSM   C2A 7296   1.528  19.950  13.445 -0.1354  0.2414 -0.1031
  622POSM   C3A 7297   1.726  20.145  13.821  0.0897 -0.2877 -0.0078
  622POSM   C1B 7298   1.164  19.575  13.385 -0.1123  0.0141 -0.2274
  622POSM   D2B 7299   1.444  19.378  13.629 -0.3461 -0.2692  0.2908
  622POSM   C3B 7300   1.614  19.427  14.027 -0.0793 -0.1839  0.1913
  622POSM   C4B 7301   1.660  19.794  14.248 -0.0246  0.2297 -0.0930
  623DOPE   NH3 7302   4.195  19.294  12.793  0.1887  0.0047  0.0427
  623DOPE   PO4 7303   4.447  19.412  12.912 -0.0726 -0.2834 -0.0889
  623DOPE   GL1 7304   4.260  19.531  13.196 -0.2559  0.1204  0.0770
  623DOPE   GL2 7305   4.344  19.449  13.439  0.3339  0.2482 -0.1279
  623DOPE   C1A 7306   3.902  19.739  13.436 -0.1414  0.1292  0.2358
  623DOPE   D2A 7307   3.708  19.754  13.883  0.1445  0.0441 -0.3129
  623DOPE   C3A 7308   3.883  19.821  14.300 -0.0005  0.4213  0.1102
  623DOPE   C4A 7309   4.115  19.832  14.655 -0.2260 -0.2040 -0.3123
  623DOPE   C1B 7310   4.200  19.533  13.830 -0.0441  0.0812  0.2867
  623DOPE   D2B 7311   3.971  19.303  14.160  0.2475 -0.0678  0.0650
  623DOPE   C3B 7312   3.640  19.417  14.480  0.0703 -0.0344 -0.0645
  623DOPE   C4B 7313   3.214  19.585  14.536  0.2084 -0.2386  0.0698
  624POSM   NC3 7314   7.035  18.585  12.595  0.0463  0.2356 -0.4008
  624POSM   PO4 7315   7.205  18.661  12.920  0.0964 -0.1302 -0.0321
  624POSM   AM1 7316   7.113  18.953  13.076  0.1710 -0.2055  0.5218
  624POSM   AM2 7317   7.270  19.074  13.277  0.2481  0.3230  0.0166
  624POSM   T1A 7318   6.963  19.441  13.201 -0.0549 -0.0203  0.1613
  624POSM   C2A 7319   6.542  19.658  13.184 -0.2391 -0.0927  0.2169
  624POSM   C3A 7320   6.535  20.134  13.075  0.0753 -0.2240  0.2223
  624POSM   C1B 7321   7.181  19.123  13.590 -0.3282 -0.1041 -0.1150
  624POSM   D2B 7322   6.865  19.083  13.896 -0.1424 -0.2077 -0.0576
  624POSM   C3B 7323   6.975  19.125  14.390 -0.0437  0.4173 -0.2713
  624POSM   C4B 7324   6.993  19.119  14.847  0.0037 -0.1707 -0.1810
  625POSM   NC3 7325   0.544  11.625  12.749  0.0224  0.0576  0.4061
  625POSM   PO4 7326   0.402  11.793  12.417 -0.2116 -0.0964  0.2389
  625POSM   AM1 7327   0.507  12.064  12.567  0.1513 -0.0067  0.2279
  625POSM   AM2 7328   0.659  12.140  12.819  0.1559  0.1196 -0.3112
  625POSM   T1A 7329   0.493  12.557  12.548 -0.1745 -0.0920 -0.0756
  625POSM   C2A 7330   0.643  12.997  12.550 -0.0529  0.2638  0.5671
  625POSM   C3A 7331   0.436  13.357  12.661  0.0457 -0.1652  0.1411
  625POSM   C1B 7332   0.606  12.428  12.996 -0.0832 -0.0756  0.0751
  625POSM   D2B 7333   0.811  12.777  13.137 -0.0449  0.0772  0.2037
  625POSM   C3B 7334   0.507  13.132  13.066  0.0403  0.0657  0.1203
  625POSM   C4B 7335   0.455  13.610  13.108 -0.0507  0.1855  0.2252
  626DOPC   NC3 7336  10.119  22.182  11.868  0.0465 -0.2420 -0.2860
  626DOPC   PO4 7337  10.454  22.368  12.060 -0.0453 -0.1358  0.0902
  626DOPC   GL1 7338  10.258  22.093  12.348 -0.1039 -0.1671 -0.2539
  626DOPC   GL2 7339  10.389  21.887  12.198 -0.1081  0.4427  0.0425
  626DOPC   C1A 7340  10.132  21.681  12.547 -0.0185 -0.0517 -0.0323
  626DOPC   D2A 7341  10.056  21.370  12.882 -0.0564  0.1101  0.0104
  626DOPC   C3A 7342  10.418  21.194  13.149  0.1986 -0.0911 -0.3324
  626DOPC   C4A 7343  10.532  21.118  13.634 -0.3413 -0.1383  0.2150
  626DOPC   C1B 7344  10.291  21.426  12.145 -0.1651 -0.1526 -0.0754
  626DOPC   D2B 7345  10.028  21.142  12.357  0.2819  0.1425 -0.0488
  626DOPC   C3B 7346   9.731  21.022  12.086  0.2547 -0.0422  0.3408
  626DOPC   C4B 7347   9.436  20.723  11.754 -0.2357  0.0212 -0.0043
  627DOPC   NC3 7348   6.007  19.369  12.654 -0.0814 -0.2459  0.1858
  627DOPC   PO4 7349   6.356  19.461  12.447  0.1350  0.2908  0.2636
  627DOPC   GL1 7350   6.716  19.648  12.554 -0.0667  0.0676 -0.4122
  627DOPC   GL2 7351   7.013  19.571  12.553 -0.2121 -0.0179 -0.0925
  627DOPC   C1A 7352   7.009  19.876  12.919  0.0238  0.1059  0.1153
  627DOPC   D2A 7353   7.444  20.041  12.878  0.2268  0.2423 -0.2082
  627DOPC   C3A 7354   7.497  20.275  13.294  0.1607  0.3377 -0.0935
  627DOPC   C4A 7355   7.392  20.336  13.778  0.0833 -0.2577  0.1903
  627DOPC   C1B 7356   7.243  19.950  12.416  0.0227 -0.2194 -0.3301
  627DOPC   D2B 7357   7.603  20.250  12.431  0.1827  0.0304 -0.1381
  627DOPC   C3B 7358   7.990  20.281  12.713 -0.0714  0.1552 -0.4117
  627DOPC   C4B 7359   8.442  20.197  12.825  0.0192  0.0585 -0.1081
  628DOPC   NC3 7360   2.933  16.207  12.784  0.1057 -0.4939  0.0842
  628DOPC   PO4 7361   3.071  16.591  12.654 -0.1120 -0.0085  0.0690
  628DOPC   GL1 7362   3.196  16.570  12.983 -0.0275 -0.3979 -0.3046
  628DOPC   GL2 7363   3.157  16.844  13.152  0.1830  0.0235 -0.0742
  628DOPC   C1A 7364   3.469  16.507  13.400 -0.1440 -0.0412  0.1305
  628DOPC   D2A 7365   3.594  16.513  13.835 -0.3941 -0.4833 -0.0386
  628DOPC   C3A 7366   3.266  16.541  14.107  0.3336  0.1038  0.0842
  628DOPC   C4A 7367   2.856  16.664  14.321  0.0517 -0.3806  0.0996
  628DOPC   C1B 7368   3.604  16.873  13.050  0.1095  0.0536 -0.0484
  628DOPC   D2B 7369   4.020  16.859  12.868 -0.2908  0.1034 -0.1093
  628DOPC   C3B 7370   4.154  16.477  13.125  0.1180  0.0936 -0.0908
  628DOPC   C4B 7371   4.549  16.274  13.429  0.2598 -0.0412  0.0917
  629DOPE   NH3 7372   6.677  12.118  12.445 -0.1181 -0.0856  0.2061
  629DOPE   PO4 7373   6.578  12.408  12.559 -0.1787 -0.2770 -0.2370
  629DOPE   GL1 7374   6.636  12.589  12.906 -0.0669  0.0877 -0.0390
  629DOPE   GL2 7375   6.694  12.906  12.952 -0.1371 -0.0276  0.1241
  629DOPE   C1A 7376   6.544  12.554  13.360 -0.1926 -0.1064 -0.1777
  629DOPE   D2A 7377   6.141  12.401  13.495 -0.2941 -0.2397 -0.0201
  629DOPE   C3A 7378   6.092  11.988  13.657  0.3120  0.0956 -0.1189
  629DOPE   C4A 7379   5.827  11.770  13.928  0.0837 -0.2129 -0.0601
  629DOPE   C1B 7380   6.973  12.848  13.334  0.1458  0.4304  0.0235
  629DOPE   D2B 7381   6.907  12.997  13.713 -0.1613  0.0812 -0.1095
  629DOPE   C3B 7382   6.449  12.905  13.897  0.1073 -0.0881  0.2547
  629DOPE   C4B 7383   6.002  12.841  13.759  0.1089  0.1123  0.1623
  630POSM   NC3 7384   6.003  12.110  13.172  0.2251 -0.1418 -0.1559
  630POSM   PO4 7385   5.985  11.756  12.954  0.0961  0.2834 -0.2602
  630POSM   AM1 7386   5.811  11.660  13.159 -0.1671 -0.4616  0.0257
  630POSM   AM2 7387   5.772  11.670  13.421  0.0261  0.0072 -0.1013
  630POSM   T1A 7388   5.351  11.406  13.257 -0.0314 -0.0676 -0.4352
  630POSM   C2A 7389   5.039  11.125  13.379  0.0261  0.1472 -0.1400
  630POSM   C3A 7390   4.704  10.822  13.416  0.1883  0.2746 -0.0684
  630POSM   C1B 7391   6.044  11.507  13.559  0.1073  0.0496  0.4339
  630POSM   D2B 7392   6.390  11.547  13.767  0.0490  0.1031 -0.0034
  630POSM   C3B 7393   6.755  11.699  13.907  0.0402  0.0617  0.0945
  630POSM   C4B 7394   7.178  11.618  13.983  0.1850  0.0229 -0.1034
  631DOPE   NH3 7395   0.261  20.059  12.573  0.1576  0.0221  0.0746
  631DOPE   PO4 7396   0.276  20.050  12.899 -0.3596 -0.1314 -0.0116
  631DOPE   GL1 7397   0.432  20.155  13.299  0.1214  0.4588  0.1268
  631DOPE   GL2 7398   0.578  19.929  13.275 -0.0052 -0.1292  0.4018
  631DOPE   C1A 7399   0.617  20.403  13.643  0.1037 -0.1271  0.0604
  631DOPE   D2A 7400   0.899  20.737  13.825 -0.1070  0.4798 -0.2048
  631DOPE   C3A 7401   1.131  20.630  14.162 -0.0091 -0.1767 -0.0804
  631DOPE   C4A 7402   1.420  20.343  14.259  0.2116  0.0009  0.2398
  631DOPE   C1B 7403   0.917  20.015  13.479 -0.2771  0.0355 -0.0948
  631DOPE   D2B 7404   1.292  19.860  13.830 -0.0084 -0.2386  0.0154
  631DOPE   C3B 7405   1.138  19.914  14.243  0.0802 -0.0442  0.0244
  631DOPE   C4B 7406   0.835  20.128  14.463  0.3536  0.0200 -0.2878
  632DOPC   NC3 7407   9.382  11.991  12.841  0.2054  0.3501 -0.1420
  632DOPC   PO4 7408   9.166  11.705  12.948  0.1058  0.3008  0.2637
  632DOPC   GL1 7409   9.033  11.513  13.248  0.0660 -0.0368  0.2208
  632DOPC   GL2 7410   9.057  11.705  13.509 -0.0109  0.0670  0.1065
  632DOPC   C1A 7411   8.595  11.383  13.462 -0.1486  0.1691 -0.0736
  632DOPC   D2A 7412   8.179  11.282  13.654 -0.0113  0.1602  0.2330
  632DOPC   C3A 7413   8.302  10.875  13.850  0.3885  0.0596  0.2954
  632DOPC   C4A 7414   8.469  10.452  13.976  0.0858 -0.0034  0.2120
  632DOPC   C1B 7415   8.801  11.861  13.851  0.0301 -0.0354 -0.1191
  632DOPC   D2B 7416   8.753  12.073  14.275  0.0498 -0.4609 -0.1117
  632DOPC   C3B 7417   8.824  11.651  14.416 -0.1362 -0.3691 -0.0709
  632DOPC   C4B 7418   8.619  11.173  14.469  0.2145 -0.0185  0.0715
  633POSM   NC3 7419   6.878  11.395  12.354  0.1956  0.2429  0.1073
  633POSM   PO4 7420   7.006  11.786  12.343 -0.1122  0.2728 -0.0201
  633POSM   AM1 7421   7.124  12.001  12.598 -0.1652 -0.1665  0.4023
  633POSM   AM2 7422   6.995  12.113  12.805 -0.2664 -0.0322  0.3596
  633POSM   T1A 7423   7.483  12.253  12.782  0.0699 -0.0466  0.0081
  633POSM   C2A 7424   7.832  12.470  12.935  0.3271  0.0209  0.2427
  633POSM   C3A 7425   8.313  12.563  13.078  0.1140 -0.1438  0.0635
  633POSM   C1B 7426   6.972  12.230  13.098  0.0139 -0.0198  0.1708
  633POSM   D2B 7427   7.006  12.382  13.531  0.1733 -0.2180 -0.0488
  633POSM   C3B 7428   7.378  12.672  13.647  0.1401  0.0631  0.0279
  633POSM   C4B 7429   7.799  12.672  13.428  0.1107  0.3870  0.1765
  634DOPE   NH3 7430   8.804  17.766  12.728 -0.0320  0.2166  0.0142
  634DOPE   PO4 7431   8.575  17.786  12.574 -0.3276 -0.0169 -0.0798
  634DOPE   GL1 7432   8.368  17.710  12.920  0.3241  0.0504  0.4120
  634DOPE   GL2 7433   8.541  17.848  13.147 -0.2300 -0.0808  0.0080
  634DOPE   C1A 7434   8.004  17.898  13.047 -0.3523 -0.1153 -0.0364
  634DOPE   D2A 7435   7.741  18.157  13.328 -0.2435  0.4493  0.2849
  634DOPE   C3A 7436   8.006  18.500  13.552  0.1558  0.1393 -0.0810
  634DOPE   C4A 7437   8.079  18.622  13.993  0.2774 -0.0213  0.1706
  634DOPE   C1B 7438   8.301  17.931  13.500 -0.0287  0.1317 -0.3065
  634DOPE   D2B 7439   7.944  18.094  13.814  0.0991  0.1577  0.1873
  634DOPE   C3B 7440   7.760  17.916  14.173 -0.1167 -0.0565 -0.1772
  634DOPE   C4B 7441   7.447  17.729  14.392 -0.0300 -0.0909 -0.1729
  635DOPE   NH3 7442  34.540  15.880  12.577 -0.0056 -0.0025 -0.1529
  635DOPE   PO4 7443  34.436  15.936  12.893  0.2947 -0.0988  0.0700
  635DOPE   GL1 7444  34.519  15.767  13.283  0.0192 -0.0431  0.0546
  635DOPE   GL2 7445  34.733  15.830  13.498  0.0039 -0.1183 -0.0354
  635DOPE   C1A 7446  34.256  15.642  13.614  0.2725 -0.1334 -0.3731
  635DOPE   D2A 7447  33.996  15.935  13.858  0.0937  0.1279 -0.1306
  635DOPE   C3A 7448  33.607  16.136  14.096  0.1736 -0.0093 -0.3022
  635DOPE   C4A 7449  33.589  16.247  14.510  0.2239 -0.1830  0.0250
  635DOPE   C1B 7450  34.470  16.215  13.496  0.0942 -0.2434 -0.1657
  635DOPE   D2B 7451  34.312  16.455  13.823 -0.1065 -0.2276  0.3042
  635DOPE   C3B 7452  34.175  16.339  14.259 -0.1638 -0.2358  0.2449
  635DOPE   C4B 7453  34.210  16.091  14.640 -0.0355 -0.1580  0.0794
  636DOPC   NC3 7454   4.421  18.675  12.417  0.1765  0.1123  0.2752
  636DOPC   PO4 7455   4.339  18.817  12.776  0.0864 -0.3902 -0.0487
  636DOPC   GL1 7456   4.328  19.022  13.206 -0.0618  0.0805  0.4043
  636DOPC   GL2 7457   4.328  18.777  13.331  0.1045 -0.0298  0.0516
  636DOPC   C1A 7458   3.865  19.153  13.291  0.1633 -0.0849  0.3031
  636DOPC   D2A 7459   3.568  19.314  13.610  0.0557 -0.0229 -0.1332
  636DOPC   C3A 7460   3.412  19.358  14.034  0.1838 -0.3062  0.1672
  636DOPC   C4A 7461   3.185  19.063  14.361 -0.0051  0.1042  0.0525
  636DOPC   C1B 7462   4.199  18.919  13.751  0.1160  0.2332 -0.0795
  636DOPC   D2B 7463   3.852  18.792  14.011 -0.0349 -0.0096 -0.1365
  636DOPC   C3B 7464   3.877  18.415  14.271  0.1409 -0.0281  0.1791
  636DOPC   C4B 7465   4.211  18.127  14.391  0.1418 -0.1260 -0.3872
  637DOPE   NH3 7466   1.107  19.569  12.504 -0.3188  0.2150  0.3184
  637DOPE   PO4 7467   1.078  19.268  12.673 -0.0164  0.4625 -0.0634
  637DOPE   GL1 7468   1.307  19.218  13.050  0.2347 -0.2009  0.1582
  637DOPE   GL2 7469   1.080  19.070  13.162 -0.3116  0.0381 -0.0053
  637DOPE   C1A 7470   1.506  18.917  13.368  0.3336  0.0567 -0.1673
  637DOPE   D2A 7471   1.363  18.862  13.805  0.0002  0.1154  0.2980
  637DOPE   C3A 7472   1.571  18.884  14.251 -0.0202 -0.0106 -0.0572
  637DOPE   C4A 7473   1.795  19.240  14.435  0.0571 -0.2614 -0.0007
  637DOPE   C1B 7474   0.920  19.066  13.599 -0.4483 -0.0966  0.0725
  637DOPE   D2B 7475   0.976  19.456  13.837  0.0703  0.1301 -0.2222
  637DOPE   C3B 7476   0.739  19.554  14.212  0.1360 -0.4321 -0.0419
  637DOPE   C4B 7477   0.485  19.740  14.617  0.1874  0.0535  0.1754
  638POSM   NC3 7478   7.879  17.565  12.716 -0.0061 -0.0125  0.2431
  638POSM   PO4 7479   8.092  17.302  12.892  0.0669 -0.0666 -0.1096
  638POSM   AM1 7480   8.037  17.333  13.171 -0.2959 -0.0961  0.3203
  638POSM   AM2 7481   8.224  17.261  13.385 -0.1273 -0.0875 -0.0180
  638POSM   T1A 7482   7.888  17.680  13.515 -0.1556  0.0500  0.0012
  638POSM   C2A 7483   7.507  17.849  13.701  0.2284 -0.1544 -0.0276
  638POSM   C3A 7484   7.117  18.086  13.626 -0.0471 -0.1248  0.2410
  638POSM   C1B 7485   8.160  17.156  13.746  0.2341 -0.3125 -0.0790
  638POSM   D2B 7486   7.879  17.013  14.124  0.2695  0.3636  0.2834
  638POSM   C3B 7487   7.749  17.252  14.458 -0.0826  0.1820  0.4184
  638POSM   C4B 7488   7.468  17.311  14.834 -0.0483  0.1457  0.5058
  639DOPC   NC3 7489   8.862  19.316  12.195  0.0596 -0.1564  0.1772
  639DOPC   PO4 7490   8.735  18.965  12.327 -0.1250 -0.0300 -0.2001
  639DOPC   GL1 7491   8.567  19.368  12.540  0.5921 -0.3085  0.1380
  639DOPC   GL2 7492   8.362  19.280  12.697  0.1782  0.3866  0.0447
  639DOPC   C1A 7493   8.814  19.557  12.892  0.3565  0.1168  0.2972
  639DOPC   D2A 7494   8.931  19.799  13.185  0.3112  0.0833 -0.0076
  639DOPC   C3A 7495   9.160  19.821  13.519  0.1343  0.0431 -0.0493
  639DOPC   C4A 7496   9.580  19.945  13.607  0.2543  0.3343 -0.1374
  639DOPC   C1B 7497   8.144  19.644  12.856  0.4182  0.0834  0.0634
  639DOPC   D2B 7498   7.895  20.015  13.110 -0.1044  0.3316  0.3028
  639DOPC   C3B 7499   8.103  20.294  13.453  0.0409 -0.2203 -0.0724
  639DOPC   C4B 7500   8.425  20.505  13.711  0.0081 -0.3106 -0.0687
  640POSM   NC3 7501   8.380  23.342  12.384 -0.1711  0.1007 -0.1268
  640POSM   PO4 7502   8.115  23.193  12.156 -0.0008  0.3661  0.0239
  640POSM   AM1 7503   8.087  22.981  12.437 -0.2150 -0.2210  0.1768
  640POSM   AM2 7504   8.362  22.897  12.548 -0.2344 -0.1504 -0.2152
  640POSM   T1A 7505   7.902  22.647  12.705  0.1871 -0.2934  0.0555
  640POSM   C2A 7506   7.555  22.342  12.576  0.0222 -0.1917 -0.2847
  640POSM   C3A 7507   7.505  21.975  12.280 -0.2388 -0.2890  0.1004
  640POSM   C1B 7508   8.356  23.010  12.875 -0.2106 -0.1340 -0.0920
  640POSM   D2B 7509   8.166  23.232  13.233  0.1454 -0.0016 -0.1069
  640POSM   C3B 7510   8.488  23.155  13.585  0.2327  0.2683 -0.0133
  640POSM   C4B 7511   8.829  23.058  13.931 -0.0154  0.0673 -0.2773
  641DOPE   NH3 7512   5.535  11.920  12.889  0.1981  0.2283 -0.1779
  641DOPE   PO4 7513   5.692  12.201  12.784  0.1922  0.2210 -0.2015
  641DOPE   GL1 7514   5.623  12.378  13.149 -0.0834 -0.2746  0.3636
  641DOPE   GL2 7515   5.327  12.292  13.221  0.2964 -0.2983  0.2113
  641DOPE   C1A 7516   5.516  12.684  13.472 -0.0545 -0.1293 -0.1083
  641DOPE   D2A 7517   5.570  12.678  13.922 -0.0545  0.1439 -0.1302
  641DOPE   C3A 7518   5.122  12.715  14.080  0.0982  0.0033 -0.0498
  641DOPE   C4A 7519   4.857  12.305  14.030  0.0795  0.2094  0.0588
  641DOPE   C1B 7520   5.320  11.895  13.460  0.0900 -0.3333  0.1578
  641DOPE   D2B 7521   5.448  11.511  13.781  0.1243 -0.0444  0.0270
  641DOPE   C3B 7522   5.414  11.091  13.684 -0.1685 -0.0738  0.1658
  641DOPE   C4B 7523   5.202  10.644  13.584 -0.1116 -0.0244 -0.3094
  642DOPC   NC3 7524   8.441  16.886  13.049 -0.2082  0.1895  0.1471
  642DOPC   PO4 7525   8.279  16.830  12.722 -0.1098  0.0488 -0.0029
  642DOPC   GL1 7526   8.396  16.485  12.856 -0.2884  0.1722  0.0083
  642DOPC   GL2 7527   8.222  16.432  13.048 -0.6303 -0.0778 -0.1939
  642DOPC   C1A 7528   8.633  16.161  12.682 -0.3471  0.1068 -0.3140
  642DOPC   D2A 7529   9.023  15.951  12.499 -0.2509 -0.1321 -0.0863
  642DOPC   C3A 7530   9.464  15.904  12.618  0.2746  0.0343 -0.1396
  642DOPC   C4A 7531   9.740  16.037  12.258 -0.2456 -0.1393  0.0981
  642DOPC   C1B 7532   8.454  16.016  13.188  0.1946  0.1258 -0.0859
  642DOPC   D2B 7533   8.408  15.550  13.268  0.0707 -0.0078  0.0816
  642DOPC   C3B 7534   8.656  15.660  13.594 -0.2489  0.2154  0.1220
  642DOPC   C4B 7535   9.058  15.579  13.863 -0.1941  0.0408 -0.0333
  643DOPE   NH3 7536  11.031  11.671  12.280  0.0301 -0.2673  0.0224
  643DOPE   PO4 7537  10.826  11.881  12.143  0.0459  0.1288  0.3298
  643DOPE   GL1 7538  10.916  12.062  12.465  0.3315 -0.0886 -0.1017
  643DOPE   GL2 7539  11.178  12.094  12.550 -0.0345  0.0742  0.0340
  643DOPE   C1A 7540  10.901  12.476  12.736  0.5894 -0.0463 -0.4086
  643DOPE   D2A 7541  11.270  12.775  12.914 -0.1827 -0.2970 -0.0600
  643DOPE   C3A 7542  11.411  12.685  13.321 -0.3058  0.0111 -0.1604
  643DOPE   C4A 7543  11.625  12.570  13.691 -0.0528 -0.3643  0.3365
  643DOPE   C1B 7544  11.345  12.221  12.982 -0.2546  0.2804  0.1525
  643DOPE   D2B 7545  11.758  12.353  13.153 -0.0621  0.4288  0.1543
  643DOPE   C3B 7546  12.133  12.093  13.370  0.0841 -0.1896 -0.0210
  643DOPE   C4B 7547  12.289  11.674  13.571  0.0910 -0.4373  0.1922
  644POSM   NC3 7548   1.264  16.211  12.397 -0.2087 -0.0865  0.1794
  644POSM   PO4 7549   1.334  16.150  12.791  0.2535 -0.2883  0.0545
  644POSM   AM1 7550   1.418  16.112  13.100  0.1512  0.2111 -0.3776
  644POSM   AM2 7551   1.276  16.213  13.350  0.4008 -0.0697  0.4096
  644POSM   T1A 7552   1.561  15.760  13.438 -0.3008 -0.0432  0.3849
  644POSM   C2A 7553   1.571  15.449  13.809 -0.0196 -0.3762 -0.4060
  644POSM   C3A 7554   1.950  15.482  14.063  0.0838 -0.0489 -0.2151
  644POSM   C1B 7555   1.093  16.283  13.629  0.1710 -0.1059 -0.1451
  644POSM   D2B 7556   0.918  16.315  14.064 -0.0408 -0.4029 -0.4841
  644POSM   C3B 7557   0.883  16.794  14.168  0.0162 -0.1936 -0.2607
  644POSM   C4B 7558   0.657  16.979  14.574  0.1097 -0.3331  0.0637
  645DOPC   NC3 7559   5.632  17.920  12.992  0.1065 -0.3040  0.3124
  645DOPC   PO4 7560   5.785  18.031  12.657 -0.0911 -0.0596 -0.1058
  645DOPC   GL1 7561   5.851  18.394  12.870 -0.0937 -0.1147  0.1796
  645DOPC   GL2 7562   6.121  18.537  12.988 -0.0773 -0.1358  0.0703
  645DOPC   C1A 7563   5.685  18.863  12.889 -0.0514 -0.0278  0.1578
  645DOPC   D2A 7564   5.711  19.215  13.139 -0.0940 -0.3294 -0.1501
  645DOPC   C3A 7565   5.591  19.345  13.607  0.1282 -0.1026 -0.0267
  645DOPC   C4A 7566   5.489  19.204  14.092 -0.4036  0.0149  0.1111
  645DOPC   C1B 7567   6.281  18.512  13.430 -0.0907 -0.0447 -0.0461
  645DOPC   D2B 7568   6.395  18.837  13.743 -0.1917  0.0516  0.2119
  645DOPC   C3B 7569   6.577  18.619  14.103  0.0237 -0.2016 -0.1032
  645DOPC   C4B 7570   6.844  18.579  14.460  0.2412  0.0014 -0.0084
  646POSM   NC3 7571   7.894  14.685  13.358 -0.2753 -0.1752  0.0525
  646POSM   PO4 7572   7.540  14.539  13.373 -0.0368  0.1377  0.2782
  646POSM   AM1 7573   7.637  14.253  13.546 -0.0928 -0.0633 -0.2491
  646POSM   AM2 7574   7.494  14.026  13.654  0.2903  0.1321  0.0072
  646POSM   T1A 7575   7.917  13.812  13.542 -0.3660 -0.1506  0.0202
  646POSM   C2A 7576   8.238  13.554  13.321 -0.3476  0.1360  0.0475
  646POSM   C3A 7577   8.600  13.367  13.209 -0.0432 -0.0622  0.1393
  646POSM   C1B 7578   7.381  13.710  13.573  0.2272  0.0304 -0.3290
  646POSM   D2B 7579   7.331  13.205  13.589  0.0957 -0.5749  0.0746
  646POSM   C3B 7580   7.676  13.044  13.704  0.1049  0.5408  0.4010
  646POSM   C4B 7581   7.933  12.773  13.972 -0.0807  0.0787 -0.1589
  647POSM   NC3 7582   1.058  17.828  12.598  0.0257 -0.1300  0.1409
  647POSM   PO4 7583   1.155  18.240  12.545 -0.1957  0.2034  0.0183
  647POSM   AM1 7584   1.003  18.285  12.784  0.1747  0.0781  0.0092
  647POSM   AM2 7585   0.997  18.446  13.014  0.1059 -0.2965  0.2154
  647POSM   T1A 7586   0.619  18.104  13.037 -0.1161  0.0254  0.3167
  647POSM   C2A 7587   0.154  17.986  13.045  0.1551 -0.0944 -0.1893
  647POSM   C3A 7588  -0.091  18.034  12.662 -0.0860  0.3249  0.3107
  647POSM   C1B 7589   0.775  18.520  13.276  0.0654 -0.1449  0.0305
  647POSM   D2B 7590   0.524  18.739  13.589  0.2284  0.2021  0.3030
  647POSM   C3B 7591   0.654  18.844  13.972 -0.3506 -0.0696  0.1024
  647POSM   C4B 7592   0.813  18.776  14.434 -0.1078 -0.0703 -0.1410
  648DOPC   NC3 7593   5.713  14.368  12.839 -0.3098  0.0251 -0.0308
  648DOPC   PO4 7594   5.481  14.535  12.546 -0.1011  0.0475 -0.3207
  648DOPC   GL1 7595   5.232  14.254  12.662  0.0191 -0.0072  0.0122
  648DOPC   GL2 7596   5.158  14.309  12.923 -0.3043 -0.0568 -0.2434
  648DOPC   C1A 7597   5.406  13.855  12.854 -0.1856  0.1976  0.2551
  648DOPC   D2A 7598   5.523  13.579  13.148  0.0694  0.0401  0.3861
  648DOPC   C3A 7599   5.324  13.484  13.560  0.0575  0.1705  0.0073
  648DOPC   C4A 7600   4.916  13.574  13.805 -0.0545 -0.0496  0.1153
  648DOPC   C1B 7601   5.139  14.010  13.241  0.0295 -0.0533 -0.2591
  648DOPC   D2B 7602   5.389  13.955  13.592 -0.0598  0.1583  0.2925
  648DOPC   C3B 7603   5.436  13.758  13.975  0.0390  0.3346  0.0570
  648DOPC   C4B 7604   5.433  13.584  14.370  0.1378  0.2043 -0.2017
  649DOPE   NH3 7605   2.540  12.523  12.592  0.1833  0.1802 -0.3726
  649DOPE   PO4 7606   2.544  12.802  12.750 -0.1650  0.0872 -0.1420
  649DOPE   GL1 7607   2.863  13.097  12.893  0.1338 -0.1596 -0.2182
  649DOPE   GL2 7608   3.112  13.048  12.802  0.3339  0.2163  0.0073
  649DOPE   C1A 7609   2.997  13.289  13.286  0.4087  0.2781 -0.0376
  649DOPE   D2A 7610   2.977  13.568  13.723  0.3726 -0.1004  0.1038
  649DOPE   C3A 7611   3.263  13.568  14.121 -0.0052  0.1446 -0.2693
  649DOPE   C4A 7612   3.629  13.588  14.464 -0.0543  0.2079  0.4039
  649DOPE   C1B 7613   3.291  13.493  12.749  0.0804  0.1115  0.3826
  649DOPE   D2B 7614   3.292  13.966  12.821 -0.4449 -0.3111 -0.0017
  649DOPE   C3B 7615   3.052  13.930  13.255 -0.0946 -0.0967 -0.2351
  649DOPE   C4B 7616   2.592  13.777  13.391 -0.0042 -0.2226  0.4463
  650POSM   NC3 7617   3.192  22.429  12.716  0.1624  0.1434 -0.0092
  650POSM   PO4 7618   3.097  22.789  12.859 -0.2355  0.2022  0.1072
  650POSM   AM1 7619   3.250  22.933  13.093 -0.1116 -0.0687  0.0692
  650POSM   AM2 7620   3.168  23.105  13.286 -0.2151 -0.0919  0.2385
  650POSM   T1A 7621   3.664  23.087  13.263 -0.1813 -0.0362 -0.1359
  650POSM   C2A 7622   3.954  23.406  13.475  0.0165 -0.4558  0.0259
  650POSM   C3A 7623   4.412  23.312  13.510 -0.0299 -0.3465 -0.0261
  650POSM   C1B 7624   2.986  22.914  13.497 -0.3634  0.1143  0.7098
  650POSM   D2B 7625   2.594  22.860  13.755 -0.0852 -0.1067 -0.4581
  650POSM   C3B 7626   2.362  23.152  14.037 -0.1895  0.0944  0.1770
  650POSM   C4B 7627   2.243  23.499  14.320 -0.0899  0.1664 -0.0640
  651POSM   NC3 7628   4.204  14.648  12.288 -0.0930 -0.1359  0.0156
  651POSM   PO4 7629   4.215  14.792  12.655 -0.2056 -0.0526 -0.0722
  651POSM   AM1 7630   3.996  14.774  12.892 -0.0690 -0.0709 -0.1044
  651POSM   AM2 7631   3.722  14.940  12.937  0.3097  0.2478 -0.1380
  651POSM   T1A 7632   3.966  14.501  13.354  0.0229 -0.2005  0.0243
  651POSM   C2A 7633   4.036  14.547  13.760  0.2771 -0.1251 -0.0767
  651POSM   C3A 7634   4.165  14.349  14.198 -0.1276 -0.0647  0.0924
  651POSM   C1B 7635   3.768  15.038  13.275  0.0188  0.3644  0.1626
  651POSM   D2B 7636   3.676  14.965  13.726  0.0906  0.2039 -0.1543
  651POSM   C3B 7637   3.568  14.583  13.987 -0.0454 -0.2046 -0.1238
  651POSM   C4B 7638   3.261  14.241  13.995 -0.3462 -0.2533  0.1207
  652DOPS   CNO 7639   6.894  17.285  12.839  0.1672  0.0308  0.0038
  652DOPS   PO4 7640   6.684  17.534  12.697  0.0738 -0.2628  0.1998
  652DOPS   GL1 7641   6.812  17.733  13.080 -0.4097  0.3905 -0.0337
  652DOPS   GL2 7642   6.705  17.465  13.268  0.0763 -0.0460 -0.3192
  652DOPS   C1A 7643   6.686  17.926  13.481 -0.0969 -0.0732 -0.2261
  652DOPS   D2A 7644   6.474  18.156  13.816  0.1594 -0.2221  0.1008
  652DOPS   C3A 7645   6.894  18.216  14.046 -0.0983 -0.2114 -0.0373
  652DOPS   C4A 7646   7.037  18.068  14.477 -0.0860 -0.3078  0.0235
  652DOPS   C1B 7647   6.576  17.429  13.690 -0.3366  0.4078 -0.2448
  652DOPS   D2B 7648   6.259  17.261  13.969  0.2754  0.0554  0.4768
  652DOPS   C3B 7649   5.836  17.449  14.116 -0.0097  0.2935 -0.1363
  652DOPS   C4B 7650   5.806  17.709  14.500  0.2114  0.1159 -0.0746
  653DOPC   NC3 7651   2.460  21.769  12.995  0.0421  0.1416  0.3240
  653DOPC   PO4 7652   2.658  21.591  12.688  0.1039  0.2157 -0.3127
  653DOPC   GL1 7653   2.889  21.227  12.758 -0.5751  0.1904  0.0496
  653DOPC   GL2 7654   2.971  21.148  12.465  0.1085 -0.0698 -0.1142
  653DOPC   C1A 7655   2.749  20.972  13.109 -0.2083  0.0219  0.0844
  653DOPC   D2A 7656   2.514  20.893  13.536 -0.0532  0.1367  0.2388
  653DOPC   C3A 7657   2.284  21.180  13.813  0.1037 -0.0277  0.3480
  653DOPC   C4A 7658   1.851  21.258  13.961 -0.2338  0.0403  0.1099
  653DOPC   C1B 7659   2.705  20.839  12.620  0.0942  0.0116  0.0387
  653DOPC   D2B 7660   2.582  20.407  12.790 -0.0759  0.0695  0.0546
  653DOPC   C3B 7661   2.435  20.486  13.189 -0.1059  0.0508  0.0632
  653DOPC   C4B 7662   2.090  20.463  13.487 -0.1162  0.5457  0.0032
  654POSM   NC3 7663  33.589  17.045  13.464  0.0816  0.0100  0.0237
  654POSM   PO4 7664  33.960  17.141  13.316 -0.1273 -0.1820  0.2661
  654POSM   AM1 7665  34.048  17.233  13.575 -0.2762  0.1505  0.1411
  654POSM   AM2 7666  34.019  17.092  13.805 -0.1696 -0.0276 -0.4741
  654POSM   T1A 7667  34.403  17.492  13.861 -0.4207  0.0298  0.1109
  654POSM   C2A 7668  34.681  17.666  14.156 -0.1806  0.2341 -0.1729
  654POSM   C3A 7669  35.023  17.960  14.312 -0.1570 -0.2491 -0.1708
  654POSM   C1B 7670  34.297  16.956  13.875  0.1411 -0.0920  0.1996
  654POSM   D2B 7671  34.467  16.720  14.277  0.0110 -0.1500  0.4757
  654POSM   C3B 7672  34.749  16.415  14.233  0.0776 -0.0258 -0.1482
  654POSM   C4B 7673  35.144  16.128  14.108  0.1273  0.0227 -0.0322
  655DOPE   NH3 7674   5.861  15.277  13.226 -0.1268 -0.0719  0.0833
  655DOPE   PO4 7675   5.686  15.550  13.212  0.2721 -0.3526 -0.0666
  655DOPE   GL1 7676   5.551  15.574  13.605  0.0318  0.3994 -0.1372
  655DOPE   GL2 7677   5.335  15.317  13.492 -0.4841 -0.1247 -0.3936
  655DOPE   C1A 7678   5.750  15.774  13.999  0.0475 -0.4142 -0.2287
  655DOPE   D2A 7679   5.757  15.931  14.383  0.0750  0.0382 -0.0279
  655DOPE   C3A 7680   5.867  16.105  14.805 -0.2412 -0.0472  0.1972
  655DOPE   C4A 7681   5.900  16.189  15.267  0.0400  0.1911 -0.0923
  655DOPE   C1B 7682   5.471  15.341  13.955 -0.1904  0.1633 -0.1485
  655DOPE   D2B 7683   5.603  15.334  14.354 -0.0431 -0.0457 -0.1742
  655DOPE   C3B 7684   5.667  15.584  14.733 -0.1427  0.0375  0.0679
  655DOPE   C4B 7685   5.761  15.740  15.172  0.0966  0.3318 -0.0952
  656POSM   NC3 7686   0.723  18.855  12.844  0.1921  0.1626  0.1796
  656POSM   PO4 7687   0.633  19.182  13.046 -0.0187  0.1303 -0.1395
  656POSM   AM1 7688   0.573  19.302  13.336  0.0902 -0.0984 -0.0424
  656POSM   AM2 7689   0.671  19.507  13.479 -0.1585  0.0987 -0.0056
  656POSM   T1A 7690   0.466  19.261  13.876  0.2805  0.3846  0.2880
  656POSM   C2A 7691   0.262  19.317  14.276  0.0762 -0.0016  0.2749
  656POSM   C3A 7692  -0.040  19.588  14.432 -0.2336 -0.0946  0.2053
  656POSM   C1B 7693   0.576  19.742  13.706  0.2110  0.1889 -0.0295
  656POSM   D2B 7694   0.443  19.999  14.102  0.0645  0.0035  0.2552
  656POSM   C3B 7695  -0.023  20.066  14.230 -0.3383 -0.0785  0.1767
  656POSM   C4B 7696  -0.178  20.522  14.410  0.1290  0.6509 -0.4482
  657POSM   NC3 7697   3.646  19.581  12.157 -0.1631 -0.1201  0.1199
  657POSM   PO4 7698   3.975  19.620  12.391  0.2571  0.1748 -0.0941
  657POSM   AM1 7699   3.818  19.522  12.643  0.0494  0.1269 -0.0495
  657POSM   AM2 7700   3.798  19.612  12.974 -0.3641  0.2288 -0.0281
  657POSM   T1A 7701   3.466  19.196  12.807 -0.0842 -0.1389  0.0584
  657POSM   C2A 7702   3.047  19.048  12.840  0.0315  0.0049 -0.1533
  657POSM   C3A 7703   2.805  18.658  12.642  0.2022 -0.1426 -0.0521
  657POSM   C1B 7704   3.516  19.583  13.108 -0.0217 -0.1288 -0.1274
  657POSM   D2B 7705   3.219  19.295  13.318 -0.0565  0.0351  0.0365
  657POSM   C3B 7706   3.091  19.581  13.669 -0.0228 -0.2204 -0.1470
  657POSM   C4B 7707   2.956  19.702  14.111  0.0971  0.2180  0.0671
  658POSM   NC3 7708   1.980  17.925  12.506  0.1843  0.1831 -0.0870
  658POSM   PO4 7709   1.984  17.735  12.847  0.1944 -0.3512  0.0653
  658POSM   AM1 7710   1.906  17.836  13.154  0.0919  0.1416  0.1786
  658POSM   AM2 7711   1.713  18.006  13.249 -0.3299 -0.1619 -0.3848
  658POSM   T1A 7712   2.081  17.929  13.570 -0.1364 -0.0044 -0.2142
  658POSM   C2A 7713   2.152  17.860  14.034  0.3822  0.0607 -0.2330
  658POSM   C3A 7714   2.044  17.732  14.459  0.1140  0.2875 -0.1688
  658POSM   C1B 7715   1.722  18.380  13.382 -0.0436 -0.3915  0.2627
  658POSM   D2B 7716   1.833  18.627  13.776  0.1762 -0.2604  0.0782
  658POSM   C3B 7717   1.928  18.339  14.092 -0.0835 -0.2240 -0.1044
  658POSM   C4B 7718   2.233  18.214  14.429  0.2461 -0.0693  0.0055
  659DOPS   CNO 7719   8.892  16.985  12.258 -0.2246  0.2594 -0.0395
  659DOPS   PO4 7720   8.662  16.715  12.381  0.2673 -0.0357  0.2963
  659DOPS   GL1 7721   8.966  16.528  12.652 -0.2696  0.1345  0.4221
  659DOPS   GL2 7722   9.216  16.602  12.503 -0.4542  0.3006 -0.2011
  659DOPS   C1A 7723   9.080  16.166  12.931 -0.0169  0.1911  0.1321
  659DOPS   D2A 7724   9.371  15.876  13.149  0.1785  0.0564 -0.0467
  659DOPS   C3A 7725   9.281  15.935  13.586  0.2737 -0.1564 -0.3129
  659DOPS   C4A 7726   9.226  16.011  14.071 -0.0247 -0.0313  0.1419
  659DOPS   C1B 7727   9.399  16.685  12.903 -0.2964  0.0174 -0.1668
  659DOPS   D2B 7728   9.400  16.378  13.271 -0.0077  0.1047 -0.0095
  659DOPS   C3B 7729   9.309  16.394  13.694  0.3461 -0.0023 -0.0687
  659DOPS   C4B 7730   8.834  16.571  13.773  0.4509 -0.3867  0.0827
  660POSM   NC3 7731   6.450  12.157  12.947 -0.1878 -0.2138 -0.0598
  660POSM   PO4 7732   6.197  12.055  12.630  0.1782 -0.2392 -0.0244
  660POSM   AM1 7733   6.132  12.396  12.689  0.0042  0.2313 -0.0569
  660POSM   AM2 7734   6.141  12.579  12.937 -0.3310  0.1618 -0.0423
  660POSM   T1A 7735   6.151  12.908  12.582 -0.3348  0.1441 -0.2242
  660POSM   C2A 7736   6.266  13.355  12.794 -0.0622  0.0494  0.2214
  660POSM   C3A 7737   6.360  13.789  12.660  0.0212 -0.1078 -0.1616
  660POSM   C1B 7738   5.899  12.741  13.119  0.2244 -0.0778  0.0344
  660POSM   D2B 7739   5.760  13.141  13.368 -0.1428 -0.1088  0.0071
  660POSM   C3B 7740   5.923  13.440  13.668 -0.3895  0.2312 -0.0422
  660POSM   C4B 7741   6.058  13.497  14.117  0.3151  0.0170 -0.0692
  661DOPE   NH3 7742  10.966  15.813  12.218 -0.3008 -0.0613 -0.0488
  661DOPE   PO4 7743  11.037  15.556  12.422  0.2478  0.2788 -0.2363
  661DOPE   GL1 7744  10.741  15.471  12.599 -0.1819  0.3729 -0.1174
  661DOPE   GL2 7745  10.470  15.477  12.459  0.2001  0.1227 -0.5497
  661DOPE   C1A 7746  10.602  15.373  13.030 -0.0622 -0.2415  0.0952
  661DOPE   D2A 7747  10.416  15.212  13.398 -0.0010 -0.0562  0.0828
  661DOPE   C3A 7748  10.610  14.915  13.714 -0.0247 -0.2058  0.0287
  661DOPE   C4A 7749  10.901  14.863  14.065 -0.2364 -0.3015  0.0381
  661DOPE   C1B 7750  10.120  15.660  12.722 -0.0901 -0.2011 -0.1797
  661DOPE   D2B 7751   9.850  15.955  12.950 -0.1881 -0.3404  0.2336
  661DOPE   C3B 7752   9.801  15.847  13.410  0.1493  0.1144  0.1287
  661DOPE   C4B 7753   9.716  16.147  13.793 -0.0662  0.2083  0.0006
  662DOPE   NH3 7754  10.957  22.251  12.143  0.1139  0.1058 -0.1563
  662DOPE   PO4 7755  10.815  22.168  12.419 -0.0589  0.0997 -0.1996
  662DOPE   GL1 7756  10.792  22.020  12.769  0.2520  0.0167  0.1635
  662DOPE   GL2 7757  10.586  21.827  12.729 -0.1675 -0.0245  0.1934
  662DOPE   C1A 7758  10.624  22.129  13.155 -0.0141  0.5231  0.0872
  662DOPE   D2A 7759  10.422  22.015  13.558 -0.0089  0.0023 -0.0477
  662DOPE   C3A 7760  10.516  22.224  13.954 -0.1158 -0.0062 -0.1749
  662DOPE   C4A 7761  10.590  22.285  14.423 -0.1519  0.0730  0.0143
  662DOPE   C1B 7762  10.383  21.680  13.094 -0.0070  0.0629  0.0194
  662DOPE   D2B 7763  10.265  21.522  13.527  0.1714 -0.0481 -0.0962
  662DOPE   C3B 7764  10.613  21.644  13.886 -0.0277 -0.1562 -0.2153
  662DOPE   C4B 7765  10.916  21.901  14.127 -0.0241  0.4108  0.1460
  663DOPE   NH3 7766   4.892  19.405  12.613  0.1774 -0.0644  0.0026
  663DOPE   PO4 7767   4.743  19.157  12.541  0.1165 -0.1719 -0.1730
  663DOPE   GL1 7768   4.699  19.049  12.935 -0.0622  0.2669  0.0196
  663DOPE   GL2 7769   4.926  18.861  12.998  0.1191 -0.0060 -0.3722
  663DOPE   C1A 7770   4.733  19.043  13.410  0.0494  0.0753  0.0965
  663DOPE   D2A 7771   4.605  19.190  13.829 -0.0830 -0.1800 -0.3576
  663DOPE   C3A 7772   4.407  19.063  14.233 -0.2954 -0.0084  0.1375
  663DOPE   C4A 7773   4.295  19.344  14.598  0.2171 -0.2115 -0.0623
  663DOPE   C1B 7774   4.799  18.498  13.172 -0.2853  0.1149 -0.1323
  663DOPE   D2B 7775   4.727  18.021  13.171 -0.2535  0.1602 -0.0315
  663DOPE   C3B 7776   4.892  17.887  13.576 -0.0614 -0.0341 -0.0881
  663DOPE   C4B 7777   4.692  17.494  13.761  0.1926 -0.1610 -0.1213
  664DOPE   NH3 7778   0.360  16.557  12.654  0.2641 -0.0401 -0.0610
  664DOPE   PO4 7779   0.290  16.243  12.601  0.0758 -0.0157 -0.0707
  664DOPE   GL1 7780   0.223  15.895  12.310 -0.0306 -0.3879  0.0339
  664DOPE   GL2 7781   0.358  15.699  12.516 -0.0458 -0.1738  0.2306
  664DOPE   C1A 7782   0.059  15.467  12.097  0.0616 -0.1840 -0.2212
  664DOPE   D2A 7783  -0.100  15.012  11.989  0.2413  0.0602  0.1058
  664DOPE   C3A 7784   0.130  14.642  11.897 -0.0606  0.4043 -0.0348
  664DOPE   C4A 7785   0.462  14.363  12.121 -0.2297 -0.1785 -0.2459
  664DOPE   C1B 7786   0.321  15.239  12.573  0.0168 -0.0324  0.1500
  664DOPE   D2B 7787   0.171  14.811  12.475 -0.0820  0.1269 -0.2674
  664DOPE   C3B 7788   0.319  14.427  12.628 -0.0497  0.1204 -0.4150
  664DOPE   C4B 7789   0.306  14.030  12.855  0.1526  0.0431  0.1551
  665POSM   NC3 7790   0.785  16.022  12.711 -0.0525  0.1591 -0.0241
  665POSM   PO4 7791   1.080  15.764  12.537  0.2178  0.1314  0.1687
  665POSM   AM1 7792   0.909  15.514  12.647  0.1505 -0.1992 -0.0851
  665POSM   AM2 7793   0.730  15.479  12.876  0.0063 -0.1664 -0.0589
  665POSM   T1A 7794   0.875  14.981  12.516  0.1110 -0.2567  0.2341
  665POSM   C2A 7795   1.221  14.729  12.651  0.1133  0.4211 -0.1158
  665POSM   C3A 7796   1.501  14.470  12.971  0.1825  0.2139  0.2194
  665POSM   C1B 7797   0.786  15.208  12.962  0.0536 -0.0410  0.2198
  665POSM   D2B 7798   0.693  14.713  12.921  0.0800 -0.2419 -0.4613
  665POSM   C3B 7799   0.973  14.349  12.974 -0.0600  0.1236  0.2473
  665POSM   C4B 7800   1.274  14.011  13.161 -0.0002 -0.2282 -0.0379
  666DOPC   NC3 7801  11.377  20.249  12.254  0.2205 -0.1442 -0.0430
  666DOPC   PO4 7802  11.177  20.076  11.894  0.2713 -0.0381 -0.0753
  666DOPC   GL1 7803  10.917  20.284  12.173 -0.0759  0.3148  0.1746
  666DOPC   GL2 7804  11.035  20.569  12.111  0.1264 -0.2160  0.1156
  666DOPC   C1A 7805  10.491  20.278  12.203 -0.1712 -0.2657 -0.0293
  666DOPC   D2A 7806  10.114  20.093  12.271 -0.1817 -0.0838 -0.2006
  666DOPC   C3A 7807   9.986  20.353  12.646 -0.1568  0.1674 -0.3868
  666DOPC   C4A 7808  10.128  20.481  13.003 -0.3737 -0.2670 -0.1489
  666DOPC   C1B 7809  10.784  20.828  11.810  0.2714  0.2768  0.4051
  666DOPC   D2B 7810  10.453  20.698  11.497  0.1870 -0.1735  0.2135
  666DOPC   C3B 7811  10.220  20.268  11.593 -0.1488 -0.2508  0.1770
  666DOPC   C4B 7812   9.844  20.317  11.800  0.0230 -0.1620  0.0575
  667DOPC   NC3 7813   7.213  22.095  12.844 -0.1865 -0.2187  0.2200
  667DOPC   PO4 7814   6.968  21.816  12.824  0.0848  0.0763 -0.0322
  667DOPC   GL1 7815   6.753  21.854  13.195 -0.0262  0.5827  0.2638
  667DOPC   GL2 7816   6.652  21.524  13.176  0.0324 -0.1123 -0.1207
  667DOPC   C1A 7817   6.379  21.760  13.520  0.4378  0.0249 -0.0036
  667DOPC   D2A 7818   6.194  21.578  13.928 -0.1310  0.2115  0.3362
  667DOPC   C3A 7819   5.754  21.501  14.157  0.1932  0.0062  0.0704
  667DOPC   C4A 7820   5.681  21.503  14.609  0.0330 -0.3205  0.0811
  667DOPC   C1B 7821   6.919  21.567  13.559  0.0269 -0.0425 -0.0364
  667DOPC   D2B 7822   6.770  21.487  13.967  0.2762 -0.2809  0.3161
  667DOPC   C3B 7823   6.481  21.390  14.261 -0.1030  0.2262  0.0381
  667DOPC   C4B 7824   6.164  21.298  14.497 -0.3116  0.0390 -0.1176
  668POSM   NC3 7825   1.340  16.783  12.661  0.0248  0.0618  0.2020
  668POSM   PO4 7826   1.376  17.111  12.872 -0.0510 -0.1390  0.1626
  668POSM   AM1 7827   1.301  16.975  13.163  0.1081 -0.0241  0.2280
  668POSM   AM2 7828   1.452  17.040  13.393 -0.0895  0.2861 -0.1974
  668POSM   T1A 7829   0.893  16.805  13.422 -0.0553  0.0519 -0.1329
  668POSM   C2A 7830   0.616  16.530  13.699 -0.1936  0.1662  0.0562
  668POSM   C3A 7831   0.264  16.247  13.656 -0.2681 -0.0192  0.0351
  668POSM   C1B 7832   1.249  17.162  13.610 -0.2671  0.1782  0.0083
  668POSM   D2B 7833   0.972  17.348  13.941  0.0633 -0.0073  0.3485
  668POSM   C3B 7834   0.539  17.251  14.195  0.3210  0.0545  0.2278
  668POSM   C4B 7835   0.317  17.499  14.500 -0.2193 -0.3056  0.0640
  669POSM   NC3 7836   8.381  18.404  13.113 -0.1980  0.1903 -0.0259
  669POSM   PO4 7837   8.601  18.263  12.823  0.0798 -0.2079 -0.0225
  669POSM   AM1 7838   8.862  18.178  12.998  0.2200 -0.0334 -0.0277
  669POSM   AM2 7839   8.845  18.166  13.302  0.0306 -0.0490  0.1820
  669POSM   T1A 7840   9.079  17.748  13.176 -0.1824  0.1284  0.0701
  669POSM   C2A 7841   8.931  17.441  13.319 -0.1318  0.1193 -0.2520
  669POSM   C3A 7842   8.708  17.032  13.492  0.1505  0.2587  0.0900
  669POSM   C1B 7843   8.712  18.277  13.512  0.3015  0.0361 -0.1169
  669POSM   D2B 7844   8.485  18.323  13.932  0.4632  0.1005  0.0692
  669POSM   C3B 7845   8.357  17.846  14.013  0.1957  0.0461 -0.1855
  669POSM   C4B 7846   8.010  17.505  14.025  0.3462 -0.0391 -0.3846
  670DOPS   CNO 7847   7.350  15.662  12.709 -0.1011  0.2018  0.1107
  670DOPS   PO4 7848   7.617  15.620  12.939 -0.0784 -0.0441 -0.0941
  670DOPS   GL1 7849   7.790  15.246  12.941 -0.0259 -0.1863  0.1161
  670DOPS   GL2 7850   7.944  15.318  12.660 -0.1400  0.1216  0.1301
  670DOPS   C1A 7851   8.185  15.133  13.202  0.1736 -0.2707 -0.0118
  670DOPS   D2A 7852   8.347  14.814  13.505 -0.0689 -0.0405  0.3580
  670DOPS   C3A 7853   8.220  14.758  13.938  0.0479  0.0222 -0.1951
  670DOPS   C4A 7854   8.277  14.571  14.321  0.0029  0.0469  0.2313
  670DOPS   C1B 7855   8.401  15.273  12.804 -0.1772  0.4412  0.1860
  670DOPS   D2B 7856   8.731  15.133  13.123  0.0466  0.2796 -0.0142
  670DOPS   C3B 7857   8.800  14.686  13.231 -0.4384 -0.1355  0.1693
  670DOPS   C4B 7858   8.426  14.361  13.285 -0.2490 -0.0947  0.1813
  671DOPE   NH3 7859   6.661  19.195  12.821 -0.0865  0.1777 -0.1167
  671DOPE   PO4 7860   6.799  19.047  12.578  0.0320  0.0390  0.3528
  671DOPE   GL1 7861   7.196  19.165  12.613  0.2395  0.0611  0.0072
  671DOPE   GL2 7862   7.449  18.963  12.630 -0.0144  0.0757 -0.0557
  671DOPE   C1A 7863   7.439  19.419  12.944  0.1288  0.1259  0.1436
  671DOPE   D2A 7864   7.473  19.742  13.294  0.0409  0.0268 -0.1031
  671DOPE   C3A 7865   7.203  19.635  13.691  0.1198 -0.3493  0.1844
  671DOPE   C4A 7866   6.942  19.546  14.026  0.0490  0.2138  0.2457
  671DOPE   C1B 7867   7.729  19.377  12.562  0.1966  0.2652  0.0468
  671DOPE   D2B 7868   7.883  19.750  12.293  0.0212 -0.2367 -0.1331
  671DOPE   C3B 7869   8.315  19.863  12.419 -0.0592  0.0448  0.2655
  671DOPE   C4B 7870   8.692  20.149  12.258 -0.1127 -0.0593  0.6682
  672DOPC   NC3 7871   7.180  17.148  13.269 -0.2802  0.1715 -0.1910
  672DOPC   PO4 7872   6.828  16.920  13.201 -0.1472  0.0079  0.3394
  672DOPC   GL1 7873   6.811  16.755  13.472 -0.0237 -0.0282 -0.1579
  672DOPC   GL2 7874   6.626  16.573  13.483  0.0286  0.1531  0.2583
  672DOPC   C1A 7875   7.009  16.450  13.746  0.3875 -0.0056 -0.3241
  672DOPC   D2A 7876   7.319  16.333  14.081  0.0455 -0.2895 -0.0279
  672DOPC   C3A 7877   7.211  15.948  14.251  0.0436 -0.1815 -0.1808
  672DOPC   C4A 7878   7.365  15.515  14.301 -0.1153  0.0424  0.1182
  672DOPC   C1B 7879   6.243  16.627  13.694 -0.4287 -0.2531  0.0314
  672DOPC   D2B 7880   5.911  16.974  13.867  0.1514 -0.0007  0.0605
  672DOPC   C3B 7881   5.523  17.060  14.148  0.0628  0.0169  0.2596
  672DOPC   C4B 7882   5.366  17.497  14.281  0.0135 -0.1200  0.1420
  673DOPC   NC3 7883   4.863  20.433  12.748 -0.1573  0.0856  0.3113
  673DOPC   PO4 7884   4.567  20.310  12.895  0.1624 -0.0556 -0.2285
  673DOPC   GL1 7885   4.628  20.079  13.213  0.0232 -0.1384 -0.2813
  673DOPC   GL2 7886   4.615  19.834  13.173  0.0223 -0.1372  0.1160
  673DOPC   C1A 7887   4.264  20.029  13.516  0.1096  0.1071  0.0042
  673DOPC   D2A 7888   4.103  20.148  13.953  0.1017  0.2910 -0.1786
  673DOPC   C3A 7889   4.418  20.080  14.298 -0.1013 -0.1508  0.1735
  673DOPC   C4A 7890   4.779  19.901  14.484  0.2666  0.1889 -0.0713
  673DOPC   C1B 7891   4.868  19.563  13.504  0.0572 -0.5304  0.3940
  673DOPC   D2B 7892   5.060  19.473  13.921 -0.3621  0.0519  0.2596
  673DOPC   C3B 7893   4.992  19.149  14.213  0.1020 -0.1142 -0.1060
  673DOPC   C4B 7894   4.841  18.732  14.355 -0.2622  0.1399  0.1809
  674DOPC   NC3 7895   3.352  21.904  13.266 -0.0736 -0.0332 -0.1332
  674DOPC   PO4 7896   3.495  21.591  13.047  0.1272  0.0464 -0.1862
  674DOPC   GL1 7897   3.753  21.454  12.796  0.1840  0.1384  0.0949
  674DOPC   GL2 7898   3.916  21.675  12.676 -0.1507 -0.1250 -0.2425
  674DOPC   C1A 7899   4.146  21.241  12.633 -0.2784 -0.3579 -0.0112
  674DOPC   D2A 7900   4.600  21.233  12.801 -0.0488  0.3087 -0.1378
  674DOPC   C3A 7901   4.670  21.658  13.043  0.0771 -0.0009  0.1912
  674DOPC   C4A 7902   4.608  22.018  13.365  0.0673  0.0329 -0.2049
  674DOPC   C1B 7903   4.176  21.720  13.059  0.2307  0.0580 -0.0861
  674DOPC   D2B 7904   4.475  21.493  13.408  0.1090 -0.2391 -0.0787
  674DOPC   C3B 7905   4.385  21.808  13.821 -0.4188  0.2201  0.0508
  674DOPC   C4B 7906   4.546  21.817  14.210  0.1478 -0.2533  0.1702
  675DOPE   NH3 7907   9.176  12.601  12.707 -0.0323 -0.0161 -0.0451
  675DOPE   PO4 7908   8.888  12.693  12.588 -0.0384  0.0819  0.0144
  675DOPE   GL1 7909   8.524  12.777  12.793  0.0522  0.0659  0.0295
  675DOPE   GL2 7910   8.529  13.064  12.856  0.1510 -0.1756  0.2591
  675DOPE   C1A 7911   8.102  12.881  12.667 -0.1648  0.3943 -0.0626
  675DOPE   D2A 7912   7.769  13.117  12.694  0.1075  0.2417  0.0588
  675DOPE   C3A 7913   7.365  12.977  12.908 -0.0520 -0.0938 -0.0094
  675DOPE   C4A 7914   7.112  13.292  13.158  0.1137  0.0041  0.1210
  675DOPE   C1B 7915   8.145  13.108  13.130 -0.1473 -0.0871 -0.1245
  675DOPE   D2B 7916   7.757  13.282  13.299 -0.2082  0.1625  0.0083
  675DOPE   C3B 7917   7.641  13.654  13.064 -0.2194  0.1347 -0.2690
  675DOPE   C4B 7918   7.443  13.663  12.598 -0.2321  0.0173  0.2153
  676DOPC   NC3 7919  10.097  19.498  12.348 -0.0402 -0.1975  0.4342
  676DOPC   PO4 7920  10.239  19.232  12.609  0.4688  0.1697 -0.0626
  676DOPC   GL1 7921  10.108  19.429  12.929  0.1554  0.0367  0.2942
  676DOPC   GL2 7922   9.818  19.540  12.797  0.0478  0.2740 -0.2156
  676DOPC   C1A 7923  10.070  19.469  13.370  0.5149 -0.0257  0.0854
  676DOPC   D2A 7924  10.235  19.386  13.794 -0.0972  0.0612 -0.2364
  676DOPC   C3A 7925   9.878  19.642  14.009  0.0414 -0.2120  0.0499
  676DOPC   C4A 7926   9.717  19.947  14.355  0.5481 -0.3346 -0.1523
  676DOPC   C1B 7927   9.508  19.670  13.088 -0.3291 -0.2027 -0.0087
  676DOPC   D2B 7928   9.424  20.132  13.147  0.1274 -0.3010  0.2432
  676DOPC   C3B 7929   9.640  20.549  12.959  0.0867 -0.1465 -0.1041
  676DOPC   C4B 7930   9.699  20.852  12.647 -0.1233 -0.1169  0.1149
  677POSM   NC3 7931   2.398  16.160  12.753 -0.1230 -0.2378 -0.0636
  677POSM   PO4 7932   2.561  16.168  12.443 -0.2775  0.4723  0.0187
  677POSM   AM1 7933   2.712  15.888  12.568 -0.2121 -0.1418  0.1341
  677POSM   AM2 7934   2.679  15.777  12.845 -0.2699 -0.1329  0.0062
  677POSM   T1A 7935   3.108  15.627  12.746 -0.3387  0.0236  0.0678
  677POSM   C2A 7936   3.347  15.468  13.135  0.1020  0.0220 -0.3396
  677POSM   C3A 7937   3.789  15.571  13.177  0.1349 -0.2818  0.0127
  677POSM   C1B 7938   2.777  15.635  13.161 -0.0718 -0.0120 -0.2069
  677POSM   D2B 7939   3.060  15.756  13.544 -0.1623  0.1176 -0.1079
  677POSM   C3B 7940   3.114  15.465  13.914 -0.1352 -0.0704 -0.1387
  677POSM   C4B 7941   3.272  15.125  14.125  0.2055 -0.0091  0.1222
  678DOPS   CNO 7942   2.450  12.552  12.099  0.3881 -0.0819  0.0233
  678DOPS   PO4 7943   2.488  12.160  12.237  0.1620 -0.0712  0.2098
  678DOPS   GL1 7944   2.394  11.761  12.080  0.0812 -0.1331  0.3177
  678DOPS   GL2 7945   2.733  11.792  12.017 -0.2551 -0.3404  0.0521
  678DOPS   C1A 7946   2.098  11.440  12.140 -0.1708  0.0861  0.0266
  678DOPS   D2A 7947   1.767  11.123  12.102 -0.1667  0.0058  0.1645
  678DOPS   C3A 7948   2.077  10.771  12.007  0.1742  0.1556  0.0629
  678DOPS   C4A 7949   2.352  10.493  12.309  0.3138 -0.0680 -0.3815
  678DOPS   C1B 7950   2.833  11.419  12.308  0.1036  0.1924 -0.3055
  678DOPS   D2B 7951   3.049  11.110  12.596  0.0061  0.0120  0.0180
  678DOPS   C3B 7952   2.939  10.675  12.757  0.1028 -0.2669 -0.2261
  678DOPS   C4B 7953   2.801  10.317  13.024 -0.0854  0.2589  0.0673
  679DOPE   NH3 7954   1.618  17.523  13.085 -0.2246  0.3006  0.3033
  679DOPE   PO4 7955   1.454  17.651  12.844  0.0093 -0.0494  0.2997
  679DOPE   GL1 7956   1.096  17.532  13.001 -0.2146  0.1202 -0.1447
  679DOPE   GL2 7957   1.179  17.433  13.226 -0.0394  0.0032 -0.2397
  679DOPE   C1A 7958   0.699  17.549  12.841 -0.1696  0.0707 -0.0228
  679DOPE   D2A 7959   0.417  17.615  13.226 -0.0956 -0.1904 -0.0486
  679DOPE   C3A 7960   0.733  17.359  13.470 -0.0493 -0.0549 -0.0946
  679DOPE   C4A 7961   0.630  17.044  13.776  0.2097 -0.1082 -0.0862
  679DOPE   C1B 7962   1.410  17.651  13.578  0.1531 -0.1792 -0.3952
  679DOPE   D2B 7963   1.665  18.042  13.763  0.1012 -0.1108 -0.2689
  679DOPE   C3B 7964   1.433  18.410  14.017  0.1904 -0.0075 -0.1657
  679DOPE   C4B 7965   1.418  18.390  14.465 -0.3402  0.0192  0.0902
  680POSM   NC3 7966  33.976  15.096  12.461 -0.3113  0.0613 -0.0637
  680POSM   PO4 7967  34.261  14.806  12.404  0.2631 -0.1337  0.0819
  680POSM   AM1 7968  34.408  14.642  12.624  0.5157  0.0401 -0.0386
  680POSM   AM2 7969  34.457  14.386  12.696 -0.3915 -0.2094  0.0104
  680POSM   T1A 7970  34.788  14.716  12.989 -0.2060  0.1271 -0.0528
  680POSM   C2A 7971  35.085  14.424  13.173  0.0347  0.0362  0.1756
  680POSM   C3A 7972  35.096  14.249  13.601  0.2835 -0.0759 -0.0905
  680POSM   C1B 7973  34.519  14.123  12.865  0.1892  0.2682  0.3144
  680POSM   D2B 7974  34.753  13.991  13.268 -0.0895 -0.0295 -0.0543
  680POSM   C3B 7975  34.660  13.517  13.458 -0.1918 -0.3051  0.0501
  680POSM   C4B 7976  34.605  13.161  13.763 -0.1315 -0.0431 -0.0000
  681DOPC   NC3 7977   6.245  16.265  13.160 -0.4088 -0.0152 -0.1854
  681DOPC   PO4 7978   6.557  16.533  13.019 -0.0275  0.3267  0.1855
  681DOPC   GL1 7979   6.185  16.666  12.868  0.0166  0.2544  0.1660
  681DOPC   GL2 7980   6.148  16.757  13.187  0.0277 -0.0135 -0.0440
  681DOPC   C1A 7981   5.713  16.740  12.924  0.2502 -0.1540  0.2063
  681DOPC   D2A 7982   5.266  16.650  13.088 -0.3505 -0.1457  0.2755
  681DOPC   C3A 7983   5.185  16.424  13.482  0.2581 -0.0326 -0.1621
  681DOPC   C4A 7984   5.025  16.144  13.810 -0.0157 -0.2349  0.3644
  681DOPC   C1B 7985   5.784  16.996  13.402  0.0962 -0.0930  0.1346
  681DOPC   D2B 7986   5.586  17.365  13.610  0.0244  0.1038 -0.0361
  681DOPC   C3B 7987   5.292  17.645  13.311  0.1179 -0.0385  0.0837
  681DOPC   C4B 7988   5.067  17.724  12.893  0.2060  0.0483 -0.0494
  682DOPS   CNO 7989   3.077  12.765  12.283  0.0265 -0.1170 -0.1470
  682DOPS   PO4 7990   3.024  12.577  12.618 -0.0587 -0.1877  0.3852
  682DOPS   GL1 7991   2.940  12.528  12.985 -0.4478 -0.2030  0.0686
  682DOPS   GL2 7992   2.789  12.341  12.967 -0.0648  0.1512  0.0051
  682DOPS   C1A 7993   3.007  12.792  13.341 -0.0674 -0.3362 -0.0540
  682DOPS   D2A 7994   3.228  12.899  13.756 -0.1428  0.0394 -0.2230
  682DOPS   C3A 7995   2.999  12.744  14.137 -0.1914 -0.1102  0.4335
  682DOPS   C4A 7996   2.774  12.492  14.465 -0.1188 -0.4639 -0.0015
  682DOPS   C1B 7997   3.027  12.253  13.348  0.0471  0.0426 -0.2338
  682DOPS   D2B 7998   3.034  12.428  13.843  0.1324  0.3688  0.0596
  682DOPS   C3B 7999   3.469  12.571  13.998  0.1049  0.3722  0.3644
  682DOPS   C4B 8000   3.767  12.701  14.233 -0.0752 -0.0506  0.1176
  683DOPC   NC3 8001   1.786  16.841  13.088  0.0357 -0.0967 -0.1018
  683DOPC   PO4 8002   1.564  16.553  13.092 -0.0752 -0.0495 -0.0702
  683DOPC   GL1 8003   1.679  16.417  13.326 -0.1022  0.0131 -0.4007
  683DOPC   GL2 8004   1.800  16.166  13.357 -0.0554 -0.0994  0.1516
  683DOPC   C1A 8005   1.633  16.465  13.769  0.3917  0.1777  0.1501
  683DOPC   D2A 8006   1.305  16.647  14.007  0.1440  0.0732  0.0206
  683DOPC   C3A 8007   1.353  16.910  14.422 -0.0945 -0.1801 -0.0550
  683DOPC   C4A 8008   1.163  17.157  14.757 -0.1643 -0.2510 -0.0080
  683DOPC   C1B 8009   2.011  15.760  13.557 -0.0272 -0.1537  0.1719
  683DOPC   D2B 8010   2.018  15.290  13.494  0.0131  0.0054  0.0728
  683DOPC   C3B 8011   2.302  14.938  13.540  0.1116  0.0472 -0.0140
  683DOPC   C4B 8012   2.716  14.766  13.524  0.0908 -0.1304  0.0232
  684DOPC   NC3 8013   4.614  15.120  12.604  0.0209  0.0230  0.0233
  684DOPC   PO4 8014   4.810  15.117  12.966 -0.1395 -0.3037  0.0679
  684DOPC   GL1 8015   4.952  15.240  13.361  0.0638 -0.0910 -0.2182
  684DOPC   GL2 8016   4.608  15.235  13.437  0.1314 -0.3374 -0.1438
  684DOPC   C1A 8017   4.994  15.186  13.820 -0.1750  0.2973  0.1756
  684DOPC   D2A 8018   5.077  15.012  14.267  0.0008  0.2502  0.0538
  684DOPC   C3A 8019   5.258  15.203  14.656  0.1813  0.0317  0.0611
  684DOPC   C4A 8020   5.618  15.114  14.886 -0.2036  0.2460  0.2372
  684DOPC   C1B 8021   4.555  15.375  13.895 -0.0264  0.0245  0.2978
  684DOPC   D2B 8022   4.319  15.291  14.314  0.0095 -0.2475  0.2119
  684DOPC   C3B 8023   3.899  15.354  14.085 -0.1498 -0.0669 -0.0216
  684DOPC   C4B 8024   3.538  15.579  14.208 -0.2967 -0.2553  0.0045
  685DOPE   NH3 8025   6.523  14.753  12.860 -0.1151  0.1837 -0.3994
  685DOPE   PO4 8026   6.298  14.990  13.002  0.1084  0.1239  0.1519
  685DOPE   GL1 8027   6.428  14.880  13.306  0.3497 -0.2931 -0.0992
  685DOPE   GL2 8028   6.242  14.999  13.517  0.0126 -0.3094 -0.0063
  685DOPE   C1A 8029   6.699  14.662  13.673  0.0969  0.1134 -0.0560
  685DOPE   D2A 8030   6.586  14.601  14.125 -0.1453  0.1052 -0.2739
  685DOPE   C3A 8031   6.863  14.672  14.506  0.2030 -0.0911 -0.1139
  685DOPE   C4A 8032   7.162  14.960  14.793 -0.0679  0.1216  0.1017
  685DOPE   C1B 8033   6.234  14.668  13.826 -0.1333 -0.2010  0.1622
  685DOPE   D2B 8034   6.268  14.216  13.782  0.3562  0.1081  0.0627
  685DOPE   C3B 8035   6.361  13.810  13.931  0.1615  0.2406 -0.1576
  685DOPE   C4B 8036   6.397  13.486  13.660 -0.0520 -0.1639  0.1740
  686DOPC   NC3 8037   1.831  15.130  12.507  0.1662 -0.0119  0.0050
  686DOPC   PO4 8038   1.447  15.233  12.610  0.0420 -0.0650  0.1249
  686DOPC   GL1 8039   1.275  15.123  12.909 -0.0247  0.1298 -0.0625
  686DOPC   GL2 8040   1.386  15.217  13.171  0.1824  0.0100 -0.1569
  686DOPC   C1A 8041   1.178  14.761  13.208 -0.1093  0.0101  0.1834
  686DOPC   D2A 8042   0.853  14.527  13.455  0.0608  0.0004  0.3623
  686DOPC   C3A 8043   0.809  14.087  13.420 -0.0215  0.0521  0.0154
  686DOPC   C4A 8044   0.815  13.623  13.442 -0.2421  0.0833 -0.2980
  686DOPC   C1B 8045   1.242  15.065  13.581  0.1427  0.0953 -0.2681
  686DOPC   D2B 8046   1.144  14.726  13.902  0.1102  0.4048 -0.0106
  686DOPC   C3B 8047   1.391  14.520  14.281 -0.0386 -0.2004  0.3091
  686DOPC   C4B 8048   1.607  14.178  14.456  0.0529  0.0498  0.1116
  687DOPC   NC3 8049   8.551  23.905  12.425 -0.2469  0.0071 -0.0883
  687DOPC   PO4 8050   8.162  23.819  12.429  0.1338 -0.0474  0.2701
  687DOPC   GL1 8051   8.154  23.608  12.789 -0.3651 -0.2631  0.1189
  687DOPC   GL2 8052   8.364  23.504  12.860  0.0401  0.5581 -0.3644
  687DOPC   C1A 8053   8.058  23.785  13.228 -0.0111 -0.1472  0.2226
  687DOPC   D2A 8054   7.899  23.664  13.660  0.2058  0.0338  0.3341
  687DOPC   C3A 8055   7.867  23.225  13.644 -0.0255 -0.2717 -0.0348
  687DOPC   C4A 8056   8.090  22.826  13.477 -0.1381  0.1256  0.3416
  687DOPC   C1B 8057   8.620  23.458  13.201 -0.1144  0.2304  0.1130
  687DOPC   D2B 8058   8.886  23.458  13.598 -0.1429 -0.0098 -0.0054
  687DOPC   C3B 8059   9.057  23.843  13.868  0.1610 -0.1131 -0.3599
  687DOPC   C4B 8060   9.309  23.960  14.214 -0.0455 -0.5744  0.0380
  688POSM   NC3 8061   6.472  21.765  12.740 -0.3218  0.0150  0.0550
  688POSM   PO4 8062   6.277  21.659  12.430 -0.3988 -0.0313 -0.1177
  688POSM   AM1 8063   6.037  21.727  12.621  0.1225  0.0263 -0.1435
  688POSM   AM2 8064   5.981  21.907  12.860  0.0422 -0.0158 -0.3973
  688POSM   T1A 8065   5.541  21.640  12.693 -0.1754 -0.2403 -0.0286
  688POSM   C2A 8066   5.145  21.775  12.918 -0.0310  0.3273  0.0242
  688POSM   C3A 8067   5.082  21.907  13.372  0.1299  0.0582 -0.1769
  688POSM   C1B 8068   5.678  22.020  13.014 -0.1050  0.0008 -0.1118
  688POSM   D2B 8069   5.358  22.288  13.200  0.0229  0.1135  0.0469
  688POSM   C3B 8070   5.372  22.252  13.637 -0.1561  0.1100  0.2710
  688POSM   C4B 8071   5.283  22.358  14.058 -0.2686  0.0582 -0.2070
  689DOPE   NH3 8072   5.538  15.658  12.705 -0.0806  0.0506 -0.1902
  689DOPE   PO4 8073   5.370  15.900  12.660 -0.0924  0.1230  0.0428
  689DOPE   GL1 8074   5.035  16.150  12.900 -0.0964  0.0065 -0.0715
  689DOPE   GL2 8075   4.785  15.999  12.864 -0.2084 -0.0388  0.2267
  689DOPE   C1A 8076   4.743  16.459  12.964  0.0949  0.0535  0.2908
  689DOPE   D2A 8077   4.813  16.755  13.280 -0.1371 -0.2034 -0.0610
  689DOPE   C3A 8078   4.598  16.679  13.745  0.1514  0.1989  0.0821
  689DOPE   C4A 8079   4.815  16.721  14.180  0.2126 -0.1669 -0.1248
  689DOPE   C1B 8080   4.992  15.988  13.307 -0.0374 -0.0808 -0.3424
  689DOPE   D2B 8081   4.997  15.691  13.634 -0.1832  0.3799  0.0834
  689DOPE   C3B 8082   5.259  15.751  14.078  0.2070 -0.1747  0.1466
  689DOPE   C4B 8083   5.269  15.829  14.530  0.0600 -0.0271  0.1570
  690DOPS   CNO 8084   5.220  15.251  12.487 -0.3577 -0.2086 -0.0585
  690DOPS   PO4 8085   4.953  15.496  12.620  0.0143 -0.2953  0.1501
  690DOPS   GL1 8086   4.480  15.604  12.735  0.3203 -0.0394  0.0839
  690DOPS   GL2 8087   4.566  15.555  13.042 -0.2223 -0.1206  0.1969
  690DOPS   C1A 8088   4.243  15.953  12.952 -0.1310  0.1679 -0.1175
  690DOPS   D2A 8089   3.943  16.068  13.197  0.1035  0.1388 -0.0983
  690DOPS   C3A 8090   4.092  16.229  13.679  0.1208  0.0530  0.0376
  690DOPS   C4A 8091   4.476  16.213  13.966 -0.2230  0.0469 -0.0888
  690DOPS   C1B 8092   4.424  15.773  13.446 -0.1249 -0.2065  0.2920
  690DOPS   D2B 8093   4.030  15.773  13.647  0.3024  0.2999  0.3664
  690DOPS   C3B 8094   4.174  15.810  14.071  0.0177 -0.0952 -0.0372
  690DOPS   C4B 8095   4.187  15.800  14.526 -0.0682 -0.1124 -0.2285
  691DOPC   NC3 8096   3.040  23.036  12.311  0.2794 -0.3857 -0.0278
  691DOPC   PO4 8097   3.329  22.772  12.362 -0.1195 -0.1692 -0.4473
  691DOPC   GL1 8098   3.667  22.731  12.587 -0.2255 -0.0913 -0.1195
  691DOPC   GL2 8099   3.639  22.646  12.923  0.0236 -0.0289 -0.2617
  691DOPC   C1A 8100   4.057  22.939  12.561 -0.3308 -0.0797  0.2977
  691DOPC   D2A 8101   4.486  22.804  12.577  0.1101  0.0789  0.4483
  691DOPC   C3A 8102   4.666  22.652  13.020 -0.0456 -0.0066 -0.0268
  691DOPC   C4A 8103   4.696  22.909  13.442 -0.1578 -0.0383  0.2058
  691DOPC   C1B 8104   4.109  22.636  13.015  0.2649 -0.2400  0.1718
  691DOPC   D2B 8105   4.269  22.431  13.385 -0.0750  0.1508  0.3236
  691DOPC   C3B 8106   4.107  22.375  13.834 -0.0730  0.0277 -0.3443
  691DOPC   C4B 8107   3.830  22.318  14.151  0.0181  0.0623  0.0694
  692DOPE   NH3 8108   1.289  15.661  12.964 -0.0897  0.1099  0.3752
  692DOPE   PO4 8109   1.048  15.831  13.112 -0.0335  0.0082  0.0504
  692DOPE   GL1 8110   0.992  15.591  13.406  0.0308  0.0443 -0.0899
  692DOPE   GL2 8111   1.088  15.717  13.583 -0.0699 -0.0773 -0.1193
  692DOPE   C1A 8112   0.696  15.309  13.547 -0.0766  0.0877 -0.4104
  692DOPE   D2A 8113   0.460  15.379  13.937  0.4319  0.0536 -0.1852
  692DOPE   C3A 8114   0.168  15.718  14.028  0.2762  0.0322 -0.1440
  692DOPE   C4A 8115  -0.157  16.034  13.986  0.0396  0.0827 -0.0885
  692DOPE   C1B 8116   1.208  15.815  14.012  0.0355  0.0632  0.0991
  692DOPE   D2B 8117   1.280  15.881  14.468 -0.1413 -0.0538  0.3694
  692DOPE   C3B 8118   0.975  15.629  14.676  0.0929  0.1163 -0.1876
  692DOPE   C4B 8119   0.736  15.657  15.041  0.1782 -0.1202 -0.2642
  693DOPE   NH3 8120   6.193  17.679  12.603 -0.0985  0.0116 -0.0650
  693DOPE   PO4 8121   5.923  17.501  12.637  0.0913  0.1538 -0.0934
  693DOPE   GL1 8122   5.745  17.444  12.995  0.2644 -0.3252  0.0918
  693DOPE   GL2 8123   5.896  17.560  13.208 -0.0144 -0.0124 -0.1115
  693DOPE   C1A 8124   5.388  17.180  13.143  0.0435  0.0529  0.1192
  693DOPE   D2A 8125   5.093  17.247  13.496 -0.0222  0.2121  0.1688
  693DOPE   C3A 8126   5.222  17.580  13.842 -0.1475  0.2060 -0.1786
  693DOPE   C4A 8127   5.095  17.922  14.109  0.2033 -0.1780  0.1385
  693DOPE   C1B 8128   5.676  17.851  13.515 -0.2029 -0.0377  0.2261
  693DOPE   D2B 8129   5.581  17.830  13.967 -0.0555 -0.0710  0.0105
  693DOPE   C3B 8130   5.633  18.158  14.292 -0.2934 -0.2299 -0.3486
  693DOPE   C4B 8131   5.214  18.281  14.531 -0.0270 -0.1881 -0.0998
  694POSM   NC3 8132   9.265  18.734  12.246 -0.2167 -0.0503  0.1437
  694POSM   PO4 8133   9.401  18.762  12.627 -0.1525  0.0203  0.3445
  694POSM   AM1 8134   9.382  18.954  12.884  0.0190 -0.1476 -0.0051
  694POSM   AM2 8135   9.402  19.186  13.003 -0.0917 -0.1610 -0.1359
  694POSM   T1A 8136   9.390  18.908  13.410  0.2228  0.0764  0.0131
  694POSM   C2A 8137   9.146  19.115  13.763  0.1545 -0.3865  0.1319
  694POSM   C3A 8138   9.020  19.525  13.886  0.3744 -0.3299 -0.1390
  694POSM   C1B 8139   9.191  19.292  13.142 -0.1452  0.2677 -0.1856
  694POSM   D2B 8140   8.797  19.329  13.432 -0.0725  0.0995 -0.3255
  694POSM   C3B 8141   8.583  19.686  13.579  0.0534 -0.0498 -0.1929
  694POSM   C4B 8142   8.566  20.144  13.360  0.0409  0.0184  0.1979
  695POSM   NC3 8143  10.116  22.653  12.285  0.1732 -0.0937  0.1924
  695POSM   PO4 8144   9.723  22.688  12.181  0.1043 -0.0992 -0.0653
  695POSM   AM1 8145   9.678  22.600  12.484  0.0413 -0.0280 -0.4050
  695POSM   AM2 8146   9.815  22.538  12.715 -0.1414  0.1272 -0.1440
  695POSM   T1A 8147   9.342  22.276  12.733 -0.0533 -0.0706  0.0923
  695POSM   C2A 8148   9.004  22.004  12.844  0.0237 -0.1200  0.1314
  695POSM   C3A 8149   9.003  21.581  13.010 -0.1367  0.1188  0.2280
  695POSM   C1B 8150   9.719  22.527  13.032 -0.1571 -0.0605 -0.1436
  695POSM   D2B 8151   9.723  22.649  13.470  0.0470  0.0336 -0.2917
  695POSM   C3B 8152   9.697  22.318  13.734  0.1879  0.2617 -0.0111
  695POSM   C4B 8153   9.526  21.894  13.855 -0.3527  0.0681  0.0296
  696DOPC   NC3 8154   0.151  16.136  13.052  0.1333  0.0595  0.0756
  696DOPC   PO4 8155   0.436  15.876  12.999  0.0539  0.2354 -0.2430
  696DOPC   GL1 8156   0.498  16.061  13.328  0.1616  0.2984 -0.1524
  696DOPC   GL2 8157   0.762  16.237  13.271  0.1539 -0.1528  0.3582
  696DOPC   C1A 8158   0.608  15.774  13.720 -0.0025  0.2329 -0.0419
  696DOPC   D2A 8159   0.761  15.721  14.176 -0.2481 -0.0885  0.2045
  696DOPC   C3A 8160   0.373  15.754  14.522 -0.0929 -0.0231  0.2307
  696DOPC   C4A 8161   0.283  15.977  14.972  0.0726  0.0523  0.2097
  696DOPC   C1B 8162   0.430  16.508  13.214 -0.3074  0.1822  0.0038
  696DOPC   D2B 8163   0.010  16.590  13.313  0.0957 -0.1170  0.2596
  696DOPC   C3B 8164   0.051  16.693  13.765 -0.0921  0.0202 -0.1747
  696DOPC   C4B 8165   0.362  16.798  14.097 -0.1549 -0.2584 -0.0478
  697DOPC   NC3 8166   3.913  22.253  12.680 -0.0204  0.3519  0.0760
  697DOPC   PO4 8167   3.581  22.044  12.746  0.2053 -0.1989 -0.2239
  697DOPC   GL1 8168   3.795  22.020  13.099  0.0792  0.0061 -0.0273
  697DOPC   GL2 8169   3.697  22.259  13.255 -0.2241 -0.3673 -0.0014
  697DOPC   C1A 8170   3.998  21.905  13.470  0.0657 -0.0052 -0.2206
  697DOPC   D2A 8171   3.875  21.864  13.893 -0.2273  0.1409 -0.0265
  697DOPC   C3A 8172   4.048  21.779  14.354  0.0564  0.2907 -0.1079
  697DOPC   C4A 8173   4.252  21.541  14.695  0.2756 -0.0506  0.1546
  697DOPC   C1B 8174   3.619  22.223  13.689 -0.0421  0.1086 -0.0757
  697DOPC   D2B 8175   3.395  21.843  13.871 -0.0907 -0.0608  0.3069
  697DOPC   C3B 8176   3.609  21.470  14.117  0.1638 -0.1593  0.1035
  697DOPC   C4B 8177   3.747  21.397  14.579 -0.0855  0.0250 -0.2841
  698DOPC   NC3 8178   6.171  18.464  12.490 -0.0250  0.1652  0.1815
  698DOPC   PO4 8179   6.310  18.866  12.600  0.1475  0.0217 -0.5611
  698DOPC   GL1 8180   6.095  18.961  12.928  0.0715 -0.2028  0.2719
  698DOPC   GL2 8181   6.225  19.171  13.057 -0.3491  0.1492 -0.1688
  698DOPC   C1A 8182   5.921  18.828  13.369  0.0273  0.0256  0.1062
  698DOPC   D2A 8183   5.625  18.791  13.711  0.0345  0.2330  0.1394
  698DOPC   C3A 8184   5.739  18.646  14.178 -0.1765 -0.1982 -0.1579
  698DOPC   C4A 8185   6.083  18.662  14.549  0.2948  0.0266  0.0850
  698DOPC   C1B 8186   6.045  19.294  13.457 -0.2569 -0.2740  0.1366
  698DOPC   D2B 8187   5.979  19.305  13.909  0.1134  0.2730 -0.2297
  698DOPC   C3B 8188   6.324  19.098  14.149  0.0357 -0.1173  0.1837
  698DOPC   C4B 8189   6.506  19.138  14.593 -0.4504  0.0686 -0.2256
  699POSM   NC3 8190   2.271  16.005  12.114  0.1589  0.1500  0.2189
  699POSM   PO4 8191   2.535  15.739  12.166 -0.1320  0.0415 -0.0986
  699POSM   AM1 8192   2.769  15.541  12.313 -0.0904  0.2260 -0.0447
  699POSM   AM2 8193   2.651  15.373  12.517 -0.1561  0.1656 -0.1266
  699POSM   T1A 8194   3.118  15.182  12.427  0.1931 -0.3508 -0.0807
  699POSM   C2A 8195   3.181  14.799  12.537 -0.1660  0.1269 -0.2876
  699POSM   C3A 8196   3.297  14.485  12.842 -0.1024  0.0140  0.1541
  699POSM   C1B 8197   2.790  15.184  12.760 -0.1047  0.2857 -0.0534
  699POSM   D2B 8198   2.981  14.925  13.096 -0.2704 -0.0193  0.1049
  699POSM   C3B 8199   3.294  14.745  13.318  0.1027  0.3352  0.0443
  699POSM   C4B 8200   3.353  14.305  13.441 -0.0311 -0.0327 -0.0972
  700DOPC   NC3 8201   1.628  21.366  12.396 -0.2120  0.2080  0.1280
  700DOPC   PO4 8202   1.847  21.445  12.731 -0.0697  0.1760  0.1432
  700DOPC   GL1 8203   1.674  21.524  13.057 -0.1187 -0.1069  0.1035
  700DOPC   GL2 8204   1.668  21.757  13.261  0.0488 -0.3117 -0.1078
  700DOPC   C1A 8205   1.888  21.344  13.468  0.2656 -0.2360 -0.1395
  700DOPC   D2A 8206   1.974  20.937  13.573  0.2133  0.3967 -0.1897
  700DOPC   C3A 8207   1.892  20.701  13.982 -0.0184  0.0341  0.0415
  700DOPC   C4A 8208   2.052  20.797  14.384 -0.1042 -0.1356  0.0514
  700DOPC   C1B 8209   1.683  22.008  13.653  0.0983  0.1681  0.0399
  700DOPC   D2B 8210   1.789  22.477  13.747  0.1114  0.0863  0.0466
  700DOPC   C3B 8211   1.611  22.756  14.166  0.2684 -0.1206  0.1559
  700DOPC   C4B 8212   1.473  22.723  14.589 -0.1066  0.2745 -0.0597
  701POSM   NC3 8213  10.661  15.654  11.894  0.3785  0.0031  0.0362
  701POSM   PO4 8214  10.481  15.925  12.133 -0.1482 -0.3177  0.3245
  701POSM   AM1 8215  10.523  16.001  12.449  0.1331 -0.0273 -0.0637
  701POSM   AM2 8216  10.410  16.160  12.651  0.0437  0.2680  0.1764
  701POSM   T1A 8217  10.662  15.838  12.887  0.1475  0.3855 -0.2918
  701POSM   C2A 8218  10.720  15.824  13.381 -0.1331  0.1620 -0.2035
  701POSM   C3A 8219  10.648  15.868  13.836 -0.0117 -0.3523  0.0726
  701POSM   C1B 8220  10.242  16.279  12.920  0.1531  0.0240 -0.0506
  701POSM   D2B 8221  10.037  16.270  13.344 -0.1201  0.1404 -0.2282
  701POSM   C3B 8222  10.124  16.452  13.755 -0.2494  0.4179  0.0334
  701POSM   C4B 8223  10.002  16.557  14.162  0.0523 -0.0072  0.1533
  702DOPS   CNO 8224   8.636  13.228  12.357  0.2569 -0.1603  0.2079
  702DOPS   PO4 8225   8.841  13.449  12.590 -0.1141 -0.0988  0.0507
  702DOPS   GL1 8226   8.595  13.588  12.793  0.0037  0.0238  0.0229
  702DOPS   GL2 8227   8.316  13.453  12.780  0.3950 -0.0848 -0.1803
  702DOPS   C1A 8228   8.621  13.861  13.159  0.1991 -0.1887  0.2547
  702DOPS   D2A 8229   8.426  13.976  13.587  0.3311 -0.0885  0.0545
  702DOPS   C3A 8230   8.618  14.315  13.904 -0.1444 -0.3116 -0.0648
  702DOPS   C4A 8231   8.763  14.477  14.314 -0.0489 -0.3486 -0.0210
  702DOPS   C1B 8232   8.144  13.813  12.921 -0.0766  0.2279  0.3137
  702DOPS   D2B 8233   7.991  14.169  13.201  0.2900  0.0804 -0.1845
  702DOPS   C3B 8234   8.050  14.327  13.643 -0.1976  0.0036  0.0651
  702DOPS   C4B 8235   7.748  14.452  13.991 -0.1556 -0.0574  0.1903
  703DOPC   NC3 8236   4.259  18.383  12.948 -0.2307  0.0355  0.3909
  703DOPC   PO4 8237   4.018  18.346  12.623 -0.3406 -0.1350  0.1865
  703DOPC   GL1 8238   4.115  17.970  12.759  0.1695  0.3767 -0.2670
  703DOPC   GL2 8239   4.369  17.991  12.685 -0.0667  0.2223  0.4073
  703DOPC   C1A 8240   4.278  17.600  13.049  0.0238  0.1797  0.1748
  703DOPC   D2A 8241   4.602  17.368  13.312  0.0055  0.0911  0.0706
  703DOPC   C3A 8242   4.397  16.897  13.370 -0.1392  0.1768 -0.2718
  703DOPC   C4A 8243   3.984  16.693  13.534 -0.1336 -0.4334 -0.2072
  703DOPC   C1B 8244   4.797  18.203  12.709  0.4422 -0.0301 -0.2676
  703DOPC   D2B 8245   5.224  18.259  12.963  0.1853  0.2497  0.0016
  703DOPC   C3B 8246   5.246  18.168  13.362 -0.0274  0.0502  0.1737
  703DOPC   C4B 8247   5.398  18.263  13.747  0.1269 -0.1416 -0.2305
  704DOPS   CNO 8248   0.582  21.197  12.309  0.1764  0.1739 -0.1049
  704DOPS   PO4 8249   0.449  21.078  12.679  0.1051  0.1400  0.1712
  704DOPS   GL1 8250   0.379  21.249  13.008  0.3038 -0.0584 -0.1727
  704DOPS   GL2 8251   0.314  21.510  13.055  0.2670  0.1116  0.0810
  704DOPS   C1A 8252   0.155  21.031  13.401  0.2994 -0.0290  0.0615
  704DOPS   D2A 8253   0.280  20.836  13.841 -0.2918 -0.1181  0.1942
  704DOPS   C3A 8254   0.043  21.041  14.214  0.2988  0.1323  0.0954
  704DOPS   C4A 8255  -0.279  21.120  14.607  0.0441  0.0411 -0.1801
  704DOPS   C1B 8256   0.303  21.516  13.518  0.1316 -0.0117  0.1659
  704DOPS   D2B 8257   0.256  21.355  13.967  0.4095 -0.2059 -0.2352
  704DOPS   C3B 8258   0.594  21.143  14.242  0.1700  0.3590 -0.0184
  704DOPS   C4B 8259   1.043  21.104  14.294  0.1483 -0.1688 -0.0861
  705DOPE   NH3 8260   4.114  20.418  13.155 -0.1276  0.1192  0.1170
  705DOPE   PO4 8261   4.125  20.617  12.899 -0.0498 -0.0983 -0.0074
  705DOPE   GL1 8262   4.456  20.753  13.125 -0.1053  0.1335  0.1094
  705DOPE   GL2 8263   4.543  20.573  13.351  0.2991  0.4401 -0.2691
  705DOPE   C1A 8264   4.775  21.109  13.233 -0.1181  0.0862 -0.1794
  705DOPE   D2A 8265   5.073  21.380  13.291  0.0293 -0.1035  0.0024
  705DOPE   C3A 8266   4.895  21.564  13.664 -0.0142 -0.0818 -0.0231
  705DOPE   C4A 8267   5.002  21.884  13.978 -0.1588 -0.2992 -0.0731
  705DOPE   C1B 8268   4.589  20.422  13.761 -0.2845 -0.2310 -0.2498
  705DOPE   D2B 8269   4.996  20.355  14.016  0.0291 -0.2720  0.0087
  705DOPE   C3B 8270   5.117  19.922  14.115 -0.0205  0.0187  0.2035
  705DOPE   C4B 8271   5.234  19.557  14.380  0.1101  0.2158 -0.0971
  706DOPE   NH3 8272  10.486  14.737  11.939  0.3838 -0.0899  0.0762
  706DOPE   PO4 8273  10.548  14.666  12.204 -0.0524 -0.3223 -0.1866
  706DOPE   GL1 8274  10.654  14.387  12.430  0.1411  0.2130  0.3466
  706DOPE   GL2 8275  10.471  14.492  12.634 -0.2034  0.3508  0.1601
  706DOPE   C1A 8276  10.842  14.060  12.686  0.1783  0.2281  0.0324
  706DOPE   D2A 8277  10.938  13.881  13.160 -0.0875 -0.4007  0.1701
  706DOPE   C3A 8278  11.104  14.308  13.296 -0.4450 -0.3250 -0.4024
  706DOPE   C4A 8279  11.074  14.667  13.587  0.0436  0.1524 -0.1878
  706DOPE   C1B 8280  10.505  14.312  13.056 -0.0194  0.1726 -0.1807
  706DOPE   D2B 8281  10.653  14.386  13.522 -0.2464 -0.0843  0.3466
  706DOPE   C3B 8282  10.988  14.195  13.785 -0.0077  0.2635  0.1401
  706DOPE   C4B 8283  11.418  13.999  13.934  0.1183  0.2302  0.2790
  707DOPE   NH3 8284   6.941  15.563  13.099  0.1022  0.0425 -0.0710
  707DOPE   PO4 8285   6.921  15.839  12.982  0.6778  0.0067  0.1554
  707DOPE   GL1 8286   6.636  15.950  13.206  0.0208  0.2086  0.3456
  707DOPE   GL2 8287   6.822  16.170  13.338  0.2428  0.3480 -0.1450
  707DOPE   C1A 8288   6.428  16.136  13.597 -0.2647  0.1137 -0.0750
  707DOPE   D2A 8289   6.558  16.102  14.053  0.0643 -0.1483 -0.3017
  707DOPE   C3A 8290   6.749  16.429  14.276 -0.0851  0.2126 -0.0230
  707DOPE   C4A 8291   7.009  16.812  14.205 -0.0195  0.1269  0.1030
  707DOPE   C1B 8292   7.031  15.939  13.705  0.0756 -0.1620 -0.1030
  707DOPE   D2B 8293   6.960  15.580  14.017  0.0588 -0.4717  0.1576
  707DOPE   C3B 8294   6.676  15.658  14.395  0.1056  0.4054 -0.0937
  707DOPE   C4B 8295   6.570  15.362  14.749  0.3979 -0.0092 -0.0301
  708DOPC   NC3 8296   4.174  14.270  12.834  0.1425  0.3363 -0.0474
  708DOPC   PO4 8297   4.390  14.250  12.509  0.0557 -0.3478 -0.0081
  708DOPC   GL1 8298   4.743  14.049  12.620  0.2959 -0.0574  0.0441
  708DOPC   GL2 8299   4.684  13.969  12.880 -0.1102 -0.0624  0.2287
  708DOPC   C1A 8300   5.135  13.798  12.464 -0.3479 -0.2725 -0.4258
  708DOPC   D2A 8301   5.582  13.992  12.444 -0.0585 -0.1848  0.1273
  708DOPC   C3A 8302   5.866  13.680  12.746  0.1457 -0.0676  0.1155
  708DOPC   C4A 8303   6.018  13.574  13.192 -0.1303  0.0003  0.0947
  708DOPC   C1B 8304   4.759  13.533  12.692  0.2602 -0.0780  0.2086
  708DOPC   D2B 8305   4.709  13.187  12.984  0.0171  0.1240  0.0762
  708DOPC   C3B 8306   4.672  13.231  13.407  0.2074 -0.4063  0.3008
  708DOPC   C4B 8307   4.714  13.066  13.811 -0.2203 -0.0978  0.0585
  709DOPS   CNO 8308  10.782  19.158  11.869 -0.1292 -0.0570 -0.1274
  709DOPS   PO4 8309  10.604  19.196  12.191 -0.2254 -0.2410  0.0185
  709DOPS   GL1 8310  10.731  18.872  12.511  0.1524 -0.0315 -0.3978
  709DOPS   GL2 8311  10.929  18.936  12.766 -0.1785  0.0814 -0.0650
  709DOPS   C1A 8312  10.655  18.456  12.369  0.2643  0.1005 -0.2415
  709DOPS   D2A 8313  10.574  17.999  12.346  0.5243  0.0487 -0.0011
  709DOPS   C3A 8314  10.698  18.026  12.799  0.0494  0.1406  0.2804
  709DOPS   C4A 8315  10.712  18.087  13.212  0.2496 -0.1650  0.0010
  709DOPS   C1B 8316  10.506  18.817  12.935 -0.1167 -0.0641  0.1096
  709DOPS   D2B 8317  10.161  19.008  13.078 -0.0650  0.1407 -0.2828
  709DOPS   C3B 8318   9.827  19.054  13.304  0.2266  0.0311 -0.0491
  709DOPS   C4B 8319   9.550  19.445  13.530  0.0248  0.2683  0.1753
  710DOPS   CNO 8320   8.707  22.973  12.218  0.1028  0.1025 -0.2405
  710DOPS   PO4 8321   8.442  22.718  12.059 -0.0503 -0.2244  0.1459
  710DOPS   GL1 8322   8.201  22.518  12.307  0.3209 -0.5056  0.2159
  710DOPS   GL2 8323   7.904  22.573  12.211 -0.0308  0.0257 -0.1226
  710DOPS   C1A 8324   8.331  22.411  12.734  0.1631  0.0261  0.1377
  710DOPS   D2A 8325   8.477  22.076  12.971  0.0306 -0.0832 -0.3433
  710DOPS   C3A 8326   8.786  22.211  13.257 -0.0192 -0.3162  0.0489
  710DOPS   C4A 8327   8.961  22.039  13.690 -0.1214 -0.0386 -0.0740
  710DOPS   C1B 8328   8.004  22.168  12.471 -0.0144 -0.0428 -0.1592
  710DOPS   D2B 8329   8.051  21.911  12.859  0.0051  0.3573 -0.0023
  710DOPS   C3B 8330   7.682  21.989  13.147  0.0505 -0.1128  0.1509
  710DOPS   C4B 8331   7.289  21.910  13.394 -0.3097 -0.0015  0.3748
  711DOPC   NC3 8332   6.768  21.209  12.515  0.0082  0.0507  0.0143
  711DOPC   PO4 8333   7.050  21.492  12.422 -0.0409  0.3429 -0.1126
  711DOPC   GL1 8334   7.494  21.483  12.471 -0.3700  0.3071 -0.0792
  711DOPC   GL2 8335   7.521  21.724  12.682  0.1078 -0.1690 -0.0968
  711DOPC   C1A 8336   7.883  21.437  12.771 -0.2820  0.3218 -0.0957
  711DOPC   D2A 8337   7.981  21.554  13.197  0.1788 -0.4396 -0.0279
  711DOPC   C3A 8338   8.204  21.798  13.462 -0.1628 -0.2394 -0.0750
  711DOPC   C4A 8339   8.430  22.218  13.623  0.0517 -0.0647 -0.0470
  711DOPC   C1B 8340   7.469  21.425  13.040  0.0109 -0.0953  0.1418
  711DOPC   D2B 8341   7.689  21.148  13.318  0.1684  0.2875 -0.1172
  711DOPC   C3B 8342   7.398  20.915  13.572  0.1235 -0.0320  0.1071
  711DOPC   C4B 8343   7.055  20.639  13.546 -0.3113 -0.0292 -0.0987
  712DOPS   CNO 8344   1.814  16.220  12.841 -0.1632  0.1424 -0.3227
  712DOPS   PO4 8345   2.106  16.376  13.082  0.0603  0.2378 -0.0437
  712DOPS   GL1 8346   2.332  16.136  13.319  0.2736  0.0419 -0.1796
  712DOPS   GL2 8347   2.573  16.089  13.218  0.0087  0.3271 -0.2258
  712DOPS   C1A 8348   2.107  16.213  13.741 -0.2773 -0.2301 -0.2084
  712DOPS   D2A 8349   1.715  15.920  13.892 -0.0945 -0.3672 -0.1520
  712DOPS   C3A 8350   1.624  16.181  14.232  0.0206 -0.2112 -0.3563
  712DOPS   C4A 8351   1.279  16.374  14.501 -0.1886  0.0555 -0.2969
  712DOPS   C1B 8352   3.066  16.157  13.273  0.1330 -0.3878 -0.4581
  712DOPS   D2B 8353   3.439  15.991  13.094 -0.1177 -0.0554 -0.1467
  712DOPS   C3B 8354   3.539  15.983  13.550 -0.1177 -0.0775  0.0894
  712DOPS   C4B 8355   3.641  16.045  14.008  0.2635 -0.0970  0.2528
  713DOPS   CNO 8356   4.312  19.255  12.295  0.0392 -0.0672  0.0449
  713DOPS   PO4 8357   4.030  19.017  12.432  0.0355 -0.1163  0.4171
  713DOPS   GL1 8358   3.899  18.884  12.845  0.0670 -0.0571 -0.4601
  713DOPS   GL2 8359   3.636  18.779  12.758  0.0318 -0.0399 -0.3976
  713DOPS   C1A 8360   3.807  18.608  13.184 -0.0361 -0.2040 -0.1837
  713DOPS   D2A 8361   3.977  18.455  13.600 -0.3074  0.0622  0.1346
  713DOPS   C3A 8362   4.063  18.136  13.896  0.2304 -0.0318 -0.0741
  713DOPS   C4A 8363   4.526  17.924  14.015 -0.1395  0.1185  0.3145
  713DOPS   C1B 8364   3.355  18.810  13.142 -0.0532  0.1901  0.3269
  713DOPS   D2B 8365   3.497  18.771  13.590  0.1752  0.2061  0.1871
  713DOPS   C3B 8366   3.442  18.500  13.914  0.1016 -0.0065  0.0774
  713DOPS   C4B 8367   3.264  18.584  14.332 -0.1547  0.4398 -0.1809
  714DOPC   NC3 8368   0.851  20.765  12.758 -0.1105  0.0505 -0.3515
  714DOPC   PO4 8369   0.557  20.592  12.594  0.1336  0.0260 -0.0254
  714DOPC   GL1 8370   0.787  20.263  12.674 -0.0588  0.0750 -0.0579
  714DOPC   GL2 8371   0.722  20.265  12.960  0.2006  0.0421  0.2237
  714DOPC   C1A 8372   1.236  20.148  12.531 -0.0760  0.0999  0.0175
  714DOPC   D2A 8373   1.570  19.810  12.621 -0.0179 -0.1040 -0.0280
  714DOPC   C3A 8374   1.781  19.768  13.019 -0.1721  0.0404  0.0503
  714DOPC   C4A 8375   2.020  20.034  13.257  0.0329  0.0765  0.2962
  714DOPC   C1B 8376   1.153  20.388  13.111 -0.1314 -0.1110 -0.1586
  714DOPC   D2B 8377   1.575  20.289  12.867  0.0729 -0.2165 -0.1960
  714DOPC   C3B 8378   1.923  20.478  12.992  0.4514 -0.0664  0.1861
  714DOPC   C4B 8379   2.186  20.782  12.701  0.2439 -0.0027 -0.1547
  715DOPE   NH3 8380   9.953  12.460  13.001  0.2936  0.4101 -0.0085
  715DOPE   PO4 8381   9.716  12.242  13.063  0.4160 -0.2976  0.3694
  715DOPE   GL1 8382   9.659  12.296  13.437 -0.0858 -0.1819 -0.3600
  715DOPE   GL2 8383   9.659  12.587  13.463 -0.1355 -0.2568  0.1437
  715DOPE   C1A 8384   9.798  12.063  13.845  0.0900 -0.0376 -0.1681
  715DOPE   D2A 8385   9.919  11.607  13.844 -0.2769 -0.0657 -0.0292
  715DOPE   C3A 8386   9.945  11.249  14.117 -0.0061  0.0428  0.1300
  715DOPE   C4A 8387  10.089  10.842  13.976  0.4195  0.2435 -0.0853
  715DOPE   C1B 8388   9.438  12.392  13.816  0.3505 -0.1432  0.1905
  715DOPE   D2B 8389   9.261  12.093  14.070  0.0224  0.0675 -0.2621
  715DOPE   C3B 8390   9.607  11.940  14.290  0.0525 -0.1159  0.0558
  715DOPE   C4B 8391   9.956  11.648  14.437  0.2110  0.0999  0.0010
  716DOPE   NH3 8392   0.580  22.691  12.482 -0.1131  0.0357  0.0967
  716DOPE   PO4 8393   0.388  22.927  12.682 -0.0895  0.0815 -0.1406
  716DOPE   GL1 8394   0.682  22.843  12.915 -0.3652 -0.3788 -0.0649
  716DOPE   GL2 8395   0.788  22.566  12.930  0.0400  0.0708 -0.1548
  716DOPE   C1A 8396   0.701  22.872  13.347 -0.1319 -0.0734  0.2640
  716DOPE   D2A 8397   0.795  23.214  13.641 -0.3257  0.1184 -0.0137
  716DOPE   C3A 8398   0.630  23.291  14.089  0.0257 -0.2119 -0.2284
  716DOPE   C4A 8399   0.616  23.476  14.499 -0.0237 -0.1079 -0.0890
  716DOPE   C1B 8400   0.448  22.452  13.187  0.0948  0.1473 -0.1527
  716DOPE   D2B 8401   0.316  22.336  13.634  0.0369  0.2049 -0.0034
  716DOPE   C3B 8402   0.445  21.958  13.765  0.2780  0.3884 -0.2518
  716DOPE   C4B 8403   0.733  21.591  13.967  0.2280  0.0636  0.1912
  717POSM   NC3 8404   5.653  14.971  12.463  0.1279 -0.0027 -0.0553
  717POSM   PO4 8405   5.772  14.897  12.833 -0.2659  0.3095  0.1409
  717POSM   AM1 8406   5.853  14.802  13.160  0.0856  0.0281  0.1810
  717POSM   AM2 8407   6.056  14.617  13.196 -0.4141 -0.0554  0.2129
  717POSM   T1A 8408   5.754  14.909  13.622  0.0913 -0.1397 -0.0241
  717POSM   C2A 8409   5.560  14.857  14.089 -0.4276  0.0828 -0.1409
  717POSM   C3A 8410   5.839  14.868  14.491 -0.2819 -0.3142 -0.3465
  717POSM   C1B 8411   5.969  14.379  13.420 -0.2810  0.2094 -0.0830
  717POSM   D2B 8412   5.713  14.393  13.815 -0.0709  0.0582 -0.1325
  717POSM   C3B 8413   5.980  14.442  14.212  0.0828 -0.2049  0.0981
  717POSM   C4B 8414   6.232  14.149  14.353 -0.0418  0.0054  0.1693
  718DOPS   CNO 8415   9.808  21.791  12.103 -0.2557 -0.0995 -0.1510
  718DOPS   PO4 8416   9.807  22.177  12.266  0.3051  0.0812  0.1028
  718DOPS   GL1 8417   9.508  21.884  12.459 -0.0849 -0.3728  0.1311
  718DOPS   GL2 8418   9.646  21.571  12.491  0.0635 -0.1344  0.0975
  718DOPS   C1A 8419   9.154  21.583  12.554  0.4499  0.1791 -0.1913
  718DOPS   D2A 8420   8.996  21.194  12.674  0.4384  0.2290 -0.0093
  718DOPS   C3A 8421   8.861  21.128  13.163  0.0201 -0.1843  0.1647
  718DOPS   C4A 8422   8.850  21.229  13.642  0.1794  0.2267  0.2492
  718DOPS   C1B 8423   9.478  21.353  12.886 -0.3523  0.2591  0.4162
  718DOPS   D2B 8424   9.291  20.957  13.000  0.1124  0.1661  0.1055
  718DOPS   C3B 8425   9.108  20.823  13.482  0.2218 -0.0823  0.0112
  718DOPS   C4B 8426   8.851  20.690  13.811 -0.2606 -0.1465 -0.2409
  719DOPC   NC3 8427   7.449  14.697  12.911 -0.2657  0.0725  0.1369
  719DOPC   PO4 8428   7.038  14.693  12.911 -0.1242  0.0145 -0.1595
  719DOPC   GL1 8429   7.089  14.384  13.152  0.0723  0.0476 -0.1845
  719DOPC   GL2 8430   7.299  14.193  13.155  0.0544 -0.0841 -0.1633
  719DOPC   C1A 8431   7.043  14.258  13.585  0.0190 -0.1223  0.2616
  719DOPC   D2A 8432   6.744  14.196  13.966  0.2560 -0.3410 -0.3841
  719DOPC   C3A 8433   6.815  13.692  14.040 -0.2485  0.1552  0.0184
  719DOPC   C4A 8434   6.617  13.318  14.070  0.2622 -0.1384  0.0917
  719DOPC   C1B 8435   7.085  13.829  13.164 -0.0252 -0.2510  0.0378
  719DOPC   D2B 8436   6.788  13.556  12.934 -0.0521 -0.1084 -0.3335
  719DOPC   C3B 8437   6.573  13.335  13.226 -0.3033 -0.3648 -0.1373
  719DOPC   C4B 8438   6.299  13.041  13.348 -0.1773  0.1738 -0.0759
  720DOPE   NH3 8439  34.129  15.503  12.897 -0.0044  0.0698  0.5673
  720DOPE   PO4 8440  34.340  15.355  12.686 -0.0537  0.2462 -0.0290
  720DOPE   GL1 8441  34.581  15.346  13.081 -0.4995  0.1278  0.1893
  720DOPE   GL2 8442  34.745  15.530  12.959 -0.0203 -0.3188 -0.0363
  720DOPE   C1A 8443  34.640  14.978  13.425  0.1227  0.1211  0.0203
  720DOPE   D2A 8444  34.741  14.573  13.669  0.2252  0.1182  0.0777
  720DOPE   C3A 8445  34.342  14.347  13.666  0.1715 -0.1835 -0.0588
  720DOPE   C4A 8446  34.042  14.007  13.717 -0.3354  0.0363 -0.2613
  720DOPE   C1B 8447  34.955  15.368  13.347  0.1683 -0.0810  0.0791
  720DOPE   D2B 8448  34.711  15.391  13.707 -0.1542 -0.0466  0.5138
  720DOPE   C3B 8449  34.764  15.088  14.059  0.0527 -0.3742 -0.0828
  720DOPE   C4B 8450  34.535  14.677  14.129  0.1098 -0.1842  0.1328
  721DOPS   CNO 8451   5.982  15.400  12.711 -0.1714  0.0026  0.1228
  721DOPS   PO4 8452   6.202  15.122  12.549  0.0392  0.2388 -0.0924
  721DOPS   GL1 8453   6.102  14.647  12.698 -0.1739  0.0630  0.1619
  721DOPS   GL2 8454   5.991  14.455  12.432  0.0376  0.1010  0.0829
  721DOPS   C1A 8455   6.183  14.215  12.917 -0.0891 -0.0522  0.1976
  721DOPS   D2A 8456   6.287  14.018  13.324 -0.1688 -0.1589 -0.1661
  721DOPS   C3A 8457   6.672  13.877  13.544  0.2724 -0.2683  0.4199
  721DOPS   C4A 8458   6.900  13.536  13.554  0.0246  0.1162 -0.1060
  721DOPS   C1B 8459   6.426  14.297  12.433 -0.0250  0.3480 -0.0736
  721DOPS   D2B 8460   6.824  14.273  12.590 -0.2636  0.0912  0.3855
  721DOPS   C3B 8461   6.761  14.132  12.991  0.2176 -0.1106  0.0135
  721DOPS   C4B 8462   6.596  14.330  13.354 -0.0639 -0.0445 -0.1034
  722DOPS   CNO 8463  10.101  18.959  12.220  0.0417 -0.0893 -0.0446
  722DOPS   PO4 8464   9.721  19.048  12.092 -0.0904 -0.2665 -0.1916
  722DOPS   GL1 8465   9.669  19.491  12.181  0.0298  0.0912 -0.2820
  722DOPS   GL2 8466   9.415  19.463  12.070 -0.0285 -0.0921 -0.0704
  722DOPS   C1A 8467   9.649  19.957  12.122  0.2373  0.0570 -0.0210
  722DOPS   D2A 8468   9.660  20.403  12.246  0.0247  0.3970 -0.2708
  722DOPS   C3A 8469  10.018  20.652  12.240  0.2147 -0.2922 -0.0654
  722DOPS   C4A 8470  10.399  20.890  12.172  0.2205 -0.0784  0.1264
  722DOPS   C1B 8471   9.182  19.840  12.137  0.0195  0.2992  0.1616
  722DOPS   D2B 8472   9.283  20.178  11.889 -0.1668  0.3554  0.1494
  722DOPS   C3B 8473   9.048  20.528  12.009  0.0095  0.0323 -0.2713
  722DOPS   C4B 8474   8.744  20.742  12.206  0.3807  0.0595 -0.2214
  723DOPE   NH3 8475   0.775  21.571  12.765  0.1216 -0.0795  0.1154
  723DOPE   PO4 8476   0.499  21.635  12.600  0.2021  0.0138  0.0334
  723DOPE   GL1 8477   0.181  21.818  12.814  0.1136 -0.2569  0.0387
  723DOPE   GL2 8478  -0.129  21.748  12.890  0.0898 -0.2011  0.1918
  723DOPE   C1A 8479   0.169  22.002  13.264  0.0366  0.1176 -0.3279
  723DOPE   D2A 8480  -0.105  22.062  13.613  0.0135  0.4327  0.0443
  723DOPE   C3A 8481   0.002  21.774  14.007 -0.3110  0.1586  0.0414
  723DOPE   C4A 8482  -0.003  21.556  14.358  0.3318 -0.0709 -0.0105
  723DOPE   C1B 8483  -0.126  21.598  13.321  0.2053 -0.0564  0.1751
  723DOPE   D2B 8484  -0.227  21.260  13.642  0.0270  0.3217  0.0228
  723DOPE   C3B 8485  -0.681  21.293  13.765  0.0197  0.0697 -0.0073
  723DOPE   C4B 8486  -0.911  21.287  14.184  0.2786  0.3395 -0.0214
  724DOPE   NH3 8487   2.871  17.796  12.915  0.0336  0.1575 -0.0040
  724DOPE   PO4 8488   3.012  17.966  12.733  0.0711 -0.1920  0.3028
  724DOPE   GL1 8489   3.292  17.976  13.028 -0.1783 -0.3560  0.1792
  724DOPE   GL2 8490   3.334  17.804  13.258  0.0108  0.0592 -0.1201
  724DOPE   C1A 8491   3.764  18.093  13.125 -0.0771  0.0617  0.1850
  724DOPE   D2A 8492   4.196  18.063  13.303  0.1087 -0.0493  0.0910
  724DOPE   C3A 8493   4.492  18.220  13.655 -0.1858  0.3220 -0.0492
  724DOPE   C4A 8494   4.399  18.503  14.076 -0.0055  0.0426  0.1875
  724DOPE   C1B 8495   3.774  17.659  13.337 -0.0248  0.1700 -0.0046
  724DOPE   D2B 8496   4.162  17.490  13.500 -0.1636  0.0706 -0.0387
  724DOPE   C3B 8497   4.283  17.125  13.793  0.2663  0.2365  0.0830
  724DOPE   C4B 8498   4.245  16.778  14.092 -0.0446  0.2460  0.0322
  725POSM   NC3 8499  10.454  12.074  12.564 -0.1338  0.0263 -0.1622
  725POSM   PO4 8500  10.151  11.979  12.876  0.3129 -0.1238 -0.2095
  725POSM   AM1 8501  10.076  12.004  13.205  0.0921  0.4547 -0.0616
  725POSM   AM2 8502  10.060  11.799  13.420  0.1911 -0.1169 -0.0588
  725POSM   T1A 8503  10.127  12.386  13.570 -0.1197  0.0081 -0.0415
  725POSM   C2A 8504   9.923  12.629  13.943  0.1338  0.0693  0.0406
  725POSM   C3A 8505   9.616  12.547  14.301  0.1088  0.2057 -0.2714
  725POSM   C1B 8506  10.271  11.913  13.687  0.2084 -0.0839 -0.1108
  725POSM   D2B 8507  10.570  12.143  13.918 -0.0022 -0.0089 -0.0207
  725POSM   C3B 8508  10.710  12.538  13.683  0.0430  0.1047 -0.2335
  725POSM   C4B 8509  10.802  12.932  13.819  0.0305 -0.0677  0.3025
  726DOPC   NC3 8510   7.835  16.597  12.771 -0.2157 -0.2657  0.3033
  726DOPC   PO4 8511   7.886  16.192  12.760 -0.1653 -0.1956 -0.1923
  726DOPC   GL1 8512   7.791  16.167  13.132 -0.2081 -0.1821  0.4679
  726DOPC   GL2 8513   7.707  16.412  13.215 -0.0823  0.3884  0.4608
  726DOPC   C1A 8514   8.057  16.289  13.503 -0.1258 -0.2658  0.2240
  726DOPC   D2A 8515   7.936  16.514  13.853  0.2221 -0.1637  0.3140
  726DOPC   C3A 8516   8.313  16.768  14.007  0.1655 -0.1671  0.0713
  726DOPC   C4A 8517   8.399  17.164  14.199 -0.1934 -0.1641  0.2088
  726DOPC   C1B 8518   7.535  16.496  13.591 -0.3034  0.0430  0.0092
  726DOPC   D2B 8519   7.467  16.808  13.964 -0.1267 -0.1054  0.3915
  726DOPC   C3B 8520   7.599  16.747  14.382  0.0129 -0.4001 -0.1021
  726DOPC   C4B 8521   7.991  16.547  14.425  0.0319 -0.1422 -0.1502
  727DOPC   NC3 8522   3.000  17.072  12.641  0.2421  0.0523 -0.1262
  727DOPC   PO4 8523   2.840  17.363  12.462  0.2364 -0.0814  0.1360
  727DOPC   GL1 8524   3.247  17.526  12.685 -0.1293  0.0950 -0.1257
  727DOPC   GL2 8525   3.203  17.406  12.942 -0.0924  0.1600 -0.2318
  727DOPC   C1A 8526   3.679  17.455  12.801  0.1547  0.1674  0.2264
  727DOPC   D2A 8527   3.967  17.223  13.163  0.2543 -0.0052 -0.2938
  727DOPC   C3A 8528   3.745  17.145  13.584  0.1405 -0.0227 -0.0279
  727DOPC   C4A 8529   3.370  16.915  13.771  0.0663 -0.3830  0.1636
  727DOPC   C1B 8530   3.429  17.318  13.257 -0.2556  0.4000  0.2280
  727DOPC   D2B 8531   3.344  17.389  13.714  0.0398 -0.0407  0.0902
  727DOPC   C3B 8532   3.686  17.614  13.879 -0.1861 -0.0882 -0.1078
  727DOPC   C4B 8533   4.069  17.675  14.123  0.1178  0.1881  0.0486
  728DOPE   NH3 8534   9.152  23.111  12.394 -0.0531  0.3195  0.1136
  728DOPE   PO4 8535   9.372  22.941  12.475  0.2371  0.2691  0.4822
  728DOPE   GL1 8536   9.248  23.060  12.861  0.2643  0.3245 -0.0294
  728DOPE   GL2 8537   9.372  22.928  13.066  0.2484  0.1415 -0.2337
  728DOPE   C1A 8538   9.129  23.435  13.073  0.0828 -0.0580 -0.0890
  728DOPE   D2A 8539   9.249  23.812  13.315 -0.2850 -0.1675  0.4043
  728DOPE   C3A 8540   9.512  23.748  13.703 -0.2080 -0.1788  0.0134
  728DOPE   C4A 8541   9.828  23.914  14.053 -0.1238  0.2394 -0.0363
  728DOPE   C1B 8542   9.207  22.548  13.129 -0.4296 -0.4680 -0.6142
  728DOPE   D2B 8543   9.385  22.159  13.336  0.2865 -0.2406 -0.0612
  728DOPE   C3B 8544   9.276  21.720  13.397  0.1066  0.3632  0.1089
  728DOPE   C4B 8545   9.287  21.283  13.334  0.1351 -0.0875 -0.0275
  729POSM   NC3 8546  10.895  23.054  12.266 -0.0978 -0.2237  0.2954
  729POSM   PO4 8547  10.620  22.767  12.331  0.0739  0.1914 -0.1038
  729POSM   AM1 8548  10.571  22.531  12.547  0.0201 -0.3229  0.0048
  729POSM   AM2 8549  10.681  22.467  12.815 -0.2698 -0.0633 -0.1848
  729POSM   T1A 8550  10.260  22.179  12.819 -0.0174 -0.0644  0.1720
  729POSM   C2A 8551   9.910  21.937  12.948 -0.1711  0.0588 -0.0048
  729POSM   C3A 8552   9.487  21.818  12.960 -0.1988  0.1962  0.1484
  729POSM   C1B 8553  10.797  22.627  13.045  0.0653 -0.1619  0.0298
  729POSM   D2B 8554  10.980  23.022  13.271 -0.1855 -0.3368 -0.1417
  729POSM   C3B 8555  10.931  23.232  13.737 -0.2594 -0.0715 -0.1713
  729POSM   C4B 8556  11.068  23.519  14.020  0.0003 -0.0065 -0.0633
  730DOPE   NH3 8557   6.375  17.770  13.083 -0.3535  0.1433 -0.0519
  730DOPE   PO4 8558   6.297  18.054  12.954 -0.1477  0.2513 -0.0190
  730DOPE   GL1 8559   6.043  18.079  13.088  0.3933 -0.1906 -0.0643
  730DOPE   GL2 8560   6.082  18.082  13.404  0.4396  0.0039  0.0420
  730DOPE   C1A 8561   5.725  18.343  13.311  0.1139  0.2157 -0.3851
  730DOPE   D2A 8562   5.379  18.660  13.264 -0.1544  0.0846 -0.2433
  730DOPE   C3A 8563   5.079  18.541  13.563  0.0758 -0.0819  0.2015
  730DOPE   C4A 8564   4.730  18.677  13.788  0.1819  0.1166 -0.0565
  730DOPE   C1B 8565   5.913  18.275  13.810  0.0223 -0.5652 -0.1279
  730DOPE   D2B 8566   6.183  18.288  14.182  0.3324  0.2053  0.3759
  730DOPE   C3B 8567   6.071  18.105  14.603 -0.1456  0.2985 -0.0643
  730DOPE   C4B 8568   5.703  18.006  14.908 -0.5196  0.0457 -0.2028
  731DOPC   NC3 8569   7.734  17.056  12.682  0.4381 -0.1170  0.4495
  731DOPC   PO4 8570   7.434  17.263  12.795  0.0089 -0.0554  0.0281
  731DOPC   GL1 8571   7.214  17.612  13.047  0.1686  0.3088  0.2148
  731DOPC   GL2 8572   7.433  17.673  13.254  0.4045 -0.0109 -0.0821
  731DOPC   C1A 8573   7.118  18.053  13.117 -0.0821  0.0761 -0.0099
  731DOPC   D2A 8574   7.307  18.386  13.316 -0.2837  0.1182  0.1771
  731DOPC   C3A 8575   7.495  18.370  13.720  0.0137 -0.0395  0.0398
  731DOPC   C4A 8576   7.350  18.158  14.094  0.0879 -0.0411  0.4022
  731DOPC   C1B 8577   7.079  17.605  13.534  0.4440 -0.2125  0.1419
  731DOPC   D2B 8578   7.066  17.230  13.828 -0.0324  0.1459 -0.0302
  731DOPC   C3B 8579   6.705  17.260  14.174  0.0171  0.1744  0.3412
  731DOPC   C4B 8580   6.337  17.340  14.483  0.1828 -0.1659  0.0977
  732DOPS   CNO 8581   1.740  13.185  12.117  0.0056 -0.1369 -0.1039
  732DOPS   PO4 8582   1.671  12.843  12.302 -0.0361  0.1788  0.3079
  732DOPS   GL1 8583   1.733  13.091  12.567  0.5752 -0.3721  0.0943
  732DOPS   GL2 8584   1.693  13.010  12.853 -0.2112 -0.0356  0.0681
  732DOPS   C1A 8585   1.909  13.550  12.576  0.0659  0.4424 -0.0529
  732DOPS   D2A 8586   1.829  14.015  12.651  0.3548 -0.0471 -0.1784
  732DOPS   C3A 8587   1.335  14.114  12.649 -0.1431  0.1876  0.0755
  732DOPS   C4A 8588   0.946  13.840  12.756 -0.0301  0.0978 -0.1837
  732DOPS   C1B 8589   2.061  12.873  13.103 -0.0979  0.0821 -0.0648
  732DOPS   D2B 8590   2.062  12.609  13.474 -0.4716 -0.3044 -0.0896
  732DOPS   C3B 8591   2.031  12.181  13.336 -0.1009  0.0052 -0.3451
  732DOPS   C4B 8592   1.967  11.923  12.979  0.1673 -0.1902 -0.0908
  733DOPE   NH3 8593   4.000  21.147  13.177  0.3256  0.2065 -0.0639
  733DOPE   PO4 8594   3.645  21.101  13.176  0.0741 -0.1784 -0.1837
  733DOPE   GL1 8595   3.480  21.285  13.448 -0.2085  0.2250  0.0040
  733DOPE   GL2 8596   3.649  21.477  13.525 -0.2176 -0.3021 -0.1110
  733DOPE   C1A 8597   3.486  20.953  13.735  0.0224 -0.0240 -0.2679
  733DOPE   D2A 8598   3.330  20.954  14.157 -0.0280  0.0218 -0.0895
  733DOPE   C3A 8599   3.239  20.549  14.405 -0.0350  0.3026 -0.1168
  733DOPE   C4A 8600   3.053  20.130  14.549  0.4819  0.1464  0.2026
  733DOPE   C1B 8601   3.952  21.365  13.831 -0.3053 -0.2477  0.0311
  733DOPE   D2B 8602   4.434  21.325  13.875  0.0053 -0.1267 -0.1942
  733DOPE   C3B 8603   4.810  21.344  14.103 -0.3187  0.0076  0.1415
  733DOPE   C4B 8604   5.245  21.413  14.145 -0.0973 -0.3794  0.3565
  734DOPE   NH3 8605   2.552  16.628  12.664  0.0881  0.3351  0.0708
  734DOPE   PO4 8606   2.667  16.574  12.935  0.1290 -0.1080  0.0044
  734DOPE   GL1 8607   2.772  16.532  13.251 -0.1887  0.0573 -0.5513
  734DOPE   GL2 8608   2.500  16.564  13.429  0.0988 -0.0037 -0.0359
  734DOPE   C1A 8609   3.045  16.524  13.639  0.0369 -0.1999 -0.1137
  734DOPE   D2A 8610   3.149  16.092  13.872  0.0828 -0.0757  0.0342
  734DOPE   C3A 8611   2.819  15.922  14.087 -0.0940  0.1725 -0.1977
  734DOPE   C4A 8612   2.532  15.747  14.471  0.1714  0.3510 -0.0335
  734DOPE   C1B 8613   2.662  16.202  13.675  0.0435 -0.0162  0.1811
  734DOPE   D2B 8614   2.554  15.743  13.677 -0.1987  0.0553 -0.5290
  734DOPE   C3B 8615   2.546  15.427  14.025 -0.0329 -0.1311  0.3280
  734DOPE   C4B 8616   2.596  14.961  14.064 -0.1153  0.0002 -0.0810
  735DOPS   CNO 8617  10.828  23.027  12.757  0.1564 -0.1057 -0.0288
  735DOPS   PO4 8618  11.181  23.174  12.645  0.2128  0.0419 -0.2605
  735DOPS   GL1 8619  11.314  23.210  13.043  0.0165 -0.0430  0.2725
  735DOPS   GL2 8620  11.537  23.383  12.971 -0.2678 -0.0998 -0.2692
  735DOPS   C1A 8621  11.301  23.544  13.400  0.0681  0.3121 -0.0914
  735DOPS   D2A 8622  11.508  23.585  13.781 -0.0112 -0.0177 -0.1937
  735DOPS   C3A 8623  11.688  24.016  13.634 -0.2863  0.3041  0.3083
  735DOPS   C4A 8624  11.652  24.185  13.233 -0.1693  0.0103 -0.1283
  735DOPS   C1B 8625  11.860  23.695  13.162 -0.1789 -0.2594 -0.1781
  735DOPS   D2B 8626  12.051  23.592  13.544  0.1784 -0.0324 -0.0401
  735DOPS   C3B 8627  11.939  23.733  13.966 -0.3595 -0.2971  0.2150
  735DOPS   C4B 8628  12.162  24.167  14.056  0.0356  0.1023 -0.1309
  736DOPE   NH3 8629  10.989  14.583  11.941  0.1073 -0.0037 -0.1493
  736DOPE   PO4 8630  11.097  14.749  12.172  0.0225 -0.1820  0.1803
  736DOPE   GL1 8631  11.082  14.506  12.396  0.1737 -0.0126 -0.0637
  736DOPE   GL2 8632  11.132  14.231  12.273 -0.1959  0.0783  0.0816
  736DOPE   C1A 8633  10.923  14.540  12.807  0.0194  0.1224  0.3841
  736DOPE   D2A 8634  10.707  14.718  13.155  0.4990  0.2199  0.0499
  736DOPE   C3A 8635  10.245  14.716  13.268  0.0612  0.3022  0.2433
  736DOPE   C4A 8636   9.809  14.894  13.316 -0.2145 -0.1341 -0.1631
  736DOPE   C1B 8637  11.042  13.778  12.160 -0.1462  0.0619  0.1235
  736DOPE   D2B 8638  10.824  13.399  11.923  0.1950  0.2040 -0.0579
  736DOPE   C3B 8639  11.096  13.027  11.991  0.1316  0.0047  0.0622
  736DOPE   C4B 8640  11.360  12.660  11.844 -0.1206 -0.0620 -0.0836
  737DOPS   CNO 8641   4.708  11.808  12.374 -0.3580  0.1261  0.0400
  737DOPS   PO4 8642   4.877  12.170  12.358 -0.1932 -0.0872 -0.0863
  737DOPS   GL1 8643   4.713  12.579  12.382  0.1687  0.1371  0.0300
  737DOPS   GL2 8644   4.669  12.579  12.715  0.2633  0.1085  0.2236
  737DOPS   C1A 8645   4.540  12.996  12.510  0.0506 -0.3541  0.1209
  737DOPS   D2A 8646   4.282  13.396  12.533 -0.0124 -0.0208 -0.0438
  737DOPS   C3A 8647   4.257  13.761  12.846  0.1013  0.2796 -0.0207
  737DOPS   C4A 8648   4.057  13.970  13.228 -0.1475  0.0598 -0.0118
  737DOPS   C1B 8649   4.921  12.714  13.092 -0.1241  0.5594 -0.2778
  737DOPS   D2B 8650   4.940  12.639  13.580  0.1309 -0.0027 -0.1589
  737DOPS   C3B 8651   5.232  12.316  13.742 -0.0014  0.1240 -0.1942
  737DOPS   C4B 8652   5.660  12.205  13.658  0.2179 -0.0260  0.2145
  738DOPS   CNO 8653  10.298  12.293  12.040 -0.0839  0.1466  0.1460
  738DOPS   PO4 8654  10.170  12.373  12.414 -0.0680  0.1825 -0.1437
  738DOPS   GL1 8655  10.245  12.737  12.554 -0.1233  0.3838 -0.1150
  738DOPS   GL2 8656  10.455  12.641  12.691  0.2489  0.1159  0.2307
  738DOPS   C1A 8657  10.483  13.037  12.901 -0.2279 -0.2290  0.2444
  738DOPS   D2A 8658  10.830  12.883  13.124 -0.0267 -0.2193 -0.4152
  738DOPS   C3A 8659  10.962  12.476  13.211 -0.1897  0.0181 -0.1654
  738DOPS   C4A 8660  11.068  12.123  13.527 -0.0871 -0.1470  0.0207
  738DOPS   C1B 8661  10.464  12.536  13.125  0.4313 -0.1988  0.0747
  738DOPS   D2B 8662  10.489  12.903  13.466  0.0777 -0.1006  0.1878
  738DOPS   C3B 8663  10.305  12.941  13.868  0.0383  0.0861  0.2409
  738DOPS   C4B 8664  10.450  12.596  14.146  0.0649 -0.0245  0.1092
  739DOPC   NC3 8665   3.231  14.192  12.312  0.0068 -0.0691 -0.1829
  739DOPC   PO4 8666   3.559  14.495  12.232  0.1924 -0.3901  0.3081
  739DOPC   GL1 8667   3.794  14.231  12.505 -0.0150 -0.2486 -0.0461
  739DOPC   GL2 8668   3.710  14.480  12.680 -0.3330 -0.1143 -0.1752
  739DOPC   C1A 8669   3.803  13.779  12.591  0.2998  0.2444  0.1187
  739DOPC   D2A 8670   3.809  13.426  12.885  0.2687 -0.3382 -0.0073
  739DOPC   C3A 8671   3.588  13.192  13.175  0.1955  0.1147 -0.2709
  739DOPC   C4A 8672   3.441  13.301  13.571  0.1507 -0.5485 -0.1735
  739DOPC   C1B 8673   3.654  14.204  13.072  0.0665  0.1168  0.3328
  739DOPC   D2B 8674   3.608  13.792  13.196  0.1903  0.1322  0.2209
  739DOPC   C3B 8675   3.851  13.558  13.546  0.1459 -0.1808 -0.2509
  739DOPC   C4B 8676   3.772  13.468  13.984 -0.1674  0.0651  0.0767
  740DOPC   NC3 8677   9.768  18.533  12.333  0.1468  0.2768 -0.0646
  740DOPC   PO4 8678   9.911  18.758  12.648 -0.0110  0.2773 -0.0806
  740DOPC   GL1 8679   9.884  18.503  12.998  0.0405  0.1108 -0.0932
  740DOPC   GL2 8680   9.617  18.555  13.110 -0.0646  0.2707  0.1096
  740DOPC   C1A 8681   9.915  18.132  13.277 -0.2997 -0.0340  0.2528
  740DOPC   D2A 8682   9.741  18.098  13.760 -0.2771 -0.2174 -0.0653
  740DOPC   C3A 8683   9.858  18.410  14.073  0.0991  0.1880  0.0714
  740DOPC   C4A 8684   9.794  18.691  14.385 -0.1711  0.2851 -0.0367
  740DOPC   C1B 8685   9.789  18.606  13.544  0.1146 -0.1165  0.2053
  740DOPC   D2B 8686   9.724  18.891  13.949  0.1204 -0.0396  0.1176
  740DOPC   C3B 8687   9.540  19.294  14.070  0.2759  0.1312  0.1544
  740DOPC   C4B 8688   9.268  19.548  14.366 -0.0482 -0.3832 -0.2242
  741DOPE   NH3 8689   6.504  15.412  12.824 -0.0908 -0.3326  0.0054
  741DOPE   PO4 8690   6.336  15.485  13.118 -0.3574  0.2516  0.1653
  741DOPE   GL1 8691   6.106  15.666  13.392 -0.1189  0.2973  0.5048
  741DOPE   GL2 8692   6.032  15.910  13.443  0.5234 -0.0475  0.1641
  741DOPE   C1A 8693   6.000  15.438  13.778  0.0095 -0.5499 -0.2071
  741DOPE   D2A 8694   6.052  15.116  14.085  0.1135  0.0748  0.1639
  741DOPE   C3A 8695   6.419  15.090  14.360 -0.1109  0.0001  0.3754
  741DOPE   C4A 8696   6.890  15.203  14.440 -0.1738  0.0598  0.3402
  741DOPE   C1B 8697   5.978  16.206  13.830 -0.0507  0.0868  0.0980
  741DOPE   D2B 8698   5.880  16.569  14.146 -0.1485  0.0042 -0.2108
  741DOPE   C3B 8699   5.724  16.528  14.578 -0.1420 -0.1854  0.0768
  741DOPE   C4B 8700   5.853  16.748  14.958  0.0807  0.0234 -0.1250
  742DOPC   NC3 8701   9.679  23.170  12.810 -0.4356 -0.2294  0.4461
  742DOPC   PO4 8702   9.883  23.058  12.500 -0.0636 -0.0888 -0.2618
  742DOPC   GL1 8703  10.046  22.919  12.764  0.1507 -0.0794 -0.2656
  742DOPC   GL2 8704  10.320  22.899  12.716  0.0456 -0.1905 -0.0979
  742DOPC   C1A 8705   9.904  23.008  13.221 -0.1897  0.1123 -0.1197
  742DOPC   D2A 8706   9.982  23.058  13.669  0.1530 -0.0286  0.3805
  742DOPC   C3A 8707   9.672  23.268  13.857 -0.3983 -0.1099 -0.1759
  742DOPC   C4A 8708   9.220  23.406  14.060  0.3690  0.1811  0.0768
  742DOPC   C1B 8709  10.232  22.628  13.063 -0.0874  0.0072  0.1130
  742DOPC   D2B 8710  10.087  22.259  13.285 -0.2853 -0.2315 -0.1039
  742DOPC   C3B 8711   9.892  21.883  13.476 -0.2609  0.1272 -0.0623
  742DOPC   C4B 8712   9.778  21.466  13.361 -0.1043  0.1047  0.0078
  743POSM   NC3 8713   5.169  15.555  13.078  0.0174  0.2156  0.1818
  743POSM   PO4 8714   5.366  15.256  12.939  0.1084  0.0883 -0.0931
  743POSM   AM1 8715   5.329  15.018  13.166  0.0130  0.4187  0.0222
  743POSM   AM2 8716   5.409  14.720  13.085 -0.1453 -0.2663 -0.0616
  743POSM   T1A 8717   5.241  14.818  13.609 -0.1893 -0.2718  0.1870
  743POSM   C2A 8718   5.111  14.582  14.033 -0.1987  0.3115  0.2146
  743POSM   C3A 8719   5.047  14.577  14.458 -0.0511 -0.0036 -0.0700
  743POSM   C1B 8720   5.504  14.463  13.263  0.1041  0.1781  0.4383
  743POSM   D2B 8721   5.696  14.041  13.181  0.0084 -0.1843  0.2853
  743POSM   C3B 8722   5.895  13.965  13.624  0.0319 -0.1051 -0.0694
  743POSM   C4B 8723   5.841  13.963  14.087 -0.0829 -0.1018 -0.2422
  744DOPC   NC3 8724   3.729  20.522  12.530 -0.1932  0.2686  0.2211
  744DOPC   PO4 8725   3.326  20.631  12.499 -0.0633 -0.0823  0.0299
  744DOPC   GL1 8726   3.330  20.249  12.654 -0.1977 -0.0731 -0.0799
  744DOPC   GL2 8727   3.201  20.301  12.963  0.1349  0.1762 -0.0802
  744DOPC   C1A 8728   2.941  19.984  12.675  0.0713 -0.1066 -0.2415
  744DOPC   D2A 8729   2.615  20.006  13.008 -0.0295 -0.2960  0.0021
  744DOPC   C3A 8730   2.511  20.048  13.413 -0.1006 -0.2778 -0.2509
  744DOPC   C4A 8731   2.190  20.017  13.766  0.0535 -0.1562 -0.1060
  744DOPC   C1B 8732   2.927  20.456  13.382  0.2173  0.3520 -0.2816
  744DOPC   D2B 8733   2.748  20.354  13.747  0.0608 -0.0181 -0.1260
  744DOPC   C3B 8734   3.061  20.270  14.085 -0.2868 -0.3080  0.0250
  744DOPC   C4B 8735   3.387  19.932  14.152  0.1439  0.0371 -0.0129
  745DOPC   NC3 8736   6.171  20.377  12.447  0.0538  0.2118 -0.0497
  745DOPC   PO4 8737   6.017  20.615  12.725  0.2240 -0.1790  0.1823
  745DOPC   GL1 8738   6.222  20.592  13.046 -0.0995 -0.1362  0.2909
  745DOPC   GL2 8739   6.139  20.830  13.180 -0.2756 -0.1241 -0.0159
  745DOPC   C1A 8740   6.570  20.594  13.344  0.2785 -0.1171 -0.0326
  745DOPC   D2A 8741   6.682  20.998  13.593 -0.2165 -0.0858  0.0055
  745DOPC   C3A 8742   6.259  21.202  13.613 -0.3227  0.1007  0.1265
  745DOPC   C4A 8743   5.899  21.455  13.428  0.2384  0.0962 -0.0445
  745DOPC   C1B 8744   6.177  20.699  13.636  0.2192 -0.0127  0.2588
  745DOPC   D2B 8745   6.570  20.648  13.896 -0.4171 -0.1650  0.1863
  745DOPC   C3B 8746   6.606  20.362  14.239 -0.1372 -0.0127  0.0445
  745DOPC   C4B 8747   6.486  19.990  14.506  0.0869  0.0827  0.2802
  746DOPE   NH3 8748   3.636  20.972  12.674 -0.2276 -0.2061  0.0932
  746DOPE   PO4 8749   3.412  21.162  12.681 -0.0849 -0.0748 -0.1735
  746DOPE   GL1 8750   3.197  21.258  13.048  0.1029  0.2984 -0.0464
  746DOPE   GL2 8751   2.984  21.465  13.136  0.3537 -0.1267 -0.1275
  746DOPE   C1A 8752   3.048  21.112  13.484 -0.0567 -0.1657 -0.5314
  746DOPE   D2A 8753   2.813  21.181  13.884  0.1029  0.1569 -0.2746
  746DOPE   C3A 8754   3.051  21.452  14.178  0.5837 -0.1051  0.0945
  746DOPE   C4A 8755   2.905  21.841  14.318  0.0837  0.0024  0.6518
  746DOPE   C1B 8756   3.053  21.582  13.607  0.1314  0.1759 -0.3307
  746DOPE   D2B 8757   2.703  21.794  13.872  0.0329 -0.2164 -0.2008
  746DOPE   C3B 8758   2.434  21.553  14.154  0.0219  0.2871 -0.3479
  746DOPE   C4B 8759   2.178  21.377  14.499 -0.0184 -0.3995  0.3245
  747DOPE   NH3 8760   2.213  21.756  12.478  0.0569 -0.1548  0.2825
  747DOPE   PO4 8761   1.902  21.871  12.416 -0.3645  0.1400 -0.1816
  747DOPE   GL1 8762   2.017  21.869  12.889  0.3976 -0.1100  0.2437
  747DOPE   GL2 8763   1.938  22.126  12.847 -0.0564  0.3025  0.0660
  747DOPE   C1A 8764   2.127  21.812  13.372 -0.2585  0.4375  0.0764
  747DOPE   D2A 8765   2.170  21.878  13.802  0.1601 -0.1113 -0.0173
  747DOPE   C3A 8766   2.053  22.242  14.028  0.2637  0.2870  0.0435
  747DOPE   C4A 8767   2.438  22.459  14.279 -0.1192 -0.1748 -0.1225
  747DOPE   C1B 8768   1.689  22.243  13.211 -0.0569  0.0200 -0.3748
  747DOPE   D2B 8769   1.432  22.561  13.405  0.2571 -0.1364  0.1641
  747DOPE   C3B 8770   1.334  22.361  13.836 -0.2052 -0.2705  0.2751
  747DOPE   C4B 8771   1.137  22.443  14.224 -0.0872  0.0794 -0.1350
  748DOPC   NC3 8772  33.851  17.625  13.074 -0.0675 -0.1689 -0.0419
  748DOPC   PO4 8773  34.089  17.566  12.716  0.2643  0.2688 -0.0888
  748DOPC   GL1 8774  34.055  17.908  12.748  0.3082 -0.0139  0.2451
  748DOPC   GL2 8775  33.785  17.918  12.608  0.0885 -0.2241  0.1579
  748DOPC   C1A 8776  34.275  18.202  13.025  0.1221 -0.1214 -0.1377
  748DOPC   D2A 8777  34.485  18.606  13.083 -0.0545  0.0324  0.0373
  748DOPC   C3A 8778  34.637  18.557  13.529 -0.3446  0.2144  0.3410
  748DOPC   C4A 8779  34.806  18.748  13.872  0.0579  0.1082  0.0414
  748DOPC   C1B 8780  33.560  18.120  13.003  0.0167  0.2211 -0.0444
  748DOPC   D2B 8781  33.558  18.493  13.281 -0.2894 -0.0684 -0.0184
  748DOPC   C3B 8782  33.902  18.524  13.536 -0.1935  0.3052  0.0986
  748DOPC   C4B 8783  34.108  18.112  13.681 -0.0035 -0.0648  0.1197
  749DOPE   NH3 8784   8.685  18.224  12.322 -0.1847 -0.0234  0.2936
  749DOPE   PO4 8785   9.051  18.282  12.236 -0.0533  0.3573  0.3261
  749DOPE   GL1 8786   9.339  18.200  12.469  0.0376 -0.5029 -0.2121
  749DOPE   GL2 8787   9.209  18.044  12.734 -0.0810 -0.1936  0.2791
  749DOPE   C1A 8788   9.729  18.154  12.736  0.1060  0.3136 -0.1223
  749DOPE   D2A 8789  10.187  18.173  12.786  0.0146 -0.0345 -0.1993
  749DOPE   C3A 8790  10.362  18.399  13.170  0.0992  0.1435  0.0770
  749DOPE   C4A 8791  10.603  18.509  13.536 -0.0449  0.1903  0.4062
  749DOPE   C1B 8792   9.420  18.061  13.158 -0.1729 -0.0794 -0.0593
  749DOPE   D2B 8793   9.647  17.712  13.261 -0.0182 -0.3006  0.1109
  749DOPE   C3B 8794   9.739  17.597  12.839  0.1076  0.0047  0.0953
  749DOPE   C4B 8795   9.915  17.709  12.411 -0.5744  0.0383  0.0904
  750DOPS   CNO 8796   7.187  22.606  12.483 -0.0641  0.1484  0.0572
  750DOPS   PO4 8797   7.047  22.617  12.814 -0.0611  0.0896  0.0459
  750DOPS   GL1 8798   7.074  22.335  13.195 -0.0994  0.1747 -0.0155
  750DOPS   GL2 8799   7.013  22.639  13.349 -0.4212  0.1423  0.0558
  750DOPS   C1A 8800   6.812  22.127  13.507 -0.0718 -0.1121 -0.1560
  750DOPS   D2A 8801   6.714  22.026  13.876 -0.1475  0.0355  0.1385
  750DOPS   C3A 8802   6.254  22.098  13.872  0.1922 -0.1952  0.1795
  750DOPS   C4A 8803   5.870  22.383  13.814  0.0298  0.0711  0.2651
  750DOPS   C1B 8804   7.113  22.530  13.742  0.1911 -0.0655  0.1352
  750DOPS   D2B 8805   7.251  22.253  14.069 -0.1281 -0.1337  0.2500
  750DOPS   C3B 8806   7.235  21.811  13.913  0.5605 -0.1968  0.0071
  750DOPS   C4B 8807   7.481  21.529  13.703 -0.2650 -0.1012  0.0643
  751DOPC   NC3 8808   3.245  21.652  12.614 -0.3164 -0.2473  0.0282
  751DOPC   PO4 8809   3.036  21.933  12.882 -0.0094 -0.4944 -0.0477
  751DOPC   GL1 8810   3.112  22.289  13.167  0.1084  0.4075 -0.2632
  751DOPC   GL2 8811   3.273  22.520  13.275  0.1406 -0.0022  0.1326
  751DOPC   C1A 8812   3.099  22.150  13.623 -0.1751 -0.0633 -0.0022
  751DOPC   D2A 8813   3.298  22.313  14.067 -0.1151  0.2201 -0.1223
  751DOPC   C3A 8814   3.273  22.784  14.146  0.1700 -0.2817 -0.0132
  751DOPC   C4A 8815   3.269  23.263  14.293  0.1525 -0.0712  0.1132
  751DOPC   C1B 8816   3.509  22.738  13.632 -0.2800  0.3558  0.2123
  751DOPC   D2B 8817   3.566  23.160  13.818 -0.1113 -0.0863  0.0184
  751DOPC   C3B 8818   3.252  23.425  13.688 -0.0834  0.0995 -0.2690
  751DOPC   C4B 8819   3.159  23.868  13.874  0.5248 -0.0810  0.0516
  752POSM   NC3 8820   8.873  19.058  12.839 -0.1446  0.1057  0.1040
  752POSM   PO4 8821   8.568  18.811  12.863 -0.1177  0.0702 -0.0203
  752POSM   AM1 8822   8.451  18.941  13.133  0.0469  0.0237  0.0544
  752POSM   AM2 8823   8.303  18.869  13.376 -0.3528 -0.3083  0.4064
  752POSM   T1A 8824   8.253  19.339  13.352  0.2085 -0.1041 -0.0913
  752POSM   C2A 8825   8.043  19.752  13.484 -0.1958  0.0048  0.2771
  752POSM   C3A 8826   7.721  19.973  13.672  0.0982 -0.2538  0.0574
  752POSM   C1B 8827   8.454  18.757  13.648  0.1160  0.2870 -0.2360
  752POSM   D2B 8828   8.542  18.862  14.108 -0.0993  0.2157 -0.0265
  752POSM   C3B 8829   8.377  19.182  14.399 -0.1206 -0.1746 -0.0129
  752POSM   C4B 8830   8.465  19.540  14.692  0.0115  0.1625  0.2739
  753DOPC   NC3 8831   1.943  18.260  12.867 -0.1333  0.0226 -0.3760
  753DOPC   PO4 8832   1.606  18.131  12.746  0.3208 -0.1590 -0.2998
  753DOPC   GL1 8833   1.340  18.110  13.067 -0.3050  0.1002  0.2199
  753DOPC   GL2 8834   1.056  18.015  13.176 -0.1460 -0.2000  0.2389
  753DOPC   C1A 8835   1.264  18.331  13.467 -0.3146 -0.0447  0.2462
  753DOPC   D2A 8836   0.981  18.451  13.818 -0.2761 -0.3913  0.2314
  753DOPC   C3A 8837   0.855  18.330  14.235 -0.3212 -0.1161 -0.2731
  753DOPC   C4A 8838   0.812  18.065  14.622  0.0351  0.0909 -0.0400
  753DOPC   C1B 8839   0.880  18.027  13.582 -0.1001 -0.1424  0.0128
  753DOPC   D2B 8840   1.157  18.025  13.968 -0.0462  0.2935  0.0265
  753DOPC   C3B 8841   0.814  17.815  14.181  0.1282  0.1003 -0.0890
  753DOPC   C4B 8842   0.926  17.439  14.415 -0.2935  0.2976  0.2459
  754POSM   NC3 8843   4.619  19.842  12.580  0.1615 -0.2618  0.0459
  754POSM   PO4 8844   5.003  19.938  12.674 -0.0013  0.0261 -0.4137
  754POSM   AM1 8845   5.004  20.023  12.986 -0.1801 -0.0395 -0.2878
  754POSM   AM2 8846   5.194  20.191  13.093  0.0710  0.1296 -0.0408
  754POSM   T1A 8847   4.916  20.033  13.516 -0.0694 -0.2499 -0.2722
  754POSM   C2A 8848   4.606  19.927  13.909  0.1469  0.0883  0.2555
  754POSM   C3A 8849   4.612  19.543  14.170 -0.0276 -0.2533  0.2212
  754POSM   C1B 8850   5.432  20.160  13.326 -0.1343  0.0630 -0.1031
  754POSM   D2B 8851   5.673  20.245  13.701  0.0289 -0.0579  0.0073
  754POSM   C3B 8852   5.511  20.243  14.121  0.1637  0.0467  0.0942
  754POSM   C4B 8853   5.562  19.946  14.488 -0.1395 -0.4128  0.1548
  755DOPE   NH3 8854   2.421  17.915  13.102  0.0262 -0.2213 -0.1032
  755DOPE   PO4 8855   2.407  18.033  12.829  0.0575 -0.3753 -0.1448
  755DOPE   GL1 8856   2.369  18.382  12.920 -0.0181  0.1400  0.0792
  755DOPE   GL2 8857   2.274  18.355  13.220  0.2674 -0.1206 -0.2717
  755DOPE   C1A 8858   2.533  18.792  13.086  0.0936  0.1101  0.1422
  755DOPE   D2A 8859   2.685  19.048  13.406  0.0613  0.1522 -0.2950
  755DOPE   C3A 8860   2.547  18.841  13.812 -0.1669 -0.0361 -0.2553
  755DOPE   C4A 8861   2.439  18.517  14.067  0.0301 -0.0275  0.0162
  755DOPE   C1B 8862   2.624  18.457  13.517 -0.1787  0.0732  0.2303
  755DOPE   D2B 8863   3.012  18.656  13.502 -0.0599  0.1581  0.2915
  755DOPE   C3B 8864   2.994  19.020  13.812 -0.0011  0.1934  0.0900
  755DOPE   C4B 8865   2.712  19.327  13.954  0.3605 -0.0999 -0.1110
  756DOPE   NH3 8866   8.945  18.570  12.616  0.3717  0.0681  0.2194
  756DOPE   PO4 8867   9.054  18.560  12.950  0.2450  0.2488  0.2606
  756DOPE   GL1 8868   9.074  18.681  13.226 -0.1081  0.1708 -0.1342
  756DOPE   GL2 8869   8.850  18.766  13.343 -0.1131 -0.4070  0.1593
  756DOPE   C1A 8870   9.284  18.408  13.536  0.3060  0.0624 -0.0406
  756DOPE   D2A 8871   9.080  18.116  13.821 -0.1492  0.0065 -0.0975
  756DOPE   C3A 8872   8.908  17.756  13.710  0.2513 -0.1076  0.3547
  756DOPE   C4A 8873   8.534  17.491  13.709 -0.2617  0.1295  0.0834
  756DOPE   C1B 8874   8.916  18.676  13.744  0.1387 -0.0517 -0.3009
  756DOPE   D2B 8875   9.341  18.613  13.986  0.1500 -0.2704 -0.1292
  756DOPE   C3B 8876   9.275  18.264  14.324  0.4150 -0.3022 -0.0140
  756DOPE   C4B 8877   9.246  18.057  14.741  0.0654 -0.0137 -0.2474
  757DOPS   CNO 8878   6.387  11.583  12.403  0.5719 -0.5202  0.2297
  757DOPS   PO4 8879   6.226  11.388  12.681  0.0022 -0.1064 -0.1652
  757DOPS   GL1 8880   6.323  11.460  13.150 -0.1414 -0.1320 -0.1280
  757DOPS   GL2 8881   6.446  11.770  13.227 -0.1175 -0.0283 -0.1089
  757DOPS   C1A 8882   6.689  11.336  13.436 -0.0871 -0.0267  0.1673
  757DOPS   D2A 8883   6.936  11.147  13.729  0.0245  0.2528 -0.1033
  757DOPS   C3A 8884   7.337  10.981  13.662 -0.0014 -0.0843 -0.0051
  757DOPS   C4A 8885   7.800  10.816  13.496  0.0509  0.1644 -0.0940
  757DOPS   C1B 8886   6.584  12.067  13.559  0.0813  0.0386 -0.0180
  757DOPS   D2B 8887   6.545  12.352  13.902 -0.0247 -0.1168  0.2578
  757DOPS   C3B 8888   6.923  12.607  14.041 -0.1704 -0.0911 -0.2160
  757DOPS   C4B 8889   7.294  12.597  14.224 -0.1619 -0.1090  0.0086
  758DOPE   NH3 8890   1.390  12.398  12.341 -0.0709 -0.0281 -0.2600
  758DOPE   PO4 8891   1.604  12.377  12.537 -0.0001 -0.1093 -0.0397
  758DOPE   GL1 8892   1.346  12.498  12.884 -0.3083 -0.1076 -0.1823
  758DOPE   GL2 8893   1.087  12.491  12.736  0.0989 -0.0406  0.1205
  758DOPE   C1A 8894   1.282  12.894  13.149  0.0532 -0.0838  0.1348
  758DOPE   D2A 8895   1.052  13.138  13.489  0.0100  0.2402 -0.0454
  758DOPE   C3A 8896   1.291  13.433  13.703  0.1275  0.1231  0.1195
  758DOPE   C4A 8897   1.618  13.786  13.544 -0.1383  0.2064  0.1444
  758DOPE   C1B 8898   1.172  12.978  12.641 -0.3252  0.3529  0.1979
  758DOPE   D2B 8899   1.427  13.386  12.679 -0.0160 -0.1316 -0.1458
  758DOPE   C3B 8900   1.666  13.657  12.947  0.1152  0.0831  0.0637
  758DOPE   C4B 8901   1.863  14.008  13.160 -0.1053 -0.2062  0.2854
  759DOPE   NH3 8902   9.185  12.152  13.256 -0.0464  0.2367 -0.1731
  759DOPE   PO4 8903   9.277  12.457  13.190  0.0625 -0.0230 -0.1282
  759DOPE   GL1 8904   9.109  12.562  13.468 -0.1837  0.2006  0.3481
  759DOPE   GL2 8905   8.770  12.451  13.481  0.2566  0.0583 -0.0939
  759DOPE   C1A 8906   9.228  12.793  13.860  0.2504  0.0108  0.2977
  759DOPE   D2A 8907   9.476  13.155  13.994 -0.0372  0.0199 -0.1988
  759DOPE   C3A 8908   9.413  13.652  13.926  0.0382  0.2554 -0.0250
  759DOPE   C4A 8909   9.724  13.969  14.163  0.0046  0.2604  0.1447
  759DOPE   C1B 8910   8.836  12.403  13.915 -0.0619  0.0075 -0.0085
  759DOPE   D2B 8911   8.894  12.570  14.363  0.0105 -0.2476  0.2339
  759DOPE   C3B 8912   9.165  12.892  14.430  0.0401  0.2289  0.0024
  759DOPE   C4B 8913   9.478  13.208  14.535  0.0584  0.1259 -0.2239
  760POSM   NC3 8914  11.236  21.837  11.968 -0.1361 -0.3178  0.2816
  760POSM   PO4 8915  10.879  21.730  12.066 -0.0577 -0.0351  0.1841
  760POSM   AM1 8916  10.877  21.447  12.259  0.0747  0.1817 -0.2352
  760POSM   AM2 8917  10.656  21.401  12.458 -0.0829 -0.2934  0.1490
  760POSM   T1A 8918  10.869  20.932  12.398 -0.0026  0.1396 -0.0827
  760POSM   C2A 8919  10.566  20.614  12.613  0.1561  0.2334  0.2662
  760POSM   C3A 8920  10.607  20.217  12.856 -0.0938 -0.2344 -0.0329
  760POSM   C1B 8921  10.438  21.222  12.618 -0.1676 -0.2483 -0.1271
  760POSM   D2B 8922  10.181  20.930  12.815  0.0496 -0.0756  0.0395
  760POSM   C3B 8923   9.805  20.991  13.111 -0.1075 -0.2632  0.3401
  760POSM   C4B 8924   9.574  20.745  13.386 -0.1788 -0.0973 -0.0717
  761DOPC   NC3 8925   9.962  19.559  11.828  0.3843  0.2145 -0.2289
  761DOPC   PO4 8926  10.363  19.631  11.947 -0.1911  0.2259 -0.0410
  761DOPC   GL1 8927  10.482  19.739  12.338  0.2496  0.2005 -0.0663
  761DOPC   GL2 8928  10.587  19.600  12.563  0.1050 -0.0552  0.2130
  761DOPC   C1A 8929  10.211  19.913  12.675 -0.3202 -0.0873  0.3206
  761DOPC   D2A 8930   9.925  19.988  13.045 -0.0139 -0.2312 -0.1071
  761DOPC   C3A 8931   9.916  20.305  13.409 -0.1299  0.2734 -0.0468
  761DOPC   C4A 8932  10.214  20.371  13.725  0.0102 -0.1614 -0.3269
  761DOPC   C1B 8933  10.901  19.973  12.579 -0.0494  0.0293  0.2646
  761DOPC   D2B 8934  11.018  20.453  12.643 -0.3509 -0.2412  0.2277
  761DOPC   C3B 8935  11.083  20.596  13.088  0.1313  0.0674  0.0271
  761DOPC   C4B 8936  11.042  20.826  13.522 -0.0469  0.1237 -0.0483
  762DOPC   NC3 8937   4.216  12.556  12.369  0.2388 -0.0744 -0.0959
  762DOPC   PO4 8938   4.294  12.201  12.483  0.2582 -0.0304 -0.0172
  762DOPC   GL1 8939   4.176  12.214  12.899 -0.0648 -0.0777  0.0424
  762DOPC   GL2 8940   3.973  12.061  13.063 -0.0684 -0.0953  0.1657
  762DOPC   C1A 8941   4.383  12.165  13.264 -0.0713  0.0620 -0.0246
  762DOPC   D2A 8942   4.843  12.117  13.390  0.2654  0.0984 -0.1263
  762DOPC   C3A 8943   4.701  11.847  13.775  0.0175  0.2035  0.0964
  762DOPC   C4A 8944   4.716  11.743  14.245 -0.2134 -0.2194 -0.1180
  762DOPC   C1B 8945   3.946  12.342  13.427 -0.1546 -0.1816 -0.2257
  762DOPC   D2B 8946   3.952  12.547  13.824 -0.5422 -0.3680 -0.4175
  762DOPC   C3B 8947   3.834  12.193  14.035  0.1115  0.4604 -0.0012
  762DOPC   C4B 8948   3.566  11.933  14.267 -0.1410 -0.1573 -0.3158
  763DOPE   NH3 8949   3.539  12.506  12.563 -0.0685  0.0844 -0.0595
  763DOPE   PO4 8950   3.823  12.401  12.630 -0.1004 -0.2520  0.1819
  763DOPE   GL1 8951   3.852  12.571  13.055  0.1386  0.2655  0.1058
  763DOPE   GL2 8952   3.524  12.753  12.999  0.2900  0.1920 -0.0560
  763DOPE   C1A 8953   3.989  12.909  13.298 -0.0455  0.0218 -0.0420
  763DOPE   D2A 8954   4.251  13.075  13.621 -0.1483 -0.1449  0.1780
  763DOPE   C3A 8955   4.173  13.139  14.034 -0.0116  0.0492 -0.0219
  763DOPE   C4A 8956   3.980  13.268  14.441 -0.0408  0.1926 -0.2023
  763DOPE   C1B 8957   3.575  12.716  13.483  0.1697  0.0485 -0.0793
  763DOPE   D2B 8958   3.755  13.044  13.803 -0.0618 -0.1374 -0.1919
  763DOPE   C3B 8959   3.444  13.100  14.189  0.1138  0.1065 -0.2550
  763DOPE   C4B 8960   3.223  13.305  14.546  0.3107 -0.0394  0.0001
  764DOPE   NH3 8961   7.414  16.183  12.841 -0.3121  0.2248  0.3031
  764DOPE   PO4 8962   7.363  16.036  13.126 -0.1085 -0.1234 -0.0165
  764DOPE   GL1 8963   7.588  15.983  13.435  0.0284  0.3062  0.1837
  764DOPE   GL2 8964   7.831  15.753  13.353  0.1554 -0.0383 -0.0078
  764DOPE   C1A 8965   7.595  15.932  13.934  0.1585  0.2112  0.0871
  764DOPE   D2A 8966   7.758  16.101  14.316 -0.0526 -0.0371  0.0485
  764DOPE   C3A 8967   7.634  15.847  14.660 -0.1935 -0.2510  0.2366
  764DOPE   C4A 8968   7.496  16.071  15.047  0.0973  0.0268 -0.1279
  764DOPE   C1B 8969   8.138  15.775  13.771  0.3169  0.2413 -0.0453
  764DOPE   D2B 8970   8.225  15.999  14.116  0.0235  0.2195  0.1142
  764DOPE   C3B 8971   8.474  16.335  14.279  0.0507  0.0978 -0.2795
  764DOPE   C4B 8972   8.677  16.681  14.368 -0.1017 -0.0749  0.4110
  765POSM   NC3 8973   4.622  12.013  12.797 -0.4517 -0.2551 -0.0376
  765POSM   PO4 8974   5.038  12.099  12.855 -0.2629 -0.3896 -0.0322
  765POSM   AM1 8975   5.122  12.367  12.746  0.1727  0.2937 -0.3246
  765POSM   AM2 8976   5.184  12.565  12.573 -0.0758 -0.0076  0.1153
  765POSM   T1A 8977   5.411  12.747  12.962 -0.0117  0.1512 -0.3391
  765POSM   C2A 8978   5.624  13.115  12.859 -0.1374 -0.1652  0.1220
  765POSM   C3A 8979   5.545  13.321  12.444 -0.0995  0.2708  0.0274
  765POSM   C1B 8980   5.119  12.887  12.561 -0.0438  0.0439 -0.2409
  765POSM   D2B 8981   5.132  13.270  12.756 -0.1856 -0.0771 -0.0943
  765POSM   C3B 8982   5.143  13.206  13.232 -0.1460  0.1317  0.1031
  765POSM   C4B 8983   5.239  13.026  13.670  0.2219  0.1431  0.0305
  766POSM   NC3 8984   7.140  16.540  13.164  0.0423 -0.1686  0.0074
  766POSM   PO4 8985   7.391  16.757  12.941 -0.1527  0.1825 -0.0809
  766POSM   AM1 8986   7.639  16.837  13.103  0.1899 -0.2738 -0.3140
  766POSM   AM2 8987   7.702  17.092  13.257  0.0918 -0.0371  0.2469
  766POSM   T1A 8988   8.021  16.781  13.429 -0.0854 -0.2188  0.2370
  766POSM   C2A 8989   8.422  16.616  13.442 -0.0529  0.0332  0.1637
  766POSM   C3A 8990   8.502  16.216  13.703  0.0529  0.1548 -0.1564
  766POSM   C1B 8991   7.613  17.200  13.552 -0.1373 -0.1783  0.2541
  766POSM   D2B 8992   7.549  17.385  13.912  0.1290  0.2066  0.1575
  766POSM   C3B 8993   7.321  17.189  14.252  0.4646  0.0527  0.0105
  766POSM   C4B 8994   6.993  17.173  14.613 -0.0275  0.0412 -0.0454
  767POSM   NC3 8995   0.873  21.171  12.996 -0.1223  0.2474 -0.3062
  767POSM   PO4 8996   0.965  21.174  12.608 -0.2763  0.1096  0.0423
  767POSM   AM1 8997   1.266  21.052  12.642  0.0347  0.0564  0.0588
  767POSM   AM2 8998   1.489  21.034  12.788  0.1571  0.1509  0.1644
  767POSM   T1A 8999   1.447  20.608  12.478  0.0166 -0.1437  0.1089
  767POSM   C2A 9000   1.840  20.345  12.478  0.2148 -0.0989  0.0960
  767POSM   C3A 9001   2.071  20.028  12.745 -0.0061  0.1250 -0.0079
  767POSM   C1B 9002   1.533  20.835  13.053  0.3494  0.3573 -0.0840
  767POSM   D2B 9003   1.566  20.565  13.437 -0.0237  0.2511  0.1951
  767POSM   C3B 9004   1.260  20.339  13.653 -0.0312  0.3490 -0.0072
  767POSM   C4B 9005   0.937  20.240  13.968 -0.1270 -0.0486 -0.0650
  768POSM   NC3 9006  10.160  15.568  11.982  0.1849 -0.0191  0.1031
  768POSM   PO4 9007  10.349  15.274  11.831 -0.2409 -0.0486 -0.1044
  768POSM   AM1 9008  10.188  15.131  12.062 -0.2211  0.2673  0.0785
  768POSM   AM2 9009  10.135  15.165  12.307 -0.1176 -0.0787  0.0105
  768POSM   T1A 9010   9.683  14.933  12.177 -0.2879  0.1369  0.2407
  768POSM   C2A 9011   9.560  14.669  12.532 -0.1008 -0.1027  0.0131
  768POSM   C3A 9012   9.281  14.426  12.816  0.1541  0.1835  0.2083
  768POSM   C1B 9013   9.918  15.255  12.523 -0.0259 -0.0907  0.0648
  768POSM   D2B 9014   9.706  15.517  12.876  0.0388  0.0721  0.1487
  768POSM   C3B 9015   9.556  15.390  13.237  0.0080 -0.1079  0.0181
  768POSM   C4B 9016   9.136  15.331  13.367  0.2734  0.2145  0.2765
  769DOPC   NC3 9017   3.556  17.957  12.619  0.0120  0.0710  0.0092
  769DOPC   PO4 9018   3.369  18.353  12.634 -0.4080  0.3370  0.5830
  769DOPC   GL1 9019   3.110  18.408  13.038  0.1293  0.0534 -0.2616
  769DOPC   GL2 9020   2.795  18.290  13.004 -0.1926 -0.2323  0.3194
  769DOPC   C1A 9021   3.346  18.307  13.379  0.3154 -0.4513  0.0343
  769DOPC   D2A 9022   3.627  18.089  13.676  0.2265  0.0532  0.1336
  769DOPC   C3A 9023   3.579  18.052  14.119 -0.1162 -0.0754  0.0996
  769DOPC   C4A 9024   3.720  18.023  14.524 -0.1252 -0.3154 -0.1166
  769DOPC   C1B 9025   2.905  18.065  13.426 -0.3288 -0.0420  0.2935
  769DOPC   D2B 9026   3.191  17.887  13.766 -0.1048  0.0188  0.0578
  769DOPC   C3B 9027   2.983  17.716  14.146  0.0889  0.2600  0.0799
  769DOPC   C4B 9028   3.011  17.389  14.493 -0.1211  0.3953 -0.1244
  770DOPC   NC3 9029   9.018  13.149  12.894 -0.1421  0.0603  0.0806
  770DOPC   PO4 9030   8.917  12.821  13.101  0.0411 -0.0466 -0.1640
  770DOPC   GL1 9031   8.611  12.874  13.433  0.1393 -0.0448  0.0672
  770DOPC   GL2 9032   8.872  12.970  13.548  0.3469  0.0014  0.1467
  770DOPC   C1A 9033   8.276  13.111  13.608 -0.0000 -0.2217  0.3670
  770DOPC   D2A 9034   8.498  13.476  13.782 -0.0739 -0.2599  0.1935
  770DOPC   C3A 9035   8.618  13.463  14.201 -0.2036 -0.0379  0.4259
  770DOPC   C4A 9036   8.767  13.584  14.653 -0.0772  0.4795  0.0270
  770DOPC   C1B 9037   8.977  13.412  13.707 -0.2018  0.2307 -0.0096
  770DOPC   D2B 9038   8.911  13.823  13.947  0.2384 -0.0140 -0.2238
  770DOPC   C3B 9039   8.511  13.903  14.177  0.0272  0.0406 -0.2794
  770DOPC   C4B 9040   8.108  14.103  14.126  0.1348 -0.3648  0.1721
  771DOPE   NH3 9041   8.224  18.841  12.449 -0.1950  0.1692  0.2615
  771DOPE   PO4 9042   8.119  18.607  12.685 -0.1113  0.1955 -0.0209
  771DOPE   GL1 9043   8.022  18.720  13.020  0.0322 -0.0535 -0.0035
  771DOPE   GL2 9044   7.959  19.032  12.951 -0.1320  0.0491  0.2269
  771DOPE   C1A 9045   7.697  18.797  13.331 -0.1012 -0.1264  0.0146
  771DOPE   D2A 9046   7.697  18.826  13.773  0.1446 -0.1407 -0.0341
  771DOPE   C3A 9047   8.091  19.064  13.892 -0.1829 -0.2949  0.1279
  771DOPE   C4A 9048   8.487  19.255  13.869  0.2914  0.2734  0.1754
  771DOPE   C1B 9049   7.791  19.327  13.223  0.2702  0.0451  0.0514
  771DOPE   D2B 9050   7.646  19.342  13.632 -0.1615 -0.1892  0.1755
  771DOPE   C3B 9051   7.931  19.520  13.934  0.0834 -0.0285 -0.0521
  771DOPE   C4B 9052   8.131  19.887  13.957 -0.0537 -0.0508  0.1325
  772DOPC   NC3 9053   7.023  17.935  12.590  0.0399  0.0490  0.2905
  772DOPC   PO4 9054   6.682  18.140  12.597 -0.2792  0.0623  0.1499
  772DOPC   GL1 9055   6.772  18.330  12.943  0.1765  0.0441 -0.0662
  772DOPC   GL2 9056   6.626  18.666  13.043 -0.2114 -0.4460 -0.1369
  772DOPC   C1A 9057   6.800  18.404  13.431 -0.0836  0.0787  0.0082
  772DOPC   D2A 9058   7.017  18.676  13.686 -0.0301 -0.2169  0.1095
  772DOPC   C3A 9059   7.254  18.634  14.062 -0.0837  0.3221  0.1342
  772DOPC   C4A 9060   7.411  18.758  14.462  0.0040  0.0523 -0.1128
  772DOPC   C1B 9061   6.721  18.956  13.377  0.1749  0.0432 -0.0432
  772DOPC   D2B 9062   6.535  19.346  13.540 -0.0900  0.0217 -0.2131
  772DOPC   C3B 9063   6.716  19.773  13.629 -0.1066 -0.0145  0.1308
  772DOPC   C4B 9064   6.848  20.066  13.908  0.3565 -0.0576 -0.1142
  773DOPC   NC3 9065   9.613  19.189  12.553  0.1357  0.3196  0.1342
  773DOPC   PO4 9066   9.215  19.195  12.507 -0.0402  0.2292  0.0728
  773DOPC   GL1 9067   9.110  19.597  12.529  0.1022  0.0324  0.2027
  773DOPC   GL2 9068   9.377  19.643  12.623 -0.2575  0.4816  0.0347
  773DOPC   C1A 9069   8.904  20.010  12.716 -0.1642  0.1836 -0.0072
  773DOPC   D2A 9070   9.002  20.338  12.990  0.2983 -0.0400  0.2780
  773DOPC   C3A 9071   9.022  20.322  13.499 -0.0217  0.0980  0.1354
  773DOPC   C4A 9072   9.292  20.461  13.846 -0.5193  0.0481 -0.2102
  773DOPC   C1B 9073   9.414  20.094  12.593 -0.2259 -0.2182 -0.0744
  773DOPC   D2B 9074   9.105  20.409  12.480 -0.1730 -0.2184 -0.0702
  773DOPC   C3B 9075   9.217  20.816  12.424 -0.0351 -0.1527  0.0913
  773DOPC   C4B 9076   9.119  21.082  12.128 -0.0702 -0.0189  0.1637
  774DOPS   CNO 9077   9.097  23.398  11.977  0.0935 -0.1322 -0.2018
  774DOPS   PO4 9078   8.841  23.513  12.222  0.0020  0.0246  0.1762
  774DOPS   GL1 9079   8.860  23.515  12.613  0.4341  0.0235 -0.1425
  774DOPS   GL2 9080   8.802  23.241  12.746  0.1027 -0.0577  0.0824
  774DOPS   C1A 9081   8.944  23.891  12.852  0.0716  0.2116 -0.1591
  774DOPS   D2A 9082   8.937  24.209  13.181 -0.0754  0.0553  0.2599
  774DOPS   C3A 9083   9.127  24.331  13.557  0.0601 -0.2656 -0.3250
  774DOPS   C4A 9084   9.209  24.509  13.943  0.1325 -0.0780  0.0379
  774DOPS   C1B 9085   8.864  23.032  13.185 -0.0706 -0.2463  0.0289
  774DOPS   D2B 9086   8.823  22.731  13.570  0.0300 -0.0444  0.0594
  774DOPS   C3B 9087   8.482  22.665  13.875  0.4394 -0.2233 -0.1466
  774DOPS   C4B 9088   8.114  22.457  13.938 -0.0004 -0.0918  0.1693
  775POSM   NC3 9089  10.990  16.242  12.497  0.0869  0.1860  0.1202
  775POSM   PO4 9090  10.733  16.518  12.405  0.0213 -0.0048  0.0696
  775POSM   AM1 9091  10.790  16.612  12.707 -0.2982 -0.1483  0.0829
  775POSM   AM2 9092  11.020  16.575  12.862 -0.0255  0.1763  0.0666
  775POSM   T1A 9093  10.574  16.759  13.154  0.1281  0.0543 -0.4446
  775POSM   C2A 9094  10.110  16.748  13.381  0.2355 -0.1135 -0.1126
  775POSM   C3A 9095   9.651  16.779  13.356  0.0727 -0.1782  0.1154
  775POSM   C1B 9096  11.049  16.581  13.180 -0.2170 -0.4365  0.3802
  775POSM   D2B 9097  10.906  16.725  13.579  0.1938 -0.0240  0.1337
  775POSM   C3B 9098  10.503  16.802  13.695 -0.0133  0.1868 -0.0601
  775POSM   C4B 9099  10.220  17.004  13.983  0.0417 -0.0698 -0.1302
  776DOPS   CNO 9100   6.532  20.757  12.612  0.0618  0.3178 -0.1793
  776DOPS   PO4 9101   6.652  20.986  12.893  0.1129 -0.1292  0.2714
  776DOPS   GL1 9102   7.082  21.143  12.839  0.3000 -0.3284  0.0202
  776DOPS   GL2 9103   7.113  21.101  13.142  0.1834 -0.0852 -0.0751
  776DOPS   C1A 9104   7.520  21.065  12.622  0.1842 -0.0987 -0.0876
  776DOPS   D2A 9105   7.820  20.731  12.420  0.0613 -0.1365 -0.0263
  776DOPS   C3A 9106   8.309  20.562  12.493  0.0187  0.4080  0.4851
  776DOPS   C4A 9107   8.716  20.659  12.707  0.1489  0.0906 -0.0045
  776DOPS   C1B 9108   7.450  20.797  13.088  0.1647  0.0451  0.0294
  776DOPS   D2B 9109   7.811  20.606  13.048 -0.1430 -0.0293  0.0941
  776DOPS   C3B 9110   8.250  20.605  13.042  0.0598  0.4426  0.2325
  776DOPS   C4B 9111   8.638  20.696  13.244  0.2632  0.2620  0.2015
  777POSM   NC3 9112   2.011  17.381  12.498  0.3274 -0.1559 -0.0480
  777POSM   PO4 9113   1.873  17.222  12.791 -0.2114  0.0682 -0.0583
  777POSM   AM1 9114   1.992  17.312  13.107 -0.0863  0.0007 -0.1769
  777POSM   AM2 9115   2.256  17.392  13.236  0.1828 -0.0216  0.2111
  777POSM   T1A 9116   1.854  17.497  13.571 -0.1746 -0.0658 -0.4013
  777POSM   C2A 9117   1.740  17.584  14.047  0.2284  0.1509 -0.0113
  777POSM   C3A 9118   1.571  17.981  14.226  0.0966  0.0675  0.1989
  777POSM   C1B 9119   2.383  17.440  13.511 -0.0668 -0.0989 -0.0018
  777POSM   D2B 9120   2.710  17.344  13.871 -0.2465 -0.0118 -0.0522
  777POSM   C3B 9121   3.038  17.165  14.062 -0.1325 -0.2714  0.1310
  777POSM   C4B 9122   3.312  16.937  14.348 -0.1142  0.1233 -0.1863
  778DOPC   NC3 9123   3.270  20.801  13.067 -0.2213  0.0798 -0.0331
  778DOPC   PO4 9124   3.614  20.623  13.022  0.0122  0.0476  0.1690
  778DOPC   GL1 9125   3.670  20.703  13.393  0.1713  0.1065 -0.1103
  778DOPC   GL2 9126   3.377  20.564  13.505  0.1565 -0.2219 -0.1254
  778DOPC   C1A 9127   4.014  20.675  13.732  0.0705  0.1431 -0.0553
  778DOPC   D2A 9128   4.206  20.617  14.141 -0.1205  0.1245  0.0722
  778DOPC   C3A 9129   4.553  20.885  14.069 -0.0601 -0.0963  0.1270
  778DOPC   C4A 9130   4.803  20.848  13.654 -0.1287 -0.3538  0.1386
  778DOPC   C1B 9131   3.049  20.751  13.824  0.2618 -0.1005 -0.1324
  778DOPC   D2B 9132   2.591  20.780  14.014  0.1442  0.3012  0.1431
  778DOPC   C3B 9133   2.401  20.401  14.070  0.1390  0.0461  0.0839
  778DOPC   C4B 9134   2.035  20.302  14.328 -0.1210 -0.2096 -0.0646
  779DOPC   NC3 9135   8.592  17.238  12.609  0.0784  0.3211 -0.0627
  779DOPC   PO4 9136   8.586  17.347  12.971 -0.1143 -0.2153 -0.2998
  779DOPC   GL1 9137   8.889  17.058  12.973 -0.0759  0.2180  0.1967
  779DOPC   GL2 9138   8.891  16.891  12.854  0.3553  0.1871 -0.0668
  779DOPC   C1A 9139   9.123  16.846  13.337 -0.0866  0.0821 -0.1468
  779DOPC   D2A 9140   9.211  16.875  13.759 -0.0775 -0.0880  0.2590
  779DOPC   C3A 9141   8.884  16.985  14.034  0.0167  0.3157  0.0501
  779DOPC   C4A 9142   8.868  17.458  14.112  0.0448 -0.0843  0.4967
  779DOPC   C1B 9143   8.778  16.519  13.081  0.0717  0.0291 -0.1816
  779DOPC   D2B 9144   8.849  16.195  13.376 -0.0290 -0.0906 -0.0354
  779DOPC   C3B 9145   8.884  15.752  13.198  0.2199 -0.0576 -0.0698
  779DOPC   C4B 9146   9.113  15.421  12.895  0.4557  0.0077  0.1215
  780DOPC   NC3 9147   1.871  12.087  12.183 -0.2485  0.2051 -0.0782
  780DOPC   PO4 9148   2.078  12.257  12.478  0.1301  0.3205  0.2042
  780DOPC   GL1 9149   1.998  12.328  12.808  0.1364  0.1592 -0.0835
  780DOPC   GL2 9150   2.220  12.417  12.969 -0.1041  0.1204 -0.3219
  780DOPC   C1A 9151   1.676  12.539  13.140  0.3111 -0.0562 -0.0968
  780DOPC   D2A 9152   1.565  12.746  13.523  0.1792 -0.1010  0.3503
  780DOPC   C3A 9153   1.691  12.546  13.938 -0.0111 -0.1318  0.0751
  780DOPC   C4A 9154   1.587  12.189  14.235 -0.0299 -0.2039 -0.0250
  780DOPC   C1B 9155   2.550  12.566  13.318 -0.1029 -0.0294  0.1908
  780DOPC   D2B 9156   2.448  12.703  13.811 -0.0880  0.1825 -0.1330
  780DOPC   C3B 9157   2.093  12.957  13.830 -0.1313  0.1267  0.1586
  780DOPC   C4B 9158   1.623  13.086  13.823 -0.2121  0.4989  0.2119
  781POSM   NC3 9159   9.363  22.370  12.269 -0.0623 -0.0881  0.0070
  781POSM   PO4 9160   9.148  22.608  12.089  0.0864  0.1731  0.1088
  781POSM   AM1 9161   8.938  22.576  12.345 -0.5924 -0.1935  0.0448
  781POSM   AM2 9162   8.841  22.338  12.503  0.0992  0.0261  0.1428
  781POSM   T1A 9163   8.753  22.747  12.776  0.3337 -0.1549 -0.0096
  781POSM   C2A 9164   8.440  22.609  13.148  0.3599  0.1402  0.1804
  781POSM   C3A 9165   8.052  22.375  13.241  0.2060 -0.0964 -0.0610
  781POSM   C1B 9166   8.576  22.132  12.436  0.0752 -0.0903 -0.0364
  781POSM   D2B 9167   8.290  21.780  12.356  0.1951 -0.1338  0.0364
  781POSM   C3B 9168   7.892  21.624  12.134 -0.0494 -0.0064 -0.0668
  781POSM   C4B 9169   7.827  21.195  12.232  0.2756  0.0567  0.0124
  782POSM   NC3 9170   2.090  15.814  13.028  0.2530 -0.2314  0.2920
  782POSM   PO4 9171   2.234  15.722  12.611  0.0005  0.2105 -0.3279
  782POSM   AM1 9172   2.224  15.411  12.711  0.0301 -0.3848 -0.3934
  782POSM   AM2 9173   2.356  15.371  12.972 -0.1232  0.2092  0.1892
  782POSM   T1A 9174   2.333  14.935  12.668 -0.0333  0.0659 -0.3067
  782POSM   C2A 9175   2.587  14.591  12.932 -0.0538 -0.2260  0.1940
  782POSM   C3A 9176   2.886  14.421  13.176  0.3977 -0.0755  0.0543
  782POSM   C1B 9177   2.526  15.222  13.188 -0.0574  0.1228  0.0975
  782POSM   D2B 9178   2.733  15.298  13.602  0.2934 -0.0612  0.0395
  782POSM   C3B 9179   3.156  15.235  13.524  0.1621 -0.0765 -0.1160
  782POSM   C4B 9180   3.612  15.425  13.629 -0.0201  0.3436 -0.2460
  783DOPE   NH3 9181   5.953  16.054  12.739 -0.1487 -0.0753 -0.2845
  783DOPE   PO4 9182   6.060  15.862  12.958  0.2428 -0.0941  0.1294
  783DOPE   GL1 9183   5.716  16.006  13.087 -0.0220  0.0116  0.1277
  783DOPE   GL2 9184   5.466  16.033  13.137  0.3717  0.2167 -0.2579
  783DOPE   C1A 9185   5.795  16.391  13.307 -0.1153  0.2461 -0.0134
  783DOPE   D2A 9186   5.685  16.591  13.682 -0.1719 -0.0625  0.0201
  783DOPE   C3A 9187   5.337  16.875  13.697  0.4750  0.0360  0.1056
  783DOPE   C4A 9188   5.020  17.121  13.983 -0.2749 -0.1442 -0.0331
  783DOPE   C1B 9189   5.494  16.045  13.620  0.3130 -0.0315 -0.1398
  783DOPE   D2B 9190   5.434  16.180  14.035  0.3371  0.1147  0.3307
  783DOPE   C3B 9191   5.331  16.616  14.133 -0.1579  0.1112  0.1225
  783DOPE   C4B 9192   5.193  16.897  14.476  0.5199 -0.1146  0.0117
  784DOPS   CNO 9193  11.500  15.580  11.983  0.4766 -0.0803  0.0620
  784DOPS   PO4 9194  11.507  15.854  12.237 -0.0707  0.1762  0.0234
  784DOPS   GL1 9195  11.316  15.888  12.613 -0.2176  0.0702  0.2433
  784DOPS   GL2 9196  11.469  15.689  12.760  0.1526 -0.2119 -0.0542
  784DOPS   C1A 9197  11.146  16.035  13.018  0.0438  0.1037 -0.1287
  784DOPS   D2A 9198  10.699  16.246  13.089 -0.2016  0.1132  0.2140
  784DOPS   C3A 9199  10.517  16.346  13.503 -0.2193 -0.0528 -0.0867
  784DOPS   C4A 9200  10.668  16.392  13.945 -0.0323 -0.0187  0.3284
  784DOPS   C1B 9201  11.099  15.543  13.019  0.0330 -0.2222 -0.0550
  784DOPS   D2B 9202  10.959  15.216  13.326  0.1775  0.1857  0.0406
  784DOPS   C3B 9203  10.786  15.389  13.696 -0.0416  0.2682 -0.0182
  784DOPS   C4B 9204  10.415  15.424  13.940 -0.2677  0.3796 -0.0511
  785DOPE   NH3 9205  11.128  22.635  12.433  0.1297  0.1381 -0.0464
  785DOPE   PO4 9206  11.415  22.627  12.542 -0.0336  0.2764  0.3414
  785DOPE   GL1 9207  11.535  22.675  12.957 -0.0444  0.2247  0.0841
  785DOPE   GL2 9208  11.296  22.790  12.959  0.1928  0.2555 -0.3459
  785DOPE   C1A 9209  11.662  22.616  13.426  0.0279 -0.2488  0.1554
  785DOPE   D2A 9210  11.642  22.635  13.892 -0.2744  0.0238 -0.1830
  785DOPE   C3A 9211  11.944  22.345  14.043  0.2081  0.2925  0.1307
  785DOPE   C4A 9212  12.322  22.185  14.319 -0.1291 -0.2333 -0.1232
  785DOPE   C1B 9213  11.157  22.514  13.323  0.1398  0.1314 -0.0675
  785DOPE   D2B 9214  11.092  22.735  13.717  0.0374 -0.0192  0.2437
  785DOPE   C3B 9215  11.247  22.956  14.141 -0.1310 -0.1121  0.0031
  785DOPE   C4B 9216  11.227  23.236  14.452 -0.0860  0.0741 -0.1282
  786DOPC   NC3 9217   1.101  16.574  13.057 -0.0806  0.3642 -0.2188
  786DOPC   PO4 9218   0.888  16.511  12.735  0.0205 -0.2790 -0.1748
  786DOPC   GL1 9219   0.724  16.802  12.937  0.3683 -0.1563 -0.1218
  786DOPC   GL2 9220   0.831  17.097  13.019 -0.2024 -0.1527  0.1783
  786DOPC   C1A 9221   0.467  17.140  12.714  0.3935 -0.3300 -0.1629
  786DOPC   D2A 9222   0.275  17.523  12.552 -0.3160  0.2461  0.0452
  786DOPC   C3A 9223   0.493  17.909  12.571 -0.2239 -0.0234  0.1552
  786DOPC   C4A 9224   0.414  18.396  12.591 -0.1431  0.0823 -0.1567
  786DOPC   C1B 9225   0.336  16.981  13.190  0.0075  0.2088 -0.1926
  786DOPC   D2B 9226   0.070  17.130  13.545  0.2937  0.3077  0.1446
  786DOPC   C3B 9227   0.263  17.437  13.778 -0.3993  0.2775 -0.0166
  786DOPC   C4B 9228   0.492  17.827  13.771  0.2463  0.0946 -0.1666
  787DOPC   NC3 9229   3.765  14.952  12.457  0.0824 -0.1007 -0.2302
  787DOPC   PO4 9230   3.984  15.252  12.664 -0.1537  0.1269 -0.3904
  787DOPC   GL1 9231   4.119  15.270  13.070  0.0941 -0.1094  0.0676
  787DOPC   GL2 9232   4.315  15.020  13.176  0.0144  0.1644  0.1443
  787DOPC   C1A 9233   4.091  15.288  13.529 -0.1444 -0.0587 -0.0961
  787DOPC   D2A 9234   4.311  14.984  13.830 -0.0149  0.4257  0.1057
  787DOPC   C3A 9235   3.941  14.868  14.137 -0.2451  0.1714  0.1784
  787DOPC   C4A 9236   3.762  14.641  14.484 -0.4455 -0.4135  0.0991
  787DOPC   C1B 9237   4.478  14.649  13.465 -0.0336 -0.3134  0.1884
  787DOPC   D2B 9238   4.629  14.597  13.843 -0.1603 -0.0799 -0.1199
  787DOPC   C3B 9239   4.564  14.781  14.230  0.0295  0.4250  0.2324
  787DOPC   C4B 9240   4.270  14.807  14.577  0.0351  0.1300 -0.1117
  788POSM   NC3 9241  10.453  16.923  12.614  0.0819 -0.1054 -0.1753
  788POSM   PO4 9242  10.412  17.290  12.552 -0.3356 -0.0051  0.2689
  788POSM   AM1 9243  10.366  17.416  12.848 -0.1094  0.1473  0.3696
  788POSM   AM2 9244  10.380  17.703  12.928 -0.4772  0.0125  0.2050
  788POSM   T1A 9245  10.012  17.228  13.189  0.0893  0.0835  0.0906
  788POSM   C2A 9246   9.921  17.173  13.640  0.0536 -0.2615 -0.2399
  788POSM   C3A 9247   9.708  16.795  13.845 -0.3116 -0.1553  0.2457
  788POSM   C1B 9248  10.213  17.697  13.199 -0.2798  0.2471 -0.0852
  788POSM   D2B 9249  10.011  17.701  13.631  0.0279 -0.1515  0.2980
  788POSM   C3B 9250   9.988  17.558  14.051  0.2136  0.2838 -0.2563
  788POSM   C4B 9251   9.790  17.187  14.223 -0.0321 -0.7008  0.0302
  789POSM   NC3 9252   0.064  20.791  12.555  0.2436  0.3512  0.1604
  789POSM   PO4 9253  -0.018  20.466  12.723  0.0343 -0.0405  0.0375
  789POSM   AM1 9254   0.216  20.555  12.968 -0.1432  0.1109  0.1806
  789POSM   AM2 9255   0.425  20.695  13.075  0.0818  0.2159 -0.0167
  789POSM   T1A 9256   0.186  20.510  13.430 -0.2090  0.0546 -0.0176
  789POSM   C2A 9257   0.182  20.147  13.741 -0.3043  0.1763  0.0430
  789POSM   C3A 9258   0.083  19.747  13.892  0.4461  0.1230  0.4109
  789POSM   C1B 9259   0.703  20.764  13.278  0.1190  0.2343 -0.1453
  789POSM   D2B 9260   1.149  20.785  13.409  0.1222  0.0343  0.2022
  789POSM   C3B 9261   1.406  20.805  13.818 -0.2606  0.4125 -0.4318
  789POSM   C4B 9262   1.522  20.949  14.252 -0.1813 -0.1654  0.0393
  790DOPS   CNO 9263   7.321  15.162  12.986  0.0266 -0.1271  0.1317
  790DOPS   PO4 9264   7.536  15.029  13.267  0.5327 -0.1352  0.1319
  790DOPS   GL1 9265   7.679  14.857  13.692 -0.1238 -0.2934  0.0070
  790DOPS   GL2 9266   7.413  14.882  13.829  0.2529 -0.1363  0.3385
  790DOPS   C1A 9267   7.845  15.036  14.075  0.0619  0.2059  0.5695
  790DOPS   D2A 9268   8.229  15.135  14.297 -0.2603  0.1185 -0.1328
  790DOPS   C3A 9269   8.653  14.925  14.205  0.0901  0.0174 -0.0125
  790DOPS   C4A 9270   9.087  14.890  14.155  0.2087  0.1579 -0.2087
  790DOPS   C1B 9271   7.234  14.517  14.005 -0.0402 -0.0708 -0.0037
  790DOPS   D2B 9272   7.418  14.141  14.201 -0.0358 -0.0290 -0.1527
  790DOPS   C3B 9273   7.721  13.888  14.026  0.1710 -0.0067 -0.0396
  790DOPS   C4B 9274   7.917  13.500  13.910  0.0761  0.0401 -0.0740
  791POSM   NC3 9275   2.996  12.240  12.183 -0.0138 -0.0508  0.1236
  791POSM   PO4 9276   2.911  12.062  12.552  0.0918 -0.0572  0.1602
  791POSM   AM1 9277   2.620  12.060  12.699  0.0046  0.5398 -0.2311
  791POSM   AM2 9278   2.357  11.953  12.708 -0.1197  0.1589 -0.1908
  791POSM   T1A 9279   2.553  12.037  13.208  0.0443  0.2618 -0.2408
  791POSM   C2A 9280   2.439  12.150  13.610 -0.3712 -0.4212  0.4098
  791POSM   C3A 9281   2.354  11.891  13.973  0.1512  0.0340 -0.2030
  791POSM   C1B 9282   2.332  11.641  12.545  0.0400  0.2118 -0.0319
  791POSM   D2B 9283   2.411  11.170  12.512  0.0812 -0.0279  0.0629
  791POSM   C3B 9284   2.284  10.869  12.875 -0.0671  0.1383  0.0869
  791POSM   C4B 9285   2.419  10.622  13.231 -0.0355  0.1924 -0.1078
  792DOPE   NH3 9286   6.145  21.130  12.706 -0.1373  0.6634 -0.1309
  792DOPE   PO4 9287   6.262  21.354  12.866  0.1600 -0.3901 -0.1608
  792DOPE   GL1 9288   5.849  21.459  12.989  0.2039 -0.1492  0.1752
  792DOPE   GL2 9289   5.706  21.201  12.990 -0.2098 -0.2092 -0.0145
  792DOPE   C1A 9290   5.488  21.593  13.233 -0.0857 -0.2273 -0.3382
  792DOPE   D2A 9291   5.484  21.485  13.661  0.0159  0.3107 -0.0204
  792DOPE   C3A 9292   5.191  21.100  13.721 -0.1520  0.0926 -0.1176
  792DOPE   C4A 9293   5.082  20.860  14.082  0.3001 -0.1201  0.0384
  792DOPE   C1B 9294   5.310  21.005  13.083 -0.1284  0.0032  0.0578
  792DOPE   D2B 9295   5.061  20.661  13.177 -0.3274 -0.2064 -0.3892
  792DOPE   C3B 9296   5.221  20.550  13.649 -0.3052 -0.0878 -0.0089
  792DOPE   C4B 9297   5.560  20.710  13.909  0.3562 -0.3157 -0.0482
  793DOPE   NH3 9298   2.051  12.738  12.608  0.1292 -0.0098 -0.0763
  793DOPE   PO4 9299   2.176  12.857  12.337  0.1394  0.0379  0.0989
  793DOPE   GL1 9300   2.190  13.165  12.428  0.1328 -0.1928 -0.0103
  793DOPE   GL2 9301   2.301  13.236  12.688 -0.1750  0.1262  0.0548
  793DOPE   C1A 9302   2.276  13.508  12.115 -0.0854  0.0522 -0.0974
  793DOPE   D2A 9303   2.424  13.984  12.243  0.3710  0.2595  0.0134
  793DOPE   C3A 9304   2.685  14.348  12.230 -0.0672 -0.0113  0.1283
  793DOPE   C4A 9305   2.710  14.814  12.348  0.1543  0.2457 -0.0424
  793DOPE   C1B 9306   2.018  13.334  13.059  0.0272  0.0307  0.2770
  793DOPE   D2B 9307   1.662  13.225  13.317  0.3359  0.2075 -0.3053
  793DOPE   C3B 9308   1.280  13.507  13.216  0.2401 -0.0583  0.1902
  793DOPE   C4B 9309   0.919  13.347  12.913  0.4133 -0.2311 -0.2578
  794DOPE   NH3 9310   2.636  13.016  12.258 -0.1572  0.3931 -0.1620
  794DOPE   PO4 9311   2.724  13.216  12.476 -0.3047  0.0912 -0.1189
  794DOPE   GL1 9312   2.586  13.599  12.421  0.0947 -0.0893 -0.1336
  794DOPE   GL2 9313   2.886  13.747  12.540  0.0386 -0.1363 -0.2172
  794DOPE   C1A 9314   2.329  13.796  12.733 -0.2338  0.3499 -0.2107
  794DOPE   D2A 9315   2.504  14.075  13.013 -0.1561 -0.0915  0.0098
  794DOPE   C3A 9316   2.373  14.386  13.362  0.2313  0.0239  0.0001
  794DOPE   C4A 9317   2.166  14.532  13.758 -0.0488 -0.1047 -0.0384
  794DOPE   C1B 9318   2.694  13.579  12.977 -0.1668  0.0631 -0.0245
  794DOPE   D2B 9319   2.501  13.232  13.243  0.0575  0.1290 -0.1002
  794DOPE   C3B 9320   2.260  13.414  13.534  0.2261  0.1427  0.1457
  794DOPE   C4B 9321   1.888  13.490  13.801 -0.2198  0.2664  0.2933
  795DOPS   CNO 9322   3.558  12.970  12.407  0.1789 -0.1967  0.1572
  795DOPS   PO4 9323   3.884  12.930  12.601 -0.0988 -0.0240  0.3785
  795DOPS   GL1 9324   4.178  12.987  12.807  0.0823  0.0813 -0.0169
  795DOPS   GL2 9325   4.250  12.672  12.906 -0.3028  0.0028  0.0812
  795DOPS   C1A 9326   4.234  13.338  13.134 -0.0613  0.1099 -0.0659
  795DOPS   D2A 9327   4.412  13.708  13.368 -0.0803  0.2832  0.1702
  795DOPS   C3A 9328   4.335  13.512  13.779  0.1030 -0.0092  0.3810
  795DOPS   C4A 9329   4.309  13.656  14.150  0.0644  0.0863  0.0221
  795DOPS   C1B 9330   4.452  12.699  13.355 -0.0405 -0.1132  0.0997
  795DOPS   D2B 9331   4.504  12.460  13.736 -0.1476 -0.1608 -0.0832
  795DOPS   C3B 9332   4.538  12.756  14.097 -0.0623  0.3583  0.0762
  795DOPS   C4B 9333   4.807  12.805  14.416 -0.0760  0.0646 -0.2981
  796POSM   NC3 9334   7.059  14.939  13.398  0.3861 -0.0653  0.0815
  796POSM   PO4 9335   6.784  15.098  13.158 -0.2569 -0.2476 -0.0829
  796POSM   AM1 9336   6.656  15.276  13.412  0.0851  0.2055  0.2301
  796POSM   AM2 9337   6.679  15.522  13.532 -0.1111  0.0150  0.1099
  796POSM   T1A 9338   6.590  15.176  13.915  0.0100 -0.0747  0.2289
  796POSM   C2A 9339   6.934  14.930  14.033 -0.0690 -0.3594  0.2705
  796POSM   C3A 9340   7.318  14.930  14.323 -0.2669  0.1220 -0.0519
  796POSM   C1B 9341   6.504  15.650  13.760  0.2197 -0.0147  0.1225
  796POSM   D2B 9342   6.205  15.782  14.093  0.1145  0.0029  0.3933
  796POSM   C3B 9343   6.190  15.675  14.502 -0.2297 -0.0196 -0.0221
  796POSM   C4B 9344   6.048  15.261  14.654  0.1621 -0.1425  0.1735
  797POSM   NC3 9345   9.167  17.804  12.286  0.1251 -0.0597 -0.1394
  797POSM   PO4 9346   8.921  17.511  12.262 -0.1417 -0.1532  0.1642
  797POSM   AM1 9347   9.117  17.406  12.461 -0.2429  0.1003 -0.1725
  797POSM   AM2 9348   9.142  17.355  12.704  0.1355  0.1080  0.1459
  797POSM   T1A 9349   9.587  17.255  12.449 -0.2973 -0.1638  0.1569
  797POSM   C2A 9350   9.888  17.059  12.745  0.1360 -0.0799  0.2328
  797POSM   C3A 9351   9.879  16.623  12.938  0.0754  0.1199 -0.1070
  797POSM   C1B 9352   9.284  17.342  13.037  0.1969 -0.1199  0.0179
  797POSM   D2B 9353   9.398  17.242  13.480  0.0117 -0.1262  0.2674
  797POSM   C3B 9354   9.440  17.370  13.920 -0.0135  0.0298  0.0227
  797POSM   C4B 9355   9.371  17.796  14.008 -0.1485 -0.1742 -0.3057
  798DOPE   NH3 9356   7.360  15.476  13.372  0.3174  0.0343 -0.2986
  798DOPE   PO4 9357   7.292  15.360  13.657 -0.0354  0.2147  0.3665
  798DOPE   GL1 9358   7.668  15.527  13.745 -0.0180  0.1173  0.0956
  798DOPE   GL2 9359   7.783  15.311  13.696  0.1032  0.1541  0.0205
  798DOPE   C1A 9360   7.850  15.582  14.186  0.0044  0.0767 -0.0476
  798DOPE   D2A 9361   8.144  15.597  14.529 -0.2757 -0.4059  0.0226
  798DOPE   C3A 9362   8.547  15.842  14.461 -0.1257  0.1139  0.1220
  798DOPE   C4A 9363   8.723  15.897  14.026  0.0122 -0.2436  0.0396
  798DOPE   C1B 9364   8.248  15.254  13.804 -0.2207 -0.0249 -0.2015
  798DOPE   D2B 9365   8.743  15.054  13.703  0.1500  0.2688 -0.2981
  798DOPE   C3B 9366   8.988  14.692  13.696  0.0214  0.2586 -0.0727
  798DOPE   C4B 9367   9.183  14.431  13.975  0.0037  0.4558 -0.1688
  799DOPS   CNO 9368   1.463  21.807  12.782  0.1287 -0.0603  0.2754
  799DOPS   PO4 9369   1.278  21.522  12.828 -0.0017  0.0697 -0.1607
  799DOPS   GL1 9370   1.240  21.642  13.269  0.3179 -0.0371  0.0054
  799DOPS   GL2 9371   1.315  21.305  13.271  0.2424  0.2953 -0.1091
  799DOPS   C1A 9372   1.203  22.010  13.498 -0.1449 -0.2857  0.0041
  799DOPS   D2A 9373   0.907  22.383  13.486  0.0966  0.0296  0.1576
  799DOPS   C3A 9374   1.018  22.759  13.749  0.1873 -0.2564 -0.1932
  799DOPS   C4A 9375   1.055  22.983  14.137  0.0061 -0.1360  0.0231
  799DOPS   C1B 9376   1.395  21.508  13.675  0.0440 -0.1407  0.1366
  799DOPS   D2B 9377   1.211  21.561  14.090 -0.1540  0.0427  0.3098
  799DOPS   C3B 9378   1.125  21.964  14.276  0.0387  0.1137  0.2584
  799DOPS   C4B 9379   0.796  22.220  14.549  0.0219  0.1535 -0.1122
  800DOPE   NH3 9380   5.618  19.794  12.258 -0.1204 -0.0865  0.1921
  800DOPE   PO4 9381   5.894  19.854  12.458  0.3684  0.0117 -0.0963
  800DOPE   GL1 9382   6.201  19.884  12.673  0.0328  0.2832  0.2761
  800DOPE   GL2 9383   6.050  19.837  12.921 -0.2111 -0.0825 -0.1580
  800DOPE   C1A 9384   6.568  20.086  12.420  0.0640 -0.0294  0.2769
  800DOPE   D2A 9385   6.908  20.367  12.537  0.2989  0.0662 -0.1500
  800DOPE   C3A 9386   7.022  20.371  12.998  0.1396  0.0546  0.1080
  800DOPE   C4A 9387   7.020  20.176  13.411 -0.1623  0.0844 -0.0563
  800DOPE   C1B 9388   5.826  19.707  13.329  0.0553  0.1092 -0.2343
  800DOPE   D2B 9389   5.944  19.840  13.740 -0.2814  0.0716  0.0645
  800DOPE   C3B 9390   6.321  19.715  13.913 -0.0861  0.0232 -0.3059
  800DOPE   C4B 9391   6.523  19.553  14.257  0.4857 -0.1845  0.1104
  801POSM   NC3 9392  33.809  14.559  12.380 -0.2044 -0.1920  0.2639
  801POSM   PO4 9393  33.968  14.482  12.750  0.0561  0.2641 -0.0809
  801POSM   AM1 9394  33.995  14.164  12.750 -0.0167  0.3603  0.0478
  801POSM   AM2 9395  33.923  13.954  12.912 -0.1027  0.0146  0.1100
  801POSM   T1A 9396  34.167  13.740  12.540  0.2929  0.1495 -0.1040
  801POSM   C2A 9397  34.436  13.418  12.393 -0.1553  0.0826  0.2080
  801POSM   C3A 9398  34.652  13.396  12.017  0.0246  0.0705  0.0931
  801POSM   C1B 9399  33.810  13.724  13.158  0.0031  0.0582 -0.3452
  801POSM   D2B 9400  33.669  13.455  13.495 -0.0947 -0.1856  0.0575
  801POSM   C3B 9401  33.422  13.097  13.733  0.0753  0.0439  0.2309
  801POSM   C4B 9402  33.251  12.770  14.020 -0.1456 -0.1757  0.2092
  802POSM   NC3 9403   0.201  22.329  12.730 -0.2252  0.0890 -0.2757
  802POSM   PO4 9404   0.534  22.182  12.575  0.0916 -0.1681  0.0582
  802POSM   AM1 9405   0.662  22.041  12.823  0.0209  0.1924 -0.3193
  802POSM   AM2 9406   0.930  22.041  12.889 -0.1992 -0.0292  0.0155
  802POSM   T1A 9407   0.707  21.894  13.305  0.3549  0.0837 -0.2184
  802POSM   C2A 9408   0.759  21.440  13.428 -0.4341 -0.2936  0.1734
  802POSM   C3A 9409   0.976  21.187  13.720  0.0287  0.1669  0.0732
  802POSM   C1B 9410   1.182  22.247  12.957  0.1417 -0.1079  0.0560
  802POSM   D2B 9411   1.464  22.589  12.906 -0.1345  0.0715 -0.1343
  802POSM   C3B 9412   1.189  22.907  13.097 -0.0209 -0.4371  0.1224
  802POSM   C4B 9413   0.965  23.235  13.098 -0.0319  0.0749  0.3328
  803DOPC   NC3 9414   4.185  19.871  12.815 -0.0008  0.3711 -0.1413
  803DOPC   PO4 9415   4.179  20.152  12.521  0.0039 -0.0231 -0.1069
  803DOPC   GL1 9416   3.792  20.078  12.560  0.0682 -0.0230  0.2184
  803DOPC   GL2 9417   3.738  20.152  12.885 -0.0730  0.1669 -0.4045
  803DOPC   C1A 9418   3.445  19.785  12.635 -0.0169  0.2608 -0.0189
  803DOPC   D2A 9419   3.056  19.589  12.912  0.2104  0.0787  0.1298
  803DOPC   C3A 9420   3.062  19.846  13.268 -0.1698 -0.1575  0.2596
  803DOPC   C4A 9421   3.182  20.081  13.644 -0.0621  0.0071  0.0012
  803DOPC   C1B 9422   3.548  20.037  13.324  0.1699 -0.0888  0.3903
  803DOPC   D2B 9423   3.695  20.246  13.692  0.1813 -0.2238  0.1095
  803DOPC   C3B 9424   3.570  20.522  13.978  0.3012  0.0634 -0.1310
  803DOPC   C4B 9425   3.832  20.926  14.092 -0.0252  0.0063 -0.4939
  804POSM   NC3 9426   0.590  19.149  12.430 -0.0997 -0.1018  0.0991
  804POSM   PO4 9427   0.233  19.203  12.602  0.0018  0.1885  0.2896
  804POSM   AM1 9428   0.227  18.990  12.880  0.0271 -0.0479  0.3937
  804POSM   AM2 9429   0.143  19.051  13.133  0.1548  0.1698  0.0810
  804POSM   T1A 9430   0.276  18.550  13.130 -0.2399  0.0571  0.1823
  804POSM   C2A 9431   0.376  18.242  13.451 -0.0919 -0.1249 -0.0593
  804POSM   C3A 9432   0.447  18.349  13.946 -0.1384 -0.3705  0.0917
  804POSM   C1B 9433   0.069  19.010  13.451 -0.1462 -0.0367  0.2921
  804POSM   D2B 9434  -0.111  19.193  13.807  0.0541 -0.0472  0.2324
  804POSM   C3B 9435  -0.475  19.486  13.875  0.3631  0.2716  0.0168
  804POSM   C4B 9436  -0.956  19.509  13.993  0.0219 -0.0673  0.0086
  805DOPE   NH3 9437   5.056  14.815  12.728  0.1122  0.0496 -0.1371
  805DOPE   PO4 9438   4.828  14.580  12.590  0.3642 -0.0911  0.2605
  805DOPE   GL1 9439   4.696  14.401  12.897  0.0117 -0.0098  0.2916
  805DOPE   GL2 9440   4.609  14.636  13.020 -0.4784  0.0806  0.5138
  805DOPE   C1A 9441   4.501  14.184  13.283  0.0213  0.2383 -0.3455
  805DOPE   D2A 9442   4.263  14.069  13.691  0.0707 -0.7040 -0.0186
  805DOPE   C3A 9443   3.788  14.119  13.599  0.0111  0.1236 -0.2140
  805DOPE   C4A 9444   3.433  13.868  13.703 -0.4355  0.0086  0.1686
  805DOPE   C1B 9445   4.994  14.567  13.318  0.1815  0.2622  0.0481
  805DOPE   D2B 9446   4.981  14.316  13.690 -0.0675  0.2009 -0.1243
  805DOPE   C3B 9447   4.721  14.080  13.940 -0.2180 -0.1686 -0.1624
  805DOPE   C4B 9448   4.729  14.154  14.382  0.1600 -0.1528  0.0937
  806DOPS   CNO 9449   2.444  17.517  12.798  0.0179 -0.0886  0.0501
  806DOPS   PO4 9450   2.493  17.125  12.734  0.3727 -0.2544  0.2570
  806DOPS   GL1 9451   2.697  17.034  13.067 -0.1836  0.3315 -0.0462
  806DOPS   GL2 9452   2.780  17.326  13.136 -0.2798  0.2773 -0.0237
  806DOPS   C1A 9453   2.852  16.976  13.548  0.0368 -0.0709 -0.1889
  806DOPS   D2A 9454   2.625  16.751  13.864 -0.2107 -0.1374  0.1363
  806DOPS   C3A 9455   2.168  16.659  13.959  0.2096  0.0030  0.0580
  806DOPS   C4A 9456   1.739  16.646  14.214  0.1501 -0.1981  0.0187
  806DOPS   C1B 9457   2.864  17.606  13.486 -0.3293 -0.0377  0.0237
  806DOPS   D2B 9458   2.548  17.872  13.747 -0.1274  0.2346  0.0883
  806DOPS   C3B 9459   2.837  18.145  13.942 -0.1231  0.0802  0.0117
  806DOPS   C4B 9460   2.953  18.552  13.957 -0.1003  0.0603  0.1726
  807DOPC   NC3 9461   1.579  18.508  12.422 -0.0837  0.0403  0.1202
  807DOPC   PO4 9462   1.962  18.505  12.385  0.0378 -0.1543  0.0046
  807DOPC   GL1 9463   1.971  18.782  12.697  0.0468 -0.1895  0.2795
  807DOPC   GL2 9464   1.982  18.773  13.000 -0.0370 -0.2933 -0.2136
  807DOPC   C1A 9465   2.376  19.010  12.600 -0.1602 -0.0242 -0.0488
  807DOPC   D2A 9466   2.706  19.369  12.638  0.0139 -0.0918  0.0049
  807DOPC   C3A 9467   2.562  19.499  13.074  0.0164 -0.1167 -0.2151
  807DOPC   C4A 9468   2.349  19.441  13.505 -0.1972 -0.1240 -0.1105
  807DOPC   C1B 9469   2.174  18.917  13.424  0.1610  0.2601 -0.0307
  807DOPC   D2B 9470   1.946  19.100  13.796 -0.2915 -0.1949  0.2124
  807DOPC   C3B 9471   2.124  18.977  14.194  0.1336 -0.0866  0.1660
  807DOPC   C4B 9472   2.372  18.742  14.542  0.0333  0.2718  0.3116
  808DOPC   NC3 9473   8.805  22.248  11.951 -0.0190 -0.0822  0.1565
  808DOPC   PO4 9474   9.148  21.967  11.966 -0.0087  0.0466  0.0906
  808DOPC   GL1 9475   8.894  21.917  12.256  0.1806 -0.2699 -0.2548
  808DOPC   GL2 9476   8.726  21.671  12.153 -0.2866 -0.1316  0.3208
  808DOPC   C1A 9477   8.671  21.754  12.674 -0.1929 -0.2363 -0.2126
  808DOPC   D2A 9478   8.429  21.515  12.964  0.0617  0.2326  0.1392
  808DOPC   C3A 9479   8.663  21.693  13.363  0.0249  0.0048  0.0459
  808DOPC   C4A 9480   8.632  21.652  13.778  0.0487 -0.0584 -0.0657
  808DOPC   C1B 9481   8.548  21.336  12.418 -0.0658  0.0953  0.0285
  808DOPC   D2B 9482   8.426  21.012  12.768  0.1659  0.4039 -0.0355
  808DOPC   C3B 9483   8.141  21.062  13.204 -0.0813  0.0949  0.2214
  808DOPC   C4B 9484   7.918  20.742  13.509 -0.0843  0.2683 -0.0273
  809DOPC   NC3 9485   2.097  16.768  12.731 -0.1159  0.1260  0.2131
  809DOPC   PO4 9486   2.259  16.894  13.073  0.1201  0.0596  0.1052
  809DOPC   GL1 9487   2.161  16.983  13.515 -0.3941 -0.1142 -0.1064
  809DOPC   GL2 9488   1.984  16.747  13.535  0.3934 -0.1951  0.0248
  809DOPC   C1A 9489   2.233  17.144  14.004 -0.1549 -0.3370  0.2166
  809DOPC   D2A 9490   2.439  17.398  14.326  0.2800 -0.2857 -0.1218
  809DOPC   C3A 9491   2.660  17.058  14.557  0.3777  0.0951 -0.1281
  809DOPC   C4A 9492   2.616  16.820  14.952 -0.1115  0.0046 -0.3324
  809DOPC   C1B 9493   1.710  17.006  13.852  0.1000 -0.0259  0.2087
  809DOPC   D2B 9494   1.459  17.226  14.058  0.4030 -0.1940 -0.0936
  809DOPC   C3B 9495   1.444  17.488  14.454  0.1051 -0.2758  0.2620
  809DOPC   C4B 9496   1.677  17.574  14.839 -0.0865  0.0197 -0.1050
  810DOPS   CNO 9497   5.690  20.302  12.371 -0.2062  0.0781  0.2320
  810DOPS   PO4 9498   5.421  20.322  12.648  0.1775  0.1058  0.0230
  810DOPS   GL1 9499   5.733  20.281  12.954 -0.0161  0.2372 -0.3141
  810DOPS   GL2 9500   5.653  20.549  13.112  0.3479 -0.2153  0.2586
  810DOPS   C1A 9501   6.068  20.215  13.282 -0.2504  0.1200 -0.0827
  810DOPS   D2A 9502   6.341  20.179  13.648 -0.2302 -0.1473  0.1780
  810DOPS   C3A 9503   6.176  20.349  14.043 -0.0443  0.1269 -0.1487
  810DOPS   C4A 9504   6.005  20.197  14.477  0.1557 -0.0610 -0.2334
  810DOPS   C1B 9505   5.694  20.915  13.405 -0.0336 -0.1723  0.2138
  810DOPS   D2B 9506   5.788  21.119  13.829  0.0373 -0.0345 -0.1588
  810DOPS   C3B 9507   5.988  20.940  14.131  0.1628  0.0990  0.0378
  810DOPS   C4B 9508   6.366  20.853  14.349  0.1408  0.2047  0.0083
  811POSM   NC3 9509   0.954  11.701  12.421 -0.2212 -0.0784  0.0843
  811POSM   PO4 9510   0.979  12.113  12.352 -0.2019  0.1035  0.0673
  811POSM   AM1 9511   1.239  11.987  12.499 -0.2737 -0.1454  0.0943
  811POSM   AM2 9512   1.280  11.990  12.803  0.0878  0.0913 -0.1843
  811POSM   T1A 9513   1.646  11.722  12.544  0.2894 -0.0814 -0.0467
  811POSM   C2A 9514   1.879  11.378  12.672  0.1065  0.2069  0.0974
  811POSM   C3A 9515   1.910  10.952  12.606  0.2573 -0.2373 -0.1679
  811POSM   C1B 9516   1.423  12.028  13.098 -0.2110 -0.0159  0.3283
  811POSM   D2B 9517   1.371  12.149  13.572  0.0934 -0.1733 -0.1913
  811POSM   C3B 9518   1.460  11.799  13.875  0.1006  0.2301 -0.1713
  811POSM   C4B 9519   1.454  11.638  14.275  0.2280 -0.0205  0.0922
  812POSM   NC3 9520   6.938  21.910  12.263 -0.1165  0.3150  0.0609
  812POSM   PO4 9521   6.791  22.179  12.476  0.2049  0.0550 -0.2630
  812POSM   AM1 9522   6.616  22.210  12.791  0.1678  0.5235  0.1572
  812POSM   AM2 9523   6.632  22.355  13.034 -0.0281  0.0059  0.3167
  812POSM   T1A 9524   6.259  22.125  13.174 -0.0276  0.0797 -0.0930
  812POSM   C2A 9525   5.916  21.940  13.428  0.1789 -0.0395 -0.0002
  812POSM   C3A 9526   5.658  21.871  13.874 -0.1376  0.1764  0.2398
  812POSM   C1B 9527   6.523  22.543  13.302 -0.0389  0.0146  0.1919
  812POSM   D2B 9528   6.480  22.809  13.720 -0.1546  0.0584  0.1223
  812POSM   C3B 9529   6.880  22.984  13.691  0.0985 -0.1894 -0.1289
  812POSM   C4B 9530   6.986  23.460  13.815 -0.1172  0.1187  0.3680
  813DOPE   NH3 9531  34.438  16.918  13.013 -0.2712 -0.1181 -0.2744
  813DOPE   PO4 9532  34.476  17.226  13.034  0.0164 -0.2473  0.0500
  813DOPE   GL1 9533  34.288  17.473  13.280  0.3646 -0.0564 -0.4029
  813DOPE   GL2 9534  34.381  17.767  13.166 -0.2008 -0.0883  0.1228
  813DOPE   C1A 9535  34.014  17.670  13.597 -0.3669  0.0437 -0.1493
  813DOPE   D2A 9536  33.645  17.507  13.859  0.2586 -0.3151  0.1617
  813DOPE   C3A 9537  33.610  17.134  14.096 -0.0309 -0.1585 -0.2109
  813DOPE   C4A 9538  33.812  16.718  14.116 -0.1240 -0.4199  0.1720
  813DOPE   C1B 9539  34.602  17.945  13.604  0.1412  0.1724  0.0097
  813DOPE   D2B 9540  34.632  18.251  13.977  0.2116  0.2817  0.3223
  813DOPE   C3B 9541  34.335  18.092  14.229 -0.3739  0.1983 -0.1201
  813DOPE   C4B 9542  34.045  17.730  14.173  0.0023 -0.2136 -0.0668
  814DOPC   NC3 9543   3.926  11.832  12.629 -0.0544 -0.1953  0.2207
  814DOPC   PO4 9544   4.277  11.602  12.533  0.3189  0.5288  0.2907
  814DOPC   GL1 9545   4.285  11.727  12.911  0.0112 -0.1971  0.0579
  814DOPC   GL2 9546   4.103  11.582  13.032 -0.0301 -0.1628 -0.0589
  814DOPC   C1A 9547   4.553  11.662  13.251 -0.1015 -0.0398 -0.2020
  814DOPC   D2A 9548   4.584  11.301  13.567 -0.0877 -0.2796 -0.1347
  814DOPC   C3A 9549   4.966  11.340  13.798 -0.1845  0.2801  0.0856
  814DOPC   C4A 9550   5.157  11.394  14.221 -0.1304  0.0076  0.0814
  814DOPC   C1B 9551   4.108  11.399  13.446  0.1643  0.1996 -0.1244
  814DOPC   D2B 9552   4.005  11.492  13.878  0.0076  0.1916 -0.2719
  814DOPC   C3B 9553   3.559  11.602  13.845  0.1173  0.0261  0.2063
  814DOPC   C4B 9554   3.317  11.585  13.504 -0.0813 -0.2305 -0.2396
  815POSM   NC3 9555  11.148  15.232  12.067  0.2895  0.3456 -0.1050
  815POSM   PO4 9556  10.748  15.200  12.125 -0.2806 -0.3249 -0.0348
  815POSM   AM1 9557  10.690  15.071  12.422 -0.3549 -0.1819 -0.1059
  815POSM   AM2 9558  10.857  15.019  12.586 -0.2278  0.3131 -0.0765
  815POSM   T1A 9559  10.373  15.028  12.765 -0.0380 -0.0957 -0.2215
  815POSM   C2A 9560  10.104  15.289  13.059  0.0406  0.0022 -0.1726
  815POSM   C3A 9561  10.267  15.731  13.214  0.0390  0.3213 -0.0663
  815POSM   C1B 9562  11.019  15.050  12.862  0.0880  0.3268 -0.0511
  815POSM   D2B 9563  11.284  14.866  13.170  0.0366 -0.0336  0.1135
  815POSM   C3B 9564  11.553  14.503  13.154 -0.0718 -0.2031  0.1496
  815POSM   C4B 9565  11.510  14.050  13.193 -0.2796 -0.4935  0.2142
  816POSM   NC3 9566   5.502  19.891  12.800  0.0398  0.1245  0.0009
  816POSM   PO4 9567   5.495  19.473  12.672 -0.2296  0.1295  0.1259
  816POSM   AM1 9568   5.279  19.433  12.880  0.3088  0.1238  0.3288
  816POSM   AM2 9569   5.089  19.479  13.077  0.0602 -0.2449  0.3010
  816POSM   T1A 9570   5.237  19.109  13.322  0.2252  0.1400  0.2901
  816POSM   C2A 9571   5.117  18.980  13.758  0.1288 -0.0919  0.0269
  816POSM   C3A 9572   5.239  18.607  14.049  0.1458  0.1672  0.0504
  816POSM   C1B 9573   5.263  19.696  13.219  0.1150  0.0571 -0.0154
  816POSM   D2B 9574   5.315  19.779  13.671  0.1801  0.1720  0.2323
  816POSM   C3B 9575   5.623  19.668  14.025  0.3074  0.3243 -0.1526
  816POSM   C4B 9576   6.049  19.665  14.324 -0.3291  0.0665 -0.3227
  817DOPC   NC3 9577   2.171  31.739  16.327  0.1131  0.4483  0.1800
  817DOPC   PO4 9578   2.440  31.913  16.479 -0.0815 -0.2434 -0.4765
  817DOPC   GL1 9579   2.412  32.141  16.176 -0.1656  0.1302  0.0786
  817DOPC   GL2 9580   2.162  32.165  16.059  0.1613  0.0871 -0.0714
  817DOPC   C1A 9581   2.443  32.016  15.711  0.2981 -0.0363  0.0780
  817DOPC   D2A 9582   2.701  32.183  15.339 -0.0754  0.1898  0.2610
  817DOPC   C3A 9583   2.600  32.435  14.944 -0.1892  0.1837 -0.0845
  817DOPC   C4A 9584   2.376  32.761  14.731 -0.4822 -0.1610 -0.2135
  817DOPC   C1B 9585   1.955  32.247  15.668 -0.1840 -0.0877 -0.0697
  817DOPC   D2B 9586   1.682  32.347  15.340  0.0980  0.1794  0.1066
  817DOPC   C3B 9587   1.959  32.382  14.916  0.0655 -0.3559 -0.2577
  817DOPC   C4B 9588   1.983  32.280  14.465 -0.1140 -0.0541  0.1620
  818DOPC   NC3 9589   9.397  27.109  16.054 -0.1081 -0.2134 -0.1338
  818DOPC   PO4 9590   9.701  26.849  16.001 -0.0067  0.2411  0.1042
  818DOPC   GL1 9591   9.528  26.900  15.625 -0.0349  0.1174  0.1032
  818DOPC   GL2 9592   9.732  26.655  15.544 -0.1472 -0.0242  0.0310
  818DOPC   C1A 9593   9.281  26.790  15.255 -0.5032  0.1152 -0.1249
  818DOPC   D2A 9594   8.967  26.846  14.920  0.0491 -0.1586  0.1899
  818DOPC   C3A 9595   8.810  27.182  14.651 -0.0878 -0.0011  0.0169
  818DOPC   C4A 9596   8.817  27.499  14.255  0.1053 -0.3659  0.0999
  818DOPC   C1B 9597   9.653  26.485  15.128  0.1451  0.0457 -0.0530
  818DOPC   D2B 9598   9.580  26.322  14.719  0.1362  0.0978  0.0855
  818DOPC   C3B 9599   9.402  26.510  14.337 -0.1235  0.0656  0.0254
  818DOPC   C4B 9600   9.454  26.870  14.000  0.0959  0.0879  0.1546
  819DOPE   NH3 9601   9.573  32.744  15.043  0.1447  0.2016  0.1172
  819DOPE   PO4 9602   9.295  32.682  15.010  0.0180  0.1701 -0.3760
  819DOPE   GL1 9603   9.244  32.729  14.599  0.0350  0.1352 -0.1374
  819DOPE   GL2 9604   8.999  32.943  14.556  0.0048 -0.1461 -0.1734
  819DOPE   C1A 9605   9.365  32.438  14.278 -0.0648 -0.0720  0.0102
  819DOPE   D2A 9606   9.720  32.390  13.951 -0.5025 -0.0216 -0.0827
  819DOPE   C3A 9607   9.769  32.551  13.503 -0.1209  0.3598  0.1167
  819DOPE   C4A 9608   9.722  32.794  13.076 -0.2745 -0.0223  0.1365
  819DOPE   C1B 9609   8.869  33.263  14.218  0.0007  0.2204 -0.0636
  819DOPE   D2B 9610   8.676  33.510  13.874  0.3011 -0.0468 -0.1662
  819DOPE   C3B 9611   8.766  33.362  13.462  0.0256 -0.0847 -0.2980
  819DOPE   C4B 9612   8.815  33.117  13.104 -0.2115  0.0188 -0.1673
  820DOPE   NH3 9613   1.197  31.774  16.715 -0.1852  0.0221 -0.0343
  820DOPE   PO4 9614   1.026  31.945  16.526 -0.1630 -0.2446  0.3777
  820DOPE   GL1 9615   1.194  32.200  16.272 -0.0404 -0.0559  0.0052
  820DOPE   GL2 9616   0.995  32.309  16.096  0.2408 -0.0190  0.0406
  820DOPE   C1A 9617   1.344  32.646  16.389 -0.0905  0.0635  0.1523
  820DOPE   D2A 9618   1.562  32.952  16.087  0.0763  0.1982  0.0635
  820DOPE   C3A 9619   1.315  33.228  15.716  0.1532  0.1104 -0.2948
  820DOPE   C4A 9620   1.463  33.486  15.317  0.0007  0.4381 -0.0382
  820DOPE   C1B 9621   0.773  32.362  15.636  0.0999 -0.0373  0.0934
  820DOPE   D2B 9622   0.542  32.390  15.239 -0.1467  0.3465  0.3658
  820DOPE   C3B 9623   0.757  32.170  14.928  0.3050  0.2372 -0.0132
  820DOPE   C4B 9624   0.823  32.244  14.459  0.0170  0.1509 -0.1426
  821DOPC   NC3 9625   8.741  34.244  15.277  0.2971 -0.1255 -0.1108
  821DOPC   PO4 9626   9.083  34.086  15.331  0.0615  0.0517  0.0457
  821DOPC   GL1 9627   9.069  34.260  15.002 -0.2230 -0.0027  0.1923
  821DOPC   GL2 9628   8.924  34.126  14.797 -0.0550 -0.1764  0.0594
  821DOPC   C1A 9629   9.359  34.583  14.810  0.2515 -0.0252 -0.1260
  821DOPC   D2A 9630   9.794  34.643  14.638  0.3574  0.0928  0.0908
  821DOPC   C3A 9631   9.781  34.937  14.292 -0.1724 -0.1552 -0.3135
  821DOPC   C4A 9632  10.027  35.181  14.065 -0.0928  0.1691 -0.1206
  821DOPC   C1B 9633   8.869  34.004  14.359 -0.7858  0.1463 -0.3660
  821DOPC   D2B 9634   8.809  34.012  13.860  0.0951  0.1655 -0.0991
  821DOPC   C3B 9635   8.892  34.422  13.731  0.0967  0.2999 -0.0150
  821DOPC   C4B 9636   8.694  34.828  13.540  0.1143 -0.0143  0.0382
  822DOPC   NC3 9637  10.296  32.875  15.983 -0.0767  0.0143 -0.1687
  822DOPC   PO4 9638  10.516  32.541  15.954 -0.4862  0.2153 -0.2702
  822DOPC   GL1 9639  10.492  32.541  15.574 -0.4368 -0.2576  0.1208
  822DOPC   GL2 9640  10.382  32.728  15.343 -0.1747  0.1938  0.0430
  822DOPC   C1A 9641  10.811  32.355  15.275  0.2077 -0.3126  0.0143
  822DOPC   D2A 9642  10.742  32.461  14.804  0.0993 -0.3226 -0.1831
  822DOPC   C3A 9643  10.939  32.852  14.615 -0.0520  0.2706  0.1436
  822DOPC   C4A 9644  11.074  33.251  14.671 -0.0395  0.0917  0.1852
  822DOPC   C1B 9645  10.254  32.789  14.896 -0.1686  0.0296 -0.1144
  822DOPC   D2B 9646  10.218  33.187  14.621 -0.2165 -0.2204 -0.2380
  822DOPC   C3B 9647  10.057  33.138  14.216  0.0896  0.3273 -0.1364
  822DOPC   C4B 9648   9.918  32.884  13.855 -0.0722  0.0584 -0.2441
  823POSM   NC3 9649   3.526  25.913  15.913  0.1148 -0.3646  0.1903
  823POSM   PO4 9650   3.921  25.937  15.973  0.2125 -0.0402  0.2116
  823POSM   AM1 9651   3.972  26.121  15.737  0.4033 -0.3464 -0.0116
  823POSM   AM2 9652   3.757  26.178  15.530  0.4004 -0.1678  0.0574
  823POSM   T1A 9653   3.907  26.649  15.673 -0.4129 -0.0132 -0.0199
  823POSM   C2A 9654   3.608  26.924  15.486 -0.0420 -0.1723  0.0052
  823POSM   C3A 9655   3.194  27.112  15.612  0.2925  0.2911 -0.0604
  823POSM   C1B 9656   3.576  26.234  15.208 -0.0268  0.1090  0.0250
  823POSM   D2B 9657   3.500  25.892  14.867 -0.2314  0.4224  0.0360
  823POSM   C3B 9658   3.838  25.725  14.655 -0.2484  0.0898  0.1970
  823POSM   C4B 9659   4.327  25.659  14.487 -0.2599 -0.0605 -0.4186
  824DOPS   CNO 9660   8.167  32.597  15.492 -0.1984  0.1453 -0.4192
  824DOPS   PO4 9661   7.935  32.604  15.170  0.0541  0.2364  0.0398
  824DOPS   GL1 9662   8.013  32.751  14.700  0.0747 -0.1830  0.0185
  824DOPS   GL2 9663   8.256  32.570  14.660 -0.0757 -0.3702 -0.0160
  824DOPS   C1A 9664   8.084  32.778  14.201 -0.2111  0.1463 -0.2424
  824DOPS   D2A 9665   7.964  33.082  13.834 -0.1724 -0.0050  0.2521
  824DOPS   C3A 9666   8.148  33.390  13.614  0.0083 -0.0273 -0.0868
  824DOPS   C4A 9667   8.342  33.834  13.640 -0.0416  0.1619  0.2469
  824DOPS   C1B 9668   8.274  32.286  14.223  0.3946 -0.0288 -0.0006
  824DOPS   D2B 9669   8.149  32.098  13.822 -0.2064  0.2081  0.2326
  824DOPS   C3B 9670   8.321  31.764  13.701 -0.1684 -0.1454  0.1753
  824DOPS   C4B 9671   8.318  31.311  13.933  0.1652 -0.1600 -0.2916
  825DOPC   NC3 9672   5.397  25.885  16.269  0.1374  0.0112  0.0991
  825DOPC   PO4 9673   5.789  25.909  16.357 -0.1633  0.0028 -0.3552
  825DOPC   GL1 9674   5.823  26.099  16.081 -0.0163 -0.1998 -0.0199
  825DOPC   GL2 9675   5.694  26.057  15.861 -0.0568  0.1912 -0.0558
  825DOPC   C1A 9676   6.133  26.218  15.753  0.2170  0.0310 -0.1624
  825DOPC   D2A 9677   6.199  26.412  15.312 -0.0081  0.2507  0.0046
  825DOPC   C3A 9678   6.036  26.156  14.950 -0.0607  0.0093 -0.0923
  825DOPC   C4A 9679   5.913  25.702  14.852 -0.0896 -0.0876  0.0592
  825DOPC   C1B 9680   5.297  26.193  15.648 -0.0208 -0.0554  0.4569
  825DOPC   D2B 9681   4.880  25.964  15.497 -0.0693  0.2078  0.0954
  825DOPC   C3B 9682   4.682  25.709  15.803  0.0828  0.1976 -0.0659
  825DOPC   C4B 9683   4.420  25.508  16.062 -0.0050 -0.0076  0.1449
  826DOPE   NH3 9684   2.919  27.722  16.369 -0.1876 -0.0615  0.3576
  826DOPE   PO4 9685   3.042  28.023  16.415  0.0914  0.0968  0.1182
  826DOPE   GL1 9686   2.947  28.048  15.978  0.0742  0.3689 -0.1919
  826DOPE   GL2 9687   3.176  28.145  15.882 -0.0144 -0.0265  0.2528
  826DOPE   C1A 9688   2.724  28.387  15.755 -0.2603  0.1847 -0.0027
  826DOPE   D2A 9689   2.469  28.500  15.326  0.1810  0.0956 -0.2263
  826DOPE   C3A 9690   2.448  28.287  14.905 -0.1831 -0.1269 -0.3340
  826DOPE   C4A 9691   2.410  28.100  14.486 -0.1445 -0.2220 -0.2562
  826DOPE   C1B 9692   3.180  28.655  15.787  0.0151 -0.2819  0.0299
  826DOPE   D2B 9693   2.994  28.855  15.414 -0.1775  0.2104 -0.0383
  826DOPE   C3B 9694   2.861  28.865  14.954 -0.2217 -0.1894  0.2379
  826DOPE   C4B 9695   2.731  29.050  14.531 -0.0773  0.1283  0.0827
  827POSM   NC3 9696   8.784  32.613  14.909 -0.0153 -0.3685  0.3546
  827POSM   PO4 9697   8.920  32.281  15.086  0.1110 -0.0164 -0.0976
  827POSM   AM1 9698   8.765  32.155  14.804  0.2592  0.0323 -0.0014
  827POSM   AM2 9699   8.597  32.201  14.606  0.2419 -0.3015 -0.1263
  827POSM   T1A 9700   8.780  31.681  14.684 -0.1732 -0.0405  0.4983
  827POSM   C2A 9701   8.976  31.413  14.356  0.0604  0.0695 -0.1724
  827POSM   C3A 9702   9.290  31.065  14.286 -0.2586 -0.2081 -0.0290
  827POSM   C1B 9703   8.766  32.369  14.397  0.0726 -0.1548  0.1676
  827POSM   D2B 9704   8.926  32.591  14.048  0.0221 -0.0364  0.0281
  827POSM   C3B 9705   9.209  32.324  13.784  0.3258  0.0905  0.1139
  827POSM   C4B 9706   9.513  32.038  13.576  0.1452  0.2313  0.0007
  828DOPS   CNO 9707   6.858  33.336  15.860 -0.2204 -0.2540  0.1863
  828DOPS   PO4 9708   6.957  33.587  15.605  0.0246  0.1826 -0.1224
  828DOPS   GL1 9709   6.625  33.749  15.382  0.4823  0.2760  0.0379
  828DOPS   GL2 9710   6.810  33.833  15.148  0.2797  0.2303 -0.0590
  828DOPS   C1A 9711   6.379  34.066  15.116 -0.1070  0.0484  0.0013
  828DOPS   D2A 9712   6.289  34.044  14.662 -0.0975 -0.0308 -0.0909
  828DOPS   C3A 9713   6.274  33.684  14.318  0.0628  0.0429 -0.0870
  828DOPS   C4A 9714   6.162  33.488  13.855  0.3179  0.1523 -0.0221
  828DOPS   C1B 9715   6.452  33.628  14.968  0.0326 -0.1868  0.3247
  828DOPS   D2B 9716   5.991  33.657  14.824  0.2506  0.1059  0.3281
  828DOPS   C3B 9717   5.773  33.825  14.413 -0.0009  0.0621 -0.2587
  828DOPS   C4B 9718   5.375  33.775  14.236  0.0048 -0.0410  0.0169
  829DOPC   NC3 9719  10.113  26.500  15.843  0.1534 -0.0344  0.1673
  829DOPC   PO4 9720  10.465  26.357  15.790 -0.1234 -0.0138  0.0101
  829DOPC   GL1 9721  10.340  26.279  15.390 -0.3081 -0.1379 -0.5726
  829DOPC   GL2 9722  10.136  26.359  15.388 -0.1137  0.0633 -0.1952
  829DOPC   C1A 9723  10.738  26.162  15.202  0.0711  0.0656  0.0284
  829DOPC   D2A 9724  10.881  25.759  15.204  0.5175  0.2136  0.5059
  829DOPC   C3A 9725  10.564  25.386  15.129 -0.1659  0.1581  0.0144
  829DOPC   C4A 9726  10.297  25.162  14.843  0.0124 -0.2267  0.2257
  829DOPC   C1B 9727  10.114  26.252  14.951 -0.1322  0.0123  0.3017
  829DOPC   D2B 9728   9.840  25.913  14.720  0.2575  0.1742 -0.0608
  829DOPC   C3B 9729   9.980  25.470  14.699 -0.1373 -0.1199 -0.0725
  829DOPC   C4B 9730  10.057  25.159  14.347 -0.2129  0.1988  0.0001
  830DOPE   NH3 9731   6.908  28.831  16.360  0.0393  0.0686 -0.2309
  830DOPE   PO4 9732   6.977  28.508  16.252 -0.0867  0.3954 -0.3112
  830DOPE   GL1 9733   6.630  28.558  16.050 -0.2374 -0.5027 -0.0949
  830DOPE   GL2 9734   6.666  28.676  15.833  0.0409  0.0159 -0.0096
  830DOPE   C1A 9735   6.235  28.383  16.220 -0.2348 -0.0528 -0.2543
  830DOPE   D2A 9736   6.053  28.002  16.266  0.0404 -0.1439 -0.1332
  830DOPE   C3A 9737   6.033  27.596  16.156 -0.0301  0.1865  0.1442
  830DOPE   C4A 9738   5.856  27.234  15.993 -0.0487  0.2557  0.1940
  830DOPE   C1B 9739   6.342  28.444  15.586 -0.1721  0.1423 -0.1835
  830DOPE   D2B 9740   6.066  28.717  15.450  0.4540  0.0218  0.3544
  830DOPE   C3B 9741   5.844  28.590  15.075  0.0766  0.1761  0.2150
  830DOPE   C4B 9742   5.939  28.381  14.678 -0.0968 -0.0404  0.2125
  831DOPE   NH3 9743   5.194  28.386  16.397 -0.1922  0.1916 -0.2518
  831DOPE   PO4 9744   5.385  28.620  16.319 -0.1879 -0.2352  0.3987
  831DOPE   GL1 9745   5.350  28.576  15.884 -0.2412  0.2717 -0.1718
  831DOPE   GL2 9746   5.158  28.799  15.816 -0.0793  0.1800 -0.1811
  831DOPE   C1A 9747   5.076  28.325  15.630 -0.2174  0.0762  0.0562
  831DOPE   D2A 9748   4.863  28.371  15.209  0.2791 -0.1675  0.0650
  831DOPE   C3A 9749   4.744  28.087  14.834 -0.2547  0.2734  0.1917
  831DOPE   C4A 9750   4.946  28.018  14.450  0.0575  0.0152 -0.0686
  831DOPE   C1B 9751   5.193  28.709  15.337 -0.0039  0.2212  0.2833
  831DOPE   D2B 9752   5.229  28.566  14.911 -0.0430 -0.2449  0.2192
  831DOPE   C3B 9753   5.051  28.579  14.487 -0.0095  0.2950  0.3494
  831DOPE   C4B 9754   4.724  28.696  14.169 -0.0207  0.0393  0.0717
  832DOPC   NC3 9755   7.837  33.829  15.395  0.0108  0.0597 -0.2634
  832DOPC   PO4 9756   8.128  33.566  15.315  0.1877 -0.0477 -0.5156
  832DOPC   GL1 9757   8.143  33.696  14.961  0.1061 -0.2173 -0.0213
  832DOPC   GL2 9758   8.404  33.671  14.863  0.3215 -0.1653  0.3654
  832DOPC   C1A 9759   8.002  33.657  14.521  0.0326  0.0940  0.2223
  832DOPC   D2A 9760   7.588  33.517  14.234 -0.1284 -0.2414 -0.2094
  832DOPC   C3A 9761   7.286  33.492  13.917 -0.1107  0.1459 -0.1000
  832DOPC   C4A 9762   7.086  33.650  13.508  0.0080  0.0072 -0.0831
  832DOPC   C1B 9763   8.366  34.140  14.852  0.1921 -0.2125 -0.0111
  832DOPC   D2B 9764   8.380  34.577  14.952 -0.2014  0.1220  0.4789
  832DOPC   C3B 9765   8.347  34.671  14.538 -0.1059  0.0416  0.1784
  832DOPC   C4B 9766   8.512  34.984  14.219  0.3635 -0.0309  0.3963
  833POSM   NC3 9767   9.796  30.234  15.974 -0.3226  0.0123 -0.3860
  833POSM   PO4 9768   9.414  30.135  15.870 -0.1107 -0.0149  0.0068
  833POSM   AM1 9769   9.352  29.964  15.600  0.2802 -0.0726  0.3050
  833POSM   AM2 9770   9.429  29.743  15.417  0.0445  0.0911 -0.2823
  833POSM   T1A 9771   8.970  30.015  15.313 -0.0258 -0.3373 -0.2786
  833POSM   C2A 9772   8.607  30.107  15.102 -0.1468  0.1072  0.1452
  833POSM   C3A 9773   8.306  30.188  14.805 -0.0020  0.4641 -0.0241
  833POSM   C1B 9774   9.536  29.486  15.292 -0.1573  0.0171 -0.1811
  833POSM   D2B 9775   9.887  29.438  14.984  0.0268  0.3358  0.0388
  833POSM   C3B 9776   9.733  29.533  14.529 -0.0336  0.0243 -0.1565
  833POSM   C4B 9777   9.663  29.706  14.087 -0.0368  0.3709  0.1068
  834DOPE   NH3 9778  34.617  32.347  16.194  0.4543  0.1136 -0.2110
  834DOPE   PO4 9779  34.710  32.556  16.423  0.1782 -0.2169 -0.1853
  834DOPE   GL1 9780  35.001  32.836  16.202  0.5010  0.0540 -0.0506
  834DOPE   GL2 9781  34.898  32.957  15.947 -0.0218  0.2449  0.1259
  834DOPE   C1A 9782  35.415  32.684  16.002  0.1677  0.1413  0.0010
  834DOPE   D2A 9783  35.867  32.790  15.932 -0.0907 -0.1978 -0.1900
  834DOPE   C3A 9784  36.133  32.747  15.575 -0.3915  0.0133 -0.0694
  834DOPE   C4A 9785  36.285  32.783  15.086 -0.0494 -0.1824 -0.0592
  834DOPE   C1B 9786  34.777  33.227  15.634  0.2295  0.0811 -0.0836
  834DOPE   D2B 9787  34.721  33.528  15.255  0.1221  0.0654 -0.0335
  834DOPE   C3B 9788  34.737  33.342  14.838  0.0209 -0.2428  0.0140
  834DOPE   C4B 9789  34.861  33.588  14.479  0.1691 -0.1477  0.2309
  835DOPS   CNO 9790   4.478  24.450  16.331  0.0905 -0.2864 -0.1987
  835DOPS   PO4 9791   4.758  24.589  16.074  0.0368  0.4621 -0.0087
  835DOPS   GL1 9792   4.732  24.899  15.802 -0.0672 -0.0617 -0.3705
  835DOPS   GL2 9793   4.663  25.201  15.768 -0.3587 -0.3212 -0.0421
  835DOPS   C1A 9794   4.511  24.845  15.353  0.2881 -0.1993 -0.0479
  835DOPS   D2A 9795   4.545  25.045  14.930 -0.1974  0.0087  0.0013
  835DOPS   C3A 9796   4.347  24.791  14.613  0.0903  0.1894 -0.2055
  835DOPS   C4A 9797   4.302  24.485  14.322 -0.2446 -0.2516  0.1063
  835DOPS   C1B 9798   4.628  25.380  15.340 -0.0931 -0.1890 -0.2345
  835DOPS   D2B 9799   4.553  25.807  15.181  0.1065 -0.0976  0.1893
  835DOPS   C3B 9800   4.351  26.026  14.796 -0.0765  0.2706 -0.3417
  835DOPS   C4B 9801   4.228  26.234  14.409 -0.1160 -0.2674  0.1227
  836POSM   NC3 9802   7.900  31.166  16.067  0.0897  0.3046  0.1744
  836POSM   PO4 9803   7.560  31.037  15.891 -0.0934  0.1637  0.0548
  836POSM   AM1 9804   7.438  31.155  15.579 -0.3984  0.1195  0.0760
  836POSM   AM2 9805   7.561  31.234  15.294 -0.0307  0.2682  0.1262
  836POSM   T1A 9806   6.989  31.219  15.385 -0.1095 -0.1225  0.0448
  836POSM   C2A 9807   6.799  30.832  15.280 -0.0758  0.4085  0.2516
  836POSM   C3A 9808   7.061  30.430  15.300 -0.0448 -0.3362 -0.1089
  836POSM   C1B 9809   7.349  31.386  15.116  0.1021 -0.2843 -0.4405
  836POSM   D2B 9810   7.051  31.378  14.750 -0.2132 -0.0096 -0.0832
  836POSM   C3B 9811   6.635  31.387  14.932 -0.1301  0.1695  0.0426
  836POSM   C4B 9812   6.238  31.588  15.118  0.3755  0.1072  0.0678
  837POSM   NC3 9813   4.544  31.071  16.032 -0.0513 -0.1965 -0.0890
  837POSM   PO4 9814   4.898  31.280  16.061  0.0045 -0.0314 -0.2273
  837POSM   AM1 9815   4.851  31.417  15.756  0.0099  0.0677 -0.4290
  837POSM   AM2 9816   4.964  31.424  15.508 -0.2749  0.1313  0.0893
  837POSM   T1A 9817   4.556  31.757  15.503  0.3952 -0.1053 -0.2130
  837POSM   C2A 9818   4.277  31.620  15.145 -0.4322 -0.0211 -0.0779
  837POSM   C3A 9819   4.109  31.451  14.770 -0.2789  0.0904  0.0025
  837POSM   C1B 9820   4.887  31.451  15.235 -0.0272 -0.1906  0.0295
  837POSM   D2B 9821   4.762  31.480  14.797 -0.1218 -0.0572 -0.0077
  837POSM   C3B 9822   4.929  31.475  14.426 -0.0688 -0.0320 -0.3134
  837POSM   C4B 9823   4.962  31.700  14.024  0.0111  0.2214  0.1121
  838DOPC   NC3 9824   2.496  23.754  16.287 -0.1412  0.1918 -0.0884
  838DOPC   PO4 9825   2.447  24.112  16.193 -0.2160 -0.1323 -0.0348
  838DOPC   GL1 9826   2.642  23.977  15.889 -0.0422 -0.2126  0.0534
  838DOPC   GL2 9827   2.886  24.209  15.743 -0.0218 -0.0336  0.1937
  838DOPC   C1A 9828   2.324  24.096  15.555 -0.0238  0.0275 -0.2487
  838DOPC   D2A 9829   2.425  24.182  15.098 -0.1048 -0.2210  0.2618
  838DOPC   C3A 9830   2.344  23.892  14.688 -0.3541  0.2352  0.0442
  838DOPC   C4A 9831   2.278  24.148  14.273 -0.0563  0.1818  0.2420
  838DOPC   C1B 9832   2.995  24.084  15.272  0.0475  0.3090  0.0887
  838DOPC   D2B 9833   3.268  23.992  14.890 -0.0006 -0.0942  0.0418
  838DOPC   C3B 9834   3.208  23.531  14.829 -0.1386  0.1912 -0.1968
  838DOPC   C4B 9835   3.552  23.287  14.835 -0.0154 -0.3355 -0.1670
  839DOPS   CNO 9836   6.980  27.250  16.322 -0.2355  0.0606  0.0514
  839DOPS   PO4 9837   7.101  27.591  16.435  0.0583 -0.0611 -0.1125
  839DOPS   GL1 9838   7.390  27.260  16.305 -0.0535  0.1715 -0.0233
  839DOPS   GL2 9839   7.521  27.356  16.102 -0.0216 -0.0222  0.0172
  839DOPS   C1A 9840   7.229  27.008  15.894  0.3998 -0.3221 -0.0041
  839DOPS   D2A 9841   7.354  26.980  15.412 -0.0106 -0.0825  0.2980
  839DOPS   C3A 9842   7.313  26.855  14.945 -0.0216  0.0755 -0.0441
  839DOPS   C4A 9843   7.441  27.095  14.548  0.0998 -0.1035  0.0515
  839DOPS   C1B 9844   7.276  27.634  15.810 -0.1910  0.0155 -0.0663
  839DOPS   D2B 9845   7.540  27.911  15.508  0.3050  0.0783  0.3272
  839DOPS   C3B 9846   7.822  27.798  15.200  0.0404  0.2670 -0.2748
  839DOPS   C4B 9847   8.307  27.852  15.188  0.0819 -0.2032  0.0672
  840DOPE   NH3 9848   8.955  33.116  15.118  0.0699  0.1224 -0.1142
  840DOPE   PO4 9849   9.227  33.183  14.934 -0.1329  0.1520  0.1095
  840DOPE   GL1 9850   9.377  33.514  14.751  0.1645  0.3980  0.2319
  840DOPE   GL2 9851   9.218  33.427  14.474  0.0816 -0.1374 -0.1313
  840DOPE   C1A 9852   9.804  33.759  14.687  0.1454 -0.2540  0.0563
  840DOPE   D2A 9853  10.097  34.131  14.582  0.1198  0.0261 -0.0083
  840DOPE   C3A 9854   9.966  34.413  14.253  0.0712 -0.1170  0.0493
  840DOPE   C4A 9855   9.881  34.574  13.887  0.2116 -0.1289 -0.1739
  840DOPE   C1B 9856   9.186  33.682  14.042 -0.0450  0.2817 -0.0755
  840DOPE   D2B 9857   9.269  33.668  13.592 -0.1872  0.3392 -0.1035
  840DOPE   C3B 9858   9.240  34.130  13.516 -0.2976  0.1502 -0.1705
  840DOPE   C4B 9859   9.413  34.530  13.718  0.2803  0.2800 -0.3108
  841POSM   NC3 9860   9.899  29.033  15.546  0.0432  0.4012 -0.0594
  841POSM   PO4 9861  10.137  29.184  15.830 -0.0668 -0.4331 -0.1500
  841POSM   AM1 9862  10.271  29.365  15.565  0.2032 -0.1924 -0.0587
  841POSM   AM2 9863  10.341  29.611  15.450 -0.2103  0.3685 -0.0391
  841POSM   T1A 9864  10.333  29.155  15.159 -0.2143 -0.1777 -0.3373
  841POSM   C2A 9865  10.054  29.008  14.767 -0.2422  0.2059 -0.1212
  841POSM   C3A 9866   9.978  29.128  14.311 -0.1341 -0.0627 -0.1047
  841POSM   C1B 9867  10.444  29.692  15.096 -0.2475 -0.2183  0.3556
  841POSM   D2B 9868  10.327  29.438  14.704  0.1753  0.3986  0.3236
  841POSM   C3B 9869  10.158  29.710  14.332  0.0603  0.0587  0.1329
  841POSM   C4B 9870  10.253  29.932  13.991 -0.0261 -0.2566 -0.0010
  842POSM   NC3 9871  11.724  25.115  16.359 -0.0942 -0.0563  0.2093
  842POSM   PO4 9872  11.395  25.085  16.175 -0.0082 -0.0569  0.0288
  842POSM   AM1 9873  11.269  25.043  15.870  0.2682  0.1140  0.2664
  842POSM   AM2 9874  10.978  25.040  15.777 -0.2951  0.2382 -0.0981
  842POSM   T1A 9875  11.362  24.926  15.378  0.1419  0.0301 -0.0189
  842POSM   C2A 9876  11.533  25.045  14.914  0.1258  0.1657 -0.2558
  842POSM   C3A 9877  11.925  25.031  14.648  0.1009 -0.1223  0.0375
  842POSM   C1B 9878  10.934  25.124  15.436  0.0878 -0.0976  0.3222
  842POSM   D2B 9879  11.001  25.142  14.993 -0.0718 -0.1657 -0.0871
  842POSM   C3B 9880  10.841  25.435  14.681  0.0351 -0.1171 -0.1468
  842POSM   C4B 9881  10.484  25.375  14.361 -0.3951 -0.0538 -0.0617
  843DOPC   NC3 9882   2.106  31.914  16.885  0.0878  0.2816  0.0455
  843DOPC   PO4 9883   1.848  31.719  16.656  0.1565  0.1058 -0.4010
  843DOPC   GL1 9884   1.579  31.572  16.329  0.0561 -0.1295 -0.3618
  843DOPC   GL2 9885   1.467  31.837  16.279  0.2364 -0.3247 -0.2386
  843DOPC   C1A 9886   1.370  31.446  15.935  0.1985  0.1500  0.0077
  843DOPC   D2A 9887   1.167  31.488  15.529 -0.0189 -0.1210 -0.0376
  843DOPC   C3A 9888   0.930  31.090  15.396  0.1797 -0.0476  0.1992
  843DOPC   C4A 9889   0.760  30.838  15.021  0.0375  0.6517  0.2225
  843DOPC   C1B 9890   1.625  32.277  16.096  0.0350  0.2591 -0.1438
  843DOPC   D2B 9891   1.953  32.596  15.989  0.0297  0.0307 -0.1945
  843DOPC   C3B 9892   2.338  32.550  15.717 -0.0577 -0.0284  0.1622
  843DOPC   C4B 9893   2.697  32.673  15.438  0.1194 -0.0736 -0.1319
  844DOPC   NC3 9894   1.057  25.823  15.994  0.0407  0.0938 -0.0361
  844DOPC   PO4 9895   1.258  25.682  15.706  0.0034  0.3785 -0.0274
  844DOPC   GL1 9896   1.397  25.842  15.336 -0.1841 -0.0886 -0.0963
  844DOPC   GL2 9897   1.476  25.486  15.320 -0.4641  0.0089  0.1496
  844DOPC   C1A 9898   1.320  25.829  14.897 -0.0840 -0.2160 -0.1441
  844DOPC   D2A 9899   1.370  26.007  14.488  0.2567 -0.0882  0.0209
  844DOPC   C3A 9900   0.975  26.250  14.323 -0.0381  0.2245  0.1303
  844DOPC   C4A 9901   0.520  26.302  14.342  0.1612 -0.0499  0.1983
  844DOPC   C1B 9902   1.757  25.256  15.042  0.1948  0.1312  0.0456
  844DOPC   D2B 9903   1.821  24.977  14.722 -0.0125 -0.2054  0.1231
  844DOPC   C3B 9904   1.482  24.971  14.350 -0.2398  0.0935 -0.0603
  844DOPC   C4B 9905   1.372  25.004  13.876  0.0045 -0.0297  0.0794
  845POSM   NC3 9906   6.657  23.618  16.064  0.0015 -0.0347 -0.4736
  845POSM   PO4 9907   6.601  23.914  15.838 -0.1547 -0.0492  0.2770
  845POSM   AM1 9908   6.619  23.807  15.561  0.0964  0.0472  0.0778
  845POSM   AM2 9909   6.818  23.780  15.356 -0.1381 -0.1803 -0.0747
  845POSM   T1A 9910   6.500  23.510  15.129  0.0338  0.2774  0.0422
  845POSM   C2A 9911   6.259  23.128  14.944 -0.1322  0.1055 -0.0362
  845POSM   C3A 9912   6.063  22.740  15.103  0.1753  0.2038  0.1086
  845POSM   C1B 9913   6.820  23.890  15.029 -0.2600  0.2808  0.4788
  845POSM   D2B 9914   7.044  23.958  14.601 -0.3025  0.0315  0.0089
  845POSM   C3B 9915   7.041  24.384  14.473  0.2816 -0.0814 -0.3989
  845POSM   C4B 9916   7.214  24.708  14.248 -0.0627 -0.1073 -0.2917
  846POSM   NC3 9917  11.518  27.749  15.780  0.0015 -0.3270 -0.1962
  846POSM   PO4 9918  11.260  28.042  15.677 -0.2773  0.2210 -0.2621
  846POSM   AM1 9919  11.143  28.189  15.412  0.0509  0.2019  0.1201
  846POSM   AM2 9920  11.130  28.447  15.316  0.0692 -0.0833 -0.2346
  846POSM   T1A 9921  10.967  28.038  14.973 -0.0134  0.3553 -0.1034
  846POSM   C2A 9922  10.804  28.130  14.627  0.0801 -0.0583 -0.0063
  846POSM   C3A 9923  10.716  27.974  14.231 -0.2804 -0.0162  0.0394
  846POSM   C1B 9924  11.309  28.424  15.027 -0.0240  0.0664 -0.2396
  846POSM   D2B 9925  11.568  28.720  14.769  0.1710  0.0267 -0.2120
  846POSM   C3B 9926  11.670  28.543  14.338  0.0809  0.0960  0.0143
  846POSM   C4B 9927  11.596  28.446  13.871 -0.3890 -0.1579  0.0422
  847DOPE   NH3 9928  10.352  33.684  15.736 -0.0787  0.0638 -0.0848
  847DOPE   PO4 9929  10.094  33.882  15.698 -0.3301  0.0592 -0.0491
  847DOPE   GL1 9930  10.342  34.052  15.428 -0.1089  0.0640  0.1846
  847DOPE   GL2 9931  10.436  33.791  15.222 -0.0912 -0.0994  0.2101
  847DOPE   C1A 9932  10.370  34.252  15.021  0.3080  0.1235 -0.1058
  847DOPE   D2A 9933  10.598  34.192  14.674 -0.3148  0.2279  0.0197
  847DOPE   C3A 9934  10.456  34.363  14.281 -0.3054  0.1505  0.0793
  847DOPE   C4A 9935  10.313  34.807  14.179 -0.2545 -0.0041  0.2510
  847DOPE   C1B 9936  10.340  33.734  14.721  0.1332 -0.0310  0.1033
  847DOPE   D2B 9937  10.142  33.675  14.346  0.3926 -0.0590  0.1331
  847DOPE   C3B 9938  10.228  34.003  14.053  0.1046  0.0915  0.1709
  847DOPE   C4B 9939  10.652  34.161  13.865 -0.1205 -0.0563 -0.1205
  848DOPC   NC3 9940   7.040  32.714  15.493  0.1556  0.2648 -0.2000
  848DOPC   PO4 9941   6.738  32.902  15.548  0.1203  0.1516  0.3938
  848DOPC   GL1 9942   6.718  32.810  15.100  0.3087 -0.1310 -0.0660
  848DOPC   GL2 9943   6.989  32.798  14.955  0.0519 -0.1611 -0.1536
  848DOPC   C1A 9944   6.564  33.130  14.770  0.2180  0.0193 -0.2678
  848DOPC   D2A 9945   6.707  33.451  14.479  0.0393 -0.1245 -0.0776
  848DOPC   C3A 9946   6.778  33.537  14.036 -0.0591  0.0944 -0.2726
  848DOPC   C4A 9947   6.624  33.465  13.636  0.2566 -0.1692  0.3903
  848DOPC   C1B 9948   7.269  32.568  14.704  0.0806  0.0448 -0.1279
  848DOPC   D2B 9949   7.621  32.522  14.437 -0.1683 -0.0834 -0.0473
  848DOPC   C3B 9950   7.511  32.163  14.304  0.0134  0.0328  0.0426
  848DOPC   C4B 9951   7.273  31.773  14.388  0.1702  0.0876  0.0721
  849DOPE   NH3 9952   8.399  29.492  16.274 -0.1108  0.2838  0.3298
  849DOPE   PO4 9953   8.212  29.338  16.066 -0.1656 -0.2621  0.0905
  849DOPE   GL1 9954   8.125  29.052  15.880  0.2180 -0.1890 -0.2148
  849DOPE   GL2 9955   8.388  28.976  15.746 -0.4476 -0.0371 -0.0272
  849DOPE   C1A 9956   7.948  29.068  15.470 -0.0790  0.3745  0.0102
  849DOPE   D2A 9957   7.790  29.311  15.138  0.0611 -0.2271  0.2954
  849DOPE   C3A 9958   7.640  29.699  15.210 -0.0435 -0.1014 -0.1199
  849DOPE   C4A 9959   7.327  29.935  14.931 -0.0162 -0.0819 -0.0342
  849DOPE   C1B 9960   8.269  28.849  15.254 -0.1116  0.1903  0.0358
  849DOPE   D2B 9961   8.123  28.809  14.843  0.0800  0.1898 -0.1803
  849DOPE   C3B 9962   8.148  28.437  14.555 -0.1336  0.1846  0.0639
  849DOPE   C4B 9963   8.181  28.101  14.202  0.1171 -0.3152  0.1276
  850DOPE   NH3 9964  10.546  27.002  15.577 -0.1703  0.1400 -0.0663
  850DOPE   PO4 9965  10.246  26.938  15.554 -0.2298  0.1319 -0.2213
  850DOPE   GL1 9966  10.166  26.902  15.180 -0.1585  0.0008 -0.1187
  850DOPE   GL2 9967  10.409  26.751  15.116  0.0718  0.1476 -0.0852
  850DOPE   C1A 9968   9.956  26.759  14.817 -0.0310  0.1064 -0.0503
  850DOPE   D2A 9969  10.066  26.428  14.494 -0.0143  0.1369  0.1154
  850DOPE   C3A 9970   9.968  26.100  14.180 -0.0953 -0.1433  0.1992
  850DOPE   C4A 9971   9.750  26.022  13.754  0.1426 -0.1180  0.0706
  850DOPE   C1B 9972  10.446  26.783  14.631 -0.2565  0.1379  0.0402
  850DOPE   D2B 9973  10.236  27.018  14.307  0.0102  0.2143 -0.0663
  850DOPE   C3B 9974   9.910  27.002  13.975  0.3259 -0.3267  0.3374
  850DOPE   C4B 9975   9.683  27.193  13.659 -0.1104  0.2492  0.0196
  851DOPE   NH3 9976   7.098  25.923  16.520  0.0557  0.0441 -0.0208
  851DOPE   PO4 9977   7.430  25.897  16.489  0.0644  0.0876 -0.1906
  851DOPE   GL1 9978   7.293  25.895  16.064 -0.1470  0.1175  0.2152
  851DOPE   GL2 9979   7.541  26.068  15.997  0.2794 -0.3385  0.1538
  851DOPE   C1A 9980   7.206  26.045  15.595  0.0531 -0.0649  0.3568
  851DOPE   D2A 9981   7.244  26.151  15.151  0.0053  0.0131 -0.0272
  851DOPE   C3A 9982   7.382  26.109  14.724 -0.0043 -0.4679  0.0591
  851DOPE   C4A 9983   7.510  26.103  14.306 -0.0003  0.0881  0.1784
  851DOPE   C1B 9984   7.657  26.268  15.585  0.2895  0.3320 -0.0035
  851DOPE   D2B 9985   7.548  26.562  15.261 -0.0580  0.1469 -0.3596
  851DOPE   C3B 9986   7.692  26.541  14.787 -0.1643 -0.1336  0.1211
  851DOPE   C4B 9987   7.746  26.561  14.333 -0.1523 -0.0839 -0.0120
  852DOPS   CNO 9988   0.808  28.415  16.270 -0.4081  0.2415  0.0804
  852DOPS   PO4 9989   0.911  28.376  15.916  0.0827 -0.0258  0.0002
  852DOPS   GL1 9990   0.822  28.344  15.531 -0.1010 -0.0883 -0.0697
  852DOPS   GL2 9991   0.875  28.095  15.505  0.1745 -0.3070  0.2136
  852DOPS   C1A 9992   1.126  28.450  15.216 -0.2230  0.0995 -0.0696
  852DOPS   D2A 9993   1.339  28.737  14.889 -0.1398 -0.3158  0.1132
  852DOPS   C3A 9994   1.094  28.818  14.500  0.2382  0.4296  0.2491
  852DOPS   C4A 9995   1.198  28.805  14.006  0.4536 -0.1116  0.2794
  852DOPS   C1B 9996   0.815  28.131  15.051  0.0444  0.1147  0.2019
  852DOPS   D2B 9997   0.934  28.252  14.636  0.2090 -0.1350 -0.1154
  852DOPS   C3B 9998   0.750  28.612  14.835  0.2488 -0.1752  0.0428
  852DOPS   C4B 9999   0.948  28.938  15.083 -0.2010  0.3857 -0.1899
  853DOPE   NH310000   6.460  29.578  16.093  0.1620 -0.2203  0.2316
  853DOPE   PO410001   6.542  29.898  16.210  0.2772 -0.5113  0.1821
  853DOPE   GL110002   6.483  30.157  15.855 -0.1919  0.1401 -0.1781
  853DOPE   GL210003   6.268  29.939  15.752 -0.0306  0.0933  0.1319
  853DOPE   C1A10004   6.497  30.322  15.461 -0.2524  0.0178 -0.1758
  853DOPE   D2A10005   6.549  30.477  15.044  0.0278 -0.1743 -0.2310
  853DOPE   C3A10006   6.879  30.228  14.804 -0.3096 -0.0888  0.3554
  853DOPE   C4A10007   7.094  30.075  14.433  0.0504  0.1595  0.0428
  853DOPE   C1B10008   6.256  29.897  15.290  0.2616 -0.1551  0.2528
  853DOPE   D2B10009   6.099  30.035  14.867  0.1149  0.0644 -0.0245
  853DOPE   C3B10010   6.290  30.383  14.637 -0.0610 -0.0352  0.0037
  853DOPE   C4B10011   6.629  30.480  14.266 -0.3273 -0.3005  0.1258
  854DOPE   NH310012   3.103  29.863  16.644 -0.1783  0.2293 -0.0690
  854DOPE   PO410013   3.369  29.731  16.605  0.0407  0.2375 -0.2269
  854DOPE   GL110014   3.370  29.863  16.219 -0.2507 -0.2463  0.2583
  854DOPE   GL210015   3.483  29.605  16.067  0.0040  0.0172  0.0464
  854DOPE   C1A10016   3.177  29.948  15.782  0.2358  0.0898 -0.1103
  854DOPE   D2A10017   3.000  29.856  15.368 -0.2956 -0.0813  0.0677
  854DOPE   C3A10018   2.994  29.938  14.880  0.1473 -0.0220 -0.1140
  854DOPE   C4A10019   3.343  29.851  14.634 -0.4600 -0.0506  0.1186
  854DOPE   C1B10020   3.488  29.608  15.587  0.0431 -0.0679  0.0203
  854DOPE   D2B10021   3.559  29.683  15.083  0.1402  0.0335 -0.2028
  854DOPE   C3B10022   3.972  29.625  14.924  0.1530 -0.2869 -0.0009
  854DOPE   C4B10023   4.280  29.515  14.635  0.0226  0.0026  0.1980
  855POSM   NC310024   3.721  22.675  15.937  0.2783 -0.0657  0.1314
  855POSM   PO410025   3.680  23.068  15.943 -0.0522 -0.0834 -0.0989
  855POSM   AM110026   3.703  23.093  15.590  0.0004  0.2628 -0.1663
  855POSM   AM210027   3.549  23.287  15.434  0.0955 -0.2339  0.0619
  855POSM   T1A10028   3.924  23.059  15.140 -0.0805  0.3063 -0.1092
  855POSM   C2A10029   4.018  23.288  14.748  0.1370  0.2792 -0.2422
  855POSM   C3A10030   3.791  23.295  14.329  0.2590 -0.2073  0.2639
  855POSM   C1B10031   3.421  23.575  15.283 -0.1079 -0.3504 -0.0753
  855POSM   D2B10032   3.586  24.044  15.312 -0.2812 -0.0525  0.1039
  855POSM   C3B10033   4.025  24.130  15.152  0.1769 -0.0570  0.0527
  855POSM   C4B10034   4.297  24.480  15.003  0.0226 -0.1454 -0.1121
  856POSM   NC310035   4.720  26.864  16.705  0.0866  0.1673 -0.1932
  856POSM   PO410036   4.998  26.969  16.448  0.5483 -0.0515  0.0074
  856POSM   AM110037   4.987  26.914  16.145  0.2034  0.4175 -0.1880
  856POSM   AM210038   5.012  26.678  15.982 -0.0966 -0.0504 -0.0777
  856POSM   T1A10039   4.983  27.128  15.667 -0.1233  0.1701  0.2163
  856POSM   C2A10040   5.007  27.381  15.268  0.2457 -0.1140 -0.0937
  856POSM   C3A10041   4.920  27.460  14.851  0.1200  0.0180  0.3056
  856POSM   C1B10042   4.869  26.577  15.699 -0.0671  0.0813 -0.1885
  856POSM   D2B10043   4.873  26.395  15.264 -0.0318  0.1004 -0.0070
  856POSM   C3B10044   4.557  26.538  14.942 -0.1459  0.4279 -0.1712
  856POSM   C4B10045   4.415  26.720  14.507  0.0597  0.4131  0.0665
  857DOPC   NC310046   6.025  29.241  16.259  0.1230  0.1103  0.0277
  857DOPC   PO410047   6.004  29.381  15.924 -0.0898  0.3768  0.0221
  857DOPC   GL110048   5.915  29.119  15.601  0.0493  0.1194  0.1208
  857DOPC   GL210049   5.852  29.379  15.458 -0.1057  0.6065 -0.1194
  857DOPC   C1A10050   6.170  29.082  15.181 -0.0227 -0.2560  0.0190
  857DOPC   D2A10051   6.095  28.945  14.752  0.2373  0.3883  0.1628
  857DOPC   C3A10052   5.811  29.239  14.517 -0.0109  0.1241 -0.2248
  857DOPC   C4A10053   5.730  29.317  14.072 -0.2532 -0.2776  0.1489
  857DOPC   C1B10054   5.846  29.549  15.048 -0.1325 -0.2893  0.1981
  857DOPC   D2B10055   5.763  29.706  14.616 -0.1144  0.1000  0.1557
  857DOPC   C3B10056   6.065  29.910  14.338 -0.1148 -0.2105 -0.1632
  857DOPC   C4B10057   6.188  30.302  14.158  0.0917 -0.0685 -0.1037
  858DOPC   NC310058   4.475  31.611  15.988  0.0778 -0.0149  0.1443
  858DOPC   PO410059   4.139  31.816  15.966 -0.2114 -0.1239  0.1387
  858DOPC   GL110060   4.110  31.764  15.570 -0.0155 -0.0537  0.3311
  858DOPC   GL210061   4.119  32.016  15.396  0.1274  0.2927  0.4470
  858DOPC   C1A10062   3.811  31.483  15.281 -0.0479  0.1685  0.0416
  858DOPC   D2A10063   3.582  31.397  14.923  0.0873  0.1027  0.2034
  858DOPC   C3A10064   3.781  31.194  14.526 -0.0215 -0.2914 -0.0853
  858DOPC   C4A10065   3.985  31.051  14.151 -0.0110  0.1046 -0.0003
  858DOPC   C1B10066   3.791  31.947  15.065 -0.1748  0.1192  0.2002
  858DOPC   D2B10067   3.774  31.817  14.679 -0.0039  0.6162 -0.1373
  858DOPC   C3B10068   4.075  31.754  14.358  0.2220 -0.3402  0.0577
  858DOPC   C4B10069   4.297  31.404  14.228 -0.0743 -0.0112 -0.0411
  859POSM   NC310070   2.566  33.391  16.265 -0.2134 -0.2023  0.1173
  859POSM   PO410071   2.888  33.198  16.168 -0.3863  0.3948 -0.0077
  859POSM   AM110072   2.945  33.183  15.838  0.3251  0.0392  0.1224
  859POSM   AM210073   3.091  33.313  15.637 -0.1063  0.1176  0.1034
  859POSM   T1A10074   2.760  33.126  15.347 -0.1280 -0.3045 -0.2626
  859POSM   C2A10075   2.892  32.835  14.991  0.3449 -0.0896 -0.0602
  859POSM   C3A10076   2.788  33.016  14.584  0.1312  0.1266  0.1671
  859POSM   C1B10077   3.279  33.389  15.297 -0.0241  0.0654  0.3168
  859POSM   D2B10078   3.333  33.343  14.881 -0.2663 -0.0462  0.1028
  859POSM   C3B10079   2.870  33.354  14.877  0.0157 -0.0128  0.1018
  859POSM   C4B10080   2.439  33.236  14.942 -0.1925 -0.1198 -0.0361
  860DOPC   NC310081   9.380  25.204  16.443 -0.0161 -0.2577  0.0724
  860DOPC   PO410082   9.424  25.268  16.080  0.0293  0.0328 -0.2119
  860DOPC   GL110083   9.365  25.477  15.743  0.3005 -0.1579 -0.1000
  860DOPC   GL210084   9.165  25.715  15.842 -0.0325 -0.0485  0.2600
  860DOPC   C1A10085   8.994  25.409  15.435  0.0236  0.2351 -0.1668
  860DOPC   D2A10086   8.917  25.445  15.001  0.4023  0.1197 -0.1060
  860DOPC   C3A10087   8.953  25.179  14.652 -0.1217  0.1315  0.3687
  860DOPC   C4A10088   9.004  24.938  14.316  0.2840  0.1842  0.0166
  860DOPC   C1B10089   8.796  25.884  15.608  0.2689 -0.1075 -0.0016
  860DOPC   D2B10090   8.778  25.930  15.132 -0.0504 -0.2518 -0.0779
  860DOPC   C3B10091   8.825  26.149  14.659 -0.1364  0.3159 -0.1801
  860DOPC   C4B10092   8.907  26.562  14.502  0.0342 -0.3908 -0.2609
  861POSM   NC310093   0.163  31.716  15.859  0.2553  0.0310 -0.0093
  861POSM   PO410094   0.067  31.391  16.110  0.0417  0.3169 -0.2749
  861POSM   AM110095   0.083  31.274  15.782 -0.0375  0.1597 -0.1161
  861POSM   AM210096  -0.111  31.250  15.518 -0.0250  0.1579 -0.2192
  861POSM   T1A10097   0.376  30.946  15.485  0.1192 -0.4574 -0.2187
  861POSM   C2A10098   0.439  30.536  15.264  0.0635  0.0258  0.2525
  861POSM   C3A10099   0.402  30.190  15.020 -0.2337 -0.2789 -0.0796
  861POSM   C1B10100   0.167  31.419  15.304  0.0449 -0.0302  0.0804
  861POSM   D2B10101   0.603  31.558  15.314 -0.2278 -0.0539 -0.0609
  861POSM   C3B10102   0.943  31.416  15.009  0.2581 -0.2287 -0.1877
  861POSM   C4B10103   1.410  31.461  15.142  0.0832 -0.0288 -0.0626
  862DOPC   NC310104   3.013  27.316  16.039 -0.2147 -0.0777 -0.2170
  862DOPC   PO410105   2.627  27.449  16.022  0.1644  0.1387  0.0403
  862DOPC   GL110106   2.472  27.605  15.616 -0.0194  0.1956  0.0287
  862DOPC   GL210107   2.240  27.677  15.623  0.2263  0.3737 -0.0814
  862DOPC   C1A10108   2.635  27.961  15.403 -0.0048  0.0897  0.1063
  862DOPC   D2A10109   2.947  28.284  15.259  0.0107 -0.4705 -0.1691
  862DOPC   C3A10110   3.344  28.546  15.274 -0.0274 -0.2376  0.2108
  862DOPC   C4A10111   3.759  28.798  15.332  0.1451 -0.0412 -0.1226
  862DOPC   C1B10112   2.320  27.634  15.196 -0.2532  0.0572 -0.1934
  862DOPC   D2B10113   2.463  27.650  14.744 -0.0233  0.0726 -0.1338
  862DOPC   C3B10114   2.857  27.751  14.428  0.0592  0.2564 -0.1687
  862DOPC   C4B10115   3.298  27.775  14.307  0.1168  0.0310  0.1840
  863POSM   NC310116   1.186  34.242  16.364 -0.1194  0.0257 -0.1360
  863POSM   PO410117   1.542  34.396  16.339 -0.1140  0.0878  0.2971
  863POSM   AM110118   1.609  34.364  16.012  0.1790 -0.1237  0.1110
  863POSM   AM210119   1.760  34.216  15.814  0.1182 -0.3379  0.1656
  863POSM   T1A10120   1.341  34.381  15.573  0.0490  0.1291  0.0915
  863POSM   C2A10121   0.997  34.196  15.261  0.1064  0.0322  0.0815
  863POSM   C3A10122   0.555  34.182  15.435 -0.0842 -0.0269  0.3268
  863POSM   C1B10123   1.772  34.100  15.490 -0.0189 -0.0645 -0.0538
  863POSM   D2B10124   1.910  34.142  15.024 -0.0121 -0.1212  0.0111
  863POSM   C3B10125   1.692  33.911  14.755 -0.3690 -0.2434 -0.1961
  863POSM   C4B10126   1.382  33.774  14.410  0.0633 -0.0694 -0.0748
  864DOPE   NH310127   3.688  30.108  16.622  0.0848  0.2493 -0.0091
  864DOPE   PO410128   3.482  30.245  16.420  0.2566  0.2023  0.4678
  864DOPE   GL110129   3.432  30.306  16.072  0.2549  0.0853  0.0866
  864DOPE   GL210130   3.364  30.608  15.991 -0.1360 -0.1095  0.2850
  864DOPE   C1A10131   3.611  30.124  15.651 -0.1045 -0.2129  0.0377
  864DOPE   D2A10132   3.968  30.040  15.392 -0.1633 -0.0047  0.2265
  864DOPE   C3A10133   3.956  30.250  14.984  0.1333  0.2195 -0.2722
  864DOPE   C4A10134   3.641  30.538  14.818 -0.0415  0.0376  0.2504
  864DOPE   C1B10135   3.183  30.453  15.619  0.1562 -0.3587 -0.3756
  864DOPE   D2B10136   3.139  30.726  15.235 -0.2529  0.0866  0.1715
  864DOPE   C3B10137   3.216  30.948  14.820 -0.1078  0.1885 -0.0068
  864DOPE   C4B10138   3.272  31.330  14.508 -0.3560 -0.2564 -0.1743
  865DOPC   NC310139  10.663  25.907  15.685 -0.3008 -0.0537  0.0692
  865DOPC   PO410140  10.432  25.770  15.986  0.0746  0.0019 -0.1230
  865DOPC   GL110141  10.235  25.625  15.702  0.1502  0.4321 -0.1818
  865DOPC   GL210142  10.133  25.909  15.611  0.0366 -0.0207 -0.0924
  865DOPC   C1A10143  10.171  25.296  15.401 -0.0314 -0.0581 -0.0898
  865DOPC   D2A10144   9.865  25.123  15.079  0.1153  0.2473  0.1051
  865DOPC   C3A10145   9.649  24.708  14.987  0.1466  0.0183  0.1588
  865DOPC   C4A10146   9.444  24.311  14.997 -0.0864 -0.1313  0.0051
  865DOPC   C1B10147  10.367  25.848  15.269 -0.1209 -0.0419  0.2711
  865DOPC   D2B10148  10.441  25.711  14.831  0.0950 -0.1910  0.0118
  865DOPC   C3B10149  10.369  25.937  14.478  0.0436  0.2158  0.0399
  865DOPC   C4B10150  10.604  26.282  14.247  0.0904 -0.2347 -0.1242
  866DOPC   NC310151   6.527  24.405  15.989  0.2841  0.3135  0.0486
  866DOPC   PO410152   6.822  24.572  15.846 -0.1348  0.2350  0.0595
  866DOPC   GL110153   6.821  24.604  15.454  0.0647 -0.1802  0.2354
  866DOPC   GL210154   6.953  24.365  15.382 -0.0339  0.1151  0.0270
  866DOPC   C1A10155   7.020  24.793  15.093 -0.3532  0.0508 -0.0462
  866DOPC   D2A10156   7.033  24.957  14.678 -0.0339 -0.0109  0.0880
  866DOPC   C3A10157   6.654  24.993  14.499 -0.0023 -0.0002 -0.0863
  866DOPC   C4A10158   6.366  24.941  14.088  0.1212 -0.1376 -0.1962
  866DOPC   C1B10159   7.138  24.286  14.942 -0.0415 -0.1661 -0.0670
  866DOPC   D2B10160   7.455  23.923  14.852 -0.1241  0.0705  0.1028
  866DOPC   C3B10161   7.427  23.664  14.537 -0.3100  0.0284  0.0530
  866DOPC   C4B10162   7.165  23.450  14.267 -0.1112 -0.0103  0.3029
  867DOPC   NC310163   4.085  27.391  16.402  0.0112 -0.1841 -0.1228
  867DOPC   PO410164   4.001  27.733  16.265  0.1350  0.0391 -0.0276
  867DOPC   GL110165   3.877  27.885  15.969  0.1853  0.0449  0.0240
  867DOPC   GL210166   3.708  27.741  15.805  0.2331  0.0967  0.1348
  867DOPC   C1A10167   4.163  28.129  15.670 -0.1588  0.0119 -0.0116
  867DOPC   D2A10168   4.317  28.435  15.354  0.1614 -0.0753  0.4033
  867DOPC   C3A10169   4.119  28.665  14.985  0.1410  0.1783 -0.0328
  867DOPC   C4A10170   4.348  29.018  14.760 -0.1957 -0.1089  0.0476
  867DOPC   C1B10171   3.836  27.841  15.402 -0.1223  0.0449  0.3421
  867DOPC   D2B10172   3.781  27.826  14.918 -0.0180 -0.1640 -0.0693
  867DOPC   C3B10173   3.335  27.721  14.828  0.1858 -0.1351  0.1292
  867DOPC   C4B10174   2.870  27.888  14.921 -0.1159 -0.3113  0.1856
  868DOPC   NC310175  10.231  30.539  15.585 -0.0775  0.1340  0.0053
  868DOPC   PO410176  10.273  30.869  15.816  0.1188  0.0003 -0.3045
  868DOPC   GL110177  10.516  31.039  15.521 -0.0266 -0.1661 -0.2697
  868DOPC   GL210178  10.389  30.918  15.306 -0.0480 -0.1754  0.0261
  868DOPC   C1A10179  10.498  31.456  15.337  0.1752  0.2774 -0.4020
  868DOPC   D2A10180  10.195  31.738  15.097  0.4108  0.0192 -0.2482
  868DOPC   C3A10181   9.992  31.772  14.636  0.1040 -0.2434 -0.1186
  868DOPC   C4A10182   9.692  31.988  14.394 -0.0446 -0.1651 -0.2451
  868DOPC   C1B10183  10.195  30.784  14.920  0.4430 -0.0443 -0.1183
  868DOPC   D2B10184  10.137  30.567  14.516 -0.0849 -0.0614  0.1946
  868DOPC   C3B10185   9.857  30.249  14.275  0.4358  0.2174 -0.3180
  868DOPC   C4B10186   9.618  30.165  13.942  0.1097  0.0857  0.2707
  869DOPS   CNO10187   6.207  28.829  15.989  0.1921 -0.1861  0.1970
  869DOPS   PO410188   6.443  29.082  16.065  0.2073 -0.1508  0.0316
  869DOPS   GL110189   6.323  29.169  15.708  0.4151  0.0353  0.1410
  869DOPS   GL210190   6.412  29.452  15.643 -0.0858  0.2821  0.1866
  869DOPS   C1A10191   6.590  28.965  15.386 -0.0019  0.0970  0.0225
  869DOPS   D2A10192   6.547  28.848  15.008  0.1762  0.1347 -0.1882
  869DOPS   C3A10193   6.352  28.470  15.059  0.1013 -0.0318  0.0821
  869DOPS   C4A10194   6.346  28.120  14.745 -0.0255  0.0601  0.3875
  869DOPS   C1B10195   6.490  29.496  15.215 -0.2421 -0.0719 -0.2434
  869DOPS   D2B10196   6.399  29.352  14.750 -0.1453 -0.5383  0.1759
  869DOPS   C3B10197   6.387  29.038  14.390 -0.2259  0.0437  0.1893
  869DOPS   C4B10198   6.500  28.748  14.066  0.1631 -0.2385 -0.0513
  870DOPC   NC310199   6.761  27.260  17.178  0.0346 -0.0043  0.2434
  870DOPC   PO410200   6.673  27.142  16.751  0.0152  0.5709 -0.2326
  870DOPC   GL110201   6.419  27.385  16.411  0.1017  0.0517 -0.0492
  870DOPC   GL210202   6.472  27.687  16.373 -0.2853 -0.0622 -0.1510
  870DOPC   C1A10203   6.619  27.443  16.000 -0.1526  0.1757  0.1277
  870DOPC   D2A10204   6.794  27.208  15.632 -0.2293 -0.0385  0.1464
  870DOPC   C3A10205   6.962  27.380  15.206  0.3258  0.0859 -0.0159
  870DOPC   C4A10206   7.106  27.447  14.737 -0.3151  0.0831  0.1300
  870DOPC   C1B10207   6.426  27.903  15.964  0.0212  0.2151  0.1225
  870DOPC   D2B10208   6.387  27.941  15.544  0.1803 -0.2346 -0.0695
  870DOPC   C3B10209   5.962  28.134  15.518  0.0183 -0.2661  0.2540
  870DOPC   C4B10210   5.625  28.421  15.432 -0.2058 -0.0825  0.1270
  871DOPS   CNO10211   8.304  31.338  15.743 -0.0558 -0.1231  0.0639
  871DOPS   PO410212   7.982  31.369  15.558  0.0125 -0.3757  0.3495
  871DOPS   GL110213   8.208  31.279  15.167 -0.0556 -0.1719 -0.1330
  871DOPS   GL210214   7.937  31.355  15.006 -0.5649  0.3770 -0.0109
  871DOPS   C1A10215   8.224  30.927  14.913  0.1315 -0.2537  0.1174
  871DOPS   D2A10216   8.474  30.637  14.653 -0.3415 -0.1472 -0.2860
  871DOPS   C3A10217   8.458  30.660  14.228 -0.3573 -0.0777  0.0054
  871DOPS   C4A10218   8.457  30.709  13.745 -0.1320  0.0448  0.1407
  871DOPS   C1B10219   7.682  31.016  14.856  0.1770  0.0763 -0.1753
  871DOPS   D2B10220   7.279  30.901  15.081 -0.0554  0.0786 -0.0512
  871DOPS   C3B10221   7.045  30.706  14.751 -0.0542  0.4553 -0.1780
  871DOPS   C4B10222   7.103  30.545  14.392  0.0725 -0.2371  0.3536
  872POSM   NC310223  11.142  23.717  16.173  0.0461  0.0198 -0.0188
  872POSM   PO410224  11.515  23.732  16.046  0.0582  0.1922 -0.0375
  872POSM   AM110225  11.698  23.725  15.766  0.3665  0.3054  0.0075
  872POSM   AM210226  11.726  23.596  15.527  0.0587 -0.1558 -0.0975
  872POSM   T1A10227  12.122  23.924  15.621 -0.0970 -0.2178 -0.2256
  872POSM   C2A10228  12.407  23.806  15.290 -0.0689 -0.0380 -0.0434
  872POSM   C3A10229  12.742  23.829  14.941  0.1974 -0.0323 -0.0820
  872POSM   C1B10230  11.737  23.675  15.192 -0.1233  0.3135 -0.0073
  872POSM   D2B10231  11.520  23.635  14.809  0.0356  0.0285  0.1855
  872POSM   C3B10232  11.081  23.607  14.794 -0.0746 -0.0166  0.0868
  872POSM   C4B10233  10.796  23.254  14.841  0.2428 -0.2049  0.1067
  873DOPS   CNO10234   4.739  28.358  16.638 -0.1898  0.1189 -0.1042
  873DOPS   PO410235   4.786  28.037  16.423  0.2914 -0.2314  0.0136
  873DOPS   GL110236   4.909  28.075  16.062  0.2177 -0.3036 -0.1869
  873DOPS   GL210237   4.761  28.344  16.016 -0.0596 -0.1314 -0.1372
  873DOPS   C1A10238   4.674  27.965  15.674  0.1847  0.2744 -0.0859
  873DOPS   D2A10239   4.399  27.806  15.291  0.0860  0.0959 -0.2516
  873DOPS   C3A10240   4.186  28.102  14.998 -0.0637 -0.1888  0.1237
  873DOPS   C4A10241   3.797  28.275  15.086  0.0262  0.0427  0.1680
  873DOPS   C1B10242   4.676  28.701  15.611  0.1575 -0.3816  0.0802
  873DOPS   D2B10243   4.704  28.841  15.177  0.0751 -0.1401 -0.0571
  873DOPS   C3B10244   4.636  28.618  14.801  0.1300 -0.0517  0.3468
  873DOPS   C4B10245   4.293  28.542  14.538  0.2205 -0.3486  0.2603
  874DOPS   CNO10246   1.468  26.128  16.119  0.0715  0.0847  0.2310
  874DOPS   PO410247   1.270  26.226  15.799  0.0103  0.1720  0.1171
  874DOPS   GL110248   1.029  26.135  15.429  0.0237  0.4113 -0.0015
  874DOPS   GL210249   1.138  26.252  15.174 -0.2130  0.1961  0.1208
  874DOPS   C1A10250   0.926  25.751  15.200 -0.1771  0.0092 -0.0057
  874DOPS   D2A10251   0.823  25.459  14.891  0.0057  0.0638 -0.2364
  874DOPS   C3A10252   0.895  25.261  14.467 -0.1769 -0.1756  0.0032
  874DOPS   C4A10253   1.000  24.889  14.225  0.3027  0.2109 -0.1210
  874DOPS   C1B10254   0.887  26.158  14.784 -0.3146 -0.3959  0.1196
  874DOPS   D2B10255   0.937  25.772  14.547 -0.0024  0.0088 -0.0420
  874DOPS   C3B10256   1.147  25.813  14.144 -0.1931 -0.1833  0.1774
  874DOPS   C4B10257   1.321  26.208  13.954 -0.0941 -0.0487 -0.0330
  875DOPE   NH310258   3.567  27.963  16.267  0.0168  0.3024 -0.4541
  875DOPE   PO410259   3.383  27.743  16.140  0.0452  0.3138 -0.2457
  875DOPE   GL110260   3.261  27.647  15.783 -0.1928 -0.4593 -0.0488
  875DOPE   GL210261   3.058  27.708  15.644  0.3787 -0.5581 -0.0004
  875DOPE   C1A10262   3.492  27.479  15.432  0.2905  0.0622 -0.0942
  875DOPE   D2A10263   3.306  27.170  15.131  0.1185  0.4461  0.1569
  875DOPE   C3A10264   3.014  26.881  15.228  0.1900  0.0555  0.0337
  875DOPE   C4A10265   2.761  26.556  15.393 -0.0654  0.1557  0.4782
  875DOPE   C1B10266   2.971  27.517  15.259 -0.0642  0.2497 -0.2190
  875DOPE   D2B10267   2.873  27.254  14.856 -0.0486  0.2438 -0.1667
  875DOPE   C3B10268   2.804  26.988  14.533  0.0577 -0.1274  0.0283
  875DOPE   C4B10269   3.110  26.723  14.236 -0.1563  0.1892 -0.1784
  876DOPE   NH310270   8.712  24.423  16.414 -0.2661 -0.2943 -0.0482
  876DOPE   PO410271   8.874  24.447  16.120  0.1513 -0.0372 -0.1170
  876DOPE   GL110272   9.157  24.367  15.746 -0.0403 -0.1219  0.0605
  876DOPE   GL210273   9.431  24.242  15.699  0.0796  0.1953 -0.1632
  876DOPE   C1A10274   9.088  24.441  15.267  0.0267 -0.2424  0.1296
  876DOPE   D2A10275   8.900  24.243  14.930 -0.0497 -0.1888  0.1630
  876DOPE   C3A10276   9.038  24.310  14.491  0.0856 -0.0888  0.1577
  876DOPE   C4A10277   8.772  24.260  14.148 -0.0204 -0.3338 -0.3515
  876DOPE   C1B10278   9.499  24.689  15.561 -0.1564  0.1791  0.0633
  876DOPE   D2B10279   9.586  25.113  15.581 -0.2381  0.0088  0.2632
  876DOPE   C3B10280   9.754  25.546  15.431 -0.0527  0.2287  0.0152
  876DOPE   C4B10281   9.807  25.972  15.221 -0.1529 -0.1011 -0.1034
  877DOPE   NH310282   7.698  32.992  15.448  0.0582 -0.0427  0.2481
  877DOPE   PO410283   7.708  33.260  15.304 -0.0616  0.3209 -0.0835
  877DOPE   GL110284   7.787  33.464  14.896 -0.0824 -0.0449  0.1516
  877DOPE   GL210285   7.526  33.439  14.817 -0.3155  0.1590  0.1551
  877DOPE   C1A10286   7.847  33.199  14.518 -0.1677 -0.1418 -0.1462
  877DOPE   D2A10287   7.644  32.997  14.188 -0.0394  0.3077 -0.0350
  877DOPE   C3A10288   7.451  33.027  13.742 -0.3765  0.2933  0.0650
  877DOPE   C4A10289   7.308  33.127  13.345  0.1947 -0.2703 -0.0095
  877DOPE   C1B10290   7.223  33.233  14.552 -0.2035 -0.1959 -0.2208
  877DOPE   D2B10291   7.159  32.944  14.238  0.0413 -0.0240 -0.2322
  877DOPE   C3B10292   7.307  32.526  14.060 -0.0719  0.0377 -0.0662
  877DOPE   C4B10293   7.707  32.410  13.950 -0.4266 -0.0024  0.0544
  878DOPC   NC310294   5.164  30.507  16.376  0.0973 -0.0988  0.1464
  878DOPC   PO410295   4.837  30.676  16.202 -0.0930 -0.0059  0.0416
  878DOPC   GL110296   4.983  30.660  15.809 -0.1815  0.0573 -0.1656
  878DOPC   GL210297   4.961  30.924  15.691 -0.3572  0.1774  0.2609
  878DOPC   C1A10298   4.869  30.378  15.465 -0.1480 -0.2621  0.0974
  878DOPC   D2A10299   4.471  30.231  15.339  0.0509  0.0668  0.1310
  878DOPC   C3A10300   4.396  29.800  15.116 -0.0773  0.0741 -0.2736
  878DOPC   C4A10301   4.418  29.319  15.161  0.0420  0.0552 -0.0459
  878DOPC   C1B10302   4.969  30.824  15.229 -0.1680  0.0021 -0.2376
  878DOPC   D2B10303   4.932  30.494  14.943 -0.0849 -0.2554  0.0018
  878DOPC   C3B10304   4.780  30.543  14.518  0.2195 -0.3812 -0.0690
  878DOPC   C4B10305   4.825  30.536  14.086  0.0925 -0.0293 -0.0682
  879DOPC   NC310306  11.235  27.161  16.062  0.1011  0.0060 -0.3202
  879DOPC   PO410307  11.123  27.467  15.837 -0.0225  0.1308 -0.0478
  879DOPC   GL110308  11.258  27.511  15.478  0.0339 -0.0450 -0.0406
  879DOPC   GL210309  11.462  27.260  15.479  0.4853  0.0625  0.4348
  879DOPC   C1A10310  11.204  27.569  15.019  0.1568  0.0752 -0.4444
  879DOPC   D2A10311  11.005  27.580  14.643 -0.3068  0.1633 -0.1551
  879DOPC   C3A10312  11.202  27.800  14.346 -0.1559  0.1192  0.0699
  879DOPC   C4A10313  11.543  28.003  14.109 -0.1200 -0.1695 -0.1952
  879DOPC   C1B10314  11.783  26.972  15.292  0.1381  0.0786  0.2202
  879DOPC   D2B10315  12.162  26.796  15.034 -0.0044 -0.2694  0.0968
  879DOPC   C3B10316  12.153  26.643  14.637  0.2379  0.0439  0.2738
  879DOPC   C4B10317  12.377  26.778  14.265 -0.2894 -0.1202  0.2647
  880POSM   NC310318   4.279  28.187  16.677 -0.0007 -0.0741  0.2764
  880POSM   PO410319   3.977  28.235  16.435 -0.1310  0.2882 -0.4215
  880POSM   AM110320   3.926  28.374  16.087  0.3686  0.1390 -0.5085
  880POSM   AM210321   3.750  28.337  15.861  0.1735  0.0359 -0.1368
  880POSM   T1A10322   4.073  28.674  15.688 -0.2077  0.1215 -0.1699
  880POSM   C2A10323   4.153  29.043  15.421 -0.3211 -0.0272 -0.2931
  880POSM   C3A10324   3.861  29.358  15.349 -0.2963 -0.1299  0.0567
  880POSM   C1B10325   3.583  28.196  15.582  0.0781  0.4439  0.1801
  880POSM   D2B10326   3.323  27.963  15.240  0.0677  0.0479  0.1193
  880POSM   C3B10327   3.365  28.215  14.854  0.0923  0.2399  0.3318
  880POSM   C4B10328   3.351  28.437  14.418 -0.3158 -0.0694 -0.0863
  881POSM   NC310329   2.096  33.740  16.449 -0.2547 -0.0635 -0.0174
  881POSM   PO410330   2.300  33.767  16.115 -0.0644  0.0883  0.3267
  881POSM   AM110331   2.089  33.633  15.936  0.0576 -0.0347  0.1461
  881POSM   AM210332   1.786  33.679  15.933  0.1124  0.2553  0.2148
  881POSM   T1A10333   1.888  33.192  15.778 -0.1681 -0.1884 -0.2912
  881POSM   C2A10334   1.926  32.814  15.546 -0.2537 -0.0426 -0.0461
  881POSM   C3A10335   2.236  32.665  15.233  0.1997  0.0414 -0.1110
  881POSM   C1B10336   1.852  33.634  15.583  0.0502 -0.0432 -0.0900
  881POSM   D2B10337   1.956  33.643  15.122  0.0072 -0.1340 -0.0996
  881POSM   C3B10338   1.725  33.448  14.714 -0.2586 -0.3254  0.0777
  881POSM   C4B10339   1.476  33.114  14.544  0.2467 -0.2042 -0.1151
  882DOPE   NH310340   2.090  25.790  16.126 -0.4039 -0.1252 -0.1044
  882DOPE   PO410341   2.196  26.037  15.927 -0.1088 -0.0041 -0.2509
  882DOPE   GL110342   2.374  25.985  15.468  0.3998  0.0036 -0.1678
  882DOPE   GL210343   2.162  26.262  15.357 -0.2814 -0.1400  0.2180
  882DOPE   C1A10344   2.684  26.099  15.120  0.4145  0.1067  0.2106
  882DOPE   D2A10345   3.029  26.330  14.972  0.3124 -0.1703  0.3688
  882DOPE   C3A10346   3.270  26.276  14.568  0.1751 -0.1260 -0.1849
  882DOPE   C4A10347   3.433  26.403  14.139  0.0309  0.0030 -0.2075
  882DOPE   C1B10348   2.342  26.412  14.997 -0.0155 -0.0798  0.1227
  882DOPE   D2B10349   2.507  26.560  14.550 -0.0369  0.1610 -0.1065
  882DOPE   C3B10350   2.812  26.330  14.361  0.1474  0.2325 -0.0628
  882DOPE   C4B10351   2.983  26.015  14.059 -0.1195  0.2035  0.1027
  883DOPE   NH310352   1.218  26.657  16.053  0.0567  0.1427  0.1504
  883DOPE   PO410353   1.480  26.777  15.995 -0.1488 -0.2930  0.0228
  883DOPE   GL110354   1.771  26.807  15.734  0.1791  0.0733  0.4237
  883DOPE   GL210355   1.561  26.960  15.488 -0.3421 -0.0380  0.0693
  883DOPE   C1A10356   2.056  27.171  15.605  0.3530 -0.0494  0.0615
  883DOPE   D2A10357   1.933  27.297  15.179 -0.0492  0.3093  0.2568
  883DOPE   C3A10358   1.693  27.037  14.929 -0.2935 -0.1947  0.2815
  883DOPE   C4A10359   1.288  27.061  14.688 -0.1030  0.3416  0.1913
  883DOPE   C1B10360   1.463  27.344  15.305 -0.1363 -0.1443  0.0317
  883DOPE   D2B10361   1.562  27.614  14.909  0.3413 -0.3202  0.3188
  883DOPE   C3B10362   1.601  27.442  14.494 -0.0408  0.2179  0.2648
  883DOPE   C4B10363   1.386  27.287  14.100  0.0400  0.0865  0.0052
  884DOPE   NH310364   5.714   0.128  15.984 -0.0356 -0.1012 -0.0342
  884DOPE   PO410365   5.418   0.172  16.129  0.1880 -0.0444 -0.1272
  884DOPE   GL110366   5.212   0.125  15.807 -0.2840 -0.1563 -0.2303
  884DOPE   GL210367   5.373   0.215  15.579 -0.2678 -0.1183  0.4263
  884DOPE   C1A10368   5.128  -0.189  15.458  0.2588  0.2497  0.2419
  884DOPE   D2A10369   5.482  -0.360  15.269 -0.2289 -0.0657 -0.0761
  884DOPE   C3A10370   5.540   0.004  15.074 -0.1135  0.0950 -0.0459
  884DOPE   C4A10371   5.578   0.498  15.053  0.1720  0.0236 -0.3342
  884DOPE   C1B10372   4.955   0.264  15.353 -0.4395  0.1026 -0.3546
  884DOPE   D2B10373   4.686   0.477  15.061 -0.1781  0.0146  0.0792
  884DOPE   C3B10374   4.631   0.912  15.082 -0.2662  0.3675  0.1901
  884DOPE   C4B10375   4.521   1.313  14.762 -0.1723  0.1727  0.2120
  885DOPC   NC310376   1.009  24.331  15.967 -0.0629 -0.0945  0.4330
  885DOPC   PO410377   0.847  24.592  16.251 -0.2738 -0.0450 -0.0188
  885DOPC   GL110378   0.579  24.492  15.960 -0.0331  0.1495  0.0699
  885DOPC   GL210379   0.505  24.272  15.857 -0.1797  0.0901 -0.1423
  885DOPC   C1A10380   0.355  24.604  15.501  0.1037  0.0684  0.0713
  885DOPC   D2A10381   0.228  24.503  15.012 -0.1006  0.0427  0.3440
  885DOPC   C3A10382   0.337  24.405  14.531  0.2957 -0.0243 -0.0018
  885DOPC   C4A10383   0.611  24.174  14.211 -0.3663 -0.1144  0.0015
  885DOPC   C1B10384   0.225  24.146  15.576  0.1378  0.1967  0.2703
  885DOPC   D2B10385  -0.002  24.142  15.155  0.0369  0.0323  0.2705
  885DOPC   C3B10386   0.149  23.927  14.765  0.0774 -0.2513 -0.0334
  885DOPC   C4B10387   0.290  23.797  14.326 -0.2806 -0.3067  0.5596
  886DOPC   NC310388   0.672  28.810  16.044  0.1782 -0.0560  0.0598
  886DOPC   PO410389   0.920  28.926  16.312 -0.2733 -0.1364 -0.4838
  886DOPC   GL110390   1.026  29.123  15.981 -0.2952  0.1738 -0.1278
  886DOPC   GL210391   0.765  29.293  15.967 -0.0164 -0.1416  0.2701
  886DOPC   C1A10392   0.774  29.021  15.604  0.1811 -0.0973 -0.0604
  886DOPC   D2A10393   0.521  29.169  15.255  0.2350  0.1044 -0.1227
  886DOPC   C3A10394   0.322  28.906  14.941 -0.0080 -0.0391 -0.0692
  886DOPC   C4A10395   0.420  28.760  14.467 -0.0486  0.0667  0.0102
  886DOPC   C1B10396   0.600  29.602  15.689 -0.2337  0.2341 -0.0683
  886DOPC   D2B10397   0.720  29.585  15.233 -0.0514 -0.0457 -0.0583
  886DOPC   C3B10398   1.133  29.467  15.114  0.0860  0.1213  0.1608
  886DOPC   C4B10399   1.299  29.278  14.660  0.1571 -0.1045 -0.1815
  887POSM   NC310400   5.698  25.411  16.391  0.3107  0.2219  0.1837
  887POSM   PO410401   5.629  25.127  16.129  0.2025  0.2122  0.0064
  887POSM   AM110402   5.405  25.306  15.968  0.0530 -0.0910  0.1677
  887POSM   AM210403   5.509  25.569  15.860  0.1069  0.1520  0.3014
  887POSM   T1A10404   5.097  25.502  15.579 -0.0460  0.0300  0.2105
  887POSM   C2A10405   5.026  25.606  15.107 -0.3402  0.0015  0.1355
  887POSM   C3A10406   4.708  25.511  14.798 -0.1003 -0.1091 -0.0523
  887POSM   C1B10407   5.556  25.578  15.534  0.1311 -0.1991  0.2280
  887POSM   D2B10408   5.515  25.487  15.090 -0.3850  0.0392  0.2148
  887POSM   C3B10409   5.446  25.796  14.674  0.1221  0.3306 -0.0188
  887POSM   C4B10410   5.213  26.071  14.352 -0.2712 -0.0446 -0.1312
  888DOPC   NC310411   2.258  34.525  16.324  0.2636 -0.1604 -0.1756
  888DOPC   PO410412   2.019  34.198  16.246  0.1395 -0.0062 -0.3447
  888DOPC   GL110413   2.200  34.258  15.900 -0.3922 -0.1465 -0.0521
  888DOPC   GL210414   2.202  34.045  15.715  0.0783 -0.1122 -0.0477
  888DOPC   C1A10415   2.157  34.478  15.492 -0.0177  0.2821  0.0537
  888DOPC   D2A10416   2.399  34.707  15.177 -0.0204  0.0535 -0.2794
  888DOPC   C3A10417   2.204  35.128  15.027 -0.1292  0.0348 -0.0819
  888DOPC   C4A10418   2.180  35.599  15.006 -0.0527 -0.0175  0.0998
  888DOPC   C1B10419   2.558  34.165  15.425 -0.0196 -0.1475 -0.0731
  888DOPC   D2B10420   2.956  34.056  15.238  0.3890 -0.3307  0.0112
  888DOPC   C3B10421   2.901  33.895  14.770 -0.0578  0.2752  0.1172
  888DOPC   C4B10422   3.091  33.935  14.353  0.0020  0.0673 -0.2916
  889DOPE   NH310423   7.997  25.822  16.000 -0.0693 -0.2332  0.4254
  889DOPE   PO410424   8.012  25.493  15.993  0.0567 -0.2127 -0.0129
  889DOPE   GL110425   8.297  25.246  15.839 -0.0431 -0.4484  0.1251
  889DOPE   GL210426   8.524  25.440  15.768 -0.0656 -0.1626  0.1371
  889DOPE   C1A10427   8.410  25.047  15.407 -0.0715  0.0943  0.1895
  889DOPE   D2A10428   8.755  24.992  15.057 -0.1576 -0.0643  0.0868
  889DOPE   C3A10429   9.137  24.712  14.868  0.1281 -0.2209  0.2016
  889DOPE   C4A10430   9.448  24.660  14.517 -0.1230  0.0392  0.0033
  889DOPE   C1B10431   8.471  25.541  15.326 -0.3354  0.1853 -0.0850
  889DOPE   D2B10432   8.288  25.254  14.960  0.0587  0.1862  0.3188
  889DOPE   C3B10433   8.166  25.365  14.540 -0.0236  0.0856 -0.1478
  889DOPE   C4B10434   8.042  25.604  14.218 -0.0469 -0.3465  0.3306
  890DOPC   NC310435   3.068  30.689  16.377 -0.0700 -0.0343 -0.2253
  890DOPC   PO410436   2.720  30.922  16.407  0.3430  0.3165 -0.0634
  890DOPC   GL110437   2.497  30.702  16.097 -0.0494  0.2442  0.1927
  890DOPC   GL210438   2.661  30.843  15.901 -0.0647  0.1015  0.1701
  890DOPC   C1A10439   2.612  30.345  15.808 -0.1246  0.1590 -0.1246
  890DOPC   D2A10440   2.631  29.841  15.728  0.0243  0.2235  0.2977
  890DOPC   C3A10441   2.204  29.667  15.624  0.0119  0.0555  0.1102
  890DOPC   C4A10442   1.869  29.900  15.316 -0.0489 -0.1040  0.0347
  890DOPC   C1B10443   3.087  30.926  15.747  0.3222 -0.0433 -0.0435
  890DOPC   D2B10444   3.481  30.900  15.626 -0.1960 -0.0187 -0.0154
  890DOPC   C3B10445   3.590  30.535  15.303 -0.1403 -0.1857  0.2610
  890DOPC   C4B10446   3.376  30.158  15.160  0.0359 -0.3324 -0.2988
  891DOPE   NH310447   0.575  31.894  16.390  0.0056 -0.2690  0.0794
  891DOPE   PO410448   0.334  32.005  16.208 -0.1972  0.0921 -0.1668
  891DOPE   GL110449   0.345  32.176  15.768  0.0923  0.3924 -0.1450
  891DOPE   GL210450   0.302  32.430  15.847  0.0032  0.3591 -0.0619
  891DOPE   C1A10451   0.311  31.955  15.380  0.1407 -0.3159  0.0837
  891DOPE   D2A10452   0.411  31.831  14.967 -0.3182  0.0060  0.1482
  891DOPE   C3A10453   0.501  31.489  14.670  0.1431 -0.0867 -0.3216
  891DOPE   C4A10454   0.724  31.131  14.561  0.0887 -0.2192 -0.1912
  891DOPE   C1B10455   0.409  32.739  15.554 -0.1764  0.2248 -0.0069
  891DOPE   D2B10456   0.457  33.134  15.361  0.0961  0.0017  0.0834
  891DOPE   C3B10457   0.593  33.121  14.934 -0.2249  0.0488  0.0360
  891DOPE   C4B10458   0.427  33.126  14.508  0.0742 -0.4176  0.0317
  892DOPE   NH310459   9.578  23.935  16.392  0.1298  0.1442 -0.1138
  892DOPE   PO410460   9.767  24.164  16.492 -0.4762  0.1801 -0.1722
  892DOPE   GL110461   9.906  23.791  16.111  0.0655  0.1739 -0.3318
  892DOPE   GL210462   9.677  23.812  15.862 -0.0685 -0.2810 -0.0422
  892DOPE   C1A10463  10.134  23.981  15.779 -0.2279 -0.2709  0.3147
  892DOPE   D2A10464   9.847  24.163  15.373 -0.1694 -0.2903  0.1578
  892DOPE   C3A10465   9.912  24.183  14.885 -0.2464  0.2330  0.0959
  892DOPE   C4A10466   9.666  24.229  14.458  0.0970  0.1577  0.1871
  892DOPE   C1B10467   9.604  23.709  15.437  0.0254  0.0019 -0.3252
  892DOPE   D2B10468   9.622  23.667  14.980 -0.0569 -0.0962  0.3160
  892DOPE   C3B10469  10.010  23.756  14.669 -0.1859  0.1839  0.4512
  892DOPE   C4B10470  10.194  24.056  14.407  0.2105  0.0074 -0.0454
  893DOPC   NC310471   2.893  26.354  16.228 -0.1041  0.1951 -0.1789
  893DOPC   PO410472   3.109  26.318  15.876 -0.0523 -0.2581  0.3525
  893DOPC   GL110473   3.211  26.182  15.511  0.3885 -0.0887  0.0416
  893DOPC   GL210474   3.354  26.518  15.494  0.0460  0.4007  0.0835
  893DOPC   C1A10475   3.105  25.875  15.141  0.0739  0.0756  0.0322
  893DOPC   D2A10476   3.064  25.833  14.682  0.0546  0.4164 -0.0345
  893DOPC   C3A10477   3.349  25.865  14.320 -0.1602 -0.2186  0.0431
  893DOPC   C4A10478   3.751  26.084  14.275  0.3720  0.2171  0.1702
  893DOPC   C1B10479   3.445  26.695  15.078  0.4225  0.0480 -0.1203
  893DOPC   D2B10480   3.242  26.856  14.749 -0.1992 -0.2225  0.3821
  893DOPC   C3B10481   3.325  27.262  14.593  0.1250 -0.1736  0.0256
  893DOPC   C4B10482   3.696  27.517  14.507  0.0249 -0.1850  0.2258
  894DOPC   NC310483   4.548  26.929  15.900 -0.3478  0.0128 -0.1015
  894DOPC   PO410484   4.492  27.084  16.241  0.0160  0.0186  0.1749
  894DOPC   GL110485   4.348  27.350  15.948 -0.0498 -0.2751 -0.1771
  894DOPC   GL210486   4.117  27.398  15.858 -0.0216  0.1988  0.0690
  894DOPC   C1A10487   4.593  27.418  15.577  0.2319 -0.0023  0.3145
  894DOPC   D2A10488   4.510  27.372  15.065 -0.1398  0.0924  0.1406
  894DOPC   C3A10489   4.468  27.663  14.719  0.0223 -0.3472 -0.0517
  894DOPC   C4A10490   4.378  28.054  14.478  0.0150 -0.1591 -0.0738
  894DOPC   C1B10491   4.052  27.247  15.426 -0.1274 -0.0503  0.0936
  894DOPC   D2B10492   3.829  27.262  15.043  0.0348  0.1035  0.0488
  894DOPC   C3B10493   3.772  27.054  14.677  0.0128 -0.1945 -0.2515
  894DOPC   C4B10494   3.566  26.822  14.312 -0.1450  0.1903  0.1181
  895DOPC   NC310495  11.173  31.664  16.076 -0.0997 -0.2007 -0.1763
  895DOPC   PO410496  11.227  32.064  16.013  0.1734  0.0317 -0.3098
  895DOPC   GL110497  11.355  31.952  15.705 -0.1979 -0.0564 -0.0601
  895DOPC   GL210498  11.181  31.749  15.573 -0.0613  0.2934 -0.1548
  895DOPC   C1A10499  11.223  32.140  15.299  0.1168 -0.0076 -0.1126
  895DOPC   D2A10500  11.194  31.931  14.959 -0.0607 -0.2864 -0.2267
  895DOPC   C3A10501  11.022  31.506  15.094  0.0028 -0.1130 -0.0202
  895DOPC   C4A10502  10.644  31.291  14.931  0.3369 -0.0929  0.1399
  895DOPC   C1B10503  11.586  31.822  15.318  0.1583  0.3690  0.0741
  895DOPC   D2B10504  11.752  31.935  14.891  0.2434 -0.2652 -0.0059
  895DOPC   C3B10505  11.581  32.313  14.660  0.1145  0.0820  0.2767
  895DOPC   C4B10506  11.217  32.477  14.897 -0.4435  0.0109 -0.0855
  896DOPC   NC310507  34.570  24.736  15.831 -0.1364  0.1425  0.2350
  896DOPC   PO410508  34.250  24.624  15.946 -0.0493 -0.0628 -0.2047
  896DOPC   GL110509  34.218  24.456  15.636 -0.0108  0.0086 -0.1904
  896DOPC   GL210510  34.388  24.246  15.635  0.0354  0.1460 -0.0930
  896DOPC   C1A10511  34.500  24.655  15.264  0.3110 -0.1775 -0.1012
  896DOPC   D2A10512  34.439  24.749  14.778 -0.2909 -0.0942  0.1633
  896DOPC   C3A10513  34.575  24.567  14.380  0.2195 -0.0977  0.1229
  896DOPC   C4A10514  34.595  24.655  13.934 -0.1478 -0.1713 -0.0565
  896DOPC   C1B10515  34.236  24.084  15.250  0.1069 -0.0280  0.1103
  896DOPC   D2B10516  33.949  23.786  15.029  0.0838  0.1965  0.2159
  896DOPC   C3B10517  33.569  23.993  15.049  0.1096 -0.0900  0.0781
  896DOPC   C4B10518  33.487  24.437  15.061  0.1149  0.0879 -0.0466
  897DOPC   NC310519   5.647  26.347  16.619  0.4089 -0.3757  0.2480
  897DOPC   PO410520   5.752  26.734  16.714  0.4108 -0.2540 -0.1979
  897DOPC   GL110521   5.989  26.755  16.344  0.0424 -0.1047 -0.0330
  897DOPC   GL210522   5.965  26.476  16.303 -0.1112 -0.2961  0.1376
  897DOPC   C1A10523   5.941  26.747  15.881 -0.3197  0.1893 -0.0306
  897DOPC   D2A10524   5.827  26.970  15.440  0.0414 -0.2831 -0.0475
  897DOPC   C3A10525   5.521  27.297  15.475  0.1853 -0.2082  0.1730
  897DOPC   C4A10526   5.534  27.799  15.394 -0.1423  0.0076  0.2241
  897DOPC   C1B10527   6.362  26.498  16.049  0.0872 -0.2044  0.6572
  897DOPC   D2B10528   6.395  26.701  15.645  0.0669 -0.3236  0.0892
  897DOPC   C3B10529   6.577  26.921  15.285 -0.0020  0.2365 -0.0117
  897DOPC   C4B10530   6.795  27.025  14.898  0.1445 -0.1056 -0.0947
  898DOPE   NH310531  10.224  29.669  15.998  0.1747 -0.1624 -0.0089
  898DOPE   PO410532  10.157  29.959  15.810 -0.0148  0.1427  0.0263
  898DOPE   GL110533  10.106  30.098  15.486  0.1256  0.2719 -0.1810
  898DOPE   GL210534   9.957  29.941  15.283  0.4548 -0.0240  0.0759
  898DOPE   C1A10535  10.453  30.259  15.210  0.1142  0.1859 -0.1247
  898DOPE   D2A10536  10.642  30.315  14.811  0.1360  0.1561 -0.1963
  898DOPE   C3A10537  10.681  30.400  14.391 -0.3213  0.2158 -0.2664
  898DOPE   C4A10538  10.617  30.476  13.927 -0.1388 -0.4137  0.0968
  898DOPE   C1B10539   9.626  29.934  14.973  0.1240  0.0450 -0.2982
  898DOPE   D2B10540   9.174  29.699  14.952  0.2856 -0.1032 -0.0074
  898DOPE   C3B10541   9.239  29.454  14.573 -0.2280  0.0333 -0.0063
  898DOPE   C4B10542   9.274  29.384  14.121  0.2273  0.3862 -0.5810
  899DOPE   NH310543   8.237  29.853  15.962  0.1594  0.3990 -0.1121
  899DOPE   PO410544   8.569  29.903  15.961  0.0654 -0.1219  0.0332
  899DOPE   GL110545   8.771  29.833  15.687  0.0469  0.2154 -0.2520
  899DOPE   GL210546   8.491  29.865  15.495  0.0650  0.1122  0.0102
  899DOPE   C1A10547   9.001  29.535  15.437 -0.0016  0.2700 -0.0224
  899DOPE   D2A10548   9.203  29.242  15.122  0.0034  0.1514 -0.0827
  899DOPE   C3A10549   9.131  28.936  14.755  0.5710 -0.2646  0.0779
  899DOPE   C4A10550   9.299  28.932  14.334 -0.0578  0.1335  0.0907
  899DOPE   C1B10551   8.655  29.645  15.125  0.1483  0.1939 -0.2109
  899DOPE   D2B10552   8.780  29.398  14.855  0.0361  0.4036  0.1108
  899DOPE   C3B10553   8.724  29.184  14.441  0.2354  0.0255  0.0474
  899DOPE   C4B10554   8.839  28.862  14.175  0.1961 -0.0622  0.2819
  900POSM   NC310555   5.055  31.921  15.595 -0.3602  0.2320 -0.0756
  900POSM   PO410556   5.418  31.949  15.758 -0.0988  0.1215  0.2115
  900POSM   AM110557   5.534  31.793  15.527  0.1111  0.0267  0.2857
  900POSM   AM210558   5.418  31.639  15.347  0.3460  0.3580 -0.0689
  900POSM   T1A10559   5.800  31.334  15.406 -0.0098 -0.2630 -0.1616
  900POSM   C2A10560   5.992  31.243  14.993 -0.0918 -0.1896  0.2276
  900POSM   C3A10561   6.050  30.914  14.602 -0.0229  0.0450  0.1638
  900POSM   C1B10562   5.660  31.698  15.096 -0.1222  0.3584 -0.3403
  900POSM   D2B10563   5.938  31.655  14.715 -0.1190  0.1362  0.1406
  900POSM   C3B10564   5.869  31.669  14.265 -0.1854  0.0736  0.0707
  900POSM   C4B10565   5.558  31.745  13.974 -0.1464  0.1908 -0.0469
  901DOPC   NC310566   7.805  24.243  16.223  0.0379  0.3760 -0.2302
  901DOPC   PO410567   7.895  23.973  15.933  0.0469 -0.0587  0.4170
  901DOPC   GL110568   7.900  23.882  15.536  0.2204  0.0328  0.2530
  901DOPC   GL210569   7.871  23.601  15.544 -0.1608 -0.1332  0.0385
  901DOPC   C1A10570   7.875  23.837  15.070 -0.0576  0.0956  0.1669
  901DOPC   D2A10571   8.006  23.575  14.697  0.0934 -0.1828 -0.0603
  901DOPC   C3A10572   8.217  23.793  14.317 -0.1008  0.4231 -0.0851
  901DOPC   C4A10573   8.331  24.042  13.938 -0.1004 -0.2722 -0.1537
  901DOPC   C1B10574   7.689  23.237  15.444 -0.1270 -0.4081 -0.0993
  901DOPC   D2B10575   7.845  22.885  15.237  0.1904 -0.0635  0.0001
  901DOPC   C3B10576   8.330  22.819  15.249 -0.1544  0.0670  0.1850
  901DOPC   C4B10577   8.687  22.527  15.392  0.5455  0.3588  0.0239
  902POSM   NC310578   4.356  24.871  16.129  0.0213  0.1834 -0.2171
  902POSM   PO410579   4.013  24.911  16.363  0.2532 -0.0317  0.0524
  902POSM   AM110580   3.898  24.949  16.024  0.1583 -0.1106 -0.2869
  902POSM   AM210581   3.686  24.978  15.833 -0.0445  0.1908 -0.0423
  902POSM   T1A10582   4.170  25.069  15.651  0.0846 -0.0881 -0.0059
  902POSM   C2A10583   4.122  25.373  15.300  0.1156  0.1617 -0.2169
  902POSM   C3A10584   4.227  25.415  14.888  0.2897  0.1102 -0.0566
  902POSM   C1B10585   3.627  24.992  15.507 -0.0150 -0.1248  0.2140
  902POSM   D2B10586   3.475  24.960  15.059  0.1266 -0.0200  0.4966
  902POSM   C3B10587   3.570  24.795  14.634 -0.0960 -0.0596 -0.1059
  902POSM   C4B10588   3.903  24.784  14.343  0.1056 -0.0910  0.4227
  903POSM   NC310589   1.239  33.667  16.430  0.1941 -0.0453 -0.4090
  903POSM   PO410590   1.589  33.866  16.339  0.2020  0.0820  0.0378
  903POSM   AM110591   1.404  33.973  16.117 -0.0532  0.3639 -0.0393
  903POSM   AM210592   1.296  33.736  15.984 -0.2438  0.0248 -0.0157
  903POSM   T1A10593   0.960  34.081  15.876 -0.0659 -0.0074  0.0485
  903POSM   C2A10594   0.632  34.469  15.874 -0.0329  0.0509  0.0049
  903POSM   C3A10595   0.404  34.708  15.532 -0.0572  0.1533 -0.0217
  903POSM   C1B10596   1.401  33.827  15.679 -0.1195  0.1039 -0.0925
  903POSM   D2B10597   1.413  33.915  15.220  0.3971  0.0770  0.1827
  903POSM   C3B10598   1.054  33.680  14.995 -0.0445 -0.1732  0.1075
  903POSM   C4B10599   0.859  33.462  14.590 -0.0814 -0.0103  0.0238
  904DOPS   CNO10600   5.465  30.454  15.932  0.2869  0.2607 -0.0470
  904DOPS   PO410601   5.820  30.287  15.989  0.0188  0.0043  0.2964
  904DOPS   GL110602   5.913  30.210  15.615 -0.0087 -0.1093 -0.0005
  904DOPS   GL210603   5.790  29.988  15.446 -0.0386 -0.0739 -0.0180
  904DOPS   C1A10604   6.027  30.347  15.251  0.2299  0.4467 -0.4113
  904DOPS   D2A10605   5.828  30.496  14.864  0.2870 -0.0360  0.7387
  904DOPS   C3A10606   5.723  30.305  14.458 -0.3620 -0.0067 -0.0116
  904DOPS   C4A10607   5.717  30.203  13.981 -0.2145 -0.2951 -0.1217
  904DOPS   C1B10608   5.579  30.115  15.068 -0.1957 -0.0119  0.3795
  904DOPS   D2B10609   5.272  30.157  14.715  0.1322 -0.0234 -0.1553
  904DOPS   C3B10610   5.341  30.589  14.485 -0.2177 -0.0358  0.1260
  904DOPS   C4B10611   5.167  30.991  14.305 -0.3850 -0.1961  0.2215
  905DOPC   NC310612   3.045  31.902  15.681  0.4172 -0.0062  0.1276
  905DOPC   PO410613   3.178  32.254  15.668  0.1135  0.0993  0.2073
  905DOPC   GL110614   3.236  32.080  15.273  0.3062  0.4081  0.0640
  905DOPC   GL210615   3.336  31.785  15.294 -0.1074  0.4439 -0.2468
  905DOPC   C1A10616   2.931  32.035  14.868 -0.1887 -0.0007  0.0479
  905DOPC   D2A10617   2.892  32.310  14.514 -0.2929 -0.1394  0.0188
  905DOPC   C3A10618   3.134  32.673  14.554 -0.1807 -0.1251 -0.0622
  905DOPC   C4A10619   3.245  33.003  14.301  0.1324  0.1015  0.0688
  905DOPC   C1B10620   3.178  31.632  14.885  0.0421  0.2523  0.0808
  905DOPC   D2B10621   2.703  31.577  14.670 -0.2683 -0.0697  0.1915
  905DOPC   C3B10622   2.780  31.129  14.586  0.0814 -0.3825  0.0088
  905DOPC   C4B10623   2.875  30.777  14.217  0.1856  0.0567  0.1595
  906DOPE   NH310624   4.535  30.167  16.280 -0.0960  0.3395  0.2321
  906DOPE   PO410625   4.251  30.027  16.231  0.0829 -0.0174 -0.2428
  906DOPE   GL110626   4.280  30.434  15.955  0.1167  0.1080 -0.1399
  906DOPE   GL210627   4.513  30.502  15.778 -0.0030 -0.1040 -0.1357
  906DOPE   C1A10628   3.998  30.624  15.621 -0.1012 -0.0612 -0.0816
  906DOPE   D2A10629   3.909  30.959  15.316  0.0649  0.0522  0.1342
  906DOPE   C3A10630   4.047  30.894  14.902 -0.1512 -0.1390  0.2450
  906DOPE   C4A10631   4.365  30.525  14.764 -0.2597  0.1967  0.1289
  906DOPE   C1B10632   4.475  30.868  15.429 -0.2598  0.3017  0.0900
  906DOPE   D2B10633   4.475  31.149  15.065  0.2033  0.1515  0.0059
  906DOPE   C3B10634   4.590  30.994  14.674  0.2632  0.0222  0.1116
  906DOPE   C4B10635   4.437  30.822  14.269 -0.1485  0.2095  0.3092
  907DOPE   NH310636   5.224  24.753  16.206 -0.0271 -0.0597  0.1252
  907DOPE   PO410637   5.065  25.036  16.108  0.0228  0.0815  0.2042
  907DOPE   GL110638   5.130  25.015  15.728 -0.1346 -0.0627  0.1186
  907DOPE   GL210639   5.157  24.722  15.644  0.2234 -0.3030 -0.1847
  907DOPE   C1A10640   5.038  25.034  15.242  0.2248  0.0294 -0.1864
  907DOPE   D2A10641   5.161  25.167  14.806 -0.0870 -0.0217  0.0399
  907DOPE   C3A10642   4.846  24.923  14.518 -0.1952  0.2625  0.0952
  907DOPE   C4A10643   4.618  24.842  14.134 -0.1889  0.1059  0.0350
  907DOPE   C1B10644   5.383  24.709  15.250  0.2798 -0.1527 -0.1830
  907DOPE   D2B10645   5.280  24.694  14.791  0.1040 -0.0377  0.2267
  907DOPE   C3B10646   5.324  24.915  14.393 -0.0580 -0.1084  0.1926
  907DOPE   C4B10647   5.491  25.335  14.381 -0.2228 -0.2706  0.3396
  908DOPC   NC310648   6.310  26.656  17.193  0.0288 -0.1341 -0.0442
  908DOPC   PO410649   6.567  26.548  16.930 -0.3356 -0.1135  0.1180
  908DOPC   GL110650   6.764  26.700  16.596  0.0727 -0.1831 -0.1031
  908DOPC   GL210651   6.472  26.782  16.442 -0.1283  0.4586 -0.1909
  908DOPC   C1A10652   6.859  26.787  16.105 -0.1055 -0.0209 -0.2098
  908DOPC   D2A10653   7.058  26.631  15.669  0.0124  0.1593  0.0627
  908DOPC   C3A10654   6.836  26.486  15.288  0.1221  0.2027  0.1271
  908DOPC   C4A10655   6.839  26.527  14.794  0.1520  0.2815 -0.3208
  908DOPC   C1B10656   6.369  27.059  16.116 -0.0712 -0.2088 -0.3302
  908DOPC   D2B10657   6.268  27.161  15.655  0.0846 -0.1082  0.4475
  908DOPC   C3B10658   6.469  27.400  15.299  0.0327  0.1469 -0.3619
  908DOPC   C4B10659   6.349  27.739  15.004  0.0572  0.0608  0.0597
  909POSM   NC310660   8.176  32.106  15.651  0.0962 -0.2328 -0.3215
  909POSM   PO410661   8.173  31.815  15.404  0.2465  0.1734  0.1447
  909POSM   AM110662   8.084  31.787  15.085 -0.2783 -0.5580 -0.1328
  909POSM   AM210663   8.232  31.800  14.847  0.1740  0.0845 -0.0266
  909POSM   T1A10664   7.698  31.754  14.763 -0.0650 -0.1284  0.0216
  909POSM   C2A10665   7.507  31.368  14.560 -0.0760 -0.2518 -0.0023
  909POSM   C3A10666   7.174  31.248  14.259  0.0869 -0.4619 -0.0563
  909POSM   C1B10667   8.270  31.482  14.693  0.0890  0.1617 -0.3202
  909POSM   D2B10668   8.065  31.253  14.332  0.0493 -0.2503  0.1934
  909POSM   C3B10669   8.048  30.822  14.445  0.1748 -0.1004  0.0606
  909POSM   C4B10670   8.073  30.322  14.387  0.1744  0.1799  0.1939
  910POSM   NC310671   2.815  33.969  15.784  0.1653  0.1090  0.1385
  910POSM   PO410672   2.926  33.660  15.995 -0.1504  0.0505 -0.2306
  910POSM   AM110673   2.710  33.517  15.734  0.3179 -0.0079 -0.2997
  910POSM   AM210674   2.445  33.361  15.755 -0.0427 -0.1186 -0.2286
  910POSM   T1A10675   2.605  33.633  15.276 -0.0870 -0.2119  0.2286
  910POSM   C2A10676   2.404  33.979  15.010 -0.1639 -0.0878  0.2448
  910POSM   C3A10677   2.498  34.311  14.729  0.0860 -0.0956 -0.1007
  910POSM   C1B10678   2.255  33.171  15.501 -0.2275  0.2508  0.3245
  910POSM   D2B10679   1.884  33.178  15.199 -0.2178 -0.1642 -0.0230
  910POSM   C3B10680   1.956  32.924  14.829  0.0773  0.1519 -0.1403
  910POSM   C4B10681   2.115  33.100  14.472 -0.0052 -0.0690  0.1102
  911DOPC   NC310682   8.068  33.077  15.024  0.2801  0.3872 -0.0497
  911DOPC   PO410683   8.387  32.789  15.084 -0.0788 -0.1945 -0.0032
  911DOPC   GL110684   8.512  32.945  14.775  0.1888 -0.2538  0.0018
  911DOPC   GL210685   8.424  33.186  14.633 -0.0118  0.1728 -0.0173
  911DOPC   C1A10686   8.565  32.874  14.321 -0.1536  0.2400  0.2646
  911DOPC   D2A10687   8.503  32.984  13.830 -0.1559  0.1350  0.0020
  911DOPC   C3A10688   8.879  32.829  13.580 -0.2626 -0.0910 -0.3531
  911DOPC   C4A10689   9.192  32.602  13.320 -0.0907 -0.0342  0.2194
  911DOPC   C1B10690   8.280  33.282  14.217 -0.2174  0.0955  0.0748
  911DOPC   D2B10691   8.021  33.620  14.013 -0.4011  0.0570 -0.3226
  911DOPC   C3B10692   7.740  33.757  13.667 -0.0174 -0.1539  0.0613
  911DOPC   C4B10693   7.562  33.630  13.244 -0.0898  0.1383  0.0624
  912DOPS   CNO10694   4.435  29.589  15.661 -0.4920 -0.0076  0.1383
  912DOPS   PO410695   4.459  29.965  15.740  0.1620 -0.2000  0.0092
  912DOPS   GL110696   4.796  29.934  15.676 -0.0373 -0.3538  0.4554
  912DOPS   GL210697   4.888  29.788  15.490 -0.2620  0.1567 -0.2303
  912DOPS   C1A10698   5.268  30.073  15.544  0.0812  0.0440  0.3007
  912DOPS   D2A10699   5.558  30.462  15.431  0.1203  0.3069 -0.3079
  912DOPS   C3A10700   5.414  30.742  15.087  0.0735  0.0335  0.1655
  912DOPS   C4A10701   5.069  30.898  14.772  0.1618  0.3191 -0.4848
  912DOPS   C1B10702   5.015  29.996  15.081  0.0765  0.1856 -0.0147
  912DOPS   D2B10703   4.653  30.066  14.808 -0.3373  0.3331 -0.1338
  912DOPS   C3B10704   4.257  29.980  14.691  0.0030  0.1888  0.0195
  912DOPS   C4B10705   3.850  29.881  14.450 -0.1421  0.0313  0.0433
  913DOPE   NH310706  10.975  28.406  15.856  0.2694  0.0829  0.0907
  913DOPE   PO410707  10.762  28.151  15.763  0.1327 -0.1831 -0.2951
  913DOPE   GL110708  10.600  28.328  15.490 -0.0836  0.1512 -0.2868
  913DOPE   GL210709  10.631  28.532  15.521 -0.1657  0.0842  0.1512
  913DOPE   C1A10710  10.673  28.418  15.020  0.1275 -0.4934  0.1332
  913DOPE   D2A10711  10.457  28.520  14.622 -0.0263 -0.1300 -0.0477
  913DOPE   C3A10712   9.989  28.578  14.553 -0.3826 -0.0331 -0.2246
  913DOPE   C4A10713   9.704  28.665  14.259  0.0875 -0.4093  0.1035
  913DOPE   C1B10714  10.331  28.703  15.244  0.2075 -0.0592 -0.4740
  913DOPE   D2B10715   9.899  28.534  15.064 -0.0045 -0.1714 -0.2099
  913DOPE   C3B10716   9.508  28.553  14.784  0.0092 -0.1206  0.0635
  913DOPE   C4B10717   9.052  28.486  14.597 -0.1244 -0.1119  0.0066
  914DOPS   CNO10718   4.865  32.187  15.939  0.3355  0.0858 -0.4306
  914DOPS   PO410719   5.176  32.371  15.717 -0.2013  0.1853 -0.0144
  914DOPS   GL110720   5.242  32.370  15.385  0.1515 -0.0740  0.2639
  914DOPS   GL210721   5.511  32.208  15.271  0.3388  0.1366  0.1444
  914DOPS   C1A10722   5.186  32.648  14.999 -0.0248  0.0997 -0.1356
  914DOPS   D2A10723   4.896  32.847  14.701 -0.3362  0.0917 -0.0083
  914DOPS   C3A10724   4.932  32.728  14.241  0.2726  0.2662 -0.0390
  914DOPS   C4A10725   5.130  32.510  13.836  0.1857  0.3767 -0.2204
  914DOPS   C1B10726   5.186  32.008  15.080  0.1904 -0.1475 -0.0973
  914DOPS   D2B10727   5.211  31.669  14.784 -0.1015 -0.0650 -0.0916
  914DOPS   C3B10728   5.418  31.442  14.401 -0.1894  0.1542  0.3150
  914DOPS   C4B10729   5.312  31.351  14.008  0.1013  0.0313 -0.0120
  915DOPS   CNO10730   1.866  25.275  16.132 -0.0794  0.2711  0.2413
  915DOPS   PO410731   2.024  25.030  15.943 -0.1187 -0.2336  0.5441
  915DOPS   GL110732   1.904  24.695  15.850 -0.0768 -0.1796 -0.2925
  915DOPS   GL210733   2.065  24.491  16.002  0.1874 -0.1242 -0.0821
  915DOPS   C1A10734   1.886  24.376  15.518  0.4629 -0.3803  0.3993
  915DOPS   D2A10735   1.918  24.169  15.089 -0.0964 -0.3999  0.4945
  915DOPS   C3A10736   1.487  24.054  14.936 -0.0283 -0.1460  0.0155
  915DOPS   C4A10737   1.349  23.672  14.728  0.0795 -0.0838  0.0600
  915DOPS   C1B10738   2.390  24.561  15.684  0.1770 -0.3513 -0.0192
  915DOPS   D2B10739   2.767  24.540  15.403 -0.0384 -0.0503  0.0325
  915DOPS   C3B10740   3.044  24.516  14.994 -0.0847 -0.0987 -0.1959
  915DOPS   C4B10741   3.201  24.399  14.561  0.0655  0.2185  0.1263
  916POSM   NC310742   1.955  30.487  16.727 -0.0511  0.0361 -0.0473
  916POSM   PO410743   2.089  30.554  16.389  0.2198  0.0665 -0.3215
  916POSM   AM110744   2.047  30.657  16.102  0.3617  0.0906 -0.0550
  916POSM   AM210745   1.817  30.685  15.961 -0.2686  0.1110  0.2622
  916POSM   T1A10746   2.183  30.702  15.631  0.0109 -0.3956  0.0895
  916POSM   C2A10747   2.065  31.049  15.359 -0.3316  0.2628 -0.0033
  916POSM   C3A10748   1.970  31.167  14.962 -0.0227  0.1454 -0.0947
  916POSM   C1B10749   1.765  30.970  15.832 -0.0768  0.0228 -0.0537
  916POSM   D2B10750   1.631  31.311  15.561  0.2106 -0.0219 -0.1056
  916POSM   C3B10751   1.909  31.536  15.277 -0.1921  0.2409  0.0590
  916POSM   C4B10752   2.061  32.012  15.243 -0.0856  0.1712  0.0276
  917POSM   NC310753   9.119  29.788  16.025 -0.2133  0.2583  0.3698
  917POSM   PO410754   8.887  29.535  16.175  0.0056  0.1176 -0.2058
  917POSM   AM110755   8.721  29.424  15.889 -0.1709  0.1555 -0.1316
  917POSM   AM210756   8.812  29.195  15.734 -0.3267 -0.1383 -0.3231
  917POSM   T1A10757   8.433  29.388  15.453 -0.0810  0.2477 -0.0112
  917POSM   C2A10758   8.335  29.269  15.033 -0.3398 -0.3753  0.2938
  917POSM   C3A10759   8.193  29.248  14.615 -0.0972 -0.1432 -0.0209
  917POSM   C1B10760   8.831  29.060  15.431 -0.2258  0.2264 -0.1717
  917POSM   D2B10761   8.682  28.890  14.988  0.0724  0.0779 -0.0650
  917POSM   C3B10762   8.588  28.665  14.600  0.1141 -0.0280  0.2131
  917POSM   C4B10763   8.562  28.398  14.244  0.0815  0.2227  0.2808
  918DOPC   NC310764   2.936  25.818  15.631  0.0121  0.2315  0.0697
  918DOPC   PO410765   2.595  25.742  15.806  0.4704  0.1883  0.1115
  918DOPC   GL110766   2.570  25.409  15.617  0.1393  0.1873 -0.0705
  918DOPC   GL210767   2.761  25.426  15.430  0.1566  0.1729 -0.2255
  918DOPC   C1A10768   2.491  24.969  15.378 -0.4015  0.1604 -0.2434
  918DOPC   D2A10769   2.415  24.640  15.051 -0.3404  0.1317 -0.1136
  918DOPC   C3A10770   2.595  24.549  14.653 -0.0437 -0.1063  0.0177
  918DOPC   C4A10771   2.735  24.369  14.235 -0.0967  0.0044 -0.1054
  918DOPC   C1B10772   2.730  25.503  14.970  0.1873  0.0858 -0.1570
  918DOPC   D2B10773   2.729  25.317  14.616 -0.6025  0.0436  0.3929
  918DOPC   C3B10774   3.064  25.413  14.274  0.1329  0.2648  0.3013
  918DOPC   C4B10775   3.448  25.477  14.050  0.0901 -0.0659 -0.1661
  919POSM   NC310776   6.702  33.858  15.936 -0.0196 -0.1475 -0.0901
  919POSM   PO410777   6.347  33.778  15.803 -0.3554 -0.0725 -0.1900
  919POSM   AM110778   6.222  33.728  15.514  0.0259  0.0710  0.2384
  919POSM   AM210779   6.040  33.545  15.393 -0.0077  0.0394  0.1290
  919POSM   T1A10780   5.866  33.967  15.207 -0.1966 -0.0907 -0.0961
  919POSM   C2A10781   5.524  33.981  14.859 -0.0151  0.2236 -0.1033
  919POSM   C3A10782   5.109  34.008  14.612  0.0411 -0.0064  0.0155
  919POSM   C1B10783   5.721  33.483  15.294 -0.0778 -0.2567  0.1419
  919POSM   D2B10784   5.522  33.464  14.890 -0.0096  0.0353  0.0694
  919POSM   C3B10785   5.622  33.398  14.415 -0.3343 -0.0201  0.2005
  919POSM   C4B10786   5.644  33.511  13.960 -0.0042  0.1092 -0.3366
  920DOPC   NC310787   6.880  29.338  15.948 -0.1771  0.2380  0.2644
  920DOPC   PO410788   7.218  29.259  16.143 -0.1185  0.0085  0.0392
  920DOPC   GL110789   7.325  29.366  15.714  0.3199  0.0820  0.0078
  920DOPC   GL210790   7.503  29.139  15.686  0.1361  0.0786 -0.0175
  920DOPC   C1A10791   6.947  29.321  15.466  0.0369 -0.2478  0.0543
  920DOPC   D2A10792   6.898  29.249  15.008  0.2352 -0.2036 -0.2410
  920DOPC   C3A10793   6.852  28.918  14.626  0.1269 -0.1548  0.0659
  920DOPC   C4A10794   7.089  28.664  14.318 -0.2238 -0.2686  0.1760
  920DOPC   C1B10795   7.361  29.190  15.238 -0.0355  0.1023 -0.1911
  920DOPC   D2B10796   7.408  29.393  14.836 -0.2166  0.0284  0.0310
  920DOPC   C3B10797   7.020  29.564  14.525 -0.1862 -0.0006  0.2689
  920DOPC   C4B10798   6.841  29.279  14.209  0.0318  0.2721 -0.1144
  921POSM   NC310799   7.721  29.007  16.236 -0.1265 -0.2628  0.3158
  921POSM   PO410800   7.416  28.788  16.384  0.1145 -0.0454  0.1660
  921POSM   AM110801   7.400  28.726  16.059  0.2672  0.0763  0.1642
  921POSM   AM210802   7.183  28.792  15.875  0.0457  0.2207  0.0433
  921POSM   T1A10803   7.668  28.661  15.619  0.2160 -0.2395  0.0922
  921POSM   C2A10804   7.828  28.548  15.220 -0.0255 -0.2213 -0.1345
  921POSM   C3A10805   8.224  28.375  15.042  0.0075 -0.1886 -0.0140
  921POSM   C1B10806   7.139  28.733  15.529 -0.4944  0.1448  0.0184
  921POSM   D2B10807   7.002  28.743  15.096  0.1395 -0.2475  0.0720
  921POSM   C3B10808   7.430  28.808  14.903  0.1830 -0.0314  0.0032
  921POSM   C4B10809   7.745  28.795  14.536  0.2283  0.2913  0.2082
  922POSM   NC310810   8.936  25.195  15.882  0.0288 -0.1432  0.2354
  922POSM   PO410811   8.681  25.020  16.109 -0.1811 -0.0836 -0.0080
  922POSM   AM110812   8.719  24.817  15.834 -0.2334  0.2835  0.1998
  922POSM   AM210813   8.727  24.572  15.657  0.1769  0.2944 -0.1794
  922POSM   T1A10814   9.069  24.917  15.469  0.1027 -0.0118 -0.0534
  922POSM   C2A10815   9.303  25.100  15.142 -0.3948  0.0734  0.0941
  922POSM   C3A10816   9.505  25.393  14.853  0.0032 -0.0014  0.0105
  922POSM   C1B10817   8.548  24.590  15.383  0.0060  0.1279  0.1629
  922POSM   D2B10818   8.474  24.515  14.919  0.4427  0.0710  0.0823
  922POSM   C3B10819   8.512  24.708  14.526  0.1271 -0.3236  0.0540
  922POSM   C4B10820   8.309  25.029  14.212  0.0148  0.2748  0.0169
  923DOPC   NC310821   2.022  26.886  16.081 -0.1821 -0.0591  0.3300
  923DOPC   PO410822   2.397  27.030  16.097  0.2406  0.3011 -0.0471
  923DOPC   GL110823   2.352  26.892  15.705  0.5112  0.2899 -0.4467
  923DOPC   GL210824   2.263  26.647  15.643  0.0637 -0.1406  0.1224
  923DOPC   C1A10825   2.440  27.062  15.276 -0.0640  0.0018 -0.3706
  923DOPC   D2A10826   2.288  26.985  14.840  0.3942 -0.0627 -0.1559
  923DOPC   C3A10827   2.075  27.385  14.699  0.0898  0.0726  0.0896
  923DOPC   C4A10828   2.004  27.795  14.395  0.3752 -0.1754 -0.2274
  923DOPC   C1B10829   2.001  26.774  15.244  0.0539  0.2255 -0.1253
  923DOPC   D2B10830   1.948  26.561  14.795  0.1266  0.2515  0.1019
  923DOPC   C3B10831   1.910  26.917  14.481 -0.2614 -0.3512 -0.4306
  923DOPC   C4B10832   1.874  27.069  14.067 -0.2102 -0.0121  0.4286
  924DOPE   NH310833   1.848  25.461  15.689  0.0246 -0.2614 -0.0223
  924DOPE   PO410834   2.150  25.547  15.693 -0.1818  0.4869  0.4072
  924DOPE   GL110835   2.273  25.595  15.359 -0.1610  0.3465  0.1012
  924DOPE   GL210836   2.224  25.355  15.222 -0.0623 -0.1645  0.1438
  924DOPE   C1A10837   2.287  25.821  14.936  0.2549 -0.0693  0.0877
  924DOPE   D2A10838   2.499  26.047  14.610  0.0671  0.0132  0.2769
  924DOPE   C3A10839   2.714  25.712  14.315  0.1664 -0.1294  0.0843
  924DOPE   C4A10840   2.719  25.428  13.929 -0.5748  0.1130  0.0573
  924DOPE   C1B10841   2.269  25.334  14.750  0.0081 -0.2649 -0.2389
  924DOPE   D2B10842   2.256  25.697  14.452  0.1583  0.0703  0.1034
  924DOPE   C3B10843   2.239  25.761  14.001  0.0130  0.2357 -0.2142
  924DOPE   C4B10844   2.237  25.498  13.632 -0.1488 -0.1288  0.2445
  925DOPC   NC310845   1.187  27.958  15.847 -0.1744  0.1344 -0.0664
  925DOPC   PO410846   1.237  27.612  15.989  0.1141 -0.0716  0.0663
  925DOPC   GL110847   1.100  27.507  15.587  0.1174  0.1026 -0.2910
  925DOPC   GL210848   1.210  27.747  15.375  0.0086 -0.2740  0.0520
  925DOPC   C1A10849   0.790  27.614  15.265 -0.3079  0.1289  0.2658
  925DOPC   D2A10850   0.603  27.746  14.840  0.0610 -0.0016  0.0337
  925DOPC   C3A10851   0.252  27.711  14.534 -0.0371 -0.0927 -0.3537
  925DOPC   C4A10852   0.110  27.952  14.175 -0.1393  0.3899  0.2188
  925DOPC   C1B10853   1.264  27.997  14.986  0.0347  0.1425 -0.4203
  925DOPC   D2B10854   1.219  27.793  14.535 -0.1610 -0.1261 -0.1163
  925DOPC   C3B10855   1.213  27.901  14.140  0.0413  0.0719  0.0135
  925DOPC   C4B10856   1.174  28.349  14.000  0.0678 -0.1456  0.2500
  926POSM   NC310857   9.522  31.012  15.662  0.1818 -0.2055 -0.0423
  926POSM   PO410858   9.727  30.710  15.855  0.0195 -0.1177  0.1228
  926POSM   AM110859   9.796  30.570  15.584  0.3832  0.1284 -0.0190
  926POSM   AM210860   9.648  30.347  15.493  0.0930  0.1081  0.1738
  926POSM   T1A10861   9.958  30.425  15.132  0.1529  0.1582 -0.1431
  926POSM   C2A10862  10.129  30.116  14.775 -0.4062 -0.3504  0.0458
  926POSM   C3A10863  10.503  29.909  14.582 -0.1691  0.4913  0.0899
  926POSM   C1B10864   9.435  30.364  15.220  0.0983 -0.0861  0.0606
  926POSM   D2B10865   9.097  30.309  14.908 -0.1088  0.0535 -0.0318
  926POSM   C3B10866   8.918  29.972  14.647 -0.1369  0.0777 -0.1354
  926POSM   C4B10867   8.961  29.831  14.218  0.1599 -0.1242 -0.1163
  927POSM   NC310868  34.548  33.406  16.259  0.0290  0.0016 -0.1308
  927POSM   PO410869  34.897  33.253  16.319 -0.3140 -0.0065  0.0307
  927POSM   AM110870  35.142  33.307  16.105 -0.2074  0.5785  0.5434
  927POSM   AM210871  35.424  33.410  16.174 -0.1942  0.0033 -0.1286
  927POSM   T1A10872  35.480  33.132  15.752  0.0653 -0.2052  0.0718
  927POSM   C2A10873  35.624  32.799  15.392 -0.0042 -0.0574 -0.3143
  927POSM   C3A10874  35.521  32.686  14.982 -0.0179  0.1241 -0.0385
  927POSM   C1B10875  35.485  33.577  15.915 -0.1806 -0.1433  0.3357
  927POSM   D2B10876  35.639  33.650  15.494 -0.0246 -0.2622  0.0606
  927POSM   C3B10877  35.655  33.264  15.267  0.1019  0.4249 -0.2545
  927POSM   C4B10878  35.851  33.156  14.901  0.0319  0.2217  0.2267
  928POSM   NC310879   3.591  29.281  16.660  0.2002 -0.0597  0.0544
  928POSM   PO410880   3.523  29.061  16.390 -0.0562  0.2098 -0.2464
  928POSM   AM110881   3.320  29.104  16.121  0.1295 -0.2385 -0.2261
  928POSM   AM210882   3.100  29.138  15.929  0.1422 -0.2331 -0.3008
  928POSM   T1A10883   3.435  29.080  15.611 -0.4017 -0.2252  0.2840
  928POSM   C2A10884   3.368  29.178  15.148  0.2610 -0.1987  0.2306
  928POSM   C3A10885   3.525  29.348  14.755  0.0826 -0.0065 -0.2291
  928POSM   C1B10886   3.017  29.372  15.682 -0.0063  0.2267 -0.1580
  928POSM   D2B10887   2.948  29.338  15.227 -0.0101 -0.0670 -0.0627
  928POSM   C3B10888   3.043  29.406  14.793 -0.1930  0.1698 -0.0573
  928POSM   C4B10889   2.796  29.576  14.441  0.1192  0.1629  0.0362
  929POSM   NC310890   3.454  33.978  16.390 -0.0219 -0.0102 -0.2215
  929POSM   PO410891   3.478  34.366  16.456 -0.0028 -0.1520  0.1556
  929POSM   AM110892   3.447  34.522  16.188 -0.2832 -0.2832  0.0800
  929POSM   AM210893   3.406  34.754  16.094  0.2288 -0.1604 -0.0499
  929POSM   T1A10894   3.144  34.468  15.780  0.2074  0.3102 -0.1935
  929POSM   C2A10895   2.992  34.544  15.378  0.0046 -0.2379 -0.2194
  929POSM   C3A10896   3.024  34.557  14.930 -0.1662  0.0534  0.0772
  929POSM   C1B10897   3.495  34.812  15.748  0.1371  0.0460  0.1265
  929POSM   D2B10898   3.365  34.848  15.313  0.2674  0.1864 -0.1262
  929POSM   C3B10899   3.597  34.734  14.873  0.1346  0.0735 -0.0563
  929POSM   C4B10900   3.835  34.866  14.495  0.1698  0.1162  0.1440
  930DOPC   NC310901  11.820  30.141  15.459 -0.2350 -0.2263 -0.3052
  930DOPC   PO410902  11.453  30.314  15.363  0.1745  0.1424 -0.0843
  930DOPC   GL110903  11.517  30.685  15.189  0.6268  0.4051 -0.1071
  930DOPC   GL210904  11.788  30.687  15.273  0.0438  0.0798 -0.0799
  930DOPC   C1A10905  11.208  30.999  15.017  0.3554 -0.2492  0.1330
  930DOPC   D2A10906  11.085  31.166  14.607  0.1591 -0.1070  0.2162
  930DOPC   C3A10907  10.777  31.277  14.326  0.3064 -0.1713 -0.0305
  930DOPC   C4A10908  10.706  31.464  13.973  0.2126 -0.1610 -0.0702
  930DOPC   C1B10909  11.809  30.462  14.874  0.0047  0.4886  0.0374
  930DOPC   D2B10910  11.613  30.304  14.503 -0.3737 -0.1350  0.1236
  930DOPC   C3B10911  11.708  30.565  14.124 -0.2105  0.2075  0.1112
  930DOPC   C4B10912  11.745  30.881  13.786  0.1706 -0.1669 -0.0458
  931POSM   NC310913  10.619  30.200  15.686  0.2495  0.0107 -0.0503
  931POSM   PO410914  10.998  30.209  15.635 -0.3268  0.0183 -0.1153
  931POSM   AM110915  11.001  30.450  15.377 -0.0310 -0.0129 -0.1023
  931POSM   AM210916  10.825  30.633  15.228 -0.1306 -0.2373  0.0521
  931POSM   T1A10917  11.121  30.399  14.841 -0.1982  0.0115 -0.4805
  931POSM   C2A10918  11.108  30.680  14.542 -0.3795 -0.3010 -0.0169
  931POSM   C3A10919  10.987  30.769  14.122  0.2647 -0.1373  0.3737
  931POSM   C1B10920  10.729  30.796  14.893 -0.0831  0.1045 -0.1475
  931POSM   D2B10921  10.483  30.904  14.494  0.2746  0.1930 -0.2726
  931POSM   C3B10922  10.338  31.063  14.028 -0.0048  0.2944  0.5960
  931POSM   C4B10923  10.271  31.411  13.697  0.2487 -0.1580 -0.0356
  932DOPS   CNO10924   4.679  29.138  15.884  0.0910  0.0484 -0.0859
  932DOPS   PO410925   4.938  29.353  15.759 -0.2771  0.0396 -0.3569
  932DOPS   GL110926   4.880  29.263  15.452 -0.2651  0.0597 -0.1987
  932DOPS   GL210927   5.078  29.174  15.272  0.2137  0.3103 -0.0169
  932DOPS   C1A10928   4.862  29.546  15.060 -0.2083  0.0228 -0.2826
  932DOPS   D2A10929   4.792  29.626  14.590 -0.0446  0.1413 -0.2341
  932DOPS   C3A10930   5.182  29.630  14.356  0.0346 -0.1218 -0.1847
  932DOPS   C4A10931   5.570  29.830  14.212 -0.0785  0.0245  0.0933
  932DOPS   C1B10932   5.036  29.079  14.847  0.1205 -0.1662  0.0311
  932DOPS   D2B10933   4.800  29.160  14.488  0.1252 -0.1454  0.0360
  932DOPS   C3B10934   4.938  29.273  14.064 -0.2003  0.0903  0.0824
  932DOPS   C4B10935   5.314  29.451  13.902  0.0406  0.0831  0.1194
  933DOPS   CNO10936   0.059  30.102  16.114 -0.0591  0.3917 -0.0944
  933DOPS   PO410937   0.302  30.389  16.151  0.0532  0.1451 -0.2760
  933DOPS   GL110938   0.470  30.407  15.847 -0.1066  0.0877  0.1578
  933DOPS   GL210939   0.386  30.194  15.694  0.0719 -0.0878  0.0964
  933DOPS   C1A10940   0.804  30.684  15.645  0.1449 -0.0101  0.2213
  933DOPS   D2A10941   1.113  30.593  15.298  0.2093 -0.2769  0.0339
  933DOPS   C3A10942   1.357  30.229  15.246 -0.0610 -0.3110 -0.0606
  933DOPS   C4A10943   1.193  29.837  15.420 -0.3112 -0.0011 -0.0407
  933DOPS   C1B10944  -0.006  30.275  15.351  0.1709  0.1321 -0.0869
  933DOPS   D2B10945  -0.227  30.468  15.000  0.2258  0.0088  0.1378
  933DOPS   C3B10946  -0.539  30.294  14.673  0.2848 -0.1193 -0.0895
  933DOPS   C4B10947  -0.862  30.446  14.385  0.2665  0.1472  0.2562
  934DOPS   CNO10948   5.314  30.911  16.033  0.1558 -0.0608  0.0106
  934DOPS   PO410949   5.574  31.177  16.188  0.3315 -0.1156 -0.2047
  934DOPS   GL110950   5.614  31.105  15.792  0.1172  0.1426 -0.2034
  934DOPS   GL210951   5.693  30.871  15.772 -0.0008  0.0362 -0.1146
  934DOPS   C1A10952   5.321  31.101  15.407  0.1443  0.0407  0.1837
  934DOPS   D2A10953   5.447  31.288  14.974 -0.1140 -0.0020 -0.0729
  934DOPS   C3A10954   5.573  30.995  14.637  0.0549 -0.4390  0.1455
  934DOPS   C4A10955   5.729  31.048  14.177 -0.2963 -0.0572 -0.0318
  934DOPS   C1B10956   5.912  30.840  15.313  0.1048  0.0161 -0.1298
  934DOPS   D2B10957   6.300  30.892  15.134  0.2797  0.0458  0.1703
  934DOPS   C3B10958   6.562  30.909  14.755 -0.0618  0.0601 -0.0250
  934DOPS   C4B10959   6.757  30.950  14.412  0.1304  0.0994 -0.1112
  935POSM   NC310960   7.198  27.199  16.740 -0.0046 -0.1340 -0.0580
  935POSM   PO410961   7.326  26.867  16.576  0.1813 -0.2548  0.3336
  935POSM   AM110962   7.599  26.866  16.360  0.2012  0.2085  0.0374
  935POSM   AM210963   7.864  26.723  16.321 -0.0426  0.0169  0.0024
  935POSM   T1A10964   7.898  27.102  16.000  0.1486  0.1366 -0.0668
  935POSM   C2A10965   7.902  26.928  15.561  0.3696  0.0536 -0.0587
  935POSM   C3A10966   7.783  26.936  15.117  0.3227 -0.0877  0.1091
  935POSM   C1B10967   7.848  26.565  15.967  0.1090  0.1112  0.2799
  935POSM   D2B10968   8.095  26.493  15.525 -0.1759  0.1652  0.0973
  935POSM   C3B10969   8.130  26.555  15.072 -0.3510 -0.1888 -0.1531
  935POSM   C4B10970   8.315  26.489  14.641  0.0028 -0.1245 -0.0602
  936DOPE   NH310971   7.913   0.566  15.671 -0.1495 -0.3725  0.1323
  936DOPE   PO410972   8.236   0.486  15.609 -0.0073 -0.3195 -0.1810
  936DOPE   GL110973   8.064   0.358  15.272  0.1633 -0.1592  0.0377
  936DOPE   GL210974   8.032   0.086  15.323  0.1247  0.1210  0.1696
  936DOPE   C1A10975   8.135   0.307  14.778  0.3670  0.0667  0.1557
  936DOPE   D2A10976   7.891   0.256  14.360  0.2407 -0.0784  0.0972
  936DOPE   C3A10977   8.132   0.010  14.025 -0.2846  0.1158 -0.1425
  936DOPE   C4A10978   8.422  -0.287  13.928  0.0744 -0.1690  0.2911
  936DOPE   C1B10979   7.918  -0.323  15.082  0.0409 -0.0157 -0.2904
  936DOPE   D2B10980   7.780  -0.719  14.924  0.3369 -0.0947  0.2542
  936DOPE   C3B10981   7.636  -0.686  14.457  0.3681 -0.1735 -0.2548
  936DOPE   C4B10982   7.608  -0.393  14.105  0.1839  0.0167  0.0329
  937POSM   NC310983   5.441  24.104  15.732 -0.1680  0.1357 -0.1246
  937POSM   PO410984   5.207  24.227  16.015  0.0796  0.0828 -0.0017
  937POSM   AM110985   5.012  24.141  15.791 -0.3314  0.2817  0.3896
  937POSM   AM210986   4.908  24.312  15.592  0.2654  0.0918  0.0763
  937POSM   T1A10987   4.706  23.815  15.488  0.1364 -0.3086 -0.1626
  937POSM   C2A10988   4.311  23.570  15.342  0.0407  0.0038  0.0564
  937POSM   C3A10989   3.917  23.643  15.226  0.3848  0.3887 -0.2789
  937POSM   C1B10990   4.979  24.429  15.275  0.1738 -0.0154  0.1794
  937POSM   D2B10991   4.744  24.607  14.897 -0.1794  0.1210 -0.3946
  937POSM   C3B10992   4.748  24.374  14.529 -0.2021  0.0563 -0.0465
  937POSM   C4B10993   4.708  24.389  14.046 -0.0687 -0.4085 -0.0886
  938DOPS   CNO10994   7.032  29.712  16.284 -0.0786 -0.4975 -0.0764
  938DOPS   PO410995   7.225  29.750  15.974  0.2624 -0.0108 -0.0898
  938DOPS   GL110996   7.469  29.770  15.678 -0.3160  0.1391 -0.0732
  938DOPS   GL210997   7.229  29.766  15.493 -0.2516 -0.1219 -0.1258
  938DOPS   C1A10998   7.485  30.143  15.323  0.0105 -0.2608  0.1362
  938DOPS   D2A10999   7.461  30.443  14.977  0.1037  0.0520  0.1138
  938DOPS   C3A11000   7.538  30.471  14.559 -0.2529  0.0848 -0.0576
  938DOPS   C4A11001   7.650  30.494  14.151  0.0708  0.1411  0.1185
  938DOPS   C1B11002   6.813  29.930  15.272  0.0602 -0.1767  0.1506
  938DOPS   D2B11003   6.618  29.829  14.873  0.2692  0.0979  0.0999
  938DOPS   C3B11004   6.562  29.933  14.396 -0.0751 -0.0705  0.2581
  938DOPS   C4B11005   6.835  29.802  14.035  0.1525  0.1751 -0.1033
  939POSM   NC311006  10.266  27.997  16.029  0.1166 -0.1773 -0.0445
  939POSM   PO411007  10.294  28.366  15.888  0.1420  0.1260  0.1179
  939POSM   AM111008  10.120  28.399  15.656  0.0842 -0.0929 -0.1226
  939POSM   AM211009  10.108  28.300  15.389  0.2831 -0.0767 -0.0291
  939POSM   T1A11010   9.664  28.546  15.533 -0.1624  0.0231 -0.2247
  939POSM   C2A11011   9.413  28.192  15.220 -0.0290 -0.0854 -0.1341
  939POSM   C3A11012   9.238  27.804  15.026  0.0744  0.3630  0.1546
  939POSM   C1B11013  10.228  28.208  15.094 -0.0416  0.0441  0.0391
  939POSM   D2B11014  10.197  28.071  14.615  0.0213 -0.0326 -0.0825
  939POSM   C3B11015  10.168  28.241  14.200  0.3853 -0.0382 -0.0082
  939POSM   C4B11016  10.128  28.628  13.967 -0.2732 -0.0599  0.1150
  940POSM   NC311017   5.500  26.708  16.289  0.3049 -0.1839 -0.0311
  940POSM   PO411018   5.349  26.362  16.199  0.1510  0.2694 -0.2398
  940POSM   AM111019   5.479  26.482  15.901 -0.0120 -0.0933  0.1672
  940POSM   AM211020   5.441  26.705  15.755 -0.1604 -0.2527  0.0494
  940POSM   T1A11021   5.706  26.498  15.419  0.1963  0.3353 -0.0537
  940POSM   C2A11022   5.585  26.493  14.952 -0.0652 -0.3224  0.1919
  940POSM   C3A11023   5.902  26.673  14.659 -0.1460  0.2199 -0.1993
  940POSM   C1B11024   5.285  26.782  15.437 -0.4017  0.1048 -0.0331
  940POSM   D2B11025   5.276  27.058  15.035 -0.0184 -0.0267  0.2460
  940POSM   C3B11026   5.433  27.486  14.991  0.1847  0.2698 -0.3293
  940POSM   C4B11027   5.299  27.829  14.741 -0.2536 -0.0526 -0.1664
  941POSM   NC311028   2.994  31.287  16.241 -0.1728  0.0115 -0.0142
  941POSM   PO411029   2.725  31.490  16.455 -0.4752 -0.2050 -0.0975
  941POSM   AM111030   2.469  31.374  16.271 -0.2345 -0.0631 -0.2013
  941POSM   AM211031   2.329  31.152  16.179  0.1377  0.0929  0.1072
  941POSM   T1A11032   1.983  31.378  16.009  0.1658 -0.1186  0.1601
  941POSM   C2A11033   1.789  31.746  15.802 -0.0207 -0.2363  0.1744
  941POSM   C3A11034   1.534  31.871  15.451  0.0322  0.0578  0.1961
  941POSM   C1B11035   2.409  31.276  15.869 -0.1795 -0.2781 -0.2024
  941POSM   D2B11036   2.333  31.546  15.483  0.2384  0.3102 -0.1527
  941POSM   C3B11037   2.371  31.474  15.028  0.1122  0.0012  0.0874
  941POSM   C4B11038   2.250  31.374  14.572 -0.0343 -0.1153  0.3466
  942DOPE   NH311039  11.102  31.094  16.009 -0.1281 -0.1045 -0.1898
  942DOPE   PO411040  11.266  31.281  15.790 -0.0235 -0.0362 -0.3119
  942DOPE   GL111041  11.461  31.321  15.456 -0.2809 -0.0463  0.0279
  942DOPE   GL211042  11.569  31.108  15.379 -0.1172 -0.0285  0.2164
  942DOPE   C1A11043  11.500  31.475  14.997  0.2033  0.2063 -0.6288
  942DOPE   D2A11044  11.498  31.374  14.525  0.0062 -0.0545 -0.1853
  942DOPE   C3A11045  11.190  31.663  14.386  0.2125 -0.1467 -0.1489
  942DOPE   C4A11046  11.184  31.761  13.937  0.1327 -0.0796  0.3414
  942DOPE   C1B11047  11.704  31.032  14.906  0.5308 -0.1862  0.0948
  942DOPE   D2B11048  11.740  30.868  14.497  0.0293  0.2182 -0.2457
  942DOPE   C3B11049  11.402  31.006  14.240 -0.0299 -0.0093  0.0681
  942DOPE   C4B11050  11.275  31.274  13.890  0.0504 -0.0136 -0.0469
  943DOPE   NH311051   1.328  31.051  16.350 -0.1133 -0.1763 -0.2071
  943DOPE   PO411052   1.063  30.871  16.375  0.0353 -0.2404  0.1473
  943DOPE   GL111053   1.179  30.748  16.027 -0.0319  0.1541  0.1299
  943DOPE   GL211054   1.405  30.534  16.114 -0.3954  0.0268 -0.0860
  943DOPE   C1A11055   1.331  30.888  15.638 -0.3027  0.1546 -0.2349
  943DOPE   D2A11056   1.594  30.872  15.213  0.1784  0.0104 -0.0546
  943DOPE   C3A11057   1.498  31.061  14.812  0.0590  0.6192  0.1794
  943DOPE   C4A11058   1.381  31.119  14.373  0.2250  0.0276  0.1968
  943DOPE   C1B11059   1.116  30.341  15.802  0.0547  0.0741 -0.0497
  943DOPE   D2B11060   0.822  30.179  15.471 -0.0844 -0.1670  0.0043
  943DOPE   C3B11061   0.913  30.097  14.998  0.0927  0.2533  0.1063
  943DOPE   C4B11062   1.230  29.794  14.784  0.1283 -0.0335  0.2122
  944DOPS   CNO11063  10.676  24.382  16.318 -0.0350  0.0216 -0.2479
  944DOPS   PO411064  10.806  24.660  16.072 -0.0669  0.2065 -0.1789
  944DOPS   GL111065  10.632  24.280  15.865  0.0175 -0.2667  0.0146
  944DOPS   GL211066  10.433  24.423  15.693  0.1493  0.1051 -0.1765
  944DOPS   C1A11067  10.628  23.955  15.538 -0.1004  0.0928  0.3295
  944DOPS   D2A11068  10.742  23.670  15.239  0.4242  0.2961  0.1601
  944DOPS   C3A11069  10.629  23.232  15.324 -0.1639  0.2781  0.5933
  944DOPS   C4A11070  10.622  22.893  15.570 -0.1806 -0.2650 -0.1209
  944DOPS   C1B11071  10.544  24.367  15.258  0.2461 -0.3295  0.2180
  944DOPS   D2B11072  10.910  24.143  15.027 -0.0857  0.2745  0.1332
  944DOPS   C3B11073  11.011  24.183  14.575 -0.0318  0.0535  0.0496
  944DOPS   C4B11074  11.304  24.352  14.334  0.1380  0.1847 -0.3502
  945DOPS   CNO11075   0.720  27.524  15.862  0.0319  0.1596 -0.4930
  945DOPS   PO411076   0.406  27.665  15.899 -0.0232 -0.0499  0.2648
  945DOPS   GL111077   0.436  27.673  15.494  0.1785  0.0118 -0.3368
  945DOPS   GL211078   0.400  27.921  15.311 -0.0777  0.4150 -0.4888
  945DOPS   C1A11079   0.229  27.490  15.110  0.2115 -0.0833  0.3835
  945DOPS   D2A11080  -0.117  27.552  14.798  0.0601 -0.0941 -0.0809
  945DOPS   C3A11081  -0.314  27.675  14.366 -0.1269  0.0482  0.3011
  945DOPS   C4A11082  -0.482  27.398  14.021  0.0984  0.0937 -0.1481
  945DOPS   C1B11083  -0.022  27.943  15.097 -0.2252 -0.5110 -0.0689
  945DOPS   D2B11084  -0.356  28.078  14.880  0.0178  0.4043  0.2372
  945DOPS   C3B11085  -0.064  28.241  14.545  0.3566 -0.4215  0.1096
  945DOPS   C4B11086  -0.039  28.507  14.140 -0.3379  0.1533 -0.3189
  946DOPE   NH311087   4.329  32.300  15.783 -0.0679 -0.2997 -0.0675
  946DOPE   PO411088   3.988  32.351  15.741  0.0222  0.2742  0.3038
  946DOPE   GL111089   4.067  32.573  15.446  0.0393 -0.2263  0.1706
  946DOPE   GL211090   4.309  32.563  15.339  0.1369 -0.3601  0.4744
  946DOPE   C1A11091   3.893  32.629  14.985  0.2691  0.1087 -0.1589
  946DOPE   D2A11092   3.613  32.891  14.721  0.0331 -0.2697  0.0884
  946DOPE   C3A11093   3.675  33.230  14.373 -0.1461 -0.2211 -0.0587
  946DOPE   C4A11094   3.912  33.335  14.015  0.0407  0.0232  0.1225
  946DOPE   C1B11095   4.283  32.316  14.969 -0.0232  0.2684  0.5433
  946DOPE   D2B11096   4.060  32.286  14.574  0.1467  0.2616 -0.0683
  946DOPE   C3B11097   4.201  32.424  14.124  0.1371 -0.2894 -0.1910
  946DOPE   C4B11098   4.337  32.350  13.706 -0.0273 -0.3970 -0.0721
  947DOPC   NC311099   4.625  32.981  15.334  0.1585  0.0655 -0.1610
  947DOPC   PO411100   4.775  33.195  15.641  0.1572  0.2593 -0.1442
  947DOPC   GL111101   4.598  33.440  15.424 -0.1832  0.0853 -0.4079
  947DOPC   GL211102   4.776  33.618  15.291  0.0239  0.4256 -0.2719
  947DOPC   C1A11103   4.230  33.543  15.164  0.3060 -0.4205  0.1851
  947DOPC   D2A11104   4.049  33.664  14.738 -0.0093 -0.1436  0.1192
  947DOPC   C3A11105   4.012  34.068  14.527 -0.0890 -0.2194 -0.0980
  947DOPC   C4A11106   3.783  34.433  14.364 -0.2801 -0.0705 -0.1630
  947DOPC   C1B11107   5.017  33.641  14.981  0.4742  0.3084 -0.1813
  947DOPC   D2B11108   5.095  33.380  14.609 -0.2132 -0.1261 -0.0800
  947DOPC   C3B11109   5.327  33.020  14.589  0.0359 -0.0216  0.1102
  947DOPC   C4B11110   5.737  32.867  14.523 -0.1031 -0.2184 -0.1577
  948DOPE   NH311111   5.868  31.572  15.969  0.0366 -0.0809  0.1236
  948DOPE   PO411112   5.912  31.921  16.014  0.2314 -0.0471 -0.1111
  948DOPE   GL111113   5.891  32.147  15.673 -0.4049 -0.4807  0.0831
  948DOPE   GL211114   5.957  31.904  15.462  0.2238 -0.2012 -0.2811
  948DOPE   C1A11115   6.109  32.405  15.397  0.2588  0.1452  0.1039
  948DOPE   D2A11116   6.510  32.288  15.315 -0.0362 -0.2574  0.0243
  948DOPE   C3A11117   6.553  31.947  15.026 -0.4244  0.1608 -0.0233
  948DOPE   C4A11118   6.831  31.843  14.696 -0.0011  0.0282 -0.2384
  948DOPE   C1B11119   6.049  32.074  15.047 -0.1167  0.6108 -0.1072
  948DOPE   D2B11120   6.254  32.063  14.650  0.0511 -0.2231  0.0486
  948DOPE   C3B11121   6.396  31.650  14.539  0.0117 -0.0475 -0.0566
  948DOPE   C4B11122   6.265  31.227  14.314 -0.2798 -0.0332 -0.0832
  949DOPC   NC311123  34.427  26.073  15.807 -0.2130 -0.2592  0.1108
  949DOPC   PO411124  34.661  25.793  15.677  0.0186  0.0045 -0.0394
  949DOPC   GL111125  34.526  25.734  15.332  0.2318  0.4122  0.3081
  949DOPC   GL211126  34.657  26.035  15.239 -0.2552  0.0996 -0.1498
  949DOPC   C1A11127  34.201  25.654  15.017  0.3943 -0.0823  0.0113
  949DOPC   D2A11128  34.093  25.753  14.546  0.0501  0.0726 -0.1171
  949DOPC   C3A11129  34.457  25.511  14.334  0.1600 -0.3140 -0.1179
  949DOPC   C4A11130  34.715  25.141  14.243 -0.1485  0.0582 -0.0140
  949DOPC   C1B11131  34.687  26.462  15.213  0.2854 -0.1544 -0.0254
  949DOPC   D2B11132  34.865  26.935  15.124  0.0527  0.3274  0.1972
  949DOPC   C3B11133  34.837  27.102  14.735 -0.2499 -0.1580 -0.0289
  949DOPC   C4B11134  34.612  27.211  14.381  0.3118  0.1297  0.0936
  950DOPE   NH311135   9.840  28.042  15.725 -0.0184 -0.2993 -0.2500
  950DOPE   PO411136   9.906  27.742  15.744  0.1267 -0.1437  0.0722
  950DOPE   GL111137   9.645  27.676  15.435 -0.0053  0.0998 -0.2522
  950DOPE   GL211138   9.745  27.903  15.290 -0.2359 -0.3435  0.1922
  950DOPE   C1A11139   9.702  27.612  14.939 -0.0481  0.2389  0.3413
  950DOPE   D2A11140   9.803  27.733  14.497  0.0150  0.2038 -0.0375
  950DOPE   C3A11141  10.054  27.709  14.142  0.0165  0.0494  0.0586
  950DOPE   C4A11142  10.399  27.671  13.900  0.1658  0.0244  0.1971
  950DOPE   C1B11143   9.678  28.075  14.846 -0.1916 -0.0657 -0.0883
  950DOPE   D2B11144   9.399  28.120  14.461 -0.0653 -0.1488 -0.1353
  950DOPE   C3B11145   9.677  28.069  14.058 -0.1304  0.0053  0.0618
  950DOPE   C4B11146  10.021  27.987  13.754  0.1238  0.2911 -0.2217
  951DOPE   NH311147   9.844  31.154  16.056 -0.3790 -0.0405  0.0015
  951DOPE   PO411148   9.756  31.423  15.904  0.2197  0.0964  0.1406
  951DOPE   GL111149   9.836  31.351  15.498  0.2339 -0.1685  0.5039
  951DOPE   GL211150   9.968  31.108  15.507  0.0104 -0.1403 -0.0482
  951DOPE   C1A11151   9.909  31.293  15.005 -0.4515 -0.1919 -0.0993
  951DOPE   D2A11152  10.073  31.235  14.621  0.2947  0.0668 -0.2389
  951DOPE   C3A11153   9.828  31.069  14.286  0.2200 -0.1740  0.0427
  951DOPE   C4A11154   9.917  30.911  13.855 -0.0324 -0.1027 -0.1142
  951DOPE   C1B11155   9.805  30.858  15.192 -0.1950  0.1147  0.0613
  951DOPE   D2B11156   9.678  30.811  14.771 -0.0792 -0.1402 -0.1247
  951DOPE   C3B11157   9.615  30.362  14.761 -0.0276 -0.1200  0.1099
  951DOPE   C4B11158   9.430  30.042  14.477 -0.0375  0.3156 -0.1841
  952DOPC   NC311159   3.303  23.474  15.891 -0.1974 -0.1498  0.1515
  952DOPC   PO411160   3.010  23.724  16.024 -0.0273 -0.2509 -0.0464
  952DOPC   GL111161   2.833  23.436  15.751 -0.2300 -0.0540 -0.1615
  952DOPC   GL211162   2.748  23.687  15.503  0.0771  0.0514  0.2069
  952DOPC   C1A11163   3.048  23.288  15.371  0.3975  0.0091 -0.1776
  952DOPC   D2A11164   2.864  23.154  14.959  0.0744 -0.2297  0.6507
  952DOPC   C3A11165   2.862  23.386  14.539 -0.0482  0.2755 -0.3409
  952DOPC   C4A11166   2.768  23.585  14.138  0.0748 -0.1807  0.0552
  952DOPC   C1B11167   2.337  23.623  15.701 -0.2260 -0.0882 -0.0263
  952DOPC   D2B11168   2.046  23.266  15.527 -0.0116  0.1392  0.1080
  952DOPC   C3B11169   2.058  23.205  15.040  0.0368  0.2038 -0.1979
  952DOPC   C4B11170   2.414  23.292  14.742 -0.0963  0.1839 -0.0167
  953DOPC   NC311171  10.912  27.776  15.450 -0.1100  0.0845  0.0091
  953DOPC   PO411172  10.704  27.459  15.535  0.2332 -0.0347 -0.2464
  953DOPC   GL111173  10.732  27.440  15.148 -0.0159 -0.0381  0.1277
  953DOPC   GL211174  10.458  27.294  15.059  0.1288 -0.0740 -0.1185
  953DOPC   C1A11175  10.785  27.108  14.755  0.1238  0.0901  0.0004
  953DOPC   D2A11176  10.903  26.980  14.302 -0.1477 -0.0931 -0.2039
  953DOPC   C3A11177  10.787  26.655  13.984 -0.1261 -0.2993 -0.1091
  953DOPC   C4A11178  10.837  26.293  13.722 -0.1297  0.0313  0.0780
  953DOPC   C1B11179  10.123  27.314  14.780 -0.1994 -0.1360 -0.0142
  953DOPC   D2B11180   9.837  27.160  14.515  0.0362  0.1096  0.0667
  953DOPC   C3B11181   9.608  27.370  14.206  0.1754  0.3094 -0.3409
  953DOPC   C4B11182   9.275  27.716  14.060  0.3055 -0.1385 -0.0153
  954DOPE   NH311183   7.623  25.194  16.179  0.1342  0.1519 -0.2399
  954DOPE   PO411184   7.534  25.464  16.010  0.1383  0.0644 -0.1369
  954DOPE   GL111185   7.369  25.646  15.671  0.1066 -0.3650 -0.0556
  954DOPE   GL211186   7.647  25.745  15.507 -0.3172 -0.4465 -0.1508
  954DOPE   C1A11187   7.068  25.523  15.365 -0.1876  0.0988 -0.1343
  954DOPE   D2A11188   6.664  25.594  15.088 -0.1400  0.0726 -0.1482
  954DOPE   C3A11189   6.799  25.440  14.733 -0.1293 -0.2310 -0.4090
  954DOPE   C4A11190   7.124  25.622  14.404  0.1784  0.1380  0.1664
  954DOPE   C1B11191   7.817  26.041  15.096  0.0232 -0.0070  0.1871
  954DOPE   D2B11192   7.895  26.055  14.604 -0.2251 -0.3070 -0.0069
  954DOPE   C3B11193   8.347  26.026  14.478  0.0362  0.2772  0.0125
  954DOPE   C4B11194   8.745  25.893  14.208  0.3297 -0.2027 -0.1104
  955DOPE   NH311195  11.420  30.263  15.872  0.2611  0.3233  0.2790
  955DOPE   PO411196  11.527  29.988  15.841  0.3119 -0.1035 -0.0083
  955DOPE   GL111197  11.529  29.796  15.531  0.2776 -0.0844  0.0740
  955DOPE   GL211198  11.279  29.774  15.457 -0.1917  0.0042  0.0909
  955DOPE   C1A11199  11.573  29.427  15.230  0.1753 -0.1161 -0.2658
  955DOPE   D2A11200  11.385  29.352  14.782 -0.1383 -0.4723 -0.3066
  955DOPE   C3A11201  11.274  29.695  14.498 -0.1002 -0.0790  0.1725
  955DOPE   C4A11202  11.064  29.547  14.123  0.0100 -0.2154  0.3300
  955DOPE   C1B11203  11.308  29.772  15.015 -0.2069  0.1929  0.2581
  955DOPE   D2B11204  11.701  29.916  14.847  0.3787  0.0226  0.2398
  955DOPE   C3B11205  11.827  29.679  14.530 -0.2443  0.0141 -0.0855
  955DOPE   C4B11206  11.596  29.385  14.172 -0.1030 -0.1519 -0.1702
  956DOPS   CNO11207   2.267  28.231  16.319  0.1136 -0.2258 -0.0563
  956DOPS   PO411208   2.038  28.081  16.064 -0.1239  0.1705  0.1065
  956DOPS   GL111209   1.923  27.991  15.774 -0.0457 -0.1494 -0.0288
  956DOPS   GL211210   1.685  27.764  15.684 -0.2296  0.0530 -0.1787
  956DOPS   C1A11211   2.107  28.129  15.392 -0.2758  0.2614  0.1317
  956DOPS   D2A11212   1.989  28.422  15.054 -0.2959 -0.3373 -0.0799
  956DOPS   C3A11213   2.050  28.391  14.637 -0.0246 -0.1220 -0.1053
  956DOPS   C4A11214   2.005  28.690  14.257  0.1469  0.0445 -0.0245
  956DOPS   C1B11215   1.756  27.817  15.255  0.1685 -0.2466 -0.2322
  956DOPS   D2B11216   2.038  27.945  14.933  0.0247 -0.1767  0.0607
  956DOPS   C3B11217   1.618  28.083  14.660  0.1464  0.0323  0.3089
  956DOPS   C4B11218   1.431  28.473  14.455  0.2650 -0.0168 -0.0569
  957POSM   NC311219   4.780  33.658  15.831  0.1370  0.0130  0.1675
  957POSM   PO411220   4.574  33.984  15.940 -0.1301  0.0850  0.0046
  957POSM   AM111221   4.696  34.117  15.661  0.1199 -0.0236  0.1036
  957POSM   AM211222   4.894  34.063  15.449 -0.3692  0.0832  0.0505
  957POSM   T1A11223   4.609  34.460  15.334  0.0866  0.2265  0.1321
  957POSM   C2A11224   4.634  34.725  15.014 -0.0651  0.0214  0.3671
  957POSM   C3A11225   4.687  34.797  14.585  0.1755 -0.4769 -0.0746
  957POSM   C1B11226   4.981  34.107  15.170  0.3192 -0.0966  0.1484
  957POSM   D2B11227   4.988  34.452  14.848 -0.1604 -0.2501  0.1229
  957POSM   C3B11228   5.140  34.908  14.731  0.1698 -0.2118 -0.0779
  957POSM   C4B11229   5.417  35.266  14.545  0.0192 -0.0533  0.0672
  958DOPC   NC311230  34.192  29.088  16.853 -0.2558  0.1352 -0.0336
  958DOPC   PO411231  34.434  29.193  16.565  0.0831  0.3127  0.1094
  958DOPC   GL111232  34.733  29.224  16.317  0.2466 -0.2211  0.1303
  958DOPC   GL211233  34.677  28.963  16.166  0.3671  0.1748 -0.0780
  958DOPC   C1A11234  34.706  29.499  15.936 -0.0341  0.0135 -0.0416
  958DOPC   D2A11235  34.755  29.860  15.621 -0.0249 -0.0642  0.2439
  958DOPC   C3A11236  34.657  29.784  15.227  0.1005  0.1110 -0.0058
  958DOPC   C4A11237  34.605  30.015  14.833 -0.0291  0.1545 -0.0059
  958DOPC   C1B11238  35.019  29.116  15.783 -0.1376  0.0829 -0.0894
  958DOPC   D2B11239  34.887  29.431  15.453 -0.0335  0.1499 -0.0054
  958DOPC   C3B11240  34.983  29.531  14.971  0.1128 -0.1804  0.1011
  958DOPC   C4B11241  35.376  29.678  14.769  0.0237  0.2255  0.0848
  959DOPC   NC311242   4.365  26.032  16.145  0.2051  0.0309  0.1508
  959DOPC   PO411243   4.185  26.349  16.183 -0.2088  0.0762  0.2720
  959DOPC   GL111244   4.324  26.504  15.793  0.1373 -0.1368 -0.1362
  959DOPC   GL211245   4.498  26.285  15.624 -0.0803  0.2211 -0.1318
  959DOPC   C1A11246   4.330  26.793  15.383 -0.0882 -0.1453 -0.1615
  959DOPC   D2A11247   4.687  26.993  15.246  0.1699 -0.1314 -0.1183
  959DOPC   C3A11248   4.811  26.945  14.803  0.0039 -0.0035 -0.0236
  959DOPC   C4A11249   4.752  26.986  14.332  0.1715  0.1222 -0.0332
  959DOPC   C1B11250   4.203  26.287  15.262 -0.0402  0.1059  0.0172
  959DOPC   D2B11251   3.925  26.594  15.151  0.0246  0.1487 -0.0333
  959DOPC   C3B11252   4.197  26.927  14.980  0.0008 -0.2254 -0.2366
  959DOPC   C4B11253   4.309  27.195  14.596  0.0370 -0.2072 -0.1620
  960DOPS   CNO11254   3.062  24.674  16.497  0.0547  0.0397  0.0871
  960DOPS   PO411255   3.167  24.775  16.158  0.0285  0.1663  0.0660
  960DOPS   GL111256   3.092  24.775  15.795 -0.0020  0.0362 -0.0786
  960DOPS   GL211257   3.186  24.994  15.675  0.5434 -0.2582 -0.0713
  960DOPS   C1A11258   3.345  24.605  15.397  0.1016 -0.1448 -0.0281
  960DOPS   D2A11259   3.642  24.503  15.049  0.3861  0.0768  0.0769
  960DOPS   C3A11260   3.707  24.281  14.655 -0.0626 -0.0761  0.1514
  960DOPS   C4A11261   3.786  23.844  14.727  0.0580 -0.1190 -0.0822
  960DOPS   C1B11262   3.007  24.996  15.278 -0.0882 -0.0733 -0.3599
  960DOPS   D2B11263   2.773  24.976  14.928  0.0796  0.0926  0.0796
  960DOPS   C3B11264   3.091  24.883  14.614 -0.1615 -0.0852  0.0145
  960DOPS   C4B11265   3.256  24.748  14.233  0.0575  0.1271 -0.0648
  961DOPC   NC311266   9.991  34.388  15.600  0.2640  0.1515  0.0222
  961DOPC   PO411267  10.193  34.735  15.663  0.1938  0.0465  0.4530
  961DOPC   GL111268  10.400  35.001  15.508 -0.1450 -0.2735  0.4155
  961DOPC   GL211269  10.223  35.175  15.332  0.1660  0.0069  0.3665
  961DOPC   C1A11270  10.528  34.958  15.052  0.0739 -0.3178 -0.2261
  961DOPC   D2A11271  10.919  35.052  14.850  0.0283  0.2280 -0.0598
  961DOPC   C3A11272  11.285  34.700  14.905 -0.2288 -0.2696  0.0597
  961DOPC   C4A11273  11.679  34.438  14.749 -0.1055 -0.1039  0.0779
  961DOPC   C1B11274  10.086  35.200  14.903 -0.0663 -0.3823 -0.1206
  961DOPC   D2B11275  10.211  35.130  14.541 -0.1294  0.0805  0.2017
  961DOPC   C3B11276  10.667  35.087  14.448  0.1197  0.4781  0.2343
  961DOPC   C4B11277  10.905  35.199  14.051 -0.0673 -0.0700 -0.0590
  962POSM   NC311278   8.637  27.653  16.863 -0.0098 -0.1687 -0.1603
  962POSM   PO411279   8.681  27.968  16.621 -0.1103 -0.0371  0.1156
  962POSM   AM111280   8.604  27.944  16.300  0.0348  0.4069 -0.0100
  962POSM   AM211281   8.703  28.082  16.056  0.1613  0.5624 -0.0800
  962POSM   T1A11282   8.779  27.640  15.917 -0.1950 -0.1005 -0.1322
  962POSM   C2A11283   8.790  27.176  15.781 -0.1380 -0.3534 -0.1347
  962POSM   C3A11284   8.916  26.710  15.715  0.0313 -0.2100  0.0551
  962POSM   C1B11285   8.860  28.135  15.767  0.1473  0.4286 -0.0412
  962POSM   D2B11286   8.937  28.120  15.334 -0.0303 -0.0160 -0.1104
  962POSM   C3B11287   8.679  28.219  14.998 -0.1232  0.1382 -0.0161
  962POSM   C4B11288   8.475  28.071  14.609 -0.3514  0.1785  0.2198
  963DOPC   NC311289   6.565  25.282  15.919  0.0896  0.0290 -0.1558
  963DOPC   PO411290   6.492  24.919  16.077  0.0307  0.1795  0.0514
  963DOPC   GL111291   6.436  24.838  15.677 -0.4657 -0.2897  0.1372
  963DOPC   GL211292   6.156  24.740  15.713 -0.1048  0.2337  0.0672
  963DOPC   C1A11293   6.430  24.701  15.218  0.1478 -0.2244  0.0753
  963DOPC   D2A11294   6.627  24.528  14.803 -0.3032 -0.2927  0.4988
  963DOPC   C3A11295   6.528  24.480  14.364  0.0058 -0.0166  0.2062
  963DOPC   C4A11296   6.385  24.153  14.045 -0.0466  0.0901 -0.0469
  963DOPC   C1B11297   5.831  24.631  15.370  0.1721 -0.1050  0.0145
  963DOPC   D2B11298   5.792  24.696  14.945 -0.2150 -0.0627 -0.0817
  963DOPC   C3B11299   6.164  24.870  14.720  0.2296  0.2599  0.0952
  963DOPC   C4B11300   6.488  25.162  14.906 -0.0451 -0.4816  0.0546
  964DOPC   NC311301   9.054  23.383  16.194  0.0807  0.1177 -0.0577
  964DOPC   PO411302   9.384  23.553  16.104  0.1714 -0.1779  0.0298
  964DOPC   GL111303   9.276  23.506  15.741 -0.0455  0.0396 -0.0803
  964DOPC   GL211304   9.131  23.802  15.678  0.0875  0.1232 -0.0061
  964DOPC   C1A11305   9.251  23.393  15.280 -0.3083 -0.1216 -0.2854
  964DOPC   D2A11306   9.263  23.354  14.859 -0.0906  0.2107 -0.2614
  964DOPC   C3A11307   9.020  23.319  14.497  0.0581 -0.2725  0.4678
  964DOPC   C4A11308   8.508  23.361  14.351  0.0887  0.1867  0.2722
  964DOPC   C1B11309   9.163  23.898  15.211 -0.0232 -0.0744 -0.0240
  964DOPC   D2B11310   9.251  23.831  14.730  0.0610 -0.1123 -0.1366
  964DOPC   C3B11311   9.569  23.623  14.474  0.1436  0.0048  0.2196
  964DOPC   C4B11312   9.959  23.456  14.241 -0.1089  0.1058 -0.0345
  965DOPE   NH311313   6.054  23.221  16.054  0.0099  0.0888  0.2448
  965DOPE   PO411314   6.385  23.209  16.053  0.0016 -0.0959  0.0346
  965DOPE   GL111315   6.425  23.164  15.717 -0.1158 -0.1311 -0.0268
  965DOPE   GL211316   6.690  23.337  15.604 -0.0700  0.1897 -0.0411
  965DOPE   C1A11317   6.594  22.951  15.303 -0.0875 -0.0663  0.2943
  965DOPE   D2A11318   6.872  22.962  14.983 -0.0943 -0.0425 -0.0923
  965DOPE   C3A11319   6.886  23.170  14.564  0.1121 -0.0523  0.1930
  965DOPE   C4A11320   6.703  23.155  14.159 -0.1716 -0.1614 -0.0386
  965DOPE   C1B11321   7.009  23.316  15.286 -0.0872 -0.0686 -0.0435
  965DOPE   D2B11322   7.097  23.546  14.857  0.3337 -0.1690  0.1420
  965DOPE   C3B11323   6.674  23.632  14.638  0.2598 -0.0185 -0.1091
  965DOPE   C4B11324   6.493  24.042  14.535 -0.1122  0.2787 -0.0148
  966POSM   NC311325  10.641  25.068  16.175 -0.4301 -0.1121 -0.1903
  966POSM   PO411326  10.333  25.308  16.048 -0.0195 -0.2217  0.1169
  966POSM   AM111327  10.318  25.093  15.804  0.0050  0.0945 -0.0576
  966POSM   AM211328  10.506  24.937  15.636  0.2121 -0.1380  0.2126
  966POSM   T1A11329  10.066  24.777  15.594 -0.0660  0.0323  0.4358
  966POSM   C2A11330  10.130  24.631  15.172 -0.0718 -0.4510  0.2754
  966POSM   C3A11331  10.098  24.657  14.703 -0.1407  0.0390  0.2331
  966POSM   C1B11332  10.495  24.891  15.335 -0.1599  0.3907  0.2399
  966POSM   D2B11333  10.583  24.750  14.921 -0.0867 -0.1007  0.3717
  966POSM   C3B11334  10.665  24.930  14.493 -0.0611  0.0467  0.1506
  966POSM   C4B11335  10.751  24.970  14.001 -0.0995 -0.0851  0.0656
  967POSM   NC311336   1.279  30.014  16.341 -0.1073 -0.4838 -0.0029
  967POSM   PO411337   1.587  30.179  16.511  0.0454  0.3484  0.1315
  967POSM   AM111338   1.706  30.207  16.176 -0.2336 -0.0305  0.2925
  967POSM   AM211339   1.957  30.157  16.048  0.2244  0.2791 -0.1639
  967POSM   T1A11340   1.627  30.183  15.692  0.1232 -0.0225 -0.3223
  967POSM   C2A11341   1.871  30.438  15.410 -0.0582  0.0378 -0.0079
  967POSM   C3A11342   2.240  30.611  15.133  0.1381 -0.0101  0.0665
  967POSM   C1B11343   2.154  30.174  15.789  0.0561  0.0654 -0.1519
  967POSM   D2B11344   2.341  30.101  15.387 -0.3538  0.0372 -0.1180
  967POSM   C3B11345   2.527  29.751  15.137 -0.1096 -0.0125 -0.0224
  967POSM   C4B11346   2.532  29.358  14.882  0.2139 -0.2116 -0.0405
  968DOPE   NH311347   1.443  25.178  15.730 -0.0955 -0.0994  0.0840
  968DOPE   PO411348   1.515  24.939  15.910  0.1645  0.1729 -0.0021
  968DOPE   GL111349   1.559  24.678  15.593 -0.0357 -0.5156  0.0465
  968DOPE   GL211350   1.796  24.921  15.467  0.2791 -0.4208 -0.0623
  968DOPE   C1A11351   1.428  24.714  15.132  0.2108 -0.0996  0.1294
  968DOPE   D2A11352   1.536  24.539  14.723 -0.0673  0.0239  0.1609
  968DOPE   C3A11353   1.792  24.618  14.342  0.1077  0.0248  0.2284
  968DOPE   C4A11354   1.969  24.420  13.957 -0.3232 -0.0698  0.0409
  968DOPE   C1B11355   1.913  24.665  15.104 -0.0998  0.0753 -0.1941
  968DOPE   D2B11356   2.074  24.482  14.741 -0.0669  0.0398 -0.0172
  968DOPE   C3B11357   1.855  24.176  14.566  0.1813  0.1108  0.0317
  968DOPE   C4B11358   1.473  24.054  14.433  0.0744 -0.1790  0.1900
  969POSM   NC311359   0.337  25.486  15.855 -0.2312 -0.1815 -0.1644
  969POSM   PO411360   0.711  25.495  16.006  0.1445 -0.1785 -0.0438
  969POSM   AM111361   0.787  25.349  15.743  0.3474 -0.1211 -0.1068
  969POSM   AM211362   0.992  25.312  15.515  0.0576 -0.1708  0.1242
  969POSM   T1A11363   0.743  24.888  15.568  0.1043 -0.2272 -0.0122
  969POSM   C2A11364   1.075  24.596  15.483  0.5519  0.1730  0.3016
  969POSM   C3A11365   1.384  24.256  15.409  0.3237  0.0035  0.3362
  969POSM   C1B11366   1.083  25.061  15.291 -0.0132  0.2106 -0.2564
  969POSM   D2B11367   1.147  24.965  14.832 -0.0950 -0.1294  0.0242
  969POSM   C3B11368   1.322  25.352  14.711  0.1518 -0.0618 -0.1016
  969POSM   C4B11369   1.442  25.495  14.343 -0.2797 -0.2804 -0.1734
  970DOPE   NH311370   4.147  33.334  16.262 -0.0078  0.1974  0.4290
  970DOPE   PO411371   4.269  33.591  16.124 -0.0400  0.0824 -0.0981
  970DOPE   GL111372   4.245  33.733  15.721 -0.2187  0.1939  0.2599
  970DOPE   GL211373   3.981  33.954  15.686 -0.2087 -0.1672  0.2572
  970DOPE   C1A11374   4.400  34.007  15.343 -0.0822 -0.4825  0.0678
  970DOPE   D2A11375   4.365  34.097  14.891 -0.1197  0.0420  0.1659
  970DOPE   C3A11376   4.563  34.216  14.462 -0.1695  0.0767 -0.3506
  970DOPE   C4A11377   4.667  34.446  14.086 -0.0589  0.1030  0.2377
  970DOPE   C1B11378   3.903  34.027  15.276  0.1566 -0.2418  0.2318
  970DOPE   D2B11379   3.860  34.307  14.879 -0.3471 -0.3167 -0.2210
  970DOPE   C3B11380   4.182  34.528  14.669  0.0747 -0.0744 -0.3049
  970DOPE   C4B11381   4.256  34.700  14.224 -0.1034  0.3127  0.0873
  971POSM   NC311382   0.509  28.132  15.850 -0.1432  0.0422 -0.0875
  971POSM   PO411383   0.363  28.467  16.073  0.1726 -0.0769 -0.2334
  971POSM   AM111384   0.302  28.530  15.758  0.4865 -0.0598  0.0828
  971POSM   AM211385   0.474  28.617  15.564 -0.3651 -0.0503  0.0832
  971POSM   T1A11386   0.037  28.650  15.352 -0.1310 -0.0456  0.3197
  971POSM   C2A11387  -0.132  28.706  14.920 -0.0964  0.1117  0.0510
  971POSM   C3A11388  -0.097  28.873  14.520 -0.3675 -0.1159  0.0207
  971POSM   C1B11389   0.501  28.500  15.263 -0.3164 -0.0468 -0.1793
  971POSM   D2B11390   0.286  28.293  14.872  0.1243 -0.1594  0.4879
  971POSM   C3B11391   0.431  28.203  14.457 -0.0252  0.1435  0.1432
  971POSM   C4B11392   0.681  28.446  14.164 -0.0758 -0.1024  0.1363
  972DOPS   CNO11393  11.354  25.498  15.814 -0.4083  0.0796 -0.0965
  972DOPS   PO411394  11.150  25.764  15.621 -0.0936  0.5498 -0.1258
  972DOPS   GL111395  11.181  25.503  15.348  0.0317 -0.0582 -0.2321
  972DOPS   GL211396  11.508  25.507  15.285  0.0677  0.1436 -0.1761
  972DOPS   C1A11397  11.306  25.565  14.874 -0.0923  0.0939  0.0223
  972DOPS   D2A11398  11.517  25.384  14.496  0.0330  0.2809  0.2698
  972DOPS   C3A11399  11.789  25.261  14.136  0.0130  0.2170 -0.0443
  972DOPS   C4A11400  12.059  25.367  13.786 -0.0052  0.1961  0.3555
  972DOPS   C1B11401  11.835  25.496  14.947 -0.1007  0.0182 -0.0483
  972DOPS   D2B11402  11.972  25.558  14.520  0.0580  0.0139 -0.0172
  972DOPS   C3B11403  12.386  25.341  14.534 -0.0379  0.1818 -0.0578
  972DOPS   C4B11404  12.399  24.876  14.630 -0.0394  0.1163 -0.1271
  973DOPC   NC311405   5.369  33.892  15.499  0.0112 -0.1337 -0.0760
  973DOPC   PO411406   5.269  33.646  15.836 -0.0847  0.0932  0.2610
  973DOPC   GL111407   5.320  33.454  15.438  0.1296  0.1177 -0.1877
  973DOPC   GL211408   5.175  33.403  15.426  0.0191  0.2820 -0.4967
  973DOPC   C1A11409   5.487  33.045  15.257 -0.0476  0.0878  0.1197
  973DOPC   D2A11410   5.754  32.724  15.221  0.2690 -0.1729 -0.2459
  973DOPC   C3A11411   5.725  32.414  14.882  0.1353  0.2968 -0.0518
  973DOPC   C4A11412   5.843  32.256  14.475  0.0420  0.2215 -0.0577
  973DOPC   C1B11413   5.069  33.168  15.060  0.0469 -0.1853  0.0593
  973DOPC   D2B11414   4.617  33.280  14.948 -0.1038 -0.0280  0.0324
  973DOPC   C3B11415   4.585  33.679  14.688 -0.3724  0.0972  0.3487
  973DOPC   C4B11416   4.687  33.759  14.254 -0.1510 -0.0217  0.0861
  974DOPS   CNO11417  34.447  33.865  16.357  0.0391  0.2431  0.1203
  974DOPS   PO411418  34.793  33.828  16.243  0.4703 -0.0228 -0.0456
  974DOPS   GL111419  34.893  33.615  15.990  0.2027 -0.3402 -0.0261
  974DOPS   GL211420  34.606  33.687  15.829  0.1351  0.1914 -0.1754
  974DOPS   C1A11421  35.068  33.601  15.560 -0.1537 -0.0137 -0.2564
  974DOPS   D2A11422  35.234  33.684  15.144 -0.2510  0.0702  0.0238
  974DOPS   C3A11423  35.348  34.065  14.946  0.0835  0.0713  0.2168
  974DOPS   C4A11424  35.163  34.500  14.826 -0.6050 -0.1371 -0.1360
  974DOPS   C1B11425  34.665  34.031  15.455  0.1135 -0.0518 -0.1567
  974DOPS   D2B11426  34.872  34.330  15.153 -0.0180  0.2233 -0.0288
  974DOPS   C3B11427  34.681  34.553  14.797 -0.0157 -0.0136  0.0275
  974DOPS   C4B11428  34.616  34.522  14.369 -0.0049 -0.0602  0.0187
  975DOPE   NH311429  10.004  31.806  15.669  0.0790 -0.0967 -0.0391
  975DOPE   PO411430   9.810  32.079  15.582 -0.2418  0.0077  0.3430
  975DOPE   GL111431   9.829  31.989  15.208 -0.1778 -0.1174 -0.1274
  975DOPE   GL211432   9.550  32.169  15.141  0.0872  0.0603  0.1912
  975DOPE   C1A11433   9.933  32.235  14.801 -0.0060 -0.0748 -0.0643
  975DOPE   D2A11434   9.823  32.561  14.467 -0.2348 -0.2019  0.3701
  975DOPE   C3A11435  10.236  32.675  14.343 -0.2995 -0.0335  0.3207
  975DOPE   C4A11436  10.663  32.640  14.210 -0.2033 -0.0429 -0.0914
  975DOPE   C1B11437   9.394  32.178  14.710  0.1203  0.2884  0.0277
  975DOPE   D2B11438   9.078  31.998  14.425  0.0804 -0.1576  0.0812
  975DOPE   C3B11439   8.849  32.075  14.036 -0.0594  0.0553  0.0681
  975DOPE   C4B11440   8.663  32.348  13.672  0.1797  0.2397  0.0399
  976DOPC   NC311441   1.224  29.282  16.408  0.3650  0.2197  0.0357
  976DOPC   PO411442   1.004  29.570  16.275  0.0063  0.0085  0.1524
  976DOPC   GL111443   1.218  29.593  15.994 -0.0671  0.1248 -0.1593
  976DOPC   GL211444   1.516  29.760  15.947 -0.1893 -0.0190 -0.5574
  976DOPC   C1A11445   1.203  29.310  15.600 -0.3313  0.0840 -0.0336
  976DOPC   D2A11446   1.500  29.158  15.225 -0.1105  0.0593 -0.1017
  976DOPC   C3A11447   1.663  29.504  14.991  0.3157 -0.2077  0.1538
  976DOPC   C4A11448   2.121  29.553  14.898  0.2421 -0.3844 -0.0498
  976DOPC   C1B11449   1.627  29.570  15.565  0.2442 -0.0405 -0.1248
  976DOPC   D2B11450   1.977  29.378  15.355  0.0928  0.4393  0.1561
  976DOPC   C3B11451   1.958  29.084  14.986 -0.2028 -0.1071 -0.0177
  976DOPC   C4B11452   1.810  28.793  14.734  0.2326  0.0762 -0.2185
  977DOPS   CNO11453   0.673  25.875  16.357 -0.2988 -0.0628  0.1335
  977DOPS   PO411454   0.394  25.965  16.097 -0.0752  0.0382 -0.2291
  977DOPS   GL111455   0.443  25.886  15.601 -0.8072 -0.2223  0.2232
  977DOPS   GL211456   0.694  25.783  15.634 -0.2875 -0.3329  0.1454
  977DOPS   C1A11457   0.517  26.213  15.269  0.3728 -0.2290 -0.2786
  977DOPS   D2A11458   0.417  26.467  14.868 -0.0853 -0.1292  0.4018
  977DOPS   C3A11459   0.050  26.339  14.672 -0.2376  0.2015 -0.0062
  977DOPS   C4A11460   0.062  26.159  14.243  0.0299  0.0948  0.0069
  977DOPS   C1B11461   0.430  25.706  15.210  0.2307 -0.0028  0.3371
  977DOPS   D2B11462   0.195  25.424  14.858 -0.1123  0.2032  0.0504
  977DOPS   C3B11463   0.434  25.562  14.440  0.1081  0.1073 -0.1362
  977DOPS   C4B11464   0.625  25.827  14.159  0.0842 -0.1179  0.0573
  978DOPC   NC311465   2.577  24.962  15.944 -0.0643 -0.3359  0.0194
  978DOPC   PO411466   2.884  25.233  15.986 -0.1529  0.1329 -0.0501
  978DOPC   GL111467   3.127  25.446  15.802  0.1606  0.1105 -0.2483
  978DOPC   GL211468   3.409  25.487  15.687  0.0997  0.0255  0.1035
  978DOPC   C1A11469   3.170  25.447  15.298 -0.1231  0.0179  0.1384
  978DOPC   D2A11470   3.248  25.422  14.880 -0.2759 -0.1546  0.0137
  978DOPC   C3A11471   3.497  25.263  14.494 -0.1269 -0.1671 -0.1781
  978DOPC   C4A11472   3.976  25.280  14.318  0.0475 -0.0052  0.0326
  978DOPC   C1B11473   3.565  25.718  15.286  0.1770  0.3300 -0.0644
  978DOPC   D2B11474   4.006  25.891  15.130  0.0240  0.2586  0.2211
  978DOPC   C3B11475   3.934  26.192  14.857 -0.2840 -0.1112  0.2834
  978DOPC   C4B11476   3.795  26.479  14.534  0.0136  0.0495  0.4676
  979DOPE   NH311477  10.757  32.116  15.798  0.0030  0.1806 -0.0817
  979DOPE   PO411478  10.709  31.820  15.967 -0.0279  0.1613 -0.0346
  979DOPE   GL111479  10.478  31.849  15.539  0.1428  0.0228 -0.3873
  979DOPE   GL211480  10.368  32.122  15.468  0.1543  0.3080 -0.0573
  979DOPE   C1A11481  10.701  31.901  15.153 -0.1525  0.3002  0.0448
  979DOPE   D2A11482  10.809  31.748  14.704 -0.3079 -0.3028  0.1790
  979DOPE   C3A11483  10.479  31.704  14.396  0.2200 -0.0999 -0.0658
  979DOPE   C4A11484  10.156  31.527  14.157  0.2665 -0.1528 -0.0448
  979DOPE   C1B11485  10.371  32.279  15.045 -0.1706  0.0113 -0.1535
  979DOPE   D2B11486  10.410  32.091  14.655  0.0313 -0.3127  0.1042
  979DOPE   C3B11487  10.151  32.156  14.316 -0.2629  0.1405  0.1164
  979DOPE   C4B11488   9.959  31.949  13.936 -0.1633  0.1756 -0.3006
  980POSM   NC311489   7.228  31.809  16.042  0.3233 -0.0145 -0.1107
  980POSM   PO411490   7.448  32.064  15.896  0.1560 -0.3186  0.1181
  980POSM   AM111491   7.265  32.005  15.588 -0.1003  0.2884 -0.2759
  980POSM   AM211492   7.273  32.089  15.305  0.3376  0.0194 -0.1331
  980POSM   T1A11493   6.944  31.742  15.257 -0.1094  0.2052  0.1777
  980POSM   C2A11494   6.603  31.443  15.400  0.1603  0.2460  0.1849
  980POSM   C3A11495   6.231  31.151  15.496  0.0042  0.1880  0.2651
  980POSM   C1B11496   7.038  32.288  15.140 -0.2416  0.2610  0.2951
  980POSM   D2B11497   6.675  32.400  14.787  0.0873  0.3327 -0.2468
  980POSM   C3B11498   6.769  32.701  14.514 -0.1616  0.4163  0.2564
  980POSM   C4B11499   6.620  33.047  14.260  0.2583 -0.1091 -0.2355
  981DOPE   NH311500   4.960  32.769  15.952  0.0801 -0.1084 -0.0851
  981DOPE   PO411501   4.691  32.658  15.772  0.2801 -0.0348 -0.1981
  981DOPE   GL111502   4.810  32.524  15.418  0.1343  0.1140 -0.2126
  981DOPE   GL211503   4.702  32.269  15.403 -0.1436  0.1742 -0.2317
  981DOPE   C1A11504   4.648  32.566  14.998 -0.1596  0.0942 -0.1401
  981DOPE   D2A11505   4.681  32.378  14.590  0.1626 -0.1676 -0.2382
  981DOPE   C3A11506   4.928  32.000  14.514  0.1616  0.1544 -0.0245
  981DOPE   C4A11507   5.374  32.023  14.412 -0.0256 -0.2863  0.2621
  981DOPE   C1B11508   4.710  31.999  15.018  0.3476  0.2363  0.1963
  981DOPE   D2B11509   4.450  31.836  14.707  0.2130 -0.2088 -0.1243
  981DOPE   C3B11510   4.529  31.952  14.269  0.0905  0.1201  0.0344
  981DOPE   C4B11511   4.784  32.296  14.062  0.1288  0.1338  0.0005
  982POSM   NC311512   7.710  31.791  15.326 -0.2308  0.1281 -0.0175
  982POSM   PO411513   7.786  32.169  15.386  0.0056  0.2683 -0.0134
  982POSM   AM111514   7.658  32.238  15.072 -0.1085 -0.2909  0.3292
  982POSM   AM211515   7.809  32.295  14.822  0.1601 -0.0435  0.1705
  982POSM   T1A11516   7.285  32.045  14.785 -0.1176 -0.3190  0.1413
  982POSM   C2A11517   6.991  32.238  14.430 -0.2262 -0.0899  0.1344
  982POSM   C3A11518   6.932  32.166  14.027 -0.0894  0.2962 -0.0887
  982POSM   C1B11519   7.952  32.168  14.546  0.2373 -0.1420 -0.3347
  982POSM   D2B11520   8.079  31.811  14.283 -0.1310  0.0976  0.0798
  982POSM   C3B11521   8.513  31.705  14.249 -0.1283  0.2245  0.0567
  982POSM   C4B11522   8.796  31.638  13.851 -0.0220 -0.0834  0.2103
  983DOPC   NC311523   8.617  28.490  16.468 -0.0069 -0.0612  0.0178
  983DOPC   PO411524   8.323  28.325  16.344 -0.1268  0.0226 -0.2202
  983DOPC   GL111525   8.254  28.126  15.994 -0.3472  0.2671  0.3290
  983DOPC   GL211526   8.217  27.853  16.137  0.2933  0.0812  0.0078
  983DOPC   C1A11527   8.420  27.943  15.637 -0.2802  0.0863  0.1650
  983DOPC   D2A11528   8.735  27.627  15.432  0.4405 -0.4796 -0.1093
  983DOPC   C3A11529   8.766  27.756  14.964 -0.0432 -0.1625 -0.0285
  983DOPC   C4A11530   8.982  27.902  14.526 -0.1125 -0.0709 -0.1133
  983DOPC   C1B11531   7.896  27.673  15.864  0.2213 -0.3242 -0.0526
  983DOPC   D2B11532   7.649  27.359  15.646 -0.1616 -0.0794  0.0647
  983DOPC   C3B11533   7.451  27.428  15.228 -0.1970 -0.0357 -0.0855
  983DOPC   C4B11534   7.729  27.386  14.795 -0.0361 -0.0753 -0.1311
  984DOPE   NH311535   7.245  33.232  15.493 -0.0592 -0.2047  0.2087
  984DOPE   PO411536   7.227  33.136  15.197  0.1404 -0.1514 -0.0616
  984DOPE   GL111537   7.164  33.501  15.061  0.1000  0.0377 -0.1449
  984DOPE   GL211538   7.359  33.675  15.191  0.4493  0.2777 -0.2698
  984DOPE   C1A11539   7.118  33.726  14.694  0.2708  0.1928  0.1217
  984DOPE   D2A11540   7.192  33.899  14.254  0.2190  0.0778 -0.4387
  984DOPE   C3A11541   7.364  34.005  13.831 -0.1097 -0.1044 -0.0283
  984DOPE   C4A11542   7.328  34.069  13.393 -0.1771  0.1043  0.0571
  984DOPE   C1B11543   7.230  34.090  15.000  0.0659 -0.2219  0.1768
  984DOPE   D2B11544   7.192  34.382  14.628 -0.1238 -0.3420  0.4857
  984DOPE   C3B11545   7.102  34.405  14.173 -0.0610 -0.1887 -0.2131
  984DOPE   C4B11546   7.180  34.490  13.710  0.0758  0.2617 -0.0227
  985POSM   NC311547   7.012  24.118  15.891 -0.0610  0.1803 -0.1007
  985POSM   PO411548   7.393  24.006  16.024  0.2784 -0.2665  0.3259
  985POSM   AM111549   7.424  23.962  15.710 -0.0262  0.0829  0.0146
  985POSM   AM211550   7.429  24.098  15.448 -0.0448  0.2594 -0.0526
  985POSM   T1A11551   7.377  23.660  15.327  0.0706  0.1454  0.0026
  985POSM   C2A11552   7.563  23.380  14.913  0.1558 -0.1437  0.2799
  985POSM   C3A11553   7.360  23.107  14.564 -0.0055 -0.1747 -0.1050
  985POSM   C1B11554   7.646  24.264  15.201 -0.0873  0.0124 -0.0252
  985POSM   D2B11555   7.887  24.302  14.838  0.0286 -0.0820 -0.1906
  985POSM   C3B11556   7.820  24.036  14.440 -0.0294  0.0495  0.0260
  985POSM   C4B11557   7.776  24.144  13.981  0.1441 -0.2903  0.2590
  986DOPE   NH311558   9.619  33.496  15.114 -0.1447 -0.1231  0.4415
  986DOPE   PO411559   9.772  33.210  15.109  0.0213 -0.3903  0.2324
  986DOPE   GL111560   9.759  33.288  14.723  0.0585  0.2533 -0.6427
  986DOPE   GL211561   9.607  33.047  14.636  0.0393 -0.1288 -0.0217
  986DOPE   C1A11562   9.652  33.436  14.262  0.2430  0.1002  0.1772
  986DOPE   D2A11563   9.548  33.261  13.804  0.0772 -0.1996  0.0012
  986DOPE   C3A11564   9.871  33.106  13.437  0.0083 -0.1208  0.0127
  986DOPE   C4A11565  10.071  33.382  13.111 -0.0586  0.0790  0.2973
  986DOPE   C1B11566   9.559  32.903  14.213 -0.0062  0.1599  0.4371
  986DOPE   D2B11567   9.452  32.749  13.803 -0.0324 -0.0508 -0.4014
  986DOPE   C3B11568   9.356  33.049  13.402 -0.0240  0.2694  0.0171
  986DOPE   C4B11569   9.291  32.964  12.981 -0.0229 -0.0573  0.1667
  987DOPE   NH311570   0.720  26.230  15.859  0.4384  0.2483 -0.0204
  987DOPE   PO411571   0.719  26.539  15.919  0.1116 -0.0884  0.0231
  987DOPE   GL111572   0.865  26.787  15.584 -0.0173 -0.0397 -0.0877
  987DOPE   GL211573   1.113  26.636  15.489 -0.0546 -0.0272 -0.2616
  987DOPE   C1A11574   1.020  27.132  15.295 -0.0919 -0.2000  0.0101
  987DOPE   D2A11575   1.145  27.391  14.959  0.1064 -0.1007 -0.1572
  987DOPE   C3A11576   0.955  27.380  14.531  0.2000  0.0813 -0.3641
  987DOPE   C4A11577   0.594  27.205  14.318 -0.2123  0.3602  0.1669
  987DOPE   C1B11578   1.195  26.700  15.017 -0.1034 -0.3202 -0.1096
  987DOPE   D2B11579   1.354  26.498  14.618 -0.1048 -0.1716 -0.0485
  987DOPE   C3B11580   1.688  26.528  14.293 -0.2415 -0.0422 -0.0228
  987DOPE   C4B11581   1.877  26.486  13.901  0.0721  0.1404 -0.0818
  988DOPE   NH311582   7.491  30.515  16.014  0.0224 -0.0689 -0.1996
  988DOPE   PO411583   7.811  30.629  16.019 -0.1741  0.1619  0.2607
  988DOPE   GL111584   7.858  30.488  15.687  0.5403  0.3920  0.3475
  988DOPE   GL211585   8.126  30.321  15.644 -0.0343  0.1081 -0.1296
  988DOPE   C1A11586   7.962  30.672  15.261 -0.1753  0.0541 -0.2278
  988DOPE   D2A11587   7.935  30.492  14.821  0.0985  0.1007  0.0186
  988DOPE   C3A11588   7.784  30.058  14.849 -0.1056 -0.1530 -0.0941
  988DOPE   C4A11589   7.875  29.631  14.709 -0.2340 -0.1873 -0.1943
  988DOPE   C1B11590   8.083  30.180  15.242  0.0806 -0.1951  0.1748
  988DOPE   D2B11591   8.172  29.742  15.067  0.1103 -0.0576  0.0053
  988DOPE   C3B11592   8.379  29.758  14.664 -0.5739  0.1053  0.0943
  988DOPE   C4B11593   8.416  29.834  14.218  0.2766  0.2809  0.0290
  989DOPE   NH311594   1.176  24.208  16.451  0.3050 -0.4038  0.1756
  989DOPE   PO411595   1.266  23.967  16.254 -0.0299  0.0180 -0.0605
  989DOPE   GL111596   1.559  23.874  16.025 -0.1945  0.2355  0.0511
  989DOPE   GL211597   1.608  24.082  15.831 -0.1887  0.0986 -0.1451
  989DOPE   C1A11598   1.354  23.689  15.639 -0.2461 -0.0912  0.0411
  989DOPE   D2A11599   1.084  23.338  15.642 -0.0777  0.2113  0.0259
  989DOPE   C3A11600   0.774  23.380  15.322  0.2121  0.0803  0.0738
  989DOPE   C4A11601   0.400  23.502  15.049  0.1266  0.3205  0.3302
  989DOPE   C1B11602   1.875  23.846  15.546 -0.3615  0.1708  0.2644
  989DOPE   D2B11603   2.139  23.649  15.238  0.0783 -0.0829  0.2763
  989DOPE   C3B11604   1.854  23.703  14.852 -0.0533  0.2959 -0.0324
  989DOPE   C4B11605   1.769  23.584  14.404  0.1153 -0.3722  0.2769
  990POSM   NC311606  10.025  26.575  16.538 -0.1466 -0.0423  0.0101
  990POSM   PO411607   9.859  26.371  16.257 -0.0742  0.2216  0.0155
  990POSM   AM111608   9.677  26.356  15.956 -0.1247  0.4701  0.0083
  990POSM   AM211609   9.773  26.189  15.717  0.1840  0.0239 -0.3109
  990POSM   T1A11610   9.251  26.339  15.777 -0.0646 -0.1934 -0.2802
  990POSM   C2A11611   9.052  26.287  15.378 -0.0493 -0.1822 -0.2853
  990POSM   C3A11612   9.167  26.342  14.975  0.0603 -0.1685 -0.2305
  990POSM   C1B11613   9.534  26.001  15.608  0.1622 -0.2404 -0.1108
  990POSM   D2B11614   9.223  25.839  15.281 -0.1185  0.2088 -0.0367
  990POSM   C3B11615   9.287  25.864  14.794  0.3035  0.0513  0.0612
  990POSM   C4B11616   9.238  25.530  14.453 -0.3735 -0.2412 -0.0325
  991DOPE   NH311617   9.190  32.035  15.503  0.0353 -0.0263 -0.1306
  991DOPE   PO411618   8.970  31.846  15.660  0.1445  0.3076 -0.2924
  991DOPE   GL111619   9.078  31.616  15.334 -0.4120  0.1880  0.2417
  991DOPE   GL211620   9.113  31.830  15.082  0.1034  0.1249 -0.0713
  991DOPE   C1A11621   9.402  31.250  15.223  0.0050 -0.2056  0.0933
  991DOPE   D2A11622   9.291  30.801  15.272 -0.0722  0.2772 -0.1928
  991DOPE   C3A11623   8.884  30.748  15.049  0.1800  0.0287  0.0720
  991DOPE   C4A11624   8.474  30.563  15.196 -0.1994  0.1821  0.2273
  991DOPE   C1B11625   9.556  31.714  14.888  0.2455 -0.0933  0.0126
  991DOPE   D2B11626   9.534  31.483  14.476 -0.1689 -0.0988 -0.1652
  991DOPE   C3B11627   9.308  31.649  14.122  0.0336 -0.0921  0.2664
  991DOPE   C4B11628   9.193  31.323  13.755  0.2496  0.1832  0.2438
  992DOPE   NH311629   9.147  33.655  15.570 -0.0325 -0.0800  0.0649
  992DOPE   PO411630   9.121  33.558  15.288  0.0756  0.0313 -0.0721
  992DOPE   GL111631   9.204  33.775  14.982  0.1337 -0.3260  0.0647
  992DOPE   GL211632   9.419  33.986  15.029  0.4312  0.0985  0.0086
  992DOPE   C1A11633   9.358  33.907  14.521  0.1736  0.1942 -0.0439
  992DOPE   D2A11634   9.744  33.989  14.198  0.0242  0.2242 -0.2713
  992DOPE   C3A11635   9.799  34.073  13.704  0.2980  0.3488 -0.1626
  992DOPE   C4A11636   9.664  34.298  13.312 -0.0962  0.0502 -0.1218
  992DOPE   C1B11637   9.729  34.368  15.148 -0.1435 -0.2790 -0.0774
  992DOPE   D2B11638  10.093  34.737  15.076  0.0840  0.2438  0.0497
  992DOPE   C3B11639  10.304  34.616  14.670 -0.4045  0.0927 -0.1773
  992DOPE   C4B11640  10.738  34.632  14.738 -0.0399  0.1635 -0.0659
  993POSM   NC311641   8.009  27.462  16.333 -0.0985 -0.2441  0.0961
  993POSM   PO411642   8.317  27.355  16.523 -0.2615 -0.0211  0.1628
  993POSM   AM111643   8.392  27.184  16.253 -0.0296  0.1360  0.3259
  993POSM   AM211644   8.348  27.346  15.990 -0.2459  0.1717 -0.4278
  993POSM   T1A11645   8.342  26.890  15.838 -0.1848 -0.0527 -0.0059
  993POSM   C2A11646   8.432  26.863  15.405  0.2767  0.0584 -0.1421
  993POSM   C3A11647   8.685  27.189  15.176  0.1530  0.1429  0.0306
  993POSM   C1B11648   8.287  27.395  15.619 -0.1321  0.0124 -0.1334
  993POSM   D2B11649   8.103  27.312  15.243 -0.0466 -0.1272 -0.1302
  993POSM   C3B11650   8.290  27.493  14.855 -0.0811 -0.3272 -0.3902
  993POSM   C4B11651   8.289  27.573  14.376 -0.0441  0.3225 -0.0625
  994DOPC   NC311652   3.684  31.647  16.065 -0.2447  0.1735 -0.2350
  994DOPC   PO411653   3.321  31.683  16.095 -0.1656 -0.0672 -0.0378
  994DOPC   GL111654   3.263  31.466  15.770  0.2200 -0.4021  0.2037
  994DOPC   GL211655   3.531  31.426  15.674 -0.0821  0.1559 -0.1824
  994DOPC   C1A11656   2.855  31.455  15.546 -0.0249 -0.2407 -0.1939
  994DOPC   D2A11657   2.552  31.091  15.379  0.2156  0.2462 -0.0248
  994DOPC   C3A11658   2.683  30.675  15.455 -0.0119  0.2474  0.2460
  994DOPC   C4A11659   2.829  30.288  15.289 -0.0519  0.0875  0.1856
  994DOPC   C1B11660   3.276  31.256  15.335  0.2726  0.1877  0.1105
  994DOPC   D2B11661   2.890  31.236  15.058  0.0158  0.1352  0.3258
  994DOPC   C3B11662   2.702  30.792  14.976 -0.2270  0.1844  0.2133
  994DOPC   C4B11663   2.995  30.473  14.817 -0.0327 -0.0604 -0.1364
  995DOPE   NH311664   1.721  25.938  15.718  0.1769 -0.0954 -0.1958
  995DOPE   PO411665   1.857  25.872  15.423  0.3561 -0.2310  0.0025
  995DOPE   GL111666   1.820  25.830  15.028  0.2475  0.0286  0.0137
  995DOPE   GL211667   1.710  26.068  14.990  0.1559 -0.1913  0.0845
  995DOPE   C1A11668   1.838  25.635  14.657 -0.0453 -0.3503  0.0468
  995DOPE   D2A11669   1.934  25.316  14.297 -0.0891 -0.1303 -0.2843
  995DOPE   C3A11670   2.273  25.246  14.093  0.2156 -0.0809 -0.1397
  995DOPE   C4A11671   2.509  25.015  13.670 -0.2549  0.1013 -0.1632
  995DOPE   C1B11672   1.931  26.116  14.591  0.0412 -0.3825 -0.1626
  995DOPE   D2B11673   2.151  26.216  14.254 -0.2006  0.0885 -0.0365
  995DOPE   C3B11674   2.302  26.612  14.090 -0.1449 -0.0331 -0.0811
  995DOPE   C4B11675   2.346  27.031  14.261  0.1113  0.0312 -0.3540
  996DOPC   NC311676  11.137  29.213  15.449 -0.4637  0.2328  0.2402
  996DOPC   PO411677  11.128  28.855  15.635 -0.1269  0.0420  0.1463
  996DOPC   GL111678  10.896  28.830  15.229  0.2391  0.1587 -0.2281
  996DOPC   GL211679  11.078  28.887  14.995 -0.0496  0.1702  0.0543
  996DOPC   C1A11680  10.602  28.901  14.853  0.0010 -0.0248 -0.1588
  996DOPC   D2A11681  10.432  29.036  14.434 -0.1739  0.1934 -0.0063
  996DOPC   C3A11682  10.478  29.362  14.119  0.0360 -0.0255 -0.1188
  996DOPC   C4A11683  10.488  29.627  13.717 -0.2409  0.0210  0.0233
  996DOPC   C1B11684  10.963  28.589  14.666  0.0720 -0.0462  0.0774
  996DOPC   D2B11685  10.700  28.651  14.202 -0.2125  0.0401 -0.1797
  996DOPC   C3B11686  10.565  28.362  13.907  0.3899  0.0781  0.0213
  996DOPC   C4B11687  10.482  28.071  13.522 -0.1906 -0.4206  0.4860
  997POSM   NC311688   1.278  23.469  16.105  0.0269  0.4122  0.0485
  997POSM   PO411689   1.588  23.240  16.080  0.5907 -0.2773  0.1617
  997POSM   AM111690   1.608  23.162  15.783 -0.3347 -0.0872 -0.0004
  997POSM   AM211691   1.581  22.954  15.612 -0.1708 -0.1483 -0.1797
  997POSM   T1A11692   1.677  23.374  15.296 -0.2865 -0.1270 -0.0123
  997POSM   C2A11693   1.569  23.233  14.882  0.0367 -0.1585  0.0393
  997POSM   C3A11694   1.328  23.211  14.493 -0.1085 -0.0288 -0.0848
  997POSM   C1B11695   1.323  23.002  15.332  0.2443  0.0118 -0.3841
  997POSM   D2B11696   1.097  22.946  14.940  0.2454  0.1227  0.1893
  997POSM   C3B11697   0.891  22.782  14.556  0.1682 -0.1137  0.0488
  997POSM   C4B11698   0.561  22.850  14.412 -0.1939  0.0629  0.0134
  998DOPE   NH311699   8.751  25.568  16.229  0.0595 -0.1226 -0.1372
  998DOPE   PO411700   8.522  25.769  16.192 -0.2460  0.2172 -0.2901
  998DOPE   GL111701   8.415  25.964  15.878  0.0841  0.0463 -0.1067
  998DOPE   GL211702   8.317  26.232  15.937 -0.1432  0.0547  0.2771
  998DOPE   C1A11703   8.184  25.925  15.479  0.0801  0.3009  0.3142
  998DOPE   D2A11704   8.312  25.979  14.992 -0.0718  0.2904  0.1967
  998DOPE   C3A11705   8.505  25.631  14.754  0.1637 -0.1945  0.0168
  998DOPE   C4A11706   8.626  25.410  14.344 -0.1106 -0.2706  0.2076
  998DOPE   C1B11707   8.596  26.392  15.537 -0.0280 -0.1042 -0.3473
  998DOPE   D2B11708   8.637  26.497  15.065  0.0997  0.0011 -0.0094
  998DOPE   C3B11709   8.412  26.885  14.835  0.0679 -0.3233 -0.1276
  998DOPE   C4B11710   8.014  26.976  14.663 -0.1009  0.0674 -0.0152
  999DOPE   NH311711  10.227  27.135  16.041  0.1923 -0.3368  0.0030
  999DOPE   PO411712  10.294  27.382  15.841 -0.0915  0.0897 -0.3071
  999DOPE   GL111713  10.217  27.422  15.448  0.2684 -0.3890 -0.2374
  999DOPE   GL211714   9.947  27.339  15.313 -0.0033 -0.0446 -0.1008
  999DOPE   C1A11715  10.201  27.719  15.129 -0.1171 -0.3350 -0.0949
  999DOPE   D2A11716  10.549  27.750  14.807  0.3709  0.1168  0.2017
  999DOPE   C3A11717  10.538  27.418  14.436  0.3101 -0.0262 -0.6036
  999DOPE   C4A11718  10.814  27.474  14.107 -0.0420 -0.0667  0.0941
  999DOPE   C1B11719   9.699  27.116  14.992  0.1416  0.2280 -0.2440
  999DOPE   D2B11720   9.408  26.849  14.662 -0.2308 -0.1695  0.0696
  999DOPE   C3B11721   9.109  26.995  14.312  0.0970  0.2109 -0.1605
  999DOPE   C4B11722   9.083  27.239  13.901 -0.3957  0.1807  0.2766
 1000POSM   NC311723   3.674  24.554  16.289 -0.0107 -0.1599  0.1017
 1000POSM   PO411724   4.014  24.443  16.082 -0.2309  0.0314  0.0222
 1000POSM   AM111725   4.070  24.572  15.832  0.1513  0.2745 -0.0255
 1000POSM   AM211726   4.347  24.582  15.688  0.1229 -0.2647 -0.0614
 1000POSM   T1A11727   3.967  24.637  15.367  0.1819 -0.0419  0.1356
 1000POSM   C2A11728   3.953  24.937  15.013 -0.1118  0.0633  0.0600
 1000POSM   C3A11729   3.744  25.347  14.943  0.1158  0.0134  0.0112
 1000POSM   C1B11730   4.450  24.365  15.433 -0.1359  0.0414 -0.2791
 1000POSM   D2B11731   4.581  24.085  15.073  0.1430 -0.0336  0.0490
 1000POSM   C3B11732   4.246  24.075  14.723 -0.1198 -0.1871  0.0928
 1000POSM   C4B11733   4.016  24.072  14.332  0.0317 -0.0349  0.5170
 1001DOPS   CNO11734   8.074  24.913  16.240  0.0133 -0.0656  0.0741
 1001DOPS   PO411735   7.807  24.727  16.119  0.0298  0.1772  0.1927
 1001DOPS   GL111736   8.008  24.816  15.818 -0.2769  0.2835 -0.0944
 1001DOPS   GL211737   7.797  25.033  15.728  0.0058 -0.2281 -0.0244
 1001DOPS   C1A11738   7.993  24.755  15.362 -0.0893 -0.0345  0.2831
 1001DOPS   D2A11739   8.071  24.823  14.879 -0.0643  0.2432  0.2396
 1001DOPS   C3A11740   7.741  24.992  14.588  0.0726  0.0234 -0.0864
 1001DOPS   C4A11741   7.380  25.169  14.274 -0.0671  0.1652 -0.0181
 1001DOPS   C1B11742   7.943  25.283  15.321  0.4655  0.3434  0.1089
 1001DOPS   D2B11743   7.921  25.602  14.943 -0.1190  0.0584 -0.1089
 1001DOPS   C3B11744   7.615  25.552  14.575  0.0022 -0.0750 -0.1819
 1001DOPS   C4B11745   7.524  25.620  14.114  0.0796 -0.0478 -0.3967
 1002DOPC   NC311746   3.840  33.532  15.903 -0.1601  0.1058 -0.1915
 1002DOPC   PO411747   3.487  33.698  15.997  0.0759  0.0055 -0.0783
 1002DOPC   GL111748   3.383  33.673  15.644  0.0209 -0.1261  0.0750
 1002DOPC   GL211749   3.417  33.909  15.493  0.0390  0.2896  0.1741
 1002DOPC   C1A11750   3.771  33.558  15.394 -0.3955  0.2359  0.0978
 1002DOPC   D2A11751   3.783  33.225  15.045 -0.1103 -0.0192 -0.0523
 1002DOPC   C3A11752   4.080  33.180  14.693  0.0125  0.0556 -0.0990
 1002DOPC   C4A11753   4.304  33.359  14.379  0.0230 -0.1106  0.0468
 1002DOPC   C1B11754   3.502  33.888  15.059  0.0550 -0.0010  0.1609
 1002DOPC   D2B11755   3.340  34.118  14.734  0.0850  0.3629 -0.1380
 1002DOPC   C3B11756   3.299  34.514  14.503  0.1315  0.0837 -0.1475
 1002DOPC   C4B11757   3.125  34.966  14.522 -0.1165 -0.0633 -0.0240
 1003POSM   NC311758   5.624  29.853  15.891 -0.1737  0.0896  0.2597
 1003POSM   PO411759   5.550  29.495  16.070 -0.0465  0.0337 -0.1682
 1003POSM   AM111760   5.422  29.386  15.786 -0.1218 -0.1086  0.1493
 1003POSM   AM211761   5.352  29.543  15.554 -0.3369  0.1939  0.0594
 1003POSM   T1A11762   5.527  29.045  15.435 -0.4453 -0.0262 -0.0724
 1003POSM   C2A11763   5.485  29.030  14.990  0.1131  0.3418  0.2727
 1003POSM   C3A11764   5.597  28.747  14.594 -0.1925  0.2254 -0.0020
 1003POSM   C1B11765   5.360  29.615  15.257  0.1157 -0.0385  0.0418
 1003POSM   D2B11766   5.369  29.493  14.801 -0.0743  0.2453  0.1007
 1003POSM   C3B11767   5.322  29.161  14.389 -0.1097  0.2152 -0.1934
 1003POSM   C4B11768   5.464  28.851  14.076 -0.1235  0.2509  0.0288
 1004DOPE   NH311769   7.354  24.524  15.952 -0.2711 -0.0829 -0.3748
 1004DOPE   PO411770   7.330  24.771  16.212 -0.2820 -0.2380  0.2804
 1004DOPE   GL111771   7.251  25.120  15.857  0.6288 -0.2295  0.0281
 1004DOPE   GL211772   7.077  24.957  15.676  0.2333 -0.0441  0.1256
 1004DOPE   C1A11773   7.444  25.166  15.410  0.2605 -0.1959 -0.0390
 1004DOPE   D2A11774   7.517  25.331  14.989 -0.2040 -0.2221 -0.3951
 1004DOPE   C3A11775   7.240  25.696  14.882 -0.0126  0.2502  0.1355
 1004DOPE   C4A11776   6.907  25.990  14.721 -0.2233  0.0174  0.1289
 1004DOPE   C1B11777   6.730  25.075  15.423  0.0687 -0.2942  0.0245
 1004DOPE   D2B11778   6.342  25.335  15.385  0.0896 -0.2341 -0.2045
 1004DOPE   C3B11779   5.981  25.238  15.139  0.1054 -0.0330  0.3004
 1004DOPE   C4B11780   5.784  25.199  14.749  0.1420  0.0037  0.1654
 1005DOPS   CNO11781   5.887  23.833  16.548 -0.0043  0.1365 -0.0355
 1005DOPS   PO411782   5.814  23.677  16.216 -0.0750 -0.0385  0.1054
 1005DOPS   GL111783   5.806  23.543  15.818 -0.6589  0.3487  0.1434
 1005DOPS   GL211784   6.148  23.652  15.797  0.0167 -0.2538 -0.1906
 1005DOPS   C1A11785   5.738  23.795  15.438 -0.4627  0.2152 -0.2150
 1005DOPS   D2A11786   5.736  24.125  15.100  0.1093  0.0561  0.0236
 1005DOPS   C3A11787   5.755  24.048  14.630  0.0618  0.3541 -0.2436
 1005DOPS   C4A11788   5.839  23.766  14.252 -0.0024 -0.0692 -0.0960
 1005DOPS   C1B11789   6.201  23.893  15.359  0.0926  0.2274 -0.0195
 1005DOPS   D2B11790   6.327  24.224  15.007  0.0581 -0.0215 -0.0348
 1005DOPS   C3B11791   6.102  24.403  14.632  0.1483  0.2351 -0.0057
 1005DOPS   C4B11792   5.679  24.595  14.440 -0.0700 -0.0673 -0.0868
 1006DOPS   CNO11793   6.218  32.810  15.741  0.1277 -0.0807 -0.3290
 1006DOPS   PO411794   5.859  32.928  15.795 -0.0411  0.1850 -0.0262
 1006DOPS   GL111795   6.002  33.069  15.397  0.1327 -0.1703  0.0866
 1006DOPS   GL211796   6.243  32.988  15.233 -0.1375 -0.0600 -0.0183
 1006DOPS   C1A11797   5.905  33.147  14.907  0.0715  0.0221  0.1047
 1006DOPS   D2A11798   6.140  33.198  14.524 -0.3917  0.1407 -0.3384
 1006DOPS   C3A11799   5.961  33.084  14.092  0.4046 -0.0332  0.1105
 1006DOPS   C4A11800   6.327  33.049  13.741  0.0676  0.2207  0.1150
 1006DOPS   C1B11801   6.268  32.720  14.942 -0.1215  0.3067  0.2539
 1006DOPS   D2B11802   6.252  32.737  14.469  0.0173 -0.1656  0.0110
 1006DOPS   C3B11803   6.449  32.449  14.222  0.1841 -0.1229 -0.0144
 1006DOPS   C4B11804   6.790  32.674  14.010  0.0264 -0.1223 -0.1032
 1007DOPE   NH311805  10.618  23.919  16.763 -0.1510  0.0803 -0.0790
 1007DOPE   PO411806  10.582  23.850  16.479 -0.0603 -0.0851  0.2946
 1007DOPE   GL111807  10.629  23.823  16.111 -0.2237  0.4339  0.3607
 1007DOPE   GL211808  10.469  23.668  15.974  0.1689  0.0379  0.1225
 1007DOPE   C1A11809  10.932  23.626  15.741  0.0878 -0.2787 -0.2804
 1007DOPE   D2A11810  11.204  23.720  15.418  0.1597  0.1310 -0.0969
 1007DOPE   C3A11811  11.385  23.992  15.107 -0.2286  0.1339 -0.0525
 1007DOPE   C4A11812  11.602  24.123  14.643  0.0213 -0.1936  0.1217
 1007DOPE   C1B11813  10.656  23.222  15.914 -0.1381  0.2103  0.2279
 1007DOPE   D2B11814  11.061  22.976  15.836 -0.0404  0.1717  0.0871
 1007DOPE   C3B11815  11.159  23.108  15.417  0.0493 -0.1852  0.0533
 1007DOPE   C4B11816  11.364  23.220  15.007  0.1970  0.2117 -0.1283
 1008DOPC   NC311817   6.993  25.539  15.911 -0.0401  0.3719  0.1599
 1008DOPC   PO411818   6.776  25.731  16.163 -0.3432 -0.4794 -0.2240
 1008DOPC   GL111819   6.542  25.930  15.912 -0.1271  0.1801  0.1153
 1008DOPC   GL211820   6.387  25.689  15.749  0.1800 -0.0253 -0.2104
 1008DOPC   C1A11821   6.599  26.131  15.501 -0.0320 -0.1978 -0.2620
 1008DOPC   D2A11822   6.527  26.150  15.047  0.2777 -0.3709 -0.0095
 1008DOPC   C3A11823   6.431  25.806  14.757  0.0755  0.0002 -0.2856
 1008DOPC   C4A11824   6.254  25.404  14.499 -0.1357  0.0688  0.1514
 1008DOPC   C1B11825   6.171  25.865  15.366  0.1179 -0.0451  0.1256
 1008DOPC   D2B11826   5.727  26.002  15.321 -0.1352 -0.0189  0.0014
 1008DOPC   C3B11827   5.251  26.014  15.115 -0.2231  0.1643 -0.2286
 1008DOPC   C4B11828   4.947  25.945  14.807 -0.1418  0.0208  0.0260
 1009DOPS   CNO11829  10.603  29.352  15.870  0.2819  0.4141 -0.1131
 1009DOPS   PO411830  10.744  29.729  15.824 -0.1641 -0.0660 -0.0083
 1009DOPS   GL111831  10.848  29.589  15.517  0.2799  0.2344  0.0707
 1009DOPS   GL211832  10.822  29.848  15.342  0.0022  0.1672  0.2067
 1009DOPS   C1A11833  10.920  29.444  15.081  0.5350  0.0290  0.1087
 1009DOPS   D2A11834  10.867  29.493  14.601  0.2699  0.1245  0.2129
 1009DOPS   C3A11835  11.070  29.123  14.456 -0.0620 -0.0863 -0.4478
 1009DOPS   C4A11836  11.214  28.701  14.278 -0.1622 -0.0354  0.0111
 1009DOPS   C1B11837  10.874  29.918  14.889  0.3415  0.0238  0.1263
 1009DOPS   D2B11838  11.061  30.125  14.472 -0.2395 -0.0864 -0.0266
 1009DOPS   C3B11839  10.793  29.983  14.171  0.0446  0.2056 -0.0981
 1009DOPS   C4B11840  10.832  30.055  13.715  0.0150 -0.3889  0.1307
 1010DOPE   NH311841   3.356  33.038  16.090 -0.0322  0.0019  0.0251
 1010DOPE   PO411842   3.647  33.115  16.135  0.1158  0.2720  0.1636
 1010DOPE   GL111843   3.812  33.036  15.769 -0.1826 -0.1916 -0.6408
 1010DOPE   GL211844   3.656  33.062  15.527 -0.1964  0.0349  0.2345
 1010DOPE   C1A11845   4.115  33.038  15.395 -0.2709  0.0621 -0.0172
 1010DOPE   D2A11846   4.311  32.895  14.991  0.1608  0.3504 -0.2846
 1010DOPE   C3A11847   4.291  32.695  14.619  0.4026 -0.0671 -0.1101
 1010DOPE   C4A11848   3.966  32.836  14.343  0.0803 -0.1668 -0.4103
 1010DOPE   C1B11849   3.388  32.856  15.276  0.1014 -0.1062  0.2065
 1010DOPE   D2B11850   3.236  32.486  15.012  0.0045 -0.1760 -0.0155
 1010DOPE   C3B11851   3.476  32.234  14.753 -0.0365  0.1144 -0.3514
 1010DOPE   C4B11852   3.339  31.903  14.458 -0.0074  0.3571 -0.0258
 1011DOPE   NH311853   8.615  31.819  15.200  0.1574  0.0993 -0.1477
 1011DOPE   PO411854   8.643  31.527  15.320  0.0657 -0.3086  0.2799
 1011DOPE   GL111855   8.902  31.240  15.180 -0.4005  0.2264  0.4018
 1011DOPE   GL211856   8.643  31.236  14.965  0.2045 -0.0842 -0.1882
 1011DOPE   C1A11857   9.160  31.195  14.800 -0.1009  0.2739  0.0311
 1011DOPE   D2A11858   9.210  30.701  14.693 -0.0329 -0.3780  0.2891
 1011DOPE   C3A11859   9.043  30.427  14.384  0.2878  0.1906  0.0352
 1011DOPE   C4A11860   8.588  30.231  14.382  0.0085 -0.0054  0.2194
 1011DOPE   C1B11861   8.611  31.150  14.475  0.0275  0.2303 -0.0262
 1011DOPE   D2B11862   8.783  31.079  14.061  0.2316 -0.2026 -0.1578
 1011DOPE   C3B11863   9.013  30.752  13.963 -0.0887  0.1644  0.1161
 1011DOPE   C4B11864   9.098  30.303  13.917  0.0501  0.1161  0.0915
 1012DOPE   NH311865   7.030  28.068  16.557  0.1346 -0.0154 -0.0302
 1012DOPE   PO411866   6.807  28.084  16.369  0.1684 -0.1382 -0.2365
 1012DOPE   GL111867   6.912  27.930  16.009 -0.0996  0.1639 -0.0948
 1012DOPE   GL211868   6.841  28.161  15.835 -0.0885  0.1451  0.2449
 1012DOPE   C1A11869   6.797  27.663  15.619  0.0452  0.2663  0.2404
 1012DOPE   D2A11870   6.865  27.881  15.216  0.2282 -0.0870  0.1921
 1012DOPE   C3A11871   6.765  27.777  14.738  0.2315  0.2815  0.1786
 1012DOPE   C4A11872   6.513  27.449  14.640  0.2467 -0.1719  0.4612
 1012DOPE   C1B11873   6.836  28.345  15.371  0.1304  0.1566  0.1038
 1012DOPE   D2B11874   6.784  28.331  14.915 -0.1087  0.2387  0.0892
 1012DOPE   C3B11875   7.145  28.281  14.647 -0.1063  0.2655  0.0511
 1012DOPE   C4B11876   7.529  28.366  14.393  0.1774 -0.2875  0.2065
 1013DOPC   NC311877  10.797  32.921  15.657  0.0729  0.0762  0.1694
 1013DOPC   PO411878  10.555  33.238  15.774  0.0188 -0.2108  0.0249
 1013DOPC   GL111879  10.832  33.329  15.417  0.2578  0.2056  0.2517
 1013DOPC   GL211880  10.789  33.565  15.512  0.0522 -0.1788 -0.4230
 1013DOPC   C1A11881  11.203  33.418  15.096  0.1657 -0.0109  0.0240
 1013DOPC   D2A11882  11.602  33.455  14.834  0.3245  0.0181 -0.3761
 1013DOPC   C3A11883  11.736  33.492  14.380 -0.1240 -0.0807  0.3794
 1013DOPC   C4A11884  12.038  33.828  14.196 -0.0520 -0.1472  0.0815
 1013DOPC   C1B11885  11.115  33.822  15.330  0.0161 -0.0284  0.0126
 1013DOPC   D2B11886  11.338  33.883  14.908  0.0719  0.0830  0.0587
 1013DOPC   C3B11887  11.165  33.740  14.498 -0.0625  0.6371 -0.2035
 1013DOPC   C4B11888  11.207  33.396  14.163 -0.1278  0.0868  0.1360
 1014POSM   NC311889   2.483  29.995  16.197  0.0410 -0.1250  0.0182
 1014POSM   PO411890   2.425  29.619  16.324  0.0182 -0.1896 -0.0934
 1014POSM   AM111891   2.433  29.384  16.079 -0.0412 -0.0606 -0.1004
 1014POSM   AM211892   2.313  29.150  15.982  0.0680  0.1161  0.1130
 1014POSM   T1A11893   2.539  29.331  15.607 -0.1302  0.2102  0.1592
 1014POSM   C2A11894   2.489  29.016  15.271 -0.0356  0.1500 -0.0639
 1014POSM   C3A11895   2.340  28.752  14.955  0.2351 -0.0191  0.0536
 1014POSM   C1B11896   2.246  28.941  15.733  0.2878  0.2462  0.0853
 1014POSM   D2B11897   2.025  28.853  15.382 -0.0373  0.1703  0.1149
 1014POSM   C3B11898   1.657  28.617  15.444 -0.2386 -0.2138 -0.0824
 1014POSM   C4B11899   1.456  28.183  15.422 -0.4490  0.2428  0.2197
 1015POSM   NC311900  34.671  33.009  16.687  0.0692 -0.5036  0.0812
 1015POSM   PO411901  34.351  33.054  16.449  0.2922  0.2733 -0.1302
 1015POSM   AM111902  34.364  33.005  16.110  0.0630 -0.3236 -0.0719
 1015POSM   AM211903  34.376  32.792  15.934  0.0666  0.2057  0.1730
 1015POSM   T1A11904  34.249  33.266  15.655 -0.3602  0.0110  0.3027
 1015POSM   C2A11905  34.045  33.346  15.255  0.0765 -0.0459 -0.1155
 1015POSM   C3A11906  33.948  33.351  14.857  0.2077 -0.1555  0.0841
 1015POSM   C1B11907  34.490  32.827  15.633  0.0756 -0.0225  0.0764
 1015POSM   D2B11908  34.589  32.984  15.185 -0.3059 -0.0400  0.1553
 1015POSM   C3B11909  34.874  32.842  14.862 -0.1208 -0.0634  0.0595
 1015POSM   C4B11910  35.174  32.608  14.559 -0.1350  0.1621  0.0727
 1016DOPC   NC311911   5.425  27.514  16.875  0.1674 -0.3418  0.0028
 1016DOPC   PO411912   5.687  27.729  16.703 -0.0398 -0.1109  0.0990
 1016DOPC   GL111913   5.479  27.628  16.347  0.0397  0.0987  0.0625
 1016DOPC   GL211914   5.220  27.731  16.199  0.1000 -0.1267  0.1128
 1016DOPC   C1A11915   5.592  27.674  15.890 -0.0518 -0.0126 -0.0726
 1016DOPC   D2A11916   6.015  27.615  15.629  0.1184  0.1652 -0.1619
 1016DOPC   C3A11917   5.942  27.465  15.167  0.2103 -0.0247  0.2816
 1016DOPC   C4A11918   5.741  27.098  14.938  0.1227  0.2012 -0.3117
 1016DOPC   C1B11919   5.121  27.676  15.720  0.0579 -0.0939 -0.0512
 1016DOPC   D2B11920   4.967  27.849  15.273 -0.2543  0.1171  0.2063
 1016DOPC   C3B11921   5.286  28.161  15.169 -0.0118  0.2072  0.1863
 1016DOPC   C4B11922   5.683  28.101  15.028  0.1362 -0.1268  0.0916
 1017DOPC   NC311923   7.847  28.153  16.289 -0.2432 -0.3168  0.1394
 1017DOPC   PO411924   7.711  27.821  16.438 -0.2369 -0.0047  0.6203
 1017DOPC   GL111925   7.565  27.962  16.026 -0.4160 -0.1884  0.0206
 1017DOPC   GL211926   7.425  28.243  16.029 -0.0187 -0.2767 -0.4090
 1017DOPC   C1A11927   7.835  28.230  15.741 -0.1024 -0.0243  0.1619
 1017DOPC   D2A11928   8.205  28.433  15.588 -0.2226 -0.0612  0.2244
 1017DOPC   C3A11929   8.674  28.515  15.487  0.5102 -0.0121  0.2381
 1017DOPC   C4A11930   9.017  28.616  15.202 -0.1195  0.2634 -0.2237
 1017DOPC   C1B11931   7.276  28.294  15.600  0.0543 -0.0472  0.1669
 1017DOPC   D2B11932   7.395  28.176  15.149  0.1802  0.0227 -0.0009
 1017DOPC   C3B11933   7.786  28.144  14.865  0.0019  0.2626 -0.1060
 1017DOPC   C4B11934   7.907  27.858  14.487  0.0605  0.0035  0.2891
 1018DOPS   CNO11935   0.514  31.317  15.783 -0.0493  0.3901 -0.2163
 1018DOPS   PO411936   0.556  31.484  16.097 -0.1995  0.1644 -0.1385
 1018DOPS   GL111937   0.861  31.651  15.883  0.0983 -0.2558 -0.1278
 1018DOPS   GL211938   0.688  31.876  15.748 -0.0301 -0.1216  0.0375
 1018DOPS   C1A11939   1.189  31.905  15.842 -0.1928  0.2036  0.0949
 1018DOPS   D2A11940   1.284  32.313  15.658  0.3102  0.2472 -0.1061
 1018DOPS   C3A11941   1.173  32.397  15.196  0.2429 -0.0445 -0.2926
 1018DOPS   C4A11942   1.318  32.400  14.759  0.2285  0.0087  0.0721
 1018DOPS   C1B11943   0.983  31.943  15.371 -0.1624  0.4041  0.3388
 1018DOPS   D2B11944   1.182  31.897  14.950 -0.2862 -0.2112 -0.2974
 1018DOPS   C3B11945   1.633  31.962  14.869 -0.0768 -0.1224  0.0868
 1018DOPS   C4B11946   1.930  31.665  14.809  0.2054 -0.0969 -0.0366
 1019DOPE   NH311947   8.369  24.599  16.045  0.1252 -0.0015  0.0187
 1019DOPE   PO411948   8.183  24.379  15.970  0.2763 -0.1900  0.1714
 1019DOPE   GL111949   8.014  24.418  15.684 -0.3426  0.2536  0.0919
 1019DOPE   GL211950   7.749  24.404  15.672  0.0377  0.2684 -0.1115
 1019DOPE   C1A11951   8.174  24.269  15.298 -0.1744 -0.3499  0.0097
 1019DOPE   D2A11952   8.279  23.961  14.896 -0.1458  0.1178 -0.1271
 1019DOPE   C3A11953   8.374  24.212  14.508  0.1097  0.0807 -0.0601
 1019DOPE   C4A11954   8.071  24.465  14.302 -0.1451 -0.0645 -0.2557
 1019DOPE   C1B11955   7.423  24.705  15.442 -0.2529  0.1641  0.1759
 1019DOPE   D2B11956   7.498  24.734  14.930  0.2347  0.1752 -0.0301
 1019DOPE   C3B11957   7.603  24.527  14.498 -0.2189  0.0976  0.0483
 1019DOPE   C4B11958   7.377  24.135  14.316  0.1443 -0.0396  0.0871
 1020DOPS   CNO11959   9.595  28.646  16.252  0.2185  0.2019 -0.0243
 1020DOPS   PO411960   9.634  28.267  16.130 -0.1864  0.1927  0.1461
 1020DOPS   GL111961   9.285  28.350  15.966  0.2483  0.1188  0.1807
 1020DOPS   GL211962   9.328  28.220  15.687  0.2754  0.3513  0.0875
 1020DOPS   C1A11963   9.061  28.694  15.752 -0.1784 -0.1031  0.0770
 1020DOPS   D2A11964   9.330  28.988  15.579 -0.0100  0.1230  0.1405
 1020DOPS   C3A11965   9.584  28.905  15.157  0.2095  0.2026  0.0834
 1020DOPS   C4A11966   9.596  29.092  14.759  0.3117  0.1067 -0.1550
 1020DOPS   C1B11967   9.210  27.807  15.577  0.1259  0.2789  0.2675
 1020DOPS   D2B11968   9.186  27.402  15.392 -0.0474  0.0593  0.0154
 1020DOPS   C3B11969   9.213  27.242  14.981 -0.1063  0.0825  0.0808
 1020DOPS   C4B11970   9.246  27.511  14.557 -0.2288  0.1759 -0.2179
 1021DOPE   NH311971  10.700  25.740  12.383  0.0343  0.2641  0.0463
 1021DOPE   PO411972  10.733  25.860  12.636  0.4070 -0.1804 -0.0898
 1021DOPE   GL111973  10.676  25.411  12.832 -0.1299  0.1396  0.0885
 1021DOPE   GL211974  10.579  25.267  12.579  0.2562 -0.0925 -0.1594
 1021DOPE   C1A11975  11.063  25.134  12.922  0.1674 -0.0729  0.0396
 1021DOPE   D2A11976  11.239  24.742  13.022 -0.0728 -0.1891 -0.0157
 1021DOPE   C3A11977  11.354  24.567  13.443  0.0842 -0.2948 -0.1104
 1021DOPE   C4A11978  11.319  24.562  13.882 -0.1311  0.0281 -0.0009
 1021DOPE   C1B11979  10.890  25.220  12.218 -0.1239 -0.2097 -0.1905
 1021DOPE   D2B11980  11.225  24.947  12.021  0.0085  0.0031 -0.2664
 1021DOPE   C3B11981  11.699  25.043  11.926 -0.1487  0.0115  0.0125
 1021DOPE   C4B11982  12.162  25.090  11.912  0.2245 -0.1590 -0.0905
 1022DOPS   CNO11983   2.058  27.238  12.418  0.1658 -0.1057 -0.1203
 1022DOPS   PO411984   1.924  26.896  12.482 -0.0535 -0.2055 -0.3816
 1022DOPS   GL111985   2.263  26.711  12.667  0.2125  0.0189 -0.2912
 1022DOPS   GL211986   2.287  26.508  12.459  0.1453  0.0945  0.1277
 1022DOPS   C1A11987   2.491  26.380  12.931 -0.0820  0.0846 -0.0900
 1022DOPS   D2A11988   2.723  26.011  13.024  0.0589  0.2088  0.0530
 1022DOPS   C3A11989   2.657  25.676  12.706 -0.0735  0.0661 -0.0602
 1022DOPS   C4A11990   2.317  25.754  12.324  0.1893 -0.0001  0.0797
 1022DOPS   C1B11991   2.005  26.345  12.883 -0.0919  0.2983 -0.0077
 1022DOPS   D2B11992   1.570  26.354  13.067 -0.1876  0.1213  0.0533
 1022DOPS   C3B11993   1.530  26.452  13.534 -0.0399 -0.1006  0.3528
 1022DOPS   C4B11994   1.491  26.831  13.864 -0.0108  0.0556 -0.0399
 1023DOPE   NH311995   9.638  25.536  12.431  0.2702 -0.0485  0.1516
 1023DOPE   PO411996   9.752  25.765  12.623 -0.3577  0.0030  0.0896
 1023DOPE   GL111997   9.790  26.076  12.847  0.2673 -0.2243  0.3128
 1023DOPE   GL211998   9.870  25.895  13.098  0.3526  0.4087  0.1644
 1023DOPE   C1A11999   9.510  26.316  13.137  0.0063  0.0461 -0.0649
 1023DOPE   D2A12000   9.300  26.375  13.531  0.1098 -0.0332 -0.1239
 1023DOPE   C3A12001   9.161  26.064  13.861  0.1139  0.2236  0.1220
 1023DOPE   C4A12002   9.175  26.072  14.305 -0.1838 -0.0930  0.1101
 1023DOPE   C1B12003  10.062  25.587  13.392 -0.2207 -0.0009 -0.0001
 1023DOPE   D2B12004  10.345  25.428  13.702 -0.0041 -0.0580 -0.0104
 1023DOPE   C3B12005  10.035  25.576  14.020  0.0251  0.0607  0.1564
 1023DOPE   C4B12006   9.627  25.672  14.207 -0.0733  0.1981  0.0270
 1024DOPE   NH312007  10.618  23.815  12.621  0.2497 -0.1286  0.0129
 1024DOPE   PO412008  10.310  23.916  12.483  0.3074  0.3384  0.0009
 1024DOPE   GL112009  10.202  24.097  12.664 -0.6336 -0.3573 -0.1729
 1024DOPE   GL212010  10.118  23.891  12.947  0.1199 -0.0342 -0.4960
 1024DOPE   C1A12011  10.057  24.575  12.545  0.1209  0.1954 -0.0212
 1024DOPE   D2A12012   9.717  24.958  12.624 -0.4210  0.1979  0.4751
 1024DOPE   C3A12013   9.523  24.828  13.011 -0.4222 -0.0181  0.0858
 1024DOPE   C4A12014   9.475  24.372  13.164  0.1069 -0.0874 -0.2713
 1024DOPE   C1B12015  10.466  24.066  13.109 -0.1051 -0.0233  0.1431
 1024DOPE   D2B12016  10.484  24.389  12.807 -0.4436 -0.2537 -0.0712
 1024DOPE   C3B12017  10.685  24.815  12.896  0.3806  0.0231 -0.0120
 1024DOPE   C4B12018  10.690  25.027  13.278 -0.2485  0.2224  0.1549
 1025DOPC   NC312019  10.405  26.190  12.605 -0.0226 -0.4241  0.0971
 1025DOPC   PO412020  10.173  25.945  12.436  0.1296 -0.3166 -0.1388
 1025DOPC   GL112021  10.341  25.677  12.716  0.1964  0.2702 -0.0146
 1025DOPC   GL212022  10.371  25.794  12.951 -0.1017 -0.1983  0.0561
 1025DOPC   C1A12023  10.159  25.308  12.889  0.0841  0.2263  0.0384
 1025DOPC   D2A12024  10.158  24.854  12.947  0.2795  0.2379 -0.1550
 1025DOPC   C3A12025  10.344  24.613  13.319 -0.1211 -0.3574 -0.1857
 1025DOPC   C4A12026  10.487  24.334  13.619 -0.2910 -0.0206  0.2525
 1025DOPC   C1B12027  10.277  26.047  13.333  0.2136 -0.0121 -0.3871
 1025DOPC   D2B12028  10.446  26.032  13.756 -0.2305 -0.2229  0.0782
 1025DOPC   C3B12029  10.557  25.757  14.060  0.1645 -0.1529 -0.1892
 1025DOPC   C4B12030  10.933  25.526  14.202 -0.4926 -0.0279  0.1657
 1026DOPC   NC312031   2.202  31.022  13.016  0.1707 -0.1968  0.1735
 1026DOPC   PO412032   2.209  31.413  12.948  0.0235  0.0747  0.1934
 1026DOPC   GL112033   2.209  31.455  13.302 -0.0940 -0.0404 -0.0286
 1026DOPC   GL212034   2.021  31.213  13.424  0.1821  0.0455 -0.2228
 1026DOPC   C1A12035   2.593  31.459  13.532  0.3687 -0.3376  0.1514
 1026DOPC   D2A12036   3.037  31.610  13.607  0.1389 -0.0499  0.1146
 1026DOPC   C3A12037   3.277  31.909  13.887 -0.1397  0.0559  0.2254
 1026DOPC   C4A12038   3.238  32.248  14.164  0.2299 -0.1309 -0.0588
 1026DOPC   C1B12039   1.942  31.435  13.777 -0.1422  0.1429  0.0128
 1026DOPC   D2B12040   1.890  31.840  14.076  0.2712 -0.0054 -0.0675
 1026DOPC   C3B12041   2.203  31.841  14.429  0.0641 -0.1227 -0.0206
 1026DOPC   C4B12042   2.324  32.030  14.824 -0.2069 -0.2073 -0.0312
 1027DOPE   NH312043   0.325  30.752  13.098  0.0971  0.1619  0.2734
 1027DOPE   PO412044   0.494  30.873  12.839  0.2194 -0.0731  0.1975
 1027DOPE   GL112045   0.237  31.216  12.846  0.1154  0.2917  0.2522
 1027DOPE   GL212046  -0.022  31.093  12.998  0.0887 -0.0844  0.0536
 1027DOPE   C1A12047  -0.069  31.542  12.798  0.1753  0.1773  0.4167
 1027DOPE   D2A12048  -0.410  31.756  13.049 -0.2751 -0.1321 -0.3319
 1027DOPE   C3A12049  -0.359  32.133  13.327  0.1890 -0.2314  0.2054
 1027DOPE   C4A12050  -0.423  32.582  13.182 -0.0315 -0.3232  0.2824
 1027DOPE   C1B12051   0.089  31.056  13.432  0.2073  0.1545  0.0775
 1027DOPE   D2B12052   0.192  31.414  13.776  0.1492 -0.0134  0.1682
 1027DOPE   C3B12053   0.180  31.858  13.646  0.2373  0.2438  0.1906
 1027DOPE   C4B12054   0.003  32.259  13.725 -0.0092 -0.2937 -0.2870
 1028DOPE   NH312055  11.470  33.032  12.533 -0.1023 -0.0458 -0.0033
 1028DOPE   PO412056  11.714  32.819  12.621  0.3265  0.2796  0.0246
 1028DOPE   GL112057  11.738  32.547  12.876 -0.3290  0.0361 -0.2731
 1028DOPE   GL212058  11.547  32.272  12.834  0.2423  0.0160  0.0975
 1028DOPE   C1A12059  11.581  32.454  13.287  0.1087 -0.0950  0.0566
 1028DOPE   D2A12060  11.709  32.301  13.711 -0.2043  0.3756  0.1115
 1028DOPE   C3A12061  11.802  32.595  14.059 -0.0188 -0.3440  0.0641
 1028DOPE   C4A12062  11.906  32.723  14.488 -0.0793  0.2679  0.2097
 1028DOPE   C1B12063  11.296  32.107  13.158 -0.1446  0.1370 -0.0241
 1028DOPE   D2B12064  11.119  32.168  13.614 -0.1410  0.0567  0.3542
 1028DOPE   C3B12065  10.971  32.176  14.055  0.1585 -0.1954  0.1011
 1028DOPE   C4B12066  10.988  32.146  14.484  0.1957 -0.0678 -0.0570
 1029DOPE   NH312067   6.418  28.113  12.470  0.3653 -0.1844  0.3127
 1029DOPE   PO412068   6.512  28.156  12.756  0.1219 -0.0916  0.0351
 1029DOPE   GL112069   6.492  28.254  13.081  0.0300  0.1765  0.2379
 1029DOPE   GL212070   6.787  28.386  13.139  0.0473 -0.0289  0.0608
 1029DOPE   C1A12071   6.225  28.651  13.184  0.3716  0.2091  0.3317
 1029DOPE   D2A12072   6.232  29.037  13.385  0.0100  0.0838 -0.0008
 1029DOPE   C3A12073   6.159  29.135  13.831 -0.2891  0.1753 -0.1867
 1029DOPE   C4A12074   6.356  29.471  14.100  0.0267 -0.3054  0.1310
 1029DOPE   C1B12075   6.840  28.235  13.573 -0.0681  0.1676  0.3476
 1029DOPE   D2B12076   6.972  28.336  13.993 -0.3112  0.0923  0.1844
 1029DOPE   C3B12077   6.688  28.331  14.357 -0.1532  0.2326 -0.1001
 1029DOPE   C4B12078   6.447  28.569  14.564 -0.0877 -0.1870  0.0996
 1030POSM   NC312079   0.855  31.306  13.091 -0.0181  0.0931 -0.0582
 1030POSM   PO412080   1.210  31.216  12.880  0.2411  0.1748  0.2598
 1030POSM   AM112081   1.308  31.116  13.153  0.1880  0.1536 -0.0512
 1030POSM   AM212082   1.252  30.976  13.405  0.0872 -0.0230 -0.3681
 1030POSM   T1A12083   1.536  31.350  13.569 -0.2737 -0.0393 -0.0065
 1030POSM   C2A12084   1.409  31.456  13.995  0.4191 -0.2426  0.4193
 1030POSM   C3A12085   1.686  31.493  14.374 -0.0759 -0.1507  0.3167
 1030POSM   C1B12086   1.198  31.070  13.772  0.0587 -0.2525 -0.2745
 1030POSM   D2B12087   0.951  31.259  14.148 -0.2994  0.0163 -0.3563
 1030POSM   C3B12088   1.142  31.625  14.366 -0.1751 -0.0621  0.2403
 1030POSM   C4B12089   1.463  31.926  14.375 -0.0947 -0.3179  0.0164
 1031DOPE   NH312090   3.880  30.361  12.732 -0.0775 -0.1689  0.1106
 1031DOPE   PO412091   3.904  30.555  12.463  0.6705  0.3972 -0.0206
 1031DOPE   GL112092   3.821  30.926  12.714  0.1951 -0.3505 -0.2367
 1031DOPE   GL212093   3.568  30.887  12.799 -0.4421 -0.2289  0.0346
 1031DOPE   C1A12094   3.972  31.115  13.086 -0.0647 -0.0114  0.3863
 1031DOPE   D2A12095   4.153  31.326  13.469 -0.1034  0.0050  0.0495
 1031DOPE   C3A12096   3.879  31.457  13.848  0.0746  0.1360  0.0304
 1031DOPE   C4A12097   3.613  31.582  14.163  0.0574  0.0966  0.2317
 1031DOPE   C1B12098   3.539  30.654  13.224 -0.2974 -0.0570 -0.0013
 1031DOPE   D2B12099   3.770  30.433  13.546  0.2731  0.0082  0.0258
 1031DOPE   C3B12100   3.739  30.649  13.945 -0.0701 -0.1349 -0.1847
 1031DOPE   C4B12101   3.892  30.590  14.397 -0.0003 -0.0183 -0.0774
 1032POSM   NC312102   6.600  30.283  12.648  0.0049  0.2149  0.0581
 1032POSM   PO412103   6.804  30.556  12.784  0.2876  0.0761 -0.0898
 1032POSM   AM112104   7.092  30.574  12.950  0.5431 -0.2252 -0.1543
 1032POSM   AM212105   7.335  30.535  12.925 -0.0080  0.1028  0.0038
 1032POSM   T1A12106   7.187  30.866  13.378 -0.0907  0.0133  0.1821
 1032POSM   C2A12107   6.908  31.130  13.734 -0.0532 -0.5259  0.3109
 1032POSM   C3A12108   7.201  31.539  13.758 -0.1495 -0.2809 -0.0804
 1032POSM   C1B12109   7.439  30.282  13.111 -0.1909 -0.1565  0.1963
 1032POSM   D2B12110   7.651  30.019  13.407 -0.2517 -0.2426  0.0251
 1032POSM   C3B12111   7.595  30.022  13.850  0.0131  0.0146  0.1289
 1032POSM   C4B12112   7.655  30.009  14.329 -0.0796  0.2554 -0.0372
 1033POSM   NC312113   1.008  22.930  12.640 -0.0810  0.1710 -0.0305
 1033POSM   PO412114   0.785  23.166  12.402  0.1116  0.2020  0.2246
 1033POSM   AM112115   0.670  23.359  12.683 -0.2765  0.3843  0.3369
 1033POSM   AM212116   0.552  23.341  12.935  0.4260 -0.1937  0.0756
 1033POSM   T1A12117   0.868  23.724  12.991 -0.2105 -0.0244  0.0811
 1033POSM   C2A12118   0.834  24.067  13.304 -0.1219 -0.0544  0.0073
 1033POSM   C3A12119   1.152  24.359  13.453  0.0442  0.1814 -0.0432
 1033POSM   C1B12120   0.324  23.397  13.160  0.1983 -0.1884 -0.1126
 1033POSM   D2B12121  -0.074  23.368  13.498 -0.2879  0.1213  0.1015
 1033POSM   C3B12122   0.182  23.553  13.832 -0.0666  0.2584  0.1655
 1033POSM   C4B12123   0.593  23.726  13.905  0.1646  0.1347  0.1399
 1034DOPC   NC312124  11.246  33.695  12.073 -0.0651  0.2400  0.1623
 1034DOPC   PO412125  11.480  33.392  12.195 -0.0123 -0.0448  0.1835
 1034DOPC   GL112126  11.385  33.506  12.649  0.3568  0.2729 -0.0283
 1034DOPC   GL212127  11.116  33.379  12.572  0.1648 -0.2108 -0.0572
 1034DOPC   C1A12128  11.354  33.285  13.006 -0.1825 -0.0801 -0.4072
 1034DOPC   D2A12129  10.950  33.111  12.981  0.0448 -0.2435  0.1822
 1034DOPC   C3A12130  10.789  32.953  13.418  0.1172  0.6387  0.0474
 1034DOPC   C4A12131  10.835  32.597  13.730  0.2172  0.2532 -0.0098
 1034DOPC   C1B12132  10.745  33.053  12.569 -0.0899  0.0752  0.0608
 1034DOPC   D2B12133  10.300  32.856  12.488 -0.1622  0.0282 -0.3869
 1034DOPC   C3B12134   9.869  32.556  12.645 -0.1465  0.0524  0.1337
 1034DOPC   C4B12135   9.751  32.231  13.005  0.1367 -0.2270 -0.1211
 1035DOPC   NC312136   7.664  30.850  12.553  0.3911  0.0606 -0.0211
 1035DOPC   PO412137   7.709  31.067  12.236  0.1841  0.0433  0.0625
 1035DOPC   GL112138   8.029  31.242  12.173  0.0413 -0.3073  0.5124
 1035DOPC   GL212139   7.884  31.525  12.281  0.0288 -0.1423  0.0844
 1035DOPC   C1A12140   8.276  31.261  12.522 -0.1129 -0.3442  0.0240
 1035DOPC   D2A12141   8.554  31.397  12.899 -0.0686  0.0826 -0.1921
 1035DOPC   C3A12142   8.411  31.344  13.314 -0.2003  0.3383  0.0561
 1035DOPC   C4A12143   7.944  31.384  13.503 -0.1659 -0.2906  0.0383
 1035DOPC   C1B12144   7.839  31.957  12.503  0.1053 -0.0883  0.1788
 1035DOPC   D2B12145   7.893  32.121  12.922 -0.6406 -0.1504  0.1204
 1035DOPC   C3B12146   8.045  32.443  13.208 -0.0333 -0.0733 -0.2553
 1035DOPC   C4B12147   8.107  32.606  13.649  0.1427 -0.0393 -0.0124
 1036DOPC   NC312148   3.064  28.609  12.822  0.2112  0.0251 -0.0154
 1036DOPC   PO412149   3.348  28.593  12.597  0.1928 -0.0619 -0.0466
 1036DOPC   GL112150   3.496  28.414  12.955  0.3662  0.0319  0.1154
 1036DOPC   GL212151   3.710  28.213  12.897 -0.1605  0.1599  0.0227
 1036DOPC   C1A12152   3.633  28.333  13.399 -0.0882 -0.0451  0.0502
 1036DOPC   D2A12153   3.913  28.408  13.760  0.0482  0.0436  0.2693
 1036DOPC   C3A12154   4.143  27.991  13.793  0.2660 -0.0953  0.0690
 1036DOPC   C4A12155   4.452  27.806  14.042 -0.0028 -0.1135  0.1814
 1036DOPC   C1B12156   4.166  28.310  12.737 -0.1455 -0.1704 -0.0437
 1036DOPC   D2B12157   4.640  28.308  12.820  0.1422  0.1996 -0.2999
 1036DOPC   C3B12158   4.879  27.964  13.086  0.1608  0.2555 -0.0904
 1036DOPC   C4B12159   4.768  27.524  13.144 -0.0368  0.4847 -0.0789
 1037DOPE   NH312160   7.343  24.771  12.619 -0.0802 -0.1035 -0.2816
 1037DOPE   PO412161   7.561  24.545  12.548 -0.0102 -0.3105 -0.1568
 1037DOPE   GL112162   7.548  24.308  12.934 -0.2994  0.1802  0.0449
 1037DOPE   GL212163   7.535  24.549  13.094 -0.0838 -0.0120  0.1468
 1037DOPE   C1A12164   7.230  24.120  13.187 -0.2496  0.0082  0.0258
 1037DOPE   D2A12165   7.042  23.895  13.520 -0.1951 -0.3499  0.0159
 1037DOPE   C3A12166   6.564  23.969  13.642 -0.2628 -0.1543  0.0154
 1037DOPE   C4A12167   6.234  24.298  13.577 -0.1981 -0.0282 -0.3776
 1037DOPE   C1B12168   7.231  24.537  13.501 -0.0506  0.2166 -0.3928
 1037DOPE   D2B12169   7.313  24.280  13.843  0.1320 -0.2563  0.1116
 1037DOPE   C3B12170   7.001  24.182  14.026 -0.0208  0.1634  0.0380
 1037DOPE   C4B12171   6.777  23.835  14.153  0.2513  0.2731  0.1296
 1038POSM   NC312172   7.366  23.005  12.791  0.0259 -0.2644  0.0428
 1038POSM   PO412173   7.014  23.109  12.707  0.1752 -0.0153 -0.2627
 1038POSM   AM112174   6.968  23.065  13.002  0.3709 -0.1250 -0.1861
 1038POSM   AM212175   7.111  23.151  13.233 -0.0090 -0.1572 -0.0406
 1038POSM   T1A12176   6.518  23.088  13.238 -0.1513  0.2796  0.2279
 1038POSM   C2A12177   6.162  22.822  13.146  0.2055 -0.0969  0.2439
 1038POSM   C3A12178   5.907  22.475  13.351  0.2866  0.0940  0.1710
 1038POSM   C1B12179   7.375  23.012  13.426  0.0380 -0.0088 -0.2942
 1038POSM   D2B12180   7.402  23.103  13.895  0.1130 -0.1451  0.0970
 1038POSM   C3B12181   7.112  22.842  14.104  0.0400 -0.0640 -0.0639
 1038POSM   C4B12182   6.780  22.529  14.070  0.0071 -0.0367 -0.1293
 1039DOPE   NH312183   0.667  33.341  12.950  0.0932 -0.3047  0.0008
 1039DOPE   PO412184   0.679  33.331  12.616  0.0921  0.1160 -0.1249
 1039DOPE   GL112185   0.758  32.940  12.647  0.1469 -0.0485  0.3126
 1039DOPE   GL212186   0.918  32.836  12.451 -0.2264  0.0171 -0.0609
 1039DOPE   C1A12187   0.939  32.647  12.959  0.0799 -0.1582  0.1216
 1039DOPE   D2A12188   0.870  32.318  13.219 -0.0323 -0.2190 -0.2677
 1039DOPE   C3A12189   1.007  32.428  13.609  0.3094  0.1654  0.1024
 1039DOPE   C4A12190   0.993  32.484  14.043  0.1492  0.1912  0.1243
 1039DOPE   C1B12191   1.009  32.368  12.577  0.2905  0.1159 -0.2369
 1039DOPE   D2B12192   1.013  31.933  12.733  0.5415  0.0707 -0.1017
 1039DOPE   C3B12193   0.780  31.839  13.146 -0.3425  0.1281 -0.0752
 1039DOPE   C4B12194   1.026  31.661  13.503 -0.2903 -0.2005  0.0867
 1040DOPC   NC312195   9.819  23.897  12.369  0.1321  0.4040 -0.1493
 1040DOPC   PO412196   9.898  23.560  12.592  0.2890 -0.1087  0.1383
 1040DOPC   GL112197   9.784  23.609  12.988 -0.4592 -0.2544 -0.0354
 1040DOPC   GL212198   9.584  23.764  12.934  0.1574  0.0173  0.1188
 1040DOPC   C1A12199   9.585  23.391  13.340 -0.3644 -0.2272  0.2133
 1040DOPC   D2A12200   9.231  23.092  13.528  0.2038  0.1868  0.1509
 1040DOPC   C3A12201   9.277  22.874  13.927 -0.0707 -0.0179  0.0383
 1040DOPC   C4A12202   9.710  22.747  14.038  0.1578 -0.0616  0.0370
 1040DOPC   C1B12203   9.740  23.945  13.315  0.1146 -0.2159  0.0234
 1040DOPC   D2B12204  10.145  24.027  13.568 -0.0292 -0.0463 -0.1087
 1040DOPC   C3B12205  10.434  23.905  13.867 -0.0659 -0.3905  0.0432
 1040DOPC   C4B12206  10.753  23.962  14.156  0.2500 -0.0761 -0.1078
 1041POSM   NC312207   7.821  24.160  12.306 -0.2747  0.0783  0.0188
 1041POSM   PO412208   8.203  24.262  12.183 -0.2549  0.0111 -0.1860
 1041POSM   AM112209   8.230  24.293  12.535 -0.1388  0.0068  0.1259
 1041POSM   AM212210   8.058  24.228  12.735 -0.1169 -0.3820 -0.2830
 1041POSM   T1A12211   8.485  24.119  12.969  0.0351 -0.0317 -0.0740
 1041POSM   C2A12212   8.539  23.967  13.422  0.4729 -0.5226  0.0269
 1041POSM   C3A12213   8.404  23.616  13.743  0.3188 -0.2486 -0.0924
 1041POSM   C1B12214   7.988  24.214  13.057  0.0752 -0.1406 -0.1722
 1041POSM   D2B12215   8.127  24.187  13.513  0.2378  0.2193  0.0850
 1041POSM   C3B12216   8.518  24.489  13.595  0.4615 -0.0441  0.0194
 1041POSM   C4B12217   8.704  24.764  13.963 -0.1207  0.2677 -0.1890
 1042DOPE   NH312218   9.085  29.103  12.449 -0.0805 -0.0770  0.1497
 1042DOPE   PO412219   8.806  29.116  12.376 -0.1281  0.1176 -0.0908
 1042DOPE   GL112220   8.379  29.255  12.393  0.1679 -0.0488  0.0024
 1042DOPE   GL212221   8.302  29.073  12.684 -0.1969 -0.0349  0.2098
 1042DOPE   C1A12222   7.940  29.447  12.457  0.3321 -0.1612 -0.0992
 1042DOPE   D2A12223   7.588  29.607  12.612 -0.1677  0.0157 -0.1983
 1042DOPE   C3A12224   7.681  29.489  13.036 -0.2659 -0.1384 -0.0592
 1042DOPE   C4A12225   7.663  29.488  13.505  0.1508  0.6035 -0.1160
 1042DOPE   C1B12226   8.527  29.102  13.094 -0.0206 -0.5376  0.1588
 1042DOPE   D2B12227   8.614  29.203  13.472  0.3170 -0.4305 -0.2535
 1042DOPE   C3B12228   8.482  28.937  13.837 -0.0243 -0.1751 -0.1612
 1042DOPE   C4B12229   8.346  28.870  14.281  0.1596  0.2843 -0.0008
 1043DOPE   NH312230  34.645  27.059  12.361  0.1523  0.0194  0.2723
 1043DOPE   PO412231  34.936  26.852  12.360  0.1731 -0.2829 -0.3109
 1043DOPE   GL112232  34.959  27.134  12.750 -0.2170 -0.0078  0.3110
 1043DOPE   GL212233  35.233  27.149  12.733  0.1733  0.1867  0.2298
 1043DOPE   C1A12234  35.097  26.953  13.169 -0.1197  0.3664 -0.0272
 1043DOPE   D2A12235  35.283  26.964  13.582 -0.1437  0.0902 -0.0923
 1043DOPE   C3A12236  34.973  27.238  13.846 -0.0340 -0.3513  0.1659
 1043DOPE   C4A12237  34.629  27.460  13.674 -0.0595  0.1566  0.3227
 1043DOPE   C1B12238  35.019  27.590  12.719 -0.2320 -0.2681  0.0901
 1043DOPE   D2B12239  34.643  27.831  12.793 -0.1080  0.1452  0.2987
 1043DOPE   C3B12240  34.735  28.279  12.824 -0.0492 -0.0585 -0.1379
 1043DOPE   C4B12241  34.812  28.746  12.937  0.0484  0.0938 -0.1853
 1044DOPC   NC312242   3.418  29.626  12.770 -0.0177 -0.2603 -0.2099
 1044DOPC   PO412243   3.793  29.798  12.756 -0.2487  0.0425 -0.0083
 1044DOPC   GL112244   4.004  29.877  13.117  0.1599 -0.1806  0.2057
 1044DOPC   GL212245   3.959  30.132  13.161 -0.0387 -0.0175 -0.2934
 1044DOPC   C1A12246   3.965  29.930  13.594  0.0762  0.1601  0.2128
 1044DOPC   D2A12247   3.943  30.111  13.998  0.0526 -0.0485  0.1657
 1044DOPC   C3A12248   3.524  30.220  14.177  0.0600  0.1565  0.2023
 1044DOPC   C4A12249   3.090  30.250  14.373  0.3061  0.1908  0.2315
 1044DOPC   C1B12250   4.243  30.283  13.450  0.0856 -0.1760 -0.2309
 1044DOPC   D2B12251   4.459  29.988  13.767 -0.2022 -0.0984 -0.0232
 1044DOPC   C3B12252   4.341  29.724  14.123  0.0657  0.1072  0.0181
 1044DOPC   C4B12253   4.338  29.245  14.187 -0.2244  0.2090  0.2704
 1045DOPE   NH312254   1.460  30.737  12.780 -0.1835 -0.1801  0.1946
 1045DOPE   PO412255   1.756  30.629  12.731  0.2558 -0.0057  0.0627
 1045DOPE   GL112256   1.728  30.806  13.174  0.2023  0.0330  0.0791
 1045DOPE   GL212257   1.506  30.551  13.239 -0.2916 -0.0675 -0.3428
 1045DOPE   C1A12258   1.712  30.837  13.660  0.1200  0.1077 -0.1369
 1045DOPE   D2A12259   1.784  31.020  14.039  0.0198  0.0064  0.1063
 1045DOPE   C3A12260   1.787  30.768  14.432 -0.1106  0.2150  0.3152
 1045DOPE   C4A12261   1.827  30.603  14.886  0.1615  0.2833  0.3780
 1045DOPE   C1B12262   1.380  30.500  13.688 -0.0134 -0.1896 -0.4105
 1045DOPE   D2B12263   1.355  30.672  14.139 -0.2570 -0.3005  0.2438
 1045DOPE   C3B12264   1.005  30.763  14.464 -0.4244 -0.4086 -0.0780
 1045DOPE   C4B12265   0.740  30.468  14.675  0.0563 -0.0588 -0.0827
 1046POSM   NC312266   7.885  28.812  12.489  0.0335  0.2062  0.4549
 1046POSM   PO412267   8.035  28.493  12.342 -0.0353 -0.0441 -0.0252
 1046POSM   AM112268   8.159  28.496  12.638  0.2961 -0.3351  0.1495
 1046POSM   AM212269   8.337  28.336  12.770 -0.1116  0.2291 -0.0180
 1046POSM   T1A12270   8.090  28.718  13.069  0.1995 -0.1668  0.0444
 1046POSM   C2A12271   8.047  28.838  13.493 -0.3000  0.1147  0.1425
 1046POSM   C3A12272   7.910  28.980  13.922  0.1082  0.1395  0.1584
 1046POSM   C1B12273   8.538  28.549  13.013  0.0192 -0.1813 -0.0479
 1046POSM   D2B12274   8.515  28.652  13.444 -0.0855  0.0149 -0.0287
 1046POSM   C3B12275   8.261  28.501  13.806  0.1433 -0.4146 -0.0529
 1046POSM   C4B12276   7.917  28.522  14.131  0.1662 -0.0437 -0.1565
 1047DOPC   NC312277   8.602  30.625  12.129  0.4881 -0.0595  0.1121
 1047DOPC   PO412278   8.839  30.500  12.479  0.1308 -0.0512 -0.1792
 1047DOPC   GL112279   8.796  30.701  12.797  0.0596 -0.0733 -0.0047
 1047DOPC   GL212280   8.861  30.537  12.988 -0.1141  0.1597  0.1880
 1047DOPC   C1A12281   8.920  31.093  12.991  0.0605 -0.1481 -0.0292
 1047DOPC   D2A12282   8.950  31.500  13.304 -0.0102  0.2212  0.0905
 1047DOPC   C3A12283   9.430  31.603  13.292  0.0254 -0.3011 -0.1363
 1047DOPC   C4A12284   9.797  31.458  13.070 -0.0428 -0.0024  0.0572
 1047DOPC   C1B12285   8.827  30.597  13.436  0.0540 -0.0134 -0.3290
 1047DOPC   D2B12286   8.827  31.020  13.530 -0.1897  0.2925  0.0434
 1047DOPC   C3B12287   9.239  30.902  13.366  0.2196 -0.2307  0.1190
 1047DOPC   C4B12288   9.621  31.066  13.499 -0.0934  0.2634  0.1967
 1048POSM   NC312289   7.838  34.435  12.619 -0.0770 -0.1951 -0.5368
 1048POSM   PO412290   7.578  34.605  12.384 -0.0295 -0.1168 -0.4399
 1048POSM   AM112291   7.311  34.388  12.422  0.1619  0.0428 -0.1174
 1048POSM   AM212292   7.214  34.217  12.663 -0.1425 -0.2447 -0.0159
 1048POSM   T1A12293   7.005  33.976  12.266  0.1538 -0.0563  0.1306
 1048POSM   C2A12294   7.039  33.538  12.135 -0.1427  0.0485 -0.1138
 1048POSM   C3A12295   7.019  33.071  12.212 -0.0623 -0.2682 -0.0119
 1048POSM   C1B12296   7.431  34.180  12.916  0.2091  0.1912  0.1966
 1048POSM   D2B12297   7.836  34.217  13.142  0.1970  0.3192  0.0561
 1048POSM   C3B12298   8.088  33.787  13.173 -0.1178 -0.0473 -0.2652
 1048POSM   C4B12299   8.508  33.568  13.110  0.0693 -0.0232  0.3582
 1049DOPE   NH312300   7.239  23.546  12.577  0.1270 -0.5047  0.0134
 1049DOPE   PO412301   7.297  23.547  12.911 -0.3763  0.0001  0.5635
 1049DOPE   GL112302   6.991  23.575  13.109  0.0428  0.0727 -0.0534
 1049DOPE   GL212303   6.779  23.523  12.965  0.1162  0.0163  0.4992
 1049DOPE   C1A12304   6.680  23.495  13.457 -0.3623  0.0306 -0.0154
 1049DOPE   D2A12305   6.452  23.328  13.781  0.1389  0.0720  0.3177
 1049DOPE   C3A12306   6.012  23.498  13.752  0.0242 -0.0277 -0.0741
 1049DOPE   C4A12307   5.589  23.434  13.507  0.2865 -0.0155 -0.1618
 1049DOPE   C1B12308   6.337  23.542  13.115  0.1666 -0.5058  0.2239
 1049DOPE   D2B12309   5.939  23.270  13.161 -0.2782  0.1432 -0.2560
 1049DOPE   C3B12310   5.868  22.985  13.501  0.2142 -0.2463 -0.4493
 1049DOPE   C4B12311   5.518  22.717  13.711  0.1164  0.0541  0.0605
 1050DOPC   NC312312   8.165  28.044  12.243 -0.0191 -0.0993 -0.0802
 1050DOPC   PO412313   8.348  27.683  12.196 -0.1632  0.0252  0.1597
 1050DOPC   GL112314   8.608  27.619  12.533  0.0449 -0.1309 -0.2314
 1050DOPC   GL212315   8.417  27.747  12.716 -0.2612  0.1849  0.1095
 1050DOPC   C1A12316   8.953  27.343  12.510  0.0925  0.2940  0.3868
 1050DOPC   D2A12317   9.129  26.906  12.663 -0.0178  0.4317  0.0537
 1050DOPC   C3A12318   9.426  26.833  13.007  0.0488  0.0038  0.0163
 1050DOPC   C4A12319   9.386  26.840  13.434  0.4220  0.1588 -0.0312
 1050DOPC   C1B12320   8.629  27.989  13.039  0.0742 -0.2568  0.3587
 1050DOPC   D2B12321   8.986  28.069  13.265 -0.1393  0.4077 -0.0867
 1050DOPC   C3B12322   9.333  28.072  13.017 -0.2422 -0.0489 -0.1866
 1050DOPC   C4B12323   9.475  27.726  12.792  0.1480  0.1038  0.2050
 1051DOPE   NH312324  11.840  22.940  12.181  0.0035  0.2510 -0.0540
 1051DOPE   PO412325  11.548  23.004  12.163 -0.1704 -0.0088  0.1767
 1051DOPE   GL112326  11.689  23.394  12.248  0.1574 -0.0631  0.1498
 1051DOPE   GL212327  11.521  23.510  12.484  0.0693 -0.1292 -0.0937
 1051DOPE   C1A12328  11.672  23.887  12.151 -0.0877  0.0469 -0.2165
 1051DOPE   D2A12329  11.613  24.359  12.016 -0.1319 -0.1844 -0.2979
 1051DOPE   C3A12330  11.367  24.618  12.381 -0.0480 -0.1783 -0.1024
 1051DOPE   C4A12331  10.972  24.857  12.509  0.1417 -0.1180  0.4026
 1051DOPE   C1B12332  11.832  23.815  12.676  0.2474 -0.2294 -0.0010
 1051DOPE   D2B12333  12.107  24.123  12.978  0.3636 -0.2106  0.1803
 1051DOPE   C3B12334  12.218  24.236  13.364  0.1274 -0.1632  0.0321
 1051DOPE   C4B12335  12.301  24.579  13.690 -0.1859  0.0979  0.0952
 1052POSM   NC312336   1.535  27.145  12.301 -0.0655  0.0525 -0.1374
 1052POSM   PO412337   1.610  27.311  12.675  0.0907  0.1990  0.0191
 1052POSM   AM112338   1.649  27.276  12.996 -0.2498 -0.1417  0.3126
 1052POSM   AM212339   1.608  27.446  13.215 -0.2352 -0.0921 -0.0763
 1052POSM   T1A12340   1.707  26.872  13.295 -0.1822  0.0424  0.0190
 1052POSM   C2A12341   2.072  26.541  13.445 -0.0082 -0.0450  0.6058
 1052POSM   C3A12342   2.320  26.239  13.765  0.0595 -0.1835 -0.0508
 1052POSM   C1B12343   1.313  27.284  13.294 -0.1341 -0.0100 -0.0656
 1052POSM   D2B12344   1.038  27.139  13.680 -0.2917  0.0782  0.0178
 1052POSM   C3B12345   0.862  27.463  13.977  0.0278 -0.3828  0.0235
 1052POSM   C4B12346   0.722  27.764  14.317 -0.0328  0.0303  0.2962
 1053DOPC   NC312347   6.599  29.250  12.189 -0.0020 -0.2562 -0.1103
 1053DOPC   PO412348   6.930  29.488  12.267 -0.2460  0.0464  0.0818
 1053DOPC   GL112349   6.622  29.570  12.547  0.0855  0.3305  0.1909
 1053DOPC   GL212350   6.695  29.763  12.785  0.1124  0.2032 -0.0013
 1053DOPC   C1A12351   6.361  29.898  12.379 -0.2258  0.2398  0.1059
 1053DOPC   D2A12352   5.915  30.094  12.578  0.2257 -0.1877 -0.1150
 1053DOPC   C3A12353   5.908  30.554  12.768  0.0525  0.2560 -0.3487
 1053DOPC   C4A12354   6.019  30.772  13.195  0.0054 -0.0939  0.0756
 1053DOPC   C1B12355   6.829  29.541  13.154  0.0223 -0.1582 -0.2360
 1053DOPC   D2B12356   7.149  29.333  13.371 -0.0994  0.1708 -0.1519
 1053DOPC   C3B12357   7.215  29.311  13.819 -0.1737 -0.1891 -0.0723
 1053DOPC   C4B12358   7.377  29.578  14.155  0.0886 -0.3242  0.0279
 1054POSM   NC312359   8.578  25.959  12.151 -0.1614 -0.4077 -0.0713
 1054POSM   PO412360   8.419  25.773  12.456  0.0137 -0.0520  0.2213
 1054POSM   AM112361   8.617  25.539  12.642 -0.1776  0.1593  0.0732
 1054POSM   AM212362   8.579  25.251  12.648 -0.0476 -0.0676 -0.2318
 1054POSM   T1A12363   8.928  25.541  13.031 -0.2828  0.2174  0.2384
 1054POSM   C2A12364   8.910  25.522  13.466 -0.0045 -0.0876 -0.2311
 1054POSM   C3A12365   9.000  25.522  13.912  0.0631 -0.1543 -0.0081
 1054POSM   C1B12366   8.511  25.207  12.964 -0.0212 -0.3196 -0.0542
 1054POSM   D2B12367   8.416  25.386  13.356 -0.1146  0.4372 -0.1069
 1054POSM   C3B12368   8.149  25.332  13.692  0.2810 -0.1167 -0.2203
 1054POSM   C4B12369   7.882  25.194  14.059 -0.2010 -0.0885  0.2179
 1055POSM   NC312370   1.012  29.969  12.634  0.0884 -0.2413 -0.3187
 1055POSM   PO412371   0.788  29.903  12.958  0.1635 -0.0555  0.0562
 1055POSM   AM112372   0.746  29.861  13.249  0.2004 -0.1019  0.1612
 1055POSM   AM212373   0.926  29.873  13.432  0.0348  0.1623  0.1670
 1055POSM   T1A12374   0.539  29.650  13.674  0.1219  0.5386  0.0105
 1055POSM   C2A12375   0.344  29.358  13.997 -0.0073  0.2095  0.1979
 1055POSM   C3A12376   0.029  29.002  14.030  0.1999 -0.1305 -0.1099
 1055POSM   C1B12377   0.860  29.975  13.746  0.2876  0.2458  0.1965
 1055POSM   D2B12378   0.883  30.331  14.060  0.2193 -0.1593  0.1792
 1055POSM   C3B12379   1.134  30.192  14.423  0.0446  0.2876 -0.2900
 1055POSM   C4B12380   1.285  30.468  14.778  0.2321  0.2637  0.3585
 1056DOPC   NC312381   5.990  25.899  12.844 -0.0668 -0.1442  0.2154
 1056DOPC   PO412382   5.692  25.699  12.757  0.1314  0.1682 -0.2844
 1056DOPC   GL112383   5.474  25.471  12.919  0.1351 -0.2633  0.2794
 1056DOPC   GL212384   5.621  25.372  13.133 -0.0664 -0.2638  0.3986
 1056DOPC   C1A12385   5.129  25.235  13.169  0.2036  0.0870 -0.0090
 1056DOPC   D2A12386   4.865  25.120  13.516  0.1697 -0.1589 -0.0082
 1056DOPC   C3A12387   5.062  25.196  13.902 -0.4169 -0.1051  0.2404
 1056DOPC   C4A12388   4.980  25.394  14.304  0.0424 -0.1427  0.0526
 1056DOPC   C1B12389   5.523  25.366  13.644  0.4053 -0.1109  0.1647
 1056DOPC   D2B12390   5.516  25.015  13.907  0.2823 -0.3098 -0.0491
 1056DOPC   C3B12391   5.523  24.621  13.879 -0.1860 -0.3568  0.1855
 1056DOPC   C4B12392   5.295  24.186  13.902  0.0834  0.1883 -0.0905
 1057DOPE   NH312393   3.238  23.833  12.878 -0.2088 -0.2693 -0.0835
 1057DOPE   PO412394   3.089  24.027  12.681  0.1593 -0.0652  0.1618
 1057DOPE   GL112395   3.181  24.449  12.755  0.0751 -0.0489 -0.0178
 1057DOPE   GL212396   3.081  24.490  12.435  0.4277  0.0141  0.0869
 1057DOPE   C1A12397   3.399  24.760  13.035  0.0979 -0.0251 -0.1860
 1057DOPE   D2A12398   3.671  24.848  13.377  0.0806  0.0238  0.1393
 1057DOPE   C3A12399   4.108  24.853  13.395 -0.0166  0.0612  0.0452
 1057DOPE   C4A12400   4.406  24.632  13.646  0.3836 -0.0317  0.3474
 1057DOPE   C1B12401   3.052  24.878  12.695 -0.2717  0.0586 -0.1635
 1057DOPE   D2B12402   2.905  25.268  12.937 -0.0060  0.1828 -0.0362
 1057DOPE   C3B12403   2.990  25.193  13.378  0.3607 -0.0904 -0.0259
 1057DOPE   C4B12404   3.110  25.140  13.863  0.1395  0.3308 -0.1054
 1058POSM   NC312405   3.009  34.155  12.801 -0.0097  0.2376 -0.0790
 1058POSM   PO412406   3.277  34.457  12.840  0.2340 -0.0228 -0.3258
 1058POSM   AM112407   3.272  34.528  13.172  0.2074 -0.1208  0.0145
 1058POSM   AM212408   3.077  34.540  13.367 -0.3034  0.2217  0.5651
 1058POSM   T1A12409   3.582  34.625  13.537 -0.3068 -0.1569  0.1026
 1058POSM   C2A12410   3.938  34.654  13.891  0.1547 -0.4022 -0.1636
 1058POSM   C3A12411   4.184  34.270  13.916  0.3288  0.2263  0.1753
 1058POSM   C1B12412   2.914  34.540  13.621 -0.0186 -0.0221 -0.1077
 1058POSM   D2B12413   2.890  34.392  14.060  0.1606 -0.1269 -0.1238
 1058POSM   C3B12414   2.752  34.673  14.465  0.0903 -0.1142 -0.0829
 1058POSM   C4B12415   2.613  35.096  14.639  0.1034  0.3734  0.1094
 1059POSM   NC312416   4.661  25.981  12.220 -0.0868 -0.2145  0.1585
 1059POSM   PO412417   4.377  26.024  12.516 -0.0264 -0.0009 -0.0217
 1059POSM   AM112418   4.328  25.834  12.791 -0.0397 -0.2880 -0.0602
 1059POSM   AM212419   4.322  25.771  13.097 -0.1033  0.2687  0.0306
 1059POSM   T1A12420   4.196  25.366  12.919 -0.0792  0.1097 -0.1703
 1059POSM   C2A12421   3.905  25.248  13.274 -0.1868  0.0158 -0.0740
 1059POSM   C3A12422   3.875  25.330  13.737  0.1462  0.0856  0.1750
 1059POSM   C1B12423   3.998  25.810  13.224 -0.1547 -0.3280 -0.1590
 1059POSM   D2B12424   3.544  25.653  13.458  0.1407  0.1723 -0.2353
 1059POSM   C3B12425   3.238  25.938  13.644  0.0434 -0.0145  0.2629
 1059POSM   C4B12426   2.772  25.959  13.537 -0.0380  0.0649 -0.1670
 1060DOPS   CNO12427   6.850  28.321  12.301  0.0116 -0.1256  0.1455
 1060DOPS   PO412428   7.015  28.337  12.672 -0.1437  0.0931  0.1651
 1060DOPS   GL112429   7.140  28.556  12.941 -0.2216  0.1664 -0.1476
 1060DOPS   GL212430   7.011  28.836  12.913 -0.1621 -0.1785 -0.1548
 1060DOPS   C1A12431   7.146  28.583  13.386 -0.0557 -0.1432  0.4609
 1060DOPS   D2A12432   7.052  28.789  13.791 -0.0816 -0.1799  0.3826
 1060DOPS   C3A12433   6.770  29.116  13.716  0.0376 -0.0099  0.1805
 1060DOPS   C4A12434   6.538  29.499  13.650 -0.2096  0.3491 -0.0866
 1060DOPS   C1B12435   6.722  28.911  13.177 -0.0029 -0.1129 -0.2622
 1060DOPS   D2B12436   6.507  28.666  13.554  0.2501 -0.2293  0.2106
 1060DOPS   C3B12437   6.102  28.629  13.785  0.3869 -0.1261 -0.1713
 1060DOPS   C4B12438   6.057  28.713  14.286  0.1210  0.0740 -0.0935
 1061DOPC   NC312439   1.760  32.064  12.671  0.0664 -0.2295  0.1396
 1061DOPC   PO412440   2.131  31.960  12.557 -0.1152  0.1488 -0.0265
 1061DOPC   GL112441   2.239  32.141  12.894 -0.4380  0.1899  0.0042
 1061DOPC   GL212442   2.099  31.927  13.036 -0.1044  0.0213 -0.0167
 1061DOPC   C1A12443   2.515  32.442  13.110 -0.0975 -0.1445 -0.1574
 1061DOPC   D2A12444   2.426  32.445  13.559 -0.0747 -0.2225 -0.1910
 1061DOPC   C3A12445   2.565  32.756  13.867 -0.2474 -0.3582 -0.0924
 1061DOPC   C4A12446   2.736  33.137  14.056  0.0668  0.0310 -0.0526
 1061DOPC   C1B12447   1.960  32.326  13.289  0.1084 -0.1879 -0.0418
 1061DOPC   D2B12448   1.884  32.319  13.786 -0.0289  0.0162 -0.0875
 1061DOPC   C3B12449   1.506  32.465  13.939 -0.3021  0.0712 -0.0275
 1061DOPC   C4B12450   1.350  32.663  14.330 -0.0136 -0.2498 -0.1661
 1062POSM   NC312451   0.316  30.285  12.893  0.0820 -0.2469  0.1650
 1062POSM   PO412452   0.225  29.972  12.670 -0.0056  0.2071 -0.2098
 1062POSM   AM112453   0.170  29.686  12.859  0.0721 -0.2338 -0.0149
 1062POSM   AM212454  -0.087  29.546  12.898  0.0003 -0.3218 -0.1768
 1062POSM   T1A12455   0.267  29.308  13.261  0.4228 -0.1327  0.1359
 1062POSM   C2A12456   0.384  29.037  13.595 -0.4235  0.0246 -0.0358
 1062POSM   C3A12457   0.766  29.039  13.881  0.0630 -0.3033  0.2574
 1062POSM   C1B12458  -0.147  29.230  12.998 -0.1377  0.1746 -0.3377
 1062POSM   D2B12459  -0.400  28.876  13.097 -0.0455  0.1494 -0.0925
 1062POSM   C3B12460  -0.357  28.415  13.173 -0.2034 -0.2323 -0.1076
 1062POSM   C4B12461  -0.088  28.045  13.290 -0.1338 -0.0038 -0.1847
 1063DOPE   NH312462   5.769  26.309  12.776  0.0847 -0.3046  0.2098
 1063DOPE   PO412463   5.809  26.403  13.086  0.2106  0.2277  0.0241
 1063DOPE   GL112464   5.894  26.403  13.433 -0.1438 -0.0339 -0.0674
 1063DOPE   GL212465   5.836  26.240  13.600  0.0152 -0.1030  0.0544
 1063DOPE   C1A12466   5.763  26.692  13.770 -0.3038 -0.2319  0.2610
 1063DOPE   D2A12467   5.836  26.627  14.195  0.5021  0.0272 -0.3661
 1063DOPE   C3A12468   5.818  27.059  14.329 -0.1549  0.1612 -0.3618
 1063DOPE   C4A12469   5.983  27.367  14.568  0.0100  0.1860 -0.0016
 1063DOPE   C1B12470   5.497  26.220  13.934  0.0438  0.4311  0.1806
 1063DOPE   D2B12471   5.352  26.570  14.258 -0.1276  0.2313  0.0794
 1063DOPE   C3B12472   5.393  26.948  14.466  0.1113  0.0028 -0.0650
 1063DOPE   C4B12473   5.428  27.383  14.501 -0.0591  0.1513 -0.1810
 1064POSM   NC312474   0.986  30.835  12.633  0.0131 -0.0865  0.1769
 1064POSM   PO412475   0.956  30.804  13.021 -0.3686  0.0475 -0.1207
 1064POSM   AM112476   0.839  30.855  13.302 -0.1859 -0.3673 -0.2717
 1064POSM   AM212477   0.628  30.965  13.447 -0.2918 -0.1764 -0.0204
 1064POSM   T1A12478   0.872  30.744  13.826 -0.1933 -0.0257 -0.4005
 1064POSM   C2A12479   0.551  30.624  14.163  0.2939 -0.1243 -0.0915
 1064POSM   C3A12480   0.289  30.288  14.388  0.2965 -0.3987  0.0459
 1064POSM   C1B12481   0.641  31.193  13.624 -0.0648 -0.2023  0.1706
 1064POSM   D2B12482   0.641  31.601  13.838 -0.1803 -0.0466  0.2340
 1064POSM   C3B12483   0.552  31.788  14.287 -0.0253  0.2787  0.0549
 1064POSM   C4B12484   0.389  32.132  14.560  0.1376  0.1344 -0.0050
 1065POSM   NC312485   3.785  31.571  12.197  0.0326  0.1746 -0.0575
 1065POSM   PO412486   3.465  31.519  12.435  0.1241 -0.1726 -0.3351
 1065POSM   AM112487   3.289  31.380  12.665 -0.0960  0.2226  0.1822
 1065POSM   AM212488   3.309  31.364  12.945 -0.1646 -0.0092  0.4474
 1065POSM   T1A12489   3.048  30.949  12.798 -0.1853 -0.0088  0.1319
 1065POSM   C2A12490   2.695  30.702  12.648  0.0001  0.1502  0.2977
 1065POSM   C3A12491   2.555  30.289  12.523 -0.3047 -0.0573  0.2027
 1065POSM   C1B12492   3.446  31.202  13.197 -0.0213  0.1882 -0.1185
 1065POSM   D2B12493   3.599  31.041  13.548 -0.0696 -0.1527  0.0921
 1065POSM   C3B12494   3.504  31.118  14.074  0.1380  0.1115 -0.1904
 1065POSM   C4B12495   3.371  30.795  14.402  0.2027  0.1676 -0.0412
 1066POSM   NC312496   1.569  29.380  12.830 -0.0831  0.1295  0.3759
 1066POSM   PO412497   1.725  29.738  12.911 -0.1489 -0.3205  0.0912
 1066POSM   AM112498   1.818  29.906  13.163  0.4802  0.1935 -0.1741
 1066POSM   AM212499   1.868  30.174  13.189 -0.1239 -0.0366  0.5437
 1066POSM   T1A12500   2.138  29.860  13.547  0.1046  0.3550  0.1535
 1066POSM   C2A12501   2.218  29.540  13.862 -0.1487 -0.2015  0.1884
 1066POSM   C3A12502   2.307  29.552  14.326 -0.1237 -0.3716  0.3820
 1066POSM   C1B12503   1.835  30.324  13.491 -0.0323  0.0037 -0.1671
 1066POSM   D2B12504   2.036  30.531  13.879  0.2086  0.3676  0.2929
 1066POSM   C3B12505   2.150  30.419  14.320  0.3320 -0.2695  0.0379
 1066POSM   C4B12506   2.613  30.469  14.534 -0.1880 -0.1707 -0.0941
 1067DOPS   CNO12507   8.602  28.110  12.413  0.0391  0.2682  0.1753
 1067DOPS   PO412508   8.610  28.278  12.083 -0.1015  0.0172  0.0809
 1067DOPS   GL112509   8.957  28.480  12.230  0.2044  0.3994  0.0371
 1067DOPS   GL212510   8.967  28.774  12.123 -0.3379  0.1432 -0.1946
 1067DOPS   C1A12511   9.329  28.328  11.986  0.0261 -0.2672 -0.1758
 1067DOPS   D2A12512   9.714  28.056  12.145  0.0066  0.1890  0.1956
 1067DOPS   C3A12513   9.488  27.659  12.205 -0.1707  0.1102  0.1465
 1067DOPS   C4A12514   9.585  27.206  12.066 -0.0186 -0.1865 -0.0791
 1067DOPS   C1B12515   9.304  28.648  12.424 -0.5861  0.1195 -0.3532
 1067DOPS   D2B12516   9.466  28.545  12.849  0.3016  0.1506 -0.1746
 1067DOPS   C3B12517   9.263  28.541  13.257 -0.1268 -0.1067 -0.0020
 1067DOPS   C4B12518   9.020  28.467  13.610  0.2839  0.0781 -0.1611
 1068POSM   NC312519   7.759  23.817  12.826 -0.0610  0.1078  0.1131
 1068POSM   PO412520   7.465  24.012  12.611 -0.1776 -0.0967  0.0118
 1068POSM   AM112521   7.188  24.149  12.724  0.0350 -0.3580  0.0949
 1068POSM   AM212522   6.936  24.016  12.652  0.2771  0.1922  0.0048
 1068POSM   T1A12523   7.019  24.560  13.010 -0.0968 -0.2735 -0.1691
 1068POSM   C2A12524   6.838  25.038  13.079 -0.1181 -0.1799  0.1765
 1068POSM   C3A12525   7.035  25.109  13.478 -0.0845 -0.2943 -0.0206
 1068POSM   C1B12526   6.805  24.049  12.964 -0.0882  0.1543  0.1354
 1068POSM   D2B12527   6.785  24.279  13.377  0.1400  0.2120  0.3636
 1068POSM   C3B12528   6.673  24.507  13.760 -0.1645 -0.1021  0.1783
 1068POSM   C4B12529   6.875  24.869  13.981  0.3861 -0.3054  0.2110
 1069DOPE   NH312530  11.060  26.839  12.876  0.0324 -0.2420  0.0431
 1069DOPE   PO412531  10.901  26.854  12.606  0.3526  0.0359 -0.2336
 1069DOPE   GL112532  10.594  27.087  12.640  0.4648 -0.2427  0.3531
 1069DOPE   GL212533  10.632  27.250  12.908  0.1150 -0.0948 -0.0773
 1069DOPE   C1A12534  10.182  27.041  12.760 -0.0732  0.1106  0.3419
 1069DOPE   D2A12535   9.877  27.129  13.099 -0.5224  0.3214  0.0202
 1069DOPE   C3A12536   9.722  27.600  13.285  0.0913 -0.2513  0.0963
 1069DOPE   C4A12537   9.589  27.678  13.680 -0.1209 -0.1626 -0.1457
 1069DOPE   C1B12538  10.391  27.639  12.979 -0.1646  0.3240  0.1160
 1069DOPE   D2B12539  10.132  27.916  13.189 -0.0040 -0.4107  0.1843
 1069DOPE   C3B12540   9.698  28.085  13.317 -0.2038 -0.1703  0.1766
 1069DOPE   C4B12541   9.332  28.086  13.664 -0.1609 -0.0447 -0.1023
 1070DOPE   NH312542  11.922  33.746  12.183  0.0931 -0.1009  0.0636
 1070DOPE   PO412543  11.745  33.809  12.398  0.2535  0.1246  0.0441
 1070DOPE   GL112544  11.554  33.909  12.726 -0.2795  0.0951  0.2845
 1070DOPE   GL212545  11.300  33.943  12.620  0.1728  0.0428 -0.2458
 1070DOPE   C1A12546  11.461  34.101  13.141  0.1462 -0.2517  0.2033
 1070DOPE   D2A12547  11.242  33.967  13.589  0.2361 -0.0514  0.1232
 1070DOPE   C3A12548  11.028  33.892  13.981 -0.1921 -0.2008  0.0064
 1070DOPE   C4A12549  10.712  33.816  14.332 -0.2415  0.2736 -0.0281
 1070DOPE   C1B12550  11.099  33.700  12.972  0.1125 -0.1342  0.3406
 1070DOPE   D2B12551  11.045  33.482  13.327 -0.1394 -0.2971  0.0248
 1070DOPE   C3B12552  10.741  33.717  13.578  0.0029 -0.1263  0.3928
 1070DOPE   C4B12553  10.280  33.868  13.569 -0.1009 -0.0899  0.0002
 1071DOPE   NH312554   4.240  30.903  12.648  0.2823 -0.3223  0.1801
 1071DOPE   PO412555   4.390  30.605  12.619 -0.2102  0.4092  0.3058
 1071DOPE   GL112556   4.269  30.334  12.953 -0.1664 -0.0743  0.4890
 1071DOPE   GL212557   4.594  30.369  13.076  0.2556 -0.0780  0.1521
 1071DOPE   C1A12558   4.041  30.650  13.201  0.1391  0.2729 -0.0369
 1071DOPE   D2A12559   4.092  30.779  13.649 -0.3165  0.2785 -0.0004
 1071DOPE   C3A12560   4.226  30.510  13.918 -0.0901  0.0399  0.2137
 1071DOPE   C4A12561   4.264  30.283  14.314 -0.0730 -0.1747  0.1898
 1071DOPE   C1B12562   4.820  29.978  12.915 -0.0965 -0.0760  0.1554
 1071DOPE   D2B12563   4.773  29.568  12.667  0.0808 -0.2458 -0.0437
 1071DOPE   C3B12564   4.830  29.326  13.029  0.3119  0.0274 -0.1090
 1071DOPE   C4B12565   5.069  29.454  13.411  0.1160  0.1525  0.1185
 1072DOPE   NH312566   1.022  26.427  12.468 -0.2766  0.0795 -0.5264
 1072DOPE   PO412567   0.769  26.303  12.315 -0.1795  0.1493 -0.1984
 1072DOPE   GL112568   0.926  25.883  12.387 -0.0089 -0.2094 -0.3228
 1072DOPE   GL212569   0.660  25.726  12.315  0.1608 -0.0816 -0.0020
 1072DOPE   C1A12570   1.079  25.535  12.164 -0.2855  0.2318  0.0981
 1072DOPE   D2A12571   1.378  25.243  12.326 -0.3427  0.0616 -0.0645
 1072DOPE   C3A12572   1.691  25.445  12.570  0.1079  0.0988  0.2002
 1072DOPE   C4A12573   2.133  25.601  12.744  0.1431  0.0270 -0.1317
 1072DOPE   C1B12574   0.597  25.234  12.201  0.1955  0.0974  0.1852
 1072DOPE   D2B12575   0.786  24.805  12.250  0.2756  0.2285 -0.0037
 1072DOPE   C3B12576   1.108  24.711  12.551  0.0892  0.1028  0.1298
 1072DOPE   C4B12577   1.228  24.361  12.838 -0.0667  0.1694 -0.0637
 1073POSM   NC312578   0.657  26.021  13.175  0.2014 -0.3600 -0.0812
 1073POSM   PO412579   0.722  26.124  12.824  0.1007  0.1762 -0.1143
 1073POSM   AM112580   0.958  25.929  12.865  0.3437  0.1573 -0.1057
 1073POSM   AM212581   1.149  25.923  13.070  0.1967 -0.0218  0.1856
 1073POSM   T1A12582   1.207  25.550  12.742 -0.0606  0.2548  0.6029
 1073POSM   C2A12583   1.330  25.077  12.838 -0.0944 -0.0882  0.0498
 1073POSM   C3A12584   1.538  24.730  13.160 -0.0418  0.1559  0.1879
 1073POSM   C1B12585   1.333  25.846  13.329 -0.1817  0.1832  0.1853
 1073POSM   D2B12586   1.405  25.742  13.755 -0.2376  0.1638 -0.1242
 1073POSM   C3B12587   1.738  25.426  13.790  0.1021  0.2766  0.0451
 1073POSM   C4B12588   1.924  24.980  13.920 -0.1380 -0.0089 -0.1514
 1074DOPC   NC312589  11.123  31.950  12.125  0.0657  0.1590 -0.0240
 1074DOPC   PO412590  11.239  32.141  12.443 -0.2335  0.1563 -0.1078
 1074DOPC   GL112591  11.053  31.994  12.751 -0.3103 -0.1026 -0.2200
 1074DOPC   GL212592  10.845  32.187  12.722 -0.2335 -0.0161 -0.2244
 1074DOPC   C1A12593  10.779  31.956  13.186 -0.0268 -0.1246  0.1569
 1074DOPC   D2A12594  10.648  31.843  13.585  0.0747 -0.0167 -0.1188
 1074DOPC   C3A12595  10.418  32.102  13.870 -0.5139  0.1845 -0.2857
 1074DOPC   C4A12596  10.217  32.481  13.904  0.2969  0.2157 -0.1819
 1074DOPC   C1B12597  10.666  32.634  12.947 -0.0886 -0.0730  0.2051
 1074DOPC   D2B12598  10.463  33.049  13.053  0.3153  0.0668 -0.0754
 1074DOPC   C3B12599  10.398  33.271  13.480  0.0589 -0.2240 -0.1028
 1074DOPC   C4B12600  10.035  33.455  13.741  0.3417  0.0757  0.2955
 1075DOPC   NC312601   6.331  32.497  12.776 -0.0860 -0.0670 -0.1296
 1075DOPC   PO412602   6.566  32.407  12.441  0.0680  0.1030  0.0194
 1075DOPC   GL112603   6.647  32.828  12.430  0.5225  0.2039  0.0855
 1075DOPC   GL212604   6.614  32.851  12.785 -0.1845  0.2557  0.5709
 1075DOPC   C1A12605   6.673  33.297  12.563 -0.0521  0.1010  0.3755
 1075DOPC   D2A12606   6.586  33.415  12.980  0.3770 -0.2156  0.0055
 1075DOPC   C3A12607   6.842  33.168  13.304  0.1119 -0.0085 -0.2978
 1075DOPC   C4A12608   6.974  33.093  13.782 -0.2005 -0.0673 -0.0164
 1075DOPC   C1B12609   6.424  32.917  13.187  0.1041  0.1243  0.2323
 1075DOPC   D2B12610   6.086  32.601  13.235  0.0342 -0.2572  0.3469
 1075DOPC   C3B12611   5.992  32.406  13.622 -0.0927 -0.0069 -0.2950
 1075DOPC   C4B12612   5.963  32.527  14.079  0.0256 -0.0005  0.2353
 1076POSM   NC312613   1.906  28.472  12.460  0.1099  0.0646 -0.1574
 1076POSM   PO412614   2.082  28.249  12.719 -0.0870  0.1737 -0.0327
 1076POSM   AM112615   1.872  28.193  12.954 -0.1992 -0.1880 -0.3769
 1076POSM   AM212616   1.653  28.399  13.044  0.2191  0.0323 -0.0316
 1076POSM   T1A12617   1.485  28.003  13.216  0.0444  0.1559  0.1323
 1076POSM   C2A12618   1.149  27.727  13.237 -0.2013  0.2508  0.0388
 1076POSM   C3A12619   0.802  27.692  13.516 -0.5075 -0.3646 -0.4581
 1076POSM   C1B12620   1.471  28.580  13.263 -0.2584 -0.1098  0.1321
 1076POSM   D2B12621   1.086  28.602  13.523  0.0071  0.3251 -0.1226
 1076POSM   C3B12622   1.020  29.044  13.471 -0.1525 -0.0793  0.2951
 1076POSM   C4B12623   0.821  29.396  13.316  0.0998  0.1726 -0.0864
 1077POSM   NC312624   8.873  29.527  12.094 -0.2664  0.2213  0.0863
 1077POSM   PO412625   8.680  29.600  12.450  0.0793  0.2417  0.2105
 1077POSM   AM112626   8.755  29.486  12.750  0.2169  0.0293 -0.1402
 1077POSM   AM212627   8.608  29.551  12.984  0.2946  0.1979 -0.0695
 1077POSM   T1A12628   9.046  29.271  13.049  0.2044  0.0122  0.0737
 1077POSM   C2A12629   9.433  28.993  12.992  0.1553 -0.1902 -0.1916
 1077POSM   C3A12630   9.841  28.947  12.968 -0.3482  0.0757  0.0933
 1077POSM   C1B12631   8.501  29.700  13.296 -0.1408  0.0395  0.4004
 1077POSM   D2B12632   8.194  29.900  13.659 -0.1516 -0.1298  0.0070
 1077POSM   C3B12633   7.886  29.635  13.952 -0.2527  0.0369  0.1185
 1077POSM   C4B12634   7.864  29.319  14.268  0.1649  0.1329  0.1805
 1078DOPS   CNO12635   7.677  25.702  12.635  0.0870 -0.2611  0.0556
 1078DOPS   PO412636   7.897  25.918  12.352  0.1466 -0.0237 -0.0248
 1078DOPS   GL112637   8.007  26.174  12.588 -0.3289  0.0117  0.1982
 1078DOPS   GL212638   8.245  26.306  12.492  0.0062  0.3085  0.0194
 1078DOPS   C1A12639   8.285  26.236  12.977  0.1425  0.0139  0.1039
 1078DOPS   D2A12640   8.202  26.304  13.420 -0.4199 -0.2947  0.1284
 1078DOPS   C3A12641   8.230  26.145  13.788  0.1507 -0.2744  0.0407
 1078DOPS   C4A12642   8.026  26.204  14.130 -0.0618  0.1624 -0.1186
 1078DOPS   C1B12643   8.639  26.423  12.640  0.0797  0.1271  0.1117
 1078DOPS   D2B12644   9.027  26.336  12.362 -0.0948  0.1101 -0.0193
 1078DOPS   C3B12645   9.399  26.356  12.549 -0.3632 -0.0590  0.1389
 1078DOPS   C4B12646   9.761  26.630  12.618 -0.0645 -0.0544  0.0061
 1079DOPE   NH312647   7.807  30.594  12.114 -0.3065  0.0016  0.2904
 1079DOPE   PO412648   8.074  30.742  12.126 -0.0688  0.1322  0.1683
 1079DOPE   GL112649   8.135  30.745  12.518 -0.0527  0.0409  0.2082
 1079DOPE   GL212650   8.389  30.731  12.646 -0.0303  0.0290  0.2313
 1079DOPE   C1A12651   8.099  31.053  12.920 -0.0812  0.4022 -0.1759
 1079DOPE   D2A12652   7.669  31.155  13.044  0.0129  0.1310  0.1210
 1079DOPE   C3A12653   7.545  31.156  13.530 -0.2405  0.3690 -0.1912
 1079DOPE   C4A12654   7.667  31.278  13.935 -0.1544  0.2067  0.1621
 1079DOPE   C1B12655   8.730  31.059  12.378 -0.0192 -0.2782 -0.5180
 1079DOPE   D2B12656   9.191  30.944  12.376 -0.0688 -0.0539 -0.0765
 1079DOPE   C3B12657   9.678  30.978  12.491  0.2238  0.0343 -0.0177
 1079DOPE   C4B12658  10.004  31.376  12.593  0.0632 -0.2335  0.1430
 1080DOPC   NC312659   6.868  27.848  12.557  0.0084 -0.1214  0.0572
 1080DOPC   PO412660   6.775  27.458  12.690 -0.2805 -0.1003  0.1823
 1080DOPC   GL112661   6.962  27.628  12.951 -0.0576 -0.1186  0.1946
 1080DOPC   GL212662   6.889  27.906  13.028  0.0003  0.3419  0.0606
 1080DOPC   C1A12663   7.110  27.600  13.349  0.0332  0.0547 -0.1382
 1080DOPC   D2A12664   7.147  27.312  13.789 -0.1887  0.0906 -0.2063
 1080DOPC   C3A12665   6.854  27.513  14.143 -0.0935 -0.0144 -0.0484
 1080DOPC   C4A12666   6.514  27.841  14.307 -0.0459  0.2051  0.4016
 1080DOPC   C1B12667   6.518  27.906  13.306 -0.2663  0.2814 -0.1407
 1080DOPC   D2B12668   6.241  28.234  13.473  0.4334  0.0063  0.0643
 1080DOPC   C3B12669   5.998  28.017  13.845 -0.2658  0.2498  0.1214
 1080DOPC   C4B12670   6.175  28.139  14.307  0.2246  0.1241 -0.1944
 1081DOPC   NC312671   4.783  30.917  12.624 -0.1359  0.1476 -0.0522
 1081DOPC   PO412672   4.752  31.348  12.514 -0.0288  0.1649  0.2686
 1081DOPC   GL112673   4.726  31.395  12.912  0.2630  0.3548 -0.1988
 1081DOPC   GL212674   4.984  31.279  13.010 -0.0375  0.0792 -0.0208
 1081DOPC   C1A12675   4.526  31.039  13.177  0.0577 -0.2335  0.0138
 1081DOPC   D2A12676   4.532  30.677  13.431 -0.0578 -0.2552  0.0874
 1081DOPC   C3A12677   4.612  30.870  13.795 -0.1251  0.1829  0.1695
 1081DOPC   C4A12678   4.728  31.196  14.057 -0.2678  0.0279  0.1457
 1081DOPC   C1B12679   4.946  30.835  13.075 -0.1314  0.0913  0.0148
 1081DOPC   D2B12680   5.007  30.509  13.371  0.0002  0.1251  0.1473
 1081DOPC   C3B12681   5.092  30.262  13.757 -0.0837 -0.1501  0.2576
 1081DOPC   C4B12682   5.173  30.126  14.183  0.2937  0.3121 -0.4730
 1082DOPC   NC312683   4.365  33.787  12.156  0.0480 -0.3302  0.2912
 1082DOPC   PO412684   4.578  33.690  12.503  0.2853 -0.0617  0.2545
 1082DOPC   GL112685   4.600  33.371  12.745  0.2329  0.1343 -0.0858
 1082DOPC   GL212686   4.415  33.459  12.933 -0.0956 -0.1174  0.0873
 1082DOPC   C1A12687   4.676  32.969  13.016  0.2176 -0.0809  0.3081
 1082DOPC   D2A12688   4.403  32.734  13.307  0.0142  0.0222 -0.0967
 1082DOPC   C3A12689   4.569  32.759  13.754 -0.1666 -0.1549 -0.0987
 1082DOPC   C4A12690   4.433  32.924  14.141  0.0033 -0.0208 -0.2497
 1082DOPC   C1B12691   4.461  33.250  13.310  0.1569  0.1094 -0.1979
 1082DOPC   D2B12692   4.330  33.206  13.770 -0.0888  0.3250 -0.2583
 1082DOPC   C3B12693   4.684  33.348  14.041  0.1022 -0.2999 -0.0649
 1082DOPC   C4B12694   5.095  33.474  14.005 -0.1108  0.0139 -0.1321
 1083DOPE   NH312695   8.090  25.422  12.329  0.3359 -0.2370  0.0115
 1083DOPE   PO412696   8.311  25.213  12.162  0.3808 -0.1394  0.2084
 1083DOPE   GL112697   8.227  25.002  12.462  0.1659 -0.1191  0.1539
 1083DOPE   GL212698   8.317  24.750  12.346  0.1960 -0.0727  0.1024
 1083DOPE   C1A12699   8.080  24.786  12.862 -0.0007 -0.2688 -0.1585
 1083DOPE   D2A12700   8.159  24.802  13.320  0.0899  0.0955 -0.0227
 1083DOPE   C3A12701   8.102  24.668  13.797  0.1000 -0.1069  0.2783
 1083DOPE   C4A12702   7.715  24.739  14.029  0.0682  0.4348  0.1847
 1083DOPE   C1B12703   8.557  24.668  12.700  0.2146  0.2148 -0.2194
 1083DOPE   D2B12704   8.579  24.668  13.145 -0.2853  0.1707 -0.1256
 1083DOPE   C3B12705   8.717  24.974  13.465 -0.1270  0.0237  0.1741
 1083DOPE   C4B12706   8.617  25.223  13.843  0.1638  0.1378 -0.0456
 1084DOPC   NC312707  11.909  30.781  12.504  0.0380  0.0001  0.0110
 1084DOPC   PO412708  11.866  31.133  12.330 -0.1137  0.1466 -0.1478
 1084DOPC   GL112709  11.515  31.286  12.597  0.0462 -0.1804 -0.2532
 1084DOPC   GL212710  11.259  31.192  12.479 -0.3052 -0.1616  0.0138
 1084DOPC   C1A12711  11.360  31.062  12.971 -0.0924 -0.0222  0.1269
 1084DOPC   D2A12712  11.029  30.841  13.133  0.2331  0.0899 -0.0736
 1084DOPC   C3A12713  10.512  31.011  13.172 -0.0795 -0.0868 -0.1602
 1084DOPC   C4A12714  10.121  31.148  13.262  0.0147  0.3300  0.0208
 1084DOPC   C1B12715  10.818  31.125  12.695  0.2098  0.2291 -0.1421
 1084DOPC   D2B12716  10.467  30.931  12.623  0.1327 -0.2249 -0.1611
 1084DOPC   C3B12717  10.023  30.872  12.820 -0.1474  0.1653  0.0224
 1084DOPC   C4B12718   9.626  30.839  13.042  0.0020 -0.1378 -0.0605
 1085POSM   NC312719   2.500  27.416  12.200 -0.1295  0.0389  0.2545
 1085POSM   PO412720   2.928  27.351  12.220  0.1556  0.1224 -0.2188
 1085POSM   AM112721   3.125  27.204  12.405  0.2958  0.1257  0.0428
 1085POSM   AM212722   3.139  27.073  12.677 -0.0341 -0.0686  0.1673
 1085POSM   T1A12723   3.577  27.248  12.606 -0.3108  0.0954  0.1355
 1085POSM   C2A12724   3.886  27.531  12.888 -0.1261  0.1385 -0.0480
 1085POSM   C3A12725   3.896  27.732  13.305 -0.1280  0.2648  0.2383
 1085POSM   C1B12726   3.268  27.072  13.026  0.1809 -0.0435 -0.1685
 1085POSM   D2B12727   3.387  26.807  13.368  0.1719  0.0407  0.0289
 1085POSM   C3B12728   3.349  27.030  13.768  0.1609  0.5509 -0.0850
 1085POSM   C4B12729   3.625  27.247  14.085  0.3090 -0.0644 -0.2269
 1086DOPS   CNO12730   2.261  22.552  12.754 -0.1467 -0.0315  0.1196
 1086DOPS   PO412731   2.370  22.184  12.704  0.1145  0.2866  0.0457
 1086DOPS   GL112732   2.673  22.179  13.011  0.5433  0.0451 -0.5939
 1086DOPS   GL212733   2.683  22.425  13.029  0.0756  0.1720  0.1658
 1086DOPS   C1A12734   2.649  21.987  13.427 -0.0070 -0.0474  0.0699
 1086DOPS   D2A12735   2.551  21.571  13.476 -0.0043 -0.1785 -0.1217
 1086DOPS   C3A12736   2.336  21.282  13.169 -0.3995 -0.2811 -0.1260
 1086DOPS   C4A12737   1.986  20.994  13.091  0.2989  0.0249  0.2409
 1086DOPS   C1B12738   2.775  22.486  13.488 -0.1945 -0.0006  0.0040
 1086DOPS   D2B12739   2.822  22.542  13.987 -0.0212  0.0113  0.0680
 1086DOPS   C3B12740   2.936  22.425  14.395  0.1027 -0.0224  0.2761
 1086DOPS   C4B12741   2.694  22.236  14.676 -0.0323 -0.2571 -0.1543
 1087DOPE   NH312742   2.148  29.416  12.805  0.1835  0.0663 -0.1479
 1087DOPE   PO412743   2.149  29.444  13.112 -0.2609 -0.0694 -0.0208
 1087DOPE   GL112744   1.844  29.405  13.215  0.0450 -0.1684  0.2273
 1087DOPE   GL212745   1.785  29.523  13.478  0.1104 -0.2678 -0.0583
 1087DOPE   C1A12746   1.486  29.123  13.375 -0.1781  0.2631  0.0402
 1087DOPE   D2A12747   1.166  29.137  13.029 -0.4693  0.0632  0.2076
 1087DOPE   C3A12748   1.060  28.646  13.012  0.2573 -0.4397 -0.0196
 1087DOPE   C4A12749   0.979  28.195  13.181 -0.2629  0.3319 -0.1215
 1087DOPE   C1B12750   1.725  29.752  13.880 -0.0631 -0.1711  0.4446
 1087DOPE   D2B12751   1.705  30.200  13.992  0.1319 -0.1252 -0.1782
 1087DOPE   C3B12752   1.673  30.258  14.424  0.0534  0.0450  0.1202
 1087DOPE   C4B12753   1.673  29.985  14.780  0.3500  0.0494  0.1241
 1088POSM   NC312754   0.352  26.100  12.506 -0.1906 -0.1372 -0.3181
 1088POSM   PO412755   0.333  25.813  12.766 -0.3659  0.1241 -0.2790
 1088POSM   AM112756   0.592  25.636  12.836  0.1294  0.1265 -0.1424
 1088POSM   AM212757   0.723  25.425  12.704 -0.0782  0.0160  0.0847
 1088POSM   T1A12758   0.942  25.507  13.205 -0.0893 -0.0348 -0.3780
 1088POSM   C2A12759   1.445  25.405  13.160  0.0196  0.0926  0.2938
 1088POSM   C3A12760   1.829  25.203  12.952  0.0865  0.1050 -0.0853
 1088POSM   C1B12761   0.779  25.143  12.825 -0.0073  0.3182  0.1848
 1088POSM   D2B12762   0.972  24.797  13.076  0.3213 -0.0197 -0.3742
 1088POSM   C3B12763   1.204  24.976  13.404  0.0458 -0.0505 -0.2970
 1088POSM   C4B12764   1.670  25.096  13.434  0.1788  0.1769  0.0179
 1089DOPC   NC312765   6.365  27.432  13.003  0.2238  0.1301 -0.0635
 1089DOPC   PO412766   6.287  27.699  12.754  0.0144  0.2397 -0.1735
 1089DOPC   GL112767   6.052  27.935  13.118  0.1131  0.0410  0.0241
 1089DOPC   GL212768   6.059  28.135  12.955  0.2013 -0.3958 -0.0778
 1089DOPC   C1A12769   5.727  27.858  13.428  0.4704 -0.0652  0.0362
 1089DOPC   D2A12770   5.540  28.172  13.722 -0.0052  0.1404  0.0589
 1089DOPC   C3A12771   5.652  28.358  14.148  0.0153 -0.0511 -0.2719
 1089DOPC   C4A12772   5.441  28.232  14.490 -0.1202  0.0549  0.0428
 1089DOPC   C1B12773   5.755  28.480  13.035  0.0528  0.0086  0.0222
 1089DOPC   D2B12774   5.447  28.760  12.861  0.0352  0.2609  0.0692
 1089DOPC   C3B12775   5.189  28.986  13.183 -0.0701 -0.3981 -0.1607
 1089DOPC   C4B12776   4.976  28.973  13.585 -0.0581  0.0144 -0.0931
 1090DOPS   CNO12777   3.033  23.514  12.529 -0.1354  0.4096  0.3174
 1090DOPS   PO412778   3.023  23.329  12.866 -0.3330 -0.1206 -0.1589
 1090DOPS   GL112779   2.800  23.477  13.206  0.2212 -0.2513  0.0013
 1090DOPS   GL212780   3.051  23.648  13.282  0.0910  0.1191  0.1277
 1090DOPS   C1A12781   2.751  23.319  13.638 -0.2371 -0.1073 -0.3170
 1090DOPS   D2A12782   2.837  23.104  14.032  0.1662 -0.1197 -0.0861
 1090DOPS   C3A12783   2.743  22.915  14.437 -0.2051  0.2917  0.0211
 1090DOPS   C4A12784   2.431  22.763  14.725 -0.2445  0.0280 -0.0425
 1090DOPS   C1B12785   3.429  23.864  13.399 -0.0217 -0.1219 -0.0452
 1090DOPS   D2B12786   3.755  23.832  13.749  0.0946  0.1726  0.1870
 1090DOPS   C3B12787   3.636  23.782  14.181 -0.0500  0.0992 -0.4068
 1090DOPS   C4B12788   3.217  23.725  14.371 -0.0348 -0.0321 -0.1977
 1091DOPC   NC312789   2.485  27.963  12.524 -0.0585 -0.0948 -0.4543
 1091DOPC   PO412790   2.437  27.612  12.641 -0.0565 -0.1610  0.2377
 1091DOPC   GL112791   2.192  27.346  12.874 -0.2411 -0.2050  0.0274
 1091DOPC   GL212792   2.124  27.084  12.932 -0.1882  0.1388 -0.0527
 1091DOPC   C1A12793   2.076  27.310  13.349 -0.4394  0.0201  0.1360
 1091DOPC   D2A12794   1.628  27.256  13.656 -0.3032 -0.0531  0.1396
 1091DOPC   C3A12795   1.304  27.645  13.698  0.1599 -0.0641  0.0028
 1091DOPC   C4A12796   1.122  28.051  13.614 -0.0273 -0.0897 -0.0015
 1091DOPC   C1B12797   2.381  26.848  13.190  0.4228 -0.0035 -0.3915
 1091DOPC   D2B12798   2.469  26.811  13.703 -0.1296  0.1931 -0.1243
 1091DOPC   C3B12799   2.761  27.063  13.916 -0.1657 -0.0870  0.1742
 1091DOPC   C4B12800   2.978  27.304  14.191 -0.2895 -0.1647 -0.0957
 1092DOPC   NC312801   5.633  26.904  13.306 -0.3434  0.2176  0.1928
 1092DOPC   PO412802   5.481  26.761  12.975 -0.1075 -0.1570 -0.1325
 1092DOPC   GL112803   5.353  26.513  13.270  0.1879  0.2593  0.1312
 1092DOPC   GL212804   5.108  26.455  13.238 -0.0351  0.2963  0.0412
 1092DOPC   C1A12805   5.200  26.595  13.730 -0.2373 -0.2211  0.0950
 1092DOPC   D2A12806   4.810  26.652  13.948 -0.1255 -0.0716 -0.0275
 1092DOPC   C3A12807   4.876  26.502  14.364  0.1422 -0.1351  0.1275
 1092DOPC   C4A12808   5.095  26.540  14.796 -0.2002 -0.0230  0.3128
 1092DOPC   C1B12809   4.631  26.451  13.455  0.0420 -0.5351 -0.0100
 1092DOPC   D2B12810   4.274  26.701  13.278 -0.2075  0.1774  0.0265
 1092DOPC   C3B12811   3.860  26.714  13.513  0.0555  0.1732 -0.1244
 1092DOPC   C4B12812   3.800  26.677  13.926  0.1472  0.0274  0.0489
 1093DOPE   NH312813   6.625  26.516  12.594 -0.1120 -0.0134  0.3068
 1093DOPE   PO412814   6.856  26.289  12.650 -0.0212  0.3466 -0.1244
 1093DOPE   GL112815   6.862  26.039  13.061 -0.0319  0.0193 -0.1283
 1093DOPE   GL212816   7.091  26.142  13.140  0.1258 -0.0759  0.3246
 1093DOPE   C1A12817   6.777  26.174  13.524  0.1627  0.0980  0.1597
 1093DOPE   D2A12818   6.752  26.382  13.906 -0.0068  0.1738 -0.3167
 1093DOPE   C3A12819   6.888  26.508  14.289 -0.0191 -0.0554  0.1349
 1093DOPE   C4A12820   7.229  26.591  14.521  0.1874  0.0097  0.0236
 1093DOPE   C1B12821   7.006  25.718  13.400  0.0528 -0.2992 -0.1058
 1093DOPE   D2B12822   6.621  25.448  13.325 -0.0577 -0.0504 -0.1078
 1093DOPE   C3B12823   6.613  25.298  13.753 -0.2040 -0.2027 -0.0038
 1093DOPE   C4B12824   6.678  25.388  14.215  0.1900  0.1437 -0.2812
 1094DOPC   NC312825   1.767  26.245  12.452 -0.0484  0.5092  0.1881
 1094DOPC   PO412826   1.504  26.527  12.330 -0.0003  0.0264 -0.1039
 1094DOPC   GL112827   1.320  26.107  12.337  0.2621 -0.0293  0.1850
 1094DOPC   GL212828   1.312  26.053  12.623  0.1206 -0.2979  0.0724
 1094DOPC   C1A12829   1.508  25.761  12.214  0.1139  0.1709 -0.0254
 1094DOPC   D2A12830   1.840  25.425  12.094 -0.0805 -0.1187  0.1463
 1094DOPC   C3A12831   2.222  25.223  12.415  0.0792  0.0501 -0.1754
 1094DOPC   C4A12832   2.633  25.098  12.551 -0.0717  0.1230  0.0737
 1094DOPC   C1B12833   1.650  25.849  12.928  0.1736  0.0663  0.1237
 1094DOPC   D2B12834   1.830  25.712  13.323  0.0617 -0.0786  0.1787
 1094DOPC   C3B12835   1.788  25.985  13.673  0.1703  0.1665 -0.0276
 1094DOPC   C4B12836   1.718  25.940  14.144 -0.2399 -0.1270 -0.3024
 1095DOPC   NC312837   6.786  34.491  12.452 -0.0655  0.0219  0.2010
 1095DOPC   PO412838   7.074  34.742  12.498 -0.2923 -0.2102 -0.0530
 1095DOPC   GL112839   7.253  34.660  12.824 -0.1888 -0.0422 -0.1264
 1095DOPC   GL212840   7.495  34.778  12.863 -0.1236 -0.0577 -0.1675
 1095DOPC   C1A12841   7.004  34.431  13.107 -0.3054  0.3073  0.1541
 1095DOPC   D2A12842   6.573  34.295  12.943 -0.1336  0.0758 -0.4348
 1095DOPC   C3A12843   6.338  33.861  13.038 -0.4111 -0.1366 -0.0657
 1095DOPC   C4A12844   6.178  33.483  13.316 -0.1011 -0.2902 -0.0118
 1095DOPC   C1B12845   7.806  34.826  13.152  0.3946  0.0194 -0.0661
 1095DOPC   D2B12846   8.165  34.619  13.360  0.1422 -0.2275  0.3733
 1095DOPC   C3B12847   8.381  34.214  13.387  0.0184 -0.1092 -0.0825
 1095DOPC   C4B12848   8.723  33.959  13.367  0.0382 -0.0133  0.1834
 1096POSM   NC312849   5.109  32.683  12.735  0.0482  0.1513 -0.0340
 1096POSM   PO412850   4.928  32.818  12.390 -0.0483 -0.0679 -0.2262
 1096POSM   AM112851   4.983  33.096  12.597 -0.2770  0.0796 -0.1557
 1096POSM   AM212852   5.123  33.311  12.569  0.0775  0.0237  0.2566
 1096POSM   T1A12853   4.980  33.378  13.035 -0.0696 -0.1294 -0.0714
 1096POSM   C2A12854   5.088  33.521  13.440  0.2347  0.1251 -0.0135
 1096POSM   C3A12855   5.293  33.901  13.610 -0.1863 -0.0498  0.0561
 1096POSM   C1B12856   5.319  33.542  12.709 -0.2414 -0.2446  0.1149
 1096POSM   D2B12857   5.367  33.767  13.067  0.2057 -0.0093 -0.3426
 1096POSM   C3B12858   5.108  34.148  13.183  0.0046 -0.0028 -0.1260
 1096POSM   C4B12859   4.676  34.216  13.020  0.0487  0.1572 -0.0274
 1097DOPE   NH312860   5.567  27.122  12.609  0.1277  0.0308 -0.6648
 1097DOPE   PO412861   5.853  27.198  12.450  0.2224  0.0842  0.1878
 1097DOPE   GL112862   5.702  27.570  12.570 -0.0048  0.1292  0.3430
 1097DOPE   GL212863   5.461  27.691  12.416  0.1227 -0.2088  0.1354
 1097DOPE   C1A12864   5.624  27.942  12.872 -0.1780 -0.2675  0.0750
 1097DOPE   D2A12865   5.338  28.190  13.218 -0.0991 -0.0517 -0.1570
 1097DOPE   C3A12866   5.490  28.546  13.441 -0.0662 -0.1107  0.1261
 1097DOPE   C4A12867   5.763  28.905  13.550  0.1565  0.3017  0.1321
 1097DOPE   C1B12868   5.221  27.471  12.777  0.0827 -0.2529 -0.0588
 1097DOPE   D2B12869   5.191  27.148  13.108 -0.1231  0.0279 -0.3405
 1097DOPE   C3B12870   5.232  27.174  13.569  0.2634 -0.3622  0.1680
 1097DOPE   C4B12871   5.166  26.995  14.010 -0.0865  0.2016 -0.1128
 1098DOPS   CNO12872   5.621  26.643  12.448  0.0216 -0.1119  0.2077
 1098DOPS   PO412873   5.254  26.588  12.429 -0.2877 -0.2658  0.2270
 1098DOPS   GL112874   5.121  26.872  12.678  0.1836  0.1609  0.1529
 1098DOPS   GL212875   4.940  26.779  12.895  0.1034  0.0332 -0.1033
 1098DOPS   C1A12876   4.822  27.203  12.690 -0.0269  0.1042 -0.1164
 1098DOPS   D2A12877   4.553  27.600  12.709 -0.0072  0.2365  0.1231
 1098DOPS   C3A12878   4.286  27.790  12.999 -0.1738  0.0590 -0.0747
 1098DOPS   C4A12879   4.118  28.172  13.195 -0.1995 -0.0732  0.2669
 1098DOPS   C1B12880   4.665  27.001  13.231  0.1742  0.2362  0.2387
 1098DOPS   D2B12881   4.691  27.259  13.611  0.1462  0.1274  0.1405
 1098DOPS   C3B12882   4.414  27.203  14.003  0.0867  0.1155 -0.0277
 1098DOPS   C4B12883   4.085  26.953  14.253  0.1322 -0.1545 -0.1382
 1099DOPC   NC312884   4.241   0.398  12.410  0.0296 -0.0077 -0.1348
 1099DOPC   PO412885   4.130  -0.009  12.425  0.2028 -0.3847 -0.0592
 1099DOPC   GL112886   4.249  -0.027  12.814 -0.4679  0.0149 -0.1757
 1099DOPC   GL212887   4.243  -0.335  12.933  0.3343 -0.2524 -0.0448
 1099DOPC   C1A12888   4.544   0.002  13.206  0.0553  0.0505 -0.0139
 1099DOPC   D2A12889   4.557   0.354  13.478  0.1113 -0.5109  0.0043
 1099DOPC   C3A12890   4.751   0.253  13.823  0.0725 -0.1999 -0.0351
 1099DOPC   C4A12891   5.084   0.260  14.123 -0.1629 -0.3623  0.1514
 1099DOPC   C1B12892   4.090  -0.468  13.373 -0.2847  0.1154  0.1455
 1099DOPC   D2B12893   3.760  -0.579  13.743  0.3112  0.2562 -0.0906
 1099DOPC   C3B12894   3.423  -0.353  13.921 -0.2311  0.1378 -0.0770
 1099DOPC   C4B12895   3.332   0.078  14.059 -0.1039  0.0534  0.0581
 1100DOPE   NH312896   1.543  26.806  12.804 -0.0393  0.1344  0.2399
 1100DOPE   PO412897   1.283  26.641  12.797  0.0822 -0.0821  0.1887
 1100DOPE   GL112898   1.083  26.437  12.997 -0.3406 -0.1321  0.0799
 1100DOPE   GL212899   0.823  26.615  12.919 -0.0614  0.3260 -0.3755
 1100DOPE   C1A12900   0.981  26.304  13.415  0.1274  0.1292  0.0926
 1100DOPE   D2A12901   0.613  26.513  13.513 -0.3035  0.4146 -0.1026
 1100DOPE   C3A12902   0.168  26.726  13.614  0.1472 -0.0319  0.0421
 1100DOPE   C4A12903  -0.185  27.000  13.913 -0.2775 -0.2482  0.0432
 1100DOPE   C1B12904   0.942  26.819  13.332 -0.0958  0.1619 -0.0051
 1100DOPE   D2B12905   0.991  26.669  13.813 -0.0764  0.0086  0.1135
 1100DOPE   C3B12906   0.689  26.770  14.116  0.1071  0.0790  0.1297
 1100DOPE   C4B12907   0.239  26.847  14.265  0.2271 -0.1898  0.0180
 1101DOPE   NH312908   6.618  28.671  12.649 -0.3497 -0.0968  0.2240
 1101DOPE   PO412909   6.426  28.650  12.404 -0.0153  0.1307 -0.3481
 1101DOPE   GL112910   6.080  28.451  12.592 -0.2385  0.2505 -0.0625
 1101DOPE   GL212911   5.968  28.718  12.659  0.1343  0.1529 -0.4165
 1101DOPE   C1A12912   5.675  28.329  12.567 -0.0693 -0.1354  0.2055
 1101DOPE   D2A12913   5.256  28.251  12.695 -0.1513  0.0523  0.1054
 1101DOPE   C3A12914   5.069  28.500  13.027  0.0605  0.1018 -0.2821
 1101DOPE   C4A12915   4.931  28.422  13.527 -0.1773  0.3396  0.1483
 1101DOPE   C1B12916   5.857  28.963  13.005  0.3854 -0.3788  0.2973
 1101DOPE   D2B12917   5.814  29.435  13.052 -0.0218 -0.0009 -0.0613
 1101DOPE   C3B12918   5.539  29.554  13.378  0.0842 -0.0911 -0.0834
 1101DOPE   C4B12919   5.423  29.884  13.726  0.2055  0.0706  0.1322
 1102POSM   NC312920   9.637  30.121  12.081 -0.1690 -0.1406 -0.0426
 1102POSM   PO412921   9.400  30.428  12.246 -0.2050  0.1696  0.2012
 1102POSM   AM112922   9.521  30.511  12.592  0.0677 -0.1655 -0.0811
 1102POSM   AM212923   9.314  30.618  12.773 -0.0604 -0.0456 -0.1618
 1102POSM   T1A12924   9.844  30.427  12.980  0.0530 -0.1273 -0.1642
 1102POSM   C2A12925   9.960  30.413  13.455  0.3066 -0.0429  0.1496
 1102POSM   C3A12926  10.084  30.436  13.900 -0.0939  0.1105 -0.2686
 1102POSM   C1B12927   9.336  30.425  13.031 -0.0542  0.1133  0.2769
 1102POSM   D2B12928   9.483  30.410  13.486 -0.0477 -0.3651  0.0243
 1102POSM   C3B12929   9.488  30.654  13.813 -0.1264 -0.1196 -0.0553
 1102POSM   C4B12930   9.517  30.610  14.255 -0.2717  0.3399 -0.1694
 1103POSM   NC312931   8.373   0.008  11.813 -0.0442 -0.1359  0.3370
 1103POSM   PO412932   8.568  -0.375  11.889 -0.2381  0.1627 -0.1879
 1103POSM   AM112933   8.801  -0.570  12.056 -0.4143 -0.1991  0.2114
 1103POSM   AM212934   9.039  -0.433  12.178 -0.1752 -0.2109  0.1435
 1103POSM   T1A12935   8.990  -0.961  12.357  0.2928  0.3801 -0.1101
 1103POSM   C2A12936   9.115  -1.394  12.433 -0.1863  0.4346 -0.0792
 1103POSM   C3A12937   9.009  -1.835  12.514  0.2878 -0.0950  0.2416
 1103POSM   C1B12938   9.279  -0.337  12.357  0.1461 -0.1508  0.0319
 1103POSM   D2B12939   9.589  -0.528  12.588  0.0942  0.0177  0.2582
 1103POSM   C3B12940   9.759  -0.865  12.910  0.1340 -0.0088  0.1979
 1103POSM   C4B12941   9.851  -0.983  13.357 -0.0374 -0.2280  0.0198
 1104DOPC   NC312942   0.764  26.846  12.347 -0.3270 -0.3455 -0.1081
 1104DOPC   PO412943   1.097  27.000  12.494 -0.0883 -0.1648  0.1045
 1104DOPC   GL112944   1.045  27.132  12.832 -0.0486 -0.6031  0.1140
 1104DOPC   GL212945   1.094  27.449  12.822  0.0569  0.2131  0.1388
 1104DOPC   C1A12946   0.787  27.257  13.201  0.2019 -0.0464 -0.1313
 1104DOPC   D2A12947   0.402  27.440  13.310 -0.0086 -0.2967 -0.1105
 1104DOPC   C3A12948   0.265  27.772  13.547  0.1157 -0.1881  0.3561
 1104DOPC   C4A12949   0.513  28.033  13.875  0.3729  0.0661  0.1671
 1104DOPC   C1B12950   0.736  27.721  12.925 -0.0669 -0.1195 -0.0712
 1104DOPC   D2B12951   0.388  27.935  13.020 -0.1096  0.1435 -0.0575
 1104DOPC   C3B12952   0.430  28.305  13.280  0.1152  0.0811  0.0767
 1104DOPC   C4B12953   0.610  28.566  13.669  0.0101 -0.4252 -0.0938
 1105DOPC   NC312954   4.425  34.263  12.428 -0.0850 -0.2423 -0.1867
 1105DOPC   PO412955   4.081  34.057  12.505 -0.2380 -0.0896  0.2132
 1105DOPC   GL112956   4.178  33.857  12.766 -0.3021 -0.0245  0.1377
 1105DOPC   GL212957   4.250  33.885  13.051  0.1796  0.2462  0.1802
 1105DOPC   C1A12958   3.914  33.508  12.948  0.0322 -0.2948 -0.2318
 1105DOPC   D2A12959   3.531  33.340  13.064 -0.2105 -0.0816  0.0566
 1105DOPC   C3A12960   3.111  33.257  13.123  0.2474 -0.1327 -0.3312
 1105DOPC   C4A12961   2.865  33.131  13.506  0.1027 -0.3004 -0.1885
 1105DOPC   C1B12962   4.160  33.744  13.464 -0.1381  0.2089 -0.0503
 1105DOPC   D2B12963   4.182  33.780  13.942  0.2235 -0.1502  0.1289
 1105DOPC   C3B12964   3.780  33.830  14.141  0.1710 -0.0911 -0.0301
 1105DOPC   C4B12965   3.591  33.734  14.548  0.2005 -0.0796  0.0181
 1106DOPC   NC312966   6.595  31.074  12.285 -0.1586  0.1690  0.0224
 1106DOPC   PO412967   6.492  30.714  12.456 -0.1162 -0.1594 -0.0234
 1106DOPC   GL112968   6.351  30.695  12.889  0.1779 -0.3057  0.2080
 1106DOPC   GL212969   6.497  30.836  13.104 -0.3134  0.0943  0.1145
 1106DOPC   C1A12970   6.235  30.304  13.048  0.0724 -0.0797  0.0339
 1106DOPC   D2A12971   6.428  29.964  13.277  0.0066  0.0868  0.0726
 1106DOPC   C3A12972   6.774  29.886  13.530 -0.2021  0.2301  0.1214
 1106DOPC   C4A12973   7.214  29.813  13.565 -0.3449 -0.1682 -0.1599
 1106DOPC   C1B12974   6.544  30.474  13.387 -0.5534  0.1391  0.0152
 1106DOPC   D2B12975   6.592  30.288  13.781  0.0542  0.0487  0.1649
 1106DOPC   C3B12976   6.308  29.899  13.894 -0.0601 -0.0783  0.1794
 1106DOPC   C4B12977   5.860  29.708  13.872 -0.2635  0.1099 -0.0628
 1107POSM   NC312978   2.954  26.820  12.119 -0.1418 -0.0219 -0.0962
 1107POSM   PO412979   3.342  26.919  12.062  0.0787 -0.1240 -0.0001
 1107POSM   AM112980   3.364  26.805  12.354 -0.1111 -0.0875 -0.2576
 1107POSM   AM212981   3.261  26.555  12.457  0.5106 -0.4004  0.0262
 1107POSM   T1A12982   3.626  26.812  12.777  0.0036 -0.0155  0.1207
 1107POSM   C2A12983   3.971  26.978  13.005  0.0114  0.2597 -0.0120
 1107POSM   C3A12984   4.254  27.309  13.086 -0.1262 -0.1924 -0.0952
 1107POSM   C1B12985   3.421  26.361  12.645  0.0327  0.0777 -0.0028
 1107POSM   D2B12986   3.644  26.032  12.948 -0.1157  0.1923 -0.1729
 1107POSM   C3B12987   3.659  25.567  12.979 -0.0160  0.0791  0.0750
 1107POSM   C4B12988   3.428  25.226  13.199  0.0292  0.2095 -0.1258
 1108DOPC   NC312989   1.261  34.094  12.472  0.1076  0.4107 -0.1427
 1108DOPC   PO412990   1.432  34.044  12.851 -0.3898  0.1056  0.0351
 1108DOPC   GL112991   1.489  33.659  13.101 -0.1489  0.2569  0.1291
 1108DOPC   GL212992   1.796  33.672  13.118  0.1938 -0.3267  0.0469
 1108DOPC   C1A12993   1.574  33.220  13.093 -0.2705  0.1040 -0.1537
 1108DOPC   D2A12994   1.777  33.013  13.444 -0.1586 -0.1457 -0.2788
 1108DOPC   C3A12995   2.034  32.809  13.713  0.2081  0.1473  0.4850
 1108DOPC   C4A12996   1.997  32.691  14.169  0.1541 -0.1275  0.2499
 1108DOPC   C1B12997   1.734  33.538  13.565  0.0959 -0.4360 -0.1480
 1108DOPC   D2B12998   1.609  33.738  13.974  0.0141  0.0676  0.1689
 1108DOPC   C3B12999   1.938  33.623  14.296 -0.1697  0.2001 -0.2925
 1108DOPC   C4B13000   2.299  33.789  14.549 -0.1986  0.2671 -0.1613
 1109POSM   NC313001  11.134  27.764  11.985 -0.1031 -0.2699 -0.4193
 1109POSM   PO413002  11.269  27.609  12.299 -0.1022  0.3428 -0.3334
 1109POSM   AM113003  11.166  27.842  12.509 -0.2263  0.2342  0.1744
 1109POSM   AM213004  11.087  28.090  12.531  0.1458 -0.3763  0.1089
 1109POSM   T1A13005  11.007  27.861  12.980  0.1585  0.0476  0.1479
 1109POSM   C2A13006  10.813  27.761  13.423 -0.0698 -0.1982  0.1144
 1109POSM   C3A13007  11.062  27.825  13.817 -0.0159  0.1259 -0.1369
 1109POSM   C1B13008  10.833  28.163  12.268  0.0969  0.2882 -0.0470
 1109POSM   D2B13009  10.427  28.102  12.101  0.1606  0.1373 -0.2192
 1109POSM   C3B13010  10.046  28.402  12.186  0.1915  0.2049 -0.1289
 1109POSM   C4B13011   9.813  28.667  12.564 -0.2917  0.0985  0.0227
 1110DOPS   CNO13012   8.752  25.460  12.218 -0.1535 -0.1327 -0.1870
 1110DOPS   PO413013   9.036  25.696  12.421  0.2415  0.0892 -0.3664
 1110DOPS   GL113014   9.241  25.753  12.758  0.0873 -0.1852  0.1111
 1110DOPS   GL213015   9.025  26.025  12.785  0.0476  0.0393 -0.0449
 1110DOPS   C1A13016   9.386  25.764  13.229 -0.0151 -0.1447  0.0437
 1110DOPS   D2A13017   9.582  25.573  13.637  0.2097 -0.1652 -0.2567
 1110DOPS   C3A13018   9.827  25.200  13.790 -0.2334  0.0452  0.0657
 1110DOPS   C4A13019   9.755  24.761  13.926  0.1097  0.1158 -0.1783
 1110DOPS   C1B13020   8.995  26.433  12.960  0.1364 -0.2165  0.1228
 1110DOPS   D2B13021   8.840  26.503  13.362 -0.1063  0.1745 -0.1785
 1110DOPS   C3B13022   8.701  26.159  13.713 -0.1577  0.1612  0.0319
 1110DOPS   C4B13023   8.534  25.744  13.755  0.1346 -0.2867  0.2369
 1111DOPC   NC313024   4.280  29.799  12.751  0.3751  0.1304  0.0701
 1111DOPC   PO413025   4.130  29.432  12.777 -0.3461 -0.1391 -0.2028
 1111DOPC   GL113026   4.069  29.061  12.951  0.2458  0.0686 -0.1507
 1111DOPC   GL213027   4.059  28.895  12.711  0.1865 -0.0388  0.1888
 1111DOPC   C1A13028   4.214  28.756  13.234 -0.2890  0.1575  0.4930
 1111DOPC   D2A13029   4.530  28.423  13.241 -0.1342 -0.1202 -0.2378
 1111DOPC   C3A13030   4.529  28.048  13.475 -0.0928  0.0759 -0.2168
 1111DOPC   C4A13031   4.320  27.611  13.511  0.0318 -0.2056  0.1183
 1111DOPC   C1B13032   4.552  28.887  12.743 -0.0499  0.4285  0.1195
 1111DOPC   D2B13033   4.958  28.721  12.648  0.1490 -0.3184  0.3167
 1111DOPC   C3B13034   5.149  29.132  12.622 -0.2181 -0.0851 -0.0381
 1111DOPC   C4B13035   5.257  29.543  12.917  0.0175  0.1044  0.3800
 1112DOPS   CNO13036   0.745  33.929  12.564  0.0539  0.1547  0.1238
 1112DOPS   PO413037   0.511  33.877  12.840 -0.1302 -0.1775 -0.2502
 1112DOPS   GL113038   0.547  33.872  13.232 -0.1765  0.1561  0.1433
 1112DOPS   GL213039   0.346  34.086  13.286  0.2180  0.1489 -0.0676
 1112DOPS   C1A13040   0.497  33.426  13.451  0.0933 -0.1091  0.2152
 1112DOPS   D2A13041   0.287  33.032  13.606  0.0455  0.0165 -0.3096
 1112DOPS   C3A13042  -0.139  33.079  13.824  0.2970 -0.1005  0.1018
 1112DOPS   C4A13043  -0.543  33.122  14.061 -0.0122  0.0416  0.1302
 1112DOPS   C1B13044   0.488  33.841  13.708  0.0683 -0.0893  0.1181
 1112DOPS   D2B13045   0.751  33.501  13.855  0.2041  0.1428  0.2735
 1112DOPS   C3B13046   0.849  33.108  14.155  0.0807  0.2454 -0.0445
 1112DOPS   C4B13047   0.947  32.866  14.571 -0.2070  0.2399 -0.3731
 1113DOPE   NH313048   3.114  31.895  12.306  0.0124 -0.4826 -0.2096
 1113DOPE   PO413049   3.385  32.029  12.273 -0.0807  0.0076  0.0824
 1113DOPE   GL113050   3.750  31.987  12.322  0.2993 -0.1038  0.0318
 1113DOPE   GL213051   3.772  31.960  12.620  0.2273  0.2668  0.0100
 1113DOPE   C1A13052   3.844  32.447  12.385 -0.0024  0.1395  0.2506
 1113DOPE   D2A13053   4.060  32.648  12.771  0.3045  0.0979  0.0908
 1113DOPE   C3A13054   4.055  33.049  12.962 -0.0126 -0.1593  0.2334
 1113DOPE   C4A13055   3.918  33.209  13.332  0.4828  0.3343 -0.0030
 1113DOPE   C1B13056   4.175  32.034  12.848 -0.2645  0.1121  0.0282
 1113DOPE   D2B13057   4.631  31.863  12.733  0.0798  0.1098  0.0147
 1113DOPE   C3B13058   4.934  31.937  13.084  0.1953  0.1467  0.1658
 1113DOPE   C4B13059   5.382  31.902  13.200 -0.1721 -0.2142  0.1385
 1114DOPE   NH313060  10.876  26.276  12.242 -0.0612 -0.1108  0.0834
 1114DOPE   PO413061  10.832  26.366  12.581  0.1796 -0.2960  0.0991
 1114DOPE   GL113062  11.072  26.290  12.839 -0.1530 -0.1020  0.2085
 1114DOPE   GL213063  10.929  26.369  13.054 -0.1457  0.2356 -0.0786
 1114DOPE   C1A13064  11.259  25.983  13.100  0.0809 -0.0075 -0.2322
 1114DOPE   D2A13065  11.267  26.009  13.543 -0.0412  0.0271 -0.0235
 1114DOPE   C3A13066  10.953  25.730  13.738 -0.3738  0.0984  0.1031
 1114DOPE   C4A13067  10.856  25.263  13.633 -0.1953 -0.1398  0.0699
 1114DOPE   C1B13068  10.819  26.022  13.322  0.2239 -0.3284  0.2895
 1114DOPE   D2B13069  10.779  25.598  13.231  0.3449  0.2761 -0.1785
 1114DOPE   C3B13070  11.232  25.560  13.364 -0.2563 -0.3371  0.2013
 1114DOPE   C4B13071  11.534  25.443  13.667  0.2050  0.1076  0.0525
 1115DOPE   NH313072   7.055  26.684  12.421 -0.2552  0.0066  0.0196
 1115DOPE   PO413073   7.006  26.989  12.491 -0.0526 -0.0165  0.3111
 1115DOPE   GL113074   6.987  27.058  12.873 -0.1182  0.0292 -0.0638
 1115DOPE   GL213075   7.222  27.253  12.883  0.4630 -0.0292  0.3090
 1115DOPE   C1A13076   6.840  27.178  13.343 -0.2807  0.2717 -0.0048
 1115DOPE   D2A13077   6.689  27.494  13.568 -0.0831 -0.0459  0.1477
 1115DOPE   C3A13078   6.749  27.854  13.781  0.0795 -0.2653 -0.3450
 1115DOPE   C4A13079   6.476  28.220  13.900 -0.2118 -0.1120 -0.1725
 1115DOPE   C1B13080   7.438  27.115  13.237  0.1922 -0.1103  0.0105
 1115DOPE   D2B13081   7.435  26.926  13.638  0.0408  0.0684 -0.1276
 1115DOPE   C3B13082   7.155  26.902  14.038  0.0576 -0.0345  0.0560
 1115DOPE   C4B13083   6.934  27.093  14.393 -0.2772  0.1303 -0.2320
 1116DOPC   NC313084   5.907  25.245  12.277 -0.5050  0.0645  0.0555
 1116DOPC   PO413085   6.124  25.509  12.460 -0.3454  0.1255 -0.0674
 1116DOPC   GL113086   6.061  25.430  12.800  0.0568  0.1070  0.0287
 1116DOPC   GL213087   6.324  25.233  12.845  0.1451 -0.0455 -0.2018
 1116DOPC   C1A13088   6.079  25.436  13.256  0.1789  0.5084 -0.1062
 1116DOPC   D2A13089   6.120  25.204  13.682  0.2722 -0.3420  0.0258
 1116DOPC   C3A13090   6.022  24.801  13.759 -0.3503  0.2697 -0.2071
 1116DOPC   C4A13091   5.947  24.434  14.065 -0.1163  0.1127 -0.0195
 1116DOPC   C1B13092   5.978  25.023  13.023  0.5892  0.1370  0.1497
 1116DOPC   D2B13093   5.721  24.921  13.393 -0.1615 -0.2455  0.2689
 1116DOPC   C3B13094   5.329  24.914  13.482 -0.2174 -0.0304  0.1766
 1116DOPC   C4B13095   4.991  24.662  13.765 -0.1947 -0.2625 -0.2374
 1117DOPS   CNO13096  11.422  29.494  12.561  0.0765  0.1664 -0.1230
 1117DOPS   PO413097  11.595  29.768  12.356 -0.0628 -0.0612  0.0399
 1117DOPS   GL113098  11.642  30.116  12.555 -0.1568 -0.1911 -0.0390
 1117DOPS   GL213099  11.893  30.204  12.427 -0.1428 -0.3508  0.3108
 1117DOPS   C1A13100  11.348  30.282  12.848 -0.1312 -0.0531 -0.2369
 1117DOPS   D2A13101  11.119  30.341  13.240  0.0688  0.0157 -0.1597
 1117DOPS   C3A13102  10.732  30.557  13.405  0.0734 -0.3403  0.3448
 1117DOPS   C4A13103  10.340  30.751  13.576 -0.2637 -0.2718  0.3314
 1117DOPS   C1B13104  11.826  30.347  12.870 -0.5982  0.0218 -0.0442
 1117DOPS   D2B13105  11.546  30.578  13.202  0.3431  0.3538 -0.0775
 1117DOPS   C3B13106  11.435  30.425  13.665 -0.0131 -0.1634 -0.0765
 1117DOPS   C4B13107  11.220  30.363  14.071 -0.1655  0.2130 -0.1602
 1118DOPS   CNO13108   7.535  33.810  12.000  0.2018 -0.0480  0.0753
 1118DOPS   PO413109   7.658  34.104  12.225  0.0793 -0.2240  0.0560
 1118DOPS   GL113110   7.665  33.966  12.571 -0.1310 -0.3933 -0.0643
 1118DOPS   GL213111   7.423  33.790  12.559  0.2877 -0.0682  0.3130
 1118DOPS   C1A13112   7.763  33.553  12.793  0.0137  0.0597  0.1969
 1118DOPS   D2A13113   7.881  33.291  13.168  0.0223  0.2775 -0.1032
 1118DOPS   C3A13114   8.284  33.059  13.178  0.1193 -0.0819 -0.2045
 1118DOPS   C4A13115   8.467  32.735  13.352  0.2988  0.1839 -0.1939
 1118DOPS   C1B13116   7.372  33.370  12.465  0.2821 -0.0062  0.1644
 1118DOPS   D2B13117   7.580  33.039  12.257  0.3285  0.0292 -0.0220
 1118DOPS   C3B13118   7.280  32.779  12.519 -0.1151  0.0655  0.0287
 1118DOPS   C4B13119   7.087  32.813  12.937 -0.1406  0.0753  0.2075
 1119DOPC   NC313120   6.930  31.617  12.864  0.2012 -0.2857  0.0088
 1119DOPC   PO413121   6.692  31.580  12.535  0.1346  0.0970 -0.2684
 1119DOPC   GL113122   6.852  31.957  12.527 -0.3051 -0.2216  0.1850
 1119DOPC   GL213123   6.784  32.136  12.784 -0.0770  0.0549  0.3254
 1119DOPC   C1A13124   7.310  32.076  12.462 -0.0880 -0.1057 -0.0999
 1119DOPC   D2A13125   7.568  32.398  12.615 -0.0220  0.0790 -0.3029
 1119DOPC   C3A13126   7.608  32.538  13.029  0.1822 -0.3248  0.1222
 1119DOPC   C4A13127   7.752  32.871  13.305 -0.1000 -0.2358  0.1187
 1119DOPC   C1B13128   6.722  32.379  13.163  0.3499  0.1455  0.0598
 1119DOPC   D2B13129   6.903  32.687  13.446 -0.0290 -0.0425  0.1837
 1119DOPC   C3B13130   7.372  32.497  13.504 -0.1197 -0.0021  0.1283
 1119DOPC   C4B13131   7.578  32.128  13.384 -0.1270 -0.0949 -0.0059
 1120DOPS   CNO13132   3.007  27.966  12.276 -0.0522 -0.0396 -0.3115
 1120DOPS   PO413133   2.923  27.711  12.526 -0.1331  0.4276 -0.0588
 1120DOPS   GL113134   2.814  27.661  12.896  0.1624  0.1965  0.1912
 1120DOPS   GL213135   3.011  27.487  12.935  0.0366  0.0887 -0.1498
 1120DOPS   C1A13136   2.582  27.301  13.173 -0.0938  0.2263  0.0006
 1120DOPS   D2A13137   2.534  27.371  13.615 -0.0521  0.1049  0.1895
 1120DOPS   C3A13138   2.114  27.480  13.805  0.2648 -0.0670 -0.3105
 1120DOPS   C4A13139   1.690  27.717  14.074 -0.0790 -0.0266  0.1215
 1120DOPS   C1B13140   3.398  27.520  13.176 -0.1720 -0.0815  0.2260
 1120DOPS   D2B13141   3.694  27.265  13.451  0.1577  0.0022 -0.0124
 1120DOPS   C3B13142   3.898  27.541  13.796 -0.1453 -0.1240  0.4170
 1120DOPS   C4B13143   4.044  27.506  14.222 -0.0205 -0.0741 -0.2356
 1121DOPS   CNO13144   3.341  30.338  12.674  0.3833 -0.0095  0.0377
 1121DOPS   PO413145   3.407  30.119  13.017  0.1746 -0.2590 -0.0666
 1121DOPS   GL113146   3.310  30.197  13.457 -0.5769 -0.1481  0.1493
 1121DOPS   GL213147   3.007  30.197  13.414 -0.2945  0.1625 -0.0082
 1121DOPS   C1A13148   3.408  29.823  13.674  0.4688  0.2412  0.2844
 1121DOPS   D2A13149   3.630  29.423  13.680  0.1901 -0.0984 -0.0947
 1121DOPS   C3A13150   4.076  29.451  13.813  0.0007  0.1431 -0.0332
 1121DOPS   C4A13151   4.485  29.369  13.699 -0.2827 -0.0255 -0.0359
 1121DOPS   C1B13152   3.016  30.184  13.849 -0.3038  0.1176  0.1375
 1121DOPS   D2B13153   3.113  29.810  14.139 -0.2464 -0.0659  0.2703
 1121DOPS   C3B13154   3.545  29.619  14.133 -0.0062 -0.0351 -0.1446
 1121DOPS   C4B13155   3.921  29.452  14.280  0.1088 -0.0441  0.1276
 1122DOPC   NC313156   1.792  31.544  12.675 -0.0201 -0.3899 -0.1304
 1122DOPC   PO413157   1.766  31.186  12.811 -0.0227 -0.3113  0.1085
 1122DOPC   GL113158   1.654  31.403  13.147  0.0300  0.1043 -0.1139
 1122DOPC   GL213159   1.435  31.571  13.205 -0.0500  0.1635  0.4279
 1122DOPC   C1A13160   1.836  31.772  13.404  0.2366 -0.0627 -0.0110
 1122DOPC   D2A13161   2.217  31.954  13.649  0.1077 -0.0436  0.1003
 1122DOPC   C3A13162   2.326  32.215  14.005  0.0760 -0.2287 -0.1562
 1122DOPC   C4A13163   2.461  32.539  14.301  0.2790  0.2103 -0.4921
 1122DOPC   C1B13164   1.371  31.998  13.082 -0.2518  0.1364 -0.5495
 1122DOPC   D2B13165   1.429  32.403  12.876  0.4386  0.4025  0.0835
 1122DOPC   C3B13166   1.707  32.700  13.042  0.0662 -0.0324 -0.2605
 1122DOPC   C4B13167   2.155  32.845  13.098 -0.2229 -0.1695 -0.3106
 1123DOPE   NH313168  10.258  23.343  12.292  0.0395  0.3805  0.0108
 1123DOPE   PO413169  10.522  23.372  12.483  0.0575  0.2109 -0.1987
 1123DOPE   GL113170  10.462  23.437  12.900 -0.1530 -0.2925 -0.0569
 1123DOPE   GL213171  10.181  23.339  12.915  0.0974 -0.1535  0.1483
 1123DOPE   C1A13172  10.473  23.031  13.215 -0.1586 -0.3743  0.0075
 1123DOPE   D2A13173  10.477  22.612  13.416 -0.1141 -0.2119  0.0816
 1123DOPE   C3A13174  10.138  22.509  13.747  0.0024 -0.0902  0.1005
 1123DOPE   C4A13175  10.111  22.478  14.244 -0.0644 -0.1400 -0.0213
 1123DOPE   C1B13176  10.253  23.517  13.325 -0.1084  0.3125  0.1616
 1123DOPE   D2B13177  10.128  23.513  13.759 -0.4359  0.0713 -0.1363
 1123DOPE   C3B13178  10.454  23.464  14.063  0.0288 -0.1405  0.2572
 1123DOPE   C4B13179  10.386  23.306  14.479  0.1166 -0.2333  0.2379
 1124DOPE   NH313180   0.737   0.139  13.023 -0.0999 -0.0616 -0.0638
 1124DOPE   PO413181   0.440   0.212  12.987 -0.3692  0.1829 -0.2402
 1124DOPE   GL113182   0.467   0.274  13.390 -0.2422  0.0621  0.2235
 1124DOPE   GL213183   0.295   0.160  13.472  0.1021  0.4863  0.0936
 1124DOPE   C1A13184   0.533   0.524  13.824  0.3559 -0.1929  0.4679
 1124DOPE   D2A13185   0.441   0.483  14.264  0.0694 -0.2415 -0.0925
 1124DOPE   C3A13186   0.363   0.195  14.595 -0.0319  0.1906  0.1441
 1124DOPE   C4A13187   0.216   0.205  15.083  0.0342 -0.3827  0.1209
 1124DOPE   C1B13188   0.278  -0.295  13.608  0.0670 -0.0916 -0.0577
 1124DOPE   D2B13189   0.182  -0.559  14.000  0.1010  0.0584  0.5691
 1124DOPE   C3B13190   0.506  -0.905  14.201 -0.0057 -0.1543  0.1421
 1124DOPE   C4B13191   0.949  -0.791  14.386  0.1228 -0.3092  0.0238
 1125POSM   NC313192   6.633  26.505  13.129  0.1435 -0.1849 -0.1386
 1125POSM   PO413193   6.284  26.335  13.009  0.1421  0.1763  0.2999
 1125POSM   AM113194   6.274  26.201  13.318  0.1281 -0.0416  0.0435
 1125POSM   AM213195   6.172  25.957  13.330  0.3452  0.0079 -0.0333
 1125POSM   T1A13196   6.291  26.204  13.824 -0.0908 -0.1808 -0.0015
 1125POSM   C2A13197   6.017  26.166  14.195  0.1781 -0.2567 -0.0268
 1125POSM   C3A13198   5.737  26.148  14.551  0.0688 -0.0958  0.1535
 1125POSM   C1B13199   6.349  25.795  13.554 -0.0416 -0.4704  0.2637
 1125POSM   D2B13200   6.629  25.785  13.905 -0.2972 -0.1006  0.3212
 1125POSM   C3B13201   6.557  25.993  14.297  0.1052  0.1400  0.1815
 1125POSM   C4B13202   6.459  26.331  14.591  0.0146 -0.0305 -0.0739
 1126DOPS   CNO13203   8.193  33.973  11.936  0.1111 -0.2291  0.1095
 1126DOPS   PO413204   8.369  33.713  12.145 -0.1806  0.1187  0.1845
 1126DOPS   GL113205   8.605  33.429  12.277 -0.2117  0.0112 -0.2029
 1126DOPS   GL213206   8.781  33.386  12.084 -0.4324 -0.2017  0.3028
 1126DOPS   C1A13207   8.570  33.089  12.582 -0.3314  0.0802  0.0557
 1126DOPS   D2A13208   8.563  32.734  12.837  0.1341  0.3913 -0.0360
 1126DOPS   C3A13209   9.024  32.533  12.802 -0.2174  0.3204  0.3637
 1126DOPS   C4A13210   9.380  32.399  12.623  0.0696  0.2323 -0.2051
 1126DOPS   C1B13211   8.991  33.015  11.999  0.0590  0.1983  0.0114
 1126DOPS   D2B13212   9.317  32.710  12.189  0.0635 -0.0369  0.3608
 1126DOPS   C3B13213   9.543  32.947  12.525 -0.2567 -0.0017 -0.2888
 1126DOPS   C4B13214   9.934  33.092  12.702  0.2670 -0.1239  0.1588
 1127DOPC   NC313215   7.840  24.695  12.139  0.0978  0.0930  0.2648
 1127DOPC   PO413216   7.711  25.020  12.255  0.1348  0.0059 -0.2000
 1127DOPC   GL113217   7.719  25.118  12.598 -0.0798 -0.1072 -0.4682
 1127DOPC   GL213218   7.453  25.248  12.679  0.0647 -0.0078  0.1571
 1127DOPC   C1A13219   7.986  25.248  12.985  0.2889  0.3251 -0.0015
 1127DOPC   D2A13220   7.754  25.542  13.349  0.1763  0.0360  0.1014
 1127DOPC   C3A13221   7.448  25.412  13.634  0.0228  0.0542 -0.0133
 1127DOPC   C4A13222   7.064  25.501  13.879 -0.0594  0.1470 -0.3343
 1127DOPC   C1B13223   7.484  25.157  13.145 -0.0489  0.0207 -0.1108
 1127DOPC   D2B13224   7.732  24.990  13.510 -0.1494 -0.0381  0.0194
 1127DOPC   C3B13225   7.722  24.525  13.551  0.1267 -0.1077 -0.1013
 1127DOPC   C4B13226   7.618  24.090  13.437 -0.0423  0.2746 -0.1968
 1128DOPE   NH313227   0.347  26.543  12.760 -0.2151 -0.0998 -0.2348
 1128DOPE   PO413228   0.272  26.315  12.963 -0.0381  0.2600 -0.0428
 1128DOPE   GL113229   0.275  26.269  13.332  0.2107 -0.3340 -0.5064
 1128DOPE   GL213230   0.053  26.242  13.517  0.0203 -0.0718  0.0363
 1128DOPE   C1A13231   0.394  25.888  13.613  0.0106 -0.0937  0.1009
 1128DOPE   D2A13232   0.522  25.473  13.760  0.0190 -0.3698  0.1153
 1128DOPE   C3A13233   0.613  25.151  14.078 -0.0148 -0.1605 -0.2456
 1128DOPE   C4A13234   0.478  24.722  14.088 -0.0090 -0.1011 -0.1187
 1128DOPE   C1B13235   0.335  26.284  13.876  0.0300  0.1229 -0.2066
 1128DOPE   D2B13236   0.805  26.194  13.885  0.2652 -0.1144 -0.0493
 1128DOPE   C3B13237   0.894  25.813  13.663 -0.0637 -0.0600  0.2427
 1128DOPE   C4B13238   1.024  25.419  13.785  0.1396  0.0997  0.4594
 1129DOPS   CNO13239   6.278  26.453  12.243 -0.1293  0.1129  0.3146
 1129DOPS   PO413240   6.229  26.212  12.508  0.0722 -0.2829  0.0529
 1129DOPS   GL113241   6.489  25.990  12.740 -0.1119  0.4532  0.0911
 1129DOPS   GL213242   6.505  25.700  12.921 -0.1173 -0.4078  0.4252
 1129DOPS   C1A13243   6.763  25.618  12.494  0.1943  0.2848  0.2482
 1129DOPS   D2A13244   6.939  25.196  12.539 -0.0864 -0.0949  0.2471
 1129DOPS   C3A13245   6.631  24.768  12.430 -0.2003  0.0746  0.0618
 1129DOPS   C4A13246   6.144  24.804  12.600 -0.1711  0.4510 -0.1010
 1129DOPS   C1B13247   6.949  25.498  12.920  0.0910 -0.3239 -0.0367
 1129DOPS   D2B13248   7.367  25.653  13.079 -0.2852 -0.3346  0.2269
 1129DOPS   C3B13249   7.458  25.905  13.512 -0.3635 -0.1725 -0.2074
 1129DOPS   C4B13250   7.711  26.026  13.795 -0.0927  0.2028  0.0048
 1130DOPS   CNO13251  10.696  31.998  12.300  0.0842  0.2789  0.0713
 1130DOPS   PO413252  10.881  31.698  12.511  0.0154 -0.1464  0.0104
 1130DOPS   GL113253  10.606  31.807  12.777 -0.0499  0.3342  0.0094
 1130DOPS   GL213254  10.383  31.760  12.597  0.1685  0.0358 -0.1133
 1130DOPS   C1A13255  10.340  32.139  13.011  0.1257  0.1692  0.1516
 1130DOPS   D2A13256  10.192  32.559  13.031 -0.1693  0.0784  0.0894
 1130DOPS   C3A13257  10.329  32.775  13.426  0.1384 -0.1214 -0.0296
 1130DOPS   C4A13258  10.482  32.934  13.889 -0.1185  0.1072  0.4114
 1130DOPS   C1B13259   9.968  31.954  12.714 -0.4226 -0.0986  0.3592
 1130DOPS   D2B13260   9.503  31.802  12.709 -0.2303  0.1178  0.2138
 1130DOPS   C3B13261   9.295  32.010  13.098 -0.1774 -0.1889 -0.0716
 1130DOPS   C4B13262   8.968  32.084  13.423 -0.1853  0.3569 -0.2817
 1131DOPE   NH313263   0.129  34.117  12.631  0.0546  0.1634  0.0237
 1131DOPE   PO413264  -0.007  34.022  12.910  0.0437  0.3195 -0.0689
 1131DOPE   GL113265   0.047  33.731  13.227  0.3589  0.0671  0.0573
 1131DOPE   GL213266  -0.194  33.582  13.283 -0.1201 -0.2448  0.2955
 1131DOPE   C1A13267   0.030  33.581  13.709  0.0557 -0.3082 -0.4247
 1131DOPE   D2A13268   0.278  33.370  14.030 -0.3105  0.3164  0.3397
 1131DOPE   C3A13269   0.445  32.929  14.041 -0.0308  0.3663 -0.1303
 1131DOPE   C4A13270   0.524  32.527  13.814 -0.0776 -0.3730 -0.0956
 1131DOPE   C1B13271  -0.132  33.119  13.290 -0.0285 -0.0536  0.0573
 1131DOPE   D2B13272  -0.047  32.706  13.489 -0.0444  0.3868  0.2227
 1131DOPE   C3B13273  -0.329  32.623  13.877  0.0809  0.1237  0.0590
 1131DOPE   C4B13274  -0.453  32.521  14.285 -0.1311  0.1014  0.0955
 1132DOPE   NH313275   3.610  29.649  13.236  0.2268 -0.1448 -0.1146
 1132DOPE   PO413276   3.702  29.382  13.074 -0.0426 -0.0646 -0.2969
 1132DOPE   GL113277   4.075  29.481  13.281  0.5305 -0.1097  0.0064
 1132DOPE   GL213278   4.200  29.208  13.381 -0.0493 -0.0531 -0.1735
 1132DOPE   C1A13279   4.483  29.707  13.295  0.1628  0.0859  0.1549
 1132DOPE   D2A13280   4.869  29.876  13.512  0.1122 -0.3722  0.0357
 1132DOPE   C3A13281   4.848  29.822  13.976  0.1925 -0.1710 -0.1621
 1132DOPE   C4A13282   4.695  30.069  14.294 -0.0765  0.2384  0.0444
 1132DOPE   C1B13283   4.362  28.897  13.734  0.1080  0.0862 -0.2476
 1132DOPE   D2B13284   4.397  28.456  13.764 -0.2593 -0.2445  0.1240
 1132DOPE   C3B13285   4.707  28.220  13.973  0.3248  0.1058  0.1040
 1132DOPE   C4B13286   5.106  28.364  14.032  0.0366 -0.1524 -0.0717
 1133POSM   NC313287  11.200  24.036  12.418 -0.0488 -0.0327 -0.4460
 1133POSM   PO413288  11.007  23.691  12.330 -0.1731 -0.1217  0.0830
 1133POSM   AM113289  11.074  23.638  12.649  0.0606  0.4123 -0.1297
 1133POSM   AM213290  10.998  23.541  12.885 -0.2186  0.2276 -0.0050
 1133POSM   T1A13291  11.369  23.833  13.018  0.0662 -0.0007  0.1421
 1133POSM   C2A13292  11.191  24.035  13.361  0.2194 -0.3139  0.2009
 1133POSM   C3A13293  11.117  24.037  13.843 -0.0227  0.1119 -0.0698
 1133POSM   C1B13294  10.822  23.647  13.104  0.3204 -0.2179  0.2411
 1133POSM   D2B13295  10.689  23.612  13.552  0.2924  0.1489  0.2789
 1133POSM   C3B13296  10.467  23.147  13.657 -0.3444  0.0333 -0.3193
 1133POSM   C4B13297  10.616  22.803  13.882 -0.0191  0.2964 -0.1297
 1134DOPC   NC313298   7.802  28.011  12.529  0.1969 -0.4441 -0.1233
 1134DOPC   PO413299   7.786  27.662  12.277  0.4039  0.0992 -0.1282
 1134DOPC   GL113300   7.923  27.622  12.650  0.0776 -0.0000  0.1639
 1134DOPC   GL213301   7.713  27.539  12.845  0.2626  0.1412  0.0170
 1134DOPC   C1A13302   8.068  27.767  13.056  0.3470  0.1678  0.3046
 1134DOPC   D2A13303   8.283  27.735  13.460  0.0100 -0.2285  0.3777
 1134DOPC   C3A13304   7.908  27.986  13.590 -0.0242  0.0765  0.0821
 1134DOPC   C4A13305   7.662  28.020  13.965 -0.2191  0.0828 -0.2307
 1134DOPC   C1B13306   7.611  27.650  13.268  0.1007  0.4775  0.2660
 1134DOPC   D2B13307   7.615  27.563  13.752  0.1340 -0.3078  0.4601
 1134DOPC   C3B13308   8.048  27.648  13.930  0.0587 -0.1131  0.1663
 1134DOPC   C4B13309   8.484  27.703  13.922 -0.1079  0.0119  0.1132
 1135DOPC   NC313310   3.567  29.009  12.680  0.0785 -0.1522 -0.0293
 1135DOPC   PO413311   3.207  29.141  12.872 -0.2554 -0.0505 -0.1502
 1135DOPC   GL113312   3.354  28.867  13.097  0.0969 -0.1824 -0.0240
 1135DOPC   GL213313   3.639  28.855  13.195  0.0109  0.2456 -0.1472
 1135DOPC   C1A13314   3.098  28.506  13.350 -0.0262  0.0135  0.4292
 1135DOPC   D2A13315   3.030  28.156  13.610  0.1252  0.1233  0.0631
 1135DOPC   C3A13316   3.365  28.196  13.974 -0.1035  0.0824  0.0731
 1135DOPC   C4A13317   3.764  28.004  14.222 -0.0421  0.1033  0.0737
 1135DOPC   C1B13318   3.870  28.908  13.637 -0.1775  0.2296  0.2271
 1135DOPC   D2B13319   3.756  29.084  14.007  0.2030  0.3134 -0.0588
 1135DOPC   C3B13320   3.916  28.973  14.442 -0.0337  0.0463 -0.0993
 1135DOPC   C4B13321   3.899  29.102  14.932  0.2936  0.3485  0.1688
 1136DOPE   NH313322   8.030  34.445  12.175 -0.0138 -0.0806  0.1031
 1136DOPE   PO413323   8.298  34.608  12.259  0.1588 -0.0030  0.1732
 1136DOPE   GL113324   8.493  34.765  12.549  0.2002 -0.1272 -0.2609
 1136DOPE   GL213325   8.774  34.579  12.551  0.2391  0.0526 -0.0532
 1136DOPE   C1A13326   8.835  35.074  12.538  0.0136  0.1068  0.0877
 1136DOPE   D2A13327   9.214  35.320  12.652 -0.1369 -0.1095  0.2278
 1136DOPE   C3A13328   9.409  35.557  12.951  0.2330 -0.3193  0.1061
 1136DOPE   C4A13329   9.491  35.436  13.387 -0.1213 -0.0045 -0.0150
 1136DOPE   C1B13330   8.918  34.090  12.647  0.3655 -0.1947  0.1320
 1136DOPE   D2B13331   9.224  33.842  12.785 -0.2107 -0.2982  0.2233
 1136DOPE   C3B13332   9.502  33.652  12.508 -0.2771  0.0227  0.1633
 1136DOPE   C4B13333   9.793  33.455  12.182 -0.0858  0.3418 -0.0711
 1137POSM   NC313334  11.516  34.100  12.120  0.2833  0.2187 -0.1581
 1137POSM   PO413335  11.532  34.352  12.384 -0.0196 -0.3281 -0.1740
 1137POSM   AM113336  11.265  34.413  12.569 -0.3371  0.0882  0.1176
 1137POSM   AM213337  11.156  34.445  12.860  0.0202  0.0538 -0.0112
 1137POSM   T1A13338  10.814  34.253  12.617  0.1954 -0.1714 -0.0445
 1137POSM   C2A13339  10.674  33.818  12.603  0.1682  0.1652  0.0429
 1137POSM   C3A13340  10.451  33.451  12.367 -0.0284 -0.3311  0.3585
 1137POSM   C1B13341  10.973  34.182  13.052  0.1786  0.1351  0.2178
 1137POSM   D2B13342  10.624  34.092  13.312 -0.3298 -0.0162  0.0347
 1137POSM   C3B13343  10.626  34.497  13.474 -0.1053  0.4528  0.1463
 1137POSM   C4B13344  10.781  34.714  13.886 -0.1984 -0.2067  0.3087
 1138DOPE   NH313345   6.946  28.940  12.361 -0.1890  0.2925 -0.1474
 1138DOPE   PO413346   6.799  29.111  12.571  0.0332  0.0318  0.1467
 1138DOPE   GL113347   6.375  29.046  12.659  0.0481 -0.2681  0.3979
 1138DOPE   GL213348   6.375  29.043  12.872 -0.0842 -0.0172  0.4058
 1138DOPE   C1A13349   6.117  29.499  12.681 -0.1264 -0.1147  0.0505
 1138DOPE   D2A13350   6.089  29.877  12.940  0.1224 -0.2308  0.2095
 1138DOPE   C3A13351   5.672  29.930  13.062  0.0532  0.2845  0.2240
 1138DOPE   C4A13352   5.255  29.983  13.238  0.1115  0.2348  0.3458
 1138DOPE   C1B13353   6.327  29.434  13.111  0.0376 -0.3509 -0.2046
 1138DOPE   D2B13354   6.096  29.558  13.447 -0.3404  0.2111 -0.0702
 1138DOPE   C3B13355   5.920  29.982  13.440 -0.0699 -0.0299 -0.0445
 1138DOPE   C4B13356   6.103  30.308  13.654  0.1681 -0.2677  0.1688
 1139DOPC   NC313357   7.444  28.298  12.478  0.0380 -0.0593  0.2152
 1139DOPC   PO413358   7.428  28.668  12.384 -0.0059 -0.0338 -0.2411
 1139DOPC   GL113359   7.482  28.870  12.697 -0.0487  0.4223 -0.1061
 1139DOPC   GL213360   7.643  28.612  12.851 -0.0737  0.2899 -0.0365
 1139DOPC   C1A13361   7.861  29.110  12.860  0.1434  0.2517 -0.1644
 1139DOPC   D2A13362   8.133  29.340  13.153 -0.0337  0.0900  0.1065
 1139DOPC   C3A13363   8.199  29.356  13.632 -0.1106  0.0669 -0.1158
 1139DOPC   C4A13364   8.319  29.330  14.115 -0.0233  0.0920  0.2149
 1139DOPC   C1B13365   7.648  28.561  13.340  0.3426  0.1126  0.0308
 1139DOPC   D2B13366   7.526  28.498  13.808  0.1846  0.2937  0.0616
 1139DOPC   C3B13367   7.490  28.871  14.134 -0.1345  0.0938  0.0888
 1139DOPC   C4B13368   7.290  29.051  14.455  0.3423  0.0702  0.0136
 1140DOPS   CNO13369   2.613  23.410  12.202 -0.4183 -0.1139  0.3657
 1140DOPS   PO413370   2.360  23.670  12.262 -0.1019 -0.2147  0.3429
 1140DOPS   GL113371   2.143  24.016  12.420 -0.1617  0.1437 -0.1308
 1140DOPS   GL213372   2.310  23.967  12.675  0.1643 -0.2333  0.0284
 1140DOPS   C1A13373   1.692  23.964  12.331 -0.0140 -0.0419 -0.0746
 1140DOPS   D2A13374   1.285  23.746  12.196 -0.1459 -0.3629 -0.0973
 1140DOPS   C3A13375   0.871  23.805  12.419  0.0581  0.0027 -0.3304
 1140DOPS   C4A13376   0.451  23.846  12.511 -0.1171 -0.0540 -0.0235
 1140DOPS   C1B13377   2.148  24.326  12.929  0.1156  0.1428 -0.1925
 1140DOPS   D2B13378   1.836  24.264  13.298 -0.1764  0.0513  0.2752
 1140DOPS   C3B13379   2.239  24.049  13.533  0.1070 -0.1615 -0.1785
 1140DOPS   C4B13380   2.348  23.845  13.921  0.2347  0.0504  0.3008
 1141DOPE   NH313381   2.587  31.800  12.816  0.0065 -0.0372  0.0366
 1141DOPE   PO413382   2.732  31.958  12.627 -0.2329 -0.1524 -0.2424
 1141DOPE   GL113383   2.793  32.256  12.855 -0.2409 -0.1144  0.1356
 1141DOPE   GL213384   3.100  32.364  12.668 -0.1157 -0.0933  0.0054
 1141DOPE   C1A13385   3.060  32.212  13.269 -0.1449 -0.2124 -0.0828
 1141DOPE   D2A13386   3.472  32.381  13.415  0.4511 -0.1601 -0.1729
 1141DOPE   C3A13387   3.657  32.401  13.803 -0.2945  0.0070  0.1443
 1141DOPE   C4A13388   3.567  32.621  14.262 -0.0061 -0.1101  0.3894
 1141DOPE   C1B13389   3.462  32.508  12.863 -0.1803 -0.0940  0.2204
 1141DOPE   D2B13390   3.635  32.860  13.050  0.0399 -0.2845  0.2653
 1141DOPE   C3B13391   3.468  33.055  13.471 -0.2241  0.4159  0.0888
 1141DOPE   C4B13392   3.570  32.997  13.915 -0.2776 -0.2608  0.1029
 1142DOPE   NH313393   3.402  27.800  12.658 -0.1416  0.0667 -0.0602
 1142DOPE   PO413394   3.284  28.078  12.700 -0.3102  0.0364  0.1771
 1142DOPE   GL113395   3.234  28.038  13.105  0.1413  0.0811 -0.1988
 1142DOPE   GL213396   2.874  28.114  13.152 -0.0139  0.1605  0.0367
 1142DOPE   C1A13397   3.466  27.903  13.493 -0.3486  0.2578 -0.4691
 1142DOPE   D2A13398   3.283  27.585  13.795 -0.0527  0.0716 -0.3145
 1142DOPE   C3A13399   2.878  27.729  13.864  0.2229  0.0522  0.1573
 1142DOPE   C4A13400   2.505  27.603  14.102 -0.0064 -0.0285 -0.1011
 1142DOPE   C1B13401   2.868  27.685  13.387 -0.0269  0.4573 -0.0081
 1142DOPE   D2B13402   3.017  27.294  13.555  0.1310  0.0159  0.4104
 1142DOPE   C3B13403   2.915  26.863  13.400 -0.0698 -0.2063 -0.2689
 1142DOPE   C4B13404   2.698  26.489  13.369 -0.1914 -0.3356  0.1267
 1143DOPS   CNO13405  11.028  34.642  12.241 -0.1661  0.1852  0.1031
 1143DOPS   PO413406  11.137  34.934  12.547 -0.1338 -0.2140 -0.0141
 1143DOPS   GL113407  11.387  34.947  12.798  0.0971 -0.0110  0.1078
 1143DOPS   GL213408  11.381  35.115  13.020  0.2252 -0.1088  0.2659
 1143DOPS   C1A13409  11.563  34.645  13.079  0.1899 -0.0616  0.1179
 1143DOPS   D2A13410  11.662  34.482  13.484 -0.1013 -0.3611 -0.2670
 1143DOPS   C3A13411  11.796  34.055  13.556  0.2937  0.1547  0.0084
 1143DOPS   C4A13412  12.164  33.834  13.678 -0.0438  0.1133  0.0600
 1143DOPS   C1B13413  11.119  34.758  13.261  0.1606 -0.1188 -0.1570
 1143DOPS   D2B13414  11.078  34.404  13.554 -0.0058 -0.2031 -0.1630
 1143DOPS   C3B13415  11.291  34.388  13.939 -0.0382 -0.1573 -0.1779
 1143DOPS   C4B13416  11.512  34.695  14.269 -0.3751  0.2441 -0.0899
 1144DOPE   NH313417  11.288  26.519  12.430 -0.1179 -0.1426 -0.0470
 1144DOPE   PO413418  11.464  26.539  12.694  0.1222  0.2482 -0.1881
 1144DOPE   GL113419  11.523  26.558  13.051  0.1688 -0.4519  0.4234
 1144DOPE   GL213420  11.625  26.275  13.104  0.0758 -0.3154  0.0453
 1144DOPE   C1A13421  11.237  26.646  13.431 -0.1725  0.0255  0.0580
 1144DOPE   D2A13422  10.812  26.725  13.416 -0.1420  0.2220 -0.1012
 1144DOPE   C3A13423  10.440  26.532  13.579 -0.0285  0.2805 -0.1260
 1144DOPE   C4A13424  10.230  26.511  13.993  0.0780 -0.0891  0.2832
 1144DOPE   C1B13425  11.687  25.904  12.824  0.0059 -0.2026  0.3613
 1144DOPE   D2B13426  11.736  25.634  12.417  0.3876  0.1146  0.0276
 1144DOPE   C3B13427  11.906  25.205  12.379 -0.0901  0.2482 -0.3210
 1144DOPE   C4B13428  11.992  24.771  12.389  0.1344 -0.0139 -0.1117
 1145DOPS   CNO13429   5.850  23.487  12.248 -0.1712 -0.1478 -0.1844
 1145DOPS   PO413430   5.906  23.316  12.621 -0.0568  0.1203  0.1710
 1145DOPS   GL113431   5.852  23.605  12.908 -0.0718 -0.3052  0.0365
 1145DOPS   GL213432   5.601  23.662  12.895  0.3037 -0.0139 -0.1918
 1145DOPS   C1A13433   5.858  24.062  12.878 -0.0680  0.0889  0.1741
 1145DOPS   D2A13434   5.732  24.540  12.793  0.2511 -0.0031  0.0431
 1145DOPS   C3A13435   5.369  24.778  12.992  0.1766  0.2703  0.3618
 1145DOPS   C4A13436   4.955  24.735  13.220 -0.0768 -0.1443  0.0972
 1145DOPS   C1B13437   5.387  23.290  13.052 -0.1599  0.2390 -0.3198
 1145DOPS   D2B13438   5.019  23.250  13.263 -0.2929 -0.1562  0.2011
 1145DOPS   C3B13439   5.115  23.153  13.668 -0.0437 -0.1649  0.0200
 1145DOPS   C4B13440   5.006  22.747  13.855  0.0257 -0.1847  0.2297
 1146DOPS   CNO13441  10.587  24.171  12.138  0.0534 -0.0165  0.0746
 1146DOPS   PO413442  10.761  24.259  12.449  0.1221 -0.0183 -0.0508
 1146DOPS   GL113443  10.980  24.392  12.703 -0.7394 -0.2825 -0.3139
 1146DOPS   GL213444  10.984  24.114  12.874 -0.0494  0.0807  0.0135
 1146DOPS   C1A13445  11.434  24.330  12.783  0.0759  0.0976  0.4297
 1146DOPS   D2A13446  11.821  24.600  12.908  0.1744  0.2399 -0.0875
 1146DOPS   C3A13447  11.890  24.637  13.375  0.1294 -0.1619 -0.0362
 1146DOPS   C4A13448  11.805  24.441  13.781  0.2726 -0.0550  0.0744
 1146DOPS   C1B13449  10.836  24.409  13.244  0.0002 -0.0400  0.1502
 1146DOPS   D2B13450  10.874  24.664  13.595  0.0508  0.1697  0.0208
 1146DOPS   C3B13451  10.829  24.451  14.002  0.0648  0.2042  0.3072
 1146DOPS   C4B13452  10.594  24.389  14.373  0.0349  0.1935 -0.0696
 1147DOPC   NC313453   5.038  25.606  12.409 -0.0490 -0.1218 -0.1240
 1147DOPC   PO413454   4.738  25.626  12.602  0.1066 -0.0705 -0.5029
 1147DOPC   GL113455   4.717  25.315  12.876  0.1642 -0.0375 -0.1436
 1147DOPC   GL213456   4.753  25.474  13.093 -0.2899 -0.0520  0.2483
 1147DOPC   C1A13457   4.517  24.919  13.021 -0.1599 -0.1163  0.0486
 1147DOPC   D2A13458   4.308  24.531  13.087  0.2981 -0.6092 -0.0931
 1147DOPC   C3A13459   3.903  24.471  13.234  0.4696  0.2141 -0.1869
 1147DOPC   C4A13460   3.514  24.256  13.073  0.1533  0.1823  0.0807
 1147DOPC   C1B13461   4.468  25.410  13.443  0.0482  0.1494  0.0697
 1147DOPC   D2B13462   4.393  25.168  13.813  0.4022 -0.2285 -0.2777
 1147DOPC   C3B13463   4.057  24.858  13.873  0.1745  0.1855 -0.0395
 1147DOPC   C4B13464   3.606  24.875  13.873  0.1556  0.1448  0.0405
 1148DOPC   NC313465  11.516  30.956  12.032 -0.0960 -0.4892 -0.2002
 1148DOPC   PO413466  11.443  30.688  12.324  0.1204  0.5007 -0.2132
 1148DOPC   GL113467  11.092  30.806  12.462 -0.0355 -0.3537  0.1030
 1148DOPC   GL213468  10.959  30.518  12.186  0.3037 -0.1995  0.0554
 1148DOPC   C1A13469  10.811  30.475  12.731  0.0848  0.1027 -0.0060
 1148DOPC   D2A13470  10.359  30.499  12.979 -0.2392  0.0140  0.3612
 1148DOPC   C3A13471  10.144  30.067  13.086 -0.1629 -0.3375 -0.0720
 1148DOPC   C4A13472   9.700  29.998  13.112  0.2747 -0.0858 -0.0483
 1148DOPC   C1B13473  11.008  30.170  12.427  0.1613  0.1251 -0.2078
 1148DOPC   D2B13474  10.928  29.974  12.852  0.0669  0.1568 -0.0170
 1148DOPC   C3B13475  10.657  30.123  13.202  0.0079  0.1310  0.3222
 1148DOPC   C4B13476  10.386  30.179  13.609  0.3737 -0.2196  0.2221
 1149DOPE   NH313477   6.367  27.141  12.627  0.0964 -0.2338  0.1612
 1149DOPE   PO413478   6.519  26.921  12.846  0.2201  0.0414 -0.1348
 1149DOPE   GL113479   6.421  26.964  13.312 -0.0172 -0.2467  0.0909
 1149DOPE   GL213480   6.182  26.784  13.225  0.0619  0.0857 -0.0669
 1149DOPE   C1A13481   6.365  26.656  13.655 -0.1958  0.1689 -0.0243
 1149DOPE   D2A13482   6.362  26.622  14.105  0.2990 -0.0429  0.1857
 1149DOPE   C3A13483   6.399  26.826  14.563 -0.1978  0.3990  0.0183
 1149DOPE   C4A13484   6.262  27.069  14.944  0.0070 -0.1075  0.5433
 1149DOPE   C1B13485   6.055  27.023  13.599 -0.0133  0.1036 -0.1639
 1149DOPE   D2B13486   5.719  27.284  13.585 -0.0627  0.1608 -0.2427
 1149DOPE   C3B13487   5.549  27.628  13.814 -0.0854 -0.2286 -0.0379
 1149DOPE   C4B13488   5.383  27.823  14.176 -0.0177 -0.2875 -0.0042
 1150DOPC   NC313489  11.146   0.513  11.710  0.0229 -0.1419 -0.0618
 1150DOPC   PO413490  10.991   0.419  12.016 -0.3573  0.0622 -0.1584
 1150DOPC   GL113491  10.614   0.258  12.110 -0.0203  0.3233 -0.0417
 1150DOPC   GL213492  10.652   0.164  12.447 -0.1219 -0.0230  0.0722
 1150DOPC   C1A13493  10.153   0.186  12.131 -0.0589 -0.0405 -0.0825
 1150DOPC   D2A13494   9.877  -0.148  12.284 -0.1982  0.2366 -0.5116
 1150DOPC   C3A13495   9.695  -0.065  12.696  0.1339  0.1601 -0.1897
 1150DOPC   C4A13496   9.565   0.275  13.012 -0.0107  0.1634 -0.2141
 1150DOPC   C1B13497  10.387  -0.246  12.366  0.0204 -0.0894  0.3288
 1150DOPC   D2B13498  10.121  -0.627  12.518 -0.3798 -0.1094  0.2034
 1150DOPC   C3B13499  10.182  -1.032  12.710  0.0421 -0.3168 -0.1938
 1150DOPC   C4B13500  10.550  -1.128  13.042 -0.5453 -0.0417 -0.2306
 1151POSM   NC313501   5.335  26.089  12.487  0.3983  0.0545 -0.1277
 1151POSM   PO413502   5.280  26.322  12.815  0.1042  0.1158 -0.0669
 1151POSM   AM113503   5.335  26.124  13.064 -0.0772 -0.0508 -0.3439
 1151POSM   AM213504   5.538  25.995  13.196  0.0796 -0.1586 -0.0421
 1151POSM   T1A13505   5.208  26.094  13.555  0.0693  0.0577 -0.2093
 1151POSM   C2A13506   4.899  26.080  13.904  0.1593  0.1551  0.2602
 1151POSM   C3A13507   4.673  25.955  14.302  0.0467 -0.2758 -0.2208
 1151POSM   C1B13508   5.711  25.781  13.430  0.1969  0.1004 -0.1946
 1151POSM   D2B13509   5.919  25.745  13.764 -0.4590 -0.0619 -0.2248
 1151POSM   C3B13510   5.968  25.413  14.118 -0.0507  0.0766 -0.0005
 1151POSM   C4B13511   5.919  25.007  14.281 -0.1926  0.2101 -0.1074
 1152DOPC   NC313512   2.388  31.568  12.454 -0.1872 -0.0310  0.0919
 1152DOPC   PO413513   2.418  31.158  12.513 -0.0053  0.2054  0.2083
 1152DOPC   GL113514   2.624  31.129  12.855  0.1344  0.3241 -0.0805
 1152DOPC   GL213515   2.711  31.299  12.969 -0.1129 -0.0479 -0.1256
 1152DOPC   C1A13516   2.614  30.813  13.236  0.1454 -0.1484 -0.1077
 1152DOPC   D2A13517   2.702  30.755  13.709 -0.0304 -0.2093  0.1619
 1152DOPC   C3A13518   2.672  31.149  14.005  0.1289 -0.0331  0.1675
 1152DOPC   C4A13519   2.428  31.525  14.041 -0.3063  0.1027 -0.1194
 1152DOPC   C1B13520   2.959  31.181  13.271  0.1406  0.1672  0.0562
 1152DOPC   D2B13521   3.177  31.132  13.655  0.0385  0.2538  0.0206
 1152DOPC   C3B13522   3.105  31.422  14.014  0.2681  0.0039 -0.5750
 1152DOPC   C4B13523   2.935  31.748  14.246  0.1122 -0.1281  0.0475
 1153DOPC   NC313524   6.353  31.930  12.355  0.2809 -0.1381  0.0837
 1153DOPC   PO413525   6.105  32.098  12.574  0.2409 -0.1308  0.0509
 1153DOPC   GL113526   6.270  31.997  12.825 -0.0919  0.2868  0.1948
 1153DOPC   GL213527   6.422  31.748  12.963 -0.0117 -0.1185  0.1584
 1153DOPC   C1A13528   6.305  32.128  13.251  0.0117  0.1493  0.1356
 1153DOPC   D2A13529   6.478  32.270  13.666 -0.1441  0.0371 -0.0706
 1153DOPC   C3A13530   6.662  31.847  13.767  0.1602 -0.0186 -0.2926
 1153DOPC   C4A13531   6.772  31.533  14.074  0.2523 -0.2825 -0.1366
 1153DOPC   C1B13532   6.755  31.864  13.259 -0.0091 -0.1301  0.0957
 1153DOPC   D2B13533   6.965  32.172  13.557 -0.1294 -0.0788 -0.1273
 1153DOPC   C3B13534   7.369  32.044  13.808 -0.2755 -0.1711 -0.1986
 1153DOPC   C4B13535   7.732  31.786  13.783  0.0042  0.0566  0.1835
 1154DOPE   NH313536   4.636  33.213  12.286 -0.2708 -0.0366  0.2597
 1154DOPE   PO413537   4.468  33.010  12.443 -0.1138 -0.2906  0.0282
 1154DOPE   GL113538   4.092  32.973  12.421  0.2580  0.0800 -0.0802
 1154DOPE   GL213539   4.024  33.115  12.144 -0.1840 -0.1786  0.1648
 1154DOPE   C1A13540   3.677  33.037  12.591 -0.0520  0.0012  0.1231
 1154DOPE   D2A13541   3.228  32.973  12.749 -0.2324 -0.1352  0.3225
 1154DOPE   C3A13542   3.142  32.759  13.162  0.0456  0.0934 -0.0102
 1154DOPE   C4A13543   2.942  32.632  13.506  0.0466  0.2809  0.1002
 1154DOPE   C1B13544   3.912  33.435  12.456  0.1685 -0.3743  0.0470
 1154DOPE   D2B13545   3.684  33.787  12.626  0.4087 -0.1646  0.1204
 1154DOPE   C3B13546   3.226  33.620  12.703  0.1056  0.1957  0.0587
 1154DOPE   C4B13547   2.849  33.673  13.022  0.0922  0.1076  0.0045
 1155DOPE   NH313548   1.669  34.523  12.822  0.0569 -0.1763  0.1775
 1155DOPE   PO413549   1.729  34.447  12.527  0.0419  0.1337  0.1470
 1155DOPE   GL113550   1.901  34.170  12.681  0.1284  0.0396  0.0499
 1155DOPE   GL213551   1.973  34.125  13.012  0.0966 -0.1980  0.2902
 1155DOPE   C1A13552   1.922  33.744  12.527 -0.1713 -0.0519  0.4788
 1155DOPE   D2A13553   1.877  33.316  12.615 -0.2606 -0.0741 -0.0572
 1155DOPE   C3A13554   2.295  33.194  12.775 -0.1138 -0.1115 -0.2493
 1155DOPE   C4A13555   2.612  33.175  13.134  0.0605 -0.1313 -0.2122
 1155DOPE   C1B13556   1.828  34.048  13.439  0.2596 -0.3286  0.1424
 1155DOPE   D2B13557   1.666  34.211  13.849  0.0155 -0.0575 -0.1192
 1155DOPE   C3B13558   1.779  34.079  14.278 -0.0083 -0.1126 -0.0263
 1155DOPE   C4B13559   2.005  34.289  14.558 -0.0062 -0.1764 -0.2859
 1156DOPC   NC313560   0.319  29.908  13.278  0.1540 -0.2016 -0.2257
 1156DOPC   PO413561   0.097  30.235  13.340  0.0391 -0.2974  0.1395
 1156DOPC   GL113562   0.035  30.024  13.635 -0.0702  0.0469 -0.1719
 1156DOPC   GL213563  -0.269  30.028  13.672 -0.3679  0.3100  0.0644
 1156DOPC   C1A13564   0.021  29.965  14.092 -0.2539  0.0753 -0.0266
 1156DOPC   D2A13565   0.017  29.660  14.444 -0.4349  0.2473  0.1267
 1156DOPC   C3A13566   0.377  29.349  14.501  0.1453  0.3877 -0.0283
 1156DOPC   C4A13567   0.764  29.147  14.720 -0.3315  0.1194  0.0367
 1156DOPC   C1B13568  -0.675  30.254  13.753  0.2966  0.1971  0.1596
 1156DOPC   D2B13569  -1.085  30.155  13.531  0.0539  0.0226 -0.0277
 1156DOPC   C3B13570  -1.413  30.003  13.850 -0.0338 -0.0471  0.2343
 1156DOPC   C4B13571  -1.772  29.926  14.157 -0.0934 -0.0760  0.0738
 1157DOPE   NH313572   8.845  30.043  12.190 -0.1754 -0.0965 -0.0564
 1157DOPE   PO413573   9.170  29.940  12.183  0.0099 -0.1272  0.2645
 1157DOPE   GL113574   9.482  29.883  12.423 -0.3744  0.2010 -0.2384
 1157DOPE   GL213575   9.590  30.036  12.623 -0.2253  0.0695  0.0680
 1157DOPE   C1A13576   9.885  29.696  12.172 -0.3097 -0.2141  0.0013
 1157DOPE   D2A13577  10.289  29.508  12.326 -0.2194  0.2388 -0.1457
 1157DOPE   C3A13578  10.334  29.242  12.732  0.1886 -0.2287 -0.0639
 1157DOPE   C4A13579  10.520  28.905  13.015  0.3089  0.1995 -0.2666
 1157DOPE   C1B13580   9.994  30.192  12.548  0.1200  0.0098  0.0195
 1157DOPE   D2B13581  10.458  30.117  12.576 -0.1190  0.2380  0.2567
 1157DOPE   C3B13582  10.490  29.771  12.895  0.2614 -0.2290  0.2135
 1157DOPE   C4B13583  10.495  29.434  13.227  0.0166 -0.0962  0.0024
 1158DOPS   CNO13584   5.889  32.787  12.231 -0.2368  0.2381  0.0072
 1158DOPS   PO413585   6.144  32.854  12.470 -0.0697  0.1184 -0.2450
 1158DOPS   GL113586   6.165  33.044  12.718 -0.2181  0.4037 -0.0981
 1158DOPS   GL213587   6.185  33.316  12.757 -0.1079 -0.0949 -0.1416
 1158DOPS   C1A13588   5.963  33.124  13.123 -0.0451  0.0395  0.3191
 1158DOPS   D2A13589   5.850  33.153  13.564 -0.0061  0.1901  0.0029
 1158DOPS   C3A13590   5.409  33.185  13.704 -0.1126  0.0035 -0.2554
 1158DOPS   C4A13591   4.994  33.051  13.496  0.1991 -0.2227 -0.0044
 1158DOPS   C1B13592   5.810  33.554  12.848  0.0024  0.3669 -0.6233
 1158DOPS   D2B13593   5.747  33.990  12.894  0.1018 -0.6640 -0.0941
 1158DOPS   C3B13594   6.096  34.249  13.155 -0.0311 -0.1332  0.1291
 1158DOPS   C4B13595   6.404  34.633  13.239  0.1365  0.2493 -0.2164
 1159DOPC   NC313596   3.771  34.643  12.990  0.0680  0.0403 -0.0072
 1159DOPC   PO413597   3.743  34.378  12.721  0.0517 -0.3160 -0.5031
 1159DOPC   GL113598   3.691  34.202  13.097  0.1038  0.2305  0.1758
 1159DOPC   GL213599   3.436  34.058  13.014  0.0243 -0.2176 -0.1415
 1159DOPC   C1A13600   3.682  33.805  13.330  0.0848 -0.1971  0.1539
 1159DOPC   D2A13601   3.663  33.497  13.651  0.5288 -0.1023 -0.0590
 1159DOPC   C3A13602   3.364  33.438  14.052  0.0030 -0.1090  0.0796
 1159DOPC   C4A13603   3.144  33.440  14.456  0.1478  0.1003  0.0700
 1159DOPC   C1B13604   3.345  34.092  13.472 -0.0264 -0.2426  0.1823
 1159DOPC   D2B13605   3.222  33.905  13.849  0.1410 -0.1592 -0.3005
 1159DOPC   C3B13606   2.861  33.648  14.014 -0.1424  0.0303  0.0064
 1159DOPC   C4B13607   2.608  33.464  14.369 -0.1542  0.0280 -0.0575
 1160POSM   NC313608   8.288  29.854  12.644 -0.0205  0.1472  0.0095
 1160POSM   PO413609   8.446  30.180  12.472  0.3656  0.1387 -0.1248
 1160POSM   AM113610   8.516  30.286  12.809  0.1685  0.1939  0.1336
 1160POSM   AM213611   8.570  30.187  13.089  0.2345 -0.3546 -0.1296
 1160POSM   T1A13612   8.415  30.678  13.132 -0.1841  0.1155  0.2528
 1160POSM   C2A13613   8.140  30.908  13.433  0.1302  0.0402  0.1765
 1160POSM   C3A13614   7.916  30.800  13.825 -0.0992  0.0446  0.0189
 1160POSM   C1B13615   8.498  30.240  13.381  0.0482  0.0778  0.1584
 1160POSM   D2B13616   8.559  30.211  13.834  0.0422  0.0305 -0.0093
 1160POSM   C3B13617   8.797  29.885  13.759  0.3802 -0.0508 -0.0281
 1160POSM   C4B13618   8.805  29.445  13.958 -0.0806 -0.0188  0.1602
 1161DOPC   NC313619   1.517  30.183  12.802  0.0516  0.3211  0.2547
 1161DOPC   PO413620   1.152  30.340  12.915  0.2133 -0.1333  0.0789
 1161DOPC   GL113621   1.276  30.094  13.164  0.3820 -0.0136  0.1238
 1161DOPC   GL213622   1.282  29.822  13.081 -0.2489 -0.1631 -0.2715
 1161DOPC   C1A13623   1.443  30.005  13.585 -0.0298  0.4621 -0.0275
 1161DOPC   D2A13624   1.296  29.966  14.018 -0.1891  0.3022 -0.0057
 1161DOPC   C3A13625   1.531  29.770  14.352 -0.2793  0.0826 -0.2204
 1161DOPC   C4A13626   1.747  29.384  14.470  0.2520 -0.1274 -0.0215
 1161DOPC   C1B13627   1.280  29.539  13.431  0.0643 -0.0217 -0.1497
 1161DOPC   D2B13628   1.122  29.434  13.900 -0.1009  0.0160  0.0034
 1161DOPC   C3B13629   1.439  29.261  14.097 -0.0697  0.2131  0.3875
 1161DOPC   C4B13630   1.591  28.964  14.375  0.1027 -0.0837 -0.1623
 1162POSM   NC313631   5.243  31.254  12.403  0.1995 -0.0911 -0.2457
 1162POSM   PO413632   5.554  31.391  12.513 -0.2254  0.1268 -0.1161
 1162POSM   AM113633   5.461  31.247  12.828 -0.0991 -0.1639  0.3685
 1162POSM   AM213634   5.455  30.965  12.909  0.1232  0.0643  0.1673
 1162POSM   T1A13635   5.455  31.379  13.296  0.1303  0.0456  0.1959
 1162POSM   C2A13636   5.082  31.150  13.497 -0.0617 -0.2338 -0.1183
 1162POSM   C3A13637   5.144  30.808  13.793 -0.2720  0.4745  0.2645
 1162POSM   C1B13638   5.473  30.935  13.251  0.1252  0.0972  0.2276
 1162POSM   D2B13639   5.690  31.011  13.662 -0.1678  0.0256 -0.0504
 1162POSM   C3B13640   5.925  31.398  13.713 -0.0366 -0.0391  0.2496
 1162POSM   C4B13641   6.272  31.558  13.947 -0.0492 -0.0724 -0.0892
 1163DOPE   NH313642   2.733  29.410  12.974  0.4955 -0.1783 -0.2161
 1163DOPE   PO413643   2.606  29.711  12.809  0.2457  0.0741  0.0490
 1163DOPE   GL113644   2.473  29.895  13.241  0.0678  0.0250 -0.0996
 1163DOPE   GL213645   2.673  29.781  13.352  0.0881  0.0142  0.0780
 1163DOPE   C1A13646   2.500  30.254  13.504  0.0725  0.0224  0.1578
 1163DOPE   D2A13647   2.515  30.390  13.936  0.2417  0.1053  0.2410
 1163DOPE   C3A13648   2.206  30.001  14.052 -0.0041 -0.3081  0.3072
 1163DOPE   C4A13649   2.004  29.887  14.442  0.0732 -0.0736 -0.3753
 1163DOPE   C1B13650   2.606  29.844  13.820 -0.0674  0.0126 -0.1532
 1163DOPE   D2B13651   2.682  29.989  14.230 -0.2796 -0.0825  0.0891
 1163DOPE   C3B13652   2.478  29.950  14.642  0.0412  0.2185 -0.0360
 1163DOPE   C4B13653   2.203  30.261  14.816  0.1351  0.0215 -0.1433
 1164DOPE   NH313654   9.105  30.121  12.655 -0.0651  0.0389  0.0411
 1164DOPE   PO413655   8.854  29.961  12.740 -0.0296  0.0434 -0.1806
 1164DOPE   GL113656   8.893  29.841  13.122  0.1848 -0.1312 -0.0878
 1164DOPE   GL213657   9.084  30.016  13.255 -0.0742  0.2392  0.0455
 1164DOPE   C1A13658   9.061  29.529  13.446  0.0757  0.0187 -0.1769
 1164DOPE   D2A13659   9.471  29.286  13.366  0.0636  0.0398 -0.0113
 1164DOPE   C3A13660   9.636  28.834  13.427  0.0428  0.1703 -0.2752
 1164DOPE   C4A13661   9.700  28.398  13.717  0.3179 -0.1176 -0.0504
 1164DOPE   C1B13662   9.395  29.897  13.595 -0.0758  0.0566 -0.0328
 1164DOPE   D2B13663   9.830  29.867  13.626  0.4672  0.2160 -0.0105
 1164DOPE   C3B13664   9.980  29.458  13.766  0.2503  0.1298  0.1720
 1164DOPE   C4B13665   9.717  29.057  13.859 -0.0302 -0.0994  0.2918
 1165DOPS   CNO13666   7.651  23.624  12.221  0.1783  0.1454 -0.1116
 1165DOPS   PO413667   7.792  23.408  12.558 -0.1544 -0.2537  0.0949
 1165DOPS   GL113668   7.763  23.291  12.942 -0.2545  0.2483 -0.1712
 1165DOPS   GL213669   7.719  23.439  13.176 -0.2648 -0.1134  0.2217
 1165DOPS   C1A13670   7.720  22.875  13.073  0.0977  0.1558  0.1257
 1165DOPS   D2A13671   7.472  22.524  13.081 -0.0898  0.1824  0.1295
 1165DOPS   C3A13672   7.571  22.327  13.508 -0.4877 -0.4242  0.1664
 1165DOPS   C4A13673   7.746  21.947  13.753 -0.1091 -0.0837  0.0695
 1165DOPS   C1B13674   7.452  23.509  13.508 -0.3423 -0.2871  0.3210
 1165DOPS   D2B13675   7.411  23.759  13.871  0.0237  0.0403 -0.2534
 1165DOPS   C3B13676   7.738  23.425  14.115  0.0459 -0.0221 -0.2471
 1165DOPS   C4B13677   8.079  23.090  14.200  0.0749  0.1366  0.2855
 1166DOPE   NH313678   1.710  23.050  12.416  0.1086 -0.2962 -0.0089
 1166DOPE   PO413679   1.406  23.012  12.376 -0.2248 -0.0560  0.0614
 1166DOPE   GL113680   1.392  23.251  12.724 -0.0413  0.0513  0.4231
 1166DOPE   GL213681   1.165  23.397  12.655  0.0603  0.1212 -0.1082
 1166DOPE   C1A13682   1.519  23.488  13.143  0.2213 -0.2183 -0.0785
 1166DOPE   D2A13683   1.350  23.912  13.264 -0.1139  0.0118 -0.1731
 1166DOPE   C3A13684   1.545  24.090  13.702  0.1000  0.0246  0.1684
 1166DOPE   C4A13685   1.820  23.882  13.915 -0.0428  0.3281 -0.0162
 1166DOPE   C1B13686   1.301  23.845  12.697  0.2364  0.1104  0.1197
 1166DOPE   D2B13687   1.702  24.012  12.802  0.1918 -0.1859 -0.0895
 1166DOPE   C3B13688   1.774  24.430  12.623 -0.1334  0.1159  0.0677
 1166DOPE   C4B13689   1.779  24.906  12.572  0.0152 -0.2261  0.0617
 1167DOPE   NH313690   9.543  23.403  12.321 -0.0715  0.3069 -0.2205
 1167DOPE   PO413691   9.327  23.553  12.517  0.1365  0.2892  0.4092
 1167DOPE   GL113692   9.364  23.935  12.511 -0.3413 -0.3565  0.0512
 1167DOPE   GL213693   9.110  24.011  12.379  0.2563 -0.0880  0.1179
 1167DOPE   C1A13694   9.659  24.182  12.772 -0.0364 -0.4608  0.1912
 1167DOPE   D2A13695  10.005  24.370  12.998 -0.3232 -0.1970  0.3869
 1167DOPE   C3A13696   9.880  24.448  13.437  0.0355 -0.1439 -0.1423
 1167DOPE   C4A13697   9.649  24.251  13.793 -0.0842  0.1026  0.3228
 1167DOPE   C1B13698   9.169  24.376  12.704 -0.0245 -0.1726  0.0008
 1167DOPE   D2B13699   9.003  24.775  12.804 -0.0816 -0.0208  0.0703
 1167DOPE   C3B13700   9.077  24.712  13.228  0.2098  0.1383  0.1053
 1167DOPE   C4B13701   9.423  24.692  13.509 -0.1471 -0.3087 -0.3852
 1168POSM   NC313702  10.851  32.483  12.282 -0.2964  0.1052 -0.1423
 1168POSM   PO413703  11.192  32.639  12.473  0.1439  0.3600  0.0949
 1168POSM   AM113704  11.144  32.592  12.806 -0.1564 -0.0084 -0.0167
 1168POSM   AM213705  11.290  32.734  12.993  0.2185  0.1300 -0.2479
 1168POSM   T1A13706  10.976  32.423  13.218 -0.1799 -0.1933 -0.0917
 1168POSM   C2A13707  10.542  32.328  13.409  0.1337  0.0615 -0.2298
 1168POSM   C3A13708  10.124  32.193  13.501  0.2693  0.2932 -0.0035
 1168POSM   C1B13709  11.278  32.922  13.327 -0.0395  0.1188  0.0976
 1168POSM   D2B13710  11.187  33.169  13.713 -0.1072  0.1082  0.1496
 1168POSM   C3B13711  10.794  33.312  13.889  0.1411 -0.0961  0.1562
 1168POSM   C4B13712  10.440  33.560  13.960 -0.0130  0.0518  0.4377
 1169DOPC   NC313713  11.357  31.719  12.548 -0.1735 -0.0592 -0.0318
 1169DOPC   PO413714  11.698  31.824  12.342 -0.1616  0.0127  0.0653
 1169DOPC   GL113715  11.773  31.671  12.781 -0.1102 -0.0216 -0.3527
 1169DOPC   GL213716  11.774  31.864  12.989  0.0633 -0.0909 -0.2843
 1169DOPC   C1A13717  11.397  31.553  13.042  0.3287  0.1656 -0.0133
 1169DOPC   D2A13718  10.979  31.443  12.987  0.1786  0.3960  0.1123
 1169DOPC   C3A13719  10.768  31.351  13.389 -0.0198 -0.0601  0.0165
 1169DOPC   C4A13720  10.820  30.980  13.647  0.4895 -0.3071  0.2095
 1169DOPC   C1B13721  11.651  31.882  13.441 -0.0081  0.0878 -0.2295
 1169DOPC   D2B13722  11.658  31.813  13.923 -0.1907 -0.0355  0.1270
 1169DOPC   C3B13723  11.445  32.175  14.219  0.3226  0.1915 -0.2608
 1169DOPC   C4B13724  11.325  32.611  14.250  0.1308  0.3682 -0.2335
 1170DOPC   NC313725   5.532  22.979  12.544 -0.2239  0.2160  0.0659
 1170DOPC   PO413726   5.391  22.972  12.168 -0.0219 -0.3506 -0.2233
 1170DOPC   GL113727   5.183  23.187  12.568 -0.1714 -0.5890  0.0965
 1170DOPC   GL213728   5.032  22.991  12.819  0.2174  0.2826 -0.0289
 1170DOPC   C1A13729   4.956  23.519  12.848  0.2550  0.2011  0.0867
 1170DOPC   D2A13730   5.064  23.885  13.127 -0.1534  0.2963  0.3256
 1170DOPC   C3A13731   5.527  23.923  13.330 -0.2179 -0.0747 -0.0926
 1170DOPC   C4A13732   5.994  23.777  13.347  0.1391 -0.0655 -0.1997
 1170DOPC   C1B13733   4.610  23.204  12.962 -0.1082 -0.1990  0.0390
 1170DOPC   D2B13734   4.147  23.160  13.104  0.0519 -0.2854 -0.2546
 1170DOPC   C3B13735   4.118  22.903  13.503 -0.0006  0.0123 -0.0404
 1170DOPC   C4B13736   4.400  22.824  13.891  0.0107  0.0617 -0.0143
 1171DOPE   NH313737   3.447  23.104  12.699 -0.0135  0.0336 -0.0401
 1171DOPE   PO413738   3.576  23.384  12.590 -0.0854 -0.1180 -0.1346
 1171DOPE   GL113739   3.903  23.534  12.884  0.1924  0.4053 -0.0636
 1171DOPE   GL213740   3.756  23.664  13.074 -0.1367 -0.1466 -0.1068
 1171DOPE   C1A13741   4.325  23.585  12.991  0.1820 -0.1757  0.1259
 1171DOPE   D2A13742   4.481  23.814  13.338 -0.0979  0.1619 -0.1514
 1171DOPE   C3A13743   4.795  23.623  13.580  0.0194 -0.1976  0.0006
 1171DOPE   C4A13744   5.240  23.736  13.677 -0.0703  0.2266 -0.1256
 1171DOPE   C1B13745   4.018  23.930  13.344 -0.0724 -0.1524  0.1449
 1171DOPE   D2B13746   4.300  24.142  13.626  0.2078  0.0994 -0.1647
 1171DOPE   C3B13747   3.934  24.250  13.858 -0.1863  0.2052 -0.0847
 1171DOPE   C4B13748   3.597  24.444  14.126  0.3921  0.0407  0.0010
 1172DOPE   NH313749   8.081  27.199  12.215  0.0875  0.0066 -0.1151
 1172DOPE   PO413750   7.897  27.174  12.484 -0.1531 -0.0416 -0.1394
 1172DOPE   GL113751   7.927  27.135  12.920 -0.0261 -0.0754  0.3945
 1172DOPE   GL213752   8.229  27.225  12.920  0.0153  0.0483 -0.5641
 1172DOPE   C1A13753   7.961  27.294  13.359 -0.1129 -0.1636 -0.1485
 1172DOPE   D2A13754   7.946  27.011  13.737 -0.2112  0.1904 -0.1603
 1172DOPE   C3A13755   7.855  27.166  14.120 -0.0258  0.0916  0.1490
 1172DOPE   C4A13756   7.416  27.402  14.238  0.0901 -0.0832  0.1048
 1172DOPE   C1B13757   8.621  27.441  13.121  0.0639 -0.0413  0.0144
 1172DOPE   D2B13758   8.789  27.384  13.503 -0.2944 -0.0908  0.0483
 1172DOPE   C3B13759   8.949  27.744  13.666  0.2105  0.1804 -0.2514
 1172DOPE   C4B13760   8.888  27.989  14.011 -0.3366  0.0627 -0.0012
 1173POSM   NC313761   6.426  23.380  12.635 -0.1728 -0.0124 -0.0152
 1173POSM   PO413762   6.701  23.550  12.478  0.1320 -0.1532  0.2015
 1173POSM   AM113763   6.546  23.844  12.574 -0.1147 -0.0345  0.1244
 1173POSM   AM213764   6.361  23.885  12.798 -0.5765 -0.0302  0.2288
 1173POSM   T1A13765   6.462  24.356  12.621 -0.0784 -0.0379 -0.0131
 1173POSM   C2A13766   6.469  24.589  13.050  0.0116 -0.1553 -0.3076
 1173POSM   C3A13767   6.412  25.002  13.304  0.0074 -0.1517  0.0564
 1173POSM   C1B13768   6.321  24.065  13.088 -0.1365  0.1531  0.0622
 1173POSM   D2B13769   5.993  24.401  13.189 -0.1240 -0.2746 -0.1661
 1173POSM   C3B13770   5.776  24.339  13.534  0.2142  0.0158  0.2994
 1173POSM   C4B13771   5.805  23.947  13.811  0.0682  0.1623  0.0843
 1174POSM   NC313772   7.358  27.459  12.441 -0.1084  0.1134 -0.0841
 1174POSM   PO413773   7.350  27.824  12.629  0.1737 -0.0318 -0.2222
 1174POSM   AM113774   7.415  28.034  12.849  0.0508  0.1618 -0.3658
 1174POSM   AM213775   7.309  28.149  13.111  0.1579 -0.1490 -0.0018
 1174POSM   T1A13776   7.851  28.188  13.043 -0.1224  0.2906  0.2349
 1174POSM   C2A13777   8.186  28.236  13.303  0.4247 -0.2815  0.0428
 1174POSM   C3A13778   8.514  28.119  13.629  0.1660 -0.1925 -0.4380
 1174POSM   C1B13779   7.322  28.075  13.465 -0.1414  0.2434 -0.0452
 1174POSM   D2B13780   7.203  27.850  13.832 -0.3356  0.0539 -0.2910
 1174POSM   C3B13781   7.199  27.948  14.271 -0.2640 -0.0390 -0.3611
 1174POSM   C4B13782   7.402  27.817  14.734  0.0539  0.1158  0.0221
 1175POSM   NC313783   0.930  34.036  12.968  0.4384  0.0194  0.0966
 1175POSM   PO413784   1.034  33.655  12.964  0.2974  0.1846  0.2921
 1175POSM   AM113785   1.111  33.329  12.940 -0.1647  0.0357 -0.3477
 1175POSM   AM213786   1.095  33.111  13.135 -0.1349  0.0544  0.2782
 1175POSM   T1A13787   1.341  32.946  12.693  0.0910  0.0132  0.2703
 1175POSM   C2A13788   1.678  32.792  12.437  0.0615 -0.1965 -0.1098
 1175POSM   C3A13789   1.881  32.598  12.102 -0.1925  0.2488  0.0614
 1175POSM   C1B13790   1.258  32.849  13.289 -0.1224 -0.2067  0.3333
 1175POSM   D2B13791   1.444  32.459  13.406  0.3556  0.2739  0.2523
 1175POSM   C3B13792   1.373  32.060  13.663 -0.0752  0.0195 -0.0894
 1175POSM   C4B13793   1.087  31.931  13.981 -0.1620  0.4189 -0.0188
 1176POSM   NC313794  11.463  27.501  12.691 -0.0552 -0.0529  0.0367
 1176POSM   PO413795  11.087  27.325  12.727 -0.0357 -0.3117  0.0756
 1176POSM   AM113796  10.852  27.450  12.507  0.1469  0.0974  0.4130
 1176POSM   AM213797  10.747  27.704  12.532  0.1599  0.0177 -0.1605
 1176POSM   T1A13798  10.350  27.452  12.449  0.0151 -0.3046 -0.2447
 1176POSM   C2A13799   9.960  27.516  12.595 -0.1153 -0.0689 -0.0263
 1176POSM   C3A13800   9.584  27.228  12.756  0.0471 -0.1932  0.0275
 1176POSM   C1B13801  10.588  27.978  12.644  0.0339  0.1029  0.1150
 1176POSM   D2B13802  10.140  28.051  12.707  0.0496 -0.0381  0.0811
 1176POSM   C3B13803   9.684  28.189  12.644 -0.1676  0.1949  0.1804
 1176POSM   C4B13804   9.256  28.126  12.415 -0.3069  0.2207 -0.0511
 1177DOPC   NC313805   2.943  30.015  12.773  0.0741  0.0738  0.1472
 1177DOPC   PO413806   3.053  29.813  13.108 -0.0193 -0.3287  0.1755
 1177DOPC   GL113807   3.055  29.546  13.396 -0.0093  0.1171  0.5430
 1177DOPC   GL213808   3.168  29.283  13.392  0.1135  0.1256 -0.0532
 1177DOPC   C1A13809   3.128  29.422  13.843 -0.0606  0.1004 -0.0397
 1177DOPC   D2A13810   3.159  29.296  14.286  0.1165  0.0886  0.1090
 1177DOPC   C3A13811   3.389  28.981  14.449  0.2059 -0.2502  0.0512
 1177DOPC   C4A13812   3.624  28.688  14.796  0.1899  0.0444 -0.1197
 1177DOPC   C1B13813   3.284  28.896  13.632  0.1223  0.0904  0.0291
 1177DOPC   D2B13814   3.436  28.706  14.026 -0.1911 -0.0818  0.1977
 1177DOPC   C3B13815   3.864  28.553  14.204  0.1727 -0.2783  0.1565
 1177DOPC   C4B13816   3.878  28.280  14.578 -0.1163  0.1013 -0.0008
 1178DOPC   NC313817   8.851  24.997  12.313  0.1427  0.2273  0.2402
 1178DOPC   PO413818   9.206  25.155  12.387  0.1247 -0.1970  0.1801
 1178DOPC   GL113819   9.273  25.277  12.737  0.1622  0.1255  0.0483
 1178DOPC   GL213820   9.591  25.377  12.879 -0.0886 -0.2076  0.3504
 1178DOPC   C1A13821   9.247  25.259  13.219  0.1218 -0.1743  0.2898
 1178DOPC   D2A13822   9.128  25.081  13.652  0.0792  0.1547 -0.1520
 1178DOPC   C3A13823   9.370  25.072  14.014 -0.1243  0.1110  0.1327
 1178DOPC   C4A13824   9.518  25.143  14.432  0.3598  0.1022 -0.0420
 1178DOPC   C1B13825   9.797  25.216  13.266 -0.1707  0.4006  0.2804
 1178DOPC   D2B13826  10.205  25.110  13.376  0.1807 -0.0234 -0.3146
 1178DOPC   C3B13827  10.289  24.852  13.781  0.2791  0.0939 -0.2402
 1178DOPC   C4B13828  10.124  24.512  14.056  0.0955  0.0550 -0.1171
 1179DOPE   NH313829   7.149  30.566  12.453 -0.0209 -0.0943 -0.0430
 1179DOPE   PO413830   7.448  30.392  12.392 -0.1447  0.1240 -0.1801
 1179DOPE   GL113831   7.598  30.271  12.680 -0.0609 -0.2035 -0.1675
 1179DOPE   GL213832   7.917  30.244  12.503 -0.2782 -0.2249 -0.0610
 1179DOPE   C1A13833   7.806  29.956  12.901 -0.1985  0.3551  0.0602
 1179DOPE   D2A13834   8.102  30.047  13.191  0.3863 -0.0205 -0.0168
 1179DOPE   C3A13835   8.040  30.412  13.449 -0.0800 -0.1156  0.0185
 1179DOPE   C4A13836   8.044  30.336  13.896  0.2596  0.1867 -0.1789
 1179DOPE   C1B13837   7.923  30.432  12.924 -0.0780  0.0356  0.1684
 1179DOPE   D2B13838   7.651  30.706  13.254  0.1780  0.2285 -0.0624
 1179DOPE   C3B13839   7.478  30.533  13.641  0.0960 -0.1451  0.1971
 1179DOPE   C4B13840   7.187  30.310  13.915 -0.0623 -0.0723 -0.1607
 1180DOPC   NC313841   7.291  29.899  12.279 -0.1541 -0.1040 -0.0135
 1180DOPC   PO413842   6.965  30.026  12.412  0.1834  0.0769 -0.2143
 1180DOPC   GL113843   7.143  30.135  12.761  0.5054 -0.0442  0.3685
 1180DOPC   GL213844   6.937  30.123  13.041 -0.1276 -0.4299  0.0767
 1180DOPC   C1A13845   7.276  29.768  12.978  0.1606  0.1468  0.0042
 1180DOPC   D2A13846   7.202  29.296  12.857 -0.0615  0.1161 -0.0649
 1180DOPC   C3A13847   7.417  28.991  13.154  0.0511 -0.1269 -0.2090
 1180DOPC   C4A13848   7.444  28.964  13.589  0.4120  0.3787 -0.2477
 1180DOPC   C1B13849   7.075  30.331  13.414  0.0019 -0.0009  0.0871
 1180DOPC   D2B13850   6.881  30.657  13.736 -0.2225  0.0102  0.0428
 1180DOPC   C3B13851   7.269  30.830  13.982  0.0856 -0.0922  0.0457
 1180DOPC   C4B13852   7.560  30.953  14.305 -0.2427  0.2246  0.3358
 1181DOPC   NC313853  10.854  31.082  12.114 -0.0154 -0.4634  0.1845
 1181DOPC   PO413854  10.934  31.434  12.015  0.2493  0.4280 -0.0430
 1181DOPC   GL113855  10.563  31.580  12.190  0.1066  0.1119 -0.2244
 1181DOPC   GL213856  10.512  31.345  12.375  0.1713 -0.2745 -0.0031
 1181DOPC   C1A13857  10.142  31.785  12.173 -0.0641 -0.0992 -0.1426
 1181DOPC   D2A13858   9.730  31.528  12.103 -0.2765 -0.2906 -0.0916
 1181DOPC   C3A13859   9.414  31.388  12.394  0.1106 -0.0690  0.1419
 1181DOPC   C4A13860   9.388  31.203  12.793  0.1124 -0.1157  0.0987
 1181DOPC   C1B13861  10.413  31.378  12.862 -0.1191 -0.1696  0.1295
 1181DOPC   D2B13862  10.309  31.688  13.220  0.0596  0.0929 -0.1265
 1181DOPC   C3B13863   9.920  31.691  13.470  0.1173 -0.0045 -0.0430
 1181DOPC   C4B13864   9.770  31.434  13.850  0.1680  0.0100 -0.0577
 1182DOPS   CNO13865   7.916   0.344  11.680 -0.2370 -0.0042 -0.0484
 1182DOPS   PO413866   7.788   0.151  11.984 -0.0019 -0.0941  0.2716
 1182DOPS   GL113867   8.010   0.313  12.257 -0.4374  0.0794 -0.3133
 1182DOPS   GL213868   7.949   0.243  12.514  0.1936 -0.3090  0.3043
 1182DOPS   C1A13869   8.377   0.572  12.089  0.1121  0.1079 -0.1259
 1182DOPS   D2A13870   8.624   0.867  12.387  0.0773  0.1687  0.1134
 1182DOPS   C3A13871   8.735   0.927  12.845 -0.1984 -0.1583 -0.0684
 1182DOPS   C4A13872   9.023   1.116  13.131 -0.4096 -0.2601  0.0003
 1182DOPS   C1B13873   8.196   0.035  12.868 -0.2706  0.1649  0.4630
 1182DOPS   D2B13874   8.474  -0.333  12.933 -0.3027  0.2260  0.1919
 1182DOPS   C3B13875   8.891  -0.277  13.149  0.1014  0.1968  0.4194
 1182DOPS   C4B13876   9.262  -0.023  13.258 -0.1389 -0.0618  0.0015
 1183POSM   NC313877  12.167  28.217  12.568  0.1188  0.1996  0.0748
 1183POSM   PO413878  11.958  28.278  12.233 -0.0089  0.1776  0.0441
 1183POSM   AM113879  11.721  28.413  12.433 -0.0771  0.1191 -0.2949
 1183POSM   AM213880  11.734  28.501  12.653 -0.1871 -0.3086 -0.0055
 1183POSM   T1A13881  11.280  28.650  12.455  0.0054 -0.0551  0.1476
 1183POSM   C2A13882  10.870  28.613  12.608  0.0317  0.0880 -0.2780
 1183POSM   C3A13883  10.378  28.529  12.558  0.0232  0.1597 -0.1094
 1183POSM   C1B13884  11.786  28.521  12.980 -0.0817 -0.0062  0.1103
 1183POSM   D2B13885  11.664  28.287  13.340 -0.0184  0.0054  0.1795
 1183POSM   C3B13886  11.324  28.144  13.595  0.3168 -0.0825 -0.2530
 1183POSM   C4B13887  11.099  28.367  13.950 -0.2606  0.0262 -0.0188
 1184DOPS   CNO13888   6.813  31.081  12.709 -0.0630 -0.1907  0.1383
 1184DOPS   PO413889   7.224  31.081  12.714 -0.0888 -0.3968  0.2543
 1184DOPS   GL113890   7.504  31.289  12.595  0.1162  0.1421  0.0411
 1184DOPS   GL213891   7.354  31.504  12.461  0.0663 -0.0971  0.1993
 1184DOPS   C1A13892   7.901  31.499  12.725 -0.0204 -0.2475  0.1784
 1184DOPS   D2A13893   8.324  31.730  12.616 -0.4165 -0.0975 -0.0087
 1184DOPS   C3A13894   8.705  31.654  12.433  0.0853 -0.1654  0.1224
 1184DOPS   C4A13895   9.062  31.616  12.064  0.2376 -0.3249 -0.3162
 1184DOPS   C1B13896   7.477  31.766  12.828  0.1712 -0.2907 -0.0580
 1184DOPS   D2B13897   7.736  31.688  13.180 -0.1853  0.0810  0.2710
 1184DOPS   C3B13898   8.185  31.731  13.132 -0.2911 -0.0231  0.0009
 1184DOPS   C4B13899   8.496  31.991  13.294  0.2453 -0.2365 -0.1847
 1185POSM   NC313900   2.116  28.622  13.032  0.0728 -0.0343  0.1284
 1185POSM   PO413901   1.851  28.887  12.845 -0.2651 -0.1492 -0.3311
 1185POSM   AM113902   1.940  28.983  13.189 -0.1079  0.2628 -0.0957
 1185POSM   AM213903   2.185  28.999  13.350 -0.0557  0.1588  0.0558
 1185POSM   T1A13904   1.879  29.058  13.710 -0.1689 -0.1025  0.1014
 1185POSM   C2A13905   2.037  29.175  14.166  0.1878 -0.1138  0.1807
 1185POSM   C3A13906   2.208  29.085  14.601 -0.1979  0.1340  0.2014
 1185POSM   C1B13907   2.400  28.871  13.585 -0.2658 -0.0245 -0.1548
 1185POSM   D2B13908   2.802  28.739  13.778  0.3194 -0.0195 -0.1102
 1185POSM   C3B13909   2.951  28.644  14.216  0.4261 -0.2519 -0.0028
 1185POSM   C4B13910   2.890  28.278  14.592 -0.0745 -0.1188 -0.0713
 1186DOPC   NC313911   3.017  31.149  12.333  0.2311 -0.0655 -0.1772
 1186DOPC   PO413912   2.907  31.484  12.521  0.2413  0.2612  0.0259
 1186DOPC   GL113913   3.105  31.778  12.799  0.0392 -0.2241 -0.1890
 1186DOPC   GL213914   3.005  31.741  13.098 -0.1876 -0.0015  0.2313
 1186DOPC   C1A13915   3.441  31.939  13.074 -0.2574 -0.1159 -0.1964
 1186DOPC   D2A13916   3.830  32.161  13.204 -0.0474 -0.1264 -0.0297
 1186DOPC   C3A13917   3.974  32.536  13.412  0.0176 -0.2741  0.4214
 1186DOPC   C4A13918   4.010  32.795  13.814  0.0470  0.0676  0.0718
 1186DOPC   C1B13919   2.656  31.869  13.378  0.2793 -0.0354  0.0688
 1186DOPC   D2B13920   2.708  31.855  13.839  0.2201 -0.0799  0.0509
 1186DOPC   C3B13921   2.836  32.301  13.872  0.0849  0.0597 -0.2081
 1186DOPC   C4B13922   3.033  32.674  14.049 -0.1702 -0.1123 -0.1040
 1187DOPC   NC313923   8.397  28.932  12.116 -0.2197  0.1141 -0.4536
 1187DOPC   PO413924   8.496  28.687  12.412 -0.0539  0.1176  0.3169
 1187DOPC   GL113925   8.730  28.871  12.769 -0.2279  0.2554 -0.1046
 1187DOPC   GL213926   8.891  28.737  12.742 -0.2793 -0.1701  0.3198
 1187DOPC   C1A13927   8.914  28.826  13.236 -0.0879  0.0659 -0.0272
 1187DOPC   D2A13928   9.081  29.078  13.635 -0.0795 -0.2258  0.2140
 1187DOPC   C3A13929   9.363  28.733  13.867  0.0567  0.2698 -0.0227
 1187DOPC   C4A13930   9.100  28.444  14.098  0.0555 -0.2560 -0.2025
 1187DOPC   C1B13931   8.998  28.287  12.756  0.1837 -0.3679  0.3297
 1187DOPC   D2B13932   9.047  27.844  12.690  0.0986 -0.4827  0.4541
 1187DOPC   C3B13933   9.079  27.465  12.986  0.2400  0.1424  0.0152
 1187DOPC   C4B13934   9.252  27.339  13.387 -0.1341 -0.1344  0.1772
 1188DOPC   NC313935   1.723  23.546  12.607  0.0697  0.0888 -0.1209
 1188DOPC   PO413936   2.053  23.517  12.686 -0.1949 -0.3424  0.0579
 1188DOPC   GL113937   2.015  23.730  12.962  0.0097  0.0142 -0.1328
 1188DOPC   GL213938   2.284  23.725  13.116  0.0665 -0.0787  0.2012
 1188DOPC   C1A13939   1.839  23.781  13.409 -0.3214  0.1516  0.1012
 1188DOPC   D2A13940   1.614  23.494  13.625  0.2744 -0.2359  0.0191
 1188DOPC   C3A13941   1.400  23.637  14.020 -0.0293 -0.1530  0.2047
 1188DOPC   C4A13942   1.090  23.788  14.286  0.1017  0.1784 -0.0373
 1188DOPC   C1B13943   2.607  23.786  13.440 -0.3257  0.2880  0.0861
 1188DOPC   D2B13944   2.795  24.139  13.653  0.0200  0.1406  0.0817
 1188DOPC   C3B13945   3.166  24.392  13.816 -0.1102  0.2498  0.1247
 1188DOPC   C4B13946   3.506  24.443  13.553 -0.1312  0.3605 -0.0845
 1189POSM   NC313947   8.476  34.161  12.366 -0.1256 -0.4206  0.1431
 1189POSM   PO413948   8.127  34.052  12.513  0.0591 -0.0065  0.0053
 1189POSM   AM113949   8.315  33.755  12.613 -0.3562 -0.1326 -0.3550
 1189POSM   AM213950   8.289  33.479  12.638  0.0482  0.1016  0.0106
 1189POSM   T1A13951   8.767  33.519  12.719  0.0113  0.2449  0.5480
 1189POSM   C2A13952   9.143  33.405  12.970  0.0176 -0.2523  0.0725
 1189POSM   C3A13953   9.591  33.344  13.042  0.0355  0.0873  0.1000
 1189POSM   C1B13954   8.073  33.223  12.597 -0.5093  0.2209 -0.2352
 1189POSM   D2B13955   7.835  32.872  12.731 -0.1124 -0.0053 -0.1048
 1189POSM   C3B13956   7.505  33.136  12.876 -0.0533  0.1200 -0.3304
 1189POSM   C4B13957   7.069  33.327  12.882  0.3936 -0.0689  0.0284
 1190POSM   NC313958   2.625  27.156  12.680 -0.0634  0.1382 -0.1886
 1190POSM   PO413959   2.548  26.934  12.372  0.2070  0.0266  0.2813
 1190POSM   AM113960   2.698  26.691  12.558  0.1759 -0.1325  0.1933
 1190POSM   AM213961   2.843  26.715  12.799 -0.0177 -0.0907  0.1161
 1190POSM   T1A13962   2.878  26.229  12.587 -0.1910  0.0604  0.1362
 1190POSM   C2A13963   3.152  25.867  12.739 -0.0672 -0.2867  0.1891
 1190POSM   C3A13964   3.134  25.663  13.153  0.1474  0.0782 -0.2494
 1190POSM   C1B13965   3.124  26.586  12.986  0.2471  0.2471 -0.1999
 1190POSM   D2B13966   3.218  26.242  13.251 -0.2810  0.1175  0.1975
 1190POSM   C3B13967   3.178  26.431  13.697  0.2291 -0.2392 -0.1585
 1190POSM   C4B13968   2.827  26.502  13.887 -0.4424  0.2343 -0.0474
 1191DOPE   NH313969   5.997  26.795  12.759 -0.1247  0.2455  0.3324
 1191DOPE   PO413970   5.970  27.105  12.900  0.1817  0.0508  0.0062
 1191DOPE   GL113971   5.910  27.412  13.068  0.1958  0.3295  0.2215
 1191DOPE   GL213972   5.619  27.411  13.136 -0.0556 -0.1662 -0.1338
 1191DOPE   C1A13973   6.131  27.553  13.446 -0.1382 -0.0571  0.1572
 1191DOPE   D2A13974   6.245  27.590  13.845  0.4400 -0.0711 -0.0831
 1191DOPE   C3A13975   5.962  27.608  14.184 -0.2493  0.0309  0.1913
 1191DOPE   C4A13976   5.764  27.871  14.545 -0.0007 -0.2400  0.1816
 1191DOPE   C1B13977   5.246  27.653  13.381  0.1413 -0.0765 -0.0526
 1191DOPE   D2B13978   5.080  27.926  13.697  0.0720 -0.3555 -0.4907
 1191DOPE   C3B13979   4.914  27.610  13.976 -0.0855  0.0495  0.0939
 1191DOPE   C4B13980   4.973  27.409  14.357  0.0951 -0.1673 -0.1591
 1192DOPS   CNO13981  11.494  28.091  12.203  0.0131  0.0360  0.0639
 1192DOPS   PO413982  11.635  27.970  12.532  0.0390 -0.0035  0.2576
 1192DOPS   GL113983  11.663  28.033  12.911 -0.0742  0.2413 -0.0623
 1192DOPS   GL213984  11.505  27.863  13.083 -0.2149  0.1077 -0.1363
 1192DOPS   C1A13985  11.333  28.384  12.973  0.2084 -0.0547 -0.2439
 1192DOPS   D2A13986  10.931  28.293  13.175 -0.0131  0.0748  0.2953
 1192DOPS   C3A13987  10.479  28.379  13.033  0.0498  0.4510  0.1929
 1192DOPS   C4A13988  10.056  28.472  13.023 -0.0846  0.4287 -0.2875
 1192DOPS   C1B13989  11.314  27.583  13.351 -0.1704  0.0981 -0.0798
 1192DOPS   D2B13990  11.034  27.198  13.298  0.2170 -0.0450  0.0083
 1192DOPS   C3B13991  10.622  27.223  13.392  0.1026 -0.2020  0.0377
 1192DOPS   C4B13992  10.199  27.507  13.429 -0.2023 -0.0120  0.0394
 1193DOPE   NH313993  12.353  33.819  12.482 -0.0784 -0.0395 -0.0116
 1193DOPE   PO413994  12.371  33.485  12.453 -0.0077  0.1204  0.1229
 1193DOPE   GL113995  12.291  33.521  12.855  0.1361  0.0662 -0.0085
 1193DOPE   GL213996  12.051  33.719  12.894  0.0507  0.1511  0.2399
 1193DOPE   C1A13997  12.573  33.562  13.190  0.0094  0.0325 -0.0620
 1193DOPE   D2A13998  12.801  33.759  13.491  0.4064  0.0013  0.0465
 1193DOPE   C3A13999  12.612  33.841  13.918  0.1614 -0.0166  0.2411
 1193DOPE   C4A14000  12.769  33.780  14.355  0.1883  0.1491 -0.2999
 1193DOPE   C1B14001  11.652  33.658  13.217 -0.2349 -0.3401  0.0438
 1193DOPE   D2B14002  11.579  33.501  13.637 -0.0277 -0.0865  0.0502
 1193DOPE   C3B14003  11.552  33.880  13.941 -0.1720 -0.0775  0.2719
 1193DOPE   C4B14004  11.512  34.112  14.307  0.0704 -0.3948 -0.2206
 1194DOPC   NC314005   1.859  27.752  12.802  0.0037  0.0713  0.1671
 1194DOPC   PO414006   1.956  27.827  12.412  0.0661 -0.1560 -0.0419
 1194DOPC   GL114007   1.657  28.069  12.523  0.3617 -0.2805  0.1051
 1194DOPC   GL214008   1.403  27.871  12.516 -0.1393  0.0963 -0.0303
 1194DOPC   C1A14009   1.273  28.348  12.567  0.2121 -0.3052  0.3008
 1194DOPC   D2A14010   1.215  28.845  12.556 -0.4118  0.2453  0.0921
 1194DOPC   C3A14011   0.762  29.018  12.744  0.0535  0.1202 -0.0130
 1194DOPC   C4A14012   0.314  29.165  12.743 -0.1985  0.1604  0.1709
 1194DOPC   C1B14013   0.944  27.956  12.325  0.1412 -0.0269  0.0516
 1194DOPC   D2B14014   0.651  28.298  12.433  0.1247  0.0106 -0.0072
 1194DOPC   C3B14015   0.551  28.519  12.837 -0.2690 -0.0332  0.0573
 1194DOPC   C4B14016   0.565  28.857  13.167 -0.1023 -0.0648  0.0762
 1195DOPC   NC314017   4.746  26.595  12.396  0.3800 -0.1736 -0.1341
 1195DOPC   PO414018   4.452  26.630  12.634  0.0016  0.1640  0.2008
 1195DOPC   GL114019   4.129  26.542  12.842 -0.0734 -0.0702 -0.2696
 1195DOPC   GL214020   4.216  26.285  12.971  0.0420 -0.0977  0.3700
 1195DOPC   C1A14021   3.766  26.487  13.115  0.3491 -0.1690  0.0765
 1195DOPC   D2A14022   3.654  26.267  13.532  0.2982 -0.0124  0.1628
 1195DOPC   C3A14023   3.790  25.950  13.805  0.1599  0.1436 -0.0589
 1195DOPC   C4A14024   4.055  25.747  14.111  0.1490  0.0443 -0.3297
 1195DOPC   C1B14025   4.202  26.195  13.462 -0.1403  0.0974  0.1284
 1195DOPC   D2B14026   4.334  26.275  13.928 -0.1802  0.1465 -0.1882
 1195DOPC   C3B14027   4.329  26.753  13.865  0.0177  0.0152  0.3099
 1195DOPC   C4B14028   4.146  27.077  13.561  0.3236  0.3553 -0.4214
 1196POSM   NC314029  11.648  28.661  12.034 -0.1015 -0.1416  0.4194
 1196POSM   PO414030  11.919  28.856  12.263  0.0176 -0.1248 -0.0864
 1196POSM   AM114031  11.610  28.914  12.430 -0.1221  0.0798  0.1995
 1196POSM   AM214032  11.529  28.950  12.728  0.1548  0.1683  0.0737
 1196POSM   T1A14033  11.141  29.087  12.312  0.2484 -0.0292  0.1454
 1196POSM   C2A14034  10.686  29.025  12.270  0.2461 -0.0715  0.1822
 1196POSM   C3A14035  10.255  28.925  12.271  0.0822  0.0576 -0.1525
 1196POSM   C1B14036  11.215  29.046  12.792  0.1951  0.4969 -0.1911
 1196POSM   D2B14037  10.944  29.414  12.873 -0.3697 -0.1147 -0.0753
 1196POSM   C3B14038  10.845  29.558  12.447  0.0187 -0.2054 -0.1346
 1196POSM   C4B14039  10.647  29.771  12.019 -0.0404  0.0216  0.1165
 1197POSM   NC314040   0.321  32.776  12.259  0.1967 -0.1946 -0.1169
 1197POSM   PO414041   0.267  33.164  12.416  0.1824  0.0143 -0.4660
 1197POSM   AM114042   0.317  32.956  12.664 -0.1711 -0.0912  0.1097
 1197POSM   AM214043   0.380  32.957  12.958 -0.1368 -0.0694 -0.1919
 1197POSM   T1A14044   0.508  32.499  12.774 -0.0775  0.1195 -0.2404
 1197POSM   C2A14045   0.485  32.057  12.828  0.1255 -0.0901  0.0271
 1197POSM   C3A14046   0.350  31.670  12.597 -0.0754  0.1620  0.3955
 1197POSM   C1B14047   0.550  32.803  13.273  0.0991 -0.0087 -0.0925
 1197POSM   D2B14048   0.840  32.966  13.649  0.2564  0.1599  0.0905
 1197POSM   C3B14049   1.280  32.866  13.846 -0.0124  0.0189 -0.1841
 1197POSM   C4B14050   1.592  33.138  14.035 -0.1362 -0.3500 -0.0453
 1198DOPS   CNO14051   7.512  26.936  12.241 -0.0128  0.0840  0.2861
 1198DOPS   PO414052   7.519  26.829  12.610 -0.2315  0.0343  0.1391
 1198DOPS   GL114053   7.613  26.760  12.945  0.2223  0.0415  0.0461
 1198DOPS   GL214054   7.794  26.511  12.855 -0.2459 -0.2219 -0.1641
 1198DOPS   C1A14055   7.840  26.703  13.346  0.2511  0.1660 -0.0090
 1198DOPS   D2A14056   7.790  26.502  13.779  0.2420 -0.0260  0.1084
 1198DOPS   C3A14057   8.248  26.649  13.911 -0.2181  0.1356  0.0786
 1198DOPS   C4A14058   8.544  26.457  14.207  0.1793  0.2766 -0.2270
 1198DOPS   C1B14059   7.827  26.050  13.057  0.0989 -0.1535 -0.0001
 1198DOPS   D2B14060   8.148  25.731  13.027  0.0679  0.0258  0.2930
 1198DOPS   C3B14061   8.562  25.866  13.266  0.1473  0.0324  0.0399
 1198DOPS   C4B14062   8.994  26.030  13.284  0.0218 -0.0743 -0.2947
 1199POSM   NC314063   2.737  22.562  12.547 -0.0212  0.1766 -0.1345
 1199POSM   PO414064   2.696  22.967  12.609 -0.3385 -0.0485  0.2800
 1199POSM   AM114065   2.543  23.010  12.888  0.1938  0.2882  0.3588
 1199POSM   AM214066   2.613  22.907  13.116 -0.1556 -0.1228  0.1211
 1199POSM   T1A14067   2.277  23.255  13.256 -0.4205 -0.2489  0.1240
 1199POSM   C2A14068   2.092  23.334  13.617  0.1131 -0.1422  0.2316
 1199POSM   C3A14069   1.817  23.187  13.981  0.2100 -0.1096 -0.1119
 1199POSM   C1B14070   2.417  22.780  13.296 -0.2809  0.1111  0.1040
 1199POSM   D2B14071   2.122  22.805  13.653  0.0891  0.2689 -0.2109
 1199POSM   C3B14072   2.107  22.755  14.144 -0.0962  0.0133  0.2104
 1199POSM   C4B14073   2.016  22.979  14.523 -0.0959  0.2771  0.2050
 1200DOPE   NH314074   5.703  32.370  12.441  0.3044  0.1219  0.0191
 1200DOPE   PO414075   5.794  32.538  12.737  0.0053 -0.0502  0.0154
 1200DOPE   GL114076   5.502  32.509  12.960 -0.0380 -0.0401  0.0741
 1200DOPE   GL214077   5.402  32.292  12.884  0.1109  0.0810 -0.0523
 1200DOPE   C1A14078   5.137  32.593  13.257  0.0802 -0.0415  0.1470
 1200DOPE   D2A14079   4.783  32.437  13.460  0.1534 -0.0179  0.2290
 1200DOPE   C3A14080   4.902  31.998  13.621 -0.0255 -0.1104 -0.0849
 1200DOPE   C4A14081   5.063  31.643  13.551 -0.1508  0.2747  0.2263
 1200DOPE   C1B14082   5.018  32.192  12.692 -0.1120 -0.2886 -0.0874
 1200DOPE   D2B14083   4.589  32.385  12.822  0.0919  0.3220  0.0995
 1200DOPE   C3B14084   4.464  32.131  13.216 -0.5883 -0.3630 -0.0257
 1200DOPE   C4B14085   4.167  31.852  13.340 -0.1709 -0.1763 -0.1720
 1201DOPE   NH314086   2.735  23.993  12.366 -0.0523 -0.0121  0.3717
 1201DOPE   PO414087   2.642  24.277  12.510 -0.1710 -0.4370  0.0934
 1201DOPE   GL114088   2.535  24.591  12.686  0.0564  0.3335 -0.1668
 1201DOPE   GL214089   2.291  24.705  12.490 -0.4008  0.1325  0.0721
 1201DOPE   C1A14090   2.700  24.825  13.063  0.2643  0.2010  0.1160
 1201DOPE   D2A14091   2.475  25.177  13.229  0.1100  0.1335 -0.2961
 1201DOPE   C3A14092   2.403  25.613  13.212  0.0788 -0.2249  0.1031
 1201DOPE   C4A14093   2.284  26.025  13.344  0.1500 -0.2053  0.3195
 1201DOPE   C1B14094   2.208  24.809  12.920 -0.0335 -0.1164 -0.0435
 1201DOPE   D2B14095   2.064  24.782  13.443 -0.1543  0.0248 -0.0734
 1201DOPE   C3B14096   1.671  24.632  13.621 -0.1552 -0.3226  0.1718
 1201DOPE   C4B14097   1.357  24.463  13.971 -0.5625  0.0452  0.0756
 1202DOPE   NH314098   2.564  23.429  12.769 -0.0374  0.4612  0.0396
 1202DOPE   PO414099   2.662  23.684  12.822 -0.0956  0.0628 -0.1850
 1202DOPE   GL114100   2.856  24.029  13.084 -0.2091  0.1238  0.2873
 1202DOPE   GL214101   2.685  24.211  13.008  0.0894  0.0630  0.0858
 1202DOPE   C1A14102   3.085  24.329  13.240 -0.2136 -0.4042  0.0357
 1202DOPE   D2A14103   3.103  24.730  13.472 -0.0572  0.1955  0.1086
 1202DOPE   C3A14104   2.844  24.748  13.864  0.0946  0.0593 -0.0370
 1202DOPE   C4A14105   2.732  24.977  14.253 -0.0743  0.0718  0.0742
 1202DOPE   C1B14106   2.458  24.437  13.331 -0.0497  0.3320 -0.3400
 1202DOPE   D2B14107   2.396  24.468  13.790 -0.2196 -0.3649 -0.0417
 1202DOPE   C3B14108   2.297  24.701  14.178  0.2642 -0.2712 -0.3827
 1202DOPE   C4B14109   2.265  24.917  14.555 -0.0246  0.1255  0.1409
 1203DOPS   CNO14110   5.864  25.948  12.248  0.0741  0.2277  0.1539
 1203DOPS   PO414111   5.598  25.647  12.237 -0.2362 -0.0444 -0.0578
 1203DOPS   GL114112   5.496  25.351  12.510  0.0805  0.1246  0.0245
 1203DOPS   GL214113   5.624  25.111  12.664 -0.2094  0.1421  0.2811
 1203DOPS   C1A14114   5.124  25.098  12.642  0.0100 -0.0079  0.0754
 1203DOPS   D2A14115   4.914  24.711  12.598 -0.0446 -0.1794 -0.2787
 1203DOPS   C3A14116   4.863  24.374  12.884  0.0249 -0.2029 -0.1789
 1203DOPS   C4A14117   4.681  24.298  13.287 -0.2580 -0.1188 -0.0496
 1203DOPS   C1B14118   5.416  24.740  12.459 -0.1372 -0.2158  0.2697
 1203DOPS   D2B14119   5.266  24.327  12.500  0.0210  0.1879 -0.1287
 1203DOPS   C3B14120   5.347  24.275  12.943  0.2222  0.2158  0.0641
 1203DOPS   C4B14121   5.319  24.381  13.394 -0.0826 -0.0111 -0.0802
 1204POSM   NC314122   7.223  25.940  12.701 -0.1226 -0.2500 -0.0537
 1204POSM   PO414123   7.356  26.299  12.543  0.0842  0.0626 -0.0520
 1204POSM   AM114124   7.309  26.412  12.813  0.0789 -0.2143 -0.0084
 1204POSM   AM214125   7.173  26.635  12.898  0.4363  0.1564  0.3456
 1204POSM   T1A14126   7.464  26.406  13.334  0.1781  0.1453 -0.1492
 1204POSM   C2A14127   7.267  26.378  13.754 -0.0093 -0.0854  0.0623
 1204POSM   C3A14128   7.158  26.002  13.928 -0.2598  0.0315 -0.0373
 1204POSM   C1B14129   7.040  26.764  13.200 -0.1496 -0.3962 -0.1536
 1204POSM   D2B14130   6.879  26.812  13.638 -0.1081 -0.2474 -0.1813
 1204POSM   C3B14131   6.609  27.093  13.886  0.0854  0.0345  0.1905
 1204POSM   C4B14132   6.365  27.195  14.256 -0.0954 -0.0144  0.0649
 1205POSM   NC314133   9.305  29.713  12.895 -0.1438  0.2102  0.0469
 1205POSM   PO414134   9.151  29.615  12.553 -0.0472 -0.4018  0.1185
 1205POSM   AM114135   9.418  29.409  12.521 -0.2017  0.0756  0.0178
 1205POSM   AM214136   9.696  29.416  12.637  0.3273  0.2174  0.2662
 1205POSM   T1A14137   9.665  29.059  12.263  0.1631  0.0227  0.0169
 1205POSM   C2A14138   9.657  28.709  11.968  0.1668  0.0241 -0.0544
 1205POSM   C3A14139   9.820  28.275  11.736 -0.2169  0.2501  0.1355
 1205POSM   C1B14140   9.870  29.557  12.828 -0.0530  0.0776 -0.2162
 1205POSM   D2B14141   9.983  29.425  13.245 -0.0637 -0.0141  0.3857
 1205POSM   C3B14142  10.147  29.053  13.463  0.2667  0.0979  0.0441
 1205POSM   C4B14143  10.308  28.603  13.559  0.1535 -0.5567 -0.0509
 1206DOPE   NH314144   7.802  26.488  12.304  0.4363  0.0628 -0.0775
 1206DOPE   PO414145   8.020  26.692  12.209 -0.2609 -0.1932  0.0757
 1206DOPE   GL114146   8.112  26.810  12.637 -0.1115 -0.1180  0.0774
 1206DOPE   GL214147   8.305  26.902  12.529  0.0648  0.0075  0.0834
 1206DOPE   C1A14148   8.338  26.765  13.077  0.2007 -0.1315  0.3677
 1206DOPE   D2A14149   8.435  27.043  13.429 -0.1085  0.1773  0.3530
 1206DOPE   C3A14150   8.420  27.141  13.877  0.2694 -0.2650 -0.1218
 1206DOPE   C4A14151   8.398  27.048  14.301 -0.4413  0.1021 -0.0351
 1206DOPE   C1B14152   8.682  27.069  12.777 -0.0154 -0.0623 -0.0116
 1206DOPE   D2B14153   8.939  27.006  13.160  0.2165 -0.1322  0.0205
 1206DOPE   C3B14154   8.862  26.891  13.637 -0.0465 -0.3911 -0.0446
 1206DOPE   C4B14155   8.986  26.586  13.961  0.0907 -0.0657 -0.4099
 1207DOPS   CNO14156   1.049  34.699  12.635 -0.1216  0.1202  0.0235
 1207DOPS   PO414157   1.113  34.510  12.950  0.0952  0.0158  0.0364
 1207DOPS   GL114158   1.219  34.376  13.276 -0.3151  0.0658 -0.1528
 1207DOPS   GL214159   1.430  34.312  13.307 -0.2341 -0.0206 -0.3001
 1207DOPS   C1A14160   1.180  34.351  13.756  0.3446  0.1212  0.1792
 1207DOPS   D2A14161   1.233  34.252  14.173  0.1983  0.2690 -0.4373
 1207DOPS   C3A14162   0.969  34.451  14.490  0.2690  0.1075 -0.1009
 1207DOPS   C4A14163   1.091  34.654  14.835  0.0803 -0.3290  0.0476
 1207DOPS   C1B14164   1.329  33.914  13.545 -0.2762 -0.0316 -0.2049
 1207DOPS   D2B14165   1.046  33.873  13.933  0.1707 -0.1203 -0.0186
 1207DOPS   C3B14166   0.694  34.212  14.056  0.0325  0.2624  0.1784
 1207DOPS   C4B14167   0.417  34.472  14.338 -0.0079 -0.1451  0.1042
 1208DOPE   NH314168   6.062  31.549  12.617  0.1564  0.1623 -0.0013
 1208DOPE   PO414169   6.226  31.386  12.370 -0.2025 -0.0919 -0.0258
 1208DOPE   GL114170   6.377  31.151  12.773  0.1157 -0.2362  0.2322
 1208DOPE   GL214171   6.106  31.043  12.723  0.0217  0.2294 -0.1264
 1208DOPE   C1A14172   6.664  31.290  13.140 -0.3730  0.0256 -0.0295
 1208DOPE   D2A14173   7.122  31.332  13.306  0.0678  0.1275 -0.0415
 1208DOPE   C3A14174   7.238  31.780  13.287  0.1763 -0.1915 -0.0109
 1208DOPE   C4A14175   7.217  32.179  13.069 -0.1831 -0.3777 -0.2643
 1208DOPE   C1B14176   6.114  31.285  13.109 -0.2989 -0.2338  0.1752
 1208DOPE   D2B14177   6.328  31.541  13.466 -0.2874  0.1358  0.0170
 1208DOPE   C3B14178   6.424  31.104  13.592 -0.3104  0.1966 -0.0406
 1208DOPE   C4B14179   6.163  30.772  13.742  0.3672  0.0727 -0.0027
 1209POSM   NC314180   0.091  25.261  12.111  0.2486  0.0989 -0.0559
 1209POSM   PO414181   0.094  25.603  12.357  0.0246  0.1889  0.1012
 1209POSM   AM114182   0.210  25.379  12.565  0.2371 -0.3138 -0.1391
 1209POSM   AM214183   0.176  25.347  12.891  0.0227  0.1015 -0.1557
 1209POSM   T1A14184   0.385  24.956  12.567 -0.0113 -0.1592  0.2569
 1209POSM   C2A14185   0.652  24.645  12.701  0.0874  0.0975  0.1516
 1209POSM   C3A14186   0.734  24.206  12.784  0.0767  0.2850  0.1060
 1209POSM   C1B14187   0.113  25.052  12.944 -0.0933 -0.0056 -0.2531
 1209POSM   D2B14188  -0.255  24.803  13.099  0.0527 -0.2737 -0.2714
 1209POSM   C3B14189  -0.429  24.671  13.541  0.0710 -0.2808  0.3784
 1209POSM   C4B14190  -0.564  24.777  13.948  0.3376  0.2333  0.0250
 1210POSM   NC314191   0.245  34.483  13.033  0.2416  0.0610  0.2610
 1210POSM   PO414192   0.550  34.396  12.777 -0.1416  0.3204 -0.1221
 1210POSM   AM114193   0.652  34.375  13.140 -0.1445  0.1080 -0.0911
 1210POSM   AM214194   0.687  34.507  13.395 -0.0437 -0.0555  0.1476
 1210POSM   T1A14195   0.824  34.068  13.484  0.2450 -0.1952  0.1319
 1210POSM   C2A14196   0.938  33.608  13.454  0.2725 -0.0823 -0.1799
 1210POSM   C3A14197   1.303  33.296  13.552 -0.0528  0.1211  0.0064
 1210POSM   C1B14198   0.895  34.687  13.574 -0.2216  0.0229 -0.1923
 1210POSM   D2B14199   1.005  35.045  13.799  0.2694  0.2506  0.4692
 1210POSM   C3B14200   0.930  35.285  14.190  0.0809 -0.1542 -0.1679
 1210POSM   C4B14201   0.568  35.643  14.223 -0.1918 -0.1384  0.3957
 1211DOPC   NC314202   3.561  30.995  12.310  0.1770  0.1529  0.0397
 1211DOPC   PO414203   3.936  31.076  12.276 -0.1732  0.1313 -0.0355
 1211DOPC   GL114204   3.927  31.395  12.599  0.2679  0.1813  0.2758
 1211DOPC   GL214205   4.211  31.438  12.539 -0.0820 -0.0954  0.3467
 1211DOPC   C1A14206   3.843  31.620  12.994  0.0549 -0.2608  0.1139
 1211DOPC   D2A14207   3.588  31.608  13.426  0.0062 -0.2721 -0.1053
 1211DOPC   C3A14208   3.777  31.940  13.695 -0.0263  0.2870  0.3274
 1211DOPC   C4A14209   3.740  32.064  14.137  0.0056 -0.2287 -0.1165
 1211DOPC   C1B14210   4.296  31.485  12.974 -0.1650  0.1577 -0.1995
 1211DOPC   D2B14211   4.658  31.509  13.310  0.2084  0.2414 -0.1916
 1211DOPC   C3B14212   4.541  31.550  13.732 -0.0538  0.2571 -0.1532
 1211DOPC   C4B14213   4.242  31.899  13.859  0.2375 -0.0810 -0.1376
 1212POSM   NC314214   1.052  30.434  13.362  0.0798 -0.1603 -0.1330
 1212POSM   PO414215   0.709  30.344  13.197 -0.0458 -0.4641  0.2644
 1212POSM   AM114216   0.527  30.414  13.472  0.0377 -0.2224 -0.1514
 1212POSM   AM214217   0.314  30.578  13.598 -0.0867 -0.1250  0.2294
 1212POSM   T1A14218   0.403  30.208  13.893  0.0993 -0.0591  0.2389
 1212POSM   C2A14219   0.615  29.872  14.174  0.0284 -0.0508  0.0395
 1212POSM   C3A14220   0.895  29.542  14.350  0.1157  0.0643  0.0419
 1212POSM   C1B14221   0.227  30.756  13.832  0.0795  0.1259  0.0053
 1212POSM   D2B14222  -0.075  30.844  14.154  0.3732 -0.1887 -0.0684
 1212POSM   C3B14223  -0.406  30.517  14.151 -0.0622 -0.0161  0.0062
 1212POSM   C4B14224  -0.464  30.069  14.173 -0.3038 -0.0276 -0.0049
 1213DOPE   NH314225   4.770  26.296  12.877 -0.0295  0.1680  0.1581
 1213DOPE   PO414226   4.882  26.140  12.631 -0.0142 -0.3330  0.1242
 1213DOPE   GL114227   4.965  25.923  12.970  0.1995  0.5894 -0.3562
 1213DOPE   GL214228   5.159  25.763  12.863  0.1991  0.3443 -0.1410
 1213DOPE   C1A14229   4.724  25.968  13.359 -0.0508  0.2863 -0.1556
 1213DOPE   D2A14230   4.420  25.843  13.668 -0.2096  0.1628 -0.0968
 1213DOPE   C3A14231   4.516  25.557  14.058  0.0923  0.1031  0.1889
 1213DOPE   C4A14232   4.475  25.218  14.376  0.3199  0.3216 -0.1411
 1213DOPE   C1B14233   5.229  25.654  13.296 -0.1952  0.0379  0.0143
 1213DOPE   D2B14234   4.964  25.627  13.668  0.0097  0.3434  0.3508
 1213DOPE   C3B14235   5.316  25.760  13.901 -0.2722 -0.1531 -0.0215
 1213DOPE   C4B14236   5.686  25.801  14.195 -0.1993  0.0736 -0.0314
 1214DOPS   CNO14237   2.181  28.996  12.491 -0.2650 -0.0877 -0.1458
 1214DOPS   PO414238   2.411  28.931  12.817  0.1453  0.0409  0.3344
 1214DOPS   GL114239   2.551  28.772  13.135  0.1338  0.0965 -0.2705
 1214DOPS   GL214240   2.826  28.924  13.202 -0.0085 -0.0218 -0.0989
 1214DOPS   C1A14241   2.605  28.426  13.379 -0.1868  0.0870 -0.2422
 1214DOPS   D2A14242   2.483  28.060  13.601  0.0452 -0.2931  0.1021
 1214DOPS   C3A14243   2.101  27.968  13.883  0.2338  0.0645  0.0694
 1214DOPS   C4A14244   1.829  28.221  14.139  0.2528  0.1883 -0.0939
 1214DOPS   C1B14245   2.677  29.289  13.489 -0.1619  0.0021 -0.0242
 1214DOPS   D2B14246   2.650  29.305  14.010  0.0640 -0.2533 -0.0136
 1214DOPS   C3B14247   2.476  28.880  14.141  0.4002  0.0697 -0.3199
 1214DOPS   C4B14248   2.500  28.591  14.551  0.3812 -0.1106 -0.0612
 1215DOPC   NC314249   2.158  29.936  12.890 -0.0745  0.1881 -0.0765
 1215DOPC   PO414250   1.970  30.178  12.681 -0.0278 -0.1221 -0.2783
 1215DOPC   GL114251   2.200  30.456  12.772  0.0265  0.1315  0.1930
 1215DOPC   GL214252   2.110  30.545  13.031 -0.1734 -0.0905  0.1878
 1215DOPC   C1A14253   2.616  30.363  12.981  0.2132 -0.1020 -0.2660
 1215DOPC   D2A14254   3.031  30.514  13.008  0.0929  0.2804 -0.2559
 1215DOPC   C3A14255   3.085  30.650  13.440  0.1104 -0.0178 -0.0519
 1215DOPC   C4A14256   3.273  30.613  13.832 -0.0539  0.2158 -0.1273
 1215DOPC   C1B14257   2.153  30.751  13.422  0.0654 -0.0244  0.3740
 1215DOPC   D2B14258   2.216  31.014  13.828  0.2459  0.1303  0.1396
 1215DOPC   C3B14259   2.224  30.891  14.221 -0.0154  0.0974  0.1723
 1215DOPC   C4B14260   2.239  30.784  14.640  0.0125 -0.0106  0.0117
 1216DOPC   NC314261   7.914  33.640  12.270 -0.1086 -0.1981  0.0509
 1216DOPC   PO414262   7.940  33.476  11.884  0.1023  0.1374  0.1719
 1216DOPC   GL114263   8.150  33.240  12.138  0.1184 -0.0102  0.0758
 1216DOPC   GL214264   8.411  33.044  12.068 -0.1012  0.3672  0.0785
 1216DOPC   C1A14265   8.009  32.820  12.250  0.1849  0.0652  0.2245
 1216DOPC   D2A14266   8.093  32.518  12.533  0.0079  0.0564 -0.0671
 1216DOPC   C3A14267   8.468  32.243  12.720  0.0596 -0.1926  0.0418
 1216DOPC   C4A14268   8.707  32.350  13.114 -0.2642  0.0679  0.0194
 1216DOPC   C1B14269   8.623  32.637  12.036 -0.0472 -0.1431 -0.0207
 1216DOPC   D2B14270   8.942  32.253  12.103  0.4164 -0.0033 -0.2304
 1216DOPC   C3B14271   9.005  32.078  12.542 -0.0115 -0.0482  0.5502
 1216DOPC   C4B14272   8.807  31.891  12.932  0.0022 -0.1784  0.1025
 1217DOPC   NC314273   2.429  28.494  12.399  0.1189 -0.3678 -0.0207
 1217DOPC   PO414274   2.583  28.359  12.791 -0.3591 -0.2340 -0.1961
 1217DOPC   GL114275   2.324  28.173  13.105 -0.4496 -0.0240  0.1351
 1217DOPC   GL214276   2.374  27.927  12.983  0.0791 -0.1626 -0.0443
 1217DOPC   C1A14277   2.005  28.275  13.400 -0.3427 -0.2644 -0.4225
 1217DOPC   D2A14278   2.107  28.520  13.752  0.0410 -0.0902 -0.2331
 1217DOPC   C3A14279   2.429  28.313  14.030 -0.0269 -0.1193  0.0725
 1217DOPC   C4A14280   2.871  28.160  14.136 -0.0365 -0.0196 -0.1824
 1217DOPC   C1B14281   2.162  27.762  13.328  0.1268  0.1073  0.0553
 1217DOPC   D2B14282   1.757  27.803  13.580 -0.2654  0.0990 -0.0245
 1217DOPC   C3B14283   1.595  28.253  13.646  0.0071  0.1605 -0.0816
 1217DOPC   C4B14284   1.609  28.636  13.841  0.2040  0.1099  0.0282
 1218DOPS   CNO14285   5.783  31.756  12.283  0.2659 -0.2098  0.3036
 1218DOPS   PO414286   5.630  31.886  12.590  0.1634  0.2029  0.3559
 1218DOPS   GL114287   5.820  31.868  12.894  0.0282  0.1169  0.1641
 1218DOPS   GL214288   5.853  32.120  13.011 -0.0354 -0.0184 -0.0276
 1218DOPS   C1A14289   5.853  31.720  13.344  0.0012 -0.2678  0.1853
 1218DOPS   D2A14290   5.936  31.970  13.744  0.1545  0.1779 -0.1002
 1218DOPS   C3A14291   6.125  32.047  14.158  0.0241 -0.0836 -0.0483
 1218DOPS   C4A14292   6.587  31.964  14.259  0.1768  0.2330 -0.2001
 1218DOPS   C1B14293   5.621  32.334  13.329  0.0514  0.0658 -0.0899
 1218DOPS   D2B14294   5.456  32.153  13.667 -0.1248  0.0468 -0.0828
 1218DOPS   C3B14295   5.495  32.363  14.054 -0.1839  0.1248  0.4648
 1218DOPS   C4B14296   5.331  32.536  14.447  0.0975 -0.1396 -0.2509
 1219POSM   NC314297   2.259  22.792  12.227 -0.3890 -0.1581 -0.1218
 1219POSM   PO414298   2.193  23.103  12.485 -0.2936 -0.0021 -0.2593
 1219POSM   AM114299   2.057  23.026  12.806  0.1452 -0.0858  0.0749
 1219POSM   AM214300   1.875  23.142  12.991  0.0933  0.2379  0.3396
 1219POSM   T1A14301   1.984  22.705  13.186 -0.0136 -0.1363  0.2697
 1219POSM   C2A14302   2.249  22.301  13.345 -0.0376 -0.0647  0.1014
 1219POSM   C3A14303   2.443  22.292  13.764  0.0485 -0.1517  0.0840
 1219POSM   C1B14304   1.691  23.084  13.308  0.0916  0.0286 -0.0698
 1219POSM   D2B14305   1.310  23.143  13.529  0.2112  0.0313  0.1779
 1219POSM   C3B14306   1.096  23.608  13.520 -0.0514  0.4158 -0.4868
 1219POSM   C4B14307   1.068  23.981  13.795  0.0063  0.2518 -0.1035
 1220POSM   NC314308   5.698  33.192  12.521 -0.0820  0.2645 -0.0765
 1220POSM   PO414309   5.469  32.860  12.474  0.2389  0.1711  0.3930
 1220POSM   AM114310   5.488  32.927  12.788 -0.3044 -0.1840 -0.3620
 1220POSM   AM214311   5.367  33.095  12.941 -0.2404 -0.1150 -0.1705
 1220POSM   T1A14312   5.599  32.812  13.251 -0.1305 -0.0022 -0.2959
 1220POSM   C2A14313   5.562  32.720  13.686 -0.2470 -0.0182  0.2006
 1220POSM   C3A14314   5.376  32.916  14.086 -0.0893  0.2974 -0.0988
 1220POSM   C1B14315   5.497  33.331  13.221  0.1466  0.0767  0.1198
 1220POSM   D2B14316   5.725  33.662  13.442  0.2681  0.1196  0.1257
 1220POSM   C3B14317   6.162  33.907  13.506  0.0879  0.0033  0.1728
 1220POSM   C4B14318   6.301  34.266  13.715 -0.0576  0.2286  0.0403
 1221DOPE   NH314319  34.519  30.099  12.941  0.0563 -0.3066 -0.2542
 1221DOPE   PO414320  34.462  29.879  13.199 -0.1232  0.2542  0.2101
 1221DOPE   GL114321  34.577  29.552  13.386  0.0766 -0.0693 -0.1777
 1221DOPE   GL214322  34.769  29.550  13.637  0.2416 -0.1242 -0.2021
 1221DOPE   C1A14323  34.516  29.109  13.533 -0.1323 -0.0442  0.0437
 1221DOPE   D2A14324  34.690  28.664  13.429  0.2157  0.0698 -0.1219
 1221DOPE   C3A14325  34.339  28.536  13.665  0.1154 -0.0949  0.0478
 1221DOPE   C4A14326  34.451  28.140  13.835  0.1297  0.0650  0.0906
 1221DOPE   C1B14327  34.333  29.509  13.779  0.1824 -0.0454 -0.1552
 1221DOPE   D2B14328  33.921  29.759  13.773  0.0186 -0.1985  0.1651
 1221DOPE   C3B14329  33.687  29.991  14.121  0.0305  0.4677 -0.2467
 1221DOPE   C4B14330  33.328  30.061  14.423  0.0661  0.0695  0.1801
 1222DOPC   NC314331   6.566  22.756  12.755 -0.0240 -0.0794 -0.2198
 1222DOPC   PO414332   6.294  22.870  12.469 -0.3746 -0.2412 -0.2892
 1222DOPC   GL114333   5.935  22.728  12.686  0.0498 -0.2753  0.0425
 1222DOPC   GL214334   6.099  22.473  12.804 -0.0387 -0.0789  0.1048
 1222DOPC   C1A14335   5.691  22.838  13.061 -0.1308 -0.2274  0.1718
 1222DOPC   D2A14336   5.291  22.832  13.306 -0.0005 -0.0711  0.1351
 1222DOPC   C3A14337   4.969  22.528  13.405  0.4311  0.1460  0.0116
 1222DOPC   C4A14338   4.849  22.238  13.710  0.1311  0.2469  0.4064
 1222DOPC   C1B14339   5.685  22.384  12.744 -0.1180 -0.1037  0.2137
 1222DOPC   D2B14340   5.279  22.571  12.787 -0.0583 -0.0527 -0.1149
 1222DOPC   C3B14341   4.945  22.219  12.933  0.0282  0.0186  0.1240
 1222DOPC   C4B14342   4.447  22.203  12.900  0.0138 -0.0952  0.4088
 1223POSM   NC314343  10.604  27.027  12.190  0.0294 -0.0418 -0.2852
 1223POSM   PO414344  10.490  26.710  12.395 -0.1316  0.0713  0.1976
 1223POSM   AM114345  10.473  26.640  12.699 -0.6280  0.0518  0.2960
 1223POSM   AM214346  10.539  26.689  12.978  0.0033 -0.4057 -0.4640
 1223POSM   T1A14347  10.147  26.394  12.981  0.0413 -0.3076  0.2168
 1223POSM   C2A14348   9.886  26.640  13.258  0.1170  0.0242  0.0318
 1223POSM   C3A14349   9.684  26.566  13.719  0.0420 -0.1575  0.1558
 1223POSM   C1B14350  10.379  26.837  13.178  0.1021 -0.1498  0.1068
 1223POSM   D2B14351  10.197  27.003  13.565  0.0625  0.0453  0.1135
 1223POSM   C3B14352  10.483  27.108  13.889  0.0027 -0.4333  0.1732
 1223POSM   C4B14353  11.014  27.114  13.800 -0.1548  0.0574  0.1038
 1224POSM   NC314354   5.743  30.914  12.420 -0.0546 -0.0924  0.2618
 1224POSM   PO414355   5.369  30.755  12.464  0.3459  0.0169  0.1144
 1224POSM   AM114356   5.218  30.456  12.485 -0.1808 -0.1208  0.1027
 1224POSM   AM214357   4.939  30.403  12.610 -0.0325  0.1160  0.0186
 1224POSM   T1A14358   5.303  29.997  12.631  0.2495  0.0156 -0.0778
 1224POSM   C2A14359   5.601  29.678  12.588  0.1135  0.2294 -0.0528
 1224POSM   C3A14360   5.653  29.213  12.606 -0.0371  0.0537 -0.2590
 1224POSM   C1B14361   5.133  30.379  12.934 -0.2054  0.1444 -0.1415
 1224POSM   D2B14362   5.511  30.419  13.164 -0.1056  0.4409 -0.4317
 1224POSM   C3B14363   5.555  30.506  13.582 -0.0464  0.0363  0.1568
 1224POSM   C4B14364   5.511  30.636  14.015 -0.1530  0.1901 -0.0352
 1225DOPC   NC314365  13.516   8.600  15.732 -0.1855 -0.0099  0.0414
 1225DOPC   PO414366  13.850   8.423  15.737 -0.0451 -0.0291 -0.2618
 1225DOPC   GL114367  14.019   8.709  15.537  0.1213 -0.0196 -0.5946
 1225DOPC   GL214368  14.197   8.883  15.660  0.1095  0.2417 -0.2218
 1225DOPC   C1A14369  14.058   8.730  15.055  0.0125  0.6209  0.1279
 1225DOPC   D2A14370  14.079   8.874  14.635 -0.0826  0.1013  0.2395
 1225DOPC   C3A14371  13.911   8.806  14.213 -0.1193  0.3707  0.0172
 1225DOPC   C4A14372  13.659   8.806  13.803 -0.1218  0.2798 -0.2498
 1225DOPC   C1B14373  14.135   9.143  15.311  0.2422  0.3984  0.0295
 1225DOPC   D2B14374  13.983   9.266  14.909 -0.3262  0.1803  0.1313
 1225DOPC   C3B14375  13.636   8.955  14.727 -0.0355 -0.1195 -0.0415
 1225DOPC   C4B14376  13.514   8.476  14.699  0.1646  0.0548 -0.1677
 1226DOPC   NC314377  21.400   3.517  15.715 -0.1091 -0.2268  0.1422
 1226DOPC   PO414378  21.277   3.305  15.994  0.2396 -0.4464  0.1656
 1226DOPC   GL114379  21.303   3.055  15.582 -0.0978  0.4378 -0.0087
 1226DOPC   GL214380  21.418   2.818  15.421  0.3370 -0.2047  0.2306
 1226DOPC   C1A14381  21.010   3.150  15.220 -0.0612 -0.0539 -0.1465
 1226DOPC   D2A14382  20.874   3.035  14.748  0.0108 -0.2944  0.0531
 1226DOPC   C3A14383  20.852   2.991  14.253  0.1099  0.2848 -0.2021
 1226DOPC   C4A14384  20.945   3.227  13.875  0.1693 -0.0220  0.1204
 1226DOPC   C1B14385  21.429   3.020  15.015 -0.0950 -0.3000  0.2036
 1226DOPC   D2B14386  21.283   3.372  14.701 -0.0369  0.0760  0.1389
 1226DOPC   C3B14387  21.353   3.138  14.270  0.0851  0.1767  0.0790
 1226DOPC   C4B14388  21.378   2.993  13.861 -0.1501 -0.0623  0.0484
 1227DOPE   NH314389  21.310   9.253  15.132 -0.0316 -0.1470  0.2462
 1227DOPE   PO414390  21.041   9.463  15.178 -0.0460  0.0382  0.0330
 1227DOPE   GL114391  21.042   9.296  14.771  0.1381 -0.0920 -0.1635
 1227DOPE   GL214392  20.753   9.209  14.720  0.0376 -0.2405 -0.1766
 1227DOPE   C1A14393  21.352   9.156  14.479  0.1372  0.1202  0.0593
 1227DOPE   D2A14394  21.724   8.947  14.414 -0.0535 -0.1146  0.0871
 1227DOPE   C3A14395  21.844   8.904  13.963 -0.1457 -0.4262  0.2923
 1227DOPE   C4A14396  21.605   8.929  13.558 -0.3035 -0.1567 -0.1392
 1227DOPE   C1B14397  20.906   9.234  14.279 -0.2913 -0.1650  0.1024
 1227DOPE   D2B14398  20.905   9.413  13.828 -0.2081  0.0670 -0.0619
 1227DOPE   C3B14399  20.732   9.779  13.567 -0.0151 -0.2418  0.1626
 1227DOPE   C4B14400  20.666  10.168  13.363 -0.2950 -0.0081 -0.0332
 1228DOPE   NH314401  12.650   9.276  15.888  0.1104  0.1009  0.0217
 1228DOPE   PO414402  12.984   9.220  15.931  0.2155 -0.0805 -0.2923
 1228DOPE   GL114403  13.082   9.230  15.522  0.0641 -0.2096  0.2438
 1228DOPE   GL214404  13.156   8.920  15.480 -0.1297  0.1218 -0.3442
 1228DOPE   C1A14405  13.203   9.611  15.269 -0.0830  0.1003  0.1436
 1228DOPE   D2A14406  13.118   9.721  14.814  0.2309  0.2014  0.1593
 1228DOPE   C3A14407  13.361   9.897  14.496 -0.3557  0.4062 -0.0698
 1228DOPE   C4A14408  13.778   9.955  14.293 -0.0584  0.0280 -0.2072
 1228DOPE   C1B14409  13.132   9.075  15.010 -0.0654 -0.0797  0.3377
 1228DOPE   D2B14410  12.825   9.242  14.725 -0.3273  0.3104 -0.0516
 1228DOPE   C3B14411  13.062   9.481  14.381 -0.1766  0.0553 -0.1478
 1228DOPE   C4B14412  13.409   9.623  14.094  0.2050 -0.4617 -0.4760
 1229DOPC   NC314413  21.137  11.046  15.628 -0.4423  0.1754 -0.1683
 1229DOPC   PO414414  20.986  11.417  15.647  0.3386  0.0909 -0.1255
 1229DOPC   GL114415  21.100  11.470  15.194 -0.1823  0.0131 -0.1493
 1229DOPC   GL214416  20.833  11.424  15.120 -0.0977 -0.1879 -0.2984
 1229DOPC   C1A14417  21.021  11.702  14.752  0.3571  0.1853 -0.0850
 1229DOPC   D2A14418  21.172  11.672  14.329 -0.2766  0.0887 -0.0561
 1229DOPC   C3A14419  21.102  11.600  13.892  0.1192  0.1088  0.0504
 1229DOPC   C4A14420  20.940  11.248  13.547 -0.2092 -0.3673 -0.0159
 1229DOPC   C1B14421  20.718  11.321  14.651  0.1793 -0.1165 -0.0701
 1229DOPC   D2B14422  20.461  11.052  14.444  0.1586 -0.0110  0.1600
 1229DOPC   C3B14423  20.336  11.247  14.030 -0.3960 -0.1872 -0.0614
 1229DOPC   C4B14424  20.420  11.511  13.711 -0.1534 -0.3713  0.1674
 1230DOPC   NC314425  22.108   9.990  15.341 -0.1433 -0.1146 -0.0180
 1230DOPC   PO414426  22.308   9.752  15.567  0.2183  0.2137  0.1463
 1230DOPC   GL114427  22.454   9.658  15.193  0.1824  0.2853 -0.1392
 1230DOPC   GL214428  22.208   9.503  15.156 -0.0353 -0.0749  0.1772
 1230DOPC   C1A14429  22.510   9.342  14.802 -0.1810  0.0348  0.0513
 1230DOPC   D2A14430  22.524   9.206  14.366 -0.0721  0.0948  0.0162
 1230DOPC   C3A14431  22.611   9.556  14.025  0.1653  0.0084 -0.0864
 1230DOPC   C4A14432  22.476   9.951  13.824  0.0592  0.0603  0.4098
 1230DOPC   C1B14433  22.279   9.801  14.831  0.3146 -0.0308  0.1065
 1230DOPC   D2B14434  22.316   9.733  14.361 -0.1390  0.0716 -0.3710
 1230DOPC   C3B14435  22.092   9.706  14.001 -0.0137  0.1708 -0.0702
 1230DOPC   C4B14436  21.659   9.463  13.939  0.0530  0.0323 -0.1767
 1231POSM   NC314437  15.176   3.213  15.525 -0.0996  0.0093  0.0276
 1231POSM   PO414438  15.237   3.598  15.639  0.2087  0.0070 -0.2687
 1231POSM   AM114439  15.040   3.662  15.396 -0.2815  0.0995  0.0113
 1231POSM   AM214440  15.024   3.541  15.152 -0.2214 -0.2179 -0.1119
 1231POSM   T1A14441  14.616   3.861  15.249 -0.1034 -0.0235 -0.0287
 1231POSM   C2A14442  14.497   4.270  15.164  0.2695 -0.2660 -0.0127
 1231POSM   C3A14443  14.525   4.766  15.148 -0.1842 -0.0024  0.0847
 1231POSM   C1B14444  15.129   3.296  14.882 -0.1505 -0.0805 -0.0168
 1231POSM   D2B14445  15.250   3.023  14.499 -0.0007  0.1200 -0.0556
 1231POSM   C3B14446  14.995   3.163  14.098 -0.1596  0.2018  0.3173
 1231POSM   C4B14447  14.631   3.012  13.819 -0.1104 -0.0876 -0.1242
 1232DOPS   CNO14448  19.568  10.105  15.742 -0.1670 -0.4952 -0.0796
 1232DOPS   PO414449  19.661   9.751  15.582 -0.0386 -0.0630  0.1917
 1232DOPS   GL114450  19.646   9.602  15.226 -0.0818 -0.0853 -0.0862
 1232DOPS   GL214451  19.482   9.700  15.004 -0.4824 -0.1967  0.0049
 1232DOPS   C1A14452  19.963   9.672  14.861 -0.0876 -0.0375 -0.1562
 1232DOPS   D2A14453  20.354   9.725  14.562 -0.2507 -0.0016 -0.2786
 1232DOPS   C3A14454  20.444  10.182  14.472  0.0920  0.1998  0.1439
 1232DOPS   C4A14455  20.418  10.545  14.185 -0.2579 -0.0102  0.1543
 1232DOPS   C1B14456  19.618   9.578  14.531 -0.0526 -0.0927 -0.1841
 1232DOPS   D2B14457  20.007   9.588  14.251 -0.3751  0.0865  0.1325
 1232DOPS   C3B14458  20.013   9.313  13.865  0.0680 -0.1156 -0.2617
 1232DOPS   C4B14459  19.700   9.160  13.690 -0.0123  0.1906 -0.0039
 1233DOPC   NC314460  17.479   2.769  16.083  0.2725  0.2054 -0.1254
 1233DOPC   PO414461  17.462   2.750  15.704  0.1994 -0.3929 -0.0797
 1233DOPC   GL114462  17.492   2.553  15.311  0.4531  0.0241 -0.4780
 1233DOPC   GL214463  17.252   2.607  15.262  0.1697  0.2146  0.0306
 1233DOPC   C1A14464  17.632   2.636  14.875  0.0698 -0.1676 -0.0444
 1233DOPC   D2A14465  17.408   2.730  14.445 -0.1848 -0.0490  0.0009
 1233DOPC   C3A14466  17.098   2.567  14.134  0.2075  0.1214 -0.1138
 1233DOPC   C4A14467  16.740   2.830  14.037 -0.0377  0.0674  0.0603
 1233DOPC   C1B14468  16.821   2.744  15.084 -0.0194  0.1191 -0.1186
 1233DOPC   D2B14469  16.467   2.660  15.269  0.0917  0.0312  0.1090
 1233DOPC   C3B14470  16.103   2.880  15.218  0.0287  0.2638  0.0072
 1233DOPC   C4B14471  15.675   2.799  15.315 -0.2781 -0.1731  0.3410
 1234DOPE   NH314472  14.017   6.402  15.751 -0.0038  0.1162 -0.3809
 1234DOPE   PO414473  14.011   6.076  15.853  0.0931 -0.3803  0.1886
 1234DOPE   GL114474  13.849   5.820  15.631  0.1771 -0.0605 -0.1455
 1234DOPE   GL214475  14.084   5.664  15.510 -0.1114  0.0953  0.2808
 1234DOPE   C1A14476  13.639   5.430  15.455 -0.2545 -0.0772  0.0764
 1234DOPE   D2A14477  13.705   5.217  15.036  0.1141 -0.1091  0.0394
 1234DOPE   C3A14478  14.104   5.261  14.715 -0.0945 -0.2041  0.2084
 1234DOPE   C4A14479  14.479   5.501  14.541 -0.0391 -0.3462 -0.0721
 1234DOPE   C1B14480  14.159   5.638  15.067 -0.0555  0.0586 -0.0209
 1234DOPE   D2B14481  14.352   5.922  14.751 -0.0745  0.0879 -0.3192
 1234DOPE   C3B14482  14.785   5.936  14.602 -0.0222 -0.2886  0.1705
 1234DOPE   C4B14483  15.196   6.024  14.829 -0.0182  0.1493  0.1866
 1235POSM   NC314484  20.546   8.964  15.587 -0.3084  0.0693 -0.0599
 1235POSM   PO414485  20.453   9.116  15.250 -0.2375  0.0747  0.2642
 1235POSM   AM114486  20.326   8.991  14.987 -0.0575 -0.0921 -0.0134
 1235POSM   AM214487  20.197   9.092  14.742  0.1514  0.1101 -0.0757
 1235POSM   T1A14488  20.403   8.727  14.556 -0.1161 -0.3320  0.2382
 1235POSM   C2A14489  20.271   8.443  14.286  0.1561 -0.1938  0.1047
 1235POSM   C3A14490  20.338   8.076  14.050 -0.1720  0.1911 -0.0208
 1235POSM   C1B14491  20.346   9.249  14.427  0.1157 -0.1254 -0.0341
 1235POSM   D2B14492  20.455   9.548  14.041 -0.2681  0.0175 -0.1961
 1235POSM   C3B14493  20.440   9.349  13.634 -0.2058  0.1059  0.0315
 1235POSM   C4B14494  20.796   9.221  13.301  0.1794 -0.1844 -0.0118
 1236DOPS   CNO14495  17.289  10.801  15.284 -0.0858 -0.1031 -0.1628
 1236DOPS   PO414496  16.891  10.769  15.305 -0.1343 -0.2118 -0.0279
 1236DOPS   GL114497  17.020  10.936  14.995  0.0617 -0.0269 -0.1136
 1236DOPS   GL214498  17.029  10.706  14.752  0.0583 -0.1127  0.2266
 1236DOPS   C1A14499  17.183  11.276  14.716  0.1859  0.0518 -0.3292
 1236DOPS   D2A14500  17.621  11.274  14.490  0.2100 -0.1837 -0.1778
 1236DOPS   C3A14501  17.639  10.977  14.112  0.1309 -0.0317 -0.1619
 1236DOPS   C4A14502  17.477  10.854  13.705 -0.0006 -0.0178  0.3976
 1236DOPS   C1B14503  17.189  10.847  14.339 -0.0997 -0.2349 -0.1422
 1236DOPS   D2B14504  17.181  11.157  14.020  0.0506  0.0292 -0.0605
 1236DOPS   C3B14505  17.013  11.133  13.591 -0.0434  0.1786  0.1463
 1236DOPS   C4B14506  16.873  11.022  13.257  0.0338 -0.1817  0.2442
 1237DOPC   NC314507  21.970   2.798  15.506  0.0988 -0.0326  0.0517
 1237DOPC   PO414508  22.329   2.612  15.655  0.1148 -0.2104  0.0273
 1237DOPC   GL114509  22.368   2.583  15.311 -0.3231  0.0803 -0.1816
 1237DOPC   GL214510  22.317   2.799  15.127 -0.0602 -0.0906 -0.3301
 1237DOPC   C1A14511  22.362   2.048  15.262 -0.2744 -0.0785 -0.1803
 1237DOPC   D2A14512  22.390   1.713  14.972 -0.0108  0.1639 -0.0405
 1237DOPC   C3A14513  21.957   1.647  14.797  0.3354 -0.0892  0.2666
 1237DOPC   C4A14514  21.588   1.498  15.002  0.1908 -0.1846 -0.0084
 1237DOPC   C1B14515  21.922   2.613  14.928 -0.1150 -0.2577  0.1285
 1237DOPC   D2B14516  21.505   2.390  14.944  0.1675  0.2260  0.4077
 1237DOPC   C3B14517  21.425   1.958  14.736 -0.2120 -0.2371 -0.2913
 1237DOPC   C4B14518  21.342   1.738  14.346  0.0502 -0.1180  0.0168
 1238DOPE   NH314519  17.641   4.854  15.870 -0.0774 -0.0269  0.3476
 1238DOPE   PO414520  17.654   4.825  15.560 -0.3703  0.1930 -0.2429
 1238DOPE   GL114521  17.643   4.701  15.246  0.0061 -0.1267 -0.0031
 1238DOPE   GL214522  17.517   4.869  14.994  0.0701 -0.2447 -0.1986
 1238DOPE   C1A14523  17.523   4.321  14.919  0.0199 -0.0954 -0.1758
 1238DOPE   D2A14524  17.419   4.106  14.569  0.4776  0.0119 -0.0639
 1238DOPE   C3A14525  17.118   4.120  14.168 -0.3394  0.2069 -0.0568
 1238DOPE   C4A14526  16.831   3.855  13.929 -0.0687 -0.1961  0.2426
 1238DOPE   C1B14527  17.612   4.900  14.575  0.1154  0.0032  0.2656
 1238DOPE   D2B14528  17.968   4.622  14.385  0.1808 -0.1956 -0.0231
 1238DOPE   C3B14529  18.334   4.742  14.125 -0.0677  0.1968 -0.1851
 1238DOPE   C4B14530  18.688   4.667  13.847 -0.1343 -0.3936 -0.1609
 1239DOPE   NH314531  17.222   5.020  15.515 -0.2910 -0.0290  0.1190
 1239DOPE   PO414532  17.127   4.864  15.770  0.1715 -0.0904  0.3351
 1239DOPE   GL114533  16.835   4.678  15.544 -0.1166 -0.0043 -0.0183
 1239DOPE   GL214534  16.675   4.938  15.447  0.2207 -0.0172  0.0031
 1239DOPE   C1A14535  16.585   4.499  15.157 -0.4658 -0.1338  0.0556
 1239DOPE   D2A14536  16.421   4.639  14.751 -0.2134 -0.1069 -0.0281
 1239DOPE   C3A14537  16.771   4.546  14.457  0.0690 -0.4140 -0.1208
 1239DOPE   C4A14538  17.211   4.601  14.587  0.0936  0.3639  0.1096
 1239DOPE   C1B14539  16.423   5.026  15.081 -0.2830 -0.3076 -0.0682
 1239DOPE   D2B14540  16.468   5.109  14.637 -0.3937 -0.2984  0.1826
 1239DOPE   C3B14541  16.628   4.958  14.224  0.1003 -0.0957  0.0256
 1239DOPE   C4B14542  16.725   4.850  13.799 -0.0619  0.1285 -0.0161
 1240DOPC   NC314543  20.331  10.326  15.711 -0.2699  0.5373 -0.0634
 1240DOPC   PO414544  20.667  10.283  15.538 -0.0348  0.3082  0.3535
 1240DOPC   GL114545  20.346  10.427  15.258 -0.2196  0.0793 -0.0637
 1240DOPC   GL214546  20.338  10.768  15.359 -0.0877 -0.5228  0.0097
 1240DOPC   C1A14547  20.006  10.541  15.096  0.1229 -0.1292 -0.0383
 1240DOPC   D2A14548  19.597  10.667  15.194 -0.1411 -0.2356  0.0430
 1240DOPC   C3A14549  19.287  10.540  14.938  0.0031 -0.2344 -0.0577
 1240DOPC   C4A14550  18.919  10.547  14.677  0.2821  0.1682  0.0222
 1240DOPC   C1B14551  20.392  11.190  15.081 -0.0943 -0.1592 -0.2165
 1240DOPC   D2B14552  20.269  11.542  14.777  0.1545  0.0660 -0.1106
 1240DOPC   C3B14553  20.085  12.002  14.827 -0.1571  0.0561  0.0585
 1240DOPC   C4B14554  19.999  12.450  14.855 -0.1753 -0.1399  0.1046
 1241POSM   NC314555  20.870   6.567  16.415 -0.0192 -0.4005 -0.2118
 1241POSM   PO414556  20.780   6.511  16.023  0.0815  0.2512 -0.0675
 1241POSM   AM114557  20.856   6.541  15.714 -0.0955 -0.1852 -0.1073
 1241POSM   AM214558  21.102   6.524  15.523  0.1414 -0.4059 -0.0534
 1241POSM   T1A14559  20.810   6.857  15.312  0.1796 -0.3718  0.2547
 1241POSM   C2A14560  20.671   7.062  14.925  0.1566 -0.1760 -0.2584
 1241POSM   C3A14561  20.971   7.383  14.710  0.2342  0.2027  0.0982
 1241POSM   C1B14562  21.178   6.498  15.149 -0.1617  0.1691  0.3204
 1241POSM   D2B14563  21.564   6.563  14.857  0.0884 -0.1668 -0.3028
 1241POSM   C3B14564  21.462   6.693  14.467 -0.0744 -0.1331 -0.1271
 1241POSM   C4B14565  21.490   6.649  14.052 -0.1309  0.0796 -0.0150
 1242DOPE   NH314566  12.145   8.693  16.029  0.1135  0.0784 -0.1233
 1242DOPE   PO414567  12.263   8.965  15.997  0.0215  0.0287 -0.3221
 1242DOPE   GL114568  12.203   9.124  15.682  0.3286  0.0039  0.0641
 1242DOPE   GL214569  11.985   9.244  15.535 -0.3431  0.1943  0.0770
 1242DOPE   C1A14570  12.384   9.474  15.375 -0.3461  0.0094 -0.1575
 1242DOPE   D2A14571  12.737   9.611  15.080  0.3886 -0.2590 -0.1046
 1242DOPE   C3A14572  12.564   9.786  14.650 -0.0270 -0.1530 -0.1514
 1242DOPE   C4A14573  12.419   9.603  14.231  0.4568 -0.0761 -0.1606
 1242DOPE   C1B14574  11.723   9.456  15.242 -0.1554 -0.0611  0.1086
 1242DOPE   D2B14575  11.601   9.919  15.119  0.1067 -0.1409  0.2532
 1242DOPE   C3B14576  11.909  10.249  15.080 -0.0959  0.0006  0.3942
 1242DOPE   C4B14577  12.295  10.315  14.849  0.3123 -0.0487  0.0810
 1243DOPS   CNO14578  16.664   1.356  15.305  0.2029  0.0904 -0.0407
 1243DOPS   PO414579  16.686   1.477  15.651  0.0976 -0.0720 -0.4647
 1243DOPS   GL114580  16.382   1.731  15.468 -0.3876  0.2799  0.0790
 1243DOPS   GL214581  16.158   2.020  15.494 -0.4027 -0.5854 -0.0849
 1243DOPS   C1A14582  16.181   1.759  15.044  0.0548 -0.0021 -0.1690
 1243DOPS   D2A14583  15.898   1.601  14.640 -0.0745  0.1085 -0.1351
 1243DOPS   C3A14584  15.715   1.849  14.269 -0.0259  0.0451  0.2545
 1243DOPS   C4A14585  15.633   1.815  13.806 -0.0091  0.2454 -0.0182
 1243DOPS   C1B14586  15.954   2.376  15.203  0.0628 -0.0145 -0.0693
 1243DOPS   D2B14587  16.084   2.503  14.794 -0.2426 -0.1510  0.1157
 1243DOPS   C3B14588  15.726   2.372  14.522  0.3067  0.1065 -0.0791
 1243DOPS   C4B14589  15.808   2.356  14.041 -0.1169 -0.0566 -0.0850
 1244POSM   NC314590  18.633   8.328  15.525 -0.0103 -0.0425  0.0223
 1244POSM   PO414591  18.983   8.243  15.730 -0.1392 -0.0598 -0.1100
 1244POSM   AM114592  19.050   8.086  15.436 -0.0766  0.2559 -0.1959
 1244POSM   AM214593  19.072   8.163  15.177 -0.1050  0.3209 -0.2155
 1244POSM   T1A14594  18.720   7.844  15.140  0.2759 -0.0662  0.1577
 1244POSM   C2A14595  18.291   7.861  15.083 -0.0548 -0.1396 -0.0578
 1244POSM   C3A14596  17.949   8.021  14.851  0.1015 -0.3688 -0.1297
 1244POSM   C1B14597  19.169   8.077  14.893  0.2671  0.1739  0.2494
 1244POSM   D2B14598  19.143   8.117  14.422 -0.1989  0.0106 -0.0139
 1244POSM   C3B14599  18.766   8.245  14.211  0.0536  0.0749  0.1288
 1244POSM   C4B14600  18.371   8.268  13.905 -0.0392  0.0761 -0.0231
 1245POSM   NC314601  17.040   8.137  15.888  0.0841  0.2182  0.0503
 1245POSM   PO414602  16.714   8.004  15.853  0.1415 -0.3058  0.0171
 1245POSM   AM114603  16.638   8.086  15.545  0.1221 -0.2542 -0.1491
 1245POSM   AM214604  16.508   7.935  15.338 -0.2886  0.2021 -0.3425
 1245POSM   T1A14605  16.615   8.406  15.155 -0.0812  0.0427  0.1358
 1245POSM   C2A14606  16.481   8.836  15.157  0.1535 -0.1012 -0.1223
 1245POSM   C3A14607  16.292   9.273  14.965  0.3601 -0.0625  0.1972
 1245POSM   C1B14608  16.329   7.917  15.090  0.3702  0.1108 -0.0537
 1245POSM   D2B14609  16.247   7.809  14.650  0.2004  0.0897  0.2091
 1245POSM   C3B14610  16.371   8.249  14.565  0.4189  0.1319 -0.2355
 1245POSM   C4B14611  16.612   8.691  14.665  0.0128 -0.2075  0.0868
 1246DOPC   NC314612  14.445   0.428  15.384 -0.1944 -0.1345  0.2688
 1246DOPC   PO414613  14.305   0.572  15.736 -0.5767 -0.1961 -0.1230
 1246DOPC   GL114614  14.143   0.841  15.452  0.0862  0.0422 -0.0653
 1246DOPC   GL214615  14.271   1.094  15.528 -0.0533 -0.0057 -0.0028
 1246DOPC   C1A14616  14.097   1.015  15.020  0.1970  0.1923 -0.1740
 1246DOPC   D2A14617  14.028   1.085  14.588  0.1473  0.0676 -0.0436
 1246DOPC   C3A14618  13.853   0.985  14.222 -0.1076  0.0866  0.2989
 1246DOPC   C4A14619  13.620   1.224  13.876  0.1784 -0.1487  0.3850
 1246DOPC   C1B14620  14.594   0.989  15.240 -0.1984  0.2681  0.0499
 1246DOPC   D2B14621  14.922   0.729  15.093  0.0532  0.2338  0.1696
 1246DOPC   C3B14622  15.178   0.438  14.900  0.0081  0.2247  0.0807
 1246DOPC   C4B14623  15.417   0.206  14.509  0.0242 -0.1539 -0.1481
 1247DOPS   CNO14624  18.711   3.892  15.919 -0.0244  0.1613 -0.1033
 1247DOPS   PO414625  19.077   3.819  15.963  0.1716  0.1416  0.0421
 1247DOPS   GL114626  19.082   3.755  15.575  0.0916 -0.1122 -0.2213
 1247DOPS   GL214627  19.005   4.047  15.461  0.1978  0.1631 -0.1577
 1247DOPS   C1A14628  19.415   3.813  15.174 -0.0936  0.0725 -0.0822
 1247DOPS   D2A14629  19.437   3.719  14.738 -0.1475 -0.1411 -0.3710
 1247DOPS   C3A14630  19.330   4.046  14.473  0.2007 -0.3321 -0.0030
 1247DOPS   C4A14631  19.390   4.258  14.089  0.1043  0.0531  0.1349
 1247DOPS   C1B14632  19.160   4.284  15.051  0.4340 -0.0663 -0.1612
 1247DOPS   D2B14633  19.339   4.493  14.667 -0.3937 -0.2374 -0.4521
 1247DOPS   C3B14634  19.415   4.893  14.560  0.0790  0.1303  0.2518
 1247DOPS   C4B14635  19.346   5.320  14.597 -0.0479  0.0971 -0.2428
 1248DOPE   NH314636  20.888   9.949  15.263  0.3132  0.4707 -0.0630
 1248DOPE   PO414637  21.117  10.131  15.311  0.1646  0.0836  0.0648
 1248DOPE   GL114638  21.144  10.465  15.083  0.1830  0.2182 -0.0829
 1248DOPE   GL214639  21.067  10.428  14.793 -0.1197  0.0117  0.0761
 1248DOPE   C1A14640  21.560  10.576  14.906 -0.0557 -0.0983 -0.2149
 1248DOPE   D2A14641  21.859  10.480  14.575 -0.0808  0.0456 -0.4194
 1248DOPE   C3A14642  21.910  10.649  14.166  0.1199 -0.3027  0.0445
 1248DOPE   C4A14643  21.760  10.854  13.744  0.1115 -0.1809 -0.1233
 1248DOPE   C1B14644  20.928  10.290  14.407  0.0343  0.4626 -0.1927
 1248DOPE   D2B14645  20.976  10.199  13.970  0.1663  0.3253  0.0411
 1248DOPE   C3B14646  20.716  10.567  13.802 -0.0752  0.0978  0.1333
 1248DOPE   C4B14647  20.640  10.985  13.788  0.0361 -0.1108 -0.0920
 1249POSM   NC314648  21.654   5.593  15.581 -0.2585 -0.2578  0.0042
 1249POSM   PO414649  21.677   5.261  15.381  0.0533  0.0047 -0.0198
 1249POSM   AM114650  21.593   5.435  15.129 -0.4083 -0.1233 -0.0816
 1249POSM   AM214651  21.688   5.720  15.067  0.0029 -0.1192 -0.3177
 1249POSM   T1A14652  21.322   5.622  14.744  0.1284 -0.2852 -0.0632
 1249POSM   C2A14653  21.330   5.599  14.334 -0.0297  0.0439  0.4278
 1249POSM   C3A14654  21.458   5.804  13.930 -0.4585 -0.1173 -0.2921
 1249POSM   C1B14655  21.690   6.024  14.901  0.0663  0.1067 -0.0013
 1249POSM   D2B14656  21.851   6.192  14.514  0.1536 -0.3253 -0.1212
 1249POSM   C3B14657  21.700   6.196  14.102 -0.0067  0.1930 -0.0600
 1249POSM   C4B14658  21.632   6.278  13.617  0.1933  0.1871  0.0686
 1250POSM   NC314659  22.638   2.149  15.785 -0.0430  0.0375  0.1072
 1250POSM   PO414660  22.703   1.741  15.776  0.0754  0.0931 -0.0239
 1250POSM   AM114661  22.706   1.808  15.449 -0.0702  0.0301  0.0271
 1250POSM   AM214662  22.888   2.037  15.308  0.1470  0.0988 -0.1605
 1250POSM   T1A14663  22.871   1.583  15.027  0.3444 -0.0786 -0.0419
 1250POSM   C2A14664  23.037   1.760  14.626 -0.2318  0.1258  0.0106
 1250POSM   C3A14665  22.980   1.651  14.213 -0.2799 -0.0264  0.3745
 1250POSM   C1B14666  22.747   2.074  14.971  0.1372 -0.0928 -0.0772
 1250POSM   D2B14667  22.710   2.191  14.494 -0.2376  0.0719 -0.1258
 1250POSM   C3B14668  22.416   1.869  14.447 -0.0249  0.4215 -0.0947
 1250POSM   C4B14669  21.980   1.947  14.383 -0.1128  0.1470 -0.0276
 1251DOPC   NC314670  13.135   7.685  15.582  0.1996 -0.0841  0.0493
 1251DOPC   PO414671  12.987   8.002  15.820 -0.1116 -0.0484 -0.0637
 1251DOPC   GL114672  12.790   8.252  15.520  0.2432  0.3665  0.1734
 1251DOPC   GL214673  13.016   8.209  15.317 -0.0167 -0.1933  0.0149
 1251DOPC   C1A14674  12.631   8.073  15.048  0.1597  0.1062  0.0571
 1251DOPC   D2A14675  12.881   8.208  14.682 -0.0983 -0.0231  0.0647
 1251DOPC   C3A14676  12.734   7.969  14.261 -0.1286 -0.2216  0.0395
 1251DOPC   C4A14677  12.876   7.760  13.850 -0.0473 -0.2010  0.2609
 1251DOPC   C1B14678  13.251   8.513  15.135 -0.3564 -0.3578 -0.0046
 1251DOPC   D2B14679  13.621   8.803  15.229  0.4618  0.1712 -0.2131
 1251DOPC   C3B14680  13.631   9.254  15.280 -0.3445  0.1353  0.0460
 1251DOPC   C4B14681  13.946   9.579  15.441  0.3877 -0.0978  0.1223
 1252DOPC   NC314682  13.166   1.980  15.629  0.0121 -0.1410 -0.1985
 1252DOPC   PO414683  12.805   2.034  15.698 -0.1131 -0.0767 -0.0867
 1252DOPC   GL114684  12.861   2.417  15.403 -0.0321 -0.0001  0.3311
 1252DOPC   GL214685  13.000   2.220  15.230 -0.1260  0.1136  0.2314
 1252DOPC   C1A14686  13.001   2.684  15.064 -0.1181  0.1877  0.1984
 1252DOPC   D2A14687  13.034   3.094  14.906 -0.0659 -0.2788  0.1304
 1252DOPC   C3A14688  12.717   3.393  14.618  0.0240  0.1354 -0.0393
 1252DOPC   C4A14689  12.611   3.414  14.153 -0.1755  0.2803 -0.0776
 1252DOPC   C1B14690  12.980   2.238  14.791  0.0605  0.1686 -0.2203
 1252DOPC   D2B14691  12.927   2.349  14.323  0.0956 -0.0818  0.0021
 1252DOPC   C3B14692  13.187   2.569  14.054  0.0447  0.0560 -0.1239
 1252DOPC   C4B14693  13.481   2.357  13.686  0.1711  0.2869  0.0461
 1253POSM   NC314694  17.953   0.618  15.789 -0.0677 -0.0455  0.0282
 1253POSM   PO414695  18.292   0.396  15.684  0.0610  0.1060 -0.0322
 1253POSM   AM114696  18.307   0.220  15.406  0.2144  0.0145 -0.0368
 1253POSM   AM214697  18.462   0.175  15.197 -0.0870 -0.0021  0.0492
 1253POSM   T1A14698  18.017  -0.057  15.087 -0.2001 -0.2339 -0.0162
 1253POSM   C2A14699  17.634  -0.245  14.837 -0.0479 -0.1677 -0.2242
 1253POSM   C3A14700  17.534  -0.668  14.723 -0.1526 -0.2469  0.0653
 1253POSM   C1B14701  18.461   0.118  14.870  0.1234  0.0504  0.2828
 1253POSM   D2B14702  18.066  -0.018  14.589 -0.0825  0.3015  0.1818
 1253POSM   C3B14703  18.035   0.083  14.104 -0.2270 -0.1397 -0.0366
 1253POSM   C4B14704  17.963   0.058  13.679  0.0724  0.0895  0.3348
 1254POSM   NC314705  23.276   5.375  15.419  0.1542 -0.0363  0.2140
 1254POSM   PO414706  22.958   5.523  15.329  0.1826  0.0811  0.1343
 1254POSM   AM114707  22.857   5.503  15.055 -0.1887  0.2716 -0.0316
 1254POSM   AM214708  22.954   5.634  14.790 -0.4782 -0.0726  0.0767
 1254POSM   T1A14709  22.753   5.148  14.700 -0.1675  0.3037 -0.1668
 1254POSM   C2A14710  22.459   4.923  14.545 -0.0407  0.1357  0.0865
 1254POSM   C3A14711  22.287   4.496  14.478  0.2622 -0.2079 -0.1532
 1254POSM   C1B14712  23.004   5.589  14.427  0.0931  0.0479  0.0652
 1254POSM   D2B14713  22.861   5.597  14.031 -0.1591  0.1429 -0.2816
 1254POSM   C3B14714  23.083   5.946  13.806  0.5309 -0.5270  0.2034
 1254POSM   C4B14715  23.018   6.309  13.535  0.0231  0.2228  0.1649
 1255DOPE   NH314716  21.714  10.540  15.950  0.1167  0.4672  0.2009
 1255DOPE   PO414717  21.974  10.433  15.842  0.3021  0.2176  0.2595
 1255DOPE   GL114718  21.903  10.573  15.409 -0.1063  0.1629 -0.3047
 1255DOPE   GL214719  22.236  10.584  15.362 -0.1012  0.1583 -0.2056
 1255DOPE   C1A14720  21.938  10.876  15.045  0.0896 -0.2063  0.1487
 1255DOPE   D2A14721  22.025  10.972  14.575  0.0808  0.0286 -0.2060
 1255DOPE   C3A14722  22.402  10.745  14.533  0.2858 -0.0814 -0.1295
 1255DOPE   C4A14723  22.320  10.273  14.525 -0.2767  0.0317 -0.0853
 1255DOPE   C1B14724  22.140  10.370  14.986  0.2263  0.1019  0.0138
 1255DOPE   D2B14725  21.831  10.021  14.794  0.0487 -0.1048  0.2190
 1255DOPE   C3B14726  21.486  10.167  14.602 -0.1907  0.0102 -0.2090
 1255DOPE   C4B14727  21.327  10.600  14.478 -0.2867  0.1198  0.0266
 1256DOPC   NC314728  18.288   9.756  15.668 -0.2391  0.0119 -0.0980
 1256DOPC   PO414729  18.666   9.762  15.601 -0.2149  0.1904 -0.0260
 1256DOPC   GL114730  18.423   9.712  15.260 -0.1249 -0.2853  0.2222
 1256DOPC   GL214731  18.577   9.799  15.107 -0.0532  0.2936 -0.1211
 1256DOPC   C1A14732  18.094   9.941  15.066  0.0529 -0.1901  0.0736
 1256DOPC   D2A14733  17.837  10.071  14.706  0.1312 -0.0225 -0.0389
 1256DOPC   C3A14734  18.076  10.088  14.287 -0.0986  0.0804 -0.1407
 1256DOPC   C4A14735  18.411  10.125  13.970  0.0461  0.0033  0.1423
 1256DOPC   C1B14736  18.921   9.543  14.834  0.0151 -0.0130 -0.1102
 1256DOPC   D2B14737  19.103   9.546  14.435 -0.2035 -0.1174  0.0699
 1256DOPC   C3B14738  19.400   9.282  14.177 -0.0188  0.2826 -0.0290
 1256DOPC   C4B14739  19.547   8.855  14.038 -0.1449  0.1444  0.0233
 1257DOPE   NH314740  19.850   5.566  15.458 -0.3481  0.2560  0.0377
 1257DOPE   PO414741  19.777   5.879  15.594  0.2205 -0.1163 -0.0515
 1257DOPE   GL114742  19.434   5.910  15.310  0.3343  0.0906 -0.0672
 1257DOPE   GL214743  19.479   5.649  15.133 -0.1728  0.0616 -0.0577
 1257DOPE   C1A14744  19.182   6.264  15.096 -0.1784 -0.0028 -0.0566
 1257DOPE   D2A14745  18.844   6.546  14.954  0.0961  0.3085 -0.1786
 1257DOPE   C3A14746  18.722   6.768  14.525 -0.1214 -0.3163  0.1052
 1257DOPE   C4A14747  18.603   6.698  14.106 -0.3505  0.0734  0.0776
 1257DOPE   C1B14748  19.029   5.529  15.153 -0.1833  0.1088 -0.1998
 1257DOPE   D2B14749  18.856   5.685  14.809  0.0483  0.0247  0.0470
 1257DOPE   C3B14750  18.995   5.621  14.338 -0.0804 -0.1379 -0.1020
 1257DOPE   C4B14751  19.027   5.559  13.862 -0.0694  0.0306  0.1096
 1258DOPE   NH314752  22.512   3.425  15.751  0.2167 -0.3250 -0.0361
 1258DOPE   PO414753  22.201   3.420  15.782  0.1205  0.0796 -0.3218
 1258DOPE   GL114754  22.181   3.235  15.431 -0.2243  0.0640 -0.0562
 1258DOPE   GL214755  22.232   3.485  15.288 -0.2531 -0.0263 -0.1741
 1258DOPE   C1A14756  21.952   3.127  15.065 -0.2252  0.2770  0.0754
 1258DOPE   D2A14757  21.763   3.138  14.665  0.0551 -0.2526  0.2963
 1258DOPE   C3A14758  21.702   2.719  14.456 -0.1386 -0.1379  0.0161
 1258DOPE   C4A14759  21.588   2.292  14.422 -0.3365 -0.0664 -0.0970
 1258DOPE   C1B14760  22.206   3.508  14.820 -0.0932 -0.0521  0.1816
 1258DOPE   D2B14761  21.891   3.537  14.451 -0.4487  0.2092 -0.2319
 1258DOPE   C3B14762  22.061   3.605  14.016 -0.0642  0.4244  0.2162
 1258DOPE   C4B14763  22.447   3.827  13.842  0.3277 -0.1449 -0.0426
 1259DOPE   NH314764  18.836   2.702  15.722  0.1252 -0.0708  0.2480
 1259DOPE   PO414765  19.086   2.901  15.639 -0.0023  0.2664  0.2499
 1259DOPE   GL114766  18.902   3.060  15.368  0.2173  0.2110  0.1650
 1259DOPE   GL214767  18.719   3.268  15.262 -0.0900 -0.3204 -0.0200
 1259DOPE   C1A14768  18.694   2.923  14.999 -0.1227  0.0496  0.2469
 1259DOPE   D2A14769  18.593   3.057  14.611 -0.0272 -0.1985 -0.1578
 1259DOPE   C3A14770  18.602   2.831  14.240 -0.2909  0.1103  0.3802
 1259DOPE   C4A14771  18.647   2.477  13.945  0.0067  0.3486  0.2863
 1259DOPE   C1B14772  18.495   3.440  14.929  0.3656  0.4163 -0.0103
 1259DOPE   D2B14773  18.190   3.489  14.543  0.0711 -0.1776  0.0341
 1259DOPE   C3B14774  18.177   3.132  14.278  0.3149 -0.1737  0.0873
 1259DOPE   C4B14775  18.315   2.874  13.864  0.3185  0.1428 -0.1559
 1260DOPS   CNO14776  12.882   5.570  15.565  0.0800 -0.1049  0.2954
 1260DOPS   PO414777  12.474   5.572  15.485  0.1292 -0.0950 -0.4137
 1260DOPS   GL114778  12.748   5.687  15.111  0.0017  0.3530  0.3044
 1260DOPS   GL214779  12.552   5.708  14.948 -0.2065 -0.2277 -0.2080
 1260DOPS   C1A14780  12.991   5.945  14.776  0.0988  0.0047 -0.2081
 1260DOPS   D2A14781  13.082   5.904  14.362  0.0003 -0.1636  0.1330
 1260DOPS   C3A14782  13.030   6.156  14.026  0.1441  0.0054 -0.1427
 1260DOPS   C4A14783  13.129   6.168  13.625  0.1374  0.0891 -0.0253
 1260DOPS   C1B14784  12.519   5.653  14.516 -0.1584 -0.0246  0.2424
 1260DOPS   D2B14785  12.785   5.554  14.121 -0.0957  0.3871  0.1446
 1260DOPS   C3B14786  12.759   5.826  13.746 -0.1651  0.3484  0.2099
 1260DOPS   C4B14787  12.833   5.877  13.331  0.2741 -0.0169 -0.2594
 1261DOPE   NH314788  17.906   6.858  15.829 -0.1193 -0.0034  0.1399
 1261DOPE   PO414789  17.968   6.783  15.524 -0.2067 -0.1199 -0.4893
 1261DOPE   GL114790  17.861   6.864  15.233 -0.1271 -0.2734  0.1981
 1261DOPE   GL214791  17.836   6.660  15.052  0.2545 -0.1961  0.0106
 1261DOPE   C1A14792  17.919   7.163  14.923  0.1732  0.0055 -0.1454
 1261DOPE   D2A14793  18.081   7.510  14.811  0.3268 -0.1517  0.0025
 1261DOPE   C3A14794  18.157   7.459  14.379  0.2913 -0.1147 -0.0192
 1261DOPE   C4A14795  18.229   7.335  13.973 -0.1640  0.1582 -0.1946
 1261DOPE   C1B14796  17.842   6.788  14.592 -0.0954  0.3636  0.0312
 1261DOPE   D2B14797  17.812   7.054  14.202 -0.1415  0.2580 -0.2412
 1261DOPE   C3B14798  17.416   6.960  13.951  0.1811 -0.0579  0.1589
 1261DOPE   C4B14799  17.132   6.701  13.684  0.0570  0.0015  0.0432
 1262DOPE   NH314800  14.344   7.182  16.157  0.2007 -0.2639  0.1556
 1262DOPE   PO414801  14.406   7.154  15.860  0.0868 -0.2014  0.1773
 1262DOPE   GL114802  14.473   7.067  15.454 -0.1738  0.1296  0.1080
 1262DOPE   GL214803  14.781   7.026  15.528  0.0036  0.0627 -0.0563
 1262DOPE   C1A14804  14.626   6.835  15.096  0.5634  0.3302  0.1801
 1262DOPE   D2A14805  14.927   6.519  14.901 -0.1053  0.3183 -0.1405
 1262DOPE   C3A14806  14.855   6.404  14.452  0.0899  0.1426  0.2608
 1262DOPE   C4A14807  14.734   6.093  14.099 -0.0531  0.0695  0.2914
 1262DOPE   C1B14808  15.156   6.864  15.269 -0.2927 -0.0317 -0.0812
 1262DOPE   D2B14809  15.445   6.607  14.973  0.0722  0.0250 -0.1639
 1262DOPE   C3B14810  15.438   6.533  14.516 -0.1606  0.0117 -0.1168
 1262DOPE   C4B14811  15.247   6.357  14.159 -0.1952  0.3696 -0.1072
 1263POSM   NC314812  15.174   1.313  16.399 -0.1060 -0.1627 -0.1385
 1263POSM   PO414813  14.873   1.077  16.344  0.1110  0.0405  0.1837
 1263POSM   AM114814  15.013   0.981  16.064 -0.2390  0.1106  0.1147
 1263POSM   AM214815  15.196   1.086  15.903 -0.2032 -0.1203 -0.1514
 1263POSM   T1A14816  15.062   0.686  15.638 -0.2163 -0.3926 -0.3317
 1263POSM   C2A14817  15.114   0.265  15.403 -0.2671 -0.0437  0.0030
 1263POSM   C3A14818  15.206  -0.018  14.994 -0.1124 -0.1426  0.1998
 1263POSM   C1B14819  15.483   1.037  15.676 -0.0379  0.1766 -0.1012
 1263POSM   D2B14820  15.891   0.953  15.499 -0.0302  0.0706  0.1222
 1263POSM   C3B14821  15.795   0.876  15.004 -0.1928 -0.0968  0.3025
 1263POSM   C4B14822  15.672   0.602  14.673  0.1246 -0.0547  0.0101
 1264POSM   NC314823  16.185   3.264  15.590 -0.0447 -0.1159  0.1943
 1264POSM   PO414824  16.193   3.551  15.886  0.0092  0.0492 -0.3166
 1264POSM   AM114825  16.106   3.732  15.617  0.0548 -0.0912  0.4881
 1264POSM   AM214826  16.025   3.679  15.347  0.3177  0.0105 -0.2040
 1264POSM   T1A14827  16.311   4.050  15.323  0.0844  0.1930  0.1219
 1264POSM   C2A14828  16.416   4.130  14.867 -0.0910  0.4830  0.0980
 1264POSM   C3A14829  16.337   4.221  14.411 -0.0373  0.3972  0.2488
 1264POSM   C1B14830  16.033   3.404  15.135 -0.1360 -0.0539  0.2486
 1264POSM   D2B14831  16.047   3.261  14.678 -0.0280 -0.2920  0.1868
 1264POSM   C3B14832  16.048   3.180  14.216 -0.1168  0.1051  0.1368
 1264POSM   C4B14833  16.262   2.868  14.028  0.0229  0.3171 -0.2353
 1265DOPC   NC314834  17.286   6.380  15.662 -0.0495 -0.2472  0.0662
 1265DOPC   PO414835  17.672   6.368  15.750 -0.0959  0.0767 -0.1693
 1265DOPC   GL114836  17.642   6.437  15.383 -0.1009  0.0838 -0.3629
 1265DOPC   GL214837  17.607   6.117  15.343  0.3512  0.0133  0.0948
 1265DOPC   C1A14838  17.234   6.357  15.169 -0.0371  0.2169  0.0526
 1265DOPC   D2A14839  16.790   6.350  15.143  0.1289 -0.1518 -0.0210
 1265DOPC   C3A14840  16.731   6.567  14.757 -0.1634  0.1160 -0.2985
 1265DOPC   C4A14841  16.577   7.024  14.838 -0.1182 -0.2630  0.3547
 1265DOPC   C1B14842  17.541   6.214  14.863  0.0106 -0.2007  0.0377
 1265DOPC   D2B14843  17.573   6.447  14.470  0.0403  0.0110 -0.0210
 1265DOPC   C3B14844  17.540   6.442  13.972  0.0411 -0.0463  0.1376
 1265DOPC   C4B14845  17.569   6.645  13.502 -0.1241  0.1760  0.1533
 1266DOPC   NC314846  16.119   9.023  16.293  0.1882  0.1682 -0.2009
 1266DOPC   PO414847  16.176   8.892  15.924  0.0356  0.0335 -0.0971
 1266DOPC   GL114848  15.879   8.927  15.648  0.1106  0.1455 -0.0839
 1266DOPC   GL214849  15.990   9.112  15.502 -0.1807  0.1041 -0.2130
 1266DOPC   C1A14850  15.535   8.699  15.425  0.1562  0.1465  0.2286
 1266DOPC   D2A14851  15.623   8.297  15.208  0.0407 -0.0201  0.0724
 1266DOPC   C3A14852  15.563   8.192  14.735  0.2540  0.1120  0.3291
 1266DOPC   C4A14853  15.805   8.327  14.308 -0.0221 -0.2970 -0.1102
 1266DOPC   C1B14854  15.946   8.913  15.059  0.0228 -0.1793  0.1967
 1266DOPC   D2B14855  16.023   9.114  14.615 -0.2712 -0.0990 -0.0099
 1266DOPC   C3B14856  16.209   8.798  14.292 -0.2631  0.1922 -0.0358
 1266DOPC   C4B14857  16.517   8.457  14.075 -0.1054  0.1327  0.1271
 1267POSM   NC314858  14.057  10.390  15.028  0.0018 -0.2517  0.2333
 1267POSM   PO414859  14.422  10.300  15.163  0.1469  0.0211 -0.1996
 1267POSM   AM114860  14.539  10.304  14.859  0.2123 -0.0629  0.0791
 1267POSM   AM214861  14.696  10.056  14.746 -0.2462 -0.1617 -0.1775
 1267POSM   T1A14862  14.489  10.186  14.337  0.0523 -0.0246 -0.1328
 1267POSM   C2A14863  14.315  10.016  13.895  0.3439  0.2985  0.0282
 1267POSM   C3A14864  14.172   9.806  13.477 -0.2476 -0.1860  0.0521
 1267POSM   C1B14865  14.537   9.791  14.691 -0.1290  0.0499 -0.0237
 1267POSM   D2B14866  14.213   9.556  14.460 -0.0350  0.2153 -0.1034
 1267POSM   C3B14867  14.238   9.487  14.014  0.2235  0.2013 -0.1595
 1267POSM   C4B14868  14.246   9.346  13.596 -0.2161 -0.1231 -0.1574
 1268DOPC   NC314869  20.572   2.543  15.798  0.2622 -0.0325 -0.3284
 1268DOPC   PO414870  20.221   2.328  15.813  0.0955  0.1789 -0.1647
 1268DOPC   GL114871  20.303   2.159  15.386 -0.1154  0.1950  0.0725
 1268DOPC   GL214872  20.121   2.048  15.325  0.0451 -0.0696 -0.0604
 1268DOPC   C1A14873  20.586   2.404  15.073 -0.1049  0.1032  0.2010
 1268DOPC   D2A14874  20.671   2.576  14.688 -0.5214  0.0487 -0.0705
 1268DOPC   C3A14875  20.562   2.332  14.285  0.2544  0.0490  0.2631
 1268DOPC   C4A14876  20.403   2.059  13.940 -0.1350  0.0179 -0.1390
 1268DOPC   C1B14877  20.131   2.364  14.974  0.3544  0.1035 -0.0641
 1268DOPC   D2B14878  20.150   2.538  14.538 -0.0649 -0.0491 -0.0621
 1268DOPC   C3B14879  20.376   2.966  14.614 -0.1697  0.1222 -0.1539
 1268DOPC   C4B14880  20.310   3.421  14.585  0.1547  0.2526 -0.0913
 1269POSM   NC314881  11.689   7.962  15.620  0.0030 -0.1066  0.0757
 1269POSM   PO414882  11.966   7.683  15.719  0.1304 -0.1985 -0.2138
 1269POSM   AM114883  12.021   7.715  15.372  0.0833  0.1815 -0.0658
 1269POSM   AM214884  12.000   7.957  15.214  0.0746 -0.1096 -0.1833
 1269POSM   T1A14885  11.972   7.529  14.909  0.1018 -0.0237 -0.3458
 1269POSM   C2A14886  11.945   7.463  14.482 -0.2096  0.0786  0.4171
 1269POSM   C3A14887  12.110   7.494  14.051 -0.2943  0.1276  0.0440
 1269POSM   C1B14888  12.159   8.032  14.920  0.0093 -0.1021 -0.1325
 1269POSM   D2B14889  12.333   7.879  14.574 -0.1477 -0.2088 -0.1885
 1269POSM   C3B14890  12.183   8.031  14.179  0.0857  0.0043 -0.0529
 1269POSM   C4B14891  12.402   8.293  13.919  0.0662  0.0149 -0.0022
 1270DOPC   NC314892  13.867   5.409  15.941  0.1649  0.3265  0.0587
 1270DOPC   PO414893  13.952   5.041  16.035 -0.0851  0.0164 -0.1074
 1270DOPC   GL114894  14.038   4.924  15.642 -0.1557 -0.1048  0.2816
 1270DOPC   GL214895  13.919   4.655  15.595  0.0753  0.0728 -0.3058
 1270DOPC   C1A14896  14.187   5.176  15.263 -0.0588  0.1484  0.0651
 1270DOPC   D2A14897  14.542   5.191  14.977 -0.1091  0.1139  0.4270
 1270DOPC   C3A14898  14.754   5.597  15.051 -0.1152 -0.2398  0.2272
 1270DOPC   C4A14899  14.718   6.070  15.090 -0.2311 -0.1374  0.2166
 1270DOPC   C1B14900  13.951   4.339  15.234  0.0127 -0.1532 -0.0174
 1270DOPC   D2B14901  14.161   4.423  14.796 -0.1635 -0.1337  0.0967
 1270DOPC   C3B14902  14.072   4.623  14.381  0.1433  0.2395 -0.0624
 1270DOPC   C4B14903  14.136   4.517  13.983  0.0223 -0.1057  0.2159
 1271POSM   NC314904  13.878  10.883  15.053 -0.3845  0.1959  0.0693
 1271POSM   PO414905  13.604  11.109  15.220  0.3506 -0.2616 -0.2345
 1271POSM   AM114906  13.344  10.979  15.134 -0.3803  0.0610 -0.2742
 1271POSM   AM214907  13.342  10.752  14.924  0.1472 -0.1880  0.4367
 1271POSM   T1A14908  12.886  11.111  14.913 -0.0814 -0.3756 -0.0999
 1271POSM   C2A14909  12.563  11.071  14.657 -0.0323 -0.2444 -0.2671
 1271POSM   C3A14910  12.311  11.001  14.303 -0.1733 -0.0742 -0.0355
 1271POSM   C1B14911  13.222  10.827  14.672 -0.0402  0.0699 -0.1162
 1271POSM   D2B14912  12.891  10.759  14.323 -0.1565  0.2011  0.4397
 1271POSM   C3B14913  12.954  10.841  13.890  0.2106  0.0056 -0.0571
 1271POSM   C4B14914  13.325  10.910  13.560 -0.2328  0.0822  0.2186
 1272DOPE   NH314915  14.828   6.879  16.011  0.1396  0.0576 -0.1316
 1272DOPE   PO414916  14.874   7.216  16.084 -0.4103 -0.2427 -0.2736
 1272DOPE   GL114917  15.023   7.373  15.814  0.0413 -0.0415 -0.3321
 1272DOPE   GL214918  14.901   7.541  15.625  0.0880 -0.0756  0.3174
 1272DOPE   C1A14919  15.263   7.282  15.430  0.2368  0.3204 -0.1739
 1272DOPE   D2A14920  15.203   7.393  14.982  0.4388 -0.2359  0.2071
 1272DOPE   C3A14921  15.339   7.726  14.666  0.0327  0.3283 -0.0832
 1272DOPE   C4A14922  15.269   8.095  14.347 -0.2780 -0.3593 -0.0878
 1272DOPE   C1B14923  14.707   7.442  15.186  0.2294 -0.0846 -0.0295
 1272DOPE   D2B14924  14.567   7.340  14.780  0.1342 -0.2514 -0.0863
 1272DOPE   C3B14925  14.406   7.690  14.449  0.0269 -0.1115  0.3206
 1272DOPE   C4B14926  14.187   7.961  14.140  0.1397 -0.0191 -0.0550
 1273DOPC   NC314927  21.471   2.349  15.549  0.3509 -0.0825 -0.1068
 1273DOPC   PO414928  21.645   2.008  15.628  0.0097 -0.2743 -0.1271
 1273DOPC   GL114929  21.434   2.024  15.228 -0.1631 -0.1762 -0.3186
 1273DOPC   GL214930  21.750   1.959  15.133  0.0838 -0.1146 -0.4307
 1273DOPC   C1A14931  21.115   1.688  15.009 -0.1708 -0.2557 -0.0089
 1273DOPC   D2A14932  21.162   1.294  14.707 -0.1608  0.1017 -0.1523
 1273DOPC   C3A14933  21.363   1.231  14.226  0.0522  0.1426  0.2052
 1273DOPC   C4A14934  21.293   1.483  13.812 -0.1585 -0.1349  0.0459
 1273DOPC   C1B14935  22.120   2.119  14.857  0.2520 -0.0802  0.3057
 1273DOPC   D2B14936  22.153   2.422  14.520  0.0740 -0.1264  0.0340
 1273DOPC   C3B14937  22.315   2.267  14.111 -0.0217  0.0435 -0.1525
 1273DOPC   C4B14938  22.226   1.842  13.911 -0.1800  0.0922  0.0768
 1274DOPC   NC314939  17.868   0.371  15.316  0.0386 -0.0221  0.0968
 1274DOPC   PO414940  17.876   0.771  15.278 -0.0260 -0.0416 -0.0816
 1274DOPC   GL114941  17.999   0.797  14.886 -0.1783 -0.0610  0.0089
 1274DOPC   GL214942  18.116   0.440  14.833  0.1562 -0.0948 -0.0307
 1274DOPC   C1A14943  18.162   1.097  14.513 -0.3223  0.1178 -0.0751
 1274DOPC   D2A14944  18.260   1.474  14.233 -0.0884 -0.0688 -0.2195
 1274DOPC   C3A14945  18.067   1.468  13.820 -0.1966  0.0979  0.2115
 1274DOPC   C4A14946  17.742   1.569  13.494  0.1819  0.1518 -0.0387
 1274DOPC   C1B14947  18.385   0.473  14.505  0.0719 -0.0287  0.1229
 1274DOPC   D2B14948  18.330   0.605  14.093  0.2144  0.1150 -0.0656
 1274DOPC   C3B14949  18.432   0.311  13.724  0.0244 -0.1948 -0.3797
 1274DOPC   C4B14950  18.482  -0.077  13.560  0.0995  0.3049  0.0584
 1275DOPC   NC314951  15.228   4.560  15.893  0.1329  0.1181  0.0935
 1275DOPC   PO414952  15.281   4.907  16.023  0.3401  0.0310 -0.2513
 1275DOPC   GL114953  15.377   4.924  15.617  0.1625 -0.2679  0.5744
 1275DOPC   GL214954  15.499   4.733  15.412 -0.0452  0.0207  0.1075
 1275DOPC   C1A14955  15.528   5.174  15.240  0.4900  0.0167 -0.0226
 1275DOPC   D2A14956  15.787   5.518  15.099 -0.1014 -0.2005  0.2331
 1275DOPC   C3A14957  15.660   5.668  14.694  0.3473  0.0961 -0.0609
 1275DOPC   C4A14958  15.687   5.549  14.191 -0.1678 -0.3608  0.0481
 1275DOPC   C1B14959  15.557   4.745  14.931  0.0554 -0.3079 -0.1625
 1275DOPC   D2B14960  15.533   4.673  14.473 -0.0721  0.0271  0.3607
 1275DOPC   C3B14961  15.096   4.696  14.369  0.0529  0.1535  0.3522
 1275DOPC   C4B14962  14.600   4.691  14.163  0.0040 -0.1612  0.1245
 1276DOPC   NC314963  22.325   7.974  15.784 -0.1696 -0.1683 -0.0630
 1276DOPC   PO414964  22.093   8.189  15.503 -0.1054 -0.1425 -0.3998
 1276DOPC   GL114965  22.006   8.298  15.035  0.2098  0.0114 -0.2365
 1276DOPC   GL214966  22.099   8.061  14.863 -0.1191 -0.2758 -0.0376
 1276DOPC   C1A14967  21.927   8.477  14.607  0.2587  0.0041  0.1256
 1276DOPC   D2A14968  21.717   8.347  14.218  0.0179  0.1997 -0.0487
 1276DOPC   C3A14969  21.403   8.616  14.112  0.3871 -0.0400 -0.2275
 1276DOPC   C4A14970  21.332   9.042  14.015 -0.0486  0.0617 -0.2940
 1276DOPC   C1B14971  22.053   7.919  14.463 -0.1943 -0.2060 -0.0969
 1276DOPC   D2B14972  21.852   7.871  14.080 -0.0710 -0.0176 -0.2227
 1276DOPC   C3B14973  21.753   7.834  13.612 -0.0905 -0.0604 -0.0906
 1276DOPC   C4B14974  21.687   8.055  13.233 -0.2135  0.3236  0.1082
 1277DOPS   CNO14975  17.463   5.373  15.888  0.1899  0.2571  0.1652
 1277DOPS   PO414976  17.814   5.312  15.761  0.1278 -0.1248  0.0613
 1277DOPS   GL114977  17.794   5.387  15.429  0.1235  0.1142  0.1465
 1277DOPS   GL214978  17.486   5.374  15.308 -0.5342 -0.0981 -0.1131
 1277DOPS   C1A14979  17.855   5.280  14.969 -0.1476  0.0243 -0.5340
 1277DOPS   D2A14980  17.843   5.446  14.561 -0.1315 -0.0134 -0.1576
 1277DOPS   C3A14981  18.079   5.574  14.187  0.0627 -0.3318 -0.2275
 1277DOPS   C4A14982  18.003   5.603  13.755 -0.0936  0.3756 -0.0860
 1277DOPS   C1B14983  17.366   5.352  14.827  0.1835 -0.1077  0.3727
 1277DOPS   D2B14984  17.222   5.599  14.483 -0.0343 -0.1011  0.0854
 1277DOPS   C3B14985  17.563   5.864  14.489 -0.1919  0.0661 -0.0158
 1277DOPS   C4B14986  17.769   6.023  14.142  0.0403  0.2993  0.0516
 1278DOPC   NC314987  18.262   3.242  16.186  0.0150 -0.3203  0.3071
 1278DOPC   PO414988  18.102   3.489  15.953  0.3009 -0.1452  0.0701
 1278DOPC   GL114989  18.322   3.689  15.662 -0.1689 -0.2088  0.1866
 1278DOPC   GL214990  18.074   3.840  15.582 -0.1933 -0.1581 -0.1563
 1278DOPC   C1A14991  18.596   3.765  15.355 -0.1287 -0.3395 -0.0563
 1278DOPC   D2A14992  18.884   3.823  14.953  0.1829 -0.1957 -0.0014
 1278DOPC   C3A14993  18.872   4.217  14.687  0.2162 -0.1584 -0.1797
 1278DOPC   C4A14994  18.821   4.603  14.868  0.1780  0.0795 -0.2451
 1278DOPC   C1B14995  18.095   4.185  15.314 -0.1276  0.3779  0.0999
 1278DOPC   D2B14996  18.175   4.519  14.948 -0.1261  0.3462  0.0053
 1278DOPC   C3B14997  18.422   4.484  14.588 -0.0727  0.1490 -0.3051
 1278DOPC   C4B14998  18.801   4.582  14.343 -0.2364 -0.4101 -0.0492
 1279DOPS   CNO14999  19.484   7.560  16.066  0.1315 -0.3261 -0.1107
 1279DOPS   PO415000  19.550   7.462  15.706  0.2625  0.0674 -0.0304
 1279DOPS   GL115001  19.490   7.544  15.320  0.3007 -0.2531 -0.1968
 1279DOPS   GL215002  19.254   7.708  15.265  0.2007  0.0440  0.0690
 1279DOPS   C1A15003  19.504   7.401  14.868  0.1596  0.1778  0.1143
 1279DOPS   D2A15004  19.655   7.142  14.478 -0.0136 -0.1716  0.1069
 1279DOPS   C3A15005  19.386   6.903  14.167 -0.0918 -0.1272  0.2763
 1279DOPS   C4A15006  19.109   7.091  13.850  0.1667  0.2943 -0.3431
 1279DOPS   C1B15007  19.079   7.612  14.804 -0.2654  0.0912 -0.1299
 1279DOPS   D2B15008  18.631   7.583  14.683 -0.1769  0.0595 -0.1592
 1279DOPS   C3B15009  18.378   7.926  14.537  0.0962  0.2003  0.3205
 1279DOPS   C4B15010  18.228   8.347  14.472 -0.3365  0.2695  0.0396
 1280POSM   NC315011  23.135   0.142  15.814  0.0035  0.0175 -0.0870
 1280POSM   PO415012  23.229   0.536  15.858 -0.0516 -0.0934  0.2030
 1280POSM   AM115013  23.488   0.379  15.695 -0.1515 -0.3051 -0.1244
 1280POSM   AM215014  23.524   0.124  15.552  0.0235  0.3462  0.3295
 1280POSM   T1A15015  23.761   0.396  15.271  0.1383  0.0831 -0.1024
 1280POSM   C2A15016  23.737   0.144  14.902  0.1842  0.0696 -0.0839
 1280POSM   C3A15017  24.063  -0.038  14.651 -0.0160 -0.2085  0.2228
 1280POSM   C1B15018  23.314   0.085  15.288  0.0572 -0.0438 -0.2307
 1280POSM   D2B15019  23.241   0.103  14.807 -0.1564 -0.1146 -0.2702
 1280POSM   C3B15020  22.802   0.290  14.719 -0.0814 -0.2179 -0.1409
 1280POSM   C4B15021  22.402   0.050  14.750 -0.0118  0.0567 -0.1428
 1281DOPS   CNO15022  16.373   4.567  16.109  0.2177  0.1609 -0.2146
 1281DOPS   PO415023  16.439   4.602  15.765  0.3285 -0.0318 -0.2809
 1281DOPS   GL115024  16.235   4.734  15.448  0.0515 -0.2078  0.1743
 1281DOPS   GL215025  16.041   4.524  15.362  0.3324  0.1356  0.1973
 1281DOPS   C1A15026  15.952   4.961  15.108 -0.2446  0.0846  0.1525
 1281DOPS   D2A15027  15.839   5.174  14.736 -0.4483  0.0979 -0.2573
 1281DOPS   C3A15028  15.464   5.160  14.447  0.0128  0.1920 -0.0434
 1281DOPS   C4A15029  15.366   4.974  14.025  0.0962 -0.2185  0.0578
 1281DOPS   C1B15030  16.002   4.442  14.949 -0.1681  0.1664  0.2427
 1281DOPS   D2B15031  15.989   4.665  14.501 -0.0902  0.0612  0.0007
 1281DOPS   C3B15032  15.978   4.471  14.070 -0.2564 -0.4049 -0.1051
 1281DOPS   C4B15033  15.928   4.254  13.688 -0.0765  0.4242  0.3658
 1282DOPS   CNO15034  12.849   2.823  15.624 -0.0744  0.2029 -0.0400
 1282DOPS   PO415035  12.600   3.127  15.663  0.1403 -0.1386  0.0805
 1282DOPS   GL115036  12.451   3.128  15.298 -0.2546  0.3881  0.3221
 1282DOPS   GL215037  12.727   3.276  15.208 -0.0190 -0.1998  0.0068
 1282DOPS   C1A15038  12.555   2.889  14.920 -0.2075 -0.0746  0.6864
 1282DOPS   D2A15039  12.137   2.759  14.672  0.1555  0.2077  0.1153
 1282DOPS   C3A15040  12.098   2.546  14.262 -0.1144 -0.0985  0.4529
 1282DOPS   C4A15041  11.867   2.564  13.880  0.1211 -0.3670 -0.0732
 1282DOPS   C1B15042  12.339   3.358  14.924 -0.0821  0.2667 -0.2537
 1282DOPS   D2B15043  12.263   3.313  14.522  0.1429 -0.2544  0.1473
 1282DOPS   C3B15044  12.434   2.951  14.353  0.2433  0.5293 -0.3844
 1282DOPS   C4B15045  12.590   2.651  14.051 -0.0852  0.1176 -0.0065
 1283DOPE   NH315046  14.881   5.616  15.948  0.2752 -0.1196  0.0926
 1283DOPE   PO415047  14.870   5.315  16.049  0.1820  0.0493 -0.2652
 1283DOPE   GL115048  14.993   5.207  15.777 -0.0329 -0.0029  0.0265
 1283DOPE   GL215049  15.233   5.321  15.626  0.0314  0.3023  0.0259
 1283DOPE   C1A15050  14.893   4.834  15.521  0.1779 -0.2291 -0.3947
 1283DOPE   D2A15051  15.021   4.514  15.303 -0.0173  0.0181  0.2989
 1283DOPE   C3A15052  15.077   4.081  15.085 -0.1367 -0.3404  0.1891
 1283DOPE   C4A15053  14.740   3.959  14.807 -0.1745  0.0699 -0.1669
 1283DOPE   C1B15054  15.014   5.180  15.228 -0.1146 -0.4194 -0.0880
 1283DOPE   D2B15055  14.913   4.825  14.859  0.2605 -0.1544 -0.0247
 1283DOPE   C3B15056  14.658   4.487  14.664 -0.0366 -0.0933 -0.1805
 1283DOPE   C4B15057  14.443   4.160  14.420  0.2001 -0.0857  0.0116
 1284DOPE   NH315058  20.564   0.762  15.562  0.1107  0.1609 -0.4346
 1284DOPE   PO415059  20.273   0.927  15.546  0.0153  0.1423 -0.0674
 1284DOPE   GL115060  20.325   0.974  15.170  0.0411 -0.1750  0.1391
 1284DOPE   GL215061  20.248   1.261  15.145  0.3107 -0.0859 -0.4098
 1284DOPE   C1A15062  20.282   0.727  14.828 -0.1484 -0.1023  0.0116
 1284DOPE   D2A15063  20.355   0.737  14.373  0.1781  0.1524  0.3050
 1284DOPE   C3A15064  20.230   1.118  14.070 -0.2023 -0.1887 -0.2665
 1284DOPE   C4A15065  20.283   1.476  13.761  0.3809 -0.0641  0.1570
 1284DOPE   C1B15066  20.236   1.659  14.918 -0.1390 -0.0491  0.2359
 1284DOPE   D2B15067  20.480   2.018  14.711  0.0738  0.4277  0.0747
 1284DOPE   C3B15068  20.847   1.751  14.576 -0.1661 -0.0913  0.0354
 1284DOPE   C4B15069  20.865   1.369  14.318  0.3538 -0.1082 -0.1712
 1285DOPE   NH315070  19.095   9.594  15.352  0.1063  0.0147  0.0252
 1285DOPE   PO415071  19.129   9.880  15.451 -0.0139 -0.0822 -0.2394
 1285DOPE   GL115072  19.201  10.022  15.089 -0.2038  0.2295  0.1527
 1285DOPE   GL215073  18.970  10.068  14.880  0.3991 -0.2027  0.0009
 1285DOPE   C1A15074  19.485  10.042  14.693 -0.3865 -0.3546 -0.1537
 1285DOPE   D2A15075  19.505  10.340  14.330 -0.2889  0.0090  0.0371
 1285DOPE   C3A15076  19.171  10.337  14.019 -0.1806  0.1555  0.0036
 1285DOPE   C4A15077  18.796  10.317  13.820  0.1237 -0.1672  0.1384
 1285DOPE   C1B15078  19.046  10.033  14.427 -0.1091  0.0921 -0.3560
 1285DOPE   D2B15079  18.967   9.871  14.035  0.3009  0.3462  0.1942
 1285DOPE   C3B15080  18.993   9.400  13.973 -0.1068 -0.3241 -0.1788
 1285DOPE   C4B15081  19.109   9.047  13.729 -0.1638 -0.0519 -0.1468
 1286DOPC   NC315082  15.734   7.266  15.629  0.0467  0.0821  0.0534
 1286DOPC   PO415083  15.743   6.987  15.899  0.1923  0.0427 -0.0922
 1286DOPC   GL115084  15.900   6.809  15.515  0.1432 -0.1952 -0.1294
 1286DOPC   GL215085  15.640   6.790  15.467 -0.2333 -0.1426 -0.0785
 1286DOPC   C1A15086  15.874   6.471  15.169  0.2578  0.1961  0.1800
 1286DOPC   D2A15087  15.867   6.313  14.744  0.1045  0.2787 -0.1206
 1286DOPC   C3A15088  15.613   6.088  14.477 -0.2593  0.1330  0.0208
 1286DOPC   C4A15089  15.653   6.052  14.006 -0.1004 -0.2037 -0.3538
 1286DOPC   C1B15090  15.565   7.063  15.105 -0.1403 -0.1086 -0.1509
 1286DOPC   D2B15091  15.667   7.368  14.782  0.0632  0.0756  0.0886
 1286DOPC   C3B15092  16.007   7.352  14.508 -0.2783  0.0857  0.0972
 1286DOPC   C4B15093  16.081   7.038  14.188 -0.1107  0.0398  0.1976
 1287DOPC   NC315094  22.786   4.245  15.404  0.1116 -0.1981  0.1825
 1287DOPC   PO415095  22.810   4.639  15.395  0.2244  0.0085  0.1730
 1287DOPC   GL115096  22.708   4.715  14.989 -0.1036 -0.3742  0.1603
 1287DOPC   GL215097  22.481   4.533  14.939 -0.0921 -0.0782  0.1953
 1287DOPC   C1A15098  22.873   4.609  14.559 -0.0815 -0.5921 -0.0769
 1287DOPC   D2A15099  23.228   4.533  14.240  0.1367  0.2851  0.1140
 1287DOPC   C3A15100  23.141   4.424  13.804  0.4261 -0.1644 -0.1919
 1287DOPC   C4A15101  23.091   4.533  13.364 -0.0544  0.0213 -0.1987
 1287DOPC   C1B15102  22.823   4.144  14.927 -0.0813  0.4724 -0.1437
 1287DOPC   D2B15103  23.218   3.882  14.939 -0.0080 -0.2491 -0.2404
 1287DOPC   C3B15104  23.428   3.675  14.595 -0.1961  0.1152 -0.0281
 1287DOPC   C4B15105  23.598   3.661  14.157  0.1964 -0.2547 -0.0992
 1288POSM   NC315106  15.003   6.110  16.646 -0.1667  0.3869 -0.0564
 1288POSM   PO415107  15.064   6.066  16.254 -0.2349  0.1157 -0.1209
 1288POSM   AM115108  15.172   5.992  15.928  0.0259  0.0764  0.2858
 1288POSM   AM215109  15.138   6.038  15.672  0.2504  0.0466  0.4614
 1288POSM   T1A15110  15.571   5.817  15.704 -0.1127  0.2306 -0.1811
 1288POSM   C2A15111  15.963   6.040  15.531  0.0765  0.1065  0.0307
 1288POSM   C3A15112  16.071   6.019  15.097  0.2020 -0.1804  0.1896
 1288POSM   C1B15113  15.171   5.837  15.406 -0.0230  0.1556  0.1519
 1288POSM   D2B15114  15.331   5.585  15.113 -0.0468  0.0877  0.1963
 1288POSM   C3B15115  15.071   5.401  14.751 -0.0975  0.0247  0.1352
 1288POSM   C4B15116  14.961   5.216  14.323  0.1427 -0.0589 -0.3328
 1289POSM   NC315117  13.087  10.451  15.592  0.1797 -0.2112  0.0118
 1289POSM   PO415118  13.432  10.577  15.499  0.1819 -0.2290 -0.3294
 1289POSM   AM115119  13.414  10.410  15.248  0.1114  0.3868  0.0361
 1289POSM   AM215120  13.225  10.248  15.142  0.0694  0.0467  0.3730
 1289POSM   T1A15121  13.624  10.062  14.929  0.2441  0.2096  0.0491
 1289POSM   C2A15122  13.721   9.658  14.802 -0.0744  0.1142  0.1135
 1289POSM   C3A15123  13.711   9.369  14.418 -0.0263 -0.1830 -0.0245
 1289POSM   C1B15124  13.208  10.261  14.788  0.0662  0.3720  0.0524
 1289POSM   D2B15125  13.302  10.364  14.317 -0.1916  0.2731 -0.1461
 1289POSM   C3B15126  12.963  10.366  14.019 -0.0575  0.2450 -0.1160
 1289POSM   C4B15127  13.081  10.440  13.540  0.2323 -0.0683  0.1575
 1290DOPE   NH315128  14.328   2.783  16.048 -0.1127 -0.1252  0.2119
 1290DOPE   PO415129  14.307   2.796  15.713  0.1917  0.2858  0.2207
 1290DOPE   GL115130  14.258   2.899  15.279 -0.0232  0.0417 -0.1951
 1290DOPE   GL215131  13.937   2.994  15.269 -0.1864 -0.1290 -0.1435
 1290DOPE   C1A15132  14.364   3.032  14.857  0.1139 -0.1073  0.0062
 1290DOPE   D2A15133  14.422   3.178  14.446  0.1041  0.0904 -0.1596
 1290DOPE   C3A15134  14.225   3.131  14.001  0.0203  0.2248 -0.2019
 1290DOPE   C4A15135  14.189   3.011  13.589  0.1536 -0.1289 -0.1189
 1290DOPE   C1B15136  13.868   2.801  14.845  0.0705  0.2199 -0.4303
 1290DOPE   D2B15137  13.998   2.841  14.403 -0.0600  0.0852  0.1884
 1290DOPE   C3B15138  14.276   2.643  14.130 -0.0670  0.2789 -0.0087
 1290DOPE   C4B15139  14.361   2.419  13.754  0.0555  0.0702 -0.2704
 1291DOPE   NH315140  12.938   3.712  16.149 -0.0104  0.1590 -0.2371
 1291DOPE   PO415141  13.024   3.663  15.807  0.1037 -0.2575  0.2306
 1291DOPE   GL115142  13.305   3.643  15.445 -0.2118 -0.0411 -0.1209
 1291DOPE   GL215143  13.227   3.403  15.384  0.1062  0.0656 -0.1873
 1291DOPE   C1A15144  13.594   3.930  15.223  0.3311 -0.0720 -0.0188
 1291DOPE   D2A15145  13.785   3.803  14.823 -0.0415 -0.4363 -0.0469
 1291DOPE   C3A15146  14.215   3.715  14.623  0.2748 -0.1090  0.4722
 1291DOPE   C4A15147  14.346   3.682  14.223  0.0702  0.0131 -0.2882
 1291DOPE   C1B15148  13.135   3.606  14.969 -0.0174 -0.0813  0.3863
 1291DOPE   D2B15149  13.135   3.733  14.528  0.1701 -0.0131 -0.3078
 1291DOPE   C3B15150  13.124   4.238  14.529  0.0701 -0.2051  0.1880
 1291DOPE   C4B15151  13.277   4.626  14.410 -0.1902 -0.0033  0.1213
 1292DOPE   NH315152  16.181  11.575  15.201 -0.4385 -0.2648 -0.1053
 1292DOPE   PO415153  16.434  11.703  15.089  0.2263 -0.1659 -0.2748
 1292DOPE   GL115154  16.549  11.812  14.724 -0.1838  0.1175 -0.5117
 1292DOPE   GL215155  16.566  12.137  14.743  0.0759  0.2755  0.2527
 1292DOPE   C1A15156  16.763  11.835  14.330 -0.2347 -0.0720 -0.1625
 1292DOPE   D2A15157  16.857  12.101  13.954 -0.1289  0.0580 -0.2578
 1292DOPE   C3A15158  16.548  11.953  13.691 -0.0120 -0.4008 -0.0287
 1292DOPE   C4A15159  16.381  11.955  13.191  0.0208 -0.2004 -0.1350
 1292DOPE   C1B15160  16.395  12.115  14.278  0.2038  0.1846 -0.0258
 1292DOPE   D2B15161  16.130  12.288  13.965  0.0495  0.1492  0.3601
 1292DOPE   C3B15162  15.913  12.634  13.817 -0.1012  0.3614  0.0363
 1292DOPE   C4B15163  16.226  12.878  13.673 -0.1044 -0.1693  0.3346
 1293DOPC   NC315164  12.058   1.546  15.158  0.0496 -0.0309  0.0305
 1293DOPC   PO415165  11.900   1.513  15.517  0.3960 -0.0698  0.0960
 1293DOPC   GL115166  11.723   1.239  15.328  0.0902  0.0059  0.3065
 1293DOPC   GL215167  11.796   1.014  15.413 -0.3907  0.0666 -0.0364
 1293DOPC   C1A15168  11.767   1.200  14.830  0.1379  0.2136 -0.1570
 1293DOPC   D2A15169  11.820   1.290  14.386 -0.0234  0.0099 -0.1366
 1293DOPC   C3A15170  12.094   1.418  14.082 -0.3588  0.0785  0.0645
 1293DOPC   C4A15171  12.253   1.710  13.757 -0.0176  0.1312  0.0244
 1293DOPC   C1B15172  11.727   0.800  15.076  0.2577  0.2146  0.1658
 1293DOPC   D2B15173  11.921   0.774  14.612 -0.0535 -0.2880 -0.1963
 1293DOPC   C3B15174  11.623   0.625  14.263  0.2871  0.1974 -0.1450
 1293DOPC   C4B15175  11.302   0.795  13.956  0.1145  0.0532 -0.1077
 1294DOPC   NC315176  12.588   5.969  15.745 -0.2056 -0.0922  0.2556
 1294DOPC   PO415177  12.667   6.081  15.355 -0.1885 -0.0552  0.2858
 1294DOPC   GL115178  12.664   6.267  15.049  0.0220  0.0653  0.2434
 1294DOPC   GL215179  12.975   6.372  15.002 -0.1139 -0.0922  0.1369
 1294DOPC   C1A15180  12.293   6.155  14.828 -0.2202 -0.1198  0.4850
 1294DOPC   D2A15181  12.103   6.075  14.440 -0.2468 -0.0596  0.1855
 1294DOPC   C3A15182  12.245   5.934  14.066  0.2062  0.1742  0.0400
 1294DOPC   C4A15183  12.063   6.131  13.708  0.2296 -0.2202 -0.2457
 1294DOPC   C1B15184  12.991   6.383  14.529 -0.1417  0.1120 -0.0224
 1294DOPC   D2B15185  12.594   6.303  14.268  0.1548 -0.2053 -0.1559
 1294DOPC   C3B15186  12.601   6.315  13.793  0.1654  0.2227 -0.0950
 1294DOPC   C4B15187  12.380   6.453  13.415  0.2179 -0.2815 -0.1239
 1295POSM   NC315188  16.901   1.988  15.876  0.3963 -0.0048 -0.0449
 1295POSM   PO415189  16.508   2.088  15.884  0.2006  0.0170 -0.0538
 1295POSM   AM115190  16.599   2.117  15.563  0.0640 -0.3957 -0.1565
 1295POSM   AM215191  16.765   1.976  15.389 -0.3360 -0.4007 -0.0124
 1295POSM   T1A15192  16.402   2.206  15.081 -0.1431  0.0045  0.0709
 1295POSM   C2A15193  16.582   2.228  14.645  0.0441  0.1177 -0.3518
 1295POSM   C3A15194  16.427   2.367  14.172 -0.2643 -0.0044 -0.1563
 1295POSM   C1B15195  16.892   2.233  15.148 -0.1057 -0.0872  0.1057
 1295POSM   D2B15196  17.089   2.506  14.768  0.1821 -0.0458  0.0291
 1295POSM   C3B15197  16.736   2.727  14.525  0.0183 -0.0563  0.0476
 1295POSM   C4B15198  16.280   2.808  14.515 -0.0283  0.0900  0.1545
 1296DOPC   NC315199  13.879  11.668  14.822  0.2472 -0.1000  0.1922
 1296DOPC   PO415200  14.029  11.376  15.038  0.1975  0.0845 -0.1336
 1296DOPC   GL115201  14.001  11.237  14.727  0.0032  0.0755 -0.5059
 1296DOPC   GL215202  14.215  11.150  14.554 -0.0030 -0.1206 -0.0595
 1296DOPC   C1A15203  13.866  11.428  14.286 -0.0950 -0.0091  0.0287
 1296DOPC   D2A15204  13.707  11.664  13.910 -0.3255  0.3436  0.2604
 1296DOPC   C3A15205  13.775  12.150  13.901 -0.3711  0.3474 -0.1080
 1296DOPC   C4A15206  13.508  12.508  14.046 -0.0924  0.2928 -0.4901
 1296DOPC   C1B15207  14.101  11.016  14.127 -0.0008 -0.4748  0.1841
 1296DOPC   D2B15208  14.194  10.827  13.708  0.0519  0.4616  0.0905
 1296DOPC   C3B15209  14.402  10.503  13.942  0.2975  0.2218  0.1913
 1296DOPC   C4B15210  14.689  10.293  13.659  0.0088 -0.1599 -0.3250
 1297DOPE   NH315211  19.255   2.565  15.920  0.0122  0.1497 -0.1494
 1297DOPE   PO415212  19.274   2.383  15.660 -0.1284 -0.1053 -0.1667
 1297DOPE   GL115213  19.351   2.100  15.369 -0.0845 -0.2094 -0.2576
 1297DOPE   GL215214  19.423   2.254  15.104  0.2005  0.0929  0.1559
 1297DOPE   C1A15215  19.373   1.807  14.968  0.1763 -0.1523  0.2209
 1297DOPE   D2A15216  19.574   1.723  14.537 -0.3075  0.1862 -0.0816
 1297DOPE   C3A15217  19.970   1.532  14.560  0.2415  0.2125  0.1772
 1297DOPE   C4A15218  20.377   1.648  14.343  0.0599  0.3766  0.2318
 1297DOPE   C1B15219  19.436   2.245  14.624  0.1445 -0.2664  0.2181
 1297DOPE   D2B15220  19.477   2.078  14.203  0.0104  0.3130 -0.4639
 1297DOPE   C3B15221  19.447   1.967  13.754 -0.1085  0.0959 -0.2106
 1297DOPE   C4B15222  19.235   2.222  13.407 -0.0009 -0.0825 -0.2117
 1298DOPC   NC315223  13.909   7.939  15.683  0.2455  0.3605  0.2867
 1298DOPC   PO415224  14.023   7.608  15.892 -0.1272 -0.0568  0.2778
 1298DOPC   GL115225  14.263   7.541  15.558 -0.2198 -0.2010  0.1443
 1298DOPC   GL215226  14.463   7.741  15.490 -0.0027 -0.2753  0.0177
 1298DOPC   C1A15227  14.237   7.311  15.119 -0.2381 -0.3063  0.1710
 1298DOPC   D2A15228  14.134   6.846  15.024  0.1121  0.1925 -0.0592
 1298DOPC   C3A15229  13.845   6.782  14.633  0.1774 -0.2796  0.0284
 1298DOPC   C4A15230  13.789   6.879  14.241 -0.3886  0.4612  0.2053
 1298DOPC   C1B15231  14.634   7.940  15.086 -0.3053 -0.0719  0.3238
 1298DOPC   D2B15232  14.847   7.764  14.672  0.0906  0.0023 -0.4736
 1298DOPC   C3B15233  14.847   7.686  14.232 -0.3125  0.0484  0.4185
 1298DOPC   C4B15234  14.670   7.571  13.840 -0.1157 -0.1390 -0.0200
 1299DOPE   NH315235  12.329   8.155  15.469 -0.2174  0.0219 -0.1104
 1299DOPE   PO415236  12.087   8.239  15.699 -0.0244 -0.3373  0.0219
 1299DOPE   GL115237  11.999   8.479  15.459 -0.0316 -0.3041  0.0578
 1299DOPE   GL215238  12.025   8.751  15.527  0.1006  0.0005  0.0970
 1299DOPE   C1A15239  11.812   8.664  15.025 -0.0862 -0.0226 -0.1630
 1299DOPE   D2A15240  11.965   8.802  14.612 -0.0986  0.0577  0.2071
 1299DOPE   C3A15241  12.406   8.975  14.537 -0.0901 -0.2724 -0.1529
 1299DOPE   C4A15242  12.788   9.122  14.254  0.0831 -0.0891 -0.2869
 1299DOPE   C1B15243  12.145   8.974  15.143 -0.2537  0.2685 -0.1346
 1299DOPE   D2B15244  12.257   9.312  14.884  0.1137 -0.0272 -0.2251
 1299DOPE   C3B15245  12.011   9.311  14.464  0.1304  0.2989 -0.2443
 1299DOPE   C4B15246  11.758   9.484  14.166 -0.0515 -0.1661 -0.0792
 1300DOPE   NH315247  20.555   1.141  16.138  0.1143  0.1976 -0.1228
 1300DOPE   PO415248  20.593   1.279  15.813 -0.0382  0.0856 -0.2126
 1300DOPE   GL115249  20.629   1.222  15.437 -0.2504 -0.1005 -0.2898
 1300DOPE   GL215250  20.815   1.445  15.356 -0.2869 -0.3197  0.0699
 1300DOPE   C1A15251  20.881   0.991  15.100 -0.2656 -0.1454 -0.1090
 1300DOPE   D2A15252  21.334   0.913  15.074  0.0137 -0.3250  0.1780
 1300DOPE   C3A15253  21.619   0.932  14.741 -0.1102 -0.1191  0.1189
 1300DOPE   C4A15254  22.032   0.809  14.495  0.1809 -0.3787  0.2582
 1300DOPE   C1B15255  20.671   1.405  14.955 -0.2557  0.0389  0.1509
 1300DOPE   D2B15256  20.377   1.214  14.605  0.2661 -0.3134 -0.1624
 1300DOPE   C3B15257  20.722   0.873  14.614  0.0385  0.0731  0.1101
 1300DOPE   C4B15258  21.176   0.741  14.594  0.1864 -0.0843 -0.3428
 1301DOPC   NC315259  14.426   3.341  15.906  0.1844  0.0470 -0.1956
 1301DOPC   PO415260  14.764   3.371  15.738  0.1158 -0.0027 -0.1255
 1301DOPC   GL115261  14.712   3.386  15.369  0.0278  0.2674  0.3728
 1301DOPC   GL215262  14.426   3.305  15.341 -0.1661 -0.0730  0.1155
 1301DOPC   C1A15263  14.797   3.039  15.122 -0.4366  0.1716 -0.0075
 1301DOPC   D2A15264  14.799   2.822  14.692  0.1161  0.0794  0.0579
 1301DOPC   C3A15265  14.782   2.695  14.297  0.0440  0.0534 -0.2453
 1301DOPC   C4A15266  14.837   2.501  13.882 -0.0971  0.0730  0.0918
 1301DOPC   C1B15267  14.645   3.461  14.881 -0.1795 -0.0944 -0.2948
 1301DOPC   D2B15268  14.802   3.524  14.468  0.1751  0.1869  0.0391
 1301DOPC   C3B15269  14.810   3.941  14.233 -0.2175 -0.1221  0.3391
 1301DOPC   C4B15270  15.021   4.218  14.010 -0.0725  0.0221 -0.0029
 1302DOPC   NC315271  15.708   4.704  15.907 -0.0111  0.1951  0.1842
 1302DOPC   PO415272  15.620   4.354  15.669  0.0268 -0.2179 -0.0647
 1302DOPC   GL115273  15.783   4.127  15.301  0.1770 -0.1621  0.2455
 1302DOPC   GL215274  15.556   4.034  15.234 -0.2085 -0.1131 -0.2238
 1302DOPC   C1A15275  15.918   3.881  14.915 -0.2924  0.1794 -0.0282
 1302DOPC   D2A15276  16.343   3.633  14.789  0.0618  0.1631  0.3497
 1302DOPC   C3A15277  16.411   3.741  14.326  0.0009  0.0737  0.1845
 1302DOPC   C4A15278  16.112   3.934  14.003 -0.1459 -0.1983 -0.2722
 1302DOPC   C1B15279  15.531   4.256  14.856 -0.0912  0.1559  0.2466
 1302DOPC   D2B15280  15.400   4.124  14.414 -0.2166 -0.2207  0.0226
 1302DOPC   C3B15281  15.596   4.052  14.076 -0.0192  0.0950 -0.0479
 1302DOPC   C4B15282  15.703   3.842  13.638  0.2332 -0.1963 -0.0387
 1303DOPC   NC315283  22.692   9.313  15.315  0.2958 -0.1964  0.0721
 1303DOPC   PO415284  22.732   8.929  15.395 -0.2928 -0.2366 -0.3585
 1303DOPC   GL115285  22.690   8.950  15.010  0.1408 -0.2939  0.0002
 1303DOPC   GL215286  22.912   8.976  14.914 -0.0165 -0.2407 -0.2487
 1303DOPC   C1A15287  22.657   8.754  14.557 -0.2185 -0.2574  0.1511
 1303DOPC   D2A15288  22.872   8.907  14.171  0.0639 -0.2334 -0.0545
 1303DOPC   C3A15289  23.021   8.721  13.783 -0.1358  0.2137  0.2179
 1303DOPC   C4A15290  22.906   8.478  13.353  0.1685 -0.0320  0.0476
 1303DOPC   C1B15291  23.207   8.858  14.530 -0.1721 -0.1001  0.1244
 1303DOPC   D2B15292  23.365   8.708  14.109 -0.2413  0.1543 -0.0515
 1303DOPC   C3B15293  23.487   8.824  13.687  0.0942  0.0063 -0.0472
 1303DOPC   C4B15294  23.495   8.858  13.232  0.0856 -0.2389  0.2867
 1304DOPC   NC315295  11.955   2.359  15.613 -0.0766  0.2258  0.0741
 1304DOPC   PO415296  11.944   2.006  15.394  0.0958  0.1930  0.1980
 1304DOPC   GL115297  11.652   1.991  15.123  0.3617 -0.1021 -0.2210
 1304DOPC   GL215298  11.492   1.684  15.212  0.0630 -0.1484  0.0820
 1304DOPC   C1A15299  11.608   1.768  14.749  0.3814 -0.1279  0.2067
 1304DOPC   D2A15300  11.326   1.621  14.370 -0.0456 -0.3742 -0.3357
 1304DOPC   C3A15301  11.280   2.001  14.066  0.0086  0.0365 -0.0328
 1304DOPC   C4A15302  11.474   2.063  13.670 -0.0418 -0.1551 -0.2039
 1304DOPC   C1B15303  11.211   1.437  14.929  0.1624 -0.0622  0.0211
 1304DOPC   D2B15304  10.929   1.393  14.586 -0.1308  0.1264 -0.1243
 1304DOPC   C3B15305  10.645   1.758  14.539  0.0064 -0.2771 -0.0003
 1304DOPC   C4B15306  10.551   2.243  14.604  0.0614 -0.1404  0.1756
 1305DOPC   NC315307  17.373   3.746  15.973  0.2276  0.0811  0.0976
 1305DOPC   PO415308  17.663   3.621  15.753  0.2090 -0.1881  0.0782
 1305DOPC   GL115309  17.497   3.735  15.380 -0.0558  0.1645  0.3923
 1305DOPC   GL215310  17.676   3.913  15.262  0.0455  0.1634 -0.2266
 1305DOPC   C1A15311  17.262   3.805  15.017 -0.2671  0.0814  0.1314
 1305DOPC   D2A15312  17.276   3.645  14.587 -0.1603  0.2464 -0.1912
 1305DOPC   C3A15313  17.585   3.700  14.259 -0.1348  0.3982  0.0776
 1305DOPC   C4A15314  17.987   3.516  14.095  0.0008 -0.2241  0.0093
 1305DOPC   C1B15315  17.621   3.476  15.037 -0.2122  0.1758  0.0090
 1305DOPC   D2B15316  17.721   3.253  14.663 -0.3733 -0.0757 -0.2033
 1305DOPC   C3B15317  17.514   3.213  14.278  0.0017  0.1345  0.0833
 1305DOPC   C4B15318  17.235   3.052  13.914 -0.2916  0.1944 -0.0381
 1306DOPE   NH315319  22.049   6.481  15.540 -0.0777 -0.1537 -0.2093
 1306DOPE   PO415320  21.880   6.711  15.440 -0.0559  0.0886 -0.0077
 1306DOPE   GL115321  21.775   6.882  15.080  0.0259 -0.1054  0.2427
 1306DOPE   GL215322  21.580   7.068  15.082  0.0914 -0.4820  0.0466
 1306DOPE   C1A15323  21.899   6.932  14.647  0.1533  0.4874 -0.0373
 1306DOPE   D2A15324  21.921   6.638  14.244  0.1242  0.1899  0.0555
 1306DOPE   C3A15325  22.038   6.579  13.827 -0.0203  0.2214  0.3597
 1306DOPE   C4A15326  22.080   6.490  13.328  0.0344  0.0572  0.1868
 1306DOPE   C1B15327  21.224   6.963  14.831 -0.3358  0.3258  0.0428
 1306DOPE   D2B15328  20.943   6.927  14.548 -0.3537 -0.0840 -0.4269
 1306DOPE   C3B15329  21.079   6.906  14.154  0.0491 -0.3170 -0.2574
 1306DOPE   C4B15330  21.015   6.731  13.739  0.2013 -0.0916 -0.1495
 1307DOPE   NH315331  20.091   6.317  15.640 -0.1507 -0.1792  0.0718
 1307DOPE   PO415332  20.336   6.370  15.833  0.0926  0.3018  0.3425
 1307DOPE   GL115333  20.576   6.317  15.553  0.3419 -0.1092 -0.4136
 1307DOPE   GL215334  20.491   6.506  15.328 -0.1013 -0.2246  0.2211
 1307DOPE   C1A15335  20.781   6.146  15.164  0.2534 -0.0483 -0.0256
 1307DOPE   D2A15336  21.163   6.086  14.873  0.0386  0.3365 -0.4709
 1307DOPE   C3A15337  21.299   6.101  14.392 -0.1651 -0.1118  0.0550
 1307DOPE   C4A15338  21.143   6.178  13.980  0.1137  0.0783  0.1963
 1307DOPE   C1B15339  20.716   6.548  14.916  0.2806  0.0847 -0.0094
 1307DOPE   D2B15340  20.920   6.398  14.501 -0.0949  0.0912  0.0972
 1307DOPE   C3B15341  20.709   6.501  14.142  0.1787  0.0620 -0.1521
 1307DOPE   C4B15342  20.283   6.593  14.047  0.0394  0.0600  0.0749
 1308POSM   NC315343  16.634   8.885  15.781 -0.1546 -0.0802  0.1808
 1308POSM   PO415344  17.003   8.971  15.944 -0.1615  0.0898  0.3023
 1308POSM   AM115345  17.227   8.983  15.669  0.4238  0.2101  0.0371
 1308POSM   AM215346  17.430   9.184  15.673  0.3931  0.3428 -0.3813
 1308POSM   T1A15347  17.411   8.743  15.279  0.2724 -0.2157  0.0659
 1308POSM   C2A15348  17.363   8.417  15.011 -0.0061 -0.0311  0.0129
 1308POSM   C3A15349  17.450   8.054  14.678  0.1492  0.0318 -0.3849
 1308POSM   C1B15350  17.369   9.257  15.344  0.0196  0.3015 -0.3547
 1308POSM   D2B15351  17.235   9.244  14.936 -0.4197  0.2103  0.3521
 1308POSM   C3B15352  17.542   8.912  14.814 -0.0235 -0.1957  0.2478
 1308POSM   C4B15353  17.851   8.529  14.823 -0.2880  0.1465 -0.2136
 1309DOPC   NC315354  18.821   0.571  15.866  0.0796 -0.2353 -0.1119
 1309DOPC   PO415355  18.817   0.468  15.514  0.1286 -0.1485 -0.0481
 1309DOPC   GL115356  18.944   0.573  15.184 -0.0202  0.0434 -0.2247
 1309DOPC   GL215357  19.195   0.448  15.114  0.1423  0.1596  0.0526
 1309DOPC   C1A15358  19.153   0.814  14.794 -0.0735 -0.1552 -0.1577
 1309DOPC   D2A15359  19.316   0.906  14.374  0.2304  0.0469  0.0486
 1309DOPC   C3A15360  19.546   0.644  14.221  0.0873  0.0405  0.2187
 1309DOPC   C4A15361  19.987   0.682  14.057 -0.0793 -0.2422 -0.0547
 1309DOPC   C1B15362  19.510   0.242  14.799  0.2748  0.1426 -0.4140
 1309DOPC   D2B15363  19.782  -0.104  14.738 -0.1203 -0.1004  0.0221
 1309DOPC   C3B15364  19.737  -0.265  14.268  0.0819 -0.1970  0.2373
 1309DOPC   C4B15365  19.951  -0.500  13.965  0.3837 -0.0200 -0.3065
 1310POSM   NC315366  15.898   2.070  15.945  0.2180 -0.2604 -0.4124
 1310POSM   PO415367  15.556   1.888  16.065  0.1709  0.0625  0.2427
 1310POSM   AM115368  15.520   1.863  15.738  0.2674  0.0997 -0.0277
 1310POSM   AM215369  15.273   1.893  15.561 -0.2638  0.2314  0.1905
 1310POSM   T1A15370  15.680   1.895  15.288  0.1893  0.3412 -0.1491
 1310POSM   C2A15371  15.757   2.004  14.831 -0.0995 -0.1080 -0.0893
 1310POSM   C3A15372  16.117   2.047  14.496  0.1642 -0.1324 -0.1762
 1310POSM   C1B15373  15.099   1.726  15.322 -0.0571  0.2252 -0.0781
 1310POSM   D2B15374  14.886   1.557  14.904 -0.2187 -0.0872  0.0212
 1310POSM   C3B15375  14.984   1.130  14.794  0.2214 -0.1133 -0.3224
 1310POSM   C4B15376  15.096   0.736  14.540 -0.1906  0.4540 -0.1994
 1311POSM   NC315377  13.267  11.281  15.605 -0.0250  0.1810  0.0590
 1311POSM   PO415378  13.108  10.984  15.479 -0.2475 -0.0090  0.0747
 1311POSM   AM115379  12.938  10.848  15.264  0.2028  0.2133  0.1719
 1311POSM   AM215380  12.889  10.621  15.090 -0.0853  0.1482 -0.1690
 1311POSM   T1A15381  12.440  10.998  15.131  0.0562  0.1750  0.1053
 1311POSM   C2A15382  12.262  11.341  15.015  0.1464 -0.1166  0.1932
 1311POSM   C3A15383  12.194  11.759  15.029  0.1046 -0.0448 -0.1997
 1311POSM   C1B15384  12.751  10.622  14.792 -0.0678 -0.0289  0.0764
 1311POSM   D2B15385  12.456  10.528  14.398 -0.0507 -0.0491 -0.2124
 1311POSM   C3B15386  12.495  10.180  14.137 -0.1503  0.4115  0.2547
 1311POSM   C4B15387  12.680  10.045  13.735  0.0311  0.0017 -0.1571
 1312DOPS   CNO15388  16.780   6.428  15.606  0.0603 -0.1391 -0.1135
 1312DOPS   PO415389  16.610   6.733  15.832 -0.0224  0.2021  0.2098
 1312DOPS   GL115390  16.620   6.889  15.444  0.0539 -0.0484 -0.0141
 1312DOPS   GL215391  16.440   6.772  15.281 -0.0537 -0.1228  0.2520
 1312DOPS   C1A15392  16.956   6.853  15.147 -0.0775 -0.1661 -0.1984
 1312DOPS   D2A15393  17.305   6.810  14.874 -0.5702 -0.1448 -0.1219
 1312DOPS   C3A15394  17.218   6.797  14.422  0.2226  0.0282 -0.0328
 1312DOPS   C4A15395  16.991   6.501  14.160  0.0647 -0.2851 -0.4582
 1312DOPS   C1B15396  16.292   6.520  14.942  0.1457  0.2749 -0.1668
 1312DOPS   D2B15397  16.316   6.731  14.499  0.3258  0.0781 -0.2344
 1312DOPS   C3B15398  16.511   6.635  14.061 -0.0945 -0.0556  0.3705
 1312DOPS   C4B15399  16.534   6.712  13.587  0.2915  0.1307 -0.2628
 1313DOPC   NC315400  14.357   9.485  15.740 -0.3668  0.1252  0.2902
 1313DOPC   PO415401  14.701   9.630  15.918 -0.0148  0.0153 -0.0320
 1313DOPC   GL115402  14.791   9.542  15.509 -0.0651 -0.1582  0.0320
 1313DOPC   GL215403  14.955   9.274  15.507  0.0623  0.1309 -0.2857
 1313DOPC   C1A15404  14.477   9.611  15.163  0.0902 -0.1182 -0.0998
 1313DOPC   D2A15405  14.099   9.869  15.060 -0.1003  0.0350  0.0057
 1313DOPC   C3A15406  14.088  10.130  14.651 -0.0469 -0.2554 -0.2944
 1313DOPC   C4A15407  13.699  10.387  14.600  0.1733  0.1813  0.2465
 1313DOPC   C1B15408  15.209   9.022  15.246  0.0651  0.0710 -0.1346
 1313DOPC   D2B15409  15.462   8.735  14.959 -0.1731 -0.0173  0.0276
 1313DOPC   C3B15410  15.268   8.654  14.538  0.1945  0.2854  0.0956
 1313DOPC   C4B15411  15.049   8.526  14.116 -0.0535  0.1619 -0.2398
 1314DOPE   NH315412  15.049   7.725  16.186 -0.0989  0.0555 -0.0966
 1314DOPE   PO415413  15.224   7.794  15.944 -0.0830  0.2648  0.1203
 1314DOPE   GL115414  15.503   7.634  15.712 -0.1004  0.0770 -0.1054
 1314DOPE   GL215415  15.734   7.840  15.725 -0.0849  0.0903  0.3534
 1314DOPE   C1A15416  15.577   7.662  15.231  0.1304 -0.1685 -0.3013
 1314DOPE   D2A15417  15.877   7.783  14.939  0.1482  0.0652 -0.2319
 1314DOPE   C3A15418  15.759   7.832  14.450  0.0621  0.3620  0.0933
 1314DOPE   C4A15419  15.418   7.711  14.126  0.0832  0.4645  0.0728
 1314DOPE   C1B15420  15.985   8.114  15.414  0.1223 -0.0966  0.1493
 1314DOPE   D2B15421  16.106   8.339  14.993 -0.1887  0.0853  0.0701
 1314DOPE   C3B15422  15.864   8.598  14.699 -0.2269  0.1578 -0.1506
 1314DOPE   C4B15423  15.692   8.823  14.308  0.2029  0.0321  0.2004
 1315DOPE   NH315424  17.230   1.432  15.456 -0.0572  0.1626 -0.1743
 1315DOPE   PO415425  17.165   1.734  15.589 -0.0476 -0.2788  0.0391
 1315DOPE   GL115426  17.150   1.819  15.132 -0.3132 -0.0931  0.0048
 1315DOPE   GL215427  17.218   1.558  14.979  0.0905  0.2829 -0.0352
 1315DOPE   C1A15428  16.684   1.787  15.007 -0.0358  0.4016  0.0385
 1315DOPE   D2A15429  16.427   1.505  14.711 -0.1393 -0.0739 -0.0022
 1315DOPE   C3A15430  16.243   1.521  14.280  0.1293  0.1195 -0.0574
 1315DOPE   C4A15431  16.195   1.905  14.022  0.1092 -0.2021  0.1341
 1315DOPE   C1B15432  16.912   1.409  14.617 -0.0707 -0.1017  0.3495
 1315DOPE   D2B15433  16.827   1.292  14.221  0.1450  0.4060 -0.1671
 1315DOPE   C3B15434  17.006   1.366  13.796  0.2391  0.0978  0.3165
 1315DOPE   C4B15435  17.229   1.509  13.372  0.1914  0.2126 -0.0978
 1316DOPC   NC315436  18.754   3.448  15.745 -0.2332  0.1405  0.0471
 1316DOPC   PO415437  18.439   3.206  15.719 -0.0860 -0.1130 -0.1834
 1316DOPC   GL115438  18.191   3.086  15.466  0.3582 -0.1906  0.1959
 1316DOPC   GL215439  18.080   3.385  15.438  0.1240  0.3616  0.0391
 1316DOPC   C1A15440  18.189   2.961  15.015  0.3305 -0.3616 -0.0802
 1316DOPC   D2A15441  18.031   2.828  14.634  0.0383  0.1332  0.0117
 1316DOPC   C3A15442  17.892   2.664  14.256  0.0899 -0.2202  0.1990
 1316DOPC   C4A15443  18.042   2.393  13.899 -0.0388 -0.0792  0.2394
 1316DOPC   C1B15444  18.068   3.678  15.069  0.0481  0.2969 -0.1028
 1316DOPC   D2B15445  17.787   3.808  14.703  0.0140 -0.1363  0.0677
 1316DOPC   C3B15446  18.089   3.950  14.354  0.1478  0.0310 -0.3063
 1316DOPC   C4B15447  18.182   4.207  13.976  0.0972 -0.1712 -0.1393
 1317POSM   NC315448  19.379   7.913  15.691 -0.0141 -0.4821 -0.1139
 1317POSM   PO415449  19.539   8.201  15.465 -0.0596  0.2204  0.0303
 1317POSM   AM115450  19.582   8.474  15.285  0.3274 -0.0297 -0.4852
 1317POSM   AM215451  19.688   8.745  15.221  0.1504 -0.2357 -0.3210
 1317POSM   T1A15452  19.314   8.584  14.928  0.1175  0.2768  0.0463
 1317POSM   C2A15453  19.398   8.758  14.516 -0.0774  0.0968  0.1341
 1317POSM   C3A15454  19.047   8.903  14.237  0.0408 -0.0095  0.3752
 1317POSM   C1B15455  19.792   8.776  14.884 -0.0595  0.4191 -0.0026
 1317POSM   D2B15456  19.882   8.633  14.495 -0.0355 -0.0713  0.0651
 1317POSM   C3B15457  19.811   8.259  14.277 -0.2392 -0.1007  0.3445
 1317POSM   C4B15458  19.496   7.960  13.993 -0.1300 -0.0943  0.0016
 1318POSM   NC315459  14.661  10.739  15.191 -0.2112  0.0975 -0.1743
 1318POSM   PO415460  14.380  10.805  14.930  0.1355 -0.2229 -0.2311
 1318POSM   AM115461  14.187  10.746  14.708 -0.2475 -0.1025  0.3681
 1318POSM   AM215462  14.161  10.558  14.484  0.3749 -0.0872 -0.0323
 1318POSM   T1A15463  13.782  10.866  14.507  0.1383  0.2724 -0.1293
 1318POSM   C2A15464  13.456  10.945  14.234  0.1280 -0.1267  0.3320
 1318POSM   C3A15465  13.267  11.277  13.909  0.1995  0.1180  0.0933
 1318POSM   C1B15466  13.996  10.502  14.195 -0.0649  0.0136 -0.0022
 1318POSM   D2B15467  13.678  10.551  13.876 -0.1711 -0.3045 -0.2427
 1318POSM   C3B15468  13.587  10.270  13.524  0.1196  0.3637  0.1714
 1318POSM   C4B15469  13.318  10.298  13.098 -0.2024 -0.5043  0.1772
 1319DOPC   NC315470  20.105   9.649  15.342  0.1636  0.2370 -0.0449
 1319DOPC   PO415471  20.378   9.895  15.395  0.0314 -0.1670 -0.0164
 1319DOPC   GL115472  20.482   9.998  15.021 -0.2740 -0.0592  0.0424
 1319DOPC   GL215473  20.196  10.082  14.971 -0.2907  0.1570  0.3043
 1319DOPC   C1A15474  20.799   9.918  14.742  0.1771 -0.1421  0.1225
 1319DOPC   D2A15475  20.752   9.865  14.310 -0.0289  0.1156  0.0845
 1319DOPC   C3A15476  20.485  10.042  14.007  0.3370 -0.2132  0.0801
 1319DOPC   C4A15477  20.220  10.284  13.661 -0.0405  0.1007 -0.3283
 1319DOPC   C1B15478  19.993  10.112  14.576  0.0464 -0.1181  0.3212
 1319DOPC   D2B15479  19.967  10.084  14.116  0.2892 -0.3215 -0.1570
 1319DOPC   C3B15480  19.900   9.823  13.730 -0.1222 -0.1381 -0.0914
 1319DOPC   C4B15481  20.202   9.732  13.396  0.0899 -0.1038  0.0646
 1320DOPS   CNO15482  16.476   7.616  16.076  0.1496 -0.0888 -0.1570
 1320DOPS   PO415483  16.302   7.599  15.709 -0.2613  0.0372 -0.2359
 1320DOPS   GL115484  16.455   7.398  15.466 -0.1464 -0.2519  0.1143
 1320DOPS   GL215485  16.148   7.350  15.281 -0.1017  0.0640  0.0942
 1320DOPS   C1A15486  16.588   7.522  15.022 -0.1599  0.4076  0.0561
 1320DOPS   D2A15487  16.680   7.488  14.603  0.0503 -0.2730  0.3013
 1320DOPS   C3A15488  16.401   7.410  14.233  0.0832  0.0307  0.4921
 1320DOPS   C4A15489  16.290   7.378  13.816  0.0096 -0.0949 -0.3272
 1320DOPS   C1B15490  16.104   6.977  14.987  0.0582 -0.0666 -0.1531
 1320DOPS   D2B15491  15.808   6.782  14.708  0.0287  0.0386  0.2316
 1320DOPS   C3B15492  15.409   6.987  14.692 -0.1860 -0.0674 -0.1239
 1320DOPS   C4B15493  15.122   7.297  14.521  0.4726  0.1664 -0.2944
 1321DOPE   NH315494  22.452   4.980  15.359 -0.2885 -0.1638 -0.1406
 1321DOPE   PO415495  22.330   5.056  15.091  0.1676  0.3231 -0.4389
 1321DOPE   GL115496  22.087   5.023  14.779 -0.0245  0.3200  0.0435
 1321DOPE   GL215497  21.786   5.134  14.869 -0.3114  0.0742  0.2520
 1321DOPE   C1A15498  21.864   4.754  14.497 -0.2971 -0.1437  0.0913
 1321DOPE   D2A15499  21.743   4.666  14.102  0.1449  0.2263  0.0177
 1321DOPE   C3A15500  21.913   4.977  13.766  0.2352  0.1238  0.2639
 1321DOPE   C4A15501  22.183   5.045  13.409  0.0541  0.0580  0.0712
 1321DOPE   C1B15502  21.518   5.116  14.466  0.3017 -0.0051 -0.1206
 1321DOPE   D2B15503  21.433   5.137  13.999 -0.0889 -0.2997  0.3080
 1321DOPE   C3B15504  21.115   5.428  13.866  0.1410 -0.1792 -0.2386
 1321DOPE   C4B15505  20.824   5.794  13.800  0.1366 -0.1249  0.1284
 1322DOPS   CNO15506  16.436   9.372  15.885 -0.0375  0.0346 -0.3164
 1322DOPS   PO415507  16.490   9.340  15.544 -0.0703  0.2784 -0.1377
 1322DOPS   GL115508  16.824   9.225  15.281  0.3073  0.1066  0.4314
 1322DOPS   GL215509  16.885   8.956  15.356 -0.0418 -0.0577 -0.2208
 1322DOPS   C1A15510  16.729   9.184  14.840 -0.0362  0.0621  0.0774
 1322DOPS   D2A15511  16.923   9.151  14.471 -0.1454  0.0345 -0.2389
 1322DOPS   C3A15512  16.678   8.960  14.107 -0.1412 -0.0839  0.1619
 1322DOPS   C4A15513  16.377   8.859  13.798 -0.0637 -0.0537  0.1069
 1322DOPS   C1B15514  17.019   8.765  14.979  0.2090 -0.1496  0.0431
 1322DOPS   D2B15515  17.242   8.591  14.589 -0.2713 -0.0740 -0.1321
 1322DOPS   C3B15516  17.068   8.660  14.172  0.1827  0.0619  0.1134
 1322DOPS   C4B15517  17.182   8.919  13.801 -0.2031 -0.2172  0.0633
 1323DOPS   CNO15518  13.832   1.583  16.154 -0.0305 -0.1899 -0.0390
 1323DOPS   PO415519  13.996   1.485  15.794 -0.1846 -0.3182 -0.1015
 1323DOPS   GL115520  13.945   1.543  15.355  0.3467 -0.0229  0.1010
 1323DOPS   GL215521  13.934   1.796  15.385 -0.1454 -0.0712 -0.1693
 1323DOPS   C1A15522  13.725   1.294  15.044 -0.1009  0.0381  0.1736
 1323DOPS   D2A15523  13.592   0.888  14.885 -0.0089  0.3534 -0.0258
 1323DOPS   C3A15524  13.158   0.908  14.665  0.2868  0.0055 -0.1671
 1323DOPS   C4A15525  12.843   0.996  14.288 -0.3357  0.0768 -0.4550
 1323DOPS   C1B15526  14.006   1.710  14.927  0.0379  0.0756 -0.0395
 1323DOPS   D2B15527  13.760   1.547  14.538  0.1223  0.3119  0.0887
 1323DOPS   C3B15528  13.905   1.477  14.121  0.0443 -0.3824 -0.0199
 1323DOPS   C4B15529  14.096   1.181  13.838  0.4452  0.1830  0.4336
 1324POSM   NC315530  13.275   7.269  15.884 -0.1528 -0.1731 -0.0788
 1324POSM   PO415531  13.650   7.252  15.733  0.1609  0.0833 -0.0484
 1324POSM   AM115532  13.724   7.508  15.518 -0.0171  0.2664  0.3910
 1324POSM   AM215533  13.567   7.692  15.394 -0.0057  0.0886 -0.0583
 1324POSM   T1A15534  14.048   7.767  15.195 -0.2293 -0.1178 -0.3959
 1324POSM   C2A15535  14.212   8.058  14.863 -0.0685 -0.0703  0.1096
 1324POSM   C3A15536  14.484   8.457  14.875  0.0802 -0.1312  0.1735
 1324POSM   C1B15537  13.570   7.654  15.069 -0.1020  0.1081  0.0964
 1324POSM   D2B15538  13.838   7.715  14.671  0.2207 -0.0637  0.4817
 1324POSM   C3B15539  13.806   8.136  14.462  0.1658  0.3351  0.0954
 1324POSM   C4B15540  13.718   8.364  14.058  0.0142  0.1606 -0.0776
 1325POSM   NC315541  20.688   5.704  15.507 -0.1866  0.2474 -0.0592
 1325POSM   PO415542  20.360   5.893  15.635 -0.2004 -0.2175 -0.3876
 1325POSM   AM115543  20.251   5.911  15.325  0.4387 -0.0553 -0.4148
 1325POSM   AM215544  20.177   6.120  15.208 -0.1020  0.0531 -0.0978
 1325POSM   T1A15545  19.931   5.724  14.965 -0.2316  0.4147 -0.1899
 1325POSM   C2A15546  19.744   5.765  14.547 -0.4648 -0.0436  0.0458
 1325POSM   C3A15547  19.750   5.690  14.119  0.0632  0.3595 -0.1713
 1325POSM   C1B15548  20.334   6.145  14.876  0.1255  0.0634  0.1603
 1325POSM   D2B15549  20.392   6.239  14.477 -0.2675  0.3165  0.2839
 1325POSM   C3B15550  20.116   6.045  14.157  0.1619  0.0281  0.2719
 1325POSM   C4B15551  20.122   5.687  13.839  0.2195  0.0035 -0.1307
 1326DOPC   NC315552  14.711   1.979  15.961 -0.0011  0.0104 -0.0560
 1326DOPC   PO415553  14.602   2.366  15.849 -0.4581 -0.0231  0.1310
 1326DOPC   GL115554  14.582   2.164  15.538 -0.2063 -0.1734  0.1549
 1326DOPC   GL215555  14.889   2.188  15.416 -0.1608 -0.0818  0.0633
 1326DOPC   C1A15556  14.324   2.032  15.198  0.2797  0.0168  0.0795
 1326DOPC   D2A15557  14.418   2.062  14.807  0.0057 -0.1422 -0.0257
 1326DOPC   C3A15558  14.348   1.717  14.484  0.2922  0.1862  0.2614
 1326DOPC   C4A15559  14.389   1.541  14.059 -0.3674  0.0531 -0.0121
 1326DOPC   C1B15560  14.853   2.086  14.992  0.1597  0.2347  0.0425
 1326DOPC   D2B15561  14.858   2.246  14.536  0.0071 -0.1661 -0.5460
 1326DOPC   C3B15562  14.842   1.816  14.329  0.1207 -0.1347 -0.0974
 1326DOPC   C4B15563  14.832   1.318  14.375 -0.2053 -0.4818  0.1882
 1327POSM   NC315564  16.892  11.507  15.166 -0.2187 -0.3164  0.1791
 1327POSM   PO415565  16.640  11.169  15.127 -0.5547 -0.0744  0.1039
 1327POSM   AM115566  16.684  11.194  14.792 -0.1801 -0.1374  0.3361
 1327POSM   AM215567  16.731  11.387  14.600 -0.2244 -0.0323  0.0704
 1327POSM   T1A15568  16.635  10.792  14.511  0.0180 -0.0551  0.2059
 1327POSM   C2A15569  16.681  10.421  14.191  0.1413  0.3191 -0.0247
 1327POSM   C3A15570  16.638  10.146  13.792 -0.1570  0.1113  0.1028
 1327POSM   C1B15571  16.763  11.242  14.299 -0.1131 -0.0116  0.1099
 1327POSM   D2B15572  16.784  10.881  14.012 -0.1589  0.1608 -0.0457
 1327POSM   C3B15573  16.513  10.693  13.643 -0.0869  0.1344 -0.1650
 1327POSM   C4B15574  16.322  10.782  13.267  0.0558 -0.5426  0.0577
 1328DOPC   NC315575  18.598   7.365  15.700 -0.0620 -0.0292 -0.2973
 1328DOPC   PO415576  18.350   7.087  15.550  0.2918 -0.5193  0.0237
 1328DOPC   GL115577  18.398   6.800  15.424 -0.0321  0.0861 -0.3840
 1328DOPC   GL215578  18.376   6.807  15.151 -0.0754  0.0296  0.3755
 1328DOPC   C1A15579  18.573   6.352  15.386  0.4490 -0.3240  0.0660
 1328DOPC   D2A15580  18.314   5.945  15.486 -0.1199  0.0285  0.1040
 1328DOPC   C3A15581  18.020   5.777  15.187 -0.1412  0.2205  0.1830
 1328DOPC   C4A15582  17.632   5.730  15.011  0.4923  0.1476 -0.0120
 1328DOPC   C1B15583  18.360   6.509  14.802  0.0883 -0.1526 -0.0079
 1328DOPC   D2B15584  18.538   6.318  14.386 -0.2369  0.3049  0.0583
 1328DOPC   C3B15585  18.963   6.169  14.611  0.1998 -0.2909  0.1055
 1328DOPC   C4B15586  19.318   5.898  14.767 -0.1996 -0.3022  0.1419
 1329POSM   NC315587  18.582   4.948  16.405  0.1415  0.0803  0.2361
 1329POSM   PO415588  18.665   5.288  16.232  0.2514 -0.1694 -0.4465
 1329POSM   AM115589  18.691   5.327  15.900 -0.2771  0.1223  0.0796
 1329POSM   AM215590  18.700   5.169  15.648  0.2659 -0.0717 -0.0122
 1329POSM   T1A15591  18.767   5.700  15.622 -0.1008  0.1124  0.1235
 1329POSM   C2A15592  18.775   5.962  15.249 -0.3991  0.6092  0.2321
 1329POSM   C3A15593  18.564   6.082  14.854 -0.0248 -0.2369  0.0494
 1329POSM   C1B15594  18.632   5.339  15.364 -0.0462  0.2707  0.0341
 1329POSM   D2B15595  18.344   5.381  14.994  0.1471  0.1840  0.1784
 1329POSM   C3B15596  18.250   5.728  14.677  0.0203  0.0933  0.0473
 1329POSM   C4B15597  18.062   6.140  14.519 -0.2173  0.1687 -0.1125
 1330POSM   NC315598  20.292   1.577  15.565  0.0257  0.0039  0.0853
 1330POSM   PO415599  19.952   1.763  15.635 -0.0046 -0.0177 -0.0886
 1330POSM   AM115600  19.788   1.741  15.328  0.0779  0.1638  0.4798
 1330POSM   AM215601  19.769   1.504  15.107  0.0349 -0.1578  0.0895
 1330POSM   T1A15602  19.833   1.951  14.867 -0.0242 -0.0460  0.2389
 1330POSM   C2A15603  20.009   2.043  14.464  0.1599  0.1717  0.0225
 1330POSM   C3A15604  19.930   1.837  14.024  0.0845 -0.0747 -0.2373
 1330POSM   C1B15605  19.826   1.191  14.922  0.0811 -0.1438  0.1106
 1330POSM   D2B15606  19.963   1.009  14.464  0.0966 -0.2630  0.1834
 1330POSM   C3B15607  19.758   1.220  14.183  0.0144 -0.0736 -0.1426
 1330POSM   C4B15608  19.528   1.028  13.890  0.2324 -0.0872 -0.3271
 1331DOPC   NC315609  13.774   2.665  15.630 -0.5085 -0.0931  0.0524
 1331DOPC   PO415610  13.444   2.836  15.817  0.1908  0.1102  0.0386
 1331DOPC   GL115611  13.527   3.068  15.512 -0.0345 -0.1890  0.1769
 1331DOPC   GL215612  13.318   2.913  15.325  0.3691  0.2743  0.0463
 1331DOPC   C1A15613  13.778   3.502  15.417  0.1978  0.0144  0.0743
 1331DOPC   D2A15614  14.107   3.583  15.133 -0.0114 -0.1415 -0.0048
 1331DOPC   C3A15615  13.952   3.276  14.791 -0.2057 -0.2431  0.1713
 1331DOPC   C4A15616  13.983   3.334  14.345 -0.0015 -0.3671 -0.1393
 1331DOPC   C1B15617  13.475   3.161  14.992 -0.2011  0.1887 -0.1099
 1331DOPC   D2B15618  13.526   3.384  14.577  0.2252  0.0420  0.0642
 1331DOPC   C3B15619  13.516   3.646  14.171 -0.1752 -0.2739 -0.3005
 1331DOPC   C4B15620  13.607   3.600  13.715 -0.1380  0.0168  0.1093
 1332DOPE   NH315621  14.194   1.963  15.818  0.0891 -0.4702 -0.2107
 1332DOPE   PO415622  14.112   2.307  15.790  0.3975 -0.0111 -0.2810
 1332DOPE   GL115623  14.165   2.441  15.414  0.1508 -0.2265  0.1201
 1332DOPE   GL215624  13.952   2.408  15.222  0.0176 -0.0464  0.1515
 1332DOPE   C1A15625  14.448   2.538  15.084  0.0847  0.0424 -0.2441
 1332DOPE   D2A15626  14.406   2.567  14.612  0.2731  0.2168 -0.1681
 1332DOPE   C3A15627  14.397   2.198  14.317 -0.1379  0.1638 -0.1035
 1332DOPE   C4A15628  14.605   1.971  13.940  0.0386 -0.1320 -0.2089
 1332DOPE   C1B15629  13.887   2.226  14.786 -0.2234 -0.0833  0.2267
 1332DOPE   D2B15630  13.896   1.980  14.396 -0.2924 -0.1283  0.0373
 1332DOPE   C3B15631  13.514   1.971  14.161 -0.3169  0.1140  0.3192
 1332DOPE   C4B15632  13.141   2.022  13.947 -0.1436 -0.2910 -0.0066
 1333DOPC   NC315633  12.641   4.443  15.561  0.1346  0.0663  0.1520
 1333DOPC   PO415634  12.449   4.741  15.651  0.1348 -0.2267 -0.4705
 1333DOPC   GL115635  12.521   4.902  15.286  0.0827 -0.0663  0.0916
 1333DOPC   GL215636  12.339   4.756  15.152  0.2564 -0.1661  0.1269
 1333DOPC   C1A15637  12.789   5.135  14.972 -0.4170  0.0611 -0.1776
 1333DOPC   D2A15638  12.980   5.424  14.611  0.1898  0.2491  0.3754
 1333DOPC   C3A15639  13.142   5.132  14.240 -0.1677  0.0729 -0.1372
 1333DOPC   C4A15640  13.541   5.233  14.005 -0.1030 -0.0247  0.0622
 1333DOPC   C1B15641  12.811   4.620  15.069 -0.1051 -0.0751  0.0521
 1333DOPC   D2B15642  13.208   4.692  14.855 -0.1390 -0.1517  0.0997
 1333DOPC   C3B15643  13.342   5.124  14.763 -0.1293 -0.0176  0.1328
 1333DOPC   C4B15644  13.442   5.491  14.525  0.1619 -0.0218  0.1106
 1334POSM   NC315645  21.081   7.646  15.693  0.1708  0.5127 -0.1565
 1334POSM   PO415646  21.369   7.893  15.527 -0.0271  0.2625  0.0800
 1334POSM   AM115647  21.248   7.822  15.223 -0.0056  0.3852 -0.6560
 1334POSM   AM215648  21.032   7.856  15.040  0.1312  0.3799 -0.0625
 1334POSM   T1A15649  21.389   7.555  14.882  0.0871  0.0469  0.1842
 1334POSM   C2A15650  21.425   7.291  14.505 -0.1327 -0.1094 -0.0490
 1334POSM   C3A15651  21.679   7.069  14.168  0.3039 -0.1192 -0.0807
 1334POSM   C1B15652  20.963   7.895  14.634 -0.1856 -0.1594 -0.0161
 1334POSM   D2B15653  20.914   7.733  14.188  0.1108  0.2110  0.2926
 1334POSM   C3B15654  20.837   7.969  13.762  0.0390 -0.1960 -0.0569
 1334POSM   C4B15655  20.794   8.226  13.369  0.0435  0.0575 -0.0794
 1335POSM   NC315656  12.380  10.489  15.349  0.3170  0.2228  0.2397
 1335POSM   PO415657  12.540  10.350  15.695  0.0490 -0.3705  0.4084
 1335POSM   AM115658  12.552  10.114  15.450 -0.1341  0.2350  0.1042
 1335POSM   AM215659  12.807  10.079  15.278 -0.0965  0.0934 -0.1505
 1335POSM   T1A15660  12.306   9.869  15.099  0.2566  0.1830  0.1259
 1335POSM   C2A15661  11.963   9.716  14.865 -0.2747  0.0726  0.0557
 1335POSM   C3A15662  11.586   9.587  14.636 -0.0999 -0.0090 -0.4942
 1335POSM   C1B15663  12.735  10.166  14.966 -0.1252 -0.2736  0.0284
 1335POSM   D2B15664  12.840  10.203  14.494 -0.0858  0.0756 -0.2425
 1335POSM   C3B15665  12.883   9.880  14.172 -0.0911 -0.1955  0.2490
 1335POSM   C4B15666  12.915   9.561  13.892  0.0904  0.3205 -0.0790
 1336POSM   NC315667  14.279   6.324  16.185  0.1505 -0.3526 -0.0346
 1336POSM   PO415668  14.403   6.680  16.134 -0.3440 -0.3314  0.1617
 1336POSM   AM115669  14.518   6.645  15.784  0.2061 -0.2059 -0.3547
 1336POSM   AM215670  14.373   6.662  15.579 -0.2508 -0.2360 -0.0724
 1336POSM   T1A15671  14.898   6.501  15.481 -0.0166 -0.1279 -0.1548
 1336POSM   C2A15672  15.222   6.313  15.253  0.2030 -0.0135  0.1094
 1336POSM   C3A15673  15.550   6.093  15.264  0.0094 -0.0274  0.2818
 1336POSM   C1B15674  14.395   6.475  15.333  0.0688  0.1335  0.1976
 1336POSM   D2B15675  14.437   6.431  14.861  0.0449 -0.1316  0.2210
 1336POSM   C3B15676  14.203   6.388  14.425  0.1007 -0.0336  0.1502
 1336POSM   C4B15677  14.088   6.383  14.019 -0.0545 -0.1009  0.0210
 1337POSM   NC315678  14.516  11.305  15.008  0.0640  0.0278  0.0758
 1337POSM   PO415679  14.396  11.663  14.872  0.0969 -0.3668 -0.0633
 1337POSM   AM115680  14.457  11.538  14.602 -0.0066 -0.1575  0.0567
 1337POSM   AM215681  14.643  11.324  14.542 -0.2956  0.2637  0.2556
 1337POSM   T1A15682  14.398  11.451  14.080 -0.0380 -0.0939 -0.0194
 1337POSM   C2A15683  14.158  11.364  13.752 -0.1708 -0.1748 -0.1420
 1337POSM   C3A15684  13.785  11.141  13.703 -0.0337 -0.1136 -0.0679
 1337POSM   C1B15685  14.887  11.316  14.267  0.2769 -0.0381 -0.2148
 1337POSM   D2B15686  15.037  11.239  13.816 -0.2178 -0.0064 -0.1184
 1337POSM   C3B15687  14.997  10.871  13.556  0.1597  0.3197 -0.0665
 1337POSM   C4B15688  14.572  10.695  13.410  0.3099 -0.1505 -0.1241
 1338DOPC   NC315689  23.861   7.173  15.172 -0.1247 -0.0290 -0.5228
 1338DOPC   PO415690  23.477   7.324  15.164  0.1283 -0.1729 -0.1207
 1338DOPC   GL115691  23.190   7.249  14.944  0.0622  0.0854  0.2950
 1338DOPC   GL215692  23.130   6.967  14.974 -0.0023  0.0186 -0.0001
 1338DOPC   C1A15693  22.844   7.411  14.668  0.0384 -0.0414 -0.1220
 1338DOPC   D2A15694  22.500   7.609  14.431  0.2503  0.2267 -0.4278
 1338DOPC   C3A15695  22.777   7.958  14.308  0.1516  0.3595 -0.1734
 1338DOPC   C4A15696  23.199   7.987  14.132 -0.0648  0.0743 -0.1744
 1338DOPC   C1B15697  22.809   6.940  14.634 -0.1402  0.0069 -0.3365
 1338DOPC   D2B15698  22.663   7.139  14.264 -0.1112  0.0199 -0.2331
 1338DOPC   C3B15699  22.844   7.516  14.136 -0.1588 -0.1803  0.2296
 1338DOPC   C4B15700  22.824   7.812  13.815  0.2313  0.0111  0.3802
 1339POSM   NC315701  21.719   7.959  15.197 -0.0977  0.2881  0.2172
 1339POSM   PO415702  22.019   7.731  15.276 -0.1855 -0.2150  0.1020
 1339POSM   AM115703  22.045   7.593  15.005 -0.0492  0.2198 -0.1327
 1339POSM   AM215704  21.873   7.548  14.762 -0.1973 -0.1037 -0.0366
 1339POSM   T1A15705  22.287   7.208  14.837 -0.0110  0.2982 -0.1896
 1339POSM   C2A15706  22.327   6.865  14.555  0.0945 -0.2610  0.3007
 1339POSM   C3A15707  22.444   6.651  14.129 -0.0240  0.0958  0.2182
 1339POSM   C1B15708  21.925   7.417  14.485 -0.0056  0.1116  0.0299
 1339POSM   D2B15709  22.172   7.235  14.148 -0.0989 -0.1305 -0.0195
 1339POSM   C3B15710  21.951   7.431  13.785 -0.0915  0.0377  0.1238
 1339POSM   C4B15711  21.537   7.402  13.594 -0.3101  0.2880  0.0370
 1340DOPS   CNO15712  16.968   5.978  15.875  0.1399 -0.0971 -0.0503
 1340DOPS   PO415713  16.769   5.869  15.602  0.4817  0.0145  0.1973
 1340DOPS   GL115714  16.668   5.800  15.223  0.1385 -0.2051  0.0849
 1340DOPS   GL215715  16.440   5.652  15.174 -0.1802  0.0698  0.1005
 1340DOPS   C1A15716  16.671   6.041  14.808  0.3134 -0.0568 -0.2518
 1340DOPS   D2A15717  16.371   6.214  14.510  0.0496  0.0237 -0.1245
 1340DOPS   C3A15718  16.458   6.098  14.082 -0.0602  0.1066  0.0638
 1340DOPS   C4A15719  16.542   5.771  13.791 -0.0553 -0.2075  0.0882
 1340DOPS   C1B15720  16.172   5.569  14.803 -0.3271  0.0115 -0.1456
 1340DOPS   D2B15721  16.113   5.818  14.405 -0.1765  0.3484 -0.0187
 1340DOPS   C3B15722  16.182   5.526  14.000 -0.0218 -0.0083 -0.0352
 1340DOPS   C4B15723  16.282   5.097  13.802 -0.0600 -0.0780 -0.2181
 1341DOPS   CNO15724  12.737   7.225  15.710 -0.1730 -0.2706  0.2194
 1341DOPS   PO415725  12.485   7.011  15.566 -0.1022  0.1966 -0.0557
 1341DOPS   GL115726  12.478   7.221  15.237  0.1748  0.0972  0.0447
 1341DOPS   GL215727  12.323   7.157  15.045  0.1774  0.4122  0.0196
 1341DOPS   C1A15728  12.532   7.545  14.885  0.3608 -0.0300 -0.2538
 1341DOPS   D2A15729  12.872   7.664  14.563 -0.0735  0.1048 -0.2345
 1341DOPS   C3A15730  13.059   7.350  14.227  0.1135 -0.3895 -0.0495
 1341DOPS   C4A15731  13.194   7.071  13.876 -0.1030  0.1062 -0.2572
 1341DOPS   C1B15732  12.294   7.148  14.638  0.2878  0.0451  0.1814
 1341DOPS   D2B15733  12.458   7.460  14.364 -0.0875  0.4583 -0.1387
 1341DOPS   C3B15734  12.549   7.394  13.942 -0.2624 -0.0943 -0.1059
 1341DOPS   C4B15735  12.307   7.298  13.549  0.3169  0.3375  0.2237
 1342DOPS   CNO15736  17.394   7.278  15.838  0.1302  0.0246  0.4766
 1342DOPS   PO415737  17.408   7.630  15.679 -0.3354 -0.0005  0.1770
 1342DOPS   GL115738  17.272   7.551  15.315 -0.0113  0.2465 -0.1049
 1342DOPS   GL215739  17.284   7.255  15.272 -0.2670  0.0366  0.2150
 1342DOPS   C1A15740  17.047   7.784  15.050 -0.1304  0.1699  0.1198
 1342DOPS   D2A15741  16.680   7.992  14.789 -0.1975 -0.0207 -0.1318
 1342DOPS   C3A15742  16.912   8.225  14.450 -0.0774  0.0579  0.4244
 1342DOPS   C4A15743  16.995   8.085  14.072 -0.2669  0.1617 -0.2752
 1342DOPS   C1B15744  17.095   7.326  14.823 -0.0859 -0.0316  0.1220
 1342DOPS   D2B15745  17.185   7.549  14.439 -0.0886 -0.1995 -0.0349
 1342DOPS   C3B15746  17.105   7.375  14.079  0.2329  0.3301  0.0587
 1342DOPS   C4B15747  17.168   7.365  13.624  0.0254 -0.0218  0.0618
 1343POSM   NC315748  19.385   3.460  16.177  0.4799 -0.0320 -0.1107
 1343POSM   PO415749  19.198   3.329  15.821 -0.1748  0.0182  0.3115
 1343POSM   AM115750  19.209   3.351  15.497 -0.2567  0.1214  0.2253
 1343POSM   AM215751  19.468   3.344  15.345 -0.2362 -0.3606 -0.3058
 1343POSM   T1A15752  19.076   3.372  14.983 -0.0120 -0.0418  0.0313
 1343POSM   C2A15753  18.946   3.476  14.591 -0.1201 -0.1053 -0.1619
 1343POSM   C3A15754  18.658   3.411  14.209 -0.3172  0.1759  0.0123
 1343POSM   C1B15755  19.608   3.268  15.030 -0.0070 -0.1496  0.0332
 1343POSM   D2B15756  19.822   3.294  14.631 -0.0611  0.1154 -0.0137
 1343POSM   C3B15757  19.993   3.026  14.301 -0.0013  0.3308  0.0701
 1343POSM   C4B15758  20.397   3.137  13.982  0.0647  0.1365  0.0436
 1344DOPE   NH315759  20.523  11.657  15.501 -0.0232  0.1149  0.1726
 1344DOPE   PO415760  20.289  11.550  15.666  0.0189  0.3047  0.0022
 1344DOPE   GL115761  20.088  11.572  15.374 -0.0407  0.2905  0.1567
 1344DOPE   GL215762  19.932  11.250  15.470  0.1776 -0.0097  0.0948
 1344DOPE   C1A15763  19.855  11.567  14.955  0.1594  0.4618 -0.0059
 1344DOPE   D2A15764  19.668  11.688  14.535  0.1470  0.4792  0.2216
 1344DOPE   C3A15765  19.522  11.430  14.217 -0.0561  0.1229  0.0583
 1344DOPE   C4A15766  19.660  11.062  13.983  0.1163 -0.1712  0.1985
 1344DOPE   C1B15767  19.929  11.031  14.989 -0.2202 -0.0554  0.2611
 1344DOPE   D2B15768  19.679  10.733  14.702  0.0665  0.2010  0.0876
 1344DOPE   C3B15769  19.897  10.633  14.227  0.1828 -0.2454 -0.2148
 1344DOPE   C4B15770  20.173  10.773  13.833  0.0229 -0.0005 -0.2847
 1345POSM   NC315771  17.055   0.600  15.366  0.1868  0.0201  0.0434
 1345POSM   PO415772  16.935   0.976  15.439 -0.0213 -0.2597  0.3510
 1345POSM   AM115773  16.702   0.924  15.201 -0.0645  0.1805  0.0804
 1345POSM   AM215774  16.666   1.023  14.925 -0.1530  0.3492  0.1107
 1345POSM   T1A15775  16.254   0.665  15.132  0.0170 -0.4884 -0.2318
 1345POSM   C2A15776  16.103   0.347  15.424 -0.0753  0.2833 -0.0497
 1345POSM   C3A15777  15.673   0.119  15.467  0.0844 -0.0009  0.1035
 1345POSM   C1B15778  16.515   1.012  14.636 -0.3401 -0.0909 -0.1107
 1345POSM   D2B15779  16.250   0.958  14.237 -0.1292 -0.1908  0.2280
 1345POSM   C3B15780  16.442   1.176  13.894  0.0764 -0.2141 -0.3102
 1345POSM   C4B15781  16.582   1.414  13.444 -0.2286  0.1941 -0.0131
 1346DOPS   CNO15782  19.254   7.080  16.079 -0.2157 -0.1046 -0.0314
 1346DOPS   PO415783  19.074   7.100  15.769 -0.2481  0.0401  0.4267
 1346DOPS   GL115784  19.232   7.215  15.478  0.2631 -0.1038 -0.4461
 1346DOPS   GL215785  18.960   7.252  15.274 -0.0767  0.0898 -0.1025
 1346DOPS   C1A15786  19.352   6.859  15.168  0.3125 -0.1055 -0.4092
 1346DOPS   D2A15787  19.191   6.901  14.730  0.1450 -0.0776 -0.2953
 1346DOPS   C3A15788  19.046   7.165  14.422 -0.5464 -0.4919  0.3144
 1346DOPS   C4A15789  18.643   7.257  14.261 -0.0932  0.0879 -0.1830
 1346DOPS   C1B15790  18.789   7.148  14.886  0.0294 -0.2083 -0.2182
 1346DOPS   D2B15791  18.366   7.088  14.709 -0.1142  0.0596  0.1897
 1346DOPS   C3B15792  18.238   6.903  14.352 -0.0008  0.0940  0.0680
 1346DOPS   C4B15793  18.018   6.531  14.186 -0.3595  0.0164 -0.0458
 1347POSM   NC315794  21.511   5.200  15.864  0.0676 -0.2060  0.1583
 1347POSM   PO415795  21.466   4.843  15.679 -0.5347  0.3463  0.1512
 1347POSM   AM115796  21.414   4.857  15.375  0.0528 -0.1739  0.2416
 1347POSM   AM215797  21.559   4.799  15.161 -0.1263  0.2979 -0.0007
 1347POSM   T1A15798  21.261   5.161  14.980 -0.3651 -0.1806 -0.2303
 1347POSM   C2A15799  20.925   5.309  14.684 -0.0051  0.1454 -0.0667
 1347POSM   C3A15800  20.809   5.529  14.310  0.0068  0.0199 -0.0583
 1347POSM   C1B15801  21.500   4.684  14.847  0.0541  0.1105  0.1785
 1347POSM   D2B15802  21.424   4.441  14.411 -0.1717  0.3570 -0.1640
 1347POSM   C3B15803  21.171   4.616  14.114  0.1328  0.1635  0.2542
 1347POSM   C4B15804  21.212   4.645  13.697 -0.0705 -0.1958  0.0075
 1348POSM   NC315805  16.366   3.937  16.144 -0.1372 -0.1456  0.3847
 1348POSM   PO415806  16.698   3.834  15.915  0.1746 -0.0060 -0.1873
 1348POSM   AM115807  16.667   3.728  15.604  0.3244 -0.1267  0.0250
 1348POSM   AM215808  16.637   3.420  15.530 -0.0386 -0.2188  0.1117
 1348POSM   T1A15809  16.730   3.713  15.106 -0.2937  0.0665  0.1622
 1348POSM   C2A15810  16.984   3.347  15.043 -0.1252 -0.1253 -0.3032
 1348POSM   C3A15811  17.300   3.013  14.884  0.1673  0.2063 -0.1560
 1348POSM   C1B15812  16.578   3.185  15.287  0.0588  0.0736  0.0970
 1348POSM   D2B15813  16.537   3.076  14.850 -0.4589  0.1914  0.0144
 1348POSM   C3B15814  16.530   3.236  14.417 -0.1109  0.1887  0.2309
 1348POSM   C4B15815  16.680   3.361  14.013  0.1693  0.1621  0.1642
 1349POSM   NC315816  14.902   8.181  16.004  0.0510 -0.0956  0.0901
 1349POSM   PO415817  14.738   8.492  16.197 -0.1711 -0.0775  0.0782
 1349POSM   AM115818  14.731   8.610  15.873 -0.1421 -0.0952  0.0545
 1349POSM   AM215819  14.834   8.704  15.574  0.0353  0.0955  0.3079
 1349POSM   T1A15820  14.463   8.456  15.491 -0.1838  0.0490  0.0129
 1349POSM   C2A15821  14.146   8.211  15.325  0.0041  0.3054  0.1442
 1349POSM   C3A15822  13.689   8.160  15.071 -0.1882 -0.1032 -0.2274
 1349POSM   C1B15823  14.673   8.874  15.293 -0.1232 -0.2167 -0.2287
 1349POSM   D2B15824  14.462   9.117  14.904  0.1173  0.0744  0.0243
 1349POSM   C3B15825  14.434   9.142  14.424  0.1336 -0.0257 -0.0635
 1349POSM   C4B15826  14.421   8.925  14.034 -0.0571  0.1447 -0.0557
 1350DOPE   NH315827  23.079   8.629  15.475 -0.2590  0.1167  0.2485
 1350DOPE   PO415828  23.190   8.860  15.285 -0.2431 -0.0724  0.1437
 1350DOPE   GL115829  23.186   8.606  14.996 -0.1461 -0.0674  0.0403
 1350DOPE   GL215830  23.473   8.518  14.938  0.2006  0.0339 -0.1133
 1350DOPE   C1A15831  22.968   8.420  14.602  0.0246  0.2160 -0.0151
 1350DOPE   D2A15832  22.882   8.403  14.134 -0.0338  0.2072 -0.0024
 1350DOPE   C3A15833  22.669   8.240  13.757  0.3026 -0.0804  0.0657
 1350DOPE   C4A15834  22.703   8.030  13.315 -0.0843 -0.0564  0.2223
 1350DOPE   C1B15835  23.435   8.343  14.526  0.0192 -0.0222 -0.1110
 1350DOPE   D2B15836  23.642   8.282  14.104  0.1454 -0.1317 -0.1162
 1350DOPE   C3B15837  23.348   8.338  13.756 -0.4097 -0.0504 -0.0807
 1350DOPE   C4B15838  23.441   8.350  13.365 -0.1647  0.1709  0.0819
 1351DOPE   NH315839  12.398   7.549  15.528  0.0458  0.0441 -0.0984
 1351DOPE   PO415840  12.676   7.684  15.569 -0.1243  0.1557 -0.0826
 1351DOPE   GL115841  12.800   7.612  15.239 -0.2798  0.1670  0.1886
 1351DOPE   GL215842  12.935   7.307  15.235  0.2694 -0.1814  0.2527
 1351DOPE   C1A15843  13.134   7.796  15.040  0.1035  0.2284  0.1488
 1351DOPE   D2A15844  13.413   7.976  14.684  0.2255  0.0099  0.1105
 1351DOPE   C3A15845  13.305   8.185  14.294 -0.0497  0.0244 -0.0252
 1351DOPE   C4A15846  13.231   8.486  13.904 -0.4636  0.0559  0.0320
 1351DOPE   C1B15847  12.873   7.098  14.821  0.0542 -0.0108 -0.3093
 1351DOPE   D2B15848  12.716   6.984  14.397  0.2043 -0.1725 -0.0100
 1351DOPE   C3B15849  12.722   6.760  14.062  0.0811  0.0235  0.1026
 1351DOPE   C4B15850  12.441   6.854  13.688  0.0393  0.0732 -0.0288
 1352DOPS   CNO15851  22.896   0.901  15.720 -0.0053 -0.1308  0.1223
 1352DOPS   PO415852  22.549   1.070  15.663 -0.1668  0.0919 -0.1281
 1352DOPS   GL115853  22.486   0.732  15.450 -0.3541 -0.0155  0.0804
 1352DOPS   GL215854  22.552   0.851  15.182  0.0185 -0.0124  0.0941
 1352DOPS   C1A15855  22.248   0.394  15.231  0.2686  0.2621 -0.0105
 1352DOPS   D2A15856  21.980   0.064  15.117  0.1001  0.0100  0.0416
 1352DOPS   C3A15857  22.276  -0.174  15.150 -0.0024 -0.0252  0.1667
 1352DOPS   C4A15858  22.501  -0.570  15.282  0.3049  0.0488 -0.4420
 1352DOPS   C1B15859  22.364   0.609  14.784  0.2833 -0.0102 -0.2810
 1352DOPS   D2B15860  22.254   0.336  14.400  0.1783 -0.1733  0.0847
 1352DOPS   C3B15861  22.554   0.333  14.074  0.0932 -0.0497  0.0528
 1352DOPS   C4B15862  22.876   0.595  14.080 -0.1073  0.0694  0.0731
 1353DOPS   CNO15863  12.150   4.364  15.423 -0.0499 -0.0610 -0.2585
 1353DOPS   PO415864  11.986   4.692  15.563  0.0964 -0.0486  0.0467
 1353DOPS   GL115865  11.867   4.851  15.189  0.3487  0.0078 -0.4453
 1353DOPS   GL215866  11.725   5.136  15.182  0.2980  0.1922 -0.0626
 1353DOPS   C1A15867  12.010   4.759  14.730 -0.1097 -0.1609  0.0380
 1353DOPS   D2A15868  11.757   4.660  14.362 -0.0011  0.1615 -0.1815
 1353DOPS   C3A15869  11.535   4.409  14.039 -0.0763  0.1022  0.1712
 1353DOPS   C4A15870  11.119   4.470  13.856  0.0882  0.2073 -0.2553
 1353DOPS   C1B15871  11.507   5.503  14.925 -0.0112 -0.3376  0.1469
 1353DOPS   D2B15872  11.581   5.778  14.497  0.2833  0.0856  0.0057
 1353DOPS   C3B15873  11.374   5.839  14.112 -0.1476  0.2803 -0.1567
 1353DOPS   C4B15874  11.091   5.840  13.760  0.0242  0.1714 -0.3103
 1354DOPE   NH315875  15.205   9.797  15.542  0.4106  0.1321 -0.0866
 1354DOPE   PO415876  15.404   9.680  15.324 -0.3881  0.0619  0.0718
 1354DOPE   GL115877  15.330   9.460  15.022  0.0716  0.5612  0.0929
 1354DOPE   GL215878  15.557   9.276  15.050  0.0409  0.0492  0.2785
 1354DOPE   C1A15879  15.248   9.638  14.617 -0.1389 -0.0554  0.2436
 1354DOPE   D2A15880  15.212   9.657  14.125 -0.1511  0.2278 -0.1560
 1354DOPE   C3A15881  14.810   9.322  14.047  0.4515 -0.1986  0.1248
 1354DOPE   C4A15882  14.847   8.903  13.832 -0.0205  0.1592  0.4026
 1354DOPE   C1B15883  15.320   9.136  14.693  0.3334  0.0056 -0.4151
 1354DOPE   D2B15884  15.207   9.076  14.237 -0.0647  0.0898 -0.2146
 1354DOPE   C3B15885  15.351   8.912  13.785 -0.0329 -0.0730  0.1870
 1354DOPE   C4B15886  15.162   8.939  13.355 -0.0173 -0.0631  0.0362
 1355DOPC   NC315887  16.336  10.552  15.407 -0.4655  0.1295  0.1549
 1355DOPC   PO415888  16.007  10.544  15.179 -0.1347  0.0545  0.1029
 1355DOPC   GL115889  16.225  10.238  14.983  0.2371  0.2250 -0.1229
 1355DOPC   GL215890  16.482  10.217  15.004 -0.0966 -0.2398  0.2056
 1355DOPC   C1A15891  16.259  10.330  14.517  0.0935 -0.1811 -0.2090
 1355DOPC   D2A15892  16.110  10.491  14.084 -0.2777  0.2333 -0.0589
 1355DOPC   C3A15893  15.634  10.563  14.009  0.0479  0.1451 -0.3105
 1355DOPC   C4A15894  15.292  10.841  14.045  0.0839  0.0815  0.0999
 1355DOPC   C1B15895  16.732  10.339  14.665  0.1232  0.2426  0.1650
 1355DOPC   D2B15896  17.109  10.393  14.400  0.0828 -0.0838 -0.2549
 1355DOPC   C3B15897  17.155  10.347  13.904 -0.2457  0.1806  0.1982
 1355DOPC   C4B15898  17.094  10.557  13.554  0.2078  0.0235 -0.1161
 1356DOPE   NH315899  17.786   9.333  16.053  0.0597  0.3369 -0.0626
 1356DOPE   PO415900  18.063   9.336  15.877 -0.2416  0.1597 -0.3342
 1356DOPE   GL115901  17.902   9.135  15.495 -0.1570 -0.0047  0.0021
 1356DOPE   GL215902  17.949   8.777  15.440  0.0628  0.0916 -0.2209
 1356DOPE   C1A15903  17.991   9.128  15.024 -0.2155  0.0112 -0.0603
 1356DOPE   D2A15904  18.204   8.970  14.667 -0.2109  0.0989 -0.1383
 1356DOPE   C3A15905  18.561   8.709  14.668  0.1099 -0.1227 -0.5810
 1356DOPE   C4A15906  18.940   8.565  14.624 -0.1451 -0.0194 -0.1435
 1356DOPE   C1B15907  17.876   8.309  15.308  0.1123 -0.3701  0.0778
 1356DOPE   D2B15908  17.558   7.929  15.207  0.1571 -0.0419  0.0088
 1356DOPE   C3B15909  17.559   7.615  14.886 -0.1227 -0.3629 -0.0383
 1356DOPE   C4B15910  17.694   7.493  14.474  0.0027  0.0194  0.2845
 1357DOPC   NC315911  10.798   3.909  15.457 -0.1042 -0.2186 -0.0192
 1357DOPC   PO415912  11.121   4.080  15.481  0.1470  0.0623  0.1814
 1357DOPC   GL115913  11.286   3.801  15.179 -0.0190  0.0851  0.3711
 1357DOPC   GL215914  11.497   3.982  15.027  0.0548  0.0126  0.0150
 1357DOPC   C1A15915  11.141   3.393  15.104 -0.2503  0.1177  0.3425
 1357DOPC   D2A15916  10.814   3.169  14.790  0.1967 -0.0090 -0.0966
 1357DOPC   C3A15917  10.837   3.260  14.352  0.1316 -0.1718  0.1718
 1357DOPC   C4A15918  10.798   3.010  14.016  0.1913  0.0422  0.0695
 1357DOPC   C1B15919  11.956   3.974  15.041  0.1491  0.2862  0.1484
 1357DOPC   D2B15920  12.305   3.802  14.695  0.1017 -0.1771  0.0105
 1357DOPC   C3B15921  12.231   3.835  14.255 -0.0548 -0.0641  0.0522
 1357DOPC   C4B15922  12.163   3.668  13.838 -0.0608 -0.0319  0.0704
 1358DOPE   NH315923  21.090   4.464  15.787 -0.0060  0.1203 -0.3188
 1358DOPE   PO415924  21.234   4.444  15.491  0.4616  0.0073  0.0831
 1358DOPE   GL115925  21.071   4.340  15.151  0.2458  0.1663  0.3133
 1358DOPE   GL215926  21.042   4.583  15.007  0.2702 -0.2048 -0.0613
 1358DOPE   C1A15927  21.053   4.199  14.665 -0.1225  0.0079 -0.1636
 1358DOPE   D2A15928  21.112   4.127  14.152 -0.1817 -0.0248  0.3154
 1358DOPE   C3A15929  21.370   4.029  13.757  0.0977  0.0988  0.3096
 1358DOPE   C4A15930  21.438   3.808  13.310  0.3259  0.2192 -0.5467
 1358DOPE   C1B15931  21.076   4.797  14.575 -0.3919  0.1213  0.3812
 1358DOPE   D2B15932  21.009   5.084  14.165 -0.1585  0.2262 -0.1371
 1358DOPE   C3B15933  20.740   4.811  13.927 -0.0202 -0.2312 -0.0670
 1358DOPE   C4B15934  20.699   4.972  13.457 -0.1837  0.3529  0.1047
 1359DOPE   NH315935  21.391   8.317  15.236  0.2367 -0.0370 -0.0364
 1359DOPE   PO415936  21.144   8.451  15.054  0.1621  0.1729 -0.1644
 1359DOPE   GL115937  21.226   8.153  14.803 -0.4667 -0.2690 -0.1973
 1359DOPE   GL215938  21.532   8.196  14.781 -0.1612  0.0863  0.1272
 1359DOPE   C1A15939  21.151   8.269  14.368 -0.0665  0.3620 -0.1646
 1359DOPE   D2A15940  21.309   8.090  13.993 -0.0481  0.0592  0.0789
 1359DOPE   C3A15941  21.269   7.837  13.610  0.0527 -0.2874  0.0171
 1359DOPE   C4A15942  21.444   7.674  13.193 -0.0003  0.2786 -0.0719
 1359DOPE   C1B15943  21.515   7.850  14.474 -0.2398 -0.2494 -0.1975
 1359DOPE   D2B15944  21.380   7.548  14.056  0.3557  0.2203 -0.1333
 1359DOPE   C3B15945  20.999   7.416  13.794  0.2770 -0.4230  0.2863
 1359DOPE   C4B15946  20.794   7.507  13.374  0.3640 -0.1263  0.1092
 1360DOPC   NC315947  13.619   0.703  15.342 -0.4191  0.2054 -0.1781
 1360DOPC   PO415948  13.870   0.459  15.552  0.1680 -0.1194  0.2326
 1360DOPC   GL115949  14.018   0.269  15.183 -0.1188 -0.0224  0.0247
 1360DOPC   GL215950  13.786   0.225  15.100 -0.2784  0.1337 -0.1598
 1360DOPC   C1A15951  14.252   0.523  14.879 -0.0807  0.0726  0.1976
 1360DOPC   D2A15952  14.580   0.759  14.742  0.0047 -0.1145 -0.0272
 1360DOPC   C3A15953  14.679   0.670  14.317  0.0243  0.0146 -0.0111
 1360DOPC   C4A15954  14.974   0.756  13.962 -0.1547 -0.1415  0.1717
 1360DOPC   C1B15955  13.467   0.146  14.756 -0.1452  0.0509 -0.0902
 1360DOPC   D2B15956  13.429   0.157  14.291  0.3570 -0.1213 -0.1442
 1360DOPC   C3B15957  13.164   0.472  14.117  0.0684 -0.1977 -0.1979
 1360DOPC   C4B15958  13.363   0.917  14.111 -0.2146  0.1488  0.1132
 1361DOPC   NC315959  22.021   4.648  15.087 -0.3513 -0.1239 -0.0005
 1361DOPC   PO415960  22.237   4.464  15.336  0.0275 -0.0612  0.1523
 1361DOPC   GL115961  22.375   4.142  15.151  0.2109 -0.3173 -0.2068
 1361DOPC   GL215962  22.079   4.004  15.179 -0.1492 -0.1469 -0.2357
 1361DOPC   C1A15963  22.353   4.049  14.702 -0.2906  0.0237  0.0413
 1361DOPC   D2A15964  22.415   3.813  14.327  0.0782  0.1490  0.2539
 1361DOPC   C3A15965  22.387   3.369  14.373  0.0515  0.0085 -0.2036
 1361DOPC   C4A15966  22.746   3.133  14.361  0.1017  0.0004 -0.0256
 1361DOPC   C1B15967  21.756   3.833  14.844 -0.2275 -0.2471 -0.0830
 1361DOPC   D2B15968  21.417   3.862  14.530 -0.0298 -0.0568  0.0259
 1361DOPC   C3B15969  21.568   3.811  14.099 -0.1569  0.1024 -0.1035
 1361DOPC   C4B15970  21.321   3.543  13.767  0.1720 -0.0208  0.0534
 1362DOPE   NH315971  19.007   1.960  15.680  0.2515  0.1311 -0.2162
 1362DOPE   PO415972  18.784   2.181  15.751 -0.2289  0.0373  0.0836
 1362DOPE   GL115973  18.689   2.386  15.364 -0.3104  0.0232  0.0606
 1362DOPE   GL215974  18.913   2.574  15.196 -0.1208 -0.2322 -0.1152
 1362DOPE   C1A15975  18.391   2.462  14.986  0.0668  0.3428  0.1005
 1362DOPE   D2A15976  18.437   2.452  14.496  0.4691 -0.0925  0.2246
 1362DOPE   C3A15977  18.100   2.192  14.322  0.0338  0.0241 -0.1770
 1362DOPE   C4A15978  17.936   1.867  14.081  0.1918  0.0646  0.0563
 1362DOPE   C1B15979  19.175   2.846  14.878 -0.1170  0.3496 -0.5161
 1362DOPE   D2B15980  19.299   2.793  14.445  0.0659  0.1995 -0.0776
 1362DOPE   C3B15981  19.092   3.020  14.104  0.0324  0.0749  0.1919
 1362DOPE   C4B15982  18.777   2.943  13.765  0.4163  0.0169  0.0932
 1363DOPE   NH315983  22.939   6.447  15.587  0.2122  0.1832  0.2626
 1363DOPE   PO415984  22.742   6.576  15.377 -0.0745 -0.0382  0.3253
 1363DOPE   GL115985  22.949   6.543  15.049 -0.2374 -0.4957  0.3369
 1363DOPE   GL215986  23.246   6.514  15.100  0.2528  0.1033 -0.1163
 1363DOPE   C1A15987  22.724   6.379  14.661  0.2864 -0.0707  0.1060
 1363DOPE   D2A15988  22.886   6.167  14.230 -0.0272  0.0819  0.3237
 1363DOPE   C3A15989  22.625   6.233  13.886 -0.1700  0.0648  0.0680
 1363DOPE   C4A15990  22.522   6.571  13.595  0.0692 -0.1578  0.1414
 1363DOPE   C1B15991  23.625   6.432  14.864 -0.0352 -0.0752 -0.0427
 1363DOPE   D2B15992  23.629   6.389  14.443  0.0135 -0.1517  0.0220
 1363DOPE   C3B15993  23.452   6.669  14.165  0.0680 -0.3750  0.0667
 1363DOPE   C4B15994  23.021   6.659  14.045  0.0194 -0.3444  0.1286
 1364DOPS   CNO15995  12.767   4.103  15.946  0.0322 -0.5496 -0.0224
 1364DOPS   PO415996  13.098   4.245  15.994  0.0391  0.0812 -0.0391
 1364DOPS   GL115997  13.077   4.182  15.598 -0.0757  0.0018 -0.0568
 1364DOPS   GL215998  12.956   4.039  15.407 -0.0827  0.2159  0.5719
 1364DOPS   C1A15999  13.372   4.431  15.283  0.1655 -0.0102  0.0996
 1364DOPS   D2A16000  13.620   4.790  15.229  0.0531 -0.1111  0.1973
 1364DOPS   C3A16001  13.733   4.711  14.758 -0.0899  0.7816  0.2659
 1364DOPS   C4A16002  13.700   4.982  14.395  0.4410 -0.0570  0.1970
 1364DOPS   C1B16003  13.158   4.117  15.020  0.1279  0.0501 -0.3389
 1364DOPS   D2B16004  13.571   4.237  14.742  0.2251 -0.0132 -0.3756
 1364DOPS   C3B16005  13.848   4.070  14.447  0.2952 -0.1115  0.1016
 1364DOPS   C4B16006  13.976   3.947  14.044  0.3394 -0.0389 -0.0290
 1365POSM   NC316007  15.520  11.737  14.914  0.4322  0.2270 -0.1471
 1365POSM   PO416008  15.748  11.416  14.951  0.0706  0.0677  0.3079
 1365POSM   AM116009  15.979  11.406  14.772 -0.0332 -0.1807 -0.0335
 1365POSM   AM216010  16.240  11.243  14.785  0.2069 -0.2518 -0.1666
 1365POSM   T1A16011  16.170  11.673  14.357 -0.1436  0.0862 -0.3519
 1365POSM   C2A16012  16.486  11.559  14.032 -0.0626  0.0020  0.0582
 1365POSM   C3A16013  16.903  11.614  13.911  0.1236  0.0137 -0.2394
 1365POSM   C1B16014  16.303  11.117  14.469 -0.0941  0.1618 -0.0767
 1365POSM   D2B16015  16.313  10.951  13.999  0.1806 -0.3673 -0.1287
 1365POSM   C3B16016  16.508  11.228  13.661 -0.1664  0.0740  0.0186
 1365POSM   C4B16017  16.667  11.535  13.444  0.1026  0.0988  0.2633
 1366DOPC   NC316018  12.124   5.910  15.328  0.1136  0.2091  0.1846
 1366DOPC   PO416019  12.183   6.205  15.574  0.2036 -0.2336  0.1238
 1366DOPC   GL116020  12.123   6.425  15.306 -0.3638  0.3002 -0.1594
 1366DOPC   GL216021  12.360   6.564  15.161 -0.0156  0.4513 -0.0790
 1366DOPC   C1A16022  11.874   6.443  14.892  0.1113  0.0114 -0.2557
 1366DOPC   D2A16023  11.795   6.468  14.452  0.2990  0.0548  0.0334
 1366DOPC   C3A16024  11.753   6.107  14.092  0.3010  0.0716 -0.0432
 1366DOPC   C4A16025  11.803   5.728  13.855 -0.0232  0.1866 -0.1628
 1366DOPC   C1B16026  12.563   6.609  14.773 -0.1888 -0.1611  0.3654
 1366DOPC   D2B16027  12.275   6.663  14.427 -0.2592  0.0547 -0.1933
 1366DOPC   C3B16028  12.167   6.444  14.038 -0.1190 -0.3606  0.0272
 1366DOPC   C4B16029  11.818   6.564  13.687  0.1060 -0.0437 -0.1701
 1367DOPC   NC316030  15.680   3.818  15.753 -0.1601  0.0661 -0.0628
 1367DOPC   PO416031  15.702   3.444  15.808  0.1587 -0.0714 -0.0047
 1367DOPC   GL116032  15.619   3.344  15.423  0.1026  0.1373  0.0095
 1367DOPC   GL216033  15.564   3.561  15.303 -0.3026 -0.0298 -0.0247
 1367DOPC   C1A16034  15.630   3.150  14.990  0.0290 -0.2242 -0.2239
 1367DOPC   D2A16035  15.585   3.410  14.618  0.1581  0.2239  0.1074
 1367DOPC   C3A16036  15.816   3.744  14.449  0.0176 -0.1071 -0.3431
 1367DOPC   C4A16037  15.855   4.180  14.420  0.1486 -0.0600 -0.2266
 1367DOPC   C1B16038  15.462   3.740  14.911  0.0512 -0.0217  0.0882
 1367DOPC   D2B16039  15.151   3.777  14.638  0.4206  0.3305 -0.0291
 1367DOPC   C3B16040  15.261   3.686  14.252 -0.1138 -0.0615  0.1861
 1367DOPC   C4B16041  15.214   3.565  13.783  0.0830  0.2401  0.0022
 1368DOPS   CNO16042  15.108   1.769  16.225 -0.0259  0.0396  0.0388
 1368DOPS   PO416043  14.896   1.527  16.047  0.0167  0.0113 -0.4055
 1368DOPS   GL116044  14.911   1.609  15.677  0.1652 -0.3520  0.2017
 1368DOPS   GL216045  14.590   1.628  15.548  0.3615  0.1887  0.0073
 1368DOPS   C1A16046  15.030   1.204  15.437  0.1216 -0.1807 -0.2432
 1368DOPS   D2A16047  15.350   1.044  15.180  0.0602  0.2296  0.1207
 1368DOPS   C3A16048  15.513   0.632  15.375 -0.2103  0.0366 -0.1525
 1368DOPS   C4A16049  15.608   0.585  15.864  0.0042  0.0729 -0.1091
 1368DOPS   C1B16050  14.341   1.472  15.160  0.1062 -0.0132 -0.0575
 1368DOPS   D2B16051  14.485   1.312  14.762  0.1555  0.1858  0.2516
 1368DOPS   C3B16052  14.422   1.129  14.321 -0.0555  0.0755  0.1747
 1368DOPS   C4B16053  14.520   0.960  13.914 -0.0895  0.4574  0.1426
 1369DOPC   NC316054  21.779  11.112  15.453  0.1224  0.0761  0.0942
 1369DOPC   PO416055  21.518  11.357  15.516  0.2352 -0.3046 -0.0705
 1369DOPC   GL116056  21.624  11.562  15.186  0.2176 -0.0312 -0.2212
 1369DOPC   GL216057  21.454  11.667  14.939 -0.1265  0.0158  0.0634
 1369DOPC   C1A16058  21.935  11.893  15.002  0.0519 -0.1209  0.2928
 1369DOPC   D2A16059  22.024  12.098  14.578  0.1623 -0.0999  0.2216
 1369DOPC   C3A16060  22.259  11.846  14.239 -0.1517  0.1410  0.2682
 1369DOPC   C4A16061  22.666  11.781  14.084 -0.1291  0.0795 -0.2817
 1369DOPC   C1B16062  21.696  11.736  14.532  0.1661 -0.0635  0.0309
 1369DOPC   D2B16063  21.970  11.443  14.343 -0.1268 -0.0219  0.1206
 1369DOPC   C3B16064  22.068  11.400  13.877 -0.1323  0.3421  0.1800
 1369DOPC   C4B16065  21.905  11.300  13.507 -0.0401 -0.1216  0.3556
 1370POSM   NC316066  20.583   4.906  16.085  0.1755 -0.0740  0.2453
 1370POSM   PO416067  20.628   4.544  15.929 -0.0886  0.1035  0.0253
 1370POSM   AM116068  20.604   4.445  15.628 -0.0308 -0.1455  0.0544
 1370POSM   AM216069  20.625   4.485  15.343  0.1325  0.0481  0.2242
 1370POSM   T1A16070  20.537   4.001  15.444 -0.1359 -0.0222 -0.1380
 1370POSM   C2A16071  20.714   3.555  15.318  0.0756 -0.4889  0.0040
 1370POSM   C3A16072  20.529   3.203  15.062  0.1535 -0.0051 -0.0008
 1370POSM   C1B16073  20.341   4.676  15.209 -0.3116 -0.2383  0.1743
 1370POSM   D2B16074  20.242   4.962  14.911 -0.0332 -0.0409  0.1603
 1370POSM   C3B16075  20.311   5.358  14.754  0.0676 -0.0513 -0.3179
 1370POSM   C4B16076  20.260   5.707  14.479  0.1112  0.1344  0.0264
 1371DOPC   NC316077  17.761   1.721  15.136 -0.5017 -0.3597 -0.1183
 1371DOPC   PO416078  17.750   1.349  15.242 -0.1068 -0.0863  0.0157
 1371DOPC   GL116079  17.835   1.196  14.787  0.3178 -0.0497  0.3836
 1371DOPC   GL216080  17.562   1.317  14.693  0.1653 -0.0836  0.1835
 1371DOPC   C1A16081  17.583   0.808  14.558  0.2730  0.3670 -0.0971
 1371DOPC   D2A16082  17.826   0.474  14.407  0.1428  0.0274 -0.0617
 1371DOPC   C3A16083  17.814   0.491  13.931 -0.2938 -0.1215  0.1087
 1371DOPC   C4A16084  17.760   0.579  13.456  0.0613 -0.0963  0.0169
 1371DOPC   C1B16085  17.785   1.355  14.285  0.1401  0.0152  0.2043
 1371DOPC   D2B16086  17.941   0.998  14.095  0.1236 -0.1960  0.0329
 1371DOPC   C3B16087  18.143   0.891  13.695  0.4247  0.0651  0.3034
 1371DOPC   C4B16088  18.189   0.911  13.249 -0.1165  0.0346  0.2848
 1372DOPC   NC316089  21.112   0.066  15.723 -0.0142  0.0744  0.1640
 1372DOPC   PO416090  21.317   0.418  15.647  0.0849  0.0668 -0.0717
 1372DOPC   GL116091  21.111   0.496  15.315  0.0068  0.0411 -0.3025
 1372DOPC   GL216092  20.831   0.361  15.387  0.0300  0.1638 -0.0866
 1372DOPC   C1A16093  21.003   0.310  14.883 -0.3144  0.1745  0.0188
 1372DOPC   D2A16094  20.948   0.042  14.480  0.1155 -0.1357 -0.0762
 1372DOPC   C3A16095  20.709  -0.186  14.183  0.2493  0.0008 -0.0198
 1372DOPC   C4A16096  20.518  -0.627  14.166  0.2844  0.0602  0.1472
 1372DOPC   C1B16097  20.523   0.349  15.077 -0.0921  0.1072  0.1431
 1372DOPC   D2B16098  20.481   0.287  14.627  0.0700  0.3025 -0.0421
 1372DOPC   C3B16099  20.821   0.472  14.323  0.3939  0.2868  0.0632
 1372DOPC   C4B16100  21.216   0.273  14.149 -0.0837 -0.1437  0.0564
 1373DOPE   NH316101  18.720  34.643  15.594 -0.2795 -0.1843 -0.1190
 1373DOPE   PO416102  18.805  34.383  15.734 -0.0960 -0.1897 -0.1934
 1373DOPE   GL116103  18.875  34.248  15.400  0.0678  0.3013  0.3269
 1373DOPE   GL216104  18.879  33.995  15.320 -0.1228  0.2790  0.2121
 1373DOPE   C1A16105  18.591  34.385  15.052  0.1275  0.0393  0.0978
 1373DOPE   D2A16106  18.460  34.389  14.572  0.0506  0.3296 -0.0653
 1373DOPE   C3A16107  18.294  34.164  14.175 -0.0612 -0.0148  0.1595
 1373DOPE   C4A16108  18.191  33.917  13.788 -0.1547  0.0110  0.1774
 1373DOPE   C1B16109  19.175  34.233  15.076 -0.1857 -0.1591 -0.0672
 1373DOPE   D2B16110  19.261  34.503  14.680 -0.1273  0.0311  0.3597
 1373DOPE   C3B16111  18.851  34.697  14.493  0.0642  0.0965  0.0148
 1373DOPE   C4B16112  18.538  34.807  14.165 -0.2076 -0.0479 -0.3967
 1374POSM   NC316113  22.260   1.452  15.737  0.3891 -0.2676  0.1093
 1374POSM   PO416114  22.031   1.166  15.789  0.0074  0.1355  0.0148
 1374POSM   AM116115  22.007   0.991  15.531 -0.0091  0.5094 -0.2507
 1374POSM   AM216116  22.133   1.036  15.286  0.2299 -0.0205  0.2982
 1374POSM   T1A16117  21.840   0.713  15.139  0.0812 -0.0279  0.1197
 1374POSM   C2A16118  21.907   0.415  14.794  0.0375 -0.1981 -0.0443
 1374POSM   C3A16119  21.900  -0.003  14.657  0.0713 -0.3014  0.3541
 1374POSM   C1B16120  22.040   1.171  14.937  0.1732  0.1736  0.2546
 1374POSM   D2B16121  21.869   1.324  14.471 -0.1166  0.1726 -0.1923
 1374POSM   C3B16122  22.236   1.226  14.197  0.2393 -0.3627  0.1464
 1374POSM   C4B16123  22.623   1.371  14.049  0.0816 -0.0012  0.2450
 1375POSM   NC316124  12.861   6.791  15.324 -0.0178  0.0701  0.3812
 1375POSM   PO416125  13.169   6.996  15.478  0.1511  0.1096 -0.0150
 1375POSM   AM116126  13.353   7.173  15.313  0.0937  0.4141  0.1865
 1375POSM   AM216127  13.611   7.200  15.197 -0.0232  0.1300 -0.2135
 1375POSM   T1A16128  13.325   7.337  14.820  0.1842  0.2436 -0.0470
 1375POSM   C2A16129  13.468   7.469  14.400  0.0595 -0.0555 -0.1178
 1375POSM   C3A16130  13.658   7.831  14.136 -0.0629 -0.0961  0.2801
 1375POSM   C1B16131  13.816   7.203  14.955  0.0316  0.1374 -0.2057
 1375POSM   D2B16132  14.078   7.238  14.523 -0.0233  0.1034  0.1138
 1375POSM   C3B16133  14.424   6.930  14.550  0.0245  0.3033  0.0824
 1375POSM   C4B16134  14.845   6.900  14.555 -0.0143  0.0089  0.0573
 1376DOPE   NH316135  12.385   1.749  15.561  0.1298  0.1116 -0.0046
 1376DOPE   PO416136  12.654   1.519  15.566 -0.1028  0.2929 -0.3090
 1376DOPE   GL116137  12.861   1.797  15.329  0.2668  0.2927  0.0512
 1376DOPE   GL216138  13.083   1.599  15.294  0.1262  0.2340  0.3251
 1376DOPE   C1A16139  12.834   1.730  14.857  0.0895 -0.2209  0.1536
 1376DOPE   D2A16140  12.893   1.365  14.582  0.1120 -0.2570  0.1020
 1376DOPE   C3A16141  12.669   1.441  14.118 -0.2885  0.0748  0.0324
 1376DOPE   C4A16142  12.786   1.470  13.666 -0.0720  0.0064  0.2102
 1376DOPE   C1B16143  13.227   1.350  14.923  0.1241  0.3163 -0.2130
 1376DOPE   D2B16144  13.370   1.305  14.514  0.0630 -0.4258 -0.1061
 1376DOPE   C3B16145  13.194   1.421  14.072 -0.1496 -0.0307  0.2827
 1376DOPE   C4B16146  13.210   1.254  13.623  0.1126 -0.0354 -0.2031
 1377POSM   NC316147  12.587   2.504  15.852 -0.1271  0.3002  0.3978
 1377POSM   PO416148  12.378   2.206  15.801  0.4662 -0.3779 -0.0191
 1377POSM   AM116149  12.356   2.188  15.510 -0.3285  0.0539  0.1218
 1377POSM   AM216150  12.434   2.363  15.300  0.0015  0.1361 -0.2015
 1377POSM   T1A16151  12.461   1.921  15.087 -0.0336  0.0109 -0.2738
 1377POSM   C2A16152  12.531   1.449  15.060  0.2676  0.3445  0.1085
 1377POSM   C3A16153  12.170   1.096  15.081 -0.2037 -0.1164 -0.3552
 1377POSM   C1B16154  12.562   2.428  15.026 -0.1542  0.2574 -0.1051
 1377POSM   D2B16155  12.599   2.542  14.590  0.0752 -0.0771  0.0552
 1377POSM   C3B16156  12.955   2.857  14.462 -0.0783  0.1631  0.0087
 1377POSM   C4B16157  13.479   2.948  14.366  0.1749  0.0636 -0.3368
 1378DOPE   NH316158  15.513  10.536  14.978 -0.1650 -0.0149  0.1674
 1378DOPE   PO416159  15.300  10.704  14.855  0.2107 -0.0593 -0.0050
 1378DOPE   GL116160  15.513  10.899  14.581  0.1419  0.2676  0.0490
 1378DOPE   GL216161  15.418  11.197  14.612 -0.2040  0.1113  0.3660
 1378DOPE   C1A16162  15.779  10.976  14.229 -0.1787 -0.2414 -0.6044
 1378DOPE   D2A16163  15.848  10.905  13.770 -0.2953 -0.2212 -0.1094
 1378DOPE   C3A16164  15.969  10.489  13.578  0.0810  0.0734 -0.1794
 1378DOPE   C4A16165  16.174  10.087  13.713  0.1669  0.1054  0.2228
 1378DOPE   C1B16166  15.412  11.309  14.121  0.3186 -0.4381 -0.2207
 1378DOPE   D2B16167  15.791  11.346  13.859  0.0228 -0.2146  0.3064
 1378DOPE   C3B16168  15.944  11.206  13.388 -0.2617 -0.0150 -0.2239
 1378DOPE   C4B16169  15.811  10.859  13.158  0.0832 -0.4499 -0.0493
 1379POSM   NC316170  12.245   5.149  15.568  0.2372 -0.0860  0.2290
 1379POSM   PO416171  12.014   5.451  15.535 -0.0866  0.0472  0.1230
 1379POSM   AM116172  12.075   5.432  15.192 -0.1671 -0.0699  0.1580
 1379POSM   AM216173  12.258   5.243  15.094 -0.0936  0.0578 -0.5218
 1379POSM   T1A16174  12.030   5.727  14.773 -0.0068 -0.1772  0.0188
 1379POSM   C2A16175  12.037   5.604  14.342 -0.2201  0.4127 -0.4512
 1379POSM   C3A16176  11.823   5.221  14.134  0.1125 -0.0912  0.3355
 1379POSM   C1B16177  12.330   5.249  14.738  0.0300 -0.3365  0.1201
 1379POSM   D2B16178  12.620   5.131  14.390  0.2628  0.0313 -0.0598
 1379POSM   C3B16179  12.300   5.303  14.079 -0.0718  0.0327  0.0490
 1379POSM   C4B16180  12.285   5.573  13.677 -0.1531  0.1593 -0.0398
 1380DOPS   CNO16181  22.858   2.592  15.619  0.3092  0.1001  0.1953
 1380DOPS   PO416182  23.082   2.311  15.686  0.0873 -0.2777  0.2036
 1380DOPS   GL116183  23.135   2.404  15.202  0.2710 -0.0340  0.0552
 1380DOPS   GL216184  23.357   2.105  15.221 -0.2882 -0.1931  0.6104
 1380DOPS   C1A16185  23.154   2.306  14.790 -0.1103  0.1231  0.0261
 1380DOPS   D2A16186  23.251   2.205  14.337 -0.0580 -0.2422 -0.1121
 1380DOPS   C3A16187  23.737   2.192  14.351  0.1359 -0.0524  0.4333
 1380DOPS   C4A16188  24.130   2.013  14.256 -0.2473  0.0637  0.2494
 1380DOPS   C1B16189  23.484   1.962  14.797  0.0420 -0.1395  0.0191
 1380DOPS   D2B16190  23.460   1.784  14.433  0.0193  0.1358 -0.0231
 1380DOPS   C3B16191  23.746   1.630  14.101  0.0279  0.3843  0.0217
 1380DOPS   C4B16192  24.168   1.468  14.240 -0.2225 -0.1591  0.2938
 1381DOPC   NC316193  17.181  10.315  15.197  0.0516  0.0022  0.3050
 1381DOPC   PO416194  16.854  10.146  15.294  0.0814 -0.3054  0.1317
 1381DOPC   GL116195  16.820   9.879  15.034  0.0516 -0.1463 -0.1094
 1381DOPC   GL216196  16.616   9.675  15.012 -0.3187 -0.2339  0.0043
 1381DOPC   C1A16197  16.940   9.613  14.651  0.1866  0.2045 -0.0453
 1381DOPC   D2A16198  17.341   9.479  14.465 -0.4832  0.1713 -0.3168
 1381DOPC   C3A16199  17.364   9.056  14.245 -0.2869 -0.2072  0.1398
 1381DOPC   C4A16200  17.630   8.656  14.273 -0.0185 -0.3318  0.0275
 1381DOPC   C1B16201  16.486   9.832  14.609  0.1025 -0.1437 -0.0608
 1381DOPC   D2B16202  16.491   9.846  14.154 -0.0588 -0.0663  0.0775
 1381DOPC   C3B16203  16.427   9.395  13.952 -0.1496 -0.1048  0.2024
 1381DOPC   C4B16204  16.606   9.239  13.570  0.1134 -0.0202  0.1172
 1382DOPS   CNO16205  11.571  11.316  16.246 -0.0861 -0.1266 -0.0243
 1382DOPS   PO416206  11.658  11.172  15.925 -0.1148 -0.1166  0.0888
 1382DOPS   GL116207  11.631  11.074  15.536 -0.3991  0.0807  0.2398
 1382DOPS   GL216208  11.655  11.338  15.423 -0.2638 -0.1315 -0.0079
 1382DOPS   C1A16209  11.938  10.921  15.182  0.1369  0.2661  0.2463
 1382DOPS   D2A16210  12.076  10.840  14.756  0.0853 -0.0948 -0.2233
 1382DOPS   C3A16211  11.647  10.617  14.681  0.1357  0.1455 -0.1695
 1382DOPS   C4A16212  11.265  10.781  14.489  0.0620 -0.0462 -0.1093
 1382DOPS   C1B16213  11.749  11.469  15.017  0.1114  0.1637 -0.0699
 1382DOPS   D2B16214  11.786  11.705  14.684  0.0431 -0.0241  0.1486
 1382DOPS   C3B16215  11.835  11.742  14.235  0.1724  0.2437  0.1442
 1382DOPS   C4B16216  11.859  11.767  13.794 -0.2126 -0.5223 -0.1996
 1383DOPE   NH316217  20.703   8.723  15.034  0.1727 -0.4129  0.2119
 1383DOPE   PO416218  20.913   8.923  15.089  0.0694 -0.0538  0.0271
 1383DOPE   GL116219  21.264   8.857  14.861 -0.2326 -0.4202 -0.1008
 1383DOPE   GL216220  21.362   8.636  14.691 -0.2181 -0.3802 -0.0184
 1383DOPE   C1A16221  21.724   8.941  14.935 -0.0812 -0.0360  0.0429
 1383DOPE   D2A16222  22.042   9.214  14.719  0.0814  0.0870 -0.1725
 1383DOPE   C3A16223  22.009   9.290  14.274  0.1125  0.2024 -0.1209
 1383DOPE   C4A16224  22.214   9.277  13.866 -0.0476  0.1592  0.1211
 1383DOPE   C1B16225  20.994   8.739  14.445 -0.3675 -0.0295  0.1461
 1383DOPE   D2B16226  20.612   8.872  14.176  0.0599  0.1451 -0.0432
 1383DOPE   C3B16227  20.468   8.848  13.745  0.0024 -0.2213 -0.0807
 1383DOPE   C4B16228  20.395   8.569  13.406  0.3092  0.0120  0.2395
 1384DOPC   NC316229  13.160   5.981  15.415  0.1658  0.2763 -0.0338
 1384DOPC   PO416230  13.115   6.363  15.525 -0.1877  0.0986  0.1354
 1384DOPC   GL116231  13.381   6.611  15.296 -0.0806 -0.1463  0.0727
 1384DOPC   GL216232  13.528   6.379  15.166  0.0536 -0.0007 -0.0918
 1384DOPC   C1A16233  13.306   6.821  14.918 -0.4019 -0.3004  0.3991
 1384DOPC   D2A16234  13.382   6.870  14.471  0.2728  0.1185 -0.0968
 1384DOPC   C3A16235  13.167   6.628  14.140  0.2995 -0.3037  0.0834
 1384DOPC   C4A16236  12.953   6.647  13.686 -0.2656  0.1061  0.1157
 1384DOPC   C1B16237  13.472   6.433  14.668 -0.1970  0.0174 -0.0397
 1384DOPC   D2B16238  13.673   6.341  14.286  0.3712  0.0124 -0.1964
 1384DOPC   C3B16239  13.539   5.881  14.138 -0.3901 -0.0174  0.0352
 1384DOPC   C4B16240  13.232   5.708  13.911  0.1794 -0.2093  0.0599
 1385DOPS   CNO16241  11.441   3.078  15.686  0.1437  0.3634  0.2115
 1385DOPS   PO416242  11.621   3.388  15.807 -0.1187  0.0953 -0.0842
 1385DOPS   GL116243  11.631   3.449  15.379  0.0509  0.1897 -0.3409
 1385DOPS   GL216244  11.593   3.155  15.200  0.2574  0.1842  0.4104
 1385DOPS   C1A16245  11.811   3.525  14.935  0.2185 -0.2361 -0.2110
 1385DOPS   D2A16246  11.835   3.679  14.479 -0.1685  0.0426 -0.1529
 1385DOPS   C3A16247  11.759   3.927  14.088 -0.0504  0.1392  0.3122
 1385DOPS   C4A16248  12.049   4.194  13.964 -0.0093 -0.1188 -0.1064
 1385DOPS   C1B16249  11.613   3.150  14.713 -0.1348 -0.0649 -0.1302
 1385DOPS   D2B16250  11.404   3.157  14.269  0.0864 -0.1751  0.1707
 1385DOPS   C3B16251  11.367   3.581  14.118  0.0421  0.0411 -0.2076
 1385DOPS   C4B16252  11.237   4.019  14.038 -0.0483 -0.0342  0.2772
 1386DOPC   NC316253  14.725   2.680  15.510  0.4057  0.1938  0.1250
 1386DOPC   PO416254  15.077   2.753  15.637 -0.0052  0.1217  0.1778
 1386DOPC   GL116255  15.218   2.638  15.334 -0.0983  0.0726 -0.0241
 1386DOPC   GL216256  15.042   2.615  15.095 -0.0533 -0.0552 -0.2827
 1386DOPC   C1A16257  15.337   2.237  15.159  0.1270 -0.0788 -0.0654
 1386DOPC   D2A16258  15.262   1.904  14.821  0.2497  0.1587  0.0568
 1386DOPC   C3A16259  15.321   2.095  14.414 -0.2010  0.3677  0.0223
 1386DOPC   C4A16260  15.098   2.107  14.013 -0.1023 -0.1270  0.2040
 1386DOPC   C1B16261  15.361   2.661  14.837  0.3625  0.1277  0.1602
 1386DOPC   D2B16262  15.716   2.853  14.557  0.2753  0.0858 -0.1305
 1386DOPC   C3B16263  15.672   2.891  14.107 -0.1299  0.0473  0.1403
 1386DOPC   C4B16264  15.388   3.050  13.808  0.3405 -0.0260  0.0032
 1387DOPE   NH316265  22.340   8.631  15.584 -0.0729 -0.1180  0.2906
 1387DOPE   PO416266  22.359   8.531  15.255 -0.1567 -0.2983 -0.2065
 1387DOPE   GL116267  22.375   8.501  14.802  0.2257  0.1097 -0.0741
 1387DOPE   GL216268  22.209   8.790  14.802  0.0129  0.1274 -0.1118
 1387DOPE   C1A16269  22.451   8.343  14.358 -0.2487  0.2356 -0.3873
 1387DOPE   D2A16270  22.159   8.384  14.013  0.0016 -0.2239 -0.3787
 1387DOPE   C3A16271  21.750   8.361  13.738 -0.4202  0.1086  0.3565
 1387DOPE   C4A16272  21.306   8.364  13.616 -0.4829  0.0023 -0.0127
 1387DOPE   C1B16273  22.225   8.816  14.363 -0.0887 -0.0669  0.2719
 1387DOPE   D2B16274  22.466   8.810  13.945  0.1075 -0.1378 -0.2616
 1387DOPE   C3B16275  22.154   8.666  13.626  0.2264  0.2583  0.3903
 1387DOPE   C4B16276  22.209   8.297  13.325  0.3018  0.1058 -0.0222
 1388POSM   NC316277  19.249   9.335  15.822  0.1543  0.0931  0.1278
 1388POSM   PO416278  18.904   9.268  15.720  0.1849  0.1136 -0.1033
 1388POSM   AM116279  18.747   9.103  15.477 -0.4124 -0.0874 -0.2927
 1388POSM   AM216280  18.816   9.109  15.226 -0.0492 -0.1601 -0.3329
 1388POSM   T1A16281  18.402   8.854  15.270 -0.1775  0.1827 -0.0074
 1388POSM   C2A16282  18.389   8.451  15.024  0.1765 -0.1908  0.2639
 1388POSM   C3A16283  18.676   8.207  14.792 -0.0246 -0.1028  0.0179
 1388POSM   C1B16284  18.587   9.225  15.024  0.3979  0.0836  0.0311
 1388POSM   D2B16285  18.235   9.453  14.780 -0.0738 -0.0952  0.1648
 1388POSM   C3B16286  18.399   9.898  14.628 -0.1100 -0.0351 -0.3340
 1388POSM   C4B16287  18.618  10.245  14.455  0.0492  0.2664 -0.0960
 1389DOPE   NH316288  16.503   9.853  15.476  0.2046  0.1603 -0.2471
 1389DOPE   PO416289  16.245  10.077  15.433 -0.1736 -0.1111 -0.1219
 1389DOPE   GL116290  16.220   9.826  15.079  0.2466 -0.0602  0.0752
 1389DOPE   GL216291  15.957   9.601  15.115 -0.2655 -0.0799 -0.0911
 1389DOPE   C1A16292  15.927   9.993  14.720  0.2415 -0.0339  0.2928
 1389DOPE   D2A16293  16.012   9.940  14.304 -0.1963  0.0971  0.2871
 1389DOPE   C3A16294  16.123   9.509  14.278  0.0843 -0.0285 -0.4781
 1389DOPE   C4A16295  16.459   9.322  14.468 -0.0038  0.1546 -0.1289
 1389DOPE   C1B16296  15.740   9.520  14.658 -0.0149  0.1834 -0.0126
 1389DOPE   D2B16297  15.650   9.459  14.180  0.2947 -0.1135  0.0033
 1389DOPE   C3B16298  15.840   9.115  13.891 -0.2838  0.1526 -0.4850
 1389DOPE   C4B16299  15.871   8.725  13.789  0.1860 -0.0553  0.0079
 1390POSM   NC316300  19.204   8.560  15.476 -0.0734  0.0083 -0.1126
 1390POSM   PO416301  19.267   8.933  15.454  0.1474 -0.1012  0.1204
 1390POSM   AM116302  19.228   9.022  15.130 -0.1405 -0.1600  0.1247
 1390POSM   AM216303  19.374   9.222  15.029 -0.0285  0.2627  0.1847
 1390POSM   T1A16304  18.943   9.039  14.751 -0.0529  0.3423  0.0920
 1390POSM   C2A16305  18.646   9.164  14.416 -0.2748 -0.0545 -0.1529
 1390POSM   C3A16306  18.423   9.151  14.030 -0.1407 -0.1413  0.4809
 1390POSM   C1B16307  19.446   9.185  14.752  0.2403 -0.3611 -0.2352
 1390POSM   D2B16308  19.800   9.120  14.432  0.0786  0.1102  0.0433
 1390POSM   C3B16309  20.105   8.954  14.157  0.1667  0.2487 -0.0036
 1390POSM   C4B16310  19.985   8.671  13.883 -0.1575 -0.4742 -0.0167
 1391DOPC   NC316311  19.951   5.022  15.864 -0.1071  0.1268  0.0947
 1391DOPC   PO416312  19.674   4.733  15.780  0.2182  0.1461 -0.0701
 1391DOPC   GL116313  19.817   4.464  15.479 -0.4578  0.2948  0.3901
 1391DOPC   GL216314  19.580   4.351  15.393 -0.0640 -0.0976 -0.0376
 1391DOPC   C1A16315  19.806   4.732  15.136  0.1252 -0.0339  0.1260
 1391DOPC   D2A16316  19.860   4.724  14.715  0.0832 -0.0285 -0.1119
 1391DOPC   C3A16317  20.264   4.811  14.419 -0.1171 -0.0933  0.2380
 1391DOPC   C4A16318  20.600   5.039  14.410  0.3119  0.0954 -0.0994
 1391DOPC   C1B16319  19.714   4.274  14.941 -0.0163  0.0479 -0.0485
 1391DOPC   D2B16320  19.730   4.323  14.436  0.1112  0.3175 -0.0491
 1391DOPC   C3B16321  19.780   4.712  14.218  0.1023  0.3142  0.0324
 1391DOPC   C4B16322  20.151   4.801  13.954  0.1307  0.1515 -0.1908
 1392DOPE   NH316323  18.201  10.791  15.670 -0.1361  0.3888  0.2300
 1392DOPE   PO416324  18.460  10.898  15.785  0.1362 -0.0048 -0.0056
 1392DOPE   GL116325  18.565  10.930  15.464  0.2849 -0.1384 -0.3417
 1392DOPE   GL216326  18.408  11.093  15.285 -0.1349  0.3519 -0.1224
 1392DOPE   C1A16327  18.697  10.666  15.121  0.0750  0.0094 -0.0792
 1392DOPE   D2A16328  18.501  10.296  14.901 -0.1876 -0.0708 -0.2708
 1392DOPE   C3A16329  18.127  10.493  14.634  0.0606  0.1451  0.1110
 1392DOPE   C4A16330  18.076  10.641  14.208 -0.2686  0.1039 -0.0757
 1392DOPE   C1B16331  18.796  11.117  14.984  0.2222  0.2650  0.2303
 1392DOPE   D2B16332  19.169  10.989  14.773  0.0739 -0.0849 -0.1740
 1392DOPE   C3B16333  19.172  10.799  14.385 -0.2948 -0.3799 -0.0783
 1392DOPE   C4B16334  19.237  10.807  13.949  0.3093 -0.0302  0.1530
 1393POSM   NC316335  18.248   1.101  15.160  0.2404 -0.2826 -0.1047
 1393POSM   PO416336  18.350   0.728  15.299  0.1870  0.1737 -0.1125
 1393POSM   AM116337  18.543   0.632  15.094  0.0854  0.2451  0.1339
 1393POSM   AM216338  18.570   0.781  14.841 -0.1312 -0.1065 -0.0239
 1393POSM   T1A16339  18.853   0.389  14.786  0.2173  0.2718  0.1562
 1393POSM   C2A16340  19.139   0.462  14.426  0.0274 -0.1974  0.0992
 1393POSM   C3A16341  19.301   0.085  14.225  0.3134 -0.0395  0.2056
 1393POSM   C1B16342  18.717   0.830  14.516 -0.1394  0.0925  0.1113
 1393POSM   D2B16343  18.902   0.918  14.173 -0.0978 -0.2535  0.0221
 1393POSM   C3B16344  18.818   0.610  13.863 -0.2467 -0.0898  0.3446
 1393POSM   C4B16345  18.886   0.180  13.724  0.0330  0.0354 -0.0569
 1394DOPE   NH316346  21.734   9.714  15.499  0.0821  0.0169 -0.0588
 1394DOPE   PO416347  21.475   9.771  15.357 -0.0986 -0.1929 -0.0784
 1394DOPE   GL116348  21.488   9.705  15.020 -0.1231 -0.4727  0.1297
 1394DOPE   GL216349  21.661   9.501  14.876 -0.0926  0.0888 -0.1450
 1394DOPE   C1A16350  21.252   9.713  14.586  0.2271 -0.1242  0.0855
 1394DOPE   D2A16351  21.197   9.668  14.107  0.1572 -0.0003 -0.2706
 1394DOPE   C3A16352  21.403   9.919  13.782 -0.2219  0.3880 -0.4858
 1394DOPE   C4A16353  21.130  10.161  13.476  0.0348  0.1430 -0.3735
 1394DOPE   C1B16354  21.795   9.661  14.437  0.1242 -0.0412 -0.0756
 1394DOPE   D2B16355  21.791  10.029  14.195  0.0509 -0.1273 -0.1876
 1394DOPE   C3B16356  21.436  10.304  14.092 -0.1878 -0.0625  0.0562
 1394DOPE   C4B16357  21.248  10.643  13.864  0.2894  0.1972  0.0926
 1395DOPE   NH316358  12.613   3.638  15.546 -0.0849  0.1164 -0.0062
 1395DOPE   PO416359  12.500   3.949  15.573 -0.0596 -0.3610  0.1902
 1395DOPE   GL116360  12.397   4.007  15.177  0.2457  0.1850 -0.0506
 1395DOPE   GL216361  12.588   3.768  15.083  0.0503 -0.2870 -0.0272
 1395DOPE   C1A16362  12.325   4.310  14.815 -0.0636 -0.0917  0.0170
 1395DOPE   D2A16363  12.530   4.721  14.678 -0.0458  0.1819 -0.1026
 1395DOPE   C3A16364  12.339   4.777  14.255  0.1107 -0.3309  0.2434
 1395DOPE   C4A16365  12.682   4.867  13.924  0.0492 -0.0337  0.0660
 1395DOPE   C1B16366  12.745   4.033  14.750  0.1501  0.2344 -0.0932
 1395DOPE   D2B16367  12.705   3.835  14.327 -0.2564  0.3059 -0.1409
 1395DOPE   C3B16368  13.011   3.856  14.077 -0.0024 -0.0473 -0.1770
 1395DOPE   C4B16369  13.380   4.107  14.108 -0.0787 -0.3928 -0.0047
 1396DOPE   NH316370  20.463   6.846  15.731  0.1354  0.0029  0.3978
 1396DOPE   PO416371  20.142   6.823  15.676  0.0849 -0.1253  0.0135
 1396DOPE   GL116372  19.896   6.581  15.270 -0.0255  0.2761 -0.2382
 1396DOPE   GL216373  19.677   6.423  15.434 -0.1887  0.0304 -0.1118
 1396DOPE   C1A16374  19.696   6.719  14.904 -0.0728  0.2159  0.0632
 1396DOPE   D2A16375  19.410   6.491  14.581  0.3751 -0.2149  0.1507
 1396DOPE   C3A16376  19.100   6.550  14.200 -0.2160 -0.0201  0.3157
 1396DOPE   C4A16377  19.140   6.561  13.772  0.0667 -0.3028  0.2110
 1396DOPE   C1B16378  19.736   6.230  15.003  0.3832 -0.0527  0.0777
 1396DOPE   D2B16379  19.903   6.253  14.550  0.2735 -0.1061 -0.2156
 1396DOPE   C3B16380  19.980   6.735  14.440 -0.2927 -0.0045 -0.3354
 1396DOPE   C4B16381  19.972   6.988  14.098  0.2292 -0.0550 -0.0198
 1397DOPE   NH316382  13.531   1.558  15.554  0.0637  0.0551  0.1468
 1397DOPE   PO416383  13.307   1.405  15.766  0.0763 -0.0593 -0.0257
 1397DOPE   GL116384  13.009   1.087  15.551 -0.1131 -0.4143 -0.1818
 1397DOPE   GL216385  12.901   1.152  15.348  0.1761  0.0403 -0.2703
 1397DOPE   C1A16386  12.659   0.792  15.474  0.1232 -0.0466 -0.0475
 1397DOPE   D2A16387  12.532   0.289  15.539 -0.0142 -0.3487  0.1012
 1397DOPE   C3A16388  12.415  -0.128  15.598 -0.1287  0.3244 -0.1681
 1397DOPE   C4A16389  12.109  -0.377  15.377 -0.0518  0.1724 -0.0379
 1397DOPE   C1B16390  12.736   0.942  14.993 -0.0006 -0.0601 -0.0973
 1397DOPE   D2B16391  12.733   0.673  14.629  0.0151 -0.0694  0.1647
 1397DOPE   C3B16392  13.003   0.346  14.615  0.4895 -0.0425 -0.0964
 1397DOPE   C4B16393  12.868  -0.101  14.535  0.0283  0.1402 -0.0568
 1398POSM   NC316394  21.079   1.928  15.613  0.3256  0.2841 -0.1643
 1398POSM   PO416395  20.975   2.294  15.774  0.1255 -0.0366  0.3142
 1398POSM   AM116396  20.936   2.415  15.468 -0.0772  0.5791 -0.0265
 1398POSM   AM216397  21.063   2.250  15.257  0.2926 -0.0275  0.0336
 1398POSM   T1A16398  21.065   2.705  15.050  0.0894 -0.0750 -0.1622
 1398POSM   C2A16399  21.174   2.615  14.602  0.0747  0.1044  0.0289
 1398POSM   C3A16400  21.174   2.607  14.161 -0.2209 -0.1635  0.1252
 1398POSM   C1B16401  21.035   2.214  14.889 -0.2299 -0.0684 -0.1322
 1398POSM   D2B16402  20.988   2.204  14.451  0.1967  0.0609 -0.0922
 1398POSM   C3B16403  21.125   2.107  14.084 -0.0290  0.0618 -0.1166
 1398POSM   C4B16404  21.263   2.357  13.641 -0.2062 -0.1648  0.1066
 1399DOPE   NH316405  20.249   8.552  15.184 -0.0236 -0.0260  0.0319
 1399DOPE   PO416406  20.458   8.419  15.419  0.1573 -0.0836 -0.1606
 1399DOPE   GL116407  20.490   8.054  15.195 -0.4959  0.3416 -0.3308
 1399DOPE   GL216408  20.628   8.158  14.968  0.2128  0.1424  0.0946
 1399DOPE   C1A16409  20.393   7.693  14.908  0.1289  0.2035 -0.0358
 1399DOPE   D2A16410  19.975   7.520  14.682 -0.0050  0.3558 -0.0375
 1399DOPE   C3A16411  20.029   7.087  14.860  0.1650 -0.2175 -0.2724
 1399DOPE   C4A16412  20.196   6.689  14.962  0.0445 -0.0859 -0.0457
 1399DOPE   C1B16413  20.666   8.287  14.580 -0.3602  0.1317  0.4706
 1399DOPE   D2B16414  20.752   8.307  14.134 -0.0851  0.0798 -0.1915
 1399DOPE   C3B16415  20.889   8.613  13.784  0.1406 -0.3265  0.0964
 1399DOPE   C4B16416  21.101   8.682  13.372  0.1493  0.2537  0.1905
 1400DOPE   NH316417  21.207  10.535  15.573  0.3874  0.3404  0.0035
 1400DOPE   PO416418  21.466  10.688  15.511  0.0410  0.0311  0.1544
 1400DOPE   GL116419  21.317  10.881  15.194  0.1256  0.1808  0.0101
 1400DOPE   GL216420  21.429  11.075  15.065 -0.0451  0.4100  0.1488
 1400DOPE   C1A16421  21.017  10.887  14.846 -0.2627 -0.1455 -0.2095
 1400DOPE   D2A16422  20.878  10.783  14.407 -0.2985  0.0962  0.2051
 1400DOPE   C3A16423  20.922  11.164  14.170  0.3357  0.1821 -0.0226
 1400DOPE   C4A16424  20.712  11.522  14.155  0.3224 -0.1756  0.3118
 1400DOPE   C1B16425  21.395  11.072  14.607 -0.0769 -0.0262 -0.4286
 1400DOPE   D2B16426  21.651  11.092  14.194 -0.2420 -0.3054 -0.2036
 1400DOPE   C3B16427  21.590  11.427  13.911 -0.0903  0.1720 -0.0470
 1400DOPE   C4B16428  21.578  11.647  13.487  0.1010 -0.1455  0.2178
 1401POSM   NC316429  20.079   3.727  16.523 -0.1643 -0.1347 -0.1638
 1401POSM   PO416430  19.913   3.837  16.188  0.0361 -0.0617 -0.2652
 1401POSM   AM116431  19.927   3.835  15.837 -0.2270  0.2906  0.1430
 1401POSM   AM216432  19.922   4.071  15.644  0.0273 -0.0317 -0.3956
 1401POSM   T1A16433  20.129   3.614  15.419 -0.1979  0.0043  0.1426
 1401POSM   C2A16434  20.375   3.775  15.038  0.1617  0.0777  0.1628
 1401POSM   C3A16435  20.703   4.147  14.991 -0.0606 -0.0442 -0.1044
 1401POSM   C1B16436  20.015   4.107  15.322 -0.0632  0.0771  0.0895
 1401POSM   D2B16437  20.206   4.224  14.932  0.2720 -0.1029  0.0174
 1401POSM   C3B16438  20.363   3.933  14.584 -0.2673 -0.1802 -0.0160
 1401POSM   C4B16439  20.544   3.899  14.190 -0.2466  0.2109  0.3655
 1402DOPC   NC316440  15.129   8.807  16.133 -0.0627  0.0895  0.1621
 1402DOPC   PO416441  15.274   8.465  15.991 -0.0914 -0.1223  0.0161
 1402DOPC   GL116442  15.223   8.383  15.520 -0.3526 -0.4472  0.4510
 1402DOPC   GL216443  15.326   8.027  15.501  0.1029 -0.0024  0.1354
 1402DOPC   C1A16444  14.897   8.456  15.197  0.0079 -0.1112  0.2153
 1402DOPC   D2A16445  14.893   8.758  14.847  0.2501  0.1329 -0.0504
 1402DOPC   C3A16446  14.707   8.684  14.432  0.2491  0.0863  0.1541
 1402DOPC   C4A16447  14.281   8.506  14.434  0.0825 -0.2355 -0.0721
 1402DOPC   C1B16448  15.178   8.015  15.065 -0.0028  0.0500 -0.0182
 1402DOPC   D2B16449  14.986   8.281  14.751  0.1444 -0.2581 -0.2430
 1402DOPC   C3B16450  14.618   8.151  14.455  0.1004  0.2054  0.0126
 1402DOPC   C4B16451  14.546   8.410  14.035  0.1680  0.1596  0.1949
 1403DOPE   NH316452  13.586   2.280  15.861 -0.0809 -0.1972  0.0963
 1403DOPE   PO416453  13.666   2.055  15.715  0.0816  0.2423 -0.2699
 1403DOPE   GL116454  13.632   2.120  15.403  0.3450  0.0840  0.2161
 1403DOPE   GL216455  13.456   2.320  15.382  0.0655  0.2994  0.2167
 1403DOPE   C1A16456  13.389   1.885  15.070 -0.0895  0.0672 -0.0180
 1403DOPE   D2A16457  13.309   1.859  14.570 -0.2226 -0.0300 -0.0419
 1403DOPE   C3A16458  12.930   1.846  14.377  0.0286  0.1984 -0.1750
 1403DOPE   C4A16459  12.485   1.862  14.475  0.0236  0.3376 -0.0154
 1403DOPE   C1B16460  13.412   2.413  14.953  0.0287  0.0769  0.0355
 1403DOPE   D2B16461  13.401   2.370  14.493  0.2081  0.1066  0.0999
 1403DOPE   C3B16462  13.749   2.459  14.169 -0.0746  0.0646  0.3433
 1403DOPE   C4B16463  13.818   2.688  13.753  0.0109  0.1247  0.0359
 1404DOPC   NC316464  22.468   5.654  15.197 -0.1288 -0.1734 -0.1804
 1404DOPC   PO416465  22.109   5.507  15.294  0.0886 -0.1405  0.1904
 1404DOPC   GL116466  22.029   5.505  14.931  0.2160  0.2044  0.0780
 1404DOPC   GL216467  22.230   5.461  14.704 -0.2296 -0.3270 -0.0055
 1404DOPC   C1A16468  21.814   5.630  14.529  0.1416 -0.0471  0.3098
 1404DOPC   D2A16469  21.933   5.826  14.174  0.1753  0.1227 -0.0360
 1404DOPC   C3A16470  21.899   5.609  13.752  0.5197  0.1282  0.0594
 1404DOPC   C4A16471  21.764   5.426  13.351  0.2003 -0.2403 -0.0863
 1404DOPC   C1B16472  22.025   5.199  14.400 -0.0111  0.2202  0.4004
 1404DOPC   D2B16473  22.260   4.961  14.123 -0.2651 -0.1063  0.1113
 1404DOPC   C3B16474  22.220   4.599  13.846 -0.0178  0.1636  0.1827
 1404DOPC   C4B16475  22.155   4.178  13.760 -0.0206  0.2647 -0.0582
 1405POSM   NC316476  13.300   0.859  15.801 -0.0665 -0.2233 -0.0524
 1405POSM   PO416477  13.096   0.507  15.786  0.2289 -0.2539 -0.0961
 1405POSM   AM116478  13.015   0.547  15.481 -0.4568 -0.3045  0.1809
 1405POSM   AM216479  13.143   0.715  15.268  0.1967  0.0644 -0.0713
 1405POSM   T1A16480  12.724   0.399  15.098  0.0693 -0.1583  0.1244
 1405POSM   C2A16481  12.469   0.187  14.747 -0.0776 -0.3302  0.1006
 1405POSM   C3A16482  12.478   0.118  14.253  0.1690 -0.3498  0.1734
 1405POSM   C1B16483  13.235   0.465  15.097 -0.1364  0.2708  0.1007
 1405POSM   D2B16484  13.041   0.014  15.129 -0.0884 -0.2556  0.0992
 1405POSM   C3B16485  12.573  -0.089  15.109 -0.0905  0.0448 -0.3314
 1405POSM   C4B16486  12.212  -0.262  14.890 -0.0517  0.0727 -0.0052
 1406DOPE   NH316487  19.766   2.317  15.495  0.0675 -0.6951  0.1382
 1406DOPE   PO416488  19.891   2.622  15.509 -0.1775  0.1696  0.0832
 1406DOPE   GL116489  19.786   2.706  15.117 -0.1178 -0.0431 -0.1264
 1406DOPE   GL216490  20.062   2.855  15.081 -0.0562  0.1013  0.2747
 1406DOPE   C1A16491  19.704   2.761  14.652  0.0046 -0.3495 -0.1652
 1406DOPE   D2A16492  19.761   2.511  14.262  0.1264  0.2227  0.2149
 1406DOPE   C3A16493  19.879   2.326  13.881 -0.0560  0.3474  0.0099
 1406DOPE   C4A16494  19.972   2.011  13.519 -0.1313 -0.0039 -0.2406
 1406DOPE   C1B16495  20.076   3.348  15.035 -0.0911 -0.0400  0.2813
 1406DOPE   D2B16496  19.864   3.733  15.000 -0.2098  0.1470 -0.2700
 1406DOPE   C3B16497  19.870   3.853  14.507 -0.2318 -0.1620 -0.3705
 1406DOPE   C4B16498  20.077   3.651  14.170  0.1489  0.2386  0.3372
 1407DOPE   NH316499  21.805   3.315  16.048  0.1976 -0.0412  0.1810
 1407DOPE   PO416500  21.731   3.122  15.792 -0.3333  0.0626  0.1513
 1407DOPE   GL116501  21.804   3.499  15.527 -0.0442  0.1933 -0.1603
 1407DOPE   GL216502  21.618   3.417  15.249  0.1302  0.0451  0.2424
 1407DOPE   C1A16503  21.634   3.900  15.369 -0.0167  0.1518 -0.2252
 1407DOPE   D2A16504  21.483   4.182  15.032  0.0209 -0.0460  0.0018
 1407DOPE   C3A16505  21.813   4.271  14.699 -0.4076  0.2738 -0.2137
 1407DOPE   C4A16506  21.884   4.150  14.289 -0.4075  0.1472  0.2092
 1407DOPE   C1B16507  21.201   3.612  15.112 -0.2417 -0.1806  0.1216
 1407DOPE   D2B16508  20.875   3.701  14.797  0.1544  0.1636  0.0008
 1407DOPE   C3B16509  20.761   3.454  14.413  0.1898 -0.4112 -0.1950
 1407DOPE   C4B16510  21.085   3.644  14.198 -0.0473  0.1542  0.4329
 1408POSM   NC316511  15.888   1.510  16.536  0.0569  0.1179 -0.0536
 1408POSM   PO416512  15.652   1.389  16.264 -0.1529 -0.2020  0.2423
 1408POSM   AM116513  15.660   1.450  15.932 -0.2539  0.3531 -0.0396
 1408POSM   AM216514  15.880   1.452  15.707 -0.1932  0.2192  0.0071
 1408POSM   T1A16515  15.478   1.446  15.439 -0.0426 -0.4062 -0.2424
 1408POSM   C2A16516  15.494   1.473  14.972  0.1344 -0.0559  0.0194
 1408POSM   C3A16517  15.445   1.055  14.713  0.0910  0.1434  0.0354
 1408POSM   C1B16518  16.041   1.449  15.413 -0.0666 -0.0638  0.0527
 1408POSM   D2B16519  16.230   1.238  15.056  0.1880  0.1535 -0.0608
 1408POSM   C3B16520  16.026   1.115  14.598  0.2554 -0.1492 -0.1119
 1408POSM   C4B16521  15.784   1.296  14.206 -0.1854  0.1901 -0.0118
 1409DOPS   CNO16522  18.464   1.311  15.633  0.1045  0.1195  0.0255
 1409DOPS   PO416523  18.768   1.505  15.728 -0.0899  0.3472 -0.1754
 1409DOPS   GL116524  18.815   1.592  15.271 -0.2436  0.4092 -0.2591
 1409DOPS   GL216525  19.037   1.635  15.227 -0.1613 -0.0532  0.2206
 1409DOPS   C1A16526  18.898   1.655  14.787  0.0664 -0.0062  0.0190
 1409DOPS   D2A16527  19.078   1.907  14.465  0.1011  0.0743 -0.1414
 1409DOPS   C3A16528  19.006   1.909  14.039  0.1100  0.0231  0.1739
 1409DOPS   C4A16529  18.829   2.071  13.662  0.0705 -0.1217  0.0544
 1409DOPS   C1B16530  18.907   2.072  15.126  0.2747 -0.0932  0.1601
 1409DOPS   D2B16531  18.986   2.369  14.724  0.0494 -0.1007 -0.0087
 1409DOPS   C3B16532  19.041   2.382  14.301  0.2400 -0.0444 -0.0803
 1409DOPS   C4B16533  19.198   2.456  13.869 -0.1228  0.3968  0.1907
 1410DOPC   NC316534  14.996  10.877  14.488  0.1713  0.1116 -0.0010
 1410DOPC   PO416535  14.808  10.640  14.734 -0.0019  0.1400  0.3268
 1410DOPC   GL116536  14.623  10.605  14.429 -0.1700 -0.1935 -0.0058
 1410DOPC   GL216537  14.523  10.849  14.315  0.1461  0.1490 -0.0148
 1410DOPC   C1A16538  14.868  10.555  14.064 -0.1932 -0.2137 -0.0976
 1410DOPC   D2A16539  15.172  10.435  13.704 -0.0226  0.3048 -0.1286
 1410DOPC   C3A16540  15.460  10.715  13.502 -0.2134  0.1207 -0.3630
 1410DOPC   C4A16541  15.422  11.161  13.516  0.2662  0.0294  0.1246
 1410DOPC   C1B16542  14.604  11.012  13.862 -0.1479  0.4006 -0.1331
 1410DOPC   D2B16543  14.633  11.174  13.427  0.0347  0.0575  0.1214
 1410DOPC   C3B16544  14.550  10.946  12.972 -0.4278 -0.2211  0.2118
 1410DOPC   C4B16545  14.686  10.525  12.881  0.2748 -0.0831  0.0075
 1411POSM   NC316546  17.863   5.795  15.659 -0.2997  0.0192  0.0980
 1411POSM   PO416547  17.443   5.878  15.759 -0.0505 -0.1540 -0.2044
 1411POSM   AM116548  17.259   5.764  15.478  0.0306 -0.2797  0.0576
 1411POSM   AM216549  17.201   5.848  15.235  0.3227  0.3196  0.0677
 1411POSM   T1A16550  17.034   5.398  15.198  0.1061  0.1942 -0.3992
 1411POSM   C2A16551  16.820   5.538  14.820 -0.0553  0.2198 -0.3567
 1411POSM   C3A16552  16.722   5.720  14.374  0.0581  0.0483  0.0057
 1411POSM   C1B16553  17.156   5.909  14.919  0.3319  0.1570  0.3278
 1411POSM   D2B16554  17.101   6.160  14.502 -0.3389 -0.2346  0.1002
 1411POSM   C3B16555  17.083   5.953  14.067  0.2844  0.1795  0.4930
 1411POSM   C4B16556  17.075   5.648  13.698  0.0381  0.0624  0.0041
 1412DOPE   NH316557  18.416   1.821  15.514 -0.2440 -0.1844  0.1404
 1412DOPE   PO416558  18.198   1.690  15.360  0.0044  0.1509 -0.0095
 1412DOPE   GL116559  18.316   1.819  15.072  0.1411  0.0416  0.0037
 1412DOPE   GL216560  18.283   1.561  14.843 -0.1314  0.5014 -0.1126
 1412DOPE   C1A16561  18.374   1.989  14.672 -0.0672  0.1918  0.2283
 1412DOPE   D2A16562  18.639   2.065  14.281 -0.0702 -0.0186 -0.0855
 1412DOPE   C3A16563  18.401   1.900  13.880 -0.0253 -0.1030 -0.0756
 1412DOPE   C4A16564  18.348   1.997  13.424 -0.0555 -0.0685  0.0058
 1412DOPE   C1B16565  17.929   1.752  14.514 -0.1468 -0.0890 -0.1127
 1412DOPE   D2B16566  17.493   1.786  14.407  0.0786  0.2291 -0.0160
 1412DOPE   C3B16567  17.104   1.668  14.193  0.0048  0.3466 -0.0443
 1412DOPE   C4B16568  16.675   1.774  14.371 -0.4654  0.2101  0.1993
 1413DOPS   CNO16569  17.573   0.281  15.888  0.3493 -0.0402  0.0110
 1413DOPS   PO416570  17.460   0.426  15.560  0.1039 -0.2434 -0.5270
 1413DOPS   GL116571  17.449   0.652  15.185 -0.0207  0.0912 -0.1800
 1413DOPS   GL216572  17.382   0.952  15.208 -0.1934 -0.1607  0.1126
 1413DOPS   C1A16573  17.177   0.544  14.789  0.2248 -0.0907 -0.0342
 1413DOPS   D2A16574  17.003   0.238  14.473  0.1708  0.0472 -0.2040
 1413DOPS   C3A16575  17.206   0.367  14.128 -0.2781  0.3387  0.0060
 1413DOPS   C4A16576  17.538   0.089  13.870 -0.1123  0.0830  0.1451
 1413DOPS   C1B16577  17.155   1.004  14.804  0.3103 -0.3106 -0.0753
 1413DOPS   D2B16578  17.164   0.980  14.387 -0.0331  0.1284  0.0556
 1413DOPS   C3B16579  17.489   0.861  14.039  0.2461  0.0609 -0.0680
 1413DOPS   C4B16580  17.527   1.193  13.707  0.0761 -0.0652  0.2916
 1414DOPS   CNO16581  17.400   9.797  15.793  0.3298 -0.0065  0.0497
 1414DOPS   PO416582  17.431  10.019  15.507 -0.0576  0.1060 -0.1011
 1414DOPS   GL116583  17.381   9.849  15.149  0.1252 -0.4899  0.3357
 1414DOPS   GL216584  17.629   9.787  15.052 -0.1575 -0.2745 -0.0867
 1414DOPS   C1A16585  17.258   9.952  14.757  0.1889 -0.0875 -0.1321
 1414DOPS   D2A16586  17.451  10.049  14.343 -0.4830  0.0878  0.0229
 1414DOPS   C3A16587  17.733   9.736  14.123 -0.0920  0.0985  0.0716
 1414DOPS   C4A16588  17.726   9.567  13.695 -0.3798  0.3104 -0.0294
 1414DOPS   C1B16589  17.764   9.566  14.686  0.1239 -0.2289  0.4353
 1414DOPS   D2B16590  17.900   9.238  14.384 -0.1779  0.0411 -0.0666
 1414DOPS   C3B16591  18.251   9.507  14.299  0.0818  0.0250 -0.2081
 1414DOPS   C4B16592  18.610   9.646  14.219 -0.0662 -0.0997  0.0556
 1415DOPE   NH316593  22.644   0.700  16.086 -0.1460  0.0727 -0.0881
 1415DOPE   PO416594  22.806   0.393  16.105 -0.3600  0.1416  0.3312
 1415DOPE   GL116595  22.707   0.433  15.673  0.2972  0.3953 -0.0851
 1415DOPE   GL216596  22.551   0.218  15.619 -0.1578 -0.1499  0.0346
 1415DOPE   C1A16597  22.922   0.464  15.254  0.0243  0.2055 -0.1960
 1415DOPE   D2A16598  23.332   0.552  15.074 -0.1897  0.0890  0.2390
 1415DOPE   C3A16599  23.520   0.563  14.630  0.0109 -0.1246 -0.0271
 1415DOPE   C4A16600  23.339   0.758  14.257  0.0580 -0.2114 -0.0181
 1415DOPE   C1B16601  22.739  -0.034  15.374 -0.0531 -0.1954  0.0968
 1415DOPE   D2B16602  22.840  -0.293  15.023  0.3262 -0.3907  0.3079
 1415DOPE   C3B16603  22.780  -0.730  14.882 -0.0066  0.0590 -0.1151
 1415DOPE   C4B16604  22.601  -0.943  14.498 -0.0591  0.1451 -0.1682
 1416DOPC   NC316605  17.905   2.500  15.685 -0.1257  0.0761 -0.1413
 1416DOPC   PO416606  18.249   2.298  15.586  0.2939 -0.1148  0.0445
 1416DOPC   GL116607  18.132   2.167  15.154  0.0921  0.1989 -0.0661
 1416DOPC   GL216608  17.810   2.216  15.220 -0.1508 -0.0303  0.2661
 1416DOPC   C1A16609  17.973   2.334  14.764  0.6273 -0.0632  0.0669
 1416DOPC   D2A16610  17.624   2.265  14.495 -0.0012  0.0699  0.0211
 1416DOPC   C3A16611  17.465   2.090  14.062 -0.2199  0.1130  0.1315
 1416DOPC   C4A16612  17.316   1.732  13.770 -0.2065  0.0620  0.1695
 1416DOPC   C1B16613  17.356   2.189  15.009  0.0585  0.1954  0.0243
 1416DOPC   D2B16614  17.049   1.988  14.738  0.0709  0.1647  0.0567
 1416DOPC   C3B16615  16.950   2.157  14.307  0.0976 -0.0387 -0.1618
 1416DOPC   C4B16616  16.814   2.233  13.853 -0.1752 -0.0290 -0.2352
 1417DOPS   CNO16617  22.693   5.876  15.599  0.4154  0.0860 -0.2248
 1417DOPS   PO416618  22.481   6.209  15.592  0.0139  0.0969  0.0206
 1417DOPS   GL116619  22.360   6.342  15.171  0.0992  0.0092 -0.3404
 1417DOPS   GL216620  22.214   6.565  15.079 -0.1367 -0.2213  0.0140
 1417DOPS   C1A16621  22.432   6.000  14.839 -0.2461 -0.1050 -0.0982
 1417DOPS   D2A16622  22.607   5.815  14.467  0.0059 -0.2670 -0.0231
 1417DOPS   C3A16623  22.483   5.401  14.245 -0.2278  0.2203 -0.1530
 1417DOPS   C4A16624  22.610   5.217  13.861  0.2104 -0.3416 -0.0685
 1417DOPS   C1B16625  22.216   6.408  14.703  0.4721 -0.5214  0.0002
 1417DOPS   D2B16626  22.358   6.206  14.287 -0.0672 -0.1124 -0.1560
 1417DOPS   C3B16627  22.142   6.122  13.894 -0.0347 -0.2047  0.3341
 1417DOPS   C4B16628  22.123   6.004  13.442 -0.0616 -0.0067 -0.0359
 1418DOPE   NH316629  14.957  10.317  15.062  0.3281  0.0954  0.0436
 1418DOPE   PO416630  15.217  10.165  15.235 -0.2070 -0.2855  0.0067
 1418DOPE   GL116631  15.286  10.136  14.779  0.2771  0.1593 -0.0499
 1418DOPE   GL216632  15.158  10.306  14.542  0.4025  0.1018 -0.0211
 1418DOPE   C1A16633  15.501  10.000  14.354  0.0354  0.1779 -0.1085
 1418DOPE   D2A16634  15.701  10.005  13.944  0.1926  0.1105  0.0492
 1418DOPE   C3A16635  15.986   9.654  13.824 -0.2233  0.0102  0.2661
 1418DOPE   C4A16636  16.136   9.278  13.549 -0.0087  0.1387 -0.3699
 1418DOPE   C1B16637  14.969  10.078  14.197 -0.0488 -0.3237 -0.0727
 1418DOPE   D2B16638  14.681   9.734  14.224 -0.1800  0.2697  0.2057
 1418DOPE   C3B16639  14.822   9.420  14.588 -0.2861  0.2022  0.1454
 1418DOPE   C4B16640  14.865   9.321  15.021 -0.3523 -0.2817 -0.0072
 1419DOPE   NH316641  19.721   7.871  15.086 -0.1417 -0.2240  0.1890
 1419DOPE   PO416642  19.957   8.107  15.222  0.1150  0.2442 -0.0266
 1419DOPE   GL116643  19.994   8.298  14.880 -0.1243  0.0330 -0.2419
 1419DOPE   GL216644  19.729   8.307  14.814  0.0251 -0.0423 -0.1404
 1419DOPE   C1A16645  20.170   8.028  14.564 -0.2078  0.6362 -0.1548
 1419DOPE   D2A16646  20.447   7.716  14.345 -0.0664 -0.0753  0.0825
 1419DOPE   C3A16647  20.414   7.273  14.475  0.1782 -0.0159 -0.1976
 1419DOPE   C4A16648  20.415   6.786  14.526 -0.0407  0.0596 -0.0306
 1419DOPE   C1B16649  19.574   7.962  14.574 -0.2241 -0.2377  0.3328
 1419DOPE   D2B16650  19.687   7.619  14.327  0.0645 -0.0489 -0.0215
 1419DOPE   C3B16651  20.097   7.697  14.019  0.0455  0.0114  0.0208
 1419DOPE   C4B16652  20.348   7.822  13.632 -0.3705 -0.1497 -0.1192
 1420DOPE   NH316653  19.389   4.260  15.810 -0.2195 -0.0369  0.3830
 1420DOPE   PO416654  19.209   4.553  15.732 -0.0647 -0.0480  0.0961
 1420DOPE   GL116655  18.935   4.513  15.411 -0.1841  0.2406 -0.1024
 1420DOPE   GL216656  18.859   4.795  15.369 -0.0065 -0.0444 -0.0218
 1420DOPE   C1A16657  18.584   4.278  15.142 -0.1654 -0.1027  0.1171
 1420DOPE   D2A16658  18.422   4.010  14.794 -0.1424  0.2220  0.0688
 1420DOPE   C3A16659  18.638   3.850  14.430  0.2943  0.2885 -0.2886
 1420DOPE   C4A16660  19.005   3.736  14.140  0.0439 -0.1501 -0.1635
 1420DOPE   C1B16661  18.509   4.899  15.106 -0.0169 -0.1133  0.2240
 1420DOPE   D2B16662  18.290   4.978  14.668 -0.1453  0.0082  0.2417
 1420DOPE   C3B16663  18.428   5.299  14.471  0.1612  0.3151  0.3858
 1420DOPE   C4B16664  18.527   5.576  14.121  0.2149 -0.0218 -0.1899
 1421DOPC   NC316665  23.151  10.064  15.591  0.0122  0.1591 -0.1218
 1421DOPC   PO416666  22.899  10.219  15.855  0.3754  0.2231  0.0547
 1421DOPC   GL116667  22.778  10.304  15.442 -0.1626  0.4239 -0.0593
 1421DOPC   GL216668  22.559  10.190  15.222 -0.1817 -0.0652 -0.0792
 1421DOPC   C1A16669  23.067  10.330  15.087  0.1494 -0.1903 -0.3235
 1421DOPC   D2A16670  23.101  10.243  14.647  0.2747  0.1228  0.0778
 1421DOPC   C3A16671  23.281  10.562  14.367  0.1666  0.1905  0.2435
 1421DOPC   C4A16672  23.428  10.583  13.946 -0.0829 -0.0725  0.0693
 1421DOPC   C1B16673  22.613  10.623  15.025  0.1604  0.0649  0.0850
 1421DOPC   D2B16674  22.877  10.724  14.677  0.0541 -0.2578  0.3656
 1421DOPC   C3B16675  22.873  10.800  14.219  0.0067 -0.0008  0.1675
 1421DOPC   C4B16676  22.756  10.774  13.779  0.1593 -0.1871 -0.0686
 1422POSM   NC316677  14.036   7.121  15.515  0.0993 -0.2209 -0.0536
 1422POSM   PO416678  13.871   6.746  15.462  0.1574  0.1361 -0.0012
 1422POSM   AM116679  13.966   6.489  15.270 -0.0461 -0.0061 -0.0550
 1422POSM   AM216680  14.013   6.204  15.317  0.0166 -0.1331 -0.4121
 1422POSM   T1A16681  13.889   6.258  14.812 -0.2052 -0.3183 -0.1941
 1422POSM   C2A16682  13.947   5.870  14.512 -0.0057  0.0980  0.1838
 1422POSM   C3A16683  13.954   5.507  14.219 -0.0039  0.0972  0.2074
 1422POSM   C1B16684  13.795   5.985  15.198  0.1541 -0.3160 -0.2055
 1422POSM   D2B16685  13.546   5.739  14.920  0.3025  0.0516 -0.0538
 1422POSM   C3B16686  13.172   5.470  15.079  0.1184 -0.1882 -0.2803
 1422POSM   C4B16687  13.165   5.020  15.269  0.3996 -0.1885 -0.0937
 1423POSM   NC316688  11.728  10.399  15.963 -0.3466  0.0401 -0.0766
 1423POSM   PO416689  11.335  10.318  16.068  0.0144 -0.1088 -0.0465
 1423POSM   AM116690  11.196  10.345  15.772  0.0025  0.1054 -0.0439
 1423POSM   AM216691  11.182  10.252  15.505  0.0998 -0.0124 -0.1177
 1423POSM   T1A16692  11.164  10.764  15.399  0.0583  0.0861  0.2237
 1423POSM   C2A16693  10.958  10.759  14.968 -0.0177  0.2331  0.0185
 1423POSM   C3A16694  10.771  10.880  14.544  0.0864 -0.1280  0.2087
 1423POSM   C1B16695  11.292  10.290  15.222 -0.2609 -0.1851  0.3016
 1423POSM   D2B16696  11.300  10.128  14.775 -0.0556  0.0521  0.1840
 1423POSM   C3B16697  11.737  10.170  14.575  0.0607 -0.0207 -0.0683
 1423POSM   C4B16698  12.152   9.979  14.445  0.0750 -0.0757  0.0812
 1424DOPC   NC316699  16.805   4.213  15.513  0.0795 -0.0577  0.1827
 1424DOPC   PO416700  17.087   4.034  15.676 -0.0748 -0.0307  0.1361
 1424DOPC   GL116701  17.218   4.171  15.262  0.0505 -0.1789  0.3597
 1424DOPC   GL216702  17.346   4.396  15.377  0.0016 -0.2157 -0.0588
 1424DOPC   C1A16703  16.970   4.266  14.909  0.4639  0.2533  0.0455
 1424DOPC   D2A16704  16.863   3.987  14.572  0.2221  0.0489  0.5217
 1424DOPC   C3A16705  16.886   3.535  14.393 -0.0998  0.0129  0.0354
 1424DOPC   C4A16706  17.060   3.114  14.387  0.3425  0.0608 -0.2517
 1424DOPC   C1B16707  17.105   4.674  15.110  0.2610  0.1246 -0.5928
 1424DOPC   D2B16708  16.939   4.989  14.811 -0.2335  0.3962  0.1183
 1424DOPC   C3B16709  17.166   5.058  14.394 -0.1152 -0.2013  0.1610
 1424DOPC   C4B16710  17.451   5.403  14.125 -0.2425  0.0088  0.0940
 1425DOPC   NC316711  19.316   5.036  16.021 -0.3474  0.3120 -0.2111
 1425DOPC   PO416712  19.571   5.268  15.813 -0.0029  0.0562 -0.1472
 1425DOPC   GL116713  19.552   5.071  15.384  0.0913  0.1686  0.2148
 1425DOPC   GL216714  19.329   4.816  15.327 -0.2407  0.1003  0.1091
 1425DOPC   C1A16715  19.774   5.249  14.977  0.1049  0.0232  0.2337
 1425DOPC   D2A16716  19.817   5.206  14.495 -0.1752 -0.0703 -0.0723
 1425DOPC   C3A16717  20.152   5.276  14.236 -0.0345 -0.0433 -0.0022
 1425DOPC   C4A16718  20.486   5.374  13.919  0.6265  0.2024  0.0224
 1425DOPC   C1B16719  19.104   5.021  15.013 -0.1259 -0.2457  0.2813
 1425DOPC   D2B16720  18.811   5.201  14.750  0.1623 -0.1652 -0.0795
 1425DOPC   C3B16721  18.882   5.124  14.314 -0.3061 -0.0169 -0.1433
 1425DOPC   C4B16722  18.648   5.130  13.959  0.2445  0.2533  0.2644
 1426DOPS   CNO16723  12.572   8.301  15.890  0.2982  0.0900 -0.1095
 1426DOPS   PO416724  12.481   8.601  15.638  0.0400 -0.1789  0.0387
 1426DOPS   GL116725  12.528   8.573  15.287  0.2777 -0.1331  0.0977
 1426DOPS   GL216726  12.293   8.510  15.135 -0.0219  0.0130  0.0822
 1426DOPS   C1A16727  12.760   8.772  14.959  0.1619 -0.0259 -0.1505
 1426DOPS   D2A16728  13.095   8.677  14.718 -0.2212 -0.1829  0.1457
 1426DOPS   C3A16729  13.222   8.941  14.377 -0.1973 -0.1168 -0.0372
 1426DOPS   C4A16730  13.239   9.113  13.928 -0.1315 -0.0398 -0.1605
 1426DOPS   C1B16731  12.414   8.418  14.697 -0.0986  0.0158 -0.1245
 1426DOPS   D2B16732  12.731   8.641  14.360 -0.0689  0.1413 -0.1151
 1426DOPS   C3B16733  12.647   8.732  13.909 -0.1661  0.0580 -0.0586
 1426DOPS   C4B16734  12.964   8.835  13.626 -0.2789 -0.0837  0.2270
 1427DOPE   NH316735  19.414   1.694  15.606 -0.5757  0.2536 -0.1275
 1427DOPE   PO416736  19.287   1.403  15.668 -0.0118  0.0187 -0.0838
 1427DOPE   GL116737  19.340   1.295  15.272 -0.0164  0.0548 -0.0126
 1427DOPE   GL216738  19.143   1.105  15.212 -0.1674 -0.2287 -0.2175
 1427DOPE   C1A16739  19.345   1.298  14.789 -0.1810  0.1036  0.1268
 1427DOPE   D2A16740  19.135   1.417  14.373 -0.2398 -0.0851  0.0617
 1427DOPE   C3A16741  18.781   1.519  14.107  0.0978  0.1215  0.1962
 1427DOPE   C4A16742  18.708   1.593  13.688 -0.0411 -0.2635  0.0211
 1427DOPE   C1B16743  18.858   1.204  14.880  0.1380 -0.4268 -0.1191
 1427DOPE   D2B16744  18.620   1.320  14.496  0.1040  0.3055  0.0683
 1427DOPE   C3B16745  18.478   1.086  14.107 -0.1867  0.1168  0.1277
 1427DOPE   C4B16746  18.597   1.066  13.668  0.0361  0.0716  0.0639
 1428DOPS   CNO16747  19.970   5.526  15.976  0.0073  0.1133 -0.0227
 1428DOPS   PO416748  20.270   5.403  15.752 -0.2199  0.0444 -0.1402
 1428DOPS   GL116749  20.312   5.481  15.369 -0.0021 -0.4222  0.1810
 1428DOPS   GL216750  20.503   5.240  15.252 -0.0064 -0.1325  0.0531
 1428DOPS   C1A16751  20.539   5.721  14.997  0.0838  0.1132 -0.0184
 1428DOPS   D2A16752  20.793   5.905  14.644  0.2663  0.0318  0.1132
 1428DOPS   C3A16753  20.702   5.994  14.230 -0.0128 -0.0015 -0.1225
 1428DOPS   C4A16754  20.461   6.147  13.859 -0.0025 -0.0186  0.1521
 1428DOPS   C1B16755  20.708   4.937  14.944 -0.0397 -0.1483 -0.0643
 1428DOPS   D2B16756  20.617   4.550  14.775 -0.0983  0.4112  0.0330
 1428DOPS   C3B16757  20.759   4.470  14.373 -0.1117 -0.2213 -0.2994
 1428DOPS   C4B16758  20.706   4.318  13.976  0.2269 -0.1024  0.0994
 1429DOPE   NH316759  22.860   1.526  11.857  0.0170  0.4121  0.1774
 1429DOPE   PO416760  23.134   1.494  12.051  0.1958 -0.3593 -0.1353
 1429DOPE   GL116761  23.107   1.136  12.355  0.2495 -0.1354 -0.3112
 1429DOPE   GL216762  23.284   0.923  12.420  0.1745 -0.1753  0.3612
 1429DOPE   C1A16763  22.948   0.935  12.731 -0.0899  0.2947 -0.0668
 1429DOPE   D2A16764  22.680   0.891  13.071 -0.1233 -0.1744  0.2112
 1429DOPE   C3A16765  22.786   1.192  13.425  0.0274  0.1833  0.2154
 1429DOPE   C4A16766  22.965   1.066  13.873  0.1832  0.0400  0.2608
 1429DOPE   C1B16767  23.696   1.170  12.371  0.1054 -0.3698 -0.3781
 1429DOPE   D2B16768  23.955   1.571  12.279  0.1260 -0.1185  0.2933
 1429DOPE   C3B16769  24.165   1.836  12.557  0.1624  0.2308  0.1487
 1429DOPE   C4B16770  24.305   2.212  12.450 -0.1869  0.3520  0.1090
 1430DOPS   CNO16771  13.139   4.098  11.917  0.1373  0.2085  0.3219
 1430DOPS   PO416772  13.110   4.153  12.275 -0.1654  0.1024  0.0209
 1430DOPS   GL116773  13.210   3.748  12.455 -0.1847 -0.0650  0.0333
 1430DOPS   GL216774  13.083   3.868  12.689 -0.0610 -0.2035  0.3505
 1430DOPS   C1A16775  13.363   3.404  12.664 -0.0454  0.2115  0.1253
 1430DOPS   D2A16776  13.298   2.981  12.586  0.0499 -0.5106  0.2609
 1430DOPS   C3A16777  13.472   2.648  12.847 -0.1653  0.0107 -0.0371
 1430DOPS   C4A16778  13.477   2.314  13.167 -0.0088 -0.0660  0.1537
 1430DOPS   C1B16779  13.082   3.806  13.143 -0.1064  0.3517 -0.0852
 1430DOPS   D2B16780  13.099   3.806  13.561  0.0987  0.2720 -0.2786
 1430DOPS   C3B16781  13.154   3.405  13.717  0.0111  0.3307 -0.0441
 1430DOPS   C4B16782  13.243   2.976  13.746  0.0548  0.1794  0.1835
 1431DOPE   NH316783  19.842   1.178  11.746  0.3143 -0.4030 -0.0597
 1431DOPE   PO416784  20.080   1.036  11.909 -0.3017  0.2840 -0.0047
 1431DOPE   GL116785  20.243   1.412  12.089 -0.3110  0.0826  0.1335
 1431DOPE   GL216786  20.338   1.463  11.832 -0.0956 -0.0432 -0.2163
 1431DOPE   C1A16787  20.626   1.443  12.309  0.1702  0.0527 -0.2186
 1431DOPE   D2A16788  20.910   1.607  12.643 -0.1974 -0.2345  0.3164
 1431DOPE   C3A16789  20.964   2.066  12.851  0.2551  0.0636 -0.0084
 1431DOPE   C4A16790  21.231   2.193  13.178 -0.1666 -0.0003 -0.3077
 1431DOPE   C1B16791  20.711   1.802  11.944  0.1068 -0.2591  0.1413
 1431DOPE   D2B16792  20.917   2.011  12.319  0.0351 -0.1822 -0.1842
 1431DOPE   C3B16793  21.335   2.065  12.161  0.0644 -0.1056  0.2055
 1431DOPE   C4B16794  21.750   1.817  12.166  0.0089  0.1628 -0.1903
 1432DOPE   NH316795  23.074   0.996  11.876  0.3935 -0.0068 -0.0592
 1432DOPE   PO416796  22.746   1.051  11.850 -0.1102 -0.2265 -0.0676
 1432DOPE   GL116797  22.480   1.324  12.170  0.1609  0.1198 -0.0305
 1432DOPE   GL216798  22.729   1.370  12.330 -0.2101  0.0781 -0.1336
 1432DOPE   C1A16799  22.043   1.170  12.210  0.0746 -0.1173 -0.1964
 1432DOPE   D2A16800  21.615   1.252  12.463 -0.4423 -0.1571  0.2115
 1432DOPE   C3A16801  21.235   0.987  12.441  0.0678 -0.0463  0.1050
 1432DOPE   C4A16802  20.925   1.093  12.767 -0.1508  0.0317 -0.0703
 1432DOPE   C1B16803  22.690   1.345  12.822  0.0928  0.0352  0.1231
 1432DOPE   D2B16804  22.406   1.343  13.162  0.1134 -0.2415  0.0978
 1432DOPE   C3B16805  21.956   1.238  13.292  0.1292 -0.0195 -0.2218
 1432DOPE   C4B16806  21.513   1.402  13.380  0.1132  0.1970 -0.0992
 1433DOPC   NC316807  22.660   2.704  11.861  0.2250  0.1750  0.0353
 1433DOPC   PO416808  22.568   2.388  12.064  0.2043  0.1227  0.0046
 1433DOPC   GL116809  22.441   2.128  12.277  0.1209  0.1949  0.1097
 1433DOPC   GL216810  22.267   2.184  12.596 -0.2096 -0.1442 -0.0066
 1433DOPC   C1A16811  22.231   1.720  12.350  0.3725  0.0202  0.2070
 1433DOPC   D2A16812  22.134   1.391  12.678  0.0601 -0.0153 -0.1139
 1433DOPC   C3A16813  21.725   1.416  12.891 -0.3901 -0.1701  0.0798
 1433DOPC   C4A16814  21.408   1.139  12.982 -0.4345  0.1504  0.2561
 1433DOPC   C1B16815  21.843   1.973  12.691 -0.0635 -0.2691 -0.1267
 1433DOPC   D2B16816  21.390   1.910  12.593  0.0508 -0.0983 -0.0985
 1433DOPC   C3B16817  21.353   2.364  12.729  0.0519  0.1666  0.3867
 1433DOPC   C4B16818  21.404   2.765  12.982 -0.2022 -0.0050  0.0456
 1434DOPC   NC316819  13.178   7.239  12.086 -0.2641  0.0701 -0.0962
 1434DOPC   PO416820  13.035   7.555  12.274 -0.0095  0.3133  0.2762
 1434DOPC   GL116821  13.259   7.727  12.540  0.0369 -0.0094 -0.1043
 1434DOPC   GL216822  13.482   7.488  12.625  0.1472 -0.0755  0.2017
 1434DOPC   C1A16823  13.231   8.211  12.467  0.0255 -0.2779 -0.0275
 1434DOPC   D2A16824  13.196   8.632  12.681  0.0264 -0.3036  0.1261
 1434DOPC   C3A16825  13.532   8.942  12.521  0.3569 -0.3224 -0.1286
 1434DOPC   C4A16826  13.779   9.145  12.131  0.0465  0.0566  0.0271
 1434DOPC   C1B16827  13.695   7.909  12.565  0.0209  0.0703 -0.2313
 1434DOPC   D2B16828  13.673   8.356  12.574 -0.3164  0.0411 -0.0732
 1434DOPC   C3B16829  13.662   8.677  12.906  0.0853 -0.2803 -0.0603
 1434DOPC   C4B16830  13.510   8.831  13.328  0.0799  0.0116 -0.0380
 1435DOPE   NH316831  10.920   7.933  12.196 -0.0395 -0.0337 -0.3247
 1435DOPE   PO416832  11.165   8.165  12.163  0.4066  0.1491 -0.2260
 1435DOPE   GL116833  11.087   8.254  12.519 -0.0642  0.1615 -0.0495
 1435DOPE   GL216834  11.307   8.403  12.639  0.3445  0.1831 -0.1071
 1435DOPE   C1A16835  10.898   8.311  12.922  0.1560  0.3339 -0.0486
 1435DOPE   D2A16836  10.608   8.116  13.238  0.0590 -0.0440  0.1266
 1435DOPE   C3A16837  10.300   8.392  13.419 -0.1138  0.2503 -0.1369
 1435DOPE   C4A16838  10.109   8.769  13.618  0.0201  0.0286 -0.2151
 1435DOPE   C1B16839  11.558   8.329  13.013 -0.0453 -0.1523  0.0828
 1435DOPE   D2B16840  11.392   8.420  13.468  0.1947 -0.4258 -0.0419
 1435DOPE   C3B16841  10.922   8.406  13.576  0.2963  0.0798 -0.2842
 1435DOPE   C4B16842  10.522   8.555  13.830  0.1154  0.2048  0.1867
 1436DOPE   NH316843  22.328   9.953  12.264 -0.3678 -0.0181 -0.2553
 1436DOPE   PO416844  22.607   9.803  12.179  0.0011 -0.2171 -0.3930
 1436DOPE   GL116845  22.814   9.716  12.602 -0.0496  0.0439  0.1027
 1436DOPE   GL216846  22.733   9.464  12.693 -0.0525 -0.2416  0.2196
 1436DOPE   C1A16847  23.156   9.495  12.924  0.1484  0.1679  0.1787
 1436DOPE   D2A16848  23.546   9.279  13.040 -0.0222 -0.0103 -0.1079
 1436DOPE   C3A16849  23.928   9.420  12.966 -0.0705  0.3429  0.0704
 1436DOPE   C4A16850  24.384   9.369  13.082  0.3225 -0.1486  0.1283
 1436DOPE   C1B16851  22.553   9.526  13.074  0.2060 -0.0039 -0.1435
 1436DOPE   D2B16852  22.267   9.596  13.526  0.2575 -0.0247 -0.0763
 1436DOPE   C3B16853  21.809   9.656  13.518 -0.0498 -0.1951  0.0403
 1436DOPE   C4B16854  21.552   9.996  13.274  0.1946 -0.0047  0.1870
 1437DOPE   NH316855  18.002   4.630  11.979 -0.1351 -0.0026 -0.1112
 1437DOPE   PO416856  18.157   4.945  12.072 -0.4050  0.0853 -0.0078
 1437DOPE   GL116857  18.187   5.111  12.479 -0.0866  0.0237  0.1913
 1437DOPE   GL216858  18.364   5.003  12.636 -0.1028  0.0600  0.3498
 1437DOPE   C1A16859  18.019   5.310  12.835  0.1308  0.0323  0.0881
 1437DOPE   D2A16860  17.874   5.726  13.024  0.0569  0.2544 -0.1317
 1437DOPE   C3A16861  18.191   5.783  13.345 -0.2791  0.0658  0.1676
 1437DOPE   C4A16862  18.495   5.730  13.677 -0.0625  0.3086 -0.1102
 1437DOPE   C1B16863  18.211   4.865  13.065  0.3028  0.0781  0.0240
 1437DOPE   D2B16864  18.407   5.057  13.418  0.0047  0.2513  0.2725
 1437DOPE   C3B16865  18.186   5.169  13.815 -0.1023  0.1678 -0.1102
 1437DOPE   C4B16866  17.938   5.090  14.184  0.0443 -0.1044 -0.0567
 1438POSM   NC316867  11.606   8.562  12.215  0.1763  0.3412  0.1684
 1438POSM   PO416868  12.004   8.584  12.175  0.1694 -0.2143 -0.0167
 1438POSM   AM116869  12.322   8.574  12.293 -0.1061  0.1644 -0.1581
 1438POSM   AM216870  12.446   8.649  12.522 -0.2211 -0.0448  0.0096
 1438POSM   T1A16871  12.799   8.476  12.211 -0.0111 -0.0187 -0.3219
 1438POSM   C2A16872  13.175   8.765  12.216 -0.2591  0.0740  0.2667
 1438POSM   C3A16873  13.647   8.668  12.171  0.1571 -0.1407  0.0956
 1438POSM   C1B16874  12.718   8.665  12.696  0.1309 -0.1351 -0.0137
 1438POSM   D2B16875  12.899   8.811  13.059 -0.2370 -0.3574 -0.0440
 1438POSM   C3B16876  13.056   8.412  13.158  0.1167 -0.4534  0.0752
 1438POSM   C4B16877  13.425   8.130  12.992  0.0503 -0.2730 -0.0473
 1439DOPE   NH316878  16.047   7.405  12.311 -0.0355 -0.0987  0.0397
 1439DOPE   PO416879  15.854   7.555  12.491 -0.0370  0.2298  0.0892
 1439DOPE   GL116880  15.611   7.463  12.731  0.0575 -0.2398 -0.0777
 1439DOPE   GL216881  15.428   7.756  12.634  0.1103 -0.1496 -0.2184
 1439DOPE   C1A16882  15.485   7.690  13.109  0.2073  0.0146 -0.2121
 1439DOPE   D2A16883  15.491   8.042  13.391  0.1482  0.2700 -0.0642
 1439DOPE   C3A16884  15.716   8.008  13.840 -0.1453 -0.3165  0.2827
 1439DOPE   C4A16885  16.072   7.940  14.073  0.1004  0.1253 -0.1043
 1439DOPE   C1B16886  15.154   8.068  12.844  0.3049 -0.0635 -0.0137
 1439DOPE   D2B16887  15.108   8.412  13.137  0.1878 -0.0162  0.0884
 1439DOPE   C3B16888  15.066   8.315  13.565 -0.0748 -0.0769  0.0691
 1439DOPE   C4B16889  15.027   7.971  13.864 -0.1721 -0.1616 -0.0824
 1440POSM   NC316890  18.163   7.239  12.193 -0.4230  0.2387 -0.0952
 1440POSM   PO416891  18.479   7.280  12.414  0.0550 -0.2905  0.1387
 1440POSM   AM116892  18.642   7.461  12.640 -0.0982 -0.0070  0.1549
 1440POSM   AM216893  18.839   7.480  12.787 -0.1408  0.1273 -0.2421
 1440POSM   T1A16894  18.444   7.556  13.103  0.3060  0.1733  0.3873
 1440POSM   C2A16895  18.350   7.906  13.402  0.0183  0.3482  0.2099
 1440POSM   C3A16896  18.133   8.337  13.388 -0.2544 -0.0482  0.0069
 1440POSM   C1B16897  18.858   7.314  13.071  0.0692  0.0312  0.1342
 1440POSM   D2B16898  18.771   7.102  13.414  0.1095 -0.0858 -0.4518
 1440POSM   C3B16899  18.361   6.993  13.637 -0.2668  0.3817  0.1202
 1440POSM   C4B16900  17.976   6.916  13.759  0.2084  0.2154 -0.2061
 1441POSM   NC316901  11.956  34.649  12.580 -0.1130  0.2063 -0.1378
 1441POSM   PO416902  11.995  34.848  12.259  0.0313 -0.0980  0.1851
 1441POSM   AM116903  12.153  35.123  12.343  0.1127  0.0030  0.3381
 1441POSM   AM216904  12.221  35.244  12.594  0.2265  0.0985 -0.0080
 1441POSM   T1A16905  12.108  35.627  12.294 -0.2484 -0.2470 -0.1626
 1441POSM   C2A16906  11.991  36.058  12.185  0.0074  0.1018 -0.3720
 1441POSM   C3A16907  12.013  36.426  11.871 -0.1161 -0.1120  0.0789
 1441POSM   C1B16908  12.338  35.479  12.712 -0.1378  0.1075 -0.0768
 1441POSM   D2B16909  12.304  35.710  13.122  0.0397 -0.0594 -0.0027
 1441POSM   C3B16910  12.517  36.087  13.246 -0.0072  0.0450  0.2792
 1441POSM   C4B16911  12.724  36.465  13.079  0.0505  0.2380 -0.0800
 1442DOPC   NC316912  21.983   9.938  11.710 -0.1840  0.0800 -0.1218
 1442DOPC   PO416913  22.215   9.694  11.894  0.2941  0.0257 -0.0896
 1442DOPC   GL116914  21.842   9.590  12.028 -0.2002  0.1756 -0.0162
 1442DOPC   GL216915  21.480   9.675  12.032  0.0472  0.1626 -0.2984
 1442DOPC   C1A16916  21.664   9.673  12.489 -0.2590  0.2602  0.2399
 1442DOPC   D2A16917  21.989  10.038  12.656 -0.1816  0.1590  0.3690
 1442DOPC   C3A16918  22.470  10.081  12.814 -0.2427  0.2298 -0.2852
 1442DOPC   C4A16919  22.856   9.922  13.028 -0.1541  0.0647  0.1459
 1442DOPC   C1B16920  21.037   9.464  11.917  0.1629  0.4205 -0.0160
 1442DOPC   D2B16921  20.678   9.359  12.181 -0.0014 -0.0654 -0.0444
 1442DOPC   C3B16922  20.612   9.150  12.566 -0.0464  0.0986 -0.3000
 1442DOPC   C4B16923  20.865   8.900  12.898 -0.0785 -0.1775  0.0967
 1443DOPC   NC316924  18.208   9.669  12.012  0.2043 -0.1741  0.3729
 1443DOPC   PO416925  18.603   9.650  12.055 -0.0965  0.1806  0.1054
 1443DOPC   GL116926  18.755   9.283  12.061 -0.0576 -0.0545 -0.3588
 1443DOPC   GL216927  19.007   9.347  12.164  0.0759  0.0519  0.0975
 1443DOPC   C1A16928  18.529   8.850  11.973  0.2051 -0.3347  0.0406
 1443DOPC   D2A16929  18.587   8.404  12.061  0.0365  0.2467  0.1065
 1443DOPC   C3A16930  18.793   8.431  11.664  0.0120  0.0212 -0.3611
 1443DOPC   C4A16931  19.069   8.699  11.513 -0.0190  0.0475 -0.0300
 1443DOPC   C1B16932  19.312   9.336  12.527  0.0591  0.1099  0.0795
 1443DOPC   D2B16933  19.644   9.299  12.843  0.0537  0.0046  0.0102
 1443DOPC   C3B16934  19.456   9.108  13.187  0.2472  0.0715  0.1432
 1443DOPC   C4B16935  19.523   8.777  13.511  0.3918  0.3391 -0.0724
 1444DOPC   NC316936  14.871   5.349  12.280 -0.1190  0.3253  0.0149
 1444DOPC   PO416937  15.028   4.980  12.071  0.1866  0.0756 -0.1259
 1444DOPC   GL116938  15.221   4.962  12.464  0.0076  0.0756 -0.2354
 1444DOPC   GL216939  15.366   5.168  12.331 -0.4594 -0.1453 -0.2425
 1444DOPC   C1A16940  15.394   5.010  12.892 -0.0928  0.2657 -0.1546
 1444DOPC   D2A16941  15.647   5.028  13.256 -0.1359 -0.0528  0.1357
 1444DOPC   C3A16942  15.517   4.706  13.557  0.3230  0.0375 -0.0555
 1444DOPC   C4A16943  15.439   4.514  13.975 -0.0067  0.3095 -0.2207
 1444DOPC   C1B16944  15.825   5.124  12.269  0.2027 -0.1051  0.4529
 1444DOPC   D2B16945  16.294   5.228  12.454  0.0419 -0.0748  0.0010
 1444DOPC   C3B16946  16.385   4.862  12.717  0.1919  0.0452  0.0465
 1444DOPC   C4B16947  16.373   4.400  12.637 -0.1478  0.3662 -0.3027
 1445DOPE   NH316948  19.636   0.939  12.146 -0.1320  0.0769 -0.3254
 1445DOPE   PO416949  19.363   0.944  11.954 -0.1964 -0.1594  0.0584
 1445DOPE   GL116950  19.146   0.855  12.258  0.0878 -0.3463 -0.1863
 1445DOPE   GL216951  18.831   1.013  12.191  0.0530  0.0267 -0.2676
 1445DOPE   C1A16952  18.877   0.687  12.628  0.0710 -0.0970  0.1555
 1445DOPE   D2A16953  18.654   0.278  12.614 -0.0612  0.0879 -0.1851
 1445DOPE   C3A16954  18.245   0.156  12.792 -0.2544  0.0417  0.1555
 1445DOPE   C4A16955  18.143   0.277  13.260 -0.0012  0.0912  0.2736
 1445DOPE   C1B16956  18.490   1.056  12.468 -0.1597  0.2626 -0.2588
 1445DOPE   D2B16957  18.117   1.087  12.683 -0.1175  0.0881  0.1422
 1445DOPE   C3B16958  17.982   1.412  12.912  0.3426  0.1692  0.0965
 1445DOPE   C4B16959  17.765   1.810  13.071 -0.1027 -0.0259  0.1551
 1446POSM   NC316960  19.212   0.059  11.750  0.0932 -0.0493  0.0499
 1446POSM   PO416961  19.099  -0.253  11.942  0.0609  0.0169 -0.3066
 1446POSM   AM116962  18.816  -0.309  12.156 -0.0347 -0.1769 -0.2168
 1446POSM   AM216963  18.805  -0.494  12.409 -0.5093  0.0586 -0.1755
 1446POSM   T1A16964  18.355  -0.478  12.231  0.2331  0.1177  0.2346
 1446POSM   C2A16965  17.910  -0.621  12.275  0.1395 -0.1676 -0.0747
 1446POSM   C3A16966  17.707  -0.780  12.610  0.1638 -0.1456 -0.0703
 1446POSM   C1B16967  18.609  -0.348  12.698  0.1021  0.1818 -0.1089
 1446POSM   D2B16968  18.373  -0.206  13.105 -0.0397  0.0873 -0.0499
 1446POSM   C3B16969  18.472  -0.611  13.382 -0.1625 -0.0344 -0.1130
 1446POSM   C4B16970  18.764  -0.906  13.644 -0.1522 -0.2280 -0.0920
 1447DOPE   NH316971  12.348   9.062  12.104 -0.0060 -0.0570 -0.0720
 1447DOPE   PO416972  12.601   9.071  12.307 -0.0308  0.0450 -0.1816
 1447DOPE   GL116973  12.762   9.088  12.626  0.1332  0.3218  0.1060
 1447DOPE   GL216974  13.023   9.233  12.653  0.4861 -0.0445  0.2522
 1447DOPE   C1A16975  12.549   9.262  13.055 -0.1639  0.2499 -0.0792
 1447DOPE   D2A16976  12.561   9.200  13.477 -0.1617 -0.1939  0.1508
 1447DOPE   C3A16977  12.512   9.637  13.594  0.0387 -0.2338 -0.2632
 1447DOPE   C4A16978  12.201   9.838  13.875 -0.2215  0.0099 -0.3356
 1447DOPE   C1B16979  13.320   9.150  13.015  0.1137  0.0191 -0.0145
 1447DOPE   D2B16980  13.150   9.251  13.479 -0.0691 -0.0426  0.0110
 1447DOPE   C3B16981  13.397   9.601  13.567 -0.3322  0.0393  0.1169
 1447DOPE   C4B16982  13.746   9.869  13.764  0.0451  0.1647 -0.1909
 1448DOPC   NC316983  20.442   0.258  12.534 -0.1548  0.0697  0.0945
 1448DOPC   PO416984  20.671   0.190  12.244 -0.1909  0.1126  0.1170
 1448DOPC   GL116985  21.040   0.270  12.532 -0.2276 -0.0316  0.0340
 1448DOPC   GL216986  20.950   0.551  12.577 -0.2360  0.1857  0.1242
 1448DOPC   C1A16987  21.257   0.048  12.846 -0.1124 -0.6438  0.1339
 1448DOPC   D2A16988  21.160  -0.070  13.281 -0.0249 -0.3991  0.1157
 1448DOPC   C3A16989  20.820  -0.294  13.474 -0.2513 -0.0517 -0.1498
 1448DOPC   C4A16990  20.424  -0.184  13.788  0.1031 -0.0627 -0.1133
 1448DOPC   C1B16991  21.108   0.513  13.066 -0.0270  0.2347 -0.0172
 1448DOPC   D2B16992  21.206   0.461  13.497 -0.0555 -0.1260 -0.1748
 1448DOPC   C3B16993  20.937   0.610  13.827  0.1741  0.2606 -0.1608
 1448DOPC   C4B16994  20.777   0.964  14.037 -0.4199 -0.1412 -0.1365
 1449POSM   NC316995  19.839   0.528  11.905  0.0169  0.2450  0.1543
 1449POSM   PO416996  19.511   0.456  12.133  0.0057  0.0013 -0.2351
 1449POSM   AM116997  19.474   0.458  12.465  0.0375  0.1527 -0.2876
 1449POSM   AM216998  19.289   0.284  12.601  0.0166 -0.1149  0.0429
 1449POSM   T1A16999  19.582   0.332  12.931 -0.2996  0.0555 -0.2699
 1449POSM   C2A17000  19.819   0.160  13.300 -0.1271  0.0336  0.1133
 1449POSM   C3A17001  20.088   0.202  13.627 -0.1992  0.0542 -0.2857
 1449POSM   C1B17002  19.115   0.275  12.900  0.0486  0.4605 -0.2145
 1449POSM   D2B17003  19.173   0.364  13.364 -0.0735 -0.0090  0.2166
 1449POSM   C3B17004  19.186   0.784  13.546 -0.0307  0.2053 -0.1213
 1449POSM   C4B17005  19.055   1.243  13.787  0.1502  0.2711  0.0665
 1450DOPE   NH317006  19.244   5.777  12.363  0.4049 -0.2966  0.1532
 1450DOPE   PO417007  19.415   6.003  12.482 -0.1256  0.0055  0.1002
 1450DOPE   GL117008  19.610   5.828  12.715  0.0468  0.1252 -0.1013
 1450DOPE   GL217009  19.910   5.796  12.647  0.2115  0.0649 -0.0763
 1450DOPE   C1A17010  19.731   5.969  13.145 -0.1543  0.0015 -0.0628
 1450DOPE   D2A17011  19.845   5.953  13.561  0.0062  0.0433  0.0728
 1450DOPE   C3A17012  19.528   6.060  13.876  0.2417  0.1618  0.2357
 1450DOPE   C4A17013  19.319   6.019  14.285  0.0797 -0.0912  0.1286
 1450DOPE   C1B17014  20.381   5.658  12.685 -0.4680 -0.0537 -0.1581
 1450DOPE   D2B17015  20.763   5.873  12.737  0.0927  0.0185 -0.0698
 1450DOPE   C3B17016  20.670   5.946  13.188  0.1240 -0.0692  0.0210
 1450DOPE   C4B17017  20.437   5.729  13.470  0.1591  0.0047 -0.0389
 1451DOPE   NH317018  11.856   3.845  12.222  0.2293 -0.0657  0.0800
 1451DOPE   PO417019  11.594   3.958  12.252 -0.2059 -0.0941  0.0634
 1451DOPE   GL117020  11.650   3.999  12.633 -0.0956 -0.3616 -0.3932
 1451DOPE   GL217021  11.385   4.110  12.664 -0.1513 -0.0006 -0.2511
 1451DOPE   C1A17022  11.651   4.148  13.112  0.0155  0.0000  0.0554
 1451DOPE   D2A17023  11.437   4.522  13.332  0.0417  0.1527  0.1623
 1451DOPE   C3A17024  11.631   4.887  13.472 -0.3566 -0.0016  0.1952
 1451DOPE   C4A17025  11.938   5.241  13.566  0.0348  0.1102  0.0422
 1451DOPE   C1B17026  11.419   4.537  12.857  0.1664  0.1545 -0.0685
 1451DOPE   D2B17027  11.778   4.860  12.880 -0.0522  0.1761 -0.0928
 1451DOPE   C3B17028  11.615   5.299  13.051 -0.1326 -0.0546 -0.0253
 1451DOPE   C4B17029  11.564   5.762  12.923 -0.0959 -0.2028 -0.1188
 1452DOPC   NC317030  15.713   6.536  12.246  0.0723 -0.2196  0.1901
 1452DOPC   PO417031  15.730   6.587  12.651 -0.2062 -0.1675  0.1782
 1452DOPC   GL117032  15.849   6.596  12.982 -0.0247  0.2907  0.1088
 1452DOPC   GL217033  16.107   6.475  12.995 -0.0613 -0.0422 -0.0642
 1452DOPC   C1A17034  15.631   6.732  13.335  0.0676  0.1705 -0.2006
 1452DOPC   D2A17035  15.265   6.793  13.618 -0.1441 -0.1001  0.3907
 1452DOPC   C3A17036  15.416   7.205  13.747 -0.2351  0.1635 -0.0427
 1452DOPC   C4A17037  15.279   7.629  13.559  0.2844  0.0669  0.5372
 1452DOPC   C1B17038  16.116   6.869  13.285 -0.0079 -0.2156  0.6441
 1452DOPC   D2B17039  15.923   7.031  13.680 -0.1336  0.1281  0.0341
 1452DOPC   C3B17040  15.654   6.851  13.973 -0.0821 -0.1706  0.0437
 1452DOPC   C4B17041  15.256   6.852  14.233  0.2526 -0.3765 -0.0060
 1453DOPE   NH317042  12.342   8.181  12.087 -0.1074  0.4120  0.2278
 1453DOPE   PO417043  12.156   7.986  12.286  0.0531 -0.3219 -0.0235
 1453DOPE   GL117044  12.349   8.171  12.560  0.5328  0.0959  0.0975
 1453DOPE   GL217045  12.337   7.986  12.785  0.3870  0.1221 -0.2549
 1453DOPE   C1A17046  12.787   8.200  12.667 -0.2152  0.0571  0.3474
 1453DOPE   D2A17047  12.872   7.787  12.857  0.0035  0.1654  0.0570
 1453DOPE   C3A17048  12.670   7.736  13.251 -0.2742 -0.0347 -0.1473
 1453DOPE   C4A17049  12.800   8.125  13.499 -0.0064 -0.1947 -0.0808
 1453DOPE   C1B17050  12.507   8.301  13.079  0.1310 -0.3660  0.0248
 1453DOPE   D2B17051  12.552   8.572  13.425 -0.2507 -0.0015  0.1072
 1453DOPE   C3B17052  12.204   8.701  13.699 -0.0668  0.0867 -0.3044
 1453DOPE   C4B17053  11.825   8.505  13.908  0.0545 -0.0707  0.1593
 1454POSM   NC317054  19.987   5.792  12.104 -0.2904  0.0690 -0.1656
 1454POSM   PO417055  19.676   5.575  12.228  0.1321 -0.0170  0.2767
 1454POSM   AM117056  19.505   5.435  12.499  0.1099  0.1157  0.2153
 1454POSM   AM217057  19.392   5.183  12.617 -0.1264  0.0872 -0.1140
 1454POSM   T1A17058  19.530   5.473  12.978 -0.1705 -0.0142  0.3308
 1454POSM   C2A17059  19.233   5.329  13.313  0.2842  0.0318  0.1815
 1454POSM   C3A17060  18.791   5.397  13.455  0.0449 -0.1611 -0.1001
 1454POSM   C1B17061  19.332   5.010  12.930 -0.1033  0.0242  0.2133
 1454POSM   D2B17062  19.478   4.810  13.281 -0.1695 -0.0785 -0.1089
 1454POSM   C3B17063  19.790   5.151  13.315 -0.1202 -0.0443  0.0151
 1454POSM   C4B17064  19.998   5.520  13.186  0.1680  0.0072 -0.0774
 1455DOPC   NC317065  19.350   7.041  11.851  0.1582  0.1041 -0.0474
 1455DOPC   PO417066  19.658   7.148  12.094 -0.1143 -0.2460  0.2810
 1455DOPC   GL117067  19.810   7.372  12.492 -0.1811 -0.4389  0.0227
 1455DOPC   GL217068  19.531   7.368  12.551 -0.0812  0.4306  0.2446
 1455DOPC   C1A17069  20.144   7.571  12.768  0.0039 -0.3314 -0.0248
 1455DOPC   D2A17070  20.252   7.530  13.225  0.0631 -0.0396  0.0284
 1455DOPC   C3A17071  20.412   7.311  13.597  0.0046 -0.0672  0.0674
 1455DOPC   C4A17072  20.477   7.023  13.992 -0.2971 -0.0970 -0.1109
 1455DOPC   C1B17073  19.642   7.763  12.840 -0.1692 -0.1790  0.1045
 1455DOPC   D2B17074  20.024   7.925  13.064  0.0102  0.1996 -0.1649
 1455DOPC   C3B17075  20.433   8.057  13.027 -0.2017 -0.0362 -0.1297
 1455DOPC   C4B17076  20.692   8.398  12.863  0.2277 -0.0910 -0.0615
 1456POSM   NC317077  18.507  10.153  12.038 -0.0635  0.0241  0.3661
 1456POSM   PO417078  18.764  10.396  12.178  0.1568 -0.2235  0.0284
 1456POSM   AM117079  18.844  10.490  12.474 -0.0376  0.2971  0.0284
 1456POSM   AM217080  19.048  10.592  12.660  0.4880  0.0906 -0.2176
 1456POSM   T1A17081  18.748  10.365  12.959 -0.0068 -0.0321 -0.3436
 1456POSM   C2A17082  18.573  10.223  13.345 -0.0386  0.2661 -0.0251
 1456POSM   C3A17083  18.295   9.883  13.410 -0.0241  0.1920 -0.0982
 1456POSM   C1B17084  19.269  10.692  12.879  0.0685  0.2276  0.1587
 1456POSM   D2B17085  19.439  10.803  13.336  0.1848  0.0413  0.0801
 1456POSM   C3B17086  19.767  11.115  13.478  0.2352  0.2261  0.0157
 1456POSM   C4B17087  20.022  11.513  13.316  0.0001 -0.1565 -0.0001
 1457DOPE   NH317088  18.175   0.055  12.251 -0.0541 -0.3357  0.2450
 1457DOPE   PO417089  17.900  -0.028  12.111  0.2327 -0.3116  0.2248
 1457DOPE   GL117090  17.586   0.083  12.403  0.1000 -0.1386  0.5658
 1457DOPE   GL217091  17.338   0.333  12.202  0.0668 -0.1832  0.1894
 1457DOPE   C1A17092  17.415  -0.203  12.711  0.0933 -0.0415 -0.5096
 1457DOPE   D2A17093  17.541  -0.284  13.131  0.1987 -0.1885  0.1985
 1457DOPE   C3A17094  17.367   0.153  13.310 -0.1265  0.1155 -0.1537
 1457DOPE   C4A17095  17.321   0.675  13.201 -0.1647 -0.4646 -0.1133
 1457DOPE   C1B17096  17.195  -0.139  12.200  0.1792 -0.2388  0.2169
 1457DOPE   D2B17097  17.157  -0.605  12.343 -0.0026 -0.0474  0.0101
 1457DOPE   C3B17098  17.251  -0.773  12.786  0.1017  0.0749  0.0014
 1457DOPE   C4B17099  17.184  -0.614  13.204 -0.0913 -0.0256  0.0223
 1458DOPC   NC317100  20.000   3.989  12.476  0.1802  0.0440 -0.0428
 1458DOPC   PO417101  19.747   3.789  12.283 -0.1300 -0.2966  0.1447
 1458DOPC   GL117102  19.987   3.532  12.391 -0.0438  0.2033 -0.4144
 1458DOPC   GL217103  19.903   3.494  12.663  0.1836  0.0670 -0.0990
 1458DOPC   C1A17104  20.338   3.243  12.427 -0.0942  0.1680 -0.0494
 1458DOPC   D2A17105  20.410   2.854  12.630  0.1514  0.0149  0.1305
 1458DOPC   C3A17106  20.532   2.860  13.069 -0.1038 -0.0286  0.3602
 1458DOPC   C4A17107  20.322   2.590  13.443  0.2013  0.1809 -0.2120
 1458DOPC   C1B17108  20.189   3.667  12.981  0.3863  0.1430  0.1111
 1458DOPC   D2B17109  20.334   3.916  13.353  0.2733  0.3320  0.1657
 1458DOPC   C3B17110  20.681   4.219  13.458  0.2154  0.2733 -0.3152
 1458DOPC   C4B17111  21.157   4.177  13.258 -0.0823 -0.0888  0.1395
 1459DOPE   NH317112  23.041  34.495  12.109  0.0382  0.4563 -0.2721
 1459DOPE   PO417113  23.109  34.528  12.432 -0.1215 -0.1005  0.0238
 1459DOPE   GL117114  23.380  34.766  12.774  0.2615 -0.3018 -0.0407
 1459DOPE   GL217115  23.298  34.460  12.882 -0.1099 -0.1451  0.2306
 1459DOPE   C1A17116  23.303  35.187  12.746 -0.1528  0.1966  0.1082
 1459DOPE   D2A17117  23.604  35.545  12.825 -0.1318  0.0938  0.0667
 1459DOPE   C3A17118  23.733  35.623  13.221  0.0222  0.0368  0.0392
 1459DOPE   C4A17119  24.093  35.884  13.432  0.1074 -0.1153  0.0767
 1459DOPE   C1B17120  23.405  34.750  13.223 -0.0244  0.2997  0.1138
 1459DOPE   D2B17121  23.318  35.056  13.530 -0.1551 -0.2463  0.2144
 1459DOPE   C3B17122  23.379  35.048  13.977  0.0599 -0.1579  0.4071
 1459DOPE   C4B17123  23.102  34.918  14.290 -0.0749 -0.4293  0.2726
 1460POSM   NC317124  12.525   4.315  11.981  0.2304  0.0740 -0.1669
 1460POSM   PO417125  12.756   4.525  12.227  0.1703 -0.1010 -0.4268
 1460POSM   AM117126  12.876   4.518  12.525  0.1203  0.0066  0.0265
 1460POSM   AM217127  13.086   4.457  12.745 -0.2306  0.0760  0.1779
 1460POSM   T1A17128  12.676   4.340  12.986  0.0861 -0.1375  0.1414
 1460POSM   C2A17129  12.928   4.289  13.402  0.1668  0.1687  0.0875
 1460POSM   C3A17130  13.066   4.286  13.834 -0.3370 -0.0545  0.2764
 1460POSM   C1B17131  13.223   4.237  13.020  0.2699 -0.3354 -0.2220
 1460POSM   D2B17132  13.438   4.134  13.402  0.0364 -0.0708 -0.1107
 1460POSM   C3B17133  13.561   4.426  13.751 -0.1111  0.0941 -0.2359
 1460POSM   C4B17134  13.706   4.778  13.892  0.1182 -0.0887 -0.0508
 1461DOPC   NC317135  18.813   6.945  12.641  0.4161 -0.1061 -0.0712
 1461DOPC   PO417136  18.718   6.770  12.285  0.0313 -0.4416 -0.2128
 1461DOPC   GL117137  18.416   6.617  12.474 -0.0565 -0.3936  0.0049
 1461DOPC   GL217138  18.305   6.860  12.677  0.0050  0.3284  0.0966
 1461DOPC   C1A17139  18.045   6.621  12.267 -0.1536  0.0037  0.3088
 1461DOPC   D2A17140  17.677   6.928  12.375  0.2097 -0.1137  0.0523
 1461DOPC   C3A17141  17.394   6.846  12.699  0.3363  0.2711 -0.0043
 1461DOPC   C4A17142  17.191   6.964  13.119  0.2814  0.4398 -0.0002
 1461DOPC   C1B17143  18.067   6.489  12.846 -0.0412  0.0062 -0.0544
 1461DOPC   D2B17144  17.962   6.244  13.195  0.2709  0.2011 -0.1378
 1461DOPC   C3B17145  17.965   6.231  13.679 -0.2076 -0.4542 -0.3314
 1461DOPC   C4B17146  18.252   6.017  14.039  0.1856 -0.0993 -0.0635
 1462POSM   NC317147  19.763   1.822  12.270  0.0402 -0.1438  0.3019
 1462POSM   PO417148  19.826   1.409  12.230 -0.1770  0.5626 -0.3566
 1462POSM   AM117149  19.762   1.463  12.555 -0.1040 -0.1444  0.0514
 1462POSM   AM217150  19.906   1.623  12.716  0.0294  0.2397  0.1773
 1462POSM   T1A17151  19.507   1.380  12.963 -0.0961 -0.1941  0.0898
 1462POSM   C2A17152  19.549   1.187  13.357  0.0817  0.0473  0.1014
 1462POSM   C3A17153  19.924   1.020  13.549  0.0830  0.0685  0.0997
 1462POSM   C1B17154  19.637   1.844  12.727  0.3836 -0.1040 -0.0165
 1462POSM   D2B17155  19.261   2.032  12.963  0.3786 -0.1868  0.0697
 1462POSM   C3B17156  19.008   1.622  12.991  0.0293 -0.1587  0.3076
 1462POSM   C4B17157  19.003   1.155  13.207 -0.1636  0.1285 -0.0381
 1463POSM   NC317158  12.600   7.793  12.329 -0.0869  0.3083  0.0651
 1463POSM   PO417159  12.401   7.607  12.061 -0.1217  0.0705 -0.0576
 1463POSM   AM117160  12.236   7.464  12.320 -0.4675 -0.0440 -0.0008
 1463POSM   AM217161  12.106   7.568  12.559 -0.0098 -0.1885  0.0061
 1463POSM   T1A17162  11.967   7.091  12.543  0.0338  0.2308 -0.2869
 1463POSM   C2A17163  11.703   6.776  12.837  0.1542  0.1851  0.2195
 1463POSM   C3A17164  11.934   6.501  13.172 -0.4900  0.0205  0.1102
 1463POSM   C1B17165  12.380   7.415  12.764 -0.0284  0.1121 -0.0211
 1463POSM   D2B17166  12.663   7.242  13.122 -0.1617 -0.1049  0.3550
 1463POSM   C3B17167  12.694   6.809  13.235  0.3222 -0.2690  0.0251
 1463POSM   C4B17168  12.767   6.377  13.075  0.1624 -0.2047 -0.1366
 1464DOPC   NC317169  15.882   2.699  12.013 -0.1300 -0.1666  0.1705
 1464DOPC   PO417170  16.120   2.769  12.334 -0.1159 -0.0839  0.2730
 1464DOPC   GL117171  16.133   2.570  12.671  0.0578 -0.4144  0.0124
 1464DOPC   GL217172  16.090   2.829  12.845  0.1452 -0.6932 -0.4814
 1464DOPC   C1A17173  16.368   2.445  13.020  0.1297  0.0135  0.1295
 1464DOPC   D2A17174  16.566   2.047  13.237 -0.0194  0.1025 -0.2791
 1464DOPC   C3A17175  16.805   1.871  13.554  0.1890 -0.1587 -0.1857
 1464DOPC   C4A17176  16.599   1.679  13.906 -0.0562 -0.0031 -0.3255
 1464DOPC   C1B17177  16.410   2.953  13.149 -0.0619 -0.1341  0.3446
 1464DOPC   D2B17178  16.831   2.777  13.180 -0.1496 -0.3067 -0.2070
 1464DOPC   C3B17179  16.967   2.340  13.185 -0.0620  0.1072  0.1178
 1464DOPC   C4B17180  17.313   2.070  13.097  0.1559 -0.2267  0.1708
 1465DOPE   NH317181  14.921   1.339  12.243  0.0349  0.2813 -0.1145
 1465DOPE   PO417182  15.090   1.501  12.457  0.1703 -0.1909  0.1315
 1465DOPE   GL117183  15.068   1.381  12.807  0.0714  0.1314 -0.0000
 1465DOPE   GL217184  14.965   1.117  12.918 -0.3239  0.2400  0.0499
 1465DOPE   C1A17185  15.071   1.565  13.242  0.1822 -0.2592  0.0437
 1465DOPE   D2A17186  14.986   2.015  13.423  0.0049  0.2249 -0.0933
 1465DOPE   C3A17187  14.735   2.225  13.114 -0.1599  0.0401  0.1833
 1465DOPE   C4A17188  14.392   2.599  13.044  0.3080 -0.1676 -0.0062
 1465DOPE   C1B17189  14.572   1.195  13.093  0.3896 -0.0286  0.1145
 1465DOPE   D2B17190  14.468   1.341  13.522  0.2451 -0.1226 -0.0115
 1465DOPE   C3B17191  14.820   1.591  13.719 -0.1262 -0.0205  0.1464
 1465DOPE   C4B17192  15.270   1.449  13.813  0.2429  0.0438  0.1217
 1466POSM   NC317193  14.176  11.468  11.426 -0.0315  0.0811  0.0693
 1466POSM   PO417194  14.499  11.456  11.679  0.2010  0.0910  0.2071
 1466POSM   AM117195  14.457  11.519  11.970 -0.1774 -0.2096  0.1347
 1466POSM   AM217196  14.442  11.759  12.119 -0.1457 -0.0575  0.0360
 1466POSM   T1A17197  14.772  11.495  12.371 -0.1336  0.2044 -0.1048
 1466POSM   C2A17198  15.005  11.762  12.573 -0.0531  0.1050 -0.0649
 1466POSM   C3A17199  14.920  12.223  12.634 -0.2653 -0.0617 -0.2153
 1466POSM   C1B17200  14.148  11.657  12.328  0.0114 -0.0020  0.0581
 1466POSM   D2B17201  13.713  11.802  12.548 -0.3963  0.2884  0.0794
 1466POSM   C3B17202  13.676  11.998  12.970 -0.1594  0.0261 -0.1215
 1466POSM   C4B17203  13.688  12.032  13.411  0.0385 -0.1051  0.0381
 1467POSM   NC317204  15.404   1.989  12.240 -0.0719  0.5218  0.1915
 1467POSM   PO417205  15.528   2.046  12.640 -0.0682 -0.1463 -0.0605
 1467POSM   AM117206  15.413   2.311  12.817  0.0296 -0.1024 -0.0126
 1467POSM   AM217207  15.317   2.301  13.073  0.1854 -0.2423 -0.0566
 1467POSM   T1A17208  15.488   2.781  12.982 -0.1837  0.0000  0.2454
 1467POSM   C2A17209  15.531   2.813  13.434 -0.1648  0.2485  0.0754
 1467POSM   C3A17210  15.927   2.793  13.698 -0.2564 -0.3319 -0.0613
 1467POSM   C1B17211  15.140   2.468  13.326 -0.1723  0.2020  0.2121
 1467POSM   D2B17212  14.993   2.826  13.523  0.0917  0.1595  0.0118
 1467POSM   C3B17213  14.666   2.974  13.234 -0.0903  0.1931  0.5560
 1467POSM   C4B17214  14.277   3.198  13.067  0.1852 -0.0027  0.1751
 1468DOPS   CNO17215  19.028   5.721  11.897  0.2216 -0.3344  0.2086
 1468DOPS   PO417216  18.746   5.714  12.209 -0.2867  0.1057  0.0527
 1468DOPS   GL117217  18.416   5.770  12.481  0.0241  0.1944 -0.0847
 1468DOPS   GL217218  18.477   5.574  12.686 -0.0131  0.2113 -0.0230
 1468DOPS   C1A17219  18.295   5.943  12.894 -0.1255 -0.1492  0.2475
 1468DOPS   D2A17220  18.409   6.224  13.254 -0.0694 -0.0361 -0.2159
 1468DOPS   C3A17221  18.493   6.357  13.682  0.1204  0.2030 -0.0735
 1468DOPS   C4A17222  18.719   6.137  14.004 -0.1671 -0.3015 -0.0702
 1468DOPS   C1B17223  18.440   5.407  13.098  0.2571  0.2161  0.0171
 1468DOPS   D2B17224  18.005   5.324  13.382  0.2363 -0.0515 -0.0514
 1468DOPS   C3B17225  17.535   5.360  13.390 -0.2831 -0.0978 -0.2847
 1468DOPS   C4B17226  17.164   5.504  13.234  0.0058  0.1454 -0.0325
 1469DOPC   NC317227  15.322  10.481  11.826  0.3568  0.1817 -0.1108
 1469DOPC   PO417228  15.163  10.229  11.998  0.1310 -0.0351  0.2562
 1469DOPC   GL117229  14.831  10.169  12.166  0.3199 -0.4099  0.2248
 1469DOPC   GL217230  14.771   9.864  12.290  0.4925 -0.2417  0.2349
 1469DOPC   C1A17231  14.395  10.240  12.305  0.2296  0.4164 -0.1328
 1469DOPC   D2A17232  14.000  10.082  12.580  0.1039  0.1981 -0.0108
 1469DOPC   C3A17233  14.021   9.666  12.841  0.0300  0.1958 -0.0303
 1469DOPC   C4A17234  14.366   9.415  12.986  0.0895 -0.3158 -0.1198
 1469DOPC   C1B17235  14.438   9.591  12.486 -0.1142 -0.1265 -0.0839
 1469DOPC   D2B17236  14.001   9.646  12.300  0.7309  0.0911 -0.0223
 1469DOPC   C3B17237  13.596   9.905  12.277 -0.0622  0.1140  0.0586
 1469DOPC   C4B17238  13.203   9.829  12.397 -0.1938  0.1876  0.0947
 1470POSM   NC317239  11.108   6.159  12.200  0.0627 -0.0682  0.0021
 1470POSM   PO417240  11.248   6.513  12.149  0.1833  0.0752  0.0551
 1470POSM   AM117241  11.502   6.412  12.342 -0.0162  0.0331 -0.1589
 1470POSM   AM217242  11.517   6.228  12.546  0.1208  0.0476  0.4299
 1470POSM   T1A17243  11.986   6.440  12.494 -0.1078  0.0226  0.1148
 1470POSM   C2A17244  12.437   6.402  12.600 -0.1788 -0.0541 -0.1364
 1470POSM   C3A17245  12.871   6.474  12.385 -0.0748  0.1402 -0.2642
 1470POSM   C1B17246  11.578   6.288  12.895  0.1013 -0.0959  0.0963
 1470POSM   D2B17247  11.404   6.210  13.287 -0.0631  0.2103 -0.0823
 1470POSM   C3B17248  11.490   5.761  13.434 -0.2240 -0.2372  0.3558
 1470POSM   C4B17249  11.473   5.386  13.625 -0.1677 -0.3360 -0.0389
 1471DOPE   NH317250  17.029   3.692  12.390 -0.2225  0.0333  0.0165
 1471DOPE   PO417251  17.210   3.782  12.641  0.1450  0.2599  0.2680
 1471DOPE   GL117252  17.120   3.613  12.968 -0.1210 -0.2061  0.0453
 1471DOPE   GL217253  17.084   3.795  13.112 -0.0727  0.0585 -0.2211
 1471DOPE   C1A17254  17.470   3.548  13.300  0.3208 -0.0194  0.2215
 1471DOPE   D2A17255  17.602   3.399  13.717 -0.3495  0.0895 -0.1146
 1471DOPE   C3A17256  17.772   3.002  13.854 -0.1547 -0.1023 -0.2138
 1471DOPE   C4A17257  17.549   2.580  13.852  0.3591  0.0398  0.3631
 1471DOPE   C1B17258  17.010   3.489  13.489 -0.2319  0.1926  0.1058
 1471DOPE   D2B17259  16.833   3.076  13.626 -0.2337  0.0290  0.1907
 1471DOPE   C3B17260  17.079   2.644  13.637  0.1252  0.0524 -0.0577
 1471DOPE   C4B17261  17.242   2.204  13.625 -0.1621  0.1715  0.1815
 1472POSM   NC317262  11.828   7.623  12.132  0.1282  0.3383  0.0743
 1472POSM   PO417263  11.708   8.036  12.104  0.0669  0.0165  0.1483
 1472POSM   AM117264  11.796   8.154  12.450  0.0958 -0.0966  0.2797
 1472POSM   AM217265  11.909   8.328  12.615  0.2591  0.2704 -0.4601
 1472POSM   T1A17266  11.852   7.973  12.933  0.1211  0.2312  0.0408
 1472POSM   C2A17267  12.051   7.727  13.264  0.1716 -0.0214 -0.1789
 1472POSM   C3A17268  12.297   7.789  13.666  0.0287 -0.1326 -0.0390
 1472POSM   C1B17269  12.112   8.482  12.858  0.0059  0.2308 -0.1324
 1472POSM   D2B17270  12.343   8.772  13.031  0.1453 -0.0793  0.0326
 1472POSM   C3B17271  12.074   9.096  13.263 -0.1858 -0.3327 -0.1052
 1472POSM   C4B17272  11.941   9.214  13.703  0.1491 -0.1468 -0.1900
 1473POSM   NC317273  14.637   7.534  12.134  0.0448  0.0099 -0.0341
 1473POSM   PO417274  14.934   7.246  12.164  0.2004 -0.0182  0.1129
 1473POSM   AM117275  14.931   7.322  12.495  0.0948 -0.2758 -0.1140
 1473POSM   AM217276  15.038   7.471  12.696 -0.0797 -0.2826 -0.1211
 1473POSM   T1A17277  14.809   7.091  12.922  0.2541  0.0588  0.0838
 1473POSM   C2A17278  14.771   6.823  13.266 -0.2541  0.1756 -0.0014
 1473POSM   C3A17279  14.534   6.694  13.632  0.1240 -0.0266 -0.0092
 1473POSM   C1B17280  14.967   7.584  13.013 -0.2766  0.1043 -0.2212
 1473POSM   D2B17281  14.851   7.947  13.316 -0.2352 -0.2461 -0.0736
 1473POSM   C3B17282  14.531   8.025  13.676 -0.3056 -0.1935 -0.1114
 1473POSM   C4B17283  14.137   8.337  13.752  0.2798  0.3377  0.2468
 1474POSM   NC317284  13.815   6.391  12.163 -0.3077  0.3859  0.0363
 1474POSM   PO417285  13.966   6.589  12.483  0.0446  0.3199  0.1373
 1474POSM   AM117286  13.896   6.840  12.735 -0.0363  0.0694 -0.1934
 1474POSM   AM217287  13.906   7.114  12.720 -0.1104  0.3764  0.2201
 1474POSM   T1A17288  13.639   6.916  13.132  0.0612  0.0734  0.1381
 1474POSM   C2A17289  13.594   7.128  13.577 -0.1423  0.1176 -0.1157
 1474POSM   C3A17290  13.408   7.538  13.720  0.0594  0.0291  0.0038
 1474POSM   C1B17291  13.901   7.446  12.837 -0.2231  0.1908 -0.2572
 1474POSM   D2B17292  14.006   7.778  13.055  0.0050 -0.1237  0.3204
 1474POSM   C3B17293  13.787   7.905  13.448  0.0543  0.2364  0.0257
 1474POSM   C4B17294  13.374   8.048  13.699 -0.0897  0.1271 -0.2468
 1475DOPS   CNO17295  19.527   3.818  11.831 -0.1551 -0.0759 -0.0438
 1475DOPS   PO417296  19.617   4.193  11.851 -0.0059  0.1585 -0.0277
 1475DOPS   GL117297  19.909   4.434  12.026  0.1306  0.0379  0.0991
 1475DOPS   GL217298  19.951   4.757  11.980 -0.0838  0.2028 -0.1114
 1475DOPS   C1A17299  20.312   4.313  12.215 -0.2097  0.0072  0.0779
 1475DOPS   D2A17300  20.774   4.167  12.327 -0.1497  0.0999  0.2938
 1475DOPS   C3A17301  20.974   3.806  12.521 -0.0797 -0.1511 -0.1122
 1475DOPS   C4A17302  21.204   3.584  12.820  0.0834 -0.0002 -0.0119
 1475DOPS   C1B17303  20.424   4.763  11.918 -0.0709 -0.1675  0.3757
 1475DOPS   D2B17304  20.865   4.508  11.990 -0.0590 -0.2936 -0.1862
 1475DOPS   C3B17305  20.952   4.680  12.406 -0.1564 -0.0514 -0.2438
 1475DOPS   C4B17306  20.835   4.880  12.844 -0.2620 -0.0749 -0.0173
 1476POSM   NC317307  19.044   0.384  12.161 -0.2505  0.2639  0.0842
 1476POSM   PO417308  18.717   0.133  12.089  0.0085  0.1775 -0.1114
 1476POSM   AM117309  18.544   0.420  12.097  0.4489  0.1516  0.1463
 1476POSM   AM217310  18.418   0.578  12.281  0.2828 -0.0172  0.0848
 1476POSM   T1A17311  18.436   0.910  11.945 -0.0390 -0.0598 -0.0173
 1476POSM   C2A17312  18.548   1.364  12.006 -0.1045  0.1110 -0.1001
 1476POSM   C3A17313  18.692   1.819  11.923  0.0122  0.0128  0.0220
 1476POSM   C1B17314  18.140   0.666  12.484 -0.0076 -0.3257 -0.1289
 1476POSM   D2B17315  17.949   0.634  12.870  0.0288  0.1190 -0.2372
 1476POSM   C3B17316  17.705   0.989  13.071  0.0700 -0.1160 -0.1257
 1476POSM   C4B17317  17.479   1.402  12.971 -0.1813  0.0615 -0.1044
 1477DOPE   NH317318  22.800   3.044  12.465  0.1268  0.0239 -0.0173
 1477DOPE   PO417319  22.701   3.333  12.416  0.2452 -0.1199  0.1805
 1477DOPE   GL117320  22.391   3.560  12.302  0.0685  0.2546  0.1583
 1477DOPE   GL217321  22.282   3.573  11.970  0.1268 -0.0486  0.6012
 1477DOPE   C1A17322  21.926   3.440  12.264  0.3126 -0.1883 -0.1691
 1477DOPE   D2A17323  21.586   3.402  12.551  0.0159 -0.3609  0.1277
 1477DOPE   C3A17324  21.542   3.252  12.994  0.0824 -0.2421 -0.1871
 1477DOPE   C4A17325  21.185   3.302  13.329 -0.1834 -0.1769  0.0252
 1477DOPE   C1B17326  22.025   3.923  12.137 -0.0252 -0.0149 -0.1551
 1477DOPE   D2B17327  21.512   3.882  12.216  0.0404  0.0722 -0.4882
 1477DOPE   C3B17328  21.272   4.193  12.338  0.0589 -0.3708  0.0562
 1477DOPE   C4B17329  21.075   4.404  12.773 -0.3454 -0.0894  0.1144
 1478DOPE   NH317330  22.898  10.628  11.918 -0.3125 -0.1686 -0.2328
 1478DOPE   PO417331  22.686  10.421  12.072 -0.4571 -0.0887  0.1845
 1478DOPE   GL117332  22.581  10.537  12.456  0.3911  0.2689 -0.2921
 1478DOPE   GL217333  22.321  10.411  12.456  0.0558 -0.2288  0.0166
 1478DOPE   C1A17334  22.629  10.705  12.910  0.0656 -0.2674 -0.1088
 1478DOPE   D2A17335  22.512  10.582  13.374 -0.0828  0.3451  0.0170
 1478DOPE   C3A17336  22.709  10.298  13.619  0.1714 -0.0276  0.2455
 1478DOPE   C4A17337  22.944  10.349  14.013  0.3948  0.1217  0.2208
 1478DOPE   C1B17338  22.183  10.453  12.870  0.0217 -0.0961  0.3421
 1478DOPE   D2B17339  21.884  10.388  13.252 -0.4173  0.0108  0.2144
 1478DOPE   C3B17340  22.152  10.377  13.641 -0.0062  0.2810  0.0371
 1478DOPE   C4B17341  22.446  10.470  13.997  0.0069  0.3428 -0.2125
 1479DOPE   NH317342  15.402   7.210  12.419  0.0751 -0.0452 -0.2784
 1479DOPE   PO417343  15.681   7.031  12.427  0.0221  0.1131 -0.0565
 1479DOPE   GL117344  15.830   6.998  12.776  0.5233 -0.1311 -0.3704
 1479DOPE   GL217345  16.096   7.143  12.788  0.0587  0.2965  0.0240
 1479DOPE   C1A17346  15.807   7.270  13.169  0.0840  0.3115 -0.0475
 1479DOPE   D2A17347  15.773   7.582  13.533 -0.1506 -0.2098 -0.1735
 1479DOPE   C3A17348  15.849   7.487  13.977  0.0027  0.0466 -0.1025
 1479DOPE   C4A17349  15.561   7.260  14.295 -0.1861  0.1408 -0.1060
 1479DOPE   C1B17350  16.420   6.826  12.818 -0.3865  0.0825  0.1089
 1479DOPE   D2B17351  16.604   6.512  12.482  0.0161  0.1477 -0.2335
 1479DOPE   C3B17352  16.655   6.095  12.782  0.1495  0.2302 -0.2950
 1479DOPE   C4B17353  16.519   5.767  13.116  0.2878  0.0558  0.2767
 1480DOPE   NH317354  11.545   3.486  12.064  0.0945  0.0632  0.0881
 1480DOPE   PO417355  11.795   3.311  12.159 -0.1527 -0.0925  0.3693
 1480DOPE   GL117356  12.110   3.095  12.370  0.1337 -0.0293  0.2106
 1480DOPE   GL217357  12.040   2.873  12.520  0.1496  0.0246 -0.3743
 1480DOPE   C1A17358  12.557   3.000  12.338  0.2046 -0.5329 -0.1137
 1480DOPE   D2A17359  12.850   2.735  12.524 -0.1699 -0.0929 -0.2657
 1480DOPE   C3A17360  12.725   2.720  12.950  0.1139 -0.3609 -0.3609
 1480DOPE   C4A17361  12.938   2.717  13.325  0.0635 -0.3173 -0.0732
 1480DOPE   C1B17362  12.396   2.565  12.600  0.1085 -0.1141 -0.2190
 1480DOPE   D2B17363  12.730   2.283  12.786 -0.0278 -0.0309 -0.4894
 1480DOPE   C3B17364  12.939   2.202  13.196  0.1506 -0.0620  0.1051
 1480DOPE   C4B17365  12.747   2.170  13.633  0.2602  0.2297  0.2459
 1481POSM   NC317366  12.600   3.286  11.850 -0.0230  0.1780  0.0147
 1481POSM   PO417367  12.288   3.503  12.056  0.4732 -0.2939 -0.1943
 1481POSM   AM117368  12.350   3.460  12.395  0.3102  0.0065  0.3739
 1481POSM   AM217369  12.465   3.608  12.602  0.0005 -0.2082  0.0109
 1481POSM   T1A17370  12.404   3.099  12.784 -0.0539  0.1610  0.0996
 1481POSM   C2A17371  12.366   2.913  13.184  0.0062  0.2769 -0.3217
 1481POSM   C3A17372  12.288   2.645  13.577  0.3425  0.1016  0.1660
 1481POSM   C1B17373  12.643   3.677  12.899 -0.1233  0.1441  0.1027
 1481POSM   D2B17374  12.563   3.822  13.287 -0.4631  0.2031  0.1934
 1481POSM   C3B17375  12.587   3.471  13.627  0.0743  0.2838 -0.0487
 1481POSM   C4B17376  12.675   2.978  13.674 -0.0719  0.2357 -0.1661
 1482DOPC   NC317377  22.801   9.545  11.823  0.0911 -0.1162  0.0534
 1482DOPC   PO417378  22.812   9.204  11.692 -0.1211  0.0591 -0.2016
 1482DOPC   GL117379  22.455   9.150  11.891 -0.2521 -0.2138 -0.0220
 1482DOPC   GL217380  22.265   9.189  11.741  0.0410  0.1760  0.1195
 1482DOPC   C1A17381  22.293   8.777  12.095 -0.0014  0.0070  0.0682
 1482DOPC   D2A17382  22.266   8.509  12.505  0.3847 -0.0303  0.1346
 1482DOPC   C3A17383  22.040   8.669  12.902  0.2829  0.0928 -0.0369
 1482DOPC   C4A17384  21.691   8.633  13.163  0.0597 -0.1522  0.0901
 1482DOPC   C1B17385  21.918   9.148  11.974  0.2189 -0.2009  0.0558
 1482DOPC   D2B17386  21.473   9.008  12.201  0.0295 -0.4780  0.1628
 1482DOPC   C3B17387  21.141   9.147  12.550 -0.2200  0.3664  0.1429
 1482DOPC   C4B17388  20.958   9.440  12.857 -0.0148  0.1723  0.3236
 1483DOPC   NC317389  18.366  10.253  12.492  0.2091 -0.2077  0.2503
 1483DOPC   PO417390  18.258   9.892  12.484 -0.1664  0.0571  0.1362
 1483DOPC   GL117391  18.027   9.805  12.887  0.1692 -0.0766  0.2470
 1483DOPC   GL217392  18.167   9.568  12.969  0.0532  0.1124 -0.2467
 1483DOPC   C1A17393  17.588   9.793  13.150 -0.1856  0.0341 -0.2552
 1483DOPC   D2A17394  17.511   9.971  13.542  0.2402 -0.1130 -0.0599
 1483DOPC   C3A17395  17.263   9.816  13.945  0.2812  0.3252 -0.1584
 1483DOPC   C4A17396  16.964   9.970  14.289  0.0230  0.2985  0.1123
 1483DOPC   C1B17397  18.078   9.386  13.370  0.0681 -0.1682 -0.2107
 1483DOPC   D2B17398  18.126   8.975  13.469  0.1496  0.0339  0.1493
 1483DOPC   C3B17399  18.131   8.705  13.828  0.0875 -0.1263  0.2454
 1483DOPC   C4B17400  18.219   8.731  14.252 -0.1647 -0.1125 -0.5149
 1484POSM   NC317401  13.727   5.325  12.858 -0.3813  0.2213  0.5055
 1484POSM   PO417402  13.767   5.170  12.481  0.0320 -0.0852  0.1860
 1484POSM   AM117403  13.554   4.929  12.645  0.0217 -0.0238  0.0949
 1484POSM   AM217404  13.441   4.926  12.891  0.1383  0.1150  0.0347
 1484POSM   T1A17405  13.043   4.960  12.643 -0.1466 -0.0211  0.1000
 1484POSM   C2A17406  12.774   5.001  12.327  0.0898 -0.4585 -0.0981
 1484POSM   C3A17407  12.715   5.153  11.901  0.2733 -0.0665 -0.1942
 1484POSM   C1B17408  13.247   5.094  13.101 -0.2487  0.0736  0.0774
 1484POSM   D2B17409  12.891   5.335  13.226 -0.1163 -0.0544 -0.2780
 1484POSM   C3B17410  12.441   5.545  13.216  0.0841  0.0868  0.3400
 1484POSM   C4B17411  11.997   5.665  13.237 -0.0290 -0.1149 -0.0869
 1485POSM   NC317412  19.784   6.248  12.705 -0.0775  0.0635  0.0865
 1485POSM   PO417413  19.835   6.269  12.357 -0.2104 -0.2604 -0.1220
 1485POSM   AM117414  20.135   6.175  12.392  0.0137  0.1262 -0.1038
 1485POSM   AM217415  20.290   6.124  12.618 -0.1016  0.3266  0.0684
 1485POSM   T1A17416  20.577   6.112  12.146 -0.2870  0.0549  0.0451
 1485POSM   C2A17417  21.046   5.908  12.221 -0.0527 -0.0155  0.1213
 1485POSM   C3A17418  21.249   5.615  12.504  0.1317 -0.0678 -0.0807
 1485POSM   C1B17419  20.248   6.102  12.999 -0.0538  0.1384  0.0982
 1485POSM   D2B17420  20.276   6.306  13.409  0.2441  0.0820  0.0258
 1485POSM   C3B17421  20.001   6.392  13.676 -0.0274  0.1460 -0.1404
 1485POSM   C4B17422  19.800   6.439  14.057 -0.1358  0.1018 -0.3083
 1486DOPS   CNO17423  19.575   2.570  11.718  0.3104  0.0068 -0.2970
 1486DOPS   PO417424  19.423   2.265  11.953  0.1457  0.0209  0.4036
 1486DOPS   GL117425  19.887   2.276  12.051  0.0607  0.0550 -0.3944
 1486DOPS   GL217426  20.046   2.498  12.024 -0.1892  0.4198 -0.3863
 1486DOPS   C1A17427  20.064   2.271  12.532  0.2937  0.1810 -0.1077
 1486DOPS   D2A17428  20.252   2.421  12.952 -0.1846  0.1269 -0.0758
 1486DOPS   C3A17429  20.010   2.764  13.116  0.1755 -0.2413  0.0290
 1486DOPS   C4A17430  19.754   2.693  13.461  0.0216 -0.2002 -0.0644
 1486DOPS   C1B17431  20.462   2.703  12.084 -0.1022  0.0269 -0.3470
 1486DOPS   D2B17432  20.829   2.976  11.996  0.1230  0.4392 -0.1646
 1486DOPS   C3B17433  21.302   2.874  11.990  0.1479 -0.1000 -0.2300
 1486DOPS   C4B17434  21.758   2.990  11.967  0.0440  0.0187 -0.1616
 1487DOPE   NH317435  18.951   7.342  12.020  0.0694  0.4154 -0.1060
 1487DOPE   PO417436  19.045   7.270  12.323 -0.1904  0.1576  0.1888
 1487DOPE   GL117437  18.959   7.655  12.431 -0.0480 -0.3568  0.3139
 1487DOPE   GL217438  18.773   7.794  12.271 -0.1064 -0.0365 -0.1085
 1487DOPE   C1A17439  19.287   7.984  12.590 -0.0258 -0.0728  0.4521
 1487DOPE   D2A17440  19.719   8.263  12.788 -0.3188  0.0279 -0.1536
 1487DOPE   C3A17441  19.652   8.195  13.243 -0.0927  0.0059 -0.0676
 1487DOPE   C4A17442  19.334   7.975  13.494 -0.4963 -0.1102 -0.0651
 1487DOPE   C1B17443  19.036   8.040  12.054  0.0442  0.0225 -0.1623
 1487DOPE   D2B17444  19.284   8.209  11.772  0.3157  0.1084  0.1972
 1487DOPE   C3B17445  19.618   7.881  11.810  0.3111  0.2283 -0.0365
 1487DOPE   C4B17446  20.073   8.035  11.893  0.1494  0.1771 -0.1968
 1488DOPC   NC317447  18.723   4.800  12.153 -0.1246  0.2010  0.1501
 1488DOPC   PO417448  18.954   4.451  12.132 -0.1706 -0.3501 -0.0770
 1488DOPC   GL117449  18.705   4.265  12.401  0.1368  0.1162 -0.1394
 1488DOPC   GL217450  18.431   4.381  12.387  0.2767  0.0933 -0.0156
 1488DOPC   C1A17451  18.665   4.062  12.773  0.2234 -0.0426  0.0983
 1488DOPC   D2A17452  18.590   4.001  13.191 -0.3028 -0.0128 -0.3272
 1488DOPC   C3A17453  18.752   3.966  13.614 -0.1174 -0.0065  0.1130
 1488DOPC   C4A17454  18.956   4.200  13.996  0.2012 -0.3223  0.1494
 1488DOPC   C1B17455  18.569   4.568  12.758 -0.0950 -0.2187 -0.1507
 1488DOPC   D2B17456  18.579   4.529  13.202 -0.0495 -0.0184  0.1996
 1488DOPC   C3B17457  18.306   4.543  13.561 -0.1016  0.4198 -0.3445
 1488DOPC   C4B17458  17.872   4.457  13.513  0.0715  0.0655 -0.2110
 1489DOPC   NC317459  16.557   7.910  12.409 -0.5883 -0.0796  0.1350
 1489DOPC   PO417460  16.199   7.875  12.200 -0.3754  0.2233 -0.0607
 1489DOPC   GL117461  16.187   7.838  12.622  0.0170 -0.3067 -0.2128
 1489DOPC   GL217462  16.322   7.590  12.751 -0.0066  0.1626 -0.1803
 1489DOPC   C1A17463  15.941   8.036  12.958 -0.0501 -0.0027 -0.0275
 1489DOPC   D2A17464  15.941   8.402  13.304  0.2679 -0.0768  0.1987
 1489DOPC   C3A17465  16.288   8.374  13.634  0.0952 -0.0342 -0.1276
 1489DOPC   C4A17466  16.740   8.151  13.626 -0.1493 -0.0209  0.2938
 1489DOPC   C1B17467  16.363   7.366  13.177 -0.0073  0.0594  0.0418
 1489DOPC   D2B17468  16.559   7.210  13.475 -0.0061  0.1951 -0.1041
 1489DOPC   C3B17469  16.732   7.101  13.877  0.1053 -0.4318  0.1224
 1489DOPC   C4B17470  16.795   7.015  14.365  0.1246 -0.1266  0.0714
 1490DOPC   NC317471  16.098   9.672  12.025 -0.1266  0.2688  0.2089
 1490DOPC   PO417472  16.187  10.059  12.045 -0.3309  0.1273  0.4301
 1490DOPC   GL117473  16.477   9.809  12.245 -0.1048  0.1224  0.2930
 1490DOPC   GL217474  16.703   9.966  12.443 -0.0595 -0.2358 -0.3194
 1490DOPC   C1A17475  16.510   9.475  12.507  0.1276  0.0704  0.0305
 1490DOPC   D2A17476  16.832   9.363  12.875 -0.0982  0.2875 -0.1338
 1490DOPC   C3A17477  16.676   8.995  13.156  0.1510  0.0545 -0.0466
 1490DOPC   C4A17478  16.307   8.774  13.349 -0.0490  0.3921 -0.1765
 1490DOPC   C1B17479  16.651   9.801  12.874  0.1544 -0.3021  0.2316
 1490DOPC   D2B17480  16.815   9.607  13.300 -0.4326 -0.0563  0.0946
 1490DOPC   C3B17481  17.038   9.486  13.677  0.0511  0.2379 -0.2527
 1490DOPC   C4B17482  16.859   9.446  14.132 -0.0718 -0.0676  0.2310
 1491DOPE   NH317483  19.524   1.717  11.841  0.1175  0.1772 -0.1787
 1491DOPE   PO417484  19.360   1.433  11.988 -0.0656 -0.3424 -0.3307
 1491DOPE   GL117485  19.386   1.290  12.339 -0.0171 -0.1953 -0.0172
 1491DOPE   GL217486  19.290   1.396  12.555 -0.1728  0.0388  0.0561
 1491DOPE   C1A17487  19.449   0.929  12.664  0.0831 -0.2198  0.1210
 1491DOPE   D2A17488  19.397   0.778  13.059 -0.0691  0.0437 -0.2128
 1491DOPE   C3A17489  18.935   0.715  13.099  0.2457  0.2612 -0.1180
 1491DOPE   C4A17490  18.572   0.666  13.391  0.0186 -0.0861 -0.0625
 1491DOPE   C1B17491  18.929   1.200  12.693  0.1092 -0.1575  0.0701
 1491DOPE   D2B17492  18.564   1.075  12.946  0.2600 -0.2229  0.0723
 1491DOPE   C3B17493  18.467   0.628  12.934  0.1688 -0.1899  0.0758
 1491DOPE   C4B17494  18.663   0.242  13.154  0.0880 -0.0817  0.0299
 1492DOPC   NC317495  23.001   7.280  12.336 -0.1734  0.1140  0.0531
 1492DOPC   PO417496  23.026   7.420  11.993  0.0968  0.1849 -0.1228
 1492DOPC   GL117497  22.616   7.508  12.190 -0.1734  0.1199  0.5438
 1492DOPC   GL217498  22.741   7.667  12.424 -0.1319  0.4657 -0.2161
 1492DOPC   C1A17499  22.232   7.425  12.363  0.0578 -0.2282  0.0803
 1492DOPC   D2A17500  21.855   7.274  12.630 -0.0823 -0.1229 -0.2587
 1492DOPC   C3A17501  21.840   7.773  12.631  0.3265 -0.2245 -0.0308
 1492DOPC   C4A17502  21.563   8.152  12.753 -0.3524 -0.0115  0.0249
 1492DOPC   C1B17503  22.347   7.928  12.450  0.0429  0.2127  0.0461
 1492DOPC   D2B17504  22.025   8.124  12.196 -0.1599 -0.0812 -0.1462
 1492DOPC   C3B17505  21.544   8.027  12.265 -0.1476 -0.0141  0.0060
 1492DOPC   C4B17506  21.202   8.240  12.415 -0.0701 -0.1590 -0.0679
 1493POSM   NC317507  13.545   3.866  12.196 -0.2739 -0.2705  0.0968
 1493POSM   PO417508  13.583   4.260  12.061 -0.2773 -0.2116 -0.1029
 1493POSM   AM117509  13.914   4.244  12.152 -0.4307 -0.2320 -0.1484
 1493POSM   AM217510  13.990   4.029  12.348 -0.0188 -0.4778 -0.0134
 1493POSM   T1A17511  14.385   4.024  12.048  0.1103  0.0348 -0.0760
 1493POSM   C2A17512  14.745   3.803  12.091  0.2276 -0.0445  0.2310
 1493POSM   C3A17513  15.206   3.816  12.178 -0.0685 -0.3513  0.0500
 1493POSM   C1B17514  14.276   3.941  12.533  0.0318 -0.1138  0.1132
 1493POSM   D2B17515  14.714   3.780  12.678  0.2273  0.0636 -0.1710
 1493POSM   C3B17516  14.667   3.545  13.064  0.3602 -0.4584 -0.0078
 1493POSM   C4B17517  14.413   3.505  13.464  0.1265  0.2606  0.0892
 1494DOPS   CNO17518  14.137  34.607  12.484 -0.1634 -0.1382  0.0408
 1494DOPS   PO417519  14.340  34.313  12.355  0.0403 -0.1128 -0.3148
 1494DOPS   GL117520  14.636  34.118  12.533 -0.1652 -0.5069  0.3206
 1494DOPS   GL217521  14.783  34.150  12.837  0.1765 -0.1039 -0.0640
 1494DOPS   C1A17522  14.657  33.639  12.457 -0.2208 -0.1695  0.2288
 1494DOPS   D2A17523  14.536  33.501  12.008  0.0287  0.1338 -0.0367
 1494DOPS   C3A17524  14.382  33.035  12.077  0.4326 -0.1711 -0.0817
 1494DOPS   C4A17525  14.325  32.632  12.394  0.1581  0.0701 -0.0569
 1494DOPS   C1B17526  15.131  34.141  13.186  0.0325 -0.1034 -0.0239
 1494DOPS   D2B17527  15.286  34.198  13.628  0.1247  0.1375  0.1645
 1494DOPS   C3B17528  15.102  34.495  13.870 -0.0352 -0.0038 -0.0280
 1494DOPS   C4B17529  14.921  34.857  14.135 -0.1072 -0.1117 -0.1636
 1495DOPE   NH317530  14.440   5.977  12.547  0.0720  0.1173 -0.2153
 1495DOPE   PO417531  14.292   6.186  12.293 -0.0202 -0.1446 -0.0196
 1495DOPE   GL117532  13.984   6.053  12.542  0.1008  0.0479  0.0258
 1495DOPE   GL217533  13.978   6.131  12.794 -0.0372  0.1878  0.0134
 1495DOPE   C1A17534  13.543   5.973  12.587 -0.0015  0.0714 -0.1411
 1495DOPE   D2A17535  13.356   5.534  12.582  0.1788  0.2777 -0.1713
 1495DOPE   C3A17536  12.950   5.468  12.759  0.2087 -0.1185  0.0469
 1495DOPE   C4A17537  12.537   5.311  12.740 -0.1748 -0.2321  0.0657
 1495DOPE   C1B17538  13.632   6.423  12.997  0.2231  0.1464  0.0036
 1495DOPE   D2B17539  13.233   6.646  13.198 -0.1624 -0.1974 -0.2980
 1495DOPE   C3B17540  13.147   7.004  13.314 -0.1372 -0.1065 -0.0978
 1495DOPE   C4B17541  12.869   7.263  13.571  0.1635 -0.0634  0.3380
 1496POSM   NC317542  11.558   2.788  12.254  0.0897 -0.0159  0.1423
 1496POSM   PO417543  11.464   3.105  12.514  0.1114  0.0006  0.1654
 1496POSM   AM117544  11.696   3.064  12.746 -0.3305 -0.3631  0.1363
 1496POSM   AM217545  11.736   2.809  12.930  0.0271 -0.0672 -0.0733
 1496POSM   T1A17546  12.033   3.300  13.048 -0.0820  0.0735 -0.0412
 1496POSM   C2A17547  12.080   3.260  13.522 -0.5022  0.0793  0.3810
 1496POSM   C3A17548  12.237   3.089  13.885 -0.1120  0.1191  0.0492
 1496POSM   C1B17549  12.001   2.632  13.033 -0.1069  0.1485  0.0080
 1496POSM   D2B17550  12.270   2.258  13.137 -0.2234  0.1211  0.3231
 1496POSM   C3B17551  12.258   2.154  13.597  0.0455 -0.2978 -0.0875
 1496POSM   C4B17552  12.330   2.088  14.036  0.1174 -0.3438 -0.0305
 1497DOPC   NC317553  18.060   4.581  12.670 -0.4713  0.0288 -0.0026
 1497DOPC   PO417554  17.838   4.798  12.432  0.3132 -0.1742  0.0998
 1497DOPC   GL117555  17.584   4.982  12.776  0.1185  0.2777  0.3997
 1497DOPC   GL217556  17.553   5.290  12.821 -0.0727  0.1267 -0.2409
 1497DOPC   C1A17557  17.293   4.908  13.157 -0.2558  0.1499 -0.0238
 1497DOPC   D2A17558  17.164   4.686  13.488 -0.2881 -0.2306 -0.1540
 1497DOPC   C3A17559  17.236   4.991  13.825  0.0772  0.3307  0.1811
 1497DOPC   C4A17560  16.980   5.309  14.035 -0.1980 -0.2329  0.1298
 1497DOPC   C1B17561  17.250   5.221  12.581 -0.1023 -0.2139 -0.0095
 1497DOPC   D2B17562  17.032   5.492  12.299  0.1010 -0.2208  0.0214
 1497DOPC   C3B17563  16.930   5.951  12.356 -0.4009 -0.0733 -0.2111
 1497DOPC   C4B17564  17.039   6.432  12.232 -0.0384  0.0959  0.1734
 1498DOPS   CNO17565  14.785   0.837  12.086  0.3490  0.2283 -0.1515
 1498DOPS   PO417566  14.837   0.861  12.463  0.3487 -0.1039 -0.1167
 1498DOPS   GL117567  14.684   0.702  12.765  0.0299 -0.2541 -0.0262
 1498DOPS   GL217568  14.715   0.391  12.926  0.0019 -0.3764  0.1351
 1498DOPS   C1A17569  14.376   0.752  13.126  0.0680  0.2867 -0.2164
 1498DOPS   D2A17570  14.420   0.663  13.561 -0.2995  0.1349  0.2341
 1498DOPS   C3A17571  14.127   0.628  13.922  0.2617 -0.0677 -0.0919
 1498DOPS   C4A17572  14.189   0.617  14.362 -0.1524  0.1553  0.1465
 1498DOPS   C1B17573  14.771   0.517  13.338 -0.0553 -0.1720 -0.3123
 1498DOPS   D2B17574  14.942   0.348  13.686  0.2347  0.1529  0.2788
 1498DOPS   C3B17575  15.360   0.447  13.949  0.4283 -0.2544 -0.1470
 1498DOPS   C4B17576  15.758   0.662  14.184 -0.1820 -0.3036 -0.0898
 1499DOPC   NC317577  13.247   4.612  12.228  0.2152  0.0667 -0.0057
 1499DOPC   PO417578  13.641   4.749  12.251 -0.0757  0.2762  0.0614
 1499DOPC   GL117579  13.722   4.467  12.542  0.1091 -0.1779  0.5704
 1499DOPC   GL217580  13.529   4.359  12.573 -0.0010 -0.2617 -0.2295
 1499DOPC   C1A17581  13.650   4.503  13.020 -0.1509 -0.2103  0.0230
 1499DOPC   D2A17582  13.385   4.636  13.338  0.2685  0.0989  0.1616
 1499DOPC   C3A17583  13.399   5.008  13.567 -0.0620 -0.3816  0.1054
 1499DOPC   C4A17584  13.038   5.269  13.736 -0.0405  0.2030 -0.4074
 1499DOPC   C1B17585  13.719   3.965  12.781  0.0502  0.2355  0.0128
 1499DOPC   D2B17586  13.558   3.648  13.141  0.0545  0.0160  0.0345
 1499DOPC   C3B17587  13.938   3.554  13.367  0.4035 -0.0904  0.1456
 1499DOPC   C4B17588  14.080   3.564  13.807 -0.2843  0.1982  0.2276
 1500DOPC   NC317589  16.492   3.620  12.845  0.0475 -0.0668 -0.4104
 1500DOPC   PO417590  16.587   3.625  12.500  0.1852 -0.1793  0.2257
 1500DOPC   GL117591  16.302   3.819  12.412 -0.2173 -0.0856 -0.0043
 1500DOPC   GL217592  16.057   3.593  12.503 -0.3840  0.0683 -0.1228
 1500DOPC   C1A17593  16.072   4.018  12.772 -0.1295  0.2722 -0.1590
 1500DOPC   D2A17594  16.114   4.132  13.207 -0.1859 -0.2117  0.2611
 1500DOPC   C3A17595  16.241   3.820  13.517 -0.0269 -0.0748 -0.1303
 1500DOPC   C4A17596  16.262   3.532  13.872 -0.1138  0.0919  0.1017
 1500DOPC   C1B17597  15.636   3.699  12.666 -0.1838 -0.1223 -0.0520
 1500DOPC   D2B17598  15.225   3.502  12.847  0.2793  0.0470 -0.1451
 1500DOPC   C3B17599  14.910   3.230  12.698 -0.0649  0.3943  0.1537
 1500DOPC   C4B17600  14.609   2.942  12.704 -0.4382 -0.0495 -0.1604
 1501DOPE   NH317601  17.546   3.567  11.732 -0.2129  0.0688 -0.0456
 1501DOPE   PO417602  17.656   3.297  11.842 -0.0302  0.1443  0.1644
 1501DOPE   GL117603  17.910   3.261  12.196  0.3112  0.0473  0.1365
 1501DOPE   GL217604  17.751   2.995  12.311  0.0214  0.0222  0.0382
 1501DOPE   C1A17605  18.194   2.922  12.461 -0.1201  0.0024 -0.2641
 1501DOPE   D2A17606  18.265   2.473  12.606 -0.0810 -0.1311 -0.0471
 1501DOPE   C3A17607  18.443   2.443  12.990 -0.1304  0.0114 -0.2004
 1501DOPE   C4A17608  18.465   2.514  13.441 -0.1895  0.1263  0.1563
 1501DOPE   C1B17609  17.790   2.550  12.490 -0.2026  0.4518  0.5848
 1501DOPE   D2B17610  17.864   2.222  12.747  0.0271  0.0001 -0.0518
 1501DOPE   C3B17611  17.896   2.282  13.180 -0.0127 -0.1265  0.2598
 1501DOPE   C4B17612  17.792   2.051  13.620 -0.0060  0.0840  0.1927
 1502DOPC   NC317613  12.827   3.725  12.145  0.1372 -0.2431  0.4850
 1502DOPC   PO417614  12.996   3.654  11.809 -0.1848  0.1203 -0.2599
 1502DOPC   GL117615  13.090   3.290  11.921  0.0946  0.2258 -0.2915
 1502DOPC   GL217616  12.952   3.274  12.189 -0.1404  0.0502 -0.2630
 1502DOPC   C1A17617  13.209   2.870  11.995 -0.1765 -0.1083  0.2246
 1502DOPC   D2A17618  13.425   2.533  12.212  0.0274 -0.2337  0.3010
 1502DOPC   C3A17619  13.319   2.220  12.496 -0.4167  0.0182 -0.4959
 1502DOPC   C4A17620  13.152   1.957  12.848  0.3619 -0.1086 -0.0170
 1502DOPC   C1B17621  12.894   3.289  12.659 -0.0257 -0.4637 -0.3789
 1502DOPC   D2B17622  12.780   3.206  13.111 -0.0627  0.0391  0.0629
 1502DOPC   C3B17623  13.218   3.154  13.191 -0.1711  0.0065  0.2495
 1502DOPC   C4B17624  13.486   2.791  13.312  0.2617 -0.2794  0.2375
 1503DOPC   NC317625  19.005  10.730  11.974 -0.3281 -0.2415  0.2579
 1503DOPC   PO417626  18.955  10.971  12.297  0.1499  0.2969 -0.0957
 1503DOPC   GL117627  19.132  11.090  12.589  0.2285  0.0797  0.2109
 1503DOPC   GL217628  19.317  11.274  12.521 -0.1818 -0.4473 -0.1137
 1503DOPC   C1A17629  19.268  11.148  13.044  0.2872 -0.2418  0.0509
 1503DOPC   D2A17630  19.064  11.146  13.484 -0.1418  0.0389  0.3107
 1503DOPC   C3A17631  18.796  10.844  13.679 -0.0179  0.1107  0.0804
 1503DOPC   C4A17632  18.403  10.604  13.777 -0.0719 -0.0336 -0.2468
 1503DOPC   C1B17633  19.656  11.299  12.801 -0.3904  0.0447  0.1934
 1503DOPC   D2B17634  20.079  11.052  12.987 -0.0330 -0.0000  0.0828
 1503DOPC   C3B17635  20.439  10.864  12.815  0.2734  0.2584  0.0414
 1503DOPC   C4B17636  20.732  10.612  12.594 -0.0232  0.1707  0.0760
 1504POSM   NC317637  16.603  10.310  12.103  0.2191 -0.0178  0.3272
 1504POSM   PO417638  16.923  10.065  12.003  0.0453 -0.0933  0.1727
 1504POSM   AM117639  17.093  10.000  12.257 -0.2426 -0.5106 -0.2572
 1504POSM   AM217640  17.321  10.153  12.342  0.1469  0.0981  0.0970
 1504POSM   T1A17641  17.152   9.794  12.670  0.0775  0.0673  0.1955
 1504POSM   C2A17642  17.156   9.904  13.068 -0.1706 -0.1241 -0.1126
 1504POSM   C3A17643  16.958  10.001  13.494  0.2422  0.0840 -0.0505
 1504POSM   C1B17644  17.282  10.264  12.674 -0.2009  0.0300 -0.1071
 1504POSM   D2B17645  17.141  10.662  12.891 -0.0682  0.2877  0.2905
 1504POSM   C3B17646  16.807  10.485  13.141 -0.0926  0.2277  0.1317
 1504POSM   C4B17647  16.475  10.224  13.341 -0.2221  0.0972 -0.1060
 1505DOPE   NH317648  17.439   3.985  12.009 -0.1170 -0.2433  0.2413
 1505DOPE   PO417649  17.276   4.119  12.274 -0.0097 -0.0818 -0.1930
 1505DOPE   GL117650  16.973   4.285  12.468  0.1217  0.1023  0.3370
 1505DOPE   GL217651  16.815   4.054  12.621  0.1576 -0.0074 -0.1210
 1505DOPE   C1A17652  16.823   4.625  12.740  0.1286  0.3020  0.1380
 1505DOPE   D2A17653  16.796   4.739  13.189  0.4006 -0.3030 -0.2267
 1505DOPE   C3A17654  16.527   4.533  13.465 -0.1735  0.2444 -0.4102
 1505DOPE   C4A17655  16.440   4.317  13.907 -0.0319  0.4078  0.5516
 1505DOPE   C1B17656  16.557   4.109  12.977 -0.0455  0.2372 -0.1672
 1505DOPE   D2B17657  16.692   3.995  13.396 -0.5197 -0.0076 -0.0471
 1505DOPE   C3B17658  16.891   4.294  13.704  0.0627  0.3210 -0.1185
 1505DOPE   C4B17659  17.047   4.585  14.013 -0.1665 -0.0591 -0.2105
 1506DOPS   CNO17660  17.044   3.525  11.935 -0.1939 -0.0726 -0.1604
 1506DOPS   PO417661  16.920   3.886  11.925  0.0134 -0.0652 -0.1183
 1506DOPS   GL117662  16.651   4.004  12.160  0.4849 -0.0146  0.1039
 1506DOPS   GL217663  16.369   3.979  11.954 -0.0561 -0.0793 -0.2493
 1506DOPS   C1A17664  16.512   4.455  12.087  0.0119  0.2419  0.0809
 1506DOPS   D2A17665  16.217   4.782  12.174 -0.2112 -0.1113  0.0106
 1506DOPS   C3A17666  15.878   4.622  12.432 -0.1273 -0.0723 -0.0360
 1506DOPS   C4A17667  15.436   4.558  12.514 -0.0455  0.3046 -0.0392
 1506DOPS   C1B17668  16.091   4.243  12.228 -0.2769  0.1049  0.2536
 1506DOPS   D2B17669  15.684   4.135  12.392  0.1225 -0.0843 -0.1271
 1506DOPS   C3B17670  15.604   4.232  12.830  0.0680  0.1743 -0.4764
 1506DOPS   C4B17671  15.547   4.532  13.114  0.4047 -0.1478 -0.1032
 1507DOPC   NC317672  15.730  10.200  12.572 -0.0566  0.2391  0.2749
 1507DOPC   PO417673  15.556  10.465  12.331  0.1888 -0.1110  0.1340
 1507DOPC   GL117674  15.979  10.601  12.238 -0.2388  0.2628  0.1632
 1507DOPC   GL217675  15.913  10.858  12.139  0.1015 -0.1666  0.2940
 1507DOPC   C1A17676  16.392  10.694  12.436 -0.4770  0.0420  0.0654
 1507DOPC   D2A17677  16.682  10.921  12.755 -0.0134 -0.2388  0.0213
 1507DOPC   C3A17678  16.377  11.218  12.996 -0.1971  0.0819 -0.5564
 1507DOPC   C4A17679  16.098  11.557  13.066 -0.0933  0.2220  0.0265
 1507DOPC   C1B17680  15.750  11.304  12.093 -0.0946 -0.0202  0.3407
 1507DOPC   D2B17681  15.355  11.561  12.282 -0.1835  0.4209 -0.0069
 1507DOPC   C3B17682  15.330  11.325  12.621 -0.0935 -0.2591  0.0091
 1507DOPC   C4B17683  14.939  11.330  12.885  0.1205 -0.2475 -0.0950
 1508DOPE   NH317684  12.611   4.123  12.489  0.0476  0.0405  0.0385
 1508DOPE   PO417685  12.384   3.961  12.290  0.2519  0.0453 -0.2596
 1508DOPE   GL117686  12.158   3.966  12.562  0.0032 -0.3612 -0.1546
 1508DOPE   GL217687  12.117   4.270  12.696 -0.1464  0.2355 -0.2360
 1508DOPE   C1A17688  12.165   3.919  13.022  0.1011 -0.0369  0.0225
 1508DOPE   D2A17689  12.091   4.016  13.475  0.3914 -0.2647 -0.4570
 1508DOPE   C3A17690  11.890   4.396  13.512 -0.1388  0.0929 -0.1746
 1508DOPE   C4A17691  11.921   4.720  13.855  0.0770 -0.1092  0.0833
 1508DOPE   C1B17692  12.134   4.463  13.106  0.0457 -0.1570 -0.0415
 1508DOPE   D2B17693  12.435   4.619  13.375 -0.2013 -0.1967  0.2070
 1508DOPE   C3B17694  12.456   4.376  13.751 -0.2532  0.0962 -0.1501
 1508DOPE   C4B17695  12.555   3.930  13.838 -0.2940 -0.4565 -0.2168
 1509DOPE   NH317696  17.164   4.391  11.822 -0.1099 -0.4363  0.1699
 1509DOPE   PO417697  17.469   4.492  11.859 -0.0379 -0.2726 -0.2383
 1509DOPE   GL117698  17.172   4.747  12.108  0.0559  0.0905 -0.0585
 1509DOPE   GL217699  17.338   4.925  12.171  0.0578 -0.1258  0.0772
 1509DOPE   C1A17700  16.774   4.857  12.336  0.3973  0.2073  0.2241
 1509DOPE   D2A17701  16.764   5.187  12.580 -0.0131 -0.0208  0.3199
 1509DOPE   C3A17702  16.831   5.221  13.036  0.1441  0.2644 -0.2287
 1509DOPE   C4A17703  16.644   5.331  13.472  0.0499 -0.0813  0.0233
 1509DOPE   C1B17704  17.552   5.368  12.170  0.0853  0.1250 -0.1377
 1509DOPE   D2B17705  17.575   5.793  12.096 -0.4661  0.1115  0.2612
 1509DOPE   C3B17706  17.462   6.167  12.345 -0.1918  0.2541  0.3314
 1509DOPE   C4B17707  17.189   6.262  12.662  0.0581 -0.2164 -0.0859
 1510POSM   NC317708  20.326   7.332  12.331  0.3673 -0.1512  0.1786
 1510POSM   PO417709  20.069   7.016  12.307  0.0591  0.0723 -0.0679
 1510POSM   AM117710  20.092   7.063  12.626  0.0819 -0.1168 -0.2082
 1510POSM   AM217711  19.895   7.045  12.840  0.1342 -0.0497 -0.0243
 1510POSM   T1A17712  20.383   6.987  13.041  0.3255 -0.0597  0.0245
 1510POSM   C2A17713  20.797   7.028  13.272 -0.2889  0.3136  0.0117
 1510POSM   C3A17714  21.199   7.162  13.375  0.0710  0.0995  0.1279
 1510POSM   C1B17715  19.882   7.238  13.081  0.1348  0.1331  0.3023
 1510POSM   D2B17716  19.710   7.575  13.358 -0.0765 -0.1996 -0.0849
 1510POSM   C3B17717  19.835   7.834  13.623 -0.2775 -0.0384 -0.4097
 1510POSM   C4B17718  20.074   8.217  13.658  0.2588  0.0882 -0.0791
 1511POSM   NC317719  21.810  10.723  12.042  0.0765  0.1372 -0.0681
 1511POSM   PO417720  21.671  10.504  11.758  0.0269  0.0588 -0.0060
 1511POSM   AM117721  21.332  10.473  11.796 -0.0747  0.1075  0.0416
 1511POSM   AM217722  21.110  10.545  12.006  0.1302 -0.2242  0.1180
 1511POSM   T1A17723  20.903  10.314  11.619 -0.2571  0.1135 -0.2747
 1511POSM   C2A17724  20.559  10.075  11.696  0.0287 -0.0061  0.2734
 1511POSM   C3A17725  20.409   9.613  11.747 -0.0365 -0.1707  0.2378
 1511POSM   C1B17726  20.942  10.767  12.144 -0.1078 -0.3327  0.6522
 1511POSM   D2B17727  20.881  11.058  12.505 -0.1351  0.1284  0.3171
 1511POSM   C3B17728  20.953  10.942  12.984 -0.0177 -0.0588 -0.2749
 1511POSM   C4B17729  21.008  10.668  13.335 -0.1843  0.0701 -0.3852
 1512DOPC   NC317730  11.720   4.432  12.450 -0.0114  0.1048 -0.0899
 1512DOPC   PO417731  11.942   4.354  12.133  0.1047 -0.3799  0.0971
 1512DOPC   GL117732  12.262   4.557  12.351  0.0717  0.2310  0.0317
 1512DOPC   GL217733  12.260   4.829  12.101  0.3973 -0.3839  0.1440
 1512DOPC   C1A17734  12.430   4.811  12.711 -0.2011 -0.0127 -0.0007
 1512DOPC   D2A17735  12.730   4.843  13.086 -0.0909  0.1334  0.2978
 1512DOPC   C3A17736  12.943   4.814  13.509  0.1972 -0.4363 -0.0570
 1512DOPC   C4A17737  13.201   4.788  13.943  0.1003  0.0884  0.2769
 1512DOPC   C1B17738  11.974   4.993  12.427 -0.2485  0.2735  0.3359
 1512DOPC   D2B17739  11.997   5.284  12.737  0.2163  0.1453  0.2047
 1512DOPC   C3B17740  12.191   5.145  13.098  0.0069  0.1829 -0.2465
 1512DOPC   C4B17741  12.466   5.081  13.522  0.2474  0.1569 -0.0887
 1513DOPC   NC317742  15.758  10.221  11.882 -0.1571  0.2641 -0.1179
 1513DOPC   PO417743  15.617   9.977  12.164  0.1956  0.0370 -0.0781
 1513DOPC   GL117744  15.868   9.743  12.438  0.2161  0.2080  0.1441
 1513DOPC   GL217745  16.157   9.896  12.548 -0.1830 -0.0239  0.0473
 1513DOPC   C1A17746  15.790   9.609  12.866 -0.1550  0.3875 -0.1745
 1513DOPC   D2A17747  15.802   9.794  13.311 -0.0935  0.0875 -0.2037
 1513DOPC   C3A17748  15.572   9.549  13.677  0.0704 -0.2082  0.2032
 1513DOPC   C4A17749  15.181   9.380  13.703  0.1124 -0.4383 -0.1681
 1513DOPC   C1B17750  16.056  10.039  12.989 -0.5690  0.1143  0.0111
 1513DOPC   D2B17751  15.697  10.352  13.075  0.2248  0.2388  0.1019
 1513DOPC   C3B17752  15.469  10.185  13.430 -0.1163  0.0258 -0.2575
 1513DOPC   C4B17753  15.189   9.951  13.737  0.0526  0.1615  0.0705
 1514DOPC   NC317754  18.284   8.095  12.339 -0.0562 -0.0487  0.2895
 1514DOPC   PO417755  18.272   7.717  12.226 -0.1196 -0.1174 -0.0214
 1514DOPC   GL117756  18.171   7.515  12.633 -0.2383  0.0644  0.2787
 1514DOPC   GL217757  17.943   7.747  12.669 -0.0841 -0.0750  0.1497
 1514DOPC   C1A17758  17.830   7.217  12.773 -0.0303 -0.2089  0.1143
 1514DOPC   D2A17759  17.765   6.862  13.078 -0.2415 -0.0600 -0.0093
 1514DOPC   C3A17760  17.640   7.172  13.386  0.0167  0.1523 -0.1514
 1514DOPC   C4A17761  17.723   7.389  13.795  0.0518 -0.2007  0.0011
 1514DOPC   C1B17762  17.978   7.974  13.099  0.2912 -0.1751 -0.1450
 1514DOPC   D2B17763  17.892   7.896  13.520 -0.0940 -0.0779  0.2300
 1514DOPC   C3B17764  18.105   7.854  13.916  0.4414 -0.3425 -0.0624
 1514DOPC   C4B17765  18.535   7.775  14.019 -0.1744  0.0599 -0.2815
 1515POSM   NC317766  13.986   3.141  11.968 -0.0959  0.1858  0.3705
 1515POSM   PO417767  13.997   3.303  11.596  0.0351  0.3283  0.4786
 1515POSM   AM117768  14.074   3.598  11.739 -0.4226 -0.2947  0.1144
 1515POSM   AM217769  14.019   3.708  11.987 -0.2320 -0.0946 -0.0043
 1515POSM   T1A17770  14.168   4.109  11.630 -0.0009  0.1532  0.1653
 1515POSM   C2A17771  14.224   4.563  11.584  0.1848 -0.1117 -0.2034
 1515POSM   C3A17772  14.194   5.014  11.403  0.0404  0.1055  0.1676
 1515POSM   C1B17773  14.271   3.559  12.161  0.0184  0.1120  0.0294
 1515POSM   D2B17774  14.514   3.192  12.263 -0.0253  0.1563  0.1970
 1515POSM   C3B17775  14.350   2.712  12.311 -0.1423 -0.1103  0.0756
 1515POSM   C4B17776  14.202   2.381  12.623 -0.2071  0.3017 -0.0644
 1516DOPC   NC317777  12.143  10.499  12.359 -0.0665  0.0442 -0.2072
 1516DOPC   PO417778  12.188  10.337  12.041 -0.3326 -0.2871 -0.0632
 1516DOPC   GL117779  12.480  10.234  12.176 -0.1362  0.2998 -0.1527
 1516DOPC   GL217780  12.726  10.343  12.113  0.2498 -0.0675  0.0088
 1516DOPC   C1A17781  12.643  10.192  12.655  0.0931 -0.0645  0.2185
 1516DOPC   D2A17782  13.034  10.036  12.822  0.5064  0.2915  0.0663
 1516DOPC   C3A17783  13.370   9.724  12.935  0.4261  0.3369  0.1360
 1516DOPC   C4A17784  13.716   9.799  13.258 -0.1162  0.0698 -0.0966
 1516DOPC   C1B17785  13.090  10.287  12.368 -0.2194 -0.0843  0.4120
 1516DOPC   D2B17786  13.465  10.464  12.542  0.1738  0.0514  0.0234
 1516DOPC   C3B17787  13.618  10.659  12.923  0.1323 -0.1227 -0.2750
 1516DOPC   C4B17788  13.814  10.650  13.376 -0.0207 -0.1341  0.0396
 1517POSM   NC317789  22.500   4.209  12.214 -0.0254  0.0121  0.1548
 1517POSM   PO417790  22.498   4.616  12.303  0.1969 -0.2019 -0.2329
 1517POSM   AM117791  22.364   4.519  12.599 -0.3377 -0.0209 -0.0814
 1517POSM   AM217792  22.293   4.634  12.841  0.3137  0.1254  0.0934
 1517POSM   T1A17793  22.145   4.190  12.854 -0.2297  0.2437 -0.2468
 1517POSM   C2A17794  21.967   3.959  13.244 -0.0065 -0.2117 -0.0052
 1517POSM   C3A17795  21.797   3.761  13.640 -0.2260  0.2868  0.0381
 1517POSM   C1B17796  22.055   4.784  13.020 -0.3452 -0.0239 -0.0807
 1517POSM   D2B17797  21.692   4.919  13.276 -0.2355  0.1175 -0.0783
 1517POSM   C3B17798  21.252   4.866  13.127  0.1482 -0.0483  0.1723
 1517POSM   C4B17799  20.907   4.616  13.223  0.0518 -0.0226  0.0630
 1518DOPS   CNO17800  20.213   2.070  11.624 -0.1551 -0.0639  0.0139
 1518DOPS   PO417801  20.061   1.828  11.873  0.0997 -0.0783 -0.0393
 1518DOPS   GL117802  20.278   1.944  12.175 -0.2910 -0.2684 -0.2046
 1518DOPS   GL217803  20.417   2.217  12.136 -0.0712  0.1064 -0.1151
 1518DOPS   C1A17804  20.349   1.783  12.642  0.0128  0.0767  0.0741
 1518DOPS   D2A17805  20.145   1.902  13.034  0.1274  0.0936  0.0524
 1518DOPS   C3A17806  20.448   2.106  13.307 -0.0723  0.0464  0.0719
 1518DOPS   C4A17807  20.882   1.994  13.477  0.1327  0.4270  0.1541
 1518DOPS   C1B17808  20.575   2.321  12.581 -0.1331  0.0995 -0.0456
 1518DOPS   D2B17809  20.861   2.516  12.876  0.6348  0.0040 -0.2150
 1518DOPS   C3B17810  20.805   2.464  13.332  0.3183  0.1562 -0.2092
 1518DOPS   C4B17811  20.796   2.556  13.720 -0.0554  0.2381  0.2810
 1519DOPC   NC317812  14.951   6.210  12.085  0.2647  0.2658 -0.1395
 1519DOPC   PO417813  15.170   5.876  11.947 -0.3091 -0.2057  0.3021
 1519DOPC   GL117814  15.590   5.917  12.022 -0.0149 -0.0746  0.2081
 1519DOPC   GL217815  15.747   6.103  11.754 -0.1143  0.2237  0.0275
 1519DOPC   C1A17816  15.812   5.590  12.276 -0.3771 -0.0979 -0.0606
 1519DOPC   D2A17817  15.703   5.395  12.659  0.1931  0.1116 -0.3537
 1519DOPC   C3A17818  15.873   5.010  12.795  0.3525 -0.2047 -0.0748
 1519DOPC   C4A17819  16.003   4.649  12.998  0.0593 -0.0491  0.0198
 1519DOPC   C1B17820  15.991   6.064  12.116  0.3162 -0.0379  0.1528
 1519DOPC   D2B17821  16.326   6.059  12.415  0.1607 -0.0394 -0.2172
 1519DOPC   C3B17822  16.543   5.679  12.532  0.0966  0.3096  0.0025
 1519DOPC   C4B17823  16.878   5.664  12.814 -0.0287 -0.2994  0.1225
 1520DOPS   CNO17824  11.745  10.132  12.092 -0.3159 -0.0204 -0.0423
 1520DOPS   PO417825  11.386  10.204  12.220  0.0590  0.0764 -0.2223
 1520DOPS   GL117826  11.550  10.312  12.576 -0.1143  0.3269 -0.0114
 1520DOPS   GL217827  11.812  10.176  12.613  0.1140 -0.0966  0.0593
 1520DOPS   C1A17828  11.521  10.178  13.043 -0.2132  0.2155  0.0467
 1520DOPS   D2A17829  11.357  10.091  13.455  0.4139  0.2310 -0.2127
 1520DOPS   C3A17830  11.235  10.392  13.840  0.1194 -0.0365 -0.2031
 1520DOPS   C4A17831  11.510  10.488  14.222 -0.0586 -0.1011 -0.0282
 1520DOPS   C1B17832  12.038  10.161  12.985 -0.2228  0.0147 -0.3412
 1520DOPS   D2B17833  11.862  10.138  13.460 -0.0547  0.0618  0.1996
 1520DOPS   C3B17834  11.930  10.386  13.856  0.2708  0.1560 -0.1958
 1520DOPS   C4B17835  11.982  10.665  14.215  0.0165  0.1827  0.0252
 1521DOPE   NH317836  15.713   7.961  12.301  0.1092 -0.1795 -0.3177
 1521DOPE   PO417837  15.748   8.214  12.097 -0.0065  0.1908 -0.0916
 1521DOPE   GL117838  15.864   8.458  12.379 -0.0881  0.6158 -0.1312
 1521DOPE   GL217839  16.005   8.234  12.538 -0.2364 -0.1014 -0.1026
 1521DOPE   C1A17840  16.124   8.810  12.403 -0.0919  0.0909  0.2708
 1521DOPE   D2A17841  16.413   8.997  12.717 -0.2195  0.0382  0.0010
 1521DOPE   C3A17842  16.304   9.391  12.980 -0.1493  0.1470  0.0800
 1521DOPE   C4A17843  16.312   9.741  13.337  0.0417 -0.0156 -0.0473
 1521DOPE   C1B17844  16.428   8.445  12.396  0.0355 -0.1878 -0.2943
 1521DOPE   D2B17845  16.863   8.457  12.554  0.2057 -0.0359  0.2723
 1521DOPE   C3B17846  17.054   8.412  12.993 -0.0102 -0.1631  0.2993
 1521DOPE   C4B17847  17.116   8.022  13.232 -0.3430 -0.0632  0.1547
 1522DOPE   NH317848  22.223   2.653  12.299  0.0090  0.0298  0.0611
 1522DOPE   PO417849  22.462   2.698  12.456 -0.0299  0.1822  0.1149
 1522DOPE   GL117850  22.427   2.554  12.754 -0.3911 -0.5937 -0.2791
 1522DOPE   GL217851  22.219   2.754  12.892  0.2279  0.1098  0.0732
 1522DOPE   C1A17852  22.367   2.322  13.143 -0.1807  0.2644 -0.0254
 1522DOPE   D2A17853  22.370   2.193  13.587 -0.0428 -0.0042 -0.0173
 1522DOPE   C3A17854  22.016   2.450  13.715 -0.3198 -0.0030  0.1156
 1522DOPE   C4A17855  21.687   2.579  13.993  0.2523  0.2685  0.0427
 1522DOPE   C1B17856  21.861   2.464  12.851  0.0891 -0.3885  0.0126
 1522DOPE   D2B17857  21.636   2.446  13.303  0.1909  0.0321  0.1693
 1522DOPE   C3B17858  21.689   2.089  13.620 -0.2362  0.1728  0.2210
 1522DOPE   C4B17859  21.648   1.885  14.014  0.2383 -0.0389 -0.2379
 1523DOPE   NH317860  18.181   3.627  11.994  0.3983  0.2842 -0.2410
 1523DOPE   PO417861  17.968   3.728  12.157  0.0458  0.0882 -0.0899
 1523DOPE   GL117862  18.203   3.934  12.279 -0.1375 -0.4401  0.3700
 1523DOPE   GL217863  18.521   3.875  12.256 -0.1527  0.1151 -0.0926
 1523DOPE   C1A17864  18.190   3.966  12.782 -0.0522  0.2806  0.2289
 1523DOPE   D2A17865  18.174   4.236  13.123  0.2184  0.2324  0.1608
 1523DOPE   C3A17866  18.244   4.018  13.504 -0.0148  0.0987 -0.0796
 1523DOPE   C4A17867  18.349   3.786  13.856 -0.1753 -0.1841 -0.1214
 1523DOPE   C1B17868  18.737   3.589  12.492  0.4431  0.3065 -0.0933
 1523DOPE   D2B17869  19.027   3.476  12.854  0.2704 -0.0401 -0.0481
 1523DOPE   C3B17870  18.790   3.450  13.215 -0.0456  0.2501  0.0887
 1523DOPE   C4B17871  18.668   3.461  13.645 -0.1670  0.1187 -0.2133
 1524DOPC   NC317872  16.133   2.230  11.830  0.0249 -0.2193  0.0281
 1524DOPC   PO417873  16.388   2.508  11.962 -0.1484  0.1387 -0.0787
 1524DOPC   GL117874  16.445   2.226  12.164  0.2498  0.2149  0.1630
 1524DOPC   GL217875  16.523   2.308  12.393  0.0120 -0.0001 -0.2082
 1524DOPC   C1A17876  16.606   1.750  12.204  0.0610  0.3335  0.1598
 1524DOPC   D2A17877  16.867   1.373  12.127  0.2564  0.1416 -0.3558
 1524DOPC   C3A17878  17.174   1.032  12.152  0.1413 -0.1293 -0.1753
 1524DOPC   C4A17879  17.020   0.661  12.392 -0.0873  0.2840 -0.3154
 1524DOPC   C1B17880  16.569   1.970  12.746  0.0289 -0.1725  0.1731
 1524DOPC   D2B17881  16.885   1.728  13.076  0.0161  0.4088 -0.1011
 1524DOPC   C3B17882  16.920   1.236  13.073 -0.4481 -0.2883  0.4773
 1524DOPC   C4B17883  16.963   0.783  12.925  0.0499 -0.0450 -0.1533
 1525DOPS   CNO17884  23.407   7.066  11.985 -0.1423  0.1819  0.2062
 1525DOPS   PO417885  23.359   6.944  12.334  0.1835 -0.1108 -0.0825
 1525DOPS   GL117886  23.171   6.813  12.545 -0.8092  0.0734 -0.0342
 1525DOPS   GL217887  23.231   6.698  12.745  0.1107 -0.0904  0.0602
 1525DOPS   C1A17888  22.726   6.897  12.619  0.0735 -0.0108 -0.1932
 1525DOPS   D2A17889  22.262   6.952  12.586 -0.1481 -0.3354 -0.1209
 1525DOPS   C3A17890  22.000   6.877  12.960 -0.1751  0.1902 -0.0701
 1525DOPS   C4A17891  21.613   7.041  13.176 -0.1822 -0.1187  0.2101
 1525DOPS   C1B17892  22.922   6.658  13.071  0.2316  0.1355 -0.0618
 1525DOPS   D2B17893  22.626   7.014  13.256  0.1784  0.0536  0.1258
 1525DOPS   C3B17894  22.232   7.257  13.155  0.0500  0.1664  0.0016
 1525DOPS   C4B17895  21.956   7.611  13.212 -0.0668  0.0200  0.2398
 1526DOPS   CNO17896  19.186  10.248  11.933  0.0579 -0.0067 -0.0910
 1526DOPS   PO417897  19.298  10.316  12.286 -0.1408  0.0161 -0.0178
 1526DOPS   GL117898  19.335  10.181  12.687  0.1123  0.1220 -0.1834
 1526DOPS   GL217899  19.266   9.919  12.682  0.2024  0.1165  0.1514
 1526DOPS   C1A17900  19.455  10.319  13.130 -0.0423 -0.2344 -0.5225
 1526DOPS   D2A17901  19.868  10.237  13.309  0.2505  0.1274  0.2582
 1526DOPS   C3A17902  20.184  10.086  13.021 -0.1158 -0.0784  0.1607
 1526DOPS   C4A17903  20.592  10.211  12.850 -0.1958  0.1688  0.0451
 1526DOPS   C1B17904  19.066   9.985  13.097  0.0303  0.1719 -0.0588
 1526DOPS   D2B17905  19.006   9.961  13.520 -0.2141  0.0805 -0.2599
 1526DOPS   C3B17906  18.641   9.725  13.717  0.1136 -0.0867 -0.2172
 1526DOPS   C4B17907  18.182   9.610  13.847  0.3525  0.0081 -0.0957
 1527DOPC   NC317908  18.976   9.916  12.332  0.2534 -0.6993 -0.0069
 1527DOPC   PO417909  18.749   9.649  12.500 -0.1211 -0.2688  0.1922
 1527DOPC   GL117910  18.849   9.717  12.787 -0.1879  0.0699  0.2678
 1527DOPC   GL217911  18.561   9.888  12.900  0.1724  0.4369 -0.3982
 1527DOPC   C1A17912  19.195   9.476  12.984 -0.3799 -0.2510  0.2567
 1527DOPC   D2A17913  19.205   9.446  13.438  0.3252 -0.0209  0.1745
 1527DOPC   C3A17914  19.410   9.663  13.801 -0.2055  0.2906 -0.2072
 1527DOPC   C4A17915  19.466   9.901  14.121  0.1010  0.1034 -0.2223
 1527DOPC   C1B17916  18.707   9.592  13.223 -0.0210 -0.0370  0.1799
 1527DOPC   D2B17917  18.569   9.215  13.395  0.0037 -0.0948  0.2040
 1527DOPC   C3B17918  18.911   8.911  13.297  0.0751 -0.1897  0.3708
 1527DOPC   C4B17919  19.130   8.483  13.457 -0.4616 -0.1034  0.2838
 1528DOPS   CNO17920  14.029   4.992  12.022 -0.2333  0.1097 -0.1804
 1528DOPS   PO417921  14.150   4.624  12.096  0.0015 -0.1288  0.2752
 1528DOPS   GL117922  14.324   4.470  12.434 -0.1553 -0.0648  0.2257
 1528DOPS   GL217923  14.590   4.498  12.335  0.1496  0.0273  0.1447
 1528DOPS   C1A17924  14.035   4.303  12.791 -0.0622  0.2592  0.3669
 1528DOPS   D2A17925  13.891   4.091  13.225 -0.0851 -0.0603 -0.1244
 1528DOPS   C3A17926  14.170   4.081  13.590  0.0118 -0.3609 -0.0723
 1528DOPS   C4A17927  14.480   4.078  13.923  0.1456 -0.1274  0.2116
 1528DOPS   C1B17928  14.960   4.278  12.451 -0.1395 -0.0656 -0.0470
 1528DOPS   D2B17929  15.140   3.970  12.696 -0.4463 -0.2667  0.0501
 1528DOPS   C3B17930  14.953   4.075  13.124 -0.0168 -0.1038  0.0723
 1528DOPS   C4B17931  14.901   3.849  13.575  0.1689 -0.0153 -0.0524
 1529DOPS   CNO17932  15.261   6.765  12.110  0.0550  0.0195  0.0876
 1529DOPS   PO417933  15.122   6.769  12.466 -0.0886  0.0016 -0.0998
 1529DOPS   GL117934  15.281   6.754  12.711 -0.0940 -0.1659 -0.3154
 1529DOPS   GL217935  15.318   7.001  12.929  0.1614  0.2320 -0.2252
 1529DOPS   C1A17936  15.272   6.499  13.091  0.2605 -0.1822  0.0461
 1529DOPS   D2A17937  15.455   6.310  13.478 -0.1227  0.2130 -0.0922
 1529DOPS   C3A17938  15.842   6.427  13.741  0.2402  0.1290  0.2140
 1529DOPS   C4A17939  16.012   6.357  14.159  0.2652 -0.1867  0.0573
 1529DOPS   C1B17940  15.268   7.148  13.273  0.1174 -0.0807 -0.0444
 1529DOPS   D2B17941  14.859   7.303  13.445 -0.6825  0.1749 -0.0912
 1529DOPS   C3B17942  14.893   7.092  13.833 -0.1324 -0.3067 -0.1395
 1529DOPS   C4B17943  14.769   6.709  14.051 -0.1653  0.0988  0.5003
 1530DOPC   NC317944  12.196   9.072  12.661  0.2232  0.1059 -0.3319
 1530DOPC   PO417945  12.174   9.403  12.406 -0.1419 -0.2883  0.2625
 1530DOPC   GL117946  12.337   9.600  12.028 -0.0975 -0.0404 -0.0089
 1530DOPC   GL217947  12.311   9.849  11.903  0.1143 -0.1237  0.2201
 1530DOPC   C1A17948  12.679   9.492  11.792  0.1071 -0.2562 -0.1029
 1530DOPC   D2A17949  13.183   9.482  11.846 -0.3281  0.1988  0.1527
 1530DOPC   C3A17950  13.326   9.359  12.244 -0.1761  0.4613 -0.0099
 1530DOPC   C4A17951  13.558   9.430  12.623  0.1566 -0.2866 -0.0323
 1530DOPC   C1B17952  12.480   9.775  11.463  0.1645  0.1451  0.3751
 1530DOPC   D2B17953  12.853   9.642  11.276 -0.2009 -0.1174  0.1715
 1530DOPC   C3B17954  13.211   9.855  11.436  0.0770  0.0388  0.0612
 1530DOPC   C4B17955  13.541   9.798  11.783 -0.3045  0.1655  0.2795
 1531DOPE   NH317956  22.227  34.526  12.142 -0.1067 -0.3197  0.0430
 1531DOPE   PO417957  21.923  34.438  12.142 -0.1489  0.2561 -0.0183
 1531DOPE   GL117958  21.724  34.549  12.538  0.2894  0.0639 -0.1485
 1531DOPE   GL217959  21.494  34.670  12.379 -0.0327 -0.1712 -0.0454
 1531DOPE   C1A17960  21.757  34.822  12.946 -0.0836  0.1201  0.0924
 1531DOPE   D2A17961  21.600  35.017  13.267 -0.1757  0.0937  0.0194
 1531DOPE   C3A17962  21.601  34.774  13.652  0.1898  0.1224 -0.2897
 1531DOPE   C4A17963  21.711  34.348  13.777 -0.3142 -0.0735 -0.3977
 1531DOPE   C1B17964  21.532  35.081  12.587 -0.1702 -0.1637 -0.1173
 1531DOPE   D2B17965  21.720  35.448  12.790 -0.0419 -0.3382  0.2583
 1531DOPE   C3B17966  21.643  35.511  13.260 -0.0802  0.2673  0.0526
 1531DOPE   C4B17967  21.838  35.581  13.660 -0.2423 -0.0657  0.2170
 1532DOPE   NH317968  11.580  11.553  12.461  0.0047  0.0776 -0.0033
 1532DOPE   PO417969  11.388  11.675  12.652 -0.0944  0.3997 -0.4665
 1532DOPE   GL117970  11.569  11.828  12.947 -0.1289  0.1305  0.1513
 1532DOPE   GL217971  11.855  11.878  12.988 -0.1907  0.0006  0.1239
 1532DOPE   C1A17972  11.661  11.530  13.306  0.2102 -0.0077 -0.0918
 1532DOPE   D2A17973  11.548  11.237  13.614 -0.0223  0.0659  0.1576
 1532DOPE   C3A17974  11.638  11.119  14.063 -0.1299  0.0597 -0.0274
 1532DOPE   C4A17975  11.676  11.142  14.489 -0.0040 -0.1975 -0.1511
 1532DOPE   C1B17976  12.314  11.749  13.046  0.4111  0.0418  0.0217
 1532DOPE   D2B17977  12.493  11.392  13.186  0.2579  0.2393 -0.0693
 1532DOPE   C3B17978  12.306  10.987  13.029  0.1354 -0.2229  0.1691
 1532DOPE   C4B17979  12.422  10.568  12.890  0.0120 -0.1509  0.1140
 1533POSM   NC317980  16.588   2.867  12.212 -0.2365 -0.1555  0.3678
 1533POSM   PO417981  16.840   3.175  12.286  0.3720 -0.1855 -0.2494
 1533POSM   AM117982  16.951   3.278  12.578  0.1199  0.0470  0.0009
 1533POSM   AM217983  17.209   3.289  12.683  0.0178 -0.0845 -0.2966
 1533POSM   T1A17984  16.821   3.279  13.052  0.1420 -0.2372  0.0339
 1533POSM   C2A17985  16.475   3.418  13.339 -0.1377  0.0035 -0.1797
 1533POSM   C3A17986  16.284   3.071  13.602 -0.1251 -0.1276  0.1221
 1533POSM   C1B17987  17.335   3.017  12.736 -0.0238 -0.1180 -0.0067
 1533POSM   D2B17988  17.388   2.589  12.833 -0.3453  0.3005  0.0551
 1533POSM   C3B17989  17.412   2.579  13.275  0.2520  0.1832  0.0210
 1533POSM   C4B17990  17.360   2.984  13.430 -0.1309 -0.0871 -0.3423
 1534DOPS   CNO17991  22.210  10.369  11.929  0.0840 -0.0452 -0.0200
 1534DOPS   PO417992  21.944  10.182  12.138 -0.3970 -0.3061 -0.0869
 1534DOPS   GL117993  21.540  10.181  12.159  0.0184  0.3635  0.0650
 1534DOPS   GL217994  21.537  10.403  12.347  0.1530 -0.0889 -0.0309
 1534DOPS   C1A17995  21.088  10.038  11.984 -0.4001  0.0736  0.0891
 1534DOPS   D2A17996  20.661   9.858  12.124 -0.1339 -0.0308  0.0242
 1534DOPS   C3A17997  20.656   9.782  12.563 -0.1631 -0.0679 -0.1016
 1534DOPS   C4A17998  20.570   9.715  13.053 -0.1140 -0.2340 -0.1299
 1534DOPS   C1B17999  21.486  10.072  12.729 -0.1626  0.2257 -0.4532
 1534DOPS   D2B18000  21.070  10.048  13.010  0.1423  0.0154  0.0388
 1534DOPS   C3B18001  21.134   9.708  13.239  0.2064 -0.2848 -0.3912
 1534DOPS   C4B18002  21.310   9.356  13.515  0.2523 -0.0674  0.2496
 1535DOPC   NC318003  18.715   2.746  12.452  0.0764 -0.0563 -0.2235
 1535DOPC   PO418004  18.943   2.548  12.201  0.1430  0.1576 -0.3260
 1535DOPC   GL118005  19.034   2.284  12.417 -0.0627 -0.0456  0.0686
 1535DOPC   GL218006  19.382   2.214  12.430  0.0053 -0.1800  0.2197
 1535DOPC   C1A18007  18.811   2.130  12.760  0.0019 -0.4668 -0.0592
 1535DOPC   D2A18008  18.776   2.024  13.208  0.0742 -0.0737  0.0527
 1535DOPC   C3A18009  18.624   1.540  13.207  0.1045 -0.1183  0.1820
 1535DOPC   C4A18010  18.180   1.535  13.348 -0.2944 -0.3021  0.2605
 1535DOPC   C1B18011  19.161   1.889  12.513 -0.0848  0.0335 -0.1157
 1535DOPC   D2B18012  18.806   1.583  12.372  0.3125  0.3346  0.1149
 1535DOPC   C3B18013  18.522   1.568  12.672 -0.2183  0.2384  0.2835
 1535DOPC   C4B18014  18.331   1.933  12.935 -0.2617  0.0899 -0.0567
 1536DOPE   NH318015  11.883   3.471  12.606 -0.2389 -0.0135  0.0440
 1536DOPE   PO418016  11.612   3.583  12.613 -0.1968  0.1414  0.4514
 1536DOPE   GL118017  11.346   3.400  12.910  0.3184  0.1630  0.0099
 1536DOPE   GL218018  11.240   3.667  12.966 -0.0983 -0.0401 -0.0001
 1536DOPE   C1A18019  11.443   3.106  13.260  0.1624 -0.0553 -0.0006
 1536DOPE   D2A18020  11.785   2.905  13.402  0.1065 -0.1202  0.1771
 1536DOPE   C3A18021  11.652   2.501  13.458  0.3778  0.1763 -0.1478
 1536DOPE   C4A18022  11.816   2.084  13.316 -0.0995 -0.3492 -0.0157
 1536DOPE   C1B18023  11.671   3.661  13.241 -0.0819 -0.0037  0.1628
 1536DOPE   D2B18024  11.641   3.458  13.670  0.1278 -0.0807 -0.1462
 1536DOPE   C3B18025  11.821   3.345  14.093 -0.0103 -0.0243  0.1857
 1536DOPE   C4B18026  11.914   2.996  14.352  0.0810 -0.2565 -0.0547
 1537DOPS   CNO18027  16.491   3.059  11.757 -0.0368  0.2359  0.2168
 1537DOPS   PO418028  16.885   2.967  11.683 -0.0292 -0.2670 -0.0361
 1537DOPS   GL118029  17.098   2.853  12.030 -0.3292  0.2041  0.3292
 1537DOPS   GL218030  17.426   2.834  11.935 -0.1098 -0.1428  0.1886
 1537DOPS   C1A18031  17.332   2.493  12.288  0.2853 -0.5356  0.1968
 1537DOPS   D2A18032  17.650   2.099  12.331 -0.0110  0.0619  0.1280
 1537DOPS   C3A18033  17.629   1.618  12.239 -0.0421  0.0743 -0.0068
 1537DOPS   C4A18034  17.647   1.264  12.543  0.0764 -0.2868 -0.2476
 1537DOPS   C1B18035  17.812   2.619  11.711  0.0434  0.2100 -0.1818
 1537DOPS   D2B18036  17.932   2.183  11.871  0.0233 -0.0175  0.0886
 1537DOPS   C3B18037  18.142   2.197  12.231  0.2680  0.0167  0.0175
 1537DOPS   C4B18038  18.448   1.973  12.442 -0.0043 -0.0131  0.3689
 1538DOPS   CNO18039  20.202   6.632  11.979 -0.0146 -0.1115 -0.2803
 1538DOPS   PO418040  20.016   6.918  11.808  0.0189 -0.1973 -0.3663
 1538DOPS   GL118041  20.182   7.258  11.915  0.2481  0.1258 -0.0139
 1538DOPS   GL218042  20.038   7.460  11.935  0.2447  0.0279 -0.0045
 1538DOPS   C1A18043  20.628   7.435  11.943  0.2142  0.2754  0.0539
 1538DOPS   D2A18044  20.997   7.294  11.997 -0.2928  0.1818  0.1590
 1538DOPS   C3A18045  21.265   7.641  11.999 -0.0149 -0.1246 -0.1557
 1538DOPS   C4A18046  21.696   7.531  12.188  0.1242 -0.3424 -0.0885
 1538DOPS   C1B18047  19.938   7.747  12.315 -0.1272 -0.1776 -0.1084
 1538DOPS   D2B18048  20.171   8.063  12.533 -0.0628 -0.0752 -0.1595
 1538DOPS   C3B18049  20.536   8.303  12.394  0.0188  0.1088  0.1648
 1538DOPS   C4B18050  20.871   8.627  12.345  0.1046  0.3988 -0.1678
 1539DOPE   NH318051  11.673  10.639  12.043 -0.4088 -0.0537  0.1245
 1539DOPE   PO418052  11.587  10.700  12.345 -0.1090 -0.0674 -0.0442
 1539DOPE   GL118053  11.290  10.792  12.609  0.0314 -0.0721 -0.0679
 1539DOPE   GL218054  11.061  10.864  12.836 -0.0165 -0.0481 -0.1013
 1539DOPE   C1A18055  11.494  10.705  13.072  0.1462 -0.2768 -0.0598
 1539DOPE   D2A18056  11.572  10.633  13.547 -0.5020  0.2575 -0.0970
 1539DOPE   C3A18057  11.959  10.845  13.695 -0.2924  0.1069 -0.1671
 1539DOPE   C4A18058  12.359  10.699  13.878  0.2111  0.2872  0.2315
 1539DOPE   C1B18059  11.118  10.387  12.852 -0.3418  0.3169 -0.0023
 1539DOPE   D2B18060  10.920  10.080  13.151  0.0078 -0.1575 -0.3722
 1539DOPE   C3B18061  10.835  10.074  13.610 -0.1128  0.3392  0.1600
 1539DOPE   C4B18062  10.839   9.965  14.127 -0.0057 -0.0664 -0.0525
 1540DOPE   NH318063  15.317   6.341  12.596  0.0172 -0.1917 -0.0157
 1540DOPE   PO418064  15.411   6.105  12.365 -0.1115  0.0575  0.1329
 1540DOPE   GL118065  15.608   5.869  12.598 -0.1907 -0.2105  0.1181
 1540DOPE   GL218066  15.858   6.075  12.563 -0.1708  0.0629 -0.3033
 1540DOPE   C1A18067  15.668   6.042  13.031 -0.0445  0.0361  0.0171
 1540DOPE   D2A18068  16.036   6.093  13.303  0.2238  0.1287 -0.1198
 1540DOPE   C3A18069  16.428   6.188  13.447  0.0207  0.0755  0.0570
 1540DOPE   C4A18070  16.789   6.276  13.698 -0.1994 -0.3068  0.0332
 1540DOPE   C1B18071  16.098   5.705  12.714  0.1182  0.5109  0.2167
 1540DOPE   D2B18072  16.317   5.327  12.938 -0.1039 -0.1302  0.3449
 1540DOPE   C3B18073  16.176   5.074  13.325 -0.0064  0.0973 -0.0397
 1540DOPE   C4B18074  15.985   4.738  13.555 -0.1125 -0.1930 -0.0118
 1541POSM   NC318075  22.929   0.270  12.446  0.1146 -0.0374  0.5685
 1541POSM   PO418076  22.620   0.073  12.278 -0.1134 -0.4726  0.0279
 1541POSM   AM118077  22.426   0.028  12.515  0.1078 -0.0117  0.1298
 1541POSM   AM218078  22.155   0.101  12.547  0.0626 -0.2402  0.1160
 1541POSM   T1A18079  22.362   0.079  13.022  0.0531  0.1449  0.1773
 1541POSM   C2A18080  22.521   0.399  13.336 -0.4441 -0.0816 -0.4175
 1541POSM   C3A18081  22.882   0.643  13.535  0.0671  0.1694 -0.0548
 1541POSM   C1B18082  22.050   0.383  12.691 -0.5212  0.0970  0.0113
 1541POSM   D2B18083  22.071   0.494  13.119 -0.0170  0.1842 -0.1037
 1541POSM   C3B18084  21.999   0.450  13.560 -0.0628 -0.0484 -0.1491
 1541POSM   C4B18085  22.001   0.505  14.011 -0.3261 -0.1181  0.1141
 1542DOPC   NC318086  19.292   4.060  12.174 -0.0685  0.2162 -0.1262
 1542DOPC   PO418087  19.619   4.267  12.354 -0.0935  0.2114  0.0995
 1542DOPC   GL118088  19.634   4.176  12.657 -0.0438  0.0183 -0.1810
 1542DOPC   GL218089  19.603   3.944  12.770 -0.0177 -0.3699 -0.2093
 1542DOPC   C1A18090  20.033   4.178  12.902 -0.0913 -0.1005 -0.2764
 1542DOPC   D2A18091  20.019   4.267  13.411  0.0856  0.4441 -0.2340
 1542DOPC   C3A18092  19.841   4.675  13.563 -0.1942 -0.3343  0.1644
 1542DOPC   C4A18093  19.639   4.967  13.766  0.3535  0.0357  0.2150
 1542DOPC   C1B18094  19.590   4.060  13.174  0.4289  0.1145  0.0770
 1542DOPC   D2B18095  19.527   4.180  13.646  0.3281  0.0818  0.1305
 1542DOPC   C3B18096  19.881   4.236  13.965 -0.1638  0.3578 -0.0192
 1542DOPC   C4B18097  20.186   4.343  14.262 -0.0666 -0.0002 -0.0281
 1543DOPC   NC318098  15.286   5.633  12.343 -0.0970  0.1600  0.1634
 1543DOPC   PO418099  14.972   5.847  12.504  0.3196  0.0001  0.2241
 1543DOPC   GL118100  15.029   5.643  12.805 -0.0514 -0.1379 -0.3188
 1543DOPC   GL218101  15.091   5.376  12.724 -0.1197  0.1812  0.3132
 1543DOPC   C1A18102  14.911   5.583  13.218 -0.1724  0.1566  0.3451
 1543DOPC   D2A18103  14.652   5.405  13.499  0.0932 -0.0082  0.1294
 1543DOPC   C3A18104  14.748   5.035  13.802  0.3174 -0.0055 -0.0372
 1543DOPC   C4A18105  15.009   4.662  13.851  0.1334 -0.1615  0.0491
 1543DOPC   C1B18106  15.488   5.533  13.061  0.0065 -0.3427  0.2618
 1543DOPC   D2B18107  15.889   5.451  13.147 -0.1816  0.3158  0.2704
 1543DOPC   C3B18108  16.150   5.557  13.478 -0.0149 -0.1006 -0.1267
 1543DOPC   C4B18109  16.085   5.952  13.818 -0.1384  0.2543 -0.1605
 1544DOPE   NH318110  19.408  10.800  12.332  0.3160  0.1430 -0.0475
 1544DOPE   PO418111  19.459  11.020  12.126 -0.0963  0.2334 -0.0115
 1544DOPE   GL118112  19.728  10.996  11.858 -0.1480 -0.3233 -0.0468
 1544DOPE   GL218113  19.985  10.811  11.997  0.1741  0.1063  0.0976
 1544DOPE   C1A18114  20.057  11.289  11.687 -0.0587 -0.0826  0.1758
 1544DOPE   D2A18115  20.372  11.659  11.805  0.0870  0.1187 -0.3567
 1544DOPE   C3A18116  20.388  11.861  12.269 -0.0723  0.1294  0.0580
 1544DOPE   C4A18117  20.453  11.978  12.724  0.0674 -0.0086  0.1390
 1544DOPE   C1B18118  20.332  10.496  11.864 -0.2127 -0.3579 -0.1658
 1544DOPE   D2B18119  20.661  10.360  12.157 -0.1420  0.1827  0.0892
 1544DOPE   C3B18120  20.964  10.162  12.503  0.3450  0.3194  0.1955
 1544DOPE   C4B18121  21.166   9.719  12.514  0.0834 -0.0584  0.1480
 1545POSM   NC318122  22.131  10.883  11.661 -0.3805  0.0403  0.0716
 1545POSM   PO418123  22.416  10.842  11.907  0.1201  0.0532  0.0101
 1545POSM   AM118124  22.283  10.862  12.219 -0.1144  0.5297 -0.2070
 1545POSM   AM218125  22.351  10.974  12.459  0.1335 -0.0305  0.1490
 1545POSM   T1A18126  21.914  10.776  12.560  0.5199  0.1621 -0.0744
 1545POSM   C2A18127  21.643  10.511  12.820  0.0374  0.1258 -0.0207
 1545POSM   C3A18128  21.172  10.541  12.858 -0.0318 -0.0019 -0.3263
 1545POSM   C1B18129  22.234  11.011  12.802  0.0608  0.1252  0.0355
 1545POSM   D2B18130  22.096  10.861  13.259  0.0905 -0.1104  0.1741
 1545POSM   C3B18131  22.238  10.923  13.716 -0.3270  0.1366  0.2505
 1545POSM   C4B18132  22.324  11.009  14.159 -0.1643  0.1374  0.0804
 1546DOPE   NH318133  18.612   5.167  11.889 -0.1249 -0.2564 -0.1714
 1546DOPE   PO418134  18.555   5.247  12.175 -0.3609 -0.2391 -0.1742
 1546DOPE   GL118135  18.401   5.547  12.015 -0.1213  0.1728 -0.3068
 1546DOPE   GL218136  18.062   5.437  12.164  0.0951 -0.1673  0.0221
 1546DOPE   C1A18137  18.142   5.943  12.100 -0.1528  0.0299  0.1987
 1546DOPE   D2A18138  18.003   6.190  12.437 -0.0393 -0.1486 -0.5216
 1546DOPE   C3A18139  17.711   6.158  12.764  0.1727  0.1516  0.0831
 1546DOPE   C4A18140  17.395   6.387  13.088  0.0107  0.0618  0.0912
 1546DOPE   C1B18141  17.820   5.674  12.528  0.0612 -0.1270  0.0720
 1546DOPE   D2B18142  17.357   5.808  12.665 -0.0762  0.1487  0.1335
 1546DOPE   C3B18143  17.396   5.915  13.171  0.1768  0.1370 -0.0297
 1546DOPE   C4B18144  17.256   6.140  13.595 -0.0691  0.0658  0.1459
 1547DOPC   NC318145  19.407   5.214  12.066  0.0752  0.3021 -0.2105
 1547DOPC   PO418146  19.029   5.240  12.163  0.0628 -0.3132  0.0919
 1547DOPC   GL118147  18.940   5.316  12.449 -0.2358  0.3701 -0.0464
 1547DOPC   GL218148  18.846   5.081  12.615  0.1559 -0.2502  0.0202
 1547DOPC   C1A18149  19.054   5.547  12.867 -0.1109  0.0157  0.0084
 1547DOPC   D2A18150  19.244   5.922  13.000 -0.0808  0.1099 -0.0148
 1547DOPC   C3A18151  19.279   5.856  13.481 -0.0404 -0.0270 -0.0940
 1547DOPC   C4A18152  19.565   5.534  13.639 -0.2888 -0.1429 -0.1686
 1547DOPC   C1B18153  18.817   5.112  13.035 -0.0407  0.2864  0.0845
 1547DOPC   D2B18154  18.904   4.891  13.373  0.2918  0.0596 -0.1152
 1547DOPC   C3B18155  19.140   5.119  13.710 -0.2036 -0.0088 -0.0729
 1547DOPC   C4B18156  19.404   5.288  14.114  0.0269 -0.0996  0.1372
 1548DOPS   CNO18157  13.220  34.660  11.875 -0.1106  0.1872 -0.0738
 1548DOPS   PO418158  13.074  34.953  12.047  0.0812 -0.0336 -0.0060
 1548DOPS   GL118159  13.124  35.259  12.303  0.0385 -0.1837  0.2915
 1548DOPS   GL218160  13.404  35.389  12.382 -0.1257  0.2361  0.1651
 1548DOPS   C1A18161  13.053  35.675  12.054  0.0831 -0.0643  0.0609
 1548DOPS   D2A18162  13.041  36.131  12.150 -0.1655  0.3307 -0.0832
 1548DOPS   C3A18163  12.950  36.617  12.141  0.2312  0.2211  0.1031
 1548DOPS   C4A18164  12.637  36.978  12.207 -0.0843 -0.1415 -0.0302
 1548DOPS   C1B18165  13.473  35.482  12.813 -0.2899  0.0060  0.2459
 1548DOPS   D2B18166  13.513  35.619  13.243  0.2423  0.0003 -0.0862
 1548DOPS   C3B18167  13.665  35.438  13.655 -0.0749 -0.1213 -0.2252
 1548DOPS   C4B18168  13.690  35.243  14.060 -0.0851 -0.0627  0.0820
 1549DOPE   NH318169  15.493   9.529  11.865 -0.1153  0.0865  0.0717
 1549DOPE   PO418170  15.661   9.449  12.086  0.0279  0.0827 -0.0893
 1549DOPE   GL118171  15.521   9.366  12.348  0.1252 -0.0310 -0.4016
 1549DOPE   GL218172  15.612   9.253  12.543  0.2484  0.1653  0.0238
 1549DOPE   C1A18173  15.253   9.426  12.782 -0.0711  0.4359 -0.0361
 1549DOPE   D2A18174  14.847   9.664  12.810  0.0514 -0.2583 -0.3413
 1549DOPE   C3A18175  14.634   9.776  13.218 -0.1406  0.1470 -0.1996
 1549DOPE   C4A18176  14.623   9.644  13.698  0.3988  0.2772  0.0556
 1549DOPE   C1B18177  15.883   9.077  12.856  0.1583  0.0572 -0.0024
 1549DOPE   D2B18178  15.808   8.893  13.295 -0.2182  0.0676 -0.2332
 1549DOPE   C3B18179  15.521   8.550  13.464 -0.1737 -0.0673  0.0853
 1549DOPE   C4B18180  15.466   8.415  13.923 -0.1987  0.0074 -0.0676
 1550DOPE   NH318181  14.315   5.104  12.424 -0.0811  0.4783 -0.1174
 1550DOPE   PO418182  14.583   4.985  12.272  0.0674 -0.0875  0.1487
 1550DOPE   GL118183  14.769   4.887  12.555  0.0511  0.4506  0.1886
 1550DOPE   GL218184  14.557   4.767  12.722  0.2473  0.0705  0.0731
 1550DOPE   C1A18185  15.037   4.630  12.839 -0.1575 -0.0252 -0.2706
 1550DOPE   D2A18186  15.102   4.730  13.275 -0.0677  0.3224  0.0769
 1550DOPE   C3A18187  15.158   5.183  13.411 -0.1404  0.1155  0.1074
 1550DOPE   C4A18188  15.140   5.393  13.804 -0.0207 -0.1125  0.1254
 1550DOPE   C1B18189  14.579   4.330  12.833  0.2642 -0.2331 -0.0646
 1550DOPE   D2B18190  14.387   4.035  13.114 -0.1668 -0.2700  0.2060
 1550DOPE   C3B18191  14.194   3.694  12.944 -0.1407 -0.0060  0.1301
 1550DOPE   C4B18192  14.345   3.402  12.650  0.1642  0.1950 -0.0292
 1551DOPS   CNO18193  22.761  11.362  11.693 -0.1807  0.2279 -0.1270
 1551DOPS   PO418194  22.815  11.572  12.005 -0.2803 -0.0707 -0.0313
 1551DOPS   GL118195  22.657  11.530  12.355  0.1424 -0.0708  0.2880
 1551DOPS   GL218196  22.739  11.397  12.549  0.0576  0.0789  0.4217
 1551DOPS   C1A18197  22.320  11.530  12.727  0.0536  0.0945 -0.0575
 1551DOPS   D2A18198  22.133  11.537  13.139  0.3787  0.2673 -0.0800
 1551DOPS   C3A18199  22.321  11.616  13.516 -0.1484 -0.0806 -0.1638
 1551DOPS   C4A18200  22.386  12.040  13.712  0.0321  0.1040  0.2547
 1551DOPS   C1B18201  22.721  11.191  12.893  0.1199 -0.0192 -0.1878
 1551DOPS   D2B18202  22.560  11.101  13.263  0.1811  0.0850  0.0253
 1551DOPS   C3B18203  22.636  11.256  13.679  0.0931 -0.2306  0.1054
 1551DOPS   C4B18204  22.860  11.334  14.067  0.0807 -0.1876 -0.4039
 1552DOPE   NH318205  22.788   2.290  12.506  0.5256  0.4935  0.1302
 1552DOPE   PO418206  22.902   2.564  12.644 -0.2720  0.0243 -0.0914
 1552DOPE   GL118207  22.871   2.311  13.044 -0.4850 -0.1057  0.2593
 1552DOPE   GL218208  22.793   2.109  13.011 -0.1439 -0.0418 -0.2499
 1552DOPE   C1A18209  22.752   2.503  13.422 -0.1420 -0.1056 -0.0276
 1552DOPE   D2A18210  22.418   2.867  13.357 -0.1926  0.0511 -0.0092
 1552DOPE   C3A18211  21.976   2.865  13.265  0.1012 -0.1831 -0.1549
 1552DOPE   C4A18212  21.674   3.054  13.470 -0.0105  0.0919  0.3580
 1552DOPE   C1B18213  22.967   1.724  13.111 -0.1254  0.1329  0.4578
 1552DOPE   D2B18214  23.212   1.404  13.260 -0.0295  0.0361 -0.3274
 1552DOPE   C3B18215  23.627   1.361  13.507 -0.2950 -0.2826 -0.0222
 1552DOPE   C4B18216  23.803   1.023  13.851 -0.1707 -0.3284  0.2934
 1553DOPS   CNO18217  15.324   0.015  12.104 -0.0611  0.0426 -0.2756
 1553DOPS   PO418218  15.678  -0.000  12.203 -0.1738  0.2216  0.0654
 1553DOPS   GL118219  15.937   0.179  12.308  0.0966 -0.1082  0.0419
 1553DOPS   GL218220  16.245   0.093  12.422  0.0347  0.0096  0.0683
 1553DOPS   C1A18221  16.283   0.553  12.278  0.0225 -0.0836 -0.1316
 1553DOPS   D2A18222  16.239   0.874  11.924  0.0327  0.3677 -0.1158
 1553DOPS   C3A18223  16.351   1.323  11.851  0.3184  0.0896  0.0029
 1553DOPS   C4A18224  16.182   1.757  11.896  0.1971 -0.2707 -0.1369
 1553DOPS   C1B18225  16.641   0.241  12.489  0.1674  0.0990 -0.1587
 1553DOPS   D2B18226  17.018   0.305  12.797 -0.0254  0.2112 -0.1720
 1553DOPS   C3B18227  17.460   0.320  12.773  0.0856 -0.3557  0.6311
 1553DOPS   C4B18228  17.777   0.163  12.898  0.2406 -0.0705  0.3110
 1554DOPS   CNO18229  21.912   0.250  12.117  0.2860  0.1649  0.0227
 1554DOPS   PO418230  22.242   0.345  12.027 -0.1112  0.2713  0.1340
 1554DOPS   GL118231  22.507   0.506  12.333  0.3339  0.0365 -0.0337
 1554DOPS   GL218232  22.692   0.705  12.265  0.0585 -0.0084  0.1839
 1554DOPS   C1A18233  22.572   0.491  12.787  0.4062  0.2013  0.3098
 1554DOPS   D2A18234  22.934   0.450  13.051 -0.0365 -0.2707  0.0885
 1554DOPS   C3A18235  23.210   0.847  13.181 -0.1060 -0.0057  0.2724
 1554DOPS   C4A18236  23.358   0.876  13.629 -0.0456 -0.1462 -0.1521
 1554DOPS   C1B18237  22.422   0.999  12.512  0.1018 -0.5620 -0.0369
 1554DOPS   D2B18238  22.151   0.957  12.904  0.0348 -0.1244  0.1803
 1554DOPS   C3B18239  22.263   0.881  13.346  0.1563 -0.1011 -0.0751
 1554DOPS   C4B18240  22.474   0.887  13.783 -0.1710  0.0500  0.1680
 1555DOPC   NC318241  15.962   1.751  12.505  0.2152  0.0125  0.2706
 1555DOPC   PO418242  15.633   1.601  12.308  0.2358  0.0839  0.1598
 1555DOPC   GL118243  15.542   1.408  12.635 -0.1520  0.0363  0.2123
 1555DOPC   GL218244  15.545   1.579  12.908  0.1318 -0.3755  0.5697
 1555DOPC   C1A18245  15.543   0.976  12.698 -0.4060 -0.4137 -0.1659
 1555DOPC   D2A18246  15.662   0.896  13.064 -0.2086  0.1862  0.1176
 1555DOPC   C3A18247  15.387   1.227  13.219 -0.0326 -0.0481  0.2254
 1555DOPC   C4A18248  15.030   1.134  13.504 -0.0255  0.1951  0.0972
 1555DOPC   C1B18249  15.582   1.934  13.255 -0.1950 -0.0807 -0.3840
 1555DOPC   D2B18250  15.612   2.337  13.489 -0.1073 -0.1026  0.1568
 1555DOPC   C3B18251  15.312   2.563  13.801  0.1246  0.2260 -0.1605
 1555DOPC   C4B18252  15.298   2.577  14.279  0.1375  0.1472  0.1144
 1556DOPC   NC318253  23.201   6.594  11.975 -0.1529  0.0134 -0.0335
 1556DOPC   PO418254  22.949   6.880  12.018 -0.0148 -0.0474  0.2300
 1556DOPC   GL118255  22.596   6.809  12.157 -0.2286 -0.1201 -0.5120
 1556DOPC   GL218256  22.503   7.093  12.110  0.3758  0.1574 -0.1034
 1556DOPC   C1A18257  22.201   6.632  12.082 -0.1436  0.1196 -0.1615
 1556DOPC   D2A18258  21.777   6.593  12.320 -0.0136  0.1664  0.1277
 1556DOPC   C3A18259  21.529   6.857  12.608  0.0322 -0.1784  0.0171
 1556DOPC   C4A18260  21.189   6.964  12.920  0.0541 -0.0716  0.2953
 1556DOPC   C1B18261  21.976   7.048  12.153  0.1942  0.0342  0.0548
 1556DOPC   D2B18262  21.511   7.026  12.089 -0.1159 -0.0013  0.2962
 1556DOPC   C3B18263  21.301   7.336  12.378  0.1219 -0.0183  0.1769
 1556DOPC   C4B18264  21.173   7.788  12.590 -0.1966  0.0985 -0.1989
 1557DOPE   NH318265  17.353   3.283  12.193  0.1756  0.0190 -0.2214
 1557DOPE   PO418266  17.493   3.547  12.259 -0.2907 -0.0979 -0.2288
 1557DOPE   GL118267  17.649   3.395  12.576 -0.1944 -0.0257  0.3658
 1557DOPE   GL218268  17.696   3.530  12.849 -0.1799  0.2229  0.1707
 1557DOPE   C1A18269  17.845   3.080  12.791 -0.1933  0.3913  0.0192
 1557DOPE   D2A18270  18.124   2.802  13.018 -0.1584  0.0008 -0.0443
 1557DOPE   C3A18271  18.337   3.025  13.321  0.0899 -0.0428 -0.2267
 1557DOPE   C4A18272  18.146   3.301  13.643  0.0315 -0.1216  0.2938
 1557DOPE   C1B18273  17.827   3.854  13.157  0.1267  0.0189 -0.1984
 1557DOPE   D2B18274  17.792   3.876  13.618  0.0031 -0.3671 -0.1162
 1557DOPE   C3B18275  17.411   3.846  13.765 -0.1559 -0.0013 -0.0709
 1557DOPE   C4B18276  17.159   3.537  13.993 -0.0486  0.0450  0.0326
 1558DOPC   NC318277  21.293  10.969  11.674  0.5518 -0.0957  0.0333
 1558DOPC   PO418278  21.643  11.156  11.657 -0.0618  0.3145 -0.0270
 1558DOPC   GL118279  21.524  11.332  11.987  0.2175 -0.0677 -0.1234
 1558DOPC   GL218280  21.389  11.066  12.176  0.2663 -0.0783 -0.2524
 1558DOPC   C1A18281  21.247  11.614  12.225 -0.0663 -0.1957 -0.1775
 1558DOPC   D2A18282  20.864  11.585  12.435  0.1256 -0.0721  0.3096
 1558DOPC   C3A18283  20.826  11.741  12.897  0.0016 -0.1002  0.0968
 1558DOPC   C4A18284  20.483  11.648  13.180 -0.1986  0.0037  0.2970
 1558DOPC   C1B18285  21.450  10.886  12.604  0.1380  0.2763 -0.0572
 1558DOPC   D2B18286  21.565  10.980  12.956  0.2766 -0.1336  0.1057
 1558DOPC   C3B18287  21.536  10.723  13.325  0.1546  0.2555  0.1893
 1558DOPC   C4B18288  21.630  10.358  13.645  0.0903 -0.1521  0.3265
 1559POSM   NC318289  16.543   3.523  12.045 -0.2631  0.0424 -0.0861
 1559POSM   PO418290  16.301   3.292  12.169  0.0170 -0.1054 -0.1304
 1559POSM   AM118291  16.359   3.238  12.501 -0.0398  0.0707 -0.1160
 1559POSM   AM218292  16.549   3.031  12.682  0.2205 -0.2354 -0.1357
 1559POSM   T1A18293  16.111   3.332  12.909  0.1668 -0.0319  0.4034
 1559POSM   C2A18294  15.890   3.679  13.146  0.1146 -0.1721  0.0753
 1559POSM   C3A18295  15.462   3.937  13.158 -0.0373  0.0609  0.1390
 1559POSM   C1B18296  16.685   2.710  12.723  0.1357  0.1083  0.1406
 1559POSM   D2B18297  16.937   2.326  12.687 -0.1210 -0.1089  0.0422
 1559POSM   C3B18298  17.051   1.999  12.414  0.1031  0.3178  0.0915
 1559POSM   C4B18299  17.406   1.787  12.603  0.1192 -0.0559 -0.3152
 1560DOPC   NC318300  14.872   9.847  11.820  0.3196 -0.2343  0.0693
 1560DOPC   PO418301  14.980   9.424  11.784 -0.2724  0.0236  0.1851
 1560DOPC   GL118302  14.826   9.116  11.945  0.1156  0.0293  0.1624
 1560DOPC   GL218303  14.540   9.213  12.082  0.0001 -0.0837  0.0219
 1560DOPC   C1A18304  14.642   8.701  11.928  0.1709 -0.3740 -0.1230
 1560DOPC   D2A18305  14.404   8.337  11.998  0.0986 -0.0525  0.1075
 1560DOPC   C3A18306  13.925   8.326  12.022  0.1329  0.1825  0.3186
 1560DOPC   C4A18307  13.546   8.104  12.094 -0.1039  0.6761  0.1676
 1560DOPC   C1B18308  14.257   8.927  12.218 -0.2317 -0.1953 -0.0247
 1560DOPC   D2B18309  14.090   8.740  12.602  0.3713  0.0401  0.3051
 1560DOPC   C3B18310  14.149   8.733  13.041  0.2183  0.1014 -0.1862
 1560DOPC   C4B18311  14.100   8.761  13.527  0.1797  0.1014 -0.0399
 1561DOPC   NC318312  18.277   8.748  12.489 -0.0521  0.1701 -0.0106
 1561DOPC   PO418313  18.157   8.997  12.798 -0.0949  0.3797  0.0743
 1561DOPC   GL118314  18.453   8.856  13.045  0.0573 -0.1639 -0.0336
 1561DOPC   GL218315  18.572   8.643  12.925 -0.3523  0.2137  0.0491
 1561DOPC   C1A18316  18.509   8.667  13.520  0.1037  0.0212 -0.1659
 1561DOPC   D2A18317  18.769   8.649  13.903 -0.1919  0.1178  0.0463
 1561DOPC   C3A18318  19.208   8.476  13.963 -0.3150  0.0553 -0.2027
 1561DOPC   C4A18319  19.583   8.373  13.776  0.3238  0.0331  0.2827
 1561DOPC   C1B18320  18.677   8.334  13.221 -0.0477 -0.0460 -0.0698
 1561DOPC   D2B18321  18.778   8.208  13.639  0.1318  0.1618 -0.1119
 1561DOPC   C3B18322  19.022   7.904  13.896  0.6201  0.0335  0.1394
 1561DOPC   C4B18323  18.953   7.645  14.264  0.2395 -0.0472 -0.1718
 1562DOPE   NH318324  15.021   9.439  12.275 -0.0809  0.2813 -0.2134
 1562DOPE   PO418325  15.187   9.697  12.171 -0.0698  0.0087 -0.4918
 1562DOPE   GL118326  15.403   9.799  12.525 -0.2622 -0.1018  0.1086
 1562DOPE   GL218327  15.251  10.097  12.467 -0.1421 -0.1547 -0.2162
 1562DOPE   C1A18328  15.425   9.927  12.944 -0.0605  0.3114  0.2845
 1562DOPE   D2A18329  15.265   9.673  13.303 -0.0171  0.3219 -0.3293
 1562DOPE   C3A18330  14.910   9.348  13.225 -0.1100 -0.2288 -0.0268
 1562DOPE   C4A18331  14.628   8.976  13.363  0.0035  0.1531 -0.0976
 1562DOPE   C1B18332  14.854  10.131  12.669 -0.2935  0.1729 -0.0033
 1562DOPE   D2B18333  14.460  10.044  12.726 -0.0952 -0.4582 -0.1983
 1562DOPE   C3B18334  14.419  10.218  13.171 -0.0191 -0.1224  0.0970
 1562DOPE   C4B18335  14.168  10.313  13.520 -0.2079  0.1359 -0.0506
 1563DOPE   NH318336  12.637  10.860  11.886 -0.1536  0.1679 -0.0835
 1563DOPE   PO418337  12.864  10.668  11.762 -0.0193 -0.0797 -0.1045
 1563DOPE   GL118338  12.962  10.743  12.206 -0.3278  0.3527 -0.1509
 1563DOPE   GL218339  12.892  11.057  12.360  0.1606 -0.1639  0.3909
 1563DOPE   C1A18340  13.405  10.960  12.383 -0.1360  0.1728 -0.0657
 1563DOPE   D2A18341  13.837  10.825  12.510 -0.2260  0.1607 -0.0777
 1563DOPE   C3A18342  14.057  10.959  12.887 -0.2447 -0.5111  0.1602
 1563DOPE   C4A18343  14.137  11.086  13.301  0.1252  0.1448  0.1963
 1563DOPE   C1B18344  12.896  11.108  12.810 -0.3739 -0.0354  0.2493
 1563DOPE   D2B18345  13.060  11.317  13.229  0.1883  0.0381  0.1768
 1563DOPE   C3B18346  13.401  11.593  13.321  0.3252  0.1963 -0.2450
 1563DOPE   C4B18347  13.911  11.569  13.402  0.0298  0.5313  0.0977
 1564DOPC   NC318348  11.362   7.226  12.299  0.1418 -0.0522  0.3398
 1564DOPC   PO418349  11.108   6.975  12.441 -0.0708 -0.3393  0.2690
 1564DOPC   GL118350  11.162   7.018  12.827 -0.3022  0.1920  0.2052
 1564DOPC   GL218351  10.924   7.093  12.943 -0.0041 -0.1905  0.3399
 1564DOPC   C1A18352  11.451   7.155  13.197 -0.1435  0.2328 -0.2542
 1564DOPC   D2A18353  11.664   7.399  13.524  0.0104 -0.1292  0.0051
 1564DOPC   C3A18354  11.859   7.116  13.857 -0.0178 -0.0541  0.4206
 1564DOPC   C4A18355  12.228   7.015  14.095 -0.0077 -0.1407 -0.3624
 1564DOPC   C1B18356  10.878   6.967  13.362 -0.1610  0.1808 -0.1640
 1564DOPC   D2B18357  10.766   6.724  13.738 -0.0355 -0.1578 -0.3629
 1564DOPC   C3B18358  11.033   6.866  14.060  0.0361 -0.1780  0.0355
 1564DOPC   C4B18359  11.306   6.809  14.487  0.1547 -0.0491  0.1000
 1565DOPE   NH318360  22.674   5.769  12.041  0.0112 -0.0312 -0.0138
 1565DOPE   PO418361  22.479   6.028  11.910 -0.1606  0.2591 -0.1490
 1565DOPE   GL118362  22.360   6.065  12.310  0.2344 -0.1905 -0.0487
 1565DOPE   GL218363  22.323   5.812  12.473 -0.2767  0.2434  0.3287
 1565DOPE   C1A18364  22.101   6.347  12.593  0.0710  0.1314 -0.1162
 1565DOPE   D2A18365  21.739   6.486  12.861  0.0449 -0.1153 -0.1848
 1565DOPE   C3A18366  21.666   6.122  13.151  0.0185 -0.0649 -0.1231
 1565DOPE   C4A18367  21.451   5.780  13.439 -0.3210  0.0686 -0.2161
 1565DOPE   C1B18368  21.877   5.870  12.504  0.0592 -0.0380 -0.0422
 1565DOPE   D2B18369  21.433   6.049  12.474  0.1738  0.2899 -0.0851
 1565DOPE   C3B18370  21.181   6.367  12.223 -0.1538  0.3284 -0.0039
 1565DOPE   C4B18371  20.863   6.456  11.879  0.1379 -0.2111 -0.0601
 1566DOPS   CNO18372  18.208  10.626  12.071 -0.3385  0.2174  0.0621
 1566DOPS   PO418373  18.554  10.876  11.973  0.1499  0.0086 -0.1126
 1566DOPS   GL118374  18.552  10.772  12.421 -0.2357  0.2672  0.3402
 1566DOPS   GL218375  18.452  11.049  12.420  0.0657  0.0689  0.2763
 1566DOPS   C1A18376  18.325  10.588  12.798  0.3025 -0.1393 -0.1551
 1566DOPS   D2A18377  18.182  10.193  12.995 -0.1987  0.2142 -0.0352
 1566DOPS   C3A18378  17.900  10.189  13.335  0.3532  0.2503  0.0389
 1566DOPS   C4A18379  17.900  10.133  13.824  0.0952 -0.1383  0.0589
 1566DOPS   C1B18380  18.042  10.815  12.512 -0.5690  0.0668  0.1040
 1566DOPS   D2B18381  17.726  10.594  12.746 -0.1385 -0.1016  0.1483
 1566DOPS   C3B18382  17.999  10.633  13.143  0.1229  0.1292 -0.4936
 1566DOPS   C4B18383  18.405  10.753  13.309  0.1779 -0.3344  0.3393
 1567DOPC   NC318384  14.699  10.379  11.776 -0.0936 -0.0082  0.0423
 1567DOPC   PO418385  14.876  10.701  11.941 -0.0636 -0.0307  0.1445
 1567DOPC   GL118386  15.086  10.605  12.321  0.0861  0.3640  0.2057
 1567DOPC   GL218387  14.861  10.533  12.405 -0.2178 -0.1557  0.0671
 1567DOPC   C1A18388  15.136  10.761  12.736  0.0367  0.0196 -0.0964
 1567DOPC   D2A18389  15.192  10.963  13.124 -0.1291  0.0164  0.0234
 1567DOPC   C3A18390  15.108  10.534  13.241  0.0921  0.1288 -0.1544
 1567DOPC   C4A18391  14.980  10.120  13.312 -0.0220 -0.0021 -0.2236
 1567DOPC   C1B18392  14.729  10.989  12.483 -0.0510 -0.4159 -0.2605
 1567DOPC   D2B18393  14.408  11.352  12.657  0.1319 -0.1116 -0.0726
 1567DOPC   C3B18394  14.452  11.483  13.097  0.0996 -0.0181  0.3339
 1567DOPC   C4B18395  14.406  11.672  13.536  0.3338 -0.0741  0.4116
 1568POSM   NC318396  19.754   6.672  12.111  0.2091 -0.1249 -0.0219
 1568POSM   PO418397  19.704   6.740  12.518 -0.0710  0.0208 -0.0681
 1568POSM   AM118398  19.664   6.704  12.848  0.2432  0.0080  0.3281
 1568POSM   AM218399  19.822   6.637  13.115 -0.2111 -0.2314 -0.1472
 1568POSM   T1A18400  19.494   6.934  13.247  0.2578  0.3159 -0.0121
 1568POSM   C2A18401  19.322   7.302  13.501 -0.0069  0.2398  0.0505
 1568POSM   C3A18402  19.442   7.468  13.855  0.0912 -0.0357 -0.2654
 1568POSM   C1B18403  20.065   6.735  13.296  0.0186  0.0356  0.1872
 1568POSM   D2B18404  20.410   6.750  13.594 -0.4299 -0.1659  0.1126
 1568POSM   C3B18405  20.712   6.365  13.531  0.0779 -0.4510 -0.0646
 1568POSM   C4B18406  21.139   6.187  13.430  0.0316  0.1359 -0.2517
 1569DOPC   NC318407  13.882   7.675  12.140 -0.1718  0.1208 -0.0467
 1569DOPC   PO418408  13.672   7.341  12.195  0.2176  0.0343  0.3197
 1569DOPC   GL118409  13.509   7.059  12.375 -0.1905  0.0144  0.1797
 1569DOPC   GL218410  13.470   6.740  12.194 -0.2728 -0.2839  0.3811
 1569DOPC   C1A18411  13.334   6.929  12.775 -0.1762 -0.1080 -0.0936
 1569DOPC   D2A18412  12.899   6.830  12.803 -0.0270 -0.1941 -0.1295
 1569DOPC   C3A18413  12.553   6.988  12.602  0.1261  0.0258 -0.1755
 1569DOPC   C4A18414  12.325   6.890  12.183  0.3212 -0.0591  0.0494
 1569DOPC   C1B18415  13.352   6.346  12.348 -0.0276 -0.2047 -0.2777
 1569DOPC   D2B18416  13.169   6.203  12.806 -0.0232  0.0903 -0.3185
 1569DOPC   C3B18417  13.291   5.861  13.078 -0.2249 -0.3563 -0.0850
 1569DOPC   C4B18418  13.508   5.518  13.339 -0.0515 -0.1233  0.0414
 1570POSM   NC318419  17.310   7.351  12.335  0.3611  0.1859  0.1608
 1570POSM   PO418420  17.041   7.667  12.165 -0.0544 -0.0794 -0.2330
 1570POSM   AM118421  17.022   7.860  12.456 -0.2907  0.4764  0.1563
 1570POSM   AM218422  17.187   7.775  12.656 -0.3055  0.0989  0.0027
 1570POSM   T1A18423  16.776   7.976  12.876  0.1668  0.0405 -0.0330
 1570POSM   C2A18424  16.438   8.026  13.226 -0.0227  0.0234  0.0275
 1570POSM   C3A18425  16.254   7.813  13.592  0.2181 -0.0519 -0.1584
 1570POSM   C1B18426  17.308   7.646  12.875 -0.1614 -0.0613 -0.1522
 1570POSM   D2B18427  17.539   7.678  13.267  0.0305  0.2138  0.1673
 1570POSM   C3B18428  17.360   7.826  13.659 -0.0907 -0.2433 -0.1410
 1570POSM   C4B18429  17.486   7.777  14.120 -0.0637  0.4673 -0.1074
 1571DOPE   NH318430  14.691   6.796  12.209  0.2390  0.2268  0.6801
 1571DOPE   PO418431  14.443   6.672  12.352 -0.0578 -0.3145 -0.1209
 1571DOPE   GL118432  14.373   6.777  12.806 -0.0047  0.0011  0.1241
 1571DOPE   GL218433  14.331   6.455  12.820 -0.0720  0.1061 -0.2277
 1571DOPE   C1A18434  14.267   7.024  13.161 -0.2145  0.1980  0.3628
 1571DOPE   D2A18435  14.005   7.351  13.340 -0.2872 -0.1137 -0.1930
 1571DOPE   C3A18436  13.570   7.393  13.171  0.3328 -0.1374 -0.0270
 1571DOPE   C4A18437  13.263   7.708  13.124 -0.1784  0.1570 -0.1079
 1571DOPE   C1B18438  14.039   6.565  13.148 -0.2026  0.0821 -0.2074
 1571DOPE   D2B18439  14.043   6.741  13.521  0.0359 -0.0409  0.2602
 1571DOPE   C3B18440  14.255   7.062  13.788 -0.2174 -0.1723  0.1014
 1571DOPE   C4B18441  14.450   7.237  14.129  0.0794 -0.0167  0.0415
 1572DOPE   NH318442  20.121   6.577  12.721  0.2461  0.1311  0.1240
 1572DOPE   PO418443  20.290   6.587  12.461 -0.1797  0.1335 -0.1025
 1572DOPE   GL118444  20.633   6.624  12.734 -0.2468 -0.1390  0.0281
 1572DOPE   GL218445  20.568   6.493  12.986  0.1493  0.2019 -0.0555
 1572DOPE   C1A18446  21.009   6.355  12.714 -0.1062 -0.4549 -0.2579
 1572DOPE   D2A18447  21.225   6.060  12.970 -0.0724  0.3101 -0.0303
 1572DOPE   C3A18448  21.031   5.688  13.091 -0.1879  0.1732  0.0940
 1572DOPE   C4A18449  20.637   5.420  13.100 -0.0859  0.0819 -0.0820
 1572DOPE   C1B18450  20.972   6.607  13.138 -0.0205 -0.2388  0.0053
 1572DOPE   D2B18451  21.409   6.583  13.203 -0.0563  0.0895  0.0740
 1572DOPE   C3B18452  21.654   6.752  13.545  0.0465 -0.2836 -0.1093
 1572DOPE   C4B18453  22.121   7.000  13.608 -0.1278  0.2663 -0.0314
 1573DOPS   CNO18454  19.760  34.659  11.959 -0.0583 -0.0951 -0.0096
 1573DOPS   PO418455  19.454  34.668  12.220  0.0672  0.1492  0.0754
 1573DOPS   GL118456  19.214  34.485  12.369  0.4685 -0.1452  0.1942
 1573DOPS   GL218457  19.028  34.611  12.580 -0.0336  0.0316 -0.2519
 1573DOPS   C1A18458  19.240  34.029  12.588 -0.0636  0.0523  0.1313
 1573DOPS   D2A18459  19.477  33.663  12.745  0.3352  0.0295  0.1840
 1573DOPS   C3A18460  19.607  33.519  13.192 -0.1469 -0.1222  0.2279
 1573DOPS   C4A18461  19.728  33.253  13.576 -0.1129 -0.2480  0.4624
 1573DOPS   C1B18462  19.062  34.370  12.994  0.0359  0.0723  0.3016
 1573DOPS   D2B18463  18.980  34.182  13.448 -0.1792 -0.2939 -0.0895
 1573DOPS   C3B18464  19.328  33.913  13.578 -0.1525 -0.0110 -0.4164
 1573DOPS   C4B18465  19.770  33.753  13.725  0.1242  0.2216  0.3167
 1574DOPE   NH318466  12.887  34.572  12.288 -0.0800 -0.1739 -0.1028
 1574DOPE   PO418467  12.628  34.684  12.096  0.3315  0.1216  0.0396
 1574DOPE   GL118468  12.531  34.928  12.349 -0.0933 -0.4411  0.0260
 1574DOPE   GL218469  12.762  35.065  12.543 -0.2535  0.1501 -0.2900
 1574DOPE   C1A18470  12.574  35.387  12.192 -0.0432 -0.0660  0.3073
 1574DOPE   D2A18471  12.589  35.861  12.328 -0.3741  0.0138 -0.0744
 1574DOPE   C3A18472  12.676  35.919  12.826 -0.0324 -0.0711 -0.3718
 1574DOPE   C4A18473  13.050  36.033  13.052  0.1021 -0.0626 -0.4040
 1574DOPE   C1B18474  12.856  35.464  12.570 -0.3429  0.1758 -0.2499
 1574DOPE   D2B18475  13.138  35.810  12.507  0.2027  0.1219 -0.1695
 1574DOPE   C3B18476  12.937  36.262  12.599  0.2186 -0.0173 -0.1803
 1574DOPE   C4B18477  12.625  36.578  12.577  0.0384  0.1729  0.2784
 1575DOPE   NH318478  20.407   0.732  12.009 -0.1092 -0.0196 -0.1564
 1575DOPE   PO418479  20.605   0.779  12.285  0.2389 -0.0381 -0.3300
 1575DOPE   GL118480  20.550   0.838  12.661 -0.1007  0.2225  0.0651
 1575DOPE   GL218481  20.356   0.722  12.794 -0.0851  0.0716 -0.0988
 1575DOPE   C1A18482  20.701   0.790  13.164  0.2624 -0.1610 -0.0291
 1575DOPE   D2A18483  20.955   1.017  13.460  0.2045  0.0277  0.1010
 1575DOPE   C3A18484  21.352   0.948  13.696 -0.1977  0.2070 -0.0128
 1575DOPE   C4A18485  21.524   0.537  13.876 -0.0240 -0.0617  0.1844
 1575DOPE   C1B18486  20.267   0.971  13.203  0.4032  0.0233 -0.3034
 1575DOPE   D2B18487  20.422   1.397  13.341 -0.1848  0.0316 -0.0412
 1575DOPE   C3B18488  20.717   1.533  13.623 -0.0260  0.1087  0.0502
 1575DOPE   C4B18489  20.758   1.742  14.021 -0.1071 -0.0969  0.0330
 1576POSM   NC318490  22.809   8.890  12.083  0.1052  0.1930  0.0806
 1576POSM   PO418491  22.760   9.290  12.217 -0.1408 -0.0428 -0.3093
 1576POSM   AM118492  22.454   9.268  12.297 -0.1607  0.2328  0.7673
 1576POSM   AM218493  22.235   9.422  12.314  0.1201  0.0267 -0.1053
 1576POSM   T1A18494  22.009   9.044  12.477 -0.0673 -0.1534  0.1107
 1576POSM   C2A18495  21.655   9.035  12.694  0.0641 -0.0658 -0.1034
 1576POSM   C3A18496  21.394   9.172  13.051 -0.0689 -0.1853 -0.0928
 1576POSM   C1B18497  22.120   9.501  12.602  0.1444  0.0583 -0.2106
 1576POSM   D2B18498  21.788   9.553  12.954 -0.0384 -0.0995  0.1439
 1576POSM   C3B18499  22.074   9.833  13.132 -0.1826  0.0278  0.0682
 1576POSM   C4B18500  22.464  10.011  13.326  0.1430 -0.3208  0.2032
 1577DOPC   NC318501  23.654   8.892  11.823  0.2244  0.1699  0.0414
 1577DOPC   PO418502  23.286   8.739  11.845 -0.1607 -0.0481 -0.0596
 1577DOPC   GL118503  23.060   8.370  11.993 -0.0645 -0.1192  0.1391
 1577DOPC   GL218504  23.120   8.429  12.269  0.3035  0.0749  0.0898
 1577DOPC   C1A18505  22.558   8.347  12.032  0.2414  0.0325 -0.2980
 1577DOPC   D2A18506  22.122   8.431  11.783 -0.0736 -0.1039  0.1077
 1577DOPC   C3A18507  21.764   8.581  12.020 -0.0136 -0.1011  0.1843
 1577DOPC   C4A18508  21.656   8.563  12.479 -0.2531 -0.2193 -0.1013
 1577DOPC   C1B18509  22.753   8.620  12.458 -0.1020  0.2771 -0.0034
 1577DOPC   D2B18510  22.549   8.993  12.642 -0.0152  0.0352  0.0603
 1577DOPC   C3B18511  22.252   9.160  12.958  0.0872 -0.2340 -0.0692
 1577DOPC   C4B18512  22.021   9.112  13.327 -0.0297 -0.3697  0.2364
 1578DOPC   NC318513  15.798  34.176  12.274 -0.1969 -0.2093  0.0266
 1578DOPC   PO418514  16.159  34.288  12.335  0.0108  0.0611  0.4125
 1578DOPC   GL118515  15.966  34.357  12.652  0.0046  0.1664 -0.2190
 1578DOPC   GL218516  15.743  34.603  12.691  0.0584 -0.0941  0.1257
 1578DOPC   C1A18517  16.264  34.686  12.881  0.0595  0.7074 -0.1575
 1578DOPC   D2A18518  16.490  35.027  13.111  0.4151 -0.0258 -0.3358
 1578DOPC   C3A18519  16.916  35.095  13.307 -0.0768  0.2746  0.0850
 1578DOPC   C4A18520  17.267  35.213  13.673  0.1110 -0.3577  0.1137
 1578DOPC   C1B18521  15.717  34.593  13.119  0.1339 -0.0774 -0.3016
 1578DOPC   D2B18522  16.016  34.811  13.384  0.0665  0.3560  0.1038
 1578DOPC   C3B18523  16.140  34.653  13.811 -0.0644  0.1164 -0.1175
 1578DOPC   C4B18524  16.500  34.403  13.924 -0.0627  0.0483  0.0677
 1579DOPE   NH318525  15.138   0.521  12.643  0.1296 -0.2540  0.1781
 1579DOPE   PO418526  15.210   0.183  12.568  0.0849 -0.0610 -0.0247
 1579DOPE   GL118527  15.388   0.197  12.862 -0.1867  0.1727 -0.0963
 1579DOPE   GL218528  15.191   0.379  13.110 -0.2915 -0.2355 -0.0402
 1579DOPE   C1A18529  15.735   0.435  13.127  0.2216  0.1322 -0.0360
 1579DOPE   D2A18530  16.062   0.682  13.303  0.2759 -0.4729 -0.0818
 1579DOPE   C3A18531  16.133   1.063  13.553 -0.0820  0.0459  0.2942
 1579DOPE   C4A18532  16.060   1.473  13.799 -0.0464  0.0007  0.1857
 1579DOPE   C1B18533  15.356   0.664  13.392  0.2837  0.2335 -0.0542
 1579DOPE   D2B18534  15.461   0.939  13.765  0.0696 -0.5824  0.0336
 1579DOPE   C3B18535  15.298   1.143  14.219  0.2019  0.0022  0.1200
 1579DOPE   C4B18536  15.336   1.515  14.497 -0.1851  0.0385  0.1374
 1580DOPE   NH318537  19.677   3.228  12.228 -0.1980  0.2162  0.1351
 1580DOPE   PO418538  19.435   3.333  12.042 -0.1417  0.0248 -0.2263
 1580DOPE   GL118539  19.328   3.640  12.360 -0.0564  0.0775  0.1479
 1580DOPE   GL218540  19.438   3.528  12.616 -0.0386 -0.3035  0.0060
 1580DOPE   C1A18541  19.102   3.917  12.645 -0.0897  0.1635  0.1447
 1580DOPE   D2A18542  19.060   3.924  13.093  0.1136 -0.3282 -0.0882
 1580DOPE   C3A18543  19.270   3.731  13.446  0.1863 -0.1127  0.1915
 1580DOPE   C4A18544  19.286   3.449  13.797  0.1009 -0.1895 -0.1021
 1580DOPE   C1B18545  19.530   3.522  13.072  0.4699 -0.0030 -0.0172
 1580DOPE   D2B18546  19.811   3.676  13.432 -0.0246 -0.1848  0.0222
 1580DOPE   C3B18547  19.729   3.780  13.889  0.1042 -0.2060 -0.1104
 1580DOPE   C4B18548  19.540   3.572  14.289  0.0666  0.4458 -0.3800
 1581POSM   NC318549  18.414  34.644  11.731 -0.1301  0.1647 -0.0153
 1581POSM   PO418550  18.229  34.982  11.831 -0.1104  0.2399 -0.1065
 1581POSM   AM118551  18.025  35.164  12.027  0.3379 -0.2072 -0.0064
 1581POSM   AM218552  17.830  35.198  12.201  0.1384  0.2283 -0.2200
 1581POSM   T1A18553  17.922  35.654  12.041 -0.1861 -0.1630  0.0417
 1581POSM   C2A18554  18.086  36.057  12.265 -0.0578  0.0277  0.1406
 1581POSM   C3A18555  18.024  36.475  12.496 -0.0328  0.1740  0.3064
 1581POSM   C1B18556  17.683  35.430  12.440  0.1103  0.1980  0.2595
 1581POSM   D2B18557  17.350  35.635  12.707 -0.2382  0.1873  0.1724
 1581POSM   C3B18558  17.120  35.980  12.612 -0.1893 -0.0809  0.1252
 1581POSM   C4B18559  16.692  36.197  12.615 -0.0667 -0.1319  0.0779
 1582POSM   NC318560  19.488   4.603  12.017 -0.0309  0.3054 -0.1362
 1582POSM   PO418561  19.283   4.827  12.289 -0.4422 -0.3576  0.2269
 1582POSM   AM118562  19.349   4.597  12.474 -0.2383 -0.2418 -0.2480
 1582POSM   AM218563  19.200   4.379  12.607 -0.1289 -0.2892  0.0471
 1582POSM   T1A18564  19.530   4.500  12.919 -0.1535  0.1572 -0.1469
 1582POSM   C2A18565  19.944   4.701  13.093  0.0945 -0.3521 -0.1456
 1582POSM   C3A18566  20.422   4.607  13.154 -0.0477  0.0948  0.1655
 1582POSM   C1B18567  19.070   4.544  12.871  0.2160  0.0164 -0.1189
 1582POSM   D2B18568  19.042   4.390  13.320  0.2085  0.2093 -0.1854
 1582POSM   C3B18569  19.225   4.668  13.695  0.0935 -0.0124  0.1742
 1582POSM   C4B18570  19.213   4.739  14.107 -0.0851  0.0550 -0.2226
 1583POSM   NC318571  12.179   9.780  12.717 -0.4140 -0.1901  0.1310
 1583POSM   PO418572  12.166   9.942  12.379 -0.2063 -0.0146  0.1745
 1583POSM   AM118573  12.480   9.846  12.335 -0.0456  0.1055 -0.0375
 1583POSM   AM218574  12.605   9.614  12.372  0.2452  0.1770 -0.1347
 1583POSM   T1A18575  12.842   9.866  12.064 -0.3372  0.0532  0.2433
 1583POSM   C2A18576  13.159  10.122  11.863  0.3795  0.2622 -0.2223
 1583POSM   C3A18577  13.397  10.501  12.036  0.2058  0.1456 -0.1147
 1583POSM   C1B18578  12.750   9.650  12.687  0.0082 -0.1678 -0.0667
 1583POSM   D2B18579  12.911   9.583  13.093  0.1063 -0.1863 -0.1155
 1583POSM   C3B18580  13.095   9.961  13.360  0.0167 -0.4242 -0.0289
 1583POSM   C4B18581  13.234   9.997  13.805  0.3164  0.0544 -0.2886
 1584POSM   NC318582  20.102   3.996  11.872 -0.0478  0.0364 -0.2086
 1584POSM   PO418583  20.024   3.632  11.859  0.1768 -0.0274 -0.1804
 1584POSM   AM118584  20.316   3.614  12.055  0.0360  0.3762  0.1379
 1584POSM   AM218585  20.381   3.769  12.263 -0.0293 -0.2215  0.3950
 1584POSM   T1A18586  20.732   3.429  12.222 -0.1222  0.0864 -0.2883
 1584POSM   C2A18587  21.005   3.240  12.522 -0.0956 -0.1586 -0.1738
 1584POSM   C3A18588  21.011   3.052  12.916 -0.1839 -0.0275 -0.2964
 1584POSM   C1B18589  20.488   3.692  12.590 -0.0436  0.1987  0.3398
 1584POSM   D2B18590  20.620   3.444  12.904  0.0411 -0.0136  0.1193
 1584POSM   C3B18591  20.841   3.654  13.272  0.1340 -0.1219 -0.0904
 1584POSM   C4B18592  20.880   3.827  13.743  0.2177 -0.1264 -0.1850
 1585DOPC   NC318593  14.840   6.610  12.817 -0.0621 -0.2041  0.3350
 1585DOPC   PO418594  14.767   6.361  12.487 -0.2654  0.1985  0.1908
 1585DOPC   GL118595  14.781   6.184  12.832  0.3910 -0.1599 -0.3530
 1585DOPC   GL218596  15.029   6.049  13.026  0.0093 -0.3072  0.1939
 1585DOPC   C1A18597  14.720   6.346  13.295 -0.0845  0.0506  0.4225
 1585DOPC   D2A18598  14.970   6.289  13.692  0.0120  0.5667  0.0262
 1585DOPC   C3A18599  15.160   5.893  13.891  0.0506 -0.1575 -0.3944
 1585DOPC   C4A18600  15.134   5.669  14.313 -0.1384 -0.0770  0.2620
 1585DOPC   C1B18601  15.289   5.873  13.370 -0.0084  0.1958  0.2320
 1585DOPC   D2B18602  15.628   5.636  13.546  0.0874  0.0696 -0.4199
 1585DOPC   C3B18603  15.691   5.220  13.728  0.1098 -0.0652 -0.0685
 1585DOPC   C4B18604  15.841   5.070  14.141 -0.1446 -0.1186 -0.2224
 1586DOPC   NC318605  19.902   0.220  12.386 -0.0916  0.2362 -0.2532
 1586DOPC   PO418606  20.107   0.574  12.357 -0.2017  0.0290  0.1370
 1586DOPC   GL118607  19.958   0.925  12.482  0.1063 -0.0243 -0.4059
 1586DOPC   GL218608  20.223   1.110  12.450 -0.2187  0.1398 -0.0708
 1586DOPC   C1A18609  19.953   1.145  12.903 -0.5463  0.0623  0.1920
 1586DOPC   D2A18610  19.958   1.453  13.245 -0.0174  0.0938 -0.1224
 1586DOPC   C3A18611  19.792   1.495  13.704  0.1335 -0.1415  0.0148
 1586DOPC   C4A18612  19.409   1.539  13.977  0.2155  0.2593 -0.1218
 1586DOPC   C1B18613  20.470   1.280  12.826  0.1172 -0.0914  0.4032
 1586DOPC   D2B18614  20.718   1.687  13.068 -0.1056  0.1911  0.0610
 1586DOPC   C3B18615  21.199   1.605  13.078 -0.0059  0.0059  0.0552
 1586DOPC   C4B18616  21.608   1.837  13.099  0.1075 -0.1961 -0.0218
 1587DOPE   NH318617  19.343   6.468  12.276  0.0516 -0.4338 -0.0748
 1587DOPE   PO418618  19.268   6.811  12.262 -0.0859  0.1114 -0.0604
 1587DOPE   GL118619  19.256   6.758  12.659  0.4143 -0.1317  0.0332
 1587DOPE   GL218620  19.289   6.942  12.800 -0.0128  0.1104 -0.3386
 1587DOPE   C1A18621  19.318   6.423  12.944 -0.3536 -0.2469 -0.0489
 1587DOPE   D2A18622  19.523   6.338  13.400  0.0137  0.1850  0.1154
 1587DOPE   C3A18623  19.588   6.730  13.707 -0.0484 -0.3219  0.0063
 1587DOPE   C4A18624  19.861   7.113  13.572 -0.4518 -0.1707 -0.2396
 1587DOPE   C1B18625  19.355   7.357  12.995  0.1643  0.3829  0.0228
 1587DOPE   D2B18626  19.128   7.763  13.097  0.0924  0.0919  0.2267
 1587DOPE   C3B18627  18.857   7.694  13.382  0.1509  0.1314 -0.2726
 1587DOPE   C4B18628  18.781   7.476  13.775 -0.0648  0.1072 -0.0750
 1588DOPC   NC318629  18.543   6.182  12.268  0.1015 -0.0038 -0.1679
 1588DOPC   PO418630  18.945   6.192  12.061 -0.3782 -0.3887  0.1477
 1588DOPC   GL118631  18.944   6.145  12.438 -0.3456  0.2189  0.2453
 1588DOPC   GL218632  18.929   6.387  12.524 -0.2207 -0.1247 -0.2112
 1588DOPC   C1A18633  18.749   5.964  12.785 -0.1583  0.0106 -0.1928
 1588DOPC   D2A18634  18.788   5.880  13.210 -0.0230 -0.3196  0.0070
 1588DOPC   C3A18635  19.060   6.271  13.307 -0.1471 -0.2297 -0.0762
 1588DOPC   C4A18636  18.974   6.738  13.215  0.1045  0.0186  0.1337
 1588DOPC   C1B18637  18.604   6.407  12.879  0.0308 -0.1348 -0.0910
 1588DOPC   D2B18638  18.433   6.722  13.174  0.0449  0.3753  0.1293
 1588DOPC   C3B18639  18.196   7.105  13.123  0.0533  0.1696 -0.0879
 1588DOPC   C4B18640  18.098   7.438  13.503 -0.2735 -0.0661 -0.1762
 1589DOPC   NC318641  20.552   6.964  12.052  0.0944 -0.1290  0.3058
 1589DOPC   PO418642  20.693   7.009  12.423 -0.1883  0.1475  0.1184
 1589DOPC   GL118643  20.772   7.075  12.753 -0.2885 -0.1181  0.3171
 1589DOPC   GL218644  20.565   7.347  12.808  0.0546  0.1831 -0.0716
 1589DOPC   C1A18645  21.026   7.450  12.939  0.0261  0.0620  0.2284
 1589DOPC   D2A18646  20.997   7.881  13.107 -0.2019 -0.0943  0.0707
 1589DOPC   C3A18647  21.187   8.285  13.050 -0.3606  0.0047  0.0065
 1589DOPC   C4A18648  21.253   8.644  12.708 -0.0547  0.6391 -0.0143
 1589DOPC   C1B18649  20.643   7.712  12.637  0.2205  0.0379 -0.0255
 1589DOPC   D2B18650  20.787   7.797  12.191  0.0727 -0.4474  0.2260
 1589DOPC   C3B18651  20.919   8.191  12.053  0.0063 -0.0869  0.2447
 1589DOPC   C4B18652  21.315   8.490  11.976  0.2168 -0.1147 -0.0884
 1590DOPS   CNO18653  19.483  12.079  12.172  0.1588 -0.1538  0.2214
 1590DOPS   PO418654  19.602  12.132  11.789  0.1519 -0.0931 -0.1647
 1590DOPS   GL118655  19.900  11.978  12.082 -0.0688  0.0405  0.0380
 1590DOPS   GL218656  19.988  11.666  12.073  0.1097 -0.0096  0.1102
 1590DOPS   C1A18657  20.028  12.149  12.540 -0.1759  0.3315 -0.0937
 1590DOPS   D2A18658  20.273  12.455  12.766  0.0285  0.1888  0.0275
 1590DOPS   C3A18659  20.280  12.768  13.123 -0.1976 -0.0333 -0.1878
 1590DOPS   C4A18660  20.701  12.776  13.290  0.2165 -0.3339  0.0907
 1590DOPS   C1B18661  20.104  11.206  12.245 -0.0382 -0.2076  0.0497
 1590DOPS   D2B18662  19.977  10.872  12.574  0.4497 -0.0920 -0.0114
 1590DOPS   C3B18663  20.210  10.495  12.646  0.1039 -0.0670  0.0071
 1590DOPS   C4B18664  20.259  10.114  12.390 -0.1203  0.1368  0.3150
 1591POSM   NC318665  22.332   4.998  12.025 -0.2845  0.3398 -0.1420
 1591POSM   PO418666  22.464   5.337  12.226  0.1915  0.1165 -0.0447
 1591POSM   AM118667  22.233   5.357  12.460 -0.1826 -0.2083 -0.2965
 1591POSM   AM218668  22.059   5.135  12.448 -0.2824 -0.0069 -0.5663
 1591POSM   T1A18669  21.843   5.424  12.811  0.0475 -0.2729  0.0311
 1591POSM   C2A18670  21.411   5.337  13.018  0.1099  0.2280 -0.2383
 1591POSM   C3A18671  21.135   5.270  13.377  0.2737  0.2178 -0.0072
 1591POSM   C1B18672  21.908   4.811  12.457 -0.0031  0.0588  0.2752
 1591POSM   D2B18673  21.458   4.651  12.321 -0.1271  0.3161  0.3587
 1591POSM   C3B18674  21.154   4.953  12.031  0.2976 -0.1565  0.2643
 1591POSM   C4B18675  21.075   5.381  12.044 -0.4723  0.1009  0.0396
 1592DOPS   CNO18676  18.709   9.210  12.825 -0.3600  0.0262 -0.0522
 1592DOPS   PO418677  18.768   8.967  12.555  0.1894  0.2537 -0.3475
 1592DOPS   GL118678  18.950   8.732  12.278  0.1107  0.0700 -0.2509
 1592DOPS   GL218679  18.879   8.468  12.461  0.1759 -0.0977 -0.0502
 1592DOPS   C1A18680  19.319   8.930  12.124 -0.1624 -0.0323 -0.1271
 1592DOPS   D2A18681  19.810   9.001  12.057 -0.2985  0.1386 -0.0917
 1592DOPS   C3A18682  20.192   9.289  12.023  0.2251  0.0891 -0.3438
 1592DOPS   C4A18683  20.215   9.627  12.264  0.3062  0.0190  0.1461
 1592DOPS   C1B18684  19.310   8.516  12.551 -0.0910 -0.2016 -0.1428
 1592DOPS   D2B18685  19.667   8.814  12.756  0.1134  0.0075 -0.1123
 1592DOPS   C3B18686  19.811   8.651  13.160  0.2355  0.0568  0.1220
 1592DOPS   C4B18687  20.033   8.922  13.471  0.3046  0.1362  0.1162
 1593POSM   NC318688  13.866   5.581  12.268  0.2090 -0.0312 -0.1811
 1593POSM   PO418689  14.069   5.581  12.584  0.1290 -0.1661 -0.0854
 1593POSM   AM118690  14.019   5.704  12.900  0.2197  0.1885  0.0902
 1593POSM   AM218691  14.050   5.595  13.187 -0.0463 -0.1284  0.0033
 1593POSM   T1A18692  13.911   6.037  13.275  0.2168 -0.2974  0.2024
 1593POSM   C2A18693  13.629   6.349  13.562  0.0909 -0.0862  0.1033
 1593POSM   C3A18694  13.614   6.694  13.815  0.3054 -0.2430  0.1223
 1593POSM   C1B18695  14.198   5.581  13.449  0.0688  0.1126 -0.1493
 1593POSM   D2B18696  14.270   5.453  13.867 -0.2762  0.4381  0.2376
 1593POSM   C3B18697  14.258   5.031  14.133  0.0636  0.1979 -0.1277
 1593POSM   C4B18698  14.543   4.992  14.533 -0.0749 -0.3119 -0.3377
 1594DOPC   NC318699  15.597   8.777  12.022 -0.1426  0.1306  0.1639
 1594DOPC   PO418700  15.327   9.084  12.017  0.1018  0.0965  0.0705
 1594DOPC   GL118701  15.202   8.892  12.326  0.1155 -0.0518  0.2450
 1594DOPC   GL218702  14.901   8.912  12.333 -0.3264  0.1630 -0.0033
 1594DOPC   C1A18703  15.441   8.549  12.527  0.2550 -0.1909 -0.1626
 1594DOPC   D2A18704  15.646   8.408  12.870  0.0545  0.3289  0.0529
 1594DOPC   C3A18705  16.071   8.601  12.871 -0.0177 -0.2123 -0.2336
 1594DOPC   C4A18706  16.521   8.477  12.992  0.1789  0.3491 -0.1877
 1594DOPC   C1B18707  14.560   9.145  12.617 -0.1409 -0.0090  0.2159
 1594DOPC   D2B18708  14.097   9.251  12.591 -0.0931 -0.3317  0.2560
 1594DOPC   C3B18709  13.837   9.142  12.929  0.1929 -0.1702 -0.1284
 1594DOPC   C4B18710  13.741   9.293  13.315 -0.1220  0.3365  0.2535
 1595DOPC   NC318711  19.893   4.570  12.577 -0.1093 -0.2573 -0.1452
 1595DOPC   PO418712  19.804   4.921  12.443  0.0641  0.0209  0.1593
 1595DOPC   GL118713  19.880   5.124  12.740  0.0064 -0.4036 -0.0024
 1595DOPC   GL218714  19.975   5.333  12.625  0.1710  0.2003 -0.1058
 1595DOPC   C1A18715  20.298   5.111  13.068 -0.1207 -0.0366 -0.0641
 1595DOPC   D2A18716  20.222   4.999  13.504 -0.3588  0.1510  0.3581
 1595DOPC   C3A18717  20.355   4.550  13.618 -0.1026  0.1810 -0.1197
 1595DOPC   C4A18718  20.282   4.066  13.778 -0.4090  0.0856 -0.3314
 1595DOPC   C1B18719  20.352   5.169  12.603  0.2208 -0.0337 -0.1017
 1595DOPC   D2B18720  20.428   4.708  12.459 -0.0086  0.2876 -0.2583
 1595DOPC   C3B18721  20.558   4.316  12.726 -0.1173 -0.2524  0.0743
 1595DOPC   C4B18722  20.675   3.991  12.977  0.0730 -0.1273 -0.1054
 1596DOPC   NC318723  13.607   0.386  12.101  0.0850  0.1832 -0.1667
 1596DOPC   PO418724  13.722   0.211  12.446  0.4244  0.1684 -0.0616
 1596DOPC   GL118725  13.663   0.381  12.845 -0.1628  0.1158  0.3066
 1596DOPC   GL218726  13.911   0.175  12.912  0.0369  0.3139  0.1031
 1596DOPC   C1A18727  13.450   0.454  13.231 -0.0014  0.3017 -0.0300
 1596DOPC   D2A18728  13.195   0.514  13.653 -0.2816 -0.2683 -0.0640
 1596DOPC   C3A18729  12.762   0.351  13.795  0.3192 -0.2882  0.2119
 1596DOPC   C4A18730  12.376   0.487  13.974 -0.0393  0.0890  0.1790
 1596DOPC   C1B18731  13.896   0.510  13.252  0.0284  0.0186 -0.0800
 1596DOPC   D2B18732  13.992   0.937  13.403  0.1419  0.2001 -0.2849
 1596DOPC   C3B18733  13.797   1.337  13.289  0.1231  0.1897 -0.0266
 1596DOPC   C4B18734  13.914   1.748  13.249 -0.2062 -0.0029 -0.1626
 1597POSM   NC318735  19.689  10.494  11.751 -0.3899  0.4578 -0.1680
 1597POSM   PO418736  19.765  10.414  12.137 -0.0263  0.0989 -0.0779
 1597POSM   AM118737  19.797  10.377  12.477  0.0190  0.0947  0.0114
 1597POSM   AM218738  19.879  10.156  12.659  0.4846  0.0639  0.0025
 1597POSM   T1A18739  19.791  10.612  12.940 -0.1084 -0.0992  0.0726
 1597POSM   C2A18740  20.098  10.701  13.336  0.5763  0.1954  0.3092
 1597POSM   C3A18741  20.510  10.673  13.357  0.5406  0.1941  0.1089
 1597POSM   C1B18742  19.711   9.925  12.885 -0.0434 -0.1484  0.2642
 1597POSM   D2B18743  19.540   9.789  13.281 -0.1761  0.0095 -0.2263
 1597POSM   C3B18744  19.522  10.108  13.627 -0.2261 -0.1456 -0.4732
 1597POSM   C4B18745  19.714  10.479  13.798 -0.4025 -0.2443  0.1092
 1598POSM   NC318746  13.592   3.955  11.712 -0.1251  0.0426  0.0338
 1598POSM   PO418747  13.529   3.569  11.856  0.0077 -0.2326 -0.0711
 1598POSM   AM118748  13.653   3.411  12.141  0.1044 -0.0501  0.0270
 1598POSM   AM218749  13.798   3.476  12.367  0.2802  0.1206 -0.0555
 1598POSM   T1A18750  13.770   2.990  12.458  0.1166 -0.0389  0.1061
 1598POSM   C2A18751  14.088   2.886  12.743 -0.0255  0.2056  0.1800
 1598POSM   C3A18752  13.958   2.740  13.209  0.0281 -0.0039 -0.0224
 1598POSM   C1B18753  13.860   3.456  12.666 -0.1375  0.1417  0.4794
 1598POSM   D2B18754  13.694   3.156  12.991 -0.0254  0.1278  0.0380
 1598POSM   C3B18755  13.753   3.137  13.464  0.1366 -0.2687 -0.3074
 1598POSM   C4B18756  13.702   3.188  13.953  0.1151 -0.0316  0.0117
 1599DOPE   NH318757  17.716   3.987  12.481  0.2482  0.0850  0.2435
 1599DOPE   PO418758  17.829   4.264  12.338  0.0806  0.0163 -0.1995
 1599DOPE   GL118759  17.583   4.436  12.634 -0.0566 -0.1316 -0.0833
 1599DOPE   GL218760  17.363   4.614  12.675  0.3675  0.0641  0.0815
 1599DOPE   C1A18761  17.652   4.511  13.105 -0.4894  0.0175  0.0671
 1599DOPE   D2A18762  17.732   4.877  13.331 -0.0127 -0.1261 -0.0121
 1599DOPE   C3A18763  17.743   4.880  13.748  0.1254  0.0708 -0.3987
 1599DOPE   C4A18764  17.555   4.665  14.134  0.2206 -0.2777  0.0610
 1599DOPE   C1B18765  17.173   4.394  13.015  0.0621  0.0363 -0.2310
 1599DOPE   D2B18766  17.320   4.134  13.390  0.0804 -0.0545  0.0161
 1599DOPE   C3B18767  17.428   4.337  13.752 -0.1883  0.2125 -0.0680
 1599DOPE   C4B18768  17.686   4.204  14.064 -0.0495  0.0881 -0.2110
 1600DOPS   CNO18769  23.110   3.762  11.975 -0.2081  0.0954  0.0111
 1600DOPS   PO418770  22.786   3.756  12.204  0.4598  0.1128 -0.0909
 1600DOPS   GL118771  22.681   3.910  12.580  0.4038 -0.2891 -0.3108
 1600DOPS   GL218772  22.460   3.892  12.615  0.0078  0.1778 -0.3670
 1600DOPS   C1A18773  22.726   4.284  12.875  0.2646  0.0257 -0.1459
 1600DOPS   D2A18774  22.535   4.562  13.252 -0.2013  0.1435 -0.0202
 1600DOPS   C3A18775  22.101   4.418  13.326  0.0875  0.0650 -0.0760
 1600DOPS   C4A18776  21.733   4.479  13.428 -0.2034  0.0240 -0.1026
 1600DOPS   C1B18777  22.059   3.759  12.638 -0.0605 -0.0065  0.0949
 1600DOPS   D2B18778  21.688   3.725  12.903  0.0737 -0.1443 -0.0984
 1600DOPS   C3B18779  21.502   4.136  12.884  0.1426 -0.0784 -0.0058
 1600DOPS   C4B18780  21.519   4.600  12.860 -0.0471 -0.1650 -0.2667
 1601DOPE   NH318781  22.767  11.095  12.136 -0.0388  0.1675  0.2400
 1601DOPE   PO418782  22.840  10.883  12.353  0.1286 -0.1503 -0.2190
 1601DOPE   GL118783  23.005  10.636  12.721  0.0747  0.4900 -0.4852
 1601DOPE   GL218784  23.064  10.918  12.794 -0.0640 -0.0665  0.0209
 1601DOPE   C1A18785  23.407  10.531  12.899  0.0747 -0.1328  0.0588
 1601DOPE   D2A18786  23.811  10.512  13.030  0.1085  0.0752 -0.0643
 1601DOPE   C3A18787  24.164  10.767  13.123  0.1462  0.1575  0.0310
 1601DOPE   C4A18788  24.415  11.140  13.203  0.0163  0.1591 -0.0834
 1601DOPE   C1B18789  23.059  10.856  13.238  0.0470  0.0271 -0.1112
 1601DOPE   D2B18790  23.118  11.064  13.693  0.0430 -0.5685 -0.3750
 1601DOPE   C3B18791  23.354  11.022  14.144  0.1014  0.0155  0.0389
 1601DOPE   C4B18792  23.219  11.072  14.568  0.1693 -0.1126  0.4031
 1602DOPC   NC318793  13.771   4.667  11.768 -0.2362 -0.0506  0.1851
 1602DOPC   PO418794  13.586   5.000  11.807  0.3833  0.0687  0.0068
 1602DOPC   GL118795  13.604   5.178  12.084 -0.1008  0.4224  0.2213
 1602DOPC   GL218796  13.315   5.132  12.231  0.0791  0.0573  0.0481
 1602DOPC   C1A18797  13.403   5.605  12.069  0.0905  0.1197  0.2714
 1602DOPC   D2A18798  12.958   5.871  12.061  0.0204  0.0592  0.0083
 1602DOPC   C3A18799  12.871   5.841  12.487  0.0401 -0.0016  0.1591
 1602DOPC   C4A18800  12.600   6.011  12.799  0.0498  0.1893  0.5296
 1602DOPC   C1B18801  12.976   5.416  12.211  0.2341  0.1316  0.0420
 1602DOPC   D2B18802  12.506   5.497  12.204 -0.2041  0.0167 -0.0876
 1602DOPC   C3B18803  12.247   5.636  12.553 -0.1125  0.0123  0.2533
 1602DOPC   C4B18804  11.964   5.995  12.716  0.2020  0.5872 -0.0686
 1603DOPC   NC318805  15.102   1.896  12.797 -0.3394  0.1814 -0.0698
 1603DOPC   PO418806  14.869   2.015  12.474 -0.4453  0.3888  0.1283
 1603DOPC   GL118807  14.906   2.367  12.657 -0.1527  0.3168 -0.4371
 1603DOPC   GL218808  14.763   2.508  12.470  0.1201  0.4005 -0.0477
 1603DOPC   C1A18809  15.020   2.719  12.901  0.1955  0.0933  0.1643
 1603DOPC   D2A18810  15.112   3.106  13.114  0.3091  0.0708  0.0673
 1603DOPC   C3A18811  14.923   3.325  13.477  0.3308  0.0164  0.1945
 1603DOPC   C4A18812  14.674   3.474  13.875  0.1179  0.1800  0.2331
 1603DOPC   C1B18813  15.185   2.670  12.444 -0.0255  0.1285  0.0574
 1603DOPC   D2B18814  15.605   2.974  12.484  0.0732 -0.0678 -0.0228
 1603DOPC   C3B18815  15.615   3.213  12.873 -0.4051 -0.4363 -0.1169
 1603DOPC   C4B18816  15.491   3.420  13.298  0.2493 -0.1545  0.3120
 1604POSM   NC318817  23.308   5.945  11.812 -0.3465  0.2249  0.2057
 1604POSM   PO418818  23.002   6.176  11.788  0.0737  0.1204  0.2549
 1604POSM   AM118819  22.907   6.163  12.080  0.1584 -0.2125  0.0651
 1604POSM   AM218820  22.721   6.359  12.149  0.2169  0.1008  0.0268
 1604POSM   T1A18821  22.840   5.945  12.520 -0.1467 -0.3033  0.0947
 1604POSM   C2A18822  22.620   5.910  12.907 -0.3555 -0.1264  0.3004
 1604POSM   C3A18823  22.139   5.820  12.965  0.0609 -0.0802 -0.1165
 1604POSM   C1B18824  22.619   6.414  12.478 -0.1906  0.3211  0.0529
 1604POSM   D2B18825  22.452   6.532  12.856  0.1192 -0.0598  0.1278
 1604POSM   C3B18826  22.593   6.271  13.208 -0.0983  0.0153 -0.1433
 1604POSM   C4B18827  22.676   5.951  13.473  0.3317  0.1583  0.0863
 1605POSM   NC318828  11.861   9.546  12.060 -0.1847 -0.2055 -0.1959
 1605POSM   PO418829  11.832   9.155  12.174 -0.1069  0.2519  0.3512
 1605POSM   AM118830  11.794   9.153  12.482  0.1336 -0.3436 -0.0276
 1605POSM   AM218831  11.762   9.367  12.634  0.1746 -0.1012 -0.2577
 1605POSM   T1A18832  11.767   8.851  12.906 -0.0756  0.0804 -0.0156
 1605POSM   C2A18833  11.881   8.617  13.326 -0.1000 -0.1078 -0.2288
 1605POSM   C3A18834  12.186   8.267  13.430  0.2440 -0.1250  0.0967
 1605POSM   C1B18835  11.880   9.429  12.919  0.1639  0.2174 -0.5829
 1605POSM   D2B18836  12.121   9.736  13.241  0.1164  0.0072 -0.1140
 1605POSM   C3B18837  12.458  10.000  13.152 -0.0982  0.3293  0.1622
 1605POSM   C4B18838  12.796  10.340  13.135  0.0317  0.1516 -0.3195
 1606DOPS   CNO18839  18.929   3.174  12.307 -0.2443 -0.1532  0.2263
 1606DOPS   PO418840  19.193   3.099  12.540 -0.0801 -0.0754 -0.2859
 1606DOPS   GL118841  19.084   2.887  12.842  0.0772  0.0312  0.5456
 1606DOPS   GL218842  19.143   2.627  12.683 -0.0131 -0.0213  0.2626
 1606DOPS   C1A18843  19.183   3.153  13.254  0.0607 -0.0747 -0.0916
 1606DOPS   D2A18844  19.309   2.921  13.658 -0.1861 -0.2597  0.0017
 1606DOPS   C3A18845  19.634   3.128  13.946 -0.1031  0.0311  0.4912
 1606DOPS   C4A18846  20.050   2.803  13.860 -0.2206 -0.3212  0.1652
 1606DOPS   C1B18847  19.491   2.512  12.909 -0.2960  0.0496  0.0465
 1606DOPS   D2B18848  19.734   2.194  13.190 -0.3555 -0.1197 -0.0690
 1606DOPS   C3B18849  19.578   1.778  13.262 -0.0005 -0.1529  0.1549
 1606DOPS   C4B18850  19.188   1.633  13.437  0.1374 -0.0640 -0.0095
 1607POSM   NC318851  14.842  34.518  12.391  0.0507 -0.2645 -0.0249
 1607POSM   PO418852  14.606  34.704  12.542 -0.3082 -0.1410 -0.0355
 1607POSM   AM118853  14.503  34.615  12.803  0.3400  0.2381 -0.0859
 1607POSM   AM218854  14.274  34.491  12.985  0.0476 -0.1769  0.0709
 1607POSM   T1A18855  14.350  34.896  13.249 -0.3041  0.0871 -0.2941
 1607POSM   C2A18856  14.112  34.895  13.660  0.0905  0.0359 -0.3089
 1607POSM   C3A18857  13.971  34.769  14.076  0.0671  0.0715  0.3739
 1607POSM   C1B18858  14.219  34.393  13.326 -0.1937  0.1229 -0.1826
 1607POSM   D2B18859  14.235  34.362  13.765 -0.1840  0.2177  0.2078
 1607POSM   C3B18860  14.163  34.174  14.154 -0.0852 -0.0706 -0.0562
 1607POSM   C4B18861  14.230  34.395  14.570 -0.2741  0.0942  0.5556
 1608DOPE   NH318862  18.397   9.298  12.447 -0.0382 -0.0461  0.0161
 1608DOPE   PO418863  18.093   9.399  12.446  0.1151 -0.4739  0.3176
 1608DOPE   GL118864  17.823   9.254  12.466 -0.1241  0.0628  0.0331
 1608DOPE   GL218865  17.774   8.949  12.442  0.0987 -0.0474  0.0753
 1608DOPE   C1A18866  17.544   9.466  12.785 -0.2303  0.1452 -0.0136
 1608DOPE   D2A18867  17.303   9.397  13.132 -0.0171 -0.0171 -0.2413
 1608DOPE   C3A18868  17.187   8.930  13.185 -0.1047  0.2163  0.3050
 1608DOPE   C4A18869  16.890   8.640  13.438 -0.0101  0.0922 -0.0807
 1608DOPE   C1B18870  17.395   9.091  12.533  0.1160  0.1029 -0.0935
 1608DOPE   D2B18871  16.994   8.943  12.686 -0.1985 -0.0079 -0.6485
 1608DOPE   C3B18872  16.719   8.950  12.304 -0.1486 -0.0666 -0.0306
 1608DOPE   C4B18873  16.369   9.136  12.058  0.0122 -0.0181  0.0138
 1609DOPE   NH318874  14.428   0.473  12.342  0.1515  0.0796  0.0702
 1609DOPE   PO418875  14.313   0.375  12.642 -0.1240 -0.0394 -0.0329
 1609DOPE   GL118876  14.010   0.639  12.608  0.0131  0.0143 -0.0358
 1609DOPE   GL218877  13.983   0.717  12.326 -0.3223  0.0483 -0.1236
 1609DOPE   C1A18878  13.924   0.986  12.925 -0.0308  0.0756 -0.0065
 1609DOPE   D2A18879  14.148   1.380  12.912  0.0659  0.3213  0.2280
 1609DOPE   C3A18880  13.860   1.622  12.649  0.1831 -0.1064  0.1930
 1609DOPE   C4A18881  13.440   1.649  12.419 -0.1234 -0.2164  0.0107
 1609DOPE   C1B18882  13.718   1.091  12.411 -0.1898  0.0364  0.0787
 1609DOPE   D2B18883  13.519   1.274  12.771 -0.1342 -0.1070 -0.0492
 1609DOPE   C3B18884  13.433   1.620  13.099  0.0166  0.0034  0.1026
 1609DOPE   C4B18885  13.104   1.775  13.416  0.0883 -0.1295  0.1138
 1610DOPE   NH318886  14.351   0.956  12.549  0.1616  0.0645 -0.1509
 1610DOPE   PO418887  14.419   1.258  12.386 -0.0060  0.0046 -0.1754
 1610DOPE   GL118888  14.419   1.688  12.520  0.0382 -0.0461  0.2995
 1610DOPE   GL218889  14.630   1.549  12.684 -0.2345  0.0985 -0.1064
 1610DOPE   C1A18890  14.303   1.905  12.866  0.2135 -0.3397 -0.1483
 1610DOPE   D2A18891  14.095   2.212  13.163 -0.0980 -0.3389 -0.0749
 1610DOPE   C3A18892  13.961   2.216  13.537  0.1535  0.4573  0.2750
 1610DOPE   C4A18893  14.045   2.109  13.977 -0.1037 -0.2438 -0.0766
 1610DOPE   C1B18894  14.593   1.673  13.156  0.1881 -0.0944  0.0044
 1610DOPE   D2B18895  14.393   1.924  13.448  0.2172  0.0054  0.1836
 1610DOPE   C3B18896  14.046   1.734  13.699 -0.0425 -0.2031 -0.0671
 1610DOPE   C4B18897  13.558   1.751  13.668  0.0779  0.1587 -0.1449
 1611DOPS   CNO18898  14.950   0.362  12.158  0.2491 -0.1681 -0.0857
 1611DOPS   PO418899  15.272   0.552  12.150  0.0803 -0.2201  0.0972
 1611DOPS   GL118900  15.621   0.598  12.318  0.4935  0.0221 -0.2410
 1611DOPS   GL218901  15.620   0.493  12.544 -0.1833 -0.0720 -0.0588
 1611DOPS   C1A18902  15.971   0.871  12.430  0.0246 -0.0744 -0.4672
 1611DOPS   D2A18903  16.022   1.283  12.628 -0.0970 -0.0717 -0.2899
 1611DOPS   C3A18904  15.952   1.315  13.082 -0.1369 -0.1930  0.1826
 1611DOPS   C4A18905  15.774   1.491  13.425 -0.0131  0.1860 -0.4638
 1611DOPS   C1B18906  16.038   0.513  12.812 -0.0825  0.2657 -0.2549
 1611DOPS   D2B18907  16.506   0.645  12.802  0.2145  0.0032  0.0425
 1611DOPS   C3B18908  16.621   0.966  12.436  0.0706  0.1804  0.0514
 1611DOPS   C4B18909  16.353   1.310  12.307  0.0413 -0.0381  0.5653
 1612POSM   NC318910  18.137   2.984  11.922  0.1386  0.0169 -0.0099
 1612POSM   PO418911  18.476   3.235  11.909 -0.0975  0.1152  0.1333
 1612POSM   AM118912  18.410   3.286  12.243  0.3035  0.0319  0.1892
 1612POSM   AM218913  18.265   3.444  12.462 -0.3568  0.1576  0.1040
 1612POSM   T1A18914  18.610   3.157  12.704  0.2658 -0.0374 -0.0622
 1612POSM   C2A18915  18.674   2.876  12.997 -0.3737 -0.0244  0.1243
 1612POSM   C3A18916  18.941   2.544  13.162  0.3769  0.0369  0.1231
 1612POSM   C1B18917  18.291   3.528  12.773  0.0716 -0.1809 -0.2126
 1612POSM   D2B18918  18.201   3.540  13.241 -0.0199 -0.0666 -0.2602
 1612POSM   C3B18919  17.817   3.219  13.309 -0.0793  0.0785  0.1149
 1612POSM   C4B18920  17.830   2.759  13.395  0.1699  0.0758  0.1634
 1613POSM   NC318921  22.035   5.819  12.016 -0.4192  0.0687 -0.0082
 1613POSM   PO418922  22.233   5.524  11.840 -0.0056 -0.2258 -0.0800
 1613POSM   AM118923  22.023   5.354  12.008 -0.0043 -0.1051  0.0847
 1613POSM   AM218924  21.748   5.346  12.061  0.1564  0.2377  0.2606
 1613POSM   T1A18925  21.792   4.888  11.987 -0.2844 -0.0304 -0.0882
 1613POSM   C2A18926  21.831   4.427  12.078  0.1791 -0.0907  0.1377
 1613POSM   C3A18927  21.830   4.222  12.523  0.0870 -0.3134 -0.1124
 1613POSM   C1B18928  21.554   5.273  12.347 -0.0105 -0.1130 -0.1554
 1613POSM   D2B18929  21.271   5.085  12.612 -0.0030 -0.0854 -0.0640
 1613POSM   C3B18930  20.844   5.239  12.483 -0.2104  0.0137 -0.2068
 1613POSM   C4B18931  20.519   5.199  12.126 -0.0722  0.1233  0.2049
 1614DOPE   NH318932  19.335   2.836  12.115 -0.0138  0.2331  0.2627
 1614DOPE   PO418933  19.551   2.659  12.286 -0.1358  0.1750  0.1348
 1614DOPE   GL118934  19.638   2.830  12.645  0.0880 -0.2428 -0.2304
 1614DOPE   GL218935  19.906   2.944  12.570 -0.0113 -0.0369 -0.0221
 1614DOPE   C1A18936  19.583   2.998  13.035 -0.1223 -0.1964 -0.2425
 1614DOPE   D2A18937  19.642   3.190  13.436 -0.4118  0.1205  0.1996
 1614DOPE   C3A18938  20.013   3.341  13.687 -0.1764 -0.1441 -0.0825
 1614DOPE   C4A18939  20.492   3.488  13.645 -0.0095 -0.1550 -0.0373
 1614DOPE   C1B18940  20.181   3.186  12.901  0.0693  0.2562  0.1188
 1614DOPE   D2B18941  20.307   3.266  13.304 -0.1776 -0.1834 -0.0401
 1614DOPE   C3B18942  20.722   3.027  13.477  0.0786  0.2036 -0.1675
 1614DOPE   C4B18943  21.136   2.820  13.375 -0.0348  0.0565 -0.0315
 1615DOPS   CNO18944  12.019  11.156  11.852 -0.3088  0.1776  0.0767
 1615DOPS   PO418945  12.158  10.922  12.108  0.0670 -0.1692 -0.1265
 1615DOPS   GL118946  12.344  10.942  12.426 -0.3336 -0.0782  0.0895
 1615DOPS   GL218947  12.557  10.748  12.459  0.2139  0.1322 -0.1159
 1615DOPS   C1A18948  12.506  11.330  12.580 -0.3034 -0.3209 -0.1620
 1615DOPS   D2A18949  12.743  11.660  12.767  0.0084 -0.2829 -0.2701
 1615DOPS   C3A18950  13.159  11.811  12.964 -0.2189  0.0547 -0.1794
 1615DOPS   C4A18951  13.179  12.114  13.287 -0.4318 -0.0168 -0.0424
 1615DOPS   C1B18952  12.911  10.601  12.718  0.1062  0.0011 -0.1195
 1615DOPS   D2B18953  13.031  10.771  13.138 -0.1805 -0.1305  0.2833
 1615DOPS   C3B18954  12.684  10.811  13.446 -0.0396 -0.1172  0.0411
 1615DOPS   C4B18955  12.501  11.193  13.666  0.1324 -0.4331  0.2364
 1616DOPE   NH318956  17.812   8.210  12.213  0.0431  0.0557  0.1485
 1616DOPE   PO418957  17.918   8.473  12.366 -0.1794 -0.1347 -0.0806
 1616DOPE   GL118958  17.971   8.250  12.731 -0.4186 -0.1158  0.1960
 1616DOPE   GL218959  17.929   8.436  12.902  0.1449 -0.4846 -0.1184
 1616DOPE   C1A18960  18.362   8.112  12.887  0.0812 -0.3879  0.1049
 1616DOPE   D2A18961  18.810   8.001  12.791  0.0650 -0.0377 -0.3539
 1616DOPE   C3A18962  19.174   8.276  13.002  0.1598  0.1106 -0.2097
 1616DOPE   C4A18963  19.290   8.702  13.012 -0.1023  0.0173 -0.0292
 1616DOPE   C1B18964  17.754   8.652  13.322  0.1870 -0.4812 -0.1439
 1616DOPE   D2B18965  17.673   8.632  13.773 -0.0278  0.0404  0.0386
 1616DOPE   C3B18966  17.850   8.316  14.032 -0.0172  0.3355  0.0935
 1616DOPE   C4B18967  17.887   7.981  14.386 -0.0055  0.0035 -0.0926
 1617POSM   NC318968  10.564   2.303  12.572 -0.0300  0.2388  0.0615
 1617POSM   PO418969  10.689   2.301  12.182  0.0702  0.1284  0.0765
 1617POSM   AM118970  10.985   2.312  12.361  0.3251 -0.2012 -0.2081
 1617POSM   AM218971  11.052   2.231  12.628 -0.0700  0.0251 -0.1044
 1617POSM   T1A18972  11.498   2.263  12.469  0.1011 -0.1284  0.1941
 1617POSM   C2A18973  11.958   2.389  12.407 -0.0922 -0.0383  0.0953
 1617POSM   C3A18974  12.205   2.627  12.067  0.1825  0.2119 -0.1825
 1617POSM   C1B18975  11.022   2.169  12.955 -0.0150 -0.0748  0.4737
 1617POSM   D2B18976  11.024   2.048  13.417  0.1898 -0.0123 -0.1146
 1617POSM   C3B18977  10.672   2.095  13.746  0.4157  0.1707  0.0848
 1617POSM   C4B18978  10.365   1.864  14.055 -0.2392 -0.2164  0.2926
 1618POSM   NC318979  11.515  11.345  11.923  0.2884  0.0878  0.2161
 1618POSM   PO418980  11.685  11.174  12.226  0.0186 -0.0661  0.1116
 1618POSM   AM118981  11.882  11.035  12.460  0.0409 -0.1186 -0.2041
 1618POSM   AM218982  12.014  11.138  12.675  0.1240  0.2457  0.0431
 1618POSM   T1A18983  11.926  10.694  12.810 -0.0665 -0.0578 -0.1027
 1618POSM   C2A18984  12.044  10.679  13.247  0.1848  0.1645  0.2548
 1618POSM   C3A18985  12.356  10.406  13.483  0.1924 -0.2573  0.1808
 1618POSM   C1B18986  12.056  11.501  12.741  0.0322 -0.0770  0.0578
 1618POSM   D2B18987  12.210  11.938  12.633  0.0683 -0.2221 -0.1633
 1618POSM   C3B18988  12.266  12.295  12.941 -0.0889 -0.0680 -0.1245
 1618POSM   C4B18989  12.163  12.656  13.206 -0.1735 -0.2551 -0.0179
 1619DOPC   NC318990  15.327   7.421  11.891 -0.3176 -0.2189  0.2404
 1619DOPC   PO418991  15.329   7.686  12.191  0.4240  0.0069  0.0486
 1619DOPC   GL118992  15.024   7.876  12.305 -0.0019  0.0104 -0.0890
 1619DOPC   GL218993  14.901   8.057  12.107 -0.0405  0.0375  0.0764
 1619DOPC   C1A18994  14.672   7.794  12.559  0.1803 -0.1116  0.3674
 1619DOPC   D2A18995  14.574   7.919  12.929  0.1291  0.0165 -0.0958
 1619DOPC   C3A18996  14.628   8.335  13.119 -0.0130 -0.1473 -0.0027
 1619DOPC   C4A18997  14.592   8.469  13.538 -0.0588 -0.0290  0.1767
 1619DOPC   C1B18998  14.895   8.299  12.477  0.2902  0.1807  0.0867
 1619DOPC   D2B18999  15.000   8.680  12.753 -0.0146  0.4329  0.4619
 1619DOPC   C3B19000  15.451   8.890  12.901 -0.3800  0.3714  0.1272
 1619DOPC   C4B19001  15.492   9.233  13.199 -0.1789 -0.1349 -0.0996
 1620POSM   NC319002  11.176   7.846  11.782 -0.0787 -0.0202  0.4078
 1620POSM   PO419003  11.355   7.663  12.067 -0.0622 -0.2592 -0.0957
 1620POSM   AM119004  11.375   7.679  12.388  0.1666 -0.2464 -0.0396
 1620POSM   AM219005  11.406   7.893  12.549 -0.0747 -0.0081  0.0094
 1620POSM   T1A19006  11.683   7.536  12.762  0.2284 -0.0100  0.0083
 1620POSM   C2A19007  11.941   7.218  13.030  0.0866  0.1659 -0.2864
 1620POSM   C3A19008  11.925   6.932  13.429  0.1563 -0.3240  0.0538
 1620POSM   C1B19009  11.249   7.951  12.871 -0.1288  0.0191  0.0703
 1620POSM   D2B19010  11.119   7.945  13.314  0.1456 -0.0885 -0.0390
 1620POSM   C3B19011  11.550   7.876  13.417  0.1569 -0.3305 -0.0017
 1620POSM   C4B19012  11.865   7.984  13.729  0.0232 -0.1663 -0.2063
 1621DOPE   NH319013  15.766   2.486  12.460 -0.2575 -0.1376 -0.2906
 1621DOPE   PO419014  15.975   2.260  12.340  0.1056  0.1481 -0.2027
 1621DOPE   GL119015  16.127   2.093  12.685  0.0039 -0.0612  0.1989
 1621DOPE   GL219016  15.861   2.196  12.907 -0.1384  0.3025 -0.1192
 1621DOPE   C1A19017  16.185   1.837  13.081 -0.0174  0.2191 -0.1185
 1621DOPE   D2A19018  16.114   1.922  13.506 -0.0466 -0.0019  0.4056
 1621DOPE   C3A19019  16.194   2.359  13.608 -0.2289 -0.4405  0.2311
 1621DOPE   C4A19020  16.567   2.605  13.632 -0.1975  0.1952 -0.4604
 1621DOPE   C1B19021  15.895   2.572  13.193 -0.0253  0.3378  0.0077
 1621DOPE   D2B19022  15.887   3.058  13.252 -0.0212  0.0869  0.1045
 1621DOPE   C3B19023  15.816   3.317  13.649 -0.0955  0.2100 -0.2748
 1621DOPE   C4B19024  15.663   3.498  14.017  0.3273  0.1062 -0.0267
 1622DOPS   CNO19025  14.606   5.835  12.080  0.0116  0.0039 -0.0251
 1622DOPS   PO419026  14.439   5.546  12.239 -0.3135 -0.1476  0.1829
 1622DOPS   GL119027  14.588   5.420  12.628 -0.2376  0.0710 -0.2273
 1622DOPS   GL219028  14.535   5.612  12.844 -0.1536 -0.3995 -0.4273
 1622DOPS   C1A19029  14.807   5.144  13.010 -0.0522  0.1381  0.3623
 1622DOPS   D2A19030  14.606   4.763  13.213  0.1366  0.0720 -0.1407
 1622DOPS   C3A19031  14.209   4.640  13.169 -0.1617  0.1751 -0.0240
 1622DOPS   C4A19032  13.948   4.533  13.478 -0.0300  0.1511 -0.0067
 1622DOPS   C1B19033  14.421   5.996  13.088 -0.0702  0.1706  0.1745
 1622DOPS   D2B19034  14.315   6.196  13.495 -0.3397  0.0760  0.2161
 1622DOPS   C3B19035  14.569   5.892  13.676 -0.0654 -0.3764  0.2060
 1622DOPS   C4B19036  14.740   5.596  14.023  0.0962 -0.1221  0.1439
 1623DOPC   NC319037  13.940   6.930  12.123  0.0296  0.1734 -0.0259
 1623DOPC   PO419038  14.201   7.248  12.127  0.1836  0.2647 -0.2863
 1623DOPC   GL119039  14.246   7.383  12.465 -0.1150 -0.4312 -0.2361
 1623DOPC   GL219040  14.467   7.148  12.520 -0.0450 -0.0160  0.0586
 1623DOPC   C1A19041  14.181   7.799  12.579 -0.0140  0.0147  0.3464
 1623DOPC   D2A19042  14.092   8.254  12.769  0.0259 -0.2034  0.2840
 1623DOPC   C3A19043  13.990   8.302  13.203 -0.1064 -0.1034 -0.0165
 1623DOPC   C4A19044  13.696   8.366  13.466 -0.0853  0.2440  0.2877
 1623DOPC   C1B19045  14.453   7.434  12.860 -0.1056  0.0560  0.0887
 1623DOPC   D2B19046  14.439   7.581  13.305  0.0195  0.2942 -0.2069
 1623DOPC   C3B19047  14.185   7.591  13.694 -0.3182 -0.1769  0.1096
 1623DOPC   C4B19048  13.834   7.426  13.945 -0.2155  0.2932  0.0063
 1624DOPC   NC319049  19.858   9.903  12.002  0.0193  0.0466 -0.2274
 1624DOPC   PO419050  19.479   9.827  12.199 -0.3715 -0.0983 -0.0304
 1624DOPC   GL119051  19.742   9.729  12.482  0.0468  0.0356  0.1319
 1624DOPC   GL219052  19.788   9.434  12.373 -0.1217 -0.0766  0.3485
 1624DOPC   C1A19053  20.081   9.528  12.774 -0.0390  0.0807 -0.1396
 1624DOPC   D2A19054  20.344   9.263  13.038 -0.1179  0.0520  0.0838
 1624DOPC   C3A19055  20.325   8.878  12.930 -0.1227  0.2205 -0.2534
 1624DOPC   C4A19056  20.162   8.471  12.880  0.0034  0.4092 -0.3411
 1624DOPC   C1B19057  20.048   9.078  12.527 -0.3163  0.0277 -0.0712
 1624DOPC   D2B19058  20.296   8.715  12.440  0.1308 -0.2896  0.0949
 1624DOPC   C3B19059  19.884   8.506  12.319 -0.1552  0.1899  0.1913
 1624DOPC   C4B19060  19.538   8.203  12.244 -0.1036 -0.1584  0.0681
 1625DOPC   NC319061  14.072   4.825  12.734  0.2691  0.1055 -0.1089
 1625DOPC   PO419062  14.171   5.196  12.888 -0.0572  0.1372 -0.0867
 1625DOPC   GL119063  14.046   5.110  13.201  0.1288  0.1364  0.1226
 1625DOPC   GL219064  13.754   4.927  13.236 -0.1580 -0.1689 -0.1509
 1625DOPC   C1A19065  14.302   4.947  13.568 -0.0456  0.2293 -0.1046
 1625DOPC   D2A19066  14.514   4.520  13.645  0.3236  0.3515  0.0816
 1625DOPC   C3A19067  14.917   4.341  13.492 -0.1489 -0.2137 -0.0169
 1625DOPC   C4A19068  15.365   4.249  13.560 -0.2129 -0.1250  0.0505
 1625DOPC   C1B19069  13.874   5.219  13.605 -0.3185  0.3655  0.0355
 1625DOPC   D2B19070  13.775   5.688  13.730 -0.0259  0.0222  0.1182
 1625DOPC   C3B19071  14.136   5.908  13.835 -0.2100  0.0505  0.1781
 1625DOPC   C4B19072  14.308   5.894  14.276  0.2159 -0.0891  0.0118
 1626DOPS   CNO19073  17.295   8.097  12.189 -0.0168 -0.1478 -0.1051
 1626DOPS   PO419074  17.540   7.792  12.323 -0.0107  0.1816  0.2595
 1626DOPS   GL119075  17.549   8.018  12.574 -0.0782  0.2596 -0.3024
 1626DOPS   GL219076  17.456   8.352  12.583  0.2407  0.0738 -0.1512
 1626DOPS   C1A19077  17.516   8.133  13.041  0.0146 -0.0126  0.0468
 1626DOPS   D2A19078  17.340   8.413  13.361  0.1791  0.1663 -0.0655
 1626DOPS   C3A19079  17.343   8.288  13.829  0.0084 -0.1587  0.1222
 1626DOPS   C4A19080  17.384   8.277  14.258 -0.0019 -0.0219  0.3091
 1626DOPS   C1B19081  17.476   8.699  12.897  0.0504  0.1841  0.2059
 1626DOPS   D2B19082  17.694   9.074  13.097 -0.1196 -0.0456  0.1431
 1626DOPS   C3B19083  17.637   9.144  13.542  0.2155 -0.0620 -0.4936
 1626DOPS   C4B19084  17.871   9.099  13.897  0.0708 -0.0108 -0.0238
 1627POSM   NC319085  13.697  34.494  12.169  0.0735  0.3554  0.0813
 1627POSM   PO419086  13.381  34.360  12.344  0.2336  0.3157 -0.3023
 1627POSM   AM119087  13.267  34.554  12.557  0.1572  0.1313 -0.0214
 1627POSM   AM219088  13.250  34.843  12.582  0.2280  0.1621 -0.2042
 1627POSM   T1A19089  13.280  34.625  13.017  0.1114  0.3281 -0.1381
 1627POSM   C2A19090  13.309  34.668  13.433 -0.2990 -0.1914  0.1969
 1627POSM   C3A19091  13.590  34.901  13.693 -0.0434 -0.0817  0.0320
 1627POSM   C1B19092  13.202  35.049  12.834  0.0333  0.0824 -0.2172
 1627POSM   D2B19093  12.948  35.422  13.060 -0.1198  0.2953 -0.2724
 1627POSM   C3B19094  12.839  35.493  13.506  0.1729 -0.3484 -0.0252
 1627POSM   C4B19095  12.531  35.762  13.737 -0.0861  0.2442 -0.1041
 1628POSM   NC319096  17.714  10.468  12.238 -0.0059  0.2653 -0.3378
 1628POSM   PO419097  17.964  10.175  12.108 -0.0248 -0.0767  0.0493
 1628POSM   AM119098  17.807   9.963  12.282  0.1741  0.2866 -0.1610
 1628POSM   AM219099  17.751   9.888  12.547 -0.4197  0.0312 -0.1557
 1628POSM   T1A19100  17.417   9.587  12.266 -0.0085  0.0334 -0.0243
 1628POSM   C2A19101  16.926   9.559  12.202 -0.0155 -0.0317  0.4088
 1628POSM   C3A19102  16.562   9.565  11.867  0.1112 -0.2382  0.2964
 1628POSM   C1B19103  17.735  10.110  12.824 -0.2112  0.1936 -0.3092
 1628POSM   D2B19104  17.470  10.396  13.110 -0.0315 -0.1060  0.1773
 1628POSM   C3B19105  17.560  10.838  13.163  0.0521 -0.0488  0.4203
 1628POSM   C4B19106  17.490  11.270  13.333 -0.1759  0.1639  0.0620
 1629DOPE   NH319107  10.839   6.826  12.020  0.1582 -0.0310 -0.1554
 1629DOPE   PO419108  10.672   6.576  12.106 -0.0883  0.3794  0.0189
 1629DOPE   GL119109  10.801   6.355  12.509 -0.2419  0.2182 -0.1363
 1629DOPE   GL219110  11.044   6.472  12.581  0.0609  0.2994  0.1175
 1629DOPE   C1A19111  10.697   6.162  12.856 -0.2304  0.1588 -0.1039
 1629DOPE   D2A19112  10.528   5.768  12.982 -0.1411  0.2499  0.0042
 1629DOPE   C3A19113  10.645   5.921  13.387 -0.0215 -0.2527  0.0944
 1629DOPE   C4A19114  10.919   6.281  13.540  0.1427 -0.0054 -0.1074
 1629DOPE   C1B19115  11.041   6.567  13.034  0.0998 -0.3170 -0.0096
 1629DOPE   D2B19116  11.324   6.679  13.360 -0.2198  0.2715  0.0809
 1629DOPE   C3B19117  11.286   7.013  13.690 -0.1060  0.1275 -0.2090
 1629DOPE   C4B19118  11.386   7.200  14.079 -0.0680  0.0887 -0.2306
 1630DOPC   NC319119  16.011  33.702  12.326 -0.0780 -0.2591  0.0722
 1630DOPC   PO419120  16.356  33.711  12.472 -0.1741 -0.1987  0.0446
 1630DOPC   GL119121  16.578  34.117  12.485  0.3013  0.2668  0.1289
 1630DOPC   GL219122  16.429  34.240  12.744 -0.0872  0.3279 -0.0867
 1630DOPC   C1A19123  16.899  34.342  12.750 -0.0583  0.1009 -0.0973
 1630DOPC   D2A19124  16.897  34.599  13.157 -0.1836 -0.2788  0.1490
 1630DOPC   C3A19125  16.851  34.305  13.496 -0.0476 -0.2734  0.1879
 1630DOPC   C4A19126  16.929  34.184  13.966  0.0724  0.0833 -0.2241
 1630DOPC   C1B19127  16.621  34.073  13.120 -0.0953  0.1372 -0.3705
 1630DOPC   D2B19128  16.495  33.960  13.604 -0.0235 -0.2333  0.0064
 1630DOPC   C3B19129  16.088  34.212  13.635  0.1516  0.2448  0.1537
 1630DOPC   C4B19130  15.698  34.476  13.664  0.2278 -0.0308  0.0513
 1631POSM   NC319131  22.756   3.333  11.951 -0.0874 -0.1744 -0.0241
 1631POSM   PO419132  22.458   3.070  12.104 -0.0978  0.2949 -0.1828
 1631POSM   AM119133  22.204   3.104  12.334 -0.0634  0.1438  0.1976
 1631POSM   AM219134  22.252   3.198  12.593  0.0120  0.1025 -0.2665
 1631POSM   T1A19135  21.804   2.929  12.588 -0.3690 -0.1905  0.2112
 1631POSM   C2A19136  21.310   2.887  12.500 -0.0545  0.0372 -0.1398
 1631POSM   C3A19137  20.920   2.671  12.370  0.3019 -0.1776  0.0558
 1631POSM   C1B19138  22.050   3.244  12.863 -0.1523 -0.0610  0.3722
 1631POSM   D2B19139  21.947   3.407  13.281  0.0562 -0.1249  0.3729
 1631POSM   C3B19140  22.344   3.381  13.495 -0.0070  0.0465 -0.1755
 1631POSM   C4B19141  22.468   3.171  13.895  0.3984  0.0900 -0.3837
 1632POSM   NC319142  16.623   7.675  11.889  0.2263 -0.0797  0.1706
 1632POSM   PO419143  16.523   7.423  12.151 -0.1590  0.1165  0.2586
 1632POSM   AM119144  16.767   7.324  12.318  0.1072  0.4114  0.0108
 1632POSM   AM219145  16.852   7.403  12.595  0.0985  0.1485  0.0041
 1632POSM   T1A19146  16.887   6.909  12.541  0.0553  0.0627  0.1333
 1632POSM   C2A19147  16.891   6.600  12.869  0.1829 -0.1092  0.0111
 1632POSM   C3A19148  16.885   6.240  13.162 -0.1012  0.2364 -0.0898
 1632POSM   C1B19149  16.839   7.490  12.934  0.2504 -0.0768  0.3520
 1632POSM   D2B19150  16.772   7.631  13.375  0.0094 -0.0848 -0.2016
 1632POSM   C3B19151  16.746   7.679  13.807  0.0533  0.0126  0.2127
 1632POSM   C4B19152  16.578   7.869  14.192  0.4194  0.2346 -0.2790
 1633DOPC   NC319153  12.893  20.704  15.586  0.3267  0.1346 -0.1090
 1633DOPC   PO419154  13.252  20.767  15.643 -0.1947  0.0733 -0.0075
 1633DOPC   GL119155  13.251  20.877  15.256 -0.1236  0.0927  0.0083
 1633DOPC   GL219156  13.044  20.792  15.063 -0.1401  0.1882 -0.0505
 1633DOPC   C1A19157  13.526  20.663  14.882  0.1030  0.0291 -0.4556
 1633DOPC   D2A19158  13.518  20.468  14.482  0.0782 -0.1704  0.0942
 1633DOPC   C3A19159  13.719  20.679  14.154  0.2063 -0.1411 -0.1947
 1633DOPC   C4A19160  13.658  20.912  13.774 -0.0762 -0.2715  0.1684
 1633DOPC   C1B19161  12.994  20.500  14.657  0.1509  0.0917 -0.1337
 1633DOPC   D2B19162  13.111  20.240  14.269  0.2236  0.0119 -0.1669
 1633DOPC   C3B19163  13.301  20.502  13.894  0.0835 -0.0378 -0.0127
 1633DOPC   C4B19164  13.575  20.479  13.528  0.0955  0.0126  0.1155
 1634DOPC   NC319165  22.183  14.775  15.066 -0.1798 -0.1814  0.0362
 1634DOPC   PO419166  21.807  14.776  15.157 -0.3527  0.2297  0.0786
 1634DOPC   GL119167  21.830  14.982  14.775 -0.0475  0.3702  0.1580
 1634DOPC   GL219168  21.982  14.767  14.615 -0.1024 -0.2681 -0.1097
 1634DOPC   C1A19169  21.409  15.091  14.675  0.0322  0.2425 -0.0139
 1634DOPC   D2A19170  21.335  15.122  14.183  0.3161  0.2518 -0.3534
 1634DOPC   C3A19171  21.034  14.798  14.126  0.0388 -0.0800 -0.3335
 1634DOPC   C4A19172  20.786  14.484  13.909 -0.4264 -0.0431 -0.1563
 1634DOPC   C1B19173  21.846  14.996  14.217  0.0362 -0.2003  0.2617
 1634DOPC   D2B19174  21.745  15.213  13.798 -0.1328  0.2721 -0.3487
 1634DOPC   C3B19175  21.568  15.069  13.408  0.0952  0.1993  0.0308
 1634DOPC   C4B19176  21.281  14.891  13.100 -0.0308 -0.2049  0.1412
 1635DOPE   NH319177  21.110  20.772  14.677 -0.1244  0.0783 -0.1262
 1635DOPE   PO419178  20.994  20.983  14.828  0.0707 -0.1721  0.2438
 1635DOPE   GL119179  20.991  21.058  14.367  0.2240  0.3003 -0.0204
 1635DOPE   GL219180  20.789  21.010  14.182 -0.1291 -0.2113  0.0770
 1635DOPE   C1A19181  21.228  21.175  13.963 -0.0013  0.1058 -0.0643
 1635DOPE   D2A19182  21.357  21.272  13.543  0.1351 -0.0083  0.4582
 1635DOPE   C3A19183  21.212  20.956  13.276 -0.1171 -0.1408  0.1290
 1635DOPE   C4A19184  21.162  20.521  13.197  0.1004  0.0673  0.2868
 1635DOPE   C1B19185  20.714  21.402  13.959  0.0196  0.1848 -0.2494
 1635DOPE   D2B19186  20.785  21.644  13.601  0.0125  0.0394 -0.1192
 1635DOPE   C3B19187  20.606  21.542  13.196  0.2520 -0.4439 -0.2535
 1635DOPE   C4B19188  20.314  21.677  12.850  0.2705 -0.1364  0.0717
 1636DOPE   NH319189  12.102  20.391  15.563 -0.1959 -0.1777  0.0886
 1636DOPE   PO419190  12.349  20.636  15.542 -0.1859  0.1484 -0.1775
 1636DOPE   GL119191  12.171  20.960  15.435  0.0371  0.0581  0.0927
 1636DOPE   GL219192  12.116  20.793  15.175  0.2422  0.0099  0.1996
 1636DOPE   C1A19193  12.330  21.349  15.230  0.0544 -0.0479 -0.2442
 1636DOPE   D2A19194  12.502  21.227  14.792  0.1703 -0.0470  0.1803
 1636DOPE   C3A19195  12.816  21.446  14.543 -0.2092 -0.0626 -0.1454
 1636DOPE   C4A19196  13.278  21.422  14.444 -0.0454  0.0559 -0.1567
 1636DOPE   C1B19197  12.103  20.612  14.758 -0.1473 -0.1634 -0.0321
 1636DOPE   D2B19198  12.029  20.647  14.286 -0.0656 -0.1399 -0.0839
 1636DOPE   C3B19199  12.372  20.825  13.958  0.2057 -0.1826 -0.1157
 1636DOPE   C4B19200  12.660  21.088  13.686  0.2465  0.0626 -0.0138
 1637DOPC   NC319201  20.293  23.398  15.566 -0.3185 -0.3137  0.1097
 1637DOPC   PO419202  20.579  23.136  15.560 -0.0945 -0.4210 -0.0671
 1637DOPC   GL119203  20.730  23.341  15.160 -0.1005  0.3863  0.4077
 1637DOPC   GL219204  20.522  23.491  15.118  0.0412 -0.3321 -0.2371
 1637DOPC   C1A19205  20.912  23.274  14.713  0.1645 -0.0719  0.0832
 1637DOPC   D2A19206  21.233  23.416  14.435  0.1066 -0.1101 -0.1095
 1637DOPC   C3A19207  21.274  23.818  14.206  0.0730 -0.3164 -0.4208
 1637DOPC   C4A19208  21.262  24.086  13.855  0.0688 -0.0555  0.1788
 1637DOPC   C1B19209  20.446  23.483  14.700  0.0689 -0.0086 -0.1664
 1637DOPC   D2B19210  20.253  23.534  14.328  0.2413 -0.0326 -0.0740
 1637DOPC   C3B19211  20.018  23.214  14.056  0.2213 -0.3459 -0.3702
 1637DOPC   C4B19212  19.787  23.156  13.643  0.0467 -0.0516 -0.1095
 1638DOPC   NC319213  21.361  21.282  14.524  0.1288 -0.3923  0.0494
 1638DOPC   PO419214  21.434  21.363  14.901 -0.1180  0.2859 -0.0926
 1638DOPC   GL119215  21.698  21.457  14.762  0.1383 -0.0843  0.2838
 1638DOPC   GL219216  21.961  21.515  14.897  0.0906  0.1386  0.0489
 1638DOPC   C1A19217  21.814  21.298  14.333 -0.6510 -0.0360  0.1802
 1638DOPC   D2A19218  22.192  21.199  14.095  0.1935  0.2070  0.3610
 1638DOPC   C3A19219  22.499  21.546  14.148  0.1587 -0.1022  0.0562
 1638DOPC   C4A19220  22.850  21.868  14.179 -0.0009  0.0147 -0.1316
 1638DOPC   C1B19221  22.043  21.795  14.483  0.0289 -0.0432  0.0128
 1638DOPC   D2B19222  21.943  21.698  14.070 -0.2830  0.0024  0.0633
 1638DOPC   C3B19223  21.900  21.402  13.684  0.2363 -0.5802  0.1484
 1638DOPC   C4B19224  21.763  21.319  13.289 -0.2110  0.1380 -0.3193
 1639POSM   NC319225  15.804  14.459  14.436 -0.1916  0.0588  0.0956
 1639POSM   PO419226  15.614  14.572  14.767 -0.1148 -0.2874 -0.0682
 1639POSM   AM119227  15.448  14.797  14.584  0.0872 -0.0523  0.0178
 1639POSM   AM219228  15.543  14.944  14.383  0.1474  0.1283  0.1382
 1639POSM   T1A19229  15.123  15.177  14.588 -0.0157  0.0082  0.2523
 1639POSM   C2A19230  14.745  15.521  14.600 -0.1013  0.0668 -0.1948
 1639POSM   C3A19231  14.381  15.345  14.792  0.1059  0.0481  0.0838
 1639POSM   C1B19232  15.294  14.912  14.165 -0.0009  0.3657 -0.0003
 1639POSM   D2B19233  14.966  14.677  13.990 -0.0762  0.2696  0.0574
 1639POSM   C3B19234  14.944  14.526  13.536 -0.0965  0.2032 -0.2599
 1639POSM   C4B19235  15.120  14.121  13.399 -0.1150  0.2306  0.2760
 1640DOPS   CNO19236  19.773  21.285  14.855 -0.1169 -0.5395 -0.2964
 1640DOPS   PO419237  20.123  21.384  14.772 -0.4109  0.0229  0.1390
 1640DOPS   GL119238  20.241  21.438  14.387  0.2582  0.1366  0.3949
 1640DOPS   GL219239  20.282  21.154  14.280  0.0807  0.2205  0.2419
 1640DOPS   C1A19240  20.091  21.512  13.972 -0.3831  0.1669  0.3467
 1640DOPS   D2A19241  19.838  21.903  13.892  0.0844  0.3310  0.1101
 1640DOPS   C3A19242  20.057  22.285  13.926 -0.4213  0.1389 -0.0944
 1640DOPS   C4A19243  20.123  22.708  14.098 -0.0130  0.1215  0.3944
 1640DOPS   C1B19244  19.982  21.022  13.971  0.1650  0.1132  0.1263
 1640DOPS   D2B19245  19.876  20.949  13.544 -0.1419  0.0402  0.1008
 1640DOPS   C3B19246  19.738  21.202  13.151 -0.0371  0.0475  0.1453
 1640DOPS   C4B19247  19.676  20.986  12.761  0.0528  0.0903  0.1787
 1641DOPC   NC319248  17.165  14.642  14.870 -0.1339  0.0964  0.2248
 1641DOPC   PO419249  17.287  14.307  15.004  0.0611  0.1431 -0.2490
 1641DOPC   GL119250  17.438  14.364  14.592 -0.0710  0.2201 -0.1876
 1641DOPC   GL219251  17.193  14.158  14.535  0.4203 -0.1273  0.1388
 1641DOPC   C1A19252  17.727  14.123  14.346 -0.1772  0.5078 -0.2070
 1641DOPC   D2A19253  17.916  13.780  14.061 -0.2723 -0.1709  0.3131
 1641DOPC   C3A19254  17.581  13.703  13.675 -0.2033 -0.1383 -0.2003
 1641DOPC   C4A19255  17.195  13.783  13.485 -0.0610  0.0729 -0.2306
 1641DOPC   C1B19256  16.756  14.156  14.301 -0.1237 -0.0968 -0.1416
 1641DOPC   D2B19257  16.433  14.113  13.974 -0.4002 -0.0712 -0.2914
 1641DOPC   C3B19258  16.104  14.465  14.000  0.1885  0.0721 -0.0079
 1641DOPC   C4B19259  15.738  14.719  13.906  0.0268  0.2043  0.0821
 1642DOPE   NH319260  14.291  17.670  15.452  0.1441  0.2102 -0.0838
 1642DOPE   PO419261  14.534  17.751  15.304 -0.2113 -0.1798  0.0930
 1642DOPE   GL119262  14.424  17.718  14.908  0.0199  0.3597  0.1509
 1642DOPE   GL219263  14.538  17.643  14.676  0.1298  0.0715  0.3771
 1642DOPE   C1A19264  14.086  17.636  14.595 -0.1025  0.2607  0.0668
 1642DOPE   D2A19265  14.097  17.539  14.141  0.1388  0.1275 -0.2181
 1642DOPE   C3A19266  14.026  17.060  14.039 -0.1016  0.2951 -0.1578
 1642DOPE   C4A19267  14.019  16.611  14.228 -0.0222 -0.0460  0.1225
 1642DOPE   C1B19268  14.844  17.778  14.372  0.2742 -0.0482 -0.1351
 1642DOPE   D2B19269  14.998  17.945  14.029 -0.0973 -0.2555 -0.1282
 1642DOPE   C3B19270  14.736  18.231  13.764 -0.0544 -0.0557 -0.1237
 1642DOPE   C4B19271  14.619  18.706  13.763 -0.0799 -0.0969 -0.0002
 1643POSM   NC319272  20.135  20.830  14.621 -0.1374 -0.1711  0.1935
 1643POSM   PO419273  20.058  20.419  14.577  0.3386 -0.0273 -0.3295
 1643POSM   AM119274  20.178  20.497  14.295  0.3337 -0.3689  0.2047
 1643POSM   AM219275  20.323  20.680  14.151  0.0002 -0.0943 -0.0925
 1643POSM   T1A19276  20.338  20.294  13.859 -0.4450 -0.1301 -0.0256
 1643POSM   C2A19277  20.466  20.050  13.476 -0.0397 -0.0170  0.2774
 1643POSM   C3A19278  20.582  19.729  13.128  0.1323  0.3872 -0.3102
 1643POSM   C1B19279  20.381  20.824  13.862  0.1346  0.0674  0.0067
 1643POSM   D2B19280  20.360  20.927  13.440 -0.1877 -0.1394  0.1454
 1643POSM   C3B19281  20.708  20.927  13.119 -0.2529  0.2449 -0.2756
 1643POSM   C4B19282  20.934  20.769  12.718  0.0117  0.0237 -0.1283
 1644DOPS   CNO19283  16.939  22.501  15.626  0.0766 -0.1174  0.0356
 1644DOPS   PO419284  16.902  22.396  15.271 -0.2174  0.0538  0.0794
 1644DOPS   GL119285  17.085  22.597  14.998  0.3126  0.2487 -0.1673
 1644DOPS   GL219286  16.936  22.847  14.933  0.0212 -0.1508  0.2578
 1644DOPS   C1A19287  17.518  22.746  14.963  0.2701 -0.0434 -0.1087
 1644DOPS   D2A19288  17.769  23.040  14.805  0.1217  0.2159  0.1157
 1644DOPS   C3A19289  17.732  23.058  14.343 -0.2270  0.2608  0.0557
 1644DOPS   C4A19290  17.708  23.226  13.954 -0.4253 -0.1380 -0.1915
 1644DOPS   C1B19291  16.721  23.076  14.562  0.1357 -0.3079  0.3650
 1644DOPS   D2B19292  16.878  23.371  14.257 -0.0114  0.2781  0.0274
 1644DOPS   C3B19293  16.614  23.622  13.990  0.1110 -0.1535 -0.1388
 1644DOPS   C4B19294  16.541  24.077  14.035 -0.0457 -0.1381 -0.1151
 1645DOPC   NC319295  21.622  14.354  15.028  0.0308 -0.0808 -0.1037
 1645DOPC   PO419296  22.001  14.327  14.915 -0.1019  0.0081  0.1194
 1645DOPC   GL119297  21.886  14.195  14.587 -0.2236 -0.5376  0.2200
 1645DOPC   GL219298  21.559  14.179  14.566  0.2015  0.1473 -0.2306
 1645DOPC   C1A19299  22.239  14.064  14.338 -0.1611 -0.0936 -0.1105
 1645DOPC   D2A19300  22.654  13.852  14.274 -0.1202 -0.0524  0.1406
 1645DOPC   C3A19301  22.499  13.568  13.996 -0.2623 -0.0321  0.2540
 1645DOPC   C4A19302  22.620  13.084  13.918  0.2132  0.0101  0.0307
 1645DOPC   C1B19303  21.397  13.776  14.492 -0.1202  0.0530  0.0678
 1645DOPC   D2B19304  21.497  13.361  14.280 -0.0428  0.3015 -0.3282
 1645DOPC   C3B19305  21.367  12.995  13.935 -0.2623 -0.1467 -0.1963
 1645DOPC   C4B19306  20.937  12.970  13.773 -0.0719  0.2757 -0.0010
 1646DOPE   NH319307  17.530  16.980  14.756  0.3205  0.0031  0.0663
 1646DOPE   PO419308  17.648  16.718  14.917  0.2308  0.3255  0.1036
 1646DOPE   GL119309  17.636  16.602  14.510  0.1512 -0.1107  0.1730
 1646DOPE   GL219310  17.868  16.703  14.430  0.0258  0.1412 -0.2660
 1646DOPE   C1A19311  17.621  16.143  14.472 -0.3265  0.0684 -0.0270
 1646DOPE   D2A19312  17.730  15.665  14.344  0.1389 -0.0171 -0.0557
 1646DOPE   C3A19313  17.414  15.443  14.058 -0.2462 -0.0737  0.2244
 1646DOPE   C4A19314  17.105  15.086  13.994 -0.2154  0.3260  0.1450
 1646DOPE   C1B19315  17.534  17.010  14.230 -0.0886  0.3773 -0.4696
 1646DOPE   D2B19316  17.122  17.255  14.200 -0.1844  0.0894  0.0827
 1646DOPE   C3B19317  17.015  17.402  13.731  0.5512  0.0989  0.2550
 1646DOPE   C4B19318  16.837  17.679  13.372 -0.0971 -0.0568 -0.0783
 1647DOPE   NH319319  16.993  17.317  14.676  0.2263  0.0945 -0.0136
 1647DOPE   PO419320  17.012  17.001  14.719  0.0816  0.0376  0.4490
 1647DOPE   GL119321  16.806  16.804  14.467  0.0418  0.1154  0.1144
 1647DOPE   GL219322  16.712  16.975  14.266  0.1393 -0.0170 -0.3365
 1647DOPE   C1A19323  16.993  16.533  14.122 -0.1338  0.0238 -0.2492
 1647DOPE   D2A19324  16.959  16.441  13.670  0.1243  0.0877 -0.0537
 1647DOPE   C3A19325  17.144  16.665  13.270  0.0774  0.0204 -0.1758
 1647DOPE   C4A19326  16.902  16.856  12.933 -0.0369 -0.0757  0.1591
 1647DOPE   C1B19327  16.683  16.810  13.857 -0.0860  0.2287  0.0099
 1647DOPE   D2B19328  16.763  16.966  13.426 -0.1522 -0.0492  0.1327
 1647DOPE   C3B19329  16.534  17.182  13.101 -0.0885  0.1073 -0.0639
 1647DOPE   C4B19330  16.367  17.576  12.875 -0.2440  0.3123  0.0843
 1648DOPC   NC319331  19.776  21.668  14.544 -0.2955  0.1617  0.0860
 1648DOPC   PO419332  19.675  21.773  14.931 -0.0685 -0.1428 -0.1161
 1648DOPC   GL119333  19.563  22.140  14.675 -0.0120 -0.2529 -0.3529
 1648DOPC   GL219334  19.367  22.278  14.876  0.2394 -0.0920 -0.0215
 1648DOPC   C1A19335  19.428  22.078  14.240  0.3370 -0.0428  0.2507
 1648DOPC   D2A19336  19.330  21.788  13.863 -0.2154  0.1501 -0.1063
 1648DOPC   C3A19337  18.990  21.929  13.575  0.0909 -0.2642 -0.1106
 1648DOPC   C4A19338  18.894  22.072  13.139  0.0044  0.3642  0.0858
 1648DOPC   C1B19339  19.556  22.626  14.868 -0.0941  0.1234 -0.2056
 1648DOPC   D2B19340  19.855  22.769  15.129 -0.1784 -0.1295  0.0207
 1648DOPC   C3B19341  20.127  23.100  15.001  0.1337 -0.2157  0.4102
 1648DOPC   C4B19342  19.985  23.305  14.642 -0.4016 -0.2145  0.3402
 1649POSM   NC319343  21.358  18.823  15.039 -0.0336 -0.0688  0.1862
 1649POSM   PO419344  21.045  18.739  14.847 -0.0855 -0.0655 -0.2818
 1649POSM   AM119345  21.125  18.695  14.558  0.3678  0.0752 -0.1514
 1649POSM   AM219346  21.186  18.451  14.405  0.1611  0.2141 -0.2188
 1649POSM   T1A19347  20.955  18.855  14.112 -0.0313 -0.1542  0.0043
 1649POSM   C2A19348  20.611  18.839  13.752  0.1222 -0.2006  0.0704
 1649POSM   C3A19349  20.205  18.873  13.573 -0.3227  0.2678 -0.0170
 1649POSM   C1B19350  21.411  18.333  14.245  0.0018 -0.1651 -0.2791
 1649POSM   D2B19351  21.678  18.186  13.857  0.4098 -0.0218  0.2840
 1649POSM   C3B19352  21.910  18.501  13.744  0.0011  0.2464 -0.2126
 1649POSM   C4B19353  22.254  18.761  13.729 -0.0021 -0.2421  0.1844
 1650DOPE   NH319354  11.515  20.661  15.607  0.0152  0.3423  0.2721
 1650DOPE   PO419355  11.783  20.778  15.582 -0.3920  0.2786 -0.0981
 1650DOPE   GL119356  11.697  20.962  15.260 -0.2187  0.1193 -0.2646
 1650DOPE   GL219357  11.707  21.236  15.371  0.1461 -0.0785 -0.1206
 1650DOPE   C1A19358  11.988  21.166  14.889  0.2349  0.0156  0.0528
 1650DOPE   D2A19359  12.133  21.119  14.487 -0.0808 -0.0386 -0.0908
 1650DOPE   C3A19360  12.559  21.082  14.313 -0.1570  0.0902 -0.1043
 1650DOPE   C4A19361  12.936  21.240  14.083 -0.1404  0.1855 -0.0272
 1650DOPE   C1B19362  11.530  21.388  15.039 -0.1127  0.0390 -0.3281
 1650DOPE   D2B19363  11.323  21.621  14.702 -0.1595 -0.1957 -0.0683
 1650DOPE   C3B19364  11.221  21.533  14.256  0.0003  0.0249  0.2733
 1650DOPE   C4B19365  11.528  21.418  13.920 -0.0110 -0.0228 -0.2860
 1651DOPS   CNO19366  16.778  12.598  14.815 -0.0571  0.0891 -0.1421
 1651DOPS   PO419367  16.645  12.971  14.897  0.0394  0.1535 -0.0840
 1651DOPS   GL119368  16.468  12.903  14.554  0.1777 -0.1543  0.0967
 1651DOPS   GL219369  16.232  13.064  14.669  0.2639  0.0269  0.1061
 1651DOPS   C1A19370  16.275  12.922  14.156 -0.1909  0.1970 -0.1339
 1651DOPS   D2A19371  15.963  13.108  13.960  0.1290  0.0398 -0.0438
 1651DOPS   C3A19372  16.098  13.343  13.563  0.1463 -0.2056 -0.2460
 1651DOPS   C4A19373  16.343  13.711  13.419  0.1522  0.1135  0.0505
 1651DOPS   C1B19374  16.044  13.437  14.412 -0.5795  0.1172 -0.2024
 1651DOPS   D2B19375  15.989  13.912  14.327 -0.3144 -0.1941 -0.0860
 1651DOPS   C3B19376  15.726  14.120  13.941 -0.3105 -0.2109 -0.1891
 1651DOPS   C4B19377  15.987  14.234  13.569 -0.1608 -0.0981  0.1762
 1652POSM   NC319378  19.415  19.460  14.661  0.1894  0.0519 -0.2129
 1652POSM   PO419379  19.395  19.879  14.684  0.0118 -0.0473 -0.0194
 1652POSM   AM119380  19.264  19.836  14.383 -0.2072  0.2649 -0.2246
 1652POSM   AM219381  19.087  19.999  14.293 -0.1460  0.1029 -0.5797
 1652POSM   T1A19382  18.949  19.568  14.167  0.3021  0.1906  0.1255
 1652POSM   C2A19383  18.660  19.211  14.255  0.0249 -0.0564 -0.0277
 1652POSM   C3A19384  18.466  18.846  14.027  0.0063 -0.1628 -0.0859
 1652POSM   C1B19385  19.071  20.103  13.973  0.0032 -0.3452  0.1759
 1652POSM   D2B19386  19.093  20.106  13.529  0.0620 -0.0418 -0.0565
 1652POSM   C3B19387  19.320  20.254  13.187 -0.0244  0.1030 -0.2282
 1652POSM   C4B19388  19.534  20.530  12.832  0.0050 -0.0856  0.3244
 1653POSM   NC319389  17.089  19.373  15.395 -0.1620  0.2871  0.1933
 1653POSM   PO419390  16.699  19.429  15.446 -0.0657 -0.0460 -0.1596
 1653POSM   AM119391  16.645  19.507  15.115 -0.2596  0.6582 -0.3515
 1653POSM   AM219392  16.801  19.672  14.981  0.1938  0.1475 -0.0011
 1653POSM   T1A19393  16.382  19.636  14.689 -0.2003  0.4129  0.2202
 1653POSM   C2A19394  16.310  20.038  14.467 -0.5601  0.2677  0.2376
 1653POSM   C3A19395  16.426  20.508  14.506 -0.0469  0.0607 -0.0089
 1653POSM   C1B19396  16.897  19.682  14.673  0.0116 -0.1122  0.2843
 1653POSM   D2B19397  16.821  19.827  14.208 -0.0903 -0.4503  0.2489
 1653POSM   C3B19398  16.537  20.168  14.069  0.0642 -0.1094  0.0838
 1653POSM   C4B19399  16.200  20.448  14.023  0.1380  0.1156 -0.0663
 1654DOPC   NC319400  15.062  12.459  14.725  0.0588 -0.0793  0.0811
 1654DOPC   PO419401  14.721  12.438  14.955 -0.0014  0.3171 -0.3029
 1654DOPC   GL119402  14.605  12.350  14.603 -0.1318  0.3095 -0.0231
 1654DOPC   GL219403  14.660  12.079  14.636 -0.2588  0.0278 -0.1075
 1654DOPC   C1A19404  14.357  12.389  14.245  0.0016 -0.1480  0.1410
 1654DOPC   D2A19405  13.999  12.554  14.048 -0.0439 -0.1831  0.0533
 1654DOPC   C3A19406  13.846  12.604  13.638 -0.2813  0.1902  0.1297
 1654DOPC   C4A19407  13.756  12.517  13.187  0.1666  0.2159 -0.2570
 1654DOPC   C1B19408  14.770  11.831  14.302 -0.2364  0.2396  0.1105
 1654DOPC   D2B19409  14.823  11.690  13.829 -0.3324 -0.0687  0.2016
 1654DOPC   C3B19410  14.731  12.035  13.552  0.0492  0.0576  0.2676
 1654DOPC   C4B19411  14.615  12.227  13.120 -0.1257  0.0992 -0.0379
 1655DOPS   CNO19412  19.371  15.746  15.338 -0.1840  0.1255  0.1329
 1655DOPS   PO419413  19.264  15.362  15.296 -0.2854 -0.0810 -0.0046
 1655DOPS   GL119414  19.119  15.540  14.983  0.0172 -0.2520 -0.2079
 1655DOPS   GL219415  18.886  15.733  15.029  0.3616 -0.0510  0.1573
 1655DOPS   C1A19416  19.064  15.408  14.564 -0.0260  0.1320  0.1107
 1655DOPS   D2A19417  18.897  15.478  14.115 -0.0442  0.0566  0.0314
 1655DOPS   C3A19418  19.229  15.581  13.810  0.2319 -0.0264  0.2920
 1655DOPS   C4A19419  19.268  15.541  13.339 -0.2391  0.1938  0.0509
 1655DOPS   C1B19420  18.945  15.856  14.596  0.2858  0.0068 -0.1118
 1655DOPS   D2B19421  19.125  16.055  14.190  0.1977  0.0969  0.0648
 1655DOPS   C3B19422  19.324  16.504  14.233 -0.0434 -0.1478 -0.0471
 1655DOPS   C4B19423  19.485  16.897  14.063 -0.1100  0.0522  0.3491
 1656DOPE   NH319424  20.324  21.683  15.136 -0.1072 -0.0839 -0.1829
 1656DOPE   PO419425  20.555  21.811  14.982  0.3922  0.0577  0.0805
 1656DOPE   GL119426  20.689  22.029  14.666  0.1596 -0.1037  0.2050
 1656DOPE   GL219427  20.592  22.304  14.833 -0.0341 -0.1821 -0.0098
 1656DOPE   C1A19428  20.968  22.285  14.394  0.0370 -0.2655 -0.0451
 1656DOPE   D2A19429  21.128  22.770  14.494  0.0391 -0.0084 -0.0247
 1656DOPE   C3A19430  21.433  22.993  14.250  0.0648  0.0880  0.0251
 1656DOPE   C4A19431  21.651  23.413  14.167  0.1376  0.2480 -0.0564
 1656DOPE   C1B19432  20.561  22.612  14.488 -0.0805  0.1263  0.0294
 1656DOPE   D2B19433  20.613  22.581  14.056 -0.0155  0.2952 -0.1405
 1656DOPE   C3B19434  20.580  22.887  13.687  0.6482  0.2659  0.0562
 1656DOPE   C4B19435  20.358  23.220  13.527  0.2280 -0.2678 -0.3388
 1657POSM   NC319436  21.017  18.077  14.708 -0.3203  0.1555  0.0836
 1657POSM   PO419437  21.279  17.933  14.960  0.3224  0.2239  0.1305
 1657POSM   AM119438  21.388  17.795  14.672  0.1088  0.0271  0.0421
 1657POSM   AM219439  21.536  17.930  14.458 -0.1044 -0.0298 -0.3423
 1657POSM   T1A19440  21.470  17.357  14.471  0.1519 -0.0454 -0.1219
 1657POSM   C2A19441  21.365  17.309  14.039  0.2185 -0.2223 -0.0786
 1657POSM   C3A19442  21.536  17.201  13.652 -0.1655  0.1595  0.3006
 1657POSM   C1B19443  21.510  17.803  14.174 -0.0294 -0.2093 -0.1769
 1657POSM   D2B19444  21.401  17.721  13.736  0.2717  0.0205 -0.0232
 1657POSM   C3B19445  21.680  17.687  13.319  0.0707 -0.3796 -0.1053
 1657POSM   C4B19446  21.769  17.546  12.902 -0.0096  0.3384  0.1534
 1658POSM   NC319447  22.630  13.104  15.582 -0.0428  0.2924  0.0161
 1658POSM   PO419448  22.691  12.939  15.212  0.0502 -0.0822 -0.0871
 1658POSM   AM119449  22.632  13.014  14.901  0.0310 -0.0771 -0.0607
 1658POSM   AM219450  22.746  13.230  14.760 -0.0239 -0.0783 -0.2748
 1658POSM   T1A19451  22.792  12.841  14.450  0.1724  0.0922 -0.0821
 1658POSM   C2A19452  23.069  12.749  14.083 -0.1907 -0.1587  0.2937
 1658POSM   C3A19453  23.193  12.909  13.701  0.2205  0.1116  0.3645
 1658POSM   C1B19454  22.880  13.313  14.500 -0.2035 -0.0659  0.0112
 1658POSM   D2B19455  23.204  13.208  14.163 -0.0788  0.2171  0.0124
 1658POSM   C3B19456  23.045  13.382  13.793 -0.2302 -0.1477 -0.3375
 1658POSM   C4B19457  22.868  13.788  13.702  0.1773 -0.1773 -0.2433
 1659DOPC   NC319458  13.450  20.013  15.618  0.0241  0.1421  0.1757
 1659DOPC   PO419459  13.105  19.818  15.538  0.1275 -0.0761  0.0293
 1659DOPC   GL119460  12.898  19.913  15.170  0.3402 -0.0078  0.0713
 1659DOPC   GL219461  12.620  19.917  15.181  0.0837 -0.1053 -0.0740
 1659DOPC   C1A19462  12.664  19.499  14.924  0.1092  0.1870 -0.2522
 1659DOPC   D2A19463  12.336  19.285  14.712 -0.4166 -0.1194 -0.2643
 1659DOPC   C3A19464  11.923  19.170  14.493 -0.0747 -0.3306  0.0348
 1659DOPC   C4A19465  11.839  18.780  14.260 -0.1476 -0.0791  0.0263
 1659DOPC   C1B19466  12.693  20.346  15.032  0.1415 -0.1635 -0.0581
 1659DOPC   D2B19467  12.564  20.758  14.864 -0.1701 -0.2265 -0.2764
 1659DOPC   C3B19468  12.897  20.981  14.663  0.0287 -0.0243 -0.2619
 1659DOPC   C4B19469  13.244  21.177  14.882 -0.1156  0.0651  0.1802
 1660DOPC   NC319470  13.048  13.393  15.642  0.0356  0.2091  0.0459
 1660DOPC   PO419471  13.010  13.625  15.286  0.1014  0.0999 -0.1222
 1660DOPC   GL119472  12.687  13.796  14.957 -0.2849  0.0927  0.1529
 1660DOPC   GL219473  12.951  13.906  14.850  0.0016 -0.3557  0.1154
 1660DOPC   C1A19474  12.444  14.210  14.895 -0.0157 -0.0198 -0.2051
 1660DOPC   D2A19475  12.629  14.589  14.646 -0.1756  0.1598  0.1144
 1660DOPC   C3A19476  12.990  14.561  14.341 -0.2018 -0.1823  0.5076
 1660DOPC   C4A19477  13.246  14.419  13.927 -0.2468  0.1836 -0.1297
 1660DOPC   C1B19478  12.908  13.757  14.411 -0.2199 -0.0687 -0.2518
 1660DOPC   D2B19479  12.836  14.018  14.036 -0.0740 -0.1161  0.0441
 1660DOPC   C3B19480  12.640  14.308  13.713  0.1480  0.0290  0.0270
 1660DOPC   C4B19481  12.478  14.428  13.291 -0.1620  0.0034 -0.3283
 1661POSM   NC319482  18.239  12.030  14.873  0.1769 -0.1678  0.3197
 1661POSM   PO419483  18.041  12.075  15.190 -0.1921  0.0976 -0.1110
 1661POSM   AM119484  17.863  11.867  14.999  0.1106 -0.0671 -0.0043
 1661POSM   AM219485  17.714  11.949  14.786 -0.1638  0.1442  0.2727
 1661POSM   T1A19486  18.022  11.515  14.662  0.1723 -0.0775  0.0155
 1661POSM   C2A19487  18.244  11.152  14.451  0.4224  0.2618 -0.0820
 1661POSM   C3A19488  18.491  11.057  14.089  0.0209  0.0470  0.2742
 1661POSM   C1B19489  17.765  11.889  14.424 -0.1058 -0.1719  0.0227
 1661POSM   D2B19490  17.888  11.956  13.954  0.2171 -0.0675 -0.2291
 1661POSM   C3B19491  18.269  11.711  13.854  0.1131 -0.3142 -0.0163
 1661POSM   C4B19492  18.677  11.488  13.782 -0.0676  0.1096  0.1598
 1662POSM   NC319493  23.045  16.649  15.181  0.1267  0.4107 -0.1378
 1662POSM   PO419494  22.724  16.836  15.115 -0.0529  0.2311 -0.1787
 1662POSM   AM119495  22.758  16.959  14.825  0.5663 -0.0354 -0.1392
 1662POSM   AM219496  22.914  17.121  14.661  0.1723  0.1146 -0.0910
 1662POSM   T1A19497  22.614  16.782  14.338 -0.0820 -0.1061 -0.1995
 1662POSM   C2A19498  22.577  16.476  14.066 -0.1011 -0.3798  0.0145
 1662POSM   C3A19499  22.636  16.260  13.695  0.1552 -0.3002  0.2350
 1662POSM   C1B19500  23.078  17.321  14.453 -0.0237  0.0769 -0.3202
 1662POSM   D2B19501  23.322  17.444  14.092 -0.1243  0.0598 -0.2053
 1662POSM   C3B19502  23.191  17.325  13.644 -0.0906 -0.0856 -0.2756
 1662POSM   C4B19503  22.800  17.484  13.432  0.2902  0.2769 -0.3297
 1663DOPE   NH319504  20.995  22.818  15.649 -0.0795 -0.3602 -0.1126
 1663DOPE   PO419505  21.264  22.657  15.585 -0.1011  0.1742  0.2414
 1663DOPE   GL119506  21.548  22.769  15.230  0.3167 -0.0627  0.2208
 1663DOPE   GL219507  21.401  22.561  15.143 -0.1111  0.2513 -0.3226
 1663DOPE   C1A19508  21.846  22.688  14.868  0.5293  0.0745  0.1106
 1663DOPE   D2A19509  22.043  22.392  14.510  0.0399 -0.0089  0.0472
 1663DOPE   C3A19510  21.911  22.210  14.092  0.2325 -0.1883 -0.1354
 1663DOPE   C4A19511  21.852  22.076  13.684  0.0428 -0.0745  0.1040
 1663DOPE   C1B19512  21.391  22.393  14.744  0.3555  0.1469  0.2911
 1663DOPE   D2B19513  21.520  22.499  14.340 -0.0840  0.0809  0.1072
 1663DOPE   C3B19514  21.466  22.272  13.945  0.0057  0.0742 -0.3987
 1663DOPE   C4B19515  21.362  22.307  13.525  0.0309  0.0620  0.1679
 1664DOPC   NC319516  18.476  21.146  15.081 -0.1972  0.3662  0.2651
 1664DOPC   PO419517  18.601  21.480  15.191 -0.0789  0.2771  0.2214
 1664DOPC   GL119518  18.767  21.518  14.891  0.2812  0.0287  0.1331
 1664DOPC   GL219519  18.797  21.336  14.703 -0.1722  0.0762  0.2002
 1664DOPC   C1A19520  18.624  21.803  14.579 -0.0053  0.3404  0.0876
 1664DOPC   D2A19521  18.351  21.801  14.193 -0.2551 -0.2242 -0.1484
 1664DOPC   C3A19522  18.180  21.551  13.788 -0.1385  0.2918 -0.1349
 1664DOPC   C4A19523  18.009  21.469  13.403 -0.0446 -0.0763  0.2835
 1664DOPC   C1B19524  18.903  21.071  14.361  0.0139 -0.0767 -0.4128
 1664DOPC   D2B19525  18.873  20.642  14.135 -0.1394  0.2650  0.1488
 1664DOPC   C3B19526  18.937  20.594  13.709 -0.1454  0.1159 -0.0896
 1664DOPC   C4B19527  18.647  20.734  13.263  0.2349 -0.0561 -0.0093
 1665DOPE   NH319528  20.145  17.403  15.138 -0.0291  0.1823  0.0020
 1665DOPE   PO419529  19.929  17.633  15.066 -0.1453  0.3681  0.2268
 1665DOPE   GL119530  19.657  17.735  14.742  0.0712 -0.3050  0.4927
 1665DOPE   GL219531  19.554  17.568  14.473 -0.0588 -0.0621  0.0385
 1665DOPE   C1A19532  19.582  18.181  14.486 -0.1287  0.1131  0.1565
 1665DOPE   D2A19533  19.667  18.367  14.107  0.1635  0.1045  0.2552
 1665DOPE   C3A19534  19.460  18.729  14.004  0.1274 -0.0756 -0.2375
 1665DOPE   C4A19535  19.004  18.930  13.969 -0.0765 -0.0620  0.1381
 1665DOPE   C1B19536  19.297  17.317  14.239 -0.2169 -0.0586  0.1527
 1665DOPE   D2B19537  18.996  17.191  13.897 -0.0105  0.2471  0.1974
 1665DOPE   C3B19538  18.779  17.560  13.650  0.1083  0.0597 -0.3413
 1665DOPE   C4B19539  18.479  17.700  13.384 -0.0039  0.2438 -0.1139
 1666DOPE   NH319540  22.711  15.015  14.709 -0.3540 -0.1210  0.3372
 1666DOPE   PO419541  22.399  15.083  14.809 -0.1744 -0.0321  0.1369
 1666DOPE   GL119542  22.308  14.979  14.409  0.1236  0.2826  0.0474
 1666DOPE   GL219543  22.564  14.925  14.154 -0.2623 -0.0812 -0.0101
 1666DOPE   C1A19544  22.162  14.612  14.171  0.1153  0.0293 -0.0608
 1666DOPE   D2A19545  21.767  14.351  14.150  0.1336 -0.1181  0.2532
 1666DOPE   C3A19546  21.557  14.225  13.744  0.3971 -0.1869  0.0267
 1666DOPE   C4A19547  21.403  13.774  13.516  0.0777  0.1640  0.0249
 1666DOPE   C1B19548  22.212  15.087  13.818 -0.0877 -0.0869 -0.1137
 1666DOPE   D2B19549  22.115  15.216  13.391  0.1377 -0.0228  0.0635
 1666DOPE   C3B19550  21.840  15.475  13.131  0.1154 -0.1261  0.2551
 1666DOPE   C4B19551  21.451  15.343  12.865 -0.0852 -0.1205  0.2663
 1667DOPE   NH319552  19.069  13.980  15.326  0.5435  0.0207 -0.2172
 1667DOPE   PO419553  19.081  14.054  15.003 -0.2416  0.1305  0.1763
 1667DOPE   GL119554  18.916  14.229  14.693 -0.1277  0.1423 -0.3529
 1667DOPE   GL219555  18.705  14.413  14.726  0.3232 -0.0993  0.0825
 1667DOPE   C1A19556  18.641  14.078  14.347  0.2713 -0.0165 -0.0846
 1667DOPE   D2A19557  18.344  14.039  13.982  0.0729  0.1031  0.2066
 1667DOPE   C3A19558  18.429  14.365  13.652 -0.2350  0.0090 -0.2507
 1667DOPE   C4A19559  18.334  14.805  13.560  0.1556  0.2865 -0.0353
 1667DOPE   C1B19560  18.864  14.583  14.311  0.1485 -0.3202  0.0699
 1667DOPE   D2B19561  19.124  14.893  14.103  0.1333 -0.0192 -0.2235
 1667DOPE   C3B19562  19.480  15.114  14.000  0.1372  0.2150  0.0603
 1667DOPE   C4B19563  19.720  15.412  13.772  0.0432  0.1457  0.1597
 1668DOPS   CNO19564  12.631  16.947  15.482 -0.1355  0.0534  0.1268
 1668DOPS   PO419565  12.360  17.161  15.355  0.4564 -0.0809  0.1910
 1668DOPS   GL119566  12.487  17.355  15.066 -0.5400 -0.1361 -0.1021
 1668DOPS   GL219567  12.322  17.231  14.831  0.0878 -0.2427 -0.0961
 1668DOPS   C1A19568  12.664  17.471  14.613  0.0572 -0.2253 -0.2591
 1668DOPS   D2A19569  12.893  17.646  14.219  0.1701 -0.1016  0.0890
 1668DOPS   C3A19570  12.778  18.061  14.083  0.2132 -0.1819  0.0764
 1668DOPS   C4A19571  13.026  18.402  13.867  0.0368 -0.1113  0.1581
 1668DOPS   C1B19572  12.224  17.439  14.377 -0.2013 -0.1773  0.0084
 1668DOPS   D2B19573  12.417  17.728  14.041  0.3972 -0.1935  0.1390
 1668DOPS   C3B19574  12.438  17.859  13.574 -0.0707  0.1371 -0.4911
 1668DOPS   C4B19575  12.100  17.663  13.294 -0.1492  0.0307 -0.2007
 1669DOPE   NH319576  18.333  19.153  15.655 -0.0482 -0.0915  0.3799
 1669DOPE   PO419577  18.117  19.050  15.434  0.0169 -0.0033  0.1415
 1669DOPE   GL119578  18.132  19.015  15.029 -0.0380 -0.0896 -0.1725
 1669DOPE   GL219579  18.075  18.784  14.857 -0.0170  0.1692 -0.1770
 1669DOPE   C1A19580  18.388  19.262  14.695  0.5243  0.4060 -0.2204
 1669DOPE   D2A19581  18.410  19.635  14.397 -0.3068 -0.0181  0.0173
 1669DOPE   C3A19582  18.243  19.825  14.017 -0.1678  0.1164 -0.5555
 1669DOPE   C4A19583  18.219  19.793  13.565  0.0911 -0.2529  0.1708
 1669DOPE   C1B19584  18.086  18.858  14.398  0.1741 -0.0044  0.2081
 1669DOPE   D2B19585  18.178  19.226  14.219 -0.2717  0.3555  0.0165
 1669DOPE   C3B19586  18.369  19.353  13.802 -0.0566  0.3489  0.0236
 1669DOPE   C4B19587  18.653  19.699  13.759 -0.3511 -0.3448  0.2212
 1670DOPE   NH319588  14.577  18.382  15.378  0.0762 -0.3750  0.1307
 1670DOPE   PO419589  14.690  18.663  15.420 -0.0501  0.0702  0.0118
 1670DOPE   GL119590  14.579  18.722  15.019  0.3579 -0.1500  0.1319
 1670DOPE   GL219591  14.701  18.988  14.987 -0.3352 -0.2737  0.3278
 1670DOPE   C1A19592  14.467  18.546  14.572  0.1438 -0.1300 -0.3122
 1670DOPE   D2A19593  14.744  18.358  14.250  0.1077 -0.0722  0.1210
 1670DOPE   C3A19594  15.093  18.524  14.044  0.0215  0.0433 -0.1335
 1670DOPE   C4A19595  15.522  18.627  13.825 -0.1184  0.3020 -0.3674
 1670DOPE   C1B19596  15.018  18.763  14.771 -0.3809 -0.1030  0.3083
 1670DOPE   D2B19597  15.200  18.348  14.522  0.0292 -0.1492 -0.0212
 1670DOPE   C3B19598  15.546  18.355  14.252  0.2807  0.2044 -0.0248
 1670DOPE   C4B19599  15.867  18.283  13.910 -0.1586  0.1225  0.0524
 1671POSM   NC319600  15.252  12.307  15.145  0.1657  0.0868  0.0544
 1671POSM   PO419601  15.021  12.014  14.971 -0.1779 -0.4168  0.1168
 1671POSM   AM119602  15.125  12.013  14.649  0.1155  0.2954  0.1923
 1671POSM   AM219603  15.308  12.095  14.482  0.3904  0.1119  0.0674
 1671POSM   T1A19604  15.231  11.755  14.163  0.0314  0.3167 -0.0333
 1671POSM   C2A19605  15.330  11.707  13.745 -0.0629 -0.0482 -0.1250
 1671POSM   C3A19606  15.620  11.592  13.375  0.2498 -0.2177 -0.0455
 1671POSM   C1B19607  15.219  12.277  14.234 -0.0482 -0.1197  0.0525
 1671POSM   D2B19608  15.104  12.644  13.964  0.0848  0.2239  0.1007
 1671POSM   C3B19609  15.431  12.625  13.580  0.2784 -0.1307 -0.1189
 1671POSM   C4B19610  15.785  12.910  13.456  0.2044 -0.4867  0.1466
 1672POSM   NC319611  16.218  15.396  15.329  0.1123  0.1023  0.2108
 1672POSM   PO419612  16.275  15.131  15.028  0.1454 -0.0069 -0.0136
 1672POSM   AM119613  16.341  15.189  14.708  0.3606 -0.4333  0.1794
 1672POSM   AM219614  16.227  15.345  14.499  0.1528 -0.0856 -0.0953
 1672POSM   T1A19615  16.660  15.178  14.304 -0.2600 -0.1929 -0.3237
 1672POSM   C2A19616  16.900  15.503  14.055  0.0698  0.0389  0.0370
 1672POSM   C3A19617  16.917  15.914  13.805  0.0536 -0.3006  0.2091
 1672POSM   C1B19618  15.923  15.296  14.308  0.2389 -0.0680  0.0162
 1672POSM   D2B19619  15.808  15.232  13.854 -0.0336 -0.4393 -0.2061
 1672POSM   C3B19620  15.868  14.993  13.487  0.0002 -0.1278  0.0781
 1672POSM   C4B19621  15.974  14.631  13.199  0.0648 -0.0236  0.3075
 1673DOPC   NC319622  16.999  18.507  15.253  0.0615  0.0186 -0.0755
 1673DOPC   PO419623  17.390  18.623  15.393  0.1376  0.0532  0.0956
 1673DOPC   GL119624  17.393  18.502  15.022 -0.3436 -0.3107 -0.3505
 1673DOPC   GL219625  17.515  18.721  14.896  0.0716 -0.0218  0.1374
 1673DOPC   C1A19626  17.384  18.289  14.618 -0.1375 -0.0554  0.0137
 1673DOPC   D2A19627  17.392  18.351  14.187 -0.0012  0.0445 -0.0110
 1673DOPC   C3A19628  17.364  18.545  13.791 -0.0938  0.0737 -0.2382
 1673DOPC   C4A19629  17.602  18.834  13.515  0.1238  0.1045 -0.0321
 1673DOPC   C1B19630  17.614  18.742  14.453 -0.1490 -0.1260 -0.1076
 1673DOPC   D2B19631  17.774  18.615  14.036  0.3349 -0.2475 -0.0130
 1673DOPC   C3B19632  18.177  18.455  14.074 -0.3668 -0.1502  0.3398
 1673DOPC   C4B19633  18.615  18.344  14.110 -0.1380 -0.1128 -0.0867
 1674DOPC   NC319634  15.346  20.729  15.439 -0.1035 -0.0780  0.2821
 1674DOPC   PO419635  15.336  20.752  15.045 -0.5549  0.3435 -0.1453
 1674DOPC   GL119636  15.260  20.494  14.772 -0.0183 -0.3417  0.3224
 1674DOPC   GL219637  15.305  20.676  14.542 -0.2342  0.3469 -0.1300
 1674DOPC   C1A19638  15.373  20.142  14.448 -0.0448  0.1659  0.2566
 1674DOPC   D2A19639  15.609  19.893  14.108  0.1533 -0.0196 -0.1844
 1674DOPC   C3A19640  15.443  19.581  13.793  0.2103 -0.2073 -0.1065
 1674DOPC   C4A19641  15.331  19.566  13.361 -0.1486 -0.2356 -0.0454
 1674DOPC   C1B19642  15.498  20.557  14.114 -0.0061  0.1555 -0.1491
 1674DOPC   D2B19643  15.425  20.510  13.650 -0.0147 -0.1351 -0.2645
 1674DOPC   C3B19644  14.974  20.413  13.614  0.3168  0.0038 -0.0087
 1674DOPC   C4B19645  14.728  20.543  13.210 -0.0496  0.1680  0.1914
 1675POSM   NC319646  14.938  21.408  15.057 -0.2281  0.2268  0.2172
 1675POSM   PO419647  14.711  21.731  15.080 -0.0902 -0.0883 -0.0288
 1675POSM   AM119648  14.564  21.555  14.827 -0.3522 -0.1662  0.2099
 1675POSM   AM219649  14.634  21.339  14.638 -0.1423 -0.0251  0.2412
 1675POSM   T1A19650  14.189  21.477  14.532 -0.2835  0.0812 -0.2690
 1675POSM   C2A19651  14.243  21.512  14.083 -0.1501  0.0783  0.0049
 1675POSM   C3A19652  14.102  21.758  13.647  0.0425 -0.0399  0.0616
 1675POSM   C1B19653  14.531  21.157  14.354  0.1154 -0.0545 -0.1074
 1675POSM   D2B19654  14.482  20.974  13.917  0.1448 -0.2195 -0.2117
 1675POSM   C3B19655  14.124  20.682  13.763  0.1380 -0.0620 -0.1190
 1675POSM   C4B19656  13.918  20.307  13.963  0.0932 -0.0408  0.3143
 1676DOPC   NC319657  20.152  13.839  15.230  0.2437 -0.1185  0.0842
 1676DOPC   PO419658  20.421  14.084  15.448  0.0373  0.0444 -0.0235
 1676DOPC   GL119659  20.549  13.949  15.055  0.3864  0.0394  0.5371
 1676DOPC   GL219660  20.597  14.260  14.923 -0.2618  0.3654  0.2401
 1676DOPC   C1A19661  20.560  13.785  14.636 -0.2613  0.0269  0.0271
 1676DOPC   D2A19662  20.363  13.496  14.326  0.1234  0.0467 -0.2447
 1676DOPC   C3A19663  20.545  13.767  13.985  0.1594 -0.1928  0.0297
 1676DOPC   C4A19664  20.922  13.965  13.745  0.0417 -0.0191 -0.0423
 1676DOPC   C1B19665  20.730  14.556  14.545  0.1023  0.0520  0.0566
 1676DOPC   D2B19666  20.630  14.984  14.353 -0.1222  0.1387 -0.0992
 1676DOPC   C3B19667  20.677  15.015  13.860  0.0530 -0.0794  0.0088
 1676DOPC   C4B19668  20.525  14.909  13.455 -0.2900 -0.2844  0.3030
 1677POSM   NC319669  11.066  19.383  15.486 -0.0938  0.3778  0.3016
 1677POSM   PO419670  11.367  19.525  15.750  0.0042 -0.2238 -0.0482
 1677POSM   AM119671  11.505  19.428  15.479 -0.3277 -0.0421 -0.2117
 1677POSM   AM219672  11.694  19.583  15.351  0.1457 -0.4145  0.0804
 1677POSM   T1A19673  11.436  19.269  15.012  0.1546  0.1287  0.2287
 1677POSM   C2A19674  11.230  19.174  14.598  0.2288 -0.3741  0.0784
 1677POSM   C3A19675  11.248  19.021  14.165 -0.0094  0.1640 -0.0968
 1677POSM   C1B19676  11.681  19.698  15.066 -0.1191  0.0894  0.0587
 1677POSM   D2B19677  11.647  19.589  14.644  0.0127 -0.1745  0.0581
 1677POSM   C3B19678  11.600  19.398  14.227 -0.1407  0.0990  0.0736
 1677POSM   C4B19679  11.628  19.106  13.861  0.0846 -0.0105  0.3178
 1678DOPC   NC319680  14.558  17.270  14.992  0.3310  0.0891 -0.1813
 1678DOPC   PO419681  14.427  16.889  15.068  0.0186  0.1785 -0.1539
 1678DOPC   GL119682  14.373  16.885  14.714 -0.0192  0.1362  0.4397
 1678DOPC   GL219683  14.524  16.673  14.625  0.1706 -0.1627 -0.1936
 1678DOPC   C1A19684  14.518  17.231  14.427  0.2288  0.0145 -0.0210
 1678DOPC   D2A19685  14.691  17.452  14.016  0.4080  0.1243  0.0850
 1678DOPC   C3A19686  15.139  17.499  13.893  0.0373  0.2660  0.2416
 1678DOPC   C4A19687  15.550  17.375  13.808  0.1784 -0.0107 -0.1203
 1678DOPC   C1B19688  14.560  16.737  14.178 -0.0338 -0.0614  0.2183
 1678DOPC   D2B19689  14.608  16.936  13.729  0.1063  0.0846  0.0703
 1678DOPC   C3B19690  14.878  17.187  13.409  0.1382 -0.0240 -0.0541
 1678DOPC   C4B19691  14.967  17.651  13.421 -0.0852  0.0379 -0.0757
 1679POSM   NC319692  13.607  22.132  15.277  0.0476 -0.1735  0.1339
 1679POSM   PO419693  13.351  22.349  15.489 -0.4655  0.1995 -0.2086
 1679POSM   AM119694  13.277  22.480  15.225  0.0863 -0.0097  0.1088
 1679POSM   AM219695  13.434  22.636  15.075  0.1638 -0.1235  0.1587
 1679POSM   T1A19696  12.939  22.610  14.815 -0.0423  0.2263  0.2227
 1679POSM   C2A19697  12.762  22.725  14.409  0.1151  0.0663 -0.1399
 1679POSM   C3A19698  12.519  22.651  14.061  0.2481 -0.2271 -0.1104
 1679POSM   C1B19699  13.485  22.684  14.705  0.1988 -0.0751  0.1942
 1679POSM   D2B19700  13.291  22.565  14.307 -0.2093  0.0292  0.0100
 1679POSM   C3B19701  13.030  22.287  14.014  0.1338 -0.1266  0.3350
 1679POSM   C4B19702  13.163  22.064  13.611  0.0823  0.0138 -0.0319
 1680DOPE   NH319703  14.893  19.157  15.373  0.0998  0.2707 -0.0415
 1680DOPE   PO419704  15.083  19.386  15.238  0.3510  0.0089 -0.5986
 1680DOPE   GL119705  15.319  19.398  14.877 -0.0791 -0.4839  0.3543
 1680DOPE   GL219706  15.017  19.281  14.727 -0.0451 -0.0678 -0.0282
 1680DOPE   C1A19707  15.537  19.343  14.444  0.2419 -0.1336  0.0549
 1680DOPE   D2A19708  15.098  19.257  14.244  0.0410 -0.0454 -0.0860
 1680DOPE   C3A19709  15.133  19.024  13.880  0.2838 -0.2342  0.0397
 1680DOPE   C4A19710  15.110  18.701  13.584 -0.0294  0.0601 -0.0712
 1680DOPE   C1B19711  14.679  19.359  14.475  0.0387 -0.1110 -0.0419
 1680DOPE   D2B19712  14.331  19.103  14.244 -0.2756  0.2445  0.4101
 1680DOPE   C3B19713  14.232  19.027  13.788  0.0844  0.1226 -0.0941
 1680DOPE   C4B19714  14.291  18.955  13.367 -0.1111 -0.2057 -0.3871
 1681DOPC   NC319715  22.211  13.984  15.431  0.0746  0.4394  0.3616
 1681DOPC   PO419716  21.849  13.931  15.256 -0.0137  0.0230  0.0357
 1681DOPC   GL119717  21.520  13.839  14.933 -0.2087  0.0607 -0.1218
 1681DOPC   GL219718  21.789  13.753  14.768 -0.2686  0.1899  0.0913
 1681DOPC   C1A19719  21.441  13.365  14.873  0.3054 -0.0605  0.1015
 1681DOPC   D2A19720  21.180  13.012  14.772 -0.0323 -0.2137  0.1078
 1681DOPC   C3A19721  21.293  12.680  14.518 -0.2327  0.0380 -0.3219
 1681DOPC   C4A19722  21.196  12.503  14.157 -0.0367 -0.0353 -0.2552
 1681DOPC   C1B19723  21.818  13.842  14.272 -0.0534  0.2862 -0.1184
 1681DOPC   D2B19724  22.026  13.926  13.860  0.1107  0.1803 -0.3844
 1681DOPC   C3B19725  22.043  14.352  13.675  0.1602  0.0748  0.0487
 1681DOPC   C4B19726  21.892  14.736  13.627  0.2019 -0.0331 -0.1861
 1682DOPC   NC319727  17.765  12.474  14.935 -0.0165  0.1332  0.2470
 1682DOPC   PO419728  18.151  12.528  14.957  0.2481 -0.2053 -0.1754
 1682DOPC   GL119729  18.243  12.786  14.662  0.1349 -0.1763 -0.3397
 1682DOPC   GL219730  18.211  12.550  14.427  0.3035  0.0595  0.1726
 1682DOPC   C1A19731  18.421  12.987  14.254  0.0638 -0.0285  0.0475
 1682DOPC   D2A19732  18.383  13.099  13.794  0.1363  0.2536  0.0219
 1682DOPC   C3A19733  18.729  12.933  13.521 -0.4082  0.1179  0.0743
 1682DOPC   C4A19734  18.881  12.506  13.418 -0.0365  0.1278 -0.0976
 1682DOPC   C1B19735  18.297  12.132  14.313 -0.2833 -0.1077  0.0319
 1682DOPC   D2B19736  18.304  11.671  14.350 -0.1773 -0.2305  0.2690
 1682DOPC   C3B19737  17.997  11.377  14.128  0.2041 -0.2167 -0.0243
 1682DOPC   C4B19738  17.762  11.360  13.804  0.1420  0.0459 -0.0624
 1683DOPC   NC319739  15.506  16.947  14.458 -0.2057  0.1452 -0.0411
 1683DOPC   PO419740  15.786  16.824  14.632  0.4561 -0.1958  0.2195
 1683DOPC   GL119741  15.960  17.001  14.336 -0.1177 -0.1485  0.1279
 1683DOPC   GL219742  15.741  16.963  14.047  0.0482 -0.4715 -0.1152
 1683DOPC   C1A19743  16.348  17.185  14.097 -0.0937 -0.3237  0.3490
 1683DOPC   D2A19744  16.499  17.329  13.732  0.0646 -0.2740  0.3204
 1683DOPC   C3A19745  16.342  17.608  13.386 -0.0172 -0.0942 -0.1674
 1683DOPC   C4A19746  16.434  17.992  13.136  0.2204 -0.1400  0.0818
 1683DOPC   C1B19747  15.578  16.578  13.952 -0.0106 -0.0598  0.3819
 1683DOPC   D2B19748  15.164  16.268  13.807  0.3187 -0.0677 -0.1224
 1683DOPC   C3B19749  14.847  16.454  13.548 -0.1405 -0.2428 -0.1915
 1683DOPC   C4B19750  14.658  16.558  13.138 -0.0781 -0.0653 -0.0667
 1684DOPC   NC319751  21.496  20.289  15.284  0.3341  0.0539  0.2271
 1684DOPC   PO419752  21.520  20.467  14.903  0.0084 -0.0988 -0.0202
 1684DOPC   GL119753  21.625  20.216  14.611  0.0690 -0.1554  0.1384
 1684DOPC   GL219754  21.814  20.178  14.590  0.4430 -0.0732 -0.0436
 1684DOPC   C1A19755  21.581  20.267  14.173  0.0482 -0.1347 -0.0060
 1684DOPC   D2A19756  21.509  20.495  13.780  0.1259 -0.1312  0.0275
 1684DOPC   C3A19757  21.126  20.747  13.708 -0.2929  0.0505  0.0127
 1684DOPC   C4A19758  20.805  21.088  13.580 -0.1803 -0.2585 -0.1385
 1684DOPC   C1B19759  21.907  19.725  14.536 -0.0770  0.0546  0.2938
 1684DOPC   D2B19760  22.111  19.535  14.142  0.3300  0.3020 -0.2000
 1684DOPC   C3B19761  21.990  19.161  13.870  0.0574 -0.1453 -0.1172
 1684DOPC   C4B19762  21.834  18.964  13.457 -0.1102  0.0694 -0.0028
 1685DOPS   CNO19763  17.405  17.559  14.826 -0.1141 -0.1507 -0.1644
 1685DOPS   PO419764  17.719  17.408  14.912 -0.1731 -0.1239  0.2054
 1685DOPS   GL119765  17.902  17.477  14.617  0.0411  0.0445 -0.1419
 1685DOPS   GL219766  17.846  17.743  14.509  0.0566 -0.0686  0.0255
 1685DOPS   C1A19767  18.100  17.209  14.297 -0.0055  0.1284  0.1334
 1685DOPS   D2A19768  18.033  17.106  13.887  0.2382  0.0477 -0.1000
 1685DOPS   C3A19769  18.012  17.207  13.396  0.1134  0.1400 -0.0247
 1685DOPS   C4A19770  17.869  17.099  12.949  0.1284  0.0186 -0.4035
 1685DOPS   C1B19771  17.642  17.460  14.191 -0.3960 -0.0887 -0.1034
 1685DOPS   D2B19772  17.635  17.367  13.740 -0.1314 -0.2354  0.1013
 1685DOPS   C3B19773  17.653  16.944  13.543 -0.1430 -0.0182  0.1124
 1685DOPS   C4B19774  17.702  16.687  13.171  0.0132 -0.3864 -0.1094
 1686DOPC   NC319775  17.969  16.372  14.880  0.0502  0.0741  0.1123
 1686DOPC   PO419776  18.280  16.091  14.859  0.0556  0.0673 -0.1397
 1686DOPC   GL119777  18.154  16.018  14.418 -0.1935 -0.1045 -0.1551
 1686DOPC   GL219778  18.117  16.303  14.378  0.0148 -0.1374 -0.1456
 1686DOPC   C1A19779  18.481  15.795  14.171 -0.0206  0.2012 -0.4131
 1686DOPC   D2A19780  18.765  15.846  13.811 -0.1137 -0.2716 -0.1217
 1686DOPC   C3A19781  18.775  15.665  13.404 -0.2530  0.0873 -0.0793
 1686DOPC   C4A19782  18.895  15.796  12.975 -0.1619 -0.0804 -0.3519
 1686DOPC   C1B19783  17.866  16.396  13.997 -0.1043  0.2141  0.1577
 1686DOPC   D2B19784  18.082  16.683  13.683  0.1410 -0.1279 -0.0154
 1686DOPC   C3B19785  18.169  16.442  13.327  0.2246 -0.1112  0.1585
 1686DOPC   C4B19786  18.207  16.737  12.964 -0.0224  0.0672 -0.1957
 1687DOPS   CNO19787  19.865  19.061  14.446 -0.1106 -0.0994  0.1434
 1687DOPS   PO419788  19.864  19.322  14.676  0.0220 -0.0327  0.1915
 1687DOPS   GL119789  19.861  19.552  14.305 -0.2125 -0.0148 -0.0295
 1687DOPS   GL219790  19.645  19.644  14.244  0.2264  0.0098 -0.4185
 1687DOPS   C1A19791  19.827  19.530  13.828  0.1323  0.1390  0.1706
 1687DOPS   D2A19792  19.874  19.483  13.373 -0.1781  0.0504 -0.0489
 1687DOPS   C3A19793  20.073  19.673  13.007  0.0331 -0.0042  0.1511
 1687DOPS   C4A19794  20.353  20.078  12.850 -0.0566  0.2424 -0.2259
 1687DOPS   C1B19795  19.382  19.664  13.868 -0.2781  0.0606 -0.1826
 1687DOPS   D2B19796  19.065  19.631  13.492  0.0417 -0.1603  0.2168
 1687DOPS   C3B19797  18.939  19.831  13.106 -0.0187 -0.2609 -0.1252
 1687DOPS   C4B19798  18.680  19.817  12.689  0.1249 -0.2204  0.1171
 1688POSM   NC319799  23.057  12.523  15.503 -0.0758 -0.2236  0.0796
 1688POSM   PO419800  23.010  12.279  15.794  0.2960 -0.3464 -0.1190
 1688POSM   AM119801  23.103  12.059  15.601  0.1493 -0.3604  0.3125
 1688POSM   AM219802  23.139  11.768  15.631  0.1391  0.4126  0.1645
 1688POSM   T1A19803  23.321  11.838  15.210 -0.3423  0.1244 -0.0273
 1688POSM   C2A19804  23.412  11.718  14.756  0.1043 -0.1410 -0.5472
 1688POSM   C3A19805  23.660  11.488  14.455  0.2871 -0.0065  0.1474
 1688POSM   C1B19806  23.050  11.525  15.418 -0.2645 -0.0255  0.3942
 1688POSM   D2B19807  22.668  11.543  15.167  0.0149  0.1568  0.1462
 1688POSM   C3B19808  22.920  11.542  14.806 -0.1953  0.0149  0.1001
 1688POSM   C4B19809  23.144  11.497  14.394  0.2856  0.0997  0.2588
 1689DOPS   CNO19810  16.268  16.949  14.883 -0.2899 -0.1556 -0.3868
 1689DOPS   PO419811  16.334  16.680  14.614 -0.0031 -0.0755  0.1932
 1689DOPS   GL119812  16.300  16.743  14.284 -0.0948 -0.0749  0.0530
 1689DOPS   GL219813  16.449  16.459  14.175  0.3132 -0.1995 -0.3053
 1689DOPS   C1A19814  16.219  16.769  13.850 -0.1637 -0.2201  0.1701
 1689DOPS   D2A19815  16.123  16.964  13.426  0.1493  0.1606  0.0403
 1689DOPS   C3A19816  15.927  17.363  13.526  0.0898  0.2445  0.0989
 1689DOPS   C4A19817  15.994  17.759  13.786  0.0748  0.3925 -0.1831
 1689DOPS   C1B19818  16.506  16.372  13.833 -0.1683  0.0202  0.2778
 1689DOPS   D2B19819  16.418  16.571  13.447 -0.1804  0.0843  0.0841
 1689DOPS   C3B19820  15.973  16.439  13.448 -0.0050  0.1800  0.2527
 1689DOPS   C4B19821  15.688  16.206  13.208  0.2458  0.0917  0.2530
 1690DOPS   CNO19822  12.594  14.563  15.770  0.0030  0.0417 -0.0847
 1690DOPS   PO419823  12.811  14.591  15.454 -0.0721  0.0463  0.4468
 1690DOPS   GL119824  12.499  14.796  15.293  0.1049 -0.1049 -0.1492
 1690DOPS   GL219825  12.677  15.090  15.175  0.0969 -0.1061 -0.3322
 1690DOPS   C1A19826  12.154  14.613  15.079 -0.5154 -0.1598 -0.0103
 1690DOPS   D2A19827  12.049  14.548  14.638  0.0917  0.2480  0.1607
 1690DOPS   C3A19828  12.170  14.136  14.458 -0.0414  0.1218 -0.0775
 1690DOPS   C4A19829  12.336  13.926  14.107 -0.0243 -0.0372 -0.0752
 1690DOPS   C1B19830  12.789  15.118  14.746 -0.3812 -0.0319  0.3005
 1690DOPS   D2B19831  12.749  15.087  14.274  0.2130 -0.0946 -0.2757
 1690DOPS   C3B19832  12.363  15.263  14.048  0.2876 -0.1592  0.0277
 1690DOPS   C4B19833  12.034  15.025  13.801  0.3997 -0.1663  0.1057
 1691DOPE   NH319834  14.932  16.949  15.122  0.1819 -0.0221  0.1605
 1691DOPE   PO419835  14.938  16.910  14.794  0.2572 -0.0227 -0.1042
 1691DOPE   GL119836  15.073  16.740  14.530  0.1011 -0.1200 -0.1212
 1691DOPE   GL219837  14.952  16.467  14.611 -0.0375  0.1217  0.1193
 1691DOPE   C1A19838  14.997  16.540  14.127  0.3416  0.4282 -0.0853
 1691DOPE   D2A19839  14.636  16.220  13.978  0.2474 -0.1069  0.0349
 1691DOPE   C3A19840  14.255  15.946  14.106 -0.1688  0.0728 -0.0052
 1691DOPE   C4A19841  14.041  15.673  13.812  0.0822  0.2019 -0.2549
 1691DOPE   C1B19842  14.527  16.255  14.466  0.1798 -0.0944 -0.1580
 1691DOPE   D2B19843  14.361  15.822  14.546  0.1391  0.0839  0.1497
 1691DOPE   C3B19844  14.038  15.555  14.372 -0.0270  0.2448 -0.1050
 1691DOPE   C4B19845  13.594  15.613  14.351 -0.1625 -0.1292 -0.1801
 1692DOPE   NH319846  20.330  11.997  15.893 -0.1589  0.0745  0.0062
 1692DOPE   PO419847  20.465  12.239  15.700 -0.2009 -0.1273  0.1219
 1692DOPE   GL119848  20.619  12.175  15.310  0.1365 -0.2829 -0.0418
 1692DOPE   GL219849  20.800  12.460  15.338  0.0168 -0.0705  0.1546
 1692DOPE   C1A19850  20.594  12.308  14.869 -0.1368  0.2188 -0.1431
 1692DOPE   D2A19851  20.455  12.313  14.405  0.1076  0.2486 -0.0386
 1692DOPE   C3A19852  20.036  12.138  14.375 -0.0811  0.0830  0.1283
 1692DOPE   C4A19853  19.627  12.163  14.539  0.1530 -0.0035  0.2662
 1692DOPE   C1B19854  20.682  12.863  15.120  0.0418  0.0017 -0.0930
 1692DOPE   D2B19855  20.957  13.224  15.164  0.0881 -0.3527  0.2038
 1692DOPE   C3B19856  20.989  13.506  14.768 -0.0177 -0.2118  0.2092
 1692DOPE   C4B19857  20.937  13.678  14.350 -0.2560 -0.4464 -0.2445
 1693DOPE   NH319858  19.228  21.518  15.131  0.1179  0.1182  0.1230
 1693DOPE   PO419859  19.296  21.365  14.863  0.1492  0.1056 -0.1073
 1693DOPE   GL119860  19.304  21.389  14.460 -0.1480 -0.5390  0.1295
 1693DOPE   GL219861  19.255  21.637  14.358 -0.2077  0.4601 -0.1040
 1693DOPE   C1A19862  19.624  21.427  14.098 -0.0573 -0.0509  0.2408
 1693DOPE   D2A19863  19.769  21.355  13.693  0.2331  0.0482 -0.2882
 1693DOPE   C3A19864  19.685  21.741  13.465 -0.0751 -0.1165  0.0461
 1693DOPE   C4A19865  19.492  22.057  13.133 -0.0680 -0.1921 -0.2949
 1693DOPE   C1B19866  19.169  21.358  13.932  0.1634  0.0905 -0.0016
 1693DOPE   D2B19867  18.848  21.067  13.856 -0.4550  0.1047  0.0160
 1693DOPE   C3B19868  18.513  21.151  13.572 -0.0954 -0.1754  0.3301
 1693DOPE   C4B19869  18.035  20.982  13.462 -0.1072 -0.1123  0.1129
 1694DOPC   NC319870  16.041  19.597  15.363  0.1823  0.2089  0.3077
 1694DOPC   PO419871  15.857  19.249  15.419 -0.0491  0.2925 -0.0112
 1694DOPC   GL119872  15.902  19.189  14.961 -0.1261 -0.1940 -0.2177
 1694DOPC   GL219873  15.924  19.455  14.863 -0.0333 -0.0843  0.1116
 1694DOPC   C1A19874  15.610  18.965  14.782 -0.1514  0.2323 -0.0722
 1694DOPC   D2A19875  15.530  18.557  14.968 -0.0327  0.0577  0.0623
 1694DOPC   C3A19876  15.745  18.249  14.698 -0.0853 -0.0624  0.0378
 1694DOPC   C4A19877  15.890  18.012  14.349  0.0217 -0.2210  0.3359
 1694DOPC   C1B19878  16.038  19.241  14.476  0.0454 -0.0714  0.4709
 1694DOPC   D2B19879  15.941  19.243  13.995  0.0123 -0.2227  0.1834
 1694DOPC   C3B19880  16.035  19.397  13.564  0.2109 -0.0981 -0.0734
 1694DOPC   C4B19881  16.270  19.402  13.176  0.0513  0.1284  0.2403
 1695DOPC   NC319882  22.696  16.402  15.556 -0.1293 -0.3187 -0.2198
 1695DOPC   PO419883  22.874  16.137  15.367 -0.1308 -0.2108  0.2593
 1695DOPC   GL119884  23.038  16.075  15.006 -0.2548  0.1001 -0.2147
 1695DOPC   GL219885  23.223  15.863  14.947  0.4128  0.1860  0.0169
 1695DOPC   C1A19886  22.976  16.096  14.585  0.0178 -0.2744 -0.2996
 1695DOPC   D2A19887  22.996  16.127  14.107 -0.1092  0.1026  0.1252
 1695DOPC   C3A19888  23.064  15.891  13.683 -0.1341 -0.4277  0.3082
 1695DOPC   C4A19889  23.135  15.645  13.364 -0.0800 -0.1336  0.1275
 1695DOPC   C1B19890  23.400  15.608  14.572 -0.3202  0.1375 -0.3101
 1695DOPC   D2B19891  23.680  15.305  14.642  0.4583  0.3071 -0.1495
 1695DOPC   C3B19892  23.989  15.283  14.288 -0.1070 -0.2576 -0.0289
 1695DOPC   C4B19893  24.397  15.499  14.211 -0.2851 -0.1386  0.2599
 1696POSM   NC319894  15.316  17.549  15.198  0.0469  0.1171  0.1746
 1696POSM   PO419895  15.012  17.492  14.961  0.5130  0.0973 -0.0621
 1696POSM   AM119896  15.133  17.447  14.659 -0.2153 -0.2555  0.1927
 1696POSM   AM219897  15.092  17.275  14.428  0.5732 -0.1815  0.0463
 1696POSM   T1A19898  15.485  17.432  14.305  0.1879  0.0953 -0.0122
 1696POSM   C2A19899  15.947  17.469  14.204  0.0127 -0.3064  0.2220
 1696POSM   C3A19900  16.375  17.644  14.138 -0.3423 -0.1470 -0.1227
 1696POSM   C1B19901  15.091  17.075  14.152 -0.0460  0.2039 -0.2644
 1696POSM   D2B19902  15.245  16.879  13.761 -0.1552 -0.1557 -0.1805
 1696POSM   C3B19903  15.610  16.969  13.499  0.0625 -0.3853  0.0815
 1696POSM   C4B19904  15.706  16.766  13.111  0.3278  0.0546  0.2137
 1697POSM   NC319905  14.284  22.082  15.542  0.0265  0.0041  0.0928
 1697POSM   PO419906  13.927  21.854  15.459 -0.1382  0.1142 -0.2946
 1697POSM   AM119907  13.737  21.647  15.246  0.3113 -0.1880 -0.0210
 1697POSM   AM219908  13.501  21.640  15.059 -0.0555  0.5118 -0.1152
 1697POSM   T1A19909  13.768  21.345  14.811 -0.0521  0.3357 -0.0733
 1697POSM   C2A19910  13.617  21.057  14.482 -0.0628 -0.2109 -0.1084
 1697POSM   C3A19911  13.296  20.925  14.237  0.1226 -0.1771  0.0110
 1697POSM   C1B19912  13.292  21.702  14.818 -0.2674  0.0977  0.1079
 1697POSM   D2B19913  13.062  21.854  14.512  0.1830 -0.1835 -0.3250
 1697POSM   C3B19914  13.176  21.726  14.095  0.1366  0.1288 -0.0524
 1697POSM   C4B19915  13.102  21.545  13.677  0.1302 -0.0208  0.0341
 1698DOPE   NH319916  14.687  14.432  14.915  0.1355  0.3859 -0.1871
 1698DOPE   PO419917  14.412  14.506  14.765  0.1097 -0.0124 -0.1736
 1698DOPE   GL119918  14.362  14.599  14.316  0.3306 -0.0559 -0.0228
 1698DOPE   GL219919  14.284  14.359  14.108  0.2364  0.0918 -0.0616
 1698DOPE   C1A19920  14.407  14.797  13.928  0.3422 -0.2197 -0.2197
 1698DOPE   D2A19921  14.630  15.088  13.643  0.1067  0.0048 -0.1246
 1698DOPE   C3A19922  14.912  15.405  13.887  0.2791 -0.0457 -0.0123
 1698DOPE   C4A19923  14.952  15.847  14.019 -0.3248  0.4392 -0.0257
 1698DOPE   C1B19924  14.327  14.414  13.649 -0.0711 -0.1158 -0.0645
 1698DOPE   D2B19925  14.487  14.718  13.366  0.0325  0.1246  0.1075
 1698DOPE   C3B19926  14.353  14.809  12.947  0.0640 -0.0044 -0.0843
 1698DOPE   C4B19927  14.255  14.553  12.563 -0.1952 -0.1209 -0.1043
 1699DOPE   NH319928  13.046  15.029  15.516 -0.3044 -0.0200 -0.1205
 1699DOPE   PO419929  13.346  15.032  15.498 -0.1492  0.0680 -0.1282
 1699DOPE   GL119930  13.480  15.197  15.196 -0.0829 -0.0719  0.3719
 1699DOPE   GL219931  13.263  15.152  15.032  0.1570 -0.1073 -0.2627
 1699DOPE   C1A19932  13.811  15.363  14.845 -0.1723 -0.2455  0.0740
 1699DOPE   D2A19933  13.888  15.788  14.795 -0.1541  0.1951 -0.1125
 1699DOPE   C3A19934  13.942  16.048  14.465  0.2423 -0.2608 -0.1163
 1699DOPE   C4A19935  13.754  16.148  14.000  0.4420 -0.1466 -0.0264
 1699DOPE   C1B19936  13.350  15.532  14.812 -0.0169  0.3134 -0.3529
 1699DOPE   D2B19937  13.258  16.041  14.738 -0.0683 -0.1341  0.0357
 1699DOPE   C3B19938  13.356  16.039  14.253 -0.0516  0.0503  0.0719
 1699DOPE   C4B19939  13.203  16.254  13.887 -0.1638  0.3304 -0.0351
 1700DOPE   NH319940  16.866  23.027  15.403 -0.4517  0.1143  0.1110
 1700DOPE   PO419941  16.700  23.279  15.285  0.2532  0.2421 -0.1350
 1700DOPE   GL119942  16.804  23.289  14.963  0.2281  0.4927 -0.1975
 1700DOPE   GL219943  16.534  23.470  14.866  0.0881  0.0262  0.0387
 1700DOPE   C1A19944  16.945  23.629  14.666  0.1300  0.1007  0.1194
 1700DOPE   D2A19945  16.906  23.915  14.314  0.3244 -0.2095  0.1469
 1700DOPE   C3A19946  17.087  24.052  13.923 -0.2536  0.0360  0.1994
 1700DOPE   C4A19947  17.374  24.049  13.594  0.0068  0.3184 -0.0465
 1700DOPE   C1B19948  16.366  23.389  14.416  0.2754  0.0721  0.0423
 1700DOPE   D2B19949  16.123  23.773  14.220  0.0349 -0.0784  0.1553
 1700DOPE   C3B19950  16.156  23.710  13.707 -0.1593 -0.0330  0.3271
 1700DOPE   C4B19951  16.235  23.763  13.192 -0.1273  0.0705  0.0087
 1701DOPC   NC319952  12.318  12.923  15.273  0.0222 -0.4560 -0.0496
 1701DOPC   PO419953  11.975  13.122  15.156  0.0917 -0.1871  0.1145
 1701DOPC   GL119954  11.925  12.917  14.835  0.0109  0.4074  0.1242
 1701DOPC   GL219955  12.088  12.661  14.747  0.1704 -0.0583 -0.0619
 1701DOPC   C1A19956  11.854  13.194  14.476 -0.0376  0.0136 -0.0459
 1701DOPC   D2A19957  11.602  13.489  14.193  0.0515  0.0773  0.0933
 1701DOPC   C3A19958  11.499  13.445  13.796 -0.2228 -0.0847 -0.0047
 1701DOPC   C4A19959  11.477  13.589  13.326 -0.5197 -0.0007 -0.1935
 1701DOPC   C1B19960  11.914  12.350  14.458 -0.3271  0.1672 -0.0019
 1701DOPC   D2B19961  11.530  12.270  14.245  0.0388  0.0889 -0.1491
 1701DOPC   C3B19962  11.469  12.103  13.811  0.0228  0.0392 -0.1709
 1701DOPC   C4B19963  11.529  11.982  13.393  0.0568 -0.0418  0.0942
 1702DOPC   NC319964  12.482  17.942  16.083 -0.3203  0.0374 -0.0542
 1702DOPC   PO419965  12.729  17.872  15.772  0.0527 -0.1049  0.1636
 1702DOPC   GL119966  12.451  17.828  15.406  0.0196  0.2316  0.1306
 1702DOPC   GL219967  12.636  17.768  15.196  0.0659  0.1036 -0.0030
 1702DOPC   C1A19968  12.140  17.686  15.079 -0.1564  0.0032 -0.0762
 1702DOPC   D2A19969  12.069  17.838  14.641  0.0512 -0.1302 -0.2740
 1702DOPC   C3A19970  11.918  17.832  14.197 -0.0978  0.0218  0.0331
 1702DOPC   C4A19971  12.010  17.558  13.872  0.2015  0.2205 -0.0213
 1702DOPC   C1B19972  12.617  17.949  14.763  0.0069 -0.0603 -0.2939
 1702DOPC   D2B19973  12.387  18.145  14.437 -0.1547  0.4023 -0.1459
 1702DOPC   C3B19974  12.451  18.451  14.096  0.2428 -0.1630  0.0120
 1702DOPC   C4B19975  12.446  18.842  13.798  0.1248  0.3562  0.1782
 1703POSM   NC319976  16.890  14.187  15.286 -0.2182 -0.2055  0.2547
 1703POSM   PO419977  16.510  14.141  15.121  0.0021  0.1206 -0.2791
 1703POSM   AM119978  16.572  13.954  14.865 -0.1958  0.0982  0.1085
 1703POSM   AM219979  16.824  13.864  14.746 -0.2463 -0.2194 -0.1121
 1703POSM   T1A19980  16.431  13.726  14.419  0.4983 -0.3979 -0.0144
 1703POSM   C2A19981  16.414  13.497  14.032 -0.0559 -0.0007 -0.2524
 1703POSM   C3A19982  16.629  13.376  13.676  0.0991 -0.1395  0.2183
 1703POSM   C1B19983  16.953  13.748  14.440 -0.1173  0.0337  0.0765
 1703POSM   D2B19984  16.918  13.638  13.983 -0.1183 -0.2062  0.2108
 1703POSM   C3B19985  16.748  13.938  13.650 -0.0961 -0.0732 -0.0434
 1703POSM   C4B19986  16.468  14.198  13.426 -0.2567  0.0246  0.2323
 1704DOPC   NC319987  13.592  22.876  15.454 -0.2138 -0.3653 -0.2443
 1704DOPC   PO419988  14.009  22.941  15.339  0.1262 -0.1953 -0.2242
 1704DOPC   GL119989  13.958  22.849  14.954 -0.2730  0.1889  0.0682
 1704DOPC   GL219990  13.944  22.507  14.969 -0.3256 -0.1729 -0.3073
 1704DOPC   C1A19991  13.706  23.164  14.673  0.0613 -0.0653 -0.0165
 1704DOPC   D2A19992  13.538  23.544  14.442  0.0513 -0.2897 -0.2610
 1704DOPC   C3A19993  13.445  23.936  14.658  0.1387 -0.0467  0.1582
 1704DOPC   C4A19994  13.051  24.190  14.650 -0.0996  0.3763  0.0661
 1704DOPC   C1B19995  13.874  22.386  14.543  0.2239 -0.0125  0.3274
 1704DOPC   D2B19996  14.070  21.974  14.267 -0.1608 -0.1161  0.2419
 1704DOPC   C3B19997  14.459  21.875  14.396  0.2516  0.2967  0.1163
 1704DOPC   C4B19998  14.750  21.582  14.203  0.0897 -0.1727 -0.1985
 1705DOPE   NH319999  19.459  13.625  14.896  0.1330 -0.0258  0.0691
 1705DOPE   PO420000  19.568  13.887  15.076 -0.0782  0.3011  0.1764
 1705DOPE   GL120001  19.904  13.729  14.863  0.1855 -0.0033  0.0081
 1705DOPE   GL220002  20.050  14.055  14.768  0.1095  0.0146  0.1691
 1705DOPE   C1A20003  19.910  13.355  14.508 -0.1798 -0.2375  0.0614
 1705DOPE   D2A20004  19.985  13.036  14.152  0.0780  0.1923 -0.0110
 1705DOPE   C3A20005  20.327  12.866  14.390 -0.2678  0.1076 -0.0294
 1705DOPE   C4A20006  20.752  12.664  14.291 -0.2159 -0.0009  0.0532
 1705DOPE   C1B20007  19.970  13.795  14.405 -0.1578  0.1498  0.2067
 1705DOPE   D2B20008  19.944  13.704  13.939 -0.1499 -0.4196 -0.0449
 1705DOPE   C3B20009  20.050  13.297  13.747 -0.1966 -0.0657  0.2551
 1705DOPE   C4B20010  20.161  13.264  13.266  0.4281  0.0054 -0.1402
 1706DOPC   NC320011  14.249  19.483  15.596  0.0339 -0.0094  0.1319
 1706DOPC   PO420012  14.576  19.596  15.482  0.1029  0.2073  0.2537
 1706DOPC   GL120013  14.517  19.449  15.106 -0.0497 -0.1051  0.0315
 1706DOPC   GL220014  14.710  19.591  14.953  0.1215 -0.2338  0.0621
 1706DOPC   C1A20015  14.270  19.119  14.794  0.0775  0.0487 -0.2194
 1706DOPC   D2A20016  14.068  18.709  14.759 -0.1338  0.0034  0.0602
 1706DOPC   C3A20017  13.795  18.566  14.416 -0.2293  0.0914 -0.3047
 1706DOPC   C4A20018  13.439  18.517  14.188 -0.0703 -0.0079  0.0580
 1706DOPC   C1B20019  14.992  19.741  14.644  0.1712 -0.0854  0.6125
 1706DOPC   D2B20020  15.138  19.739  14.217 -0.0701  0.3747  0.0019
 1706DOPC   C3B20021  14.970  19.589  13.782 -0.3239  0.2089 -0.1970
 1706DOPC   C4B20022  14.779  19.274  13.638  0.2039  0.0253 -0.0265
 1707DOPE   NH320023  11.693  19.951  15.666  0.0075 -0.0845  0.0397
 1707DOPE   PO420024  11.541  20.181  15.537  0.0595 -0.1063  0.3778
 1707DOPE   GL120025  11.745  20.271  15.256 -0.0223 -0.0269 -0.1877
 1707DOPE   GL220026  11.663  20.509  15.079  0.2780 -0.2171  0.2887
 1707DOPE   C1A20027  11.779  20.089  14.775  0.3594 -0.4229  0.0688
 1707DOPE   D2A20028  11.855  20.196  14.308  0.0314 -0.0706  0.3314
 1707DOPE   C3A20029  11.884  19.872  14.027 -0.0887 -0.2791  0.1523
 1707DOPE   C4A20030  11.809  19.573  13.705 -0.0559  0.0561 -0.3130
 1707DOPE   C1B20031  11.665  20.734  14.664  0.0288 -0.1367  0.2007
 1707DOPE   D2B20032  11.641  21.166  14.461 -0.2186  0.1429 -0.1214
 1707DOPE   C3B20033  11.886  21.028  14.085 -0.1070  0.3131  0.1465
 1707DOPE   C4B20034  12.030  21.086  13.644 -0.0311 -0.1437  0.1025
 1708DOPE   NH320035  21.789  12.858  15.947 -0.1965  0.1972  0.3044
 1708DOPE   PO420036  21.636  12.722  15.711  0.1145  0.1663 -0.1822
 1708DOPE   GL120037  21.732  12.679  15.328  0.3416 -0.3361  0.2171
 1708DOPE   GL220038  21.737  12.357  15.248  0.2630  0.0820  0.0098
 1708DOPE   C1A20039  21.749  12.933  14.917 -0.3525  0.0863 -0.1505
 1708DOPE   D2A20040  21.814  12.994  14.449 -0.2041 -0.0392 -0.3492
 1708DOPE   C3A20041  21.750  12.678  14.103  0.3282 -0.1990 -0.1099
 1708DOPE   C4A20042  21.570  12.462  13.746  0.1140  0.2817  0.0973
 1708DOPE   C1B20043  21.550  12.330  14.884 -0.2339  0.0299  0.0296
 1708DOPE   D2B20044  21.469  12.202  14.494 -0.1110 -0.0660 -0.0338
 1708DOPE   C3B20045  21.437  12.008  14.088  0.1336 -0.0691  0.0790
 1708DOPE   C4B20046  21.233  12.001  13.633  0.0366 -0.3240  0.2182
 1709DOPC   NC320047  14.709  13.659  14.502  0.1063  0.0375 -0.2150
 1709DOPC   PO420048  14.705  14.034  14.439  0.0048 -0.0594 -0.2074
 1709DOPC   GL120049  14.677  14.273  14.229  0.1135 -0.1048 -0.1076
 1709DOPC   GL220050  14.797  14.519  14.423 -0.1569  0.1647 -0.2977
 1709DOPC   C1A20051  14.774  14.158  13.781  0.2656  0.0008  0.0386
 1709DOPC   D2A20052  14.605  14.167  13.358 -0.0135  0.1914  0.2356
 1709DOPC   C3A20053  14.276  14.323  13.073 -0.3588  0.0670 -0.2666
 1709DOPC   C4A20054  13.858  14.523  12.912 -0.0191 -0.2533 -0.0045
 1709DOPC   C1B20055  14.689  14.997  14.260 -0.2061  0.1065 -0.1191
 1709DOPC   D2B20056  14.427  15.335  14.016  0.1446 -0.2791 -0.0963
 1709DOPC   C3B20057  14.501  15.728  13.773 -0.0942 -0.1802  0.1277
 1709DOPC   C4B20058  14.550  16.055  13.451  0.2502 -0.0150 -0.1247
 1710DOPC   NC320059  16.100  16.423  15.045  0.5204 -0.0316  0.0835
 1710DOPC   PO420060  16.318  16.189  14.890 -0.3369  0.1492  0.3991
 1710DOPC   GL120061  16.215  16.277  14.532 -0.1934  0.2140 -0.1592
 1710DOPC   GL220062  15.971  16.385  14.419  0.1411 -0.1863  0.5851
 1710DOPC   C1A20063  16.333  15.963  14.189  0.1284  0.3252 -0.1437
 1710DOPC   D2A20064  16.338  15.940  13.722  0.0659 -0.2080  0.3495
 1710DOPC   C3A20065  16.599  16.000  13.371 -0.0364 -0.0122 -0.0566
 1710DOPC   C4A20066  16.744  16.392  13.145 -0.2418  0.2090  0.1815
 1710DOPC   C1B20067  16.004  16.326  13.963 -0.0137  0.2651  0.4719
 1710DOPC   D2B20068  15.686  16.122  13.646  0.2719 -0.1033  0.0837
 1710DOPC   C3B20069  15.318  15.902  13.412 -0.0841 -0.0000 -0.1457
 1710DOPC   C4B20070  14.922  15.747  13.535  0.1120  0.0255  0.1047
 1711DOPC   NC320071  22.451  21.465  15.107  0.0072 -0.0316  0.1037
 1711DOPC   PO420072  22.246  21.073  15.152  0.1702 -0.0734 -0.1434
 1711DOPC   GL120073  22.197  21.048  14.745  0.0398 -0.1230 -0.0936
 1711DOPC   GL220074  22.267  21.274  14.622  0.0474  0.0554 -0.2961
 1711DOPC   C1A20075  22.383  20.770  14.403 -0.1057 -0.4171  0.0051
 1711DOPC   D2A20076  22.536  20.664  13.975  0.0273  0.0058  0.3258
 1711DOPC   C3A20077  22.421  20.258  13.741 -0.0216  0.1526 -0.2592
 1711DOPC   C4A20078  22.627  20.052  13.387  0.2553 -0.0378 -0.1635
 1711DOPC   C1B20079  22.633  21.172  14.449 -0.1866  0.2653  0.0003
 1711DOPC   D2B20080  22.722  21.091  13.965 -0.2558 -0.3246  0.0577
 1711DOPC   C3B20081  22.424  21.048  13.628 -0.1403  0.0344 -0.2211
 1711DOPC   C4B20082  22.197  21.059  13.248  0.1029 -0.0750 -0.1014
 1712DOPC   NC320083  11.555  13.294  15.336  0.1980  0.1733 -0.2008
 1712DOPC   PO420084  11.610  12.941  15.562 -0.1691  0.2769 -0.3409
 1712DOPC   GL120085  11.485  12.851  15.171  0.3048 -0.2001  0.1561
 1712DOPC   GL220086  11.160  12.859  15.178 -0.0215 -0.2447 -0.1487
 1712DOPC   C1A20087  11.435  13.071  14.750 -0.1597  0.1012 -0.4762
 1712DOPC   D2A20088  11.369  13.028  14.251  0.2261 -0.0758  0.2939
 1712DOPC   C3A20089  11.343  12.933  13.777  0.2034 -0.1186  0.2107
 1712DOPC   C4A20090  11.206  13.096  13.394  0.2440  0.3094 -0.1536
 1712DOPC   C1B20091  10.877  12.868  14.803  0.1665 -0.0170 -0.1108
 1712DOPC   D2B20092  10.881  12.852  14.318 -0.0340  0.1675  0.1201
 1712DOPC   C3B20093  10.576  13.200  14.185  0.2744 -0.0148  0.3933
 1712DOPC   C4B20094  10.452  13.497  13.926  0.4105  0.0535  0.2900
 1713DOPC   NC320095  17.620  15.132  15.353 -0.2319 -0.1142  0.0225
 1713DOPC   PO420096  17.525  14.925  15.066  0.1308 -0.0460 -0.0776
 1713DOPC   GL120097  17.614  14.916  14.693  0.2828  0.0988 -0.2329
 1713DOPC   GL220098  17.888  14.867  14.633  0.0196  0.0746 -0.1415
 1713DOPC   C1A20099  17.706  15.152  14.307  0.0630  0.1238  0.0738
 1713DOPC   D2A20100  18.038  14.954  14.067  0.2088  0.1024 -0.4150
 1713DOPC   C3A20101  18.397  15.200  13.925  0.1664 -0.1272  0.0384
 1713DOPC   C4A20102  18.816  15.254  13.719 -0.1769 -0.0989 -0.1538
 1713DOPC   C1B20103  17.644  14.635  14.326  0.1765  0.3409  0.0479
 1713DOPC   D2B20104  17.456  14.756  13.895 -0.0364  0.1698 -0.4954
 1713DOPC   C3B20105  17.722  15.101  13.688  0.1871  0.0487 -0.0194
 1713DOPC   C4B20106  18.037  15.183  13.381 -0.1867  0.0205  0.1704
 1714DOPE   NH320107  22.105  18.230  15.175 -0.1335 -0.0578 -0.2475
 1714DOPE   PO420108  21.943  18.506  15.112  0.1564  0.1041  0.1064
 1714DOPE   GL120109  22.100  18.466  14.754  0.0328  0.0316  0.1184
 1714DOPE   GL220110  22.121  18.711  14.667 -0.1378 -0.2275 -0.2606
 1714DOPE   C1A20111  22.067  18.148  14.440  0.0219  0.0930 -0.1856
 1714DOPE   D2A20112  22.112  17.935  14.056 -0.2142  0.3530  0.1332
 1714DOPE   C3A20113  22.104  17.955  13.645  0.1681  0.0296 -0.2198
 1714DOPE   C4A20114  21.987  18.107  13.237 -0.2152 -0.2534  0.0908
 1714DOPE   C1B20115  21.842  18.662  14.344  0.1834 -0.3032 -0.1700
 1714DOPE   D2B20116  21.630  18.797  13.977 -0.0569  0.1904  0.1328
 1714DOPE   C3B20117  21.258  18.667  13.760 -0.2750  0.3377 -0.2645
 1714DOPE   C4B20118  21.042  18.443  13.375  0.1483 -0.0096 -0.1204
 1715DOPE   NH320119  20.224  18.077  14.929 -0.0940  0.0702 -0.0819
 1715DOPE   PO420120  20.518  18.187  14.882  0.0915  0.2283  0.2143
 1715DOPE   GL120121  20.539  18.226  14.532  0.1630 -0.2187 -0.1361
 1715DOPE   GL220122  20.683  18.521  14.537 -0.3135  0.1365 -0.1574
 1715DOPE   C1A20123  20.491  17.849  14.224  0.0634 -0.2078 -0.0885
 1715DOPE   D2A20124  20.617  17.768  13.745  0.1388 -0.1189  0.0668
 1715DOPE   C3A20125  20.232  17.607  13.541 -0.1252 -0.2178  0.1732
 1715DOPE   C4A20126  19.913  17.300  13.365  0.3091 -0.1062  0.2051
 1715DOPE   C1B20127  20.604  18.464  14.077 -0.2459 -0.0020  0.1834
 1715DOPE   D2B20128  20.676  18.270  13.645  0.0234 -0.3049  0.0107
 1715DOPE   C3B20129  20.438  18.476  13.281 -0.0676  0.0527 -0.0781
 1715DOPE   C4B20130  20.396  18.705  12.910  0.2420 -0.1333 -0.1899
 1716POSM   NC320131  17.146  21.344  15.520  0.1350 -0.0756  0.1291
 1716POSM   PO420132  17.484  21.470  15.438  0.3482  0.0044 -0.0986
 1716POSM   AM120133  17.450  21.222  15.226 -0.3057  0.0856  0.2045
 1716POSM   AM220134  17.524  21.172  14.966 -0.0492 -0.3200 -0.1749
 1716POSM   T1A20135  17.483  20.703  15.087  0.1226  0.0613 -0.0591
 1716POSM   C2A20136  17.313  20.337  14.913 -0.0121  0.0945 -0.0388
 1716POSM   C3A20137  17.619  19.949  14.769 -0.0412 -0.1972  0.0849
 1716POSM   C1B20138  17.522  20.942  14.644 -0.3329 -0.0052 -0.0716
 1716POSM   D2B20139  17.629  20.503  14.436 -0.2677  0.1454  0.0603
 1716POSM   C3B20140  17.557  20.415  14.038 -0.0323 -0.0322 -0.3011
 1716POSM   C4B20141  17.646  20.516  13.583 -0.0328  0.1312 -0.2069
 1717DOPC   NC320142  18.909  11.157  15.670 -0.0341 -0.1340  0.1740
 1717DOPC   PO420143  19.203  11.392  15.635  0.0462 -0.2170 -0.0944
 1717DOPC   GL120144  19.323  11.421  15.256 -0.2254 -0.0436 -0.0818
 1717DOPC   GL220145  19.468  11.175  15.192 -0.1371  0.1718  0.2746
 1717DOPC   C1A20146  19.181  11.531  14.879  0.2371 -0.1628  0.2871
 1717DOPC   D2A20147  19.160  11.738  14.503 -0.0854 -0.3451  0.1668
 1717DOPC   C3A20148  19.377  11.935  14.164 -0.0895 -0.0799 -0.3897
 1717DOPC   C4A20149  19.803  11.911  14.036 -0.1508 -0.0901 -0.0814
 1717DOPC   C1B20150  19.589  11.219  14.728 -0.1685 -0.2113  0.2938
 1717DOPC   D2B20151  19.905  11.102  14.408 -0.0522  0.0720  0.1338
 1717DOPC   C3B20152  20.159  10.741  14.638  0.1194  0.0188  0.1055
 1717DOPC   C4B20153  20.593  10.650  14.885  0.0029  0.1335 -0.0425
 1718POSM   NC320154  15.032  13.300  15.216  0.1089  0.1949  0.0166
 1718POSM   PO420155  14.918  13.433  14.893  0.0012 -0.0791 -0.2323
 1718POSM   AM120156  15.074  13.338  14.635  0.1529  0.0172 -0.1392
 1718POSM   AM220157  15.049  13.259  14.335 -0.3596  0.1859 -0.3003
 1718POSM   T1A20158  15.510  13.416  14.347  0.0646 -0.1622  0.2136
 1718POSM   C2A20159  15.669  13.520  13.957  0.0997  0.0557 -0.0306
 1718POSM   C3A20160  16.030  13.785  13.830 -0.0645  0.0981 -0.5244
 1718POSM   C1B20161  15.017  13.137  14.037 -0.0295 -0.1446 -0.1288
 1718POSM   D2B20162  14.999  13.079  13.552 -0.3755 -0.0182  0.0684
 1718POSM   C3B20163  15.284  12.925  13.187  0.0575  0.3330 -0.1540
 1718POSM   C4B20164  15.574  12.576  13.140  0.1829  0.0835 -0.0837
 1719POSM   NC320165  13.200  22.276  15.964  0.0257  0.0818  0.2023
 1719POSM   PO420166  12.978  22.051  15.802  0.0755 -0.1951  0.1205
 1719POSM   AM120167  12.852  22.167  15.522 -0.7374 -0.0831  0.2784
 1719POSM   AM220168  12.949  22.024  15.284 -0.1342  0.0245  0.2560
 1719POSM   T1A20169  12.560  22.318  15.076  0.1505  0.1762  0.0560
 1719POSM   C2A20170  12.424  22.738  14.829 -0.0420  0.1166 -0.2783
 1719POSM   C3A20171  12.297  23.101  14.616 -0.0768 -0.2159 -0.1498
 1719POSM   C1B20172  13.009  22.111  14.927  0.0882 -0.5379 -0.1758
 1719POSM   D2B20173  12.772  22.233  14.520 -0.0070  0.0757 -0.0685
 1719POSM   C3B20174  12.692  21.938  14.175  0.3090 -0.1852  0.2607
 1719POSM   C4B20175  12.653  21.630  13.855  0.0393  0.3409 -0.2536
 1720DOPS   CNO20176  16.732  19.134  14.982 -0.2986 -0.0704  0.2095
 1720DOPS   PO420177  17.071  19.016  15.049 -0.2348 -0.1567  0.1962
 1720DOPS   GL120178  17.007  18.715  14.760  0.1924 -0.1265  0.2696
 1720DOPS   GL220179  16.772  18.551  14.713 -0.1900  0.0017  0.1996
 1720DOPS   C1A20180  17.093  18.742  14.287 -0.0200 -0.0682 -0.2409
 1720DOPS   D2A20181  17.151  19.074  14.004  0.2301 -0.0974  0.1828
 1720DOPS   C3A20182  17.637  19.087  14.093  0.1817  0.0933  0.0280
 1720DOPS   C4A20183  18.040  19.027  13.778 -0.1419  0.1963 -0.1379
 1720DOPS   C1B20184  16.562  18.658  14.330  0.1828  0.0336  0.0742
 1720DOPS   D2B20185  16.319  19.024  14.109 -0.1870 -0.0058  0.1582
 1720DOPS   C3B20186  16.403  19.059  13.642 -0.0585 -0.0822  0.0462
 1720DOPS   C4B20187  16.702  19.073  13.414 -0.2114  0.4705 -0.5703
 1721DOPC   NC320188  14.847  20.465  15.088  0.1525  0.0737 -0.2856
 1721DOPC   PO420189  14.911  20.794  15.275  0.1935  0.1849  0.3524
 1721DOPC   GL120190  14.831  20.989  14.929  0.1174 -0.0522 -0.1570
 1721DOPC   GL220191  15.014  21.014  14.763  0.1256  0.3047  0.2787
 1721DOPC   C1A20192  14.407  20.820  14.812  0.0803  0.4653  0.0385
 1721DOPC   D2A20193  14.048  20.977  14.573 -0.0425 -0.0414  0.0528
 1721DOPC   C3A20194  13.986  21.104  14.091  0.0725  0.0475  0.0667
 1721DOPC   C4A20195  14.041  21.244  13.658  0.0515 -0.1613 -0.4012
 1721DOPC   C1B20196  14.801  20.616  14.608  0.0240  0.0672 -0.0053
 1721DOPC   D2B20197  14.821  20.161  14.535 -0.0628 -0.1233  0.0883
 1721DOPC   C3B20198  14.630  19.867  14.237  0.2686 -0.3475 -0.1659
 1721DOPC   C4B20199  14.541  19.489  13.969 -0.0409 -0.1552 -0.0457
 1722DOPE   NH320200  15.544  19.580  15.236 -0.0763 -0.0181  0.3098
 1722DOPE   PO420201  15.562  19.889  15.344 -0.1410 -0.1634  0.1153
 1722DOPE   GL120202  15.672  20.082  14.950  0.0371 -0.2664  0.0364
 1722DOPE   GL220203  15.609  19.851  14.777  0.1817 -0.0923 -0.0826
 1722DOPE   C1A20204  15.841  20.296  14.542  0.1620 -0.3918  0.1027
 1722DOPE   D2A20205  15.951  20.724  14.298  0.1691  0.1233  0.0189
 1722DOPE   C3A20206  15.839  20.775  13.881 -0.1620 -0.0728 -0.1507
 1722DOPE   C4A20207  15.729  20.837  13.414  0.2983 -0.2780 -0.3088
 1722DOPE   C1B20208  15.921  19.695  14.407  0.0627  0.0020 -0.0122
 1722DOPE   D2B20209  16.288  19.570  14.146 -0.2443  0.1404  0.0979
 1722DOPE   C3B20210  16.117  19.851  13.847 -0.1465  0.1209  0.0931
 1722DOPE   C4B20211  15.847  20.263  13.792 -0.0697 -0.2005 -0.1908
 1723DOPE   NH320212  16.883  13.275  15.253  0.2450 -0.0630 -0.3647
 1723DOPE   PO420213  16.944  13.383  14.977 -0.1412 -0.0890 -0.0507
 1723DOPE   GL120214  16.993  13.270  14.546 -0.0139  0.2531  0.0176
 1723DOPE   GL220215  16.966  12.968  14.567  0.0058  0.0579 -0.1402
 1723DOPE   C1A20216  16.759  13.190  14.164 -0.1631  0.1751 -0.0196
 1723DOPE   D2A20217  16.944  12.929  13.823  0.3195 -0.2615 -0.2085
 1723DOPE   C3A20218  16.722  12.962  13.418  0.2429 -0.0386  0.0735
 1723DOPE   C4A20219  16.328  12.935  13.196  0.1460  0.3511  0.1300
 1723DOPE   C1B20220  17.272  12.964  14.246  0.4729 -0.2761 -0.1281
 1723DOPE   D2B20221  17.294  13.254  13.903 -0.1856 -0.0262  0.2234
 1723DOPE   C3B20222  17.097  13.238  13.481 -0.0998 -0.2491 -0.3340
 1723DOPE   C4B20223  16.874  13.342  13.083  0.2002 -0.0782  0.2591
 1724DOPC   NC320224  18.679  15.466  15.456  0.0746 -0.3234 -0.2187
 1724DOPC   PO420225  18.580  15.375  15.087  0.2685 -0.4601 -0.0287
 1724DOPC   GL120226  18.478  15.308  14.699 -0.0114  0.3260  0.3136
 1724DOPC   GL220227  18.336  15.603  14.710 -0.1191 -0.1403 -0.3182
 1724DOPC   C1A20228  18.619  15.063  14.281  0.2639  0.3667  0.2166
 1724DOPC   D2A20229  18.504  14.745  13.991 -0.0568  0.0951 -0.0443
 1724DOPC   C3A20230  18.833  14.619  13.646 -0.1928 -0.0395  0.0249
 1724DOPC   C4A20231  19.087  14.282  13.470 -0.3687 -0.0338 -0.2196
 1724DOPC   C1B20232  18.186  15.387  14.375  0.0154  0.0122  0.1694
 1724DOPC   D2B20233  17.936  15.458  13.963  0.1442  0.1931 -0.2455
 1724DOPC   C3B20234  17.724  15.822  13.900 -0.3530 -0.1991 -0.0217
 1724DOPC   C4B20235  17.356  15.913  13.636 -0.1569  0.1761 -0.1071
 1725POSM   NC320236  18.962  20.192  14.740  0.0141  0.0784  0.0277
 1725POSM   PO420237  19.197  20.452  14.605  0.2839  0.0990  0.1228
 1725POSM   AM120238  19.353  20.385  14.329  0.1312  0.0639  0.1042
 1725POSM   AM220239  19.577  20.207  14.285 -0.2351 -0.0491 -0.0445
 1725POSM   T1A20240  19.402  20.439  13.801  0.2809  0.0062 -0.0947
 1725POSM   C2A20241  19.589  20.567  13.378  0.0523 -0.0986  0.1597
 1725POSM   C3A20242  19.946  20.745  13.099  0.1123 -0.2237  0.3647
 1725POSM   C1B20243  19.693  20.073  13.983 -0.0541 -0.2245  0.1397
 1725POSM   D2B20244  19.608  20.084  13.525  0.1941 -0.0460  0.0913
 1725POSM   C3B20245  19.500  19.769  13.171 -0.0559 -0.0019  0.0205
 1725POSM   C4B20246  19.414  19.606  12.803  0.0957 -0.0365 -0.0707
 1726POSM   NC320247  14.577  22.208  14.849 -0.3620  0.1708 -0.3275
 1726POSM   PO420248  14.267  22.005  15.044  0.1160 -0.3016  0.2465
 1726POSM   AM120249  13.940  22.006  14.971  0.2084  0.0637  0.1568
 1726POSM   AM220250  13.841  21.866  14.745 -0.0227 -0.1716 -0.0425
 1726POSM   T1A20251  13.517  22.205  14.749 -0.0027  0.1263  0.1525
 1726POSM   C2A20252  13.454  22.106  14.290 -0.2205 -0.0473  0.0497
 1726POSM   C3A20253  13.580  21.902  13.880 -0.0292  0.0427  0.2015
 1726POSM   C1B20254  13.710  21.774  14.512 -0.0980 -0.0671 -0.1253
 1726POSM   D2B20255  13.750  21.521  14.150  0.0569  0.0341  0.3472
 1726POSM   C3B20256  13.430  21.305  13.936  0.2756  0.1763  0.2591
 1726POSM   C4B20257  13.200  21.006  13.542 -0.1330 -0.0849  0.2334
 1727DOPC   NC320258  19.853  22.296  15.088  0.3912  0.3179 -0.1384
 1727DOPC   PO420259  20.214  22.175  15.059 -0.0158  0.0628 -0.0637
 1727DOPC   GL120260  20.180  22.200  14.677 -0.1431 -0.0031  0.1199
 1727DOPC   GL220261  20.171  21.903  14.661 -0.2717 -0.1804  0.2037
 1727DOPC   C1A20262  20.384  22.186  14.258  0.1164 -0.0483  0.0870
 1727DOPC   D2A20263  20.506  21.983  13.882 -0.3907  0.0073 -0.2090
 1727DOPC   C3A20264  20.332  21.806  13.554  0.2254 -0.1949  0.2725
 1727DOPC   C4A20265  20.156  21.451  13.381  0.0209  0.0422 -0.1522
 1727DOPC   C1B20266  19.903  22.077  14.375  0.0273  0.0614  0.2499
 1727DOPC   D2B20267  19.688  22.448  14.387 -0.1014 -0.1828  0.1720
 1727DOPC   C3B20268  19.562  22.656  14.059 -0.1192  0.0562 -0.3461
 1727DOPC   C4B20269  19.444  22.838  13.644  0.0896  0.1630  0.0894
 1728DOPS   CNO20270  16.124  18.484  15.737  0.2291  0.0677 -0.2418
 1728DOPS   PO420271  16.183  18.301  15.404 -0.0217 -0.2451 -0.3578
 1728DOPS   GL120272  16.144  18.408  14.984  0.1977  0.0941 -0.1755
 1728DOPS   GL220273  16.325  18.369  14.765 -0.2374  0.0030  0.0797
 1728DOPS   C1A20274  16.249  18.848  14.824  0.3620 -0.0540 -0.2228
 1728DOPS   D2A20275  16.496  19.108  14.531  0.0007  0.0416  0.1317
 1728DOPS   C3A20276  16.907  19.293  14.315 -0.0881 -0.1425  0.1278
 1728DOPS   C4A20277  17.301  19.475  14.405  0.3311 -0.1713 -0.0505
 1728DOPS   C1B20278  16.068  18.568  14.365  0.1971 -0.1088 -0.1923
 1728DOPS   D2B20279  15.682  18.862  14.246 -0.1414 -0.2451  0.0289
 1728DOPS   C3B20280  15.287  18.812  14.341  0.0251  0.1338 -0.0235
 1728DOPS   C4B20281  14.798  18.873  14.255  0.3535  0.0062  0.0407
 1729DOPE   NH320282  22.247  16.829  15.196 -0.0412 -0.1937  0.2951
 1729DOPE   PO420283  22.243  16.548  15.290  0.1832 -0.1253  0.5783
 1729DOPE   GL120284  22.204  16.524  14.831  0.2116 -0.1181  0.0354
 1729DOPE   GL220285  22.268  16.798  14.714 -0.1101 -0.1786 -0.1102
 1729DOPE   C1A20286  22.184  16.302  14.401 -0.2009  0.1662 -0.1118
 1729DOPE   D2A20287  22.108  16.247  13.935  0.0617 -0.0998  0.3731
 1729DOPE   C3A20288  21.829  16.514  13.813  0.2424  0.2376  0.0363
 1729DOPE   C4A20289  21.872  16.846  13.489 -0.0032 -0.1664  0.2454
 1729DOPE   C1B20290  21.929  17.037  14.411  0.1413  0.0099  0.0912
 1729DOPE   D2B20291  21.773  16.995  14.026  0.1580 -0.4133 -0.2702
 1729DOPE   C3B20292  21.357  16.792  13.957  0.1510  0.0292 -0.0115
 1729DOPE   C4B20293  21.099  16.881  13.599  0.0183 -0.1488 -0.0782
 1730DOPS   CNO20294  16.245  21.010  15.693  0.0922 -0.2124 -0.2996
 1730DOPS   PO420295  16.593  20.944  15.583 -0.1499  0.0284 -0.1873
 1730DOPS   GL120296  16.836  21.028  15.363  0.3091  0.0295 -0.0084
 1730DOPS   GL220297  17.031  20.727  15.389 -0.0636 -0.0751  0.0076
 1730DOPS   C1A20298  16.977  21.017  14.963 -0.0623  0.2093  0.2220
 1730DOPS   D2A20299  17.114  20.688  14.658  0.0644 -0.3952  0.1994
 1730DOPS   C3A20300  17.255  20.783  14.217 -0.1297  0.0744 -0.0336
 1730DOPS   C4A20301  17.341  20.861  13.738 -0.0344  0.2052 -0.2020
 1730DOPS   C1B20302  16.761  20.488  15.105 -0.1366  0.1955 -0.0483
 1730DOPS   D2B20303  16.786  20.191  14.769  0.0469 -0.0875  0.0687
 1730DOPS   C3B20304  16.864  20.384  14.332 -0.0181 -0.2480  0.2736
 1730DOPS   C4B20305  17.052  20.295  13.977  0.0232  0.0736  0.3919
 1731DOPS   CNO20306  13.703  13.080  15.159  0.1240 -0.0145 -0.1543
 1731DOPS   PO420307  13.342  13.091  15.229  0.1110  0.0544  0.1547
 1731DOPS   GL120308  13.318  13.012  14.799  0.0798 -0.4680 -0.1569
 1731DOPS   GL220309  13.510  13.151  14.623 -0.2944 -0.0599 -0.1199
 1731DOPS   C1A20310  13.182  12.729  14.407  0.1182 -0.3494 -0.1378
 1731DOPS   D2A20311  13.161  12.864  13.943  0.0107  0.1535 -0.1908
 1731DOPS   C3A20312  12.813  13.037  13.793  0.0111  0.2098  0.0328
 1731DOPS   C4A20313  12.407  13.062  13.570 -0.1059 -0.2050 -0.0265
 1731DOPS   C1B20314  13.558  13.281  14.224  0.0073 -0.1445 -0.1229
 1731DOPS   D2B20315  13.709  12.969  13.893  0.1798  0.0123 -0.2299
 1731DOPS   C3B20316  13.982  13.065  13.570 -0.1001  0.1449  0.1067
 1731DOPS   C4B20317  14.118  13.057  13.128 -0.1521 -0.3389 -0.1957
 1732POSM   NC320318  13.319  19.399  15.598  0.0284 -0.2897  0.0282
 1732POSM   PO420319  13.684  19.531  15.585  0.2791  0.3515  0.3556
 1732POSM   AM120320  13.628  19.677  15.335 -0.2030 -0.1225 -0.0802
 1732POSM   AM220321  13.418  19.768  15.192 -0.3066 -0.1683 -0.1266
 1732POSM   T1A20322  13.802  19.686  14.864 -0.0073  0.0790  0.1846
 1732POSM   C2A20323  13.779  19.978  14.492 -0.1394 -0.0022 -0.3319
 1732POSM   C3A20324  13.681  19.830  14.049 -0.1011 -0.2850  0.2291
 1732POSM   C1B20325  13.195  19.586  14.957 -0.1040 -0.0240  0.4762
 1732POSM   D2B20326  13.158  19.326  14.622  0.0025 -0.0353  0.3089
 1732POSM   C3B20327  13.081  19.413  14.159 -0.2029 -0.0496 -0.0665
 1732POSM   C4B20328  13.171  19.789  13.913  0.0267  0.0684  0.1295
 1733POSM   NC320329  20.843  17.900  15.289  0.0667 -0.2930 -0.0760
 1733POSM   PO420330  20.593  17.684  14.991  0.0609 -0.2554 -0.4426
 1733POSM   AM120331  20.316  17.658  14.812 -0.4020 -0.1905  0.2421
 1733POSM   AM220332  20.287  17.466  14.644  0.3487 -0.1511  0.1322
 1733POSM   T1A20333  20.035  17.778  14.408  0.2463 -0.0564 -0.1305
 1733POSM   C2A20334  19.925  17.736  13.961  0.2775 -0.0911 -0.0395
 1733POSM   C3A20335  19.705  17.800  13.595  0.1328  0.0752 -0.1907
 1733POSM   C1B20336  20.397  17.291  14.377 -0.0903  0.0268  0.0469
 1733POSM   D2B20337  20.333  17.306  13.892 -0.1017 -0.1284 -0.5714
 1733POSM   C3B20338  20.285  17.056  13.532  0.1105  0.2193  0.0045
 1733POSM   C4B20339  20.373  17.213  13.109  0.0101  0.1509  0.5040
 1734DOPC   NC320340  14.077  14.213  14.524  0.2231 -0.2698  0.1449
 1734DOPC   PO420341  14.267  13.917  14.685  0.2167  0.2324  0.3530
 1734DOPC   GL120342  14.287  13.676  14.384 -0.1897  0.2522  0.0534
 1734DOPC   GL220343  14.392  13.792  14.105 -0.0743  0.0678 -0.2079
 1734DOPC   C1A20344  14.051  13.429  14.072  0.0299  0.2725  0.1021
 1734DOPC   D2A20345  13.719  13.535  13.779  0.0030 -0.0308 -0.2095
 1734DOPC   C3A20346  13.812  13.543  13.375  0.0335  0.1617  0.3583
 1734DOPC   C4A20347  13.890  13.470  12.905  0.0215 -0.0832  0.3509
 1734DOPC   C1B20348  14.376  13.762  13.636  0.1727 -0.0167  0.0653
 1734DOPC   D2B20349  14.262  13.795  13.153 -0.0079  0.0446  0.1960
 1734DOPC   C3B20350  14.464  13.562  12.825  0.2564  0.0875  0.2201
 1734DOPC   C4B20351  14.876  13.539  12.621 -0.0109  0.5983  0.2007
 1735POSM   NC320352  16.408  23.041  14.989 -0.1949  0.3714 -0.0792
 1735POSM   PO420353  16.511  22.700  15.213  0.4319 -0.0488  0.5391
 1735POSM   AM120354  16.563  22.618  14.864 -0.0010 -0.1089 -0.0448
 1735POSM   AM220355  16.725  22.436  14.751  0.2233 -0.3415 -0.2366
 1735POSM   T1A20356  16.371  22.670  14.434  0.0206  0.1187  0.1850
 1735POSM   C2A20357  16.438  22.675  13.974  0.0093 -0.1314  0.1023
 1735POSM   C3A20358  16.346  22.720  13.508 -0.2743  0.0708 -0.0417
 1735POSM   C1B20359  16.872  22.535  14.476  0.1655 -0.2050  0.0643
 1735POSM   D2B20360  16.866  22.800  14.134  0.1369  0.1011 -0.1515
 1735POSM   C3B20361  17.293  22.800  13.959  0.2164  0.1737 -0.2829
 1735POSM   C4B20362  17.294  23.199  13.683  0.1418  0.2120  0.1998
 1736DOPC   NC320363  18.402  17.969  14.882 -0.0363 -0.1077  0.0381
 1736DOPC   PO420364  18.157  18.257  14.996  0.1345  0.0121 -0.0035
 1736DOPC   GL120365  18.163  18.432  14.644  0.1175  0.4374 -0.0065
 1736DOPC   GL220366  18.490  18.402  14.574  0.0906  0.2743 -0.0414
 1736DOPC   C1A20367  17.843  18.217  14.356  0.2431  0.1859  0.0056
 1736DOPC   D2A20368  17.732  18.001  13.886  0.1250 -0.1795  0.0484
 1736DOPC   C3A20369  17.913  17.790  13.491 -0.3070  0.1787  0.0320
 1736DOPC   C4A20370  18.075  17.820  13.084  0.1601 -0.1502  0.0651
 1736DOPC   C1B20371  18.765  18.059  14.464  0.1678  0.5781  0.1745
 1736DOPC   D2B20372  18.930  17.749  14.130 -0.0705  0.0319 -0.0159
 1736DOPC   C3B20373  19.315  17.902  13.914 -0.1591  0.0297  0.0607
 1736DOPC   C4B20374  19.453  18.256  13.596 -0.1186  0.0458 -0.2192
 1737POSM   NC320375  18.178  17.262  15.277  0.0946  0.1325  0.2116
 1737POSM   PO420376  18.545  17.099  15.186 -0.0334  0.1991 -0.1634
 1737POSM   AM120377  18.536  17.242  14.892 -0.0295  0.0475 -0.0565
 1737POSM   AM220378  18.382  17.480  14.795 -0.1165  0.5383  0.0722
 1737POSM   T1A20379  18.639  17.261  14.427  0.0688  0.0701 -0.1652
 1737POSM   C2A20380  18.441  17.440  14.012  0.0983 -0.0021 -0.0811
 1737POSM   C3A20381  18.046  17.630  13.999 -0.1922 -0.0421 -0.1737
 1737POSM   C1B20382  18.330  17.651  14.524 -0.0862  0.4729  0.1499
 1737POSM   D2B20383  18.284  18.032  14.254  0.0802 -0.0887 -0.4244
 1737POSM   C3B20384  18.250  18.043  13.752 -0.0945  0.1107 -0.3116
 1737POSM   C4B20385  18.290  18.191  13.322  0.1355 -0.0003 -0.2015
 1738POSM   NC320386  19.992  13.287  15.743  0.0037  0.0495 -0.2576
 1738POSM   PO420387  19.848  13.525  15.452 -0.0714  0.3173  0.0021
 1738POSM   AM120388  19.934  13.426  15.138  0.3336  0.0575  0.0029
 1738POSM   AM220389  19.807  13.223  14.991  0.2739  0.0017  0.1982
 1738POSM   T1A20390  20.296  13.258  14.820 -0.2367 -0.2292  0.1323
 1738POSM   C2A20391  20.707  13.099  14.634 -0.2197  0.1213  0.2009
 1738POSM   C3A20392  20.971  13.153  14.248 -0.1620  0.2006 -0.2270
 1738POSM   C1B20393  19.875  12.913  14.838  0.1954 -0.2730 -0.1610
 1738POSM   D2B20394  19.846  12.665  14.418  0.2716  0.2353  0.0541
 1738POSM   C3B20395  20.126  12.512  14.070 -0.2988  0.1620 -0.4335
 1738POSM   C4B20396  20.531  12.499  13.818 -0.4741 -0.0706 -0.4931
 1739DOPC   NC320397  13.206  14.099  15.270  0.0109  0.1408 -0.2648
 1739DOPC   PO420398  13.469  14.271  15.069  0.3715 -0.3721  0.0170
 1739DOPC   GL120399  13.433  14.716  14.973  0.4170  0.2838 -0.0869
 1739DOPC   GL220400  13.184  14.765  14.800  0.2237  0.0495 -0.1339
 1739DOPC   C1A20401  13.701  14.935  14.681  0.1465  0.3391 -0.2537
 1739DOPC   D2A20402  14.114  15.030  14.410 -0.0004  0.0016  0.1953
 1739DOPC   C3A20403  13.867  15.205  14.019 -0.1587  0.1325 -0.4141
 1739DOPC   C4A20404  13.645  15.228  13.547  0.1248  0.1544 -0.2742
 1739DOPC   C1B20405  13.249  15.058  14.464  0.3208  0.1373 -0.0210
 1739DOPC   D2B20406  13.420  15.205  14.052 -0.0457  0.0057  0.3077
 1739DOPC   C3B20407  13.331  14.900  13.764 -0.1459  0.1303  0.0712
 1739DOPC   C4B20408  13.345  14.885  13.292 -0.0834  0.4115  0.2472
 1740DOPE   NH320409  13.818  13.468  14.895 -0.1674 -0.2614 -0.1836
 1740DOPE   PO420410  13.791  13.710  14.611  0.0548 -0.1104  0.0500
 1740DOPE   GL120411  13.943  13.859  14.270  0.0675 -0.1798  0.1442
 1740DOPE   GL220412  13.759  14.047  14.185 -0.2402 -0.1127  0.1483
 1740DOPE   C1A20413  14.001  13.974  13.809  0.1570  0.1621  0.0953
 1740DOPE   D2A20414  13.979  14.171  13.403  0.2656 -0.0949 -0.0847
 1740DOPE   C3A20415  13.833  14.040  12.990  0.2151  0.0368 -0.1188
 1740DOPE   C4A20416  13.625  14.219  12.591  0.0353  0.0945 -0.2188
 1740DOPE   C1B20417  13.724  14.339  13.878 -0.1582  0.0003 -0.3116
 1740DOPE   D2B20418  13.579  14.471  13.483 -0.1581 -0.3091 -0.0775
 1740DOPE   C3B20419  13.093  14.481  13.500 -0.3052 -0.1840 -0.1374
 1740DOPE   C4B20420  12.796  14.783  13.524  0.0626 -0.1867 -0.1518
 1741DOPC   NC320421  11.879  15.613  15.398 -0.0395 -0.0596  0.0659
 1741DOPC   PO420422  11.824  15.937  15.629 -0.1666  0.2471  0.2929
 1741DOPC   GL120423  11.937  16.101  15.268  0.0630  0.0124  0.2103
 1741DOPC   GL220424  12.188  16.013  15.329  0.2514 -0.3569  0.3638
 1741DOPC   C1A20425  11.987  16.354  14.866 -0.0606 -0.1263  0.4444
 1741DOPC   D2A20426  12.285  16.490  14.589 -0.0045  0.1051 -0.0897
 1741DOPC   C3A20427  12.350  16.334  14.151 -0.1744  0.0744 -0.0543
 1741DOPC   C4A20428  12.524  16.453  13.749  0.0939 -0.0842  0.0254
 1741DOPC   C1B20429  12.422  16.320  15.087 -0.2048 -0.0012 -0.2486
 1741DOPC   D2B20430  12.818  16.202  14.884 -0.0772  0.2352  0.0686
 1741DOPC   C3B20431  12.756  16.532  14.530  0.1233  0.2882 -0.4681
 1741DOPC   C4B20432  12.434  16.814  14.223  0.1555  0.3182  0.1222
 1742POSM   NC320433  20.879  19.115  14.557  0.1676  0.1580  0.1345
 1742POSM   PO420434  21.103  19.239  14.851  0.1905 -0.3124 -0.1201
 1742POSM   AM120435  21.391  19.147  14.704  0.1902 -0.0116  0.1042
 1742POSM   AM220436  21.458  18.987  14.483 -0.1422 -0.1800 -0.1147
 1742POSM   T1A20437  21.864  19.235  14.521  0.1299 -0.0759 -0.1844
 1742POSM   C2A20438  22.270  19.062  14.336 -0.0483 -0.1446  0.2398
 1742POSM   C3A20439  22.667  19.307  14.197 -0.1821  0.0144  0.2399
 1742POSM   C1B20440  21.435  19.204  14.234  0.2758 -0.0438 -0.1480
 1742POSM   D2B20441  21.392  19.168  13.773 -0.0545 -0.0844 -0.3128
 1742POSM   C3B20442  21.261  18.942  13.358  0.0293 -0.1366  0.0644
 1742POSM   C4B20443  21.088  19.081  12.951 -0.2520 -0.0927  0.0100
 1743POSM   NC320444  12.024  21.924  16.173  0.2029  0.3605  0.0499
 1743POSM   PO420445  12.144  21.610  15.948 -0.0906 -0.0084  0.0308
 1743POSM   AM120446  12.081  21.683  15.660  0.2104 -0.0950 -0.0789
 1743POSM   AM220447  12.294  21.850  15.516 -0.2889  0.3584 -0.3981
 1743POSM   T1A20448  11.946  21.662  15.203 -0.0235 -0.1196  0.4219
 1743POSM   C2A20449  11.862  21.628  14.748 -0.1997  0.3932  0.0852
 1743POSM   C3A20450  11.915  21.525  14.255 -0.2750  0.2645  0.3849
 1743POSM   C1B20451  12.426  21.832  15.202 -0.1611  0.1464  0.2172
 1743POSM   D2B20452  12.578  21.820  14.732 -0.2872 -0.1648  0.1011
 1743POSM   C3B20453  12.330  21.605  14.377  0.0047 -0.0881  0.0430
 1743POSM   C4B20454  12.293  21.326  13.981 -0.0315  0.0555 -0.1839
 1744POSM   NC320455  15.792  18.189  15.215 -0.0237 -0.2735  0.0887
 1744POSM   PO420456  15.392  18.011  15.214 -0.1941 -0.2824  0.0719
 1744POSM   AM120457  15.340  17.956  14.907 -0.2214 -0.0295  0.1011
 1744POSM   AM220458  15.070  17.977  14.805 -0.2437 -0.2515 -0.1969
 1744POSM   T1A20459  15.402  17.870  14.420 -0.0050  0.1651 -0.2871
 1744POSM   C2A20460  15.448  17.928  13.953 -0.0018  0.2440 -0.1936
 1744POSM   C3A20461  15.282  18.143  13.668  0.1906  0.0240  0.0299
 1744POSM   C1B20462  14.780  18.138  14.689  0.1722 -0.1129 -0.0649
 1744POSM   D2B20463  14.418  18.057  14.422 -0.2687 -0.0463  0.2858
 1744POSM   C3B20464  14.188  18.396  14.177 -0.1943  0.2122  0.3096
 1744POSM   C4B20465  13.928  18.692  13.931  0.1176  0.3873 -0.2387
 1745POSM   NC320466  14.459  22.783  15.581  0.1036 -0.2764  0.1145
 1745POSM   PO420467  14.386  22.500  15.296 -0.3035  0.2220  0.0370
 1745POSM   AM120468  14.383  22.641  15.033 -0.1853  0.0531  0.2476
 1745POSM   AM220469  14.516  22.919  14.944  0.2694 -0.1168 -0.0508
 1745POSM   T1A20470  14.180  22.786  14.570  0.2328 -0.0554 -0.1805
 1745POSM   C2A20471  13.876  22.864  14.218  0.2263  0.1899  0.4712
 1745POSM   C3A20472  13.854  23.109  13.835 -0.1528 -0.2155 -0.2494
 1745POSM   C1B20473  14.635  23.055  14.647 -0.0297  0.2746  0.0622
 1745POSM   D2B20474  15.041  22.942  14.358 -0.1110  0.0195 -0.4181
 1745POSM   C3B20475  15.095  22.595  14.080 -0.0243 -0.0524  0.1070
 1745POSM   C4B20476  14.689  22.353  13.979  0.2984 -0.4978  0.1675
 1746DOPC   NC320477  22.735  19.111  15.719  0.2238  0.2047 -0.4587
 1746DOPC   PO420478  22.672  18.963  15.405 -0.1655  0.0970 -0.1220
 1746DOPC   GL120479  22.911  19.090  15.146  0.0180 -0.2721  0.2741
 1746DOPC   GL220480  22.957  18.794  15.010  0.0390 -0.2543  0.0750
 1746DOPC   C1A20481  22.827  19.385  14.796 -0.2106 -0.0452  0.0981
 1746DOPC   D2A20482  22.982  19.741  14.518  0.0537  0.0252  0.2895
 1746DOPC   C3A20483  23.055  19.618  14.090  0.1780 -0.1329  0.0115
 1746DOPC   C4A20484  22.945  19.238  13.811  0.1835  0.2896 -0.0056
 1746DOPC   C1B20485  23.219  19.025  14.708 -0.1347  0.0412  0.0605
 1746DOPC   D2B20486  23.193  19.122  14.261 -0.0433  0.4873 -0.1166
 1746DOPC   C3B20487  23.465  19.247  13.940 -0.3553 -0.1323 -0.1088
 1746DOPC   C4B20488  23.299  19.591  13.671  0.1576  0.2114  0.0768
 1747POSM   NC320489  22.452  20.046  15.457  0.1963 -0.1561  0.3508
 1747POSM   PO420490  22.169  19.800  15.414 -0.2854 -0.0708  0.0974
 1747POSM   AM120491  22.191  19.819  15.101 -0.1846  0.0136 -0.1412
 1747POSM   AM220492  22.213  20.003  14.831  0.0307 -0.0674  0.1389
 1747POSM   T1A20493  22.282  19.448  14.738 -0.1697 -0.1184 -0.4596
 1747POSM   C2A20494  22.567  19.021  14.814 -0.0628 -0.0970 -0.0078
 1747POSM   C3A20495  22.745  18.760  14.521 -0.1393 -0.0296  0.1431
 1747POSM   C1B20496  22.442  19.925  14.503  0.2690  0.1235  0.3655
 1747POSM   D2B20497  22.552  19.825  14.041  0.0191  0.0361 -0.2974
 1747POSM   C3B20498  22.301  19.687  13.717  0.0862  0.1891  0.0696
 1747POSM   C4B20499  22.350  19.280  13.517 -0.0170  0.1864  0.0486
 1748DOPS   CNO20500  16.828  17.653  15.111 -0.1993  0.0622  0.0978
 1748DOPS   PO420501  16.658  17.643  14.768  0.1189  0.0062  0.0318
 1748DOPS   GL120502  16.647  17.771  14.526  0.3103 -0.4939 -0.2195
 1748DOPS   GL220503  16.893  17.686  14.290 -0.0586 -0.0270  0.0802
 1748DOPS   C1A20504  16.491  18.142  14.306 -0.0831  0.0570  0.0188
 1748DOPS   D2A20505  16.359  18.480  13.934 -0.0799  0.2311  0.1049
 1748DOPS   C3A20506  16.727  18.793  13.872 -0.1189 -0.2154  0.0147
 1748DOPS   C4A20507  16.958  18.668  13.499 -0.0267  0.1783 -0.1265
 1748DOPS   C1B20508  16.747  17.843  13.916  0.2038  0.5193  0.1628
 1748DOPS   D2B20509  16.482  18.097  13.638 -0.1893 -0.1153 -0.0859
 1748DOPS   C3B20510  16.045  18.076  13.450  0.0554 -0.0125  0.1724
 1748DOPS   C4B20511  15.690  18.439  13.390  0.0134  0.3247 -0.0412
 1749DOPS   CNO20512  12.001  19.523  15.725  0.5738 -0.0716  0.0265
 1749DOPS   PO420513  11.948  19.175  15.568 -0.0231  0.0559 -0.2130
 1749DOPS   GL120514  12.032  18.967  15.152  0.2120 -0.3330  0.0074
 1749DOPS   GL220515  11.929  19.223  14.984  0.1342  0.0627 -0.1983
 1749DOPS   C1A20516  12.433  18.798  14.967  0.2455  0.1356 -0.0835
 1749DOPS   D2A20517  12.661  18.483  14.728  0.0370  0.0416  0.1109
 1749DOPS   C3A20518  12.902  18.547  14.304  0.0154  0.0431 -0.3045
 1749DOPS   C4A20519  12.867  18.856  13.961 -0.1452 -0.2363  0.2477
 1749DOPS   C1B20520  11.648  18.877  14.836 -0.0219 -0.1666  0.2696
 1749DOPS   D2B20521  11.360  18.627  14.536 -0.0986 -0.1948  0.3139
 1749DOPS   C3B20522  11.108  18.299  14.325  0.3903 -0.0100 -0.1068
 1749DOPS   C4B20523  10.816  18.262  13.959 -0.1747 -0.2108 -0.0538
 1750DOPS   CNO20524  18.508  19.877  15.702 -0.1126 -0.1102  0.0814
 1750DOPS   PO420525  18.569  19.909  15.354  0.1158 -0.3399  0.0278
 1750DOPS   GL120526  18.517  19.723  15.037 -0.0712 -0.1172  0.2553
 1750DOPS   GL220527  18.502  19.929  14.765  0.2409  0.0549  0.1136
 1750DOPS   C1A20528  18.110  19.642  14.845  0.1231 -0.1627  0.4455
 1750DOPS   D2A20529  17.860  19.582  14.439 -0.0158 -0.0438  0.0095
 1750DOPS   C3A20530  17.672  19.964  14.243  0.3373 -0.2570 -0.1289
 1750DOPS   C4A20531  17.269  20.180  14.393  0.1540  0.1617  0.0668
 1750DOPS   C1B20532  18.129  20.141  14.490 -0.1423 -0.0800 -0.3134
 1750DOPS   D2B20533  18.099  20.295  14.079 -0.1374 -0.1508  0.1394
 1750DOPS   C3B20534  17.865  20.100  13.735  0.2525  0.1907  0.3135
 1750DOPS   C4B20535  17.681  19.854  13.389 -0.1085 -0.2627  0.1413
 1751POSM   NC320536  19.441  14.378  15.102 -0.1585  0.2933  0.0810
 1751POSM   PO420537  19.087  14.559  15.052 -0.1656 -0.0595  0.0258
 1751POSM   AM120538  19.177  14.677  14.754  0.2255  0.0110  0.0375
 1751POSM   AM220539  19.349  14.595  14.546 -0.0093 -0.2802  0.1825
 1751POSM   T1A20540  19.464  15.096  14.542 -0.3327 -0.1035  0.2051
 1751POSM   C2A20541  19.766  15.376  14.358 -0.1590  0.0733 -0.0709
 1751POSM   C3A20542  20.041  15.566  14.058  0.2551  0.0853  0.2425
 1751POSM   C1B20543  19.532  14.694  14.291  0.0324 -0.4713  0.0962
 1751POSM   D2B20544  19.820  14.697  13.971  0.0702 -0.6586  0.1065
 1751POSM   C3B20545  20.222  14.567  13.992  0.2879  0.0247 -0.4258
 1751POSM   C4B20546  20.494  14.202  14.171  0.1129 -0.1151 -0.2045
 1752DOPE   NH320547  20.054  24.044  15.767 -0.2526  0.2458 -0.3675
 1752DOPE   PO420548  20.002  23.832  15.536  0.0608 -0.0236 -0.2843
 1752DOPE   GL120549  19.962  23.811  15.125 -0.1046  0.1136  0.0281
 1752DOPE   GL220550  19.881  23.582  15.075 -0.1639  0.0546  0.2702
 1752DOPE   C1A20551  19.941  23.778  14.639 -0.2286 -0.4943 -0.0403
 1752DOPE   D2A20552  19.831  23.850  14.240  0.0724 -0.0988  0.0840
 1752DOPE   C3A20553  19.465  23.761  13.964 -0.0694 -0.0939 -0.0088
 1752DOPE   C4A20554  19.056  23.780  13.769  0.0011 -0.1450 -0.1569
 1752DOPE   C1B20555  19.602  23.211  14.930 -0.1088 -0.0180 -0.0455
 1752DOPE   D2B20556  19.180  23.234  14.648 -0.2824 -0.2927 -0.0025
 1752DOPE   C3B20557  19.050  23.614  14.426  0.1373  0.0809  0.0735
 1752DOPE   C4B20558  19.196  24.057  14.337 -0.2302 -0.1666  0.1194
 1753POSM   NC320559  16.235  12.480  15.456 -0.4234  0.0561 -0.1114
 1753POSM   PO420560  16.292  12.324  15.093  0.2808 -0.0808  0.0923
 1753POSM   AM120561  16.069  12.357  14.829 -0.0989  0.2542  0.1553
 1753POSM   AM220562  15.997  12.553  14.624 -0.0741  0.0093 -0.0023
 1753POSM   T1A20563  15.928  12.116  14.399  0.1415  0.0622 -0.1863
 1753POSM   C2A20564  15.941  11.831  13.999 -0.2626 -0.1333  0.0185
 1753POSM   C3A20565  16.145  11.700  13.601 -0.0465 -0.2002  0.0762
 1753POSM   C1B20566  16.278  12.519  14.459 -0.1014 -0.0552  0.2019
 1753POSM   D2B20567  16.688  12.594  14.316 -0.0000 -0.3193 -0.1256
 1753POSM   C3B20568  16.584  12.500  13.850 -0.0166 -0.0687  0.0434
 1753POSM   C4B20569  16.256  12.419  13.458  0.0142  0.3415  0.1905
 1754DOPS   CNO20570  19.739  18.843  14.897 -0.4009 -0.1937  0.2807
 1754DOPS   PO420571  19.433  19.006  14.867  0.3320 -0.0710 -0.1622
 1754DOPS   GL120572  19.335  19.003  14.550  0.1888  0.0439  0.0734
 1754DOPS   GL220573  19.028  19.035  14.575 -0.2953 -0.0842  0.2137
 1754DOPS   C1A20574  19.422  19.181  14.172 -0.2528  0.0470 -0.3882
 1754DOPS   D2A20575  19.275  19.234  13.710 -0.1169  0.2819  0.1410
 1754DOPS   C3A20576  18.808  19.240  13.603 -0.5112  0.1635 -0.2249
 1754DOPS   C4A20577  18.452  18.976  13.420 -0.0853  0.3530 -0.0349
 1754DOPS   C1B20578  18.941  18.612  14.334 -0.3279  0.2650  0.2234
 1754DOPS   D2B20579  19.152  18.341  14.061  0.1353 -0.1329 -0.0058
 1754DOPS   C3B20580  19.089  18.488  13.660 -0.0344 -0.2036  0.1865
 1754DOPS   C4B20581  18.815  18.125  13.524  0.3623 -0.1355  0.0549
 1755POSM   NC320582  21.754  17.046  14.912  0.1578 -0.5090  0.1728
 1755POSM   PO420583  21.776  16.698  15.082 -0.1440 -0.3959  0.2048
 1755POSM   AM120584  21.658  16.631  14.767  0.0826 -0.3053  0.0429
 1755POSM   AM220585  21.756  16.458  14.556  0.1725 -0.2603  0.0267
 1755POSM   T1A20586  21.324  16.809  14.492 -0.1268 -0.0722 -0.0923
 1755POSM   C2A20587  20.909  16.784  14.210  0.1034 -0.2518 -0.1648
 1755POSM   C3A20588  20.674  16.853  13.831  0.3203 -0.1349 -0.0666
 1755POSM   C1B20589  21.663  16.248  14.269 -0.0577 -0.1712 -0.1656
 1755POSM   D2B20590  21.453  16.097  13.882 -0.2764 -0.1589 -0.0856
 1755POSM   C3B20591  21.752  16.124  13.537 -0.2350  0.0550  0.0547
 1755POSM   C4B20592  21.746  15.961  13.100 -0.2712 -0.1013 -0.4742
 1756POSM   NC320593  16.213  14.507  15.464  0.0704 -0.0551  0.4689
 1756POSM   PO420594  16.424  14.657  15.187 -0.1314  0.1587  0.1084
 1756POSM   AM120595  16.344  14.607  14.880 -0.1524  0.1855 -0.0616
 1756POSM   AM220596  16.166  14.698  14.655 -0.0242  0.3071  0.2201
 1756POSM   T1A20597  16.567  14.645  14.378 -0.1391  0.2874 -0.0323
 1756POSM   C2A20598  16.671  14.597  13.936  0.1725 -0.1151  0.0622
 1756POSM   C3A20599  16.500  14.720  13.509 -0.0710  0.0776 -0.0455
 1756POSM   C1B20600  16.095  14.812  14.351 -0.0889 -0.3036 -0.2271
 1756POSM   D2B20601  16.231  14.965  13.954 -0.1794  0.0480 -0.0028
 1756POSM   C3B20602  16.638  15.142  13.811 -0.1650  0.1125  0.1735
 1756POSM   C4B20603  16.686  15.499  13.487  0.1064  0.2196 -0.0878
 1757POSM   NC320604  14.193  19.903  15.275 -0.1341 -0.0443 -0.2934
 1757POSM   PO420605  13.890  20.059  15.403  0.3818 -0.2781  0.0821
 1757POSM   AM120606  13.667  20.176  15.150 -0.0829  0.6329 -0.2606
 1757POSM   AM220607  13.802  20.239  14.903 -0.0821  0.0091  0.3643
 1757POSM   T1A20608  13.227  20.151  14.890 -0.2183  0.0923  0.4364
 1757POSM   C2A20609  12.877  20.006  14.707  0.0850 -0.0901  0.3087
 1757POSM   C3A20610  12.730  19.856  14.285  0.2046 -0.1496  0.0065
 1757POSM   C1B20611  13.989  20.465  14.721 -0.2807 -0.1858 -0.1472
 1757POSM   D2B20612  14.282  20.594  14.315 -0.3254  0.0847  0.0866
 1757POSM   C3B20613  14.442  20.342  13.993  0.2581  0.0923 -0.2325
 1757POSM   C4B20614  14.723  20.046  13.749  0.5554 -0.2524 -0.0763
 1758DOPE   NH320615  22.492  20.624  15.299 -0.0930 -0.0244  0.1372
 1758DOPE   PO420616  22.572  20.390  15.112  0.3849 -0.2497  0.2247
 1758DOPE   GL120617  22.640  20.293  14.742  0.0347  0.1123  0.0765
 1758DOPE   GL220618  22.956  20.325  14.719 -0.0518  0.0500  0.1420
 1758DOPE   C1A20619  22.694  20.308  14.267 -0.1627  0.0846  0.0411
 1758DOPE   D2A20620  22.894  20.185  13.906  0.2816  0.3141  0.0769
 1758DOPE   C3A20621  22.875  20.453  13.559  0.0833  0.4579  0.2519
 1758DOPE   C4A20622  22.977  20.435  13.086 -0.2334  0.0009 -0.1370
 1758DOPE   C1B20623  23.207  20.411  14.370  0.2996  0.3749 -0.0848
 1758DOPE   D2B20624  23.372  20.267  13.958 -0.1578 -0.1091  0.2591
 1758DOPE   C3B20625  23.795  20.215  13.804 -0.0282  0.0813  0.0915
 1758DOPE   C4B20626  24.222  20.081  13.717  0.2441  0.1914  0.0552
 1759DOPE   NH320627  12.485  18.743  15.782 -0.1945  0.1978  0.2540
 1759DOPE   PO420628  12.770  18.915  15.731  0.0406  0.4388  0.0247
 1759DOPE   GL120629  12.792  18.773  15.385  0.3306  0.0801 -0.0253
 1759DOPE   GL220630  12.747  18.577  15.305 -0.1433  0.1437  0.1155
 1759DOPE   C1A20631  12.908  18.891  14.961  0.2224 -0.0133 -0.0782
 1759DOPE   D2A20632  12.825  18.961  14.512 -0.0041 -0.0922  0.4595
 1759DOPE   C3A20633  12.585  19.271  14.235  0.1305  0.0396 -0.2012
 1759DOPE   C4A20634  12.178  19.162  14.104 -0.0775 -0.1092  0.0227
 1759DOPE   C1B20635  12.485  18.254  15.321  0.0273  0.1402  0.1172
 1759DOPE   D2B20636  12.278  18.194  14.991 -0.2922 -0.0940 -0.3328
 1759DOPE   C3B20637  12.125  18.458  14.599 -0.0263 -0.1671  0.1951
 1759DOPE   C4B20638  12.346  18.836  14.446  0.1283  0.4077  0.3469
 1760DOPS   CNO20639  22.579  12.553  15.735  0.0163  0.3006  0.1970
 1760DOPS   PO420640  22.242  12.721  15.646  0.2734  0.0024 -0.5184
 1760DOPS   GL120641  22.389  12.622  15.317  0.2735  0.3123 -0.0031
 1760DOPS   GL220642  22.191  12.780  15.183 -0.1389  0.2664 -0.1516
 1760DOPS   C1A20643  22.316  12.274  14.990  0.0755 -0.0082  0.1378
 1760DOPS   D2A20644  22.510  11.901  14.875  0.0499 -0.0560  0.1767
 1760DOPS   C3A20645  22.286  11.519  14.798 -0.0546  0.1558  0.0889
 1760DOPS   C4A20646  21.878  11.376  14.936 -0.0502  0.1109 -0.2654
 1760DOPS   C1B20647  22.065  12.588  14.755 -0.2698  0.1296 -0.1834
 1760DOPS   D2B20648  22.181  12.497  14.320  0.0396 -0.4872  0.2431
 1760DOPS   C3B20649  21.937  12.222  14.062 -0.0026  0.0129 -0.0086
 1760DOPS   C4B20650  21.908  11.878  13.769  0.2226  0.0874 -0.1400
 1761DOPS   CNO20651  11.700  16.407  15.731  0.1292  0.0847  0.0244
 1761DOPS   PO420652  11.624  16.413  15.371  0.0085 -0.2929  0.0560
 1761DOPS   GL120653  11.444  16.219  15.189  0.3697 -0.3730 -0.2109
 1761DOPS   GL220654  11.249  16.231  14.973 -0.0762  0.0020  0.2570
 1761DOPS   C1A20655  11.707  15.899  14.937 -0.3721 -0.2595  0.1127
 1761DOPS   D2A20656  11.759  15.798  14.484  0.1551 -0.1730  0.3296
 1761DOPS   C3A20657  11.332  15.874  14.341 -0.1445  0.0602  0.2564
 1761DOPS   C4A20658  10.991  16.073  14.077  0.2653 -0.0197  0.1023
 1761DOPS   C1B20659  11.572  16.273  14.646 -0.1423 -0.0214  0.1229
 1761DOPS   D2B20660  11.895  16.257  14.294  0.0954 -0.3431 -0.2537
 1761DOPS   C3B20661  11.726  15.992  13.987 -0.0769  0.1008  0.1312
 1761DOPS   C4B20662  11.344  15.829  13.760  0.1739 -0.0658  0.0847
 1762DOPE   NH320663  16.114  21.459  14.884 -0.1545 -0.2865  0.2858
 1762DOPE   PO420664  15.998  21.207  14.873  0.0327  0.0471  0.2147
 1762DOPE   GL120665  15.806  21.207  14.582 -0.0459  0.1116  0.2493
 1762DOPE   GL220666  15.712  21.419  14.409  0.1720  0.2324 -0.1484
 1762DOPE   C1A20667  15.504  20.996  14.224  0.0630  0.2221 -0.0935
 1762DOPE   D2A20668  15.322  21.007  13.806 -0.0307  0.0225  0.2295
 1762DOPE   C3A20669  14.889  20.979  13.587 -0.1050  0.0287 -0.1995
 1762DOPE   C4A20670  14.524  20.943  13.365  0.0756  0.0473 -0.2805
 1762DOPE   C1B20671  15.810  21.285  13.926 -0.1104 -0.1758 -0.0107
 1762DOPE   D2B20672  15.670  21.400  13.515  0.0370  0.1543 -0.2012
 1762DOPE   C3B20673  15.226  21.430  13.486  0.0119 -0.1248  0.2454
 1762DOPE   C4B20674  15.008  21.667  13.783  0.2997  0.0419 -0.1989
 1763DOPC   NC320675  16.401  22.197  15.157 -0.1631  0.2201 -0.2010
 1763DOPC   PO420676  16.148  21.953  15.076 -0.1765 -0.0013 -0.0606
 1763DOPC   GL120677  16.165  21.987  14.745 -0.4485  0.0119  0.4293
 1763DOPC   GL220678  16.215  22.232  14.688  0.1494  0.0985  0.0375
 1763DOPC   C1A20679  16.133  21.734  14.353  0.1446  0.0618  0.1105
 1763DOPC   D2A20680  15.888  21.817  13.915 -0.2365 -0.1473  0.3365
 1763DOPC   C3A20681  15.572  22.145  13.991 -0.1342  0.2482  0.0836
 1763DOPC   C4A20682  15.425  22.533  13.703  0.0032  0.4559  0.1223
 1763DOPC   C1B20683  16.545  22.156  14.368 -0.3699 -0.1610  0.2117
 1763DOPC   D2B20684  16.732  22.233  14.024  0.3007 -0.0443  0.0121
 1763DOPC   C3B20685  17.182  22.314  14.067 -0.1209 -0.0492 -0.0676
 1763DOPC   C4B20686  17.582  22.273  13.856 -0.1579  0.0125 -0.3173
 1764DOPE   NH320687  18.421  21.365  15.822 -0.0976  0.1622  0.2873
 1764DOPE   PO420688  18.390  21.158  15.580  0.1236 -0.3239 -0.1262
 1764DOPE   GL120689  18.081  20.933  15.381 -0.1215  0.0878  0.4110
 1764DOPE   GL220690  17.973  21.139  15.237  0.0269  0.2615  0.3218
 1764DOPE   C1A20691  18.202  20.622  15.044 -0.1630  0.0878  0.3514
 1764DOPE   D2A20692  18.040  20.685  14.654 -0.2489 -0.1053 -0.1255
 1764DOPE   C3A20693  18.329  20.724  14.234 -0.2569  0.1639 -0.1202
 1764DOPE   C4A20694  18.431  20.762  13.819 -0.2713 -0.1966 -0.0547
 1764DOPE   C1B20695  18.070  21.229  14.779 -0.2578  0.0634  0.0258
 1764DOPE   D2B20696  18.009  21.456  14.401 -0.5435  0.1150 -0.1300
 1764DOPE   C3B20697  17.880  21.237  14.093  0.1241  0.1621 -0.0851
 1764DOPE   C4B20698  17.850  20.800  13.947  0.2391 -0.2143  0.1586
 1765DOPC   NC320699  11.496  15.572  15.777 -0.2115  0.0634  0.0991
 1765DOPC   PO420700  11.339  15.235  15.610  0.5235 -0.1585 -0.0470
 1765DOPC   GL120701  11.131  15.097  15.323 -0.0656 -0.2289  0.2867
 1765DOPC   GL220702  11.214  14.792  15.352  0.0616 -0.1331 -0.0731
 1765DOPC   C1A20703  10.831  14.824  15.078  0.1128 -0.2970 -0.0772
 1765DOPC   D2A20704  10.713  14.361  14.879  0.1276  0.0319 -0.1069
 1765DOPC   C3A20705  10.567  14.375  14.438  0.0354  0.0346  0.0875
 1765DOPC   C4A20706  10.533  14.485  14.002 -0.4323 -0.3070  0.2303
 1765DOPC   C1B20707  11.377  15.002  14.985  0.1523 -0.0638  0.0686
 1765DOPC   D2B20708  11.765  14.986  14.727  0.1333 -0.2246  0.0494
 1765DOPC   C3B20709  11.899  15.265  14.380  0.0180 -0.3557 -0.0033
 1765DOPC   C4B20710  11.780  15.393  13.959  0.2181 -0.2479 -0.0463
 1766DOPE   NH320711  21.404  16.152  15.301  0.2546  0.2470  0.2497
 1766DOPE   PO420712  21.624  16.241  15.102 -0.3032  0.1341  0.1613
 1766DOPE   GL120713  21.438  16.218  14.765 -0.0921  0.4154 -0.1707
 1766DOPE   GL220714  21.164  16.407  14.737 -0.1296 -0.1937 -0.0095
 1766DOPE   C1A20715  21.224  15.880  14.505  0.4064 -0.1628  0.0618
 1766DOPE   D2A20716  20.957  15.899  14.120 -0.1266 -0.2357  0.0422
 1766DOPE   C3A20717  20.953  15.898  13.674  0.2395  0.1516  0.0878
 1766DOPE   C4A20718  21.167  16.001  13.236  0.0182 -0.0123  0.0174
 1766DOPE   C1B20719  21.179  16.350  14.277  0.0250  0.1978  0.0278
 1766DOPE   D2B20720  20.976  16.357  13.904  0.1073 -0.0265 -0.2267
 1766DOPE   C3B20721  21.284  16.423  13.575 -0.1739 -0.0301 -0.1541
 1766DOPE   C4B20722  21.550  16.468  13.244  0.1819 -0.0618  0.0101
 1767DOPE   NH320723  21.100  19.728  15.009  0.0396 -0.4239  0.3341
 1767DOPE   PO420724  21.282  19.935  14.911  0.1473  0.2167  0.0524
 1767DOPE   GL120725  21.429  19.838  14.550 -0.1549  0.0422  0.2404
 1767DOPE   GL220726  21.229  19.593  14.504 -0.0990  0.2148  0.4223
 1767DOPE   C1A20727  21.632  19.718  14.132  0.2589  0.0201  0.5251
 1767DOPE   D2A20728  21.826  19.617  13.746 -0.1031  0.1386  0.1287
 1767DOPE   C3A20729  21.986  19.631  13.341  0.1403 -0.1591 -0.1498
 1767DOPE   C4A20730  21.876  19.781  12.885 -0.0389  0.4056  0.0492
 1767DOPE   C1B20731  21.154  19.588  13.997 -0.1095  0.2081  0.2315
 1767DOPE   D2B20732  21.355  19.683  13.573 -0.1739 -0.1252  0.0520
 1767DOPE   C3B20733  21.497  19.431  13.162  0.0355 -0.1616  0.1556
 1767DOPE   C4B20734  21.896  19.240  12.940 -0.0947 -0.0498 -0.1531
 1768DOPC   NC320735  14.549  12.020  15.144  0.1257  0.0210  0.0907
 1768DOPC   PO420736  14.205  12.143  14.974 -0.0774  0.0622  0.2126
 1768DOPC   GL120737  14.071  12.017  14.640  0.3597 -0.2738  0.0757
 1768DOPC   GL220738  13.984  12.340  14.583  0.2869  0.2595 -0.0362
 1768DOPC   C1A20739  14.118  11.894  14.205  0.1913 -0.0924 -0.1757
 1768DOPC   D2A20740  14.297  12.046  13.814  0.1920  0.0849 -0.2674
 1768DOPC   C3A20741  14.332  12.393  13.597 -0.3067 -0.1533  0.2323
 1768DOPC   C4A20742  14.208  12.616  13.245  0.3373  0.1984  0.0092
 1768DOPC   C1B20743  13.698  12.031  14.438  0.2970  0.1556 -0.2186
 1768DOPC   D2B20744  13.423  11.659  14.377 -0.3980 -0.2106 -0.4266
 1768DOPC   C3B20745  13.090  11.688  14.019 -0.0530 -0.0721 -0.0919
 1768DOPC   C4B20746  12.856  11.539  13.671 -0.1779  0.0734 -0.1016
 1769DOPC   NC320747  22.604  15.861  14.808 -0.4787  0.0492 -0.0243
 1769DOPC   PO420748  22.755  15.490  14.816  0.0888  0.2535  0.2477
 1769DOPC   GL120749  22.669  15.617  14.414  0.0902 -0.2922  0.1129
 1769DOPC   GL220750  22.479  15.408  14.370 -0.2638 -0.2114  0.0290
 1769DOPC   C1A20751  22.624  15.542  13.911 -0.1597 -0.2935 -0.1665
 1769DOPC   D2A20752  22.548  15.336  13.514 -0.1256  0.3469  0.1530
 1769DOPC   C3A20753  22.828  15.115  13.236  0.2768 -0.1795 -0.0057
 1769DOPC   C4A20754  23.040  15.059  12.867 -0.1358 -0.0012 -0.0023
 1769DOPC   C1B20755  22.146  15.519  14.070 -0.3959  0.2505  0.0543
 1769DOPC   D2B20756  21.846  15.789  13.843  0.0381 -0.0280 -0.3184
 1769DOPC   C3B20757  21.511  15.587  13.537 -0.1231  0.0597 -0.2437
 1769DOPC   C4B20758  21.109  15.456  13.372 -0.0058 -0.3683 -0.0618
 1770DOPE   NH320759  18.792  13.328  15.128  0.1714  0.3206 -0.0915
 1770DOPE   PO420760  19.059  13.529  15.181 -0.0375  0.1133  0.5239
 1770DOPE   GL120761  19.006  13.634  14.816 -0.0201  0.1042 -0.0215
 1770DOPE   GL220762  19.058  13.773  14.599 -0.1639 -0.0875  0.2919
 1770DOPE   C1A20763  18.674  13.507  14.498 -0.1044  0.0821 -0.0010
 1770DOPE   D2A20764  18.437  13.567  14.100  0.1189  0.2718 -0.0602
 1770DOPE   C3A20765  18.736  13.483  13.731  0.0925 -0.2197  0.1507
 1770DOPE   C4A20766  18.808  13.377  13.307 -0.4014  0.1298  0.2162
 1770DOPE   C1B20767  19.137  14.109  14.285  0.0854 -0.1555 -0.0099
 1770DOPE   D2B20768  19.282  14.422  13.979  0.2281 -0.0897  0.2708
 1770DOPE   C3B20769  19.429  14.647  13.651 -0.1507  0.1499  0.0110
 1770DOPE   C4B20770  19.226  15.040  13.532  0.1790 -0.1335  0.0660
 1771DOPE   NH320771  22.843  18.383  15.412 -0.0600  0.1064 -0.2477
 1771DOPE   PO420772  22.718  18.143  15.245 -0.0110  0.0831  0.2370
 1771DOPE   GL120773  22.965  18.144  14.920  0.0001 -0.3299 -0.0421
 1771DOPE   GL220774  23.192  18.332  14.918  0.2548 -0.1344  0.0711
 1771DOPE   C1A20775  23.134  17.922  14.558 -0.0256 -0.0832 -0.1595
 1771DOPE   D2A20776  22.899  17.722  14.242 -0.1478 -0.1999 -0.0084
 1771DOPE   C3A20777  23.011  17.783  13.790  0.1658  0.1403 -0.0844
 1771DOPE   C4A20778  23.097  17.918  13.358  0.1375  0.2165  0.0900
 1771DOPE   C1B20779  23.174  18.528  14.469 -0.2487  0.1414 -0.1058
 1771DOPE   D2B20780  22.995  18.472  14.063  0.2609  0.1608 -0.1669
 1771DOPE   C3B20781  22.859  18.313  13.653 -0.2516  0.0422 -0.5300
 1771DOPE   C4B20782  22.807  18.330  13.167 -0.0339  0.0762  0.1937
 1772DOPS   CNO20783  13.418  15.921  15.289  0.0956 -0.1652  0.0199
 1772DOPS   PO420784  13.174  16.120  15.494 -0.0463 -0.3334 -0.0025
 1772DOPS   GL120785  13.204  16.411  15.163 -0.0959  0.1646 -0.4259
 1772DOPS   GL220786  13.438  16.481  15.207  0.0682  0.1732 -0.1084
 1772DOPS   C1A20787  13.176  16.714  14.799  0.0868 -0.0966 -0.0968
 1772DOPS   D2A20788  13.487  17.018  14.765 -0.1737  0.0279 -0.2141
 1772DOPS   C3A20789  13.496  17.256  14.305  0.0696  0.2346  0.0199
 1772DOPS   C4A20790  13.329  17.517  13.969 -0.0975 -0.2073 -0.0488
 1772DOPS   C1B20791  13.684  16.310  14.850 -0.2387  0.1496  0.1268
 1772DOPS   D2B20792  13.636  16.429  14.401  0.2854 -0.1414 -0.0711
 1772DOPS   C3B20793  13.197  16.610  14.337 -0.1111  0.1072  0.2900
 1772DOPS   C4B20794  12.869  16.583  14.037 -0.1080 -0.3065 -0.0176
 1773POSM   NC320795  16.085  22.613  15.452  0.3102  0.1295  0.1123
 1773POSM   PO420796  15.763  22.881  15.374  0.0148 -0.2081 -0.1725
 1773POSM   AM120797  15.948  22.880  15.095  0.1434 -0.4945  0.1078
 1773POSM   AM220798  16.085  22.709  14.886 -0.1437 -0.3167 -0.1625
 1773POSM   T1A20799  16.029  23.146  14.665  0.1877  0.0552 -0.1968
 1773POSM   C2A20800  15.861  23.341  14.225 -0.0969 -0.0003  0.3154
 1773POSM   C3A20801  15.753  23.459  13.806  0.2316  0.1352 -0.0931
 1773POSM   C1B20802  15.939  22.646  14.605  0.3913 -0.2541  0.0510
 1773POSM   D2B20803  15.776  22.608  14.158 -0.2648 -0.0944  0.0768
 1773POSM   C3B20804  15.977  22.932  13.913 -0.2988  0.0018  0.2815
 1773POSM   C4B20805  16.213  23.225  13.697  0.1474  0.0519 -0.3707
 1774DOPC   NC320806  11.904  17.333  15.531 -0.1866 -0.0720  0.0445
 1774DOPC   PO420807  11.498  17.381  15.471  0.5143 -0.2794 -0.0640
 1774DOPC   GL120808  11.579  17.577  15.126  0.2048 -0.4860 -0.0057
 1774DOPC   GL220809  11.572  17.908  15.258  0.1103 -0.1565  0.0994
 1774DOPC   C1A20810  11.473  17.771  14.696 -0.1959 -0.1565 -0.1203
 1774DOPC   D2A20811  11.311  17.850  14.264 -0.3641 -0.0041 -0.2119
 1774DOPC   C3A20812  11.348  18.129  13.915  0.0684  0.0324 -0.3354
 1774DOPC   C4A20813  11.432  18.578  14.061  0.1498 -0.1332  0.1490
 1774DOPC   C1B20814  11.775  18.170  14.890  0.1940 -0.2700  0.4162
 1774DOPC   D2B20815  11.636  18.228  14.456 -0.3874  0.0865 -0.2507
 1774DOPC   C3B20816  11.818  18.280  14.010 -0.1216  0.1496  0.1394
 1774DOPC   C4B20817  12.182  18.294  13.657  0.2468 -0.2020 -0.2105
 1775DOPC   NC320818  15.888  15.118  14.782 -0.2219  0.0524  0.0067
 1775DOPC   PO420819  15.877  15.440  14.933  0.1186  0.0972  0.2065
 1775DOPC   GL120820  15.593  15.682  14.708  0.2335 -0.2637  0.5459
 1775DOPC   GL220821  15.531  15.429  14.552 -0.2951 -0.2100 -0.2001
 1775DOPC   C1A20822  15.603  15.772  14.229 -0.2642 -0.3186 -0.0126
 1775DOPC   D2A20823  15.866  15.731  13.864 -0.2207  0.1594  0.0175
 1775DOPC   C3A20824  15.997  15.805  13.389 -0.0092 -0.0084  0.4510
 1775DOPC   C4A20825  16.123  15.955  12.929 -0.1509 -0.1659  0.1666
 1775DOPC   C1B20826  15.253  15.425  14.181 -0.2319 -0.0858  0.1714
 1775DOPC   D2B20827  15.366  15.532  13.752 -0.2330 -0.1148  0.0689
 1775DOPC   C3B20828  15.664  15.464  13.386 -0.1764 -0.1907 -0.0917
 1775DOPC   C4B20829  15.825  15.453  12.959 -0.2003 -0.0585  0.0393
 1776DOPS   CNO20830  14.134  13.279  14.588 -0.1724  0.2713  0.2826
 1776DOPS   PO420831  14.512  13.260  14.619 -0.0751  0.0057 -0.1418
 1776DOPS   GL120832  14.614  13.124  14.360 -0.1267 -0.1727  0.2690
 1776DOPS   GL220833  14.345  13.038  14.216 -0.1078  0.3018  0.1624
 1776DOPS   C1A20834  14.746  12.689  14.275  0.0305  0.0406 -0.0137
 1776DOPS   D2A20835  14.797  12.275  14.014  0.0702 -0.1385  0.0647
 1776DOPS   C3A20836  15.131  12.208  13.727  0.0992 -0.3067  0.5209
 1776DOPS   C4A20837  15.303  12.048  13.356 -0.1414  0.0166 -0.0030
 1776DOPS   C1B20838  14.481  13.150  13.765 -0.1575  0.0206  0.3620
 1776DOPS   D2B20839  14.450  13.342  13.349 -0.2467 -0.0076  0.0780
 1776DOPS   C3B20840  14.913  13.385  13.150 -0.2346  0.2780 -0.0189
 1776DOPS   C4B20841  15.233  13.320  12.894  0.1431 -0.0769 -0.2139
 1777DOPC   NC320842  22.178  23.343  16.079  0.0441 -0.0741  0.2772
 1777DOPC   PO420843  22.002  23.344  15.709  0.0781 -0.0001 -0.5088
 1777DOPC   GL120844  21.931  23.220  15.355 -0.1354  0.2447  0.0884
 1777DOPC   GL220845  21.711  23.166  15.311  0.0392  0.1054 -0.0188
 1777DOPC   C1A20846  22.107  23.409  14.967  0.0441 -0.0702 -0.2683
 1777DOPC   D2A20847  22.441  23.604  14.696  0.1806 -0.0557  0.0299
 1777DOPC   C3A20848  22.825  23.382  14.535  0.0588 -0.2629  0.0420
 1777DOPC   C4A20849  23.095  22.939  14.472  0.3041 -0.1176 -0.4287
 1777DOPC   C1B20850  21.522  23.488  15.038 -0.1517 -0.0144 -0.3916
 1777DOPC   D2B20851  21.657  23.657  14.622  0.1356  0.1817 -0.0449
 1777DOPC   C3B20852  22.057  23.567  14.384  0.2087  0.2618  0.1159
 1777DOPC   C4B20853  22.436  23.504  14.190 -0.0633 -0.2061 -0.1199
 1778POSM   NC320854  20.134  16.319  15.489 -0.1731  0.0128  0.3213
 1778POSM   PO420855  20.229  16.533  15.173  0.3159  0.3787  0.0222
 1778POSM   AM120856  20.285  16.340  14.945 -0.0000  0.0637 -0.0286
 1778POSM   AM220857  20.112  16.243  14.766 -0.1750 -0.0637 -0.0200
 1778POSM   T1A20858  20.441  15.906  14.770  0.3278 -0.1234  0.0008
 1778POSM   C2A20859  20.786  15.623  14.718  0.3709 -0.5579  0.0602
 1778POSM   C3A20860  20.912  15.353  14.390 -0.1623  0.1479  0.3159
 1778POSM   C1B20861  20.260  16.351  14.483  0.1750  0.0388  0.0353
 1778POSM   D2B20862  20.379  16.451  14.127  0.0862 -0.0431 -0.0838
 1778POSM   C3B20863  20.134  16.813  13.931 -0.0274  0.0879 -0.1348
 1778POSM   C4B20864  19.778  16.867  13.562  0.0242  0.0074  0.2182
 1779DOPC   NC320865  18.016  13.092  15.264  0.0923 -0.2796 -0.1808
 1779DOPC   PO420866  17.785  12.951  14.936  0.3406  0.2254  0.5727
 1779DOPC   GL120867  17.783  12.817  14.636 -0.3187  0.0966 -0.1437
 1779DOPC   GL220868  17.732  13.039  14.439 -0.0768 -0.2838 -0.2206
 1779DOPC   C1A20869  17.666  12.463  14.363 -0.0076 -0.2244  0.0655
 1779DOPC   D2A20870  17.439  12.192  14.044 -0.2240  0.1130  0.2302
 1779DOPC   C3A20871  17.514  12.281  13.619  0.1731 -0.0150  0.1009
 1779DOPC   C4A20872  17.544  12.103  13.226 -0.0244 -0.2206  0.3082
 1779DOPC   C1B20873  17.954  12.769  14.059  0.3528  0.0468  0.1237
 1779DOPC   D2B20874  18.329  12.625  13.893  0.0957  0.1516 -0.0681
 1779DOPC   C3B20875  18.505  12.175  13.828  0.2496 -0.2074  0.0609
 1779DOPC   C4B20876  18.794  11.868  13.518 -0.0705 -0.1480  0.2183
 1780DOPC   NC320877  21.556  12.218  15.723  0.0360 -0.0061  0.2235
 1780DOPC   PO420878  21.151  12.279  15.668 -0.2511 -0.2209 -0.2384
 1780DOPC   GL120879  21.203  12.129  15.352 -0.0682  0.1350 -0.1415
 1780DOPC   GL220880  20.981  11.866  15.334  0.1507 -0.0777  0.2470
 1780DOPC   C1A20881  21.075  12.152  14.917 -0.1087 -0.2297 -0.4513
 1780DOPC   D2A20882  20.939  12.140  14.456 -0.1950 -0.1732 -0.0434
 1780DOPC   C3A20883  20.899  12.064  14.003  0.2354 -0.2808  0.0923
 1780DOPC   C4A20884  20.663  12.038  13.587  0.1192  0.2267 -0.1040
 1780DOPC   C1B20885  20.648  11.825  14.999 -0.1496  0.1812  0.0573
 1780DOPC   D2B20886  20.582  11.803  14.528  0.0630  0.1720  0.0197
 1780DOPC   C3B20887  20.137  11.672  14.312  0.4208 -0.0951 -0.0942
 1780DOPC   C4B20888  19.984  11.504  13.874  0.1607  0.0159  0.1141
 1781DOPE   NH320889  17.700  11.612  15.423  0.2948  0.0741  0.0964
 1781DOPE   PO420890  17.511  11.346  15.487  0.1869 -0.1777  0.2783
 1781DOPE   GL120891  17.435  11.261  15.121 -0.2146  0.1700  0.2609
 1781DOPE   GL220892  17.561  11.477  14.970 -0.1312  0.0536 -0.1877
 1781DOPE   C1A20893  17.478  10.924  14.805 -0.2386 -0.1802  0.0854
 1781DOPE   D2A20894  17.590  10.575  14.527  0.2962 -0.0085  0.2869
 1781DOPE   C3A20895  17.649  10.479  14.061 -0.2669 -0.2974 -0.3433
 1781DOPE   C4A20896  17.883  10.584  13.662  0.0560  0.1908  0.4635
 1781DOPE   C1B20897  17.990  11.260  15.046  0.0832  0.2714 -0.1967
 1781DOPE   D2B20898  18.316  10.930  14.872  0.1115  0.0547  0.0579
 1781DOPE   C3B20899  18.669  10.933  14.552  0.0794  0.5162 -0.0448
 1781DOPE   C4B20900  18.764  10.642  14.191  0.3452  0.0383 -0.1159
 1782POSM   NC320901  21.912  13.407  15.101 -0.0362  0.1450 -0.1439
 1782POSM   PO420902  22.273  13.300  15.256 -0.3230  0.3559 -0.0611
 1782POSM   AM120903  22.301  13.302  14.907  0.5565  0.1428 -0.0726
 1782POSM   AM220904  22.220  13.454  14.664 -0.0110  0.1347 -0.0362
 1782POSM   T1A20905  22.324  12.979  14.548  0.3260  0.0963  0.1587
 1782POSM   C2A20906  22.175  12.971  14.078  0.0834 -0.0152  0.1403
 1782POSM   C3A20907  21.938  12.905  13.657 -0.1422 -0.0129  0.2048
 1782POSM   C1B20908  22.079  13.391  14.363 -0.2000  0.4212 -0.1328
 1782POSM   D2B20909  21.902  13.415  13.948  0.3854 -0.0163  0.0135
 1782POSM   C3B20910  21.572  13.282  13.577 -0.2792 -0.1622 -0.0042
 1782POSM   C4B20911  21.192  13.062  13.355 -0.1183  0.0555 -0.1598
 1783POSM   NC320912  13.161  18.555  15.705  0.1180 -0.0098  0.0839
 1783POSM   PO420913  13.343  18.893  15.538  0.1426 -0.0374 -0.1773
 1783POSM   AM120914  13.363  19.006  15.235  0.2324  0.1961  0.3840
 1783POSM   AM220915  13.479  19.226  15.108 -0.7017 -0.2178 -0.4101
 1783POSM   T1A20916  13.382  18.839  14.713  0.4547  0.0807 -0.0367
 1783POSM   C2A20917  13.308  18.972  14.272  0.0368 -0.0091  0.3275
 1783POSM   C3A20918  13.352  18.998  13.833  0.0078  0.0455 -0.0156
 1783POSM   C1B20919  13.594  19.246  14.829 -0.1936  0.0490  0.1909
 1783POSM   D2B20920  13.862  19.052  14.426  0.2167 -0.1002 -0.3600
 1783POSM   C3B20921  13.836  19.280  14.013  0.0954 -0.1858 -0.0922
 1783POSM   C4B20922  14.074  19.499  13.743  0.0124  0.1326 -0.2186
 1784DOPE   NH320923  12.856  13.160  15.211  0.0643 -0.3327  0.2096
 1784DOPE   PO420924  12.879  13.163  14.908 -0.0058 -0.1263  0.0132
 1784DOPE   GL120925  12.836  13.146  14.554 -0.0004  0.0358  0.1604
 1784DOPE   GL220926  13.059  13.323  14.457 -0.1701  0.1753 -0.1420
 1784DOPE   C1A20927  12.615  13.401  14.250  0.2847  0.0004 -0.0232
 1784DOPE   D2A20928  12.687  13.629  13.799 -0.1801  0.0077 -0.0162
 1784DOPE   C3A20929  12.272  13.727  13.637  0.3294 -0.2906  0.4314
 1784DOPE   C4A20930  11.880  13.772  13.826  0.3744 -0.3332  0.1686
 1784DOPE   C1B20931  13.132  13.444  14.011  0.0362 -0.1174  0.0204
 1784DOPE   D2B20932  13.309  13.256  13.618 -0.2262 -0.2446 -0.0138
 1784DOPE   C3B20933  12.962  13.156  13.312  0.0275 -0.0062 -0.0515
 1784DOPE   C4B20934  12.725  12.947  12.922 -0.3132 -0.4465 -0.1033
 1785POSM   NC320935  12.277  13.711  15.137 -0.0522 -0.1862 -0.1910
 1785POSM   PO420936  12.399  13.357  15.237 -0.2447  0.1405 -0.2523
 1785POSM   AM120937  12.420  13.242  14.957  0.2363 -0.0120 -0.1922
 1785POSM   AM220938  12.494  13.428  14.728 -0.1310  0.0204  0.4145
 1785POSM   T1A20939  12.289  13.046  14.479 -0.0607  0.0743  0.0996
 1785POSM   C2A20940  12.287  12.836  14.052  0.2411  0.2158 -0.0899
 1785POSM   C3A20941  12.100  12.666  13.701  0.1781  0.1636  0.1747
 1785POSM   C1B20942  12.418  13.735  14.571  0.0443  0.2299 -0.1145
 1785POSM   D2B20943  12.672  14.165  14.469  0.1106 -0.0513  0.1437
 1785POSM   C3B20944  12.553  14.406  14.147 -0.5171  0.2286 -0.0549
 1785POSM   C4B20945  12.437  14.778  13.864  0.3181 -0.0445  0.3416
 1786DOPE   NH320946  15.665  22.032  15.219 -0.0901 -0.0193  0.0794
 1786DOPE   PO420947  15.812  22.331  15.117  0.0224  0.1691  0.1414
 1786DOPE   GL120948  15.668  22.319  14.787 -0.0620 -0.0976  0.1030
 1786DOPE   GL220949  15.429  22.170  14.752  0.1618  0.0546  0.1510
 1786DOPE   C1A20950  15.808  22.154  14.399  0.0576 -0.0351 -0.1631
 1786DOPE   D2A20951  16.131  22.251  14.014 -0.0746  0.0747 -0.1908
 1786DOPE   C3A20952  15.920  22.398  13.636  0.1119 -0.0105  0.1806
 1786DOPE   C4A20953  15.622  22.407  13.295  0.0806 -0.1853 -0.0658
 1786DOPE   C1B20954  15.400  22.549  14.508  0.1335  0.1381  0.1642
 1786DOPE   D2B20955  15.493  22.993  14.383 -0.0613 -0.2057  0.1231
 1786DOPE   C3B20956  15.492  23.043  13.909  0.2784 -0.2253 -0.3132
 1786DOPE   C4B20957  15.767  22.935  13.504  0.2087  0.1765  0.1704
 1787POSM   NC320958  12.113  16.511  15.448  0.0530 -0.3621  0.0012
 1787POSM   PO420959  12.060  16.870  15.596  0.2900  0.1093  0.4693
 1787POSM   AM120960  11.858  16.958  15.308  0.0328  0.3035  0.0046
 1787POSM   AM220961  11.599  16.874  15.199 -0.5348  0.2283 -0.3981
 1787POSM   T1A20962  11.854  17.329  14.957 -0.3262  0.3311 -0.2570
 1787POSM   C2A20963  11.713  17.379  14.511 -0.0490  0.1185 -0.2104
 1787POSM   C3A20964  11.599  17.387  14.126 -0.0960  0.2912 -0.0096
 1787POSM   C1B20965  11.674  16.854  14.857  0.1045 -0.0938  0.0967
 1787POSM   D2B20966  12.002  16.935  14.550  0.1262  0.1920  0.0155
 1787POSM   C3B20967  12.000  17.099  14.116 -0.1872  0.0859  0.0975
 1787POSM   C4B20968  12.160  17.107  13.655  0.2355  0.1871 -0.1115
 1788DOPS   CNO20969  22.269  13.849  14.955  0.5043  0.0229 -0.1897
 1788DOPS   PO420970  22.578  13.690  15.041  0.0171 -0.5405 -0.0541
 1788DOPS   GL120971  23.009  13.693  14.829 -0.3852 -0.3900 -0.0139
 1788DOPS   GL220972  23.257  13.559  14.811 -0.3824  0.1413 -0.3219
 1788DOPS   C1A20973  23.202  13.729  14.352  0.4095 -0.0144  0.0133
 1788DOPS   D2A20974  23.544  13.591  14.040  0.3192 -0.0155  0.2221
 1788DOPS   C3A20975  23.858  13.779  13.677 -0.1681  0.0146  0.0813
 1788DOPS   C4A20976  24.077  14.176  13.519  0.0851  0.1455  0.2068
 1788DOPS   C1B20977  23.553  13.305  14.542 -0.0841  0.1163  0.5306
 1788DOPS   D2B20978  23.947  13.404  14.282 -0.0164 -0.0004 -0.3007
 1788DOPS   C3B20979  24.194  13.360  13.866  0.2118  0.1002 -0.1869
 1788DOPS   C4B20980  24.438  13.183  13.562  0.0536 -0.2629 -0.2315
 1789DOPC   NC320981  17.409  21.995  15.606 -0.0936 -0.0453  0.2563
 1789DOPC   PO420982  17.062  21.862  15.531 -0.1404 -0.1094 -0.2737
 1789DOPC   GL120983  17.064  21.818  15.082 -0.0885  0.0869  0.0373
 1789DOPC   GL220984  17.180  22.113  14.968 -0.0645 -0.0827  0.0128
 1789DOPC   C1A20985  17.083  21.566  14.709 -0.0165 -0.0191 -0.0335
 1789DOPC   D2A20986  17.138  21.248  14.443  0.1795  0.0741  0.0930
 1789DOPC   C3A20987  17.136  21.414  14.006  0.0231 -0.1934  0.1203
 1789DOPC   C4A20988  17.311  21.646  13.604 -0.4627 -0.3982  0.1101
 1789DOPC   C1B20989  17.111  22.036  14.510 -0.1148 -0.0135  0.0073
 1789DOPC   D2B20990  17.305  21.863  14.082 -0.1204  0.3904  0.2322
 1789DOPC   C3B20991  16.905  21.874  13.749  0.0585 -0.3046  0.1514
 1789DOPC   C4B20992  16.444  21.847  13.900 -0.2401 -0.1969 -0.2977
 1790DOPS   CNO20993  12.744  22.668  16.156 -0.1029  0.0267 -0.2210
 1790DOPS   PO420994  12.693  22.453  15.873 -0.2644 -0.0842 -0.1121
 1790DOPS   GL120995  12.406  22.262  15.502 -0.5707  0.1873 -0.3368
 1790DOPS   GL220996  12.356  22.541  15.430 -0.1364  0.1015  0.1707
 1790DOPS   C1A20997  11.981  22.201  15.277 -0.0553  0.1380 -0.0846
 1790DOPS   D2A20998  12.094  22.158  14.862  0.1821  0.0761  0.0506
 1790DOPS   C3A20999  12.053  22.538  14.556 -0.0255 -0.0711  0.4565
 1790DOPS   C4A21000  12.086  22.872  14.175 -0.0924  0.3149 -0.3529
 1790DOPS   C1B21001  12.028  22.640  15.062  0.1733 -0.1427  0.0986
 1790DOPS   D2B21002  11.814  23.009  14.912 -0.6225 -0.1997  0.1967
 1790DOPS   C3B21003  11.715  23.039  14.462  0.3530  0.5113  0.0387
 1790DOPS   C4B21004  11.565  22.609  14.379 -0.2816 -0.1018 -0.0636
 1791DOPE   NH321005  20.606  20.262  14.412 -0.0540 -0.0900 -0.2927
 1791DOPE   PO421006  20.637  20.577  14.534  0.1180 -0.2195 -0.2360
 1791DOPE   GL121007  20.982  20.518  14.265  0.0050 -0.1917  0.2143
 1791DOPE   GL221008  20.775  20.512  14.014 -0.2019  0.2869 -0.1256
 1791DOPE   C1A21009  21.389  20.723  14.181  0.0239 -0.2181  0.2387
 1791DOPE   D2A21010  21.677  20.984  13.937 -0.0203 -0.3272 -0.0580
 1791DOPE   C3A21011  21.628  20.854  13.533 -0.1199 -0.1810  0.1855
 1791DOPE   C4A21012  21.649  20.683  13.078  0.1105  0.0566  0.0524
 1791DOPE   C1B21013  20.721  20.565  13.540  0.0209 -0.0139  0.1613
 1791DOPE   D2B21014  20.434  20.486  13.187 -0.3036 -0.2262  0.1898
 1791DOPE   C3B21015  20.462  20.664  12.792 -0.3635  0.0474  0.0091
 1791DOPE   C4B21016  20.551  20.795  12.311  0.0725  0.1086 -0.1605
 1792DOPC   NC321017  13.720  17.800  15.514  0.1293 -0.0688 -0.4212
 1792DOPC   PO421018  13.542  18.163  15.606  0.1601  0.1414  0.0892
 1792DOPC   GL121019  13.313  18.366  15.340 -0.1029  0.2732  0.0219
 1792DOPC   GL221020  13.398  18.519  15.096 -0.0230  0.0815  0.2035
 1792DOPC   C1A21021  12.992  18.217  14.965  0.1395 -0.2830  0.0214
 1792DOPC   D2A21022  13.029  18.101  14.494  0.1325 -0.2844  0.2724
 1792DOPC   C3A21023  13.344  18.048  14.133 -0.1129  0.3525  0.0704
 1792DOPC   C4A21024  13.344  17.971  13.673  0.0277 -0.0148  0.3492
 1792DOPC   C1B21025  13.459  18.267  14.691 -0.0851 -0.3386  0.0604
 1792DOPC   D2B21026  13.435  17.821  14.559  0.0970  0.0427  0.1546
 1792DOPC   C3B21027  13.645  17.478  14.745 -0.2156 -0.2166 -0.2017
 1792DOPC   C4B21028  13.990  17.163  14.606  0.0853  0.2047  0.2483
 1793DOPS   CNO21029  11.894  15.203  15.740  0.4174 -0.0649 -0.3908
 1793DOPS   PO421030  12.188  15.238  15.515  0.0833 -0.0462 -0.0005
 1793DOPS   GL121031  12.012  15.054  15.117 -0.0494 -0.1749 -0.0299
 1793DOPS   GL221032  11.770  14.976  15.292 -0.0102  0.0145  0.0638
 1793DOPS   C1A21033  12.287  14.992  14.736  0.1965  0.3979  0.1198
 1793DOPS   D2A21034  12.275  14.900  14.313 -0.2777  0.2295  0.0033
 1793DOPS   C3A21035  11.832  14.786  14.154 -0.3345  0.0674 -0.0471
 1793DOPS   C4A21036  11.430  14.577  14.031  0.0786 -0.5784  0.3399
 1793DOPS   C1B21037  11.605  14.542  15.204  0.1635 -0.2523 -0.0969
 1793DOPS   D2B21038  11.364  14.138  15.159  0.2278  0.3773  0.1746
 1793DOPS   C3B21039  11.151  14.205  14.761 -0.1061  0.1831  0.0908
 1793DOPS   C4B21040  11.061  14.373  14.304 -0.0404 -0.2603 -0.1871
 1794DOPC   NC321041  15.758  13.676  14.704  0.2227 -0.1123  0.0694
 1794DOPC   PO421042  15.719  14.048  14.733 -0.2376  0.2131 -0.0295
 1794DOPC   GL121043  15.496  14.136  14.368  0.0637  0.1927 -0.0844
 1794DOPC   GL221044  15.350  14.371  14.269 -0.1133  0.3332 -0.1305
 1794DOPC   C1A21045  15.280  13.890  14.103  0.0365 -0.2228  0.0878
 1794DOPC   D2A21046  14.869  13.654  13.992 -0.0366 -0.0836  0.1060
 1794DOPC   C3A21047  14.931  13.709  13.528  0.1010 -0.1887 -0.0433
 1794DOPC   C4A21048  14.852  13.861  13.043 -0.0903  0.1930  0.2463
 1794DOPC   C1B21049  15.321  14.379  13.809 -0.0975 -0.1193  0.0455
 1794DOPC   D2B21050  15.481  14.538  13.410 -0.2799 -0.1881 -0.0337
 1794DOPC   C3B21051  15.613  14.225  13.109  0.0214  0.1221  0.0236
 1794DOPC   C4B21052  15.381  13.838  13.023 -0.0610  0.1140 -0.0143
 1795DOPE   NH321053  21.970  20.624  15.211  0.0307  0.0707  0.2078
 1795DOPE   PO421054  22.078  20.330  15.154 -0.1401 -0.2999 -0.2812
 1795DOPE   GL121055  22.285  20.501  14.817  0.1850 -0.1554 -0.2703
 1795DOPE   GL221056  22.038  20.605  14.716  0.0002 -0.3392  0.2606
 1795DOPE   C1A21057  22.217  20.314  14.348  0.0370  0.1336 -0.3376
 1795DOPE   D2A21058  22.040  20.028  14.060 -0.2224  0.3381  0.0424
 1795DOPE   C3A21059  21.893  20.185  13.644  0.3358 -0.0990  0.0759
 1795DOPE   C4A21060  21.614  20.211  13.244  0.0448  0.0677  0.2357
 1795DOPE   C1B21061  21.862  20.724  14.299  0.0752  0.1696  0.3687
 1795DOPE   D2B21062  22.033  20.593  13.902  0.2207  0.1571 -0.0561
 1795DOPE   C3B21063  22.089  20.626  13.476 -0.0113  0.0942 -0.1276
 1795DOPE   C4B21064  22.429  20.563  13.151 -0.1358  0.0927 -0.1952
 1796POSM   NC321065  18.964  20.373  15.393 -0.1621 -0.0469  0.1205
 1796POSM   PO421066  19.107  20.616  15.124 -0.3613 -0.0948  0.0019
 1796POSM   AM121067  18.898  20.657  14.870 -0.1452  0.1303 -0.0677
 1796POSM   AM221068  18.687  20.829  14.793  0.0194 -0.2491  0.0872
 1796POSM   T1A21069  18.546  20.426  14.591 -0.2959 -0.0636  0.0318
 1796POSM   C2A21070  18.583  20.080  14.224  0.0458  0.0936  0.0317
 1796POSM   C3A21071  18.522  20.192  13.786  0.1367  0.1605 -0.3375
 1796POSM   C1B21072  18.446  20.967  14.614  0.2431 -0.2503 -0.3759
 1796POSM   D2B21073  18.441  21.236  14.232 -0.1053  0.3182 -0.0551
 1796POSM   C3B21074  18.785  21.535  14.195 -0.0513 -0.0082  0.4301
 1796POSM   C4B21075  18.847  21.958  14.123 -0.3255 -0.0703  0.4555
 1797DOPE   NH321076  16.634  21.546  15.713 -0.1267  0.1434  0.0210
 1797DOPE   PO421077  16.526  21.796  15.536  0.1936 -0.1761 -0.2895
 1797DOPE   GL121078  16.683  21.745  15.233 -0.1951  0.3287  0.4091
 1797DOPE   GL221079  16.756  21.479  15.081 -0.0360 -0.1566  0.0172
 1797DOPE   C1A21080  16.677  21.879  14.762 -0.2492 -0.0136  0.0882
 1797DOPE   D2A21081  16.787  21.767  14.279 -0.3298 -0.1496  0.0643
 1797DOPE   C3A21082  16.578  21.416  14.142 -0.1665 -0.0284  0.3051
 1797DOPE   C4A21083  16.724  20.986  14.282  0.5113  0.0667 -0.5117
 1797DOPE   C1B21084  16.575  21.370  14.669  0.2682  0.0613 -0.1188
 1797DOPE   D2B21085  16.227  21.151  14.365  0.0487  0.2443  0.1149
 1797DOPE   C3B21086  16.379  21.058  13.907  0.0408 -0.1232  0.2155
 1797DOPE   C4B21087  16.292  21.028  13.424 -0.0551 -0.1871 -0.0340
 1798POSM   NC321088  19.268  20.928  14.692  0.0130  0.4188  0.0889
 1798POSM   PO421089  19.642  20.823  14.831 -0.1675  0.2861 -0.0272
 1798POSM   AM121090  19.634  20.691  14.506 -0.2755  0.0262  0.1705
 1798POSM   AM221091  19.762  20.665  14.245 -0.1082 -0.0877 -0.0563
 1798POSM   T1A21092  19.317  20.787  14.109 -0.2379  0.2410  0.0451
 1798POSM   C2A21093  19.361  20.985  13.696  0.1461 -0.1622  0.0693
 1798POSM   C3A21094  19.049  21.021  13.401  0.4901  0.0133  0.0712
 1798POSM   C1B21095  19.853  20.545  13.967 -0.0079 -0.1213  0.0588
 1798POSM   D2B21096  20.056  20.495  13.519 -0.2079  0.1057  0.0897
 1798POSM   C3B21097  19.924  20.216  13.150 -0.3511 -0.2346  0.1973
 1798POSM   C4B21098  19.737  19.999  12.768  0.3803 -0.1063  0.2685
 1799DOPC   NC321099  19.770  16.453  15.056  0.0884 -0.1327  0.0282
 1799DOPC   PO421100  19.754  16.081  15.247 -0.1512 -0.1499  0.0912
 1799DOPC   GL121101  19.556  16.093  14.852 -0.0285  0.1247 -0.3289
 1799DOPC   GL221102  19.370  15.988  14.858  0.0800  0.0565 -0.3359
 1799DOPC   C1A21103  19.692  16.263  14.429 -0.0269 -0.2971  0.2989
 1799DOPC   D2A21104  19.734  16.520  13.949  0.1683  0.0828 -0.2862
 1799DOPC   C3A21105  20.011  16.421  13.607  0.0866 -0.0324  0.2511
 1799DOPC   C4A21106  20.393  16.517  13.461  0.1863 -0.2405  0.3376
 1799DOPC   C1B21107  19.477  15.802  14.514  0.0609 -0.2814  0.0579
 1799DOPC   D2B21108  19.574  15.811  14.087  0.0203  0.1069 -0.0611
 1799DOPC   C3B21109  19.437  16.158  13.850  0.3396 -0.0659  0.0758
 1799DOPC   C4B21110  19.509  16.441  13.538 -0.1399 -0.0986  0.0271
 1800DOPE   NH321111  19.237  21.773  15.601  0.2771 -0.4836  0.1416
 1800DOPE   PO421112  19.251  22.006  15.340 -0.6036 -0.1671 -0.4090
 1800DOPE   GL121113  18.905  21.939  15.021  0.1154  0.0631  0.1164
 1800DOPE   GL221114  19.074  21.848  14.768  0.0298  0.1022  0.0120
 1800DOPE   C1A21115  18.554  22.198  14.853 -0.1101  0.1734  0.1885
 1800DOPE   D2A21116  18.408  22.473  14.490  0.0745  0.3353  0.2741
 1800DOPE   C3A21117  18.684  22.493  14.131  0.2915 -0.0219  0.1450
 1800DOPE   C4A21118  19.121  22.482  13.864 -0.0756 -0.2335  0.0014
 1800DOPE   C1B21119  18.966  22.225  14.518  0.1980  0.1251  0.3020
 1800DOPE   D2B21120  19.201  22.612  14.493 -0.2188 -0.3290 -0.0747
 1800DOPE   C3B21121  19.119  22.924  14.219  0.1890  0.2980  0.4955
 1800DOPE   C4B21122  19.148  23.338  14.011  0.0272 -0.0453 -0.2118
 1801POSM   NC321123  18.435  12.358  15.323 -0.0398  0.1692 -0.1301
 1801POSM   PO421124  18.613  12.029  15.453  0.1646 -0.1223  0.0602
 1801POSM   AM121125  18.639  11.937  15.136  0.1497  0.0251 -0.1966
 1801POSM   AM221126  18.836  11.983  14.935 -0.1859  0.1173 -0.2941
 1801POSM   T1A21127  18.540  11.520  14.821  0.3398  0.4039  0.2765
 1801POSM   C2A21128  18.742  11.371  14.456 -0.1678 -0.3236  0.1716
 1801POSM   C3A21129  18.982  11.214  14.104 -0.1716  0.3254  0.1585
 1801POSM   C1B21130  18.711  11.997  14.588  0.1270 -0.0209 -0.3050
 1801POSM   D2B21131  18.797  11.905  14.087 -0.4702  0.0070 -0.0257
 1801POSM   C3B21132  19.108  11.619  13.835  0.0786  0.0392  0.1723
 1801POSM   C4B21133  19.495  11.600  13.654  0.1196 -0.1465 -0.1122
 1802DOPE   NH321134  21.594  21.522  15.415  0.2948  0.2218 -0.1716
 1802DOPE   PO421135  21.465  21.786  15.243 -0.0851 -0.0197  0.2046
 1802DOPE   GL121136  21.412  21.840  14.835  0.1821 -0.2310  0.0741
 1802DOPE   GL221137  21.707  21.926  14.798  0.2801  0.0947 -0.0748
 1802DOPE   C1A21138  21.145  21.772  14.487 -0.2732 -0.2078 -0.2125
 1802DOPE   D2A21139  20.929  21.790  14.094 -0.2404  0.0120 -0.1140
 1802DOPE   C3A21140  20.952  22.220  13.897 -0.0993  0.0403  0.2243
 1802DOPE   C4A21141  20.918  22.527  13.564  0.1041 -0.1423  0.1664
 1802DOPE   C1B21142  21.570  21.994  14.350  0.0800 -0.0222 -0.1266
 1802DOPE   D2B21143  21.413  21.669  14.032  0.1799 -0.2905  0.1409
 1802DOPE   C3B21144  21.306  21.864  13.679 -0.1669  0.0818  0.2109
 1802DOPE   C4B21145  21.597  21.826  13.295 -0.1551 -0.1436 -0.1283
 1803DOPE   NH321146  12.622  15.069  15.715 -0.2924  0.1106 -0.1631
 1803DOPE   PO421147  12.663  15.372  15.608 -0.1071  0.0087 -0.0959
 1803DOPE   GL121148  12.518  15.566  15.300 -0.4626 -0.1313 -0.1287
 1803DOPE   GL221149  12.817  15.580  15.115  0.4768 -0.0365  0.0177
 1803DOPE   C1A21150  12.452  15.837  14.895  0.1711  0.0713 -0.1943
 1803DOPE   D2A21151  12.268  15.964  14.505  0.2481  0.2964 -0.3283
 1803DOPE   C3A21152  12.119  15.770  14.152  0.0797  0.3686  0.0587
 1803DOPE   C4A21153  12.145  15.853  13.751  0.0028 -0.0083 -0.1421
 1803DOPE   C1B21154  12.907  15.633  14.660 -0.1007 -0.2832 -0.0347
 1803DOPE   D2B21155  13.082  15.488  14.266 -0.1488  0.1918  0.0190
 1803DOPE   C3B21156  13.079  15.764  13.923  0.0201 -0.2385  0.0379
 1803DOPE   C4B21157  12.996  15.929  13.552  0.0775 -0.3078  0.0149
 1804DOPE   NH321158  20.397  18.786  14.911  0.0921 -0.0637 -0.0383
 1804DOPE   PO421159  20.306  19.000  14.729 -0.1194 -0.2644  0.2841
 1804DOPE   GL121160  20.196  18.695  14.450  0.3444 -0.0361  0.4952
 1804DOPE   GL221161  20.095  18.496  14.629 -0.1307 -0.2120  0.5112
 1804DOPE   C1A21162  19.997  18.723  14.074 -0.0522  0.0465  0.0839
 1804DOPE   D2A21163  19.902  18.483  13.672  0.2438 -0.1908 -0.2837
 1804DOPE   C3A21164  19.909  18.521  13.218  0.2192 -0.1091  0.3641
 1804DOPE   C4A21165  19.948  18.999  13.013  0.3468  0.0804 -0.1843
 1804DOPE   C1B21166  20.146  18.241  14.199 -0.1680  0.0644 -0.1984
 1804DOPE   D2B21167  20.243  18.119  13.729  0.3947 -0.2732  0.3880
 1804DOPE   C3B21168  20.083  18.082  13.258  0.1187 -0.1754 -0.0008
 1804DOPE   C4B21169  19.741  18.116  12.940 -0.1354 -0.0276 -0.2893
 1805DOPE   NH321170  13.372  12.625  15.122  0.1188 -0.1031  0.0552
 1805DOPE   PO421171  13.053  12.720  15.202 -0.2197  0.0559 -0.4755
 1805DOPE   GL121172  12.920  12.723  14.838  0.0225  0.0023  0.2877
 1805DOPE   GL221173  12.608  12.801  14.784  0.0907 -0.2205  0.0433
 1805DOPE   C1A21174  12.769  12.364  14.552  0.2922  0.0761  0.4333
 1805DOPE   D2A21175  12.859  11.852  14.572 -0.0758  0.0825  0.1853
 1805DOPE   C3A21176  12.622  11.541  14.487 -0.1298 -0.2298  0.0488
 1805DOPE   C4A21177  12.168  11.453  14.501  0.1152  0.1520 -0.0147
 1805DOPE   C1B21178  12.700  12.794  14.298 -0.1553  0.0053 -0.1670
 1805DOPE   D2B21179  12.694  12.537  13.896  0.1682  0.0941  0.2892
 1805DOPE   C3B21180  13.098  12.367  13.712 -0.0126  0.1547  0.0571
 1805DOPE   C4B21181  13.362  11.932  13.707 -0.1796  0.1470 -0.1120
 1806POSM   NC321182  20.804  14.212  15.790  0.3395 -0.0309  0.1790
 1806POSM   PO421183  20.856  14.309  15.377 -0.1771 -0.1883 -0.1890
 1806POSM   AM121184  21.047  14.248  15.102  0.2703 -0.1442 -0.0943
 1806POSM   AM221185  21.063  14.008  14.946  0.0578  0.0280  0.2028
 1806POSM   T1A21186  21.222  14.528  14.744 -0.2365 -0.0388  0.0333
 1806POSM   C2A21187  21.431  14.647  14.341 -0.1005  0.2888  0.3485
 1806POSM   C3A21188  21.449  14.677  13.883 -0.1924 -0.0430  0.4242
 1806POSM   C1B21189  20.959  14.077  14.600  0.2264 -0.1516  0.1072
 1806POSM   D2B21190  21.114  14.167  14.193  0.2635 -0.0967 -0.0967
 1806POSM   C3B21191  21.339  13.849  14.001 -0.0448  0.2224 -0.0186
 1806POSM   C4B21192  21.188  13.444  13.877  0.1260 -0.1237 -0.1780
 1807DOPE   NH321193  20.489  20.301  14.892  0.1515  0.0723  0.3139
 1807DOPE   PO421194  20.702  20.048  14.904  0.0148  0.0491  0.3809
 1807DOPE   GL121195  20.910  19.975  14.598 -0.0418  0.1606  0.0251
 1807DOPE   GL221196  21.104  20.241  14.557 -0.0684  0.2961  0.0654
 1807DOPE   C1A21197  20.734  19.622  14.334 -0.1346  0.1302  0.1884
 1807DOPE   D2A21198  20.663  19.345  13.950  0.0591 -0.3977  0.0925
 1807DOPE   C3A21199  20.184  19.219  13.965 -0.1568  0.2474  0.1125
 1807DOPE   C4A21200  19.805  19.056  13.758 -0.0669 -0.0394  0.0682
 1807DOPE   C1B21201  21.144  20.099  14.135  0.3092 -0.0744 -0.1862
 1807DOPE   D2B21202  21.034  20.202  13.652 -0.1182 -0.4259 -0.1861
 1807DOPE   C3B21203  20.996  20.051  13.261 -0.1559  0.0186 -0.0677
 1807DOPE   C4B21204  20.870  20.018  12.788  0.1206  0.2354  0.2718
 1808DOPE   NH321205  20.661  22.220  15.325 -0.2214 -0.0718 -0.1984
 1808DOPE   PO421206  20.858  22.457  15.307  0.1541 -0.1578 -0.0080
 1808DOPE   GL121207  20.823  22.732  15.155 -0.2053 -0.1918 -0.3817
 1808DOPE   GL221208  21.042  22.983  15.148 -0.2272  0.2001  0.1509
 1808DOPE   C1A21209  20.554  22.990  14.825 -0.0306 -0.3068 -0.0373
 1808DOPE   D2A21210  20.397  23.043  14.360 -0.3129  0.1581  0.1459
 1808DOPE   C3A21211  20.829  22.994  14.113 -0.1028  0.3070  0.3874
 1808DOPE   C4A21212  21.169  22.715  13.921 -0.4609 -0.1226 -0.1592
 1808DOPE   C1B21213  21.390  23.004  14.911  0.1787 -0.1005  0.1944
 1808DOPE   D2B21214  21.770  23.155  14.636 -0.1633  0.1060  0.2489
 1808DOPE   C3B21215  21.878  22.841  14.315  0.0828 -0.0353 -0.1291
 1808DOPE   C4B21216  22.162  22.650  13.947 -0.2532 -0.0418  0.1636
 1809POSM   NC321217  19.794  15.107  15.154 -0.2967  0.1422  0.1498
 1809POSM   PO421218  20.145  15.253  15.127  0.0693 -0.2298 -0.1349
 1809POSM   AM121219  20.134  15.484  14.878  0.0794 -0.0034 -0.0902
 1809POSM   AM221220  19.988  15.702  14.718 -0.1386 -0.0242  0.0433
 1809POSM   T1A21221  20.375  15.503  14.448  0.2266  0.0061 -0.0210
 1809POSM   C2A21222  20.581  15.533  14.017  0.0736 -0.0426 -0.3472
 1809POSM   C3A21223  20.581  15.441  13.570 -0.2050  0.0315  0.1759
 1809POSM   C1B21224  19.983  15.864  14.425  0.2349 -0.1232  0.0440
 1809POSM   D2B21225  20.001  16.103  14.077  0.1872  0.1250  0.0392
 1809POSM   C3B21226  19.828  15.967  13.640  0.0802 -0.0179  0.0984
 1809POSM   C4B21227  19.800  16.033  13.202  0.3004 -0.2052 -0.0988
 1810DOPC   NC321228  14.885  20.193  15.493 -0.2406 -0.1470  0.0628
 1810DOPC   PO421229  14.664  20.047  15.240  0.1610 -0.1140  0.0432
 1810DOPC   GL121230  14.559  20.026  14.918 -0.1154  0.2319  0.0744
 1810DOPC   GL221231  14.444  20.320  14.814 -0.0975  0.0258  0.0744
 1810DOPC   C1A21232  14.258  19.722  14.781  0.3732  0.0246 -0.0221
 1810DOPC   D2A21233  14.052  19.505  14.403  0.0390  0.0312  0.1346
 1810DOPC   C3A21234  13.572  19.492  14.405 -0.2510 -0.0108  0.1550
 1810DOPC   C4A21235  13.268  19.835  14.491 -0.3574 -0.2199 -0.0214
 1810DOPC   C1B21236  14.241  20.112  14.448  0.1348 -0.0711 -0.0225
 1810DOPC   D2B21237  14.157  19.889  14.072 -0.0593  0.1802  0.1672
 1810DOPC   C3B21238  14.102  19.972  13.588  0.1194 -0.1489 -0.0261
 1810DOPC   C4B21239  14.064  20.292  13.257  0.1171 -0.0816 -0.1736
 1811DOPE   NH321240  13.283  13.479  14.881 -0.2171  0.0327 -0.1602
 1811DOPE   PO421241  13.401  13.754  14.902  0.3743 -0.0311  0.1956
 1811DOPE   GL121242  13.340  13.807  14.495 -0.0819  0.0386  0.1440
 1811DOPE   GL221243  13.275  14.096  14.540 -0.1769  0.0027 -0.0785
 1811DOPE   C1A21244  13.342  13.941  14.011 -0.1276  0.0339 -0.0333
 1811DOPE   D2A21245  13.560  13.945  13.586  0.0069 -0.1545 -0.3325
 1811DOPE   C3A21246  13.430  13.982  13.214  0.0237  0.4587 -0.0294
 1811DOPE   C4A21247  13.378  14.459  13.033 -0.0896  0.3442  0.3137
 1811DOPE   C1B21248  13.572  14.444  14.449  0.2134 -0.0443  0.1331
 1811DOPE   D2B21249  13.715  14.770  14.178 -0.2557  0.0455  0.0138
 1811DOPE   C3B21250  13.913  14.785  13.751 -0.0451  0.0620  0.1147
 1811DOPE   C4B21251  14.005  14.689  13.330 -0.0448  0.1831 -0.0942
 1812DOPC   NC321252  22.147  17.482  15.613 -0.1403 -0.0819  0.2711
 1812DOPC   PO421253  21.988  17.228  15.324 -0.1654 -0.0577 -0.0333
 1812DOPC   GL121254  22.179  17.266  14.917  0.1063 -0.2055 -0.3778
 1812DOPC   GL221255  22.454  17.251  14.886  0.0511  0.0820  0.3725
 1812DOPC   C1A21256  21.894  17.553  14.632  0.2111  0.3254  0.1519
 1812DOPC   D2A21257  21.907  17.520  14.189 -0.0399 -0.0180  0.1386
 1812DOPC   C3A21258  21.986  17.443  13.742 -0.1227 -0.1671  0.0860
 1812DOPC   C4A21259  22.005  17.306  13.324  0.2201 -0.0439 -0.0089
 1812DOPC   C1B21260  22.453  17.217  14.435 -0.0787  0.1683 -0.0642
 1812DOPC   D2B21261  22.239  17.096  14.004 -0.0147  0.2841  0.0123
 1812DOPC   C3B21262  22.258  16.708  13.792  0.0161 -0.2323 -0.3008
 1812DOPC   C4B21263  22.253  16.413  13.489  0.2457 -0.2877 -0.0046
 1813POSM   NC321264  13.749  12.774  14.363 -0.3079 -0.2711  0.1599
 1813POSM   PO421265  13.696  12.697  14.776  0.3001  0.0035  0.1888
 1813POSM   AM121266  13.498  12.453  14.624 -0.2065  0.0734 -0.0235
 1813POSM   AM221267  13.288  12.314  14.745 -0.1148 -0.0318 -0.0348
 1813POSM   T1A21268  13.225  12.146  14.284 -0.1370  0.0531 -0.2000
 1813POSM   C2A21269  12.769  12.042  14.063  0.1935 -0.0793 -0.0222
 1813POSM   C3A21270  12.643  12.040  13.624  0.1126 -0.1556  0.2801
 1813POSM   C1B21271  13.297  11.976  14.742  0.2340  0.0137 -0.2547
 1813POSM   D2B21272  13.128  11.557  14.907  0.2173 -0.1461  0.2090
 1813POSM   C3B21273  13.059  11.377  14.472 -0.1339  0.2910 -0.2742
 1813POSM   C4B21274  12.725  11.243  14.132 -0.3035  0.1054 -0.0891
 1814DOPE   NH321275  20.454  14.570  15.281  0.0466  0.1487 -0.2224
 1814DOPE   PO421276  20.231  14.785  15.244 -0.0291  0.2293 -0.0773
 1814DOPE   GL121277  20.337  14.858  14.829 -0.0291  0.2829  0.2068
 1814DOPE   GL221278  20.143  14.998  14.729  0.0260 -0.2316 -0.0505
 1814DOPE   C1A21279  20.230  14.533  14.523  0.0537 -0.3243  0.0836
 1814DOPE   D2A21280  19.875  14.306  14.352  0.0800  0.1878  0.0206
 1814DOPE   C3A21281  19.959  14.194  13.904 -0.0463  0.0588  0.2415
 1814DOPE   C4A21282  20.289  14.222  13.566 -0.0014  0.0697  0.1126
 1814DOPE   C1B21283  20.129  15.043  14.286 -0.3687  0.0220 -0.1049
 1814DOPE   D2B21284  20.214  15.118  13.829 -0.0086  0.1813 -0.3602
 1814DOPE   C3B21285  19.900  14.985  13.537  0.0058 -0.0457  0.2361
 1814DOPE   C4B21286  19.831  14.574  13.238  0.3273  0.1405 -0.1731
 1815DOPE   NH321287  22.534  15.678  15.249  0.2956  0.1953 -0.1962
 1815DOPE   PO421288  22.266  15.577  15.143  0.3154  0.3550  0.1498
 1815DOPE   GL121289  22.224  15.514  14.802  0.2661  0.0476  0.2188
 1815DOPE   GL221290  21.996  15.393  14.613 -0.1585 -0.0987 -0.2165
 1815DOPE   C1A21291  22.234  15.843  14.510  0.1979  0.1629  0.1944
 1815DOPE   D2A21292  22.478  15.958  14.125  0.2660 -0.1096  0.2180
 1815DOPE   C3A21293  22.289  15.806  13.676  0.2186 -0.0320 -0.1653
 1815DOPE   C4A21294  22.229  15.953  13.246 -0.1335  0.1538  0.0207
 1815DOPE   C1B21295  21.615  15.500  14.375 -0.2712 -0.1351 -0.0862
 1815DOPE   D2B21296  21.366  15.650  14.016 -0.0123 -0.0731 -0.0954
 1815DOPE   C3B21297  21.050  15.375  13.851 -0.2094 -0.0320  0.3922
 1815DOPE   C4B21298  21.113  14.983  13.639  0.2024  0.2675 -0.0753
 1816POSM   NC321299  14.803  12.921  14.694  0.0501 -0.1546 -0.1226
 1816POSM   PO421300  15.148  12.947  14.844  0.0937 -0.2135  0.2442
 1816POSM   AM121301  15.291  12.892  14.573 -0.3080 -0.2876  0.2021
 1816POSM   AM221302  15.479  12.699  14.499  0.1403  0.1033 -0.0251
 1816POSM   T1A21303  15.495  12.938  14.099  0.0920 -0.1788  0.0950
 1816POSM   C2A21304  15.469  13.185  13.694  0.0936  0.0532 -0.2343
 1816POSM   C3A21305  15.338  13.466  13.401  0.0562 -0.0194  0.0116
 1816POSM   C1B21306  15.624  12.497  14.203 -0.4225  0.1385 -0.3054
 1816POSM   D2B21307  15.621  12.148  13.865  0.0001  0.2418 -0.0200
 1816POSM   C3B21308  15.823  12.096  13.457 -0.3199 -0.2269 -0.0487
 1816POSM   C4B21309  15.882  12.074  12.989  0.0435 -0.2635 -0.1987
 1817DOPS   CNO21310  19.430  13.162  15.334 -0.1713  0.1620  0.0921
 1817DOPS   PO421311  19.126  12.993  15.315 -0.1270 -0.3231 -0.2378
 1817DOPS   GL121312  19.147  12.966  14.969 -0.3190 -0.0978  0.2576
 1817DOPS   GL221313  19.232  13.216  14.797  0.0483  0.1713  0.2120
 1817DOPS   C1A21314  19.440  12.858  14.633  0.1417 -0.2941  0.1116
 1817DOPS   D2A21315  19.460  12.941  14.191  0.0946  0.1584  0.1119
 1817DOPS   C3A21316  19.583  13.333  13.960 -0.1605 -0.0576 -0.1977
 1817DOPS   C4A21317  19.645  13.322  13.476 -0.3924 -0.0154 -0.0875
 1817DOPS   C1B21318  19.344  13.391  14.405  0.0028  0.0039 -0.3124
 1817DOPS   D2B21319  19.523  13.788  14.244  0.0919  0.1951  0.2490
 1817DOPS   C3B21320  19.525  14.009  13.795  0.1151  0.2338  0.2950
 1817DOPS   C4B21321  19.746  14.167  13.509  0.0053 -0.1702 -0.1124
 1818DOPC   NC321322  15.565  22.772  14.950 -0.1525  0.1059  0.2091
 1818DOPC   PO421323  15.341  22.475  15.141  0.1452 -0.1364  0.2759
 1818DOPC   GL121324  14.992  22.385  14.894  0.2550 -0.0401 -0.0942
 1818DOPC   GL221325  14.924  22.612  14.759  0.0319 -0.0899  0.5152
 1818DOPC   C1A21326  14.889  22.110  14.469 -0.2399  0.2452 -0.0433
 1818DOPC   D2A21327  15.138  22.080  14.117  0.0304 -0.0569  0.0683
 1818DOPC   C3A21328  15.057  22.138  13.667 -0.1683 -0.0387 -0.3174
 1818DOPC   C4A21329  14.773  21.891  13.395 -0.1388 -0.1476 -0.2290
 1818DOPC   C1B21330  14.699  22.626  14.428 -0.3589  0.1664 -0.0204
 1818DOPC   D2B21331  14.362  22.338  14.356 -0.1093  0.2409  0.0775
 1818DOPC   C3B21332  14.286  22.650  14.007  0.0865 -0.4104  0.1721
 1818DOPC   C4B21333  14.300  22.930  13.658  0.1044 -0.1850 -0.1351
 1819POSM   NC321334  17.056  17.942  15.455 -0.1800  0.0482  0.0883
 1819POSM   PO421335  17.260  18.045  15.174  0.0622  0.0056 -0.0602
 1819POSM   AM121336  17.204  18.005  14.878  0.0496 -0.1901 -0.0920
 1819POSM   AM221337  17.011  17.949  14.708 -0.0934 -0.1081 -0.1244
 1819POSM   T1A21338  17.397  17.859  14.396 -0.7060 -0.1642 -0.0889
 1819POSM   C2A21339  17.217  17.859  13.952 -0.0313  0.2342  0.0804
 1819POSM   C3A21340  17.317  17.767  13.479 -0.1052  0.3159  0.2651
 1819POSM   C1B21341  16.950  18.184  14.470  0.0436 -0.2513  0.1184
 1819POSM   D2B21342  16.877  18.333  14.034  0.0065  0.0421 -0.0562
 1819POSM   C3B21343  17.041  18.180  13.635 -0.3603  0.0542  0.1538
 1819POSM   C4B21344  17.075  18.134  13.167 -0.3386 -0.0330 -0.0705
 1820DOPE   NH321345  18.118  13.853  15.125 -0.0037 -0.2273 -0.1574
 1820DOPE   PO421346  18.224  13.522  15.138 -0.0601  0.1062  0.0826
 1820DOPE   GL121347  18.294  13.183  14.831  0.2767 -0.0543 -0.0458
 1820DOPE   GL221348  18.183  13.241  14.551 -0.0295 -0.1099  0.0552
 1820DOPE   C1A21349  18.706  12.946  14.729  0.3026  0.0494  0.0882
 1820DOPE   D2A21350  19.018  12.911  14.419  0.0172 -0.2222 -0.0298
 1820DOPE   C3A21351  18.996  13.126  14.040 -0.0666  0.0023  0.2877
 1820DOPE   C4A21352  19.170  13.160  13.606  0.1781  0.1644  0.0188
 1820DOPE   C1B21353  17.971  13.291  14.118  0.0387  0.3845  0.0432
 1820DOPE   D2B21354  17.879  13.235  13.679 -0.2349  0.0972  0.1541
 1820DOPE   C3B21355  17.565  13.186  13.371  0.2411 -0.0088 -0.1347
 1820DOPE   C4B21356  17.394  13.350  12.959 -0.0078  0.0919  0.0732
 1821DOPS   CNO21357  17.529  12.228  15.335 -0.0256 -0.2294  0.1026
 1821DOPS   PO421358  17.347  11.897  15.193  0.2545 -0.2069 -0.0775
 1821DOPS   GL121359  17.261  11.810  14.835  0.0005  0.3329  0.2382
 1821DOPS   GL221360  17.020  11.916  14.804  0.1653  0.2349 -0.2065
 1821DOPS   C1A21361  17.179  11.635  14.414 -0.0794 -0.0144  0.2479
 1821DOPS   D2A21362  17.395  11.594  14.036 -0.2716 -0.1308  0.1954
 1821DOPS   C3A21363  17.420  11.815  13.651  0.0003  0.0328  0.2104
 1821DOPS   C4A21364  17.072  11.940  13.380  0.3061  0.2086 -0.2980
 1821DOPS   C1B21365  17.061  12.279  14.478 -0.1200 -0.0142 -0.2748
 1821DOPS   D2B21366  17.110  12.519  14.044 -0.2447  0.4630  0.0683
 1821DOPS   C3B21367  17.030  12.442  13.586  0.0730 -0.1636 -0.2235
 1821DOPS   C4B21368  16.724  12.310  13.273 -0.0041  0.0724  0.0577
 1822DOPS   CNO21369  17.986  22.050  15.562 -0.0488 -0.0528  0.0897
 1822DOPS   PO421370  18.248  21.803  15.508  0.1641 -0.5400  0.1010
 1822DOPS   GL121371  18.339  21.913  15.188  0.3460  0.2437 -0.0880
 1822DOPS   GL221372  18.265  21.785  14.976  0.1250 -0.1066 -0.1265
 1822DOPS   C1A21373  18.092  22.251  15.031 -0.0418  0.0597 -0.3715
 1822DOPS   D2A21374  17.666  22.220  14.828 -0.0652 -0.1677  0.1846
 1822DOPS   C3A21375  17.567  21.790  14.621  0.0298  0.2402  0.0307
 1822DOPS   C4A21376  17.537  21.463  14.323  0.1616  0.2616 -0.1873
 1822DOPS   C1B21377  18.113  21.993  14.613 -0.0687 -0.0104  0.2889
 1822DOPS   D2B21378  17.787  22.178  14.363  0.1151  0.0071 -0.1855
 1822DOPS   C3B21379  17.565  22.569  14.324 -0.4697  0.0608  0.1946
 1822DOPS   C4B21380  17.258  22.891  14.507  0.1789 -0.1105  0.0725
 1823DOPE   NH321381  21.934  11.863  16.404 -0.0864  0.0209  0.1936
 1823DOPE   PO421382  21.882  11.940  16.119 -0.1748  0.0186 -0.2155
 1823DOPE   GL121383  22.108  11.841  15.741 -0.2991 -0.1803  0.2150
 1823DOPE   GL221384  21.864  11.746  15.586 -0.3567  0.1626 -0.0985
 1823DOPE   C1A21385  22.384  11.934  15.337  0.1356  0.1063  0.4027
 1823DOPE   D2A21386  22.803  12.095  15.260  0.2600 -0.1079  0.0913
 1823DOPE   C3A21387  23.009  12.056  14.879  0.0504 -0.0157 -0.1356
 1823DOPE   C4A21388  23.007  11.963  14.441 -0.0032 -0.0023 -0.0297
 1823DOPE   C1B21389  22.165  11.469  15.324 -0.1490  0.1140  0.0415
 1823DOPE   D2B21390  22.421  11.025  15.335 -0.2727 -0.2382  0.1501
 1823DOPE   C3B21391  22.571  11.109  14.850  0.1198 -0.1195 -0.0228
 1823DOPE   C4B21392  22.655  11.254  14.484 -0.2703 -0.0655  0.2833
 1824DOPC   NC321393  17.873  14.411  14.772  0.0693 -0.1378  0.0418
 1824DOPC   PO421394  18.189  14.346  14.980 -0.0067  0.1983 -0.0554
 1824DOPC   GL121395  18.316  14.288  14.589  0.1462 -0.1310  0.2940
 1824DOPC   GL221396  18.197  13.964  14.552 -0.1194 -0.0055  0.0654
 1824DOPC   C1A21397  18.063  14.454  14.233 -0.0537  0.2975 -0.2042
 1824DOPC   D2A21398  17.958  14.451  13.808  0.1976 -0.0569 -0.2550
 1824DOPC   C3A21399  17.972  14.075  13.628  0.0184 -0.2444 -0.1314
 1824DOPC   C4A21400  18.169  13.614  13.644 -0.0831  0.1060  0.1901
 1824DOPC   C1B21401  17.837  13.614  14.508  0.0144  0.0791 -0.1686
 1824DOPC   D2B21402  17.414  13.618  14.364  0.2774 -0.2616  0.3765
 1824DOPC   C3B21403  17.347  13.936  14.097  0.0658  0.0850  0.0936
 1824DOPC   C4B21404  17.507  14.138  13.742  0.1005 -0.0256 -0.0231
 1825DOPS   CNO21405  22.069  17.664  15.103  0.1274 -0.1725  0.0633
 1825DOPS   PO421406  22.427  17.680  15.144  0.1694 -0.0072  0.0922
 1825DOPS   GL121407  22.253  17.933  14.777 -0.0792  0.0450 -0.3552
 1825DOPS   GL221408  22.493  18.107  14.750  0.0223  0.0471 -0.1893
 1825DOPS   C1A21409  22.433  17.750  14.364  0.1298 -0.0093 -0.2083
 1825DOPS   D2A21410  22.396  17.599  13.943  0.3965 -0.0213  0.2228
 1825DOPS   C3A21411  22.767  17.335  13.966  0.2199 -0.0501  0.3483
 1825DOPS   C4A21412  23.011  17.022  14.097  0.2806 -0.0214  0.2365
 1825DOPS   C1B21413  22.562  18.275  14.367 -0.2215  0.0161 -0.2035
 1825DOPS   D2B21414  22.329  18.610  14.206  0.2868  0.3148  0.2390
 1825DOPS   C3B21415  22.671  18.804  14.036 -0.1982  0.1597  0.1987
 1825DOPS   C4B21416  22.715  18.842  13.584 -0.0582 -0.1123 -0.1428
 1826DOPE   NH321417  15.139  21.994  15.129  0.0905 -0.3718 -0.1264
 1826DOPE   PO421418  15.241  21.714  15.262  0.2228 -0.2383  0.1634
 1826DOPE   GL121419  15.258  21.684  14.810 -0.1087 -0.0714 -0.0533
 1826DOPE   GL221420  15.013  21.705  14.658  0.1564  0.0320  0.2065
 1826DOPE   C1A21421  15.424  21.808  14.397 -0.0817 -0.2092 -0.0483
 1826DOPE   D2A21422  15.421  21.645  14.002 -0.0992 -0.0851  0.2813
 1826DOPE   C3A21423  15.494  21.856  13.613 -0.0064  0.0821 -0.0806
 1826DOPE   C4A21424  15.696  21.858  13.258  0.0527  0.1688 -0.0926
 1826DOPE   C1B21425  15.209  21.369  14.450  0.2125  0.0298  0.0025
 1826DOPE   D2B21426  14.954  21.079  14.125  0.2798 -0.1405 -0.0490
 1826DOPE   C3B21427  14.907  20.629  14.044 -0.3034 -0.4200  0.1241
 1826DOPE   C4B21428  15.115  20.205  14.053  0.0198  0.1396  0.4689
 1827DOPE   NH321429  19.885  19.875  14.640 -0.1749 -0.3150 -0.0392
 1827DOPE   PO421430  20.199  19.957  14.643  0.2658  0.1547 -0.1060
 1827DOPE   GL121431  20.312  19.925  14.301 -0.0079  0.1049 -0.0862
 1827DOPE   GL221432  20.119  19.829  14.091  0.5607  0.1960 -0.1595
 1827DOPE   C1A21433  20.671  19.959  13.976  0.3034  0.2905 -0.0389
 1827DOPE   D2A21434  20.828  19.689  13.575 -0.0827  0.3244 -0.4138
 1827DOPE   C3A21435  20.905  19.311  13.367  0.0149 -0.1051 -0.1624
 1827DOPE   C4A21436  20.784  18.855  13.279  0.6404  0.0422  0.0775
 1827DOPE   C1B21437  20.333  19.676  13.706 -0.1632  0.4832 -0.0520
 1827DOPE   D2B21438  20.384  19.309  13.447  0.0282 -0.0365  0.2006
 1827DOPE   C3B21439  20.549  19.243  13.005  0.0660 -0.2480  0.2508
 1827DOPE   C4B21440  20.874  19.466  12.753  0.2826  0.0502 -0.1317
 1828DOPE   NH321441  18.681  16.576  15.175  0.1989 -0.2155 -0.1118
 1828DOPE   PO421442  18.780  16.294  15.105 -0.1075  0.0493  0.1487
 1828DOPE   GL121443  18.596  16.413  14.775 -0.2313 -0.2617 -0.0583
 1828DOPE   GL221444  18.363  16.659  14.810  0.1393  0.1130 -0.0073
 1828DOPE   C1A21445  18.650  16.252  14.357 -0.1251  0.2754 -0.1381
 1828DOPE   D2A21446  18.517  16.375  13.966 -0.1636  0.0787  0.2120
 1828DOPE   C3A21447  18.205  16.129  13.806  0.0194  0.0546  0.1906
 1828DOPE   C4A21448  17.834  16.135  13.564  0.0666  0.0426  0.1146
 1828DOPE   C1B21449  18.442  16.784  14.390 -0.1443 -0.1413 -0.0359
 1828DOPE   D2B21450  18.537  16.910  13.984  0.1876 -0.2105 -0.2565
 1828DOPE   C3B21451  18.576  16.677  13.570  0.0453  0.2640 -0.1515
 1828DOPE   C4B21452  18.726  16.800  13.101 -0.1461 -0.4050  0.2257
 1829DOPC   NC321453  21.684  22.210  15.237  0.2118 -0.0257 -0.2311
 1829DOPC   PO421454  21.964  21.913  15.222  0.0750  0.1878  0.1029
 1829DOPC   GL121455  22.327  22.073  15.063 -0.4480 -0.2665 -0.0016
 1829DOPC   GL221456  22.260  22.361  15.145  0.2064  0.0442  0.0181
 1829DOPC   C1A21457  22.801  22.089  15.034 -0.1197  0.2720  0.2919
 1829DOPC   D2A21458  23.161  21.908  14.819 -0.0261  0.1504 -0.3451
 1829DOPC   C3A21459  23.284  21.856  14.356 -0.2910 -0.2436  0.1980
 1829DOPC   C4A21460  23.454  22.151  14.041  0.1381 -0.0085 -0.0153
 1829DOPC   C1B21461  22.412  22.636  14.778 -0.1838 -0.1014  0.4178
 1829DOPC   D2B21462  22.659  22.718  14.367  0.2186 -0.3112 -0.2409
 1829DOPC   C3B21463  22.552  23.016  14.001  0.2817  0.2296 -0.1904
 1829DOPC   C4B21464  22.527  23.318  13.720 -0.0223  0.2446 -0.1340
 1830POSM   NC321465  13.852  18.862  15.185 -0.0517  0.3722  0.3268
 1830POSM   PO421466  14.169  18.634  15.228  0.1999  0.0402 -0.2565
 1830POSM   AM121467  13.999  18.402  15.089 -0.0206 -0.0857 -0.1503
 1830POSM   AM221468  13.774  18.231  15.117  0.1359 -0.2585  0.0470
 1830POSM   T1A21469  13.954  18.163  14.660  0.2111 -0.1478 -0.0534
 1830POSM   C2A21470  13.861  17.976  14.252  0.1894  0.1109 -0.0779
 1830POSM   C3A21471  13.746  17.849  13.862 -0.4778  0.1495 -0.3470
 1830POSM   C1B21472  13.528  17.943  15.065 -0.1141  0.2647  0.0353
 1830POSM   D2B21473  13.159  17.705  15.003  0.1263  0.2205  0.1111
 1830POSM   C3B21474  13.127  17.423  14.684  0.1345  0.1612 -0.0288
 1830POSM   C4B21475  13.057  17.059  14.448  0.3319 -0.0847  0.0178
 1831POSM   NC321476  11.939  21.152  15.849  0.1099  0.2713  0.1739
 1831POSM   PO421477  11.517  21.089  15.940 -0.1796 -0.0415  0.0646
 1831POSM   AM121478  11.356  21.124  15.640  0.0962  0.1797  0.2588
 1831POSM   AM221479  11.265  20.983  15.368  0.0648 -0.0699  0.1345
 1831POSM   T1A21480  11.121  21.503  15.397  0.3585  0.4578 -0.3237
 1831POSM   C2A21481  11.022  21.827  15.117  0.1833 -0.0145  0.3810
 1831POSM   C3A21482  10.945  22.230  14.845  0.1429  0.0831  0.1620
 1831POSM   C1B21483  11.110  21.057  15.068 -0.1129 -0.0785  0.0146
 1831POSM   D2B21484  11.037  21.099  14.661 -0.0645 -0.1595 -0.0001
 1831POSM   C3B21485  11.244  20.800  14.419  0.0247  0.0809 -0.3851
 1831POSM   C4B21486  11.543  20.665  14.176 -0.0688  0.0725 -0.1428
 1832DOPC   NC321487  16.777  16.307  14.570  0.2370  0.0532 -0.0284
 1832DOPC   PO421488  16.799  15.932  14.675  0.2976 -0.2913  0.1015
 1832DOPC   GL121489  17.002  15.781  14.522 -0.4827 -0.1056 -0.0697
 1832DOPC   GL221490  17.216  15.829  14.306 -0.0769  0.2950 -0.1480
 1832DOPC   C1A21491  17.196  15.327  14.503 -0.1331  0.0099  0.2720
 1832DOPC   D2A21492  17.176  14.941  14.470 -0.1755 -0.2605  0.1493
 1832DOPC   C3A21493  17.093  14.573  14.245  0.0210  0.1646 -0.0438
 1832DOPC   C4A21494  17.042  14.268  13.875  0.1492  0.4724  0.2226
 1832DOPC   C1B21495  17.363  16.175  14.063  0.0846 -0.2165  0.1534
 1832DOPC   D2B21496  17.448  16.563  13.810 -0.2147  0.4757  0.2533
 1832DOPC   C3B21497  17.191  16.928  13.749 -0.3198 -0.3192 -0.0922
 1832DOPC   C4B21498  17.244  17.100  13.362  0.0715  0.1255  0.1365
 1833DOPC   NC321499  19.334  16.307  15.237 -0.0318 -0.0664  0.5710
 1833DOPC   PO421500  19.290  16.645  15.071 -0.1567  0.1165  0.0332
 1833DOPC   GL121501  19.435  16.814  14.761 -0.5007 -0.2439  0.2019
 1833DOPC   GL221502  19.361  16.995  14.595  0.0448  0.1034 -0.3050
 1833DOPC   C1A21503  19.790  16.775  14.459  0.2254  0.1214 -0.1409
 1833DOPC   D2A21504  19.921  17.184  14.271 -0.3259 -0.0890 -0.2601
 1833DOPC   C3A21505  19.717  17.327  13.880 -0.0238  0.0772  0.1008
 1833DOPC   C4A21506  19.338  17.462  13.591  0.3071  0.0770  0.1619
 1833DOPC   C1B21507  18.978  16.888  14.316 -0.2416 -0.2615 -0.0777
 1833DOPC   D2B21508  18.929  16.625  13.969  0.0095  0.0209 -0.1984
 1833DOPC   C3B21509  18.994  16.264  13.695  0.0789  0.1223  0.0277
 1833DOPC   C4B21510  19.272  16.069  13.368  0.0786 -0.2517  0.1629
 1834DOPS   CNO21511  12.307  19.796  16.072  0.3557 -0.1234  0.0319
 1834DOPS   PO421512  12.259  19.940  15.718  0.2557 -0.3068 -0.1447
 1834DOPS   GL121513  12.056  19.862  15.381 -0.2269 -0.3461 -0.1421
 1834DOPS   GL221514  12.181  19.713  15.285 -0.0178  0.0047  0.3442
 1834DOPS   C1A21515  12.142  20.191  15.064 -0.2679 -0.5090  0.1050
 1834DOPS   D2A21516  12.412  20.185  14.666  0.0916  0.1009 -0.1971
 1834DOPS   C3A21517  12.491  20.568  14.406  0.0129  0.0310 -0.0276
 1834DOPS   C4A21518  12.854  20.743  14.149 -0.0730  0.1378  0.2756
 1834DOPS   C1B21519  12.173  19.732  14.830  0.1066 -0.2618 -0.1837
 1834DOPS   D2B21520  12.121  19.630  14.410 -0.1953 -0.3554  0.2525
 1834DOPS   C3B21521  12.354  19.682  14.014  0.0868 -0.0992 -0.2842
 1834DOPS   C4B21522  12.701  19.820  13.771 -0.1559  0.1949  0.1296
 1835DOPE   NH321523  19.264  12.504  15.303  0.0544 -0.1376  0.1526
 1835DOPE   PO421524  18.935  12.437  15.333  0.0520 -0.0535 -0.0108
 1835DOPE   GL121525  18.857  12.578  15.081  0.1278  0.4315 -0.0330
 1835DOPE   GL221526  18.619  12.391  14.863  0.0370 -0.1130 -0.0135
 1835DOPE   C1A21527  19.146  12.448  14.723  0.3004  0.3440  0.1656
 1835DOPE   D2A21528  19.212  12.420  14.260  0.2337  0.0086 -0.2846
 1835DOPE   C3A21529  19.605  12.362  14.063  0.1500  0.2712 -0.0874
 1835DOPE   C4A21530  19.806  12.385  13.635 -0.0885  0.2514  0.2841
 1835DOPE   C1B21531  18.666  12.484  14.390  0.3240 -0.1557 -0.3287
 1835DOPE   D2B21532  18.827  12.694  13.995 -0.4094  0.3193 -0.2523
 1835DOPE   C3B21533  19.202  12.621  13.796 -0.3574 -0.0084  0.0065
 1835DOPE   C4B21534  19.678  12.820  13.796  0.0697  0.0791  0.0567
 1836DOPS   CNO21535  20.832  16.545  15.383 -0.0851  0.3668  0.2261
 1836DOPS   PO421536  20.792  16.720  15.062  0.0193  0.1993  0.5001
 1836DOPS   GL121537  20.889  16.767  14.654  0.0079  0.3265  0.1323
 1836DOPS   GL221538  20.627  16.705  14.570  0.0676 -0.0885  0.1489
 1836DOPS   C1A21539  20.897  17.196  14.443 -0.2673  0.0138  0.3074
 1836DOPS   D2A21540  21.006  17.666  14.484  0.3542 -0.0784 -0.3328
 1836DOPS   C3A21541  20.996  17.784  14.063 -0.0268  0.0631  0.2969
 1836DOPS   C4A21542  21.142  18.185  13.840 -0.1141 -0.0291  0.1314
 1836DOPS   C1B21543  20.745  16.253  14.502  0.1103 -0.1441 -0.2882
 1836DOPS   D2B21544  20.448  15.941  14.240  0.1375 -0.0232 -0.1452
 1836DOPS   C3B21545  20.470  16.020  13.783 -0.1808 -0.4465 -0.1657
 1836DOPS   C4B21546  20.274  15.985  13.357 -0.2843 -0.0455 -0.1581
 1837DOPE   NH321547  23.270  13.218  11.873  0.0983  0.0605 -0.0226
 1837DOPE   PO421548  22.970  13.152  11.774 -0.1648 -0.0484 -0.1489
 1837DOPE   GL121549  22.952  12.904  12.118 -0.5858  0.1040  0.0988
 1837DOPE   GL221550  23.244  12.872  12.251  0.2038 -0.1905  0.1642
 1837DOPE   C1A21551  22.772  12.756  12.531  0.1824 -0.0127 -0.0989
 1837DOPE   D2A21552  22.706  12.701  12.989  0.3201  0.1367  0.2397
 1837DOPE   C3A21553  22.322  12.453  13.190  0.0354  0.0643 -0.3747
 1837DOPE   C4A21554  22.049  12.461  13.585  0.3883 -0.2339 -0.0958
 1837DOPE   C1B21555  23.629  12.820  11.995 -0.1694 -0.2314  0.2203
 1837DOPE   D2B21556  24.002  12.596  12.018 -0.4698  0.2714 -0.0264
 1837DOPE   C3B21557  24.435  12.572  11.748  0.0494 -0.2376  0.1243
 1837DOPE   C4B21558  24.778  12.274  11.723 -0.0381  0.0652 -0.0819
 1838DOPS   CNO21559  12.747  15.707  12.577  0.0687 -0.1497  0.4248
 1838DOPS   PO421560  12.914  15.379  12.547 -0.1734  0.2685 -0.2619
 1838DOPS   GL121561  13.252  15.192  12.671 -0.1442 -0.3178  0.0321
 1838DOPS   GL221562  13.460  15.292  12.693  0.3209  0.1042 -0.0145
 1838DOPS   C1A21563  13.449  14.783  12.624  0.2244 -0.2645 -0.2617
 1838DOPS   D2A21564  13.628  14.563  12.238  0.2296 -0.2252 -0.1953
 1838DOPS   C3A21565  13.938  14.261  12.118 -0.1356  0.0501  0.0168
 1838DOPS   C4A21566  14.386  14.080  12.118 -0.0902 -0.3640  0.1150
 1838DOPS   C1B21567  13.408  15.412  13.120 -0.0860 -0.0711  0.0551
 1838DOPS   D2B21568  13.168  15.341  13.507 -0.0350 -0.0092  0.1370
 1838DOPS   C3B21569  12.883  15.162  13.173  0.1111 -0.1916 -0.0898
 1838DOPS   C4B21570  12.458  14.949  13.202  0.0178  0.0474 -0.0155
 1839DOPE   NH321571  20.353  13.814  11.437 -0.0109 -0.0779 -0.1003
 1839DOPE   PO421572  20.594  13.624  11.559 -0.1235 -0.2733  0.1927
 1839DOPE   GL121573  20.878  13.637  11.790 -0.2449 -0.0355  0.4817
 1839DOPE   GL221574  20.875  13.380  12.021 -0.0209  0.0039 -0.0907
 1839DOPE   C1A21575  20.963  14.037  11.997  0.1911  0.1882 -0.0921
 1839DOPE   D2A21576  20.764  14.146  12.382 -0.1270  0.0571 -0.0026
 1839DOPE   C3A21577  20.716  14.596  12.585 -0.1570  0.2350  0.1082
 1839DOPE   C4A21578  21.014  14.942  12.545  0.5521 -0.2387  0.1264
 1839DOPE   C1B21579  21.088  13.644  12.355 -0.1827 -0.0800 -0.0920
 1839DOPE   D2B21580  21.384  13.816  12.679  0.4392 -0.1303  0.1479
 1839DOPE   C3B21581  21.699  13.845  13.032 -0.0971  0.2185  0.4834
 1839DOPE   C4B21582  21.901  13.635  13.460  0.4616 -0.0356  0.0581
 1840DOPE   NH321583  22.717  11.868  11.608 -0.1635  0.1652  0.2379
 1840DOPE   PO421584  22.403  12.090  11.585  0.0658 -0.1051 -0.1832
 1840DOPE   GL121585  22.032  12.038  11.852 -0.0791  0.1622  0.0594
 1840DOPE   GL221586  22.124  12.332  11.982 -0.0646 -0.0029  0.0435
 1840DOPE   C1A21587  21.583  12.155  11.793 -0.0366 -0.2653 -0.4002
 1840DOPE   D2A21588  21.293  12.516  11.791  0.1965 -0.1000  0.1920
 1840DOPE   C3A21589  21.340  13.045  11.825  0.1150 -0.2785  0.1015
 1840DOPE   C4A21590  21.431  13.437  11.988  0.5373  0.2929  0.4083
 1840DOPE   C1B21591  22.325  12.706  12.174 -0.1889  0.1475  0.0496
 1840DOPE   D2B21592  22.374  13.176  12.235  0.2360 -0.1291  0.0776
 1840DOPE   C3B21593  22.305  13.359  12.656  0.3120 -0.2198 -0.1174
 1840DOPE   C4B21594  22.253  13.481  13.076 -0.1444 -0.0096  0.0167
 1841DOPC   NC321595  23.170  12.539  11.401 -0.2171  0.2019 -0.2217
 1841DOPC   PO421596  22.874  12.363  11.598  0.1342  0.0636 -0.1614
 1841DOPC   GL121597  22.441  12.618  11.686 -0.2250  0.0279  0.0181
 1841DOPC   GL221598  22.566  12.875  11.756  0.1505 -0.0463  0.0945
 1841DOPC   C1A21599  21.997  12.729  11.675  0.0199 -0.2399 -0.2269
 1841DOPC   D2A21600  21.727  12.639  12.045 -0.0343 -0.0760  0.0532
 1841DOPC   C3A21601  21.923  12.436  12.422  0.4307 -0.1318 -0.1552
 1841DOPC   C4A21602  21.896  12.292  12.901  0.0298 -0.2940  0.1453
 1841DOPC   C1B21603  22.212  13.188  11.654 -0.1528 -0.0268  0.4178
 1841DOPC   D2B21604  21.956  13.540  11.777  0.4159  0.1431  0.1584
 1841DOPC   C3B21605  21.908  13.584  12.242 -0.0896  0.2919  0.1738
 1841DOPC   C4B21606  21.796  13.557  12.660  0.1991  0.1461 -0.0430
 1842DOPC   NC321607  12.588  19.281  12.201 -0.2097 -0.0689  0.0026
 1842DOPC   PO421608  12.370  19.267  11.856 -0.4012 -0.0148 -0.0442
 1842DOPC   GL121609  12.718  19.533  11.853 -0.2373  0.1938  0.0241
 1842DOPC   GL221610  12.657  19.823  11.994  0.0613  0.2414 -0.2651
 1842DOPC   C1A21611  13.179  19.633  11.871  0.0057  0.0273  0.0735
 1842DOPC   D2A21612  13.495  19.805  12.182  0.0086 -0.0865 -0.3280
 1842DOPC   C3A21613  13.823  19.958  11.921 -0.0725  0.2343  0.0627
 1842DOPC   C4A21614  14.058  20.306  11.717  0.0516  0.0785 -0.2819
 1842DOPC   C1B21615  12.804  19.635  12.388  0.0386 -0.1303  0.1001
 1842DOPC   D2B21616  12.775  19.256  12.705 -0.2233 -0.0847  0.1445
 1842DOPC   C3B21617  12.930  19.424  13.108 -0.0292 -0.3297 -0.1159
 1842DOPC   C4B21618  13.082  19.724  13.437  0.0050 -0.3563 -0.1470
 1843DOPE   NH321619  10.849  19.724  11.895  0.0924  0.4542 -0.0291
 1843DOPE   PO421620  10.998  19.543  12.099 -0.3376 -0.1003  0.0266
 1843DOPE   GL121621  11.053  19.503  12.498  0.2171 -0.2965 -0.2891
 1843DOPE   GL221622  11.254  19.268  12.618  0.2365 -0.1032 -0.0455
 1843DOPE   C1A21623  10.819  19.380  12.909 -0.2159  0.2394 -0.1953
 1843DOPE   D2A21624  10.486  19.650  13.079  0.0407 -0.0169 -0.0641
 1843DOPE   C3A21625  10.411  19.877  13.484 -0.0016  0.4411 -0.0358
 1843DOPE   C4A21626  10.663  20.073  13.862 -0.1766  0.0350  0.1794
 1843DOPE   C1B21627  11.262  19.562  13.040 -0.1177  0.3583 -0.1275
 1843DOPE   D2B21628  11.292  19.813  13.435  0.1130 -0.2981  0.1469
 1843DOPE   C3B21629  11.151  19.890  13.893  0.0223  0.0507  0.0197
 1843DOPE   C4B21630  11.461  19.873  14.309 -0.0401 -0.2480 -0.0263
 1844DOPE   NH321631  23.492  21.839  11.993 -0.0121 -0.3628 -0.0508
 1844DOPE   PO421632  23.609  21.619  12.199 -0.1508  0.1512  0.1172
 1844DOPE   GL121633  23.795  21.308  12.461  0.2589 -0.3254  0.1559
 1844DOPE   GL221634  23.702  21.042  12.443 -0.1937 -0.1255  0.0221
 1844DOPE   C1A21635  24.014  21.188  12.889  0.1245  0.0403  0.0305
 1844DOPE   D2A21636  24.105  20.828  13.097 -0.1064 -0.0051  0.1828
 1844DOPE   C3A21637  23.746  20.563  13.180  0.3351  0.0543  0.4434
 1844DOPE   C4A21638  23.318  20.556  13.404 -0.0030 -0.1959 -0.2852
 1844DOPE   C1B21639  23.322  20.719  12.376 -0.2338 -0.2964 -0.1042
 1844DOPE   D2B21640  22.897  20.601  12.511  0.1344 -0.0462  0.0407
 1844DOPE   C3B21641  22.855  20.914  12.837  0.1086  0.2318  0.1449
 1844DOPE   C4B21642  22.788  21.010  13.304 -0.0630 -0.0815 -0.0183
 1845DOPE   NH321643  18.035  18.078  12.111  0.0738  0.2273  0.0532
 1845DOPE   PO421644  17.975  18.383  12.142 -0.3773 -0.0281  0.4800
 1845DOPE   GL121645  17.636  18.228  12.290 -0.1214 -0.6713 -0.0324
 1845DOPE   GL221646  17.487  18.199  12.011 -0.0848  0.3962  0.4145
 1845DOPE   C1A21647  17.583  17.780  12.252  0.0116  0.1387  0.0331
 1845DOPE   D2A21648  17.927  17.398  12.359  0.0518  0.1507  0.1677
 1845DOPE   C3A21649  18.166  17.427  12.757  0.3008  0.0438 -0.0316
 1845DOPE   C4A21650  18.548  17.350  12.974 -0.1994  0.0073 -0.1107
 1845DOPE   C1B21651  17.170  17.865  11.915 -0.0156  0.0623  0.0177
 1845DOPE   D2B21652  17.045  17.428  11.778 -0.1451 -0.1210 -0.2746
 1845DOPE   C3B21653  16.949  16.923  11.742  0.1436 -0.0847  0.0461
 1845DOPE   C4B21654  16.579  16.737  11.897 -0.0489 -0.0812 -0.0336
 1846POSM   NC321655  11.538  19.727  11.867  0.1498 -0.1840 -0.0133
 1846POSM   PO421656  11.750  20.032  11.907  0.3542  0.0614  0.4422
 1846POSM   AM121657  11.962  20.074  12.150 -0.0762 -0.3356  0.1877
 1846POSM   AM221658  11.984  20.134  12.396 -0.0060 -0.0113 -0.3823
 1846POSM   T1A21659  12.439  20.170  12.273 -0.1685  0.0620  0.2208
 1846POSM   C2A21660  12.819  20.180  12.520  0.0846  0.2946  0.3241
 1846POSM   C3A21661  12.933  20.475  12.782  0.1601 -0.0222  0.2269
 1846POSM   C1B21662  12.148  20.090  12.717  0.2365 -0.0217 -0.1716
 1846POSM   D2B21663  12.161  19.918  13.150  0.0247 -0.3107  0.4882
 1846POSM   C3B21664  12.272  20.037  13.602 -0.3011 -0.1630 -0.1505
 1846POSM   C4B21665  12.572  20.304  13.768  0.0238 -0.2675 -0.0407
 1847DOPE   NH321666  16.247  19.998  11.991  0.0801 -0.0755  0.1332
 1847DOPE   PO421667  16.066  20.151  11.788  0.0172  0.0167 -0.0698
 1847DOPE   GL121668  15.779  20.019  12.050 -0.0404 -0.2343 -0.0061
 1847DOPE   GL221669  15.492  19.974  11.951  0.0813 -0.0290  0.1017
 1847DOPE   C1A21670  15.563  19.829  12.413  0.1206 -0.3468  0.1556
 1847DOPE   D2A21671  15.378  19.519  12.643 -0.1083  0.1189 -0.0243
 1847DOPE   C3A21672  15.589  19.795  13.010 -0.4074  0.1598  0.0221
 1847DOPE   C4A21673  15.756  19.758  13.429  0.2543 -0.0626 -0.0758
 1847DOPE   C1B21674  15.128  19.873  12.228  0.1509  0.1505  0.1267
 1847DOPE   D2B21675  14.877  19.769  12.593  0.1333  0.1786  0.0204
 1847DOPE   C3B21676  14.909  19.500  12.965  0.0330  0.1539  0.0142
 1847DOPE   C4B21677  15.032  19.137  13.251  0.1111 -0.1432 -0.0420
 1848POSM   NC321678  18.319  18.924  11.184  0.0416 -0.1889 -0.4129
 1848POSM   PO421679  18.628  18.962  11.475  0.3479  0.3540 -0.0230
 1848POSM   AM121680  18.886  19.054  11.645  0.0390  0.3682 -0.2609
 1848POSM   AM221681  19.164  19.043  11.618  0.2305  0.0731  0.0149
 1848POSM   T1A21682  18.969  19.178  12.096 -0.0764 -0.0211 -0.0239
 1848POSM   C2A21683  19.013  19.387  12.505 -0.1910 -0.3964 -0.1289
 1848POSM   C3A21684  18.952  19.309  12.953 -0.0542  0.0473 -0.0610
 1848POSM   C1B21685  19.373  18.913  11.893  0.3326  0.1258  0.1133
 1848POSM   D2B21686  19.705  19.079  12.045  0.3267  0.1767 -0.6316
 1848POSM   C3B21687  19.891  18.852  12.362 -0.2191 -0.1033 -0.0322
 1848POSM   C4B21688  19.953  18.548  12.701  0.0566 -0.0250  0.0054
 1849POSM   NC321689  11.234  12.119  12.008 -0.0072  0.0677  0.0598
 1849POSM   PO421690  11.454  11.802  12.031 -0.0844  0.1708 -0.0545
 1849POSM   AM121691  11.646  11.997  12.224 -0.1977 -0.1568 -0.0664
 1849POSM   AM221692  11.701  12.074  12.469 -0.2171  0.2142 -0.4165
 1849POSM   T1A21693  11.718  12.482  12.161  0.0498 -0.3051 -0.3181
 1849POSM   C2A21694  11.984  12.874  12.201  0.1130 -0.1236  0.3037
 1849POSM   C3A21695  11.943  13.219  12.513  0.2295 -0.0853 -0.1614
 1849POSM   C1B21696  11.697  12.321  12.627  0.3361  0.1292 -0.2156
 1849POSM   D2B21697  11.872  12.739  12.762 -0.4234 -0.3500  0.1108
 1849POSM   C3B21698  11.764  12.975  13.092 -0.0499  0.1162  0.0605
 1849POSM   C4B21699  11.783  13.020  13.538  0.0836 -0.0621 -0.0273
 1850DOPC   NC321700  23.044  21.384  11.735  0.0168  0.0048 -0.2487
 1850DOPC   PO421701  22.962  21.605  12.048  0.0845 -0.1685 -0.1378
 1850DOPC   GL121702  22.592  21.541  12.287 -0.1690  0.0104 -0.0338
 1850DOPC   GL221703  22.284  21.606  12.360 -0.0052  0.0694 -0.1261
 1850DOPC   C1A21704  22.639  21.419  12.728  0.1007 -0.2253  0.0169
 1850DOPC   D2A21705  22.638  21.431  13.164  0.0913 -0.0162  0.1370
 1850DOPC   C3A21706  22.715  21.846  13.351  0.0488 -0.1073  0.0865
 1850DOPC   C4A21707  22.785  22.070  13.736 -0.0754 -0.2164 -0.0582
 1850DOPC   C1B21708  22.088  21.185  12.383  0.1429 -0.1728  0.2248
 1850DOPC   D2B21709  22.099  20.753  12.198  0.0574  0.3757 -0.2346
 1850DOPC   C3B21710  21.685  20.489  12.216  0.2016  0.3482  0.1353
 1850DOPC   C4B21711  21.364  20.360  12.490 -0.4017 -0.0939  0.2866
 1851DOPC   NC321712  18.892  20.049  11.339 -0.2231  0.0560  0.0653
 1851DOPC   PO421713  18.833  19.892  11.671  0.1540 -0.2681 -0.1488
 1851DOPC   GL121714  19.163  20.118  11.718 -0.1065  0.2350 -0.1853
 1851DOPC   GL221715  19.235  20.390  11.572  0.1407 -0.2323 -0.0119
 1851DOPC   C1A21716  19.568  20.019  11.909 -0.1472 -0.0185  0.0486
 1851DOPC   D2A21717  19.681  19.784  12.324 -0.0627 -0.1922 -0.2288
 1851DOPC   C3A21718  20.107  19.902  12.440  0.1478  0.0308  0.0034
 1851DOPC   C4A21719  20.494  19.673  12.520  0.2865  0.3080  0.1311
 1851DOPC   C1B21720  19.497  20.630  11.879 -0.0681  0.0442 -0.0652
 1851DOPC   D2B21721  19.929  20.856  11.935  0.2133  0.0704  0.2648
 1851DOPC   C3B21722  20.034  20.855  12.394  0.2609 -0.0431 -0.1451
 1851DOPC   C4B21723  19.994  20.448  12.652  0.2159  0.1229 -0.1897
 1852DOPC   NC321724  14.236  16.337  11.973 -0.0857  0.4245  0.0602
 1852DOPC   PO421725  14.544  16.481  11.703  0.1351 -0.2012 -0.0124
 1852DOPC   GL121726  14.555  16.657  12.033  0.1427 -0.0455  0.2900
 1852DOPC   GL221727  14.681  16.469  12.172 -0.0216  0.2210 -0.2200
 1852DOPC   C1A21728  14.912  16.933  12.183 -0.1975  0.1129 -0.0425
 1852DOPC   D2A21729  15.292  17.082  12.456  0.0689 -0.1805 -0.2415
 1852DOPC   C3A21730  15.446  17.103  12.927 -0.1258  0.2831 -0.1501
 1852DOPC   C4A21731  15.471  17.463  13.218 -0.0452 -0.0455  0.3242
 1852DOPC   C1B21732  15.110  16.387  12.280 -0.0935 -0.0083  0.0778
 1852DOPC   D2B21733  15.535  16.558  12.307  0.1415 -0.1717  0.0142
 1852DOPC   C3B21734  15.765  16.281  12.530 -0.0055 -0.0752  0.3250
 1852DOPC   C4B21735  16.242  16.215  12.518  0.0860 -0.1054  0.1421
 1853DOPE   NH321736  19.114  12.313  11.844  0.0418 -0.0699 -0.0722
 1853DOPE   PO421737  19.045  12.398  12.165  0.0453 -0.3317  0.1000
 1853DOPE   GL121738  18.824  12.227  12.330 -0.2081  0.3540  0.5452
 1853DOPE   GL221739  18.824  12.377  12.603 -0.1157 -0.0555 -0.0015
 1853DOPE   C1A21740  18.545  11.924  12.597 -0.2151  0.0950  0.3257
 1853DOPE   D2A21741  18.076  11.908  12.642  0.0820 -0.3957 -0.1966
 1853DOPE   C3A21742  17.991  12.111  13.071  0.2685 -0.1989  0.1666
 1853DOPE   C4A21743  17.944  12.226  13.497 -0.0883  0.1288 -0.1026
 1853DOPE   C1B21744  18.997  12.565  12.950  0.0022  0.1467 -0.1875
 1853DOPE   D2B21745  19.418  12.509  13.143  0.0458 -0.0551 -0.1109
 1853DOPE   C3B21746  19.347  12.264  13.488 -0.1395  0.3866  0.0326
 1853DOPE   C4B21747  19.111  12.155  13.814 -0.1371  0.1541  0.1976
 1854POSM   NC321748  18.517  11.955  12.067 -0.2683 -0.0048 -0.1365
 1854POSM   PO421749  18.580  11.585  11.929  0.0108  0.1676 -0.3375
 1854POSM   AM121750  18.381  11.450  12.144  0.0083  0.0363 -0.1928
 1854POSM   AM221751  18.282  11.567  12.369 -0.3487  0.0585 -0.2815
 1854POSM   T1A21752  17.982  11.142  12.059  0.1932  0.1052 -0.5434
 1854POSM   C2A21753  17.589  10.998  12.385 -0.0897 -0.3169  0.2099
 1854POSM   C3A21754  17.365  11.046  12.804 -0.0516  0.1029  0.0066
 1854POSM   C1B21755  18.167  11.362  12.623 -0.2000 -0.0171  0.0650
 1854POSM   D2B21756  18.020  11.125  12.929 -0.1917 -0.2837 -0.0908
 1854POSM   C3B21757  17.957  11.071  13.368 -0.1643 -0.0484  0.1817
 1854POSM   C4B21758  18.088  10.994  13.800  0.1231  0.1117  0.1449
 1855DOPE   NH321759  11.813  21.267  12.335 -0.0457 -0.1126  0.4042
 1855DOPE   PO421760  11.744  20.960  12.236 -0.0766 -0.1497  0.0683
 1855DOPE   GL121761  12.003  20.711  12.584 -0.2761  0.4577  0.1335
 1855DOPE   GL221762  11.869  20.941  12.763 -0.2448 -0.0710 -0.0842
 1855DOPE   C1A21763  11.998  20.550  13.030 -0.1563  0.2182 -0.0969
 1855DOPE   D2A21764  11.923  20.617  13.490  0.0206 -0.1081  0.0469
 1855DOPE   C3A21765  12.067  20.389  13.856  0.3945 -0.0287 -0.3215
 1855DOPE   C4A21766  12.343  20.148  14.169 -0.0563 -0.0642 -0.1564
 1855DOPE   C1B21767  11.588  20.793  13.141  0.1101 -0.2822 -0.1235
 1855DOPE   D2B21768  11.543  20.378  13.304 -0.0637  0.0315  0.1041
 1855DOPE   C3B21769  11.108  20.253  13.505  0.1752 -0.2637 -0.1364
 1855DOPE   C4B21770  10.693  20.237  13.375 -0.2382  0.0315  0.2156
 1856DOPC   NC321771  19.939  12.268  11.448 -0.1371 -0.0167 -0.0969
 1856DOPC   PO421772  20.190  12.295  11.787 -0.1213 -0.0712  0.1174
 1856DOPC   GL121773  20.649  12.141  11.993  0.1629  0.0662  0.4695
 1856DOPC   GL221774  20.756  12.307  11.859 -0.1057 -0.1212 -0.1474
 1856DOPC   C1A21775  20.909  11.744  11.907 -0.1355  0.0076  0.2753
 1856DOPC   D2A21776  20.970  11.284  11.985 -0.2071 -0.1382  0.0400
 1856DOPC   C3A21777  20.548  11.238  12.037  0.3159 -0.1637 -0.2656
 1856DOPC   C4A21778  20.436  10.845  12.310  0.2300 -0.4525  0.1258
 1856DOPC   C1B21779  21.109  12.234  12.174  0.0640  0.1005  0.2084
 1856DOPC   D2B21780  21.393  12.390  12.462  0.3193  0.0070  0.0630
 1856DOPC   C3B21781  21.545  12.661  12.776 -0.0811  0.1123 -0.1070
 1856DOPC   C4B21782  21.746  12.723  13.208  0.0812  0.0553 -0.1763
 1857POSM   NC321783  19.066  11.412  12.080 -0.0051  0.1019  0.0820
 1857POSM   PO421784  19.453  11.579  12.169  0.0420  0.0424  0.2432
 1857POSM   AM121785  19.611  11.651  12.446 -0.2681 -0.4398  0.2664
 1857POSM   AM221786  19.594  11.889  12.588  0.3634 -0.1441 -0.2641
 1857POSM   T1A21787  20.059  11.611  12.686 -0.1792 -0.3131  0.1724
 1857POSM   C2A21788  20.395  11.373  12.797 -0.0161 -0.1183 -0.0933
 1857POSM   C3A21789  20.597  11.184  13.210 -0.2761 -0.0341  0.1274
 1857POSM   C1B21790  19.746  11.860  12.945  0.1663  0.1698  0.1532
 1857POSM   D2B21791  19.710  11.946  13.389  0.1449  0.1900 -0.0293
 1857POSM   C3B21792  20.091  11.993  13.618 -0.2519  0.3107  0.0633
 1857POSM   C4B21793  20.336  11.986  13.988  0.1078 -0.1633 -0.2992
 1858DOPE   NH321794  20.440  17.129  11.898 -0.0432 -0.0831 -0.2395
 1858DOPE   PO421795  20.391  17.145  11.584 -0.1578  0.1407  0.1284
 1858DOPE   GL121796  20.055  17.367  11.557  0.2377  0.0032  0.1084
 1858DOPE   GL221797  20.096  17.459  11.855 -0.1063 -0.0339  0.2035
 1858DOPE   C1A21798  19.830  17.780  11.588 -0.0482 -0.2096  0.3946
 1858DOPE   D2A21799  19.465  17.934  11.473  0.2262 -0.2105 -0.3315
 1858DOPE   C3A21800  19.006  17.987  11.615  0.0666  0.2022  0.0733
 1858DOPE   C4A21801  18.722  17.690  11.871  0.0035 -0.0453  0.0222
 1858DOPE   C1B21802  20.228  17.544  12.269  0.0186 -0.0225  0.0789
 1858DOPE   D2B21803  20.390  17.614  12.712 -0.0220  0.1194 -0.1290
 1858DOPE   C3B21804  20.007  17.581  12.946 -0.1642 -0.0457 -0.0712
 1858DOPE   C4B21805  19.568  17.613  13.042 -0.0199  0.0572  0.0947
 1859DOPE   NH321806  11.811  15.389  12.417 -0.1351  0.1441 -0.0100
 1859DOPE   PO421807  11.969  15.665  12.279 -0.0222  0.2793 -0.2197
 1859DOPE   GL121808  12.059  15.850  12.596 -0.2502  0.7428 -0.3444
 1859DOPE   GL221809  11.828  16.084  12.652  0.0357  0.0071  0.0680
 1859DOPE   C1A21810  11.920  15.646  12.988 -0.2210  0.2345  0.2936
 1859DOPE   D2A21811  11.702  15.653  13.359 -0.1084  0.0813 -0.0960
 1859DOPE   C3A21812  11.545  16.037  13.342 -0.0196  0.2423  0.0075
 1859DOPE   C4A21813  11.478  16.360  12.984 -0.1805  0.0783 -0.3187
 1859DOPE   C1B21814  11.963  16.436  12.890 -0.2287  0.0864  0.0090
 1859DOPE   D2B21815  11.812  16.624  13.293 -0.5334  0.0163 -0.2556
 1859DOPE   C3B21816  11.441  16.441  13.553  0.1186 -0.2925 -0.1288
 1859DOPE   C4B21817  11.062  16.169  13.532  0.0118  0.1068 -0.3137
 1860DOPC   NC321818  16.398  19.495  11.912 -0.4198  0.1398  0.1307
 1860DOPC   PO421819  16.625  19.151  11.839 -0.2491  0.1222  0.0961
 1860DOPC   GL121820  16.707  19.211  12.154 -0.1745  0.0522  0.1870
 1860DOPC   GL221821  16.437  19.020  12.278  0.2723  0.0938 -0.0925
 1860DOPC   C1A21822  16.700  18.993  12.641 -0.0443 -0.0934 -0.0044
 1860DOPC   D2A21823  16.438  18.909  13.030  0.0417  0.0312 -0.0493
 1860DOPC   C3A21824  15.987  18.817  12.988  0.4069 -0.0982  0.1602
 1860DOPC   C4A21825  15.500  18.811  13.093  0.0854 -0.2439 -0.2657
 1860DOPC   C1B21826  16.159  19.052  12.590  0.1133 -0.1000  0.2205
 1860DOPC   D2B21827  15.924  19.377  12.801 -0.1969 -0.0227 -0.0912
 1860DOPC   C3B21828  15.698  19.253  13.164  0.1477  0.2409 -0.1228
 1860DOPC   C4B21829  15.522  19.095  13.523 -0.1567  0.0811 -0.1832
 1861DOPE   NH321830  12.132  19.696  11.867 -0.0594  0.0499  0.0054
 1861DOPE   PO421831  12.158  19.578  12.171  0.2179  0.0335 -0.1425
 1861DOPE   GL121832  12.346  19.630  12.557  0.0711  0.0565 -0.3297
 1861DOPE   GL221833  12.251  19.318  12.579 -0.2911 -0.2605 -0.1492
 1861DOPE   C1A21834  12.634  19.743  12.819 -0.3808  0.3353 -0.0262
 1861DOPE   D2A21835  13.037  19.961  12.904  0.0316  0.3384  0.0389
 1861DOPE   C3A21836  13.283  20.223  13.143 -0.2234  0.0233 -0.2458
 1861DOPE   C4A21837  13.376  20.654  13.005  0.0420 -0.1455  0.1997
 1861DOPE   C1B21838  12.374  19.336  13.028  0.0871 -0.1415  0.1120
 1861DOPE   D2B21839  12.375  19.466  13.468 -0.1024 -0.0197  0.0984
 1861DOPE   C3B21840  12.093  19.126  13.627  0.1103  0.1306  0.0707
 1861DOPE   C4B21841  11.907  18.694  13.798  0.3592 -0.0161 -0.0333
 1862POSM   NC321842  19.889  16.631  12.045  0.1782  0.0042  0.3336
 1862POSM   PO421843  19.935  16.984  11.827 -0.0014  0.2320 -0.0245
 1862POSM   AM121844  19.922  17.077  12.099 -0.4470  0.4136  0.0370
 1862POSM   AM221845  20.139  17.020  12.310  0.1910  0.2445 -0.0908
 1862POSM   T1A21846  19.687  17.409  12.333  0.0018  0.0580  0.0372
 1862POSM   C2A21847  19.553  17.792  12.562  0.0856  0.1931  0.1021
 1862POSM   C3A21848  19.326  18.167  12.705  0.3814 -0.2541  0.1895
 1862POSM   C1B21849  19.993  17.106  12.632  0.0566 -0.3577 -0.0781
 1862POSM   D2B21850  19.617  17.138  12.815  0.1493  0.1396 -0.1398
 1862POSM   C3B21851  19.511  17.127  13.250 -0.1012 -0.0353 -0.0258
 1862POSM   C4B21852  19.247  16.902  13.582 -0.3016 -0.0883  0.0876
 1863DOPC   NC321853  19.256  19.266  11.176  0.1568 -0.0179  0.2792
 1863DOPC   PO421854  19.521  18.941  11.214 -0.1915 -0.0967 -0.0800
 1863DOPC   GL121855  19.716  19.124  11.509 -0.2771  0.3523 -0.3887
 1863DOPC   GL221856  19.574  19.306  11.672 -0.0750  0.2287 -0.1491
 1863DOPC   C1A21857  20.061  19.235  11.781  0.1338  0.1122 -0.1124
 1863DOPC   D2A21858  20.165  19.424  12.191 -0.0947  0.0310 -0.0651
 1863DOPC   C3A21859  20.624  19.291  12.159 -0.0960  0.0704 -0.1742
 1863DOPC   C4A21860  21.125  19.379  12.285  0.0876  0.0714  0.1375
 1863DOPC   C1B21861  19.833  19.646  11.606  0.1631  0.3121 -0.0620
 1863DOPC   D2B21862  20.052  19.893  11.952  0.0486 -0.3385 -0.0092
 1863DOPC   C3B21863  20.516  19.814  12.065  0.1780 -0.2120  0.0450
 1863DOPC   C4B21864  20.936  19.898  11.820 -0.0935  0.1310 -0.3902
 1864POSM   NC321865  19.043  22.052  12.094 -0.0519 -0.1329 -0.0492
 1864POSM   PO421866  18.670  22.023  12.186  0.1985 -0.0459 -0.1896
 1864POSM   AM121867  18.763  21.862  12.457  0.3451 -0.1025  0.1101
 1864POSM   AM221868  18.945  21.981  12.657 -0.1843 -0.1331  0.1064
 1864POSM   T1A21869  18.942  21.511  12.832 -0.1268  0.0704  0.2099
 1864POSM   C2A21870  18.804  21.534  13.292  0.0576 -0.2094 -0.0407
 1864POSM   C3A21871  18.698  21.582  13.708  0.1206  0.0182  0.1057
 1864POSM   C1B21872  19.201  22.076  12.580  0.1561 -0.1795  0.3715
 1864POSM   D2B21873  19.581  22.274  12.684  0.0816 -0.3177  0.0231
 1864POSM   C3B21874  19.700  22.496  13.061  0.0026  0.0953  0.1743
 1864POSM   C4B21875  19.717  22.940  13.203 -0.0104  0.1319  0.1376
 1865DOPE   NH321876  18.160  12.275  11.430 -0.2394 -0.1041 -0.4018
 1865DOPE   PO421877  18.104  12.108  11.677  0.0176 -0.0953  0.1104
 1865DOPE   GL121878  18.146  11.776  11.946 -0.1589  0.5662 -0.2203
 1865DOPE   GL221879  18.033  11.588  11.752 -0.0415  0.1552  0.0210
 1865DOPE   C1A21880  17.816  11.641  12.249 -0.0898  0.0930 -0.0061
 1865DOPE   D2A21881  17.663  11.410  12.651  0.2911  0.0348  0.2577
 1865DOPE   C3A21882  17.849  11.663  13.053  0.0214  0.0427  0.3132
 1865DOPE   C4A21883  17.903  11.728  13.478 -0.2553  0.1241 -0.1394
 1865DOPE   C1B21884  17.641  11.445  11.803 -0.2847  0.1026  0.0459
 1865DOPE   D2B21885  17.282  11.300  12.027 -0.0668 -0.1754 -0.1768
 1865DOPE   C3B21886  17.241  11.374  12.459  0.1001 -0.1127  0.1202
 1865DOPE   C4B21887  16.978  11.356  12.907 -0.2602  0.0369  0.2877
 1866DOPC   NC321888  20.565  16.603  11.605 -0.1364  0.1964  0.0199
 1866DOPC   PO421889  20.369  16.622  11.959  0.1424  0.1811 -0.1249
 1866DOPC   GL121890  20.262  16.276  11.874 -0.2621 -0.1409  0.3426
 1866DOPC   GL221891  20.286  16.148  12.166 -0.0298  0.1072  0.1187
 1866DOPC   C1A21892  20.195  15.828  11.702 -0.1922 -0.3354 -0.3198
 1866DOPC   D2A21893  20.070  15.388  11.826  0.0715  0.2406 -0.0381
 1866DOPC   C3A21894  20.110  15.085  11.533 -0.0202  0.2268  0.2384
 1866DOPC   C4A21895  20.211  14.646  11.514  0.0126 -0.1258  0.0207
 1866DOPC   C1B21896  20.326  16.376  12.552 -0.0050  0.1264 -0.1758
 1866DOPC   D2B21897  20.462  16.503  12.984  0.1986  0.1004  0.2702
 1866DOPC   C3B21898  20.735  16.169  13.006 -0.0431 -0.1771 -0.1788
 1866DOPC   C4B21899  20.691  15.738  13.104  0.3754  0.1098 -0.2989
 1867DOPE   NH321900  23.273  11.894  11.577 -0.0843  0.0268 -0.1156
 1867DOPE   PO421901  23.128  12.021  11.826  0.3489  0.3925 -0.0686
 1867DOPE   GL121902  23.119  11.869  12.228  0.1104  0.4801 -0.0311
 1867DOPE   GL221903  22.883  11.972  12.347  0.1049  0.1822  0.1108
 1867DOPE   C1A21904  23.271  11.907  12.679 -0.0024  0.0373 -0.0757
 1867DOPE   D2A21905  23.239  11.839  13.136  0.2358 -0.2035 -0.0790
 1867DOPE   C3A21906  23.362  12.153  13.460  0.1731 -0.1775  0.1795
 1867DOPE   C4A21907  23.024  12.463  13.561 -0.0417  0.3832 -0.1075
 1867DOPE   C1B21908  22.814  11.805  12.772  0.0422 -0.1789  0.1598
 1867DOPE   D2B21909  22.702  11.597  13.181  0.0444  0.0346 -0.2369
 1867DOPE   C3B21910  22.950  11.720  13.624  0.2490  0.0420  0.0161
 1867DOPE   C4B21911  23.268  11.555  13.871 -0.0422 -0.0763  0.3644
 1868POSM   NC321912  12.945  16.266  11.931 -0.2598 -0.0935  0.0707
 1868POSM   PO421913  12.912  15.969  12.150 -0.0492  0.2236  0.0113
 1868POSM   AM121914  12.930  16.122  12.457 -0.0004 -0.3279  0.0465
 1868POSM   AM221915  12.964  16.404  12.491 -0.3117  0.2363  0.1410
 1868POSM   T1A21916  12.773  16.099  12.932 -0.0665 -0.2189  0.3162
 1868POSM   C2A21917  12.565  16.247  13.320  0.3480  0.2838  0.0558
 1868POSM   C3A21918  12.276  16.628  13.315  0.0642  0.1806 -0.0818
 1868POSM   C1B21919  12.783  16.543  12.730  0.1778 -0.0554  0.2033
 1868POSM   D2B21920  12.765  16.701  13.182  0.3501 -0.2852  0.4370
 1868POSM   C3B21921  13.061  16.649  13.486  0.0265 -0.0291 -0.3407
 1868POSM   C4B21922  13.151  16.988  13.831  0.1009 -0.1536 -0.1853
 1869DOPC   NC321923  18.145  18.679  11.572 -0.0451  0.0692 -0.3900
 1869DOPC   PO421924  18.364  18.649  11.941  0.0961 -0.1855 -0.0990
 1869DOPC   GL121925  18.379  18.521  12.360  0.2062  0.0839  0.2389
 1869DOPC   GL221926  18.499  18.211  12.253 -0.2564 -0.0355 -0.0551
 1869DOPC   C1A21927  18.286  18.882  12.655 -0.2331  0.1202 -0.1857
 1869DOPC   D2A21928  17.978  19.215  12.695  0.1101 -0.0926 -0.3183
 1869DOPC   C3A21929  17.806  19.588  12.927  0.0194  0.0169  0.0671
 1869DOPC   C4A21930  17.661  19.992  12.782 -0.0812  0.1026 -0.1803
 1869DOPC   C1B21931  18.816  18.329  12.604  0.2846  0.0224  0.2251
 1869DOPC   D2B21932  18.781  18.081  12.999 -0.2986  0.3697 -0.1781
 1869DOPC   C3B21933  19.220  18.264  13.156  0.1632 -0.2782  0.1019
 1869DOPC   C4B21934  19.489  18.591  12.916 -0.3117 -0.0494 -0.0535
 1870POSM   NC321935  19.824  13.774  12.200  0.0014 -0.0440  0.3627
 1870POSM   PO421936  19.808  13.410  12.341 -0.2130 -0.0757  0.1476
 1870POSM   AM121937  19.801  13.198  12.586 -0.0721 -0.0469  0.2114
 1870POSM   AM221938  19.869  13.235  12.863 -0.0259 -0.2402 -0.0039
 1870POSM   T1A21939  19.746  12.727  12.850  0.1640 -0.0127  0.3906
 1870POSM   C2A21940  19.863  12.353  13.119 -0.2878  0.2276  0.0273
 1870POSM   C3A21941  20.145  12.034  13.108  0.0672  0.0023  0.1837
 1870POSM   C1B21942  19.679  13.492  12.954 -0.0935 -0.1542  0.1503
 1870POSM   D2B21943  19.385  13.721  13.226  0.0836 -0.0423 -0.1509
 1870POSM   C3B21944  19.116  13.729  13.550 -0.1304  0.2050  0.1562
 1870POSM   C4B21945  19.069  13.587  14.024 -0.0414 -0.1847  0.0696
 1871POSM   NC321946  11.965  19.011  11.784 -0.2380 -0.0709  0.1435
 1871POSM   PO421947  12.099  18.980  12.123 -0.0486 -0.1268  0.0362
 1871POSM   AM121948  12.172  18.739  12.356 -0.3501 -0.1390  0.1587
 1871POSM   AM221949  12.239  18.708  12.602  0.0404 -0.2073 -0.0397
 1871POSM   T1A21950  11.955  18.322  12.382  0.1507 -0.4112 -0.1114
 1871POSM   C2A21951  11.544  18.243  12.611 -0.1153 -0.1899  0.0933
 1871POSM   C3A21952  11.217  17.995  12.580 -0.0683  0.3621  0.1282
 1871POSM   C1B21953  12.101  18.881  12.794 -0.0995  0.1199 -0.0425
 1871POSM   D2B21954  11.901  19.174  13.091  0.3122 -0.1608  0.1019
 1871POSM   C3B21955  11.676  18.829  13.364 -0.1956  0.2800  0.4802
 1871POSM   C4B21956  11.305  18.795  13.632 -0.1487 -0.3134  0.0067
 1872DOPC   NC321957  17.446  13.544  11.699  0.1304 -0.1240  0.1711
 1872DOPC   PO421958  17.498  13.466  12.086 -0.0776 -0.0277  0.1310
 1872DOPC   GL121959  17.483  13.535  12.470 -0.2163  0.3432 -0.0743
 1872DOPC   GL221960  17.256  13.361  12.438 -0.0287 -0.1513  0.0097
 1872DOPC   C1A21961  17.162  13.753  12.712  0.2636  0.0027  0.1614
 1872DOPC   D2A21962  17.073  13.976  13.054  0.2192 -0.2569 -0.1055
 1872DOPC   C3A21963  16.611  13.934  13.008 -0.0958 -0.2036  0.2150
 1872DOPC   C4A21964  16.236  13.636  12.973 -0.0220 -0.0485  0.2880
 1872DOPC   C1B21965  17.107  13.017  12.691 -0.2521 -0.5049  0.2481
 1872DOPC   D2B21966  17.018  12.784  13.016  0.2655 -0.3548 -0.0676
 1872DOPC   C3B21967  17.321  12.753  13.339 -0.3437 -0.0656 -0.2089
 1872DOPC   C4B21968  17.474  12.826  13.748  0.0387  0.0409  0.0108
 1873DOPE   NH321969  14.249  12.446  11.411  0.3776 -0.4561 -0.0202
 1873DOPE   PO421970  14.479  12.403  11.592  0.1971 -0.0534  0.0385
 1873DOPE   GL121971  14.374  12.766  11.915  0.0921 -0.1059  0.0825
 1873DOPE   GL221972  14.283  13.016  11.797 -0.2165  0.2417  0.0685
 1873DOPE   C1A21973  14.595  13.138  12.181  0.2360  0.1065  0.1364
 1873DOPE   D2A21974  15.025  13.020  12.428  0.0164  0.1066 -0.3862
 1873DOPE   C3A21975  15.237  12.695  12.757 -0.1852 -0.2099 -0.1070
 1873DOPE   C4A21976  15.081  12.441  13.117  0.2541 -0.0051 -0.1179
 1873DOPE   C1B21977  14.379  13.450  11.858  0.2333  0.2090  0.2200
 1873DOPE   D2B21978  14.673  13.705  12.160 -0.1166  0.2063  0.1203
 1873DOPE   C3B21979  15.076  14.013  12.078  0.0774  0.1682  0.4819
 1873DOPE   C4B21980  15.332  14.388  11.877  0.1840  0.2312  0.0361
 1874POSM   NC321981  14.272  23.148  11.927 -0.0097  0.3393  0.1755
 1874POSM   PO421982  14.450  22.946  12.241  0.0846 -0.0806  0.2218
 1874POSM   AM121983  14.422  23.073  12.526  0.2453  0.4218  0.1331
 1874POSM   AM221984  14.252  23.118  12.763 -0.0539  0.2382 -0.0269
 1874POSM   T1A21985  14.673  23.293  12.901 -0.0144  0.0851 -0.3999
 1874POSM   C2A21986  14.815  23.295  13.343 -0.0721 -0.0656 -0.1635
 1874POSM   C3A21987  15.063  23.276  13.769  0.1316  0.3286 -0.0860
 1874POSM   C1B21988  14.114  22.845  12.868  0.1040 -0.1639  0.0440
 1874POSM   D2B21989  14.080  22.587  13.212 -0.0069 -0.2137 -0.0282
 1874POSM   C3B21990  13.920  22.627  13.617 -0.3592 -0.2547  0.1002
 1874POSM   C4B21991  13.834  22.449  14.037  0.0107  0.2444 -0.1451
 1875POSM   NC321992  16.339  14.217  11.623 -0.0557 -0.1360  0.2967
 1875POSM   PO421993  16.172  14.310  11.998  0.2179  0.3048  0.2556
 1875POSM   AM121994  15.948  14.183  12.207 -0.0581 -0.0392 -0.1501
 1875POSM   AM221995  15.757  13.969  12.147  0.1293  0.2239 -0.3494
 1875POSM   T1A21996  15.749  14.209  12.645  0.1886  0.0889  0.0854
 1875POSM   C2A21997  15.444  14.538  12.780  0.4498  0.0752  0.4249
 1875POSM   C3A21998  15.047  14.334  12.975 -0.0820  0.0789  0.0866
 1875POSM   C1B21999  15.532  13.939  12.337  0.0551  0.1701 -0.3058
 1875POSM   D2B22000  15.110  13.990  12.567  0.1649  0.3527  0.1100
 1875POSM   C3B22001  14.671  14.139  12.503 -0.2911 -0.0025  0.1259
 1875POSM   C4B22002  14.252  13.981  12.669 -0.0334  0.1236  0.2475
 1876DOPS   CNO22003  17.944  18.227  11.573  0.1384  0.1248 -0.1660
 1876DOPS   PO422004  17.851  17.897  11.690 -0.1767  0.0985  0.0686
 1876DOPS   GL122005  18.025  17.637  11.971 -0.3908 -0.0130  0.0263
 1876DOPS   GL222006  18.281  17.542  11.858  0.3302 -0.0262  0.2097
 1876DOPS   C1A22007  18.332  17.711  12.326  0.2295 -0.1257  0.0446
 1876DOPS   D2A22008  18.381  17.948  12.748  0.2116 -0.0511 -0.0707
 1876DOPS   C3A22009  18.301  18.385  12.828 -0.0119 -0.2800  0.2306
 1876DOPS   C4A22010  18.241  18.695  13.119 -0.2871  0.4781  0.0752
 1876DOPS   C1B22011  18.096  17.173  11.936  0.0985  0.2871 -0.0626
 1876DOPS   D2B22012  17.783  16.938  12.200 -0.0674  0.1430 -0.3346
 1876DOPS   C3B22013  17.351  16.861  12.109  0.1504 -0.1487  0.3354
 1876DOPS   C4B22014  16.961  16.933  12.287  0.3588  0.2469 -0.3337
 1877DOPC   NC322015  14.912  21.580  11.766  0.1867 -0.0114 -0.1916
 1877DOPC   PO422016  15.142  21.374  12.029 -0.3187  0.0915 -0.1483
 1877DOPC   GL122017  14.863  21.169  12.124 -0.2086 -0.4086  0.1066
 1877DOPC   GL222018  14.932  20.893  12.341 -0.1441 -0.1832  0.2774
 1877DOPC   C1A22019  14.464  21.332  12.021  0.3913 -0.1333  0.1651
 1877DOPC   D2A22020  14.068  21.314  12.212  0.0905 -0.2222  0.1618
 1877DOPC   C3A22021  13.914  21.094  12.607 -0.2778  0.0035 -0.2274
 1877DOPC   C4A22022  13.879  20.802  12.912 -0.0368  0.2123 -0.1024
 1877DOPC   C1B22023  14.437  20.911  12.326  0.1983 -0.2353 -0.0023
 1877DOPC   D2B22024  14.071  20.701  12.355 -0.1909  0.0115  0.1921
 1877DOPC   C3B22025  13.592  20.760  12.472 -0.0634  0.0462  0.5263
 1877DOPC   C4B22026  13.409  21.196  12.697 -0.0493 -0.0934  0.0225
 1878POSM   NC322027  11.496  16.338  12.282 -0.0751  0.0012  0.2827
 1878POSM   PO422028  11.342  16.659  12.468 -0.4087 -0.0475 -0.0380
 1878POSM   AM122029  11.394  16.853  12.750 -0.0045 -0.1553  0.0090
 1878POSM   AM222030  11.417  16.881  13.045  0.0294  0.0674 -0.0166
 1878POSM   T1A22031  11.507  17.348  12.816  0.0112 -0.0986  0.3558
 1878POSM   C2A22032  11.563  17.631  12.482  0.1777 -0.2584 -0.3625
 1878POSM   C3A22033  11.680  17.925  12.127 -0.1363  0.0949  0.0970
 1878POSM   C1B22034  11.405  16.954  13.394  0.1187  0.2101 -0.3899
 1878POSM   D2B22035  11.411  17.025  13.807 -0.4118  0.1802 -0.1818
 1878POSM   C3B22036  11.082  16.783  14.047 -0.0282  0.0060  0.0903
 1878POSM   C4B22037  10.691  16.927  14.166  0.1061  0.2992  0.1026
 1879DOPE   NH322038  16.850  14.894  11.864  0.3675  0.0094 -0.0042
 1879DOPE   PO422039  17.112  14.775  11.695  0.0915 -0.3525  0.4725
 1879DOPE   GL122040  17.213  14.776  12.133  0.2764  0.1234  0.0285
 1879DOPE   GL222041  17.055  14.639  12.342 -0.1448 -0.5075  0.5847
 1879DOPE   C1A22042  17.517  14.992  12.412  0.0902 -0.1138 -0.0362
 1879DOPE   D2A22043  17.429  15.310  12.688  0.0143  0.0059 -0.0283
 1879DOPE   C3A22044  17.685  15.387  13.075  0.0400  0.3061 -0.1390
 1879DOPE   C4A22045  17.743  15.570  13.524 -0.2532 -0.1680 -0.0464
 1879DOPE   C1B22046  17.038  14.887  12.697 -0.2260  0.0725  0.0497
 1879DOPE   D2B22047  16.929  15.265  12.943  0.3315  0.1389 -0.0671
 1879DOPE   C3B22048  16.888  15.043  13.348 -0.1549 -0.1004 -0.2497
 1879DOPE   C4B22049  17.021  14.724  13.624  0.0638  0.3919 -0.0712
 1880POSM   NC322050  11.778  19.151  12.468 -0.3410 -0.1649 -0.1632
 1880POSM   PO422051  11.636  19.274  12.100  0.3287 -0.2384 -0.1826
 1880POSM   AM122052  11.586  19.538  12.297  0.0759  0.1970 -0.3947
 1880POSM   AM222053  11.555  19.828  12.341 -0.1959  0.1434  0.1318
 1880POSM   T1A22054  11.794  19.596  12.764  0.2423  0.2760 -0.0421
 1880POSM   C2A22055  11.759  19.625  13.226  0.1324  0.1730  0.3093
 1880POSM   C3A22056  11.765  20.003  13.517  0.3566  0.1827 -0.0057
 1880POSM   C1B22057  11.390  19.843  12.620 -0.0112  0.1478  0.1188
 1880POSM   D2B22058  11.178  20.059  12.998 -0.1247  0.0016 -0.2355
 1880POSM   C3B22059  10.895  19.818  13.203 -0.0948  0.1898 -0.0428
 1880POSM   C4B22060  10.839  19.662  13.619  0.1026 -0.2725 -0.0954
 1881POSM   NC322061  13.004  18.399  11.740 -0.1637 -0.1532  0.2726
 1881POSM   PO422062  13.354  18.296  11.671 -0.2274 -0.1995  0.0210
 1881POSM   AM122063  13.589  18.472  11.748  0.2903 -0.3115 -0.0548
 1881POSM   AM222064  13.630  18.759  11.738 -0.1480 -0.1176 -0.0293
 1881POSM   T1A22065  14.116  18.478  11.779 -0.3183 -0.0618  0.1459
 1881POSM   C2A22066  14.514  18.554  12.026 -0.3646 -0.1116  0.3423
 1881POSM   C3A22067  14.701  18.787  12.316 -0.4055 -0.0988  0.0461
 1881POSM   C1B22068  13.843  18.797  12.003  0.3825 -0.2504  0.1798
 1881POSM   D2B22069  14.054  19.107  12.238 -0.0238 -0.0742 -0.3565
 1881POSM   C3B22070  14.451  19.177  12.029  0.0186 -0.0023 -0.0584
 1881POSM   C4B22071  14.762  19.534  11.902 -0.3306 -0.2155  0.0271
 1882POSM   NC322072  12.652  18.328  12.070 -0.2839 -0.0078 -0.0797
 1882POSM   PO422073  12.996  18.394  12.241  0.1271  0.0940  0.1060
 1882POSM   AM122074  13.116  18.632  12.493 -0.3844 -0.0511  0.6334
 1882POSM   AM222075  13.062  18.847  12.659  0.1793 -0.2606 -0.1106
 1882POSM   T1A22076  13.456  18.587  12.875 -0.1076 -0.0547 -0.1456
 1882POSM   C2A22077  13.605  18.668  13.285 -0.0253  0.0834 -0.0154
 1882POSM   C3A22078  13.623  18.387  13.664  0.1481  0.1413  0.1362
 1882POSM   C1B22079  13.179  18.965  12.899 -0.0295 -0.1240  0.0081
 1882POSM   D2B22080  13.301  19.173  13.318  0.1665  0.1996  0.4025
 1882POSM   C3B22081  13.575  19.522  13.454  0.0822 -0.2837  0.2966
 1882POSM   C4B22082  13.976  19.577  13.259  0.2402 -0.1591  0.2308
 1883DOPS   CNO22083  20.736  16.962  11.246 -0.0190 -0.1144 -0.1343
 1883DOPS   PO422084  21.019  16.865  11.456 -0.1888 -0.1834 -0.1008
 1883DOPS   GL122085  21.065  16.519  11.642  0.1167 -0.4830  0.0164
 1883DOPS   GL222086  21.231  16.473  11.870 -0.0237 -0.0985 -0.0481
 1883DOPS   C1A22087  20.873  16.113  11.662 -0.0498 -0.1327  0.1810
 1883DOPS   D2A22088  20.676  15.682  11.603  0.0782  0.0957 -0.0970
 1883DOPS   C3A22089  20.505  15.581  12.039 -0.0342 -0.0364  0.2212
 1883DOPS   C4A22090  20.177  15.423  12.330  0.0209  0.0743 -0.0104
 1883DOPS   C1B22091  21.356  16.453  12.326  0.2806 -0.0096  0.2830
 1883DOPS   D2B22092  21.164  16.336  12.763 -0.0299  0.0245 -0.5515
 1883DOPS   C3B22093  21.104  16.611  13.130  0.1741  0.4341  0.0016
 1883DOPS   C4B22094  20.829  16.914  13.122  0.0185  0.0810 -0.2275
 1884POSM   NC322095  18.749  11.939  11.645 -0.1807  0.1915  0.0353
 1884POSM   PO422096  18.598  12.288  11.729  0.1669  0.0963 -0.0949
 1884POSM   AM122097  18.576  12.449  12.015 -0.1270  0.1407  0.0126
 1884POSM   AM222098  18.407  12.396  12.221 -0.0096  0.1130  0.3746
 1884POSM   T1A22099  18.657  12.868  12.262  0.1641  0.3853 -0.1256
 1884POSM   C2A22100  18.621  13.199  12.637 -0.1739  0.1105  0.0235
 1884POSM   C3A22101  18.403  13.535  12.873 -0.2937  0.2792  0.2937
 1884POSM   C1B22102  18.357  12.333  12.517 -0.0356 -0.0490  0.1039
 1884POSM   D2B22103  18.456  12.316  13.002  0.2676  0.1959 -0.2051
 1884POSM   C3B22104  18.382  12.606  13.347  0.1646  0.1046  0.1520
 1884POSM   C4B22105  17.932  12.725  13.559  0.0789  0.1565  0.1021
 1885DOPE   NH322106  22.618  15.076  11.753  0.0920 -0.2508  0.1687
 1885DOPE   PO422107  22.655  14.779  11.864  0.1009 -0.0361 -0.0703
 1885DOPE   GL122108  22.384  14.834  12.226 -0.0430 -0.1200  0.0017
 1885DOPE   GL222109  22.114  14.932  12.118 -0.2160  0.1072  0.1251
 1885DOPE   C1A22110  22.090  14.819  12.595 -0.0507 -0.4313 -0.0207
 1885DOPE   D2A22111  21.926  14.902  13.046  0.0257  0.6661 -0.3224
 1885DOPE   C3A22112  22.275  14.743  13.342 -0.0741  0.3607 -0.0503
 1885DOPE   C4A22113  22.618  14.766  13.671  0.0465 -0.1588 -0.1595
 1885DOPE   C1B22114  21.681  15.030  12.031 -0.1931 -0.1647  0.2032
 1885DOPE   D2B22115  21.235  15.152  12.096  0.0933 -0.2211 -0.3586
 1885DOPE   C3B22116  21.219  15.557  12.362  0.0399 -0.0190 -0.1686
 1885DOPE   C4B22117  21.445  15.864  12.644  0.2262  0.2849 -0.3342
 1886DOPE   NH322118  22.630  22.173  11.819 -0.1218  0.0543 -0.2338
 1886DOPE   PO422119  22.482  22.078  12.112  0.0106  0.0061  0.2932
 1886DOPE   GL122120  22.418  22.066  12.495  0.1549  0.0835 -0.0068
 1886DOPE   GL222121  22.658  21.974  12.577 -0.1504 -0.0245  0.1306
 1886DOPE   C1A22122  22.246  22.338  12.845  0.0951  0.1315  0.0822
 1886DOPE   D2A22123  22.450  22.387  13.259  0.2441 -0.0367 -0.1022
 1886DOPE   C3A22124  22.323  22.269  13.720  0.1360 -0.2868  0.1630
 1886DOPE   C4A22125  22.395  22.040  14.115  0.3666  0.1454 -0.0953
 1886DOPE   C1B22126  22.402  21.885  12.972  0.1657  0.2279 -0.2832
 1886DOPE   D2B22127  22.121  21.695  13.299 -0.2676 -0.2695  0.0961
 1886DOPE   C3B22128  22.345  21.641  13.699  0.2087  0.1212 -0.0726
 1886DOPE   C4B22129  22.834  21.496  13.722 -0.0836  0.1263  0.0688
 1887DOPE   NH322130  16.935  19.607  12.277 -0.1843  0.1667  0.2459
 1887DOPE   PO422131  16.734  19.820  12.107  0.0336  0.0049  0.2444
 1887DOPE   GL122132  16.406  19.760  12.378  0.0769  0.3040  0.1379
 1887DOPE   GL222133  16.140  19.642  12.352  0.2330  0.0163  0.3529
 1887DOPE   C1A22134  16.256  19.902  12.800 -0.0671  0.2320  0.2471
 1887DOPE   D2A22135  16.207  19.884  13.311 -0.0441  0.0169  0.0719
 1887DOPE   C3A22136  16.505  19.649  13.549  0.0972  0.1935  0.0604
 1887DOPE   C4A22137  16.679  19.401  13.885  0.0066  0.1676  0.1047
 1887DOPE   C1B22138  16.483  19.462  12.688  0.0714  0.0971  0.0895
 1887DOPE   D2B22139  16.837  19.345  12.927  0.0245  0.1510 -0.0029
 1887DOPE   C3B22140  16.979  18.910  13.055  0.3047  0.1086 -0.0940
 1887DOPE   C4B22141  17.293  18.611  13.165  0.2838  0.0571  0.1579
 1888DOPE   NH322142  12.123  14.880  12.107 -0.0681 -0.0763 -0.2484
 1888DOPE   PO422143  12.094  14.684  11.858  0.0865 -0.1468 -0.2750
 1888DOPE   GL122144  12.305  14.410  11.983 -0.1701 -0.0020 -0.0727
 1888DOPE   GL222145  12.289  14.200  11.772  0.0041  0.1052 -0.0008
 1888DOPE   C1A22146  12.733  14.139  12.039  0.1212 -0.3641 -0.3862
 1888DOPE   D2A22147  13.163  14.174  12.242  0.3418 -0.1989  0.1263
 1888DOPE   C3A22148  13.119  13.954  12.708  0.1556 -0.1780  0.0605
 1888DOPE   C4A22149  12.983  13.544  12.886 -0.0906  0.0657  0.3521
 1888DOPE   C1B22150  12.196  13.944  12.141  0.0447  0.1683  0.1322
 1888DOPE   D2B22151  12.033  13.846  12.551  0.0064 -0.1367 -0.0098
 1888DOPE   C3B22152  11.717  13.639  12.813  0.3619  0.6636 -0.0099
 1888DOPE   C4B22153  11.408  13.255  12.890  0.2700  0.0364 -0.0577
 1889POSM   NC322154  12.643  14.610  11.675  0.2258  0.1729  0.2250
 1889POSM   PO422155  12.582  15.014  11.803  0.2345  0.0041 -0.0027
 1889POSM   AM122156  12.596  14.853  12.066  0.2419  0.3933  0.0758
 1889POSM   AM222157  12.592  15.008  12.340 -0.0464  0.0350 -0.2037
 1889POSM   T1A22158  12.544  14.448  12.358 -0.1371  0.2141 -0.0359
 1889POSM   C2A22159  12.685  13.993  12.472 -0.0772 -0.0293 -0.1508
 1889POSM   C3A22160  12.851  13.608  12.368 -0.1343 -0.2534 -0.1590
 1889POSM   C1B22161  12.452  14.870  12.605 -0.0071 -0.3160  0.2618
 1889POSM   D2B22162  12.361  14.514  12.847  0.1593  0.2911 -0.0781
 1889POSM   C3B22163  12.389  14.056  12.843 -0.2037 -0.1161  0.0312
 1889POSM   C4B22164  12.370  13.628  12.830  0.3316 -0.0502 -0.2545
 1890DOPC   NC322165  22.485  21.674  11.904 -0.5161 -0.0261  0.0471
 1890DOPC   PO422166  22.682  21.684  11.548  0.1011  0.3311 -0.3632
 1890DOPC   GL122167  22.502  21.226  11.678 -0.1404 -0.4692 -0.1708
 1890DOPC   GL222168  22.514  21.128  11.948 -0.0715 -0.4945 -0.2954
 1890DOPC   C1A22169  22.603  20.786  11.565  0.2152  0.2208 -0.0509
 1890DOPC   D2A22170  22.868  20.377  11.550  0.1067 -0.0117 -0.0976
 1890DOPC   C3A22171  22.997  20.347  12.032  0.3858 -0.2810  0.0229
 1890DOPC   C4A22172  23.171  20.126  12.447 -0.2859  0.1282 -0.0908
 1890DOPC   C1B22173  22.624  21.065  12.409 -0.3397  0.1704 -0.1012
 1890DOPC   D2B22174  22.283  20.975  12.761 -0.2903  0.0048 -0.0762
 1890DOPC   C3B22175  21.815  21.073  12.833  0.2086 -0.4185  0.0257
 1890DOPC   C4B22176  21.378  21.045  12.778 -0.0710  0.3194  0.2678
 1891DOPC   NC322177  17.918  21.923  11.895 -0.0413  0.2643  0.2075
 1891DOPC   PO422178  17.735  22.246  12.026 -0.0299  0.0544  0.0261
 1891DOPC   GL122179  17.952  22.297  12.284 -0.0320 -0.2750  0.0940
 1891DOPC   GL222180  18.189  22.205  12.214  0.1147  0.0148  0.1825
 1891DOPC   C1A22181  18.060  22.144  12.680  0.1212 -0.2160 -0.1063
 1891DOPC   D2A22182  17.745  22.041  13.051 -0.2123 -0.1220  0.3059
 1891DOPC   C3A22183  17.761  21.987  13.514 -0.1971 -0.1035 -0.0382
 1891DOPC   C4A22184  17.804  21.812  14.022  0.2370  0.2682 -0.1083
 1891DOPC   C1B22185  18.105  21.773  12.346 -0.1258 -0.0084  0.3926
 1891DOPC   D2B22186  17.999  21.384  12.136 -0.3542 -0.1690 -0.0220
 1891DOPC   C3B22187  18.338  21.085  12.090 -0.0148 -0.1198  0.0417
 1891DOPC   C4B22188  18.683  21.186  12.428  0.0076  0.1899  0.2064
 1892POSM   NC322189  13.714  17.765  11.964 -0.0963  0.1039  0.1893
 1892POSM   PO422190  13.545  17.474  12.141  0.1080 -0.2831 -0.0015
 1892POSM   AM122191  13.298  17.433  12.319 -0.1040 -0.1184  0.0991
 1892POSM   AM222192  13.221  17.429  12.604  0.1114 -0.1071  0.0408
 1892POSM   T1A22193  12.816  17.286  12.420 -0.1294  0.0294  0.2646
 1892POSM   C2A22194  12.727  17.013  12.808  0.1838  0.0287  0.0833
 1892POSM   C3A22195  12.335  16.862  12.851 -0.2642 -0.0025  0.0600
 1892POSM   C1B22196  13.095  17.453  12.886  0.2251 -0.1032  0.1061
 1892POSM   D2B22197  12.946  17.248  13.301 -0.0196 -0.1144  0.0281
 1892POSM   C3B22198  12.848  17.475  13.694 -0.1055 -0.1411  0.0744
 1892POSM   C4B22199  12.689  17.229  14.091  0.1204  0.3800  0.0333
 1893POSM   NC322200  20.505  17.604  11.317 -0.0666 -0.1080  0.1657
 1893POSM   PO422201  20.788  17.531  11.585 -0.0351  0.4251  0.0386
 1893POSM   AM122202  20.627  17.539  11.882 -0.2817 -0.0952  0.0410
 1893POSM   AM222203  20.754  17.664  12.114 -0.2959  0.1437  0.4317
 1893POSM   T1A22204  20.659  17.290  12.342  0.1906  0.1868  0.4631
 1893POSM   C2A22205  20.946  17.106  12.608  0.1244  0.0242 -0.0581
 1893POSM   C3A22206  21.349  16.880  12.630  0.2986 -0.0658 -0.0158
 1893POSM   C1B22207  20.611  17.962  12.200 -0.1745 -0.0867  0.2355
 1893POSM   D2B22208  20.442  18.366  12.369  0.0091  0.1435 -0.0645
 1893POSM   C3B22209  20.011  18.361  12.280  0.1408  0.1148  0.1508
 1893POSM   C4B22210  19.584  18.222  12.343 -0.2300 -0.0812  0.3638
 1894DOPS   CNO22211  19.695  13.626  11.673 -0.1905  0.0331 -0.2094
 1894DOPS   PO422212  19.850  13.917  11.496 -0.1189 -0.1911  0.2204
 1894DOPS   GL122213  20.078  13.996  11.894 -0.4023 -0.0110  0.2521
 1894DOPS   GL222214  20.204  14.176  11.748 -0.0039 -0.0884  0.0446
 1894DOPS   C1A22215  20.160  14.088  12.334  0.3963 -0.0061  0.1731
 1894DOPS   D2A22216  20.303  14.250  12.729 -0.2538 -0.0240 -0.3024
 1894DOPS   C3A22217  20.079  14.105  13.142  0.1816 -0.1818  0.1218
 1894DOPS   C4A22218  19.874  13.746  13.334  0.0718 -0.0495  0.1996
 1894DOPS   C1B22219  20.494  14.432  12.055  0.0316  0.2524  0.1180
 1894DOPS   D2B22220  20.924  14.558  12.160  0.1954 -0.1793  0.1343
 1894DOPS   C3B22221  21.255  14.245  12.374 -0.0671 -0.0334  0.3781
 1894DOPS   C4B22222  21.536  13.933  12.247  0.0149 -0.0068 -0.2147
 1895DOPE   NH322223  18.696  19.438  11.698  0.2096 -0.5874 -0.1098
 1895DOPE   PO422224  18.818  19.412  11.385  0.3877  0.1219 -0.1598
 1895DOPE   GL122225  19.134  19.590  11.612  0.2037  0.2105 -0.1397
 1895DOPE   GL222226  19.275  19.726  11.379  0.1682 -0.3333 -0.1751
 1895DOPE   C1A22227  19.259  19.594  12.073 -0.0789  0.1466 -0.1115
 1895DOPE   D2A22228  19.490  19.358  12.383  0.0389 -0.0620  0.1563
 1895DOPE   C3A22229  19.875  19.375  12.639 -0.0895  0.0479  0.0603
 1895DOPE   C4A22230  20.285  19.145  12.550  0.0261 -0.0020 -0.1810
 1895DOPE   C1B22231  19.582  20.062  11.357 -0.2463 -0.3127  0.0266
 1895DOPE   D2B22232  19.810  20.410  11.583  0.1550 -0.3046 -0.1862
 1895DOPE   C3B22233  20.269  20.292  11.722  0.1469 -0.0226  0.0795
 1895DOPE   C4B22234  20.622  20.487  11.856 -0.2061 -0.1042  0.0098
 1896DOPC   NC322235  18.868  17.091  11.366 -0.0701 -0.0811  0.0215
 1896DOPC   PO422236  18.485  17.010  11.465  0.1671 -0.1436  0.0789
 1896DOPC   GL122237  18.443  16.642  11.627 -0.1069  0.1967 -0.1325
 1896DOPC   GL222238  18.383  16.665  11.932  0.0399 -0.3354  0.0052
 1896DOPC   C1A22239  18.741  16.273  11.777  0.2480 -0.0159 -0.4526
 1896DOPC   D2A22240  18.653  15.954  12.102 -0.1853  0.2450  0.1741
 1896DOPC   C3A22241  18.863  15.759  12.432  0.0854  0.2199  0.0077
 1896DOPC   C4A22242  18.826  15.277  12.673  0.1790 -0.1627 -0.0474
 1896DOPC   C1B22243  18.268  16.198  11.949  0.2093  0.1044  0.0917
 1896DOPC   D2B22244  18.064  15.851  12.044  0.0468 -0.3846  0.1085
 1896DOPC   C3B22245  18.013  15.983  12.496 -0.0862  0.0632 -0.0032
 1896DOPC   C4B22246  18.126  16.262  12.847 -0.1355  0.1477 -0.0522
 1897DOPC   NC322247  16.447  20.572  11.576 -0.2946 -0.1179 -0.1628
 1897DOPC   PO422248  16.627  20.342  11.835  0.0372 -0.0773  0.0703
 1897DOPC   GL122249  16.649  20.365  12.249  0.2900  0.3674 -0.4889
 1897DOPC   GL222250  16.842  20.221  12.393  0.6185  0.4126  0.2794
 1897DOPC   C1A22251  16.402  20.328  12.652  0.2665 -0.0149 -0.0663
 1897DOPC   D2A22252  16.501  20.323  13.071 -0.1430  0.2966 -0.1283
 1897DOPC   C3A22253  16.614  20.638  13.407  0.0195  0.0202 -0.0553
 1897DOPC   C4A22254  16.734  20.662  13.893  0.5438  0.2495 -0.1063
 1897DOPC   C1B22255  16.822  20.036  12.763 -0.1397  0.2966  0.1419
 1897DOPC   D2B22256  16.717  19.832  13.147 -0.2104  0.0517  0.0127
 1897DOPC   C3B22257  17.035  19.533  13.376  0.0103 -0.0711 -0.0622
 1897DOPC   C4B22258  17.226  19.111  13.538 -0.1330  0.1382 -0.0591
 1898DOPC   NC322259  16.505  21.929  12.019  0.2634  0.1157 -0.0102
 1898DOPC   PO422260  16.157  21.841  11.890  0.2663 -0.3625 -0.0035
 1898DOPC   GL122261  16.093  21.837  12.326  0.0145 -0.3285 -0.4668
 1898DOPC   GL222262  15.843  21.906  12.419 -0.4710  0.1991  0.2685
 1898DOPC   C1A22263  16.462  21.649  12.565 -0.0598  0.0967  0.0628
 1898DOPC   D2A22264  16.935  21.666  12.533 -0.0978  0.0965  0.0048
 1898DOPC   C3A22265  17.276  21.511  12.848 -0.0964 -0.0946 -0.0523
 1898DOPC   C4A22266  17.550  21.614  13.182  0.1813 -0.1493  0.3156
 1898DOPC   C1B22267  15.968  21.980  12.861  0.0102  0.0991 -0.0073
 1898DOPC   D2B22268  16.384  21.855  13.060  0.0905  0.1883  0.0515
 1898DOPC   C3B22269  16.619  22.106  13.415  0.0596 -0.0977  0.0460
 1898DOPC   C4B22270  16.823  22.500  13.513  0.1134 -0.2400  0.2339
 1899DOPE   NH322271  19.817  12.665  11.782 -0.1261  0.0070  0.0059
 1899DOPE   PO422272  19.513  12.635  11.900  0.1820  0.2061 -0.2194
 1899DOPE   GL122273  19.477  12.637  12.339 -0.0212 -0.1380  0.1852
 1899DOPE   GL222274  19.384  12.947  12.247  0.1049  0.0903 -0.1610
 1899DOPE   C1A22275  19.463  12.321  12.674 -0.1027  0.1423 -0.0851
 1899DOPE   D2A22276  19.294  12.059  12.980 -0.2782 -0.2898  0.2594
 1899DOPE   C3A22277  18.817  11.931  13.039  0.2155  0.0276  0.2970
 1899DOPE   C4A22278  18.398  11.683  13.018  0.0456 -0.0561  0.2688
 1899DOPE   C1B22279  19.293  13.027  12.682  0.0999 -0.1278 -0.0542
 1899DOPE   D2B22280  19.417  13.036  13.124  0.0661  0.2894  0.1316
 1899DOPE   C3B22281  19.823  12.861  13.349 -0.0775 -0.1432  0.1274
 1899DOPE   C4B22282  20.157  12.849  13.732  0.0673  0.1359 -0.3486
 1900DOPC   NC322283  22.819  17.883  11.417 -0.1964  0.1565 -0.1818
 1900DOPC   PO422284  22.716  18.209  11.588 -0.3376  0.2454 -0.2187
 1900DOPC   GL122285  22.432  18.369  11.802 -0.1160  0.3984  0.6438
 1900DOPC   GL222286  22.151  18.198  11.754 -0.2555 -0.2801  0.3873
 1900DOPC   C1A22287  22.400  18.479  12.223  0.2564  0.1669 -0.2241
 1900DOPC   D2A22288  21.949  18.450  12.516  0.0302 -0.2693 -0.0164
 1900DOPC   C3A22289  21.505  18.576  12.386  0.3566 -0.1477 -0.2987
 1900DOPC   C4A22290  21.277  18.943  12.475 -0.0078 -0.0550 -0.0294
 1900DOPC   C1B22291  21.862  18.497  11.912  0.0272  0.1318  0.1109
 1900DOPC   D2B22292  21.819  18.985  11.949 -0.0389 -0.0122 -0.0050
 1900DOPC   C3B22293  22.214  18.995  12.170 -0.0182 -0.0677  0.2757
 1900DOPC   C4B22294  22.605  19.023  12.321  0.1121 -0.2551 -0.0942
 1901POSM   NC322295  13.864  15.710  12.778 -0.2445  0.0874 -0.1116
 1901POSM   PO422296  13.682  15.729  12.416  0.1522  0.1413  0.3406
 1901POSM   AM122297  13.950  15.582  12.329 -0.1789  0.1825 -0.2054
 1901POSM   AM222298  14.228  15.642  12.373 -0.0932  0.3852 -0.0637
 1901POSM   T1A22299  14.245  15.175  12.359 -0.0414 -0.1178 -0.0356
 1901POSM   C2A22300  14.625  15.122  12.216  0.0349 -0.1278 -0.0458
 1901POSM   C3A22301  14.997  15.372  12.146  0.3172 -0.0498  0.1577
 1901POSM   C1B22302  14.512  15.577  12.516 -0.0632  0.1615  0.1186
 1901POSM   D2B22303  14.732  15.215  12.732 -0.0965  0.2285 -0.2254
 1901POSM   C3B22304  14.756  15.363  13.140  0.3261  0.1165 -0.0070
 1901POSM   C4B22305  14.440  15.592  13.320 -0.1063 -0.2442 -0.0934
 1902DOPS   CNO22306  13.820  11.837  11.960 -0.2314 -0.0706  0.1352
 1902DOPS   PO422307  13.740  11.691  11.607  0.0360 -0.0570 -0.0274
 1902DOPS   GL122308  13.858  11.262  11.718  0.0213  0.0074 -0.0650
 1902DOPS   GL222309  13.987  11.337  11.939  0.1593  0.2707 -0.1929
 1902DOPS   C1A22310  13.776  10.902  12.022 -0.0628  0.3615 -0.0216
 1902DOPS   D2A22311  13.877  10.437  12.186 -0.1160 -0.0404  0.2306
 1902DOPS   C3A22312  14.011  10.008  12.012 -0.1118  0.0285 -0.0311
 1902DOPS   C4A22313  14.326   9.691  12.000 -0.3025 -0.1682  0.2877
 1902DOPS   C1B22314  14.219  11.066  12.256 -0.0160  0.2606  0.1838
 1902DOPS   D2B22315  14.369  10.657  12.425  0.0257 -0.2463  0.1708
 1902DOPS   C3B22316  14.171  10.518  12.808 -0.2589 -0.0826  0.0284
 1902DOPS   C4B22317  13.941  10.230  13.036 -0.0119 -0.1293 -0.3470
 1903DOPE   NH322318  13.194  17.751  11.930  0.3098 -0.0665  0.0525
 1903DOPE   PO422319  12.972  17.847  12.143 -0.1766  0.2923  0.1328
 1903DOPE   GL122320  12.903  17.788  12.480  0.0218  0.2177 -0.1168
 1903DOPE   GL222321  13.022  18.071  12.666  0.1249  0.0234  0.0892
 1903DOPE   C1A22322  12.664  17.654  12.879 -0.2124  0.2051  0.2355
 1903DOPE   D2A22323  12.269  17.390  12.868  0.2405 -0.0990  0.3747
 1903DOPE   C3A22324  12.425  17.176  13.236  0.0834 -0.2100  0.0411
 1903DOPE   C4A22325  12.612  16.927  13.628 -0.2504 -0.0385 -0.0834
 1903DOPE   C1B22326  12.953  18.467  12.917 -0.1029  0.0846  0.3472
 1903DOPE   D2B22327  12.715  18.596  13.352 -0.0800 -0.1227 -0.2767
 1903DOPE   C3B22328  12.735  19.033  13.359 -0.2650  0.1071 -0.2033
 1903DOPE   C4B22329  12.750  19.299  13.759 -0.1880 -0.1035  0.1379
 1904POSM   NC322330  11.587  14.590  11.725 -0.0048  0.2713 -0.0689
 1904POSM   PO422331  11.556  14.453  12.142  0.2149  0.0831  0.2655
 1904POSM   AM122332  11.813  14.576  12.260 -0.4637 -0.0448  0.3285
 1904POSM   AM222333  12.042  14.411  12.319 -0.1452  0.0729  0.1951
 1904POSM   T1A22334  11.874  14.887  12.623 -0.0804 -0.0823 -0.0558
 1904POSM   C2A22335  11.957  14.780  13.062  0.0210 -0.0538 -0.0913
 1904POSM   C3A22336  12.117  14.684  13.475  0.3827  0.1309 -0.1726
 1904POSM   C1B22337  11.846  14.276  12.646 -0.0859  0.0154  0.0274
 1904POSM   D2B22338  11.968  14.270  13.089  0.1411 -0.3509  0.0959
 1904POSM   C3B22339  12.042  13.841  13.137 -0.1532 -0.1803  0.1747
 1904POSM   C4B22340  11.952  13.411  13.321  0.1195  0.1926  0.2268
 1905DOPC   NC322341  17.153  15.293  11.635  0.0052 -0.1591 -0.0430
 1905DOPC   PO422342  17.179  15.312  12.017 -0.1640 -0.0927  0.1067
 1905DOPC   GL122343  17.008  15.666  12.031 -0.1459  0.0911 -0.0648
 1905DOPC   GL222344  17.099  15.799  11.771  0.2466 -0.2314 -0.3848
 1905DOPC   C1A22345  17.136  16.077  12.184 -0.1152  0.0637 -0.0439
 1905DOPC   D2A22346  16.759  16.328  12.343  0.0613 -0.1408  0.0183
 1905DOPC   C3A22347  16.541  16.664  12.561  0.0673  0.2608  0.1430
 1905DOPC   C4A22348  16.418  17.128  12.464  0.2010 -0.0209  0.1965
 1905DOPC   C1B22349  16.784  16.086  11.813 -0.1587 -0.1805  0.1927
 1905DOPC   D2B22350  16.983  16.507  11.947 -0.1253  0.0052 -0.0234
 1905DOPC   C3B22351  17.350  16.481  11.646 -0.2839  0.1307 -0.3750
 1905DOPC   C4B22352  17.698  16.598  11.354 -0.1378  0.2767  0.4268
 1906DOPS   CNO22353  14.050  11.967  11.293  0.0343  0.0481 -0.4190
 1906DOPS   PO422354  14.218  11.934  11.615  0.1628  0.0308 -0.2327
 1906DOPS   GL122355  14.157  12.148  11.961 -0.1339 -0.1857 -0.1004
 1906DOPS   GL222356  14.272  12.352  12.069 -0.1315  0.1343 -0.1181
 1906DOPS   C1A22357  14.006  12.174  12.419  0.1908 -0.0995 -0.3047
 1906DOPS   D2A22358  14.127  12.275  12.852  0.0895  0.0898 -0.1213
 1906DOPS   C3A22359  14.080  12.711  12.747  0.0897 -0.0027  0.2773
 1906DOPS   C4A22360  14.382  13.054  12.630  0.0142 -0.1671  0.0660
 1906DOPS   C1B22361  14.479  12.150  12.373 -0.0440 -0.3115  0.1263
 1906DOPS   D2B22362  14.528  11.909  12.769 -0.2018  0.3900  0.1367
 1906DOPS   C3B22363  14.901  11.878  13.063 -0.0463  0.0130  0.4877
 1906DOPS   C4B22364  15.035  11.560  13.374 -0.1889  0.0130 -0.4770
 1907DOPC   NC322365  13.443  16.159  11.858  0.1577 -0.0166 -0.1369
 1907DOPC   PO422366  13.375  16.136  12.226 -0.0950 -0.1566 -0.3658
 1907DOPC   GL122367  13.387  16.036  12.572  0.0215 -0.5329 -0.0454
 1907DOPC   GL222368  13.249  15.787  12.737  0.0906  0.0529 -0.2670
 1907DOPC   C1A22369  13.318  16.349  12.921 -0.2639  0.1375 -0.2301
 1907DOPC   D2A22370  13.202  16.775  12.926 -0.2156  0.4904  0.2603
 1907DOPC   C3A22371  13.445  17.016  13.229 -0.2457 -0.2009  0.3069
 1907DOPC   C4A22372  13.583  17.227  13.621  0.0409  0.4650 -0.3955
 1907DOPC   C1B22373  13.424  15.939  13.098  0.1555 -0.1959  0.1080
 1907DOPC   D2B22374  13.816  15.784  13.285  0.0000 -0.2495  0.1553
 1907DOPC   C3B22375  14.049  16.087  13.560 -0.2455 -0.1283 -0.1061
 1907DOPC   C4B22376  14.335  16.508  13.631  0.4142 -0.3104  0.0135
 1908DOPC   NC322377  16.986  15.432  12.475 -0.3595 -0.2154 -0.0872
 1908DOPC   PO422378  16.761  15.190  12.243 -0.0236  0.0569  0.1891
 1908DOPC   GL122379  16.416  15.280  12.381 -0.2685 -0.1128 -0.0753
 1908DOPC   GL222380  16.165  15.162  12.319  0.4661  0.0567 -0.0083
 1908DOPC   C1A22381  16.305  15.544  12.733 -0.0524 -0.4518  0.0426
 1908DOPC   D2A22382  16.331  15.320  13.153 -0.4003 -0.3296  0.3566
 1908DOPC   C3A22383  16.205  15.418  13.602  0.1111 -0.1829 -0.0131
 1908DOPC   C4A22384  16.345  15.479  14.006  0.1170  0.3672 -0.0388
 1908DOPC   C1B22385  15.718  15.008  12.120 -0.1180  0.3046 -0.1273
 1908DOPC   D2B22386  15.311  14.890  12.084 -0.1164 -0.0783  0.1921
 1908DOPC   C3B22387  15.176  15.055  11.687  0.0475  0.2336  0.1499
 1908DOPC   C4B22388  15.085  15.468  11.575  0.3947 -0.0449 -0.0683
 1909DOPE   NH322389  19.012  14.368  11.754 -0.0543  0.0515 -0.3982
 1909DOPE   PO422390  18.894  14.299  12.006 -0.1553 -0.0959  0.0500
 1909DOPE   GL122391  18.862  14.096  12.395 -0.3903  0.2823  0.7195
 1909DOPE   GL222392  18.546  14.129  12.396  0.1674  0.1472  0.2279
 1909DOPE   C1A22393  18.830  14.294  12.814 -0.1514 -0.1956  0.2178
 1909DOPE   D2A22394  18.614  14.380  13.203  0.3597 -0.4506 -0.0882
 1909DOPE   C3A22395  18.190  14.475  13.207  0.0668 -0.4583 -0.1481
 1909DOPE   C4A22396  17.790  14.654  13.349  0.0561  0.0255  0.4799
 1909DOPE   C1B22397  18.368  14.006  12.791  0.0178  0.2261 -0.1666
 1909DOPE   D2B22398  18.306  14.000  13.239  0.3468 -0.2451  0.1128
 1909DOPE   C3B22399  18.645  13.939  13.546  0.2417 -0.1298  0.1953
 1909DOPE   C4B22400  18.823  14.134  13.879  0.0188 -0.1736  0.0371
 1910DOPC   NC322401  12.976  15.285  11.690  0.1325  0.0740  0.3135
 1910DOPC   PO422402  12.978  15.148  12.067 -0.4258 -0.1643  0.0921
 1910DOPC   GL122403  13.159  14.806  11.925  0.1212 -0.2825 -0.3441
 1910DOPC   GL222404  13.073  14.610  12.133 -0.3353  0.3150 -0.1426
 1910DOPC   C1A22405  13.364  14.428  11.778  0.1675 -0.0923 -0.1090
 1910DOPC   D2A22406  13.559  14.043  11.911 -0.1590 -0.2184 -0.5087
 1910DOPC   C3A22407  13.548  13.801  12.253 -0.3050  0.2528  0.0621
 1910DOPC   C4A22408  13.545  13.549  12.632  0.1666 -0.0154  0.1427
 1910DOPC   C1B22409  12.943  14.637  12.546  0.0454  0.1576  0.1335
 1910DOPC   D2B22410  12.893  14.585  13.005 -0.0239 -0.0406 -0.2944
 1910DOPC   C3B22411  12.948  14.169  13.160 -0.0151 -0.1596 -0.2053
 1910DOPC   C4B22412  12.982  13.785  13.427  0.1582 -0.0174  0.1251
 1911DOPC   NC322413  19.075  22.516  12.416 -0.1453  0.1318  0.1057
 1911DOPC   PO422414  19.152  22.566  12.026 -0.2838  0.3919 -0.2810
 1911DOPC   GL122415  19.404  22.782  12.339 -0.1112 -0.2932  0.0257
 1911DOPC   GL222416  19.687  22.748  12.376  0.1526  0.0247  0.0349
 1911DOPC   C1A22417  19.418  22.948  12.783 -0.3616 -0.0419 -0.0209
 1911DOPC   D2A22418  19.196  22.956  13.231 -0.2334 -0.0243  0.1256
 1911DOPC   C3A22419  18.817  22.727  13.321  0.0136  0.0719  0.0111
 1911DOPC   C4A22420  18.675  22.394  13.567 -0.0251 -0.1582 -0.0225
 1911DOPC   C1B22421  20.083  22.605  12.600 -0.0295  0.0812 -0.0300
 1911DOPC   D2B22422  20.109  22.206  12.918  0.1154  0.1717  0.0937
 1911DOPC   C3B22423  20.057  22.278  13.364  0.2093  0.1417  0.2401
 1911DOPC   C4B22424  19.997  22.673  13.641  0.1219 -0.0747  0.0636
 1912POSM   NC322425  17.295  22.042  11.786 -0.0104 -0.3139 -0.1776
 1912POSM   PO422426  17.004  21.860  12.020 -0.2381  0.1148  0.1215
 1912POSM   AM122427  16.907  22.098  12.223 -0.2894  0.1004 -0.6378
 1912POSM   AM222428  16.870  22.403  12.309 -0.2151 -0.1000 -0.2691
 1912POSM   T1A22429  16.663  22.121  12.692  0.0986 -0.1995  0.0316
 1912POSM   C2A22430  16.362  22.335  13.039 -0.0229 -0.0096 -0.0455
 1912POSM   C3A22431  15.997  22.593  13.095  0.1195 -0.2072  0.2531
 1912POSM   C1B22432  16.713  22.628  12.573  0.1767 -0.3072  0.0471
 1912POSM   D2B22433  16.425  22.996  12.677  0.0458 -0.1246 -0.1485
 1912POSM   C3B22434  15.980  23.069  12.881 -0.0214 -0.2522 -0.2472
 1912POSM   C4B22435  15.585  22.837  13.022  0.1000  0.0036  0.1622
 1913DOPE   NH322436  16.456  15.221  11.855  0.0554 -0.1043  0.2864
 1913DOPE   PO422437  16.656  15.467  11.694 -0.1045  0.3060  0.0622
 1913DOPE   GL122438  16.555  15.735  12.003  0.3775 -0.1759  0.2406
 1913DOPE   GL222439  16.600  15.690  12.249 -0.0584 -0.1323 -0.0140
 1913DOPE   C1A22440  16.385  16.186  12.074 -0.1250 -0.0515  0.3798
 1913DOPE   D2A22441  16.137  16.620  12.172  0.0380  0.1563 -0.0550
 1913DOPE   C3A22442  16.039  16.804  12.622 -0.0751 -0.2743 -0.2331
 1913DOPE   C4A22443  16.293  16.779  12.972  0.0010 -0.0100  0.1371
 1913DOPE   C1B22444  16.707  15.938  12.595 -0.1888 -0.0476 -0.2136
 1913DOPE   D2B22445  16.879  15.764  13.027  0.0107 -0.0714 -0.0918
 1913DOPE   C3B22446  17.211  15.549  13.196 -0.0901  0.0535  0.2052
 1913DOPE   C4B22447  17.158  15.326  13.638 -0.1330 -0.1348  0.3350
 1914DOPS   CNO22448  16.554  15.016  11.362  0.4253 -0.2301 -0.1128
 1914DOPS   PO422449  16.427  14.766  11.631  0.0757  0.3240  0.1359
 1914DOPS   GL122450  16.084  14.987  11.850 -0.0798  0.0463 -0.0644
 1914DOPS   GL222451  15.915  14.728  11.803 -0.1504 -0.0229 -0.2370
 1914DOPS   C1A22452  15.890  15.423  11.985 -0.2643 -0.1188 -0.1843
 1914DOPS   D2A22453  16.069  15.701  12.336 -0.0205  0.0101 -0.0941
 1914DOPS   C3A22454  15.789  15.825  12.576 -0.1869 -0.3479 -0.2086
 1914DOPS   C4A22455  15.363  15.969  12.398  0.2004 -0.0662  0.0355
 1914DOPS   C1B22456  15.686  15.098  11.648 -0.0350  0.0494  0.0534
 1914DOPS   D2B22457  15.441  15.438  11.888  0.1056 -0.2045 -0.1281
 1914DOPS   C3B22458  15.522  15.441  12.309 -0.0874 -0.0859 -0.1223
 1914DOPS   C4B22459  15.191  15.600  12.601 -0.0054 -0.1635 -0.0890
 1915DOPC   NC322460  14.895  23.078  12.450 -0.0836  0.3646 -0.2608
 1915DOPC   PO422461  15.201  22.781  12.393  0.1888 -0.4092  0.1837
 1915DOPC   GL122462  15.306  23.207  12.413 -0.0242  0.3636  0.1598
 1915DOPC   GL222463  15.307  23.234  12.717  0.2289 -0.0011  0.0353
 1915DOPC   C1A22464  15.674  23.477  12.571 -0.0511 -0.1124  0.2586
 1915DOPC   D2A22465  16.139  23.554  12.659 -0.1482  0.0861  0.1340
 1915DOPC   C3A22466  16.312  23.980  12.730 -0.2480  0.2106  0.0804
 1915DOPC   C4A22467  16.651  24.173  12.943 -0.0782 -0.0312 -0.2847
 1915DOPC   C1B22468  15.101  23.000  13.067  0.3340 -0.1929  0.0590
 1915DOPC   D2B22469  15.067  22.686  13.377  0.0821 -0.0743  0.1625
 1915DOPC   C3B22470  14.758  22.827  13.717  0.2001  0.0175 -0.3833
 1915DOPC   C4B22471  14.654  23.044  14.122  0.0179 -0.0480 -0.1058
 1916DOPE   NH322472  12.625  15.516  12.171 -0.0904  0.0899 -0.1211
 1916DOPE   PO422473  12.339  15.359  12.061  0.2231 -0.0316 -0.2941
 1916DOPE   GL122474  12.194  15.201  12.474  0.0008 -0.4615  0.1604
 1916DOPE   GL222475  12.330  15.454  12.589 -0.2626 -0.0612 -0.0016
 1916DOPE   C1A22476  12.131  15.220  12.933  0.2746  0.0371  0.0204
 1916DOPE   D2A22477  12.169  15.355  13.364 -0.2740  0.2422 -0.0986
 1916DOPE   C3A22478  12.539  15.208  13.594 -0.1964  0.1631 -0.1507
 1916DOPE   C4A22479  12.890  15.237  13.882  0.2281 -0.1645 -0.1300
 1916DOPE   C1B22480  12.473  15.577  13.031  0.0742 -0.1443  0.1548
 1916DOPE   D2B22481  12.525  15.739  13.437 -0.1794  0.1530  0.3992
 1916DOPE   C3B22482  12.594  15.975  13.805 -0.3212 -0.3022 -0.1404
 1916DOPE   C4B22483  12.836  16.123  14.218  0.1824  0.0506 -0.0218
 1917DOPE   NH322484  17.138  19.137  12.440 -0.0703  0.1110 -0.0980
 1917DOPE   PO422485  17.150  19.125  12.121  0.0149  0.0295 -0.1118
 1917DOPE   GL122486  17.145  18.689  12.399 -0.1896 -0.0306  0.3353
 1917DOPE   GL222487  17.113  18.587  12.618 -0.0927 -0.0085  0.0749
 1917DOPE   C1A22488  17.071  18.208  12.262  0.2436  0.2815 -0.0128
 1917DOPE   D2A22489  17.118  17.754  12.440  0.2947 -0.0030 -0.1157
 1917DOPE   C3A22490  17.241  17.363  12.216  0.0669  0.0282 -0.1397
 1917DOPE   C4A22491  17.619  17.335  11.974  0.3104  0.0250  0.1092
 1917DOPE   C1B22492  17.329  18.185  12.713  0.0891  0.1900  0.0708
 1917DOPE   D2B22493  17.599  18.013  13.082 -0.2407 -0.3431  0.0493
 1917DOPE   C3B22494  17.644  18.313  13.458 -0.0699  0.0214 -0.0791
 1917DOPE   C4B22495  18.026  18.551  13.562 -0.1917  0.0260 -0.2988
 1918POSM   NC322496  21.671  17.379  11.076 -0.3426 -0.0149  0.3783
 1918POSM   PO422497  21.538  17.728  11.238 -0.0962  0.1431  0.0007
 1918POSM   AM122498  21.372  17.983  11.418  0.2200 -0.4098 -0.1132
 1918POSM   AM222499  21.314  18.237  11.296  0.2025 -0.0317  0.1333
 1918POSM   T1A22500  21.380  18.306  11.828  0.1568  0.0614  0.0399
 1918POSM   C2A22501  21.291  18.764  11.960  0.2056 -0.3464  0.1514
 1918POSM   C3A22502  21.030  19.140  11.864 -0.0949  0.1781 -0.3523
 1918POSM   C1B22503  21.118  18.482  11.451  0.0364  0.0972 -0.1492
 1918POSM   D2B22504  20.724  18.664  11.508 -0.2308 -0.0599 -0.0925
 1918POSM   C3B22505  20.604  19.015  11.734 -0.1678  0.0123 -0.1325
 1918POSM   C4B22506  20.650  19.462  11.628 -0.4854  0.1070 -0.0351
 1919POSM   NC322507  21.528  22.589  12.107 -0.2118  0.0941 -0.1749
 1919POSM   PO422508  21.392  22.471  11.723  0.1924 -0.2357 -0.1692
 1919POSM   AM122509  21.082  22.424  11.887 -0.1331 -0.1929  0.1623
 1919POSM   AM222510  20.938  22.405  12.181 -0.0783 -0.0167 -0.3820
 1919POSM   T1A22511  20.795  22.023  11.918  0.0283  0.1292 -0.1378
 1919POSM   C2A22512  20.557  21.635  12.004 -0.1523 -0.1457 -0.0828
 1919POSM   C3A22513  20.243  21.407  12.273 -0.5842  0.0341  0.0559
 1919POSM   C1B22514  21.031  22.205  12.479  0.1865 -0.1238 -0.0950
 1919POSM   D2B22515  21.362  22.039  12.745  0.1047  0.1362 -0.1233
 1919POSM   C3B22516  21.084  21.905  13.101 -0.1748  0.2847  0.0708
 1919POSM   C4B22517  20.751  22.050  13.377  0.2454  0.3455  0.2296
 1920DOPC   NC322518  12.053  16.161  12.219  0.1133 -0.2797  0.2444
 1920DOPC   PO422519  12.374  15.925  12.256 -0.1826  0.0469 -0.0144
 1920DOPC   GL122520  12.478  16.133  12.537 -0.0169  0.1356 -0.0579
 1920DOPC   GL222521  12.438  16.419  12.441  0.0556  0.0241  0.1330
 1920DOPC   C1A22522  12.281  16.081  12.955  0.1522  0.3657  0.1993
 1920DOPC   D2A22523  12.096  15.941  13.318 -0.1179  0.5104 -0.0410
 1920DOPC   C3A22524  11.939  16.288  13.643 -0.0148 -0.0503  0.4034
 1920DOPC   C4A22525  11.797  16.698  13.777 -0.1451  0.5910 -0.0234
 1920DOPC   C1B22526  12.022  16.655  12.427  0.2931  0.0987 -0.0597
 1920DOPC   D2B22527  11.832  16.930  12.773  0.2514  0.1094 -0.1809
 1920DOPC   C3B22528  11.927  17.168  13.156 -0.2066  0.0631 -0.3010
 1920DOPC   C4B22529  11.713  17.410  13.522  0.3232  0.0116 -0.0400
 1921DOPC   NC322530  15.669  22.453  12.153 -0.0149 -0.0399  0.1318
 1921DOPC   PO422531  15.673  22.111  11.941  0.0507  0.0587 -0.0915
 1921DOPC   GL122532  15.478  22.180  12.441  0.0645 -0.2899  0.0475
 1921DOPC   GL222533  15.262  22.311  12.394  0.0095  0.0955  0.0959
 1921DOPC   C1A22534  15.433  21.807  12.730 -0.1406  0.1795 -0.1287
 1921DOPC   D2A22535  15.493  21.391  13.056  0.2109 -0.0963  0.0001
 1921DOPC   C3A22536  15.300  21.024  13.092 -0.0215 -0.0456 -0.2046
 1921DOPC   C4A22537  15.177  20.611  13.187 -0.1702  0.1802  0.1438
 1921DOPC   C1B22538  15.370  22.451  12.877  0.1724 -0.0343 -0.1095
 1921DOPC   D2B22539  15.292  22.131  13.137 -0.0296  0.4768 -0.2204
 1921DOPC   C3B22540  15.104  21.714  13.043  0.1481 -0.1685 -0.0247
 1921DOPC   C4B22541  14.833  21.394  13.186 -0.1216 -0.2266  0.3372
 1922DOPC   NC322542  18.046  19.001  12.116 -0.2996 -0.3496 -0.2403
 1922DOPC   PO422543  18.304  19.154  11.833  0.0958  0.2238 -0.0088
 1922DOPC   GL122544  18.524  19.005  12.180  0.0829  0.0647  0.4429
 1922DOPC   GL222545  18.468  19.296  12.287  0.1957  0.0765 -0.0907
 1922DOPC   C1A22546  18.800  18.873  12.522  0.2665  0.4303  0.1100
 1922DOPC   D2A22547  18.996  18.654  12.867 -0.1255  0.1810 -0.0437
 1922DOPC   C3A22548  18.685  18.517  13.220 -0.0620  0.0510 -0.0211
 1922DOPC   C4A22549  18.507  18.516  13.655 -0.1486  0.3249 -0.0213
 1922DOPC   C1B22550  18.539  19.301  12.737 -0.1141 -0.0010  0.1228
 1922DOPC   D2B22551  18.678  18.966  13.031 -0.0641  0.0977 -0.0506
 1922DOPC   C3B22552  19.071  18.908  13.345 -0.1214 -0.5145  0.2201
 1922DOPC   C4B22553  19.464  18.786  13.433 -0.3443  0.3282 -0.0350
 1923POSM   NC322554  13.783  15.608  11.882  0.1854  0.0231  0.0257
 1923POSM   PO422555  13.828  15.994  12.048 -0.0649  0.3789  0.1568
 1923POSM   AM122556  14.125  15.893  12.007  0.0640 -0.0922 -0.0036
 1923POSM   AM222557  14.301  15.834  11.821  0.0215 -0.1940 -0.1770
 1923POSM   T1A22558  14.591  15.923  12.164 -0.2525  0.0207  0.1743
 1923POSM   C2A22559  15.049  15.818  12.016  0.4680 -0.0490  0.0089
 1923POSM   C3A22560  15.464  16.011  11.891 -0.1088  0.1212 -0.1256
 1923POSM   C1B22561  14.315  15.508  11.879  0.0952 -0.0074 -0.2127
 1923POSM   D2B22562  14.011  15.143  11.921  0.0920  0.0627 -0.0443
 1923POSM   C3B22563  14.203  14.773  12.149  0.0444  0.0146 -0.1085
 1923POSM   C4B22564  14.649  14.561  12.160 -0.0247  0.2050  0.0039
 1924DOPC   NC322565  12.285  22.322  12.645  0.0755  0.1889  0.1292
 1924DOPC   PO422566  12.225  21.988  12.492  0.1336 -0.3064 -0.1907
 1924DOPC   GL122567  12.654  21.726  12.474  0.1046 -0.1728  0.0759
 1924DOPC   GL222568  12.814  21.697  12.176  0.1157 -0.0139  0.0545
 1924DOPC   C1A22569  12.972  21.444  12.736  0.1103 -0.5033  0.2266
 1924DOPC   D2A22570  12.953  21.015  12.853  0.1743 -0.1220  0.0780
 1924DOPC   C3A22571  12.853  20.824  13.250 -0.3013  0.3334 -0.2141
 1924DOPC   C4A22572  13.002  20.458  13.478 -0.0172 -0.1261 -0.1745
 1924DOPC   C1B22573  13.211  21.851  12.404 -0.0060 -0.3640 -0.1352
 1924DOPC   D2B22574  13.472  21.974  12.789  0.0779  0.5189 -0.1794
 1924DOPC   C3B22575  13.425  21.852  13.216 -0.0909 -0.0524 -0.0529
 1924DOPC   C4B22576  13.623  21.520  13.501  0.1665  0.0548  0.2563
 1925POSM   NC322577  22.890  15.740  11.206 -0.1529 -0.0455 -0.0995
 1925POSM   PO422578  22.849  15.421  11.482  0.1225 -0.0761  0.2204
 1925POSM   AM122579  22.576  15.537  11.619  0.2755  0.0131  0.1694
 1925POSM   AM222580  22.405  15.760  11.479 -0.1255  0.0284  0.1182
 1925POSM   T1A22581  22.199  15.512  11.957 -0.1620 -0.0276  0.2029
 1925POSM   C2A22582  22.113  15.687  12.285 -0.0213  0.1477 -0.0803
 1925POSM   C3A22583  21.956  15.741  12.727 -0.2140 -0.2551 -0.0891
 1925POSM   C1B22584  22.271  15.939  11.754  0.1531 -0.1668  0.2282
 1925POSM   D2B22585  22.205  16.224  12.120 -0.2780 -0.0532 -0.0181
 1925POSM   C3B22586  21.847  16.152  12.421  0.1603  0.1168 -0.0560
 1925POSM   C4B22587  21.642  16.369  12.754  0.2212 -0.0906 -0.0033
 1926DOPS   CNO22588  20.154  13.541  11.835 -0.1395 -0.1483  0.2442
 1926DOPS   PO422589  20.434  13.601  12.049  0.0451 -0.0303 -0.1959
 1926DOPS   GL122590  20.482  13.401  12.375  0.1533 -0.2275  0.0713
 1926DOPS   GL222591  20.633  13.673  12.591 -0.1082 -0.1728  0.1862
 1926DOPS   C1A22592  20.855  13.257  12.559 -0.2690  0.2744 -0.2672
 1926DOPS   D2A22593  21.308  13.294  12.682  0.2494 -0.2177  0.1294
 1926DOPS   C3A22594  21.240  13.571  13.093  0.0792 -0.0439  0.2680
 1926DOPS   C4A22595  20.925  13.810  13.292  0.1216  0.2394  0.0651
 1926DOPS   C1B22596  20.950  13.987  12.816  0.0374 -0.0289  0.0263
 1926DOPS   D2B22597  21.149  14.220  13.173  0.0968 -0.3982  0.4628
 1926DOPS   C3B22598  20.904  14.619  13.129  0.2716 -0.0440  0.0305
 1926DOPS   C4B22599  20.818  15.081  13.024  0.1232  0.2787 -0.1100
 1927DOPC   NC322600  17.020  18.653  11.783  0.0961  0.1190 -0.0679
 1927DOPC   PO422601  16.780  18.695  12.087  0.0581 -0.1345 -0.3246
 1927DOPC   GL122602  16.639  18.428  11.935 -0.3382 -0.3965  0.0280
 1927DOPC   GL222603  16.502  18.292  12.239 -0.0816 -0.0443  0.0906
 1927DOPC   C1A22604  16.663  17.994  11.821  0.1300 -0.3103  0.0634
 1927DOPC   D2A22605  16.510  17.689  12.069 -0.0700 -0.2360 -0.0936
 1927DOPC   C3A22606  16.222  17.262  12.002  0.0284 -0.0676  0.0555
 1927DOPC   C4A22607  15.846  17.067  12.228 -0.0735  0.1484  0.0255
 1927DOPC   C1B22608  16.673  18.055  12.627  0.2944  0.4650  0.1017
 1927DOPC   D2B22609  16.878  17.747  12.900 -0.2970 -0.0140  0.4137
 1927DOPC   C3B22610  17.116  17.398  12.748  0.0934 -0.3359  0.0138
 1927DOPC   C4B22611  17.404  17.058  12.623 -0.3244  0.0227 -0.1648
 1928DOPS   CNO22612  11.832  21.871  11.778 -0.1396  0.1052 -0.0352
 1928DOPS   PO422613  11.756  21.767  12.138  0.0650 -0.1167 -0.1592
 1928DOPS   GL122614  11.750  21.754  12.576  0.1816 -0.0084  0.2671
 1928DOPS   GL222615  11.927  21.592  12.738 -0.2291  0.1113  0.0857
 1928DOPS   C1A22616  11.523  21.731  13.026 -0.2194 -0.1141  0.1333
 1928DOPS   D2A22617  11.552  21.626  13.503  0.1401 -0.2891  0.0093
 1928DOPS   C3A22618  11.229  21.840  13.666  0.2986  0.1603  0.2971
 1928DOPS   C4A22619  10.904  22.148  13.614 -0.2224  0.0723  0.0265
 1928DOPS   C1B22620  12.017  21.687  13.196 -0.2863 -0.0893 -0.2405
 1928DOPS   D2B22621  12.405  21.487  13.409  0.0140 -0.3482  0.0036
 1928DOPS   C3B22622  12.756  21.348  13.196 -0.3802 -0.0941 -0.1439
 1928DOPS   C4B22623  13.226  21.371  13.183  0.0009  0.4215 -0.0029
 1929DOPE   NH322624  16.136  21.266  11.879 -0.2844  0.3055  0.0186
 1929DOPE   PO422625  16.283  21.120  11.637  0.0912 -0.0057 -0.3175
 1929DOPE   GL122626  16.427  20.910  12.036  0.2998  0.0299  0.1698
 1929DOPE   GL222627  16.678  20.764  12.029 -0.1024 -0.2664 -0.0626
 1929DOPE   C1A22628  16.492  20.779  12.508  0.1864  0.2192 -0.0726
 1929DOPE   D2A22629  16.503  20.939  12.954 -0.0732  0.0448  0.2011
 1929DOPE   C3A22630  16.620  21.385  13.119  0.0391  0.1315 -0.0154
 1929DOPE   C4A22631  16.900  21.615  13.311 -0.0536  0.1105  0.3408
 1929DOPE   C1B22632  17.061  20.745  12.362  0.4642 -0.0631  0.1286
 1929DOPE   D2B22633  17.291  20.917  12.774  0.1635  0.2144 -0.0353
 1929DOPE   C3B22634  17.341  20.649  13.121  0.1002 -0.2189  0.1826
 1929DOPE   C4B22635  17.138  20.494  13.542 -0.0685 -0.3836  0.2039
 1930DOPE   NH322636  22.570  13.895  11.810 -0.1026 -0.0579  0.1906
 1930DOPE   PO422637  22.600  13.555  11.975 -0.1054  0.0851 -0.1904
 1930DOPE   GL122638  22.454  13.678  12.341  0.2965  0.2562 -0.2300
 1930DOPE   GL222639  22.350  13.959  12.260 -0.0860  0.1908 -0.0430
 1930DOPE   C1A22640  22.622  13.697  12.796  0.1234  0.1101 -0.2532
 1930DOPE   D2A22641  22.783  13.893  13.219 -0.1795 -0.2181 -0.0471
 1930DOPE   C3A22642  23.172  14.203  13.384 -0.4847 -0.3144 -0.0218
 1930DOPE   C4A22643  23.582  14.363  13.496  0.0772 -0.0394  0.3994
 1930DOPE   C1B22644  22.158  13.939  12.750  0.2265 -0.1261 -0.1921
 1930DOPE   D2B22645  22.165  14.109  13.209  0.0126  0.3281 -0.0034
 1930DOPE   C3B22646  22.390  13.783  13.469  0.1598  0.1369 -0.1359
 1930DOPE   C4B22647  22.303  13.371  13.646  0.1362  0.1257 -0.0512
 1931DOPE   NH322648  18.260  15.090  11.678 -0.0401  0.1634  0.1474
 1931DOPE   PO422649  18.424  14.979  11.876  0.1530  0.3043  0.0764
 1931DOPE   GL122650  18.367  15.274  12.086  0.2852 -0.0280 -0.0570
 1931DOPE   GL222651  18.559  15.438  11.890 -0.3567  0.0316 -0.2461
 1931DOPE   C1A22652  18.395  15.624  12.368  0.1494 -0.0075  0.1132
 1931DOPE   D2A22653  18.527  16.023  12.676  0.3943 -0.3508 -0.0415
 1931DOPE   C3A22654  18.416  15.869  13.079 -0.0662 -0.0061 -0.0527
 1931DOPE   C4A22655  18.244  15.725  13.512 -0.1951  0.3506  0.0426
 1931DOPE   C1B22656  18.993  15.339  12.044  0.0759 -0.1712  0.2940
 1931DOPE   D2B22657  19.214  15.212  12.437  0.0773 -0.0123 -0.1172
 1931DOPE   C3B22658  19.308  15.358  12.868  0.2141  0.2401  0.3681
 1931DOPE   C4B22659  19.507  15.123  13.175  0.0959 -0.0218  0.1232
 1932DOPC   NC322660  18.213  13.287  11.866  0.0229 -0.0142 -0.1068
 1932DOPC   PO422661  17.837  13.108  11.805  0.1089  0.0960 -0.1962
 1932DOPC   GL122662  17.718  13.049  12.163  0.0733  0.3268  0.0298
 1932DOPC   GL222663  17.576  12.719  12.137 -0.0493  0.1969  0.2521
 1932DOPC   C1A22664  17.576  12.995  12.614 -0.1512  0.2937  0.3243
 1932DOPC   D2A22665  17.467  12.639  12.878  0.1285  0.0060 -0.0625
 1932DOPC   C3A22666  17.148  12.268  12.856 -0.0226  0.2137  0.0552
 1932DOPC   C4A22667  16.864  11.880  12.871  0.0065  0.1133 -0.2608
 1932DOPC   C1B22668  17.308  12.456  12.381  0.3004  0.0343 -0.0076
 1932DOPC   D2B22669  16.888  12.556  12.365 -0.2162  0.0681  0.0470
 1932DOPC   C3B22670  16.734  13.004  12.319  0.1085  0.0317  0.0422
 1932DOPC   C4B22671  16.760  13.416  12.057  0.1778 -0.1970 -0.2825
 1933DOPS   CNO22672  23.439  17.906  12.062  0.3434 -0.1576  0.0936
 1933DOPS   PO422673  23.132  17.980  11.843  0.0623 -0.2325  0.1242
 1933DOPS   GL122674  22.821  18.263  12.233 -0.0320 -0.1419  0.0455
 1933DOPS   GL222675  22.908  18.564  12.257  0.3089  0.0037 -0.1343
 1933DOPS   C1A22676  22.610  18.159  12.588 -0.2520 -0.0625  0.1613
 1933DOPS   D2A22677  22.339  18.278  12.915 -0.1634 -0.1500 -0.0934
 1933DOPS   C3A22678  22.273  18.707  12.700 -0.0431 -0.2155  0.0860
 1933DOPS   C4A22679  22.366  19.141  12.757  0.2780  0.1362  0.1601
 1933DOPS   C1B22680  22.764  18.705  12.708  0.2843 -0.0907  0.0137
 1933DOPS   D2B22681  22.795  18.890  13.102 -0.0878  0.1505  0.2825
 1933DOPS   C3B22682  22.767  19.352  13.086  0.1576  0.0729  0.2646
 1933DOPS   C4B22683  22.786  19.607  13.511 -0.2009  0.3569 -0.1039
 1934DOPS   CNO22684  19.397  22.302  11.427  0.2113  0.1466 -0.2408
 1934DOPS   PO422685  19.141  22.082  11.647 -0.1675  0.3204 -0.0087
 1934DOPS   GL122686  19.329  21.813  11.816 -0.6243  0.0324  0.0346
 1934DOPS   GL222687  19.180  21.604  11.867 -0.0313 -0.1676 -0.2998
 1934DOPS   C1A22688  19.539  21.775  12.216 -0.1228  0.3854 -0.0126
 1934DOPS   D2A22689  19.523  21.527  12.577 -0.1793 -0.1374  0.0079
 1934DOPS   C3A22690  19.940  21.409  12.743 -0.0455 -0.1024  0.2139
 1934DOPS   C4A22691  20.254  21.106  12.976 -0.2565  0.3627  0.1119
 1934DOPS   C1B22692  19.125  21.547  12.296 -0.1698 -0.1883  0.1648
 1934DOPS   D2B22693  19.216  21.157  12.600 -0.1409  0.0177 -0.0055
 1934DOPS   C3B22694  19.279  21.222  13.025 -0.0185  0.0381 -0.2416
 1934DOPS   C4B22695  19.269  21.455  13.460  0.0594 -0.1244 -0.3655
 1935DOPC   NC322696  18.776  22.397  11.756  0.0348 -0.2014  0.0464
 1935DOPC   PO422697  18.644  22.026  11.709 -0.3294  0.4217 -0.0066
 1935DOPC   GL122698  18.759  21.657  11.963  0.4122  0.0119 -0.1937
 1935DOPC   GL222699  18.464  21.611  12.086 -0.1004 -0.1779 -0.1315
 1935DOPC   C1A22700  18.800  21.162  11.869 -0.3403 -0.0438 -0.0117
 1935DOPC   D2A22701  18.986  20.776  12.071  0.0233 -0.0239  0.0196
 1935DOPC   C3A22702  19.064  20.690  12.540  0.2102 -0.2034 -0.0947
 1935DOPC   C4A22703  19.032  20.790  12.940  0.1367 -0.0051  0.2541
 1935DOPC   C1B22704  18.340  21.427  11.670  0.3359  0.1053  0.3053
 1935DOPC   D2B22705  18.263  21.028  11.510  0.4156 -0.0472  0.0221
 1935DOPC   C3B22706  17.941  20.797  11.712  0.1902 -0.1264 -0.2775
 1935DOPC   C4B22707  17.532  20.601  11.669  0.0986 -0.2215  0.3079
 1936DOPS   CNO22708  13.827  16.516  11.705 -0.0645 -0.0613  0.0271
 1936DOPS   PO422709  13.789  16.478  12.102 -0.0376 -0.1745 -0.0720
 1936DOPS   GL122710  13.781  16.254  12.426 -0.0391 -0.2356  0.1597
 1936DOPS   GL222711  14.102  16.161  12.390  0.1828  0.0345  0.0482
 1936DOPS   C1A22712  13.788  16.208  12.863  0.0067  0.2405 -0.0617
 1936DOPS   D2A22713  13.711  16.338  13.283  0.4404  0.3206 -0.4003
 1936DOPS   C3A22714  13.498  16.032  13.587  0.0493 -0.0004  0.1022
 1936DOPS   C4A22715  13.538  15.626  13.787  0.0958  0.1616 -0.4680
 1936DOPS   C1B22716  14.487  16.258  12.596 -0.3812  0.1034 -0.1761
 1936DOPS   D2B22717  14.911  16.224  12.701  0.2500  0.2060  0.2051
 1936DOPS   C3B22718  14.967  15.832  13.026 -0.0783 -0.0058  0.2766
 1936DOPS   C4B22719  15.216  15.490  13.144 -0.2508  0.1456 -0.1362
 1937DOPS   CNO22720  16.011  19.270  11.647 -0.1023 -0.2796 -0.0603
 1937DOPS   PO422721  15.913  19.537  11.873  0.1727 -0.2107  0.1205
 1937DOPS   GL122722  15.564  19.442  12.174  0.1349 -0.2163  0.2404
 1937DOPS   GL222723  15.345  19.492  11.943  0.0044  0.2362  0.2341
 1937DOPS   C1A22724  15.610  19.053  12.469  0.1212  0.1714  0.4647
 1937DOPS   D2A22725  15.451  18.610  12.588 -0.0730 -0.2398 -0.1906
 1937DOPS   C3A22726  15.704  18.367  12.827  0.1019  0.1312  0.0565
 1937DOPS   C4A22727  16.077  18.299  12.970 -0.2496  0.3568  0.0035
 1937DOPS   C1B22728  15.123  19.160  12.193 -0.2323  0.3100  0.5430
 1937DOPS   D2B22729  15.121  18.993  12.675 -0.1407 -0.1045 -0.0413
 1937DOPS   C3B22730  15.048  18.633  12.969 -0.0437 -0.2687 -0.1200
 1937DOPS   C4B22731  14.779  18.406  12.775 -0.1675 -0.3051  0.0060
 1938DOPC   NC322732  11.984  20.563  12.111 -0.0635  0.0353  0.0029
 1938DOPC   PO422733  12.071  20.825  11.868  0.3014 -0.0194  0.1272
 1938DOPC   GL122734  12.477  20.683  11.909 -0.0190  0.1909 -0.0714
 1938DOPC   GL222735  12.512  20.690  12.269  0.0733 -0.0762  0.0586
 1938DOPC   C1A22736  12.755  20.276  11.873  0.1798 -0.0691 -0.2708
 1938DOPC   D2A22737  13.203  20.166  12.123  0.2600 -0.0124 -0.2068
 1938DOPC   C3A22738  13.375  20.232  12.493 -0.0008 -0.0835 -0.0237
 1938DOPC   C4A22739  13.715  20.325  12.761 -0.0269 -0.3118  0.1807
 1938DOPC   C1B22740  12.949  20.653  12.231  0.0700  0.2332  0.0851
 1938DOPC   D2B22741  13.382  20.665  12.031 -0.2499 -0.0975 -0.0748
 1938DOPC   C3B22742  13.771  20.395  12.158  0.0885 -0.3041 -0.3288
 1938DOPC   C4B22743  13.959  20.072  12.434 -0.1412 -0.2333  0.2925
 1939DOPE   NH322744  22.304  11.614  12.007  0.0705  0.1161 -0.2750
 1939DOPE   PO422745  22.302  11.330  11.841  0.0197  0.1667 -0.1223
 1939DOPE   GL122746  22.116  11.291  12.273  0.1795 -0.3221  0.0393
 1939DOPE   GL222747  21.887  11.202  12.166  0.0787 -0.0805  0.0852
 1939DOPE   C1A22748  21.806  11.274  12.638 -0.0126  0.0920 -0.2120
 1939DOPE   D2A22749  21.369  11.409  12.670  0.4478  0.3254  0.0283
 1939DOPE   C3A22750  21.126  11.433  13.082  0.1775 -0.2955 -0.0260
 1939DOPE   C4A22751  20.935  11.704  13.382  0.5062  0.1174  0.0882
 1939DOPE   C1B22752  21.779  11.667  12.122  0.2882  0.1984  0.2924
 1939DOPE   D2B22753  21.567  12.000  12.294 -0.1096 -0.0351  0.1495
 1939DOPE   C3B22754  21.236  11.977  12.626  0.0628 -0.1575 -0.0928
 1939DOPE   C4B22755  21.182  12.072  13.124 -0.1266  0.4454  0.0515
 1940DOPE   NH322756  11.656  23.035  12.654  0.1327 -0.3058  0.0345
 1940DOPE   PO422757  11.925  23.122  12.661 -0.1123 -0.0897  0.1224
 1940DOPE   GL122758  11.792  23.032  13.058  0.0307  0.1701 -0.3038
 1940DOPE   GL222759  12.022  23.163  13.189  0.0151 -0.0024 -0.0908
 1940DOPE   C1A22760  11.659  23.222  13.475 -0.0541  0.3234  0.3867
 1940DOPE   D2A22761  11.672  23.167  13.922  0.3207 -0.1847 -0.0400
 1940DOPE   C3A22762  11.654  23.480  14.270 -0.1664  0.0499 -0.1078
 1940DOPE   C4A22763  11.272  23.779  14.365 -0.2389  0.2085 -0.1764
 1940DOPE   C1B22764  12.086  22.962  13.595  0.3839  0.0103 -0.3637
 1940DOPE   D2B22765  12.195  22.580  13.711  0.1530 -0.3706  0.2681
 1940DOPE   C3B22766  12.206  22.098  13.605  0.2421  0.2326  0.0820
 1940DOPE   C4B22767  12.020  21.722  13.826  0.1117  0.1134 -0.0206
 1941POSM   NC322768  17.924  13.769  12.031 -0.0980 -0.2316  0.1477
 1941POSM   PO422769  17.612  13.961  11.858 -0.1206 -0.4403  0.2363
 1941POSM   AM122770  17.763  14.214  12.008  0.0792 -0.0286  0.2113
 1941POSM   AM222771  17.997  14.255  12.109  0.5324  0.0183 -0.1735
 1941POSM   T1A22772  17.625  14.536  12.400 -0.1779  0.3470 -0.0484
 1941POSM   C2A22773  17.384  14.543  12.819 -0.0471  0.3579 -0.3009
 1941POSM   C3A22774  16.979  14.650  13.090 -0.3576 -0.2231 -0.1077
 1941POSM   C1B22775  17.997  14.150  12.418  0.0790  0.1283  0.2326
 1941POSM   D2B22776  17.915  14.292  12.858  0.3500 -0.1048 -0.0888
 1941POSM   C3B22777  17.620  14.222  13.220  0.0620 -0.3357 -0.1671
 1941POSM   C4B22778  17.192  14.340  13.377 -0.3645  0.2449  0.1212
 1942DOPS   CNO22779  22.190  22.432  11.751 -0.0302 -0.0891  0.0863
 1942DOPS   PO422780  21.861  22.600  11.762 -0.1661  0.1074 -0.0856
 1942DOPS   GL122781  21.835  22.265  11.992 -0.2392  0.2427 -0.0514
 1942DOPS   GL222782  21.973  21.967  12.082 -0.1154 -0.1140 -0.0544
 1942DOPS   C1A22783  21.449  22.083  12.236 -0.1531  0.1250 -0.1319
 1942DOPS   D2A22784  21.148  21.723  12.284  0.3912 -0.0666 -0.0745
 1942DOPS   C3A22785  20.851  21.706  12.685 -0.0551 -0.0967  0.3902
 1942DOPS   C4A22786  20.677  22.087  12.851  0.0050  0.1048  0.2071
 1942DOPS   C1B22787  21.786  21.733  12.402 -0.2777  0.0544  0.1400
 1942DOPS   D2B22788  21.487  21.352  12.462  0.1175 -0.2369  0.2182
 1942DOPS   C3B22789  21.394  21.552  12.856  0.2580  0.1000  0.1438
 1942DOPS   C4B22790  21.056  21.430  13.195  0.1676 -0.1459 -0.3317
 1943DOPC   NC322791  19.116  13.767  11.883  0.1071 -0.1673 -0.0262
 1943DOPC   PO422792  19.386  13.513  12.070  0.1423  0.3626 -0.1700
 1943DOPC   GL122793  19.376  13.811  12.316  0.1595  0.2852 -0.0516
 1943DOPC   GL222794  19.371  13.629  12.590 -0.2348 -0.1487 -0.0168
 1943DOPC   C1A22795  19.274  14.036  12.683 -0.2997  0.0600  0.0537
 1943DOPC   D2A22796  19.298  14.355  13.020  0.1539 -0.3059  0.2726
 1943DOPC   C3A22797  19.067  14.729  13.167 -0.0504  0.0234 -0.2226
 1943DOPC   C4A22798  18.968  15.177  13.167  0.1471  0.0169 -0.0430
 1943DOPC   C1B22799  19.104  13.461  12.927 -0.1079 -0.0153  0.0296
 1943DOPC   D2B22800  18.929  13.024  13.005  0.1978  0.1534  0.4750
 1943DOPC   C3B22801  18.461  12.812  12.883 -0.0467  0.3301 -0.1508
 1943DOPC   C4B22802  17.996  12.611  12.965  0.0778 -0.2572  0.0004
 1944DOPE   NH322803  11.914  15.278  11.861 -0.0967 -0.1180 -0.0223
 1944DOPE   PO422804  11.685  15.071  12.016  0.2226  0.3740 -0.3760
 1944DOPE   GL122805  11.505  14.894  12.349  0.0017  0.2111 -0.0588
 1944DOPE   GL222806  11.388  15.123  12.544 -0.2016 -0.2292  0.1144
 1944DOPE   C1A22807  11.450  14.630  12.724 -0.0599 -0.0229 -0.0145
 1944DOPE   D2A22808  11.309  14.155  12.765 -0.0939 -0.1168 -0.0170
 1944DOPE   C3A22809  11.516  13.896  12.404  0.0185  0.2798 -0.1637
 1944DOPE   C4A22810  11.532  13.487  12.231  0.0705 -0.0696 -0.2707
 1944DOPE   C1B22811  11.596  15.209  12.915 -0.4783  0.0506  0.0220
 1944DOPE   D2B22812  11.698  15.147  13.343  0.0381  0.3284  0.1644
 1944DOPE   C3B22813  11.613  14.777  13.596  0.3299 -0.1287 -0.0059
 1944DOPE   C4B22814  11.578  14.311  13.642  0.2552 -0.0080  0.4546
 1945DOPS   CNO22815  17.951  13.531  11.537  0.1399  0.2345 -0.0761
 1945DOPS   PO422816  18.195  13.837  11.592 -0.1819  0.1725  0.1452
 1945DOPS   GL122817  18.409  13.843  11.962 -0.0588 -0.0697 -0.1085
 1945DOPS   GL222818  18.624  13.912  11.847 -0.0719  0.0395  0.3892
 1945DOPS   C1A22819  18.369  13.685  12.366 -0.0009  0.0354 -0.0728
 1945DOPS   D2A22820  18.008  13.632  12.636  0.3196 -0.2434  0.0131
 1945DOPS   C3A22821  18.006  13.169  12.759  0.0640 -0.0907 -0.2893
 1945DOPS   C4A22822  18.112  12.840  12.473  0.1750  0.1356  0.1972
 1945DOPS   C1B22823  18.701  13.473  12.030  0.2165 -0.0359  0.6036
 1945DOPS   D2B22824  18.998  13.412  12.369  0.1410 -0.2740  0.1778
 1945DOPS   C3B22825  18.810  13.716  12.586 -0.0484 -0.0179  0.1142
 1945DOPS   C4B22826  18.807  13.871  13.030  0.0349  0.1769  0.0079
 1946DOPS   CNO22827  21.809  18.067  11.481 -0.0998 -0.1801  0.2088
 1946DOPS   PO422828  21.857  18.374  11.288  0.0074 -0.2295 -0.3518
 1946DOPS   GL122829  21.719  18.779  11.342  0.3213  0.3051 -0.2978
 1946DOPS   GL222830  21.481  18.916  11.155 -0.1561  0.1837 -0.1287
 1946DOPS   C1A22831  21.972  19.182  11.501 -0.4820  0.2844  0.0721
 1946DOPS   D2A22832  21.862  19.631  11.528 -0.0629  0.0570  0.1384
 1946DOPS   C3A22833  22.115  19.961  11.681 -0.0887  0.0446 -0.1568
 1946DOPS   C4A22834  22.036  20.447  11.781 -0.3309 -0.0896 -0.1659
 1946DOPS   C1B22835  21.442  19.152  11.559 -0.1550  0.0622  0.1025
 1946DOPS   D2B22836  21.335  19.569  11.731  0.2626  0.3713 -0.0629
 1946DOPS   C3B22837  21.473  19.959  12.040  0.1866 -0.0626  0.0803
 1946DOPS   C4B22838  21.833  19.994  12.379  0.1257 -0.0226 -0.2873
 1947DOPE   NH322839  11.559  22.276  12.166  0.1833 -0.0172  0.2706
 1947DOPE   PO422840  11.383  22.148  12.350 -0.1244 -0.1163 -0.3964
 1947DOPE   GL122841  11.334  22.127  12.732  0.4102 -0.0480 -0.2296
 1947DOPE   GL222842  11.155  22.328  12.837 -0.0516 -0.2090  0.0583
 1947DOPE   C1A22843  11.552  22.242  13.115 -0.0015 -0.2642  0.2309
 1947DOPE   D2A22844  11.658  22.123  13.575 -0.0891 -0.0568  0.4412
 1947DOPE   C3A22845  11.319  22.317  13.872  0.1215  0.3955 -0.0207
 1947DOPE   C4A22846  10.927  22.405  14.064 -0.0057  0.3539 -0.1269
 1947DOPE   C1B22847  11.101  21.971  13.199 -0.1721 -0.0805  0.2279
 1947DOPE   D2B22848  10.858  21.621  13.386  0.0133 -0.1388 -0.1914
 1947DOPE   C3B22849  11.003  21.315  13.712  0.0002  0.2625  0.0971
 1947DOPE   C4B22850  11.194  21.031  13.999  0.0323  0.3604 -0.0599
 1948DOPE   NH322851  16.247  18.835  11.764  0.0668  0.1990  0.0329
 1948DOPE   PO422852  16.143  18.564  11.913  0.1287 -0.2223 -0.0845
 1948DOPE   GL122853  16.173  18.666  12.307 -0.0639 -0.3850  0.2362
 1948DOPE   GL222854  15.966  18.636  12.466  0.0720  0.1278  0.3351
 1948DOPE   C1A22855  16.449  18.539  12.659  0.2953 -0.1021  0.0342
 1948DOPE   D2A22856  16.643  18.449  13.033  0.1465  0.0928 -0.1036
 1948DOPE   C3A22857  16.332  18.568  13.357 -0.0963 -0.3180 -0.2794
 1948DOPE   C4A22858  15.979  18.816  13.574 -0.0585  0.1302 -0.0135
 1948DOPE   C1B22859  16.075  18.204  12.502  0.2168  0.2202 -0.1990
 1948DOPE   D2B22860  16.183  17.748  12.436  0.2393 -0.2635  0.0895
 1948DOPE   C3B22861  15.986  17.386  12.614 -0.0382 -0.0264  0.1652
 1948DOPE   C4B22862  15.955  17.225  13.021 -0.0901  0.4066  0.2055
 1949POSM   NC322863  22.680  12.399  12.029  0.0220  0.1084  0.0654
 1949POSM   PO422864  22.495  12.041  12.066 -0.6491  0.1238  0.0467
 1949POSM   AM122865  22.424  11.931  12.384  0.1066  0.6274 -0.0667
 1949POSM   AM222866  22.143  11.894  12.449  0.3689 -0.2670  0.4328
 1949POSM   T1A22867  22.367  12.005  12.882  0.2695 -0.2646 -0.1017
 1949POSM   C2A22868  22.106  12.006  13.328  0.0720 -0.1377  0.2135
 1949POSM   C3A22869  21.684  12.149  13.393 -0.0981  0.0177 -0.1135
 1949POSM   C1B22870  21.896  11.834  12.651 -0.3167 -0.0832 -0.1399
 1949POSM   D2B22871  21.620  11.848  12.948 -0.1328 -0.1515  0.2180
 1949POSM   C3B22872  21.632  11.437  13.083 -0.0378 -0.0763 -0.1349
 1949POSM   C4B22873  21.420  11.199  13.414 -0.0068  0.1359 -0.1711
 1950DOPC   NC322874  20.177  16.736  11.248  0.2280  0.0137 -0.3048
 1950DOPC   PO422875  20.019  16.524  11.564  0.2144 -0.4383  0.1231
 1950DOPC   GL122876  19.710  16.325  11.727  0.0895 -0.0108  0.2686
 1950DOPC   GL222877  19.441  16.418  11.709 -0.0274 -0.1635  0.0469
 1950DOPC   C1A22878  19.529  16.161  12.162 -0.2404  0.2789 -0.3041
 1950DOPC   D2A22879  19.341  16.335  12.537 -0.2042 -0.2865  0.1950
 1950DOPC   C3A22880  19.056  16.697  12.500 -0.2898 -0.2513  0.2358
 1950DOPC   C4A22881  18.691  16.890  12.615  0.1151 -0.1400 -0.0279
 1950DOPC   C1B22882  19.145  16.350  12.049 -0.0308  0.1949  0.2907
 1950DOPC   D2B22883  18.814  16.355  12.334 -0.0339 -0.0771  0.1769
 1950DOPC   C3B22884  18.913  16.353  12.818  0.3785 -0.2997  0.0135
 1950DOPC   C4B22885  18.752  16.209  13.250 -0.0215  0.0642  0.0804
 1951DOPC   NC322886  14.299  18.142  12.438 -0.3032 -0.1169  0.1017
 1951DOPC   PO422887  14.351  17.897  12.138  0.0708 -0.0792  0.1955
 1951DOPC   GL122888  14.641  17.543  12.252 -0.4013  0.1711 -0.1967
 1951DOPC   GL222889  14.759  17.409  11.991 -0.0399  0.2557  0.1751
 1951DOPC   C1A22890  14.814  17.289  12.598  0.2417 -0.1028 -0.3404
 1951DOPC   D2A22891  14.785  17.028  12.997 -0.5011 -0.0541 -0.0725
 1951DOPC   C3A22892  15.143  16.779  13.209 -0.1487  0.0664 -0.0973
 1951DOPC   C4A22893  15.407  16.497  13.404 -0.2025  0.1823 -0.0160
 1951DOPC   C1B22894  15.199  17.443  12.123  0.0768  0.1844 -0.1094
 1951DOPC   D2B22895  15.621  17.646  12.251 -0.4072 -0.1145  0.0180
 1951DOPC   C3B22896  15.666  17.742  12.671  0.1562 -0.0499 -0.0481
 1951DOPC   C4B22897  15.935  17.775  13.077 -0.3871  0.0632  0.1033
 1952DOPE   NH322898  20.420  23.958  12.266 -0.2558  0.6383  0.0346
 1952DOPE   PO422899  20.415  24.020  11.981  0.2755  0.0219  0.0453
 1952DOPE   GL122900  20.467  23.556  12.043 -0.1906 -0.0703  0.1025
 1952DOPE   GL222901  20.284  23.501  11.793  0.1031 -0.1506 -0.0551
 1952DOPE   C1A22902  20.468  23.269  12.399 -0.0166 -0.0512 -0.1079
 1952DOPE   D2A22903  20.576  23.232  12.844 -0.1744 -0.0572 -0.2788
 1952DOPE   C3A22904  20.418  23.569  13.143  0.0600  0.0687  0.2784
 1952DOPE   C4A22905  20.445  23.934  13.413  0.1377 -0.0593 -0.0245
 1952DOPE   C1B22906  20.302  23.002  11.947 -0.0295  0.0623 -0.0939
 1952DOPE   D2B22907  20.142  22.661  12.133  0.0798 -0.1085  0.0903
 1952DOPE   C3B22908  20.450  22.370  12.323 -0.0930  0.2879 -0.4453
 1952DOPE   C4B22909  20.427  21.895  12.384  0.0815  0.2270 -0.3388
 1953POSM   NC322910  22.208  23.091  11.647 -0.0237  0.1765  0.1110
 1953POSM   PO422911  22.166  22.970  12.023 -0.0931 -0.2046  0.1297
 1953POSM   AM122912  22.015  22.733  12.214 -0.0819 -0.1171  0.1911
 1953POSM   AM222913  21.968  22.747  12.534  0.0502 -0.0419 -0.0192
 1953POSM   T1A22914  22.000  22.299  12.413 -0.4554 -0.1133 -0.2312
 1953POSM   C2A22915  21.923  21.969  12.785 -0.0418 -0.0173 -0.0764
 1953POSM   C3A22916  22.100  21.513  12.789  0.0551  0.2280  0.3569
 1953POSM   C1B22917  21.743  22.882  12.808  0.0438 -0.2391 -0.1022
 1953POSM   D2B22918  21.722  23.010  13.248  0.0216  0.3037 -0.4808
 1953POSM   C3B22919  22.073  23.159  13.552  0.1708 -0.0427  0.0621
 1953POSM   C4B22920  22.087  23.213  14.000  0.1601 -0.1159  0.0674
 1954DOPE   NH322921  17.745  18.697  11.878 -0.0441  0.2117 -0.0444
 1954DOPE   PO422922  17.510  18.763  12.068 -0.0226 -0.2256 -0.0974
 1954DOPE   GL122923  17.593  18.706  12.437  0.4296  0.1388  0.1944
 1954DOPE   GL222924  17.871  18.745  12.478  0.1950 -0.1665  0.1971
 1954DOPE   C1A22925  17.581  18.915  12.836 -0.1145  0.1390  0.0501
 1954DOPE   D2A22926  17.875  19.014  13.147  0.0793  0.0550  0.0540
 1954DOPE   C3A22927  18.218  19.296  13.097  0.1863  0.1352 -0.0606
 1954DOPE   C4A22928  18.585  19.509  13.247 -0.1325 -0.2184 -0.1678
 1954DOPE   C1B22929  17.701  18.474  12.794 -0.2268 -0.0498 -0.1936
 1954DOPE   D2B22930  17.870  18.020  12.665  0.1341 -0.0680  0.0346
 1954DOPE   C3B22931  17.656  17.640  12.710 -0.2043  0.4493  0.2052
 1954DOPE   C4B22932  17.554  17.428  13.136 -0.1739 -0.0373 -0.1853
 1955DOPC   NC322933  19.596  17.358  11.795  0.0850  0.2578  0.1164
 1955DOPC   PO422934  19.294  17.224  11.567 -0.1409  0.1447  0.0735
 1955DOPC   GL122935  19.186  17.467  11.775  0.2540  0.1437  0.3359
 1955DOPC   GL222936  19.166  17.393  12.066  0.1861 -0.1475  0.3392
 1955DOPC   C1A22937  19.406  17.855  11.965 -0.0868 -0.1509 -0.1810
 1955DOPC   D2A22938  19.891  17.859  12.131 -0.1793  0.1039 -0.3687
 1955DOPC   C3A22939  20.042  17.971  12.543  0.0671  0.0160  0.1781
 1955DOPC   C4A22940  20.334  18.131  12.807  0.0656  0.1131 -0.1477
 1955DOPC   C1B22941  19.139  17.271  12.523 -0.0127  0.0606  0.0005
 1955DOPC   D2B22942  19.115  17.103  12.918  0.0282  0.1769  0.0799
 1955DOPC   C3B22943  18.955  17.185  13.340 -0.0977 -0.1866  0.0668
 1955DOPC   C4B22944  18.534  17.173  13.499 -0.0320  0.0837 -0.0123
 1956DOPS   CNO22945  13.686  12.377  11.141 -0.0823  0.1005  0.1379
 1956DOPS   PO422946  13.441  12.205  11.364  0.1736 -0.3066  0.0285
 1956DOPS   GL122947  13.332  12.531  11.636 -0.0657  0.0154  0.2535
 1956DOPS   GL222948  13.449  12.613  11.864  0.1190  0.1699  0.1234
 1956DOPS   C1A22949  12.917  12.693  11.586  0.1474 -0.1128  0.0931
 1956DOPS   D2A22950  12.508  12.542  11.401  0.3053 -0.0857  0.1792
 1956DOPS   C3A22951  12.214  12.274  11.673 -0.1707 -0.0607 -0.1794
 1956DOPS   C4A22952  11.734  12.249  11.679  0.0349  0.0898 -0.0911
 1956DOPS   C1B22953  13.510  12.878  12.303  0.0940  0.0392 -0.2389
 1956DOPS   D2B22954  13.728  13.055  12.727  0.3562 -0.0208  0.0509
 1956DOPS   C3B22955  13.625  12.991  13.192 -0.0125  0.1742  0.0162
 1956DOPS   C4B22956  13.298  12.761  13.454  0.3036  0.1100 -0.4488
 1957DOPE   NH322957  15.608  21.494  11.824 -0.0569  0.0503 -0.1263
 1957DOPE   PO422958  15.677  21.359  12.101  0.0038 -0.2294 -0.0978
 1957DOPE   GL122959  15.508  21.332  12.498 -0.2452 -0.1135  0.1925
 1957DOPE   GL222960  15.759  21.493  12.604  0.0876 -0.0419  0.0041
 1957DOPE   C1A22961  15.123  21.272  12.688  0.0813 -0.4466 -0.0441
 1957DOPE   D2A22962  14.823  20.967  12.919  0.0256 -0.2213 -0.1390
 1957DOPE   C3A22963  14.444  20.766  12.828  0.0529  0.0332 -0.1551
 1957DOPE   C4A22964  14.213  20.379  12.814 -0.0106  0.3393  0.0720
 1957DOPE   C1B22965  15.971  21.375  13.041  0.0255  0.1717 -0.1147
 1957DOPE   D2B22966  16.168  21.547  13.430 -0.2359  0.0602 -0.2007
 1957DOPE   C3B22967  16.538  21.447  13.631 -0.0893 -0.1475  0.2775
 1957DOPE   C4B22968  16.820  21.103  13.676 -0.1516 -0.0123 -0.1759
 1958DOPE   NH322969  13.945  17.062  12.048  0.0823 -0.1541  0.1188
 1958DOPE   PO422970  14.147  16.818  11.942  0.1342 -0.0645 -0.2089
 1958DOPE   GL122971  14.238  16.712  12.367  0.2604  0.0991  0.1105
 1958DOPE   GL222972  13.989  16.768  12.461 -0.0356  0.3269 -0.0863
 1958DOPE   C1A22973  14.638  16.774  12.605  0.2613  0.0059 -0.2623
 1958DOPE   D2A22974  15.096  16.752  12.714  0.0963 -0.2978  0.3143
 1958DOPE   C3A22975  15.322  16.404  12.858 -0.1962  0.0826 -0.0262
 1958DOPE   C4A22976  15.415  15.931  12.899 -0.1161 -0.4940  0.0458
 1958DOPE   C1B22977  14.191  16.593  12.827 -0.4250 -0.0104  0.2656
 1958DOPE   D2B22978  14.233  16.271  13.081 -0.1745 -0.2420  0.0579
 1958DOPE   C3B22979  14.388  15.871  12.912  0.1716 -0.0886 -0.1389
 1958DOPE   C4B22980  14.245  15.417  12.906 -0.2413 -0.0613 -0.1276
 1959DOPS   CNO22981  22.902  22.595  11.635 -0.1314  0.2352 -0.2809
 1959DOPS   PO422982  22.595  22.805  11.794 -0.2054  0.3848  0.0530
 1959DOPS   GL122983  22.600  23.124  12.060  0.1687  0.2375  0.3068
 1959DOPS   GL222984  22.733  23.004  12.367  0.0315 -0.1280  0.1062
 1959DOPS   C1A22985  22.865  23.492  12.050  0.3295 -0.3346  0.0754
 1959DOPS   D2A22986  23.241  23.619  12.343 -0.3980 -0.0482  0.4709
 1959DOPS   C3A22987  23.206  23.359  12.700 -0.2253  0.0131 -0.0526
 1959DOPS   C4A22988  22.941  22.972  12.805 -0.0431 -0.1369  0.1230
 1959DOPS   C1B22989  22.441  23.024  12.675  0.2654 -0.0236 -0.2149
 1959DOPS   D2B22990  22.324  22.824  13.043  0.2125  0.0879 -0.1554
 1959DOPS   C3B22991  22.427  22.845  13.483  0.0735 -0.0289 -0.1300
 1959DOPS   C4B22992  22.736  22.583  13.723  0.0375  0.2269 -0.1834
 1960DOPE   NH322993  22.839  14.009  12.310 -0.0208 -0.2737 -0.2585
 1960DOPE   PO422994  23.092  14.182  12.362  0.0221  0.1881 -0.0864
 1960DOPE   GL122995  23.015  14.230  12.653 -0.1781 -0.0592  0.1030
 1960DOPE   GL222996  23.056  14.068  12.871  0.4080  0.0045  0.2404
 1960DOPE   C1A22997  22.605  14.229  12.797 -0.0500  0.0251 -0.0954
 1960DOPE   D2A22998  22.254  14.495  12.899 -0.2565 -0.1433 -0.4457
 1960DOPE   C3A22999  21.781  14.403  13.020 -0.3394 -0.4308  0.2731
 1960DOPE   C4A23000  21.511  14.563  13.347  0.1597 -0.6646 -0.2286
 1960DOPE   C1B23001  23.099  13.614  12.858 -0.1899  0.1511 -0.0078
 1960DOPE   D2B23002  23.278  13.223  12.727 -0.3270  0.2923  0.1084
 1960DOPE   C3B23003  23.592  13.117  13.055 -0.1587 -0.0724 -0.1002
 1960DOPE   C4B23004  23.939  13.016  13.333  0.0347 -0.1270 -0.0075
 1961DOPS   CNO23005  17.267  13.037  11.949 -0.0210 -0.2340  0.1260
 1961DOPS   PO423006  17.322  12.846  11.649  0.0290 -0.0021  0.0531
 1961DOPS   GL123007  17.284  12.513  11.845 -0.3220  0.3866 -0.1410
 1961DOPS   GL223008  17.483  12.267  11.692  0.3230 -0.1096 -0.4374
 1961DOPS   C1A23009  16.870  12.253  11.932  0.2451  0.0875 -0.3768
 1961DOPS   D2A23010  16.450  12.303  12.069  0.2808  0.1054  0.0292
 1961DOPS   C3A23011  16.282  12.566  12.424 -0.1293  0.3113  0.0924
 1961DOPS   C4A23012  16.483  12.863  12.737 -0.2005  0.1982 -0.0792
 1961DOPS   C1B23013  17.287  11.793  11.686  0.0761 -0.0008  0.0979
 1961DOPS   D2B23014  16.900  11.563  11.811 -0.0245  0.0237  0.0561
 1961DOPS   C3B23015  16.633  11.556  12.184  0.2049  0.1438  0.2454
 1961DOPS   C4B23016  16.499  11.490  12.612 -0.0082  0.2632  0.1905
 1962DOPS   CNO23017  23.978  12.102  11.594 -0.0383  0.1575  0.2915
 1962DOPS   PO423018  23.609  12.249  11.687  0.0330  0.1079 -0.0025
 1962DOPS   GL123019  23.512  12.302  12.028 -0.3044 -0.1171  0.1916
 1962DOPS   GL223020  23.253  12.455  12.012  0.0873 -0.0504  0.0862
 1962DOPS   C1A23021  23.538  12.489  12.429  0.1413  0.2971 -0.1516
 1962DOPS   D2A23022  23.380  12.731  12.756  0.0627  0.1024  0.1240
 1962DOPS   C3A23023  23.109  12.370  12.934  0.1073 -0.1050  0.2522
 1962DOPS   C4A23024  22.797  12.159  13.178  0.2554  0.0567 -0.0771
 1962DOPS   C1B23025  23.082  12.398  12.387 -0.2214  0.0283  0.0899
 1962DOPS   D2B23026  22.667  12.296  12.655  0.0335  0.0842  0.1166
 1962DOPS   C3B23027  22.263  12.580  12.729 -0.0192  0.1024 -0.5477
 1962DOPS   C4B23028  21.995  12.928  12.535 -0.1994  0.2157  0.0230
 1963DOPC   NC323029  17.082  13.811  12.042  0.1320  0.4604 -0.1300
 1963DOPC   PO423030  17.099  13.867  11.620  0.1857 -0.1500  0.1910
 1963DOPC   GL123031  16.760  13.707  11.667 -0.0604 -0.1645  0.0898
 1963DOPC   GL223032  16.605  13.862  11.873 -0.2222 -0.0864 -0.0453
 1963DOPC   C1A23033  16.375  13.418  11.759  0.0045  0.3748  0.0032
 1963DOPC   D2A23034  15.975  13.645  11.897 -0.1248 -0.0604 -0.1227
 1963DOPC   C3A23035  15.576  13.578  11.928 -0.1686 -0.0448  0.4017
 1963DOPC   C4A23036  15.416  13.405  12.313 -0.0914 -0.0638  0.0903
 1963DOPC   C1B23037  16.347  13.753  12.197  0.0589  0.1360  0.4263
 1963DOPC   D2B23038  15.971  13.619  12.373  0.0748  0.1432  0.2301
 1963DOPC   C3B23039  15.696  13.591  12.715  0.1117 -0.1830  0.0648
 1963DOPC   C4B23040  15.690  13.351  13.106  0.0101  0.0093  0.1031
 1964DOPC   NC323041  23.017  17.779  12.329 -0.2245 -0.1642 -0.1594
 1964DOPC   PO423042  22.921  17.523  12.036  0.0442 -0.2204 -0.0127
 1964DOPC   GL123043  22.686  17.782  11.924  0.3364  0.0592  0.3012
 1964DOPC   GL223044  22.520  17.986  12.082 -0.2452  0.2297 -0.2071
 1964DOPC   C1A23045  22.209  17.726  11.757 -0.3983 -0.2984 -0.1242
 1964DOPC   D2A23046  21.832  17.786  11.953  0.0736  0.1158  0.4843
 1964DOPC   C3A23047  21.955  17.646  12.412 -0.1051  0.0397 -0.3335
 1964DOPC   C4A23048  21.834  17.983  12.732  0.0973  0.0297  0.1700
 1964DOPC   C1B23049  22.116  18.074  12.189  0.2098 -0.1040 -0.0093
 1964DOPC   D2B23050  21.615  18.105  12.237 -0.1417 -0.2188  0.2464
 1964DOPC   C3B23051  21.394  18.205  12.699  0.1873  0.0281  0.2701
 1964DOPC   C4B23052  20.971  18.143  12.898 -0.0177  0.0372  0.2450
 1965DOPE   NH323053  17.924  14.257  11.555  0.2407 -0.1067 -0.0233
 1965DOPE   PO423054  17.995  14.560  11.617 -0.1637  0.0309 -0.1148
 1965DOPE   GL123055  18.009  14.701  12.039  0.0056  0.3710  0.1214
 1965DOPE   GL223056  17.963  14.968  12.125 -0.1082 -0.1279 -0.0309
 1965DOPE   C1A23057  18.060  14.628  12.495 -0.1337 -0.1817  0.2081
 1965DOPE   D2A23058  18.420  14.501  12.784  0.1533 -0.0808  0.1137
 1965DOPE   C3A23059  18.623  14.843  13.064  0.2946  0.1511 -0.1546
 1965DOPE   C4A23060  18.490  15.247  13.315 -0.1473 -0.1298 -0.0191
 1965DOPE   C1B23061  17.968  15.337  12.436  0.0460 -0.2398  0.2460
 1965DOPE   D2B23062  18.158  15.553  12.769  0.4551 -0.3696 -0.1563
 1965DOPE   C3B23063  17.938  15.889  13.081  0.2162 -0.1465  0.0911
 1965DOPE   C4B23064  17.563  16.126  13.144  0.3584 -0.1924  0.0708
 1966DOPC   NC323065  20.777  22.797  11.863 -0.0509  0.2037  0.2227
 1966DOPC   PO423066  21.155  22.855  11.976  0.1044 -0.2609  0.1018
 1966DOPC   GL123067  21.196  22.882  12.402  0.0363 -0.2125 -0.3108
 1966DOPC   GL223068  21.278  22.603  12.530  0.1224  0.0780 -0.0343
 1966DOPC   C1A23069  20.985  22.945  12.808 -0.3820 -0.1533  0.2137
 1966DOPC   D2A23070  20.860  22.927  13.221  0.0438 -0.3865 -0.1627
 1966DOPC   C3A23071  21.228  23.005  13.489 -0.2934 -0.0962 -0.1455
 1966DOPC   C4A23072  21.606  23.246  13.640  0.1518  0.2211  0.0318
 1966DOPC   C1B23073  21.690  22.409  12.765 -0.3640  0.0498  0.0361
 1966DOPC   D2B23074  21.845  22.236  13.181 -0.1655 -0.0321  0.1551
 1966DOPC   C3B23075  21.893  22.583  13.470  0.1534  0.2251 -0.0994
 1966DOPC   C4B23076  21.740  22.804  13.804 -0.0903 -0.2634 -0.1177
 1967POSM   NC323077  17.356  14.322  11.492 -0.2557 -0.0235  0.0400
 1967POSM   PO423078  17.297  14.310  11.916  0.3707  0.1756  0.1285
 1967POSM   AM123079  17.323  14.241  12.223  0.0173  0.0704 -0.1046
 1967POSM   AM223080  17.436  14.042  12.387  0.1562  0.3157  0.3862
 1967POSM   T1A23081  17.004  14.198  12.633  0.0217  0.2691  0.2838
 1967POSM   C2A23082  16.620  14.398  12.753  0.0022 -0.5080  0.2636
 1967POSM   C3A23083  16.523  14.834  12.945  0.0158  0.3626 -0.1461
 1967POSM   C1B23084  17.610  13.952  12.612 -0.1213  0.0117  0.1134
 1967POSM   D2B23085  17.643  13.744  13.057  0.0188 -0.0755 -0.0927
 1967POSM   C3B23086  18.036  13.528  13.177 -0.2210  0.1634  0.2573
 1967POSM   C4B23087  18.207  13.144  13.345 -0.1094  0.1361 -0.0080
 1968DOPC   NC323088  15.434  20.911  12.192  0.0945 -0.0075 -0.0540
 1968DOPC   PO423089  15.536  20.949  11.814  0.0772 -0.0998  0.1608
 1968DOPC   GL123090  15.249  20.702  11.781 -0.3114 -0.1732 -0.0766
 1968DOPC   GL223091  14.984  20.932  11.780  0.2377 -0.1509 -0.2273
 1968DOPC   C1A23092  15.141  20.297  11.914  0.2697  0.2122 -0.0288
 1968DOPC   D2A23093  14.791  20.188  12.181  0.2589 -0.1538 -0.1533
 1968DOPC   C3A23094  14.436  19.911  11.967 -0.1236 -0.2633  0.0438
 1968DOPC   C4A23095  14.170  19.603  11.721 -0.0975  0.2006  0.0852
 1968DOPC   C1B23096  14.689  20.621  11.961 -0.0082 -0.1849  0.1092
 1968DOPC   D2B23097  14.334  20.357  12.144  0.1467 -0.0621 -0.0579
 1968DOPC   C3B23098  14.435  20.048  12.530  0.0648  0.0443  0.1057
 1968DOPC   C4B23099  14.214  19.799  12.850  0.3713 -0.1630 -0.1823
 1969DOPC   NC323100  17.462  20.032  11.559 -0.0538 -0.1077  0.3034
 1969DOPC   PO423101  17.496  19.650  11.678 -0.1178 -0.0144 -0.0428
 1969DOPC   GL123102  17.718  19.980  11.959 -0.1132 -0.0898 -0.0286
 1969DOPC   GL223103  17.808  19.899  12.269  0.2721 -0.1764 -0.1206
 1969DOPC   C1A23104  17.844  20.405  12.064 -0.0699  0.1345  0.2491
 1969DOPC   D2A23105  18.247  20.595  12.107  0.1991 -0.1784  0.0438
 1969DOPC   C3A23106  18.585  20.704  12.311  0.2481  0.1074 -0.4754
 1969DOPC   C4A23107  18.573  20.805  12.747 -0.0790  0.0258 -0.1245
 1969DOPC   C1B23108  18.256  19.983  12.124 -0.0406  0.1620 -0.1808
 1969DOPC   D2B23109  18.654  19.728  12.177 -0.0422 -0.0227 -0.0092
 1969DOPC   C3B23110  19.044  19.903  12.343 -0.1437  0.3223 -0.1464
 1969DOPC   C4B23111  19.246  20.064  12.661  0.0461  0.0607 -0.5614
 1970DOPE   NH323112  15.395  21.797  12.249  0.1160  0.1007 -0.5234
 1970DOPE   PO423113  15.135  21.890  12.046  0.0584  0.0038 -0.0286
 1970DOPE   GL123114  14.800  21.714  12.184 -0.1928  0.1946  0.2672
 1970DOPE   GL223115  14.592  21.878  12.059 -0.1587  0.1586  0.1839
 1970DOPE   C1A23116  14.685  21.363  12.475  0.0550  0.0289 -0.3718
 1970DOPE   D2A23117  14.359  21.228  12.728  0.3744 -0.0856  0.0641
 1970DOPE   C3A23118  14.028  21.275  13.079 -0.2870 -0.0694 -0.3743
 1970DOPE   C4A23119  13.643  21.093  13.306 -0.0976 -0.0805  0.1429
 1970DOPE   C1B23120  14.329  21.981  12.424 -0.0263  0.1219  0.4109
 1970DOPE   D2B23121  13.979  21.743  12.585 -0.2772  0.1402  0.5134
 1970DOPE   C3B23122  13.954  21.799  13.067 -0.1034 -0.1420 -0.2275
 1970DOPE   C4B23123  14.151  22.133  13.296 -0.1985  0.1965 -0.0951
 1971DOPE   NH323124  12.263  22.867  12.360 -0.0624  0.0640 -0.1112
 1971DOPE   PO423125  12.544  22.924  12.433  0.4783 -0.0042  0.1466
 1971DOPE   GL123126  12.942  22.784  12.260 -0.1855 -0.0923 -0.0328
 1971DOPE   GL223127  13.116  22.701  12.482  0.1716 -0.0068  0.0198
 1971DOPE   C1A23128  13.013  22.387  11.980 -0.0441  0.0661  0.0952
 1971DOPE   D2A23129  13.324  22.156  11.769 -0.0658  0.0530  0.1025
 1971DOPE   C3A23130  13.408  21.729  11.994 -0.1207 -0.1129  0.0690
 1971DOPE   C4A23131  13.613  21.499  12.324 -0.1827  0.1180 -0.2886
 1971DOPE   C1B23132  13.171  22.345  12.723  0.2179  0.1915 -0.1811
 1971DOPE   D2B23133  13.115  22.297  13.152 -0.1408  0.0019  0.1393
 1971DOPE   C3B23134  13.327  22.499  13.445 -0.1101 -0.0444  0.0644
 1971DOPE   C4B23135  13.444  22.661  13.877  0.1168 -0.0629 -0.2970
 1972DOPC   NC323136  11.467  17.131  12.372  0.2377 -0.2275  0.4457
 1972DOPC   PO423137  11.232  17.183  12.020  0.1177  0.0123 -0.0009
 1972DOPC   GL123138  11.068  17.413  12.371  0.0774 -0.0461 -0.0552
 1972DOPC   GL223139  10.897  17.553  12.567  0.0303  0.2575 -0.0595
 1972DOPC   C1A23140  11.062  17.829  12.146 -0.0367  0.0716  0.2461
 1972DOPC   D2A23141  11.145  18.320  12.229 -0.1991 -0.2068 -0.1252
 1972DOPC   C3A23142  11.032  18.442  12.657 -0.1716  0.0312  0.0426
 1972DOPC   C4A23143  10.997  18.526  13.102 -0.1860 -0.0672  0.0003
 1972DOPC   C1B23144  10.880  17.629  13.042 -0.1239 -0.1617 -0.0051
 1972DOPC   D2B23145  10.723  17.682  13.475  0.2911 -0.0531 -0.2048
 1972DOPC   C3B23146  10.459  17.953  13.687 -0.1110 -0.0090 -0.1061
 1972DOPC   C4B23147  10.182  18.287  13.707 -0.0714  0.1389  0.0131
 1973DOPE   NH323148  21.065  17.183  11.832  0.1816  0.4842 -0.0915
 1973DOPE   PO423149  21.215  17.148  12.121  0.3318 -0.0432  0.1893
 1973DOPE   GL123150  21.610  17.254  12.216  0.0412  0.1726 -0.1235
 1973DOPE   GL223151  21.619  17.266  12.513  0.2275 -0.0466 -0.2031
 1973DOPE   C1A23152  22.057  17.219  12.177 -0.1019  0.2421  0.1342
 1973DOPE   D2A23153  22.430  17.495  12.185  0.1217 -0.0898  0.0087
 1973DOPE   C3A23154  22.465  17.702  12.609  0.0694  0.0364 -0.0961
 1973DOPE   C4A23155  22.240  17.647  13.014 -0.0092  0.1833 -0.1316
 1973DOPE   C1B23156  21.271  17.337  12.901  0.1695  0.0277  0.0988
 1973DOPE   D2B23157  21.210  17.444  13.343 -0.1850 -0.4167 -0.3171
 1973DOPE   C3B23158  20.978  17.859  13.408 -0.1286  0.0581  0.2226
 1973DOPE   C4B23159  20.589  17.887  13.194  0.2548 -0.0329  0.1359
 1974DOPS   CNO23160  18.333  22.575  11.948 -0.2591  0.1744  0.2513
 1974DOPS   PO423161  18.588  22.557  12.255 -0.2070  0.2151 -0.0830
 1974DOPS   GL123162  18.533  22.284  12.562  0.1678  0.3039  0.0457
 1974DOPS   GL223163  18.604  22.420  12.857  0.2746 -0.0919 -0.1414
 1974DOPS   C1A23164  18.498  21.885  12.816 -0.0468  0.0717 -0.1534
 1974DOPS   D2A23165  18.371  21.787  13.238 -0.0614  0.1087 -0.0571
 1974DOPS   C3A23166  18.355  21.965  13.705  0.0327 -0.1364 -0.0512
 1974DOPS   C4A23167  18.093  22.218  13.962  0.0180  0.0599  0.0938
 1974DOPS   C1B23168  18.328  22.276  13.135 -0.0538  0.1825  0.1521
 1974DOPS   D2B23169  18.112  22.338  13.466 -0.2807  0.1097 -0.0579
 1974DOPS   C3B23170  17.665  22.471  13.443  0.1299 -0.0161 -0.0501
 1974DOPS   C4B23171  17.253  22.692  13.408  0.0766 -0.0446  0.4985
 1975DOPC   NC323172  14.931  22.783  11.994 -0.0580  0.1063 -0.1452
 1975DOPC   PO423173  14.951  22.420  12.028  0.0464  0.4522 -0.0173
 1975DOPC   GL123174  14.836  22.230  12.342  0.2572 -0.0758  0.3764
 1975DOPC   GL223175  14.658  22.434  12.478  0.1567 -0.0472  0.2264
 1975DOPC   C1A23176  14.850  21.959  12.691 -0.0323  0.3908  0.0073
 1975DOPC   D2A23177  14.529  21.723  12.946  0.0607  0.0422 -0.1740
 1975DOPC   C3A23178  14.392  21.488  13.363  0.1160  0.0791 -0.1517
 1975DOPC   C4A23179  14.655  21.379  13.720 -0.1166  0.0221 -0.0840
 1975DOPC   C1B23180  14.620  22.667  12.817  0.1709 -0.3022  0.1668
 1975DOPC   D2B23181  14.585  22.835  13.222  0.0174  0.0875 -0.3434
 1975DOPC   C3B23182  14.515  22.473  13.501  0.1466  0.0730  0.0513
 1975DOPC   C4B23183  14.192  22.243  13.802  0.0928 -0.1635  0.0637
 1976POSM   NC323184  21.139  17.416  11.214  0.2601  0.1078 -0.3734
 1976POSM   PO423185  21.022  17.756  11.111 -0.3034 -0.1136  0.0200
 1976POSM   AM123186  20.948  17.950  11.378 -0.1317  0.7547 -0.0175
 1976POSM   AM223187  20.943  18.078  11.606 -0.4259 -0.0076  0.2496
 1976POSM   T1A23188  20.470  18.136  11.424 -0.1709 -0.2103  0.0560
 1976POSM   C2A23189  20.024  18.214  11.389 -0.0006 -0.2676 -0.2528
 1976POSM   C3A23190  19.753  17.973  11.088  0.3220 -0.1372  0.0581
 1976POSM   C1B23191  20.951  18.099  11.896 -0.0656  0.1221  0.1415
 1976POSM   D2B23192  21.059  18.208  12.307  0.0169  0.0068 -0.0637
 1976POSM   C3B23193  20.986  18.541  12.633 -0.0403 -0.0888 -0.0141
 1976POSM   C4B23194  21.318  18.686  12.912  0.1384  0.1154 -0.1002
 1977DOPC   NC323195  12.462  18.790  11.895  0.1359 -0.0658  0.0506
 1977DOPC   PO423196  12.644  18.795  12.245 -0.1268  0.1998 -0.2658
 1977DOPC   GL123197  12.679  18.574  12.573  0.0350 -0.0080  0.1684
 1977DOPC   GL223198  12.516  18.305  12.580  0.3905  0.2377 -0.0011
 1977DOPC   C1A23199  12.639  18.862  12.937 -0.0561  0.0061 -0.0111
 1977DOPC   D2A23200  12.295  18.848  13.257 -0.0314  0.1432 -0.0901
 1977DOPC   C3A23201  12.018  18.451  13.242  0.2937  0.0733 -0.1101
 1977DOPC   C4A23202  11.785  18.073  13.145  0.1584 -0.0312 -0.1060
 1977DOPC   C1B23203  12.378  18.234  12.967  0.1243  0.0747  0.2305
 1977DOPC   D2B23204  12.751  18.100  13.214 -0.2421 -0.0914  0.0164
 1977DOPC   C3B23205  13.059  17.825  13.185 -0.2107  0.1283 -0.1954
 1977DOPC   C4B23206  13.335  17.514  13.362 -0.2700  0.0861 -0.1061
 1978POSM   NC323207  16.877  19.858  11.628  0.0177 -0.2279  0.3240
 1978POSM   PO423208  17.014  19.512  11.811  0.0305  0.1431  0.3199
 1978POSM   AM123209  17.152  19.811  11.942 -0.1485  0.0918 -0.2853
 1978POSM   AM223210  17.113  20.089  11.971 -0.2344 -0.1774 -0.1658
 1978POSM   T1A23211  17.322  19.963  12.412  0.1341  0.1387 -0.2671
 1978POSM   C2A23212  17.240  20.287  12.789  0.2408  0.1281  0.0656
 1978POSM   C3A23213  16.862  20.593  12.826  0.1951  0.0503 -0.3040
 1978POSM   C1B23214  17.312  20.330  12.092  0.4027  0.5719  0.2909
 1978POSM   D2B23215  17.513  20.593  12.405  0.3101  0.4968 -0.0295
 1978POSM   C3B23216  17.928  20.388  12.520 -0.0882 -0.0468  0.1515
 1978POSM   C4B23217  18.271  20.164  12.636  0.1374  0.1407  0.1502
 1979DOPE   NH323218  13.379  17.866  12.423  0.3694  0.2336  0.2805
 1979DOPE   PO423219  13.415  18.152  12.187  0.2620 -0.1208 -0.1671
 1979DOPE   GL123220  13.608  18.428  12.215  0.0605 -0.1395 -0.1467
 1979DOPE   GL223221  13.888  18.267  12.158  0.0780 -0.0099 -0.3513
 1979DOPE   C1A23222  13.587  18.869  12.486 -0.4010 -0.0471  0.0822
 1979DOPE   D2A23223  13.640  19.207  12.799 -0.1395  0.4009  0.2981
 1979DOPE   C3A23224  13.807  19.110  13.201  0.3013 -0.0054 -0.0678
 1979DOPE   C4A23225  13.797  18.985  13.600  0.0665 -0.1719  0.0723
 1979DOPE   C1B23226  14.032  18.577  12.439  0.2386  0.0885 -0.1969
 1979DOPE   D2B23227  14.007  18.809  12.805  0.0619 -0.0206  0.1095
 1979DOPE   C3B23228  14.153  19.273  12.866  0.3218  0.0964  0.2993
 1979DOPE   C4B23229  14.443  19.384  13.157 -0.0326 -0.0520  0.1815
 1980DOPE   NH323230  21.256  17.626  11.673 -0.1875  0.0510  0.1863
 1980DOPE   PO423231  21.346  17.642  11.998  0.1352  0.4438 -0.1465
 1980DOPE   GL123232  21.235  17.756  12.273 -0.0864  0.0647  0.2613
 1980DOPE   GL223233  21.421  17.702  12.533  0.7766  0.1850 -0.0970
 1980DOPE   C1A23234  20.924  17.639  12.598 -0.1525  0.1242 -0.1450
 1980DOPE   D2A23235  20.786  17.449  13.012  0.1567 -0.2925 -0.2875
 1980DOPE   C3A23236  20.703  17.365  13.480  0.0191  0.0816  0.0314
 1980DOPE   C4A23237  20.874  17.295  13.848 -0.0135 -0.1197  0.0620
 1980DOPE   C1B23238  21.359  17.808  12.984 -0.0701  0.1370  0.1038
 1980DOPE   D2B23239  21.404  18.122  13.342 -0.2073  0.0937  0.0666
 1980DOPE   C3B23240  21.631  18.510  13.294  0.0073 -0.2171  0.0885
 1980DOPE   C4B23241  21.853  18.726  12.949 -0.0374  0.1991 -0.1361
 1981DOPS   CNO23242  19.193  11.783  11.795 -0.0666 -0.0994 -0.0214
 1981DOPS   PO423243  18.987  11.882  12.086  0.1933 -0.1808 -0.1342
 1981DOPS   GL123244  19.094  11.734  12.430 -0.0376 -0.0573  0.1593
 1981DOPS   GL223245  19.078  11.917  12.561 -0.0181 -0.1767  0.1044
 1981DOPS   C1A23246  18.808  11.480  12.671  0.0849 -0.3744  0.1306
 1981DOPS   D2A23247  18.585  11.105  12.848  0.0083 -0.0545 -0.2812
 1981DOPS   C3A23248  18.862  10.859  13.121 -0.2364 -0.3608  0.0830
 1981DOPS   C4A23249  19.036  10.503  13.384 -0.2386  0.1637  0.4306
 1981DOPS   C1B23250  19.287  11.627  12.870  0.2331  0.0333  0.2862
 1981DOPS   D2B23251  19.204  11.619  13.283  0.0395  0.1668  0.3909
 1981DOPS   C3B23252  18.797  11.412  13.157 -0.0206 -0.0851 -0.1322
 1981DOPS   C4B23253  18.382  11.287  13.343 -0.0140  0.2018  0.1451
 1982DOPE   NH323254  12.091  11.502  12.189  0.1654 -0.0480  0.0589
 1982DOPE   PO423255  11.953  11.668  11.993 -0.0466  0.1127 -0.0407
 1982DOPE   GL123256  12.095  11.968  12.237 -0.0826  0.1896  0.3672
 1982DOPE   GL223257  12.376  12.015  12.154  0.0511 -0.0873  0.3017
 1982DOPE   C1A23258  12.198  12.392  12.413 -0.0696 -0.2524  0.1804
 1982DOPE   D2A23259  12.321  12.765  12.619  0.0266 -0.2049 -0.1427
 1982DOPE   C3A23260  12.296  13.106  12.925  0.4065 -0.1535  0.0638
 1982DOPE   C4A23261  12.559  13.394  13.255  0.0364 -0.0474 -0.1204
 1982DOPE   C1B23262  12.632  12.366  12.111 -0.0369 -0.0582  0.1380
 1982DOPE   D2B23263  12.742  12.800  12.219 -0.2373 -0.0465 -0.2090
 1982DOPE   C3B23264  12.442  13.142  12.297  0.0644  0.1076 -0.1154
 1982DOPE   C4B23265  12.111  13.344  12.073 -0.0310 -0.1457  0.1511
 1983DOPE   NH323266  20.501  13.177  11.765 -0.1296 -0.2527 -0.1364
 1983DOPE   PO423267  20.216  13.085  11.642  0.1970 -0.2720 -0.2012
 1983DOPE   GL123268  20.443  12.717  11.759  0.0880 -0.2880 -0.2151
 1983DOPE   GL223269  20.385  12.671  12.041 -0.0352  0.5138  0.1315
 1983DOPE   C1A23270  20.856  12.807  11.983 -0.0363 -0.1837 -0.1902
 1983DOPE   D2A23271  21.105  12.774  12.388  0.0905  0.4239  0.1666
 1983DOPE   C3A23272  21.503  13.031  12.305 -0.2395  0.0026 -0.1601
 1983DOPE   C4A23273  21.783  13.101  11.926  0.0264  0.1733  0.1162
 1983DOPE   C1B23274  20.657  12.433  12.349 -0.0700 -0.0115 -0.1641
 1983DOPE   D2B23275  20.850  12.296  12.749 -0.2082  0.1963  0.1452
 1983DOPE   C3B23276  20.547  12.289  13.100 -0.0937 -0.1455  0.1415
 1983DOPE   C4B23277  20.272  12.429  13.461 -0.2556  0.1589  0.0532
 1984POSM   NC323278  23.973  21.204  11.677 -0.0050  0.2776 -0.2898
 1984POSM   PO423279  23.733  21.059  11.965 -0.2692  0.2259  0.0569
 1984POSM   AM123280  23.419  21.080  12.098  0.2569 -0.1595  0.2024
 1984POSM   AM223281  23.274  21.250  12.251 -0.4337  0.2358  0.0667
 1984POSM   T1A23282  22.931  20.842  12.035 -0.0750  0.1415  0.1306
 1984POSM   C2A23283  22.541  20.602  12.101  0.2213 -0.0963 -0.3548
 1984POSM   C3A23284  22.234  20.275  12.233  0.1687  0.1787  0.3924
 1984POSM   C1B23285  23.170  21.154  12.587  0.1789 -0.2320 -0.1859
 1984POSM   D2B23286  23.092  21.332  13.042 -0.0713 -0.3462  0.0498
 1984POSM   C3B23287  23.126  21.614  13.384 -0.0386  0.1606 -0.1162
 1984POSM   C4B23288  23.209  21.812  13.790 -0.1665 -0.1481 -0.0987
 1985DOPC   NC323289  22.626  18.909  11.171 -0.0314  0.2475 -0.3746
 1985DOPC   PO423290  22.868  19.101  11.459 -0.1075 -0.2827 -0.0023
 1985DOPC   GL123291  22.853  19.275  11.929 -0.2379 -0.1430  0.2409
 1985DOPC   GL223292  23.161  19.362  11.909  0.0320  0.1480 -0.1106
 1985DOPC   C1A23293  22.513  19.487  12.177 -0.0496  0.0218 -0.0269
 1985DOPC   D2A23294  22.307  19.813  12.302 -0.1220  0.2561  0.2166
 1985DOPC   C3A23295  22.059  19.500  12.516 -0.0959  0.1795  0.1132
 1985DOPC   C4A23296  21.810  19.052  12.502 -0.5525  0.2310 -0.0910
 1985DOPC   C1B23297  23.479  19.693  11.971  0.2998  0.4257 -0.0175
 1985DOPC   D2B23298  23.841  19.969  12.175 -0.2976  0.2962 -0.0365
 1985DOPC   C3B23299  23.719  20.371  12.423 -0.1342  0.2041 -0.0573
 1985DOPC   C4B23300  23.383  20.417  12.801 -0.0994 -0.2785  0.0135
 1986DOPC   NC323301  15.012  11.433  11.865 -0.2344  0.1326  0.4224
 1986DOPC   PO423302  15.122  11.643  11.569  0.0447 -0.0123  0.0788
 1986DOPC   GL123303  15.228  11.868  11.869 -0.1500  0.2771 -0.1182
 1986DOPC   GL223304  15.032  11.906  12.066  0.1048 -0.1565 -0.0442
 1986DOPC   C1A23305  15.685  11.787  11.918 -0.1810  0.0792 -0.1142
 1986DOPC   D2A23306  16.098  11.656  11.947 -0.1029  0.2328  0.2624
 1986DOPC   C3A23307  16.232  11.903  12.291 -0.1717  0.0669  0.0432
 1986DOPC   C4A23308  16.254  11.943  12.706 -0.0345  0.1509 -0.2469
 1986DOPC   C1B23309  15.349  12.077  12.371 -0.3463 -0.1523 -0.1936
 1986DOPC   D2B23310  15.394  12.145  12.781  0.0880 -0.1379 -0.1957
 1986DOPC   C3B23311  15.420  11.725  12.939  0.2097 -0.0465 -0.0936
 1986DOPC   C4B23312  15.678  11.340  12.933  0.1965 -0.1883  0.1239
 1987DOPE   NH323313  14.660  11.959  11.367  0.0096  0.1395 -0.1438
 1987DOPE   PO423314  14.726  11.931  11.702 -0.1669  0.0778 -0.1077
 1987DOPE   GL123315  14.840  12.308  12.005 -0.0930 -0.3971  0.0195
 1987DOPE   GL223316  14.844  12.540  11.882 -0.2540 -0.3404  0.0500
 1987DOPE   C1A23317  15.116  12.539  12.288  0.1228 -0.1701 -0.0054
 1987DOPE   D2A23318  15.507  12.819  12.256 -0.2752 -0.1137 -0.0933
 1987DOPE   C3A23319  15.617  13.095  12.601  0.2591 -0.3477  0.0493
 1987DOPE   C4A23320  16.004  13.122  12.750 -0.2998  0.3194  0.0992
 1987DOPE   C1B23321  14.669  12.652  12.326 -0.1448 -0.0418  0.1071
 1987DOPE   D2B23322  14.566  12.517  12.728 -0.0038 -0.2063 -0.2620
 1987DOPE   C3B23323  14.787  12.811  13.038 -0.1390  0.1736 -0.2046
 1987DOPE   C4B23324  14.772  12.641  13.524 -0.2373 -0.3562 -0.2120
 1988DOPE   NH323325  19.673  16.856  11.431 -0.2261 -0.0293  0.4617
 1988DOPE   PO423326  19.647  16.664  11.139 -0.0262  0.1502 -0.2008
 1988DOPE   GL123327  19.437  16.232  11.255 -0.2543  0.0548 -0.1151
 1988DOPE   GL223328  19.721  16.137  11.272 -0.1128 -0.0313 -0.1121
 1988DOPE   C1A23329  19.128  16.055  11.579  0.0577  0.2946  0.1835
 1988DOPE   D2A23330  19.123  15.876  12.039  0.0819  0.0855 -0.0283
 1988DOPE   C3A23331  19.347  15.746  12.388 -0.0433  0.2583 -0.2099
 1988DOPE   C4A23332  19.364  15.896  12.850  0.1254 -0.2237  0.1129
 1988DOPE   C1B23333  19.674  15.892  11.668  0.3299 -0.0709  0.0487
 1988DOPE   D2B23334  19.906  15.803  12.119 -0.0448 -0.2061 -0.0724
 1988DOPE   C3B23335  19.907  16.014  12.504  0.1996 -0.3225  0.0517
 1988DOPE   C4B23336  20.187  16.013  12.887  0.0553 -0.0218 -0.0446
 1989POSM   NC323337  17.814  12.642  11.621 -0.0717  0.0117  0.0310
 1989POSM   PO423338  18.116  12.616  11.851 -0.0489  0.0995  0.1234
 1989POSM   AM123339  17.927  12.448  12.048  0.2325 -0.2480 -0.0022
 1989POSM   AM223340  17.806  12.178  12.094 -0.5290  0.2351  0.2182
 1989POSM   T1A23341  17.817  12.351  12.557  0.3764 -0.0286  0.3107
 1989POSM   C2A23342  17.557  11.979  12.705 -0.0479 -0.0552 -0.2348
 1989POSM   C3A23343  17.333  11.707  12.986 -0.0041  0.0140 -0.2044
 1989POSM   C1B23344  17.527  12.036  12.158 -0.0803  0.1241  0.2393
 1989POSM   D2B23345  17.117  11.871  12.244  0.1745 -0.2656  0.0119
 1989POSM   C3B23346  16.775  12.103  12.475 -0.1096 -0.2634  0.1997
 1989POSM   C4B23347  16.575  12.386  12.800  0.1440  0.5061  0.2044
 1990POSM   NC323348  18.879  16.542  11.398 -0.2652  0.2874 -0.4669
 1990POSM   PO423349  19.233  16.710  11.368 -0.1301 -0.1431 -0.1066
 1990POSM   AM123350  19.165  16.794  11.651 -0.3196 -0.0849 -0.1209
 1990POSM   AM223351  18.971  16.797  11.862  0.0965 -0.1888  0.0454
 1990POSM   T1A23352  19.387  16.770  12.131 -0.1658  0.2518  0.1978
 1990POSM   C2A23353  19.626  16.837  12.461 -0.0767 -0.0328 -0.0125
 1990POSM   C3A23354  19.872  16.511  12.714 -0.0037 -0.2445  0.4007
 1990POSM   C1B23355  18.890  16.963  12.102  0.1482 -0.0681  0.0835
 1990POSM   D2B23356  18.540  17.204  12.297 -0.1019 -0.3371  0.0327
 1990POSM   C3B23357  18.235  16.889  12.426  0.0321  0.0763  0.2602
 1990POSM   C4B23358  18.279  16.477  12.417 -0.1689 -0.0855 -0.1393
 1991POSM   NC323359  12.279  21.776  12.078  0.0953 -0.3316  0.1640
 1991POSM   PO423360  12.118  21.424  11.907 -0.1456  0.0945 -0.0666
 1991POSM   AM123361  12.338  21.307  12.142 -0.4698  0.0886  0.1519
 1991POSM   AM223362  12.397  21.342  12.412 -0.1520 -0.3032 -0.0493
 1991POSM   T1A23363  12.804  21.139  12.297 -0.0717  0.2249  0.0166
 1991POSM   C2A23364  13.292  21.140  12.248 -0.0006  0.1377 -0.2036
 1991POSM   C3A23365  13.705  21.038  12.099  0.2474 -0.2040  0.3826
 1991POSM   C1B23366  12.394  21.083  12.667  0.0075 -0.0015 -0.1678
 1991POSM   D2B23367  12.394  20.627  12.718  0.1822  0.3748  0.0215
 1991POSM   C3B23368  12.550  20.383  13.067 -0.0731 -0.1591  0.1273
 1991POSM   C4B23369  12.711  20.043  13.326 -0.2777  0.3989 -0.0991
 1992POSM   NC323370  22.802  14.627  11.250 -0.3270 -0.0489 -0.1633
 1992POSM   PO423371  22.589  14.370  11.478 -0.0491  0.0899 -0.0302
 1992POSM   AM123372  22.363  14.322  11.747  0.0739 -0.2460  0.4926
 1992POSM   AM223373  22.210  14.496  11.890  0.1269  0.3060  0.3175
 1992POSM   T1A23374  22.048  14.012  11.857 -0.0682  0.1809 -0.1872
 1992POSM   C2A23375  21.625  13.926  11.771  0.0207 -0.0533  0.0012
 1992POSM   C3A23376  21.230  14.008  11.554  0.0700  0.1870 -0.1598
 1992POSM   C1B23377  21.895  14.544  11.807 -0.0299 -0.0094 -0.1300
 1992POSM   D2B23378  21.430  14.407  11.829 -0.0796 -0.2193  0.3810
 1992POSM   C3B23379  21.207  14.799  11.733  0.0708  0.1636  0.0083
 1992POSM   C4B23380  20.791  15.044  11.817 -0.2418 -0.3054 -0.1002
 1993DOPC   NC323381  15.969  19.077  12.131 -0.0209  0.0346 -0.3472
 1993DOPC   PO423382  15.718  18.923  11.904  0.1433 -0.0591 -0.1066
 1993DOPC   GL123383  15.505  18.655  12.130  0.0958 -0.2824  0.2521
 1993DOPC   GL223384  15.701  18.416  12.099  0.1516  0.2402 -0.2600
 1993DOPC   C1A23385  15.091  18.450  12.167 -0.0679 -0.4465  0.0355
 1993DOPC   D2A23386  14.758  18.108  12.284 -0.2234  0.1693  0.1484
 1993DOPC   C3A23387  14.967  17.769  12.519  0.0194  0.3249  0.0668
 1993DOPC   C4A23388  15.128  17.551  12.910  0.3650  0.1633  0.0627
 1993DOPC   C1B23389  15.491  18.151  12.389  0.1439  0.1709  0.2785
 1993DOPC   D2B23390  15.260  18.167  12.777 -0.2667  0.1315 -0.0118
 1993DOPC   C3B23391  15.493  18.033  13.158  0.3033 -0.2289  0.6050
 1993DOPC   C4B23392  15.598  17.803  13.518  0.1817 -0.2639  0.1473
 1994DOPC   NC323393  20.150  13.125  12.163 -0.0981 -0.0984  0.3130
 1994DOPC   PO423394  19.901  12.841  12.259  0.0215  0.1738  0.1198
 1994DOPC   GL123395  20.102  12.887  12.599  0.0608 -0.6211  0.1631
 1994DOPC   GL223396  20.377  12.821  12.484  0.1908 -0.1005 -0.0229
 1994DOPC   C1A23397  20.357  13.253  12.821  0.2509 -0.2102 -0.1629
 1994DOPC   D2A23398  20.759  13.322  13.117 -0.2441 -0.1682 -0.1963
 1994DOPC   C3A23399  20.577  13.295  13.528 -0.0824 -0.1302  0.0842
 1994DOPC   C4A23400  20.535  13.186  14.004 -0.1322 -0.1149  0.0407
 1994DOPC   C1B23401  20.661  12.851  12.803  0.0323  0.1802  0.0918
 1994DOPC   D2B23402  21.074  12.764  12.928  0.3823  0.0474  0.4115
 1994DOPC   C3B23403  21.267  12.585  13.321  0.0279 -0.1477  0.1295
 1994DOPC   C4B23404  21.033  12.496  13.664  0.2671 -0.1472 -0.0584
 1995DOPE   NH323405  19.039  18.744  11.195 -0.0880  0.0048  0.1971
 1995DOPE   PO423406  19.059  18.594  11.420  0.1684 -0.1868 -0.0939
 1995DOPE   GL123407  19.477  18.354  11.543 -0.0585  0.2526  0.3663
 1995DOPE   GL223408  19.359  18.398  11.813  0.0552  0.1058  0.0983
 1995DOPE   C1A23409  19.843  18.206  11.804  0.3346  0.0630  0.0950
 1995DOPE   D2A23410  20.276  17.946  11.821  0.2512 -0.0593 -0.1501
 1995DOPE   C3A23411  20.526  18.340  11.871  0.0267  0.1941  0.0633
 1995DOPE   C4A23412  20.810  18.652  12.087 -0.0605  0.1283  0.0049
 1995DOPE   C1B23413  19.774  18.674  11.758  0.2865 -0.3523 -0.1439
 1995DOPE   D2B23414  20.242  18.711  11.810 -0.1290 -0.0367  0.1970
 1995DOPE   C3B23415  20.417  18.886  12.191 -0.1719 -0.1033  0.2147
 1995DOPE   C4B23416  20.704  18.955  12.552 -0.2493 -0.5191 -0.0767
 1996DOPC   NC323417  18.401  18.178  11.767 -0.0543 -0.1972 -0.2080
 1996DOPC   PO423418  18.559  18.435  11.487 -0.1439 -0.0233  0.2608
 1996DOPC   GL123419  18.840  18.399  11.841 -0.0064 -0.1710  0.1402
 1996DOPC   GL223420  18.828  18.687  11.873  0.0731  0.1517  0.2277
 1996DOPC   C1A23421  18.969  18.078  12.099 -0.1512 -0.0656  0.1059
 1996DOPC   D2A23422  18.919  17.686  12.350 -0.1617  0.3005  0.1977
 1996DOPC   C3A23423  19.002  17.590  12.839  0.2334 -0.0713  0.0050
 1996DOPC   C4A23424  19.118  17.737  13.263 -0.4796 -0.2621  0.1479
 1996DOPC   C1B23425  18.990  18.580  12.205  0.0941  0.1041 -0.0391
 1996DOPC   D2B23426  19.311  18.906  12.380 -0.0147 -0.0511  0.2074
 1996DOPC   C3B23427  19.442  19.088  12.820  0.0372  0.1724 -0.3222
 1996DOPC   C4B23428  19.440  19.234  13.241 -0.2630  0.3501  0.0892
 1997DOPC   NC323429  22.262  18.641  11.446  0.0806  0.1622  0.1636
 1997DOPC   PO423430  22.518  18.799  11.675 -0.3587 -0.0117  0.3408
 1997DOPC   GL123431  22.422  19.250  11.739  0.3248  0.1824  0.0409
 1997DOPC   GL223432  22.419  19.369  11.439 -0.1437 -0.3230 -0.0009
 1997DOPC   C1A23433  22.062  19.453  11.979 -0.0474 -0.0701  0.6154
 1997DOPC   D2A23434  21.652  19.406  12.139 -0.0143 -0.3033  0.0682
 1997DOPC   C3A23435  21.585  19.486  12.569 -0.1842  0.2857  0.0252
 1997DOPC   C4A23436  21.374  19.820  12.836  0.0395 -0.1663 -0.0891
 1997DOPC   C1B23437  22.698  19.621  11.709 -0.0832 -0.2435  0.1141
 1997DOPC   D2B23438  22.942  19.804  12.102 -0.0149 -0.1551 -0.2201
 1997DOPC   C3B23439  22.676  20.117  12.406  0.1366  0.1840  0.0372
 1997DOPC   C4B23440  22.573  20.278  12.818 -0.4182 -0.2219 -0.2033
 1998DOPS   CNO23441  19.518  23.523  11.779  0.1919  0.0101  0.0652
 1998DOPS   PO423442  19.383  23.717  12.124  0.0108  0.1280  0.3141
 1998DOPS   GL123443  19.665  23.608  12.431  0.1327 -0.1079 -0.2038
 1998DOPS   GL223444  19.868  23.353  12.399 -0.1071  0.0821 -0.0387
 1998DOPS   C1A23445  20.057  23.642  12.764 -0.2635 -0.0807 -0.0030
 1998DOPS   D2A23446  20.290  23.965  12.872  0.2934  0.1079  0.2421
 1998DOPS   C3A23447  20.038  24.122  13.228  0.1930 -0.0480  0.1975
 1998DOPS   C4A23448  19.540  24.174  13.152  0.1449  0.0718  0.2433
 1998DOPS   C1B23449  19.967  23.119  12.728  0.0196  0.1808 -0.0912
 1998DOPS   D2B23450  20.202  23.040  13.119 -0.1907 -0.1487  0.0716
 1998DOPS   C3B23451  20.407  22.627  13.237 -0.1952 -0.2323 -0.2501
 1998DOPS   C4B23452  20.442  22.384  13.625 -0.0305 -0.1923  0.0359
 1999POSM   NC323453  23.169  15.585  11.891 -0.1688 -0.0361  0.0203
 1999POSM   PO423454  23.272  15.754  11.516 -0.1339 -0.1684 -0.0022
 1999POSM   AM123455  22.992  15.950  11.604 -0.2078  0.4047 -0.1346
 1999POSM   AM223456  22.767  15.943  11.782 -0.1838 -0.0460  0.0198
 1999POSM   T1A23457  22.638  16.257  11.451  0.1285 -0.0120 -0.3076
 1999POSM   C2A23458  22.404  16.488  11.751  0.1147  0.0151 -0.2934
 1999POSM   C3A23459  22.109  16.839  11.873  0.1175  0.0883 -0.0634
 1999POSM   C1B23460  22.741  16.172  11.996  0.4352  0.3041 -0.0401
 1999POSM   D2B23461  22.596  16.536  12.224  0.0471  0.0131  0.2482
 1999POSM   C3B23462  22.636  16.522  12.611 -0.0803  0.1909  0.0233
 1999POSM   C4B23463  23.048  16.458  12.810 -0.0571  0.4465 -0.0799
 2000DOPS   CNO23464  18.984  20.825  11.464 -0.1405 -0.0555 -0.1730
 2000DOPS   PO423465  18.667  20.607  11.502 -0.0788  0.0996  0.3231
 2000DOPS   GL123466  18.811  20.347  11.770 -0.1942  0.3015  0.3259
 2000DOPS   GL223467  18.642  20.272  11.958  0.0134  0.0661 -0.2287
 2000DOPS   C1A23468  19.139  20.343  12.143 -0.0158  0.0036 -0.1510
 2000DOPS   D2A23469  19.553  20.415  12.315  0.1566 -0.0971 -0.1851
 2000DOPS   C3A23470  20.002  20.415  12.187 -0.1906 -0.2762 -0.2757
 2000DOPS   C4A23471  20.448  20.296  12.383  0.1115  0.0380  0.1669
 2000DOPS   C1B23472  18.710  20.240  12.429  0.2874  0.1656  0.0318
 2000DOPS   D2B23473  18.703  20.329  12.875  0.2836 -0.1853  0.0214
 2000DOPS   C3B23474  18.469  20.277  13.261  0.1328 -0.0063 -0.0640
 2000DOPS   C4B23475  18.131  20.484  13.601  0.0359 -0.2099  0.2747
 2001POSM   NC323476  13.811  17.437  12.500 -0.0535 -0.0475  0.2877
 2001POSM   PO423477  13.898  17.833  12.393 -0.0280 -0.0596 -0.1585
 2001POSM   AM123478  13.775  17.952  12.639 -0.2735 -0.1670 -0.3740
 2001POSM   AM223479  13.686  18.224  12.651  0.0866  0.3004 -0.2332
 2001POSM   T1A23480  13.547  18.009  13.121  0.0047  0.3927 -0.0742
 2001POSM   C2A23481  13.208  18.284  13.289  0.2596 -0.1929  0.1420
 2001POSM   C3A23482  13.170  18.698  13.458 -0.1342 -0.1327 -0.2474
 2001POSM   C1B23483  13.880  18.331  12.877  0.0189 -0.4242  0.0879
 2001POSM   D2B23484  14.284  18.245  13.025 -0.0711  0.0464  0.1441
 2001POSM   C3B23485  14.412  17.899  13.317 -0.2145 -0.0208 -0.0178
 2001POSM   C4B23486  14.406  17.807  13.843  0.0324 -0.3418  0.4900
 2002DOPC   NC323487  16.125  21.102  12.497 -0.2211 -0.1005  0.2196
 2002DOPC   PO423488  15.945  20.904  12.217  0.5241  0.1778  0.1604
 2002DOPC   GL123489  15.900  20.670  12.535 -0.0800 -0.1070  0.1831
 2002DOPC   GL223490  15.640  20.786  12.655  0.1586 -0.0204  0.0716
 2002DOPC   C1A23491  16.074  20.687  12.942 -0.0806 -0.2331  0.0282
 2002DOPC   D2A23492  16.087  20.419  13.381  0.1584  0.2158  0.2503
 2002DOPC   C3A23493  16.449  20.202  13.578 -0.0742  0.1343 -0.1223
 2002DOPC   C4A23494  16.881  20.054  13.578  0.3261 -0.0363 -0.1807
 2002DOPC   C1B23495  15.228  20.706  12.664  0.4279  0.1366 -0.0806
 2002DOPC   D2B23496  14.789  20.488  12.690  0.1750  0.0230  0.0070
 2002DOPC   C3B23497  14.702  20.144  12.958  0.0072  0.1506  0.0594
 2002DOPC   C4B23498  14.430  19.937  13.244  0.1421 -0.1814 -0.0816
 2003DOPC   NC323499  20.735  16.381  12.094  0.1172  0.0943  0.0330
 2003DOPC   PO423500  20.852  16.742  12.030 -0.1699 -0.3244  0.0159
 2003DOPC   GL123501  20.741  16.790  12.360 -0.2390 -0.1975  0.2970
 2003DOPC   GL223502  20.822  16.526  12.519  0.0919 -0.1382  0.0077
 2003DOPC   C1A23503  20.436  16.840  12.694  0.2063  0.0383  0.0709
 2003DOPC   D2A23504  20.089  16.820  13.060 -0.1105  0.0078 -0.2684
 2003DOPC   C3A23505  19.631  16.685  13.067 -0.1765  0.0529 -0.0326
 2003DOPC   C4A23506  19.178  16.582  13.212 -0.2055  0.2748 -0.1479
 2003DOPC   C1B23507  20.744  16.094  12.526  0.0839 -0.2077  0.1102
 2003DOPC   D2B23508  20.401  15.789  12.544  0.0155 -0.3265 -0.3634
 2003DOPC   C3B23509  20.185  15.523  12.855  0.0680 -0.0831 -0.0977
 2003DOPC   C4B23510  20.147  15.125  13.131 -0.1028  0.0865  0.2983
 2004DOPC   NC323511  13.275  11.701  11.672  0.0090  0.0832  0.2055
 2004DOPC   PO423512  12.944  11.920  11.702 -0.0132 -0.1170  0.1157
 2004DOPC   GL123513  13.119  12.078  11.971  0.1144 -0.2892  0.2731
 2004DOPC   GL223514  13.342  12.143  11.875 -0.0994  0.0444  0.0163
 2004DOPC   C1A23515  13.118  12.456  12.217  0.0787  0.0459 -0.2222
 2004DOPC   D2A23516  13.052  12.617  12.641 -0.0920  0.1239  0.1836
 2004DOPC   C3A23517  13.000  12.570  13.090  0.0626 -0.2091  0.2262
 2004DOPC   C4A23518  12.677  12.656  13.378 -0.0010 -0.2735  0.1480
 2004DOPC   C1B23519  13.587  12.300  12.209  0.1367  0.1772  0.2866
 2004DOPC   D2B23520  13.902  12.602  12.274 -0.0926  0.0158  0.3798
 2004DOPC   C3B23521  13.953  13.063  12.328  0.0995 -0.2998  0.0895
 2004DOPC   C4B23522  14.232  13.450  12.404 -0.1900  0.1713 -0.0032
 2005POSM   NC323523  19.837  23.088  11.918  0.1577  0.4654  0.1185
 2005POSM   PO423524  19.629  22.840  11.756 -0.3800  0.3363  0.0825
 2005POSM   AM123525  19.625  22.564  11.923  0.1775  0.1121  0.2211
 2005POSM   AM223526  19.538  22.281  11.881 -0.1760  0.2330 -0.1081
 2005POSM   T1A23527  19.855  22.312  12.294  0.1791 -0.1079  0.0143
 2005POSM   C2A23528  19.902  21.895  12.571 -0.3063  0.2440  0.1141
 2005POSM   C3A23529  19.889  21.783  13.040  0.1337 -0.0169  0.1160
 2005POSM   C1B23530  19.777  21.973  11.779 -0.0698  0.1300  0.1865
 2005POSM   D2B23531  19.999  21.536  11.876 -0.0298  0.0867 -0.3469
 2005POSM   C3B23532  19.747  21.323  12.169 -0.0354  0.0253  0.2331
 2005POSM   C4B23533  19.563  20.924  12.270  0.0027  0.0190  0.0652
 2006POSM   NC323534  13.237  15.615  12.310  0.0915  0.0559  0.0939
 2006POSM   PO423535  13.290  15.661  11.925 -0.3433  0.0415  0.2644
 2006POSM   AM123536  13.377  15.344  11.964 -0.3575 -0.4308  0.1746
 2006POSM   AM223537  13.468  15.188  12.181 -0.2144 -0.1480  0.0873
 2006POSM   T1A23538  13.573  14.970  11.656  0.1518  0.0984 -0.2087
 2006POSM   C2A23539  13.913  14.615  11.598  0.4356  0.1767  0.2480
 2006POSM   C3A23540  14.306  14.379  11.730  0.2160 -0.1544  0.0342
 2006POSM   C1B23541  13.720  15.052  12.337  0.0718  0.1029  0.0417
 2006POSM   D2B23542  13.938  15.067  12.747 -0.2380 -0.0730 -0.1998
 2006POSM   C3B23543  13.903  15.108  13.157  0.0191  0.0586  0.0302
 2006POSM   C4B23544  14.160  15.176  13.544 -0.2222  0.0579  0.2130
 2007DOPE   NH323545  17.609  14.721  11.836  0.2208 -0.3842 -0.2321
 2007DOPE   PO423546  17.686  15.009  11.725 -0.1222  0.1406  0.3633
 2007DOPE   GL123547  17.638  15.350  11.743 -0.0490 -0.2026 -0.0074
 2007DOPE   GL223548  17.632  15.475  12.038 -0.1517 -0.2053 -0.2056
 2007DOPE   C1A23549  17.683  15.785  11.661  0.0795  0.1978 -0.1135
 2007DOPE   D2A23550  17.807  16.226  11.711  0.1133  0.3023  0.1680
 2007DOPE   C3A23551  17.575  16.391  12.107  0.1975 -0.1349  0.0950
 2007DOPE   C4A23552  17.718  16.471  12.562 -0.5126  0.2230 -0.1225
 2007DOPE   C1B23553  17.519  15.732  12.432 -0.3705  0.0201  0.0265
 2007DOPE   D2B23554  17.308  15.812  12.815  0.1407  0.6200  0.0054
 2007DOPE   C3B23555  17.110  16.203  12.916 -0.2085 -0.0683 -0.1396
 2007DOPE   C4B23556  17.236  16.527  12.557 -0.1154  0.0256 -0.1666
 2008DOPS   CNO23557  23.151  14.720  11.660 -0.0948 -0.1933  0.3084
 2008DOPS   PO423558  23.149  15.101  11.803  0.2197  0.0201 -0.1629
 2008DOPS   GL123559  22.931  15.256  12.082 -0.3121 -0.2714 -0.0002
 2008DOPS   GL223560  22.777  15.084  12.276 -0.3936 -0.2330 -0.5770
 2008DOPS   C1A23561  22.635  15.577  12.125 -0.2751  0.0970  0.0436
 2008DOPS   D2A23562  22.506  15.953  12.424 -0.3330  0.0771 -0.0283
 2008DOPS   C3A23563  22.226  16.196  12.726  0.1017  0.0475 -0.0345
 2008DOPS   C4A23564  22.005  16.387  13.075  0.0983 -0.2572  0.1227
 2008DOPS   C1B23565  22.417  15.314  12.528 -0.2669  0.1335 -0.0941
 2008DOPS   D2B23566  21.943  15.262  12.683  0.1004  0.0444  0.1305
 2008DOPS   C3B23567  21.609  15.049  12.489 -0.0361 -0.1183 -0.0635
 2008DOPS   C4B23568  21.369  14.721  12.250  0.2738 -0.3392 -0.2676
 2009DOPE   NH323569  22.430  22.635  12.301  0.0707  0.3542  0.0139
 2009DOPE   PO423570  22.714  22.479  12.247 -0.1280  0.1982 -0.0657
 2009DOPE   GL123571  22.823  22.594  12.603 -0.2035  0.0701  0.1526
 2009DOPE   GL223572  22.692  22.447  12.813  0.1172  0.2747  0.0236
 2009DOPE   C1A23573  23.195  22.446  12.957 -0.0446  0.0041 -0.2353
 2009DOPE   D2A23574  23.617  22.571  13.154 -0.1709  0.0083  0.3220
 2009DOPE   C3A23575  23.847  22.966  13.029  0.0007  0.2048  0.3604
 2009DOPE   C4A23576  24.219  23.252  13.031 -0.0072  0.0372 -0.3344
 2009DOPE   C1B23577  22.845  22.710  13.230 -0.2557  0.2576 -0.2002
 2009DOPE   D2B23578  22.920  23.034  13.583  0.0219 -0.1684  0.2522
 2009DOPE   C3B23579  23.030  22.856  13.958 -0.1270  0.0835 -0.0537
 2009DOPE   C4B23580  23.025  22.404  14.132  0.1022 -0.1901 -0.1775
 2010DOPC   NC323581  13.506  16.854  11.947 -0.2084 -0.0982 -0.1008
 2010DOPC   PO423582  13.190  16.698  11.840 -0.0817  0.4454 -0.2019
 2010DOPC   GL123583  13.083  16.990  12.050 -0.0346 -0.2064 -0.1413
 2010DOPC   GL223584  13.038  16.875  12.322  0.0546 -0.2547  0.3559
 2010DOPC   C1A23585  12.705  17.295  11.994 -0.1313 -0.0426  0.0467
 2010DOPC   D2A23586  12.510  17.682  12.016 -0.3633  0.2204  0.3444
 2010DOPC   C3A23587  12.346  17.859  12.442  0.0254  0.1697 -0.0515
 2010DOPC   C4A23588  12.030  17.894  12.738  0.3052  0.4266  0.2329
 2010DOPC   C1B23589  12.601  16.872  12.327  0.3887 -0.0918 -0.1752
 2010DOPC   D2B23590  12.290  17.289  12.370 -0.3920 -0.1006  0.0429
 2010DOPC   C3B23591  12.019  17.584  12.136 -0.1411  0.2619  0.2317
 2010DOPC   C4B23592  12.019  17.781  11.742 -0.0597 -0.1845 -0.1631
 2011DOPC   NC323593  16.508  14.833  12.484  0.2284  0.0804  0.3183
 2011DOPC   PO423594  16.428  14.823  12.125 -0.1420 -0.0869  0.2927
 2011DOPC   GL123595  16.072  14.646  12.283  0.3677  0.1181  0.3140
 2011DOPC   GL223596  16.107  14.569  12.587  0.1777  0.0232  0.1221
 2011DOPC   C1A23597  15.603  14.578  12.253 -0.3720  0.0846  0.0536
 2011DOPC   D2A23598  15.136  14.494  12.296  0.1391  0.0024 -0.1425
 2011DOPC   C3A23599  14.925  14.711  12.643 -0.3393  0.0180 -0.3356
 2011DOPC   C4A23600  14.896  14.821  13.124  0.2241 -0.1119  0.3012
 2011DOPC   C1B23601  15.750  14.871  12.636  0.3113  0.3454  0.2525
 2011DOPC   D2B23602  15.377  15.142  12.739 -0.1624 -0.0993  0.2788
 2011DOPC   C3B23603  15.426  14.921  13.141  0.2188  0.0903 -0.4062
 2011DOPC   C4B23604  15.349  14.986  13.624  0.1249 -0.0184 -0.1517
 2012POSM   NC323605  24.079  17.752  12.554 -0.0090  0.2038  0.0158
 2012POSM   PO423606  24.009  17.720  12.159  0.0518  0.0624  0.0415
 2012POSM   AM123607  23.861  17.450  12.209  0.3414  0.0125  0.2960
 2012POSM   AM223608  23.588  17.404  12.365 -0.3195 -0.3290  0.2333
 2012POSM   T1A23609  23.531  17.172  11.979  0.3854 -0.1332  0.1628
 2012POSM   C2A23610  23.169  16.863  12.023  0.2296  0.0743 -0.0997
 2012POSM   C3A23611  22.987  16.528  11.751 -0.1108  0.2060  0.0719
 2012POSM   C1B23612  23.307  17.215  12.387 -0.1526 -0.0925  0.0142
 2012POSM   D2B23613  22.977  16.918  12.551 -0.0151 -0.2287 -0.0198
 2012POSM   C3B23614  22.505  16.983  12.557 -0.0206 -0.0218 -0.3229
 2012POSM   C4B23615  22.113  17.164  12.634  0.1084  0.0070 -0.1832
 2013POSM   NC323616  11.643  21.329  11.847  0.0098  0.4677  0.1082
 2013POSM   PO423617  11.295  21.338  12.071  0.0038 -0.1102 -0.1011
 2013POSM   AM123618  11.301  21.190  12.383  0.0637 -0.4140  0.2806
 2013POSM   AM223619  11.168  21.227  12.631  0.0199  0.1874  0.2578
 2013POSM   T1A23620  11.339  20.768  12.683  0.0856  0.2625 -0.3456
 2013POSM   C2A23621  11.509  20.370  12.689  0.1441 -0.0048  0.1353
 2013POSM   C3A23622  11.721  20.035  12.915 -0.0708  0.1616 -0.4531
 2013POSM   C1B23623  11.499  21.291  12.769  0.0466 -0.0531 -0.3345
 2013POSM   D2B23624  11.810  21.284  13.124 -0.0385  0.2891 -0.4186
 2013POSM   C3B23625  12.172  20.990  13.175  0.0778 -0.0630 -0.1727
 2013POSM   C4B23626  12.400  20.713  13.491  0.3611 -0.0434 -0.1414
 2014DOPS   CNO23627  19.711  14.324  11.759 -0.0296 -0.0914  0.2530
 2014DOPS   PO423628  19.418  14.200  11.957 -0.0041  0.2232 -0.4903
 2014DOPS   GL123629  19.741  14.390  12.246  0.2862 -0.0455  0.2276
 2014DOPS   GL223630  19.678  14.453  12.578 -0.1745  0.1016  0.3484
 2014DOPS   C1A23631  20.102  14.592  12.408 -0.1693 -0.1191  0.0232
 2014DOPS   D2A23632  20.280  14.863  12.726 -0.1193  0.2394  0.0744
 2014DOPS   C3A23633  20.318  14.618  13.126  0.1802  0.1397 -0.0115
 2014DOPS   C4A23634  20.604  14.225  13.189 -0.0310  0.1679 -0.0439
 2014DOPS   C1B23635  19.767  13.969  12.714 -0.0446 -0.1058  0.0175
 2014DOPS   D2B23636  20.093  13.673  12.739 -0.2371  0.0707 -0.0745
 2014DOPS   C3B23637  20.455  13.751  13.044 -0.0675  0.2041  0.0753
 2014DOPS   C4B23638  20.334  13.752  13.515  0.0165  0.0864  0.1912
 2015POSM   NC323639  13.293  10.980  11.781  0.1492  0.0772  0.0312
 2015POSM   PO423640  13.031  11.302  11.888 -0.1152  0.0986  0.1076
 2015POSM   AM123641  13.264  11.429  12.046 -0.1262 -0.2103 -0.1311
 2015POSM   AM223642  13.533  11.351  12.028  0.1481 -0.2832  0.0098
 2015POSM   T1A23643  13.335  11.882  12.285 -0.0224  0.1383  0.0252
 2015POSM   C2A23644  13.234  12.204  12.600 -0.1870  0.1994 -0.1934
 2015POSM   C3A23645  13.558  12.562  12.654 -0.3631  0.2169  0.1424
 2015POSM   C1B23646  13.652  11.374  12.382  0.0892  0.1832  0.2188
 2015POSM   D2B23647  13.825  11.387  12.832 -0.0159 -0.0109 -0.0513
 2015POSM   C3B23648  14.118  11.690  12.882  0.0489 -0.4350  0.1181
 2015POSM   C4B23649  14.169  12.080  13.262 -0.0690  0.0400  0.2076
 2016DOPE   NH323650  16.811  21.221  11.709 -0.1118 -0.0177 -0.0993
 2016DOPE   PO423651  16.644  21.454  11.910  0.1322  0.1949 -0.0948
 2016DOPE   GL123652  16.941  21.435  12.154 -0.2467  0.0354  0.1609
 2016DOPE   GL223653  16.719  21.182  12.304 -0.0358 -0.1964 -0.0196
 2016DOPE   C1A23654  17.292  21.205  12.320  0.2315 -0.2193 -0.1090
 2016DOPE   D2A23655  17.695  21.247  12.605 -0.1755 -0.0737  0.2161
 2016DOPE   C3A23656  17.774  20.792  12.826  0.1049  0.0910 -0.0689
 2016DOPE   C4A23657  18.163  20.566  12.949 -0.1488 -0.1110 -0.1916
 2016DOPE   C1B23658  16.882  21.174  12.741  0.1119  0.2844 -0.2550
 2016DOPE   D2B23659  16.961  21.006  13.183 -0.2566  0.1590 -0.0305
 2016DOPE   C3B23660  17.413  21.161  13.310 -0.0803  0.0704  0.0011
 2016DOPE   C4B23661  17.631  21.292  13.638  0.0071 -0.2371  0.1291
 2017DOPE   NH323662  13.586  12.786  11.404  0.1046  0.0796  0.1991
 2017DOPE   PO423663  13.855  12.890  11.344 -0.0003  0.1908 -0.1164
 2017DOPE   GL123664  13.733  13.274  11.441 -0.0346 -0.0759  0.1089
 2017DOPE   GL223665  13.445  13.234  11.288 -0.0649  0.0171 -0.0032
 2017DOPE   C1A23666  13.444  13.562  11.683 -0.1840  0.0386  0.1192
 2017DOPE   D2A23667  13.098  13.767  11.867 -0.3018 -0.2925  0.1597
 2017DOPE   C3A23668  12.691  13.674  11.730 -0.2520 -0.0232  0.4725
 2017DOPE   C4A23669  12.479  13.809  11.329  0.2042 -0.0975 -0.2483
 2017DOPE   C1B23670  13.046  13.321  11.501 -0.3894 -0.0641 -0.0136
 2017DOPE   D2B23671  12.873  13.270  11.948 -0.1547 -0.1742 -0.1512
 2017DOPE   C3B23672  12.516  13.031  11.761 -0.0142 -0.0761 -0.0844
 2017DOPE   C4B23673  12.114  12.958  11.763 -0.0526 -0.2097  0.5490
 2018DOPE   NH323674  13.811  12.307  11.705 -0.1175  0.1497 -0.1153
 2018DOPE   PO423675  13.957  12.579  11.779  0.1880 -0.2958 -0.0414
 2018DOPE   GL123676  13.715  12.964  11.827 -0.1823 -0.1312  0.2968
 2018DOPE   GL223677  13.515  13.090  11.784  0.0450 -0.2814  0.1431
 2018DOPE   C1A23678  13.860  13.409  11.855  0.1657  0.4237 -0.2247
 2018DOPE   D2A23679  14.076  13.792  11.670  0.1034 -0.3562 -0.0536
 2018DOPE   C3A23680  13.730  14.020  11.467 -0.1850  0.2777 -0.1710
 2018DOPE   C4A23681  13.395  13.841  11.174 -0.1542 -0.1999 -0.1873
 2018DOPE   C1B23682  13.379  13.348  12.154  0.0336  0.0578  0.4285
 2018DOPE   D2B23683  13.088  13.153  12.441  0.3823 -0.2089  0.0355
 2018DOPE   C3B23684  13.259  13.081  12.847  0.0721 -0.4228 -0.1142
 2018DOPE   C4B23685  13.406  13.465  13.097  0.4670 -0.1857  0.2226
 2019DOPS   CNO23686  14.410  12.680  10.967  0.0398 -0.0185 -0.1342
 2019DOPS   PO423687  14.698  12.486  11.121 -0.0703  0.0954 -0.0894
 2019DOPS   GL123688  15.078  12.326  11.286 -0.0582  0.1992  0.2094
 2019DOPS   GL223689  15.039  12.267  11.559 -0.2100 -0.0725  0.1686
 2019DOPS   C1A23690  15.416  12.638  11.442 -0.1317  0.3106  0.3022
 2019DOPS   D2A23691  15.859  12.457  11.666  0.1700 -0.1569  0.3765
 2019DOPS   C3A23692  16.224  12.743  11.829 -0.0262  0.1264  0.3176
 2019DOPS   C4A23693  16.671  12.958  11.812 -0.0238 -0.0597  0.3047
 2019DOPS   C1B23694  15.426  12.264  11.858 -0.2180 -0.0484  0.2097
 2019DOPS   D2B23695  15.772  12.233  12.201  0.0749 -0.2665  0.0373
 2019DOPS   C3B23696  15.803  12.542  12.580 -0.0047  0.2119  0.2957
 2019DOPS   C4B23697  16.082  12.594  13.006  0.0384 -0.2537 -0.1159
 2020POSM   NC323698  18.492  14.495  11.607 -0.2438 -0.0394  0.2973
 2020POSM   PO423699  18.408  14.449  11.962  0.0362 -0.2651 -0.0833
 2020POSM   AM123700  18.547  14.623  12.230 -0.0989 -0.3049 -0.1484
 2020POSM   AM223701  18.622  14.924  12.306  0.0260 -0.1807 -0.1021
 2020POSM   T1A23702  18.887  14.753  12.617 -0.1626  0.1219  0.0839
 2020POSM   C2A23703  19.332  14.788  12.734 -0.0437 -0.0613 -0.1169
 2020POSM   C3A23704  19.693  14.989  12.640  0.1306 -0.0596 -0.1267
 2020POSM   C1B23705  18.393  15.058  12.497 -0.1048 -0.0016 -0.0122
 2020POSM   D2B23706  18.196  15.067  12.900  0.0003  0.0265 -0.0919
 2020POSM   C3B23707  17.775  14.908  12.902  0.1376 -0.0139 -0.3229
 2020POSM   C4B23708  17.377  14.966  13.127 -0.0444  0.3379  0.3130
 2021POSM   NC323709  21.680  17.422  11.682  0.2116 -0.0550 -0.2193
 2021POSM   PO423710  21.456  17.122  11.527 -0.1015  0.1090  0.0086
 2021POSM   AM123711  21.508  16.825  11.736 -0.0774 -0.1427 -0.0541
 2021POSM   AM223712  21.568  16.826  11.992 -0.0429 -0.1023  0.0268
 2021POSM   T1A23713  21.756  16.406  11.861  0.1239  0.6498  0.0193
 2021POSM   C2A23714  21.767  15.942  11.846 -0.0562  0.2263 -0.1927
 2021POSM   C3A23715  21.650  15.576  12.086 -0.1000  0.0520  0.1906
 2021POSM   C1B23716  21.812  16.753  12.273  0.3541  0.1684  0.0042
 2021POSM   D2B23717  22.043  16.645  12.641  0.1912 -0.1402  0.0065
 2021POSM   C3B23718  21.774  16.814  12.939  0.0964 -0.0317  0.1734
 2021POSM   C4B23719  21.477  17.013  13.157  0.1505  0.1716  0.1181
 2022DOPE   NH323720  19.115  14.792  12.091 -0.0174 -0.1803 -0.0464
 2022DOPE   PO423721  19.382  14.695  11.965 -0.2118 -0.2440 -0.1887
 2022DOPE   GL123722  19.630  14.904  11.977  0.0805  0.3753 -0.1087
 2022DOPE   GL223723  19.896  14.850  12.021 -0.0535  0.2266  0.1421
 2022DOPE   C1A23724  19.657  15.325  12.279 -0.0020  0.0778  0.1546
 2022DOPE   D2A23725  19.726  15.573  12.608 -0.1563  0.0637  0.0452
 2022DOPE   C3A23726  19.757  15.525  13.116 -0.2280 -0.0972  0.2561
 2022DOPE   C4A23727  20.075  15.507  13.419 -0.0684 -0.1182 -0.0077
 2022DOPE   C1B23728  20.333  14.866  11.966  0.0715  0.0308  0.0631
 2022DOPE   D2B23729  20.542  14.954  12.309  0.3861  0.0066 -0.0746
 2022DOPE   C3B23730  20.678  15.300  12.649  0.3583 -0.2627  0.0503
 2022DOPE   C4B23731  20.977  15.571  12.778 -0.0119 -0.0361 -0.0139
 2023DOPS   CNO23732  12.017  22.247  12.052  0.0643  0.0211  0.3203
 2023DOPS   PO423733  12.369  22.350  12.193  0.1586  0.0729  0.2146
 2023DOPS   GL123734  12.708  22.418  12.483  0.0812 -0.0488  0.0185
 2023DOPS   GL223735  12.744  22.132  12.464 -0.2324  0.1671  0.0227
 2023DOPS   C1A23736  12.734  22.517  12.903  0.2115 -0.1687  0.0834
 2023DOPS   D2A23737  12.935  22.821  13.213  0.2730  0.0521 -0.0458
 2023DOPS   C3A23738  12.982  22.703  13.679  0.0942  0.0577 -0.0921
 2023DOPS   C4A23739  12.972  22.957  14.029  0.0460 -0.1501  0.2757
 2023DOPS   C1B23740  12.879  21.917  12.855 -0.1578  0.4128  0.1934
 2023DOPS   D2B23741  12.869  21.796  13.306 -0.1136 -0.4368  0.1494
 2023DOPS   C3B23742  12.702  22.085  13.622 -0.0331 -0.1786 -0.0173
 2023DOPS   C4B23743  12.611  22.485  13.496  0.0306  0.1841  0.0183
 2024DOPE   NH323744  17.495  19.176  11.766  0.2549 -0.1598 -0.1996
 2024DOPE   PO423745  17.772  19.217  11.759 -0.2286  0.1183  0.0499
 2024DOPE   GL123746  17.944  19.565  11.884  0.1977 -0.3005 -0.0353
 2024DOPE   GL223747  18.058  19.528  12.138  0.0331 -0.0987 -0.0006
 2024DOPE   C1A23748  18.069  19.918  11.615 -0.1692  0.1833  0.1891
 2024DOPE   D2A23749  18.223  20.320  11.567 -0.0209 -0.1937  0.2501
 2024DOPE   C3A23750  18.002  20.591  11.209  0.0377 -0.0225  0.0841
 2024DOPE   C4A23751  17.585  20.796  11.209 -0.2432 -0.1474  0.1704
 2024DOPE   C1B23752  18.214  19.648  12.544 -0.0054  0.3897 -0.0095
 2024DOPE   D2B23753  18.300  19.789  12.949  0.1018  0.0111 -0.4964
 2024DOPE   C3B23754  18.029  20.102  13.073  0.1926  0.1001  0.2404
 2024DOPE   C4B23755  17.686  20.355  13.113 -0.0616 -0.1738 -0.0268
 2025POSM   NC323756  10.191  14.081  12.416 -0.4117  0.3791 -0.3033
 2025POSM   PO423757  10.179  14.352  12.134 -0.0655 -0.2396 -0.1102
 2025POSM   AM123758  10.470  14.258  12.017  0.1131  0.2641  0.3032
 2025POSM   AM223759  10.594  14.028  12.160 -0.2882 -0.0212 -0.0232
 2025POSM   T1A23760  10.882  14.120  11.728 -0.1254  0.3135  0.0893
 2025POSM   C2A23761  11.368  14.028  11.716  0.1790 -0.0127  0.0656
 2025POSM   C3A23762  11.827  14.024  11.694 -0.1110 -0.0693 -0.1387
 2025POSM   C1B23763  10.615  13.776  12.370 -0.1499  0.0126 -0.0276
 2025POSM   D2B23764  10.939  13.507  12.581 -0.0485  0.1360 -0.0790
 2025POSM   C3B23765  10.756  13.426  12.940  0.1981  0.1766 -0.1800
 2025POSM   C4B23766  10.782  13.328  13.396  0.1753 -0.0321 -0.0396
 2026POSM   NC323767  11.760  22.220  12.647 -0.1191 -0.0720 -0.1914
 2026POSM   PO423768  11.890  22.565  12.477 -0.1238  0.0816 -0.0108
 2026POSM   AM123769  11.970  22.628  12.794  0.1928 -0.1083 -0.0003
 2026POSM   AM223770  12.237  22.730  12.870  0.1058 -0.3126  0.0195
 2026POSM   T1A23771  12.100  22.367  13.200 -0.0864  0.0408  0.0663
 2026POSM   C2A23772  12.448  22.025  13.116  0.2154 -0.1787  0.0508
 2026POSM   C3A23773  12.474  21.664  12.923 -0.0008 -0.2935  0.0938
 2026POSM   C1B23774  12.395  22.819  13.122  0.2551 -0.1255  0.2924
 2026POSM   D2B23775  12.562  23.033  13.524  0.0547 -0.0238  0.0565
 2026POSM   C3B23776  12.323  23.297  13.847 -0.0582  0.1277  0.0616
 2026POSM   C4B23777  12.148  23.374  14.267 -0.1694 -0.2630  0.0705
 2027DOPC   NC323778  15.731  20.425  11.648  0.0525  0.2265  0.1485
 2027DOPC   PO423779  16.019  20.709  11.764  0.0075  0.1244  0.0525
 2027DOPC   GL123780  15.915  20.507  12.103  0.0685  0.1180  0.1033
 2027DOPC   GL223781  16.233  20.511  12.199 -0.0516 -0.4980 -0.0780
 2027DOPC   C1A23782  15.535  20.323  12.249  0.0774 -0.3007  0.0953
 2027DOPC   D2A23783  15.370  20.209  12.635  0.0555  0.0202 -0.1586
 2027DOPC   C3A23784  15.162  20.033  13.023 -0.0857  0.1700  0.0210
 2027DOPC   C4A23785  14.936  19.898  13.347  0.0423  0.0565  0.1060
 2027DOPC   C1B23786  15.973  20.166  12.453 -0.3178  0.4386 -0.0004
 2027DOPC   D2B23787  15.919  20.192  12.954 -0.0026 -0.0768  0.2082
 2027DOPC   C3B23788  15.561  20.249  13.248  0.1943 -0.1907 -0.2248
 2027DOPC   C4B23789  15.350  20.029  13.624  0.1997  0.1460 -0.0249
 2028POSM   NC323790  11.032  18.923  12.230 -0.2566  0.1057  0.0182
 2028POSM   PO423791  11.452  18.811  12.298  0.1494 -0.2121 -0.1000
 2028POSM   AM123792  11.596  18.745  12.619 -0.2682  0.5079 -0.0989
 2028POSM   AM223793  11.558  18.887  12.847 -0.0541 -0.2088  0.1183
 2028POSM   T1A23794  11.545  18.455  13.028  0.0331 -0.1578  0.3073
 2028POSM   C2A23795  11.602  18.365  13.524 -0.2106 -0.1714  0.0735
 2028POSM   C3A23796  11.712  17.909  13.612  0.0327  0.0204 -0.0596
 2028POSM   C1B23797  11.291  18.952  13.073  0.0248  0.2073  0.0141
 2028POSM   D2B23798  11.013  19.219  13.364  0.1257  0.1936  0.3925
 2028POSM   C3B23799  10.563  19.144  13.333  0.0899  0.1808  0.0761
 2028POSM   C4B23800  10.247  18.836  13.507 -0.1568 -0.3812  0.0270
 2029DOPE   NH323801  16.828  14.341  11.628  0.0611  0.1738 -0.0636
 2029DOPE   PO423802  16.751  14.434  11.929  0.0550 -0.3726  0.1873
 2029DOPE   GL123803  16.833  14.166  12.197 -0.1157  0.0865  0.0948
 2029DOPE   GL223804  16.546  14.237  12.313 -0.0096  0.0525 -0.1205
 2029DOPE   C1A23805  16.711  13.838  12.526  0.0442 -0.2221 -0.1004
 2029DOPE   D2A23806  16.507  13.428  12.568 -0.1128  0.1127 -0.0989
 2029DOPE   C3A23807  16.265  13.154  12.283 -0.0101 -0.0019  0.1804
 2029DOPE   C4A23808  15.858  13.064  12.013  0.0103  0.2077  0.1731
 2029DOPE   C1B23809  16.272  14.038  12.614  0.1026 -0.4505 -0.0838
 2029DOPE   D2B23810  16.112  14.096  13.053 -0.0897  0.0406  0.0334
 2029DOPE   C3B23811  15.882  13.786  13.329  0.1941 -0.0070  0.1870
 2029DOPE   C4B23812  15.517  13.901  13.565 -0.0088  0.1732  0.1470
 2030DOPS   CNO23813  14.433  17.152  12.209 -0.1701  0.1845 -0.2055
 2030DOPS   PO423814  14.207  17.446  12.230 -0.0365 -0.2436  0.1769
 2030DOPS   GL123815  14.328  17.407  12.568 -0.4864 -0.2373  0.1293
 2030DOPS   GL223816  14.416  17.694  12.657 -0.0924  0.1852 -0.0981
 2030DOPS   C1A23817  14.284  17.068  12.831  0.2097  0.3296 -0.1979
 2030DOPS   D2A23818  14.290  16.864  13.236  0.2837  0.1134  0.2097
 2030DOPS   C3A23819  13.897  16.732  13.462  0.0696 -0.1216  0.3506
 2030DOPS   C4A23820  13.610  16.630  13.844  0.0012  0.0626 -0.1418
 2030DOPS   C1B23821  14.749  17.864  12.937  0.0150  0.0158 -0.2582
 2030DOPS   D2B23822  14.922  18.150  13.195  0.2017  0.0726 -0.1638
 2030DOPS   C3B23823  14.690  18.548  13.290  0.2765  0.0488  0.1572
 2030DOPS   C4B23824  14.509  18.794  12.886 -0.2338  0.0323  0.0356
 2031DOPC   NC323825  13.258  18.713  12.044 -0.4457 -0.0856 -0.0781
 2031DOPC   PO423826  13.028  18.946  11.832  0.2767 -0.3389 -0.2409
 2031DOPC   GL123827  13.235  19.218  12.027  0.0128 -0.2999 -0.2065
 2031DOPC   GL223828  13.081  19.200  12.308  0.0264  0.1219 -0.1436
 2031DOPC   C1A23829  13.549  19.321  12.302 -0.0266 -0.2596  0.1556
 2031DOPC   D2A23830  13.884  19.589  12.520  0.0347 -0.1233  0.1252
 2031DOPC   C3A23831  14.337  19.592  12.416  0.0891 -0.3634 -0.2299
 2031DOPC   C4A23832  14.617  19.290  12.557  0.5008 -0.5295  0.6312
 2031DOPC   C1B23833  13.240  19.487  12.665 -0.2837 -0.0096 -0.2870
 2031DOPC   D2B23834  13.494  19.810  12.714 -0.1492 -0.4135 -0.2629
 2031DOPC   C3B23835  13.695  19.948  13.120  0.1920 -0.0368  0.1438
 2031DOPC   C4B23836  13.528  19.992  13.541 -0.0645 -0.1421  0.1504
 2032DOPC   NC323837  21.819  22.069  11.551 -0.0828 -0.1206  0.2812
 2032DOPC   PO423838  22.132  21.845  11.654  0.5616  0.0477  0.0529
 2032DOPC   GL123839  21.862  21.639  11.742 -0.1501 -0.0226  0.2567
 2032DOPC   GL223840  21.963  21.419  11.913 -0.2415  0.0225 -0.2069
 2032DOPC   C1A23841  21.405  21.603  11.883 -0.1278  0.1327  0.0619
 2032DOPC   D2A23842  21.063  21.305  11.963 -0.1259  0.0806 -0.1759
 2032DOPC   C3A23843  21.091  20.823  11.844 -0.1968  0.4941  0.3095
 2032DOPC   C4A23844  21.114  20.429  12.107 -0.0390 -0.0904 -0.1702
 2032DOPC   C1B23845  21.682  21.098  12.049  0.0081 -0.0976  0.0470
 2032DOPC   D2B23846  21.326  20.872  12.294  0.0292 -0.2071 -0.1403
 2032DOPC   C3B23847  21.018  21.183  12.426 -0.0855  0.3678  0.0647
 2032DOPC   C4B23848  20.638  21.282  12.609 -0.0361 -0.0014 -0.1079
 2033DOPC   NC323849  13.450  16.641  12.478 -0.2567  0.0124 -0.2305
 2033DOPC   PO423850  13.538  17.015  12.421 -0.4040  0.4100  0.0554
 2033DOPC   GL123851  13.500  17.081  12.798  0.1011 -0.2522  0.2949
 2033DOPC   GL223852  13.739  16.880  12.861  0.0125  0.1790 -0.2612
 2033DOPC   C1A23853  13.602  17.494  12.946 -0.1162  0.0672  0.4407
 2033DOPC   D2A23854  14.028  17.688  12.972 -0.4880 -0.1082 -0.1052
 2033DOPC   C3A23855  14.467  17.472  13.107  0.1053 -0.0250  0.3568
 2033DOPC   C4A23856  14.391  17.374  13.522 -0.1338  0.1820 -0.2715
 2033DOPC   C1B23857  13.942  17.185  13.163  0.1632  0.3986 -0.2118
 2033DOPC   D2B23858  13.851  17.596  13.405 -0.1761  0.3772 -0.2182
 2033DOPC   C3B23859  13.915  18.107  13.439  0.0453 -0.0132  0.0171
 2033DOPC   C4B23860  14.233  18.394  13.526  0.2296  0.0772  0.2619
 2034DOPS   CNO23861  16.802  20.874  11.278 -0.1736 -0.0301  0.0323
 2034DOPS   PO423862  16.909  20.730  11.603 -0.0909 -0.0046  0.4837
 2034DOPS   GL123863  17.177  20.796  11.919 -0.0077  0.0231  0.2867
 2034DOPS   GL223864  17.262  21.058  11.772 -0.0484 -0.0048  0.0752
 2034DOPS   C1A23865  17.632  20.930  12.019 -0.3215  0.0258  0.0881
 2034DOPS   D2A23866  17.964  20.865  12.371 -0.3927 -0.2311 -0.1259
 2034DOPS   C3A23867  18.229  21.181  12.607  0.2124 -0.0442 -0.1747
 2034DOPS   C4A23868  18.465  21.436  12.903  0.1265 -0.1286 -0.3868
 2034DOPS   C1B23869  17.494  21.442  11.902  0.0028  0.2586  0.1634
 2034DOPS   D2B23870  17.406  21.775  12.245  0.0838 -0.2365 -0.1452
 2034DOPS   C3B23871  17.678  21.805  12.584  0.0691  0.0909 -0.3349
 2034DOPS   C4B23872  18.012  21.636  12.855  0.0754  0.0349  0.0623
 2035POSM   NC323873  12.462  11.578  11.663 -0.0550 -0.2699  0.1009
 2035POSM   PO423874  12.527  11.329  11.925 -0.3778  0.1953  0.3162
 2035POSM   AM123875  12.730  11.435  12.205 -0.0570  0.2585  0.0082
 2035POSM   AM223876  12.909  11.684  12.183 -0.0459 -0.0539  0.1170
 2035POSM   T1A23877  13.170  11.455  12.516 -0.1092  0.1047 -0.3103
 2035POSM   C2A23878  13.380  11.133  12.836 -0.0252 -0.1390  0.0951
 2035POSM   C3A23879  13.628  11.112  13.254  0.1272  0.0010 -0.1114
 2035POSM   C1B23880  12.853  11.999  12.310  0.0912  0.0908  0.1437
 2035POSM   D2B23881  12.745  12.279  12.622 -0.3321  0.2552  0.1172
 2035POSM   C3B23882  12.742  12.128  13.010  0.1769 -0.1354  0.1281
 2035POSM   C4B23883  12.816  11.781  13.273  0.1454 -0.1307 -0.4272
 2036POSM   NC323884  17.556  22.681  11.936  0.1105  0.1485  0.0897
 2036POSM   PO423885  17.191  22.524  11.956  0.1244  0.2473 -0.0286
 2036POSM   AM123886  17.303  22.347  12.225  0.1798 -0.0918 -0.3581
 2036POSM   AM223887  17.492  22.414  12.417 -0.0218  0.1707 -0.3773
 2036POSM   T1A23888  17.211  22.042  12.617 -0.1045 -0.0016 -0.1476
 2036POSM   C2A23889  17.128  22.055  13.073 -0.0959 -0.0655  0.1298
 2036POSM   C3A23890  17.251  22.186  13.472  0.1098  0.1892  0.0974
 2036POSM   C1B23891  17.322  22.561  12.680  0.0466 -0.0345 -0.1875
 2036POSM   D2B23892  16.991  22.510  13.057  0.1382  0.1730  0.0989
 2036POSM   C3B23893  16.572  22.794  13.086 -0.1288 -0.0726 -0.1467
 2036POSM   C4B23894  16.408  23.202  13.221  0.0210 -0.1147 -0.3590
 2037DOPE   NH323895  10.833  16.989  12.277 -0.1574  0.6629 -0.1431
 2037DOPE   PO423896  10.961  17.001  12.567 -0.0601  0.1529 -0.0843
 2037DOPE   GL123897  10.848  17.179  12.883 -0.0300  0.2211  0.3493
 2037DOPE   GL223898  10.932  17.045  13.115  0.1600  0.0583 -0.1279
 2037DOPE   C1A23899  10.512  17.247  13.241 -0.1228 -0.2603  0.0726
 2037DOPE   D2A23900  10.364  17.353  13.639  0.2316 -0.3454 -0.1284
 2037DOPE   C3A23901  10.523  17.475  14.039  0.0820  0.1967  0.0406
 2037DOPE   C4A23902  10.377  17.315  14.435  0.1196 -0.0495 -0.1963
 2037DOPE   C1B23903  11.206  17.382  13.292 -0.2962 -0.0100 -0.3591
 2037DOPE   D2B23904  11.475  17.703  13.137  0.1483 -0.1413  0.0385
 2037DOPE   C3B23905  11.227  18.115  13.109  0.0447 -0.1759 -0.0697
 2037DOPE   C4B23906  11.096  18.303  13.519  0.1460  0.1100  0.1718
 2038DOPC   NC323907  17.476  10.147  11.814 -0.0518  0.0596  0.5773
 2038DOPC   PO423908  17.228  10.424  11.798 -0.0192 -0.2865  0.0248
 2038DOPC   GL123909  17.017  10.578  12.129  0.3406 -0.2435 -0.3001
 2038DOPC   GL223910  17.212  10.668  12.381 -0.0161  0.1230 -0.0663
 2038DOPC   C1A23911  16.784  10.952  12.174  0.0035 -0.3912 -0.3025
 2038DOPC   D2A23912  16.321  11.127  12.204 -0.0234 -0.1206  0.3023
 2038DOPC   C3A23913  16.002  11.396  12.556  0.0410 -0.0399 -0.0652
 2038DOPC   C4A23914  15.786  11.789  12.472 -0.0931  0.1706 -0.1848
 2038DOPC   C1B23915  16.850  10.438  12.550 -0.1156  0.4141  0.1924
 2038DOPC   D2B23916  16.499  10.290  12.782 -0.4049 -0.1118 -0.0088
 2038DOPC   C3B23917  16.116  10.523  12.891 -0.3255 -0.0230 -0.1450
 2038DOPC   C4B23918  15.920  10.888  12.660  0.0730  0.0486  0.0310
 2039POSM   NC323919  23.153  14.279  11.903 -0.0336  0.0912 -0.0436
 2039POSM   PO423920  22.771  14.285  11.915 -0.1924  0.0026  0.3213
 2039POSM   AM123921  22.602  14.401  12.156  0.1990 -0.4245 -0.0897
 2039POSM   AM223922  22.641  14.534  12.392 -0.1753 -0.1037  0.2593
 2039POSM   T1A23923  22.136  14.384  12.367 -0.2138 -0.0451 -0.0510
 2039POSM   C2A23924  21.701  14.369  12.466  0.0644 -0.1918 -0.1779
 2039POSM   C3A23925  21.313  14.529  12.753  0.0816 -0.1354  0.0768
 2039POSM   C1B23926  22.593  14.788  12.635 -0.4886 -0.3193 -0.0427
 2039POSM   D2B23927  22.397  15.082  12.979  0.0393 -0.1316 -0.0381
 2039POSM   C3B23928  22.473  15.496  13.051 -0.0914  0.1881 -0.1156
 2039POSM   C4B23929  22.676  15.814  13.379  0.0203  0.0877  0.2390
 2040POSM   NC323930  17.470  19.527  12.156 -0.1655 -0.1038 -0.3117
 2040POSM   PO423931  17.643  19.207  12.279  0.0666  0.1782 -0.0600
 2040POSM   AM123932  17.550  19.294  12.593 -0.0926 -0.0066 -0.3585
 2040POSM   AM223933  17.370  19.522  12.677 -0.0617 -0.0221  0.2306
 2040POSM   T1A23934  17.441  19.286  13.093 -0.2074 -0.1704 -0.2143
 2040POSM   C2A23935  17.624  19.371  13.488 -0.2778  0.0445 -0.0080
 2040POSM   C3A23936  17.859  19.549  13.925 -0.1689  0.0465  0.1035
 2040POSM   C1B23937  17.217  19.735  12.906  0.3840  0.3086 -0.0107
 2040POSM   D2B23938  17.279  20.040  13.219  0.2407  0.0961  0.1873
 2040POSM   C3B23939  17.360  19.902  13.712  0.3591  0.1458  0.1344
 2040POSM   C4B23940  17.349  19.480  13.886 -0.0333 -0.0374 -0.1712
 2041DOPC   NC323941  14.394  32.221  16.090  0.0491 -0.1382 -0.0500
 2041DOPC   PO423942  13.984  32.134  16.191 -0.0448 -0.0674  0.1272
 2041DOPC   GL123943  14.024  32.065  15.809  0.2959  0.0089 -0.0186
 2041DOPC   GL223944  14.196  31.882  15.656  0.0341 -0.4127  0.0665
 2041DOPC   C1A23945  13.890  32.204  15.389 -0.2675 -0.1172 -0.1266
 2041DOPC   D2A23946  13.605  32.236  14.987  0.3558  0.0792  0.3733
 2041DOPC   C3A23947  13.771  32.536  14.745 -0.0740  0.2575 -0.1005
 2041DOPC   C4A23948  14.212  32.534  14.661 -0.1723  0.0096  0.1493
 2041DOPC   C1B23949  13.898  31.673  15.426 -0.1242  0.4921 -0.3206
 2041DOPC   D2B23950  13.745  31.739  15.032  0.1602  0.0889 -0.0213
 2041DOPC   C3B23951  13.984  31.837  14.629  0.1344  0.1529  0.0329
 2041DOPC   C4B23952  14.230  31.905  14.233 -0.1043 -0.0116  0.2290
 2042DOPC   NC323953  21.688  26.113  15.379 -0.0187  0.0695  0.1442
 2042DOPC   PO423954  21.806  26.404  15.651  0.0068  0.0110 -0.0853
 2042DOPC   GL123955  21.678  26.584  15.411 -0.2612 -0.3157  0.3556
 2042DOPC   GL223956  21.784  26.683  15.246 -0.0980  0.3535  0.2538
 2042DOPC   C1A23957  21.314  26.491  15.110  0.2915 -0.1492  0.0021
 2042DOPC   D2A23958  20.898  26.666  15.039 -0.0610  0.3738 -0.1157
 2042DOPC   C3A23959  20.905  26.877  14.602  0.1045 -0.0946 -0.0247
 2042DOPC   C4A23960  20.894  27.012  14.164  0.0469  0.1171  0.0510
 2042DOPC   C1B23961  21.726  26.503  14.808  0.0865 -0.5954 -0.1429
 2042DOPC   D2B23962  21.772  26.496  14.319 -0.5404 -0.0184  0.0013
 2042DOPC   C3B23963  21.789  26.159  13.963  0.0324 -0.2493 -0.1685
 2042DOPC   C4B23964  21.693  26.004  13.490 -0.1547 -0.0347 -0.2013
 2043DOPE   NH323965  20.788  32.425  15.594 -0.2662 -0.3391  0.0050
 2043DOPE   PO423966  21.073  32.573  15.562  0.1454 -0.2015  0.2188
 2043DOPE   GL123967  20.942  32.645  15.188 -0.3092  0.0529 -0.0773
 2043DOPE   GL223968  20.799  32.829  15.083 -0.0024  0.1354 -0.1909
 2043DOPE   C1A23969  21.276  32.507  14.862  0.3680 -0.2627  0.0196
 2043DOPE   D2A23970  21.645  32.531  14.630  0.0790  0.4107 -0.1042
 2043DOPE   C3A23971  21.833  32.268  14.272 -0.0893 -0.0741  0.0807
 2043DOPE   C4A23972  22.017  32.074  13.861  0.1571  0.0389 -0.4876
 2043DOPE   C1B23973  20.872  32.838  14.595  0.3733  0.0633  0.0519
 2043DOPE   D2B23974  20.988  32.653  14.135  0.0321  0.0868  0.0799
 2043DOPE   C3B23975  21.282  32.268  14.177  0.2690  0.2169  0.2296
 2043DOPE   C4B23976  21.577  31.874  14.054  0.1522 -0.2129 -0.1634
 2044DOPE   NH323977  12.500  31.801  16.032  0.2004  0.0894  0.0694
 2044DOPE   PO423978  12.633  32.076  16.149 -0.2380  0.0271 -0.5560
 2044DOPE   GL123979  12.694  32.219  15.847 -0.0343 -0.2406 -0.0892
 2044DOPE   GL223980  12.552  32.119  15.582  0.1446 -0.0505  0.2164
 2044DOPE   C1A23981  13.031  32.227  15.547  0.0364  0.2391 -0.1929
 2044DOPE   D2A23982  13.386  32.446  15.354 -0.0654 -0.1631  0.0800
 2044DOPE   C3A23983  13.451  32.923  15.427 -0.2493  0.2336  0.1031
 2044DOPE   C4A23984  13.563  33.294  15.194  0.1949  0.1478  0.2086
 2044DOPE   C1B23985  12.698  32.145  15.122  0.1694 -0.0346  0.3926
 2044DOPE   D2B23986  12.755  31.834  14.841  0.5552 -0.0745 -0.0148
 2044DOPE   C3B23987  12.935  31.976  14.399  0.1835 -0.3927  0.0955
 2044DOPE   C4B23988  12.981  32.450  14.278  0.3478 -0.2762 -0.3286
 2045DOPC   NC323989  20.313  34.581  15.839  0.3095 -0.0510  0.2883
 2045DOPC   PO423990  20.588  34.837  15.802 -0.0645 -0.2123  0.4273
 2045DOPC   GL123991  20.735  34.629  15.521 -0.0986 -0.0173  0.3808
 2045DOPC   GL223992  20.569  34.611  15.346  0.0315  0.1664 -0.1277
 2045DOPC   C1A23993  21.126  34.614  15.243 -0.0698  0.2006  0.0441
 2045DOPC   D2A23994  21.312  34.548  14.823  0.3147 -0.1035  0.0732
 2045DOPC   C3A23995  21.386  34.492  14.347 -0.2033 -0.2940  0.3441
 2045DOPC   C4A23996  21.689  34.777  14.131 -0.0932  0.1336  0.2664
 2045DOPC   C1B23997  20.708  34.587  14.914 -0.0720 -0.0586 -0.1601
 2045DOPC   D2B23998  20.419  34.388  14.631  0.2110  0.1449  0.3323
 2045DOPC   C3B23999  20.161  34.663  14.425  0.2391  0.1579  0.0482
 2045DOPC   C4B24000  20.344  34.974  14.088 -0.0896 -0.1849 -0.1030
 2046DOPC   NC324001  21.981  32.488  15.660  0.1565  0.1175  0.1176
 2046DOPC   PO424002  22.240  32.667  15.922 -0.0873  0.0797 -0.1071
 2046DOPC   GL124003  22.430  32.710  15.598 -0.3732  0.0861 -0.2479
 2046DOPC   GL224004  22.216  32.984  15.529 -0.1275 -0.0361 -0.0117
 2046DOPC   C1A24005  22.578  32.696  15.177 -0.0124 -0.1202 -0.0519
 2046DOPC   D2A24006  22.689  32.944  14.774  0.0107  0.2099 -0.3586
 2046DOPC   C3A24007  22.799  33.273  14.436 -0.0441  0.1902 -0.1460
 2046DOPC   C4A24008  23.071  33.376  14.114 -0.1266  0.1179 -0.2314
 2046DOPC   C1B24009  21.817  32.992  15.345  0.0583  0.2636  0.0507
 2046DOPC   D2B24010  21.823  33.052  14.926  0.0741  0.3846 -0.3280
 2046DOPC   C3B24011  21.791  33.207  14.467  0.3777 -0.0328  0.0768
 2046DOPC   C4B24012  21.494  33.342  14.194 -0.0924 -0.2249  0.1802
 2047POSM   NC324013  15.523  26.286  15.546 -0.0004  0.3086  0.1459
 2047POSM   PO424014  15.207  26.344  15.773  0.0913  0.0147 -0.0751
 2047POSM   AM124015  15.077  26.541  15.556  0.1057  0.2023  0.1581
 2047POSM   AM224016  15.247  26.684  15.317 -0.0491 -0.0029  0.1868
 2047POSM   T1A24017  14.804  26.754  15.162  0.1983 -0.1523  0.1679
 2047POSM   C2A24018  14.463  27.061  15.239  0.0619  0.3277  0.1190
 2047POSM   C3A24019  14.222  27.454  15.325  0.0980 -0.1295  0.1433
 2047POSM   C1B24020  15.304  26.747  15.021 -0.0794 -0.2472 -0.1143
 2047POSM   D2B24021  15.471  26.785  14.541  0.0126  0.0496 -0.1310
 2047POSM   C3B24022  15.264  26.481  14.268  0.1865 -0.2417  0.1830
 2047POSM   C4B24023  15.218  26.274  13.833 -0.5203 -0.0881 -0.1942
 2048DOPS   CNO24024  19.780  32.544  15.696 -0.0582 -0.3809 -0.1566
 2048DOPS   PO424025  19.978  32.785  15.548 -0.0387  0.1651  0.0549
 2048DOPS   GL124026  20.002  32.870  15.209 -0.1640  0.1889 -0.0228
 2048DOPS   GL224027  19.813  32.607  15.135 -0.4044  0.0397 -0.0814
 2048DOPS   C1A24028  20.032  33.072  14.799 -0.2130  0.2176 -0.2395
 2048DOPS   D2A24029  20.131  33.424  14.576 -0.0274  0.0681 -0.0428
 2048DOPS   C3A24030  19.877  33.584  14.204  0.1203  0.4040  0.1905
 2048DOPS   C4A24031  19.592  33.902  14.206  0.0435 -0.0110 -0.0296
 2048DOPS   C1B24032  19.819  32.474  14.718 -0.0417  0.0537 -0.4135
 2048DOPS   D2B24033  19.932  32.629  14.277 -0.0400 -0.1313  0.3713
 2048DOPS   C3B24034  19.798  32.737  13.838 -0.2478  0.2281  0.1689
 2048DOPS   C4B24035  19.678  32.558  13.419 -0.0048 -0.0939  0.0919
 2049DOPC   NC324036  16.499  26.325  15.705  0.0649  0.0307 -0.3008
 2049DOPC   PO424037  16.801  26.178  15.913  0.3080 -0.3607 -0.3242
 2049DOPC   GL124038  16.966  25.773  15.687  0.0159 -0.2972 -0.0626
 2049DOPC   GL224039  16.888  25.941  15.436  0.2844 -0.3037  0.4068
 2049DOPC   C1A24040  17.323  25.745  15.351  0.1879  0.1739 -0.0616
 2049DOPC   D2A24041  17.681  25.609  15.153  0.0611 -0.2584 -0.0530
 2049DOPC   C3A24042  17.867  25.501  14.678  0.2520  0.1630 -0.0716
 2049DOPC   C4A24043  17.775  25.430  14.232 -0.2444 -0.2524  0.4388
 2049DOPC   C1B24044  16.784  25.989  14.997 -0.1675 -0.3605  0.2308
 2049DOPC   D2B24045  16.402  26.118  14.825  0.3889  0.3338 -0.1282
 2049DOPC   C3B24046  16.023  26.387  14.939  0.0158  0.1088  0.2426
 2049DOPC   C4B24047  15.577  26.348  15.061 -0.1966  0.1280  0.2602
 2050DOPE   NH324048  14.397  28.770  16.353 -0.1471  0.0875 -0.2325
 2050DOPE   PO424049  14.419  29.057  16.193 -0.0505 -0.4999  0.0618
 2050DOPE   GL124050  14.447  29.107  15.860 -0.1324  0.4166 -0.0556
 2050DOPE   GL224051  14.704  29.147  15.741  0.3932  0.0836 -0.3083
 2050DOPE   C1A24052  14.270  28.842  15.553 -0.0297 -0.1466 -0.0389
 2050DOPE   D2A24053  14.240  28.396  15.355 -0.2512 -0.2251  0.0500
 2050DOPE   C3A24054  14.463  28.510  15.028 -0.0971  0.0155  0.1459
 2050DOPE   C4A24055  14.632  28.939  14.782  0.1375 -0.1916 -0.0538
 2050DOPE   C1B24056  15.018  29.053  15.383 -0.0548 -0.0381  0.0478
 2050DOPE   D2B24057  15.115  28.998  14.932  0.0461  0.1074  0.0824
 2050DOPE   C3B24058  14.958  29.420  14.784 -0.2496 -0.2251  0.2915
 2050DOPE   C4B24059  14.681  29.659  14.501  0.0205 -0.0792 -0.0976
 2051POSM   NC324060  20.203  32.317  15.543  0.3361 -0.0782 -0.3062
 2051POSM   PO424061  20.480  32.100  15.738  0.1040 -0.0615  0.1313
 2051POSM   AM124062  20.519  32.032  15.400 -0.1100  0.4443  0.2056
 2051POSM   AM224063  20.583  32.117  15.148  0.0760 -0.3370  0.3042
 2051POSM   T1A24064  20.547  31.658  15.029 -0.3015  0.1122 -0.2949
 2051POSM   C2A24065  20.568  31.511  14.647  0.0910 -0.0569 -0.0655
 2051POSM   C3A24066  20.512  31.619  14.189 -0.0850  0.1691  0.0552
 2051POSM   C1B24067  20.812  32.247  14.929  0.2167  0.2836  0.0368
 2051POSM   D2B24068  20.937  32.380  14.531 -0.3878  0.1788  0.2516
 2051POSM   C3B24069  20.765  32.185  14.126  0.2732 -0.2030 -0.2041
 2051POSM   C4B24070  20.731  32.323  13.630  0.1740 -0.0061 -0.0111
 2052DOPS   CNO24071  17.659  34.273  15.405 -0.0882 -0.3163 -0.0428
 2052DOPS   PO424072  17.428  34.545  15.566  0.1222  0.1485  0.1427
 2052DOPS   GL124073  17.486  34.729  15.242  0.0927 -0.3259  0.2596
 2052DOPS   GL224074  17.266  34.892  15.199  0.1008  0.0483  0.0815
 2052DOPS   C1A24075  17.653  34.958  14.874 -0.1726  0.2026 -0.0048
 2052DOPS   D2A24076  17.507  34.740  14.453 -0.1535 -0.3967  0.0554
 2052DOPS   C3A24077  17.703  34.383  14.344  0.0623 -0.2483  0.2827
 2052DOPS   C4A24078  17.761  34.236  13.829 -0.1969 -0.0339 -0.3225
 2052DOPS   C1B24079  17.192  34.649  14.840  0.3923  0.0186 -0.1266
 2052DOPS   D2B24080  17.221  34.350  14.554  0.0226 -0.2362  0.1145
 2052DOPS   C3B24081  17.261  34.528  14.094  0.0215 -0.2536 -0.1518
 2052DOPS   C4B24082  17.315  34.438  13.657 -0.1983  0.4791  0.0315
 2053DOPC   NC324083  22.330  25.550  15.788 -0.0537  0.1083  0.1577
 2053DOPC   PO424084  22.087  25.367  15.517  0.0398  0.0850  0.1279
 2053DOPC   GL124085  22.117  25.417  15.167 -0.2830  0.2641  0.1775
 2053DOPC   GL224086  21.923  25.632  15.086 -0.0743 -0.2863  0.1695
 2053DOPC   C1A24087  22.469  25.299  14.898 -0.0430 -0.0064 -0.0822
 2053DOPC   D2A24088  22.447  25.264  14.428  0.2234 -0.0247  0.2724
 2053DOPC   C3A24089  22.071  25.497  14.173 -0.2005 -0.0639 -0.0503
 2053DOPC   C4A24090  21.743  25.652  13.945  0.1550  0.3956  0.0282
 2053DOPC   C1B24091  21.568  25.588  14.783 -0.3761  0.1319  0.0838
 2053DOPC   D2B24092  21.605  25.365  14.368 -0.3124  0.2311 -0.0273
 2053DOPC   C3B24093  21.404  25.292  13.957 -0.0533 -0.1483 -0.0121
 2053DOPC   C4B24094  21.401  24.829  13.864  0.0563  0.0354 -0.2362
 2054DOPE   NH324095  17.791  27.668  15.907 -0.0679  0.0899  0.1952
 2054DOPE   PO424096  17.810  27.372  15.992 -0.3683  0.0414 -0.0496
 2054DOPE   GL124097  17.665  27.168  15.668 -0.2943 -0.1977  0.5552
 2054DOPE   GL224098  17.400  27.301  15.565  0.0403  0.5875  0.0373
 2054DOPE   C1A24099  17.715  27.226  15.193 -0.2112  0.0922 -0.0663
 2054DOPE   D2A24100  17.647  27.259  14.739  0.1610  0.2518  0.3286
 2054DOPE   C3A24101  18.020  27.340  14.441  0.2313  0.0271  0.1749
 2054DOPE   C4A24102  18.451  27.431  14.481  0.2800 -0.2619 -0.1129
 2054DOPE   C1B24103  17.659  27.642  15.388  0.0752 -0.1163  0.1154
 2054DOPE   D2B24104  17.802  28.094  15.466  0.0365 -0.3385 -0.1455
 2054DOPE   C3B24105  17.780  28.564  15.324  0.1868  0.2664  0.3542
 2054DOPE   C4B24106  18.023  28.702  14.944 -0.1908 -0.4862  0.0623
 2055DOPE   NH324107  17.303  28.758  16.321  0.2312 -0.2996  0.0493
 2055DOPE   PO424108  17.215  28.738  16.035 -0.1213 -0.0217  0.1439
 2055DOPE   GL124109  17.134  28.795  15.721 -0.2994  0.2410 -0.2526
 2055DOPE   GL224110  16.841  28.719  15.708  0.1179  0.0478 -0.0788
 2055DOPE   C1A24111  17.304  28.608  15.328  0.0485 -0.0668 -0.1496
 2055DOPE   D2A24112  17.419  28.543  14.891 -0.3796  0.1224  0.1613
 2055DOPE   C3A24113  17.141  28.611  14.548  0.0479  0.0809  0.2553
 2055DOPE   C4A24114  16.945  28.726  14.157  0.0961 -0.2641  0.0150
 2055DOPE   C1B24115  16.625  28.520  15.416 -0.0941 -0.0413 -0.0768
 2055DOPE   D2B24116  16.420  28.456  14.940  0.0634  0.0417  0.0759
 2055DOPE   C3B24117  16.513  28.861  14.650 -0.0636 -0.0039 -0.0897
 2055DOPE   C4B24118  16.585  29.219  14.330 -0.0492 -0.4588 -0.2725
 2056DOPC   NC324119  19.053  34.004  15.779  0.2562  0.0311  0.0892
 2056DOPC   PO424120  19.397  33.817  15.817 -0.1727  0.0310 -0.2773
 2056DOPC   GL124121  19.469  33.569  15.494 -0.0445  0.2733 -0.2761
 2056DOPC   GL224122  19.752  33.627  15.442 -0.0881 -0.0498 -0.2668
 2056DOPC   C1A24123  19.329  33.749  15.091 -0.2052  0.0163  0.1876
 2056DOPC   D2A24124  19.422  34.023  14.717  0.0049  0.0690  0.0211
 2056DOPC   C3A24125  19.211  34.148  14.303  0.0229 -0.2711  0.1659
 2056DOPC   C4A24126  19.220  34.309  13.845 -0.0694  0.0711  0.1179
 2056DOPC   C1B24127  20.082  33.850  15.349  0.1346 -0.0875 -0.0420
 2056DOPC   D2B24128  20.346  34.148  15.096 -0.0282 -0.0252 -0.0513
 2056DOPC   C3B24129  20.137  34.514  15.179 -0.0800 -0.1922  0.3389
 2056DOPC   C4B24130  20.049  34.938  14.928 -0.3119  0.1599  0.0515
 2057POSM   NC324131  21.702  29.434  16.392 -0.0168 -0.1621  0.0589
 2057POSM   PO424132  21.390  29.312  16.160  0.0413 -0.0201  0.0714
 2057POSM   AM124133  21.286  29.492  15.942 -0.0145  0.2241 -0.1952
 2057POSM   AM224134  21.424  29.648  15.743  0.1966 -0.0661 -0.1410
 2057POSM   T1A24135  20.940  29.784  15.683 -0.1537 -0.0348 -0.2356
 2057POSM   C2A24136  20.880  29.828  15.214 -0.0264 -0.0359 -0.1531
 2057POSM   C3A24137  20.900  29.721  14.750 -0.1163  0.1737  0.1918
 2057POSM   C1B24138  21.525  29.855  15.515  0.3665 -0.0138 -0.3826
 2057POSM   D2B24139  21.669  30.181  15.333 -0.0110  0.0336 -0.2961
 2057POSM   C3B24140  22.008  30.264  15.644 -0.2399  0.4147 -0.2041
 2057POSM   C4B24141  22.264  30.585  15.885  0.2078 -0.0440 -0.2923
 2058DOPE   NH324142  12.062  33.336  16.421  0.0186  0.4981 -0.0264
 2058DOPE   PO424143  11.854  33.170  16.305 -0.4158 -0.0743 -0.2593
 2058DOPE   GL124144  12.084  33.075  15.953 -0.0040  0.2226  0.3730
 2058DOPE   GL224145  11.834  33.097  15.734  0.0288  0.2651 -0.1084
 2058DOPE   C1A24146  12.248  32.775  15.669 -0.2281  0.0902 -0.1515
 2058DOPE   D2A24147  12.678  32.719  15.575  0.0937  0.0449 -0.0521
 2058DOPE   C3A24148  13.005  32.752  15.274 -0.0588  0.1445  0.4813
 2058DOPE   C4A24149  13.323  32.743  14.953 -0.0211  0.2015 -0.0130
 2058DOPE   C1B24150  11.701  33.128  15.279 -0.0453  0.1405  0.2553
 2058DOPE   D2B24151  11.374  32.985  14.991 -0.0171 -0.2159  0.0119
 2058DOPE   C3B24152  11.500  33.021  14.527  0.4429  0.2114  0.0675
 2058DOPE   C4B24153  11.599  33.047  14.051  0.0445 -0.0806  0.1014
 2059DOPS   CNO24154  16.459  24.260  15.451  0.3150  0.1631 -0.1937
 2059DOPS   PO424155  16.477  24.384  15.098  0.1914  0.1303 -0.0051
 2059DOPS   GL124156  16.429  24.710  14.865  0.1193 -0.1887 -0.1118
 2059DOPS   GL224157  16.691  24.860  14.935 -0.0221 -0.1543 -0.0808
 2059DOPS   C1A24158  16.238  24.687  14.446 -0.1679  0.0823 -0.1973
 2059DOPS   D2A24159  16.187  24.382  14.071  0.3606 -0.0277 -0.2913
 2059DOPS   C3A24160  15.879  24.109  13.858  0.0511  0.1285  0.0135
 2059DOPS   C4A24161  15.778  23.983  13.408  0.4351  0.0982  0.1499
 2059DOPS   C1B24162  16.407  25.194  14.763 -0.0589 -0.1121 -0.0068
 2059DOPS   D2B24163  16.121  25.512  14.586  0.1324 -0.3044 -0.4268
 2059DOPS   C3B24164  15.696  25.608  14.393  0.0259  0.1435 -0.0127
 2059DOPS   C4B24165  15.279  25.716  14.260  0.2893 -0.0722 -0.0023
 2060POSM   NC324166  19.233  31.210  16.224 -0.2021 -0.1092 -0.2618
 2060POSM   PO424167  19.134  31.380  15.918  0.1072  0.3135  0.2697
 2060POSM   AM124168  18.886  31.410  15.694  0.1173 -0.1950  0.1449
 2060POSM   AM224169  18.850  31.513  15.444 -0.3005 -0.0870 -0.1305
 2060POSM   T1A24170  18.717  31.065  15.347  0.1186 -0.1451 -0.0144
 2060POSM   C2A24171  18.483  30.626  15.386  0.0385  0.2702  0.0891
 2060POSM   C3A24172  18.721  30.237  15.385  0.1342  0.2441  0.1036
 2060POSM   C1B24173  18.929  31.503  15.109 -0.0217  0.2979  0.1441
 2060POSM   D2B24174  18.898  31.683  14.694 -0.0140  0.2277 -0.1519
 2060POSM   C3B24175  18.476  31.654  14.444  0.3469  0.0632 -0.1308
 2060POSM   C4B24176  18.397  32.052  14.183  0.1698  0.3223  0.1317
 2061POSM   NC324177  16.447  31.985  16.194  0.2516  0.1711  0.2423
 2061POSM   PO424178  16.764  31.819  16.160 -0.1562  0.1409 -0.0471
 2061POSM   AM124179  16.769  31.886  15.836  0.2866  0.3042  0.0177
 2061POSM   AM224180  16.964  31.964  15.631  0.0882 -0.1252  0.0620
 2061POSM   T1A24181  16.664  31.678  15.404 -0.2818 -0.4080  0.3818
 2061POSM   C2A24182  16.700  31.558  14.943 -0.3087  0.0805 -0.2637
 2061POSM   C3A24183  17.029  31.255  14.810 -0.3491  0.0546 -0.3011
 2061POSM   C1B24184  17.085  31.886  15.286  0.0275  0.3440  0.1914
 2061POSM   D2B24185  17.232  31.735  14.881  0.0604 -0.0192 -0.0224
 2061POSM   C3B24186  17.107  31.632  14.517  0.0963 -0.0005  0.1150
 2061POSM   C4B24187  16.729  31.374  14.388  0.1143  0.3735 -0.0734
 2062DOPC   NC324188  14.194  24.202  15.709 -0.0235  0.0210  0.1109
 2062DOPC   PO424189  14.435  23.941  15.518  0.1130 -0.4521  0.0463
 2062DOPC   GL124190  14.318  23.937  15.140 -0.0622  0.0085  0.1021
 2062DOPC   GL224191  14.402  23.656  15.089 -0.1917 -0.0749  0.0855
 2062DOPC   C1A24192  14.006  24.136  14.878  0.3281  0.3678 -0.0792
 2062DOPC   D2A24193  13.880  24.344  14.492  0.1598  0.0703  0.0948
 2062DOPC   C3A24194  14.222  24.262  14.233  0.1396 -0.1814  0.0342
 2062DOPC   C4A24195  14.524  24.509  13.966  0.3382  0.2276 -0.0148
 2062DOPC   C1B24196  14.169  23.389  14.826 -0.1255 -0.0699  0.0277
 2062DOPC   D2B24197  14.241  23.288  14.331  0.0402  0.1526 -0.0771
 2062DOPC   C3B24198  13.873  23.528  14.101  0.1307  0.0450  0.0333
 2062DOPC   C4B24199  13.672  23.931  14.179 -0.0449  0.2139 -0.0749
 2063DOPS   CNO24200  18.810  27.216  16.302 -0.3780  0.2398 -0.2139
 2063DOPS   PO424201  19.050  27.282  16.043  0.4069 -0.0778  0.0438
 2063DOPS   GL124202  19.162  27.321  15.760 -0.1445 -0.1157  0.2751
 2063DOPS   GL224203  19.228  27.695  15.823 -0.2258  0.0369  0.0697
 2063DOPS   C1A24204  19.205  27.390  15.337 -0.2074  0.1769 -0.1146
 2063DOPS   D2A24205  19.556  27.428  14.977 -0.1629  0.0664  0.0952
 2063DOPS   C3A24206  19.729  27.013  15.051  0.4093  0.2161 -0.0280
 2063DOPS   C4A24207  19.932  26.876  14.699 -0.0071  0.2758 -0.1182
 2063DOPS   C1B24208  19.501  27.735  15.443 -0.1958 -0.0360 -0.1313
 2063DOPS   D2B24209  19.743  27.857  15.083 -0.2344 -0.0168 -0.1546
 2063DOPS   C3B24210  19.532  27.852  14.668  0.0033  0.0599  0.1317
 2063DOPS   C4B24211  19.637  27.875  14.242 -0.4130  0.1098 -0.1628
 2064DOPE   NH324212  20.844  33.029  15.635  0.1376 -0.3543  0.4219
 2064DOPE   PO424213  20.674  33.239  15.739  0.1028 -0.0584  0.0050
 2064DOPE   GL124214  20.823  33.560  15.504 -0.2114 -0.5165 -0.1609
 2064DOPE   GL224215  20.601  33.719  15.442 -0.3203  0.0312 -0.1562
 2064DOPE   C1A24216  21.014  33.799  15.106  0.2851  0.1425  0.0241
 2064DOPE   D2A24217  21.318  34.056  14.811 -0.2315 -0.0250  0.0236
 2064DOPE   C3A24218  21.536  33.738  14.517  0.4401 -0.2078 -0.0400
 2064DOPE   C4A24219  21.885  33.828  14.172  0.2972  0.0838 -0.3802
 2064DOPE   C1B24220  20.572  33.632  14.972 -0.0345 -0.1774  0.2436
 2064DOPE   D2B24221  20.486  33.731  14.549 -0.0292  0.0533 -0.1396
 2064DOPE   C3B24222  20.439  33.582  14.097  0.1136  0.1922 -0.6006
 2064DOPE   C4B24223  20.612  33.498  13.671 -0.0241 -0.2913 -0.0798
 2065POSM   NC324224  21.348  28.023  15.430 -0.0097 -0.0541  0.1779
 2065POSM   PO424225  21.670  28.051  15.667 -0.0803 -0.0658  0.0885
 2065POSM   AM124226  21.804  28.300  15.513 -0.0596  0.3419 -0.0475
 2065POSM   AM224227  21.922  28.564  15.579  0.3556 -0.1768  0.2112
 2065POSM   T1A24228  21.803  28.581  15.107  0.0669 -0.0492 -0.2756
 2065POSM   C2A24229  22.127  28.855  14.848 -0.0654 -0.0848  0.1102
 2065POSM   C3A24230  22.155  29.058  14.457  0.4284  0.1468 -0.2004
 2065POSM   C1B24231  21.830  28.894  15.512  0.2241 -0.2222  0.0649
 2065POSM   D2B24232  21.740  29.423  15.472  0.0147 -0.0035 -0.1891
 2065POSM   C3B24233  21.978  29.797  15.222 -0.0601 -0.1705  0.1344
 2065POSM   C4B24234  22.201  30.165  15.199 -0.1946  0.2201  0.3916
 2066POSM   NC324235  23.250  24.771  15.369 -0.0572 -0.1555  0.2535
 2066POSM   PO424236  22.902  24.863  15.557 -0.0650 -0.0189 -0.0691
 2066POSM   AM124237  22.790  24.920  15.241 -0.0393 -0.4715 -0.1194
 2066POSM   AM224238  22.930  25.088  15.063 -0.3785  0.0370  0.0959
 2066POSM   T1A24239  22.619  24.658  14.874 -0.2409 -0.3395 -0.0324
 2066POSM   C2A24240  22.502  24.435  14.418 -0.0763 -0.2388  0.1886
 2066POSM   C3A24241  22.183  24.511  14.084 -0.1242  0.1511  0.0394
 2066POSM   C1B24242  22.879  24.992  14.704  0.5156  0.3035 -0.0730
 2066POSM   D2B24243  22.719  24.905  14.268  0.0675  0.0242 -0.0908
 2066POSM   C3B24244  22.461  25.118  13.954  0.0356 -0.1748  0.2456
 2066POSM   C4B24245  22.372  25.238  13.497 -0.0059  0.0245  0.0294
 2067DOPC   NC324246  12.938  31.315  16.019  0.2690  0.1071 -0.1105
 2067DOPC   PO424247  13.294  31.480  16.000 -0.0136  0.0782 -0.0490
 2067DOPC   GL124248  13.306  31.501  15.587  0.0782  0.2907  0.2734
 2067DOPC   GL224249  13.393  31.737  15.521 -0.1567  0.2665 -0.0619
 2067DOPC   C1A24250  13.004  31.182  15.367 -0.1877  0.3345  0.1739
 2067DOPC   D2A24251  12.682  30.999  15.077  0.0432 -0.1863  0.0057
 2067DOPC   C3A24252  12.640  31.066  14.638  0.3740  0.0123 -0.2034
 2067DOPC   C4A24253  12.294  31.046  14.321  0.0282 -0.0188  0.0455
 2067DOPC   C1B24254  13.517  32.118  15.734 -0.0936 -0.0168  0.1108
 2067DOPC   D2B24255  13.828  32.527  15.811  0.0782  0.4571  0.0616
 2067DOPC   C3B24256  14.223  32.597  15.538  0.0497 -0.0084  0.3030
 2067DOPC   C4B24257  14.366  32.749  15.126  0.3394 -0.1739  0.0550
 2068DOPC   NC324258  12.274  25.736  15.823  0.0521 -0.0138  0.3109
 2068DOPC   PO424259  12.665  25.779  15.745  0.1106  0.1942 -0.0284
 2068DOPC   GL124260  12.699  25.812  15.413 -0.3077 -0.2312 -0.2561
 2068DOPC   GL224261  12.737  25.625  15.208  0.1185 -0.0653  0.2909
 2068DOPC   C1A24262  12.795  26.078  15.056  0.1953 -0.1966  0.0184
 2068DOPC   D2A24263  12.658  26.319  14.685  0.3069 -0.0503  0.1974
 2068DOPC   C3A24264  12.534  26.250  14.199  0.0956 -0.2490  0.1331
 2068DOPC   C4A24265  12.626  26.188  13.716 -0.0528 -0.1284 -0.1093
 2068DOPC   C1B24266  12.981  25.705  14.819 -0.2607 -0.1838 -0.1995
 2068DOPC   D2B24267  12.900  25.985  14.415  0.1710  0.0374  0.1396
 2068DOPC   C3B24268  12.959  25.756  14.019  0.1715 -0.0962  0.0499
 2068DOPC   C4B24269  12.951  25.733  13.576  0.3062 -0.0491  0.1174
 2069POSM   NC324270  18.503  23.435  16.274 -0.0868 -0.0497  0.2154
 2069POSM   PO424271  18.396  23.467  15.905  0.1462  0.1069 -0.1980
 2069POSM   AM124272  18.370  23.381  15.540  0.0307  0.2226 -0.2099
 2069POSM   AM224273  18.168  23.364  15.354 -0.1472 -0.0351  0.0833
 2069POSM   T1A24274  18.438  23.127  15.080 -0.1933 -0.2767 -0.2284
 2069POSM   C2A24275  18.239  22.955  14.691  0.2111  0.3614 -0.1824
 2069POSM   C3A24276  18.230  23.142  14.296  0.1488  0.2587 -0.0114
 2069POSM   C1B24277  18.035  23.435  14.985  0.2760  0.3060  0.2227
 2069POSM   D2B24278  17.990  23.551  14.541  0.0027 -0.0476  0.1025
 2069POSM   C3B24279  18.171  23.637  14.104 -0.0081  0.1163  0.1852
 2069POSM   C4B24280  18.390  23.903  13.803  0.1384 -0.1130 -0.3357
 2070POSM   NC324281  23.937  28.282  15.655  0.1080 -0.1041 -0.0106
 2070POSM   PO424282  23.663  27.998  15.687 -0.0974  0.2130  0.3219
 2070POSM   AM124283  23.436  28.203  15.544  0.0863  0.2196 -0.1305
 2070POSM   AM224284  23.408  28.483  15.524 -0.2011 -0.0097  0.3200
 2070POSM   T1A24285  23.059  28.156  15.219 -0.0888 -0.1695  0.0215
 2070POSM   C2A24286  22.816  28.049  14.862  0.1436  0.0092 -0.0248
 2070POSM   C3A24287  22.488  27.724  14.772  0.1107  0.0916 -0.1026
 2070POSM   C1B24288  23.297  28.649  15.307 -0.2923 -0.1531  0.2139
 2070POSM   D2B24289  23.219  28.973  14.967 -0.1178  0.0081  0.0601
 2070POSM   C3B24290  23.396  28.843  14.546  0.0225 -0.1223 -0.4270
 2070POSM   C4B24291  23.529  28.943  14.112  0.0922 -0.1017 -0.0958
 2071DOPE   NH324292  21.566  33.781  15.759  0.1971 -0.0992 -0.1436
 2071DOPE   PO424293  21.721  33.498  15.815  0.2527  0.1833 -0.1674
 2071DOPE   GL124294  21.705  33.439  15.421  0.0769 -0.0960  0.0673
 2071DOPE   GL224295  21.457  33.577  15.305  0.1373  0.0800  0.0159
 2071DOPE   C1A24296  21.784  33.533  14.991 -0.2434 -0.2027  0.0334
 2071DOPE   D2A24297  22.060  33.766  14.619  0.2807  0.1209  0.0667
 2071DOPE   C3A24298  22.213  33.446  14.326 -0.1248  0.3272 -0.3338
 2071DOPE   C4A24299  22.504  33.236  14.051 -0.1376 -0.1133 -0.3168
 2071DOPE   C1B24300  21.303  33.480  14.899 -0.1917  0.2219  0.1924
 2071DOPE   D2B24301  21.044  33.602  14.545  0.0607  0.4147  0.2204
 2071DOPE   C3B24302  20.915  33.242  14.320 -0.1577 -0.1209  0.0764
 2071DOPE   C4B24303  20.629  33.101  13.962 -0.2920 -0.1101 -0.0637
 2072DOPC   NC324304  18.470  32.646  15.773  0.3823  0.2385 -0.0643
 2072DOPC   PO424305  18.783  32.895  15.663 -0.2521  0.3930  0.1514
 2072DOPC   GL124306  18.615  32.994  15.292  0.1840  0.1313 -0.5120
 2072DOPC   GL224307  18.820  33.024  15.113  0.0772  0.1960  0.0419
 2072DOPC   C1A24308  18.353  33.226  14.997  0.2899 -0.0646 -0.0422
 2072DOPC   D2A24309  18.171  33.266  14.586  0.0233  0.1545  0.3325
 2072DOPC   C3A24310  18.391  33.030  14.216 -0.1964 -0.0120  0.1731
 2072DOPC   C4A24311  18.569  33.118  13.814 -0.1767 -0.0478  0.3145
 2072DOPC   C1B24312  19.042  32.640  14.965  0.0164  0.1083 -0.0995
 2072DOPC   D2B24313  19.371  32.637  14.585  0.0658 -0.0651  0.1873
 2072DOPC   C3B24314  19.555  32.298  14.343 -0.1388  0.1689 -0.1176
 2072DOPC   C4B24315  19.818  31.909  14.265  0.0323  0.2057  0.3095
 2073DOPE   NH324316  20.183  29.066  16.312  0.4212 -0.2803  0.0819
 2073DOPE   PO424317  20.172  29.397  16.233  0.0377  0.2743  0.1437
 2073DOPE   GL124318  20.027  29.479  15.906 -0.3217  0.3918  0.2881
 2073DOPE   GL224319  20.247  29.467  15.697  0.1375  0.1332  0.1961
 2073DOPE   C1A24320  19.925  29.837  15.650  0.1959 -0.1715  0.3475
 2073DOPE   D2A24321  19.770  30.233  15.420  0.0135  0.1052  0.4190
 2073DOPE   C3A24322  19.631  30.132  14.940 -0.1546 -0.1895  0.1766
 2073DOPE   C4A24323  19.442  29.850  14.645  0.2725  0.1324 -0.1019
 2073DOPE   C1B24324  20.318  29.413  15.266 -0.2012  0.0805 -0.0685
 2073DOPE   D2B24325  20.023  29.231  14.978 -0.1713  0.0936  0.0608
 2073DOPE   C3B24326  19.895  29.228  14.537 -0.0339  0.2616  0.1332
 2073DOPE   C4B24327  19.825  29.208  14.017 -0.2617 -0.0435 -0.1189
 2074DOPE   NH324328  22.420  26.221  15.425 -0.4193 -0.0254 -0.0608
 2074DOPE   PO424329  22.228  26.220  15.152 -0.0069 -0.3267 -0.1954
 2074DOPE   GL124330  22.033  26.105  14.776  0.1517  0.1122  0.0381
 2074DOPE   GL224331  22.172  26.237  14.558  0.0194 -0.3095 -0.1346
 2074DOPE   C1A24332  21.835  25.885  14.432  0.2383  0.2686  0.1889
 2074DOPE   D2A24333  21.383  25.879  14.296 -0.4296  0.2122  0.0908
 2074DOPE   C3A24334  21.321  25.953  13.855  0.3721 -0.5309 -0.1491
 2074DOPE   C4A24335  20.957  26.231  13.744  0.0926 -0.2034  0.0361
 2074DOPE   C1B24336  22.220  26.371  14.089  0.2409 -0.1929  0.2506
 2074DOPE   D2B24337  22.158  26.392  13.628 -0.1494  0.1885  0.0207
 2074DOPE   C3B24338  21.999  26.826  13.536 -0.0069  0.0384  0.0610
 2074DOPE   C4B24339  21.694  26.911  13.237  0.1024 -0.0951  0.1627
 2075DOPE   NH324340  18.836  26.184  15.825 -0.0543  0.1777  0.0773
 2075DOPE   PO424341  18.759  25.909  15.616 -0.0804 -0.0242 -0.0492
 2075DOPE   GL124342  18.580  26.269  15.431 -0.2550 -0.2338  0.1913
 2075DOPE   GL224343  18.802  26.515  15.385 -0.2319 -0.2337  0.3506
 2075DOPE   C1A24344  18.635  26.263  15.001  0.3148  0.0172 -0.0770
 2075DOPE   D2A24345  18.540  26.198  14.556 -0.1054  0.2862  0.2507
 2075DOPE   C3A24346  18.676  25.932  14.235 -0.2570  0.1389  0.0516
 2075DOPE   C4A24347  18.721  25.604  13.901 -0.0712 -0.0780  0.0219
 2075DOPE   C1B24348  18.828  26.924  15.170  0.0435  0.0297 -0.1589
 2075DOPE   D2B24349  19.120  27.165  14.895 -0.1345  0.0291 -0.1106
 2075DOPE   C3B24350  18.975  27.196  14.462 -0.2072  0.4479 -0.2880
 2075DOPE   C4B24351  18.864  27.431  14.097 -0.0061  0.1277  0.1760
 2076DOPS   CNO24352  13.118  28.076  16.290 -0.0976 -0.0569  0.1324
 2076DOPS   PO424353  12.994  28.382  16.268  0.0657  0.0360 -0.0694
 2076DOPS   GL124354  13.285  28.405  15.965  0.1458  0.3476  0.4967
 2076DOPS   GL224355  13.176  28.621  15.784 -0.1225  0.1675 -0.1169
 2076DOPS   C1A24356  13.430  28.253  15.511 -0.3956 -0.0035  0.1339
 2076DOPS   D2A24357  13.333  28.077  15.101  0.2951  0.1143  0.0669
 2076DOPS   C3A24358  13.389  28.455  14.866 -0.1808  0.0120 -0.3053
 2076DOPS   C4A24359  13.362  28.626  14.462 -0.1102  0.0513  0.1136
 2076DOPS   C1B24360  13.199  28.591  15.332 -0.3560  0.1827 -0.0565
 2076DOPS   D2B24361  13.088  28.804  14.966 -0.4233 -0.1571  0.1903
 2076DOPS   C3B24362  12.726  28.877  14.674  0.0868  0.1884 -0.0157
 2076DOPS   C4B24363  12.455  28.989  14.285  0.2561  0.1628  0.2125
 2077DOPE   NH324364  19.064  30.349  16.254 -0.1391 -0.0620 -0.3424
 2077DOPE   PO424365  18.775  30.247  16.124 -0.3249 -0.1345  0.0680
 2077DOPE   GL124366  18.805  29.899  15.912  0.0932 -0.4031  0.1431
 2077DOPE   GL224367  18.575  29.715  15.973 -0.0616  0.3572 -0.1200
 2077DOPE   C1A24368  18.770  29.769  15.454 -0.1328  0.1428 -0.1641
 2077DOPE   D2A24369  19.032  29.726  15.101  0.0185  0.0817 -0.0554
 2077DOPE   C3A24370  18.963  30.084  14.854 -0.0763 -0.0453 -0.0382
 2077DOPE   C4A24371  18.776  30.249  14.458  0.1655 -0.1881 -0.2117
 2077DOPE   C1B24372  18.368  29.560  15.656 -0.1731  0.1464  0.2118
 2077DOPE   D2B24373  18.294  29.906  15.354 -0.1516 -0.1597 -0.3465
 2077DOPE   C3B24374  18.388  30.090  14.898  0.4219 -0.2011  0.2245
 2077DOPE   C4B24375  18.330  29.990  14.439  0.0310 -0.1699 -0.2139
 2078DOPE   NH324376  15.322  30.540  16.385  0.2517 -0.1365 -0.0965
 2078DOPE   PO424377  15.089  30.351  16.282  0.0398 -0.1064  0.2413
 2078DOPE   GL124378  15.076  30.166  15.857  0.2990  0.1060 -0.0313
 2078DOPE   GL224379  15.233  29.935  15.835 -0.0118  0.2855 -0.1824
 2078DOPE   C1A24380  14.974  30.121  15.428  0.0181  0.1431 -0.2529
 2078DOPE   D2A24381  14.757  30.378  15.131  0.2440 -0.0022  0.2055
 2078DOPE   C3A24382  14.880  30.307  14.637  0.0294 -0.3809 -0.2608
 2078DOPE   C4A24383  14.823  30.275  14.163 -0.2002  0.0020  0.2555
 2078DOPE   C1B24384  15.445  29.797  15.446 -0.1965 -0.0231 -0.0883
 2078DOPE   D2B24385  15.255  29.856  15.062  0.2525  0.1128 -0.0089
 2078DOPE   C3B24386  15.176  29.918  14.577  0.0367  0.4545 -0.1368
 2078DOPE   C4B24387  15.513  29.792  14.304 -0.0787  0.0486  0.0796
 2079POSM   NC324388  14.763  23.603  15.424  0.1004  0.1861  0.1374
 2079POSM   PO424389  14.676  23.222  15.299  0.1195 -0.0163  0.1917
 2079POSM   AM124390  14.752  23.390  15.016 -0.0808 -0.2796  0.1017
 2079POSM   AM224391  14.912  23.571  14.955 -0.0995  0.1435 -0.1531
 2079POSM   T1A24392  14.743  23.525  14.542 -0.1346 -0.0736 -0.1379
 2079POSM   C2A24393  14.781  23.549  14.132 -0.1683 -0.3931  0.3363
 2079POSM   C3A24394  14.712  23.652  13.694 -0.2956  0.1044  0.2422
 2079POSM   C1B24395  15.200  23.626  14.896 -0.2048  0.4349 -0.3565
 2079POSM   D2B24396  15.496  23.954  14.862 -0.2475  0.0777  0.0495
 2079POSM   C3B24397  15.435  24.263  14.571 -0.0397 -0.1304 -0.4146
 2079POSM   C4B24398  15.462  24.341  14.098 -0.1044 -0.0355  0.0564
 2080POSM   NC324399  16.056  27.008  15.509 -0.1132  0.0363  0.1997
 2080POSM   PO424400  16.444  26.841  15.591  0.1527 -0.1270  0.1182
 2080POSM   AM124401  16.549  26.864  15.320 -0.0579  0.0500 -0.2819
 2080POSM   AM224402  16.355  26.772  15.123 -0.0023 -0.2077  0.4615
 2080POSM   T1A24403  16.721  27.157  14.952  0.1128  0.3309 -0.0250
 2080POSM   C2A24404  16.671  27.288  14.467 -0.0716  0.0342 -0.1654
 2080POSM   C3A24405  16.904  27.387  14.087  0.0635 -0.0240  0.1044
 2080POSM   C1B24406  16.415  26.688  14.762  0.0122  0.1009  0.1697
 2080POSM   D2B24407  16.479  26.391  14.403 -0.2135  0.0090 -0.0994
 2080POSM   C3B24408  16.652  26.048  14.134  0.2312 -0.0313  0.2084
 2080POSM   C4B24409  16.594  25.945  13.716  0.9648 -0.0739 -0.1577
 2081DOPC   NC324410  16.957  29.716  16.152  0.0668 -0.3013  0.3804
 2081DOPC   PO424411  17.078  29.862  15.805  0.0717 -0.0144  0.3619
 2081DOPC   GL124412  17.293  29.722  15.451 -0.1220  0.1427 -0.2363
 2081DOPC   GL224413  17.573  29.799  15.485 -0.0135  0.0202 -0.1776
 2081DOPC   C1A24414  17.537  29.422  15.137 -0.0998 -0.2133 -0.0530
 2081DOPC   D2A24415  17.636  29.423  14.717  0.2621  0.0289  0.0763
 2081DOPC   C3A24416  17.820  29.270  14.297  0.2285  0.2218 -0.0706
 2081DOPC   C4A24417  17.808  28.938  14.023  0.1016 -0.1071 -0.0206
 2081DOPC   C1B24418  17.825  29.833  15.036  0.1796  0.3582  0.2035
 2081DOPC   D2B24419  18.110  29.663  14.703 -0.1344  0.2551 -0.0880
 2081DOPC   C3B24420  18.531  29.615  14.779  0.0315  0.0893 -0.1996
 2081DOPC   C4B24421  18.926  29.603  14.564 -0.1395  0.0927  0.2481
 2082DOPC   NC324422  15.560  32.426  15.528  0.1239 -0.4326 -0.0082
 2082DOPC   PO424423  15.578  32.185  15.825  0.2507 -0.0425 -0.2731
 2082DOPC   GL124424  15.861  31.963  15.492  0.1390  0.1774  0.3634
 2082DOPC   GL224425  16.077  31.805  15.419 -0.0060 -0.0679  0.0861
 2082DOPC   C1A24426  15.649  31.750  15.152  0.0084 -0.1762  0.1798
 2082DOPC   D2A24427  15.593  31.396  14.881  0.0065 -0.2074 -0.1569
 2082DOPC   C3A24428  15.735  31.254  14.496  0.1635  0.1746  0.2225
 2082DOPC   C4A24429  15.773  31.197  14.049  0.1088  0.0637  0.2598
 2082DOPC   C1B24430  16.094  31.666  14.917 -0.3720  0.3058 -0.1619
 2082DOPC   D2B24431  16.257  31.435  14.544 -0.1356  0.1228 -0.0621
 2082DOPC   C3B24432  16.322  31.538  14.113 -0.3259 -0.1161  0.4184
 2082DOPC   C4B24433  16.187  31.353  13.650  0.1004 -0.0708 -0.4715
 2083POSM   NC324434  14.469  33.179  16.287  0.2078  0.2172  0.0402
 2083POSM   PO424435  14.685  33.051  16.025 -0.0059 -0.1185 -0.0054
 2083POSM   AM124436  14.622  33.128  15.721 -0.1559 -0.2005  0.3046
 2083POSM   AM224437  14.796  33.009  15.521 -0.0105 -0.0782  0.2989
 2083POSM   T1A24438  14.370  33.244  15.270 -0.0444 -0.2475 -0.1109
 2083POSM   C2A24439  14.013  33.167  14.929  0.2464  0.0055 -0.3990
 2083POSM   C3A24440  13.803  33.063  14.553  0.0324  0.1299  0.2221
 2083POSM   C1B24441  14.784  32.996  15.174  0.3145 -0.0012  0.3495
 2083POSM   D2B24442  14.598  32.954  14.742  0.2118  0.0857 -0.0940
 2083POSM   C3B24443  14.910  32.909  14.377 -0.0170  0.1501  0.0912
 2083POSM   C4B24444  14.849  32.726  13.987 -0.1831  0.0395  0.0042
 2084DOPC   NC324445  20.890  25.024  15.854 -0.0836  0.0212 -0.1122
 2084DOPC   PO424446  21.184  25.211  15.678 -0.0218  0.2232  0.3390
 2084DOPC   GL124447  21.171  25.351  15.282 -0.2395  0.2232  0.2370
 2084DOPC   GL224448  20.829  25.413  15.364 -0.1886 -0.0611  0.6210
 2084DOPC   C1A24449  21.017  25.561  14.888  0.3842  0.0091  0.1812
 2084DOPC   D2A24450  20.902  25.934  14.669 -0.1037 -0.1862  0.1429
 2084DOPC   C3A24451  20.710  26.002  14.295  0.2933 -0.0260  0.1714
 2084DOPC   C4A24452  20.522  25.754  13.846 -0.2191  0.2314 -0.2520
 2084DOPC   C1B24453  20.546  25.673  15.074  0.2029  0.1589  0.0790
 2084DOPC   D2B24454  20.356  25.945  14.754 -0.0489  0.0453  0.3687
 2084DOPC   C3B24455  20.208  26.006  14.323  0.2312  0.0492 -0.1078
 2084DOPC   C4B24456  19.960  25.955  13.909 -0.0952  0.0801  0.1902
 2085POSM   NC324457  11.692  30.612  15.725  0.0590 -0.1797  0.0393
 2085POSM   PO424458  11.747  31.004  15.815 -0.4267 -0.2116  0.0004
 2085POSM   AM124459  11.949  31.175  15.628 -0.0675 -0.1277 -0.2442
 2085POSM   AM224460  12.056  31.398  15.541  0.2444 -0.1757 -0.0766
 2085POSM   T1A24461  12.123  31.001  15.168 -0.3611  0.2827 -0.0010
 2085POSM   C2A24462  12.292  30.761  14.843  0.0061 -0.0297  0.3020
 2085POSM   C3A24463  12.130  30.506  14.460 -0.1828 -0.0612 -0.1793
 2085POSM   C1B24464  11.967  31.468  15.226 -0.3103 -0.1071 -0.0441
 2085POSM   D2B24465  12.138  31.301  14.790  0.1298  0.0070  0.1461
 2085POSM   C3B24466  12.501  31.511  14.525 -0.4864 -0.0121 -0.1724
 2085POSM   C4B24467  12.968  31.480  14.360 -0.0497 -0.1030 -0.2331
 2086DOPC   NC324468  15.223  28.923  15.935  0.1919 -0.2150  0.0933
 2086DOPC   PO424469  14.957  28.832  16.200  0.0157  0.0326  0.4428
 2086DOPC   GL124470  14.792  28.667  15.909  0.3319 -0.0063 -0.2125
 2086DOPC   GL224471  14.794  28.344  15.804  0.0139 -0.1797  0.0613
 2086DOPC   C1A24472  14.693  28.669  15.461 -0.0879 -0.0730  0.1007
 2086DOPC   D2A24473  15.014  28.521  15.134  0.0055  0.0842  0.2563
 2086DOPC   C3A24474  15.386  28.595  14.886 -0.4947  0.1418  0.0561
 2086DOPC   C4A24475  15.531  29.033  14.677 -0.1214  0.5915 -0.0160
 2086DOPC   C1B24476  14.712  28.191  15.391  0.3076 -0.0490 -0.0466
 2086DOPC   D2B24477  14.783  28.038  14.976  0.0730 -0.1110  0.0597
 2086DOPC   C3B24478  14.846  28.338  14.587 -0.3950 -0.0205 -0.0568
 2086DOPC   C4B24479  14.531  28.614  14.424 -0.1965  0.0038 -0.1607
 2087POSM   NC324480  13.726   0.099  15.860 -0.1172  0.1005  0.0595
 2087POSM   PO424481  13.395   0.175  15.985  0.0187  0.1036  0.5150
 2087POSM   AM124482  13.347  -0.106  15.781 -0.0317 -0.1533 -0.1835
 2087POSM   AM224483  13.523  -0.288  15.650  0.0049 -0.2882 -0.3751
 2087POSM   T1A24484  13.034  -0.372  15.437 -0.0946  0.3573 -0.2163
 2087POSM   C2A24485  12.843  -0.602  15.068  0.0314  0.2472  0.3485
 2087POSM   C3A24486  12.505  -0.644  14.694  0.0111 -0.0988 -0.1357
 2087POSM   C1B24487  13.466  -0.256  15.299 -0.0284  0.1546  0.0468
 2087POSM   D2B24488  13.271  -0.379  14.881  0.0139 -0.1361 -0.2573
 2087POSM   C3B24489  13.595  -0.690  14.628  0.0001  0.2088 -0.2200
 2087POSM   C4B24490  14.049  -0.760  14.541  0.1989  0.1164 -0.2565
 2088DOPE   NH324491  15.543  30.042  16.231 -0.4025  0.2317  0.0024
 2088DOPE   PO424492  15.731  30.302  16.257 -0.0423  0.1179  0.1884
 2088DOPE   GL124493  15.638  30.582  16.033  0.0486  0.0371  0.1890
 2088DOPE   GL224494  15.403  30.476  15.887 -0.3485 -0.0279  0.1647
 2088DOPE   C1A24495  15.733  30.816  15.656  0.0433 -0.2436 -0.2419
 2088DOPE   D2A24496  15.696  30.787  15.218  0.1572 -0.1239 -0.1132
 2088DOPE   C3A24497  15.890  31.000  14.885 -0.1933  0.1532  0.0666
 2088DOPE   C4A24498  16.024  30.879  14.469  0.0744 -0.1737 -0.0055
 2088DOPE   C1B24499  15.443  30.364  15.431  0.2857 -0.0049 -0.4008
 2088DOPE   D2B24500  15.250  30.407  15.016  0.0358 -0.4226 -0.1753
 2088DOPE   C3B24501  15.397  30.779  14.788 -0.2584 -0.0176  0.0049
 2088DOPE   C4B24502  15.268  31.153  14.492 -0.1446 -0.0322 -0.2012
 2089DOPC   NC324503  22.250  24.927  15.161  0.2179 -0.0559  0.0656
 2089DOPC   PO424504  21.929  24.882  15.391  0.1265  0.1410  0.1337
 2089DOPC   GL124505  21.688  24.832  15.082 -0.0194  0.0499  0.3696
 2089DOPC   GL224506  21.823  24.942  14.827  0.1842 -0.0808 -0.2513
 2089DOPC   C1A24507  21.369  24.588  14.867 -0.2336 -0.3553 -0.2133
 2089DOPC   D2A24508  21.113  24.640  14.526  0.3178 -0.2458  0.0289
 2089DOPC   C3A24509  21.420  24.353  14.247 -0.1864  0.0797  0.3369
 2089DOPC   C4A24510  21.733  24.405  13.884  0.0375  0.1086  0.3776
 2089DOPC   C1B24511  22.012  25.315  14.682 -0.0374 -0.0513  0.0446
 2089DOPC   D2B24512  22.257  25.662  14.648 -0.0486 -0.3053  0.0182
 2089DOPC   C3B24513  22.400  25.863  14.270  0.2087  0.2479  0.0923
 2089DOPC   C4B24514  22.614  26.118  13.907  0.0260  0.0483  0.1306
 2090DOPC   NC324515  17.899  23.955  15.426 -0.3085 -0.0742 -0.1208
 2090DOPC   PO424516  18.317  23.899  15.531  0.5087 -0.0373 -0.4534
 2090DOPC   GL124517  18.480  23.977  15.221 -0.0772 -0.0612 -0.0604
 2090DOPC   GL224518  18.492  23.678  15.144 -0.0524  0.1328  0.2028
 2090DOPC   C1A24519  18.435  24.260  14.889  0.2065  0.1103  0.1006
 2090DOPC   D2A24520  18.666  24.438  14.484  0.1513 -0.1483 -0.1297
 2090DOPC   C3A24521  18.376  24.683  14.138 -0.2092  0.2462  0.0566
 2090DOPC   C4A24522  18.258  24.400  13.754 -0.0526 -0.1006 -0.0173
 2090DOPC   C1B24523  18.521  23.418  14.726  0.4956 -0.0638 -0.0768
 2090DOPC   D2B24524  18.602  23.427  14.243 -0.1778  0.2226  0.1097
 2090DOPC   C3B24525  18.728  23.877  14.132  0.1302 -0.0090  0.2910
 2090DOPC   C4B24526  18.722  24.279  13.952 -0.1686 -0.0966 -0.2273
 2091DOPC   NC324527  15.330  27.443  15.567 -0.0940 -0.1545  0.0773
 2091DOPC   PO424528  15.734  27.459  15.606  0.4009  0.2421 -0.2166
 2091DOPC   GL124529  15.578  27.845  15.487 -0.5766  0.0311  0.1646
 2091DOPC   GL224530  15.696  27.798  15.210  0.0198 -0.2193 -0.2096
 2091DOPC   C1A24531  15.701  28.289  15.418 -0.1311 -0.0638 -0.0838
 2091DOPC   D2A24532  16.092  28.511  15.320  0.2042  0.1075  0.1645
 2091DOPC   C3A24533  16.046  28.747  14.920 -0.1753 -0.1173 -0.2136
 2091DOPC   C4A24534  16.004  28.931  14.457 -0.1354  0.1327 -0.0360
 2091DOPC   C1B24535  15.297  27.658  15.073  0.3281  0.2644 -0.1762
 2091DOPC   D2B24536  15.128  27.688  14.624  0.1205  0.1888 -0.0435
 2091DOPC   C3B24537  14.959  27.298  14.415 -0.0749 -0.0993  0.1953
 2091DOPC   C4B24538  14.762  27.153  14.021  0.2138  0.0649  0.4251
 2092DOPC   NC324539  22.561  31.778  16.538  0.1129  0.2362 -0.0972
 2092DOPC   PO424540  22.298  31.814  16.260 -0.0424 -0.0628  0.1444
 2092DOPC   GL124541  22.147  31.722  15.895  0.1201  0.0794 -0.0030
 2092DOPC   GL224542  21.961  31.555  15.937 -0.2475 -0.0828 -0.0147
 2092DOPC   C1A24543  22.001  32.010  15.564 -0.5648  0.1457  0.4889
 2092DOPC   D2A24544  21.908  32.179  15.162 -0.4068 -0.3532 -0.3084
 2092DOPC   C3A24545  21.834  31.893  14.815  0.2752  0.2401 -0.1404
 2092DOPC   C4A24546  21.472  31.876  14.527  0.1770  0.1191 -0.2902
 2092DOPC   C1B24547  21.970  31.324  15.550  0.0813  0.2109  0.2527
 2092DOPC   D2B24548  21.961  30.888  15.309  0.0791 -0.2113 -0.0194
 2092DOPC   C3B24549  22.211  30.644  14.950 -0.0296  0.1074  0.0996
 2092DOPC   C4B24550  22.502  30.288  14.765  0.0600  0.1969 -0.0180
 2093DOPS   CNO24551  18.013  28.688  16.855 -0.1446  0.1899 -0.2786
 2093DOPS   PO424552  17.820  28.787  16.548 -0.2154  0.2535  0.0254
 2093DOPS   GL124553  17.918  28.881  16.125 -0.1572 -0.3845 -0.1886
 2093DOPS   GL224554  17.737  29.079  16.067 -0.2885 -0.1392 -0.0466
 2093DOPS   C1A24555  18.286  28.859  15.798  0.3201  0.0920 -0.0371
 2093DOPS   D2A24556  18.174  29.010  15.434 -0.0408 -0.3339 -0.0977
 2093DOPS   C3A24557  18.453  28.848  15.046 -0.0570  0.0683 -0.2754
 2093DOPS   C4A24558  18.582  28.685  14.603  0.0996  0.1225  0.4425
 2093DOPS   C1B24559  17.880  29.329  15.650  0.2362 -0.1044 -0.2272
 2093DOPS   D2B24560  18.031  29.461  15.228 -0.4800 -0.3422  0.2142
 2093DOPS   C3B24561  18.074  29.166  14.912 -0.0067  0.1530  0.2174
 2093DOPS   C4B24562  18.380  29.152  14.607  0.2776  0.1139 -0.2029
 2094DOPC   NC324563  18.194  27.057  15.878  0.2293  0.1665 -0.2712
 2094DOPC   PO424564  18.329  27.425  16.038 -0.0032  0.1674 -0.0871
 2094DOPC   GL124565  18.287  27.526  15.684 -0.3241  0.0026  0.5909
 2094DOPC   GL224566  18.277  27.833  15.684  0.0211  0.2857  0.3459
 2094DOPC   C1A24567  18.616  27.631  15.365  0.0664  0.2259 -0.1570
 2094DOPC   D2A24568  18.669  27.369  14.964  0.2773 -0.1535  0.1097
 2094DOPC   C3A24569  18.967  27.641  14.760 -0.0873 -0.1097 -0.0731
 2094DOPC   C4A24570  19.202  27.640  14.358  0.2846 -0.0690  0.1097
 2094DOPC   C1B24571  18.286  28.013  15.249  0.2205 -0.4155  0.3511
 2094DOPC   D2B24572  18.012  28.172  14.927  0.0729  0.0814 -0.1107
 2094DOPC   C3B24573  17.924  28.310  14.468 -0.1149 -0.1676 -0.0084
 2094DOPC   C4B24574  17.608  28.577  14.333 -0.2385 -0.0745 -0.0463
 2095DOPS   CNO24575  19.740  30.968  16.251 -0.1181  0.2061 -0.2233
 2095DOPS   PO424576  19.593  31.039  15.896 -0.2155  0.0070 -0.4428
 2095DOPS   GL124577  19.534  31.144  15.513  0.2809  0.6073  0.2412
 2095DOPS   GL224578  19.369  31.316  15.413  0.1877  0.2683 -0.1642
 2095DOPS   C1A24579  19.715  31.011  15.083 -0.0110 -0.0879 -0.1973
 2095DOPS   D2A24580  19.795  30.778  14.654 -0.0014  0.1634  0.3030
 2095DOPS   C3A24581  19.846  31.103  14.311  0.3005 -0.2195 -0.0941
 2095DOPS   C4A24582  19.522  31.311  14.062 -0.0910  0.2942  0.2900
 2095DOPS   C1B24583  19.195  31.036  15.111 -0.0296  0.1349  0.0103
 2095DOPS   D2B24584  18.935  30.655  15.131  0.1213 -0.1702  0.1766
 2095DOPS   C3B24585  18.581  30.517  14.846 -0.0157 -0.0593 -0.0262
 2095DOPS   C4B24586  18.344  30.472  14.458  0.2338  0.1464 -0.1245
 2096POSM   NC324587  23.386  23.604  16.212 -0.1790  0.3361 -0.0741
 2096POSM   PO424588  23.647  23.604  15.885 -0.3439 -0.0591 -0.0830
 2096POSM   AM124589  23.590  23.660  15.547  0.0440 -0.6082 -0.0713
 2096POSM   AM224590  23.571  23.549  15.298  0.1799  0.1847 -0.2276
 2096POSM   T1A24591  23.727  23.974  15.145 -0.1343 -0.4505  0.0328
 2096POSM   C2A24592  23.742  23.969  14.687 -0.0363 -0.0736 -0.3404
 2096POSM   C3A24593  23.941  23.858  14.297  0.0927 -0.4129  0.2030
 2096POSM   C1B24594  23.683  23.465  15.017  0.3703 -0.0401 -0.0356
 2096POSM   D2B24595  23.766  23.438  14.545  0.0838  0.2664 -0.0913
 2096POSM   C3B24596  23.368  23.323  14.263  0.1134 -0.1525 -0.1500
 2096POSM   C4B24597  23.072  23.448  14.017  0.0940 -0.3683 -0.0950
 2097DOPS   CNO24598  16.191  28.394  15.807 -0.1479  0.3649  0.0195
 2097DOPS   PO424599  16.355  28.065  15.923 -0.4404  0.2538  0.2949
 2097DOPS   GL124600  16.433  28.102  15.527 -0.6515  0.3741  0.2073
 2097DOPS   GL224601  16.578  27.885  15.463  0.1527  0.2926 -0.4180
 2097DOPS   C1A24602  16.205  28.051  15.172 -0.2032 -0.3488  0.4162
 2097DOPS   D2A24603  15.879  28.170  14.851 -0.3088  0.1455 -0.1791
 2097DOPS   C3A24604  15.907  28.410  14.412  0.0003 -0.2661 -0.2205
 2097DOPS   C4A24605  15.578  28.675  14.204  0.1069 -0.2934 -0.2572
 2097DOPS   C1B24606  16.912  28.129  15.277  0.1113  0.0336  0.1804
 2097DOPS   D2B24607  16.910  28.434  15.019  0.1480  0.0627 -0.1643
 2097DOPS   C3B24608  16.737  28.267  14.613  0.2823 -0.2279 -0.1521
 2097DOPS   C4B24609  16.274  28.097  14.552 -0.1095 -0.3568 -0.1791
 2098DOPS   CNO24610  12.408  26.185  15.462 -0.0748 -0.0661 -0.1938
 2098DOPS   PO424611  12.062  26.060  15.569 -0.2522 -0.2167 -0.0627
 2098DOPS   GL124612  11.917  26.136  15.205  0.1001 -0.1585  0.1146
 2098DOPS   GL224613  12.150  26.311  15.080 -0.2497 -0.2208  0.0849
 2098DOPS   C1A24614  11.608  25.966  14.941  0.2184  0.0133  0.1479
 2098DOPS   D2A24615  11.377  25.878  14.495  0.2217  0.0251 -0.1967
 2098DOPS   C3A24616  11.444  25.688  14.098  0.0735 -0.2307 -0.0550
 2098DOPS   C4A24617  11.722  25.843  13.769  0.4142  0.1630  0.0883
 2098DOPS   C1B24618  12.080  26.117  14.623 -0.1453  0.0548  0.2770
 2098DOPS   D2B24619  11.974  25.998  14.192 -0.0230 -0.0624 -0.0265
 2098DOPS   C3B24620  12.162  26.258  13.852  0.0738  0.0487 -0.0551
 2098DOPS   C4B24621  12.258  26.421  13.509  0.1954 -0.1465  0.1270
 2099DOPE   NH324622  14.847  27.545  16.322 -0.0365  0.1278 -0.0442
 2099DOPE   PO424623  15.088  27.383  16.196 -0.0521 -0.1749  0.0828
 2099DOPE   GL124624  14.877  27.363  15.807 -0.2577 -0.2550  0.2945
 2099DOPE   GL224625  14.925  27.667  15.729 -0.0125  0.3265  0.2076
 2099DOPE   C1A24626  15.008  27.203  15.357 -0.1865 -0.2039 -0.1963
 2099DOPE   D2A24627  15.015  27.119  14.934  0.2436  0.1352  0.0703
 2099DOPE   C3A24628  14.597  27.052  14.726 -0.2117 -0.0340  0.1509
 2099DOPE   C4A24629  14.379  27.205  14.347 -0.0395 -0.1397 -0.0069
 2099DOPE   C1B24630  14.850  27.674  15.329  0.1790  0.0449  0.4342
 2099DOPE   D2B24631  14.665  27.496  14.965  0.1798  0.0097 -0.3927
 2099DOPE   C3B24632  14.454  27.661  14.624  0.0371 -0.1335 -0.0640
 2099DOPE   C4B24633  14.063  27.803  14.472 -0.1141  0.0936 -0.0040
 2100DOPE   NH324634  21.045  23.902  15.921  0.0944  0.2018 -0.0550
 2100DOPE   PO424635  20.976  24.201  15.919  0.0267  0.0932  0.1445
 2100DOPE   GL124636  20.942  24.389  15.540  0.1100 -0.1192 -0.5998
 2100DOPE   GL224637  20.874  24.673  15.477  0.0280 -0.0747 -0.0932
 2100DOPE   C1A24638  20.918  24.437  15.089  0.3564 -0.0526  0.0148
 2100DOPE   D2A24639  20.687  24.475  14.688  0.1093  0.3936  0.1591
 2100DOPE   C3A24640  20.639  24.636  14.306 -0.1311  0.2977 -0.0354
 2100DOPE   C4A24641  20.517  24.803  13.873 -0.2185 -0.4158 -0.0007
 2100DOPE   C1B24642  21.108  24.905  15.102 -0.3403 -0.2606  0.0227
 2100DOPE   D2B24643  21.323  25.141  14.733  0.0511 -0.4047 -0.3226
 2100DOPE   C3B24644  21.143  25.458  14.447  0.1442 -0.1715 -0.0695
 2100DOPE   C4B24645  21.031  25.614  14.059 -0.0715 -0.0455  0.0292
 2101DOPE   NH324646  19.697  33.111  15.372  0.5812 -0.0691  0.2382
 2101DOPE   PO424647  19.474  32.964  15.607 -0.3188  0.2027  0.1207
 2101DOPE   GL124648  19.263  32.996  15.283 -0.3804  0.0413 -0.1628
 2101DOPE   GL224649  19.235  33.280  15.210 -0.0482 -0.1147 -0.0003
 2101DOPE   C1A24650  19.532  33.034  14.885 -0.1171  0.0820 -0.0906
 2101DOPE   D2A24651  19.698  33.038  14.437  0.2800 -0.4927 -0.0042
 2101DOPE   C3A24652  19.564  33.236  14.078  0.0618  0.0158  0.4363
 2101DOPE   C4A24653  19.266  33.557  13.931  0.2371 -0.2222 -0.0825
 2101DOPE   C1B24654  19.131  33.252  14.806  0.1408  0.1626 -0.0970
 2101DOPE   D2B24655  19.165  33.017  14.411 -0.0866  0.1139  0.3112
 2101DOPE   C3B24656  19.105  33.084  13.993 -0.1644 -0.0968 -0.0803
 2101DOPE   C4B24657  19.200  33.197  13.560  0.0824  0.1597  0.2251
 2102DOPC   NC324658  16.270  30.375  16.314 -0.0680  0.1074  0.3609
 2102DOPC   PO424659  16.116  30.520  16.015 -0.3046  0.0263 -0.0917
 2102DOPC   GL124660  16.029  30.499  15.699  0.1027 -0.3725  0.0295
 2102DOPC   GL224661  16.167  30.628  15.424  0.3076  0.0289  0.1389
 2102DOPC   C1A24662  15.893  30.245  15.308 -0.0755  0.1248 -0.0768
 2102DOPC   D2A24663  15.658  30.150  14.892 -0.0327 -0.0621  0.1460
 2102DOPC   C3A24664  15.877  29.795  14.664  0.3726  0.0016 -0.0209
 2102DOPC   C4A24665  16.184  29.470  14.548  0.1616 -0.1105 -0.2148
 2102DOPC   C1B24666  16.323  30.653  14.994 -0.0992 -0.0890  0.0112
 2102DOPC   D2B24667  16.542  30.481  14.715 -0.2398  0.0742  0.0290
 2102DOPC   C3B24668  16.987  30.559  14.648  0.2259 -0.4805 -0.2027
 2102DOPC   C4B24669  17.420  30.373  14.629  0.0238  0.0445  0.1902
 2103DOPC   NC324670  23.295  27.722  15.850 -0.3240  0.0631  0.0752
 2103DOPC   PO424671  22.983  27.647  15.651 -0.1221  0.2376 -0.0023
 2103DOPC   GL124672  22.886  27.558  15.120 -0.1463  0.2915 -0.1416
 2103DOPC   GL224673  22.651  27.319  15.066  0.2999 -0.3336  0.0251
 2103DOPC   C1A24674  22.880  27.419  14.621 -0.1478  0.4098 -0.0333
 2103DOPC   D2A24675  22.790  27.773  14.309  0.2624  0.3400  0.0000
 2103DOPC   C3A24676  23.037  28.035  13.997 -0.2213  0.3715 -0.0249
 2103DOPC   C4A24677  23.457  28.114  13.848  0.1430  0.1587 -0.2309
 2103DOPC   C1B24678  22.945  26.944  15.032 -0.1788  0.0419  0.3384
 2103DOPC   D2B24679  23.385  26.832  15.046  0.1723 -0.0266 -0.1736
 2103DOPC   C3B24680  23.618  26.688  14.707  0.4222  0.0212  0.1271
 2103DOPC   C4B24681  23.922  26.409  14.608 -0.2151 -0.0103 -0.0381
 2104POSM   NC324682  15.552  28.085  16.364  0.0231  0.1231 -0.2510
 2104POSM   PO424683  15.337  28.410  16.234 -0.0421  0.3510  0.2621
 2104POSM   AM124684  15.372  28.377  15.904  0.2352  0.1209  0.2740
 2104POSM   AM224685  15.275  28.211  15.720 -0.2539  0.1307 -0.0234
 2104POSM   T1A24686  15.353  28.653  15.477 -0.3062  0.2158  0.2237
 2104POSM   C2A24687  15.641  28.913  15.243  0.2006 -0.0266  0.1857
 2104POSM   C3A24688  15.891  29.214  14.907 -0.1547  0.3008 -0.2767
 2104POSM   C1B24689  15.206  28.118  15.351 -0.0564 -0.3487 -0.0398
 2104POSM   D2B24690  15.266  28.108  14.914 -0.0975  0.2082  0.0273
 2104POSM   C3B24691  15.304  28.144  14.461 -0.1595  0.0349  0.1386
 2104POSM   C4B24692  15.538  28.123  14.021  0.0458 -0.0880 -0.1997
 2105POSM   NC324693  13.594  33.586  16.271 -0.0131  0.1762 -0.2196
 2105POSM   PO424694  13.940  33.792  16.349  0.0533  0.1392 -0.2076
 2105POSM   AM124695  13.909  33.748  16.019 -0.3198  0.2532 -0.1095
 2105POSM   AM224696  13.753  33.819  15.814  0.0841 -0.3852  0.2667
 2105POSM   T1A24697  13.748  33.351  15.694  0.1134  0.2792 -0.1243
 2105POSM   C2A24698  13.913  33.049  15.422 -0.0767  0.1006  0.3700
 2105POSM   C3A24699  13.836  32.697  15.194  0.0351  0.1828  0.1055
 2105POSM   C1B24700  13.562  33.807  15.544  0.4561  0.0370  0.0145
 2105POSM   D2B24701  13.289  33.921  15.214  0.0823  0.0864 -0.3585
 2105POSM   C3B24702  13.216  33.718  14.827 -0.0713 -0.2240  0.2915
 2105POSM   C4B24703  13.270  33.598  14.398 -0.1031 -0.1658  0.0975
 2106DOPE   NH324704  14.704  26.250  15.638 -0.3037 -0.2204 -0.0071
 2106DOPE   PO424705  14.540  26.053  15.461 -0.3024  0.2127  0.0355
 2106DOPE   GL124706  14.622  26.301  15.153 -0.3838 -0.1090  0.1144
 2106DOPE   GL224707  14.369  26.506  15.189  0.1725 -0.0660 -0.0058
 2106DOPE   C1A24708  14.517  26.233  14.687 -0.0245  0.1287 -0.0466
 2106DOPE   D2A24709  14.499  26.538  14.412 -0.0499 -0.0125 -0.0483
 2106DOPE   C3A24710  14.761  26.532  14.048 -0.0814 -0.2106 -0.1072
 2106DOPE   C4A24711  15.075  26.753  13.870  0.0148  0.1525  0.2949
 2106DOPE   C1B24712  14.158  26.574  14.757 -0.1066 -0.0119 -0.1803
 2106DOPE   D2B24713  13.988  26.676  14.356  0.1881  0.3009 -0.1503
 2106DOPE   C3B24714  14.269  26.819  14.020 -0.2311 -0.1653 -0.2300
 2106DOPE   C4B24715  14.320  26.998  13.628  0.1118 -0.1466  0.2217
 2107DOPE   NH324716  12.910  26.306  16.055 -0.0429 -0.0893  0.0513
 2107DOPE   PO424717  12.926  26.580  15.960  0.2331  0.1707 -0.2934
 2107DOPE   GL124718  13.095  26.760  15.626 -0.0996  0.3062 -0.0804
 2107DOPE   GL224719  13.049  26.689  15.341  0.0689  0.1932  0.5583
 2107DOPE   C1A24720  13.469  26.966  15.504  0.3778  0.0104  0.1336
 2107DOPE   D2A24721  13.740  27.280  15.346  0.2885  0.0948 -0.0163
 2107DOPE   C3A24722  13.446  27.480  15.032 -0.1306 -0.1297 -0.1734
 2107DOPE   C4A24723  13.358  27.821  14.666 -0.0056 -0.3069  0.3039
 2107DOPE   C1B24724  12.989  27.067  15.041 -0.1010  0.0858  0.3091
 2107DOPE   D2B24725  13.040  27.387  14.627 -0.0330 -0.1936 -0.3381
 2107DOPE   C3B24726  12.658  27.265  14.343  0.1540 -0.2411 -0.2391
 2107DOPE   C4B24727  12.310  27.262  14.080  0.2906 -0.0207  0.2556
 2108DOPE   NH324728  16.914   0.152  15.582  0.0194 -0.1762  0.0833
 2108DOPE   PO424729  16.619   0.003  15.537 -0.0929  0.2170  0.0358
 2108DOPE   GL124730  16.603   0.138  15.190  0.1980 -0.4847  0.2307
 2108DOPE   GL224731  16.819   0.211  15.034 -0.0530 -0.2837 -0.0710
 2108DOPE   C1A24732  16.719  -0.198  14.846  0.2209  0.0274 -0.0309
 2108DOPE   D2A24733  16.759  -0.348  14.435  0.2091  0.0223  0.0227
 2108DOPE   C3A24734  16.775   0.021  14.142  0.2309 -0.3889 -0.3274
 2108DOPE   C4A24735  16.990   0.044  13.729 -0.0492  0.1901 -0.1075
 2108DOPE   C1B24736  16.690   0.512  14.731  0.2161  0.3187 -0.0859
 2108DOPE   D2B24737  16.707   0.639  14.251  0.1996 -0.3131 -0.2655
 2108DOPE   C3B24738  16.856   0.710  13.890  0.2655  0.0318 -0.1996
 2108DOPE   C4B24739  16.991   0.934  13.448 -0.2983  0.2602 -0.2478
 2109DOPC   NC324740  12.198  24.463  15.636  0.1971 -0.1193 -0.0474
 2109DOPC   PO424741  12.198  24.822  15.739  0.1306 -0.1446 -0.0847
 2109DOPC   GL124742  11.930  24.700  15.368 -0.0125  0.0477 -0.0755
 2109DOPC   GL224743  11.728  24.480  15.504 -0.2509 -0.3414  0.0178
 2109DOPC   C1A24744  11.954  24.643  14.952 -0.2483  0.3763  0.3237
 2109DOPC   D2A24745  12.054  24.420  14.555  0.0482  0.0354  0.1818
 2109DOPC   C3A24746  12.216  24.609  14.146  0.3406  0.0751  0.4443
 2109DOPC   C4A24747  12.268  25.038  14.195  0.1167  0.0049  0.0205
 2109DOPC   C1B24748  11.851  24.161  15.191  0.1260 -0.1188 -0.0988
 2109DOPC   D2B24749  12.038  23.962  14.838  0.1713 -0.2206 -0.1412
 2109DOPC   C3B24750  11.985  23.841  14.424  0.4149  0.0409 -0.2994
 2109DOPC   C4B24751  11.697  24.080  14.149 -0.3456 -0.0035  0.0184
 2110DOPC   NC324752  12.349  28.397  15.491  0.1624 -0.2704 -0.4871
 2110DOPC   PO424753  12.672  28.527  15.635  0.0549  0.1589  0.3586
 2110DOPC   GL124754  12.641  28.698  15.278  0.1460  0.2201  0.2281
 2110DOPC   GL224755  12.441  28.919  15.339  0.2279 -0.0108  0.2273
 2110DOPC   C1A24756  12.455  28.529  14.883  0.0999 -0.0681 -0.0024
 2110DOPC   D2A24757  12.113  28.572  14.591 -0.2141 -0.2545  0.3183
 2110DOPC   C3A24758  12.187  28.532  14.124  0.0223 -0.0094  0.1498
 2110DOPC   C4A24759  12.262  28.871  13.861  0.2963 -0.2316  0.0485
 2110DOPC   C1B24760  12.747  29.216  15.096 -0.0723  0.0435 -0.0051
 2110DOPC   D2B24761  12.900  29.372  14.684  0.0720  0.1836  0.1049
 2110DOPC   C3B24762  13.316  29.262  14.692  0.2534 -0.1151 -0.1817
 2110DOPC   C4B24763  13.549  29.316  14.311 -0.1818  0.1941  0.2338
 2111POSM   NC324764  16.470  25.846  15.886  0.4043  0.0287  0.1579
 2111POSM   PO424765  16.600  25.521  15.714 -0.2446 -0.1664  0.0960
 2111POSM   AM124766  16.604  25.510  15.398  0.0926 -0.1092 -0.2456
 2111POSM   AM224767  16.789  25.467  15.221  0.1367 -0.0595  0.0950
 2111POSM   T1A24768  16.400  25.635  14.967  0.2387  0.1539  0.2880
 2111POSM   C2A24769  16.640  25.754  14.578 -0.3021  0.3641  0.2146
 2111POSM   C3A24770  16.510  25.503  14.165 -0.1048 -0.2934 -0.1457
 2111POSM   C1B24771  17.011  25.571  14.969 -0.4425 -0.4252 -0.1768
 2111POSM   D2B24772  17.290  25.835  14.807 -0.0341  0.1995 -0.3144
 2111POSM   C3B24773  17.268  25.922  14.303  0.1807  0.2271 -0.6067
 2111POSM   C4B24774  17.078  26.149  13.893 -0.2292  0.1136 -0.0838
 2112DOPC   NC324775  13.739   0.084  16.407  0.1260  0.0540 -0.3694
 2112DOPC   PO424776  14.063  -0.041  16.219 -0.0534  0.0692  0.0101
 2112DOPC   GL124777  14.235   0.022  15.905  0.1108 -0.2727  0.1488
 2112DOPC   GL224778  14.434  -0.238  15.844  0.0335 -0.2695 -0.0509
 2112DOPC   C1A24779  14.065  -0.118  15.480  0.0223  0.0176  0.2331
 2112DOPC   D2A24780  14.237  -0.077  15.022 -0.1643 -0.0007 -0.3798
 2112DOPC   C3A24781  13.980   0.133  14.600  0.0988  0.0275 -0.2012
 2112DOPC   C4A24782  13.774   0.510  14.632  0.4044  0.0950  0.2129
 2112DOPC   C1B24783  14.398  -0.460  15.356  0.0215 -0.0462 -0.1850
 2112DOPC   D2B24784  14.331  -0.699  14.996 -0.0830 -0.0516 -0.0913
 2112DOPC   C3B24785  14.524  -1.130  14.839  0.1373  0.1554 -0.1186
 2112DOPC   C4B24786  14.926  -1.352  14.923 -0.0917 -0.1160 -0.1772
 2113DOPE   NH324787  19.902  25.211  15.801  0.0666 -0.2052 -0.0081
 2113DOPE   PO424788  20.043  25.177  15.520  0.0907 -0.1131 -0.1764
 2113DOPE   GL124789  20.294  25.326  15.242  0.0519  0.0702  0.0408
 2113DOPE   GL224790  20.095  25.465  15.057 -0.1448  0.0245 -0.0678
 2113DOPE   C1A24791  20.458  25.292  14.791 -0.0613  0.0865  0.3412
 2113DOPE   D2A24792  20.613  25.497  14.388  0.2420 -0.4730 -0.2894
 2113DOPE   C3A24793  20.632  25.309  13.962  0.0269  0.0771 -0.0894
 2113DOPE   C4A24794  20.584  25.389  13.479 -0.0233 -0.3539  0.1780
 2113DOPE   C1B24795  20.066  25.462  14.597  0.0009  0.2076  0.3612
 2113DOPE   D2B24796  19.760  25.732  14.412 -0.0534  0.3491 -0.0870
 2113DOPE   C3B24797  19.513  25.936  14.067 -0.0829 -0.1504 -0.1703
 2113DOPE   C4B24798  19.065  26.068  13.954  0.0115  0.0243  0.2254
 2114DOPC   NC324799  14.498  29.845  16.395  0.0378  0.2687  0.0743
 2114DOPC   PO424800  14.614  30.214  16.363  0.0468 -0.0342  0.0675
 2114DOPC   GL124801  14.671  30.199  16.052 -0.1943  0.0386 -0.2694
 2114DOPC   GL224802  14.676  30.486  15.974  0.0403 -0.2307  0.1579
 2114DOPC   C1A24803  14.520  30.164  15.614  0.0524  0.0018  0.3597
 2114DOPC   D2A24804  14.409  29.978  15.156  0.1373 -0.0610 -0.2918
 2114DOPC   C3A24805  13.962  29.954  14.995 -0.1281  0.0386 -0.1502
 2114DOPC   C4A24806  13.986  29.912  14.562 -0.1662 -0.0097 -0.2276
 2114DOPC   C1B24807  14.964  30.589  15.595 -0.0805  0.2293  0.1226
 2114DOPC   D2B24808  15.172  30.857  15.281  0.0851  0.1949 -0.4632
 2114DOPC   C3B24809  14.964  31.220  15.020  0.4020 -0.0829 -0.3112
 2114DOPC   C4B24810  14.807  31.521  14.707  0.0426  0.1902 -0.1421
 2115DOPE   NH324811  11.678  31.565  15.829 -0.0847 -0.0015 -0.5459
 2115DOPE   PO424812  11.924  31.692  15.985  0.1323 -0.0565 -0.2559
 2115DOPE   GL124813  12.088  31.900  15.621  0.0796  0.3767 -0.0420
 2115DOPE   GL224814  11.968  32.143  15.512  0.2822 -0.0355 -0.2432
 2115DOPE   C1A24815  12.217  31.943  15.182  0.1354  0.1098 -0.4031
 2115DOPE   D2A24816  12.247  31.896  14.735  0.2790 -0.0264  0.0317
 2115DOPE   C3A24817  11.892  31.634  14.545  0.1097  0.0582  0.4273
 2115DOPE   C4A24818  11.807  31.373  14.135  0.0524  0.0213 -0.1294
 2115DOPE   C1B24819  12.212  32.452  15.262 -0.0300  0.0599 -0.2619
 2115DOPE   D2B24820  12.531  32.690  15.057  0.0391  0.2452  0.4479
 2115DOPE   C3B24821  12.423  32.783  14.615 -0.3961  0.1157 -0.0989
 2115DOPE   C4B24822  12.585  32.897  14.229  0.1902 -0.0024  0.0231
 2116DOPE   NH324823  21.588  23.871  16.032  0.0433 -0.0854  0.3649
 2116DOPE   PO424824  21.916  23.755  16.012 -0.0717  0.0429 -0.1166
 2116DOPE   GL124825  21.784  23.786  15.614  0.2336  0.3414  0.3942
 2116DOPE   GL224826  21.549  23.936  15.576 -0.0057  0.0661  0.3641
 2116DOPE   C1A24827  21.868  23.836  15.150 -0.0813  0.0218 -0.2407
 2116DOPE   D2A24828  21.734  24.161  14.804 -0.1267 -0.1492  0.0814
 2116DOPE   C3A24829  21.814  24.555  14.562 -0.1814 -0.0931 -0.2105
 2116DOPE   C4A24830  21.603  24.871  14.324 -0.0856 -0.3887 -0.1380
 2116DOPE   C1B24831  21.349  24.030  15.116 -0.1461 -0.2449 -0.3977
 2116DOPE   D2B24832  21.282  24.066  14.667 -0.0841  0.1016  0.2847
 2116DOPE   C3B24833  20.915  24.154  14.333 -0.3101  0.0810  0.1067
 2116DOPE   C4B24834  20.673  24.184  13.878 -0.0480 -0.0162 -0.4480
 2117DOPC   NC324835  14.961  25.487  15.438  0.0125  0.1731 -0.1503
 2117DOPC   PO424836  15.043  25.860  15.563  0.1462 -0.0215 -0.0091
 2117DOPC   GL124837  14.960  26.016  15.197  0.2766 -0.0122  0.1524
 2117DOPC   GL224838  15.102  26.225  15.164 -0.0200  0.2457  0.3616
 2117DOPC   C1A24839  14.934  25.988  14.744 -0.2036  0.2184  0.0574
 2117DOPC   D2A24840  14.920  26.176  14.335 -0.0752  0.0835 -0.1675
 2117DOPC   C3A24841  14.832  25.989  13.933  0.1419 -0.2997  0.3597
 2117DOPC   C4A24842  14.666  26.150  13.544 -0.1705  0.1869  0.0726
 2117DOPC   C1B24843  14.934  26.472  14.782 -0.0632 -0.0218  0.2198
 2117DOPC   D2B24844  14.949  26.823  14.421 -0.2425  0.2614  0.1393
 2117DOPC   C3B24845  15.282  27.093  14.144  0.1175 -0.0455 -0.0904
 2117DOPC   C4B24846  15.582  27.239  13.856 -0.1563 -0.1876 -0.0954
 2118DOPC   NC324847  16.051  27.876  15.582  0.0582 -0.0961  0.0564
 2118DOPC   PO424848  16.223  27.524  15.621 -0.0376 -0.2726  0.1538
 2118DOPC   GL124849  16.347  27.455  15.272 -0.2052  0.1364 -0.0118
 2118DOPC   GL224850  16.019  27.418  15.198  0.2958  0.0254  0.0296
 2118DOPC   C1A24851  16.656  27.716  15.001 -0.3767 -0.4365  0.1643
 2118DOPC   D2A24852  17.034  27.835  14.817  0.0943 -0.1168 -0.2614
 2118DOPC   C3A24853  16.837  27.770  14.410 -0.0868 -0.0928 -0.1845
 2118DOPC   C4A24854  16.925  27.903  13.981  0.0306  0.0705  0.3035
 2118DOPC   C1B24855  16.051  27.704  14.853 -0.0715  0.0802 -0.1102
 2118DOPC   D2B24856  15.646  27.775  14.605 -0.1854 -0.1086 -0.1164
 2118DOPC   C3B24857  15.757  27.679  14.102 -0.0847  0.2666 -0.1344
 2118DOPC   C4B24858  15.796  27.674  13.675  0.0793  0.2622  0.1273
 2119DOPC   NC324859  22.807  32.566  15.869  0.1724  0.0502  0.0230
 2119DOPC   PO424860  23.037  32.325  16.040  0.0019  0.2796  0.4812
 2119DOPC   GL124861  22.975  32.070  15.786  0.1048 -0.0134 -0.1785
 2119DOPC   GL224862  23.183  32.149  15.524 -0.2335 -0.2151  0.0861
 2119DOPC   C1A24863  22.753  31.952  15.392 -0.0064 -0.0552 -0.2568
 2119DOPC   D2A24864  22.673  31.691  15.033 -0.2390  0.1669 -0.1287
 2119DOPC   C3A24865  22.905  31.705  14.637  0.2388 -0.1436  0.1801
 2119DOPC   C4A24866  23.062  31.950  14.294 -0.1546 -0.1766 -0.1054
 2119DOPC   C1B24867  23.188  32.125  15.089 -0.1285  0.1137  0.3824
 2119DOPC   D2B24868  22.923  32.214  14.730 -0.0957 -0.1002  0.1143
 2119DOPC   C3B24869  22.739  32.351  14.300 -0.1662  0.0955  0.2624
 2119DOPC   C4B24870  22.686  32.763  14.068 -0.0089  0.2084  0.3430
 2120DOPC   NC324871  11.369  24.542  15.944  0.0766  0.0267  0.0223
 2120DOPC   PO424872  11.425  24.162  15.750 -0.0406  0.0831 -0.0945
 2120DOPC   GL124873  11.251  24.347  15.457 -0.0016 -0.1336  0.1723
 2120DOPC   GL224874  11.012  24.462  15.572 -0.0915 -0.5757  0.2203
 2120DOPC   C1A24875  11.441  24.516  15.075  0.0314  0.2005 -0.0761
 2120DOPC   D2A24876  11.595  24.635  14.613 -0.3782 -0.0270  0.2373
 2120DOPC   C3A24877  11.689  24.741  14.171 -0.1858 -0.1228 -0.1944
 2120DOPC   C4A24878  11.647  24.941  13.762  0.0608  0.0062  0.0952
 2120DOPC   C1B24879  10.990  24.644  15.176  0.3643  0.0475  0.2487
 2120DOPC   D2B24880  11.067  24.742  14.746 -0.1791  0.1756  0.0647
 2120DOPC   C3B24881  11.163  25.056  14.477  0.3071  0.1687 -0.1080
 2120DOPC   C4B24882  11.267  25.113  14.080 -0.0947 -0.2744  0.3013
 2121DOPC   NC324883  17.761  27.048  16.404 -0.2585  0.0305  0.1905
 2121DOPC   PO424884  17.817  26.762  16.122  0.0200 -0.0103 -0.1587
 2121DOPC   GL124885  17.835  26.711  15.784 -0.1968 -0.1126  0.2624
 2121DOPC   GL224886  17.508  26.640  15.710  0.3471  0.0589  0.0657
 2121DOPC   C1A24887  17.981  26.851  15.355 -0.1228  0.0378  0.0998
 2121DOPC   D2A24888  18.072  27.041  14.926  0.0523 -0.0270 -0.0618
 2121DOPC   C3A24889  18.365  26.990  14.583  0.1715 -0.1534  0.3002
 2121DOPC   C4A24890  18.543  27.007  14.169  0.0515 -0.3578 -0.1420
 2121DOPC   C1B24891  17.579  26.323  15.433 -0.0518  0.2110  0.1485
 2121DOPC   D2B24892  17.752  26.146  15.030  0.0935  0.2589  0.0308
 2121DOPC   C3B24893  17.790  25.973  14.609  0.0550  0.1759 -0.2683
 2121DOPC   C4B24894  17.759  25.942  14.195  0.3201  0.2698 -0.0772
 2122DOPE   NH324895  21.903  29.980  16.739 -0.0254  0.1397  0.1114
 2122DOPE   PO424896  21.956  29.836  16.458 -0.1290 -0.0852 -0.1641
 2122DOPE   GL124897  21.825  29.818  16.072 -0.1776 -0.2789  0.0317
 2122DOPE   GL224898  21.570  29.857  16.192 -0.2841 -0.3255  0.1040
 2122DOPE   C1A24899  22.128  29.780  15.736  0.0025  0.2555  0.0183
 2122DOPE   D2A24900  22.467  30.075  15.625 -0.0851  0.1337 -0.0876
 2122DOPE   C3A24901  22.489  30.523  15.447  0.0409  0.2821  0.3080
 2122DOPE   C4A24902  22.837  30.785  15.586  0.1031  0.0335  0.1405
 2122DOPE   C1B24903  21.222  30.125  16.013  0.1115 -0.3030 -0.2261
 2122DOPE   D2B24904  21.109  30.471  15.704  0.1682  0.2662  0.2172
 2122DOPE   C3B24905  21.147  30.247  15.312 -0.0165 -0.1948 -0.0404
 2122DOPE   C4B24906  21.320  30.102  14.946  0.0395 -0.2767 -0.1455
 2123DOPE   NH324907  20.592  29.276  16.029 -0.2561  0.2274 -0.0155
 2123DOPE   PO424908  20.902  29.229  16.004 -0.1717  0.0776  0.0025
 2123DOPE   GL124909  20.924  29.336  15.665  0.1686 -0.4021  0.6800
 2123DOPE   GL224910  20.690  29.302  15.521 -0.1729  0.1358 -0.1649
 2123DOPE   C1A24911  21.260  29.362  15.329 -0.0219  0.0193  0.1539
 2123DOPE   D2A24912  21.464  29.631  15.071  0.2353 -0.1929  0.0097
 2123DOPE   C3A24913  21.374  29.745  14.593  0.0797  0.3705  0.1794
 2123DOPE   C4A24914  21.060  30.087  14.419  0.0259 -0.0632  0.0755
 2123DOPE   C1B24915  20.762  29.368  15.073  0.1307  0.1756  0.0626
 2123DOPE   D2B24916  21.211  29.292  14.803 -0.0137  0.1869  0.1237
 2123DOPE   C3B24917  21.288  29.020  14.467 -0.3324  0.3735 -0.2734
 2123DOPE   C4B24918  21.088  28.605  14.410 -0.0243  0.2159 -0.1178
 2124POSM   NC324919  17.106  32.270  16.027 -0.1490  0.3912  0.1714
 2124POSM   PO424920  17.443  32.309  15.839  0.1583  0.2775 -0.5229
 2124POSM   AM124921  17.527  32.125  15.558 -0.3336  0.1290  0.0864
 2124POSM   AM224922  17.795  32.071  15.526  0.2974  0.4734  0.1370
 2124POSM   T1A24923  17.619  31.974  15.080  0.0303 -0.2821 -0.2786
 2124POSM   C2A24924  17.913  31.757  14.790  0.0838  0.1620 -0.0886
 2124POSM   C3A24925  18.112  31.421  14.648  0.1851  0.0446 -0.2049
 2124POSM   C1B24926  17.878  31.778  15.450 -0.0849 -0.1178  0.0121
 2124POSM   D2B24927  17.784  31.362  15.263 -0.0942 -0.1052  0.2424
 2124POSM   C3B24928  17.540  31.357  14.901 -0.0265 -0.2548 -0.0951
 2124POSM   C4B24929  17.624  31.354  14.519 -0.2514  0.3027 -0.2549
 2125DOPC   NC324930  20.188  24.225  15.333 -0.0829 -0.1140  0.0422
 2125DOPC   PO424931  19.808  24.233  15.356  0.0360 -0.2008 -0.0003
 2125DOPC   GL124932  19.639  24.289  14.940  0.1759  0.2738  0.2635
 2125DOPC   GL224933  19.459  24.062  14.994 -0.1256 -0.0288 -0.0710
 2125DOPC   C1A24934  19.612  24.219  14.494 -0.1304  0.2457  0.0763
 2125DOPC   D2A24935  19.780  24.334  14.057 -0.0549 -0.1166 -0.1261
 2125DOPC   C3A24936  19.795  24.132  13.654  0.1590  0.1559  0.2592
 2125DOPC   C4A24937  19.505  23.793  13.430  0.3879 -0.2466  0.1785
 2125DOPC   C1B24938  19.466  23.774  14.640 -0.1038 -0.1914  0.1637
 2125DOPC   D2B24939  19.550  23.407  14.351 -0.4135  0.0855  0.1578
 2125DOPC   C3B24940  19.683  22.960  14.419 -0.5874 -0.3837 -0.1536
 2125DOPC   C4B24941  20.086  22.746  14.591 -0.4274  0.1312  0.1972
 2126POSM   NC324942  16.248  25.217  15.327 -0.1215 -0.0004  0.0021
 2126POSM   PO424943  15.880  25.176  15.381  0.1641 -0.1636 -0.0679
 2126POSM   AM124944  15.815  25.085  15.079 -0.3343 -0.2504  0.0303
 2126POSM   AM224945  15.555  24.989  14.969 -0.3414 -0.3414  0.0234
 2126POSM   T1A24946  15.886  25.026  14.596  0.0877 -0.0323 -0.0351
 2126POSM   C2A24947  16.095  25.156  14.233 -0.0480  0.1680  0.2092
 2126POSM   C3A24948  16.024  25.147  13.776 -0.1141  0.1238 -0.1200
 2126POSM   C1B24949  15.384  24.837  14.738  0.1462  0.0985 -0.0615
 2126POSM   D2B24950  15.172  24.765  14.352 -0.4024  0.1593 -0.5824
 2126POSM   C3B24951  14.990  24.327  14.235 -0.1016 -0.0211  0.0671
 2126POSM   C4B24952  14.737  24.066  13.999 -0.0897  0.0220  0.1365
 2127POSM   NC324953  13.306  34.006  15.949 -0.0551  0.0506 -0.1529
 2127POSM   PO424954  13.054  33.807  16.204 -0.0033  0.1157  0.1561
 2127POSM   AM124955  12.893  33.837  15.916  0.3105 -0.1678  0.0190
 2127POSM   AM224956  12.916  33.742  15.673 -0.1180  0.0770  0.0528
 2127POSM   T1A24957  12.573  34.058  15.577  0.0645 -0.2971 -0.3941
 2127POSM   C2A24958  12.325  33.872  15.286  0.2163  0.1030  0.1414
 2127POSM   C3A24959  12.008  33.544  15.155 -0.1271 -0.0139 -0.1893
 2127POSM   C1B24960  12.886  33.628  15.345  0.2872 -0.0552 -0.2604
 2127POSM   D2B24961  12.750  33.580  14.917  0.0165 -0.0987 -0.0656
 2127POSM   C3B24962  12.858  33.249  14.578 -0.2914 -0.0421  0.0759
 2127POSM   C4B24963  12.985  32.814  14.593 -0.1147 -0.0953  0.2901
 2128DOPS   CNO24964  16.240  29.489  16.004  0.1585 -0.2927  0.0593
 2128DOPS   PO424965  16.600  29.484  15.886 -0.0915  0.0922  0.0657
 2128DOPS   GL124966  16.763  29.663  15.542  0.1044 -0.1654  0.2973
 2128DOPS   GL224967  16.631  29.487  15.353 -0.0019  0.0437 -0.2110
 2128DOPS   C1A24968  16.791  29.958  15.156  0.1294  0.0799  0.0488
 2128DOPS   D2A24969  17.061  30.248  14.962 -0.4160 -0.1022  0.1734
 2128DOPS   C3A24970  17.449  30.322  15.169 -0.0783  0.1597  0.1844
 2128DOPS   C4A24971  17.630  30.282  15.631  0.0578  0.2268 -0.2180
 2128DOPS   C1B24972  16.989  29.465  15.106 -0.0265 -0.3971  0.1723
 2128DOPS   D2B24973  17.246  29.778  14.867 -0.0429  0.2004  0.0671
 2128DOPS   C3B24974  17.095  29.982  14.478 -0.0672 -0.2523 -0.1454
 2128DOPS   C4B24975  16.752  30.238  14.336 -0.2467 -0.2029 -0.1316
 2129DOPC   NC324976  14.800  31.623  16.501 -0.0604  0.2316 -0.1393
 2129DOPC   PO424977  14.991  31.805  16.192  0.3269  0.5696  0.2604
 2129DOPC   GL124978  14.701  31.880  16.028 -0.2270 -0.2769 -0.1455
 2129DOPC   GL224979  14.583  31.601  15.814 -0.1126  0.0100 -0.2577
 2129DOPC   C1A24980  14.631  32.068  15.618 -0.1529 -0.4557 -0.1723
 2129DOPC   D2A24981  14.737  32.444  15.316  0.4468  0.1288  0.3399
 2129DOPC   C3A24982  14.669  32.477  14.867 -0.4270 -0.0288 -0.3056
 2129DOPC   C4A24983  14.633  32.469  14.416  0.0241  0.1067 -0.2086
 2129DOPC   C1B24984  14.858  31.524  15.459 -0.0711  0.1125  0.0924
 2129DOPC   D2B24985  15.175  31.638  15.204 -0.1905 -0.3924  0.1235
 2129DOPC   C3B24986  15.278  31.755  14.712  0.0833  0.3887 -0.0081
 2129DOPC   C4B24987  15.267  31.609  14.261  0.1205  0.1550  0.0982
 2130DOPE   NH324988  15.829  30.901  16.441 -0.2219 -0.1087  0.2154
 2130DOPE   PO424989  15.568  30.945  16.533 -0.2785  0.1490  0.0010
 2130DOPE   GL124990  15.463  31.022  16.142 -0.2695  0.4349  0.3086
 2130DOPE   GL224991  15.707  31.203  16.073  0.3034  0.1091  0.1641
 2130DOPE   C1A24992  15.338  31.111  15.692  0.1062 -0.3431  0.0798
 2130DOPE   D2A24993  15.503  31.270  15.325  0.0572 -0.0754 -0.0404
 2130DOPE   C3A24994  15.934  31.358  15.257  0.0271 -0.0265  0.0405
 2130DOPE   C4A24995  16.327  31.223  14.967 -0.0694  0.3036  0.1764
 2130DOPE   C1B24996  16.064  31.149  15.731 -0.0238 -0.0419  0.1865
 2130DOPE   D2B24997  16.409  31.070  15.398 -0.0843 -0.0175  0.0128
 2130DOPE   C3B24998  16.828  31.122  15.371 -0.4325  0.4428 -0.1607
 2130DOPE   C4B24999  17.222  31.357  15.279 -0.1479  0.0931 -0.0089
 2131DOPE   NH325000  16.869  24.547  15.378 -0.2945  0.1505 -0.1909
 2131DOPE   PO425001  17.111  24.731  15.550 -0.3433 -0.0257 -0.1034
 2131DOPE   GL125002  17.164  24.837  15.152 -0.2151  0.1470 -0.0566
 2131DOPE   GL225003  17.225  24.561  15.041 -0.1261 -0.0535 -0.1982
 2131DOPE   C1A25004  17.100  24.861  14.631  0.0851  0.0220 -0.0626
 2131DOPE   D2A25005  16.764  25.031  14.390  0.1362 -0.0249  0.2438
 2131DOPE   C3A25006  16.925  25.223  14.029 -0.0855  0.2408  0.1178
 2131DOPE   C4A25007  16.913  25.685  13.976 -0.0468  0.2522 -0.0441
 2131DOPE   C1B25008  17.545  24.550  14.685 -0.1697  0.4180  0.1945
 2131DOPE   D2B25009  17.676  24.942  14.386  0.0960  0.0799 -0.1300
 2131DOPE   C3B25010  17.366  25.054  14.078  0.3958 -0.1843 -0.1192
 2131DOPE   C4B25011  17.238  25.037  13.658  0.0521 -0.3312  0.3618
 2132DOPC   NC325012  18.689  26.817  16.009 -0.2635  0.2919 -0.2636
 2132DOPC   PO425013  18.389  26.591  16.065  0.0266 -0.0400  0.3348
 2132DOPC   GL125014  18.321  26.589  15.683  0.1171  0.1876 -0.1832
 2132DOPC   GL225015  18.453  26.805  15.546 -0.5867 -0.0099  0.1378
 2132DOPC   C1A25016  18.120  26.334  15.357  0.2256 -0.4661  0.1685
 2132DOPC   D2A25017  18.189  26.520  14.954  0.1061  0.0456  0.1506
 2132DOPC   C3A25018  17.978  26.451  14.580 -0.1585 -0.1759 -0.0518
 2132DOPC   C4A25019  18.157  26.239  14.197 -0.1510  0.2033 -0.2216
 2132DOPC   C1B25020  18.339  27.206  15.310 -0.0230  0.0052 -0.0680
 2132DOPC   D2B25021  18.204  27.532  14.971 -0.2503  0.3232  0.0317
 2132DOPC   C3B25022  18.419  27.834  14.750 -0.0139 -0.3366  0.2384
 2132DOPC   C4B25023  18.464  28.210  14.599 -0.1569 -0.3463 -0.2721
 2133POSM   NC325024  19.730  31.549  15.755  0.0447 -0.0373  0.1522
 2133POSM   PO425025  20.015  31.362  15.564  0.0606  0.1611  0.0524
 2133POSM   AM125026  19.817  31.399  15.299 -0.2006  0.2215  0.2367
 2133POSM   AM225027  19.863  31.512  15.053 -0.2024  0.0274 -0.1179
 2133POSM   T1A25028  19.429  31.660  15.054  0.2633  0.2140 -0.1250
 2133POSM   C2A25029  19.435  31.758  14.624  0.4557  0.0643  0.0209
 2133POSM   C3A25030  19.313  31.850  14.160  0.2488 -0.1127  0.1343
 2133POSM   C1B25031  19.765  31.411  14.752  0.1792 -0.0603  0.2749
 2133POSM   D2B25032  19.337  31.127  14.543 -0.1647 -0.1772 -0.0465
 2133POSM   C3B25033  18.840  31.154  14.634 -0.1942 -0.3080  0.0578
 2133POSM   C4B25034  18.542  31.008  14.919 -0.0085  0.1902  0.0149
 2134POSM   NC325035  14.630  33.955  15.675 -0.1071 -0.0724 -0.1656
 2134POSM   PO425036  14.350  33.939  15.932  0.0852 -0.1803  0.1724
 2134POSM   AM125037  14.189  33.865  15.632  0.2401  0.0639 -0.1240
 2134POSM   AM225038  14.237  33.720  15.427 -0.0089 -0.1975 -0.1924
 2134POSM   T1A25039  13.881  34.084  15.287 -0.1692 -0.1470 -0.0697
 2134POSM   C2A25040  13.864  34.336  14.958 -0.2043 -0.1152  0.2374
 2134POSM   C3A25041  13.795  34.453  14.467 -0.1060 -0.1902  0.2485
 2134POSM   C1B25042  13.993  33.600  15.146 -0.1181 -0.1129 -0.0441
 2134POSM   D2B25043  13.761  33.544  14.760  0.0486  0.2023 -0.4083
 2134POSM   C3B25044  13.773  33.531  14.343 -0.0455 -0.2679  0.3046
 2134POSM   C4B25045  13.560  33.550  13.972 -0.3388  0.1627  0.0543
 2135DOPC   NC325046  20.403  33.056  16.048  0.0276  0.0911 -0.2182
 2135DOPC   PO425047  20.397  32.783  15.805  0.2990 -0.2188  0.3017
 2135DOPC   GL125048  20.454  32.827  15.408  0.1525  0.1019  0.2623
 2135DOPC   GL225049  20.413  33.123  15.350 -0.1017  0.0112  0.1260
 2135DOPC   C1A25050  20.361  32.621  15.003 -0.0978  0.0685  0.1867
 2135DOPC   D2A25051  20.441  32.580  14.574  0.0332 -0.2805 -0.3144
 2135DOPC   C3A25052  20.465  32.661  14.112 -0.0121  0.0067  0.1187
 2135DOPC   C4A25053  20.227  32.438  13.805  0.2526  0.2049 -0.5559
 2135DOPC   C1B25054  20.132  33.394  15.145  0.1338 -0.0514 -0.0981
 2135DOPC   D2B25055  19.771  33.516  14.885 -0.3838 -0.1930 -0.1214
 2135DOPC   C3B25056  19.480  33.478  14.542  0.1022 -0.1200  0.1573
 2135DOPC   C4B25057  19.099  33.685  14.537 -0.4270 -0.3154  0.2876
 2136DOPS   CNO25058  15.772  30.149  15.792 -0.4585 -0.0684 -0.3014
 2136DOPS   PO425059  16.052  30.005  16.008  0.0215  0.0720 -0.2440
 2136DOPS   GL125060  16.248  30.153  15.705  0.0169  0.0383 -0.0573
 2136DOPS   GL225061  16.436  29.905  15.728 -0.0778 -0.0362  0.3565
 2136DOPS   C1A25062  16.530  30.279  15.376 -0.0235 -0.3068  0.1491
 2136DOPS   D2A25063  16.814  30.622  15.285  0.1583 -0.1032  0.1100
 2136DOPS   C3A25064  16.729  30.909  14.928 -0.0450 -0.2252 -0.2439
 2136DOPS   C4A25065  16.670  30.874  14.488  0.0123 -0.0760 -0.0797
 2136DOPS   C1B25066  16.206  29.851  15.356  0.2291  0.3865 -0.1602
 2136DOPS   D2B25067  16.268  30.119  14.986 -0.1939 -0.0956  0.0948
 2136DOPS   C3B25068  16.211  30.137  14.495  0.0016 -0.1360 -0.2464
 2136DOPS   C4B25069  15.854  30.142  14.226 -0.0524  0.2419  0.0805
 2137DOPE   NH325070  22.546  27.533  15.487 -0.1444  0.3154 -0.0107
 2137DOPE   PO425071  22.578  27.815  15.436  0.2085  0.0609 -0.1052
 2137DOPE   GL125072  22.402  28.024  15.161 -0.0822 -0.2134  0.1538
 2137DOPE   GL225073  22.156  28.195  15.177 -0.1305 -0.2690 -0.2014
 2137DOPE   C1A25074  22.475  28.389  14.915  0.1348  0.0422  0.0173
 2137DOPE   D2A25075  22.445  28.653  14.533 -0.0251 -0.0078 -0.1462
 2137DOPE   C3A25076  22.155  28.677  14.144 -0.2085  0.1876 -0.1379
 2137DOPE   C4A25077  21.895  28.944  13.868  0.2555 -0.1685  0.1488
 2137DOPE   C1B25078  22.003  28.371  14.741  0.1447 -0.0584 -0.0603
 2137DOPE   D2B25079  21.823  28.196  14.381  0.2606 -0.1330  0.0009
 2137DOPE   C3B25080  21.423  28.317  14.192 -0.4819  0.1191  0.2601
 2137DOPE   C4B25081  21.111  28.055  13.965 -0.2110 -0.4024 -0.2694
 2138DOPS   CNO25082  17.198  32.735  15.938 -0.0517  0.1685  0.0089
 2138DOPS   PO425083  17.266  32.786  15.593  0.2733  0.0704  0.1578
 2138DOPS   GL125084  17.127  32.633  15.290  0.1521  0.1052  0.1870
 2138DOPS   GL225085  17.227  32.345  15.318 -0.3231  0.0362  0.0093
 2138DOPS   C1A25086  16.870  32.608  14.885  0.1072  0.1701  0.3809
 2138DOPS   D2A25087  16.752  32.574  14.441  0.0786 -0.0001 -0.0631
 2138DOPS   C3A25088  16.859  32.357  14.067 -0.0961 -0.0913 -0.0448
 2138DOPS   C4A25089  17.219  32.296  13.748 -0.3994 -0.2599  0.1735
 2138DOPS   C1B25090  17.234  32.236  14.879  0.1611 -0.1666  0.0859
 2138DOPS   D2B25091  17.134  32.239  14.447  0.1257  0.0131  0.3403
 2138DOPS   C3B25092  17.066  31.908  14.079 -0.1581 -0.0125  0.1999
 2138DOPS   C4B25093  16.843  31.914  13.673 -0.0163  0.1743 -0.0175
 2139DOPS   CNO25094  13.981  24.984  16.038  0.1622  0.1180  0.0738
 2139DOPS   PO425095  13.628  24.932  15.893 -0.0362  0.0237 -0.1087
 2139DOPS   GL125096  13.702  24.919  15.526  0.0522 -0.1135 -0.1886
 2139DOPS   GL225097  13.443  25.123  15.479  0.1387 -0.1616  0.1168
 2139DOPS   C1A25098  13.744  24.625  15.151 -0.1423  0.1338  0.2794
 2139DOPS   D2A25099  13.485  24.386  14.826  0.0229 -0.3188 -0.0644
 2139DOPS   C3A25100  13.276  24.642  14.504  0.2454 -0.2646 -0.1739
 2139DOPS   C4A25101  13.114  24.966  14.205 -0.0234  0.1301  0.0579
 2139DOPS   C1B25102  13.648  25.148  15.063 -0.1131  0.1299 -0.0827
 2139DOPS   D2B25103  13.703  24.862  14.730 -0.0308  0.0486 -0.3739
 2139DOPS   C3B25104  14.020  24.871  14.284 -0.1400 -0.1883 -0.0689
 2139DOPS   C4B25105  14.024  24.847  13.822 -0.0512 -0.1454 -0.0351
 2140POSM   NC325106  13.433  30.559  16.407  0.4623 -0.1496 -0.1574
 2140POSM   PO425107  13.527  30.723  16.053  0.1437 -0.0691 -0.1321
 2140POSM   AM125108  13.540  30.712  15.687 -0.0691  0.1688 -0.0650
 2140POSM   AM225109  13.362  30.597  15.489 -0.4916  0.3833  0.0035
 2140POSM   T1A25110  13.922  30.826  15.421  0.1078 -0.0267  0.3031
 2140POSM   C2A25111  13.965  31.228  15.119  0.0873  0.1948  0.2902
 2140POSM   C3A25112  13.794  31.341  14.660  0.2522 -0.4651  0.2380
 2140POSM   C1B25113  13.486  30.768  15.246  0.3637 -0.3592  0.2429
 2140POSM   D2B25114  13.734  30.892  14.877 -0.2957  0.0695  0.0694
 2140POSM   C3B25115  13.475  31.004  14.491 -0.1134  0.0436  0.2868
 2140POSM   C4B25116  13.468  30.659  14.146  0.0923  0.1638 -0.1949
 2141POSM   NC325117  21.168  28.815  16.111  0.3131  0.1140  0.0267
 2141POSM   PO425118  20.929  28.522  16.070 -0.5520 -0.3578  0.1512
 2141POSM   AM125119  20.806  28.727  15.847 -0.3976 -0.1016  0.0143
 2141POSM   AM225120  20.931  28.852  15.671 -0.1946 -0.2212 -0.2670
 2141POSM   T1A25121  20.476  28.827  15.493 -0.0023 -0.3063 -0.0149
 2141POSM   C2A25122  20.484  28.903  15.034 -0.2272  0.0832 -0.0397
 2141POSM   C3A25123  20.368  29.190  14.673  0.1059 -0.4207  0.1055
 2141POSM   C1B25124  20.999  28.904  15.338  0.3063  0.1628 -0.1146
 2141POSM   D2B25125  21.026  28.756  14.917  0.3164 -0.0778 -0.1428
 2141POSM   C3B25126  20.823  29.000  14.597  0.0843 -0.2432 -0.1036
 2141POSM   C4B25127  20.669  29.222  14.259  0.0048  0.1432 -0.0499
 2142DOPC   NC325128  14.428  25.456  15.526  0.0675  0.1200  0.0908
 2142DOPC   PO425129  14.575  25.153  15.313 -0.1376  0.3120 -0.0787
 2142DOPC   GL125130  14.589  25.309  15.066 -0.2705 -0.2500  0.2721
 2142DOPC   GL225131  14.656  25.586  15.026  0.2320  0.0589 -0.4691
 2142DOPC   C1A25132  14.333  25.187  14.672  0.1752 -0.1722  0.2080
 2142DOPC   D2A25133  14.272  25.365  14.332  0.1533 -0.1414 -0.1010
 2142DOPC   C3A25134  13.941  25.383  14.012 -0.0243 -0.2476 -0.0488
 2142DOPC   C4A25135  13.720  25.241  13.665 -0.1268  0.1066 -0.2066
 2142DOPC   C1B25136  14.810  25.431  14.644 -0.0201  0.1376 -0.1095
 2142DOPC   D2B25137  14.886  25.321  14.165  0.1060 -0.0866 -0.0840
 2142DOPC   C3B25138  15.111  25.518  13.825 -0.2322  0.1271  0.0156
 2142DOPC   C4B25139  15.188  25.278  13.442  0.1112  0.0424 -0.1297
 2143POSM   NC325140  17.239  34.636  16.001 -0.0176 -0.0536  0.0089
 2143POSM   PO425141  17.019  34.367  15.821  0.2390 -0.0166  0.2051
 2143POSM   AM125142  16.922  34.299  15.536  0.0615  0.2536 -0.2148
 2143POSM   AM225143  17.016  34.401  15.271 -0.0718  0.2600  0.0881
 2143POSM   T1A25144  16.687  34.060  15.132  0.0603  0.0816 -0.0679
 2143POSM   C2A25145  16.516  34.021  14.730  0.0980 -0.1096 -0.1546
 2143POSM   C3A25146  16.452  34.000  14.261 -0.0494  0.0846  0.0139
 2143POSM   C1B25147  17.134  34.174  15.018 -0.6853 -0.1343  0.2126
 2143POSM   D2B25148  17.033  33.908  14.652 -0.1576  0.2130  0.1879
 2143POSM   C3B25149  17.279  33.981  14.222 -0.0720 -0.0455  0.2104
 2143POSM   C4B25150  17.293  33.918  13.778  0.0341 -0.2086 -0.1186
 2144DOPC   NC325151  18.260  29.041  16.341 -0.1972  0.3207  0.1461
 2144DOPC   PO425152  18.498  29.439  16.431  0.2216  0.3096 -0.1165
 2144DOPC   GL125153  18.806  29.353  16.162 -0.1745 -0.1210 -0.3761
 2144DOPC   GL225154  19.014  29.489  16.003  0.1785 -0.0153  0.1227
 2144DOPC   C1A25155  18.672  29.173  15.707  0.0572 -0.1907  0.4616
 2144DOPC   D2A25156  18.580  29.410  15.230  0.0584 -0.3451  0.1576
 2144DOPC   C3A25157  18.916  29.206  14.870  0.1128  0.0673  0.1381
 2144DOPC   C4A25158  18.901  29.110  14.444  0.2590 -0.1613 -0.2832
 2144DOPC   C1B25159  19.476  29.459  15.851  0.0020 -0.4024 -0.0760
 2144DOPC   D2B25160  19.814  29.399  15.484 -0.1179 -0.5470  0.2847
 2144DOPC   C3B25161  19.960  29.689  15.143  0.3275  0.2104 -0.0884
 2144DOPC   C4B25162  19.970  29.757  14.712 -0.1403  0.0016  0.1947
 2145POSM   NC325163  19.127  28.206  16.598  0.4414 -0.3194  0.3457
 2145POSM   PO425164  18.965  28.485  16.822  0.0940 -0.1053  0.0946
 2145POSM   AM125165  19.018  28.629  16.509 -0.0107 -0.0488  0.0705
 2145POSM   AM225166  18.910  28.513  16.269  0.0897 -0.1440  0.1053
 2145POSM   T1A25167  19.353  28.794  16.152 -0.2391  0.0730  0.1927
 2145POSM   C2A25168  19.289  28.998  15.764  0.0765 -0.0690 -0.0700
 2145POSM   C3A25169  19.487  29.006  15.332  0.2500  0.0258 -0.2869
 2145POSM   C1B25170  18.861  28.636  15.940  0.1927  0.2592 -0.0214
 2145POSM   D2B25171  18.686  28.659  15.503 -0.0067  0.1015 -0.2102
 2145POSM   C3B25172  18.926  28.992  15.329 -0.0924  0.3205  0.2914
 2145POSM   C4B25173  19.088  29.393  15.490  0.4272  0.0612 -0.1354
 2146POSM   NC325174  20.528  24.738  16.219 -0.2238  0.0090 -0.0384
 2146POSM   PO425175  20.376  24.823  15.840 -0.0030 -0.0752  0.1242
 2146POSM   AM125176  20.407  24.840  15.516 -0.0530 -0.0576  0.1601
 2146POSM   AM225177  20.246  24.750  15.319 -0.0882  0.3296 -0.1465
 2146POSM   T1A25178  20.649  24.949  15.103  0.0446 -0.4149  0.1725
 2146POSM   C2A25179  20.800  24.974  14.661  0.0142  0.1101 -0.2934
 2146POSM   C3A25180  20.962  25.036  14.248 -0.1578  0.3051 -0.0855
 2146POSM   C1B25181  20.305  24.655  14.990 -0.0174  0.1364  0.2731
 2146POSM   D2B25182  20.139  24.478  14.542 -0.3110 -0.1321 -0.0927
 2146POSM   C3B25183  20.189  24.558  14.122 -0.0523 -0.0375  0.0737
 2146POSM   C4B25184  20.215  24.490  13.667  0.0323 -0.1386  0.3129
 2147DOPC   NC325185  13.756  26.125  15.722  0.0284 -0.0184 -0.1572
 2147DOPC   PO425186  13.406  26.306  15.660 -0.0514  0.2838 -0.0482
 2147DOPC   GL125187  13.457  26.210  15.348  0.2454  0.1440  0.1179
 2147DOPC   GL225188  13.298  26.055  15.185  0.0807 -0.2953  0.1213
 2147DOPC   C1A25189  13.525  26.502  15.001 -0.1947  0.4540  0.1727
 2147DOPC   D2A25190  13.743  26.902  14.971  0.0529 -0.0482  0.1675
 2147DOPC   C3A25191  13.881  27.222  14.723 -0.1837 -0.4848 -0.3356
 2147DOPC   C4A25192  13.945  27.654  14.926 -0.0351  0.0772  0.2970
 2147DOPC   C1B25193  13.302  26.121  14.760  0.1170  0.0427  0.0937
 2147DOPC   D2B25194  13.517  26.108  14.356  0.0694 -0.0293 -0.0802
 2147DOPC   C3B25195  13.661  26.422  13.949 -0.0663  0.0136 -0.0061
 2147DOPC   C4B25196  13.567  26.912  13.849 -0.3409 -0.0010 -0.1776
 2148DOPE   NH325197  13.846  25.360  15.639 -0.0778  0.2602 -0.1582
 2148DOPE   PO425198  13.985  25.683  15.537 -0.0669  0.0242 -0.0835
 2148DOPE   GL125199  14.217  25.691  15.126  0.1272 -0.2397 -0.0218
 2148DOPE   GL225200  14.140  25.418  15.088  0.1784 -0.0536 -0.1442
 2148DOPE   C1A25201  14.310  25.693  14.671  0.1999  0.3544  0.1809
 2148DOPE   D2A25202  14.579  25.817  14.342  0.1766 -0.0284  0.1395
 2148DOPE   C3A25203  14.399  25.745  13.952 -0.0372 -0.0236 -0.0738
 2148DOPE   C4A25204  14.058  25.655  13.625 -0.1186  0.1643  0.3560
 2148DOPE   C1B25205  13.915  25.401  14.698  0.0286 -0.0478  0.3946
 2148DOPE   D2B25206  13.875  25.707  14.363 -0.0904  0.1372 -0.3464
 2148DOPE   C3B25207  13.867  25.956  13.933 -0.0872 -0.3825 -0.0356
 2148DOPE   C4B25208  13.767  26.125  13.536 -0.2110  0.3452  0.3893
 2149DOPC   NC325209  12.457  27.452  15.622  0.3708 -0.0548  0.0392
 2149DOPC   PO425210  12.756  27.592  15.778  0.1250 -0.0635  0.0594
 2149DOPC   GL125211  12.977  27.640  15.430  0.0954 -0.0587 -0.1143
 2149DOPC   GL225212  13.125  27.396  15.425  0.2599  0.0075  0.0268
 2149DOPC   C1A25213  12.994  27.688  15.008  0.1276  0.0457 -0.0864
 2149DOPC   D2A25214  12.880  27.932  14.601  0.0998  0.1687 -0.1457
 2149DOPC   C3A25215  13.172  28.179  14.305 -0.1191  0.3394 -0.2740
 2149DOPC   C4A25216  13.402  27.951  14.058  0.0117  0.0062  0.2933
 2149DOPC   C1B25217  13.452  27.770  15.450 -0.1108 -0.0151  0.1145
 2149DOPC   D2B25218  13.829  27.977  15.269  0.0949  0.1527  0.2737
 2149DOPC   C3B25219  13.780  28.081  14.841 -0.1538  0.0460  0.0592
 2149DOPC   C4B25220  13.688  28.207  14.421 -0.2878  0.0644  0.2683
 2150POSM   NC325221  20.616  31.156  16.601 -0.1243 -0.1767 -0.1490
 2150POSM   PO425222  20.904  31.342  16.400  0.2281 -0.0298  0.1224
 2150POSM   AM125223  21.123  31.160  16.177 -0.5711 -0.3282 -0.2543
 2150POSM   AM225224  21.194  31.113  15.954 -0.0693  0.2196 -0.1140
 2150POSM   T1A25225  21.284  30.684  16.116  0.1268 -0.2320 -0.1656
 2150POSM   C2A25226  21.706  30.622  15.982 -0.2179 -0.1414 -0.2122
 2150POSM   C3A25227  21.998  30.974  15.927 -0.1852 -0.0071  0.1042
 2150POSM   C1B25228  21.352  30.920  15.717 -0.3413  0.2922  0.0122
 2150POSM   D2B25229  21.527  30.617  15.433 -0.0471  0.1191  0.2064
 2150POSM   C3B25230  21.572  30.582  14.950  0.2048  0.1286  0.0719
 2150POSM   C4B25231  21.236  30.527  14.670 -0.1204  0.0921 -0.1068
 2151POSM   NC325232  12.873  33.322  16.474  0.2199 -0.0443 -0.0772
 2151POSM   PO425233  13.257  33.345  16.472 -0.2206  0.1780 -0.1750
 2151POSM   AM125234  13.162  33.319  16.140 -0.0418 -0.2154 -0.2411
 2151POSM   AM225235  13.250  33.452  15.893 -0.0829  0.0676 -0.0101
 2151POSM   T1A25236  12.815  33.276  15.828 -0.0722 -0.1128  0.0501
 2151POSM   C2A25237  12.643  33.152  15.396 -0.2021 -0.1598 -0.3954
 2151POSM   C3A25238  12.576  33.124  14.967  0.0827 -0.2699 -0.2180
 2151POSM   C1B25239  13.304  33.366  15.586  0.1390 -0.0906  0.0244
 2151POSM   D2B25240  13.096  33.236  15.127 -0.2340  0.0911  0.0144
 2151POSM   C3B25241  13.340  33.204  14.736  0.1537 -0.1293  0.0494
 2151POSM   C4B25242  13.373  33.157  14.261 -0.0185 -0.1533 -0.1899
 2152POSM   NC325243  15.970  29.282  16.335 -0.1671  0.0854 -0.1563
 2152POSM   PO425244  15.642  29.503  16.328 -0.0554 -0.3310  0.2585
 2152POSM   AM125245  15.496  29.355  16.090  0.3050  0.0821 -0.3609
 2152POSM   AM225246  15.259  29.473  15.987  0.2214  0.2746 -0.0944
 2152POSM   T1A25247  15.519  29.262  15.634 -0.1216  0.0985 -0.0807
 2152POSM   C2A25248  15.377  29.337  15.163  0.1199  0.0703  0.2819
 2152POSM   C3A25249  15.421  29.521  14.740  0.0130 -0.1239  0.2579
 2152POSM   C1B25250  15.066  29.520  15.710  0.0541 -0.0276  0.0005
 2152POSM   D2B25251  14.872  29.600  15.290  0.1021 -0.3537 -0.0343
 2152POSM   C3B25252  14.797  29.901  14.894  0.0775  0.1119  0.0002
 2152POSM   C4B25253  14.416  30.039  14.636 -0.0288  0.1859  0.3089
 2153POSM   NC325254  14.775  34.157  16.180  0.0834 -0.0187  0.0120
 2153POSM   PO425255  14.923  34.445  15.984 -0.2383  0.1545 -0.1133
 2153POSM   AM125256  14.949  34.464  15.681 -0.0285  0.2193 -0.1898
 2153POSM   AM225257  15.106  34.452  15.451 -0.4090  0.1844  0.3273
 2153POSM   T1A25258  14.713  34.658  15.289 -0.1726 -0.3003 -0.0151
 2153POSM   C2A25259  14.677  34.976  14.988 -0.1792  0.1202  0.0091
 2153POSM   C3A25260  14.488  34.973  14.589 -0.0602  0.0959 -0.0266
 2153POSM   C1B25261  15.091  34.273  15.201  0.1533  0.1313  0.0368
 2153POSM   D2B25262  15.379  34.110  14.830  0.0594  0.1148 -0.0093
 2153POSM   C3B25263  15.109  34.291  14.441  0.1837 -0.1917 -0.1457
 2153POSM   C4B25264  14.730  34.415  14.249  0.2330 -0.1608 -0.1452
 2154DOPC   NC325265  23.455  30.345  16.003  0.1186  0.0929  0.3133
 2154DOPC   PO425266  23.338  30.487  16.357 -0.1460 -0.0104 -0.2811
 2154DOPC   GL125267  23.212  30.787  16.215  0.3983 -0.1712 -0.1641
 2154DOPC   GL225268  23.226  30.754  15.873 -0.2297  0.1736  0.2273
 2154DOPC   C1A25269  23.001  31.154  16.036  0.7053  0.1188 -0.0830
 2154DOPC   D2A25270  22.803  31.340  15.669  0.2308 -0.0054 -0.0071
 2154DOPC   C3A25271  22.942  31.228  15.232  0.0095  0.0912 -0.0170
 2154DOPC   C4A25272  23.186  30.952  14.891  0.2025  0.1649 -0.3324
 2154DOPC   C1B25273  23.277  30.572  15.451 -0.0834 -0.1665  0.1853
 2154DOPC   D2B25274  23.366  30.403  15.036 -0.2650 -0.3138 -0.0176
 2154DOPC   C3B25275  23.070  30.523  14.702  0.1883  0.1936 -0.2419
 2154DOPC   C4B25276  22.643  30.780  14.639 -0.0215  0.1142  0.2117
 2155POSM   NC325277  22.713  29.719  16.019 -0.0251  0.0344 -0.0352
 2155POSM   PO425278  22.836  29.957  16.310  0.2427  0.2539  0.2947
 2155POSM   AM125279  22.929  30.112  16.039  0.2817 -0.2832  0.2095
 2155POSM   AM225280  22.968  30.368  15.975  0.0266 -0.1628 -0.1595
 2155POSM   T1A25281  22.924  30.158  15.533  0.0169 -0.0665  0.2109
 2155POSM   C2A25282  22.889  30.381  15.174  0.2671  0.0273 -0.0139
 2155POSM   C3A25283  22.757  30.796  15.114 -0.0406  0.2891 -0.1201
 2155POSM   C1B25284  22.730  30.556  16.057  0.1274  0.1554  0.0068
 2155POSM   D2B25285  22.520  30.977  15.984  0.3872 -0.0004  0.2967
 2155POSM   C3B25286  22.388  31.080  15.515 -0.0906 -0.0659 -0.0195
 2155POSM   C4B25287  22.404  31.109  15.078 -0.0342 -0.0982 -0.2040
 2156DOPS   CNO25288  16.424  28.949  15.880 -0.1223 -0.1416  0.0683
 2156DOPS   PO425289  16.118  28.805  16.072  0.0393  0.1592 -0.2254
 2156DOPS   GL125290  15.988  29.127  15.794 -0.0158 -0.2240  0.2141
 2156DOPS   GL225291  16.107  28.970  15.577 -0.0106  0.3193  0.1345
 2156DOPS   C1A25292  15.971  29.425  15.414 -0.0348  0.1577 -0.0722
 2156DOPS   D2A25293  16.269  29.540  15.003 -0.2102 -0.0863 -0.1345
 2156DOPS   C3A25294  16.578  29.757  14.701 -0.3048 -0.0807  0.0560
 2156DOPS   C4A25295  16.515  29.758  14.284  0.0961  0.0169  0.1698
 2156DOPS   C1B25296  16.384  29.073  15.148  0.2441  0.2077 -0.3294
 2156DOPS   D2B25297  16.646  29.299  14.813 -0.3059 -0.2994  0.1184
 2156DOPS   C3B25298  16.972  29.518  14.529 -0.0017 -0.0523 -0.0517
 2156DOPS   C4B25299  17.004  29.533  14.057 -0.1700 -0.3363 -0.4036
 2157DOPS   CNO25300  12.207  30.738  15.859 -0.2297  0.3246 -0.2732
 2157DOPS   PO425301  12.135  30.474  15.606 -0.1867 -0.1501 -0.1790
 2157DOPS   GL125302  12.257  30.206  15.297  0.1763 -0.1065 -0.2994
 2157DOPS   GL225303  12.214  29.900  15.228 -0.1777  0.0983  0.0706
 2157DOPS   C1A25304  12.597  30.210  14.994  0.3360 -0.1610 -0.1938
 2157DOPS   D2A25305  12.969  30.127  14.837 -0.4313 -0.0539 -0.0860
 2157DOPS   C3A25306  13.034  29.942  14.451  0.3156  0.0793  0.0531
 2157DOPS   C4A25307  13.355  29.755  14.209  0.1204 -0.1464 -0.1255
 2157DOPS   C1B25308  12.181  30.050  14.822 -0.1349 -0.3841 -0.1261
 2157DOPS   D2B25309  12.083  30.020  14.386 -0.0303 -0.2157  0.2179
 2157DOPS   C3B25310  11.731  30.093  14.053  0.2849 -0.1139 -0.2253
 2157DOPS   C4B25311  11.337  29.857  13.887  0.1919 -0.1507 -0.3484
 2158DOPS   CNO25312  17.984  30.925  16.104 -0.0722  0.1702  0.2120
 2158DOPS   PO425313  18.261  31.000  15.823 -0.1561 -0.0762  0.0835
 2158DOPS   GL125314  17.954  30.877  15.598 -0.2080  0.5159  0.0131
 2158DOPS   GL225315  17.966  30.641  15.415  0.0130  0.2972  0.2871
 2158DOPS   C1A25316  17.527  30.873  15.357 -0.0327  0.0782 -0.2826
 2158DOPS   D2A25317  17.316  30.794  14.969  0.1356 -0.0131 -0.1335
 2158DOPS   C3A25318  17.683  30.925  14.701  0.1736  0.0478 -0.2367
 2158DOPS   C4A25319  18.097  30.805  14.785  0.1011  0.1247  0.0936
 2158DOPS   C1B25320  18.023  30.311  15.128 -0.0007 -0.0830 -0.0647
 2158DOPS   D2B25321  17.899  30.242  14.681 -0.1804 -0.0766  0.1268
 2158DOPS   C3B25322  17.607  29.938  14.631 -0.1131  0.0206  0.1232
 2158DOPS   C4B25323  17.425  29.658  14.332  0.1721  0.1772  0.0454
 2159POSM   NC325324  19.790  26.130  15.637 -0.0408 -0.3277 -0.1289
 2159POSM   PO425325  19.742  26.443  15.835 -0.1542  0.0889  0.0519
 2159POSM   AM125326  19.678  26.655  15.589 -0.4119  0.3314 -0.3541
 2159POSM   AM225327  19.841  26.673  15.345 -0.2605  0.0106  0.4836
 2159POSM   T1A25328  19.298  26.796  15.310  0.1228  0.0143  0.0890
 2159POSM   C2A25329  19.131  26.568  14.962 -0.0154  0.1929 -0.0902
 2159POSM   C3A25330  18.815  26.689  14.695  0.1748  0.1722 -0.3568
 2159POSM   C1B25331  20.009  26.470  15.081 -0.0813 -0.0672  0.1369
 2159POSM   D2B25332  19.991  26.359  14.593 -0.0375 -0.0326  0.2922
 2159POSM   C3B25333  20.013  26.485  14.128  0.3095  0.3462  0.0934
 2159POSM   C4B25334  20.082  26.530  13.640 -0.0616  0.1605  0.1597
 2160DOPE   NH325335  19.543   1.010  15.618 -0.0004 -0.2290  0.3208
 2160DOPE   PO425336  19.346   0.785  15.490 -0.0068 -0.2391  0.0673
 2160DOPE   GL125337  19.535   0.759  15.184  0.0578  0.0845 -0.3558
 2160DOPE   GL225338  19.859   0.794  15.256  0.1001  0.0511 -0.2855
 2160DOPE   C1A25339  19.695   0.724  14.757  0.2017 -0.3946 -0.1733
 2160DOPE   D2A25340  19.963   0.440  14.519 -0.0387  0.0368 -0.1465
 2160DOPE   C3A25341  19.803   0.211  14.106 -0.0545 -0.1117 -0.1581
 2160DOPE   C4A25342  19.657  -0.100  13.804 -0.3100 -0.0663 -0.0981
 2160DOPE   C1B25343  19.724   0.327  15.240 -0.1727 -0.3721 -0.0258
 2160DOPE   D2B25344  19.608  -0.099  15.208 -0.2439 -0.0096 -0.1614
 2160DOPE   C3B25345  19.772  -0.581  15.060 -0.1559 -0.2751 -0.1317
 2160DOPE   C4B25346  20.008  -0.594  14.648  0.5254  0.2599  0.0609
 2161POSM   NC325347  17.056  23.658  15.200 -0.0044 -0.0512 -0.1405
 2161POSM   PO425348  17.007  24.081  15.151 -0.3126 -0.3315  0.1329
 2161POSM   AM125349  16.817  24.180  14.858 -0.0120 -0.2776  0.2607
 2161POSM   AM225350  16.821  24.398  14.662 -0.0683 -0.0730 -0.0510
 2161POSM   T1A25351  16.445  23.955  14.549 -0.0485 -0.3526  0.1554
 2161POSM   C2A25352  16.051  23.662  14.671  0.1045 -0.1630 -0.0406
 2161POSM   C3A25353  15.614  23.437  14.636  0.0496 -0.1249 -0.0728
 2161POSM   C1B25354  16.776  24.469  14.272 -0.0568  0.3222 -0.0134
 2161POSM   D2B25355  16.784  24.502  13.782  0.2124 -0.1035  0.1185
 2161POSM   C3B25356  16.865  24.176  13.472 -0.3032  0.1471 -0.2180
 2161POSM   C4B25357  17.080  23.919  13.173  0.3142 -0.0010 -0.1630
 2162DOPS   CNO25358  19.811  30.482  16.054 -0.0324  0.2253 -0.0486
 2162DOPS   PO425359  19.540  30.268  16.067 -0.1316  0.3314  0.0929
 2162DOPS   GL125360  19.414  30.426  15.710  0.1996  0.5005 -0.2267
 2162DOPS   GL225361  19.122  30.422  15.697 -0.0585  0.0919 -0.1049
 2162DOPS   C1A25362  19.453  30.573  15.295 -0.5942 -0.2111 -0.2437
 2162DOPS   D2A25363  19.343  30.543  14.876  0.0558 -0.0406  0.4911
 2162DOPS   C3A25364  19.077  30.640  14.496  0.1769  0.0574 -0.0538
 2162DOPS   C4A25365  18.743  30.733  14.224  0.0591  0.1012 -0.1168
 2162DOPS   C1B25366  19.234  30.128  15.368 -0.1820  0.0283 -0.1531
 2162DOPS   D2B25367  19.526  29.772  15.308  0.0555 -0.0313 -0.0907
 2162DOPS   C3B25368  19.438  29.475  14.999 -0.0467 -0.3199  0.0584
 2162DOPS   C4B25369  19.471  29.066  14.848  0.0227 -0.0521 -0.0294
 2163POSM   NC325370  22.202  28.156  15.802  0.0808  0.1857  0.1064
 2163POSM   PO425371  22.104  27.851  15.584  0.2128  0.0488 -0.1421
 2163POSM   AM125372  21.878  27.872  15.303  0.0991 -0.2179 -0.5883
 2163POSM   AM225373  21.865  27.741  15.078 -0.0358 -0.2449 -0.4331
 2163POSM   T1A25374  21.570  28.157  15.032  0.0638  0.0805 -0.1953
 2163POSM   C2A25375  21.496  28.479  14.722 -0.0781  0.0951 -0.2434
 2163POSM   C3A25376  21.746  28.711  14.429 -0.1301 -0.1778 -0.0629
 2163POSM   C1B25377  22.035  27.842  14.809  0.1592  0.0556  0.2817
 2163POSM   D2B25378  22.045  27.725  14.364 -0.1609 -0.2305  0.1727
 2163POSM   C3B25379  22.010  27.851  13.936 -0.2069  0.0165  0.0375
 2163POSM   C4B25380  21.846  28.201  13.862  0.0275 -0.1676  0.0763
 2164POSM   NC325381  16.717  27.311  15.488  0.2017 -0.1030  0.0711
 2164POSM   PO425382  16.863  27.137  15.807  0.0070 -0.0215 -0.2498
 2164POSM   AM125383  17.048  26.895  15.630  0.1015  0.1144 -0.2936
 2164POSM   AM225384  17.016  26.894  15.350 -0.1471 -0.0284 -0.1671
 2164POSM   T1A25385  17.466  26.844  15.282 -0.2246  0.3577 -0.1410
 2164POSM   C2A25386  17.648  26.768  14.850 -0.1261 -0.4827  0.0312
 2164POSM   C3A25387  17.684  26.851  14.378  0.0137  0.0233  0.0622
 2164POSM   C1B25388  16.903  26.714  15.060  0.3029  0.0728  0.1519
 2164POSM   D2B25389  16.818  26.401  14.801 -0.0761 -0.2734  0.2325
 2164POSM   C3B25390  16.981  26.395  14.399 -0.1711  0.0624 -0.0062
 2164POSM   C4B25391  17.192  26.640  14.098 -0.2752  0.0776  0.0692
 2165POSM   NC325392  13.786  31.694  15.951  0.0498  0.2039 -0.1939
 2165POSM   PO425393  13.829  31.393  16.225  0.0730 -0.2724  0.1600
 2165POSM   AM125394  13.797  31.189  15.962 -0.0591  0.0338  0.1822
 2165POSM   AM225395  13.992  31.061  15.823 -0.3077 -0.1609 -0.3161
 2165POSM   T1A25396  13.599  31.171  15.493  0.2075  0.1340 -0.1162
 2165POSM   C2A25397  13.401  31.367  15.138  0.1512 -0.0961  0.1308
 2165POSM   C3A25398  13.356  31.630  14.743  0.1321 -0.0222  0.2007
 2165POSM   C1B25399  14.118  31.236  15.604  0.0268  0.0679  0.3467
 2165POSM   D2B25400  14.411  31.426  15.343 -0.0115  0.0656  0.1386
 2165POSM   C3B25401  14.301  31.636  14.954  0.0682 -0.1486 -0.0567
 2165POSM   C4B25402  14.439  31.995  14.683  0.0106 -0.7417  0.0428
 2166DOPE   NH325403  23.575  32.277  16.007 -0.0478 -0.2151 -0.1135
 2166DOPE   PO425404  23.464  31.981  16.093 -0.2333  0.2409  0.3530
 2166DOPE   GL125405  23.373  31.778  15.789 -0.0364  0.0902 -0.1357
 2166DOPE   GL225406  23.276  31.542  15.882  0.2277 -0.2246 -0.0860
 2166DOPE   C1A25407  23.145  31.694  15.319 -0.2998  0.1864 -0.0084
 2166DOPE   D2A25408  23.244  31.490  14.980 -0.1019 -0.0475  0.0446
 2166DOPE   C3A25409  23.594  31.547  14.722 -0.3042 -0.0889  0.1228
 2166DOPE   C4A25410  23.708  31.660  14.342 -0.1549 -0.0051  0.0935
 2166DOPE   C1B25411  23.277  31.209  15.614  0.1491 -0.1387 -0.3041
 2166DOPE   D2B25412  23.566  31.088  15.258  0.1842  0.1767  0.3096
 2166DOPE   C3B25413  23.691  30.871  14.861  0.1269 -0.0068 -0.1453
 2166DOPE   C4B25414  23.648  31.102  14.452 -0.1185 -0.1109  0.1032
 2167DOPE   NH325415  12.515  31.027  15.570  0.4120 -0.0178 -0.3209
 2167DOPE   PO425416  12.674  30.856  15.788  0.1274  0.0358 -0.0485
 2167DOPE   GL125417  12.895  30.636  15.592 -0.4583  0.0516  0.2274
 2167DOPE   GL225418  12.907  30.322  15.587  0.2800  0.2401  0.2172
 2167DOPE   C1A25419  12.946  30.570  15.146  0.0220 -0.3334 -0.1293
 2167DOPE   D2A25420  12.840  30.656  14.690  0.0098  0.0781  0.3749
 2167DOPE   C3A25421  12.979  30.932  14.333  0.1961 -0.2137  0.0938
 2167DOPE   C4A25422  13.326  31.161  14.092  0.2637 -0.0784 -0.2299
 2167DOPE   C1B25423  12.770  29.972  15.361  0.1675  0.0221  0.2179
 2167DOPE   D2B25424  12.693  29.684  15.040  0.1173 -0.2220 -0.0058
 2167DOPE   C3B25425  12.548  29.843  14.603  0.1688  0.1792 -0.1201
 2167DOPE   C4B25426  12.548  30.171  14.242  0.1685 -0.0439  0.1822
 2168DOPS   CNO25427  22.467  24.662  15.523  0.0893 -0.0296 -0.1317
 2168DOPS   PO425428  22.449  24.344  15.705  0.2310 -0.1002  0.2422
 2168DOPS   GL125429  22.553  24.163  15.365  0.0540 -0.2988  0.1815
 2168DOPS   GL225430  22.770  24.321  15.214  0.0074 -0.1947 -0.0536
 2168DOPS   C1A25431  22.706  23.773  15.199 -0.2744  0.1794  0.0130
 2168DOPS   D2A25432  22.893  23.382  15.005  0.1496  0.4146 -0.0889
 2168DOPS   C3A25433  22.570  23.135  14.906  0.1285 -0.1567  0.4169
 2168DOPS   C4A25434  22.313  23.098  14.516  0.3026 -0.1072 -0.0948
 2168DOPS   C1B25435  22.715  24.151  14.820  0.1561  0.2915  0.3415
 2168DOPS   D2B25436  22.732  23.889  14.421 -0.1081 -0.1994 -0.1239
 2168DOPS   C3B25437  23.228  23.797  14.364  0.1495 -0.2157 -0.1204
 2168DOPS   C4B25438  23.550  23.859  14.007 -0.2195  0.3041 -0.1157
 2169DOPS   CNO25439  11.727  27.324  15.953 -0.1535  0.0973 -0.4165
 2169DOPS   PO425440  12.066  27.190  15.948 -0.0976  0.0495  0.0953
 2169DOPS   GL125441  11.993  27.323  15.547  0.3260 -0.4632  0.0365
 2169DOPS   GL225442  12.060  27.305  15.238  0.0479 -0.1494  0.0283
 2169DOPS   C1A25443  11.710  27.619  15.310 -0.2941 -0.3309  0.4579
 2169DOPS   D2A25444  11.511  27.984  15.108  0.3844 -0.0624  0.2965
 2169DOPS   C3A25445  11.574  27.784  14.685  0.0215  0.1719  0.0696
 2169DOPS   C4A25446  11.723  27.579  14.298  0.3074 -0.1303 -0.0755
 2169DOPS   C1B25447  12.050  27.608  14.924  0.2408 -0.0402 -0.0578
 2169DOPS   D2B25448  12.019  28.065  15.005  0.0261  0.0182  0.1047
 2169DOPS   C3B25449  11.741  28.300  14.783  0.2537  0.0203  0.2472
 2169DOPS   C4B25450  11.306  28.242  14.532  0.1158 -0.0064  0.0804
 2170DOPE   NH325451  15.914  32.976  15.942 -0.0243 -0.2062  0.0553
 2170DOPE   PO425452  15.776  32.839  15.643 -0.4200  0.0606 -0.1025
 2170DOPE   GL125453  15.895  32.637  15.288 -0.0011 -0.0964 -0.1073
 2170DOPE   GL225454  16.115  32.447  15.413 -0.2528  0.0486  0.1443
 2170DOPE   C1A25455  15.563  32.547  14.929  0.1524  0.0462 -0.0679
 2170DOPE   D2A25456  15.121  32.409  14.776 -0.0267 -0.5128  0.3362
 2170DOPE   C3A25457  14.899  32.045  14.630 -0.0011  0.1409 -0.0153
 2170DOPE   C4A25458  14.752  31.859  14.202  0.1207 -0.1175  0.1783
 2170DOPE   C1B25459  15.976  32.223  15.038  0.2333 -0.0315  0.2074
 2170DOPE   D2B25460  15.750  31.990  14.708  0.1068  0.0184 -0.0586
 2170DOPE   C3B25461  15.381  32.112  14.399 -0.0111 -0.0032 -0.1123
 2170DOPE   C4B25462  15.191  32.363  14.119 -0.1273 -0.3195  0.0056
 2171DOPC   NC325463  16.755  33.940  15.737 -0.1369  0.0826 -0.1100
 2171DOPC   PO425464  16.689  33.611  15.586 -0.1236  0.0221 -0.0903
 2171DOPC   GL125465  16.866  33.427  15.371  0.1903 -0.0739 -0.1991
 2171DOPC   GL225466  16.962  33.628  15.186 -0.1580  0.0353  0.0636
 2171DOPC   C1A25467  16.583  33.316  15.018 -0.1570 -0.1000 -0.0512
 2171DOPC   D2A25468  16.214  33.163  14.861  0.0343  0.2840 -0.0500
 2171DOPC   C3A25469  16.010  33.293  14.412 -0.0607  0.0470 -0.3435
 2171DOPC   C4A25470  15.700  33.271  14.007  0.2082  0.2225 -0.1086
 2171DOPC   C1B25471  17.264  33.501  14.876  0.0100  0.2861 -0.2874
 2171DOPC   D2B25472  17.488  33.530  14.450  0.2431  0.0004 -0.1587
 2171DOPC   C3B25473  17.873  33.657  14.615  0.0345 -0.2446 -0.1951
 2171DOPC   C4B25474  18.339  33.756  14.578  0.0882 -0.1599 -0.0812
 2172DOPE   NH325475  17.698  32.657  16.091  0.1564 -0.3192 -0.1674
 2172DOPE   PO425476  17.976  32.767  16.125 -0.0198  0.3383  0.0519
 2172DOPE   GL125477  18.004  32.749  15.700  0.0497 -0.0472  0.2037
 2172DOPE   GL225478  17.839  32.601  15.644  0.1026  0.0891  0.0948
 2172DOPE   C1A25479  18.217  32.360  15.464  0.0617  0.2184  0.0343
 2172DOPE   D2A25480  18.194  32.109  15.064  0.2681 -0.0662  0.0420
 2172DOPE   C3A25481  18.647  32.100  14.872  0.1032  0.4157  0.1041
 2172DOPE   C4A25482  19.034  31.963  15.125 -0.0687 -0.1761  0.0841
 2172DOPE   C1B25483  17.828  32.431  15.199  0.2638  0.0661  0.0615
 2172DOPE   D2B25484  17.664  32.430  14.748 -0.1643  0.0218 -0.2968
 2172DOPE   C3B25485  17.540  31.983  14.568 -0.0355 -0.0931 -0.1196
 2172DOPE   C4B25486  17.497  31.628  14.181 -0.3364 -0.3773 -0.0251
 2173DOPC   NC325487  11.326  26.737  15.352  0.0725  0.4285  0.2343
 2173DOPC   PO425488  11.102  26.886  15.657 -0.2842 -0.2172  0.1544
 2173DOPC   GL125489  10.885  26.958  15.286  0.3880  0.0955 -0.0980
 2173DOPC   GL225490  11.050  27.161  15.195  0.0590 -0.1551 -0.2611
 2173DOPC   C1A25491  10.879  26.668  14.923  0.2263  0.0031 -0.3197
 2173DOPC   D2A25492  10.590  26.300  14.717  0.2080  0.0399  0.1097
 2173DOPC   C3A25493  10.871  25.943  14.557 -0.1320  0.2827 -0.1705
 2173DOPC   C4A25494  11.045  26.060  14.145  0.2770  0.0431  0.1441
 2173DOPC   C1B25495  11.367  27.034  14.942 -0.0298  0.1057 -0.1195
 2173DOPC   D2B25496  11.666  27.321  14.814  0.2577  0.1916 -0.2675
 2173DOPC   C3B25497  12.099  27.213  14.618 -0.4083 -0.3661 -0.1813
 2173DOPC   C4B25498  12.500  26.985  14.749  0.1392  0.0115 -0.2749
 2174DOPE   NH325499  21.703  27.559  15.707 -0.2270 -0.3265 -0.1013
 2174DOPE   PO425500  21.465  27.527  15.458  0.0108  0.0085  0.1210
 2174DOPE   GL125501  21.470  27.456  15.086  0.0416  0.1139  0.2116
 2174DOPE   GL225502  21.392  27.705  14.968 -0.6128  0.1323  0.3265
 2174DOPE   C1A25503  21.649  27.445  14.650  0.0674 -0.0815  0.1217
 2174DOPE   D2A25504  21.818  27.218  14.299 -0.1870  0.0842  0.3748
 2174DOPE   C3A25505  21.746  27.367  13.860 -0.2719  0.0748 -0.1524
 2174DOPE   C4A25506  21.522  27.366  13.419 -0.1944  0.0381 -0.2769
 2174DOPE   C1B25507  21.487  27.956  14.573 -0.1395 -0.2788  0.2411
 2174DOPE   D2B25508  21.501  27.718  14.175 -0.0880  0.0713 -0.0752
 2174DOPE   C3B25509  21.514  27.803  13.759  0.0475 -0.1179  0.1499
 2174DOPE   C4B25510  21.897  27.710  13.485 -0.2238 -0.1068 -0.1005
 2175DOPE   NH325511  21.311  31.600  16.232  0.5378  0.3028 -0.3113
 2175DOPE   PO425512  21.513  31.822  16.064  0.0431  0.0711 -0.2043
 2175DOPE   GL125513  21.377  31.677  15.729  0.1492  0.4996  0.0301
 2175DOPE   GL225514  21.496  31.401  15.703  0.1188  0.0322  0.1678
 2175DOPE   C1A25515  21.679  31.664  15.347  0.0971  0.0877 -0.1177
 2175DOPE   D2A25516  21.886  31.349  15.053 -0.1334 -0.1042  0.0601
 2175DOPE   C3A25517  21.856  30.997  14.834 -0.0420 -0.0171 -0.3686
 2175DOPE   C4A25518  21.862  30.877  14.366  0.2448 -0.0499 -0.1656
 2175DOPE   C1B25519  21.434  31.141  15.280  0.2750  0.2474 -0.1506
 2175DOPE   D2B25520  21.371  31.064  14.767 -0.0417 -0.2772  0.1041
 2175DOPE   C3B25521  21.214  31.435  14.475 -0.0006  0.1820  0.1733
 2175DOPE   C4B25522  20.993  31.800  14.264 -0.4814 -0.1155  0.2850
 2176DOPC   NC325523  14.141  23.403  15.421 -0.3492  0.2919 -0.1620
 2176DOPC   PO425524  13.822  23.314  15.598  0.0071  0.0194 -0.3107
 2176DOPC   GL125525  13.660  23.440  15.338 -0.2116 -0.1346  0.0412
 2176DOPC   GL225526  13.434  23.370  15.263 -0.1931  0.2188 -0.1434
 2176DOPC   C1A25527  13.818  23.697  14.941 -0.0881 -0.1294  0.1075
 2176DOPC   D2A25528  13.993  23.723  14.530 -0.0212 -0.2014 -0.1958
 2176DOPC   C3A25529  14.411  23.932  14.606  0.0104  0.1986 -0.2076
 2176DOPC   C4A25530  14.582  24.421  14.617 -0.0829 -0.1620 -0.0334
 2176DOPC   C1B25531  13.237  23.508  14.898  0.2183 -0.1176 -0.0155
 2176DOPC   D2B25532  12.994  23.660  14.530 -0.3308 -0.5263 -0.1284
 2176DOPC   C3B25533  13.156  23.860  14.144 -0.0843  0.1040  0.1828
 2176DOPC   C4B25534  13.177  24.362  14.033  0.1323  0.2442 -0.0983
 2177DOPC   NC325535  22.229  26.682  15.597 -0.0334  0.0778 -0.1179
 2177DOPC   PO425536  22.413  27.020  15.542  0.2644 -0.1934 -0.1264
 2177DOPC   GL125537  22.465  26.862  15.125 -0.2264 -0.1803 -0.2181
 2177DOPC   GL225538  22.188  26.896  15.055  0.0223  0.1157  0.1671
 2177DOPC   C1A25539  22.508  26.648  14.749 -0.0267 -0.1982  0.0725
 2177DOPC   D2A25540  22.604  26.363  14.387 -0.1480  0.1124 -0.0776
 2177DOPC   C3A25541  22.882  26.502  14.076 -0.1543 -0.1120 -0.1267
 2177DOPC   C4A25542  23.183  26.315  13.725 -0.0532  0.1660 -0.0150
 2177DOPC   C1B25543  22.062  26.854  14.646 -0.0729  0.1249  0.0046
 2177DOPC   D2B25544  22.117  26.824  14.179  0.3551 -0.0259  0.2198
 2177DOPC   C3B25545  21.738  26.873  13.937  0.4292 -0.0489  0.4322
 2177DOPC   C4B25546  21.379  26.993  13.701  0.2542  0.0304 -0.1470
 2178DOPE   NH325547  18.699  25.427  15.618 -0.2599  0.1340 -0.0447
 2178DOPE   PO425548  18.978  25.444  15.469  0.1170 -0.0068 -0.1775
 2178DOPE   GL125549  18.735  25.492  15.108 -0.0113 -0.1932  0.1597
 2178DOPE   GL225550  18.751  25.795  15.147 -0.0013 -0.3811  0.1201
 2178DOPE   C1A25551  18.862  25.492  14.646  0.1853  0.3268  0.0917
 2178DOPE   D2A25552  18.516  25.345  14.342  0.0492 -0.2561 -0.1951
 2178DOPE   C3A25553  18.605  25.140  13.924  0.0737  0.0875 -0.2174
 2178DOPE   C4A25554  18.526  24.802  13.588  0.0824  0.0864 -0.1161
 2178DOPE   C1B25555  19.139  26.076  15.130  0.1606 -0.2656  0.2172
 2178DOPE   D2B25556  19.517  26.281  15.256  0.0556  0.0119  0.0097
 2178DOPE   C3B25557  19.584  26.544  14.910  0.0135 -0.1872 -0.0863
 2178DOPE   C4B25558  19.379  26.848  14.593  0.1965  0.2586  0.0085
 2179DOPE   NH325559  23.783  29.582  16.174  0.2372  0.4264 -0.3493
 2179DOPE   PO425560  23.781  29.877  16.001  0.1016 -0.0319  0.4440
 2179DOPE   GL125561  23.427  29.696  15.758  0.0916 -0.0610 -0.0719
 2179DOPE   GL225562  23.260  29.967  15.802 -0.3156  0.1382 -0.0735
 2179DOPE   C1A25563  23.087  29.693  15.445 -0.0475 -0.1493  0.1612
 2179DOPE   D2A25564  22.952  29.517  15.050 -0.3277 -0.0700  0.0997
 2179DOPE   C3A25565  22.989  29.403  14.632 -0.2211 -0.1088  0.0046
 2179DOPE   C4A25566  23.077  29.104  14.236 -0.1169 -0.3013  0.2300
 2179DOPE   C1B25567  23.470  30.096  15.431  0.1422 -0.0853 -0.1238
 2179DOPE   D2B25568  23.350  29.945  14.973  0.1668 -0.0266 -0.0072
 2179DOPE   C3B25569  23.546  30.157  14.627 -0.0009  0.3485  0.1542
 2179DOPE   C4B25570  23.558  30.569  14.435 -0.0501 -0.1441  0.0051
 2180DOPS   CNO25571  13.551  28.945  16.068  0.1454  0.1495 -0.0169
 2180DOPS   PO425572  13.901  28.966  16.237  0.0321  0.1669  0.0617
 2180DOPS   GL125573  13.960  28.644  16.045  0.4154 -0.2776 -0.1590
 2180DOPS   GL225574  13.707  28.439  15.954  0.3451 -0.3218 -0.1331
 2180DOPS   C1A25575  13.771  28.654  15.582 -0.0015  0.2073 -0.2973
 2180DOPS   D2A25576  13.762  28.505  15.222  0.2013 -0.0312  0.0244
 2180DOPS   C3A25577  14.017  28.513  14.850 -0.2670  0.0190 -0.2103
 2180DOPS   C4A25578  14.046  28.518  14.362 -0.0375 -0.0001  0.0056
 2180DOPS   C1B25579  14.050  28.144  15.833 -0.2528 -0.5961 -0.1333
 2180DOPS   D2B25580  14.352  27.913  15.542 -0.0353  0.0236 -0.2838
 2180DOPS   C3B25581  14.268  27.940  15.030 -0.1935  0.0075  0.2308
 2180DOPS   C4B25582  14.355  28.189  14.646  0.1382  0.1240 -0.0108
 2181POSM   NC325583  16.168  33.819  15.883  0.0081 -0.1090 -0.0783
 2181POSM   PO425584  15.982  34.202  15.810 -0.0867 -0.1652 -0.3748
 2181POSM   AM125585  16.076  34.155  15.514 -0.0650 -0.1398  0.0575
 2181POSM   AM225586  16.271  33.970  15.439 -0.3622 -0.0616 -0.1674
 2181POSM   T1A25587  16.113  34.530  15.134  0.0951 -0.3250  0.3090
 2181POSM   C2A25588  16.224  34.935  14.905 -0.2128 -0.0437  0.0276
 2181POSM   C3A25589  16.189  35.332  14.597  0.0768 -0.1165  0.0260
 2181POSM   C1B25590  16.129  34.010  15.111  0.4825 -0.1407  0.4524
 2181POSM   D2B25591  15.958  34.205  14.746 -0.0271  0.1526  0.0254
 2181POSM   C3B25592  16.302  34.465  14.635  0.3317 -0.0572  0.0762
 2181POSM   C4B25593  16.446  34.885  14.446 -0.0493  0.1682  0.2688
 2182DOPC   NC325594  12.664  28.823  15.978  0.1380  0.1177 -0.0416
 2182DOPC   PO425595  12.287  28.726  15.898 -0.1865 -0.2440 -0.1006
 2182DOPC   GL125596  12.060  28.965  15.602  0.1533  0.2642  0.2549
 2182DOPC   GL225597  11.955  28.715  15.532  0.1454  0.1082  0.0460
 2182DOPC   C1A25598  12.128  29.333  15.291 -0.0947 -0.0813 -0.1178
 2182DOPC   D2A25599  12.010  29.528  14.922  0.0511  0.1575 -0.0197
 2182DOPC   C3A25600  11.881  29.165  14.621  0.0099 -0.0780  0.3040
 2182DOPC   C4A25601  11.849  28.936  14.186  0.1943  0.1084  0.0258
 2182DOPC   C1B25602  11.941  28.818  15.063  0.1514  0.0966  0.0863
 2182DOPC   D2B25603  12.272  28.984  14.840  0.0051 -0.1970  0.2594
 2182DOPC   C3B25604  12.439  29.334  14.667  0.1298 -0.0482  0.1071
 2182DOPC   C4B25605  12.292  29.536  14.241  0.1174  0.0925  0.1991
 2183DOPC   NC325606  15.327  27.043  15.907 -0.2369  0.3406  0.2073
 2183DOPC   PO425607  15.598  26.816  15.678  0.0662 -0.0920 -0.1885
 2183DOPC   GL125608  15.729  26.790  15.294  0.1245 -0.1485  0.0142
 2183DOPC   GL225609  15.579  27.084  15.259 -0.0821 -0.0716 -0.1859
 2183DOPC   C1A25610  15.986  26.922  14.917 -0.3479  0.0611 -0.1661
 2183DOPC   D2A25611  16.273  27.220  14.772 -0.0111  0.0421  0.0365
 2183DOPC   C3A25612  16.260  27.515  14.441  0.2744 -0.0204 -0.0057
 2183DOPC   C4A25613  16.460  27.717  14.073  0.1073 -0.1050 -0.1552
 2183DOPC   C1B25614  15.523  27.217  14.806  0.1216 -0.2580 -0.4999
 2183DOPC   D2B25615  15.691  27.334  14.423  0.0168 -0.1516 -0.1559
 2183DOPC   C3B25616  15.933  26.996  14.408 -0.0553 -0.3311  0.4497
 2183DOPC   C4B25617  15.906  26.570  14.428  0.1079  0.0381  0.2799
 2184DOPS   CNO25618  15.305  25.100  15.677  0.2799  0.1980  0.1049
 2184DOPS   PO425619  15.386  24.823  15.451 -0.0730 -0.2768  0.2652
 2184DOPS   GL125620  15.147  24.757  15.164 -0.2323 -0.1928  0.0094
 2184DOPS   GL225621  15.031  25.033  15.088 -0.1483  0.2203  0.0962
 2184DOPS   C1A25622  15.061  24.428  14.826  0.0976  0.1000  0.1902
 2184DOPS   D2A25623  14.938  24.042  14.680 -0.0486 -0.1735  0.3994
 2184DOPS   C3A25624  15.222  23.808  14.451  0.2339  0.1148  0.0782
 2184DOPS   C4A25625  15.275  23.435  14.253  0.1256  0.1077  0.0170
 2184DOPS   C1B25626  14.788  24.856  14.753 -0.3334  0.1198 -0.2928
 2184DOPS   D2B25627  14.715  24.817  14.335  0.0476 -0.2789 -0.0030
 2184DOPS   C3B25628  14.429  25.000  13.987 -0.3098 -0.2813 -0.0411
 2184DOPS   C4B25629  14.300  25.211  13.582  0.3093  0.4434  0.4304
 2185DOPC   NC325630  22.125  34.219  15.725  0.1605 -0.0962 -0.0955
 2185DOPC   PO425631  21.779  34.242  15.935 -0.0431 -0.2245 -0.0226
 2185DOPC   GL125632  21.760  34.419  15.481  0.1493  0.0909  0.0295
 2185DOPC   GL225633  21.584  34.657  15.438  0.3737 -0.2993  0.1329
 2185DOPC   C1A25634  21.718  34.345  15.024 -0.0657 -0.2118 -0.2069
 2185DOPC   D2A25635  21.804  34.204  14.611  0.1613 -0.1498 -0.0527
 2185DOPC   C3A25636  21.950  34.376  14.226 -0.2196  0.1030  0.1470
 2185DOPC   C4A25637  22.094  34.674  13.913  0.1179  0.1002 -0.2092
 2185DOPC   C1B25638  21.518  35.024  15.091  0.3197  0.0070  0.0282
 2185DOPC   D2B25639  21.429  34.992  14.622  0.1961 -0.4093 -0.2636
 2185DOPC   C3B25640  21.642  35.259  14.360 -0.1466  0.0701 -0.3170
 2185DOPC   C4B25641  21.782  35.605  14.123 -0.3867  0.1418  0.2201
 2186POSM   NC325642  20.575  27.705  15.788  0.0038  0.0961  0.0657
 2186POSM   PO425643  20.762  28.009  16.023 -0.1286  0.0157  0.2315
 2186POSM   AM125644  20.854  28.166  15.750  0.0603  0.1238 -0.0637
 2186POSM   AM225645  20.915  28.366  15.586  0.0092  0.2254 -0.2002
 2186POSM   T1A25646  20.805  27.976  15.295 -0.4079 -0.1671 -0.3073
 2186POSM   C2A25647  20.953  27.636  15.094  0.0965  0.1450 -0.0564
 2186POSM   C3A25648  20.870  27.193  15.038 -0.0865 -0.1488  0.0786
 2186POSM   C1B25649  20.739  28.437  15.314  0.1335  0.1246  0.0158
 2186POSM   D2B25650  20.500  28.420  14.934  0.1276  0.1341 -0.1955
 2186POSM   C3B25651  20.617  28.453  14.484 -0.0814 -0.2633 -0.0147
 2186POSM   C4B25652  20.795  28.371  14.020 -0.0497 -0.2422 -0.2085
 2187DOPC   NC325653  17.630  24.636  15.302 -0.0321  0.2009 -0.0498
 2187DOPC   PO425654  17.938  24.413  15.490 -0.1251  0.0074 -0.2261
 2187DOPC   GL125655  17.978  24.397  15.110  0.0875  0.0876  0.0425
 2187DOPC   GL225656  18.073  24.642  14.970  0.3071 -0.4046  0.1561
 2187DOPC   C1A25657  17.949  24.061  14.774  0.2379  0.0333 -0.0441
 2187DOPC   D2A25658  17.738  24.116  14.407  0.0675 -0.1514 -0.1098
 2187DOPC   C3A25659  17.767  24.429  14.073  0.1453 -0.0470  0.0473
 2187DOPC   C4A25660  17.704  24.801  13.785  0.1379  0.0145  0.1003
 2187DOPC   C1B25661  18.019  24.508  14.540 -0.4996 -0.2559 -0.0672
 2187DOPC   D2B25662  18.202  24.224  14.200  0.1090 -0.1460 -0.1710
 2187DOPC   C3B25663  18.381  23.889  14.469  0.0416 -0.0154 -0.1451
 2187DOPC   C4B25664  18.728  23.870  14.741  0.0163  0.2080  0.2821
 2188DOPC   NC325665  21.444  23.105  15.739  0.0019 -0.0871  0.0249
 2188DOPC   PO425666  21.435  23.487  15.717 -0.0704  0.1198  0.2710
 2188DOPC   GL125667  21.167  23.437  15.380 -0.2226 -0.2704 -0.1013
 2188DOPC   GL225668  20.984  23.673  15.480 -0.1583  0.2814  0.1537
 2188DOPC   C1A25669  21.079  23.635  14.962 -0.0915  0.1628  0.1410
 2188DOPC   D2A25670  20.846  23.834  14.670  0.0877  0.3279  0.0360
 2188DOPC   C3A25671  20.753  23.567  14.328  0.3712 -0.2490  0.6294
 2188DOPC   C4A25672  20.523  23.376  13.942  0.1409 -0.1596  0.2848
 2188DOPC   C1B25673  20.771  23.992  15.183  0.1776  0.2324 -0.1126
 2188DOPC   D2B25674  20.435  23.958  14.898  0.2014  0.2051  0.1291
 2188DOPC   C3B25675  20.366  24.009  14.432 -0.0171 -0.2215  0.0867
 2188DOPC   C4B25676  20.211  24.007  13.980 -0.0737 -0.0505  0.1688
 2189DOPE   NH325677  17.823  23.059  15.628  0.2357 -0.0320 -0.1664
 2189DOPE   PO425678  17.905  22.934  15.377 -0.1716  0.1300  0.1608
 2189DOPE   GL125679  18.028  22.711  15.057 -0.2405 -0.3947 -0.3680
 2189DOPE   GL225680  18.375  22.663  15.076  0.0073 -0.2277  0.1541
 2189DOPE   C1A25681  17.931  22.525  14.630 -0.0841  0.2712  0.3298
 2189DOPE   D2A25682  18.025  22.652  14.208  0.0167 -0.3310  0.0475
 2189DOPE   C3A25683  17.895  22.831  13.849  0.1560 -0.1457 -0.2131
 2189DOPE   C4A25684  17.814  23.063  13.444 -0.0354  0.1045 -0.1304
 2189DOPE   C1B25685  18.703  22.807  14.787 -0.2415  0.0568  0.1071
 2189DOPE   D2B25686  18.650  22.921  14.307  0.0101 -0.2579  0.2097
 2189DOPE   C3B25687  18.397  22.833  13.933  0.1838  0.3924  0.0410
 2189DOPE   C4B25688  18.337  22.760  13.503 -0.4164 -0.1228 -0.0801
 2190POSM   NC325689  22.028  24.592  15.803  0.0597 -0.3634 -0.1391
 2190POSM   PO425690  21.900  24.252  15.699 -0.3084  0.2813  0.3106
 2190POSM   AM125691  22.060  24.223  15.390 -0.3858 -0.0543 -0.2125
 2190POSM   AM225692  22.162  24.426  15.226 -0.1471  0.0216  0.1175
 2190POSM   T1A25693  22.296  23.969  14.993 -0.0045  0.2227  0.1067
 2190POSM   C2A25694  22.193  24.079  14.568 -0.0698 -0.2559  0.1147
 2190POSM   C3A25695  21.903  24.045  14.173  0.0528  0.3218  0.0952
 2190POSM   C1B25696  22.185  24.519  14.905 -0.3878  0.2817  0.0152
 2190POSM   D2B25697  22.267  24.864  14.609 -0.2725  0.1379  0.1681
 2190POSM   C3B25698  22.054  24.995  14.219  0.3124 -0.0678  0.1198
 2190POSM   C4B25699  21.821  25.170  13.854 -0.3008 -0.1802 -0.3892
 2191POSM   NC325700  12.967  30.749  16.190  0.1767 -0.1041  0.0751
 2191POSM   PO425701  13.123  30.426  16.055 -0.1737  0.1619  0.2980
 2191POSM   AM125702  13.316  30.275  15.836  0.1220  0.0148 -0.0673
 2191POSM   AM225703  13.531  30.196  15.718  0.0294  0.3376  0.2776
 2191POSM   T1A25704  13.251  30.103  15.353 -0.2218  0.0156  0.2164
 2191POSM   C2A25705  13.481  30.148  14.950  0.0579 -0.2632 -0.0140
 2191POSM   C3A25706  13.563  30.241  14.550  0.1804  0.0581  0.0333
 2191POSM   C1B25707  13.721  30.228  15.422 -0.0424 -0.0602 -0.1296
 2191POSM   D2B25708  13.843  30.460  15.069  0.0346 -0.2569  0.3577
 2191POSM   C3B25709  14.102  30.397  14.730 -0.1283  0.2527  0.1716
 2191POSM   C4B25710  14.431  30.468  14.428 -0.2423  0.3280  0.3373
 2192DOPE   NH325711  12.861  25.335  15.721 -0.1413  0.4239 -0.1216
 2192DOPE   PO425712  12.796  25.158  15.478  0.0292 -0.0726 -0.0258
 2192DOPE   GL125713  12.897  25.030  15.198 -0.0992 -0.2477 -0.2537
 2192DOPE   GL225714  13.137  25.221  15.108  0.2133 -0.3173  0.2098
 2192DOPE   C1A25715  12.797  25.122  14.771 -0.1694 -0.3430 -0.1247
 2192DOPE   D2A25716  12.826  25.381  14.393 -0.4582 -0.3092  0.0918
 2192DOPE   C3A25717  12.617  25.395  13.952 -0.0226 -0.1277  0.3060
 2192DOPE   C4A25718  12.506  25.244  13.566  0.2034  0.0343 -0.0569
 2192DOPE   C1B25719  13.305  25.105  14.696 -0.0040 -0.1424 -0.1079
 2192DOPE   D2B25720  13.575  25.134  14.348 -0.0636 -0.1174  0.1494
 2192DOPE   C3B25721  13.564  24.792  14.085 -0.0407 -0.0996  0.0483
 2192DOPE   C4B25722  13.661  24.366  13.870 -0.5913  0.0410  0.1845
 2193POSM   NC325723  11.623  25.878  15.599 -0.1381 -0.2318  0.2157
 2193POSM   PO425724  11.859  25.598  15.685  0.2512  0.0297  0.1992
 2193POSM   AM125725  11.977  25.518  15.419  0.1587 -0.2123 -0.0545
 2193POSM   AM225726  12.229  25.643  15.304  0.2937 -0.2366 -0.2041
 2193POSM   T1A25727  12.232  25.139  15.156 -0.0048 -0.1229 -0.1680
 2193POSM   C2A25728  12.413  24.736  15.157  0.2259 -0.0216 -0.1954
 2193POSM   C3A25729  12.355  24.272  15.232  0.2157 -0.0554  0.3040
 2193POSM   C1B25730  12.326  25.804  14.988  0.1852  0.0443 -0.1027
 2193POSM   D2B25731  12.479  25.820  14.601 -0.4081  0.0722 -0.4369
 2193POSM   C3B25732  12.338  25.696  14.210  0.1358 -0.2403 -0.1647
 2193POSM   C4B25733  12.346  25.736  13.725 -0.0735  0.0215 -0.2308
 2194DOPE   NH325734  15.420  33.639  16.107  0.0577  0.4364  0.0657
 2194DOPE   PO425735  15.624  33.765  15.881 -0.0543 -0.0990  0.0192
 2194DOPE   GL125736  15.801  33.834  15.502  0.0496 -0.1413  0.1517
 2194DOPE   GL225737  15.659  34.060  15.388  0.3429 -0.0074  0.1051
 2194DOPE   C1A25738  15.935  33.570  15.157 -0.2927 -0.1670  0.1556
 2194DOPE   D2A25739  16.136  33.638  14.719 -0.1083 -0.2857 -0.1398
 2194DOPE   C3A25740  16.567  33.573  14.551 -0.3185  0.0981  0.0135
 2194DOPE   C4A25741  17.006  33.439  14.368  0.0920 -0.1465  0.3437
 2194DOPE   C1B25742  15.629  34.422  15.134  0.0299 -0.1887  0.0713
 2194DOPE   D2B25743  15.726  34.765  14.853  0.4069 -0.2289  0.2729
 2194DOPE   C3B25744  15.930  34.876  14.476 -0.0227 -0.0119  0.1632
 2194DOPE   C4B25745  16.182  35.054  14.115 -0.1296 -0.1610 -0.1209
 2195POSM   NC325746  12.640  27.901  16.177 -0.2417  0.0106 -0.1287
 2195POSM   PO425747  12.441  27.971  15.805 -0.2688  0.0539  0.2830
 2195POSM   AM125748  12.638  27.967  15.518  0.0048 -0.2394 -0.2675
 2195POSM   AM225749  12.838  28.096  15.349  0.0311  0.1312  0.0848
 2195POSM   T1A25750  12.541  27.982  15.017  0.0862 -0.1177  0.0379
 2195POSM   C2A25751  12.396  28.127  14.601  0.1113  0.0668 -0.0262
 2195POSM   C3A25752  11.962  28.134  14.351 -0.1506  0.1828 -0.0330
 2195POSM   C1B25753  12.854  28.313  15.052 -0.1233  0.0213 -0.1944
 2195POSM   D2B25754  12.915  28.450  14.624 -0.0462  0.3460 -0.1315
 2195POSM   C3B25755  12.688  28.584  14.277  0.0831 -0.0379 -0.1483
 2195POSM   C4B25756  12.807  28.791  13.885  0.1336 -0.0654 -0.2252
 2196DOPS   CNO25757  23.111  25.348  15.653  0.0047  0.0514 -0.2735
 2196DOPS   PO425758  23.336  25.361  15.352 -0.0940  0.2612  0.3432
 2196DOPS   GL125759  23.478  25.201  14.991  0.0594 -0.0439 -0.1115
 2196DOPS   GL225760  23.676  24.933  15.029  0.1009 -0.0613  0.0654
 2196DOPS   C1A25761  23.398  24.829  14.637 -0.5048 -0.3088 -0.2684
 2196DOPS   D2A25762  23.627  24.676  14.248  0.0336  0.3418  0.0609
 2196DOPS   C3A25763  24.028  24.689  14.134  0.0599  0.0831  0.3160
 2196DOPS   C4A25764  24.247  24.582  13.732 -0.0149 -0.0991 -0.3380
 2196DOPS   C1B25765  23.913  24.881  14.639  0.3806  0.0661  0.1761
 2196DOPS   D2B25766  24.290  25.033  14.395  0.2836 -0.0225 -0.0421
 2196DOPS   C3B25767  24.563  24.657  14.319 -0.0326  0.0029  0.0559
 2196DOPS   C4B25768  24.683  24.218  14.402 -0.1787  0.1089 -0.1976
 2197DOPC   NC325769  17.661  33.559  15.635 -0.2674  0.0646  0.2196
 2197DOPC   PO425770  17.337  33.507  15.485  0.0064  0.1579  0.2135
 2197DOPC   GL125771  17.339  33.113  15.250 -0.2011 -0.3149 -0.1747
 2197DOPC   GL225772  17.042  33.049  15.228  0.0603 -0.2350 -0.1286
 2197DOPC   C1A25773  17.390  32.800  14.968  0.1473 -0.1541  0.2247
 2197DOPC   D2A25774  17.260  32.676  14.524 -0.0843 -0.0990  0.0706
 2197DOPC   C3A25775  17.381  32.499  14.127 -0.3647  0.1902 -0.0221
 2197DOPC   C4A25776  17.550  32.073  14.049 -0.0012 -0.0777 -0.1390
 2197DOPC   C1B25777  16.939  33.094  14.760  0.0844  0.1028 -0.1070
 2197DOPC   D2B25778  16.556  33.089  14.534 -0.1768  0.1567 -0.1187
 2197DOPC   C3B25779  16.243  32.757  14.412 -0.0818 -0.0296  0.2529
 2197DOPC   C4B25780  16.224  32.425  14.029  0.0087  0.0805  0.0454
 2198DOPS   CNO25781  12.541  33.957  16.178 -0.0082  0.0192  0.0618
 2198DOPS   PO425782  12.497  33.647  16.306 -0.4878 -0.1218 -0.1837
 2198DOPS   GL125783  12.286  33.627  15.925  0.1850 -0.0713  0.3774
 2198DOPS   GL225784  12.001  33.526  15.976 -0.1632 -0.0029  0.0366
 2198DOPS   C1A25785  12.276  33.343  15.569 -0.4763  0.2538  0.0895
 2198DOPS   D2A25786  12.168  33.024  15.226  0.0076  0.2935 -0.2493
 2198DOPS   C3A25787  12.002  33.140  14.845  0.1427  0.1846  0.0447
 2198DOPS   C4A25788  12.100  33.142  14.422 -0.0110 -0.3580 -0.2864
 2198DOPS   C1B25789  11.734  33.715  15.701  0.0451  0.1615  0.1959
 2198DOPS   D2B25790  11.688  34.139  15.510 -0.3726 -0.0132 -0.1212
 2198DOPS   C3B25791  11.757  33.979  15.131 -0.2897 -0.2707  0.0741
 2198DOPS   C4B25792  11.954  33.915  14.740  0.1245 -0.0682 -0.1542
 2199DOPE   NH325793  21.076  32.064  15.833 -0.5386 -0.2120 -0.1775
 2199DOPE   PO425794  20.953  31.974  15.537  0.3141  0.2007 -0.0433
 2199DOPE   GL125795  21.306  32.238  15.251 -0.0920 -0.1029  0.0595
 2199DOPE   GL225796  21.294  32.002  15.061  0.0211  0.2620  0.1533
 2199DOPE   C1A25797  21.601  32.581  15.176 -0.3377 -0.3374 -0.1438
 2199DOPE   D2A25798  22.061  32.621  15.061  0.2947 -0.0398 -0.2513
 2199DOPE   C3A25799  22.218  32.478  14.627 -0.2475 -0.1624  0.0661
 2199DOPE   C4A25800  22.282  32.440  14.131 -0.2085  0.1776 -0.4343
 2199DOPE   C1B25801  20.953  31.850  14.724 -0.4369 -0.0357 -0.1141
 2199DOPE   D2B25802  20.533  32.036  14.569  0.0949 -0.0398 -0.2775
 2199DOPE   C3B25803  20.229  32.092  14.167  0.0286 -0.2091 -0.1653
 2199DOPE   C4B25804  20.183  31.924  13.759  0.1395  0.0680  0.0723
 2200DOPC   NC325805  12.318  29.569  15.989  0.1871 -0.1894  0.0135
 2200DOPC   PO425806  12.733  29.564  15.964  0.0373  0.0207 -0.0545
 2200DOPC   GL125807  13.019  29.581  15.538 -0.1435 -0.0247  0.1217
 2200DOPC   GL225808  13.286  29.746  15.655  0.0279 -0.1949 -0.0994
 2200DOPC   C1A25809  13.149  29.502  15.115  0.0121 -0.1753 -0.1022
 2200DOPC   D2A25810  13.440  29.730  14.734 -0.0331  0.2080  0.2723
 2200DOPC   C3A25811  13.853  29.475  14.712  0.0799  0.0906 -0.3146
 2200DOPC   C4A25812  14.301  29.474  14.844 -0.1283  0.1593  0.1173
 2200DOPC   C1B25813  13.599  29.642  15.343  0.0763 -0.2164 -0.3794
 2200DOPC   D2B25814  13.943  29.400  15.253 -0.4005 -0.0129 -0.0435
 2200DOPC   C3B25815  14.083  29.074  14.963 -0.0344  0.2670  0.1597
 2200DOPC   C4B25816  14.177  29.094  14.480 -0.3217  0.2224 -0.0175
 2201DOPS   CNO25817  11.200  26.356  15.791 -0.0384  0.0916  0.0431
 2201DOPS   PO425818  11.570  26.342  15.803  0.1507 -0.2515  0.0248
 2201DOPS   GL125819  11.543  26.269  15.379 -0.2044  0.5549 -0.2753
 2201DOPS   GL225820  11.246  26.241  15.355  0.1194  0.0358 -0.0362
 2201DOPS   C1A25821  11.680  26.531  14.969 -0.1990  0.1264  0.0719
 2201DOPS   D2A25822  11.686  26.848  14.606  0.0428 -0.0311 -0.3909
 2201DOPS   C3A25823  11.327  27.157  14.504  0.2706 -0.0027 -0.0357
 2201DOPS   C4A25824  11.303  27.371  14.152  0.1077 -0.3567 -0.1420
 2201DOPS   C1B25825  11.157  26.176  14.907  0.2478 -0.0059 -0.0215
 2201DOPS   D2B25826  11.059  26.396  14.532 -0.0065  0.0994 -0.1720
 2201DOPS   C3B25827  11.291  26.671  14.247  0.0355 -0.1411 -0.2975
 2201DOPS   C4B25828  11.479  26.742  13.870 -0.1302 -0.2433 -0.2340
 2202DOPC   NC325829  15.671  25.745  15.512 -0.0794 -0.1829 -0.1567
 2202DOPC   PO425830  16.029  25.599  15.633 -0.0092  0.2107  0.0859
 2202DOPC   GL125831  16.039  25.591  15.196  0.2936 -0.1648  0.0704
 2202DOPC   GL225832  15.994  25.886  15.149 -0.0527 -0.3000  0.0608
 2202DOPC   C1A25833  15.729  25.527  14.884 -0.0314 -0.0202 -0.1224
 2202DOPC   D2A25834  15.355  25.366  14.719 -0.1800  0.0930  0.0413
 2202DOPC   C3A25835  15.413  25.195  14.242  0.0405  0.0593  0.0257
 2202DOPC   C4A25836  15.575  25.324  13.872 -0.3414 -0.3020 -0.0332
 2202DOPC   C1B25837  15.807  25.989  14.754  0.0335  0.0740 -0.1182
 2202DOPC   D2B25838  15.591  26.092  14.341 -0.0425  0.0878 -0.2337
 2202DOPC   C3B25839  15.549  25.843  13.885  0.3206  0.0482 -0.0901
 2202DOPC   C4B25840  15.325  25.853  13.468 -0.1693  0.1030  0.3271
 2203DOPE   NH325841  22.977  31.962  16.372  0.0907 -0.0338  0.1406
 2203DOPE   PO425842  22.902  31.794  16.120  0.4143 -0.1285 -0.0715
 2203DOPE   GL125843  22.619  31.784  15.838  0.0563 -0.0887 -0.1590
 2203DOPE   GL225844  22.442  32.059  15.783  0.2278  0.2794  0.0523
 2203DOPE   C1A25845  22.402  31.618  15.499 -0.2382 -0.0065  0.0033
 2203DOPE   D2A25846  22.178  31.783  15.085  0.0711 -0.0817 -0.1752
 2203DOPE   C3A25847  22.200  31.494  14.703  0.1477  0.0120 -0.1322
 2203DOPE   C4A25848  22.257  31.045  14.583  0.3237  0.0398  0.0586
 2203DOPE   C1B25849  22.387  32.285  15.384  0.0695  0.0503 -0.0090
 2203DOPE   D2B25850  22.512  32.156  14.994 -0.1303  0.0428 -0.1721
 2203DOPE   C3B25851  22.416  31.968  14.552 -0.1118  0.2559  0.1838
 2203DOPE   C4B25852  22.030  31.813  14.335 -0.1357  0.1745  0.0553
 2204POSM   NC325853  18.644  31.714  15.985 -0.3839 -0.1081 -0.0886
 2204POSM   PO425854  18.953  31.928  15.927  0.2801 -0.0861  0.4558
 2204POSM   AM125855  18.874  31.969  15.612  0.1433  0.3393 -0.4874
 2204POSM   AM225856  18.698  32.184  15.552  0.1520  0.2782 -0.2178
 2204POSM   T1A25857  18.536  31.836  15.270 -0.0401  0.1621  0.1326
 2204POSM   C2A25858  18.355  31.449  15.065  0.1004  0.0760  0.0218
 2204POSM   C3A25859  18.158  31.059  15.231 -0.0684 -0.1187  0.0399
 2204POSM   C1B25860  18.659  32.416  15.305 -0.5367  0.0556 -0.1338
 2204POSM   D2B25861  18.554  32.670  14.929  0.1816  0.1570  0.0020
 2204POSM   C3B25862  18.704  32.980  14.623  0.1203 -0.3131  0.2714
 2204POSM   C4B25863  18.765  33.396  14.353 -0.3469  0.2437  0.0067
 2205DOPE   NH325864  17.036  33.192  15.747 -0.0242 -0.4350  0.2123
 2205DOPE   PO425865  16.765  33.055  15.916  0.2513 -0.3373 -0.0704
 2205DOPE   GL125866  16.800  32.769  15.746  0.0858 -0.1783  0.3080
 2205DOPE   GL225867  16.835  32.475  15.597  0.0779  0.0143 -0.1785
 2205DOPE   C1A25868  16.612  32.707  15.290 -0.1459 -0.0213  0.3307
 2205DOPE   D2A25869  16.371  32.702  14.950  0.2921 -0.2583  0.0743
 2205DOPE   C3A25870  16.351  32.327  14.630  0.1738 -0.2025 -0.0669
 2205DOPE   C4A25871  16.134  31.987  14.357 -0.1953  0.0165  0.0244
 2205DOPE   C1B25872  16.742  32.207  15.253  0.6042 -0.1250  0.1951
 2205DOPE   D2B25873  16.771  32.105  14.767 -0.1468  0.1004 -0.3566
 2205DOPE   C3B25874  16.669  31.856  14.415 -0.1734 -0.1682 -0.0549
 2205DOPE   C4B25875  16.502  31.949  14.039 -0.2008 -0.4235 -0.2210
 2206POSM   NC325876  19.149  32.548  15.465  0.1412  0.2000  0.2576
 2206POSM   PO425877  19.297  32.248  15.703  0.2685  0.1201  0.1943
 2206POSM   AM125878  19.454  32.196  15.381 -0.4021 -0.4410 -0.0026
 2206POSM   AM225879  19.697  32.144  15.278  0.2956 -0.2804  0.3005
 2206POSM   T1A25880  19.370  32.217  14.865 -0.0806 -0.2421  0.2146
 2206POSM   C2A25881  19.080  32.110  14.491  0.2003 -0.1284 -0.1854
 2206POSM   C3A25882  18.907  32.271  14.096  0.0158  0.4907  0.0652
 2206POSM   C1B25883  19.831  31.987  14.997  0.1739 -0.1191 -0.3284
 2206POSM   D2B25884  20.104  31.899  14.726 -0.4934 -0.1499  0.0385
 2206POSM   C3B25885  20.104  31.498  14.429 -0.4702  0.0411 -0.1527
 2206POSM   C4B25886  19.965  31.552  14.027 -0.2384 -0.2101  0.0624
 2207DOPC   NC325887  20.475  28.397  15.858 -0.1199 -0.0005  0.1703
 2207DOPC   PO425888  20.272  28.654  16.068  0.0981  0.2021  0.1315
 2207DOPC   GL125889  20.040  28.481  15.810  0.0643  0.3391 -0.2029
 2207DOPC   GL225890  19.902  28.215  15.875 -0.0985 -0.1764 -0.2331
 2207DOPC   C1A25891  20.244  28.333  15.373 -0.0145 -0.1616  0.0143
 2207DOPC   D2A25892  20.253  27.996  15.081 -0.0714  0.0759  0.3056
 2207DOPC   C3A25893  20.503  27.908  14.669  0.0944 -0.4038  0.0175
 2207DOPC   C4A25894  20.629  27.951  14.231 -0.0447 -0.2497 -0.1601
 2207DOPC   C1B25895  19.770  28.289  15.417  0.1112  0.0714  0.2195
 2207DOPC   D2B25896  19.910  28.328  14.964  0.0659  0.3086 -0.1049
 2207DOPC   C3B25897  20.045  28.144  14.541 -0.0569 -0.0886 -0.0249
 2207DOPC   C4B25898  20.141  28.051  14.091 -0.0693 -0.1757 -0.0582
 2208DOPE   NH325899  18.552  33.452  16.240  0.1329 -0.1431 -0.0653
 2208DOPE   PO425900  18.678  33.546  15.930 -0.2590 -0.4399 -0.1897
 2208DOPE   GL125901  18.785  33.641  15.511  0.2970  0.1902  0.1393
 2208DOPE   GL225902  18.688  33.389  15.442 -0.0123  0.1649  0.0543
 2208DOPE   C1A25903  18.437  33.897  15.281 -0.0135  0.0238  0.2237
 2208DOPE   D2A25904  18.054  33.907  14.982  0.0581  0.3317  0.0211
 2208DOPE   C3A25905  18.016  34.130  14.641 -0.1788 -0.0269 -0.2916
 2208DOPE   C4A25906  17.853  33.958  14.231 -0.0782  0.1664 -0.1909
 2208DOPE   C1B25907  18.805  33.600  15.013 -0.0816  0.5357 -0.0566
 2208DOPE   D2B25908  18.718  33.992  14.784 -0.1387 -0.2287  0.0391
 2208DOPE   C3B25909  18.731  33.941  14.315 -0.1432 -0.2371 -0.2084
 2208DOPE   C4B25910  18.713  34.244  13.921 -0.0144  0.1594  0.0866
 2209POSM   NC325911  18.609  23.979  15.979  0.0794  0.0144 -0.0278
 2209POSM   PO425912  18.646  24.296  15.801 -0.0743  0.1800  0.0710
 2209POSM   AM125913  18.759  24.251  15.502  0.4209 -0.0631  0.2535
 2209POSM   AM225914  18.753  24.370  15.238 -0.4216 -0.0629 -0.0289
 2209POSM   T1A25915  19.036  23.902  15.217  0.2553 -0.0383  0.0473
 2209POSM   C2A25916  19.154  23.479  15.163  0.0383  0.0512 -0.0254
 2209POSM   C3A25917  19.121  23.004  15.247 -0.0998 -0.2108  0.2409
 2209POSM   C1B25918  19.009  24.331  14.968 -0.1392 -0.0631  0.1511
 2209POSM   D2B25919  19.145  24.526  14.584  0.1875  0.1172 -0.2976
 2209POSM   C3B25920  19.227  24.483  14.104  0.3986 -0.3472 -0.0618
 2209POSM   C4B25921  19.322  24.201  13.696 -0.4802  0.1457  0.1180
 2210DOPE   NH325922  21.332  33.140  15.803  0.4448  0.0276  0.1412
 2210DOPE   PO425923  21.169  33.377  15.699 -0.3539 -0.0014 -0.2453
 2210DOPE   GL125924  21.148  33.192  15.359  0.0295  0.2385 -0.0389
 2210DOPE   GL225925  21.345  33.109  15.315  0.1726  0.3003  0.0038
 2210DOPE   C1A25926  20.877  33.276  15.004  0.3077 -0.2845  0.0680
 2210DOPE   D2A25927  20.511  33.072  14.842 -0.0967  0.0587  0.1380
 2210DOPE   C3A25928  20.446  33.035  14.394  0.0368  0.2081  0.0176
 2210DOPE   C4A25929  20.075  33.145  14.164 -0.2136  0.1103 -0.1311
 2210DOPE   C1B25930  21.290  32.997  14.855 -0.1112  0.0565  0.0989
 2210DOPE   D2B25931  21.323  32.903  14.381 -0.1092 -0.1821 -0.1116
 2210DOPE   C3B25932  21.640  32.793  14.087 -0.2057  0.2306  0.2455
 2210DOPE   C4B25933  21.703  32.585  13.700  0.2819 -0.0790  0.0687
 2211DOPE   NH325934  12.932  27.109  16.005 -0.2110  0.2024  0.0784
 2211DOPE   PO425935  12.708  27.094  15.753 -0.0683  0.3314  0.0175
 2211DOPE   GL125936  12.765  27.109  15.395  0.1326 -0.1996  0.1520
 2211DOPE   GL225937  12.521  27.008  15.247 -0.2899 -0.2028  0.2176
 2211DOPE   C1A25938  12.583  27.449  15.133  0.2415  0.0026  0.2011
 2211DOPE   D2A25939  12.549  27.577  14.724  0.0756 -0.3886 -0.0860
 2211DOPE   C3A25940  12.233  27.694  14.468 -0.1440  0.2091 -0.2007
 2211DOPE   C4A25941  12.108  27.756  14.031  0.1264  0.1903 -0.2663
 2211DOPE   C1B25942  12.649  26.598  15.126 -0.2935  0.3557  0.2140
 2211DOPE   D2B25943  13.023  26.544  14.907  0.2711  0.1227 -0.1568
 2211DOPE   C3B25944  13.303  26.733  14.584 -0.1207 -0.2405  0.1016
 2211DOPE   C4B25945  13.587  27.010  14.331  0.2117 -0.2894 -0.1041
 2212DOPE   NH325946  20.244  29.844  16.424  0.2366  0.2388  0.1841
 2212DOPE   PO425947  20.515  30.028  16.441 -0.0716  0.0155  0.2599
 2212DOPE   GL125948  20.672  30.045  16.061 -0.0230 -0.1569 -0.1978
 2212DOPE   GL225949  20.478  29.841  15.952 -0.2492  0.0919  0.1144
 2212DOPE   C1A25950  20.665  30.212  15.616 -0.0138  0.2031 -0.0200
 2212DOPE   D2A25951  20.349  30.486  15.446  0.1064  0.3909 -0.2851
 2212DOPE   C3A25952  20.457  30.743  15.161  0.3113  0.3874  0.3379
 2212DOPE   C4A25953  20.549  30.666  14.736 -0.0116  0.1397  0.4208
 2212DOPE   C1B25954  20.451  29.824  15.434  0.0422 -0.0733 -0.2079
 2212DOPE   D2B25955  20.420  29.938  14.953  0.0353  0.0248  0.1522
 2212DOPE   C3B25956  20.190  30.291  14.859 -0.0714 -0.1079  0.2196
 2212DOPE   C4B25957  19.915  30.588  15.076  0.3410  0.0552  0.4215
 2213DOPE   NH325958  13.125  24.945  16.056  0.1093 -0.0750  0.1876
 2213DOPE   PO425959  13.145  24.869  15.732 -0.0723 -0.4398  0.2855
 2213DOPE   GL125960  13.137  24.703  15.444 -0.0919 -0.1688  0.3250
 2213DOPE   GL225961  13.270  24.767  15.199 -0.1885 -0.0041  0.1553
 2213DOPE   C1A25962  13.063  24.290  15.335 -0.0347 -0.1057 -0.0389
 2213DOPE   D2A25963  13.026  23.831  15.303  0.0820  0.0738 -0.0693
 2213DOPE   C3A25964  12.733  23.431  15.315  0.0593 -0.2868 -0.1916
 2213DOPE   C4A25965  12.437  23.155  15.132  0.4821  0.0707  0.1886
 2213DOPE   C1B25966  12.862  24.644  14.983 -0.0514  0.2866 -0.1828
 2213DOPE   D2B25967  12.495  24.387  14.776  0.1006 -0.0100 -0.1390
 2213DOPE   C3B25968  12.506  24.059  14.487  0.0520 -0.0896 -0.2104
 2213DOPE   C4B25969  12.555  23.743  14.226  0.1824  0.2133  0.1373
 2214POSM   NC325970  21.612  25.243  15.204  0.0847 -0.2284 -0.0881
 2214POSM   PO425971  21.585  25.503  15.472 -0.1862 -0.1518  0.2471
 2214POSM   AM125972  21.466  25.681  15.268 -0.0019  0.0323  0.0103
 2214POSM   AM225973  21.195  25.793  15.293 -0.1393  0.0932 -0.0199
 2214POSM   T1A25974  21.404  26.012  14.873 -0.3096  0.0920  0.1320
 2214POSM   C2A25975  21.194  26.339  14.622 -0.0745 -0.0011  0.0810
 2214POSM   C3A25976  20.915  26.489  14.279  0.0822  0.2016  0.1073
 2214POSM   C1B25977  20.953  25.991  15.137  0.0134 -0.2855  0.1727
 2214POSM   D2B25978  20.582  26.245  15.075  0.2450 -0.1482  0.0851
 2214POSM   C3B25979  20.582  26.444  14.689  0.1924  0.1745 -0.1828
 2214POSM   C4B25980  20.430  26.577  14.327  0.0096  0.1185  0.0662
 2215DOPE   NH325981  20.820  31.715  16.074  0.1924  0.0869 -0.0030
 2215DOPE   PO425982  20.955  31.554  15.871 -0.2518  0.0525 -0.0113
 2215DOPE   GL125983  20.926  31.445  15.520  0.1593 -0.1763  0.0301
 2215DOPE   GL225984  21.088  31.552  15.270  0.3502  0.1461 -0.0919
 2215DOPE   C1A25985  20.988  30.994  15.407 -0.2420  0.1341 -0.1504
 2215DOPE   D2A25986  20.914  30.669  15.081  0.0080  0.1310  0.0747
 2215DOPE   C3A25987  20.808  30.282  14.829  0.0268  0.0330 -0.1034
 2215DOPE   C4A25988  20.527  30.166  14.447 -0.3668  0.2340  0.2560
 2215DOPE   C1B25989  21.398  31.526  14.929 -0.0210  0.5089 -0.2955
 2215DOPE   D2B25990  21.702  31.402  14.523 -0.3922 -0.0679 -0.1773
 2215DOPE   C3B25991  21.471  31.215  14.114  0.3161 -0.3545  0.0969
 2215DOPE   C4B25992  21.609  31.465  13.693  0.1698  0.0736  0.2623
 2216DOPE   NH325993  20.742  33.908  16.227  0.1708  0.0981  0.0800
 2216DOPE   PO425994  21.035  33.936  16.107 -0.1569 -0.2162  0.0202
 2216DOPE   GL125995  20.915  33.905  15.737 -0.0318  0.0358 -0.0297
 2216DOPE   GL225996  21.137  33.905  15.621  0.1344  0.3359 -0.0695
 2216DOPE   C1A25997  20.861  34.202  15.343 -0.2167  0.3283 -0.2731
 2216DOPE   D2A25998  20.799  34.121  14.798 -0.1710 -0.0875 -0.0953
 2216DOPE   C3A25999  21.015  34.173  14.426 -0.1959 -0.2997 -0.4443
 2216DOPE   C4A26000  21.345  34.097  14.070  0.1775  0.0681  0.1434
 2216DOPE   C1B26001  21.449  34.074  15.325  0.4825 -0.2324 -0.0163
 2216DOPE   D2B26002  21.903  33.899  15.329 -0.1168 -0.0452 -0.0553
 2216DOPE   C3B26003  22.115  34.061  14.978  0.1483  0.0054 -0.1048
 2216DOPE   C4B26004  22.427  34.232  14.757 -0.2739 -0.1435  0.0251
 2217POSM   NC326005  19.675  27.350  15.894 -0.2947 -0.0711 -0.2815
 2217POSM   PO426006  20.023  27.448  16.016 -0.3109 -0.1837  0.1269
 2217POSM   AM126007  20.171  27.408  15.719  0.1993 -0.0848  0.0812
 2217POSM   AM226008  20.039  27.408  15.448  0.2098 -0.0256 -0.0790
 2217POSM   T1A26009  20.465  27.545  15.301 -0.2508 -0.1236 -0.1448
 2217POSM   C2A26010  20.514  27.466  14.810  0.0778  0.2288 -0.3580
 2217POSM   C3A26011  20.652  27.449  14.371  0.1946  0.1871  0.1056
 2217POSM   C1B26012  20.061  27.411  15.084 -0.1612  0.1515  0.2198
 2217POSM   D2B26013  20.048  27.680  14.694 -0.3665 -0.4250 -0.0948
 2217POSM   C3B26014  20.088  27.577  14.218  0.1844 -0.0896 -0.2361
 2217POSM   C4B26015  20.426  27.514  13.960 -0.1571 -0.1796 -0.0463
 2218DOPC   NC326016  14.262  31.104  16.220  0.1186 -0.0220  0.0742
 2218DOPC   PO426017  14.591  31.276  16.231 -0.1310  0.0134 -0.2023
 2218DOPC   GL126018  14.633  30.969  15.949 -0.1274 -0.3506 -0.2781
 2218DOPC   GL226019  14.653  31.116  15.687 -0.1835 -0.1411  0.3071
 2218DOPC   C1A26020  14.358  30.724  15.660  0.0783 -0.0426 -0.0923
 2218DOPC   D2A26021  14.250  30.463  15.297  0.0905  0.2806  0.0726
 2218DOPC   C3A26022  14.276  30.744  14.985  0.0629  0.1441 -0.1281
 2218DOPC   C4A26023  14.415  31.136  14.828  0.0777 -0.0111 -0.1628
 2218DOPC   C1B26024  14.627  30.961  15.291  0.2540 -0.1290 -0.2148
 2218DOPC   D2B26025  14.795  30.784  14.908 -0.2211  0.0386 -0.1620
 2218DOPC   C3B26026  14.712  30.960  14.479 -0.0320 -0.1123  0.1830
 2218DOPC   C4B26027  14.330  30.932  14.173 -0.2677 -0.1086  0.0646
 2219DOPE   NH326028  13.219  25.579  15.459  0.1637  0.0742  0.3642
 2219DOPE   PO426029  13.503  25.735  15.539 -0.1597 -0.0246 -0.2689
 2219DOPE   GL126030  13.644  25.617  15.273  0.0188 -0.0512  0.2481
 2219DOPE   GL226031  13.777  25.866  15.054  0.1303 -0.0142 -0.2559
 2219DOPE   C1A26032  13.458  25.550  14.854 -0.1328 -0.0376  0.2253
 2219DOPE   D2A26033  13.314  25.658  14.424 -0.2840 -0.0512  0.2200
 2219DOPE   C3A26034  13.511  25.576  13.993 -0.0122 -0.0933  0.1322
 2219DOPE   C4A26035  13.517  25.692  13.611  0.2005 -0.0594  0.1677
 2219DOPE   C1B26036  13.874  26.166  14.766 -0.0756  0.0604 -0.2854
 2219DOPE   D2B26037  14.094  26.145  14.392 -0.0788  0.1993  0.1140
 2219DOPE   C3B26038  14.269  26.294  13.974  0.0902 -0.0062  0.0304
 2219DOPE   C4B26039  14.151  26.459  13.486 -0.2113  0.0628  0.1474
 2220DOPC   NC326040  22.917  28.595  16.135 -0.2926  0.2427  0.0035
 2220DOPC   PO426041  22.618  28.421  15.965  0.2590  0.0722 -0.1239
 2220DOPC   GL126042  22.565  28.351  15.495  0.2480 -0.0185 -0.1482
 2220DOPC   GL226043  22.773  28.560  15.395 -0.3641  0.1074 -0.0938
 2220DOPC   C1A26044  22.316  28.695  15.274 -0.1933 -0.0160  0.1180
 2220DOPC   D2A26045  22.272  29.166  15.328  0.4992 -0.0593 -0.1074
 2220DOPC   C3A26046  22.259  29.420  14.944  0.1189 -0.1877  0.3208
 2220DOPC   C4A26047  22.314  29.847  14.813  0.0722  0.3027 -0.0532
 2220DOPC   C1B26048  22.987  28.538  14.980  0.2449 -0.1392  0.1086
 2220DOPC   D2B26049  22.947  28.680  14.559  0.0414 -0.3035 -0.2132
 2220DOPC   C3B26050  22.806  28.269  14.398 -0.0206  0.0480  0.1179
 2220DOPC   C4B26051  22.393  28.111  14.410  0.2065  0.4122 -0.2631
 2221POSM   NC326052  13.089  22.684  15.752 -0.3528 -0.1817  0.0857
 2221POSM   PO426053  13.101  22.973  15.458 -0.1200 -0.0325 -0.0859
 2221POSM   AM126054  13.036  23.035  15.123  0.1413  0.1591  0.3577
 2221POSM   AM226055  13.158  23.033  14.863  0.1694  0.3609 -0.2893
 2221POSM   T1A26056  12.750  23.264  14.789  0.3445  0.2301  0.0171
 2221POSM   C2A26057  12.436  23.608  14.685  0.0988  0.0670  0.0012
 2221POSM   C3A26058  11.995  23.479  14.754  0.2900 -0.1537  0.1433
 2221POSM   C1B26059  13.220  23.119  14.534 -0.2437  0.0891  0.0952
 2221POSM   D2B26060  13.459  23.169  14.132 -0.0852 -0.1785 -0.0706
 2221POSM   C3B26061  13.354  23.516  13.870 -0.2321  0.0237 -0.2322
 2221POSM   C4B26062  13.335  23.965  13.655 -0.0487 -0.0240  0.1012
 2222DOPE   NH326063  20.139  26.456  16.086  0.0824 -0.0320 -0.1194
 2222DOPE   PO426064  20.181  26.200  15.900  0.0350 -0.1142 -0.1218
 2222DOPE   GL126065  20.204  26.310  15.471 -0.0986  0.0922  0.0094
 2222DOPE   GL226066  20.284  26.598  15.542  0.0875 -0.2891 -0.0103
 2222DOPE   C1A26067  20.092  25.977  15.200  0.1905 -0.2658  0.2350
 2222DOPE   D2A26068  19.783  25.786  14.938  0.4971 -0.1331  0.0368
 2222DOPE   C3A26069  19.544  26.092  14.771  0.2355 -0.2155 -0.0564
 2222DOPE   C4A26070  19.560  26.342  14.402 -0.1058 -0.0540  0.1781
 2222DOPE   C1B26071  20.312  26.836  15.078  0.1307  0.1491 -0.4079
 2222DOPE   D2B26072  20.431  27.017  14.704  0.2476 -0.1713  0.0223
 2222DOPE   C3B26073  20.228  27.072  14.292 -0.0403 -0.0207 -0.1180
 2222DOPE   C4B26074  19.850  26.926  14.023  0.0627  0.2909  0.3013
 2223DOPE   NH326075  21.982  27.136  15.851  0.0104  0.1383  0.1037
 2223DOPE   PO426076  21.807  26.957  15.665  0.1514  0.2188  0.2185
 2223DOPE   GL126077  21.657  27.088  15.451 -0.2288 -0.2600 -0.3739
 2223DOPE   GL226078  21.377  27.044  15.263  0.0585 -0.1883 -0.0672
 2223DOPE   C1A26079  21.788  27.107  15.019 -0.0735 -0.3028 -0.0349
 2223DOPE   D2A26080  22.166  27.362  14.828  0.1142  0.0549 -0.1592
 2223DOPE   C3A26081  22.420  27.214  14.463 -0.3954 -0.0924 -0.1620
 2223DOPE   C4A26082  22.678  26.967  14.223  0.0481  0.4610 -0.0191
 2223DOPE   C1B26083  21.331  26.915  14.846 -0.1962  0.0351 -0.1199
 2223DOPE   D2B26084  21.378  26.762  14.400  0.3036  0.1264 -0.2304
 2223DOPE   C3B26085  21.379  26.456  14.035  0.3028 -0.2954  0.3140
 2223DOPE   C4B26086  21.555  26.541  13.618 -0.1689 -0.4602 -0.1588
 2224POSM   NC326087  15.964  24.368  15.354 -0.0394 -0.1368  0.0320
 2224POSM   PO426088  16.020  24.680  15.169  0.0401 -0.1836 -0.5357
 2224POSM   AM126089  15.973  24.601  14.880 -0.0218  0.0176 -0.3056
 2224POSM   AM226090  15.996  24.330  14.746  0.0383  0.1607  0.1086
 2224POSM   T1A26091  15.759  24.591  14.420  0.0929 -0.0318 -0.2329
 2224POSM   C2A26092  15.621  24.794  14.005 -0.0354 -0.2288 -0.0577
 2224POSM   C3A26093  15.290  24.922  13.723  0.2080 -0.0278  0.0687
 2224POSM   C1B26094  15.935  24.111  14.493 -0.3573  0.0611 -0.0757
 2224POSM   D2B26095  15.647  23.824  14.208  0.0341  0.0652 -0.1804
 2224POSM   C3B26096  15.321  23.872  13.898 -0.1243 -0.0225  0.1988
 2224POSM   C4B26097  15.319  24.080  13.525 -0.0003 -0.2679 -0.3750
 2225DOPS   CNO26098  19.714  25.629  15.622 -0.1228 -0.0430 -0.0206
 2225DOPS   PO426099  19.570  25.336  15.439  0.2155 -0.0941  0.1637
 2225DOPS   GL126100  19.681  25.184  15.148  0.1827  0.2689 -0.1555
 2225DOPS   GL226101  19.614  25.327  14.966  0.2549  0.0999 -0.0911
 2225DOPS   C1A26102  20.023  25.005  14.870 -0.1435  0.1298 -0.3041
 2225DOPS   D2A26103  20.310  24.911  14.586 -0.3184  0.0558  0.2363
 2225DOPS   C3A26104  20.195  25.108  14.188  0.4692  0.2307  0.0016
 2225DOPS   C4A26105  19.982  25.459  13.990 -0.0760 -0.1609 -0.0085
 2225DOPS   C1B26106  19.230  25.658  14.894 -0.1911  0.1786 -0.3098
 2225DOPS   D2B26107  18.948  25.951  14.653 -0.0116  0.2664 -0.0651
 2225DOPS   C3B26108  19.064  26.320  14.386 -0.0026 -0.2913 -0.1605
 2225DOPS   C4B26109  18.987  26.708  14.228  0.3971 -0.0388 -0.1474
 2226DOPC   NC326110  15.420  34.270  15.749 -0.0987  0.3390 -0.0022
 2226DOPC   PO426111  15.139  33.956  15.849  0.2641 -0.0937 -0.3039
 2226DOPC   GL126112  15.253  33.848  15.476  0.0386  0.1477  0.1351
 2226DOPC   GL226113  14.990  33.581  15.558  0.1475  0.0179  0.2755
 2226DOPC   C1A26114  15.324  33.622  15.096 -0.0984 -0.0088  0.1689
 2226DOPC   D2A26115  15.625  33.667  14.764  0.2009 -0.2666  0.0854
 2226DOPC   C3A26116  15.650  33.930  14.432  0.0249 -0.0926 -0.1404
 2226DOPC   C4A26117  15.585  34.426  14.531 -0.2486  0.1771 -0.0170
 2226DOPC   C1B26118  14.776  33.681  15.271 -0.0930 -0.1180 -0.3603
 2226DOPC   D2B26119  14.824  33.976  14.911 -0.0562 -0.1755  0.3194
 2226DOPC   C3B26120  14.753  34.429  14.807  0.1731  0.0440  0.1598
 2226DOPC   C4B26121  14.904  34.765  14.599 -0.1130  0.2417  0.0983
 2227POSM   NC326122  17.420  29.128  16.652 -0.2860 -0.0402 -0.1822
 2227POSM   PO426123  17.260  29.264  16.318 -0.1620 -0.1791  0.1417
 2227POSM   AM126124  17.242  29.225  15.963 -0.3995 -0.0025  0.0767
 2227POSM   AM226125  17.105  29.359  15.767 -0.3234 -0.0994  0.1284
 2227POSM   T1A26126  17.463  29.075  15.540 -0.2368  0.1089  0.2127
 2227POSM   C2A26127  17.548  28.947  15.114  0.2433  0.1191  0.0892
 2227POSM   C3A26128  17.612  28.956  14.634  0.0307  0.3147 -0.0033
 2227POSM   C1B26129  16.971  29.174  15.530  0.2405  0.2568  0.2224
 2227POSM   D2B26130  16.982  28.943  15.146  0.0292  0.0255  0.0446
 2227POSM   C3B26131  17.159  29.108  14.784  0.0739  0.1050  0.2799
 2227POSM   C4B26132  17.198  29.155  14.338 -0.1111  0.0389 -0.2684
 2228DOPE   NH326133  19.015  24.969  15.622 -0.0374  0.2479 -0.1164
 2228DOPE   PO426134  18.785  24.726  15.579 -0.1997 -0.1103 -0.0276
 2228DOPE   GL126135  18.645  24.889  15.274  0.4671 -0.1259 -0.1066
 2228DOPE   GL226136  18.457  25.105  15.297 -0.1339  0.0558 -0.3124
 2228DOPE   C1A26137  18.724  24.753  14.817  0.1652 -0.2018 -0.1700
 2228DOPE   D2A26138  18.832  24.856  14.340  0.0442 -0.4493 -0.0723
 2228DOPE   C3A26139  19.083  25.193  14.174  0.0456 -0.0431  0.1644
 2228DOPE   C4A26140  19.166  25.651  14.274  0.1080  0.1209  0.0730
 2228DOPE   C1B26141  18.393  25.282  14.863  0.3002  0.2797 -0.3977
 2228DOPE   D2B26142  18.140  25.023  14.517 -0.1783 -0.2852  0.1546
 2228DOPE   C3B26143  18.093  25.120  14.035 -0.1998  0.0482 -0.0953
 2228DOPE   C4B26144  17.723  25.269  13.719  0.2770  0.1194 -0.2105
 2229DOPS   CNO26145  16.981  23.506  15.654  0.0929  0.0814 -0.0080
 2229DOPS   PO426146  17.353  23.364  15.643 -0.1512  0.2026  0.0805
 2229DOPS   GL126147  17.347  23.203  15.280  0.3196  0.0445 -0.2596
 2229DOPS   GL226148  17.635  23.327  15.223  0.1513 -0.2119  0.0394
 2229DOPS   C1A26149  17.261  23.197  14.877 -0.1332 -0.0558  0.3066
 2229DOPS   D2A26150  17.409  23.400  14.506  0.2053  0.1011  0.1055
 2229DOPS   C3A26151  17.312  23.480  14.088  0.3657 -0.2462  0.1438
 2229DOPS   C4A26152  17.039  23.635  13.660 -0.1100 -0.2772  0.0955
 2229DOPS   C1B26153  17.540  23.742  14.986  0.0118 -0.2150 -0.0007
 2229DOPS   D2B26154  17.274  23.964  14.689  0.1164  0.1133  0.0976
 2229DOPS   C3B26155  17.274  24.276  14.390  0.3299  0.0684  0.2635
 2229DOPS   C4B26156  17.245  24.636  14.108 -0.0244 -0.1016 -0.2295
 2230DOPS   CNO26157  18.134  33.610  16.005  0.1698  0.1613  0.3100
 2230DOPS   PO426158  17.916  33.351  15.988 -0.0604 -0.1379 -0.0301
 2230DOPS   GL126159  18.075  33.353  15.629  0.0095  0.3305 -0.1184
 2230DOPS   GL226160  18.258  33.150  15.523  0.1102  0.2878 -0.0448
 2230DOPS   C1A26161  17.784  33.160  15.272  0.1719 -0.1052  0.0083
 2230DOPS   D2A26162  17.707  33.221  14.836  0.0095 -0.1181 -0.2132
 2230DOPS   C3A26163  17.706  33.100  14.440  0.4385  0.1330  0.0055
 2230DOPS   C4A26164  17.476  32.986  14.043 -0.2100  0.2486 -0.3693
 2230DOPS   C1B26165  18.136  32.803  15.253 -0.1121  0.1892 -0.2789
 2230DOPS   D2B26166  17.991  32.814  14.794 -0.4439 -0.0254  0.0783
 2230DOPS   C3B26167  18.320  32.648  14.490 -0.0025 -0.0474  0.0764
 2230DOPS   C4B26168  18.734  32.520  14.462  0.1945 -0.2458  0.3392
 2231DOPE   NH326169  22.274  23.866  15.594  0.1237  0.3441  0.0358
 2231DOPE   PO426170  22.467  23.853  15.856  0.0057 -0.0530  0.2694
 2231DOPE   GL126171  22.636  23.473  15.666 -0.0134 -0.3056 -0.1255
 2231DOPE   GL226172  22.480  23.347  15.433 -0.1892  0.0577  0.2482
 2231DOPE   C1A26173  23.043  23.515  15.444 -0.0568 -0.0870  0.1253
 2231DOPE   D2A26174  23.195  23.935  15.298 -0.2811  0.1869  0.2837
 2231DOPE   C3A26175  23.274  23.783  14.908  0.1390 -0.0905 -0.0601
 2231DOPE   C4A26176  23.289  23.325  14.765 -0.1589 -0.2977  0.0209
 2231DOPE   C1B26177  22.653  22.895  15.374  0.0550 -0.1367  0.1560
 2231DOPE   D2B26178  22.838  22.662  15.027 -0.1204 -0.1301 -0.0856
 2231DOPE   C3B26179  23.286  22.811  14.935  0.0553  0.1007 -0.1528
 2231DOPE   C4B26180  23.637  22.953  14.641  0.4862 -0.0837  0.0088
 2232DOPC   NC326181  18.365  26.115  15.836 -0.0432  0.2543 -0.0731
 2232DOPC   PO426182  18.237  25.731  15.789  0.0239  0.1911 -0.0228
 2232DOPC   GL126183  18.297  25.812  15.392 -0.1375 -0.0914 -0.0924
 2232DOPC   GL226184  18.252  25.528  15.311  0.0459 -0.0035  0.1766
 2232DOPC   C1A26185  18.274  25.954  14.996 -0.2855 -0.0032  0.1841
 2232DOPC   D2A26186  18.323  25.703  14.581  0.0231 -0.0530 -0.0224
 2232DOPC   C3A26187  18.186  25.718  14.172 -0.3554 -0.0559  0.3060
 2232DOPC   C4A26188  18.265  25.737  13.736 -0.1160 -0.2993  0.1801
 2232DOPC   C1B26189  17.983  25.240  15.098  0.2715  0.1082  0.1104
 2232DOPC   D2B26190  17.610  25.042  14.938 -0.0939  0.1649 -0.0240
 2232DOPC   C3B26191  17.383  25.247  14.636  0.1269 -0.1039  0.0553
 2232DOPC   C4B26192  16.996  25.465  14.422  0.1275  0.2821  0.2471
 2233DOPS   CNO26193  23.146  29.510  16.154 -0.0565  0.1400 -0.2944
 2233DOPS   PO426194  22.896  29.242  16.016 -0.1016 -0.3450  0.3530
 2233DOPS   GL126195  22.700  29.386  15.698  0.1634  0.0874  0.0008
 2233DOPS   GL226196  22.438  29.396  15.770 -0.3076  0.0822  0.0035
 2233DOPS   C1A26197  22.796  29.104  15.318 -0.1414  0.1498 -0.2503
 2233DOPS   D2A26198  22.646  28.942  14.937 -0.0945  0.1067 -0.0411
 2233DOPS   C3A26199  22.632  29.112  14.524 -0.2342 -0.0528 -0.1102
 2233DOPS   C4A26200  22.618  28.935  14.130  0.2095 -0.0715  0.2573
 2233DOPS   C1B26201  22.466  29.684  15.387 -0.3584 -0.1254 -0.2289
 2233DOPS   D2B26202  22.710  29.948  15.125 -0.1286  0.0926  0.1551
 2233DOPS   C3B26203  22.825  29.869  14.659  0.2569 -0.0079  0.0831
 2233DOPS   C4B26204  23.132  30.067  14.328 -0.0914  0.1657 -0.0245
 2234DOPE   NH326205  15.181  33.215  15.854  0.0130 -0.1098  0.3887
 2234DOPE   PO426206  15.472  33.214  15.822 -0.3072  0.2041 -0.1601
 2234DOPE   GL126207  15.461  33.252  15.450 -0.2131 -0.0227  0.4131
 2234DOPE   GL226208  15.230  33.159  15.336 -0.1299  0.0618 -0.1143
 2234DOPE   C1A26209  15.700  33.060  15.099  0.0543  0.3065  0.1902
 2234DOPE   D2A26210  15.872  32.871  14.684  0.0141  0.0819 -0.0789
 2234DOPE   C3A26211  15.853  32.433  14.509  0.2339 -0.0522 -0.1966
 2234DOPE   C4A26212  15.765  32.209  14.098 -0.0335  0.3235  0.0705
 2234DOPE   C1B26213  15.154  32.682  15.200 -0.2878 -0.0823 -0.1042
 2234DOPE   D2B26214  15.155  32.200  15.233 -0.0737  0.0385  0.1909
 2234DOPE   C3B26215  14.750  31.996  15.117 -0.0213  0.0624  0.1338
 2234DOPE   C4B26216  14.319  32.117  15.218 -0.1600  0.0466 -0.1979
 2235DOPE   NH326217  20.539  31.615  15.573  0.0045  0.1944  0.0724
 2235DOPE   PO426218  20.495  31.379  15.810 -0.0260  0.0960  0.0911
 2235DOPE   GL126219  20.537  31.176  15.376  0.0130 -0.2153  0.0245
 2235DOPE   GL226220  20.296  31.175  15.176 -0.3243 -0.1920 -0.3502
 2235DOPE   C1A26221  20.832  31.238  15.011  0.0962 -0.0303 -0.0022
 2235DOPE   D2A26222  20.881  31.059  14.563 -0.2596  0.2145 -0.3138
 2235DOPE   C3A26223  21.194  30.843  14.301 -0.0541 -0.1156  0.1379
 2235DOPE   C4A26224  21.507  30.629  14.017  0.0567  0.1236  0.4495
 2235DOPE   C1B26225  20.179  31.144  14.738 -0.2063  0.2625 -0.0077
 2235DOPE   D2B26226  20.430  31.127  14.268 -0.3892  0.0631  0.0486
 2235DOPE   C3B26227  20.220  31.131  13.900 -0.4015  0.0224  0.1820
 2235DOPE   C4B26228  19.895  31.299  13.639 -0.1189 -0.0018 -0.2165
 2236DOPE   NH326229  18.753  27.651  15.929  0.1539  0.0858 -0.1796
 2236DOPE   PO426230  18.680  27.927  16.029 -0.0530  0.0538 -0.0121
 2236DOPE   GL126231  18.860  28.098  15.774  0.0515 -0.2768 -0.0992
 2236DOPE   GL226232  18.705  28.191  15.563 -0.1021  0.0918  0.0596
 2236DOPE   C1A26233  19.053  27.886  15.391 -0.1171 -0.1258 -0.3845
 2236DOPE   D2A26234  19.273  27.982  15.043 -0.2362  0.0613 -0.0112
 2236DOPE   C3A26235  19.015  28.102  14.619  0.2725  0.3150  0.0713
 2236DOPE   C4A26236  18.739  27.913  14.308 -0.0249  0.2981 -0.0707
 2236DOPE   C1B26237  18.800  28.179  15.073 -0.0303  0.0120  0.1563
 2236DOPE   D2B26238  18.920  28.614  14.932 -0.0049 -0.2597 -0.0148
 2236DOPE   C3B26239  19.128  28.692  14.533  0.2123 -0.2138  0.2698
 2236DOPE   C4B26240  19.569  28.892  14.370  0.0681  0.1749  0.4122
 2237DOPC   NC326241  22.225  33.403  15.946 -0.1156 -0.0034  0.0053
 2237DOPC   PO426242  22.153  33.772  15.773 -0.1197 -0.0800 -0.0494
 2237DOPC   GL126243  22.412  33.670  15.439 -0.2864  0.0810 -0.0359
 2237DOPC   GL226244  22.213  33.476  15.358  0.4001 -0.1968  0.0138
 2237DOPC   C1A26245  22.859  33.722  15.342  0.1064  0.0614  0.2568
 2237DOPC   D2A26246  23.281  33.695  15.103  0.0051  0.1656  0.0818
 2237DOPC   C3A26247  23.541  34.008  14.979  0.1552 -0.3367  0.3867
 2237DOPC   C4A26248  23.646  34.311  14.637  0.2834 -0.0349 -0.1300
 2237DOPC   C1B26249  22.383  33.593  14.913  0.0140  0.0528  0.0689
 2237DOPC   D2B26250  22.830  33.432  14.913 -0.0063 -0.2343 -0.2362
 2237DOPC   C3B26251  23.133  33.589  14.654  0.0641  0.0004  0.0590
 2237DOPC   C4B26252  23.474  33.408  14.409 -0.2129  0.0947  0.3368
 2238POSM   NC326253  13.919  30.398  15.940 -0.0290  0.0909 -0.0211
 2238POSM   PO426254  13.737  30.178  16.175 -0.1696 -0.1119 -0.1954
 2238POSM   AM126255  13.816  29.902  16.040  0.0557  0.1699  0.1428
 2238POSM   AM226256  13.678  29.654  15.983  0.3285  0.2327 -0.0310
 2238POSM   T1A26257  14.046  29.810  15.618 -0.0498  0.1298  0.1245
 2238POSM   C2A26258  14.370  29.516  15.572  0.4575 -0.0267 -0.0028
 2238POSM   C3A26259  14.465  29.167  15.238  0.4653  0.0812  0.2834
 2238POSM   C1B26260  13.716  29.389  15.773  0.0128  0.0303  0.0654
 2238POSM   D2B26261  13.424  29.181  15.457 -0.1221  0.0575  0.3432
 2238POSM   C3B26262  13.604  29.008  15.093  0.2552  0.1645 -0.3115
 2238POSM   C4B26263  13.707  28.923  14.639 -0.2596 -0.0913  0.2337
 2239POSM   NC326264  11.772  32.257  16.286  0.0191  0.0353  0.2242
 2239POSM   PO426265  11.685  32.163  15.937 -0.0178  0.1465  0.1735
 2239POSM   AM126266  11.494  32.367  15.726 -0.4382 -0.3761  0.2345
 2239POSM   AM226267  11.524  32.675  15.706 -0.0584 -0.2529 -0.1919
 2239POSM   T1A26268  11.230  32.637  15.348 -0.1418 -0.1228  0.2924
 2239POSM   C2A26269  10.833  32.848  15.106  0.3954  0.1403 -0.0819
 2239POSM   C3A26270  10.507  33.189  15.100  0.3544  0.1772  0.0754
 2239POSM   C1B26271  11.761  32.664  15.454  0.0763 -0.0643  0.0519
 2239POSM   D2B26272  11.866  32.649  15.030 -0.0950 -0.0431  0.1694
 2239POSM   C3B26273  12.143  32.371  14.806  0.2764 -0.0495  0.2030
 2239POSM   C4B26274  12.566  32.315  14.636 -0.2673  0.0209  0.2405
 2240DOPC   NC326275  17.674  28.464  16.209 -0.0743  0.3388  0.0701
 2240DOPC   PO426276  17.901  28.169  15.962 -0.2351 -0.0989 -0.0998
 2240DOPC   GL126277  17.507  28.082  15.883 -0.0595  0.1525 -0.0605
 2240DOPC   GL226278  17.319  28.254  15.705  0.0360 -0.0175  0.2489
 2240DOPC   C1A26279  17.240  27.775  15.637 -0.1834  0.1293  0.0541
 2240DOPC   D2A26280  17.096  27.531  15.205 -0.1214 -0.1814  0.1215
 2240DOPC   C3A26281  17.212  27.151  14.984 -0.0637 -0.1106  0.1916
 2240DOPC   C4A26282  17.136  26.922  14.603 -0.0193  0.1904  0.2220
 2240DOPC   C1B26283  17.388  27.988  15.208 -0.0840 -0.2148  0.4618
 2240DOPC   D2B26284  17.510  27.696  14.852 -0.0011 -0.0650  0.4656
 2240DOPC   C3B26285  17.875  27.817  14.600  0.0846  0.1940  0.0553
 2240DOPC   C4B26286  18.160  27.879  14.244  0.1137 -0.0758 -0.1037
 2241DOPC   NC326287  19.855  27.768  16.406 -0.0769  0.1935 -0.0722
 2241DOPC   PO426288  19.723  28.117  16.354 -0.1050  0.1346 -0.0950
 2241DOPC   GL126289  19.497  28.304  16.135 -0.0838  0.0836 -0.0874
 2241DOPC   GL226290  19.280  28.148  16.127  0.5339  0.0477 -0.0238
 2241DOPC   C1A26291  19.657  28.617  15.798 -0.0094 -0.2440  0.0435
 2241DOPC   D2A26292  19.938  28.851  15.415 -0.0175  0.1547 -0.0317
 2241DOPC   C3A26293  19.844  28.795  14.950  0.2433 -0.0295  0.0039
 2241DOPC   C4A26294  20.168  28.715  14.572 -0.0369  0.0092 -0.0856
 2241DOPC   C1B26295  19.332  28.200  15.670 -0.2630 -0.0249 -0.0430
 2241DOPC   D2B26296  19.154  28.460  15.345  0.3083  0.0387  0.0046
 2241DOPC   C3B26297  19.427  28.449  15.003 -0.0818  0.0781 -0.2247
 2241DOPC   C4B26298  19.561  28.313  14.550 -0.0249 -0.0193 -0.1992
 2242DOPS   CNO26299  12.126  31.234  16.047 -0.4099 -0.2346 -0.0167
 2242DOPS   PO426300  12.439  31.315  15.986 -0.1275  0.0135 -0.0471
 2242DOPS   GL126301  12.669  31.466  15.629  0.1714 -0.1231  0.0803
 2242DOPS   GL226302  12.479  31.644  15.568  0.0474 -0.0562  0.2917
 2242DOPS   C1A26303  12.945  31.708  15.311  0.0403  0.1294  0.0223
 2242DOPS   D2A26304  13.209  32.023  15.115  0.2816  0.0953 -0.1906
 2242DOPS   C3A26305  13.153  32.236  14.721  0.2894  0.0432  0.1407
 2242DOPS   C4A26306  13.500  32.187  14.354 -0.0548 -0.0264 -0.0519
 2242DOPS   C1B26307  12.545  31.484  15.104  0.1627 -0.1116  0.1033
 2242DOPS   D2B26308  12.949  31.416  14.903 -0.1247 -0.1745 -0.0223
 2242DOPS   C3B26309  13.158  30.990  14.892 -0.1930 -0.0001 -0.1948
 2242DOPS   C4B26310  13.374  30.608  14.755 -0.3259  0.3705 -0.0918
 2243DOPE   NH326311  19.761  24.770  15.388 -0.2691  0.0594 -0.0602
 2243DOPE   PO426312  19.549  24.845  15.600  0.2548 -0.0576 -0.2422
 2243DOPE   GL126313  19.327  24.806  15.238 -0.4251  0.0787 -0.0220
 2243DOPE   GL226314  19.096  24.979  15.097 -0.3972  0.2337  0.0040
 2243DOPE   C1A26315  19.550  24.708  14.838  0.1706 -0.0671  0.0029
 2243DOPE   D2A26316  19.680  24.796  14.377  0.0367 -0.1181 -0.4609
 2243DOPE   C3A26317  19.727  25.009  13.984 -0.1643 -0.1044 -0.2213
 2243DOPE   C4A26318  19.774  25.363  13.578  0.2210  0.2876 -0.0564
 2243DOPE   C1B26319  19.231  25.148  14.676 -0.3442  0.0600  0.0344
 2243DOPE   D2B26320  19.552  25.280  14.348 -0.1270 -0.2267 -0.0457
 2243DOPE   C3B26321  19.437  25.420  13.922  0.1101  0.0973  0.0418
 2243DOPE   C4B26322  19.480  25.714  13.580 -0.0982  0.0439  0.2102
 2244DOPS   CNO26323  21.283  28.205  15.894 -0.1195  0.0582  0.0356
 2244DOPS   PO426324  21.366  28.511  15.807  0.1106  0.0965 -0.0512
 2244DOPS   GL126325  21.423  28.651  15.445 -0.1656 -0.1522  0.0610
 2244DOPS   GL226326  21.294  28.497  15.283 -0.1153 -0.0732  0.1019
 2244DOPS   C1A26327  21.510  28.951  15.101 -0.2535  0.0703 -0.0601
 2244DOPS   D2A26328  21.853  29.273  14.994  0.1348 -0.0649 -0.2128
 2244DOPS   C3A26329  21.850  29.668  14.785 -0.1695  0.2011 -0.1378
 2244DOPS   C4A26330  21.860  30.107  14.851  0.0928  0.4141  0.0757
 2244DOPS   C1B26331  21.041  28.277  14.981 -0.1089 -0.0118  0.1942
 2244DOPS   D2B26332  21.006  28.106  14.609 -0.1731  0.2590  0.2363
 2244DOPS   C3B26333  21.091  27.652  14.476  0.0637 -0.3848 -0.0584
 2244DOPS   C4B26334  21.277  27.305  14.289 -0.1135  0.2434 -0.0325
 2245DOPE   NH326335  22.309  24.791  12.350  0.1146 -0.2336 -0.4490
 2245DOPE   PO426336  22.358  24.545  12.175  0.1187 -0.0920 -0.2049
 2245DOPE   GL126337  22.712  24.381  12.224  0.2736 -0.0608 -0.0824
 2245DOPE   GL226338  22.838  24.421  11.943 -0.1382 -0.3666 -0.1782
 2245DOPE   C1A26339  23.134  24.517  12.429 -0.0517 -0.1592  0.0716
 2245DOPE   D2A26340  23.336  24.316  12.761 -0.0065  0.0164  0.0467
 2245DOPE   C3A26341  23.415  24.370  13.173  0.1363  0.2887 -0.2456
 2245DOPE   C4A26342  23.624  24.255  13.535 -0.0082 -0.0627  0.1663
 2245DOPE   C1B26343  23.296  24.443  11.879 -0.4299 -0.0120 -0.1302
 2245DOPE   D2B26344  23.686  24.462  12.138  0.1244 -0.2336 -0.0260
 2245DOPE   C3B26345  23.643  24.666  12.605 -0.1734 -0.2603 -0.1422
 2245DOPE   C4B26346  23.840  24.678  13.053 -0.0999  0.4003 -0.2825
 2246DOPS   CNO26347  13.442  27.621  12.320  0.1636 -0.2058  0.0054
 2246DOPS   PO426348  13.556  27.331  12.523  0.1033 -0.1122  0.2496
 2246DOPS   GL126349  13.663  27.156  12.888  0.1260 -0.2956 -0.0668
 2246DOPS   GL226350  13.416  27.076  13.022 -0.0315  0.1203  0.1634
 2246DOPS   C1A26351  13.892  26.840  13.116  0.0305 -0.1761 -0.2981
 2246DOPS   D2A26352  14.153  26.455  12.953  0.2149 -0.2431  0.0938
 2246DOPS   C3A26353  13.939  26.140  12.705  0.0410  0.0392  0.2248
 2246DOPS   C4A26354  14.043  25.744  12.552  0.1099 -0.0906  0.0945
 2246DOPS   C1B26355  13.129  26.702  13.098  0.1935 -0.2577 -0.1907
 2246DOPS   D2B26356  12.778  26.421  13.286  0.2765 -0.1037  0.3726
 2246DOPS   C3B26357  12.475  26.060  13.275  0.0625  0.2318 -0.2059
 2246DOPS   C4B26358  12.324  25.621  13.222 -0.0360 -0.0513 -0.0388
 2247DOPE   NH326359  21.367  24.194  12.267 -0.1055 -0.1146  0.0173
 2247DOPE   PO426360  21.629  24.343  12.197 -0.0966 -0.1034  0.0362
 2247DOPE   GL126361  21.555  24.682  12.483 -0.4550 -0.2172  0.2729
 2247DOPE   GL226362  21.291  24.778  12.409 -0.1258 -0.3610 -0.3040
 2247DOPE   C1A26363  21.404  24.791  12.870  0.1442 -0.1861 -0.0220
 2247DOPE   D2A26364  21.117  25.160  12.784  0.2181 -0.1770  0.0099
 2247DOPE   C3A26365  21.046  25.406  13.237 -0.4821  0.0216 -0.3230
 2247DOPE   C4A26366  20.905  25.783  13.537  0.0801 -0.2389  0.0379
 2247DOPE   C1B26367  21.109  25.167  12.277  0.1932  0.2201 -0.1211
 2247DOPE   D2B26368  20.951  25.567  12.436  0.1126  0.4016  0.1184
 2247DOPE   C3B26369  21.264  25.668  12.715  0.1706 -0.1391 -0.2014
 2247DOPE   C4B26370  21.479  25.838  13.073 -0.2277 -0.0745 -0.0391
 2248DOPE   NH326371  22.018  23.880  12.162  0.2835 -0.4017  0.4650
 2248DOPE   PO426372  21.728  23.793  12.200  0.1837 -0.2322  0.1703
 2248DOPE   GL126373  21.729  24.044  12.554 -0.0840  0.0176  0.6313
 2248DOPE   GL226374  21.959  24.285  12.557  0.2789  0.1369 -0.1608
 2248DOPE   C1A26375  21.499  24.294  12.833 -0.1649 -0.0222  0.0178
 2248DOPE   D2A26376  21.356  24.416  13.290  0.2466 -0.2281 -0.2227
 2248DOPE   C3A26377  21.682  24.663  13.463 -0.1937 -0.3892  0.1946
 2248DOPE   C4A26378  22.110  24.765  13.685 -0.2552 -0.1553  0.0808
 2248DOPE   C1B26379  22.312  24.503  12.857  0.1790  0.0936 -0.3856
 2248DOPE   D2B26380  22.354  24.787  13.200 -0.0364 -0.1734  0.2279
 2248DOPE   C3B26381  21.952  25.046  13.253 -0.1118  0.0070 -0.2008
 2248DOPE   C4B26382  21.603  25.226  12.959 -0.1169  0.3569 -0.0291
 2249DOPC   NC326383  21.532  25.151  11.982 -0.2334 -0.2865 -0.2169
 2249DOPC   PO426384  21.712  24.823  12.038  0.0026  0.0272 -0.0941
 2249DOPC   GL126385  21.807  25.062  12.396 -0.1990 -0.0653 -0.1478
 2249DOPC   GL226386  21.562  25.215  12.454 -0.4657  0.0105  0.0354
 2249DOPC   C1A26387  21.907  24.782  12.761  0.1818  0.0556 -0.1214
 2249DOPC   D2A26388  21.877  24.479  13.072 -0.1278 -0.0880  0.0000
 2249DOPC   C3A26389  22.039  24.020  12.992 -0.2366 -0.1690 -0.4006
 2249DOPC   C4A26390  22.319  23.672  12.852  0.0672 -0.3539  0.1474
 2249DOPC   C1B26391  21.764  25.641  12.675 -0.1908  0.1305  0.1913
 2249DOPC   D2B26392  21.879  26.041  12.550 -0.0159  0.0010  0.2897
 2249DOPC   C3B26393  21.559  26.326  12.654 -0.1821 -0.1668 -0.3681
 2249DOPC   C4B26394  21.128  26.359  12.649  0.2737 -0.5434 -0.2858
 2250DOPC   NC326395  13.892  30.817  12.806  0.2485 -0.0456  0.3105
 2250DOPC   PO426396  13.745  31.163  12.597  0.0760  0.1724 -0.2749
 2250DOPC   GL126397  13.823  31.443  12.927 -0.0158 -0.0740  0.1248
 2250DOPC   GL226398  13.554  31.528  12.884 -0.1005  0.1676 -0.3644
 2250DOPC   C1A26399  14.048  31.840  12.963 -0.1920  0.0114 -0.0285
 2250DOPC   D2A26400  13.989  32.148  13.301 -0.0620 -0.1335  0.0590
 2250DOPC   C3A26401  14.007  31.765  13.621  0.2732  0.0209  0.1684
 2250DOPC   C4A26402  14.025  31.352  13.669 -0.2717 -0.2448  0.2810
 2250DOPC   C1B26403  13.519  31.248  13.264 -0.0538 -0.0338  0.0663
 2250DOPC   D2B26404  13.563  30.940  13.648 -0.2532 -0.1177 -0.0137
 2250DOPC   C3B26405  13.841  30.999  13.967  0.0387 -0.3198 -0.1992
 2250DOPC   C4B26406  13.933  30.765  14.411  0.1636 -0.0836  0.1795
 2251DOPE   NH326407  12.181  31.660  12.625  0.0892  0.3162  0.0043
 2251DOPE   PO426408  12.504  31.727  12.542  0.4338  0.2103 -0.0558
 2251DOPE   GL126409  12.560  31.442  12.828 -0.1513  0.0193  0.3845
 2251DOPE   GL226410  12.498  31.556  13.033  0.0049 -0.0420 -0.2060
 2251DOPE   C1A26411  12.204  31.125  12.841 -0.0714 -0.0365 -0.0453
 2251DOPE   D2A26412  11.855  31.334  13.076  0.2176  0.1270 -0.0991
 2251DOPE   C3A26413  11.703  31.019  13.363 -0.0642  0.2201 -0.0517
 2251DOPE   C4A26414  11.345  30.868  13.544 -0.0702  0.4309 -0.0471
 2251DOPE   C1B26415  12.183  31.706  13.349  0.1852  0.0198  0.0034
 2251DOPE   D2B26416  12.043  31.487  13.730  0.0701  0.2701  0.1104
 2251DOPE   C3B26417  11.588  31.404  13.603 -0.1055  0.3693 -0.2380
 2251DOPE   C4B26418  11.211  31.644  13.455  0.0555 -0.2230 -0.1233
 2252DOPE   NH326419  22.935  33.183  12.467  0.2668  0.2266  0.2236
 2252DOPE   PO426420  22.611  33.127  12.369  0.1128  0.2201  0.0923
 2252DOPE   GL126421  22.826  32.696  12.549  0.3793  0.1084 -0.0127
 2252DOPE   GL226422  22.642  32.730  12.821 -0.0507 -0.0623 -0.2039
 2252DOPE   C1A26423  23.039  32.409  12.845  0.1393  0.1246 -0.1699
 2252DOPE   D2A26424  23.148  32.284  13.319 -0.0137  0.2942  0.0484
 2252DOPE   C3A26425  23.545  32.160  13.374  0.1311 -0.2938 -0.0545
 2252DOPE   C4A26426  23.827  32.218  13.739 -0.0234  0.1309  0.1434
 2252DOPE   C1B26427  22.740  32.580  13.273 -0.3905 -0.1863  0.1460
 2252DOPE   D2B26428  22.766  32.445  13.663  0.0416 -0.2265  0.0286
 2252DOPE   C3B26429  23.093  32.131  13.788 -0.0489  0.2146  0.0899
 2252DOPE   C4B26430  23.350  31.824  13.904 -0.1891 -0.2062  0.0996
 2253DOPE   NH326431  18.804  29.014  12.456 -0.0904 -0.1706  0.0038
 2253DOPE   PO426432  18.990  29.130  12.678 -0.4562  0.2360  0.1143
 2253DOPE   GL126433  18.786  29.117  12.965  0.0182  0.1670  0.2088
 2253DOPE   GL226434  18.543  28.954  13.001 -0.1710  0.2256 -0.1929
 2253DOPE   C1A26435  18.667  29.426  13.266 -0.0273  0.0231 -0.1746
 2253DOPE   D2A26436  18.563  29.423  13.705 -0.2929 -0.0168 -0.0665
 2253DOPE   C3A26437  18.862  29.134  13.875 -0.1079  0.1606  0.1799
 2253DOPE   C4A26438  19.327  29.118  13.932  0.1713 -0.2627 -0.5094
 2253DOPE   C1B26439  18.487  28.587  13.218 -0.0185  0.1366  0.1611
 2253DOPE   D2B26440  18.417  28.341  13.634 -0.1528  0.0289 -0.2467
 2253DOPE   C3B26441  18.755  28.045  13.799  0.1797  0.1869 -0.2757
 2253DOPE   C4B26442  19.098  27.805  13.881  0.1573 -0.0178 -0.0182
 2254POSM   NC326443  12.781  31.254  12.352 -0.0841  0.0447  0.0044
 2254POSM   PO426444  12.840  31.604  12.173  0.1527 -0.0066  0.0215
 2254POSM   AM126445  12.981  31.683  12.473  0.5421 -0.2073 -0.1894
 2254POSM   AM226446  12.969  31.595  12.732 -0.2177  0.2902 -0.3733
 2254POSM   T1A26447  13.239  32.050  12.709  0.0508  0.1893 -0.3819
 2254POSM   C2A26448  13.517  32.169  13.098  0.0443  0.1581  0.0974
 2254POSM   C3A26449  13.633  31.788  13.317 -0.1315 -0.2902 -0.0801
 2254POSM   C1B26450  13.021  31.642  13.057 -0.0641  0.1764  0.3529
 2254POSM   D2B26451  13.179  31.754  13.487 -0.2477 -0.1400  0.1513
 2254POSM   C3B26452  13.528  31.550  13.770 -0.2309 -0.0328 -0.0900
 2254POSM   C4B26453  13.832  31.529  14.160 -0.2350 -0.1492  0.0721
 2255DOPE   NH326454  16.044  31.435  12.217 -0.1944  0.0807  0.0949
 2255DOPE   PO426455  15.936  31.222  12.420  0.3979 -0.0705  0.0212
 2255DOPE   GL126456  15.968  31.050  12.802  0.2107 -0.1898  0.1335
 2255DOPE   GL226457  15.942  31.275  13.095  0.2946  0.1359 -0.1268
 2255DOPE   C1A26458  16.276  30.948  13.139 -0.2407 -0.1346  0.0377
 2255DOPE   D2A26459  16.651  30.883  13.338  0.0462  0.0502  0.2075
 2255DOPE   C3A26460  16.527  31.035  13.722  0.3975 -0.1674 -0.0324
 2255DOPE   C4A26461  16.342  31.050  14.124 -0.2400 -0.0663 -0.0069
 2255DOPE   C1B26462  15.866  30.979  13.414  0.3334 -0.1765  0.0045
 2255DOPE   D2B26463  15.545  30.824  13.745 -0.1765  0.0516 -0.1461
 2255DOPE   C3B26464  15.254  31.051  14.002  0.0275  0.0177 -0.0436
 2255DOPE   C4B26465  14.848  31.285  14.157  0.2001 -0.3198 -0.1425
 2256POSM   NC326466  19.357  30.237  12.294  0.0790 -0.3940 -0.0754
 2256POSM   PO426467  19.342  30.062  12.597  0.0150 -0.0393  0.0271
 2256POSM   AM126468  19.492  30.267  12.817 -0.0152  0.0946 -0.1819
 2256POSM   AM226469  19.745  30.311  12.964  0.0297 -0.1133  0.1122
 2256POSM   T1A26470  19.462  30.621  13.194  0.1641  0.0683  0.1796
 2256POSM   C2A26471  19.450  31.107  13.233  0.0832  0.1382 -0.0250
 2256POSM   C3A26472  19.297  31.545  13.290 -0.3184  0.0545  0.2361
 2256POSM   C1B26473  19.901  30.568  13.079 -0.4482 -0.0038 -0.0554
 2256POSM   D2B26474  19.930  30.865  13.396 -0.0050 -0.0952  0.0014
 2256POSM   C3B26475  19.701  30.902  13.788  0.0321 -0.0679 -0.0952
 2256POSM   C4B26476  19.431  30.765  14.149  0.0365  0.2097 -0.0955
 2257POSM   NC326477  12.324  23.363  12.533 -0.0347 -0.0434  0.1645
 2257POSM   PO426478  12.125  23.375  12.174 -0.1804 -0.1390  0.1068
 2257POSM   AM126479  12.096  23.690  12.186 -0.2158 -0.1446 -0.1610
 2257POSM   AM226480  12.168  23.876  12.377 -0.0570  0.0635  0.3172
 2257POSM   T1A26481  12.179  24.171  11.948 -0.2023  0.1751 -0.1452
 2257POSM   C2A26482  12.551  24.423  11.755 -0.1557 -0.0196  0.1239
 2257POSM   C3A26483  12.840  24.791  11.612  0.1702 -0.2779  0.1585
 2257POSM   C1B26484  12.236  24.215  12.467 -0.3830  0.0200  0.1197
 2257POSM   D2B26485  12.428  24.609  12.637 -0.1294 -0.2801 -0.2334
 2257POSM   C3B26486  12.247  24.935  12.930  0.1339 -0.1736  0.2724
 2257POSM   C4B26487  12.085  25.128  13.343  0.0723  0.1065  0.1901
 2258DOPC   NC326488  22.773  31.454  12.453  0.1855  0.0912  0.2662
 2258DOPC   PO426489  22.495  31.221  12.606  0.1191  0.0299 -0.1926
 2258DOPC   GL126490  22.331  31.355  12.264  0.1657  0.3903  0.3950
 2258DOPC   GL226491  22.297  31.124  11.995 -0.0049 -0.1465  0.0107
 2258DOPC   C1A26492  22.148  31.731  12.050 -0.0806  0.0129  0.0193
 2258DOPC   D2A26493  21.824  31.833  11.776 -0.0350 -0.1276  0.2020
 2258DOPC   C3A26494  21.384  31.770  11.905  0.1204  0.1093  0.1161
 2258DOPC   C4A26495  20.926  31.717  12.072  0.0922  0.1494  0.0414
 2258DOPC   C1B26496  21.852  31.295  12.105 -0.2805  0.1087  0.3672
 2258DOPC   D2B26497  21.383  31.248  12.099 -0.2969 -0.2151 -0.1263
 2258DOPC   C3B26498  21.301  31.638  12.438 -0.1773  0.1438  0.0550
 2258DOPC   C4B26499  21.030  31.627  12.809  0.2389 -0.1218  0.2264
 2259DOPC   NC326500  18.699  31.704  12.472  0.1790 -0.1761  0.0461
 2259DOPC   PO426501  19.023  31.612  12.231  0.4761  0.1946  0.0912
 2259DOPC   GL126502  19.154  31.960  12.403 -0.0177  0.2822 -0.0999
 2259DOPC   GL226503  19.056  32.259  12.517  0.0206 -0.1041 -0.1948
 2259DOPC   C1A26504  19.495  32.137  12.663 -0.1599  0.1266 -0.2460
 2259DOPC   D2A26505  19.721  32.136  13.067 -0.2123  0.2959 -0.0771
 2259DOPC   C3A26506  20.047  32.236  13.358 -0.1875 -0.2274 -0.0421
 2259DOPC   C4A26507  20.464  32.008  13.335 -0.3490 -0.0817 -0.1168
 2259DOPC   C1B26508  18.838  32.450  12.864  0.0859 -0.2384 -0.2744
 2259DOPC   D2B26509  18.930  32.639  13.269 -0.1765  0.1111  0.0721
 2259DOPC   C3B26510  19.222  32.711  13.649 -0.2499  0.1385  0.0019
 2259DOPC   C4B26511  19.320  32.648  14.101  0.0799  0.1028 -0.1680
 2260DOPC   NC326512  15.957  28.305  12.660  0.0070  0.0848 -0.2755
 2260DOPC   PO426513  15.773  28.584  12.432 -0.2259 -0.0230  0.0955
 2260DOPC   GL126514  16.092  28.744  12.577 -0.2148  0.3382  0.0546
 2260DOPC   GL226515  16.271  28.753  12.346  0.0752 -0.0375 -0.1762
 2260DOPC   C1A26516  16.258  28.591  13.031 -0.2472  0.0984  0.4568
 2260DOPC   D2A26517  16.176  28.813  13.426 -0.1499 -0.0876 -0.4640
 2260DOPC   C3A26518  16.066  28.501  13.749 -0.0634 -0.1975  0.0373
 2260DOPC   C4A26519  16.035  28.073  13.876  0.2497 -0.4041 -0.2176
 2260DOPC   C1B26520  16.478  28.570  12.598  0.0575  0.2042 -0.0779
 2260DOPC   D2B26521  16.835  28.242  12.691  0.4807  0.0154 -0.2285
 2260DOPC   C3B26522  16.731  28.020  13.069  0.0814 -0.2605 -0.1429
 2260DOPC   C4B26523  16.745  27.967  13.493  0.0818 -0.1468 -0.3277
 2261DOPE   NH326524  18.947  23.455  11.962  0.1043  0.1558  0.0127
 2261DOPE   PO426525  18.702  23.467  12.179 -0.0141 -0.1973 -0.1307
 2261DOPE   GL126526  18.937  23.621  12.427 -0.2669  0.2273 -0.1880
 2261DOPE   GL226527  18.962  23.934  12.355  0.1664  0.2432  0.2067
 2261DOPE   C1A26528  18.773  23.898  12.796 -0.1135 -0.0099 -0.0137
 2261DOPE   D2A26529  18.526  24.197  13.056  0.1048  0.1457  0.2442
 2261DOPE   C3A26530  18.181  24.036  13.276 -0.3278  0.0566 -0.0721
 2261DOPE   C4A26531  17.883  24.139  13.630 -0.3776  0.1342  0.0725
 2261DOPE   C1B26532  18.613  24.264  12.513 -0.0268 -0.1389  0.0136
 2261DOPE   D2B26533  18.501  24.732  12.645 -0.1445 -0.0329 -0.0352
 2261DOPE   C3B26534  18.416  24.667  13.103 -0.2269  0.0849  0.0911
 2261DOPE   C4B26535  18.046  24.564  13.299 -0.0195  0.1040  0.1260
 2262POSM   NC326536  18.241  22.667  12.550 -0.0655  0.2502  0.2035
 2262POSM   PO426537  17.924  22.746  12.283  0.0451 -0.1687  0.0758
 2262POSM   AM126538  17.777  22.742  12.578 -0.2247  0.0115 -0.2789
 2262POSM   AM226539  17.825  22.600  12.811  0.0486  0.0255  0.0497
 2262POSM   T1A26540  17.501  22.918  13.008  0.0757 -0.0094  0.0897
 2262POSM   C2A26541  17.386  23.340  13.175  0.3745 -0.1686  0.0292
 2262POSM   C3A26542  17.679  23.779  13.227  0.1228 -0.2268 -0.0694
 2262POSM   C1B26543  18.054  22.770  13.006 -0.1041  0.0335 -0.3469
 2262POSM   D2B26544  18.382  22.974  13.053 -0.0234 -0.4354  0.0353
 2262POSM   C3B26545  18.731  23.203  13.277  0.0199 -0.3555 -0.0030
 2262POSM   C4B26546  19.191  23.345  13.508  0.2302 -0.0979 -0.0312
 2263DOPE   NH326547  12.465  32.216  12.337 -0.1218  0.1255  0.3745
 2263DOPE   PO426548  12.701  32.397  12.454 -0.1681  0.0847  0.0053
 2263DOPE   GL126549  12.880  32.291  12.752 -0.1550 -0.1911  0.0574
 2263DOPE   GL226550  12.711  32.060  12.851 -0.2648  0.1639 -0.2742
 2263DOPE   C1A26551  13.047  32.290  13.191 -0.0832  0.0451  0.1541
 2263DOPE   D2A26552  13.164  32.289  13.599  0.0690  0.1384  0.2074
 2263DOPE   C3A26553  13.396  32.515  13.959  0.2497  0.0640 -0.0792
 2263DOPE   C4A26554  13.448  32.689  14.420 -0.1230 -0.4111  0.0402
 2263DOPE   C1B26555  12.585  32.008  13.292 -0.1921  0.1727  0.2206
 2263DOPE   D2B26556  12.688  32.006  13.766  0.1835  0.1195  0.2766
 2263DOPE   C3B26557  12.627  32.392  13.986 -0.1278  0.0082  0.1696
 2263DOPE   C4B26558  12.246  32.461  14.239 -0.1738  0.2189  0.0516
 2264DOPC   NC326559  20.815  23.685  11.756 -0.1994 -0.2188  0.2659
 2264DOPC   PO426560  20.914  23.291  11.717  0.1308 -0.3351  0.1209
 2264DOPC   GL126561  20.811  23.189  12.123  0.2381 -0.1658 -0.0191
 2264DOPC   GL226562  20.992  23.254  12.203 -0.0167 -0.2572 -0.1755
 2264DOPC   C1A26563  20.664  22.816  12.434  0.0578 -0.3964 -0.2923
 2264DOPC   D2A26564  20.621  22.569  12.787 -0.1163  0.1425  0.1928
 2264DOPC   C3A26565  21.016  22.449  13.017  0.0963 -0.1841 -0.2250
 2264DOPC   C4A26566  21.395  22.695  13.087  0.1127 -0.2129  0.2707
 2264DOPC   C1B26567  20.995  23.443  12.633  0.0406 -0.2499  0.0136
 2264DOPC   D2B26568  20.893  23.545  13.086  0.1973  0.2979  0.0667
 2264DOPC   C3B26569  20.819  23.311  13.494 -0.1268  0.1989  0.1613
 2264DOPC   C4B26570  21.146  23.272  13.887 -0.2626 -0.0468  0.2728
 2265POSM   NC326571  19.197  23.086  11.765 -0.0408 -0.1480  0.4479
 2265POSM   PO426572  19.386  23.168  12.112 -0.3560  0.2210 -0.0759
 2265POSM   AM126573  19.311  23.256  12.417  0.0216  0.2519 -0.1804
 2265POSM   AM226574  19.093  23.220  12.541 -0.0350  0.1332 -0.0600
 2265POSM   T1A26575  19.487  23.418  12.878  0.3460 -0.2777  0.3135
 2265POSM   C2A26576  19.782  23.467  13.221 -0.2524 -0.0677  0.1783
 2265POSM   C3A26577  19.963  23.659  13.575 -0.1000 -0.5067  0.3309
 2265POSM   C1B26578  19.009  23.423  12.777 -0.1426  0.0491  0.0859
 2265POSM   D2B26579  19.107  23.715  13.135  0.1427  0.4114 -0.0544
 2265POSM   C3B26580  19.018  24.157  13.231  0.3677  0.0893  0.0435
 2265POSM   C4B26581  18.692  24.358  13.482 -0.2061  0.1104 -0.2176
 2266DOPE   NH326582  20.925  29.451  12.705 -0.2490  0.3304  0.3028
 2266DOPE   PO426583  20.695  29.607  12.662  0.0594  0.2413 -0.0404
 2266DOPE   GL126584  20.594  29.361  13.010 -0.1734 -0.3147 -0.1016
 2266DOPE   GL226585  20.448  29.124  12.986 -0.0048  0.0656 -0.0466
 2266DOPE   C1A26586  20.396  29.661  13.321 -0.1205 -0.4260 -0.0498
 2266DOPE   D2A26587  20.486  29.977  13.710 -0.2602  0.0274 -0.0372
 2266DOPE   C3A26588  20.167  30.076  14.050  0.1125  0.2208  0.3286
 2266DOPE   C4A26589  19.979  30.284  14.410 -0.1227  0.4649  0.1343
 2266DOPE   C1B26590  20.528  29.004  13.431 -0.1395  0.0904  0.1155
 2266DOPE   D2B26591  20.681  28.845  13.821  0.2712  0.1009 -0.2967
 2266DOPE   C3B26592  21.051  28.938  14.053 -0.2075 -0.1266  0.0798
 2266DOPE   C4B26593  21.392  28.736  13.918 -0.1528  0.1595  0.1669
 2267DOPE   NH326594  11.158  27.089  12.254  0.0353  0.4198  0.1681
 2267DOPE   PO426595  11.405  27.030  12.449 -0.3392  0.0937  0.1084
 2267DOPE   GL126596  11.540  27.012  12.746  0.1759  0.1710  0.0662
 2267DOPE   GL226597  11.793  27.141  12.801 -0.2614  0.1232 -0.1055
 2267DOPE   C1A26598  11.522  27.035  13.229 -0.1064  0.0079  0.2108
 2267DOPE   D2A26599  11.444  27.246  13.613  0.0106 -0.2330 -0.0450
 2267DOPE   C3A26600  11.576  27.689  13.763  0.1907  0.2455 -0.2799
 2267DOPE   C4A26601  11.914  28.072  13.738 -0.1396  0.0504  0.3544
 2267DOPE   C1B26602  11.800  27.423  13.124 -0.4764  0.0318  0.1513
 2267DOPE   D2B26603  11.979  27.794  13.353 -0.1536  0.0486  0.0512
 2267DOPE   C3B26604  12.223  28.057  13.076  0.0588  0.0533  0.2062
 2267DOPE   C4B26605  12.330  28.476  12.983  0.1357  0.0669 -0.2841
 2268DOPC   NC326606  15.869  30.032  12.264  0.0540 -0.0126  0.0440
 2268DOPC   PO426607  15.741  29.871  12.594  0.1200 -0.3360 -0.1974
 2268DOPC   GL126608  15.887  30.161  12.919 -0.3410  0.2734  0.4163
 2268DOPC   GL226609  16.189  30.117  12.926  0.0374  0.1335  0.0633
 2268DOPC   C1A26610  16.006  30.512  13.194  0.2852 -0.0866 -0.2105
 2268DOPC   D2A26611  16.207  30.737  13.595  0.0311  0.0922  0.2672
 2268DOPC   C3A26612  15.961  30.666  13.990 -0.0289  0.1567  0.0286
 2268DOPC   C4A26613  15.558  30.767  14.327 -0.0010  0.0220 -0.0855
 2268DOPC   C1B26614  16.167  30.124  13.379 -0.3875 -0.0552 -0.1010
 2268DOPC   D2B26615  16.170  30.186  13.851 -0.0469  0.0240  0.0500
 2268DOPC   C3B26616  16.120  29.748  14.005 -0.3229 -0.1186  0.0447
 2268DOPC   C4B26617  15.887  29.405  14.163  0.3584 -0.1910 -0.1340
 2269DOPE   NH326618  13.247  31.015  12.382 -0.1592 -0.0877 -0.2937
 2269DOPE   PO426619  13.226  31.160  12.671  0.3401 -0.2624  0.0876
 2269DOPE   GL126620  13.435  30.863  12.880  0.4407  0.3193  0.1556
 2269DOPE   GL226621  13.182  30.761  13.002 -0.1389 -0.2764 -0.0429
 2269DOPE   C1A26622  13.626  30.607  13.227  0.3277 -0.0488 -0.0288
 2269DOPE   D2A26623  13.601  30.163  13.467  0.1842  0.0617 -0.1561
 2269DOPE   C3A26624  13.373  30.287  13.863 -0.1672  0.2377  0.1610
 2269DOPE   C4A26625  13.076  30.389  14.273  0.1951  0.2391 -0.0201
 2269DOPE   C1B26626  13.106  30.703  13.452  0.0648  0.2618  0.2565
 2269DOPE   D2B26627  13.050  30.691  13.875 -0.0521  0.3422 -0.0141
 2269DOPE   C3B26628  12.758  31.138  13.911  0.0272  0.2161 -0.2181
 2269DOPE   C4B26629  12.505  31.576  13.975  0.1253 -0.0477 -0.1568
 2270POSM   NC326630  19.643  29.180  12.288  0.3653  0.1887  0.1558
 2270POSM   PO426631  19.952  29.143  12.546  0.3858  0.1157 -0.1301
 2270POSM   AM126632  19.932  28.972  12.820  0.2308 -0.0141  0.1466
 2270POSM   AM226633  19.773  28.767  12.983 -0.2697  0.1482 -0.1874
 2270POSM   T1A26634  20.110  28.819  13.278 -0.0235  0.1711 -0.1194
 2270POSM   C2A26635  20.192  28.840  13.706 -0.0196 -0.2672 -0.0318
 2270POSM   C3A26636  20.005  28.686  14.108  0.0344  0.0351 -0.1782
 2270POSM   C1B26637  19.712  28.586  13.237  0.2023  0.1430  0.0475
 2270POSM   D2B26638  19.864  28.427  13.668  0.3048  0.1498 -0.1400
 2270POSM   C3B26639  19.542  28.497  14.059 -0.1876  0.0112 -0.2952
 2270POSM   C4B26640  19.204  28.229  14.186 -0.1838  0.0623  0.2203
 2271DOPC   NC326641  19.930  30.571  12.559 -0.2849  0.2179 -0.1658
 2271DOPC   PO426642  19.555  30.649  12.433  0.1785 -0.0235 -0.4586
 2271DOPC   GL126643  19.756  30.987  12.489 -0.1733  0.1118 -0.0813
 2271DOPC   GL226644  19.746  31.058  12.770  0.0375 -0.2211 -0.1288
 2271DOPC   C1A26645  20.233  30.954  12.529 -0.3585 -0.1579  0.0075
 2271DOPC   D2A26646  20.677  30.879  12.568  0.0652 -0.0081 -0.1388
 2271DOPC   C3A26647  21.061  31.041  12.647  0.0162 -0.0379  0.3621
 2271DOPC   C4A26648  21.150  31.117  13.079 -0.0402 -0.1021 -0.1260
 2271DOPC   C1B26649  20.156  31.228  12.927 -0.0058 -0.3439 -0.0900
 2271DOPC   D2B26650  20.658  31.189  13.006  0.3453 -0.0780  0.3651
 2271DOPC   C3B26651  20.818  31.325  13.414 -0.2109 -0.0125 -0.2402
 2271DOPC   C4B26652  21.142  31.496  13.721  0.0578  0.2323  0.0297
 2272POSM   NC326653  20.302  34.125  12.328 -0.3916  0.3917  0.1572
 2272POSM   PO426654  20.130  34.016  11.993  0.3658  0.3114  0.0680
 2272POSM   AM126655  19.910  33.872  12.216 -0.2301  0.1869  0.3065
 2272POSM   AM226656  19.930  33.802  12.485 -0.0622 -0.0689  0.0163
 2272POSM   T1A26657  19.427  33.686  12.195 -0.3208 -0.0293 -0.0080
 2272POSM   C2A26658  19.004  33.728  12.271  0.0863  0.1373  0.1092
 2272POSM   C3A26659  18.670  33.748  11.927 -0.0327  0.0839 -0.4046
 2272POSM   C1B26660  19.958  33.726  12.832 -0.0380 -0.0455  0.0061
 2272POSM   D2B26661  19.909  33.916  13.271 -0.1611 -0.4975  0.2398
 2272POSM   C3B26662  19.626  34.226  13.482 -0.0726 -0.1061  0.1433
 2272POSM   C4B26663  19.370  34.583  13.340  0.0254 -0.0573  0.1700
 2273DOPE   NH326664  18.325  23.077  12.183 -0.2195  0.0198 -0.0328
 2273DOPE   PO426665  18.180  23.323  12.315 -0.0464 -0.0341 -0.0522
 2273DOPE   GL126666  18.029  23.120  12.639 -0.0909 -0.2068  0.0542
 2273DOPE   GL226667  17.775  23.197  12.564  0.0154  0.0732  0.0691
 2273DOPE   C1A26668  17.997  23.376  13.017 -0.1506  0.3976  0.3061
 2273DOPE   D2A26669  18.220  23.562  13.362 -0.3296  0.2142  0.0969
 2273DOPE   C3A26670  17.909  23.627  13.705  0.1521 -0.4102  0.3910
 2273DOPE   C4A26671  17.721  23.716  14.137  0.1550 -0.1329  0.0165
 2273DOPE   C1B26672  17.371  23.351  12.639 -0.2313 -0.2646  0.3355
 2273DOPE   D2B26673  17.081  23.085  12.814  0.3788 -0.2068 -0.1525
 2273DOPE   C3B26674  16.979  23.075  13.266 -0.0691 -0.2777  0.0461
 2273DOPE   C4B26675  16.715  23.153  13.634 -0.1348 -0.0375  0.1889
 2274DOPC   NC326676  20.137  27.826  12.510  0.1145 -0.1700  0.2668
 2274DOPC   PO426677  19.986  27.567  12.278 -0.0748 -0.2197  0.0680
 2274DOPC   GL126678  20.141  27.174  12.346 -0.1217 -0.0449  0.1089
 2274DOPC   GL226679  20.388  27.240  12.390 -0.0062 -0.0782  0.2084
 2274DOPC   C1A26680  20.401  26.861  12.081 -0.3274 -0.2728 -0.1794
 2274DOPC   D2A26681  20.743  26.646  12.269  0.1177  0.2974 -0.1478
 2274DOPC   C3A26682  21.027  26.849  12.639 -0.1829  0.0059 -0.0358
 2274DOPC   C4A26683  21.177  26.743  13.094 -0.0837  0.0219 -0.2984
 2274DOPC   C1B26684  20.625  27.484  12.636 -0.0654 -0.1386  0.0429
 2274DOPC   D2B26685  20.966  27.533  12.927 -0.0606 -0.1224 -0.5010
 2274DOPC   C3B26686  21.010  27.614  13.425 -0.1599  0.1344 -0.3153
 2274DOPC   C4B26687  20.925  27.444  13.879 -0.0357  0.3165  0.1639
 2275DOPE   NH326688  23.087  23.012  11.926  0.2160  0.1674 -0.2402
 2275DOPE   PO426689  23.273  23.092  11.692 -0.2349 -0.0044 -0.1161
 2275DOPE   GL126690  23.568  23.221  11.987  0.1875 -0.3540  0.3050
 2275DOPE   GL226691  23.420  23.166  12.293 -0.0441  0.1506  0.0890
 2275DOPE   C1A26692  23.765  23.551  12.250  0.0105  0.0429  0.0781
 2275DOPE   D2A26693  23.896  24.008  12.251 -0.0020 -0.2240  0.0657
 2275DOPE   C3A26694  24.000  24.332  12.597  0.2953  0.0367  0.3240
 2275DOPE   C4A26695  24.329  24.361  12.938  0.0538  0.2503 -0.1449
 2275DOPE   C1B26696  23.692  23.315  12.683 -0.0332  0.3614 -0.0049
 2275DOPE   D2B26697  23.686  23.436  13.170 -0.1198  0.0741  0.3394
 2275DOPE   C3B26698  23.448  23.799  13.415  0.4022 -0.1568 -0.1681
 2275DOPE   C4B26699  23.067  24.061  13.298 -0.0412 -0.1991  0.0105
 2276POSM   NC326700  13.238  27.941  12.735  0.2061 -0.0440  0.2063
 2276POSM   PO426701  13.292  27.570  12.853 -0.2842  0.1659  0.2288
 2276POSM   AM126702  13.346  27.493  13.148 -0.0985  0.1230 -0.0563
 2276POSM   AM226703  13.501  27.640  13.335  0.0571 -0.0654  0.2454
 2276POSM   T1A26704  13.258  27.137  13.497 -0.1547  0.0435  0.1687
 2276POSM   C2A26705  13.124  26.733  13.696  0.3526 -0.0995 -0.0584
 2276POSM   C3A26706  12.738  26.620  13.968  0.1890 -0.4409  0.2873
 2276POSM   C1B26707  13.409  27.629  13.696  0.1150 -0.2159  0.0386
 2276POSM   D2B26708  13.355  27.320  14.048  0.1454  0.4138  0.0164
 2276POSM   C3B26709  13.088  27.015  14.146 -0.1070  0.2446  0.0194
 2276POSM   C4B26710  12.828  26.757  14.472 -0.0444  0.2025 -0.1012
 2277DOPC   NC326711  19.049  29.844  13.054  0.2263 -0.0294  0.1118
 2277DOPC   PO426712  18.891  30.064  12.775 -0.1930  0.1786  0.0199
 2277DOPC   GL126713  18.761  30.335  12.982 -0.1128  0.2851  0.0656
 2277DOPC   GL226714  18.841  30.259  13.295  0.3547 -0.0611  0.1099
 2277DOPC   C1A26715  18.261  30.354  12.987 -0.3247 -0.2441  0.1543
 2277DOPC   D2A26716  17.939  30.546  13.225  0.0571 -0.1437  0.0308
 2277DOPC   C3A26717  17.732  30.382  13.645 -0.0187 -0.1224  0.1347
 2277DOPC   C4A26718  17.670  30.089  14.015 -0.2767 -0.1644 -0.2337
 2277DOPC   C1B26719  19.025  29.979  13.662  0.2350 -0.1323 -0.0097
 2277DOPC   D2B26720  19.402  29.835  13.838  0.3172 -0.0613  0.2600
 2277DOPC   C3B26721  19.649  30.132  14.060 -0.0782  0.0764  0.0354
 2277DOPC   C4B26722  19.471  30.337  14.410  0.3889 -0.1304  0.2114
 2278POSM   NC326723  20.112  24.831  11.976 -0.0054  0.2823 -0.2373
 2278POSM   PO426724  20.169  24.442  11.996 -0.3498 -0.3917 -0.0579
 2278POSM   AM126725  20.261  24.506  12.316 -0.3710  0.3342 -0.0327
 2278POSM   AM226726  20.328  24.757  12.420  0.0710 -0.0056 -0.0700
 2278POSM   T1A26727  20.047  24.379  12.727  0.2968  0.1320 -0.2248
 2278POSM   C2A26728  20.066  24.589  13.131  0.2376  0.1303  0.1411
 2278POSM   C3A26729  19.791  24.768  13.464 -0.1435  0.1932  0.0631
 2278POSM   C1B26730  20.144  24.915  12.707  0.0550  0.0526 -0.3356
 2278POSM   D2B26731  19.732  25.159  12.911 -0.1834  0.1525  0.1257
 2278POSM   C3B26732  19.291  25.097  13.013 -0.1958  0.0834  0.1626
 2278POSM   C4B26733  18.930  24.982  13.238 -0.0736 -0.0971 -0.1477
 2279POSM   NC326734  12.495  29.625  12.193  0.2466  0.0573 -0.0787
 2279POSM   PO426735  12.610  29.580  12.549  0.0832 -0.2461 -0.2998
 2279POSM   AM126736  12.706  29.687  12.837  0.6674  0.4242 -0.2809
 2279POSM   AM226737  12.649  29.903  12.969 -0.0700 -0.1948 -0.0128
 2279POSM   T1A26738  12.453  29.659  13.346  0.2359 -0.0361 -0.0453
 2279POSM   C2A26739  12.032  29.584  13.277  0.1859  0.2408  0.2837
 2279POSM   C3A26740  11.601  29.600  13.475  0.2199  0.0378 -0.0092
 2279POSM   C1B26741  12.735  30.086  13.276 -0.0722  0.5706 -0.1501
 2279POSM   D2B26742  12.783  30.339  13.612 -0.1453  0.3492  0.0422
 2279POSM   C3B26743  12.941  29.984  13.935  0.1461 -0.1900 -0.2025
 2279POSM   C4B26744  12.786  29.591  14.176  0.1330 -0.0641  0.1168
 2280DOPC   NC326745  17.084  26.121  12.069  0.0120  0.0718  0.2368
 2280DOPC   PO426746  17.017  25.828  12.303 -0.1385  0.1365 -0.0712
 2280DOPC   GL126747  17.090  25.820  12.715  0.0463 -0.3999 -0.0951
 2280DOPC   GL226748  17.268  25.582  12.837 -0.2824 -0.1182 -0.0240
 2280DOPC   C1A26749  16.803  25.687  13.049 -0.2062 -0.1194  0.1226
 2280DOPC   D2A26750  16.500  25.440  13.267 -0.4538  0.0753  0.2208
 2280DOPC   C3A26751  16.327  25.518  13.730 -0.0213  0.2593  0.2222
 2280DOPC   C4A26752  15.981  25.601  13.953 -0.0145  0.1206  0.2624
 2280DOPC   C1B26753  16.993  25.191  12.930  0.0567 -0.0644 -0.1461
 2280DOPC   D2B26754  16.635  24.969  13.126  0.0278 -0.0999  0.0999
 2280DOPC   C3B26755  16.611  24.910  13.584  0.3819 -0.1091  0.1095
 2280DOPC   C4B26756  16.465  24.851  14.020  0.0268 -0.2650  0.2379
 2281DOPE   NH326757  13.987  24.401  12.373  0.1080 -0.0663  0.1660
 2281DOPE   PO426758  14.301  24.419  12.441 -0.2291  0.0062 -0.1233
 2281DOPE   GL126759  14.605  24.517  12.562 -0.1565 -0.0574  0.2342
 2281DOPE   GL226760  14.766  24.707  12.383  0.0317  0.0357 -0.0045
 2281DOPE   C1A26761  14.805  24.402  12.948  0.1565 -0.0556  0.3096
 2281DOPE   D2A26762  15.146  24.330  13.175  0.0471  0.1807  0.2276
 2281DOPE   C3A26763  15.594  24.457  13.040  0.3597  0.1618 -0.0116
 2281DOPE   C4A26764  16.006  24.351  12.885  0.3224 -0.1121  0.0991
 2281DOPE   C1B26765  14.694  24.878  12.838 -0.1389 -0.0607  0.0767
 2281DOPE   D2B26766  14.873  24.802  13.242 -0.1809 -0.1201 -0.0379
 2281DOPE   C3B26767  15.304  24.793  13.204 -0.1576 -0.2688  0.1093
 2281DOPE   C4B26768  15.609  24.578  13.504 -0.0335 -0.0977  0.1775
 2282POSM   NC326769  15.116  34.053  12.438  0.2917  0.3306  0.3261
 2282POSM   PO426770  15.308  34.344  12.612  0.0912  0.2921  0.0504
 2282POSM   AM126771  15.131  34.481  12.859 -0.1811  0.2110  0.0794
 2282POSM   AM226772  14.956  34.649  12.942  0.1492 -0.2538  0.0687
 2282POSM   T1A26773  15.253  34.596  13.316  0.1173 -0.1045  0.2078
 2282POSM   C2A26774  15.481  34.907  13.533 -0.1240  0.3312 -0.0165
 2282POSM   C3A26775  15.796  35.188  13.672  0.0339 -0.2583  0.2396
 2282POSM   C1B26776  14.771  34.523  13.169  0.0907 -0.3650  0.1253
 2282POSM   D2B26777  14.753  34.261  13.563 -0.0018  0.0460  0.0605
 2282POSM   C3B26778  14.641  34.654  13.760  0.1328 -0.0203 -0.1287
 2282POSM   C4B26779  14.487  35.030  13.964 -0.2777 -0.2259 -0.3506
 2283POSM   NC326780  16.159  25.978  12.125 -0.0863 -0.1444 -0.0322
 2283POSM   PO426781  15.774  25.944  12.217 -0.0350  0.1427  0.2696
 2283POSM   AM126782  15.675  25.937  12.532 -0.4613  0.2007 -0.2111
 2283POSM   AM226783  15.456  25.795  12.671  0.1023 -0.1639  0.2260
 2283POSM   T1A26784  15.760  25.944  13.047 -0.1204 -0.1462 -0.0776
 2283POSM   C2A26785  15.763  26.228  13.467 -0.0425 -0.0177  0.2050
 2283POSM   C3A26786  15.753  26.303  13.931  0.1291  0.1053 -0.0255
 2283POSM   C1B26787  15.166  25.863  12.894  0.0283 -0.1208 -0.3491
 2283POSM   D2B26788  14.905  25.787  13.277 -0.0658 -0.0822  0.0183
 2283POSM   C3B26789  14.693  25.538  13.583 -0.2915 -0.0747 -0.1409
 2283POSM   C4B26790  14.774  25.090  13.611 -0.0778 -0.2388 -0.2675
 2284DOPS   CNO26791  19.262  29.510  12.326  0.3106 -0.1380 -0.1467
 2284DOPS   PO426792  19.262  29.542  12.699 -0.2577  0.0842  0.2476
 2284DOPS   GL126793  19.110  29.401  13.072  0.0770  0.2578  0.1817
 2284DOPS   GL226794  19.243  29.125  13.144  0.0366  0.0505 -0.1896
 2284DOPS   C1A26795  19.060  29.468  13.556 -0.0303 -0.0144 -0.1648
 2284DOPS   D2A26796  19.108  29.543  14.043 -0.0483  0.0752 -0.1437
 2284DOPS   C3A26797  19.125  29.961  14.236  0.0539  0.0000  0.1395
 2284DOPS   C4A26798  19.125  30.366  14.067  0.4672  0.1259  0.1118
 2284DOPS   C1B26799  18.898  28.945  13.410 -0.0246  0.2059  0.2282
 2284DOPS   D2B26800  18.535  28.809  13.651  0.0556  0.0430  0.2049
 2284DOPS   C3B26801  18.122  29.053  13.569 -0.6529  0.1101  0.2980
 2284DOPS   C4B26802  17.652  29.194  13.454  0.0874  0.2666 -0.2828
 2285DOPC   NC326803  15.137  33.465  12.274 -0.2313 -0.0276 -0.2436
 2285DOPC   PO426804  15.150  33.031  12.315 -0.1241 -0.2481  0.1301
 2285DOPC   GL126805  14.881  33.105  12.624 -0.0409 -0.0696  0.4545
 2285DOPC   GL226806  14.574  33.092  12.538 -0.2042  0.1191  0.0324
 2285DOPC   C1A26807  14.694  33.021  13.041  0.2001  0.3390 -0.0589
 2285DOPC   D2A26808  14.312  32.956  13.238 -0.0024 -0.0038  0.1214
 2285DOPC   C3A26809  13.949  33.181  13.135 -0.0820  0.2537 -0.0058
 2285DOPC   C4A26810  13.495  33.119  13.144  0.0980 -0.1171  0.0178
 2285DOPC   C1B26811  14.191  32.949  12.783  0.1700  0.0693  0.2482
 2285DOPC   D2B26812  13.884  32.695  13.063  0.1217 -0.0267  0.1247
 2285DOPC   C3B26813  13.928  32.874  13.513  0.0748  0.1472  0.0474
 2285DOPC   C4B26814  13.778  32.846  13.910  0.3685 -0.1853  0.3670
 2286POSM   NC326815  12.106  28.805  12.731  0.0993  0.1231  0.2427
 2286POSM   PO426816  12.319  29.117  12.598 -0.1222  0.1751  0.0918
 2286POSM   AM126817  12.327  29.165  12.913  0.0873  0.0508 -0.0302
 2286POSM   AM226818  12.119  29.139  13.104 -0.0806  0.2180 -0.4025
 2286POSM   T1A26819  12.628  29.185  13.272 -0.1528 -0.1454  0.1876
 2286POSM   C2A26820  12.989  29.130  13.549 -0.2000 -0.1253 -0.2360
 2286POSM   C3A26821  13.282  28.908  13.692 -0.2105  0.0611 -0.2716
 2286POSM   C1B26822  12.102  28.840  13.293 -0.0126 -0.0737 -0.1225
 2286POSM   D2B26823  12.187  28.434  13.475 -0.1142  0.1307  0.1224
 2286POSM   C3B26824  12.467  28.311  13.788  0.0931  0.0130  0.1720
 2286POSM   C4B26825  12.653  28.121  14.134  0.0922 -0.2131 -0.1818
 2287DOPE   NH326826  17.500  26.516  13.040  0.0960 -0.1122 -0.0168
 2287DOPE   PO426827  17.805  26.584  12.956  0.0079 -0.0960  0.0624
 2287DOPE   GL126828  17.779  26.658  13.368  0.0475 -0.0783  0.1235
 2287DOPE   GL226829  17.635  26.894  13.400  0.0475  0.0599 -0.0607
 2287DOPE   C1A26830  17.469  26.341  13.560  0.0552  0.1524 -0.0281
 2287DOPE   D2A26831  17.148  26.711  13.435  0.3356  0.1071  0.0821
 2287DOPE   C3A26832  17.101  27.024  13.760 -0.2638 -0.2582  0.1023
 2287DOPE   C4A26833  17.351  27.185  14.117  0.0181 -0.0014 -0.2164
 2287DOPE   C1B26834  17.625  26.830  13.894 -0.0788  0.0375  0.1015
 2287DOPE   D2B26835  17.659  26.421  14.151  0.0252  0.0456  0.0722
 2287DOPE   C3B26836  17.439  26.419  14.553 -0.0623  0.1079  0.0298
 2287DOPE   C4B26837  17.281  26.325  15.006 -0.1923 -0.0297 -0.2121
 2288POSM   NC326838  12.807  30.659  11.989 -0.2710  0.0005  0.0627
 2288POSM   PO426839  12.895  30.654  12.374  0.0891 -0.1028 -0.1855
 2288POSM   AM126840  12.827  30.783  12.669  0.0489 -0.3258  0.0368
 2288POSM   AM226841  12.726  31.001  12.870 -0.1054 -0.5173 -0.1253
 2288POSM   T1A26842  12.660  30.614  13.160  0.2297  0.0779  0.3462
 2288POSM   C2A26843  12.602  30.780  13.590 -0.2378 -0.1699 -0.0229
 2288POSM   C3A26844  12.216  30.998  13.777 -0.0575  0.2075 -0.1420
 2288POSM   C1B26845  12.886  31.104  13.204  0.0676 -0.2424 -0.0345
 2288POSM   D2B26846  13.137  31.216  13.591 -0.1110  0.0184 -0.0133
 2288POSM   C3B26847  13.072  31.523  13.923 -0.2489  0.0136  0.2328
 2288POSM   C4B26848  13.228  31.964  13.952 -0.3247 -0.0943 -0.1327
 2289POSM   NC326849  15.516  31.360  12.148  0.1348  0.4608 -0.1340
 2289POSM   PO426850  15.675  30.993  12.052  0.1329 -0.3781 -0.0267
 2289POSM   AM126851  15.569  30.921  12.325 -0.2009 -0.1495 -0.0821
 2289POSM   AM226852  15.502  30.983  12.582  0.0688  0.2049 -0.3207
 2289POSM   T1A26853  15.065  30.780  12.511 -0.2929  0.1895  0.0313
 2289POSM   C2A26854  14.632  30.937  12.613 -0.0334  0.1596 -0.3892
 2289POSM   C3A26855  14.459  31.177  12.240 -0.2364  0.0384 -0.0625
 2289POSM   C1B26856  15.507  30.927  12.890 -0.0478 -0.0599 -0.1107
 2289POSM   D2B26857  15.432  30.734  13.295  0.2664  0.0418  0.1148
 2289POSM   C3B26858  15.067  30.936  13.498  0.1156 -0.0850  0.1549
 2289POSM   C4B26859  14.705  31.143  13.713  0.0230 -0.0125 -0.0022
 2290POSM   NC326860  13.577  29.878  12.371 -0.1456 -0.0278  0.1260
 2290POSM   PO426861  13.990  29.789  12.322  0.1289  0.3270 -0.1777
 2290POSM   AM126862  14.042  29.994  12.580 -0.1323 -0.1677  0.1855
 2290POSM   AM226863  13.900  30.232  12.597  0.0442  0.2716 -0.0918
 2290POSM   T1A26864  14.195  29.880  13.049 -0.0155 -0.3666  0.0380
 2290POSM   C2A26865  14.399  29.714  13.450 -0.1061  0.3503  0.0599
 2290POSM   C3A26866  14.802  29.500  13.659 -0.0805 -0.3742 -0.1315
 2290POSM   C1B26867  13.882  30.297  12.928  0.1785 -0.1852  0.2961
 2290POSM   D2B26868  14.088  30.364  13.340 -0.0159  0.1749  0.1015
 2290POSM   C3B26869  13.884  30.500  13.778 -0.1564 -0.0999  0.2364
 2290POSM   C4B26870  14.023  30.367  14.209  0.1047  0.1031  0.2393
 2291DOPS   CNO26871  21.359  29.485  12.096  0.1126  0.1219 -0.2853
 2291DOPS   PO426872  20.970  29.446  12.176  0.1944 -0.0630 -0.1480
 2291DOPS   GL126873  21.048  29.101  12.338 -0.0591  0.2247 -0.0056
 2291DOPS   GL226874  21.264  29.129  12.506  0.2721 -0.3393 -0.0736
 2291DOPS   C1A26875  21.206  28.663  12.329  0.1953 -0.0602  0.1620
 2291DOPS   D2A26876  21.334  28.281  12.557 -0.2607  0.2662 -0.2319
 2291DOPS   C3A26877  21.562  27.976  12.306 -0.0517  0.0320 -0.1690
 2291DOPS   C4A26878  21.547  27.547  12.503  0.0968  0.1483 -0.0242
 2291DOPS   C1B26879  21.396  28.829  12.773 -0.0743  0.1156 -0.1779
 2291DOPS   D2B26880  21.392  28.485  13.102 -0.3024 -0.1783  0.0332
 2291DOPS   C3B26881  21.559  28.116  12.952 -0.0719  0.5105  0.1621
 2291DOPS   C4B26882  21.443  27.668  13.038 -0.1077  0.0579 -0.0994
 2292POSM   NC326883  18.426  24.243  11.898 -0.4344 -0.0955 -0.0647
 2292POSM   PO426884  18.721  23.965  11.931  0.0236 -0.0886 -0.1527
 2292POSM   AM126885  18.545  23.913  12.193 -0.1839 -0.3972 -0.2937
 2292POSM   AM226886  18.456  23.785  12.426  0.1295  0.0562  0.1143
 2292POSM   T1A26887  18.180  24.233  12.347  0.1018  0.1006  0.3539
 2292POSM   C2A26888  18.108  24.703  12.294  0.0391  0.0397 -0.2416
 2292POSM   C3A26889  18.249  25.125  12.444 -0.0174  0.4181 -0.0357
 2292POSM   C1B26890  18.249  23.864  12.722 -0.2459  0.2702  0.2301
 2292POSM   D2B26891  17.811  24.060  12.781  0.3043 -0.1764  0.1397
 2292POSM   C3B26892  17.642  24.291  13.157  0.1286 -0.1420 -0.1922
 2292POSM   C4B26893  17.336  24.518  13.433 -0.0947  0.1243  0.1536
 2293DOPE   NH326894  23.236  26.339  12.468  0.2973  0.0308 -0.0335
 2293DOPE   PO426895  22.990  26.483  12.539 -0.0735  0.1874 -0.0952
 2293DOPE   GL126896  22.872  26.706  12.876 -0.4891 -0.2930  0.1489
 2293DOPE   GL226897  22.624  26.807  12.791  0.1105  0.0051  0.2234
 2293DOPE   C1A26898  22.752  26.585  13.362 -0.0244 -0.1005  0.1666
 2293DOPE   D2A26899  22.533  26.808  13.723 -0.1368 -0.1428 -0.1677
 2293DOPE   C3A26900  22.397  27.210  13.694  0.1016  0.0158  0.0338
 2293DOPE   C4A26901  22.335  27.506  14.026  0.1791  0.1403 -0.0347
 2293DOPE   C1B26902  22.267  26.997  12.550  0.1802  0.2519  0.2322
 2293DOPE   D2B26903  22.289  27.413  12.336 -0.2866  0.2113 -0.3027
 2293DOPE   C3B26904  22.027  27.740  12.514  0.0334  0.0852  0.1030
 2293DOPE   C4B26905  21.947  27.733  12.950  0.2150 -0.2126  0.1088
 2294DOPE   NH326906  22.432  33.569  12.131  0.1492  0.4676  0.1107
 2294DOPE   PO426907  22.588  33.679  12.387 -0.0251  0.1359 -0.0827
 2294DOPE   GL126908  22.622  33.604  12.830 -0.6608 -0.5227 -0.0908
 2294DOPE   GL226909  22.579  33.299  12.863  0.0434  0.1442  0.2230
 2294DOPE   C1A26910  22.897  33.647  13.232 -0.0542 -0.2282  0.1121
 2294DOPE   D2A26911  22.950  33.572  13.630 -0.3594 -0.4417 -0.1448
 2294DOPE   C3A26912  22.593  33.714  13.995 -0.1935 -0.2298  0.0600
 2294DOPE   C4A26913  22.309  34.039  14.220  0.0401 -0.2113  0.3024
 2294DOPE   C1B26914  22.232  33.024  13.135 -0.0750 -0.0831 -0.2821
 2294DOPE   D2B26915  21.966  33.079  13.543 -0.1267  0.1357  0.1655
 2294DOPE   C3B26916  22.142  32.956  13.928 -0.3310 -0.0209  0.3559
 2294DOPE   C4B26917  22.256  32.924  14.374 -0.0998 -0.1074 -0.1996
 2295DOPE   NH326918  16.069  30.702  12.265 -0.0011  0.0716 -0.0421
 2295DOPE   PO426919  16.031  30.635  12.556 -0.3297 -0.3292  0.1204
 2295DOPE   GL126920  16.311  30.375  12.568 -0.3265 -0.2537  0.0437
 2295DOPE   GL226921  16.408  30.262  12.343  0.0205 -0.3352 -0.3023
 2295DOPE   C1A26922  16.513  30.424  13.042  0.1751 -0.5214  0.1228
 2295DOPE   D2A26923  16.646  30.215  13.428  0.0813 -0.1344  0.1612
 2295DOPE   C3A26924  16.600  30.423  13.815  0.2487 -0.0439 -0.2356
 2295DOPE   C4A26925  16.389  30.538  14.199  0.1464 -0.0653 -0.1576
 2295DOPE   C1B26926  16.827  30.166  12.560  0.3179  0.0826 -0.1331
 2295DOPE   D2B26927  16.925  30.103  13.055  0.0616 -0.0862  0.1424
 2295DOPE   C3B26928  17.240  29.953  13.358 -0.1357  0.3143 -0.1363
 2295DOPE   C4B26929  17.681  29.867  13.562 -0.0053  0.1565  0.2801
 2296DOPE   NH326930  11.804  26.791  12.442  0.1025 -0.0739  0.0022
 2296DOPE   PO426931  11.897  26.824  12.151 -0.0576 -0.2282  0.2193
 2296DOPE   GL126932  12.026  26.522  12.089 -0.1628  0.0913  0.2321
 2296DOPE   GL226933  12.229  26.535  12.355 -0.0273 -0.1738  0.1434
 2296DOPE   C1A26934  12.420  26.554  11.869  0.1346  0.0372 -0.0129
 2296DOPE   D2A26935  12.887  26.523  11.907 -0.0607 -0.0195 -0.2368
 2296DOPE   C3A26936  13.251  26.205  11.930 -0.4882  0.0273 -0.1730
 2296DOPE   C4A26937  13.487  25.820  11.886  0.1395 -0.2200 -0.0304
 2296DOPE   C1B26938  12.441  26.148  12.214 -0.0451 -0.0919 -0.2680
 2296DOPE   D2B26939  12.758  26.048  11.901 -0.0238  0.1944  0.0930
 2296DOPE   C3B26940  12.793  25.682  11.589 -0.1838  0.0118  0.1557
 2296DOPE   C4B26941  12.668  25.244  11.590 -0.3655 -0.1606  0.0684
 2297POSM   NC326942  12.650  26.887  12.750 -0.1518 -0.1547  0.0513
 2297POSM   PO426943  12.748  26.863  12.303 -0.4705  0.0905  0.0661
 2297POSM   AM126944  12.925  26.583  12.441 -0.3617  0.1211  0.2064
 2297POSM   AM226945  13.033  26.504  12.672 -0.2450  0.0307  0.3325
 2297POSM   T1A26946  12.947  26.116  12.329  0.0955  0.0747  0.1537
 2297POSM   C2A26947  13.040  25.766  12.599 -0.0589  0.0475  0.0561
 2297POSM   C3A26948  12.853  25.656  13.005 -0.2189 -0.2170 -0.0360
 2297POSM   C1B26949  13.114  26.190  12.855  0.2001  0.2476 -0.0628
 2297POSM   D2B26950  13.318  25.828  13.082  0.1324 -0.1076 -0.5819
 2297POSM   C3B26951  13.795  25.856  13.100 -0.2827  0.1645 -0.1688
 2297POSM   C4B26952  14.197  25.985  13.207  0.1399  0.1759  0.1681
 2298DOPC   NC326953  22.201  32.872  12.662 -0.0218 -0.1481  0.0414
 2298DOPC   PO426954  22.334  32.699  12.357  0.1150  0.2642  0.0136
 2298DOPC   GL126955  22.090  32.410  12.289  0.3005 -0.3424 -0.2451
 2298DOPC   GL226956  22.140  32.260  12.045 -0.1293 -0.0858  0.2047
 2298DOPC   C1A26957  21.998  32.088  12.554 -0.2591 -0.3818 -0.1890
 2298DOPC   D2A26958  22.230  31.825  12.895 -0.0182 -0.0227 -0.0042
 2298DOPC   C3A26959  22.355  31.642  13.288 -0.2423 -0.1044  0.1938
 2298DOPC   C4A26960  22.198  31.632  13.749  0.0308  0.2333 -0.0517
 2298DOPC   C1B26961  21.725  32.081  12.167 -0.0236  0.1610  0.1601
 2298DOPC   D2B26962  21.523  32.109  12.582 -0.2112 -0.0833  0.0066
 2298DOPC   C3B26963  21.699  32.409  12.879 -0.2176 -0.2783 -0.0701
 2298DOPC   C4B26964  21.826  32.799  13.064 -0.1332  0.3367  0.0353
 2299DOPC   NC326965  17.759  32.899  12.654  0.1903 -0.1678  0.3155
 2299DOPC   PO426966  17.608  32.589  12.435 -0.0648 -0.0525 -0.2030
 2299DOPC   GL126967  17.644  32.546  12.888  0.1215 -0.1411  0.2055
 2299DOPC   GL226968  17.859  32.433  12.928 -0.0919 -0.0839 -0.4861
 2299DOPC   C1A26969  17.797  32.790  13.277  0.0257  0.0123 -0.0827
 2299DOPC   D2A26970  17.869  33.264  13.380 -0.3280 -0.1397  0.2810
 2299DOPC   C3A26971  18.279  33.434  13.569  0.3269  0.0004 -0.3049
 2299DOPC   C4A26972  18.460  33.591  13.980  0.1675 -0.0105 -0.4144
 2299DOPC   C1B26973  18.068  32.297  13.303  0.2095 -0.0951 -0.1690
 2299DOPC   D2B26974  18.201  32.133  13.671 -0.0170  0.2208 -0.0083
 2299DOPC   C3B26975  17.981  32.269  14.077  0.0785  0.1595 -0.1424
 2299DOPC   C4B26976  17.789  32.632  14.291  0.1283 -0.0266  0.4937
 2300POSM   NC326977  14.484  28.683  12.712 -0.0126 -0.3453 -0.0969
 2300POSM   PO426978  14.197  28.776  12.492 -0.0998 -0.3015 -0.1879
 2300POSM   AM126979  13.890  28.847  12.514 -0.5345  0.5714 -0.3368
 2300POSM   AM226980  13.783  28.908  12.721  0.1013 -0.0831  0.1125
 2300POSM   T1A26981  13.397  28.719  12.426 -0.2897  0.2084  0.1026
 2300POSM   C2A26982  12.964  28.701  12.506 -0.0828 -0.2524  0.1819
 2300POSM   C3A26983  12.520  28.500  12.382 -0.0714 -0.0266 -0.1896
 2300POSM   C1B26984  13.713  28.872  13.013  0.0150  0.2503  0.0328
 2300POSM   D2B26985  13.473  28.597  13.316  0.0344 -0.0548  0.1710
 2300POSM   C3B26986  13.080  28.576  13.391 -0.1077 -0.2015 -0.0067
 2300POSM   C4B26987  12.754  28.310  13.306 -0.0379 -0.2267 -0.0901
 2301POSM   NC326988  20.772  30.216  13.176 -0.2459 -0.1750 -0.2388
 2301POSM   PO426989  20.783  30.040  12.865 -0.0370 -0.2561 -0.1990
 2301POSM   AM126990  20.955  29.782  13.021 -0.1954 -0.4648  0.1778
 2301POSM   AM226991  21.156  29.802  13.184 -0.0771  0.2411  0.0473
 2301POSM   T1A26992  21.006  29.308  13.236 -0.1155  0.1380 -0.0583
 2301POSM   C2A26993  21.057  28.911  13.377 -0.4228  0.5068  0.0199
 2301POSM   C3A26994  21.024  28.552  13.535  0.0062  0.0075 -0.3747
 2301POSM   C1B26995  21.095  29.718  13.479  0.3737  0.1012 -0.3988
 2301POSM   D2B26996  21.066  29.887  13.932  0.2983  0.4081 -0.2356
 2301POSM   C3B26997  20.638  29.736  14.135  0.3112  0.2920  0.0457
 2301POSM   C4B26998  20.239  29.440  14.199  0.0552  0.0630 -0.1470
 2302DOPS   CNO26999  19.499  26.473  11.885 -0.3052  0.2558  0.2992
 2302DOPS   PO427000  19.595  26.136  12.048 -0.0505 -0.0388 -0.3876
 2302DOPS   GL127001  20.001  25.975  11.915 -0.1785 -0.1446 -0.1946
 2302DOPS   GL227002  20.093  26.273  12.011  0.4061  0.2321  0.2828
 2302DOPS   C1A27003  20.257  25.848  12.289 -0.1915 -0.0663 -0.2167
 2302DOPS   D2A27004  20.368  25.934  12.708  0.3817  0.0389  0.2174
 2302DOPS   C3A27005  20.036  25.990  13.057  0.2202 -0.5350  0.0373
 2302DOPS   C4A27006  19.781  26.198  13.419  0.0273 -0.1346  0.0108
 2302DOPS   C1B27007  20.518  26.265  12.089 -0.1445 -0.2453  0.2145
 2302DOPS   D2B27008  20.761  26.028  12.414  0.2934  0.1118  0.2500
 2302DOPS   C3B27009  20.917  25.965  12.862  0.2003 -0.2633 -0.4331
 2302DOPS   C4B27010  21.078  26.098  13.257  0.1264 -0.0239  0.3505
 2303DOPE   NH327011  19.265  31.095  12.398 -0.2946  0.3726 -0.0686
 2303DOPE   PO427012  19.251  31.025  12.685  0.2853 -0.0388  0.2462
 2303DOPE   GL127013  19.387  31.366  12.864 -0.0482 -0.0537  0.0561
 2303DOPE   GL227014  19.298  31.551  12.677  0.2093 -0.2503  0.1559
 2303DOPE   C1A27015  19.745  31.590  12.977  0.1927  0.0189 -0.1262
 2303DOPE   D2A27016  19.915  31.793  13.365 -0.1351 -0.0524 -0.1156
 2303DOPE   C3A27017  19.612  31.701  13.688  0.0588  0.1365  0.1671
 2303DOPE   C4A27018  19.215  31.487  13.792  0.0554 -0.0736 -0.0113
 2303DOPE   C1B27019  19.695  31.534  12.486  0.1394 -0.1001 -0.1465
 2303DOPE   D2B27020  20.133  31.624  12.509 -0.2167  0.1125  0.1952
 2303DOPE   C3B27021  20.501  31.892  12.377  0.2009  0.1620  0.2683
 2303DOPE   C4B27022  20.619  32.101  11.999  0.0999  0.0427 -0.0083
 2304DOPC   NC327023  19.637  28.677  12.407  0.0231 -0.0211 -0.1757
 2304DOPC   PO427024  19.276  28.817  12.314  0.0394  0.2426 -0.0106
 2304DOPC   GL127025  19.187  28.610  12.645 -0.1494  0.0935 -0.1295
 2304DOPC   GL227026  18.952  28.625  12.807  0.0479 -0.1402  0.0921
 2304DOPC   C1A27027  19.133  28.179  12.688 -0.1398  0.2063  0.1527
 2304DOPC   D2A27028  19.184  27.826  12.941 -0.0815 -0.0460 -0.0734
 2304DOPC   C3A27029  19.134  27.994  13.363 -0.3079 -0.1566 -0.2009
 2304DOPC   C4A27030  19.391  28.289  13.615  0.3342 -0.3497 -0.1369
 2304DOPC   C1B27031  18.520  28.548  12.643  0.3383  0.0728  0.2469
 2304DOPC   D2B27032  18.175  28.350  12.839 -0.0601 -0.1670 -0.2236
 2304DOPC   C3B27033  18.160  27.986  13.199 -0.0966  0.2517 -0.0261
 2304DOPC   C4B27034  18.225  27.901  13.677  0.0113  0.1401  0.1899
 2305DOPC   NC327035  16.432  30.799  12.697 -0.1859 -0.3261 -0.2789
 2305DOPC   PO427036  16.432  31.057  12.412 -0.3303  0.0293 -0.2117
 2305DOPC   GL127037  16.614  31.207  12.746 -0.3480 -0.1748 -0.0654
 2305DOPC   GL227038  16.813  31.105  12.698  0.0734 -0.1646 -0.0018
 2305DOPC   C1A27039  16.632  31.388  13.129  0.0712  0.2888 -0.2694
 2305DOPC   D2A27040  16.718  31.448  13.583 -0.1154  0.3056  0.2094
 2305DOPC   C3A27041  16.995  31.403  13.952  0.0890  0.0195  0.4066
 2305DOPC   C4A27042  17.296  31.119  14.187 -0.1113  0.0863 -0.2212
 2305DOPC   C1B27043  16.891  30.773  12.948 -0.1984 -0.3883 -0.0245
 2305DOPC   D2B27044  17.173  30.523  13.222 -0.3861 -0.0217  0.1286
 2305DOPC   C3B27045  17.118  30.328  13.682 -0.0810  0.0170  0.3938
 2305DOPC   C4B27046  17.191  30.000  13.965 -0.1772  0.1973  0.0904
 2306DOPC   NC327047  15.996  33.342  12.714 -0.1718 -0.0063  0.0803
 2306DOPC   PO427048  16.115  33.237  12.338 -0.2198 -0.1151  0.1939
 2306DOPC   GL127049  16.181  32.872  12.620 -0.0433 -0.2153 -0.1235
 2306DOPC   GL227050  16.032  32.908  12.859  0.0952 -0.2936  0.2802
 2306DOPC   C1A27051  16.485  32.598  12.845  0.0250 -0.1456 -0.1588
 2306DOPC   D2A27052  16.749  32.340  13.140  0.0816 -0.0787 -0.4818
 2306DOPC   C3A27053  16.606  31.900  13.198 -0.2329 -0.0291 -0.2941
 2306DOPC   C4A27054  16.277  31.689  13.359 -0.1109 -0.0667  0.1816
 2306DOPC   C1B27055  16.077  32.673  13.246 -0.1166  0.0422  0.1683
 2306DOPC   D2B27056  16.389  32.735  13.599  0.0377  0.2138 -0.0946
 2306DOPC   C3B27057  16.628  32.815  13.979  0.0244 -0.1533 -0.0044
 2306DOPC   C4B27058  16.976  32.985  14.255 -0.2414 -0.0993  0.0429
 2307DOPE   NH327059  19.894  23.939  11.854  0.1461  0.1964 -0.3579
 2307DOPE   PO427060  19.982  23.760  12.107  0.1772 -0.1377  0.1020
 2307DOPE   GL127061  19.944  23.999  12.406  0.0346 -0.1556  0.0376
 2307DOPE   GL227062  19.791  24.183  12.298  0.0668 -0.0157 -0.1144
 2307DOPE   C1A27063  19.688  23.929  12.768 -0.1037  0.0422  0.2266
 2307DOPE   D2A27064  19.264  23.810  12.709 -0.1800 -0.1304  0.1578
 2307DOPE   C3A27065  19.127  24.237  12.728 -0.2616  0.0993  0.0690
 2307DOPE   C4A27066  18.914  24.583  12.946  0.2919 -0.0727 -0.0299
 2307DOPE   C1B27067  19.561  24.487  12.472  0.2947 -0.1610 -0.0805
 2307DOPE   D2B27068  19.541  24.665  12.949  0.2213 -0.0875 -0.1530
 2307DOPE   C3B27069  19.308  24.627  13.351  0.2065  0.0410  0.2407
 2307DOPE   C4B27070  19.044  24.693  13.704  0.1903 -0.1612 -0.2838
 2308DOPC   NC327071  23.226  31.008  12.263  0.0380  0.2828 -0.2918
 2308DOPC   PO427072  23.022  31.046  12.586  0.1144  0.1113 -0.1567
 2308DOPC   GL127073  22.869  30.846  12.913 -0.0023  0.0447 -0.1476
 2308DOPC   GL227074  22.655  30.959  12.977 -0.2352  0.1603 -0.1389
 2308DOPC   C1A27075  22.896  30.744  13.381 -0.0468 -0.0359  0.0057
 2308DOPC   D2A27076  22.884  30.924  13.816  0.1973 -0.1255 -0.2561
 2308DOPC   C3A27077  22.819  31.067  14.295  0.0739 -0.1092  0.0354
 2308DOPC   C4A27078  22.632  31.306  14.731  0.0216  0.0975  0.0943
 2308DOPC   C1B27079  22.433  30.768  13.337  0.0047  0.1371 -0.2530
 2308DOPC   D2B27080  22.386  30.620  13.767 -0.0585 -0.0977  0.1951
 2308DOPC   C3B27081  22.348  30.932  14.125 -0.3598 -0.0810  0.0827
 2308DOPC   C4B27082  22.093  31.352  14.201 -0.3279  0.2150  0.3208
 2309POSM   NC327083  14.202  27.152  12.672 -0.0588  0.4042  0.1463
 2309POSM   PO427084  14.386  27.199  12.334  0.1283  0.1317 -0.0810
 2309POSM   AM127085  14.735  27.215  12.341  0.1734 -0.1828 -0.0207
 2309POSM   AM227086  15.039  27.108  12.260  0.0878  0.0387 -0.0794
 2309POSM   T1A27087  15.061  27.591  12.424 -0.0895 -0.0596  0.0034
 2309POSM   C2A27088  15.432  27.694  12.668  0.2359  0.0611  0.1628
 2309POSM   C3A27089  15.912  27.790  12.735  0.0440 -0.2604 -0.0260
 2309POSM   C1B27090  15.026  27.035  12.621  0.2083 -0.0315  0.0697
 2309POSM   D2B27091  15.110  26.712  12.886 -0.0909  0.0833  0.1897
 2309POSM   C3B27092  15.009  26.811  13.312 -0.2526 -0.2913  0.1824
 2309POSM   C4B27093  15.041  27.201  13.559  0.3238  0.2828  0.0336
 2310DOPS   CNO27094  13.462  23.344  11.903  0.0051  0.1899 -0.0382
 2310DOPS   PO427095  13.853  23.368  11.891 -0.1045  0.2839  0.1833
 2310DOPS   GL127096  13.733  23.045  12.066 -0.0674  0.2203  0.1420
 2310DOPS   GL227097  13.964  22.958  12.251  0.0431  0.2120  0.0325
 2310DOPS   C1A27098  13.521  22.676  12.210 -0.1092  0.1369 -0.0874
 2310DOPS   D2A27099  13.535  22.311  12.428  0.0391 -0.0267  0.1557
 2310DOPS   C3A27100  13.839  21.978  12.220 -0.0680  0.1231  0.3392
 2310DOPS   C4A27101  13.882  21.706  11.869 -0.0202  0.0670  0.0659
 2310DOPS   C1B27102  13.965  22.563  12.443  0.2732  0.0976  0.1580
 2310DOPS   D2B27103  13.948  22.218  12.728  0.0037  0.2264  0.0416
 2310DOPS   C3B27104  14.409  22.230  12.884  0.2200  0.0585 -0.0972
 2310DOPS   C4B27105  14.808  22.307  13.124 -0.1721 -0.1793  0.0099
 2311DOPE   NH327106  14.284  29.298  12.191  0.1867  0.0269 -0.0911
 2311DOPE   PO427107  14.087  29.329  12.464 -0.1175 -0.1027  0.2971
 2311DOPE   GL127108  13.906  29.475  12.779  0.1305 -0.0551  0.1775
 2311DOPE   GL227109  13.732  29.733  12.892 -0.0968  0.0834  0.1043
 2311DOPE   C1A27110  13.455  29.328  12.705 -0.3370 -0.0292  0.1495
 2311DOPE   D2A27111  13.254  28.961  12.832  0.0094  0.1079  0.2769
 2311DOPE   C3A27112  13.242  28.469  12.865 -0.3417  0.0149 -0.1944
 2311DOPE   C4A27113  13.242  28.162  13.172  0.1039  0.1317 -0.1584
 2311DOPE   C1B27114  13.590  29.616  13.280 -0.0425  0.0405  0.1255
 2311DOPE   D2B27115  13.510  29.446  13.736  0.0978 -0.2197  0.0634
 2311DOPE   C3B27116  13.146  29.343  13.969 -0.0803 -0.0305  0.0322
 2311DOPE   C4B27117  13.078  29.007  14.298  0.0756  0.4381  0.0800
 2312POSM   NC327118  11.717  26.713  11.689 -0.1790 -0.3948 -0.2842
 2312POSM   PO427119  11.440  26.716  11.993 -0.1205  0.1405 -0.1955
 2312POSM   AM127120  11.606  26.438  12.053 -0.1759 -0.0724  0.1609
 2312POSM   AM227121  11.720  26.232  11.826  0.0929 -0.0957 -0.0428
 2312POSM   T1A27122  11.862  26.166  12.394  0.1710  0.0225  0.0026
 2312POSM   C2A27123  12.172  25.938  12.578  0.1324  0.0490 -0.0479
 2312POSM   C3A27124  12.604  26.156  12.741  0.0129 -0.1798 -0.1109
 2312POSM   C1B27125  11.975  26.073  11.962  0.1290  0.0043 -0.0218
 2312POSM   D2B27126  12.219  25.714  12.138  0.0171 -0.1981 -0.1686
 2312POSM   C3B27127  12.697  25.682  12.206 -0.0753  0.2993 -0.1706
 2312POSM   C4B27128  13.043  25.325  12.092 -0.0951  0.0785  0.1663
 2313DOPC   NC327129  17.964  27.547  12.838  0.1931 -0.1470  0.3654
 2313DOPC   PO427130  17.832  27.864  12.638 -0.3143 -0.2731 -0.3965
 2313DOPC   GL127131  17.647  28.103  12.869 -0.4233 -0.1125  0.0602
 2313DOPC   GL227132  17.393  28.090  12.696 -0.0245  0.0597  0.2746
 2313DOPC   C1A27133  17.737  28.504  13.098 -0.1077 -0.0747 -0.2299
 2313DOPC   D2A27134  17.621  28.709  13.517 -0.0623 -0.1172 -0.0172
 2313DOPC   C3A27135  17.457  28.488  13.872 -0.2889  0.0962 -0.0315
 2313DOPC   C4A27136  17.636  28.105  14.124  0.0603  0.4153  0.4437
 2313DOPC   C1B27137  17.206  28.380  12.962 -0.1331 -0.3427  0.2474
 2313DOPC   D2B27138  17.319  28.804  13.084  0.1289  0.0862 -0.1921
 2313DOPC   C3B27139  17.151  28.869  13.510  0.0742 -0.1820  0.0661
 2313DOPC   C4B27140  17.336  28.994  13.883  0.1198 -0.0379 -0.1613
 2314DOPS   CNO27141  13.984  23.853  11.868  0.1035  0.2088 -0.0344
 2314DOPS   PO427142  14.157  23.916  12.228 -0.1151  0.1533 -0.0205
 2314DOPS   GL127143  14.109  23.988  12.635 -0.3619  0.1595 -0.1795
 2314DOPS   GL227144  13.907  23.811  12.736  0.0767 -0.0481  0.4183
 2314DOPS   C1A27145  14.204  24.017  13.159  0.3796  0.1984  0.0231
 2314DOPS   D2A27146  14.295  24.043  13.650  0.0313  0.3957 -0.1063
 2314DOPS   C3A27147  13.964  23.743  13.687  0.1506 -0.0185 -0.0971
 2314DOPS   C4A27148  13.658  23.449  13.484  0.1222 -0.2369 -0.0562
 2314DOPS   C1B27149  14.115  23.519  13.043 -0.2732 -0.0938 -0.0799
 2314DOPS   D2B27150  14.285  23.421  13.446  0.0902 -0.2338  0.2284
 2314DOPS   C3B27151  14.309  23.410  13.847 -0.0707  0.0702 -0.2223
 2314DOPS   C4B27152  14.321  23.795  14.150  0.4414 -0.1826  0.4016
 2315DOPC   NC327153  13.809  28.401  12.478  0.0718 -0.0382 -0.0610
 2315DOPC   PO427154  13.689  27.999  12.567 -0.0208  0.0156 -0.0256
 2315DOPC   GL127155  13.663  27.794  12.933 -0.1422  0.3132 -0.2599
 2315DOPC   GL227156  13.836  27.551  12.922  0.1569  0.0755 -0.1377
 2315DOPC   C1A27157  13.757  28.099  13.233 -0.3164  0.1537 -0.0993
 2315DOPC   D2A27158  13.525  28.149  13.617 -0.0978  0.4546 -0.2556
 2315DOPC   C3A27159  13.540  28.553  13.803 -0.1776  0.0378  0.0333
 2315DOPC   C4A27160  13.752  28.844  14.116  0.0637 -0.0100  0.0952
 2315DOPC   C1B27161  13.828  27.298  13.284 -0.0507 -0.3086 -0.0204
 2315DOPC   D2B27162  13.904  27.266  13.746  0.2764  0.0354  0.2150
 2315DOPC   C3B27163  14.316  27.506  13.811 -0.0539 -0.0406 -0.0684
 2315DOPC   C4B27164  14.765  27.635  13.856  0.0755  0.1240 -0.3019
 2316DOPC   NC327165  17.197  27.088  13.004  0.3920  0.0935  0.0132
 2316DOPC   PO427166  17.304  26.793  12.732 -0.0864  0.2506 -0.0693
 2316DOPC   GL127167  16.895  26.707  12.829 -0.0968 -0.0150 -0.2588
 2316DOPC   GL227168  16.641  26.649  12.626  0.2257  0.0964  0.0027
 2316DOPC   C1A27169  16.602  26.607  13.169 -0.0971  0.0368  0.1165
 2316DOPC   D2A27170  16.260  26.380  13.338 -0.0215  0.1461  0.0606
 2316DOPC   C3A27171  16.140  26.655  13.684 -0.0905  0.4409  0.1236
 2316DOPC   C4A27172  16.210  26.738  14.088 -0.1495  0.1495 -0.0066
 2316DOPC   C1B27173  16.409  27.017  12.505  0.2883  0.2611  0.4205
 2316DOPC   D2B27174  15.997  27.198  12.567  0.1788  0.3396  0.0254
 2316DOPC   C3B27175  15.545  26.990  12.733 -0.2256 -0.0270 -0.3529
 2316DOPC   C4B27176  15.639  26.662  13.041 -0.2442 -0.1408 -0.0317
 2317DOPE   NH327177  18.608  26.401  12.603 -0.1553  0.1315 -0.1721
 2317DOPE   PO427178  18.629  26.242  12.340 -0.2294 -0.1551  0.1868
 2317DOPE   GL127179  18.563  26.000  12.749  0.1656 -0.1222  0.2142
 2317DOPE   GL227180  18.255  25.865  12.785  0.0222 -0.0860 -0.0356
 2317DOPE   C1A27181  18.878  25.971  13.107 -0.4585  0.1542  0.0821
 2317DOPE   D2A27182  18.556  26.012  13.456  0.1756  0.1376  0.2255
 2317DOPE   C3A27183  18.594  26.184  13.851  0.1637 -0.0870  0.2146
 2317DOPE   C4A27184  18.550  26.493  14.183  0.1574  0.0353  0.0317
 2317DOPE   C1B27185  18.466  25.634  13.117 -0.0061  0.3582 -0.0215
 2317DOPE   D2B27186  18.502  25.317  13.407 -0.0327  0.0159  0.0450
 2317DOPE   C3B27187  18.951  25.376  13.523  0.1843 -0.2473  0.0053
 2317DOPE   C4B27188  19.324  25.137  13.515 -0.2292  0.0729  0.1939
 2318DOPC   NC327189  13.365  26.696  12.129  0.0994  0.1263  0.0910
 2318DOPC   PO427190  13.374  26.852  12.517  0.2365 -0.0382  0.2178
 2318DOPC   GL127191  13.524  26.487  12.557 -0.2014 -0.3580  0.0638
 2318DOPC   GL227192  13.761  26.611  12.669  0.0553  0.0096 -0.3254
 2318DOPC   C1A27193  13.500  26.051  12.401  0.0191 -0.0589  0.2171
 2318DOPC   D2A27194  13.566  25.638  12.319  0.0728  0.3620  0.2509
 2318DOPC   C3A27195  13.688  25.330  12.618  0.0598  0.0568 -0.2083
 2318DOPC   C4A27196  13.900  24.905  12.742 -0.0804 -0.0494 -0.1602
 2318DOPC   C1B27197  13.594  26.382  13.068  0.0983  0.0362  0.2179
 2318DOPC   D2B27198  13.312  26.266  13.424 -0.0068 -0.0449 -0.1816
 2318DOPC   C3B27199  13.274  26.057  13.798 -0.0160  0.1534 -0.0619
 2318DOPC   C4B27200  13.130  26.321  14.134 -0.1278  0.1259 -0.0977
 2319DOPC   NC327201  19.507  34.212  12.094 -0.1788  0.0315  0.3036
 2319DOPC   PO427202  19.839  34.347  12.306 -0.0287  0.2381 -0.2221
 2319DOPC   GL127203  19.742  34.322  12.629  0.2611 -0.1586 -0.0035
 2319DOPC   GL227204  19.682  34.601  12.715 -0.0800  0.1941  0.3339
 2319DOPC   C1A27205  19.541  34.180  12.992  0.0077 -0.3437  0.0486
 2319DOPC   D2A27206  19.189  33.874  13.073  0.2293  0.1902 -0.0113
 2319DOPC   C3A27207  19.188  33.398  13.079  0.1502  0.0196 -0.0950
 2319DOPC   C4A27208  18.878  33.083  12.963 -0.0586  0.2604 -0.2938
 2319DOPC   C1B27209  19.925  34.442  13.110  0.1641  0.1130 -0.1911
 2319DOPC   D2B27210  20.124  34.380  13.473 -0.0389 -0.0251  0.0981
 2319DOPC   C3B27211  20.306  33.962  13.644  0.1898 -0.1527  0.4171
 2319DOPC   C4B27212  20.158  33.518  13.476 -0.0704  0.0557 -0.3144
 2320POSM   NC327213  16.588  33.095  12.705  0.0517 -0.0508  0.4228
 2320POSM   PO427214  16.934  33.211  12.859  0.1552  0.0776 -0.2388
 2320POSM   AM127215  16.943  33.398  13.087 -0.1455 -0.1575 -0.0618
 2320POSM   AM227216  17.023  33.631  13.148 -0.1400  0.3689 -0.0614
 2320POSM   T1A27217  17.276  33.375  13.521  0.1573  0.2151  0.0734
 2320POSM   C2A27218  17.590  33.420  13.848  0.1265  0.0111 -0.0962
 2320POSM   C3A27219  17.993  33.509  14.149  0.0886 -0.1283 -0.0172
 2320POSM   C1B27220  16.923  33.730  13.464  0.1799 -0.1396 -0.2264
 2320POSM   D2B27221  16.824  33.696  13.938 -0.1422  0.0012 -0.3244
 2320POSM   C3B27222  16.441  33.447  14.113  0.0837 -0.1314  0.2094
 2320POSM   C4B27223  16.216  33.104  13.972 -0.0973  0.1319  0.0846
 2321DOPE   NH327224  17.505  27.652  12.311  0.0420  0.0999  0.1922
 2321DOPE   PO427225  17.496  27.486  12.577  0.1362 -0.0940  0.1119
 2321DOPE   GL127226  17.392  27.645  12.882  0.0270 -0.0638  0.1798
 2321DOPE   GL227227  17.114  27.706  12.776 -0.2038  0.1014  0.2260
 2321DOPE   C1A27228  17.225  27.944  13.232  0.1814 -0.0393 -0.1837
 2321DOPE   D2A27229  17.188  28.403  13.429  0.2739  0.2044  0.0601
 2321DOPE   C3A27230  16.960  28.457  13.772  0.1795  0.5819 -0.3235
 2321DOPE   C4A27231  16.564  28.283  13.966  0.0562 -0.0253 -0.1012
 2321DOPE   C1B27232  16.939  27.511  13.205 -0.1605 -0.1669 -0.0978
 2321DOPE   D2B27233  16.783  27.416  13.614  0.0616 -0.0220 -0.3712
 2321DOPE   C3B27234  16.634  27.022  13.794 -0.1039 -0.0466 -0.1312
 2321DOPE   C4B27235  16.686  26.850  14.239 -0.0610 -0.2699  0.0595
 2322DOPS   CNO27236  17.657  26.951  12.126  0.3251  0.0968  0.0358
 2322DOPS   PO427237  17.344  27.140  12.252 -0.0116  0.3212  0.1282
 2322DOPS   GL127238  17.075  27.264  12.544  0.2708  0.1964 -0.0482
 2322DOPS   GL227239  16.922  27.023  12.508 -0.2531 -0.0310  0.0137
 2322DOPS   C1A27240  16.723  27.582  12.563 -0.0700 -0.1421 -0.3271
 2322DOPS   D2A27241  16.400  27.911  12.595 -0.1887 -0.0000 -0.3573
 2322DOPS   C3A27242  16.239  28.097  12.996  0.0998  0.1576 -0.1641
 2322DOPS   C4A27243  16.159  27.937  13.406 -0.4116  0.5437 -0.1486
 2322DOPS   C1B27244  16.661  27.149  12.918 -0.1423 -0.0053  0.0331
 2322DOPS   D2B27245  16.485  27.487  13.203 -0.2953 -0.0148  0.1200
 2322DOPS   C3B27246  16.276  27.511  13.645 -0.2030  0.1512  0.1858
 2322DOPS   C4B27247  16.197  27.245  14.001  0.2137 -0.5409  0.2014
 2323DOPC   NC327248  16.485  33.597  13.284  0.0377 -0.1217 -0.1178
 2323DOPC   PO427249  16.473  33.488  12.889 -0.0207  0.0300  0.1049
 2323DOPC   GL127250  16.243  33.900  12.893 -0.2295  0.2595 -0.1726
 2323DOPC   GL227251  16.011  33.813  12.830 -0.0492 -0.0275  0.0637
 2323DOPC   C1A27252  16.157  34.291  13.131 -0.0871 -0.0510  0.1671
 2323DOPC   D2A27253  16.403  34.574  13.348 -0.0100 -0.2938  0.1347
 2323DOPC   C3A27254  16.478  34.947  13.619 -0.1662  0.1964 -0.0465
 2323DOPC   C4A27255  16.287  35.341  13.737  0.3407 -0.0789  0.1561
 2323DOPC   C1B27256  16.004  33.810  13.309 -0.2872 -0.1623 -0.4799
 2323DOPC   D2B27257  16.108  33.638  13.746  0.1235  0.0024 -0.1065
 2323DOPC   C3B27258  16.009  33.978  14.082 -0.3247  0.1840 -0.1191
 2323DOPC   C4B27259  15.943  34.398  14.203  0.2861 -0.1926 -0.0669
 2324DOPE   NH327260  13.114  27.209  12.262  0.2462  0.0347 -0.1351
 2324DOPE   PO427261  13.001  27.236  12.577  0.0740 -0.1031  0.0416
 2324DOPE   GL127262  12.957  27.193  12.968  0.4873  0.2286 -0.0116
 2324DOPE   GL227263  12.834  27.415  13.045  0.3107  0.0514  0.1638
 2324DOPE   C1A27264  12.626  26.991  13.248 -0.0200  0.2045  0.2872
 2324DOPE   D2A27265  12.210  26.977  13.237 -0.2614  0.3679 -0.1108
 2324DOPE   C3A27266  11.931  27.180  13.596  0.0286  0.1959 -0.0653
 2324DOPE   C4A27267  11.761  27.184  14.005 -0.0158 -0.0568 -0.1063
 2324DOPE   C1B27268  12.932  27.462  13.507  0.1517  0.2548 -0.0159
 2324DOPE   D2B27269  12.751  27.130  13.698  0.0866 -0.0568  0.0548
 2324DOPE   C3B27270  12.360  26.871  13.761  0.1172 -0.2181  0.5372
 2324DOPE   C4B27271  11.937  26.667  13.872 -0.2319  0.0681  0.2469
 2325DOPE   NH327272  18.746  29.604  12.733  0.3493  0.2221  0.0006
 2325DOPE   PO427273  18.725  29.517  12.409  0.1282  0.1840 -0.1188
 2325DOPE   GL127274  18.418  29.215  12.438  0.2519 -0.1360  0.1232
 2325DOPE   GL227275  18.233  29.344  12.577  0.0155  0.0066  0.0888
 2325DOPE   C1A27276  18.137  28.877  12.599 -0.2642  0.1413 -0.0978
 2325DOPE   D2A27277  17.674  28.733  12.604  0.2466  0.2019  0.1769
 2325DOPE   C3A27278  17.377  29.101  12.727 -0.1014 -0.3246 -0.3540
 2325DOPE   C4A27279  17.053  29.248  13.071  0.4271 -0.0387 -0.1393
 2325DOPE   C1B27280  18.214  29.359  13.026  0.0399  0.1323  0.2727
 2325DOPE   D2B27281  18.139  29.549  13.452  0.2583 -0.1488 -0.0791
 2325DOPE   C3B27282  18.004  29.542  13.885  0.2750  0.2060 -0.0563
 2325DOPE   C4B27283  17.906  29.762  14.263 -0.1621 -0.1926  0.0728
 2326POSM   NC327284  21.805  29.992  12.412  0.0981 -0.2466  0.1502
 2326POSM   PO427285  21.522  30.196  12.552 -0.0643  0.1361 -0.2625
 2326POSM   AM127286  21.642  30.421  12.782  0.0930  0.1594  0.0271
 2326POSM   AM227287  21.729  30.662  12.775  0.2774  0.1605  0.3415
 2326POSM   T1A27288  21.846  30.432  13.233 -0.0418  0.2288 -0.3195
 2326POSM   C2A27289  21.807  30.695  13.611 -0.0732  0.0338 -0.2194
 2326POSM   C3A27290  21.912  30.988  13.893  0.0301  0.1722  0.4947
 2326POSM   C1B27291  21.513  30.741  13.078 -0.1263 -0.0054  0.1807
 2326POSM   D2B27292  21.356  30.643  13.459  0.0612  0.2671 -0.1024
 2326POSM   C3B27293  21.169  31.035  13.600  0.2250 -0.1491  0.1827
 2326POSM   C4B27294  20.885  31.164  14.037 -0.1352 -0.1546 -0.0826
 2327POSM   NC327295  22.061  33.714  12.579 -0.3732 -0.3715  0.0047
 2327POSM   PO427296  22.190  33.354  12.577 -0.1641 -0.0143  0.0874
 2327POSM   AM127297  21.992  33.262  12.821 -0.4547  0.0741 -0.0819
 2327POSM   AM227298  21.993  33.425  13.082  0.0870  0.0498 -0.1141
 2327POSM   T1A27299  21.559  33.210  13.063  0.1227 -0.0015  0.2943
 2327POSM   C2A27300  21.264  32.930  13.355  0.4217  0.1945 -0.0123
 2327POSM   C3A27301  20.848  32.868  13.539 -0.1276 -0.1650 -0.2735
 2327POSM   C1B27302  21.816  33.586  13.337 -0.3574 -0.0615  0.4310
 2327POSM   D2B27303  21.598  33.777  13.686 -0.3676 -0.3005 -0.2962
 2327POSM   C3B27304  21.222  33.518  13.768  0.2368  0.0462  0.1236
 2327POSM   C4B27305  21.111  33.085  13.870 -0.3189 -0.1581 -0.0277
 2328DOPC   NC327306  12.031  27.749  12.753 -0.1018 -0.0990  0.2123
 2328DOPC   PO427307  12.263  27.769  12.405  0.2031 -0.1061  0.2850
 2328DOPC   GL127308  12.491  27.667  12.739  0.4605  0.1098 -0.3362
 2328DOPC   GL227309  12.772  27.721  12.607 -0.0874  0.0674  0.1414
 2328DOPC   C1A27310  12.317  27.446  13.128  0.1615 -0.0493 -0.1067
 2328DOPC   D2A27311  12.338  27.430  13.622 -0.0122  0.1274 -0.0513
 2328DOPC   C3A27312  12.569  27.661  13.966  0.0473  0.2218  0.0305
 2328DOPC   C4A27313  12.946  27.684  14.208 -0.1330  0.0438  0.0648
 2328DOPC   C1B27314  12.662  27.864  13.067 -0.2417  0.1376  0.2121
 2328DOPC   D2B27315  12.537  27.849  13.519 -0.3495 -0.1995  0.1851
 2328DOPC   C3B27316  12.958  27.997  13.698  0.3386 -0.1592 -0.0571
 2328DOPC   C4B27317  13.104  28.407  13.870  0.0177 -0.0332 -0.2987
 2329DOPC   NC327318  16.906  32.921  13.227  0.1931 -0.3172 -0.1570
 2329DOPC   PO427319  16.560  33.071  13.181  0.0007 -0.1290  0.0285
 2329DOPC   GL127320  16.154  33.097  13.339 -0.1580 -0.1094  0.1745
 2329DOPC   GL227321  15.929  33.282  13.220 -0.0255 -0.0910 -0.1691
 2329DOPC   C1A27322  15.755  32.958  13.595 -0.0599  0.0457  0.0015
 2329DOPC   D2A27323  15.276  33.013  13.717 -0.0387 -0.1035 -0.1421
 2329DOPC   C3A27324  15.209  33.181  14.146  0.3236  0.0411 -0.2278
 2329DOPC   C4A27325  15.298  33.320  14.563  0.5231 -0.0083  0.1207
 2329DOPC   C1B27326  15.672  33.488  13.539  0.1275 -0.0539  0.2662
 2329DOPC   D2B27327  15.322  33.569  13.778  0.4508 -0.3163 -0.0880
 2329DOPC   C3B27328  15.234  33.818  14.207  0.1680  0.1658  0.3169
 2329DOPC   C4B27329  15.114  33.763  14.634 -0.0512 -0.0363 -0.3030
 2330DOPC   NC327330  19.122  30.531  12.704  0.3991 -0.1937 -0.4649
 2330DOPC   PO427331  18.891  30.414  12.401  0.1351 -0.0915 -0.0357
 2330DOPC   GL127332  18.564  30.583  12.354  0.0196  0.4570 -0.1550
 2330DOPC   GL227333  18.687  30.893  12.432  0.1306 -0.2074 -0.1796
 2330DOPC   C1A27334  18.178  30.709  12.535  0.0677 -0.0320 -0.3452
 2330DOPC   D2A27335  18.030  30.912  12.902  0.2377 -0.3263  0.1375
 2330DOPC   C3A27336  18.334  30.805  13.277 -0.1027  0.2447  0.0770
 2330DOPC   C4A27337  18.396  30.452  13.525  0.4375  0.3174 -0.0321
 2330DOPC   C1B27338  18.707  30.787  12.904  0.0264 -0.1094 -0.1216
 2330DOPC   D2B27339  18.942  30.709  13.320  0.1758  0.0819 -0.0484
 2330DOPC   C3B27340  18.811  30.627  13.717 -0.1510  0.2511  0.2659
 2330DOPC   C4B27341  18.548  30.325  13.958  0.1563 -0.1596 -0.0564
 2331POSM   NC327342  14.769  26.722  12.126  0.1315  0.2129  0.1989
 2331POSM   PO427343  15.016  26.603  11.856  0.0519 -0.1859 -0.0497
 2331POSM   AM127344  15.227  26.642  12.089  0.1910 -0.2795 -0.2870
 2331POSM   AM227345  15.271  26.614  12.374  0.1684  0.1539  0.1308
 2331POSM   T1A27346  15.582  26.927  12.237  0.1311 -0.0953  0.0001
 2331POSM   C2A27347  15.709  27.360  12.190 -0.0148 -0.2175 -0.2509
 2331POSM   C3A27348  16.121  27.596  12.185 -0.2728 -0.3465  0.1808
 2331POSM   C1B27349  15.223  26.242  12.346 -0.0431 -0.0860  0.1479
 2331POSM   D2B27350  14.879  25.925  12.179  0.2293 -0.3669  0.0972
 2331POSM   C3B27351  14.423  25.827  12.010 -0.1608 -0.0859 -0.1430
 2331POSM   C4B27352  13.984  25.896  12.096 -0.0599 -0.0911 -0.2521
 2332DOPC   NC327353  12.783  33.748  12.740 -0.1060  0.1504  0.4064
 2332DOPC   PO427354  12.857  33.600  12.390 -0.1610 -0.1037  0.0224
 2332DOPC   GL127355  13.173  33.435  12.666 -0.1566  0.1351 -0.1944
 2332DOPC   GL227356  13.267  33.639  12.872 -0.0561  0.1390  0.2265
 2332DOPC   C1A27357  13.026  33.256  13.092  0.3005 -0.0628 -0.1469
 2332DOPC   D2A27358  13.264  33.441  13.461 -0.5131 -0.3234  0.0220
 2332DOPC   C3A27359  13.664  33.290  13.590 -0.1772  0.0771  0.1824
 2332DOPC   C4A27360  14.047  33.292  13.931  0.0323 -0.0785 -0.1758
 2332DOPC   C1B27361  13.653  33.633  13.173 -0.0339  0.3138  0.1630
 2332DOPC   D2B27362  13.975  33.614  13.512  0.0493  0.0311 -0.0450
 2332DOPC   C3B27363  13.910  33.962  13.792 -0.2181 -0.2053 -0.1215
 2332DOPC   C4B27364  13.682  34.040  14.169  0.2494  0.0686 -0.1023
 2333POSM   NC327365  22.903  27.135  11.925 -0.0383  0.2028  0.1681
 2333POSM   PO427366  22.913  27.199  12.293 -0.5372 -0.2331  0.0171
 2333POSM   AM127367  22.718  27.429  12.436  0.0016  0.2592  0.0751
 2333POSM   AM227368  22.770  27.699  12.488 -0.1178 -0.0678  0.1708
 2333POSM   T1A27369  22.404  27.477  12.839  0.1578  0.1171  0.1042
 2333POSM   C2A27370  22.491  27.640  13.298 -0.1427 -0.1846 -0.0300
 2333POSM   C3A27371  22.683  27.851  13.693  0.3376 -0.1783  0.0626
 2333POSM   C1B27372  22.500  27.929  12.483  0.3836 -0.0177 -0.3461
 2333POSM   D2B27373  22.314  28.319  12.461 -0.1346 -0.1686 -0.0920
 2333POSM   C3B27374  21.899  28.258  12.618 -0.1461  0.1908  0.1165
 2333POSM   C4B27375  21.826  28.541  12.917 -0.1960  0.1582  0.0347
 2334DOPS   CNO27376  21.171  24.717  11.940  0.2098  0.1471  0.0476
 2334DOPS   PO427377  20.861  24.817  11.700 -0.0255  0.1107 -0.0394
 2334DOPS   GL127378  20.723  24.916  12.135  0.2119 -0.0884  0.1448
 2334DOPS   GL227379  20.531  25.133  12.094 -0.0621  0.1040  0.1688
 2334DOPS   C1A27380  20.812  24.840  12.556 -0.0794 -0.4028  0.0677
 2334DOPS   D2A27381  20.636  24.966  12.927  0.1476 -0.1827 -0.1518
 2334DOPS   C3A27382  20.769  24.988  13.355 -0.1635  0.3610 -0.3949
 2334DOPS   C4A27383  21.005  25.129  13.678 -0.1679  0.0460  0.2912
 2334DOPS   C1B27384  20.583  25.271  12.509 -0.0419 -0.1936  0.2081
 2334DOPS   D2B27385  20.744  25.498  12.897  0.1775  0.1245  0.0882
 2334DOPS   C3B27386  20.453  25.723  13.141  0.0800 -0.0331  0.4488
 2334DOPS   C4B27387  20.176  25.683  13.469 -0.1713  0.1074 -0.1424
 2335DOPC   NC327388  16.049  29.602  12.863 -0.1541 -0.1951 -0.0661
 2335DOPC   PO427389  16.207  29.784  12.566 -0.1672 -0.1463  0.1366
 2335DOPC   GL127390  16.541  29.625  12.620 -0.0444  0.0372 -0.1930
 2335DOPC   GL227391  16.606  29.846  12.871  0.0449  0.2665  0.1265
 2335DOPC   C1A27392  16.781  29.218  12.678  0.0187 -0.1699 -0.0295
 2335DOPC   D2A27393  16.941  28.789  12.747  0.0464  0.1191 -0.2392
 2335DOPC   C3A27394  16.786  28.564  13.115 -0.0504  0.2461 -0.3047
 2335DOPC   C4A27395  16.545  28.500  13.517  0.1935 -0.0052  0.1296
 2335DOPC   C1B27396  17.045  29.699  12.783  0.2339 -0.0527 -0.5012
 2335DOPC   D2B27397  17.486  29.709  12.637  0.1596 -0.3958 -0.0871
 2335DOPC   C3B27398  17.770  29.495  12.976 -0.1722  0.0379  0.0848
 2335DOPC   C4B27399  17.889  29.012  13.059  0.2258  0.0663  0.2868
 2336DOPS   CNO27400  12.413  32.799  12.305  0.0338  0.2796 -0.1616
 2336DOPS   PO427401  12.195  32.675  12.578  0.1845  0.1276  0.0646
 2336DOPS   GL127402  12.154  32.806  12.801 -0.0309  0.0383 -0.5137
 2336DOPS   GL227403  12.282  33.078  12.863 -0.4914  0.0801  0.3058
 2336DOPS   C1A27404  12.138  32.774  13.277 -0.2256  0.0693 -0.0291
 2336DOPS   D2A27405  12.131  32.586  13.640 -0.2531 -0.2751  0.1321
 2336DOPS   C3A27406  12.125  32.945  13.939  0.0675 -0.0920 -0.1350
 2336DOPS   C4A27407  12.014  33.415  13.929  0.2174  0.1730  0.0583
 2336DOPS   C1B27408  12.486  33.080  13.285  0.0258  0.6470 -0.0963
 2336DOPS   D2B27409  12.595  32.887  13.706  0.0678  0.1586  0.0823
 2336DOPS   C3B27410  12.968  32.815  13.930 -0.2894  0.0543  0.0700
 2336DOPS   C4B27411  13.345  33.013  13.779  0.0468 -0.0792  0.0277
 2337DOPE   NH327412  15.294  32.561  12.408  0.0233 -0.0906 -0.2129
 2337DOPE   PO427413  15.557  32.392  12.449  0.1677  0.0415  0.3936
 2337DOPE   GL127414  15.516  32.204  12.800 -0.3583 -0.0600  0.2475
 2337DOPE   GL227415  15.486  31.977  12.885 -0.1321 -0.0690  0.3205
 2337DOPE   C1A27416  15.719  32.263  13.202 -0.0644 -0.2302  0.2095
 2337DOPE   D2A27417  15.974  32.131  13.549  0.2057 -0.2355 -0.2513
 2337DOPE   C3A27418  16.435  32.192  13.544 -0.0040 -0.2191  0.0232
 2337DOPE   C4A27419  16.817  32.517  13.591 -0.1406  0.2610  0.1893
 2337DOPE   C1B27420  15.876  31.762  12.929 -0.2580 -0.0614 -0.1590
 2337DOPE   D2B27421  16.324  31.634  12.853 -0.0718  0.1176 -0.1809
 2337DOPE   C3B27422  16.360  31.802  12.436  0.0108 -0.2574  0.3062
 2337DOPE   C4B27423  16.499  32.218  12.229  0.1942  0.1916  0.0094
 2338DOPE   NH327424  22.214  24.943  11.890  0.4716 -0.1843  0.1286
 2338DOPE   PO427425  22.048  25.212  12.032  0.3502  0.1205  0.1457
 2338DOPE   GL127426  22.186  25.266  12.418 -0.0598  0.0383 -0.0480
 2338DOPE   GL227427  22.204  25.526  12.506 -0.1637  0.1286  0.1064
 2338DOPE   C1A27428  22.457  25.083  12.805  0.1869 -0.4243 -0.0116
 2338DOPE   D2A27429  22.759  25.116  13.136  0.0829  0.0011 -0.4279
 2338DOPE   C3A27430  22.849  25.448  13.440  0.2898  0.0157  0.2928
 2338DOPE   C4A27431  22.886  25.910  13.439 -0.4868  0.1334 -0.1899
 2338DOPE   C1B27432  22.122  25.500  12.988 -0.0499 -0.0567  0.1862
 2338DOPE   D2B27433  21.873  25.553  13.414  0.0134  0.1578 -0.1315
 2338DOPE   C3B27434  22.180  25.761  13.692  0.4494 -0.1907  0.2667
 2338DOPE   C4B27435  22.617  25.640  13.809 -0.3180  0.1002  0.2465
 2339DOPE   NH327436  18.133  26.913  12.258 -0.1386 -0.2447  0.3395
 2339DOPE   PO427437  18.386  27.125  12.272 -0.1614  0.2666  0.2929
 2339DOPE   GL127438  18.562  27.477  12.453  0.1007 -0.0763  0.2623
 2339DOPE   GL227439  18.678  27.422  12.688 -0.1772 -0.0429  0.0026
 2339DOPE   C1A27440  18.558  27.925  12.632  0.2220  0.1098 -0.1636
 2339DOPE   D2A27441  18.749  28.148  13.015  0.1478  0.0484  0.1312
 2339DOPE   C3A27442  18.623  27.907  13.364 -0.2420 -0.0869  0.1166
 2339DOPE   C4A27443  18.460  27.547  13.210 -0.1082 -0.1949  0.2168
 2339DOPE   C1B27444  18.949  27.309  13.030  0.1900  0.0367 -0.1128
 2339DOPE   D2B27445  19.064  26.896  13.263 -0.2957  0.2820  0.2322
 2339DOPE   C3B27446  19.329  26.505  13.171  0.0105  0.0287 -0.1973
 2339DOPE   C4B27447  19.391  26.067  13.159  0.1488  0.2457  0.1491
 2340DOPC   NC327448  16.594  25.111  12.097 -0.0065 -0.2667 -0.2805
 2340DOPC   PO427449  16.887  25.345  11.937  0.1667 -0.0383  0.3841
 2340DOPC   GL127450  17.003  25.356  12.254 -0.2365 -0.2420  0.1327
 2340DOPC   GL227451  16.815  25.392  12.473 -0.0949 -0.1659 -0.3729
 2340DOPC   C1A27452  17.124  24.915  12.510 -0.0815  0.0074 -0.1841
 2340DOPC   D2A27453  17.465  24.762  12.833 -0.1863  0.1182 -0.0832
 2340DOPC   C3A27454  17.596  24.993  13.257  0.3077 -0.2295 -0.3384
 2340DOPC   C4A27455  18.065  25.107  13.411  0.2220  0.2938  0.0482
 2340DOPC   C1B27456  16.613  24.992  12.559  0.1330  0.0821  0.1044
 2340DOPC   D2B27457  16.525  24.587  12.795 -0.0887  0.0498  0.0756
 2340DOPC   C3B27458  16.473  24.510  13.277  0.1352 -0.0042  0.1249
 2340DOPC   C4B27459  16.318  24.179  13.521 -0.1683 -0.1633  0.0313
 2341DOPS   CNO27460  23.150  30.487  12.127 -0.1928 -0.1466 -0.1423
 2341DOPS   PO427461  23.165  30.483  12.523  0.2311 -0.0119 -0.3286
 2341DOPS   GL127462  23.061  30.214  12.827  0.2779  0.1707  0.1240
 2341DOPS   GL227463  23.050  30.418  13.034  0.2297  0.0919  0.0841
 2341DOPS   C1A27464  23.267  29.891  13.060 -0.1420 -0.0028  0.0816
 2341DOPS   D2A27465  23.175  29.679  13.469 -0.0821 -0.2733  0.0826
 2341DOPS   C3A27466  22.844  29.830  13.781  0.0999 -0.2343 -0.0316
 2341DOPS   C4A27467  22.742  29.611  14.152 -0.0907  0.4788  0.0640
 2341DOPS   C1B27468  23.154  30.214  13.427  0.1876  0.1250 -0.0439
 2341DOPS   D2B27469  23.321  30.283  13.827  0.0243 -0.0590  0.1006
 2341DOPS   C3B27470  23.649  30.147  14.119  0.0785  0.1350 -0.5667
 2341DOPS   C4B27471  23.872  29.811  14.392  0.0736 -0.0642  0.0401
 2342DOPS   CNO27472  20.899  33.881  12.257  0.2450  0.3335 -0.0220
 2342DOPS   PO427473  20.597  33.837  12.074  0.0159 -0.2954  0.1700
 2342DOPS   GL127474  20.468  33.600  12.243 -0.0285 -0.1940 -0.0332
 2342DOPS   GL227475  20.425  33.419  11.946 -0.0417  0.0326  0.0245
 2342DOPS   C1A27476  20.255  33.343  12.640  0.0355  0.0015 -0.1223
 2342DOPS   D2A27477  19.991  33.218  13.020  0.2590  0.0660 -0.0437
 2342DOPS   C3A27478  20.134  32.783  13.209 -0.1519  0.0100  0.2609
 2342DOPS   C4A27479  20.506  32.579  13.219  0.0259  0.2606  0.0551
 2342DOPS   C1B27480  20.010  33.357  12.182  0.1118 -0.0003  0.0914
 2342DOPS   D2B27481  19.679  33.270  12.526  0.3002 -0.0359  0.2504
 2342DOPS   C3B27482  19.189  33.294  12.574  0.4587 -0.1127 -0.0086
 2342DOPS   C4B27483  18.818  33.474  12.680 -0.0655  0.0236 -0.4615
 2343DOPC   NC327484  18.004  32.210  12.482  0.0150 -0.2683  0.1299
 2343DOPC   PO427485  18.100  32.482  12.183  0.5802  0.0052  0.0976
 2343DOPC   GL127486  18.362  32.672  12.342 -0.0710  0.0187  0.1202
 2343DOPC   GL227487  18.284  32.622  12.614 -0.1267 -0.1795 -0.0776
 2343DOPC   C1A27488  18.795  32.738  12.458 -0.0685 -0.1364 -0.1164
 2343DOPC   D2A27489  19.197  32.776  12.623 -0.1616  0.1247  0.0541
 2343DOPC   C3A27490  19.636  32.687  12.438 -0.0164  0.0619  0.0423
 2343DOPC   C4A27491  19.862  32.753  12.033  0.1489 -0.0338  0.0057
 2343DOPC   C1B27492  18.436  32.671  13.098 -0.0250 -0.0624 -0.1644
 2343DOPC   D2B27493  18.250  32.896  13.451  0.0469 -0.1066 -0.0477
 2343DOPC   C3B27494  18.339  32.607  13.797  0.1117 -0.1037 -0.3634
 2343DOPC   C4B27495  18.784  32.717  14.023 -0.0880  0.0170 -0.0117
 2344DOPS   CNO27496  13.926  27.645  12.200 -0.3235  0.1058 -0.0221
 2344DOPS   PO427497  14.120  27.618  12.511  0.4874  0.1764  0.3222
 2344DOPS   GL127498  14.296  27.550  12.853  0.3423  0.0779  0.2716
 2344DOPS   GL227499  14.516  27.749  12.750 -0.2613 -0.0317 -0.1853
 2344DOPS   C1A27500  14.196  27.685  13.278 -0.0685 -0.0741  0.1062
 2344DOPS   D2A27501  13.899  27.781  13.611  0.2136  0.0499  0.0399
 2344DOPS   C3A27502  13.936  27.689  14.023 -0.2066 -0.0157  0.0698
 2344DOPS   C4A27503  13.652  27.535  14.330  0.2136  0.0636 -0.1648
 2344DOPS   C1B27504  14.825  27.496  12.968 -0.0015  0.0569 -0.0043
 2344DOPS   D2B27505  15.222  27.474  13.153  0.0948  0.1858 -0.0417
 2344DOPS   C3B27506  15.462  27.124  13.266 -0.2359 -0.3814  0.1988
 2344DOPS   C4B27507  15.847  26.945  13.399  0.2246  0.2039 -0.1373
 2345DOPS   CNO27508  15.414  30.435  12.165 -0.2431 -0.2142 -0.2570
 2345DOPS   PO427509  15.600  30.414  12.483  0.0680  0.0896  0.1084
 2345DOPS   GL127510  15.455  30.236  12.747 -0.1447  0.3647  0.2406
 2345DOPS   GL227511  15.313  30.422  12.869 -0.0097 -0.1322 -0.0936
 2345DOPS   C1A27512  15.567  30.099  13.214  0.1314  0.2125 -0.2199
 2345DOPS   D2A27513  15.860  29.757  13.251 -0.2892  0.1042 -0.1655
 2345DOPS   C3A27514  16.245  29.659  13.528 -0.1608  0.0194 -0.0227
 2345DOPS   C4A27515  16.620  29.808  13.792  0.2098  0.0904  0.0447
 2345DOPS   C1B27516  15.115  30.328  13.318 -0.2549  0.0676  0.0656
 2345DOPS   D2B27517  15.107  30.457  13.750 -0.0723  0.3361  0.1726
 2345DOPS   C3B27518  15.348  30.275  14.096 -0.0830 -0.1459 -0.3350
 2345DOPS   C4B27519  15.364  30.346  14.531  0.0666  0.2328 -0.0012
 2346DOPC   NC327520  13.342  31.844  12.211  0.2720  0.0815  0.0430
 2346DOPC   PO427521  13.476  31.510  12.358 -0.2749  0.1085 -0.0568
 2346DOPC   GL127522  13.802  31.759  12.246 -0.1531  0.1543  0.0151
 2346DOPC   GL227523  13.950  31.630  12.481 -0.0294 -0.0785  0.1408
 2346DOPC   C1A27524  14.204  32.069  12.297  0.1826 -0.2311  0.0746
 2346DOPC   D2A27525  14.436  32.159  12.698 -0.1951  0.0236 -0.1965
 2346DOPC   C3A27526  14.301  32.438  13.008  0.2965  0.1366  0.0875
 2346DOPC   C4A27527  14.400  32.374  13.480  0.0315  0.2457 -0.2622
 2346DOPC   C1B27528  13.749  32.031  12.603 -0.5138 -0.2051  0.0093
 2346DOPC   D2B27529  13.991  32.391  12.688  0.0660  0.1814  0.2321
 2346DOPC   C3B27530  13.774  32.727  12.538 -0.2105 -0.1373 -0.1366
 2346DOPC   C4B27531  13.599  33.199  12.396  0.0784  0.1924 -0.0660
 2347DOPE   NH327532  21.684  23.030  11.905 -0.0348  0.3099 -0.0083
 2347DOPE   PO427533  21.559  23.087  12.178  0.0347 -0.0689  0.0249
 2347DOPE   GL127534  21.446  23.266  12.481  0.3680 -0.1545  0.1398
 2347DOPE   GL227535  21.517  23.464  12.512  0.0548  0.3018 -0.2260
 2347DOPE   C1A27536  21.351  23.331  12.984 -0.1747  0.2372 -0.1333
 2347DOPE   D2A27537  21.241  23.494  13.412  0.0139 -0.2223  0.2847
 2347DOPE   C3A27538  21.534  23.687  13.729 -0.3924 -0.1654  0.4410
 2347DOPE   C4A27539  21.973  23.652  13.845 -0.0129 -0.5704 -0.0155
 2347DOPE   C1B27540  21.739  23.637  12.857  0.3394 -0.0657  0.1006
 2347DOPE   D2B27541  21.719  23.577  13.274 -0.2551  0.2368  0.1773
 2347DOPE   C3B27542  22.193  23.702  13.326 -0.0158  0.2212  0.1172
 2347DOPE   C4B27543  22.653  23.718  13.442  0.0294  0.3365 -0.0010
 2348DOPE   NH327544  12.165  34.421  12.111 -0.0632  0.1056  0.2920
 2348DOPE   PO427545  12.039  34.243  12.341  0.0628  0.0007 -0.0933
 2348DOPE   GL127546  12.144  34.143  12.724 -0.1746  0.1941 -0.0512
 2348DOPE   GL227547  11.879  34.192  12.872  0.3630  0.2005 -0.2600
 2348DOPE   C1A27548  12.236  34.024  13.206  0.0701  0.0967  0.1941
 2348DOPE   D2A27549  12.172  34.293  13.564 -0.0471 -0.1050 -0.2410
 2348DOPE   C3A27550  12.006  34.319  14.010 -0.4120  0.1223  0.4150
 2348DOPE   C4A27551  12.030  34.480  14.419  0.1809 -0.3867  0.2552
 2348DOPE   C1B27552  12.079  34.531  13.137 -0.3423  0.2429  0.0742
 2348DOPE   D2B27553  12.419  34.741  13.357  0.1473  0.1155 -0.4718
 2348DOPE   C3B27554  12.581  34.587  13.767 -0.0286 -0.0115  0.1808
 2348DOPE   C4B27555  12.508  34.302  14.119  0.2046  0.0178  0.2244
 2349POSM   NC327556  18.010  26.128  12.337 -0.0473 -0.0953  0.2550
 2349POSM   PO427557  18.097  26.387  12.611  0.2054  0.1308  0.1505
 2349POSM   AM127558  18.191  26.288  12.932  0.1240 -0.1525  0.1188
 2349POSM   AM227559  18.414  26.292  13.076 -0.2680 -0.2225 -0.0333
 2349POSM   T1A27560  17.998  25.968  13.230 -0.0183  0.3915 -0.0641
 2349POSM   C2A27561  17.764  25.619  13.338  0.2464  0.1903 -0.0256
 2349POSM   C3A27562  17.402  25.442  13.441 -0.0068  0.1575  0.2080
 2349POSM   C1B27563  18.270  26.463  13.356 -0.0506  0.0826  0.3204
 2349POSM   D2B27564  17.981  26.283  13.679 -0.2852  0.0787 -0.1465
 2349POSM   C3B27565  17.717  25.871  13.758 -0.0899 -0.1726  0.2221
 2349POSM   C4B27566  17.399  25.563  13.953  0.2220 -0.0298  0.2495
 2350DOPS   CNO27567  22.095  33.083  12.086  0.1009  0.2433  0.1522
 2350DOPS   PO427568  21.943  33.404  12.131  0.0956  0.0634  0.2228
 2350DOPS   GL127569  21.803  33.090  12.449 -0.2729  0.1735  0.0401
 2350DOPS   GL227570  21.547  33.080  12.252 -0.0754 -0.1939  0.1194
 2350DOPS   C1A27571  21.480  32.869  12.706 -0.0030 -0.1109  0.1153
 2350DOPS   D2A27572  21.195  32.480  12.770  0.3740  0.0418  0.1394
 2350DOPS   C3A27573  21.095  32.448  13.245 -0.0043 -0.0970 -0.0074
 2350DOPS   C4A27574  21.223  32.500  13.718 -0.1719 -0.0080 -0.1221
 2350DOPS   C1B27575  21.614  32.597  12.304 -0.1395  0.0726  0.0783
 2350DOPS   D2B27576  21.264  32.287  12.157  0.1408  0.1231 -0.4275
 2350DOPS   C3B27577  21.048  32.075  12.513 -0.0348  0.3035  0.0167
 2350DOPS   C4B27578  20.759  32.028  12.878  0.1087 -0.0727 -0.0362
 2351DOPC   NC327579  19.723  25.650  12.139 -0.2137  0.0652 -0.0646
 2351DOPC   PO427580  19.881  25.274  12.047 -0.1323 -0.2686 -0.1857
 2351DOPC   GL127581  19.546  24.936  12.081  0.1867 -0.2280  0.2961
 2351DOPC   GL227582  19.668  24.553  11.994  0.0108  0.0431  0.2367
 2351DOPC   C1A27583  19.203  25.153  12.214  0.1954  0.0623 -0.1282
 2351DOPC   D2A27584  19.114  25.566  12.362  0.2442  0.1924 -0.5324
 2351DOPC   C3A27585  19.385  25.506  12.730 -0.4053  0.1260 -0.0319
 2351DOPC   C4A27586  19.652  25.622  13.116 -0.1780 -0.1598  0.1124
 2351DOPC   C1B27587  19.182  24.627  12.022 -0.2138  0.2777  0.3200
 2351DOPC   D2B27588  18.815  24.794  12.222  0.2875  0.4067  0.1641
 2351DOPC   C3B27589  18.885  25.048  12.638 -0.0356 -0.2172 -0.0767
 2351DOPC   C4B27590  18.546  25.130  12.941 -0.0016  0.0416 -0.0372
 2352DOPE   NH327591  12.471  27.270  12.492 -0.1765  0.1768  0.0934
 2352DOPE   PO427592  12.230  27.090  12.442 -0.0492  0.0914 -0.3126
 2352DOPE   GL127593  12.190  26.748  12.739 -0.0073 -0.4236 -0.2830
 2352DOPE   GL227594  11.956  26.677  12.932  0.1311 -0.1299  0.0650
 2352DOPE   C1A27595  12.101  26.257  12.940 -0.0248  0.0043  0.0221
 2352DOPE   D2A27596  11.992  25.992  13.384 -0.2475 -0.0033 -0.0135
 2352DOPE   C3A27597  11.796  25.593  13.259  0.1117 -0.0490  0.1714
 2352DOPE   C4A27598  11.446  25.502  12.920 -0.0138 -0.0465  0.2017
 2352DOPE   C1B27599  11.825  26.644  13.395 -0.0566  0.0517 -0.0924
 2352DOPE   D2B27600  11.678  26.322  13.600 -0.2698  0.0375 -0.0387
 2352DOPE   C3B27601  11.518  26.279  14.075 -0.2626  0.1129  0.2980
 2352DOPE   C4B27602  11.648  26.326  14.479  0.0869 -0.2537  0.2897
 2353DOPS   CNO27603  17.634  26.489  12.472 -0.1618 -0.3258 -0.0863
 2353DOPS   PO427604  17.524  26.196  12.218  0.0367  0.0011 -0.2477
 2353DOPS   GL127605  17.504  25.781  12.125  0.1374  0.1970  0.2700
 2353DOPS   GL227606  17.488  25.678  12.376  0.0608 -0.3415 -0.2962
 2353DOPS   C1A27607  17.505  25.309  12.095 -0.3391  0.1214 -0.0177
 2353DOPS   D2A27608  17.318  24.855  12.096 -0.2609 -0.1542  0.3454
 2353DOPS   C3A27609  17.218  24.453  12.344 -0.0672 -0.1076 -0.3957
 2353DOPS   C4A27610  16.827  24.296  12.485 -0.3429  0.2451 -0.1708
 2353DOPS   C1B27611  17.888  25.640  12.311 -0.2252  0.1752  0.1306
 2353DOPS   D2B27612  18.306  25.722  12.292  0.4425 -0.0283  0.0127
 2353DOPS   C3B27613  18.591  25.494  12.597 -0.0561  0.0292  0.1771
 2353DOPS   C4B27614  18.922  25.475  12.975  0.2810  0.1994  0.2347
 2354DOPS   CNO27615  22.242  30.440  12.265  0.1698  0.0849 -0.0733
 2354DOPS   PO427616  21.917  30.502  12.374  0.3081 -0.2988  0.0157
 2354DOPS   GL127617  21.625  30.819  12.278 -0.0712  0.0385  0.5132
 2354DOPS   GL227618  21.386  30.739  12.412  0.1801 -0.1267  0.2299
 2354DOPS   C1A27619  21.576  31.212  12.535  0.1839 -0.0580 -0.0300
 2354DOPS   D2A27620  21.789  31.606  12.551 -0.4274 -0.3780  0.2002
 2354DOPS   C3A27621  21.724  31.861  12.931 -0.1026 -0.0612 -0.0100
 2354DOPS   C4A27622  21.293  32.041  13.049  0.0546 -0.2319 -0.0468
 2354DOPS   C1B27623  21.042  30.866  12.171  0.2058  0.2743  0.1357
 2354DOPS   D2B27624  20.692  31.194  12.147 -0.1590  0.1329 -0.0692
 2354DOPS   C3B27625  20.637  31.370  12.563 -0.0621 -0.1441 -0.1759
 2354DOPS   C4B27626  20.400  31.644  12.903 -0.0906  0.1286 -0.4326
 2355DOPE   NH327627  11.963  33.218  12.330 -0.1135  0.1076 -0.2800
 2355DOPE   PO427628  11.906  33.333  12.622 -0.1084 -0.0812  0.2424
 2355DOPE   GL127629  11.850  33.280  13.063  0.2430  0.0675 -0.0427
 2355DOPE   GL227630  11.748  32.995  13.155 -0.1530 -0.0968 -0.0819
 2355DOPE   C1A27631  12.098  33.328  13.425  0.0102  0.0486  0.3005
 2355DOPE   D2A27632  12.489  33.386  13.698  0.0225 -0.0518  0.0532
 2355DOPE   C3A27633  12.486  33.435  14.172  0.2240  0.1541 -0.2068
 2355DOPE   C4A27634  12.361  33.561  14.570  0.0047  0.0297 -0.1026
 2355DOPE   C1B27635  11.700  32.869  13.617  0.3620 -0.4625  0.0542
 2355DOPE   D2B27636  11.310  32.678  13.781  0.2519  0.1400 -0.1034
 2355DOPE   C3B27637  11.015  32.929  14.118  0.1410 -0.0971  0.1277
 2355DOPE   C4B27638  10.664  33.198  14.365 -0.1150 -0.0824  0.3799
 2356DOPE   NH327639  15.833  29.444  12.368  0.3195  0.0947 -0.2698
 2356DOPE   PO427640  16.055  29.205  12.384  0.2003 -0.0083 -0.1046
 2356DOPE   GL127641  16.299  29.235  12.656 -0.1453 -0.1091 -0.1367
 2356DOPE   GL227642  16.383  29.020  12.855 -0.0859 -0.1150 -0.1004
 2356DOPE   C1A27643  16.478  29.416  13.119  0.0759 -0.2476 -0.1112
 2356DOPE   D2A27644  16.794  29.662  13.348 -0.0679  0.0317  0.1450
 2356DOPE   C3A27645  17.217  29.481  13.483  0.0669  0.1262  0.0410
 2356DOPE   C4A27646  17.490  29.530  13.904  0.0997  0.0932  0.2336
 2356DOPE   C1B27647  16.681  29.038  13.281 -0.4404  0.3207  0.0364
 2356DOPE   D2B27648  16.754  29.132  13.728 -0.1114 -0.1426  0.0120
 2356DOPE   C3B27649  16.462  28.880  13.957 -0.0458 -0.0174 -0.4132
 2356DOPE   C4B27650  16.339  28.591  14.259  0.2161  0.1981  0.2694
 2357POSM   NC327651  21.784  23.850  11.684 -0.0380 -0.2323 -0.0264
 2357POSM   PO427652  21.838  23.430  11.684  0.0958  0.0031  0.1251
 2357POSM   AM127653  22.005  23.460  11.968  0.0417 -0.1109  0.4848
 2357POSM   AM227654  21.949  23.388  12.255  0.0423 -0.1542 -0.2858
 2357POSM   T1A27655  22.417  23.540  12.257  0.1792  0.3007  0.4401
 2357POSM   C2A27656  22.766  23.669  12.523  0.3191  0.2364 -0.0071
 2357POSM   C3A27657  23.116  23.876  12.750 -0.3755  0.0350 -0.2144
 2357POSM   C1B27658  21.998  23.326  12.575 -0.2379  0.0111 -0.1758
 2357POSM   D2B27659  22.051  23.294  13.053  0.0376  0.0508  0.2780
 2357POSM   C3B27660  22.513  23.273  13.164 -0.0316  0.2842  0.0757
 2357POSM   C4B27661  22.841  23.557  13.035 -0.1416 -0.0449  0.0743
 2358DOPC   NC327662  19.460  27.429  12.255 -0.0433 -0.0582  0.1272
 2358DOPC   PO427663  19.253  27.506  12.563  0.4855 -0.0791  0.4385
 2358DOPC   GL127664  19.594  27.580  12.797 -0.2750 -0.0634 -0.2203
 2358DOPC   GL227665  19.680  27.820  12.778  0.1921 -0.1643 -0.1544
 2358DOPC   C1A27666  19.766  27.516  13.262 -0.2929  0.0063  0.0090
 2358DOPC   D2A27667  20.015  27.385  13.601 -0.0177 -0.0175 -0.1052
 2358DOPC   C3A27668  20.171  27.819  13.648 -0.0092  0.1338 -0.2713
 2358DOPC   C4A27669  20.177  28.104  13.271 -0.4019 -0.1322 -0.2087
 2358DOPC   C1B27670  19.630  27.985  13.240  0.1415 -0.3526 -0.1333
 2358DOPC   D2B27671  19.695  27.825  13.641  0.2979  0.2062 -0.0793
 2358DOPC   C3B27672  19.693  27.485  13.946 -0.0158  0.0784 -0.1627
 2358DOPC   C4B27673  19.653  27.345  14.398 -0.1213  0.1867 -0.2219
 2359DOPC   NC327674  15.481  28.872  12.195 -0.0254  0.0215 -0.1388
 2359DOPC   PO427675  15.374  29.070  12.501  0.0502  0.3136 -0.1033
 2359DOPC   GL127676  15.644  28.977  12.777  0.0822  0.0646  0.1046
 2359DOPC   GL227677  15.893  29.124  12.819  0.0174  0.1092 -0.0862
 2359DOPC   C1A27678  15.759  28.729  13.172 -0.1326 -0.1967  0.4767
 2359DOPC   D2A27679  15.910  28.313  13.300 -0.2560 -0.2012  0.3135
 2359DOPC   C3A27680  15.521  28.079  13.450 -0.1155 -0.1518 -0.0366
 2359DOPC   C4A27681  15.299  27.721  13.606 -0.0896  0.1499  0.0593
 2359DOPC   C1B27682  16.007  29.232  13.233  0.4459 -0.0715  0.3533
 2359DOPC   D2B27683  15.811  29.430  13.633  0.5582 -0.0910  0.2290
 2359DOPC   C3B27684  15.701  29.872  13.770  0.0848 -0.1102  0.1226
 2359DOPC   C4B27685  15.709  30.354  13.630 -0.2501  0.2133  0.0312
 2360DOPE   NH327686  20.682  34.362  12.071 -0.3117  0.2635 -0.4152
 2360DOPE   PO427687  20.968  34.456  12.189 -0.1318  0.0127  0.0838
 2360DOPE   GL127688  20.823  34.621  12.578 -0.0299  0.0704 -0.1435
 2360DOPE   GL227689  20.574  34.465  12.574 -0.2280 -0.3585  0.1053
 2360DOPE   C1A27690  20.766  34.823  13.005 -0.3264 -0.3592  0.0374
 2360DOPE   D2A27691  20.499  34.768  13.360  0.2120  0.0595 -0.0584
 2360DOPE   C3A27692  20.399  35.191  13.429 -0.1319  0.2854 -0.2090
 2360DOPE   C4A27693  20.432  35.580  13.685 -0.2677 -0.2425 -0.1304
 2360DOPE   C1B27694  20.841  34.330  12.933  0.3440 -0.1864 -0.2354
 2360DOPE   D2B27695  21.164  34.172  13.119 -0.1027  0.1710 -0.0770
 2360DOPE   C3B27696  21.284  33.744  13.263  0.5191  0.2771  0.1117
 2360DOPE   C4B27697  21.053  33.351  13.231 -0.0452  0.2458 -0.0016
 2361POSM   NC327698  21.870  33.876  12.003 -0.1172  0.0658 -0.1997
 2361POSM   PO427699  22.188  34.025  12.174  0.0043  0.3350 -0.1230
 2361POSM   AM127700  22.163  34.158  12.452 -0.0827  0.0243  0.2842
 2361POSM   AM227701  22.102  34.321  12.655  0.2321 -0.1126 -0.3395
 2361POSM   T1A27702  22.262  34.001  12.924  0.2927 -0.0015 -0.2451
 2361POSM   C2A27703  22.350  33.735  13.277 -0.0101  0.2693 -0.2815
 2361POSM   C3A27704  22.477  33.452  13.577 -0.1026 -0.0432  0.0536
 2361POSM   C1B27705  22.010  34.409  12.961 -0.3955 -0.1375 -0.0049
 2361POSM   D2B27706  22.070  34.633  13.366  0.1239  0.3928  0.2764
 2361POSM   C3B27707  22.470  34.646  13.561  0.4938  0.0375  0.2361
 2361POSM   C4B27708  22.797  34.578  13.891  0.1279 -0.2264 -0.3852
 2362DOPE   NH327709  18.448  30.110  12.519  0.1093  0.1850  0.2467
 2362DOPE   PO427710  18.333  29.810  12.570 -0.3286 -0.0945 -0.1214
 2362DOPE   GL127711  18.258  29.854  12.970  0.2444 -0.0810  0.0445
 2362DOPE   GL227712  18.476  29.877  13.083  0.0933 -0.1250 -0.0727
 2362DOPE   C1A27713  18.092  30.078  13.355 -0.0153 -0.0875  0.2224
 2362DOPE   D2A27714  18.144  30.012  13.805  0.0260 -0.1216  0.0812
 2362DOPE   C3A27715  18.033  30.385  14.066 -0.3380 -0.4652  0.3307
 2362DOPE   C4A27716  17.719  30.680  14.275 -0.2693  0.2682  0.0576
 2362DOPE   C1B27717  18.588  29.894  13.550  0.1752  0.4117 -0.2463
 2362DOPE   D2B27718  18.616  29.853  14.060 -0.0318 -0.1558  0.3045
 2362DOPE   C3B27719  18.525  29.460  14.230 -0.3303 -0.1095 -0.1668
 2362DOPE   C4B27720  18.365  29.058  14.050  0.1025 -0.0952  0.2087
 2363DOPC   NC327721  19.435  29.096  12.684  0.0299 -0.0845  0.0730
 2363DOPC   PO427722  19.656  29.334  12.929 -0.4640  0.3853  0.2039
 2363DOPC   GL127723  19.749  29.272  13.233  0.0639 -0.2974  0.2226
 2363DOPC   GL227724  19.560  29.454  13.456 -0.0148 -0.0225  0.0032
 2363DOPC   C1A27725  20.087  29.299  13.503  0.2280  0.0307 -0.0244
 2363DOPC   D2A27726  20.435  29.350  13.718  0.0660 -0.2355 -0.0144
 2363DOPC   C3A27727  20.892  29.382  13.793  0.1940  0.1551 -0.0271
 2363DOPC   C4A27728  21.098  29.488  14.240 -0.1311  0.1103  0.0347
 2363DOPC   C1B27729  19.698  29.053  13.562  0.1937 -0.0334 -0.0479
 2363DOPC   D2B27730  19.302  28.758  13.649 -0.1174 -0.2348 -0.1067
 2363DOPC   C3B27731  19.042  28.676  13.979 -0.2215  0.0727  0.3168
 2363DOPC   C4B27732  18.731  28.419  14.169 -0.0105  0.0101  0.1795
 2364DOPS   CNO27733  12.939  23.666  11.784  0.0734 -0.2335  0.1254
 2364DOPS   PO427734  12.804  24.031  11.868 -0.1519 -0.0296  0.1688
 2364DOPS   GL127735  12.697  24.291  12.152 -0.1558 -0.0843 -0.0683
 2364DOPS   GL227736  12.757  24.203  12.375  0.0687 -0.2847  0.1223
 2364DOPS   C1A27737  12.420  24.690  12.138  0.1044  0.3984  0.0502
 2364DOPS   D2A27738  12.576  25.166  12.228 -0.0006 -0.0031  0.3975
 2364DOPS   C3A27739  12.358  25.387  12.605  0.0554 -0.0658 -0.1405
 2364DOPS   C4A27740  11.950  25.330  12.892 -0.0015 -0.0676  0.0227
 2364DOPS   C1B27741  13.099  24.218  12.733  0.0459 -0.1197 -0.0646
 2364DOPS   D2B27742  13.349  24.361  13.127 -0.1014 -0.0345 -0.2040
 2364DOPS   C3B27743  13.672  24.684  13.138  0.0311  0.0481  0.0156
 2364DOPS   C4B27744  13.607  25.144  13.205  0.0811  0.1490 -0.0129
 2365DOPE   NH327745  15.528  32.683  12.924 -0.0195 -0.1716  0.0394
 2365DOPE   PO427746  15.238  32.807  12.848  0.1534 -0.2283 -0.2324
 2365DOPE   GL127747  15.166  32.785  13.271  0.0352 -0.1738 -0.1531
 2365DOPE   GL227748  15.238  32.534  13.373  0.2062  0.1888  0.1440
 2365DOPE   C1A27749  14.762  32.788  13.474  0.2088  0.1718 -0.0083
 2365DOPE   D2A27750  14.453  32.890  13.752  0.0906 -0.1611  0.4405
 2365DOPE   C3A27751  14.399  32.995  14.169  0.0790  0.1071 -0.0757
 2365DOPE   C4A27752  14.233  33.316  14.481  0.2050  0.0271 -0.2419
 2365DOPE   C1B27753  15.529  32.516  13.713 -0.0910 -0.0418  0.1499
 2365DOPE   D2B27754  15.789  32.705  14.058  0.3336 -0.0055 -0.1862
 2365DOPE   C3B27755  15.484  32.778  14.366  0.0781  0.1058  0.0668
 2365DOPE   C4B27756  15.250  32.899  14.789  0.1382 -0.0555 -0.0340
 2366DOPE   NH327757  14.476  27.676  12.146 -0.0591 -0.2551  0.1325
 2366DOPE   PO427758  14.591  27.978  12.211  0.0197  0.1049  0.1866
 2366DOPE   GL127759  14.852  28.188  12.284  0.0952 -0.0213 -0.0167
 2366DOPE   GL227760  14.777  28.315  12.587 -0.1455  0.0447 -0.1493
 2366DOPE   C1A27761  15.262  28.205  12.588  0.2339 -0.0275 -0.1871
 2366DOPE   D2A27762  15.468  28.357  12.996 -0.5365 -0.0951 -0.1668
 2366DOPE   C3A27763  15.333  28.612  13.377  0.0291  0.2626 -0.1845
 2366DOPE   C4A27764  15.112  28.915  13.642 -0.0120  0.1495  0.0814
 2366DOPE   C1B27765  14.842  28.075  13.015  0.1409  0.0916  0.0731
 2366DOPE   D2B27766  14.699  27.817  13.373  0.1929 -0.0441 -0.2353
 2366DOPE   C3B27767  14.605  27.335  13.342 -0.1281  0.0917  0.1629
 2366DOPE   C4B27768  14.480  26.961  13.120  0.4813  0.1941 -0.0731
 2367DOPS   CNO27769  22.745  34.030  12.044 -0.1896  0.5412  0.1600
 2367DOPS   PO427770  22.671  34.232  12.346  0.1879 -0.3564  0.0682
 2367DOPS   GL127771  22.733  34.494  12.625  0.2810 -0.0674  0.1588
 2367DOPS   GL227772  22.564  34.440  12.770 -0.0332 -0.0916  0.4464
 2367DOPS   C1A27773  22.916  34.677  13.016  0.1960 -0.0537 -0.0113
 2367DOPS   D2A27774  22.939  34.730  13.428  0.1560 -0.2271  0.2193
 2367DOPS   C3A27775  23.332  34.502  13.611  0.3517  0.2547 -0.2901
 2367DOPS   C4A27776  23.684  34.296  13.783  0.0909 -0.1193 -0.0700
 2367DOPS   C1B27777  22.582  34.269  13.195  0.0853 -0.2947  0.0849
 2367DOPS   D2B27778  22.627  34.022  13.576 -0.0850  0.5204  0.1558
 2367DOPS   C3B27779  23.035  34.145  13.797 -0.3473 -0.1808  0.0774
 2367DOPS   C4B27780  23.238  34.406  14.125 -0.1592  0.1967 -0.1513
 2368DOPE   NH327781  22.538  25.416  11.871  0.2751  0.1936 -0.0428
 2368DOPE   PO427782  22.546  25.251  12.108 -0.0443 -0.0568 -0.2481
 2368DOPE   GL127783  22.696  25.357  12.390 -0.0969 -0.1889  0.1269
 2368DOPE   GL227784  23.034  25.476  12.345 -0.2052 -0.1594 -0.3520
 2368DOPE   C1A27785  22.649  25.588  12.815  0.1801  0.1449 -0.0460
 2368DOPE   D2A27786  22.441  25.808  13.219 -0.2205 -0.0145  0.0741
 2368DOPE   C3A27787  22.365  26.276  13.130  0.0300 -0.1493 -0.0225
 2368DOPE   C4A27788  22.299  26.682  13.116 -0.1069 -0.2012 -0.1264
 2368DOPE   C1B27789  22.973  25.193  12.743  0.2105 -0.1378 -0.0588
 2368DOPE   D2B27790  23.241  24.824  12.907  0.1340  0.0878 -0.2761
 2368DOPE   C3B27791  23.492  24.849  13.333  0.0995 -0.2817  0.4366
 2368DOPE   C4B27792  23.680  24.697  13.746  0.3407 -0.0891 -0.1722
 2369DOPS   CNO27793  16.321  25.390  11.777  0.0328 -0.1067 -0.0546
 2369DOPS   PO427794  16.462  25.068  11.627  0.0688 -0.1715  0.1780
 2369DOPS   GL127795  16.643  24.804  11.791  0.2697 -0.2433  0.0212
 2369DOPS   GL227796  16.683  24.613  11.573 -0.1583 -0.0996  0.0386
 2369DOPS   C1A27797  16.506  24.625  12.150  0.2489 -0.2933 -0.2298
 2369DOPS   D2A27798  16.304  24.283  12.365  0.0413 -0.0686 -0.2670
 2369DOPS   C3A27799  15.936  23.981  12.321 -0.1028 -0.0793 -0.1960
 2369DOPS   C4A27800  15.549  23.814  12.111 -0.1746 -0.3222  0.0586
 2369DOPS   C1B27801  16.877  24.357  11.959  0.2733  0.2053  0.3154
 2369DOPS   D2B27802  17.139  24.012  12.135  0.1785 -0.0365  0.1479
 2369DOPS   C3B27803  17.419  23.746  11.837 -0.1622 -0.5740  0.0498
 2369DOPS   C4B27804  17.523  23.557  11.413 -0.0078  0.1281  0.1029
 2370DOPS   CNO27805  22.026  24.255  11.862 -0.2022  0.3365 -0.0415
 2370DOPS   PO427806  22.396  24.111  11.905 -0.0482 -0.0222 -0.0452
 2370DOPS   GL127807  22.540  23.958  12.203 -0.3868  0.0302 -0.0097
 2370DOPS   GL227808  22.410  24.081  12.402 -0.0771 -0.0777 -0.0208
 2370DOPS   C1A27809  22.990  24.077  12.262 -0.2176  0.0902  0.1597
 2370DOPS   D2A27810  23.421  24.099  12.309  0.0179  0.0385 -0.1133
 2370DOPS   C3A27811  23.640  23.965  12.642 -0.1273  0.3696  0.0225
 2370DOPS   C4A27812  23.801  23.976  13.056 -0.1421  0.2532 -0.1411
 2370DOPS   C1B27813  22.716  24.178  12.721  0.0467  0.0811  0.0668
 2370DOPS   D2B27814  22.559  24.157  13.162 -0.0145 -0.3094 -0.1205
 2370DOPS   C3B27815  22.665  24.213  13.549  0.4530  0.0914 -0.3454
 2370DOPS   C4B27816  22.526  24.089  13.978  0.1390  0.0371 -0.1786
 2371DOPC   NC327817  16.397  25.547  12.709  0.1817  0.2252  0.2830
 2371DOPC   PO427818  16.112  25.762  12.602 -0.0320  0.0801  0.1052
 2371DOPC   GL127819  15.828  25.493  12.663  0.2453  0.3238 -0.0047
 2371DOPC   GL227820  15.841  25.450  12.969 -0.1173  0.0842  0.2367
 2371DOPC   C1A27821  15.475  25.274  12.542 -0.2703  0.2467 -0.1883
 2371DOPC   D2A27822  15.123  25.099  12.333  0.0946  0.2090  0.2258
 2371DOPC   C3A27823  14.657  25.222  12.345  0.0810  0.2184  0.0196
 2371DOPC   C4A27824  14.250  25.434  12.258 -0.1111 -0.2000  0.0780
 2371DOPC   C1B27825  15.418  25.476  13.012 -0.2070  0.0263 -0.0629
 2371DOPC   D2B27826  15.095  25.169  12.934  0.3470 -0.1560 -0.1676
 2371DOPC   C3B27827  15.188  24.770  12.727 -0.0677 -0.1397 -0.2335
 2371DOPC   C4B27828  15.285  24.640  12.315 -0.2531 -0.2271  0.1030
 2372DOPC   NC327829  22.658  30.682  12.521 -0.1115  0.1598  0.3256
 2372DOPC   PO427830  22.623  30.408  12.822 -0.3494  0.2083  0.1444
 2372DOPC   GL127831  22.559  30.154  13.064 -0.2509  0.2049 -0.1907
 2372DOPC   GL227832  22.668  30.148  13.312 -0.0438  0.0627  0.2753
 2372DOPC   C1A27833  22.210  30.036  13.340  0.3347  0.2049  0.1779
 2372DOPC   D2A27834  21.962  30.181  13.686 -0.1042 -0.0547  0.0062
 2372DOPC   C3A27835  22.037  30.394  14.072  0.0359  0.1233 -0.0385
 2372DOPC   C4A27836  22.241  30.573  14.442  0.1161  0.0922 -0.0803
 2372DOPC   C1B27837  22.821  30.372  13.730  0.1956  0.1870 -0.0679
 2372DOPC   D2B27838  22.621  30.403  14.137  0.2919 -0.1242 -0.0163
 2372DOPC   C3B27839  22.304  30.073  14.336  0.1060 -0.0686 -0.2923
 2372DOPC   C4B27840  21.875  29.866  14.324 -0.1715  0.1464  0.0905
 2373DOPE   NH327841  18.219  26.813  12.763  0.5522  0.1887 -0.1700
 2373DOPE   PO427842  18.225  27.114  12.811  0.4207 -0.1003 -0.1930
 2373DOPE   GL127843  18.031  26.957  13.144  0.0040 -0.2893  0.2367
 2373DOPE   GL227844  18.046  27.211  13.309 -0.2159  0.2524 -0.2936
 2373DOPE   C1A27845  18.118  26.826  13.586  0.0360  0.0560 -0.2727
 2373DOPE   D2A27846  18.547  26.699  13.738  0.0078  0.0878 -0.0695
 2373DOPE   C3A27847  18.933  26.998  13.762 -0.1212  0.0517  0.0506
 2373DOPE   C4A27848  19.307  27.054  14.048  0.1567 -0.1809 -0.0134
 2373DOPE   C1B27849  17.757  27.284  13.668  0.3264 -0.3283 -0.0057
 2373DOPE   D2B27850  17.716  27.669  13.907 -0.1172  0.2054  0.2582
 2373DOPE   C3B27851  17.501  27.629  14.320  0.2056 -0.1748 -0.3344
 2373DOPE   C4B27852  17.186  27.446  14.581 -0.1250  0.0139  0.2721
 2374DOPC   NC327853  21.449  34.208  12.133 -0.0548  0.0557  0.2137
 2374DOPC   PO427854  21.685  34.067  12.435 -0.0270  0.0680  0.0043
 2374DOPC   GL127855  21.637  34.206  12.828  0.1026  0.4210  0.4339
 2374DOPC   GL227856  21.714  33.973  13.000 -0.0930 -0.0269  0.2248
 2374DOPC   C1A27857  21.575  34.388  13.274 -0.0249 -0.0498  0.0469
 2374DOPC   D2A27858  21.253  34.177  13.569 -0.0366  0.3386  0.1552
 2374DOPC   C3A27859  21.173  34.546  13.847  0.0628  0.0264 -0.3633
 2374DOPC   C4A27860  20.811  34.838  13.739 -0.1374 -0.2271  0.0883
 2374DOPC   C1B27861  21.972  34.060  13.400 -0.0924 -0.0987 -0.3225
 2374DOPC   D2B27862  22.161  33.830  13.728  0.1844 -0.0877  0.0201
 2374DOPC   C3B27863  21.963  33.411  13.874  0.1187  0.1083  0.0069
 2374DOPC   C4B27864  21.546  33.137  13.736 -0.2078 -0.0445 -0.0412
 2375POSM   NC327865  17.122  26.622  12.333 -0.0596 -0.0862 -0.1116
 2375POSM   PO427866  17.061  26.293  12.511 -0.2366  0.2876  0.1034
 2375POSM   AM127867  17.342  26.163  12.683  0.0183  0.3074  0.0790
 2375POSM   AM227868  17.623  26.071  12.749  0.1911  0.0910  0.0708
 2375POSM   T1A27869  17.352  25.941  13.156  0.0936  0.1823 -0.0471
 2375POSM   C2A27870  17.088  25.813  13.468 -0.1935 -0.1349 -0.0813
 2375POSM   C3A27871  16.889  25.369  13.555 -0.0949 -0.1069  0.1622
 2375POSM   C1B27872  17.763  25.707  12.845 -0.0363  0.0782  0.0976
 2375POSM   D2B27873  18.024  25.362  12.918  0.0836  0.2060  0.2457
 2375POSM   C3B27874  18.056  24.894  12.849  0.0819 -0.3473 -0.1597
 2375POSM   C4B27875  18.116  24.431  12.849 -0.2383 -0.0515 -0.0236
 2376DOPC   NC327876  15.236  32.026  12.343 -0.2211 -0.1196  0.0149
 2376DOPC   PO427877  14.862  32.207  12.390  0.1491 -0.0599 -0.2650
 2376DOPC   GL127878  14.755  31.871  12.577 -0.1200 -0.3169 -0.2384
 2376DOPC   GL227879  14.900  31.834  12.793 -0.2779 -0.0288 -0.0378
 2376DOPC   C1A27880  14.427  31.601  12.726 -0.0161 -0.0081  0.1278
 2376DOPC   D2A27881  14.236  31.193  12.855 -0.0076 -0.1590 -0.0221
 2376DOPC   C3A27882  14.028  31.059  13.299 -0.1686 -0.0590 -0.1627
 2376DOPC   C4A27883  14.196  30.871  13.650  0.0328  0.1091 -0.2652
 2376DOPC   C1B27884  14.610  31.913  13.137 -0.0651 -0.1227  0.2191
 2376DOPC   D2B27885  14.534  31.924  13.601 -0.3206 -0.2858 -0.2213
 2376DOPC   C3B27886  14.467  31.550  13.913  0.1179 -0.2167 -0.1871
 2376DOPC   C4B27887  14.333  31.384  14.355  0.2324 -0.1196  0.1325
 2377DOPC   NC327888  18.216  31.435  12.303  0.1760 -0.0335  0.4029
 2377DOPC   PO427889  18.169  31.784  12.533 -0.2304  0.0066  0.0312
 2377DOPC   GL127890  18.086  31.857  12.968 -0.0599 -0.0676  0.1018
 2377DOPC   GL227891  18.369  31.754  13.066  0.0217  0.1850 -0.1643
 2377DOPC   C1A27892  18.012  31.755  13.426 -0.1307 -0.1519  0.1824
 2377DOPC   D2A27893  17.875  31.734  13.895  0.2042 -0.0816 -0.1706
 2377DOPC   C3A27894  17.951  31.808  14.328  0.2738  0.0203  0.1487
 2377DOPC   C4A27895  18.108  32.147  14.577  0.1041  0.1168  0.2114
 2377DOPC   C1B27896  18.460  31.379  13.357 -0.1008 -0.1035  0.0413
 2377DOPC   D2B27897  18.504  31.043  13.685 -0.3088 -0.1478 -0.0668
 2377DOPC   C3B27898  18.863  31.213  13.919  0.1328 -0.1216  0.0746
 2377DOPC   C4B27899  18.946  31.468  14.234  0.1160 -0.0878 -0.2957
 2378DOPE   NH327900  15.612  32.847  12.151  0.2150  0.0826  0.0570
 2378DOPE   PO427901  15.661  32.908  12.459 -0.0958 -0.3020 -0.0909
 2378DOPE   GL127902  15.610  33.145  12.862 -0.0711  0.4683  0.2214
 2378DOPE   GL227903  15.350  33.271  12.734  0.0108  0.3281  0.3196
 2378DOPE   C1A27904  15.386  33.212  13.265  0.0779 -0.1402  0.2211
 2378DOPE   D2A27905  14.941  33.305  13.445  0.0971  0.0139 -0.3703
 2378DOPE   C3A27906  14.814  33.368  13.896 -0.3307  0.0992 -0.1159
 2378DOPE   C4A27907  14.683  33.477  14.361  0.2899  0.1159  0.4452
 2378DOPE   C1B27908  15.010  33.447  12.962  0.0986 -0.0178 -0.2857
 2378DOPE   D2B27909  14.550  33.476  13.111  0.3280 -0.2073 -0.0308
 2378DOPE   C3B27910  14.230  33.550  12.771 -0.0596 -0.0908 -0.0427
 2378DOPE   C4B27911  14.103  33.318  12.437  0.1638  0.0347  0.0475
 2379DOPE   NH327912  13.354  33.747  12.331 -0.0591 -0.1651  0.3073
 2379DOPE   PO427913  13.598  33.819  12.540 -0.2187 -0.0695  0.1209
 2379DOPE   GL127914  13.694  34.120  12.759  0.0351  0.0568 -0.1019
 2379DOPE   GL227915  13.673  34.489  12.741 -0.3094 -0.3939 -0.0266
 2379DOPE   C1A27916  14.070  34.077  12.997 -0.1724  0.5417 -0.1769
 2379DOPE   D2A27917  14.465  33.939  13.244  0.2015 -0.1173 -0.0525
 2379DOPE   C3A27918  14.497  33.673  13.604  0.0002 -0.1557 -0.1016
 2379DOPE   C4A27919  14.339  33.693  14.035 -0.2248  0.4334 -0.1355
 2379DOPE   C1B27920  13.729  34.460  13.189  0.0142 -0.1416 -0.0427
 2379DOPE   D2B27921  13.782  34.436  13.652 -0.1399  0.0853 -0.0434
 2379DOPE   C3B27922  13.371  34.475  13.903 -0.0576  0.1210  0.1691
 2379DOPE   C4B27923  12.976  34.705  14.091 -0.2495 -0.2438  0.0468
 2380DOPC   NC327924  12.236  29.647  12.868 -0.0590 -0.0115  0.0610
 2380DOPC   PO427925  12.099  29.796  12.540 -0.1550  0.1270  0.1150
 2380DOPC   GL127926  11.881  29.921  12.863 -0.2487 -0.1085  0.0826
 2380DOPC   GL227927  11.652  29.800  12.903  0.1087 -0.1222  0.1774
 2380DOPC   C1A27928  11.805  30.083  13.328  0.0689  0.0145 -0.0347
 2380DOPC   D2A27929  11.890  30.465  13.572  0.0191  0.0299  0.1162
 2380DOPC   C3A27930  12.223  30.475  13.915 -0.1268 -0.1483  0.0464
 2380DOPC   C4A27931  12.633  30.673  14.097  0.0451  0.3417 -0.0258
 2380DOPC   C1B27932  11.302  29.885  13.162 -0.2543  0.1945 -0.1490
 2380DOPC   D2B27933  10.922  29.658  13.353  0.1365 -0.0921 -0.2748
 2380DOPC   C3B27934  10.837  29.318  13.704 -0.1294 -0.3169  0.3067
 2380DOPC   C4B27935  11.062  29.015  13.976  0.0844 -0.1229  0.4113
 2381DOPE   NH327936  22.118  30.293  12.776  0.0551  0.1488  0.1043
 2381DOPE   PO427937  22.265  30.071  12.594 -0.4275  0.3776  0.2626
 2381DOPE   GL127938  22.325  29.839  12.830  0.0281  0.2270 -0.0265
 2381DOPE   GL227939  22.082  29.652  12.783 -0.2905  0.0425 -0.1518
 2381DOPE   C1A27940  22.502  29.691  13.241  0.1654 -0.0921  0.0136
 2381DOPE   D2A27941  22.443  29.524  13.602  0.1199 -0.0038 -0.3203
 2381DOPE   C3A27942  22.790  29.340  13.789  0.0346 -0.2132  0.2084
 2381DOPE   C4A27943  23.247  29.285  13.777  0.0493 -0.3519  0.2155
 2381DOPE   C1B27944  22.020  29.579  13.207 -0.2428  0.0455  0.0347
 2381DOPE   D2B27945  21.895  29.325  13.554  0.0203 -0.0310 -0.1390
 2381DOPE   C3B27946  22.009  29.715  13.839 -0.1621 -0.3432 -0.0322
 2381DOPE   C4B27947  22.349  29.950  13.863  0.0459  0.1069  0.1971
 2382DOPS   CNO27948  17.652  33.330  12.372 -0.0211 -0.0509  0.2463
 2382DOPS   PO427949  17.475  33.129  12.087 -0.3620  0.1899  0.0540
 2382DOPS   GL127950  17.897  33.236  11.991  0.2333 -0.2030  0.0113
 2382DOPS   GL227951  18.068  33.071  12.196  0.0028  0.0705  0.2545
 2382DOPS   C1A27952  18.296  33.426  11.929  0.0038 -0.0708  0.2669
 2382DOPS   D2A27953  18.644  33.187  12.141  0.0249  0.0050 -0.0101
 2382DOPS   C3A27954  18.483  33.051  12.567  0.0859  0.0114  0.0665
 2382DOPS   C4A27955  18.247  33.095  12.928 -0.0865  0.1618  0.0469
 2382DOPS   C1B27956  18.172  33.483  12.443 -0.0945 -0.2912  0.0465
 2382DOPS   D2B27957  18.527  33.748  12.426  0.0068 -0.0718 -0.0181
 2382DOPS   C3B27958  18.651  33.915  12.839 -0.0493  0.3009 -0.1060
 2382DOPS   C4B27959  18.785  33.625  13.155 -0.1441 -0.0912 -0.0108
 2383DOPC   NC327960  15.613  33.374  12.278  0.1339 -0.2112 -0.0691
 2383DOPC   PO427961  15.588  33.646  12.557  0.2036  0.2428 -0.1705
 2383DOPC   GL127962  15.477  33.831  12.847 -0.1072  0.2642 -0.0658
 2383DOPC   GL227963  15.636  34.109  12.862 -0.0911  0.0378 -0.1096
 2383DOPC   C1A27964  15.368  33.754  13.312  0.3025 -0.2284 -0.0920
 2383DOPC   D2A27965  14.934  33.823  13.581 -0.0356  0.1465  0.2081
 2383DOPC   C3A27966  14.826  33.988  14.001  0.1542  0.3095  0.0710
 2383DOPC   C4A27967  14.619  33.980  14.375  0.2666 -0.2393  0.1272
 2383DOPC   C1B27968  15.671  34.140  13.326 -0.1489  0.1037 -0.4574
 2383DOPC   D2B27969  15.701  33.943  13.711 -0.0330 -0.1907  0.1364
 2383DOPC   C3B27970  15.537  34.238  14.072 -0.0689  0.6147 -0.1382
 2383DOPC   C4B27971  15.562  34.704  14.090 -0.0110 -0.3164 -0.0316
 2384POSM   NC327972  21.216  29.977  12.210 -0.0450 -0.0717  0.0994
 2384POSM   PO427973  20.940  30.205  12.423 -0.1693 -0.0004  0.2536
 2384POSM   AM127974  21.059  30.386  12.643  0.4278 -0.3561  0.0510
 2384POSM   AM227975  21.195  30.344  12.914  0.2144 -0.2266 -0.0677
 2384POSM   T1A27976  20.933  30.703  13.010  0.3418  0.0263  0.1529
 2384POSM   C2A27977  20.834  30.703  13.423  0.1455  0.0287  0.2900
 2384POSM   C3A27978  20.627  30.738  13.818  0.0624 -0.2232  0.0088
 2384POSM   C1B27979  21.352  30.239  13.213 -0.2733 -0.3040  0.0425
 2384POSM   D2B27980  21.390  30.185  13.676 -0.0415 -0.0905 -0.0169
 2384POSM   C3B27981  21.082  30.412  14.028 -0.1638 -0.0231  0.0627
 2384POSM   C4B27982  20.725  30.546  14.237 -0.0682  0.3524  0.1216
 2385DOPC   NC327983  13.227  30.290  12.301 -0.3747  0.1498  0.0125
 2385DOPC   PO427984  13.407  30.561  12.516  0.1554 -0.2230 -0.0883
 2385DOPC   GL127985  13.476  30.423  12.849 -0.4245 -0.2294 -0.4238
 2385DOPC   GL227986  13.370  30.159  12.791 -0.1326 -0.0796 -0.1054
 2385DOPC   C1A27987  13.192  30.310  13.210 -0.0744  0.2353  0.1011
 2385DOPC   D2A27988  13.205  29.878  13.511 -0.0902  0.2612 -0.0782
 2385DOPC   C3A27989  12.851  29.614  13.614  0.1118  0.0343 -0.0072
 2385DOPC   C4A27990  12.473  29.290  13.718  0.1323 -0.1545  0.0096
 2385DOPC   C1B27991  13.161  29.774  12.965 -0.3283 -0.2948 -0.3694
 2385DOPC   D2B27992  13.029  29.378  13.092  0.1013  0.0351  0.0193
 2385DOPC   C3B27993  13.421  29.158  13.245 -0.0047 -0.3323 -0.0724
 2385DOPC   C4B27994  13.802  29.013  13.554 -0.0085  0.0797 -0.4173
 2386POSM   NC327995  16.991  31.918  12.334  0.2926  0.3433 -0.1239
 2386POSM   PO427996  17.203  31.599  12.494 -0.0979  0.0659  0.1386
 2386POSM   AM127997  17.208  31.487  12.811  0.2427  0.4692  0.3145
 2386POSM   AM227998  17.462  31.459  13.017  0.2171 -0.0803  0.0721
 2386POSM   T1A27999  17.072  31.170  13.162 -0.0970  0.3003 -0.2018
 2386POSM   C2A28000  17.067  31.034  13.580  0.1190  0.0195  0.4268
 2386POSM   C3A28001  16.878  30.837  13.999 -0.3387  0.0017 -0.1758
 2386POSM   C1B28002  17.591  31.377  13.324  0.0040 -0.0288 -0.0530
 2386POSM   D2B28003  17.465  31.272  13.771  0.2584  0.1763  0.2197
 2386POSM   C3B28004  17.892  31.261  14.008 -0.0833 -0.0030  0.1152
 2386POSM   C4B28005  18.305  31.439  13.953 -0.0756  0.0633  0.1484
 2387DOPE   NH328006  15.025  29.342  12.868  0.0631 -0.2511  0.0468
 2387DOPE   PO428007  14.818  29.594  12.763 -0.1180 -0.0592 -0.2375
 2387DOPE   GL128008  14.749  29.703  13.028 -0.0437  0.3040 -0.4772
 2387DOPE   GL228009  14.946  29.846  13.160 -0.1107 -0.0025 -0.0201
 2387DOPE   C1A28010  14.601  30.151  13.241  0.3379  0.0657  0.1395
 2387DOPE   D2A28011  14.611  30.256  13.687  0.2138 -0.2446  0.2478
 2387DOPE   C3A28012  14.210  30.039  13.856  0.0172  0.1354 -0.1745
 2387DOPE   C4A28013  13.832  29.837  14.019  0.1934  0.1796 -0.0385
 2387DOPE   C1B28014  15.078  29.931  13.603  0.3890 -0.1191 -0.4374
 2387DOPE   D2B28015  15.061  29.782  14.006 -0.0244  0.1752 -0.3106
 2387DOPE   C3B28016  14.628  29.847  14.055  0.0497 -0.2253  0.0105
 2387DOPE   C4B28017  14.270  29.653  14.260  0.0224  0.0420  0.1371
 2388DOPE   NH328018  21.227  29.808  12.681 -0.0073 -0.2424  0.1006
 2388DOPE   PO428019  21.433  29.599  12.563  0.1489  0.3080 -0.0701
 2388DOPE   GL128020  21.631  29.652  12.898  0.2467  0.0790  0.0078
 2388DOPE   GL228021  21.709  29.920  12.921 -0.0261 -0.0659 -0.1319
 2388DOPE   C1A28022  21.526  29.383  13.234 -0.0748  0.0031  0.2711
 2388DOPE   D2A28023  21.329  29.228  13.608 -0.0281  0.0966 -0.2299
 2388DOPE   C3A28024  21.557  29.269  13.973 -0.2447  0.3638 -0.1549
 2388DOPE   C4A28025  21.622  29.379  14.382  0.0555 -0.0988  0.2622
 2388DOPE   C1B28026  21.680  29.880  13.418  0.4659 -0.0711  0.0663
 2388DOPE   D2B28027  21.509  29.715  13.797 -0.1462 -0.2330 -0.1161
 2388DOPE   C3B28028  21.460  30.042  14.148  0.3033  0.1176  0.0560
 2388DOPE   C4B28029  21.639  30.359  14.415 -0.0990  0.5056  0.1332
 2389DOPS   CNO28030  18.705  22.908  11.750  0.1394  0.0158  0.1265
 2389DOPS   PO428031  18.838  22.967  12.130  0.1261  0.4795 -0.0575
 2389DOPS   GL128032  18.631  22.961  12.513 -0.3252  0.0628  0.1127
 2389DOPS   GL228033  18.566  23.201  12.640 -0.0594  0.0826  0.4867
 2389DOPS   C1A28034  18.896  22.842  12.840 -0.2908  0.2826  0.0477
 2389DOPS   D2A28035  19.153  22.481  12.898 -0.1591  0.0591  0.2527
 2389DOPS   C3A28036  19.295  22.427  13.360  0.1653  0.1391  0.2000
 2389DOPS   C4A28037  19.613  22.273  13.666 -0.0004  0.1339  0.0453
 2389DOPS   C1B28038  18.531  23.511  12.935 -0.4004  0.0747  0.4842
 2389DOPS   D2B28039  18.666  23.802  13.328  0.2620  0.0658  0.1686
 2389DOPS   C3B28040  18.674  23.477  13.702 -0.1577 -0.0493  0.1042
 2389DOPS   C4B28041  18.266  23.244  13.743  0.0796  0.0205 -0.1150
 2390DOPE   NH328042  12.557  23.684  12.093  0.1378 -0.0589  0.0703
 2390DOPE   PO428043  12.638  23.667  12.441  0.1641 -0.0149 -0.2543
 2390DOPE   GL128044  12.431  23.814  12.784 -0.0180 -0.2690 -0.1330
 2390DOPE   GL228045  12.597  24.058  12.808 -0.1701 -0.0143  0.2296
 2390DOPE   C1A28046  12.449  23.741  13.254 -0.1368  0.1170 -0.0735
 2390DOPE   D2A28047  12.537  23.880  13.739  0.1777 -0.3742  0.1715
 2390DOPE   C3A28048  12.645  24.285  13.974 -0.2393  0.4699  0.0057
 2390DOPE   C4A28049  12.695  24.631  14.316 -0.0881 -0.0079  0.0066
 2390DOPE   C1B28050  12.567  24.394  13.071 -0.1546 -0.2438 -0.0392
 2390DOPE   D2B28051  12.589  24.778  13.197  0.1204  0.2128 -0.5002
 2390DOPE   C3B28052  12.697  25.177  13.022 -0.3231 -0.0784 -0.1003
 2390DOPE   C4B28053  12.883  25.269  12.611  0.3546 -0.1448 -0.2197
 2391DOPE   NH328054  21.399  23.510  11.946  0.0660  0.1894  0.1511
 2391DOPE   PO428055  21.286  23.812  11.906 -0.1084 -0.0498 -0.3789
 2391DOPE   GL128056  21.146  23.811  12.294 -0.1222  0.1666  0.1672
 2391DOPE   GL228057  20.860  23.730  12.267 -0.1370 -0.2845  0.1148
 2391DOPE   C1A28058  21.275  23.885  12.741 -0.0941 -0.1388  0.1544
 2391DOPE   D2A28059  21.372  23.939  13.175 -0.1469  0.1648  0.1516
 2391DOPE   C3A28060  21.729  24.099  13.468 -0.4513 -0.1661  0.1422
 2391DOPE   C4A28061  22.193  24.290  13.456 -0.1621 -0.0570  0.2876
 2391DOPE   C1B28062  20.812  23.920  12.669  0.2858  0.0534  0.0362
 2391DOPE   D2B28063  20.916  24.088  13.070  0.1997 -0.2079 -0.1666
 2391DOPE   C3B28064  20.986  23.891  13.493  0.0977  0.1743 -0.2189
 2391DOPE   C4B28065  20.886  23.722  13.870 -0.1773 -0.0714 -0.3515
 2392POSM   NC328066  22.906  32.292  12.270 -0.1891 -0.1878 -0.1867
 2392POSM   PO428067  22.567  32.127  12.313  0.4511 -0.0548  0.5384
 2392POSM   AM128068  22.530  32.278  12.600 -0.1906  0.3015  0.2807
 2392POSM   AM228069  22.312  32.370  12.759 -0.3034  0.1901 -0.0229
 2392POSM   T1A28070  22.569  32.142  13.101 -0.0068  0.0233 -0.1192
 2392POSM   C2A28071  22.355  32.200  13.500 -0.0955 -0.2811  0.0694
 2392POSM   C3A28072  21.886  32.214  13.332 -0.1606 -0.2495  0.1596
 2392POSM   C1B28073  22.201  32.473  13.089 -0.0608 -0.0725  0.1162
 2392POSM   D2B28074  22.169  32.664  13.518  0.5581  0.0212 -0.1631
 2392POSM   C3B28075  22.513  32.920  13.612 -0.0579 -0.1872  0.1425
 2392POSM   C4B28076  22.811  33.121  13.297  0.1135 -0.0312 -0.2178
 2393DOPC   NC328077  23.660  31.620  12.431  0.2020 -0.0341  0.2407
 2393DOPC   PO428078  23.337  31.435  12.493  0.1957 -0.0949  0.0004
 2393DOPC   GL128079  23.140  31.537  12.745  0.0630 -0.1195  0.5823
 2393DOPC   GL228080  23.004  31.826  12.653 -0.1933  0.2077  0.1330
 2393DOPC   C1A28081  22.807  31.455  13.085 -0.1879  0.0782 -0.0272
 2393DOPC   D2A28082  22.602  31.269  13.443  0.1062 -0.2140  0.4344
 2393DOPC   C3A28083  22.633  31.375  13.887  0.3358 -0.0944  0.1167
 2393DOPC   C4A28084  22.582  31.604  14.286 -0.0392 -0.1502  0.0620
 2393DOPC   C1B28085  23.135  31.859  13.044  0.1329  0.2381  0.0244
 2393DOPC   D2B28086  23.167  31.776  13.419  0.1339  0.1272  0.3820
 2393DOPC   C3B28087  22.754  31.872  13.540  0.0708  0.0164  0.1828
 2393DOPC   C4B28088  22.552  31.974  13.890 -0.0447  0.1249 -0.1488
 2394DOPC   NC328089  14.387  23.674  11.886  0.0196  0.1186 -0.0387
 2394DOPC   PO428090  14.643  23.496  12.168 -0.2219 -0.1437  0.1270
 2394DOPC   GL128091  14.961  23.774  11.935 -0.1992  0.1957 -0.1362
 2394DOPC   GL228092  15.129  23.588  12.070 -0.1347 -0.0692  0.0185
 2394DOPC   C1A28093  15.221  24.150  12.045 -0.0330 -0.3510 -0.1795
 2394DOPC   D2A28094  15.631  24.336  11.993 -0.0333  0.0227  0.0635
 2394DOPC   C3A28095  16.073  24.315  11.927  0.1589  0.1728  0.0421
 2394DOPC   C4A28096  16.344  23.922  12.015 -0.1218  0.0544  0.2931
 2394DOPC   C1B28097  15.128  23.726  12.492  0.0716 -0.0205 -0.0338
 2394DOPC   D2B28098  15.111  23.813  12.907  0.1719  0.1840 -0.3677
 2394DOPC   C3B28099  15.333  23.703  13.231 -0.0798  0.0220 -0.1367
 2394DOPC   C4B28100  15.412  23.266  13.427  0.3486  0.1201  0.1253
 2395DOPE   NH328101  14.168  24.311  11.856 -0.2399 -0.0287  0.2837
 2395DOPE   PO428102  14.452  24.438  11.942 -0.2320 -0.0875  0.2035
 2395DOPE   GL128103  14.670  24.290  12.147  0.2906 -0.0073 -0.1792
 2395DOPE   GL228104  14.644  23.992  12.231 -0.0165  0.0149  0.2833
 2395DOPE   C1A28105  15.013  24.205  12.488 -0.0016 -0.3564 -0.1917
 2395DOPE   D2A28106  15.439  24.225  12.604 -0.3379  0.2717  0.1108
 2395DOPE   C3A28107  15.668  23.906  12.850 -0.1010  0.1445 -0.2479
 2395DOPE   C4A28108  15.712  23.484  13.067 -0.0843 -0.4361  0.1641
 2395DOPE   C1B28109  14.655  23.938  12.697 -0.0058  0.0027  0.1021
 2395DOPE   D2B28110  14.723  23.736  13.174 -0.2709  0.2000 -0.2596
 2395DOPE   C3B28111  14.766  24.084  13.382 -0.2299 -0.1068  0.0005
 2395DOPE   C4B28112  14.989  24.433  13.657 -0.1014 -0.3271 -0.2074
 2396DOPE   NH328113  19.176  26.906  12.781  0.1256  0.0100 -0.0318
 2396DOPE   PO428114  19.302  26.988  12.465 -0.3385 -0.2460 -0.0701
 2396DOPE   GL128115  19.629  27.036  12.668  0.3028 -0.0252 -0.2817
 2396DOPE   GL228116  19.782  27.210  12.614 -0.3141 -0.0642 -0.1089
 2396DOPE   C1A28117  19.642  27.021  13.138 -0.0162 -0.2133 -0.1065
 2396DOPE   D2A28118  19.590  27.074  13.619 -0.0396 -0.1368 -0.2106
 2396DOPE   C3A28119  19.242  27.362  13.626  0.3245  0.2995 -0.1050
 2396DOPE   C4A28120  18.835  27.505  13.566 -0.0949 -0.0461  0.1947
 2396DOPE   C1B28121  20.118  27.421  12.864  0.1627 -0.4927 -0.3875
 2396DOPE   D2B28122  20.331  27.671  13.108  0.1004 -0.0827 -0.1211
 2396DOPE   C3B28123  20.493  27.448  13.488 -0.2326 -0.4154 -0.3417
 2396DOPE   C4B28124  20.515  27.049  13.757 -0.1429 -0.1999  0.1510
 2397POSM   NC328125  18.412  23.316  11.784 -0.0823  0.0112  0.0568
 2397POSM   PO428126  18.284  23.666  11.939 -0.0327 -0.3882  0.0893
 2397POSM   AM128127  18.016  23.774  12.102  0.4175 -0.1131 -0.1573
 2397POSM   AM228128  17.784  23.598  12.206 -0.2197 -0.3214  0.2332
 2397POSM   T1A28129  17.702  24.161  12.245  0.1695 -0.0523  0.1128
 2397POSM   C2A28130  17.685  24.639  12.413 -0.0926 -0.0664 -0.1394
 2397POSM   C3A28131  17.715  25.110  12.536 -0.0169 -0.3144 -0.2128
 2397POSM   C1B28132  17.496  23.716  12.316  0.1320  0.2844 -0.1880
 2397POSM   D2B28133  17.372  23.915  12.722 -0.0330  0.2990 -0.3719
 2397POSM   C3B28134  17.229  24.303  12.900  0.0385  0.1461 -0.0178
 2397POSM   C4B28135  16.998  24.688  13.024  0.0396 -0.0534  0.1449
 2398POSM   NC328136  20.751  28.895  12.109  0.0970 -0.0337  0.0901
 2398POSM   PO428137  20.335  28.838  12.102  0.2396 -0.0064 -0.1077
 2398POSM   AM128138  20.372  28.695  12.398  0.4295  0.0852  0.2938
 2398POSM   AM228139  20.214  28.438  12.372 -0.0190 -0.2670  0.0039
 2398POSM   T1A28140  20.401  28.623  12.897  0.3967 -0.0316  0.1174
 2398POSM   C2A28141  20.516  28.544  13.364 -0.1759  0.1550  0.1305
 2398POSM   C3A28142  20.345  28.373  13.771  0.2229  0.0211  0.2417
 2398POSM   C1B28143  19.986  28.371  12.631  0.1207 -0.1461  0.0029
 2398POSM   D2B28144  19.554  28.335  12.834  0.1341  0.0409  0.0707
 2398POSM   C3B28145  19.228  28.524  13.187 -0.3515  0.0055  0.2512
 2398POSM   C4B28146  18.908  28.452  13.406 -0.0062  0.0282  0.2449
 2399POSM   NC328147  12.643  32.792  12.761 -0.1093  0.1625 -0.1821
 2399POSM   PO428148  12.700  33.149  12.576 -0.1347  0.1916 -0.3154
 2399POSM   AM128149  12.986  33.009  12.551  0.4549 -0.0581  0.0959
 2399POSM   AM228150  13.155  32.876  12.726 -0.1945  0.0777 -0.1008
 2399POSM   T1A28151  13.297  32.815  12.280 -0.2754  0.2411  0.1792
 2399POSM   C2A28152  13.487  32.396  12.354 -0.2292  0.0183  0.2348
 2399POSM   C3A28153  13.796  32.181  12.088 -0.0522  0.0837  0.2089
 2399POSM   C1B28154  13.389  32.693  12.920  0.0701 -0.2100 -0.2624
 2399POSM   D2B28155  13.494  32.644  13.430  0.2396  0.3031 -0.1995
 2399POSM   C3B28156  13.728  32.373  13.648  0.3750 -0.1857  0.1862
 2399POSM   C4B28157  13.840  32.090  13.957  0.2605  0.4728  0.1655
 2400POSM   NC328158  22.732  26.748  12.207 -0.1212  0.0045  0.3393
 2400POSM   PO428159  22.880  26.405  12.012  0.1349 -0.1148  0.3228
 2400POSM   AM128160  22.643  26.236  12.143 -0.2204  0.3308  0.2563
 2400POSM   AM228161  22.414  26.306  12.316  0.0212  0.2498 -0.1112
 2400POSM   T1A28162  22.220  26.026  11.965  0.1878  0.2127  0.1967
 2400POSM   C2A28163  21.856  25.716  12.137 -0.2389  0.0433 -0.0409
 2400POSM   C3A28164  21.366  25.589  12.108  0.2993 -0.1048 -0.3440
 2400POSM   C1B28165  22.273  26.394  12.604 -0.1193 -0.4473  0.1257
 2400POSM   D2B28166  21.927  26.667  12.785 -0.2448 -0.2127 -0.1560
 2400POSM   C3B28167  21.532  26.833  12.670 -0.1591 -0.1461  0.2990
 2400POSM   C4B28168  21.354  27.179  12.929  0.0211 -0.2956 -0.0149
 2401DOPC   NC328169  15.152  29.932  12.619  0.1753  0.0856 -0.2079
 2401DOPC   PO428170  15.307  29.607  12.477 -0.2364  0.0948  0.0406
 2401DOPC   GL128171  15.451  29.712  12.948  0.0164 -0.0700  0.0652
 2401DOPC   GL228172  15.551  29.430  12.920 -0.3853  0.2118  0.0685
 2401DOPC   C1A28173  15.373  29.648  13.407  0.1077 -0.2381  0.0762
 2401DOPC   D2A28174  15.322  29.351  13.741  0.0552  0.1164 -0.1604
 2401DOPC   C3A28175  15.176  29.173  14.113  0.0203  0.0443 -0.3352
 2401DOPC   C4A28176  15.040  28.850  14.419  0.0298 -0.0770 -0.0279
 2401DOPC   C1B28177  15.503  29.192  13.284 -0.0677  0.2514 -0.0337
 2401DOPC   D2B28178  15.672  28.932  13.635  0.0391 -0.0298  0.0542
 2401DOPC   C3B28179  15.969  28.979  13.938 -0.0585 -0.1057  0.2818
 2401DOPC   C4B28180  16.304  29.321  13.895  0.2780  0.1633  0.0696
 2402DOPC   NC328181  20.663  24.439  11.881 -0.1914  0.1178 -0.0087
 2402DOPC   PO428182  20.920  24.223  12.087 -0.1434  0.2544 -0.1168
 2402DOPC   GL128183  20.803  24.330  12.434 -0.1391 -0.0633 -0.3011
 2402DOPC   GL228184  21.015  24.387  12.651  0.1861  0.2231 -0.0785
 2402DOPC   C1A28185  20.545  24.442  12.797 -0.2847  0.4378  0.1108
 2402DOPC   D2A28186  20.484  24.410  13.248 -0.1113 -0.1604  0.0841
 2402DOPC   C3A28187  20.852  24.465  13.517 -0.3195 -0.0404  0.1407
 2402DOPC   C4A28188  21.038  24.498  13.924  0.1860  0.1092 -0.1621
 2402DOPC   C1B28189  20.976  24.589  13.059 -0.4978 -0.5524  0.0878
 2402DOPC   D2B28190  21.242  24.890  13.326  0.1101 -0.0551  0.0529
 2402DOPC   C3B28191  21.520  25.185  13.450 -0.0180 -0.1195 -0.0854
 2402DOPC   C4B28192  21.369  25.596  13.489 -0.3216  0.1985  0.4171
 2403DOPE   NH328193  20.119  29.523  12.861 -0.0664  0.0650  0.3138
 2403DOPE   PO428194  20.210  29.613  12.607 -0.2651 -0.0266  0.0246
 2403DOPE   GL128195  20.307  30.044  12.747 -0.0885  0.1511  0.5280
 2403DOPE   GL228196  20.370  30.152  12.543 -0.0659  0.0599 -0.0316
 2403DOPE   C1A28197  20.240  30.173  13.211 -0.0033 -0.2165  0.2633
 2403DOPE   D2A28198  20.039  30.257  13.613 -0.0817 -0.1477 -0.1734
 2403DOPE   C3A28199  20.133  30.580  13.880 -0.2586 -0.1035 -0.2179
 2403DOPE   C4A28200  20.194  30.692  14.323 -0.0604 -0.1415 -0.2336
 2403DOPE   C1B28201  20.369  30.555  12.811  0.1293  0.0503 -0.2502
 2403DOPE   D2B28202  20.392  30.642  13.278 -0.1494  0.0559 -0.0109
 2403DOPE   C3B28203  20.392  31.130  13.430 -0.1936  0.2177  0.0345
 2403DOPE   C4B28204  20.290  31.498  13.492 -0.0499 -0.0933 -0.1252
 2404DOPC   NC328205  19.722  29.638  12.508 -0.3092  0.2583 -0.3630
 2404DOPC   PO428206  19.856  30.010  12.597 -0.1338  0.0163  0.2264
 2404DOPC   GL128207  19.895  29.859  13.024 -0.4366  0.2183 -0.2414
 2404DOPC   GL228208  19.575  29.840  13.000  0.0764 -0.1518 -0.0549
 2404DOPC   C1A28209  19.901  29.801  13.483 -0.0217 -0.0584 -0.2942
 2404DOPC   D2A28210  19.973  29.658  13.908 -0.0440  0.0659 -0.1101
 2404DOPC   C3A28211  19.715  29.711  14.271  0.0369  0.1630  0.1186
 2404DOPC   C4A28212  19.439  29.388  14.421  0.4922 -0.0617  0.2252
 2404DOPC   C1B28213  19.398  30.146  13.323  0.2141 -0.0813 -0.2018
 2404DOPC   D2B28214  19.484  30.472  13.676 -0.2136  0.0684  0.2947
 2404DOPC   C3B28215  19.232  30.841  13.687 -0.1309  0.1530  0.2122
 2404DOPC   C4B28216  19.012  31.190  13.462 -0.0689  0.0513 -0.0631
 2405DOPC   NC328217  22.098  30.990  12.480  0.1529 -0.2378 -0.1909
 2405DOPC   PO428218  22.270  30.806  12.765 -0.3460  0.1999 -0.1915
 2405DOPC   GL128219  22.102  31.079  13.004 -0.3421  0.0530  0.1773
 2405DOPC   GL228220  22.102  31.325  12.882 -0.2424 -0.0353  0.0683
 2405DOPC   C1A28221  22.048  31.283  13.419  0.0389 -0.0221  0.3487
 2405DOPC   D2A28222  21.867  31.718  13.389 -0.1222 -0.0828 -0.4040
 2405DOPC   C3A28223  21.489  31.985  13.524 -0.3691 -0.0505 -0.2363
 2405DOPC   C4A28224  21.101  32.011  13.673 -0.0975  0.1018  0.1527
 2405DOPC   C1B28225  21.681  31.306  13.038 -0.2760  0.3046 -0.4171
 2405DOPC   D2B28226  21.336  31.568  13.209  0.1802 -0.3771 -0.3108
 2405DOPC   C3B28227  20.926  31.766  13.299 -0.0430  0.2833  0.0368
 2405DOPC   C4B28228  20.702  31.710  13.718 -0.0136 -0.2728 -0.2968
 2406DOPS   CNO28229  20.238   0.176  12.009 -0.0883  0.0990 -0.1246
 2406DOPS   PO428230  20.254  -0.111  12.242 -0.0876 -0.0510  0.0063
 2406DOPS   GL128231  20.144  -0.095  12.665  0.1934 -0.1284  0.0281
 2406DOPS   GL228232  20.182  -0.456  12.783 -0.1780 -0.1228 -0.0554
 2406DOPS   C1A28233  20.077   0.264  12.955 -0.2023 -0.2600  0.3919
 2406DOPS   D2A28234  19.922   0.603  13.141 -0.0223  0.0708 -0.0653
 2406DOPS   C3A28235  19.773   0.537  13.615 -0.2104 -0.2852  0.0334
 2406DOPS   C4A28236  19.386   0.427  13.831  0.0080  0.0155 -0.0556
 2406DOPS   C1B28237  20.436  -0.583  13.118 -0.0789  0.1343  0.0742
 2406DOPS   D2B28238  20.798  -0.796  13.299  0.0539  0.0640 -0.0082
 2406DOPS   C3B28239  20.772  -0.743  13.756 -0.0936 -0.3202 -0.1662
 2406DOPS   C4B28240  20.911  -0.943  14.113 -0.1458 -0.1523 -0.1048
 2407POSM   NC328241  23.112  27.645  12.030 -0.1902 -0.0548  0.0763
 2407POSM   PO428242  22.707  27.615  11.957 -0.0024 -0.0638  0.0833
 2407POSM   AM128243  22.689  27.939  12.048 -0.0747 -0.0559  0.3089
 2407POSM   AM228244  22.887  28.169  12.115 -0.2346  0.1653 -0.2191
 2407POSM   T1A28245  22.428  28.368  12.004 -0.0328 -0.3473  0.0483
 2407POSM   C2A28246  22.215  28.748  12.131  0.1007  0.1740 -0.2694
 2407POSM   C3A28247  22.212  28.787  12.625  0.2214 -0.1803  0.1805
 2407POSM   C1B28248  22.836  28.291  12.424 -0.4544  0.1841 -0.0199
 2407POSM   D2B28249  22.697  28.406  12.837 -0.0583  0.4381 -0.0727
 2407POSM   C3B28250  22.266  28.172  12.983  0.1284  0.2119  0.1381
 2407POSM   C4B28251  21.934  28.247  13.266  0.2222  0.1691 -0.1815
 2408DOPS   CNO28252  18.404  32.072  12.025  0.1521 -0.3539 -0.0989
 2408DOPS   PO428253  18.498  32.161  12.387 -0.0304 -0.1908 -0.3078
 2408DOPS   GL128254  18.499  32.076  12.742 -0.2398  0.1674 -0.1196
 2408DOPS   GL228255  18.323  32.207  12.879  0.1665 -0.2012  0.0081
 2408DOPS   C1A28256  18.908  31.947  12.900 -0.2990 -0.1162 -0.0454
 2408DOPS   D2A28257  19.197  32.153  13.178  0.1483  0.0094  0.0462
 2408DOPS   C3A28258  19.395  32.519  13.027 -0.2363  0.0540  0.1905
 2408DOPS   C4A28259  19.517  32.986  12.929  0.0895  0.1249 -0.4952
 2408DOPS   C1B28260  18.586  32.195  13.220 -0.2500  0.0989 -0.4243
 2408DOPS   D2B28261  18.828  32.177  13.600 -0.0189  0.1271 -0.2020
 2408DOPS   C3B28262  19.273  32.078  13.692 -0.1694  0.0578  0.0279
 2408DOPS   C4B28263  19.705  32.222  13.807  0.2503 -0.0560 -0.2773
 2409POSM   NC328264  14.929  29.278  12.379 -0.3107  0.1426 -0.1770
 2409POSM   PO428265  14.580  29.209  12.590  0.0454  0.0862  0.1851
 2409POSM   AM128266  14.329  29.205  12.833  0.2710 -0.0740 -0.1784
 2409POSM   AM228267  14.198  29.003  12.952  0.0275  0.0313 -0.0339
 2409POSM   T1A28268  14.026  29.317  13.237  0.0172 -0.2633 -0.3088
 2409POSM   C2A28269  14.023  29.526  13.677  0.1724 -0.1296 -0.0729
 2409POSM   C3A28270  14.012  29.269  14.015 -0.3724  0.0516  0.0591
 2409POSM   C1B28271  14.350  28.850  13.244 -0.1650 -0.0784 -0.4188
 2409POSM   D2B28272  14.582  28.632  13.586  0.0638  0.1565 -0.3405
 2409POSM   C3B28273  14.718  28.859  14.011  0.0925  0.1068  0.0910
 2409POSM   C4B28274  14.633  29.176  14.298  0.1306 -0.1057  0.3230
 2410DOPC   NC328275  14.816  32.633  12.646  0.0112  0.1329  0.0442
 2410DOPC   PO428276  15.052  32.321  12.779 -0.0854 -0.0002  0.1404
 2410DOPC   GL128277  15.035  32.194  13.170 -0.0981 -0.0901  0.1741
 2410DOPC   GL228278  14.793  32.317  13.202  0.1216  0.0791  0.2012
 2410DOPC   C1A28279  15.282  31.837  13.358  0.1237  0.2050  0.1601
 2410DOPC   D2A28280  15.744  31.713  13.425 -0.0332 -0.1032  0.0582
 2410DOPC   C3A28281  15.916  31.688  13.843  0.3269 -0.1038  0.2331
 2410DOPC   C4A28282  15.801  31.698  14.267  0.0945  0.0689  0.1180
 2410DOPC   C1B28283  14.883  32.263  13.645  0.1923  0.2769  0.1194
 2410DOPC   D2B28284  14.609  32.275  13.952 -0.3055 -0.3209  0.3121
 2410DOPC   C3B28285  14.214  32.401  13.941  0.2320 -0.2423  0.1680
 2410DOPC   C4B28286  13.907  32.520  14.258 -0.3245 -0.1518 -0.1534
 2411DOPC   NC328287  20.480  29.420  12.258 -0.4452 -0.3863  0.0316
 2411DOPC   PO428288  20.584  29.144  12.519  0.0397 -0.1361  0.1793
 2411DOPC   GL128289  20.735  28.853  12.580 -0.3323 -0.0314  0.2937
 2411DOPC   GL228290  20.890  28.935  12.905  0.0348  0.1419  0.2437
 2411DOPC   C1A28291  20.664  28.403  12.517  0.1968  0.0032  0.0540
 2411DOPC   D2A28292  20.469  28.090  12.809 -0.4153  0.1107 -0.0749
 2411DOPC   C3A28293  20.658  27.964  13.267  0.0671 -0.0679  0.0181
 2411DOPC   C4A28294  20.674  27.996  13.688  0.1810  0.1874  0.0297
 2411DOPC   C1B28295  20.895  28.496  13.092 -0.1327  0.0428  0.0554
 2411DOPC   D2B28296  21.047  28.087  13.019 -0.0946 -0.2833 -0.2567
 2411DOPC   C3B28297  21.073  27.900  12.634  0.2097  0.4255  0.0590
 2411DOPC   C4B28298  21.093  27.535  12.330  0.1705 -0.2030 -0.0380
 2412DOPC   NC328299  13.193  24.191  12.193  0.1200  0.0671  0.3100
 2412DOPC   PO428300  13.137  23.775  12.241 -0.0716  0.0676 -0.0029
 2412DOPC   GL128301  13.188  23.509  12.643  0.1477 -0.1828 -0.0865
 2412DOPC   GL228302  13.404  23.717  12.663  0.1002 -0.1388  0.1550
 2412DOPC   C1A28303  13.049  23.761  13.004 -0.1256  0.2225  0.1527
 2412DOPC   D2A28304  12.837  24.045  13.351  0.0362 -0.0683  0.1089
 2412DOPC   C3A28305  12.974  24.476  13.511 -0.2088  0.1060 -0.2014
 2412DOPC   C4A28306  12.799  24.833  13.828 -0.1914 -0.0410 -0.0942
 2412DOPC   C1B28307  13.574  23.887  13.083  0.1033 -0.3588  0.0842
 2412DOPC   D2B28308  13.770  24.164  13.373  0.0710  0.0838  0.1908
 2412DOPC   C3B28309  14.066  24.508  13.432 -0.0626 -0.2458 -0.1774
 2412DOPC   C4B28310  14.532  24.516  13.480 -0.2197 -0.1615  0.1322
 2413POSM   NC328311  21.219  34.291  12.626 -0.0102  0.1988  0.4663
 2413POSM   PO428312  21.280  33.886  12.661  0.1615  0.1130  0.1431
 2413POSM   AM128313  20.997  33.766  12.740  0.1161  0.1471 -0.3686
 2413POSM   AM228314  20.838  33.567  12.604  0.1463  0.2219  0.1418
 2413POSM   T1A28315  20.579  33.592  13.009 -0.1094 -0.0975 -0.3100
 2413POSM   C2A28316  20.491  33.213  13.278 -0.0110 -0.0445  0.0760
 2413POSM   C3A28317  20.271  33.075  13.657  0.0711  0.0545  0.1527
 2413POSM   C1B28318  20.699  33.271  12.448 -0.0063 -0.2921  0.0083
 2413POSM   D2B28319  20.397  33.004  12.311 -0.0849 -0.3782 -0.1415
 2413POSM   C3B28320  20.281  32.576  12.248 -0.0134 -0.0329  0.0609
 2413POSM   C4B28321  19.975  32.220  12.368  0.0259  0.1108 -0.1187
 2414POSM   NC328322  13.801  26.999  12.328 -0.1505 -0.0786  0.1925
 2414POSM   PO428323  13.874  26.610  12.199  0.1696  0.1417 -0.1246
 2414POSM   AM128324  14.110  26.534  12.445  0.0219  0.2288 -0.1208
 2414POSM   AM228325  14.332  26.709  12.491  0.3094 -0.1048  0.1834
 2414POSM   T1A28326  14.373  26.120  12.495  0.2207  0.2124 -0.1704
 2414POSM   C2A28327  14.559  25.676  12.568  0.0505 -0.1494 -0.1400
 2414POSM   C3A28328  15.007  25.567  12.546 -0.0627 -0.0596  0.1566
 2414POSM   C1B28329  14.590  26.582  12.599  0.3874 -0.0409  0.0295
 2414POSM   D2B28330  14.792  26.286  12.737  0.3002  0.2911 -0.0490
 2414POSM   C3B28331  14.721  26.417  13.164 -0.0072 -0.0670  0.2055
 2414POSM   C4B28332  14.627  26.616  13.572  0.0331 -0.1022 -0.1614
 2415DOPE   NH328333  17.738  27.045  12.606  0.2267 -0.0374 -0.2483
 2415DOPE   PO428334  17.643  27.092  12.928 -0.0988  0.0876 -0.0196
 2415DOPE   GL128335  17.624  27.385  13.180 -0.1924 -0.0064 -0.0759
 2415DOPE   GL228336  17.412  27.390  13.358 -0.0997 -0.0668 -0.0933
 2415DOPE   C1A28337  17.690  27.820  13.365 -0.0057 -0.2199 -0.0970
 2415DOPE   D2A28338  17.798  28.244  13.560  0.2401  0.3668  0.2087
 2415DOPE   C3A28339  18.014  28.505  13.868 -0.0078 -0.0042 -0.1175
 2415DOPE   C4A28340  18.248  28.532  14.187 -0.1972 -0.2271 -0.5314
 2415DOPE   C1B28341  17.241  27.614  13.672  0.2026  0.1092 -0.0663
 2415DOPE   D2B28342  17.309  28.046  13.756  0.0987 -0.0822 -0.0544
 2415DOPE   C3B28343  17.186  28.252  14.187 -0.0069  0.3644  0.0032
 2415DOPE   C4B28344  17.443  28.125  14.580 -0.0693  0.0526  0.3503
 2416DOPS   CNO28345  23.406  27.219  12.048  0.1319 -0.2985 -0.4856
 2416DOPS   PO428346  23.399  27.377  12.407  0.1595  0.2776 -0.0412
 2416DOPS   GL128347  23.109  27.468  12.707  0.0987  0.1665  0.3891
 2416DOPS   GL228348  22.973  27.257  12.804 -0.0054  0.0985 -0.1313
 2416DOPS   C1A28349  22.844  27.684  12.986  0.1277  0.3185  0.0322
 2416DOPS   D2A28350  22.749  28.081  13.264 -0.1255  0.2109 -0.1545
 2416DOPS   C3A28351  22.357  28.144  13.500  0.2462  0.0163  0.2398
 2416DOPS   C4A28352  22.382  28.232  13.939  0.0863  0.2391 -0.5545
 2416DOPS   C1B28353  22.669  27.138  13.162 -0.2408  0.1803 -0.2502
 2416DOPS   D2B28354  22.206  27.214  13.193 -0.2075 -0.0271 -0.2582
 2416DOPS   C3B28355  21.933  27.197  12.864  0.0661 -0.1260 -0.0362
 2416DOPS   C4B28356  21.773  27.157  12.409 -0.2805 -0.0121 -0.0082
 2417DOPE   NH328357  22.812  33.963  12.710  0.3512 -0.2106 -0.0754
 2417DOPE   PO428358  23.144  34.019  12.700  0.0069 -0.4116 -0.2005
 2417DOPE   GL128359  23.257  33.981  13.010 -0.0275  0.2999 -0.2994
 2417DOPE   GL228360  23.146  34.174  13.242  0.1069 -0.1376 -0.0903
 2417DOPE   C1A28361  23.700  34.035  13.191 -0.0595  0.2164 -0.0467
 2417DOPE   D2A28362  23.901  33.832  13.562  0.0662 -0.0501  0.3196
 2417DOPE   C3A28363  23.828  33.788  13.993  0.3270  0.3026 -0.1698
 2417DOPE   C4A28364  23.568  33.969  14.283 -0.0132 -0.0433  0.2448
 2417DOPE   C1B28365  23.395  33.901  13.557  0.4778  0.2620  0.0598
 2417DOPE   D2B28366  23.341  33.766  13.927  0.2015  0.4632  0.1965
 2417DOPE   C3B28367  23.082  33.878  14.271  0.0326  0.1589  0.2745
 2417DOPE   C4B28368  22.769  34.188  14.189  0.2086  0.0970 -0.0436
 2418DOPC   NC328369  14.176  28.478  12.017  0.1635 -0.2866  0.0419
 2418DOPC   PO428370  14.029  28.870  12.053  0.1792  0.0310  0.3185
 2418DOPC   GL128371  13.686  28.859  12.040  0.1894 -0.3284  0.2385
 2418DOPC   GL228372  13.575  29.120  12.096 -0.1912  0.1636 -0.1511
 2418DOPC   C1A28373  13.638  28.395  11.989 -0.1402  0.0556  0.0436
 2418DOPC   D2A28374  13.317  28.106  11.901 -0.0907  0.0444 -0.0648
 2418DOPC   C3A28375  13.081  28.098  12.311  0.1802  0.2729 -0.2151
 2418DOPC   C4A28376  12.814  28.235  12.679 -0.1014 -0.4702 -0.1393
 2418DOPC   C1B28377  13.137  29.161  12.380 -0.1380  0.1994 -0.2889
 2418DOPC   D2B28378  12.791  29.166  12.697  0.1312 -0.0360 -0.4169
 2418DOPC   C3B28379  12.811  28.814  12.984 -0.1873  0.1636  0.1270
 2418DOPC   C4B28380  12.577  28.743  13.432 -0.3254 -0.1939  0.0818
 2419DOPC   NC328381  15.674  26.341  11.927  0.1853  0.0220  0.0716
 2419DOPC   PO428382  16.047  26.475  12.015  0.2108 -0.1821  0.1810
 2419DOPC   GL128383  15.732  26.396  12.384  0.1357  0.1180 -0.2293
 2419DOPC   GL228384  15.999  26.284  12.538 -0.1319 -0.2697  0.1480
 2419DOPC   C1A28385  15.473  26.250  12.760  0.1040 -0.2643 -0.3841
 2419DOPC   D2A28386  15.288  26.334  13.180 -0.0607  0.0158 -0.3249
 2419DOPC   C3A28387  15.472  26.637  13.545 -0.2276 -0.2085  0.1326
 2419DOPC   C4A28388  15.684  26.752  13.919 -0.0224 -0.0734  0.2328
 2419DOPC   C1B28389  16.072  26.690  12.712  0.2495  0.1207 -0.2452
 2419DOPC   D2B28390  16.220  26.968  12.993 -0.0114 -0.2313  0.1819
 2419DOPC   C3B28391  15.898  27.323  13.015  0.0060  0.2116  0.1623
 2419DOPC   C4B28392  15.677  27.762  13.138 -0.0128 -0.1906  0.1936
 2420POSM   NC328393  22.743  29.881  12.760  0.2085  0.1358 -0.2191
 2420POSM   PO428394  22.558  29.599  12.521 -0.2197  0.2383  0.0977
 2420POSM   AM128395  22.548  29.367  12.735  0.0192 -0.6110  0.2820
 2420POSM   AM228396  22.330  29.294  12.984  0.2102  0.0846 -0.2178
 2420POSM   T1A28397  22.671  28.952  12.965  0.0242  0.1887 -0.0294
 2420POSM   C2A28398  22.400  28.645  13.202  0.2189 -0.0303 -0.2653
 2420POSM   C3A28399  22.117  28.639  13.551  0.3488  0.0149  0.2744
 2420POSM   C1B28400  22.215  29.106  13.289  0.1705 -0.1101  0.0458
 2420POSM   D2B28401  22.376  29.059  13.675  0.1256 -0.3150 -0.2863
 2420POSM   C3B28402  22.309  29.357  14.014 -0.1592  0.1902 -0.2727
 2420POSM   C4B28403  22.272  29.565  14.389  0.3510  0.2269  0.0124
 2421POSM   NC328404  11.801  32.361  12.362  0.0816  0.0035 -0.0859
 2421POSM   PO428405  12.065  32.162  12.570 -0.2735 -0.0362 -0.0968
 2421POSM   AM128406  12.155  32.274  12.875 -0.0296  0.0536 -0.3178
 2421POSM   AM228407  12.375  32.394  13.034  0.0487 -0.1589  0.0070
 2421POSM   T1A28408  12.070  32.181  13.382  0.1549  0.0232 -0.1641
 2421POSM   C2A28409  12.229  32.002  13.749  0.3399 -0.2346  0.0217
 2421POSM   C3A28410  12.188  31.927  14.207 -0.0223  0.2470 -0.0331
 2421POSM   C1B28411  12.617  32.613  13.218  0.1508  0.0565  0.1541
 2421POSM   D2B28412  13.020  32.827  13.357 -0.0269 -0.1497 -0.0137
 2421POSM   C3B28413  12.916  33.205  13.587 -0.1273  0.1591 -0.3151
 2421POSM   C4B28414  12.925  33.484  13.944 -0.0684  0.2488 -0.0786
 2422DOPS   CNO28415  19.142  26.193  12.296  0.2308 -0.0060  0.1077
 2422DOPS   PO428416  19.102  26.431  12.582 -0.1553 -0.0033  0.0338
 2422DOPS   GL128417  19.491  26.311  12.763 -0.0926 -0.0636  0.0929
 2422DOPS   GL228418  19.488  26.015  12.628 -0.0628 -0.2658  0.0749
 2422DOPS   C1A28419  19.833  26.483  12.948 -0.1334 -0.2226 -0.3496
 2422DOPS   D2A28420  20.249  26.394  13.135  0.3058  0.0160  0.1616
 2422DOPS   C3A28421  20.412  26.134  13.509 -0.0456 -0.1047  0.1957
 2422DOPS   C4A28422  20.526  26.360  13.842 -0.1003 -0.0822 -0.1555
 2422DOPS   C1B28423  19.925  25.766  12.628  0.1161  0.1376 -0.1400
 2422DOPS   D2B28424  20.189  25.457  12.830  0.0246  0.0586  0.4755
 2422DOPS   C3B28425  20.146  25.228  13.200  0.0462  0.0375 -0.0382
 2422DOPS   C4B28426  20.208  25.129  13.657 -0.1452 -0.0184  0.1147
 2423POSM   NC328427  14.345  23.595  12.578 -0.0290  0.0927  0.1206
 2423POSM   PO428428  14.074  23.427  12.352  0.1852  0.1629 -0.0531
 2423POSM   AM128429  13.774  23.366  12.522 -0.2540  0.0381 -0.4542
 2423POSM   AM228430  13.508  23.271  12.406 -0.1249  0.0247 -0.4670
 2423POSM   T1A28431  13.576  23.361  12.944 -0.4023  0.1559  0.2307
 2423POSM   C2A28432  13.225  23.355  13.224  0.1248  0.1428 -0.2092
 2423POSM   C3A28433  13.236  23.113  13.640  0.1829  0.2709 -0.2250
 2423POSM   C1B28434  13.539  22.980  12.575 -0.1768  0.5121  0.0970
 2423POSM   D2B28435  13.623  22.606  12.798 -0.1569  0.3023 -0.0351
 2423POSM   C3B28436  13.663  22.308  13.128  0.0628 -0.1111 -0.2424
 2423POSM   C4B28437  13.722  22.153  13.521 -0.0953  0.3327  0.1915
 2424DOPE   NH328438  17.265  32.942  12.547 -0.1102  0.2739  0.1497
 2424DOPE   PO428439  17.219  32.794  12.855  0.0029 -0.0084  0.0178
 2424DOPE   GL128440  17.016  32.496  12.685 -0.0023  0.0054  0.0087
 2424DOPE   GL228441  16.898  32.568  12.433  0.2736 -0.2490 -0.5466
 2424DOPE   C1A28442  16.725  32.141  12.713  0.1677  0.0732 -0.0410
 2424DOPE   D2A28443  16.824  31.719  12.833  0.2949 -0.0342  0.0463
 2424DOPE   C3A28444  17.076  31.650  13.253 -0.0336 -0.1068  0.1429
 2424DOPE   C4A28445  17.337  31.741  13.655 -0.3377 -0.1092  0.1267
 2424DOPE   C1B28446  16.501  32.740  12.287  0.1586 -0.1049 -0.0207
 2424DOPE   D2B28447  16.060  32.573  12.266 -0.0283 -0.0264  0.2197
 2424DOPE   C3B28448  16.181  32.249  12.599  0.2316  0.1933  0.1509
 2424DOPE   C4B28449  16.173  32.130  13.048  0.1310 -0.2248  0.2804
 2425DOPE   NH328450  13.392  23.878  11.814 -0.0545 -0.0295  0.1619
 2425DOPE   PO428451  13.581  24.116  11.798  0.1752  0.0667 -0.1387
 2425DOPE   GL128452  13.609  24.460  12.073  0.1432  0.2384 -0.1988
 2425DOPE   GL228453  13.319  24.653  12.119  0.1130  0.1611  0.0626
 2425DOPE   C1A28454  13.808  24.833  12.112 -0.1074  0.0575 -0.1180
 2425DOPE   D2A28455  14.241  24.933  12.307  0.1905  0.0942 -0.3088
 2425DOPE   C3A28456  14.313  25.137  12.699 -0.0493  0.0665  0.0761
 2425DOPE   C4A28457  14.030  25.358  13.012 -0.3390 -0.0595  0.1748
 2425DOPE   C1B28458  12.948  24.641  12.356 -0.1524 -0.1885 -0.2447
 2425DOPE   D2B28459  12.901  24.668  12.782  0.1509  0.0518  0.0552
 2425DOPE   C3B28460  13.102  24.889  13.124 -0.0493 -0.0333  0.0584
 2425DOPE   C4B28461  13.370  24.855  13.514  0.4860 -0.0187 -0.2574
 2426DOPE   NH328462  13.664  23.738  12.236 -0.3818  0.0334 -0.0699
 2426DOPE   PO428463  13.641  24.057  12.333  0.2790  0.1524 -0.0171
 2426DOPE   GL128464  13.624  24.219  12.620  0.2203 -0.2551 -0.1151
 2426DOPE   GL228465  13.483  24.483  12.544  0.0926 -0.3096 -0.0212
 2426DOPE   C1A28466  13.891  24.288  12.939 -0.0925  0.1869 -0.1313
 2426DOPE   D2A28467  14.303  24.519  12.987 -0.0836  0.1525  0.1033
 2426DOPE   C3A28468  14.400  24.933  13.206  0.4344 -0.1998  0.0629
 2426DOPE   C4A28469  14.580  25.336  13.104  0.2038  0.0645 -0.1048
 2426DOPE   C1B28470  13.433  24.923  12.710 -0.1365 -0.0653 -0.1266
 2426DOPE   D2B28471  13.255  25.355  12.888  0.3684  0.3434  0.0348
 2426DOPE   C3B28472  13.223  25.375  13.312 -0.0125  0.4171  0.0186
 2426DOPE   C4B28473  13.068  25.261  13.748 -0.1091 -0.1910 -0.1864
 2427DOPS   CNO28474  16.582  25.852  11.959  0.0224 -0.3418  0.0865
 2427DOPS   PO428475  16.456  25.611  12.205 -0.3141 -0.3409 -0.3014
 2427DOPS   GL128476  16.209  25.457  12.289  0.0738  0.0196  0.1531
 2427DOPS   GL228477  15.933  25.485  12.129 -0.0150  0.1611 -0.2564
 2427DOPS   C1A28478  16.126  25.090  12.502  0.1396  0.2163  0.2972
 2427DOPS   D2A28479  16.152  25.043  12.943 -0.2604 -0.2528  0.2732
 2427DOPS   C3A28480  15.995  24.722  13.215 -0.2132 -0.3387  0.2047
 2427DOPS   C4A28481  16.168  24.697  13.635 -0.3220  0.1518  0.0541
 2427DOPS   C1B28482  15.817  25.082  11.984 -0.1403  0.0767 -0.1247
 2427DOPS   D2B28483  15.881  24.719  12.218  0.0304  0.0382 -0.0748
 2427DOPS   C3B28484  15.757  24.714  12.621  0.2002  0.1630  0.1881
 2427DOPS   C4B28485  15.609  25.027  12.937  0.1774  0.1179 -0.1751
 2428POSM   NC328486  18.869  26.816  12.236  0.1355  0.0071 -0.1233
 2428POSM   PO428487  18.707  26.870  12.612  0.1090  0.0180 -0.0044
 2428POSM   AM128488  18.669  26.776  12.944 -0.1221 -0.2276 -0.0536
 2428POSM   AM228489  18.549  26.880  13.201  0.0376 -0.1114  0.2721
 2428POSM   T1A28490  18.836  26.495  13.367 -0.2519 -0.2653  0.3780
 2428POSM   C2A28491  19.107  26.495  13.662 -0.1935 -0.1072  0.0445
 2428POSM   C3A28492  19.585  26.445  13.848 -0.0642 -0.0991  0.1134
 2428POSM   C1B28493  18.511  27.125  13.434 -0.0711  0.1400  0.3107
 2428POSM   D2B28494  18.325  27.372  13.727  0.1891 -0.1540  0.1576
 2428POSM   C3B28495  18.041  27.163  14.012 -0.0509 -0.0734  0.0745
 2428POSM   C4B28496  18.064  26.698  14.094 -0.4465 -0.3070 -0.0485
 2429POSM   NC328497  22.215  29.765  12.178 -0.2855 -0.0438  0.1847
 2429POSM   PO428498  21.878  29.537  12.349 -0.3777 -0.1143  0.2681
 2429POSM   AM128499  21.741  29.259  12.461  0.1058  0.1006 -0.0259
 2429POSM   AM228500  21.834  29.157  12.714 -0.0765  0.1304  0.2003
 2429POSM   T1A28501  21.781  28.735  12.388 -0.1955  0.1243  0.0796
 2429POSM   C2A28502  21.861  28.406  12.033 -0.2777  0.1386 -0.0358
 2429POSM   C3A28503  21.935  28.085  11.672  0.0749 -0.1606 -0.0556
 2429POSM   C1B28504  21.779  29.033  13.028 -0.2875 -0.1618 -0.0553
 2429POSM   D2B28505  21.621  28.850  13.435  0.1780 -0.0083  0.1000
 2429POSM   C3B28506  21.545  28.409  13.541  0.2292  0.0283  0.0649
 2429POSM   C4B28507  21.278  28.050  13.428  0.0671  0.0060 -0.0601
 2430DOPE   NH328508  19.575  26.591  12.377  0.1194  0.1943  0.1203
 2430DOPE   PO428509  19.841  26.748  12.277 -0.0894  0.3175 -0.1214
 2430DOPE   GL128510  20.189  26.671  12.379 -0.1973  0.0027  0.0045
 2430DOPE   GL228511  20.136  26.328  12.497 -0.0662 -0.1569  0.0157
 2430DOPE   C1A28512  20.327  26.830  12.821  0.1016  0.0203  0.0764
 2430DOPE   D2A28513  20.676  27.055  13.034  0.3171 -0.4710  0.1613
 2430DOPE   C3A28514  20.928  27.062  13.423  0.0631 -0.0979 -0.1541
 2430DOPE   C4A28515  20.953  26.710  13.717 -0.3378  0.0278 -0.0434
 2430DOPE   C1B28516  20.570  26.393  12.707  0.0703 -0.1123 -0.1992
 2430DOPE   D2B28517  20.739  26.411  13.138 -0.2341 -0.0884 -0.1851
 2430DOPE   C3B28518  20.493  26.719  13.406  0.1964 -0.1254 -0.3428
 2430DOPE   C4B28519  20.166  27.005  13.298  0.0688  0.0587 -0.2483
 2431DOPS   CNO28520  13.058  34.016  11.961  0.2340  0.1702  0.0810
 2431DOPS   PO428521  12.970  34.054  12.353 -0.1688  0.1766 -0.0729
 2431DOPS   GL128522  12.982  34.255  12.718 -0.3131 -0.1267 -0.2071
 2431DOPS   GL228523  13.215  34.109  12.779  0.0416 -0.0569  0.0126
 2431DOPS   C1A28524  12.829  34.608  12.932 -0.1531 -0.1196  0.0069
 2431DOPS   D2A28525  12.895  34.959  13.242  0.1705 -0.2504 -0.3869
 2431DOPS   C3A28526  12.441  35.210  13.245 -0.1386  0.0561  0.0598
 2431DOPS   C4A28527  12.212  35.423  13.575  0.0610 -0.0735  0.3528
 2431DOPS   C1B28528  13.370  34.101  13.194 -0.1035 -0.2808 -0.2788
 2431DOPS   D2B28529  13.381  33.908  13.560  0.1464  0.2707  0.1953
 2431DOPS   C3B28530  13.176  33.978  13.970  0.1412  0.1862  0.1646
 2431DOPS   C4B28531  13.121  34.186  14.371  0.1748  0.2849 -0.0223
 2432DOPE   NH328532  17.700  31.732  12.684  0.1597 -0.4564  0.1699
 2432DOPE   PO428533  17.710  31.443  12.565  0.0721 -0.0109  0.1746
 2432DOPE   GL128534  18.036  31.381  12.742 -0.3457  0.0063 -0.3183
 2432DOPE   GL228535  18.000  31.404  13.060 -0.3021 -0.0067 -0.1637
 2432DOPE   C1A28536  18.459  31.229  12.807 -0.0701 -0.2397 -0.2716
 2432DOPE   D2A28537  18.858  31.407  12.995  0.1494 -0.0827 -0.1521
 2432DOPE   C3A28538  18.845  31.744  13.300  0.3564  0.2076  0.0105
 2432DOPE   C4A28539  18.771  31.632  13.719 -0.1280 -0.2454 -0.0227
 2432DOPE   C1B28540  18.028  31.208  13.510  0.2491  0.2801  0.3447
 2432DOPE   D2B28541  17.971  30.803  13.752 -0.0616  0.0856  0.0803
 2432DOPE   C3B28542  18.291  30.785  14.066  0.2455 -0.1126 -0.0460
 2432DOPE   C4B28543  18.434  31.134  14.332  0.0546  0.0112 -0.1670
 2433POSM   NC328544  11.261  25.997  12.534  0.3522 -0.3299  0.1342
 2433POSM   PO428545  11.185  25.892  12.190  0.1829  0.0838 -0.4372
 2433POSM   AM128546  11.443  25.697  12.062  0.2906  0.2837  0.0915
 2433POSM   AM228547  11.420  25.414  12.095 -0.2650 -0.1560  0.0170
 2433POSM   T1A28548  11.831  25.516  11.813 -0.2031 -0.0946 -0.1348
 2433POSM   C2A28549  12.217  25.416  11.528  0.1249 -0.1820 -0.2247
 2433POSM   C3A28550  12.438  25.298  11.133  0.1217  0.2244  0.1783
 2433POSM   C1B28551  11.441  25.254  12.409 -0.1091  0.0145 -0.0739
 2433POSM   D2B28552  11.585  25.009  12.763 -0.2910 -0.0522 -0.1042
 2433POSM   C3B28553  11.600  25.032  13.245  0.1059 -0.1499  0.2524
 2433POSM   C4B28554  11.264  25.043  13.535 -0.0390 -0.0480  0.1139
 2434POSM   NC328555  12.586  33.742  12.014  0.2099 -0.0955  0.1598
 2434POSM   PO428556  12.557  34.147  12.093 -0.0321  0.0084  0.1950
 2434POSM   AM128557  12.473  34.282  12.393 -0.2424  0.1510 -0.1749
 2434POSM   AM228558  12.458  34.491  12.537  0.1774 -0.1022  0.0090
 2434POSM   T1A28559  12.539  34.137  12.893  0.0354 -0.2419 -0.1887
 2434POSM   C2A28560  12.886  34.130  13.165 -0.0697  0.1987  0.0904
 2434POSM   C3A28561  12.929  34.253  13.610  0.0289  0.0110 -0.0277
 2434POSM   C1B28562  12.393  34.743  12.809 -0.0047 -0.1298 -0.0217
 2434POSM   D2B28563  12.064  34.989  12.945  0.2160  0.1564 -0.1041
 2434POSM   C3B28564  11.916  35.011  13.404 -0.0038 -0.0031  0.1358
 2434POSM   C4B28565  12.091  34.767  13.764  0.0480 -0.1308  0.0202
 2435DOPC   NC328566  15.847  31.944  12.381  0.0349 -0.1379 -0.0067
 2435DOPC   PO428567  15.671  31.781  12.083 -0.0472 -0.0825  0.0960
 2435DOPC   GL128568  15.459  31.666  12.476 -0.0072  0.1474  0.2344
 2435DOPC   GL228569  15.571  31.537  12.620 -0.0317  0.0171 -0.1748
 2435DOPC   C1A28570  15.094  31.383  12.535  0.1303 -0.0669 -0.0019
 2435DOPC   D2A28571  14.981  31.321  12.919  0.1838  0.4692 -0.0558
 2435DOPC   C3A28572  14.964  31.435  13.381 -0.2061 -0.1779  0.0236
 2435DOPC   C4A28573  14.977  31.669  13.786 -0.0726  0.2389  0.0561
 2435DOPC   C1B28574  15.490  31.488  13.030  0.2374  0.2714 -0.1847
 2435DOPC   D2B28575  15.468  31.228  13.386  0.1233 -0.0117  0.1602
 2435DOPC   C3B28576  15.417  31.520  13.765  0.0315  0.0842 -0.1368
 2435DOPC   C4B28577  15.327  32.001  13.794  0.0934 -0.0064 -0.2200
 2436POSM   NC328578  12.902  30.291  12.798  0.2086  0.2156  0.2147
 2436POSM   PO428579  12.804  30.076  12.455 -0.2553 -0.2386  0.2045
 2436POSM   AM128580  12.513  30.142  12.598  0.0207 -0.1006 -0.1433
 2436POSM   AM228581  12.334  30.335  12.564  0.0965  0.2206  0.2287
 2436POSM   T1A28582  12.248  30.154  13.030  0.0310  0.0101 -0.2979
 2436POSM   C2A28583  12.303  30.135  13.510  0.0329 -0.0179 -0.1893
 2436POSM   C3A28584  12.459  29.907  13.835  0.0873 -0.0854 -0.2362
 2436POSM   C1B28585  12.294  30.576  12.785  0.2709 -0.3520  0.2253
 2436POSM   D2B28586  12.135  30.788  13.202 -0.0387 -0.0186 -0.1158
 2436POSM   C3B28587  12.417  31.190  13.347 -0.0925  0.0315  0.0307
 2436POSM   C4B28588  12.723  31.503  13.491 -0.1411  0.0571 -0.2198
 2437DOPE   NH328589  16.553  25.949  12.522  0.1230 -0.0971 -0.4939
 2437DOPE   PO428590  16.498  26.221  12.357 -0.0360 -0.0637 -0.0189
 2437DOPE   GL128591  16.664  26.280  12.863  0.0252  0.1944 -0.0572
 2437DOPE   GL228592  16.967  26.230  13.050 -0.1391 -0.1212  0.0386
 2437DOPE   C1A28593  16.523  25.994  13.215 -0.1207 -0.0198  0.0679
 2437DOPE   D2A28594  16.166  25.897  13.476 -0.0429 -0.0669 -0.2408
 2437DOPE   C3A28595  15.905  25.556  13.439 -0.4881  0.1933 -0.1822
 2437DOPE   C4A28596  15.650  25.163  13.425  0.2062 -0.0973 -0.1878
 2437DOPE   C1B28597  16.871  26.293  13.497 -0.1599  0.1185  0.4362
 2437DOPE   D2B28598  16.656  26.456  13.895 -0.0060  0.0500  0.2004
 2437DOPE   C3B28599  16.226  26.249  13.944  0.1110 -0.0933  0.0785
 2437DOPE   C4B28600  16.104  25.943  14.290 -0.3488 -0.1455  0.0750
 2438DOPS   CNO28601  14.673  28.898  12.160  0.1995 -0.2133  0.3946
 2438DOPS   PO428602  14.914  28.795  12.450 -0.0119 -0.0775  0.1992
 2438DOPS   GL128603  14.972  28.880  12.741  0.1455 -0.2621  0.0751
 2438DOPS   GL228604  15.189  28.780  12.885  0.2054  0.3809  0.0479
 2438DOPS   C1A28605  14.844  28.539  13.078  0.0176 -0.0508  0.0474
 2438DOPS   D2A28606  14.950  28.324  13.475 -0.1743 -0.2026 -0.0108
 2438DOPS   C3A28607  15.057  28.074  13.881 -0.0065  0.0723  0.2561
 2438DOPS   C4A28608  15.185  27.747  14.101  0.1583 -0.2149 -0.4350
 2438DOPS   C1B28609  14.933  28.983  13.215 -0.2565  0.2328  0.0214
 2438DOPS   D2B28610  14.592  29.304  13.222 -0.0560  0.0507  0.1306
 2438DOPS   C3B28611  14.359  29.200  13.582  0.1528  0.0541 -0.0272
 2438DOPS   C4B28612  14.191  28.879  13.848 -0.1527 -0.0529  0.3887
 2439DOPC   NC328613  14.386  29.704  12.632 -0.0018  0.0247  0.2537
 2439DOPC   PO428614  14.547  29.952  12.377 -0.0453 -0.1937 -0.4345
 2439DOPC   GL128615  14.639  30.071  12.720 -0.0121  0.1190 -0.1283
 2439DOPC   GL228616  14.377  30.240  12.755 -0.3147 -0.0563  0.1999
 2439DOPC   C1A28617  14.842  30.451  12.841 -0.1880  0.0455 -0.0033
 2439DOPC   D2A28618  14.917  30.884  13.028 -0.2140 -0.1766 -0.0176
 2439DOPC   C3A28619  14.577  31.199  13.164 -0.0715 -0.1085  0.2827
 2439DOPC   C4A28620  14.275  31.540  13.247 -0.3893 -0.0397 -0.1618
 2439DOPC   C1B28621  14.367  30.618  13.026 -0.0168 -0.3941 -0.1539
 2439DOPC   D2B28622  14.624  30.660  13.438 -0.1016  0.1544  0.1184
 2439DOPC   C3B28623  14.702  30.699  13.917 -0.1945  0.0855 -0.1452
 2439DOPC   C4B28624  15.034  30.714  14.248 -0.0852  0.3224  0.6170
 2440DOPC   NC328625  21.586  33.519  12.539 -0.0082  0.1077  0.0539
 2440DOPC   PO428626  21.444  33.677  12.184  0.2441 -0.0686 -0.2580
 2440DOPC   GL128627  21.173  33.405  12.324  0.3532 -0.0176 -0.0788
 2440DOPC   GL228628  21.005  33.410  12.092  0.0981 -0.1515 -0.2742
 2440DOPC   C1A28629  21.097  33.192  12.752 -0.2124  0.1196  0.1585
 2440DOPC   D2A28630  20.861  32.896  13.013 -0.0825  0.2759  0.0478
 2440DOPC   C3A28631  20.461  32.943  12.796 -0.0815 -0.1692 -0.3599
 2440DOPC   C4A28632  20.015  32.830  12.743  0.2321 -0.1498 -0.3622
 2440DOPC   C1B28633  21.034  32.947  12.213 -0.0802 -0.0389 -0.1910
 2440DOPC   D2B28634  20.867  32.552  12.310  0.2922  0.1712 -0.1138
 2440DOPC   C3B28635  20.612  32.479  12.675  0.1766 -0.1728  0.0466
 2440DOPC   C4B28636  20.227  32.301  12.889  0.0699  0.1972 -0.3371
 2441DOPC   NC328637  14.068  28.018  12.864  0.0317 -0.2384 -0.0251
 2441DOPC   PO428638  14.263  28.251  12.617  0.0848  0.3133 -0.1440
 2441DOPC   GL128639  14.110  28.431  12.828 -0.3939  0.1220  0.2206
 2441DOPC   GL228640  14.013  28.508  13.033 -0.0230 -0.0124 -0.0971
 2441DOPC   C1A28641  14.383  28.311  13.235  0.0417 -0.1943  0.0191
 2441DOPC   D2A28642  14.326  28.113  13.648 -0.0466 -0.3368  0.1282
 2441DOPC   C3A28643  14.667  28.329  13.920  0.0006  0.1333  0.3057
 2441DOPC   C4A28644  15.088  28.535  14.033  0.2418 -0.1814 -0.0827
 2441DOPC   C1B28645  13.988  28.482  13.537 -0.2633 -0.0986  0.0871
 2441DOPC   D2B28646  13.930  28.266  13.953  0.0005  0.4995 -0.1366
 2441DOPC   C3B28647  14.305  28.081  14.135 -0.1884 -0.3384  0.0492
 2441DOPC   C4B28648  14.746  27.913  14.280 -0.2041  0.0624 -0.0881
 2442DOPS   CNO28649  17.634  31.829  12.143 -0.0534 -0.2692  0.1631
 2442DOPS   PO428650  17.479  32.092  12.370  0.2640 -0.1775 -0.0142
 2442DOPS   GL128651  17.466  32.137  12.720 -0.2712 -0.0191 -0.0877
 2442DOPS   GL228652  17.261  31.939  12.845  0.3112  0.1405  0.2020
 2442DOPS   C1A28653  17.672  32.039  13.136  0.1225  0.1102  0.0015
 2442DOPS   D2A28654  17.722  32.134  13.595  0.1799 -0.0329  0.2120
 2442DOPS   C3A28655  17.744  32.561  13.756  0.0713 -0.2438  0.0542
 2442DOPS   C4A28656  17.909  32.973  13.831 -0.0755  0.1929  0.0917
 2442DOPS   C1B28657  17.181  32.174  13.297 -0.1816  0.1856  0.0541
 2442DOPS   D2B28658  17.240  32.602  13.357  0.0714  0.1332  0.0478
 2442DOPS   C3B28659  17.157  32.911  13.688 -0.0214 -0.0774 -0.2228
 2442DOPS   C4B28660  16.807  33.223  13.799 -0.0498  0.2712  0.1025
 2443POSM   NC328661  12.626  23.194  12.011  0.1592  0.1511  0.4477
 2443POSM   PO428662  12.984  23.298  12.152  0.0957  0.0208 -0.1212
 2443POSM   AM128663  12.942  23.207  12.481 -0.1458  0.1173 -0.0973
 2443POSM   AM228664  12.758  23.276  12.710 -0.2330 -0.0496 -0.0439
 2443POSM   T1A28665  13.175  22.974  12.858 -0.2078  0.1502  0.2468
 2443POSM   C2A28666  13.499  22.950  13.145 -0.0885 -0.1030  0.1399
 2443POSM   C3A28667  13.939  23.086  13.300  0.0826 -0.1474 -0.2693
 2443POSM   C1B28668  12.791  23.278  13.069 -0.1122  0.2147  0.3334
 2443POSM   D2B28669  12.876  23.545  13.500  0.0595  0.0136  0.0215
 2443POSM   C3B28670  12.795  23.433  13.915  0.1711  0.0607 -0.2062
 2443POSM   C4B28671  12.594  23.193  14.210  0.1221  0.0079  0.0782
 2444POSM   NC328672  16.812  33.680  12.581 -0.4713 -0.1357 -0.2623
 2444POSM   PO428673  17.161  33.413  12.465  0.1109 -0.0692  0.1872
 2444POSM   AM128674  17.359  33.444  12.731 -0.1695  0.6769 -0.3079
 2444POSM   AM228675  17.495  33.259  12.866  0.0949  0.0918  0.1560
 2444POSM   T1A28676  17.507  33.709  13.121 -0.2534  0.0759  0.1014
 2444POSM   C2A28677  17.827  33.955  13.324 -0.3081  0.2426  0.1593
 2444POSM   C3A28678  18.023  34.356  13.418  0.1842 -0.0817 -0.0923
 2444POSM   C1B28679  17.814  33.422  12.893 -0.3360  0.1909  0.0268
 2444POSM   D2B28680  18.272  33.630  12.988  0.0231 -0.1529 -0.0346
 2444POSM   C3B28681  18.192  34.035  12.820 -0.0259  0.3860 -0.0795
 2444POSM   C4B28682  17.959  34.365  12.714 -0.0774  0.0366  0.2672
 2445DOPE   NH328683  11.916  29.358  12.380  0.1484  0.1789 -0.1681
 2445DOPE   PO428684  11.884  29.334  12.684  0.1024 -0.0862 -0.3945
 2445DOPE   GL128685  11.722  29.340  13.041 -0.4787  0.2645  0.1695
 2445DOPE   GL228686  11.404  29.392  13.105  0.2454  0.1018  0.0981
 2445DOPE   C1A28687  11.594  28.934  13.248  0.0242 -0.0590  0.4882
 2445DOPE   D2A28688  11.277  28.665  13.491 -0.2811  0.0956  0.1801
 2445DOPE   C3A28689  10.842  28.762  13.582 -0.1405  0.1038  0.0222
 2445DOPE   C4A28690  10.495  28.986  13.805  0.0825 -0.0425  0.1011
 2445DOPE   C1B28691  11.324  29.225  13.541 -0.1808  0.0339  0.2230
 2445DOPE   D2B28692  11.619  28.900  13.738  0.0055 -0.1216 -0.1895
 2445DOPE   C3B28693  11.959  29.204  13.716  0.2203  0.0969 -0.0745
 2445DOPE   C4B28694  12.012  29.673  13.825 -0.1063  0.1812 -0.1676
 2446DOPC   NC328695  17.907  23.376  11.731  0.1349  0.1593 -0.1729
 2446DOPC   PO428696  17.806  23.153  12.022 -0.2621 -0.1621 -0.0762
 2446DOPC   GL128697  17.385  23.173  12.113  0.0811  0.2268  0.1421
 2446DOPC   GL228698  17.322  22.929  12.333 -0.2859 -0.1431 -0.1100
 2446DOPC   C1A28699  17.063  23.468  12.256  0.1933 -0.0388  0.1899
 2446DOPC   D2A28700  16.712  23.607  12.443  0.1190  0.0359  0.2750
 2446DOPC   C3A28701  16.680  23.586  12.911  0.0026 -0.1118  0.0828
 2446DOPC   C4A28702  16.675  23.628  13.389  0.2605  0.0306  0.0508
 2446DOPC   C1B28703  16.821  23.025  12.166 -0.2181  0.1118  0.1572
 2446DOPC   D2B28704  16.496  22.716  12.122  0.1153 -0.2801  0.0367
 2446DOPC   C3B28705  16.176  22.591  12.445  0.4498 -0.1610 -0.0710
 2446DOPC   C4B28706  15.814  22.372  12.630  0.1115 -0.0606 -0.0686
 2447POSM   NC328707  22.562  25.807  12.237 -0.1367 -0.1123  0.1639
 2447POSM   PO428708  22.935  25.961  12.313 -0.0487 -0.2039 -0.0151
 2447POSM   AM128709  22.733  26.049  12.607 -0.1296 -0.0018  0.0717
 2447POSM   AM228710  22.740  26.194  12.848 -0.1011 -0.4523 -0.1553
 2447POSM   T1A28711  22.285  25.946  12.772  0.1604 -0.2938  0.1790
 2447POSM   C2A28712  21.930  26.124  13.044  0.1912 -0.1352  0.3247
 2447POSM   C3A28713  21.486  26.380  13.124 -0.0753 -0.1147  0.4134
 2447POSM   C1B28714  23.003  26.187  13.069  0.3256  0.0479  0.1620
 2447POSM   D2B28715  23.352  25.995  13.368  0.0924  0.3385 -0.1388
 2447POSM   C3B28716  23.625  25.675  13.099 -0.1148  0.1848 -0.1346
 2447POSM   C4B28717  24.006  25.579  12.880  0.1176 -0.1510 -0.1232
 2448POSM   NC328718  17.314  31.337  11.983  0.2726  0.2904 -0.0664
 2448POSM   PO428719  17.023  31.141  12.176  0.0833  0.3149 -0.0278
 2448POSM   AM128720  17.192  30.988  12.428  0.1583  0.3070 -0.0211
 2448POSM   AM228721  17.336  31.051  12.654 -0.2869 -0.0576 -0.0903
 2448POSM   T1A28722  17.218  30.526  12.606  0.0858  0.2708  0.2156
 2448POSM   C2A28723  17.342  30.241  12.894 -0.1862 -0.1867  0.1596
 2448POSM   C3A28724  17.652  29.955  13.074 -0.2016  0.1234 -0.0381
 2448POSM   C1B28725  17.467  30.858  12.936 -0.1168 -0.1042 -0.1704
 2448POSM   D2B28726  17.507  30.824  13.390 -0.0276 -0.0208  0.0135
 2448POSM   C3B28727  17.387  30.679  13.878 -0.0721  0.2537 -0.2721
 2448POSM   C4B28728  17.242  30.426  14.190 -0.1009  0.0344  0.1977
 2449DOPC   NC328729  25.372   8.714  16.029  0.1077  0.3976 -0.0366
 2449DOPC   PO428730  25.593   8.959  15.836 -0.0699  0.2172  0.2100
 2449DOPC   GL128731  25.540   8.952  15.470  0.0830 -0.2424  0.0128
 2449DOPC   GL228732  25.351   8.701  15.473  0.1927  0.1904 -0.1849
 2449DOPC   C1A28733  25.663   8.849  15.030  0.5776  0.0776 -0.2498
 2449DOPC   D2A28734  25.471   9.016  14.646  0.2905  0.0239 -0.0769
 2449DOPC   C3A28735  25.072   9.334  14.662 -0.3777 -0.2941  0.1347
 2449DOPC   C4A28736  24.614   9.393  14.476 -0.1362 -0.2428  0.0746
 2449DOPC   C1B28737  25.268   8.520  15.045 -0.2242 -0.0751 -0.0585
 2449DOPC   D2B28738  25.022   8.631  14.644  0.2074  0.2398 -0.0477
 2449DOPC   C3B28739  25.162   8.861  14.263 -0.0081  0.1239  0.0043
 2449DOPC   C4B28740  25.298   9.006  13.859 -0.2260  0.1677  0.2533
 2450DOPC   NC328741  32.459   3.013  16.060  0.0159 -0.3277  0.0179
 2450DOPC   PO428742  32.251   3.309  16.243  0.0962  0.1193 -0.1779
 2450DOPC   GL128743  32.297   3.336  15.801 -0.4690 -0.0315  0.0373
 2450DOPC   GL228744  32.131   3.404  15.664 -0.0680  0.4433 -0.3365
 2450DOPC   C1A28745  32.525   3.539  15.415  0.3468 -0.1461 -0.0298
 2450DOPC   D2A28746  32.545   3.631  15.006 -0.5248 -0.1278 -0.0387
 2450DOPC   C3A28747  32.234   3.670  14.701 -0.0252 -0.1741 -0.0238
 2450DOPC   C4A28748  31.899   3.529  14.551  0.5726 -0.1119 -0.0045
 2450DOPC   C1B28749  32.154   3.352  15.209 -0.1531 -0.1686 -0.1764
 2450DOPC   D2B28750  32.237   3.190  14.819 -0.3729 -0.0850 -0.0818
 2450DOPC   C3B28751  32.159   3.100  14.411 -0.1840  0.3623  0.2119
 2450DOPC   C4B28752  32.136   2.857  14.012 -0.3278  0.0770 -0.0301
 2451DOPE   NH328753  32.503   9.092  15.878 -0.1314  0.3306  0.0678
 2451DOPE   PO428754  32.641   9.374  15.788  0.1766  0.1324 -0.1577
 2451DOPE   GL128755  32.609   9.360  15.454 -0.1388  0.2913  0.2229
 2451DOPE   GL228756  32.410   9.527  15.329  0.0086 -0.1213 -0.1183
 2451DOPE   C1A28757  32.787   9.085  15.147  0.0389 -0.1789 -0.0178
 2451DOPE   D2A28758  33.194   9.168  14.918 -0.1385  0.0598 -0.1197
 2451DOPE   C3A28759  33.224   8.997  14.468  0.0205  0.2457 -0.0855
 2451DOPE   C4A28760  33.476   9.101  14.077  0.3508  0.3733 -0.1809
 2451DOPE   C1B28761  32.293   9.536  14.865  0.0616 -0.0737 -0.1300
 2451DOPE   D2B28762  32.511   9.720  14.447  0.0785  0.2543  0.1397
 2451DOPE   C3B28763  32.607   9.485  14.074 -0.0508 -0.1781  0.3521
 2451DOPE   C4B28764  33.086   9.388  14.009 -0.1109 -0.1401  0.1677
 2452DOPE   NH328765  24.114   9.200  15.529 -0.1361 -0.1128  0.2896
 2452DOPE   PO428766  24.123   9.174  15.215  0.2393  0.0235 -0.1545
 2452DOPE   GL128767  24.158   9.182  14.835 -0.2000 -0.0235 -0.5417
 2452DOPE   GL228768  23.940   9.333  14.802 -0.0697 -0.0147  0.0528
 2452DOPE   C1A28769  24.248   8.916  14.505  0.0024  0.2176  0.1578
 2452DOPE   D2A28770  24.686   8.848  14.320  0.2971 -0.2092  0.2873
 2452DOPE   C3A28771  24.833   9.161  14.000  0.0137  0.1198 -0.0647
 2452DOPE   C4A28772  24.963   9.571  13.802  0.1466  0.0499  0.0498
 2452DOPE   C1B28773  24.113   9.404  14.379 -0.3869  0.0306  0.0615
 2452DOPE   D2B28774  24.216   9.192  14.056  0.1591  0.0548  0.2702
 2452DOPE   C3B28775  24.413   8.757  13.908  0.0576 -0.0312  0.4188
 2452DOPE   C4B28776  24.699   8.750  13.568 -0.0352 -0.0657 -0.0399
 2453DOPC   NC328777  33.037  10.878  16.005  0.1223  0.0043 -0.0826
 2453DOPC   PO428778  32.780  11.005  16.317  0.2029  0.6355  0.0488
 2453DOPC   GL128779  32.556  11.063  15.969 -0.0319 -0.1782 -0.1264
 2453DOPC   GL228780  32.262  10.968  15.901 -0.0435 -0.1001  0.0617
 2453DOPC   C1A28781  32.630  11.154  15.527 -0.3187 -0.0643  0.1798
 2453DOPC   D2A28782  32.538  11.037  15.110  0.0247  0.2471 -0.1172
 2453DOPC   C3A28783  32.596  11.224  14.716 -0.3179 -0.1109 -0.1754
 2453DOPC   C4A28784  32.458  11.377  14.330 -0.0396 -0.0375  0.2284
 2453DOPC   C1B28785  32.041  11.333  15.682 -0.2565  0.0777 -0.0388
 2453DOPC   D2B28786  31.773  11.399  15.350 -0.0178  0.0210 -0.0464
 2453DOPC   C3B28787  31.563  11.790  15.189  0.0754  0.0095  0.0086
 2453DOPC   C4B28788  31.552  11.970  14.743 -0.0460 -0.1879 -0.1710
 2454DOPC   NC328789  33.912  10.263  16.069  0.0850 -0.0104  0.1368
 2454DOPC   PO428790  33.617  10.242  15.764  0.1741 -0.0465 -0.3476
 2454DOPC   GL128791  33.806  10.018  15.477  0.0410  0.1733  0.0542
 2454DOPC   GL228792  33.670  10.173  15.271 -0.2725 -0.0762  0.1812
 2454DOPC   C1A28793  33.679   9.613  15.279  0.1701 -0.0205  0.1257
 2454DOPC   D2A28794  33.788   9.435  14.914 -0.0158  0.0092 -0.1446
 2454DOPC   C3A28795  34.290   9.560  14.934  0.1607  0.1475  0.0999
 2454DOPC   C4A28796  34.757   9.641  14.871  0.1573 -0.0291  0.0820
 2454DOPC   C1B28797  33.841   9.921  14.930  0.0392  0.1480  0.2656
 2454DOPC   D2B28798  33.944   9.734  14.554  0.0648 -0.0027 -0.0510
 2454DOPC   C3B28799  34.000   9.421  14.251  0.0139 -0.0207  0.0393
 2454DOPC   C4B28800  33.911   8.939  14.277  0.3177 -0.4163  0.1168
 2455POSM   NC328801  26.439   3.455  16.281 -0.0566  0.0173  0.0899
 2455POSM   PO428802  26.606   3.823  16.403 -0.0474 -0.3487 -0.1291
 2455POSM   AM128803  26.673   3.831  16.057 -0.2802 -0.0104 -0.1583
 2455POSM   AM228804  26.777   3.626  15.920 -0.0878  0.0379  0.3238
 2455POSM   T1A28805  26.559   3.881  15.579  0.0065  0.0645 -0.0950
 2455POSM   C2A28806  26.223   3.849  15.249  0.0997  0.1737 -0.1458
 2455POSM   C3A28807  25.910   4.142  14.986 -0.0720 -0.1121 -0.1396
 2455POSM   C1B28808  26.908   3.450  15.635  0.2447 -0.2931 -0.5236
 2455POSM   D2B28809  27.254   3.414  15.352  0.0280 -0.0695  0.1230
 2455POSM   C3B28810  27.047   3.304  14.930  0.1108 -0.1332  0.0529
 2455POSM   C4B28811  26.947   3.338  14.461 -0.0831 -0.1331  0.0843
 2456DOPS   CNO28812  31.400   9.233  15.980 -0.1672  0.1146 -0.3772
 2456DOPS   PO428813  31.725   9.484  16.093 -0.0935 -0.2382 -0.4079
 2456DOPS   GL128814  31.744   9.525  15.659 -0.1365  0.3400  0.3479
 2456DOPS   GL228815  31.734   9.195  15.544  0.1655  0.3047 -0.2677
 2456DOPS   C1A28816  31.753   9.924  15.418 -0.1751 -0.1802  0.2558
 2456DOPS   D2A28817  31.693  10.125  14.999 -0.1183  0.1610  0.2937
 2456DOPS   C3A28818  31.661  10.266  14.556  0.0775 -0.0480  0.0994
 2456DOPS   C4A28819  32.168  10.394  14.423  0.0754 -0.0630  0.0675
 2456DOPS   C1B28820  31.837   9.513  15.208 -0.1613  0.2108  0.0601
 2456DOPS   D2B28821  31.800   9.615  14.758 -0.0414  0.0685  0.0647
 2456DOPS   C3B28822  31.641   9.372  14.406 -0.0185 -0.1037 -0.0457
 2456DOPS   C4B28823  31.718   9.069  14.080  0.1020 -0.0945  0.1161
 2457DOPC   NC328824  28.928   2.061  16.087  0.0964 -0.1989  0.1166
 2457DOPC   PO428825  29.148   2.254  16.345 -0.1303 -0.0647  0.1711
 2457DOPC   GL128826  29.048   2.469  15.933 -0.3229  0.1095  0.0274
 2457DOPC   GL228827  28.766   2.630  16.047 -0.0280 -0.1675 -0.4219
 2457DOPC   C1A28828  28.943   2.609  15.522  0.1338  0.0386  0.0983
 2457DOPC   D2A28829  28.691   2.506  15.086  0.1212 -0.1857 -0.1044
 2457DOPC   C3A28830  28.952   2.403  14.749  0.4085 -0.1786 -0.0655
 2457DOPC   C4A28831  29.264   2.298  14.384 -0.0844 -0.1148  0.0019
 2457DOPC   C1B28832  28.496   2.412  15.776 -0.1304 -0.1246 -0.1113
 2457DOPC   D2B28833  28.314   2.246  15.400  0.1127 -0.0958 -0.0031
 2457DOPC   C3B28834  28.230   2.433  14.984 -0.0519 -0.1892  0.1236
 2457DOPC   C4B28835  27.855   2.670  14.852 -0.1107  0.3756 -0.1656
 2458DOPE   NH328836  25.923   5.570  16.185  0.0667 -0.0056 -0.1933
 2458DOPE   PO428837  25.712   5.370  16.065  0.2694  0.0479  0.2184
 2458DOPE   GL128838  25.722   5.348  15.609  0.1355  0.4841 -0.3537
 2458DOPE   GL228839  25.967   5.424  15.573 -0.2230  0.0122 -0.0201
 2458DOPE   C1A28840  25.514   5.132  15.307  0.2450 -0.0543  0.0762
 2458DOPE   D2A28841  25.194   5.068  14.961 -0.2270 -0.1053 -0.0696
 2458DOPE   C3A28842  25.291   5.031  14.481  0.0260  0.2122  0.0684
 2458DOPE   C4A28843  25.294   5.210  14.044  0.3322 -0.2716 -0.4118
 2458DOPE   C1B28844  26.141   5.479  15.135 -0.1028  0.3106 -0.2970
 2458DOPE   D2B28845  26.513   5.727  14.884 -0.3433 -0.0139  0.2339
 2458DOPE   C3B28846  26.905   5.649  14.498  0.0453 -0.2101 -0.1355
 2458DOPE   C4B28847  27.159   5.431  14.191  0.1445 -0.2846  0.3234
 2459POSM   NC328848  32.146   9.378  15.748  0.0323 -0.1048  0.5140
 2459POSM   PO428849  31.996   9.062  15.951 -0.2001 -0.1734  0.5955
 2459POSM   AM128850  32.096   8.935  15.629  0.6009 -0.0488 -0.1923
 2459POSM   AM228851  32.296   8.922  15.478  0.1591  0.1675  0.0536
 2459POSM   T1A28852  31.761   8.646  15.330 -0.0629  0.1705  0.1725
 2459POSM   C2A28853  31.562   8.517  14.891 -0.0916  0.1138 -0.0332
 2459POSM   C3A28854  31.655   8.221  14.521 -0.1422  0.1462 -0.0573
 2459POSM   C1B28855  32.148   9.105  15.212  0.0874 -0.0232  0.4311
 2459POSM   D2B28856  31.993   9.183  14.743 -0.1053 -0.0698 -0.0526
 2459POSM   C3B28857  32.205   9.198  14.327  0.0948 -0.0138  0.1673
 2459POSM   C4B28858  32.075   9.455  14.032  0.0994  0.1068 -0.1123
 2460DOPS   CNO28859  28.185  10.594  16.281  0.0686  0.0443 -0.1804
 2460DOPS   PO428860  28.510  10.446  16.395  0.0788 -0.2456  0.0164
 2460DOPS   GL128861  28.652  10.482  16.009  0.1264 -0.2162 -0.2063
 2460DOPS   GL228862  28.468  10.601  15.868  0.4000  0.0507  0.0262
 2460DOPS   C1A28863  28.966  10.730  15.719  0.2308  0.0969  0.1098
 2460DOPS   D2A28864  29.395  10.833  15.531  0.0083  0.1838 -0.0339
 2460DOPS   C3A28865  29.496  10.881  15.077 -0.0605  0.0569  0.2796
 2460DOPS   C4A28866  29.122  10.837  14.790 -0.0204 -0.0247  0.3873
 2460DOPS   C1B28867  28.602  10.345  15.511  0.3548 -0.1214 -0.2224
 2460DOPS   D2B28868  28.590  10.481  15.062 -0.1684 -0.1477  0.0822
 2460DOPS   C3B28869  28.790  10.344  14.609 -0.0588  0.2795  0.1294
 2460DOPS   C4B28870  28.951  10.603  14.260  0.0668 -0.0844 -0.0582
 2461DOPC   NC328871  32.928   3.109  16.889  0.1559 -0.1075 -0.1635
 2461DOPC   PO428872  33.207   3.254  16.623 -0.2102  0.1430  0.2876
 2461DOPC   GL128873  33.118   3.182  16.130 -0.1637  0.4885 -0.0610
 2461DOPC   GL228874  32.964   2.946  15.972 -0.0947  0.1908 -0.1228
 2461DOPC   C1A28875  33.367   3.098  15.756 -0.0006  0.0965 -0.0972
 2461DOPC   D2A28876  33.586   2.978  15.376  0.0061 -0.1371 -0.3378
 2461DOPC   C3A28877  33.766   2.494  15.338 -0.3083 -0.2297  0.0033
 2461DOPC   C4A28878  33.608   2.340  14.967  0.2237 -0.1515 -0.0280
 2461DOPC   C1B28879  32.774   2.603  15.688 -0.1201 -0.3506  0.0359
 2461DOPC   D2B28880  32.954   2.266  15.476 -0.0691  0.0215  0.1199
 2461DOPC   C3B28881  33.062   2.189  15.051  0.4923 -0.0234 -0.1153
 2461DOPC   C4B28882  33.275   2.197  14.651  0.1771  0.0803  0.1272
 2462DOPE   NH328883  29.193   5.098  16.123  0.2158  0.1704 -0.0509
 2462DOPE   PO428884  28.934   4.978  16.252 -0.0683  0.1979 -0.0566
 2462DOPE   GL128885  28.943   4.639  16.037 -0.1345 -0.4181 -0.0422
 2462DOPE   GL228886  29.253   4.631  16.191  0.0726  0.3658  0.0373
 2462DOPE   C1A28887  28.760   4.491  15.621  0.1249 -0.0615 -0.3227
 2462DOPE   D2A28888  28.701   4.142  15.272  0.0573 -0.0135  0.0351
 2462DOPE   C3A28889  28.597   4.238  14.840 -0.1170  0.0932 -0.2367
 2462DOPE   C4A28890  28.692   4.366  14.433  0.3246 -0.2549  0.1276
 2462DOPE   C1B28891  29.278   4.697  15.719  0.1503  0.2265  0.3993
 2462DOPE   D2B28892  29.211   4.936  15.322  0.0257 -0.4024  0.2459
 2462DOPE   C3B28893  29.138   5.316  15.075 -0.2737 -0.0815  0.0459
 2462DOPE   C4B28894  29.245   5.716  14.886 -0.0986  0.4958 -0.1240
 2463DOPE   NH328895  28.441   5.598  16.027 -0.0984 -0.2544 -0.1738
 2463DOPE   PO428896  28.581   5.325  16.057 -0.1760 -0.2494  0.1059
 2463DOPE   GL128897  28.413   5.280  15.693 -0.1422 -0.1775  0.1851
 2463DOPE   GL228898  28.429   5.523  15.542  0.3925 -0.2243 -0.2702
 2463DOPE   C1A28899  28.688   5.138  15.324 -0.0136 -0.1313  0.1501
 2463DOPE   D2A28900  28.662   5.143  14.907  0.1727  0.0446 -0.2672
 2463DOPE   C3A28901  28.482   5.162  14.405 -0.0811 -0.2326 -0.0789
 2463DOPE   C4A28902  28.224   5.306  14.073 -0.2179  0.2009 -0.1764
 2463DOPE   C1B28903  28.121   5.381  15.229 -0.1889  0.0008  0.0770
 2463DOPE   D2B28904  27.805   5.328  14.926  0.2247  0.0062  0.1549
 2463DOPE   C3B28905  27.808   5.381  14.463  0.0906 -0.1225  0.0998
 2463DOPE   C4B28906  27.674   5.452  14.092  0.2847  0.1369 -0.0719
 2464DOPC   NC328907  31.463  10.416  16.286  0.1838  0.0730 -0.3896
 2464DOPC   PO428908  31.785  10.198  16.292  0.0697 -0.2297  0.0796
 2464DOPC   GL128909  31.804  10.398  15.904 -0.3369 -0.2665 -0.1007
 2464DOPC   GL228910  31.924  10.609  15.744 -0.0723 -0.3371 -0.0818
 2464DOPC   C1A28911  31.491  10.390  15.587 -0.1371 -0.2143 -0.0233
 2464DOPC   D2A28912  31.456  10.539  15.141  0.0530 -0.1292 -0.1696
 2464DOPC   C3A28913  31.034  10.825  15.020  0.0657  0.2013  0.1894
 2464DOPC   C4A28914  30.830  11.217  14.841  0.1939 -0.0891 -0.1709
 2464DOPC   C1B28915  31.696  10.961  15.939 -0.1357 -0.0167 -0.0840
 2464DOPC   D2B28916  31.498  11.306  15.757  0.0232  0.1452 -0.1427
 2464DOPC   C3B28917  31.703  11.730  15.692 -0.0521 -0.0190  0.0782
 2464DOPC   C4B28918  31.723  12.180  15.522 -0.1172  0.0003 -0.0195
 2465POSM   NC328919  32.047   6.985  16.245  0.4474  0.2538  0.0348
 2465POSM   PO428920  31.758   6.696  16.280  0.0485 -0.1843 -0.0845
 2465POSM   AM128921  31.795   6.633  15.956  0.2870 -0.0581  0.3885
 2465POSM   AM228922  31.886   6.397  15.821  0.0704  0.2135 -0.1089
 2465POSM   T1A28923  31.727   6.735  15.444  0.1866 -0.1381  0.2585
 2465POSM   C2A28924  31.858   7.112  15.183 -0.1273 -0.1795  0.1515
 2465POSM   C3A28925  31.892   7.414  14.782 -0.0710  0.0547 -0.1243
 2465POSM   C1B28926  32.124   6.294  15.502 -0.0482 -0.0198  0.1061
 2465POSM   D2B28927  32.349   6.237  15.146 -0.1883 -0.3086 -0.0332
 2465POSM   C3B28928  32.738   6.507  15.264  0.4465 -0.1511 -0.0848
 2465POSM   C4B28929  32.963   6.805  15.555 -0.0555 -0.0171 -0.0865
 2466DOPE   NH328930  23.588   9.264  15.335  0.4158 -0.1483  0.0139
 2466DOPE   PO428931  23.723   9.486  15.201  0.3849 -0.1308 -0.3181
 2466DOPE   GL128932  23.605   9.667  14.940 -0.3935 -0.0294 -0.1333
 2466DOPE   GL228933  23.376   9.857  15.021  0.0371  0.0704 -0.0317
 2466DOPE   C1A28934  23.922   9.870  14.600  0.2977 -0.0640 -0.0139
 2466DOPE   D2A28935  24.268   9.970  14.252  0.0708 -0.0455  0.0074
 2466DOPE   C3A28936  24.470   9.606  14.034 -0.1564  0.0697 -0.0568
 2466DOPE   C4A28937  24.472   9.289  13.624  0.0041 -0.2905  0.2002
 2466DOPE   C1B28938  23.378   9.842  14.560  0.3067  0.2970 -0.0655
 2466DOPE   D2B28939  23.176   9.801  14.132  0.2030  0.2378  0.0326
 2466DOPE   C3B28940  23.135   9.509  13.781 -0.1031  0.1583 -0.0605
 2466DOPE   C4B28941  23.241   9.242  13.469  0.0105 -0.3054 -0.0461
 2467DOPS   CNO28942  27.979   1.324  16.522  0.5406  0.1095 -0.1563
 2467DOPS   PO428943  27.735   1.093  16.298 -0.0060 -0.1253  0.0559
 2467DOPS   GL128944  27.731   1.399  16.035  0.5745 -0.2949  0.2631
 2467DOPS   GL228945  27.550   1.578  16.254  0.1743 -0.2834 -0.0170
 2467DOPS   C1A28946  27.419   1.412  15.648  0.3160 -0.2093 -0.2287
 2467DOPS   D2A28947  27.157   1.638  15.337 -0.0791  0.4612 -0.0660
 2467DOPS   C3A28948  27.167   2.016  15.112  0.2149 -0.1119 -0.1261
 2467DOPS   C4A28949  27.338   2.061  14.717 -0.1907 -0.2429 -0.2531
 2467DOPS   C1B28950  27.707   1.879  15.928  0.1980  0.1716 -0.1949
 2467DOPS   D2B28951  27.378   2.041  15.644 -0.0273  0.1405 -0.1865
 2467DOPS   C3B28952  27.142   2.434  15.497 -0.3665  0.1394  0.4107
 2467DOPS   C4B28953  26.755   2.545  15.397  0.0915 -0.2947  0.1687
 2468POSM   NC328954  30.028   7.565  16.368  0.0441  0.1488 -0.2049
 2468POSM   PO428955  29.652   7.665  16.343  0.1281 -0.1868  0.1267
 2468POSM   AM128956  29.703   7.866  16.056  0.2207 -0.1063 -0.0803
 2468POSM   AM228957  29.603   8.092  15.908  0.1760  0.2298  0.0590
 2468POSM   T1A28958  29.862   7.748  15.581  0.1035  0.0198 -0.0731
 2468POSM   C2A28959  29.832   7.436  15.215 -0.2475  0.2224 -0.2650
 2468POSM   C3A28960  29.688   7.029  15.060  0.1448  0.0112  0.1086
 2468POSM   C1B28961  29.869   8.198  15.800 -0.4264  0.0524  0.0774
 2468POSM   D2B28962  30.189   8.171  15.507  0.1069 -0.2211  0.1114
 2468POSM   C3B28963  30.164   8.604  15.362  0.2453 -0.3082  0.1173
 2468POSM   C4B28964  29.945   8.856  15.045 -0.0402  0.0427 -0.3104
 2469POSM   NC328965  27.551   8.078  16.181 -0.0051  0.1379 -0.2629
 2469POSM   PO428966  27.677   8.389  16.020  0.2816  0.3226  0.2071
 2469POSM   AM128967  27.794   8.287  15.748  0.0046 -0.1147  0.1729
 2469POSM   AM228968  27.972   8.445  15.594  0.3265  0.2647 -0.0594
 2469POSM   T1A28969  27.681   8.237  15.216 -0.1460 -0.0879  0.0165
 2469POSM   C2A28970  27.653   8.245  14.745  0.0877 -0.0072 -0.0120
 2469POSM   C3A28971  27.627   8.440  14.295  0.0381 -0.0453 -0.0051
 2469POSM   C1B28972  28.049   8.571  15.299  0.1000  0.0589  0.0775
 2469POSM   D2B28973  28.136   8.615  14.893  0.0554 -0.2565  0.4054
 2469POSM   C3B28974  28.276   8.958  14.578 -0.3085  0.1684 -0.0270
 2469POSM   C4B28975  28.531   9.222  14.310  0.0407 -0.1132 -0.1738
 2470DOPC   NC328976  26.083   0.436  16.335  0.3258 -0.1003  0.0920
 2470DOPC   PO428977  26.017   0.003  16.284 -0.1555  0.0519  0.1048
 2470DOPC   GL128978  26.117   0.206  15.912 -0.0077 -0.1166 -0.0716
 2470DOPC   GL228979  26.242  -0.045  15.777 -0.1468  0.0006  0.1460
 2470DOPC   C1A28980  26.029   0.339  15.447  0.1590 -0.1139 -0.0337
 2470DOPC   D2A28981  25.824   0.567  15.105 -0.2081  0.2716  0.2517
 2470DOPC   C3A28982  25.451   0.873  15.041  0.1871  0.1411  0.1289
 2470DOPC   C4A28983  25.070   1.136  14.954 -0.1553  0.0631  0.1019
 2470DOPC   C1B28984  26.435   0.086  15.349 -0.1294 -0.2324  0.0853
 2470DOPC   D2B28985  26.458  -0.017  14.860 -0.1760  0.0740  0.3333
 2470DOPC   C3B28986  26.240   0.062  14.480 -0.0795  0.1543  0.0082
 2470DOPC   C4B28987  26.336   0.392  14.184  0.3990  0.2473 -0.0038
 2471DOPS   CNO28988  30.768   3.274  16.294  0.1879  0.0172  0.0831
 2471DOPS   PO428989  30.641   3.643  16.431  0.2316  0.3972 -0.2960
 2471DOPS   GL128990  30.782   3.783  16.086 -0.0006  0.2863  0.2242
 2471DOPS   GL228991  30.967   3.937  16.019 -0.0482  0.0601 -0.1786
 2471DOPS   C1A28992  30.470   3.999  15.849 -0.0591  0.0502 -0.2647
 2471DOPS   D2A28993  30.147   3.925  15.549 -0.0374 -0.0508 -0.0611
 2471DOPS   C3A28994  30.339   3.746  15.136 -0.1481  0.0322 -0.1165
 2471DOPS   C4A28995  30.231   3.652  14.678  0.0392  0.0035 -0.1070
 2471DOPS   C1B28996  31.168   4.090  15.619  0.0678 -0.1795  0.0442
 2471DOPS   D2B28997  31.286   4.497  15.488  0.1907 -0.2416 -0.1631
 2471DOPS   C3B28998  31.134   4.806  15.241  0.1076 -0.3125 -0.1604
 2471DOPS   C4B28999  30.940   4.948  14.862  0.1172 -0.0947  0.0009
 2472DOPE   NH329000  32.897   9.873  15.964  0.0319 -0.0880 -0.0316
 2472DOPE   PO429001  32.786  10.121  15.853  0.1320  0.0263  0.1630
 2472DOPE   GL129002  32.663  10.171  15.516  0.0774  0.0865 -0.4262
 2472DOPE   GL229003  32.797   9.945  15.388  0.0044  0.2238  0.1821
 2472DOPE   C1A29004  32.984  10.416  15.269  0.1182 -0.1707 -0.0049
 2472DOPE   D2A29005  33.101  10.748  15.001  0.0030  0.0956  0.1503
 2472DOPE   C3A29006  33.241  10.677  14.531  0.0121  0.1411  0.0662
 2472DOPE   C4A29007  33.125  10.443  14.193  0.3632  0.0773  0.0492
 2472DOPE   C1B29008  32.712   9.991  14.937  0.4254 -0.1198 -0.0833
 2472DOPE   D2B29009  32.625  10.216  14.517  0.0992  0.5324 -0.0648
 2472DOPE   C3B29010  32.733  10.102  14.062  0.5442  0.0574 -0.0783
 2472DOPE   C4B29011  32.562   9.873  13.681  0.1380  0.0731  0.0508
 2473POSM   NC329012  33.123   5.338  16.435 -0.1518 -0.0277 -0.1823
 2473POSM   PO429013  33.060   5.695  16.513 -0.1114  0.2273 -0.1046
 2473POSM   AM129014  33.144   5.760  16.197  0.1677 -0.1045  0.2474
 2473POSM   AM229015  33.287   5.938  16.026  0.1178 -0.3269 -0.0113
 2473POSM   T1A29016  32.895   5.717  15.724  0.0672 -0.1741 -0.1624
 2473POSM   C2A29017  32.940   5.448  15.343  0.2767 -0.1797 -0.1151
 2473POSM   C3A29018  32.883   5.401  14.877  0.2015  0.2629  0.0325
 2473POSM   C1B29019  33.392   5.878  15.739 -0.0161  0.2045 -0.2005
 2473POSM   D2B29020  33.500   5.679  15.258 -0.0089 -0.0228  0.2860
 2473POSM   C3B29021  33.477   5.769  14.772 -0.0718  0.2972 -0.0553
 2473POSM   C4B29022  33.062   5.744  14.585  0.1989  0.2617  0.1884
 2474POSM   NC329023  34.304   2.103  16.049  0.0852 -0.1690  0.0355
 2474POSM   PO429024  34.137   1.799  16.185  0.0988  0.1534  0.2250
 2474POSM   AM129025  34.009   1.742  15.859  0.0756  0.1117 -0.2222
 2474POSM   AM229026  34.105   1.891  15.630  0.0950  0.0187  0.0706
 2474POSM   T1A29027  33.813   1.473  15.502  0.0097 -0.0490 -0.1252
 2474POSM   C2A29028  33.548   1.578  15.215  0.0322 -0.1589 -0.2189
 2474POSM   C3A29029  33.255   1.733  14.888  0.0541  0.0076  0.0031
 2474POSM   C1B29030  33.951   2.002  15.347 -0.0103 -0.2923 -0.1868
 2474POSM   D2B29031  33.963   2.066  14.887 -0.0231 -0.0100  0.0242
 2474POSM   C3B29032  33.785   2.075  14.455  0.1960  0.1636 -0.2568
 2474POSM   C4B29033  33.479   2.341  14.213 -0.1075  0.1882  0.2655
 2475DOPC   NC329034  24.557   7.703  15.739  0.3533  0.2217  0.0242
 2475DOPC   PO429035  24.198   7.845  15.661 -0.0143  0.0250  0.3638
 2475DOPC   GL129036  24.428   7.742  15.293  0.1762  0.2722  0.1240
 2475DOPC   GL229037  24.747   7.863  15.297 -0.0189 -0.1202  0.0763
 2475DOPC   C1A29038  24.127   7.604  14.949  0.1877  0.4174  0.1269
 2475DOPC   D2A29039  23.745   7.388  14.683  0.0625  0.0487  0.1474
 2475DOPC   C3A29040  23.406   7.041  14.611 -0.0380  0.0604 -0.0626
 2475DOPC   C4A29041  23.180   6.632  14.603  0.0853  0.4109  0.0430
 2475DOPC   C1B29042  24.931   8.348  15.317 -0.0439 -0.0630 -0.2197
 2475DOPC   D2B29043  24.805   8.727  15.339 -0.1296 -0.3838  0.1826
 2475DOPC   C3B29044  25.046   9.019  15.148  0.1292  0.0439  0.0051
 2475DOPC   C4B29045  25.457   9.267  15.123 -0.2321 -0.2890  0.3950
 2476DOPC   NC329046  24.036   2.978  15.640 -0.2418  0.2489 -0.3367
 2476DOPC   PO429047  24.326   2.748  15.534  0.0648 -0.1278 -0.0416
 2476DOPC   GL129048  24.128   2.698  15.176 -0.2442  0.3171  0.1968
 2476DOPC   GL229049  24.276   2.428  15.047 -0.0357  0.2863 -0.1031
 2476DOPC   C1A29050  24.233   2.838  14.719  0.0002  0.0356  0.1368
 2476DOPC   D2A29051  24.314   3.072  14.330  0.4449  0.1211 -0.0822
 2476DOPC   C3A29052  24.359   3.034  13.870 -0.2772 -0.0386 -0.0399
 2476DOPC   C4A29053  24.505   2.996  13.415  0.1250 -0.0784 -0.1023
 2476DOPC   C1B29054  24.383   2.255  14.618  0.1131  0.1824 -0.0444
 2476DOPC   D2B29055  24.621   2.200  14.201  0.0379  0.0455 -0.0466
 2476DOPC   C3B29056  24.318   2.189  13.831  0.2648 -0.0369  0.0286
 2476DOPC   C4B29057  23.848   2.065  13.760 -0.1233  0.0635  0.0993
 2477POSM   NC329058  30.073   0.252  16.200 -0.0481 -0.1980 -0.1944
 2477POSM   PO429059  29.657   0.190  16.166  0.0767  0.2033  0.0082
 2477POSM   AM129060  29.567   0.144  15.832 -0.1047  0.0461  0.0608
 2477POSM   AM229061  29.596   0.270  15.613  0.2805  0.0401 -0.1431
 2477POSM   T1A29062  29.493  -0.196  15.494 -0.0437  0.2600 -0.0260
 2477POSM   C2A29063  29.348  -0.514  15.169 -0.1953  0.1558  0.2447
 2477POSM   C3A29064  29.497  -0.912  15.027  0.1443 -0.0631 -0.2526
 2477POSM   C1B29065  29.378   0.351  15.340 -0.0482  0.0065 -0.6420
 2477POSM   D2B29066  29.051   0.466  15.045  0.2971 -0.1743 -0.0516
 2477POSM   C3B29067  29.141   0.633  14.619 -0.2363 -0.2496 -0.1014
 2477POSM   C4B29068  29.235   0.591  14.176 -0.2130 -0.0506 -0.1972
 2478POSM   NC329069  34.314   4.530  16.206  0.3475  0.1000  0.4916
 2478POSM   PO429070  34.222   4.690  15.850  0.2485 -0.0588 -0.2124
 2478POSM   AM129071  34.213   4.883  15.574  0.3646 -0.0474  0.4495
 2478POSM   AM229072  34.283   5.155  15.527  0.0979  0.1147 -0.0875
 2478POSM   T1A29073  34.244   4.915  15.086 -0.0279 -0.1779  0.1515
 2478POSM   C2A29074  34.129   5.046  14.671  0.1069  0.4123 -0.0507
 2478POSM   C3A29075  34.381   5.096  14.320  0.1948 -0.0587  0.2279
 2478POSM   C1B29076  34.314   5.453  15.311 -0.0383  0.1562  0.0510
 2478POSM   D2B29077  34.544   5.797  15.063  0.1350 -0.1980  0.0138
 2478POSM   C3B29078  34.716   5.798  14.603 -0.0450  0.0043 -0.0960
 2478POSM   C4B29079  34.966   5.856  14.175 -0.2291 -0.0351  0.0338
 2479DOPE   NH329080  33.991  10.783  16.214 -0.0276 -0.3225  0.0617
 2479DOPE   PO429081  33.716  10.945  16.256 -0.4502  0.0746  0.0837
 2479DOPE   GL129082  33.463  10.950  15.851  0.1186 -0.0019 -0.2091
 2479DOPE   GL229083  33.584  10.769  15.777 -0.1979 -0.4233  0.1343
 2479DOPE   C1A29084  33.496  11.155  15.451 -0.0908  0.1613  0.2279
 2479DOPE   D2A29085  33.519  11.341  15.047 -0.1514 -0.2071 -0.3051
 2479DOPE   C3A29086  33.658  10.950  14.792 -0.1014 -0.1209  0.1387
 2479DOPE   C4A29087  33.735  10.704  14.435 -0.0991  0.0723 -0.2524
 2479DOPE   C1B29088  33.498  10.653  15.284  0.0900 -0.4723 -0.1469
 2479DOPE   D2B29089  33.608  10.416  14.841 -0.2006 -0.1729  0.0820
 2479DOPE   C3B29090  33.171  10.225  14.747  0.1687  0.2455  0.1299
 2479DOPE   C4B29091  33.057   9.974  14.376  0.2269 -0.0942 -0.1474
 2480DOPC   NC329092  30.422   9.287  16.606  0.2912  0.0354 -0.1744
 2480DOPC   PO429093  30.545   9.652  16.760 -0.1900 -0.0440  0.0879
 2480DOPC   GL129094  30.299   9.789  16.411 -0.0665  0.3235 -0.1847
 2480DOPC   GL229095  30.504   9.680  16.193  0.1252 -0.1231 -0.2318
 2480DOPC   C1A29096  29.890   9.723  16.164 -0.0341 -0.1102 -0.2095
 2480DOPC   D2A29097  29.711   9.895  15.828 -0.2452 -0.1124  0.0839
 2480DOPC   C3A29098  29.990  10.155  15.562  0.1523  0.3070  0.1386
 2480DOPC   C4A29099  30.085  10.326  15.124 -0.1997  0.0487  0.2713
 2480DOPC   C1B29100  30.688   9.876  15.829 -0.0856 -0.2712  0.0782
 2480DOPC   D2B29101  30.788   9.769  15.378 -0.2453  0.1337  0.0869
 2480DOPC   C3B29102  30.733   9.981  14.984  0.1175 -0.3486  0.2289
 2480DOPC   C4B29103  30.379   9.988  14.674  0.4126 -0.1255  0.2206
 2481DOPE   NH329104  31.340   6.512  15.844  0.1601  0.2939 -0.0210
 2481DOPE   PO429105  31.154   6.249  15.880 -0.3559  0.2806  0.3588
 2481DOPE   GL129106  31.022   6.384  15.499 -0.0470 -0.0096  0.5860
 2481DOPE   GL229107  30.887   6.124  15.407  0.0851  0.0490  0.1891
 2481DOPE   C1A29108  30.933   6.433  15.054  0.0360 -0.0334  0.0476
 2481DOPE   D2A29109  30.849   6.709  14.681 -0.1487 -0.1005 -0.1899
 2481DOPE   C3A29110  30.582   6.988  14.526 -0.1288 -0.3622  0.1293
 2481DOPE   C4A29111  30.368   7.355  14.376  0.1314  0.2452  0.0772
 2481DOPE   C1B29112  30.775   5.685  15.256 -0.0304  0.1087  0.1581
 2481DOPE   D2B29113  30.654   5.318  15.094  0.1280 -0.0762  0.2693
 2481DOPE   C3B29114  30.726   5.282  14.605 -0.2083  0.2672 -0.0744
 2481DOPE   C4B29115  31.118   5.159  14.324  0.1794 -0.0615 -0.4448
 2482DOPE   NH329116  33.270   3.600  16.293 -0.2362  0.2016  0.0057
 2482DOPE   PO429117  32.976   3.621  16.226  0.0374  0.0928 -0.2358
 2482DOPE   GL129118  32.742   3.364  16.005 -0.5989  0.3078  0.3783
 2482DOPE   GL229119  33.036   3.411  15.761 -0.1038  0.2069 -0.1904
 2482DOPE   C1A29120  32.638   3.108  15.619 -0.1496 -0.0831 -0.2900
 2482DOPE   D2A29121  32.573   3.128  15.160 -0.1038  0.0761 -0.1511
 2482DOPE   C3A29122  32.603   2.905  14.793  0.1537  0.0509 -0.0638
 2482DOPE   C4A29123  32.565   2.896  14.370 -0.0002  0.1857  0.3400
 2482DOPE   C1B29124  33.091   3.215  15.343 -0.1030  0.2308  0.0051
 2482DOPE   D2B29125  33.298   3.042  14.965 -0.1833 -0.0813 -0.1918
 2482DOPE   C3B29126  33.106   3.014  14.525 -0.1393  0.1508  0.0045
 2482DOPE   C4B29127  32.997   3.044  14.129  0.0217 -0.0638  0.1933
 2483DOPE   NH329128  30.228   2.739  16.259 -0.0358  0.1522 -0.0342
 2483DOPE   PO429129  30.324   3.037  16.347  0.0908  0.2116  0.0970
 2483DOPE   GL129130  30.454   3.324  16.007  0.4240 -0.2972  0.0929
 2483DOPE   GL229131  30.216   3.505  15.932 -0.0285 -0.0922  0.0659
 2483DOPE   C1A29132  30.521   3.302  15.574 -0.1321  0.0837 -0.1751
 2483DOPE   D2A29133  30.490   3.304  15.119  0.3535 -0.2308  0.0514
 2483DOPE   C3A29134  30.252   2.969  14.949  0.3485 -0.2666 -0.2562
 2483DOPE   C4A29135  29.939   2.845  14.661  0.0420  0.2943 -0.1217
 2483DOPE   C1B29136  30.069   3.456  15.554  0.0929 -0.1798 -0.2755
 2483DOPE   D2B29137  30.017   3.333  15.137 -0.1897 -0.1786 -0.1701
 2483DOPE   C3B29138  29.647   3.036  15.015  0.0716 -0.2206  0.0619
 2483DOPE   C4B29139  29.438   2.778  14.681  0.3610 -0.0620  0.0537
 2484DOPS   CNO29140  24.240   5.595  15.919 -0.0091  0.1413  0.4780
 2484DOPS   PO429141  23.967   5.564  15.672 -0.0455  0.0646 -0.1622
 2484DOPS   GL129142  24.127   5.586  15.354 -0.0009 -0.0945  0.0822
 2484DOPS   GL229143  23.876   5.543  15.187  0.2866 -0.0569 -0.1027
 2484DOPS   C1A29144  24.354   5.541  15.027  0.3025 -0.2947  0.0483
 2484DOPS   D2A29145  24.400   5.295  14.676 -0.0661  0.0400 -0.0142
 2484DOPS   C3A29146  24.488   5.198  14.249 -0.0226  0.2655  0.0597
 2484DOPS   C4A29147  24.423   5.340  13.851  0.2071 -0.1565 -0.3035
 2484DOPS   C1B29148  23.936   5.392  14.745 -0.1281 -0.0901  0.4881
 2484DOPS   D2B29149  23.966   5.188  14.309 -0.1739 -0.0641 -0.1778
 2484DOPS   C3B29150  23.938   5.369  13.905  0.3154  0.1016 -0.1150
 2484DOPS   C4B29151  23.857   5.449  13.467 -0.0906 -0.3623  0.1540
 2485DOPE   NH329152  29.269   7.281  16.362  0.0005 -0.0012 -0.1563
 2485DOPE   PO429153  29.588   7.172  16.398  0.1478 -0.1002  0.1685
 2485DOPE   GL129154  29.508   7.346  15.991 -0.3123 -0.1145 -0.5128
 2485DOPE   GL229155  29.827   7.357  15.968  0.0148 -0.2874 -0.0433
 2485DOPE   C1A29156  29.329   7.574  15.658 -0.0047 -0.3771  0.0220
 2485DOPE   D2A29157  29.405   7.738  15.211 -0.2012  0.1860  0.0327
 2485DOPE   C3A29158  29.608   7.725  14.758 -0.2040  0.2004  0.2851
 2485DOPE   C4A29159  29.837   8.064  14.543 -0.0531 -0.2561 -0.1885
 2485DOPE   C1B29160  29.635   7.142  15.600  0.0353 -0.1165 -0.1420
 2485DOPE   D2B29161  29.207   7.197  15.319  0.0871 -0.2108  0.0669
 2485DOPE   C3B29162  29.290   7.357  14.874 -0.3253 -0.0913  0.2795
 2485DOPE   C4B29163  29.076   7.216  14.487 -0.0753  0.4331 -0.0822
 2486DOPE   NH329164  26.959   6.357  16.375  0.1781  0.0740 -0.2517
 2486DOPE   PO429165  26.685   6.272  16.442  0.2408  0.0307 -0.1598
 2486DOPE   GL129166  26.572   6.333  15.990 -0.0517 -0.2270  0.3383
 2486DOPE   GL229167  26.841   6.398  15.851 -0.1313 -0.1292  0.2462
 2486DOPE   C1A29168  26.527   6.373  15.505 -0.0908  0.0435 -0.3660
 2486DOPE   D2A29169  26.723   6.323  15.039  0.0791  0.0368  0.3106
 2486DOPE   C3A29170  26.454   6.507  14.628 -0.3654 -0.1421 -0.1789
 2486DOPE   C4A29171  26.217   6.407  14.264 -0.2129  0.3152 -0.0281
 2486DOPE   C1B29172  27.071   6.389  15.481  0.2047 -0.4373 -0.0473
 2486DOPE   D2B29173  27.196   6.508  15.058  0.0941  0.0978  0.0279
 2486DOPE   C3B29174  27.536   6.732  14.888  0.0258 -0.1532  0.2617
 2486DOPE   C4B29175  27.802   6.804  14.512 -0.2178  0.0008  0.1094
 2487POSM   NC329176  26.923   0.680  16.564 -0.2761  0.0347 -0.1545
 2487POSM   PO429177  26.792   0.460  16.234  0.1353  0.3315  0.1503
 2487POSM   AM129178  26.747   0.327  15.909 -0.0180 -0.1640  0.0971
 2487POSM   AM229179  26.525   0.370  15.733  0.1328 -0.0599  0.3055
 2487POSM   T1A29180  26.891   0.122  15.422  0.1983  0.3581  0.1665
 2487POSM   C2A29181  26.941   0.215  14.985 -0.0063  0.1510  0.1457
 2487POSM   C3A29182  27.177   0.092  14.662 -0.0845 -0.0223 -0.1757
 2487POSM   C1B29183  26.680   0.564  15.510 -0.2256  0.4082  0.2406
 2487POSM   D2B29184  26.833   0.709  15.073 -0.1813 -0.0014 -0.1551
 2487POSM   C3B29185  26.875   1.084  14.819  0.4046  0.0434 -0.1848
 2487POSM   C4B29186  26.949   1.543  14.765 -0.0925  0.2300  0.0695
 2488POSM   NC329187  27.725   4.141  15.797 -0.0548 -0.2881 -0.3614
 2488POSM   PO429188  28.062   3.951  15.866 -0.1347  0.2611 -0.0306
 2488POSM   AM129189  28.140   3.948  15.554  0.2843  0.1084 -0.1616
 2488POSM   AM229190  28.312   3.796  15.384 -0.0742 -0.0335 -0.1818
 2488POSM   T1A29191  28.101   4.208  15.128  0.0276  0.1580  0.0451
 2488POSM   C2A29192  28.189   4.501  14.783 -0.1639  0.1936  0.1105
 2488POSM   C3A29193  28.544   4.747  14.674 -0.3080  0.2318  0.1783
 2488POSM   C1B29194  28.173   3.684  15.103  0.3408 -0.0408  0.1109
 2488POSM   D2B29195  28.234   3.576  14.686 -0.0796 -0.0937  0.1168
 2488POSM   C3B29196  27.838   3.616  14.479  0.2308  0.0021  0.2064
 2488POSM   C4B29197  27.642   3.674  14.064 -0.2409 -0.0268 -0.1365
 2489DOPC   NC329198  29.660   6.849  16.030 -0.1940  0.1126  0.0114
 2489DOPC   PO429199  29.385   6.549  15.989 -0.2052  0.2616  0.3746
 2489DOPC   GL129200  29.619   6.579  15.653  0.1200  0.0764  0.0615
 2489DOPC   GL229201  29.887   6.550  15.694 -0.1374 -0.1198  0.3370
 2489DOPC   C1A29202  29.360   6.579  15.213 -0.0225  0.3298 -0.2095
 2489DOPC   D2A29203  29.313   6.723  14.790 -0.1853  0.0080  0.1191
 2489DOPC   C3A29204  29.547   6.986  14.457  0.1928  0.2073 -0.1025
 2489DOPC   C4A29205  29.398   7.152  14.057  0.3304 -0.0789  0.1272
 2489DOPC   C1B29206  29.870   6.554  15.224 -0.1825 -0.1667  0.0173
 2489DOPC   D2B29207  29.856   6.611  14.760 -0.5324  0.1090  0.1832
 2489DOPC   C3B29208  29.561   6.481  14.442  0.1583  0.1981  0.0004
 2489DOPC   C4B29209  29.571   6.663  14.055 -0.2441 -0.3288  0.0833
 2490DOPC   NC329210  26.787   8.620  15.822  0.0294  0.3423  0.0078
 2490DOPC   PO429211  27.145   8.465  15.958 -0.1155 -0.2708  0.0030
 2490DOPC   GL129212  27.211   8.519  15.546 -0.5679  0.0739 -0.2995
 2490DOPC   GL229213  27.246   8.802  15.538  0.1124  0.0100  0.2914
 2490DOPC   C1A29214  27.076   8.268  15.176  0.2028  0.0369  0.0261
 2490DOPC   D2A29215  27.205   7.894  15.049  0.3777 -0.0310  0.0498
 2490DOPC   C3A29216  27.259   7.567  14.744 -0.2109  0.1037 -0.1709
 2490DOPC   C4A29217  27.668   7.302  14.848 -0.3221 -0.1072  0.1609
 2490DOPC   C1B29218  27.155   8.742  15.146  0.0156  0.2076  0.0978
 2490DOPC   D2B29219  27.051   8.558  14.694 -0.0690  0.2412  0.1453
 2490DOPC   C3B29220  27.240   8.781  14.399 -0.1302  0.1513  0.1738
 2490DOPC   C4B29221  27.170   8.852  13.931 -0.0254  0.0449 -0.3401
 2491POSM   NC329222  25.553   9.749  16.127 -0.2969  0.0369 -0.1921
 2491POSM   PO429223  25.858   9.808  15.878 -0.0917 -0.0691 -0.0143
 2491POSM   AM129224  26.025   9.809  15.619  0.0323 -0.0266  0.4944
 2491POSM   AM229225  26.289   9.904  15.433 -0.1876 -0.0100  0.0073
 2491POSM   T1A29226  25.899   9.575  15.186 -0.1645 -0.1844 -0.2053
 2491POSM   C2A29227  25.637   9.538  14.771 -0.1319 -0.1978 -0.1311
 2491POSM   C3A29228  25.538   9.408  14.316 -0.2231  0.0359  0.2015
 2491POSM   C1B29229  26.355   9.926  15.109 -0.0600 -0.1188  0.1945
 2491POSM   D2B29230  26.416  10.014  14.675  0.1121 -0.1979 -0.3324
 2491POSM   C3B29231  26.293   9.732  14.308  0.1353  0.2048 -0.3313
 2491POSM   C4B29232  26.224   9.324  14.035  0.1187 -0.0113 -0.2097
 2492DOPC   NC329233  31.332   2.118  16.013  0.1955 -0.0653  0.0482
 2492DOPC   PO429234  31.703   2.301  15.913 -0.2006 -0.0410 -0.1998
 2492DOPC   GL129235  31.576   2.314  15.587 -0.3074 -0.2998 -0.0603
 2492DOPC   GL229236  31.745   2.495  15.471 -0.0743  0.0183  0.1585
 2492DOPC   C1A29237  31.572   1.989  15.203 -0.1075  0.1124  0.1981
 2492DOPC   D2A29238  31.782   1.862  14.858  0.0599 -0.0301 -0.0241
 2492DOPC   C3A29239  32.029   2.003  14.431  0.1025  0.0612  0.5287
 2492DOPC   C4A29240  32.172   2.140  13.993 -0.0253 -0.3163  0.1199
 2492DOPC   C1B29241  31.673   2.450  15.010  0.1230 -0.3036  0.1671
 2492DOPC   D2B29242  31.690   2.316  14.575  0.1894  0.3433  0.0981
 2492DOPC   C3B29243  31.801   2.525  14.176  0.3690  0.1530  0.0278
 2492DOPC   C4B29244  31.665   2.790  13.816 -0.5652  0.1544  0.2790
 2493POSM   NC329245  23.286   7.743  15.447  0.0931 -0.0699  0.1975
 2493POSM   PO429246  23.191   8.141  15.433  0.0636  0.2528  0.0690
 2493POSM   AM129247  23.323   8.054  15.155  0.1022 -0.1651 -0.0799
 2493POSM   AM229248  23.598   7.977  15.070  0.0415  0.1864  0.1861
 2493POSM   T1A29249  23.303   7.810  14.744  0.3151  0.0747 -0.1190
 2493POSM   C2A29250  23.289   7.488  14.387  0.1924 -0.1912 -0.0490
 2493POSM   C3A29251  23.174   7.129  14.077 -0.3260 -0.0600 -0.1526
 2493POSM   C1B29252  23.785   7.956  14.827  0.0588  0.2276 -0.1041
 2493POSM   D2B29253  23.971   7.974  14.415 -0.0383  0.0939 -0.2227
 2493POSM   C3B29254  23.718   7.637  14.208 -0.0169  0.0150  0.1442
 2493POSM   C4B29255  23.382   7.541  13.884 -0.1411  0.0762 -0.3650
 2494DOPC   NC329256  26.443   5.476  15.979 -0.1057  0.3079 -0.1554
 2494DOPC   PO429257  26.230   5.150  16.004 -0.1491  0.0967 -0.1673
 2494DOPC   GL129258  26.133   4.972  15.632  0.1632  0.0034 -0.2609
 2494DOPC   GL229259  25.884   4.928  15.695  0.2899  0.0033  0.0476
 2494DOPC   C1A29260  25.991   5.009  15.202 -0.3286 -0.0918 -0.1351
 2494DOPC   D2A29261  26.237   5.103  14.869  0.0689 -0.0872  0.0800
 2494DOPC   C3A29262  26.654   5.273  14.767  0.0179 -0.0009 -0.0380
 2494DOPC   C4A29263  27.036   5.195  14.650 -0.4748 -0.0182 -0.1211
 2494DOPC   C1B29264  25.616   4.651  15.391 -0.0482 -0.2128  0.1033
 2494DOPC   D2B29265  25.291   4.368  15.262 -0.2343  0.5275  0.0699
 2494DOPC   C3B29266  25.410   4.155  14.884  0.0217 -0.1268  0.1907
 2494DOPC   C4B29267  25.632   3.905  14.533  0.0722  0.2072  0.1542
 2495POSM   NC329268  24.741  10.450  15.325 -0.4389  0.1722  0.0924
 2495POSM   PO429269  24.474  10.710  15.465 -0.1593  0.0287  0.2785
 2495POSM   AM129270  24.419  10.894  15.195 -0.0943 -0.3111  0.1643
 2495POSM   AM229271  24.639  10.907  15.015  0.4552 -0.0619  0.1301
 2495POSM   T1A29272  24.326  10.829  14.655 -0.1582 -0.2197  0.0806
 2495POSM   C2A29273  24.404  11.022  14.223  0.2160 -0.4263 -0.0895
 2495POSM   C3A29274  24.346  11.329  13.878 -0.0527  0.0976 -0.1243
 2495POSM   C1B29275  24.803  10.930  14.709  0.0352  0.1442 -0.0710
 2495POSM   D2B29276  25.050  10.817  14.350  0.1514  0.0238  0.3442
 2495POSM   C3B29277  24.689  10.748  13.989 -0.0784  0.0286 -0.0567
 2495POSM   C4B29278  24.354  10.863  13.663 -0.0216 -0.1920 -0.1025
 2496DOPE   NH329279  26.692   7.370  16.345 -0.1732  0.1009 -0.0590
 2496DOPE   PO429280  26.961   7.320  16.213  0.1672  0.3049  0.2073
 2496DOPE   GL129281  26.857   7.342  15.846 -0.1968 -0.2148 -0.1337
 2496DOPE   GL229282  26.979   7.132  15.793  0.0192  0.0497  0.1837
 2496DOPE   C1A29283  27.057   7.542  15.520 -0.1709 -0.1182 -0.0696
 2496DOPE   D2A29284  27.352   7.364  15.216  0.2105  0.0598  0.2281
 2496DOPE   C3A29285  27.194   7.069  14.890 -0.0598  0.1868 -0.3172
 2496DOPE   C4A29286  27.389   7.089  14.486  0.1957  0.3088  0.0476
 2496DOPE   C1B29287  27.029   6.970  15.369 -0.1886  0.0745  0.1917
 2496DOPE   D2B29288  26.814   6.781  14.963  0.0285  0.2382 -0.1693
 2496DOPE   C3B29289  26.871   6.866  14.568  0.2412 -0.0532  0.0323
 2496DOPE   C4B29290  26.813   7.100  14.251 -0.2205  0.1596  0.1589
 2497DOPC   NC329291  33.632   2.403  16.383  0.0896  0.1475 -0.0755
 2497DOPC   PO429292  33.332   2.637  16.219 -0.0755  0.0628  0.0409
 2497DOPC   GL129293  33.324   2.361  15.933 -0.1380  0.2384  0.0322
 2497DOPC   GL229294  33.284   2.581  15.721 -0.1130 -0.2301  0.0257
 2497DOPC   C1A29295  33.014   1.983  15.849 -0.0776  0.1454 -0.2937
 2497DOPC   D2A29296  32.661   1.826  15.643  0.2676  0.3584  0.2476
 2497DOPC   C3A29297  32.583   2.013  15.237 -0.0728  0.0437 -0.4327
 2497DOPC   C4A29298  32.317   1.762  14.890  0.0005 -0.1031 -0.1156
 2497DOPC   C1B29299  33.281   2.595  15.278 -0.0784 -0.2086 -0.3194
 2497DOPC   D2B29300  33.075   2.657  14.882  0.3445  0.2454  0.0516
 2497DOPC   C3B29301  32.959   2.517  14.441 -0.1635 -0.2066  0.0655
 2497DOPC   C4B29302  33.052   2.535  14.035 -0.1010  0.1334 -0.0951
 2498DOPC   NC329303  29.925   1.542  16.348  0.0552 -0.0434 -0.0989
 2498DOPC   PO429304  29.851   1.193  16.321 -0.1485  0.2284 -0.3226
 2498DOPC   GL129305  29.859   1.218  15.946 -0.0557  0.0067  0.0172
 2498DOPC   GL229306  30.055   1.052  15.817 -0.1416  0.0969 -0.0113
 2498DOPC   C1A29307  29.874   1.397  15.529  0.2108  0.0928 -0.0329
 2498DOPC   D2A29308  29.808   1.646  15.194  0.0280 -0.1547  0.1720
 2498DOPC   C3A29309  29.750   1.474  14.734 -0.1870 -0.3293  0.1643
 2498DOPC   C4A29310  29.520   1.050  14.624  0.0403  0.2994  0.3666
 2498DOPC   C1B29311  30.131   0.940  15.361  0.0220 -0.1431 -0.0071
 2498DOPC   D2B29312  30.069   0.842  14.895 -0.1511 -0.5727 -0.1148
 2498DOPC   C3B29313  30.095   1.130  14.468  0.4701  0.0753 -0.3103
 2498DOPC   C4B29314  30.177   1.217  14.059  0.2390  0.2119  0.0425
 2499DOPC   NC329315  26.958   4.173  16.042  0.2445  0.1024  0.2256
 2499DOPC   PO429316  26.897   4.564  16.082 -0.2135 -0.0670 -0.2817
 2499DOPC   GL129317  26.892   4.762  15.720  0.2801 -0.4488 -0.1715
 2499DOPC   GL229318  26.640   4.777  15.588  0.1327  0.0313  0.0917
 2499DOPC   C1A29319  27.010   4.895  15.258  0.1282  0.2551  0.0771
 2499DOPC   D2A29320  27.336   5.148  15.088  0.0302 -0.1324 -0.1725
 2499DOPC   C3A29321  27.292   5.556  14.948  0.2814  0.2250  0.3107
 2499DOPC   C4A29322  27.481   5.788  14.579 -0.0272 -0.2198  0.0858
 2499DOPC   C1B29323  26.376   4.629  15.366  0.0369 -0.0980 -0.1907
 2499DOPC   D2B29324  26.370   4.287  15.088 -0.2474  0.2275 -0.2348
 2499DOPC   C3B29325  26.522   4.227  14.622  0.2050 -0.1856 -0.0020
 2499DOPC   C4B29326  26.608   4.172  14.162 -0.2293  0.1765 -0.0308
 2500DOPC   NC329327  33.322   7.732  16.113 -0.2183 -0.5265  0.1477
 2500DOPC   PO429328  33.198   8.073  16.018  0.2132 -0.0414 -0.1149
 2500DOPC   GL129329  33.340   8.068  15.613  0.0255 -0.2213  0.0311
 2500DOPC   GL229330  33.409   7.767  15.599 -0.1861 -0.0201 -0.1320
 2500DOPC   C1A29331  33.324   8.454  15.341 -0.0454 -0.3162  0.0752
 2500DOPC   D2A29332  33.054   8.487  14.989 -0.0016  0.0554 -0.3329
 2500DOPC   C3A29333  32.855   8.825  14.746  0.2189  0.0739  0.2014
 2500DOPC   C4A29334  32.590   9.216  14.675 -0.3692 -0.1828  0.1970
 2500DOPC   C1B29335  33.278   7.909  15.201  0.0510 -0.1364  0.1709
 2500DOPC   D2B29336  32.978   7.868  14.859 -0.0176  0.0085  0.2613
 2500DOPC   C3B29337  32.985   7.391  14.733 -0.0727  0.0746 -0.0735
 2500DOPC   C4B29338  32.725   7.134  14.403 -0.3112  0.1191  0.2954
 2501DOPS   CNO29339  29.437   5.516  16.284 -0.2158  0.1479 -0.2817
 2501DOPS   PO429340  29.526   5.478  15.926 -0.1585  0.2566  0.1067
 2501DOPS   GL129341  29.429   5.433  15.617 -0.0030 -0.4066 -0.2410
 2501DOPS   GL229342  29.320   5.739  15.527  0.0737  0.2804  0.1213
 2501DOPS   C1A29343  29.625   5.278  15.215 -0.0462 -0.2130 -0.0843
 2501DOPS   D2A29344  30.127   5.338  15.229  0.2254  0.5133 -0.0172
 2501DOPS   C3A29345  30.298   5.671  15.001 -0.0600 -0.2684 -0.0607
 2501DOPS   C4A29346  30.683   5.932  14.854  0.1970  0.0645 -0.0422
 2501DOPS   C1B29347  29.518   6.088  15.271  0.0223  0.2941  0.0071
 2501DOPS   D2B29348  29.464   6.198  14.835  0.1546  0.0226 -0.1484
 2501DOPS   C3B29349  29.093   6.323  14.561 -0.0682 -0.0555  0.0932
 2501DOPS   C4B29350  28.782   6.346  14.151  0.1938  0.0084  0.3088
 2502DOPC   NC329351  29.754   4.086  16.519 -0.3655  0.0214 -0.0357
 2502DOPC   PO429352  29.568   4.208  16.221  0.0530 -0.0452  0.0783
 2502DOPC   GL129353  29.552   4.341  15.844  0.0342  0.3296 -0.1510
 2502DOPC   GL229354  29.394   4.142  15.674  0.0097  0.2068 -0.1325
 2502DOPC   C1A29355  29.781   4.317  15.406 -0.2547  0.0909 -0.2293
 2502DOPC   D2A29356  29.926   3.932  15.116  0.1551 -0.1412  0.0644
 2502DOPC   C3A29357  30.090   4.087  14.756 -0.0546 -0.1808  0.2449
 2502DOPC   C4A29358  30.256   4.510  14.692  0.1218 -0.1880 -0.0670
 2502DOPC   C1B29359  29.232   4.411  15.290 -0.2981 -0.0355 -0.1935
 2502DOPC   D2B29360  29.423   4.612  14.952 -0.4365  0.0550  0.2113
 2502DOPC   C3B29361  29.523   5.071  14.790  0.1278 -0.0567  0.0884
 2502DOPC   C4B29362  29.492   5.434  14.491 -0.1933  0.2621 -0.1553
 2503DOPS   CNO29363  30.448   8.384  16.160 -0.0348  0.0585  0.0043
 2503DOPS   PO429364  30.671   8.125  15.988 -0.1056  0.0309  0.3550
 2503DOPS   GL129365  30.662   8.109  15.561  0.0213  0.1368 -0.1834
 2503DOPS   GL229366  30.596   7.820  15.576  0.1155 -0.1231  0.0365
 2503DOPS   C1A29367  30.530   8.273  15.164  0.0266 -0.0975 -0.1084
 2503DOPS   D2A29368  30.602   8.447  14.692 -0.2747 -0.0304  0.2787
 2503DOPS   C3A29369  30.957   8.667  14.573  0.0067 -0.0248 -0.0307
 2503DOPS   C4A29370  31.088   8.973  14.204 -0.1051 -0.1408 -0.0369
 2503DOPS   C1B29371  30.277   7.707  15.299 -0.1705  0.0566 -0.0939
 2503DOPS   D2B29372  29.951   7.918  15.027  0.0072 -0.2052 -0.1241
 2503DOPS   C3B29373  30.049   8.381  14.879 -0.0584  0.3043 -0.1745
 2503DOPS   C4B29374  30.000   8.676  14.447 -0.0785 -0.0629  0.2188
 2504POSM   NC329375   0.183   0.984  16.083 -0.2872 -0.1400 -0.2807
 2504POSM   PO429376   0.481   0.938  16.382  0.0317 -0.2320  0.1080
 2504POSM   AM129377   0.584   0.777  16.128  0.0441 -0.3242  0.1856
 2504POSM   AM229378   0.552   0.519  16.010  0.0681 -0.1560  0.1250
 2504POSM   T1A29379   0.765   0.748  15.661 -0.3246 -0.2664 -0.0128
 2504POSM   C2A29380   0.632   0.522  15.292 -0.0469  0.0550  0.0378
 2504POSM   C3A29381   0.749   0.311  14.899  0.2018  0.2076 -0.1414
 2504POSM   C1B29382   0.327   0.405  15.830 -0.0549 -0.3978  0.0813
 2504POSM   D2B29383  -0.008   0.366  15.613 -0.0482 -0.0932 -0.1928
 2504POSM   C3B29384  -0.094   0.609  15.234  0.2628 -0.0067 -0.0100
 2504POSM   C4B29385  -0.200   0.840  14.812  0.1748 -0.0355 -0.0421
 2505DOPS   CNO29386  28.006   5.366  16.257  0.1688  0.0443 -0.3086
 2505DOPS   PO429387  28.136   5.055  16.088 -0.2153 -0.1813 -0.1812
 2505DOPS   GL129388  28.001   4.954  15.759 -0.0225  0.0402 -0.2974
 2505DOPS   GL229389  28.178   4.937  15.499  0.0314  0.1482 -0.0948
 2505DOPS   C1A29390  27.747   4.698  15.475  0.1951 -0.2638  0.2253
 2505DOPS   D2A29391  27.738   4.686  15.013  0.0585 -0.0707  0.0186
 2505DOPS   C3A29392  27.471   4.872  14.706  0.2750 -0.2434 -0.2408
 2505DOPS   C4A29393  27.431   5.015  14.299 -0.1596  0.0591 -0.1273
 2505DOPS   C1B29394  28.213   4.929  15.012 -0.1304  0.0600  0.3133
 2505DOPS   D2B29395  27.926   4.961  14.614 -0.1234  0.0350 -0.2412
 2505DOPS   C3B29396  27.814   4.557  14.455 -0.1583 -0.0700  0.0229
 2505DOPS   C4B29397  27.720   4.185  14.221  0.1157  0.1489 -0.1182
 2506DOPS   CNO29398  23.782   2.933  15.207  0.2731  0.3364  0.0714
 2506DOPS   PO429399  23.769   3.297  15.343 -0.0856 -0.0013  0.4836
 2506DOPS   GL129400  23.693   3.320  14.923 -0.1638 -0.0346  0.0256
 2506DOPS   GL229401  23.981   3.432  14.911 -0.2315 -0.1983  0.2177
 2506DOPS   C1A29402  23.785   3.066  14.560 -0.4488  0.0975  0.3098
 2506DOPS   D2A29403  23.598   2.756  14.325 -0.0215  0.1910 -0.0056
 2506DOPS   C3A29404  23.509   2.460  14.007 -0.1757 -0.0461 -0.4481
 2506DOPS   C4A29405  23.677   2.494  13.562 -0.0391  0.1345 -0.1223
 2506DOPS   C1B29406  23.957   3.626  14.509  0.1096 -0.1724  0.3511
 2506DOPS   D2B29407  24.042   3.433  14.062  0.2066  0.0739 -0.0467
 2506DOPS   C3B29408  23.735   3.128  13.986  0.0396  0.2643  0.0609
 2506DOPS   C4B29409  23.386   2.912  13.852 -0.2065 -0.2613  0.0099
 2507DOPE   NH329410  26.407   4.723  16.051 -0.2771  0.0393  0.2995
 2507DOPE   PO429411  26.132   4.526  15.984  0.1074  0.1227  0.3789
 2507DOPE   GL129412  26.413   4.328  15.748 -0.0186 -0.3581 -0.3372
 2507DOPE   GL229413  26.200   4.233  15.585  0.3691  0.0861  0.0843
 2507DOPE   C1A29414  26.731   4.313  15.404 -0.4670  0.1257 -0.2096
 2507DOPE   D2A29415  26.872   4.324  14.977  0.0657 -0.2280 -0.3679
 2507DOPE   C3A29416  26.971   4.593  14.597 -0.0786 -0.0582 -0.0996
 2507DOPE   C4A29417  27.299   4.496  14.238 -0.1168  0.0874  0.1677
 2507DOPE   C1B29418  25.771   4.053  15.446 -0.1542  0.1863  0.0187
 2507DOPE   D2B29419  25.387   3.826  15.255  0.1504 -0.0040  0.1396
 2507DOPE   C3B29420  25.652   3.617  14.999 -0.1989  0.0061 -0.2932
 2507DOPE   C4B29421  25.801   3.434  14.619  0.0072 -0.1261  0.2438
 2508DOPE   NH329422  32.007   0.666  16.186 -0.1676  0.3570 -0.1168
 2508DOPE   PO429423  31.706   0.780  16.048  0.1142  0.0755  0.1091
 2508DOPE   GL129424  31.451   1.020  15.854  0.0532  0.1112 -0.2927
 2508DOPE   GL229425  31.621   1.239  15.848 -0.1554 -0.1895 -0.2819
 2508DOPE   C1A29426  31.618   1.023  15.421 -0.0542  0.0411  0.3637
 2508DOPE   D2A29427  31.548   1.090  14.959 -0.1243 -0.3175  0.0559
 2508DOPE   C3A29428  31.804   1.331  14.655 -0.2522 -0.0315 -0.1128
 2508DOPE   C4A29429  31.939   1.461  14.176  0.2835 -0.3502  0.1174
 2508DOPE   C1B29430  32.002   1.508  15.930  0.3987  0.1773 -0.0592
 2508DOPE   D2B29431  32.133   1.947  15.775 -0.1149  0.2540 -0.0023
 2508DOPE   C3B29432  32.039   2.105  15.315 -0.0974 -0.1787  0.1090
 2508DOPE   C4B29433  32.108   2.235  14.868  0.0753 -0.1408  0.0781
 2509DOPE   NH329434  31.008   9.717  16.593 -0.0962  0.1215  0.1581
 2509DOPE   PO429435  31.181  10.025  16.555  0.4153 -0.1923 -0.3678
 2509DOPE   GL129436  31.147  10.095  16.175 -0.3867 -0.0932  0.3247
 2509DOPE   GL229437  30.951  10.305  16.105  0.2183 -0.0811 -0.0795
 2509DOPE   C1A29438  31.112  10.085  15.695 -0.3384 -0.0949 -0.1959
 2509DOPE   D2A29439  31.274  10.062  15.249  0.0163  0.1130  0.2011
 2509DOPE   C3A29440  31.226  10.152  14.790 -0.1608  0.2873  0.0297
 2509DOPE   C4A29441  30.893  10.036  14.484 -0.2677  0.1473 -0.2819
 2509DOPE   C1B29442  30.601  10.363  15.789 -0.1990  0.0445  0.0712
 2509DOPE   D2B29443  30.466  10.138  15.401 -0.0918 -0.1862 -0.0410
 2509DOPE   C3B29444  30.228   9.804  15.246 -0.2446  0.1700  0.4222
 2509DOPE   C4B29445  29.857   9.599  15.406 -0.2375 -0.1457 -0.0503
 2510DOPC   NC329446  28.322   7.372  16.201  0.2102  0.1162 -0.5214
 2510DOPC   PO429447  27.943   7.229  16.234  0.3410  0.2346 -0.0770
 2510DOPC   GL129448  28.067   6.967  15.859  0.3589 -0.2333 -0.1454
 2510DOPC   GL229449  27.835   7.123  15.693  0.0853  0.0829 -0.3734
 2510DOPC   C1A29450  27.916   6.613  15.620  0.2679 -0.1258 -0.0767
 2510DOPC   D2A29451  27.867   6.398  15.158 -0.1235 -0.0552  0.1601
 2510DOPC   C3A29452  28.005   6.421  14.759 -0.4360  0.1215 -0.1785
 2510DOPC   C4A29453  28.021   6.380  14.320 -0.0356  0.0493  0.2752
 2510DOPC   C1B29454  27.920   7.421  15.362 -0.3540  0.0772 -0.2795
 2510DOPC   D2B29455  28.087   7.481  14.973 -0.2060  0.2523 -0.1539
 2510DOPC   C3B29456  28.287   7.594  14.599 -0.3543  0.0856  0.1407
 2510DOPC   C4B29457  28.618   7.507  14.296 -0.2860  0.1933 -0.0043
 2511DOPC   NC329458  34.384   3.742  16.246  0.2133 -0.0386 -0.1420
 2511DOPC   PO429459  34.554   4.056  16.066  0.1305 -0.1733 -0.1352
 2511DOPC   GL129460  34.337   3.970  15.628  0.2584  0.1137 -0.3123
 2511DOPC   GL229461  34.253   3.690  15.695 -0.0945 -0.2958 -0.2449
 2511DOPC   C1A29462  34.191   4.287  15.340  0.2040 -0.0930  0.0914
 2511DOPC   D2A29463  34.400   4.213  14.911 -0.2063  0.4449 -0.1235
 2511DOPC   C3A29464  34.429   4.029  14.497 -0.1257  0.2862 -0.0634
 2511DOPC   C4A29465  34.377   3.752  14.176  0.0648 -0.1563 -0.3345
 2511DOPC   C1B29466  34.711   3.633  15.618  0.0482 -0.1147  0.2267
 2511DOPC   D2B29467  35.095   3.708  15.484 -0.2489 -0.0167 -0.1283
 2511DOPC   C3B29468  35.307   3.925  15.154 -0.0372  0.1240  0.0390
 2511DOPC   C4B29469  35.670   3.997  14.885 -0.3341 -0.0537  0.1835
 2512POSM   NC329470  27.034   4.930  16.323 -0.0481 -0.2102 -0.2106
 2512POSM   PO429471  26.811   5.114  16.059  0.3389  0.0203  0.1839
 2512POSM   AM129472  26.761   5.238  15.708  0.1135  0.4978  0.0938
 2512POSM   AM229473  26.529   5.263  15.567 -0.1684  0.4402  0.1654
 2512POSM   T1A29474  26.834   5.497  15.297 -0.1965 -0.4020  0.0787
 2512POSM   C2A29475  26.935   5.904  15.090 -0.2426  0.1606  0.0140
 2512POSM   C3A29476  27.033   6.117  14.723 -0.0599 -0.0594  0.0007
 2512POSM   C1B29477  26.493   5.137  15.268 -0.2970  0.1373  0.2053
 2512POSM   D2B29478  26.655   4.806  14.972 -0.2535 -0.3311 -0.1327
 2512POSM   C3B29479  26.396   4.718  14.603  0.2106  0.0608 -0.1775
 2512POSM   C4B29480  26.257   5.026  14.292 -0.1549 -0.1366 -0.0967
 2513POSM   NC329481  25.635   9.917  15.453  0.2383  0.0763  0.3036
 2513POSM   PO429482  25.269   9.841  15.669  0.1309 -0.0202  0.0385
 2513POSM   AM129483  25.187   9.736  15.354  0.0344 -0.0142 -0.0019
 2513POSM   AM229484  25.314   9.741  15.101 -0.3657 -0.2539 -0.2928
 2513POSM   T1A29485  24.878   9.452  15.110 -0.0812 -0.1520  0.0181
 2513POSM   C2A29486  24.606   9.112  14.974 -0.0941 -0.0207 -0.0298
 2513POSM   C3A29487  24.549   8.673  14.829 -0.2816  0.0816  0.1391
 2513POSM   C1B29488  25.140   9.815  14.834  0.3534 -0.2896 -0.3778
 2513POSM   D2B29489  25.111   9.721  14.393 -0.3041 -0.0987  0.0604
 2513POSM   C3B29490  25.331   9.759  13.984  0.1289 -0.0207 -0.0219
 2513POSM   C4B29491  25.499   9.694  13.614 -0.2547  0.3427 -0.0347
 2514DOPE   NH329492  25.823   2.826  15.962  0.2857  0.2167  0.1763
 2514DOPE   PO429493  25.601   3.020  15.801 -0.1705  0.1442  0.0068
 2514DOPE   GL129494  25.748   3.100  15.474 -0.3832 -0.2242  0.0712
 2514DOPE   GL229495  25.540   3.148  15.282  0.1425 -0.1090 -0.0441
 2514DOPE   C1A29496  26.013   3.326  15.151 -0.0881 -0.0894  0.1082
 2514DOPE   D2A29497  26.272   3.492  14.789  0.2146  0.1931 -0.2657
 2514DOPE   C3A29498  26.255   3.326  14.333 -0.2175 -0.3121 -0.0402
 2514DOPE   C4A29499  26.235   3.130  13.917  0.1554 -0.0602  0.2116
 2514DOPE   C1B29500  25.803   2.898  15.027 -0.1615 -0.2900  0.1057
 2514DOPE   D2B29501  25.960   2.661  14.678  0.1019  0.0768  0.1007
 2514DOPE   C3B29502  25.867   3.021  14.375  0.0045 -0.0539  0.0874
 2514DOPE   C4B29503  25.755   3.211  14.006 -0.2239 -0.0228  0.1819
 2515DOPE   NH329504  24.191   4.202  15.717  0.0128  0.0164  0.1592
 2515DOPE   PO429505  24.371   3.962  15.656 -0.1656 -0.1071  0.0759
 2515DOPE   GL129506  24.558   4.130  15.431  0.0216  0.3707 -0.1481
 2515DOPE   GL229507  24.346   4.098  15.146  0.0056 -0.0396 -0.0755
 2515DOPE   C1A29508  24.847   4.096  15.064  0.2519  0.0726 -0.2251
 2515DOPE   D2A29509  25.005   4.065  14.635  0.0037  0.0574  0.3054
 2515DOPE   C3A29510  25.247   4.048  14.266  0.2664  0.1791  0.0313
 2515DOPE   C4A29511  25.666   4.131  14.087  0.0887  0.1173  0.0663
 2515DOPE   C1B29512  24.575   4.381  14.826 -0.1847 -0.0355  0.0587
 2515DOPE   D2B29513  24.596   4.325  14.379 -0.0317 -0.0684  0.1054
 2515DOPE   C3B29514  24.262   3.959  14.278  0.2792  0.1529  0.1683
 2515DOPE   C4B29515  23.941   3.952  13.918 -0.0870 -0.0143  0.2272
 2516DOPE   NH329516  28.503  11.414  16.397  0.0953  0.2046 -0.2719
 2516DOPE   PO429517  28.287  11.482  16.171 -0.1441 -0.1803  0.0363
 2516DOPE   GL129518  28.229  11.407  15.757  0.1315 -0.0762  0.3280
 2516DOPE   GL229519  28.254  11.706  15.715 -0.0012  0.1518 -0.2468
 2516DOPE   C1A29520  28.628  11.472  15.498  0.1880  0.0599 -0.2368
 2516DOPE   D2A29521  28.811  11.690  15.117 -0.0422 -0.0918  0.0966
 2516DOPE   C3A29522  28.680  12.115  15.079 -0.0447  0.2759  0.0211
 2516DOPE   C4A29523  28.314  12.353  14.986 -0.0763 -0.2469  0.2434
 2516DOPE   C1B29524  28.258  11.966  15.319 -0.2201 -0.1906  0.0493
 2516DOPE   D2B29525  28.327  11.778  14.903  0.1169  0.1651  0.3139
 2516DOPE   C3B29526  28.561  12.074  14.637 -0.1885  0.2980 -0.0791
 2516DOPE   C4B29527  28.397  12.427  14.430  0.0298  0.0880 -0.0163
 2517DOPC   NC329528  24.176   1.302  15.689 -0.2015 -0.3283 -0.1066
 2517DOPC   PO429529  23.814   1.102  15.632  0.1152  0.0104  0.0148
 2517DOPC   GL129530  23.777   0.885  15.289  0.1353  0.1556  0.0793
 2517DOPC   GL229531  24.068   0.968  15.203  0.1822  0.0987  0.3512
 2517DOPC   C1A29532  23.622   1.029  14.859 -0.3312 -0.2534  0.1437
 2517DOPC   D2A29533  23.581   1.241  14.426  0.1245 -0.1866  0.0986
 2517DOPC   C3A29534  23.372   1.372  13.979  0.0403  0.1517 -0.1484
 2517DOPC   C4A29535  23.038   1.546  13.726 -0.1607  0.1287 -0.1108
 2517DOPC   C1B29536  24.037   0.619  14.914  0.2299  0.3480 -0.0897
 2517DOPC   D2B29537  24.086   0.453  14.509  0.0204  0.1425  0.0608
 2517DOPC   C3B29538  23.965   0.483  14.063 -0.0338 -0.2655 -0.0967
 2517DOPC   C4B29539  23.804   0.548  13.617 -0.2331 -0.2425 -0.1216
 2518DOPC   NC329540  23.724   6.420  15.453 -0.1539 -0.1879 -0.1429
 2518DOPC   PO429541  23.749   6.016  15.473 -0.1285  0.1024  0.2356
 2518DOPC   GL129542  23.831   6.014  15.077 -0.0304 -0.0318 -0.0870
 2518DOPC   GL229543  24.061   6.194  15.115 -0.2595  0.2058  0.1402
 2518DOPC   C1A29544  24.145   5.908  14.697 -0.0666  0.0067  0.1185
 2518DOPC   D2A29545  24.294   5.695  14.228 -0.2473 -0.0380 -0.1506
 2518DOPC   C3A29546  24.599   5.869  13.922  0.0165 -0.1676  0.3222
 2518DOPC   C4A29547  24.649   5.999  13.493  0.1591  0.1093  0.1436
 2518DOPC   C1B29548  24.087   6.427  14.693 -0.1792 -0.0895 -0.1441
 2518DOPC   D2B29549  24.217   6.233  14.275  0.1895 -0.1142 -0.2132
 2518DOPC   C3B29550  24.308   6.269  13.883  0.4810 -0.3091  0.0482
 2518DOPC   C4B29551  24.240   6.595  13.477 -0.2594  0.0541 -0.0670
 2519POSM   NC329552  28.266   1.758  16.727  0.0331 -0.0299 -0.1532
 2519POSM   PO429553  28.550   1.796  16.408 -0.2308 -0.2728  0.0255
 2519POSM   AM129554  28.537   1.854  16.086  0.2722 -0.3012 -0.4523
 2519POSM   AM229555  28.626   1.690  15.877  0.1138 -0.4695  0.0454
 2519POSM   T1A29556  28.191   1.988  15.793 -0.0464  0.0123  0.0132
 2519POSM   C2A29557  27.840   2.221  15.576 -0.3219 -0.1811 -0.4425
 2519POSM   C3A29558  27.632   2.155  15.153 -0.0605  0.0131 -0.1213
 2519POSM   C1B29559  28.575   1.690  15.561  0.0091 -0.2216  0.0912
 2519POSM   D2B29560  28.247   1.654  15.233  0.0847  0.2932  0.1465
 2519POSM   C3B29561  28.104   1.964  14.996 -0.2328 -0.2610  0.0659
 2519POSM   C4B29562  27.992   2.082  14.566  0.0151 -0.3743 -0.1368
 2520DOPC   NC329563  25.325  10.287  15.877  0.0097 -0.3182 -0.1100
 2520DOPC   PO429564  25.228  10.621  15.647  0.0314  0.0869  0.0216
 2520DOPC   GL129565  25.450  10.627  15.287  0.2271 -0.1555 -0.2419
 2520DOPC   GL229566  25.697  10.800  15.323  0.0608  0.2834  0.0465
 2520DOPC   C1A29567  25.305  10.720  14.839 -0.1777  0.1938  0.0216
 2520DOPC   D2A29568  25.295  11.171  14.605  0.2328  0.0864  0.2008
 2520DOPC   C3A29569  25.353  11.580  14.800 -0.2839 -0.1678 -0.1407
 2520DOPC   C4A29570  25.062  11.726  15.151 -0.3119 -0.2958  0.1974
 2520DOPC   C1B29571  25.828  10.578  14.915  0.1794 -0.0190 -0.1316
 2520DOPC   D2B29572  25.878  10.378  14.457 -0.1643  0.2476 -0.0335
 2520DOPC   C3B29573  26.281  10.245  14.230 -0.3405 -0.0864 -0.1900
 2520DOPC   C4B29574  26.367  10.426  13.831 -0.0329  0.1587  0.1211
 2521DOPE   NH329575  31.092   2.880  16.014 -0.1441 -0.0513 -0.0477
 2521DOPE   PO429576  31.228   2.585  16.108  0.2160  0.2108 -0.0128
 2521DOPE   GL129577  31.225   2.483  15.770  0.1016  0.0463  0.3688
 2521DOPE   GL229578  31.298   2.654  15.506 -0.2465 -0.0671  0.1252
 2521DOPE   C1A29579  31.158   2.057  15.543 -0.0031 -0.2794 -0.1834
 2521DOPE   D2A29580  31.050   1.890  15.058 -0.1510 -0.0458 -0.5408
 2521DOPE   C3A29581  31.220   2.162  14.742  0.0039  0.2037 -0.0723
 2521DOPE   C4A29582  31.229   2.202  14.257  0.2991 -0.0745  0.2262
 2521DOPE   C1B29583  31.074   2.433  15.154 -0.0354 -0.2185  0.2879
 2521DOPE   D2B29584  30.774   2.364  14.786  0.3342  0.1519  0.4136
 2521DOPE   C3B29585  30.773   2.382  14.335  0.1332 -0.0286  0.1386
 2521DOPE   C4B29586  30.671   2.356  13.915 -0.0172  0.0048 -0.3778
 2522DOPC   NC329587  26.156   6.516  15.958  0.2043 -0.1862 -0.2045
 2522DOPC   PO429588  26.173   6.836  16.193 -0.1614 -0.0888  0.1469
 2522DOPC   GL129589  26.195   6.909  15.726  0.2252  0.3000 -0.0196
 2522DOPC   GL229590  26.502   6.829  15.692  0.1260  0.3127 -0.0925
 2522DOPC   C1A29591  26.057   6.619  15.405  0.2353  0.1281  0.0298
 2522DOPC   D2A29592  25.831   6.362  15.130  0.2709 -0.0804  0.0703
 2522DOPC   C3A29593  25.469   6.482  14.872 -0.0054 -0.0676  0.0113
 2522DOPC   C4A29594  25.020   6.568  14.737 -0.0744 -0.0541  0.3143
 2522DOPC   C1B29595  26.577   7.213  15.442 -0.3304  0.0200  0.2556
 2522DOPC   D2B29596  26.580   7.658  15.547  0.5171  0.0329  0.3292
 2522DOPC   C3B29597  26.676   7.983  15.256 -0.1199 -0.2325  0.0301
 2522DOPC   C4B29598  26.653   7.977  14.815 -0.3923  0.0645 -0.2691
 2523DOPE   NH329599  23.566   8.483  15.428  0.0135 -0.1654 -0.1007
 2523DOPE   PO429600  23.712   8.714  15.338 -0.1864 -0.1230  0.1550
 2523DOPE   GL129601  23.731   8.929  14.981  0.0524  0.0312 -0.5420
 2523DOPE   GL229602  23.467   9.026  14.893 -0.2184  0.2399 -0.1158
 2523DOPE   C1A29603  23.740   8.866  14.526 -0.4322 -0.1360  0.1883
 2523DOPE   D2A29604  23.887   8.707  14.079 -0.1595  0.4085 -0.1395
 2523DOPE   C3A29605  23.989   8.887  13.708 -0.2300  0.2125 -0.2517
 2523DOPE   C4A29606  23.843   9.212  13.411  0.0659 -0.0407 -0.4339
 2523DOPE   C1B29607  23.512   9.314  14.563  0.2517  0.0558  0.1401
 2523DOPE   D2B29608  23.711   9.619  14.248 -0.3626  0.0604 -0.2575
 2523DOPE   C3B29609  23.868   9.518  13.869 -0.1125  0.1511 -0.0239
 2523DOPE   C4B29610  24.131   9.593  13.474 -0.2657 -0.1896 -0.0147
 2524DOPE   NH329611  32.279   0.843  16.609 -0.0982  0.0300  0.2748
 2524DOPE   PO429612  32.059   1.076  16.596  0.1226 -0.0784  0.0057
 2524DOPE   GL129613  32.192   1.261  16.262  0.4548 -0.0992 -0.0662
 2524DOPE   GL229614  32.197   1.081  16.035 -0.0896 -0.0544  0.2273
 2524DOPE   C1A29615  32.500   1.487  15.964 -0.2463 -0.2837  0.1111
 2524DOPE   D2A29616  32.814   1.364  15.692  0.0287  0.1072  0.0357
 2524DOPE   C3A29617  32.654   1.158  15.282 -0.3313  0.0297 -0.2794
 2524DOPE   C4A29618  32.715   0.936  14.923  0.1454 -0.1533 -0.2401
 2524DOPE   C1B29619  32.228   1.153  15.602  0.3413 -0.0205  0.0698
 2524DOPE   D2B29620  32.051   1.306  15.139  0.0393 -0.1080  0.0382
 2524DOPE   C3B29621  32.408   1.267  14.774 -0.1078  0.2026 -0.1427
 2524DOPE   C4B29622  32.433   1.474  14.345 -0.3640 -0.3949 -0.2449
 2525DOPC   NC329623  26.325   2.576  15.915  0.1842  0.0899 -0.1791
 2525DOPC   PO429624  26.326   2.960  16.024  0.0199 -0.0185 -0.0715
 2525DOPC   GL129625  26.532   3.156  15.604  0.2266  0.2361 -0.0214
 2525DOPC   GL229626  26.290   3.430  15.562 -0.2910 -0.0373 -0.2093
 2525DOPC   C1A29627  26.538   3.096  15.175 -0.1310 -0.3704 -0.0434
 2525DOPC   D2A29628  26.317   3.015  14.814  0.0560  0.1046  0.1621
 2525DOPC   C3A29629  26.529   2.914  14.336  0.0113  0.0982  0.1933
 2525DOPC   C4A29630  26.719   2.604  14.030  0.0386  0.0783  0.1415
 2525DOPC   C1B29631  26.625   3.566  15.196 -0.3466  0.0749  0.3030
 2525DOPC   D2B29632  26.706   3.896  14.922  0.2513 -0.0487 -0.0329
 2525DOPC   C3B29633  26.634   3.721  14.463  0.0539 -0.1519  0.0061
 2525DOPC   C4B29634  26.639   3.505  14.062 -0.2537  0.1851 -0.1120
 2526DOPC   NC329635  27.660   4.665  16.074 -0.0517 -0.3168 -0.1675
 2526DOPC   PO429636  27.390   4.368  16.107  0.0231  0.0490  0.0843
 2526DOPC   GL129637  27.443   4.487  15.698 -0.4404  0.3026 -0.3376
 2526DOPC   GL229638  27.213   4.435  15.649 -0.0450 -0.0805  0.1898
 2526DOPC   C1A29639  27.640   4.232  15.274 -0.2732 -0.0572  0.0128
 2526DOPC   D2A29640  27.707   3.864  14.983  0.1212  0.0949 -0.0716
 2526DOPC   C3A29641  28.005   4.023  14.661 -0.0217 -0.3132  0.0298
 2526DOPC   C4A29642  28.235   4.042  14.278 -0.3473  0.0872  0.0229
 2526DOPC   C1B29643  27.260   4.481  15.203  0.4558  0.0057 -0.0062
 2526DOPC   D2B29644  27.450   4.410  14.758  0.0981  0.0768  0.0543
 2526DOPC   C3B29645  27.357   4.043  14.469 -0.1449 -0.2148  0.1367
 2526DOPC   C4B29646  27.131   3.729  14.241  0.1831 -0.2303  0.0692
 2527DOPC   NC329647  33.649   8.701  15.647 -0.0259  0.2583 -0.1693
 2527DOPC   PO429648  33.867   8.922  15.850 -0.3233 -0.1811 -0.2080
 2527DOPC   GL129649  34.137   8.794  15.603  0.0946 -0.0039  0.4772
 2527DOPC   GL229650  34.391   8.796  15.504  0.1037 -0.1701 -0.0199
 2527DOPC   C1A29651  33.935   8.650  15.174  0.1978  0.2167 -0.3584
 2527DOPC   D2A29652  34.168   8.518  14.758  0.1985  0.0331  0.1918
 2527DOPC   C3A29653  34.018   8.482  14.321  0.2291  0.0457 -0.1679
 2527DOPC   C4A29654  34.222   8.125  14.220 -0.0453  0.1704 -0.2388
 2527DOPC   C1B29655  34.611   8.944  15.108  0.0163  0.0788  0.3058
 2527DOPC   D2B29656  34.638   8.825  14.643  0.1286 -0.0459 -0.2506
 2527DOPC   C3B29657  34.416   8.767  14.226 -0.2843  0.2795 -0.1529
 2527DOPC   C4B29658  34.452   8.491  13.849 -0.1313 -0.0463 -0.0127
 2528DOPC   NC329659  23.254   1.191  15.810 -0.1297 -0.2584  0.0378
 2528DOPC   PO429660  23.533   1.478  15.757  0.1136 -0.0536 -0.2492
 2528DOPC   GL129661  23.386   1.503  15.346 -0.4397 -0.2180 -0.1155
 2528DOPC   GL229662  23.495   1.253  15.310 -0.1685 -0.4079  0.1950
 2528DOPC   C1A29663  23.394   1.477  14.894 -0.0359  0.1496  0.0371
 2528DOPC   D2A29664  23.119   1.272  14.604  0.2612 -0.0337  0.3384
 2528DOPC   C3A29665  22.886   0.987  14.346 -0.0306 -0.1425  0.2661
 2528DOPC   C4A29666  22.489   0.796  14.354 -0.1673 -0.2443  0.2478
 2528DOPC   C1B29667  23.108   0.950  15.139  0.0244 -0.0425  0.1001
 2528DOPC   D2B29668  22.872   0.758  14.852  0.0070 -0.0357 -0.0700
 2528DOPC   C3B29669  22.581   1.133  14.809 -0.1866  0.1615  0.1123
 2528DOPC   C4B29670  22.631   1.472  14.530 -0.3845  0.2704  0.0753
 2529DOPC   NC329671  29.071   3.451  16.102 -0.0525  0.1786  0.2070
 2529DOPC   PO429672  29.329   3.247  16.301 -0.2449 -0.0888  0.0143
 2529DOPC   GL129673  29.388   3.074  15.908 -0.0707 -0.2047 -0.3523
 2529DOPC   GL229674  29.101   2.993  15.846 -0.1376  0.2444  0.1444
 2529DOPC   C1A29675  29.611   3.286  15.528  0.3835  0.1177  0.2142
 2529DOPC   D2A29676  29.378   3.481  15.189 -0.0365  0.1148  0.0557
 2529DOPC   C3A29677  29.668   3.552  14.801 -0.3306  0.0633 -0.1118
 2529DOPC   C4A29678  29.695   3.867  14.435  0.1024 -0.3361  0.0181
 2529DOPC   C1B29679  29.086   3.122  15.441 -0.3321 -0.1118  0.1117
 2529DOPC   D2B29680  28.961   3.039  14.997  0.2200  0.2137 -0.1240
 2529DOPC   C3B29681  29.063   3.378  14.776  0.2844  0.1781  0.1209
 2529DOPC   C4B29682  29.248   3.834  14.694  0.0231  0.0770  0.0328
 2530DOPE   NH329683  31.907   6.229  16.281  0.1813  0.2207  0.2745
 2530DOPE   PO429684  32.146   6.410  16.377 -0.0406 -0.1406  0.1401
 2530DOPE   GL129685  32.362   6.536  16.051 -0.2722  0.0795 -0.1398
 2530DOPE   GL229686  32.226   6.730  15.862  0.2246 -0.1826  0.2846
 2530DOPE   C1A29687  32.708   6.410  15.810 -0.0130  0.1938 -0.0447
 2530DOPE   D2A29688  33.009   6.166  15.634 -0.0146 -0.1246  0.2445
 2530DOPE   C3A29689  33.192   6.301  15.238 -0.0371 -0.1413  0.0768
 2530DOPE   C4A29690  33.533   6.578  15.372  0.1373 -0.0855 -0.1311
 2530DOPE   C1B29691  32.192   6.867  15.433  0.0796 -0.2057 -0.0254
 2530DOPE   D2B29692  32.369   6.717  15.011  0.0500  0.0175  0.0913
 2530DOPE   C3B29693  32.319   6.936  14.603  0.1327  0.1248  0.0410
 2530DOPE   C4B29694  32.131   7.230  14.268 -0.1511 -0.1074 -0.0934
 2531DOPE   NH329695  31.544   5.991  16.053 -0.0910 -0.0324  0.1684
 2531DOPE   PO429696  31.864   5.834  15.925  0.0508 -0.1444  0.0032
 2531DOPE   GL129697  31.881   5.941  15.540 -0.1614 -0.0371  0.1111
 2531DOPE   GL229698  31.589   6.104  15.545  0.0319  0.0194 -0.0790
 2531DOPE   C1A29699  32.136   5.752  15.193  0.2655 -0.0625 -0.2343
 2531DOPE   D2A29700  32.438   5.884  14.805  0.3456  0.1470  0.0686
 2531DOPE   C3A29701  32.784   6.257  14.786  0.2622  0.0411  0.0508
 2531DOPE   C4A29702  32.745   6.687  14.669 -0.0129 -0.2208 -0.1775
 2531DOPE   C1B29703  31.788   6.144  15.127 -0.2073  0.1609  0.0919
 2531DOPE   D2B29704  31.901   6.350  14.694  0.3702 -0.0518  0.0046
 2531DOPE   C3B29705  32.329   6.292  14.503  0.2712 -0.1103  0.0202
 2531DOPE   C4B29706  32.705   6.089  14.324  0.1363  0.0151 -0.2987
 2532POSM   NC329707  27.826   8.842  15.826  0.0339 -0.2548  0.1870
 2532POSM   PO429708  28.150   8.669  16.010 -0.0229 -0.2110 -0.2439
 2532POSM   AM129709  28.436   8.824  15.906  0.2477 -0.1018 -0.1660
 2532POSM   AM229710  28.620   9.075  15.826 -0.1060 -0.0383 -0.0166
 2532POSM   T1A29711  28.871   8.648  15.849 -0.1301 -0.0465  0.0759
 2532POSM   C2A29712  29.212   8.336  15.689 -0.0547 -0.1003  0.1102
 2532POSM   C3A29713  29.536   8.200  15.390 -0.0509 -0.1497  0.0500
 2532POSM   C1B29714  28.761   9.112  15.522 -0.0079 -0.0927  0.0246
 2532POSM   D2B29715  28.991   9.138  15.131  0.0317 -0.0670  0.0027
 2532POSM   C3B29716  28.736   8.932  14.804 -0.2705  0.2229 -0.0613
 2532POSM   C4B29717  28.911   8.896  14.391  0.1301 -0.0242 -0.1000
 2533DOPC   NC329718  30.800  34.635  16.121  0.1040 -0.2473 -0.1037
 2533DOPC   PO429719  30.526  34.920  16.111  0.1366 -0.0214  0.0248
 2533DOPC   GL129720  30.385  34.962  15.735 -0.0518 -0.2497 -0.0647
 2533DOPC   GL229721  30.499  34.725  15.582 -0.2595  0.2410  0.0444
 2533DOPC   C1A29722  30.311  35.163  15.318 -0.0785  0.1090  0.0414
 2533DOPC   D2A29723  30.352  35.132  14.860  0.1477  0.2722  0.1761
 2533DOPC   C3A29724  30.429  34.955  14.429  0.1917 -0.1489  0.1148
 2533DOPC   C4A29725  30.211  34.852  13.963 -0.1575  0.3140 -0.1619
 2533DOPC   C1B29726  30.587  34.760  15.133  0.4117 -0.1576 -0.2041
 2533DOPC   D2B29727  30.713  34.652  14.706  0.0670  0.1196 -0.0259
 2533DOPC   C3B29728  31.183  34.524  14.697 -0.1764 -0.0107  0.2376
 2533DOPC   C4B29729  31.684  34.417  14.721 -0.1023 -0.1282  0.1423
 2534POSM   NC329730  26.969   1.513  16.541  0.1447 -0.0664 -0.0831
 2534POSM   PO429731  26.783   1.816  16.346 -0.0428 -0.1594 -0.0344
 2534POSM   AM129732  26.803   1.685  16.045 -0.0414 -0.1654 -0.0011
 2534POSM   AM229733  27.067   1.516  15.952  0.1964  0.0619 -0.0638
 2534POSM   T1A29734  26.587   1.721  15.646  0.2312 -0.0093  0.1514
 2534POSM   C2A29735  26.656   1.655  15.176 -0.0367 -0.4046 -0.0733
 2534POSM   C3A29736  26.657   1.997  14.841  0.1595 -0.1968 -0.1014
 2534POSM   C1B29737  26.854   1.335  15.699  0.2483 -0.4111 -0.4031
 2534POSM   D2B29738  26.675   1.138  15.323 -0.0591 -0.1190 -0.0757
 2534POSM   C3B29739  26.343   1.318  15.095  0.3524  0.0359  0.0985
 2534POSM   C4B29740  26.323   1.277  14.632  0.0146  0.0038 -0.1907
 2535POSM   NC329741  24.394  10.005  15.808 -0.1335  0.3042  0.2269
 2535POSM   PO429742  24.238  10.227  15.496  0.0616  0.1601  0.0790
 2535POSM   AM129743  24.117  10.302  15.181 -0.3869 -0.2045  0.0286
 2535POSM   AM229744  24.329  10.268  14.977  0.1938 -0.1508  0.4694
 2535POSM   T1A29745  23.999  10.731  15.017  0.1085  0.0868 -0.1964
 2535POSM   C2A29746  23.794  11.127  15.128  0.4516  0.1866 -0.1504
 2535POSM   C3A29747  23.387  11.270  15.041  0.2810 -0.0993  0.1755
 2535POSM   C1B29748  24.203  10.255  14.677 -0.0454  0.2505  0.2920
 2535POSM   D2B29749  24.136  10.459  14.269 -0.1372  0.0163  0.1868
 2535POSM   C3B29750  24.398  10.361  13.903  0.0268  0.0999 -0.0055
 2535POSM   C4B29751  24.288  10.362  13.427  0.0266  0.3108 -0.0090
 2536DOPS   CNO29752  28.840   7.513  16.465 -0.0060 -0.2519  0.1965
 2536DOPS   PO429753  28.826   7.443  16.086 -0.1923  0.2308 -0.2357
 2536DOPS   GL129754  28.992   7.323  15.759 -0.3083  0.1868 -0.1196
 2536DOPS   GL229755  29.138   7.143  15.835  0.3043 -0.2721  0.2423
 2536DOPS   C1A29756  28.693   7.140  15.334  0.2942 -0.1704  0.3237
 2536DOPS   D2A29757  28.902   6.878  14.999  0.1733  0.0953  0.0238
 2536DOPS   C3A29758  28.871   6.734  14.620 -0.0170  0.0203  0.0758
 2536DOPS   C4A29759  29.118   6.725  14.213  0.1387  0.1631 -0.1177
 2536DOPS   C1B29760  28.997   6.797  15.504 -0.1494 -0.2234 -0.1364
 2536DOPS   D2B29761  28.709   6.542  15.346  0.0496 -0.3760  0.2039
 2536DOPS   C3B29762  28.442   6.669  15.023 -0.3103 -0.4209 -0.2228
 2536DOPS   C4B29763  28.451   7.105  14.918 -0.0117 -0.1335  0.2449
 2537DOPC   NC329764  26.658   8.207  16.179 -0.2688 -0.2348 -0.2897
 2537DOPC   PO429765  26.411   8.518  16.098 -0.1998 -0.4400  0.0028
 2537DOPC   GL129766  26.308   8.498  15.725 -0.1573 -0.1028 -0.3651
 2537DOPC   GL229767  26.453   8.368  15.505 -0.2918 -0.0023  0.4416
 2537DOPC   C1A29768  26.011   8.576  15.377  0.0401  0.1230 -0.2694
 2537DOPC   D2A29769  26.118   8.760  15.000  0.4721  0.4150  0.0840
 2537DOPC   C3A29770  26.018   9.180  14.932 -0.0001 -0.3299 -0.0175
 2537DOPC   C4A29771  26.095   9.582  14.770 -0.0420 -0.2545 -0.1589
 2537DOPC   C1B29772  26.622   8.530  15.138  0.2490  0.3922 -0.1934
 2537DOPC   D2B29773  26.534   8.721  14.714 -0.0017 -0.1511  0.1113
 2537DOPC   C3B29774  26.772   8.846  14.321  0.1120  0.1111  0.2355
 2537DOPC   C4B29775  27.037   9.231  14.298  0.0150  0.0619 -0.0111
 2538DOPE   NH329776  27.470   7.307  16.070  0.0113  0.0147 -0.2173
 2538DOPE   PO429777  27.441   7.539  16.304  0.0825 -0.0772  0.1811
 2538DOPE   GL129778  27.650   7.701  15.914  0.1282  0.0930 -0.1439
 2538DOPE   GL229779  27.892   7.622  15.822 -0.0418 -0.1121  0.0909
 2538DOPE   C1A29780  27.536   7.751  15.418 -0.2127  0.0732 -0.0139
 2538DOPE   D2A29781  27.681   7.770  15.005 -0.2064 -0.0260  0.0948
 2538DOPE   C3A29782  27.738   7.730  14.593 -0.0312 -0.0225  0.0203
 2538DOPE   C4A29783  27.780   7.923  14.158 -0.4608  0.1194  0.2066
 2538DOPE   C1B29784  28.048   7.898  15.504  0.1423  0.3250 -0.0563
 2538DOPE   D2B29785  28.101   8.121  15.041  0.0082  0.3093  0.0727
 2538DOPE   C3B29786  28.236   8.067  14.581  0.0294  0.0768 -0.0326
 2538DOPE   C4B29787  28.436   8.167  14.158 -0.0463  0.2014 -0.3780
 2539DOPE   NH329788  28.210   0.948  16.262  0.1593  0.2144 -0.1009
 2539DOPE   PO429789  28.516   1.001  16.185  0.0535  0.2048  0.1596
 2539DOPE   GL129790  28.424   1.153  15.802  0.2879 -0.0151 -0.1976
 2539DOPE   GL229791  28.468   1.177  15.479  0.4082  0.1376  0.0995
 2539DOPE   C1A29792  28.084   1.493  15.761  0.1236  0.0575 -0.3727
 2539DOPE   D2A29793  27.792   1.759  15.489 -0.2212  0.2459 -0.0626
 2539DOPE   C3A29794  27.606   1.646  15.051  0.0175  0.0362  0.1870
 2539DOPE   C4A29795  27.725   1.594  14.617 -0.0106  0.1463  0.2230
 2539DOPE   C1B29796  28.571   1.285  15.040 -0.0332 -0.1519 -0.0265
 2539DOPE   D2B29797  28.774   1.471  14.628  0.0697  0.2036 -0.0243
 2539DOPE   C3B29798  28.801   1.801  14.308  0.0993 -0.0183  0.3104
 2539DOPE   C4B29799  28.781   2.284  14.277  0.1131 -0.1253  0.1589
 2540DOPC   NC329800  30.178   3.501  16.423 -0.0988  0.0628  0.5423
 2540DOPC   PO429801  29.864   3.610  16.251  0.0065 -0.2818 -0.0520
 2540DOPC   GL129802  29.724   3.407  16.019  0.0654 -0.1375 -0.1391
 2540DOPC   GL229803  29.549   3.567  15.881  0.2267  0.2443 -0.0182
 2540DOPC   C1A29804  29.904   3.013  15.862  0.0017  0.0525  0.3483
 2540DOPC   D2A29805  30.141   2.957  15.454 -0.0127 -0.1255 -0.5106
 2540DOPC   C3A29806  29.906   2.646  15.182  0.2905  0.0000 -0.0671
 2540DOPC   C4A29807  29.706   2.322  14.920  0.2133 -0.3028 -0.3051
 2540DOPC   C1B29808  29.691   3.776  15.484 -0.0957  0.2971  0.0243
 2540DOPC   D2B29809  29.397   3.985  15.143  0.2314  0.1729  0.2117
 2540DOPC   C3B29810  29.650   4.221  14.798  0.0471  0.1782  0.3924
 2540DOPC   C4B29811  29.735   4.573  14.526 -0.0364 -0.1078 -0.0203
 2541POSM   NC329812  31.613   8.963  16.305 -0.2735 -0.3171  0.4777
 2541POSM   PO429813  31.305   8.726  16.294 -0.1330  0.0356  0.3575
 2541POSM   AM129814  31.319   8.817  15.958  0.2349 -0.1009  0.1017
 2541POSM   AM229815  31.500   8.788  15.757 -0.2597  0.2660 -0.3147
 2541POSM   T1A29816  31.140   8.993  15.525  0.0661 -0.3051 -0.2500
 2541POSM   C2A29817  31.000   9.137  15.102  0.1017 -0.1073 -0.0224
 2541POSM   C3A29818  30.798   9.081  14.704 -0.1151 -0.1271  0.2500
 2541POSM   C1B29819  31.349   8.574  15.524  0.0506  0.1755 -0.3140
 2541POSM   D2B29820  31.166   8.649  15.130 -0.0688 -0.2800 -0.0347
 2541POSM   C3B29821  30.725   8.721  15.090 -0.1374  0.0579 -0.0756
 2541POSM   C4B29822  30.378   8.887  14.915 -0.0381  0.0368  0.0420
 2542POSM   NC329823  26.135  10.305  15.687 -0.2093 -0.1012 -0.0407
 2542POSM   PO429824  25.762  10.436  15.600  0.0008  0.0570  0.1120
 2542POSM   AM129825  25.752  10.321  15.312  0.3792 -0.3787 -0.0929
 2542POSM   AM229826  25.934  10.162  15.107  0.0734  0.1006 -0.2679
 2542POSM   T1A29827  25.460  10.192  14.910 -0.1566  0.3477  0.0177
 2542POSM   C2A29828  25.257  10.265  14.563  0.2267  0.2260  0.4950
 2542POSM   C3A29829  25.156  10.287  14.177  0.3169 -0.1567 -0.0608
 2542POSM   C1B29830  25.892  10.021  14.816  0.0594  0.1532 -0.0146
 2542POSM   D2B29831  25.597   9.907  14.456 -0.0173  0.1601  0.1060
 2542POSM   C3B29832  25.793   9.751  14.102 -0.1425 -0.1866  0.1442
 2542POSM   C4B29833  26.125   9.960  13.813 -0.1605  0.2541 -0.2585
 2543DOPC   NC329834  32.030   9.821  16.085  0.2570 -0.1160  0.1010
 2543DOPC   PO429835  32.371   9.804  15.933  0.0952  0.2816 -0.1219
 2543DOPC   GL129836  32.336   9.871  15.619  0.3131  0.2947 -0.1380
 2543DOPC   GL229837  32.178  10.157  15.620 -0.1735  0.2092 -0.3087
 2543DOPC   C1A29838  32.266  10.069  15.161  0.2411  0.1634  0.3554
 2543DOPC   D2A29839  32.185  10.010  14.705  0.2319  0.0100 -0.0005
 2543DOPC   C3A29840  31.979   9.880  14.275  0.0332 -0.1823  0.0516
 2543DOPC   C4A29841  32.119   9.905  13.864  0.0944 -0.3421  0.0629
 2543DOPC   C1B29842  31.930  10.471  15.256 -0.2568 -0.0925  0.2110
 2543DOPC   D2B29843  31.996  10.748  14.818 -0.1359  0.0448 -0.2389
 2543DOPC   C3B29844  31.541  10.895  14.839  0.0670 -0.4183 -0.0017
 2543DOPC   C4B29845  31.236  11.030  14.530  0.0765  0.1406 -0.0104
 2544DOPS   CNO29846  29.138   6.805  16.345  0.1693  0.3382 -0.1405
 2544DOPS   PO429847  28.753   6.941  16.351  0.2171 -0.1248 -0.0113
 2544DOPS   GL129848  28.546   7.066  15.986  0.2969  0.2703  0.1691
 2544DOPS   GL229849  28.587   6.821  15.738  0.2294 -0.3459 -0.2596
 2544DOPS   C1A29850  28.374   7.370  15.656 -0.2276  0.1122  0.1732
 2544DOPS   D2A29851  28.450   7.713  15.286 -0.1695  0.2086 -0.0176
 2544DOPS   C3A29852  28.603   7.967  14.929 -0.1125  0.0087 -0.3353
 2544DOPS   C4A29853  28.701   7.947  14.498  0.5883  0.0457  0.0016
 2544DOPS   C1B29854  28.231   6.986  15.404  0.1360  0.0708 -0.2197
 2544DOPS   D2B29855  27.924   6.975  15.078  0.1361 -0.0817 -0.2750
 2544DOPS   C3B29856  27.556   6.849  15.351  0.1802  0.2090 -0.2249
 2544DOPS   C4B29857  27.399   6.696  15.753  0.1338 -0.2160 -0.0158
 2545DOPE   NH329858  34.260   5.467  15.917 -0.0111  0.2527  0.2876
 2545DOPE   PO429859  34.020   5.293  15.905 -0.0256  0.1768  0.0524
 2545DOPE   GL129860  33.820   5.260  15.500 -0.0038  0.1755  0.0863
 2545DOPE   GL229861  33.504   5.279  15.569  0.1015 -0.0932  0.2246
 2545DOPE   C1A29862  33.846   5.248  15.048 -0.1447 -0.1360  0.0042
 2545DOPE   D2A29863  33.684   5.346  14.673  0.1889 -0.1041  0.1624
 2545DOPE   C3A29864  33.440   5.550  14.331 -0.4065 -0.0907  0.1117
 2545DOPE   C4A29865  33.258   5.929  14.146 -0.1030 -0.0714  0.1263
 2545DOPE   C1B29866  33.304   5.161  15.125 -0.0131 -0.0475 -0.0426
 2545DOPE   D2B29867  33.236   5.131  14.657  0.0651  0.5656 -0.1992
 2545DOPE   C3B29868  32.956   5.325  14.362  0.0678 -0.0199  0.0870
 2545DOPE   C4B29869  32.616   5.623  14.379 -0.3014 -0.0626  0.1257
 2546DOPS   CNO29870  28.049   9.113  16.286  0.2280  0.1202 -0.2642
 2546DOPS   PO429871  28.157   9.201  15.984 -0.0777  0.0562 -0.0052
 2546DOPS   GL129872  28.173   9.257  15.611  0.0334  0.0133 -0.4198
 2546DOPS   GL229873  28.173   9.019  15.543 -0.3291  0.0518  0.3045
 2546DOPS   C1A29874  28.352   9.301  15.142  0.0779  0.0669 -0.1928
 2546DOPS   D2A29875  28.541   9.503  14.790  0.1391  0.0239 -0.1534
 2546DOPS   C3A29876  28.255   9.568  14.430 -0.3309 -0.0355  0.2169
 2546DOPS   C4A29877  28.011   9.608  14.109 -0.0438 -0.0650  0.1880
 2546DOPS   C1B29878  28.494   8.847  15.202 -0.0774 -0.0877 -0.1215
 2546DOPS   D2B29879  28.670   8.458  14.989 -0.0359 -0.0220  0.0083
 2546DOPS   C3B29880  28.620   8.480  14.527  0.0879 -0.1992 -0.2368
 2546DOPS   C4B29881  28.522   8.685  14.135  0.0789  0.0468  0.1343
 2547DOPS   CNO29882  25.223   1.772  15.752 -0.0427  0.4757  0.3712
 2547DOPS   PO429883  25.358   1.798  15.415 -0.1963  0.2528 -0.2949
 2547DOPS   GL129884  25.283   1.597  15.089 -0.3490  0.2745 -0.3300
 2547DOPS   GL229885  25.464   1.404  15.000  0.1413 -0.2650 -0.1644
 2547DOPS   C1A29886  25.077   1.535  14.680 -0.0182  0.1701  0.1729
 2547DOPS   D2A29887  25.159   1.639  14.251 -0.4081  0.2155  0.0356
 2547DOPS   C3A29888  24.921   1.378  13.951  0.4180 -0.1941  0.3101
 2547DOPS   C4A29889  24.950   1.106  13.580 -0.1651 -0.1552 -0.0549
 2547DOPS   C1B29890  25.840   1.554  14.810 -0.0925 -0.0816  0.0147
 2547DOPS   D2B29891  26.282   1.767  14.713  0.0123  0.0813 -0.0176
 2547DOPS   C3B29892  26.651   1.632  14.425  0.1120 -0.1168  0.2239
 2547DOPS   C4B29893  27.065   1.742  14.321 -0.0218 -0.0730  0.0074
 2548POSM   NC329894  25.341   7.040  16.164 -0.2436 -0.4223  0.0719
 2548POSM   PO429895  25.399   7.275  15.850  0.0037 -0.0666 -0.0678
 2548POSM   AM129896  25.321   7.439  15.576  0.0944 -0.0643  0.1752
 2548POSM   AM229897  25.089   7.472  15.388  0.0730 -0.2861  0.2518
 2548POSM   T1A29898  25.558   7.526  15.143  0.0659 -0.3080  0.0654
 2548POSM   C2A29899  25.765   7.855  14.929 -0.1368  0.1020  0.3288
 2548POSM   C3A29900  25.802   8.361  15.006  0.2305  0.2129 -0.3209
 2548POSM   C1B29901  25.077   7.445  15.072 -0.0212  0.0669 -0.0400
 2548POSM   D2B29902  25.382   7.583  14.672 -0.2394 -0.1634 -0.1449
 2548POSM   C3B29903  25.863   7.586  14.537  0.2428 -0.2815  0.1186
 2548POSM   C4B29904  26.234   7.874  14.650  0.0320 -0.0695 -0.0330
 2549POSM   NC329905  31.255   5.245  15.819  0.0431  0.0608  0.1046
 2549POSM   PO429906  31.495   5.497  15.933 -0.1987  0.0894 -0.1404
 2549POSM   AM129907  31.526   5.595  15.621  0.0151 -0.1327  0.2516
 2549POSM   AM229908  31.730   5.510  15.392  0.2439 -0.2470  0.2399
 2549POSM   T1A29909  31.323   5.878  15.242 -0.1440 -0.0959 -0.0168
 2549POSM   C2A29910  31.339   6.063  14.858 -0.2768  0.0283 -0.2007
 2549POSM   C3A29911  31.039   6.247  14.548 -0.4291 -0.0613  0.0428
 2549POSM   C1B29912  31.685   5.599  15.062 -0.0802  0.3752  0.1262
 2549POSM   D2B29913  31.872   5.858  14.730 -0.0010  0.2119 -0.3943
 2549POSM   C3B29914  32.136   5.781  14.395 -0.1286 -0.3022 -0.0584
 2549POSM   C4B29915  32.300   5.982  14.020  0.0984 -0.0490 -0.1056
 2550DOPC   NC329916  25.516   2.149  16.164 -0.0191  0.1456 -0.0704
 2550DOPC   PO429917  25.870   2.300  16.025 -0.0222  0.3030  0.0823
 2550DOPC   GL129918  25.939   2.467  15.644 -0.1104 -0.0042  0.3164
 2550DOPC   GL229919  26.069   2.782  15.513  0.2036  0.0190  0.0729
 2550DOPC   C1A29920  25.842   2.214  15.275  0.1256  0.1350 -0.1928
 2550DOPC   D2A29921  25.645   1.942  15.009  0.1304 -0.0193  0.2058
 2550DOPC   C3A29922  25.437   1.915  14.602 -0.1993 -0.3846  0.1479
 2550DOPC   C4A29923  25.592   1.874  14.168 -0.2842 -0.0232  0.0224
 2550DOPC   C1B29924  26.287   2.584  15.115  0.0354 -0.2063 -0.2895
 2550DOPC   D2B29925  26.270   2.284  14.731 -0.2173 -0.1180  0.6232
 2550DOPC   C3B29926  26.319   2.419  14.313 -0.1691  0.1236  0.0654
 2550DOPC   C4B29927  26.286   2.342  13.851  0.1912 -0.2720 -0.1856
 2551POSM   NC329928  28.218  10.094  16.582 -0.0953 -0.0049 -0.2479
 2551POSM   PO429929  27.828  10.235  16.519 -0.2027  0.1964  0.0741
 2551POSM   AM129930  27.969  10.221  16.211 -0.0192  0.1976 -0.0657
 2551POSM   AM229931  28.188  10.138  16.000  0.1784 -0.2642 -0.1290
 2551POSM   T1A29932  27.917  10.469  15.773  0.4821 -0.2092 -0.0432
 2551POSM   C2A29933  28.131  10.603  15.356 -0.0876 -0.1843  0.2288
 2551POSM   C3A29934  28.095  11.025  15.169  0.0725  0.0474  0.1882
 2551POSM   C1B29935  28.216  10.075  15.645 -0.0817  0.1962 -0.0985
 2551POSM   D2B29936  28.479   9.963  15.216  0.0383 -0.0976  0.1824
 2551POSM   C3B29937  28.894  10.114  15.076  0.0169 -0.0288  0.2150
 2551POSM   C4B29938  29.241  10.396  14.953 -0.1278 -0.5250 -0.0448
 2552DOPC   NC329939  30.289   6.119  16.163  0.0625 -0.1162  0.0428
 2552DOPC   PO429940  30.374   6.466  16.015  0.0165  0.0641 -0.0501
 2552DOPC   GL129941  30.571   6.276  15.700 -0.3755  0.3645 -0.1471
 2552DOPC   GL229942  30.557   6.534  15.484  0.1287 -0.1204  0.2083
 2552DOPC   C1A29943  30.320   6.128  15.307  0.3811  0.2253 -0.2182
 2552DOPC   D2A29944  30.048   6.186  14.901 -0.3947 -0.3049 -0.1212
 2552DOPC   C3A29945  30.133   5.898  14.561  0.1695  0.2687 -0.1973
 2552DOPC   C4A29946  30.459   5.621  14.467  0.2745  0.0318 -0.1967
 2552DOPC   C1B29947  30.404   6.609  15.059  0.1093 -0.0642  0.3005
 2552DOPC   D2B29948  30.414   6.494  14.600 -0.1651  0.1602 -0.0262
 2552DOPC   C3B29949  30.514   6.585  14.132  0.3260  0.2522  0.1258
 2552DOPC   C4B29950  30.394   6.807  13.773  0.0660 -0.0046 -0.0834
 2553POSM   NC329951  30.466   4.988  16.258  0.0472 -0.0118  0.1714
 2553POSM   PO429952  30.393   5.396  16.283 -0.0619 -0.1560 -0.0096
 2553POSM   AM129953  30.484   5.329  15.954  0.1549 -0.3097  0.2306
 2553POSM   AM229954  30.613   5.524  15.751  0.2155  0.0174  0.3669
 2553POSM   T1A29955  30.469   5.060  15.559  0.2711 -0.1900  0.2192
 2553POSM   C2A29956  30.617   4.790  15.176  0.1501  0.0556 -0.0910
 2553POSM   C3A29957  30.414   4.981  14.836 -0.1069  0.0607 -0.1844
 2553POSM   C1B29958  30.340   5.598  15.563 -0.1840 -0.2138  0.2930
 2553POSM   D2B29959  29.935   5.770  15.324 -0.0393 -0.0574  0.1872
 2553POSM   C3B29960  29.731   5.701  14.897 -0.3589  0.0165  0.1563
 2553POSM   C4B29961  29.588   5.905  14.495  0.3433 -0.1240 -0.2806
 2554POSM   NC329962  31.563   1.728  16.755  0.1947 -0.1753  0.1617
 2554POSM   PO429963  31.286   1.640  16.434  0.1435 -0.0200  0.0579
 2554POSM   AM129964  31.333   1.593  16.089 -0.1485 -0.0467  0.3332
 2554POSM   AM229965  31.163   1.462  15.907 -0.1741  0.1317  0.1544
 2554POSM   T1A29966  31.546   1.749  15.649 -0.0651  0.4539  0.1126
 2554POSM   C2A29967  31.887   1.695  15.411 -0.1436 -0.0319 -0.2350
 2554POSM   C3A29968  32.323   1.614  15.401  0.2070  0.2454  0.2016
 2554POSM   C1B29969  31.210   1.428  15.590 -0.0242  0.0975  0.1169
 2554POSM   D2B29970  31.452   1.529  15.233 -0.1794  0.2554 -0.0287
 2554POSM   C3B29971  31.308   1.446  14.765 -0.2059 -0.1049 -0.3234
 2554POSM   C4B29972  31.119   1.273  14.419 -0.0445  0.1252 -0.1298
 2555DOPC   NC329973  24.332   3.554  16.029 -0.0625 -0.1312 -0.0119
 2555DOPC   PO429974  24.332   3.398  15.678  0.1933 -0.0633 -0.3963
 2555DOPC   GL129975  24.616   3.482  15.412  0.0472  0.0022 -0.1320
 2555DOPC   GL229976  24.449   3.562  15.170 -0.1878  0.2119  0.1797
 2555DOPC   C1A29977  25.040   3.344  15.260  0.3810  0.0325 -0.1092
 2555DOPC   D2A29978  25.237   3.307  14.864  0.1115 -0.1271  0.3425
 2555DOPC   C3A29979  25.063   3.582  14.529  0.3813 -0.0864 -0.0877
 2555DOPC   C4A29980  25.045   3.422  14.081  0.3091 -0.1395 -0.0987
 2555DOPC   C1B29981  24.705   3.251  14.918  0.1353  0.1194 -0.2527
 2555DOPC   D2B29982  24.866   3.033  14.552 -0.0817  0.0242  0.1759
 2555DOPC   C3B29983  24.794   3.024  14.168  0.0864  0.2709  0.0404
 2555DOPC   C4B29984  24.918   2.971  13.700  0.2288 -0.0877 -0.1973
 2556DOPE   NH329985  24.846   2.617  15.658 -0.0672 -0.1914  0.0324
 2556DOPE   PO429986  25.098   2.579  15.520 -0.2804  0.2813 -0.0554
 2556DOPE   GL129987  25.216   2.477  15.148 -0.2280  0.1482  0.1937
 2556DOPE   GL229988  25.207   2.200  15.106 -0.2700  0.1033 -0.0446
 2556DOPE   C1A29989  25.584   2.460  14.888  0.2094 -0.1726 -0.0446
 2556DOPE   D2A29990  25.618   2.362  14.421 -0.0993  0.1114 -0.0487
 2556DOPE   C3A29991  25.812   2.607  14.106 -0.2315 -0.0023 -0.0373
 2556DOPE   C4A29992  25.981   2.685  13.723  0.2177  0.1667  0.2737
 2556DOPE   C1B29993  25.140   2.433  14.693 -0.2323  0.0365 -0.1047
 2556DOPE   D2B29994  25.166   2.646  14.353 -0.1469 -0.1858 -0.0484
 2556DOPE   C3B29995  25.327   2.866  13.959 -0.0048 -0.1748  0.1071
 2556DOPE   C4B29996  25.367   2.711  13.599  0.2095  0.1049  0.1070
 2557DOPC   NC329997  23.657   4.261  15.065 -0.1479  0.0398  0.0871
 2557DOPC   PO429998  23.886   4.255  15.380  0.4550  0.0163 -0.3410
 2557DOPC   GL129999  24.102   4.509  15.202  0.1886 -0.1583  0.2748
 2557DOPC   GL230000  24.308   4.553  15.400  0.0800 -0.0117  0.0024
 2557DOPC   C1A30001  24.082   4.474  14.766 -0.2410  0.2505  0.3752
 2557DOPC   D2A30002  24.334   4.734  14.491  0.3832 -0.0162 -0.0204
 2557DOPC   C3A30003  24.271   4.867  14.029 -0.0324  0.0234 -0.0186
 2557DOPC   C4A30004  24.446   4.765  13.599  0.1667 -0.1599  0.0441
 2557DOPC   C1B30005  24.326   4.813  14.976  0.2175  0.1764 -0.2585
 2557DOPC   D2B30006  24.742   4.879  14.707  0.0086  0.2044  0.1190
 2557DOPC   C3B30007  24.912   5.278  14.592  0.0871 -0.3888 -0.3612
 2557DOPC   C4B30008  25.124   5.604  14.833 -0.0825  0.0416 -0.0326
 2558POSM   NC330009  31.445   7.439  15.951 -0.0200  0.1384 -0.1837
 2558POSM   PO430010  31.603   7.073  16.028 -0.2306  0.2400  0.0188
 2558POSM   AM130011  31.842   7.196  15.812 -0.0105 -0.0918  0.3619
 2558POSM   AM230012  31.985   7.451  15.746 -0.1169  0.1681 -0.2362
 2558POSM   T1A30013  32.388   7.214  15.845 -0.0438  0.2496 -0.0477
 2558POSM   C2A30014  32.747   7.222  15.559  0.1647 -0.1300  0.4829
 2558POSM   C3A30015  32.958   7.479  15.217 -0.0829  0.3197 -0.0422
 2558POSM   C1B30016  32.146   7.399  15.451  0.0176  0.0953 -0.2450
 2558POSM   D2B30017  32.416   7.282  15.088 -0.1490  0.2647  0.3061
 2558POSM   C3B30018  32.801   6.989  15.108  0.0996  0.0928  0.2084
 2558POSM   C4B30019  33.189   6.818  15.034  0.3369 -0.2300 -0.1092
 2559POSM   NC330020  24.029   9.888  15.132 -0.0458 -0.3928 -0.2292
 2559POSM   PO430021  24.106   9.679  15.461  0.1476  0.2815  0.0027
 2559POSM   AM130022  24.392   9.687  15.295  0.1910  0.0569  0.3295
 2559POSM   AM230023  24.369   9.549  14.994 -0.0180  0.0888 -0.0877
 2559POSM   T1A30024  24.796   9.975  15.105  0.0345  0.1012  0.0736
 2559POSM   C2A30025  24.811  10.360  14.832  0.0522  0.0583  0.1222
 2559POSM   C3A30026  24.600  10.462  14.421  0.0230 -0.0659 -0.0713
 2559POSM   C1B30027  24.362   9.742  14.752  0.1955  0.0685  0.1310
 2559POSM   D2B30028  24.655   9.993  14.509  0.1950  0.0134 -0.2030
 2559POSM   C3B30029  24.754  10.034  14.047  0.4063  0.0540 -0.0377
 2559POSM   C4B30030  24.578   9.918  13.594 -0.2751 -0.0071  0.3037
 2560POSM   NC330031  27.615   5.568  16.479 -0.0553 -0.1009 -0.0839
 2560POSM   PO430032  27.600   5.605  16.095  0.1565  0.1242 -0.1608
 2560POSM   AM130033  27.486   5.913  15.915  0.3330  0.2160  0.0224
 2560POSM   AM230034  27.176   5.999  15.878 -0.1334 -0.1799 -0.0075
 2560POSM   T1A30035  27.559   6.192  15.489  0.1956 -0.0625  0.0072
 2560POSM   C2A30036  27.435   6.085  15.091 -0.1392  0.2415  0.4176
 2560POSM   C3A30037  27.578   6.289  14.696  0.0151  0.1039 -0.0551
 2560POSM   C1B30038  26.892   5.918  15.654 -0.1554  0.0965  0.4275
 2560POSM   D2B30039  26.418   5.791  15.456  0.4552  0.0746 -0.3284
 2560POSM   C3B30040  26.305   6.117  15.164  0.0560  0.0563  0.1471
 2560POSM   C4B30041  26.066   6.177  14.716 -0.1570 -0.0219 -0.1625
 2561POSM   NC330042  26.002  10.870  15.728 -0.0696  0.0626 -0.1455
 2561POSM   PO430043  26.303  11.127  15.764  0.1789 -0.3930 -0.0169
 2561POSM   AM130044  26.339  11.090  15.396  0.1742 -0.1144  0.2384
 2561POSM   AM230045  26.533  10.983  15.235  0.1205 -0.1248  0.0034
 2561POSM   T1A30046  26.105  10.985  14.972 -0.0557  0.1131  0.0451
 2561POSM   C2A30047  25.829  10.944  14.573  0.1951 -0.0177 -0.1324
 2561POSM   C3A30048  25.568  10.912  14.176  0.2220 -0.1752  0.4519
 2561POSM   C1B30049  26.610  10.860  14.958  0.1187  0.1656 -0.1416
 2561POSM   D2B30050  26.842  10.753  14.614  0.1101  0.1751  0.4210
 2561POSM   C3B30051  27.111  10.995  14.282 -0.1314 -0.1057 -0.0743
 2561POSM   C4B30052  27.494  11.018  14.003 -0.1723 -0.3058 -0.2850
 2562DOPC   NC330053   0.675   7.698  15.524 -0.2593 -0.1806  0.3404
 2562DOPC   PO430054   0.442   7.682  15.834  0.2136 -0.0738 -0.0468
 2562DOPC   GL130055   0.194   7.633  15.575  0.2906 -0.2334 -0.0004
 2562DOPC   GL230056   0.254   7.335  15.531  0.1698 -0.0057  0.0850
 2562DOPC   C1A30057  -0.169   7.671  15.257  0.3285 -0.0505  0.0639
 2562DOPC   D2A30058  -0.488   7.527  15.052 -0.2210  0.2968  0.2775
 2562DOPC   C3A30059  -0.801   7.440  14.661 -0.0332  0.0318  0.0275
 2562DOPC   C4A30060  -1.129   7.371  14.366 -0.0939 -0.1251 -0.0909
 2562DOPC   C1B30061   0.053   7.308  15.145  0.2831 -0.3716 -0.0398
 2562DOPC   D2B30062  -0.118   7.309  14.695  0.0979  0.2486  0.1004
 2562DOPC   C3B30063   0.150   7.304  14.308 -0.1398  0.1524 -0.1607
 2562DOPC   C4B30064   0.249   7.586  13.955 -0.0520 -0.0471 -0.2415
 2563POSM   NC330065  34.338   7.738  16.588 -0.2015  0.0450 -0.2861
 2563POSM   PO430066  34.306   7.609  16.197 -0.0902  0.0119 -0.1366
 2563POSM   AM130067  34.136   7.565  15.902 -0.2418  0.1031 -0.0239
 2563POSM   AM230068  33.890   7.473  15.791 -0.1123  0.2200 -0.1552
 2563POSM   T1A30069  34.347   7.263  15.529 -0.0085  0.2230 -0.0496
 2563POSM   C2A30070  34.409   6.959  15.167 -0.0564 -0.0890 -0.2337
 2563POSM   C3A30071  34.469   6.614  14.854 -0.0451 -0.0515  0.0219
 2563POSM   C1B30072  33.763   7.413  15.496  0.2068 -0.1676  0.1147
 2563POSM   D2B30073  33.416   7.452  15.227  0.0924  0.0104 -0.0406
 2563POSM   C3B30074  33.507   7.201  14.834 -0.4304 -0.1545  0.2338
 2563POSM   C4B30075  33.269   6.936  14.461 -0.0579 -0.4558  0.1078
 2564DOPS   CNO30076  28.423   6.410  15.999 -0.1334 -0.0871  0.1168
 2564DOPS   PO430077  28.314   6.070  16.162 -0.1855 -0.2600  0.0417
 2564DOPS   GL130078  28.206   5.940  15.802 -0.0941  0.1991 -0.2504
 2564DOPS   GL230079  27.898   6.070  15.815 -0.1863  0.0824  0.1533
 2564DOPS   C1A30080  28.242   6.179  15.434 -0.0997  0.0564 -0.0608
 2564DOPS   D2A30081  28.406   6.122  14.960  0.0571  0.3246  0.3222
 2564DOPS   C3A30082  28.463   6.424  14.574 -0.0645 -0.1699  0.1073
 2564DOPS   C4A30083  28.393   6.864  14.470 -0.1962 -0.1217 -0.0599
 2564DOPS   C1B30084  27.825   5.815  15.423 -0.0323 -0.0308 -0.1455
 2564DOPS   D2B30085  27.892   5.827  14.949  0.2402 -0.0719  0.0286
 2564DOPS   C3B30086  28.036   5.941  14.510 -0.0941 -0.1461 -0.0751
 2564DOPS   C4B30087  27.875   5.840  14.079 -0.1160  0.0023  0.0394
 2565DOPS   CNO30088  24.238   6.881  15.800 -0.0139 -0.2125  0.3661
 2565DOPS   PO430089  23.902   6.910  15.590 -0.0157  0.2639 -0.2226
 2565DOPS   GL130090  24.191   6.853  15.285 -0.0174 -0.1552 -0.5117
 2565DOPS   GL230091  23.997   6.695  15.102  0.0790 -0.1991  0.0632
 2565DOPS   C1A30092  24.220   7.060  14.820  0.1872  0.1891 -0.0577
 2565DOPS   D2A30093  24.265   7.299  14.394  0.0799  0.0203 -0.2409
 2565DOPS   C3A30094  24.627   7.277  14.118 -0.2238 -0.0838 -0.0980
 2565DOPS   C4A30095  25.024   7.047  14.230  0.5255 -0.1240  0.0803
 2565DOPS   C1B30096  23.845   6.838  14.662 -0.1012 -0.1634 -0.0435
 2565DOPS   D2B30097  23.815   7.140  14.251  0.0238  0.1484  0.1382
 2565DOPS   C3B30098  23.617   7.003  13.835  0.0863 -0.2688 -0.1008
 2565DOPS   C4B30099  23.227   6.866  13.558  0.0713  0.2279 -0.0518
 2566DOPS   CNO30100  29.073   8.346  16.233  0.0017  0.2319  0.0417
 2566DOPS   PO430101  28.893   8.031  16.409 -0.5566  0.1387 -0.1446
 2566DOPS   GL130102  28.873   8.044  15.936 -0.0153 -0.4629  0.0111
 2566DOPS   GL230103  28.748   7.802  15.771 -0.2975  0.0524  0.0454
 2566DOPS   C1A30104  28.754   8.277  15.502  0.3872  0.1362  0.2535
 2566DOPS   D2A30105  29.059   8.131  15.190  0.2845  0.1130 -0.1301
 2566DOPS   C3A30106  29.482   8.168  14.894  0.2135 -0.1966 -0.0048
 2566DOPS   C4A30107  29.579   8.491  14.625 -0.1406  0.0052 -0.1930
 2566DOPS   C1B30108  28.951   7.635  15.376  0.0994 -0.1989 -0.3287
 2566DOPS   D2B30109  28.878   7.559  14.890  0.1068 -0.1101  0.2694
 2566DOPS   C3B30110  29.181   7.761  14.505  0.1897 -0.5141  0.1118
 2566DOPS   C4B30111  29.497   7.942  14.165 -0.3153  0.1831 -0.2690
 2567POSM   NC330112  31.167   3.648  16.303  0.1891  0.1376 -0.1983
 2567POSM   PO430113  31.250   3.294  16.202 -0.0861  0.1360 -0.2839
 2567POSM   AM130114  31.046   3.316  15.920  0.1899  0.0888  0.0651
 2567POSM   AM230115  31.029   3.205  15.660 -0.1126 -0.0268 -0.0014
 2567POSM   T1A30116  30.852   3.661  15.633 -0.1005  0.0866 -0.1037
 2567POSM   C2A30117  30.811   3.790  15.191 -0.0579 -0.0224  0.3126
 2567POSM   C3A30118  30.784   3.615  14.721  0.0457  0.0415 -0.0614
 2567POSM   C1B30119  30.993   3.187  15.331  0.3663 -0.1413  0.0543
 2567POSM   D2B30120  31.037   3.198  14.862 -0.3720  0.1287 -0.1198
 2567POSM   C3B30121  31.019   3.313  14.415 -0.2500  0.1007  0.1124
 2567POSM   C4B30122  31.077   3.240  14.000 -0.0335 -0.2772 -0.0536
 2568DOPE   NH330123  32.067  11.766  16.542 -0.0618 -0.2918 -0.3194
 2568DOPE   PO430124  31.782  11.930  16.453 -0.0301  0.0950  0.3278
 2568DOPE   GL130125  31.509  11.877  16.071  0.1667 -0.0560 -0.0929
 2568DOPE   GL230126  31.260  11.873  16.229  0.0306 -0.1450 -0.1609
 2568DOPE   C1A30127  31.217  11.762  15.675 -0.1490 -0.3378  0.0144
 2568DOPE   D2A30128  31.119  11.438  15.368  0.0960 -0.0224  0.3631
 2568DOPE   C3A30129  31.273  11.317  15.003 -0.1244  0.1450  0.0186
 2568DOPE   C4A30130  31.615  11.492  14.804  0.0932  0.4482 -0.0907
 2568DOPE   C1B30131  31.216  11.399  16.238  0.0507 -0.0820  0.0013
 2568DOPE   D2B30132  31.069  10.910  16.144 -0.2623 -0.1760 -0.0791
 2568DOPE   C3B30133  31.054  10.622  15.776 -0.1034 -0.2864 -0.3207
 2568DOPE   C4B30134  30.934  10.498  15.369 -0.0974 -0.0534 -0.1562
 2569POSM   NC330135  28.040   0.099  16.282  0.0556 -0.1759  0.0636
 2569POSM   PO430136  28.183   0.432  16.152  0.2087 -0.3386  0.0043
 2569POSM   AM130137  28.087   0.527  15.865  0.3048  0.0912  0.2160
 2569POSM   AM230138  27.945   0.755  15.812  0.2816  0.2012  0.1530
 2569POSM   T1A30139  27.771   0.334  15.472  0.4578  0.0991  0.2363
 2569POSM   C2A30140  27.454   0.113  15.239  0.0825 -0.1422 -0.0425
 2569POSM   C3A30141  27.226  -0.213  15.046  0.1209 -0.2379 -0.0478
 2569POSM   C1B30142  27.964   1.032  15.672 -0.0715 -0.0311  0.3422
 2569POSM   D2B30143  27.821   1.291  15.355  0.0734  0.0438  0.1161
 2569POSM   C3B30144  27.996   1.261  14.917 -0.0985  0.1878  0.4701
 2569POSM   C4B30145  27.937   1.173  14.431 -0.0260  0.0188  0.0899
 2570DOPS   CNO30146  30.564   7.379  16.372  0.1850  0.0152 -0.1595
 2570DOPS   PO430147  30.377   7.378  16.054  0.2758  0.1546  0.0818
 2570DOPS   GL130148  30.425   7.456  15.758  0.1161 -0.0668 -0.0207
 2570DOPS   GL230149  30.175   7.270  15.611  0.0346 -0.2095  0.0051
 2570DOPS   C1A30150  30.647   7.284  15.393 -0.0953  0.1261 -0.1647
 2570DOPS   D2A30151  30.686   7.167  14.965  0.2449  0.3184 -0.0547
 2570DOPS   C3A30152  30.341   7.471  14.838  0.1364  0.2061 -0.3315
 2570DOPS   C4A30153  30.204   7.769  14.614  0.1971  0.3394 -0.1733
 2570DOPS   C1B30154  30.244   7.063  15.194 -0.1188  0.1262  0.4005
 2570DOPS   D2B30155  30.153   6.999  14.766  0.3320 -0.0379 -0.1547
 2570DOPS   C3B30156  29.882   7.290  14.671  0.2671 -0.0926 -0.1178
 2570DOPS   C4B30157  29.735   7.490  14.302  0.0473 -0.0391 -0.0171
 2571POSM   NC330158  33.541   5.542  16.096 -0.0666  0.1387 -0.0380
 2571POSM   PO430159  33.523   5.150  16.201  0.1009  0.1236  0.3003
 2571POSM   AM130160  33.589   4.977  15.906  0.2049  0.1535  0.2211
 2571POSM   AM230161  33.770   4.817  15.739  0.1218 -0.3001  0.0178
 2571POSM   T1A30162  33.252   4.839  15.519 -0.0842 -0.0362  0.1892
 2571POSM   C2A30163  32.866   4.929  15.252  0.1049  0.1386  0.0425
 2571POSM   C3A30164  32.541   4.974  14.953 -0.0958  0.3499 -0.1632
 2571POSM   C1B30165  33.788   4.850  15.362 -0.0345  0.4057 -0.1888
 2571POSM   D2B30166  33.601   4.801  14.910 -0.0941 -0.0422 -0.1416
 2571POSM   C3B30167  33.546   4.401  14.770 -0.0437 -0.1071  0.0178
 2571POSM   C4B30168  33.798   4.046  14.468  0.0172 -0.1433 -0.0786
 2572POSM   NC330169  28.501   3.972  16.187 -0.0803 -0.0592  0.0015
 2572POSM   PO430170  28.568   3.603  16.232  0.1061 -0.1078  0.0573
 2572POSM   AM130171  28.658   3.492  15.934 -0.2790 -0.2554 -0.1579
 2572POSM   AM230172  28.660   3.242  15.916 -0.1500 -0.1591 -0.1574
 2572POSM   T1A30173  28.626   3.413  15.458  0.0047  0.3355 -0.3232
 2572POSM   C2A30174  28.541   3.313  15.007 -0.0758 -0.0579 -0.2498
 2572POSM   C3A30175  28.471   2.900  14.849  0.1556  0.2108  0.2838
 2572POSM   C1B30176  28.560   2.987  15.732  0.2650 -0.3116  0.0463
 2572POSM   D2B30177  28.440   2.826  15.355  0.0830  0.1571  0.0413
 2572POSM   C3B30178  28.081   3.026  15.234 -0.1403 -0.0029 -0.2423
 2572POSM   C4B30179  28.014   3.132  14.778  0.0042  0.1490  0.1103
 2573POSM   NC330180  25.445   7.744  16.072 -0.1454  0.1411  0.0831
 2573POSM   PO430181  25.085   7.792  15.885  0.0383  0.5243  0.2448
 2573POSM   AM130182  25.265   7.860  15.602 -0.1247 -0.3670 -0.0877
 2573POSM   AM230183  25.561   7.919  15.626 -0.3520  0.1395  0.2286
 2573POSM   T1A30184  25.287   7.983  15.152 -0.0952 -0.1931  0.1225
 2573POSM   C2A30185  25.397   8.081  14.714 -0.3562  0.0718 -0.2200
 2573POSM   C3A30186  25.535   8.541  14.606  0.1771  0.1893  0.3053
 2573POSM   C1B30187  25.772   8.155  15.471 -0.1116  0.0555  0.0325
 2573POSM   D2B30188  26.169   8.131  15.176  0.2129  0.0306 -0.1084
 2573POSM   C3B30189  26.283   8.359  14.807 -0.0036  0.1239 -0.2489
 2573POSM   C4B30190  25.996   8.649  14.540  0.0525  0.0708  0.0280
 2574DOPE   NH330191  34.445   8.514  15.921 -0.1246  0.1991  0.0655
 2574DOPE   PO430192  34.286   8.309  15.708  0.1623 -0.0612 -0.0195
 2574DOPE   GL130193  34.529   8.247  15.374 -0.1559  0.0128 -0.1082
 2574DOPE   GL230194  34.420   8.435  15.223  0.2402  0.1223  0.0978
 2574DOPE   C1A30195  34.761   8.118  14.956  0.2860  0.0049 -0.1668
 2574DOPE   D2A30196  34.558   8.319  14.561 -0.2730 -0.0965  0.1991
 2574DOPE   C3A30197  34.763   8.170  14.190  0.0668 -0.3935  0.3608
 2574DOPE   C4A30198  34.932   8.088  13.797 -0.2274  0.0782  0.1133
 2574DOPE   C1B30199  34.230   8.070  14.995 -0.0096 -0.0238 -0.2677
 2574DOPE   D2B30200  34.234   7.800  14.624  0.0823  0.0578 -0.1713
 2574DOPE   C3B30201  34.623   7.764  14.464 -0.2695 -0.0519 -0.1905
 2574DOPE   C4B30202  35.125   7.777  14.395  0.1880  0.3998 -0.1948
 2575DOPE   NH330203  24.210   7.386  15.542 -0.1877 -0.0987  0.1706
 2575DOPE   PO430204  24.494   7.280  15.508  0.2259  0.0258 -0.1650
 2575DOPE   GL130205  24.664   7.249  15.145  0.1024  0.0001 -0.2958
 2575DOPE   GL230206  24.765   7.001  15.089 -0.5582  0.2032 -0.0348
 2575DOPE   C1A30207  24.623   7.636  14.812 -0.0651  0.1997  0.1776
 2575DOPE   D2A30208  24.460   7.750  14.385 -0.0990  0.2579  0.1096
 2575DOPE   C3A30209  24.719   7.807  14.008 -0.1065  0.2805  0.0623
 2575DOPE   C4A30210  24.772   8.118  13.683  0.2366 -0.0435  0.0617
 2575DOPE   C1B30211  24.702   6.968  14.630 -0.0300  0.1181  0.2368
 2575DOPE   D2B30212  24.318   6.796  14.412  0.1425 -0.2307  0.6520
 2575DOPE   C3B30213  23.986   6.686  14.154  0.0087  0.0300  0.1465
 2575DOPE   C4B30214  23.794   6.563  13.757  0.0340 -0.2890  0.3191
 2576DOPS   CNO30215  34.227   1.166  16.665 -0.2375  0.0972  0.1989
 2576DOPS   PO430216  34.313   1.334  16.317  0.0930 -0.1729 -0.2274
 2576DOPS   GL130217  34.278   1.227  15.888 -0.0105  0.4735 -0.4313
 2576DOPS   GL230218  34.258   1.261  15.637 -0.0401  0.1110  0.3075
 2576DOPS   C1A30219  33.950   0.917  15.731  0.0253 -0.2513  0.1529
 2576DOPS   D2A30220  34.127   0.530  15.525  0.1199 -0.2489 -0.0865
 2576DOPS   C3A30221  33.907   0.133  15.630  0.1841  0.2842 -0.0960
 2576DOPS   C4A30222  33.444  -0.042  15.670 -0.1004  0.0026  0.1714
 2576DOPS   C1B30223  34.223   0.998  15.267 -0.2151  0.0462  0.0697
 2576DOPS   D2B30224  34.058   1.031  14.819  0.1316  0.0676 -0.1496
 2576DOPS   C3B30225  34.257   1.106  14.380 -0.2681 -0.0735 -0.2361
 2576DOPS   C4B30226  34.396   1.267  13.985 -0.0253  0.1048 -0.2046
 2577DOPS   CNO30227  23.405   4.101  15.576  0.1261  0.1908  0.0170
 2577DOPS   PO430228  23.265   4.354  15.351  0.0841  0.1972 -0.0733
 2577DOPS   GL130229  23.245   4.590  15.023  0.2011 -0.1320 -0.0442
 2577DOPS   GL230230  23.457   4.746  15.058  0.0212 -0.0267 -0.1917
 2577DOPS   C1A30231  23.349   4.311  14.666  0.0234 -0.0033 -0.1850
 2577DOPS   D2A30232  23.117   4.003  14.423 -0.2254  0.1235 -0.1289
 2577DOPS   C3A30233  22.762   4.160  14.213 -0.0874  0.0097  0.0989
 2577DOPS   C4A30234  22.662   4.296  13.763 -0.0673  0.2886  0.3061
 2577DOPS   C1B30235  23.225   4.859  14.659  0.1414  0.0185  0.3177
 2577DOPS   D2B30236  23.066   5.054  14.312  0.1486 -0.2460 -0.3411
 2577DOPS   C3B30237  23.100   4.925  13.885  0.4591  0.1321 -0.2287
 2577DOPS   C4B30238  23.439   4.823  13.609  0.1700  0.2566 -0.2349
 2578DOPE   NH330239  27.034   9.890  16.156 -0.0397  0.1033 -0.1273
 2578DOPE   PO430240  27.182   9.867  15.889  0.1574 -0.6534  0.0800
 2578DOPE   GL130241  27.099   9.482  15.671 -0.0811  0.2663 -0.4070
 2578DOPE   GL230242  26.930   9.272  15.856  0.0235  0.1323 -0.2284
 2578DOPE   C1A30243  27.140   9.361  15.249  0.0293  0.2126 -0.3228
 2578DOPE   D2A30244  27.141   9.489  14.839  0.1875 -0.1445  0.2381
 2578DOPE   C3A30245  26.817   9.658  14.484  0.0906 -0.2982  0.3249
 2578DOPE   C4A30246  26.658   9.540  14.086 -0.0303 -0.0574 -0.2399
 2578DOPE   C1B30247  26.784   9.023  15.521 -0.1846 -0.2260  0.2053
 2578DOPE   D2B30248  26.604   9.021  15.099  0.3080  0.0982 -0.1317
 2578DOPE   C3B30249  26.916   9.036  14.780 -0.1773  0.0800  0.0014
 2578DOPE   C4B30250  27.359   9.039  14.839 -0.2063 -0.0377 -0.1778
 2579DOPC   NC330251  27.539  10.461  16.140 -0.0637 -0.1872  0.0747
 2579DOPC   PO430252  27.139  10.372  16.122 -0.0006  0.1157  0.0830
 2579DOPC   GL130253  27.284  10.264  15.754 -0.2135  0.0286  0.2357
 2579DOPC   GL230254  27.566  10.137  15.803 -0.0309 -0.1149  0.0232
 2579DOPC   C1A30255  27.237  10.348  15.325  0.2779 -0.0275 -0.1468
 2579DOPC   D2A30256  27.321  10.461  14.903 -0.1259  0.0689  0.1333
 2579DOPC   C3A30257  27.416  10.691  14.574  0.0435 -0.2172 -0.0390
 2579DOPC   C4A30258  27.729  10.592  14.275  0.1238 -0.2633  0.2141
 2579DOPC   C1B30259  27.796  10.205  15.363 -0.3635  0.1241 -0.2054
 2579DOPC   D2B30260  28.077  10.149  15.018  0.0290 -0.1513  0.1402
 2579DOPC   C3B30261  28.389   9.977  14.710 -0.0773 -0.1126  0.0224
 2579DOPC   C4B30262  28.826   9.822  14.587  0.1923 -0.2123  0.0128
 2580DOPE   NH330263  29.379   8.596  16.585 -0.1121  0.0007  0.0848
 2580DOPE   PO430264  29.202   8.825  16.447 -0.0014 -0.0773 -0.1817
 2580DOPE   GL130265  29.380   9.125  16.174 -0.0772  0.6029 -0.0428
 2580DOPE   GL230266  29.180   9.113  15.953  0.3797 -0.0474  0.1189
 2580DOPE   C1A30267  29.631   9.210  15.790  0.2987 -0.0108  0.2410
 2580DOPE   D2A30268  30.075   9.132  15.530  0.0920  0.0567  0.0204
 2580DOPE   C3A30269  30.465   8.866  15.653 -0.0140 -0.1104  0.1871
 2580DOPE   C4A30270  30.729   8.537  15.552  0.1937 -0.3147  0.0981
 2580DOPE   C1B30271  29.260   8.990  15.505  0.0972  0.2300  0.0373
 2580DOPE   D2B30272  29.015   8.633  15.304 -0.1714  0.3268  0.1160
 2580DOPE   C3B30273  29.144   8.627  14.821 -0.0470  0.1763 -0.1749
 2580DOPE   C4B30274  29.172   8.347  14.420 -0.1555 -0.0662 -0.0182
 2581DOPC   NC330275  23.217   3.424  15.134 -0.1311 -0.1549 -0.1254
 2581DOPC   PO430276  22.953   3.474  15.447  0.2790  0.4685  0.0411
 2581DOPC   GL130277  22.715   3.392  15.220 -0.3791 -0.2471  0.2306
 2581DOPC   GL230278  22.730   3.631  15.009  0.0270  0.4028 -0.5703
 2581DOPC   C1A30279  22.581   3.146  14.854 -0.0539  0.1893 -0.1395
 2581DOPC   D2A30280  22.239   2.937  14.593  0.1698  0.4378  0.1878
 2581DOPC   C3A30281  22.032   3.041  14.191 -0.1508  0.0056 -0.1534
 2581DOPC   C4A30282  22.079   2.928  13.730  0.1409  0.1728  0.0112
 2581DOPC   C1B30283  22.840   3.621  14.550  0.0042  0.0729  0.3781
 2581DOPC   D2B30284  22.842   3.683  14.093  0.1224 -0.2522  0.4568
 2581DOPC   C3B30285  23.249   3.865  13.932 -0.1588 -0.3010 -0.0778
 2581DOPC   C4B30286  23.540   4.027  13.583  0.3687 -0.0067  0.0965
 2582DOPE   NH330287  33.036   4.421  16.478 -0.2528  0.1195  0.1221
 2582DOPE   PO430288  32.858   4.368  16.180 -0.1659 -0.0446 -0.1192
 2582DOPE   GL130289  32.765   4.290  15.742  0.1066 -0.1371  0.1219
 2582DOPE   GL230290  33.003   4.433  15.629  0.1043 -0.0130  0.1664
 2582DOPE   C1A30291  32.753   4.046  15.376  0.0835 -0.3532 -0.0198
 2582DOPE   D2A30292  32.927   4.193  14.926  0.0834 -0.1290  0.2182
 2582DOPE   C3A30293  32.762   3.839  14.650  0.0271  0.1123  0.1774
 2582DOPE   C4A30294  32.712   3.387  14.471 -0.0088 -0.1755 -0.0159
 2582DOPE   C1B30295  33.196   4.490  15.220  0.2036 -0.0947 -0.0345
 2582DOPE   D2B30296  33.137   4.646  14.781  0.2310 -0.2500  0.5517
 2582DOPE   C3B30297  32.950   4.388  14.430  0.0616  0.1475 -0.1482
 2582DOPE   C4B30298  32.934   4.091  14.120 -0.0470  0.1200 -0.4028
 2583DOPE   NH330299  32.637   8.227  16.205 -0.2812  0.1293  0.3759
 2583DOPE   PO430300  32.718   8.045  15.957  0.2008 -0.2655  0.2144
 2583DOPE   GL130301  32.682   8.198  15.592 -0.1158 -0.0457  0.2661
 2583DOPE   GL230302  32.918   8.009  15.494  0.2637  0.2145 -0.1611
 2583DOPE   C1A30303  32.609   8.190  15.117  0.1296 -0.1013 -0.0182
 2583DOPE   D2A30304  32.649   8.313  14.681  0.3456 -0.0328  0.2032
 2583DOPE   C3A30305  32.613   8.008  14.410  0.1654  0.1564  0.1027
 2583DOPE   C4A30306  32.485   7.553  14.454  0.5295  0.1444 -0.0240
 2583DOPE   C1B30307  32.557   7.772  15.422 -0.0049  0.0622  0.2404
 2583DOPE   D2B30308  32.162   7.792  15.150 -0.2860 -0.1301  0.0567
 2583DOPE   C3B30309  32.108   7.899  14.721  0.0719 -0.0079 -0.0199
 2583DOPE   C4B30310  32.009   7.748  14.321  0.0827 -0.0393 -0.2085
 2584DOPC   NC330311  25.694  34.636  15.772  0.1540 -0.1369 -0.0829
 2584DOPC   PO430312  25.337  34.665  15.886  0.1885 -0.3169  0.2104
 2584DOPC   GL130313  25.310  34.629  15.501  0.0592  0.2583  0.0172
 2584DOPC   GL230314  25.185  34.451  15.261  0.0521 -0.0337  0.0953
 2584DOPC   C1A30315  25.579  34.749  15.184  0.0829 -0.1240 -0.0152
 2584DOPC   D2A30316  25.945  34.796  14.868 -0.1434 -0.3603  0.0947
 2584DOPC   C3A30317  25.999  35.223  14.661  0.1713 -0.0048 -0.0616
 2584DOPC   C4A30318  25.897  35.634  14.805  0.0952  0.0783 -0.0042
 2584DOPC   C1B30319  25.151  34.712  14.873  0.1243  0.1403  0.1105
 2584DOPC   D2B30320  25.176  34.497  14.455 -0.1436  0.4102 -0.1112
 2584DOPC   C3B30321  25.361  34.750  14.077 -0.0703 -0.1276 -0.4497
 2584DOPC   C4B30322  25.499  34.939  13.682 -0.1662  0.1513 -0.4304
 2585DOPC   NC330323  33.940   4.317  15.787  0.2819  0.1767 -0.4051
 2585DOPC   PO430324  34.003   4.046  16.072 -0.3154 -0.2224 -0.1433
 2585DOPC   GL130325  33.857   3.808  15.842 -0.0564  0.1296 -0.1972
 2585DOPC   GL230326  33.619   3.675  15.949  0.2250 -0.0017 -0.0694
 2585DOPC   C1A30327  33.886   3.852  15.415 -0.0057 -0.0194  0.0236
 2585DOPC   D2A30328  33.957   3.940  14.960  0.1162 -0.0194 -0.0053
 2585DOPC   C3A30329  33.996   3.553  14.747  0.1489  0.3507 -0.2320
 2585DOPC   C4A30330  33.909   3.092  14.579  0.1506  0.0712 -0.1570
 2585DOPC   C1B30331  33.476   3.516  15.538 -0.0461  0.0521  0.0050
 2585DOPC   D2B30332  33.481   3.466  15.087 -0.1611 -0.1557 -0.0621
 2585DOPC   C3B30333  33.472   3.850  14.833 -0.2084  0.0255 -0.1509
 2585DOPC   C4B30334  33.295   4.064  14.471  0.3177  0.0322  0.2817
 2586DOPE   NH330335  29.993   2.160  16.293 -0.1588  0.4742 -0.0603
 2586DOPE   PO430336  30.285   2.223  16.193  0.0135  0.0655  0.0313
 2586DOPE   GL130337  30.117   2.433  15.934 -0.1856  0.2582 -0.0917
 2586DOPE   GL230338  30.316   2.567  15.704  0.0511 -0.1426  0.1987
 2586DOPE   C1A30339  29.837   2.371  15.614 -0.0803 -0.2317 -0.2644
 2586DOPE   D2A30340  29.558   2.128  15.325  0.0452  0.1461  0.0406
 2586DOPE   C3A30341  29.444   1.911  14.980  0.3028 -0.0256  0.1325
 2586DOPE   C4A30342  29.087   1.887  14.735 -0.2441  0.3515  0.1946
 2586DOPE   C1B30343  30.599   2.795  15.409 -0.1334  0.1718  0.1366
 2586DOPE   D2B30344  30.828   2.800  15.038  0.0399  0.0227  0.1450
 2586DOPE   C3B30345  30.701   2.954  14.657  0.0026 -0.1014  0.3618
 2586DOPE   C4B30346  30.350   3.144  14.414 -0.0441 -0.0522 -0.1865
 2587DOPE   NH330347  34.589   7.096  16.302  0.1721  0.0098 -0.1553
 2587DOPE   PO430348  34.696   6.808  16.152  0.1819 -0.0961 -0.0587
 2587DOPE   GL130349  34.485   6.934  15.817  0.2026 -0.2079  0.0913
 2587DOPE   GL230350  34.657   6.905  15.623  0.3221 -0.0051  0.2880
 2587DOPE   C1A30351  34.156   6.716  15.526 -0.0940  0.0560  0.1198
 2587DOPE   D2A30352  33.985   6.505  15.152  0.1270 -0.3377 -0.1516
 2587DOPE   C3A30353  34.209   6.163  14.938 -0.0611  0.1532 -0.2116
 2587DOPE   C4A30354  34.347   6.131  14.501 -0.4545  0.2031 -0.1650
 2587DOPE   C1B30355  34.755   6.589  15.305  0.0009 -0.0986 -0.0704
 2587DOPE   D2B30356  34.737   6.232  14.987  0.2716 -0.0377 -0.0313
 2587DOPE   C3B30357  34.836   6.259  14.549 -0.0048  0.1228 -0.1590
 2587DOPE   C4B30358  34.788   6.342  14.105 -0.1987  0.1730  0.0250
 2588DOPS   CNO30359  24.146   5.188  16.162 -0.1733  0.3875  0.1119
 2588DOPS   PO430360  24.422   5.073  15.963  0.2023  0.2407  0.0778
 2588DOPS   GL130361  24.804   5.228  15.830 -0.1133 -0.0188 -0.2292
 2588DOPS   GL230362  24.883   5.030  15.578  0.1214  0.0214 -0.1886
 2588DOPS   C1A30363  25.152   5.492  15.582  0.0510  0.0821  0.0946
 2588DOPS   D2A30364  25.443   5.628  15.184  0.1046  0.1283  0.0659
 2588DOPS   C3A30365  25.305   6.028  15.135  0.1229  0.0699 -0.0153
 2588DOPS   C4A30366  25.024   6.431  15.197  0.1735 -0.0740  0.1952
 2588DOPS   C1B30367  24.849   4.689  15.200 -0.2409  0.6353  0.1112
 2588DOPS   D2B30368  25.081   4.532  14.822 -0.2612  0.0863 -0.1510
 2588DOPS   C3B30369  25.572   4.611  14.888  0.1301  0.0897  0.5809
 2588DOPS   C4B30370  26.005   4.615  14.959 -0.0218  0.1488  0.3663
 2589POSM   NC330371  27.764  10.804  16.361  0.1661  0.1163 -0.0835
 2589POSM   PO430372  28.037  11.069  16.406 -0.0141 -0.0079 -0.1901
 2589POSM   AM130373  27.916  11.225  16.155  0.1994 -0.0568 -0.5116
 2589POSM   AM230374  27.835  11.094  15.899  0.3768 -0.3198 -0.1029
 2589POSM   T1A30375  27.730  11.551  15.880  0.0378 -0.1935  0.0600
 2589POSM   C2A30376  27.707  11.849  15.533 -0.1984 -0.0091  0.3389
 2589POSM   C3A30377  27.648  11.698  15.046 -0.0156 -0.2389  0.1345
 2589POSM   C1B30378  28.060  11.016  15.651 -0.2124  0.1284 -0.1037
 2589POSM   D2B30379  28.517  10.971  15.578  0.2672  0.3664  0.0308
 2589POSM   C3B30380  28.621  11.081  15.192 -0.1197 -0.2160 -0.0301
 2589POSM   C4B30381  28.499  11.318  14.853 -0.1718  0.0529 -0.1709
 2590DOPC   NC330382  23.470   5.735  15.818  0.2359 -0.2620  0.4182
 2590DOPC   PO430383  23.214   5.907  15.595 -0.2218 -0.0865 -0.0050
 2590DOPC   GL130384  23.370   6.050  15.211  0.0849  0.0921 -0.5281
 2590DOPC   GL230385  23.325   5.824  15.089 -0.1546 -0.1555  0.0711
 2590DOPC   C1A30386  23.247   6.141  14.768 -0.1351  0.1933  0.1111
 2590DOPC   D2A30387  23.347   5.972  14.342  0.1438  0.3337  0.0337
 2590DOPC   C3A30388  23.414   5.602  14.036 -0.2059  0.0288  0.1391
 2590DOPC   C4A30389  23.184   5.412  13.701 -0.1627  0.0737 -0.2406
 2590DOPC   C1B30390  23.652   5.821  14.757  0.1097 -0.3557 -0.1624
 2590DOPC   D2B30391  23.810   5.714  14.367 -0.2466  0.1321 -0.1410
 2590DOPC   C3B30392  23.750   5.910  13.950  0.0351  0.1349 -0.0664
 2590DOPC   C4B30393  23.445   6.232  13.859  0.0271  0.1235 -0.3592
 2591DOPC   NC330394  28.173   3.329  15.752  0.1487  0.1261  0.0252
 2591DOPC   PO430395  27.831   3.299  15.886  0.0708  0.0837  0.0828
 2591DOPC   GL130396  27.650   3.449  15.655  0.2730  0.1036  0.3434
 2591DOPC   GL230397  27.819   3.604  15.465  0.1041 -0.2299 -0.1176
 2591DOPC   C1A30398  27.410   3.827  15.541  0.2636 -0.1283 -0.0401
 2591DOPC   D2A30399  26.999   3.885  15.305 -0.0108 -0.1858 -0.5950
 2591DOPC   C3A30400  27.218   3.844  14.950 -0.3966 -0.3464  0.1453
 2591DOPC   C4A30401  27.420   3.495  14.718 -0.1100 -0.1458 -0.0037
 2591DOPC   C1B30402  27.680   3.331  15.100  0.3332 -0.0989  0.3790
 2591DOPC   D2B30403  27.505   3.029  14.802  0.0654  0.0700  0.0892
 2591DOPC   C3B30404  27.743   3.064  14.350 -0.1432 -0.3078 -0.2161
 2591DOPC   C4B30405  27.832   3.232  13.893 -0.1626  0.0449  0.1043
 2592DOPS   CNO30406  25.648   1.242  15.818 -0.2106 -0.2250  0.1894
 2592DOPS   PO430407  25.997   1.318  15.923  0.2115  0.0131 -0.1886
 2592DOPS   GL130408  26.072   1.044  15.554 -0.1577 -0.1555 -0.4406
 2592DOPS   GL230409  25.810   0.839  15.472  0.3580  0.0791 -0.1291
 2592DOPS   C1A30410  26.296   0.851  15.238 -0.3421  0.1534  0.0940
 2592DOPS   D2A30411  26.345   0.439  15.049  0.2141  0.4591 -0.1122
 2592DOPS   C3A30412  26.549   0.373  14.640  0.2767 -0.3348  0.0417
 2592DOPS   C4A30413  26.787   0.268  14.308  0.2011  0.1101  0.0964
 2592DOPS   C1B30414  25.843   1.214  15.227 -0.0516 -0.1347 -0.3775
 2592DOPS   D2B30415  25.876   1.640  15.284  0.0408  0.0409 -0.3646
 2592DOPS   C3B30416  26.206   1.935  15.219  0.1675  0.0911 -0.0016
 2592DOPS   C4B30417  26.357   2.226  15.516 -0.1092  0.0892 -0.2173
 2593DOPC   NC330418  33.680  11.427  15.919 -0.1253  0.0185  0.0359
 2593DOPC   PO430419  33.347  11.612  16.068  0.4882  0.0858 -0.1563
 2593DOPC   GL130420  33.371  11.826  15.738  0.1148  0.2351  0.3863
 2593DOPC   GL230421  33.319  12.072  15.555 -0.1669 -0.2980 -0.1401
 2593DOPC   C1A30422  33.662  11.637  15.428 -0.1103 -0.1331 -0.2610
 2593DOPC   D2A30423  33.608  11.779  14.992  0.1210  0.0185 -0.3111
 2593DOPC   C3A30424  33.812  11.469  14.681  0.1036 -0.1777  0.1090
 2593DOPC   C4A30425  34.085  11.181  14.440  0.0175  0.0507  0.0314
 2593DOPC   C1B30426  33.140  11.974  15.205  0.0268 -0.1759 -0.1158
 2593DOPC   D2B30427  33.102  11.688  14.849  0.0326 -0.1117  0.3202
 2593DOPC   C3B30428  33.184  11.938  14.438 -0.2269  0.0081  0.3802
 2593DOPC   C4B30429  33.349  11.821  14.058 -0.0833 -0.0131  0.1241
 2594POSM   NC330430  31.908   4.170  16.269  0.0857 -0.1784  0.0316
 2594POSM   PO430431  31.793   4.539  16.222  0.0789 -0.2656  0.0573
 2594POSM   AM130432  31.995   4.530  15.953 -0.1364 -0.1163  0.6523
 2594POSM   AM230433  32.100   4.771  15.794 -0.2887  0.0260 -0.0762
 2594POSM   T1A30434  32.230   4.340  15.601  0.3944  0.1048 -0.2088
 2594POSM   C2A30435  32.207   3.929  15.398  0.0149  0.3365 -0.0088
 2594POSM   C3A30436  31.828   3.711  15.317 -0.1211 -0.1214  0.0297
 2594POSM   C1B30437  32.041   4.984  15.563  0.0575 -0.1324 -0.1186
 2594POSM   D2B30438  32.370   5.298  15.324  0.0451 -0.0855  0.0254
 2594POSM   C3B30439  32.340   5.446  14.899 -0.0127  0.0590  0.2365
 2594POSM   C4B30440  32.257   5.262  14.496 -0.1199  0.0192 -0.1333
 2595DOPC   NC330441  28.882   1.260  15.956 -0.1567  0.0375 -0.0995
 2595DOPC   PO430442  29.052   0.941  15.788  0.1401 -0.0231 -0.0136
 2595DOPC   GL130443  29.278   0.816  15.518  0.0628 -0.2653  0.0667
 2595DOPC   GL230444  29.510   0.908  15.514 -0.3673  0.0939 -0.3300
 2595DOPC   C1A30445  29.195   0.908  15.080  0.1613  0.2494 -0.0647
 2595DOPC   D2A30446  28.870   0.975  14.755  0.1497  0.0566 -0.2977
 2595DOPC   C3A30447  28.591   0.616  14.631 -0.2722  0.0865 -0.2467
 2595DOPC   C4A30448  28.426   0.305  14.376 -0.0640 -0.1582 -0.1777
 2595DOPC   C1B30449  29.706   1.170  15.121 -0.2390  0.2435  0.1781
 2595DOPC   D2B30450  30.186   1.328  14.981  0.0392  0.1981 -0.0147
 2595DOPC   C3B30451  30.363   1.525  14.636  0.0322  0.0372  0.2894
 2595DOPC   C4B30452  30.568   1.236  14.364  0.0539 -0.1468  0.2181
 2596DOPC   NC330453  32.710   0.927  15.897 -0.0251 -0.2249  0.2484
 2596DOPC   PO430454  32.601   0.764  16.221  0.0466 -0.3616  0.2181
 2596DOPC   GL130455  32.428   0.575  15.851 -0.4214 -0.0124 -0.3430
 2596DOPC   GL230456  32.215   0.381  15.763 -0.3298  0.0237 -0.1929
 2596DOPC   C1A30457  32.487   0.740  15.447  0.3611  0.2782  0.0352
 2596DOPC   D2A30458  32.236   0.835  15.120 -0.5476 -0.4145  0.0441
 2596DOPC   C3A30459  32.317   0.462  14.826 -0.0791 -0.0788  0.2512
 2596DOPC   C4A30460  32.155   0.080  14.624 -0.2405  0.0551  0.0791
 2596DOPC   C1B30461  32.088   0.338  15.288 -0.2231  0.1398  0.1854
 2596DOPC   D2B30462  31.816   0.575  15.094  0.1673  0.0378  0.3819
 2596DOPC   C3B30463  31.875   0.815  14.702  0.1030 -0.2712 -0.0754
 2596DOPC   C4B30464  32.287   0.839  14.525  0.0636 -0.0750 -0.0067
 2597DOPE   NH330465  29.415  34.482  16.098  0.1655  0.1535 -0.0970
 2597DOPE   PO430466  29.673  34.273  16.131  0.1582 -0.3565  0.2936
 2597DOPE   GL130467  29.772  34.344  15.738  0.4249  0.0457 -0.4068
 2597DOPE   GL230468  29.918  34.590  15.815  0.1170  0.0347 -0.3149
 2597DOPE   C1A30469  29.849  34.227  15.255 -0.1708  0.0410 -0.0164
 2597DOPE   D2A30470  29.737  34.294  14.775 -0.0114 -0.0239  0.2978
 2597DOPE   C3A30471  29.426  34.107  14.453 -0.1585  0.2801 -0.1312
 2597DOPE   C4A30472  29.501  34.023  13.987  0.0869 -0.1479 -0.0004
 2597DOPE   C1B30473  30.004  34.780  15.389  0.0171 -0.1164  0.0535
 2597DOPE   D2B30474  29.652  34.744  15.058  0.0683  0.0849 -0.2329
 2597DOPE   C3B30475  29.752  34.919  14.629  0.1448 -0.3131  0.0334
 2597DOPE   C4B30476  29.753  34.920  14.187 -0.2940 -0.4322 -0.0314
 2598POSM   NC330477  33.880   1.537  16.500 -0.2187  0.1823  0.1103
 2598POSM   PO430478  33.749   1.907  16.544 -0.1560 -0.0442  0.0818
 2598POSM   AM130479  33.731   1.973  16.232 -0.2915 -0.0779  0.2954
 2598POSM   AM230480  33.781   2.130  16.002 -0.1063  0.0443 -0.0165
 2598POSM   T1A30481  33.498   1.763  15.839 -0.1106 -0.0534 -0.0423
 2598POSM   C2A30482  33.387   1.350  15.739 -0.0835 -0.1160  0.0856
 2598POSM   C3A30483  33.578   1.036  15.468  0.3168  0.3095  0.2017
 2598POSM   C1B30484  33.619   2.193  15.698 -0.0603  0.1191 -0.0545
 2598POSM   D2B30485  33.397   2.061  15.336  0.4043  0.0904  0.2748
 2598POSM   C3B30486  33.090   1.690  15.376  0.2310  0.0291 -0.3024
 2598POSM   C4B30487  32.752   1.575  15.079  0.0613 -0.2324  0.2057
 2599POSM   NC330488  24.663   6.714  15.507 -0.0750 -0.0664 -0.2488
 2599POSM   PO430489  24.906   7.011  15.613  0.1758  0.2046 -0.0160
 2599POSM   AM130490  25.134   7.008  15.430 -0.1469 -0.2587 -0.1610
 2599POSM   AM230491  25.434   7.057  15.384  0.1603  0.3623 -0.0885
 2599POSM   T1A30492  25.251   7.009  14.950 -0.2736 -0.2664 -0.1323
 2599POSM   C2A30493  25.591   7.177  14.783 -0.0540 -0.3268  0.2164
 2599POSM   C3A30494  26.048   7.313  14.953  0.1573 -0.0702 -0.0196
 2599POSM   C1B30495  25.652   6.835  15.212  0.2521 -0.3682  0.3357
 2599POSM   D2B30496  25.932   6.740  14.840 -0.1184  0.0669 -0.1276
 2599POSM   C3B30497  25.794   6.518  14.436  0.0553  0.2968  0.0388
 2599POSM   C4B30498  25.728   6.234  14.073 -0.2960 -0.1061  0.2731
 2600DOPE   NH330499  24.209   2.074  15.452 -0.0990 -0.1583  0.2715
 2600DOPE   PO430500  24.412   1.802  15.460 -0.0498 -0.2416  0.1489
 2600DOPE   GL130501  24.538   1.839  15.144  0.1314  0.0261  0.0037
 2600DOPE   GL230502  24.782   1.861  15.031 -0.1076 -0.1481 -0.0953
 2600DOPE   C1A30503  24.396   1.728  14.702  0.0717 -0.1845 -0.1703
 2600DOPE   D2A30504  24.650   1.664  14.295 -0.2312 -0.0302  0.1791
 2600DOPE   C3A30505  24.454   1.681  13.875  0.0029  0.1250 -0.0930
 2600DOPE   C4A30506  24.073   1.581  13.711 -0.0480  0.3369 -0.2471
 2600DOPE   C1B30507  24.887   1.999  14.620  0.2033 -0.2579  0.1708
 2600DOPE   D2B30508  25.152   2.113  14.304 -0.2474  0.1210  0.0098
 2600DOPE   C3B30509  25.135   1.956  13.817  0.0098 -0.1531 -0.2780
 2600DOPE   C4B30510  24.825   1.706  13.571 -0.1439 -0.1896 -0.0729
 2601POSM   NC330511  23.518   2.582  15.522  0.0169  0.2226 -0.2083
 2601POSM   PO430512  23.873   2.518  15.536 -0.0784  0.1430  0.2611
 2601POSM   AM130513  23.828   2.329  15.263  0.4455 -0.1840 -0.2459
 2601POSM   AM230514  23.770   2.404  15.015  0.1811  0.0793  0.1166
 2601POSM   T1A30515  23.995   2.020  14.914 -0.1463  0.1294 -0.1052
 2601POSM   C2A30516  23.898   1.572  14.792  0.4021 -0.2463  0.0865
 2601POSM   C3A30517  24.161   1.243  14.750 -0.2403 -0.0101  0.1153
 2601POSM   C1B30518  23.887   2.513  14.679  0.2493  0.3944  0.0476
 2601POSM   D2B30519  24.141   2.534  14.301 -0.2474  0.0206 -0.0121
 2601POSM   C3B30520  24.103   2.596  13.886  0.2097  0.0096 -0.1439
 2601POSM   C4B30521  24.277   2.552  13.444  0.1422  0.1156 -0.3612
 2602DOPE   NH330522  27.052  11.110  16.204  0.1551  0.0271  0.2990
 2602DOPE   PO430523  27.260  10.870  16.246  0.0382  0.0570  0.2213
 2602DOPE   GL130524  27.321  10.822  15.877 -0.1634 -0.0129 -0.1557
 2602DOPE   GL230525  27.092  10.690  15.702 -0.2384 -0.1166  0.0650
 2602DOPE   C1A30526  27.624  10.810  15.509  0.0436 -0.1383  0.1645
 2602DOPE   D2A30527  27.585  10.942  15.045  0.0686 -0.4239 -0.3067
 2602DOPE   C3A30528  27.782  10.602  14.905  0.1859  0.3851  0.0113
 2602DOPE   C4A30529  27.804  10.234  14.592 -0.0325  0.2078  0.0678
 2602DOPE   C1B30530  27.151  10.831  15.227  0.1247 -0.0166  0.1656
 2602DOPE   D2B30531  27.163  11.015  14.833  0.1199  0.1333  0.4675
 2602DOPE   C3B30532  27.486  11.347  14.753 -0.2411  0.3126 -0.3395
 2602DOPE   C4B30533  27.946  11.358  14.775 -0.2539 -0.2363 -0.3359
 2603POSM   NC330534  24.088   4.959  15.634 -0.1962 -0.1885 -0.0992
 2603POSM   PO430535  23.713   5.156  15.624  0.2968 -0.3060 -0.3077
 2603POSM   AM130536  23.738   5.163  15.322 -0.4205 -0.0288 -0.2397
 2603POSM   AM230537  23.870   4.993  15.107  0.3086  0.0159 -0.1461
 2603POSM   T1A30538  23.428   5.286  14.945 -0.0264 -0.0949  0.0639
 2603POSM   C2A30539  23.432   5.296  14.519  0.3822  0.2615 -0.2819
 2603POSM   C3A30540  23.547   5.010  14.132 -0.1065 -0.1553 -0.1070
 2603POSM   C1B30541  23.910   4.916  14.759 -0.2798  0.1632 -0.0897
 2603POSM   D2B30542  23.743   4.635  14.429 -0.4177  0.2740 -0.1766
 2603POSM   C3B30543  24.073   4.403  14.169 -0.2558 -0.4681 -0.0315
 2603POSM   C4B30544  24.477   4.432  13.943  0.2253 -0.0463  0.0645
 2604DOPS   CNO30545   0.053   2.842  15.978  0.1401  0.0547 -0.1812
 2604DOPS   PO430546  -0.051   2.489  16.047  0.0019 -0.2605  0.1220
 2604DOPS   GL130547   0.013   2.181  15.765  0.1187  0.3114  0.1295
 2604DOPS   GL230548   0.249   1.963  15.776  0.0763 -0.0283  0.0126
 2604DOPS   C1A30549  -0.063   2.134  15.311  0.1466 -0.0611  0.0903
 2604DOPS   D2A30550  -0.174   1.957  14.920 -0.2127 -0.1175  0.0115
 2604DOPS   C3A30551   0.216   1.794  14.717 -0.2853  0.2799  0.0346
 2604DOPS   C4A30552   0.669   1.734  14.702 -0.2120 -0.1177 -0.1457
 2604DOPS   C1B30553   0.537   2.078  15.394 -0.2429  0.2087 -0.2816
 2604DOPS   D2B30554   0.858   1.930  15.089 -0.0736 -0.0217 -0.3283
 2604DOPS   C3B30555   1.036   1.514  14.998 -0.1138 -0.0682  0.1377
 2604DOPS   C4B30556   1.239   1.290  14.685  0.1965 -0.0075 -0.0831
 2605DOPC   NC330557  28.702   9.985  15.939 -0.2066  0.2655 -0.1373
 2605DOPC   PO430558  28.539   9.878  16.316  0.0722  0.0593 -0.1789
 2605DOPC   GL130559  28.225   9.659  16.020 -0.3065 -0.0339 -0.1532
 2605DOPC   GL230560  27.966   9.676  15.840  0.2510 -0.0682  0.1571
 2605DOPC   C1A30561  28.458   9.656  15.605  0.1511 -0.1657  0.0919
 2605DOPC   D2A30562  28.870   9.738  15.424  0.0614 -0.2572  0.0457
 2605DOPC   C3A30563  29.138   9.595  15.059  0.1060 -0.2077  0.2158
 2605DOPC   C4A30564  29.077   9.347  14.674  0.2861 -0.1135 -0.2779
 2605DOPC   C1B30565  28.013   9.610  15.318 -0.3855 -0.1812  0.2525
 2605DOPC   D2B30566  28.064   9.610  14.874 -0.1473 -0.0900 -0.0254
 2605DOPC   C3B30567  27.807   9.457  14.539  0.2165  0.1119 -0.2291
 2605DOPC   C4B30568  27.541   9.214  14.282  0.0311 -0.1665  0.2293
 2606DOPS   CNO30569  23.847  10.528  15.514  0.1655  0.0782 -0.2670
 2606DOPS   PO430570  23.541  10.475  15.722 -0.0242 -0.1336  0.1834
 2606DOPS   GL130571  23.408  10.432  15.360  0.0967 -0.0881  0.0809
 2606DOPS   GL230572  23.380  10.757  15.116 -0.1368 -0.0286  0.1430
 2606DOPS   C1A30573  23.651  10.301  15.045  0.0964 -0.1380 -0.0922
 2606DOPS   D2A30574  23.745  10.372  14.601  0.1434 -0.0227 -0.0065
 2606DOPS   C3A30575  23.778  10.140  14.194 -0.2073  0.0610  0.0490
 2606DOPS   C4A30576  24.016  10.003  13.770 -0.0276  0.2709 -0.1584
 2606DOPS   C1B30577  23.623  10.819  14.719 -0.0997 -0.0791 -0.3637
 2606DOPS   D2B30578  23.767  10.782  14.297 -0.0004  0.0306 -0.0842
 2606DOPS   C3B30579  23.952  11.172  14.146  0.1333  0.1292 -0.1620
 2606DOPS   C4B30580  23.838  11.652  14.053 -0.0479  0.1873 -0.5266
 2607DOPE   NH330581  32.327   8.648  16.021  0.0177  0.1279  0.0906
 2607DOPE   PO430582  32.605   8.613  15.905  0.2259  0.0491  0.0368
 2607DOPE   GL130583  32.792   8.894  15.604  0.2027  0.0440  0.2802
 2607DOPE   GL230584  32.782   8.652  15.393 -0.2928 -0.0745  0.0325
 2607DOPE   C1A30585  33.189   8.981  15.444  0.1344  0.2531 -0.2656
 2607DOPE   D2A30586  33.593   9.082  15.290  0.0417  0.1311  0.2904
 2607DOPE   C3A30587  33.574   8.894  14.872 -0.2302  0.0814 -0.2446
 2607DOPE   C4A30588  33.620   8.567  14.580 -0.1040  0.1265 -0.2267
 2607DOPE   C1B30589  32.464   8.679  15.024 -0.2115 -0.0822 -0.3090
 2607DOPE   D2B30590  32.349   8.797  14.545  0.0839  0.2502  0.1308
 2607DOPE   C3B30591  31.887   8.773  14.496  0.0017  0.0419  0.3842
 2607DOPE   C4B30592  31.451   8.671  14.402 -0.0254  0.0712 -0.0208
 2608DOPC   NC330593  24.168   6.074  15.660  0.0473 -0.5402 -0.0714
 2608DOPC   PO430594  24.221   6.407  15.516  0.0386 -0.1705  0.2360
 2608DOPC   GL130595  24.586   6.336  15.321  0.2381  0.6607 -0.1342
 2608DOPC   GL230596  24.506   6.504  15.102 -0.1221 -0.0974 -0.3508
 2608DOPC   C1A30597  24.755   6.020  14.969 -0.0296  0.3648  0.0338
 2608DOPC   D2A30598  24.666   5.739  14.598 -0.0262  0.0344 -0.3716
 2608DOPC   C3A30599  24.962   5.614  14.231  0.0618 -0.0377  0.2871
 2608DOPC   C4A30600  24.940   5.484  13.791  0.1102  0.0464 -0.0633
 2608DOPC   C1B30601  24.563   6.435  14.691  0.0111 -0.1045  0.1120
 2608DOPC   D2B30602  24.712   6.157  14.345  0.1189 -0.4874  0.0764
 2608DOPC   C3B30603  25.168   6.108  14.510 -0.0810 -0.1060 -0.1656
 2608DOPC   C4B30604  25.566   5.951  14.736 -0.0432  0.3196  0.0507
 2609DOPS   CNO30605  23.448   3.073  15.668  0.2867  0.1073  0.3242
 2609DOPS   PO430606  23.245   2.960  15.385 -0.0085 -0.1358 -0.1311
 2609DOPS   GL130607  23.393   3.000  15.022  0.2919  0.1566  0.2256
 2609DOPS   GL230608  23.435   2.750  14.810  0.0008  0.2116 -0.1048
 2609DOPS   C1A30609  23.318   3.188  14.634  0.1736 -0.1651 -0.1223
 2609DOPS   D2A30610  23.156   3.329  14.209  0.0721  0.3090 -0.2961
 2609DOPS   C3A30611  23.109   3.407  13.785  0.3929 -0.1444  0.0239
 2609DOPS   C4A30612  22.821   3.463  13.426 -0.1506  0.0467 -0.1407
 2609DOPS   C1B30613  22.993   2.776  14.866 -0.0210 -0.1659 -0.0285
 2609DOPS   D2B30614  22.611   2.610  14.749 -0.2895 -0.0043 -0.1415
 2609DOPS   C3B30615  22.565   2.697  14.273 -0.0827  0.1595 -0.0938
 2609DOPS   C4B30616  22.454   2.629  13.797 -0.0110 -0.1871 -0.1716
 2610DOPC   NC330617  27.026   2.501  16.045  0.0665 -0.1564 -0.1165
 2610DOPC   PO430618  27.110   2.806  16.219 -0.1190 -0.1886  0.0433
 2610DOPC   GL130619  27.260   2.888  15.817 -0.4693  0.0189  0.3667
 2610DOPC   GL230620  27.526   2.979  15.658 -0.0978 -0.1469  0.0747
 2610DOPC   C1A30621  27.073   2.948  15.392 -0.0062  0.1371 -0.0087
 2610DOPC   D2A30622  26.887   2.776  14.952 -0.1842 -0.0767 -0.1236
 2610DOPC   C3A30623  26.862   2.543  14.601  0.0966  0.2788 -0.0765
 2610DOPC   C4A30624  26.762   2.150  14.340 -0.0820 -0.2639 -0.0433
 2610DOPC   C1B30625  27.554   2.723  15.304 -0.1597 -0.0687 -0.0251
 2610DOPC   D2B30626  27.312   2.512  15.015 -0.0943  0.0075  0.2069
 2610DOPC   C3B30627  27.360   2.530  14.533  0.1458 -0.0119 -0.2054
 2610DOPC   C4B30628  27.233   2.932  14.324  0.0373 -0.2666  0.0104
 2611DOPE   NH330629  33.691   8.117  15.959  0.2180  0.1153  0.0239
 2611DOPE   PO430630  33.972   8.001  15.934 -0.5380  0.0380  0.1081
 2611DOPE   GL130631  33.859   7.926  15.543  0.2406  0.2354 -0.1382
 2611DOPE   GL230632  33.862   8.205  15.463 -0.5796 -0.0393  0.1521
 2611DOPE   C1A30633  33.764   7.740  15.124 -0.3561 -0.0198 -0.1133
 2611DOPE   D2A30634  33.453   7.688  14.736 -0.3043  0.1395  0.0430
 2611DOPE   C3A30635  33.249   8.090  14.549  0.0823 -0.0176  0.0526
 2611DOPE   C4A30636  33.155   8.480  14.439 -0.0996  0.0473  0.1000
 2611DOPE   C1B30637  33.666   8.208  15.029 -0.0443  0.0219  0.2680
 2611DOPE   D2B30638  33.857   8.156  14.641 -0.0370  0.2587 -0.1177
 2611DOPE   C3B30639  33.699   8.083  14.245  0.0006 -0.2061  0.2745
 2611DOPE   C4B30640  33.839   8.130  13.822 -0.4666 -0.0186 -0.1731
 2612POSM   NC330641  30.898   8.763  16.614 -0.5073  0.1454 -0.0164
 2612POSM   PO430642  30.556   8.758  16.433 -0.0720  0.1231  0.1233
 2612POSM   AM130643  30.371   8.875  16.252 -0.2024  0.5878  0.4762
 2612POSM   AM230644  30.268   9.103  16.172 -0.0565  0.0783  0.1139
 2612POSM   T1A30645  30.032   8.741  15.877  0.1364  0.3074  0.0925
 2612POSM   C2A30646  29.713   8.636  15.622  0.1150  0.1037  0.0316
 2612POSM   C3A30647  29.516   8.694  15.189  0.1464 -0.2255  0.1559
 2612POSM   C1B30648  30.309   9.305  15.967  0.4275 -0.1696  0.1756
 2612POSM   D2B30649  30.245   9.644  15.766  0.2080  0.2183  0.2988
 2612POSM   C3B30650  30.219  10.072  15.960  0.2347  0.0763  0.0210
 2612POSM   C4B30651  29.850  10.369  16.078 -0.0393 -0.0323 -0.0024
 2613DOPE   NH330652  27.677   9.318  16.011 -0.1419  0.3278  0.0078
 2613DOPE   PO430653  27.389   9.417  16.053  0.0627  0.0368  0.0940
 2613DOPE   GL130654  27.522   9.656  15.701 -0.0838 -0.0271  0.0808
 2613DOPE   GL230655  27.532   9.360  15.554 -0.2390 -0.2578 -0.0120
 2613DOPE   C1A30656  27.477   9.868  15.270  0.1964 -0.1205  0.2688
 2613DOPE   D2A30657  27.609   9.809  14.875 -0.1222  0.2224 -0.0745
 2613DOPE   C3A30658  27.595   9.431  15.036 -0.0400 -0.4178  0.2161
 2613DOPE   C4A30659  27.922   9.095  14.935  0.0128  0.0638  0.0627
 2613DOPE   C1B30660  27.675   8.948  15.321  0.0672 -0.1960 -0.0244
 2613DOPE   D2B30661  27.612   8.648  14.986 -0.0872  0.2503  0.4792
 2613DOPE   C3B30662  27.747   8.832  14.571 -0.0069  0.0541  0.1383
 2613DOPE   C4B30663  27.981   8.939  14.180 -0.3299 -0.4725  0.2716
 2614POSM   NC330664  30.895   9.016  16.113 -0.0596  0.1672  0.4389
 2614POSM   PO430665  30.854   9.227  16.391  0.1351 -0.4669 -0.1701
 2614POSM   AM130666  30.928   9.441  16.117  0.0267  0.1359  0.1787
 2614POSM   AM230667  31.110   9.648  16.054  0.0131  0.0765 -0.3064
 2614POSM   T1A30668  30.758   9.336  15.622  0.0774  0.0654  0.3415
 2614POSM   C2A30669  30.504   9.274  15.236 -0.2464 -0.0257 -0.2212
 2614POSM   C3A30670  30.148   9.335  14.966 -0.1792 -0.0814 -0.0767
 2614POSM   C1B30671  31.162   9.599  15.683  0.0991  0.3308  0.0663
 2614POSM   D2B30672  31.286   9.531  15.272  0.3531 -0.1511 -0.0342
 2614POSM   C3B30673  31.466   9.215  15.068  0.0409  0.0231  0.1166
 2614POSM   C4B30674  31.277   8.967  14.720 -0.1835 -0.1713  0.3874
 2615DOPC   NC330675  31.986   5.351  16.030  0.1398  0.0234  0.1950
 2615DOPC   PO430676  31.768   5.070  16.125  0.0603  0.2533 -0.0236
 2615DOPC   GL130677  31.643   5.011  15.833  0.1668  0.0761 -0.2423
 2615DOPC   GL230678  31.582   4.715  15.817  0.1185  0.0117 -0.3469
 2615DOPC   C1A30679  31.588   5.031  15.362  0.1599  0.1721  0.1089
 2615DOPC   D2A30680  31.925   5.138  15.082  0.1819 -0.1736 -0.1021
 2615DOPC   C3A30681  32.090   4.862  14.729  0.3529 -0.0415 -0.0577
 2615DOPC   C4A30682  32.395   4.562  14.566  0.1280 -0.1887  0.0071
 2615DOPC   C1B30683  31.846   4.587  15.380  0.0001 -0.0307 -0.2437
 2615DOPC   D2B30684  31.674   4.673  14.927 -0.1865 -0.1094 -0.2382
 2615DOPC   C3B30685  31.461   5.059  14.887 -0.0169  0.1170  0.2759
 2615DOPC   C4B30686  31.476   5.462  14.618  0.1915 -0.0274 -0.1368
 2616DOPE   NH330687  30.341  10.208  16.784 -0.1866  0.0816  0.0278
 2616DOPE   PO430688  30.416  10.475  16.678  0.0658  0.1743  0.2362
 2616DOPE   GL130689  30.315  10.416  16.249 -0.2342  0.2923  0.2400
 2616DOPE   GL230690  30.532  10.581  16.226 -0.0061 -0.0350 -0.0057
 2616DOPE   C1A30691  30.144  10.590  15.804 -0.3331 -0.2502  0.1431
 2616DOPE   D2A30692  30.458  10.636  15.415  0.1480  0.0762 -0.0370
 2616DOPE   C3A30693  30.643  10.488  14.950 -0.2061  0.1587  0.0976
 2616DOPE   C4A30694  30.781  10.784  14.605 -0.1334  0.0360  0.3398
 2616DOPE   C1B30695  30.594  10.877  15.905  0.1824  0.1083  0.1635
 2616DOPE   D2B30696  30.727  11.087  15.449  0.0848  0.2012  0.0786
 2616DOPE   C3B30697  30.492  11.015  15.097  0.1474  0.1097  0.1603
 2616DOPE   C4B30698  30.368  11.055  14.667  0.1800 -0.1754 -0.1552
 2617POSM   NC330699  30.368   1.130  16.249  0.0009 -0.0235  0.0032
 2617POSM   PO430700  30.276   0.809  16.458 -0.2530  0.2848 -0.0794
 2617POSM   AM130701  30.278   0.673  16.141 -0.2123 -0.6916  0.0325
 2617POSM   AM230702  30.455   0.723  15.915  0.1823  0.1177 -0.0889
 2617POSM   T1A30703  30.007   0.583  15.689  0.1122  0.3541  0.1566
 2617POSM   C2A30704  29.832   0.562  15.224  0.0766 -0.3420 -0.0422
 2617POSM   C3A30705  29.561   0.599  14.849  0.3734  0.0510 -0.0617
 2617POSM   C1B30706  30.569   0.816  15.614  0.0146 -0.0851 -0.1838
 2617POSM   D2B30707  30.635   0.962  15.185  0.2034 -0.3642  0.2977
 2617POSM   C3B30708  30.581   0.929  14.756 -0.1711  0.0367 -0.1985
 2617POSM   C4B30709  30.449   0.735  14.385  0.1668 -0.2515  0.1343
 2618DOPE   NH330710  33.318  10.030  16.097  0.1028  0.1406 -0.0308
 2618DOPE   PO430711  33.360   9.741  16.158 -0.1951  0.1359 -0.1516
 2618DOPE   GL130712  33.272   9.629  15.828  0.3366 -0.1722  0.1452
 2618DOPE   GL230713  33.344   9.853  15.615 -0.1506  0.0688 -0.1186
 2618DOPE   C1A30714  33.178   9.530  15.318 -0.0562  0.1423  0.1895
 2618DOPE   D2A30715  32.850   9.560  14.996  0.0146  0.4090 -0.1249
 2618DOPE   C3A30716  33.058   9.511  14.590 -0.0834  0.2345 -0.3081
 2618DOPE   C4A30717  33.506   9.426  14.447  0.0742 -0.0908  0.0597
 2618DOPE   C1B30718  33.229   9.994  15.191 -0.0865 -0.0799 -0.1820
 2618DOPE   D2B30719  33.411   9.756  14.808 -0.3131  0.2491  0.2713
 2618DOPE   C3B30720  33.589  10.057  14.452  0.1706  0.1389 -0.0190
 2618DOPE   C4B30721  33.694  10.336  14.058  0.2830 -0.2907 -0.1372
 2619DOPE   NH330722  24.014   3.744  15.368 -0.0446  0.0786 -0.0961
 2619DOPE   PO430723  23.707   3.809  15.225 -0.0214  0.0780  0.1358
 2619DOPE   GL130724  23.780   3.889  14.874  0.1068 -0.1360  0.2890
 2619DOPE   GL230725  24.066   4.011  14.814  0.1693  0.0589 -0.2135
 2619DOPE   C1A30726  23.744   4.081  14.415  0.0942  0.1482  0.0482
 2619DOPE   D2A30727  23.598   4.249  14.046 -0.2259 -0.4177  0.4362
 2619DOPE   C3A30728  23.841   4.673  13.848  0.0354  0.1993 -0.1309
 2619DOPE   C4A30729  23.918   4.836  13.473  0.3006 -0.1864 -0.2886
 2619DOPE   C1B30730  24.494   3.871  14.703  0.1348 -0.0538  0.0471
 2619DOPE   D2B30731  24.504   3.501  14.488  0.1961 -0.1161  0.1081
 2619DOPE   C3B30732  24.563   3.460  14.096 -0.0671  0.2829 -0.0300
 2619DOPE   C4B30733  24.823   3.457  13.690  0.0384  0.1150  0.2766
 2620DOPE   NH330734  30.863   7.303  15.915 -0.1946  0.2473  0.3240
 2620DOPE   PO430735  31.122   7.107  15.862 -0.1796  0.3217  0.0286
 2620DOPE   GL130736  31.272   6.990  15.553 -0.4203 -0.0234  0.0297
 2620DOPE   GL230737  31.037   6.891  15.399 -0.1144  0.5125  0.0489
 2620DOPE   C1A30738  31.309   7.283  15.187  0.2007 -0.1692 -0.2669
 2620DOPE   D2A30739  31.203   7.246  14.728  0.1915 -0.2967 -0.0018
 2620DOPE   C3A30740  30.805   7.511  14.583 -0.1462  0.1130  0.0032
 2620DOPE   C4A30741  30.635   7.958  14.640  0.1794  0.4328 -0.1841
 2620DOPE   C1B30742  31.340   6.817  15.039  0.0436 -0.1104 -0.0811
 2620DOPE   D2B30743  31.374   6.617  14.587 -0.0228  0.0112 -0.0154
 2620DOPE   C3B30744  31.164   6.946  14.343  0.3419  0.0365  0.0405
 2620DOPE   C4B30745  30.834   6.999  14.026  0.0664  0.1965  0.1904
 2621DOPE   NH330746  24.910   1.519  15.359  0.1910  0.0674  0.0416
 2621DOPE   PO430747  24.718   1.305  15.598  0.1937  0.1850  0.0157
 2621DOPE   GL130748  24.465   1.151  15.307 -0.1936 -0.1025  0.3368
 2621DOPE   GL230749  24.406   1.378  15.161 -0.1644  0.1980  0.0894
 2621DOPE   C1A30750  24.572   0.798  15.077 -0.1338 -0.0210 -0.3252
 2621DOPE   D2A30751  24.529   0.388  14.906 -0.1318  0.0962  0.0459
 2621DOPE   C3A30752  24.311   0.034  15.086  0.1403  0.4241  0.0500
 2621DOPE   C4A30753  23.945  -0.230  15.236 -0.5234  0.0325 -0.1976
 2621DOPE   C1B30754  24.647   1.268  14.786  0.0232  0.3515  0.1575
 2621DOPE   D2B30755  24.674   1.168  14.352  0.0208  0.1803  0.2373
 2621DOPE   C3B30756  24.959   0.902  14.188  0.3578 -0.1787  0.1503
 2621DOPE   C4B30757  25.325   0.664  13.949 -0.0459 -0.0590 -0.1215
 2622POSM   NC330758  32.923   2.424  16.172  0.1336  0.0388  0.0594
 2622POSM   PO430759  32.525   2.568  16.230  0.0571  0.3128 -0.0591
 2622POSM   AM130760  32.343   2.550  15.962  0.2253  0.2060  0.1654
 2622POSM   AM230761  32.127   2.477  15.814 -0.1620 -0.2790 -0.1904
 2622POSM   T1A30762  32.155   2.876  15.577 -0.1456 -0.3186 -0.2471
 2622POSM   C2A30763  32.143   2.707  15.126  0.1246 -0.0002 -0.1827
 2622POSM   C3A30764  32.008   2.712  14.694  0.3557 -0.1099  0.2082
 2622POSM   C1B30765  32.336   2.431  15.522  0.1921 -0.0983  0.0758
 2622POSM   D2B30766  32.665   2.566  15.174 -0.0978 -0.0294  0.0428
 2622POSM   C3B30767  32.579   2.294  14.819 -0.0452  0.0336  0.3088
 2622POSM   C4B30768  32.367   2.431  14.401 -0.0523 -0.1271 -0.1028
 2623DOPE   NH330769  31.605   8.384  16.046  0.2442 -0.0480  0.0400
 2623DOPE   PO430770  31.872   8.543  16.118  0.1343  0.0766 -0.1808
 2623DOPE   GL130771  31.933   8.392  15.708 -0.1935  0.4495  0.0561
 2623DOPE   GL230772  32.256   8.296  15.669  0.2216  0.0380  0.3180
 2623DOPE   C1A30773  31.945   7.961  15.582  0.1204  0.1766 -0.1162
 2623DOPE   D2A30774  31.666   7.609  15.415  0.0428 -0.2312 -0.3622
 2623DOPE   C3A30775  31.269   7.798  15.178  0.2012  0.1390  0.0426
 2623DOPE   C4A30776  30.836   7.711  15.054  0.0060 -0.2810 -0.0979
 2623DOPE   C1B30777  32.125   8.310  15.215  0.1816 -0.3890  0.0749
 2623DOPE   D2B30778  32.032   8.380  14.760 -0.0522  0.1362  0.2033
 2623DOPE   C3B30779  32.123   8.288  14.280 -0.2449  0.1314 -0.1764
 2623DOPE   C4B30780  32.280   8.172  13.852 -0.1448  0.3323  0.0083
 2624DOPE   NH330781  32.282  10.315  16.145 -0.0658  0.1310 -0.2830
 2624DOPE   PO430782  32.500  10.542  16.192 -0.2104 -0.0194  0.0215
 2624DOPE   GL130783  32.477  10.550  15.796  0.2141  0.0649 -0.1769
 2624DOPE   GL230784  32.751  10.612  15.650 -0.0092 -0.1427 -0.0654
 2624DOPE   C1A30785  32.454  10.552  15.308  0.1428  0.2362  0.2464
 2624DOPE   D2A30786  32.397  10.446  14.917 -0.4054  0.5060 -0.2204
 2624DOPE   C3A30787  32.703  10.667  14.685 -0.0117 -0.1380  0.2041
 2624DOPE   C4A30788  32.876  10.886  14.301  0.2894  0.0650  0.1643
 2624DOPE   C1B30789  33.069  10.897  15.467  0.0890 -0.2629  0.3621
 2624DOPE   D2B30790  33.008  11.260  15.199 -0.0655 -0.3742  0.1916
 2624DOPE   C3B30791  33.123  11.227  14.708 -0.0869 -0.0373 -0.2457
 2624DOPE   C4B30792  33.379  11.478  14.422 -0.1730  0.1828  0.0579
 2625POSM   NC330793  31.088   4.499  16.539  0.1542  0.3433  0.0539
 2625POSM   PO430794  31.384   4.281  16.350 -0.2096 -0.2346  0.2188
 2625POSM   AM130795  31.423   4.116  16.055 -0.1561  0.1102 -0.0283
 2625POSM   AM230796  31.612   4.168  15.813 -0.1551  0.1612  0.0162
 2625POSM   T1A30797  31.442   3.748  15.790  0.1139 -0.1233 -0.1214
 2625POSM   C2A30798  31.364   3.568  15.398  0.1963 -0.2481  0.0745
 2625POSM   C3A30799  31.318   3.571  14.960 -0.0386 -0.1586  0.2443
 2625POSM   C1B30800  31.746   4.130  15.495 -0.0474  0.2067  0.1162
 2625POSM   D2B30801  31.769   4.188  15.038 -0.2221 -0.1761 -0.1951
 2625POSM   C3B30802  31.678   3.924  14.680  0.1565 -0.1255 -0.4401
 2625POSM   C4B30803  31.479   3.703  14.372  0.1104  0.0219  0.0430
 2626DOPC   NC330804  26.134   8.069  15.805 -0.0308  0.3786 -0.1578
 2626DOPC   PO430805  25.968   7.729  16.000 -0.1519 -0.1871 -0.1751
 2626DOPC   GL130806  25.836   7.505  15.644  0.4493  0.0327  0.1636
 2626DOPC   GL230807  26.074   7.703  15.458 -0.6382  0.0786  0.0102
 2626DOPC   C1A30808  26.093   7.161  15.375  0.0526  0.4253  0.0832
 2626DOPC   D2A30809  26.340   6.896  15.138 -0.0825 -0.0218 -0.0257
 2626DOPC   C3A30810  26.445   7.079  14.710  0.1907 -0.2571 -0.2457
 2626DOPC   C4A30811  26.354   7.399  14.360  0.1978  0.1354  0.2510
 2626DOPC   C1B30812  26.372   7.620  15.130 -0.0074 -0.0650  0.1025
 2626DOPC   D2B30813  26.804   7.432  15.067  0.1472  0.1309 -0.0226
 2626DOPC   C3B30814  26.797   7.395  14.607  0.1961  0.3001 -0.2360
 2626DOPC   C4B30815  27.038   7.499  14.262 -0.2909  0.2374  0.0188
 2627DOPE   NH330816  24.879   2.116  15.504 -0.0700 -0.2784 -0.1003
 2627DOPE   PO430817  24.670   2.264  15.314  0.3799  0.2927 -0.1018
 2627DOPE   GL130818  24.783   2.483  14.895 -0.0344 -0.4301  0.0622
 2627DOPE   GL230819  24.686   2.775  15.036 -0.2321  0.0664 -0.0383
 2627DOPE   C1A30820  24.607   2.663  14.442  0.0207 -0.1150 -0.1450
 2627DOPE   D2A30821  24.626   2.614  13.949  0.3060 -0.1952  0.1875
 2627DOPE   C3A30822  25.037   2.440  13.886  0.2086 -0.0414  0.4451
 2627DOPE   C4A30823  25.455   2.312  13.958 -0.0080  0.0081 -0.0725
 2627DOPE   C1B30824  25.120   2.829  14.959  0.2421 -0.0635  0.1863
 2627DOPE   D2B30825  25.509   2.872  14.678 -0.0305 -0.2610 -0.0284
 2627DOPE   C3B30826  25.387   3.201  14.387  0.0017  0.0708  0.0179
 2627DOPE   C4B30827  25.510   3.611  14.175 -0.2266  0.0992  0.0447
 2628DOPC   NC330828  34.248   6.030  16.097  0.1763  0.2133 -0.0251
 2628DOPC   PO430829  33.899   5.876  16.177 -0.0161 -0.2070  0.4548
 2628DOPC   GL130830  33.849   5.842  15.773 -0.2711 -0.1562 -0.1165
 2628DOPC   GL230831  34.023   5.757  15.545 -0.2782  0.0617  0.0322
 2628DOPC   C1A30832  33.741   6.106  15.372  0.2116  0.0775  0.2311
 2628DOPC   D2A30833  33.637   6.199  14.961 -0.3021 -0.2150  0.0498
 2628DOPC   C3A30834  33.830   6.163  14.540  0.1076 -0.0681  0.1629
 2628DOPC   C4A30835  33.780   5.916  14.170  0.1596 -0.0177  0.1297
 2628DOPC   C1B30836  33.922   5.771  15.080 -0.0086 -0.0419 -0.1169
 2628DOPC   D2B30837  34.181   5.632  14.692 -0.0536 -0.0578  0.1429
 2628DOPC   C3B30838  34.021   5.463  14.313 -0.4519  0.1281  0.1375
 2628DOPC   C4B30839  34.141   5.567  13.918  0.2517 -0.3204 -0.2610
 2629POSM   NC330840  24.267   0.217  16.145  0.2397 -0.1447 -0.1723
 2629POSM   PO430841  24.470   0.388  15.834 -0.0311  0.1403 -0.1964
 2629POSM   AM130842  24.763   0.340  15.685 -0.2317 -0.4422  0.0981
 2629POSM   AM230843  24.897   0.132  15.568  0.1943  0.3164  0.0754
 2629POSM   T1A30844  25.068   0.516  15.342 -0.0169  0.0911 -0.1251
 2629POSM   C2A30845  25.024   0.505  14.919 -0.0402 -0.4826 -0.0583
 2629POSM   C3A30846  24.866   0.823  14.656 -0.0899 -0.3831 -0.4017
 2629POSM   C1B30847  24.765  -0.015  15.324 -0.2121  0.2486  0.0122
 2629POSM   D2B30848  24.727  -0.265  14.885  0.0083 -0.0066 -0.0007
 2629POSM   C3B30849  24.588  -0.241  14.423 -0.0570 -0.1599 -0.2339
 2629POSM   C4B30850  24.725  -0.197  13.997  0.0360 -0.1413  0.2820
 2630DOPE   NH330851  31.640   2.854  15.830  0.0840  0.2953 -0.1346
 2630DOPE   PO430852  31.483   3.110  15.796 -0.0074  0.1905 -0.3035
 2630DOPE   GL130853  31.440   3.132  15.408  0.2532 -0.0214  0.3262
 2630DOPE   GL230854  31.715   3.107  15.396 -0.0842  0.0169 -0.1076
 2630DOPE   C1A30855  31.387   2.860  15.051 -0.2636  0.2241 -0.0368
 2630DOPE   D2A30856  31.175   2.706  14.633 -0.2254 -0.0223 -0.4790
 2630DOPE   C3A30857  31.313   2.710  14.219  0.2235  0.1492  0.1657
 2630DOPE   C4A30858  31.113   2.625  13.848  0.1420  0.3850  0.1106
 2630DOPE   C1B30859  31.698   3.293  14.959 -0.0490 -0.1748  0.1468
 2630DOPE   D2B30860  31.579   3.031  14.597  0.0757  0.2458  0.2781
 2630DOPE   C3B30861  31.659   3.215  14.196  0.2509  0.0553  0.2178
 2630DOPE   C4B30862  31.815   3.252  13.822 -0.1202  0.2335  0.1183
 2631DOPE   NH330863  33.280   4.694  16.068 -0.1611  0.3087  0.3092
 2631DOPE   PO430864  33.515   4.489  16.022  0.0351 -0.1170  0.0408
 2631DOPE   GL130865  33.461   4.474  15.634  0.1508 -0.3262 -0.1194
 2631DOPE   GL230866  33.496   4.116  15.656 -0.2120 -0.0024 -0.0673
 2631DOPE   C1A30867  33.692   4.384  15.257  0.0395 -0.0198 -0.0321
 2631DOPE   D2A30868  33.996   4.515  14.944 -0.0815  0.2458 -0.0961
 2631DOPE   C3A30869  33.951   4.621  14.530  0.2384 -0.1203  0.2571
 2631DOPE   C4A30870  33.793   4.962  14.290  0.3781 -0.2293 -0.1956
 2631DOPE   C1B30871  33.277   4.036  15.255  0.2805 -0.0920 -0.2261
 2631DOPE   D2B30872  32.993   3.686  15.201 -0.0101 -0.0008  0.1925
 2631DOPE   C3B30873  33.116   3.521  14.792  0.1377  0.0459 -0.0329
 2631DOPE   C4B30874  33.097   3.582  14.318 -0.1227 -0.1652  0.0761
 2632POSM   NC330875  26.865   1.159  16.227 -0.2441  0.0022  0.1177
 2632POSM   PO430876  27.244   1.150  16.323  0.1219  0.0109  0.0291
 2632POSM   AM130877  27.271   1.081  15.988  0.1291 -0.1607 -0.3637
 2632POSM   AM230878  27.485   0.952  15.893 -0.4161 -0.1078  0.3620
 2632POSM   T1A30879  27.179   1.014  15.470  0.3163 -0.2378 -0.0619
 2632POSM   C2A30880  27.321   1.067  15.066  0.1400 -0.1539 -0.0635
 2632POSM   C3A30881  27.398   1.201  14.611 -0.0509 -0.0478 -0.0185
 2632POSM   C1B30882  27.473   0.688  15.675  0.0341  0.1198 -0.2041
 2632POSM   D2B30883  27.276   0.561  15.302 -0.0983 -0.0414 -0.2857
 2632POSM   C3B30884  27.253   0.601  14.846 -0.1447 -0.4118  0.4579
 2632POSM   C4B30885  26.960   0.692  14.489  0.0125 -0.2752  0.0608
 2633DOPS   CNO30886  30.799   1.648  16.369 -0.1697 -0.1157  0.1288
 2633DOPS   PO430887  30.427   1.669  16.343  0.1343 -0.0039  0.1456
 2633DOPS   GL130888  30.560   1.869  15.981  0.0975 -0.2842 -0.2237
 2633DOPS   GL230889  30.774   2.029  16.015 -0.2101 -0.0153  0.0644
 2633DOPS   C1A30890  30.685   1.824  15.547 -0.0380  0.0965  0.4096
 2633DOPS   D2A30891  30.792   1.446  15.296  0.1007 -0.1883 -0.1669
 2633DOPS   C3A30892  30.844   1.456  14.851  0.0280  0.2957  0.2656
 2633DOPS   C4A30893  30.906   1.729  14.438 -0.0665 -0.3864  0.1297
 2633DOPS   C1B30894  30.774   2.352  15.658 -0.2560  0.0062  0.1872
 2633DOPS   D2B30895  30.502   2.229  15.248  0.0812  0.1396  0.1639
 2633DOPS   C3B30896  30.252   2.425  14.885 -0.0409 -0.1700  0.0798
 2633DOPS   C4B30897  30.419   2.618  14.508  0.2204 -0.0573  0.1285
 2634DOPC   NC330898  26.777  11.021  15.727  0.0038 -0.2768  0.1882
 2634DOPC   PO430899  26.529  10.692  15.692  0.0521 -0.0510  0.1071
 2634DOPC   GL130900  26.720  10.537  15.442 -0.3505 -0.2814 -0.5105
 2634DOPC   GL230901  26.575  10.346  15.353  0.0211  0.1622 -0.4345
 2634DOPC   C1A30902  26.850  10.441  14.972  0.1278 -0.0088  0.0655
 2634DOPC   D2A30903  26.863  10.248  14.527 -0.1026 -0.0189  0.1797
 2634DOPC   C3A30904  27.295  10.258  14.297  0.1451  0.3479  0.0474
 2634DOPC   C4A30905  27.639  10.042  14.078 -0.0052  0.0412  0.1016
 2634DOPC   C1B30906  26.329  10.446  14.923  0.1559  0.0249  0.3065
 2634DOPC   D2B30907  26.300  10.770  14.579 -0.1201  0.3469 -0.0551
 2634DOPC   C3B30908  26.058  10.726  14.165  0.0674  0.0805 -0.1002
 2634DOPC   C4B30909  25.995  10.988  13.795  0.0310  0.1428 -0.1947
 2635POSM   NC330910  29.589   6.073  15.853 -0.1174 -0.2157 -0.1433
 2635POSM   PO430911  29.236   6.038  16.022  0.3222 -0.3952  0.1233
 2635POSM   AM130912  28.962   5.893  15.808  0.0297  0.2263 -0.0328
 2635POSM   AM230913  28.667   5.970  15.715 -0.1462 -0.2029 -0.3256
 2635POSM   T1A30914  28.856   5.627  15.406  0.2384  0.2170  0.1963
 2635POSM   C2A30915  28.566   5.623  15.017 -0.0059  0.1843  0.3159
 2635POSM   C3A30916  28.407   5.648  14.591  0.0017  0.0645  0.0072
 2635POSM   C1B30917  28.773   6.092  15.409 -0.1170  0.2109 -0.1916
 2635POSM   D2B30918  28.876   6.273  14.982 -0.2515  0.0093  0.0910
 2635POSM   C3B30919  28.835   5.936  14.632  0.5009 -0.1739 -0.0486
 2635POSM   C4B30920  28.920   5.484  14.505  0.0949 -0.2367 -0.1512
 2636DOPE   NH330921  29.539   1.942  16.902  0.0323  0.2191  0.1884
 2636DOPE   PO430922  29.591   1.997  16.557 -0.1316 -0.3367  0.1101
 2636DOPE   GL130923  29.598   1.893  16.256  0.0031  0.0602  0.1807
 2636DOPE   GL230924  29.355   1.769  16.137  0.1914  0.4432  0.1233
 2636DOPE   C1A30925  29.759   1.893  15.820  0.0198  0.0843  0.1842
 2636DOPE   D2A30926  30.181   1.994  15.667  0.0885  0.0863 -0.0872
 2636DOPE   C3A30927  30.031   2.137  15.228 -0.1106  0.0519 -0.1081
 2636DOPE   C4A30928  30.021   1.953  14.815 -0.2057  0.0632  0.2607
 2636DOPE   C1B30929  29.441   1.514  15.755 -0.0980  0.0066  0.5412
 2636DOPE   D2B30930  29.384   1.372  15.389  0.0863  0.1432  0.0466
 2636DOPE   C3B30931  29.251   1.432  14.909 -0.1057 -0.2644  0.0702
 2636DOPE   C4B30932  29.334   1.540  14.448 -0.3865 -0.2316  0.2585
 2637DOPS   CNO30933  28.968  34.566  16.254  0.1362 -0.2627 -0.1839
 2637DOPS   PO430934  29.122  34.870  15.995  0.2288 -0.0300 -0.1254
 2637DOPS   GL130935  28.997  34.897  15.645 -0.1077  0.1261  0.4397
 2637DOPS   GL230936  28.985  35.190  15.557 -0.3038  0.0911 -0.2891
 2637DOPS   C1A30937  28.700  34.922  15.267 -0.1407 -0.0521 -0.2901
 2637DOPS   D2A30938  28.535  34.794  14.874 -0.1408 -0.3319  0.1368
 2637DOPS   C3A30939  28.820  34.712  14.463 -0.0562 -0.1031 -0.2272
 2637DOPS   C4A30940  29.002  34.431  14.156  0.5296 -0.0514 -0.4546
 2637DOPS   C1B30941  28.713  35.489  15.226  0.2557  0.3383  0.0202
 2637DOPS   D2B30942  28.299  35.595  15.021 -0.0705  0.0170  0.0990
 2637DOPS   C3B30943  28.361  35.765  14.596  0.0300 -0.1126 -0.1282
 2637DOPS   C4B30944  28.563  35.966  14.244 -0.0391 -0.0282  0.2751
 2638DOPS   CNO30945  29.333   9.878  17.156  0.2739 -0.1620  0.0646
 2638DOPS   PO430946  29.609   9.933  16.925 -0.1031  0.1464  0.1714
 2638DOPS   GL130947  29.671   9.847  16.552 -0.4039  0.1853  0.1683
 2638DOPS   GL230948  29.512   9.686  16.493 -0.0693  0.0760  0.0910
 2638DOPS   C1A30949  29.480  10.103  16.209  0.2713 -0.0321 -0.0381
 2638DOPS   D2A30950  29.212  10.047  15.878  0.1850  0.4077  0.1670
 2638DOPS   C3A30951  29.098  10.291  15.480 -0.0294  0.4838 -0.1731
 2638DOPS   C4A30952  28.991  10.720  15.252 -0.2798  0.5005  0.1490
 2638DOPS   C1B30953  29.400   9.612  16.056  0.1049 -0.0345  0.0525
 2638DOPS   D2B30954  29.327   9.506  15.638  0.3633  0.0171 -0.0381
 2638DOPS   C3B30955  29.484   9.861  15.375  0.0672 -0.2098  0.2092
 2638DOPS   C4B30956  29.674  10.047  15.009  0.3350  0.3070 -0.0444
 2639DOPE   NH330957  34.199   0.887  16.256 -0.0570  0.1033  0.3086
 2639DOPE   PO430958  34.170   0.616  16.418  0.0132 -0.1316 -0.0728
 2639DOPE   GL130959  34.252   0.487  16.010  0.1137 -0.3022  0.0852
 2639DOPE   GL230960  34.091   0.171  16.091  0.0929  0.0324  0.2490
 2639DOPE   C1A30961  34.468   0.794  15.749  0.2152 -0.0898  0.0555
 2639DOPE   D2A30962  34.884   0.915  15.534  0.1017  0.1064  0.1219
 2639DOPE   C3A30963  35.025   0.889  15.079  0.1071  0.0276 -0.1383
 2639DOPE   C4A30964  34.997   0.832  14.624 -0.0308  0.1222  0.1408
 2639DOPE   C1B30965  34.526   0.021  15.954  0.2452  0.0635  0.0815
 2639DOPE   D2B30966  34.576  -0.108  15.522 -0.1651 -0.1687 -0.2757
 2639DOPE   C3B30967  34.358   0.133  15.195  0.3581  0.1363  0.1907
 2639DOPE   C4B30968  34.166   0.050  14.795  0.0913  0.1885  0.2668
 2640DOPC   NC330969  29.386   2.730  16.252 -0.1505 -0.0537 -0.0387
 2640DOPC   PO430970  29.764   2.594  16.371  0.1691  0.0348  0.0755
 2640DOPC   GL130971  29.744   2.593  16.031 -0.2260  0.4633  0.2790
 2640DOPC   GL230972  29.567   2.296  16.028  0.3358  0.0939 -0.1730
 2640DOPC   C1A30973  29.477   2.716  15.624 -0.0298  0.1945  0.0416
 2640DOPC   D2A30974  29.325   2.647  15.190 -0.4899  0.3448 -0.0461
 2640DOPC   C3A30975  29.099   2.254  15.165 -0.1033 -0.2429  0.0679
 2640DOPC   C4A30976  29.109   1.769  15.267  0.1275 -0.1893  0.2818
 2640DOPC   C1B30977  29.260   2.135  15.711 -0.0905  0.0217 -0.2799
 2640DOPC   D2B30978  28.838   2.107  15.528  0.1247 -0.3813  0.0885
 2640DOPC   C3B30979  28.654   1.991  15.145 -0.0752 -0.0773 -0.0517
 2640DOPC   C4B30980  28.509   2.136  14.704 -0.0294 -0.0633  0.0418
 2641DOPS   CNO30981  33.836   7.691  16.259  0.0572  0.2827  0.1853
 2641DOPS   PO430982  33.617   7.377  16.221 -0.0310 -0.0555 -0.0410
 2641DOPS   GL130983  33.490   7.114  15.939  0.1223 -0.0182 -0.1693
 2641DOPS   GL230984  33.203   7.163  15.884  0.0957  0.1246  0.1753
 2641DOPS   C1A30985  33.702   6.732  15.815  0.0664  0.1833 -0.1753
 2641DOPS   D2A30986  33.733   6.305  15.852  0.0394  0.0404  0.1274
 2641DOPS   C3A30987  34.119   6.233  15.665  0.0162 -0.0089 -0.1359
 2641DOPS   C4A30988  34.493   6.196  15.405 -0.1380  0.1598 -0.0391
 2641DOPS   C1B30989  33.381   7.042  15.493 -0.0447 -0.1636  0.1878
 2641DOPS   D2B30990  33.706   6.923  15.133 -0.1279 -0.0841  0.1398
 2641DOPS   C3B30991  33.728   6.685  14.717  0.4092  0.1096 -0.1120
 2641DOPS   C4B30992  33.654   6.547  14.306 -0.2041 -0.2521 -0.1740
 2642DOPE   NH330993  26.833  10.198  15.802  0.3636  0.1835 -0.1059
 2642DOPE   PO430994  26.556  10.035  15.841 -0.2088  0.2739 -0.1717
 2642DOPE   GL130995  26.671   9.799  15.592 -0.1419  0.0501 -0.1854
 2642DOPE   GL230996  26.670   9.536  15.356  0.3888 -0.4099 -0.1068
 2642DOPE   C1A30997  26.899   9.976  15.253  0.2097 -0.0035  0.3042
 2642DOPE   D2A30998  27.108  10.028  14.855  0.1275  0.0755  0.1567
 2642DOPE   C3A30999  27.302   9.795  14.489  0.1672 -0.0585  0.0258
 2642DOPE   C4A31000  27.287   9.594  14.045 -0.1062 -0.2339  0.0807
 2642DOPE   C1B31001  26.576   9.488  14.914 -0.2682  0.0510 -0.0255
 2642DOPE   D2B31002  26.453   9.187  14.608  0.0663 -0.1195 -0.2181
 2642DOPE   C3B31003  25.964   9.181  14.448 -0.2810  0.0134  0.2749
 2642DOPE   C4B31004  25.673   8.898  14.161  0.0482  0.1023 -0.1334
 2643DOPE   NH331005  30.846   7.773  16.228  0.0822  0.1945  0.2207
 2643DOPE   PO431006  31.133   7.753  16.045 -0.4727 -0.1638  0.0759
 2643DOPE   GL131007  31.300   7.942  15.790 -0.1182  0.0914 -0.0310
 2643DOPE   GL231008  31.178   8.220  15.734  0.2849 -0.1568 -0.2848
 2643DOPE   C1A31009  31.536   8.156  15.399  0.1339  0.0289 -0.2460
 2643DOPE   D2A31010  31.740   8.027  15.044 -0.1039 -0.1356 -0.0012
 2643DOPE   C3A31011  31.550   7.753  14.716 -0.2102 -0.0565  0.1198
 2643DOPE   C4A31012  31.487   7.434  14.372 -0.1563  0.1960 -0.1079
 2643DOPE   C1B31013  31.034   8.177  15.273 -0.0503 -0.0771 -0.3370
 2643DOPE   D2B31014  31.140   8.156  14.823 -0.3223  0.2110  0.5258
 2643DOPE   C3B31015  31.121   7.852  14.440  0.0800 -0.0282  0.1325
 2643DOPE   C4B31016  30.837   7.621  14.074  0.1037 -0.0400 -0.1015
 2644DOPE   NH331017  30.433   4.245  16.717 -0.1777 -0.3293 -0.2859
 2644DOPE   PO431018  30.173   4.320  16.741  0.0207  0.5846 -0.2635
 2644DOPE   GL131019  30.203   4.420  16.350 -0.0709  0.0430 -0.0198
 2644DOPE   GL231020  29.964   4.563  16.234  0.4195 -0.1135  0.0101
 2644DOPE   C1A31021  30.283   4.421  15.879 -0.1450 -0.0789 -0.1316
 2644DOPE   D2A31022  30.250   4.657  15.452 -0.1179  0.1982 -0.2299
 2644DOPE   C3A31023  30.381   4.239  15.221 -0.0800 -0.1346  0.1442
 2644DOPE   C4A31024  30.561   4.064  14.819 -0.0053  0.0177 -0.2517
 2644DOPE   C1B31025  29.849   4.710  15.823 -0.0868 -0.0615  0.0458
 2644DOPE   D2B31026  29.747   4.817  15.415 -0.1275  0.3156 -0.1650
 2644DOPE   C3B31027  29.940   4.960  14.993  0.2100  0.0432  0.0672
 2644DOPE   C4B31028  30.092   5.320  14.717 -0.1865 -0.2256  0.2417
 2645DOPC   NC331029  34.667  10.102  16.039  0.0304 -0.1667  0.1320
 2645DOPC   PO431030  34.399  10.395  16.156  0.1705  0.1888 -0.2950
 2645DOPC   GL131031  34.290  10.498  15.770  0.4034 -0.1915 -0.0713
 2645DOPC   GL231032  34.011  10.515  15.568  0.0111  0.1770 -0.0428
 2645DOPC   C1A31033  34.612  10.446  15.426  0.2295 -0.1676 -0.0222
 2645DOPC   D2A31034  35.025  10.659  15.288 -0.0281  0.1232 -0.2870
 2645DOPC   C3A31035  35.480  10.647  15.200 -0.0574  0.5738  0.0271
 2645DOPC   C4A31036  35.805  10.692  15.476 -0.1999 -0.2080 -0.2036
 2645DOPC   C1B31037  34.293  10.843  15.455 -0.0229 -0.2718  0.2863
 2645DOPC   D2B31038  34.624  10.830  15.119 -0.3132  0.0259  0.1102
 2645DOPC   C3B31039  34.661  10.548  14.729  0.2072  0.0342  0.1746
 2645DOPC   C4B31040  34.617  10.472  14.316  0.3420  0.0873  0.1357
 2646POSM   NC331041  25.758   6.993  15.787 -0.4329 -0.0687 -0.3451
 2646POSM   PO431042  25.716   6.706  16.083 -0.0435 -0.1024 -0.0229
 2646POSM   AM131043  25.760   6.553  15.800  0.2557  0.1905  0.1309
 2646POSM   AM231044  25.570   6.449  15.597  0.0188  0.1948 -0.0957
 2646POSM   T1A31045  25.984   6.165  15.588  0.0046  0.0600 -0.4180
 2646POSM   C2A31046  25.830   5.851  15.268 -0.0967  0.1618 -0.1339
 2646POSM   C3A31047  25.928   5.692  14.777 -0.1409  0.3659  0.0804
 2646POSM   C1B31048  25.286   6.267  15.618  0.0880  0.2358 -0.1643
 2646POSM   D2B31049  24.963   5.999  15.447 -0.1674  0.1974 -0.1932
 2646POSM   C3B31050  24.833   5.572  15.210 -0.1162  0.2949  0.2199
 2646POSM   C4B31051  24.691   5.176  15.082 -0.0994 -0.3481 -0.0437
 2647POSM   NC331052  23.558   9.319  15.853 -0.3174  0.0278  0.0983
 2647POSM   PO431053  23.425   9.622  15.624 -0.3374 -0.1423  0.0769
 2647POSM   AM131054  23.204   9.609  15.398  0.0925 -0.0405  0.1369
 2647POSM   AM231055  23.162   9.404  15.209 -0.2062  0.0556 -0.0509
 2647POSM   T1A31056  22.861   9.771  15.073 -0.0236  0.0299 -0.0346
 2647POSM   C2A31057  22.818   9.811  14.660  0.0879 -0.5703  0.1417
 2647POSM   C3A31058  22.723   9.984  14.271  0.0402  0.5737 -0.0302
 2647POSM   C1B31059  23.101   9.422  14.902  0.1821  0.1042 -0.1514
 2647POSM   D2B31060  22.943   9.344  14.503 -0.2293 -0.4549  0.1872
 2647POSM   C3B31061  23.241   9.202  14.182  0.4196 -0.0866 -0.2237
 2647POSM   C4B31062  23.677   9.116  14.015 -0.0331 -0.0990  0.4317
 2648DOPC   NC331063  28.499   4.769  15.891  0.0843  0.0947 -0.2145
 2648DOPC   PO431064  28.247   4.560  16.039 -0.0130  0.0414 -0.1054
 2648DOPC   GL131065  28.351   4.274  15.747 -0.3387  0.0609 -0.1275
 2648DOPC   GL231066  28.132   4.421  15.551  0.0063  0.0522 -0.1491
 2648DOPC   C1A31067  28.727   3.986  15.711 -0.0061  0.0155 -0.1900
 2648DOPC   D2A31068  29.020   3.701  15.572 -0.2474 -0.2942  0.0817
 2648DOPC   C3A31069  28.970   3.756  15.145  0.0886 -0.0791  0.0303
 2648DOPC   C4A31070  28.680   3.780  14.803  0.0540 -0.2365  0.0598
 2648DOPC   C1B31071  28.443   4.563  15.254  0.3273 -0.1099 -0.0562
 2648DOPC   D2B31072  28.849   4.704  15.104 -0.0649  0.3529 -0.0791
 2648DOPC   C3B31073  29.014   4.891  14.710 -0.2179  0.2124 -0.2690
 2648DOPC   C4B31074  29.336   4.749  14.397  0.0862  0.0725 -0.0013
 2649DOPC   NC331075  31.377   4.866  16.260 -0.0500 -0.0315  0.0427
 2649DOPC   PO431076  30.963   4.896  16.313  0.0023 -0.0469 -0.2612
 2649DOPC   GL131077  30.825   5.040  15.883 -0.0864 -0.6028  0.0082
 2649DOPC   GL231078  30.871   4.816  15.740 -0.0662  0.1352 -0.1004
 2649DOPC   C1A31079  30.977   5.233  15.444 -0.0320 -0.0938 -0.0655
 2649DOPC   D2A31080  31.287   5.387  15.215  0.1559  0.0199  0.2615
 2649DOPC   C3A31081  31.072   5.528  14.898  0.1528  0.2631 -0.3655
 2649DOPC   C4A31082  30.975   5.729  14.479 -0.0121 -0.1530 -0.3648
 2649DOPC   C1B31083  30.752   4.453  15.522  0.0740  0.1207 -0.1529
 2649DOPC   D2B31084  30.867   4.324  15.107 -0.0624  0.0376  0.2140
 2649DOPC   C3B31085  30.751   4.473  14.636  0.0769  0.0639 -0.1123
 2649DOPC   C4B31086  30.779   4.780  14.291 -0.0267 -0.1877  0.1812
 2650DOPS   CNO31087  23.789   7.658  15.419 -0.1743 -0.0058  0.1476
 2650DOPS   PO431088  23.692   7.981  15.555  0.2553 -0.0465  0.0581
 2650DOPS   GL131089  24.017   8.029  15.253 -0.0631  0.2000 -0.0627
 2650DOPS   GL231090  23.964   8.333  15.143  0.2553 -0.1432 -0.0223
 2650DOPS   C1A31091  24.323   8.085  14.865 -0.2295 -0.3271  0.1170
 2650DOPS   D2A31092  24.642   8.199  14.583 -0.3820 -0.1239 -0.3070
 2650DOPS   C3A31093  24.947   7.874  14.562 -0.0376 -0.0306  0.0335
 2650DOPS   C4A31094  24.964   7.387  14.573  0.0865  0.2833 -0.2766
 2650DOPS   C1B31095  23.983   8.549  14.726  0.0666 -0.3730  0.0689
 2650DOPS   D2B31096  24.166   8.415  14.318 -0.0188 -0.0464  0.0881
 2650DOPS   C3B31097  24.601   8.340  14.143 -0.1727  0.2031  0.0907
 2650DOPS   C4B31098  25.061   8.282  14.280 -0.2401  0.1150  0.2107
 2651DOPE   NH331099  31.336   1.137  16.340  0.2341  0.1291  0.0802
 2651DOPE   PO431100  31.007   1.162  16.291  0.1867 -0.0502  0.2841
 2651DOPE   GL131101  30.846   0.992  16.002 -0.0845  0.0681 -0.0981
 2651DOPE   GL231102  30.736   1.213  15.899  0.2284 -0.0841 -0.2951
 2651DOPE   C1A31103  31.083   0.934  15.564  0.3535  0.1685 -0.0652
 2651DOPE   D2A31104  31.262   0.705  15.207  0.2528  0.0329  0.0701
 2651DOPE   C3A31105  31.139   0.888  14.702 -0.2487 -0.1901 -0.1149
 2651DOPE   C4A31106  30.933   0.826  14.300  0.2143 -0.0482  0.0347
 2651DOPE   C1B31107  30.399   1.304  15.539  0.0295  0.2105 -0.1727
 2651DOPE   D2B31108  30.300   1.638  15.327  0.1638 -0.2378  0.5080
 2651DOPE   C3B31109  30.528   1.847  14.978  0.0156  0.0111  0.0578
 2651DOPE   C4B31110  30.490   2.035  14.524 -0.0826 -0.2090 -0.0264
 2652DOPS   CNO31111  32.664   5.160  16.563 -0.0673  0.1693  0.0145
 2652DOPS   PO431112  32.894   4.953  16.284 -0.3796 -0.1408 -0.0781
 2652DOPS   GL131113  32.826   4.878  15.874  0.0226 -0.2010 -0.0233
 2652DOPS   GL231114  32.622   4.710  15.908 -0.0010  0.0673 -0.0178
 2652DOPS   C1A31115  32.448   5.157  15.793  0.2252 -0.2140  0.2388
 2652DOPS   D2A31116  32.329   5.608  15.721 -0.1124  0.1970  0.4049
 2652DOPS   C3A31117  32.571   5.884  15.415  0.0648 -0.5695  0.0489
 2652DOPS   C4A31118  32.922   5.890  15.061 -0.2598 -0.0338  0.1494
 2652DOPS   C1B31119  32.562   4.620  15.461  0.1475  0.0555 -0.0940
 2652DOPS   D2B31120  32.262   4.525  15.102  0.2077 -0.5663 -0.2138
 2652DOPS   C3B31121  32.380   4.132  14.835  0.1039 -0.1335 -0.0607
 2652DOPS   C4B31122  32.452   4.090  14.382 -0.0437 -0.1824 -0.1526
 2653DOPE   NH331123  33.272   1.421  12.242  0.1508 -0.0004 -0.0880
 2653DOPE   PO431124  33.436   1.637  12.359  0.1514 -0.0732 -0.2439
 2653DOPE   GL131125  33.799   1.523  12.292  0.0583  0.3415  0.0516
 2653DOPE   GL231126  33.834   1.328  12.159 -0.0002 -0.2801 -0.0041
 2653DOPE   C1A31127  34.092   1.776  12.023 -0.2201 -0.3342  0.0985
 2653DOPE   D2A31128  34.583   1.855  12.071 -0.0110 -0.0622  0.5015
 2653DOPE   C3A31129  34.389   1.737  12.499  0.1358 -0.0950  0.2729
 2653DOPE   C4A31130  34.340   1.526  12.892  0.0303  0.0575  0.3045
 2653DOPE   C1B31131  34.206   1.234  12.438 -0.0570 -0.2074 -0.1173
 2653DOPE   D2B31132  34.686   1.240  12.333 -0.0733 -0.1705  0.1831
 2653DOPE   C3B31133  35.042   1.093  12.583 -0.2971 -0.1665  0.2374
 2653DOPE   C4B31134  35.518   1.120  12.487 -0.0671  0.2360 -0.3102
 2654DOPS   CNO31135  25.721   4.412  12.389 -0.1247  0.1548 -0.0142
 2654DOPS   PO431136  25.677   4.394  12.729 -0.3257 -0.2523  0.2888
 2654DOPS   GL131137  25.709   4.183  13.124 -0.1692  0.1198 -0.0065
 2654DOPS   GL231138  25.582   3.953  12.995 -0.0524  0.1004  0.0517
 2654DOPS   C1A31139  26.027   4.305  13.455 -0.1995  0.1480  0.1687
 2654DOPS   D2A31140  26.129   4.023  13.783  0.0882  0.4974 -0.0251
 2654DOPS   C3A31141  25.705   3.815  13.630 -0.1017  0.4184  0.2983
 2654DOPS   C4A31142  25.694   3.534  13.257  0.0679 -0.1924 -0.4480
 2654DOPS   C1B31143  25.222   3.828  13.256  0.0547 -0.3681  0.0816
 2654DOPS   D2B31144  24.906   3.483  13.175 -0.2155  0.5301  0.2378
 2654DOPS   C3B31145  24.966   3.325  12.723 -0.1581 -0.1197  0.0571
 2654DOPS   C4B31146  24.851   3.117  12.279 -0.1720  0.0156 -0.2369
 2655DOPE   NH331147  32.241   0.792  12.399 -0.0522 -0.0111 -0.1103
 2655DOPE   PO431148  32.234   1.092  12.375 -0.0188 -0.0578  0.3730
 2655DOPE   GL131149  32.092   1.422  12.500 -0.0212 -0.1368 -0.2119
 2655DOPE   GL231150  32.263   1.543  12.201 -0.0763 -0.0769 -0.1897
 2655DOPE   C1A31151  32.181   1.756  12.844  0.2202 -0.0593  0.0833
 2655DOPE   D2A31152  32.207   2.083  13.152 -0.2145  0.3637  0.0595
 2655DOPE   C3A31153  31.909   2.394  13.043 -0.0066  0.3722 -0.3333
 2655DOPE   C4A31154  31.646   2.628  13.279 -0.0130  0.5120 -0.0765
 2655DOPE   C1B31155  32.531   1.897  12.474  0.0205 -0.0604 -0.0545
 2655DOPE   D2B31156  32.672   2.322  12.505 -0.3199  0.1821 -0.2199
 2655DOPE   C3B31157  32.877   2.445  12.869  0.1177 -0.0783 -0.0594
 2655DOPE   C4B31158  33.155   2.779  13.058  0.0467 -0.0550  0.4106
 2656DOPE   NH331159  33.303   0.887  12.824 -0.0312  0.0928  0.0408
 2656DOPE   PO431160  33.177   0.997  12.573  0.1513  0.2179 -0.1479
 2656DOPE   GL131161  32.995   1.216  12.767 -0.1209  0.0244  0.0989
 2656DOPE   GL231162  33.133   1.454  12.877  0.2088 -0.4682  0.1396
 2656DOPE   C1A31163  32.756   1.377  13.123  0.2625  0.0119  0.0429
 2656DOPE   D2A31164  32.495   1.640  13.445 -0.1580  0.0700 -0.0299
 2656DOPE   C3A31165  32.470   2.096  13.568  0.1109  0.1070 -0.1615
 2656DOPE   C4A31166  32.602   2.381  13.928 -0.2288 -0.1672  0.1613
 2656DOPE   C1B31167  33.512   1.741  12.997  0.3086  0.0194 -0.3146
 2656DOPE   D2B31168  33.570   2.177  12.930 -0.0754  0.1336 -0.3467
 2656DOPE   C3B31169  33.206   2.282  13.185  0.0984  0.2351  0.1986
 2656DOPE   C4B31170  32.852   2.464  13.392 -0.2776  0.0323  0.0214
 2657DOPC   NC331171  32.533   1.336  12.639  0.1582  0.4065  0.0519
 2657DOPC   PO431172  32.784   1.202  12.325 -0.1680  0.1275 -0.1067
 2657DOPC   GL131173  32.869   1.609  12.579 -0.0751  0.1547 -0.5214
 2657DOPC   GL231174  33.118   1.883  12.588  0.2332 -0.0623  0.0443
 2657DOPC   C1A31175  32.718   1.907  12.907  0.0009  0.1411  0.2785
 2657DOPC   D2A31176  32.882   1.967  13.314  0.2836 -0.0053 -0.3884
 2657DOPC   C3A31177  33.162   1.565  13.395  0.2087 -0.1672 -0.2738
 2657DOPC   C4A31178  33.531   1.322  13.331 -0.1039  0.1306 -0.2699
 2657DOPC   C1B31179  33.233   2.359  12.619  0.0043  0.1406 -0.2423
 2657DOPC   D2B31180  33.245   2.814  12.459  0.0998 -0.0875 -0.0274
 2657DOPC   C3B31181  32.857   3.003  12.567 -0.2964 -0.0089 -0.0611
 2657DOPC   C4B31182  32.586   3.385  12.531  0.2904 -0.3139  0.0090
 2658DOPC   NC331183  25.850   7.472  12.165  0.1150  0.0459  0.1288
 2658DOPC   PO431184  25.756   7.868  12.163 -0.3651  0.0237  0.1529
 2658DOPC   GL131185  25.474   8.020  12.518  0.3543 -0.2638  0.4080
 2658DOPC   GL231186  25.340   7.840  12.582 -0.1105  0.0708  0.1059
 2658DOPC   C1A31187  25.510   8.255  12.927  0.0455  0.1997 -0.2021
 2658DOPC   D2A31188  25.787   8.385  13.301  0.0254 -0.0673  0.0877
 2658DOPC   C3A31189  25.952   8.165  13.681  0.2232 -0.0713 -0.2839
 2658DOPC   C4A31190  25.810   7.897  14.054  0.0460 -0.1289 -0.1414
 2658DOPC   C1B31191  25.255   7.851  13.042  0.0002 -0.1540 -0.0101
 2658DOPC   D2B31192  25.424   8.048  13.413 -0.3581 -0.2632  0.3880
 2658DOPC   C3B31193  25.246   8.020  13.864  0.1783  0.0206  0.0944
 2658DOPC   C4B31194  25.386   7.883  14.278 -0.2003 -0.3586 -0.0062
 2659DOPE   NH331195  23.540   7.534  12.062 -0.2491  0.0148 -0.1686
 2659DOPE   PO431196  23.511   7.396  12.340  0.1045  0.0750  0.2892
 2659DOPE   GL131197  23.351   7.300  12.709 -0.0079 -0.0151  0.3870
 2659DOPE   GL231198  23.287   7.567  12.783  0.3063  0.0846  0.0386
 2659DOPE   C1A31199  22.979   7.181  12.953  0.0967  0.1022  0.0928
 2659DOPE   D2A31200  22.573   7.331  12.822 -0.2115  0.0269  0.0434
 2659DOPE   C3A31201  22.346   7.711  12.948 -0.0947  0.1838  0.5120
 2659DOPE   C4A31202  22.104   8.102  12.860 -0.3149  0.1393 -0.2820
 2659DOPE   C1B31203  22.991   7.645  13.130 -0.1325  0.0249  0.0385
 2659DOPE   D2B31204  22.645   7.474  13.386  0.3308  0.0736  0.0221
 2659DOPE   C3B31205  22.325   7.747  13.583  0.2372  0.1463 -0.1928
 2659DOPE   C4B31206  22.383   7.880  14.030  0.1279  0.4930  0.0837
 2660DOPE   NH331207   0.016  10.529  12.366 -0.1059  0.2219 -0.0115
 2660DOPE   PO431208  -0.120  10.724  12.580  0.2467 -0.0153  0.0965
 2660DOPE   GL131209  -0.096  10.401  12.771 -0.2981 -0.0632  0.1793
 2660DOPE   GL231210   0.147  10.183  12.714 -0.0395 -0.0449 -0.2947
 2660DOPE   C1A31211  -0.293  10.140  13.087 -0.2130 -0.0429 -0.2215
 2660DOPE   D2A31212  -0.260   9.970  13.524 -0.0795 -0.0336  0.0146
 2660DOPE   C3A31213   0.163   9.779  13.606 -0.1456  0.0573  0.2761
 2660DOPE   C4A31214   0.321   9.378  13.771  0.0171  0.0126 -0.2519
 2660DOPE   C1B31215   0.103   9.817  13.046 -0.1406 -0.1911  0.0503
 2660DOPE   D2B31216   0.042   9.456  13.307 -0.1266  0.1177 -0.0846
 2660DOPE   C3B31217  -0.225   9.487  13.624 -0.0162 -0.2807  0.1075
 2660DOPE   C4B31218  -0.594   9.679  13.842 -0.0284  0.1397  0.0691
 2661DOPE   NH331219  29.945   5.061  12.464  0.0542 -0.0246  0.0111
 2661DOPE   PO431220  29.939   5.375  12.530  0.1302  0.1344 -0.2403
 2661DOPE   GL131221  29.849   5.333  12.911  0.0302 -0.2782  0.0502
 2661DOPE   GL231222  29.988   5.085  13.014 -0.0682 -0.1621  0.0775
 2661DOPE   C1A31223  29.648   5.667  13.145  0.1448 -0.0479 -0.0077
 2661DOPE   D2A31224  29.516   5.791  13.549 -0.0021  0.0399 -0.2351
 2661DOPE   C3A31225  29.890   5.954  13.767 -0.0944  0.2184 -0.1710
 2661DOPE   C4A31226  30.250   6.075  13.550 -0.0539  0.1222  0.2399
 2661DOPE   C1B31227  30.104   5.032  13.475 -0.1617 -0.1351 -0.0019
 2661DOPE   D2B31228  30.047   5.209  13.948  0.1169 -0.1574 -0.3098
 2661DOPE   C3B31229  30.297   5.653  13.959 -0.0588  0.1809 -0.0019
 2661DOPE   C4B31230  30.402   6.081  14.135  0.1355  0.5705 -0.2557
 2662POSM   NC331231  23.519   8.415  12.516  0.2920  0.3504 -0.0440
 2662POSM   PO431232  23.552   8.363  12.106 -0.3322 -0.3624 -0.4605
 2662POSM   AM131233  23.784   8.600  12.185 -0.0781 -0.3262  0.0284
 2662POSM   AM231234  23.973   8.666  12.425  0.0787 -0.0624  0.2351
 2662POSM   T1A31235  24.201   8.950  12.072  0.0932  0.2733  0.1435
 2662POSM   C2A31236  24.649   9.017  12.223  0.1090 -0.4055 -0.1437
 2662POSM   C3A31237  24.704   9.223  12.606 -0.0887 -0.3102  0.2213
 2662POSM   C1B31238  24.303   8.766  12.587  0.3010 -0.0435  0.2719
 2662POSM   D2B31239  24.739   8.765  12.738 -0.1447 -0.0735  0.0929
 2662POSM   C3B31240  24.722   8.950  13.142  0.0060 -0.0094  0.1154
 2662POSM   C4B31241  25.007   9.156  13.434  0.0047  0.0379 -0.2638
 2663DOPE   NH331242  27.645   7.823  12.544  0.0653 -0.3817 -0.0930
 2663DOPE   PO431243  27.475   7.617  12.313  0.0136  0.1264 -0.2953
 2663DOPE   GL131244  27.293   7.673  12.757  0.0205  0.0266 -0.0041
 2663DOPE   GL231245  27.436   7.502  12.906  0.1276 -0.4650 -0.0847
 2663DOPE   C1A31246  27.500   7.936  13.072  0.0732  0.2000  0.0585
 2663DOPE   D2A31247  27.646   7.919  13.507 -0.0087 -0.1873 -0.1390
 2663DOPE   C3A31248  27.588   8.191  13.842 -0.2042 -0.0496 -0.0857
 2663DOPE   C4A31249  27.584   8.653  13.875  0.1894 -0.1875  0.1555
 2663DOPE   C1B31250  27.536   7.446  13.404 -0.1929  0.1228 -0.1820
 2663DOPE   D2B31251  27.301   7.626  13.760  0.1584 -0.1145 -0.1283
 2663DOPE   C3B31252  27.186   7.899  14.069 -0.0024 -0.2900 -0.0086
 2663DOPE   C4B31253  27.199   8.147  14.465 -0.0293  0.3997 -0.1322
 2664POSM   NC331254  30.350   8.295  12.547  0.1182 -0.0530  0.3488
 2664POSM   PO431255  30.015   8.245  12.771 -0.1733  0.0962  0.1064
 2664POSM   AM131256  30.206   8.230  13.015  0.3304 -0.3894 -0.0215
 2664POSM   AM231257  30.399   8.090  13.080 -0.0417  0.0999  0.0827
 2664POSM   T1A31258  30.246   8.474  13.460 -0.2115  0.1771 -0.0022
 2664POSM   C2A31259  30.316   8.632  13.912 -0.0720  0.0749  0.1989
 2664POSM   C3A31260  30.495   8.708  14.334  0.0787  0.0837  0.0669
 2664POSM   C1B31261  30.627   7.874  13.240  0.3087  0.0266  0.2345
 2664POSM   D2B31262  30.989   7.812  13.549  0.3732  0.1706 -0.0828
 2664POSM   C3B31263  31.073   7.367  13.671  0.1662  0.0317  0.2776
 2664POSM   C4B31264  31.382   7.155  13.890  0.0759  0.1768  0.4655
 2665POSM   NC331265  22.736   0.341  11.884 -0.1283 -0.1002  0.4596
 2665POSM   PO431266  23.088   0.293  12.006 -0.1631  0.0426  0.0827
 2665POSM   AM131267  23.336   0.370  12.204  0.2182 -0.1840  0.0258
 2665POSM   AM231268  23.544   0.213  12.330 -0.0847  0.0998  0.1647
 2665POSM   T1A31269  23.709   0.730  12.260  0.0273  0.1216 -0.1031
 2665POSM   C2A31270  24.169   0.940  12.232  0.0146  0.4702  0.0381
 2665POSM   C3A31271  24.504   1.049  12.520  0.1857 -0.0167 -0.1009
 2665POSM   C1B31272  23.736   0.348  12.558 -0.0082  0.1441  0.0942
 2665POSM   D2B31273  24.065   0.637  12.596  0.0974  0.1428  0.0584
 2665POSM   C3B31274  24.195   0.916  13.012 -0.1406  0.0794  0.1719
 2665POSM   C4B31275  24.501   0.982  13.314 -0.0495 -0.0834 -0.0661
 2666DOPC   NC331276  34.099   9.137  12.066 -0.0487  0.2317  0.4236
 2666DOPC   PO431277  33.826   9.241  12.336  0.0499  0.0916  0.0879
 2666DOPC   GL131278  34.108   9.372  12.527 -0.3026  0.1120 -0.0184
 2666DOPC   GL231279  33.921   9.320  12.844 -0.2919  0.0872 -0.0286
 2666DOPC   C1A31280  34.181   9.865  12.592 -0.0377  0.2421  0.3346
 2666DOPC   D2A31281  34.412  10.110  12.265 -0.2692 -0.3635 -0.4365
 2666DOPC   C3A31282  34.412   9.863  11.871 -0.1121  0.0158 -0.1655
 2666DOPC   C4A31283  34.445   9.465  11.698 -0.5644 -0.2060  0.0165
 2666DOPC   C1B31284  33.441   9.271  13.021 -0.2522 -0.2930  0.0473
 2666DOPC   D2B31285  33.077   9.484  13.049 -0.2734 -0.0445  0.0344
 2666DOPC   C3B31286  32.902   9.800  12.685  0.4383  0.3392 -0.0052
 2666DOPC   C4B31287  33.192  10.198  12.627  0.4919  0.1362  0.0105
 2667DOPC   NC331288  30.606   9.396  12.447 -0.0692  0.1464 -0.2524
 2667DOPC   PO431289  30.567   9.030  12.359  0.2829 -0.1590 -0.1298
 2667DOPC   GL131290  30.646   9.031  12.793  0.3214  0.1304  0.1410
 2667DOPC   GL231291  30.844   9.270  12.855 -0.0471  0.2359  0.0332
 2667DOPC   C1A31292  31.012   8.900  13.054 -0.0846 -0.2269  0.0294
 2667DOPC   D2A31293  31.093   8.644  13.477  0.1490 -0.1742 -0.0601
 2667DOPC   C3A31294  31.345   8.796  13.859  0.0491 -0.2441 -0.1725
 2667DOPC   C4A31295  31.701   8.555  14.016 -0.0817 -0.3343  0.0612
 2667DOPC   C1B31296  31.262   9.333  13.048  0.2874 -0.0006 -0.0521
 2667DOPC   D2B31297  31.668   9.300  13.291 -0.4679  0.1515 -0.0175
 2667DOPC   C3B31298  31.626   9.465  13.716 -0.0065  0.2219 -0.2202
 2667DOPC   C4B31299  31.335   9.443  14.035  0.0900 -0.4371  0.0379
 2668DOPC   NC331300  26.341   5.198  12.106 -0.0082 -0.2430  0.1973
 2668DOPC   PO431301  26.690   5.288  12.191 -0.0277  0.4440 -0.1345
 2668DOPC   GL131302  26.946   5.232  12.512 -0.1794 -0.2780  0.0651
 2668DOPC   GL231303  26.878   5.443  12.662 -0.1673 -0.1549 -0.2001
 2668DOPC   C1A31304  27.280   5.349  12.853  0.2988 -0.0541 -0.1270
 2668DOPC   D2A31305  27.543   5.384  13.238  0.2021 -0.2102 -0.2693
 2668DOPC   C3A31306  27.583   5.037  13.530  0.1568 -0.0045  0.2061
 2668DOPC   C4A31307  27.486   4.660  13.814  0.1452  0.2803  0.1460
 2668DOPC   C1B31308  27.328   5.504  12.399  0.0184  0.2049  0.2275
 2668DOPC   D2B31309  27.769   5.326  12.299  0.0031 -0.1896  0.0429
 2668DOPC   C3B31310  28.138   4.990  12.270  0.4641  0.1907 -0.2421
 2668DOPC   C4B31311  28.200   4.500  12.265 -0.0227  0.0525 -0.1909
 2669DOPE   NH331312  30.802   0.979  12.681  0.0313  0.0850 -0.1133
 2669DOPE   PO431313  30.579   0.945  12.501  0.2794  0.0016 -0.2182
 2669DOPE   GL131314  30.257   0.758  12.708  0.4653 -0.1008 -0.1144
 2669DOPE   GL231315  30.224   1.023  12.876 -0.2775 -0.5022  0.1859
 2669DOPE   C1A31316  30.258   0.556  13.128 -0.0157  0.0135 -0.1112
 2669DOPE   D2A31317  29.948   0.555  13.525  0.3431 -0.3524 -0.0249
 2669DOPE   C3A31318  29.790   0.152  13.683 -0.2665  0.0935 -0.3437
 2669DOPE   C4A31319  29.419  -0.016  13.898  0.0049  0.2967  0.0014
 2669DOPE   C1B31320  30.161   1.252  13.232 -0.1922  0.1296 -0.0838
 2669DOPE   D2B31321  30.114   1.660  13.405  0.1276  0.0231  0.1871
 2669DOPE   C3B31322  29.832   1.618  13.764  0.0261 -0.1244  0.1817
 2669DOPE   C4B31323  29.837   1.519  14.240  0.2235  0.0950 -0.0683
 2670POSM   NC331324  29.731   0.550  12.975 -0.2313 -0.1279  0.0254
 2670POSM   PO431325  29.709   0.699  12.634 -0.0202 -0.2769 -0.2354
 2670POSM   AM131326  29.608   0.451  12.468 -0.1709  0.2020 -0.0023
 2670POSM   AM231327  29.592   0.184  12.525  0.1597 -0.0736 -0.1492
 2670POSM   T1A31328  29.152   0.232  12.355  0.2008 -0.2795 -0.1145
 2670POSM   C2A31329  29.100  -0.224  12.387  0.4718 -0.2194 -0.1033
 2670POSM   C3A31330  28.929  -0.350  12.817 -0.1740  0.0739 -0.1265
 2670POSM   C1B31331  29.498   0.046  12.839  0.1874 -0.3621  0.0273
 2670POSM   D2B31332  29.546   0.002  13.258  0.0872 -0.1085 -0.1913
 2670POSM   C3B31333  29.671  -0.301  13.569 -0.2201 -0.0560 -0.0567
 2670POSM   C4B31334  29.740  -0.745  13.510 -0.0626  0.2218 -0.1767
 2671DOPE   NH331335  23.211   9.220  11.981  0.1247  0.3386  0.1260
 2671DOPE   PO431336  23.498   9.304  11.961 -0.2995  0.1642  0.1473
 2671DOPE   GL131337  23.705   9.102  12.239 -0.0330 -0.1367  0.1819
 2671DOPE   GL231338  23.477   8.897  12.301 -0.0961 -0.1298  0.0028
 2671DOPE   C1A31339  24.067   9.203  12.497 -0.0067 -0.3412  0.0497
 2671DOPE   D2A31340  24.397   9.570  12.640 -0.1195 -0.0042  0.0459
 2671DOPE   C3A31341  24.791   9.679  12.887 -0.1224 -0.2705 -0.3239
 2671DOPE   C4A31342  24.998   9.709  13.326  0.1864 -0.0389  0.1187
 2671DOPE   C1B31343  23.666   8.909  12.740 -0.3197  0.4558 -0.1521
 2671DOPE   D2B31344  24.109   8.931  13.006  0.3046  0.0838  0.0047
 2671DOPE   C3B31345  24.353   8.635  13.110  0.2731 -0.0454  0.1454
 2671DOPE   C4B31346  24.447   8.343  13.441 -0.0954  0.2447 -0.0638
 2672DOPC   NC331347  32.085   0.529  12.904 -0.2094  0.2933  0.0260
 2672DOPC   PO431348  32.429   0.428  12.982  0.0067 -0.1961 -0.0036
 2672DOPC   GL131349  32.611   0.564  13.340 -0.1299  0.0292 -0.2594
 2672DOPC   GL231350  32.401   0.322  13.453  0.1345  0.1353  0.0837
 2672DOPC   C1A31351  32.784   0.545  13.778  0.1156  0.1481  0.1114
 2672DOPC   D2A31352  32.803   0.080  13.968 -0.1301  0.1569 -0.2019
 2672DOPC   C3A31353  32.408  -0.090  14.139  0.2623  0.1834  0.1533
 2672DOPC   C4A31354  32.083  -0.362  14.409 -0.3207 -0.0840 -0.2823
 2672DOPC   C1B31355  32.291   0.718  13.652 -0.3372  0.1837  0.1484
 2672DOPC   D2B31356  32.338   0.961  14.068  0.1820  0.1416  0.2742
 2672DOPC   C3B31357  32.715   0.999  14.400 -0.1004  0.0888  0.0237
 2672DOPC   C4B31358  33.085   0.821  14.575 -0.0058 -0.0577  0.0655
 2673POSM   NC331359  31.003   0.765  12.286 -0.1250  0.1323 -0.1717
 2673POSM   PO431360  31.276   0.799  12.593  0.1849  0.2147  0.0049
 2673POSM   AM131361  31.203   0.710  12.912  0.0325 -0.0187 -0.0995
 2673POSM   AM231362  30.934   0.706  13.060 -0.0784 -0.2156  0.0492
 2673POSM   T1A31363  31.269   0.477  13.388 -0.4404 -0.2062  0.0503
 2673POSM   C2A31364  31.027   0.146  13.619  0.1306  0.2163 -0.1406
 2673POSM   C3A31365  30.646  -0.149  13.753 -0.1145  0.0342  0.0418
 2673POSM   C1B31366  30.747   0.515  13.283 -0.0262  0.2193  0.1311
 2673POSM   D2B31367  30.494   0.320  13.611  0.2304 -0.3452  0.1498
 2673POSM   C3B31368  30.737   0.457  13.956 -0.0082 -0.3220  0.1868
 2673POSM   C4B31369  31.211   0.526  13.944  0.4166  0.1444  0.2739
 2674DOPE   NH331370  32.303   5.695  12.464 -0.0796 -0.1272  0.0217
 2674DOPE   PO431371  32.270   5.862  12.756 -0.1333  0.0617 -0.1781
 2674DOPE   GL131372  32.046   6.256  12.748 -0.2972  0.0426  0.4180
 2674DOPE   GL231373  31.810   6.142  12.646  0.1069  0.0557  0.0674
 2674DOPE   C1A31374  31.723   6.546  12.918 -0.2398  0.2380  0.0614
 2674DOPE   D2A31375  31.536   6.988  12.900  0.1124  0.0685  0.0905
 2674DOPE   C3A31376  31.285   7.043  13.293 -0.0556  0.1210  0.2816
 2674DOPE   C4A31377  31.211   6.713  13.607 -0.3581  0.3304 -0.0243
 2674DOPE   C1B31378  31.590   6.072  13.093 -0.4603  0.0111  0.0321
 2674DOPE   D2B31379  31.518   6.310  13.429  0.1923 -0.1002  0.1143
 2674DOPE   C3B31380  31.384   6.261  13.898  0.0567  0.0412  0.0413
 2674DOPE   C4B31381  31.092   6.520  14.123  0.0739 -0.1227 -0.1070
 2675DOPE   NH331382  22.986   2.992  12.948  0.1107 -0.2220  0.1399
 2675DOPE   PO431383  22.683   2.899  12.943 -0.0922  0.0141  0.3921
 2675DOPE   GL131384  22.515   3.210  13.010  0.0963 -0.0028 -0.1354
 2675DOPE   GL231385  22.681   3.452  12.859  0.1409 -0.2105 -0.0678
 2675DOPE   C1A31386  22.325   3.676  13.095  0.0790  0.2576 -0.0897
 2675DOPE   D2A31387  22.500   4.013  13.406  0.0740 -0.2363  0.1625
 2675DOPE   C3A31388  22.951   3.909  13.560  0.1510 -0.2438 -0.1327
 2675DOPE   C4A31389  23.264   3.770  13.250 -0.1990  0.1926  0.1335
 2675DOPE   C1B31390  22.842   3.854  13.049  0.1097  0.3175  0.1253
 2675DOPE   D2B31391  23.169   4.204  13.019  0.2148 -0.0514  0.1614
 2675DOPE   C3B31392  23.457   4.407  12.725  0.4359 -0.0958 -0.1340
 2675DOPE   C4B31393  23.638   4.474  12.314 -0.0993  0.0941 -0.4702
 2676DOPC   NC331394  27.650   7.113  12.232 -0.2122  0.2342 -0.3167
 2676DOPC   PO431395  27.495   7.160  12.558  0.2959  0.0912  0.3846
 2676DOPC   GL131396  27.433   7.037  12.936  0.0766  0.2324  0.0107
 2676DOPC   GL231397  27.658   7.114  13.075 -0.2588 -0.1771  0.1255
 2676DOPC   C1A31398  27.362   6.860  13.384 -0.0558  0.0529  0.1186
 2676DOPC   D2A31399  27.419   7.101  13.762 -0.2652 -0.2565  0.2942
 2676DOPC   C3A31400  27.331   6.740  13.970 -0.3715  0.2031  0.0321
 2676DOPC   C4A31401  27.200   6.490  14.399 -0.1977 -0.2035 -0.1663
 2676DOPC   C1B31402  27.885   7.109  13.477  0.0244 -0.2462 -0.1111
 2676DOPC   D2B31403  28.214   6.901  13.742  0.2313 -0.0670  0.0125
 2676DOPC   C3B31404  28.212   7.208  14.095 -0.0146 -0.0232  0.0892
 2676DOPC   C4B31405  27.905   7.257  14.427  0.3699 -0.0421  0.3431
 2677DOPE   NH331406  24.568   8.428  12.358  0.3361  0.2843 -0.4894
 2677DOPE   PO431407  24.347   8.257  12.158  0.4206  0.0913 -0.0010
 2677DOPE   GL131408  24.178   8.308  12.551 -0.4434 -0.0404 -0.0267
 2677DOPE   GL231409  23.974   8.201  12.513  0.3003 -0.2075 -0.0728
 2677DOPE   C1A31410  24.528   8.228  12.883 -0.1184 -0.1412 -0.1204
 2677DOPE   D2A31411  24.952   8.226  13.147  0.0803  0.0280  0.1163
 2677DOPE   C3A31412  25.093   8.415  13.444  0.3337 -0.2755  0.0299
 2677DOPE   C4A31413  25.066   8.524  13.885 -0.0607  0.1043 -0.0589
 2677DOPE   C1B31414  23.904   8.328  12.888  0.0032  0.2654  0.0538
 2677DOPE   D2B31415  23.926   8.580  13.265  0.1505 -0.1022  0.1346
 2677DOPE   C3B31416  23.886   8.360  13.637  0.4201 -0.1191  0.0752
 2677DOPE   C4B31417  23.729   7.899  13.705 -0.0943  0.0297 -0.0650
 2678POSM   NC331418  31.876   5.575  12.920  0.3330 -0.0623  0.1071
 2678POSM   PO431419  31.636   5.655  12.562  0.0368  0.0616 -0.0560
 2678POSM   AM131420  31.380   5.583  12.780  0.3510 -0.1481  0.0308
 2678POSM   AM231421  31.305   5.408  12.960  0.0062  0.0994  0.0158
 2678POSM   T1A31422  31.055   5.885  13.035  0.0796 -0.4932 -0.2097
 2678POSM   C2A31423  31.018   6.112  13.477 -0.0848  0.1287  0.2359
 2678POSM   C3A31424  30.644   6.402  13.613  0.2000 -0.1350 -0.0446
 2678POSM   C1B31425  31.258   5.517  13.289 -0.2178 -0.2061  0.0495
 2678POSM   D2B31426  31.241   5.743  13.707  0.3403 -0.1839 -0.2055
 2678POSM   C3B31427  31.398   5.777  14.177  0.1208  0.1923 -0.0394
 2678POSM   C4B31428  31.539   6.106  14.415 -0.1383 -0.3108  0.2519
 2679DOPC   NC331429  32.213   7.848  12.346  0.0367 -0.1255  0.3696
 2679DOPC   PO431430  32.311   7.492  12.378  0.5235 -0.1817 -0.1516
 2679DOPC   GL131431  32.477   7.649  12.716  0.0868 -0.0629 -0.0609
 2679DOPC   GL231432  32.220   7.713  12.803  0.1076  0.0576  0.0371
 2679DOPC   C1A31433  32.596   7.952  13.089  0.1944 -0.2616 -0.1156
 2679DOPC   D2A31434  32.490   8.263  13.359  0.0507 -0.1220  0.0316
 2679DOPC   C3A31435  32.660   8.438  13.676 -0.3132 -0.0606  0.1082
 2679DOPC   C4A31436  32.677   8.443  14.186  0.1428 -0.2733 -0.2073
 2679DOPC   C1B31437  32.111   8.130  12.914  0.0033 -0.1163 -0.0511
 2679DOPC   D2B31438  32.072   8.599  13.093  0.0028 -0.1254  0.0023
 2679DOPC   C3B31439  31.916   8.461  13.505  0.2894  0.0362 -0.1335
 2679DOPC   C4B31440  31.787   8.094  13.821 -0.1365 -0.2071  0.0762
 2680POSM   NC331441  30.166  10.817  12.536  0.0797 -0.1974  0.1508
 2680POSM   PO431442  30.146  10.658  12.853  0.0626  0.1178 -0.1526
 2680POSM   AM131443  30.370  10.655  13.149  0.1221  0.1344  0.0764
 2680POSM   AM231444  30.566  10.736  13.319 -0.1070 -0.2618  0.0944
 2680POSM   T1A31445  30.321  10.458  13.562 -0.2136 -0.1243  0.0996
 2680POSM   C2A31446  30.124  10.405  13.998 -0.0898 -0.0164 -0.0650
 2680POSM   C3A31447  29.971  10.748  14.252  0.2845 -0.3007  0.1817
 2680POSM   C1B31448  30.673  10.874  13.633 -0.0444  0.1473 -0.1449
 2680POSM   D2B31449  30.869  11.237  13.865  0.0154  0.3941  0.2935
 2680POSM   C3B31450  31.240  11.294  14.060 -0.0500  0.1636 -0.0482
 2680POSM   C4B31451  31.602  11.368  14.295 -0.1453  0.1116  0.1382
 2681DOPE   NH331452  29.138   0.973  12.243  0.0096 -0.0030  0.2302
 2681DOPE   PO431453  29.365   1.032  12.444  0.1240  0.2570  0.0534
 2681DOPE   GL131454  29.242   0.809  12.747  0.0891 -0.1059  0.3763
 2681DOPE   GL231455  29.239   0.476  12.778 -0.0174  0.3976 -0.0408
 2681DOPE   C1A31456  29.251   0.683  13.254 -0.0887 -0.4185  0.1293
 2681DOPE   D2A31457  29.388   0.463  13.665 -0.2300  0.1171  0.0516
 2681DOPE   C3A31458  29.674   0.666  13.935 -0.1866 -0.1378 -0.0377
 2681DOPE   C4A31459  29.686   1.038  14.156 -0.2191  0.0422 -0.0036
 2681DOPE   C1B31460  29.099   0.198  13.142  0.3629  0.4027  0.0066
 2681DOPE   D2B31461  29.146  -0.143  13.481 -0.0696  0.2327 -0.0259
 2681DOPE   C3B31462  28.750  -0.108  13.720  0.1400 -0.1257 -0.0713
 2681DOPE   C4B31463  28.487  -0.099  14.106  0.3125  0.3114  0.0491
 2682DOPC   NC331464  32.049   4.247  12.855  0.0276 -0.2192  0.0207
 2682DOPC   PO431465  31.788   4.163  12.631  0.0112 -0.0360 -0.2012
 2682DOPC   GL131466  31.851   3.788  12.835  0.1102  0.0597  0.0123
 2682DOPC   GL231467  32.093   3.702  12.727 -0.1663  0.2524  0.0762
 2682DOPC   C1A31468  31.941   3.362  13.057  0.2496 -0.0165  0.2508
 2682DOPC   D2A31469  31.807   3.066  13.361  0.0426  0.1800 -0.0826
 2682DOPC   C3A31470  31.380   3.171  13.549 -0.2237  0.2336 -0.1908
 2682DOPC   C4A31471  30.959   3.376  13.568  0.1849 -0.0807  0.0068
 2682DOPC   C1B31472  32.198   3.854  13.176 -0.2414 -0.1893  0.1946
 2682DOPC   D2B31473  32.379   4.108  13.575  0.2812  0.3932 -0.0068
 2682DOPC   C3B31474  32.505   3.790  13.931 -0.1983  0.0334 -0.0994
 2682DOPC   C4B31475  32.245   3.578  14.226  0.1928  0.1353 -0.0770
 2683DOPE   NH331476  34.619   0.334  13.083 -0.0431  0.0796  0.2380
 2683DOPE   PO431477  34.692   0.453  12.824  0.2418  0.2012 -0.0396
 2683DOPE   GL131478  35.006   0.695  12.959 -0.0180 -0.0140  0.1141
 2683DOPE   GL231479  34.947   0.661  13.241 -0.3905 -0.0841  0.2466
 2683DOPE   C1A31480  34.951   1.130  13.106 -0.0863  0.5292  0.1365
 2683DOPE   D2A31481  34.910   1.460  13.456  0.0430  0.0289 -0.3239
 2683DOPE   C3A31482  34.663   1.699  13.716 -0.4526  0.0314  0.2660
 2683DOPE   C4A31483  34.582   2.015  14.082 -0.1744  0.1528  0.4809
 2683DOPE   C1B31484  34.815   0.863  13.645  0.2248 -0.4249  0.1587
 2683DOPE   D2B31485  34.738   0.930  14.101 -0.0844 -0.0716  0.2174
 2683DOPE   C3B31486  34.618   0.652  14.394 -0.0291 -0.0811  0.1487
 2683DOPE   C4B31487  34.579   0.345  14.718  0.2242 -0.1683 -0.1719
 2684POSM   NC331488  24.823   4.817  12.293 -0.2539 -0.2158 -0.4215
 2684POSM   PO431489  25.067   4.552  12.407  0.0793  0.4899 -0.1552
 2684POSM   AM131490  24.891   4.459  12.675  0.1444  0.1533  0.0513
 2684POSM   AM231491  24.700   4.592  12.829  0.1153  0.0953 -0.3490
 2684POSM   T1A31492  24.802   4.094  13.073  0.1722 -0.1704  0.0425
 2684POSM   C2A31493  24.720   3.863  13.428 -0.1137  0.2482  0.3233
 2684POSM   C3A31494  24.465   3.894  13.820 -0.2848 -0.0894 -0.0665
 2684POSM   C1B31495  24.821   4.595  13.171  0.0070 -0.2519 -0.4263
 2684POSM   D2B31496  24.943   4.588  13.628 -0.0381 -0.0266  0.0356
 2684POSM   C3B31497  24.916   4.194  13.926  0.0630  0.0518 -0.0197
 2684POSM   C4B31498  24.788   3.877  14.225  0.2166 -0.0332  0.0302
 2685DOPC   NC331499  29.218   6.471  12.963  0.1089  0.0899 -0.2168
 2685DOPC   PO431500  29.355   6.180  12.743 -0.0937 -0.0232  0.1251
 2685DOPC   GL131501  29.191   6.400  12.522  0.0113 -0.1222  0.1635
 2685DOPC   GL231502  29.468   6.592  12.446 -0.1340 -0.0055  0.0816
 2685DOPC   C1A31503  29.132   6.861  12.636 -0.4176 -0.0547 -0.0981
 2685DOPC   D2A31504  29.205   7.007  13.083  0.0455  0.0889 -0.0391
 2685DOPC   C3A31505  29.195   7.369  13.422  0.3266 -0.0658  0.0288
 2685DOPC   C4A31506  29.424   7.730  13.258 -0.0721  0.2489  0.0316
 2685DOPC   C1B31507  29.748   6.922  12.646 -0.2089 -0.2020 -0.0704
 2685DOPC   D2B31508  29.964   6.949  13.069  0.0581  0.2349 -0.1465
 2685DOPC   C3B31509  30.406   6.824  13.097 -0.0389  0.0175  0.1364
 2685DOPC   C4B31510  30.820   6.831  13.346  0.2293 -0.0235 -0.0516
 2686POSM   NC331511  30.783   1.373  12.227 -0.4870 -0.1354  0.1393
 2686POSM   PO431512  31.112   1.236  12.404 -0.0594 -0.0040  0.1854
 2686POSM   AM131513  31.173   1.312  12.731 -0.3575 -0.0194  0.0660
 2686POSM   AM231514  31.358   1.471  12.853 -0.0990  0.1018 -0.3120
 2686POSM   T1A31515  31.124   1.161  13.207  0.2157 -0.2020 -0.3466
 2686POSM   C2A31516  30.953   0.910  13.554  0.4067  0.4182  0.1218
 2686POSM   C3A31517  30.603   1.002  13.902  0.0512  0.5535  0.1213
 2686POSM   C1B31518  31.166   1.685  13.092 -0.3407 -0.4469 -0.2175
 2686POSM   D2B31519  30.902   1.924  13.354 -0.0162  0.1040 -0.0444
 2686POSM   C3B31520  30.723   1.845  13.730  0.3363 -0.2573 -0.0880
 2686POSM   C4B31521  30.413   1.749  13.999 -0.1935  0.1973 -0.1159
 2687POSM   NC331522  24.266   7.712  11.911  0.2379 -0.1044  0.1223
 2687POSM   PO431523  24.653   7.767  11.990  0.0276 -0.0919 -0.3432
 2687POSM   AM131524  24.601   7.745  12.334 -0.0387  0.1015 -0.1974
 2687POSM   AM231525  24.385   7.878  12.496 -0.2025  0.1176  0.0568
 2687POSM   T1A31526  24.444   7.373  12.631 -0.0149  0.0469  0.0543
 2687POSM   C2A31527  24.214   6.965  12.702 -0.1520  0.1066 -0.0993
 2687POSM   C3A31528  24.228   6.484  12.533  0.4481 -0.0863 -0.1252
 2687POSM   C1B31529  24.204   7.851  12.785 -0.0718 -0.3080  0.1477
 2687POSM   D2B31530  24.023   7.910  13.229  0.0261  0.3059  0.0942
 2687POSM   C3B31531  24.259   7.893  13.551  0.0069 -0.2453 -0.0776
 2687POSM   C4B31532  24.180   7.943  13.960  0.2540 -0.4834  0.1453
 2688DOPC   NC331533  27.954   1.842  12.990 -0.0859 -0.0266 -0.3522
 2688DOPC   PO431534  28.152   1.904  12.658  0.2088 -0.1433 -0.0059
 2688DOPC   GL131535  28.177   2.207  13.022 -0.3868 -0.2011 -0.4267
 2688DOPC   GL231536  28.239   2.506  13.152  0.1101  0.3566 -0.0095
 2688DOPC   C1A31537  28.088   2.021  13.454 -0.1070  0.0567 -0.3486
 2688DOPC   D2A31538  28.084   1.635  13.739  0.3192 -0.0302  0.0819
 2688DOPC   C3A31539  28.147   1.747  14.196  0.0359  0.0468  0.4040
 2688DOPC   C4A31540  28.230   1.644  14.660 -0.1174  0.3649 -0.3506
 2688DOPC   C1B31541  28.372   2.412  13.566 -0.0788  0.0669 -0.2457
 2688DOPC   D2B31542  28.766   2.281  13.762  0.2519 -0.1773  0.0394
 2688DOPC   C3B31543  28.919   1.878  13.724 -0.1135 -0.0867 -0.0283
 2688DOPC   C4B31544  28.789   1.500  13.888  0.0948  0.1015 -0.0719
 2689DOPE   NH331545  26.233   0.850  13.430  0.2981  0.1266 -0.1124
 2689DOPE   PO431546  26.391   0.837  13.173  0.2869  0.1730 -0.0976
 2689DOPE   GL131547  26.724   1.043  13.193 -0.1367  0.2495  0.3309
 2689DOPE   GL231548  26.879   1.027  12.897  0.0886  0.1393 -0.0029
 2689DOPE   C1A31549  26.587   1.450  13.383  0.0129 -0.1950  0.1974
 2689DOPE   D2A31550  26.380   1.668  13.735 -0.4128  0.0300  0.1019
 2689DOPE   C3A31551  26.237   1.848  14.139  0.2126  0.1732 -0.2867
 2689DOPE   C4A31552  25.928   2.011  14.484 -0.1278 -0.0850  0.0746
 2689DOPE   C1B31553  26.843   1.466  12.899  0.0184  0.1001  0.0126
 2689DOPE   D2B31554  26.421   1.627  12.828  0.0084  0.1619 -0.0427
 2689DOPE   C3B31555  26.381   2.033  13.110  0.2157 -0.1490  0.1324
 2689DOPE   C4B31556  26.178   2.338  13.399  0.0561 -0.1437  0.0177
 2690POSM   NC331557  26.886  11.891  12.181 -0.1706  0.0664  0.2022
 2690POSM   PO431558  26.996  11.797  12.545 -0.2631  0.0906  0.3059
 2690POSM   AM131559  26.898  11.695  12.820  0.1675  0.1569 -0.0854
 2690POSM   AM231560  26.680  11.639  12.979 -0.0531 -0.0647  0.2615
 2690POSM   T1A31561  27.084  11.716  13.285 -0.2697 -0.2221 -0.1142
 2690POSM   C2A31562  27.141  11.690  13.719 -0.0441  0.2248  0.1272
 2690POSM   C3A31563  27.119  11.321  13.959  0.1374 -0.1142  0.1506
 2690POSM   C1B31564  26.477  11.427  13.182 -0.1185 -0.1678 -0.3563
 2690POSM   D2B31565  26.262  11.388  13.568 -0.0625  0.1700  0.0220
 2690POSM   C3B31566  26.158  11.642  13.977 -0.2880  0.0392 -0.0970
 2690POSM   C4B31567  26.013  11.841  14.393 -0.0781 -0.1473 -0.0293
 2691POSM   NC331568  27.728   2.535  12.190  0.1661  0.1603 -0.5098
 2691POSM   PO431569  27.685   2.783  12.526 -0.3279  0.0878 -0.0741
 2691POSM   AM131570  27.395   2.747  12.685 -0.0528 -0.1598 -0.3068
 2691POSM   AM231571  27.147   2.672  12.568 -0.3364  0.0189 -0.0738
 2691POSM   T1A31572  27.123   2.739  13.108  0.0303  0.0376  0.0288
 2691POSM   C2A31573  26.989   2.793  13.571  0.0873 -0.0123 -0.0737
 2691POSM   C3A31574  26.888   3.035  13.951 -0.1761  0.0209  0.3506
 2691POSM   C1B31575  26.953   2.470  12.744  0.1925  0.3164 -0.2049
 2691POSM   D2B31576  26.641   2.481  13.127  0.3713 -0.1302 -0.0302
 2691POSM   C3B31577  26.668   2.300  13.511 -0.1064  0.0717 -0.1458
 2691POSM   C4B31578  26.819   2.009  13.872  0.3874  0.3102 -0.0439
 2692DOPS   CNO31579  30.479   5.543  12.268  0.0894 -0.2726  0.0545
 2692DOPS   PO431580  30.227   5.808  12.438 -0.0397  0.0045  0.0561
 2692DOPS   GL131581  30.162   5.961  12.830 -0.1697  0.1012 -0.4268
 2692DOPS   GL231582  30.187   5.771  13.069 -0.1939 -0.0959  0.2875
 2692DOPS   C1A31583  30.256   6.298  13.124  0.0433  0.0294  0.0990
 2692DOPS   D2A31584  30.103   6.633  13.456 -0.1110  0.2552  0.1502
 2692DOPS   C3A31585  30.045   6.399  13.873  0.2619 -0.2324  0.3572
 2692DOPS   C4A31586  30.003   6.370  14.338 -0.0751 -0.0121 -0.1480
 2692DOPS   C1B31587  30.045   5.584  13.472 -0.1305  0.0331  0.2457
 2692DOPS   D2B31588  29.681   5.315  13.480 -0.0908 -0.0441  0.2608
 2692DOPS   C3B31589  29.419   5.298  13.825  0.0708  0.4032 -0.0187
 2692DOPS   C4B31590  29.055   5.278  14.067 -0.1117  0.1856 -0.3080
 2693DOPC   NC331591  25.365   8.192  12.107  0.1399 -0.1861  0.1813
 2693DOPC   PO431592  25.693   8.388  12.239  0.2397  0.1024  0.2371
 2693DOPC   GL131593  25.878   8.668  12.483  0.1466  0.2544 -0.2988
 2693DOPC   GL231594  25.897   8.517  12.721 -0.0624  0.3191  0.1991
 2693DOPC   C1A31595  25.783   9.063  12.327  0.0002  0.1391 -0.2069
 2693DOPC   D2A31596  25.557   9.396  12.507 -0.2314  0.0391  0.1785
 2693DOPC   C3A31597  25.537   9.859  12.492  0.0954  0.2397 -0.1569
 2693DOPC   C4A31598  25.278  10.261  12.519  0.1304 -0.1240 -0.1605
 2693DOPC   C1B31599  25.562   8.848  12.794 -0.1874  0.2101  0.1243
 2693DOPC   D2B31600  25.215   9.148  12.925 -0.3560 -0.2735 -0.0394
 2693DOPC   C3B31601  25.337   9.632  12.964 -0.1985  0.2520  0.4210
 2693DOPC   C4B31602  25.209  10.073  12.961  0.0166 -0.2562  0.0316
 2694POSM   NC331603  23.135   3.972  12.514  0.2123 -0.1419  0.0127
 2694POSM   PO431604  23.002   4.318  12.312 -0.1145  0.0459  0.3409
 2694POSM   AM131605  23.107   4.596  12.432 -0.1151  0.1975  0.2954
 2694POSM   AM231606  22.993   4.740  12.639  0.0485  0.1834  0.0576
 2694POSM   T1A31607  23.426   4.960  12.516  0.0207 -0.0751 -0.2050
 2694POSM   C2A31608  23.634   5.358  12.487  0.0671 -0.0082 -0.1131
 2694POSM   C3A31609  24.027   5.635  12.443  0.0248  0.1632  0.0826
 2694POSM   C1B31610  22.997   4.820  12.978 -0.3225 -0.1245 -0.0783
 2694POSM   D2B31611  22.997   5.030  13.441 -0.1012 -0.1981 -0.0493
 2694POSM   C3B31612  22.693   4.768  13.648 -0.1038  0.4073  0.3934
 2694POSM   C4B31613  22.705   4.715  14.144  0.0503 -0.2291 -0.1167
 2695DOPE   NH331614  29.415   3.480  13.005 -0.1421 -0.4071 -0.1580
 2695DOPE   PO431615  29.323   3.744  12.900  0.2871  0.0613  0.2067
 2695DOPE   GL131616  29.197   3.852  13.217  0.0459  0.0298 -0.0064
 2695DOPE   GL231617  29.170   3.645  13.408 -0.1862 -0.1473  0.0367
 2695DOPE   C1A31618  29.356   4.064  13.596  0.0969  0.5223  0.0177
 2695DOPE   D2A31619  29.378   4.052  14.088 -0.0458 -0.3919  0.1983
 2695DOPE   C3A31620  29.205   4.276  14.414 -0.0543  0.2516  0.2667
 2695DOPE   C4A31621  29.059   4.284  14.845 -0.5506  0.0667 -0.3281
 2695DOPE   C1B31622  29.016   3.763  13.808  0.1353 -0.0960  0.2496
 2695DOPE   D2B31623  28.847   4.204  13.995 -0.1579 -0.0239 -0.0570
 2695DOPE   C3B31624  28.393   4.405  13.987 -0.4877  0.2030  0.1468
 2695DOPE   C4B31625  28.242   4.732  14.290  0.0294 -0.0075 -0.1924
 2696POSM   NC331626  23.929   7.683  12.369  0.0209 -0.0176 -0.1628
 2696POSM   PO431627  23.864   7.929  12.037 -0.0571 -0.1274  0.0080
 2696POSM   AM131628  23.614   7.946  12.274  0.2174 -0.1376 -0.0395
 2696POSM   AM231629  23.334   7.903  12.284 -0.0583 -0.0949 -0.3414
 2696POSM   T1A31630  23.638   7.930  12.751 -0.0140 -0.1117  0.2032
 2696POSM   C2A31631  23.555   7.773  13.156  0.0573  0.0307  0.1003
 2696POSM   C3A31632  23.257   7.882  13.509  0.2194  0.0551 -0.2156
 2696POSM   C1B31633  23.094   7.930  12.536 -0.1186 -0.1907  0.0433
 2696POSM   D2B31634  22.727   7.953  12.798 -0.2955  0.0629 -0.1376
 2696POSM   C3B31635  22.575   8.349  12.872  0.0125 -0.4903 -0.0730
 2696POSM   C4B31636  22.457   8.745  13.197 -0.0415 -0.1091  0.1672
 2697POSM   NC331637  26.492   6.888  12.506  0.2096 -0.2470  0.0037
 2697POSM   PO431638  26.612   7.160  12.773  0.1718 -0.0786  0.1338
 2697POSM   AM131639  26.773   7.291  13.026 -0.0438  0.2149  0.0422
 2697POSM   AM231640  26.933   7.551  13.085  0.1742  0.2490 -0.1193
 2697POSM   T1A31641  27.022   7.286  13.452 -0.0208  0.0751 -0.1556
 2697POSM   C2A31642  26.808   7.066  13.783  0.0554 -0.0359 -0.2874
 2697POSM   C3A31643  26.804   6.631  14.058  0.0177 -0.1944  0.2854
 2697POSM   C1B31644  27.045   7.790  13.275  0.1088 -0.1716  0.2963
 2697POSM   D2B31645  27.203   8.071  13.578  0.1274  0.1547 -0.0169
 2697POSM   C3B31646  26.755   8.001  13.695  0.1247 -0.1688  0.1758
 2697POSM   C4B31647  26.338   7.893  13.858 -0.0610 -0.2568  0.0099
 2698POSM   NC331648  25.747   6.627  12.300 -0.4409 -0.1534  0.2677
 2698POSM   PO431649  25.722   6.604  12.659 -0.1215 -0.0445  0.0195
 2698POSM   AM131650  25.503   6.779  12.832  0.4402  0.2510  0.2378
 2698POSM   AM231651  25.481   7.064  12.885  0.0915  0.1775  0.4004
 2698POSM   T1A31652  25.283   6.654  13.258  0.0007 -0.0702  0.1517
 2698POSM   C2A31653  25.139   6.666  13.721  0.1395 -0.2907 -0.3030
 2698POSM   C3A31654  25.182   6.537  14.242  0.2235 -0.0050 -0.1061
 2698POSM   C1B31655  25.418   7.242  13.173  0.0317 -0.0590  0.2290
 2698POSM   D2B31656  25.448   7.578  13.457 -0.1846  0.2171  0.1343
 2698POSM   C3B31657  25.024   7.658  13.544 -0.0303 -0.1007  0.3322
 2698POSM   C4B31658  24.599   7.465  13.535  0.1823  0.2288  0.1395
 2699DOPS   CNO31659  31.683   5.116  12.283 -0.0973  0.0338 -0.1953
 2699DOPS   PO431660  32.028   5.259  12.263 -0.0582  0.0115  0.0273
 2699DOPS   GL131661  32.081   5.092  12.608 -0.1530 -0.3485 -0.1868
 2699DOPS   GL231662  32.227   5.264  12.751 -0.2722  0.0686  0.2152
 2699DOPS   C1A31663  32.497   4.855  12.571  0.2597 -0.1490  0.0152
 2699DOPS   D2A31664  32.761   4.604  12.893  0.1961 -0.2348  0.2884
 2699DOPS   C3A31665  33.113   4.277  12.867  0.0912  0.1656  0.1877
 2699DOPS   C4A31666  33.433   4.092  12.536 -0.1064  0.0049  0.2660
 2699DOPS   C1B31667  32.545   5.028  13.057  0.2017  0.2836  0.0228
 2699DOPS   D2B31668  32.828   4.836  13.375  0.0684  0.0499 -0.1037
 2699DOPS   C3B31669  32.608   4.608  13.692 -0.2039 -0.2895 -0.0721
 2699DOPS   C4B31670  32.554   4.524  14.068  0.0145  0.2828  0.2098
 2700POSM   NC331671  30.053   0.722  12.265 -0.0822 -0.0001 -0.1943
 2700POSM   PO431672  29.979   1.065  12.376  0.0981 -0.3406 -0.1306
 2700POSM   AM131673  29.856   1.251  12.637  0.1720  0.1174 -0.1544
 2700POSM   AM231674  29.756   1.199  12.863  0.0087  0.1701  0.3602
 2700POSM   T1A31675  29.973   1.707  12.906  0.1244  0.2339 -0.1569
 2700POSM   C2A31676  29.933   2.118  13.068  0.0731 -0.0439 -0.0246
 2700POSM   C3A31677  29.880   2.544  13.024  0.3491 -0.1446 -0.0750
 2700POSM   C1B31678  29.654   1.102  13.169  0.0285 -0.2743  0.1323
 2700POSM   D2B31679  29.553   1.164  13.608 -0.1187  0.0504 -0.3121
 2700POSM   C3B31680  29.239   0.948  13.798 -0.1035  0.1833  0.0610
 2700POSM   C4B31681  29.133   1.090  14.274  0.1521 -0.1146  0.2712
 2701DOPE   NH331682  34.376   3.236  12.951  0.1741  0.4309  0.2894
 2701DOPE   PO431683  34.113   3.402  12.904 -0.0937  0.1234 -0.0088
 2701DOPE   GL131684  33.779   3.516  13.078 -0.0535  0.3403 -0.0359
 2701DOPE   GL231685  33.510   3.684  12.973  0.0316  0.0234 -0.1129
 2701DOPE   C1A31686  33.678   3.458  13.507 -0.0547 -0.1009 -0.0583
 2701DOPE   D2A31687  33.414   3.298  13.827 -0.2349 -0.0270  0.0354
 2701DOPE   C3A31688  33.538   3.003  14.197 -0.1638 -0.2540  0.2787
 2701DOPE   C4A31689  33.489   2.672  14.550 -0.2525  0.1492  0.0234
 2701DOPE   C1B31690  33.247   3.946  13.240 -0.1273 -0.0877  0.2818
 2701DOPE   D2B31691  33.078   4.257  13.523  0.0502 -0.0754  0.0165
 2701DOPE   C3B31692  33.063   4.609  13.838 -0.2208 -0.3435 -0.2151
 2701DOPE   C4B31693  32.872   5.026  13.894 -0.2601  0.3414  0.1499
 2702DOPE   NH331694  34.336  11.070  12.237  0.1255 -0.0796 -0.0916
 2702DOPE   PO431695  34.154  10.797  12.285 -0.0206 -0.1105  0.0440
 2702DOPE   GL131696  33.927  10.626  12.529  0.1505  0.2415 -0.2179
 2702DOPE   GL231697  34.079  10.351  12.613  0.3506  0.1173  0.0443
 2702DOPE   C1A31698  33.617  10.494  12.813  0.2569 -0.0597  0.1517
 2702DOPE   D2A31699  33.522  10.318  13.242  0.1538  0.2140 -0.3224
 2702DOPE   C3A31700  33.430  10.070  13.683  0.2954 -0.2453 -0.1308
 2702DOPE   C4A31701  33.591   9.750  14.031  0.1229  0.0622  0.2704
 2702DOPE   C1B31702  33.906  10.098  12.970  0.3683  0.2560 -0.0107
 2702DOPE   D2B31703  33.527   9.836  13.006  0.1594 -0.0967 -0.3530
 2702DOPE   C3B31704  33.455   9.601  13.421 -0.1235 -0.3264 -0.0044
 2702DOPE   C4B31705  33.744   9.366  13.674  0.1498  0.0822  0.1613
 2703DOPE   NH331706  28.472   7.530  12.600  0.1410 -0.0465  0.2208
 2703DOPE   PO431707  28.180   7.566  12.466  0.1361 -0.0496  0.3024
 2703DOPE   GL131708  27.849   7.412  12.657  0.1775 -0.0025 -0.2289
 2703DOPE   GL231709  27.989   7.107  12.601  0.1264 -0.0346 -0.1479
 2703DOPE   C1A31710  27.863   7.631  13.099  0.1414  0.2583  0.1120
 2703DOPE   D2A31711  28.119   7.573  13.497 -0.1680 -0.2708 -0.0834
 2703DOPE   C3A31712  27.824   7.468  13.807 -0.1187 -0.0768  0.1299
 2703DOPE   C4A31713  27.559   7.455  14.180 -0.3835  0.0527  0.2079
 2703DOPE   C1B31714  28.436   6.984  12.504  0.1530 -0.1134 -0.0503
 2703DOPE   D2B31715  28.734   6.636  12.401 -0.0701  0.2183 -0.1307
 2703DOPE   C3B31716  28.741   6.398  12.830  0.0861  0.3332 -0.0939
 2703DOPE   C4B31717  28.622   6.203  13.230 -0.1210 -0.0279  0.0463
 2704DOPE   NH331718  23.054   2.441  12.094  0.1064  0.0659 -0.0583
 2704DOPE   PO431719  23.348   2.453  11.947 -0.3156  0.1170  0.2455
 2704DOPE   GL131720  23.753   2.397  12.083  0.7223 -0.0370 -0.2266
 2704DOPE   GL231721  23.802   2.256  12.360  0.0255 -0.0597  0.1755
 2704DOPE   C1A31722  24.162   2.632  12.201  0.0058  0.1419 -0.0630
 2704DOPE   D2A31723  24.488   2.741  12.513  0.1896  0.2710 -0.1370
 2704DOPE   C3A31724  24.344   3.196  12.414  0.0771 -0.1682  0.0145
 2704DOPE   C4A31725  24.194   3.632  12.499  0.0513  0.3268  0.1185
 2704DOPE   C1B31726  23.754   2.005  12.731  0.0313  0.0553 -0.0121
 2704DOPE   D2B31727  23.496   1.727  13.068 -0.2229  0.0870 -0.3481
 2704DOPE   C3B31728  23.427   1.858  13.531  0.0831  0.4411 -0.3035
 2704DOPE   C4B31729  23.243   1.964  13.902  0.0939 -0.2339 -0.0645
 2705POSM   NC331730  23.525   2.915  11.684  0.1414  0.0493  0.2908
 2705POSM   PO431731  23.596   2.934  12.050 -0.2268  0.0011 -0.0960
 2705POSM   AM131732  23.724   2.916  12.352 -0.2717  0.1938  0.0945
 2705POSM   AM231733  23.830   3.102  12.549  0.0967 -0.1868 -0.2896
 2705POSM   T1A31734  23.981   2.660  12.676  0.5131  0.3163  0.1654
 2705POSM   C2A31735  24.095   2.304  12.973 -0.2636  0.0135 -0.3096
 2705POSM   C3A31736  23.759   2.103  13.224 -0.0867 -0.1946 -0.1710
 2705POSM   C1B31737  24.017   3.160  12.797 -0.0320  0.2131  0.2536
 2705POSM   D2B31738  24.458   3.124  12.927  0.0546  0.0186  0.1308
 2705POSM   C3B31739  24.807   2.862  12.842  0.1959  0.2529 -0.0059
 2705POSM   C4B31740  25.246   2.705  12.941  0.2811  0.0615  0.0456
 2706DOPC   NC331741  34.218   8.724  12.680  0.3234  0.0875 -0.1651
 2706DOPC   PO431742  33.988   8.745  12.322  0.0251  0.2390 -0.1290
 2706DOPC   GL131743  33.733   8.765  12.693  0.0691  0.3092 -0.0342
 2706DOPC   GL231744  33.511   8.927  12.661 -0.1165 -0.1246  0.1403
 2706DOPC   C1A31745  33.936   8.616  13.067 -0.2453 -0.0026 -0.2202
 2706DOPC   D2A31746  34.022   8.488  13.502  0.0646 -0.2491  0.2224
 2706DOPC   C3A31747  33.980   8.711  13.845 -0.3958  0.0167  0.0873
 2706DOPC   C4A31748  34.212   9.101  13.806  0.0190 -0.0068 -0.4947
 2706DOPC   C1B31749  33.180   9.315  12.567 -0.0568  0.0823 -0.5055
 2706DOPC   D2B31750  32.891   9.544  12.263  0.0874  0.1344 -0.0743
 2706DOPC   C3B31751  32.638   9.923  12.187  0.0177  0.0326  0.0193
 2706DOPC   C4B31752  32.450  10.311  12.215  0.1157  0.2963 -0.0987
 2707DOPC   NC331753  29.974  10.259  13.094  0.3911 -0.1487 -0.0086
 2707DOPC   PO431754  29.858  10.162  12.751  0.3393 -0.2074  0.0737
 2707DOPC   GL131755  29.610   9.980  13.014 -0.0429  0.0260 -0.0006
 2707DOPC   GL231756  29.487   9.781  12.773 -0.0090  0.0920  0.0898
 2707DOPC   C1A31757  29.473  10.027  13.472 -0.2088  0.2215 -0.0729
 2707DOPC   D2A31758  29.356  10.217  13.896  0.1677 -0.2128  0.1945
 2707DOPC   C3A31759  28.997  10.031  14.161 -0.0001  0.0261 -0.2640
 2707DOPC   C4A31760  28.527   9.947  14.247 -0.1308  0.0658  0.3860
 2707DOPC   C1B31761  29.284   9.681  13.174  0.3288 -0.0835 -0.0089
 2707DOPC   D2B31762  29.163   9.424  13.509 -0.0111  0.0503 -0.0146
 2707DOPC   C3B31763  29.293   9.694  13.901 -0.1052  0.0144 -0.0130
 2707DOPC   C4B31764  29.563   9.709  14.246  0.0167 -0.1538  0.0678
 2708POSM   NC331765  25.592   6.271  13.047 -0.0230  0.2066  0.1974
 2708POSM   PO431766  25.557   5.902  12.871  0.0956 -0.3973 -0.1091
 2708POSM   AM131767  25.245   5.915  13.026  0.1255 -0.0275  0.3625
 2708POSM   AM231768  24.968   6.067  13.037 -0.0575  0.2265  0.0662
 2708POSM   T1A31769  24.896   5.607  13.248 -0.1743  0.2459  0.1565
 2708POSM   C2A31770  24.426   5.546  13.374 -0.0808  0.1522  0.0504
 2708POSM   C3A31771  24.152   5.802  13.649  0.2530 -0.0985 -0.2727
 2708POSM   C1B31772  24.624   6.066  13.024 -0.0912  0.0000  0.1348
 2708POSM   D2B31773  24.223   6.206  13.200  0.2459  0.1282  0.2754
 2708POSM   C3B31774  23.852   6.134  13.493  0.1270  0.2686 -0.1380
 2708POSM   C4B31775  23.541   5.764  13.529  0.1034 -0.3300  0.0283
 2709POSM   NC331776  32.571   6.992  12.405 -0.1833  0.1549  0.0004
 2709POSM   PO431777  32.393   6.676  12.553  0.4361  0.1676 -0.2395
 2709POSM   AM131778  32.199   6.668  12.859  0.1893 -0.3602  0.0436
 2709POSM   AM231779  32.082   6.855  13.098 -0.2526  0.0326 -0.2342
 2709POSM   T1A31780  32.045   6.334  13.186  0.1654 -0.1728 -0.1850
 2709POSM   C2A31781  32.065   5.908  13.308  0.1340  0.2159  0.0273
 2709POSM   C3A31782  31.725   5.612  13.450 -0.2374 -0.1163  0.0298
 2709POSM   C1B31783  31.913   6.786  13.401 -0.0165  0.1660  0.1168
 2709POSM   D2B31784  31.710   6.726  13.845 -0.2980  0.1297  0.1002
 2709POSM   C3B31785  31.734   6.908  14.280  0.0616 -0.3941  0.2549
 2709POSM   C4B31786  31.837   6.869  14.696 -0.1650  0.1174  0.0640
 2710DOPS   CNO31787  30.862   4.313  12.337  0.2532  0.2568 -0.1293
 2710DOPS   PO431788  31.003   3.945  12.340  0.2333 -0.1055 -0.1521
 2710DOPS   GL131789  30.951   3.470  12.445 -0.0735  0.2388  0.0769
 2710DOPS   GL231790  31.243   3.370  12.492  0.1759 -0.0161 -0.0197
 2710DOPS   C1A31791  30.840   3.004  12.448 -0.0463 -0.0413  0.3267
 2710DOPS   D2A31792  31.068   2.680  12.676  0.0792  0.1409 -0.2745
 2710DOPS   C3A31793  31.181   2.713  13.164  0.2511  0.0211  0.1114
 2710DOPS   C4A31794  30.945   2.888  13.496 -0.0218  0.1667 -0.1331
 2710DOPS   C1B31795  31.708   3.310  12.618  0.0187 -0.0914 -0.1552
 2710DOPS   D2B31796  32.078   3.048  12.609  0.0203  0.0559 -0.1290
 2710DOPS   C3B31797  32.311   2.668  12.656  0.3277 -0.0490  0.0711
 2710DOPS   C4B31798  32.202   2.218  12.645  0.1370  0.2796 -0.3513
 2711DOPE   NH331799  30.073   8.723  12.444  0.1651  0.0521 -0.1742
 2711DOPE   PO431800  30.079   8.760  12.725 -0.1378  0.1041 -0.1724
 2711DOPE   GL131801  30.385   8.720  12.949  0.1970 -0.1136 -0.0413
 2711DOPE   GL231802  30.584   8.522  12.917  0.3007 -0.0860 -0.0757
 2711DOPE   C1A31803  30.625   8.729  13.381  0.0361 -0.2088 -0.2486
 2711DOPE   D2A31804  30.815   8.896  13.796  0.2834  0.0439 -0.4637
 2711DOPE   C3A31805  30.869   8.549  14.070  0.0125 -0.3201 -0.1238
 2711DOPE   C4A31806  30.692   8.117  14.114  0.2719 -0.1741  0.2717
 2711DOPE   C1B31807  30.944   8.565  12.646  0.2010  0.1406 -0.0639
 2711DOPE   D2B31808  31.035   8.928  12.439  0.0413  0.1957 -0.4401
 2711DOPE   C3B31809  31.296   9.299  12.512  0.5538 -0.2524 -0.1437
 2711DOPE   C4B31810  31.731   9.414  12.792 -0.0360 -0.1266  0.1025
 2712DOPC   NC331811  30.398   5.337  12.794  0.4999  0.0239  0.0578
 2712DOPC   PO431812  30.385   4.966  12.649 -0.1758  0.3658  0.2509
 2712DOPC   GL131813  30.396   4.792  12.946  0.3150 -0.0289  0.1820
 2712DOPC   GL231814  30.160   4.571  12.932  0.1623  0.1299  0.0979
 2712DOPC   C1A31815  30.575   4.885  13.373 -0.0651  0.1119 -0.0180
 2712DOPC   D2A31816  30.763   4.688  13.764 -0.0748  0.1248 -0.2102
 2712DOPC   C3A31817  30.733   4.242  13.630 -0.1021  0.0679  0.1981
 2712DOPC   C4A31818  30.740   3.764  13.693  0.0858 -0.0811 -0.0844
 2712DOPC   C1B31819  29.775   4.681  13.237  0.1038 -0.1812 -0.2649
 2712DOPC   D2B31820  29.543   4.853  13.613 -0.0698 -0.2312  0.0800
 2712DOPC   C3B31821  29.634   4.884  14.045 -0.0119  0.2699  0.2926
 2712DOPC   C4B31822  29.844   5.004  14.431  0.0373 -0.0836 -0.1466
 2713DOPC   NC331823  27.710   8.077  12.109 -0.2534 -0.0208 -0.4236
 2713DOPC   PO431824  28.018   8.056  12.349 -0.1382 -0.2835 -0.2240
 2713DOPC   GL131825  28.136   7.957  12.736  0.0243 -0.0963  0.1885
 2713DOPC   GL231826  28.393   8.047  12.769 -0.1972  0.4199 -0.0137
 2713DOPC   C1A31827  28.049   8.156  13.143  0.0862  0.0917  0.2235
 2713DOPC   D2A31828  28.117   8.087  13.601 -0.0250  0.1891  0.0563
 2713DOPC   C3A31829  28.049   8.443  13.898 -0.0711 -0.0490 -0.2550
 2713DOPC   C4A31830  28.103   8.488  14.324 -0.0850  0.0820  0.3306
 2713DOPC   C1B31831  28.366   7.766  13.148 -0.1255 -0.0917 -0.1098
 2713DOPC   D2B31832  28.220   7.347  13.036 -0.0548  0.2872 -0.1629
 2713DOPC   C3B31833  28.214   6.930  13.214  0.1044  0.0172 -0.1522
 2713DOPC   C4B31834  28.253   6.491  13.063 -0.0130 -0.0703  0.1343
 2714DOPC   NC331835  28.246  10.340  11.954 -0.4002 -0.0238 -0.3094
 2714DOPC   PO431836  28.076  10.567  12.241  0.1934  0.2288  0.1177
 2714DOPC   GL131837  28.068  10.265  12.490 -0.0349 -0.0724 -0.1336
 2714DOPC   GL231838  28.368  10.340  12.561 -0.2495 -0.1766  0.1952
 2714DOPC   C1A31839  28.034   9.847  12.721 -0.0581 -0.2400  0.0452
 2714DOPC   D2A31840  27.968   9.393  12.880 -0.2339 -0.2338  0.0483
 2714DOPC   C3A31841  28.125   9.066  12.583 -0.1756  0.2737  0.1759
 2714DOPC   C4A31842  28.295   9.040  12.221 -0.0923 -0.3590  0.5310
 2714DOPC   C1B31843  28.191  10.527  12.946 -0.0836 -0.0322 -0.0755
 2714DOPC   D2B31844  27.902  10.337  13.268 -0.0601  0.0230 -0.0551
 2714DOPC   C3B31845  27.802  10.095  13.613  0.1337 -0.2870  0.0922
 2714DOPC   C4B31846  27.749   9.625  13.699 -0.4137 -0.2620 -0.1358
 2715DOPE   NH331847  30.299   1.490  12.471 -0.2785  0.1467  0.0807
 2715DOPE   PO431848  30.525   1.410  12.678  0.2014  0.0428  0.2220
 2715DOPE   GL131849  30.772   1.374  12.934 -0.2405  0.2625  0.1350
 2715DOPE   GL231850  30.727   1.444  13.142 -0.0407 -0.0290  0.1252
 2715DOPE   C1A31851  30.566   0.989  13.192 -0.2043  0.1381  0.2367
 2715DOPE   D2A31852  30.307   0.889  13.542 -0.2403  0.3133 -0.0391
 2715DOPE   C3A31853  30.147   0.720  14.007  0.2865 -0.2834  0.1951
 2715DOPE   C4A31854  29.948   0.690  14.426  0.0918 -0.3069  0.1131
 2715DOPE   C1B31855  30.558   1.383  13.552 -0.0383  0.0637 -0.0157
 2715DOPE   D2B31856  30.865   1.397  13.891  0.1112 -0.2496 -0.0541
 2715DOPE   C3B31857  31.139   1.049  13.963 -0.2302  0.1970 -0.0102
 2715DOPE   C4B31858  31.574   1.142  14.150 -0.0478 -0.1632 -0.1599
 2716DOPC   NC331859  33.482   7.701  12.341  0.2800  0.0077  0.0711
 2716DOPC   PO431860  33.593   7.457  12.650 -0.2131 -0.1268  0.0540
 2716DOPC   GL131861  33.484   7.689  12.958  0.1025  0.1252 -0.0330
 2716DOPC   GL231862  33.504   7.886  12.804  0.1737  0.0368 -0.2591
 2716DOPC   C1A31863  33.724   7.848  13.337  0.1894 -0.3119  0.0974
 2716DOPC   D2A31864  34.052   7.733  13.632  0.3000 -0.0752  0.0797
 2716DOPC   C3A31865  34.004   7.654  14.108 -0.0290  0.0471  0.1266
 2716DOPC   C4A31866  34.296   7.382  14.252 -0.1101  0.3805 -0.0074
 2716DOPC   C1B31867  33.148   7.991  13.082  0.0894 -0.2427 -0.2278
 2716DOPC   D2B31868  32.983   8.106  13.467  0.2857  0.1411  0.2442
 2716DOPC   C3B31869  33.195   8.207  13.928 -0.3284  0.1971  0.2492
 2716DOPC   C4B31870  33.539   8.574  14.060  0.1830  0.0157 -0.1917
 2717POSM   NC331871  26.216   4.324  12.666  0.1402  0.2484  0.0605
 2717POSM   PO431872  26.494   4.405  12.406 -0.0238 -0.1098  0.3769
 2717POSM   AM131873  26.671   4.152  12.528  0.2394 -0.0484 -0.0697
 2717POSM   AM231874  26.689   4.085  12.797  0.0983 -0.1317  0.3274
 2717POSM   T1A31875  26.963   3.758  12.584 -0.1434 -0.0790  0.3716
 2717POSM   C2A31876  27.374   3.798  12.751 -0.0393 -0.1342 -0.4034
 2717POSM   C3A31877  27.677   3.697  13.083  0.0213  0.2481  0.1801
 2717POSM   C1B31878  26.578   3.901  13.096  0.1455  0.2821  0.0140
 2717POSM   D2B31879  26.566   3.591  13.448  0.1437 -0.2884 -0.0610
 2717POSM   C3B31880  26.905   3.831  13.714  0.1701  0.2282 -0.0814
 2717POSM   C4B31881  27.278   4.089  13.809 -0.1614 -0.0481 -0.1510
 2718DOPS   CNO31882  26.328  34.412  12.470  0.1857 -0.1095 -0.1300
 2718DOPS   PO431883  26.192  34.226  12.749 -0.0504  0.2943  0.2012
 2718DOPS   GL131884  26.149  33.883  12.878 -0.2516  0.3945  0.1448
 2718DOPS   GL231885  26.234  33.752  13.156 -0.0819  0.0236 -0.0247
 2718DOPS   C1A31886  26.359  33.480  12.788 -0.2933  0.0392 -0.1545
 2718DOPS   D2A31887  26.341  33.002  12.748  0.2534  0.2312  0.6080
 2718DOPS   C3A31888  25.991  32.757  12.800  0.0604 -0.0169 -0.1660
 2718DOPS   C4A31889  25.690  32.535  13.146 -0.2694  0.0074 -0.0832
 2718DOPS   C1B31890  26.072  33.267  13.205 -0.1941  0.0873  0.0727
 2718DOPS   D2B31891  25.741  33.068  13.426  0.1490 -0.2031  0.1499
 2718DOPS   C3B31892  25.733  32.766  13.795  0.1490  0.0145  0.0065
 2718DOPS   C4B31893  25.382  32.452  13.882  0.1299 -0.0120  0.2317
 2719DOPE   NH331894  25.788   6.138  12.510  0.0686 -0.0238 -0.0307
 2719DOPE   PO431895  25.466   6.193  12.445 -0.1099 -0.0052  0.1237
 2719DOPE   GL131896  25.173   6.236  12.622 -0.0274  0.1811  0.3289
 2719DOPE   GL231897  25.104   6.488  12.751 -0.1602  0.2516 -0.0307
 2719DOPE   C1A31898  24.700   6.125  12.564 -0.3030  0.0640  0.0979
 2719DOPE   D2A31899  24.283   5.984  12.667 -0.3075  0.1653  0.1994
 2719DOPE   C3A31900  24.400   5.541  12.824 -0.0864 -0.0719  0.0691
 2719DOPE   C4A31901  24.530   5.074  12.863  0.0235  0.2347  0.2634
 2719DOPE   C1B31902  25.049   6.923  12.915 -0.0675  0.1540  0.1652
 2719DOPE   D2B31903  24.981   7.103  13.394 -0.0072  0.0532  0.0201
 2719DOPE   C3B31904  24.662   6.940  13.678 -0.0119  0.0466  0.0549
 2719DOPE   C4B31905  24.283   6.981  13.921  0.0835  0.2275 -0.2534
 2720POSM   NC331906  23.465   1.746  12.413  0.1894  0.2046  0.2497
 2720POSM   PO431907  23.325   2.046  12.208  0.2015 -0.0434 -0.2622
 2720POSM   AM131908  23.310   2.181  12.499  0.2881  0.1867  0.1104
 2720POSM   AM231909  23.231   2.148  12.750 -0.2135 -0.1396 -0.0844
 2720POSM   T1A31910  23.597   2.456  12.839  0.0301  0.0115 -0.2612
 2720POSM   C2A31911  23.794   2.736  13.163 -0.2519 -0.1110  0.1927
 2720POSM   C3A31912  23.910   2.953  13.558 -0.1456  0.0925 -0.0327
 2720POSM   C1B31913  23.286   2.139  13.122  0.0837  0.0480 -0.2233
 2720POSM   D2B31914  22.969   2.038  13.516 -0.0067 -0.2608  0.0047
 2720POSM   C3B31915  22.586   1.715  13.563  0.0731 -0.2868 -0.1556
 2720POSM   C4B31916  22.327   1.387  13.653  0.0862  0.0700  0.0561
 2721DOPC   NC331917  30.300   4.538  12.402  0.2523 -0.1209 -0.3064
 2721DOPC   PO431918  29.897   4.522  12.517 -0.0577 -0.0160  0.1728
 2721DOPC   GL131919  29.480   4.623  12.731 -0.1582 -0.0031  0.1401
 2721DOPC   GL231920  29.595   4.834  12.797 -0.1321  0.2209  0.1765
 2721DOPC   C1A31921  29.139   4.850  12.549  0.1506 -0.2739 -0.2985
 2721DOPC   D2A31922  28.788   5.182  12.706  0.2446 -0.3897  0.1993
 2721DOPC   C3A31923  28.437   5.164  13.073  0.1108  0.0528  0.1601
 2721DOPC   C4A31924  28.156   5.251  13.516 -0.0902  0.0425 -0.0236
 2721DOPC   C1B31925  29.420   5.185  13.042 -0.0991  0.1380  0.3925
 2721DOPC   D2B31926  29.168   5.400  13.403 -0.0569  0.1362  0.1901
 2721DOPC   C3B31927  29.105   5.697  13.776 -0.3698  0.2559 -0.1652
 2721DOPC   C4B31928  28.925   5.838  14.144 -0.0030 -0.0418  0.0658
 2722DOPS   CNO31929  25.900   0.091  12.533  0.0768  0.2085 -0.1349
 2722DOPS   PO431930  25.874   0.274  12.858  0.1192 -0.2631  0.0100
 2722DOPS   GL131931  26.022   0.426  13.152  0.0475 -0.0935  0.0023
 2722DOPS   GL231932  26.356   0.321  13.258 -0.0769 -0.4047  0.1405
 2722DOPS   C1A31933  25.990   0.433  13.629 -0.1433 -0.1534  0.0682
 2722DOPS   D2A31934  25.998   0.789  13.883 -0.1036  0.1249 -0.0621
 2722DOPS   C3A31935  25.715   0.848  14.273 -0.2764 -0.0164  0.3388
 2722DOPS   C4A31936  25.511   0.612  14.629 -0.1322 -0.1602 -0.1119
 2722DOPS   C1B31937  26.539   0.417  13.695 -0.2595  0.0401 -0.0122
 2722DOPS   D2B31938  26.716   0.675  14.035  0.1508 -0.1559 -0.1021
 2722DOPS   C3B31939  26.510   0.935  14.313  0.1098 -0.1262  0.0219
 2722DOPS   C4B31940  26.460   0.827  14.749 -0.4230 -0.0794  0.1605
 2723DOPC   NC331941  25.521   4.888  12.486 -0.0856 -0.1677 -0.2928
 2723DOPC   PO431942  25.187   5.105  12.514  0.0021 -0.3079 -0.1052
 2723DOPC   GL131943  25.094   4.924  12.727  0.2279  0.0761 -0.2950
 2723DOPC   GL231944  25.293   4.683  12.872 -0.0263 -0.2637 -0.0005
 2723DOPC   C1A31945  25.012   5.109  13.129 -0.1119  0.2743 -0.2254
 2723DOPC   D2A31946  24.736   5.191  13.485 -0.0811  0.0327 -0.1608
 2723DOPC   C3A31947  24.827   5.008  13.877  0.1160 -0.0265  0.0672
 2723DOPC   C4A31948  24.855   4.734  14.257 -0.1102 -0.2473 -0.0125
 2723DOPC   C1B31949  25.322   4.383  13.249 -0.1595 -0.1753  0.0587
 2723DOPC   D2B31950  25.333   4.185  13.675  0.0318 -0.1306  0.2197
 2723DOPC   C3B31951  25.224   3.787  13.790 -0.0900  0.2646 -0.0950
 2723DOPC   C4B31952  25.315   3.392  13.562 -0.0137 -0.0210 -0.0613
 2724DOPC   NC331953  28.798   4.042  13.298  0.0089 -0.0737 -0.4401
 2724DOPC   PO431954  28.735   3.697  13.098 -0.1040 -0.0753 -0.1651
 2724DOPC   GL131955  28.581   3.451  13.351 -0.1496 -0.3987  0.3572
 2724DOPC   GL231956  28.538   3.188  13.252  0.0334 -0.0722 -0.0156
 2724DOPC   C1A31957  28.468   3.361  13.764 -0.0081  0.1154  0.0847
 2724DOPC   D2A31958  28.230   3.403  14.190 -0.0265  0.0099 -0.2448
 2724DOPC   C3A31959  28.304   3.011  14.374  0.2124 -0.3124 -0.2157
 2724DOPC   C4A31960  28.422   2.549  14.524  0.2445  0.0079  0.1757
 2724DOPC   C1B31961  28.158   3.519  13.319 -0.0772 -0.0944 -0.2660
 2724DOPC   D2B31962  27.774   3.651  13.545  0.0594  0.1705  0.1454
 2724DOPC   C3B31963  27.318   3.751  13.394 -0.3063  0.0086  0.2632
 2724DOPC   C4B31964  26.983   3.663  13.092  0.1478 -0.2059  0.0526
 2725DOPE   NH331965  29.043   3.396  12.312  0.2987 -0.3287 -0.2653
 2725DOPE   PO431966  29.363   3.376  12.455  0.0261  0.0501 -0.2043
 2725DOPE   GL131967  29.674   3.235  12.706 -0.0052  0.0230  0.2649
 2725DOPE   GL231968  29.768   3.027  12.479  0.1690 -0.0541  0.2461
 2725DOPE   C1A31969  29.676   3.015  13.081 -0.1371  0.1209 -0.0873
 2725DOPE   D2A31970  29.908   2.868  13.473 -0.3074 -0.2382  0.0197
 2725DOPE   C3A31971  29.885   3.175  13.863 -0.0228  0.0147  0.0469
 2725DOPE   C4A31972  29.777   3.324  14.337  0.0533  0.1803  0.1836
 2725DOPE   C1B31973  29.608   2.584  12.509  0.0068  0.0050 -0.1847
 2725DOPE   D2B31974  29.425   2.423  12.950  0.1464 -0.0007  0.3137
 2725DOPE   C3B31975  29.432   2.631  13.363 -0.0472 -0.1028 -0.1252
 2725DOPE   C4B31976  29.579   2.753  13.794  0.1965  0.4216  0.0713
 2726DOPC   NC331977  26.088   3.485  12.527  0.1988  0.0846  0.1643
 2726DOPC   PO431978  25.818   3.782  12.507  0.0582 -0.0609  0.0452
 2726DOPC   GL131979  25.635   3.410  12.654  0.0875 -0.2190  0.3332
 2726DOPC   GL231980  25.394   3.568  12.711 -0.0527  0.1712 -0.2418
 2726DOPC   C1A31981  25.335   3.133  12.452 -0.0139 -0.0488 -0.2562
 2726DOPC   D2A31982  25.270   2.680  12.331  0.0510  0.1289 -0.1075
 2726DOPC   C3A31983  24.938   2.435  12.569 -0.0698  0.1181 -0.1958
 2726DOPC   C4A31984  24.612   2.401  12.948  0.2727 -0.0892 -0.0179
 2726DOPC   C1B31985  25.363   3.231  13.052  0.1144 -0.1907  0.0515
 2726DOPC   D2B31986  25.065   3.011  13.271 -0.1181 -0.2331  0.1695
 2726DOPC   C3B31987  24.893   2.645  13.347 -0.3246  0.0234  0.0415
 2726DOPC   C4B31988  24.677   2.258  13.464 -0.0258  0.0219 -0.0913
 2727DOPC   NC331989  29.909  11.259  13.062  0.0528 -0.1887  0.0719
 2727DOPC   PO431990  30.289  11.124  13.030  0.2341 -0.0795  0.3363
 2727DOPC   GL131991  30.363  11.336  13.319 -0.3763  0.0446 -0.0272
 2727DOPC   GL231992  30.690  11.302  13.407 -0.3117 -0.1087  0.3884
 2727DOPC   C1A31993  30.422  11.448  13.758  0.1383 -0.2353 -0.0494
 2727DOPC   D2A31994  30.246  11.328  14.186 -0.1255 -0.2548 -0.1506
 2727DOPC   C3A31995  29.904  11.304  14.435  0.0223  0.1754 -0.0084
 2727DOPC   C4A31996  29.503  11.047  14.569  0.2399 -0.3656  0.0300
 2727DOPC   C1B31997  31.126  11.117  13.379 -0.2511 -0.0499  0.2460
 2727DOPC   D2B31998  31.498  11.157  13.611 -0.1327  0.0995  0.0286
 2727DOPC   C3B31999  31.616  10.955  13.996  0.0860  0.0096  0.0199
 2727DOPC   C4B32000  31.762  10.701  14.335  0.1657 -0.0171 -0.1314
 2728POSM   NC332001  28.770  10.530  12.278  0.4510  0.0212  0.1799
 2728POSM   PO432002  29.027  10.602  12.525  0.1664  0.1405  0.1105
 2728POSM   AM132003  28.824  10.451  12.749  0.2262 -0.1946  0.2728
 2728POSM   AM232004  28.804  10.485  13.038 -0.0977  0.2350  0.3248
 2728POSM   T1A32005  28.626  10.011  12.928 -0.1854 -0.0073 -0.0969
 2728POSM   C2A32006  28.401  10.010  13.290  0.0018  0.0984 -0.0031
 2728POSM   C3A32007  28.326   9.897  13.742  0.3078 -0.0426  0.2682
 2728POSM   C1B32008  28.593  10.545  13.280  0.1879  0.1139  0.2065
 2728POSM   D2B32009  28.173  10.665  13.474 -0.3090 -0.1249  0.0664
 2728POSM   C3B32010  27.991  10.463  13.870  0.1933  0.1775 -0.2165
 2728POSM   C4B32011  28.087  10.243  14.244  0.0900 -0.1647  0.1964
 2729DOPE   NH332012  28.809   3.732  12.610 -0.0168 -0.0747  0.2437
 2729DOPE   PO432013  29.005   3.860  12.405  0.0538  0.1269 -0.0272
 2729DOPE   GL132014  28.916   4.103  12.838 -0.2128 -0.0612 -0.0138
 2729DOPE   GL232015  28.628   4.125  12.819  0.2707  0.0924  0.1616
 2729DOPE   C1A32016  28.784   4.597  12.832  0.1434 -0.0746  0.0835
 2729DOPE   D2A32017  28.408   4.833  12.679  0.1067 -0.0597  0.0882
 2729DOPE   C3A32018  27.997   4.733  12.772  0.1904  0.1307 -0.0738
 2729DOPE   C4A32019  27.721   4.344  12.851 -0.3111 -0.1857 -0.1797
 2729DOPE   C1B32020  28.300   4.390  13.038  0.0937  0.1160 -0.0599
 2729DOPE   D2B32021  28.244   4.342  13.476  0.1558  0.0768  0.1283
 2729DOPE   C3B32022  27.979   4.579  13.750 -0.0881 -0.3613  0.2750
 2729DOPE   C4B32023  27.875   4.958  14.046  0.0267 -0.0648  0.0999
 2730DOPS   CNO32024  28.381   3.351  12.795 -0.1388  0.5220  0.2020
 2730DOPS   PO432025  28.431   3.425  12.409 -0.1392  0.1726 -0.3200
 2730DOPS   GL132026  28.241   3.752  12.637  0.0624 -0.0476 -0.1812
 2730DOPS   GL232027  28.213   3.815  12.911  0.2629 -0.0489 -0.0194
 2730DOPS   C1A32028  28.027   4.140  12.570  0.0895  0.0486  0.4043
 2730DOPS   D2A32029  27.556   4.184  12.423  0.0788  0.1025 -0.1002
 2730DOPS   C3A32030  27.649   4.566  12.160 -0.0368  0.0045 -0.1975
 2730DOPS   C4A32031  27.573   4.973  11.928 -0.0747  0.0307 -0.0187
 2730DOPS   C1B32032  27.951   4.065  13.232  0.1185  0.2129 -0.1374
 2730DOPS   D2B32033  27.752   4.143  13.635 -0.2614 -0.0455 -0.2276
 2730DOPS   C3B32034  28.137   3.960  13.805 -0.1546  0.0747 -0.0564
 2730DOPS   C4B32035  28.538   3.851  13.838 -0.1582 -0.2837  0.2001
 2731DOPC   NC332036  27.993  11.049  12.246  0.3390 -0.0789 -0.1207
 2731DOPC   PO432037  27.677  11.186  12.478 -0.0547 -0.1831 -0.0809
 2731DOPC   GL132038  27.518  11.086  12.709  0.1738 -0.1585 -0.4147
 2731DOPC   GL232039  27.305  10.864  12.799 -0.1229 -0.0144 -0.1587
 2731DOPC   C1A32040  27.704  11.265  13.064  0.2039 -0.3296 -0.0220
 2731DOPC   D2A32041  27.480  11.433  13.415 -0.1065 -0.1394 -0.2568
 2731DOPC   C3A32042  27.602  11.531  13.844  0.2283 -0.1468  0.2573
 2731DOPC   C4A32043  27.799  11.509  14.315  0.2314 -0.4186 -0.1111
 2731DOPC   C1B32044  27.161  10.417  12.870  0.1505  0.0258 -0.1682
 2731DOPC   D2B32045  26.939  10.181  13.200 -0.1711 -0.0320 -0.3310
 2731DOPC   C3B32046  26.894  10.413  13.652 -0.3493  0.0775 -0.1032
 2731DOPC   C4B32047  27.292  10.525  13.915  0.1205 -0.2243  0.0407
 2732DOPE   NH332048  25.267   4.177  12.675 -0.1339 -0.0044 -0.1871
 2732DOPE   PO432049  25.341   3.986  12.403 -0.1675  0.3351 -0.1841
 2732DOPE   GL132050  24.944   3.889  12.512 -0.0089  0.0794 -0.0314
 2732DOPE   GL232051  24.810   4.033  12.323 -0.4037  0.0275 -0.2712
 2732DOPE   C1A32052  24.627   3.678  12.815 -0.1099  0.1031  0.2641
 2732DOPE   D2A32053  24.391   3.564  13.162  0.1111  0.0335 -0.0653
 2732DOPE   C3A32054  23.934   3.364  13.294 -0.1014  0.0988  0.2083
 2732DOPE   C4A32055  23.601   3.546  13.579  0.0218 -0.2204 -0.0386
 2732DOPE   C1B32056  24.445   4.104  12.652 -0.1283  0.2246 -0.0290
 2732DOPE   D2B32057  24.176   3.965  13.028  0.0752  0.0460  0.3565
 2732DOPE   C3B32058  24.083   3.828  13.448  0.1966  0.0115 -0.1915
 2732DOPE   C4B32059  24.303   3.462  13.628  0.1811  0.2131  0.1997
 2733DOPE   NH332060  29.734   5.773  12.656 -0.1008  0.2695 -0.3333
 2733DOPE   PO432061  29.624   5.871  12.366  0.2275  0.0270  0.1530
 2733DOPE   GL132062  29.492   5.516  12.309  0.4069 -0.3040  0.1132
 2733DOPE   GL232063  29.438   5.387  12.572 -0.0049 -0.1106 -0.0293
 2733DOPE   C1A32064  29.043   5.319  12.294 -0.3070 -0.0957  0.1864
 2733DOPE   D2A32065  28.642   5.576  12.346 -0.0258 -0.0534 -0.0069
 2733DOPE   C3A32066  28.342   5.526  12.696  0.0820 -0.1629  0.1025
 2733DOPE   C4A32067  28.224   5.931  12.925 -0.2015  0.0130  0.1685
 2733DOPE   C1B32068  29.110   5.495  12.919 -0.0003 -0.0321  0.1819
 2733DOPE   D2B32069  29.211   5.886  13.143  0.0010  0.2397 -0.1443
 2733DOPE   C3B32070  29.074   6.227  13.436 -0.4062  0.3203  0.0294
 2733DOPE   C4B32071  29.146   6.564  13.765 -0.1815 -0.0343 -0.1633
 2734POSM   NC332072  33.077   7.673  12.630  0.1949  0.2239  0.0917
 2734POSM   PO432073  32.808   7.363  12.726 -0.0425 -0.0241 -0.0666
 2734POSM   AM132074  32.685   7.456  13.047 -0.0628  0.3050  0.0802
 2734POSM   AM232075  32.432   7.343  13.185 -0.3342  0.0403  0.0868
 2734POSM   T1A32076  32.745   7.638  13.505  0.3093 -0.2928 -0.2154
 2734POSM   C2A32077  32.696   7.468  13.951  0.1390 -0.1482 -0.0718
 2734POSM   C3A32078  32.612   7.034  13.925 -0.0162 -0.2633 -0.3050
 2734POSM   C1B32079  32.345   7.334  13.494 -0.3740  0.0346  0.0605
 2734POSM   D2B32080  32.220   7.565  13.877  0.0744  0.1435  0.1671
 2734POSM   C3B32081  31.706   7.508  13.870  0.0683  0.2674 -0.0681
 2734POSM   C4B32082  31.348   7.824  13.855  0.0090  0.0418 -0.1615
 2735POSM   NC332083  32.104  11.461  12.139 -0.1955 -0.1901  0.1633
 2735POSM   PO432084  32.259  11.174  12.337 -0.0426 -0.0515 -0.2204
 2735POSM   AM132085  32.297  11.075  12.625  0.1384  0.2400  0.0274
 2735POSM   AM232086  32.174  11.003  12.877 -0.0777 -0.0819  0.0504
 2735POSM   T1A32087  32.525  10.670  12.659  0.1435 -0.1490  0.1680
 2735POSM   C2A32088  32.576  10.245  12.718  0.0195 -0.0526 -0.0968
 2735POSM   C3A32089  32.394   9.857  12.691  0.2252 -0.1262  0.4927
 2735POSM   C1B32090  32.445  10.969  13.097 -0.0153 -0.3075  0.1437
 2735POSM   D2B32091  32.579  10.906  13.515  0.0819  0.0468  0.0395
 2735POSM   C3B32092  33.005  10.983  13.773 -0.1349 -0.6689  0.0754
 2735POSM   C4B32093  33.401  10.838  14.045  0.1422  0.4755 -0.1214
 2736DOPC   NC332094  23.373   3.354  12.259 -0.0602 -0.1370  0.1389
 2736DOPC   PO432095  23.160   3.396  12.626 -0.0270 -0.3384  0.1773
 2736DOPC   GL132096  23.380   3.598  12.799  0.1396 -0.0907 -0.3263
 2736DOPC   GL232097  23.649   3.532  12.712 -0.0438 -0.1647 -0.1066
 2736DOPC   C1A32098  23.628   3.962  13.008  0.2676 -0.0105  0.1352
 2736DOPC   D2A32099  23.625   4.383  13.213 -0.1995 -0.0285  0.1178
 2736DOPC   C3A32100  23.958   4.310  13.470  0.0878  0.0678  0.0197
 2736DOPC   C4A32101  24.424   4.316  13.390  0.1756  0.0542 -0.1586
 2736DOPC   C1B32102  23.657   3.919  12.429  0.1727  0.1356  0.1145
 2736DOPC   D2B32103  24.005   4.165  12.471  0.0303 -0.3314  0.0487
 2736DOPC   C3B32104  24.010   4.373  12.843  0.0267  0.0566  0.0408
 2736DOPC   C4B32105  24.230   4.718  13.032 -0.0228 -0.1194 -0.2147
 2737DOPC   NC332106  27.281  10.858  12.298 -0.2067 -0.0139 -0.0491
 2737DOPC   PO432107  27.635  10.720  12.417  0.0458  0.2142  0.1643
 2737DOPC   GL132108  27.430  10.323  12.471  0.1043 -0.0319  0.0449
 2737DOPC   GL232109  27.573  10.186  12.630  0.4201  0.1588 -0.3753
 2737DOPC   C1A32110  27.011  10.209  12.410  0.3737  0.2602  0.1970
 2737DOPC   D2A32111  26.603  10.113  12.243 -0.1812 -0.2840 -0.4802
 2737DOPC   C3A32112  26.248   9.794  12.243  0.3992  0.0464 -0.1417
 2737DOPC   C4A32113  25.934   9.499  12.160 -0.1337 -0.3534  0.3737
 2737DOPC   C1B32114  27.511  10.123  13.094  0.0976  0.1653 -0.0551
 2737DOPC   D2B32115  27.282   9.787  13.320  0.2173  0.1427 -0.1597
 2737DOPC   C3B32116  27.285   9.975  13.701  0.0526 -0.0169 -0.0606
 2737DOPC   C4B32117  26.892  10.027  13.952 -0.0359 -0.0073  0.4526
 2738DOPC   NC332118  29.287   7.896  12.804 -0.0683 -0.0478 -0.5874
 2738DOPC   PO432119  29.606   7.993  12.610 -0.0629 -0.3171 -0.0900
 2738DOPC   GL132120  29.787   7.717  12.829 -0.1495  0.0782  0.2613
 2738DOPC   GL232121  29.847   7.887  13.038 -0.1505 -0.0800 -0.0636
 2738DOPC   C1A32122  29.834   7.438  13.245  0.1920 -0.0391  0.2761
 2738DOPC   D2A32123  30.085   7.115  13.515  0.0774 -0.1477  0.0568
 2738DOPC   C3A32124  29.871   7.095  13.930  0.2304  0.1427  0.0683
 2738DOPC   C4A32125  30.093   6.888  14.290  0.1999 -0.1705  0.5213
 2738DOPC   C1B32126  29.818   7.993  13.457 -0.0982 -0.0092 -0.1401
 2738DOPC   D2B32127  29.920   7.871  13.915  0.4680 -0.0022 -0.3154
 2738DOPC   C3B32128  30.272   7.626  13.981 -0.0420 -0.0101  0.0104
 2738DOPC   C4B32129  30.506   7.298  13.775  0.0147 -0.0690 -0.1046
 2739POSM   NC332130  28.160   2.953  12.268  0.2597 -0.2079 -0.4143
 2739POSM   PO432131  27.831   3.109  12.133  0.1324 -0.0800 -0.2519
 2739POSM   AM132132  27.590   3.302  12.274 -0.2207  0.0046 -0.4986
 2739POSM   AM232133  27.404   3.302  12.471  0.0154 -0.2594 -0.0405
 2739POSM   T1A32134  27.384   3.756  12.228  0.0071 -0.0245  0.0773
 2739POSM   C2A32135  27.090   4.194  12.272 -0.0428  0.2559  0.1187
 2739POSM   C3A32136  27.121   4.666  12.186  0.2058 -0.1552 -0.2876
 2739POSM   C1B32137  27.079   3.319  12.400  0.0693  0.0518 -0.0037
 2739POSM   D2B32138  26.674   3.266  12.644  0.1575  0.1959  0.1135
 2739POSM   C3B32139  26.334   2.963  12.803 -0.3798 -0.0334 -0.1897
 2739POSM   C4B32140  26.172   2.597  12.970  0.0757  0.1209 -0.3759
 2740DOPC   NC332141  25.595  11.458  11.956  0.4711  0.2406  0.0580
 2740DOPC   PO432142  25.897  11.206  11.986  0.1348  0.0085  0.0192
 2740DOPC   GL132143  25.964  10.884  12.337  0.0642 -0.1698  0.2958
 2740DOPC   GL232144  25.762  11.000  12.531 -0.0744 -0.1810 -0.2743
 2740DOPC   C1A32145  25.837  10.506  12.651 -0.0034  0.1510  0.0390
 2740DOPC   D2A32146  25.705  10.126  12.934 -0.4051 -0.4196  0.0214
 2740DOPC   C3A32147  25.588  10.268  13.343 -0.0107  0.0200 -0.0686
 2740DOPC   C4A32148  25.287  10.142  13.663 -0.1735  0.1296 -0.0340
 2740DOPC   C1B32149  25.483  10.749  12.815  0.2151 -0.2969  0.1170
 2740DOPC   D2B32150  25.110  10.768  12.989  0.3324  0.1898 -0.1639
 2740DOPC   C3B32151  24.991  10.965  13.391  0.0143 -0.0916  0.1745
 2740DOPC   C4B32152  24.812  11.295  13.693  0.1155 -0.1223  0.0602
 2741POSM   NC332153  33.728   3.648  12.489  0.0634 -0.0057  0.1028
 2741POSM   PO432154  34.048   3.821  12.602 -0.1097 -0.0819 -0.4579
 2741POSM   AM132155  33.972   3.917  12.914 -0.0137 -0.0589 -0.1344
 2741POSM   AM232156  33.851   4.190  13.002 -0.1495  0.2365 -0.0707
 2741POSM   T1A32157  33.768   3.919  13.397  0.0537 -0.0246  0.1751
 2741POSM   C2A32158  33.540   4.156  13.646  0.0252 -0.1202  0.1324
 2741POSM   C3A32159  33.818   4.240  14.017 -0.2243  0.3022 -0.0597
 2741POSM   C1B32160  33.571   4.322  13.200 -0.0555 -0.0863 -0.2448
 2741POSM   D2B32161  33.424   4.618  13.528  0.0275  0.0494 -0.0873
 2741POSM   C3B32162  33.350   4.998  13.685 -0.3414 -0.1576 -0.2612
 2741POSM   C4B32163  33.267   5.025  14.169  0.3350  0.1364  0.0644
 2742DOPS   CNO32164  31.141   1.725  12.082  0.0948 -0.0227  0.2044
 2742DOPS   PO432165  31.434   1.633  12.298 -0.4139 -0.2119  0.0566
 2742DOPS   GL132166  31.616   1.762  12.658 -0.0677  0.2732  0.1926
 2742DOPS   GL232167  31.865   1.773  12.425  0.1124 -0.0191 -0.0818
 2742DOPS   C1A32168  31.702   1.910  13.058  0.2008 -0.0370  0.0314
 2742DOPS   D2A32169  31.706   1.955  13.494 -0.0519 -0.0031  0.1195
 2742DOPS   C3A32170  31.996   2.335  13.570 -0.3315 -0.1029  0.0422
 2742DOPS   C4A32171  32.346   2.638  13.589 -0.0728  0.0519  0.2320
 2742DOPS   C1B32172  31.681   2.178  12.524 -0.0139  0.0551 -0.0877
 2742DOPS   D2B32173  31.449   2.283  12.910  0.3496  0.1688 -0.0533
 2742DOPS   C3B32174  31.290   2.265  13.310 -0.1292  0.3263 -0.0911
 2742DOPS   C4B32175  31.292   2.133  13.730 -0.0800 -0.2239 -0.3234
 2743DOPC   NC332176  27.286   6.303  12.746  0.1000  0.0707 -0.4246
 2743DOPC   PO432177  27.214   6.196  12.368  0.0002  0.0748 -0.0822
 2743DOPC   GL132178  27.545   6.082  12.339  0.0484 -0.3068  0.0999
 2743DOPC   GL232179  27.801   6.297  12.293  0.3014 -0.2872 -0.1521
 2743DOPC   C1A32180  27.761   5.843  12.652 -0.1109 -0.1101 -0.1026
 2743DOPC   D2A32181  27.746   5.438  12.756  0.0368  0.2402  0.2516
 2743DOPC   C3A32182  27.606   4.999  12.694 -0.1184  0.1804 -0.1512
 2743DOPC   C4A32183  27.391   4.678  12.575 -0.1257  0.0761  0.3235
 2743DOPC   C1B32184  28.215   6.283  12.493  0.0976  0.0604 -0.3575
 2743DOPC   D2B32185  28.600   6.069  12.373 -0.0409 -0.1226 -0.0074
 2743DOPC   C3B32186  28.760   5.840  12.802 -0.0519 -0.0536 -0.2445
 2743DOPC   C4B32187  28.751   5.643  13.232 -0.5820 -0.2253 -0.2557
 2744DOPS   CNO32188  23.015  10.052  11.876  0.3063 -0.4906  0.0482
 2744DOPS   PO432189  23.288  10.306  11.880 -0.0436  0.2680 -0.3333
 2744DOPS   GL132190  23.597  10.429  12.123  0.3505 -0.0088 -0.2018
 2744DOPS   GL232191  23.769  10.557  11.973 -0.2248 -0.2290 -0.0558
 2744DOPS   C1A32192  23.731  10.236  12.550  0.0868  0.1839 -0.2242
 2744DOPS   D2A32193  23.833   9.905  12.875 -0.0631 -0.3775 -0.5180
 2744DOPS   C3A32194  23.728   9.817  13.313  0.1125  0.1663 -0.3922
 2744DOPS   C4A32195  23.534   9.848  13.775 -0.1830 -0.0104 -0.0572
 2744DOPS   C1B32196  24.108  10.474  12.229 -0.0861 -0.1039  0.1313
 2744DOPS   D2B32197  24.474  10.209  12.376 -0.1618 -0.1434 -0.2467
 2744DOPS   C3B32198  24.400   9.781  12.170  0.0258 -0.1416  0.2119
 2744DOPS   C4B32199  24.311   9.382  11.968 -0.3311 -0.1604 -0.0874
 2745DOPE   NH332200  27.105   8.011  12.374  0.0187  0.1096 -0.0923
 2745DOPE   PO432201  27.347   8.186  12.397 -0.0681  0.0020 -0.1015
 2745DOPE   GL132202  27.482   8.554  12.659  0.1883 -0.0186 -0.2914
 2745DOPE   GL232203  27.646   8.297  12.795 -0.0177 -0.0165  0.0336
 2745DOPE   C1A32204  27.556   9.020  12.527  0.2445 -0.5018  0.0778
 2745DOPE   D2A32205  27.737   9.372  12.453  0.1543 -0.0231 -0.0402
 2745DOPE   C3A32206  27.377   9.718  12.501  0.0724  0.1513 -0.2573
 2745DOPE   C4A32207  27.108   9.928  12.812  0.1760 -0.2439 -0.1628
 2745DOPE   C1B32208  28.079   8.513  12.802 -0.2835 -0.1000 -0.2073
 2745DOPE   D2B32209  28.497   8.660  12.774 -0.2832 -0.1585  0.1159
 2745DOPE   C3B32210  28.593   9.104  12.702 -0.1425  0.0400 -0.1193
 2745DOPE   C4B32211  28.386   9.506  12.526  0.3672  0.0391  0.4070
 2746DOPE   NH332212  33.843   1.938  12.527 -0.1416 -0.0504  0.2345
 2746DOPE   PO432213  33.879   2.256  12.462  0.1052  0.0191  0.1075
 2746DOPE   GL132214  33.940   2.455  12.786 -0.1793 -0.0141 -0.0271
 2746DOPE   GL232215  33.647   2.636  12.793 -0.3868  0.0915  0.0794
 2746DOPE   C1A32216  34.148   2.431  13.195 -0.0214 -0.0095 -0.2366
 2746DOPE   D2A32217  34.219   2.200  13.606 -0.0672 -0.4173 -0.2790
 2746DOPE   C3A32218  34.091   2.369  14.046 -0.2424 -0.1090 -0.0002
 2746DOPE   C4A32219  34.003   2.755  14.224  0.0129  0.0193  0.1092
 2746DOPE   C1B32220  33.688   2.564  13.298 -0.0027  0.0869 -0.0336
 2746DOPE   D2B32221  33.762   2.320  13.690  0.0859  0.2800  0.2188
 2746DOPE   C3B32222  33.682   1.951  13.941 -0.2280  0.2643  0.2348
 2746DOPE   C4B32223  33.869   1.570  14.215 -0.0981 -0.0324 -0.1040
 2747DOPE   NH332224  30.696   3.814  12.696 -0.2289 -0.1075  0.1424
 2747DOPE   PO432225  30.569   4.099  12.770 -0.3462 -0.2326  0.2941
 2747DOPE   GL132226  30.598   4.155  13.113  0.0888  0.2516  0.2357
 2747DOPE   GL232227  30.801   3.959  13.234 -0.0640 -0.2128 -0.0557
 2747DOPE   C1A32228  30.355   4.419  13.371  0.0074 -0.0316  0.1624
 2747DOPE   D2A32229  30.277   4.596  13.783  0.3702 -0.0726 -0.4276
 2747DOPE   C3A32230  30.548   4.355  14.121 -0.0803  0.0343  0.2496
 2747DOPE   C4A32231  30.619   3.931  14.303 -0.1746  0.2070 -0.0871
 2747DOPE   C1B32232  30.587   3.491  13.284 -0.2000 -0.3367 -0.0296
 2747DOPE   D2B32233  30.412   3.079  13.453 -0.0655 -0.1813 -0.0119
 2747DOPE   C3B32234  30.387   3.041  13.917  0.1113 -0.0271  0.3118
 2747DOPE   C4B32235  30.720   2.816  14.125  0.1053  0.1166 -0.1699
 2748DOPC   NC332236  28.579   2.173  12.416  0.1024  0.0744  0.0524
 2748DOPC   PO432237  28.624   2.086  12.806  0.1758 -0.2196  0.0826
 2748DOPC   GL132238  28.749   2.260  13.196  0.3036  0.0355  0.2730
 2748DOPC   GL232239  28.557   2.033  13.319  0.2159 -0.2177  0.0890
 2748DOPC   C1A32240  29.164   2.172  13.402  0.0863  0.2078 -0.1227
 2748DOPC   D2A32241  29.393   2.289  13.750  0.0021  0.1041 -0.2255
 2748DOPC   C3A32242  29.267   1.932  14.005  0.2078  0.0546 -0.1723
 2748DOPC   C4A32243  29.331   1.486  13.988  0.0945  0.1699  0.4361
 2748DOPC   C1B32244  28.576   1.574  13.482  0.1320 -0.3693  0.2631
 2748DOPC   D2B32245  28.396   1.183  13.723 -0.0518  0.1579 -0.1067
 2748DOPC   C3B32246  28.200   0.922  14.028 -0.3044 -0.1549  0.0613
 2748DOPC   C4B32247  28.000   0.660  14.363  0.3553 -0.0268  0.1111
 2749DOPS   CNO32248  33.944   6.748  12.571 -0.1784 -0.3786  0.2441
 2749DOPS   PO432249  33.758   6.998  12.721  0.1331 -0.1955 -0.0326
 2749DOPS   GL132250  33.875   7.152  13.071  0.0575  0.0746 -0.1622
 2749DOPS   GL232251  33.907   7.422  13.029 -0.1109 -0.0597  0.1135
 2749DOPS   C1A32252  33.812   6.862  13.412 -0.0603 -0.0761 -0.2964
 2749DOPS   D2A32253  33.817   6.709  13.844 -0.1750  0.3357 -0.0986
 2749DOPS   C3A32254  33.922   6.956  14.234 -0.0229  0.0358  0.1018
 2749DOPS   C4A32255  34.154   6.991  14.731 -0.1294  0.1500  0.1947
 2749DOPS   C1B32256  34.146   7.352  13.412 -0.0962 -0.1509  0.3834
 2749DOPS   D2B32257  34.490   7.315  13.769  0.0993  0.0683 -0.2190
 2749DOPS   C3B32258  34.300   6.887  13.926  0.1216  0.0643 -0.2564
 2749DOPS   C4B32259  34.327   6.656  14.349  0.2203 -0.0674  0.2331
 2750DOPS   CNO32260  30.443  10.313  12.528  0.2276 -0.0057  0.0358
 2750DOPS   PO432261  30.542  10.309  12.917 -0.0697  0.0006 -0.0796
 2750DOPS   GL132262  30.766  10.154  13.136 -0.3680 -0.3076 -0.1939
 2750DOPS   GL232263  30.548  10.059  13.341  0.1628  0.0726  0.1055
 2750DOPS   C1A32264  31.148  10.209  13.471 -0.0203 -0.0671  0.0823
 2750DOPS   D2A32265  31.585  10.156  13.594  0.3343 -0.3043 -0.3588
 2750DOPS   C3A32266  31.543   9.900  13.985  0.6287  0.3326 -0.3568
 2750DOPS   C4A32267  31.437   9.822  14.388 -0.0941 -0.4639 -0.0364
 2750DOPS   C1B32268  30.750  10.036  13.670  0.3775 -0.2935  0.2804
 2750DOPS   D2B32269  30.835  10.396  13.914 -0.0533  0.1993 -0.3545
 2750DOPS   C3B32270  30.595  10.411  14.342 -0.1674  0.0378  0.1063
 2750DOPS   C4B32271  30.272  10.537  14.635 -0.0303 -0.3538  0.1265
 2751DOPC   NC332272  30.266   9.903  12.903  0.0904  0.2953 -0.1183
 2751DOPC   PO432273  29.938   9.659  12.969 -0.3164 -0.0519 -0.2164
 2751DOPC   GL132274  29.893   9.869  13.366 -0.1254 -0.1993  0.1750
 2751DOPC   GL232275  29.762   9.621  13.508  0.2338  0.1079 -0.0084
 2751DOPC   C1A32276  30.196   9.955  13.678 -0.0527  0.0886 -0.2213
 2751DOPC   D2A32277  30.437  10.038  14.045 -0.0292 -0.0844 -0.2118
 2751DOPC   C3A32278  30.554   9.682  14.312 -0.2638  0.0785  0.2810
 2751DOPC   C4A32279  30.588   9.549  14.778 -0.4238 -0.2854 -0.0361
 2751DOPC   C1B32280  30.031   9.561  13.894  0.3585 -0.0399 -0.1845
 2751DOPC   D2B32281  30.055   9.765  14.286  0.1360 -0.0735 -0.1508
 2751DOPC   C3B32282  29.971   9.723  14.760 -0.0320  0.3542  0.0028
 2751DOPC   C4B32283  29.650   9.516  14.954  0.1304 -0.0237 -0.2616
 2752DOPS   CNO32284  26.138   4.788  12.295 -0.2225  0.1579 -0.3338
 2752DOPS   PO432285  26.010   4.746  12.610 -0.1855  0.0686  0.0679
 2752DOPS   GL132286  25.911   4.774  13.023  0.0093  0.0124 -0.2049
 2752DOPS   GL232287  26.169   4.646  13.056  0.2581  0.1506 -0.0070
 2752DOPS   C1A32288  25.612   4.749  13.354  0.1735  0.0656  0.0600
 2752DOPS   D2A32289  25.257   4.939  13.583 -0.2465 -0.0548 -0.0101
 2752DOPS   C3A32290  25.286   4.705  13.978 -0.1876 -0.1046  0.0016
 2752DOPS   C4A32291  25.340   4.501  14.416 -0.0392 -0.4468 -0.0478
 2752DOPS   C1B32292  26.639   4.559  13.052 -0.0579 -0.1345 -0.1635
 2752DOPS   D2B32293  26.886   4.520  12.649 -0.2875 -0.0655 -0.1055
 2752DOPS   C3B32294  27.223   4.242  12.875 -0.2527  0.2988 -0.1311
 2752DOPS   C4B32295  27.437   4.242  13.296  0.3901  0.1999 -0.0296
 2753DOPS   CNO32296  26.850   6.476  12.544 -0.2566 -0.3922  0.2488
 2753DOPS   PO432297  26.965   6.823  12.528  0.0681  0.1014 -0.3939
 2753DOPS   GL132298  27.175   6.720  12.856 -0.1705 -0.2945  0.2297
 2753DOPS   GL232299  27.030   6.885  13.050 -0.0381 -0.3498  0.1168
 2753DOPS   C1A32300  27.314   6.416  13.213  0.1631  0.2247 -0.0743
 2753DOPS   D2A32301  27.488   6.412  13.628 -0.0301  0.1645  0.1258
 2753DOPS   C3A32302  27.851   6.140  13.629 -0.2388  0.0902 -0.1932
 2753DOPS   C4A32303  28.236   5.901  13.512 -0.4366  0.1773  0.2600
 2753DOPS   C1B32304  26.973   6.646  13.553  0.3626 -0.0960  0.0210
 2753DOPS   D2B32305  27.029   6.303  13.786  0.1349 -0.0603  0.1327
 2753DOPS   C3B32306  26.886   6.081  14.190  0.2507  0.2011  0.0265
 2753DOPS   C4B32307  26.568   6.034  14.506 -0.3184 -0.0332  0.0152
 2754DOPC   NC332308  24.846   7.755  12.714 -0.2474  0.1303  0.1194
 2754DOPC   PO432309  24.910   8.017  12.430  0.0074 -0.1063 -0.1400
 2754DOPC   GL132310  24.947   8.331  12.684 -0.3079 -0.0587 -0.2445
 2754DOPC   GL232311  25.227   8.448  12.525 -0.3214 -0.2526 -0.1200
 2754DOPC   C1A32312  25.170   8.612  13.006  0.2726 -0.0898  0.0078
 2754DOPC   D2A32313  25.429   8.785  13.337 -0.0909 -0.1885  0.1935
 2754DOPC   C3A32314  25.496   8.449  13.693  0.2459  0.4120  0.0822
 2754DOPC   C4A32315  25.540   8.413  14.128  0.0519 -0.1493 -0.1166
 2754DOPC   C1B32316  25.146   8.907  12.515 -0.5112  0.1946 -0.0868
 2754DOPC   D2B32317  25.105   9.319  12.280 -0.1056 -0.0214  0.0690
 2754DOPC   C3B32318  25.353   9.708  12.046 -0.0362  0.2008  0.0491
 2754DOPC   C4B32319  25.760   9.944  12.094  0.0007 -0.3824 -0.0517
 2755DOPE   NH332320  33.026   0.359  12.678 -0.0222 -0.0902 -0.1279
 2755DOPE   PO432321  32.957   0.541  12.921  0.2799 -0.1360  0.1830
 2755DOPE   GL132322  33.054   0.752  13.226  0.1106 -0.2169  0.4537
 2755DOPE   GL232323  33.113   1.021  13.254 -0.1061 -0.0901  0.0087
 2755DOPE   C1A32324  33.248   0.618  13.578 -0.3010 -0.0970 -0.0519
 2755DOPE   D2A32325  33.353   0.194  13.776 -0.2139 -0.3136 -0.2874
 2755DOPE   C3A32326  33.401  -0.289  13.828  0.1371 -0.1620  0.0413
 2755DOPE   C4A32327  33.248  -0.683  14.007  0.1208 -0.0281  0.4090
 2755DOPE   C1B32328  33.092   1.135  13.688 -0.0192  0.0219  0.0622
 2755DOPE   D2B32329  33.046   0.871  14.041 -0.1423 -0.0518 -0.3591
 2755DOPE   C3B32330  33.017   0.417  14.207  0.0658 -0.0933 -0.0227
 2755DOPE   C4B32331  33.187  -0.029  14.262  0.1026 -0.0067 -0.0369
 2756DOPE   NH332332  23.333  11.458  11.956 -0.0239  0.0421 -0.5403
 2756DOPE   PO432333  23.230  11.271  12.193 -0.0930  0.3536  0.4452
 2756DOPE   GL132334  23.404  11.326  12.436  0.0006  0.1405 -0.1670
 2756DOPE   GL232335  23.559  11.151  12.589  0.0990  0.2016 -0.0730
 2756DOPE   C1A32336  23.201  11.426  12.860  0.2777 -0.1876 -0.0639
 2756DOPE   D2A32337  23.104  11.386  13.278  0.1129  0.2603 -0.0668
 2756DOPE   C3A32338  23.498  11.316  13.429 -0.1679 -0.1467 -0.1507
 2756DOPE   C4A32339  23.919  11.253  13.575 -0.0881 -0.1025  0.0078
 2756DOPE   C1B32340  23.912  10.828  12.543 -0.1149  0.0260 -0.1424
 2756DOPE   D2B32341  24.297  10.626  12.696 -0.3515  0.0354 -0.0475
 2756DOPE   C3B32342  24.227  10.222  12.828 -0.0871  0.0155  0.3079
 2756DOPE   C4B32343  24.322   9.868  13.129  0.1032  0.2171  0.0378
 2757POSM   NC332344  29.217   3.010  12.748 -0.0841  0.2244  0.1440
 2757POSM   PO432345  28.945   3.305  12.809 -0.1406 -0.0114  0.3045
 2757POSM   AM132346  28.995   3.266  13.094  0.2103  0.0987 -0.2155
 2757POSM   AM232347  29.167   3.030  13.211  0.2268 -0.2493  0.0077
 2757POSM   T1A32348  28.913   3.170  13.616  0.1187 -0.1587  0.0861
 2757POSM   C2A32349  28.821   3.359  14.063  0.0984  0.2517  0.2481
 2757POSM   C3A32350  28.626   3.338  14.502  0.1969 -0.0382  0.1240
 2757POSM   C1B32351  29.390   3.109  13.489  0.2765 -0.0707  0.0815
 2757POSM   D2B32352  29.309   3.152  13.994 -0.0404  0.1171  0.0281
 2757POSM   C3B32353  29.262   3.535  14.300  0.1200 -0.0622  0.0580
 2757POSM   C4B32354  28.895   3.786  14.318 -0.2063  0.0702 -0.0045
 2758DOPS   CNO32355  31.458  10.380  12.285  0.0739 -0.0176  0.1301
 2758DOPS   PO432356  31.333  10.660  12.503 -0.0354  0.0408 -0.1330
 2758DOPS   GL132357  31.615  10.445  12.733  0.2457  0.2086  0.0950
 2758DOPS   GL232358  31.927  10.575  12.771  0.0914  0.0738  0.2888
 2758DOPS   C1A32359  31.778  10.335  13.155  0.1773 -0.0077  0.0211
 2758DOPS   D2A32360  32.061  10.115  13.428 -0.1556  0.0469  0.1123
 2758DOPS   C3A32361  32.372  10.374  13.643  0.2460  0.1257 -0.2773
 2758DOPS   C4A32362  32.564  10.530  13.998 -0.1473 -0.1573  0.0843
 2758DOPS   C1B32363  31.985  10.172  12.513 -0.1003  0.1588 -0.1074
 2758DOPS   D2B32364  32.003   9.687  12.466  0.1423  0.0757  0.1127
 2758DOPS   C3B32365  32.264   9.343  12.528  0.1568  0.1151 -0.1249
 2758DOPS   C4B32366  32.138   9.118  12.925  0.0661 -0.2020 -0.4312
 2759DOPC   NC332367  30.949   1.713  12.615  0.3862 -0.2580 -0.4261
 2759DOPC   PO432368  30.681   1.842  12.332  0.0971  0.0591  0.2165
 2759DOPC   GL132369  30.482   1.990  12.737 -0.0669  0.1689  0.1392
 2759DOPC   GL232370  30.495   1.867  12.981  0.0310 -0.4988 -0.3603
 2759DOPC   C1A32371  30.361   2.366  12.958 -0.1438 -0.1569  0.0382
 2759DOPC   D2A32372  30.315   2.600  13.384 -0.0217 -0.1235  0.1029
 2759DOPC   C3A32373  30.188   2.549  13.809 -0.1196 -0.0503  0.2204
 2759DOPC   C4A32374  30.066   2.788  14.155  0.1031  0.4259 -0.2622
 2759DOPC   C1B32375  30.383   2.063  13.401  0.1651  0.0942 -0.1014
 2759DOPC   D2B32376  30.114   2.083  13.706  0.1285 -0.2633  0.0787
 2759DOPC   C3B32377  29.783   2.023  14.084 -0.0041 -0.1300  0.0380
 2759DOPC   C4B32378  29.641   1.966  14.541  0.1586  0.0950  0.0544
 2760DOPE   NH332379  23.361   2.628  12.413 -0.0222  0.1254  0.0955
 2760DOPE   PO432380  23.291   2.914  12.509 -0.1624 -0.2842  0.1847
 2760DOPE   GL132381  23.495   2.910  12.853 -0.4217 -0.1928 -0.0218
 2760DOPE   GL232382  23.498   3.156  12.954 -0.1523 -0.0672  0.2063
 2760DOPE   C1A32383  23.276   2.635  13.224 -0.0542 -0.0595 -0.1390
 2760DOPE   D2A32384  23.156   2.485  13.679  0.3678  0.1224 -0.3262
 2760DOPE   C3A32385  22.864   2.323  13.991  0.1078 -0.1790 -0.1936
 2760DOPE   C4A32386  22.686   1.923  14.019 -0.1425  0.1961  0.2685
 2760DOPE   C1B32387  23.293   3.128  13.349 -0.0932 -0.2038 -0.1704
 2760DOPE   D2B32388  22.893   2.970  13.478 -0.3502  0.1348  0.1089
 2760DOPE   C3B32389  22.890   2.865  13.909 -0.1150 -0.2199 -0.2573
 2760DOPE   C4B32390  23.119   2.732  14.266 -0.0202  0.2580 -0.1502
 2761DOPS   CNO32391  28.700   3.028  12.454  0.2151  0.1613 -0.1154
 2761DOPS   PO432392  28.717   2.638  12.421 -0.2146 -0.0787 -0.1267
 2761DOPS   GL132393  29.107   2.590  12.456 -0.0679  0.1906  0.0000
 2761DOPS   GL232394  29.213   2.824  12.219 -0.0369 -0.0687  0.1436
 2761DOPS   C1A32395  29.274   2.130  12.492 -0.2199 -0.0861 -0.1143
 2761DOPS   D2A32396  29.438   1.938  12.889 -0.0788 -0.0200 -0.0932
 2761DOPS   C3A32397  29.097   1.741  13.095 -0.0296  0.2901 -0.0659
 2761DOPS   C4A32398  29.148   1.546  13.489 -0.0346  0.2100  0.2551
 2761DOPS   C1B32399  29.392   2.471  12.018  0.0659  0.1865 -0.0671
 2761DOPS   D2B32400  29.716   2.223  11.830  0.2146  0.2157  0.0181
 2761DOPS   C3B32401  30.043   2.016  12.042  0.2442 -0.3066 -0.0616
 2761DOPS   C4B32402  30.033   2.118  12.460  0.0918  0.1467  0.0070
 2762DOPS   CNO32403  32.903   7.463  12.213  0.0437  0.1594 -0.1025
 2762DOPS   PO432404  32.718   7.823  12.243 -0.3733  0.0251  0.2097
 2762DOPS   GL132405  32.599   8.057  12.540  0.2528  0.1392 -0.1129
 2762DOPS   GL232406  32.797   8.077  12.680 -0.2701  0.0833  0.1505
 2762DOPS   C1A32407  32.434   8.460  12.582  0.1531 -0.0761 -0.1801
 2762DOPS   D2A32408  32.626   8.861  12.694  0.2960 -0.0335  0.0055
 2762DOPS   C3A32409  32.666   9.229  13.011 -0.1185 -0.1193  0.4673
 2762DOPS   C4A32410  32.648   9.662  13.166 -0.2080 -0.0484 -0.2150
 2762DOPS   C1B32411  32.770   8.438  12.976  0.4400  0.1471  0.3295
 2762DOPS   D2B32412  32.620   8.728  13.233 -0.0991  0.1296 -0.1678
 2762DOPS   C3B32413  32.520   8.932  13.671 -0.0430 -0.1828 -0.1413
 2762DOPS   C4B32414  32.162   8.860  13.966 -0.2296  0.5169 -0.2690
 2763DOPE   NH332415  22.872  10.116  12.433 -0.1708  0.0811  0.0240
 2763DOPE   PO432416  23.100  10.308  12.376 -0.1332 -0.0553  0.0550
 2763DOPE   GL132417  23.130  10.158  12.780 -0.3875 -0.1713 -0.0144
 2763DOPE   GL232418  23.350  10.000  12.671 -0.1053 -0.0793 -0.0924
 2763DOPE   C1A32419  22.948  10.380  13.104  0.1379 -0.2261 -0.1771
 2763DOPE   D2A32420  23.189  10.422  13.502  0.4188 -0.0937 -0.1584
 2763DOPE   C3A32421  23.636  10.319  13.459 -0.2799 -0.2815 -0.0736
 2763DOPE   C4A32422  23.886  10.506  13.756  0.1106  0.1061 -0.0681
 2763DOPE   C1B32423  23.312  10.035  13.155 -0.0032 -0.0459 -0.0826
 2763DOPE   D2B32424  23.103   9.898  13.506 -0.1044  0.0597 -0.2084
 2763DOPE   C3B32425  22.755   9.597  13.516  0.0268 -0.0778 -0.0088
 2763DOPE   C4B32426  22.713   9.171  13.532  0.2142  0.0499 -0.0073
 2764DOPE   NH332427  27.431   6.684  12.403  0.1589  0.2658  0.1841
 2764DOPE   PO432428  27.651   6.653  12.624  0.1271 -0.4324  0.2140
 2764DOPE   GL132429  27.751   6.640  12.975 -0.1897  0.2897  0.2123
 2764DOPE   GL232430  27.724   6.321  12.992 -0.1361  0.2260 -0.0600
 2764DOPE   C1A32431  27.904   6.564  13.388 -0.0083 -0.2306  0.0410
 2764DOPE   D2A32432  28.259   6.464  13.540 -0.2872  0.0835 -0.0942
 2764DOPE   C3A32433  28.227   6.257  13.915 -0.1581 -0.2123 -0.0031
 2764DOPE   C4A32434  28.461   5.948  14.149 -0.0757 -0.0164 -0.0656
 2764DOPE   C1B32435  27.774   5.934  13.123 -0.0003 -0.0350 -0.2208
 2764DOPE   D2B32436  28.051   5.508  13.139  0.1249  0.0407 -0.0955
 2764DOPE   C3B32437  27.920   5.068  13.166  0.3257 -0.2487  0.1224
 2764DOPE   C4B32438  27.859   4.617  13.231  0.1536  0.0671 -0.3055
 2765POSM   NC332439  33.798   0.386  12.405  0.2949  0.1534  0.1714
 2765POSM   PO432440  33.424   0.518  12.518 -0.2705  0.0671 -0.0421
 2765POSM   AM132441  33.575   0.526  12.823 -0.1712 -0.0478  0.0761
 2765POSM   AM232442  33.490   0.373  13.026 -0.2212 -0.2658  0.0581
 2765POSM   T1A32443  33.598   0.838  13.257 -0.2474  0.1328 -0.4319
 2765POSM   C2A32444  33.584   0.980  13.699 -0.3246 -0.2265  0.1317
 2765POSM   C3A32445  33.801   1.085  14.084  0.0067 -0.2596 -0.2035
 2765POSM   C1B32446  33.601   0.338  13.347 -0.0253  0.1545  0.1782
 2765POSM   D2B32447  33.754   0.459  13.778 -0.1244  0.2073  0.2888
 2765POSM   C3B32448  33.543   0.692  14.100  0.0924  0.0851 -0.1919
 2765POSM   C4B32449  33.481   0.559  14.496  0.1667  0.2579 -0.1134
 2766DOPC   NC332450  31.843   4.635  12.652 -0.0276 -0.4489  0.0869
 2766DOPC   PO432451  31.638   4.615  12.979  0.1305 -0.0658 -0.1414
 2766DOPC   GL132452  31.804   4.479  13.316  0.0453 -0.3917  0.3582
 2766DOPC   GL232453  31.494   4.522  13.460 -0.2088  0.0002 -0.1475
 2766DOPC   C1A32454  32.086   4.578  13.682  0.1298 -0.0964 -0.1184
 2766DOPC   D2A32455  32.032   4.598  14.186  0.2714 -0.0680 -0.2069
 2766DOPC   C3A32456  31.571   4.844  14.175 -0.1223 -0.2271 -0.1848
 2766DOPC   C4A32457  31.329   5.205  13.885  0.2675  0.1545 -0.1177
 2766DOPC   C1B32458  31.266   4.498  13.869  0.2176 -0.2928 -0.0938
 2766DOPC   D2B32459  31.001   4.349  14.244 -0.5843 -0.2479 -0.2237
 2766DOPC   C3B32460  31.112   4.061  14.618  0.0195  0.1120 -0.1008
 2766DOPC   C4B32461  31.246   4.095  15.067 -0.1449  0.2163  0.2306
 2767DOPC   NC332462  26.759   5.896  12.316  0.0238  0.4726 -0.0776
 2767DOPC   PO432463  26.880   5.923  12.685  0.0947 -0.1189  0.1203
 2767DOPC   GL132464  27.020   5.869  12.983 -0.4143  0.0132  0.2812
 2767DOPC   GL232465  27.281   5.856  13.031 -0.1500 -0.3843  0.0223
 2767DOPC   C1A32466  26.994   5.511  13.333  0.1069 -0.1543  0.3868
 2767DOPC   D2A32467  27.061   5.069  13.528 -0.1696  0.0187 -0.1974
 2767DOPC   C3A32468  27.062   4.899  13.918 -0.0940  0.0875  0.0808
 2767DOPC   C4A32469  26.752   4.945  14.289  0.0225 -0.0959 -0.4353
 2767DOPC   C1B32470  27.407   5.840  13.495  0.1086 -0.2413 -0.0823
 2767DOPC   D2B32471  27.362   5.894  13.972  0.2285  0.1599  0.0443
 2767DOPC   C3B32472  27.565   6.247  14.118  0.1471  0.4047 -0.0002
 2767DOPC   C4B32473  27.850   6.657  13.958  0.3196  0.1573  0.1141
 2768DOPE   NH332474  31.495  11.106  12.399 -0.1478 -0.2284 -0.0459
 2768DOPE   PO432475  31.701  11.079  12.639  0.1367  0.1785 -0.1552
 2768DOPE   GL132476  31.800  11.320  12.995 -0.3353 -0.3391  0.6539
 2768DOPE   GL232477  31.751  11.147  13.191  0.1251 -0.3470 -0.1065
 2768DOPE   C1A32478  31.843  11.673  13.283  0.2225 -0.1394 -0.0543
 2768DOPE   D2A32479  31.838  12.050  13.483  0.2511  0.0069  0.0662
 2768DOPE   C3A32480  31.578  12.421  13.269  0.0148 -0.0935  0.3788
 2768DOPE   C4A32481  31.177  12.545  13.189 -0.1495 -0.1582  0.0717
 2768DOPE   C1B32482  32.008  10.815  13.312 -0.0627 -0.1600 -0.0223
 2768DOPE   D2B32483  32.271  10.463  13.090  0.0012  0.1586 -0.1609
 2768DOPE   C3B32484  32.724  10.400  13.144 -0.2888 -0.1084 -0.1503
 2768DOPE   C4B32485  33.065  10.048  13.076  0.0661 -0.3213 -0.1215
 2769POSM   NC332486  33.616  10.867  12.241  0.3698  0.0542 -0.0966
 2769POSM   PO432487  33.284  10.908  12.425  0.1474  0.0235 -0.2774
 2769POSM   AM132488  33.485  10.921  12.700  0.0303  0.0515  0.1715
 2769POSM   AM232489  33.738  10.990  12.880 -0.1237  0.1822 -0.0091
 2769POSM   T1A32490  33.402  10.785  13.162 -0.2001 -0.0672 -0.0600
 2769POSM   C2A32491  33.097  10.590  13.382  0.2237  0.1873  0.1077
 2769POSM   C3A32492  32.957  10.234  13.635 -0.2349  0.0434 -0.0976
 2769POSM   C1B32493  33.823  11.067  13.177 -0.0722  0.3658 -0.0263
 2769POSM   D2B32494  33.902  11.279  13.596  0.0824 -0.1676  0.1445
 2769POSM   C3B32495  33.900  11.037  13.965  0.0039  0.1425  0.1321
 2769POSM   C4B32496  34.141  10.666  14.154  0.2050 -0.0105 -0.2650
 2770DOPE   NH332497  30.100   6.291  12.461 -0.0208  0.0485 -0.2346
 2770DOPE   PO432498  29.860   6.275  12.620  0.1955  0.0761  0.0874
 2770DOPE   GL132499  29.678   6.429  12.886 -0.2825 -0.2724 -0.0961
 2770DOPE   GL232500  29.703   6.264  13.108 -0.0109  0.3181 -0.0306
 2770DOPE   C1A32501  29.578   6.754  13.238 -0.0896  0.2532 -0.2166
 2770DOPE   D2A32502  29.459   6.991  13.609  0.0259 -0.0262 -0.0928
 2770DOPE   C3A32503  29.017   7.041  13.776  0.2497 -0.0987  0.0675
 2770DOPE   C4A32504  28.738   7.026  14.141 -0.2415 -0.1240 -0.1485
 2770DOPE   C1B32505  29.652   6.322  13.527 -0.0303 -0.0059 -0.1404
 2770DOPE   D2B32506  29.440   6.150  13.931  0.3075 -0.1932  0.1551
 2770DOPE   C3B32507  29.529   5.733  14.031 -0.1099  0.1317  0.0052
 2770DOPE   C4B32508  29.938   5.559  14.286  0.3022 -0.2042 -0.2939
 2771DOPC   NC332509  30.725   4.576  12.724 -0.0598  0.1228  0.0244
 2771DOPC   PO432510  30.893   4.815  12.438 -0.0752  0.0748  0.1770
 2771DOPC   GL132511  30.817   5.148  12.591  0.1529  0.2869 -0.0573
 2771DOPC   GL232512  30.860   5.031  12.931  0.1030  0.0716 -0.0932
 2771DOPC   C1A32513  30.865   5.613  12.639 -0.0323 -0.3277  0.1951
 2771DOPC   D2A32514  30.611   5.988  12.843 -0.2346  0.0566  0.0232
 2771DOPC   C3A32515  30.760   6.334  13.108 -0.0592 -0.0626 -0.0459
 2771DOPC   C4A32516  31.177   6.479  13.136  0.0167 -0.2110 -0.0489
 2771DOPC   C1B32517  30.779   5.432  13.112  0.2034  0.0030 -0.1049
 2771DOPC   D2B32518  30.547   5.669  13.394  0.2177  0.2687  0.2182
 2771DOPC   C3B32519  30.716   5.872  13.755  0.2091 -0.1662 -0.5108
 2771DOPC   C4B32520  30.895   6.035  14.140 -0.2337  0.1478 -0.1322
 2772DOPS   CNO32521  25.582   0.995  12.307 -0.0646 -0.2353  0.0228
 2772DOPS   PO432522  25.559   1.000  12.665  0.0076 -0.1877 -0.2176
 2772DOPS   GL132523  25.436   1.352  12.609 -0.1574 -0.1887  0.0785
 2772DOPS   GL232524  25.545   1.466  12.855  0.2610 -0.2272  0.1815
 2772DOPS   C1A32525  24.964   1.324  12.681  0.0585  0.0465  0.0617
 2772DOPS   D2A32526  24.514   1.513  12.715 -0.0848 -0.2208  0.1144
 2772DOPS   C3A32527  24.316   1.643  13.117  0.2548 -0.0228 -0.3112
 2772DOPS   C4A32528  24.213   1.959  13.368  0.0361 -0.1060  0.0285
 2772DOPS   C1B32529  25.514   1.567  13.313  0.0030  0.1648 -0.0293
 2772DOPS   D2B32530  25.337   1.531  13.724 -0.1394  0.1786 -0.0841
 2772DOPS   C3B32531  25.371   1.180  14.053 -0.1336 -0.2630  0.2694
 2772DOPS   C4B32532  25.406   1.183  14.512  0.0264  0.0575 -0.1041
 2773DOPE   NH332533  27.159   8.630  12.297 -0.0967  0.2949 -0.0981
 2773DOPE   PO432534  26.933   8.514  12.134  0.0216  0.0163  0.1515
 2773DOPE   GL132535  26.735   8.819  12.362 -0.0439  0.1619  0.2370
 2773DOPE   GL232536  26.862   9.083  12.231  0.0077  0.0395 -0.1177
 2773DOPE   C1A32537  26.675   9.147  12.693  0.1549  0.3925  0.0338
 2773DOPE   D2A32538  26.424   9.291  13.027  0.0172  0.1585  0.4195
 2773DOPE   C3A32539  26.517   9.426  13.483 -0.0324  0.0613 -0.0386
 2773DOPE   C4A32540  26.964   9.512  13.710 -0.3103  0.2505  0.1911
 2773DOPE   C1B32541  27.141   9.284  12.570 -0.1000  0.0363 -0.0652
 2773DOPE   D2B32542  27.430   9.475  12.913  0.1493  0.0891  0.2740
 2773DOPE   C3B32543  27.599   9.308  13.368 -0.2275  0.2556  0.2269
 2773DOPE   C4B32544  27.742   9.135  13.769  0.2550  0.0241  0.0235
 2774DOPE   NH332545  26.502   4.955  12.554 -0.0448  0.0735 -0.3049
 2774DOPE   PO432546  26.300   5.185  12.635  0.0316  0.0927 -0.2113
 2774DOPE   GL132547  26.554   5.310  12.941 -0.5652  0.3369  0.1885
 2774DOPE   GL232548  26.446   5.032  13.104 -0.4363  0.2641  0.3175
 2774DOPE   C1A32549  26.937   4.963  12.959 -0.1925 -0.3167 -0.2421
 2774DOPE   D2A32550  27.169   4.677  13.172  0.1370 -0.2196 -0.1632
 2774DOPE   C3A32551  27.054   4.562  13.529  0.1796 -0.0297  0.0375
 2774DOPE   C4A32552  26.702   4.241  13.509  0.0713 -0.1423  0.1055
 2774DOPE   C1B32553  26.625   4.874  13.498  0.1623  0.1262 -0.0566
 2774DOPE   D2B32554  26.491   4.637  13.886  0.1726  0.0644 -0.3107
 2774DOPE   C3B32555  26.161   4.566  14.181 -0.3600  0.1631  0.0832
 2774DOPE   C4B32556  25.868   4.380  14.547 -0.2027 -0.0192  0.1605
 2775DOPS   CNO32557  33.827  11.294  12.081 -0.0216 -0.3825 -0.1874
 2775DOPS   PO432558  33.863  11.220  12.444 -0.2164  0.0756  0.4232
 2775DOPS   GL132559  33.811  11.576  12.695  0.2264 -0.0870 -0.0929
 2775DOPS   GL232560  33.967  11.485  12.905 -0.0703  0.0199 -0.0202
 2775DOPS   C1A32561  33.939  12.004  12.905  0.0319 -0.1595  0.0453
 2775DOPS   D2A32562  34.162  12.174  13.255 -0.1314  0.0390  0.0900
 2775DOPS   C3A32563  34.426  12.036  13.593 -0.2684 -0.0087  0.1407
 2775DOPS   C4A32564  34.290  11.600  13.696  0.0644 -0.3093 -0.2381
 2775DOPS   C1B32565  33.934  11.734  13.319  0.5243  0.0738  0.1311
 2775DOPS   D2B32566  33.886  12.097  13.632  0.1146 -0.0200  0.1022
 2775DOPS   C3B32567  34.136  12.034  14.044 -0.0143 -0.1601 -0.2402
 2775DOPS   C4B32568  34.457  11.689  14.154 -0.1329  0.0418  0.0311
 2776DOPE   NH332569   0.175   2.968  12.481 -0.1227  0.1093 -0.0493
 2776DOPE   PO432570  -0.079   3.148  12.465  0.1080  0.0696 -0.2841
 2776DOPE   GL132571  -0.194   2.805  12.853  0.2841  0.2937  0.1983
 2776DOPE   GL232572  -0.114   2.535  12.968 -0.0506  0.0746  0.3227
 2776DOPE   C1A32573  -0.219   2.867  13.328  0.1499  0.2052  0.2650
 2776DOPE   D2A32574  -0.422   2.694  13.706 -0.0143  0.0404  0.0154
 2776DOPE   C3A32575  -0.854   2.844  13.695  0.1963 -0.1366  0.3820
 2776DOPE   C4A32576  -1.292   2.749  13.738 -0.1105 -0.0023  0.1153
 2776DOPE   C1B32577  -0.063   2.185  13.287  0.1551  0.1617  0.0494
 2776DOPE   D2B32578  -0.038   1.733  13.202  0.4199  0.1084  0.4713
 2776DOPE   C3B32579   0.359   1.615  13.003 -0.1468  0.0492  0.2158
 2776DOPE   C4B32580   0.812   1.645  13.061 -0.4193  0.1011 -0.0281
 2777DOPS   CNO32581  28.269   1.416  12.665  0.3765  0.0933 -0.2321
 2777DOPS   PO432582  28.580   1.616  12.575  0.0676  0.1938 -0.0244
 2777DOPS   GL132583  28.490   1.626  13.017  0.0502  0.1183 -0.0482
 2777DOPS   GL232584  28.740   1.459  13.013  0.0961 -0.1500 -0.3008
 2777DOPS   C1A32585  28.185   1.399  13.206 -0.1773 -0.0760  0.1089
 2777DOPS   D2A32586  27.828   1.302  13.413 -0.1972 -0.3142 -0.2011
 2777DOPS   C3A32587  27.752   1.173  13.802 -0.1212  0.0616  0.1623
 2777DOPS   C4A32588  27.393   1.229  14.133 -0.1321  0.0259 -0.1268
 2777DOPS   C1B32589  28.553   1.065  13.086  0.2496  0.0670  0.1662
 2777DOPS   D2B32590  28.581   0.616  13.318  0.2995  0.0365 -0.0440
 2777DOPS   C3B32591  28.880   0.373  13.570  0.0409  0.1728 -0.0560
 2777DOPS   C4B32592  29.013   0.214  13.988  0.1410 -0.0442  0.0001
 2778DOPS   CNO32593  33.163   0.720  12.147  0.0750  0.1540  0.3065
 2778DOPS   PO432594  33.477   0.909  12.172  0.0854  0.0475 -0.0356
 2778DOPS   GL132595  33.670   0.963  12.551  0.1769 -0.1540 -0.1195
 2778DOPS   GL232596  33.604   1.263  12.622  0.0165  0.0029  0.0754
 2778DOPS   C1A32597  33.964   0.725  12.793  0.2876 -0.2146  0.1511
 2778DOPS   D2A32598  34.384   0.836  12.891  0.2205  0.2423 -0.2557
 2778DOPS   C3A32599  34.414   1.178  13.215  0.4332  0.1311  0.2904
 2778DOPS   C4A32600  34.265   1.522  13.466 -0.0607  0.0347  0.1347
 2778DOPS   C1B32601  33.922   1.156  13.020  0.3966  0.2399  0.2129
 2778DOPS   D2B32602  34.017   1.131  13.477  0.4519 -0.0871  0.0482
 2778DOPS   C3B32603  33.787   1.478  13.693  0.3676  0.1565  0.0699
 2778DOPS   C4B32604  33.410   1.535  13.904  0.0040 -0.2501  0.2501
 2779DOPC   NC332605  28.119   1.692  12.183  0.1497 -0.2051  0.3640
 2779DOPC   PO432606  28.042   2.118  12.213  0.1023  0.0317  0.2266
 2779DOPC   GL132607  27.728   2.186  12.456  0.4118 -0.1599 -0.3192
 2779DOPC   GL232608  27.783   2.341  12.710  0.2318  0.0181 -0.4496
 2779DOPC   C1A32609  27.251   2.149  12.485  0.0349 -0.2440  0.3300
 2779DOPC   D2A32610  26.882   1.948  12.632  0.2980  0.1598 -0.1133
 2779DOPC   C3A32611  26.878   1.936  13.085 -0.0258 -0.0219 -0.0937
 2779DOPC   C4A32612  27.042   1.786  13.448 -0.0406  0.2384  0.0522
 2779DOPC   C1B32613  27.383   2.278  12.981  0.0719 -0.3459  0.0292
 2779DOPC   D2B32614  27.105   2.289  13.331  0.1134 -0.2361  0.3903
 2779DOPC   C3B32615  27.171   2.310  13.745  0.0949 -0.0664 -0.3230
 2779DOPC   C4B32616  27.216   2.311  14.174  0.0173  0.0893 -0.0483
 2780DOPC   NC332617  33.370   6.755  12.304  0.0607  0.0268 -0.0113
 2780DOPC   PO432618  33.149   7.037  12.454  0.3430 -0.1093 -0.2025
 2780DOPC   GL132619  33.224   7.203  12.830 -0.4328 -0.0547 -0.0342
 2780DOPC   GL232620  33.393   7.149  13.013 -0.0954 -0.0154 -0.0758
 2780DOPC   C1A32621  33.154   7.509  13.228 -0.2810  0.3146  0.0055
 2780DOPC   D2A32622  33.067   7.242  13.599  0.0338 -0.0761  0.0027
 2780DOPC   C3A32623  33.496   7.095  13.848 -0.1046 -0.2498  0.2482
 2780DOPC   C4A32624  33.906   7.276  13.828  0.2495 -0.1393 -0.0048
 2780DOPC   C1B32625  33.587   7.349  13.400 -0.0408  0.2373  0.2103
 2780DOPC   D2B32626  33.582   7.633  13.724  0.0589  0.2188 -0.0545
 2780DOPC   C3B32627  33.122   7.718  13.848  0.3164  0.0979 -0.2591
 2780DOPC   C4B32628  32.768   7.971  13.951 -0.1968 -0.2066 -0.1504
 2781DOPE   NH332629  29.919   3.517  12.405 -0.1137 -0.1732  0.2103
 2781DOPE   PO432630  29.739   3.724  12.525 -0.0650 -0.1420 -0.0261
 2781DOPE   GL132631  29.818   3.656  13.002 -0.1170  0.2259  0.3786
 2781DOPE   GL232632  29.722   3.866  13.260 -0.1103 -0.3305  0.1770
 2781DOPE   C1A32633  30.026   3.507  13.412  0.2778 -0.2158  0.3544
 2781DOPE   D2A32634  30.331   3.534  13.750  0.0032  0.1955 -0.2627
 2781DOPE   C3A32635  30.113   3.643  14.107  0.0141 -0.0883 -0.0474
 2781DOPE   C4A32636  30.042   4.148  14.215  0.0063 -0.0853  0.0021
 2781DOPE   C1B32637  29.853   4.232  13.386 -0.2139 -0.0795  0.1132
 2781DOPE   D2B32638  29.793   4.441  13.827  0.2006  0.2506  0.3716
 2781DOPE   C3B32639  29.336   4.484  13.918 -0.0317  0.2401  0.2241
 2781DOPE   C4B32640  29.068   4.845  13.783  0.1182 -0.0445  0.0119
 2782DOPC   NC332641  32.673  11.534  12.231 -0.1670  0.3383  0.2268
 2782DOPC   PO432642  32.824  11.275  12.512  0.0089 -0.2503 -0.1496
 2782DOPC   GL132643  32.747  11.104  12.811 -0.0526 -0.3924  0.0645
 2782DOPC   GL232644  33.046  10.966  12.852  0.0925 -0.1389 -0.0031
 2782DOPC   C1A32645  32.896  11.188  13.284  0.0778  0.0242 -0.2968
 2782DOPC   D2A32646  32.694  11.377  13.668  0.0941  0.1195  0.3040
 2782DOPC   C3A32647  32.572  11.070  13.972  0.2796  0.0776  0.2364
 2782DOPC   C4A32648  32.312  10.862  14.348  0.2508 -0.2950 -0.1817
 2782DOPC   C1B32649  33.365  11.262  12.928  0.1959 -0.0114 -0.3875
 2782DOPC   D2B32650  33.456  11.390  13.321  0.0590  0.0716 -0.0462
 2782DOPC   C3B32651  33.483  11.004  13.572 -0.0350 -0.2292 -0.3257
 2782DOPC   C4B32652  33.495  10.587  13.650 -0.0807  0.0779 -0.1240
 2783POSM   NC332653  28.942   2.472  12.857  0.1139  0.0964 -0.1874
 2783POSM   PO432654  28.807   2.820  12.904 -0.1133 -0.2177  0.4977
 2783POSM   AM132655  28.752   2.766  13.235 -0.1481  0.1579  0.0366
 2783POSM   AM232656  28.928   2.636  13.435 -0.1014  0.1606  0.2071
 2783POSM   T1A32657  28.525   2.868  13.673  0.2817 -0.1599  0.2136
 2783POSM   C2A32658  28.706   2.851  14.104  0.1057  0.0339  0.0610
 2783POSM   C3A32659  28.928   2.822  14.509  0.0751 -0.1382  0.2892
 2783POSM   C1B32660  29.062   2.711  13.732  0.0537  0.3580  0.0050
 2783POSM   D2B32661  29.253   2.708  14.130  0.0301  0.0215 -0.0163
 2783POSM   C3B32662  29.657   2.498  14.244  0.1675  0.0202 -0.1581
 2783POSM   C4B32663  30.096   2.291  14.296  0.2384 -0.0005  0.0002
 2784DOPC   NC332664  26.453   7.883  12.440 -0.2023  0.1312  0.2175
 2784DOPC   PO432665  26.106   8.051  12.524  0.0292 -0.1314 -0.2863
 2784DOPC   GL132666  26.155   8.015  13.001 -0.3207 -0.1753 -0.1104
 2784DOPC   GL232667  26.229   8.256  13.085 -0.2008 -0.1121  0.1614
 2784DOPC   C1A32668  26.448   7.877  13.311 -0.3647 -0.0540  0.3203
 2784DOPC   D2A32669  26.452   7.484  13.533 -0.1004 -0.3353 -0.0988
 2784DOPC   C3A32670  26.665   7.515  13.924 -0.0043  0.0703  0.2246
 2784DOPC   C4A32671  26.682   7.811  14.292  0.0401  0.2187  0.0497
 2784DOPC   C1B32672  26.375   8.500  13.425 -0.0227 -0.0545 -0.0120
 2784DOPC   D2B32673  26.469   8.411  13.870 -0.2250  0.0926 -0.1998
 2784DOPC   C3B32674  26.216   8.260  14.214  0.1435  0.2101  0.0270
 2784DOPC   C4B32675  25.807   8.163  14.504 -0.5735  0.3007 -0.2164
 2785DOPC   NC332676  30.134   8.981  13.251  0.0331  0.0715  0.2397
 2785DOPC   PO432677  29.829   9.178  13.127  0.2214  0.4105 -0.0209
 2785DOPC   GL132678  29.547   9.182  13.354 -0.2249  0.2811  0.2814
 2785DOPC   GL232679  29.315   9.005  13.297  0.0846  0.1069  0.0844
 2785DOPC   C1A32680  29.604   9.213  13.805 -0.1414 -0.0909 -0.0211
 2785DOPC   D2A32681  29.926   9.153  14.168 -0.2993 -0.0881 -0.1364
 2785DOPC   C3A32682  29.788   9.140  14.582 -0.2240 -0.1761  0.0335
 2785DOPC   C4A32683  29.497   9.086  14.907  0.0063  0.0917  0.0801
 2785DOPC   C1B32684  29.339   8.743  13.617 -0.0796 -0.1378  0.2712
 2785DOPC   D2B32685  29.543   8.343  13.746  0.1210 -0.0256  0.1067
 2785DOPC   C3B32686  29.906   8.384  13.997 -0.1344  0.1176 -0.1780
 2785DOPC   C4B32687  30.198   8.142  14.253 -0.0481 -0.2830 -0.3569
 2786DOPE   NH332688  26.136   8.258  12.042  0.1639  0.5998  0.1397
 2786DOPE   PO432689  26.414   8.339  12.177  0.0643  0.0780 -0.2864
 2786DOPE   GL132690  26.244   8.714  12.295 -0.4135  0.0734 -0.0517
 2786DOPE   GL232691  26.364   8.887  12.095  0.1653 -0.1993  0.0537
 2786DOPE   C1A32692  26.200   8.953  12.687 -0.1707 -0.0835  0.1771
 2786DOPE   D2A32693  26.126   8.780  13.128  0.0420  0.2053  0.2536
 2786DOPE   C3A32694  26.002   8.987  13.466 -0.3021  0.3691  0.1468
 2786DOPE   C4A32695  25.894   9.345  13.655 -0.3584  0.0876 -0.1706
 2786DOPE   C1B32696  26.369   9.276  12.337  0.0910 -0.1880  0.1525
 2786DOPE   D2B32697  26.080   9.468  12.633 -0.2462  0.1647  0.0905
 2786DOPE   C3B32698  25.823   9.293  12.966 -0.1658  0.3257 -0.4218
 2786DOPE   C4B32699  25.478   9.258  13.279  0.1830  0.0600  0.2340
 2787DOPE   NH332700  25.937  11.506  12.407  0.0624 -0.2236  0.1127
 2787DOPE   PO432701  25.628  11.505  12.473  0.1542  0.1158 -0.1115
 2787DOPE   GL132702  25.402  11.366  12.790  0.1553  0.1680 -0.3328
 2787DOPE   GL232703  25.226  11.133  12.655  0.0265 -0.2511 -0.1232
 2787DOPE   C1A32704  25.445  11.137  13.197  0.0756  0.1161  0.0444
 2787DOPE   D2A32705  25.523  10.778  13.431 -0.3103  0.0246  0.2166
 2787DOPE   C3A32706  25.751  10.488  13.741 -0.2658  0.0078  0.1004
 2787DOPE   C4A32707  25.634  10.196  14.034  0.0868 -0.0096 -0.0065
 2787DOPE   C1B32708  24.977  11.301  13.000  0.1408 -0.1525 -0.0559
 2787DOPE   D2B32709  24.710  11.556  13.310 -0.2692 -0.1511  0.1849
 2787DOPE   C3B32710  24.823  11.860  13.708 -0.1729 -0.1170 -0.0556
 2787DOPE   C4B32711  24.768  12.005  14.165  0.2543 -0.0420 -0.0796
 2788DOPC   NC332712  23.890   6.091  12.394  0.0783 -0.1466 -0.5275
 2788DOPC   PO432713  23.719   6.259  12.105  0.2530  0.0012  0.1818
 2788DOPC   GL132714  23.477   6.458  12.321  0.0070  0.4507  0.1923
 2788DOPC   GL232715  23.284   6.289  12.484  0.1003  0.1666 -0.0076
 2788DOPC   C1A32716  23.639   6.441  12.791 -0.2023  0.4763  0.3187
 2788DOPC   D2A32717  23.991   6.620  13.019 -0.1188  0.1693  0.0277
 2788DOPC   C3A32718  23.852   6.958  13.283 -0.0403 -0.1566 -0.3738
 2788DOPC   C4A32719  23.865   7.397  13.534 -0.2002  0.0443 -0.4395
 2788DOPC   C1B32720  23.053   6.212  12.891  0.2078  0.0770  0.2037
 2788DOPC   D2B32721  22.991   5.840  13.137  0.2666  0.0972 -0.0079
 2788DOPC   C3B32722  23.175   5.462  13.220 -0.0194 -0.1800  0.0646
 2788DOPC   C4B32723  23.346   5.182  12.916 -0.1169 -0.1522  0.0145
 2789DOPE   NH332724  33.544   6.601  13.011 -0.2551 -0.2276  0.0401
 2789DOPE   PO432725  33.317   6.682  12.855 -0.1461 -0.2199  0.2442
 2789DOPE   GL132726  33.088   6.538  13.112 -0.0329  0.4501 -0.3530
 2789DOPE   GL232727  32.962   6.314  13.128 -0.1165 -0.1099  0.1620
 2789DOPE   C1A32728  33.292   6.471  13.534  0.0904 -0.1272  0.2065
 2789DOPE   D2A32729  33.338   6.371  13.980  0.1001 -0.1458  0.1717
 2789DOPE   C3A32730  33.100   6.497  14.339  0.1966  0.0665  0.0830
 2789DOPE   C4A32731  33.260   6.359  14.752  0.0514  0.1861 -0.3394
 2789DOPE   C1B32732  32.655   6.002  13.327 -0.1728  0.1386 -0.0703
 2789DOPE   D2B32733  32.465   5.715  13.644  0.0215  0.1091  0.1636
 2789DOPE   C3B32734  32.757   5.547  13.911  0.1005 -0.0546  0.0180
 2789DOPE   C4B32735  33.193   5.536  13.831  0.1300 -0.0672  0.1333
 2790DOPS   CNO32736  29.725  10.626  12.557  0.2317 -0.3385 -0.2893
 2790DOPS   PO432737  29.716  10.912  12.838  0.1119 -0.0607  0.1217
 2790DOPS   GL132738  29.844  10.663  13.221 -0.2577  0.0656  0.3438
 2790DOPS   GL232739  29.913  10.889  13.417  0.1107 -0.2728  0.0171
 2790DOPS   C1A32740  29.838  10.385  13.617  0.1261  0.4650  0.0324
 2790DOPS   D2A32741  29.805  10.048  13.934  0.3960 -0.2446  0.0601
 2790DOPS   C3A32742  29.792  10.194  14.371  0.2488 -0.0091  0.2668
 2790DOPS   C4A32743  29.756  10.484  14.742  0.1073 -0.2294 -0.0647
 2790DOPS   C1B32744  29.733  10.894  13.854 -0.1459 -0.1008  0.0372
 2790DOPS   D2B32745  29.424  11.178  14.061  0.1415 -0.0226  0.0067
 2790DOPS   C3B32746  29.690  11.542  14.007 -0.1149  0.4119  0.0309
 2790DOPS   C4B32747  29.676  11.976  14.117  0.0784  0.1987 -0.2411
 2791DOPC   NC332748  27.108  11.305  12.558  0.1446  0.0260  0.1577
 2791DOPC   PO432749  26.881  11.426  12.243 -0.4229  0.1722  0.3715
 2791DOPC   GL132750  26.726  11.057  12.417 -0.2499  0.1050 -0.0794
 2791DOPC   GL232751  26.688  11.144  12.755  0.0640  0.0471 -0.2622
 2791DOPC   C1A32752  26.754  10.595  12.539  0.1907 -0.1136 -0.0238
 2791DOPC   D2A32753  26.624  10.198  12.822  0.3032 -0.2064  0.3045
 2791DOPC   C3A32754  26.621   9.762  12.857  0.0203 -0.2354 -0.1044
 2791DOPC   C4A32755  26.789   9.611  12.489 -0.0991  0.1239 -0.3471
 2791DOPC   C1B32756  26.450  10.955  13.049  0.0834 -0.1596 -0.0522
 2791DOPC   D2B32757  26.369  10.923  13.509 -0.0275  0.3524 -0.3278
 2791DOPC   C3B32758  26.727  10.853  13.797  0.0843  0.0521 -0.0042
 2791DOPC   C4B32759  26.901  10.540  14.127 -0.1166  0.0866  0.0463
 2792POSM   NC332760  32.276   7.143  12.751 -0.0371  0.2231  0.4172
 2792POSM   PO432761  31.958   7.112  12.556 -0.1887 -0.0289  0.1065
 2792POSM   AM132762  31.868   7.358  12.759  0.0274 -0.0340 -0.4342
 2792POSM   AM232763  31.919   7.339  13.043 -0.0191 -0.0812  0.2104
 2792POSM   T1A32764  31.686   7.814  12.799 -0.0982 -0.0049  0.0312
 2792POSM   C2A32765  31.584   8.257  12.856 -0.0912  0.3199  0.1414
 2792POSM   C3A32766  31.423   8.606  12.646 -0.0169  0.1482  0.1044
 2792POSM   C1B32767  31.878   7.256  13.407  0.3042  0.4530 -0.0560
 2792POSM   D2B32768  32.058   7.078  13.817  0.1371  0.1008  0.0892
 2792POSM   C3B32769  32.192   6.709  14.066  0.0366 -0.2703  0.0442
 2792POSM   C4B32770  31.959   6.351  14.174 -0.0746 -0.0256  0.1889
 2793DOPC   NC332771  26.082   7.022  12.824 -0.0348  0.1707  0.0931
 2793DOPC   PO432772  25.980   7.041  12.441 -0.3420  0.0547  0.2597
 2793DOPC   GL132773  25.571   7.005  12.438 -0.0527  0.0850 -0.2805
 2793DOPC   GL232774  25.490   7.113  12.176 -0.0711 -0.0810 -0.0418
 2793DOPC   C1A32775  25.189   7.339  12.589  0.0541  0.2488 -0.0180
 2793DOPC   D2A32776  24.979   7.388  12.978 -0.3491  0.0127  0.0854
 2793DOPC   C3A32777  24.593   7.115  13.025  0.0280  0.0604  0.0515
 2793DOPC   C4A32778  24.293   7.104  13.414 -0.0408 -0.4847  0.1175
 2793DOPC   C1B32779  25.101   6.820  12.331 -0.1393  0.0632  0.1991
 2793DOPC   D2B32780  24.706   6.708  12.575  0.0505  0.2185  0.1301
 2793DOPC   C3B32781  24.604   6.550  13.018 -0.2484 -0.0504  0.0327
 2793DOPC   C4B32782  24.765   6.468  13.354 -0.1082  0.3746 -0.0642
 2794POSM   NC332783  28.567   7.882  12.271 -0.1977 -0.0253  0.3156
 2794POSM   PO432784  28.910   7.922  12.493 -0.0966 -0.0241  0.2659
 2794POSM   AM132785  28.835   7.987  12.805 -0.2323  0.3398 -0.0348
 2794POSM   AM232786  28.845   8.182  12.989 -0.2093 -0.0313  0.0852
 2794POSM   T1A32787  28.925   7.824  13.265 -0.0309 -0.5497  0.1071
 2794POSM   C2A32788  28.652   7.850  13.627 -0.0796 -0.0134  0.0270
 2794POSM   C3A32789  28.365   7.683  13.937  0.0957  0.0500 -0.0214
 2794POSM   C1B32790  28.668   8.232  13.311  0.0352 -0.1095 -0.3627
 2794POSM   D2B32791  28.681   8.408  13.750  0.1351 -0.0746  0.2463
 2794POSM   C3B32792  29.020   8.559  13.988 -0.4477 -0.2095  0.1194
 2794POSM   C4B32793  29.479   8.687  14.187  0.0006  0.0368 -0.0097
 2795DOPE   NH332794  26.468   6.165  12.648 -0.3980  0.3434  0.1067
 2795DOPE   PO432795  26.263   6.421  12.672  0.1058  0.0155 -0.0435
 2795DOPE   GL132796  26.027   6.584  13.003 -0.1989  0.1665 -0.0002
 2795DOPE   GL232797  26.127   6.442  13.242 -0.0610  0.0975  0.0791
 2795DOPE   C1A32798  25.727   6.816  13.258 -0.0106  0.1088  0.1011
 2795DOPE   D2A32799  25.656   7.088  13.605  0.2865 -0.2212 -0.0838
 2795DOPE   C3A32800  25.252   7.193  13.800 -0.4167  0.0766 -0.0344
 2795DOPE   C4A32801  25.082   7.515  14.093  0.0357 -0.2898 -0.2536
 2795DOPE   C1B32802  26.030   6.531  13.635 -0.2325 -0.0453  0.1174
 2795DOPE   D2B32803  25.592   6.596  13.790 -0.0900 -0.1682  0.2300
 2795DOPE   C3B32804  25.576   6.886  14.074  0.1435 -0.0474  0.2201
 2795DOPE   C4B32805  25.487   7.251  14.268 -0.2229 -0.1628 -0.2198
 2796DOPE   NH332806  32.920   7.006  13.130 -0.2533 -0.4023  0.0785
 2796DOPE   PO432807  32.681   6.876  12.952 -0.0649  0.1962  0.1267
 2796DOPE   GL132808  32.485   6.666  13.244  0.2600 -0.0278 -0.1301
 2796DOPE   GL232809  32.465   6.862  13.474  0.3223  0.2054 -0.0500
 2796DOPE   C1A32810  32.344   6.364  13.576  0.0134 -0.0283 -0.1907
 2796DOPE   D2A32811  31.937   6.217  13.692  0.2663  0.1977  0.1003
 2796DOPE   C3A32812  31.821   5.791  13.910 -0.2418 -0.1099  0.1660
 2796DOPE   C4A32813  31.751   5.365  14.137  0.3683  0.2511  0.0453
 2796DOPE   C1B32814  32.900   6.671  13.527  0.1790  0.0995 -0.0341
 2796DOPE   D2B32815  33.077   6.842  13.885  0.1235  0.0698 -0.0853
 2796DOPE   C3B32816  33.117   7.275  14.119 -0.0514  0.2276 -0.0737
 2796DOPE   C4B32817  32.969   7.680  14.295 -0.1169  0.0608  0.0048
 2797DOPS   CNO32818  29.605   0.714  12.073  0.1978 -0.1920 -0.1647
 2797DOPS   PO432819  29.801   0.352  12.019 -0.3433 -0.4650  0.0899
 2797DOPS   GL132820  30.044   0.153  12.332  0.2450 -0.2580  0.1729
 2797DOPS   GL232821  30.101   0.332  12.578 -0.2051 -0.0188  0.0688
 2797DOPS   C1A32822  29.916  -0.234  12.457  0.1173 -0.1461 -0.1271
 2797DOPS   D2A32823  29.646  -0.432  12.741 -0.3364 -0.0450 -0.1744
 2797DOPS   C3A32824  29.936  -0.346  13.095 -0.1311  0.0857 -0.1000
 2797DOPS   C4A32825  30.368  -0.529  13.147  0.3060 -0.0463  0.1357
 2797DOPS   C1B32826  29.984   0.095  12.876 -0.3003 -0.1097  0.0205
 2797DOPS   D2B32827  30.125   0.088  13.328  0.0737  0.1308  0.2726
 2797DOPS   C3B32828  30.200  -0.309  13.570 -0.2886 -0.1346 -0.0988
 2797DOPS   C4B32829  30.284  -0.783  13.613 -0.1503 -0.1178  0.2845
 2798DOPE   NH332830  25.174   0.742  12.499 -0.1074  0.1570 -0.1649
 2798DOPE   PO432831  24.984   0.570  12.286 -0.0457 -0.1589  0.4370
 2798DOPE   GL132832  24.759   0.460  12.591  0.3148  0.1876  0.1864
 2798DOPE   GL232833  24.937   0.371  12.796 -0.0823 -0.0067  0.1122
 2798DOPE   C1A32834  24.484   0.463  12.979  0.0112  0.1059 -0.1199
 2798DOPE   D2A32835  24.226   0.515  13.362 -0.1007  0.1169 -0.0577
 2798DOPE   C3A32836  24.243   0.753  13.736  0.2523 -0.0942  0.0824
 2798DOPE   C4A32837  24.478   1.106  13.904  0.1205  0.1327 -0.1148
 2798DOPE   C1B32838  24.851   0.850  12.918  0.2866 -0.2211 -0.0611
 2798DOPE   D2B32839  25.199   1.078  13.093 -0.3638  0.0305 -0.0697
 2798DOPE   C3B32840  24.986   1.470  13.175  0.0928 -0.1784  0.2208
 2798DOPE   C4B32841  24.765   1.854  12.992 -0.0432  0.1379 -0.3496
 2799DOPE   NH332842  32.750   0.723  12.472  0.4753 -0.2449  0.1814
 2799DOPE   PO432843  32.660   0.861  12.713  0.2508 -0.2857 -0.1017
 2799DOPE   GL132844  32.491   0.936  13.062  0.0876  0.2286 -0.1600
 2799DOPE   GL232845  32.269   1.045  12.958 -0.2829 -0.1254 -0.0542
 2799DOPE   C1A32846  32.600   1.097  13.491 -0.1628  0.0559  0.0068
 2799DOPE   D2A32847  32.515   1.365  13.841  0.3351 -0.1017 -0.2426
 2799DOPE   C3A32848  32.901   1.344  14.086 -0.1263 -0.1726 -0.1403
 2799DOPE   C4A32849  33.325   1.246  14.313 -0.1644  0.1050  0.1342
 2799DOPE   C1B32850  32.023   1.030  13.367  0.1181 -0.0294 -0.2347
 2799DOPE   D2B32851  32.033   1.219  13.749  0.0099 -0.0571  0.0937
 2799DOPE   C3B32852  31.680   1.510  13.774 -0.2747 -0.0899  0.1348
 2799DOPE   C4B32853  31.698   1.933  14.006 -0.1905 -0.0410  0.2903
 2800POSM   NC332854   0.107   8.978  12.288  0.0360  0.2501 -0.0625
 2800POSM   PO432855  -0.178   9.235  12.362 -0.2325  0.0226 -0.1289
 2800POSM   AM132856  -0.193   9.315  12.680  0.1093  0.3689  0.2548
 2800POSM   AM232857  -0.174   9.565  12.812 -0.1769  0.0229 -0.2748
 2800POSM   T1A32858  -0.321   9.177  13.134  0.1843 -0.0279 -0.3336
 2800POSM   C2A32859  -0.675   9.005  13.397 -0.0700 -0.2489 -0.3261
 2800POSM   C3A32860  -1.084   8.924  13.384 -0.0127  0.2418 -0.1980
 2800POSM   C1B32861  -0.369   9.671  13.007 -0.0394 -0.2288 -0.3590
 2800POSM   D2B32862  -0.667   9.707  13.323  0.3370 -0.2851 -0.0188
 2800POSM   C3B32863  -0.798  10.101  13.537  0.1203  0.2609  0.0868
 2800POSM   C4B32864  -0.713  10.543  13.382  0.0342  0.2070  0.1205
 2801DOPC   NC332865  33.355   8.909  12.162 -0.4129 -0.1122  0.0027
 2801DOPC   PO432866  33.491   8.522  12.232  0.1496 -0.5919  0.2417
 2801DOPC   GL132867  33.718   8.188  12.416  0.3227 -0.1188  0.0234
 2801DOPC   GL232868  34.036   8.223  12.370 -0.3493 -0.1188 -0.2503
 2801DOPC   C1A32869  33.849   8.185  12.857 -0.1375 -0.2106  0.0658
 2801DOPC   D2A32870  34.109   8.147  13.211 -0.0475  0.1434 -0.1006
 2801DOPC   C3A32871  34.395   8.085  13.557 -0.1529  0.0546  0.0395
 2801DOPC   C4A32872  34.447   7.768  13.936  0.1637 -0.0855  0.2430
 2801DOPC   C1B32873  34.495   8.377  12.322 -0.1851  0.0112  0.1147
 2801DOPC   D2B32874  34.825   8.594  12.627  0.0619  0.2141  0.0379
 2801DOPC   C3B32875  34.877   8.892  13.001 -0.1837 -0.0975 -0.0745
 2801DOPC   C4B32876  34.645   8.931  13.417 -0.0666 -0.1344 -0.2895
 2802DOPC   NC332877  26.348   1.073  12.764 -0.0607 -0.2832 -0.2954
 2802DOPC   PO432878  26.583   0.923  12.492 -0.0354  0.1327  0.1879
 2802DOPC   GL132879  27.027   0.805  12.438 -0.2922  0.3415  0.0648
 2802DOPC   GL232880  27.023   0.535  12.496 -0.0438 -0.2236  0.2174
 2802DOPC   C1A32881  27.384   0.723  12.732  0.0659 -0.0058  0.0763
 2802DOPC   D2A32882  27.738   0.450  12.836 -0.0195 -0.0831 -0.2686
 2802DOPC   C3A32883  28.045   0.734  13.109 -0.1292  0.2594 -0.2873
 2802DOPC   C4A32884  28.090   0.881  13.552  0.0138 -0.3129 -0.0159
 2802DOPC   C1B32885  27.190   0.170  12.764 -0.0214  0.1800 -0.0786
 2802DOPC   D2B32886  27.530  -0.146  12.786  0.1246 -0.0272  0.3080
 2802DOPC   C3B32887  27.674  -0.139  13.246  0.2011 -0.0114 -0.0640
 2802DOPC   C4B32888  27.579   0.047  13.686  0.1421 -0.2422  0.1195
 2803DOPE   NH332889  26.298   0.571  12.793 -0.1866  0.1504 -0.0143
 2803DOPE   PO432890  26.615   0.571  12.859  0.1346 -0.0740 -0.1371
 2803DOPE   GL132891  26.917   0.609  13.034  0.1096  0.0089  0.1534
 2803DOPE   GL232892  26.862   0.511  13.293 -0.4851  0.2087 -0.3109
 2803DOPE   C1A32893  27.320   0.416  13.193 -0.1319 -0.2001  0.1729
 2803DOPE   D2A32894  27.749   0.341  13.353  0.0100  0.2119  0.3146
 2803DOPE   C3A32895  28.085   0.410  13.636  0.0193  0.0001  0.0300
 2803DOPE   C4A32896  28.515   0.343  13.896  0.0825  0.1430  0.0496
 2803DOPE   C1B32897  26.846   0.864  13.575 -0.1189  0.2112 -0.2909
 2803DOPE   D2B32898  26.542   1.138  13.785 -0.0110 -0.1148  0.0520
 2803DOPE   C3B32899  26.221   1.257  14.110  0.1206  0.0131  0.1700
 2803DOPE   C4B32900  25.769   1.449  14.240 -0.2101  0.2985  0.1550
 2804DOPE   NH332901  31.297   4.351  12.620  0.1770 -0.0460 -0.0322
 2804DOPE   PO432902  31.057   4.217  12.828 -0.0817 -0.0526 -0.2212
 2804DOPE   GL132903  31.268   4.251  13.110  0.1860  0.0654 -0.2807
 2804DOPE   GL232904  31.516   4.129  13.058 -0.0968  0.4274  0.1320
 2804DOPE   C1A32905  31.209   4.131  13.519 -0.0300 -0.0729 -0.0010
 2804DOPE   D2A32906  31.310   4.033  13.964  0.2548  0.1383 -0.3175
 2804DOPE   C3A32907  31.029   3.726  14.119 -0.3169 -0.1698 -0.2735
 2804DOPE   C4A32908  30.618   3.475  14.133  0.0772  0.0315 -0.4389
 2804DOPE   C1B32909  31.740   4.052  13.383  0.2355 -0.0013 -0.1598
 2804DOPE   D2B32910  31.733   4.241  13.853 -0.0112 -0.0617 -0.1338
 2804DOPE   C3B32911  31.490   4.264  14.333  0.0983  0.1584  0.0849
 2804DOPE   C4B32912  31.302   4.628  14.531  0.0089  0.0714  0.0215
 2805POSM   NC332913  29.585   1.353  12.046 -0.3034  0.2595  0.1404
 2805POSM   PO432914  29.560   1.524  12.390  0.1479 -0.1696  0.2138
 2805POSM   AM132915  29.453   1.511  12.696 -0.0750 -0.7202 -0.0543
 2805POSM   AM232916  29.282   1.359  12.884 -0.2165  0.0412 -0.3182
 2805POSM   T1A32917  29.554   1.601  13.201 -0.2998 -0.0410  0.1663
 2805POSM   C2A32918  29.651   1.956  13.501  0.0718 -0.2204  0.0939
 2805POSM   C3A32919  29.837   2.407  13.506 -0.0849 -0.0522 -0.4601
 2805POSM   C1B32920  29.152   1.176  13.130  0.0465 -0.0862 -0.2983
 2805POSM   D2B32921  28.873   1.118  13.520  0.0128  0.3568  0.0343
 2805POSM   C3B32922  28.763   0.827  13.777  0.1253 -0.0851 -0.2681
 2805POSM   C4B32923  28.762   0.699  14.175 -0.1325 -0.0006  0.0404
 2806POSM   NC332924  30.868   4.498  13.167 -0.1786  0.1709 -0.2084
 2806POSM   PO432925  31.163   4.685  12.981  0.1655  0.1053  0.2974
 2806POSM   AM132926  31.245   4.936  13.163  0.2269 -0.2009  0.0023
 2806POSM   AM232927  31.122   5.008  13.413  0.0401  0.1502 -0.1091
 2806POSM   T1A32928  31.615   5.145  13.449 -0.0219  0.0837  0.0500
 2806POSM   C2A32929  31.980   5.164  13.730 -0.2608  0.2850  0.2322
 2806POSM   C3A32930  32.222   5.425  14.044  0.1572 -0.0646  0.2764
 2806POSM   C1B32931  30.882   5.194  13.596  0.0002 -0.1439 -0.1425
 2806POSM   D2B32932  30.713   5.258  14.042 -0.1247 -0.3152 -0.3087
 2806POSM   C3B32933  30.343   5.067  14.257 -0.0902  0.0795 -0.2544
 2806POSM   C4B32934  30.127   4.696  14.205  0.0725  0.1136 -0.1043
 2807POSM   NC332935  25.008  10.882  12.144 -0.1230 -0.2155 -0.0786
 2807POSM   PO432936  25.359  11.012  12.171 -0.1487  0.0872  0.1919
 2807POSM   AM132937  25.554  10.742  12.109 -0.2178 -0.1349 -0.1175
 2807POSM   AM232938  25.542  10.465  11.974 -0.2024  0.1481  0.1926
 2807POSM   T1A32939  26.008  10.492  12.152 -0.2103 -0.1519 -0.0547
 2807POSM   C2A32940  26.165  10.123  11.900 -0.0001 -0.2472 -0.2704
 2807POSM   C3A32941  26.015  10.098  11.465  0.3840  0.0223 -0.0900
 2807POSM   C1B32942  25.276  10.357  11.892  0.2111  0.2961 -0.1357
 2807POSM   D2B32943  24.844  10.254  12.028  0.5160  0.0007  0.4189
 2807POSM   C3B32944  24.891   9.982  12.322  0.1461  0.0851  0.1307
 2807POSM   C4B32945  24.737  10.189  12.733 -0.1857  0.0129  0.1304
 2808POSM   NC332946  33.850   2.707  12.296 -0.0091 -0.0963  0.0780
 2808POSM   PO432947  33.687   3.066  12.182  0.2087 -0.0972  0.1470
 2808POSM   AM132948  33.604   3.200  12.452 -0.2259  0.1947 -0.0728
 2808POSM   AM232949  33.582   3.208  12.745  0.2812 -0.0508  0.1898
 2808POSM   T1A32950  33.232   3.522  12.595  0.0765 -0.1109  0.0489
 2808POSM   C2A32951  32.875   3.829  12.654  0.0094  0.1534  0.0498
 2808POSM   C3A32952  32.533   4.164  12.713 -0.1544  0.0215 -0.1312
 2808POSM   C1B32953  33.300   3.244  12.978 -0.0748 -0.0307  0.1937
 2808POSM   D2B32954  33.113   3.451  13.418 -0.0196 -0.3254 -0.2495
 2808POSM   C3B32955  32.775   3.338  13.684 -0.0249 -0.2802 -0.0363
 2808POSM   C4B32956  32.477   3.239  13.990  0.0790 -0.1145 -0.2704
 2809DOPC   NC332957  26.504   6.922  13.292 -0.3266  0.1472  0.1797
 2809DOPC   PO432958  26.560   6.701  12.937  0.0391  0.1155  0.0735
 2809DOPC   GL132959  26.573   6.456  13.181 -0.2469 -0.3122 -0.2677
 2809DOPC   GL232960  26.846   6.297  13.009 -0.0773  0.2599 -0.0191
 2809DOPC   C1A32961  26.478   6.433  13.623 -0.2167  0.0870 -0.0524
 2809DOPC   D2A32962  26.554   6.011  13.852 -0.1508 -0.0575 -0.1452
 2809DOPC   C3A32963  26.500   5.613  14.056  0.1329 -0.0670 -0.0274
 2809DOPC   C4A32964  26.664   5.242  13.852 -0.5014  0.1011 -0.0044
 2809DOPC   C1B32965  26.902   6.028  13.394 -0.1638  0.2405  0.2079
 2809DOPC   D2B32966  26.931   5.722  13.786 -0.0142 -0.3223 -0.0026
 2809DOPC   C3B32967  27.303   5.430  13.705  0.0526 -0.1102 -0.0301
 2809DOPC   C4B32968  27.800   5.590  13.590 -0.2338 -0.1964 -0.1894
 2810DOPC   NC332969  31.634   1.202  12.405  0.1241 -0.1667  0.1505
 2810DOPC   PO432970  31.810   0.976  12.655 -0.4606  0.0179 -0.0094
 2810DOPC   GL132971  31.700   1.195  12.983 -0.1857 -0.2093  0.2294
 2810DOPC   GL232972  31.845   1.400  12.917  0.3034  0.0258 -0.2800
 2810DOPC   C1A32973  31.542   1.480  13.329 -0.1967  0.1952  0.2475
 2810DOPC   D2A32974  31.218   1.594  13.594  0.0942 -0.1557 -0.0491
 2810DOPC   C3A32975  31.263   1.615  14.070 -0.4444  0.0206 -0.0833
 2810DOPC   C4A32976  31.505   1.693  14.440  0.0383 -0.3003 -0.1542
 2810DOPC   C1B32977  32.034   1.494  13.314 -0.4519  0.0590  0.3673
 2810DOPC   D2B32978  32.140   1.724  13.736 -0.1245 -0.0866  0.2356
 2810DOPC   C3B32979  32.618   1.835  13.928  0.0410  0.3568  0.2340
 2810DOPC   C4B32980  32.873   2.080  14.260 -0.1410  0.1604 -0.0959
 2811DOPE   NH332981  30.084   7.745  12.394  0.1235 -0.1426  0.0253
 2811DOPE   PO432982  30.318   7.781  12.597 -0.0420  0.1571 -0.2266
 2811DOPE   GL132983  30.681   7.840  12.800  0.0906  0.0670 -0.0536
 2811DOPE   GL232984  30.831   8.094  12.723  0.2779 -0.1822 -0.0306
 2811DOPE   C1A32985  31.105   7.676  12.923 -0.0997  0.4252 -0.2787
 2811DOPE   D2A32986  31.376   7.541  13.306 -0.1305  0.1449  0.3946
 2811DOPE   C3A32987  31.731   7.794  13.343  0.0047 -0.1783  0.0908
 2811DOPE   C4A32988  32.196   7.843  13.364 -0.2166 -0.0915  0.0245
 2811DOPE   C1B32989  31.037   8.275  13.121 -0.0819  0.0254 -0.2472
 2811DOPE   D2B32990  31.464   8.281  13.436 -0.0075  0.0283  0.2128
 2811DOPE   C3B32991  31.249   8.317  13.862  0.3736 -0.2167 -0.2186
 2811DOPE   C4B32992  31.198   8.282  14.296 -0.1500 -0.1605 -0.1188
 2812DOPC   NC332993  30.651   7.452  12.567 -0.3355  0.0575 -0.1940
 2812DOPC   PO432994  30.467   7.431  12.227  0.1563  0.2511  0.0793
 2812DOPC   GL132995  30.217   7.172  12.433 -0.3069  0.0381  0.2802
 2812DOPC   GL232996  30.229   7.231  12.762  0.1852 -0.1342  0.1459
 2812DOPC   C1A32997  30.365   6.753  12.467 -0.0683 -0.0844  0.1398
 2812DOPC   D2A32998  30.750   6.595  12.662  0.2583  0.1195  0.2355
 2812DOPC   C3A32999  30.960   6.931  12.863 -0.3541  0.1362  0.2562
 2812DOPC   C4A33000  30.906   7.287  13.113 -0.0447  0.0089 -0.0565
 2812DOPC   C1B33001  30.323   7.379  13.200  0.1696 -0.3755 -0.0430
 2812DOPC   D2B33002  30.210   7.699  13.514  0.1710  0.0578  0.0198
 2812DOPC   C3B33003  30.431   8.018  13.721  0.1855 -0.2419 -0.0472
 2812DOPC   C4B33004  30.779   8.315  13.655  0.1774  0.3628  0.2907
 2813DOPC   NC333005  32.998   8.241  12.108 -0.0614 -0.1202 -0.1224
 2813DOPC   PO433006  33.204   8.106  12.418  0.1360  0.0022  0.2617
 2813DOPC   GL133007  33.190   8.461  12.646  0.1662  0.1710 -0.0535
 2813DOPC   GL233008  33.062   8.640  12.476 -0.0065  0.3283 -0.1786
 2813DOPC   C1A33009  33.320   8.487  13.091  0.3013 -0.0247  0.1660
 2813DOPC   D2A33010  33.286   8.480  13.541  0.0029  0.0605 -0.1015
 2813DOPC   C3A33011  33.155   8.782  13.840 -0.3002 -0.1185  0.4836
 2813DOPC   C4A33012  32.828   8.929  14.159  0.0478 -0.0571  0.1177
 2813DOPC   C1B33013  33.095   8.873  12.906 -0.1369 -0.2568 -0.0034
 2813DOPC   D2B33014  33.130   8.920  13.312 -0.2388  0.4618  0.0682
 2813DOPC   C3B33015  32.914   9.275  13.451  0.1916 -0.4524  0.0831
 2813DOPC   C4B33016  33.028   9.716  13.600  0.0414  0.0455  0.1326
 2814DOPS   CNO33017  31.012  10.949  12.252 -0.0012 -0.1534 -0.3373
 2814DOPS   PO433018  31.003  11.239  12.529 -0.0166  0.3751  0.2074
 2814DOPS   GL133019  31.314  11.235  12.814 -0.0038  0.1040  0.1435
 2814DOPS   GL233020  31.250  10.988  12.923 -0.0639  0.2713 -0.0147
 2814DOPS   C1A33021  31.390  11.467  13.170 -0.0498  0.2234  0.1299
 2814DOPS   D2A33022  31.393  11.891  13.245  0.1260  0.2105 -0.0623
 2814DOPS   C3A33023  31.267  12.105  13.634  0.1090 -0.0517  0.2216
 2814DOPS   C4A33024  31.176  11.850  14.029 -0.3747 -0.0345  0.3762
 2814DOPS   C1B33025  31.461  10.750  13.175 -0.1465  0.1303  0.1170
 2814DOPS   D2B33026  31.682  10.655  13.600  0.1812 -0.0801  0.0838
 2814DOPS   C3B33027  31.503  10.404  14.004  0.1357 -0.2492  0.0012
 2814DOPS   C4B33028  31.162  10.462  14.345  0.0860 -0.1290  0.0073
 2815POSM   NC333029  34.346   4.166  12.911  0.1278 -0.0164 -0.0566
 2815POSM   PO433030  34.171   4.348  12.633 -0.1003 -0.1142 -0.1238
 2815POSM   AM133031  34.110   4.589  12.884  0.2140 -0.1621 -0.2468
 2815POSM   AM233032  34.001   4.620  13.138 -0.1016  0.2338 -0.2402
 2815POSM   T1A33033  34.141   5.092  12.956 -0.0367 -0.2854  0.1452
 2815POSM   C2A33034  34.234   5.499  13.168 -0.1442  0.0744 -0.1524
 2815POSM   C3A33035  33.884   5.767  13.036  0.0602  0.0435 -0.2267
 2815POSM   C1B33036  33.728   4.832  13.216 -0.0789 -0.2079 -0.0262
 2815POSM   D2B33037  33.543   5.310  13.257 -0.1732  0.1319  0.4244
 2815POSM   C3B33038  33.111   5.352  13.348 -0.0023  0.3993  0.0941
 2815POSM   C4B33039  32.716   5.466  13.219 -0.1493 -0.1372 -0.0735
 2816DOPS   CNO33040  30.132   9.250  12.602 -0.0391 -0.2835 -0.4731
 2816DOPS   PO433041  30.362   9.376  12.861 -0.2553  0.0366 -0.1672
 2816DOPS   GL133042  30.457   9.371  13.254  0.2200  0.0892  0.0375
 2816DOPS   GL233043  30.250   9.496  13.400 -0.0331 -0.1329  0.1561
 2816DOPS   C1A33044  30.868   9.269  13.440 -0.3082  0.1301 -0.0419
 2816DOPS   D2A33045  31.266   9.151  13.503 -0.0706 -0.0771  0.3103
 2816DOPS   C3A33046  31.548   8.782  13.389 -0.0207 -0.3252  0.1145
 2816DOPS   C4A33047  31.687   8.911  12.973  0.0128 -0.0501 -0.0228
 2816DOPS   C1B33048  30.547   9.531  13.751  0.6285  0.0198  0.0737
 2816DOPS   D2B33049  30.832   9.365  13.958 -0.0377  0.0181  0.0817
 2816DOPS   C3B33050  31.018   9.438  14.387 -0.2004  0.0900 -0.2269
 2816DOPS   C4B33051  31.205   9.657  14.759 -0.2443  0.0607  0.0454
 2817POSM   NC333052  26.146   5.552  12.938  0.3711  0.1287  0.4394
 2817POSM   PO433053  26.092   5.921  12.816 -0.1626  0.1158 -0.2536
 2817POSM   AM133054  25.946   5.986  13.123 -0.1269 -0.0196  0.3835
 2817POSM   AM233055  25.806   5.740  13.255  0.0986 -0.1284 -0.0022
 2817POSM   T1A33056  25.706   6.115  13.539  0.4020  0.3316  0.0777
 2817POSM   C2A33057  25.253   6.178  13.500 -0.1197 -0.1756  0.1475
 2817POSM   C3A33058  24.946   6.215  13.846  0.1329 -0.1525  0.1211
 2817POSM   C1B33059  25.891   5.613  13.571  0.1122 -0.2286  0.1289
 2817POSM   D2B33060  26.064   5.432  13.975  0.3917  0.1580 -0.6056
 2817POSM   C3B33061  25.812   5.325  14.353 -0.2437  0.0863  0.0856
 2817POSM   C4B33062  25.694   5.239  14.812 -0.0836 -0.0687  0.0956
 2818DOPC   NC333063  26.423   8.426  12.651  0.0807  0.3992 -0.0394
 2818DOPC   PO433064  26.773   8.418  12.617 -0.0100 -0.1252 -0.0629
 2818DOPC   GL133065  26.815   8.711  12.765 -0.6035  0.4031 -0.2669
 2818DOPC   GL233066  26.665   8.688  13.018 -0.1591  0.2250 -0.0629
 2818DOPC   C1A33067  27.207   8.887  12.866 -0.2321  0.0958 -0.1697
 2818DOPC   D2A33068  27.664   8.806  12.991 -0.1178  0.0375 -0.0959
 2818DOPC   C3A33069  27.831   8.793  13.412 -0.0619 -0.1577 -0.0211
 2818DOPC   C4A33070  28.191   8.918  13.707 -0.0251 -0.1361  0.2043
 2818DOPC   C1B33071  26.578   8.943  13.389 -0.0628 -0.4078 -0.0013
 2818DOPC   D2B33072  26.652   8.957  13.851  0.2500 -0.3006 -0.2217
 2818DOPC   C3B33073  26.312   8.766  14.115 -0.2916 -0.0406 -0.1613
 2818DOPC   C4B33074  25.993   8.622  13.859  0.2599  0.1285  0.1551
 2819DOPC   NC333075  31.338   5.018  12.683 -0.0293  0.1187  0.0550
 2819DOPC   PO433076  31.672   5.121  12.826  0.2724 -0.1117 -0.0751
 2819DOPC   GL133077  31.870   5.055  13.035  0.1830 -0.0338 -0.0368
 2819DOPC   GL233078  32.077   4.855  13.036 -0.1217  0.1178  0.1559
 2819DOPC   C1A33079  32.168   5.338  13.325  0.1698  0.0877  0.0828
 2819DOPC   D2A33080  32.493   5.227  13.683 -0.0248 -0.1303 -0.1645
 2819DOPC   C3A33081  32.433   4.977  14.112 -0.3484  0.2428 -0.2995
 2819DOPC   C4A33082  32.802   4.870  14.408 -0.3440  0.3019  0.2156
 2819DOPC   C1B33083  32.360   4.463  13.219 -0.3681  0.0482  0.0734
 2819DOPC   D2B33084  32.705   4.102  13.154 -0.0760  0.1107 -0.1126
 2819DOPC   C3B33085  32.691   3.613  13.069  0.1985  0.0151  0.1263
 2819DOPC   C4B33086  32.732   3.152  13.197 -0.1809 -0.1623 -0.0731
 2820DOPC   NC333087  25.480   0.192  13.129 -0.0792 -0.0172  0.0200
 2820DOPC   PO433088  25.413   0.470  12.854  0.0185  0.1918 -0.0601
 2820DOPC   GL133089  25.491   0.705  13.167  0.0608  0.1248  0.0968
 2820DOPC   GL233090  25.616   0.626  13.377 -0.3212 -0.0625  0.1389
 2820DOPC   C1A33091  25.130   0.653  13.477 -0.2715  0.0716  0.1023
 2820DOPC   D2A33092  24.682   0.706  13.661 -0.1913  0.0164 -0.0117
 2820DOPC   C3A33093  24.533   0.656  14.116  0.1727 -0.2183  0.1110
 2820DOPC   C4A33094  24.220   0.945  14.353 -0.2638 -0.0302 -0.2798
 2820DOPC   C1B33095  25.560   1.068  13.478 -0.1616  0.0984 -0.3585
 2820DOPC   D2B33096  25.894   1.318  13.715  0.1851  0.0603 -0.0044
 2820DOPC   C3B33097  25.861   1.827  13.767  0.0465  0.2775 -0.1154
 2820DOPC   C4B33098  25.571   2.118  13.492 -0.0869  0.2315 -0.1224
 2821POSM   NC333099  30.957  10.392  12.404 -0.0043 -0.2478  0.0572
 2821POSM   PO433100  30.726  10.707  12.600 -0.2129  0.3228  0.1059
 2821POSM   AM133101  30.953  10.620  12.818 -0.3084  0.2178  0.1789
 2821POSM   AM233102  31.139  10.431  12.932 -0.1181  0.5250  0.0787
 2821POSM   T1A33103  31.013  10.639  13.327 -0.1331 -0.1942  0.3191
 2821POSM   C2A33104  31.126  10.792  13.724  0.1079  0.0508 -0.0179
 2821POSM   C3A33105  30.936  10.843  14.135 -0.3997  0.1438 -0.0757
 2821POSM   C1B33106  31.334  10.169  12.995  0.1144  0.2958  0.0246
 2821POSM   D2B33107  31.458   9.800  13.250  0.1468  0.0807  0.2474
 2821POSM   C3B33108  31.187   9.799  13.643  0.1883  0.3059 -0.1411
 2821POSM   C4B33109  31.060   9.887  14.033 -0.0064 -0.1549  0.3477
 2822POSM   NC333110  26.158   4.123  12.210  0.3851 -0.1894 -0.2817
 2822POSM   PO433111  26.356   3.851  12.373  0.0053 -0.2160 -0.0181
 2822POSM   AM133112  26.288   3.856  12.695 -0.1697 -0.1191  0.0408
 2822POSM   AM233113  26.072   3.889  12.922 -0.1794  0.1069 -0.0001
 2822POSM   T1A33114  26.354   3.427  13.033 -0.2227  0.1803 -0.2298
 2822POSM   C2A33115  26.310   3.098  13.380  0.1883  0.0182  0.2000
 2822POSM   C3A33116  26.502   2.837  13.655  0.1726  0.0923 -0.0123
 2822POSM   C1B33117  26.046   3.842  13.278  0.3590 -0.0558  0.3018
 2822POSM   D2B33118  26.163   3.585  13.684  0.1073 -0.0302 -0.0235
 2822POSM   C3B33119  25.994   3.663  14.100 -0.0810 -0.1495 -0.2775
 2822POSM   C4B33120  26.138   3.928  14.507 -0.0661 -0.0176 -0.0460
 2823DOPE   NH333121  29.466   4.177  12.603  0.1472  0.4935  0.2238
 2823DOPE   PO433122  29.377   4.228  12.934  0.0231  0.3759 -0.2205
 2823DOPE   GL133123  29.247   4.637  13.082 -0.4571 -0.4037 -0.1386
 2823DOPE   GL233124  29.121   4.462  13.312 -0.3460  0.0470 -0.0342
 2823DOPE   C1A33125  28.952   5.014  13.215  0.0827 -0.1945 -0.1468
 2823DOPE   D2A33126  28.679   5.159  13.592  0.3347  0.0290  0.2232
 2823DOPE   C3A33127  28.571   5.577  13.817  0.0979 -0.0554 -0.1902
 2823DOPE   C4A33128  28.648   6.033  13.708 -0.0133 -0.0452  0.1268
 2823DOPE   C1B33129  28.696   4.590  13.315  0.2115  0.0768  0.1817
 2823DOPE   D2B33130  28.323   4.805  13.346 -0.3532 -0.1854  0.2778
 2823DOPE   C3B33131  28.364   4.912  13.812  0.1622  0.3254  0.2480
 2823DOPE   C4B33132  28.697   4.847  14.151  0.1833  0.1492  0.0293
 2824DOPS   CNO33133  34.543   3.614  12.596 -0.0619 -0.0163  0.1527
 2824DOPS   PO433134  34.598   3.732  12.981 -0.2673  0.0249  0.0868
 2824DOPS   GL133135  34.503   3.927  13.268 -0.0640  0.0991  0.1470
 2824DOPS   GL233136  34.213   3.762  13.281 -0.0389 -0.0889  0.0601
 2824DOPS   C1A33137  34.165   4.245  13.380  0.0083  0.1308  0.1715
 2824DOPS   D2A33138  33.983   4.624  13.587  0.1330  0.2133  0.1324
 2824DOPS   C3A33139  33.702   4.707  13.900  0.2430  0.2839 -0.0709
 2824DOPS   C4A33140  33.437   4.521  14.220 -0.1039  0.3814  0.2570
 2824DOPS   C1B33141  34.068   3.678  13.729 -0.0499  0.0094 -0.2436
 2824DOPS   D2B33142  33.642   3.729  13.932 -0.1631  0.0364  0.0496
 2824DOPS   C3B33143  33.174   3.750  13.803  0.3004  0.1379  0.0017
 2824DOPS   C4B33144  32.793   3.841  13.533  0.0672  0.1797 -0.2597
 2825DOPE   NH333145  34.205  10.978  12.721 -0.1814 -0.0621 -0.1125
 2825DOPE   PO433146  34.372  11.240  12.696  0.0794  0.3060 -0.1425
 2825DOPE   GL133147  34.391  11.180  13.117  0.1576  0.0111  0.0773
 2825DOPE   GL233148  34.331  10.898  13.223  0.0362  0.1143 -0.0619
 2825DOPE   C1A33149  34.712  11.286  13.459 -0.0129  0.1267  0.2084
 2825DOPE   D2A33150  34.830  10.940  13.772 -0.0170  0.1354  0.0194
 2825DOPE   C3A33151  34.874  11.380  13.980 -0.2000 -0.2549  0.1285
 2825DOPE   C4A33152  35.183  11.656  14.161 -0.3042 -0.0967 -0.1944
 2825DOPE   C1B33153  34.274  10.963  13.643 -0.0930  0.1677  0.1210
 2825DOPE   D2B33154  34.414  11.216  14.022  0.1306  0.1139 -0.0024
 2825DOPE   C3B33155  34.750  11.139  14.368 -0.2715  0.1263 -0.1196
 2825DOPE   C4B33156  34.935  10.983  14.758  0.2394  0.2791 -0.0460
 2826DOPC   NC333157  25.251   5.479  12.827 -0.0277  0.0786  0.4324
 2826DOPC   PO433158  25.195   5.690  12.495 -0.3118  0.0171 -0.0580
 2826DOPC   GL133159  24.811   5.581  12.645 -0.0315 -0.4255 -0.1399
 2826DOPC   GL233160  24.744   5.372  12.483 -0.1051 -0.0067 -0.1763
 2826DOPC   C1A33161  24.535   5.754  12.270  0.0195  0.2525 -0.2198
 2826DOPC   D2A33162  24.313   6.121  12.037 -0.1794  0.1834  0.1731
 2826DOPC   C3A33163  24.175   6.008  11.613 -0.2527 -0.1197 -0.0221
 2826DOPC   C4A33164  24.098   5.666  11.319 -0.0044 -0.1000  0.2144
 2826DOPC   C1B33165  24.402   5.099  12.365 -0.1447  0.0435  0.1483
 2826DOPC   D2B33166  24.207   4.667  12.460  0.1361 -0.3615 -0.1254
 2826DOPC   C3B33167  23.866   4.878  12.682 -0.0943  0.0477  0.0792
 2826DOPC   C4B33168  23.792   5.123  13.095 -0.0280  0.0078 -0.0232
 2827DOPC   NC333169  27.796   3.598  12.616 -0.0425 -0.0013 -0.2313
 2827DOPC   PO433170  27.911   3.258  12.666  0.0485  0.1712 -0.2469
 2827DOPC   GL133171  27.609   3.285  12.918 -0.0813 -0.0457 -0.3102
 2827DOPC   GL233172  27.583   3.007  13.073 -0.4000 -0.0260  0.1916
 2827DOPC   C1A33173  27.141   3.240  12.921  0.0516 -0.1339 -0.0709
 2827DOPC   D2A33174  26.757   3.145  13.143  0.0139 -0.1423  0.1121
 2827DOPC   C3A33175  26.973   3.314  13.520 -0.0101  0.0080 -0.2931
 2827DOPC   C4A33176  27.218   3.433  13.867  0.2549 -0.2513 -0.1180
 2827DOPC   C1B33177  27.504   3.051  13.464  0.1092 -0.0219  0.0073
 2827DOPC   D2B33178  27.348   2.890  13.900 -0.1522 -0.5223 -0.0486
 2827DOPC   C3B33179  27.589   2.588  14.081  0.0110 -0.1450  0.2662
 2827DOPC   C4B33180  27.948   2.567  14.372 -0.0061 -0.2865  0.2016
 2828POSM   NC333181  32.921   6.544  12.605  0.1513 -0.1052  0.4275
 2828POSM   PO433182  33.131   6.233  12.473 -0.0504 -0.1216 -0.0950
 2828POSM   AM133183  33.269   6.043  12.708 -0.2137  0.1044 -0.0632
 2828POSM   AM233184  33.428   6.062  12.947  0.1194 -0.0689  0.0365
 2828POSM   T1A33185  33.463   5.593  12.745  0.2732  0.2807 -0.0980
 2828POSM   C2A33186  33.653   5.141  12.746  0.0808 -0.3218 -0.0316
 2828POSM   C3A33187  33.608   4.645  12.725  0.2682  0.1055  0.0613
 2828POSM   C1B33188  33.573   6.120  13.263  0.1234  0.2804 -0.2795
 2828POSM   D2B33189  33.678   6.059  13.720  0.1604  0.0542  0.1246
 2828POSM   C3B33190  33.691   5.595  13.686  0.3236 -0.3607  0.1584
 2828POSM   C4B33191  33.647   5.267  13.943 -0.0946  0.1543 -0.0901
 2829POSM   NC333192  23.443   9.943  12.149 -0.0321  0.2242 -0.1399
 2829POSM   PO433193  23.122   9.687  12.213 -0.1515  0.1666  0.0413
 2829POSM   AM133194  23.167   9.415  12.403 -0.0599  0.1276  0.2202
 2829POSM   AM233195  23.389   9.336  12.519  0.0159  0.1874  0.1702
 2829POSM   T1A33196  23.098   8.983  12.666 -0.4092 -0.0604  0.0532
 2829POSM   C2A33197  23.115   8.589  12.899  0.1894  0.0856 -0.1967
 2829POSM   C3A33198  23.204   8.119  13.030 -0.1950 -0.2546 -0.2018
 2829POSM   C1B33199  23.573   9.567  12.590 -0.1209 -0.0195  0.1676
 2829POSM   D2B33200  23.982   9.768  12.475 -0.0609  0.0982 -0.0055
 2829POSM   C3B33201  23.917   9.951  12.069 -0.1117  0.0310 -0.0780
 2829POSM   C4B33202  24.197  10.049  11.695 -0.1966 -0.0504  0.0859
 2830DOPS   CNO33203  30.435   3.889  12.274  0.1412  0.2523 -0.1626
 2830DOPS   PO433204  30.344   3.526  12.153 -0.1677  0.1557 -0.0072
 2830DOPS   GL133205  30.385   3.428  12.499 -0.2058 -0.1769 -0.2051
 2830DOPS   GL233206  30.290   3.092  12.461  0.1528 -0.0037  0.1742
 2830DOPS   C1A33207  30.652   3.287  12.843 -0.0155  0.0767  0.1679
 2830DOPS   D2A33208  31.043   3.252  13.086 -0.0467  0.0594 -0.0802
 2830DOPS   C3A33209  31.357   3.045  12.845 -0.4526  0.5210  0.0219
 2830DOPS   C4A33210  31.644   2.717  12.724  0.1863 -0.2613 -0.1439
 2830DOPS   C1B33211  30.440   2.608  12.508 -0.1693  0.1960  0.3189
 2830DOPS   D2B33212  30.764   2.318  12.528 -0.1805  0.1595 -0.2142
 2830DOPS   C3B33213  30.945   2.285  12.977 -0.2166 -0.2183 -0.2028
 2830DOPS   C4B33214  30.792   2.433  13.407 -0.1538  0.1773  0.1411
 2831POSM   NC333215  26.701   0.104  12.581  0.3074 -0.3371 -0.0586
 2831POSM   PO433216  26.377   0.070  12.813 -0.1791  0.0073  0.2581
 2831POSM   AM133217  26.216  -0.066  13.090  0.0151 -0.0031 -0.2375
 2831POSM   AM233218  26.177  -0.314  13.245 -0.1807 -0.1804  0.0724
 2831POSM   T1A33219  25.874  -0.017  13.491  0.3929 -0.3156  0.0551
 2831POSM   C2A33220  25.596  -0.288  13.752  0.2691 -0.1659  0.4434
 2831POSM   C3A33221  25.168  -0.410  13.897  0.2460 -0.2310 -0.2886
 2831POSM   C1B33222  26.339  -0.538  13.478  0.0457 -0.3126  0.0105
 2831POSM   D2B33223  26.538  -0.923  13.685 -0.3414  0.5145  0.2370
 2831POSM   C3B33224  26.338  -1.377  13.665  0.1264 -0.1043 -0.0986
 2831POSM   C4B33225  26.186  -1.832  13.483  0.1318  0.2354  0.3093
 2832DOPE   NH333226  29.489  10.454  12.969 -0.2864  0.0599  0.3655
 2832DOPE   PO433227  29.256  10.239  12.823  0.0537  0.0172 -0.1374
 2832DOPE   GL133228  29.102   9.978  12.736  0.1192  0.1754  0.0128
 2832DOPE   GL233229  29.151   9.772  12.437  0.1156 -0.1100  0.2845
 2832DOPE   C1A33230  28.895   9.550  12.776 -0.0153  0.0621  0.1159
 2832DOPE   D2A33231  28.466   9.459  12.992 -0.1016 -0.2667 -0.0324
 2832DOPE   C3A33232  28.299   9.029  13.113 -0.0189 -0.3047  0.1282
 2832DOPE   C4A33233  28.418   8.624  13.306 -0.0467 -0.0342 -0.0336
 2832DOPE   C1B33234  28.688   9.925  12.444  0.2418 -0.0325 -0.0301
 2832DOPE   D2B33235  28.269   9.902  12.272 -0.0181  0.2387  0.1740
 2832DOPE   C3B33236  27.819   9.934  12.143 -0.0911 -0.0307 -0.0630
 2832DOPE   C4B33237  27.420  10.125  12.061  0.0475 -0.0003 -0.2645
 2833DOPE   NH333238  25.733   0.554  12.475 -0.0240  0.3315 -0.3267
 2833DOPE   PO433239  26.021   0.690  12.381 -0.3198  0.0183  0.3305
 2833DOPE   GL133240  26.099   1.157  12.362  0.1174  0.0297  0.0013
 2833DOPE   GL233241  25.901   1.319  12.506  0.1336 -0.0417  0.1768
 2833DOPE   C1A33242  26.217   1.615  12.288  0.1015 -0.3042 -0.0428
 2833DOPE   D2A33243  26.380   2.021  12.496  0.0544  0.0058  0.4153
 2833DOPE   C3A33244  26.428   2.518  12.587 -0.3597  0.0225 -0.0396
 2833DOPE   C4A33245  26.708   2.840  12.365  0.1951  0.0312  0.1649
 2833DOPE   C1B33246  25.655   1.627  12.279  0.2215 -0.1026  0.0597
 2833DOPE   D2B33247  25.281   1.843  12.397 -0.0738  0.1750 -0.0956
 2833DOPE   C3B33248  25.311   1.981  12.841 -0.2893  0.5089  0.0830
 2833DOPE   C4B33249  25.108   2.237  13.160  0.2779  0.2742 -0.1827
 2834DOPE   NH333250  25.906   0.788  12.917  0.0550  0.0358  0.3000
 2834DOPE   PO433251  25.917   1.122  13.040 -0.1433  0.1099  0.0786
 2834DOPE   GL133252  25.966   1.568  12.930 -0.3066  0.0456  0.2510
 2834DOPE   GL233253  26.025   1.574  13.282 -0.0817  0.0563  0.1667
 2834DOPE   C1A33254  25.851   1.919  12.658  0.3036 -0.0488  0.1160
 2834DOPE   D2A33255  25.849   2.363  12.622  0.2881  0.3368 -0.3574
 2834DOPE   C3A33256  25.679   2.801  12.699  0.1251 -0.2025  0.2145
 2834DOPE   C4A33257  25.846   3.156  12.998 -0.2270 -0.0634 -0.1697
 2834DOPE   C1B33258  25.901   2.021  13.111  0.2622  0.2036  0.1180
 2834DOPE   D2B33259  25.621   2.335  13.049 -0.1187  0.0647 -0.4376
 2834DOPE   C3B33260  25.742   2.744  13.264  0.1966  0.1855  0.0104
 2834DOPE   C4B33261  25.725   3.098  13.470 -0.0173 -0.1843 -0.1683
 2835DOPS   CNO33262  27.566   1.316  12.425  0.1610 -0.3209 -0.0210
 2835DOPS   PO433263  27.770   1.578  12.560  0.0886 -0.0173 -0.2037
 2835DOPS   GL133264  27.612   1.835  12.754  0.0391 -0.2254  0.2518
 2835DOPS   GL233265  27.319   1.786  12.767 -0.2042  0.1945 -0.2049
 2835DOPS   C1A33266  27.506   1.888  13.241  0.2270  0.5409  0.2522
 2835DOPS   D2A33267  27.450   1.548  13.611 -0.0649  0.0251  0.0209
 2835DOPS   C3A33268  27.060   1.322  13.809 -0.1401 -0.2342 -0.1402
 2835DOPS   C4A33269  26.920   1.210  14.257  0.1519 -0.3352  0.0872
 2835DOPS   C1B33270  27.328   1.391  13.046  0.0043 -0.1997 -0.1448
 2835DOPS   D2B33271  27.276   0.924  13.230 -0.0972 -0.1441 -0.2392
 2835DOPS   C3B33272  27.563   0.768  13.504  0.0722  0.0189  0.1304
 2835DOPS   C4B33273  27.708   0.601  13.939 -0.4555 -0.3361 -0.0108
 2836POSM   NC333274  29.862   4.118  12.863 -0.1760  0.1717  0.2661
 2836POSM   PO433275  30.139   4.053  12.610 -0.1258  0.4035 -0.2806
 2836POSM   AM133276  30.190   3.817  12.813  0.2524 -0.4404  0.0600
 2836POSM   AM233277  30.278   3.779  13.042  0.2295 -0.2193  0.1512
 2836POSM   T1A33278  30.183   3.323  12.963  0.1572  0.1183 -0.1201
 2836POSM   C2A33279  30.267   2.927  12.989  0.0540 -0.2082  0.1280
 2836POSM   C3A33280  30.709   2.776  13.055 -0.0461 -0.1135 -0.1119
 2836POSM   C1B33281  30.307   3.881  13.394  0.0323  0.5685  0.2700
 2836POSM   D2B33282  30.235   4.088  13.744  0.1280  0.1693  0.0593
 2836POSM   C3B33283  29.814   3.929  13.752  0.0580  0.0474 -0.0900
 2836POSM   C4B33284  29.550   3.564  13.733  0.3283  0.2092  0.1981
 2837POSM   NC333285  32.488   6.267  12.876 -0.1964  0.1587  0.0145
 2837POSM   PO433286  32.601   6.207  12.472  0.1686 -0.1751 -0.0429
 2837POSM   AM133287  32.677   5.892  12.576  0.0773  0.1444 -0.0257
 2837POSM   AM233288  32.827   5.817  12.815 -0.1900 -0.1871  0.1450
 2837POSM   T1A33289  32.789   5.383  12.630 -0.1018 -0.2640  0.1972
 2837POSM   C2A33290  32.971   5.036  12.811  0.1579  0.0447 -0.0717
 2837POSM   C3A33291  33.260   4.831  13.104  0.0628  0.1652  0.1272
 2837POSM   C1B33292  33.048   5.813  13.054  0.0383 -0.1032 -0.1570
 2837POSM   D2B33293  33.154   5.893  13.475 -0.2226  0.2728  0.0177
 2837POSM   C3B33294  32.931   6.212  13.707 -0.1841  0.1883  0.1449
 2837POSM   C4B33295  32.661   6.443  14.037  0.2502  0.1989  0.1558
 2838DOPE   NH333296  31.366   3.815  12.676 -0.1265 -0.0935 -0.0001
 2838DOPE   PO433297  31.160   3.731  12.913 -0.1011 -0.0057  0.3604
 2838DOPE   GL133298  31.277   3.681  13.250 -0.4152 -0.5815  0.0286
 2838DOPE   GL233299  31.516   3.555  13.198 -0.2008 -0.0513 -0.0954
 2838DOPE   C1A33300  31.479   3.685  13.703 -0.1137 -0.0109 -0.0751
 2838DOPE   D2A33301  31.848   3.736  13.948  0.0064  0.0068  0.0582
 2838DOPE   C3A33302  31.994   3.997  14.293 -0.0273  0.0230  0.1813
 2838DOPE   C4A33303  31.919   4.357  14.596  0.2170  0.1264  0.0577
 2838DOPE   C1B33304  31.888   3.576  13.478 -0.0001 -0.1737 -0.1444
 2838DOPE   D2B33305  32.350   3.549  13.529 -0.2024  0.0464 -0.1508
 2838DOPE   C3B33306  32.286   3.113  13.527 -0.0848 -0.1833 -0.2887
 2838DOPE   C4B33307  32.200   2.877  13.123  0.4259 -0.4398  0.2876
 2839DOPS   CNO33308  24.747  11.627  11.742  0.1198 -0.2572  0.2567
 2839DOPS   PO433309  24.575  11.333  11.986  0.0452 -0.0466  0.0099
 2839DOPS   GL133310  24.688  11.437  12.368  0.2403 -0.4790 -0.3822
 2839DOPS   GL233311  24.779  11.220  12.455 -0.0165  0.1195 -0.1470
 2839DOPS   C1A33312  24.505  11.441  12.787  0.0095 -0.0432  0.3262
 2839DOPS   D2A33313  24.210  11.554  13.145  0.1863  0.1588  0.1961
 2839DOPS   C3A33314  24.179  11.747  13.537 -0.1966 -0.3861  0.2805
 2839DOPS   C4A33315  24.319  11.860  13.945  0.1622  0.3678  0.2162
 2839DOPS   C1B33316  24.657  10.947  12.839  0.0133 -0.2184 -0.2342
 2839DOPS   D2B33317  24.618  10.516  13.094 -0.0581  0.1507  0.1358
 2839DOPS   C3B33318  24.965  10.483  13.440  0.1111  0.0047 -0.4608
 2839DOPS   C4B33319  25.199  10.646  13.816 -0.3851 -0.1407  0.0640
 2840DOPE   NH333320  29.591   8.490  12.743 -0.2107 -0.0953 -0.1529
 2840DOPE   PO433321  29.592   8.812  12.845 -0.1204  0.0224 -0.2497
 2840DOPE   GL133322  29.682   8.714  13.212 -0.1431  0.0425 -0.1569
 2840DOPE   GL233323  29.856   8.484  13.162 -0.0349 -0.0934 -0.3308
 2840DOPE   C1A33324  29.857   8.801  13.621  0.1949 -0.0880 -0.0983
 2840DOPE   D2A33325  30.277   9.088  13.694  0.1355 -0.0466 -0.2287
 2840DOPE   C3A33326  30.431   9.091  14.073  0.0859 -0.0072 -0.0363
 2840DOPE   C4A33327  30.326   9.242  14.537  0.1083 -0.0585 -0.1148
 2840DOPE   C1B33328  29.373   8.293  13.207 -0.0912 -0.0465 -0.0499
 2840DOPE   D2B33329  29.116   8.235  13.567  0.4656  0.2000 -0.1771
 2840DOPE   C3B33330  29.322   7.780  13.727  0.0391 -0.1319 -0.3343
 2840DOPE   C4B33331  29.700   7.489  13.716 -0.1361 -0.1267 -0.2235
 2841POSM   NC333332  22.929   2.086  11.797 -0.0618 -0.3840 -0.0061
 2841POSM   PO433333  22.815   1.947  12.126  0.1197 -0.3719 -0.0580
 2841POSM   AM133334  22.951   1.787  12.387 -0.0503  0.4458  0.0024
 2841POSM   AM233335  22.828   1.792  12.652 -0.2729  0.0559  0.1354
 2841POSM   T1A33336  23.160   1.499  12.744  0.0164 -0.0977 -0.1001
 2841POSM   C2A33337  23.589   1.348  12.802  0.3423 -0.2223  0.2091
 2841POSM   C3A33338  24.053   1.344  12.749  0.2595  0.0501 -0.0652
 2841POSM   C1B33339  22.475   1.798  12.738 -0.0750  0.0164  0.1418
 2841POSM   D2B33340  22.153   1.820  13.035 -0.5094  0.2066 -0.0692
 2841POSM   C3B33341  22.032   1.702  13.472  0.2638 -0.2911  0.1990
 2841POSM   C4B33342  21.811   1.347  13.798  0.0131 -0.1135 -0.1052
 2842POSM   NC333343  23.311  10.753  12.376 -0.4299  0.2519  0.1805
 2842POSM   PO433344  23.379  10.805  11.963  0.0205 -0.3418 -0.1117
 2842POSM   AM133345  23.665  10.981  11.997 -0.2301  0.2546  0.0009
 2842POSM   AM233346  23.731  11.268  12.094 -0.0417  0.0916  0.1402
 2842POSM   T1A33347  24.107  10.968  12.118 -0.2150 -0.2046 -0.1289
 2842POSM   C2A33348  24.534  10.856  12.280  0.0989  0.1689  0.0291
 2842POSM   C3A33349  24.873  10.604  12.551 -0.4084 -0.3508 -0.1800
 2842POSM   C1B33350  23.956  11.328  12.395  0.5213  0.0588  0.1741
 2842POSM   D2B33351  24.092  11.193  12.814 -0.0758 -0.0026 -0.0705
 2842POSM   C3B33352  23.742  10.998  13.085  0.1245  0.1557 -0.0237
 2842POSM   C4B33353  23.541  10.797  13.440 -0.1978  0.0171 -0.0983
 2843DOPC   NC333354  27.058   7.297  12.594 -0.1119 -0.0857  0.0857
 2843DOPC   PO433355  26.843   7.626  12.606 -0.3315  0.2952 -0.2343
 2843DOPC   GL133356  26.760   7.966  12.857 -0.1008 -0.0609  0.0529
 2843DOPC   GL233357  27.065   8.100  12.862 -0.0618 -0.1387 -0.0081
 2843DOPC   C1A33358  26.774   8.241  13.268 -0.0737  0.1250  0.2478
 2843DOPC   D2A33359  26.954   8.519  13.613  0.5207  0.1389  0.0405
 2843DOPC   C3A33360  27.053   8.384  14.061 -0.0178  0.2100  0.1042
 2843DOPC   C4A33361  26.697   8.318  14.364 -0.0953 -0.1659  0.0331
 2843DOPC   C1B33362  27.283   8.407  13.145 -0.0702 -0.0886 -0.1464
 2843DOPC   D2B33363  27.363   8.805  13.410  0.2153  0.0050 -0.2985
 2843DOPC   C3B33364  27.087   9.152  13.374  0.2666  0.1245  0.1635
 2843DOPC   C4B33365  26.889   9.472  13.132 -0.2288 -0.1093  0.1028
 2844POSM   NC333366  23.868   6.734  12.248  0.4056  0.1553  0.3950
 2844POSM   PO433367  23.928   7.161  12.234  0.0350 -0.1117  0.1030
 2844POSM   AM133368  23.823   7.150  12.559 -0.0356 -0.0741  0.0460
 2844POSM   AM233369  23.665   6.948  12.776 -0.2413  0.1160  0.1349
 2844POSM   T1A33370  23.913   7.427  12.954 -0.0150 -0.1514 -0.0565
 2844POSM   C2A33371  24.306   7.541  13.180 -0.2124 -0.4001 -0.0381
 2844POSM   C3A33372  24.686   7.818  13.214  0.1730 -0.3208 -0.1920
 2844POSM   C1B33373  23.409   7.060  13.055  0.0014  0.0194  0.0675
 2844POSM   D2B33374  23.377   7.386  13.371  0.0957  0.1334 -0.2046
 2844POSM   C3B33375  22.982   7.309  13.640 -0.0231 -0.0969  0.0044
 2844POSM   C4B33376  22.558   7.260  13.803 -0.1768 -0.1282 -0.2186
 2845DOPE   NH333377  28.264   2.555  12.598  0.0700 -0.1096  0.0213
 2845DOPE   PO433378  28.329   2.829  12.739 -0.2098 -0.0197  0.2566
 2845DOPE   GL133379  28.066   2.880  12.911 -0.0897  0.0107  0.1521
 2845DOPE   GL233380  28.115   2.976  13.192 -0.0388 -0.1716  0.2127
 2845DOPE   C1A33381  27.778   2.543  13.109 -0.1150 -0.0929 -0.0598
 2845DOPE   D2A33382  27.602   2.372  13.467  0.5547  0.0104 -0.1192
 2845DOPE   C3A33383  27.594   2.064  13.751  0.4258 -0.1989 -0.0352
 2845DOPE   C4A33384  27.598   2.005  14.178 -0.0865  0.1647  0.0098
 2845DOPE   C1B33385  28.016   2.742  13.617 -0.1242  0.1408  0.1828
 2845DOPE   D2B33386  28.147   2.745  14.011 -0.1319 -0.0213  0.0357
 2845DOPE   C3B33387  28.226   2.311  14.028  0.0183  0.1237  0.1257
 2845DOPE   C4B33388  28.490   1.936  13.940 -0.0597  0.0131 -0.0254
 2846DOPS   CNO33389  26.240   5.792  12.329 -0.1396 -0.0724 -0.1491
 2846DOPS   PO433390  26.463   5.642  12.573  0.0122 -0.0814  0.0787
 2846DOPS   GL133391  26.568   5.744  13.022 -0.0624 -0.2714  0.0344
 2846DOPS   GL233392  26.514   5.941  13.101  0.0449  0.1960  0.1642
 2846DOPS   C1A33393  26.492   5.497  13.451 -0.0025 -0.0794 -0.2064
 2846DOPS   D2A33394  26.265   5.166  13.599  0.0605 -0.0376  0.0059
 2846DOPS   C3A33395  26.080   4.756  13.517  0.0656 -0.4283  0.0677
 2846DOPS   C4A33396  25.759   4.551  13.825 -0.2237 -0.1206  0.0840
 2846DOPS   C1B33397  26.258   5.964  13.436  0.0548 -0.1958  0.1310
 2846DOPS   D2B33398  26.068   6.012  13.861 -0.2528 -0.0694  0.2643
 2846DOPS   C3B33399  26.059   5.870  14.301 -0.2007  0.1146 -0.0909
 2846DOPS   C4B33400  26.299   5.493  14.494 -0.0470  0.2669 -0.0236
 2847DOPC   NC333401  26.329   7.583  12.912 -0.4580  0.0004 -0.2911
 2847DOPC   PO433402  26.276   7.450  12.552  0.0322  0.1080  0.1716
 2847DOPC   GL133403  25.974   7.430  12.792  0.3178  0.1738 -0.1361
 2847DOPC   GL233404  25.699   7.419  12.648 -0.3651  0.1803 -0.0538
 2847DOPC   C1A33405  25.909   7.268  13.215  0.2100  0.1657 -0.2069
 2847DOPC   D2A33406  26.169   7.067  13.585  0.2037  0.4328 -0.0073
 2847DOPC   C3A33407  26.194   6.808  13.966 -0.0711  0.1597  0.3952
 2847DOPC   C4A33408  26.029   6.942  14.407 -0.1952 -0.1427 -0.0109
 2847DOPC   C1B33409  25.710   7.774  12.969 -0.1508  0.0005  0.2504
 2847DOPC   D2B33410  25.906   7.804  13.347  0.0833  0.1891  0.0873
 2847DOPC   C3B33411  25.942   7.554  13.688  0.1040 -0.2671 -0.0494
 2847DOPC   C4B33412  25.936   7.228  14.013 -0.0643  0.1709 -0.0202
 2848DOPC   NC333413  30.947   9.732  13.175  0.0694 -0.1788 -0.1318
 2848DOPC   PO433414  30.757   9.787  12.817  0.0230 -0.1395  0.1291
 2848DOPC   GL133415  31.170   9.763  12.701 -0.0717 -0.4112  0.2559
 2848DOPC   GL233416  31.134   9.840  12.407 -0.0011  0.1509  0.1991
 2848DOPC   C1A33417  31.580   9.886  12.726 -0.3567  0.2099  0.1915
 2848DOPC   D2A33418  31.928   9.813  12.996 -0.4019 -0.3695 -0.0997
 2848DOPC   C3A33419  32.114   9.519  13.283 -0.1190  0.1861  0.1900
 2848DOPC   C4A33420  32.074   9.042  13.411  0.3346 -0.0155  0.2337
 2848DOPC   C1B33421  31.517   9.672  12.233 -0.1935  0.2453 -0.2351
 2848DOPC   D2B33422  31.837   9.410  12.023 -0.4597 -0.2228  0.1457
 2848DOPC   C3B33423  31.779   9.066  12.403  0.1501 -0.0258 -0.2536
 2848DOPC   C4B33424  32.017   8.722  12.604  0.1673  0.1499  0.0618
 2849DOPC   NC333425  25.734   5.545  12.489 -0.5032 -0.1119  0.1807
 2849DOPC   PO433426  25.857   5.202  12.411  0.0032 -0.2306  0.0777
 2849DOPC   GL133427  25.859   5.167  12.793  0.0073 -0.5119 -0.0868
 2849DOPC   GL233428  25.561   5.110  12.923  0.3404 -0.2167  0.4047
 2849DOPC   C1A33429  25.934   5.203  13.261 -0.0130 -0.3600  0.1352
 2849DOPC   D2A33430  25.757   5.116  13.668 -0.1196  0.2269 -0.1822
 2849DOPC   C3A33431  25.679   4.945  14.114  0.1353  0.0231  0.0877
 2849DOPC   C4A33432  25.836   4.867  14.523  0.0240 -0.0389  0.0009
 2849DOPC   C1B33433  25.396   5.387  13.254  0.2742 -0.0400  0.0218
 2849DOPC   D2B33434  25.334   5.701  13.558  0.4070  0.0676 -0.0848
 2849DOPC   C3B33435  25.578   5.714  13.965 -0.0797  0.1345 -0.1383
 2849DOPC   C4B33436  25.390   5.597  14.390 -0.2552 -0.0641 -0.0041
 2850DOPS   CNO33437  28.926   8.402  12.531 -0.1387 -0.2898 -0.1426
 2850DOPS   PO433438  29.184   8.710  12.436 -0.1419 -0.0589  0.0276
 2850DOPS   GL133439  29.062   8.770  12.775  0.0343  0.3933 -0.4296
 2850DOPS   GL233440  29.099   9.074  12.807  0.2530 -0.3078  0.1331
 2850DOPS   C1A33441  28.990   8.604  13.232 -0.2272  0.0529  0.3687
 2850DOPS   D2A33442  28.802   8.870  13.588  0.0654  0.3239 -0.1020
 2850DOPS   C3A33443  29.136   9.134  13.900  0.0335  0.1570  0.0798
 2850DOPS   C4A33444  29.359   9.228  14.281  0.0102  0.1459  0.1573
 2850DOPS   C1B33445  28.798   9.158  13.138  0.1870 -0.3407 -0.1378
 2850DOPS   D2B33446  28.627   9.461  13.469  0.2297  0.0563 -0.2541
 2850DOPS   C3B33447  28.180   9.514  13.417 -0.1544  0.0755 -0.0766
 2850DOPS   C4B33448  27.812   9.734  13.228  0.2939 -0.3713 -0.0103
 2851POSM   NC333449  24.951   0.090  12.412  0.1732 -0.0216  0.1198
 2851POSM   PO433450  25.344   0.174  12.434 -0.3535 -0.1570  0.4243
 2851POSM   AM133451  25.379   0.021  12.689 -0.0896 -0.2625  0.2173
 2851POSM   AM233452  25.149  -0.099  12.878 -0.2817  0.0181  0.0756
 2851POSM   T1A33453  25.579  -0.291  13.112 -0.0349  0.0919 -0.0218
 2851POSM   C2A33454  25.809  -0.564  13.453 -0.1657 -0.0888 -0.0616
 2851POSM   C3A33455  26.032  -0.533  13.892 -0.2454 -0.1629 -0.0785
 2851POSM   C1B33456  24.928  -0.037  13.132  0.4085  0.0644  0.0439
 2851POSM   D2B33457  24.653   0.267  13.386 -0.2768  0.1761 -0.1446
 2851POSM   C3B33458  24.409   0.184  13.770  0.2346 -0.2691  0.0554
 2851POSM   C4B33459  24.315   0.126  14.203  0.2337 -0.0247 -0.0411
 2852POSM   NC333460  29.305  10.995  12.604 -0.1021  0.2242  0.3395
 2852POSM   PO433461  29.159  10.827  12.956 -0.2802 -0.1192  0.2226
 2852POSM   AM133462  29.202  10.644  13.215 -0.0171 -0.3390 -0.0689
 2852POSM   AM233463  29.369  10.647  13.417  0.2195  0.2961 -0.2467
 2852POSM   T1A33464  28.996  10.247  13.505  0.1718  0.1825 -0.1549
 2852POSM   C2A33465  28.823   9.874  13.697 -0.2212  0.1031 -0.2983
 2852POSM   C3A33466  28.812   9.528  14.049  0.2714 -0.0069 -0.2670
 2852POSM   C1B33467  29.329  10.630  13.713  0.1002 -0.1531  0.1749
 2852POSM   D2B33468  29.446  10.650  14.182 -0.0187  0.0161  0.0583
 2852POSM   C3B33469  29.285  10.256  14.469  0.0388 -0.1856 -0.0128
 2852POSM   C4B33470  29.330   9.887  14.709 -0.0889  0.3806 -0.3630
 2853DOPE   NH333471  22.838   4.973  12.223  0.1416 -0.0769 -0.0972
 2853DOPE   PO433472  22.883   5.233  11.990 -0.0712 -0.1563 -0.0879
 2853DOPE   GL133473  23.139   5.313  12.275  0.3738 -0.4369 -0.0618
 2853DOPE   GL233474  23.179   5.623  12.266  0.1970  0.0138  0.0242
 2853DOPE   C1A33475  22.899   5.304  12.712  0.0318 -0.0262 -0.2509
 2853DOPE   D2A33476  22.619   5.172  13.091  0.1326 -0.1847  0.0364
 2853DOPE   C3A33477  22.384   5.490  13.368  0.0709 -0.1145 -0.0534
 2853DOPE   C4A33478  22.433   5.689  13.786  0.3254  0.2953  0.0945
 2853DOPE   C1B33479  23.430   5.871  12.622  0.3328 -0.1666  0.1924
 2853DOPE   D2B33480  23.750   5.848  12.885 -0.0678  0.0645  0.1049
 2853DOPE   C3B33481  23.421   6.100  13.154 -0.0007 -0.0352 -0.1232
 2853DOPE   C4B33482  23.500   6.537  13.308 -0.2178  0.2716  0.0537
 2854DOPC   NC333483  29.085   1.632  12.498 -0.1979  0.1469  0.0353
 2854DOPC   PO433484  28.856   1.383  12.260 -0.1668  0.5500  0.2815
 2854DOPC   GL133485  28.664   1.169  12.464  0.0454 -0.1796 -0.0458
 2854DOPC   GL233486  28.897   1.118  12.698 -0.0436  0.0138 -0.1466
 2854DOPC   C1A33487  28.325   0.858  12.657  0.3160 -0.0175 -0.1520
 2854DOPC   D2A33488  28.347   0.375  12.828  0.0697  0.1836 -0.3796
 2854DOPC   C3A33489  28.157   0.078  13.204  0.0270  0.0076  0.3006
 2854DOPC   C4A33490  28.201  -0.108  13.632  0.1217  0.0200  0.1875
 2854DOPC   C1B33491  28.769   0.647  12.678  0.3662  0.0791 -0.2920
 2854DOPC   D2B33492  28.842   0.163  12.722 -0.0768 -0.1601  0.0374
 2854DOPC   C3B33493  28.565  -0.153  12.572 -0.0216 -0.2983  0.0279
 2854DOPC   C4B33494  28.503  -0.607  12.768 -0.0998 -0.3090 -0.0655
 2855POSM   NC333495  34.088   3.182  12.411 -0.1150  0.3580  0.0395
 2855POSM   PO433496  34.033   2.916  12.714  0.5162 -0.3609  0.2274
 2855POSM   AM133497  33.913   2.956  13.025 -0.0194 -0.0405  0.1133
 2855POSM   AM233498  34.029   3.015  13.239 -0.1459 -0.0050 -0.0183
 2855POSM   T1A33499  33.526   2.998  13.348 -0.0016 -0.0090  0.2463
 2855POSM   C2A33500  33.056   2.977  13.520  0.3103  0.1882  0.2384
 2855POSM   C3A33501  32.721   2.824  13.787  0.0437  0.0370 -0.0201
 2855POSM   C1B33502  34.121   3.239  13.510 -0.2529  0.1740 -0.0099
 2855POSM   D2B33503  34.249   3.245  13.934 -0.1187 -0.0186 -0.2192
 2855POSM   C3B33504  33.907   3.420  14.172 -0.2946  0.1935 -0.1025
 2855POSM   C4B33505  33.546   3.580  14.454  0.1435 -0.0771 -0.2245
 2856POSM   NC333506  29.273   7.469  12.456 -0.1100  0.3321  0.1183
 2856POSM   PO433507  28.907   7.414  12.328  0.1050 -0.0707 -0.0115
 2856POSM   AM133508  28.853   7.267  12.640 -0.2148  0.2273  0.2352
 2856POSM   AM233509  28.895   7.439  12.886  0.2658  0.0506  0.1488
 2856POSM   T1A33510  28.726   6.915  12.954 -0.0326 -0.0841  0.3835
 2856POSM   C2A33511  28.787   6.643  13.336 -0.1330  0.0559  0.2031
 2856POSM   C3A33512  28.665   6.669  13.766  0.2573  0.0275  0.0104
 2856POSM   C1B33513  28.769   7.370  13.157 -0.1431  0.2518 -0.0672
 2856POSM   D2B33514  28.582   7.306  13.567 -0.1608 -0.3489  0.0618
 2856POSM   C3B33515  28.957   7.528  13.863 -0.1447 -0.2631  0.2085
 2856POSM   C4B33516  28.979   8.001  14.059 -0.0773 -0.3271  0.0204
 2857DOPC   NC333517  24.761  20.550  15.958 -0.3494 -0.2467  0.0035
 2857DOPC   PO433518  25.107  20.436  16.173  0.0850 -0.1409  0.0610
 2857DOPC   GL133519  25.268  20.233  15.786  0.4020 -0.0978  0.2099
 2857DOPC   GL233520  25.110  20.000  15.755 -0.0797  0.1188 -0.2429
 2857DOPC   C1A33521  25.520  20.288  15.417  0.1993  0.1404  0.0253
 2857DOPC   D2A33522  25.482  20.472  15.005  0.1477 -0.1964  0.1929
 2857DOPC   C3A33523  25.524  20.177  14.645  0.5467 -0.1799 -0.2238
 2857DOPC   C4A33524  25.704  20.011  14.247 -0.2161  0.0031 -0.0014
 2857DOPC   C1B33525  25.111  20.096  15.279 -0.0450  0.0350 -0.0540
 2857DOPC   D2B33526  24.990  20.295  14.878 -0.3218 -0.1844 -0.0472
 2857DOPC   C3B33527  24.973  20.288  14.388 -0.1012 -0.2506 -0.2436
 2857DOPC   C4B33528  25.212  19.949  14.202  0.0649 -0.1364 -0.1291
 2858DOPC   NC333529  33.209  14.641  16.298  0.1446  0.0404  0.3626
 2858DOPC   PO433530  32.844  14.570  16.371 -0.0831  0.0524  0.0047
 2858DOPC   GL133531  32.899  14.504  15.929 -0.2911 -0.3026 -0.1156
 2858DOPC   GL233532  33.132  14.393  15.716 -0.3430  0.0156  0.5448
 2858DOPC   C1A33533  32.662  14.657  15.587 -0.0428 -0.0395  0.2164
 2858DOPC   D2A33534  32.226  14.709  15.349 -0.0156 -0.2796  0.2509
 2858DOPC   C3A33535  32.029  14.391  15.063 -0.2861  0.2379  0.0367
 2858DOPC   C4A33536  32.044  14.356  14.627  0.1636  0.2644 -0.1354
 2858DOPC   C1B33537  33.030  14.490  15.285  0.3399 -0.0142  0.0433
 2858DOPC   D2B33538  32.990  14.842  14.995  0.2742 -0.2562  0.2238
 2858DOPC   C3B33539  32.705  14.820  14.594  0.1065 -0.3126 -0.4880
 2858DOPC   C4B33540  32.669  14.865  14.081 -0.4466 -0.0826  0.0372
 2859DOPE   NH333541  32.699  20.889  16.011  0.0372  0.1986 -0.2939
 2859DOPE   PO433542  32.491  21.044  15.823  0.1510 -0.0284  0.0920
 2859DOPE   GL133543  32.339  20.994  15.483 -0.2435 -0.1033 -0.1382
 2859DOPE   GL233544  32.084  21.201  15.383 -0.0634  0.0037  0.3233
 2859DOPE   C1A33545  32.461  20.819  15.071  0.2331 -0.0177 -0.3709
 2859DOPE   D2A33546  32.496  20.896  14.586 -0.1895 -0.1329  0.1208
 2859DOPE   C3A33547  32.689  21.218  14.273  0.1237 -0.0781 -0.2949
 2859DOPE   C4A33548  32.599  21.570  14.039 -0.0702  0.0323  0.2152
 2859DOPE   C1B33549  32.003  21.019  15.022  0.1472  0.2154 -0.0947
 2859DOPE   D2B33550  31.890  20.981  14.612  0.0939 -0.1731  0.4474
 2859DOPE   C3B33551  32.146  21.169  14.220 -0.2302  0.0594  0.3149
 2859DOPE   C4B33552  32.414  21.143  13.867  0.0485 -0.1550  0.0155
 2860DOPE   NH333553  23.731  20.606  15.937  0.0900 -0.1144 -0.3920
 2860DOPE   PO433554  23.870  20.657  15.623  0.2949  0.1503  0.2524
 2860DOPE   GL133555  24.000  20.860  15.228 -0.0519  0.1619  0.0629
 2860DOPE   GL233556  23.814  20.742  15.110 -0.0819 -0.1265 -0.1380
 2860DOPE   C1A33557  24.383  20.876  14.962  0.0990  0.0639  0.1253
 2860DOPE   D2A33558  24.852  20.857  14.941  0.0639  0.0137  0.0398
 2860DOPE   C3A33559  25.034  21.189  14.638  0.2605  0.2559  0.1130
 2860DOPE   C4A33560  25.147  21.649  14.609  0.1358  0.1299 -0.0059
 2860DOPE   C1B33561  23.661  20.570  14.677 -0.1088  0.0924  0.1377
 2860DOPE   D2B33562  23.643  20.524  14.222 -0.3515 -0.3306 -0.0939
 2860DOPE   C3B33563  24.100  20.498  14.062  0.1030  0.3506 -0.2447
 2860DOPE   C4B33564  24.466  20.514  13.827  0.2850 -0.2102 -0.1870
 2861DOPC   NC333565  32.124  23.490  16.538  0.0003 -0.3177 -0.0754
 2861DOPC   PO433566  32.449  23.245  16.393  0.2450  0.2198 -0.1206
 2861DOPC   GL133567  32.421  23.052  16.000  0.0657 -0.0828 -0.0233
 2861DOPC   GL233568  32.141  23.211  15.881  0.4139 -0.3316  0.1029
 2861DOPC   C1A33569  32.530  22.928  15.574 -0.0735  0.1880  0.2864
 2861DOPC   D2A33570  32.385  22.791  15.136  0.3644  0.0426  0.0559
 2861DOPC   C3A33571  32.637  22.647  14.798 -0.1489  0.1739  0.1714
 2861DOPC   C4A33572  32.748  22.470  14.352  0.0185  0.1125  0.1057
 2861DOPC   C1B33573  32.036  23.146  15.431  0.1589  0.2939 -0.0043
 2861DOPC   D2B33574  31.753  22.837  15.335 -0.0534 -0.0492 -0.2311
 2861DOPC   C3B33575  31.748  22.411  15.462  0.1784 -0.1013 -0.1187
 2861DOPC   C4B33576  31.950  22.031  15.306  0.0427  0.2367 -0.0214
 2862DOPC   NC333577  33.122  21.839  16.269  0.1729  0.0572  0.2872
 2862DOPC   PO433578  33.396  21.606  16.095 -0.1182 -0.1413  0.0431
 2862DOPC   GL133579  33.513  21.458  15.728 -0.0577  0.1530 -0.1382
 2862DOPC   GL233580  33.286  21.397  15.503  0.0482  0.1530  0.3384
 2862DOPC   C1A33581  33.748  21.044  15.579  0.2584  0.0129 -0.0198
 2862DOPC   D2A33582  34.154  20.955  15.435 -0.0358 -0.0253 -0.2003
 2862DOPC   C3A33583  34.014  21.153  15.025 -0.1097 -0.0053 -0.2543
 2862DOPC   C4A33584  33.873  21.051  14.607 -0.0570  0.2241  0.1837
 2862DOPC   C1B33585  33.316  21.575  15.070 -0.1261  0.0311  0.0837
 2862DOPC   D2B33586  33.541  21.493  14.714 -0.0980  0.0401  0.0684
 2862DOPC   C3B33587  33.413  21.747  14.363 -0.1905 -0.1973 -0.2415
 2862DOPC   C4B33588  33.140  21.837  13.978 -0.0243 -0.3266  0.0941
 2863POSM   NC333589  27.318  14.715  15.974 -0.2434 -0.1408 -0.0784
 2863POSM   PO433590  27.016  14.918  16.187 -0.1637  0.2158  0.1082
 2863POSM   AM133591  26.900  14.912  15.842 -0.0290  0.2959 -0.3719
 2863POSM   AM233592  27.007  14.753  15.609  0.0482 -0.4467 -0.0476
 2863POSM   T1A33593  26.566  15.034  15.533 -0.1451  0.1273  0.0386
 2863POSM   C2A33594  26.324  15.336  15.255 -0.2593  0.0166 -0.1352
 2863POSM   C3A33595  26.003  15.563  14.934 -0.0401  0.0953  0.4413
 2863POSM   C1B33596  27.032  14.725  15.241 -0.2968  0.3743 -0.1437
 2863POSM   D2B33597  26.997  14.755  14.810 -0.1419  0.0802 -0.1287
 2863POSM   C3B33598  27.086  14.480  14.488 -0.1615  0.2554 -0.0634
 2863POSM   C4B33599  27.434  14.583  14.212  0.1825 -0.0905 -0.0370
 2864DOPS   CNO33600  31.508  20.344  16.182  0.1927  0.0944  0.0200
 2864DOPS   PO433601  31.587  20.692  16.098  0.2590 -0.3322  0.2334
 2864DOPS   GL133602  31.358  20.695  15.760 -0.1953  0.1883  0.0951
 2864DOPS   GL233603  31.373  20.425  15.725 -0.1397  0.3147 -0.1791
 2864DOPS   C1A33604  31.165  20.963  15.467 -0.0897 -0.2998 -0.0219
 2864DOPS   D2A33605  31.062  21.100  14.980  0.0479  0.1221 -0.2474
 2864DOPS   C3A33606  31.171  21.490  15.011 -0.1848 -0.1405  0.1363
 2864DOPS   C4A33607  31.617  21.610  15.160  0.2765  0.2418  0.1154
 2864DOPS   C1B33608  31.556  20.678  15.337  0.0270  0.4094 -0.2091
 2864DOPS   D2B33609  31.462  20.686  14.825 -0.1950  0.0644 -0.0002
 2864DOPS   C3B33610  31.588  20.646  14.344  0.2097  0.0327 -0.3036
 2864DOPS   C4B33611  31.644  20.766  13.929 -0.0843 -0.0409  0.4357
 2865DOPC   NC333612  27.907  14.159  16.418  0.2155 -0.0243  0.1322
 2865DOPC   PO433613  28.296  14.162  16.610 -0.1627 -0.0981  0.1835
 2865DOPC   GL133614  28.593  14.075  16.307  0.0238 -0.2476 -0.0073
 2865DOPC   GL233615  28.363  13.896  16.143  0.3251 -0.3551 -0.2469
 2865DOPC   C1A33616  28.750  14.155  15.808  0.1133  0.1261  0.0856
 2865DOPC   D2A33617  28.942  14.207  15.432  0.1189  0.0804 -0.0012
 2865DOPC   C3A33618  29.125  14.029  15.106 -0.1903  0.2194  0.0216
 2865DOPC   C4A33619  29.497  14.173  14.838 -0.1802  0.4104  0.0372
 2865DOPC   C1B33620  27.995  13.975  15.870  0.1994  0.1713 -0.0636
 2865DOPC   D2B33621  27.607  13.979  15.526  0.2281 -0.3497 -0.1304
 2865DOPC   C3B33622  27.817  14.013  15.121  0.1435  0.6248 -0.0664
 2865DOPC   C4B33623  27.853  14.125  14.679 -0.2542  0.1772 -0.0136
 2866DOPE   NH333624  25.002  16.783  16.243  0.3616 -0.1891  0.2265
 2866DOPE   PO433625  25.314  16.944  16.246  0.0704  0.4869  0.0038
 2866DOPE   GL133626  25.574  16.804  15.883 -0.0572  0.1302  0.2772
 2866DOPE   GL233627  25.724  17.041  15.908 -0.0296  0.0784  0.1043
 2866DOPE   C1A33628  25.566  16.620  15.510  0.2773  0.2053  0.3641
 2866DOPE   D2A33629  25.715  16.642  15.100  0.0654 -0.0263  0.1468
 2866DOPE   C3A33630  25.828  17.000  14.766 -0.2711  0.0459  0.0070
 2866DOPE   C4A33631  26.014  17.001  14.336 -0.1617  0.0893  0.0320
 2866DOPE   C1B33632  25.881  17.062  15.425 -0.0933 -0.0848  0.1192
 2866DOPE   D2B33633  26.065  17.294  15.062  0.0877  0.1069  0.1387
 2866DOPE   C3B33634  26.408  17.433  14.768  0.4106  0.0059  0.1244
 2866DOPE   C4B33635  26.593  17.563  14.370 -0.0393  0.1884  0.1518
 2867POSM   NC333636  32.132  21.122  16.500  0.1090  0.0485  0.1863
 2867POSM   PO433637  32.117  20.861  16.253 -0.0918 -0.0169  0.1323
 2867POSM   AM133638  32.105  20.607  16.002  0.2378 -0.1371 -0.1203
 2867POSM   AM233639  32.262  20.585  15.774  0.2677 -0.1054  0.1037
 2867POSM   T1A33640  31.852  20.278  15.706  0.0335 -0.2105 -0.0038
 2867POSM   C2A33641  31.752  19.841  15.537 -0.1870 -0.0021 -0.2110
 2867POSM   C3A33642  31.635  19.597  15.121  0.0177 -0.1118 -0.2842
 2867POSM   C1B33643  32.101  20.616  15.482 -0.1093 -0.1542 -0.1785
 2867POSM   D2B33644  32.071  20.508  15.038 -0.1911 -0.1246 -0.2327
 2867POSM   C3B33645  32.271  20.484  14.613 -0.0695  0.1277  0.2792
 2867POSM   C4B33646  32.109  20.410  14.201 -0.2701 -0.0903  0.0460
 2868DOPS   CNO33647  28.626  22.443  16.431 -0.0950  0.0458 -0.1290
 2868DOPS   PO433648  28.802  22.662  16.668  0.2391  0.0874 -0.2456
 2868DOPS   GL133649  29.008  22.719  16.330  0.1175  0.1860  0.1099
 2868DOPS   GL233650  28.794  22.864  16.113  0.0552 -0.1132  0.0925
 2868DOPS   C1A33651  29.305  23.021  16.070  0.2032 -0.1254 -0.1557
 2868DOPS   D2A33652  29.350  23.244  15.671  0.1732  0.1338  0.1042
 2868DOPS   C3A33653  29.793  23.354  15.529 -0.2879  0.0122 -0.1846
 2868DOPS   C4A33654  30.054  23.348  15.137  0.3351  0.0485 -0.1600
 2868DOPS   C1B33655  28.824  23.099  15.729  0.1405  0.1916 -0.0168
 2868DOPS   D2B33656  28.533  23.150  15.396 -0.0417 -0.2739 -0.0238
 2868DOPS   C3B33657  28.718  23.324  14.961 -0.0656  0.1516  0.0210
 2868DOPS   C4B33658  28.899  23.522  14.665 -0.5202 -0.2070 -0.0454
 2869DOPC   NC333659  32.922  13.989  15.944 -0.1684 -0.2606  0.0021
 2869DOPC   PO433660  33.256  13.742  15.872 -0.1380 -0.0959 -0.1022
 2869DOPC   GL133661  33.369  13.929  15.585  0.2183 -0.2647 -0.1493
 2869DOPC   GL233662  33.124  14.007  15.353 -0.1292  0.0289 -0.0339
 2869DOPC   C1A33663  33.714  13.817  15.234  0.2257  0.1534 -0.1363
 2869DOPC   D2A33664  33.722  13.431  14.942 -0.1977  0.0345 -0.0574
 2869DOPC   C3A33665  33.533  13.501  14.547 -0.0104 -0.2826  0.1739
 2869DOPC   C4A33666  33.322  13.171  14.252 -0.3070  0.0925 -0.1664
 2869DOPC   C1B33667  32.825  13.857  15.075  0.1454  0.3060 -0.0108
 2869DOPC   D2B33668  32.408  13.846  14.854 -0.1343 -0.1488 -0.1289
 2869DOPC   C3B33669  32.210  13.718  14.437  0.2553  0.2391 -0.0881
 2869DOPC   C4B33670  32.108  13.828  14.008 -0.0503  0.0035  0.1133
 2870DOPE   NH333671  29.790  16.438  17.093 -0.2487  0.0970 -0.2620
 2870DOPE   PO433672  29.501  16.340  16.994  0.0794 -0.3385  0.0154
 2870DOPE   GL133673  29.355  16.376  16.653 -0.1554 -0.0070  0.2781
 2870DOPE   GL233674  29.131  16.549  16.608 -0.1583 -0.1285  0.0862
 2870DOPE   C1A33675  29.191  16.144  16.277 -0.2468 -0.1839  0.3216
 2870DOPE   D2A33676  28.838  15.898  16.066  0.0112  0.0768  0.1414
 2870DOPE   C3A33677  29.011  15.647  15.701 -0.0775 -0.1050 -0.1082
 2870DOPE   C4A33678  29.265  15.319  15.373 -0.2265 -0.1917  0.1811
 2870DOPE   C1B33679  29.032  16.715  16.178  0.0967  0.1480 -0.0209
 2870DOPE   D2B33680  29.190  16.947  15.779 -0.1366  0.0795 -0.0893
 2870DOPE   C3B33681  28.938  16.774  15.413 -0.1577 -0.3614  0.1030
 2870DOPE   C4B33682  28.902  16.422  15.120 -0.2863  0.0344  0.0954
 2871DOPE   NH333683  27.980  16.839  16.609  0.2511  0.0778  0.0863
 2871DOPE   PO433684  28.173  16.605  16.554  0.3820 -0.2689 -0.0271
 2871DOPE   GL133685  28.163  16.617  16.211 -0.0188  0.0829  0.0156
 2871DOPE   GL233686  28.118  16.890  16.119 -0.0740  0.1944 -0.2729
 2871DOPE   C1A33687  28.167  16.247  15.919 -0.0739  0.0249  0.0027
 2871DOPE   D2A33688  27.948  16.248  15.532 -0.4153 -0.0978  0.0367
 2871DOPE   C3A33689  28.087  16.452  15.148 -0.2536 -0.0795  0.1187
 2871DOPE   C4A33690  28.381  16.520  14.841 -0.0357  0.1804  0.1771
 2871DOPE   C1B33691  27.809  17.095  15.870 -0.1684 -0.0824  0.2781
 2871DOPE   D2B33692  27.678  17.255  15.446  0.0493 -0.0969  0.0661
 2871DOPE   C3B33693  27.716  17.172  14.997  0.0035  0.0620 -0.0957
 2871DOPE   C4B33694  27.956  17.347  14.646  0.0890 -0.3731 -0.1137
 2872DOPC   NC333695  31.636  21.903  16.117  0.0619  0.1895 -0.2931
 2872DOPC   PO433696  31.708  22.198  16.332  0.0467  0.1297  0.2122
 2872DOPC   GL133697  31.354  22.271  16.137  0.1848  0.0432  0.2654
 2872DOPC   GL233698  31.464  22.591  16.077 -0.0770 -0.2020 -0.0094
 2872DOPC   C1A33699  31.006  22.027  15.987 -0.5257  0.2651  0.0063
 2872DOPC   D2A33700  30.612  21.824  15.856  0.0585 -0.0000  0.1993
 2872DOPC   C3A33701  30.459  21.741  15.424 -0.0765 -0.0060 -0.5201
 2872DOPC   C4A33702  30.260  21.780  15.062 -0.0092 -0.0705  0.1221
 2872DOPC   C1B33703  31.766  22.813  15.824 -0.4339  0.0405  0.0935
 2872DOPC   D2B33704  31.679  23.325  15.761 -0.0325  0.1049  0.2459
 2872DOPC   C3B33705  31.550  23.521  15.369  0.1976 -0.0697  0.2471
 2872DOPC   C4B33706  31.465  23.818  14.959 -0.0103 -0.0163  0.0632
 2873POSM   NC333707  33.009  18.645  16.641 -0.2740  0.0618  0.0882
 2873POSM   PO433708  32.635  18.766  16.686 -0.1645  0.0692 -0.1998
 2873POSM   AM133709  32.495  18.559  16.437 -0.0225 -0.0316  0.1129
 2873POSM   AM233710  32.492  18.285  16.383  0.1858 -0.0621  0.1339
 2873POSM   T1A33711  32.132  18.571  16.130 -0.1002 -0.4682 -0.1012
 2873POSM   C2A33712  32.047  18.500  15.664  0.0255  0.0774  0.1014
 2873POSM   C3A33713  31.882  18.373  15.272  0.0012 -0.1773 -0.0368
 2873POSM   C1B33714  32.495  18.248  16.015  0.4948  0.1141  0.3597
 2873POSM   D2B33715  32.723  17.999  15.683  0.0820 -0.0018 -0.0659
 2873POSM   C3B33716  33.109  18.149  15.454  0.0565  0.1519 -0.1271
 2873POSM   C4B33717  33.423  18.140  15.081 -0.2926  0.0341  0.0424
 2874DOPE   NH333718  23.242  21.022  15.448  0.1894 -0.2655 -0.2744
 2874DOPE   PO433719  23.377  21.207  15.250  0.0052 -0.0771  0.0421
 2874DOPE   GL133720  23.652  21.205  15.014 -0.2610 -0.2821  0.1523
 2874DOPE   GL233721  23.723  21.543  15.185 -0.1717 -0.1140 -0.0972
 2874DOPE   C1A33722  23.959  20.984  14.726 -0.0997 -0.0908  0.0112
 2874DOPE   D2A33723  24.159  20.645  14.526 -0.2317  0.1429  0.0205
 2874DOPE   C3A33724  24.579  20.807  14.512  0.0083  0.4119 -0.2009
 2874DOPE   C4A33725  25.026  20.756  14.414  0.0322 -0.1300 -0.0742
 2874DOPE   C1B33726  23.586  21.597  14.694  0.2499  0.0092  0.3202
 2874DOPE   D2B33727  23.611  21.506  14.235 -0.0066 -0.0690 -0.2198
 2874DOPE   C3B33728  23.744  21.793  13.951 -0.0766  0.0468 -0.1869
 2874DOPE   C4B33729  24.136  21.870  13.727 -0.0003  0.3325  0.0601
 2875DOPS   CNO33730  27.173  12.328  16.022  0.4508 -0.2539  0.2185
 2875DOPS   PO433731  27.480  12.594  16.054  0.2103  0.1014 -0.2200
 2875DOPS   GL133732  27.612  12.716  15.683  0.0450  0.4990  0.1601
 2875DOPS   GL233733  27.730  13.004  15.715 -0.2215  0.3457  0.0655
 2875DOPS   C1A33734  27.590  12.762  15.261 -0.4974  0.2979 -0.1024
 2875DOPS   D2A33735  27.804  12.639  14.917  0.0132 -0.1959  0.3141
 2875DOPS   C3A33736  27.785  12.385  14.497 -0.0146  0.0747  0.5433
 2875DOPS   C4A33737  28.033  12.206  14.129  0.1543 -0.0355 -0.3123
 2875DOPS   C1B33738  27.377  13.192  15.480  0.0325 -0.2868  0.2606
 2875DOPS   D2B33739  27.228  13.645  15.535  0.1293  0.0931  0.2046
 2875DOPS   C3B33740  27.233  13.907  15.253  0.1219 -0.3980 -0.0690
 2875DOPS   C4B33741  27.360  13.857  14.786  0.2610 -0.1276 -0.0590
 2876POSM   NC333742  30.529  19.000  16.505 -0.4028  0.1582  0.0963
 2876POSM   PO433743  30.451  19.386  16.618 -0.0992 -0.2225 -0.1030
 2876POSM   AM133744  30.204  19.306  16.430 -0.0893  0.0079  0.1052
 2876POSM   AM233745  29.936  19.438  16.372 -0.3306  0.0676 -0.4583
 2876POSM   T1A33746  29.988  19.062  16.014  0.3529  0.0721  0.1042
 2876POSM   C2A33747  29.719  18.753  15.853 -0.2688 -0.0481  0.1933
 2876POSM   C3A33748  29.504  18.351  15.860  0.0646  0.2249  0.2004
 2876POSM   C1B33749  29.974  19.638  16.115  0.1811  0.3553  0.0135
 2876POSM   D2B33750  29.889  19.748  15.636  0.0990 -0.0751  0.2277
 2876POSM   C3B33751  29.904  20.157  15.413  0.1705 -0.3530 -0.1046
 2876POSM   C4B33752  30.025  20.501  15.148  0.2410 -0.0731  0.1595
 2877POSM   NC333753  28.530  19.704  16.774 -0.1627 -0.3259 -0.1688
 2877POSM   PO433754  28.178  19.661  16.770  0.1262  0.1923 -0.1076
 2877POSM   AM133755  28.139  19.561  16.418  0.2774 -0.4586  0.0415
 2877POSM   AM233756  28.122  19.350  16.220 -0.2140 -0.0723 -0.2339
 2877POSM   T1A33757  27.937  19.690  15.958 -0.1425 -0.0303  0.0634
 2877POSM   C2A33758  27.753  20.049  15.741  0.0353 -0.3411  0.2822
 2877POSM   C3A33759  27.660  20.408  15.472 -0.0548 -0.0146  0.3263
 2877POSM   C1B33760  28.334  19.438  15.986 -0.0054  0.1342 -0.2043
 2877POSM   D2B33761  28.379  19.435  15.522  0.1193 -0.1591 -0.3043
 2877POSM   C3B33762  28.006  19.508  15.228  0.0974  0.3275  0.1874
 2877POSM   C4B33763  27.640  19.629  14.879  0.2243  0.2229  0.1807
 2878DOPC   NC333764  25.752  11.891  15.690 -0.2860  0.1104  0.2223
 2878DOPC   PO433765  25.555  11.584  15.557  0.2123 -0.1041 -0.2001
 2878DOPC   GL133766  25.630  11.576  15.190 -0.0539  0.2770 -0.1964
 2878DOPC   GL233767  25.856  11.698  15.197 -0.0844 -0.0419  0.1108
 2878DOPC   C1A33768  25.627  11.945  14.896 -0.0800 -0.2153 -0.0334
 2878DOPC   D2A33769  25.788  12.395  14.904 -0.1105 -0.1133 -0.0469
 2878DOPC   C3A33770  25.440  12.594  14.753 -0.0660  0.1629 -0.2585
 2878DOPC   C4A33771  25.185  12.248  14.939  0.0327  0.2100  0.0772
 2878DOPC   C1B33772  26.258  11.465  15.018  0.0207  0.0340  0.3350
 2878DOPC   D2B33773  26.307  11.286  14.618  0.2071  0.0209  0.0344
 2878DOPC   C3B33774  26.042  11.226  14.251 -0.2290 -0.1054  0.2855
 2878DOPC   C4B33775  25.730  11.394  13.907 -0.0183 -0.0676  0.3067
 2879DOPS   CNO33776  29.903  15.450  17.300 -0.2391 -0.1325 -0.1438
 2879DOPS   PO433777  30.162  15.442  17.040  0.2111  0.1105  0.1304
 2879DOPS   GL133778  30.395  15.564  16.705 -0.0853 -0.0604 -0.3021
 2879DOPS   GL233779  30.389  15.861  16.788 -0.3231  0.1521  0.3573
 2879DOPS   C1A33780  30.372  15.205  16.368  0.1062  0.1038 -0.0292
 2879DOPS   D2A33781  30.728  14.939  16.086 -0.1124 -0.0645 -0.2246
 2879DOPS   C3A33782  30.901  15.183  15.757 -0.2020 -0.0030 -0.0418
 2879DOPS   C4A33783  31.170  15.015  15.467  0.0614  0.0525  0.0950
 2879DOPS   C1B33784  30.457  16.295  16.658 -0.1197 -0.0316  0.4100
 2879DOPS   D2B33785  30.486  16.577  16.277  0.0708 -0.1668  0.3959
 2879DOPS   C3B33786  30.962  16.615  16.167 -0.1173  0.1092  0.0774
 2879DOPS   C4B33787  31.232  16.630  15.764  0.0345 -0.0699  0.0900
 2880DOPE   NH333788  32.325  21.493  15.684 -0.0597 -0.2643  0.0362
 2880DOPE   PO433789  32.200  21.809  15.790  0.1943  0.3141 -0.0291
 2880DOPE   GL133790  32.540  21.920  15.537 -0.3051 -0.0991  0.0059
 2880DOPE   GL233791  32.400  21.839  15.316 -0.0672 -0.0196  0.4583
 2880DOPE   C1A33792  32.713  22.300  15.287  0.1505 -0.2515 -0.2838
 2880DOPE   D2A33793  33.003  22.631  15.128 -0.2955 -0.1733 -0.1155
 2880DOPE   C3A33794  33.149  22.551  14.722 -0.0592  0.1041 -0.2593
 2880DOPE   C4A33795  33.505  22.765  14.449  0.0047  0.0188 -0.0181
 2880DOPE   C1B33796  32.069  21.659  15.005 -0.0490 -0.1961 -0.0533
 2880DOPE   D2B33797  31.792  21.495  14.638 -0.1383 -0.2619 -0.1128
 2880DOPE   C3B33798  31.373  21.630  14.524 -0.6162 -0.3070  0.0812
 2880DOPE   C4B33799  30.923  21.601  14.539 -0.1476  0.1760  0.0352
 2881POSM   NC333800  32.932  17.049  16.291  0.0479 -0.2887 -0.2151
 2881POSM   PO433801  33.041  17.414  16.388 -0.1517 -0.2473 -0.0402
 2881POSM   AM133802  33.225  17.582  16.174 -0.2055  0.2013 -0.6007
 2881POSM   AM233803  33.444  17.728  16.059  0.0445 -0.1421  0.1418
 2881POSM   T1A33804  33.226  17.465  15.694 -0.0558 -0.0525  0.2453
 2881POSM   C2A33805  33.183  17.285  15.308  0.0402 -0.2241  0.1093
 2881POSM   C3A33806  33.121  17.032  14.995  0.1678  0.0853  0.4631
 2881POSM   C1B33807  33.457  17.868  15.755 -0.1185  0.3132  0.0713
 2881POSM   D2B33808  33.465  17.701  15.304  0.2440  0.1461  0.1085
 2881POSM   C3B33809  33.067  17.650  15.020  0.0346  0.0207  0.3987
 2881POSM   C4B33810  32.725  17.378  14.880  0.0793  0.2664 -0.0548
 2882POSM   NC333811  34.178  12.693  15.940 -0.2110  0.1115  0.0418
 2882POSM   PO433812  33.798  12.604  15.986 -0.2017 -0.1195 -0.2219
 2882POSM   AM133813  33.814  12.720  15.682  0.3548 -0.0911 -0.0304
 2882POSM   AM233814  33.886  13.018  15.593  0.0153  0.3713 -0.2335
 2882POSM   T1A33815  33.882  12.719  15.147 -0.0199  0.3556 -0.1543
 2882POSM   C2A33816  33.748  12.929  14.792 -0.2578 -0.1909 -0.1474
 2882POSM   C3A33817  33.920  13.170  14.496 -0.0338 -0.1741  0.2086
 2882POSM   C1B33818  33.984  13.179  15.268  0.1871 -0.1279 -0.2238
 2882POSM   D2B33819  34.217  13.454  14.933 -0.1641  0.1195 -0.4419
 2882POSM   C3B33820  33.988  13.690  14.598 -0.1472  0.1631 -0.0304
 2882POSM   C4B33821  33.883  13.900  14.179  0.1149 -0.3217  0.0578
 2883DOPC   NC333822  24.774  19.986  16.109  0.1292 -0.1826  0.4229
 2883DOPC   PO433823  24.584  19.697  15.995 -0.2234  0.0249  0.2208
 2883DOPC   GL133824  24.472  19.765  15.632  0.4686 -0.2680 -0.2381
 2883DOPC   GL233825  24.767  19.691  15.553  0.0644  0.2575  0.1178
 2883DOPC   C1A33826  24.138  19.847  15.246  0.1317  0.1203  0.0526
 2883DOPC   D2A33827  23.789  19.781  14.962  0.0796 -0.1308 -0.1503
 2883DOPC   C3A33828  23.820  19.673  14.535 -0.3038 -0.3028  0.3491
 2883DOPC   C4A33829  23.548  19.667  14.211 -0.1260  0.8029  0.2876
 2883DOPC   C1B33830  24.635  20.165  15.534 -0.0066 -0.0604  0.1785
 2883DOPC   D2B33831  24.774  20.542  15.297  0.0366 -0.0270  0.5634
 2883DOPC   C3B33832  25.170  20.728  15.333  0.2187  0.0865 -0.1771
 2883DOPC   C4B33833  25.578  20.806  15.382 -0.2521  0.1335 -0.2160
 2884DOPC   NC333834  24.036  14.197  15.537 -0.3541 -0.0178 -0.2446
 2884DOPC   PO433835  24.387  14.026  15.475 -0.1069  0.0370  0.1491
 2884DOPC   GL133836  24.472  14.102  15.113 -0.2152 -0.2010  0.1075
 2884DOPC   GL233837  24.321  13.785  15.082 -0.0989 -0.1877  0.3070
 2884DOPC   C1A33838  24.623  14.211  14.734 -0.1325  0.1485  0.1644
 2884DOPC   D2A33839  24.701  14.620  14.528  0.0727  0.1987 -0.1406
 2884DOPC   C3A33840  24.759  14.719  14.066 -0.0433 -0.1243  0.4189
 2884DOPC   C4A33841  24.779  14.813  13.607  0.2312  0.0401 -0.1208
 2884DOPC   C1B33842  24.490  13.751  14.631  0.0405  0.2095 -0.0633
 2884DOPC   D2B33843  24.508  13.630  14.149 -0.0471  0.0380 -0.0320
 2884DOPC   C3B33844  24.764  13.451  13.831 -0.0091  0.2845  0.0195
 2884DOPC   C4B33845  24.997  13.423  13.443  0.0278  0.0716 -0.2098
 2885POSM   NC333846  29.085  11.915  16.371 -0.0416  0.0853  0.2455
 2885POSM   PO433847  29.306  11.669  16.563  0.0501  0.2204 -0.0766
 2885POSM   AM133848  29.470  11.599  16.273 -0.3667 -0.3490 -0.0199
 2885POSM   AM233849  29.351  11.577  16.018 -0.0716  0.1524 -0.0843
 2885POSM   T1A33850  29.781  11.304  16.062  0.0541 -0.1416 -0.3663
 2885POSM   C2A33851  29.723  10.865  15.939 -0.1490  0.0301  0.0399
 2885POSM   C3A33852  29.432  10.474  15.888 -0.0366 -0.1522 -0.1722
 2885POSM   C1B33853  29.513  11.500  15.712 -0.2109 -0.3691 -0.0847
 2885POSM   D2B33854  29.668  11.241  15.367 -0.1133 -0.0359 -0.1230
 2885POSM   C3B33855  29.568  11.367  14.923  0.0142  0.2713  0.2573
 2885POSM   C4B33856  29.499  11.566  14.508 -0.0517 -0.2370 -0.1408
 2886POSM   NC333857  34.313  16.554  16.125 -0.3792 -0.2466  0.0613
 2886POSM   PO433858  34.599  16.793  16.303  0.2103 -0.0023  0.0418
 2886POSM   AM133859  34.535  17.035  16.075  0.0440  0.0233 -0.3148
 2886POSM   AM233860  34.688  17.053  15.854 -0.2076  0.1825  0.3537
 2886POSM   T1A33861  34.220  17.138  15.698  0.0246  0.1040  0.1580
 2886POSM   C2A33862  33.974  16.734  15.536  0.1503 -0.3838  0.0531
 2886POSM   C3A33863  33.747  16.339  15.484  0.1964  0.1955 -0.0208
 2886POSM   C1B33864  34.727  17.187  15.534  0.0131  0.0191  0.1575
 2886POSM   D2B33865  34.875  17.193  15.069 -0.1091 -0.2020 -0.0108
 2886POSM   C3B33866  34.621  17.286  14.692  0.1621  0.0122 -0.0726
 2886POSM   C4B33867  34.294  17.319  14.377 -0.0340  0.1220  0.2309
 2887DOPE   NH333868  32.859  22.530  16.214 -0.1086 -0.1234  0.3047
 2887DOPE   PO433869  32.780  22.217  16.121 -0.0480  0.0648  0.0649
 2887DOPE   GL133870  32.932  22.091  15.758  0.2212 -0.1159  0.3100
 2887DOPE   GL233871  33.127  21.914  15.772  0.1519  0.1668 -0.1150
 2887DOPE   C1A33872  33.280  22.258  15.454  0.0485  0.0461  0.3758
 2887DOPE   D2A33873  33.177  22.140  15.007 -0.1712 -0.0397 -0.2214
 2887DOPE   C3A33874  33.499  22.183  14.646 -0.1281  0.0712  0.0654
 2887DOPE   C4A33875  33.865  22.337  14.431  0.3177  0.3132 -0.1810
 2887DOPE   C1B33876  32.960  21.826  15.345  0.0494 -0.0375  0.3252
 2887DOPE   D2B33877  32.770  21.779  14.930  0.0368  0.0435  0.0285
 2887DOPE   C3B33878  32.402  22.103  14.898  0.3391  0.0660 -0.1370
 2887DOPE   C4B33879  32.032  21.962  14.618 -0.0349 -0.0128 -0.0056
 2888DOPC   NC333880  30.221  21.213  16.684 -0.1792 -0.2181 -0.2600
 2888DOPC   PO433881  29.958  21.445  16.598  0.1002  0.0174 -0.0464
 2888DOPC   GL133882  29.722  21.328  16.242 -0.0707 -0.0659  0.1107
 2888DOPC   GL233883  29.975  21.129  16.215 -0.0477  0.0837 -0.0919
 2888DOPC   C1A33884  29.606  21.361  15.806  0.0754  0.2755 -0.0931
 2888DOPC   D2A33885  29.317  21.135  15.604  0.0965  0.3697 -0.1465
 2888DOPC   C3A33886  29.475  21.216  15.135 -0.1259 -0.1210  0.1096
 2888DOPC   C4A33887  29.588  21.284  14.669  0.0561 -0.0428  0.4349
 2888DOPC   C1B33888  30.277  20.988  15.986  0.0449  0.0046  0.2413
 2888DOPC   D2B33889  30.576  20.841  15.730  0.0405  0.1290 -0.1002
 2888DOPC   C3B33890  30.523  20.805  15.281 -0.1720  0.0981  0.1316
 2888DOPC   C4B33891  30.455  21.003  14.865  0.1106 -0.0735  0.2021
 2889DOPE   NH333892  30.876  19.049  16.838 -0.0639  0.0527  0.0081
 2889DOPE   PO433893  30.907  18.763  16.711  0.1533  0.0050  0.1673
 2889DOPE   GL133894  30.830  18.596  16.352 -0.1062 -0.0131  0.1350
 2889DOPE   GL233895  31.130  18.387  16.317 -0.1388  0.0924 -0.3764
 2889DOPE   C1A33896  30.874  18.488  15.903  0.0414 -0.1017 -0.4049
 2889DOPE   D2A33897  30.530  18.396  15.609  0.1829 -0.0117  0.4567
 2889DOPE   C3A33898  30.154  18.690  15.411 -0.1273  0.0109  0.0070
 2889DOPE   C4A33899  29.709  18.829  15.323 -0.1108 -0.2222 -0.1712
 2889DOPE   C1B33900  30.968  17.946  16.199 -0.0844 -0.0075  0.1667
 2889DOPE   D2B33901  30.823  17.490  16.140 -0.1653  0.1669  0.3306
 2889DOPE   C3B33902  30.377  17.367  16.007  0.1083 -0.0598  0.3053
 2889DOPE   C4B33903  29.924  17.289  16.005  0.1633 -0.1557  0.3103
 2890DOPE   NH333904  33.816  15.020  16.165 -0.1517  0.0647 -0.1896
 2890DOPE   PO433905  33.665  15.168  15.923 -0.2779 -0.0038 -0.0273
 2890DOPE   GL133906  33.619  15.011  15.621 -0.0441 -0.0745 -0.0072
 2890DOPE   GL233907  33.385  15.206  15.440  0.4707 -0.0153  0.0516
 2890DOPE   C1A33908  33.473  14.718  15.316 -0.0395  0.1594  0.0765
 2890DOPE   D2A33909  33.466  14.306  15.116 -0.2051  0.0135  0.1272
 2890DOPE   C3A33910  33.132  14.348  14.793 -0.0822  0.0630 -0.2246
 2890DOPE   C4A33911  32.832  14.016  14.587 -0.0066  0.2321 -0.1926
 2890DOPE   C1B33912  33.420  15.177  14.980  0.2092 -0.0822  0.0252
 2890DOPE   D2B33913  33.159  15.284  14.643 -0.0605 -0.0131 -0.0163
 2890DOPE   C3B33914  33.103  15.734  14.698 -0.0638 -0.0911 -0.0665
 2890DOPE   C4B33915  33.154  16.112  14.418  0.1776  0.1371 -0.1274
 2891DOPE   NH333916  29.325  13.865  16.785 -0.0667 -0.1669 -0.2230
 2891DOPE   PO433917  29.437  14.078  16.620 -0.0041  0.3235 -0.2082
 2891DOPE   GL133918  29.741  14.336  16.470 -0.0927  0.3202  0.0442
 2891DOPE   GL233919  29.518  14.430  16.248 -0.2649 -0.0096 -0.3256
 2891DOPE   C1A33920  29.999  14.184  16.155  0.1588  0.2663 -0.0841
 2891DOPE   D2A33921  29.987  14.092  15.673 -0.3173 -0.1514  0.1080
 2891DOPE   C3A33922  30.016  13.741  15.369 -0.3445  0.1930 -0.2336
 2891DOPE   C4A33923  30.398  13.755  15.041  0.2796 -0.1869 -0.1862
 2891DOPE   C1B33924  29.779  14.530  15.853  0.0837  0.0817  0.0351
 2891DOPE   D2B33925  29.861  14.462  15.401  0.2175  0.0626  0.2174
 2891DOPE   C3B33926  29.599  14.670  15.171 -0.4080  0.1135 -0.0034
 2891DOPE   C4B33927  29.159  14.509  15.076  0.0567 -0.1119  0.1123
 2892DOPS   CNO33928  24.384  16.319  16.223  0.0208  0.3128  0.0855
 2892DOPS   PO433929  24.142  16.493  15.901 -0.1575  0.0325  0.0782
 2892DOPS   GL133930  24.281  16.521  15.503  0.3513  0.1365 -0.1147
 2892DOPS   GL233931  24.330  16.306  15.352 -0.1103 -0.1402  0.0498
 2892DOPS   C1A33932  24.208  16.906  15.329  0.3281  0.1024  0.1446
 2892DOPS   D2A33933  24.283  17.109  14.940  0.3759  0.1622 -0.1419
 2892DOPS   C3A33934  24.677  17.059  14.716  0.1275  0.0031 -0.0322
 2892DOPS   C4A33935  25.062  16.990  14.468 -0.2871  0.3630  0.0692
 2892DOPS   C1B33936  24.467  16.615  14.942  0.0819 -0.0046  0.1151
 2892DOPS   D2B33937  24.363  16.723  14.493 -0.0348 -0.1930  0.0958
 2892DOPS   C3B33938  24.486  17.059  14.204  0.0357  0.0120 -0.0719
 2892DOPS   C4B33939  24.728  17.407  14.318  0.0023 -0.2068 -0.0728
 2893DOPE   NH333940  29.463  18.514  16.761 -0.1864  0.0522 -0.0648
 2893DOPE   PO433941  29.224  18.571  16.541 -0.0304  0.4634  0.0854
 2893DOPE   GL133942  29.380  18.701  16.266 -0.2488 -0.1702 -0.1731
 2893DOPE   GL233943  29.132  18.681  16.065 -0.0771  0.1389 -0.0562
 2893DOPE   C1A33944  29.458  19.145  16.140  0.2718 -0.4189  0.0510
 2893DOPE   D2A33945  29.650  19.311  15.752  0.2705 -0.3956  0.0232
 2893DOPE   C3A33946  29.417  19.353  15.367 -0.0393  0.0431  0.4839
 2893DOPE   C4A33947  29.272  19.271  14.922 -0.1226 -0.1897 -0.0585
 2893DOPE   C1B33948  29.138  18.541  15.587 -0.0739  0.0038 -0.0070
 2893DOPE   D2B33949  29.250  18.715  15.203  0.3321 -0.1897 -0.1943
 2893DOPE   C3B33950  28.881  18.751  14.912 -0.0559 -0.0045 -0.3309
 2893DOPE   C4B33951  28.840  18.558  14.534  0.1694  0.0132  0.0940
 2894DOPE   NH333952  25.706  17.892  16.276 -0.0855  0.1402 -0.0554
 2894DOPE   PO433953  26.023  17.791  16.315 -0.0343  0.4427  0.0075
 2894DOPE   GL133954  26.145  17.882  15.872  0.0203  0.0045 -0.0560
 2894DOPE   GL233955  26.390  17.834  15.967 -0.1488  0.0339 -0.1241
 2894DOPE   C1A33956  26.294  17.845  15.447  0.2306 -0.0733 -0.0296
 2894DOPE   D2A33957  26.582  17.527  15.214 -0.2891  0.1296  0.0089
 2894DOPE   C3A33958  26.879  17.591  14.929 -0.0280  0.2951  0.1561
 2894DOPE   C4A33959  27.338  17.616  14.786 -0.1279 -0.2433  0.5435
 2894DOPE   C1B33960  26.712  17.716  15.713 -0.2195  0.1180 -0.0459
 2894DOPE   D2B33961  27.069  17.577  15.506  0.1793  0.1384  0.0701
 2894DOPE   C3B33962  27.402  17.763  15.289 -0.0574  0.2082 -0.0792
 2894DOPE   C4B33963  27.428  18.177  15.192  0.2286  0.0829 -0.1096
 2895POSM   NC333964  26.536  11.767  15.837 -0.3139  0.2095  0.5443
 2895POSM   PO433965  26.810  11.465  15.965  0.0807  0.0605 -0.0691
 2895POSM   AM133966  26.844  11.468  15.645 -0.1647 -0.0083  0.2119
 2895POSM   AM233967  26.689  11.441  15.421  0.0425 -0.1372 -0.1211
 2895POSM   T1A33968  27.203  11.319  15.322  0.1704 -0.0534 -0.0740
 2895POSM   C2A33969  27.665  11.308  15.364 -0.0579 -0.0693 -0.3522
 2895POSM   C3A33970  28.092  11.515  15.261  0.2460 -0.1183 -0.1755
 2895POSM   C1B33971  26.768  11.734  15.295 -0.3614 -0.0541  0.0094
 2895POSM   D2B33972  26.862  12.148  15.091  0.1430  0.0395  0.1214
 2895POSM   C3B33973  26.958  12.056  14.622 -0.0711 -0.3963 -0.2431
 2895POSM   C4B33974  27.114  11.954  14.162  0.1385  0.2390  0.0116
 2896POSM   NC333975  27.281  15.732  16.269  0.3412  0.2142  0.0722
 2896POSM   PO433976  27.569  15.546  16.461  0.0756 -0.1568 -0.0259
 2896POSM   AM133977  27.736  15.597  16.162 -0.0825  0.2421 -0.1312
 2896POSM   AM233978  27.952  15.448  16.110 -0.0404 -0.0438 -0.1592
 2896POSM   T1A33979  27.850  15.786  15.728 -0.1046 -0.1431  0.0182
 2896POSM   C2A33980  28.167  15.757  15.444 -0.1208  0.1508  0.0658
 2896POSM   C3A33981  28.650  15.670  15.352  0.3107  0.1018  0.0942
 2896POSM   C1B33982  27.856  15.297  15.826 -0.0079  0.1919  0.0994
 2896POSM   D2B33983  27.549  15.022  15.558 -0.2756 -0.2438  0.0312
 2896POSM   C3B33984  27.691  14.747  15.199  0.0388  0.1108  0.0374
 2896POSM   C4B33985  27.923  14.581  14.841  0.0584  0.2075 -0.0302
 2897DOPC   NC333986  28.745  17.993  16.739  0.1682 -0.2428 -0.1763
 2897DOPC   PO433987  29.124  18.037  16.864 -0.1380 -0.1790 -0.0167
 2897DOPC   GL133988  29.073  18.087  16.460 -0.0723 -0.0420  0.0094
 2897DOPC   GL233989  28.887  18.293  16.338  0.1156  0.3035 -0.0185
 2897DOPC   C1A33990  29.022  17.690  16.209  0.1484 -0.0234  0.3897
 2897DOPC   D2A33991  29.243  17.414  15.933 -0.1432  0.3577 -0.2033
 2897DOPC   C3A33992  29.239  17.460  15.464 -0.0126  0.0022 -0.2143
 2897DOPC   C4A33993  29.034  17.611  15.087 -0.1312  0.0140  0.0492
 2897DOPC   C1B33994  28.972  18.133  15.889  0.4048 -0.1324 -0.1296
 2897DOPC   D2B33995  29.222  17.952  15.537 -0.0144  0.4727 -0.3659
 2897DOPC   C3B33996  29.509  18.296  15.305  0.3335 -0.1185  0.0714
 2897DOPC   C4B33997  29.887  18.342  15.599 -0.2816 -0.2436 -0.1221
 2898DOPC   NC333998  27.287  19.805  16.323  0.1574  0.1871 -0.1335
 2898DOPC   PO433999  27.411  20.074  16.097 -0.3023  0.0872 -0.0124
 2898DOPC   GL134000  27.293  20.164  15.714 -0.5054 -0.2284 -0.0552
 2898DOPC   GL234001  27.200  20.450  15.629 -0.0075 -0.0636 -0.3073
 2898DOPC   C1A34002  26.980  19.862  15.542 -0.1150  0.1853  0.3374
 2898DOPC   D2A34003  26.613  19.751  15.276  0.2762  0.0597  0.0707
 2898DOPC   C3A34004  26.384  19.489  15.590 -0.2849  0.0793 -0.2672
 2898DOPC   C4A34005  26.489  19.210  15.886  0.0250  0.3578  0.1438
 2898DOPC   C1B34006  27.172  20.265  15.229  0.1378 -0.1834 -0.0365
 2898DOPC   D2B34007  27.512  20.155  14.961 -0.4470  0.0546  0.1868
 2898DOPC   C3B34008  27.536  20.424  14.550  0.0267  0.3361  0.1705
 2898DOPC   C4B34009  27.795  20.738  14.348  0.1205 -0.1098  0.1524
 2899POSM   NC334010  25.325  21.181  15.658 -0.1380 -0.0543  0.1329
 2899POSM   PO434011  25.614  21.102  15.951 -0.0023  0.2852  0.3635
 2899POSM   AM134012  25.745  21.118  15.646 -0.1894  0.3196  0.0301
 2899POSM   AM234013  26.001  21.036  15.567 -0.2820 -0.1284  0.0829
 2899POSM   T1A34014  25.702  21.263  15.128 -0.0349 -0.3284 -0.0166
 2899POSM   C2A34015  25.602  21.261  14.654 -0.0403 -0.0369  0.0469
 2899POSM   C3A34016  25.400  21.138  14.263 -0.4202  0.2713  0.2183
 2899POSM   C1B34017  26.159  21.135  15.302  0.1113  0.0121  0.1904
 2899POSM   D2B34018  26.549  21.018  15.015 -0.0397  0.3295  0.0518
 2899POSM   C3B34019  26.633  20.994  14.523 -0.2208 -0.1589 -0.0376
 2899POSM   C4B34020  26.686  20.859  14.046 -0.1425 -0.1192  0.1889
 2900DOPC   NC334021  32.976  13.674  16.349 -0.2190  0.1066  0.1527
 2900DOPC   PO434022  32.611  13.729  16.400  0.0779 -0.0182 -0.1210
 2900DOPC   GL134023  32.368  13.915  16.176 -0.1920 -0.0395 -0.0784
 2900DOPC   GL234024  32.415  14.159  16.005  0.0595  0.3688  0.0508
 2900DOPC   C1A34025  31.998  13.940  15.902 -0.2400 -0.1893 -0.2045
 2900DOPC   D2A34026  31.649  13.766  15.632  0.2865 -0.2891  0.1610
 2900DOPC   C3A34027  31.670  13.616  15.173  0.2529  0.0183 -0.0705
 2900DOPC   C4A34028  32.051  13.487  14.935  0.0718 -0.0269  0.2062
 2900DOPC   C1B34029  32.202  14.308  15.658  0.1629 -0.1890 -0.0955
 2900DOPC   D2B34030  31.744  14.293  15.540  0.1103 -0.0762 -0.1890
 2900DOPC   C3B34031  31.632  14.190  15.121  0.2664  0.0932 -0.0545
 2900DOPC   C4B34032  31.546  14.357  14.696 -0.2004 -0.0416 -0.1302
 2901POSM   NC334033  22.717  19.912  14.993 -0.2374 -0.1374  0.0331
 2901POSM   PO434034  22.985  20.047  15.254  0.0361 -0.1135 -0.2211
 2901POSM   AM134035  23.148  19.928  15.012  0.0344 -0.1984  0.0270
 2901POSM   AM234036  23.375  20.040  14.901  0.0653 -0.2711  0.2731
 2901POSM   T1A34037  23.415  19.517  14.826 -0.2001 -0.1102  0.3873
 2901POSM   C2A34038  23.611  19.269  14.476  0.1079 -0.0879  0.1511
 2901POSM   C3A34039  23.913  19.272  14.150  0.1125  0.1697 -0.2205
 2901POSM   C1B34040  23.499  20.016  14.561  0.0904 -0.0636 -0.1057
 2901POSM   D2B34041  23.917  20.108  14.310 -0.0086 -0.1932  0.0748
 2901POSM   C3B34042  24.106  19.756  14.120  0.0050  0.1412 -0.3043
 2901POSM   C4B34043  24.537  19.543  13.979  0.2516 -0.0837 -0.0188
 2902DOPC   NC334044  26.110  16.054  16.568  0.0805  0.0060 -0.1250
 2902DOPC   PO434045  25.792  16.305  16.609  0.1404  0.0484 -0.1226
 2902DOPC   GL134046  25.814  16.221  16.248  0.0945  0.0194 -0.0125
 2902DOPC   GL234047  25.925  15.978  16.083  0.1576 -0.2271  0.2540
 2902DOPC   C1A34048  26.001  16.405  15.816 -0.2803 -0.1233 -0.1560
 2902DOPC   D2A34049  26.077  16.417  15.356 -0.0366 -0.0778 -0.2006
 2902DOPC   C3A34050  26.191  16.803  15.068 -0.3565  0.3884 -0.1841
 2902DOPC   C4A34051  26.368  16.959  14.650 -0.2304  0.1734 -0.0947
 2902DOPC   C1B34052  25.656  15.980  15.780  0.0609 -0.0622  0.2064
 2902DOPC   D2B34053  25.409  15.885  15.366 -0.1215  0.1710  0.1003
 2902DOPC   C3B34054  25.612  16.075  15.029  0.1366  0.1193 -0.0887
 2902DOPC   C4B34055  25.743  15.974  14.607 -0.0550  0.3075  0.1935
 2903POSM   NC334056  25.195  21.816  15.767  0.0790 -0.1619  0.2288
 2903POSM   PO434057  24.863  21.969  15.753 -0.3405  0.2305  0.0950
 2903POSM   AM134058  24.881  22.110  15.422  0.1935  0.1386 -0.2358
 2903POSM   AM234059  24.968  22.401  15.338  0.3040 -0.2368  0.0093
 2903POSM   T1A34060  24.620  22.398  15.043 -0.1566  0.2888  0.0116
 2903POSM   C2A34061  24.392  22.494  14.656  0.0494  0.2089 -0.0380
 2903POSM   C3A34062  23.999  22.472  14.497 -0.0800  0.1569 -0.0364
 2903POSM   C1B34063  25.042  22.580  15.025  0.2402 -0.0577  0.0815
 2903POSM   D2B34064  24.903  22.627  14.589 -0.1133  0.0949 -0.0927
 2903POSM   C3B34065  25.144  22.442  14.290  0.0562  0.2149  0.3829
 2903POSM   C4B34066  25.538  22.215  14.215  0.0931 -0.2876 -0.0399
 2904DOPE   NH334067  25.956  19.152  16.298 -0.3874  0.0349 -0.1068
 2904DOPE   PO434068  26.108  18.844  16.314 -0.0486 -0.3435  0.0769
 2904DOPE   GL134069  26.513  18.725  16.308  0.2314  0.0969  0.0340
 2904DOPE   GL234070  26.609  18.528  16.479 -0.1685 -0.1295 -0.0102
 2904DOPE   C1A34071  26.773  18.705  15.939 -0.0048  0.0314  0.1022
 2904DOPE   D2A34072  26.834  18.631  15.482  0.0858 -0.2345  0.0583
 2904DOPE   C3A34073  27.012  18.475  15.090  0.0941 -0.0727  0.2335
 2904DOPE   C4A34074  27.057  18.092  14.846  0.2386  0.2648 -0.1828
 2904DOPE   C1B34075  26.439  18.323  16.129  0.1572 -0.0307 -0.0370
 2904DOPE   D2B34076  26.563  18.252  15.691  0.1220 -0.0898  0.2826
 2904DOPE   C3B34077  26.435  18.403  15.240  0.1419 -0.1924 -0.1380
 2904DOPE   C4B34078  26.052  18.464  15.034  0.0262  0.0690  0.5075
 2905DOPC   NC334079  33.613  13.444  15.530 -0.4630  0.0443  0.0745
 2905DOPC   PO434080  33.389  13.196  15.748 -0.1039  0.1634  0.1406
 2905DOPC   GL134081  32.997  13.119  15.486  0.2705  0.1586  0.2102
 2905DOPC   GL234082  33.012  13.332  15.504 -0.0425 -0.1666  0.1369
 2905DOPC   C1A34083  32.897  12.948  15.122  0.2821  0.0470 -0.0774
 2905DOPC   D2A34084  32.812  12.881  14.653 -0.0904 -0.1191 -0.1290
 2905DOPC   C3A34085  32.491  12.718  14.342 -0.1505 -0.1803 -0.0020
 2905DOPC   C4A34086  32.193  12.376  14.391  0.0458  0.0431  0.0061
 2905DOPC   C1B34087  33.237  13.505  15.115  0.1738  0.2327  0.1172
 2905DOPC   D2B34088  33.277  13.886  14.863 -0.0443  0.1703 -0.2747
 2905DOPC   C3B34089  33.390  13.971  14.444  0.0417  0.1006  0.2163
 2905DOPC   C4B34090  33.067  13.939  14.108  0.0172 -0.0807  0.0076
 2906DOPC   NC334091  29.117  12.713  16.199  0.0848  0.0298 -0.1520
 2906DOPC   PO434092  29.436  12.838  16.430  0.0137  0.0419 -0.3213
 2906DOPC   GL134093  29.530  12.705  16.019 -0.4237  0.0794  0.0286
 2906DOPC   GL234094  29.721  12.501  16.020 -0.0810 -0.1718  0.2513
 2906DOPC   C1A34095  29.554  12.880  15.561  0.0646  0.1054  0.1266
 2906DOPC   D2A34096  29.434  12.841  15.121  0.0036 -0.1594  0.0015
 2906DOPC   C3A34097  29.246  12.799  14.703 -0.1362 -0.1108  0.1538
 2906DOPC   C4A34098  29.095  13.113  14.414  0.0260 -0.0967 -0.0117
 2906DOPC   C1B34099  29.777  12.265  15.638 -0.0965  0.1307  0.0948
 2906DOPC   D2B34100  29.788  12.020  15.290 -0.1560 -0.2204  0.1568
 2906DOPC   C3B34101  30.118  11.965  14.969  0.0875  0.4714  0.1091
 2906DOPC   C4B34102  30.514  11.719  14.780  0.2434  0.0566 -0.3545
 2907DOPC   NC334103  26.645  16.564  16.481  0.1517 -0.0320  0.0470
 2907DOPC   PO434104  26.518  16.286  16.210 -0.2899  0.0973 -0.1170
 2907DOPC   GL134105  26.564  16.507  15.981 -0.0386  0.2347  0.2172
 2907DOPC   GL234106  26.619  16.340  15.723 -0.1900 -0.1462  0.0726
 2907DOPC   C1A34107  26.881  16.754  15.782 -0.1451 -0.0218 -0.0051
 2907DOPC   D2A34108  27.181  17.074  15.709  0.0406  0.0271 -0.1926
 2907DOPC   C3A34109  27.229  17.208  15.228  0.1473  0.0028 -0.0740
 2907DOPC   C4A34110  27.257  17.075  14.769  0.2419  0.1064  0.0216
 2907DOPC   C1B34111  26.780  16.148  15.278 -0.0345 -0.3327  0.0317
 2907DOPC   D2B34112  26.628  15.894  14.911  0.1430  0.0093  0.0071
 2907DOPC   C3B34113  26.890  15.897  14.525 -0.0160 -0.0853  0.0283
 2907DOPC   C4B34114  27.252  15.999  14.220  0.0499  0.0702  0.1884
 2908DOPC   NC334115  33.672  19.340  16.342 -0.2917 -0.3900  0.0843
 2908DOPC   PO434116  33.400  19.590  16.195  0.0621  0.1163 -0.4234
 2908DOPC   GL134117  33.554  19.641  15.882 -0.0189  0.0962  0.0203
 2908DOPC   GL234118  33.376  19.449  15.679  0.0230  0.0988 -0.0819
 2908DOPC   C1A34119  33.544  19.883  15.473 -0.1300 -0.3112 -0.0115
 2908DOPC   D2A34120  33.490  20.091  15.074 -0.2875  0.0320 -0.0928
 2908DOPC   C3A34121  32.979  20.075  14.995 -0.2656  0.1459  0.1024
 2908DOPC   C4A34122  32.576  20.272  14.968  0.2952  0.2693 -0.0742
 2908DOPC   C1B34123  33.229  19.146  15.351  0.4477 -0.2234 -0.4594
 2908DOPC   D2B34124  32.875  18.869  15.242 -0.0933  0.2135  0.1847
 2908DOPC   C3B34125  32.726  18.998  14.853 -0.0116 -0.1484  0.1437
 2908DOPC   C4B34126  32.401  19.221  14.695  0.0263  0.0840  0.0759
 2909DOPS   CNO34127  29.640  16.980  17.097 -0.1632  0.0706 -0.1006
 2909DOPS   PO434128  29.330  16.880  16.930  0.2573  0.0169 -0.2310
 2909DOPS   GL134129  29.550  16.758  16.642  0.0298  0.1011  0.1881
 2909DOPS   GL234130  29.773  17.031  16.616  0.0229 -0.3147  0.0797
 2909DOPS   C1A34131  29.466  16.537  16.210 -0.0312 -0.1579 -0.2081
 2909DOPS   D2A34132  29.307  16.463  15.757  0.1831 -0.2931 -0.0152
 2909DOPS   C3A34133  29.406  16.734  15.358  0.2102  0.0818  0.0753
 2909DOPS   C4A34134  29.302  16.711  14.923 -0.1374  0.1709 -0.1076
 2909DOPS   C1B34135  29.582  17.002  16.262  0.0382 -0.1874 -0.0872
 2909DOPS   D2B34136  29.679  16.824  15.848  0.0273  0.2776 -0.2469
 2909DOPS   C3B34137  29.625  17.143  15.501  0.0812  0.1025  0.3107
 2909DOPS   C4B34138  29.655  17.463  15.176 -0.2096 -0.4349  0.3367
 2910DOPC   NC334139  29.666  15.537  16.894  0.2696 -0.2651 -0.0747
 2910DOPC   PO434140  29.477  15.196  16.748 -0.0227  0.2363  0.1955
 2910DOPC   GL134141  29.715  15.117  16.373 -0.2192  0.1947 -0.0242
 2910DOPC   GL234142  29.910  15.231  16.553  0.1545 -0.1479  0.0420
 2910DOPC   C1A34143  29.955  15.213  15.973  0.0314 -0.0347  0.0845
 2910DOPC   D2A34144  30.244  15.386  15.606 -0.0646  0.2799  0.1292
 2910DOPC   C3A34145  30.294  15.799  15.477 -0.2262 -0.0170 -0.1447
 2910DOPC   C4A34146  30.247  16.223  15.277 -0.2432  0.0810  0.2578
 2910DOPC   C1B34147  29.755  15.608  16.403  0.1538 -0.2736  0.0500
 2910DOPC   D2B34148  29.661  16.024  16.236  0.4114 -0.2071 -0.0748
 2910DOPC   C3B34149  29.805  16.353  15.953  0.0623  0.1700 -0.1353
 2910DOPC   C4B34150  30.203  16.386  15.750  0.0283 -0.1991  0.2329
 2911DOPS   CNO34151  30.845  19.803  16.554 -0.0422 -0.1077 -0.0265
 2911DOPS   PO434152  30.971  19.439  16.555 -0.0395 -0.0582 -0.0336
 2911DOPS   GL134153  30.830  19.554  16.200 -0.3498 -0.2029  0.2562
 2911DOPS   GL234154  30.637  19.352  16.144 -0.2341 -0.2563  0.1600
 2911DOPS   C1A34155  30.825  19.579  15.772 -0.1478  0.3658  0.0251
 2911DOPS   D2A34156  31.021  19.270  15.512 -0.0775  0.0500 -0.0750
 2911DOPS   C3A34157  31.082  19.181  15.051 -0.1294 -0.0831  0.0614
 2911DOPS   C4A34158  30.880  19.188  14.689 -0.1121  0.1873  0.2682
 2911DOPS   C1B34159  30.349  19.342  15.788 -0.1253  0.1574 -0.1535
 2911DOPS   D2B34160  30.093  19.244  15.475 -0.4022 -0.0628 -0.0848
 2911DOPS   C3B34161  29.968  19.511  15.105 -0.1546  0.2132 -0.0307
 2911DOPS   C4B34162  30.116  19.903  14.871 -0.0733  0.2523  0.2437
 2912POSM   NC334163  34.602  12.856  16.157 -0.0868 -0.1728 -0.1555
 2912POSM   PO434164  34.961  12.681  16.095  0.0638 -0.2271 -0.0303
 2912POSM   AM134165  35.097  12.478  15.881 -0.5242  0.4980 -0.1542
 2912POSM   AM234166  35.016  12.220  15.710  0.0248 -0.0343 -0.0979
 2912POSM   T1A34167  35.273  12.489  15.389  0.0187 -0.0251 -0.3665
 2912POSM   C2A34168  35.158  12.303  14.934 -0.0231  0.1512  0.3928
 2912POSM   C3A34169  35.053  11.993  14.597  0.1484 -0.2694 -0.0912
 2912POSM   C1B34170  35.143  12.003  15.407 -0.0443  0.1720 -0.1633
 2912POSM   D2B34171  35.115  11.670  15.097  0.0940  0.3016  0.0416
 2912POSM   C3B34172  35.433  11.735  14.770  0.4092  0.2549  0.4425
 2912POSM   C4B34173  35.634  11.660  14.333  0.0089 -0.1356  0.1301
 2913DOPS   CNO34174  27.372  16.985  16.303 -0.0617 -0.2114  0.0366
 2913DOPS   PO434175  27.585  16.663  16.385  0.1145  0.1619  0.3245
 2913DOPS   GL134176  27.489  16.703  15.941 -0.0992  0.0250 -0.0874
 2913DOPS   GL234177  27.799  16.559  15.873 -0.1520 -0.1556 -0.2719
 2913DOPS   C1A34178  27.296  16.478  15.603  0.1714  0.0462  0.0385
 2913DOPS   D2A34179  27.227  16.399  15.174  0.0401  0.1228 -0.0798
 2913DOPS   C3A34180  27.102  16.615  14.816 -0.0653 -0.2301 -0.1401
 2913DOPS   C4A34181  26.848  16.808  14.495 -0.0135  0.2798 -0.0725
 2913DOPS   C1B34182  27.732  16.737  15.399 -0.0009 -0.3539  0.2130
 2913DOPS   D2B34183  27.635  16.663  14.961  0.0275  0.2834 -0.1729
 2913DOPS   C3B34184  27.920  16.843  14.691  0.1184  0.1846  0.0736
 2913DOPS   C4B34185  28.328  17.024  14.616  0.0569  0.1427 -0.0144
 2914DOPS   CNO34186  24.643  14.515  15.272 -0.0311  0.1347  0.2167
 2914DOPS   PO434187  24.318  14.577  15.397 -0.1808 -0.2387 -0.1230
 2914DOPS   GL134188  24.376  14.653  14.915 -0.0328  0.1133  0.3268
 2914DOPS   GL234189  24.110  14.743  14.815  0.0631 -0.1047 -0.2738
 2914DOPS   C1A34190  24.221  14.367  14.546  0.2497  0.0656  0.1009
 2914DOPS   D2A34191  24.055  14.454  14.116 -0.4388 -0.1202  0.0516
 2914DOPS   C3A34192  23.759  14.227  13.896 -0.0541 -0.2804  0.0979
 2914DOPS   C4A34193  23.409  13.972  13.783  0.2948 -0.1808 -0.4209
 2914DOPS   C1B34194  24.220  14.850  14.373  0.1923 -0.4552  0.2366
 2914DOPS   D2B34195  24.315  14.970  13.943 -0.2715  0.0013 -0.0426
 2914DOPS   C3B34196  24.385  14.559  13.731 -0.0412  0.1766  0.0739
 2914DOPS   C4B34197  24.645  14.224  13.628  0.0939  0.2455  0.1458
 2915DOPE   NH334198  27.062  16.413  16.119 -0.1883 -0.0806 -0.3278
 2915DOPE   PO434199  26.989  16.167  16.310  0.2705  0.1455 -0.2528
 2915DOPE   GL134200  26.852  15.891  16.039 -0.1372 -0.1677 -0.0939
 2915DOPE   GL234201  26.635  15.764  16.109 -0.1528 -0.1502  0.0541
 2915DOPE   C1A34202  26.587  15.831  15.628 -0.0460  0.1802 -0.0300
 2915DOPE   D2A34203  26.163  15.885  15.451  0.0315  0.2649 -0.1497
 2915DOPE   C3A34204  26.124  16.069  14.995  0.0747  0.2396  0.0734
 2915DOPE   C4A34205  26.254  15.921  14.598 -0.1017 -0.2357  0.1071
 2915DOPE   C1B34206  26.306  15.483  15.813 -0.5290  0.0005  0.0254
 2915DOPE   D2B34207  25.900  15.524  15.625  0.2294  0.2473  0.1630
 2915DOPE   C3B34208  25.565  15.394  15.290  0.2458  0.2093 -0.2519
 2915DOPE   C4B34209  25.449  15.609  14.886  0.3387 -0.1270 -0.2249
 2916DOPE   NH334210  32.609  12.326  15.973  0.2378  0.0270 -0.1667
 2916DOPE   PO434211  32.561  12.670  16.047 -0.0795 -0.1946 -0.2288
 2916DOPE   GL134212  32.495  12.861  15.781 -0.0258  0.1500  0.0940
 2916DOPE   GL234213  32.581  13.115  15.607 -0.1219  0.0405  0.0904
 2916DOPE   C1A34214  32.531  12.711  15.298 -0.0571 -0.2251 -0.0157
 2916DOPE   D2A34215  32.557  12.508  14.831  0.0931 -0.0795 -0.0429
 2916DOPE   C3A34216  32.142  12.653  14.811 -0.1271  0.1112  0.2565
 2916DOPE   C4A34217  32.096  13.054  14.550  0.0659  0.0061  0.5102
 2916DOPE   C1B34218  32.596  13.478  15.293  0.0249 -0.3737 -0.0720
 2916DOPE   D2B34219  32.804  13.409  14.901 -0.1720 -0.1383  0.1953
 2916DOPE   C3B34220  32.577  13.345  14.575  0.0470  0.1206 -0.0199
 2916DOPE   C4B34221  32.716  13.165  14.161  0.1614 -0.0619 -0.4922
 2917DOPE   NH334222  30.831  21.494  16.568  0.2608  0.2014 -0.0785
 2917DOPE   PO434223  30.780  21.171  16.550 -0.1802 -0.0806 -0.1805
 2917DOPE   GL134224  30.531  21.273  16.199  0.1960 -0.0510  0.1835
 2917DOPE   GL234225  30.355  21.484  16.265 -0.2153 -0.1652  0.0343
 2917DOPE   C1A34226  30.556  21.338  15.733 -0.0779 -0.2714  0.1072
 2917DOPE   D2A34227  30.827  21.363  15.376 -0.0735  0.0282 -0.2163
 2917DOPE   C3A34228  30.720  21.454  14.977  0.1056  0.2048 -0.1622
 2917DOPE   C4A34229  30.369  21.498  14.634 -0.3745  0.0617  0.0445
 2917DOPE   C1B34230  30.107  21.500  15.858  0.4997  0.2298 -0.0521
 2917DOPE   D2B34231  29.954  21.676  15.466 -0.1367  0.2064  0.0657
 2917DOPE   C3B34232  29.910  21.434  15.101 -0.1135 -0.0796 -0.0684
 2917DOPE   C4B34233  29.901  21.002  15.059  0.0456  0.1278  0.3381
 2918DOPC   NC334234  27.406  19.188  16.940 -0.0241 -0.0959  0.3640
 2918DOPC   PO434235  27.728  19.196  16.670 -0.1851 -0.1566 -0.1972
 2918DOPC   GL134236  27.478  18.859  16.571  0.1696 -0.2897 -0.0700
 2918DOPC   GL234237  27.637  18.697  16.388  0.0089 -0.3908 -0.0165
 2918DOPC   C1A34238  27.116  18.742  16.306  0.1307 -0.0039  0.1477
 2918DOPC   D2A34239  26.940  18.304  16.090  0.0779 -0.0183 -0.1957
 2918DOPC   C3A34240  27.096  17.837  15.950 -0.0952 -0.2777 -0.0150
 2918DOPC   C4A34241  27.495  17.526  15.769 -0.0404  0.0157  0.2332
 2918DOPC   C1B34242  27.497  18.582  15.943  0.0152  0.2146  0.0399
 2918DOPC   D2B34243  27.344  18.498  15.522 -0.0060 -0.1398 -0.3636
 2918DOPC   C3B34244  27.723  18.766  15.441  0.4371 -0.1106  0.0647
 2918DOPC   C4B34245  27.935  18.989  15.112 -0.1050  0.3229 -0.0014
 2919DOPC   NC334246  34.002  15.720  16.391 -0.3079  0.0520  0.0410
 2919DOPC   PO434247  33.694  15.584  16.236  0.0108 -0.0489 -0.0909
 2919DOPC   GL134248  34.034  15.629  15.931 -0.3820 -0.0222  0.0661
 2919DOPC   GL234249  34.025  15.388  15.719 -0.0725  0.3303 -0.1952
 2919DOPC   C1A34250  34.014  15.812  15.497 -0.0786  0.1603  0.2050
 2919DOPC   D2A34251  33.856  16.016  15.125 -0.2197  0.0745 -0.4615
 2919DOPC   C3A34252  33.712  15.698  14.808  0.1349  0.0628  0.0773
 2919DOPC   C4A34253  33.469  15.543  14.423 -0.0366  0.0111 -0.0084
 2919DOPC   C1B34254  34.340  15.361  15.361  0.0832  0.0230 -0.0916
 2919DOPC   D2B34255  34.753  15.524  15.179 -0.1701  0.3345 -0.1550
 2919DOPC   C3B34256  35.094  15.268  14.985 -0.0188  0.2088 -0.0782
 2919DOPC   C4B34257  35.515  15.176  14.830  0.1188 -0.0123  0.2418
 2920POSM   NC334258  25.783  16.701  16.286  0.1953  0.2253  0.0432
 2920POSM   PO434259  26.150  16.628  16.402 -0.0348 -0.0953 -0.0972
 2920POSM   AM134260  26.304  16.799  16.179  0.1899 -0.0741 -0.0494
 2920POSM   AM234261  26.198  16.863  15.919  0.1518  0.2611 -0.3834
 2920POSM   T1A34262  26.624  17.164  16.078 -0.0010  0.3653  0.0107
 2920POSM   C2A34263  27.050  17.352  16.092 -0.2015 -0.0851 -0.0648
 2920POSM   C3A34264  27.423  17.543  16.289  0.1821  0.3042 -0.1501
 2920POSM   C1B34265  26.343  16.780  15.616 -0.2779  0.0928 -0.0807
 2920POSM   D2B34266  26.641  16.649  15.285  0.0774  0.0308 -0.2116
 2920POSM   C3B34267  26.551  16.518  14.837  0.2592 -0.2385 -0.2629
 2920POSM   C4B34268  26.238  16.423  14.552 -0.1067  0.3229 -0.0880
 2921POSM   NC334269  24.534  21.525  15.862  0.3649 -0.1744 -0.1498
 2921POSM   PO434270  24.895  21.432  15.851 -0.1073 -0.2948  0.1045
 2921POSM   AM134271  24.914  21.472  15.490  0.3204 -0.2975  0.2279
 2921POSM   AM234272  24.942  21.685  15.320  0.2931 -0.2463  0.0012
 2921POSM   T1A34273  25.164  21.249  15.133 -0.0451 -0.0635 -0.0337
 2921POSM   C2A34274  25.333  20.916  14.896 -0.3471  0.0032 -0.0198
 2921POSM   C3A34275  25.635  20.771  14.583  0.2865 -0.0767 -0.1176
 2921POSM   C1B34276  24.969  21.914  15.059 -0.1039  0.0853  0.2448
 2921POSM   D2B34277  24.989  22.116  14.659  0.0516  0.1225  0.0729
 2921POSM   C3B34278  25.137  21.942  14.235  0.0889  0.2533  0.0643
 2921POSM   C4B34279  25.099  21.564  13.989 -0.0538 -0.0313  0.1497
 2922DOPE   NH334280  25.521  14.895  15.964 -0.1328 -0.2686 -0.2592
 2922DOPE   PO434281  25.216  14.835  15.858  0.1684  0.0062 -0.5232
 2922DOPE   GL134282  25.517  14.654  15.520  0.1328  0.0112  0.0278
 2922DOPE   GL234283  25.512  14.883  15.439  0.0082  0.2282  0.2688
 2922DOPE   C1A34284  25.713  14.590  15.040 -0.1632  0.0234  0.1001
 2922DOPE   D2A34285  26.085  14.408  14.783 -0.0357 -0.0166 -0.1067
 2922DOPE   C3A34286  26.508  14.530  14.739 -0.0920 -0.3039 -0.0037
 2922DOPE   C4A34287  26.717  14.822  14.415 -0.2380  0.2070  0.0918
 2922DOPE   C1B34288  25.965  15.035  15.221  0.3497  0.2317 -0.0707
 2922DOPE   D2B34289  26.062  14.949  14.788  0.0944 -0.1968 -0.2692
 2922DOPE   C3B34290  25.904  14.849  14.379  0.1195 -0.1411  0.0829
 2922DOPE   C4B34291  26.198  14.589  14.093 -0.0430  0.0791 -0.0038
 2923DOPE   NH334292  23.811  15.137  15.679  0.1382  0.1665  0.0821
 2923DOPE   PO434293  24.057  14.940  15.623 -0.1463  0.2133  0.1728
 2923DOPE   GL134294  24.272  15.141  15.410  0.3350 -0.1139 -0.1061
 2923DOPE   GL234295  24.286  15.051  15.158  0.2967  0.1725  0.3332
 2923DOPE   C1A34296  24.617  15.388  15.502  0.1384  0.2042 -0.0397
 2923DOPE   D2A34297  25.028  15.509  15.369  0.4765 -0.0450 -0.0801
 2923DOPE   C3A34298  24.993  15.755  15.005  0.1423  0.1055 -0.0462
 2923DOPE   C4A34299  25.243  16.005  14.696  0.2965 -0.1396  0.4720
 2923DOPE   C1B34300  24.653  15.058  14.998  0.0141  0.1885 -0.1525
 2923DOPE   D2B34301  25.036  15.219  14.906 -0.1221  0.0027  0.1563
 2923DOPE   C3B34302  25.124  15.405  14.532 -0.0117  0.0920  0.0940
 2923DOPE   C4B34303  24.874  15.657  14.186 -0.0191 -0.0396 -0.0337
 2924DOPE   NH334304  29.162  23.154  16.622 -0.0669  0.0140  0.0568
 2924DOPE   PO434305  28.852  23.270  16.554 -0.0709 -0.2387  0.2868
 2924DOPE   GL134306  28.788  23.330  16.219 -0.1432  0.3782 -0.3351
 2924DOPE   GL234307  28.467  23.434  16.233 -0.1625 -0.2057 -0.0946
 2924DOPE   C1A34308  28.792  23.552  15.858 -0.0734 -0.1826  0.0001
 2924DOPE   D2A34309  28.690  23.706  15.451  0.1938  0.0280 -0.0091
 2924DOPE   C3A34310  28.918  23.883  15.138  0.2416 -0.2431 -0.1661
 2924DOPE   C4A34311  28.858  24.139  14.732  0.2752 -0.0604 -0.0067
 2924DOPE   C1B34312  28.307  23.391  15.839 -0.0974  0.0122 -0.1200
 2924DOPE   D2B34313  28.169  23.572  15.463 -0.1151  0.1391  0.1074
 2924DOPE   C3B34314  28.017  23.880  15.163 -0.2420 -0.2618 -0.3287
 2924DOPE   C4B34315  27.960  24.158  14.784 -0.1817  0.2406 -0.0248
 2925DOPC   NC334316  23.452  12.992  15.713  0.1205 -0.1005 -0.0572
 2925DOPC   PO434317  23.526  12.646  15.550  0.0789 -0.1415  0.0277
 2925DOPC   GL134318  23.476  12.539  15.225  0.4417 -0.2530  0.1050
 2925DOPC   GL234319  23.372  12.303  15.207  0.0306  0.3409 -0.0963
 2925DOPC   C1A34320  23.503  12.705  14.769  0.1624 -0.1757  0.0054
 2925DOPC   D2A34321  23.560  12.837  14.328  0.3525 -0.1936 -0.0356
 2925DOPC   C3A34322  23.711  13.126  13.995  0.1252  0.2166 -0.0808
 2925DOPC   C4A34323  23.565  13.261  13.604 -0.3489  0.0609  0.0168
 2925DOPC   C1B34324  23.602  12.223  14.832  0.0395  0.0034  0.3512
 2925DOPC   D2B34325  23.804  11.956  14.457 -0.3581  0.1476 -0.3521
 2925DOPC   C3B34326  23.452  11.863  14.235  0.1871 -0.0453  0.0243
 2925DOPC   C4B34327  23.105  12.063  13.967 -0.2306  0.0243  0.0207
 2926DOPC   NC334328  23.523  17.621  15.525  0.1311 -0.1106 -0.0267
 2926DOPC   PO434329  23.561  17.456  15.900  0.2042  0.1735  0.0028
 2926DOPC   GL134330  23.812  17.286  15.664  0.1126  0.3085 -0.0639
 2926DOPC   GL234331  24.123  17.367  15.711 -0.1629  0.0618  0.1195
 2926DOPC   C1A34332  23.807  17.244  15.176 -0.1230 -0.0652 -0.1810
 2926DOPC   D2A34333  23.817  17.135  14.736 -0.0044  0.0974 -0.0235
 2926DOPC   C3A34334  23.994  17.066  14.360  0.2209  0.1674  0.0336
 2926DOPC   C4A34335  23.881  17.410  14.039 -0.0445 -0.1670 -0.0820
 2926DOPC   C1B34336  24.026  17.649  15.321 -0.0855  0.1720 -0.1207
 2926DOPC   D2B34337  24.076  17.569  14.854 -0.0940  0.1503 -0.0681
 2926DOPC   C3B34338  24.247  17.484  14.399 -0.0523  0.2370  0.0399
 2926DOPC   C4B34339  24.352  17.471  13.927 -0.0179  0.2359  0.0692
 2927POSM   NC334340  28.296  13.256  16.671 -0.2100 -0.1181 -0.1846
 2927POSM   PO434341  28.360  13.297  16.299 -0.0835  0.3681  0.0954
 2927POSM   AM134342  28.229  13.467  16.039 -0.0806 -0.2312  0.0335
 2927POSM   AM234343  28.350  13.455  15.810  0.2124  0.0336  0.3551
 2927POSM   T1A34344  27.873  13.448  15.688 -0.0653  0.2597  0.0845
 2927POSM   C2A34345  27.747  13.549  15.258 -0.3403  0.0273 -0.1225
 2927POSM   C3A34346  27.319  13.400  15.026 -0.1446 -0.1728 -0.2189
 2927POSM   C1B34347  28.281  13.552  15.472 -0.1424  0.0732  0.2053
 2927POSM   D2B34348  28.182  13.475  14.981  0.1803  0.1363 -0.0681
 2927POSM   C3B34349  28.295  13.787  14.691 -0.0195  0.0651  0.1842
 2927POSM   C4B34350  28.378  14.245  14.561 -0.2087 -0.2066  0.3204
 2928DOPC   NC334351  25.534  21.902  16.168 -0.0603  0.0611 -0.0785
 2928DOPC   PO434352  25.359  22.186  15.986  0.0874  0.0559  0.2108
 2928DOPC   GL134353  25.727  22.282  15.788 -0.0187  0.4503 -0.2782
 2928DOPC   GL234354  25.828  22.058  15.655  0.0033  0.0382  0.0434
 2928DOPC   C1A34355  25.594  22.561  15.387  0.1585  0.1807  0.2476
 2928DOPC   D2A34356  25.597  22.848  15.022 -0.2286  0.0468 -0.1290
 2928DOPC   C3A34357  25.876  23.119  15.094  0.2215 -0.1310 -0.2735
 2928DOPC   C4A34358  26.026  23.538  15.178  0.2804 -0.1643  0.0517
 2928DOPC   C1B34359  25.822  22.002  15.217 -0.1313 -0.0200 -0.0630
 2928DOPC   D2B34360  26.059  21.640  14.952 -0.0310  0.2130  0.2462
 2928DOPC   C3B34361  25.995  21.535  14.513 -0.0047 -0.1717 -0.0552
 2928DOPC   C4B34362  26.268  21.252  14.265 -0.2297  0.0663  0.2588
 2929DOPE   NH334363  31.456  13.566  16.288  0.4598  0.1242 -0.0444
 2929DOPE   PO434364  31.606  13.255  16.303 -0.2349 -0.0843 -0.0833
 2929DOPE   GL134365  31.718  13.102  16.026  0.0526  0.1990 -0.3457
 2929DOPE   GL234366  31.683  13.319  15.783 -0.4583  0.1120 -0.0337
 2929DOPE   C1A34367  31.656  12.834  15.619  0.1313 -0.0986 -0.0996
 2929DOPE   D2A34368  31.817  12.691  15.199 -0.0518 -0.0530  0.0203
 2929DOPE   C3A34369  31.698  12.854  14.796  0.0968 -0.2093 -0.1341
 2929DOPE   C4A34370  31.631  12.895  14.353  0.1434  0.1315  0.0741
 2929DOPE   C1B34371  31.364  13.212  15.507  0.2308  0.2286  0.1052
 2929DOPE   D2B34372  31.031  13.038  15.231 -0.0889 -0.1662 -0.1551
 2929DOPE   C3B34373  31.189  13.124  14.867  0.2289  0.0352  0.1648
 2929DOPE   C4B34374  31.251  13.230  14.448  0.1053  0.0350  0.1930
 2930DOPC   NC334375  24.975  18.284  15.994 -0.3067 -0.2740 -0.1026
 2930DOPC   PO434376  25.350  18.273  16.168 -0.3227 -0.3831  0.3816
 2930DOPC   GL134377  25.388  18.203  15.784  0.0193  0.1136 -0.0159
 2930DOPC   GL234378  25.647  18.091  15.813 -0.1662 -0.0659  0.0907
 2930DOPC   C1A34379  24.999  18.171  15.519  0.1065  0.2552  0.0526
 2930DOPC   D2A34380  24.869  18.145  15.044  0.2334 -0.1859 -0.3069
 2930DOPC   C3A34381  24.744  18.298  14.667  0.0125  0.2177 -0.0582
 2930DOPC   C4A34382  24.519  18.601  14.367 -0.0827  0.0124  0.0376
 2930DOPC   C1B34383  26.019  18.283  15.691  0.3406 -0.2571 -0.1550
 2930DOPC   D2B34384  26.268  18.672  15.785  0.4404 -0.0774  0.2036
 2930DOPC   C3B34385  26.413  18.882  15.423  0.1917  0.0302 -0.3201
 2930DOPC   C4B34386  26.415  18.875  14.964  0.0750 -0.1971  0.3429
 2931DOPE   NH334387  23.281  20.475  15.210 -0.0390 -0.0180 -0.0380
 2931DOPE   PO434388  22.993  20.657  15.237 -0.0466  0.5509  0.2958
 2931DOPE   GL134389  23.079  20.781  14.855 -0.0004 -0.2705  0.1430
 2931DOPE   GL234390  23.336  20.937  14.813 -0.0552 -0.0862  0.1705
 2931DOPE   C1A34391  22.986  20.892  14.415  0.3861 -0.0041 -0.0235
 2931DOPE   D2A34392  23.275  20.861  13.970  0.0824  0.1095  0.1070
 2931DOPE   C3A34393  23.653  20.753  13.815 -0.1562  0.0995  0.2633
 2931DOPE   C4A34394  24.064  20.619  13.569 -0.1638  0.0058 -0.1202
 2931DOPE   C1B34395  23.595  21.002  14.429  0.4282 -0.2868 -0.0521
 2931DOPE   D2B34396  23.989  21.170  14.244  0.2145 -0.1469  0.0266
 2931DOPE   C3B34397  24.293  20.975  13.952  0.2946 -0.2458  0.1453
 2931DOPE   C4B34398  24.563  20.971  13.644 -0.1206  0.1794  0.5418
 2932DOPE   NH334399  33.186  12.041  16.228 -0.0671 -0.1081  0.1326
 2932DOPE   PO434400  32.975  12.026  15.991  0.1989  0.0591  0.2264
 2932DOPE   GL134401  32.898  12.247  15.638  0.1657  0.0730 -0.0667
 2932DOPE   GL234402  32.578  12.253  15.499  0.2321 -0.0606  0.1300
 2932DOPE   C1A34403  32.900  12.449  15.187 -0.1748  0.1336 -0.0103
 2932DOPE   D2A34404  32.922  12.240  14.759  0.0848  0.3118 -0.0349
 2932DOPE   C3A34405  32.930  12.412  14.366 -0.2860  0.1972  0.3481
 2932DOPE   C4A34406  32.793  12.636  13.970 -0.0783  0.0204 -0.1582
 2932DOPE   C1B34407  32.563  12.014  15.136  0.2202 -0.0309 -0.0791
 2932DOPE   D2B34408  32.435  12.039  14.660  0.3792 -0.3459  0.1876
 2932DOPE   C3B34409  32.743  11.695  14.531 -0.0177 -0.0390 -0.0139
 2932DOPE   C4B34410  32.945  11.388  14.198  0.1790  0.0904  0.1746
 2933DOPC   NC334411  26.220  13.847  15.724 -0.2418  0.2191  0.1962
 2933DOPC   PO434412  26.214  14.249  15.827  0.4101 -0.1535 -0.1442
 2933DOPC   GL134413  26.220  14.259  15.487 -0.2591  0.1645 -0.6041
 2933DOPC   GL234414  25.960  14.500  15.433  0.1939  0.1464 -0.0687
 2933DOPC   C1A34415  26.356  14.173  15.091  0.0900  0.1050  0.4952
 2933DOPC   D2A34416  26.415  13.918  14.750  0.0121  0.3400  0.2901
 2933DOPC   C3A34417  26.492  14.175  14.376 -0.1960 -0.0322 -0.1230
 2933DOPC   C4A34418  26.449  14.164  13.896 -0.5535  0.1705  0.2397
 2933DOPC   C1B34419  26.331  14.692  15.238 -0.0236 -0.0012 -0.0942
 2933DOPC   D2B34420  26.577  14.963  14.972 -0.0123  0.0528  0.6173
 2933DOPC   C3B34421  26.425  15.296  14.755 -0.0916 -0.0606  0.0296
 2933DOPC   C4B34422  26.543  15.528  14.379 -0.0007  0.1233 -0.2822
 2934DOPC   NC334423  27.880  16.166  16.331 -0.1961  0.0543  0.1839
 2934DOPC   PO434424  27.527  16.162  16.138 -0.1649 -0.0921 -0.0276
 2934DOPC   GL134425  27.429  15.932  15.854 -0.1409 -0.0168 -0.0522
 2934DOPC   GL234426  27.173  16.047  15.771  0.1554  0.2010  0.0487
 2934DOPC   C1A34427  27.519  15.973  15.416 -0.1848  0.2159  0.1511
 2934DOPC   D2A34428  27.723  16.155  15.015  0.2771 -0.1655 -0.1718
 2934DOPC   C3A34429  27.666  16.296  14.545 -0.0516 -0.1242 -0.1317
 2934DOPC   C4A34430  27.603  16.639  14.314 -0.1279  0.2091  0.3357
 2934DOPC   C1B34431  27.034  15.735  15.479 -0.3469  0.1263  0.0108
 2934DOPC   D2B34432  26.755  15.537  15.192 -0.2430  0.0243 -0.1487
 2934DOPC   C3B34433  26.916  15.489  14.753 -0.4599  0.0388  0.1082
 2934DOPC   C4B34434  27.128  15.502  14.305 -0.1062 -0.0937 -0.0105
 2935DOPC   NC334435  34.060  20.968  16.038  0.0868 -0.2725 -0.1205
 2935DOPC   PO434436  34.267  20.711  16.266  0.1008  0.4970  0.0546
 2935DOPC   GL134437  34.350  20.692  15.814  0.1440 -0.1370  0.0890
 2935DOPC   GL234438  34.604  20.547  15.874  0.0703 -0.2284  0.1426
 2935DOPC   C1A34439  34.356  20.297  15.506  0.1581 -0.0785 -0.0499
 2935DOPC   D2A34440  34.121  20.148  15.113 -0.0554  0.0388 -0.1004
 2935DOPC   C3A34441  33.896  19.759  15.024  0.2160  0.2281 -0.1348
 2935DOPC   C4A34442  33.596  19.415  14.926  0.2018 -0.1012 -0.0979
 2935DOPC   C1B34443  34.792  20.554  15.507  0.0023  0.1574  0.0970
 2935DOPC   D2B34444  34.760  20.519  15.023  0.1810  0.2226 -0.2926
 2935DOPC   C3B34445  34.368  20.689  14.924  0.4371  0.2556 -0.0156
 2935DOPC   C4B34446  33.941  20.592  14.820  0.1691 -0.2140  0.2896
 2936DOPC   NC334447  23.182  13.111  14.944 -0.1191  0.3559  0.1616
 2936DOPC   PO434448  23.177  12.948  15.273  0.0809 -0.2887  0.0890
 2936DOPC   GL134449  23.115  12.605  14.986  0.2475  0.2385  0.1652
 2936DOPC   GL234450  22.817  12.506  15.022  0.1950  0.0572  0.0135
 2936DOPC   C1A34451  23.196  12.403  14.507 -0.0460 -0.3303  0.2451
 2936DOPC   D2A34452  23.586  12.401  14.154 -0.1843  0.2567  0.1971
 2936DOPC   C3A34453  23.571  12.613  13.737  0.0095  0.1014 -0.2529
 2936DOPC   C4A34454  23.456  12.679  13.254 -0.2396  0.1527 -0.0627
 2936DOPC   C1B34455  22.563  12.493  14.651  0.1036  0.0271 -0.1135
 2936DOPC   D2B34456  22.703  12.384  14.241 -0.0374 -0.0653  0.1511
 2936DOPC   C3B34457  22.594  12.584  13.862 -0.2622  0.2992  0.0707
 2936DOPC   C4B34458  22.572  12.912  13.456  0.1420 -0.0091  0.1687
 2937DOPC   NC334459  28.559  15.324  16.654  0.0600  0.3294 -0.1331
 2937DOPC   PO434460  28.672  15.639  16.436 -0.3037 -0.2313 -0.1408
 2937DOPC   GL134461  28.770  15.377  16.095 -0.1921 -0.0918  0.1398
 2937DOPC   GL234462  28.807  15.113  16.233 -0.0487  0.1073  0.1829
 2937DOPC   C1A34463  28.963  15.142  15.701  0.0434 -0.0008  0.3207
 2937DOPC   D2A34464  29.104  14.829  15.458  0.0180  0.4097 -0.0415
 2937DOPC   C3A34465  29.553  14.896  15.646  0.2055 -0.3452  0.0255
 2937DOPC   C4A34466  30.011  14.950  15.568 -0.1911  0.0933  0.1127
 2937DOPC   C1B34467  28.562  14.883  15.948 -0.1408 -0.0845 -0.1178
 2937DOPC   D2B34468  28.586  14.580  15.543 -0.1214 -0.2136  0.0784
 2937DOPC   C3B34469  28.708  14.649  15.142 -0.1094 -0.1285  0.0710
 2937DOPC   C4B34470  28.884  14.906  14.802  0.0145 -0.0340 -0.2176
 2938DOPE   NH334471  33.000  17.993  16.158 -0.0090  0.0171 -0.0976
 2938DOPE   PO434472  32.978  18.225  16.409 -0.2300  0.1758  0.0496
 2938DOPE   GL134473  33.148  18.433  16.116 -0.4984 -0.0610  0.2756
 2938DOPE   GL234474  32.933  18.398  15.890 -0.1971 -0.0525  0.2661
 2938DOPE   C1A34475  33.500  18.450  15.763 -0.0681 -0.0186  0.4716
 2938DOPE   D2A34476  33.829  18.502  15.395 -0.2540 -0.0078  0.0078
 2938DOPE   C3A34477  33.776  18.474  14.943 -0.0685 -0.1921  0.1029
 2938DOPE   C4A34478  33.510  18.615  14.670  0.1396 -0.4475 -0.1523
 2938DOPE   C1B34479  32.600  18.531  15.552  0.1389  0.0267 -0.0544
 2938DOPE   D2B34480  32.638  18.266  15.167  0.1547  0.0489  0.2661
 2938DOPE   C3B34481  32.921  18.110  14.867  0.2161  0.0236  0.1786
 2938DOPE   C4B34482  33.253  18.170  14.572  0.1836 -0.0226  0.0498
 2939DOPE   NH334483  31.948  17.830  16.693 -0.0188  0.2757  0.2266
 2939DOPE   PO434484  32.248  17.826  16.732  0.0702  0.0198 -0.0400
 2939DOPE   GL134485  32.257  17.899  16.395 -0.0228  0.0014  0.6706
 2939DOPE   GL234486  32.009  17.658  16.235 -0.0465  0.5417  0.2475
 2939DOPE   C1A34487  32.564  17.743  16.074 -0.1638  0.0374  0.0826
 2939DOPE   D2A34488  32.709  17.458  15.792 -0.0312  0.3226  0.0400
 2939DOPE   C3A34489  32.757  17.617  15.380 -0.1278  0.0949  0.3059
 2939DOPE   C4A34490  32.417  17.733  15.051  0.3176  0.2500  0.1218
 2939DOPE   C1B34491  31.979  17.961  15.923  0.1291 -0.2466 -0.1427
 2939DOPE   D2B34492  31.694  17.916  15.551 -0.1693  0.0793 -0.2006
 2939DOPE   C3B34493  31.859  17.762  15.167 -0.0208 -0.4806  0.1073
 2939DOPE   C4B34494  31.925  17.689  14.717  0.2218  0.1162 -0.1781
 2940POSM   NC334495  28.015  20.298  16.272 -0.1199 -0.2441 -0.1755
 2940POSM   PO434496  28.181  20.039  16.469  0.1984 -0.0486  0.0637
 2940POSM   AM134497  28.321  19.985  16.179 -0.2192 -0.2449 -0.3725
 2940POSM   AM234498  28.436  20.201  16.012 -0.2051 -0.1852 -0.0121
 2940POSM   T1A34499  28.735  19.764  15.915  0.0828 -0.0683 -0.0506
 2940POSM   C2A34500  28.898  19.522  15.511 -0.2400 -0.1148  0.0126
 2940POSM   C3A34501  29.065  19.651  15.141 -0.0879 -0.2293  0.1678
 2940POSM   C1B34502  28.688  20.268  15.801  0.0374  0.1334 -0.1327
 2940POSM   D2B34503  28.999  20.045  15.543  0.0120  0.0388  0.2619
 2940POSM   C3B34504  28.903  20.118  15.051  0.2819  0.1932 -0.1356
 2940POSM   C4B34505  28.778  20.179  14.630 -0.1422 -0.1528 -0.0396
 2941DOPC   NC334506  30.668  11.492  16.680  0.3122  0.0814  0.3465
 2941DOPC   PO434507  30.874  11.814  16.561 -0.2335 -0.0523  0.1243
 2941DOPC   GL134508  30.800  11.780  16.138  0.1591  0.1414  0.0511
 2941DOPC   GL234509  30.765  11.488  16.128 -0.0905 -0.1936  0.2703
 2941DOPC   C1A34510  30.820  12.087  15.757 -0.3741 -0.2230 -0.0488
 2941DOPC   D2A34511  31.047  12.115  15.359  0.3382 -0.0375  0.0958
 2941DOPC   C3A34512  30.974  11.812  14.951  0.0731  0.5066 -0.2051
 2941DOPC   C4A34513  31.129  11.606  14.624  0.1893  0.0659 -0.1997
 2941DOPC   C1B34514  31.006  11.238  15.810  0.0012 -0.1422  0.3374
 2941DOPC   D2B34515  31.207  10.944  15.450 -0.0677  0.0483  0.1086
 2941DOPC   C3B34516  31.649  10.928  15.380 -0.2415  0.2062  0.1986
 2941DOPC   C4B34517  32.115  10.939  15.408  0.1145 -0.2188 -0.1298
 2942POSM   NC334518  27.249  13.036  15.972 -0.1948  0.1726 -0.1254
 2942POSM   PO434519  26.964  13.300  15.912  0.2393  0.2264  0.3081
 2942POSM   AM134520  26.890  13.103  15.652 -0.0856  0.0295  0.0514
 2942POSM   AM234521  26.666  13.015  15.456  0.0479 -0.1076  0.0337
 2942POSM   T1A34522  27.080  12.952  15.160 -0.0552  0.1003 -0.1965
 2942POSM   C2A34523  27.239  12.931  14.748 -0.2131 -0.2819 -0.2674
 2942POSM   C3A34524  27.604  12.865  14.468 -0.1070  0.1643 -0.1215
 2942POSM   C1B34525  26.423  12.936  15.167 -0.0370  0.4717 -0.1514
 2942POSM   D2B34526  26.409  12.902  14.698  0.1661 -0.2480  0.2229
 2942POSM   C3B34527  26.203  12.536  14.368  0.1231  0.1859 -0.1802
 2942POSM   C4B34528  25.899  12.259  14.092  0.0349 -0.1012  0.0641
 2943POSM   NC334529  24.618  22.208  16.138  0.1005 -0.0997  0.3223
 2943POSM   PO434530  24.320  21.974  15.976  0.0155  0.0201  0.1934
 2943POSM   AM134531  24.291  21.843  15.649 -0.0195  0.3132 -0.4101
 2943POSM   AM234532  24.437  21.732  15.440  0.2273 -0.4728 -0.1053
 2943POSM   T1A34533  24.041  21.919  15.220  0.0350 -0.1689 -0.1983
 2943POSM   C2A34534  24.125  22.176  14.917  0.0100  0.3840 -0.0165
 2943POSM   C3A34535  24.062  22.552  15.033 -0.0529 -0.2756 -0.1535
 2943POSM   C1B34536  24.521  21.865  15.155  0.0380 -0.1739  0.0031
 2943POSM   D2B34537  24.504  21.987  14.695 -0.5789  0.1716  0.1284
 2943POSM   C3B34538  24.641  21.739  14.375 -0.3880  0.0387 -0.0240
 2943POSM   C4B34539  24.621  21.719  13.937 -0.2445 -0.1580  0.0593
 2944DOPS   CNO34540  28.095  18.474  17.046 -0.3449 -0.2400 -0.1414
 2944DOPS   PO434541  28.316  18.206  16.928 -0.0978  0.0341  0.3369
 2944DOPS   GL134542  28.391  18.183  16.501 -0.1940  0.0969 -0.0552
 2944DOPS   GL234543  28.251  17.911  16.392  0.0436  0.1332 -0.2617
 2944DOPS   C1A34544  28.477  18.448  16.116  0.0842  0.1275 -0.0277
 2944DOPS   D2A34545  28.728  18.700  15.824 -0.0923  0.0331  0.1916
 2944DOPS   C3A34546  28.605  18.585  15.419  0.1244 -0.3428  0.0612
 2944DOPS   C4A34547  28.468  18.345  15.022 -0.0624  0.1935  0.0474
 2944DOPS   C1B34548  28.506  17.869  15.980  0.0569  0.1661 -0.1272
 2944DOPS   D2B34549  28.612  18.072  15.543  0.3406 -0.4306  0.2083
 2944DOPS   C3B34550  28.607  17.834  15.137  0.0252 -0.0103  0.1443
 2944DOPS   C4B34551  28.812  17.932  14.769 -0.1437 -0.0754  0.0562
 2945DOPC   NC334552  25.879  20.675  15.932 -0.2421 -0.1665  0.1288
 2945DOPC   PO434553  26.091  20.439  16.146 -0.2300 -0.2249  0.0305
 2945DOPC   GL134554  26.069  20.311  15.785 -0.1978  0.1020  0.0029
 2945DOPC   GL234555  26.391  20.280  15.764 -0.1376 -0.1445 -0.0125
 2945DOPC   C1A34556  25.965  20.495  15.367  0.1612  0.0297  0.3435
 2945DOPC   D2A34557  25.884  20.817  15.003 -0.0812  0.0635  0.0938
 2945DOPC   C3A34558  26.059  20.961  14.637  0.1027  0.2032 -0.2949
 2945DOPC   C4A34559  25.896  20.910  14.212 -0.2272  0.1408  0.2944
 2945DOPC   C1B34560  26.311  20.125  15.325  0.0806  0.2506  0.1153
 2945DOPC   D2B34561  26.477  20.070  14.920  0.1709 -0.4213 -0.1635
 2945DOPC   C3B34562  26.528  20.409  14.644 -0.0141  0.4131 -0.0822
 2945DOPC   C4B34563  26.325  20.653  14.291 -0.1214 -0.4751  0.2286
 2946DOPE   NH334564  26.861  19.621  16.648 -0.1581 -0.0633  0.1090
 2946DOPE   PO434565  26.745  19.691  16.371  0.0334  0.1190 -0.0558
 2946DOPE   GL134566  26.855  19.456  16.142  0.3362 -0.2476 -0.3638
 2946DOPE   GL234567  26.886  19.537  15.869  0.1615  0.1710  0.0066
 2946DOPE   C1A34568  27.178  19.131  16.043 -0.1116  0.1974  0.1371
 2946DOPE   D2A34569  27.338  18.950  15.655  0.0301 -0.1330  0.1734
 2946DOPE   C3A34570  27.042  19.204  15.345  0.0072  0.1432 -0.0748
 2946DOPE   C4A34571  26.679  19.294  15.158  0.1231  0.2710 -0.1048
 2946DOPE   C1B34572  27.306  19.535  15.729 -0.2375  0.2800  0.0182
 2946DOPE   D2B34573  27.525  19.755  15.413 -0.2588 -0.0922 -0.1049
 2946DOPE   C3B34574  27.228  19.788  15.090  0.0702  0.2403  0.1179
 2946DOPE   C4B34575  26.946  19.723  14.763 -0.0506  0.2437  0.0652
 2947DOPE   NH334576  27.982  12.724  16.108 -0.1011  0.0251  0.0128
 2947DOPE   PO434577  28.199  12.939  15.979  0.4699  0.0349 -0.0468
 2947DOPE   GL134578  28.211  13.089  15.612  0.1030  0.1860  0.1560
 2947DOPE   GL234579  28.490  13.006  15.549  0.1392 -0.0884  0.1359
 2947DOPE   C1A34580  27.933  13.113  15.274  0.1798 -0.2849  0.1915
 2947DOPE   D2A34581  27.737  13.217  14.843 -0.2024 -0.1974  0.0357
 2947DOPE   C3A34582  27.795  13.656  14.656 -0.0903  0.0405 -0.1319
 2947DOPE   C4A34583  27.940  13.767  14.238 -0.0497  0.2075 -0.1264
 2947DOPE   C1B34584  28.551  13.224  15.115 -0.2225 -0.1804 -0.2833
 2947DOPE   D2B34585  28.649  13.378  14.675  0.1963  0.1468  0.0292
 2947DOPE   C3B34586  28.758  13.850  14.613 -0.1135 -0.2612  0.2905
 2947DOPE   C4B34587  28.975  14.262  14.667 -0.0608  0.1301 -0.0596
 2948DOPC   NC334588  29.499  14.690  16.655  0.1239  0.2009  0.0465
 2948DOPC   PO434589  29.177  14.514  16.657 -0.0220 -0.1637  0.1522
 2948DOPC   GL134590  29.057  14.672  16.286 -0.3912  0.1770 -0.0561
 2948DOPC   GL234591  29.307  14.861  16.207 -0.0588 -0.3342 -0.3592
 2948DOPC   C1A34592  29.124  14.493  15.888 -0.2218 -0.3619  0.1003
 2948DOPC   D2A34593  29.417  14.178  15.717 -0.0170 -0.0592 -0.0876
 2948DOPC   C3A34594  29.616  14.075  15.299 -0.0656 -0.1494 -0.0814
 2948DOPC   C4A34595  29.969  14.138  15.013  0.0499  0.0100 -0.3644
 2948DOPC   C1B34596  29.373  15.271  15.960  0.1724 -0.1484  0.1318
 2948DOPC   D2B34597  29.276  15.698  16.081  0.3934  0.1482  0.1376
 2948DOPC   C3B34598  29.413  15.940  15.725  0.1178 -0.0085 -0.2671
 2948DOPC   C4B34599  29.776  16.137  15.530  0.2205 -0.1550 -0.1071
 2949POSM   NC334600  31.024  20.302  16.447 -0.1803  0.3801 -0.1889
 2949POSM   PO434601  31.356  20.074  16.544 -0.1255 -0.1554  0.1644
 2949POSM   AM134602  31.225  19.904  16.282  0.0609 -0.3094 -0.0040
 2949POSM   AM234603  31.343  19.838  16.044 -0.2770  0.1850  0.2134
 2949POSM   T1A34604  30.843  20.074  15.971 -0.0348 -0.3131  0.2442
 2949POSM   C2A34605  30.801  20.071  15.531  0.1341 -0.0478  0.2760
 2949POSM   C3A34606  30.852  20.046  15.042  0.3920  0.0117 -0.1544
 2949POSM   C1B34607  31.296  19.803  15.689  0.2912  0.0672  0.2240
 2949POSM   D2B34608  31.137  19.709  15.312 -0.1531 -0.4098  0.1068
 2949POSM   C3B34609  30.739  19.536  15.273  0.2532 -0.2512 -0.0053
 2949POSM   C4B34610  30.383  19.773  15.291 -0.0742  0.0316  0.1930
 2950POSM   NC334611  26.009  21.554  15.502  0.0733  0.2805 -0.3100
 2950POSM   PO434612  25.761  21.591  15.837  0.1488 -0.1474  0.0892
 2950POSM   AM134613  25.584  21.687  15.602 -0.3184 -0.1078  0.1418
 2950POSM   AM234614  25.459  21.591  15.362 -0.3037 -0.0601 -0.0791
 2950POSM   T1A34615  25.376  22.057  15.373  0.0558  0.1956 -0.5427
 2950POSM   C2A34616  25.479  22.266  14.978  0.0111 -0.0423 -0.0358
 2950POSM   C3A34617  25.511  22.532  14.597  0.2885 -0.1798 -0.1563
 2950POSM   C1B34618  25.458  21.669  14.994 -0.2875  0.3031  0.0177
 2950POSM   D2B34619  25.680  21.924  14.660 -0.0515 -0.0052 -0.1168
 2950POSM   C3B34620  25.555  21.648  14.293 -0.0955  0.2088  0.1314
 2950POSM   C4B34621  25.857  21.457  14.033 -0.0839 -0.1532  0.0563
 2951DOPC   NC334622  31.879  20.927  15.815  0.0821  0.2111  0.0016
 2951DOPC   PO434623  31.939  21.283  15.915 -0.0625  0.0300 -0.1545
 2951DOPC   GL134624  31.703  21.335  15.560  0.0252  0.0169 -0.1626
 2951DOPC   GL234625  31.679  21.680  15.681 -0.1224 -0.0546  0.0632
 2951DOPC   C1A34626  31.528  21.150  15.134  0.0298  0.1616 -0.2350
 2951DOPC   D2A34627  31.392  21.151  14.639  0.0845 -0.0532  0.1445
 2951DOPC   C3A34628  31.639  21.170  14.223 -0.1704 -0.0479  0.5323
 2951DOPC   C4A34629  31.882  21.150  13.820 -0.2619  0.0851 -0.1246
 2951DOPC   C1B34630  31.307  21.502  15.524 -0.4368 -0.1370 -0.1119
 2951DOPC   D2B34631  30.986  21.824  15.522  0.1386  0.0691 -0.2128
 2951DOPC   C3B34632  30.869  21.933  15.131  0.0756  0.1125 -0.2381
 2951DOPC   C4B34633  30.609  22.039  14.755 -0.0550  0.0873 -0.1884
 2952DOPS   CNO34634  27.253  18.681  16.991 -0.1782  0.4054  0.0316
 2952DOPS   PO434635  27.527  18.419  17.058  0.3376 -0.1587  0.1347
 2952DOPS   GL134636  27.798  18.248  16.728 -0.0230  0.1435 -0.0179
 2952DOPS   GL234637  27.643  17.939  16.596  0.1179  0.3932 -0.0260
 2952DOPS   C1A34638  27.954  18.354  16.306  0.0069 -0.0515 -0.0888
 2952DOPS   D2A34639  28.123  18.165  15.899 -0.2629 -0.2445  0.0790
 2952DOPS   C3A34640  28.162  18.566  15.680 -0.0199 -0.0367 -0.1357
 2952DOPS   C4A34641  28.296  18.941  15.650  0.1836 -0.2393  0.0595
 2952DOPS   C1B34642  27.502  18.084  16.151  0.3218 -0.1001 -0.0692
 2952DOPS   D2B34643  27.490  18.032  15.721 -0.1390 -0.1082 -0.0144
 2952DOPS   C3B34644  27.037  18.093  15.576 -0.0497  0.0695 -0.1785
 2952DOPS   C4B34645  26.721  17.997  15.256  0.1264  0.4431  0.1055
 2953DOPE   NH334646  33.941  16.886  16.064  0.2379 -0.0283  0.2930
 2953DOPE   PO434647  33.789  16.580  16.122 -0.1144 -0.0028  0.0426
 2953DOPE   GL134648  33.497  16.610  15.807 -0.4344 -0.2171 -0.3621
 2953DOPE   GL234649  33.228  16.783  15.921  0.0853  0.1451  0.1298
 2953DOPE   C1A34650  33.214  16.696  15.442 -0.2045 -0.1706  0.2907
 2953DOPE   D2A34651  32.906  16.553  15.069 -0.1405 -0.0937  0.0224
 2953DOPE   C3A34652  32.705  16.834  14.800  0.1624  0.0922 -0.0283
 2953DOPE   C4A34653  32.858  17.102  14.370  0.1169  0.1563  0.0191
 2953DOPE   C1B34654  32.884  16.997  15.750  0.0607  0.0593  0.2202
 2953DOPE   D2B34655  32.729  17.101  15.295 -0.3834  0.0422 -0.0300
 2953DOPE   C3B34656  32.365  17.036  15.047 -0.1496  0.0585  0.2604
 2953DOPE   C4B34657  31.937  17.109  14.896  0.3165  0.1070 -0.0095
 2954DOPS   CNO34658  28.021  20.846  16.375  0.3341  0.2610  0.0076
 2954DOPS   PO434659  28.352  20.996  16.268 -0.1483 -0.1851 -0.2092
 2954DOPS   GL134660  28.310  20.919  15.894 -0.2406 -0.0188 -0.0523
 2954DOPS   GL234661  28.135  20.645  15.916 -0.2400 -0.0420 -0.3710
 2954DOPS   C1A34662  28.395  20.771  15.495 -0.3535 -0.1100 -0.2191
 2954DOPS   D2A34663  28.572  20.424  15.294  0.1024 -0.3053  0.0645
 2954DOPS   C3A34664  28.376  20.226  14.944 -0.1111  0.1688  0.1485
 2954DOPS   C4A34665  28.230  20.470  14.550  0.0068  0.0223 -0.4519
 2954DOPS   C1B34666  28.179  20.301  15.608  0.1176 -0.0290  0.0202
 2954DOPS   D2B34667  28.440  19.971  15.455  0.0557 -0.4343 -0.2048
 2954DOPS   C3B34668  28.424  19.762  15.010 -0.0353 -0.3823  0.0273
 2954DOPS   C4B34669  28.517  19.786  14.523 -0.0812 -0.0519  0.1235
 2955DOPS   CNO34670  25.182  13.290  15.606  0.0625  0.0806 -0.0515
 2955DOPS   PO434671  25.120  13.126  15.290 -0.0297 -0.1175  0.0294
 2955DOPS   GL134672  25.188  13.068  14.919  0.0525 -0.0175  0.0436
 2955DOPS   GL234673  25.233  13.296  14.791  0.1741  0.0840 -0.1316
 2955DOPS   C1A34674  24.966  12.767  14.644 -0.0728  0.0418  0.0332
 2955DOPS   D2A34675  24.716  12.791  14.318 -0.1649 -0.1248  0.1813
 2955DOPS   C3A34676  24.525  12.417  14.114  0.0821 -0.3239  0.3204
 2955DOPS   C4A34677  24.098  12.276  14.147  0.1788  0.0372 -0.0618
 2955DOPS   C1B34678  25.528  13.054  14.546 -0.1071 -0.0530  0.0165
 2955DOPS   D2B34679  25.649  12.686  14.326 -0.2372 -0.1523 -0.0126
 2955DOPS   C3B34680  25.999  12.721  13.971  0.3973  0.1682  0.1884
 2955DOPS   C4B34681  26.116  12.929  13.603 -0.2596 -0.2375 -0.1775
 2956POSM   NC334682  24.771  19.212  16.134 -0.0275  0.1938 -0.0092
 2956POSM   PO434683  25.100  18.967  16.067 -0.3082 -0.0128 -0.2687
 2956POSM   AM134684  25.124  19.041  15.749 -0.1017 -0.3195 -0.0579
 2956POSM   AM234685  24.947  19.211  15.570 -0.0899 -0.2168 -0.0867
 2956POSM   T1A34686  25.452  19.099  15.399  0.0275  0.0533 -0.1180
 2956POSM   C2A34687  25.502  19.319  15.042  0.0073 -0.1956 -0.0091
 2956POSM   C3A34688  25.667  19.598  14.676 -0.1306 -0.0163  0.0280
 2956POSM   C1B34689  24.925  19.073  15.243  0.1289  0.0434  0.4396
 2956POSM   D2B34690  25.135  19.004  14.839  0.1841 -0.0842 -0.0686
 2956POSM   C3B34691  25.270  19.331  14.559 -0.1608  0.2308  0.0251
 2956POSM   C4B34692  25.351  19.457  14.155  0.1028 -0.0880 -0.0188
 2957POSM   NC334693  32.055  16.973  16.262 -0.1271 -0.0241 -0.2260
 2957POSM   PO434694  31.771  17.197  16.424  0.2061 -0.0794  0.2047
 2957POSM   AM134695  31.561  17.284  16.214  0.0025 -0.1144  0.6175
 2957POSM   AM234696  31.488  17.526  16.139 -0.1373  0.1482 -0.0932
 2957POSM   T1A34697  31.193  17.209  15.834  0.1862 -0.0543  0.0009
 2957POSM   C2A34698  30.900  17.362  15.530  0.0177 -0.0425  0.0546
 2957POSM   C3A34699  30.503  17.564  15.385  0.1326 -0.3331 -0.1823
 2957POSM   C1B34700  31.649  17.509  15.855 -0.1949 -0.0502 -0.0503
 2957POSM   D2B34701  31.797  17.357  15.453 -0.1470 -0.2967 -0.0196
 2957POSM   C3B34702  31.442  17.026  15.364 -0.2273  0.0547 -0.1511
 2957POSM   C4B34703  30.992  16.900  15.361  0.1069 -0.1194 -0.0878
 2958DOPC   NC334704  25.593  13.330  15.330  0.2241 -0.0066  0.2629
 2958DOPC   PO434705  25.877  13.562  15.456 -0.2223 -0.0294 -0.1612
 2958DOPC   GL134706  26.038  13.369  15.225  0.0429 -0.0810  0.0152
 2958DOPC   GL234707  26.265  13.593  15.154  0.1500 -0.2431  0.0495
 2958DOPC   C1A34708  25.887  13.449  14.812  0.1612  0.1098 -0.1300
 2958DOPC   D2A34709  25.751  13.547  14.428 -0.0303 -0.2639 -0.0979
 2958DOPC   C3A34710  25.634  13.329  14.161 -0.0607  0.1241  0.0285
 2958DOPC   C4A34711  25.678  13.065  13.774  0.3677 -0.1132  0.1198
 2958DOPC   C1B34712  26.337  13.440  14.696 -0.3314  0.0794 -0.1854
 2958DOPC   D2B34713  26.201  13.651  14.276  0.1699 -0.0563 -0.1719
 2958DOPC   C3B34714  26.116  13.377  13.874 -0.2871 -0.3169 -0.0396
 2958DOPC   C4B34715  25.910  13.485  13.508 -0.1992  0.2049 -0.0098
 2959POSM   NC334716  28.449  22.993  16.470  0.2143  0.2018 -0.2653
 2959POSM   PO434717  28.226  22.737  16.360 -0.1810 -0.5044  0.2525
 2959POSM   AM134718  28.303  22.664  16.081 -0.2272 -0.1961 -0.3564
 2959POSM   AM234719  28.375  22.371  15.992  0.1224 -0.4123 -0.0176
 2959POSM   T1A34720  28.508  22.706  15.618 -0.0485  0.5257 -0.0880
 2959POSM   C2A34721  28.886  22.561  15.504  0.0491 -0.1956  0.1506
 2959POSM   C3A34722  29.001  22.458  15.082  0.0363 -0.1202  0.2100
 2959POSM   C1B34723  28.724  22.399  15.927  0.0481  0.1275  0.1285
 2959POSM   D2B34724  29.029  22.134  15.760 -0.5123  0.2004  0.0212
 2959POSM   C3B34725  29.344  22.162  15.380 -0.1158  0.3478 -0.2144
 2959POSM   C4B34726  29.742  22.055  15.162  0.0942 -0.0068  0.0669
 2960DOPC   NC334727  30.327  18.164  16.822 -0.1362 -0.2748 -0.0928
 2960DOPC   PO434728  29.995  18.329  16.746  0.0127  0.1906 -0.0316
 2960DOPC   GL134729  30.052  18.170  16.410 -0.1933 -0.1060  0.4653
 2960DOPC   GL234730  30.105  17.925  16.453  0.2023 -0.1574  0.2315
 2960DOPC   C1A34731  29.797  17.934  16.053  0.1061 -0.3979  0.0169
 2960DOPC   D2A34732  29.650  17.610  15.771 -0.1125  0.0834 -0.1119
 2960DOPC   C3A34733  30.017  17.438  15.561  0.0210  0.0975  0.0418
 2960DOPC   C4A34734  30.080  17.148  15.299  0.1131  0.0883  0.1009
 2960DOPC   C1B34735  30.361  17.850  16.098 -0.1676  0.1372 -0.0817
 2960DOPC   D2B34736  30.693  17.884  15.756 -0.3583  0.2060 -0.0944
 2960DOPC   C3B34737  30.874  17.933  15.318 -0.3112  0.0985 -0.1943
 2960DOPC   C4B34738  30.971  18.183  14.991 -0.1812  0.3649  0.0732
 2961POSM   NC334739  30.031  16.715  17.804  0.1984  0.6025 -0.3938
 2961POSM   PO434740  29.888  16.767  17.468  0.0376  0.1025  0.0401
 2961POSM   AM134741  30.083  16.859  17.237 -0.1617  0.0710  0.1187
 2961POSM   AM234742  30.179  16.712  17.011  0.0871 -0.0530 -0.2733
 2961POSM   T1A34743  30.106  17.225  16.901 -0.0440 -0.2781  0.0372
 2961POSM   C2A34744  30.377  17.481  16.679 -0.0980  0.2705  0.0310
 2961POSM   C3A34745  30.617  17.820  16.528  0.2233  0.1777  0.0884
 2961POSM   C1B34746  30.280  16.811  16.709 -0.1252 -0.2392  0.2925
 2961POSM   D2B34747  30.266  17.077  16.324 -0.2765 -0.2339 -0.1118
 2961POSM   C3B34748  29.995  17.469  16.441 -0.0528 -0.1510  0.2962
 2961POSM   C4B34749  29.542  17.537  16.317  0.1029  0.2870  0.0958
 2962POSM   NC334750  32.002  12.562  16.506  0.0818  0.2880  0.2616
 2962POSM   PO434751  32.035  12.977  16.493  0.0942 -0.1542 -0.2899
 2962POSM   AM134752  32.080  12.947  16.162 -0.2305  0.1649 -0.0391
 2962POSM   AM234753  32.067  12.735  15.959  0.0394 -0.0767  0.1934
 2962POSM   T1A34754  32.134  13.156  15.760  0.0044 -0.3039  0.0231
 2962POSM   C2A34755  32.165  13.169  15.325 -0.0153 -0.0687  0.2824
 2962POSM   C3A34756  32.385  13.106  14.982  0.0075 -0.1189 -0.2810
 2962POSM   C1B34757  32.062  12.494  15.688 -0.0032 -0.0334  0.1146
 2962POSM   D2B34758  32.201  12.347  15.267  0.1408  0.1228 -0.2790
 2962POSM   C3B34759  31.906  12.255  14.892 -0.0483 -0.0120  0.1287
 2962POSM   C4B34760  31.723  12.421  14.477 -0.1326 -0.1400 -0.2415
 2963DOPC   NC334761  25.384  14.282  15.262  0.0206 -0.3490  0.1082
 2963DOPC   PO434762  25.108  14.522  15.458  0.0463  0.3969  0.0607
 2963DOPC   GL134763  25.227  14.708  15.148  0.4025  0.4019 -0.0833
 2963DOPC   GL234764  25.008  14.704  14.961  0.0083  0.0168  0.2551
 2963DOPC   C1A34765  25.498  15.013  14.930  0.2175 -0.0816  0.3507
 2963DOPC   D2A34766  25.709  15.215  14.626 -0.2268  0.2016 -0.0267
 2963DOPC   C3A34767  25.555  15.559  14.371  0.2775  0.1692 -0.0108
 2963DOPC   C4A34768  25.323  15.601  13.989 -0.0954  0.0467 -0.0217
 2963DOPC   C1B34769  25.166  14.832  14.537 -0.3069 -0.2394 -0.0224
 2963DOPC   D2B34770  25.397  15.109  14.216 -0.0551  0.1896  0.1886
 2963DOPC   C3B34771  25.224  14.863  13.849 -0.0968 -0.0230  0.0558
 2963DOPC   C4B34772  25.373  14.869  13.429 -0.0398  0.1276 -0.1405
 2964DOPE   NH334773  25.274  14.057  15.707  0.1031 -0.1248 -0.3665
 2964DOPE   PO434774  25.145  13.774  15.615  0.0309 -0.1098 -0.1027
 2964DOPE   GL134775  25.449  13.796  15.363 -0.0403  0.3423 -0.2122
 2964DOPE   GL234776  25.305  13.694  15.162  0.0011 -0.0473 -0.0862
 2964DOPE   C1A34777  25.779  14.046  15.055  0.1690 -0.3054 -0.1755
 2964DOPE   D2A34778  25.910  13.991  14.615 -0.2266  0.0396  0.1303
 2964DOPE   C3A34779  25.977  14.228  14.225 -0.0746 -0.3310  0.2540
 2964DOPE   C4A34780  25.926  14.322  13.786  0.0366  0.0123 -0.1185
 2964DOPE   C1B34781  25.409  13.903  14.812  0.2521  0.1215  0.1103
 2964DOPE   D2B34782  25.384  13.880  14.297 -0.0733  0.0137 -0.0588
 2964DOPE   C3B34783  25.444  14.087  13.887 -0.1608  0.4330 -0.0221
 2964DOPE   C4B34784  25.537  14.371  13.498 -0.1092  0.0365 -0.0501
 2965DOPC   NC334785  24.289  15.840  16.194  0.3096  0.1237  0.2164
 2965DOPC   PO434786  24.516  15.513  16.143  0.2185 -0.1549  0.0866
 2965DOPC   GL134787  24.583  15.788  15.755  0.0066  0.2925 -0.3983
 2965DOPC   GL234788  24.492  16.065  15.749 -0.2565  0.1108  0.0036
 2965DOPC   C1A34789  24.860  15.973  15.421 -0.1381  0.0621 -0.1995
 2965DOPC   D2A34790  24.687  16.206  15.044  0.1120  0.1805  0.1651
 2965DOPC   C3A34791  24.280  16.103  14.784 -0.2815  0.0839  0.4334
 2965DOPC   C4A34792  24.262  15.932  14.355 -0.1953 -0.0836 -0.0982
 2965DOPC   C1B34793  24.337  15.800  15.318 -0.4014 -0.2218 -0.1863
 2965DOPC   D2B34794  24.479  15.519  15.002 -0.4614 -0.1710  0.0880
 2965DOPC   C3B34795  24.659  15.697  14.642  0.0245 -0.1073  0.0537
 2965DOPC   C4B34796  24.780  16.130  14.550  0.1406  0.2331  0.1451
 2966POSM   NC334797  32.845  19.261  16.468 -0.1873  0.2308  0.3241
 2966POSM   PO434798  33.239  19.153  16.377 -0.0233 -0.2617  0.1992
 2966POSM   AM134799  33.109  18.943  16.177  0.2712  0.1869 -0.0291
 2966POSM   AM234800  32.842  18.798  16.217  0.0507 -0.0910  0.3930
 2966POSM   T1A34801  33.131  18.866  15.742 -0.2948  0.0598  0.0192
 2966POSM   C2A34802  33.353  18.612  15.320 -0.0574  0.1466 -0.0122
 2966POSM   C3A34803  33.101  18.523  14.937  0.0653 -0.5236 -0.0048
 2966POSM   C1B34804  32.630  18.864  15.975  0.2081 -0.0038  0.0157
 2966POSM   D2B34805  32.402  19.005  15.583  0.2491  0.1887 -0.3024
 2966POSM   C3B34806  32.284  18.760  15.180  0.2850  0.1283 -0.2658
 2966POSM   C4B34807  32.310  18.564  14.799  0.2468 -0.0682 -0.0371
 2967POSM   NC334808  23.791  21.748  15.711 -0.1597  0.2502 -0.3016
 2967POSM   PO434809  24.032  21.467  15.845  0.1507  0.4981  0.4705
 2967POSM   AM134810  24.171  21.348  15.555 -0.2199 -0.1494 -0.0032
 2967POSM   AM234811  24.370  21.137  15.487 -0.0399  0.1420 -0.3012
 2967POSM   T1A34812  24.123  21.310  15.094 -0.2333  0.1101  0.1368
 2967POSM   C2A34813  24.079  21.674  14.733  0.1774 -0.1124 -0.1528
 2967POSM   C3A34814  24.159  21.657  14.274 -0.0244 -0.1129  0.2018
 2967POSM   C1B34815  24.626  21.222  15.245 -0.1113 -0.1460  0.1220
 2967POSM   D2B34816  24.719  21.455  14.926 -0.1483  0.0243 -0.1046
 2967POSM   C3B34817  24.429  21.292  14.591  0.2443 -0.1906  0.3282
 2967POSM   C4B34818  24.629  21.252  14.109 -0.0912 -0.0446 -0.2236
 2968POSM   NC334819  26.023  17.412  16.637  0.0744  0.3090  0.0371
 2968POSM   PO434820  25.990  17.121  16.389 -0.1377  0.1382 -0.0481
 2968POSM   AM134821  26.059  17.318  16.117 -0.2965  0.1747  0.1704
 2968POSM   AM234822  25.872  17.498  15.958 -0.4003  0.0080  0.1016
 2968POSM   T1A34823  26.366  17.333  15.696  0.1613 -0.0955  0.3972
 2968POSM   C2A34824  26.722  17.161  15.464  0.1728 -0.0534  0.1787
 2968POSM   C3A34825  26.757  17.047  14.995 -0.3236 -0.1236  0.1856
 2968POSM   C1B34826  25.804  17.497  15.616  0.1251  0.0751 -0.0211
 2968POSM   D2B34827  25.628  17.459  15.190  0.0361 -0.0125  0.0716
 2968POSM   C3B34828  25.517  17.806  14.874  0.2563 -0.0414 -0.1906
 2968POSM   C4B34829  25.249  18.220  14.738 -0.2834  0.4541  0.0018
 2969POSM   NC334830  26.351  21.716  16.191  0.0478 -0.2383 -0.4203
 2969POSM   PO434831  26.102  22.045  16.107 -0.2254 -0.0589 -0.0870
 2969POSM   AM134832  26.204  22.267  15.913 -0.2444 -0.0428 -0.2058
 2969POSM   AM234833  26.408  22.518  15.897 -0.1179  0.1228  0.1247
 2969POSM   T1A34834  26.133  22.462  15.441  0.0372  0.1591 -0.0603
 2969POSM   C2A34835  25.942  22.473  15.020  0.0025 -0.1810  0.4442
 2969POSM   C3A34836  26.014  22.369  14.551  0.1993  0.0393 -0.1202
 2969POSM   C1B34837  26.652  22.308  15.771  0.1157 -0.2391 -0.0009
 2969POSM   D2B34838  26.835  22.064  15.416 -0.0789 -0.0019 -0.2289
 2969POSM   C3B34839  26.915  22.219  14.927 -0.1193  0.2083 -0.1067
 2969POSM   C4B34840  26.884  21.981  14.616  0.0442  0.0022 -0.0101
 2970DOPC   NC334841   0.819  18.617  16.283  0.2598 -0.1659  0.3532
 2970DOPC   PO434842   0.555  18.649  16.553 -0.0490 -0.1528  0.0699
 2970DOPC   GL134843   0.420  18.926  16.308  0.0380  0.4623 -0.1324
 2970DOPC   GL234844   0.634  19.059  16.145 -0.2760 -0.0040  0.3359
 2970DOPC   C1A34845   0.135  19.026  15.967  0.4417 -0.5001 -0.0291
 2970DOPC   D2A34846  -0.255  19.084  15.781 -0.3139  0.1658  0.1176
 2970DOPC   C3A34847  -0.515  19.004  15.404 -0.1904  0.1709 -0.1855
 2970DOPC   C4A34848  -0.531  18.798  14.963 -0.1034 -0.0469  0.2127
 2970DOPC   C1B34849   0.551  18.807  15.774  0.0583 -0.1456  0.1456
 2970DOPC   D2B34850   0.602  18.547  15.404  0.0917 -0.1327  0.2543
 2970DOPC   C3B34851   0.376  18.663  15.016 -0.0574 -0.1437  0.4368
 2970DOPC   C4B34852   0.392  18.922  14.594 -0.2513 -0.1890 -0.0885
 2971POSM   NC334853  33.576  18.245  16.182 -0.1667  0.3398  0.0818
 2971POSM   PO434854  33.466  18.576  16.407 -0.1134 -0.0537 -0.2215
 2971POSM   AM134855  33.593  18.744  16.153 -0.1327  0.2747 -0.2484
 2971POSM   AM234856  33.653  18.980  15.941 -0.1867 -0.1949  0.1890
 2971POSM   T1A34857  33.991  18.693  15.816  0.3039 -0.0546 -0.0784
 2971POSM   C2A34858  34.328  18.473  15.611  0.2955 -0.1333 -0.3317
 2971POSM   C3A34859  34.262  18.362  15.186 -0.0936  0.0299  0.2084
 2971POSM   C1B34860  33.660  18.985  15.578  0.3011 -0.1327 -0.1659
 2971POSM   D2B34861  33.642  18.950  15.070 -0.1232  0.1875  0.0890
 2971POSM   C3B34862  33.286  19.058  14.840  0.2157 -0.2005  0.1406
 2971POSM   C4B34863  33.147  18.874  14.512  0.1027 -0.0270  0.1727
 2972DOPS   CNO34864  28.098  17.736  16.830  0.3555  0.1108 -0.1026
 2972DOPS   PO434865  27.749  17.553  16.878  0.0617 -0.2071 -0.0543
 2972DOPS   GL134866  27.923  17.635  16.443 -0.3521  0.1603 -0.0064
 2972DOPS   GL234867  28.098  17.394  16.384  0.0678 -0.1593  0.2356
 2972DOPS   C1A34868  27.866  17.756  16.034 -0.1412 -0.1967  0.4255
 2972DOPS   D2A34869  27.915  17.673  15.555 -0.2811  0.0012  0.0460
 2972DOPS   C3A34870  28.411  17.597  15.527 -0.0194  0.2780 -0.2685
 2972DOPS   C4A34871  28.841  17.659  15.710  0.3852  0.0339  0.4114
 2972DOPS   C1B34872  28.249  17.398  15.936 -0.0948 -0.2289  0.3164
 2972DOPS   D2B34873  28.190  17.120  15.580 -0.0679 -0.5180 -0.2604
 2972DOPS   C3B34874  28.256  17.257  15.162 -0.1991  0.0130  0.1708
 2972DOPS   C4B34875  28.625  17.365  14.887 -0.2140 -0.3199 -0.0607
 2973DOPS   CNO34876  23.301  18.576  15.593 -0.4810  0.0987 -0.2171
 2973DOPS   PO434877  23.161  18.896  15.493  0.4971  0.0105 -0.0649
 2973DOPS   GL134878  23.467  19.004  15.332  0.3151  0.0109 -0.0014
 2973DOPS   GL234879  23.698  19.003  15.537 -0.1621  0.3342 -0.2329
 2973DOPS   C1A34880  23.666  19.099  14.912  0.0381  0.1472 -0.0999
 2973DOPS   D2A34881  24.007  19.014  14.618 -0.0591  0.1821  0.0411
 2973DOPS   C3A34882  24.433  19.086  14.802 -0.3470 -0.1308  0.0365
 2973DOPS   C4A34883  24.612  18.717  15.005  0.0600  0.0787 -0.0865
 2973DOPS   C1B34884  23.722  18.622  15.285 -0.1990  0.1420 -0.1714
 2973DOPS   D2B34885  23.600  18.605  14.835 -0.2550 -0.1859 -0.0114
 2973DOPS   C3B34886  23.602  18.795  14.394 -0.0032  0.2838 -0.0177
 2973DOPS   C4B34887  23.464  18.740  13.972 -0.3828  0.2275  0.1650
 2974DOPS   CNO34888  28.968  19.145  17.205 -0.1367  0.1714 -0.0861
 2974DOPS   PO434889  28.770  19.315  16.917 -0.1381  0.2025 -0.0661
 2974DOPS   GL134890  28.647  18.947  16.630  0.0384 -0.3856 -0.1172
 2974DOPS   GL234891  28.871  18.937  16.393  0.3480 -0.0275 -0.0260
 2974DOPS   C1A34892  28.402  18.936  16.185 -0.2970  0.0481 -0.0005
 2974DOPS   D2A34893  27.940  18.907  15.995 -0.1336  0.0830  0.0120
 2974DOPS   C3A34894  27.852  19.200  15.664  0.1449 -0.3394 -0.2587
 2974DOPS   C4A34895  27.552  19.326  15.293 -0.0653  0.0365 -0.2648
 2974DOPS   C1B34896  28.857  19.131  15.966  0.0735 -0.0453 -0.1221
 2974DOPS   D2B34897  29.200  19.032  15.731  0.2061  0.1884 -0.1202
 2974DOPS   C3B34898  28.857  19.070  15.424 -0.1439 -0.1384  0.0662
 2974DOPS   C4B34899  28.559  19.218  15.078 -0.1028 -0.3472 -0.1573
 2975POSM   NC334900  30.145  14.346  17.097  0.2928  0.1733  0.0859
 2975POSM   PO434901  29.867  14.457  16.880 -0.0998 -0.1020 -0.1553
 2975POSM   AM134902  30.065  14.626  16.705  0.1853 -0.2795  0.1834
 2975POSM   AM234903  30.351  14.553  16.608 -0.1936 -0.0684  0.5354
 2975POSM   T1A34904  30.143  14.770  16.232  0.0954  0.2628  0.0640
 2975POSM   C2A34905  30.247  14.550  15.886  0.2265 -0.0474 -0.3081
 2975POSM   C3A34906  30.355  14.333  15.473  0.0259 -0.5350 -0.2391
 2975POSM   C1B34907  30.415  14.317  16.379  0.2204 -0.0223  0.1302
 2975POSM   D2B34908  30.528  13.886  16.217 -0.0301 -0.0343  0.0459
 2975POSM   C3B34909  30.829  13.741  15.936 -0.0470 -0.2068 -0.1228
 2975POSM   C4B34910  31.181  13.683  15.726  0.0522  0.0734  0.0592
 2976DOPE   NH334911  31.001  23.033  16.472  0.0381  0.1834  0.1999
 2976DOPE   PO434912  31.304  23.180  16.405 -0.1555 -0.1281  0.1739
 2976DOPE   GL134913  31.326  23.073  16.019 -0.2685  0.1475  0.1819
 2976DOPE   GL234914  31.085  23.104  15.969 -0.0021  0.2664  0.0711
 2976DOPE   C1A34915  31.299  23.092  15.532 -0.4094 -0.2985  0.1172
 2976DOPE   D2A34916  31.221  22.873  15.129  0.0796 -0.2626 -0.0970
 2976DOPE   C3A34917  31.520  22.471  15.018 -0.1141  0.0026  0.2723
 2976DOPE   C4A34918  31.419  22.058  15.262 -0.2816  0.0915  0.1695
 2976DOPE   C1B34919  30.941  22.656  16.098  0.1627  0.1814 -0.0495
 2976DOPE   D2B34920  30.613  22.331  15.972 -0.1326 -0.0014 -0.2582
 2976DOPE   C3B34921  30.673  22.288  15.547 -0.1333  0.1682 -0.0643
 2976DOPE   C4B34922  31.010  22.431  15.220 -0.1436  0.2329  0.2351
 2977POSM   NC334923  28.056  11.927  16.139 -0.2333 -0.1436  0.1713
 2977POSM   PO434924  28.167  12.268  16.002 -0.1230 -0.1778 -0.0986
 2977POSM   AM134925  28.095  12.444  15.772  0.5032 -0.2080  0.3377
 2977POSM   AM234926  28.044  12.624  15.516 -0.1137  0.1172  0.0998
 2977POSM   T1A34927  27.825  12.257  15.358  0.3417  0.3044  0.1991
 2977POSM   C2A34928  27.887  12.111  14.897 -0.2329  0.0737  0.1715
 2977POSM   C3A34929  28.079  11.895  14.514 -0.1161  0.3306 -0.1187
 2977POSM   C1B34930  28.183  12.705  15.236  0.0574 -0.3391  0.1139
 2977POSM   D2B34931  28.175  12.907  14.779 -0.0066 -0.2448  0.1211
 2977POSM   C3B34932  28.066  12.807  14.325  0.1514 -0.0001  0.1059
 2977POSM   C4B34933  28.185  12.619  13.909 -0.2957  0.1179  0.2361
 2978DOPS   CNO34934  30.675  18.576  17.151 -0.0772  0.2205  0.1981
 2978DOPS   PO434935  30.381  18.654  16.902 -0.2053 -0.3024 -0.1342
 2978DOPS   GL134936  30.360  18.505  16.433  0.0900  0.0626 -0.1643
 2978DOPS   GL234937  30.492  18.264  16.372 -0.1682 -0.3438 -0.1241
 2978DOPS   C1A34938  30.412  18.700  16.052  0.1485 -0.1101  0.1673
 2978DOPS   D2A34939  30.723  18.932  15.816 -0.0382 -0.3251 -0.1576
 2978DOPS   C3A34940  30.594  19.037  15.369  0.1117 -0.2107 -0.0776
 2978DOPS   C4A34941  30.422  19.251  14.957  0.1141 -0.0306 -0.2294
 2978DOPS   C1B34942  30.163  18.277  15.998  0.0458  0.4811 -0.2994
 2978DOPS   D2B34943  30.104  17.917  15.678 -0.0756  0.0471  0.2187
 2978DOPS   C3B34944  29.828  17.920  15.305 -0.0014  0.0662  0.0825
 2978DOPS   C4B34945  29.520  17.896  14.913  0.0270  0.5690  0.3943
 2979POSM   NC334946  33.557  16.400  16.585 -0.1129  0.2351  0.3655
 2979POSM   PO434947  33.294  16.409  16.269  0.1522  0.0157 -0.0901
 2979POSM   AM134948  33.121  16.307  16.000 -0.2092  0.2315 -0.2092
 2979POSM   AM234949  33.198  16.261  15.704 -0.1676 -0.0438 -0.3583
 2979POSM   T1A34950  32.810  16.529  15.672  0.0341 -0.1880 -0.0211
 2979POSM   C2A34951  32.434  16.767  15.479  0.1834 -0.0772 -0.2095
 2979POSM   C3A34952  32.349  17.235  15.482 -0.2346  0.1840 -0.0270
 2979POSM   C1B34953  33.247  16.199  15.413 -0.4309  0.1204 -0.0410
 2979POSM   D2B34954  32.920  15.974  15.159  0.0882  0.1636 -0.1714
 2979POSM   C3B34955  32.800  16.137  14.767 -0.1879  0.1995 -0.3724
 2979POSM   C4B34956  32.622  16.453  14.387  0.2210 -0.0384  0.3671
 2980POSM   NC334957  27.173  14.674  16.572  0.2991 -0.0371 -0.2135
 2980POSM   PO434958  27.448  14.394  16.456 -0.1524  0.0124 -0.1506
 2980POSM   AM134959  27.662  14.499  16.219 -0.3591 -0.2203 -0.4928
 2980POSM   AM234960  27.902  14.595  16.168 -0.4094  0.0934 -0.0418
 2980POSM   T1A34961  27.678  14.420  15.736 -0.5140  0.2997 -0.2390
 2980POSM   C2A34962  28.061  14.328  15.492  0.0799 -0.0340 -0.1353
 2980POSM   C3A34963  28.381  13.992  15.505  0.3145 -0.0870 -0.1209
 2980POSM   C1B34964  27.982  14.824  15.914  0.0106 -0.0132  0.2271
 2980POSM   D2B34965  28.091  14.925  15.538  0.2359 -0.3003  0.2402
 2980POSM   C3B34966  27.952  15.288  15.273  0.0915  0.3387 -0.0481
 2980POSM   C4B34967  27.854  15.675  15.038 -0.0557  0.0383 -0.0063
 2981POSM   NC334968  25.546  19.340  15.904 -0.0812 -0.1431 -0.0385
 2981POSM   PO434969  25.174  19.515  15.947  0.0196  0.1835  0.0598
 2981POSM   AM134970  25.245  19.553  15.620 -0.1152  0.0144  0.2770
 2981POSM   AM234971  25.440  19.673  15.479 -0.1830  0.1663 -0.1183
 2981POSM   T1A34972  25.033  19.567  15.164 -0.2267 -0.0312 -0.0602
 2981POSM   C2A34973  24.818  19.428  14.766 -0.1916  0.1503 -0.0034
 2981POSM   C3A34974  24.851  19.595  14.339 -0.0412 -0.1183 -0.1178
 2981POSM   C1B34975  25.590  19.807  15.248 -0.0939  0.0704  0.3109
 2981POSM   D2B34976  25.849  20.002  14.933 -0.0118  0.2939  0.1731
 2981POSM   C3B34977  26.062  19.953  14.534  0.2646 -0.0998 -0.2311
 2981POSM   C4B34978  26.575  19.898  14.428 -0.0429 -0.1631 -0.1992
 2982DOPE   NH334979  34.214  20.284  16.009  0.2481  0.1051 -0.3025
 2982DOPE   PO434980  34.291  20.023  16.177 -0.4776 -0.0320  0.0942
 2982DOPE   GL134981  34.241  19.874  15.773 -0.3549 -0.1730 -0.2358
 2982DOPE   GL234982  33.989  19.847  15.680 -0.1843  0.0872  0.1689
 2982DOPE   C1A34983  34.265  19.631  15.366 -0.0184 -0.3534  0.1735
 2982DOPE   D2A34984  34.458  19.662  14.972 -0.0084  0.3524  0.1006
 2982DOPE   C3A34985  34.669  20.009  14.805 -0.0178 -0.0445 -0.0010
 2982DOPE   C4A34986  34.960  20.298  14.590 -0.1165 -0.2020  0.2262
 2982DOPE   C1B34987  33.818  19.421  15.438  0.0432  0.1475  0.0448
 2982DOPE   D2B34988  34.030  19.240  15.037  0.2919  0.0470  0.0897
 2982DOPE   C3B34989  34.354  19.193  14.727  0.4042 -0.1423 -0.0018
 2982DOPE   C4B34990  34.532  19.022  14.355 -0.1081  0.1032  0.1409
 2983DOPE   NH334991  23.497  19.790  15.343 -0.1104  0.1141 -0.0856
 2983DOPE   PO434992  23.582  19.488  15.482 -0.0990 -0.2565 -0.1544
 2983DOPE   GL134993  23.815  19.353  15.245 -0.0015  0.0173  0.1170
 2983DOPE   GL234994  24.056  19.316  15.380  0.0075  0.1446 -0.0589
 2983DOPE   C1A34995  24.103  19.456  14.850  0.0009  0.2065  0.0346
 2983DOPE   D2A34996  24.312  19.482  14.462 -0.2257  0.0570  0.0644
 2983DOPE   C3A34997  24.401  19.104  14.258 -0.1425 -0.0924 -0.1779
 2983DOPE   C4A34998  24.456  18.792  13.941 -0.0256 -0.0854 -0.2483
 2983DOPE   C1B34999  24.113  18.939  15.160 -0.1316 -0.0868 -0.0892
 2983DOPE   D2B35000  24.154  18.502  14.981  0.2570  0.0464  0.4063
 2983DOPE   C3B35001  24.031  18.480  14.504 -0.0403 -0.2373  0.0332
 2983DOPE   C4B35002  24.050  18.774  14.171 -0.0739  0.1183 -0.1244
 2984DOPS   CNO35003  34.436  12.406  16.346  0.1237 -0.0069 -0.1060
 2984DOPS   PO435004  34.075  12.245  16.255  0.1587 -0.1099 -0.0512
 2984DOPS   GL135005  34.091  12.254  15.833 -0.0284 -0.0538 -0.1258
 2984DOPS   GL235006  33.903  12.135  15.654  0.0593 -0.0744  0.3593
 2984DOPS   C1A35007  34.245  12.453  15.436 -0.4008 -0.0260  0.0494
 2984DOPS   D2A35008  34.327  12.142  15.147  0.1430  0.1209  0.0355
 2984DOPS   C3A35009  34.137  11.754  15.207  0.1065  0.1106 -0.2336
 2984DOPS   C4A35010  34.027  11.338  15.222 -0.1161  0.2359  0.1696
 2984DOPS   C1B35011  33.880  12.190  15.135 -0.0218 -0.3335 -0.2278
 2984DOPS   D2B35012  34.044  12.034  14.752 -0.0541 -0.0333  0.3091
 2984DOPS   C3B35013  34.446  12.118  14.427  0.2718 -0.0115  0.0234
 2984DOPS   C4B35014  34.837  12.055  14.182  0.3690 -0.0876  0.1720
 2985DOPS   CNO35015  23.786  16.242  15.276  0.0605 -0.2124  0.1107
 2985DOPS   PO435016  23.390  16.268  15.244  0.0530 -0.2456 -0.3322
 2985DOPS   GL135017  23.298  16.435  14.815 -0.1905  0.2364 -0.0019
 2985DOPS   GL235018  23.062  16.639  14.642 -0.0899 -0.1453  0.0733
 2985DOPS   C1A35019  23.462  16.201  14.461  0.0925 -0.1462  0.0361
 2985DOPS   D2A35020  23.425  15.926  14.115  0.2876 -0.0489 -0.1202
 2985DOPS   C3A35021  23.101  15.627  14.197 -0.0049 -0.1988 -0.1290
 2985DOPS   C4A35022  22.942  15.234  14.262 -0.0998  0.0868 -0.1583
 2985DOPS   C1B35023  23.162  16.546  14.263  0.2779 -0.1474 -0.3396
 2985DOPS   D2B35024  23.097  16.499  13.730 -0.3859  0.0472 -0.1428
 2985DOPS   C3B35025  22.675  16.787  13.614  0.0736 -0.2461 -0.0351
 2985DOPS   C4B35026  22.460  17.193  13.573 -0.1896  0.1867  0.0484
 2986DOPE   NH335027  27.035  21.089  15.980 -0.0740 -0.0120  0.0575
 2986DOPE   PO435028  27.297  20.945  16.049  0.0829  0.1833 -0.0762
 2986DOPE   GL135029  27.313  21.007  15.616  0.2054 -0.0953  0.2386
 2986DOPE   GL235030  27.578  20.952  15.618  0.2553 -0.3263  0.0588
 2986DOPE   C1A35031  26.959  20.816  15.369  0.3581  0.1071  0.1220
 2986DOPE   D2A35032  26.777  20.544  15.060 -0.3177  0.0229 -0.0043
 2986DOPE   C3A35033  27.005  20.327  14.752  0.0208  0.1494  0.3372
 2986DOPE   C4A35034  27.229  20.070  14.438 -0.1660 -0.0436  0.1928
 2986DOPE   C1B35035  27.430  20.787  15.239  0.0103 -0.1515 -0.0062
 2986DOPE   D2B35036  27.100  20.816  14.870 -0.0967 -0.1824  0.2062
 2986DOPE   C3B35037  27.101  20.738  14.368 -0.2441 -0.1416 -0.0757
 2986DOPE   C4B35038  27.374  20.467  14.084 -0.3187 -0.0651 -0.1332
 2987DOPC   NC335039  27.938  22.214  15.994 -0.0452 -0.2708  0.0365
 2987DOPC   PO435040  27.875  21.847  16.011  0.0517  0.3046 -0.0416
 2987DOPC   GL135041  28.264  21.881  15.738  0.1176 -0.1061  0.1877
 2987DOPC   GL235042  28.526  21.977  15.757  0.0328  0.4301 -0.0237
 2987DOPC   C1A35043  28.241  21.772  15.254 -0.4119  0.1022 -0.0734
 2987DOPC   D2A35044  27.944  21.582  14.929 -0.0400 -0.0343 -0.1526
 2987DOPC   C3A35045  27.514  21.790  15.021  0.1598 -0.0825  0.0618
 2987DOPC   C4A35046  27.042  21.712  15.041 -0.0237  0.1289  0.0655
 2987DOPC   C1B35047  28.742  21.973  15.332  0.4075  0.0302  0.2939
 2987DOPC   D2B35048  29.091  21.822  15.064 -0.1386  0.0070  0.1848
 2987DOPC   C3B35049  29.096  21.433  14.812 -0.3927 -0.2522 -0.2913
 2987DOPC   C4B35050  29.157  21.098  14.517  0.0801 -0.1058 -0.2230
 2988DOPE   NH335051  28.670  20.935  16.654 -0.1020 -0.0091 -0.3993
 2988DOPE   PO435052  28.863  20.692  16.711 -0.0015  0.3242  0.0017
 2988DOPE   GL135053  29.124  20.661  16.362  0.1255 -0.3157  0.2528
 2988DOPE   GL235054  28.957  20.382  16.314  0.3004  0.0255 -0.0337
 2988DOPE   C1A35055  29.451  20.408  16.275  0.1730 -0.0783  0.0285
 2988DOPE   D2A35056  29.659  20.239  15.871 -0.2609  0.2442  0.0084
 2988DOPE   C3A35057  30.145  20.122  15.979 -0.1728 -0.0840 -0.0708
 2988DOPE   C4A35058  30.428  19.847  15.790 -0.1295  0.0535  0.1977
 2988DOPE   C1B35059  29.131  20.062  16.022 -0.0565 -0.1113 -0.0358
 2988DOPE   D2B35060  29.325  19.745  15.719 -0.1331 -0.3287  0.3780
 2988DOPE   C3B35061  29.546  19.847  15.290  0.0609 -0.1830 -0.3145
 2988DOPE   C4B35062  29.625  19.770  14.833  0.0440  0.0098 -0.0355
 2989DOPC   NC335063  23.051  14.482  15.227 -0.1323  0.1965  0.0543
 2989DOPC   PO435064  23.063  14.672  14.910  0.3436  0.1749  0.1561
 2989DOPC   GL135065  22.875  14.471  14.525  0.5249  0.3973  0.1872
 2989DOPC   GL235066  23.136  14.581  14.419 -0.0823  0.2030 -0.2268
 2989DOPC   C1A35067  22.656  14.466  14.161 -0.0347  0.2619  0.0147
 2989DOPC   D2A35068  22.483  14.265  13.788  0.1021 -0.0312 -0.3233
 2989DOPC   C3A35069  22.574  14.347  13.376 -0.1011  0.0654 -0.1195
 2989DOPC   C4A35070  22.790  14.635  13.076 -0.0666 -0.1557 -0.0143
 2989DOPC   C1B35071  23.395  15.005  14.387 -0.1169 -0.0072 -0.1006
 2989DOPC   D2B35072  23.529  15.332  14.153 -0.0434  0.0661  0.2205
 2989DOPC   C3B35073  23.442  15.387  13.769  0.0010 -0.0823  0.0833
 2989DOPC   C4B35074  23.650  15.700  13.514  0.0091  0.1002  0.0064
 2990DOPE   NH335075  32.498  15.757  16.546 -0.1298  0.2343 -0.2444
 2990DOPE   PO435076  32.508  15.462  16.449 -0.0744  0.1926 -0.2566
 2990DOPE   GL135077  32.183  15.552  16.223 -0.4107  0.0902 -0.3276
 2990DOPE   GL235078  32.210  15.821  16.149 -0.1359  0.1055 -0.0603
 2990DOPE   C1A35079  31.906  15.460  15.884  0.3854  0.3473 -0.0889
 2990DOPE   D2A35080  31.840  15.723  15.549 -0.0415 -0.0593  0.1142
 2990DOPE   C3A35081  31.768  15.697  15.107  0.2261  0.3073  0.0640
 2990DOPE   C4A35082  31.837  15.884  14.712 -0.0786  0.1076 -0.1861
 2990DOPE   C1B35083  32.309  15.939  15.683  0.1586  0.0334  0.1737
 2990DOPE   D2B35084  32.564  16.177  15.381 -0.1184 -0.1666  0.1164
 2990DOPE   C3B35085  32.420  16.455  15.016  0.0193 -0.2136  0.0819
 2990DOPE   C4B35086  32.106  16.459  14.780 -0.1887 -0.0581 -0.1011
 2991DOPE   NH335087  33.071  19.999  16.412 -0.0769 -0.2264 -0.1524
 2991DOPE   PO435088  32.906  19.769  16.263 -0.3196 -0.1391 -0.0323
 2991DOPE   GL135089  32.971  19.593  15.869 -0.2111 -0.3543 -0.1162
 2991DOPE   GL235090  32.915  19.300  15.901 -0.2220 -0.0981 -0.3218
 2991DOPE   C1A35091  33.070  19.838  15.531  0.0439  0.1316 -0.3592
 2991DOPE   D2A35092  33.252  19.681  15.138 -0.0166 -0.0086  0.2558
 2991DOPE   C3A35093  32.908  19.459  14.835 -0.1657 -0.0936 -0.1355
 2991DOPE   C4A35094  32.915  19.303  14.373  0.3388 -0.1618 -0.0360
 2991DOPE   C1B35095  32.801  19.339  15.500  0.1091 -0.0294 -0.0984
 2991DOPE   D2B35096  32.460  19.305  15.209 -0.3701 -0.1265 -0.1580
 2991DOPE   C3B35097  32.115  19.563  14.985  0.0625  0.2534 -0.0455
 2991DOPE   C4B35098  31.912  19.522  14.621  0.1020 -0.1805 -0.0644
 2992DOPC   NC335099  25.605  10.799  15.960  0.0710  0.0417 -0.1084
 2992DOPC   PO435100  25.462  11.044  15.685  0.0045 -0.3247 -0.0947
 2992DOPC   GL135101  25.408  11.244  15.344 -0.1505  0.0030 -0.0882
 2992DOPC   GL235102  25.215  11.049  15.201  0.4018  0.1065  0.0308
 2992DOPC   C1A35103  25.646  11.199  14.928 -0.0857  0.4870 -0.0350
 2992DOPC   D2A35104  25.839  11.490  14.693  0.1143  0.1064 -0.3678
 2992DOPC   C3A35105  26.112  11.885  14.868  0.2575  0.2505  0.2771
 2992DOPC   C4A35106  26.387  12.026  15.208 -0.3988  0.2456 -0.1250
 2992DOPC   C1B35107  24.939  11.321  14.952  0.1610 -0.0701 -0.2353
 2992DOPC   D2B35108  24.847  11.747  14.693 -0.3476 -0.2891 -0.1429
 2992DOPC   C3B35109  25.190  11.972  14.561 -0.0386  0.0378  0.0531
 2992DOPC   C4B35110  25.604  12.137  14.416  0.0583 -0.4334  0.4299
 2993DOPC   NC335111  33.247  15.429  15.880 -0.2962 -0.2668  0.5448
 2993DOPC   PO435112  33.182  15.812  15.951 -0.0704 -0.2127 -0.2059
 2993DOPC   GL135113  33.115  15.777  15.576  0.1087 -0.0672 -0.1905
 2993DOPC   GL235114  32.947  15.580  15.518  0.2205  0.1915 -0.0998
 2993DOPC   C1A35115  33.493  15.658  15.320  0.2057 -0.0032  0.0325
 2993DOPC   D2A35116  33.888  15.463  15.177  0.1477 -0.2390  0.1510
 2993DOPC   C3A35117  33.881  15.052  14.940  0.3204 -0.0661 -0.0089
 2993DOPC   C4A35118  33.566  14.718  14.794 -0.2927  0.3872  0.0381
 2993DOPC   C1B35119  32.964  15.418  15.091 -0.0111 -0.1436  0.1120
 2993DOPC   D2B35120  32.652  15.242  14.768  0.0795  0.0269 -0.3215
 2993DOPC   C3B35121  32.691  15.462  14.336 -0.0307  0.0089  0.2172
 2993DOPC   C4B35122  32.738  15.948  14.289 -0.1153 -0.1726  0.0107
 2994DOPE   NH335123  30.451  12.975  16.626 -0.0916 -0.0379  0.1742
 2994DOPE   PO435124  30.573  13.259  16.665  0.3715  0.1019 -0.2677
 2994DOPE   GL135125  30.348  13.407  16.387 -0.6752  0.1289  0.0989
 2994DOPE   GL235126  30.235  13.153  16.210 -0.0446 -0.2256 -0.2792
 2994DOPE   C1A35127  30.032  13.620  16.137 -0.0095  0.0384 -0.1890
 2994DOPE   D2A35128  29.750  13.628  15.764 -0.3219  0.2149  0.3362
 2994DOPE   C3A35129  29.678  13.288  15.397 -0.1282 -0.2181 -0.0092
 2994DOPE   C4A35130  30.048  13.386  15.054 -0.2775  0.1260  0.0994
 2994DOPE   C1B35131  30.437  13.447  15.948  0.1644  0.0493  0.0971
 2994DOPE   D2B35132  30.403  13.860  15.734 -0.1166  0.1123 -0.1635
 2994DOPE   C3B35133  30.661  14.237  15.898  0.1706  0.0837 -0.0969
 2994DOPE   C4B35134  30.938  14.612  15.801 -0.2789 -0.3490  0.1851
 2995DOPE   NH335135  34.191  18.142  16.601  0.2064  0.0655  0.0690
 2995DOPE   PO435136  34.440  18.298  16.561 -0.0589  0.1220  0.1132
 2995DOPE   GL135137  34.382  18.374  16.151  0.2507  0.2443  0.3703
 2995DOPE   GL235138  34.531  18.594  16.056  0.1851  0.0963 -0.0965
 2995DOPE   C1A35139  34.593  18.125  15.827  0.0999 -0.5283 -0.2741
 2995DOPE   D2A35140  34.626  17.892  15.430  0.1823  0.1614  0.0868
 2995DOPE   C3A35141  34.383  17.906  15.048  0.1199 -0.4482  0.0139
 2995DOPE   C4A35142  34.209  17.794  14.630 -0.0838 -0.1546  0.1303
 2995DOPE   C1B35143  34.769  18.701  15.632 -0.2452 -0.0142  0.0658
 2995DOPE   D2B35144  34.590  18.800  15.224 -0.0696 -0.0776 -0.2822
 2995DOPE   C3B35145  34.644  18.775  14.742  0.3294  0.1031  0.1283
 2995DOPE   C4B35146  34.732  18.593  14.343  0.0213  0.5126  0.2710
 2996DOPS   CNO35147  25.390  16.444  16.066  0.1125  0.1090  0.0264
 2996DOPS   PO435148  25.016  16.294  16.118  0.1914 -0.0936 -0.0915
 2996DOPS   GL135149  24.968  16.315  15.734  0.0260  0.1105  0.2552
 2996DOPS   GL235150  25.226  16.259  15.618 -0.0967  0.0347  0.2886
 2996DOPS   C1A35151  24.755  16.556  15.365  0.4119  0.1229 -0.0870
 2996DOPS   D2A35152  24.805  16.988  15.241 -0.1370  0.1393  0.1306
 2996DOPS   C3A35153  24.985  17.348  14.978  0.2831  0.3939 -0.0612
 2996DOPS   C4A35154  25.084  17.653  14.647 -0.3494  0.0638 -0.2402
 2996DOPS   C1B35155  25.210  16.410  15.121  0.0711  0.0166 -0.1118
 2996DOPS   D2B35156  24.961  16.571  14.733 -0.1427 -0.1146 -0.2306
 2996DOPS   C3B35157  25.137  16.380  14.388  0.1331 -0.0375  0.2243
 2996DOPS   C4B35158  25.465  16.079  14.182  0.0951  0.2851 -0.0487
 2997POSM   NC335159  27.997  23.527  16.503  0.0830  0.0372 -0.2297
 2997POSM   PO435160  27.951  23.167  16.353  0.2781  0.2375 -0.2073
 2997POSM   AM135161  28.017  23.028  16.069 -0.1625  0.1805 -0.1733
 2997POSM   AM235162  27.906  22.812  15.894  0.0165  0.0801  0.0945
 2997POSM   T1A35163  27.994  23.101  15.569 -0.1289  0.0994  0.1832
 2997POSM   C2A35164  27.867  23.293  15.173  0.2430 -0.2678 -0.1522
 2997POSM   C3A35165  27.840  23.568  14.792 -0.1935  0.1413 -0.2163
 2997POSM   C1B35166  27.980  22.626  15.653 -0.0763 -0.0157  0.3119
 2997POSM   D2B35167  28.256  22.257  15.515 -0.4440 -0.2260  0.0379
 2997POSM   C3B35168  28.430  22.447  15.120 -0.3713 -0.3653  0.0807
 2997POSM   C4B35169  28.663  22.780  14.941 -0.0698 -0.1612  0.2483
 2998DOPC   NC335170  22.924  17.361  15.096 -0.0388 -0.1243  0.2874
 2998DOPC   PO435171  23.150  17.320  15.390  0.2341 -0.2155  0.1308
 2998DOPC   GL135172  23.409  17.431  15.078 -0.2218  0.2162  0.3974
 2998DOPC   GL235173  23.376  17.401  14.783  0.0868 -0.0651  0.2859
 2998DOPC   C1A35174  23.517  17.848  14.947 -0.0597 -0.0536  0.0201
 2998DOPC   D2A35175  23.622  18.112  14.573  0.0979  0.0597 -0.1596
 2998DOPC   C3A35176  23.453  18.019  14.144  0.0624  0.1266 -0.3192
 2998DOPC   C4A35177  23.512  17.755  13.788  0.1721  0.1301 -0.1399
 2998DOPC   C1B35178  23.672  17.612  14.517 -0.2453 -0.1885  0.2082
 2998DOPC   D2B35179  23.897  17.891  14.227 -0.0705 -0.1479 -0.2206
 2998DOPC   C3B35180  23.784  18.353  14.039  0.0162 -0.1053 -0.1464
 2998DOPC   C4B35181  23.879  18.703  13.718  0.1642  0.1381 -0.0790
 2999DOPC   NC335182  26.538  15.117  16.092 -0.2838  0.1810 -0.2857
 2999DOPC   PO435183  26.775  15.366  16.332  0.0262  0.1907  0.2984
 2999DOPC   GL135184  27.021  15.379  16.035  0.1647 -0.2344  0.3372
 2999DOPC   GL235185  26.843  15.374  15.792 -0.0237  0.0018  0.3011
 2999DOPC   C1A35186  27.411  15.524  15.738 -0.0986  0.2029 -0.0656
 2999DOPC   D2A35187  27.507  15.457  15.315 -0.2414 -0.0173 -0.1258
 2999DOPC   C3A35188  27.339  15.740  14.999  0.0032 -0.1504  0.1829
 2999DOPC   C4A35189  27.235  16.154  14.770 -0.0049 -0.0567 -0.1702
 2999DOPC   C1B35190  27.076  15.194  15.431 -0.3172  0.1788  0.0135
 2999DOPC   D2B35191  27.164  15.200  15.014  0.1135  0.2243  0.0234
 2999DOPC   C3B35192  27.544  15.270  14.707  0.0602 -0.3488 -0.2566
 2999DOPC   C4B35193  27.977  15.104  14.723  0.0152 -0.0453 -0.1785
 3000DOPS   CNO35194  25.619  12.549  15.611  0.2168 -0.1897 -0.0699
 3000DOPS   PO435195  25.975  12.546  15.697 -0.0393  0.1079 -0.1941
 3000DOPS   GL135196  26.059  12.630  15.319 -0.4341  0.3210 -0.1885
 3000DOPS   GL235197  25.786  12.820  15.226  0.0564  0.1264 -0.1835
 3000DOPS   C1A35198  26.326  12.488  14.971 -0.2237  0.3893 -0.1760
 3000DOPS   D2A35199  26.446  12.168  14.674 -0.0034 -0.2465  0.2745
 3000DOPS   C3A35200  26.629  11.742  14.834  0.1601 -0.1202  0.1737
 3000DOPS   C4A35201  26.771  11.286  14.784  0.0644  0.2123  0.1018
 3000DOPS   C1B35202  25.934  12.929  14.814 -0.0726  0.1875  0.2377
 3000DOPS   D2B35203  26.003  13.096  14.370  0.0653  0.1594  0.3298
 3000DOPS   C3B35204  26.458  13.185  14.240 -0.1287  0.1919 -0.0367
 3000DOPS   C4B35205  26.832  13.087  14.474  0.2415 -0.1163 -0.0546
 3001DOPC   NC335206  33.312  23.443  16.739 -0.1030 -0.0517 -0.1244
 3001DOPC   PO435207  33.312  23.041  16.647  0.2089 -0.1002  0.1315
 3001DOPC   GL135208  33.409  23.184  16.297 -0.4094  0.2951  0.1386
 3001DOPC   GL235209  33.200  23.307  16.181  0.0831 -0.1365 -0.0336
 3001DOPC   C1A35210  33.561  23.172  15.875 -0.0927  0.1236 -0.0287
 3001DOPC   D2A35211  33.554  23.290  15.421  0.1217 -0.5123 -0.1779
 3001DOPC   C3A35212  33.767  23.118  15.017  0.2011  0.0492 -0.0378
 3001DOPC   C4A35213  33.730  23.220  14.543  0.3474  0.1381 -0.0673
 3001DOPC   C1B35214  32.995  23.156  15.785  0.1094  0.1663 -0.2188
 3001DOPC   D2B35215  32.994  23.139  15.355  0.0781  0.0881 -0.6088
 3001DOPC   C3B35216  33.270  23.055  15.008  0.0987  0.0780 -0.0331
 3001DOPC   C4B35217  33.216  23.355  14.667 -0.3367 -0.2492 -0.1211
 3002POSM   NC335218  31.833  15.984  16.499  0.0837  0.1243 -0.0299
 3002POSM   PO435219  31.925  15.613  16.602  0.2173  0.2029  0.0801
 3002POSM   AM135220  31.759  15.450  16.330 -0.3058  0.0023  0.0211
 3002POSM   AM235221  31.551  15.585  16.191 -0.1973  0.4181  0.2603
 3002POSM   T1A35222  31.534  15.152  15.935  0.1433  0.3803 -0.0097
 3002POSM   C2A35223  31.401  14.715  15.756  0.2405  0.1224  0.1452
 3002POSM   C3A35224  31.293  14.481  15.360 -0.1915 -0.0130  0.0140
 3002POSM   C1B35225  31.654  15.855  16.016  0.2847 -0.0816 -0.1871
 3002POSM   D2B35226  31.716  16.304  15.802 -0.3062  0.2655  0.1084
 3002POSM   C3B35227  31.558  16.535  15.415 -0.1168 -0.0397  0.4054
 3002POSM   C4B35228  31.691  16.680  15.014 -0.2345 -0.1715  0.1480
 3003DOPC   NC335229  28.572  12.551  16.026 -0.3411  0.0767  0.1539
 3003DOPC   PO435230  28.799  12.307  16.228  0.0430  0.2325  0.2084
 3003DOPC   GL135231  29.048  12.069  15.951  0.2824 -0.1040 -0.2481
 3003DOPC   GL235232  29.302  12.238  16.028  0.0503  0.2261 -0.0978
 3003DOPC   C1A35233  29.339  11.935  15.617  0.3008 -0.1419 -0.0876
 3003DOPC   D2A35234  29.263  11.621  15.261 -0.0070 -0.0215 -0.0358
 3003DOPC   C3A35235  29.204  11.967  14.919  0.0670  0.1285  0.0011
 3003DOPC   C4A35236  29.008  12.369  14.787  0.0639  0.0183 -0.1449
 3003DOPC   C1B35237  29.150  12.523  15.703  0.0825 -0.0627  0.2515
 3003DOPC   D2B35238  29.070  12.432  15.269 -0.0196 -0.1439 -0.0515
 3003DOPC   C3B35239  29.457  12.368  15.025  0.3999  0.1398 -0.0923
 3003DOPC   C4B35240  29.677  12.058  14.743 -0.1194 -0.1456  0.0147
 3004DOPC   NC335241  32.766  11.689  15.678 -0.2938 -0.1298  0.0940
 3004DOPC   PO435242  32.392  11.876  15.803  0.0755  0.0983  0.2423
 3004DOPC   GL135243  32.377  11.828  15.462  0.0669  0.1456  0.0183
 3004DOPC   GL235244  32.112  11.776  15.377  0.0858  0.2534  0.1356
 3004DOPC   C1A35245  32.419  11.519  15.129 -0.3111  0.0710 -0.0099
 3004DOPC   D2A35246  32.036  11.285  14.983 -0.2824 -0.0026  0.2220
 3004DOPC   C3A35247  31.978  11.172  14.550 -0.1760  0.0818 -0.1857
 3004DOPC   C4A35248  32.056  11.271  14.097  0.1605 -0.0442 -0.0281
 3004DOPC   C1B35249  32.037  11.790  14.893  0.0466 -0.1819  0.2777
 3004DOPC   D2B35250  31.948  11.684  14.416 -0.0835 -0.0049  0.0655
 3004DOPC   C3B35251  31.630  11.948  14.156  0.0346  0.1822 -0.0179
 3004DOPC   C4B35252  31.389  12.329  14.177 -0.2381  0.1855 -0.0118
 3005DOPE   NH335253  30.438  11.950  16.840  0.2844 -0.1432 -0.1117
 3005DOPE   PO435254  30.238  11.721  16.745  0.1031  0.1178 -0.1836
 3005DOPE   GL135255  30.285  11.492  16.354 -0.0963 -0.3104 -0.0242
 3005DOPE   GL235256  30.056  11.712  16.239  0.2360 -0.2755  0.0143
 3005DOPE   C1A35257  30.294  11.256  15.963  0.1285 -0.0297  0.2550
 3005DOPE   D2A35258  30.218  11.060  15.584 -0.2920 -0.1881  0.2044
 3005DOPE   C3A35259  29.957  10.723  15.401 -0.1037  0.4661  0.0253
 3005DOPE   C4A35260  29.550  10.406  15.360  0.0657  0.0215 -0.0340
 3005DOPE   C1B35261  29.905  11.779  15.813 -0.0712 -0.0783  0.0170
 3005DOPE   D2B35262  30.021  11.605  15.439 -0.0012 -0.0145  0.4591
 3005DOPE   C3B35263  30.050  11.404  15.017 -0.0486 -0.1467  0.0576
 3005DOPE   C4B35264  29.948  10.940  14.895  0.3129 -0.0385  0.2452
 3006POSM   NC335265  33.329  12.803  16.033 -0.0196  0.0190 -0.1330
 3006POSM   PO435266  33.359  12.413  15.876  0.0584 -0.0731 -0.1263
 3006POSM   AM135267  33.358  12.555  15.574 -0.0608  0.2292 -0.1519
 3006POSM   AM235268  33.390  12.786  15.438 -0.2248 -0.3507 -0.0022
 3006POSM   T1A35269  33.375  12.427  15.097 -0.3616  0.4962 -0.0926
 3006POSM   C2A35270  33.590  12.235  14.751  0.0121  0.1183 -0.2495
 3006POSM   C3A35271  33.677  11.896  14.440 -0.2258 -0.0857 -0.1198
 3006POSM   C1B35272  33.381  13.019  15.193 -0.1424 -0.0218  0.0191
 3006POSM   D2B35273  33.285  13.125  14.773 -0.1335 -0.1118 -0.4308
 3006POSM   C3B35274  33.358  12.738  14.539  0.1465 -0.1330  0.1787
 3006POSM   C4B35275  33.463  12.387  14.175 -0.1086  0.0616  0.2928
 3007POSM   NC335276  23.977  18.933  16.181  0.2399 -0.0836  0.1289
 3007POSM   PO435277  24.389  18.890  16.228 -0.0980 -0.0198 -0.1769
 3007POSM   AM135278  24.514  18.893  15.910 -0.0514  0.3167 -0.5270
 3007POSM   AM235279  24.746  18.753  15.835  0.5023  0.2886 -0.1236
 3007POSM   T1A35280  24.478  19.024  15.437  0.2084 -0.1272 -0.0759
 3007POSM   C2A35281  24.487  19.399  15.166  0.0558 -0.0023 -0.2104
 3007POSM   C3A35282  24.589  19.832  15.109 -0.0886 -0.1380  0.3544
 3007POSM   C1B35283  24.855  18.681  15.521 -0.2176 -0.4102  0.3333
 3007POSM   D2B35284  25.063  18.580  15.143  0.1221 -0.2408  0.3498
 3007POSM   C3B35285  25.437  18.296  15.196 -0.3619 -0.0241 -0.0254
 3007POSM   C4B35286  25.750  18.003  15.269 -0.0428 -0.1667  0.1581
 3008DOPE   NH335287  23.948  13.309  15.478 -0.0241  0.2655  0.2108
 3008DOPE   PO435288  24.270  13.371  15.331 -0.1510 -0.0077 -0.1362
 3008DOPE   GL135289  24.484  13.347  15.002  0.3507  0.0819 -0.1265
 3008DOPE   GL235290  24.688  13.152  14.957 -0.1559 -0.0603 -0.0976
 3008DOPE   C1A35291  24.314  13.241  14.583 -0.0375 -0.1432 -0.0377
 3008DOPE   D2A35292  24.449  13.139  14.175 -0.1101 -0.0721 -0.1131
 3008DOPE   C3A35293  24.814  12.972  13.870  0.0198  0.1135 -0.1380
 3008DOPE   C4A35294  25.202  12.955  13.666  0.0375 -0.2246 -0.2185
 3008DOPE   C1B35295  24.806  13.352  14.638 -0.1857 -0.1539 -0.2425
 3008DOPE   D2B35296  25.134  13.369  14.280 -0.1635  0.1927 -0.1733
 3008DOPE   C3B35297  25.247  12.888  14.210 -0.0603 -0.3196  0.0357
 3008DOPE   C4B35298  25.066  12.477  14.257 -0.0753  0.1808  0.4256
 3009POSM   NC335299  23.589  13.823  15.031  0.4701 -0.2190 -0.1026
 3009POSM   PO435300  23.511  13.447  15.203  0.0304  0.0817 -0.0664
 3009POSM   AM135301  23.768  13.337  15.024  0.2196 -0.6402 -0.1836
 3009POSM   AM235302  24.010  13.453  14.911  0.1764 -0.4046 -0.3430
 3009POSM   T1A35303  23.916  12.975  14.678 -0.1088  0.2498  0.2065
 3009POSM   C2A35304  24.053  12.816  14.242 -0.1157  0.1667 -0.0408
 3009POSM   C3A35305  24.189  12.765  13.791 -0.2977 -0.1043 -0.0328
 3009POSM   C1B35306  23.888  13.681  14.674 -0.1919 -0.2781  0.0912
 3009POSM   D2B35307  23.859  13.880  14.262  0.0482 -0.0513 -0.0380
 3009POSM   C3B35308  24.243  13.992  14.007 -0.2177 -0.1331  0.0670
 3009POSM   C4B35309  24.595  14.269  14.136  0.1390 -0.1511  0.3110
 3010DOPE   NH335310  27.677  22.197  16.463  0.1754 -0.1345 -0.2339
 3010DOPE   PO435311  27.395  22.105  16.328  0.0984 -0.2200 -0.1341
 3010DOPE   GL135312  27.427  22.054  15.862 -0.1633  0.1468  0.2462
 3010DOPE   GL235313  27.261  21.937  15.630  0.1585 -0.0343 -0.0728
 3010DOPE   C1A35314  27.725  22.218  15.578 -0.2943  0.0873  0.1622
 3010DOPE   D2A35315  27.969  22.189  15.136  0.1611  0.2622 -0.2179
 3010DOPE   C3A35316  28.314  22.038  14.811  0.0818  0.0346 -0.0733
 3010DOPE   C4A35317  28.784  22.127  14.858  0.1971  0.1654  0.0546
 3010DOPE   C1B35318  27.130  22.444  15.712  0.3645  0.0885 -0.1611
 3010DOPE   D2B35319  27.499  22.697  15.628  0.2424 -0.1441 -0.1616
 3010DOPE   C3B35320  27.681  22.690  15.240  0.4169  0.0344 -0.1350
 3010DOPE   C4B35321  27.759  22.912  14.857  0.0999  0.1046 -0.2157
 3011POSM   NC335322  23.832  16.867  15.707 -0.2022  0.0904  0.2546
 3011POSM   PO435323  23.434  16.997  15.712  0.1338 -0.0524 -0.1702
 3011POSM   AM135324  23.458  16.835  15.413 -0.0978 -0.2603 -0.2045
 3011POSM   AM235325  23.676  16.783  15.239  0.1897  0.3876  0.1957
 3011POSM   T1A35326  23.391  16.931  14.883 -0.1636 -0.0758  0.0105
 3011POSM   C2A35327  23.471  17.034  14.404  0.0893 -0.0069  0.0592
 3011POSM   C3A35328  23.504  17.040  13.951 -0.2882  0.0130  0.0304
 3011POSM   C1B35329  23.780  16.646  14.944 -0.1175 -0.2084  0.2899
 3011POSM   D2B35330  23.891  16.602  14.484 -0.3227  0.1230  0.2069
 3011POSM   C3B35331  23.627  16.602  14.138 -0.0313 -0.2509 -0.1480
 3011POSM   C4B35332  23.679  16.674  13.709  0.0408  0.4090  0.2179
 3012DOPS   CNO35333  34.167  14.370  15.610  0.0885  0.0053  0.4477
 3012DOPS   PO435334  34.312  14.028  15.502 -0.0131  0.0258  0.0978
 3012DOPS   GL135335  34.497  13.893  15.105 -0.0330 -0.0881 -0.0037
 3012DOPS   GL235336  34.738  13.768  15.012 -0.1464  0.0851 -0.2064
 3012DOPS   C1A35337  34.430  13.956  14.639  0.0615 -0.1503 -0.0605
 3012DOPS   D2A35338  34.392  13.763  14.197 -0.1344 -0.0628  0.4005
 3012DOPS   C3A35339  34.781  13.488  14.083 -0.0053 -0.1288 -0.0568
 3012DOPS   C4A35340  34.765  13.067  14.309  0.1837  0.3287  0.0007
 3012DOPS   C1B35341  34.960  13.799  14.627  0.3434 -0.1513 -0.0290
 3012DOPS   D2B35342  35.248  13.620  14.271  0.4255 -0.2236 -0.0202
 3012DOPS   C3B35343  35.222  13.153  14.235 -0.0069 -0.1951  0.1032
 3012DOPS   C4B35344  35.481  12.769  14.302 -0.0461  0.1361  0.0631
 3013DOPC   NC335345  28.713  21.891  16.338 -0.0420  0.3540 -0.0696
 3013DOPC   PO435346  28.361  21.681  16.235 -0.0914 -0.2771  0.1793
 3013DOPC   GL135347  28.498  21.337  16.011 -0.2903  0.0533  0.1821
 3013DOPC   GL235348  28.724  21.487  15.884 -0.1920  0.0603 -0.1188
 3013DOPC   C1A35349  28.723  21.043  15.730 -0.3294 -0.1537  0.2575
 3013DOPC   D2A35350  29.022  20.697  15.646  0.0252 -0.0444  0.0431
 3013DOPC   C3A35351  29.184  20.432  15.327 -0.1505 -0.2010 -0.3068
 3013DOPC   C4A35352  29.583  20.310  15.040  0.0026  0.2612 -0.1026
 3013DOPC   C1B35353  28.580  21.532  15.519  0.0903 -0.1122 -0.1779
 3013DOPC   D2B35354  28.586  21.561  15.047  0.1702  0.1068  0.2877
 3013DOPC   C3B35355  28.308  21.484  14.653  0.1272 -0.2013  0.2402
 3013DOPC   C4B35356  27.870  21.418  14.406 -0.1134 -0.2643  0.2601
 3014DOPS   CNO35357  23.190  22.413  15.567 -0.1136 -0.1891  0.3090
 3014DOPS   PO435358  23.505  22.361  15.746 -0.0088  0.1387 -0.1759
 3014DOPS   GL135359  23.677  22.217  15.346 -0.2315  0.0744  0.1484
 3014DOPS   GL235360  23.631  22.534  15.288 -0.3188  0.0474 -0.1674
 3014DOPS   C1A35361  23.650  22.045  14.918 -0.1375  0.0571  0.1936
 3014DOPS   D2A35362  23.796  21.994  14.428 -0.0751 -0.1164  0.0929
 3014DOPS   C3A35363  24.253  22.118  14.231  0.1078 -0.2040  0.1010
 3014DOPS   C4A35364  24.426  22.241  13.837  0.2578 -0.0516  0.1605
 3014DOPS   C1B35365  23.636  22.501  14.816  0.2132  0.0534 -0.2079
 3014DOPS   D2B35366  23.453  22.492  14.375  0.3803 -0.0588  0.1495
 3014DOPS   C3B35367  23.695  22.798  14.118 -0.2263  0.1487  0.1034
 3014DOPS   C4B35368  24.152  22.717  13.867  0.0259  0.1447  0.1355
 3015DOPE   NH335369  32.759  20.163  15.973 -0.1883  0.1930  0.0937
 3015DOPE   PO435370  32.971  20.392  16.040  0.0349  0.0002  0.1996
 3015DOPE   GL135371  32.991  20.629  15.716 -0.0401  0.0781  0.0451
 3015DOPE   GL235372  32.746  20.571  15.638 -0.1785 -0.0863  0.1249
 3015DOPE   C1A35373  33.281  20.903  15.438 -0.0996  0.2295  0.1737
 3015DOPE   D2A35374  33.531  21.112  15.134 -0.1686 -0.1343 -0.1085
 3015DOPE   C3A35375  33.410  21.018  14.656  0.0568 -0.0583 -0.1272
 3015DOPE   C4A35376  33.060  20.872  14.326 -0.2250  0.0936 -0.0425
 3015DOPE   C1B35377  32.403  20.271  15.506 -0.0088  0.0675  0.3686
 3015DOPE   D2B35378  32.132  20.038  15.219  0.0868 -0.0820 -0.0894
 3015DOPE   C3B35379  32.108  20.054  14.749  0.3794 -0.2156 -0.1935
 3015DOPE   C4B35380  32.009  19.955  14.293  0.0484  0.1967  0.0520
 3016DOPC   NC335381  24.098  18.524  16.509  0.0324 -0.0816 -0.1148
 3016DOPC   PO435382  23.861  18.360  16.213 -0.0878  0.0357  0.0421
 3016DOPC   GL135383  24.058  18.388  15.913  0.1342  0.1027  0.0759
 3016DOPC   GL235384  23.830  18.568  15.719 -0.3230 -0.1588 -0.1431
 3016DOPC   C1A35385  24.017  18.157  15.501  0.1106  0.1608  0.0839
 3016DOPC   D2A35386  23.934  18.070  15.054  0.1841 -0.2128  0.1944
 3016DOPC   C3A35387  24.167  18.030  14.710 -0.0864  0.1872  0.4727
 3016DOPC   C4A35388  24.323  18.126  14.327  0.0382 -0.0571 -0.0318
 3016DOPC   C1B35389  24.214  18.596  15.504 -0.0122 -0.0387 -0.0420
 3016DOPC   D2B35390  24.518  18.323  15.369  0.0437  0.0386 -0.1056
 3016DOPC   C3B35391  24.419  17.944  15.158 -0.2166 -0.2798 -0.0128
 3016DOPC   C4B35392  24.562  17.542  14.879 -0.0233  0.0424  0.0595
 3017DOPS   CNO35393  23.841  14.637  15.273  0.0403  0.1245  0.1607
 3017DOPS   PO435394  23.555  14.386  15.188 -0.2633  0.2347  0.0529
 3017DOPS   GL135395  23.747  14.399  14.831  0.1684  0.0103 -0.0083
 3017DOPS   GL235396  23.748  14.172  14.683 -0.2107 -0.0421  0.0446
 3017DOPS   C1A35397  23.732  14.636  14.460  0.2203  0.2854 -0.2471
 3017DOPS   D2A35398  23.800  14.874  14.060 -0.4204  0.0767 -0.2618
 3017DOPS   C3A35399  23.510  14.890  13.713 -0.0727  0.0882  0.0436
 3017DOPS   C4A35400  23.350  15.160  13.354  0.0559  0.0611 -0.0777
 3017DOPS   C1B35401  23.483  14.220  14.292  0.0649 -0.1019  0.1311
 3017DOPS   D2B35402  23.349  14.475  13.941 -0.3092  0.1857  0.3417
 3017DOPS   C3B35403  23.082  14.858  13.949 -0.0344  0.2606 -0.2424
 3017DOPS   C4B35404  23.004  15.183  13.708 -0.1960 -0.2030 -0.3027
 3018DOPC   NC335405  27.229  14.023  15.869 -0.0001  0.0282 -0.0548
 3018DOPC   PO435406  26.981  14.310  15.899 -0.1162  0.1780  0.2139
 3018DOPC   GL135407  26.666  14.163  15.643  0.0792  0.0063 -0.1231
 3018DOPC   GL235408  26.676  14.346  15.438  0.2021  0.2020 -0.0791
 3018DOPC   C1A35409  26.714  13.862  15.322  0.0981  0.1902 -0.0467
 3018DOPC   D2A35410  26.855  13.441  15.163  0.1350  0.0095  0.2412
 3018DOPC   C3A35411  26.826  13.531  14.710  0.1331 -0.3174  0.1121
 3018DOPC   C4A35412  26.638  13.621  14.309 -0.0602  0.1772 -0.1062
 3018DOPC   C1B35413  26.931  14.272  15.008 -0.0929  0.2611 -0.0649
 3018DOPC   D2B35414  27.358  14.344  14.914  0.1820  0.0322  0.1322
 3018DOPC   C3B35415  27.495  14.794  14.713  0.0287 -0.0916  0.0279
 3018DOPC   C4B35416  27.178  15.032  14.406 -0.0589  0.2124 -0.0389
 3019DOPE   NH335417  33.870  19.766  16.215 -0.2008 -0.0632  0.2607
 3019DOPE   PO435418  33.766  20.034  16.079  0.0505 -0.3012  0.2764
 3019DOPE   GL135419  33.693  20.313  15.765 -0.1107  0.0496  0.1656
 3019DOPE   GL235420  33.885  20.563  15.719  0.0148  0.0356 -0.1003
 3019DOPE   C1A35421  33.276  20.333  15.448 -0.0419  0.0635  0.1248
 3019DOPE   D2A35422  32.996  20.585  15.174  0.0837 -0.1581  0.0414
 3019DOPE   C3A35423  33.009  20.516  14.722 -0.4006 -0.3203  0.0945
 3019DOPE   C4A35424  33.203  20.410  14.274 -0.1934  0.2142  0.1724
 3019DOPE   C1B35425  33.761  20.633  15.268 -0.1100 -0.0631 -0.0112
 3019DOPE   D2B35426  33.467  20.627  14.955 -0.1047  0.0971 -0.0564
 3019DOPE   C3B35427  33.411  20.286  14.666 -0.0579 -0.3258  0.1005
 3019DOPE   C4B35428  33.319  19.858  14.663  0.0635  0.2477 -0.0020
 3020POSM   NC335429  30.546  20.062  16.967 -0.0202 -0.1729  0.1338
 3020POSM   PO435430  30.380  20.420  16.975  0.1942 -0.0266 -0.1201
 3020POSM   AM135431  30.148  20.303  16.719 -0.1615  0.0034 -0.0601
 3020POSM   AM235432  30.001  20.416  16.499  0.0040  0.1382 -0.1576
 3020POSM   T1A35433  29.865  20.002  16.410  0.3147  0.1186 -0.0564
 3020POSM   C2A35434  29.479  19.856  16.249  0.0958 -0.0827  0.0338
 3020POSM   C3A35435  29.129  19.546  16.151 -0.4327  0.0485  0.0301
 3020POSM   C1B35436  29.988  20.585  16.125 -0.3732 -0.0082 -0.1533
 3020POSM   D2B35437  29.994  20.642  15.674 -0.1444  0.0884  0.0993
 3020POSM   C3B35438  30.055  21.108  15.538 -0.0659  0.3067  0.1717
 3020POSM   C4B35439  30.342  21.254  15.264 -0.0087 -0.3071  0.1103
 3021DOPE   NH335440  27.986  21.378  16.100  0.0297 -0.0752 -0.1142
 3021DOPE   PO435441  27.775  21.100  16.082 -0.0138  0.1407  0.2323
 3021DOPE   GL135442  27.779  21.306  15.669 -0.0418 -0.0934 -0.0393
 3021DOPE   GL235443  28.078  21.424  15.598 -0.0484  0.3225 -0.0636
 3021DOPE   C1A35444  27.753  21.166  15.207 -0.1001  0.0187 -0.2321
 3021DOPE   D2A35445  27.910  20.947  14.818  0.1260 -0.3166 -0.3364
 3021DOPE   C3A35446  28.233  21.021  14.480 -0.0609  0.2855  0.1973
 3021DOPE   C4A35447  28.270  21.037  14.030  0.0123 -0.1452 -0.1451
 3021DOPE   C1B35448  28.283  21.184  15.228 -0.0457  0.1833  0.1485
 3021DOPE   D2B35449  28.364  20.736  14.981 -0.0821 -0.0154 -0.0735
 3021DOPE   C3B35450  28.025  20.456  15.151  0.3014  0.2189 -0.0651
 3021DOPE   C4B35451  27.941  19.977  15.240  0.0390  0.1606 -0.0600
 3022POSM   NC335452  30.378  19.871  16.411 -0.0802  0.0457  0.1571
 3022POSM   PO435453  30.535  20.193  16.493  0.2936  0.2822 -0.0054
 3022POSM   AM135454  30.551  20.391  16.259 -0.0594 -0.3455  0.0395
 3022POSM   AM235455  30.746  20.543  16.115  0.0898 -0.0904  0.1164
 3022POSM   T1A35456  30.468  20.373  15.752 -0.4271 -0.2471 -0.0939
 3022POSM   C2A35457  30.478  20.334  15.245 -0.1310  0.0873  0.6006
 3022POSM   C3A35458  30.735  20.498  14.928  0.2724  0.2501  0.1079
 3022POSM   C1B35459  30.917  20.535  15.841 -0.0681  0.1057 -0.0596
 3022POSM   D2B35460  31.019  20.455  15.402  0.1001 -0.0092 -0.2272
 3022POSM   C3B35461  31.372  20.162  15.303  0.0721  0.1592  0.0262
 3022POSM   C4B35462  31.651  20.040  14.923  0.0834 -0.0346  0.0286
 3023DOPC   NC335463  31.767  15.868  17.058  0.0638  0.2297  0.1766
 3023DOPC   PO435464  31.732  16.230  16.954 -0.2176 -0.2002  0.1226
 3023DOPC   GL135465  31.453  16.329  16.728 -0.1329 -0.4979  0.5800
 3023DOPC   GL235466  31.268  16.143  16.750 -0.1369 -0.0175 -0.1133
 3023DOPC   C1A35467  31.434  16.312  16.245  0.0894  0.1861  0.3467
 3023DOPC   D2A35468  31.218  16.140  15.884 -0.0491 -0.0685 -0.2649
 3023DOPC   C3A35469  31.168  15.901  15.476  0.1138 -0.1309 -0.2877
 3023DOPC   C4A35470  31.197  15.700  15.046  0.0584 -0.1237 -0.0479
 3023DOPC   C1B35471  30.938  16.234  16.449  0.0386  0.0955  0.2647
 3023DOPC   D2B35472  30.762  16.119  16.048 -0.3213 -0.0263  0.1495
 3023DOPC   C3B35473  30.686  16.128  15.584 -0.4494  0.4460  0.0504
 3023DOPC   C4B35474  30.766  15.964  15.168  0.1080  0.1785  0.0492
 3024DOPE   NH335475  29.058  22.242  16.546 -0.4489  0.0159  0.2880
 3024DOPE   PO435476  29.240  21.968  16.552 -0.0195  0.2457  0.1270
 3024DOPE   GL135477  29.401  21.968  16.198  0.2296  0.2263  0.1737
 3024DOPE   GL235478  29.572  21.717  16.216 -0.1975  0.0385  0.2486
 3024DOPE   C1A35479  29.567  21.909  15.754 -0.0426  0.2474 -0.1114
 3024DOPE   D2A35480  29.450  21.676  15.374  0.1242  0.1510 -0.1442
 3024DOPE   C3A35481  29.524  21.716  14.909 -0.0370 -0.1447  0.2015
 3024DOPE   C4A35482  29.833  21.769  14.566  0.0197  0.0029 -0.3083
 3024DOPE   C1B35483  29.884  22.062  16.170  0.2479  0.0208 -0.0895
 3024DOPE   D2B35484  30.160  22.036  15.771  0.0097 -0.1030 -0.0010
 3024DOPE   C3B35485  30.136  22.225  15.386 -0.3576 -0.0279  0.2703
 3024DOPE   C4B35486  30.446  22.506  15.203  0.4865 -0.2605  0.1701
 3025POSM   NC335487  29.732  11.948  16.646 -0.1704 -0.1323  0.3411
 3025POSM   PO435488  29.948  12.257  16.517  0.0502  0.1463 -0.2095
 3025POSM   AM135489  30.086  12.219  16.190  0.0061 -0.1970 -0.0859
 3025POSM   AM235490  30.216  12.344  15.945  0.0984  0.0757  0.0759
 3025POSM   T1A35491  30.415  11.856  15.928  0.1267 -0.2074 -0.0503
 3025POSM   C2A35492  30.627  11.642  15.626 -0.3129 -0.1220  0.1986
 3025POSM   C3A35493  30.527  11.471  15.215  0.0242  0.2978 -0.2264
 3025POSM   C1B35494  30.295  12.307  15.637  0.0530  0.1357  0.1764
 3025POSM   D2B35495  30.491  11.991  15.279 -0.1458  0.1345 -0.2081
 3025POSM   C3B35496  30.667  12.190  14.879 -0.4207 -0.1764  0.0821
 3025POSM   C4B35497  31.043  12.152  14.602  0.2373  0.0320 -0.1174
 3026DOPE   NH335498  32.653  21.780  15.962  0.0443  0.1878 -0.0194
 3026DOPE   PO435499  32.814  21.487  15.914 -0.0292  0.0897 -0.0543
 3026DOPE   GL135500  32.785  21.263  15.444  0.1011 -0.0774 -0.1311
 3026DOPE   GL235501  32.825  21.010  15.397  0.3316  0.1601  0.1036
 3026DOPE   C1A35502  32.525  21.322  15.102 -0.2686  0.1332  0.0232
 3026DOPE   D2A35503  32.273  21.358  14.685  0.3277  0.0982 -0.2545
 3026DOPE   C3A35504  32.200  21.644  14.310 -0.2536  0.3025  0.0546
 3026DOPE   C4A35505  32.475  22.044  14.387 -0.2288  0.1653  0.2563
 3026DOPE   C1B35506  32.919  21.047  14.950  0.0370 -0.3400 -0.0006
 3026DOPE   D2B35507  33.077  21.332  14.637 -0.1215 -0.1665 -0.0305
 3026DOPE   C3B35508  32.841  21.618  14.445  0.0561  0.1137  0.1471
 3026DOPE   C4B35509  32.956  22.033  14.400  0.1699  0.1366 -0.0242
 3027DOPE   NH335510  23.480  15.834  15.456 -0.1553  0.0555  0.0161
 3027DOPE   PO435511  23.722  15.648  15.494 -0.0745  0.2263  0.1779
 3027DOPE   GL135512  23.927  15.714  15.178 -0.0741  0.2564  0.2691
 3027DOPE   GL235513  24.033  15.507  14.963 -0.2038  0.2994 -0.0915
 3027DOPE   C1A35514  23.711  15.909  14.822 -0.1807 -0.1754  0.0467
 3027DOPE   D2A35515  23.788  15.841  14.398 -0.1590  0.1830 -0.0127
 3027DOPE   C3A35516  23.869  16.147  14.022  0.1868  0.2506  0.0415
 3027DOPE   C4A35517  23.481  16.181  13.719  0.2220  0.2218  0.0824
 3027DOPE   C1B35518  24.256  15.224  14.678  0.0507 -0.0080  0.1087
 3027DOPE   D2B35519  24.676  15.139  14.522 -0.0848 -0.1171 -0.0951
 3027DOPE   C3B35520  24.891  15.182  14.076 -0.0169  0.1929 -0.0872
 3027DOPE   C4B35521  25.071  15.259  13.644 -0.1186  0.1117  0.0756
 3028DOPE   NH335522  32.119  18.313  16.754 -0.1964 -0.1570  0.0624
 3028DOPE   PO435523  31.805  18.270  16.819  0.0076 -0.1007  0.2126
 3028DOPE   GL135524  31.637  18.309  16.446 -0.1664  0.0762  0.0326
 3028DOPE   GL235525  31.837  18.195  16.333 -0.3900 -0.1543  0.0036
 3028DOPE   C1A35526  31.569  18.614  16.096  0.3870  0.0047  0.2185
 3028DOPE   D2A35527  31.553  18.411  15.688  0.0918  0.1027  0.3029
 3028DOPE   C3A35528  31.197  18.287  15.497  0.2899 -0.0379 -0.2576
 3028DOPE   C4A35529  30.928  18.645  15.431 -0.1155  0.1766 -0.1674
 3028DOPE   C1B35530  31.481  18.052  16.057 -0.1039 -0.0288  0.0988
 3028DOPE   D2B35531  31.190  17.753  15.811 -0.0721 -0.2388  0.1647
 3028DOPE   C3B35532  31.295  17.652  15.407  0.1673 -0.1251 -0.2509
 3028DOPE   C4B35533  31.438  18.057  15.154  0.0104 -0.1908 -0.3179
 3029DOPE   NH335534  24.669  13.097  15.500  0.3426  0.2880  0.1910
 3029DOPE   PO435535  24.432  12.912  15.629 -0.2964 -0.3582  0.3696
 3029DOPE   GL135536  24.155  12.854  15.317  0.3964 -0.4048  0.0069
 3029DOPE   GL235537  24.231  12.960  15.043 -0.2603  0.1455 -0.4246
 3029DOPE   C1A35538  23.951  12.462  15.163 -0.0637  0.0651 -0.0181
 3029DOPE   D2A35539  23.881  11.970  15.188 -0.1035 -0.1874  0.0992
 3029DOPE   C3A35540  23.984  11.621  14.862 -0.1826 -0.1103 -0.0129
 3029DOPE   C4A35541  23.949  11.192  14.645 -0.2358  0.1384 -0.0379
 3029DOPE   C1B35542  24.450  12.601  14.773  0.0474 -0.2223  0.2138
 3029DOPE   D2B35543  24.713  12.219  14.610  0.2215 -0.0626 -0.0682
 3029DOPE   C3B35544  24.382  11.914  14.557  0.0781  0.0527 -0.2614
 3029DOPE   C4B35545  24.214  11.526  14.366 -0.5344 -0.0616 -0.2122
 3030POSM   NC335546  32.886  13.002  16.136 -0.0429  0.1510 -0.1090
 3030POSM   PO435547  32.868  13.349  15.958 -0.1564 -0.0985  0.3791
 3030POSM   AM135548  32.706  13.593  15.832 -0.0666 -0.1396  0.2944
 3030POSM   AM235549  32.430  13.623  15.850 -0.1643  0.1088 -0.0570
 3030POSM   T1A35550  32.653  14.002  15.517  0.0759  0.0024  0.2015
 3030POSM   C2A35551  32.548  14.319  15.174 -0.0209 -0.0286 -0.1824
 3030POSM   C3A35552  32.490  14.345  14.753 -0.2230 -0.1063  0.2315
 3030POSM   C1B35553  32.228  13.661  15.542 -0.1884 -0.1713  0.0128
 3030POSM   D2B35554  32.056  13.912  15.202  0.1970  0.1020 -0.0490
 3030POSM   C3B35555  31.861  13.898  14.762 -0.2814  0.0357  0.1562
 3030POSM   C4B35556  31.780  14.057  14.279  0.0504  0.0141 -0.1237
 3031DOPE   NH335557  32.234  20.162  16.470 -0.0928  0.2097  0.2829
 3031DOPE   PO435558  32.550  20.079  16.449  0.2519  0.0091  0.1543
 3031DOPE   GL135559  32.434  19.860  16.123  0.0222 -0.0586  0.3059
 3031DOPE   GL235560  32.293  19.977  15.895  0.0774 -0.0789  0.0233
 3031DOPE   C1A35561  32.386  19.432  16.015 -0.0900  0.2234 -0.1669
 3031DOPE   D2A35562  32.039  19.103  15.971 -0.1579 -0.0411 -0.2130
 3031DOPE   C3A35563  31.686  18.984  15.780 -0.0749 -0.1691 -0.4419
 3031DOPE   C4A35564  31.244  18.880  15.730  0.2370  0.3866 -0.2881
 3031DOPE   C1B35565  32.423  19.767  15.596  0.1941  0.0108 -0.0452
 3031DOPE   D2B35566  32.590  19.776  15.214 -0.0312 -0.1203 -0.1195
 3031DOPE   C3B35567  32.472  19.765  14.786 -0.4123 -0.1224  0.2467
 3031DOPE   C4B35568  32.478  19.629  14.364 -0.3168  0.3884  0.1378
 3032DOPE   NH335569  32.302  22.313  16.337 -0.2763 -0.1020 -0.0839
 3032DOPE   PO435570  32.307  22.028  16.246 -0.0464 -0.0308 -0.0969
 3032DOPE   GL135571  32.441  22.229  15.834  0.0901  0.1996 -0.1880
 3032DOPE   GL235572  32.417  22.523  15.885  0.0130  0.1473  0.0963
 3032DOPE   C1A35573  32.256  22.403  15.430 -0.0550  0.0755  0.1322
 3032DOPE   D2A35574  32.075  22.485  14.989  0.0248  0.0375 -0.2360
 3032DOPE   C3A35575  32.117  22.533  14.483  0.2284  0.1066  0.3134
 3032DOPE   C4A35576  32.336  22.442  14.039 -0.0831 -0.1518  0.2800
 3032DOPE   C1B35577  32.870  22.624  15.677  0.1423 -0.0330  0.0003
 3032DOPE   D2B35578  33.346  22.746  15.714 -0.1943 -0.2799 -0.0434
 3032DOPE   C3B35579  33.489  22.690  15.277  0.1430 -0.0356 -0.0337
 3032DOPE   C4B35580  33.597  22.601  14.868 -0.3630 -0.0070 -0.2346
 3033POSM   NC335581  30.782  15.278  16.817  0.0478 -0.0425  0.0542
 3033POSM   PO435582  30.820  15.619  16.996  0.0110 -0.2204 -0.1195
 3033POSM   AM135583  30.820  15.761  16.695  0.0934  0.0788  0.2575
 3033POSM   AM235584  30.718  15.611  16.476 -0.1602 -0.1375  0.0341
 3033POSM   T1A35585  31.103  15.812  16.253  0.0185 -0.4467 -0.0391
 3033POSM   C2A35586  31.154  15.562  15.894  0.0712 -0.2002 -0.0395
 3033POSM   C3A35587  31.437  15.511  15.573 -0.0347  0.0610  0.0772
 3033POSM   C1B35588  30.683  15.545  16.146 -0.1501 -0.0403  0.0724
 3033POSM   D2B35589  30.704  15.661  15.704 -0.1675 -0.1051 -0.1399
 3033POSM   C3B35590  30.706  15.358  15.331  0.2801  0.0878  0.1287
 3033POSM   C4B35591  30.736  15.197  14.945 -0.2645  0.0500 -0.2457
 3034DOPC   NC335592  25.960  19.982  16.317  0.4069 -0.0966  0.0369
 3034DOPC   PO435593  25.787  19.664  16.197 -0.0267  0.1298  0.1179
 3034DOPC   GL135594  26.068  19.503  15.958  0.1354  0.0504  0.0140
 3034DOPC   GL235595  25.892  19.714  15.708 -0.2772  0.1386 -0.1290
 3034DOPC   C1A35596  26.004  19.123  15.701  0.1887 -0.0119  0.1350
 3034DOPC   D2A35597  25.864  18.730  15.408  0.1745 -0.2332  0.1163
 3034DOPC   C3A35598  25.580  18.756  15.004  0.1533  0.2223  0.2464
 3034DOPC   C4A35599  25.638  18.915  14.589  0.0599 -0.3826 -0.1301
 3034DOPC   C1B35600  25.992  19.480  15.303  0.1004  0.1044 -0.1150
 3034DOPC   D2B35601  25.936  19.089  15.066  0.1321 -0.1332 -0.0147
 3034DOPC   C3B35602  26.102  19.182  14.642  0.1265  0.0690 -0.2243
 3034DOPC   C4B35603  25.885  19.405  14.283  0.1003 -0.0929  0.1772
 3035DOPE   NH335604  24.648  13.611  15.542  0.1321  0.0358  0.2041
 3035DOPE   PO435605  24.793  13.540  15.255 -0.0049 -0.1118  0.3891
 3035DOPE   GL135606  24.859  13.735  14.928  0.2822 -0.3180  0.1731
 3035DOPE   GL235607  24.990  14.034  14.942  0.0731  0.1772  0.1591
 3035DOPE   C1A35608  24.907  13.885  14.433  0.3633  0.3640  0.1703
 3035DOPE   D2A35609  24.943  13.914  13.968  0.0664  0.0740 -0.1019
 3035DOPE   C3A35610  25.156  13.915  13.546 -0.2151 -0.1883 -0.0602
 3035DOPE   C4A35611  25.237  13.729  13.111 -0.1152 -0.0012  0.2839
 3035DOPE   C1B35612  25.202  14.352  14.701  0.0777 -0.1489  0.2208
 3035DOPE   D2B35613  25.614  14.376  14.505 -0.3312 -0.2885 -0.1836
 3035DOPE   C3B35614  25.564  14.510  14.064  0.4211  0.0811  0.2928
 3035DOPE   C4B35615  25.738  14.823  13.728 -0.3733 -0.2170 -0.0959
 3036DOPC   NC335616  33.520  17.447  16.577  0.1438 -0.2583  0.2888
 3036DOPC   PO435617  33.829  17.217  16.470 -0.1717  0.0818 -0.1063
 3036DOPC   GL135618  33.647  17.321  16.173  0.2573 -0.1504  0.0362
 3036DOPC   GL235619  33.458  17.201  16.049  0.0846  0.0374 -0.0852
 3036DOPC   C1A35620  33.792  17.441  15.792 -0.0180 -0.1131  0.1891
 3036DOPC   D2A35621  33.861  17.420  15.327 -0.1537  0.0307  0.1016
 3036DOPC   C3A35622  33.608  17.334  14.956  0.1200 -0.1378 -0.0476
 3036DOPC   C4A35623  33.312  17.354  14.620 -0.1022 -0.0528  0.0992
 3036DOPC   C1B35624  33.531  17.025  15.585 -0.2468 -0.1579 -0.1002
 3036DOPC   D2B35625  33.641  16.818  15.182  0.2214 -0.0755 -0.3214
 3036DOPC   C3B35626  33.421  16.467  14.934  0.0535  0.3054  0.2082
 3036DOPC   C4B35627  33.424  16.047  14.944 -0.0102 -0.1567  0.3699
 3037POSM   NC335628  24.977  11.219  15.661  0.3313  0.1624  0.1327
 3037POSM   PO435629  24.551  11.168  15.624 -0.0359 -0.0120 -0.0150
 3037POSM   AM135630  24.482  11.374  15.352 -0.2207 -0.2552 -0.0100
 3037POSM   AM235631  24.283  11.347  15.105  0.0369 -0.2663  0.0155
 3037POSM   T1A35632  24.541  11.810  15.137 -0.0449  0.0288 -0.0647
 3037POSM   C2A35633  24.325  12.179  14.999  0.2390 -0.1910 -0.1364
 3037POSM   C3A35634  24.062  12.360  14.615 -0.1571 -0.0716 -0.3044
 3037POSM   C1B35635  24.481  11.322  14.797  0.1233 -0.0705 -0.0722
 3037POSM   D2B35636  24.732  11.329  14.362 -0.1467 -0.3427 -0.1599
 3037POSM   C3B35637  25.043  11.613  14.150 -0.2319 -0.1291 -0.0315
 3037POSM   C4B35638  25.474  11.670  14.282  0.0080  0.1897 -0.1436
 3038DOPE   NH335639  32.249  14.066  16.866  0.4961 -0.1709  0.0801
 3038DOPE   PO435640  32.130  13.837  16.641  0.1462 -0.2003 -0.1916
 3038DOPE   GL135641  31.798  13.977  16.371  0.3747 -0.1408  0.3029
 3038DOPE   GL235642  31.709  14.269  16.438 -0.0466 -0.0272 -0.0144
 3038DOPE   C1A35643  31.407  14.105  16.099 -0.1906 -0.1223 -0.4425
 3038DOPE   D2A35644  31.167  14.210  15.772  0.1304  0.1145  0.2614
 3038DOPE   C3A35645  31.256  13.981  15.374  0.1992  0.2864  0.0427
 3038DOPE   C4A35646  31.123  13.579  15.247  0.0989 -0.2852  0.3401
 3038DOPE   C1B35647  31.846  14.453  16.011 -0.1445 -0.0301  0.2173
 3038DOPE   D2B35648  31.939  14.835  15.796  0.0622  0.1095 -0.0478
 3038DOPE   C3B35649  31.790  15.143  15.500 -0.2666 -0.1769 -0.0007
 3038DOPE   C4B35650  31.466  15.291  15.148  0.2905 -0.1240  0.3055
 3039DOPE   NH335651  33.743  14.455  15.836 -0.0279 -0.0954  0.3075
 3039DOPE   PO435652  33.538  14.684  15.893 -0.0022  0.1407 -0.0331
 3039DOPE   GL135653  33.240  14.896  15.751 -0.1254  0.0184  0.2240
 3039DOPE   GL235654  33.033  14.908  15.507  0.3012 -0.1438  0.0001
 3039DOPE   C1A35655  32.828  15.072  15.968 -0.1345  0.0223 -0.0128
 3039DOPE   D2A35656  32.393  15.049  15.827 -0.2480 -0.3372  0.0789
 3039DOPE   C3A35657  32.342  15.441  15.625  0.1369 -0.2141 -0.0164
 3039DOPE   C4A35658  32.499  15.663  15.231  0.0654  0.2330 -0.1709
 3039DOPE   C1B35659  32.667  15.152  15.391 -0.0185  0.1171 -0.2418
 3039DOPE   D2B35660  32.257  15.219  15.142  0.0248 -0.4212  0.0581
 3039DOPE   C3B35661  32.186  14.869  14.843  0.1007  0.1014 -0.0385
 3039DOPE   C4B35662  32.234  14.779  14.415  0.1640 -0.2022 -0.3324
 3040POSM   NC335663  26.483  13.013  15.963  0.3237  0.0675 -0.0674
 3040POSM   PO435664  26.767  12.773  16.054 -0.1303  0.0339 -0.0043
 3040POSM   AM135665  26.901  12.647  15.781 -0.1503 -0.3331  0.2394
 3040POSM   AM235666  27.126  12.629  15.599 -0.1460  0.0390  0.1522
 3040POSM   T1A35667  26.758  12.580  15.284 -0.2592  0.1489 -0.0939
 3040POSM   C2A35668  26.793  12.647  14.865 -0.1792 -0.1392 -0.1517
 3040POSM   C3A35669  26.774  12.473  14.419  0.1766 -0.0382 -0.0409
 3040POSM   C1B35670  27.178  12.298  15.468 -0.0422  0.3925 -0.0178
 3040POSM   D2B35671  27.309  12.020  15.166  0.1468  0.4108 -0.2682
 3040POSM   C3B35672  27.106  11.670  14.974 -0.2533 -0.1688 -0.1399
 3040POSM   C4B35673  27.143  11.608  14.520 -0.1194  0.1267 -0.1939
 3041DOPS   CNO35674  30.921  13.503  16.416  0.0167  0.1972 -0.1870
 3041DOPS   PO435675  31.133  13.170  16.503  0.2810 -0.0665 -0.1319
 3041DOPS   GL135676  31.133  12.898  16.155  0.0882 -0.0380 -0.0609
 3041DOPS   GL235677  31.235  13.122  15.996 -0.2035  0.2600 -0.1260
 3041DOPS   C1A35678  31.020  12.809  15.712  0.0609 -0.0013 -0.1281
 3041DOPS   D2A35679  30.815  12.539  15.372  0.4126 -0.2286  0.0671
 3041DOPS   C3A35680  30.418  12.504  15.138  0.0527  0.2366  0.2128
 3041DOPS   C4A35681  30.238  12.379  14.753 -0.1757  0.0506 -0.2833
 3041DOPS   C1B35682  30.881  13.266  15.738  0.0199  0.0978  0.1751
 3041DOPS   D2B35683  30.642  13.477  15.389  0.1648  0.2569  0.1074
 3041DOPS   C3B35684  30.745  13.961  15.409 -0.1512  0.1611  0.5104
 3041DOPS   C4B35685  30.809  14.384  15.231 -0.1169  0.0637 -0.3031
 3042DOPC   NC335686  26.991  21.973  16.022 -0.0172 -0.2273 -0.2986
 3042DOPC   PO435687  26.842  21.616  16.124  0.0935  0.0326 -0.0648
 3042DOPC   GL135688  26.543  21.546  15.807 -0.3693  0.2721  0.0046
 3042DOPC   GL235689  26.440  21.855  15.683 -0.4298  0.0213 -0.2283
 3042DOPC   C1A35690  26.506  21.578  15.317  0.1329  0.1632  0.0641
 3042DOPC   D2A35691  26.591  21.493  14.860  0.1381  0.0110  0.0920
 3042DOPC   C3A35692  26.966  21.366  14.622  0.2378 -0.1093  0.1942
 3042DOPC   C4A35693  27.304  21.606  14.563  0.2755  0.0229  0.1039
 3042DOPC   C1B35694  26.321  22.010  15.218  0.0252  0.2112 -0.0164
 3042DOPC   D2B35695  26.373  21.961  14.721  0.1233  0.1170 -0.0403
 3042DOPC   C3B35696  26.565  22.364  14.593  0.0950 -0.0965  0.0477
 3042DOPC   C4B35697  26.590  22.639  14.293 -0.3666 -0.2549 -0.0450
 3043POSM   NC335698  28.679  17.214  16.865  0.3493 -0.0487 -0.3698
 3043POSM   PO435699  28.448  17.032  16.649  0.1910 -0.0869  0.0465
 3043POSM   AM135700  28.573  16.986  16.334 -0.1681  0.2955 -0.1013
 3043POSM   AM235701  28.604  17.175  16.119  0.1088  0.0830 -0.1354
 3043POSM   T1A35702  28.538  16.701  15.888  0.3139 -0.3893  0.1869
 3043POSM   C2A35703  28.841  16.398  15.762 -0.0000  0.1757  0.1705
 3043POSM   C3A35704  29.015  16.088  15.455 -0.1378  0.0426 -0.1432
 3043POSM   C1B35705  28.722  17.225  15.833  0.3244  0.2065  0.2430
 3043POSM   D2B35706  28.756  17.233  15.386 -0.3527  0.0511 -0.2605
 3043POSM   C3B35707  28.491  16.846  15.241  0.0433 -0.1554 -0.0181
 3043POSM   C4B35708  28.179  16.646  15.615 -0.1247  0.2107  0.0015
 3044DOPE   NH335709  29.795  12.940  16.762  0.0231  0.0343 -0.2730
 3044DOPE   PO435710  29.953  13.220  16.672 -0.0691 -0.3663  0.1362
 3044DOPE   GL135711  29.774  13.139  16.331 -0.0048  0.1445  0.0972
 3044DOPE   GL235712  29.543  13.310  16.143  0.1943  0.2003  0.0386
 3044DOPE   C1A35713  29.868  13.036  15.897 -0.1720  0.2719 -0.1227
 3044DOPE   D2A35714  30.129  13.314  15.576 -0.1815 -0.1802  0.1306
 3044DOPE   C3A35715  30.398  13.074  15.260  0.1560 -0.0054 -0.0991
 3044DOPE   C4A35716  30.170  12.860  14.888 -0.4063  0.1255  0.1672
 3044DOPE   C1B35717  29.209  13.192  15.811 -0.5195 -0.0385  0.0066
 3044DOPE   D2B35718  29.009  12.940  15.485  0.0617  0.4992 -0.0729
 3044DOPE   C3B35719  29.075  13.178  15.065  0.0822  0.1223  0.1362
 3044DOPE   C4B35720  29.152  13.533  14.722 -0.0627  0.0962 -0.2841
 3045DOPS   CNO35721  29.259  11.065  16.176 -0.3469  0.1396 -0.1007
 3045DOPS   PO435722  29.022  11.305  16.331  0.4052  0.0548 -0.0875
 3045DOPS   GL135723  28.801  11.289  15.995 -0.2135 -0.2618  0.2597
 3045DOPS   GL235724  28.851  11.649  15.962 -0.0302  0.0588 -0.0485
 3045DOPS   C1A35725  29.084  11.239  15.618 -0.0805  0.1489 -0.0383
 3045DOPS   D2A35726  29.156  11.159  15.199 -0.2783 -0.0184  0.2454
 3045DOPS   C3A35727  29.067  11.424  14.807  0.0152 -0.0469  0.0029
 3045DOPS   C4A35728  28.987  11.813  14.523  0.0849  0.1695 -0.0437
 3045DOPS   C1B35729  28.674  11.988  15.633  0.0700  0.0165  0.0895
 3045DOPS   D2B35730  28.505  12.384  15.426 -0.0057  0.1627 -0.0438
 3045DOPS   C3B35731  28.685  12.718  15.135 -0.2109  0.2493 -0.3440
 3045DOPS   C4B35732  28.755  12.854  14.668 -0.3096 -0.1775 -0.0195
 3046DOPS   CNO35733  28.703  21.381  16.437  0.1640 -0.0950  0.0429
 3046DOPS   PO435734  28.973  21.550  16.699  0.1028  0.1085 -0.0059
 3046DOPS   GL135735  29.079  21.647  16.210  0.2698  0.0823 -0.1732
 3046DOPS   GL235736  29.117  21.412  16.209 -0.0371 -0.0428 -0.2039
 3046DOPS   C1A35737  29.139  21.599  15.706 -0.0074  0.2331 -0.1380
 3046DOPS   D2A35738  28.966  21.395  15.320  0.2214  0.2106  0.1716
 3046DOPS   C3A35739  28.892  20.957  15.174 -0.2565 -0.1711  0.0392
 3046DOPS   C4A35740  28.844  20.591  14.901  0.1932 -0.0216 -0.2553
 3046DOPS   C1B35741  29.366  20.994  16.067  0.0360 -0.0761 -0.0939
 3046DOPS   D2B35742  29.501  20.680  15.783 -0.1376  0.0206  0.1542
 3046DOPS   C3B35743  29.540  20.773  15.379 -0.0172  0.0663  0.1821
 3046DOPS   C4B35744  29.382  20.746  14.944  0.1981 -0.0066  0.3057
 3047DOPE   NH335745  33.647  12.018  16.085 -0.0452 -0.1604 -0.0715
 3047DOPE   PO435746  33.885  11.794  16.154 -0.3877  0.2226 -0.3587
 3047DOPE   GL135747  34.055  11.727  15.850  0.2780  0.0487 -0.2191
 3047DOPE   GL235748  34.204  11.484  15.792  0.3512 -0.3098 -0.3276
 3047DOPE   C1A35749  34.376  11.872  15.593  0.1505  0.0402  0.0405
 3047DOPE   D2A35750  34.710  11.812  15.314 -0.2104  0.1560  0.0320
 3047DOPE   C3A35751  34.613  11.815  14.834 -0.2913  0.0223  0.0764
 3047DOPE   C4A35752  34.272  11.605  14.598 -0.1518 -0.0629  0.2583
 3047DOPE   C1B35753  34.511  11.366  15.529  0.2188  0.4002 -0.0644
 3047DOPE   D2B35754  34.549  11.356  15.095  0.0628 -0.1348 -0.0217
 3047DOPE   C3B35755  34.268  11.108  14.897  0.0247 -0.0175  0.1748
 3047DOPE   C4B35756  34.207  10.703  14.649  0.1575 -0.2606  0.1124
 3048DOPC   NC335757  29.496  13.883  16.160  0.1687  0.1873 -0.1032
 3048DOPC   PO435758  29.221  13.663  16.334  0.0069 -0.0099 -0.0966
 3048DOPC   GL135759  29.055  13.664  15.922  0.2085  0.0424 -0.4347
 3048DOPC   GL235760  28.810  13.470  15.961  0.0558 -0.3319  0.1275
 3048DOPC   C1A35761  29.301  13.711  15.541  0.2511  0.1386 -0.0212
 3048DOPC   D2A35762  29.431  13.614  15.133  0.3247 -0.2683 -0.0442
 3048DOPC   C3A35763  29.625  13.705  14.703  0.1492 -0.1625 -0.4080
 3048DOPC   C4A35764  29.553  13.404  14.350  0.2534  0.0057  0.1236
 3048DOPC   C1B35765  28.827  13.498  15.527 -0.0266  0.0612  0.3127
 3048DOPC   D2B35766  28.783  13.683  15.122 -0.3822 -0.0729 -0.2833
 3048DOPC   C3B35767  28.658  14.075  15.084 -0.3948  0.0520  0.0564
 3048DOPC   C4B35768  28.284  14.387  15.069 -0.2049  0.1549  0.0673
 3049DOPS   CNO35769  34.073  17.615  16.513 -0.2330 -0.3364  0.5217
 3049DOPS   PO435770  33.795  17.866  16.428  0.0210 -0.0018 -0.0563
 3049DOPS   GL135771  33.932  17.851  16.001  0.0423 -0.2197  0.0023
 3049DOPS   GL235772  34.007  18.145  15.924  0.0670  0.0199 -0.2447
 3049DOPS   C1A35773  34.256  17.667  15.658 -0.3573 -0.0172 -0.0030
 3049DOPS   D2A35774  34.377  17.441  15.295  0.0248 -0.2642  0.0953
 3049DOPS   C3A35775  34.116  17.339  14.902  0.1763 -0.0189  0.1171
 3049DOPS   C4A35776  33.829  17.421  14.525  0.0649  0.0289 -0.1741
 3049DOPS   C1B35777  33.976  18.026  15.506  0.6060  0.0114  0.1862
 3049DOPS   D2B35778  33.920  18.007  14.994 -0.0661 -0.2362  0.2215
 3049DOPS   C3B35779  33.822  18.205  14.568  0.0827 -0.2839 -0.1624
 3049DOPS   C4B35780  33.792  18.490  14.220 -0.1067 -0.0304  0.0669
 3050DOPE   NH335781  27.469  21.608  16.174  0.5267 -0.0758  0.0363
 3050DOPE   PO435782  27.350  21.488  15.913  0.3293 -0.1426  0.1931
 3050DOPE   GL135783  27.210  21.459  15.552 -0.0539 -0.1892  0.1105
 3050DOPE   GL235784  26.920  21.498  15.629 -0.0021 -0.0809  0.2105
 3050DOPE   C1A35785  27.321  21.291  15.131 -0.1187  0.0512 -0.0663
 3050DOPE   D2A35786  27.534  21.197  14.737  0.0324 -0.0015  0.3855
 3050DOPE   C3A35787  27.449  21.060  14.345 -0.0321  0.1313  0.1407
 3050DOPE   C4A35788  27.605  21.228  13.897  0.1050  0.3076 -0.2418
 3050DOPE   C1B35789  26.640  21.126  15.565 -0.2446 -0.2206  0.0490
 3050DOPE   D2B35790  26.431  20.729  15.476  0.2927 -0.0106  0.2407
 3050DOPE   C3B35791  26.309  20.584  15.050 -0.1586 -0.0854  0.1422
 3050DOPE   C4B35792  26.052  20.415  14.704  0.1394  0.0927 -0.0886
 3051DOPE   NH335793  31.666  20.006  16.981  0.0632  0.1270  0.0625
 3051DOPE   PO435794  31.810  19.784  16.778  0.2035  0.1108 -0.3849
 3051DOPE   GL135795  31.831  19.505  16.419  0.0392 -0.0984 -0.2308
 3051DOPE   GL235796  31.523  19.540  16.400 -0.0741  0.0171 -0.4608
 3051DOPE   C1A35797  31.770  19.555  15.965 -0.1533 -0.1904 -0.0015
 3051DOPE   D2A35798  32.050  19.472  15.622 -0.2728  0.1414  0.0090
 3051DOPE   C3A35799  31.918  19.203  15.268  0.0278  0.0326 -0.0112
 3051DOPE   C4A35800  31.838  18.854  14.913 -0.2388 -0.2250 -0.0523
 3051DOPE   C1B35801  31.336  19.357  15.954 -0.0784  0.3287  0.1585
 3051DOPE   D2B35802  31.475  19.320  15.490  0.2662 -0.3250  0.0383
 3051DOPE   C3B35803  31.524  18.885  15.304  0.0170  0.3953  0.0983
 3051DOPE   C4B35804  31.410  18.528  14.991 -0.0315 -0.0774 -0.1935
 3052DOPE   NH335805  29.716  15.918  17.224 -0.0568 -0.1025 -0.1150
 3052DOPE   PO435806  29.955  15.941  16.978  0.1488 -0.1305 -0.0279
 3052DOPE   GL135807  30.034  16.293  16.675 -0.2468 -0.1201  0.0226
 3052DOPE   GL235808  29.816  16.411  16.627  0.2650  0.0970 -0.1566
 3052DOPE   C1A35809  30.166  16.217  16.255  0.1975 -0.0801 -0.1689
 3052DOPE   D2A35810  30.333  15.910  15.951  0.1429  0.2905 -0.3073
 3052DOPE   C3A35811  29.890  15.747  15.843  0.2656 -0.2278 -0.1908
 3052DOPE   C4A35812  29.725  15.532  15.513  0.0451  0.0684  0.1233
 3052DOPE   C1B35813  29.990  16.697  16.303 -0.1987 -0.3765 -0.1237
 3052DOPE   D2B35814  30.253  16.813  15.908 -0.1072 -0.2285 -0.0795
 3052DOPE   C3B35815  30.496  17.033  15.532  0.0254 -0.0081  0.2392
 3052DOPE   C4B35816  30.514  17.066  15.098  0.0245 -0.1036  0.2686
 3053DOPC   NC335817  33.832  21.873  15.910 -0.0504  0.0612 -0.2945
 3053DOPC   PO435818  33.847  22.233  16.123  0.0128  0.0666  0.0294
 3053DOPC   GL135819  34.015  22.328  15.754 -0.2566 -0.1781 -0.5073
 3053DOPC   GL235820  33.745  22.412  15.627  0.0936 -0.0636 -0.0598
 3053DOPC   C1A35821  34.150  21.967  15.497 -0.0160 -0.0962  0.1529
 3053DOPC   D2A35822  34.557  21.871  15.284 -0.0397 -0.0366  0.0396
 3053DOPC   C3A35823  34.837  22.124  15.034  0.0613  0.2982 -0.0419
 3053DOPC   C4A35824  35.257  22.259  15.034 -0.0590 -0.1414  0.0106
 3053DOPC   C1B35825  33.830  22.304  15.206 -0.1616 -0.0650  0.3067
 3053DOPC   D2B35826  33.862  21.907  14.984  0.0501 -0.1150 -0.0485
 3053DOPC   C3B35827  33.867  21.772  14.512 -0.1624  0.0715  0.1092
 3053DOPC   C4B35828  34.215  21.456  14.258 -0.3667 -0.0201  0.0620
 3054POSM   NC335829  25.135  17.269  16.557  0.0868 -0.0404  0.0124
 3054POSM   PO435830  24.942  17.307  16.202 -0.3324  0.1595 -0.1341
 3054POSM   AM135831  25.212  17.338  16.066  0.1796  0.2476 -0.0197
 3054POSM   AM235832  25.409  17.524  15.937  0.1399  0.1868 -0.2827
 3054POSM   T1A35833  25.398  17.163  15.636  0.1736  0.2032 -0.0630
 3054POSM   C2A35834  25.388  16.991  15.246 -0.0653 -0.2609 -0.1820
 3054POSM   C3A35835  25.373  16.858  14.822 -0.3449  0.1702  0.3931
 3054POSM   C1B35836  25.360  17.684  15.642 -0.1415 -0.1493  0.0020
 3054POSM   D2B35837  25.170  17.780  15.222  0.0863 -0.1279 -0.0221
 3054POSM   C3B35838  24.753  17.683  15.341 -0.1670 -0.0045  0.1022
 3054POSM   C4B35839  24.512  17.343  15.404  0.1571 -0.0113  0.1516
 3055POSM   NC335840  22.604  20.871  14.836  0.2113 -0.1996  0.1697
 3055POSM   PO435841  22.755  21.071  15.141  0.2091  0.3091  0.0875
 3055POSM   AM135842  22.826  21.303  14.889  0.0892  0.2958 -0.1596
 3055POSM   AM235843  23.111  21.385  14.813 -0.0089 -0.0135  0.1401
 3055POSM   T1A35844  22.687  21.712  14.644 -0.3035 -0.1143  0.0603
 3055POSM   C2A35845  22.647  22.166  14.575  0.2247 -0.3198 -0.2698
 3055POSM   C3A35846  23.047  22.349  14.620 -0.1009 -0.0062  0.0013
 3055POSM   C1B35847  23.193  21.360  14.496  0.1930 -0.0189  0.0291
 3055POSM   D2B35848  23.232  21.314  14.045  0.0030 -0.1531  0.0188
 3055POSM   C3B35849  23.605  21.302  13.784 -0.0784 -0.0966 -0.1046
 3055POSM   C4B35850  24.022  21.147  13.583  0.0593 -0.2090  0.1465
 3056DOPC   NC335851  27.929  15.253  16.640 -0.0997 -0.2747  0.0918
 3056DOPC   PO435852  28.133  15.594  16.516  0.1694  0.0785  0.1338
 3056DOPC   GL135853  28.348  15.535  16.171  0.1312  0.2809  0.2205
 3056DOPC   GL235854  28.325  15.811  16.060  0.0970  0.1290 -0.2809
 3056DOPC   C1A35855  28.486  15.364  15.744  0.0159 -0.0499  0.2264
 3056DOPC   D2A35856  28.585  15.149  15.363 -0.1657  0.0658 -0.1071
 3056DOPC   C3A35857  28.341  15.387  14.984 -0.0052 -0.2612  0.0123
 3056DOPC   C4A35858  28.207  15.622  14.634 -0.1956 -0.1858  0.0558
 3056DOPC   C1B35859  28.550  15.952  15.699 -0.0272 -0.1450 -0.0643
 3056DOPC   D2B35860  28.459  16.268  15.426  0.0958 -0.3834  0.1444
 3056DOPC   C3B35861  28.422  16.019  15.028 -0.4092  0.1324 -0.1281
 3056DOPC   C4B35862  28.165  16.122  14.632 -0.0127 -0.2246  0.0718
 3057DOPC   NC335863  30.858  16.064  17.126  0.0983 -0.1166 -0.1679
 3057DOPC   PO435864  30.865  16.455  17.231  0.0835  0.1390  0.0473
 3057DOPC   GL135865  30.856  16.521  16.887 -0.0536 -0.0391 -0.4270
 3057DOPC   GL235866  30.772  16.744  16.787 -0.1384 -0.2031  0.4336
 3057DOPC   C1A35867  31.267  16.669  16.609 -0.1121  0.1046 -0.2528
 3057DOPC   D2A35868  31.603  16.761  16.266  0.1618  0.1166 -0.0068
 3057DOPC   C3A35869  31.660  16.902  15.793 -0.0019  0.0175 -0.0312
 3057DOPC   C4A35870  31.937  16.907  15.358 -0.0918 -0.1400  0.0606
 3057DOPC   C1B35871  30.851  17.044  16.415  0.0407  0.1045 -0.0199
 3057DOPC   D2B35872  30.769  16.997  15.962 -0.1179 -0.0387 -0.0084
 3057DOPC   C3B35873  30.732  16.592  15.737  0.1028 -0.3502  0.2693
 3057DOPC   C4B35874  30.997  16.417  15.396  0.1208  0.0567 -0.2428
 3058DOPS   CNO35875  23.731  20.143  15.970  0.1931  0.1018  0.2399
 3058DOPS   PO435876  23.524  20.227  15.650  0.0848  0.0270 -0.1755
 3058DOPS   GL135877  23.950  20.215  15.476 -0.1311 -0.0426 -0.1741
 3058DOPS   GL235878  23.784  20.225  15.224  0.0392  0.0645 -0.2711
 3058DOPS   C1A35879  24.287  20.397  15.210  0.0464  0.0850 -0.0264
 3058DOPS   D2A35880  24.515  20.404  14.766 -0.0767 -0.0151  0.1206
 3058DOPS   C3A35881  24.447  20.266  14.283  0.2064  0.1681  0.1564
 3058DOPS   C4A35882  24.733  20.033  14.014  0.0553 -0.2292  0.2245
 3058DOPS   C1B35883  24.031  20.255  14.826  0.0305 -0.2061  0.0441
 3058DOPS   D2B35884  24.337  19.955  14.627  0.4719 -0.1232  0.1572
 3058DOPS   C3B35885  24.765  19.956  14.627 -0.0313  0.0432  0.0722
 3058DOPS   C4B35886  25.146  19.817  14.718  0.2696  0.0357 -0.1188
 3059DOPE   NH335887  31.471  12.747  16.508 -0.0654 -0.1054  0.0834
 3059DOPE   PO435888  31.304  12.491  16.477 -0.0886  0.1365  0.4580
 3059DOPE   GL135889  31.161  12.358  16.149 -0.0231 -0.0328 -0.2351
 3059DOPE   GL235890  30.904  12.267  16.301 -0.2753  0.1863 -0.3163
 3059DOPE   C1A35891  31.237  12.368  15.738  0.2518  0.1415  0.0683
 3059DOPE   D2A35892  31.328  12.548  15.380 -0.0200  0.1229 -0.0548
 3059DOPE   C3A35893  31.084  12.556  14.954  0.3580 -0.1947  0.0535
 3059DOPE   C4A35894  30.683  12.712  14.802 -0.2026  0.0525 -0.0191
 3059DOPE   C1B35895  30.682  12.480  15.951 -0.0495  0.0770 -0.1162
 3059DOPE   D2B35896  30.442  12.857  15.721  0.1587 -0.0776 -0.2015
 3059DOPE   C3B35897  30.051  12.740  15.570 -0.1309 -0.1178  0.3121
 3059DOPE   C4B35898  29.886  12.576  15.169 -0.4007 -0.1033 -0.2625
 3060DOPS   CNO35899  32.698  16.115  16.084 -0.0426  0.1350  0.0995
 3060DOPS   PO435900  32.453  16.230  16.372 -0.2006  0.0243  0.0423
 3060DOPS   GL135901  32.313  16.598  16.187  0.1282  0.0498 -0.0310
 3060DOPS   GL235902  32.030  16.486  16.197 -0.1089 -0.0723  0.0267
 3060DOPS   C1A35903  32.457  16.972  15.968 -0.1555 -0.0862  0.2339
 3060DOPS   D2A35904  32.147  17.331  15.885 -0.1451  0.0806 -0.1245
 3060DOPS   C3A35905  32.305  17.695  15.608  0.0713 -0.1701 -0.2449
 3060DOPS   C4A35906  32.223  18.107  15.431 -0.1969 -0.0822 -0.0481
 3060DOPS   C1B35907  32.158  16.466  15.780  0.1361  0.1644 -0.2652
 3060DOPS   D2B35908  32.045  16.304  15.323  0.0413  0.2054  0.2395
 3060DOPS   C3B35909  32.248  16.035  14.930  0.3101  0.2970  0.2098
 3060DOPS   C4B35910  32.408  15.712  14.633 -0.0393 -0.2396 -0.5135
 3061DOPE   NH335911  33.188  14.494  12.365  0.2129 -0.0572  0.0109
 3061DOPE   PO435912  33.425  14.340  12.206  0.0396  0.3039 -0.1076
 3061DOPE   GL135913  33.582  13.989  12.243  0.0626  0.0055 -0.1360
 3061DOPE   GL235914  33.905  14.080  12.231  0.2288  0.3634  0.0947
 3061DOPE   C1A35915  33.641  13.632  12.568 -0.4384  0.0087 -0.0591
 3061DOPE   D2A35916  33.974  13.382  12.838 -0.0372 -0.0707 -0.2184
 3061DOPE   C3A35917  34.114  13.355  13.324  0.1081  0.0548  0.1893
 3061DOPE   C4A35918  34.167  13.445  13.760 -0.0667  0.3838 -0.0921
 3061DOPE   C1B35919  34.370  14.119  12.204  0.1250 -0.0996 -0.0747
 3061DOPE   D2B35920  34.771  14.013  12.390  0.1176  0.2132  0.0419
 3061DOPE   C3B35921  35.218  13.915  12.394  0.0078  0.1913  0.0186
 3061DOPE   C4B35922  35.545  14.229  12.443 -0.4507 -0.1205 -0.2879
 3062DOPS   CNO35923  25.227  15.994  12.247  0.1678  0.2331  0.2672
 3062DOPS   PO435924  25.128  15.754  12.516  0.1469  0.0131  0.1945
 3062DOPS   GL135925  25.299  15.399  12.783 -0.1229  0.1404 -0.1150
 3062DOPS   GL235926  25.238  15.263  13.098  0.0176  0.1764  0.5187
 3062DOPS   C1A35927  25.658  15.534  13.068  0.0457 -0.4359 -0.0673
 3062DOPS   D2A35928  25.930  15.235  13.335 -0.0526  0.4389  0.1416
 3062DOPS   C3A35929  25.942  14.766  13.290 -0.1378 -0.1823  0.0165
 3062DOPS   C4A35930  25.952  14.353  13.128 -0.0591  0.1489 -0.1510
 3062DOPS   C1B35931  24.791  15.041  13.161 -0.2126  0.1819  0.0898
 3062DOPS   D2B35932  24.412  14.759  13.125 -0.0579 -0.0190  0.1598
 3062DOPS   C3B35933  24.454  14.326  13.191  0.0595 -0.0148  0.0819
 3062DOPS   C4B35934  24.235  13.906  13.125 -0.0735 -0.0662 -0.1852
 3063DOPE   NH335935  30.761  12.384  12.421  0.1103  0.1176 -0.2089
 3063DOPE   PO435936  31.060  12.457  12.403  0.0756 -0.2310  0.1231
 3063DOPE   GL135937  31.144  12.775  12.594  0.1622 -0.0073  0.0714
 3063DOPE   GL235938  31.390  12.736  12.703 -0.0474 -0.1091  0.0384
 3063DOPE   C1A35939  31.402  13.169  12.433  0.0926  0.0703  0.1091
 3063DOPE   D2A35940  31.738  13.495  12.528  0.1518 -0.0484 -0.0746
 3063DOPE   C3A35941  31.743  13.791  12.900  0.3186  0.3371 -0.0750
 3063DOPE   C4A35942  31.615  13.752  13.370 -0.0209  0.1662  0.3780
 3063DOPE   C1B35943  31.781  12.847  12.487  0.1078  0.2257 -0.0359
 3063DOPE   D2B35944  32.285  13.005  12.483 -0.3966  0.0397  0.2408
 3063DOPE   C3B35945  32.314  13.465  12.488  0.0678 -0.2082 -0.0242
 3063DOPE   C4B35946  32.524  13.852  12.676 -0.0140 -0.3354 -0.3744
 3064DOPE   NH335947  33.584  12.264  12.178 -0.0297  0.5536 -0.1259
 3064DOPE   PO435948  33.281  12.175  12.194 -0.1383  0.0590  0.1076
 3064DOPE   GL135949  33.225  12.487  12.490  0.2571 -0.1413 -0.5470
 3064DOPE   GL235950  33.359  12.680  12.411  0.0118  0.1604 -0.0354
 3064DOPE   C1A35951  32.879  12.774  12.552 -0.1616 -0.0393 -0.3107
 3064DOPE   D2A35952  32.617  13.039  12.842 -0.0497 -0.0572 -0.3059
 3064DOPE   C3A35953  32.661  13.149  13.319  0.0042  0.0216  0.1122
 3064DOPE   C4A35954  32.932  13.002  13.679 -0.0128  0.0029 -0.1258
 3064DOPE   C1B35955  33.486  13.048  12.707 -0.1563 -0.3399 -0.0812
 3064DOPE   D2B35956  33.465  13.436  13.018  0.0914 -0.0772 -0.2039
 3064DOPE   C3B35957  33.135  13.451  13.334  0.6023 -0.0567 -0.1495
 3064DOPE   C4B35958  33.083  13.528  13.797 -0.0038 -0.2708  0.1840
 3065DOPC   NC335959  32.946  13.656  12.450  0.1345 -0.1569  0.0565
 3065DOPC   PO435960  33.119  14.006  12.508 -0.0420 -0.1612  0.4343
 3065DOPC   GL135961  33.207  13.787  12.896 -0.3819  0.3588  0.2250
 3065DOPC   GL235962  32.954  13.909  13.061  0.0669  0.0570 -0.2165
 3065DOPC   C1A35963  33.048  13.336  12.853  0.0153 -0.2235  0.0211
 3065DOPC   D2A35964  33.050  12.951  13.056  0.0930  0.0458  0.0637
 3065DOPC   C3A35965  33.100  12.467  12.942 -0.0655 -0.0132  0.1539
 3065DOPC   C4A35966  33.100  12.090  13.143 -0.1939 -0.2754  0.0855
 3065DOPC   C1B35967  32.955  13.995  13.538 -0.2842 -0.2172 -0.0422
 3065DOPC   D2B35968  32.630  14.057  13.869 -0.0383 -0.2872 -0.0029
 3065DOPC   C3B35969  32.637  13.695  14.179  0.0699 -0.0187 -0.0328
 3065DOPC   C4B35970  33.006  13.557  14.431 -0.0131 -0.1132 -0.1195
 3066DOPC   NC335971  25.655  19.316  12.660  0.0208 -0.0906 -0.0968
 3066DOPC   PO435972  26.024  19.138  12.700 -0.2751 -0.3696 -0.0392
 3066DOPC   GL135973  25.872  19.075  12.998  0.2587  0.0742 -0.1052
 3066DOPC   GL235974  25.656  18.868  13.025  0.1805  0.1560  0.0011
 3066DOPC   C1A35975  25.602  19.424  13.150  0.4110  0.3556 -0.2138
 3066DOPC   D2A35976  25.481  19.810  13.316 -0.2162 -0.1458 -0.2723
 3066DOPC   C3A35977  25.305  20.247  13.517  0.1565  0.5125 -0.1893
 3066DOPC   C4A35978  24.996  20.383  13.847  0.0211  0.0748 -0.0448
 3066DOPC   C1B35979  25.615  18.968  13.473 -0.0016 -0.1811  0.0729
 3066DOPC   D2B35980  25.609  19.070  13.904 -0.3543 -0.2425  0.0455
 3066DOPC   C3B35981  25.257  18.883  14.149  0.1900  0.2170 -0.3568
 3066DOPC   C4B35982  24.842  19.068  14.436 -0.1274 -0.2501  0.6523
 3067DOPE   NH335983  23.040  18.836  11.841 -0.0386 -0.0103  0.0267
 3067DOPE   PO435984  23.287  18.866  12.069  0.3136 -0.1350  0.2587
 3067DOPE   GL135985  23.160  18.960  12.392 -0.1460  0.1315 -0.0798
 3067DOPE   GL235986  23.358  19.167  12.484  0.1328 -0.0165 -0.1598
 3067DOPE   C1A35987  22.879  19.282  12.619  0.0334 -0.2567  0.0702
 3067DOPE   D2A35988  22.664  19.713  12.705 -0.0320 -0.1524 -0.2657
 3067DOPE   C3A35989  22.411  19.760  13.073 -0.1022  0.0534  0.2620
 3067DOPE   C4A35990  22.145  20.119  13.249  0.3562 -0.0334  0.2913
 3067DOPE   C1B35991  23.240  19.587  12.666  0.0980  0.3490 -0.0265
 3067DOPE   D2B35992  23.543  19.901  12.772 -0.2636  0.1018  0.2141
 3067DOPE   C3B35993  23.480  20.080  13.161  0.0164 -0.1962 -0.1878
 3067DOPE   C4B35994  23.191  20.008  13.567  0.0682  0.1744 -0.2666
 3068DOPE   NH335995   0.075  21.368  12.594 -0.3591  0.3524 -0.1419
 3068DOPE   PO435996  -0.039  21.231  12.847 -0.0220  0.0192 -0.2708
 3068DOPE   GL135997  -0.071  20.869  13.070 -0.1783 -0.1756  0.3003
 3068DOPE   GL235998  -0.383  20.883  12.955 -0.1346  0.0388  0.0227
 3068DOPE   C1A35999  -0.278  20.748  13.476 -0.0216 -0.0464  0.0690
 3068DOPE   D2A36000  -0.188  20.572  13.918 -0.1120 -0.0988  0.0482
 3068DOPE   C3A36001   0.165  20.485  14.099 -0.4489 -0.0940  0.0692
 3068DOPE   C4A36002   0.593  20.576  14.307 -0.1622  0.2924  0.0401
 3068DOPE   C1B36003  -0.687  21.052  13.312  0.1288  0.1318  0.2064
 3068DOPE   D2B36004  -0.995  20.903  13.591 -0.0197  0.0649 -0.0463
 3068DOPE   C3B36005  -1.267  21.074  13.885  0.0334  0.1186  0.1276
 3068DOPE   C4B36006  -1.548  21.299  14.173 -0.0812  0.2126 -0.0326
 3069DOPE   NH336007  29.483  17.188  13.319  0.0401 -0.0822 -0.0785
 3069DOPE   PO436008  29.623  17.322  13.556  0.0884 -0.0542 -0.0510
 3069DOPE   GL136009  29.790  17.345  13.891 -0.0296 -0.0994  0.0185
 3069DOPE   GL236010  29.828  17.037  13.940 -0.1775  0.2014 -0.2035
 3069DOPE   C1A36011  30.082  17.360  14.249 -0.0360 -0.0563  0.1814
 3069DOPE   D2A36012  30.332  17.592  14.525  0.0685  0.2239 -0.1249
 3069DOPE   C3A36013  30.573  17.486  14.906  0.2026  0.0893 -0.0067
 3069DOPE   C4A36014  30.973  17.332  15.043 -0.0975  0.0599 -0.0517
 3069DOPE   C1B36015  30.105  16.873  14.230 -0.1759  0.0443 -0.4338
 3069DOPE   D2B36016  30.301  16.670  14.599 -0.1196 -0.0395  0.0062
 3069DOPE   C3B36017  30.081  16.669  14.995  0.1643 -0.0677  0.1134
 3069DOPE   C4B36018  29.945  16.683  15.446 -0.1815  0.0577  0.3937
 3070POSM   NC336019  24.396  20.130  12.390 -0.0595 -0.0861  0.0012
 3070POSM   PO436020  24.667  20.257  12.177  0.0504 -0.1366 -0.0091
 3070POSM   AM136021  24.873  20.168  12.416  0.2382  0.2394  0.2244
 3070POSM   AM236022  24.897  20.064  12.700 -0.2767  0.0515 -0.0272
 3070POSM   T1A36023  25.356  20.139  12.604 -0.2183 -0.0422  0.2503
 3070POSM   C2A36024  25.603  20.250  13.001  0.3336 -0.2012  0.3399
 3070POSM   C3A36025  25.737  20.603  13.268 -0.0451 -0.1816  0.1418
 3070POSM   C1B36026  25.017  19.750  12.658 -0.2605  0.2546 -0.0803
 3070POSM   D2B36027  25.182  19.323  12.737  0.1476  0.0421 -0.3027
 3070POSM   C3B36028  25.178  19.163  13.184 -0.2949 -0.3392 -0.2494
 3070POSM   C4B36029  25.228  19.329  13.580  0.2237  0.1527 -0.0020
 3071DOPE   NH336030  27.568  18.789  13.129 -0.1765  0.0802  0.1671
 3071DOPE   PO436031  27.647  19.087  13.136 -0.0514 -0.1319  0.1110
 3071DOPE   GL136032  27.525  19.132  13.616 -0.1320  0.0147  0.2222
 3071DOPE   GL236033  27.392  18.906  13.740 -0.0055  0.5291 -0.1426
 3071DOPE   C1A36034  27.637  19.344  14.040 -0.1428 -0.0555 -0.0473
 3071DOPE   D2A36035  27.620  19.297  14.517  0.0886 -0.0895 -0.1804
 3071DOPE   C3A36036  27.371  19.197  14.840  0.1076 -0.3797 -0.1121
 3071DOPE   C4A36037  26.935  18.952  14.899  0.1239 -0.0385  0.1874
 3071DOPE   C1B36038  27.203  19.101  14.166  0.1041  0.0384 -0.1251
 3071DOPE   D2B36039  27.025  19.287  14.496 -0.0382  0.1886  0.0324
 3071DOPE   C3B36040  26.562  19.358  14.662 -0.1513  0.1181 -0.2496
 3071DOPE   C4B36041  26.213  19.634  14.881 -0.5454  0.0777  0.2676
 3072POSM   NC336042  30.779  19.276  12.854 -0.2680  0.1208 -0.0831
 3072POSM   PO436043  30.762  19.052  13.218 -0.0958  0.0355 -0.0813
 3072POSM   AM136044  30.933  19.125  13.494  0.3881 -0.2237 -0.0913
 3072POSM   AM236045  31.085  18.915  13.647 -0.1392 -0.0908  0.1500
 3072POSM   T1A36046  30.902  19.371  13.945  0.2463  0.2465  0.1291
 3072POSM   C2A36047  30.635  19.720  14.147  0.0088 -0.3099  0.3318
 3072POSM   C3A36048  30.270  19.770  14.435  0.0013 -0.0291 -0.1290
 3072POSM   C1B36049  31.086  18.904  13.945 -0.0806  0.1000 -0.0943
 3072POSM   D2B36050  31.150  18.641  14.336  0.0646 -0.0647  0.1484
 3072POSM   C3B36051  31.433  18.960  14.580 -0.1661  0.2337 -0.1851
 3072POSM   C4B36052  31.507  19.200  14.914  0.0985 -0.2188  0.0174
 3073POSM   NC336053  24.084  11.564  11.741 -0.1402 -0.0639  0.1206
 3073POSM   PO436054  23.719  11.639  11.636  0.1955  0.2945  0.0016
 3073POSM   AM136055  23.707  11.851  11.892  0.4475  0.1745 -0.0264
 3073POSM   AM236056  23.574  11.876  12.147  0.2966 -0.2431  0.1434
 3073POSM   T1A36057  23.923  12.169  12.209 -0.2651 -0.0995 -0.3858
 3073POSM   C2A36058  23.978  12.257  12.687  0.2192 -0.0418 -0.0168
 3073POSM   C3A36059  23.652  12.120  12.960 -0.1829  0.0029 -0.1003
 3073POSM   C1B36060  23.673  11.713  12.390  0.2160  0.3650  0.0364
 3073POSM   D2B36061  23.731  11.579  12.888 -0.1322 -0.0220  0.2724
 3073POSM   C3B36062  23.692  11.760  13.313  0.0366 -0.1752 -0.2475
 3073POSM   C4B36063  23.787  12.031  13.727 -0.1494 -0.1305 -0.0916
 3074DOPC   NC336064  33.586  20.109  12.277  0.1036 -0.3607  0.0515
 3074DOPC   PO436065  33.858  19.869  12.163  0.0380  0.1869 -0.2420
 3074DOPC   GL136066  34.120  20.113  12.100  0.1648 -0.2590 -0.2561
 3074DOPC   GL236067  34.078  20.217  11.830  0.0025  0.0482  0.0944
 3074DOPC   C1A36068  34.291  20.571  12.123  0.0938  0.2299 -0.0304
 3074DOPC   D2A36069  34.270  20.971  11.966 -0.0457  0.2452  0.1922
 3074DOPC   C3A36070  34.204  21.331  12.231 -0.2455  0.2501  0.0558
 3074DOPC   C4A36071  34.182  21.721  12.483 -0.2138 -0.1057 -0.0229
 3074DOPC   C1B36072  33.798  20.552  11.935 -0.3689  0.2703 -0.0514
 3074DOPC   D2B36073  33.400  20.834  12.065 -0.1328  0.1487 -0.2128
 3074DOPC   C3B36074  32.895  20.759  12.077 -0.0339  0.0131 -0.0659
 3074DOPC   C4B36075  32.434  20.713  12.080 -0.0351  0.2606  0.0176
 3075DOPC   NC336076  30.256  19.115  12.876  0.2095 -0.1332 -0.2684
 3075DOPC   PO436077  30.309  19.467  12.683 -0.1637 -0.1655 -0.2354
 3075DOPC   GL136078  30.519  19.745  12.750 -0.0922 -0.2587 -0.1030
 3075DOPC   GL236079  30.370  19.962  12.620 -0.0751 -0.1935 -0.1063
 3075DOPC   C1A36080  30.852  19.969  13.013  0.1920 -0.2059 -0.1952
 3075DOPC   D2A36081  31.226  20.138  13.172  0.0113 -0.1666 -0.3725
 3075DOPC   C3A36082  31.350  20.055  13.658  0.1276 -0.0231  0.2014
 3075DOPC   C4A36083  31.629  20.228  14.075  0.0010 -0.1531 -0.0497
 3075DOPC   C1B36084  30.494  20.381  12.828 -0.0548  0.0790  0.1491
 3075DOPC   D2B36085  30.421  20.753  13.030 -0.3553  0.1603  0.2252
 3075DOPC   C3B36086  30.819  20.998  13.208 -0.0925 -0.2020 -0.1001
 3075DOPC   C4B36087  31.293  20.905  13.190 -0.0545 -0.1772 -0.1469
 3076DOPC   NC336088  26.756  17.715  12.583  0.1295 -0.0986  0.0352
 3076DOPC   PO436089  27.020  17.539  12.318 -0.0808 -0.1231  0.0747
 3076DOPC   GL136090  27.220  17.140  12.480  0.1742  0.2646 -0.0052
 3076DOPC   GL236091  27.413  17.079  12.655 -0.2895  0.0655  0.2966
 3076DOPC   C1A36092  27.153  16.616  12.529 -0.0395 -0.0755  0.5000
 3076DOPC   D2A36093  27.189  16.147  12.577  0.1260 -0.1625 -0.1537
 3076DOPC   C3A36094  27.452  16.143  12.933 -0.1704 -0.2572  0.2686
 3076DOPC   C4A36095  27.581  16.311  13.329 -0.1914 -0.1425  0.3399
 3076DOPC   C1B36096  27.849  17.160  12.529  0.3960 -0.3299 -0.3821
 3076DOPC   D2B36097  28.248  17.077  12.744 -0.1662 -0.0631  0.1839
 3076DOPC   C3B36098  28.309  16.644  12.830 -0.2119  0.0933 -0.0951
 3076DOPC   C4B36099  28.429  16.195  13.000  0.0791 -0.1555 -0.1312
 3077DOPE   NH336100  30.454  11.718  12.477  0.0432 -0.2339  0.2970
 3077DOPE   PO436101  30.401  12.039  12.574  0.1646 -0.0827 -0.0601
 3077DOPE   GL136102  30.219  12.410  12.798 -0.3427  0.2644 -0.2286
 3077DOPE   GL236103  30.177  12.702  12.802 -0.2331 -0.0391  0.3332
 3077DOPE   C1A36104  29.998  12.475  13.204  0.2785  0.3178 -0.2347
 3077DOPE   D2A36105  29.743  12.469  13.575  0.0670 -0.1360 -0.2209
 3077DOPE   C3A36106  29.744  12.422  14.055 -0.2881 -0.3282 -0.1365
 3077DOPE   C4A36107  29.936  12.264  14.386 -0.0140 -0.1489 -0.0046
 3077DOPE   C1B36108  30.150  12.990  13.178 -0.2020  0.4054  0.3161
 3077DOPE   D2B36109  30.029  13.022  13.615  0.0861  0.5237 -0.1595
 3077DOPE   C3B36110  30.186  12.994  14.026  0.0766 -0.2178  0.2349
 3077DOPE   C4B36111  30.214  12.725  14.401 -0.0719  0.1471  0.0372
 3078POSM   NC336112  29.377  11.662  13.020 -0.0430  0.1357 -0.3084
 3078POSM   PO436113  29.413  11.314  12.914 -0.1260 -0.1632  0.1491
 3078POSM   AM136114  29.368  11.192  13.192  0.1722  0.2018  0.0499
 3078POSM   AM236115  29.526  11.167  13.414  0.1548 -0.2079  0.0142
 3078POSM   T1A36116  29.086  11.035  13.582 -0.0887  0.1510 -0.3474
 3078POSM   C2A36117  28.807  10.680  13.765  0.1278 -0.3130  0.1656
 3078POSM   C3A36118  28.552  10.306  13.864 -0.1958  0.2041  0.2829
 3078POSM   C1B36119  29.607  11.489  13.505  0.0714 -0.0571 -0.0372
 3078POSM   D2B36120  29.768  11.875  13.669  0.2055 -0.1440 -0.0659
 3078POSM   C3B36121  30.087  11.813  13.986  0.0553  0.3760  0.1024
 3078POSM   C4B36122  30.149  11.841  14.418  0.0247  0.0377 -0.1461
 3079DOPE   NH336123  24.995  20.612  12.560  0.0766  0.2384  0.0782
 3079DOPE   PO436124  24.752  20.786  12.366 -0.0445 -0.2126  0.2038
 3079DOPE   GL136125  24.577  20.743  12.671 -0.0067 -0.0380 -0.0077
 3079DOPE   GL236126  24.503  20.460  12.759  0.1808 -0.2217  0.0517
 3079DOPE   C1A36127  24.631  20.842  13.085 -0.0824 -0.0149 -0.0153
 3079DOPE   D2A36128  24.916  20.676  13.474 -0.2628  0.0060 -0.2779
 3079DOPE   C3A36129  25.178  20.975  13.701  0.3288  0.0794 -0.4646
 3079DOPE   C4A36130  25.500  21.346  13.700  0.3949  0.0026 -0.3323
 3079DOPE   C1B36131  24.396  20.274  13.182 -0.0333  0.0382 -0.0724
 3079DOPE   D2B36132  24.688  20.165  13.519 -0.1511  0.1471 -0.1285
 3079DOPE   C3B36133  24.696  19.721  13.429 -0.2259 -0.2256  0.0626
 3079DOPE   C4B36134  24.627  19.290  13.533  0.0470  0.2725  0.4585
 3080DOPC   NC336135  31.622  11.633  12.689 -0.1209  0.0986  0.3631
 3080DOPC   PO436136  31.950  11.817  12.574 -0.0362 -0.1724 -0.1838
 3080DOPC   GL136137  32.113  11.497  12.760 -0.1515  0.2410  0.0810
 3080DOPC   GL236138  32.442  11.538  12.711 -0.3539  0.2337  0.1251
 3080DOPC   C1A36139  32.323  11.455  13.222  0.0856  0.0339 -0.0731
 3080DOPC   D2A36140  32.231  11.261  13.629 -0.0053  0.0313 -0.1801
 3080DOPC   C3A36141  32.137  10.801  13.803 -0.0760  0.0130 -0.3973
 3080DOPC   C4A36142  31.991  10.377  13.976  0.2251  0.0129 -0.3037
 3080DOPC   C1B36143  32.408  11.915  13.070  0.0898  0.1575  0.2388
 3080DOPC   D2B36144  32.498  12.146  13.503  0.0242 -0.0609 -0.1916
 3080DOPC   C3B36145  32.650  11.881  13.873  0.1819  0.1971  0.1125
 3080DOPC   C4B36146  32.317  11.915  14.186  0.0383  0.0449  0.2549
 3081POSM   NC336147  30.758  11.036  12.981 -0.2109 -0.1655  0.0827
 3081POSM   PO436148  30.715  11.407  12.848  0.0172  0.0496 -0.1054
 3081POSM   AM136149  30.965  11.486  13.045  0.0199 -0.4473 -0.1965
 3081POSM   AM236150  30.945  11.734  13.154  0.0078 -0.1437 -0.0100
 3081POSM   T1A36151  31.140  11.568  13.561 -0.0398 -0.0516 -0.0075
 3081POSM   C2A36152  31.590  11.678  13.732  0.1424 -0.0162 -0.2701
 3081POSM   C3A36153  32.039  11.793  13.809  0.0505  0.2132  0.0579
 3081POSM   C1B36154  30.969  12.041  13.237 -0.2148  0.0286  0.0938
 3081POSM   D2B36155  30.854  12.333  13.570  0.0426 -0.1390 -0.1645
 3081POSM   C3B36156  30.965  12.331  13.999 -0.1042  0.1419 -0.0213
 3081POSM   C4B36157  30.983  12.630  14.414  0.3261 -0.1853 -0.1890
 3082DOPE   NH336158  30.939  16.731  13.106  0.1565 -0.1722  0.0391
 3082DOPE   PO436159  30.790  16.890  12.848 -0.0382 -0.1468 -0.1658
 3082DOPE   GL136160  31.088  17.271  13.062  0.2182 -0.3547 -0.3183
 3082DOPE   GL236161  31.182  17.154  13.347 -0.1976  0.1568 -0.0235
 3082DOPE   C1A36162  31.131  17.724  13.177  0.0174 -0.0129  0.3292
 3082DOPE   D2A36163  31.400  18.069  13.297  0.2339 -0.0768  0.1185
 3082DOPE   C3A36164  31.806  17.907  13.443  0.2078 -0.1035 -0.2859
 3082DOPE   C4A36165  32.197  17.994  13.365  0.0771  0.0730 -0.1173
 3082DOPE   C1B36166  31.373  17.155  13.798  0.1584 -0.0560 -0.4239
 3082DOPE   D2B36167  31.443  17.192  14.307 -0.0154  0.0217 -0.0448
 3082DOPE   C3B36168  31.581  17.650  14.339  0.1337 -0.2866  0.2527
 3082DOPE   C4B36169  31.681  18.099  14.223  0.2151 -0.4258 -0.3671
 3083DOPE   NH336170  23.084  14.704  12.202 -0.0738  0.0317  0.2386
 3083DOPE   PO436171  23.313  14.898  12.235  0.0294 -0.0080  0.1268
 3083DOPE   GL136172  23.355  15.270  12.229  0.0825  0.4247  0.2988
 3083DOPE   GL236173  23.476  15.413  12.439  0.0364 -0.3123 -0.1113
 3083DOPE   C1A36174  23.035  15.522  12.427 -0.0659  0.3573  0.2001
 3083DOPE   D2A36175  22.886  15.579  12.834  0.0611 -0.0765 -0.1671
 3083DOPE   C3A36176  22.671  16.018  12.881 -0.4135 -0.0055  0.0755
 3083DOPE   C4A36177  22.761  16.430  13.201  0.2879 -0.2653 -0.0065
 3083DOPE   C1B36178  23.464  15.852  12.240  0.1290  0.0745  0.0890
 3083DOPE   D2B36179  23.298  16.136  11.912 -0.1944  0.1631  0.3698
 3083DOPE   C3B36180  23.647  16.469  11.753 -0.0029  0.0734  0.2110
 3083DOPE   C4B36181  23.463  16.855  11.573 -0.3310  0.2927 -0.2028
 3084DOPC   NC336182  27.950  18.352  12.682 -0.2746 -0.0875 -0.2663
 3084DOPC   PO436183  27.986  18.521  13.039 -0.0178  0.1256  0.0370
 3084DOPC   GL136184  27.661  18.397  13.300  0.1007 -0.1293 -0.1920
 3084DOPC   GL236185  27.852  18.249  13.497 -0.3980  0.2780 -0.0982
 3084DOPC   C1A36186  27.466  18.395  13.753  0.0178  0.3607  0.0330
 3084DOPC   D2A36187  27.438  18.205  14.183 -0.0198  0.0871 -0.2210
 3084DOPC   C3A36188  27.420  18.395  14.602  0.0616  0.1477  0.1881
 3084DOPC   C4A36189  27.183  18.776  14.517 -0.3059 -0.2711  0.0050
 3084DOPC   C1B36190  27.995  18.157  13.971 -0.0431 -0.0525  0.2589
 3084DOPC   D2B36191  27.972  18.391  14.412  0.1803  0.3250 -0.0662
 3084DOPC   C3B36192  27.954  18.383  14.905 -0.1563  0.0969  0.0003
 3084DOPC   C4B36193  28.050  18.249  15.369 -0.1516  0.3052 -0.0427
 3085DOPE   NH336194  24.736  18.407  12.127 -0.3176  0.3466  0.2806
 3085DOPE   PO436195  24.982  18.190  12.235  0.1082  0.2026 -0.0782
 3085DOPE   GL136196  25.082  18.473  12.384  0.0398  0.3134  0.1467
 3085DOPE   GL236197  25.379  18.564  12.265 -0.0088 -0.1041 -0.0160
 3085DOPE   C1A36198  25.093  18.587  12.878  0.1030 -0.2075 -0.1271
 3085DOPE   D2A36199  25.234  18.698  13.303  0.1338  0.3992 -0.0107
 3085DOPE   C3A36200  24.938  18.905  13.576  0.2494 -0.2770  0.4055
 3085DOPE   C4A36201  24.858  19.078  13.959 -0.0506  0.1323  0.1127
 3085DOPE   C1B36202  25.143  18.913  12.202 -0.0290  0.0283 -0.0484
 3085DOPE   D2B36203  24.809  19.249  12.147  0.2415  0.0360 -0.2608
 3085DOPE   C3B36204  24.649  19.429  12.508  0.0565 -0.0093  0.0749
 3085DOPE   C4B36205  24.779  19.436  12.983 -0.0072  0.4602  0.0671
 3086POSM   NC336206  31.059  16.283  13.489 -0.1997  0.1812  0.0605
 3086POSM   PO436207  30.759  16.560  13.562 -0.1241  0.0323 -0.0037
 3086POSM   AM136208  30.912  16.661  13.845  0.1608 -0.0787 -0.8028
 3086POSM   AM236209  31.170  16.610  13.888 -0.0664  0.2744  0.1748
 3086POSM   T1A36210  30.990  17.057  14.154 -0.0683 -0.0439 -0.2270
 3086POSM   C2A36211  31.021  17.496  14.335 -0.1587  0.1974 -0.2345
 3086POSM   C3A36212  30.977  17.723  14.728 -0.2047 -0.3367 -0.2242
 3086POSM   C1B36213  31.261  16.633  14.215 -0.0378  0.0187  0.0935
 3086POSM   D2B36214  31.259  16.792  14.661 -0.1529 -0.1614 -0.2345
 3086POSM   C3B36215  31.423  17.168  14.797  0.0162 -0.0450  0.0472
 3086POSM   C4B36216  31.464  17.560  14.884 -0.2927  0.1599  0.1694
 3087DOPC   NC336217  31.643  19.174  12.451  0.2251  0.2754  0.2551
 3087DOPC   PO436218  31.326  19.044  12.682 -0.1067  0.1677  0.0856
 3087DOPC   GL136219  31.451  19.283  13.019  0.0981  0.1793  0.2564
 3087DOPC   GL236220  31.359  19.196  13.274  0.1889  0.1323 -0.2952
 3087DOPC   C1A36221  31.529  19.711  13.194 -0.3696  0.3493  0.1314
 3087DOPC   D2A36222  31.794  20.093  13.096  0.2524 -0.0102  0.1193
 3087DOPC   C3A36223  32.211  20.007  13.195  0.2082  0.0039 -0.2499
 3087DOPC   C4A36224  32.506  20.330  13.408 -0.0817  0.0264  0.0062
 3087DOPC   C1B36225  31.326  19.550  13.672  0.0281  0.2497 -0.2276
 3087DOPC   D2B36226  31.580  19.712  14.026 -0.0711 -0.2399 -0.1412
 3087DOPC   C3B36227  31.250  19.944  14.334  0.1768  0.0929  0.1743
 3087DOPC   C4B36228  31.200  20.223  14.707 -0.2279  0.2095  0.4235
 3088POSM   NC336229  30.500  21.900  12.612 -0.0266 -0.1578 -0.1024
 3088POSM   PO436230  30.560  21.899  13.015  0.3500  0.0583  0.0058
 3088POSM   AM136231  30.590  21.961  13.323 -0.2068 -0.4501 -0.2883
 3088POSM   AM236232  30.734  21.937  13.563  0.2879 -0.3209  0.2211
 3088POSM   T1A36233  30.243  21.975  13.703  0.1175 -0.0220  0.1785
 3088POSM   C2A36234  29.933  22.014  14.013  0.3917  0.0778 -0.0228
 3088POSM   C3A36235  29.885  22.263  14.420 -0.0728  0.1188 -0.0300
 3088POSM   C1B36236  30.695  21.951  13.896 -0.0009  0.0924 -0.0175
 3088POSM   D2B36237  30.823  22.202  14.321 -0.0776 -0.3756  0.0520
 3088POSM   C3B36238  31.115  22.509  14.304  0.2588  0.1199  0.1583
 3088POSM   C4B36239  31.264  22.797  14.618  0.0218  0.3166 -0.5913
 3089DOPE   NH336240  28.877  11.357  12.395 -0.1666  0.0736 -0.0907
 3089DOPE   PO436241  28.950  11.300  12.712 -0.1708  0.0710 -0.2583
 3089DOPE   GL136242  28.943  11.209  13.055 -0.2788 -0.1914 -0.2843
 3089DOPE   GL236243  28.724  10.995  13.165  0.0838  0.2659  0.0003
 3089DOPE   C1A36244  29.052  11.514  13.433 -0.0257  0.0909 -0.0908
 3089DOPE   D2A36245  29.231  11.690  13.789  0.0856  0.0511  0.0670
 3089DOPE   C3A36246  29.154  12.021  14.121  0.3046  0.1311  0.1940
 3089DOPE   C4A36247  29.378  12.389  14.342  0.0361 -0.1804 -0.1230
 3089DOPE   C1B36248  28.582  11.075  13.626  0.0581 -0.2557 -0.2051
 3089DOPE   D2B36249  28.444  11.166  14.031 -0.2875  0.0583 -0.1236
 3089DOPE   C3B36250  28.481  10.773  14.308  0.0975  0.0697 -0.2372
 3089DOPE   C4B36251  28.278  10.541  14.648  0.0422 -0.0992 -0.1501
 3090DOPC   NC336252  30.975  15.834  12.775 -0.2888  0.2425 -0.2644
 3090DOPC   PO436253  30.869  16.147  13.051  0.0404 -0.3952  0.2063
 3090DOPC   GL136254  31.289  15.912  13.123 -0.0027  0.4470 -0.0331
 3090DOPC   GL236255  31.117  15.792  13.364 -0.0955 -0.0652  0.1159
 3090DOPC   C1A36256  31.446  15.478  13.137 -0.3061  0.2776 -0.0080
 3090DOPC   D2A36257  31.788  15.128  13.076  0.1524 -0.0478 -0.0985
 3090DOPC   C3A36258  31.913  15.119  13.493  0.2345 -0.1187  0.1169
 3090DOPC   C4A36259  31.662  15.309  13.805 -0.3210 -0.1138 -0.1710
 3090DOPC   C1B36260  31.519  15.884  13.569 -0.1150 -0.0478  0.2281
 3090DOPC   D2B36261  31.842  15.889  13.921  0.0478 -0.0220  0.2035
 3090DOPC   C3B36262  31.929  15.595  14.215 -0.0569  0.3444  0.1264
 3090DOPC   C4B36263  32.159  15.274  14.230 -0.0995  0.1755  0.1544
 3091DOPE   NH336264  34.224  11.605  12.253 -0.0887 -0.1951  0.0882
 3091DOPE   PO436265  34.305  11.725  12.507  0.2655  0.1565  0.2117
 3091DOPE   GL136266  34.455  12.044  12.570  0.3159 -0.1282 -0.1848
 3091DOPE   GL236267  34.747  12.075  12.682 -0.1025 -0.0002  0.0363
 3091DOPE   C1A36268  34.561  12.477  12.424 -0.2883 -0.0176 -0.1706
 3091DOPE   D2A36269  34.774  12.900  12.537 -0.2045 -0.1272  0.2650
 3091DOPE   C3A36270  34.833  12.822  12.972 -0.1539  0.1449 -0.1647
 3091DOPE   C4A36271  35.066  12.668  13.394  0.0778  0.0442  0.0968
 3091DOPE   C1B36272  34.585  12.365  12.948 -0.3391 -0.0744 -0.4101
 3091DOPE   D2B36273  34.286  12.678  13.131 -0.2587  0.3049  0.1575
 3091DOPE   C3B36274  34.550  12.480  13.465 -0.0306 -0.0516 -0.0426
 3091DOPE   C4B36275  34.864  12.257  13.727 -0.0765 -0.2464  0.1842
 3092POSM   NC336276  24.794  15.803  12.136  0.3643  0.3607 -0.0814
 3092POSM   PO436277  24.612  15.802  12.513 -0.0612  0.0186  0.2025
 3092POSM   AM136278  24.639  15.610  12.762  0.0723 -0.3058 -0.2080
 3092POSM   AM236279  24.757  15.542  13.005 -0.0861  0.0583  0.3667
 3092POSM   T1A36280  24.335  15.285  13.085  0.0216 -0.1928 -0.0217
 3092POSM   C2A36281  24.400  15.185  13.495  0.1868  0.0821 -0.1052
 3092POSM   C3A36282  24.597  15.427  13.772  0.3224  0.1930  0.1382
 3092POSM   C1B36283  24.826  15.585  13.339  0.0133 -0.1449  0.2063
 3092POSM   D2B36284  24.948  15.804  13.728 -0.2453 -0.1502 -0.1403
 3092POSM   C3B36285  24.845  16.154  13.992 -0.2240 -0.0084  0.0484
 3092POSM   C4B36286  24.788  16.645  13.980  0.2518 -0.0664 -0.1109
 3093DOPC   NC336287  30.313  18.855  13.305  0.0124 -0.0826  0.0074
 3093DOPC   PO436288  29.962  18.748  13.064  0.3058  0.1786 -0.0985
 3093DOPC   GL136289  29.956  18.744  13.574 -0.3027  0.0458  0.3632
 3093DOPC   GL236290  30.143  18.458  13.664  0.2755  0.0748  0.0291
 3093DOPC   C1A36291  29.557  18.769  13.865 -0.1257  0.0712  0.1352
 3093DOPC   D2A36292  29.364  18.841  14.221  0.2348  0.0298  0.1644
 3093DOPC   C3A36293  28.990  19.059  14.482  0.0115 -0.1648  0.1434
 3093DOPC   C4A36294  28.869  19.491  14.721  0.1154  0.0190 -0.0717
 3093DOPC   C1B36295  30.478  18.227  13.832 -0.3232  0.3270  0.1404
 3093DOPC   D2B36296  30.816  18.404  14.046  0.1984 -0.0666 -0.3365
 3093DOPC   C3B36297  30.755  18.423  14.503 -0.1046 -0.1954  0.0311
 3093DOPC   C4B36298  30.973  18.659  14.849 -0.0687 -0.1967  0.0157
 3094POSM   NC336299  30.669  13.730  13.431  0.0365 -0.0755  0.4088
 3094POSM   PO436300  30.642  13.416  13.203  0.2517 -0.0531  0.0255
 3094POSM   AM136301  30.810  13.266  13.482  0.2906  0.2161  0.0997
 3094POSM   AM236302  30.740  13.281  13.740 -0.2960 -0.1196 -0.1720
 3094POSM   T1A36303  31.092  12.855  13.566  0.2090  0.0122  0.3397
 3094POSM   C2A36304  31.311  12.579  13.723 -0.2968  0.2032  0.0809
 3094POSM   C3A36305  31.719  12.313  13.860 -0.3470 -0.2809 -0.0414
 3094POSM   C1B36306  30.596  13.474  13.940  0.0198 -0.0518  0.0403
 3094POSM   D2B36307  30.390  13.559  14.353  0.2514  0.0952  0.1900
 3094POSM   C3B36308  30.022  13.231  14.477  0.1298 -0.0737  0.1077
 3094POSM   C4B36309  29.690  13.110  14.815 -0.0155 -0.0910 -0.0616
 3095POSM   NC336310  24.587  17.905  12.040 -0.0667  0.0713  0.0331
 3095POSM   PO436311  24.279  18.135  12.035  0.0666  0.1673  0.0345
 3095POSM   AM136312  24.220  18.210  12.368  0.1063  0.2427 -0.4355
 3095POSM   AM236313  24.178  18.468  12.471 -0.0987 -0.2537 -0.2415
 3095POSM   T1A36314  24.155  18.172  12.865 -0.0945  0.3150  0.0220
 3095POSM   C2A36315  24.038  17.972  13.300 -0.2295  0.3006 -0.3730
 3095POSM   C3A36316  24.064  17.736  13.684  0.0058 -0.1834 -0.1658
 3095POSM   C1B36317  24.482  18.578  12.624  0.5308  0.1420 -0.0366
 3095POSM   D2B36318  24.593  18.743  13.021 -0.4888 -0.2265  0.3259
 3095POSM   C3B36319  24.226  18.927  13.312 -0.0732  0.4286 -0.1238
 3095POSM   C4B36320  24.166  19.079  13.755 -0.1521  0.1051 -0.0591
 3096DOPC   NC336321  28.746  14.190  13.405 -0.1469 -0.0123  0.3365
 3096DOPC   PO436322  28.752  14.082  13.044 -0.3144 -0.3786  0.0181
 3096DOPC   GL136323  28.517  13.809  13.260  0.0454  0.0280 -0.3167
 3096DOPC   GL236324  28.443  13.528  13.180 -0.2270 -0.0487 -0.0339
 3096DOPC   C1A36325  28.698  13.673  13.693 -0.2879 -0.0232 -0.1139
 3096DOPC   D2A36326  28.470  13.473  14.054  0.1264  0.1139 -0.0210
 3096DOPC   C3A36327  28.197  13.216  13.783  0.1552  0.0439 -0.1137
 3096DOPC   C4A36328  27.793  13.011  13.680 -0.1929 -0.0860 -0.0189
 3096DOPC   C1B36329  28.117  13.614  13.511 -0.3746 -0.0445 -0.2289
 3096DOPC   D2B36330  27.782  13.523  13.799 -0.0596  0.0478  0.1733
 3096DOPC   C3B36331  27.856  13.222  14.199 -0.1374 -0.3720  0.0587
 3096DOPC   C4B36332  28.215  13.299  14.438  0.1862 -0.0947  0.3440
 3097DOPE   NH336333  26.775  12.611  12.918 -0.0769  0.0474  0.1032
 3097DOPE   PO436334  26.939  12.806  12.752 -0.1177 -0.2875 -0.2517
 3097DOPE   GL136335  26.860  13.181  12.991 -0.3109  0.1588 -0.2105
 3097DOPE   GL236336  27.019  13.213  13.252 -0.0651 -0.0887 -0.1208
 3097DOPE   C1A36337  26.618  13.524  13.023 -0.0380  0.3073 -0.0537
 3097DOPE   D2A36338  26.421  13.586  13.399  0.2296  0.2770  0.1280
 3097DOPE   C3A36339  26.617  13.582  13.782  0.0331  0.1079  0.1038
 3097DOPE   C4A36340  26.929  13.320  13.952 -0.2758  0.1307 -0.1183
 3097DOPE   C1B36341  26.990  13.597  13.462 -0.2570 -0.3010 -0.1328
 3097DOPE   D2B36342  27.009  13.990  13.742 -0.4296 -0.1323 -0.1083
 3097DOPE   C3B36343  26.906  14.320  14.000 -0.5153 -0.0811 -0.3869
 3097DOPE   C4B36344  26.763  14.693  13.859 -0.1367  0.0749  0.1426
 3098POSM   NC336345  26.992  22.587  13.083  0.1224  0.1018  0.1381
 3098POSM   PO436346  27.091  22.930  13.244 -0.1801 -0.4410 -0.0988
 3098POSM   AM136347  26.931  22.891  13.526 -0.0454  0.1027  0.2758
 3098POSM   AM236348  26.785  22.646  13.584 -0.2847  0.3814  0.1469
 3098POSM   T1A36349  27.025  22.849  13.965  0.2735 -0.1852 -0.1867
 3098POSM   C2A36350  27.342  23.107  14.156  0.0157 -0.0001 -0.1895
 3098POSM   C3A36351  27.447  23.555  14.022 -0.1202 -0.1946  0.0170
 3098POSM   C1B36352  26.539  22.633  13.833  0.0430 -0.2012 -0.0430
 3098POSM   D2B36353  26.232  22.931  14.105 -0.2761 -0.2605  0.1229
 3098POSM   C3B36354  26.187  23.290  14.448  0.0302  0.0680  0.1860
 3098POSM   C4B36355  26.369  23.258  14.874  0.0088 -0.1414 -0.1390
 3099POSM   NC336356  27.850  14.007  12.510 -0.2088  0.2458 -0.0235
 3099POSM   PO436357  27.874  13.637  12.596 -0.1104 -0.2098  0.1505
 3099POSM   AM136358  27.561  13.661  12.620 -0.2937 -0.1747 -0.0801
 3099POSM   AM236359  27.398  13.526  12.837 -0.3259  0.2339 -0.0201
 3099POSM   T1A36360  27.202  13.978  12.503  0.6563  0.0831  0.2365
 3099POSM   C2A36361  26.945  14.348  12.368 -0.2070  0.2906 -0.1079
 3099POSM   C3A36362  26.528  14.564  12.430 -0.2452  0.0229  0.2210
 3099POSM   C1B36363  27.104  13.596  12.881  0.0526 -0.1067  0.3730
 3099POSM   D2B36364  26.859  14.005  12.995  0.0593  0.0063  0.1017
 3099POSM   C3B36365  26.643  14.049  13.421  0.3177 -0.1218 -0.0155
 3099POSM   C4B36366  26.200  14.007  13.514 -0.1620 -0.2815  0.0801
 3100DOPS   CNO36367  29.972  17.311  13.147 -0.0638  0.0394 -0.1907
 3100DOPS   PO436368  30.090  17.286  13.505  0.1017 -0.1850 -0.1503
 3100DOPS   GL136369  30.165  17.559  13.759  0.3100  0.4174 -0.0889
 3100DOPS   GL236370  30.444  17.650  13.613 -0.1427 -0.0078 -0.0054
 3100DOPS   C1A36371  30.292  17.846  14.075 -0.1023 -0.1650  0.2448
 3100DOPS   D2A36372  30.583  17.954  14.350  0.2119 -0.1217  0.2583
 3100DOPS   C3A36373  30.568  17.957  14.845 -0.2998 -0.0390 -0.2089
 3100DOPS   C4A36374  30.305  18.019  15.244 -0.1433  0.2332 -0.0582
 3100DOPS   C1B36375  30.618  17.447  14.014  0.2051  0.0031  0.1842
 3100DOPS   D2B36376  30.626  17.193  14.476 -0.0121  0.3792  0.0394
 3100DOPS   C3B36377  30.211  17.163  14.701 -0.0059 -0.0366 -0.0507
 3100DOPS   C4B36378  29.815  17.094  14.893 -0.0030  0.0336 -0.0211
 3101DOPC   NC336379  26.287  20.564  12.158 -0.3719  0.0718  0.0877
 3101DOPC   PO436380  26.284  20.816  11.822  0.1159  0.0178 -0.1856
 3101DOPC   GL136381  26.672  20.945  12.016 -0.2223 -0.1334 -0.0035
 3101DOPC   GL236382  26.976  20.708  12.028 -0.0508  0.1759 -0.2193
 3101DOPC   C1A36383  26.609  20.910  12.449 -0.0828  0.0490 -0.0967
 3101DOPC   D2A36384  26.447  20.684  12.813  0.0352 -0.0313 -0.3579
 3101DOPC   C3A36385  26.033  20.852  12.843 -0.0130 -0.1788 -0.0869
 3101DOPC   C4A36386  25.921  21.297  12.737  0.0594 -0.0835 -0.0346
 3101DOPC   C1B36387  26.748  20.299  11.978  0.1388 -0.1981 -0.1828
 3101DOPC   D2B36388  26.543  20.032  12.280 -0.2403  0.2373  0.0729
 3101DOPC   C3B36389  26.166  19.867  12.543  0.0269 -0.0509 -0.2225
 3101DOPC   C4B36390  26.002  19.695  12.966 -0.1914  0.1125  0.2576
 3102POSM   NC336391  24.865  17.650  12.339  0.0966 -0.0293  0.1816
 3102POSM   PO436392  24.481  17.518  12.360  0.1134  0.1355 -0.0469
 3102POSM   AM136393  24.242  17.293  12.364 -0.0522  0.1190 -0.0588
 3102POSM   AM236394  24.094  17.051  12.269 -0.2213  0.1388  0.2534
 3102POSM   T1A36395  23.945  17.099  12.746 -0.0058 -0.0787 -0.1292
 3102POSM   C2A36396  23.548  17.213  12.875 -0.3848 -0.1111 -0.0928
 3102POSM   C3A36397  23.397  17.496  13.206  0.1632 -0.0927 -0.0916
 3102POSM   C1B36398  23.796  16.896  12.343  0.0855  0.2648 -0.0322
 3102POSM   D2B36399  23.430  16.703  12.520  0.1686 -0.1136 -0.0792
 3102POSM   C3B36400  23.144  16.429  12.305 -0.2272  0.1032  0.0932
 3102POSM   C4B36401  22.962  16.058  12.471  0.1020 -0.1745 -0.2771
 3103DOPE   NH336402  29.274  15.112  13.129  0.1479 -0.0021  0.2554
 3103DOPE   PO436403  29.375  15.320  13.322  0.1404  0.2269 -0.2318
 3103DOPE   GL136404  29.115  15.381  13.571 -0.1213  0.2997 -0.2851
 3103DOPE   GL236405  28.973  15.070  13.584 -0.0810 -0.0157 -0.1185
 3103DOPE   C1A36406  28.871  15.460  13.960 -0.1778 -0.1016 -0.0768
 3103DOPE   D2A36407  28.560  15.606  14.203 -0.0043  0.0387 -0.0576
 3103DOPE   C3A36408  28.701  15.638  14.679  0.2192  0.1911  0.1276
 3103DOPE   C4A36409  28.923  15.345  15.003  0.0114  0.1339 -0.0141
 3103DOPE   C1B36410  28.530  15.132  13.768 -0.6888 -0.2789 -0.1585
 3103DOPE   D2B36411  28.319  15.145  14.152 -0.1837  0.1334  0.0257
 3103DOPE   C3B36412  27.978  15.398  14.269 -0.3435  0.0622  0.2822
 3103DOPE   C4B36413  27.687  15.635  13.950 -0.0362  0.0585 -0.2814
 3104POSM   NC336414  24.030  18.343  11.669 -0.1696  0.2727  0.1638
 3104POSM   PO436415  24.223  18.604  11.903 -0.1724 -0.1027  0.2903
 3104POSM   AM136416  24.304  18.823  12.147 -0.4265 -0.0266  0.1224
 3104POSM   AM236417  24.242  19.143  12.123  0.0917  0.0133 -0.0616
 3104POSM   T1A36418  24.315  19.086  12.569  0.2960 -0.0604  0.4582
 3104POSM   C2A36419  24.268  19.325  12.954  0.0943  0.0884  0.3082
 3104POSM   C3A36420  24.179  19.497  13.368  0.1127 -0.0387  0.0460
 3104POSM   C1B36421  24.137  19.434  12.210  0.2609 -0.2364 -0.2425
 3104POSM   D2B36422  23.792  19.582  12.470 -0.0304  0.0546 -0.1638
 3104POSM   C3B36423  24.015  19.763  12.754  0.0059 -0.4039 -0.0303
 3104POSM   C4B36424  24.443  19.823  12.971  0.1627 -0.0914  0.1501
 3105POSM   NC336425  26.920  18.406  12.511  0.0511  0.0301  0.1324
 3105POSM   PO436426  26.616  18.268  12.778 -0.0402 -0.1450  0.2846
 3105POSM   AM136427  26.609  18.313  13.121  0.3299 -0.2022 -0.0137
 3105POSM   AM236428  26.607  18.552  13.280 -0.1150 -0.0500 -0.0724
 3105POSM   T1A36429  26.658  18.164  13.598  0.0283  0.2664 -0.0058
 3105POSM   C2A36430  26.968  17.945  13.889  0.0992  0.0394 -0.1498
 3105POSM   C3A36431  27.038  17.820  14.344  0.1997 -0.1805  0.1690
 3105POSM   C1B36432  26.523  18.721  13.587 -0.1961 -0.0688  0.0881
 3105POSM   D2B36433  26.576  19.014  13.985 -0.0664 -0.0703  0.1449
 3105POSM   C3B36434  26.419  19.435  13.992 -0.2525 -0.0925 -0.1010
 3105POSM   C4B36435  26.197  19.850  14.029  0.2732  0.1600 -0.0938
 3106POSM   NC336436  25.587  18.096  12.317 -0.0947  0.3894 -0.0294
 3106POSM   PO436437  25.798  17.974  12.613 -0.1465  0.1702  0.0166
 3106POSM   AM136438  25.715  17.825  12.860 -0.0964 -0.1474  0.1932
 3106POSM   AM236439  25.471  17.732  13.017  0.1512 -0.1520 -0.0436
 3106POSM   T1A36440  25.817  17.822  13.384 -0.1798 -0.0541 -0.3298
 3106POSM   C2A36441  25.770  17.812  13.831 -0.1653 -0.3665  0.1568
 3106POSM   C3A36442  25.941  18.064  14.173  0.2373 -0.0114 -0.1995
 3106POSM   C1B36443  25.340  17.873  13.312 -0.2222 -0.0340 -0.0682
 3106POSM   D2B36444  25.074  18.124  13.607 -0.4475  0.1932 -0.0131
 3106POSM   C3B36445  25.321  18.186  14.030 -0.2705  0.1903 -0.2413
 3106POSM   C4B36446  25.487  17.873  14.332  0.3572  0.0763  0.0385
 3107DOPS   CNO36447  31.514  16.140  12.829  0.2138  0.2400  0.1425
 3107DOPS   PO436448  31.296  16.396  12.995 -0.4264  0.0421  0.1263
 3107DOPS   GL136449  31.520  16.270  13.308 -0.0357 -0.4046 -0.0625
 3107DOPS   GL236450  31.794  16.363  13.220 -0.1221 -0.0366  0.0108
 3107DOPS   C1A36451  31.864  15.898  13.222  0.0049 -0.0645  0.3463
 3107DOPS   D2A36452  32.217  15.650  13.074  0.0312 -0.1733  0.0881
 3107DOPS   C3A36453  32.562  15.453  13.416 -0.1115 -0.0807 -0.1629
 3107DOPS   C4A36454  32.746  15.354  13.835  0.0786  0.0271 -0.1053
 3107DOPS   C1B36455  32.028  16.753  13.336  0.2005  0.1190  0.0970
 3107DOPS   D2B36456  32.310  16.908  13.675  0.2105 -0.0107  0.1235
 3107DOPS   C3B36457  32.345  16.783  14.128 -0.0617 -0.0633  0.0484
 3107DOPS   C4B36458  32.324  16.962  14.499  0.1184 -0.2889  0.1124
 3108POSM   NC336459  29.750  11.230  12.488  0.1120 -0.2945  0.2188
 3108POSM   PO436460  29.737  11.594  12.615  0.0127 -0.1648  0.0413
 3108POSM   AM136461  29.769  11.875  12.715  0.2860  0.2406 -0.3118
 3108POSM   AM236462  29.940  12.046  12.910 -0.0004  0.0955  0.0993
 3108POSM   T1A36463  29.709  12.379  12.617  0.0570  0.1823  0.1739
 3108POSM   C2A36464  29.636  12.834  12.626  0.0088  0.0854 -0.0571
 3108POSM   C3A36465  29.414  13.205  12.471 -0.1096 -0.0729 -0.2547
 3108POSM   C1B36466  29.748  12.027  13.204  0.2029 -0.0452 -0.0614
 3108POSM   D2B36467  29.327  12.064  13.422 -0.3677  0.0541  0.0981
 3108POSM   C3B36468  29.358  12.349  13.816 -0.0990  0.0821  0.1269
 3108POSM   C4B36469  29.217  12.791  13.972 -0.1329  0.4774 -0.0654
 3109DOPE   NH336470  33.292  14.904  12.744  0.1708 -0.4004 -0.1940
 3109DOPE   PO436471  33.476  14.882  12.502 -0.1705  0.0085 -0.4523
 3109DOPE   GL136472  33.449  15.242  12.429  0.3660  0.0967 -0.1408
 3109DOPE   GL236473  33.652  15.431  12.520 -0.1590  0.1538  0.3677
 3109DOPE   C1A36474  33.098  15.531  12.597  0.1899  0.1177 -0.1345
 3109DOPE   D2A36475  32.840  15.230  12.886 -0.0090  0.2196 -0.0078
 3109DOPE   C3A36476  33.009  15.147  13.318  0.1922 -0.1740  0.1245
 3109DOPE   C4A36477  32.974  14.876  13.639  0.0485 -0.0413  0.1307
 3109DOPE   C1B36478  33.450  15.689  12.867  0.0373  0.0058  0.2478
 3109DOPE   D2B36479  33.068  15.627  13.156  0.0796 -0.0078 -0.0724
 3109DOPE   C3B36480  33.133  15.663  13.620  0.0907  0.3641  0.1140
 3109DOPE   C4B36481  33.133  15.792  14.076 -0.1404  0.2780  0.0289
 3110DOPE   NH336482  34.193  22.562  12.962  0.1972  0.3233  0.0225
 3110DOPE   PO436483  34.298  22.258  12.914 -0.3104  0.4135 -0.0257
 3110DOPE   GL136484  34.178  22.012  13.258 -0.2392 -0.0556  0.1199
 3110DOPE   GL236485  33.935  22.194  13.287 -0.0764  0.2114 -0.0123
 3110DOPE   C1A36486  34.077  21.822  13.670  0.0523  0.1027 -0.3732
 3110DOPE   D2A36487  34.219  21.911  14.083  0.2717  0.0064  0.1141
 3110DOPE   C3A36488  34.333  22.370  14.228 -0.1026  0.1501  0.0269
 3110DOPE   C4A36489  34.458  22.717  14.452  0.0517  0.0198  0.1583
 3110DOPE   C1B36490  33.506  22.150  13.106 -0.3959  0.1343 -0.1816
 3110DOPE   D2B36491  33.240  22.060  12.738 -0.0284  0.1534  0.2802
 3110DOPE   C3B36492  33.117  21.706  13.039 -0.0291  0.1702 -0.1935
 3110DOPE   C4B36493  33.203  21.473  13.474  0.1735  0.3418 -0.2217
 3111DOPE   NH336494  28.605  18.393  13.266 -0.0853  0.0179 -0.2113
 3111DOPE   PO436495  28.358  18.221  13.318 -0.0560 -0.1425 -0.1466
 3111DOPE   GL136496  28.210  18.504  13.528  0.1096  0.1316  0.1718
 3111DOPE   GL236497  28.419  18.527  13.754 -0.0859  0.0556  0.0095
 3111DOPE   C1A36498  27.937  18.617  13.883 -0.2646  0.1158  0.1474
 3111DOPE   D2A36499  27.876  18.882  14.257  0.0323  0.2497  0.0441
 3111DOPE   C3A36500  27.738  18.840  14.674 -0.0816 -0.2761  0.0677
 3111DOPE   C4A36501  27.421  18.661  15.000  0.2551  0.1077 -0.1230
 3111DOPE   C1B36502  28.485  18.145  13.971  0.4201 -0.0019  0.1860
 3111DOPE   D2B36503  28.588  17.797  14.026 -0.3433 -0.1052 -0.3283
 3111DOPE   C3B36504  28.234  17.487  14.222  0.1791  0.0600  0.2154
 3111DOPE   C4B36505  27.959  17.050  14.250 -0.0617  0.2731  0.2011
 3112DOPE   NH336506  23.580  14.597  11.885 -0.2434 -0.2427  0.1183
 3112DOPE   PO436507  23.790  14.329  11.886  0.3300  0.0567  0.1173
 3112DOPE   GL136508  23.976  14.054  12.215 -0.3625  0.0054  0.5053
 3112DOPE   GL236509  24.184  14.058  12.068  0.0136 -0.1762  0.4445
 3112DOPE   C1A36510  24.029  13.568  12.225  0.1626 -0.1366  0.1490
 3112DOPE   D2A36511  24.298  13.204  12.275  0.0609  0.0602  0.2045
 3112DOPE   C3A36512  24.746  13.234  12.112  0.0813  0.1792  0.2862
 3112DOPE   C4A36513  25.147  13.315  11.930 -0.1168 -0.1830  0.1963
 3112DOPE   C1B36514  24.435  13.777  12.362  0.1014 -0.0448 -0.2086
 3112DOPE   D2B36515  24.226  13.560  12.755  0.1866 -0.1703 -0.0984
 3112DOPE   C3B36516  24.099  13.120  12.897 -0.3175 -0.0031  0.1102
 3112DOPE   C4B36517  23.897  12.647  12.952  0.0922 -0.1643 -0.1378
 3113POSM   NC336518  24.260  14.970  12.160  0.3743 -0.1391  0.4096
 3113POSM   PO436519  24.102  14.739  11.910  0.3227 -0.3019  0.1388
 3113POSM   AM136520  24.269  14.506  12.073 -0.1638  0.0716 -0.0062
 3113POSM   AM236521  24.263  14.419  12.381 -0.1847 -0.1160 -0.2864
 3113POSM   T1A36522  24.644  14.200  12.184  0.1770  0.3320 -0.0695
 3113POSM   C2A36523  24.902  13.831  12.368 -0.0943 -0.0802  0.0274
 3113POSM   C3A36524  25.170  13.486  12.452 -0.0435  0.1553  0.0727
 3113POSM   C1B36525  24.469  14.239  12.674 -0.0323 -0.1587  0.2091
 3113POSM   D2B36526  24.829  14.071  12.872 -0.1599 -0.0185 -0.0586
 3113POSM   C3B36527  24.754  13.868  13.290  0.1225 -0.1722 -0.1638
 3113POSM   C4B36528  24.454  13.793  13.612  0.1454 -0.1651 -0.2859
 3114DOPC   NC336529  33.631  19.585  12.490  0.0404  0.4150  0.0220
 3114DOPC   PO436530  33.766  19.886  12.670  0.1011  0.1627  0.6051
 3114DOPC   GL136531  33.575  20.251  12.791 -0.4470  0.1716 -0.0336
 3114DOPC   GL236532  33.384  20.349  12.621 -0.0750 -0.0026  0.1735
 3114DOPC   C1A36533  33.288  20.465  13.103 -0.0012  0.0739  0.0761
 3114DOPC   D2A36534  33.342  20.463  13.519  0.0918 -0.2378 -0.0027
 3114DOPC   C3A36535  33.540  20.593  13.923  0.2208 -0.1180 -0.0807
 3114DOPC   C4A36536  33.668  20.708  14.335  0.2770  0.0767  0.1310
 3114DOPC   C1B36537  33.216  20.772  12.676  0.0183  0.1764  0.2354
 3114DOPC   D2B36538  33.141  21.231  12.740  0.1612 -0.1482  0.1409
 3114DOPC   C3B36539  33.526  21.312  12.986 -0.0502 -0.3568  0.4265
 3114DOPC   C4B36540  33.665  21.543  13.374 -0.4411  0.1558  0.3751
 3115DOPC   NC336541  29.915  21.253  13.229 -0.0165  0.2610  0.2574
 3115DOPC   PO436542  29.838  21.614  13.138 -0.0554  0.0001 -0.0627
 3115DOPC   GL136543  29.467  21.636  13.260  0.0457  0.0695 -0.0579
 3115DOPC   GL236544  29.393  21.376  13.209  0.1072 -0.1126 -0.0489
 3115DOPC   C1A36545  29.084  21.688  13.572 -0.1605 -0.0859 -0.1885
 3115DOPC   D2A36546  28.913  21.316  13.838  0.0082  0.0716 -0.2629
 3115DOPC   C3A36547  28.718  21.258  14.308 -0.2141 -0.0546 -0.2238
 3115DOPC   C4A36548  28.699  21.156  14.709  0.1880  0.1034  0.2033
 3115DOPC   C1B36549  29.420  21.258  13.696  0.2288 -0.2526 -0.0008
 3115DOPC   D2B36550  29.540  21.155  14.154 -0.2172  0.0278 -0.1262
 3115DOPC   C3B36551  29.509  20.748  14.367 -0.1016 -0.1612 -0.3847
 3115DOPC   C4B36552  29.135  20.557  14.524 -0.1802  0.1692  0.2191
 3116POSM   NC336553  24.972  16.791  12.285 -0.0416  0.1444 -0.1696
 3116POSM   PO436554  25.043  16.827  12.671  0.1755  0.1693  0.1483
 3116POSM   AM136555  24.819  16.684  12.884  0.1122 -0.5370 -0.1760
 3116POSM   AM236556  24.927  16.537  13.134  0.0663 -0.0876  0.2414
 3116POSM   T1A36557  24.434  16.457  13.063  0.0219 -0.0459 -0.0227
 3116POSM   C2A36558  24.064  16.223  13.038  0.0433 -0.1685  0.0776
 3116POSM   C3A36559  23.780  15.894  12.999  0.0994  0.0604  0.2443
 3116POSM   C1B36560  24.819  16.651  13.438  0.2237  0.1134  0.2562
 3116POSM   D2B36561  24.573  16.977  13.637  0.3502  0.2139  0.0002
 3116POSM   C3B36562  24.121  17.106  13.625 -0.1321  0.0744  0.1942
 3116POSM   C4B36563  23.744  16.968  13.344  0.1032  0.0500  0.2797
 3117POSM   NC336564  31.678  18.673  12.666 -0.2818  0.0177 -0.1021
 3117POSM   PO436565  31.647  18.850  13.022  0.2857  0.1839 -0.0504
 3117POSM   AM136566  31.853  18.631  13.128 -0.0842  0.2994 -0.1973
 3117POSM   AM236567  31.987  18.511  13.312 -0.2148  0.1983 -0.0778
 3117POSM   T1A36568  31.932  18.138  12.998  0.0446 -0.1291  0.0508
 3117POSM   C2A36569  31.720  17.725  12.980 -0.1131  0.1229 -0.2180
 3117POSM   C3A36570  31.640  17.442  13.333  0.1885 -0.2082 -0.2153
 3117POSM   C1B36571  31.934  18.365  13.622 -0.0670  0.0189 -0.3347
 3117POSM   D2B36572  32.027  17.993  13.863 -0.2009 -0.0883  0.1983
 3117POSM   C3B36573  32.067  17.753  14.269  0.1594 -0.4480  0.0588
 3117POSM   C4B36574  32.362  17.495  14.581  0.1024 -0.2925 -0.0936
 3118DOPS   CNO36575  30.494  14.372  13.157  0.0100  0.0626  0.2670
 3118DOPS   PO436576  30.764  14.202  13.246 -0.1129  0.2084 -0.2048
 3118DOPS   GL136577  31.085  14.309  13.307  0.3903 -0.3069  0.0208
 3118DOPS   GL236578  31.163  14.487  13.103  0.1089 -0.0826  0.2195
 3118DOPS   C1A36579  31.252  14.381  13.767 -0.1368  0.3470 -0.0470
 3118DOPS   D2A36580  31.250  14.218  14.198 -0.4817 -0.2323  0.0532
 3118DOPS   C3A36581  31.161  14.093  14.605 -0.3549  0.0415  0.0439
 3118DOPS   C4A36582  30.952  14.001  14.974 -0.1970  0.2236  0.1715
 3118DOPS   C1B36583  31.558  14.248  13.331  0.0372 -0.0047 -0.3588
 3118DOPS   D2B36584  31.979  14.021  13.369 -0.2247  0.0014  0.0398
 3118DOPS   C3B36585  32.260  14.375  13.540  0.1998  0.1267  0.1407
 3118DOPS   C4B36586  32.692  14.446  13.497 -0.0810 -0.0926  0.1247
 3119DOPE   NH336587  30.228  19.746  13.111  0.0533 -0.1438 -0.0323
 3119DOPE   PO436588  30.477  19.467  13.182 -0.0549  0.2987  0.0295
 3119DOPE   GL136589  30.723  19.700  13.401 -0.0621  0.1956  0.0560
 3119DOPE   GL236590  30.977  19.541  13.332 -0.1200  0.0462  0.0208
 3119DOPE   C1A36591  30.851  20.051  13.724  0.0783  0.2759  0.1781
 3119DOPE   D2A36592  30.847  20.265  14.163  0.1631  0.1111 -0.0505
 3119DOPE   C3A36593  30.733  20.032  14.543  0.1807 -0.3423  0.2801
 3119DOPE   C4A36594  30.674  19.678  14.765  0.0472 -0.0580 -0.0783
 3119DOPE   C1B36595  31.155  19.623  12.888 -0.0611  0.1020 -0.1857
 3119DOPE   D2B36596  31.574  19.677  12.674  0.1302 -0.2210 -0.0223
 3119DOPE   C3B36597  31.456  20.108  12.696 -0.0077 -0.1486  0.0177
 3119DOPE   C4B36598  31.528  20.404  12.382 -0.0270  0.1341  0.0376
 3120DOPC   NC336599  30.253  16.850  13.627  0.0786  0.1389 -0.1602
 3120DOPC   PO436600  30.301  16.477  13.557 -0.0447 -0.1499 -0.2379
 3120DOPC   GL136601  30.430  16.300  13.851  0.4126 -0.1564  0.0689
 3120DOPC   GL236602  30.421  16.421  14.025 -0.1581 -0.1462 -0.2021
 3120DOPC   C1A36603  30.324  15.937  14.134 -0.0795 -0.0453  0.0220
 3120DOPC   D2A36604  30.232  15.795  14.593  0.1574 -0.2430  0.2386
 3120DOPC   C3A36605  30.070  15.370  14.659  0.1898 -0.2179 -0.5080
 3120DOPC   C4A36606  30.317  15.009  14.673 -0.0921  0.0037  0.4360
 3120DOPC   C1B36607  30.077  16.319  14.318 -0.0378 -0.0412 -0.2707
 3120DOPC   D2B36608  29.723  16.526  14.638  0.0349 -0.1785  0.1484
 3120DOPC   C3B36609  29.300  16.282  14.698  0.1522 -0.2997  0.0467
 3120DOPC   C4B36610  28.868  16.119  14.735  0.1479 -0.0887  0.2531
 3121DOPC   NC336611  28.083  18.974  12.890  0.2811  0.0653  0.1438
 3121DOPC   PO436612  28.201  19.306  13.124 -0.2337 -0.1544  0.1040
 3121DOPC   GL136613  27.963  19.314  13.427  0.0622  0.1198  0.0333
 3121DOPC   GL236614  27.974  19.156  13.753  0.0111 -0.2303 -0.1713
 3121DOPC   C1A36615  27.890  19.637  13.788  0.0159  0.1409  0.1610
 3121DOPC   D2A36616  27.615  19.850  13.990 -0.2472  0.0423 -0.0109
 3121DOPC   C3A36617  27.687  19.831  14.440 -0.2113 -0.0211 -0.1411
 3121DOPC   C4A36618  27.973  19.973  14.705 -0.4370 -0.0561 -0.0505
 3121DOPC   C1B36619  28.294  18.956  14.056  0.0632 -0.1357  0.0423
 3121DOPC   D2B36620  28.407  18.564  14.268 -0.0766  0.1545  0.0600
 3121DOPC   C3B36621  28.466  18.165  14.485  0.4153  0.1106 -0.0728
 3121DOPC   C4B36622  28.286  17.750  14.647  0.0090 -0.2184 -0.0720
 3122DOPC   NC336623  29.525  22.017  13.047 -0.2194 -0.0729  0.0509
 3122DOPC   PO436624  29.475  21.749  12.742 -0.0704 -0.0374 -0.0912
 3122DOPC   GL136625  29.164  21.633  12.830 -0.0103  0.1266  0.1500
 3122DOPC   GL236626  28.915  21.804  12.645  0.2243  0.1272  0.2139
 3122DOPC   C1A36627  28.900  21.338  13.092 -0.0246  0.2816  0.3035
 3122DOPC   D2A36628  28.662  21.214  13.415  0.0617 -0.0060  0.1423
 3122DOPC   C3A36629  28.484  21.470  13.754  0.0758  0.0814  0.0732
 3122DOPC   C4A36630  28.242  21.611  14.111 -0.1212 -0.1120 -0.0406
 3122DOPC   C1B36631  28.408  21.785  12.606  0.1835 -0.1157 -0.1192
 3122DOPC   D2B36632  28.126  21.868  12.889 -0.1722 -0.1023 -0.1664
 3122DOPC   C3B36633  28.029  21.592  13.226 -0.0259  0.1776  0.1013
 3122DOPC   C4B36634  28.038  21.216  13.546  0.1729 -0.0480 -0.2237
 3123DOPE   NH336635  31.092  11.695  12.676  0.0204  0.4144  0.0260
 3123DOPE   PO436636  30.912  11.904  12.486 -0.2208  0.3888 -0.0671
 3123DOPE   GL136637  30.774  12.086  12.849  0.5084  0.1628  0.0228
 3123DOPE   GL236638  30.767  12.372  12.921 -0.1719  0.0255  0.1806
 3123DOPE   C1A36639  30.502  12.226  13.238  0.0702  0.2915 -0.0815
 3123DOPE   D2A36640  30.220  12.078  13.578 -0.4943  0.2129  0.2300
 3123DOPE   C3A36641  30.214  12.332  13.948  0.0076 -0.1532 -0.1049
 3123DOPE   C4A36642  30.464  12.183  14.289 -0.2760 -0.1548  0.0276
 3123DOPE   C1B36643  30.720  12.694  13.251  0.0501  0.1608 -0.2377
 3123DOPE   D2B36644  30.414  12.648  13.610 -0.1353  0.0437  0.3844
 3123DOPE   C3B36645  30.626  12.720  13.972 -0.1405  0.1105  0.0410
 3123DOPE   C4B36646  30.576  13.068  14.317  0.0078 -0.3244 -0.2129
 3124DOPC   NC336647  34.468  20.141  13.013 -0.0121 -0.1407  0.1270
 3124DOPC   PO436648  34.291  19.794  12.990 -0.4070  0.0394 -0.2639
 3124DOPC   GL136649  34.073  19.667  13.183 -0.2507  0.0791  0.2100
 3124DOPC   GL236650  33.754  19.706  13.139 -0.1220 -0.0090 -0.3068
 3124DOPC   C1A36651  33.875  19.374  13.511 -0.0509  0.0398  0.0837
 3124DOPC   D2A36652  33.860  18.981  13.805  0.0012 -0.2054  0.0753
 3124DOPC   C3A36653  33.568  18.959  14.189 -0.1989  0.1259 -0.2219
 3124DOPC   C4A36654  33.443  19.319  14.428 -0.2945 -0.3011 -0.0989
 3124DOPC   C1B36655  33.477  19.638  13.558 -0.0693  0.0839  0.0024
 3124DOPC   D2B36656  33.083  19.746  13.736 -0.0641  0.0077 -0.0698
 3124DOPC   C3B36657  32.949  19.857  14.182 -0.1745 -0.2615  0.0512
 3124DOPC   C4B36658  32.766  20.185  14.448 -0.1492  0.1631  0.1314
 3125POSM   NC336659  25.794  16.115  12.308 -0.1757  0.4514  0.1133
 3125POSM   PO436660  26.123  16.300  12.123  0.1637 -0.1043 -0.0713
 3125POSM   AM136661  26.363  16.053  12.207  0.1622 -0.2044 -0.2370
 3125POSM   AM236662  26.301  15.831  12.378  0.1172 -0.0916 -0.0640
 3125POSM   T1A36663  26.825  15.905  12.312 -0.1616  0.4120  0.0123
 3125POSM   C2A36664  27.263  15.701  12.454  0.1503  0.0119  0.1325
 3125POSM   C3A36665  27.720  15.636  12.430  0.1998  0.2807 -0.2266
 3125POSM   C1B36666  26.266  15.577  12.619 -0.0211 -0.0251  0.1141
 3125POSM   D2B36667  26.390  15.428  13.099 -0.0333  0.1151  0.1962
 3125POSM   C3B36668  26.819  15.378  13.230  0.1793  0.0896  0.0217
 3125POSM   C4B36669  26.829  15.092  13.566  0.3198  0.0136 -0.1151
 3126DOPS   CNO36670  26.402  11.751  12.039 -0.2297 -0.2370 -0.0816
 3126DOPS   PO436671  26.392  11.346  12.182  0.0860  0.0054  0.1124
 3126DOPS   GL136672  26.261  11.138  12.563 -0.2557  0.2592  0.0888
 3126DOPS   GL236673  26.194  11.354  12.777 -0.1723 -0.1973  0.0507
 3126DOPS   C1A36674  26.288  10.713  12.653 -0.0326 -0.0301  0.0093
 3126DOPS   D2A36675  26.238  10.233  12.523  0.0468  0.1731 -0.0739
 3126DOPS   C3A36676  26.184   9.962  12.856  0.0537 -0.0745  0.1389
 3126DOPS   C4A36677  25.978   9.749  13.169 -0.2073 -0.0382  0.4680
 3126DOPS   C1B36678  25.919  11.052  12.989  0.0346  0.0549  0.0969
 3126DOPS   D2B36679  26.010  10.672  13.213  0.4767 -0.3318 -0.2964
 3126DOPS   C3B36680  26.078  10.185  13.365  0.3786  0.1091 -0.4226
 3126DOPS   C4B36681  26.462   9.967  13.303 -0.1335  0.0995  0.2658
 3127DOPE   NH336682  25.237  17.282  12.816  0.0515  0.0841  0.1645
 3127DOPE   PO436683  25.122  17.257  12.494  0.0349 -0.3524  0.1330
 3127DOPE   GL136684  24.760  17.280  12.708  0.0678 -0.0897  0.4108
 3127DOPE   GL236685  24.794  17.486  12.892  0.1271  0.1590  0.0395
 3127DOPE   C1A36686  24.668  17.058  13.089 -0.1063  0.4086  0.0506
 3127DOPE   D2A36687  24.238  16.888  13.124  0.3520  0.2463 -0.0788
 3127DOPE   C3A36688  24.076  16.591  13.414  0.1756  0.3406  0.1388
 3127DOPE   C4A36689  23.946  16.130  13.522 -0.0450 -0.5242  0.2182
 3127DOPE   C1B36690  24.853  17.814  13.225  0.0533 -0.2087  0.1745
 3127DOPE   D2B36691  24.528  17.927  13.566  0.0455 -0.2611  0.2668
 3127DOPE   C3B36692  24.594  17.999  13.957 -0.1518  0.0402  0.1764
 3127DOPE   C4B36693  24.873  17.962  14.328  0.1408  0.1009 -0.0640
 3128POSM   NC336694  23.550  13.634  11.871 -0.0704 -0.0286  0.1804
 3128POSM   PO436695  23.487  13.967  12.060  0.0379 -0.1224  0.1844
 3128POSM   AM136696  23.605  13.872  12.341  0.1064  0.0912 -0.5250
 3128POSM   AM236697  23.498  13.754  12.594  0.3771  0.1319  0.0320
 3128POSM   T1A36698  23.986  14.013  12.668  0.0379 -0.5376 -0.1454
 3128POSM   C2A36699  23.962  14.433  12.935 -0.2721  0.0555 -0.3495
 3128POSM   C3A36700  23.881  14.758  13.357  0.2921 -0.3340  0.3055
 3128POSM   C1B36701  23.696  13.620  12.837  0.0103  0.1113 -0.1371
 3128POSM   D2B36702  23.930  13.536  13.229  0.0729  0.0889  0.1189
 3128POSM   C3B36703  24.383  13.423  13.139  0.0216 -0.0427  0.1618
 3128POSM   C4B36704  24.747  13.128  13.093  0.0736  0.1768  0.3335
 3129DOPC   NC336705  30.079  16.017  13.716 -0.1743 -0.0628  0.3845
 3129DOPC   PO436706  29.991  16.123  13.354  0.1951  0.3249 -0.0329
 3129DOPC   GL136707  29.824  16.364  13.504 -0.1447 -0.1079  0.0147
 3129DOPC   GL236708  29.899  16.559  13.766  0.1628 -0.0972 -0.2656
 3129DOPC   C1A36709  29.396  16.424  13.738  0.1382  0.1385 -0.0450
 3129DOPC   D2A36710  28.928  16.510  13.712 -0.1412 -0.0078  0.1163
 3129DOPC   C3A36711  28.597  16.420  14.024 -0.0213  0.2062 -0.0282
 3129DOPC   C4A36712  28.588  16.106  14.353 -0.0111  0.1647  0.0864
 3129DOPC   C1B36713  29.656  16.638  14.176  0.1268  0.0917 -0.0717
 3129DOPC   D2B36714  29.522  16.963  14.511  0.0432  0.0476  0.2305
 3129DOPC   C3B36715  29.060  17.042  14.474 -0.4127  0.0129  0.1484
 3129DOPC   C4B36716  28.672  16.964  14.236 -0.0079  0.3382 -0.0613
 3130DOPS   CNO36717  26.757  12.328  12.370 -0.3039 -0.0628  0.2303
 3130DOPS   PO436718  26.658  12.147  12.718  0.0413 -0.1480 -0.2027
 3130DOPS   GL136719  26.458  12.294  13.063 -0.2107 -0.3810 -0.2816
 3130DOPS   GL236720  26.207  12.140  13.071 -0.0379 -0.1910  0.1091
 3130DOPS   C1A36721  26.602  12.447  13.511 -0.3764  0.0432  0.2338
 3130DOPS   D2A36722  26.374  12.255  13.876 -0.0557  0.0135 -0.2257
 3130DOPS   C3A36723  26.584  12.091  14.186  0.0235 -0.0899  0.0011
 3130DOPS   C4A36724  26.721  11.673  14.345 -0.3441 -0.0220  0.2059
 3130DOPS   C1B36725  26.523  11.925  13.336 -0.0038 -0.1224  0.4542
 3130DOPS   D2B36726  26.673  11.812  13.757 -0.0953 -0.0135 -0.1636
 3130DOPS   C3B36727  26.616  11.398  13.929  0.1426  0.1948 -0.0234
 3130DOPS   C4B36728  26.558  11.073  14.291 -0.2541 -0.1019 -0.0635
 3131DOPC   NC336729  25.318  16.412  12.896  0.0699 -0.0202  0.1656
 3131DOPC   PO436730  25.531  16.115  12.703  0.0808 -0.1573  0.0032
 3131DOPC   GL136731  25.492  16.001  13.059  0.1058  0.0953 -0.0043
 3131DOPC   GL236732  25.246  15.817  12.986  0.0555  0.1093 -0.3313
 3131DOPC   C1A36733  25.141  16.107  13.368  0.1185 -0.0799 -0.1214
 3131DOPC   D2A36734  24.687  16.199  13.496  0.0552 -0.2383 -0.2278
 3131DOPC   C3A36735  24.396  16.450  13.761 -0.0581  0.0297 -0.1971
 3131DOPC   C4A36736  24.134  16.721  14.026  0.3900  0.1570 -0.1377
 3131DOPC   C1B36737  25.332  15.643  13.469 -0.1311 -0.0730 -0.1050
 3131DOPC   D2B36738  25.588  15.293  13.707 -0.0216 -0.1106  0.3977
 3131DOPC   C3B36739  26.001  15.282  14.005 -0.0910 -0.0003  0.0227
 3131DOPC   C4B36740  26.317  15.093  14.328  0.0949  0.2418  0.2659
 3132DOPC   NC336741  28.955  15.439  12.577 -0.0170 -0.1057 -0.2879
 3132DOPC   PO436742  28.982  15.031  12.703 -0.0459  0.1167  0.2334
 3132DOPC   GL136743  28.710  15.191  12.963  0.7123 -0.1737  0.0389
 3132DOPC   GL236744  28.393  15.201  12.754 -0.1460  0.0427  0.2666
 3132DOPC   C1A36745  28.357  15.032  13.229 -0.1848 -0.0612  0.0653
 3132DOPC   D2A36746  27.954  15.218  13.329 -0.3881 -0.1238 -0.0400
 3132DOPC   C3A36747  27.839  15.073  13.822 -0.2485  0.1840  0.1152
 3132DOPC   C4A36748  27.631  15.063  14.203  0.0851  0.1881  0.4281
 3132DOPC   C1B36749  27.905  15.193  12.823  0.1549  0.0202 -0.2169
 3132DOPC   D2B36750  27.497  14.945  12.712 -0.0142  0.2533  0.1238
 3132DOPC   C3B36751  27.088  15.196  12.861 -0.1715  0.0150 -0.0995
 3132DOPC   C4B36752  26.860  15.602  12.762  0.0509  0.0646  0.0207
 3133DOPE   NH336753  29.665  14.664  13.099  0.0762 -0.0048 -0.2413
 3133DOPE   PO436754  29.487  14.744  13.375 -0.0816 -0.1065 -0.1638
 3133DOPE   GL136755  29.475  14.387  13.453 -0.0718 -0.2166 -0.4329
 3133DOPE   GL236756  29.248  14.297  13.309  0.0311 -0.0260  0.3276
 3133DOPE   C1A36757  29.475  14.322  13.911  0.2973  0.1237 -0.1332
 3133DOPE   D2A36758  29.498  14.300  14.337  0.0998 -0.1629 -0.2632
 3133DOPE   C3A36759  29.250  13.910  14.361 -0.0058 -0.1071 -0.0264
 3133DOPE   C4A36760  28.949  13.695  14.091 -0.2756 -0.2152 -0.2337
 3133DOPE   C1B36761  29.179  13.950  13.673 -0.2190 -0.1959 -0.1576
 3133DOPE   D2B36762  29.487  13.742  13.921 -0.0461 -0.0074  0.4038
 3133DOPE   C3B36763  29.841  13.923  14.209  0.0127  0.0371  0.0156
 3133DOPE   C4B36764  30.109  13.894  14.562 -0.0907  0.0456 -0.2535
 3134DOPC   NC336765  25.083  14.814  12.200  0.1854 -0.1304  0.1032
 3134DOPC   PO436766  24.744  14.961  12.077 -0.1646 -0.1407  0.1609
 3134DOPC   GL136767  24.642  14.690  12.271  0.0177  0.0523  0.0700
 3134DOPC   GL236768  24.637  14.714  12.596 -0.3592 -0.1827  0.2313
 3134DOPC   C1A36769  24.985  14.391  12.480  0.0634  0.0795 -0.1570
 3134DOPC   D2A36770  25.260  14.034  12.655 -0.0491  0.2456 -0.0715
 3134DOPC   C3A36771  25.526  14.166  13.034 -0.2903 -0.3913  0.1922
 3134DOPC   C4A36772  25.698  13.959  13.385 -0.0071 -0.1437  0.1693
 3134DOPC   C1B36773  24.940  14.596  12.954 -0.0922  0.1127 -0.4657
 3134DOPC   D2B36774  24.992  14.336  13.298 -0.2332  0.0708  0.2382
 3134DOPC   C3B36775  25.097  14.328  13.749  0.3116  0.0794 -0.2353
 3134DOPC   C4B36776  25.121  14.410  14.192  0.1060 -0.1416  0.2133
 3135DOPC   NC336777  30.276  22.248  13.183 -0.2533 -0.1875 -0.0229
 3135DOPC   PO436778  30.674  22.383  13.141  0.1610  0.4918 -0.0284
 3135DOPC   GL136779  30.761  22.626  13.480 -0.2937 -0.0317 -0.1402
 3135DOPC   GL236780  31.028  22.394  13.522 -0.2716  0.0977  0.2499
 3135DOPC   C1A36781  30.712  22.461  13.899 -0.0450 -0.0309  0.3514
 3135DOPC   D2A36782  30.639  22.704  14.297  0.0941  0.1450 -0.0204
 3135DOPC   C3A36783  30.758  22.531  14.707 -0.2059  0.3429 -0.1239
 3135DOPC   C4A36784  31.121  22.199  14.774  0.0860  0.2137  0.0377
 3135DOPC   C1B36785  31.396  22.575  13.670  0.0675 -0.0898  0.1328
 3135DOPC   D2B36786  31.616  22.847  14.011  0.3550 -0.1364 -0.4212
 3135DOPC   C3B36787  31.598  22.521  14.343  0.0954  0.3289  0.2257
 3135DOPC   C4B36788  31.551  22.106  14.510  0.0343 -0.1444 -0.3156
 3136POSM   NC336789  28.678  22.294  12.564  0.0570 -0.3512  0.0244
 3136POSM   PO436790  28.639  22.383  12.934  0.1002 -0.1080  0.0971
 3136POSM   AM136791  28.671  22.311  13.264 -0.2719  0.1093  0.1706
 3136POSM   AM236792  28.845  22.386  13.510  0.1688 -0.1945 -0.1162
 3136POSM   T1A36793  28.657  21.921  13.567  0.1692 -0.2363 -0.2118
 3136POSM   C2A36794  28.721  21.760  14.033 -0.0331  0.0184  0.0815
 3136POSM   C3A36795  28.793  21.738  14.465  0.0518 -0.1574  0.0215
 3136POSM   C1B36796  28.816  22.351  13.827  0.1604 -0.0189  0.4081
 3136POSM   D2B36797  28.816  22.393  14.319  0.3682  0.1965  0.3373
 3136POSM   C3B36798  28.470  22.527  14.554  0.1608  0.1319 -0.1088
 3136POSM   C4B36799  28.057  22.470  14.736  0.2078  0.1323 -0.0727
 3137DOPE   NH336800  30.052  16.698  13.182  0.1303  0.0983  0.1815
 3137DOPE   PO436801  29.864  16.884  13.347  0.3370 -0.1248  0.0256
 3137DOPE   GL136802  29.587  16.742  13.482  0.0159  0.1429  0.4133
 3137DOPE   GL236803  29.545  16.557  13.202  0.3034  0.0622 -0.1057
 3137DOPE   C1A36804  29.132  16.722  13.309 -0.0863 -0.1945  0.0480
 3137DOPE   D2A36805  28.715  16.637  13.175 -0.3432 -0.0727  0.0202
 3137DOPE   C3A36806  28.452  16.436  13.512  0.0788  0.3328 -0.0273
 3137DOPE   C4A36807  28.055  16.379  13.752  0.2289  0.1974 -0.0573
 3137DOPE   C1B36808  29.186  16.212  13.388 -0.3431 -0.0178 -0.1511
 3137DOPE   D2B36809  28.765  16.104  13.469 -0.1703  0.0141 -0.0513
 3137DOPE   C3B36810  28.663  15.621  13.535 -0.2627  0.1099 -0.0969
 3137DOPE   C4B36811  28.208  15.510  13.649  0.3453  0.0789  0.0635
 3138DOPS   CNO36812  29.699  15.046  12.842 -0.0130 -0.4048 -0.1992
 3138DOPS   PO436813  29.691  15.445  12.900  0.2512 -0.0368  0.0668
 3138DOPS   GL136814  29.214  15.644  12.946  0.1570 -0.1557  0.1874
 3138DOPS   GL236815  29.018  15.581  13.119 -0.0097 -0.0479 -0.1228
 3138DOPS   C1A36816  28.965  16.067  12.944  0.0097 -0.0025 -0.1747
 3138DOPS   D2A36817  28.821  16.482  12.734  0.0968  0.2312  0.2112
 3138DOPS   C3A36818  28.503  16.265  12.460 -0.4152 -0.3250 -0.0295
 3138DOPS   C4A36819  28.262  15.893  12.638 -0.0053 -0.0241  0.1742
 3138DOPS   C1B36820  28.638  15.651  12.904  0.3405 -0.0520 -0.0058
 3138DOPS   D2B36821  28.218  15.590  13.081 -0.1028  0.0900  0.0294
 3138DOPS   C3B36822  28.160  15.934  13.386  0.0256  0.4222  0.2176
 3138DOPS   C4B36823  27.795  15.962  13.591  0.2723  0.0512 -0.0753
 3139DOPC   NC336824  28.136  22.037  13.461 -0.1598  0.2534  0.0468
 3139DOPC   PO436825  27.879  22.342  13.445 -0.0778  0.3418 -0.3315
 3139DOPC   GL136826  27.802  22.350  13.864  0.0565 -0.0950 -0.2147
 3139DOPC   GL236827  27.840  22.020  13.875  0.2838  0.3952 -0.0322
 3139DOPC   C1A36828  28.004  22.586  14.260  0.1147  0.2005 -0.3486
 3139DOPC   D2A36829  28.139  22.985  14.240 -0.1283 -0.0708 -0.1585
 3139DOPC   C3A36830  27.824  23.199  14.457 -0.0898 -0.0549 -0.1427
 3139DOPC   C4A36831  27.463  23.451  14.482  0.0247  0.0206  0.3067
 3139DOPC   C1B36832  27.486  21.738  14.047 -0.1234  0.3147 -0.3127
 3139DOPC   D2B36833  27.034  21.855  14.125 -0.2886  0.0350  0.2340
 3139DOPC   C3B36834  27.002  22.295  14.174  0.2894  0.1166  0.0988
 3139DOPC   C4B36835  27.013  22.542  14.547  0.0751  0.0519  0.4253
 3140DOPE   NH336836  24.877  15.176  12.661 -0.0282  0.2513  0.1841
 3140DOPE   PO436837  24.734  15.319  12.410  0.3499  0.0344  0.2127
 3140DOPE   GL136838  24.341  15.179  12.643 -0.2385 -0.0317  0.1286
 3140DOPE   GL236839  24.197  15.390  12.461 -0.4227  0.1258 -0.1464
 3140DOPE   C1A36840  23.999  14.922  12.808 -0.3162  0.0621  0.0693
 3140DOPE   D2A36841  23.554  15.015  12.800  0.0085  0.1032 -0.0035
 3140DOPE   C3A36842  23.392  15.475  12.924 -0.1396 -0.2748 -0.0524
 3140DOPE   C4A36843  23.333  15.837  12.732 -0.0514 -0.2953  0.1040
 3140DOPE   C1B36844  23.882  15.425  12.822 -0.1272  0.1530 -0.2106
 3140DOPE   D2B36845  23.829  15.228  13.227 -0.0282 -0.1274  0.2877
 3140DOPE   C3B36846  23.921  15.303  13.654 -0.1671  0.0269 -0.1202
 3140DOPE   C4B36847  23.930  15.677  13.952  0.1022  0.1424 -0.0564
 3141DOPE   NH336848  29.416  18.121  13.072 -0.1017  0.0236 -0.0131
 3141DOPE   PO436849  29.464  17.817  13.055 -0.0700 -0.0633 -0.1730
 3141DOPE   GL136850  29.180  17.687  13.265  0.2995  0.1681 -0.0183
 3141DOPE   GL236851  29.267  17.629  13.571 -0.1907 -0.2842 -0.2398
 3141DOPE   C1A36852  28.921  17.345  13.304 -0.3754  0.3472  0.1369
 3141DOPE   D2A36853  28.541  17.098  13.408  0.1367  0.0908  0.0544
 3141DOPE   C3A36854  28.386  16.835  13.834  0.0927 -0.0324 -0.2666
 3141DOPE   C4A36855  28.259  16.630  14.259 -0.3003 -0.2984 -0.0553
 3141DOPE   C1B36856  29.060  17.630  14.009 -0.0745 -0.0509  0.0556
 3141DOPE   D2B36857  28.808  17.504  14.415 -0.0293  0.0246  0.1354
 3141DOPE   C3B36858  29.197  17.471  14.655 -0.2428 -0.1686 -0.1805
 3141DOPE   C4B36859  29.250  17.187  15.029  0.1602 -0.2726  0.1717
 3142POSM   NC336860  32.558  18.870  12.412  0.1013  0.0690 -0.2352
 3142POSM   PO436861  32.676  19.066  12.782 -0.0023  0.1172 -0.2359
 3142POSM   AM136862  32.574  19.146  13.052 -0.0535 -0.0706  0.0445
 3142POSM   AM236863  32.345  19.308  13.194 -0.3803 -0.1347 -0.3513
 3142POSM   T1A36864  32.593  19.014  13.553  0.0362 -0.2801 -0.1121
 3142POSM   C2A36865  32.621  19.179  13.979  0.0179  0.0820  0.1630
 3142POSM   C3A36866  32.558  18.960  14.313  0.0048 -0.2414  0.0970
 3142POSM   C1B36867  32.327  19.421  13.485  0.0127  0.2070  0.0783
 3142POSM   D2B36868  32.147  19.623  13.929 -0.0381 -0.1469  0.1026
 3142POSM   C3B36869  32.069  19.272  14.144  0.2032 -0.1902 -0.1750
 3142POSM   C4B36870  32.085  18.967  14.435 -0.1653 -0.1126  0.1384
 3143POSM   NC336871  32.313  23.148  12.366  0.0966 -0.0738 -0.0824
 3143POSM   PO436872  32.209  22.951  12.686  0.1013  0.0490 -0.1375
 3143POSM   AM136873  32.265  22.652  12.818 -0.1566 -0.2045  0.1775
 3143POSM   AM236874  32.513  22.535  12.855  0.2806 -0.0389 -0.1571
 3143POSM   T1A36875  32.094  22.241  13.052 -0.1011  0.0503 -0.1617
 3143POSM   C2A36876  32.118  21.812  13.302 -0.0104  0.2736 -0.4057
 3143POSM   C3A36877  32.012  21.372  13.393 -0.0820 -0.1388  0.1812
 3143POSM   C1B36878  32.774  22.292  12.956 -0.1347  0.0232 -0.1917
 3143POSM   D2B36879  33.093  22.143  13.292  0.1099  0.0374  0.2164
 3143POSM   C3B36880  32.882  21.852  13.542  0.1323 -0.0211 -0.2604
 3143POSM   C4B36881  32.462  21.592  13.562 -0.1704 -0.2856 -0.0828
 3144DOPC   NC336882  23.727  15.142  11.805  0.0680  0.2056  0.3605
 3144DOPC   PO436883  23.790  15.127  12.186 -0.5714 -0.0161 -0.2239
 3144DOPC   GL136884  23.802  15.493  12.126 -0.4755  0.3562  0.3400
 3144DOPC   GL236885  23.690  15.648  11.818  0.0720  0.2021 -0.1041
 3144DOPC   C1A36886  23.915  15.845  12.466 -0.2011 -0.1979  0.3163
 3144DOPC   D2A36887  24.225  15.751  12.828  0.0127  0.0424 -0.1369
 3144DOPC   C3A36888  24.354  15.781  13.314 -0.2901  0.0446  0.1478
 3144DOPC   C4A36889  24.414  15.856  13.790 -0.1263 -0.1137  0.1559
 3144DOPC   C1B36890  23.895  16.042  11.969  0.2722  0.3869  0.0619
 3144DOPC   D2B36891  23.781  16.384  12.223  0.0549 -0.0526  0.1763
 3144DOPC   C3B36892  23.591  16.203  12.619 -0.1308 -0.2303 -0.1265
 3144DOPC   C4B36893  23.459  16.252  13.052 -0.0759 -0.2141  0.1039
 3145DOPC   NC336894  27.840  22.190  12.647  0.0569  0.0469  0.2177
 3145DOPC   PO436895  27.673  22.287  12.992 -0.1078  0.0442 -0.1282
 3145DOPC   GL136896  27.718  21.877  13.137  0.0760 -0.2971 -0.0262
 3145DOPC   GL236897  27.604  21.927  13.381 -0.0723 -0.1914  0.0769
 3145DOPC   C1A36898  27.504  21.415  13.185 -0.3263  0.0245  0.4829
 3145DOPC   D2A36899  27.369  21.080  13.364 -0.0481 -0.0210 -0.1727
 3145DOPC   C3A36900  26.876  21.072  13.530  0.0788  0.1299  0.2607
 3145DOPC   C4A36901  26.452  21.179  13.776 -0.1662  0.0357 -0.3472
 3145DOPC   C1B36902  27.211  21.772  13.550  0.0328  0.0752 -0.0394
 3145DOPC   D2B36903  27.155  21.361  13.787 -0.1640  0.1927  0.0611
 3145DOPC   C3B36904  26.837  21.312  14.124 -0.3452  0.0704  0.2762
 3145DOPC   C4B36905  26.634  21.650  14.380  0.0037 -0.0137  0.0592
 3146DOPC   NC336906  29.749  19.333  13.625  0.2065  0.2295 -0.0381
 3146DOPC   PO436907  29.987  19.291  13.324  0.4479  0.1112 -0.0942
 3146DOPC   GL136908  30.201  19.173  13.616  0.0484 -0.0474  0.4911
 3146DOPC   GL236909  30.442  19.227  13.637 -0.1724 -0.2696 -0.1008
 3146DOPC   C1A36910  30.059  18.915  13.998 -0.2318 -0.1039 -0.2803
 3146DOPC   D2A36911  30.250  18.535  14.183  0.1573  0.1395 -0.2075
 3146DOPC   C3A36912  30.274  18.378  14.651 -0.0174  0.1828  0.1299
 3146DOPC   C4A36913  30.011  18.397  15.044 -0.0066  0.1791  0.3989
 3146DOPC   C1B36914  30.412  19.260  14.088 -0.0450  0.1111  0.1092
 3146DOPC   D2B36915  30.250  19.139  14.476 -0.1733 -0.4270  0.3145
 3146DOPC   C3B36916  29.917  18.824  14.512 -0.0050  0.1702 -0.0635
 3146DOPC   C4B36917  29.546  18.774  14.846 -0.2472  0.2757 -0.0105
 3147POSM   NC336918  25.615  15.647  12.550  0.2035 -0.0613 -0.1789
 3147POSM   PO436919  25.813  15.606  12.197 -0.2397 -0.0199  0.1178
 3147POSM   AM136920  25.871  15.301  12.273 -0.2592  0.2190 -0.0969
 3147POSM   AM236921  25.791  14.991  12.321 -0.1293  0.1077  0.1405
 3147POSM   T1A36922  26.289  15.072  12.363  0.2346  0.2289  0.1842
 3147POSM   C2A36923  26.706  15.099  12.515  0.2295 -0.0052  0.0465
 3147POSM   C3A36924  26.721  14.772  12.812 -0.0526 -0.0326 -0.0339
 3147POSM   C1B36925  25.954  14.671  12.427  0.3861 -0.2271 -0.2238
 3147POSM   D2B36926  26.136  14.289  12.660 -0.0730  0.1975 -0.6512
 3147POSM   C3B36927  26.540  14.083  12.583  0.0009 -0.0875 -0.1558
 3147POSM   C4B36928  26.747  13.690  12.398  0.0751 -0.0176  0.1724
 3148DOPC   NC336929  25.273  22.471  11.746  0.3482  0.3487 -0.1975
 3148DOPC   PO436930  25.158  22.089  11.755 -0.1604 -0.2171 -0.3975
 3148DOPC   GL136931  25.193  22.135  12.123  0.2536 -0.0770  0.3435
 3148DOPC   GL236932  25.498  22.230  12.127  0.1290 -0.2138 -0.0431
 3148DOPC   C1A36933  25.170  22.154  12.618  0.2443  0.1054 -0.2032
 3148DOPC   D2A36934  25.296  21.811  12.928  0.0393  0.0163 -0.0027
 3148DOPC   C3A36935  25.437  21.360  12.825 -0.2010  0.1629  0.3450
 3148DOPC   C4A36936  25.552  20.925  12.641  0.1102  0.0244 -0.0610
 3148DOPC   C1B36937  25.615  22.397  12.560 -0.0251 -0.0343 -0.4986
 3148DOPC   D2B36938  25.562  22.332  13.005  0.0343 -0.0866  0.0334
 3148DOPC   C3B36939  25.524  22.006  13.380 -0.0973  0.0785  0.0412
 3148DOPC   C4B36940  25.466  21.865  13.823  0.0259  0.0200  0.0189
 3149POSM   NC336941  34.077  16.269  12.511 -0.1480  0.1104  0.3283
 3149POSM   PO436942  34.037  15.882  12.564 -0.0377  0.1640  0.0257
 3149POSM   AM136943  33.915  15.964  12.867  0.2868 -0.2307 -0.1665
 3149POSM   AM236944  33.786  16.224  12.928 -0.0112 -0.0814 -0.1668
 3149POSM   T1A36945  33.580  15.959  13.242  0.0362  0.1478  0.0865
 3149POSM   C2A36946  33.414  16.061  13.635 -0.0907  0.2712  0.0701
 3149POSM   C3A36947  33.108  16.233  13.909  0.1035  0.0429 -0.0576
 3149POSM   C1B36948  33.465  16.268  12.765 -0.3632  0.0014 -0.0550
 3149POSM   D2B36949  33.028  16.186  12.749 -0.0240 -0.3108 -0.1243
 3149POSM   C3B36950  32.780  16.015  13.080 -0.1582 -0.3162  0.0445
 3149POSM   C4B36951  32.769  15.947  13.531 -0.2713  0.1796  0.2600
 3150DOPS   CNO36952  30.576  13.949  12.863 -0.2076  0.0687 -0.0007
 3150DOPS   PO436953  30.875  13.724  12.774 -0.1394  0.2553  0.2928
 3150DOPS   GL136954  31.061  13.593  13.137  0.3025  0.2178  0.3750
 3150DOPS   GL236955  31.142  13.860  13.180  0.1415 -0.1728  0.1877
 3150DOPS   C1A36956  31.291  13.344  13.485 -0.2224 -0.1898  0.2076
 3150DOPS   D2A36957  31.519  13.070  13.766  0.1432  0.0762  0.1879
 3150DOPS   C3A36958  31.674  13.384  14.056  0.0793  0.1721 -0.0557
 3150DOPS   C4A36959  31.777  13.413  14.487 -0.0023  0.0957 -0.1377
 3150DOPS   C1B36960  31.091  13.820  13.626 -0.1459  0.0506 -0.3509
 3150DOPS   D2B36961  31.467  13.891  13.877 -0.0378 -0.1692 -0.0542
 3150DOPS   C3B36962  31.376  13.750  14.330  0.0631  0.4031 -0.0138
 3150DOPS   C4B36963  31.360  13.634  14.773 -0.0119 -0.2761 -0.1581
 3151DOPC   NC336964  28.912  18.150  13.730 -0.2903 -0.0380 -0.1047
 3151DOPC   PO436965  29.016  18.089  13.399  0.2635 -0.1141  0.1807
 3151DOPC   GL136966  28.797  17.820  13.295  0.1955  0.6312  0.1971
 3151DOPC   GL236967  28.751  17.660  13.580 -0.1259 -0.2040  0.3967
 3151DOPC   C1A36968  28.411  17.560  13.190  0.1988 -0.0168  0.4155
 3151DOPC   D2A36969  27.982  17.439  13.127 -0.1304  0.0117 -0.1261
 3151DOPC   C3A36970  27.761  17.034  13.042  0.1477 -0.1413  0.2536
 3151DOPC   C4A36971  27.766  16.591  12.867 -0.0880  0.0340  0.0708
 3151DOPC   C1B36972  28.909  17.225  13.766  0.0013 -0.2185  0.0467
 3151DOPC   D2B36973  29.321  17.056  13.961 -0.1648 -0.0569  0.2034
 3151DOPC   C3B36974  29.526  17.368  14.240  0.1550 -0.3732  0.1787
 3151DOPC   C4B36975  29.792  17.553  14.554  0.2260 -0.0307  0.0535
 3152DOPS   CNO36976  23.810  21.761  11.610  0.2133 -0.1066  0.3469
 3152DOPS   PO436977  23.999  21.805  11.891 -0.3886 -0.0295 -0.1905
 3152DOPS   GL136978  23.905  21.930  12.350 -0.0074 -0.2535 -0.0487
 3152DOPS   GL236979  23.631  22.034  12.510  0.2067 -0.1119  0.1274
 3152DOPS   C1A36980  23.952  21.643  12.770 -0.1798 -0.2320 -0.4796
 3152DOPS   D2A36981  23.806  21.510  13.202 -0.0713 -0.0519  0.1168
 3152DOPS   C3A36982  23.581  21.846  13.397  0.0082  0.0315  0.2166
 3152DOPS   C4A36983  23.615  22.254  13.521 -0.0993 -0.2932 -0.2730
 3152DOPS   C1B36984  23.813  22.052  12.976  0.1290  0.2175 -0.1092
 3152DOPS   D2B36985  24.173  21.836  13.176  0.2857  0.2706 -0.0882
 3152DOPS   C3B36986  24.540  22.018  13.415 -0.0266  0.1800 -0.0969
 3152DOPS   C4B36987  24.937  21.992  13.687 -0.1005 -0.2305 -0.0046
 3153DOPE   NH336988  27.421  19.260  12.722 -0.0557  0.2007  0.2566
 3153DOPE   PO436989  27.710  19.314  12.658  0.0216  0.1093 -0.0958
 3153DOPE   GL136990  27.718  19.549  12.933  0.1348 -0.0787  0.4017
 3153DOPE   GL236991  27.580  19.554  13.183 -0.0490 -0.0865 -0.0937
 3153DOPE   C1A36992  27.643  20.004  12.837  0.0256  0.3065 -0.1243
 3153DOPE   D2A36993  27.555  20.505  12.729  0.2909  0.0049 -0.0155
 3153DOPE   C3A36994  27.238  20.576  13.079 -0.3289 -0.1187 -0.0532
 3153DOPE   C4A36995  26.806  20.613  13.175  0.1188 -0.0648  0.0168
 3153DOPE   C1B36996  27.872  19.882  13.379 -0.0576  0.1007 -0.1850
 3153DOPE   D2B36997  28.234  19.745  13.490 -0.0505  0.0980 -0.0464
 3153DOPE   C3B36998  28.436  20.029  13.214 -0.0303  0.0708  0.4038
 3153DOPE   C4B36999  28.551  20.314  12.850 -0.1606 -0.2743  0.0061
 3154DOPE   NH337000  33.531  14.195  12.638  0.0710  0.1238  0.0676
 3154DOPE   PO437001  33.461  14.443  12.801  0.2337  0.0264 -0.0862
 3154DOPE   GL137002  33.514  14.328  13.181 -0.0942 -0.4199  0.0221
 3154DOPE   GL237003  33.425  14.100  13.131  0.1409 -0.0476  0.0522
 3154DOPE   C1A37004  33.777  14.351  13.522 -0.0677  0.5161 -0.1139
 3154DOPE   D2A37005  33.607  14.247  13.972  0.0822 -0.1851 -0.0635
 3154DOPE   C3A37006  33.426  14.475  14.351  0.0281  0.1054 -0.0429
 3154DOPE   C4A37007  33.133  14.764  14.409  0.1534  0.0496 -0.3229
 3154DOPE   C1B37008  33.407  13.871  13.601 -0.0881  0.0558  0.2573
 3154DOPE   D2B37009  33.491  13.668  14.021 -0.2255 -0.1753  0.2657
 3154DOPE   C3B37010  33.767  13.273  14.036 -0.2398  0.3284 -0.1790
 3154DOPE   C4B37011  33.675  12.831  14.183 -0.1873 -0.4120  0.1422
 3155DOPE   NH337012  30.096  15.619  13.166  0.1528 -0.1536  0.0729
 3155DOPE   PO437013  30.242  15.639  13.497  0.0721 -0.2033 -0.2467
 3155DOPE   GL137014  30.107  15.579  13.882 -0.3195 -0.0292  0.2104
 3155DOPE   GL237015  30.225  15.369  13.984  0.0991 -0.0348 -0.2462
 3155DOPE   C1A37016  29.851  15.700  14.245  0.2704  0.0640  0.0515
 3155DOPE   D2A37017  29.611  15.928  14.630  0.0653  0.2724  0.0310
 3155DOPE   C3A37018  29.577  15.508  14.794 -0.1059  0.1823  0.0436
 3155DOPE   C4A37019  29.865  15.183  15.053 -0.1045  0.3006  0.1763
 3155DOPE   C1B37020  30.107  14.968  14.248  0.1443  0.1622 -0.1399
 3155DOPE   D2B37021  29.867  14.714  14.503 -0.0517 -0.1468  0.0294
 3155DOPE   C3B37022  30.076  14.696  14.939  0.0808  0.0315  0.1119
 3155DOPE   C4B37023  30.325  15.015  15.186  0.1189 -0.0128 -0.1946
 3156DOPC   NC337024  28.224  12.075  12.317  0.1983 -0.0152 -0.0920
 3156DOPC   PO437025  28.385  12.426  12.235  0.4994 -0.0505  0.1654
 3156DOPC   GL137026  28.506  12.397  12.568  0.0017  0.2108  0.0171
 3156DOPC   GL237027  28.371  12.633  12.719  0.1763  0.1025  0.1477
 3156DOPC   C1A37028  28.763  12.388  12.973 -0.1285 -0.2331  0.1420
 3156DOPC   D2A37029  29.030  12.580  13.312  0.1192  0.1084  0.1448
 3156DOPC   C3A37030  29.009  13.010  13.423 -0.0038  0.4779  0.2209
 3156DOPC   C4A37031  29.185  13.309  13.709 -0.1309 -0.0139  0.2555
 3156DOPC   C1B37032  28.637  12.886  13.092  0.0424 -0.0305  0.0069
 3156DOPC   D2B37033  28.575  12.852  13.557  0.0625  0.0582  0.2355
 3156DOPC   C3B37034  28.751  13.120  13.890  0.2783  0.1763  0.0750
 3156DOPC   C4B37035  28.544  12.963  14.246 -0.1593 -0.3072  0.0040
 3157DOPS   CNO37036  34.696  19.625  12.704 -0.1257 -0.0201 -0.2582
 3157DOPS   PO437037  34.518  19.350  12.892 -0.0677  0.0296  0.0180
 3157DOPS   GL137038  34.363  19.090  13.118 -0.6062 -0.0750  0.1120
 3157DOPS   GL237039  34.352  19.215  13.401  0.2337  0.1823  0.0863
 3157DOPS   C1A37040  33.939  19.001  13.293  0.1870  0.0517  0.0762
 3157DOPS   D2A37041  33.531  19.016  13.443 -0.2073 -0.0962 -0.1644
 3157DOPS   C3A37042  33.439  18.637  13.773 -0.0066  0.2297  0.0002
 3157DOPS   C4A37043  33.247  18.417  14.144  0.2426  0.3916 -0.0209
 3157DOPS   C1B37044  34.295  18.846  13.634  0.1036 -0.1864 -0.1096
 3157DOPS   D2B37045  34.196  18.596  14.010 -0.0974 -0.1715 -0.0020
 3157DOPS   C3B37046  34.246  18.597  14.469  0.1133 -0.2789 -0.1348
 3157DOPS   C4B37047  34.425  18.294  14.740  0.0928 -0.1558 -0.1616
 3158DOPS   CNO37048  30.292  21.173  12.829  0.0260 -0.1320 -0.1040
 3158DOPS   PO437049  30.276  21.543  12.863 -0.1913 -0.0595 -0.0896
 3158DOPS   GL137050  30.558  21.413  13.231 -0.2442  0.3162  0.1019
 3158DOPS   GL237051  30.392  21.603  13.391 -0.1142 -0.0091 -0.0604
 3158DOPS   C1A37052  31.020  21.422  13.353  0.0313 -0.1520 -0.0634
 3158DOPS   D2A37053  31.153  21.781  13.630  0.2217  0.1260 -0.1537
 3158DOPS   C3A37054  31.621  21.798  13.670 -0.0543 -0.0996  0.4050
 3158DOPS   C4A37055  32.018  21.651  13.818 -0.0777 -0.0061 -0.0567
 3158DOPS   C1B37056  30.201  21.491  13.784  0.2031  0.0723 -0.3084
 3158DOPS   D2B37057  29.982  21.458  14.209  0.1886  0.1482  0.2521
 3158DOPS   C3B37058  30.003  21.103  14.502  0.0034 -0.0576  0.0739
 3158DOPS   C4B37059  29.898  20.715  14.702  0.0182  0.1079 -0.0404
 3159DOPC   NC337060  29.686  20.506  12.993 -0.1226 -0.1397 -0.2254
 3159DOPC   PO437061  29.905  20.841  12.914 -0.1339  0.0406 -0.1565
 3159DOPC   GL137062  29.968  20.759  13.365 -0.1360  0.0475  0.1706
 3159DOPC   GL237063  29.698  20.785  13.410  0.2042 -0.1512 -0.2272
 3159DOPC   C1A37064  30.363  21.024  13.515 -0.2859 -0.3147  0.1256
 3159DOPC   D2A37065  30.730  21.271  13.703  0.2365 -0.1348  0.0239
 3159DOPC   C3A37066  31.019  20.916  13.759  0.2645  0.0073 -0.1539
 3159DOPC   C4A37067  31.199  20.601  14.006  0.1308  0.0735  0.1597
 3159DOPC   C1B37068  29.930  21.059  13.717  0.0996  0.1635  0.2361
 3159DOPC   D2B37069  30.295  21.033  14.072  0.0241 -0.0631  0.1769
 3159DOPC   C3B37070  30.382  20.739  14.480  0.0793 -0.1823  0.0169
 3159DOPC   C4B37071  30.273  20.348  14.788 -0.1879 -0.2125 -0.1742
 3160DOPS   CNO37072  25.389  16.521  12.349 -0.3103  0.2360 -0.5756
 3160DOPS   PO437073  25.757  16.540  12.472  0.0438 -0.3075 -0.3331
 3160DOPS   GL137074  26.019  16.332  12.746 -0.3817 -0.1896  0.6479
 3160DOPS   GL237075  26.237  16.238  12.629 -0.0743  0.0460 -0.1774
 3160DOPS   C1A37076  26.166  15.992  13.007  0.1748 -0.1541  0.1750
 3160DOPS   D2A37077  25.965  15.848  13.373  0.0340 -0.3863 -0.0389
 3160DOPS   C3A37078  25.836  15.797  13.792 -0.2558 -0.1219 -0.2561
 3160DOPS   C4A37079  26.021  15.757  14.211  0.2982 -0.0372 -0.1116
 3160DOPS   C1B37080  26.666  16.097  12.812 -0.0448 -0.0950 -0.2526
 3160DOPS   D2B37081  26.970  15.957  13.127 -0.0256 -0.2438  0.0002
 3160DOPS   C3B37082  27.293  15.659  12.968  0.1736 -0.1169 -0.3836
 3160DOPS   C4B37083  27.732  15.631  12.972  0.1199  0.1362  0.1767
 3161DOPS   CNO37084  27.608  18.862  12.595  0.1440 -0.1634  0.1510
 3161DOPS   PO437085  27.404  18.541  12.695  0.1229 -0.0182  0.3166
 3161DOPS   GL137086  27.318  18.421  13.087 -0.0754 -0.1129 -0.2766
 3161DOPS   GL237087  27.065  18.443  13.111 -0.1414 -0.1822  0.0872
 3161DOPS   C1A37088  27.211  18.097  13.421 -0.6468  0.3186 -0.1367
 3161DOPS   D2A37089  27.457  17.790  13.678  0.0104  0.0267 -0.1468
 3161DOPS   C3A37090  27.300  17.407  13.948  0.0364 -0.1282  0.0320
 3161DOPS   C4A37091  27.559  17.271  14.361  0.1576 -0.1218 -0.0100
 3161DOPS   C1B37092  27.051  18.549  13.562  0.1096 -0.0515  0.1455
 3161DOPS   D2B37093  27.110  18.635  14.009 -0.1187 -0.2549 -0.0453
 3161DOPS   C3B37094  26.921  18.358  14.336 -0.3816  0.0414  0.1717
 3161DOPS   C4B37095  26.599  18.352  14.678  0.3074 -0.0277 -0.1501
 3162DOPC   NC337096  25.044  21.571  11.950 -0.1656  0.2011  0.4017
 3162DOPC   PO437097  25.010  21.233  11.788  0.2306 -0.4911  0.3469
 3162DOPC   GL137098  25.047  20.931  12.010 -0.0510 -0.2524  0.3088
 3162DOPC   GL237099  25.112  21.181  12.260 -0.2615 -0.0339 -0.0047
 3162DOPC   C1A37100  25.427  20.726  12.171  0.2009 -0.0758 -0.1114
 3162DOPC   D2A37101  25.779  20.492  12.134 -0.1247 -0.1972  0.1493
 3162DOPC   C3A37102  25.900  20.436  12.546  0.4392 -0.3673  0.0724
 3162DOPC   C4A37103  26.132  20.260  12.891  0.1942  0.0750  0.0623
 3162DOPC   C1B37104  25.620  21.162  12.236  0.2651  0.0245 -0.0151
 3162DOPC   D2B37105  26.079  21.004  12.332  0.0834 -0.2837 -0.1399
 3162DOPC   C3B37106  26.364  21.429  12.296  0.1238 -0.2044  0.0452
 3162DOPC   C4B37107  26.358  21.625  11.878 -0.0737  0.3381 -0.1808
 3163DOPE   NH337108  33.425  11.427  12.444  0.1210 -0.2142  0.0415
 3163DOPE   PO437109  33.258  11.649  12.256  0.1274 -0.0201  0.2460
 3163DOPE   GL137110  33.077  11.679  12.607 -0.1432  0.3167  0.1017
 3163DOPE   GL237111  32.998  11.936  12.661 -0.1903 -0.2716  0.1317
 3163DOPE   C1A37112  32.953  11.607  13.017  0.2073  0.0389 -0.1558
 3163DOPE   D2A37113  32.889  11.786  13.411 -0.0624  0.1295  0.1441
 3163DOPE   C3A37114  33.157  11.497  13.720 -0.0340 -0.2491  0.0200
 3163DOPE   C4A37115  33.397  11.297  13.981 -0.0360 -0.1043  0.0166
 3163DOPE   C1B37116  32.689  12.230  12.744  0.1462 -0.0617  0.0218
 3163DOPE   D2B37117  32.585  12.531  13.073 -0.3829  0.1170  0.1397
 3163DOPE   C3B37118  32.865  12.542  13.424 -0.2361 -0.2159 -0.4129
 3163DOPE   C4B37119  33.064  12.298  13.710  0.0485 -0.0376 -0.2223
 3164DOPE   NH337120  23.161  22.518  12.041  0.0762  0.0425  0.2754
 3164DOPE   PO437121  23.193  22.712  12.304 -0.0826  0.3731  0.0040
 3164DOPE   GL137122  23.351  22.758  12.624  0.0186  0.0686  0.2639
 3164DOPE   GL237123  23.536  22.529  12.581  0.1102 -0.2794  0.0552
 3164DOPE   C1A37124  23.319  22.941  13.084 -0.0088  0.4251 -0.3231
 3164DOPE   D2A37125  23.286  23.260  13.387 -0.0822  0.0200  0.3621
 3164DOPE   C3A37126  23.430  23.176  13.836 -0.0417 -0.2634  0.0970
 3164DOPE   C4A37127  23.822  23.344  14.042  0.0111  0.1195 -0.0704
 3164DOPE   C1B37128  24.002  22.576  12.703  0.0318  0.2659 -0.1560
 3164DOPE   D2B37129  24.214  22.347  13.048 -0.0010 -0.1017 -0.2395
 3164DOPE   C3B37130  24.086  22.297  13.507  0.2256 -0.0914  0.0745
 3164DOPE   C4B37131  23.910  22.315  13.957  0.0173  0.1263 -0.1474
 3165POSM   NC337132  29.223  14.570  12.865 -0.0008  0.1225 -0.0525
 3165POSM   PO437133  29.012  14.685  13.172  0.1129  0.0065 -0.2196
 3165POSM   AM137134  28.866  14.642  13.440 -0.0611 -0.1779 -0.1052
 3165POSM   AM237135  28.995  14.543  13.674 -0.0320  0.3143 -0.1411
 3165POSM   T1A37136  28.494  14.453  13.715  0.0361  0.0718  0.0066
 3165POSM   C2A37137  28.348  14.491  14.144 -0.1926 -0.2133 -0.1441
 3165POSM   C3A37138  27.974  14.764  14.331 -0.2707 -0.0698  0.0311
 3165POSM   C1B37139  28.891  14.701  13.916 -0.0863 -0.1364 -0.0632
 3165POSM   D2B37140  28.803  14.728  14.359  0.2658 -0.1715  0.1094
 3165POSM   C3B37141  28.440  14.731  14.682  0.0910 -0.1777  0.1838
 3165POSM   C4B37142  28.313  14.902  15.060  0.0035 -0.0407  0.1437
 3166DOPS   CNO37143  32.048  22.542  12.224 -0.1303  0.0490  0.0575
 3166DOPS   PO437144  32.399  22.572  12.380 -0.5172 -0.0741  0.1559
 3166DOPS   GL137145  32.291  22.230  12.609 -0.2076 -0.0591  0.0828
 3166DOPS   GL237146  32.518  22.072  12.581  0.1104  0.0108 -0.1532
 3166DOPS   C1A37147  31.947  21.972  12.424 -0.3165 -0.0578 -0.1560
 3166DOPS   D2A37148  31.701  21.629  12.672 -0.2297 -0.1226 -0.1135
 3166DOPS   C3A37149  31.592  21.286  12.389  0.0675  0.1357  0.1440
 3166DOPS   C4A37150  31.592  20.881  12.126 -0.0448  0.3857  0.3841
 3166DOPS   C1B37151  32.766  21.780  12.648  0.0196  0.1788  0.0120
 3166DOPS   D2B37152  32.646  21.352  12.840 -0.0179 -0.4861 -0.0362
 3166DOPS   C3B37153  32.767  21.281  13.296  0.0788 -0.0354  0.2675
 3166DOPS   C4B37154  32.873  21.253  13.780  0.0335  0.1999  0.2137
 3167DOPC   NC337155  30.090  13.733  12.933  0.0083  0.2350 -0.3782
 3167DOPC   PO437156  30.147  13.804  13.337  0.3798  0.0179 -0.0849
 3167DOPC   GL137157  30.153  13.739  13.735 -0.1131  0.1288 -0.0310
 3167DOPC   GL237158  30.231  13.466  13.685 -0.2351  0.2944  0.0654
 3167DOPC   C1A37159  30.328  13.993  14.082 -0.0013  0.0186  0.1598
 3167DOPC   D2A37160  30.634  14.068  14.467 -0.0219  0.2977  0.1493
 3167DOPC   C3A37161  30.831  13.663  14.636 -0.0606  0.2797  0.0462
 3167DOPC   C4A37162  30.662  13.281  14.837  0.1801 -0.1446 -0.2266
 3167DOPC   C1B37163  29.913  13.448  13.999  0.1041  0.0447  0.1584
 3167DOPC   D2B37164  29.621  13.061  13.915 -0.2656 -0.3462  0.0451
 3167DOPC   C3B37165  29.622  12.890  14.312 -0.1597 -0.0160  0.1193
 3167DOPC   C4B37166  29.728  12.611  14.674  0.1704 -0.0589  0.4939
 3168DOPE   NH337167  23.785  14.609  12.317  0.0865 -0.1236  0.3693
 3168DOPE   PO437168  23.541  14.382  12.335  0.2058 -0.1254 -0.1318
 3168DOPE   GL137169  23.497  14.413  12.685 -0.3241 -0.0378  0.0354
 3168DOPE   GL237170  23.244  14.580  12.712  0.0666  0.1986 -0.0135
 3168DOPE   C1A37171  23.609  14.104  13.007  0.0280 -0.1488 -0.1257
 3168DOPE   D2A37172  23.445  13.809  13.300  0.0774 -0.1289 -0.1862
 3168DOPE   C3A37173  23.178  13.488  13.336 -0.1985  0.3664  0.3513
 3168DOPE   C4A37174  23.077  12.964  13.185  0.2059  0.0812 -0.1963
 3168DOPE   C1B37175  23.384  14.616  13.137  0.0609  0.0803  0.2777
 3168DOPE   D2B37176  23.117  14.712  13.487 -0.0104 -0.3315  0.1832
 3168DOPE   C3B37177  22.934  14.387  13.760  0.0953 -0.0594 -0.3091
 3168DOPE   C4B37178  23.005  14.132  14.118 -0.0857  0.0369 -0.2387
 3169DOPS   CNO37179  30.311  14.411  12.645 -0.0654  0.2136 -0.1424
 3169DOPS   PO437180  30.038  14.267  12.819  0.0103 -0.3874 -0.2920
 3169DOPS   GL137181  29.623  14.107  13.023 -0.1960  0.0074  0.2106
 3169DOPS   GL237182  29.518  14.129  12.786  0.0667  0.0231  0.1042
 3169DOPS   C1A37183  29.330  13.764  13.219 -0.3582  0.0129  0.0966
 3169DOPS   D2A37184  28.962  13.581  13.282 -0.1094  0.1205 -0.1152
 3169DOPS   C3A37185  28.896  13.270  12.913  0.1551  0.2208  0.3166
 3169DOPS   C4A37186  29.101  12.873  12.841 -0.1313  0.2153  0.1518
 3169DOPS   C1B37187  29.644  13.763  12.594  0.1038 -0.1258  0.3428
 3169DOPS   D2B37188  29.951  13.404  12.570 -0.1470  0.1662 -0.2250
 3169DOPS   C3B37189  29.713  13.297  12.969  0.1254  0.0118  0.0243
 3169DOPS   C4B37190  29.639  13.368  13.429  0.2988 -0.0621  0.1975
 3170DOPS   CNO37191  32.182  19.140  12.438 -0.0433  0.2699  0.1588
 3170DOPS   PO437192  32.021  19.506  12.434  0.0737 -0.1273  0.1712
 3170DOPS   GL137193  32.133  19.904  12.584  0.1381 -0.0583  0.0058
 3170DOPS   GL237194  32.122  20.072  12.254 -0.0309 -0.0641  0.2835
 3170DOPS   C1A37195  32.378  20.251  12.706  0.0957  0.0686  0.0119
 3170DOPS   D2A37196  32.846  20.363  12.614 -0.0001 -0.5063  0.2622
 3170DOPS   C3A37197  32.707  20.856  12.538  0.2218  0.2681  0.0761
 3170DOPS   C4A37198  32.465  21.211  12.359 -0.0308  0.0795 -0.1216
 3170DOPS   C1B37199  32.010  20.547  12.413  0.0653 -0.0773  0.0373
 3170DOPS   D2B37200  32.121  20.939  12.688 -0.1566  0.2962  0.0073
 3170DOPS   C3B37201  32.263  20.951  13.150 -0.2325  0.0587  0.4846
 3170DOPS   C4B37202  32.238  20.746  13.555  0.0996  0.0960  0.1662
 3171DOPE   NH337203  23.079  22.221  12.457  0.0786  0.4361 -0.1315
 3171DOPE   PO437204  23.028  22.075  12.186 -0.1598 -0.0372  0.0463
 3171DOPE   GL137205  23.271  21.821  12.548  0.0342 -0.0638 -0.0182
 3171DOPE   GL237206  23.154  21.648  12.520 -0.1054  0.0636  0.0204
 3171DOPE   C1A37207  23.080  21.953  12.963 -0.0274 -0.0701 -0.1206
 3171DOPE   D2A37208  23.130  22.153  13.374 -0.0540 -0.0936  0.2317
 3171DOPE   C3A37209  23.242  22.588  13.558 -0.0585 -0.2664  0.2487
 3171DOPE   C4A37210  23.690  22.841  13.560 -0.1911 -0.3432 -0.0417
 3171DOPE   C1B37211  23.455  21.449  12.801  0.2815 -0.1504  0.1461
 3171DOPE   D2B37212  23.542  21.018  12.910 -0.1691  0.1328 -0.0463
 3171DOPE   C3B37213  23.577  21.055  13.356  0.0493 -0.0324  0.0258
 3171DOPE   C4B37214  23.172  21.143  13.601 -0.2974 -0.2533  0.2353
 3172DOPE   NH337215  27.937  18.029  13.080  0.1295 -0.1612  0.1099
 3172DOPE   PO437216  27.697  17.826  13.242  0.0740  0.0504  0.0157
 3172DOPE   GL137217  27.966  17.746  13.548  0.3903 -0.1000  0.4418
 3172DOPE   GL237218  28.313  17.877  13.634 -0.2053  0.2774  0.0331
 3172DOPE   C1A37219  27.815  17.618  14.001 -0.0706 -0.1034 -0.2728
 3172DOPE   D2A37220  27.605  17.783  14.383  0.0760  0.0370  0.0794
 3172DOPE   C3A37221  27.790  17.877  14.795  0.0891 -0.0718 -0.0096
 3172DOPE   C4A37222  28.139  17.695  15.091 -0.0779  0.0112  0.1340
 3172DOPE   C1B37223  28.291  17.429  13.708 -0.1632 -0.2094 -0.0167
 3172DOPE   D2B37224  28.020  17.130  13.513 -0.0904  0.0268  0.3607
 3172DOPE   C3B37225  28.126  16.786  13.228 -0.0119 -0.0133  0.1310
 3172DOPE   C4B37226  28.054  16.363  13.174  0.0696  0.0573  0.2616
 3173POSM   NC337227  33.596  11.714  11.861  0.2398  0.0949  0.1950
 3173POSM   PO437228  33.761  11.784  12.211 -0.0449  0.2828 -0.1855
 3173POSM   AM137229  33.641  11.929  12.480  0.0347 -0.1625 -0.1750
 3173POSM   AM237230  33.463  11.887  12.666 -0.2891  0.2628  0.1243
 3173POSM   T1A37231  33.619  12.343  12.732 -0.1156  0.1618 -0.1040
 3173POSM   C2A37232  33.720  12.474  13.143  0.1348 -0.2723 -0.1427
 3173POSM   C3A37233  33.379  12.686  13.376  0.0767 -0.3195  0.3200
 3173POSM   C1B37234  33.450  11.769  12.976  0.2408 -0.1724 -0.1377
 3173POSM   D2B37235  33.427  11.868  13.484 -0.1533 -0.2039 -0.1981
 3173POSM   C3B37236  33.743  11.644  13.817 -0.1506 -0.0999  0.4246
 3173POSM   C4B37237  33.944  11.576  14.215  0.0502 -0.1777  0.2184
 3174DOPC   NC337238  30.848  15.219  13.101  0.4281 -0.0648 -0.3021
 3174DOPC   PO437239  30.703  15.590  13.258  0.1608 -0.3302 -0.1569
 3174DOPC   GL137240  30.818  15.491  13.616 -0.0350 -0.0436 -0.0203
 3174DOPC   GL237241  30.679  15.626  13.899 -0.1853  0.0745 -0.0074
 3174DOPC   C1A37242  31.162  15.705  13.857  0.1752 -0.1592 -0.2770
 3174DOPC   D2A37243  31.477  15.668  14.199 -0.1778  0.0250 -0.4274
 3174DOPC   C3A37244  31.225  15.921  14.501  0.0174 -0.0985  0.2149
 3174DOPC   C4A37245  31.003  16.215  14.812  0.0726 -0.0925  0.0398
 3174DOPC   C1B37246  30.562  15.484  14.366  0.0801 -0.5279  0.2045
 3174DOPC   D2B37247  30.664  15.632  14.762 -0.1613 -0.1979  0.2149
 3174DOPC   C3B37248  30.298  15.510  15.042 -0.2953 -0.0278 -0.3753
 3174DOPC   C4B37249  29.908  15.773  15.077 -0.3036 -0.0884 -0.1100
 3175DOPC   NC337250  26.718  17.746  13.086  0.2909 -0.1793 -0.2936
 3175DOPC   PO437251  26.546  17.404  13.000  0.0259  0.2014  0.2430
 3175DOPC   GL137252  26.636  16.974  12.955 -0.1699 -0.0763  0.3089
 3175DOPC   GL237253  26.898  17.084  12.990 -0.1310  0.2623 -0.1522
 3175DOPC   C1A37254  26.739  16.777  13.354  0.2142 -0.2329 -0.0651
 3175DOPC   D2A37255  26.575  16.574  13.733  0.2385 -0.3386 -0.1153
 3175DOPC   C3A37256  26.923  16.604  14.021  0.0283 -0.0706 -0.3855
 3175DOPC   C4A37257  27.151  16.476  14.330 -0.0582 -0.0429 -0.0322
 3175DOPC   C1B37258  27.291  16.818  13.073  0.0189 -0.2651  0.0192
 3175DOPC   D2B37259  27.588  16.772  13.415 -0.1109  0.0003  0.0750
 3175DOPC   C3B37260  27.601  16.961  13.811 -0.0135  0.0508  0.0597
 3175DOPC   C4B37261  27.250  16.960  14.136 -0.1927 -0.0232  0.1488
 3176DOPE   NH337262  32.505  23.744  12.734  0.2192  0.1330  0.0561
 3176DOPE   PO437263  32.467  23.427  12.775  0.1466  0.1773  0.0455
 3176DOPE   GL137264  32.229  23.255  13.103 -0.1298  0.0036 -0.1326
 3176DOPE   GL237265  32.123  22.947  13.210 -0.1114  0.1630  0.3861
 3176DOPE   C1A37266  32.108  23.338  13.583  0.1795  0.1029 -0.1669
 3176DOPE   D2A37267  32.294  23.256  13.991  0.0499 -0.2263 -0.1900
 3176DOPE   C3A37268  31.996  23.545  14.270  0.4460  0.0752  0.0466
 3176DOPE   C4A37269  31.743  23.869  14.514 -0.0320  0.0666 -0.0873
 3176DOPE   C1B37270  32.320  22.597  13.316 -0.3410  0.2345 -0.1139
 3176DOPE   D2B37271  32.503  22.152  13.355 -0.1264  0.1289  0.1328
 3176DOPE   C3B37272  32.552  21.795  13.092 -0.0758 -0.0044 -0.0087
 3176DOPE   C4B37273  32.211  21.611  12.776 -0.0347 -0.3190 -0.2196
 3177POSM   NC337274  33.224  23.013  12.277  0.0724  0.0343 -0.0035
 3177POSM   PO437275  33.603  23.209  12.365 -0.1951 -0.3743 -0.1920
 3177POSM   AM137276  33.605  22.979  12.622  0.0455  0.1695  0.2776
 3177POSM   AM237277  33.570  22.989  12.915 -0.1960  0.0646  0.0005
 3177POSM   T1A37278  33.674  22.501  12.751  0.0673  0.0857 -0.2133
 3177POSM   C2A37279  33.837  22.042  12.635  0.4544 -0.0419 -0.0459
 3177POSM   C3A37280  33.542  21.655  12.664 -0.1009 -0.0949  0.0786
 3177POSM   C1B37281  33.815  22.886  13.175  0.2286  0.1696  0.0801
 3177POSM   D2B37282  33.826  22.830  13.642  0.0529  0.0306 -0.0158
 3177POSM   C3B37283  33.686  22.646  14.008 -0.2905  0.0496 -0.1975
 3177POSM   C4B37284  33.966  22.847  14.333 -0.3715  0.0254  0.0081
 3178DOPE   NH337285  29.811  17.765  13.403 -0.3554  0.0747  0.0027
 3178DOPE   PO437286  29.817  18.077  13.477  0.2063 -0.3796  0.0055
 3178DOPE   GL137287  29.601  18.036  13.726  0.2375  0.0539  0.1808
 3178DOPE   GL237288  29.618  17.784  13.889 -0.1490 -0.0746  0.1824
 3178DOPE   C1A37289  29.358  18.255  14.012 -0.0634  0.4336  0.1563
 3178DOPE   D2A37290  29.341  18.433  14.429  0.2614 -0.1050  0.0465
 3178DOPE   C3A37291  29.169  18.339  14.810 -0.1288  0.0363  0.2923
 3178DOPE   C4A37292  28.943  18.159  15.196 -0.1476 -0.4104  0.1381
 3178DOPE   C1B37293  29.872  18.068  14.127  0.0192  0.0515  0.0217
 3178DOPE   D2B37294  29.801  18.279  14.594 -0.1022 -0.1470 -0.2886
 3178DOPE   C3B37295  30.042  17.932  14.776 -0.1211 -0.0131 -0.0154
 3178DOPE   C4B37296  30.119  17.586  15.072  0.3421 -0.4792 -0.2143
 3179DOPC   NC337297  30.554  17.391  13.050 -0.1598  0.0931  0.1673
 3179DOPC   PO437298  30.486  17.038  13.215  0.2839  0.0018 -0.2592
 3179DOPC   GL137299  30.542  17.198  13.544 -0.1307  0.2460  0.0433
 3179DOPC   GL237300  30.733  17.054  13.693  0.0716  0.2321 -0.1972
 3179DOPC   C1A37301  30.923  17.493  13.651  0.0317 -0.2791 -0.0595
 3179DOPC   D2A37302  31.301  17.773  13.816  0.1104  0.1874 -0.1477
 3179DOPC   C3A37303  31.636  17.537  13.853 -0.2117 -0.1341 -0.1638
 3179DOPC   C4A37304  31.850  17.165  13.684  0.2746 -0.2525  0.2694
 3179DOPC   C1B37305  30.570  16.884  14.099 -0.0738 -0.0899  0.0322
 3179DOPC   D2B37306  30.860  16.708  14.471  0.1600 -0.0053  0.0464
 3179DOPC   C3B37307  30.808  16.760  14.922 -0.2317  0.2214  0.1385
 3179DOPC   C4B37308  30.545  16.568  15.230  0.2041 -0.0246  0.0360
 3180DOPS   CNO37309  25.776  11.910  12.198  0.0775 -0.2018  0.0730
 3180DOPS   PO437310  25.382  11.939  12.175 -0.1744  0.1038  0.1533
 3180DOPS   GL137311  25.286  12.292  12.177  0.0460 -0.0379 -0.0553
 3180DOPS   GL237312  25.449  12.463  12.383 -0.1279 -0.0356  0.0140
 3180DOPS   C1A37313  24.927  12.572  12.243  0.2217 -0.1492  0.0738
 3180DOPS   D2A37314  24.585  12.852  12.401 -0.0780  0.2619  0.3073
 3180DOPS   C3A37315  24.537  13.206  12.683 -0.0630  0.0084 -0.6416
 3180DOPS   C4A37316  24.722  13.632  12.756 -0.2122 -0.1907 -0.1957
 3180DOPS   C1B37317  25.417  12.763  12.763 -0.2597 -0.3123 -0.1678
 3180DOPS   D2B37318  25.297  12.861  13.149  0.1558  0.0359 -0.1059
 3180DOPS   C3B37319  25.650  12.725  13.444 -0.1029  0.2371  0.0583
 3180DOPS   C4B37320  26.006  12.427  13.540 -0.0694 -0.1025 -0.2552
 3181DOPE   NH337321  27.224  19.734  12.535  0.1405 -0.0626  0.1367
 3181DOPE   PO437322  26.902  19.757  12.502  0.0365  0.3108  0.3575
 3181DOPE   GL137323  26.713  19.811  12.816 -0.0576 -0.1046  0.0728
 3181DOPE   GL237324  26.823  20.116  12.822 -0.2941  0.1308  0.1510
 3181DOPE   C1A37325  26.438  19.966  13.165 -0.1209  0.1252 -0.0369
 3181DOPE   D2A37326  26.166  20.302  13.424 -0.0893 -0.0239 -0.2145
 3181DOPE   C3A37327  26.231  20.749  13.321 -0.0727 -0.2572  0.0306
 3181DOPE   C4A37328  26.328  21.129  13.098 -0.1822  0.0676 -0.1712
 3181DOPE   C1B37329  26.915  20.581  12.694  0.2813 -0.1656 -0.0786
 3181DOPE   D2B37330  27.225  20.901  12.513 -0.0400 -0.0953  0.0835
 3181DOPE   C3B37331  27.226  21.298  12.695 -0.1050 -0.0498 -0.1378
 3181DOPE   C4B37332  27.576  21.634  12.737 -0.1387  0.0178 -0.0042
 3182DOPE   NH337333  26.249  16.692  12.422  0.0211 -0.2345  0.0052
 3182DOPE   PO437334  26.523  16.539  12.354  0.1582  0.1399  0.0732
 3182DOPE   GL137335  26.715  16.574  12.709 -0.1121  0.2407  0.1714
 3182DOPE   GL237336  26.477  16.558  12.907 -0.3739 -0.0576 -0.3626
 3182DOPE   C1A37337  27.012  16.424  13.095  0.1347 -0.0770 -0.0172
 3182DOPE   D2A37338  27.029  16.271  13.510  0.0660  0.0297 -0.0597
 3182DOPE   C3A37339  26.790  16.045  13.892 -0.1449  0.3722  0.1085
 3182DOPE   C4A37340  26.517  16.156  14.259 -0.1263 -0.0322 -0.1209
 3182DOPE   C1B37341  26.582  16.251  13.292  0.0154  0.1546  0.5359
 3182DOPE   D2B37342  26.533  15.792  13.458  0.1047 -0.2470  0.0655
 3182DOPE   C3B37343  26.563  15.506  13.819 -0.1820  0.2375 -0.2639
 3182DOPE   C4B37344  26.789  15.212  14.067 -0.0548  0.2574  0.1465
 3183DOPS   CNO37345  34.200  22.557  12.459  0.1199 -0.0330 -0.1214
 3183DOPS   PO437346  34.083  22.935  12.613 -0.0665  0.0591  0.0688
 3183DOPS   GL137347  34.177  23.120  12.954 -0.2205 -0.3920 -0.3222
 3183DOPS   GL237348  34.422  23.087  13.089  0.1832 -0.1974  0.1596
 3183DOPS   C1A37349  34.099  23.343  13.367 -0.0942  0.0098 -0.0443
 3183DOPS   D2A37350  34.172  23.293  13.811  0.1947  0.1084  0.0245
 3183DOPS   C3A37351  34.593  23.120  13.913 -0.0526  0.1614 -0.3996
 3183DOPS   C4A37352  34.843  22.747  14.146  0.2076 -0.0375 -0.0640
 3183DOPS   C1B37353  34.327  22.862  13.477 -0.1414 -0.1964  0.2839
 3183DOPS   D2B37354  34.215  22.732  13.893 -0.0806  0.0220 -0.0874
 3183DOPS   C3B37355  34.084  22.306  13.764  0.0109  0.1019 -0.1642
 3183DOPS   C4B37356  33.700  22.124  13.959  0.1879  0.0220  0.0631
 3184DOPE   NH337357  33.699  14.775  13.062 -0.0269 -0.2428  0.0024
 3184DOPE   PO437358  33.736  15.030  12.919 -0.0771 -0.1130 -0.1436
 3184DOPE   GL137359  34.086  15.067  13.012  0.0641  0.2855  0.0229
 3184DOPE   GL237360  34.301  14.970  12.974 -0.3441 -0.2698 -0.1453
 3184DOPE   C1A37361  34.200  15.178  13.402 -0.1137  0.1322  0.1213
 3184DOPE   D2A37362  34.218  14.971  13.815 -0.0384 -0.0775  0.2189
 3184DOPE   C3A37363  33.849  14.991  14.097  0.0212  0.1040  0.1069
 3184DOPE   C4A37364  33.481  14.783  13.907  0.1109 -0.0331  0.0385
 3184DOPE   C1B37365  34.395  14.560  13.230 -0.0999 -0.0585  0.1074
 3184DOPE   D2B37366  34.220  14.077  13.262 -0.2873 -0.0972  0.1818
 3184DOPE   C3B37367  34.359  13.691  13.070 -0.1737  0.0296  0.1370
 3184DOPE   C4B37368  34.703  13.424  12.898  0.0356 -0.3674  0.0596
 3185DOPS   CNO37369  28.345  11.443  12.393 -0.1832 -0.1326  0.0249
 3185DOPS   PO437370  28.504  11.445  12.773  0.0975  0.2155 -0.3293
 3185DOPS   GL137371  28.382  11.512  13.079  0.2739  0.0893  0.0146
 3185DOPS   GL237372  28.589  11.528  13.323  0.0574  0.1429  0.1232
 3185DOPS   C1A37373  28.341  11.932  13.314  0.4157 -0.3936  0.1709
 3185DOPS   D2A37374  28.468  12.409  13.395 -0.2788  0.2170 -0.1615
 3185DOPS   C3A37375  28.207  12.717  13.192  0.0347  0.1619 -0.1416
 3185DOPS   C4A37376  28.150  13.168  13.338  0.0484 -0.0825  0.0624
 3185DOPS   C1B37377  28.684  11.610  13.788  0.1043  0.1209 -0.0985
 3185DOPS   D2B37378  28.907  11.436  14.177 -0.1305  0.0566 -0.2295
 3185DOPS   C3B37379  28.819  11.075  14.431 -0.0495  0.2748 -0.0200
 3185DOPS   C4B37380  28.635  10.862  14.772 -0.2416 -0.1304  0.4699
 3186DOPS   CNO37381  34.530  11.885  12.046 -0.2785  0.0651  0.0780
 3186DOPS   PO437382  34.156  12.010  11.966  0.3950 -0.0028 -0.0085
 3186DOPS   GL137383  34.052  12.279  12.165  0.1624 -0.1559  0.1484
 3186DOPS   GL237384  33.988  12.173  12.441  0.2398  0.1869 -0.3140
 3186DOPS   C1A37385  33.910  12.711  12.305  0.0662 -0.2553 -0.0224
 3186DOPS   D2A37386  34.042  13.151  12.407 -0.2730 -0.0621 -0.0623
 3186DOPS   C3A37387  34.347  13.027  12.794 -0.0957  0.2782 -0.1684
 3186DOPS   C4A37388  34.558  13.109  13.240 -0.0595  0.3781 -0.0560
 3186DOPS   C1B37389  34.083  12.496  12.761  0.0354  0.3158  0.0597
 3186DOPS   D2B37390  33.875  12.891  12.945 -0.1724  0.2212 -0.1652
 3186DOPS   C3B37391  33.893  12.897  13.409  0.1667  0.2369  0.2242
 3186DOPS   C4B37392  33.729  12.589  13.741  0.1695 -0.4327 -0.1106
 3187DOPC   NC337393  28.094  13.024  12.439 -0.0343  0.1196 -0.0234
 3187DOPC   PO437394  28.232  13.268  12.702  0.4272 -0.0874 -0.1684
 3187DOPC   GL137395  27.826  13.261  12.821 -0.2184  0.2279  0.1634
 3187DOPC   GL237396  27.876  13.444  13.052  0.1708 -0.3237 -0.0596
 3187DOPC   C1A37397  27.516  13.044  13.077  0.2890 -0.1408 -0.0278
 3187DOPC   D2A37398  27.132  12.767  13.257 -0.0900  0.1571 -0.2500
 3187DOPC   C3A37399  26.981  12.859  13.672  0.1338  0.0185 -0.0486
 3187DOPC   C4A37400  27.098  12.823  14.159  0.1958  0.5172 -0.1309
 3187DOPC   C1B37401  27.513  13.574  13.289 -0.1400  0.1020 -0.2366
 3187DOPC   D2B37402  27.374  13.251  13.565  0.0648 -0.1099 -0.3768
 3187DOPC   C3B37403  27.419  13.166  14.042 -0.0213  0.1379  0.3456
 3187DOPC   C4B37404  27.404  13.333  14.428 -0.0885  0.2190  0.1380
 3188DOPC   NC337405  34.417  19.139  12.479  0.2516  0.0520  0.2941
 3188DOPC   PO437406  34.038  19.231  12.433  0.1288  0.0990  0.2281
 3188DOPC   GL137407  33.889  19.114  12.759  0.0682  0.1062  0.0384
 3188DOPC   GL237408  33.995  19.329  12.910 -0.0878 -0.3515 -0.0847
 3188DOPC   C1A37409  33.623  18.722  12.789  0.1594 -0.1203  0.2380
 3188DOPC   D2A37410  33.196  18.609  12.972  0.0058 -0.1284  0.2050
 3188DOPC   C3A37411  33.072  18.795  13.447  0.1169  0.0841 -0.0646
 3188DOPC   C4A37412  33.010  18.815  13.957  0.0819 -0.1759  0.3008
 3188DOPC   C1B37413  33.551  19.235  12.955  0.3515  0.3498 -0.1777
 3188DOPC   D2B37414  33.154  19.126  13.053  0.3172  0.0548  0.0285
 3188DOPC   C3B37415  33.075  19.266  13.519 -0.3232  0.0998  0.0759
 3188DOPC   C4B37416  33.227  19.290  13.990 -0.2950 -0.1280 -0.3023
 3189DOPE   NH337417  29.935  15.236  13.597 -0.0494  0.2991  0.0176
 3189DOPE   PO437418  29.820  15.135  13.318  0.2518  0.1146  0.1681
 3189DOPE   GL137419  29.448  15.057  13.682 -0.2186 -0.1335 -0.5539
 3189DOPE   GL237420  29.502  15.346  13.788 -0.0434 -0.0846 -0.2252
 3189DOPE   C1A37421  29.190  15.065  14.077  0.2751 -0.3389 -0.1182
 3189DOPE   D2A37422  29.267  14.713  14.270 -0.1705 -0.0703 -0.2534
 3189DOPE   C3A37423  29.408  14.725  14.650 -0.1495 -0.0087  0.0307
 3189DOPE   C4A37424  29.339  15.043  14.937 -0.4403 -0.1654 -0.3353
 3189DOPE   C1B37425  29.351  15.591  14.171  0.0728 -0.3290  0.3598
 3189DOPE   D2B37426  29.051  15.791  14.415 -0.2454  0.1345  0.1760
 3189DOPE   C3B37427  29.188  15.789  14.886  0.0564  0.2169 -0.1076
 3189DOPE   C4B37428  29.462  15.847  15.257 -0.0373  0.4887 -0.1659
 3190DOPC   NC337429  32.624  22.975  13.007 -0.1663  0.0847  0.2155
 3190DOPC   PO437430  32.733  22.950  12.636 -0.0892 -0.0928  0.0089
 3190DOPC   GL137431  32.939  22.676  12.918  0.0211 -0.0038  0.4592
 3190DOPC   GL237432  33.193  22.629  12.714  0.2182 -0.3487  0.3446
 3190DOPC   C1A37433  32.831  22.603  13.321  0.1484  0.1367 -0.0498
 3190DOPC   D2A37434  32.697  22.650  13.776  0.3404 -0.0286 -0.0775
 3190DOPC   C3A37435  32.776  23.059  13.996  0.0130  0.2804 -0.2040
 3190DOPC   C4A37436  32.817  23.420  14.212  0.3290 -0.0585 -0.2179
 3190DOPC   C1B37437  33.355  22.614  13.184 -0.0856 -0.0803 -0.2417
 3190DOPC   D2B37438  33.591  22.419  13.546  0.0346  0.1173 -0.1467
 3190DOPC   C3B37439  33.492  21.966  13.540 -0.0626  0.0221  0.2495
 3190DOPC   C4B37440  33.560  21.606  13.820  0.0576  0.0262  0.0526
 3191POSM   NC337441  28.707  14.343  12.542  0.0087 -0.0575  0.1837
 3191POSM   PO437442  28.682  14.539  12.844  0.0616  0.1672 -0.4018
 3191POSM   AM137443  28.523  14.494  13.107  0.1157 -0.4851  0.2137
 3191POSM   AM237444  28.329  14.297  13.208  0.3155  0.0060  0.2407
 3191POSM   T1A37445  28.181  14.684  13.471  0.4427  0.0468  0.3299
 3191POSM   C2A37446  27.907  14.474  13.739 -0.3644  0.0481 -0.1772
 3191POSM   C3A37447  27.864  14.303  14.198  0.1727 -0.1439  0.2333
 3191POSM   C1B37448  28.171  14.175  13.458 -0.1754  0.0714  0.1589
 3191POSM   D2B37449  28.147  14.034  13.916  0.0725  0.1328  0.1582
 3191POSM   C3B37450  28.467  13.991  14.153  0.2849 -0.0789  0.0104
 3191POSM   C4B37451  28.883  14.238  14.133 -0.4011 -0.0041  0.0928
 3192DOPC   NC337452  26.265  18.647  12.900 -0.2135 -0.1609  0.0785
 3192DOPC   PO437453  26.579  18.850  12.843 -0.0486 -0.0701  0.2201
 3192DOPC   GL137454  26.440  18.952  13.200 -0.0842 -0.0272  0.4799
 3192DOPC   GL237455  26.630  19.091  13.251 -0.0030 -0.1311 -0.0529
 3192DOPC   C1A37456  26.135  19.239  13.328  0.0750  0.3865 -0.1682
 3192DOPC   D2A37457  26.050  19.412  13.698 -0.3203 -0.1688  0.1094
 3192DOPC   C3A37458  25.626  19.604  13.775  0.2796 -0.1526 -0.2568
 3192DOPC   C4A37459  25.185  19.783  13.676  0.2007 -0.2148 -0.1315
 3192DOPC   C1B37460  26.652  19.439  13.528 -0.1990  0.1397  0.0601
 3192DOPC   D2B37461  26.430  19.814  13.666 -0.1863  0.0247  0.0795
 3192DOPC   C3B37462  26.015  19.835  13.452 -0.2561  0.1719  0.2949
 3192DOPC   C4B37463  25.786  20.168  13.713  0.0781 -0.1705 -0.2397
 3193DOPC   NC337464  29.541  18.972  13.342 -0.0834  0.1921 -0.1768
 3193DOPC   PO437465  29.452  19.308  13.174 -0.0717  0.0167 -0.1463
 3193DOPC   GL137466  29.189  19.420  13.488 -0.0363  0.1262  0.1397
 3193DOPC   GL237467  29.172  19.173  13.603 -0.1206 -0.1421  0.1247
 3193DOPC   C1A37468  29.188  19.750  13.808 -0.1465  0.2646 -0.0555
 3193DOPC   D2A37469  29.448  20.174  13.794  0.0123  0.2147 -0.5007
 3193DOPC   C3A37470  29.440  20.275  14.222  0.3917  0.0256  0.0224
 3193DOPC   C4A37471  29.756  20.211  14.592  0.3434 -0.0249 -0.1434
 3193DOPC   C1B37472  29.254  19.290  14.012 -0.1501 -0.1566 -0.0774
 3193DOPC   D2B37473  29.339  19.512  14.418 -0.0495  0.2679  0.0994
 3193DOPC   C3B37474  29.722  19.797  14.362  0.0563 -0.1581 -0.0437
 3193DOPC   C4B37475  29.943  20.083  14.007 -0.3183 -0.1372  0.2154
 3194DOPE   NH337476  27.452  22.710  12.890 -0.0313  0.0499  0.0561
 3194DOPE   PO437477  27.557  22.635  12.590 -0.1324  0.0222  0.1742
 3194DOPE   GL137478  27.232  22.354  12.400 -0.0735 -0.0897 -0.1944
 3194DOPE   GL237479  27.121  22.302  12.696 -0.2618  0.1633  0.2494
 3194DOPE   C1A37480  27.017  21.920  12.386 -0.1813  0.0265 -0.0432
 3194DOPE   D2A37481  26.643  21.702  12.561  0.1112  0.2200  0.0407
 3194DOPE   C3A37482  26.682  21.338  12.743  0.0661 -0.0978 -0.0585
 3194DOPE   C4A37483  26.933  21.020  12.944 -0.0842 -0.0726 -0.1075
 3194DOPE   C1B37484  26.709  22.134  12.784 -0.0092  0.3257  0.4247
 3194DOPE   D2B37485  26.547  21.825  13.040 -0.0701 -0.0143  0.1176
 3194DOPE   C3B37486  26.210  21.619  13.186 -0.1938 -0.2264  0.0775
 3194DOPE   C4B37487  25.956  21.499  13.530 -0.0571  0.3815 -0.2696
 3195DOPE   NH337488  26.524  22.975  12.451 -0.1713  0.1809 -0.3673
 3195DOPE   PO437489  26.219  22.917  12.436  0.2922 -0.0231  0.0158
 3195DOPE   GL137490  26.014  22.669  12.646 -0.5261 -0.1794 -0.3521
 3195DOPE   GL237491  25.906  22.684  12.854  0.2182 -0.0451  0.0393
 3195DOPE   C1A37492  26.193  22.238  12.827 -0.2864 -0.1493 -0.0683
 3195DOPE   D2A37493  25.946  22.007  13.097 -0.0766 -0.0002 -0.1573
 3195DOPE   C3A37494  25.691  21.606  13.149 -0.0601 -0.1783 -0.0459
 3195DOPE   C4A37495  25.785  21.123  13.200  0.1743  0.2758  0.2646
 3195DOPE   C1B37496  25.407  22.787  12.890  0.1104  0.2400 -0.0925
 3195DOPE   D2B37497  24.953  22.973  12.951 -0.0731  0.3555  0.0023
 3195DOPE   C3B37498  24.621  23.213  13.262 -0.4157 -0.0132 -0.0186
 3195DOPE   C4B37499  24.558  23.457  13.629  0.0091 -0.1418  0.1008
 3196DOPC   NC337500  23.446  18.598  12.468 -0.0660 -0.0383 -0.2620
 3196DOPC   PO437501  23.249  18.280  12.416  0.1041 -0.3524 -0.2172
 3196DOPC   GL137502  23.064  18.303  12.737  0.1464 -0.3662 -0.0112
 3196DOPC   GL237503  23.053  18.012  12.834  0.0290 -0.2671  0.2529
 3196DOPC   C1A37504  23.237  18.555  13.054  0.3345 -0.0854  0.0570
 3196DOPC   D2A37505  23.656  18.683  13.249 -0.1725  0.2524  0.1012
 3196DOPC   C3A37506  23.735  19.135  13.450  0.3056 -0.1358  0.1117
 3196DOPC   C4A37507  23.821  19.510  13.704 -0.1657  0.1625 -0.2917
 3196DOPC   C1B37508  22.688  17.810  13.057  0.2400 -0.3221  0.2111
 3196DOPC   D2B37509  22.548  18.010  13.445 -0.3995 -0.1967  0.1617
 3196DOPC   C3B37510  22.388  18.404  13.375  0.0776 -0.1965  0.1188
 3196DOPC   C4B37511  22.327  18.817  13.181  0.2061  0.1267 -0.3011
 3197DOPE   NH337512  33.039  17.250  12.735 -0.0469 -0.0716 -0.4034
 3197DOPE   PO437513  33.183  17.559  12.752 -0.3902 -0.1229  0.0860
 3197DOPE   GL137514  32.951  17.704  13.056  0.2573 -0.0610  0.1812
 3197DOPE   GL237515  32.974  17.487  13.212 -0.4101 -0.1368  0.0227
 3197DOPE   C1A37516  32.994  18.123  13.277 -0.0320 -0.0546  0.1725
 3197DOPE   D2A37517  32.987  18.327  13.710 -0.0910  0.0414  0.3927
 3197DOPE   C3A37518  33.057  17.947  13.990 -0.2042 -0.0875 -0.4633
 3197DOPE   C4A37519  33.230  17.567  14.055  0.0082  0.0224 -0.0041
 3197DOPE   C1B37520  32.925  17.745  13.546 -0.1604 -0.1016  0.0763
 3197DOPE   D2B37521  32.592  17.881  13.718 -0.0000  0.0402  0.3051
 3197DOPE   C3B37522  32.618  17.683  14.154 -0.3942 -0.2756  0.0867
 3197DOPE   C4B37523  32.987  17.700  14.520  0.3006  0.1918  0.0880
 3198DOPS   CNO37524  29.988  21.961  12.810 -0.0164 -0.1953 -0.2132
 3198DOPS   PO437525  29.895  22.318  12.803  0.0377  0.1299  0.1109
 3198DOPS   GL137526  29.740  22.405  13.172  0.2234 -0.2315  0.0897
 3198DOPS   GL237527  29.920  22.595  13.321  0.0755  0.0133  0.0847
 3198DOPS   C1A37528  29.816  22.109  13.482  0.0869  0.1770 -0.2994
 3198DOPS   D2A37529  29.754  21.667  13.617  0.2130  0.2115 -0.2980
 3198DOPS   C3A37530  29.594  21.700  14.020  0.2313  0.2107 -0.0605
 3198DOPS   C4A37531  29.218  21.622  14.256 -0.0535 -0.1345 -0.2949
 3198DOPS   C1B37532  29.591  22.501  13.653  0.1556 -0.2752  0.0096
 3198DOPS   D2B37533  29.743  22.554  14.069  0.1535  0.0065  0.1608
 3198DOPS   C3B37534  29.715  22.834  14.482  0.0551  0.0192  0.0121
 3198DOPS   C4B37535  29.920  22.810  14.927 -0.0360  0.2666  0.2291
 3199DOPC   NC337536  27.371  22.234  13.799 -0.1428 -0.0123  0.2887
 3199DOPC   PO437537  27.362  22.403  13.443  0.0757 -0.0985  0.3828
 3199DOPC   GL137538  27.247  22.230  13.177  0.1392  0.0703 -0.0320
 3199DOPC   GL237539  26.973  22.127  13.255  0.0706  0.1484 -0.1774
 3199DOPC   C1A37540  27.194  21.773  13.024 -0.2094 -0.0197  0.0154
 3199DOPC   D2A37541  26.980  21.448  13.210 -0.0878  0.0017 -0.4116
 3199DOPC   C3A37542  26.688  21.584  13.605 -0.0166 -0.1603  0.2225
 3199DOPC   C4A37543  26.325  21.625  13.919  0.2004  0.0993 -0.0117
 3199DOPC   C1B37544  26.858  22.124  13.737  0.0099  0.0000 -0.0591
 3199DOPC   D2B37545  26.519  22.074  14.068  0.0210  0.1530 -0.2804
 3199DOPC   C3B37546  26.153  22.357  14.070 -0.1625 -0.1317  0.1164
 3199DOPC   C4B37547  25.847  22.641  13.934 -0.1774  0.0547  0.2698
 3200POSM   NC337548  31.979  19.623  12.971  0.1751 -0.0334  0.2192
 3200POSM   PO437549  31.928  19.292  12.864 -0.2866  0.1170 -0.2708
 3200POSM   AM137550  31.873  19.208  13.193  0.1206  0.1671  0.1344
 3200POSM   AM237551  31.973  19.017  13.377  0.0715  0.1181  0.2132
 3200POSM   T1A37552  31.817  19.427  13.621 -0.0164  0.1633  0.0969
 3200POSM   C2A37553  31.855  19.904  13.520 -0.4515  0.0223 -0.2669
 3200POSM   C3A37554  32.009  20.302  13.620  0.0315  0.2540  0.0832
 3200POSM   C1B37555  32.081  18.931  13.715  0.0829 -0.0762 -0.1247
 3200POSM   D2B37556  32.216  18.674  14.030 -0.0671  0.1720 -0.1893
 3200POSM   C3B37557  32.222  18.290  14.273 -0.0365 -0.1176 -0.1527
 3200POSM   C4B37558  32.465  18.059  14.593 -0.1196  0.3885 -0.2320
 3201DOPC   NC337559  25.434  18.189  12.881  0.2537 -0.1000  0.1936
 3201DOPC   PO437560  25.195  17.961  12.654 -0.0265 -0.1740 -0.0718
 3201DOPC   GL137561  24.752  18.151  12.712  0.1837 -0.2800  0.1882
 3201DOPC   GL237562  24.542  17.970  12.587  0.3974  0.1960  0.0446
 3201DOPC   C1A37563  24.618  18.239  13.158  0.0194  0.2597  0.0366
 3201DOPC   D2A37564  24.633  18.482  13.542 -0.1580  0.0969 -0.1733
 3201DOPC   C3A37565  24.928  18.499  13.914 -0.1293 -0.1878 -0.1504
 3201DOPC   C4A37566  25.044  18.516  14.360  0.1243 -0.0123 -0.1078
 3201DOPC   C1B37567  24.406  17.792  13.025 -0.1872 -0.1834 -0.2906
 3201DOPC   D2B37568  24.460  17.416  13.355  0.0789  0.0905 -0.0115
 3201DOPC   C3B37569  24.783  17.499  13.617 -0.0366  0.1003 -0.1131
 3201DOPC   C4B37570  25.011  17.755  13.939  0.2055 -0.0023  0.0047
 3202POSM   NC337571  28.035  18.890  13.375  0.1837 -0.0507  0.4465
 3202POSM   PO437572  28.381  18.843  13.352  0.0379  0.1166  0.0580
 3202POSM   AM137573  28.495  19.123  13.492 -0.3337  0.1565 -0.2319
 3202POSM   AM237574  28.685  19.351  13.373 -0.1617 -0.0084  0.0061
 3202POSM   T1A37575  28.404  19.388  13.881 -0.0558  0.1984 -0.3771
 3202POSM   C2A37576  28.137  19.513  14.204 -0.0164  0.0866  0.0290
 3202POSM   C3A37577  28.193  19.494  14.675 -0.2892  0.0822  0.1617
 3202POSM   C1B37578  28.822  19.574  13.586  0.2618  0.4030 -0.0586
 3202POSM   D2B37579  28.661  19.864  13.918 -0.3501  0.1529  0.1713
 3202POSM   C3B37580  28.977  19.908  14.288 -0.0131 -0.2568  0.1709
 3202POSM   C4B37581  29.253  20.091  14.685  0.1731 -0.0884 -0.1220
 3203DOPE   NH337582  26.119  17.667  12.912 -0.3141  0.2968  0.6082
 3203DOPE   PO437583  26.295  17.907  12.920 -0.1457 -0.2364 -0.0366
 3203DOPE   GL137584  26.305  17.845  13.285  0.0637  0.1988  0.0765
 3203DOPE   GL237585  26.343  17.646  13.508  0.2571 -0.4721 -0.2700
 3203DOPE   C1A37586  26.137  18.125  13.602  0.1871 -0.0700  0.3912
 3203DOPE   D2A37587  26.120  18.481  13.842 -0.0871 -0.0722  0.0589
 3203DOPE   C3A37588  26.458  18.535  14.112  0.0225 -0.0143  0.0257
 3203DOPE   C4A37589  26.604  18.810  14.484 -0.1307  0.0487  0.2313
 3203DOPE   C1B37590  26.572  17.698  13.824 -0.3527 -0.2115 -0.0294
 3203DOPE   D2B37591  26.542  18.064  14.138  0.3774  0.0367  0.2901
 3203DOPE   C3B37592  26.289  18.028  14.494  0.2344 -0.1661 -0.2653
 3203DOPE   C4B37593  26.151  17.939  14.915 -0.2719  0.0768  0.0467
 3204DOPE   NH337594  32.191  18.897  12.926 -0.3580  0.3796 -0.2048
 3204DOPE   PO437595  32.188  18.689  12.679 -0.2593  0.3977 -0.2052
 3204DOPE   GL137596  32.425  18.401  12.907 -0.0253  0.1469  0.4409
 3204DOPE   GL237597  32.732  18.422  13.018  0.0770  0.0415  0.2590
 3204DOPE   C1A37598  32.531  17.967  13.031  0.4343 -0.0076 -0.1533
 3204DOPE   D2A37599  32.458  17.567  13.295  0.2088 -0.3104  0.2238
 3204DOPE   C3A37600  32.192  17.535  13.688 -0.2513  0.0399  0.3981
 3204DOPE   C4A37601  32.108  17.326  14.086  0.0129 -0.2690  0.3061
 3204DOPE   C1B37602  32.566  18.292  13.430 -0.1927 -0.0172 -0.2782
 3204DOPE   D2B37603  32.399  18.300  13.843  0.1884  0.1815 -0.2998
 3204DOPE   C3B37604  32.684  18.453  14.158  0.0244  0.6805 -0.1556
 3204DOPE   C4B37605  32.728  18.572  14.569  0.0471  0.0600  0.1146
 3205DOPS   CNO37606  30.519  11.183  12.443  0.1992 -0.0611  0.1052
 3205DOPS   PO437607  30.232  11.318  12.597 -0.1095  0.3378 -0.0821
 3205DOPS   GL137608  30.170  11.572  12.867 -0.0944 -0.1792  0.0240
 3205DOPS   GL237609  30.364  11.731  12.985 -0.1372 -0.0376 -0.1363
 3205DOPS   C1A37610  30.056  11.644  13.327 -0.1921  0.4913 -0.0996
 3205DOPS   D2A37611  29.985  11.308  13.677 -0.0036  0.1407 -0.1681
 3205DOPS   C3A37612  30.230  10.955  13.848 -0.0795 -0.2120  0.0610
 3205DOPS   C4A37613  30.460  10.867  14.220 -0.3630 -0.0951 -0.1433
 3205DOPS   C1B37614  30.579  11.765  13.399  0.3829 -0.0679  0.1970
 3205DOPS   D2B37615  30.739  11.923  13.845  0.2268  0.0633  0.1672
 3205DOPS   C3B37616  30.670  11.686  14.218  0.3252 -0.0701 -0.1227
 3205DOPS   C4B37617  30.796  11.293  14.378 -0.0544  0.1305  0.3539
 3206DOPE   NH337618  24.804  11.828  12.185  0.0206 -0.2057 -0.2714
 3206DOPE   PO437619  24.477  11.898  12.204  0.1275  0.1362 -0.0187
 3206DOPE   GL137620  24.647  12.097  12.552  0.2396 -0.0618 -0.0987
 3206DOPE   GL237621  24.975  12.154  12.559  0.1230  0.0462  0.2287
 3206DOPE   C1A37622  24.505  12.345  12.884  0.0897  0.2186 -0.0504
 3206DOPE   D2A37623  24.370  12.714  13.077 -0.2398 -0.0722  0.1015
 3206DOPE   C3A37624  24.595  12.679  13.475  0.1403 -0.0083  0.1870
 3206DOPE   C4A37625  24.953  12.452  13.742  0.1495  0.0631  0.1593
 3206DOPE   C1B37626  24.954  12.579  12.782 -0.0411  0.0005  0.0863
 3206DOPE   D2B37627  25.022  12.967  12.614  0.0574 -0.1403 -0.0531
 3206DOPE   C3B37628  25.369  13.018  12.316  0.3408 -0.0392 -0.0706
 3206DOPE   C4B37629  25.732  13.249  12.157  0.1120  0.0744 -0.0048
 3207DOPE   NH337630  31.195  12.186  12.807 -0.0704  0.0738  0.0939
 3207DOPE   PO437631  31.461  12.094  12.689 -0.1005 -0.0813  0.2431
 3207DOPE   GL137632  31.694  12.269  12.901 -0.2035 -0.0869  0.0852
 3207DOPE   GL237633  31.937  12.168  12.959 -0.3148 -0.0618 -0.2236
 3207DOPE   C1A37634  31.919  12.707  12.983  0.1756 -0.1259  0.0391
 3207DOPE   D2A37635  32.166  12.975  13.216 -0.1899  0.0202 -0.0026
 3207DOPE   C3A37636  32.415  12.798  13.570 -0.2444  0.0380  0.2487
 3207DOPE   C4A37637  32.304  12.451  13.833 -0.1563 -0.2407  0.1833
 3207DOPE   C1B37638  32.108  12.395  13.335 -0.0559 -0.0906  0.1907
 3207DOPE   D2B37639  31.833  12.741  13.547  0.0908 -0.0560  0.1300
 3207DOPE   C3B37640  32.007  12.891  13.971  0.1767  0.0674  0.4605
 3207DOPE   C4B37641  32.245  13.277  14.126  0.1386  0.0847 -0.3497
 3208POSM   NC337642  34.267  19.682  12.443  0.0212 -0.2308 -0.1377
 3208POSM   PO437643  34.430  20.043  12.500  0.2741  0.0075 -0.3184
 3208POSM   AM137644  34.173  20.222  12.596 -0.3436 -0.3692  0.3759
 3208POSM   AM237645  33.950  20.367  12.477 -0.0573  0.0748  0.0160
 3208POSM   T1A37646  33.993  20.555  12.907  0.0956  0.0813  0.2378
 3208POSM   C2A37647  33.629  20.822  12.999  0.3592  0.1167 -0.0625
 3208POSM   C3A37648  33.338  20.973  13.308 -0.0252 -0.0000 -0.2117
 3208POSM   C1B37649  33.753  20.632  12.414 -0.0401  0.0782 -0.4072
 3208POSM   D2B37650  33.646  21.030  12.530 -0.0061 -0.0063  0.1957
 3208POSM   C3B37651  34.026  21.176  12.774  0.0301  0.1712 -0.0061
 3208POSM   C4B37652  34.042  21.583  12.941 -0.0947  0.3106  0.1138
 3209DOPC   NC337653  33.159  19.391  12.614 -0.0060 -0.2565  0.2976
 3209DOPC   PO437654  33.210  19.822  12.609  0.4085  0.1630  0.0067
 3209DOPC   GL137655  33.080  19.953  13.012  0.0461 -0.1191 -0.1987
 3209DOPC   GL237656  33.277  19.827  13.192  0.0228  0.0933 -0.0830
 3209DOPC   C1A37657  32.965  20.130  13.416  0.1677  0.0108  0.4270
 3209DOPC   D2A37658  33.048  20.235  13.865  0.0936  0.1618 -0.0549
 3209DOPC   C3A37659  33.456  20.061  14.093 -0.2223 -0.1693  0.0345
 3209DOPC   C4A37660  33.742  19.947  14.455  0.0101 -0.2117 -0.1379
 3209DOPC   C1B37661  33.599  20.126  13.251 -0.0590  0.2169  0.1522
 3209DOPC   D2B37662  33.967  20.308  13.371  0.0648 -0.0940 -0.3917
 3209DOPC   C3B37663  34.008  20.585  13.807 -0.2180  0.0321 -0.2767
 3209DOPC   C4B37664  34.230  20.866  14.156  0.0257  0.0519  0.0589
 3210DOPC   NC337665  27.987  11.478  12.760 -0.2343 -0.0375  0.0948
 3210DOPC   PO437666  27.869  11.826  12.616 -0.1717  0.1889 -0.3337
 3210DOPC   GL137667  27.614  11.867  12.896 -0.2160  0.1583  0.0806
 3210DOPC   GL237668  27.407  11.596  12.850  0.0431 -0.0495  0.0179
 3210DOPC   C1A37669  27.888  11.761  13.284 -0.0286  0.1379  0.3715
 3210DOPC   D2A37670  27.990  11.785  13.765  0.1048  0.2237  0.4513
 3210DOPC   C3A37671  28.209  11.546  14.092  0.1583  0.1276  0.1236
 3210DOPC   C4A37672  28.516  11.532  14.444 -0.2283  0.0812 -0.0023
 3210DOPC   C1B37673  27.101  11.300  13.072  0.2785  0.3097 -0.0614
 3210DOPC   D2B37674  26.895  11.261  13.497 -0.2912 -0.0477 -0.0046
 3210DOPC   C3B37675  27.220  10.918  13.600 -0.2008 -0.1237 -0.3781
 3210DOPC   C4B37676  27.669  10.824  13.613 -0.1808  0.2238 -0.1844
 3211DOPE   NH337677  27.429  12.127  12.600 -0.2771 -0.0770  0.2207
 3211DOPE   PO437678  27.172  12.301  12.671 -0.4366 -0.1059  0.0368
 3211DOPE   GL137679  27.143  12.066  12.944 -0.1023  0.0368 -0.0570
 3211DOPE   GL237680  26.898  12.123  13.136 -0.0235  0.1072  0.0029
 3211DOPE   C1A37681  27.470  11.979  13.321 -0.2191  0.1174 -0.0148
 3211DOPE   D2A37682  27.529  12.146  13.815  0.0122 -0.2969 -0.2575
 3211DOPE   C3A37683  27.607  11.936  14.261  0.1792 -0.1210  0.0967
 3211DOPE   C4A37684  27.443  11.977  14.697  0.2157  0.2209  0.2410
 3211DOPE   C1B37685  27.090  12.197  13.516  0.0038 -0.1794  0.1665
 3211DOPE   D2B37686  27.005  12.397  13.930  0.3035 -0.1252 -0.1947
 3211DOPE   C3B37687  27.309  12.404  14.307  0.0350  0.2949 -0.1275
 3211DOPE   C4B37688  27.327  12.429  14.793  0.3110  0.3225 -0.1456
 3212DOPE   NH337689  30.343  15.204  13.288  0.0445  0.1432 -0.0683
 3212DOPE   PO437690  30.511  15.178  13.574  0.0486  0.2763 -0.1016
 3212DOPE   GL137691  30.645  15.058  13.983 -0.3081 -0.1791 -0.0347
 3212DOPE   GL237692  30.898  15.058  13.808 -0.0427  0.2794  0.0809
 3212DOPE   C1A37693  30.767  14.971  14.487 -0.2085 -0.3420 -0.1080
 3212DOPE   D2A37694  30.784  14.715  14.867  0.0209  0.1218  0.3124
 3212DOPE   C3A37695  30.772  14.858  15.298  0.2589  0.1921 -0.1047
 3212DOPE   C4A37696  30.490  14.936  15.680  0.0762 -0.0733  0.0154
 3212DOPE   C1B37697  31.098  15.267  14.150  0.0570  0.4212  0.4649
 3212DOPE   D2B37698  31.132  15.303  14.611  0.2917  0.2365 -0.1765
 3212DOPE   C3B37699  31.491  15.544  14.692  0.3352 -0.2225  0.0502
 3212DOPE   C4B37700  31.939  15.342  14.690  0.2841  0.0308  0.2227
 3213POSM   NC337701  28.380  11.969  12.793  0.0133 -0.0111 -0.1260
 3213POSM   PO437702  28.618  11.871  12.488 -0.1132  0.2364  0.0156
 3213POSM   AM137703  28.849  11.909  12.733 -0.1523 -0.2714  0.0824
 3213POSM   AM237704  28.872  11.802  12.979  0.5561  0.0586 -0.1027
 3213POSM   T1A37705  29.271  12.145  12.869  0.0208 -0.0232  0.1478
 3213POSM   C2A37706  29.499  12.475  13.102  0.1213  0.0129 -0.0035
 3213POSM   C3A37707  29.461  12.853  13.419 -0.2636 -0.2225  0.0352
 3213POSM   C1B37708  28.835  11.926  13.328  0.0458  0.0069  0.0701
 3213POSM   D2B37709  28.895  12.088  13.725  0.1387 -0.0273 -0.0998
 3213POSM   C3B37710  28.764  12.525  13.897 -0.0079  0.2195  0.2622
 3213POSM   C4B37711  28.929  12.581  14.305 -0.0928 -0.0958  0.1320
 3214POSM   NC337712  30.435  16.012  13.234 -0.2068 -0.1125  0.1627
 3214POSM   PO437713  30.624  16.019  13.539  0.2632  0.1955  0.2026
 3214POSM   AM137714  30.836  16.041  13.789 -0.2124  0.4357 -0.2967
 3214POSM   AM237715  30.821  16.107  14.070 -0.3069  0.2940  0.0711
 3214POSM   T1A37716  31.311  16.154  14.036  0.1921  0.0121  0.2188
 3214POSM   C2A37717  31.708  16.166  14.304 -0.3763  0.0572  0.3833
 3214POSM   C3A37718  32.157  16.122  14.250  0.0847  0.1657  0.5206
 3214POSM   C1B37719  30.678  16.145  14.388 -0.0197  0.2746  0.0613
 3214POSM   D2B37720  30.518  16.279  14.857 -0.0888  0.1054 -0.1225
 3214POSM   C3B37721  30.056  16.192  14.815 -0.1627  0.1019 -0.2661
 3214POSM   C4B37722  29.682  16.288  15.081  0.1494 -0.1166 -0.1465
 3215POSM   NC337723  24.443  21.013  11.976  0.6435 -0.5076  0.3322
 3215POSM   PO437724  24.629  21.280  12.157 -0.3309 -0.1370 -0.1709
 3215POSM   AM137725  24.770  21.506  12.349 -0.0795 -0.2841  0.4369
 3215POSM   AM237726  24.801  21.496  12.614 -0.4569  0.0899 -0.0818
 3215POSM   T1A37727  25.242  21.702  12.457 -0.1773 -0.1680 -0.0166
 3215POSM   C2A37728  25.741  21.775  12.584  0.0122 -0.2625  0.2754
 3215POSM   C3A37729  26.211  21.885  12.392  0.0098  0.2931  0.0492
 3215POSM   C1B37730  24.993  21.206  12.760 -0.0793  0.1120  0.2944
 3215POSM   D2B37731  25.299  20.881  13.041 -0.0370  0.1029  0.1519
 3215POSM   C3B37732  25.163  20.437  13.047 -0.2530  0.0749 -0.1612
 3215POSM   C4B37733  25.015  19.949  13.155  0.1238  0.2796 -0.3075
 3216POSM   NC337734  32.525  14.965  12.440 -0.2554  0.0516  0.0850
 3216POSM   PO437735  32.813  14.802  12.647  0.0342 -0.0096 -0.1403
 3216POSM   AM137736  32.639  14.785  12.911  0.0005 -0.2724  0.2117
 3216POSM   AM237737  32.659  14.826  13.174  0.1678 -0.0459 -0.2274
 3216POSM   T1A37738  32.206  14.629  13.082  0.0369 -0.0641  0.0849
 3216POSM   C2A37739  31.808  14.505  13.001 -0.0618  0.0984 -0.0686
 3216POSM   C3A37740  31.541  14.202  12.800  0.2619  0.1086  0.1260
 3216POSM   C1B37741  32.493  14.890  13.433  0.1805 -0.3067 -0.2821
 3216POSM   D2B37742  32.333  15.087  13.790 -0.0053  0.1267  0.3087
 3216POSM   C3B37743  31.955  14.958  13.958 -0.1816 -0.0952  0.0777
 3216POSM   C4B37744  31.674  15.195  14.265 -0.0793  0.0191  0.2060
 3217DOPC   NC337745  27.483  18.080  12.900  0.2773  0.3507 -0.0053
 3217DOPC   PO437746  27.138  18.058  12.774  0.2494 -0.0797 -0.0268
 3217DOPC   GL137747  27.200  17.751  13.166  0.0913 -0.3147  0.1023
 3217DOPC   GL237748  27.310  17.509  13.116  0.0622  0.0586 -0.0431
 3217DOPC   C1A37749  26.966  17.565  13.498  0.3858  0.1287 -0.0208
 3217DOPC   D2A37750  26.824  17.207  13.698 -0.3638  0.0554  0.0726
 3217DOPC   C3A37751  26.772  17.213  14.112  0.0183  0.0539  0.0952
 3217DOPC   C4A37752  27.063  17.353  14.423 -0.0184 -0.2902 -0.0564
 3217DOPC   C1B37753  27.213  17.160  13.407 -0.1430 -0.3793 -0.0867
 3217DOPC   D2B37754  27.119  16.766  13.615  0.1060  0.3257  0.2041
 3217DOPC   C3B37755  27.419  16.496  13.870  0.0071  0.0468  0.0318
 3217DOPC   C4B37756  27.676  16.198  14.015  0.0632  0.4856  0.3102
 3218DOPC   NC337757  30.836  13.245  12.557  0.0187  0.0907  0.2114
 3218DOPC   PO437758  30.718  12.866  12.631  0.0063 -0.2157 -0.0882
 3218DOPC   GL137759  31.022  12.905  13.009 -0.1408  0.0867  0.5972
 3218DOPC   GL237760  31.081  13.149  13.053  0.0732  0.2446 -0.3491
 3218DOPC   C1A37761  31.496  12.936  13.174 -0.1828 -0.2384  0.0951
 3218DOPC   D2A37762  31.750  13.227  13.378 -0.4059  0.1366  0.2935
 3218DOPC   C3A37763  32.177  13.378  13.582 -0.0708  0.0915 -0.2981
 3218DOPC   C4A37764  32.613  13.413  13.713  0.0906 -0.1887 -0.1273
 3218DOPC   C1B37765  31.486  13.372  12.965 -0.2853 -0.0318 -0.0132
 3218DOPC   D2B37766  31.932  13.270  12.913 -0.0485  0.1212 -0.4344
 3218DOPC   C3B37767  32.204  13.520  13.142 -0.3231  0.0824 -0.1300
 3218DOPC   C4B37768  32.512  13.789  13.390 -0.0480  0.0295 -0.0739
 3219DOPE   NH337769  31.148  18.776  13.090 -0.2116 -0.0139 -0.2182
 3219DOPE   PO437770  31.293  18.485  13.038  0.0094 -0.0483  0.4075
 3219DOPE   GL137771  31.195  18.450  13.503  0.1149  0.1031 -0.1000
 3219DOPE   GL237772  31.485  18.629  13.527 -0.1989  0.0936 -0.3975
 3219DOPE   C1A37773  31.354  18.413  13.941 -0.2314  0.2114  0.1648
 3219DOPE   D2A37774  31.607  18.686  14.147 -0.1018 -0.1932  0.0455
 3219DOPE   C3A37775  31.868  18.552  14.535 -0.0761 -0.4789 -0.0073
 3219DOPE   C4A37776  31.906  18.196  14.809  0.0439 -0.0929  0.3116
 3219DOPE   C1B37777  31.558  19.051  13.734  0.1305 -0.0311  0.2607
 3219DOPE   D2B37778  31.625  19.181  14.210 -0.3562 -0.0075 -0.5091
 3219DOPE   C3B37779  31.332  19.467  14.369 -0.1322 -0.0371  0.1135
 3219DOPE   C4B37780  31.262  19.704  14.766 -0.3355 -0.0143  0.2123
 3220DOPC   NC337781  30.461  18.378  12.828  0.1582 -0.1318  0.2043
 3220DOPC   PO437782  30.685  18.750  12.861 -0.0676  0.0502  0.1460
 3220DOPC   GL137783  30.746  18.477  13.219  0.1306 -0.0625  0.1884
 3220DOPC   GL237784  30.697  18.633  13.467  0.1637  0.0980  0.0498
 3220DOPC   C1A37785  30.897  18.104  13.502  0.2370 -0.1404 -0.0469
 3220DOPC   D2A37786  30.843  17.907  13.909  0.1634 -0.1407  0.0860
 3220DOPC   C3A37787  31.167  18.029  14.245 -0.0069 -0.0525  0.1989
 3220DOPC   C4A37788  31.336  18.167  14.689  0.1597  0.0918  0.0367
 3220DOPC   C1B37789  30.514  18.796  13.823  0.3660  0.4388 -0.1112
 3220DOPC   D2B37790  30.671  18.847  14.245  0.2922 -0.0398 -0.1243
 3220DOPC   C3B37791  30.532  18.768  14.704 -0.4739  0.1162  0.1479
 3220DOPC   C4B37792  30.533  18.510  15.086 -0.0503 -0.3238 -0.0199
 3221DOPC   NC337793  32.598  19.550  12.453  0.3275  0.3355 -0.0503
 3221DOPC   PO437794  32.381  19.523  12.769  0.0477  0.2043  0.1137
 3221DOPC   GL137795  32.579  19.705  13.018  0.2531  0.1423 -0.1689
 3221DOPC   GL237796  32.871  19.587  13.016 -0.2788 -0.1508  0.0262
 3221DOPC   C1A37797  32.686  20.114  13.025 -0.0631  0.0656 -0.2204
 3221DOPC   D2A37798  32.657  20.601  12.983  0.0544  0.0840 -0.2399
 3221DOPC   C3A37799  32.866  20.751  13.392  0.1998 -0.0810  0.1110
 3221DOPC   C4A37800  33.031  20.740  13.832 -0.0463 -0.0621  0.0793
 3221DOPC   C1B37801  32.697  19.746  13.420 -0.1133  0.0140  0.0989
 3221DOPC   D2B37802  32.598  19.814  13.873  0.0335  0.1354  0.2670
 3221DOPC   C3B37803  32.554  20.247  13.922  0.2899  0.1349 -0.2060
 3221DOPC   C4B37804  32.647  20.609  14.197  0.1935 -0.1324  0.1886
 3222DOPS   CNO37805  31.464  22.701  12.303 -0.0201 -0.0169 -0.2066
 3222DOPS   PO437806  31.743  22.901  12.413  0.1377  0.1515  0.0252
 3222DOPS   GL137807  31.804  23.025  12.809 -0.0433 -0.1329 -0.6398
 3222DOPS   GL237808  31.660  22.855  12.935 -0.0648  0.1807  0.0110
 3222DOPS   C1A37809  31.760  23.315  13.213 -0.0819  0.1509  0.0696
 3222DOPS   D2A37810  31.649  23.680  13.359  0.2675  0.0885 -0.1007
 3222DOPS   C3A37811  31.394  23.847  13.650  0.3078 -0.0163  0.2923
 3222DOPS   C4A37812  31.542  24.087  14.080 -0.0154  0.0769 -0.2229
 3222DOPS   C1B37813  31.716  22.561  13.274 -0.0546 -0.1237 -0.2066
 3222DOPS   D2B37814  31.941  22.251  13.596 -0.3267  0.1028  0.0759
 3222DOPS   C3B37815  31.860  22.133  14.001  0.1430  0.2171  0.1140
 3222DOPS   C4B37816  31.623  21.791  14.158 -0.2235  0.1773  0.0138
 3223POSM   NC337817  34.159  16.729  13.371  0.2351  0.3693 -0.1158
 3223POSM   PO437818  33.816  16.721  13.092  0.0377  0.0148 -0.1902
 3223POSM   AM137819  33.487  16.623  13.176 -0.2821 -0.7089  0.3183
 3223POSM   AM237820  33.358  16.429  13.299  0.0150  0.2744  0.2877
 3223POSM   T1A37821  33.113  16.960  13.288 -0.1036 -0.2159  0.1026
 3223POSM   C2A37822  32.790  17.122  13.537  0.0213  0.0194 -0.0645
 3223POSM   C3A37823  32.601  17.254  13.932 -0.1009 -0.0262 -0.1995
 3223POSM   C1B37824  33.029  16.406  13.420 -0.2189 -0.0089 -0.0459
 3223POSM   D2B37825  32.579  16.569  13.495  0.0883 -0.0096  0.1555
 3223POSM   C3B37826  32.273  16.270  13.314 -0.0858 -0.4303  0.2149
 3223POSM   C4B37827  32.347  16.107  12.851 -0.0620  0.3168 -0.1273
 3224DOPS   CNO37828  29.795  19.585  12.896  0.0612  0.0349  0.1309
 3224DOPS   PO437829  29.832  19.973  12.921 -0.0342  0.0977 -0.2293
 3224DOPS   GL137830  30.038  20.164  13.261  0.2315 -0.0995 -0.0328
 3224DOPS   GL237831  29.863  20.290  13.443  0.2156 -0.0418  0.0703
 3224DOPS   C1A37832  30.482  20.224  13.320 -0.0641 -0.1504  0.0750
 3224DOPS   D2A37833  30.868  20.471  13.136 -0.2201 -0.0265  0.2982
 3224DOPS   C3A37834  31.087  20.379  12.732  0.3790  0.0382 -0.1757
 3224DOPS   C4A37835  31.053  20.051  12.367 -0.0776  0.0075  0.0250
 3224DOPS   C1B37836  30.188  20.501  13.694 -0.0622 -0.0543  0.2550
 3224DOPS   D2B37837  30.661  20.607  13.698 -0.2144  0.0081  0.0819
 3224DOPS   C3B37838  30.706  20.753  14.123 -0.0067 -0.5227  0.1339
 3224DOPS   C4B37839  30.977  20.680  14.501 -0.1322 -0.0317 -0.0895
 3225POSM   NC337840  25.449  17.598  12.364  0.0999 -0.1156  0.0987
 3225POSM   PO437841  25.720  17.396  12.598 -0.3005 -0.0029  0.0558
 3225POSM   AM137842  25.705  17.270  12.923 -0.3767  0.1948  0.0749
 3225POSM   AM237843  25.886  17.285  13.153 -0.2894 -0.1169 -0.0163
 3225POSM   T1A37844  25.467  17.415  13.345  0.1198 -0.0516 -0.0460
 3225POSM   C2A37845  25.442  17.376  13.802  0.1980 -0.0152 -0.3678
 3225POSM   C3A37846  25.414  17.420  14.230 -0.1698  0.1658  0.1371
 3225POSM   C1B37847  25.929  17.260  13.490 -0.0466 -0.0818 -0.0288
 3225POSM   D2B37848  25.810  17.135  13.927  0.1676  0.1625 -0.0413
 3225POSM   C3B37849  26.081  16.744  13.905 -0.0306 -0.2236  0.0956
 3225POSM   C4B37850  26.451  16.738  14.237  0.3044  0.0253  0.0099
 3226DOPC   NC337851  26.482  19.409  12.868 -0.0349 -0.3543  0.2447
 3226DOPC   PO437852  26.920  19.367  12.861  0.0107 -0.1400  0.0311
 3226DOPC   GL137853  27.174  19.721  13.032 -0.1530 -0.1022  0.1966
 3226DOPC   GL237854  26.921  19.761  13.250  0.0018 -0.4188  0.2586
 3226DOPC   C1A37855  27.369  20.088  13.265  0.0353  0.2925  0.2783
 3226DOPC   D2A37856  27.681  20.438  13.304  0.2752  0.0810 -0.1447
 3226DOPC   C3A37857  27.705  20.816  13.095  0.1436  0.0457 -0.0201
 3226DOPC   C4A37858  27.925  21.163  12.936 -0.0425  0.2311 -0.0991
 3226DOPC   C1B37859  26.834  20.209  13.460  0.0988 -0.1455  0.3028
 3226DOPC   D2B37860  26.566  20.480  13.753 -0.3738 -0.3460  0.3459
 3226DOPC   C3B37861  26.167  20.680  13.798  0.1231  0.3551  0.0934
 3226DOPC   C4B37862  25.837  20.979  13.623  0.0558  0.0959 -0.2002
 3227DOPC   NC337863  31.578  16.814  13.071 -0.0412  0.1265 -0.2505
 3227DOPC   PO437864  31.377  16.690  13.399  0.0447  0.2472 -0.0181
 3227DOPC   GL137865  31.668  16.617  13.624 -0.0803 -0.1869 -0.3657
 3227DOPC   GL237866  31.622  16.330  13.741  0.4278  0.0180  0.2231
 3227DOPC   C1A37867  31.711  16.797  14.034 -0.2960  0.0066  0.0111
 3227DOPC   D2A37868  31.848  16.758  14.500 -0.0909  0.2088 -0.2458
 3227DOPC   C3A37869  31.553  16.353  14.677  0.1854  0.2326 -0.0730
 3227DOPC   C4A37870  31.604  16.164  15.108 -0.3804 -0.0158 -0.1295
 3227DOPC   C1B37871  32.062  16.350  13.831 -0.3084 -0.1817  0.1668
 3227DOPC   D2B37872  32.570  16.221  13.916  0.2291 -0.1529 -0.2297
 3227DOPC   C3B37873  32.425  15.821  13.936 -0.3245  0.1453 -0.0501
 3227DOPC   C4B37874  32.181  15.548  13.754  0.1905  0.0668 -0.0946
 3228DOPC   NC337875  25.561  11.987  12.661 -0.2263  0.0687 -0.1281
 3228DOPC   PO437876  25.892  12.230  12.574  0.2435 -0.3150 -0.0893
 3228DOPC   GL137877  25.735  12.442  12.799 -0.1096  0.2305 -0.0150
 3228DOPC   GL237878  25.924  12.559  12.989  0.1674 -0.0299  0.1214
 3228DOPC   C1A37879  25.327  12.315  12.965 -0.1724 -0.0012  0.0698
 3228DOPC   D2A37880  24.968  12.372  13.228  0.0154 -0.0945  0.0718
 3228DOPC   C3A37881  24.585  12.154  13.409  0.0832 -0.0906 -0.1820
 3228DOPC   C4A37882  24.257  12.227  13.657  0.1871 -0.1925 -0.3815
 3228DOPC   C1B37883  26.256  12.682  13.208 -0.0677  0.0689  0.0616
 3228DOPC   D2B37884  26.538  13.023  13.210 -0.0367  0.2647 -0.4334
 3228DOPC   C3B37885  26.574  13.122  13.662 -0.0119  0.1583  0.0583
 3228DOPC   C4B37886  26.580  12.752  13.931 -0.0558  0.0911 -0.2152
 3229POSM   NC337887  31.839  22.468  12.650 -0.2719 -0.5284  0.0938
 3229POSM   PO437888  31.471  22.326  12.724  0.0338 -0.3000  0.4835
 3229POSM   AM137889  31.533  22.173  12.991 -0.3169  0.0558 -0.0279
 3229POSM   AM237890  31.717  21.954  13.044 -0.2310 -0.3565 -0.1378
 3229POSM   T1A37891  31.455  22.177  13.452  0.2183 -0.0390 -0.1905
 3229POSM   C2A37892  31.335  22.173  13.918 -0.1677  0.1439 -0.1750
 3229POSM   C3A37893  31.108  21.808  14.119 -0.0540  0.0661  0.0238
 3229POSM   C1B37894  31.517  21.702  13.216 -0.1305 -0.3038  0.0883
 3229POSM   D2B37895  31.512  21.352  13.437 -0.0859  0.1202  0.0560
 3229POSM   C3B37896  31.238  21.317  13.843  0.0486  0.3358  0.1621
 3229POSM   C4B37897  31.016  21.122  14.216  0.1992  0.0219  0.0276
 3230POSM   NC337898  25.113  15.469  12.107 -0.3331 -0.0080 -0.2834
 3230POSM   PO437899  25.317  15.224  12.350  0.0567 -0.1687 -0.0950
 3230POSM   AM137900  25.371  14.978  12.543 -0.1640  0.1537 -0.3168
 3230POSM   AM237901  25.430  14.896  12.825  0.0839 -0.3948  0.0178
 3230POSM   T1A37902  25.477  14.497  12.574  0.4716  0.0147 -0.1050
 3230POSM   C2A37903  25.672  14.197  12.354 -0.2207 -0.2246 -0.0256
 3230POSM   C3A37904  26.054  14.236  12.148  0.1694 -0.0093  0.0886
 3230POSM   C1B37905  25.726  14.959  12.882  0.1073  0.2271 -0.0937
 3230POSM   D2B37906  26.188  14.887  12.872 -0.1825  0.1983  0.0201
 3230POSM   C3B37907  26.393  14.954  13.288 -0.2883 -0.2920  0.2998
 3230POSM   C4B37908  26.345  15.067  13.754 -0.0508 -0.2555 -0.0457
 3231DOPE   NH337909  29.591  15.807  13.314 -0.2850  0.5140  0.1194
 3231DOPE   PO437910  29.750  15.712  13.556  0.0599  0.3347 -0.1621
 3231DOPE   GL137911  29.467  15.976  13.702  0.4740 -0.0158  0.0370
 3231DOPE   GL237912  29.209  15.818  13.677  0.0966  0.3959 -0.3972
 3231DOPE   C1A37913  29.355  16.101  14.136  0.0396  0.1632 -0.0420
 3231DOPE   D2A37914  29.098  16.495  14.218  0.3171  0.1653 -0.1050
 3231DOPE   C3A37915  28.844  16.596  14.589  0.2617  0.4112  0.1211
 3231DOPE   C4A37916  28.878  16.889  14.938 -0.4455 -0.1268  0.1527
 3231DOPE   C1B37917  28.851  15.998  13.936  0.1995  0.1851 -0.3094
 3231DOPE   D2B37918  28.353  15.987  13.927  0.0553 -0.2142 -0.4957
 3231DOPE   C3B37919  28.040  15.934  14.225 -0.2422 -0.0070  0.2413
 3231DOPE   C4B37920  27.659  15.793  14.478 -0.3172  0.1434  0.2610
 3232DOPS   CNO37921  34.505  16.496  12.758 -0.1140  0.1389  0.1214
 3232DOPS   PO437922  34.221  16.424  12.982  0.4300 -0.0501 -0.1067
 3232DOPS   GL137923  34.084  16.270  13.297  0.2459 -0.0084  0.1014
 3232DOPS   GL237924  34.064  15.976  13.296 -0.2635 -0.3640 -0.2118
 3232DOPS   C1A37925  33.797  16.345  13.640  0.2306 -0.1485 -0.2833
 3232DOPS   D2A37926  33.437  16.606  13.784  0.2603 -0.3957 -0.0676
 3232DOPS   C3A37927  33.234  16.729  14.210 -0.1587 -0.0603  0.0374
 3232DOPS   C4A37928  33.042  16.546  14.589 -0.1866  0.2482  0.0622
 3232DOPS   C1B37929  33.863  15.616  13.382  0.0890  0.2569  0.0225
 3232DOPS   D2B37930  33.527  15.305  13.351 -0.1110  0.0854 -0.0725
 3232DOPS   C3B37931  33.366  15.276  13.808  0.1948 -0.1402 -0.0503
 3232DOPS   C4B37932  33.093  15.263  14.168  0.0487  0.0281  0.0079
 3233DOPE   NH337933  34.677  22.711  12.414  0.0042  0.0317  0.2317
 3233DOPE   PO437934  34.554  22.799  12.690  0.1007  0.1581 -0.1954
 3233DOPE   GL137935  34.814  22.693  13.005 -0.2783 -0.0705  0.1821
 3233DOPE   GL237936  34.668  22.504  13.230 -0.1744  0.3313 -0.1091
 3233DOPE   C1A37937  34.916  22.958  13.359  0.0242  0.2876  0.4255
 3233DOPE   D2A37938  35.113  22.937  13.772  0.1904 -0.1713  0.3498
 3233DOPE   C3A37939  35.309  22.563  14.011  0.4163  0.0561  0.0271
 3233DOPE   C4A37940  35.536  22.234  13.921  0.1009  0.3320  0.2308
 3233DOPE   C1B37941  34.584  22.507  13.749  0.1313  0.0338  0.1742
 3233DOPE   D2B37942  34.816  22.230  14.070 -0.1640  0.3854  0.1542
 3233DOPE   C3B37943  35.032  22.376  14.456  0.0839 -0.3746  0.0114
 3233DOPE   C4B37944  34.992  22.600  14.844 -0.1044 -0.1577 -0.0667
 3234DOPC   NC337945  24.726  16.037  12.931 -0.0410  0.0699  0.0201
 3234DOPC   PO437946  24.928  16.232  12.650  0.1916  0.2134 -0.2449
 3234DOPC   GL137947  24.656  16.457  12.558 -0.0120 -0.0475 -0.4688
 3234DOPC   GL237948  24.469  16.352  12.565  0.3910 -0.3386  0.1648
 3234DOPC   C1A37949  24.457  16.888  12.671 -0.1302  0.0557 -0.3188
 3234DOPC   D2A37950  24.305  17.357  12.825  0.0804  0.1124 -0.0949
 3234DOPC   C3A37951  23.990  17.389  13.149  0.3502 -0.3815  0.2781
 3234DOPC   C4A37952  23.745  17.368  13.558 -0.0001 -0.4474 -0.1385
 3234DOPC   C1B37953  24.083  16.575  12.616  0.2673  0.2934 -0.1307
 3234DOPC   D2B37954  23.722  16.676  12.969  0.0059 -0.2684  0.0613
 3234DOPC   C3B37955  23.301  16.811  13.014 -0.1029  0.0441 -0.1243
 3234DOPC   C4B37956  22.982  16.943  13.317 -0.2899 -0.0395  0.5023
 3235DOPC   NC337957  28.203  14.671  12.812 -0.1153 -0.1009  0.1444
 3235DOPC   PO437958  28.165  14.328  12.675 -0.2619  0.2218  0.2165
 3235DOPC   GL137959  27.772  14.344  12.799  0.4035 -0.2923 -0.1514
 3235DOPC   GL237960  27.852  14.383  13.075  0.0366  0.1327  0.2082
 3235DOPC   C1A37961  27.351  14.525  12.860 -0.1970  0.0581 -0.1355
 3235DOPC   D2A37962  27.131  14.788  13.198  0.0205  0.1324  0.1173
 3235DOPC   C3A37963  26.794  14.556  13.404 -0.1541  0.0749  0.1817
 3235DOPC   C4A37964  26.318  14.506  13.497 -0.0509 -0.3937  0.1614
 3235DOPC   C1B37965  27.724  14.762  13.240 -0.0271 -0.2464  0.3573
 3235DOPC   D2B37966  27.478  15.187  13.154  0.0758 -0.0826 -0.1230
 3235DOPC   C3B37967  27.390  15.568  13.437 -0.5754 -0.1371 -0.1904
 3235DOPC   C4B37968  27.115  15.676  13.786 -0.2344 -0.2638 -0.1171
 3236POSM   NC337969  33.640  17.368  12.562 -0.4543  0.1581  0.2367
 3236POSM   PO437970  33.565  17.227  12.947 -0.2127 -0.2857 -0.2448
 3236POSM   AM137971  33.433  17.413  13.154 -0.1396  0.0270 -0.0106
 3236POSM   AM237972  33.388  17.680  13.262  0.2742 -0.0478 -0.1984
 3236POSM   T1A37973  33.214  17.360  13.585 -0.1139 -0.0198 -0.1196
 3236POSM   C2A37974  33.101  17.088  13.909 -0.0556  0.1843  0.0716
 3236POSM   C3A37975  32.817  16.733  13.907  0.0266 -0.2438 -0.0254
 3236POSM   C1B37976  33.468  17.863  13.495 -0.2032 -0.1874  0.2454
 3236POSM   D2B37977  33.704  18.009  13.858 -0.2030 -0.4515 -0.3430
 3236POSM   C3B37978  33.522  17.934  14.263 -0.0647 -0.0768  0.1949
 3236POSM   C4B37979  33.539  17.812  14.701  0.2143  0.1136 -0.0566
 3237POSM   NC337980  24.280  21.635  12.384 -0.1150  0.1600  0.0070
 3237POSM   PO437981  24.081  21.390  12.113  0.0208  0.0724  0.0136
 3237POSM   AM137982  24.220  21.165  12.349 -0.0402  0.1809  0.1121
 3237POSM   AM237983  24.436  21.155  12.575 -0.1570  0.1183  0.2162
 3237POSM   T1A37984  24.094  20.696  12.596 -0.1470  0.0274 -0.0516
 3237POSM   C2A37985  24.013  20.233  12.793 -0.1928 -0.4486 -0.0568
 3237POSM   C3A37986  24.017  20.020  13.200  0.0301  0.1425 -0.0666
 3237POSM   C1B37987  24.489  21.253  12.913 -0.1351  0.3484 -0.1431
 3237POSM   D2B37988  24.377  21.406  13.358 -0.4003 -0.2443 -0.0018
 3237POSM   C3B37989  24.808  21.432  13.569 -0.1818  0.0392  0.1126
 3237POSM   C4B37990  25.224  21.596  13.403 -0.2858 -0.0182 -0.1538
 3238DOPS   CNO37991  30.186  14.740  13.011 -0.1773  0.1741 -0.0968
 3238DOPS   PO437992  30.247  14.743  13.396 -0.0496  0.1745 -0.0187
 3238DOPS   GL137993  30.275  14.542  13.693 -0.3723 -0.1268 -0.0223
 3238DOPS   GL237994  30.347  14.240  13.662 -0.0041  0.0544 -0.1816
 3238DOPS   C1A37995  30.515  14.626  14.055  0.3087 -0.2072  0.0085
 3238DOPS   D2A37996  30.956  14.650  14.135 -0.2181  0.2486  0.0398
 3238DOPS   C3A37997  31.276  14.815  14.438  0.1665 -0.0692 -0.0697
 3238DOPS   C4A37998  31.246  14.801  14.926 -0.1071  0.0318  0.1708
 3238DOPS   C1B37999  30.748  14.123  13.843  0.0394  0.2107 -0.2211
 3238DOPS   D2B38000  30.938  13.767  14.105  0.0452  0.0403  0.0053
 3238DOPS   C3B38001  31.149  13.433  13.983 -0.0009 -0.2160  0.2029
 3238DOPS   C4B38002  31.096  12.974  14.025  0.1948 -0.0097 -0.0294
 3239POSM   NC338003  26.531  11.670  12.505 -0.1428  0.3341  0.0218
 3239POSM   PO438004  26.218  11.838  12.667 -0.1864  0.1760  0.1689
 3239POSM   AM138005  25.946  11.778  12.818 -0.0326  0.1014  0.0489
 3239POSM   AM238006  25.784  11.570  12.940  0.0663 -0.3004 -0.1014
 3239POSM   T1A38007  25.737  12.091  13.164  0.3530  0.2346 -0.2611
 3239POSM   C2A38008  25.459  12.264  13.542  0.0152  0.0949  0.1282
 3239POSM   C3A38009  25.444  12.495  13.923 -0.2159 -0.2546  0.3623
 3239POSM   C1B38010  25.901  11.609  13.234  0.1715  0.0144  0.1356
 3239POSM   D2B38011  26.036  11.907  13.573 -0.1329  0.1782  0.3228
 3239POSM   C3B38012  25.694  11.911  13.825  0.1328 -0.0891  0.0523
 3239POSM   C4B38013  25.286  12.030  14.013  0.3197  0.1803  0.1721
 3240DOPE   NH338014  29.876  21.467  12.603  0.0010  0.0525 -0.0772
 3240DOPE   PO438015  29.688  21.273  12.767  0.1150 -0.0852  0.1092
 3240DOPE   GL138016  29.435  20.959  12.969 -0.1267 -0.1016  0.2037
 3240DOPE   GL238017  29.229  20.869  12.799 -0.2894  0.0531 -0.0449
 3240DOPE   C1A38018  29.109  20.940  13.271  0.1873  0.0568 -0.0550
 3240DOPE   D2A38019  28.809  20.686  13.561  0.0150 -0.0969  0.1490
 3240DOPE   C3A38020  28.418  20.614  13.834 -0.0848 -0.2415 -0.0292
 3240DOPE   C4A38021  28.237  20.259  13.667  0.0344 -0.1420 -0.3732
 3240DOPE   C1B38022  28.786  20.840  12.939  0.1395 -0.0737  0.1037
 3240DOPE   D2B38023  28.375  20.812  13.201 -0.2717  0.2157  0.2819
 3240DOPE   C3B38024  28.039  20.707  13.475  0.2617 -0.0305 -0.1424
 3240DOPE   C4B38025  27.847  20.519  13.887  0.3870 -0.3385  0.1400
 3241DOPE   NH338026  26.328  12.210  12.268 -0.0305  0.1263 -0.1321
 3241DOPE   PO438027  26.303  12.265  11.948  0.1450  0.1937 -0.1096
 3241DOPE   GL138028  25.915  12.423  12.105 -0.5145 -0.4687  0.0643
 3241DOPE   GL238029  26.010  12.625  12.293 -0.0436  0.0770 -0.1076
 3241DOPE   C1A38030  25.569  12.743  11.940  0.0485 -0.2313  0.0939
 3241DOPE   D2A38031  25.126  12.748  11.847  0.0540 -0.1507 -0.1054
 3241DOPE   C3A38032  24.870  13.001  11.538 -0.0546  0.2520 -0.0205
 3241DOPE   C4A38033  24.669  13.393  11.577 -0.1852 -0.1671 -0.1963
 3241DOPE   C1B38034  25.841  12.961  12.574  0.2183 -0.1978 -0.1297
 3241DOPE   D2B38035  25.827  13.063  13.048 -0.0104 -0.0291 -0.4159
 3241DOPE   C3B38036  25.506  13.299  13.311  0.1664 -0.2356 -0.1464
 3241DOPE   C4B38037  25.373  13.442  13.732 -0.0470 -0.0409 -0.0281
 3242DOPE   NH338038  26.300  12.489  12.689  0.0343 -0.2007 -0.6408
 3242DOPE   PO438039  26.478  12.716  12.478  0.1659  0.4259 -0.1311
 3242DOPE   GL138040  26.523  12.996  12.739 -0.0163 -0.1087 -0.5447
 3242DOPE   GL238041  26.559  13.235  12.566 -0.1492  0.0990 -0.1050
 3242DOPE   C1A38042  26.213  13.282  12.929 -0.0204  0.3383  0.1896
 3242DOPE   D2A38043  25.990  13.689  12.984  0.0646  0.1626 -0.0473
 3242DOPE   C3A38044  26.352  13.911  13.009  0.1909  0.0501  0.2454
 3242DOPE   C4A38045  26.484  14.374  13.036 -0.0175  0.4826  0.2771
 3242DOPE   C1B38046  26.288  13.567  12.533  0.0065  0.0325 -0.1481
 3242DOPE   D2B38047  25.816  13.752  12.540  0.1245  0.1446 -0.0149
 3242DOPE   C3B38048  25.516  13.444  12.794 -0.2717 -0.0869  0.0364
 3242DOPE   C4B38049  25.168  13.289  12.983  0.0143  0.1808  0.2269
 3243DOPS   CNO38050  27.725  12.022  12.078  0.1590 -0.2024  0.1275
 3243DOPS   PO438051  27.842  12.374  12.200 -0.2687 -0.2690 -0.0369
 3243DOPS   GL138052  28.002  12.547  12.488 -0.0491  0.0878  0.1408
 3243DOPS   GL238053  28.028  12.303  12.662  0.1269  0.1812  0.3720
 3243DOPS   C1A38054  27.761  12.685  12.822 -0.1090 -0.2095  0.1604
 3243DOPS   D2A38055  27.482  12.494  13.106 -0.0090  0.1970 -0.3371
 3243DOPS   C3A38056  27.508  12.611  13.569 -0.2256  0.3480  0.0400
 3243DOPS   C4A38057  27.650  12.630  14.034 -0.1339  0.1167  0.1615
 3243DOPS   C1B38058  27.980  12.207  13.144 -0.1160 -0.0538  0.2506
 3243DOPS   D2B38059  27.968  12.266  13.584  0.0931  0.1608  0.3134
 3243DOPS   C3B38060  28.404  12.125  13.786 -0.3984 -0.0524  0.1326
 3243DOPS   C4B38061  28.640  11.963  14.190  0.1934  0.1629 -0.0619
 3244POSM   NC338062  29.752  14.008  13.509 -0.2390 -0.0155 -0.4333
 3244POSM   PO438063  29.917  14.316  13.354 -0.2718 -0.0309 -0.1534
 3244POSM   AM138064  29.882  14.481  13.648 -0.3018 -0.2113  0.0270
 3244POSM   AM238065  29.822  14.750  13.721 -0.3178  0.2733  0.3263
 3244POSM   T1A38066  29.941  14.420  14.111 -0.0688  0.2937  0.0905
 3244POSM   C2A38067  30.259  14.413  14.460 -0.3525  0.1655 -0.1124
 3244POSM   C3A38068  30.471  14.314  14.853 -0.1540  0.0966 -0.0147
 3244POSM   C1B38069  29.687  14.819  14.036  0.0982 -0.2139  0.2029
 3244POSM   D2B38070  29.687  15.233  14.364 -0.0345 -0.2095 -0.0436
 3244POSM   C3B38071  29.207  15.247  14.519  0.1559 -0.0743 -0.0142
 3244POSM   C4B38072  28.693  15.218  14.458  0.0472 -0.0557 -0.1393
 3245POSM   NC338073  34.015  17.067  12.832 -0.0721 -0.2052 -0.3283
 3245POSM   PO438074  34.068  16.762  12.583 -0.1462  0.2777 -0.2933
 3245POSM   AM138075  33.713  16.717  12.643 -0.3538 -0.0564  0.2606
 3245POSM   AM238076  33.468  16.787  12.755  0.0866 -0.1692 -0.2330
 3245POSM   T1A38077  33.349  16.489  12.351  0.2387  0.1425 -0.0151
 3245POSM   C2A38078  32.957  16.671  12.282  0.3526  0.1093  0.2438
 3245POSM   C3A38079  32.476  16.685  12.401 -0.0224 -0.0074  0.1653
 3245POSM   C1B38080  33.177  16.654  12.840 -0.0945  0.0968 -0.1940
 3245POSM   D2B38081  32.749  16.615  12.997 -0.0325  0.0747  0.0174
 3245POSM   C3B38082  32.566  17.081  13.079 -0.2530 -0.1572  0.0435
 3245POSM   C4B38083  32.381  17.428  12.759 -0.1264  0.2633 -0.2552
 3246DOPE   NH338084  30.705  14.612  13.592 -0.0436 -0.3260 -0.2001
 3246DOPE   PO438085  30.795  14.780  13.351  0.1002  0.2333  0.0789
 3246DOPE   GL138086  31.159  14.812  13.509  0.2858  0.5490 -0.3919
 3246DOPE   GL238087  31.318  15.122  13.498  0.1838  0.0238 -0.1873
 3246DOPE   C1A38088  31.397  14.820  13.910  0.2460 -0.0056 -0.0942
 3246DOPE   D2A38089  31.689  14.608  14.291  0.2840 -0.0388 -0.2105
 3246DOPE   C3A38090  31.714  14.857  14.712 -0.2576 -0.1116  0.1835
 3246DOPE   C4A38091  31.687  14.776  15.184  0.0696  0.1164  0.1901
 3246DOPE   C1B38092  31.584  14.769  13.417 -0.0239 -0.1452  0.0598
 3246DOPE   D2B38093  31.803  14.451  13.686  0.1177  0.0022  0.0464
 3246DOPE   C3B38094  32.135  14.442  14.036 -0.2880 -0.1673  0.2630
 3246DOPE   C4B38095  32.366  14.192  14.325  0.2531  0.1024  0.0543
 3247DOPS   CNO38096  24.544  21.470  11.677 -0.0575  0.3127 -0.1484
 3247DOPS   PO438097  24.494  21.747  11.965 -0.0486  0.1821  0.1315
 3247DOPS   GL138098  24.748  21.935  12.082  0.3117 -0.0253  0.2205
 3247DOPS   GL238099  24.705  21.979  12.358  0.3104 -0.1239  0.4479
 3247DOPS   C1A38100  24.798  22.401  12.217  0.0961 -0.1180 -0.1320
 3247DOPS   D2A38101  24.762  22.720  12.527  0.2567 -0.1242  0.0759
 3247DOPS   C3A38102  24.417  22.816  12.912 -0.2708 -0.1019 -0.1459
 3247DOPS   C4A38103  24.200  22.800  13.348  0.1138  0.1625  0.0133
 3247DOPS   C1B38104  24.646  22.283  12.652  0.0162 -0.0429 -0.0315
 3247DOPS   D2B38105  24.807  22.493  13.003 -0.1120  0.2266  0.0393
 3247DOPS   C3B38106  24.670  22.599  13.413 -0.3935  0.2013 -0.0742
 3247DOPS   C4B38107  24.625  22.931  13.734 -0.0059 -0.2150 -0.2009
 3248DOPE   NH338108  29.536  19.857  13.362 -0.0687 -0.0526 -0.1807
 3248DOPE   PO438109  29.834  19.774  13.441  0.0620  0.1737  0.3969
 3248DOPE   GL138110  30.184  19.932  13.595  0.0595 -0.0807 -0.2755
 3248DOPE   GL238111  30.325  19.688  13.599 -0.2017  0.0736 -0.2985
 3248DOPE   C1A38112  30.415  20.080  13.959 -0.5071 -0.0790 -0.0489
 3248DOPE   D2A38113  30.205  20.298  14.322 -0.1357  0.1788 -0.0078
 3248DOPE   C3A38114  29.987  20.640  14.216  0.2258  0.0073  0.0971
 3248DOPE   C4A38115  29.674  20.622  13.905  0.2313  0.2427  0.0110
 3248DOPE   C1B38116  30.055  19.587  13.974 -0.3678  0.0609 -0.0184
 3248DOPE   D2B38117  29.722  19.282  14.176  0.2693  0.1643  0.0561
 3248DOPE   C3B38118  29.759  19.295  14.670 -0.0005 -0.2590 -0.0648
 3248DOPE   C4B38119  29.974  19.025  14.986  0.2663 -0.0330 -0.1956
 3249POSM   NC338120  22.939  13.993  11.535  0.2368  0.1664  0.1116
 3249POSM   PO438121  23.041  13.806  11.873 -0.0916  0.1884 -0.0627
 3249POSM   AM138122  23.126  13.563  12.115 -0.1993 -0.1658  0.0290
 3249POSM   AM238123  22.999  13.478  12.346 -0.2665  0.2908 -0.0570
 3249POSM   T1A38124  23.500  13.316  12.321 -0.2121 -0.0991  0.2974
 3249POSM   C2A38125  23.744  12.962  12.488  0.1164  0.0487  0.4613
 3249POSM   C3A38126  24.129  12.699  12.504  0.3407 -0.0785  0.2256
 3249POSM   C1B38127  22.823  13.298  12.576  0.3416 -0.0090  0.2205
 3249POSM   D2B38128  22.681  13.217  13.018  0.3958 -0.0439 -0.1746
 3249POSM   C3B38129  22.262  12.995  13.094 -0.0132  0.0407 -0.1021
 3249POSM   C4B38130  21.865  13.210  13.147 -0.0205 -0.5555 -0.2434
 3250POSM   NC338131  23.783  22.267  11.745  0.2480  0.1360  0.2520
 3250POSM   PO438132  23.591  22.312  12.091 -0.2995  0.3382 -0.3884
 3250POSM   AM138133  23.904  22.313  12.251  0.2455 -0.1915  0.0386
 3250POSM   AM238134  24.156  22.250  12.155 -0.5234 -0.0501  0.3227
 3250POSM   T1A38135  24.162  22.103  12.620 -0.1395 -0.2486 -0.2960
 3250POSM   C2A38136  24.483  21.788  12.804  0.0087 -0.1551  0.1931
 3250POSM   C3A38137  24.837  21.807  13.142 -0.4604 -0.0231  0.0939
 3250POSM   C1B38138  24.244  22.593  12.168 -0.1440 -0.1400  0.0283
 3250POSM   D2B38139  24.447  22.997  12.169 -0.2481 -0.1092 -0.0649
 3250POSM   C3B38140  24.663  23.231  12.471  0.2332 -0.2036 -0.0003
 3250POSM   C4B38141  24.677  23.483  12.812 -0.2054 -0.0427 -0.1143
 3251DOPC   NC338142  27.019  18.971  12.550  0.0024 -0.0112 -0.3010
 3251DOPC   PO438143  27.098  18.877  12.915 -0.2359 -0.0822  0.0232
 3251DOPC   GL138144  27.127  18.907  13.288  0.4483  0.0999 -0.0276
 3251DOPC   GL238145  27.235  19.213  13.294  0.3771  0.0966  0.2421
 3251DOPC   C1A38146  26.944  19.031  13.660 -0.0507 -0.0778  0.1952
 3251DOPC   D2A38147  26.928  19.425  13.904 -0.2628  0.0029 -0.1008
 3251DOPC   C3A38148  26.801  19.902  13.986  0.2535 -0.1261 -0.1944
 3251DOPC   C4A38149  26.810  20.283  14.260 -0.0647  0.0805  0.2775
 3251DOPC   C1B38150  27.301  19.660  13.546  0.0403 -0.1661 -0.0236
 3251DOPC   D2B38151  27.220  20.108  13.765  0.0880  0.2056 -0.2164
 3251DOPC   C3B38152  27.095  20.541  13.651 -0.0651 -0.3806 -0.1277
 3251DOPC   C4B38153  27.226  20.918  13.916 -0.2690  0.0188 -0.3563
 3252POSM   NC338154  23.650  19.186  12.085  0.0364  0.0055 -0.3109
 3252POSM   PO438155  23.810  18.841  12.076 -0.1978 -0.2350  0.1900
 3252POSM   AM138156  23.815  18.843  12.430  0.2461  0.1035 -0.0125
 3252POSM   AM238157  23.819  19.044  12.621 -0.0838 -0.0537  0.0448
 3252POSM   T1A38158  23.992  18.710  12.903  0.1617 -0.1071  0.1321
 3252POSM   C2A38159  24.132  18.470  13.293 -0.0384 -0.2331 -0.0283
 3252POSM   C3A38160  24.244  18.405  13.781  0.1035  0.0221  0.4202
 3252POSM   C1B38161  23.772  19.257  12.875  0.2343 -0.1227  0.3363
 3252POSM   D2B38162  23.753  19.564  13.123  0.4191  0.2042 -0.1506
 3252POSM   C3B38163  23.262  19.638  13.176 -0.1871  0.2031  0.2119
 3252POSM   C4B38164  23.021  19.936  12.973  0.0892 -0.0190  0.0991
 3253DOPE   NH338165  28.483  13.848  12.722  0.1250  0.1058  0.1054
 3253DOPE   PO438166  28.215  13.895  12.893 -0.1554 -0.0735  0.2835
 3253DOPE   GL138167  27.879  13.961  13.070  0.1645  0.3975  0.1148
 3253DOPE   GL238168  27.551  13.954  12.990  0.1518 -0.1063 -0.0858
 3253DOPE   C1A38169  27.718  13.959  13.528  0.3178  0.0002 -0.1941
 3253DOPE   D2A38170  27.548  13.968  13.990  0.0983 -0.4585 -0.2175
 3253DOPE   C3A38171  27.183  13.933  14.288 -0.4598 -0.0604  0.0533
 3253DOPE   C4A38172  26.863  14.000  14.624  0.2037  0.0602  0.1059
 3253DOPE   C1B38173  27.246  14.123  13.293 -0.0457  0.1474  0.3937
 3253DOPE   D2B38174  27.444  14.356  13.686  0.0214  0.0991  0.2287
 3253DOPE   C3B38175  27.425  14.788  13.737 -0.2829  0.0467  0.5470
 3253DOPE   C4B38176  27.239  15.217  13.749 -0.0117  0.0997  0.2125
 3254DOPS   CNO38177  26.475  17.155  12.523  0.1967  0.2686  0.1010
 3254DOPS   PO438178  26.168  17.129  12.767 -0.1360  0.1160 -0.0634
 3254DOPS   GL138179  26.229  17.008  13.153  0.0825 -0.0962  0.0475
 3254DOPS   GL238180  26.365  17.106  13.477  0.1637 -0.0441 -0.0920
 3254DOPS   C1A38181  26.112  16.621  13.344  0.2980 -0.1604 -0.0016
 3254DOPS   D2A38182  25.774  16.304  13.179 -0.2223 -0.0875 -0.1304
 3254DOPS   C3A38183  25.483  16.477  13.409  0.0353 -0.1765 -0.1572
 3254DOPS   C4A38184  25.153  16.469  13.745 -0.1271  0.0965 -0.3273
 3254DOPS   C1B38185  26.287  17.264  13.887 -0.2579 -0.0464 -0.1358
 3254DOPS   D2B38186  26.077  17.583  14.172 -0.0533  0.0558 -0.1345
 3254DOPS   C3B38187  25.849  17.475  14.575 -0.0777  0.0648 -0.2229
 3254DOPS   C4B38188  25.476  17.335  14.717 -0.0951 -0.1132 -0.0100
 3255DOPC   NC338189  26.178  18.274  12.533  0.1848  0.2810  0.0473
 3255DOPC   PO438190  25.816  18.488  12.622  0.1774  0.1496 -0.1917
 3255DOPC   GL138191  25.848  18.452  13.054 -0.1315 -0.1953  0.2536
 3255DOPC   GL238192  25.956  18.201  13.143 -0.2129  0.1184 -0.2657
 3255DOPC   C1A38193  26.093  18.620  13.366  0.0573  0.0864 -0.2652
 3255DOPC   D2A38194  26.068  18.927  13.694 -0.0477 -0.2766  0.0312
 3255DOPC   C3A38195  26.116  18.881  14.130 -0.5216 -0.0977 -0.0205
 3255DOPC   C4A38196  26.118  18.699  14.579 -0.0173  0.0195  0.2105
 3255DOPC   C1B38197  25.674  18.312  13.472 -0.1918 -0.2715  0.1906
 3255DOPC   D2B38198  25.476  18.592  13.755  0.3933  0.0851 -0.1104
 3255DOPC   C3B38199  25.698  18.531  14.174  0.0967  0.0563  0.1594
 3255DOPC   C4B38200  25.757  18.336  14.601  0.1657 -0.1154 -0.0979
 3256DOPC   NC338201  31.044  22.044  13.105  0.2013 -0.0183 -0.1293
 3256DOPC   PO438202  30.981  21.992  12.737  0.0385 -0.2599 -0.2111
 3256DOPC   GL138203  30.927  21.635  12.868 -0.1470  0.0253 -0.0037
 3256DOPC   GL238204  30.766  21.419  12.836  0.0855 -0.1449  0.1886
 3256DOPC   C1A38205  31.306  21.356  12.860  0.0530 -0.1322 -0.0050
 3256DOPC   D2A38206  31.763  21.258  12.988 -0.2118  0.1776  0.1708
 3256DOPC   C3A38207  31.792  20.880  13.317 -0.0396 -0.0024  0.4003
 3256DOPC   C4A38208  31.545  20.498  13.481  0.2046  0.1454  0.1369
 3256DOPC   C1B38209  31.015  20.974  12.756  0.0668  0.1421 -0.0597
 3256DOPC   D2B38210  31.448  20.895  12.597  0.0970  0.0585 -0.1820
 3256DOPC   C3B38211  31.693  20.641  12.922 -0.1786 -0.2614 -0.1205
 3256DOPC   C4B38212  32.124  20.488  13.075  0.2578 -0.2311  0.0056
 3257DOPC   NC338213  25.886  16.711  12.912  0.0442 -0.2379 -0.0192
 3257DOPC   PO438214  25.552  16.896  12.740  0.0973  0.0545  0.0746
 3257DOPC   GL138215  25.544  16.933  13.119  0.0364 -0.0186  0.1779
 3257DOPC   GL238216  25.257  16.919  13.148  0.2041  0.4065  0.0391
 3257DOPC   C1A38217  25.514  16.899  13.633  0.1668 -0.3589 -0.2242
 3257DOPC   D2A38218  25.542  16.569  13.976 -0.1538 -0.4502 -0.0408
 3257DOPC   C3A38219  25.935  16.274  13.940  0.0316  0.2074  0.1039
 3257DOPC   C4A38220  26.331  16.078  13.782 -0.2313 -0.0839  0.3253
 3257DOPC   C1B38221  25.073  17.112  13.541 -0.3455 -0.0641 -0.1350
 3257DOPC   D2B38222  25.195  17.004  13.990  0.1085 -0.0163 -0.0804
 3257DOPC   C3B38223  25.518  16.956  14.314  0.0553 -0.1728  0.2002
 3257DOPC   C4B38224  25.699  16.565  14.484  0.2363  0.1766  0.0947
 3258DOPS   CNO38225  29.338  19.451  12.681 -0.1329 -0.0113 -0.1414
 3258DOPS   PO438226  29.159  19.689  12.964 -0.1246  0.0808 -0.0203
 3258DOPS   GL138227  29.112  19.954  13.167 -0.1953 -0.1930  0.3287
 3258DOPS   GL238228  29.298  20.194  13.047 -0.2691 -0.3393  0.0955
 3258DOPS   C1A38229  28.899  20.099  13.542 -0.4901 -0.0884 -0.0553
 3258DOPS   D2A38230  28.850  20.330  13.888 -0.3944 -0.0765  0.1311
 3258DOPS   C3A38231  28.474  20.245  14.171 -0.1229 -0.2316  0.2071
 3258DOPS   C4A38232  28.060  20.024  14.106  0.4225  0.2298  0.1577
 3258DOPS   C1B38233  29.335  20.480  13.394 -0.5011  0.2061 -0.0189
 3258DOPS   D2B38234  29.293  20.797  13.707 -0.0240 -0.0855 -0.1207
 3258DOPS   C3B38235  28.927  20.832  14.034  0.1667  0.2607 -0.1812
 3258DOPS   C4B38236  28.658  20.683  14.348 -0.0245 -0.2631 -0.1698
 3259POSM   NC338237  25.164  11.463  12.163 -0.2350  0.0564 -0.0243
 3259POSM   PO438238  25.137  11.665  12.501 -0.2651 -0.0035 -0.4324
 3259POSM   AM138239  25.202  11.725  12.805  0.1018  0.1482  0.5077
 3259POSM   AM238240  25.040  11.871  12.973 -0.0782  0.1571  0.1573
 3259POSM   T1A38241  25.346  11.794  13.291  0.1538  0.0772 -0.0297
 3259POSM   C2A38242  25.283  11.482  13.695 -0.3058  0.2342  0.2509
 3259POSM   C3A38243  25.152  11.148  14.044  0.0347  0.2117  0.0858
 3259POSM   C1B38244  24.743  11.946  12.970  0.0676 -0.0468 -0.1147
 3259POSM   D2B38245  24.323  11.896  12.836  0.1995 -0.3715  0.1153
 3259POSM   C3B38246  24.060  12.041  13.142 -0.0858 -0.1690 -0.2015
 3259POSM   C4B38247  23.848  12.326  13.352  0.1208 -0.2887  0.1645
 3260POSM   NC338248  29.496  22.607  12.735 -0.1271 -0.1337  0.1681
 3260POSM   PO438249  29.186  22.306  12.741  0.0991 -0.0187  0.0030
 3260POSM   AM138250  29.010  22.141  12.966  0.4345  0.2249 -0.0069
 3260POSM   AM238251  29.077  22.037  13.231 -0.0678  0.3368 -0.3850
 3260POSM   T1A38252  28.640  21.759  13.107  0.0881  0.1799 -0.1112
 3260POSM   C2A38253  28.371  21.425  12.913 -0.1298  0.4883 -0.2641
 3260POSM   C3A38254  28.528  21.176  12.565 -0.1370 -0.1070 -0.2030
 3260POSM   C1B38255  29.280  22.185  13.505  0.0763  0.2697 -0.0970
 3260POSM   D2B38256  29.240  22.102  13.910  0.0747 -0.2391 -0.2288
 3260POSM   C3B38257  29.400  22.144  14.329  0.0404  0.0297  0.0177
 3260POSM   C4B38258  29.316  22.131  14.749  0.1680  0.4880 -0.1699
 3261DOPE   NH338259  23.749  18.369  12.181 -0.0501 -0.0981  0.0817
 3261DOPE   PO438260  23.745  18.144  12.389 -0.0529  0.1392  0.0722
 3261DOPE   GL138261  23.431  17.821  12.550  0.1947 -0.0737  0.5738
 3261DOPE   GL238262  23.618  17.781  12.785 -0.0078  0.0120 -0.1502
 3261DOPE   C1A38263  23.130  17.470  12.746 -0.1898 -0.0971 -0.2175
 3261DOPE   D2A38264  22.729  17.363  12.728  0.1113 -0.1029 -0.0997
 3261DOPE   C3A38265  22.493  17.193  13.029  0.1725  0.3842 -0.0075
 3261DOPE   C4A38266  22.308  16.843  13.184  0.2791 -0.1235 -0.2583
 3261DOPE   C1B38267  23.497  18.121  13.126  0.2757 -0.3921 -0.0669
 3261DOPE   D2B38268  23.377  18.278  13.587  0.2838  0.0212 -0.1203
 3261DOPE   C3B38269  23.227  18.717  13.543 -0.0845 -0.0256  0.2163
 3261DOPE   C4B38270  23.174  19.147  13.334 -0.3121  0.1238  0.2255
 3262DOPC   NC338271  28.710  10.906  12.674 -0.1581  0.1162 -0.4240
 3262DOPC   PO438272  28.474  10.954  12.357  0.0775 -0.0112 -0.3894
 3262DOPC   GL138273  28.269  11.048  12.718  0.3308 -0.0103  0.3321
 3262DOPC   GL238274  27.947  10.891  12.769 -0.1089  0.0418  0.0599
 3262DOPC   C1A38275  28.258  11.078  13.211 -0.0445 -0.2696  0.2583
 3262DOPC   D2A38276  28.021  11.234  13.625  0.1573  0.0265 -0.4644
 3262DOPC   C3A38277  27.978  11.019  13.999  0.0493 -0.0009 -0.0034
 3262DOPC   C4A38278  28.062  11.002  14.435  0.3509  0.2198 -0.1627
 3262DOPC   C1B38279  27.691  10.758  13.128  0.2664  0.1723 -0.0484
 3262DOPC   D2B38280  27.306  10.535  13.359 -0.0124  0.1575  0.1383
 3262DOPC   C3B38281  26.931  10.759  13.200 -0.1366 -0.1675 -0.0592
 3262DOPC   C4B38282  26.552  10.503  13.239 -0.0611 -0.0522 -0.0565
 3263POSM   NC338283  32.610  14.251  12.998  0.2753  0.1474  0.0690
 3263POSM   PO438284  32.956  14.326  12.818 -0.2385  0.0355 -0.1164
 3263POSM   AM138285  33.061  14.436  13.125  0.0617 -0.2512  0.3114
 3263POSM   AM238286  33.172  14.650  13.205  0.1166  0.0138 -0.1887
 3263POSM   T1A38287  33.260  14.357  13.576 -0.2587  0.2495 -0.0152
 3263POSM   C2A38288  33.134  14.455  13.987  0.0978  0.3551  0.0926
 3263POSM   C3A38289  32.825  14.389  14.301  0.0691  0.2569  0.2571
 3263POSM   C1B38290  33.381  14.779  13.436  0.0104  0.1622  0.1349
 3263POSM   D2B38291  33.815  14.888  13.583  0.2947  0.1264 -0.1862
 3263POSM   C3B38292  33.874  15.319  13.797 -0.1911  0.2544  0.0939
 3263POSM   C4B38293  33.605  15.675  13.912  0.2775  0.3789  0.0904
 3264POSM   NC338294  28.962  18.937  13.211 -0.2370  0.0400  0.4830
 3264POSM   PO438295  29.181  18.613  13.288  0.0878 -0.0204 -0.0618
 3264POSM   AM138296  29.018  18.649  13.572  0.1517 -0.0644 -0.0191
 3264POSM   AM238297  28.815  18.815  13.666 -0.3675  0.1099  0.1304
 3264POSM   T1A38298  28.944  18.537  14.071  0.0880 -0.2042 -0.1451
 3264POSM   C2A38299  28.991  18.131  14.276  0.2084 -0.0105  0.0847
 3264POSM   C3A38300  29.345  17.878  14.384 -0.0960 -0.0849 -0.0313
 3264POSM   C1B38301  28.763  19.081  13.886 -0.0413 -0.1969  0.5862
 3264POSM   D2B38302  28.743  19.409  14.203 -0.1429  0.3511 -0.0974
 3264POSM   C3B38303  28.508  19.167  14.516 -0.0861  0.2670 -0.0245
 3264POSM   C4B38304  28.267  18.764  14.680 -0.1207 -0.1768  0.1407
 3265DOPC   NC338305  25.560  31.831  16.167  0.0617  0.0655  0.2242
 3265DOPC   PO438306  25.721  32.180  16.325 -0.0443  0.0565  0.4646
 3265DOPC   GL138307  25.926  32.072  15.989 -0.5508 -0.1686  0.3360
 3265DOPC   GL238308  25.783  32.057  15.725 -0.2411 -0.2356 -0.3625
 3265DOPC   C1A38309  26.277  32.261  15.723  0.0922 -0.2035 -0.0252
 3265DOPC   D2A38310  26.333  32.459  15.288  0.1031 -0.0437  0.0559
 3265DOPC   C3A38311  26.114  32.445  14.899  0.1160  0.1374  0.1325
 3265DOPC   C4A38312  25.863  32.495  14.492  0.0509  0.1448  0.2141
 3265DOPC   C1B38313  25.792  32.143  15.331 -0.1324  0.0634  0.1329
 3265DOPC   D2B38314  26.023  31.982  14.954  0.3395  0.2744 -0.0129
 3265DOPC   C3B38315  25.763  32.051  14.605 -0.2749 -0.4937  0.3514
 3265DOPC   C4B38316  25.571  32.002  14.209  0.1955 -0.0906  0.0833
 3266DOPC   NC338317  31.770  26.560  15.858  0.3227  0.3113  0.1013
 3266DOPC   PO438318  32.059  26.334  16.006  0.4924 -0.1968  0.1430
 3266DOPC   GL138319  32.214  25.958  15.955  0.1229  0.2043  0.1165
 3266DOPC   GL238320  32.524  25.962  16.040  0.2622  0.3192  0.2336
 3266DOPC   C1A38321  32.376  26.040  15.510 -0.2025  0.1743 -0.0166
 3266DOPC   D2A38322  32.447  26.126  15.079 -0.2001  0.3615 -0.2422
 3266DOPC   C3A38323  32.505  26.469  14.826 -0.2236 -0.0594  0.1052
 3266DOPC   C4A38324  32.505  26.715  14.425  0.5340 -0.2499  0.1440
 3266DOPC   C1B38325  32.847  26.134  15.798  0.2498  0.0278  0.2192
 3266DOPC   D2B38326  33.247  26.275  15.646  0.0380 -0.1226  0.1904
 3266DOPC   C3B38327  33.462  26.068  15.276  0.0670  0.3677 -0.2010
 3266DOPC   C4B38328  33.787  26.043  14.962 -0.1364 -0.1896  0.0449
 3267DOPE   NH338329  32.581  33.162  15.787 -0.1397  0.2131 -0.1944
 3267DOPE   PO438330  32.364  32.990  15.653 -0.0169 -0.2102  0.0712
 3267DOPE   GL138331  32.399  32.846  15.350 -0.2831  0.0847  0.2258
 3267DOPE   GL238332  32.353  33.092  15.175 -0.0790  0.1662  0.0848
 3267DOPE   C1A38333  32.774  32.825  15.057 -0.0131 -0.0563 -0.0140
 3267DOPE   D2A38334  32.812  32.881  14.574 -0.1095 -0.2012  0.1164
 3267DOPE   C3A38335  32.901  32.882  14.121 -0.1346  0.0059  0.3052
 3267DOPE   C4A38336  33.166  33.044  13.735 -0.2753  0.3087  0.1616
 3267DOPE   C1B38337  32.302  33.165  14.716  0.2563  0.1216 -0.1291
 3267DOPE   D2B38338  32.545  33.278  14.333 -0.3977 -0.1028 -0.2565
 3267DOPE   C3B38339  32.495  33.033  13.934  0.1483 -0.3126 -0.1102
 3267DOPE   C4B38340  32.477  32.612  13.762 -0.1799 -0.0108 -0.0747
 3268DOPE   NH338341  24.732  32.656  16.668  0.1414 -0.0863  0.1388
 3268DOPE   PO438342  25.012  32.552  16.502  0.2154  0.2719 -0.0906
 3268DOPE   GL138343  24.898  32.464  16.081  0.3549  0.1939 -0.1333
 3268DOPE   GL238344  24.878  32.241  15.910  0.0810  0.0562 -0.0180
 3268DOPE   C1A38345  25.028  32.725  15.706  0.1152 -0.1450  0.2894
 3268DOPE   D2A38346  25.112  32.977  15.277 -0.1220  0.3296 -0.0545
 3268DOPE   C3A38347  24.783  33.016  14.984  0.4013 -0.1585 -0.1117
 3268DOPE   C4A38348  24.493  32.731  14.730 -0.0093 -0.1240 -0.0647
 3268DOPE   C1B38349  24.664  32.189  15.468  0.0585  0.1557 -0.2143
 3268DOPE   D2B38350  24.555  32.043  15.121  0.0395 -0.2588  0.0878
 3268DOPE   C3B38351  24.630  32.242  14.621  0.2607 -0.0907  0.1537
 3268DOPE   C4B38352  24.544  32.160  14.243  0.2451 -0.0284 -0.2202
 3269DOPC   NC338353  32.541  34.614  15.810 -0.0528 -0.3053  0.0152
 3269DOPC   PO438354  32.170  34.580  15.931  0.1190 -0.1872 -0.1942
 3269DOPC   GL138355  32.166  34.661  15.549  0.3526 -0.2691 -0.2428
 3269DOPC   GL238356  32.210  34.362  15.469  0.2263  0.1084  0.2357
 3269DOPC   C1A38357  32.508  34.800  15.273  0.1712  0.1305  0.1671
 3269DOPC   D2A38358  32.746  35.144  15.081  0.0835 -0.1784  0.1100
 3269DOPC   C3A38359  32.767  35.135  14.643 -0.2546 -0.1593  0.2350
 3269DOPC   C4A38360  32.508  35.157  14.258  0.0347  0.0797  0.0743
 3269DOPC   C1B38361  31.938  34.575  15.151 -0.0295  0.1071  0.0324
 3269DOPC   D2B38362  31.679  34.866  14.919  0.0236 -0.0285  0.3929
 3269DOPC   C3B38363  31.628  34.853  14.419  0.0649  0.0229 -0.2043
 3269DOPC   C4B38364  31.328  34.729  14.057  0.0689  0.0689  0.5115
 3270DOPC   NC338365  33.297  32.539  15.627 -0.1846  0.1292 -0.0984
 3270DOPC   PO438366  33.490  32.785  15.867  0.0180 -0.0867 -0.2697
 3270DOPC   GL138367  33.707  32.867  15.563 -0.1141  0.1406 -0.1902
 3270DOPC   GL238368  33.582  32.871  15.291  0.1617  0.0638  0.2740
 3270DOPC   C1A38369  34.107  32.756  15.306 -0.1192  0.0516  0.1035
 3270DOPC   D2A38370  34.379  32.617  14.991  0.1674  0.0396 -0.1891
 3270DOPC   C3A38371  34.355  32.912  14.673 -0.1482 -0.1435  0.1018
 3270DOPC   C4A38372  34.625  33.026  14.305 -0.3196 -0.3007  0.1482
 3270DOPC   C1B38373  33.834  32.853  14.891  0.0095  0.2519  0.0330
 3270DOPC   D2B38374  33.922  32.847  14.428 -0.1477 -0.1785  0.2635
 3270DOPC   C3B38375  33.843  32.723  13.963  0.0776  0.0313 -0.0588
 3270DOPC   C4B38376  33.971  32.513  13.597  0.0807  0.1656  0.1273
 3271POSM   NC338377  27.370  25.613  15.944  0.1103 -0.0752  0.1504
 3271POSM   PO438378  27.287  25.928  16.162 -0.2447 -0.0142  0.0479
 3271POSM   AM138379  27.160  26.043  15.895  0.1562 -0.1686 -0.1974
 3271POSM   AM238380  27.150  26.046  15.635  0.0231 -0.0712 -0.1178
 3271POSM   T1A38381  26.797  26.405  15.734 -0.1788 -0.0071 -0.0011
 3271POSM   C2A38382  26.309  26.478  15.618 -0.1291  0.1466 -0.0266
 3271POSM   C3A38383  26.002  26.795  15.431  0.1368  0.1479  0.1965
 3271POSM   C1B38384  27.056  25.901  15.332  0.2497  0.0509 -0.0067
 3271POSM   D2B38385  26.962  25.863  14.862 -0.0390 -0.0830 -0.0017
 3271POSM   C3B38386  27.177  25.407  14.836 -0.0375  0.0811  0.1185
 3271POSM   C4B38387  27.193  25.066  15.169  0.0628 -0.4407  0.1165
 3272DOPS   CNO38388  31.933  33.346  15.693  0.1567 -0.0743 -0.3700
 3272DOPS   PO438389  31.557  33.256  15.753  0.0403  0.2650  0.0301
 3272DOPS   GL138390  31.605  33.285  15.339  0.0837  0.0640 -0.2180
 3272DOPS   GL238391  31.475  33.069  15.208  0.0873  0.1549  0.2317
 3272DOPS   C1A38392  31.398  33.522  14.960 -0.0875 -0.2398 -0.0877
 3272DOPS   D2A38393  31.649  33.635  14.669 -0.0523 -0.1091 -0.0691
 3272DOPS   C3A38394  31.973  33.947  14.787  0.1728  0.1861 -0.1146
 3272DOPS   C4A38395  32.273  34.212  14.967  0.0222  0.0472 -0.1376
 3272DOPS   C1B38396  31.328  32.949  14.759  0.0930  0.0726  0.1532
 3272DOPS   D2B38397  31.115  32.863  14.374 -0.1829 -0.3627 -0.0788
 3272DOPS   C3B38398  31.199  32.457  14.131  0.1159 -0.0556  0.0926
 3272DOPS   C4B38399  31.345  32.018  14.169 -0.0886 -0.3643 -0.0890
 3273DOPC   NC338400  28.824  26.019  15.704 -0.3257  0.2505 -0.2489
 3273DOPC   PO438401  28.964  25.989  16.097 -0.1493 -0.1842  0.0436
 3273DOPC   GL138402  29.252  25.911  15.820  0.0606  0.0886 -0.1630
 3273DOPC   GL238403  29.211  25.567  15.844 -0.3100  0.1160 -0.1387
 3273DOPC   C1A38404  29.350  25.948  15.369 -0.2078  0.1031 -0.2422
 3273DOPC   D2A38405  29.384  25.675  14.994 -0.0145 -0.0139 -0.0557
 3273DOPC   C3A38406  29.121  25.864  14.735  0.0972 -0.2125  0.0977
 3273DOPC   C4A38407  29.102  26.149  14.357  0.0643  0.0028  0.0976
 3273DOPC   C1B38408  29.011  25.614  15.428  0.2519 -0.2167 -0.3374
 3273DOPC   D2B38409  28.859  25.902  15.126  0.0423 -0.2469  0.0778
 3273DOPC   C3B38410  28.411  25.752  15.251  0.1620 -0.0212  0.3535
 3273DOPC   C4B38411  28.000  25.627  15.116 -0.1417 -0.0981  0.0460
 3274DOPE   NH338412  26.597  28.706  16.248 -0.2380 -0.0940 -0.3600
 3274DOPE   PO438413  26.358  28.503  16.324 -0.4634  0.0821 -0.0551
 3274DOPE   GL138414  26.167  28.596  16.029 -0.4231 -0.0538  0.0055
 3274DOPE   GL238415  26.204  28.788  15.883  0.1065  0.2357  0.2187
 3274DOPE   C1A38416  25.957  28.345  15.643  0.2263  0.0116  0.3358
 3274DOPE   D2A38417  26.141  28.203  15.193  0.3549 -0.1475  0.3760
 3274DOPE   C3A38418  25.782  28.027  14.952 -0.1127  0.0626 -0.0439
 3274DOPE   C4A38419  25.639  28.024  14.519 -0.0666  0.4187  0.0272
 3274DOPE   C1B38420  26.259  28.647  15.469 -0.0446 -0.2877 -0.1347
 3274DOPE   D2B38421  26.586  28.672  15.160 -0.1616  0.0475  0.0686
 3274DOPE   C3B38422  26.413  28.603  14.755  0.0431 -0.0120  0.1379
 3274DOPE   C4B38423  26.384  28.528  14.291 -0.2472 -0.0396  0.5993
 3275POSM   NC338424  32.299  32.946  16.127 -0.1098  0.0155 -0.1419
 3275POSM   PO438425  32.061  32.662  15.988 -0.0764 -0.1431  0.2598
 3275POSM   AM138426  32.003  32.684  15.667 -0.1266 -0.1652 -0.1520
 3275POSM   AM238427  31.900  32.893  15.510  0.0616 -0.3523  0.2279
 3275POSM   T1A38428  32.069  32.342  15.276 -0.0002 -0.2029 -0.0615
 3275POSM   C2A38429  31.892  32.025  15.014 -0.0683 -0.0540  0.2383
 3275POSM   C3A38430  31.683  31.662  14.804 -0.0017 -0.1040  0.1651
 3275POSM   C1B38431  31.816  32.717  15.271  0.3667  0.1571  0.0547
 3275POSM   D2B38432  31.623  32.571  14.898  0.1592 -0.0224  0.1133
 3275POSM   C3B38433  31.615  32.738  14.469  0.0069 -0.4787 -0.0819
 3275POSM   C4B38434  31.674  32.899  14.040 -0.5665 -0.2808 -0.0973
 3276DOPS   CNO38435  29.301  34.041  15.853 -0.1820  0.1087  0.0292
 3276DOPS   PO438436  28.994  34.221  15.832 -0.3095  0.0564  0.2439
 3276DOPS   GL138437  29.047  34.494  15.548 -0.3193  0.0665  0.2768
 3276DOPS   GL238438  28.753  34.462  15.435 -0.3201 -0.0556  0.0195
 3276DOPS   C1A38439  29.161  34.665  15.124 -0.1046  0.3218 -0.0493
 3276DOPS   D2A38440  29.229  34.870  14.662 -0.0508 -0.2404 -0.2044
 3276DOPS   C3A38441  29.451  34.574  14.401 -0.2324 -0.0950 -0.2499
 3276DOPS   C4A38442  29.797  34.406  14.093 -0.0844 -0.2808 -0.0915
 3276DOPS   C1B38443  28.705  34.359  14.951  0.0962  0.1703 -0.1765
 3276DOPS   D2B38444  28.617  34.278  14.526 -0.2508  0.0447  0.3622
 3276DOPS   C3B38445  28.216  34.237  14.212 -0.2555 -0.3180  0.1965
 3276DOPS   C4B38446  27.906  34.326  13.888  0.4023 -0.1790 -0.1835
 3277DOPC   NC338447  33.578  25.726  15.853 -0.0936  0.0427  0.1443
 3277DOPC   PO438448  33.637  25.410  16.116  0.1279 -0.0026  0.0582
 3277DOPC   GL138449  33.649  25.243  15.762 -0.2294  0.0163 -0.1508
 3277DOPC   GL238450  33.427  25.286  15.568  0.1050  0.1222  0.2376
 3277DOPC   C1A38451  33.853  25.261  15.413 -0.0654 -0.0927 -0.1566
 3277DOPC   D2A38452  33.884  25.261  14.889 -0.5750 -0.0022 -0.3018
 3277DOPC   C3A38453  33.828  24.804  14.794  0.1078  0.0452 -0.3087
 3277DOPC   C4A38454  33.433  24.649  14.582  0.0193  0.1743 -0.2354
 3277DOPC   C1B38455  33.114  25.302  15.235 -0.1244 -0.0532 -0.0135
 3277DOPC   D2B38456  32.896  25.324  14.842 -0.0291 -0.1319 -0.1804
 3277DOPC   C3B38457  33.126  25.400  14.440  0.4849  0.2344  0.2854
 3277DOPC   C4B38458  33.128  25.509  13.992  0.1242  0.1010 -0.1288
 3278DOPE   NH338459  29.806  28.330  15.998  0.3090 -0.2157  0.1528
 3278DOPE   PO438460  29.636  28.056  15.978 -0.1730 -0.1698  0.0368
 3278DOPE   GL138461  29.622  27.769  15.676 -0.1500  0.1944  0.2094
 3278DOPE   GL238462  29.285  27.910  15.621 -0.0613 -0.0373 -0.0414
 3278DOPE   C1A38463  29.749  27.309  15.627 -0.0640  0.1302 -0.1958
 3278DOPE   D2A38464  29.706  27.039  15.259 -0.3211  0.5366  0.1269
 3278DOPE   C3A38465  29.566  27.268  14.916 -0.1497  0.1226  0.0132
 3278DOPE   C4A38466  29.393  27.333  14.499  0.1766 -0.2518  0.0028
 3278DOPE   C1B38467  29.265  28.126  15.254  0.2373 -0.0152 -0.2766
 3278DOPE   D2B38468  29.324  28.029  14.811  0.3733 -0.2912  0.4947
 3278DOPE   C3B38469  29.413  28.207  14.419  0.3626  0.1713  0.0600
 3278DOPE   C4B38470  29.760  28.520  14.268  0.1372 -0.4772  0.0306
 3279DOPE   NH338471  28.988  27.959  16.057  0.1929 -0.0262 -0.2612
 3279DOPE   PO438472  28.686  28.027  15.894 -0.2937  0.4719  0.0456
 3279DOPE   GL138473  28.440  28.272  15.713 -0.0558  0.1132 -0.0638
 3279DOPE   GL238474  28.231  28.064  15.568  0.2186  0.2004  0.0061
 3279DOPE   C1A38475  28.494  28.404  15.267 -0.0856 -0.0671 -0.1143
 3279DOPE   D2A38476  28.416  28.275  14.763 -0.1305  0.1699  0.0803
 3279DOPE   C3A38477  28.471  27.826  14.657 -0.1219  0.2931 -0.1093
 3279DOPE   C4A38478  28.572  27.394  14.554 -0.0487  0.2822  0.1000
 3279DOPE   C1B38479  28.174  28.024  15.119 -0.0142  0.3755  0.2453
 3279DOPE   D2B38480  27.983  28.120  14.698  0.0674  0.0233  0.2919
 3279DOPE   C3B38481  28.106  28.446  14.416 -0.0238 -0.0419 -0.0704
 3279DOPE   C4B38482  27.876  28.568  14.046 -0.0183 -0.1210 -0.0532
 3280DOPC   NC338483  31.068  33.938  15.958  0.4474 -0.3771 -0.0015
 3280DOPC   PO438484  31.206  34.284  16.037 -0.2129 -0.1524  0.0819
 3280DOPC   GL138485  31.395  34.199  15.686 -0.3121 -0.1485  0.1909
 3280DOPC   GL238486  31.588  34.247  15.501 -0.2263  0.1419 -0.0668
 3280DOPC   C1A38487  31.110  33.959  15.351 -0.5529 -0.2098 -0.0464
 3280DOPC   D2A38488  30.936  33.727  14.966  0.0289  0.1142  0.0784
 3280DOPC   C3A38489  30.461  33.887  14.797 -0.0055 -0.2928 -0.2778
 3280DOPC   C4A38490  30.043  33.979  14.550  0.1594 -0.0198 -0.3042
 3280DOPC   C1B38491  31.404  34.417  15.118 -0.4348  0.1911 -0.3724
 3280DOPC   D2B38492  31.196  34.851  15.092 -0.2596 -0.2005 -0.0159
 3280DOPC   C3B38493  31.328  35.136  14.743  0.1840  0.2374  0.1935
 3280DOPC   C4B38494  31.507  35.378  14.389 -0.2620  0.1172 -0.2727
 3281POSM   NC338495  32.623  30.438  16.256  0.2070  0.2016 -0.0259
 3281POSM   PO438496  32.751  30.054  16.260  0.0741 -0.1646  0.2076
 3281POSM   AM138497  32.621  29.946  15.941 -0.1154  0.0144  0.2984
 3281POSM   AM238498  32.663  29.810  15.668  0.1676 -0.0471 -0.2390
 3281POSM   T1A38499  32.220  30.059  15.661 -0.0881 -0.1214  0.2348
 3281POSM   C2A38500  31.977  30.426  15.634  0.1035 -0.2893 -0.2506
 3281POSM   C3A38501  31.927  30.873  15.728 -0.0678  0.0924  0.3667
 3281POSM   C1B38502  32.700  30.077  15.472 -0.1222  0.0034  0.1066
 3281POSM   D2B38503  32.714  30.223  15.071 -0.3191  0.4100  0.0952
 3281POSM   C3B38504  32.951  30.614  14.982  0.1302  0.1512 -0.1148
 3281POSM   C4B38505  33.269  30.921  14.853  0.2709 -0.0367  0.2127
 3282DOPE   NH338506  24.382  32.435  16.024 -0.0823  0.2920  0.1605
 3282DOPE   PO438507  24.059  32.512  15.978  0.1966  0.0438  0.1169
 3282DOPE   GL138508  24.122  32.505  15.621  0.2916  0.3184 -0.0581
 3282DOPE   GL238509  23.895  32.603  15.510  0.0352 -0.0479 -0.3446
 3282DOPE   C1A38510  24.468  32.615  15.330 -0.0132 -0.2887 -0.2930
 3282DOPE   D2A38511  24.900  32.534  15.169 -0.0683  0.0578 -0.1305
 3282DOPE   C3A38512  24.951  32.613  14.717 -0.0621  0.0959 -0.2023
 3282DOPE   C4A38513  24.830  32.620  14.214  0.0386  0.0535 -0.0121
 3282DOPE   C1B38514  23.670  32.983  15.329 -0.1859 -0.0893  0.0118
 3282DOPE   D2B38515  23.225  33.153  15.180  0.0034 -0.2022  0.0500
 3282DOPE   C3B38516  23.187  33.108  14.761 -0.1251 -0.0697  0.0453
 3282DOPE   C4B38517  23.257  32.945  14.326  0.0414  0.0947 -0.4929
 3283DOPS   CNO38518  27.699  24.917  16.521  0.0261 -0.0158 -0.1198
 3283DOPS   PO438519  27.684  24.562  16.464 -0.4330  0.2272  0.4697
 3283DOPS   GL138520  27.863  24.642  16.075  0.3464 -0.0452 -0.2893
 3283DOPS   GL238521  28.093  24.778  16.076  0.1846 -0.1070 -0.0875
 3283DOPS   C1A38522  27.689  24.472  15.689  0.3585 -0.0269 -0.0229
 3283DOPS   D2A38523  27.860  24.356  15.326 -0.1355  0.3090 -0.0226
 3283DOPS   C3A38524  27.523  24.248  14.992  0.3603  0.1736 -0.1054
 3283DOPS   C4A38525  27.518  23.998  14.524  0.0596 -0.0064  0.0132
 3283DOPS   C1B38526  27.926  24.954  15.737  0.3766 -0.0928 -0.0825
 3283DOPS   D2B38527  27.676  25.180  15.387 -0.4225 -0.0673  0.0693
 3283DOPS   C3B38528  27.800  25.171  14.916  0.0673  0.0859 -0.2169
 3283DOPS   C4B38529  27.574  25.267  14.529  0.1573  0.0100  0.0613
 3284POSM   NC338530  30.257  32.393  16.205 -0.0911  0.1157  0.0304
 3284POSM   PO438531  30.321  32.000  16.184 -0.0828 -0.0229 -0.0555
 3284POSM   AM138532  30.396  31.776  15.981 -0.1041 -0.4406  0.1740
 3284POSM   AM238533  30.656  31.730  15.897  0.1162 -0.3758  0.1884
 3284POSM   T1A38534  30.362  31.318  15.799 -0.3479  0.0806 -0.1453
 3284POSM   C2A38535  30.407  30.827  15.843 -0.0037 -0.0277 -0.0577
 3284POSM   C3A38536  30.124  30.474  15.938 -0.3162 -0.0350  0.2328
 3284POSM   C1B38537  30.695  31.692  15.557  0.0631 -0.0902  0.1927
 3284POSM   D2B38538  30.830  31.594  15.119  0.0493  0.0714 -0.2843
 3284POSM   C3B38539  30.631  31.196  14.935  0.2099 -0.0351  0.1945
 3284POSM   C4B38540  30.372  30.972  14.604  0.0049  0.1173 -0.2323
 3285POSM   NC338541  28.417  31.657  16.714  0.0197 -0.3532 -0.1117
 3285POSM   PO438542  28.120  31.552  16.506 -0.0769  0.1191  0.0939
 3285POSM   AM138543  28.175  31.485  16.188 -0.0769  0.0292 -0.0905
 3285POSM   AM238544  28.358  31.652  16.041  0.0178 -0.0136  0.3117
 3285POSM   T1A38545  28.114  31.078  15.845 -0.0785  0.1156 -0.0772
 3285POSM   C2A38546  28.368  31.010  15.420  0.1024  0.3367 -0.1373
 3285POSM   C3A38547  28.338  31.032  14.998  0.1600  0.6324 -0.0806
 3285POSM   C1B38548  28.643  31.437  15.831 -0.0011  0.0320 -0.1465
 3285POSM   D2B38549  28.807  31.329  15.438  0.1725  0.2360 -0.0261
 3285POSM   C3B38550  28.693  31.507  15.033 -0.0085  0.2206  0.0823
 3285POSM   C4B38551  28.804  31.486  14.573  0.2519 -0.0342 -0.0039
 3286DOPC   NC338552  25.950  22.730  15.938  0.0933  0.1790 -0.1392
 3286DOPC   PO438553  25.818  22.874  16.260 -0.2445  0.0840  0.1062
 3286DOPC   GL138554  25.651  23.109  15.968 -0.4414  0.1257 -0.2769
 3286DOPC   GL238555  25.866  23.320  15.946  0.2096 -0.1819 -0.4586
 3286DOPC   C1A38556  25.259  23.246  15.796  0.1689 -0.2918  0.2754
 3286DOPC   D2A38557  25.123  23.528  15.376  0.2342 -0.0917 -0.0643
 3286DOPC   C3A38558  25.424  23.425  14.998 -0.2212 -0.1945  0.2749
 3286DOPC   C4A38559  25.717  23.227  14.626 -0.1686 -0.1252  0.2096
 3286DOPC   C1B38560  26.154  23.031  15.621  0.0622  0.0648  0.2310
 3286DOPC   D2B38561  26.290  22.902  15.208 -0.2479  0.0034  0.1806
 3286DOPC   C3B38562  26.238  22.809  14.764  0.0020 -0.0065 -0.1697
 3286DOPC   C4B38563  25.934  22.848  14.450 -0.2584  0.1401  0.2110
 3287DOPS   CNO38564  31.484  27.685  15.840 -0.0831  0.0001 -0.2088
 3287DOPS   PO438565  31.115  27.683  15.879 -0.0589 -0.0858  0.3254
 3287DOPS   GL138566  30.963  27.825  15.543 -0.3607 -0.0872 -0.0393
 3287DOPS   GL238567  30.912  28.108  15.583  0.1578  0.0489  0.0709
 3287DOPS   C1A38568  30.939  27.651  15.093 -0.0266 -0.0584  0.0125
 3287DOPS   D2A38569  30.887  27.269  14.885  0.3563 -0.0408 -0.1338
 3287DOPS   C3A38570  30.741  27.190  14.437 -0.2892  0.3082 -0.0734
 3287DOPS   C4A38571  30.299  27.273  14.245 -0.1961  0.0317 -0.0502
 3287DOPS   C1B38572  30.882  28.153  15.158 -0.2316  0.1747 -0.1301
 3287DOPS   D2B38573  31.163  28.194  14.787 -0.2649  0.1546  0.1736
 3287DOPS   C3B38574  31.083  28.480  14.450  0.1686  0.1385  0.0745
 3287DOPS   C4B38575  31.348  28.616  14.144 -0.2926 -0.0740  0.0465
 3288DOPE   NH338576  32.067  33.616  16.118 -0.1616 -0.0287  0.1252
 3288DOPE   PO438577  32.317  33.537  15.964  0.1357  0.3803  0.1788
 3288DOPE   GL138578  32.436  33.757  15.656  0.3169  0.4969 -0.4074
 3288DOPE   GL238579  32.335  33.524  15.458 -0.1027 -0.2005  0.3652
 3288DOPE   C1A38580  32.796  33.848  15.406 -0.0107  0.2282 -0.0846
 3288DOPE   D2A38581  33.128  34.003  15.118  0.0545  0.0534 -0.1155
 3288DOPE   C3A38582  33.079  34.438  15.097 -0.1594  0.2423  0.1689
 3288DOPE   C4A38583  33.160  34.818  14.798  0.4657  0.0197  0.0501
 3288DOPE   C1B38584  32.454  33.726  15.040 -0.0318 -0.1160 -0.1584
 3288DOPE   D2B38585  32.392  33.730  14.584  0.0319 -0.2036 -0.1829
 3288DOPE   C3B38586  32.052  33.472  14.457 -0.1141 -0.2513 -0.0761
 3288DOPE   C4B38587  32.042  33.219  14.070 -0.0620 -0.0338 -0.1859
 3289POSM   NC338588  33.019  29.101  16.095 -0.1700  0.1013  0.2677
 3289POSM   PO438589  33.170  28.733  16.128 -0.0266  0.1855 -0.0441
 3289POSM   AM138590  33.245  28.849  15.796 -0.1963 -0.0752 -0.0570
 3289POSM   AM238591  33.252  29.102  15.602  0.0069 -0.2443 -0.0559
 3289POSM   T1A38592  33.238  28.696  15.295 -0.0140  0.0377  0.4071
 3289POSM   C2A38593  33.324  28.284  15.078 -0.0327 -0.3308 -0.1316
 3289POSM   C3A38594  33.457  27.898  14.859  0.0443 -0.0238  0.3961
 3289POSM   C1B38595  33.141  29.335  15.346 -0.0919 -0.1714  0.1129
 3289POSM   D2B38596  33.059  29.749  15.198  0.1395  0.0175  0.2212
 3289POSM   C3B38597  33.145  30.185  14.919 -0.0744 -0.0308 -0.1268
 3289POSM   C4B38598  33.397  30.491  14.619 -0.1315  0.0192  0.0964
 3290POSM   NC338599  34.103  25.381  16.349  0.0933 -0.1130 -0.1415
 3290POSM   PO438600  34.138  25.128  16.047  0.3503 -0.0968 -0.2260
 3290POSM   AM138601  34.168  25.012  15.756  0.5124  0.2033 -0.1499
 3290POSM   AM238602  34.309  25.092  15.551 -0.0438  0.0651  0.0473
 3290POSM   T1A38603  34.037  24.758  15.305 -0.0704  0.3377 -0.2199
 3290POSM   C2A38604  34.111  24.429  14.926  0.1068  0.1470 -0.0847
 3290POSM   C3A38605  34.395  24.142  14.752  0.1865 -0.0244  0.0945
 3290POSM   C1B38606  34.300  25.228  15.230 -0.2044  0.0112  0.1014
 3290POSM   D2B38607  34.337  25.263  14.718  0.0448 -0.1282  0.1684
 3290POSM   C3B38608  34.116  24.915  14.414  0.1565  0.0231  0.2042
 3290POSM   C4B38609  34.093  24.452  14.417  0.0730 -0.1286 -0.0374
 3291DOPC   NC338610  25.106  31.132  16.249 -0.2995 -0.1589  0.0533
 3291DOPC   PO438611  25.443  31.348  16.314 -0.0959  0.0972 -0.3764
 3291DOPC   GL138612  25.418  31.285  15.941  0.2507 -0.2553  0.1431
 3291DOPC   GL238613  25.523  31.502  15.803 -0.1791 -0.1561  0.0665
 3291DOPC   C1A38614  25.058  31.146  15.707 -0.1925  0.1567 -0.2158
 3291DOPC   D2A38615  24.665  31.215  16.004  0.2003  0.2055 -0.0324
 3291DOPC   C3A38616  24.555  31.151  15.531  0.3216 -0.1226 -0.2817
 3291DOPC   C4A38617  24.142  30.967  15.321 -0.0678 -0.0640  0.3020
 3291DOPC   C1B38618  25.328  31.913  15.644 -0.4630 -0.0365 -0.3203
 3291DOPC   D2B38619  25.275  32.165  15.257  0.0650 -0.0051  0.3061
 3291DOPC   C3B38620  25.449  32.575  15.361  0.1092  0.1785 -0.1309
 3291DOPC   C4B38621  25.884  32.672  15.308  0.1494 -0.1171 -0.2835
 3292DOPC   NC338622  24.648  25.320  15.327  0.2554 -0.1053 -0.0393
 3292DOPC   PO438623  24.705  25.675  15.186  0.0601 -0.2747  0.2316
 3292DOPC   GL138624  24.575  25.507  14.767  0.0573 -0.2477 -0.3774
 3292DOPC   GL238625  24.602  25.258  14.786 -0.2066 -0.0948 -0.1157
 3292DOPC   C1A38626  24.268  25.565  14.408 -0.1390  0.3465 -0.0604
 3292DOPC   D2A38627  24.198  25.677  13.983 -0.1820 -0.1394  0.3220
 3292DOPC   C3A38628  24.373  26.018  13.705 -0.3257  0.2837  0.2445
 3292DOPC   C4A38629  24.193  26.372  13.492 -0.0467  0.1014  0.0434
 3292DOPC   C1B38630  24.799  25.186  14.408 -0.2266 -0.0994 -0.0095
 3292DOPC   D2B38631  24.781  25.072  13.963  0.2137  0.4102 -0.1319
 3292DOPC   C3B38632  24.652  24.824  13.612  0.1047 -0.0489  0.0562
 3292DOPC   C4B38633  24.633  24.709  13.094 -0.0349 -0.2356 -0.0169
 3293POSM   NC338634  29.774  24.213  16.536 -0.2440 -0.0912  0.0404
 3293POSM   PO438635  30.101  24.084  16.383 -0.0762  0.1079  0.4957
 3293POSM   AM138636  29.939  23.879  16.204 -0.2902  0.0088  0.0391
 3293POSM   AM238637  29.690  23.937  16.107 -0.0894  0.2257 -0.0473
 3293POSM   T1A38638  29.815  23.369  16.078  0.2016 -0.1967  0.0070
 3293POSM   C2A38639  29.715  22.930  15.823  0.0792  0.0241 -0.2364
 3293POSM   C3A38640  29.390  22.687  15.603  0.2389 -0.0767 -0.0055
 3293POSM   C1B38641  29.687  23.984  15.778 -0.0532  0.1840 -0.0454
 3293POSM   D2B38642  29.634  23.782  15.411  0.0813 -0.1273 -0.0241
 3293POSM   C3B38643  29.856  23.809  15.008  0.2122  0.0583  0.0042
 3293POSM   C4B38644  29.999  23.701  14.622  0.2139 -0.4152  0.6359
 3294POSM   NC338645   0.092  28.022  16.125 -0.1781 -0.5403  0.1738
 3294POSM   PO438646  -0.161  28.346  16.151  0.1954  0.3008  0.1473
 3294POSM   AM138647  -0.173  28.507  15.848 -0.1691 -0.1791 -0.3223
 3294POSM   AM238648  -0.210  28.766  15.746 -0.1100  0.1455  0.3715
 3294POSM   T1A38649  -0.238  28.246  15.402 -0.1665  0.0235  0.0372
 3294POSM   C2A38650  -0.386  27.821  15.393  0.0209  0.2117 -0.1122
 3294POSM   C3A38651  -0.690  27.490  15.514 -0.0268 -0.2609  0.0988
 3294POSM   C1B38652  -0.235  29.022  15.527  0.3926  0.2983 -0.0472
 3294POSM   D2B38653  -0.059  29.161  15.125  0.1810 -0.0508  0.1045
 3294POSM   C3B38654  -0.232  29.348  14.742 -0.3228 -0.2210  0.0515
 3294POSM   C4B38655  -0.280  29.337  14.267  0.0337  0.1384 -0.0407
 3295DOPE   NH338656  33.461  33.742  16.043  0.0756  0.0809  0.0789
 3295DOPE   PO438657  33.396  34.085  16.071  0.4448  0.0210 -0.0398
 3295DOPE   GL138658  33.279  34.208  15.736 -0.1212  0.3401  0.0180
 3295DOPE   GL238659  33.246  33.965  15.619 -0.2220 -0.0716  0.4678
 3295DOPE   C1A38660  33.516  34.299  15.324  0.1612  0.1202  0.0548
 3295DOPE   D2A38661  33.868  34.056  15.115  0.1076 -0.0561  0.0476
 3295DOPE   C3A38662  33.794  33.999  14.667  0.5048 -0.4214  0.0007
 3295DOPE   C4A38663  33.512  33.773  14.365 -0.1019 -0.1032 -0.0154
 3295DOPE   C1B38664  33.621  33.807  15.465 -0.1768  0.0749  0.2104
 3295DOPE   D2B38665  33.585  33.619  15.007 -0.0825 -0.0189 -0.0318
 3295DOPE   C3B38666  33.149  33.614  14.835  0.1028 -0.0380 -0.0219
 3295DOPE   C4B38667  32.933  33.816  14.475 -0.0328 -0.3863 -0.2862
 3296DOPC   NC338668  29.971  33.100  15.902 -0.1556 -0.2603  0.1841
 3296DOPC   PO438669  29.851  33.478  15.813  0.0980  0.2146  0.4889
 3296DOPC   GL138670  29.902  33.185  15.473 -0.2325  0.1038  0.2657
 3296DOPC   GL238671  29.860  33.390  15.285  0.0077  0.2507  0.2957
 3296DOPC   C1A38672  29.688  32.975  15.105  0.0712  0.1634  0.0906
 3296DOPC   D2A38673  29.641  32.932  14.632  0.1089  0.1171 -0.2933
 3296DOPC   C3A38674  29.832  32.998  14.205 -0.3140 -0.2734  0.0002
 3296DOPC   C4A38675  30.166  33.317  14.031 -0.1176 -0.2398 -0.3302
 3296DOPC   C1B38676  30.118  33.218  15.029 -0.2228 -0.0836  0.0903
 3296DOPC   D2B38677  30.471  32.948  15.044  0.3522 -0.2350  0.0516
 3296DOPC   C3B38678  30.665  32.853  14.682 -0.2631  0.0525  0.5665
 3296DOPC   C4B38679  30.680  32.657  14.271 -0.1471  0.2034  0.1078
 3297DOPE   NH338680  31.604  29.306  16.075  0.0115 -0.0257 -0.2171
 3297DOPE   PO438681  31.444  29.344  16.332  0.0921  0.0405  0.1301
 3297DOPE   GL138682  31.185  29.626  16.122  0.1027 -0.0489  0.1076
 3297DOPE   GL238683  31.428  29.825  16.036  0.1797  0.1829 -0.2925
 3297DOPE   C1A38684  30.878  29.827  15.887 -0.2417  0.1208 -0.0348
 3297DOPE   D2A38685  30.980  30.152  15.548  0.1905  0.0981 -0.1472
 3297DOPE   C3A38686  30.688  30.252  15.155 -0.0827  0.3351  0.0249
 3297DOPE   C4A38687  30.539  30.502  14.868 -0.0012 -0.0992  0.2837
 3297DOPE   C1B38688  31.296  29.579  15.663  0.2812 -0.4091  0.1710
 3297DOPE   D2B38689  31.138  29.152  15.524  0.0491  0.1421 -0.0220
 3297DOPE   C3B38690  30.835  29.137  15.216  0.0061  0.1256 -0.3168
 3297DOPE   C4B38691  30.617  29.276  14.869  0.1387 -0.0495  0.1680
 3298DOPE   NH338692  34.161  25.554  15.812  0.1046  0.0952  0.0156
 3298DOPE   PO438693  34.048  25.754  16.035 -0.1913 -0.1235 -0.1098
 3298DOPE   GL138694  33.941  25.997  15.679  0.2088  0.4685  0.4607
 3298DOPE   GL238695  33.848  26.230  15.624 -0.2367 -0.2040 -0.0888
 3298DOPE   C1A38696  33.790  25.714  15.379 -0.2093  0.0801 -0.1133
 3298DOPE   D2A38697  33.484  25.605  15.062  0.0109 -0.0597  0.1220
 3298DOPE   C3A38698  33.272  25.904  14.821  0.0111  0.2297 -0.1103
 3298DOPE   C4A38699  32.974  26.199  14.691  0.1725  0.0595  0.0428
 3298DOPE   C1B38700  33.718  26.517  15.262 -0.2636  0.1309 -0.0651
 3298DOPE   D2B38701  33.930  26.621  14.890 -0.1165  0.1596 -0.1392
 3298DOPE   C3B38702  34.015  26.759  14.460 -0.0979 -0.1955  0.0495
 3298DOPE   C4B38703  34.101  26.808  14.013  0.1244 -0.2708  0.3145
 3299DOPE   NH338704  30.121  26.768  16.421 -0.0644 -0.2385  0.2209
 3299DOPE   PO438705  30.444  26.690  16.278  0.2759  0.0275 -0.0921
 3299DOPE   GL138706  30.467  26.713  15.875  0.2835  0.2020 -0.1192
 3299DOPE   GL238707  30.608  26.819  15.708 -0.1639 -0.2410 -0.0614
 3299DOPE   C1A38708  30.370  26.423  15.484  0.0893  0.0165  0.2750
 3299DOPE   D2A38709  30.453  26.241  15.049  0.1239 -0.1027  0.1891
 3299DOPE   C3A38710  30.686  25.883  14.840  0.0027 -0.0572  0.1081
 3299DOPE   C4A38711  30.854  25.549  14.560 -0.0681 -0.3997  0.0423
 3299DOPE   C1B38712  30.611  26.962  15.214  0.0309  0.1783 -0.4499
 3299DOPE   D2B38713  30.445  26.923  14.761 -0.4473 -0.2677  0.2135
 3299DOPE   C3B38714  30.508  26.478  14.605  0.2213  0.1340  0.1245
 3299DOPE   C4B38715  30.294  26.077  14.535 -0.4841 -0.0227  0.0608
 3300DOPS   CNO38716  24.266  28.131  16.064 -0.2060  0.1511  0.2085
 3300DOPS   PO438717  24.417  28.150  15.725 -0.0824  0.1130 -0.1622
 3300DOPS   GL138718  24.422  28.384  15.402  0.5132 -0.1041  0.4539
 3300DOPS   GL238719  24.224  28.354  15.159 -0.1985 -0.0097 -0.3999
 3300DOPS   C1A38720  24.670  28.523  15.021  0.0810 -0.1524  0.1078
 3300DOPS   D2A38721  24.585  28.949  14.895  0.2220  0.0588 -0.2957
 3300DOPS   C3A38722  24.646  29.045  14.457 -0.0853 -0.1060  0.0566
 3300DOPS   C4A38723  24.759  29.083  14.061  0.0272  0.0537 -0.2116
 3300DOPS   C1B38724  24.053  28.287  14.728  0.1187 -0.3308  0.0777
 3300DOPS   D2B38725  23.779  28.505  14.352 -0.1026 -0.4240  0.1822
 3300DOPS   C3B38726  23.780  28.551  13.895 -0.3112 -0.2743 -0.0137
 3300DOPS   C4B38727  23.485  28.673  13.503 -0.1283 -0.0135 -0.0173
 3301DOPE   NH338728  29.420  30.134  16.555  0.0530 -0.0120  0.1763
 3301DOPE   PO438729  29.529  30.408  16.684  0.0530  0.0297  0.0831
 3301DOPE   GL138730  29.307  30.603  16.370 -0.0864  0.2841 -0.0286
 3301DOPE   GL238731  29.156  30.388  16.211  0.3414 -0.0341  0.0236
 3301DOPE   C1A38732  29.509  30.619  15.905 -0.1755  0.1928  0.0182
 3301DOPE   D2A38733  29.277  30.665  15.487  0.0532  0.2818 -0.0578
 3301DOPE   C3A38734  29.366  30.822  15.086  0.1792  0.1533 -0.1531
 3301DOPE   C4A38735  29.629  30.869  14.694  0.0434  0.2364  0.2992
 3301DOPE   C1B38736  29.314  30.208  15.782  0.1028 -0.1559 -0.1363
 3301DOPE   D2B38737  29.350  30.178  15.331  0.0342 -0.2245  0.1120
 3301DOPE   C3B38738  29.255  30.335  14.918  0.3148 -0.0624  0.0601
 3301DOPE   C4B38739  29.106  30.632  14.598 -0.2485 -0.5607 -0.1401
 3302DOPE   NH338740  26.966  29.367  16.085 -0.0946  0.3345 -0.0095
 3302DOPE   PO438741  26.626  29.242  16.061 -0.1823  0.0576  0.5184
 3302DOPE   GL138742  26.497  29.487  15.855  0.2746 -0.3366 -0.2436
 3302DOPE   GL238743  26.677  29.712  15.847  0.2032  0.1397  0.0124
 3302DOPE   C1A38744  26.391  29.615  15.391  0.0957 -0.0784  0.0980
 3302DOPE   D2A38745  26.598  29.411  15.037  0.2944  0.0123 -0.0262
 3302DOPE   C3A38746  26.711  29.115  14.658 -0.0051 -0.1875  0.0580
 3302DOPE   C4A38747  26.632  28.924  14.248  0.2260 -0.1821 -0.0610
 3302DOPE   C1B38748  26.694  29.972  15.410 -0.0461  0.0204 -0.3242
 3302DOPE   D2B38749  26.849  30.125  15.045  0.0781  0.1136 -0.0270
 3302DOPE   C3B38750  26.793  29.720  14.739  0.0338 -0.2290 -0.1549
 3302DOPE   C4B38751  27.041  29.504  14.381 -0.2780 -0.1508 -0.1229
 3303POSM   NC338752  26.516  22.867  16.655 -0.3023 -0.2137 -0.0730
 3303POSM   PO438753  26.900  22.949  16.602 -0.2949  0.0370 -0.1081
 3303POSM   AM138754  26.858  23.109  16.303  0.0349 -0.0745  0.2490
 3303POSM   AM238755  26.993  23.294  16.128 -0.0460 -0.2070  0.2302
 3303POSM   T1A38756  26.774  22.955  15.793 -0.1194 -0.0277 -0.0415
 3303POSM   C2A38757  26.744  22.673  15.408  0.0147 -0.1168  0.1369
 3303POSM   C3A38758  26.531  22.487  15.040  0.0763  0.0222 -0.0190
 3303POSM   C1B38759  27.117  23.391  15.819 -0.0469  0.1379  0.2269
 3303POSM   D2B38760  27.006  23.685  15.517 -0.1381  0.1047 -0.0866
 3303POSM   C3B38761  26.905  23.946  15.117  0.2108 -0.3831  0.2116
 3303POSM   C4B38762  27.072  24.209  14.767  0.0205  0.0504 -0.1714
 3304POSM   NC338763  27.771  26.558  15.952 -0.1586  0.2101  0.1567
 3304POSM   PO438764  28.049  26.293  15.898  0.2342  0.0330 -0.3146
 3304POSM   AM138765  28.134  26.524  15.619 -0.4810 -0.2022  0.0152
 3304POSM   AM238766  27.956  26.563  15.433  0.1298 -0.1449  0.0273
 3304POSM   T1A38767  28.370  26.755  15.224 -0.0674 -0.1970 -0.0174
 3304POSM   C2A38768  28.253  26.999  14.823 -0.2619 -0.1984 -0.0602
 3304POSM   C3A38769  28.350  26.916  14.371  0.2149 -0.0398  0.0651
 3304POSM   C1B38770  27.925  26.396  15.157 -0.2157 -0.2485  0.3916
 3304POSM   D2B38771  27.820  26.059  14.825  0.0125  0.0455 -0.1529
 3304POSM   C3B38772  27.885  25.652  14.596  0.0492  0.1207 -0.0874
 3304POSM   C4B38773  28.077  25.295  14.412  0.0945 -0.1057  0.2187
 3305DOPC   NC338774  28.669  29.321  16.756  0.2216  0.0083 -0.1223
 3305DOPC   PO438775  28.904  29.188  16.502  0.3409 -0.0210  0.0369
 3305DOPC   GL138776  28.980  29.144  16.111 -0.1415  0.1585 -0.2692
 3305DOPC   GL238777  28.736  29.142  16.027 -0.0453  0.0867  0.1423
 3305DOPC   C1A38778  29.035  29.013  15.642 -0.0320  0.0635  0.0123
 3305DOPC   D2A38779  29.057  29.002  15.199  0.4521 -0.1324 -0.0526
 3305DOPC   C3A38780  29.026  29.135  14.726  0.0037 -0.0525 -0.2342
 3305DOPC   C4A38781  29.141  29.480  14.426 -0.2547 -0.2692 -0.0369
 3305DOPC   C1B38782  28.819  29.447  15.688  0.0076  0.0160 -0.0400
 3305DOPC   D2B38783  29.095  29.510  15.301 -0.0204  0.0126  0.1270
 3305DOPC   C3B38784  29.149  29.825  14.936 -0.0547 -0.1081  0.0561
 3305DOPC   C4B38785  29.316  29.968  14.491  0.1046 -0.0326  0.0212
 3306DOPC   NC338786  26.873  32.612  15.888 -0.0090  0.0864  0.0445
 3306DOPC   PO438787  27.062  32.325  16.106  0.0525  0.2294 -0.3733
 3306DOPC   GL138788  27.123  32.097  15.806  0.2813 -0.0702 -0.5504
 3306DOPC   GL238789  27.293  32.321  15.619 -0.1849  0.0801  0.1900
 3306DOPC   C1A38790  27.327  31.669  15.880  0.1463 -0.0544 -0.0304
 3306DOPC   D2A38791  27.160  31.220  15.862  0.3073  0.1281 -0.1229
 3306DOPC   C3A38792  26.879  31.131  15.510 -0.1630 -0.1584  0.0926
 3306DOPC   C4A38793  26.848  31.104  15.029  0.3293 -0.1438 -0.2190
 3306DOPC   C1B38794  27.205  31.916  15.383 -0.0312  0.0025  0.0935
 3306DOPC   D2B38795  27.175  31.484  15.316 -0.0423 -0.1568 -0.0611
 3306DOPC   C3B38796  27.374  31.210  15.024  0.0942 -0.0181 -0.0906
 3306DOPC   C4B38797  27.445  30.854  14.748  0.1333 -0.1742 -0.1800
 3307POSM   NC338798  26.035  33.109  15.668 -0.1131  0.3489  0.0175
 3307POSM   PO438799  26.345  33.382  15.760  0.2476 -0.3012 -0.0264
 3307POSM   AM138800  26.358  33.332  15.426 -0.1408  0.0530  0.0696
 3307POSM   AM238801  26.619  33.309  15.268 -0.1544 -0.1969  0.0685
 3307POSM   T1A38802  26.220  33.002  15.112 -0.1497 -0.1466 -0.1410
 3307POSM   C2A38803  25.902  32.867  14.821  0.0993  0.1034  0.1840
 3307POSM   C3A38804  25.582  32.906  14.391 -0.2211  0.1835  0.1227
 3307POSM   C1B38805  26.694  33.205  14.956  0.0786 -0.1284 -0.1152
 3307POSM   D2B38806  26.819  33.175  14.515  0.2585  0.0215  0.3417
 3307POSM   C3B38807  26.798  32.793  14.277  0.1644  0.1130 -0.1718
 3307POSM   C4B38808  26.461  32.420  14.337  0.1097 -0.0287  0.0134
 3308DOPC   NC338809  32.278  25.230  16.452  0.0827  0.4622  0.0486
 3308DOPC   PO438810  32.493  25.550  16.466  0.2035  0.1021  0.0338
 3308DOPC   GL138811  32.306  25.504  16.051 -0.0533 -0.0499 -0.3647
 3308DOPC   GL238812  32.043  25.427  15.944 -0.2263 -0.2580  0.5251
 3308DOPC   C1A38813  32.448  25.240  15.665 -0.0069 -0.0133 -0.1051
 3308DOPC   D2A38814  32.070  24.998  15.533  0.1059 -0.0427  0.0870
 3308DOPC   C3A38815  32.042  25.204  15.125 -0.1206  0.1018  0.4567
 3308DOPC   C4A38816  31.808  25.252  14.713 -0.1132 -0.1828  0.1178
 3308DOPC   C1B38817  32.146  25.559  15.508  0.2425  0.0264 -0.0717
 3308DOPC   D2B38818  32.077  25.760  15.105  0.2202 -0.2352 -0.2460
 3308DOPC   C3B38819  32.209  25.537  14.762  0.0446 -0.0747  0.3765
 3308DOPC   C4B38820  32.304  25.113  14.638  0.0399  0.3737  0.1650
 3309POSM   NC338821  24.294  31.496  16.522  0.1826 -0.0635  0.0691
 3309POSM   PO438822  23.939  31.652  16.445  0.0046 -0.0866 -0.1323
 3309POSM   AM138823  23.843  31.523  16.168 -0.3339 -0.3982 -0.1996
 3309POSM   AM238824  23.777  31.625  15.918 -0.0652 -0.1012 -0.1171
 3309POSM   T1A38825  23.658  31.150  15.884  0.0501 -0.0931  0.0151
 3309POSM   C2A38826  23.769  30.752  15.628  0.0107  0.1129  0.2214
 3309POSM   C3A38827  23.770  30.463  15.243 -0.1278  0.1296 -0.1187
 3309POSM   C1B38828  23.777  31.614  15.618 -0.4765  0.1464 -0.2240
 3309POSM   D2B38829  23.865  31.505  15.193 -0.1864  0.1646  0.0261
 3309POSM   C3B38830  24.054  31.190  14.866  0.0360  0.1005  0.0589
 3309POSM   C4B38831  24.503  31.092  14.707  0.3304 -0.3756 -0.0855
 3310DOPC   NC338832  26.183  27.625  16.079  0.4298  0.2711 -0.0430
 3310DOPC   PO438833  26.342  27.940  16.177 -0.0957  0.3728  0.0421
 3310DOPC   GL138834  26.494  27.937  15.831  0.0335 -0.1905  0.0967
 3310DOPC   GL238835  26.249  27.868  15.658 -0.2836  0.0010  0.0335
 3310DOPC   C1A38836  26.565  28.199  15.428  0.1804  0.1407  0.3069
 3310DOPC   D2A38837  26.608  28.227  14.963 -0.1722  0.1723  0.2670
 3310DOPC   C3A38838  27.059  28.160  14.881  0.1699 -0.0360  0.1262
 3310DOPC   C4A38839  27.486  28.107  14.923  0.0180 -0.0349 -0.2218
 3310DOPC   C1B38840  26.003  27.715  15.280 -0.2541  0.0658 -0.0275
 3310DOPC   D2B38841  25.649  27.588  15.026 -0.3132  0.0821  0.1363
 3310DOPC   C3B38842  25.650  27.493  14.580  0.0578  0.2772  0.0281
 3310DOPC   C4B38843  25.725  27.256  14.197 -0.1191 -0.2004 -0.1300
 3311POSM   NC338844  24.987  34.330  15.742 -0.0795 -0.1170  0.2720
 3311POSM   PO438845  25.050  33.975  15.498 -0.1732 -0.0290 -0.1816
 3311POSM   AM138846  25.031  34.009  15.152  0.2029  0.1175 -0.1374
 3311POSM   AM238847  25.243  34.067  14.958 -0.2706 -0.1555  0.1138
 3311POSM   T1A38848  24.696  33.930  14.793  0.1250 -0.0548 -0.1247
 3311POSM   C2A38849  24.429  33.921  14.424 -0.0194  0.0857 -0.0285
 3311POSM   C3A38850  24.492  34.110  14.053  0.0518  0.0161 -0.6512
 3311POSM   C1B38851  25.195  34.031  14.630  0.1823 -0.1343  0.0936
 3311POSM   D2B38852  24.927  33.991  14.265  0.2144 -0.0474 -0.0937
 3311POSM   C3B38853  24.750  33.663  14.044 -0.2078 -0.1525 -0.1074
 3311POSM   C4B38854  24.807  33.223  14.001 -0.0244  0.0206 -0.2900
 3312DOPE   NH338855  26.655  30.006  16.247  0.0717 -0.0920  0.0126
 3312DOPE   PO438856  26.953  29.871  16.196 -0.2485 -0.1063 -0.0672
 3312DOPE   GL138857  26.988  30.023  15.765  0.0170  0.1207  0.1511
 3312DOPE   GL238858  26.863  30.175  15.823  0.3687  0.1358 -0.0609
 3312DOPE   C1A38859  27.226  30.265  15.448 -0.2012  0.1160  0.0729
 3312DOPE   D2A38860  27.447  30.188  15.017 -0.1410 -0.1305  0.0468
 3312DOPE   C3A38861  27.607  30.417  14.680 -0.0963  0.0415  0.1368
 3312DOPE   C4A38862  27.753  30.601  14.299 -0.1200  0.0782 -0.0112
 3312DOPE   C1B38863  26.783  30.496  15.515 -0.2000  0.1653 -0.0816
 3312DOPE   D2B38864  26.511  30.775  15.281 -0.1136 -0.0837 -0.4936
 3312DOPE   C3B38865  26.438  30.785  14.833  0.0670 -0.1165  0.0360
 3312DOPE   C4B38866  26.421  30.568  14.454  0.0979 -0.1342  0.2539
 3313DOPC   NC338867  33.745  24.881  16.063 -0.0958 -0.2092 -0.1294
 3313DOPC   PO438868  33.434  24.601  16.135 -0.0419 -0.0680  0.1215
 3313DOPC   GL138869  33.348  24.558  15.806 -0.3377 -0.1208  0.0171
 3313DOPC   GL238870  33.522  24.799  15.630  0.3350  0.3356 -0.3908
 3313DOPC   C1A38871  33.098  24.736  15.408 -0.2014 -0.0095  0.0846
 3313DOPC   D2A38872  33.010  24.812  14.963  0.0130  0.1036 -0.1595
 3313DOPC   C3A38873  32.800  24.875  14.535  0.0142  0.0121 -0.1263
 3313DOPC   C4A38874  32.611  25.182  14.271 -0.0781  0.2225  0.2297
 3313DOPC   C1B38875  33.551  24.918  15.174 -0.1308  0.0616 -0.1459
 3313DOPC   D2B38876  33.407  25.137  14.813 -0.0333 -0.1502  0.1642
 3313DOPC   C3B38877  33.591  25.482  14.572  0.4431 -0.1357  0.0800
 3313DOPC   C4B38878  33.556  25.778  14.209  0.0180  0.1199 -0.0067
 3314DOPC   NC338879  29.793  24.672  16.764  0.0541  0.0124  0.2973
 3314DOPC   PO438880  29.889  24.702  16.390  0.0856  0.0173  0.2287
 3314DOPC   GL138881  29.826  24.660  15.990  0.3968 -0.1725  0.2746
 3314DOPC   GL238882  29.912  24.352  15.989  0.0408 -0.0189  0.0943
 3314DOPC   C1A38883  30.056  24.636  15.622  0.0754 -0.0082  0.2250
 3314DOPC   D2A38884  30.214  24.818  15.188  0.2062 -0.0256  0.0740
 3314DOPC   C3A38885  30.022  24.690  14.822 -0.1107  0.2316  0.3944
 3314DOPC   C4A38886  29.766  24.272  14.737  0.0401  0.2052 -0.1384
 3314DOPC   C1B38887  30.171  24.044  15.782  0.2331  0.3175  0.0360
 3314DOPC   D2B38888  30.130  23.606  15.838 -0.3292  0.0781  0.0591
 3314DOPC   C3B38889  30.308  23.337  15.566 -0.1464  0.1845  0.1102
 3314DOPC   C4B38890  30.712  23.246  15.483  0.0038  0.0456  0.1919
 3315DOPC   NC338891  27.377  27.410  16.106 -0.0622 -0.1123 -0.2250
 3315DOPC   PO438892  27.456  27.816  16.169  0.1713  0.1004 -0.0964
 3315DOPC   GL138893  27.684  27.821  15.767 -0.3852  0.4192 -0.1722
 3315DOPC   GL238894  27.572  27.588  15.689  0.0321 -0.3310  0.2391
 3315DOPC   C1A38895  27.691  28.048  15.366 -0.1297 -0.0118 -0.2759
 3315DOPC   D2A38896  27.834  28.432  15.182 -0.0630  0.0872  0.0026
 3315DOPC   C3A38897  27.687  28.490  14.709 -0.0523  0.1522  0.1030
 3315DOPC   C4A38898  27.439  28.332  14.311 -0.1498 -0.0171 -0.2069
 3315DOPC   C1B38899  27.288  27.361  15.465 -0.0221  0.1146 -0.2572
 3315DOPC   D2B38900  26.865  27.299  15.268  0.1002 -0.0286  0.3613
 3315DOPC   C3B38901  26.616  27.655  15.124  0.2448  0.1380 -0.0055
 3315DOPC   C4B38902  26.284  27.777  14.874  0.1425 -0.0359 -0.2453
 3316DOPC   NC338903  33.170  31.938  15.854 -0.0921  0.2022 -0.4456
 3316DOPC   PO438904  32.850  32.127  15.768  0.0815  0.2008  0.0558
 3316DOPC   GL138905  32.922  31.947  15.439 -0.0139 -0.0801 -0.3432
 3316DOPC   GL238906  33.164  32.096  15.362 -0.0581 -0.1060 -0.0950
 3316DOPC   C1A38907  32.887  32.138  14.997  0.1500 -0.0273  0.2619
 3316DOPC   D2A38908  32.820  32.224  14.578 -0.0061 -0.2915  0.2531
 3316DOPC   C3A38909  32.513  32.493  14.457 -0.2161  0.2813  0.1541
 3316DOPC   C4A38910  32.247  32.899  14.339 -0.1752 -0.1989  0.0247
 3316DOPC   C1B38911  33.270  31.738  15.054  0.0347  0.2111  0.2097
 3316DOPC   D2B38912  33.104  31.316  15.128 -0.1486  0.1301 -0.0702
 3316DOPC   C3B38913  32.839  31.078  14.834  0.1078  0.1929  0.2462
 3316DOPC   C4B38914  32.713  30.776  14.519  0.1243 -0.2058  0.0273
 3317DOPS   CNO38915  29.800  28.491  16.500  0.0788  0.2831 -0.2199
 3317DOPS   PO438916  29.558  28.713  16.338  0.3766  0.1244 -0.0577
 3317DOPS   GL138917  29.407  28.852  15.967 -0.2247  0.1376  0.0671
 3317DOPS   GL238918  29.464  29.200  15.963  0.0196 -0.0433  0.3768
 3317DOPS   C1A38919  29.479  28.650  15.588  0.1728  0.0886 -0.1159
 3317DOPS   D2A38920  29.422  28.622  15.129 -0.2299 -0.1495  0.0990
 3317DOPS   C3A38921  29.573  28.749  14.787 -0.0610  0.0136 -0.1912
 3317DOPS   C4A38922  29.720  28.991  14.461  0.0398  0.1322  0.0687
 3317DOPS   C1B38923  29.484  29.146  15.491 -0.0554  0.2788 -0.3774
 3317DOPS   D2B38924  29.437  29.215  15.012 -0.1720 -0.1506  0.0666
 3317DOPS   C3B38925  29.583  29.436  14.654 -0.0896 -0.2770 -0.0064
 3317DOPS   C4B38926  30.013  29.398  14.510 -0.2717 -0.3176  0.2918
 3318DOPC   NC338927  29.943  27.583  16.020 -0.1037 -0.0540  0.2172
 3318DOPC   PO438928  30.142  27.868  16.113 -0.3825  0.0640  0.1189
 3318DOPC   GL138929  30.315  27.928  15.776 -0.1264  0.1278  0.1532
 3318DOPC   GL238930  30.033  28.024  15.573 -0.0142 -0.2950 -0.1594
 3318DOPC   C1A38931  30.546  27.745  15.434  0.1454  0.1198  0.2639
 3318DOPC   D2A38932  30.429  27.413  15.080 -0.0536  0.0768  0.0845
 3318DOPC   C3A38933  30.516  27.588  14.657  0.2196  0.0828  0.1010
 3318DOPC   C4A38934  30.546  27.764  14.235 -0.1103 -0.1377  0.2461
 3318DOPC   C1B38935  29.944  28.283  15.194 -0.2649  0.0307 -0.2683
 3318DOPC   D2B38936  29.819  28.327  14.735  0.0329 -0.1853 -0.0135
 3318DOPC   C3B38937  29.871  28.045  14.366  0.1259  0.1675  0.1459
 3318DOPC   C4B38938  30.088  27.835  14.016  0.1112  0.2150 -0.0926
 3319DOPS   CNO38939  30.993  31.725  16.305  0.0297 -0.0157 -0.0843
 3319DOPS   PO438940  31.194  31.662  16.020  0.0531  0.1300  0.0264
 3319DOPS   GL138941  31.247  31.386  15.727  0.1204 -0.1546  0.4120
 3319DOPS   GL238942  30.931  31.301  15.751 -0.2405  0.4166  0.3248
 3319DOPS   C1A38943  31.134  31.240  15.300  0.2113  0.1243  0.3091
 3319DOPS   D2A38944  31.145  31.311  14.836  0.4665  0.0861  0.0126
 3319DOPS   C3A38945  31.445  31.202  14.520  0.0451 -0.0301 -0.5610
 3319DOPS   C4A38946  31.430  30.942  14.063 -0.0266  0.1748  0.0118
 3319DOPS   C1B38947  30.641  31.122  15.447 -0.0093 -0.1953  0.3554
 3319DOPS   D2B38948  30.490  30.686  15.344 -0.0372 -0.0445  0.1983
 3319DOPS   C3B38949  30.128  30.683  14.991  0.1134 -0.1094 -0.2297
 3319DOPS   C4B38950  30.072  30.560  14.531  0.1661  0.0125  0.0108
 3320POSM   NC338951   0.369  23.990  16.215 -0.1785 -0.2955 -0.2107
 3320POSM   PO438952   0.673  24.167  16.408  0.0251  0.3110  0.3230
 3320POSM   AM138953   0.790  23.990  16.162 -0.1899  0.1592 -0.1526
 3320POSM   AM238954   0.782  23.703  16.121 -0.1166 -0.1996 -0.1168
 3320POSM   T1A38955   0.926  23.983  15.644 -0.1068 -0.0015  0.3376
 3320POSM   C2A38956   1.109  23.809  15.237  0.2786  0.1776  0.3316
 3320POSM   C3A38957   0.954  23.479  14.878 -0.1867 -0.0843 -0.0463
 3320POSM   C1B38958   0.704  23.475  15.880  0.2170 -0.2819  0.4342
 3320POSM   D2B38959   0.610  23.062  15.688 -0.0087  0.2227 -0.0224
 3320POSM   C3B38960   0.358  23.084  15.341  0.0405 -0.0733  0.2458
 3320POSM   C4B38961  -0.034  23.272  15.087 -0.0346 -0.0875  0.0829
 3321DOPS   CNO38962  28.272  27.736  16.475 -0.1075  0.1470  0.1644
 3321DOPS   PO438963  28.216  27.832  16.129 -0.0558  0.1544 -0.2352
 3321DOPS   GL138964  28.188  27.495  15.786  0.1451 -0.0602 -0.1427
 3321DOPS   GL238965  28.433  27.510  15.609  0.1585  0.2962 -0.1034
 3321DOPS   C1A38966  28.007  27.628  15.365 -0.2105 -0.2744  0.0438
 3321DOPS   D2A38967  27.613  27.634  15.155  0.0512  0.4194 -0.0754
 3321DOPS   C3A38968  27.551  27.676  14.684 -0.0549 -0.0215 -0.1366
 3321DOPS   C4A38969  27.674  27.901  14.328 -0.2538 -0.0850 -0.0525
 3321DOPS   C1B38970  28.469  27.588  15.121 -0.0098  0.0099  0.2929
 3321DOPS   D2B38971  28.099  27.456  14.903  0.1099  0.2161  0.3515
 3321DOPS   C3B38972  28.060  27.601  14.481 -0.0343 -0.0211  0.0158
 3321DOPS   C4B38973  28.228  27.949  14.260  0.0025 -0.2931  0.2304
 3322DOPS   CNO38974  24.236  25.985  15.903 -0.2163 -0.1769 -0.1206
 3322DOPS   PO438975  24.553  26.030  15.687 -0.2688 -0.1493  0.1605
 3322DOPS   GL138976  24.479  26.084  15.244 -0.5801 -0.2100  0.1968
 3322DOPS   GL238977  24.566  26.419  15.142  0.1348  0.1418 -0.0989
 3322DOPS   C1A38978  24.243  25.932  14.878  0.2592 -0.0479  0.1170
 3322DOPS   D2A38979  23.808  25.843  14.722 -0.0656 -0.2542 -0.0486
 3322DOPS   C3A38980  23.783  25.899  14.332 -0.0595  0.2289 -0.0845
 3322DOPS   C4A38981  23.485  25.606  14.139 -0.3971 -0.0502 -0.0597
 3322DOPS   C1B38982  24.525  26.405  14.698 -0.1035 -0.6205  0.0951
 3322DOPS   D2B38983  24.289  26.198  14.314  0.0079 -0.1588  0.2557
 3322DOPS   C3B38984  24.017  26.163  13.969 -0.1095 -0.0008  0.3056
 3322DOPS   C4B38985  23.628  26.038  13.829  0.1385  0.1513  0.0710
 3323DOPE   NH338986  26.272  27.185  16.539  0.0463 -0.1657 -0.1273
 3323DOPE   PO438987  26.364  27.223  16.251  0.0833  0.2081  0.1311
 3323DOPE   GL138988  26.474  27.237  15.877  0.2380  0.1303  0.0283
 3323DOPE   GL238989  26.643  27.473  15.861  0.1054  0.0290 -0.2005
 3323DOPE   C1A38990  26.561  26.941  15.573  0.3619 -0.2196 -0.0984
 3323DOPE   D2A38991  26.455  26.734  15.183 -0.0980 -0.1140  0.1592
 3323DOPE   C3A38992  26.119  26.410  15.106  0.0602 -0.1962  0.5541
 3323DOPE   C4A38993  25.695  26.496  14.994  0.1119 -0.3619 -0.1938
 3323DOPE   C1B38994  26.325  27.413  15.478 -0.1165 -0.1951 -0.0797
 3323DOPE   D2B38995  26.090  27.230  15.094  0.0753 -0.1614  0.1085
 3323DOPE   C3B38996  26.184  27.364  14.669  0.0492  0.1367 -0.2778
 3323DOPE   C4B38997  26.191  27.308  14.264  0.3170  0.0801  0.1611
 3324DOPE   NH338998  31.278  23.594  16.136 -0.0311 -0.1902 -0.0789
 3324DOPE   PO438999  31.583  23.666  16.159 -0.1864  0.0315 -0.4211
 3324DOPE   GL139000  31.506  23.832  15.813 -0.1778  0.1719 -0.0922
 3324DOPE   GL239001  31.723  24.143  15.814 -0.0745 -0.0686 -0.0831
 3324DOPE   C1A39002  31.673  23.988  15.358 -0.1906 -0.1502  0.1244
 3324DOPE   D2A39003  31.801  24.179  14.893  0.0007  0.1742  0.0775
 3324DOPE   C3A39004  32.150  24.139  14.617 -0.3715 -0.2719 -0.0550
 3324DOPE   C4A39005  32.596  24.154  14.405 -0.0618 -0.4560 -0.0042
 3324DOPE   C1B39006  32.160  24.105  15.649 -0.0116 -0.2369  0.0111
 3324DOPE   D2B39007  32.484  24.389  15.548  0.0151  0.1302  0.1268
 3324DOPE   C3B39008  32.508  24.778  15.225 -0.1722  0.3169  0.2427
 3324DOPE   C4B39009  32.529  25.229  15.139 -0.3566  0.2423 -0.2844
 3325DOPE   NH339010  30.314  33.414  15.601 -0.2464  0.1065 -0.0283
 3325DOPE   PO439011  30.537  33.265  15.732  0.0791 -0.1024 -0.1408
 3325DOPE   GL139012  30.722  33.152  15.354  0.0106 -0.0313  0.0145
 3325DOPE   GL239013  30.604  33.402  15.195 -0.0557 -0.0588 -0.0590
 3325DOPE   C1A39014  30.987  33.212  14.954  0.5014  0.0452 -0.0347
 3325DOPE   D2A39015  31.031  33.301  14.484 -0.0033 -0.1394 -0.2222
 3325DOPE   C3A39016  30.738  33.695  14.389  0.0162  0.0918 -0.0286
 3325DOPE   C4A39017  30.401  33.880  14.146  0.4014  0.1416 -0.3412
 3325DOPE   C1B39018  30.561  33.351  14.738  0.2672  0.1289  0.1407
 3325DOPE   D2B39019  30.568  33.166  14.329  0.1753  0.1807 -0.1687
 3325DOPE   C3B39020  30.560  33.076  13.888  0.1283 -0.0056  0.3926
 3325DOPE   C4B39021  30.373  33.078  13.506 -0.1582  0.0816  0.0777
 3326DOPC   NC339022  27.932  29.332  16.267  0.1844 -0.0518 -0.0793
 3326DOPC   PO439023  27.619  29.542  16.210 -0.1992  0.0924 -0.0101
 3326DOPC   GL139024  27.324  29.658  15.964 -0.0745  0.0233 -0.4869
 3326DOPC   GL239025  27.391  29.954  15.855  0.0942 -0.0843  0.1095
 3326DOPC   C1A39026  27.051  29.564  15.595  0.2024 -0.1326 -0.0414
 3326DOPC   D2A39027  27.090  29.605  15.084  0.0881  0.0466 -0.1635
 3326DOPC   C3A39028  27.152  29.233  14.874  0.3717  0.1232 -0.1494
 3326DOPC   C4A39029  27.136  29.002  14.464  0.2381  0.2592 -0.0943
 3326DOPC   C1B39030  27.466  29.819  15.418 -0.0819  0.0360  0.1242
 3326DOPC   D2B39031  27.895  29.781  15.132 -0.2133  0.2094 -0.1396
 3326DOPC   C3B39032  28.012  29.598  14.792  0.1443 -0.1969 -0.1597
 3326DOPC   C4B39033  28.297  29.365  14.474 -0.1069  0.1259 -0.2815
 3327DOPC   NC339034   0.402  27.622  16.381  0.2411 -0.1756 -0.1745
 3327DOPC   PO439035   0.395  27.236  16.308 -0.0157  0.3542  0.2453
 3327DOPC   GL139036   0.316  27.218  15.912  0.0066 -0.3482  0.0744
 3327DOPC   GL239037   0.550  27.024  15.817 -0.0112  0.3860  0.1187
 3327DOPC   C1A39038   0.013  27.274  15.559  0.1660 -0.0940  0.1385
 3327DOPC   D2A39039  -0.235  27.206  15.117  0.0513  0.2644  0.0779
 3327DOPC   C3A39040  -0.585  27.480  14.996  0.2181 -0.0458 -0.1326
 3327DOPC   C4A39041  -0.747  27.706  14.585 -0.2555  0.2640 -0.0062
 3327DOPC   C1B39042   0.551  27.102  15.397 -0.0043  0.0810  0.0127
 3327DOPC   D2B39043   0.720  26.753  15.098 -0.0972  0.3840 -0.2771
 3327DOPC   C3B39044   0.820  26.767  14.585  0.1496 -0.0286 -0.0490
 3327DOPC   C4B39045   1.150  26.843  14.228  0.0091  0.1127 -0.0768
 3328POSM   NC339046  27.059  28.061  16.345 -0.2588 -0.2079 -0.0624
 3328POSM   PO439047  26.805  28.185  16.070  0.1216 -0.2080 -0.3571
 3328POSM   AM139048  26.963  28.153  15.778  0.1852 -0.0499 -0.2413
 3328POSM   AM239049  27.246  28.087  15.714  0.1505 -0.2616  0.0926
 3328POSM   T1A39050  27.043  28.426  15.403  0.1509 -0.0001  0.0476
 3328POSM   C2A39051  27.342  28.553  15.108  0.3567 -0.1212 -0.0449
 3328POSM   C3A39052  27.484  28.910  14.956  0.5900 -0.1790 -0.0441
 3328POSM   C1B39053  27.196  27.890  15.397  0.2270 -0.0143 -0.3087
 3328POSM   D2B39054  27.139  27.704  14.963 -0.3323  0.0135 -0.3969
 3328POSM   C3B39055  27.086  27.657  14.478 -0.0304 -0.0884  0.1430
 3328POSM   C4B39056  26.914  27.304  14.243 -0.0137 -0.0212  0.0969
 3329POSM   NC339057  24.858  33.487  15.361 -0.1186  0.4395  0.2517
 3329POSM   PO439058  25.177  33.501  15.588  0.1981  0.0996  0.0724
 3329POSM   AM139059  25.370  33.504  15.317 -0.0898 -0.1351  0.0943
 3329POSM   AM239060  25.435  33.668  15.107  0.2443  0.0004 -0.1127
 3329POSM   T1A39061  25.438  33.153  14.956  0.1182  0.1377 -0.0062
 3329POSM   C2A39062  25.397  32.737  14.886 -0.1616 -0.3220  0.1926
 3329POSM   C3A39063  25.596  32.348  14.936  0.2023  0.2854  0.0852
 3329POSM   C1B39064  25.153  33.607  14.918  0.0894 -0.4330 -0.2791
 3329POSM   D2B39065  24.815  33.500  14.582 -0.3569 -0.4086 -0.4715
 3329POSM   C3B39066  25.022  33.080  14.456  0.0291 -0.1180 -0.1680
 3329POSM   C4B39067  25.236  32.864  14.069 -0.1204  0.1869 -0.0315
 3330DOPE   NH339068  25.891  25.716  16.051  0.1671 -0.1861  0.2943
 3330DOPE   PO439069  25.839  25.566  15.782  0.0695 -0.0686  0.0825
 3330DOPE   GL139070  25.836  25.688  15.449 -0.0981  0.0851 -0.1821
 3330DOPE   GL239071  25.792  25.903  15.335 -0.1038 -0.2658  0.0534
 3330DOPE   C1A39072  26.034  25.517  15.054 -0.0573 -0.0177 -0.0661
 3330DOPE   D2A39073  26.133  25.575  14.606 -0.1372  0.2351  0.1294
 3330DOPE   C3A39074  26.402  25.888  14.431 -0.0733 -0.1191  0.0571
 3330DOPE   C4A39075  26.807  26.003  14.307  0.2590 -0.2912  0.1595
 3330DOPE   C1B39076  25.921  25.968  14.897 -0.1398  0.0625  0.2280
 3330DOPE   D2B39077  26.083  26.261  14.566  0.1644 -0.2675  0.2922
 3330DOPE   C3B39078  26.187  26.195  14.097  0.1213  0.0118  0.0473
 3330DOPE   C4B39079  26.347  26.158  13.644 -0.0595 -0.2424 -0.5161
 3331DOPE   NH339080  24.486  26.533  15.933 -0.6548 -0.1033 -0.0096
 3331DOPE   PO439081  24.635  26.802  15.995  0.1349  0.0593  0.3261
 3331DOPE   GL139082  24.647  27.063  15.640 -0.2851  0.0469 -0.0055
 3331DOPE   GL239083  24.576  26.870  15.427  0.0027  0.1147  0.2626
 3331DOPE   C1A39084  25.000  27.064  15.331  0.1754 -0.2084  0.0334
 3331DOPE   D2A39085  25.259  26.994  14.910 -0.0183 -0.1349 -0.1992
 3331DOPE   C3A39086  25.770  27.028  14.791  0.1874  0.1344  0.1404
 3331DOPE   C4A39087  26.220  26.887  14.777 -0.0893 -0.3051 -0.0602
 3331DOPE   C1B39088  24.723  26.966  14.953  0.1098 -0.0146  0.1106
 3331DOPE   D2B39089  24.841  26.798  14.591 -0.0477 -0.2388  0.0488
 3331DOPE   C3B39090  24.929  27.204  14.495  0.1689 -0.2319 -0.2305
 3331DOPE   C4B39091  24.752  27.630  14.477  0.1569 -0.0429 -0.2129
 3332DOPE   NH339092  28.576  34.565  15.945  0.0139  0.1062  0.1257
 3332DOPE   PO439093  28.244  34.450  15.957  0.0836 -0.1047  0.4165
 3332DOPE   GL139094  28.277  34.615  15.626 -0.1776 -0.0765  0.1605
 3332DOPE   GL239095  28.310  34.857  15.597 -0.0313 -0.3853  0.1513
 3332DOPE   C1A39096  28.304  34.411  15.225 -0.0427  0.2571  0.1138
 3332DOPE   D2A39097  28.178  34.307  14.816  0.0004  0.0691  0.0977
 3332DOPE   C3A39098  28.136  34.647  14.553  0.2792 -0.1082  0.1416
 3332DOPE   C4A39099  28.013  34.887  14.161 -0.0470  0.0369 -0.2191
 3332DOPE   C1B39100  28.199  35.251  15.359  0.1809  0.2484  0.2222
 3332DOPE   D2B39101  27.817  35.469  15.224 -0.3473  0.1908  0.1432
 3332DOPE   C3B39102  27.762  35.550  14.798  0.1388  0.4063  0.2235
 3332DOPE   C4B39103  27.481  35.474  14.391 -0.3174  0.1859  0.0976
 3333DOPC   NC339104  24.074  23.702  15.491 -0.2520  0.1853 -0.1458
 3333DOPC   PO439105  24.297  24.043  15.615 -0.0173  0.0565 -0.1647
 3333DOPC   GL139106  24.368  24.107  15.224  0.3148  0.6493 -0.3012
 3333DOPC   GL239107  24.213  23.867  15.047  0.0055 -0.0572  0.3105
 3333DOPC   C1A39108  24.211  24.330  14.863  0.0456  0.1859  0.3320
 3333DOPC   D2A39109  23.956  24.351  14.486  0.0337 -0.3373  0.0668
 3333DOPC   C3A39110  24.141  24.219  14.024 -0.3266  0.1006  0.1795
 3333DOPC   C4A39111  24.090  24.110  13.530  0.2725  0.1108  0.2935
 3333DOPC   C1B39112  24.359  23.932  14.594 -0.3490 -0.2208 -0.3564
 3333DOPC   D2B39113  24.487  23.869  14.163  0.2281 -0.2504  0.1500
 3333DOPC   C3B39114  24.137  23.703  13.866 -0.3201 -0.1179  0.0179
 3333DOPC   C4B39115  23.823  23.589  13.588  0.0189  0.0816  0.1403
 3334DOPC   NC339116  24.423  28.628  15.845  0.5115 -0.1319 -0.1073
 3334DOPC   PO439117  24.077  28.665  15.919 -0.0731  0.0809  0.3184
 3334DOPC   GL139118  24.097  28.690  15.479  0.2630 -0.0393 -0.2461
 3334DOPC   GL239119  24.057  28.964  15.466 -0.2365  0.0762 -0.2440
 3334DOPC   C1A39120  23.935  28.738  15.011  0.1570 -0.1996 -0.3207
 3334DOPC   D2A39121  24.202  28.765  14.593  0.1679 -0.0382  0.3606
 3334DOPC   C3A39122  24.029  28.916  14.195  0.3749  0.3298  0.2688
 3334DOPC   C4A39123  23.920  29.016  13.771  0.2560  0.0104  0.1673
 3334DOPC   C1B39124  24.375  29.274  15.463  0.0212  0.0825  0.0630
 3334DOPC   D2B39125  24.463  29.649  15.192 -0.0328  0.1918  0.0609
 3334DOPC   C3B39126  24.515  29.421  14.711  0.0867 -0.1185 -0.1714
 3334DOPC   C4B39127  24.781  29.537  14.330  0.1655  0.0347  0.0623
 3335POSM   NC339128  28.737  25.581  16.851 -0.2341  0.0015 -0.0262
 3335POSM   PO439129  28.628  25.246  16.703  0.0642  0.4051  0.1925
 3335POSM   AM139130  28.486  25.149  16.372  0.1818 -0.1104  0.2555
 3335POSM   AM239131  28.526  24.941  16.180 -0.2544 -0.0209  0.2053
 3335POSM   T1A39132  28.244  25.315  15.962 -0.1771  0.2987 -0.1189
 3335POSM   C2A39133  28.359  25.340  15.527  0.1342  0.1204 -0.2456
 3335POSM   C3A39134  28.189  25.061  15.189 -0.4389 -0.1729 -0.1735
 3335POSM   C1B39135  28.751  25.027  15.916  0.3132 -0.0535 -0.3353
 3335POSM   D2B39136  28.797  25.027  15.441 -0.0842  0.5559  0.0428
 3335POSM   C3B39137  28.663  25.294  15.125  0.0633 -0.1777  0.1264
 3335POSM   C4B39138  28.383  25.406  14.780 -0.1938 -0.0585 -0.0341
 3336DOPC   NC339139  25.532  33.843  15.614 -0.0197 -0.0521  0.1755
 3336DOPC   PO439140  25.559  34.213  15.523 -0.0938 -0.0631 -0.0629
 3336DOPC   GL139141  25.610  34.245  15.202 -0.4408 -0.1643 -0.0106
 3336DOPC   GL239142  25.818  34.010  15.105 -0.0696 -0.5290  0.0801
 3336DOPC   C1A39143  25.529  34.404  14.754  0.0889 -0.2953 -0.2409
 3336DOPC   D2A39144  25.607  34.788  14.528  0.0418  0.1161 -0.2372
 3336DOPC   C3A39145  25.185  35.028  14.465 -0.1809  0.0836  0.0482
 3336DOPC   C4A39146  24.784  34.896  14.551 -0.3080  0.0979  0.3835
 3336DOPC   C1B39147  25.704  33.884  14.693  0.1346 -0.2800  0.1048
 3336DOPC   D2B39148  25.907  33.805  14.307  0.2243 -0.2057 -0.0507
 3336DOPC   C3B39149  26.334  33.836  14.205 -0.0834  0.0524  0.2332
 3336DOPC   C4B39150  26.761  33.620  14.298  0.1178  0.2951  0.1788
 3337DOPE   NH339151  31.366  25.547  16.006  0.3626 -0.2854  0.2184
 3337DOPE   PO439152  31.559  25.352  15.829  0.2003 -0.0973 -0.3455
 3337DOPE   GL139153  31.708  25.236  15.525 -0.1599 -0.2339  0.2745
 3337DOPE   GL239154  31.652  25.477  15.323  0.1853  0.2003  0.0327
 3337DOPE   C1A39155  31.667  24.925  15.178  0.2163 -0.0837 -0.0695
 3337DOPE   D2A39156  31.638  24.685  14.808  0.2711 -0.1295 -0.2507
 3337DOPE   C3A39157  31.738  24.431  14.435  0.0193  0.0745  0.1734
 3337DOPE   C4A39158  32.061  24.167  14.164 -0.2309  0.0567  0.0559
 3337DOPE   C1B39159  31.386  25.392  14.942 -0.1474  0.0344  0.0433
 3337DOPE   D2B39160  31.400  25.191  14.485 -0.1397  0.1067  0.3115
 3337DOPE   C3B39161  31.377  24.826  14.277 -0.2086  0.0748  0.0996
 3337DOPE   C4B39162  31.613  24.538  13.971 -0.1826 -0.3521 -0.1088
 3338DOPC   NC339163  26.083  30.261  16.406 -0.1128  0.3953  0.4669
 3338DOPC   PO439164  26.391  30.407  16.525 -0.0344 -0.2167  0.2990
 3338DOPC   GL139165  26.458  30.351  16.119 -0.0705  0.0399 -0.2645
 3338DOPC   GL239166  26.485  30.545  16.003  0.0368 -0.3173 -0.0597
 3338DOPC   C1A39167  26.280  30.058  15.795 -0.0759  0.1151 -0.0341
 3338DOPC   D2A39168  26.069  29.610  15.785 -0.2855  0.0777  0.0269
 3338DOPC   C3A39169  25.834  29.654  15.378 -0.1231  0.2317  0.0848
 3338DOPC   C4A39170  25.646  29.904  15.017 -0.3631 -0.3006 -0.1142
 3338DOPC   C1B39171  26.949  30.680  15.957 -0.0031 -0.1066  0.1520
 3338DOPC   D2B39172  27.246  30.817  15.591 -0.3508 -0.1687  0.2598
 3338DOPC   C3B39173  27.078  30.701  15.188  0.0240  0.0001 -0.2509
 3338DOPC   C4B39174  27.017  30.526  14.780 -0.1079 -0.0167 -0.0095
 3339DOPE   NH339175  23.952  32.177  16.348  0.0659 -0.0375  0.0732
 3339DOPE   PO439176  24.092  32.006  16.112 -0.2115  0.3254  0.2146
 3339DOPE   GL139177  23.959  32.086  15.877 -0.1371 -0.0944  0.1156
 3339DOPE   GL239178  24.166  32.084  15.640 -0.3160  0.1029 -0.1038
 3339DOPE   C1A39179  23.681  32.116  15.475  0.2606  0.2378  0.2037
 3339DOPE   D2A39180  23.582  31.936  15.003  0.3063  0.0138 -0.1567
 3339DOPE   C3A39181  23.946  31.880  14.715 -0.0818  0.1343  0.0600
 3339DOPE   C4A39182  24.335  31.639  14.648 -0.2106 -0.0152  0.3004
 3339DOPE   C1B39183  24.078  32.298  15.213 -0.0088  0.1847  0.2633
 3339DOPE   D2B39184  23.656  32.478  14.966 -0.1158  0.0902  0.1430
 3339DOPE   C3B39185  23.877  32.389  14.576  0.2562  0.2228  0.0440
 3339DOPE   C4B39186  24.253  32.511  14.338  0.2012  0.0832 -0.0257
 3340DOPE   NH339187  33.048  24.136  16.098 -0.1396  0.2587 -0.1252
 3340DOPE   PO439188  33.080  23.827  16.093 -0.3511 -0.0089  0.2909
 3340DOPE   GL139189  32.961  23.770  15.773  0.0902 -0.2435 -0.1480
 3340DOPE   GL239190  32.692  23.933  15.772 -0.1224 -0.0419  0.0972
 3340DOPE   C1A39191  33.037  23.671  15.363  0.1256 -0.2768  0.3292
 3340DOPE   D2A39192  33.462  23.512  15.042 -0.1081 -0.3567 -0.1075
 3340DOPE   C3A39193  33.571  23.730  14.609 -0.1142  0.1173  0.2643
 3340DOPE   C4A39194  33.760  23.949  14.290 -0.0223 -0.1165  0.0907
 3340DOPE   C1B39195  32.515  23.923  15.343  0.2297  0.0011  0.1052
 3340DOPE   D2B39196  32.613  23.873  14.859 -0.2241  0.2525  0.0325
 3340DOPE   C3B39197  32.958  23.768  14.564 -0.2963  0.1235  0.2884
 3340DOPE   C4B39198  33.117  23.772  14.127  0.1350 -0.1177 -0.0569
 3341DOPC   NC339199  26.260  25.491  15.536 -0.2847  0.0558  0.0134
 3341DOPC   PO439200  26.369  25.532  15.934 -0.2628  0.2805  0.1759
 3341DOPC   GL139201  26.627  25.712  15.646 -0.2484  0.0759  0.1187
 3341DOPC   GL239202  26.687  25.938  15.747  0.2681 -0.1505 -0.1816
 3341DOPC   C1A39203  26.668  25.526  15.192  0.2910 -0.0892  0.1005
 3341DOPC   D2A39204  26.622  25.529  14.680 -0.2153 -0.3207  0.1819
 3341DOPC   C3A39205  27.055  25.423  14.402 -0.1373 -0.2543 -0.1302
 3341DOPC   C4A39206  27.407  25.483  14.126  0.0706 -0.1242 -0.0513
 3341DOPC   C1B39207  26.527  26.048  15.328 -0.1985  0.1345  0.0708
 3341DOPC   D2B39208  26.419  25.912  14.911 -0.2099 -0.0711  0.0812
 3341DOPC   C3B39209  26.588  26.242  14.643  0.0620  0.1150 -0.1341
 3341DOPC   C4B39210  26.457  26.573  14.333 -0.0065 -0.0220 -0.0887
 3342DOPC   NC339211  27.906  26.835  16.390 -0.2677 -0.3245 -0.1612
 3342DOPC   PO439212  27.838  27.019  16.032 -0.2715 -0.0549 -0.3819
 3342DOPC   GL139213  27.660  27.139  15.751  0.1519  0.2246 -0.0184
 3342DOPC   GL239214  27.490  26.925  15.588 -0.0799  0.0103  0.1808
 3342DOPC   C1A39215  27.821  27.163  15.314 -0.0978 -0.2730 -0.0464
 3342DOPC   D2A39216  27.692  27.125  14.873  0.1900 -0.0977 -0.2680
 3342DOPC   C3A39217  27.899  27.058  14.476 -0.0164 -0.1046 -0.0358
 3342DOPC   C4A39218  27.970  27.208  14.107 -0.4014 -0.0601  0.2517
 3342DOPC   C1B39219  27.076  26.735  15.458 -0.0331  0.2058 -0.0576
 3342DOPC   D2B39220  26.898  26.515  15.098  0.1071  0.0818  0.1553
 3342DOPC   C3B39221  26.797  26.766  14.709  0.0177 -0.1602  0.0207
 3342DOPC   C4B39222  26.759  27.217  14.770  0.1293  0.1165  0.0130
 3343DOPC   NC339223  34.007  31.973  15.722  0.0422 -0.2760 -0.1679
 3343DOPC   PO439224  34.140  32.221  16.035 -0.0605  0.1134  0.2934
 3343DOPC   GL139225  34.307  32.374  15.658  0.0148  0.0512  0.1568
 3343DOPC   GL239226  34.605  32.102  15.664  0.0054 -0.1213  0.0693
 3343DOPC   C1A39227  34.172  32.219  15.219 -0.2428 -0.2280  0.0306
 3343DOPC   D2A39228  34.124  32.274  14.756  0.1560  0.2098 -0.2457
 3343DOPC   C3A39229  34.059  31.896  14.440  0.0867  0.0290 -0.0828
 3343DOPC   C4A39230  33.996  31.476  14.537  0.1107  0.1825 -0.2179
 3343DOPC   C1B39231  34.681  32.403  15.343  0.2872  0.0952  0.0803
 3343DOPC   D2B39232  34.829  32.361  14.962 -0.5225  0.0736 -0.3658
 3343DOPC   C3B39233  34.638  32.423  14.547 -0.1609 -0.1845  0.2108
 3343DOPC   C4B39234  34.799  32.567  14.145 -0.1101  0.3484  0.4315
 3344DOPC   NC339235  23.876  24.931  15.867 -0.1070 -0.2693  0.1074
 3344DOPC   PO439236  23.706  24.795  15.505 -0.3078 -0.0810 -0.0411
 3344DOPC   GL139237  23.722  24.434  15.291 -0.3053 -0.2480 -0.1975
 3344DOPC   GL239238  23.439  24.338  15.344  0.0063  0.2329  0.0485
 3344DOPC   C1A39239  23.649  24.463  14.839  0.2483  0.0951  0.0635
 3344DOPC   D2A39240  23.469  24.254  14.439 -0.0723  0.0568  0.0403
 3344DOPC   C3A39241  23.431  24.341  13.947 -0.1028 -0.1203 -0.0858
 3344DOPC   C4A39242  23.163  24.482  13.616  0.0154 -0.2142 -0.2140
 3344DOPC   C1B39243  23.197  24.361  14.890 -0.0182  0.3570  0.1926
 3344DOPC   D2B39244  22.972  24.548  14.526  0.2700 -0.0679 -0.1288
 3344DOPC   C3B39245  23.009  24.255  14.186 -0.2895  0.0691  0.1157
 3344DOPC   C4B39246  23.109  23.965  13.777 -0.1758  0.0123  0.3717
 3345DOPC   NC339247  28.673  26.987  15.709  0.2192  0.0589  0.2513
 3345DOPC   PO439248  28.721  27.019  16.084 -0.2727 -0.1768 -0.0819
 3345DOPC   GL139249  29.105  26.998  15.852  0.3153  0.1518  0.3521
 3345DOPC   GL239250  29.314  27.195  15.884 -0.0928 -0.1392 -0.1957
 3345DOPC   C1A39251  29.041  26.810  15.436  0.0422  0.0764 -0.1907
 3345DOPC   D2A39252  29.177  26.812  15.039  0.1644 -0.0173  0.0978
 3345DOPC   C3A39253  29.541  26.771  14.866  0.0950 -0.0165  0.0817
 3345DOPC   C4A39254  29.906  27.037  14.738 -0.0383 -0.1017  0.2565
 3345DOPC   C1B39255  29.547  26.823  15.679 -0.1473 -0.2976 -0.1538
 3345DOPC   D2B39256  29.780  26.377  15.595  0.2010 -0.0205  0.0341
 3345DOPC   C3B39257  29.666  26.266  15.149  0.1936  0.2431 -0.3184
 3345DOPC   C4B39258  29.397  26.267  14.794  0.0222 -0.0911  0.1973
 3346DOPE   NH339259  33.148  30.723  16.277 -0.0296 -0.0469  0.1607
 3346DOPE   PO439260  33.090  30.418  16.196  0.0523  0.0867  0.2394
 3346DOPE   GL139261  32.909  30.342  15.849  0.0200 -0.2825 -0.0530
 3346DOPE   GL239262  32.714  30.596  15.823  0.3056 -0.1812  0.4445
 3346DOPE   C1A39263  33.040  30.484  15.452 -0.0036 -0.0544  0.1953
 3346DOPE   D2A39264  33.384  30.499  15.208 -0.1079  0.0440  0.0435
 3346DOPE   C3A39265  33.738  30.338  14.927 -0.0643  0.0755  0.1093
 3346DOPE   C4A39266  33.786  29.995  14.671 -0.4340 -0.2605  0.2068
 3346DOPE   C1B39267  32.436  30.561  15.439 -0.0369  0.0243  0.1378
 3346DOPE   D2B39268  32.227  30.329  15.152  0.4627  0.2647 -0.0467
 3346DOPE   C3B39269  32.324  29.875  15.107 -0.1404 -0.0822 -0.2157
 3346DOPE   C4B39270  32.352  29.528  14.808 -0.2328  0.1350  0.2427
 3347DOPE   NH339271  32.437  29.580  16.283  0.2346  0.0863  0.1036
 3347DOPE   PO439272  32.567  29.300  16.270 -0.0629 -0.3578 -0.1453
 3347DOPE   GL139273  32.516  29.369  15.869  0.1425  0.1398 -0.1527
 3347DOPE   GL239274  32.280  29.544  15.813 -0.1482 -0.0740 -0.4630
 3347DOPE   C1A39275  32.622  29.389  15.388 -0.0855 -0.0349  0.0873
 3347DOPE   D2A39276  32.771  29.405  14.977  0.5882  0.2261  0.0757
 3347DOPE   C3A39277  32.803  29.793  14.745 -0.1936  0.1506 -0.3822
 3347DOPE   C4A39278  32.827  30.165  14.561 -0.0770 -0.0658 -0.1361
 3347DOPE   C1B39279  32.184  29.435  15.368  0.3513  0.2452 -0.1259
 3347DOPE   D2B39280  31.927  29.295  15.012 -0.0543  0.1510 -0.2137
 3347DOPE   C3B39281  32.079  29.123  14.595  0.0733 -0.1394 -0.3301
 3347DOPE   C4B39282  32.411  29.078  14.242 -0.0337  0.0963 -0.1156
 3348POSM   NC339283  28.555  32.138  16.110 -0.2765 -0.0889 -0.1289
 3348POSM   PO439284  28.699  31.958  16.422 -0.0839  0.1704  0.2503
 3348POSM   AM139285  28.876  31.813  16.185  0.1195 -0.3354  0.4382
 3348POSM   AM239286  28.973  31.844  15.916 -0.1845  0.0513 -0.1842
 3348POSM   T1A39287  29.112  31.416  16.127 -0.2438  0.1489 -0.1324
 3348POSM   C2A39288  29.474  31.208  16.064 -0.1319 -0.2005 -0.2498
 3348POSM   C3A39289  29.924  31.124  16.011  0.1174  0.0876 -0.2577
 3348POSM   C1B39290  29.232  31.699  15.698  0.0569 -0.0585 -0.3217
 3348POSM   D2B39291  29.664  31.672  15.665 -0.0595 -0.0343 -0.1506
 3348POSM   C3B39292  29.962  31.324  15.494  0.3322  0.3328 -0.0701
 3348POSM   C4B39293  29.956  30.859  15.543 -0.0332  0.1215 -0.2055
 3349DOPC   NC339294  30.312  23.713  16.817  0.1444 -0.0258 -0.0759
 3349DOPC   PO439295  30.651  23.569  16.639  0.1122 -0.4349 -0.3584
 3349DOPC   GL139296  30.755  23.477  16.330  0.4542 -0.1505  0.0711
 3349DOPC   GL239297  30.594  23.249  16.288  0.1581  0.7274 -0.4389
 3349DOPC   C1A39298  30.773  23.509  15.872 -0.2665 -0.2852 -0.2163
 3349DOPC   D2A39299  31.087  23.534  15.556 -0.1741  0.1221  0.0653
 3349DOPC   C3A39300  31.064  23.403  15.152 -0.0798 -0.0801  0.1975
 3349DOPC   C4A39301  31.250  23.269  14.789  0.1545 -0.1913 -0.2600
 3349DOPC   C1B39302  30.586  22.972  15.914  0.1999 -0.3590 -0.0268
 3349DOPC   D2B39303  30.877  22.779  15.587  0.0913  0.2865  0.1035
 3349DOPC   C3B39304  31.236  22.535  15.647 -0.1091  0.0994  0.0490
 3349DOPC   C4B39305  31.440  22.109  15.711  0.0045  0.4446 -0.1188
 3350POSM   NC339306  26.412  24.961  15.859 -0.2923 -0.0159 -0.0263
 3350POSM   PO439307  26.385  24.595  15.954  0.3808 -0.3069  0.1474
 3350POSM   AM139308  26.629  24.550  15.756 -0.0303 -0.1868  0.1118
 3350POSM   AM239309  26.624  24.392  15.523 -0.0128 -0.0872  0.1421
 3350POSM   T1A39310  27.072  24.747  15.600  0.0302 -0.3550  0.1630
 3350POSM   C2A39311  27.467  24.702  15.339 -0.0229  0.2272 -0.1353
 3350POSM   C3A39312  27.806  24.669  15.007  0.4786 -0.4203 -0.1561
 3350POSM   C1B39313  26.549  24.065  15.469 -0.2538  0.2277 -0.0553
 3350POSM   D2B39314  26.498  23.723  15.127 -0.1897  0.0069  0.1161
 3350POSM   C3B39315  26.826  23.366  14.956  0.1598  0.0893 -0.0753
 3350POSM   C4B39316  26.755  22.926  14.929 -0.5309 -0.0878 -0.0187
 3351POSM   NC339317  24.364  33.844  15.988 -0.3158  0.1173 -0.1728
 3351POSM   PO439318  24.553  34.212  15.957  0.2729  0.0680  0.1403
 3351POSM   AM139319  24.585  34.050  15.625  0.1358 -0.2340  0.1140
 3351POSM   AM239320  24.507  33.807  15.493  0.0049 -0.2122  0.0089
 3351POSM   T1A39321  24.429  34.175  15.188  0.3386  0.3718  0.1042
 3351POSM   C2A39322  24.207  34.193  14.800 -0.2535  0.1035 -0.1801
 3351POSM   C3A39323  24.053  34.271  14.383  0.1066 -0.3807 -0.0369
 3351POSM   C1B39324  24.448  33.661  15.182  0.0376  0.3172  0.3374
 3351POSM   D2B39325  24.406  33.323  14.829 -0.0513  0.3579 -0.2012
 3351POSM   C3B39326  24.442  33.267  14.327  0.1222 -0.0175  0.0505
 3351POSM   C4B39327  24.424  32.870  14.035  0.4963  0.0237 -0.0429
 3352DOPS   CNO39328  27.984  29.750  16.588 -0.0903 -0.1036 -0.1009
 3352DOPS   PO439329  28.114  29.463  16.731 -0.1883  0.0381 -0.3372
 3352DOPS   GL139330  28.550  29.613  16.427 -0.3036 -0.0678 -0.2880
 3352DOPS   GL239331  28.457  29.549  16.214  0.0026  0.1570  0.2043
 3352DOPS   C1A39332  28.937  29.623  16.110  0.0685  0.0929 -0.1252
 3352DOPS   D2A39333  29.025  29.861  15.676 -0.3634 -0.1950  0.1998
 3352DOPS   C3A39334  28.676  29.868  15.377 -0.0148  0.0831  0.2915
 3352DOPS   C4A39335  28.255  30.057  15.327 -0.1998  0.2736  0.2163
 3352DOPS   C1B39336  28.399  29.940  16.024  0.0102  0.0674 -0.0845
 3352DOPS   D2B39337  28.191  30.264  15.834 -0.2484  0.0019 -0.1601
 3352DOPS   C3B39338  28.422  30.644  15.762  0.0800 -0.1471 -0.0229
 3352DOPS   C4B39339  28.799  30.820  15.573  0.0174  0.2283  0.1617
 3353DOPC   NC339340  27.284  31.995  16.395  0.0505  0.1209  0.3638
 3353DOPC   PO439341  26.918  31.832  16.362 -0.2235 -0.1853  0.0076
 3353DOPC   GL139342  26.773  31.907  15.935  0.1307  0.4286 -0.0126
 3353DOPC   GL239343  26.744  31.662  15.761 -0.0008 -0.1858  0.0063
 3353DOPC   C1A39344  26.759  32.211  15.547 -0.1560 -0.3004 -0.3051
 3353DOPC   D2A39345  26.907  32.548  15.315 -0.3350 -0.0155 -0.0268
 3353DOPC   C3A39346  26.606  32.636  14.895  0.0844 -0.0678 -0.0334
 3353DOPC   C4A39347  26.413  32.928  14.583  0.1421 -0.1717  0.0729
 3353DOPC   C1B39348  26.657  31.556  15.309  0.0300 -0.1364 -0.0202
 3353DOPC   D2B39349  26.859  31.624  14.914 -0.0554 -0.5242  0.1924
 3353DOPC   C3B39350  26.573  31.411  14.634 -0.1673 -0.3608  0.2284
 3353DOPC   C4B39351  26.305  31.144  14.466 -0.2064 -0.3920 -0.0066
 3354DOPE   NH339352  27.511  29.947  16.486 -0.0191  0.0266  0.0221
 3354DOPE   PO439353  27.421  30.194  16.301 -0.0719 -0.0436  0.0582
 3354DOPE   GL139354  27.573  30.555  16.105  0.1298  0.0062  0.1051
 3354DOPE   GL239355  27.527  30.417  15.850 -0.2152 -0.3012 -0.2329
 3354DOPE   C1A39356  27.648  30.957  16.008  0.0078  0.0857  0.0780
 3354DOPE   D2A39357  27.647  31.070  15.575 -0.0868 -0.3053 -0.6486
 3354DOPE   C3A39358  27.876  31.126  15.200 -0.2039 -0.1096 -0.2657
 3354DOPE   C4A39359  27.961  30.784  14.832 -0.1041  0.1676  0.0621
 3354DOPE   C1B39360  27.859  30.616  15.684  0.5113 -0.2362 -0.1705
 3354DOPE   D2B39361  28.162  30.583  15.348  0.0520  0.0140 -0.0950
 3354DOPE   C3B39362  28.422  30.397  15.022 -0.0082  0.3849  0.1126
 3354DOPE   C4B39363  28.668  30.450  14.623  0.1181 -0.2442 -0.4116
 3355DOPE   NH339364  28.178  24.395  16.446 -0.0044  0.0844  0.1413
 3355DOPE   PO439365  28.427  24.460  16.299 -0.0300  0.0634  0.0061
 3355DOPE   GL139366  28.520  24.487  15.923 -0.1436 -0.1642  0.1272
 3355DOPE   GL239367  28.822  24.529  15.995 -0.2967 -0.0182 -0.1178
 3355DOPE   C1A39368  28.415  24.786  15.602  0.2703 -0.0838 -0.0451
 3355DOPE   D2A39369  28.280  24.613  15.180 -0.0535 -0.1300 -0.0149
 3355DOPE   C3A39370  28.371  24.432  14.764  0.0141  0.0400  0.4356
 3355DOPE   C4A39371  28.641  24.564  14.490  0.0244  0.1344 -0.2825
 3355DOPE   C1B39372  29.083  24.640  15.611  0.1605  0.0483 -0.0698
 3355DOPE   D2B39373  29.229  24.645  15.132  0.1860  0.1987  0.2659
 3355DOPE   C3B39374  29.106  24.628  14.696  0.1144  0.0822  0.1493
 3355DOPE   C4B39375  29.159  24.961  14.430 -0.3707 -0.4067  0.3431
 3356DOPC   NC339376  30.712  27.117  16.104 -0.1224 -0.1061  0.0399
 3356DOPC   PO439377  30.357  27.270  16.225  0.0858 -0.3329  0.1685
 3356DOPC   GL139378  30.414  27.230  15.798  0.5273  0.4528 -0.0065
 3356DOPC   GL239379  30.234  27.396  15.659 -0.2402  0.1158  0.1758
 3356DOPC   C1A39380  30.147  26.948  15.500  0.1143  0.1670 -0.0378
 3356DOPC   D2A39381  30.100  26.682  15.125 -0.2854  0.0394  0.0585
 3356DOPC   C3A39382  29.992  26.513  14.718 -0.2462 -0.2168 -0.0063
 3356DOPC   C4A39383  29.647  26.655  14.407 -0.0573  0.2255  0.0565
 3356DOPC   C1B39384  29.989  27.568  15.297  0.1097 -0.4910 -0.0344
 3356DOPC   D2B39385  29.606  27.777  15.162 -0.1277 -0.2687 -0.0380
 3356DOPC   C3B39386  29.191  27.606  15.024 -0.0264 -0.2637  0.1177
 3356DOPC   C4B39387  28.997  27.638  14.618 -0.0387 -0.2124 -0.2697
 3357POSM   NC339388  30.937  32.160  15.881 -0.4349 -0.2983 -0.2589
 3357POSM   PO439389  31.215  32.449  15.864 -0.0580 -0.3460 -0.0718
 3357POSM   AM139390  31.193  32.399  15.531 -0.2272 -0.1565  0.1352
 3357POSM   AM239391  31.368  32.463  15.335  0.0876 -0.3852  0.0055
 3357POSM   T1A39392  30.886  32.115  15.253 -0.0627 -0.0508  0.0029
 3357POSM   C2A39393  30.671  31.988  14.839 -0.0889  0.1025 -0.0741
 3357POSM   C3A39394  30.809  32.125  14.402 -0.1796  0.2529  0.0423
 3357POSM   C1B39395  31.426  32.183  15.180 -0.2391 -0.0364  0.2196
 3357POSM   D2B39396  31.208  31.853  14.942  0.1454  0.2599 -0.1093
 3357POSM   C3B39397  31.161  31.683  14.501  0.2922 -0.1344 -0.0859
 3357POSM   C4B39398  31.041  31.474  14.119 -0.1058  0.2485 -0.1157
 3358POSM   NC339399  26.472  33.780  15.424  0.1401 -0.1795  0.0897
 3358POSM   PO439400  26.079  33.745  15.472 -0.0501  0.1716 -0.2386
 3358POSM   AM139401  26.103  33.618  15.150  0.1425  0.1577  0.4642
 3358POSM   AM239402  26.311  33.544  14.950 -0.1830  0.1204  0.2227
 3358POSM   T1A39403  25.847  33.393  14.725  0.1366 -0.0738 -0.0675
 3358POSM   C2A39404  25.437  33.366  14.542 -0.0274 -0.3294 -0.0222
 3358POSM   C3A39405  25.242  33.519  14.153 -0.1428 -0.3012 -0.0847
 3358POSM   C1B39406  26.379  33.454  14.579  0.0937 -0.1270 -0.2034
 3358POSM   D2B39407  26.345  33.270  14.171 -0.2063  0.1213 -0.0833
 3358POSM   C3B39408  25.915  33.299  14.259  0.0248  0.3311  0.1412
 3358POSM   C4B39409  25.632  33.359  13.897  0.1668  0.0882  0.0400
 3359DOPC   NC339410  31.421  33.714  15.697  0.0438 -0.0506 -0.0960
 3359DOPC   PO439411  31.710  33.866  15.868 -0.0933  0.1915  0.1007
 3359DOPC   GL139412  31.852  33.759  15.521 -0.1724 -0.0920 -0.0173
 3359DOPC   GL239413  32.016  33.932  15.364 -0.0258  0.0726  0.2850
 3359DOPC   C1A39414  31.953  33.531  15.082 -0.1872  0.1317 -0.1274
 3359DOPC   D2A39415  31.821  33.097  14.837 -0.1059  0.0923  0.0076
 3359DOPC   C3A39416  31.621  33.191  14.441 -0.2360 -0.1854 -0.5106
 3359DOPC   C4A39417  31.328  33.299  14.103 -0.2604 -0.1400 -0.2079
 3359DOPC   C1B39418  31.620  33.934  15.118  0.0813 -0.1134  0.0048
 3359DOPC   D2B39419  31.269  34.032  14.826  0.1345 -0.1810 -0.1147
 3359DOPC   C3B39420  31.213  33.725  14.502 -0.3215  0.0797 -0.1155
 3359DOPC   C4B39421  31.280  33.770  14.062 -0.1904  0.0475 -0.2013
 3360DOPS   CNO39422  27.437  29.064  16.330  0.0119  0.2384  0.1803
 3360DOPS   PO439423  27.593  28.841  16.099  0.0064 -0.1372 -0.1458
 3360DOPS   GL139424  27.743  29.075  15.806  0.1967  0.0618 -0.1184
 3360DOPS   GL239425  27.442  29.213  15.831  0.1149 -0.4043  0.0409
 3360DOPS   C1A39426  27.830  29.483  15.629  0.1509 -0.1406 -0.0721
 3360DOPS   D2A39427  27.886  29.904  15.705 -0.0994 -0.0866 -0.1570
 3360DOPS   C3A39428  27.771  30.248  15.384 -0.1492 -0.0313 -0.0534
 3360DOPS   C4A39429  27.607  30.596  15.200 -0.0158  0.1127  0.2673
 3360DOPS   C1B39430  27.436  29.327  15.365 -0.3890 -0.0338  0.1673
 3360DOPS   D2B39431  27.611  29.349  14.943  0.0805 -0.0024 -0.1676
 3360DOPS   C3B39432  27.493  29.739  14.723  0.2994  0.0161 -0.0224
 3360DOPS   C4B39433  27.205  30.070  14.570  0.0419  0.2834  0.1703
 3361DOPE   NH339434  34.157  28.686  16.063 -0.2586  0.1040  0.0009
 3361DOPE   PO439435  34.043  28.469  15.889 -0.0605 -0.0163 -0.1027
 3361DOPE   GL139436  33.965  28.289  15.554  0.0992  0.3415  0.1008
 3361DOPE   GL239437  33.856  28.057  15.582  0.3297  0.1342 -0.0245
 3361DOPE   C1A39438  33.896  28.160  15.119 -0.2542  0.2414  0.1621
 3361DOPE   D2A39439  33.678  28.326  14.772 -0.0891  0.0254  0.1519
 3361DOPE   C3A39440  33.639  28.194  14.367 -0.0467 -0.0370 -0.2329
 3361DOPE   C4A39441  33.465  27.943  14.023 -0.0015 -0.1180 -0.1478
 3361DOPE   C1B39442  33.410  27.926  15.475  0.0143 -0.0999  0.3920
 3361DOPE   D2B39443  33.051  27.821  15.161  0.3022 -0.2579  0.1712
 3361DOPE   C3B39444  32.955  27.970  14.735  0.3467 -0.1023  0.0449
 3361DOPE   C4B39445  33.037  28.183  14.317 -0.2770  0.0895  0.2313
 3362DOPS   CNO39446  29.053  32.292  16.409 -0.0501 -0.3690  0.1034
 3362DOPS   PO439447  28.979  32.357  16.081 -0.1019  0.0429 -0.0230
 3362DOPS   GL139448  28.967  32.306  15.665  0.2142  0.4808  0.2948
 3362DOPS   GL239449  28.720  32.131  15.606 -0.0100 -0.1183  0.1350
 3362DOPS   C1A39450  28.995  32.354  15.170 -0.2595 -0.3240 -0.1787
 3362DOPS   D2A39451  28.729  32.557  14.864 -0.1864  0.1308 -0.2108
 3362DOPS   C3A39452  28.399  32.414  14.526 -0.0933 -0.1276  0.1200
 3362DOPS   C4A39453  28.081  32.120  14.276 -0.2600 -0.0438 -0.1148
 3362DOPS   C1B39454  28.948  31.852  15.320 -0.2402 -0.1113  0.2152
 3362DOPS   D2B39455  29.269  31.871  14.953 -0.2016 -0.0597 -0.0295
 3362DOPS   C3B39456  29.314  31.773  14.478 -0.0294  0.1513 -0.2470
 3362DOPS   C4B39457  29.669  31.916  14.253  0.1287  0.1992  0.0932
 3363DOPS   CNO39458  25.198  24.337  15.966  0.1098 -0.0295 -0.0202
 3363DOPS   PO439459  25.092  24.490  15.664 -0.1332 -0.0450  0.0711
 3363DOPS   GL139460  25.256  24.264  15.354  0.0067  0.2972 -0.1423
 3363DOPS   GL239461  25.101  24.399  15.088 -0.2399 -0.1509 -0.4824
 3363DOPS   C1A39462  25.322  23.937  15.005 -0.0503 -0.1859 -0.2371
 3363DOPS   D2A39463  25.672  23.785  14.789 -0.1260  0.1053 -0.1817
 3363DOPS   C3A39464  25.826  24.053  14.426  0.0732  0.0544  0.0265
 3363DOPS   C4A39465  25.937  24.341  14.119  0.3012  0.2154  0.0165
 3363DOPS   C1B39466  25.616  24.373  15.074 -0.1395 -0.1862  0.0585
 3363DOPS   D2B39467  26.017  24.103  14.911 -0.0067 -0.2468  0.0308
 3363DOPS   C3B39468  26.183  23.745  14.679  0.0423 -0.1175 -0.1416
 3363DOPS   C4B39469  26.596  23.557  14.521  0.1150  0.0721 -0.1508
 3364POSM   NC339470  26.086  30.823  16.185  0.0197 -0.0632 -0.0679
 3364POSM   PO439471  25.701  30.826  16.175  0.1105  0.2508  0.0269
 3364POSM   AM139472  25.719  30.892  15.847 -0.0529 -0.1731 -0.1968
 3364POSM   AM239473  25.572  30.788  15.576  0.0852 -0.1073 -0.0848
 3364POSM   T1A39474  25.783  31.263  15.505  0.2573 -0.2192 -0.0420
 3364POSM   C2A39475  25.761  31.232  15.053 -0.0891 -0.1572  0.1646
 3364POSM   C3A39476  25.343  31.248  14.878  0.2085 -0.0219 -0.0311
 3364POSM   C1B39477  25.437  30.808  15.220  0.0979 -0.0105  0.3939
 3364POSM   D2B39478  25.451  30.805  14.756 -0.1778  0.0418  0.1421
 3364POSM   C3B39479  25.200  31.037  14.453 -0.1242  0.0233  0.0440
 3364POSM   C4B39480  25.221  31.430  14.229 -0.1282 -0.0609 -0.0495
 3365POSM   NC339481  32.298  28.887  16.161 -0.1851  0.2790  0.0824
 3365POSM   PO439482  32.071  29.184  16.239 -0.0253  0.0290 -0.0507
 3365POSM   AM139483  31.979  29.140  15.889 -0.2783 -0.3045  0.2567
 3365POSM   AM239484  32.130  28.997  15.689  0.0944 -0.0539  0.1277
 3365POSM   T1A39485  31.698  29.210  15.483 -0.0071 -0.0854  0.0769
 3365POSM   C2A39486  31.516  29.556  15.201 -0.0029 -0.2870  0.1859
 3365POSM   C3A39487  31.321  29.919  15.233  0.4288 -0.1183  0.0459
 3365POSM   C1B39488  32.244  28.928  15.364 -0.1775  0.0715  0.0484
 3365POSM   D2B39489  32.436  29.068  14.957  0.6201  0.1741 -0.0256
 3365POSM   C3B39490  32.492  28.775  14.654  0.0418 -0.2956  0.5214
 3365POSM   C4B39491  32.210  28.445  14.659  0.2978 -0.2130  0.1368
 3366DOPC   NC339492  25.576  24.705  15.485 -0.0935 -0.0405 -0.2236
 3366DOPC   PO439493  25.920  24.657  15.655 -0.2959  0.1754 -0.2961
 3366DOPC   GL139494  25.920  24.896  15.266 -0.2407  0.0296  0.2827
 3366DOPC   GL239495  26.138  25.089  15.268 -0.0728 -0.0868 -0.0005
 3366DOPC   C1A39496  26.062  24.634  14.889 -0.1389 -0.2617  0.0836
 3366DOPC   D2A39497  26.086  24.738  14.425 -0.0504 -0.1126 -0.2275
 3366DOPC   C3A39498  26.393  24.636  14.166 -0.4281 -0.0943  0.2760
 3366DOPC   C4A39499  26.746  24.877  14.039 -0.0039 -0.2525 -0.0129
 3366DOPC   C1B39500  26.316  25.131  14.847  0.1652  0.2470 -0.3229
 3366DOPC   D2B39501  26.484  25.103  14.434 -0.4224 -0.0873 -0.0854
 3366DOPC   C3B39502  26.191  25.162  14.146 -0.2725  0.0340  0.2622
 3366DOPC   C4B39503  26.012  25.271  13.767  0.2359  0.0618 -0.1174
 3367POSM   NC339504  29.131  33.544  16.348 -0.0815 -0.2556  0.1828
 3367POSM   PO439505  28.940  33.793  16.075  0.0104  0.1216  0.3878
 3367POSM   AM139506  28.877  33.796  15.741 -0.3282 -0.0993 -0.3493
 3367POSM   AM239507  28.919  33.656  15.497  0.0387  0.0494 -0.2694
 3367POSM   T1A39508  28.615  33.972  15.313 -0.3569  0.0262  0.1020
 3367POSM   C2A39509  28.555  33.791  14.881  0.4920  0.0689  0.1468
 3367POSM   C3A39510  28.282  33.829  14.490 -0.2789  0.0276  0.2065
 3367POSM   C1B39511  29.016  33.754  15.169 -0.0920  0.2961 -0.0994
 3367POSM   D2B39512  29.028  33.981  14.789  0.2166  0.0791 -0.2973
 3367POSM   C3B39513  28.870  33.893  14.351  0.1397  0.3214  0.0804
 3367POSM   C4B39514  28.588  33.992  14.064 -0.0063 -0.3027  0.3155
 3368DOPC   NC339515  30.223  30.136  16.365  0.1133 -0.1876 -0.0844
 3368DOPC   PO439516  29.886  30.043  16.487 -0.0905 -0.0277  0.3321
 3368DOPC   GL139517  29.871  30.073  16.072  0.1782 -0.1727 -0.2489
 3368DOPC   GL239518  30.098  29.826  15.955 -0.1112 -0.1051 -0.0133
 3368DOPC   C1A39519  29.649  29.860  15.685 -0.3350 -0.1189  0.0067
 3368DOPC   D2A39520  29.562  29.676  15.257  0.0203 -0.1197 -0.3603
 3368DOPC   C3A39521  29.628  29.944  14.904  0.1193 -0.2405  0.0261
 3368DOPC   C4A39522  29.814  29.917  14.470 -0.0045  0.0587 -0.0541
 3368DOPC   C1B39523  30.365  29.662  15.589  0.0853  0.0455  0.1813
 3368DOPC   D2B39524  30.806  29.636  15.431 -0.0869 -0.2255 -0.2506
 3368DOPC   C3B39525  30.984  29.567  15.023 -0.0912 -0.0497 -0.1876
 3368DOPC   C4B39526  30.954  29.535  14.574  0.0653 -0.2381 -0.3636
 3369POSM   NC339527  30.974  28.699  16.698 -0.0779  0.2043  0.2336
 3369POSM   PO439528  30.839  29.016  16.425 -0.1321 -0.2090 -0.2038
 3369POSM   AM139529  30.741  29.223  16.192  0.0706 -0.1932 -0.2264
 3369POSM   AM239530  30.583  29.448  16.141 -0.1535 -0.3425  0.1424
 3369POSM   T1A39531  30.660  29.200  15.669  0.0412 -0.0584  0.3218
 3369POSM   C2A39532  30.362  29.212  15.275  0.1543  0.0108  0.1409
 3369POSM   C3A39533  29.998  29.419  14.987 -0.1026  0.2374 -0.2424
 3369POSM   C1B39534  30.329  29.263  16.070 -0.1198  0.2715 -0.0609
 3369POSM   D2B39535  30.146  29.132  15.723  0.1976 -0.1434 -0.1486
 3369POSM   C3B39536  29.956  29.447  15.482  0.1769 -0.0257  0.2809
 3369POSM   C4B39537  30.019  29.888  15.253 -0.0971  0.2823 -0.0224
 3370POSM   NC339538  31.906  24.804  16.439  0.2085  0.1401  0.1353
 3370POSM   PO439539  31.987  24.903  16.053  0.0215 -0.1967  0.1051
 3370POSM   AM139540  31.776  24.835  15.802  0.1775 -0.3757 -0.1822
 3370POSM   AM239541  31.562  24.822  15.644 -0.3455 -0.1777 -0.1102
 3370POSM   T1A39542  31.894  24.483  15.436  0.1135  0.4513 -0.1471
 3370POSM   C2A39543  32.155  24.197  15.206  0.3927 -0.1168 -0.1824
 3370POSM   C3A39544  32.551  24.323  15.038 -0.1764 -0.0024 -0.1666
 3370POSM   C1B39545  31.384  24.638  15.445  0.3700  0.1161 -0.2420
 3370POSM   D2B39546  31.130  24.478  15.112  0.0139 -0.0495 -0.1998
 3370POSM   C3B39547  31.301  24.249  14.728 -0.1608 -0.1239  0.1561
 3370POSM   C4B39548  31.155  23.924  14.370 -0.0206  0.1284 -0.2599
 3371DOPC   NC339549  24.967  26.064  15.313  0.0371  0.0097  0.0382
 3371DOPC   PO439550  25.301  26.167  15.426  0.3949 -0.0108 -0.0661
 3371DOPC   GL139551  25.304  26.407  15.098  0.0470  0.1316  0.0639
 3371DOPC   GL239552  25.004  26.534  15.019  0.1090  0.1844  0.0962
 3371DOPC   C1A39553  25.304  26.551  14.689  0.0504  0.1266  0.2750
 3371DOPC   D2A39554  25.436  26.926  14.416  0.1853 -0.2967 -0.2316
 3371DOPC   C3A39555  25.211  27.052  14.053  0.0262 -0.1417 -0.0013
 3371DOPC   C4A39556  24.961  27.471  14.067  0.3506 -0.0186  0.1935
 3371DOPC   C1B39557  24.984  26.145  14.798  0.1890  0.2293 -0.1655
 3371DOPC   D2B39558  24.712  26.013  14.442  0.0997 -0.4520  0.0539
 3371DOPC   C3B39559  24.775  26.096  13.977 -0.0260 -0.1341 -0.0653
 3371DOPC   C4B39560  25.156  26.181  13.768 -0.0709 -0.4573  0.4017
 3372DOPE   NH339561  25.142  25.079  15.651 -0.0044  0.0573 -0.0339
 3372DOPE   PO439562  25.442  25.224  15.731  0.1666 -0.1712  0.2944
 3372DOPE   GL139563  25.697  25.280  15.317  0.1865  0.3479 -0.1548
 3372DOPE   GL239564  25.584  25.451  15.132  0.0080  0.0729 -0.1784
 3372DOPE   C1A39565  25.779  25.146  14.869  0.0842  0.0041 -0.1603
 3372DOPE   D2A39566  25.735  25.102  14.403  0.1764 -0.0666 -0.0053
 3372DOPE   C3A39567  25.852  25.492  14.223  0.2395  0.0674 -0.2113
 3372DOPE   C4A39568  26.190  25.711  13.912  0.1600 -0.0466 -0.2099
 3372DOPE   C1B39569  25.590  25.602  14.683  0.1008  0.2557 -0.3458
 3372DOPE   D2B39570  25.383  25.533  14.275 -0.3082  0.1830 -0.0124
 3372DOPE   C3B39571  25.214  25.923  14.203 -0.0122  0.1840 -0.0195
 3372DOPE   C4B39572  25.382  26.366  14.219 -0.0960  0.1446  0.1036
 3373DOPC   NC339573  23.807  27.030  15.649 -0.4488  0.0505 -0.0095
 3373DOPC   PO439574  24.197  27.194  15.583 -0.0589  0.2568  0.0578
 3373DOPC   GL139575  24.209  27.447  15.170 -0.1767  0.4096 -0.2545
 3373DOPC   GL239576  24.291  27.182  15.082 -0.0659 -0.2035 -0.0105
 3373DOPC   C1A39577  24.333  27.727  14.793  0.0484 -0.0572 -0.2226
 3373DOPC   D2A39578  24.362  27.916  14.392  0.0441  0.0034  0.1186
 3373DOPC   C3A39579  24.279  28.376  14.255 -0.2175 -0.2950 -0.0920
 3373DOPC   C4A39580  24.460  28.691  13.924  0.1307 -0.0150 -0.1919
 3373DOPC   C1B39581  24.661  27.451  15.111 -0.1208 -0.1731 -0.2303
 3373DOPC   D2B39582  24.831  27.836  14.930  0.0501 -0.2872  0.1289
 3373DOPC   C3B39583  24.606  28.160  14.721 -0.3185  0.0980  0.1325
 3373DOPC   C4B39584  24.777  28.560  14.530  0.1929  0.1208 -0.0856
 3374POSM   NC339585  32.528  31.117  15.932 -0.1156 -0.0472 -0.1740
 3374POSM   PO439586  32.866  31.081  16.104  0.0406 -0.2908  0.1310
 3374POSM   AM139587  32.973  31.040  15.781 -0.2400  0.0420 -0.2911
 3374POSM   AM239588  32.853  31.118  15.532  0.1511 -0.0414  0.2126
 3374POSM   T1A39589  33.308  30.965  15.442  0.2784 -0.1067  0.1533
 3374POSM   C2A39590  33.688  30.913  15.178 -0.2072  0.0213 -0.1858
 3374POSM   C3A39591  34.089  30.615  15.209  0.0437 -0.2720  0.4248
 3374POSM   C1B39592  32.626  30.982  15.242 -0.0937 -0.1725 -0.0540
 3374POSM   D2B39593  32.370  30.750  14.894 -0.1814 -0.1162  0.0596
 3374POSM   C3B39594  32.375  30.328  14.631  0.4831  0.0014 -0.1174
 3374POSM   C4B39595  32.276  29.956  14.389 -0.0156  0.1288 -0.2524
 3375POSM   NC339596  24.557  33.434  16.266  0.0963 -0.0379  0.2969
 3375POSM   PO439597  24.403  33.322  15.932  0.3765  0.2202  0.0893
 3375POSM   AM139598  24.385  33.373  15.610 -0.2163 -0.1575  0.0792
 3375POSM   AM239599  24.442  33.171  15.369 -0.2474  0.2978 -0.2622
 3375POSM   T1A39600  23.971  33.402  15.278 -0.1836 -0.1349  0.0559
 3375POSM   C2A39601  23.780  33.234  14.891 -0.0416  0.0121 -0.0080
 3375POSM   C3A39602  23.643  32.879  14.596 -0.3842 -0.0116  0.2469
 3375POSM   C1B39603  24.263  33.007  15.234 -0.0593 -0.2004 -0.2036
 3375POSM   D2B39604  24.032  32.807  14.917  0.3667 -0.0935  0.2220
 3375POSM   C3B39605  24.068  32.975  14.477  0.1324 -0.0025 -0.2077
 3375POSM   C4B39606  24.009  33.193  14.056  0.0601 -0.3217  0.0563
 3376POSM   NC339607  27.298  28.736  15.723  0.2074  0.0420  0.1632
 3376POSM   PO439608  27.060  28.912  15.982 -0.2387 -0.1997 -0.1951
 3376POSM   AM139609  26.898  29.012  15.703  0.1567  0.1518 -0.0470
 3376POSM   AM239610  26.736  29.194  15.591 -0.0379 -0.0912  0.0445
 3376POSM   T1A39611  27.051  28.956  15.267 -0.1353 -0.3174 -0.0073
 3376POSM   C2A39612  26.943  28.747  14.861  0.1009 -0.2291  0.2186
 3376POSM   C3A39613  26.950  28.550  14.468 -0.0578  0.1911 -0.1108
 3376POSM   C1B39614  26.479  29.127  15.397 -0.2158 -0.1456 -0.0197
 3376POSM   D2B39615  26.085  29.204  15.332 -0.0609 -0.0156  0.0372
 3376POSM   C3B39616  25.827  29.391  14.952  0.2940  0.0671 -0.2201
 3376POSM   C4B39617  25.491  29.249  14.743 -0.1506 -0.0569  0.1243
 3377POSM   NC339618  26.214  34.249  16.201  0.0171 -0.0844  0.1505
 3377POSM   PO439619  26.462  34.180  15.944  0.5398  0.1208 -0.0541
 3377POSM   AM139620  26.460  34.247  15.625 -0.2025 -0.0755 -0.3431
 3377POSM   AM239621  26.698  34.322  15.441  0.0151  0.2936  0.0278
 3377POSM   T1A39622  26.145  34.387  15.227  0.0113  0.0973 -0.0151
 3377POSM   C2A39623  26.054  34.310  14.801  0.0656 -0.0485  0.0098
 3377POSM   C3A39624  25.905  34.357  14.375  0.0478  0.1562 -0.0117
 3377POSM   C1B39625  26.674  34.360  15.144  0.0583 -0.0717 -0.0979
 3377POSM   D2B39626  26.830  34.313  14.715  0.4123  0.0153  0.0265
 3377POSM   C3B39627  26.957  34.065  14.351  0.0559  0.4729  0.1839
 3377POSM   C4B39628  27.014  33.763  13.951 -0.1505 -0.2178 -0.2975
 3378DOPC   NC339629   0.070  30.702  15.910  0.4351 -0.1327  0.0927
 3378DOPC   PO439630  -0.210  30.897  16.099  0.1555 -0.0711  0.0202
 3378DOPC   GL139631  -0.363  30.869  15.739  0.1085 -0.1439 -0.1128
 3378DOPC   GL239632  -0.217  30.715  15.475  0.1201 -0.2303  0.1494
 3378DOPC   C1A39633  -0.493  31.066  15.304 -0.3449 -0.0242  0.0495
 3378DOPC   D2A39634  -0.574  31.105  14.907  0.2906  0.2182 -0.2267
 3378DOPC   C3A39635  -0.276  30.872  14.684 -0.2360 -0.0498 -0.0425
 3378DOPC   C4A39636  -0.097  30.480  14.565 -0.0257  0.4062  0.0981
 3378DOPC   C1B39637  -0.024  30.921  15.107  0.0265 -0.3895  0.2780
 3378DOPC   D2B39638   0.254  31.126  14.879 -0.1855 -0.3012  0.0957
 3378DOPC   C3B39639   0.329  30.923  14.416  0.0064 -0.1021 -0.0326
 3378DOPC   C4B39640   0.481  31.175  14.134  0.0349 -0.2086 -0.1050
 3379POSM   NC339641  34.041  31.743  16.253  0.1617 -0.2345 -0.2405
 3379POSM   PO439642  33.716  31.730  15.999  0.0311 -0.0997  0.1113
 3379POSM   AM139643  33.704  31.486  15.781  0.2939 -0.0976  0.0599
 3379POSM   AM239644  33.418  31.404  15.758  0.0565  0.0722 -0.2582
 3379POSM   T1A39645  33.896  31.025  15.703  0.3146 -0.1801  0.1868
 3379POSM   C2A39646  33.874  30.587  15.635 -0.0931 -0.0111 -0.1948
 3379POSM   C3A39647  33.586  30.225  15.570 -0.1365 -0.0081 -0.0042
 3379POSM   C1B39648  33.450  31.511  15.442 -0.1333 -0.2245 -0.1583
 3379POSM   D2B39649  33.637  31.427  15.016  0.0778  0.0061  0.1729
 3379POSM   C3B39650  33.356  31.449  14.632 -0.2078 -0.1080 -0.0137
 3379POSM   C4B39651  33.173  31.510  14.201  0.1092  0.1361  0.2715
 3380DOPS   CNO39652  28.572  28.806  16.321 -0.0355  0.0638  0.2996
 3380DOPS   PO439653  28.377  29.062  16.466 -0.1462  0.3291 -0.0297
 3380DOPS   GL139654  28.100  28.885  16.153 -0.1661  0.1135 -0.2943
 3380DOPS   GL239655  28.151  28.668  15.947 -0.1855  0.1836  0.1357
 3380DOPS   C1A39656  28.199  29.179  15.826  0.0381  0.0094  0.0392
 3380DOPS   D2A39657  28.299  29.584  15.578  0.2101 -0.0811 -0.0312
 3380DOPS   C3A39658  28.362  29.528  15.107  0.0397 -0.1401  0.0152
 3380DOPS   C4A39659  28.683  29.519  14.732 -0.0210 -0.0289  0.2937
 3380DOPS   C1B39660  28.089  28.790  15.485  0.1222  0.0262  0.1261
 3380DOPS   D2B39661  28.013  29.143  15.223 -0.0917  0.0017 -0.1296
 3380DOPS   C3B39662  28.029  29.100  14.797  0.1111 -0.0204 -0.2839
 3380DOPS   C4B39663  27.751  28.905  14.451  0.1011 -0.0137  0.0359
 3381DOPS   CNO39664  23.883  30.370  16.275 -0.1514 -0.3140 -0.0600
 3381DOPS   PO439665  24.237  30.279  16.287 -0.0444 -0.1811 -0.0196
 3381DOPS   GL139666  24.365  30.231  15.805  0.1631  0.0371  0.1374
 3381DOPS   GL239667  24.272  29.930  15.774  0.0518  0.3479  0.1106
 3381DOPS   C1A39668  24.314  30.515  15.426  0.1434  0.2028 -0.2238
 3381DOPS   D2A39669  24.586  30.519  15.094 -0.0338 -0.0416  0.2938
 3381DOPS   C3A39670  24.416  30.596  14.745  0.2817  0.0077  0.0437
 3381DOPS   C4A39671  24.478  30.312  14.412 -0.4092 -0.1643  0.0728
 3381DOPS   C1B39672  24.162  30.055  15.374 -0.1346  0.0165 -0.0965
 3381DOPS   D2B39673  23.875  30.077  14.967  0.3513 -0.0139  0.3636
 3381DOPS   C3B39674  23.949  30.440  14.674  0.0151 -0.1700  0.3661
 3381DOPS   C4B39675  24.027  30.835  14.474  0.0632  0.0263 -0.0663
 3382DOPS   CNO39676  29.056  31.068  16.543  0.0225  0.2594 -0.2295
 3382DOPS   PO439677  28.711  30.944  16.630  0.1402  0.0352  0.1671
 3382DOPS   GL139678  28.714  30.797  16.263 -0.1775 -0.4075 -0.0661
 3382DOPS   GL239679  28.673  30.509  16.265 -0.1501  0.2215  0.1654
 3382DOPS   C1A39680  29.058  30.982  15.943  0.1654  0.2809  0.4322
 3382DOPS   D2A39681  29.356  31.211  15.591 -0.2396  0.3823  0.1247
 3382DOPS   C3A39682  29.444  31.440  15.243  0.1550  0.1441 -0.1494
 3382DOPS   C4A39683  29.361  31.291  14.862  0.0114  0.3870  0.1066
 3382DOPS   C1B39684  28.757  30.282  15.837 -0.1920  0.0258  0.2555
 3382DOPS   D2B39685  28.845  30.359  15.411 -0.0326  0.2246 -0.1435
 3382DOPS   C3B39686  28.878  30.710  15.111  0.0345 -0.0391  0.0778
 3382DOPS   C4B39687  28.857  31.017  14.783 -0.0517 -0.0931  0.0983
 3383POSM   NC339688  30.969  26.392  16.298 -0.2357  0.1898  0.0445
 3383POSM   PO439689  30.979  26.677  16.048  0.0228 -0.1803 -0.1744
 3383POSM   AM139690  31.045  26.734  15.714 -0.2264 -0.2981 -0.2711
 3383POSM   AM239691  31.348  26.781  15.652 -0.2074  0.1421  0.0041
 3383POSM   T1A39692  31.131  26.914  15.246  0.2062  0.0238 -0.1742
 3383POSM   C2A39693  31.350  26.948  14.895 -0.0198 -0.2610  0.5075
 3383POSM   C3A39694  31.746  26.899  14.579  0.0831  0.0411 -0.1785
 3383POSM   C1B39695  31.392  26.520  15.427 -0.0888 -0.1915 -0.1612
 3383POSM   D2B39696  31.352  26.422  14.958 -0.0208  0.1456  0.1277
 3383POSM   C3B39697  31.562  26.382  14.563  0.1636  0.1612  0.1208
 3383POSM   C4B39698  31.562  26.140  14.189 -0.3340  0.3569  0.4501
 3384DOPE   NH339699  31.183   0.687  16.085  0.0723  0.0355 -0.4048
 3384DOPE   PO439700  31.035   0.431  16.038 -0.0521 -0.0030 -0.0323
 3384DOPE   GL139701  30.859   0.247  15.704  0.2653 -0.3956  0.1249
 3384DOPE   GL239702  31.027   0.063  15.618 -0.1451 -0.1374 -0.2803
 3384DOPE   C1A39703  30.821   0.448  15.325  0.1160 -0.0191  0.4033
 3384DOPE   D2A39704  30.881   0.493  14.844  0.4449  0.0229 -0.0436
 3384DOPE   C3A39705  30.972   0.326  14.443 -0.2327  0.3790 -0.0014
 3384DOPE   C4A39706  30.827  -0.043  14.199  0.0730 -0.0772  0.1081
 3384DOPE   C1B39707  30.968  -0.265  15.351 -0.3406  0.3979 -0.1795
 3384DOPE   D2B39708  30.834  -0.495  15.004  0.1620  0.0128 -0.1446
 3384DOPE   C3B39709  30.843  -0.538  14.546  0.1317 -0.0492 -0.2858
 3384DOPE   C4B39710  31.214  -0.426  14.306 -0.2110  0.0065 -0.1874
 3385POSM   NC339711  28.651  24.041  16.028 -0.2271  0.0939 -0.1508
 3385POSM   PO439712  28.338  23.970  16.276 -0.0426  0.4554  0.0671
 3385POSM   AM139713  28.148  24.116  16.032  0.0650  0.1132  0.1571
 3385POSM   AM239714  28.134  24.313  15.840 -0.1561 -0.0484  0.1543
 3385POSM   T1A39715  27.916  23.912  15.646  0.0353 -0.2512 -0.1088
 3385POSM   C2A39716  27.645  23.605  15.529 -0.0980 -0.0530  0.1506
 3385POSM   C3A39717  27.462  23.176  15.404 -0.4800 -0.1503 -0.0086
 3385POSM   C1B39718  28.350  24.226  15.571  0.1084  0.2640 -0.1816
 3385POSM   D2B39719  28.450  24.091  15.217  0.0193  0.2107  0.2313
 3385POSM   C3B39720  28.474  23.805  14.850  0.1654  0.0259 -0.0278
 3385POSM   C4B39721  28.283  23.472  14.600  0.2516 -0.3731 -0.4952
 3386DOPS   CNO39722  30.285  30.677  16.393  0.1038 -0.0110  0.2537
 3386DOPS   PO439723  30.613  30.495  16.304  0.1138  0.0146  0.2637
 3386DOPS   GL139724  30.693  30.459  15.943  0.2937  0.0122  0.1180
 3386DOPS   GL239725  30.541  30.131  15.886 -0.1030  0.0755 -0.2021
 3386DOPS   C1A39726  30.982  30.708  15.658 -0.2671  0.1183  0.1504
 3386DOPS   D2A39727  30.984  30.788  15.172  0.1951  0.1631  0.3209
 3386DOPS   C3A39728  30.942  30.826  14.741 -0.1746  0.4262 -0.2397
 3386DOPS   C4A39729  30.991  31.035  14.388 -0.0077  0.3050  0.3339
 3386DOPS   C1B39730  30.289  30.238  15.510 -0.0410 -0.0488  0.4248
 3386DOPS   D2B39731  29.829  30.298  15.461  0.1076  0.0613  0.0366
 3386DOPS   C3B39732  29.728  30.382  15.065 -0.1792  0.0541  0.0938
 3386DOPS   C4B39733  29.644  30.370  14.597  0.4115 -0.0908 -0.1129
 3387POSM   NC339734  33.279  28.276  16.166 -0.2374 -0.0279  0.3324
 3387POSM   PO439735  32.959  28.047  16.202 -0.2378 -0.0052 -0.0711
 3387POSM   AM139736  32.813  28.015  15.874 -0.0797 -0.1285 -0.1140
 3387POSM   AM239737  32.824  27.821  15.711  0.0199 -0.1017  0.2379
 3387POSM   T1A39738  32.783  28.198  15.426  0.2706 -0.1411  0.0775
 3387POSM   C2A39739  32.851  28.483  15.033 -0.2076 -0.1993 -0.0607
 3387POSM   C3A39740  33.150  28.518  14.675  0.0450 -0.2607 -0.0196
 3387POSM   C1B39741  32.984  27.559  15.536  0.0132 -0.1805  0.0092
 3387POSM   D2B39742  33.088  27.277  15.206 -0.1270  0.1892  0.0968
 3387POSM   C3B39743  33.152  27.421  14.814  0.1482 -0.1620  0.1923
 3387POSM   C4B39744  33.191  27.675  14.382  0.0901 -0.0437 -0.2139
 3388POSM   NC339745  29.183  26.723  16.230 -0.2210 -0.2042 -0.1764
 3388POSM   PO439746  28.963  26.548  15.979 -0.0407  0.3828 -0.3023
 3388POSM   AM139747  28.808  26.451  15.689 -0.1043  0.0150 -0.2770
 3388POSM   AM239748  28.554  26.404  15.579 -0.1065  0.0017  0.2437
 3388POSM   T1A39749  28.847  26.436  15.185  0.1494  0.0034 -0.0751
 3388POSM   C2A39750  28.855  26.339  14.788  0.2421 -0.0198  0.0849
 3388POSM   C3A39751  28.708  26.455  14.375  0.3779 -0.3264 -0.1038
 3388POSM   C1B39752  28.445  26.244  15.257  0.3374  0.0429 -0.1960
 3388POSM   D2B39753  28.380  25.944  14.828  0.2667 -0.0256 -0.0119
 3388POSM   C3B39754  28.174  26.159  14.467 -0.0865  0.0625  0.0182
 3388POSM   C4B39755  27.963  26.307  14.055 -0.3400 -0.2061  0.1516
 3389POSM   NC339756  25.953  31.234  15.947 -0.0501  0.1584 -0.2228
 3389POSM   PO439757  25.990  31.585  16.077 -0.2108 -0.1970 -0.2388
 3389POSM   AM139758  26.039  31.619  15.769  0.3437  0.1886  0.0115
 3389POSM   AM239759  26.270  31.756  15.585 -0.0529  0.0502  0.3463
 3389POSM   T1A39760  25.870  31.680  15.318 -0.2335  0.0843 -0.2124
 3389POSM   C2A39761  25.553  31.729  14.986 -0.0882 -0.1972 -0.3329
 3389POSM   C3A39762  25.337  31.664  14.601  0.0880 -0.1087  0.4373
 3389POSM   C1B39763  26.313  31.919  15.305 -0.1022  0.1091  0.1339
 3389POSM   D2B39764  26.585  32.065  15.066  0.1159  0.0224  0.6392
 3389POSM   C3B39765  26.413  31.976  14.687 -0.3168 -0.2092 -0.1383
 3389POSM   C4B39766  26.146  31.938  14.331 -0.3423  0.0924  0.0177
 3390DOPE   NH339767  34.589  31.723  16.427  0.3162  0.0681  0.1865
 3390DOPE   PO439768  34.542  31.868  16.152  0.3669  0.0694 -0.3274
 3390DOPE   GL139769  34.385  31.675  15.869 -0.0139 -0.0210  0.2424
 3390DOPE   GL239770  34.163  31.461  15.818  0.0453 -0.0042  0.0847
 3390DOPE   C1A39771  34.415  31.750  15.434 -0.0639  0.0415  0.1628
 3390DOPE   D2A39772  34.565  31.972  15.023  0.2688  0.1387  0.0365
 3390DOPE   C3A39773  34.654  31.864  14.610 -0.2473  0.0441  0.1925
 3390DOPE   C4A39774  34.585  31.965  14.174 -0.0186 -0.1911 -0.0768
 3390DOPE   C1B39775  33.985  31.472  15.404  0.0991 -0.2352  0.1804
 3390DOPE   D2B39776  34.161  31.688  15.020 -0.2140  0.2751  0.0885
 3390DOPE   C3B39777  34.567  31.478  14.906  0.1786  0.0977  0.0342
 3390DOPE   C4B39778  34.630  31.332  14.482 -0.1250 -0.1613 -0.0236
 3391DOPE   NH339779  24.152  30.693  15.972 -0.1286 -0.1835 -0.2180
 3391DOPE   PO439780  24.459  30.742  16.044 -0.0932 -0.0839  0.2459
 3391DOPE   GL139781  24.627  30.727  15.677 -0.2431  0.1446  0.0048
 3391DOPE   GL239782  24.784  30.485  15.700  0.1654  0.3899  0.1409
 3391DOPE   C1A39783  24.944  30.784  15.307 -0.0331  0.1920 -0.0508
 3391DOPE   D2A39784  24.927  30.913  14.893  0.3995  0.0564  0.3153
 3391DOPE   C3A39785  24.907  31.367  14.697  0.0759  0.0200  0.0720
 3391DOPE   C4A39786  24.824  31.720  14.403  0.2125 -0.1650 -0.3894
 3391DOPE   C1B39787  24.715  30.133  15.426  0.0311  0.3719  0.3108
 3391DOPE   D2B39788  24.927  29.882  15.084  0.1147 -0.1881 -0.0937
 3391DOPE   C3B39789  24.824  29.967  14.649  0.4164  0.1762 -0.0638
 3391DOPE   C4B39790  24.413  29.822  14.440 -0.1477 -0.0967  0.0438
 3392DOPS   CNO39791  34.504  23.764  16.709  0.1844  0.0825  0.1030
 3392DOPS   PO439792  34.624  23.734  16.350  0.1303 -0.0315 -0.0496
 3392DOPS   GL139793  34.574  23.636  15.976  0.0540 -0.1912 -0.0391
 3392DOPS   GL239794  34.356  23.775  15.832 -0.1250 -0.0409  0.2656
 3392DOPS   C1A39795  34.341  23.282  15.771 -0.1789  0.0776 -0.0577
 3392DOPS   D2A39796  33.976  23.032  15.634 -0.0298  0.3493 -0.1026
 3392DOPS   C3A39797  34.026  22.746  15.266  0.1552 -0.1910  0.2008
 3392DOPS   C4A39798  34.120  22.678  14.800  0.2339  0.0920  0.0200
 3392DOPS   C1B39799  34.617  23.719  15.389 -0.1310 -0.1916 -0.1856
 3392DOPS   D2B39800  34.443  23.719  14.974  0.0488  0.2156 -0.2542
 3392DOPS   C3B39801  34.654  23.532  14.599  0.0188 -0.0193  0.0153
 3392DOPS   C4B39802  34.898  23.306  14.255  0.0790 -0.0590  0.0520
 3393DOPS   CNO39803  23.301  27.080  16.002 -0.1537  0.0996 -0.0684
 3393DOPS   PO439804  23.415  27.303  15.715 -0.0265  0.3263 -0.0974
 3393DOPS   GL139805  23.310  27.512  15.382  0.4250  0.4709 -0.1263
 3393DOPS   GL239806  23.366  27.812  15.330  0.0632 -0.1481 -0.1697
 3393DOPS   C1A39807  23.261  27.362  14.932 -0.0056  0.0012 -0.2379
 3393DOPS   D2A39808  23.366  27.122  14.561 -0.1821  0.1012 -0.0126
 3393DOPS   C3A39809  23.194  27.148  14.137 -0.2951 -0.1186 -0.0189
 3393DOPS   C4A39810  22.823  27.385  13.948  0.1503 -0.6239  0.3553
 3393DOPS   C1B39811  23.316  27.948  14.850 -0.2342 -0.1720  0.2403
 3393DOPS   D2B39812  23.362  28.164  14.425  0.0113  0.3290  0.2920
 3393DOPS   C3B39813  23.276  28.504  14.117  0.1849  0.2780  0.0170
 3393DOPS   C4B39814  23.090  28.814  13.866 -0.1136 -0.2924 -0.1411
 3394DOPE   NH339815  28.037  32.571  15.840  0.1806  0.1060 -0.1264
 3394DOPE   PO439816  28.158  32.446  16.098 -0.0888 -0.2459  0.0237
 3394DOPE   GL139817  28.081  32.083  15.887 -0.3743  0.0602 -0.1971
 3394DOPE   GL239818  28.244  32.099  15.670 -0.0508 -0.0393 -0.1414
 3394DOPE   C1A39819  27.721  31.959  15.638  0.1362 -0.1571  0.0955
 3394DOPE   D2A39820  27.654  31.515  15.420  0.0156  0.0973 -0.1673
 3394DOPE   C3A39821  27.669  31.676  14.990  0.2190  0.0119  0.0981
 3394DOPE   C4A39822  27.627  31.980  14.671 -0.0033  0.2614 -0.3407
 3394DOPE   C1B39823  28.043  31.892  15.306  0.0411  0.0513  0.1631
 3394DOPE   D2B39824  28.123  31.515  15.106  0.0669  0.1982 -0.1857
 3394DOPE   C3B39825  27.854  31.286  14.724 -0.1880 -0.1306 -0.0035
 3394DOPE   C4B39826  28.002  31.094  14.378 -0.0869  0.0008 -0.2507
 3395DOPC   NC339827  28.575  33.499  15.837  0.3393 -0.1954  0.1601
 3395DOPC   PO439828  28.237  33.609  15.721 -0.1934 -0.0279  0.2891
 3395DOPC   GL139829  28.124  33.369  15.322 -0.1831 -0.3081  0.0954
 3395DOPC   GL239830  28.430  33.436  15.283  0.0556  0.1395  0.0163
 3395DOPC   C1A39831  27.957  33.011  15.191  0.3491 -0.0094  0.0977
 3395DOPC   D2A39832  27.729  32.834  14.830 -0.0821 -0.0239 -0.0745
 3395DOPC   C3A39833  27.630  33.277  14.678  0.1118 -0.0664  0.0434
 3395DOPC   C4A39834  27.733  33.664  14.472 -0.1568 -0.3232 -0.0993
 3395DOPC   C1B39835  28.806  33.321  15.031 -0.0841  0.0460  0.3462
 3395DOPC   D2B39836  29.002  33.513  14.698 -0.0933 -0.1445  0.3938
 3395DOPC   C3B39837  29.251  33.669  14.336 -0.0912  0.0601  0.1320
 3395DOPC   C4B39838  29.422  33.532  13.926 -0.1565 -0.1845 -0.2173
 3396DOPE   NH339839  29.352  32.712  16.180 -0.0496  0.0259  0.1806
 3396DOPE   PO439840  29.514  32.440  16.135  0.1032  0.0643  0.1287
 3396DOPE   GL139841  29.465  32.435  15.796  0.2971  0.1025 -0.0701
 3396DOPE   GL239842  29.394  32.104  15.799  0.0209 -0.1151 -0.1378
 3396DOPE   C1A39843  29.853  32.256  15.579  0.2437 -0.1164  0.0798
 3396DOPE   D2A39844  30.030  32.328  15.171  0.2573  0.2927  0.0235
 3396DOPE   C3A39845  30.139  31.971  14.912 -0.1183 -0.3600  0.0352
 3396DOPE   C4A39846  30.267  31.973  14.495  0.1091  0.1070 -0.1459
 3396DOPE   C1B39847  29.430  31.988  15.342 -0.1982  0.0531  0.0165
 3396DOPE   D2B39848  29.824  31.817  15.247  0.0922  0.3013  0.1003
 3396DOPE   C3B39849  29.930  31.461  14.997  0.2415  0.0223  0.0974
 3396DOPE   C4B39850  29.798  31.024  15.123 -0.0978 -0.0787  0.2719
 3397DOPC   NC339851  22.825  25.515  15.300  0.0907  0.0470  0.1915
 3397DOPC   PO439852  22.492  25.702  15.363  0.1942  0.5325 -0.0311
 3397DOPC   GL139853  22.654  25.783  15.005  0.1154 -0.0611  0.0442
 3397DOPC   GL239854  22.606  26.052  14.808  0.0276 -0.0333 -0.0133
 3397DOPC   C1A39855  22.869  25.490  14.691 -0.2939  0.1770 -0.1736
 3397DOPC   D2A39856  22.931  25.567  14.241  0.1161  0.0089  0.0115
 3397DOPC   C3A39857  22.980  25.240  13.933 -0.1947  0.0656 -0.2935
 3397DOPC   C4A39858  23.130  24.793  14.060 -0.1594 -0.2347 -0.2049
 3397DOPC   C1B39859  22.945  26.300  14.839  0.1972 -0.2196  0.0222
 3397DOPC   D2B39860  22.991  26.669  14.577  0.0562 -0.3969 -0.1964
 3397DOPC   C3B39861  23.361  26.703  14.286  0.1731 -0.0498 -0.1320
 3397DOPC   C4B39862  23.813  26.765  14.142 -0.1366 -0.1695 -0.0838
 3398DOPE   NH339863  32.686  27.643  16.205 -0.0817 -0.1395 -0.0663
 3398DOPE   PO439864  32.493  27.432  16.064  0.0390  0.2624 -0.1603
 3398DOPE   GL139865  32.373  27.227  15.830  0.1568 -0.5185  0.1155
 3398DOPE   GL239866  32.340  27.414  15.591  0.1247  0.2871 -0.1405
 3398DOPE   C1A39867  32.711  27.019  15.497  0.0193  0.0930  0.1202
 3398DOPE   D2A39868  32.673  26.995  15.034  0.1763  0.0408  0.2834
 3398DOPE   C3A39869  33.019  26.921  14.696  0.0532  0.0540 -0.0007
 3398DOPE   C4A39870  33.102  26.607  14.357  0.0208 -0.2475  0.0498
 3398DOPE   C1B39871  32.608  27.451  15.215  0.0177 -0.0819 -0.0548
 3398DOPE   D2B39872  32.605  27.414  14.752  0.1944  0.0326 -0.2300
 3398DOPE   C3B39873  32.802  27.287  14.367  0.0936 -0.0561  0.1063
 3398DOPE   C4B39874  33.249  27.181  14.247  0.0759 -0.0119 -0.2101
 3399DOPE   NH339875  32.646  31.663  15.904  0.2149 -0.1041  0.1568
 3399DOPE   PO439876  32.863  31.590  15.715  0.2982  0.4326  0.0920
 3399DOPE   GL139877  32.668  31.521  15.389  0.1940 -0.0070 -0.2549
 3399DOPE   GL239878  32.450  31.426  15.382  0.0974  0.1044 -0.2071
 3399DOPE   C1A39879  32.760  31.606  14.955  0.0472 -0.1982  0.1260
 3399DOPE   D2A39880  32.834  31.776  14.516  0.0825 -0.0617 -0.0190
 3399DOPE   C3A39881  32.674  31.400  14.458 -0.2613  0.0462  0.3769
 3399DOPE   C4A39882  32.439  31.050  14.216 -0.1453 -0.1420 -0.1590
 3399DOPE   C1B39883  32.362  31.272  14.905 -0.1807  0.2247  0.1319
 3399DOPE   D2B39884  32.140  31.407  14.504  0.1039 -0.3072  0.0555
 3399DOPE   C3B39885  31.920  30.974  14.311 -0.0314  0.0837  0.1092
 3399DOPE   C4B39886  32.155  30.638  14.052 -0.2797 -0.3269  0.1295
 3400DOPC   NC339887  24.995  22.497  15.889  0.0241  0.0559 -0.1630
 3400DOPC   PO439888  24.754  22.846  15.896  0.2345 -0.1091  0.0840
 3400DOPC   GL139889  24.864  22.848  15.458 -0.0787 -0.0092 -0.2712
 3400DOPC   GL239890  24.601  22.799  15.399  0.1257 -0.2259  0.2534
 3400DOPC   C1A39891  25.264  23.016  15.341  0.2521  0.0068 -0.3253
 3400DOPC   D2A39892  25.667  22.989  15.521 -0.0167 -0.4332 -0.0001
 3400DOPC   C3A39893  25.614  23.456  15.472 -0.0327 -0.1307 -0.4184
 3400DOPC   C4A39894  25.695  23.903  15.338  0.2469  0.2197 -0.0518
 3400DOPC   C1B39895  24.669  22.872  14.917 -0.0709 -0.0423  0.0432
 3400DOPC   D2B39896  24.673  23.132  14.576 -0.1079 -0.0187  0.1710
 3400DOPC   C3B39897  24.925  22.909  14.207  0.0579 -0.1078  0.0164
 3400DOPC   C4B39898  25.379  22.828  14.081  0.0664 -0.2082 -0.3965
 3401DOPC   NC339899  34.665  26.805  15.704  0.2744 -0.2673 -0.0904
 3401DOPC   PO439900  34.433  26.542  15.860  0.2273 -0.1007  0.3125
 3401DOPC   GL139901  34.234  26.501  15.535 -0.4339  0.0616 -0.1072
 3401DOPC   GL239902  34.270  26.755  15.379 -0.1044  0.0029 -0.0492
 3401DOPC   C1A39903  34.160  26.201  15.230 -0.2248  0.0257  0.1436
 3401DOPC   D2A39904  34.194  26.199  14.785 -0.3104 -0.2666  0.1132
 3401DOPC   C3A39905  34.552  25.867  14.765 -0.2099 -0.0615 -0.0836
 3401DOPC   C4A39906  35.019  25.926  14.710 -0.0140 -0.0671 -0.0212
 3401DOPC   C1B39907  34.008  27.077  15.258 -0.1293  0.3663 -0.0364
 3401DOPC   D2B39908  33.597  26.985  15.047 -0.1327 -0.1159  0.1011
 3401DOPC   C3B39909  33.513  26.825  14.616 -0.4939  0.1330  0.0705
 3401DOPC   C4B39910  33.543  26.716  14.157 -0.0082  0.0337  0.2953
 3402DOPE   NH339911  30.519  25.349  15.960  0.3083 -0.2694  0.3997
 3402DOPE   PO439912  30.572  25.650  16.031  0.1214  0.2951 -0.4101
 3402DOPE   GL139913  30.336  25.643  15.640 -0.2524  0.2319  0.0144
 3402DOPE   GL239914  30.309  25.934  15.649 -0.0480  0.0637 -0.0851
 3402DOPE   C1A39915  30.425  25.622  15.222  0.0933  0.0307 -0.1374
 3402DOPE   D2A39916  30.427  25.458  14.792 -0.0072  0.0260  0.1668
 3402DOPE   C3A39917  30.260  25.054  14.613 -0.0313  0.0877 -0.0175
 3402DOPE   C4A39918  30.009  24.912  14.206 -0.0578  0.0159  0.0859
 3402DOPE   C1B39919  30.700  26.048  15.451  0.2196  0.1424  0.0394
 3402DOPE   D2B39920  30.853  26.456  15.383  0.0587 -0.0155  0.1500
 3402DOPE   C3B39921  30.831  26.592  14.978 -0.1058 -0.0456  0.3140
 3402DOPE   C4B39922  30.996  26.799  14.568  0.1221 -0.0199  0.0555
 3403DOPE   NH339923  34.241  30.448  15.998 -0.2332  0.3041 -0.1955
 3403DOPE   PO439924  34.073  30.191  16.121 -0.3410 -0.1155  0.0286
 3403DOPE   GL139925  34.238  29.916  15.847  0.0874  0.0198  0.2454
 3403DOPE   GL239926  34.266  30.126  15.584 -0.0134  0.0972  0.1185
 3403DOPE   C1A39927  34.356  29.577  15.542 -0.0100  0.1049 -0.1503
 3403DOPE   D2A39928  34.198  29.451  15.140  0.0331 -0.2174 -0.1928
 3403DOPE   C3A39929  33.877  29.502  14.806 -0.2869  0.0236 -0.0163
 3403DOPE   C4A39930  33.642  29.321  14.428  0.1399 -0.1065  0.2469
 3403DOPE   C1B39931  34.121  29.979  15.127  0.0100 -0.1269 -0.0235
 3403DOPE   D2B39932  34.246  29.776  14.718  0.3205  0.1250  0.1102
 3403DOPE   C3B39933  34.038  29.635  14.298  0.1097  0.4780  0.1477
 3403DOPE   C4B39934  33.964  29.230  14.042 -0.1385  0.3504  0.2752
 3404DOPS   CNO39935  25.282  27.628  16.208 -0.3950 -0.0825  0.0312
 3404DOPS   PO439936  25.394  27.378  15.921 -0.0953  0.0056  0.1114
 3404DOPS   GL139937  25.275  27.543  15.638  0.1964  0.4367 -0.1888
 3404DOPS   GL239938  24.989  27.541  15.490 -0.3721  0.2506  0.3475
 3404DOPS   C1A39939  25.502  27.832  15.385 -0.0082 -0.1745 -0.2471
 3404DOPS   D2A39940  25.569  28.310  15.255  0.2594  0.4292 -0.0881
 3404DOPS   C3A39941  25.326  28.553  14.978 -0.0876  0.0324 -0.2267
 3404DOPS   C4A39942  25.081  28.914  14.826  0.0094 -0.0819  0.0245
 3404DOPS   C1B39943  25.172  27.509  15.071 -0.0876  0.0411  0.0970
 3404DOPS   D2B39944  25.307  27.941  14.924 -0.2409  0.0971  0.1102
 3404DOPS   C3B39945  25.101  28.197  14.644  0.0863  0.0976 -0.0997
 3404DOPS   C4B39946  25.330  28.384  14.291  0.1756 -0.0294 -0.1600
 3405POSM   NC339947  27.674  33.808  15.997 -0.1053 -0.0927  0.1054
 3405POSM   PO439948  27.452  33.997  15.776  0.1195  0.3045  0.3731
 3405POSM   AM139949  27.598  34.093  15.455  0.2388 -0.0623  0.0498
 3405POSM   AM239950  27.629  34.004  15.194  0.1604  0.0686 -0.1681
 3405POSM   T1A39951  27.830  34.471  15.219 -0.0441  0.0450 -0.1787
 3405POSM   C2A39952  28.027  34.861  15.044  0.0003 -0.0518  0.1926
 3405POSM   C3A39953  28.161  35.194  14.772 -0.0855 -0.0050 -0.2744
 3405POSM   C1B39954  27.658  34.109  14.894 -0.3127 -0.1013 -0.0295
 3405POSM   D2B39955  27.826  34.234  14.493 -0.1988  0.2462 -0.3937
 3405POSM   C3B39956  27.618  34.537  14.240  0.0076 -0.3219  0.0684
 3405POSM   C4B39957  27.324  34.894  14.192  0.0387  0.0036  0.0265
 3406DOPC   NC339958  23.662  28.927  15.758 -0.0044  0.0542  0.2892
 3406DOPC   PO439959  23.470  29.212  15.905  0.1392  0.1074 -0.1962
 3406DOPC   GL139960  23.545  29.346  15.606  0.4032 -0.0051  0.3564
 3406DOPC   GL239961  23.307  29.282  15.385  0.0427 -0.0265 -0.0155
 3406DOPC   C1A39962  23.601  29.621  15.205 -0.1416 -0.0206  0.0913
 3406DOPC   D2A39963  23.523  29.506  14.810  0.2795  0.3207  0.1693
 3406DOPC   C3A39964  23.687  29.262  14.473 -0.2304 -0.0718 -0.3524
 3406DOPC   C4A39965  24.131  29.336  14.446  0.1062 -0.1010 -0.0387
 3406DOPC   C1B39966  23.667  29.099  15.184 -0.0400  0.0965 -0.0643
 3406DOPC   D2B39967  23.957  29.230  14.886 -0.3667  0.0884  0.2952
 3406DOPC   C3B39968  24.087  29.695  14.864 -0.1502  0.3026  0.0979
 3406DOPC   C4B39969  24.398  30.040  14.913 -0.0813  0.0818  0.3163
 3407DOPC   NC339970  27.898  25.997  15.455 -0.0928  0.1137 -0.1899
 3407DOPC   PO439971  27.614  26.075  15.732 -0.1809 -0.1193  0.1369
 3407DOPC   GL139972  27.484  26.330  15.405  0.4551 -0.0905  0.0226
 3407DOPC   GL239973  27.443  26.151  15.203 -0.1202 -0.1656 -0.0667
 3407DOPC   C1A39974  27.480  26.672  15.154  0.2195  0.1328 -0.3240
 3407DOPC   D2A39975  27.255  27.018  15.067  0.0508 -0.1035 -0.2865
 3407DOPC   C3A39976  27.223  27.230  14.648  0.2114 -0.1401  0.1298
 3407DOPC   C4A39977  27.387  27.131  14.216 -0.1715  0.0427  0.1624
 3407DOPC   C1B39978  27.263  26.297  14.805 -0.2530 -0.2751 -0.0920
 3407DOPC   D2B39979  27.037  26.412  14.406 -0.1771 -0.1155  0.2769
 3407DOPC   C3B39980  26.941  26.783  14.163  0.0245  0.1921 -0.1670
 3407DOPC   C4B39981  26.519  26.954  14.056  0.0367  0.0688  0.3689
 3408DOPS   CNO39982  25.988  24.305  16.125  0.0607 -0.0039  0.0567
 3408DOPS   PO439983  26.136  24.033  16.320  0.2275 -0.1930 -0.0543
 3408DOPS   GL139984  26.097  23.698  16.070  0.1529  0.4485  0.0570
 3408DOPS   GL239985  25.839  23.802  15.899 -0.0292 -0.6348  0.0254
 3408DOPS   C1A39986  26.267  23.553  15.662 -0.0672 -0.0770 -0.0573
 3408DOPS   D2A39987  26.579  23.302  15.447  0.3089 -0.1517 -0.0589
 3408DOPS   C3A39988  26.969  23.145  15.371  0.3114 -0.1531  0.4191
 3408DOPS   C4A39989  27.168  22.792  15.179 -0.1188  0.0169 -0.2716
 3408DOPS   C1B39990  26.090  24.020  15.600  0.3882 -0.0428  0.2393
 3408DOPS   D2B39991  26.200  24.383  15.292  0.1127 -0.2018 -0.0336
 3408DOPS   C3B39992  26.478  24.222  14.986  0.0382 -0.1298  0.3627
 3408DOPS   C4B39993  26.666  24.023  14.629 -0.0743  0.1611  0.1389
 3409DOPC   NC339994  33.183  34.579  16.137 -0.1312  0.0720 -0.2424
 3409DOPC   PO439995  32.861  34.767  16.259  0.0695 -0.0868  0.1324
 3409DOPC   GL139996  32.995  34.869  15.822  0.1600 -0.0723 -0.3283
 3409DOPC   GL239997  32.852  35.077  15.669  0.0251  0.1650 -0.0598
 3409DOPC   C1A39998  33.306  35.146  15.764  0.0970 -0.1102  0.0019
 3409DOPC   D2A39999  33.611  35.224  15.410  0.0248  0.1315 -0.2052
 3409DOPC   C3A40000  33.628  34.943  15.011 -0.0361 -0.2627 -0.2302
 3409DOPC   C4A40001  33.639  34.513  14.861  0.1836 -0.0460 -0.2396
 3409DOPC   C1B40002  32.971  35.501  15.480 -0.0458 -0.2450 -0.2729
 3409DOPC   D2B40003  33.128  35.909  15.342  0.1028 -0.1028 -0.0836
 3409DOPC   C3B40004  33.132  35.971  14.887  0.2339  0.1045 -0.1937
 3409DOPC   C4B40005  32.874  36.219  14.565 -0.2007  0.0905  0.2812
 3410POSM   NC340006  31.769  27.396  16.270  0.1211  0.0648 -0.0836
 3410POSM   PO440007  32.014  27.426  16.003  0.2466 -0.1364 -0.1434
 3410POSM   AM140008  31.867  27.483  15.713 -0.0175 -0.1701  0.2550
 3410POSM   AM240009  31.908  27.696  15.558 -0.0538  0.0264 -0.1852
 3410POSM   T1A40010  31.903  27.340  15.203  0.1993 -0.2549 -0.1499
 3410POSM   C2A40011  32.073  27.034  14.963 -0.0853  0.1720 -0.2173
 3410POSM   C3A40012  32.193  27.042  14.520  0.1008  0.0327 -0.2262
 3410POSM   C1B40013  31.828  27.999  15.485  0.2069 -0.2416  0.4640
 3410POSM   D2B40014  32.004  28.464  15.411  0.1772  0.3710 -0.0131
 3410POSM   C3B40015  31.986  28.707  15.047 -0.0026 -0.2350  0.1504
 3410POSM   C4B40016  31.582  28.753  14.809  0.1135 -0.3442 -0.1795
 3411DOPC   NC340017  29.038  24.934  16.346 -0.1516 -0.4621 -0.4751
 3411DOPC   PO440018  29.439  24.916  16.431  0.0781 -0.0882  0.1689
 3411DOPC   GL140019  29.353  24.787  15.994 -0.1566  0.0585 -0.0487
 3411DOPC   GL240020  29.277  25.075  15.938 -0.3869  0.0544 -0.2994
 3411DOPC   C1A40021  29.513  24.465  15.720 -0.1677 -0.0006  0.0047
 3411DOPC   D2A40022  29.327  24.159  15.375 -0.3575 -0.0497 -0.0947
 3411DOPC   C3A40023  29.307  24.184  14.934 -0.1535 -0.1016 -0.0218
 3411DOPC   C4A40024  29.327  24.179  14.492 -0.1282  0.1902 -0.1398
 3411DOPC   C1B40025  29.573  24.927  15.546  0.1250 -0.3998 -0.0037
 3411DOPC   D2B40026  29.716  24.552  15.246 -0.0877 -0.2111  0.1300
 3411DOPC   C3B40027  29.926  24.185  15.323 -0.2880 -0.0078 -0.1713
 3411DOPC   C4B40028  30.145  23.796  15.370  0.0588 -0.0943 -0.0432
 3412DOPC   NC340029  32.734  23.495  16.075  0.0626  0.1639  0.2202
 3412DOPC   PO440030  32.532  23.775  16.280 -0.1836  0.2813  0.1129
 3412DOPC   GL140031  32.287  23.616  16.052 -0.2037  0.1458 -0.1951
 3412DOPC   GL240032  32.044  23.675  15.960  0.2180  0.2706  0.2166
 3412DOPC   C1A40033  32.466  23.467  15.653  0.1754  0.0324 -0.1158
 3412DOPC   D2A40034  32.445  23.414  15.158  0.3464  0.2998 -0.3580
 3412DOPC   C3A40035  32.800  23.172  14.869  0.2141  0.2031 -0.3304
 3412DOPC   C4A40036  32.887  22.958  14.459  0.0897  0.2365  0.2577
 3412DOPC   C1B40037  32.031  23.668  15.483  0.3081 -0.1582 -0.1219
 3412DOPC   D2B40038  32.009  23.674  15.028 -0.1791  0.0734  0.0034
 3412DOPC   C3B40039  31.793  23.431  14.752 -0.1468  0.0375 -0.0958
 3412DOPC   C4B40040  31.605  23.096  14.443 -0.2072 -0.0720  0.0029
 3413DOPE   NH340041  29.635  22.708  16.806  0.0055 -0.1659 -0.2422
 3413DOPE   PO440042  29.322  22.696  16.765  0.0339  0.1073  0.0723
 3413DOPE   GL140043  29.417  22.514  16.366  0.1309 -0.2260  0.3789
 3413DOPE   GL240044  29.650  22.419  16.391 -0.1418  0.2174  0.1228
 3413DOPE   C1A40045  29.398  22.346  15.975  0.2877 -0.4400  0.0113
 3413DOPE   D2A40046  29.792  22.366  15.677  0.1614 -0.3411  0.0390
 3413DOPE   C3A40047  29.722  22.517  15.271  0.0761 -0.1093  0.3491
 3413DOPE   C4A40048  29.468  22.604  14.934 -0.2469 -0.1636  0.2424
 3413DOPE   C1B40049  29.957  22.560  16.076  0.1453 -0.4056  0.0851
 3413DOPE   D2B40050  30.274  22.622  15.708  0.2522 -0.2317  0.0991
 3413DOPE   C3B40051  30.053  22.892  15.388  0.1337 -0.1363 -0.1917
 3413DOPE   C4B40052  29.576  23.002  15.254 -0.3278  0.0438  0.2210
 3414POSM   NC340053  33.825  24.432  15.849 -0.1358  0.0330 -0.1064
 3414POSM   PO440054  34.026  24.152  16.046 -0.1432 -0.2227 -0.1740
 3414POSM   AM140055  33.976  24.021  15.747 -0.0667  0.0926  0.1847
 3414POSM   AM240056  33.796  24.044  15.523 -0.3552 -0.2935  0.2175
 3414POSM   T1A40057  34.004  23.618  15.513 -0.0092  0.3507 -0.2536
 3414POSM   C2A40058  34.153  23.323  15.219 -0.1315 -0.1209  0.0095
 3414POSM   C3A40059  34.271  23.227  14.793  0.0288 -0.1141  0.0332
 3414POSM   C1B40060  33.462  24.167  15.529  0.1806 -0.1179 -0.2152
 3414POSM   D2B40061  32.993  24.232  15.442 -0.1317  0.0438  0.2095
 3414POSM   C3B40062  33.029  24.220  15.008 -0.1025  0.2463 -0.0242
 3414POSM   C4B40063  32.968  24.421  14.612  0.1688 -0.3509  0.0913
 3415POSM   NC340064  25.220  30.282  16.276  0.0398 -0.0670 -0.2786
 3415POSM   PO440065  25.566  30.280  16.112 -0.1236 -0.0725 -0.1809
 3415POSM   AM140066  25.550  30.292  15.787  0.1393  0.2437 -0.2525
 3415POSM   AM240067  25.697  30.115  15.561  0.1282 -0.1256  0.1508
 3415POSM   T1A40068  25.263  30.384  15.411  0.1561 -0.2320 -0.1254
 3415POSM   C2A40069  25.095  30.359  14.961 -0.0214 -0.0643 -0.0271
 3415POSM   C3A40070  24.882  30.527  14.559  0.0167 -0.1030  0.1421
 3415POSM   C1B40071  26.025  30.216  15.441 -0.2551  0.1251  0.1460
 3415POSM   D2B40072  26.313  30.210  15.115 -0.1982 -0.1341 -0.1816
 3415POSM   C3B40073  26.148  29.782  14.930 -0.4460 -0.1173 -0.1520
 3415POSM   C4B40074  26.226  29.421  14.588 -0.1345  0.0444 -0.2359
 3416DOPE   NH340075  24.597  24.575  15.405  0.2373  0.2262  0.0156
 3416DOPE   PO440076  24.837  24.803  15.336  0.0148  0.0402 -0.1157
 3416DOPE   GL140077  25.023  25.133  15.085  0.1214 -0.3120  0.2738
 3416DOPE   GL240078  25.262  25.008  15.139 -0.0656  0.2308  0.0986
 3416DOPE   C1A40079  25.221  25.218  14.675  0.4925  0.0553 -0.2244
 3416DOPE   D2A40080  25.291  25.032  14.250 -0.1544  0.1400  0.1280
 3416DOPE   C3A40081  25.029  24.660  14.094 -0.2029  0.1598  0.0991
 3416DOPE   C4A40082  24.686  24.368  13.907 -0.0341  0.0599  0.1088
 3416DOPE   C1B40083  25.486  24.797  14.780  0.0701 -0.2291  0.3792
 3416DOPE   D2B40084  25.595  24.539  14.438 -0.1079 -0.0206  0.2601
 3416DOPE   C3B40085  25.373  24.337  14.031  0.1435  0.0332  0.1198
 3416DOPE   C4B40086  25.004  24.027  14.053 -0.0879  0.1263  0.5521
 3417POSM   NC340087  23.835  25.673  15.703  0.0359 -0.1840 -0.2401
 3417POSM   PO440088  23.824  25.323  15.550  0.1972  0.1428  0.0894
 3417POSM   AM140089  23.978  25.249  15.258  0.2722  0.1383 -0.1918
 3417POSM   AM240090  24.220  25.427  15.171 -0.1434 -0.1286  0.1256
 3417POSM   T1A40091  24.250  24.875  15.010  0.0460  0.1645  0.0909
 3417POSM   C2A40092  24.586  24.663  14.800 -0.4125 -0.1696 -0.0566
 3417POSM   C3A40093  24.980  24.740  14.600 -0.3416  0.3493  0.0835
 3417POSM   C1B40094  24.130  25.353  14.870 -0.1960 -0.2879  0.2751
 3417POSM   D2B40095  23.805  25.358  14.542 -0.0749 -0.1607 -0.0779
 3417POSM   C3B40096  23.911  25.342  14.126 -0.1448 -0.0463 -0.0082
 3417POSM   C4B40097  24.165  25.098  13.820 -0.3181  0.0675  0.1452
 3418DOPE   NH340098  27.492  33.487  15.641 -0.3024  0.1141  0.2794
 3418DOPE   PO440099  27.752  33.611  15.517  0.1103 -0.0512 -0.3730
 3418DOPE   GL140100  27.755  33.545  15.125  0.1514  0.2527  0.0250
 3418DOPE   GL240101  27.409  33.602  15.134 -0.2800  0.1288  0.0129
 3418DOPE   C1A40102  28.099  33.452  14.842 -0.1821 -0.1706  0.1265
 3418DOPE   D2A40103  28.480  33.346  14.655  0.0423 -0.0885  0.0544
 3418DOPE   C3A40104  28.569  33.500  14.223  0.0244 -0.2035  0.1360
 3418DOPE   C4A40105  28.918  33.650  13.891 -0.2068 -0.0175  0.2454
 3418DOPE   C1B40106  27.224  33.894  14.786  0.1090 -0.2587 -0.1058
 3418DOPE   D2B40107  27.314  34.321  14.567  0.2293  0.2727  0.0698
 3418DOPE   C3B40108  27.643  34.608  14.786 -0.2311  0.0498  0.1530
 3418DOPE   C4B40109  27.719  35.007  14.565  0.1655  0.1449  0.0528
 3419POSM   NC340110  24.500  27.586  15.630  0.1759  0.4324 -0.2415
 3419POSM   PO440111  24.153  27.669  15.785 -0.0338 -0.1931  0.1017
 3419POSM   AM140112  24.026  27.647  15.512 -0.0212  0.0526 -0.1289
 3419POSM   AM240113  23.794  27.511  15.406  0.0758  0.1234  0.0411
 3419POSM   T1A40114  23.979  27.925  15.155 -0.0082 -0.0664  0.3206
 3419POSM   C2A40115  23.721  28.294  15.089 -0.0021 -0.0102  0.1350
 3419POSM   C3A40116  23.411  28.452  14.816 -0.0782 -0.0822  0.0670
 3419POSM   C1B40117  23.808  27.527  15.030  0.0025  0.3246  0.2229
 3419POSM   D2B40118  23.775  27.823  14.683 -0.3571  0.4116  0.1274
 3419POSM   C3B40119  23.784  27.803  14.211  0.3286  0.2486 -0.2078
 3419POSM   C4B40120  23.838  27.652  13.794 -0.3438  0.3288  0.2916
 3420DOPS   CNO40121  34.588  25.079  16.225  0.1096  0.2030 -0.0343
 3420DOPS   PO440122  34.591  25.236  15.907 -0.0784 -0.0385 -0.3771
 3420DOPS   GL140123  34.838  25.063  15.624 -0.2823  0.0751  0.0618
 3420DOPS   GL240124  34.852  25.337  15.447 -0.2344  0.1686  0.2036
 3420DOPS   C1A40125  34.833  24.981  15.115  0.2228  0.0939 -0.0487
 3420DOPS   D2A40126  34.942  24.874  14.645  0.0914 -0.0506  0.1632
 3420DOPS   C3A40127  35.388  24.707  14.567  0.3617  0.0267  0.0204
 3420DOPS   C4A40128  35.760  24.376  14.382 -0.1795 -0.1879 -0.1645
 3420DOPS   C1B40129  35.261  25.206  15.228 -0.1271 -0.0891  0.3538
 3420DOPS   D2B40130  35.395  24.753  15.125  0.3168 -0.2100 -0.1008
 3420DOPS   C3B40131  35.672  24.419  15.017 -0.3187 -0.0404  0.0046
 3420DOPS   C4B40132  35.642  24.040  14.736 -0.3059 -0.0879 -0.0280
 3421DOPC   NC340133  29.310  33.529  15.803 -0.1199 -0.1073  0.0510
 3421DOPC   PO440134  29.027  33.286  15.944 -0.3272  0.1323  0.0688
 3421DOPC   GL140135  28.910  33.188  15.493 -0.3858  0.0992  0.4357
 3421DOPC   GL240136  28.604  33.064  15.565 -0.2771  0.1127  0.2033
 3421DOPC   C1A40137  29.065  32.892  15.140  0.0808 -0.1014  0.0038
 3421DOPC   D2A40138  29.255  32.658  14.823 -0.0985  0.2580 -0.0032
 3421DOPC   C3A40139  29.021  32.247  14.637 -0.0236 -0.2429 -0.1612
 3421DOPC   C4A40140  28.610  31.960  14.698 -0.1037  0.0251  0.1295
 3421DOPC   C1B40141  28.419  32.951  15.141  0.0282 -0.0221  0.1716
 3421DOPC   D2B40142  28.240  32.842  14.728  0.1306 -0.1850 -0.1971
 3421DOPC   C3B40143  28.121  33.163  14.389 -0.2154 -0.0789 -0.1307
 3421DOPC   C4B40144  27.921  33.313  14.039 -0.2219 -0.3150  0.0218
 3422DOPS   CNO40145  23.745   0.179  16.023 -0.1743  0.0721  0.3465
 3422DOPS   PO440146  23.535  -0.135  16.056 -0.0816 -0.0378  0.0071
 3422DOPS   GL140147  23.368  -0.383  15.738  0.0112 -0.0385  0.0533
 3422DOPS   GL240148  23.109  -0.302  15.626  0.2881 -0.0688  0.0845
 3422DOPS   C1A40149  23.614  -0.673  15.488 -0.1390  0.2623  0.0115
 3422DOPS   D2A40150  23.977  -0.750  15.238  0.0805 -0.2587  0.1335
 3422DOPS   C3A40151  23.941  -0.959  14.858 -0.1360 -0.1484 -0.0206
 3422DOPS   C4A40152  23.930  -1.253  14.524 -0.4824 -0.0278 -0.0704
 3422DOPS   C1B40153  23.202  -0.507  15.224 -0.1614  0.1683 -0.0139
 3422DOPS   D2B40154  23.172  -0.446  14.732 -0.0143  0.0598 -0.2695
 3422DOPS   C3B40155  22.859  -0.162  14.477 -0.2107  0.0046  0.2753
 3422DOPS   C4B40156  22.449  -0.178  14.268 -0.0981 -0.1974  0.0863
 3423DOPE   NH340157  32.566  32.448  15.972 -0.3027 -0.0760 -0.3699
 3423DOPE   PO440158  32.730  32.698  15.803  0.3713  0.1868  0.0862
 3423DOPE   GL140159  32.859  32.530  15.518  0.1929  0.1642 -0.1766
 3423DOPE   GL240160  32.626  32.400  15.392 -0.1488 -0.2093 -0.1376
 3423DOPE   C1A40161  33.092  32.538  15.153 -0.0125 -0.2953  0.0333
 3423DOPE   D2A40162  33.192  32.552  14.735 -0.3058 -0.1772 -0.1317
 3423DOPE   C3A40163  33.312  32.742  14.376 -0.2370  0.3474 -0.0866
 3423DOPE   C4A40164  33.323  32.612  13.930 -0.1932  0.2752  0.2604
 3423DOPE   C1B40165  32.486  32.466  14.979  0.1733 -0.1798 -0.0257
 3423DOPE   D2B40166  32.069  32.511  14.786  0.0234 -0.1884 -0.2314
 3423DOPE   C3B40167  32.064  32.441  14.341  0.1048  0.0428 -0.1676
 3423DOPE   C4B40168  31.709  32.351  14.095 -0.1987  0.0369 -0.2259
 3424DOPC   NC340169  25.439  29.721  16.407 -0.1040  0.2102  0.1183
 3424DOPC   PO440170  25.100  29.773  16.205 -0.2221 -0.2265 -0.1110
 3424DOPC   GL140171  24.982  29.885  15.881  0.0545  0.0605 -0.2585
 3424DOPC   GL240172  25.157  30.059  15.841  0.1920  0.0694 -0.1246
 3424DOPC   C1A40173  24.829  29.624  15.550  0.1274  0.0040 -0.0853
 3424DOPC   D2A40174  24.853  29.273  15.189 -0.2039  0.1067  0.0820
 3424DOPC   C3A40175  25.013  29.460  14.773  0.1788  0.0753 -0.4251
 3424DOPC   C4A40176  25.275  29.795  14.660  0.0773 -0.1004  0.1424
 3424DOPC   C1B40177  25.321  29.825  15.486  0.1088  0.1032  0.0558
 3424DOPC   D2B40178  25.348  29.547  15.168 -0.2204  0.1509 -0.0866
 3424DOPC   C3B40179  25.423  29.161  15.231  0.0073 -0.0879 -0.1265
 3424DOPC   C4B40180  25.257  28.752  15.445 -0.0015  0.3110  0.2195
 3425DOPS   CNO40181  22.942  26.245  15.679  0.0643 -0.1166  0.1011
 3425DOPS   PO440182  23.272  26.363  15.500  0.0963  0.3890  0.0842
 3425DOPS   GL140183  23.438  26.041  15.189  0.1618 -0.2544  0.0623
 3425DOPS   GL240184  23.263  25.779  15.043 -0.0403 -0.1616  0.1027
 3425DOPS   C1A40185  23.395  26.238  14.698  0.2280 -0.0292 -0.0779
 3425DOPS   D2A40186  23.116  26.112  14.349 -0.0217 -0.0207 -0.0102
 3425DOPS   C3A40187  23.096  25.893  13.899  0.0272  0.0227 -0.0225
 3425DOPS   C4A40188  23.294  25.562  13.698  0.2664  0.0728  0.0944
 3425DOPS   C1B40189  23.387  25.568  14.701 -0.1873  0.2193 -0.0763
 3425DOPS   D2B40190  23.252  25.270  14.433 -0.1075  0.2269 -0.0106
 3425DOPS   C3B40191  23.450  25.115  14.008  0.0944  0.0433 -0.0514
 3425DOPS   C4B40192  23.743  25.196  13.661 -0.0852  0.1056  0.1322
 3426DOPC   NC340193  26.774  25.506  16.447  0.1727 -0.3791 -0.0368
 3426DOPC   PO440194  26.610  25.188  16.271  0.0255  0.1768  0.0389
 3426DOPC   GL140195  26.790  25.236  15.907  0.0485 -0.1386  0.3734
 3426DOPC   GL240196  26.880  25.505  15.970 -0.0708  0.2405 -0.0171
 3426DOPC   C1A40197  26.678  25.117  15.462 -0.1491  0.1415  0.3149
 3426DOPC   D2A40198  26.612  24.799  15.145 -0.0016 -0.0277 -0.0753
 3426DOPC   C3A40199  26.824  25.053  14.849  0.2101 -0.0307  0.2633
 3426DOPC   C4A40200  26.985  24.954  14.416 -0.1493  0.2291 -0.1847
 3426DOPC   C1B40201  27.021  25.511  15.570 -0.1456 -0.1516  0.2072
 3426DOPC   D2B40202  27.430  25.651  15.402  0.2626  0.1915 -0.1620
 3426DOPC   C3B40203  27.543  25.667  14.988 -0.0019  0.0774 -0.0241
 3426DOPC   C4B40204  27.382  25.780  14.596 -0.1086  0.2361 -0.0590
 3427DOPE   NH340205  33.687  32.426  16.192  0.2631  0.0001  0.3078
 3427DOPE   PO440206  33.563  32.240  15.956 -0.1159  0.1155  0.2761
 3427DOPE   GL140207  33.562  32.112  15.616 -0.1575 -0.0465  0.1397
 3427DOPE   GL240208  33.750  32.328  15.443 -0.1481  0.1226 -0.1014
 3427DOPE   C1A40209  33.733  31.915  15.238  0.0164 -0.1703 -0.3034
 3427DOPE   D2A40210  33.750  31.905  14.828 -0.0453  0.3542  0.1307
 3427DOPE   C3A40211  33.320  31.954  14.662  0.0527  0.2794  0.2322
 3427DOPE   C4A40212  33.275  32.150  14.214  0.1203  0.3960 -0.2556
 3427DOPE   C1B40213  33.564  32.341  15.038 -0.0151 -0.0834  0.3962
 3427DOPE   D2B40214  33.628  32.361  14.555  0.0102 -0.0115 -0.0244
 3427DOPE   C3B40215  33.826  32.222  14.150 -0.1057  0.0858  0.1581
 3427DOPE   C4B40216  34.185  32.088  13.923 -0.1979  0.2477  0.1201
 3428POSM   NC340217  30.700  33.057  16.212  0.0883  0.0451  0.4413
 3428POSM   PO440218  30.296  32.892  16.184  0.3966 -0.1609  0.1475
 3428POSM   AM140219  30.342  32.747  15.893  0.0969  0.0663 -0.3170
 3428POSM   AM240220  30.311  32.830  15.605 -0.2305  0.1843  0.2034
 3428POSM   T1A40221  30.327  32.345  15.633 -0.2758  0.0318 -0.0381
 3428POSM   C2A40222  30.221  31.889  15.554  0.1785 -0.3644 -0.0978
 3428POSM   C3A40223  30.323  31.589  15.207  0.1556 -0.1454  0.0709
 3428POSM   C1B40224  30.068  32.777  15.361  0.2061 -0.1641  0.0885
 3428POSM   D2B40225  30.063  32.742  14.882  0.0865 -0.1304  0.2417
 3428POSM   C3B40226  30.170  33.063  14.576  0.1011 -0.1224 -0.6096
 3428POSM   C4B40227  30.232  33.544  14.491 -0.1117 -0.0963  0.4724
 3429DOPE   NH340228  28.733  32.812  16.053  0.4433  0.2395  0.0810
 3429DOPE   PO440229  28.609  32.576  15.846  0.0899  0.0844 -0.1007
 3429DOPE   GL140230  28.470  32.653  15.551 -0.1210  0.1529 -0.0215
 3429DOPE   GL240231  28.574  32.517  15.304  0.1765 -0.3668 -0.1829
 3429DOPE   C1A40232  28.059  32.503  15.298  0.1160 -0.0086 -0.1756
 3429DOPE   D2A40233  28.019  32.314  14.948 -0.0418 -0.1070 -0.2375
 3429DOPE   C3A40234  28.144  31.873  14.780  0.2129 -0.0122  0.0441
 3429DOPE   C4A40235  28.326  31.469  14.709  0.1829 -0.0242 -0.2169
 3429DOPE   C1B40236  28.492  32.093  15.148 -0.1212 -0.0843  0.1975
 3429DOPE   D2B40237  28.500  31.704  15.422 -0.2504 -0.0952  0.4530
 3429DOPE   C3B40238  28.116  31.563  15.640 -0.0423  0.2933  0.2301
 3429DOPE   C4B40239  27.763  31.442  15.919  0.1031 -0.0074  0.0832
 3430POSM   NC340240  31.195  32.925  15.608  0.0127  0.2704 -0.0903
 3430POSM   PO440241  30.843  32.863  15.741  0.1224 -0.0903  0.2335
 3430POSM   AM140242  30.816  32.651  15.459 -0.0579 -0.0182 -0.2754
 3430POSM   AM240243  30.919  32.704  15.209 -0.0863  0.4667  0.1469
 3430POSM   T1A40244  30.526  32.422  15.094 -0.0963 -0.2059 -0.1279
 3430POSM   C2A40245  30.453  32.362  14.624 -0.4473  0.1731  0.0036
 3430POSM   C3A40246  30.393  32.271  14.098 -0.1083  0.0690  0.1497
 3430POSM   C1B40247  31.005  32.546  14.914 -0.3433 -0.0108  0.1585
 3430POSM   D2B40248  31.218  32.354  14.610  0.0349  0.1655  0.0221
 3430POSM   C3B40249  31.572  32.155  14.593  0.0543 -0.0248 -0.0437
 3430POSM   C4B40250  31.869  31.892  14.295  0.2376  0.2464  0.5119
 3431DOPC   NC340251  31.826  28.377  15.877 -0.0352 -0.3171  0.1305
 3431DOPC   PO440252  31.827  28.739  15.980 -0.1205  0.0021  0.0272
 3431DOPC   GL140253  31.522  28.869  15.834  0.1547 -0.0878  0.0427
 3431DOPC   GL240254  31.369  28.610  15.858  0.1771  0.0170 -0.0646
 3431DOPC   C1A40255  31.486  28.740  15.359  0.0618 -0.0465  0.1958
 3431DOPC   D2A40256  31.584  28.339  15.091  0.1412 -0.1228 -0.4901
 3431DOPC   C3A40257  31.979  28.193  14.965  0.1333 -0.3761  0.1954
 3431DOPC   C4A40258  32.388  28.322  15.098  0.2739  0.0776 -0.2889
 3431DOPC   C1B40259  31.355  28.268  15.557  0.2641  0.1012  0.1539
 3431DOPC   D2B40260  31.368  27.931  15.220 -0.2099 -0.1532  0.0735
 3431DOPC   C3B40261  31.573  27.936  14.802  0.0833 -0.0074  0.0623
 3431DOPC   C4B40262  31.892  27.949  14.511  0.1273  0.0870  0.1565
 3432DOPE   NH340263  29.987  33.934  15.875 -0.2104  0.0098 -0.5082
 3432DOPE   PO440264  30.330  33.904  15.856 -0.2984 -0.3163  0.0305
 3432DOPE   GL140265  30.175  33.850  15.424 -0.2005 -0.3377  0.0894
 3432DOPE   GL240266  30.480  33.928  15.333 -0.1620  0.0871 -0.2500
 3432DOPE   C1A40267  30.047  33.725  14.992 -0.1084  0.2109 -0.0979
 3432DOPE   D2A40268  29.775  33.443  14.703 -0.2593 -0.3881 -0.3650
 3432DOPE   C3A40269  29.734  33.570  14.283  0.0195  0.1929 -0.0657
 3432DOPE   C4A40270  29.977  33.809  13.962 -0.3099 -0.2464  0.0412
 3432DOPE   C1B40271  30.370  34.332  15.085  0.3343 -0.1950  0.3659
 3432DOPE   D2B40272  30.164  34.640  14.834  0.1548 -0.2942 -0.0601
 3432DOPE   C3B40273  30.087  34.478  14.479  0.1538  0.0288  0.0344
 3432DOPE   C4B40274  30.330  34.365  14.121 -0.1055  0.1249  0.1376
 3433POSM   NC340275  30.330  24.469  16.227  0.0518  0.1547  0.0330
 3433POSM   PO440276  30.714  24.420  16.256 -0.0046  0.1521  0.0838
 3433POSM   AM140277  30.669  24.367  15.915 -0.2906  0.1412  0.0575
 3433POSM   AM240278  30.520  24.455  15.695 -0.1990  0.1653 -0.1362
 3433POSM   T1A40279  30.648  23.963  15.610 -0.1556  0.0080  0.2788
 3433POSM   C2A40280  30.624  23.744  15.224  0.1992  0.2969  0.1322
 3433POSM   C3A40281  30.506  23.408  14.896 -0.1309  0.2324 -0.1384
 3433POSM   C1B40282  30.397  24.335  15.423 -0.2494  0.0892  0.0696
 3433POSM   D2B40283  30.262  24.266  15.010 -0.0209  0.0583  0.2430
 3433POSM   C3B40284  30.405  23.891  14.731  0.1522 -0.2861  0.0154
 3433POSM   C4B40285  30.541  23.580  14.454 -0.2817  0.2507  0.1070
 3434DOPE   NH340286  32.761  33.744  15.949  0.1246 -0.1611 -0.2972
 3434DOPE   PO440287  32.972  33.550  15.993 -0.0760  0.1077  0.1825
 3434DOPE   GL140288  32.966  33.448  15.619  0.0231  0.1582  0.2169
 3434DOPE   GL240289  33.250  33.390  15.640  0.1070 -0.2513 -0.0044
 3434DOPE   C1A40290  32.736  33.354  15.189 -0.1506 -0.0555 -0.1135
 3434DOPE   D2A40291  32.760  33.355  14.748 -0.1919 -0.1181  0.1510
 3434DOPE   C3A40292  33.040  33.266  14.371  0.1332 -0.0278  0.0698
 3434DOPE   C4A40293  33.004  33.554  14.043 -0.3867 -0.0563  0.1194
 3434DOPE   C1B40294  33.162  33.212  15.202 -0.0777  0.2526  0.3963
 3434DOPE   D2B40295  33.197  33.025  14.813  0.0076  0.1969  0.1265
 3434DOPE   C3B40296  33.558  33.123  14.589  0.1680  0.0325 -0.0774
 3434DOPE   C4B40297  33.498  33.210  14.105 -0.0336  0.4468  0.2175
 3435DOPE   NH340298  24.194  26.363  15.508  0.0211  0.1833 -0.1313
 3435DOPE   PO440299  24.098  26.632  15.658 -0.0394 -0.0597  0.0997
 3435DOPE   GL140300  24.050  26.804  15.351  0.2042 -0.1562 -0.2820
 3435DOPE   GL240301  24.152  26.648  15.122  0.0317 -0.1118  0.0242
 3435DOPE   C1A40302  23.829  27.060  15.008  0.0028  0.0527 -0.0776
 3435DOPE   D2A40303  23.819  27.286  14.596 -0.0191  0.0013 -0.0244
 3435DOPE   C3A40304  23.751  27.345  14.154 -0.0787  0.1125  0.0437
 3435DOPE   C4A40305  23.874  27.157  13.729  0.0380  0.0730 -0.1794
 3435DOPE   C1B40306  24.239  26.804  14.700  0.1221  0.0905 -0.1983
 3435DOPE   D2B40307  24.443  26.678  14.305  0.0331  0.1215 -0.2649
 3435DOPE   C3B40308  24.706  26.941  14.047  0.2962  0.1605 -0.3664
 3435DOPE   C4B40309  24.637  27.206  13.677  0.1275 -0.3694 -0.3559
 3436DOPE   NH340310  31.746  29.742  16.403  0.2676  0.1172  0.0639
 3436DOPE   PO440311  31.939  29.700  16.145 -0.0578 -0.1052 -0.1156
 3436DOPE   GL140312  31.819  29.930  15.846  0.1494  0.1505  0.0970
 3436DOPE   GL240313  31.762  29.718  15.677 -0.0415 -0.1255 -0.0879
 3436DOPE   C1A40314  31.456  30.223  15.690 -0.3836 -0.1040 -0.0318
 3436DOPE   D2A40315  31.346  30.430  15.264 -0.0422 -0.0445  0.0609
 3436DOPE   C3A40316  31.460  30.747  14.976 -0.1679 -0.2288  0.0673
 3436DOPE   C4A40317  31.494  30.694  14.492 -0.1663 -0.1990 -0.1043
 3436DOPE   C1B40318  31.788  30.016  15.320 -0.1669 -0.0347  0.0813
 3436DOPE   D2B40319  31.665  30.242  14.932  0.0460 -0.0277 -0.0236
 3436DOPE   C3B40320  31.165  30.308  14.835  0.3237 -0.4272 -0.0454
 3436DOPE   C4B40321  30.836  30.035  14.684 -0.1232 -0.0244  0.0190
 3437DOPE   NH340322  24.775  24.132  15.734  0.1439  0.0400 -0.1429
 3437DOPE   PO440323  24.805  24.127  15.420 -0.0002  0.2289  0.2813
 3437DOPE   GL140324  24.823  23.839  15.041 -0.1502 -0.1435 -0.4961
 3437DOPE   GL240325  24.714  24.088  14.876 -0.3764 -0.2295 -0.3959
 3437DOPE   C1A40326  24.488  23.546  14.847 -0.2746 -0.1941 -0.0257
 3437DOPE   D2A40327  24.312  23.410  14.391  0.0339 -0.0574 -0.2345
 3437DOPE   C3A40328  24.316  23.155  14.003 -0.1166 -0.1025  0.1785
 3437DOPE   C4A40329  24.132  23.178  13.597  0.0133  0.3601 -0.1011
 3437DOPE   C1B40330  25.157  24.134  14.567 -0.3040  0.2227  0.4538
 3437DOPE   D2B40331  25.371  23.788  14.381  0.2062  0.0415  0.1480
 3437DOPE   C3B40332  25.307  23.330  14.376 -0.1541 -0.1056  0.2396
 3437DOPE   C4B40333  25.220  23.036  14.698  0.1288 -0.1029 -0.1940
 3438POSM   NC340334  32.943  25.069  15.772 -0.2083  0.1424 -0.4115
 3438POSM   PO440335  33.240  25.110  16.060  0.1632  0.1478  0.2210
 3438POSM   AM140336  33.196  25.410  15.933 -0.3027 -0.2737  0.0971
 3438POSM   AM240337  32.973  25.605  15.930 -0.2104  0.1987 -0.0137
 3438POSM   T1A40338  33.181  25.724  15.527  0.1945 -0.3579 -0.0555
 3438POSM   C2A40339  32.977  26.074  15.279 -0.1780  0.1382  0.0854
 3438POSM   C3A40340  32.769  26.526  15.369 -0.0212  0.2378 -0.3201
 3438POSM   C1B40341  32.709  25.624  15.725  0.1593 -0.1246 -0.0361
 3438POSM   D2B40342  32.637  25.672  15.259  0.2262  0.0318 -0.0752
 3438POSM   C3B40343  32.772  25.795  14.843  0.2670  0.3466 -0.0553
 3438POSM   C4B40344  32.934  25.843  14.398  0.1960 -0.3887 -0.3646
 3439DOPE   NH340345  32.003  32.096  16.029  0.0725  0.0042 -0.0937
 3439DOPE   PO440346  32.310  32.005  16.066 -0.2584 -0.0079  0.0009
 3439DOPE   GL140347  32.246  31.811  15.752  0.1227 -0.0328  0.1373
 3439DOPE   GL240348  32.427  31.988  15.522 -0.0381 -0.1630 -0.0559
 3439DOPE   C1A40349  32.095  31.403  15.702  0.3149  0.0610  0.0048
 3439DOPE   D2A40350  31.687  31.291  15.567  0.0135 -0.0859  0.0468
 3439DOPE   C3A40351  31.471  30.931  15.601 -0.3676  0.1934 -0.2104
 3439DOPE   C4A40352  31.375  30.687  16.012 -0.1650  0.2552  0.2375
 3439DOPE   C1B40353  32.378  31.980  15.068  0.0618  0.2418  0.2735
 3439DOPE   D2B40354  32.290  32.061  14.605  0.3805 -0.1473 -0.4308
 3439DOPE   C3B40355  32.489  31.977  14.238 -0.4322  0.0917  0.2192
 3439DOPE   C4B40356  32.515  32.072  13.782  0.1448  0.1979  0.0166
 3440DOPE   NH340357  32.147  34.042  15.871 -0.4035  0.2101 -0.1615
 3440DOPE   PO440358  32.422  34.081  16.012 -0.3111  0.1508 -0.0981
 3440DOPE   GL140359  32.624  34.130  15.722  0.0407 -0.0366 -0.4855
 3440DOPE   GL240360  32.873  34.208  15.778 -0.0804  0.3607  0.0675
 3440DOPE   C1A40361  32.610  34.268  15.297 -0.2489 -0.0181  0.2600
 3440DOPE   D2A40362  32.752  34.121  14.854 -0.3932 -0.3479 -0.0033
 3440DOPE   C3A40363  33.144  34.192  14.657 -0.2552  0.5558 -0.0040
 3440DOPE   C4A40364  33.479  34.293  14.371 -0.0070 -0.1782 -0.0037
 3440DOPE   C1B40365  33.003  34.563  15.559 -0.3685 -0.0138 -0.0701
 3440DOPE   D2B40366  33.119  34.908  15.281 -0.1103  0.1035 -0.0030
 3440DOPE   C3B40367  33.262  35.283  15.084 -0.0285  0.0308 -0.1511
 3440DOPE   C4B40368  33.552  35.599  14.857  0.2148 -0.3403  0.2278
 3441POSM   NC340369  30.828  27.312  15.541  0.0825 -0.1896 -0.0255
 3441POSM   PO440370  31.057  27.183  15.829 -0.1880  0.0543  0.0998
 3441POSM   AM140371  31.269  27.216  15.578  0.0428 -0.2733  0.0401
 3441POSM   AM240372  31.467  27.402  15.445  0.0321 -0.0629  0.0827
 3441POSM   T1A40373  31.607  26.986  15.278 -0.0927 -0.1447  0.0211
 3441POSM   C2A40374  31.914  26.663  15.219  0.2104  0.1328  0.0633
 3441POSM   C3A40375  32.368  26.742  15.283 -0.0168 -0.0498  0.1463
 3441POSM   C1B40376  31.420  27.426  15.110 -0.0060 -0.0526  0.0876
 3441POSM   D2B40377  31.304  27.470  14.657 -0.2772  0.1845  0.1739
 3441POSM   C3B40378  31.337  27.135  14.378  0.4396 -0.1329  0.1299
 3441POSM   C4B40379  31.354  26.692  14.221 -0.0511  0.1461 -0.3821
 3442DOPC   NC340380  26.497  31.622  16.198  0.0845  0.2107 -0.1830
 3442DOPC   PO440381  26.334  31.277  16.267  0.0152  0.2146  0.0914
 3442DOPC   GL140382  26.430  31.068  15.956  0.0047  0.1017  0.2285
 3442DOPC   GL240383  26.407  31.282  15.742 -0.1806  0.2496  0.0447
 3442DOPC   C1A40384  26.152  30.839  15.671  0.2032 -0.2205 -0.0244
 3442DOPC   D2A40385  25.930  30.784  15.252 -0.1903 -0.2080  0.2333
 3442DOPC   C3A40386  25.889  30.378  14.993  0.0115 -0.1512 -0.1537
 3442DOPC   C4A40387  26.033  30.225  14.614  0.2274 -0.1895  0.3826
 3442DOPC   C1B40388  26.244  31.260  15.289 -0.2162 -0.0871 -0.2095
 3442DOPC   D2B40389  26.244  31.570  14.964  0.0369  0.0299 -0.2186
 3442DOPC   C3B40390  25.889  31.525  14.670 -0.2410 -0.1594  0.0464
 3442DOPC   C4B40391  25.658  31.292  14.389  0.0081 -0.0802 -0.0874
 3443DOPE   NH340392  25.353  25.699  15.540  0.0577  0.0130  0.2137
 3443DOPE   PO440393  25.158  25.523  15.392 -0.0511 -0.0291 -0.2642
 3443DOPE   GL140394  25.189  25.573  15.007  0.0948 -0.2074 -0.2502
 3443DOPE   GL240395  25.296  25.830  14.977 -0.1175  0.0240 -0.3475
 3443DOPE   C1A40396  25.004  25.687  14.551 -0.0888  0.3253 -0.0548
 3443DOPE   D2A40397  24.780  25.615  14.146  0.2740  0.0463 -0.2663
 3443DOPE   C3A40398  25.159  25.567  13.795 -0.2192 -0.2107  0.1061
 3443DOPE   C4A40399  25.489  25.176  13.751  0.1786  0.0581 -0.1893
 3443DOPE   C1B40400  25.485  26.079  14.633  0.0364 -0.2357  0.0373
 3443DOPE   D2B40401  25.732  25.975  14.291  0.2485 -0.0777 -0.2551
 3443DOPE   C3B40402  25.686  25.903  13.861  0.4935 -0.0334  0.1003
 3443DOPE   C4B40403  25.945  25.825  13.487 -0.1235  0.0619 -0.0390
 3444DOPC   NC340404  33.534  29.053  16.270 -0.1710 -0.0215 -0.3077
 3444DOPC   PO440405  33.697  28.978  15.909  0.3454  0.2311  0.0513
 3444DOPC   GL140406  33.792  28.753  15.619  0.0026 -0.2477  0.1508
 3444DOPC   GL240407  34.010  28.873  15.528 -0.0106  0.0604 -0.1714
 3444DOPC   C1A40408  33.716  28.628  15.176 -0.1488  0.0345  0.2746
 3444DOPC   D2A40409  33.515  28.850  14.798  0.0815  0.0147  0.1077
 3444DOPC   C3A40410  33.750  28.727  14.367  0.4122 -0.1665  0.0569
 3444DOPC   C4A40411  33.817  28.516  13.994 -0.2555 -0.0169 -0.0926
 3444DOPC   C1B40412  34.202  28.602  15.232  0.2521 -0.0855 -0.0638
 3444DOPC   D2B40413  34.098  28.560  14.755 -0.0090 -0.1930  0.0562
 3444DOPC   C3B40414  34.136  28.288  14.356  0.2430 -0.4706  0.3178
 3444DOPC   C4B40415  33.947  28.010  14.009  0.0545  0.0288 -0.2474
 3445POSM   NC340416  23.955  23.273  15.639 -0.3672 -0.3560  0.0063
 3445POSM   PO440417  24.219  23.031  15.692 -0.3961 -0.2045  0.0299
 3445POSM   AM140418  24.348  23.152  15.410  0.0139  0.2523  0.2010
 3445POSM   AM240419  24.237  23.280  15.172 -0.2052  0.2983  0.0782
 3445POSM   T1A40420  24.762  23.291  15.163 -0.1350  0.0094 -0.1876
 3445POSM   C2A40421  24.983  23.443  14.802  0.2295 -0.1820 -0.0813
 3445POSM   C3A40422  24.817  23.743  14.494  0.1815 -0.1975  0.1357
 3445POSM   C1B40423  24.130  23.044  14.867  0.2038  0.3582 -0.2572
 3445POSM   D2B40424  24.250  22.926  14.398 -0.1115 -0.0455 -0.1103
 3445POSM   C3B40425  24.496  22.618  14.161  0.4526  0.0725 -0.4229
 3445POSM   C4B40426  24.711  22.252  14.201  0.0242  0.4050 -0.1252
 3446DOPE   NH340427  31.817  25.776  16.229 -0.1524  0.2914  0.2474
 3446DOPE   PO440428  31.537  25.942  16.225  0.0389  0.4536 -0.0023
 3446DOPE   GL140429  31.563  25.976  15.858  0.0549 -0.4467  0.0003
 3446DOPE   GL240430  31.790  25.895  15.695  0.0732 -0.0246 -0.1869
 3446DOPE   C1A40431  31.438  25.954  15.392  0.5270 -0.2601 -0.0462
 3446DOPE   D2A40432  31.539  25.878  14.990  0.1351  0.0573  0.3190
 3446DOPE   C3A40433  31.499  25.742  14.552 -0.4042 -0.0435  0.0483
 3446DOPE   C4A40434  31.870  25.527  14.284 -0.1541 -0.0389 -0.0500
 3446DOPE   C1B40435  31.955  26.155  15.321  0.0469 -0.1354 -0.0058
 3446DOPE   D2B40436  31.922  26.313  14.883 -0.4448  0.0418  0.0864
 3446DOPE   C3B40437  31.959  26.010  14.531  0.1690 -0.0962 -0.2112
 3446DOPE   C4B40438  32.055  25.917  14.064  0.0761 -0.0742  0.1181
 3447DOPE   NH340439  33.845  26.651  15.925  0.3174 -0.2543 -0.0380
 3447DOPE   PO440440  33.503  26.668  15.989  0.1097 -0.1178  0.1664
 3447DOPE   GL140441  33.455  26.790  15.583 -0.0035  0.3719 -0.0418
 3447DOPE   GL240442  33.154  26.799  15.508  0.0048  0.2212  0.0171
 3447DOPE   C1A40443  33.514  27.232  15.458  0.0048  0.0245 -0.3089
 3447DOPE   D2A40444  33.595  27.492  15.086 -0.3433 -0.1337 -0.1022
 3447DOPE   C3A40445  33.743  27.269  14.699 -0.0242  0.2923  0.2479
 3447DOPE   C4A40446  34.171  27.230  14.546  0.2861  0.1632 -0.0365
 3447DOPE   C1B40447  33.165  26.632  15.098  0.1350  0.1845  0.0753
 3447DOPE   D2B40448  33.445  26.400  14.815 -0.1527 -0.0850 -0.1236
 3447DOPE   C3B40449  33.739  26.301  14.488  0.0382 -0.1344  0.1722
 3447DOPE   C4B40450  34.113  26.314  14.245 -0.1719  0.0996  0.0534
 3448POSM   NC340451  26.662  24.390  16.317  0.4195 -0.1713  0.1183
 3448POSM   PO440452  26.936  24.279  16.031 -0.2781  0.0715 -0.0935
 3448POSM   AM140453  27.005  24.253  15.708  0.1478 -0.2468  0.2549
 3448POSM   AM240454  27.258  24.267  15.596 -0.0364 -0.0458 -0.1818
 3448POSM   T1A40455  26.962  24.488  15.217  0.3397  0.3330 -0.3281
 3448POSM   C2A40456  27.184  24.665  14.854  0.2752 -0.1761 -0.0262
 3448POSM   C3A40457  27.378  24.585  14.480 -0.1620  0.1103  0.3189
 3448POSM   C1B40458  27.381  24.033  15.384 -0.1344  0.3763  0.1129
 3448POSM   D2B40459  27.428  23.692  14.994  0.0078 -0.0504 -0.3407
 3448POSM   C3B40460  27.086  23.723  14.673 -0.0238  0.0249 -0.0423
 3448POSM   C4B40461  26.957  23.706  14.216 -0.0841  0.1245 -0.3136
 3449DOPS   CNO40462  31.000  25.572  16.576  0.0863  0.1357  0.2070
 3449DOPS   PO440463  30.963  25.319  16.268  0.1588 -0.2478 -0.1245
 3449DOPS   GL140464  30.990  25.295  15.788 -0.0282  0.2250 -0.0156
 3449DOPS   GL240465  30.791  25.435  15.535  0.0046 -0.0388 -0.1166
 3449DOPS   C1A40466  31.162  25.149  15.324 -0.1744  0.1354  0.1240
 3449DOPS   D2A40467  31.231  24.922  14.920  0.0542 -0.0909  0.1716
 3449DOPS   C3A40468  31.022  24.629  14.620 -0.0584  0.0263  0.5405
 3449DOPS   C4A40469  31.160  24.378  14.271  0.0498  0.3085 -0.1407
 3449DOPS   C1B40470  30.964  25.660  15.211  0.1818  0.0889  0.0781
 3449DOPS   D2B40471  31.027  26.102  15.061 -0.2862  0.2690 -0.1179
 3449DOPS   C3B40472  31.105  26.184  14.606  0.0787 -0.1722 -0.2891
 3449DOPS   C4B40473  31.054  26.222  14.209 -0.2031 -0.0635 -0.1519
 3450DOPC   NC340474  27.123  34.018  15.245 -0.4146 -0.0449  0.0055
 3450DOPC   PO440475  27.046  33.739  15.531  0.0188  0.0106  0.2527
 3450DOPC   GL140476  26.910  33.621  15.134 -0.0276 -0.0403 -0.0243
 3450DOPC   GL240477  26.795  33.792  14.981 -0.3822 -0.1755  0.1185
 3450DOPC   C1A40478  27.146  33.433  14.766  0.1178  0.0926 -0.1701
 3450DOPC   D2A40479  27.271  33.558  14.337  0.0188  0.0935  0.0980
 3450DOPC   C3A40480  27.493  33.592  13.933 -0.1099  0.0767  0.1299
 3450DOPC   C4A40481  27.465  33.510  13.502 -0.0333 -0.1322 -0.3208
 3450DOPC   C1B40482  26.491  33.988  14.663 -0.2566 -0.0280 -0.1479
 3450DOPC   D2B40483  26.405  34.302  14.285  0.0598 -0.3990  0.2674
 3450DOPC   C3B40484  26.789  34.524  14.253 -0.3780  0.0541  0.1270
 3450DOPC   C4B40485  26.931  34.776  13.889  0.2115  0.0815  0.2117
 3451POSM   NC340486  29.091  28.785  16.333 -0.0597  0.1192 -0.0799
 3451POSM   PO440487  28.980  28.438  16.322  0.0403 -0.2066 -0.0270
 3451POSM   AM140488  28.850  28.457  16.008 -0.2197  0.1279 -0.0744
 3451POSM   AM240489  28.708  28.608  15.885 -0.1615 -0.2517 -0.3557
 3451POSM   T1A40490  29.014  28.483  15.510  0.0593 -0.0057 -0.2793
 3451POSM   C2A40491  28.916  28.556  15.036 -0.1414  0.1727  0.0189
 3451POSM   C3A40492  28.943  28.637  14.578  0.1937  0.0810 -0.1003
 3451POSM   C1B40493  28.617  28.760  15.604 -0.0062  0.4450 -0.0809
 3451POSM   D2B40494  28.561  29.140  15.346  0.1154  0.0438  0.0940
 3451POSM   C3B40495  28.543  29.081  14.895  0.1728  0.0114  0.0233
 3451POSM   C4B40496  28.403  28.837  14.548 -0.1790 -0.2351 -0.1046
 3452DOPE   NH340497  30.549  24.954  16.482 -0.2316 -0.2284 -0.1726
 3452DOPE   PO440498  30.303  24.984  16.238 -0.0528  0.0880 -0.2808
 3452DOPE   GL140499  30.260  24.984  15.823 -0.1510  0.0053 -0.1246
 3452DOPE   GL240500  30.124  25.109  15.752  0.0064 -0.0930  0.0582
 3452DOPE   C1A40501  30.524  25.066  15.436  0.0776  0.0702 -0.0883
 3452DOPE   D2A40502  30.746  25.129  15.037 -0.4525  0.0505  0.2341
 3452DOPE   C3A40503  30.791  25.054  14.595 -0.3166  0.1280 -0.0968
 3452DOPE   C4A40504  30.529  25.099  14.220 -0.2347 -0.0391  0.1350
 3452DOPE   C1B40505  30.071  25.303  15.330  0.2720  0.0566 -0.0828
 3452DOPE   D2B40506  29.979  25.396  14.913 -0.0536  0.0975 -0.1081
 3452DOPE   C3B40507  29.768  25.049  14.638  0.1366  0.1162  0.5066
 3452DOPE   C4B40508  29.577  24.702  14.455 -0.0502  0.0842  0.3592
 3453DOPS   CNO40509  29.451  23.236  17.151  0.0330  0.4322  0.4332
 3453DOPS   PO440510  29.604  23.267  16.791  0.1882 -0.2769  0.0813
 3453DOPS   GL140511  29.522  23.500  16.427  0.1742  0.2063 -0.2931
 3453DOPS   GL240512  29.334  23.696  16.630  0.0025 -0.2307 -0.1981
 3453DOPS   C1A40513  29.291  23.557  16.053  0.1233 -0.2552 -0.0463
 3453DOPS   D2A40514  29.175  23.733  15.628 -0.2105  0.0269 -0.1621
 3453DOPS   C3A40515  29.228  23.469  15.227 -0.2172  0.0524  0.0527
 3453DOPS   C4A40516  29.376  23.645  14.784  0.1018  0.1753 -0.1019
 3453DOPS   C1B40517  29.226  24.006  16.302 -0.0629 -0.0058  0.0145
 3453DOPS   D2B40518  29.171  24.146  15.897  0.0001 -0.3485  0.1730
 3453DOPS   C3B40519  28.828  24.205  15.574 -0.3044 -0.2273 -0.0028
 3453DOPS   C4B40520  28.737  24.562  15.234  0.0529  0.0518  0.1904
 3454DOPS   CNO40521  29.804  33.420  16.355  0.0379  0.0125 -0.2570
 3454DOPS   PO440522  29.535  33.225  16.170  0.0504 -0.0817  0.1859
 3454DOPS   GL140523  29.554  33.126  15.783 -0.2475  0.1759  0.1148
 3454DOPS   GL240524  29.573  32.865  15.554 -0.2426 -0.1547  0.3560
 3454DOPS   C1A40525  29.352  33.281  15.358 -0.0966 -0.0473  0.0494
 3454DOPS   D2A40526  29.322  33.223  14.870  0.2138 -0.4754  0.1659
 3454DOPS   C3A40527  28.974  33.044  14.586 -0.0453  0.0048  0.1061
 3454DOPS   C4A40528  28.561  32.961  14.377 -0.2673  0.2208 -0.0228
 3454DOPS   C1B40529  29.563  32.538  15.254  0.0689 -0.2057  0.1025
 3454DOPS   D2B40530  29.645  32.268  14.919 -0.3356 -0.2052  0.1689
 3454DOPS   C3B40531  29.964  32.350  14.638  0.2623 -0.0965  0.1274
 3454DOPS   C4B40532  30.169  32.637  14.326 -0.2428  0.1452 -0.1336
 3455DOPE   NH340533  33.799  23.232  16.573 -0.3114  0.1978  0.3004
 3455DOPE   PO440534  34.058  23.139  16.324  0.2181  0.2568 -0.2766
 3455DOPE   GL140535  34.340  22.879  16.115 -0.1071  0.1247 -0.3406
 3455DOPE   GL240536  34.023  22.732  16.018 -0.1049 -0.5031 -0.0644
 3455DOPE   C1A40537  34.770  22.931  15.889  0.1022 -0.4183 -0.2380
 3455DOPE   D2A40538  34.852  23.333  15.687 -0.2608 -0.1350  0.0634
 3455DOPE   C3A40539  35.123  23.683  15.534  0.0003  0.0620  0.0926
 3455DOPE   C4A40540  35.234  24.007  15.197 -0.1281  0.0741 -0.3111
 3455DOPE   C1B40541  34.382  22.687  15.753  0.0663  0.1178  0.0380
 3455DOPE   D2B40542  34.486  22.958  15.392  0.0886  0.1242 -0.1817
 3455DOPE   C3B40543  34.551  22.849  14.932 -0.1519  0.2696 -0.0854
 3455DOPE   C4B40544  34.866  23.041  14.656 -0.0097 -0.0987  0.0734
 3456DOPC   NC340545  30.208  25.951  16.132  0.1141 -0.0055 -0.2619
 3456DOPC   PO440546  29.833  25.927  16.171 -0.2001 -0.0905 -0.1711
 3456DOPC   GL140547  29.781  25.745  15.779 -0.1292 -0.2806 -0.0490
 3456DOPC   GL240548  29.748  25.522  15.872 -0.1183 -0.0894  0.1933
 3456DOPC   C1A40549  29.914  25.792  15.332 -0.2314 -0.0003  0.0430
 3456DOPC   D2A40550  30.108  25.884  14.896 -0.1955  0.0357  0.3160
 3456DOPC   C3A40551  29.866  25.679  14.540 -0.0750  0.0946  0.0752
 3456DOPC   C4A40552  29.432  25.527  14.449 -0.0077 -0.0602  0.4332
 3456DOPC   C1B40553  29.602  25.423  15.434 -0.2792  0.1054  0.1671
 3456DOPC   D2B40554  29.504  25.163  15.053  0.1806 -0.3141  0.1761
 3456DOPC   C3B40555  29.064  25.089  15.012  0.0729  0.0091  0.2100
 3456DOPC   C4B40556  28.692  24.881  14.879  0.0431 -0.0598 -0.2509
 3457DOPS   CNO40557  33.712  29.526  16.198 -0.3354 -0.2114  0.0691
 3457DOPS   PO440558  33.408  29.481  16.004  0.0240  0.1359 -0.1064
 3457DOPS   GL140559  33.641  29.351  15.655  0.0356 -0.1847 -0.3859
 3457DOPS   GL240560  33.949  29.408  15.751 -0.0827  0.0188  0.1330
 3457DOPS   C1A40561  33.739  29.145  15.260  0.0168  0.2707  0.1882
 3457DOPS   D2A40562  34.019  29.025  14.987  0.3082 -0.1894 -0.0461
 3457DOPS   C3A40563  34.090  29.050  14.513  0.2656 -0.1264  0.2080
 3457DOPS   C4A40564  34.233  28.836  14.130  0.2181  0.3256 -0.2470
 3457DOPS   C1B40565  33.800  29.725  15.500 -0.1329 -0.0481  0.4456
 3457DOPS   D2B40566  33.570  29.884  15.181 -0.2026  0.0599 -0.3934
 3457DOPS   C3B40567  33.378  29.692  14.790  0.1290  0.0346  0.0883
 3457DOPS   C4B40568  33.162  29.509  14.405 -0.1224  0.0499 -0.2015
 3458DOPE   NH340569  26.880  33.311  15.736 -0.0150  0.3940  0.0305
 3458DOPE   PO440570  27.155  33.141  15.810  0.0809 -0.0677  0.0131
 3458DOPE   GL140571  27.089  32.981  15.435  0.2544 -0.2562  0.3476
 3458DOPE   GL240572  27.392  33.088  15.370 -0.0495 -0.1622 -0.0242
 3458DOPE   C1A40573  27.198  32.855  14.988 -0.1419 -0.2600  0.1990
 3458DOPE   D2A40574  27.229  32.962  14.514 -0.1956  0.3092 -0.3181
 3458DOPE   C3A40575  27.665  32.885  14.369 -0.1047 -0.5325 -0.0478
 3458DOPE   C4A40576  27.901  32.512  14.480 -0.1574 -0.2243 -0.3796
 3458DOPE   C1B40577  27.581  32.676  15.360  0.0194 -0.2420  0.2318
 3458DOPE   D2B40578  27.509  32.281  15.101  0.2871 -0.0355  0.2897
 3458DOPE   C3B40579  27.106  32.209  14.887 -0.0410  0.1298 -0.1111
 3458DOPE   C4B40580  26.886  32.348  14.534 -0.0613  0.0833 -0.2223
 3459DOPE   NH340581  31.384  32.024  16.288 -0.0641  0.1497  0.0192
 3459DOPE   PO440582  31.503  32.109  15.990  0.1320  0.0822  0.1959
 3459DOPE   GL140583  31.446  31.927  15.682  0.1929  0.4063 -0.0708
 3459DOPE   GL240584  31.135  31.849  15.585 -0.0179  0.1886  0.0783
 3459DOPE   C1A40585  31.880  31.822  15.497  0.2139  0.0268  0.2364
 3459DOPE   D2A40586  32.089  31.595  15.156  0.2930  0.0730 -0.0956
 3459DOPE   C3A40587  32.093  31.089  15.272  0.0642  0.0971  0.3331
 3459DOPE   C4A40588  31.862  30.707  15.240 -0.0507 -0.1863 -0.1410
 3459DOPE   C1B40589  31.414  31.645  15.329 -0.2833 -0.3910 -0.0034
 3459DOPE   D2B40590  31.613  31.274  15.094  0.0160  0.2395 -0.0386
 3459DOPE   C3B40591  31.880  31.123  14.784 -0.1034 -0.1918 -0.1471
 3459DOPE   C4B40592  31.926  30.672  14.700 -0.2939  0.2318  0.0500
 3460DOPE   NH340593  30.657  28.155  16.050  0.2699  0.0126  0.0624
 3460DOPE   PO440594  30.400  28.353  16.086 -0.0534 -0.2281 -0.0396
 3460DOPE   GL140595  30.251  28.378  15.800  0.1070 -0.4114  0.1429
 3460DOPE   GL240596  30.094  28.599  15.638 -0.2331 -0.5789  0.0100
 3460DOPE   C1A40597  30.417  28.301  15.385  0.2909 -0.1297  0.0917
 3460DOPE   D2A40598  30.452  27.962  15.029  0.0089 -0.0151 -0.0916
 3460DOPE   C3A40599  30.058  27.749  14.844  0.0940 -0.1891  0.1566
 3460DOPE   C4A40600  29.908  27.532  14.442 -0.1560 -0.0798  0.0302
 3460DOPE   C1B40601  29.965  28.790  15.174 -0.1738  0.1470  0.2256
 3460DOPE   D2B40602  30.184  29.004  14.801 -0.0035  0.1655  0.1587
 3460DOPE   C3B40603  30.167  28.773  14.336  0.0271 -0.1760 -0.1352
 3460DOPE   C4B40604  30.323  28.826  13.928 -0.0605  0.2447  0.0264
 3461DOPC   NC340605  33.811  34.432  16.270  0.0419  0.0305  0.0177
 3461DOPC   PO440606  33.932  34.071  16.246  0.2978 -0.1363  0.3443
 3461DOPC   GL140607  33.816  33.973  15.851  0.2345 -0.2382  0.0332
 3461DOPC   GL240608  33.763  34.257  15.773 -0.0278  0.1112 -0.0405
 3461DOPC   C1A40609  34.155  33.845  15.531  0.0187 -0.0210  0.0575
 3461DOPC   D2A40610  34.258  33.799  15.064  0.0590  0.1518  0.1401
 3461DOPC   C3A40611  34.703  33.892  14.907  0.1853  0.2145  0.1709
 3461DOPC   C4A40612  34.955  34.079  14.541 -0.1353  0.3584  0.1782
 3461DOPC   C1B40613  34.079  34.419  15.494 -0.0461  0.3405 -0.0384
 3461DOPC   D2B40614  34.381  34.282  15.117  0.0611  0.4317 -0.1558
 3461DOPC   C3B40615  34.302  34.149  14.656 -0.2189 -0.2110 -0.0271
 3461DOPC   C4B40616  34.447  33.964  14.277  0.0414  0.1125  0.1702
 3462POSM   NC340617  26.073  29.214  16.140 -0.1963  0.0233 -0.1934
 3462POSM   PO440618  25.713  29.292  16.162  0.1194 -0.1365  0.1839
 3462POSM   AM140619  25.704  29.197  15.861  0.4586  0.0615  0.2246
 3462POSM   AM240620  25.620  29.288  15.636 -0.1858  0.0411 -0.1479
 3462POSM   T1A40621  25.825  28.841  15.529  0.1291 -0.0415 -0.1791
 3462POSM   C2A40622  25.834  28.776  15.126  0.0110 -0.2566  0.0501
 3462POSM   C3A40623  25.925  28.526  14.883  0.0144 -0.1389 -0.2639
 3462POSM   C1B40624  25.255  29.327  15.662  0.1451 -0.2324 -0.0528
 3462POSM   D2B40625  24.828  29.125  15.652 -0.2009 -0.2270 -0.0736
 3462POSM   C3B40626  24.797  28.744  15.428  0.1629  0.4666 -0.6086
 3462POSM   C4B40627  24.996  28.346  15.378 -0.0600 -0.0413 -0.1500
 3463POSM   NC340628  23.714  32.685  16.412 -0.0646  0.3246  0.1863
 3463POSM   PO440629  23.339  32.640  16.280  0.4051  0.2021 -0.2354
 3463POSM   AM140630  23.239  32.724  15.959 -0.0594  0.0243 -0.0399
 3463POSM   AM240631  23.431  32.650  15.723  0.1366 -0.0239  0.1969
 3463POSM   T1A40632  22.975  32.901  15.550  0.1599  0.2568  0.0675
 3463POSM   C2A40633  22.682  33.237  15.337 -0.3294 -0.0296  0.1577
 3463POSM   C3A40634  22.297  33.096  15.079 -0.2261  0.0115  0.0297
 3463POSM   C1B40635  23.351  32.584  15.369  0.2119  0.1193  0.0237
 3463POSM   D2B40636  23.207  32.653  14.954 -0.1215 -0.0977 -0.0245
 3463POSM   C3B40637  23.347  32.481  14.543 -0.2169  0.4732  0.2015
 3463POSM   C4B40638  23.531  32.264  14.189 -0.0761 -0.1335 -0.1869
 3464DOPC   NC340639  28.666  27.595  16.126 -0.0773  0.0892  0.1396
 3464DOPC   PO440640  28.887  27.501  15.810  0.0102 -0.0282 -0.2429
 3464DOPC   GL140641  28.817  27.544  15.427 -0.1369  0.0056 -0.0427
 3464DOPC   GL240642  28.803  27.844  15.461 -0.1363 -0.2367  0.0361
 3464DOPC   C1A40643  28.709  27.186  15.076 -0.0075  0.0836  0.1261
 3464DOPC   D2A40644  28.725  26.807  14.873 -0.3778 -0.2912 -0.1914
 3464DOPC   C3A40645  28.372  26.502  14.842  0.1814  0.0188  0.1374
 3464DOPC   C4A40646  27.900  26.616  14.694  0.0973  0.2822  0.0801
 3464DOPC   C1B40647  28.757  28.027  15.028  0.0097  0.0756  0.0894
 3464DOPC   D2B40648  28.895  28.184  14.591 -0.1141  0.3890 -0.1065
 3464DOPC   C3B40649  28.676  28.224  14.233 -0.3004 -0.1012 -0.1713
 3464DOPC   C4B40650  28.287  28.381  13.960 -0.0579  0.1483 -0.3032
 3465DOPC   NC340651  31.119  28.197  16.021  0.0947  0.0108  0.1375
 3465DOPC   PO440652  30.998  28.526  16.202 -0.1286 -0.0820 -0.0719
 3465DOPC   GL140653  30.842  28.622  15.885 -0.0607 -0.0604 -0.2230
 3465DOPC   GL240654  30.606  28.823  15.965 -0.0927  0.0266  0.0581
 3465DOPC   C1A40655  30.984  28.640  15.439 -0.1693  0.0700  0.1238
 3465DOPC   D2A40656  31.123  28.706  15.055  0.0996 -0.0144  0.1482
 3465DOPC   C3A40657  31.329  29.105  15.008 -0.3661  0.1493  0.2571
 3465DOPC   C4A40658  31.548  29.284  14.653 -0.3360  0.1676 -0.0817
 3465DOPC   C1B40659  30.527  28.757  15.511 -0.5701  0.0939 -0.4298
 3465DOPC   D2B40660  30.510  28.732  15.058 -0.1185  0.0258  0.0484
 3465DOPC   C3B40661  30.483  28.374  14.767  0.1757  0.2005  0.2045
 3465DOPC   C4B40662  30.337  28.033  14.558 -0.0544 -0.0980  0.0858
 3466DOPS   CNO40663  24.624  32.200  16.438 -0.2014  0.0780  0.2550
 3466DOPS   PO440664  24.570  31.881  16.259  0.0915 -0.0185 -0.0211
 3466DOPS   GL140665  24.500  31.700  15.901  0.2448 -0.0843  0.2804
 3466DOPS   GL240666  24.275  31.601  15.862  0.2793  0.1904 -0.3746
 3466DOPS   C1A40667  24.790  31.658  15.514 -0.3759  0.1569 -0.2336
 3466DOPS   D2A40668  25.028  31.726  15.065 -0.2682 -0.1274  0.0629
 3466DOPS   C3A40669  25.103  32.064  14.768 -0.1114 -0.1735 -0.4338
 3466DOPS   C4A40670  25.364  32.427  14.502 -0.1144  0.3525 -0.1715
 3466DOPS   C1B40671  24.302  31.567  15.409 -0.0690  0.0061 -0.0547
 3466DOPS   D2B40672  24.583  31.366  15.091 -0.3441  0.0938  0.2042
 3466DOPS   C3B40673  24.984  31.287  15.221 -0.0161  0.3093 -0.0506
 3466DOPS   C4B40674  25.296  31.484  15.367 -0.1545  0.2048  0.0877
 3467DOPE   NH340675  31.301  24.976  16.048  0.0608  0.0743 -0.0173
 3467DOPE   PO440676  31.509  24.740  16.158  0.1088 -0.0032 -0.1050
 3467DOPE   GL140677  31.350  24.461  15.882 -0.0550  0.2154 -0.2586
 3467DOPE   GL240678  31.069  24.542  15.956 -0.0908  0.1523  0.1101
 3467DOPE   C1A40679  31.218  24.123  15.609  0.3581 -0.0449 -0.1532
 3467DOPE   D2A40680  31.107  23.968  15.243  0.0704 -0.0963 -0.1098
 3467DOPE   C3A40681  30.761  24.170  15.005 -0.2706 -0.1829 -0.3183
 3467DOPE   C4A40682  30.749  24.208  14.560 -0.1397 -0.1786  0.1513
 3467DOPE   C1B40683  30.932  24.794  15.554  0.0033 -0.2019 -0.1016
 3467DOPE   D2B40684  30.682  24.647  15.142  0.0040 -0.0323 -0.0223
 3467DOPE   C3B40685  30.561  24.614  14.715 -0.2261 -0.0171  0.0810
 3467DOPE   C4B40686  30.215  24.315  14.492  0.0203  0.2474 -0.1140
 3468DOPS   CNO40687  32.793  28.023  16.774 -0.0487 -0.1177  0.0038
 3468DOPS   PO440688  32.551  28.163  16.525 -0.0080 -0.0400 -0.0556
 3468DOPS   GL140689  32.464  28.180  16.051 -0.1216 -0.0312 -0.2679
 3468DOPS   GL240690  32.387  27.951  15.782 -0.3872 -0.0654  0.1932
 3468DOPS   C1A40691  32.433  28.544  15.672 -0.0512  0.0495  0.1096
 3468DOPS   D2A40692  32.693  28.899  15.676  0.1983  0.2723 -0.0878
 3468DOPS   C3A40693  32.769  28.897  15.266 -0.1558 -0.0004 -0.1448
 3468DOPS   C4A40694  33.052  28.983  14.912 -0.2461  0.1372 -0.0215
 3468DOPS   C1B40695  32.353  27.851  15.382 -0.0275  0.3536 -0.0833
 3468DOPS   D2B40696  32.234  27.690  14.894  0.1648  0.1357 -0.0127
 3468DOPS   C3B40697  32.412  27.978  14.578 -0.2622 -0.1981 -0.1107
 3468DOPS   C4B40698  32.685  28.341  14.537  0.2985 -0.0004  0.2223
 3469DOPE   NH340699  34.389  25.461  12.737 -0.0279 -0.2091 -0.5227
 3469DOPE   PO440700  34.465  25.250  12.474 -0.2528  0.1586 -0.0002
 3469DOPE   GL140701  34.454  24.932  12.640 -0.1256 -0.2047  0.0137
 3469DOPE   GL240702  34.351  24.643  12.527 -0.1176 -0.4552  0.1490
 3469DOPE   C1A40703  34.729  24.547  12.797 -0.3081  0.1743  0.5705
 3469DOPE   D2A40704  34.925  24.094  12.878  0.0113  0.2648  0.0657
 3469DOPE   C3A40705  35.197  24.390  13.208  0.1634  0.2126  0.0369
 3469DOPE   C4A40706  35.088  24.606  13.635  0.1919  0.1138 -0.1216
 3469DOPE   C1B40707  34.728  24.633  12.306  0.1350 -0.0536 -0.0696
 3469DOPE   D2B40708  35.037  24.316  12.427 -0.1226  0.2098 -0.0555
 3469DOPE   C3B40709  35.515  24.296  12.303  0.1367  0.0160  0.2649
 3469DOPE   C4B40710  36.011  24.273  12.342 -0.1317 -0.0096 -0.2425
 3470DOPS   CNO40711  25.266  27.073  12.118 -0.5335 -0.0279 -0.1211
 3470DOPS   PO440712  25.250  27.101  12.473  0.1055 -0.0330  0.1352
 3470DOPS   GL140713  25.046  27.145  12.741  0.0427  0.3725 -0.1514
 3470DOPS   GL240714  24.804  27.363  12.801 -0.0159 -0.2180 -0.2286
 3470DOPS   C1A40715  25.205  27.145  13.166  0.1659 -0.3343 -0.0861
 3470DOPS   D2A40716  25.043  26.900  13.496  0.0086 -0.2537 -0.2161
 3470DOPS   C3A40717  25.181  26.503  13.313 -0.0965  0.0083  0.3987
 3470DOPS   C4A40718  25.415  26.285  12.955  0.0625  0.1451  0.0237
 3470DOPS   C1B40719  24.699  27.177  13.198 -0.0835 -0.1131 -0.3289
 3470DOPS   D2B40720  24.658  26.743  13.245 -0.2042 -0.1459  0.0633
 3470DOPS   C3B40721  24.735  26.552  13.716 -0.2099  0.0601 -0.1440
 3470DOPS   C4B40722  24.928  26.492  14.185 -0.2093  0.0847  0.2628
 3471DOPE   NH340723  32.745  24.147  12.919  0.3248 -0.3428  0.0606
 3471DOPE   PO440724  32.807  24.163  12.627  0.2330  0.3036  0.1105
 3471DOPE   GL140725  32.886  24.545  12.723 -0.0895  0.1050 -0.1555
 3471DOPE   GL240726  33.067  24.605  12.985  0.0802 -0.2773  0.0924
 3471DOPE   C1A40727  32.792  25.026  12.703  0.0155 -0.1638  0.1603
 3471DOPE   D2A40728  32.846  25.481  12.722 -0.0273  0.1550 -0.1800
 3471DOPE   C3A40729  33.289  25.687  12.725  0.0102  0.0525 -0.2110
 3471DOPE   C4A40730  33.507  25.955  13.038 -0.2117 -0.2001 -0.1589
 3471DOPE   C1B40731  32.849  24.909  13.226  0.0924  0.4060  0.5633
 3471DOPE   D2B40732  32.934  25.176  13.595  0.1447  0.0973 -0.2469
 3471DOPE   C3B40733  32.648  25.477  13.873  0.0568 -0.2304  0.0958
 3471DOPE   C4B40734  32.348  25.571  14.204 -0.2973 -0.1367  0.1282
 3472DOPE   NH340735  33.969  25.040  12.491  0.1023 -0.0014  0.0674
 3472DOPE   PO440736  33.817  24.747  12.469 -0.2997 -0.1780  0.2076
 3472DOPE   GL140737  33.768  24.464  12.779  0.0953  0.0369 -0.0925
 3472DOPE   GL240738  34.042  24.471  12.872  0.0423 -0.0147 -0.4336
 3472DOPE   C1A40739  33.497  24.346  13.190  0.1329  0.0372 -0.0426
 3472DOPE   D2A40740  33.110  24.121  13.244  0.2294  0.2316 -0.1363
 3472DOPE   C3A40741  32.798  24.407  13.424  0.0754 -0.2842  0.0591
 3472DOPE   C4A40742  32.823  24.737  13.745 -0.0098  0.1640 -0.1467
 3472DOPE   C1B40743  33.888  24.710  13.200 -0.2079 -0.0049 -0.1743
 3472DOPE   D2B40744  33.677  25.036  13.534 -0.4900 -0.4255  0.3690
 3472DOPE   C3B40745  33.285  24.902  13.830 -0.0996  0.1597 -0.0140
 3472DOPE   C4B40746  33.132  24.867  14.228  0.0946  0.1183 -0.1574
 3473DOPC   NC340747  33.269  24.224  12.617  0.0436 -0.0910 -0.2079
 3473DOPC   PO440748  33.349  24.621  12.590  0.2560  0.0947  0.0055
 3473DOPC   GL140749  33.511  24.740  12.975  0.0625 -0.0520  0.1406
 3473DOPC   GL240750  33.635  24.957  12.901 -0.0400  0.1679 -0.0686
 3473DOPC   C1A40751  33.333  24.781  13.355 -0.0686  0.1625 -0.3224
 3473DOPC   D2A40752  33.248  24.409  13.664 -0.2008 -0.2267  0.2948
 3473DOPC   C3A40753  33.477  24.085  13.906 -0.0583  0.0427 -0.1713
 3473DOPC   C4A40754  33.542  23.664  13.837  0.1276 -0.0912 -0.1984
 3473DOPC   C1B40755  33.368  25.209  13.179 -0.0323  0.0738  0.2427
 3473DOPC   D2B40756  33.404  25.509  13.559 -0.3205  0.0661  0.1990
 3473DOPC   C3B40757  33.605  25.378  13.935  0.2558  0.2902 -0.0810
 3473DOPC   C4B40758  33.676  24.941  14.165 -0.0184  0.2352  0.1411
 3474DOPC   NC340759  24.921  30.660  13.231 -0.0133 -0.2218 -0.3831
 3474DOPC   PO440760  24.930  30.458  12.899 -0.0127  0.1169 -0.2074
 3474DOPC   GL140761  25.257  30.697  12.653 -0.3465  0.5693  0.1723
 3474DOPC   GL240762  25.229  30.902  12.817  0.0611  0.0374  0.2009
 3474DOPC   C1A40763  25.741  30.754  12.829  0.3485 -0.1277  0.3094
 3474DOPC   D2A40764  25.901  31.086  13.108  0.1355  0.0029  0.0660
 3474DOPC   C3A40765  26.030  30.998  13.483  0.0709 -0.3000 -0.2290
 3474DOPC   C4A40766  26.121  31.081  13.946  0.1381 -0.1245  0.1877
 3474DOPC   C1B40767  25.427  31.032  13.203 -0.2293  0.4029  0.2750
 3474DOPC   D2B40768  25.547  31.118  13.660 -0.0122  0.1115 -0.0256
 3474DOPC   C3B40769  25.690  30.726  13.884 -0.0629  0.1456 -0.3189
 3474DOPC   C4B40770  25.414  30.613  14.277 -0.2797  0.0710 -0.0152
 3475DOPE   NH340771  23.349  30.783  12.870  0.4776 -0.0041  0.6287
 3475DOPE   PO440772  23.540  30.937  12.656  0.2593 -0.1932  0.3130
 3475DOPE   GL140773  23.353  31.204  12.878  0.2507 -0.2306  0.3783
 3475DOPE   GL240774  23.593  31.441  13.008 -0.2135  0.2153  0.0811
 3475DOPE   C1A40775  23.288  31.155  13.340  0.0801 -0.0133  0.0629
 3475DOPE   D2A40776  23.081  31.363  13.688  0.1712 -0.2154 -0.4366
 3475DOPE   C3A40777  23.092  31.483  14.156  0.1683  0.0987  0.1762
 3475DOPE   C4A40778  23.179  31.312  14.526  0.1200 -0.0583  0.0266
 3475DOPE   C1B40779  23.581  31.553  13.508  0.3428 -0.2984  0.1444
 3475DOPE   D2B40780  23.596  31.229  13.894  0.0606  0.1481 -0.1196
 3475DOPE   C3B40781  23.357  30.884  14.076  0.1732 -0.1977 -0.1734
 3475DOPE   C4B40782  23.027  30.576  14.181  0.1565 -0.0988 -0.0194
 3476DOPE   NH340783   0.075  33.661  12.616 -0.3329 -0.2085  0.1064
 3476DOPE   PO440784   0.205  33.477  12.852 -0.1372 -0.2868  0.1177
 3476DOPE   GL140785  -0.067  33.272  12.802 -0.0798  0.1489 -0.2653
 3476DOPE   GL240786  -0.310  33.355  12.766 -0.1620 -0.0742 -0.0735
 3476DOPE   C1A40787  -0.160  32.814  12.854 -0.1212  0.0102 -0.0508
 3476DOPE   D2A40788   0.060  32.444  12.922 -0.1772  0.0659  0.1750
 3476DOPE   C3A40789   0.319  32.252  13.308 -0.0417 -0.2558  0.0545
 3476DOPE   C4A40790   0.629  32.009  13.589  0.1384  0.0587 -0.2575
 3476DOPE   C1B40791  -0.556  33.139  13.029  0.1296 -0.0954  0.2871
 3476DOPE   D2B40792  -0.579  33.063  13.485 -0.1298 -0.0039 -0.0187
 3476DOPE   C3B40793  -1.051  32.982  13.585 -0.0216  0.0963 -0.4333
 3476DOPE   C4B40794  -1.348  32.659  13.405  0.0304 -0.1176 -0.0348
 3477DOPE   NH340795  30.046  28.989  12.104 -0.0768  0.1044  0.1528
 3477DOPE   PO440796  29.927  28.770  12.352 -0.0077  0.1471  0.3570
 3477DOPE   GL140797  29.694  28.671  12.673 -0.2383 -0.2799  0.1564
 3477DOPE   GL240798  29.817  28.906  12.829  0.0955 -0.0130  0.2394
 3477DOPE   C1A40799  29.268  28.779  12.775  0.0952 -0.0603 -0.0622
 3477DOPE   D2A40800  29.013  29.146  12.942 -0.1381 -0.0339 -0.0934
 3477DOPE   C3A40801  28.891  29.293  13.358 -0.0481  0.3032  0.1597
 3477DOPE   C4A40802  28.658  29.153  13.727 -0.0153 -0.0663 -0.1480
 3477DOPE   C1B40803  29.596  28.603  13.089  0.0815  0.2135  0.2299
 3477DOPE   D2B40804  29.790  28.487  13.485 -0.0787 -0.0740  0.0793
 3477DOPE   C3B40805  29.798  28.805  13.802  0.1909 -0.1327  0.0106
 3477DOPE   C4B40806  29.686  29.231  13.813  0.0689 -0.0623  0.2352
 3478POSM   NC340807  24.333  31.035  12.437 -0.2343 -0.4321 -0.3042
 3478POSM   PO440808  24.674  31.122  12.300  0.1684 -0.0308 -0.1524
 3478POSM   AM140809  24.972  31.190  12.447  0.0795  0.0490  0.1030
 3478POSM   AM240810  25.015  31.352  12.718 -0.0349 -0.0766  0.1201
 3478POSM   T1A40811  25.459  31.265  12.571 -0.2585 -0.1643  0.2592
 3478POSM   C2A40812  25.917  31.338  12.668  0.1347 -0.0947 -0.1480
 3478POSM   C3A40813  26.258  31.432  13.021 -0.0836 -0.0175 -0.1811
 3478POSM   C1B40814  25.190  31.403  12.994 -0.1437  0.2321  0.2335
 3478POSM   D2B40815  25.265  31.720  13.303 -0.0864  0.3134  0.1724
 3478POSM   C3B40816  25.135  32.130  13.278  0.0603 -0.3074  0.0009
 3478POSM   C4B40817  25.170  32.451  12.997  0.0536 -0.6743 -0.4395
 3479DOPE   NH340818  27.159  29.947  12.875  0.0972 -0.0164  0.3835
 3479DOPE   PO440819  27.041  30.239  12.747  0.0615 -0.1066 -0.1300
 3479DOPE   GL140820  26.970  30.279  13.098  0.2937  0.3001  0.1298
 3479DOPE   GL240821  27.254  30.232  13.279  0.0955 -0.1264  0.1402
 3479DOPE   C1A40822  27.009  30.602  13.478 -0.2956  0.1116  0.1172
 3479DOPE   D2A40823  27.424  30.609  13.722  0.2965 -0.1059 -0.2008
 3479DOPE   C3A40824  27.487  30.952  14.097 -0.2361 -0.2288 -0.1565
 3479DOPE   C4A40825  27.456  31.327  14.344 -0.2126  0.0381  0.1217
 3479DOPE   C1B40826  27.377  30.109  13.704 -0.0778 -0.2500  0.0037
 3479DOPE   D2B40827  27.494  30.257  14.153  0.3138 -0.0308  0.2016
 3479DOPE   C3B40828  27.265  30.594  14.357 -0.1313  0.0874 -0.1246
 3479DOPE   C4B40829  26.949  30.899  14.499 -0.0020  0.1535 -0.1303
 3480POSM   NC340830  30.694  29.503  13.318  0.1275  0.3049  0.1670
 3480POSM   PO440831  30.680  29.743  13.003  0.2659  0.0702  0.0780
 3480POSM   AM140832  30.692  29.992  13.230  0.3774  0.0581  0.1751
 3480POSM   AM240833  30.918  30.055  13.415 -0.0983 -0.0403  0.1955
 3480POSM   T1A40834  30.683  30.499  13.387 -0.1399  0.1231 -0.5607
 3480POSM   C2A40835  30.628  30.934  13.465 -0.5339 -0.0063 -0.0818
 3480POSM   C3A40836  30.725  31.354  13.516  0.0658 -0.0485  0.0297
 3480POSM   C1B40837  30.867  30.114  13.701 -0.1654 -0.2485 -0.1856
 3480POSM   D2B40838  30.817  30.094  14.191 -0.3835 -0.1025  0.0086
 3480POSM   C3B40839  30.430  30.168  14.463  0.1263  0.3128  0.2005
 3480POSM   C4B40840  30.159  30.093  14.810 -0.2457  0.4508 -0.0325
 3481POSM   NC340841  23.335  22.836  11.305 -0.0503 -0.1211  0.1325
 3481POSM   PO440842  23.394  22.541  11.595 -0.3935 -0.0801  0.0619
 3481POSM   AM140843  23.639  22.691  11.767  0.0706  0.0927  0.0644
 3481POSM   AM240844  23.624  22.806  12.069 -0.3181 -0.2367  0.0139
 3481POSM   T1A40845  23.980  23.056  11.897  0.1243  0.2922  0.2080
 3481POSM   C2A40846  24.271  23.436  12.000  0.1242  0.1943  0.0570
 3481POSM   C3A40847  24.729  23.518  12.078  0.0910 -0.0485 -0.1493
 3481POSM   C1B40848  23.817  22.870  12.325  0.1749 -0.0198 -0.1989
 3481POSM   D2B40849  24.171  23.093  12.557 -0.1080 -0.0553 -0.3499
 3481POSM   C3B40850  24.160  23.508  12.627 -0.3742  0.3347  0.0545
 3481POSM   C4B40851  24.203  23.936  12.750 -0.1009  0.0316  0.2569
 3482DOPC   NC340852  33.535  31.214  12.069 -0.0598  0.0046  0.1288
 3482DOPC   PO440853  33.164  31.245  11.876  0.1462 -0.1746 -0.0326
 3482DOPC   GL140854  33.101  31.523  12.142  0.0582  0.1548 -0.0166
 3482DOPC   GL240855  32.972  31.541  12.401 -0.3863  0.3187  0.1695
 3482DOPC   C1A40856  33.442  31.841  12.195 -0.0349 -0.0802 -0.0229
 3482DOPC   D2A40857  33.637  32.259  12.360  0.0176 -0.1218 -0.1055
 3482DOPC   C3A40858  33.335  32.693  12.362  0.2481  0.0403  0.1608
 3482DOPC   C4A40859  33.192  33.104  12.233 -0.1960  0.2531  0.1756
 3482DOPC   C1B40860  32.620  31.778  12.443  0.2527  0.2473  0.0061
 3482DOPC   D2B40861  32.253  32.065  12.468  0.0829 -0.0812 -0.1798
 3482DOPC   C3B40862  32.223  32.311  12.873 -0.2460  0.1691 -0.3075
 3482DOPC   C4B40863  32.392  32.124  13.263 -0.2637 -0.2264  0.0182
 3483DOPC   NC340864  30.366  30.663  12.386  0.1093 -0.1490  0.0955
 3483DOPC   PO440865  30.268  30.890  12.665 -0.0392 -0.0445  0.3252
 3483DOPC   GL140866  30.559  31.133  12.713  0.1880 -0.0487 -0.0331
 3483DOPC   GL240867  30.749  31.050  12.506  0.2680  0.1985 -0.0265
 3483DOPC   C1A40868  30.942  31.286  12.889  0.0870 -0.1319 -0.0676
 3483DOPC   D2A40869  31.202  31.647  13.085 -0.1275  0.0731  0.2083
 3483DOPC   C3A40870  30.946  31.949  13.399 -0.3480  0.0559 -0.0292
 3483DOPC   C4A40871  30.909  31.906  13.852  0.0964  0.3677 -0.2088
 3483DOPC   C1B40872  30.852  31.441  12.386 -0.1933  0.0207 -0.3245
 3483DOPC   D2B40873  30.798  31.888  12.280 -0.0240 -0.0149 -0.1124
 3483DOPC   C3B40874  30.813  32.289  12.513 -0.0708  0.1691  0.3516
 3483DOPC   C4B40875  30.544  32.660  12.589 -0.0383 -0.0767  0.0388
 3484DOPC   NC340876  26.631  27.993  12.598  0.2305 -0.0052 -0.0957
 3484DOPC   PO440877  26.915  27.990  12.321 -0.1243 -0.0311  0.0231
 3484DOPC   GL140878  27.163  28.155  12.577  0.2729  0.1334  0.1314
 3484DOPC   GL240879  27.361  28.195  12.376  0.1803  0.0930  0.1273
 3484DOPC   C1A40880  27.502  27.990  12.896  0.2043  0.0673 -0.1277
 3484DOPC   D2A40881  27.678  27.526  12.963  0.2256  0.0544 -0.2336
 3484DOPC   C3A40882  27.447  27.484  13.393  0.3100  0.1164  0.1255
 3484DOPC   C4A40883  27.543  27.423  13.837  0.1261 -0.0120 -0.2426
 3484DOPC   C1B40884  27.748  27.959  12.363 -0.2496  0.0557  0.0444
 3484DOPC   D2B40885  28.194  27.914  12.600 -0.4589  0.2010  0.0619
 3484DOPC   C3B40886  28.186  27.803  13.061  0.0015  0.3246 -0.0531
 3484DOPC   C4B40887  28.547  27.618  13.304  0.0936 -0.2506  0.2344
 3485DOPE   NH340888  31.357  23.164  12.611  0.0425  0.1032  0.0963
 3485DOPE   PO440889  31.199  22.930  12.764  0.3785 -0.0039 -0.1128
 3485DOPE   GL140890  30.854  23.221  12.903  0.0328 -0.1396 -0.1430
 3485DOPE   GL240891  30.717  23.443  12.721 -0.0823  0.1225  0.2760
 3485DOPE   C1A40892  30.690  23.179  13.370 -0.1697  0.0504  0.0679
 3485DOPE   D2A40893  30.397  23.361  13.687 -0.1015 -0.0387  0.1253
 3485DOPE   C3A40894  30.193  23.285  14.067 -0.0664 -0.0482  0.1592
 3485DOPE   C4A40895  30.216  23.205  14.547  0.1286 -0.3927 -0.3646
 3485DOPE   C1B40896  30.711  23.660  13.110  0.0608  0.0778 -0.0690
 3485DOPE   D2B40897  30.612  23.925  13.417 -0.0184 -0.0531 -0.0465
 3485DOPE   C3B40898  30.238  24.132  13.615 -0.0578  0.1073  0.1567
 3485DOPE   C4B40899  30.105  24.323  13.980 -0.0818  0.0665 -0.0795
 3486POSM   NC340900  29.930  23.102  12.977  0.0754  0.1200  0.1794
 3486POSM   PO440901  29.612  22.883  13.108 -0.0206  0.0553  0.1075
 3486POSM   AM140902  29.647  23.039  13.395  0.2533  0.3380  0.0169
 3486POSM   AM240903  29.909  23.109  13.487  0.1658 -0.0995  0.0213
 3486POSM   T1A40904  29.498  22.997  13.871  0.3524 -0.0507  0.3732
 3486POSM   C2A40905  29.302  22.698  14.127  0.3872 -0.0870 -0.0771
 3486POSM   C3A40906  29.092  22.655  14.579 -0.1177  0.1160  0.0826
 3486POSM   C1B40907  29.999  22.951  13.758  0.1391  0.0888  0.1401
 3486POSM   D2B40908  30.106  22.817  14.214  0.2088  0.3242  0.0701
 3486POSM   C3B40909  30.258  22.574  14.581 -0.2369 -0.0902  0.2292
 3486POSM   C4B40910  30.098  22.250  14.878 -0.0369  0.0157  0.3900
 3487DOPE   NH340911  23.969  31.251  12.719  0.4057  0.0607 -0.1830
 3487DOPE   PO440912  23.906  31.190  12.394 -0.3298 -0.0395  0.0310
 3487DOPE   GL140913  24.216  31.515  12.331  0.0039  0.1972  0.0886
 3487DOPE   GL240914  24.195  31.750  12.626  0.1738  0.0601  0.0540
 3487DOPE   C1A40915  24.195  31.966  12.131  0.1924 -0.1212 -0.1377
 3487DOPE   D2A40916  24.430  32.351  12.295 -0.1724 -0.0242 -0.0034
 3487DOPE   C3A40917  24.090  32.586  12.459  0.1833  0.0894 -0.0148
 3487DOPE   C4A40918  23.826  32.683  12.775  0.1037  0.0888 -0.2718
 3487DOPE   C1B40919  24.151  32.183  12.808  0.1449 -0.1652  0.0297
 3487DOPE   D2B40920  24.099  32.174  13.289  0.0456  0.1694 -0.3853
 3487DOPE   C3B40921  24.585  32.284  13.412  0.0200 -0.1965  0.0964
 3487DOPE   C4B40922  24.811  32.435  13.770  0.3108 -0.0574 -0.0280
 3488DOPC   NC340923  33.218  23.666  13.337  0.2691 -0.0799  0.0432
 3488DOPC   PO440924  32.956  23.713  13.046 -0.0467  0.1974  0.0249
 3488DOPC   GL140925  32.728  23.409  13.205 -0.2374  0.0050 -0.1121
 3488DOPC   GL240926  32.525  23.510  13.321 -0.3899  0.0641 -0.0636
 3488DOPC   C1A40927  32.555  23.057  13.492  0.3585  0.0381 -0.1443
 3488DOPC   D2A40928  32.153  22.848  13.702  0.1593  0.1307 -0.1383
 3488DOPC   C3A40929  32.052  22.858  14.133 -0.0191 -0.1560  0.0569
 3488DOPC   C4A40930  32.396  22.978  14.405 -0.0036 -0.0613 -0.0074
 3488DOPC   C1B40931  32.685  23.525  13.741 -0.2379  0.1214 -0.0470
 3488DOPC   D2B40932  32.521  23.783  14.123  0.4289 -0.0122 -0.0864
 3488DOPC   C3B40933  32.444  23.556  14.533  0.0155  0.1102 -0.0238
 3488DOPC   C4B40934  32.262  23.193  14.810 -0.3759 -0.0824 -0.0031
 3489POSM   NC340935  30.938  22.499  12.706 -0.1443  0.1854  0.1209
 3489POSM   PO440936  31.120  22.517  13.054  0.0144 -0.1443  0.0770
 3489POSM   AM140937  31.259  22.778  13.215  0.3502  0.1259  0.0558
 3489POSM   AM240938  31.146  22.998  13.339  0.0657 -0.0244 -0.0499
 3489POSM   T1A40939  31.555  23.029  13.545 -0.3274  0.1282 -0.1210
 3489POSM   C2A40940  31.664  23.372  13.775 -0.1159  0.1966 -0.1749
 3489POSM   C3A40941  31.428  23.564  14.134  0.1507  0.0843  0.1050
 3489POSM   C1B40942  31.077  23.008  13.696  0.1329  0.1541 -0.0344
 3489POSM   D2B40943  31.135  22.985  14.173 -0.0202 -0.0143 -0.1012
 3489POSM   C3B40944  31.030  23.403  14.423  0.2570 -0.0367  0.2002
 3489POSM   C4B40945  31.010  23.700  14.746  0.0438  0.2562  0.0051
 3490DOPE   NH340946  31.932  29.129  12.494 -0.1080 -0.0848  0.0845
 3490DOPE   PO440947  32.078  29.065  12.781  0.0567  0.1230 -0.2559
 3490DOPE   GL140948  31.887  28.983  13.029 -0.1454 -0.0114 -0.3770
 3490DOPE   GL240949  31.937  28.762  13.168 -0.0725 -0.0831 -0.0762
 3490DOPE   C1A40950  31.816  29.114  13.466 -0.0564  0.0557 -0.1904
 3490DOPE   D2A40951  31.536  29.332  13.733  0.0757 -0.0643  0.0461
 3490DOPE   C3A40952  31.270  29.168  14.120 -0.0313 -0.0612 -0.2996
 3490DOPE   C4A40953  31.205  28.957  14.546 -0.1946 -0.1145 -0.1667
 3490DOPE   C1B40954  31.866  28.498  13.583  0.3191  0.0565  0.2676
 3490DOPE   D2B40955  32.176  28.203  13.787 -0.0762 -0.1156 -0.4002
 3490DOPE   C3B40956  32.237  28.412  14.195  0.0700  0.1047  0.1162
 3490DOPE   C4B40957  31.932  28.720  14.287 -0.0905  0.1193  0.0278
 3491DOPE   NH340958  23.279  26.791  12.239  0.1165  0.0271  0.0446
 3491DOPE   PO440959  23.280  26.856  12.531 -0.3063  0.1720 -0.2380
 3491DOPE   GL140960  23.387  26.958  12.859  0.3725  0.0085  0.1099
 3491DOPE   GL240961  23.495  27.282  12.892 -0.0759  0.2474  0.1662
 3491DOPE   C1A40962  23.183  27.059  13.252 -0.0620  0.1872  0.1256
 3491DOPE   D2A40963  22.925  27.369  13.478  0.0703 -0.0437  0.1015
 3491DOPE   C3A40964  23.098  27.761  13.498  0.2209 -0.0242  0.1113
 3491DOPE   C4A40965  23.468  28.093  13.374 -0.0663  0.0085 -0.2189
 3491DOPE   C1B40966  23.473  27.690  13.028 -0.0411  0.0276 -0.4397
 3491DOPE   D2B40967  23.188  28.034  12.930  0.1505  0.1436 -0.0429
 3491DOPE   C3B40968  23.230  28.026  12.504 -0.2128 -0.2438  0.0468
 3491DOPE   C4B40969  23.541  28.063  12.030  0.3500 -0.2064  0.0021
 3492DOPC   NC340970  27.826  29.470  12.576 -0.1795  0.1065 -0.2106
 3492DOPC   PO440971  27.523  29.728  12.647  0.0084  0.3004 -0.1867
 3492DOPC   GL140972  27.699  29.654  13.024  0.1396 -0.1349  0.2640
 3492DOPC   GL240973  27.597  29.791  13.263 -0.2209 -0.2344 -0.0184
 3492DOPC   C1A40974  27.645  29.344  13.381 -0.1425  0.0268 -0.1710
 3492DOPC   D2A40975  27.320  29.355  13.758 -0.0022 -0.0545 -0.1028
 3492DOPC   C3A40976  27.422  29.286  14.184  0.2133  0.2237  0.1777
 3492DOPC   C4A40977  27.826  29.376  14.386  0.3993  0.5173  0.0494
 3492DOPC   C1B40978  27.812  29.818  13.655 -0.2804 -0.0021 -0.0030
 3492DOPC   D2B40979  28.054  29.767  14.060  0.2748 -0.3097  0.0297
 3492DOPC   C3B40980  28.423  29.484  14.030 -0.0151 -0.2581  0.3389
 3492DOPC   C4B40981  28.707  29.209  14.258 -0.0669  0.2319  0.1715
 3493DOPE   NH340982  24.813  30.713  12.505 -0.3178 -0.1203  0.2708
 3493DOPE   PO440983  24.724  30.932  12.766  0.0683 -0.0620 -0.0083
 3493DOPE   GL140984  24.728  31.087  13.156  0.0938 -0.0797  0.1460
 3493DOPE   GL240985  24.664  31.371  13.187 -0.1750  0.1990 -0.2419
 3493DOPE   C1A40986  25.051  31.170  13.508  0.2861  0.0165  0.2202
 3493DOPE   D2A40987  25.081  31.516  13.731 -0.0115  0.0876 -0.0187
 3493DOPE   C3A40988  25.156  31.961  13.870  0.2244 -0.1116 -0.1313
 3493DOPE   C4A40989  25.067  32.138  14.279 -0.3199  0.2434 -0.0873
 3493DOPE   C1B40990  24.734  31.793  13.427  0.0360  0.3250  0.2972
 3493DOPE   D2B40991  24.651  31.865  13.857  0.1375 -0.1981  0.0940
 3493DOPE   C3B40992  24.339  31.670  14.126 -0.0431  0.4735  0.2408
 3493DOPE   C4B40993  24.110  31.304  14.338  0.1293  0.2244  0.0917
 3494POSM   NC340994  31.645  28.633  12.416 -0.0697  0.0374 -0.1153
 3494POSM   PO440995  31.435  28.595  12.749  0.1498 -0.0765  0.1011
 3494POSM   AM140996  31.373  28.663  13.050  0.0375  0.2262  0.0059
 3494POSM   AM240997  31.457  28.734  13.311 -0.1088 -0.0962  0.0708
 3494POSM   T1A40998  30.993  28.681  13.349 -0.1214  0.3445 -0.2560
 3494POSM   C2A40999  30.720  28.941  13.498 -0.2959 -0.1304  0.1823
 3494POSM   C3A41000  30.701  29.242  13.825  0.3312 -0.1777  0.3770
 3494POSM   C1B41001  31.397  28.440  13.479 -0.1551 -0.0698  0.2613
 3494POSM   D2B41002  31.287  28.194  13.835 -0.1422  0.3783  0.0618
 3494POSM   C3B41003  30.898  28.175  14.058  0.0593 -0.1525  0.1569
 3494POSM   C4B41004  30.600  28.361  14.302 -0.0563 -0.2303  0.2654
 3495DOPC   NC341005  31.565  30.482  12.455  0.0894 -0.1762  0.0082
 3495DOPC   PO441006  31.276  30.261  12.534  0.0210 -0.0789 -0.0306
 3495DOPC   GL141007  31.259  30.526  12.806 -0.1951 -0.0824 -0.1432
 3495DOPC   GL241008  31.545  30.497  12.955  0.0289  0.0659 -0.2929
 3495DOPC   C1A41009  31.355  31.008  12.906 -0.0161 -0.0743  0.0785
 3495DOPC   D2A41010  31.635  31.366  13.077 -0.2705 -0.1549 -0.1397
 3495DOPC   C3A41011  32.070  31.291  13.103  0.1509 -0.1138 -0.2842
 3495DOPC   C4A41012  32.494  31.197  13.145 -0.0627 -0.0621  0.3590
 3495DOPC   C1B41013  31.741  30.911  13.150 -0.0259  0.0765 -0.1875
 3495DOPC   D2B41014  31.669  31.191  13.504  0.0859 -0.2057  0.0426
 3495DOPC   C3B41015  31.768  31.586  13.529 -0.2185 -0.3982  0.2184
 3495DOPC   C4B41016  31.846  31.976  13.304  0.2338 -0.0540 -0.0039
 3496POSM   NC341017  31.367   0.124  12.456  0.1009  0.0194 -0.4543
 3496POSM   PO441018  31.016   0.063  12.335  0.2581  0.0224 -0.0576
 3496POSM   AM141019  30.856  -0.174  12.520 -0.0723 -0.0619 -0.1219
 3496POSM   AM241020  30.966  -0.241  12.789 -0.1603 -0.2761 -0.3639
 3496POSM   T1A41021  30.464  -0.391  12.632  0.1378  0.2116  0.3431
 3496POSM   C2A41022  30.109  -0.684  12.712  0.2237 -0.1929  0.1050
 3496POSM   C3A41023  29.810  -0.791  13.049 -0.1550  0.3979  0.2522
 3496POSM   C1B41024  31.119  -0.351  13.040 -0.1044  0.0258 -0.1033
 3496POSM   D2B41025  31.362  -0.384  13.397 -0.3607  0.0813 -0.1990
 3496POSM   C3B41026  31.116  -0.361  13.801  0.1855 -0.0172 -0.2290
 3496POSM   C4B41027  30.778  -0.602  13.972 -0.1472 -0.0498  0.1208
 3497DOPE   NH341028  28.876  22.725  13.174  0.2965 -0.1140 -0.0540
 3497DOPE   PO441029  29.192  22.657  13.123 -0.2381  0.0429 -0.2339
 3497DOPE   GL141030  29.177  22.936  13.487  0.0228  0.3284  0.0191
 3497DOPE   GL241031  28.929  22.947  13.658  0.0798 -0.2631 -0.4945
 3497DOPE   C1A41032  29.291  23.357  13.612  0.2789  0.0829  0.1590
 3497DOPE   D2A41033  29.649  23.479  13.804 -0.0989  0.0435 -0.0887
 3497DOPE   C3A41034  29.754  23.362  14.308  0.0066  0.0035  0.0356
 3497DOPE   C4A41035  29.693  23.276  14.757 -0.1911 -0.0938  0.0065
 3497DOPE   C1B41036  28.985  23.040  14.091  0.2154  0.3154  0.2187
 3497DOPE   D2B41037  29.323  23.135  14.448  0.0345  0.0230 -0.1736
 3497DOPE   C3B41038  29.224  23.078  14.872 -0.2623  0.1889 -0.2624
 3497DOPE   C4B41039  29.055  22.972  15.304 -0.0184  0.1737 -0.3172
 3498DOPC   NC341040  31.998  27.315  12.832 -0.1592 -0.2707  0.3305
 3498DOPC   PO441041  32.029  27.124  12.518 -0.1415  0.0851 -0.0871
 3498DOPC   GL141042  32.265  26.881  12.752 -0.0074  0.1692 -0.4128
 3498DOPC   GL241043  32.180  26.845  13.052  0.1857  0.2670  0.2813
 3498DOPC   C1A41044  32.548  26.517  12.581  0.0291 -0.0820  0.2322
 3498DOPC   D2A41045  32.901  26.333  12.360 -0.1077 -0.1792 -0.2002
 3498DOPC   C3A41046  32.932  25.814  12.341 -0.0708 -0.1580  0.4075
 3498DOPC   C4A41047  32.830  25.365  12.215 -0.0423 -0.3280 -0.0368
 3498DOPC   C1B41048  32.034  27.223  13.347  0.1252 -0.1714  0.1596
 3498DOPC   D2B41049  32.232  27.622  13.514 -0.2458  0.0004  0.1980
 3498DOPC   C3B41050  32.137  27.747  13.979  0.1163  0.4053  0.4166
 3498DOPC   C4B41051  32.266  27.527  14.383  0.0396  0.2159  0.2522
 3499DOPE   NH341052   0.040  23.294  12.722 -0.0614 -0.0830 -0.1096
 3499DOPE   PO441053  -0.175  23.482  12.531 -0.1101  0.1374  0.1045
 3499DOPE   GL141054  -0.158  23.748  12.886  0.3534  0.1881 -0.2391
 3499DOPE   GL241055  -0.460  23.587  12.907  0.1844 -0.1548 -0.0543
 3499DOPE   C1A41056   0.084  23.826  13.266 -0.1121 -0.1492 -0.1757
 3499DOPE   D2A41057   0.319  24.006  13.579 -0.0036  0.0053 -0.3387
 3499DOPE   C3A41058   0.164  24.201  13.949 -0.0207 -0.0671 -0.0781
 3499DOPE   C4A41059  -0.197  24.099  14.208  0.0027  0.0929 -0.0028
 3499DOPE   C1B41060  -0.438  23.799  13.283 -0.0710  0.0285  0.3470
 3499DOPE   D2B41061  -0.271  23.841  13.694 -0.1483 -0.0501 -0.3676
 3499DOPE   C3B41062  -0.276  23.612  14.066  0.2207 -0.2215 -0.0250
 3499DOPE   C4B41063  -0.355  23.226  14.334 -0.0883  0.0333  0.0045
 3500POSM   NC341064  24.767  27.102  12.373  0.0677  0.1011  0.1674
 3500POSM   PO441065  24.449  27.307  12.368 -0.0802 -0.2174  0.0790
 3500POSM   AM141066  24.258  27.427  12.625 -0.1130  0.1299  0.3671
 3500POSM   AM241067  24.384  27.702  12.705  0.0315  0.2058  0.0033
 3500POSM   T1A41068  24.215  27.357  13.111  0.1360 -0.1869  0.4452
 3500POSM   C2A41069  24.201  27.452  13.552  0.0625 -0.3860 -0.2490
 3500POSM   C3A41070  24.233  27.569  14.047 -0.3165  0.3041 -0.4201
 3500POSM   C1B41071  24.495  27.744  13.050 -0.0901  0.1947 -0.1023
 3500POSM   D2B41072  24.626  27.671  13.463 -0.0577 -0.0745 -0.2649
 3500POSM   C3B41073  24.564  27.940  13.894  0.1820 -0.1038 -0.2240
 3500POSM   C4B41074  24.796  28.162  14.229  0.0726 -0.2090  0.2505
 3501DOPC   NC341075  29.846  30.836  12.339 -0.0615  0.0582  0.0386
 3501DOPC   PO441076  29.729  30.734  12.690 -0.2628 -0.0086  0.2908
 3501DOPC   GL141077  29.442  30.526  13.007 -0.2922  0.3629  0.3499
 3501DOPC   GL241078  29.432  30.324  12.698 -0.2706  0.1738  0.0760
 3501DOPC   C1A41079  29.369  30.366  13.417 -0.0553 -0.1267  0.0753
 3501DOPC   D2A41080  29.397  30.132  13.857 -0.1828 -0.3192 -0.4760
 3501DOPC   C3A41081  29.334  30.492  14.202 -0.1965  0.2586  0.1238
 3501DOPC   C4A41082  29.559  30.907  14.184 -0.1175 -0.0799 -0.0051
 3501DOPC   C1B41083  29.773  30.152  13.012  0.2335 -0.0861  0.0675
 3501DOPC   D2B41084  29.779  30.052  13.443 -0.1057 -0.1743 -0.2892
 3501DOPC   C3B41085  29.763  29.751  13.796  0.0202  0.0860  0.0168
 3501DOPC   C4B41086  29.612  29.526  14.173 -0.1978 -0.0326 -0.4757
 3502POSM   NC341087  31.570  25.646  12.809 -0.1890 -0.0476  0.0877
 3502POSM   PO441088  31.657  25.250  12.940 -0.1504 -0.0652  0.0130
 3502POSM   AM141089  31.595  24.971  13.146 -0.2738  0.1585 -0.1817
 3502POSM   AM241090  31.469  24.709  13.104 -0.0260 -0.1114 -0.0151
 3502POSM   T1A41091  31.887  24.589  13.338  0.2174  0.1112  0.0651
 3502POSM   C2A41092  32.043  24.223  13.528  0.2298  0.1184  0.1884
 3502POSM   C3A41093  32.012  23.812  13.792 -0.1007 -0.2056 -0.2831
 3502POSM   C1B41094  31.171  24.687  13.229  0.0510 -0.2313 -0.1023
 3502POSM   D2B41095  30.787  24.539  13.427  0.0877  0.2150  0.1813
 3502POSM   C3B41096  30.535  24.585  13.050 -0.3105  0.2049 -0.2374
 3502POSM   C4B41097  30.496  24.629  12.611 -0.1749  0.0781  0.2985
 3503POSM   NC341098  25.029  30.277  12.358  0.3733  0.1881  0.0507
 3503POSM   PO441099  24.736  30.181  12.547 -0.3723 -0.0622 -0.3868
 3503POSM   AM141100  24.597  30.083  12.830  0.0574  0.2295  0.0214
 3503POSM   AM241101  24.605  30.182  13.095 -0.0604  0.0447  0.3126
 3503POSM   T1A41102  24.272  29.825  13.122  0.0718  0.1402  0.2780
 3503POSM   C2A41103  24.007  29.649  13.467 -0.0371  0.0814 -0.2162
 3503POSM   C3A41104  23.903  29.651  13.915  0.2354  0.0130 -0.1955
 3503POSM   C1B41105  24.431  30.288  13.381 -0.0702  0.0257  0.1323
 3503POSM   D2B41106  24.420  30.449  13.821 -0.0686 -0.0077  0.0033
 3503POSM   C3B41107  24.805  30.676  13.804 -0.1047  0.1434 -0.0673
 3503POSM   C4B41108  25.142  30.966  13.933  0.1138 -0.0350 -0.0155
 3504DOPC   NC341109  28.157  25.178  12.687 -0.0460  0.0247 -0.2622
 3504DOPC   PO441110  28.382  25.450  12.684  0.4275  0.1888 -0.2712
 3504DOPC   GL141111  28.487  25.560  13.044  0.0501  0.3025 -0.2413
 3504DOPC   GL241112  28.710  25.681  13.262  0.2255 -0.0037  0.1439
 3504DOPC   C1A41113  28.314  25.480  13.474  0.0990  0.0981 -0.1647
 3504DOPC   D2A41114  28.403  25.358  13.906  0.0105  0.0947  0.3013
 3504DOPC   C3A41115  28.374  25.693  14.270  0.1568  0.0158 -0.3298
 3504DOPC   C4A41116  28.674  25.950  14.457 -0.0292  0.2088  0.1133
 3504DOPC   C1B41117  28.816  25.354  13.591 -0.1033 -0.0102 -0.0473
 3504DOPC   D2B41118  28.979  25.089  13.911  0.2008  0.2896 -0.3546
 3504DOPC   C3B41119  29.302  24.784  13.902  0.1070 -0.2272  0.3643
 3504DOPC   C4B41120  29.556  24.586  13.586 -0.1082 -0.1812 -0.1596
 3505DOPE   NH341121  26.976  23.841  12.509  0.0783 -0.2248 -0.1518
 3505DOPE   PO441122  27.237  23.885  12.750  0.2574 -0.2097  0.2100
 3505DOPE   GL141123  27.199  24.157  12.958 -0.0860 -0.1448  0.0528
 3505DOPE   GL241124  27.400  24.382  12.808  0.0633  0.0149 -0.3976
 3505DOPE   C1A41125  27.190  24.346  13.381 -0.0641  0.2333  0.3058
 3505DOPE   D2A41126  27.176  24.464  13.854  0.0233  0.1637 -0.1822
 3505DOPE   C3A41127  27.353  24.841  14.008  0.0416  0.1972 -0.3620
 3505DOPE   C4A41128  27.757  25.065  14.014  0.2099  0.1410 -0.0474
 3505DOPE   C1B41129  27.714  24.723  12.982  0.1551  0.0205 -0.0977
 3505DOPE   D2B41130  27.612  25.215  12.973 -0.1341 -0.1085  0.2054
 3505DOPE   C3B41131  27.138  25.217  13.146 -0.2345 -0.1696 -0.1505
 3505DOPE   C4B41132  26.944  25.608  13.279 -0.2703  0.1398  0.1545
 3506POSM   NC341133  26.600  34.189  13.027  0.3767 -0.2100  0.0886
 3506POSM   PO441134  26.893  34.299  12.765 -0.4190  0.0967 -0.2862
 3506POSM   AM141135  26.923  34.520  13.049  0.1587  0.5438  0.1479
 3506POSM   AM241136  26.733  34.703  13.135  0.3924  0.0084  0.0349
 3506POSM   T1A41137  27.146  34.725  13.445  0.2815 -0.1916 -0.1407
 3506POSM   C2A41138  27.215  35.138  13.699  0.2123  0.0675 -0.1001
 3506POSM   C3A41139  27.224  35.480  13.991 -0.0517 -0.1400  0.1907
 3506POSM   C1B41140  26.636  34.659  13.460 -0.1956  0.1697 -0.2139
 3506POSM   D2B41141  26.403  34.694  13.917  0.1759  0.1524 -0.2887
 3506POSM   C3B41142  25.948  34.728  14.009  0.2374  0.0558 -0.0423
 3506POSM   C4B41143  25.681  35.087  14.172  0.0630 -0.0241 -0.2540
 3507POSM   NC341144  28.011  25.605  13.060 -0.2516  0.0767 -0.2118
 3507POSM   PO441145  27.908  25.641  12.681 -0.1428 -0.1005  0.2469
 3507POSM   AM141146  27.618  25.686  12.801 -0.4388 -0.0575  0.1195
 3507POSM   AM241147  27.353  25.686  12.689  0.2031  0.0959  0.3097
 3507POSM   T1A41148  27.444  25.640  13.220  0.1724  0.4499 -0.3032
 3507POSM   C2A41149  27.332  25.725  13.701  0.4173 -0.1449  0.0240
 3507POSM   C3A41150  27.231  26.084  13.954 -0.0530  0.1813  0.0962
 3507POSM   C1B41151  27.086  25.414  12.718  0.3664  0.1585 -0.0150
 3507POSM   D2B41152  26.859  24.996  12.776  0.0246  0.2980  0.0298
 3507POSM   C3B41153  27.203  24.758  13.074  0.2556  0.1398  0.0407
 3507POSM   C4B41154  27.492  24.804  13.424  0.4662 -0.0679  0.1840
 3508DOPS   CNO41155  30.539  29.444  12.608 -0.1741  0.1662 -0.0077
 3508DOPS   PO441156  30.567  29.178  12.888  0.3746  0.3216  0.0823
 3508DOPS   GL141157  30.369  29.218  13.191 -0.2083  0.0952 -0.1864
 3508DOPS   GL241158  30.165  29.049  13.151  0.0864 -0.2206 -0.0168
 3508DOPS   C1A41159  30.187  29.166  13.627 -0.1950  0.0142 -0.1361
 3508DOPS   D2A41160  30.098  29.288  14.047  0.1057  0.2951  0.0883
 3508DOPS   C3A41161  30.469  29.168  14.329 -0.1276 -0.3116  0.0494
 3508DOPS   C4A41162  30.668  28.774  14.562  0.0713 -0.2381 -0.1309
 3508DOPS   C1B41163  29.733  29.040  13.292 -0.2890  0.0370  0.0958
 3508DOPS   D2B41164  29.337  28.952  13.461  0.1837  0.0774 -0.0879
 3508DOPS   C3B41165  29.005  28.830  13.757 -0.0004  0.3056 -0.3712
 3508DOPS   C4B41166  28.680  28.707  14.108  0.1570 -0.0938 -0.0134
 3509DOPC   NC341167  26.814  32.253  12.418 -0.2314 -0.1389  0.2496
 3509DOPC   PO441168  26.950  32.636  12.280 -0.1624 -0.1351  0.2576
 3509DOPC   GL141169  26.574  32.671  12.354  0.2981  0.3259  0.2954
 3509DOPC   GL241170  26.476  32.977  12.205 -0.2600  0.1959  0.0524
 3509DOPC   C1A41171  26.249  32.315  12.461  0.0627 -0.1512 -0.0887
 3509DOPC   D2A41172  25.925  32.134  12.769  0.0352 -0.1658  0.2858
 3509DOPC   C3A41173  25.842  32.058  13.202 -0.1492 -0.1788  0.3138
 3509DOPC   C4A41174  25.579  32.018  13.602  0.0006 -0.1707  0.1293
 3509DOPC   C1B41175  26.028  33.127  12.342 -0.2876  0.1492 -0.3913
 3509DOPC   D2B41176  25.542  33.103  12.309  0.2164  0.1357 -0.1583
 3509DOPC   C3B41177  25.399  32.671  12.434 -0.3344  0.0415  0.1741
 3509DOPC   C4B41178  25.472  32.210  12.529 -0.2977  0.0525 -0.1067
 3510POSM   NC341179  22.239  29.270  12.455  0.1144 -0.0656 -0.2789
 3510POSM   PO441180  22.335  29.258  12.103 -0.2856  0.0529 -0.1655
 3510POSM   AM141181  22.643  29.237  12.215 -0.2902 -0.1860  0.2774
 3510POSM   AM241182  22.754  29.074  12.392  0.3491  0.0684 -0.0534
 3510POSM   T1A41183  23.160  29.217  12.165 -0.0107  0.0420  0.0908
 3510POSM   C2A41184  23.431  28.931  12.344 -0.0159 -0.0807 -0.0544
 3510POSM   C3A41185  23.606  28.523  12.497 -0.0931 -0.0199 -0.1460
 3510POSM   C1B41186  22.894  28.794  12.511  0.0146 -0.2243 -0.0330
 3510POSM   D2B41187  23.190  28.501  12.773  0.0854  0.0948  0.0006
 3510POSM   C3B41188  23.082  28.576  13.197 -0.1677  0.2464 -0.0826
 3510POSM   C4B41189  23.064  28.304  13.603 -0.0476 -0.0106  0.0365
 3511DOPE   NH341190  29.523  27.047  12.844  0.1700  0.0030  0.0164
 3511DOPE   PO441191  29.447  26.725  12.831  0.0535 -0.4047 -0.3272
 3511DOPE   GL141192  29.385  26.675  13.171 -0.1912 -0.1703  0.0609
 3511DOPE   GL241193  29.676  26.647  13.273  0.1145 -0.0297 -0.2458
 3511DOPE   C1A41194  29.226  26.732  13.619 -0.2456 -0.0430  0.0764
 3511DOPE   D2A41195  29.390  27.015  14.022  0.2543 -0.0049  0.3175
 3511DOPE   C3A41196  29.792  27.061  14.154 -0.0346  0.0971 -0.0276
 3511DOPE   C4A41197  30.184  26.773  14.266 -0.2831  0.0769 -0.1407
 3511DOPE   C1B41198  29.639  26.281  13.553  0.0784 -0.3333  0.2490
 3511DOPE   D2B41199  29.341  26.229  13.842 -0.0762  0.1112  0.2114
 3511DOPE   C3B41200  29.222  26.564  14.094 -0.0941 -0.0678  0.0914
 3511DOPE   C4B41201  29.220  26.729  14.511 -0.0079  0.0029 -0.0186
 3512POSM   NC341202  24.085  30.337  12.998 -0.1762 -0.2509  0.1321
 3512POSM   PO441203  24.394  30.469  12.806 -0.1314 -0.0755  0.1399
 3512POSM   AM141204  24.345  30.735  13.005  0.0870  0.0487  0.3923
 3512POSM   AM241205  24.256  30.986  13.051 -0.3605 -0.0384 -0.3086
 3512POSM   T1A41206  24.455  30.793  13.473  0.2235 -0.0296 -0.1106
 3512POSM   C2A41207  24.589  31.112  13.769  0.1729  0.0060  0.1970
 3512POSM   C3A41208  24.755  31.301  14.144 -0.2951  0.1673 -0.1324
 3512POSM   C1B41209  24.162  31.260  13.238 -0.2495  0.0344  0.0135
 3512POSM   D2B41210  24.259  31.628  13.496  0.0609 -0.0835  0.2058
 3512POSM   C3B41211  23.933  31.679  13.869  0.1686  0.1223 -0.2796
 3512POSM   C4B41212  24.010  32.017  14.217 -0.3096  0.4446 -0.1965
 3513POSM   NC341213  26.612  30.087  12.434 -0.0310  0.0922 -0.1677
 3513POSM   PO441214  26.655  29.933  12.795 -0.1043 -0.1231 -0.0570
 3513POSM   AM141215  26.769  29.857  13.110  0.2526 -0.1723  0.0161
 3513POSM   AM241216  26.741  29.896  13.373 -0.0273 -0.0283 -0.0391
 3513POSM   T1A41217  26.732  29.432  13.441  0.0080  0.2224  0.0445
 3513POSM   C2A41218  26.652  29.245  13.890  0.0397 -0.0728  0.0858
 3513POSM   C3A41219  26.608  29.527  14.263 -0.0212  0.3791 -0.2503
 3513POSM   C1B41220  26.857  30.110  13.562 -0.0934 -0.2488 -0.1149
 3513POSM   D2B41221  27.034  30.245  14.019 -0.2094  0.0387  0.2466
 3513POSM   C3B41222  26.881  30.652  13.947  0.3893 -0.1790  0.0349
 3513POSM   C4B41223  26.589  31.022  13.937  0.2048 -0.1556 -0.2235
 3514POSM   NC341224  25.035  29.940  12.888 -0.3118  0.0944 -0.1292
 3514POSM   PO441225  25.365  29.810  12.755 -0.1606 -0.1201 -0.2415
 3514POSM   AM141226  25.509  29.724  13.045  0.1244 -0.0644  0.3870
 3514POSM   AM241227  25.781  29.831  13.046 -0.2135 -0.2111  0.0303
 3514POSM   T1A41228  25.726  29.332  13.341  0.1907 -0.1525 -0.0396
 3514POSM   C2A41229  25.727  29.215  13.819  0.0151  0.0324  0.2306
 3514POSM   C3A41230  25.633  29.121  14.257 -0.1494  0.1010  0.0849
 3514POSM   C1B41231  25.691  30.003  13.354 -0.4235  0.2516 -0.0968
 3514POSM   D2B41232  25.580  30.157  13.749  0.1588 -0.0684 -0.2057
 3514POSM   C3B41233  25.662  30.194  14.237 -0.3296 -0.1803 -0.0380
 3514POSM   C4B41234  25.499  30.272  14.662  0.0665 -0.2448 -0.2022
 3515DOPS   CNO41235  31.790  28.165  12.429 -0.1796  0.2779 -0.2045
 3515DOPS   PO441236  32.058  27.915  12.500 -0.1561 -0.2324 -0.1994
 3515DOPS   GL141237  32.444  27.998  12.659 -0.4217 -0.2127 -0.0626
 3515DOPS   GL241238  32.573  28.295  12.610 -0.2442  0.0229  0.0764
 3515DOPS   C1A41239  32.480  27.514  12.795  0.1321  0.0222  0.2961
 3515DOPS   D2A41240  32.548  27.120  13.063  0.2016  0.2198  0.0067
 3515DOPS   C3A41241  32.592  27.115  13.547 -0.1861 -0.1787  0.1863
 3515DOPS   C4A41242  32.644  26.896  13.964  0.1136 -0.2102 -0.0677
 3515DOPS   C1B41243  32.844  28.245  12.971 -0.5308  0.2602  0.2221
 3515DOPS   D2B41244  32.858  28.312  13.415 -0.4309  0.0914  0.0042
 3515DOPS   C3B41245  32.624  28.021  13.655  0.0707 -0.0321 -0.0080
 3515DOPS   C4B41246  32.563  27.933  14.096 -0.0102  0.0630 -0.0436
 3516POSM   NC341247  30.770  22.837  13.002 -0.0370  0.0004 -0.1143
 3516POSM   PO441248  30.649  22.876  12.659 -0.2457  0.2563 -0.2891
 3516POSM   AM141249  30.400  23.066  12.776  0.0191 -0.3571  0.0583
 3516POSM   AM241250  30.386  23.223  13.007 -0.1433 -0.1008  0.0375
 3516POSM   T1A41251  30.081  23.447  12.649  0.1414  0.0517 -0.0793
 3516POSM   C2A41252  29.694  23.797  12.587 -0.1465 -0.1990  0.0942
 3516POSM   C3A41253  29.338  24.031  12.397 -0.2119  0.2159 -0.2222
 3516POSM   C1B41254  30.262  23.472  13.214  0.1549  0.3227  0.0570
 3516POSM   D2B41255  30.044  23.685  13.558  0.0620  0.0893  0.3166
 3516POSM   C3B41256  30.080  23.809  13.998 -0.1508  0.0039 -0.4181
 3516POSM   C4B41257  29.716  23.864  14.272  0.0768  0.0261  0.0935
 3517DOPE   NH341258  34.229  26.246  12.317  0.4298 -0.0952 -0.2817
 3517DOPE   PO441259  34.067  26.380  12.586  0.0152  0.2300 -0.0271
 3517DOPE   GL141260  33.941  26.592  12.782  0.1186  0.1635  0.3332
 3517DOPE   GL241261  33.753  26.821  12.736  0.0294 -0.0415  0.0785
 3517DOPE   C1A41262  33.761  26.570  13.206 -0.3298 -0.4221  0.3406
 3517DOPE   D2A41263  33.779  26.726  13.656 -0.0627  0.0793  0.5285
 3517DOPE   C3A41264  33.612  27.130  13.842 -0.0858  0.0422 -0.1345
 3517DOPE   C4A41265  33.703  27.385  14.200 -0.0956 -0.0872 -0.1902
 3517DOPE   C1B41266  33.307  26.997  12.685  0.0467  0.0868  0.0055
 3517DOPE   D2B41267  33.183  27.224  13.060 -0.2875 -0.1588  0.2106
 3517DOPE   C3B41268  33.105  27.052  13.469 -0.0418 -0.0296 -0.1076
 3517DOPE   C4B41269  33.158  26.855  13.907  0.0586 -0.0582  0.0219
 3518DOPE   NH341270  34.365  34.328  12.423  0.1053  0.2643 -0.1951
 3518DOPE   PO441271  34.362  34.004  12.415 -0.1153  0.1453  0.2649
 3518DOPE   GL141272  34.106  33.871  12.622  0.1724 -0.1775  0.2264
 3518DOPE   GL241273  33.957  34.214  12.711 -0.1276 -0.0765  0.1015
 3518DOPE   C1A41274  34.115  33.695  13.030 -0.0637  0.0990  0.0162
 3518DOPE   D2A41275  33.978  33.809  13.467 -0.1005  0.0891 -0.1115
 3518DOPE   C3A41276  34.260  33.541  13.744  0.0126 -0.1467  0.3455
 3518DOPE   C4A41277  34.473  33.496  14.143  0.1238  0.3773  0.1644
 3518DOPE   C1B41278  33.661  33.934  12.545 -0.0578 -0.3000  0.1337
 3518DOPE   D2B41279  33.412  33.557  12.426  0.0775 -0.0689  0.0103
 3518DOPE   C3B41280  33.324  33.255  12.794 -0.1164 -0.1596 -0.1387
 3518DOPE   C4B41281  33.605  32.950  13.007 -0.0500 -0.1473  0.0040
 3519DOPE   NH341282  27.825  30.101  12.863  0.0392 -0.1158 -0.1051
 3519DOPE   PO441283  27.562  30.297  12.907  0.0704 -0.0900 -0.2476
 3519DOPE   GL141284  27.679  30.373  13.326 -0.0332  0.2041  0.0401
 3519DOPE   GL241285  27.901  30.201  13.312 -0.1412  0.3099  0.0414
 3519DOPE   C1A41286  27.807  30.319  13.761 -0.2213  0.2059  0.1320
 3519DOPE   D2A41287  28.122  30.241  14.115  0.1284  0.4047  0.0772
 3519DOPE   C3A41288  28.149  30.365  14.574  0.0596 -0.1587 -0.0409
 3519DOPE   C4A41289  27.967  30.251  14.951 -0.0357 -0.3453  0.2120
 3519DOPE   C1B41290  28.065  29.802  13.239  0.0960  0.0966  0.0146
 3519DOPE   D2B41291  28.444  29.561  13.247 -0.0795 -0.0409 -0.1019
 3519DOPE   C3B41292  28.685  29.706  13.657  0.4134  0.4181 -0.0911
 3519DOPE   C4B41293  28.934  29.826  14.038 -0.2034 -0.0589 -0.0623
 3520DOPE   NH341294  24.068  26.434  12.152  0.0536 -0.1188 -0.1598
 3520DOPE   PO441295  24.343  26.296  12.009 -0.1113 -0.1082 -0.1010
 3520DOPE   GL141296  24.489  26.122  12.318  0.2308  0.3212 -0.3030
 3520DOPE   GL241297  24.211  25.946  12.340  0.3447 -0.3049  0.2562
 3520DOPE   C1A41298  24.811  25.854  12.410 -0.0267 -0.1273 -0.2958
 3520DOPE   D2A41299  25.177  25.584  12.396  0.3311  0.1330  0.1892
 3520DOPE   C3A41300  25.420  25.387  12.748  0.3660  0.0427 -0.0808
 3520DOPE   C4A41301  25.711  25.335  13.088  0.1012 -0.2326  0.0792
 3520DOPE   C1B41302  24.264  25.542  12.364 -0.2172 -0.0667  0.1870
 3520DOPE   D2B41303  24.248  25.242  12.632  0.0255  0.1198  0.1356
 3520DOPE   C3B41304  24.643  25.039  12.569  0.3397  0.0321 -0.1322
 3520DOPE   C4B41305  24.841  24.617  12.628 -0.3884  0.1399  0.1544
 3521POSM   NC341306  24.399  26.857  12.045  0.0638  0.1155  0.0226
 3521POSM   PO441307  24.571  26.621  12.308 -0.3083  0.4554  0.3093
 3521POSM   AM141308  24.399  26.477  12.504  0.3425  0.0130  0.0606
 3521POSM   AM241309  24.168  26.464  12.700  0.2530  0.0025  0.1338
 3521POSM   T1A41310  24.425  26.034  12.757 -0.2654  0.1255  0.0512
 3521POSM   C2A41311  24.587  25.551  12.772  0.1386 -0.1487 -0.2336
 3521POSM   C3A41312  24.736  25.152  13.040 -0.1076 -0.1290  0.2520
 3521POSM   C1B41313  24.309  26.437  12.985 -0.0760 -0.3538 -0.0895
 3521POSM   D2B41314  24.640  26.287  13.277  0.0150  0.0242 -0.2247
 3521POSM   C3B41315  24.737  25.831  13.187 -0.1244 -0.1845  0.1829
 3521POSM   C4B41316  24.426  25.498  13.265 -0.1365  0.0456  0.1835
 3522DOPC   NC341317  32.900  31.071  12.709  0.1993 -0.1786 -0.1239
 3522DOPC   PO441318  33.147  31.008  12.419  0.1018 -0.2155  0.0203
 3522DOPC   GL141319  33.455  31.247  12.571  0.0015 -0.4313  0.0852
 3522DOPC   GL241320  33.463  31.131  12.826  0.0543 -0.0711  0.0142
 3522DOPC   C1A41321  33.648  31.676  12.590 -0.3165  0.1079  0.0339
 3522DOPC   D2A41322  33.764  32.052  12.816  0.1553 -0.2765  0.0371
 3522DOPC   C3A41323  33.614  32.187  13.286  0.1005  0.0585 -0.0203
 3522DOPC   C4A41324  33.557  32.182  13.691 -0.0480 -0.0608 -0.0471
 3522DOPC   C1B41325  33.256  31.582  12.862 -0.0722  0.0198 -0.3868
 3522DOPC   D2B41326  33.259  31.971  12.614 -0.3184  0.2553 -0.2315
 3522DOPC   C3B41327  32.998  32.360  12.556 -0.2095  0.1412  0.1258
 3522DOPC   C4B41328  32.768  32.766  12.688  0.0958  0.0053  0.1177
 3523DOPC   NC341329  29.601  31.908  12.345 -0.1016  0.1608  0.0352
 3523DOPC   PO441330  29.474  32.224  12.548  0.3612  0.0782 -0.3789
 3523DOPC   GL141331  29.538  32.290  12.945  0.0258 -0.1169 -0.1553
 3523DOPC   GL241332  29.628  32.000  13.036 -0.0681  0.0734  0.0564
 3523DOPC   C1A41333  29.404  32.701  13.160 -0.1749  0.0056 -0.0507
 3523DOPC   D2A41334  29.462  33.032  13.477  0.0252  0.2258 -0.0139
 3523DOPC   C3A41335  29.122  33.149  13.743 -0.1522 -0.1716  0.1043
 3523DOPC   C4A41336  28.708  33.131  13.915  0.1947 -0.1303 -0.0677
 3523DOPC   C1B41337  29.588  32.166  13.469 -0.2082 -0.0992  0.0623
 3523DOPC   D2B41338  29.582  32.578  13.681  0.1297 -0.0319 -0.0799
 3523DOPC   C3B41339  29.394  32.777  13.989 -0.0862 -0.1399  0.2142
 3523DOPC   C4B41340  29.321  33.144  14.230  0.3754  0.2237 -0.0778
 3524POSM   NC341341  25.560  28.771  12.384  0.1091 -0.2283 -0.1452
 3524POSM   PO441342  25.629  28.415  12.234  0.1089 -0.2848 -0.0026
 3524POSM   AM141343  25.431  28.346  12.492 -0.3776  0.0995  0.4289
 3524POSM   AM241344  25.429  28.428  12.800 -0.1632 -0.3607 -0.1554
 3524POSM   T1A41345  24.963  28.375  12.760 -0.1864  0.0389  0.0092
 3524POSM   C2A41346  24.569  28.279  13.033 -0.1289 -0.1848 -0.1553
 3524POSM   C3A41347  24.133  28.193  13.022  0.1780  0.4855  0.4029
 3524POSM   C1B41348  25.285  28.633  13.033 -0.2473 -0.1513 -0.2068
 3524POSM   D2B41349  24.986  29.018  13.090 -0.1541  0.0939  0.0163
 3524POSM   C3B41350  24.813  29.195  13.455  0.1876  0.0371 -0.0350
 3524POSM   C4B41351  24.360  29.197  13.495  0.0550  0.1146  0.2843
 3525POSM   NC341352  31.568  29.638  13.228 -0.1462 -0.1462  0.3354
 3525POSM   PO441353  31.748  29.510  12.878 -0.3042  0.0373 -0.0176
 3525POSM   AM141354  31.988  29.416  13.063 -0.2818  0.1373 -0.2037
 3525POSM   AM241355  32.155  29.531  13.299  0.1742 -0.0526  0.0397
 3525POSM   T1A41356  32.295  29.086  13.349  0.0455  0.1788  0.3046
 3525POSM   C2A41357  32.629  28.967  13.649 -0.1359 -0.2377 -0.2790
 3525POSM   C3A41358  33.002  28.752  13.665 -0.3073 -0.3215 -0.2856
 3525POSM   C1B41359  32.017  29.705  13.550  0.0428 -0.1487  0.0522
 3525POSM   D2B41360  31.681  29.757  13.922  0.1096 -0.0164  0.0632
 3525POSM   C3B41361  31.882  29.683  14.336  0.1365  0.0026 -0.1146
 3525POSM   C4B41362  31.845  29.835  14.766  0.0912 -0.1959  0.0727
 3526DOPS   CNO41363  31.813  25.845  12.244 -0.1984 -0.0386 -0.1764
 3526DOPS   PO441364  31.589  26.082  12.421 -0.0620  0.3580 -0.0835
 3526DOPS   GL141365  31.836  26.154  12.685  0.1442 -0.0780 -0.2653
 3526DOPS   GL241366  32.113  26.135  12.585 -0.0445 -0.0189 -0.3466
 3526DOPS   C1A41367  31.832  26.026  13.131  0.1863 -0.2449 -0.1974
 3526DOPS   D2A41368  31.787  26.049  13.604 -0.0386  0.0737  0.1954
 3526DOPS   C3A41369  31.531  25.708  13.866  0.1300  0.0961 -0.0166
 3526DOPS   C4A41370  31.152  25.721  14.169 -0.2210  0.0010 -0.0285
 3526DOPS   C1B41371  32.541  25.959  12.695  0.1149  0.0581 -0.1069
 3526DOPS   D2B41372  32.911  26.053  12.888  0.0028 -0.2132 -0.1836
 3526DOPS   C3B41373  33.120  26.195  13.261  0.1295 -0.2399 -0.1108
 3526DOPS   C4B41374  33.333  26.505  13.540  0.2024 -0.1944 -0.0241
 3527DOPE   NH341375  30.824  30.215  12.809 -0.0263 -0.0789 -0.2351
 3527DOPE   PO441376  30.751  30.226  12.475 -0.0842 -0.1231 -0.1602
 3527DOPE   GL141377  30.792  30.592  12.522 -0.1850  0.0552 -0.0829
 3527DOPE   GL241378  30.981  30.647  12.270  0.3090  0.0591 -0.0409
 3527DOPE   C1A41379  30.870  30.761  12.979  0.1725 -0.0570  0.1604
 3527DOPE   D2A41380  31.136  30.882  13.362  0.0610  0.0068 -0.0411
 3527DOPE   C3A41381  31.222  31.361  13.571 -0.0006  0.2281  0.0952
 3527DOPE   C4A41382  31.359  31.657  13.800  0.1890  0.0414  0.1130
 3527DOPE   C1B41383  31.253  31.008  12.269 -0.2717 -0.0940 -0.1337
 3527DOPE   D2B41384  31.318  31.373  12.614 -0.1167 -0.4267 -0.3025
 3527DOPE   C3B41385  31.536  31.768  12.716 -0.2064 -0.1598  0.1163
 3527DOPE   C4B41386  31.671  32.219  12.914 -0.3038  0.1889  0.1265
 3528DOPC   NC341387  30.879  28.940  12.244 -0.0817 -0.4349 -0.0859
 3528DOPC   PO441388  30.490  29.032  12.356  0.1385  0.0464 -0.1241
 3528DOPC   GL141389  30.378  28.751  12.528  0.0605  0.0056  0.2239
 3528DOPC   GL241390  30.300  28.749  12.712 -0.0473 -0.1447 -0.2826
 3528DOPC   C1A41391  30.528  28.288  12.624  0.0245 -0.1895 -0.3100
 3528DOPC   D2A41392  30.723  28.050  12.977  0.2315  0.0214 -0.1629
 3528DOPC   C3A41393  30.574  27.722  13.288  0.2500 -0.2258 -0.0746
 3528DOPC   C4A41394  30.254  27.552  13.622 -0.3359 -0.0621  0.3188
 3528DOPC   C1B41395  30.008  28.432  12.955 -0.0283 -0.1188  0.1862
 3528DOPC   D2B41396  29.733  28.080  12.831  0.0934  0.0912  0.0723
 3528DOPC   C3B41397  29.504  28.041  13.267  0.0270  0.1602 -0.2043
 3528DOPC   C4B41398  29.286  28.306  13.513  0.0205 -0.1698  0.1037
 3529DOPC   NC341399  27.834  30.852  13.399  0.2021 -0.1109  0.0851
 3529DOPC   PO441400  27.910  30.631  13.061  0.0684  0.0820  0.1263
 3529DOPC   GL141401  28.199  30.627  13.250  0.1386  0.0872 -0.1551
 3529DOPC   GL241402  28.488  30.620  13.201  0.2421 -0.0666  0.1561
 3529DOPC   C1A41403  28.225  30.593  13.696  0.1534 -0.5749  0.4414
 3529DOPC   D2A41404  28.048  30.978  13.896 -0.0885  0.3118  0.1465
 3529DOPC   C3A41405  28.212  31.386  13.960  0.2978 -0.3418  0.1808
 3529DOPC   C4A41406  28.412  31.673  14.265 -0.1620 -0.0441  0.0656
 3529DOPC   C1B41407  28.639  30.445  13.605 -0.0167  0.0958  0.0456
 3529DOPC   D2B41408  28.701  30.377  14.068  0.1246 -0.3919 -0.2040
 3529DOPC   C3B41409  28.545  30.033  14.324 -0.1794  0.0393  0.1816
 3529DOPC   C4B41410  28.361  29.944  14.725 -0.0427  0.0963  0.1490
 3530DOPC   NC341411  27.468  31.491  12.779  0.5091 -0.2866 -0.2173
 3530DOPC   PO441412  27.645  31.550  12.437  0.0353  0.0782  0.1393
 3530DOPC   GL141413  27.811  31.901  12.541 -0.1434  0.0094  0.0217
 3530DOPC   GL241414  27.724  32.042  12.299 -0.1877 -0.0200  0.1091
 3530DOPC   C1A41415  28.145  32.134  12.789  0.1273  0.0914  0.2183
 3530DOPC   D2A41416  28.398  32.428  13.100 -0.1031  0.1719 -0.1305
 3530DOPC   C3A41417  28.420  32.499  13.580  0.0376 -0.1654 -0.0950
 3530DOPC   C4A41418  28.463  32.604  14.013 -0.1236  0.0171 -0.0969
 3530DOPC   C1B41419  28.003  32.434  12.328  0.2894 -0.2004 -0.0188
 3530DOPC   D2B41420  28.176  32.723  12.625 -0.2908 -0.3427 -0.0710
 3530DOPC   C3B41421  27.948  32.566  12.964  0.1001  0.0054  0.1003
 3530DOPC   C4B41422  27.956  32.563  13.395 -0.3261 -0.0663  0.4761
 3531DOPE   NH341423  31.924  23.430  12.651 -0.4207 -0.2507  0.2493
 3531DOPE   PO441424  32.012  23.702  12.470 -0.2333 -0.0056  0.0192
 3531DOPE   GL141425  31.855  23.913  12.731 -0.0951 -0.0413 -0.2207
 3531DOPE   GL241426  31.781  24.095  12.931  0.0246  0.0568 -0.1193
 3531DOPE   C1A41427  31.429  23.755  12.891 -0.0110  0.1025 -0.0644
 3531DOPE   D2A41428  31.245  23.405  13.155 -0.0055 -0.1943  0.0481
 3531DOPE   C3A41429  30.983  23.531  13.500 -0.0399 -0.1672 -0.1181
 3531DOPE   C4A41430  30.990  23.545  13.918  0.1185 -0.1542 -0.0027
 3531DOPE   C1B41431  31.594  24.198  13.324  0.3076  0.1022 -0.1541
 3531DOPE   D2B41432  31.271  24.351  13.629 -0.0871  0.2623 -0.2071
 3531DOPE   C3B41433  30.970  24.123  13.762 -0.2265 -0.0246  0.1659
 3531DOPE   C4B41434  30.576  24.029  14.046 -0.0545 -0.0439  0.2293
 3532DOPC   NC341435  34.166  30.595  12.537  0.1511  0.3505  0.0864
 3532DOPC   PO441436  34.349  30.934  12.539 -0.0142 -0.1116  0.1810
 3532DOPC   GL141437  34.228  30.962  12.943 -0.0432  0.1055 -0.0515
 3532DOPC   GL241438  33.957  30.794  12.926 -0.2940 -0.3415 -0.1568
 3532DOPC   C1A41439  34.252  31.302  13.273 -0.3773  0.2227  0.1353
 3532DOPC   D2A41440  34.314  31.594  13.682  0.0651  0.1163  0.0487
 3532DOPC   C3A41441  34.285  31.441  14.078 -0.2178 -0.3111  0.1940
 3532DOPC   C4A41442  34.173  31.017  14.237  0.1939  0.2441 -0.1005
 3532DOPC   C1B41443  33.791  31.045  13.235 -0.1008 -0.5449 -0.1738
 3532DOPC   D2B41444  33.467  31.383  13.362 -0.0139 -0.0809 -0.0629
 3532DOPC   C3B41445  33.309  31.630  13.745 -0.0944  0.0518 -0.2292
 3532DOPC   C4B41446  33.014  31.957  13.820 -0.0314 -0.0693 -0.3132
 3533POSM   NC341447  26.045  27.729  11.989  0.2227  0.1279 -0.0794
 3533POSM   PO441448  26.368  27.825  12.127 -0.2104  0.0247  0.2627
 3533POSM   AM141449  26.420  27.547  12.322  0.3444 -0.1943  0.1526
 3533POSM   AM241450  26.321  27.347  12.455  0.0134  0.0351  0.0202
 3533POSM   T1A41451  26.772  27.361  12.521  0.1150  0.0117  0.0968
 3533POSM   C2A41452  26.809  26.986  12.880  0.3724  0.4949  0.1989
 3533POSM   C3A41453  26.782  26.560  13.082 -0.1891  0.0055  0.1594
 3533POSM   C1B41454  26.312  27.156  12.706 -0.0352  0.3700  0.1325
 3533POSM   D2B41455  26.314  26.665  12.908  0.3089  0.2908 -0.0008
 3533POSM   C3B41456  26.145  26.550  13.329  0.2102 -0.1459 -0.3289
 3533POSM   C4B41457  26.261  26.603  13.789 -0.1715 -0.2687 -0.0716
 3534DOPS   CNO41458  27.245  23.193  12.787 -0.0784  0.2793  0.2776
 3534DOPS   PO441459  27.024  22.891  12.692  0.0810 -0.1455  0.2343
 3534DOPS   GL141460  26.809  22.589  12.594 -0.0615 -0.1434  0.2997
 3534DOPS   GL241461  26.570  22.646  12.785 -0.1159  0.0494 -0.0332
 3534DOPS   C1A41462  26.555  22.387  12.317  0.1043 -0.0357  0.0607
 3534DOPS   D2A41463  26.394  22.204  11.949 -0.1315  0.0814 -0.0213
 3534DOPS   C3A41464  25.925  22.060  11.931  0.1663 -0.0406  0.0106
 3534DOPS   C4A41465  25.801  21.608  12.054 -0.1680 -0.0729 -0.1320
 3534DOPS   C1B41466  26.522  22.411  13.162 -0.1830  0.3347 -0.0188
 3534DOPS   D2B41467  26.348  22.172  13.551 -0.0478  0.1122  0.2464
 3534DOPS   C3B41468  25.980  21.991  13.777  0.0972 -0.2206  0.1563
 3534DOPS   C4B41469  25.992  21.898  14.248 -0.0884 -0.0841  0.0306
 3535DOPE   NH341470  25.814  29.420  12.792 -0.5114 -0.0018 -0.0713
 3535DOPE   PO441471  25.729  29.209  12.570 -0.0871  0.1422 -0.0385
 3535DOPE   GL141472  25.434  29.002  12.812  0.1004  0.0250  0.5751
 3535DOPE   GL241473  25.340  29.324  12.954 -0.2183 -0.0670  0.1019
 3535DOPE   C1A41474  25.081  28.837  12.614 -0.0890 -0.0152 -0.0043
 3535DOPE   D2A41475  24.641  28.734  12.674  0.0531  0.0532 -0.0506
 3535DOPE   C3A41476  24.581  28.754  13.172  0.0822  0.0211  0.5270
 3535DOPE   C4A41477  24.805  28.696  13.529 -0.2828 -0.1065 -0.0023
 3535DOPE   C1B41478  25.208  29.553  13.406  0.0998  0.0249  0.0814
 3535DOPE   D2B41479  24.995  29.624  13.824 -0.0251 -0.0226 -0.4368
 3535DOPE   C3B41480  25.222  29.853  14.111  0.0465 -0.4363  0.2168
 3535DOPE   C4B41481  25.150  30.236  14.290  0.2349  0.0100  0.0747
 3536POSM   NC341482  23.325  26.099  11.912 -0.2538 -0.1635 -0.0905
 3536POSM   PO441483  23.611  26.372  12.030  0.0319 -0.0895  0.1878
 3536POSM   AM141484  23.685  26.197  12.299 -0.1187 -0.0355  0.0587
 3536POSM   AM241485  23.554  25.925  12.378  0.1208 -0.3647  0.1150
 3536POSM   T1A41486  23.927  26.048  12.707  0.0223 -0.0429 -0.1751
 3536POSM   C2A41487  24.146  25.943  13.157  0.1668 -0.0141  0.1689
 3536POSM   C3A41488  23.961  25.690  13.484 -0.0488  0.0257  0.1784
 3536POSM   C1B41489  23.631  25.610  12.468 -0.1606  0.2028 -0.3130
 3536POSM   D2B41490  23.587  25.283  12.812 -0.3232  0.3309  0.3784
 3536POSM   C3B41491  23.867  25.184  13.155  0.0788 -0.1058  0.0027
 3536POSM   C4B41492  24.262  24.997  13.245  0.0401 -0.1409  0.0680
 3537DOPC   NC341493  28.632  27.455  12.326 -0.2076  0.2004  0.0551
 3537DOPC   PO441494  29.014  27.328  12.336 -0.0505 -0.4222  0.1061
 3537DOPC   GL141495  29.160  27.350  12.773  0.2850  0.1180  0.1208
 3537DOPC   GL241496  29.398  27.481  12.771 -0.2412  0.2540 -0.2452
 3537DOPC   C1A41497  29.018  27.598  13.157  0.1258 -0.1327 -0.0516
 3537DOPC   D2A41498  29.113  27.826  13.508 -0.3188  0.0734 -0.3027
 3537DOPC   C3A41499  28.741  27.842  13.750 -0.0716 -0.0610 -0.0011
 3537DOPC   C4A41500  28.666  27.722  14.161 -0.1715  0.0792  0.0289
 3537DOPC   C1B41501  29.287  27.875  12.556 -0.1578 -0.0660  0.4165
 3537DOPC   D2B41502  29.159  28.186  12.848 -0.5190 -0.1661  0.0909
 3537DOPC   C3B41503  28.841  28.170  13.241 -0.2972  0.0666 -0.4076
 3537DOPC   C4B41504  28.712  28.324  13.712  0.1447  0.1145 -0.1849
 3538DOPS   CNO41505  26.965  23.495  13.014 -0.1304 -0.2596 -0.0768
 3538DOPS   PO441506  27.077  23.702  13.320 -0.1135  0.1095 -0.1354
 3538DOPS   GL141507  26.864  24.052  13.519  0.0225  0.1738  0.1357
 3538DOPS   GL241508  26.671  23.830  13.601 -0.1455 -0.3053  0.0334
 3538DOPS   C1A41509  26.689  24.116  13.962 -0.0595  0.0914  0.0641
 3538DOPS   D2A41510  26.318  24.005  14.224 -0.0981  0.2933  0.2921
 3538DOPS   C3A41511  26.038  23.636  14.125  0.0141 -0.0914  0.2238
 3538DOPS   C4A41512  25.802  23.210  14.134  0.2263 -0.0226 -0.3443
 3538DOPS   C1B41513  26.532  23.580  14.026  0.0401 -0.0864 -0.1600
 3538DOPS   D2B41514  26.704  23.188  14.115 -0.0596  0.0464  0.0981
 3538DOPS   C3B41515  26.998  23.158  14.513 -0.0211  0.0088  0.0499
 3538DOPS   C4B41516  27.302  23.160  14.857  0.0249  0.1248 -0.0182
 3539DOPC   NC341517  25.017  27.559  12.212  0.0934  0.1409 -0.0111
 3539DOPC   PO441518  25.244  27.913  12.290  0.0742  0.0308  0.2943
 3539DOPC   GL141519  25.142  27.996  12.638 -0.1964  0.1409  0.0574
 3539DOPC   GL241520  24.883  27.832  12.655  0.3264 -0.2700 -0.0870
 3539DOPC   C1A41521  25.194  28.131  13.121 -0.3254  0.0623 -0.1718
 3539DOPC   D2A41522  24.860  28.112  13.448  0.1117 -0.3657 -0.0977
 3539DOPC   C3A41523  24.408  28.339  13.523  0.0715 -0.1957 -0.2731
 3539DOPC   C4A41524  23.919  28.439  13.430 -0.1371  0.2576  0.0291
 3539DOPC   C1B41525  25.024  27.671  13.098 -0.0280  0.2304  0.2358
 3539DOPC   D2B41526  25.082  27.473  13.530 -0.1528 -0.0781  0.1398
 3539DOPC   C3B41527  25.404  27.455  13.863 -0.1354  0.1020 -0.2316
 3539DOPC   C4B41528  25.658  27.751  14.083  0.0268 -0.3885 -0.2152
 3540DOPC   NC341529  28.835  26.139  12.943 -0.4289 -0.1686  0.0491
 3540DOPC   PO441530  28.546  26.374  12.785  0.2251  0.2124 -0.0966
 3540DOPC   GL141531  28.536  26.510  13.107 -0.0285  0.0278  0.3628
 3540DOPC   GL241532  28.225  26.531  13.174 -0.1306 -0.1399 -0.1295
 3540DOPC   C1A41533  28.767  26.704  13.509 -0.1944  0.0548  0.5377
 3540DOPC   D2A41534  28.854  26.781  13.957 -0.2014 -0.1658  0.0598
 3540DOPC   C3A41535  28.413  26.735  13.944 -0.1457 -0.1808 -0.0659
 3540DOPC   C4A41536  28.182  26.599  13.634 -0.0610  0.0441 -0.1504
 3540DOPC   C1B41537  27.771  26.534  13.210  0.0623  0.2356  0.2204
 3540DOPC   D2B41538  27.310  26.569  13.023 -0.1408 -0.2069 -0.4657
 3540DOPC   C3B41539  27.034  26.356  12.739  0.0976  0.4353 -0.0720
 3540DOPC   C4B41540  26.691  26.356  12.407 -0.1239  0.3120 -0.1258
 3541DOPE   NH341541  30.390  26.471  12.696  0.2089 -0.1632 -0.1322
 3541DOPE   PO441542  30.191  26.241  12.550 -0.0613  0.0587 -0.0983
 3541DOPE   GL141543  30.081  25.843  12.619 -0.0563 -0.0406 -0.1511
 3541DOPE   GL241544  29.777  25.896  12.576 -0.0058  0.0576  0.5302
 3541DOPE   C1A41545  29.970  25.626  12.996 -0.1540 -0.1278  0.1228
 3541DOPE   D2A41546  30.227  25.438  13.333  0.1144 -0.1495 -0.0674
 3541DOPE   C3A41547  30.379  25.745  13.654  0.0749 -0.0854 -0.0570
 3541DOPE   C4A41548  30.225  25.924  14.055 -0.3890 -0.0790  0.0794
 3541DOPE   C1B41549  29.512  25.588  12.791  0.1873 -0.0388  0.3363
 3541DOPE   D2B41550  29.573  25.529  13.272 -0.0097 -0.2638 -0.0259
 3541DOPE   C3B41551  29.836  25.129  13.231  0.0275  0.0206 -0.0785
 3541DOPE   C4B41552  30.229  24.873  13.296 -0.0313  0.1125 -0.1720
 3542DOPC   NC341553  25.257  26.740  12.826 -0.2962 -0.0791 -0.2166
 3542DOPC   PO441554  24.854  26.724  12.786  0.0595 -0.2167 -0.0374
 3542DOPC   GL141555  24.866  26.399  12.606 -0.0923 -0.1841 -0.1227
 3542DOPC   GL241556  24.852  26.228  12.882 -0.2189  0.0221  0.1997
 3542DOPC   C1A41557  25.249  26.130  12.476  0.0207 -0.2073  0.1091
 3542DOPC   D2A41558  25.659  25.957  12.534  0.0957  0.1126  0.0473
 3542DOPC   C3A41559  25.669  25.831  12.976  0.1069 -0.1335 -0.0399
 3542DOPC   C4A41560  25.473  25.846  13.424 -0.1757  0.2031  0.0881
 3542DOPC   C1B41561  25.172  25.856  12.973 -0.1919  0.3517  0.1310
 3542DOPC   D2B41562  25.226  25.389  13.165 -0.0722 -0.0475  0.0202
 3542DOPC   C3B41563  24.900  25.237  13.507  0.1828 -0.0903 -0.0013
 3542DOPC   C4B41564  24.569  25.451  13.727 -0.1497  0.1897 -0.1829
 3543DOPC   NC341565  30.513   0.090  12.402 -0.1132  0.0198 -0.0057
 3543DOPC   PO441566  30.482   0.431  12.225  0.1533 -0.4239  0.1463
 3543DOPC   GL141567  30.645   0.478  12.644 -0.0063  0.1820 -0.1884
 3543DOPC   GL241568  30.879   0.436  12.634 -0.1422 -0.0339 -0.0162
 3543DOPC   C1A41569  30.621   0.084  12.903 -0.0779  0.0693 -0.0518
 3543DOPC   D2A41570  30.705  -0.108  13.276  0.0660  0.0926  0.2589
 3543DOPC   C3A41571  30.802  -0.553  13.427 -0.0146 -0.0696 -0.0341
 3543DOPC   C4A41572  31.005  -0.931  13.576  0.3541  0.0470 -0.2157
 3543DOPC   C1B41573  31.126   0.197  12.988 -0.2033 -0.0592  0.0473
 3543DOPC   D2B41574  31.550   0.071  13.236 -0.0643 -0.0830 -0.0752
 3543DOPC   C3B41575  31.628  -0.075  13.683 -0.1449  0.1180 -0.2436
 3543DOPC   C4B41576  31.873  -0.095  14.046  0.2185 -0.1115  0.0592
 3544POSM   NC341577  28.987  32.433  12.779 -0.0959  0.3263 -0.2759
 3544POSM   PO441578  28.669  32.602  12.651 -0.2100  0.4375 -0.2380
 3544POSM   AM141579  28.585  32.876  12.738 -0.0785  0.3805 -0.1021
 3544POSM   AM241580  28.667  33.131  12.814 -0.2517  0.0434  0.1899
 3544POSM   T1A41581  28.219  33.019  13.038 -0.3600  0.2115 -0.2706
 3544POSM   C2A41582  28.179  33.347  13.339  0.2000 -0.3241 -0.0088
 3544POSM   C3A41583  27.951  33.658  13.585 -0.2277  0.3656 -0.1990
 3544POSM   C1B41584  28.627  33.312  13.133 -0.1475  0.0472  0.0662
 3544POSM   D2B41585  28.814  33.440  13.479 -0.1686 -0.2889  0.2424
 3544POSM   C3B41586  28.411  33.567  13.694 -0.1895  0.0283  0.0089
 3544POSM   C4B41587  28.153  33.775  13.978 -0.2952  0.0689 -0.1288
 3545DOPE   NH341588  28.677  26.683  12.419 -0.0975 -0.3549  0.0343
 3545DOPE   PO441589  28.421  26.907  12.296 -0.0157  0.0246  0.1298
 3545DOPE   GL141590  28.445  27.030  12.638  0.1277  0.1581  0.0446
 3545DOPE   GL241591  28.468  26.890  12.884 -0.0321 -0.0018  0.1834
 3545DOPE   C1A41592  28.410  27.456  12.771  0.0420 -0.2742  0.0990
 3545DOPE   D2A41593  28.718  27.818  12.820 -0.1609 -0.0600 -0.0152
 3545DOPE   C3A41594  28.529  28.190  12.875 -0.0124 -0.2329  0.1600
 3545DOPE   C4A41595  28.426  28.467  13.203 -0.1722  0.3087 -0.4574
 3545DOPE   C1B41596  28.360  27.022  13.342  0.1847  0.3045  0.1044
 3545DOPE   D2B41597  28.356  27.210  13.759  0.1488  0.0225  0.2640
 3545DOPE   C3B41598  28.629  27.258  14.088  0.0274  0.1909  0.0028
 3545DOPE   C4B41599  28.904  27.042  14.354  0.0590 -0.0430 -0.0974
 3546DOPS   CNO41600  28.197  26.361  12.369 -0.1407 -0.2739  0.0221
 3546DOPS   PO441601  28.150  26.633  12.643 -0.1497  0.1352 -0.3592
 3546DOPS   GL141602  28.019  26.996  12.753  0.0827  0.2327 -0.4708
 3546DOPS   GL241603  27.926  27.101  13.017 -0.2571 -0.0775 -0.0018
 3546DOPS   C1A41604  27.805  27.350  12.526  0.0595 -0.0412  0.0353
 3546DOPS   D2A41605  27.319  27.434  12.615  0.3517 -0.0322 -0.0495
 3546DOPS   C3A41606  27.051  27.372  13.005  0.2762  0.0208  0.0747
 3546DOPS   C4A41607  27.098  27.005  13.287 -0.0241 -0.3903 -0.0518
 3546DOPS   C1B41608  27.672  26.958  13.387  0.2156  0.0581  0.2397
 3546DOPS   D2B41609  27.690  26.675  13.732  0.0650  0.0386 -0.1658
 3546DOPS   C3B41610  27.643  26.681  14.170  0.0908  0.0772 -0.1835
 3546DOPS   C4B41611  27.407  26.759  14.583  0.3438 -0.3071  0.0505
 3547DOPC   NC341612  28.526  32.927  12.176  0.2516  0.3831  0.0345
 3547DOPC   PO441613  28.483  33.284  12.383  0.1076  0.1716 -0.1071
 3547DOPC   GL141614  28.210  33.536  12.515 -0.0562  0.0018  0.2232
 3547DOPC   GL241615  28.272  33.585  12.810  0.0340 -0.0052 -0.2217
 3547DOPC   C1A41616  28.113  33.992  12.516  0.3815  0.1502 -0.1719
 3547DOPC   D2A41617  28.008  34.242  12.906  0.1820  0.2866  0.1615
 3547DOPC   C3A41618  28.284  34.275  13.245 -0.1072  0.0698 -0.1850
 3547DOPC   C4A41619  28.446  34.188  13.683 -0.1601 -0.2007 -0.0723
 3547DOPC   C1B41620  28.020  33.755  13.108  0.2417 -0.0338  0.2468
 3547DOPC   D2B41621  27.713  34.000  13.402  0.0072 -0.2080 -0.0632
 3547DOPC   C3B41622  27.443  34.139  13.683  0.3296  0.1571  0.1153
 3547DOPC   C4B41623  27.235  34.308  13.987 -0.0443  0.0713 -0.0649
 3548DOPE   NH341624  24.389  26.929  12.758 -0.0095  0.2980 -0.1802
 3548DOPE   PO441625  24.207  26.905  12.531 -0.1239  0.4469 -0.3783
 3548DOPE   GL141626  23.904  27.061  12.826 -0.3436  0.0424 -0.1748
 3548DOPE   GL241627  23.863  26.791  12.898 -0.0177 -0.3281 -0.1842
 3548DOPE   C1A41628  23.739  27.122  13.307  0.2105  0.1675  0.1177
 3548DOPE   D2A41629  23.452  27.403  13.506 -0.2573  0.0645  0.3242
 3548DOPE   C3A41630  23.379  27.649  13.961 -0.0007  0.4528 -0.0411
 3548DOPE   C4A41631  23.293  27.636  14.423  0.0163  0.0796  0.1370
 3548DOPE   C1B41632  24.128  26.846  13.313  0.4277  0.0197 -0.3862
 3548DOPE   D2B41633  24.206  26.754  13.842 -0.1352  0.1208  0.1968
 3548DOPE   C3B41634  24.157  27.113  14.137  0.1393 -0.1988 -0.1829
 3548DOPE   C4B41635  24.362  27.321  14.509 -0.0649  0.2485  0.2130
 3549DOPE   NH341636  29.466  29.240  12.490 -0.0766  0.1249 -0.1351
 3549DOPE   PO441637  29.582  29.186  12.188  0.0078  0.1151 -0.2164
 3549DOPE   GL141638  29.301  28.852  12.272  0.2869  0.0716  0.1263
 3549DOPE   GL241639  29.063  29.058  12.308 -0.1097  0.1727  0.0909
 3549DOPE   C1A41640  29.035  28.489  12.408  0.3254  0.0070 -0.1369
 3549DOPE   D2A41641  28.651  28.177  12.305  0.2154  0.1007  0.0398
 3549DOPE   C3A41642  28.270  28.450  12.466  0.0354  0.0871 -0.2007
 3549DOPE   C4A41643  28.283  28.778  12.844  0.3113  0.2224 -0.0948
 3549DOPE   C1B41644  28.963  29.538  12.439  0.1039  0.2379  0.1907
 3549DOPE   D2B41645  29.163  29.592  12.868 -0.1652 -0.0877 -0.2955
 3549DOPE   C3B41646  28.939  29.814  13.181 -0.1628  0.3440 -0.0348
 3549DOPE   C4B41647  28.976  30.092  13.571 -0.1287 -0.1243 -0.1849
 3550POSM   NC341648  32.530  30.727  12.255  0.2151  0.1241  0.1005
 3550POSM   PO441649  32.630  30.600  12.581  0.0291 -0.2861 -0.0589
 3550POSM   AM141650  32.556  30.703  12.892 -0.3191  0.1312 -0.1245
 3550POSM   AM241651  32.325  30.758  13.083 -0.2196 -0.1316  0.3871
 3550POSM   T1A41652  32.676  30.751  13.412 -0.0225 -0.1612 -0.0525
 3550POSM   C2A41653  32.840  30.791  13.824  0.2368 -0.0605  0.2615
 3550POSM   C3A41654  33.075  30.526  14.200 -0.2171  0.0123  0.0359
 3550POSM   C1B41655  32.191  30.847  13.415 -0.1655  0.0273  0.2309
 3550POSM   D2B41656  32.231  31.059  13.742 -0.1555  0.0213  0.2100
 3550POSM   C3B41657  31.945  31.308  13.921 -0.2250  0.3274  0.0891
 3550POSM   C4B41658  31.618  31.454  14.169 -0.1701  0.1319  0.0153
 3551POSM   NC341659  32.640   0.022  12.968  0.2331 -0.1006  0.3090
 3551POSM   PO441660  32.745  -0.081  13.309  0.3083 -0.1237 -0.1877
 3551POSM   AM141661  32.685  -0.403  13.291  0.1492 -0.0687 -0.3791
 3551POSM   AM241662  32.825  -0.630  13.333 -0.2794  0.1180 -0.5678
 3551POSM   T1A41663  32.361  -0.725  13.474  0.1452  0.3673  0.0148
 3551POSM   C2A41664  32.026  -0.901  13.735 -0.2025 -0.0597 -0.1208
 3551POSM   C3A41665  31.730  -1.120  14.026  0.1338  0.1161 -0.1035
 3551POSM   C1B41666  33.005  -0.869  13.567 -0.2054 -0.0489 -0.0229
 3551POSM   D2B41667  33.324  -1.179  13.651 -0.1030 -0.0399 -0.3105
 3551POSM   C3B41668  33.231  -1.452  13.316  0.0534  0.4011  0.3166
 3551POSM   C4B41669  33.093  -1.826  13.040 -0.0311  0.3895  0.2518
 3552DOPC   NC341670  24.235  27.495  11.861 -0.0529 -0.1126  0.2103
 3552DOPC   PO441671  24.001  27.176  12.004  0.2305 -0.4294  0.1125
 3552DOPC   GL141672  23.889  27.455  12.343  0.1250 -0.0024 -0.0828
 3552DOPC   GL241673  23.815  27.657  12.217 -0.1239  0.0203  0.0740
 3552DOPC   C1A41674  23.899  27.650  12.789  0.2311 -0.3063 -0.3431
 3552DOPC   D2A41675  23.895  27.729  13.217 -0.0287 -0.0728  0.0418
 3552DOPC   C3A41676  24.181  27.915  13.496  0.2272 -0.0617 -0.2567
 3552DOPC   C4A41677  24.105  28.145  13.893  0.1443 -0.3809 -0.2756
 3552DOPC   C1B41678  23.814  28.048  12.475  0.0609  0.1219 -0.3802
 3552DOPC   D2B41679  23.654  28.215  12.902  0.1636  0.3106 -0.0904
 3552DOPC   C3B41680  23.684  28.668  12.996 -0.0218 -0.0782  0.0434
 3552DOPC   C4B41681  23.968  28.916  13.255 -0.2036  0.3534 -0.1486
 3553DOPC   NC341682  27.885  33.247  12.721 -0.0358 -0.0283  0.2039
 3553DOPC   PO441683  27.677  32.976  12.501 -0.1723 -0.0634  0.1033
 3553DOPC   GL141684  27.613  32.838  12.932 -0.0082 -0.0708  0.2212
 3553DOPC   GL241685  27.484  33.091  13.012  0.5009 -0.2073  0.1046
 3553DOPC   C1A41686  27.381  32.650  13.265 -0.1377 -0.0826 -0.1300
 3553DOPC   D2A41687  27.164  32.587  13.689 -0.0320 -0.0258 -0.0262
 3553DOPC   C3A41688  27.296  32.562  14.181  0.1519  0.0342 -0.0266
 3553DOPC   C4A41689  27.397  32.524  14.638 -0.2933  0.0731  0.2664
 3553DOPC   C1B41690  27.800  33.061  13.324  0.0474  0.0311 -0.1257
 3553DOPC   D2B41691  27.682  32.920  13.695  0.1922 -0.2734  0.0339
 3553DOPC   C3B41692  27.358  33.066  13.906  0.0134 -0.0833 -0.2574
 3553DOPC   C4B41693  26.925  33.209  14.020 -0.0667 -0.0982 -0.1170
 3554DOPC   NC341694  30.408  29.955  12.679  0.2356 -0.5430  0.0414
 3554DOPC   PO441695  30.359  30.291  12.794 -0.0085 -0.1084 -0.1841
 3554DOPC   GL141696  30.091  30.538  12.937  0.6877 -0.0581 -0.3940
 3554DOPC   GL241697  30.287  30.682  13.146 -0.2717  0.0941 -0.0436
 3554DOPC   C1A41698  29.804  30.539  13.288 -0.0818  0.0491  0.1076
 3554DOPC   D2A41699  29.649  30.581  13.705  0.5305 -0.0800 -0.1608
 3554DOPC   C3A41700  29.822  30.229  14.003  0.1680 -0.0447 -0.2327
 3554DOPC   C4A41701  30.139  29.880  14.121 -0.3816  0.1675 -0.0176
 3554DOPC   C1B41702  30.226  30.725  13.575  0.1680  0.1074  0.1958
 3554DOPC   D2B41703  30.034  30.708  14.025 -0.1712 -0.5441  0.1805
 3554DOPC   C3B41704  30.018  31.057  14.321  0.1256 -0.1106 -0.0861
 3554DOPC   C4B41705  30.139  31.484  14.333  0.2320  0.1430 -0.1071
 3555POSM   NC341706  25.809  27.141  12.460  0.0113 -0.1037 -0.1798
 3555POSM   PO441707  25.986  27.245  12.098 -0.0995  0.2594  0.0062
 3555POSM   AM141708  26.180  26.966  12.180  0.1012  0.3595 -0.0615
 3555POSM   AM241709  26.202  26.797  12.392 -0.0561 -0.0485  0.0834
 3555POSM   T1A41710  26.678  26.895  12.358  0.0050  0.0740 -0.1629
 3555POSM   C2A41711  27.165  26.881  12.519  0.0630 -0.0595 -0.0901
 3555POSM   C3A41712  27.449  27.021  12.863 -0.1804  0.0642 -0.0536
 3555POSM   C1B41713  26.164  26.426  12.450  0.0567  0.3688 -0.0041
 3555POSM   D2B41714  26.213  25.944  12.483 -0.1453  0.0603  0.3508
 3555POSM   C3B41715  26.177  25.699  12.914 -0.4485 -0.1096 -0.0189
 3555POSM   C4B41716  26.553  25.359  13.032  0.2878  0.0588  0.2407
 3556DOPC   NC341717  25.139  34.127  12.861 -0.0656 -0.1065 -0.0575
 3556DOPC   PO441718  25.329  33.928  12.619  0.1585 -0.0892  0.1523
 3556DOPC   GL141719  25.115  33.647  12.807  0.1075  0.1045  0.2289
 3556DOPC   GL241720  25.280  33.431  12.792  0.0033 -0.1339  0.1716
 3556DOPC   C1A41721  24.996  33.646  13.234  0.1314  0.3351 -0.2434
 3556DOPC   D2A41722  24.682  33.405  13.393  0.0229 -0.2640  0.1211
 3556DOPC   C3A41723  24.748  32.961  13.607 -0.3304 -0.0496 -0.0471
 3556DOPC   C4A41724  25.087  32.697  13.438 -0.0050 -0.1424  0.1681
 3556DOPC   C1B41725  25.462  33.456  13.169 -0.1188 -0.0505 -0.1063
 3556DOPC   D2B41726  25.761  33.624  13.480 -0.1628  0.1829  0.3959
 3556DOPC   C3B41727  25.630  33.846  13.830 -0.1995 -0.0596 -0.2201
 3556DOPC   C4B41728  25.521  34.087  14.187  0.1114  0.0393 -0.2279
 3557POSM   NC341729  34.163  26.871  13.057 -0.0081  0.0505 -0.1306
 3557POSM   PO441730  34.187  27.028  12.729 -0.0868 -0.1197  0.2746
 3557POSM   AM141731  34.014  27.247  12.788  0.1982  0.2812 -0.2220
 3557POSM   AM241732  33.754  27.340  12.643 -0.1391 -0.1080  0.0589
 3557POSM   T1A41733  33.750  27.545  13.140 -0.3620 -0.1989  0.0608
 3557POSM   C2A41734  33.380  27.495  13.412  0.1958  0.0166 -0.1899
 3557POSM   C3A41735  33.215  27.498  13.841 -0.1481  0.0287  0.4462
 3557POSM   C1B41736  33.484  27.513  12.773  0.0348  0.0582 -0.1475
 3557POSM   D2B41737  33.106  27.746  12.905 -0.2955 -0.1117  0.0180
 3557POSM   C3B41738  33.236  27.967  13.321 -0.1266  0.0033  0.1714
 3557POSM   C4B41739  33.071  28.085  13.789 -0.0053 -0.2827  0.2367
 3558DOPS   CNO41740  31.617  25.296  12.337  0.0569 -0.0809  0.0543
 3558DOPS   PO441741  31.976  25.368  12.509 -0.1400  0.0322 -0.0306
 3558DOPS   GL141742  32.126  25.422  12.809  0.1937  0.1330 -0.2652
 3558DOPS   GL241743  32.083  25.675  12.897  0.1104  0.1040  0.2054
 3558DOPS   C1A41744  32.448  25.394  13.133  0.1225 -0.1203 -0.2097
 3558DOPS   D2A41745  32.917  25.548  13.183 -0.0902  0.2028  0.2115
 3558DOPS   C3A41746  32.863  25.813  13.529 -0.0220  0.2648  0.1663
 3558DOPS   C4A41747  32.999  26.099  13.869 -0.0461  0.0826 -0.1128
 3558DOPS   C1B41748  32.014  25.568  13.365  0.1121  0.2269  0.0796
 3558DOPS   D2B41749  31.943  25.451  13.822  0.0139  0.1708  0.1614
 3558DOPS   C3B41750  31.584  25.167  13.966  0.0948  0.2458 -0.0441
 3558DOPS   C4B41751  31.103  25.199  14.038  0.2895 -0.0145  0.0248
 3559DOPC   NC341752  27.004  28.409  12.112 -0.0885  0.1220  0.2486
 3559DOPC   PO441753  27.319  28.701  12.180  0.3793  0.0087 -0.3992
 3559DOPC   GL141754  27.530  28.681  12.535 -0.1290  0.0575 -0.1626
 3559DOPC   GL241755  27.757  28.884  12.483 -0.2642  0.4978  0.0110
 3559DOPC   C1A41756  27.797  28.368  12.731  0.3139 -0.0627  0.1681
 3559DOPC   D2A41757  27.993  28.225  13.105  0.1308  0.0315  0.0298
 3559DOPC   C3A41758  27.825  27.905  13.386 -0.0245  0.0456 -0.0042
 3559DOPC   C4A41759  27.889  27.497  13.433  0.3123 -0.1382 -0.0097
 3559DOPC   C1B41760  28.187  28.987  12.427 -0.0315 -0.0211  0.2632
 3559DOPC   D2B41761  28.593  28.809  12.429 -0.2196  0.2974 -0.1719
 3559DOPC   C3B41762  28.789  28.629  12.890  0.1683 -0.0149  0.1881
 3559DOPC   C4B41763  28.826  28.664  13.323  0.0489 -0.0317  0.2049
 3560DOPS   CNO41764  22.845  33.436  11.971  0.0257  0.3271 -0.1137
 3560DOPS   PO441765  23.230  33.343  12.012 -0.0793 -0.0973  0.1235
 3560DOPS   GL141766  23.471  33.343  12.407 -0.0950 -0.2380 -0.2597
 3560DOPS   GL241767  23.622  33.567  12.507 -0.0137 -0.0505  0.0483
 3560DOPS   C1A41768  23.616  33.141  12.830  0.3203  0.0728 -0.0181
 3560DOPS   D2A41769  23.746  33.084  13.274 -0.0453  0.1796 -0.4131
 3560DOPS   C3A41770  23.333  32.993  13.456  0.1380 -0.1991  0.0982
 3560DOPS   C4A41771  23.024  33.063  13.791 -0.1311  0.0622  0.1017
 3560DOPS   C1B41772  23.783  33.572  12.948  0.1791 -0.1754  0.0534
 3560DOPS   D2B41773  24.141  33.517  13.268  0.0811  0.0514  0.0384
 3560DOPS   C3B41774  24.233  33.103  13.454  0.0048 -0.1475  0.0589
 3560DOPS   C4B41775  24.082  32.695  13.659  0.1611  0.0518 -0.1609
 3561DOPE   NH341776  27.907  31.171  12.643  0.1579  0.0101 -0.1527
 3561DOPE   PO441777  27.857  31.111  12.973 -0.0772 -0.0387  0.0768
 3561DOPE   GL141778  27.888  31.427  13.027 -0.3004  0.2609 -0.1459
 3561DOPE   GL241779  27.998  31.396  13.386 -0.0978  0.0270 -0.2615
 3561DOPE   C1A41780  27.771  31.866  13.076  0.2177  0.0635 -0.0515
 3561DOPE   D2A41781  27.564  32.208  13.162  0.0730  0.2134 -0.2171
 3561DOPE   C3A41782  27.583  32.303  13.638 -0.0291 -0.0326  0.1634
 3561DOPE   C4A41783  27.884  32.412  13.908 -0.4022 -0.3081 -0.4358
 3561DOPE   C1B41784  28.413  31.527  13.473 -0.2964  0.1506  0.1709
 3561DOPE   D2B41785  28.739  31.463  13.861 -0.0222 -0.1845 -0.0860
 3561DOPE   C3B41786  28.909  31.774  14.175 -0.3402  0.2368 -0.3898
 3561DOPE   C4B41787  28.711  32.184  14.257 -0.4036  0.1269  0.0563
 3562DOPE   NH341788  34.176  25.659  12.371  0.2278  0.2224  0.1482
 3562DOPE   PO441789  33.880  25.528  12.464  0.0415  0.0541  0.0818
 3562DOPE   GL141790  33.899  25.367  12.795 -0.0363 -0.2181  0.2848
 3562DOPE   GL241791  33.700  25.507  12.974  0.2479 -0.3110 -0.0443
 3562DOPE   C1A41792  34.111  25.201  13.166  0.2094 -0.0844  0.0075
 3562DOPE   D2A41793  34.530  25.395  13.262 -0.1860  0.1559  0.0992
 3562DOPE   C3A41794  34.752  25.517  13.610  0.4718 -0.1514 -0.2486
 3562DOPE   C4A41795  34.793  25.677  14.044 -0.0730  0.3283 -0.2051
 3562DOPE   C1B41796  33.867  25.656  13.350 -0.1832 -0.2215  0.2683
 3562DOPE   D2B41797  34.022  25.319  13.698 -0.2118  0.2275  0.4300
 3562DOPE   C3B41798  34.442  25.147  13.802 -0.1377 -0.1853  0.1563
 3562DOPE   C4B41799  34.908  25.045  13.791 -0.1221 -0.2650 -0.1387
 3563DOPE   NH341800  29.199  26.814  12.397 -0.1513  0.0922  0.1697
 3563DOPE   PO441801  29.402  27.051  12.356  0.0102 -0.0631  0.2043
 3563DOPE   GL141802  29.804  27.197  12.489  0.1932 -0.1519 -0.2185
 3563DOPE   GL241803  30.051  27.031  12.491  0.1107  0.0241 -0.0158
 3563DOPE   C1A41804  29.999  27.499  12.804  0.0556 -0.0578  0.2676
 3563DOPE   D2A41805  30.231  27.913  12.943  0.0352 -0.1411  0.1615
 3563DOPE   C3A41806  30.285  28.212  13.274  0.0678 -0.0230 -0.1160
 3563DOPE   C4A41807  30.267  28.636  13.480  0.3335  0.2287 -0.1469
 3563DOPE   C1B41808  30.306  27.084  12.886 -0.0033  0.3150 -0.3925
 3563DOPE   D2B41809  30.436  27.141  13.351  0.4811 -0.2316 -0.2453
 3563DOPE   C3B41810  30.724  26.863  13.572  0.3093 -0.3424 -0.2115
 3563DOPE   C4B41811  30.948  26.445  13.744  0.2630 -0.1643 -0.1804
 3564DOPC   NC341812  28.561  23.512  12.673  0.1622  0.0906  0.1622
 3564DOPC   PO441813  28.945  23.384  12.705  0.1544 -0.1274  0.0464
 3564DOPC   GL141814  29.199  23.634  12.890 -0.0418 -0.2094 -0.0998
 3564DOPC   GL241815  28.964  23.775  12.989 -0.1222 -0.1406 -0.0384
 3564DOPC   C1A41816  29.465  24.021  12.919  0.2744 -0.0813 -0.1757
 3564DOPC   D2A41817  29.799  24.398  12.949 -0.1283 -0.2405  0.0055
 3564DOPC   C3A41818  29.841  24.230  13.314 -0.1457 -0.4557 -0.0864
 3564DOPC   C4A41819  29.738  24.068  13.690 -0.3870  0.0526  0.1463
 3564DOPC   C1B41820  28.979  24.221  13.107  0.2624  0.4336 -0.0471
 3564DOPC   D2B41821  29.186  24.605  13.086  0.2000 -0.1288  0.0901
 3564DOPC   C3B41822  28.843  24.833  13.376 -0.1573 -0.3548 -0.1982
 3564DOPC   C4B41823  28.398  25.024  13.532 -0.1322  0.0726  0.0925
 3565DOPS   CNO41824   0.062  30.625  12.700 -0.1430  0.3033 -0.1285
 3565DOPS   PO441825  -0.201  30.595  12.956  0.0584 -0.0003  0.2584
 3565DOPS   GL141826  -0.322  30.589  13.244 -0.3028 -0.1592 -0.2874
 3565DOPS   GL241827  -0.354  30.386  13.372 -0.0881  0.1176 -0.1628
 3565DOPS   C1A41828  -0.683  30.720  13.525 -0.1354  0.2922 -0.0614
 3565DOPS   D2A41829  -0.879  30.767  13.966  0.1425  0.0126 -0.1597
 3565DOPS   C3A41830  -1.215  30.448  13.914  0.0077  0.1093 -0.0080
 3565DOPS   C4A41831  -1.519  30.412  13.552  0.1335 -0.1435 -0.4115
 3565DOPS   C1B41832  -0.251  30.616  13.693 -0.1182  0.0201 -0.3578
 3565DOPS   D2B41833  -0.294  31.074  13.737 -0.1366  0.3632 -0.1964
 3565DOPS   C3B41834  -0.726  31.165  13.768  0.0265 -0.1607  0.2903
 3565DOPS   C4B41835  -0.938  31.293  14.103  0.0479 -0.1144 -0.1207
 3566DOPS   CNO41836  31.617  34.380  12.120 -0.0200 -0.2787  0.1479
 3566DOPS   PO441837  31.399  34.334  12.414 -0.0782  0.0332  0.0185
 3566DOPS   GL141838  31.317  34.060  12.749 -0.6825  0.1168 -0.2172
 3566DOPS   GL241839  31.093  33.920  12.718  0.1518 -0.1687  0.0314
 3566DOPS   C1A41840  31.425  33.854  13.176  0.0225  0.0848 -0.1677
 3566DOPS   D2A41841  31.545  33.768  13.618 -0.1066  0.2502 -0.0652
 3566DOPS   C3A41842  31.349  33.391  13.586  0.0253 -0.1566 -0.1728
 3566DOPS   C4A41843  31.342  32.970  13.332 -0.2196 -0.1875 -0.0123
 3566DOPS   C1B41844  30.671  33.895  12.842  0.1085  0.1942  0.3177
 3566DOPS   D2B41845  30.315  33.610  12.958  0.2512 -0.1627 -0.1558
 3566DOPS   C3B41846  30.096  33.525  13.362  0.2534  0.2193  0.0269
 3566DOPS   C4B41847  29.790  33.436  13.661  0.1304  0.0158  0.2830
 3567DOPC   NC341848  29.965  32.087  12.650 -0.1054 -0.1446  0.0521
 3567DOPC   PO441849  29.918  32.488  12.581  0.0881 -0.0353 -0.1355
 3567DOPC   GL141850  30.126  32.470  12.949 -0.0259  0.2790 -0.1446
 3567DOPC   GL241851  29.917  32.402  13.133  0.5024 -0.0281 -0.0582
 3567DOPC   C1A41852  30.419  32.770  13.104 -0.3245  0.1219 -0.1493
 3567DOPC   D2A41853  30.886  33.002  13.102  0.3389 -0.5042  0.1387
 3567DOPC   C3A41854  30.860  33.187  13.552  0.0130 -0.0287 -0.3063
 3567DOPC   C4A41855  30.862  33.459  13.963 -0.1741 -0.3163 -0.1293
 3567DOPC   C1B41856  29.925  32.764  13.404 -0.1223  0.0607  0.1253
 3567DOPC   D2B41857  30.078  32.849  13.815  0.2780  0.0970 -0.0353
 3567DOPC   C3B41858  30.455  32.604  13.659 -0.1285 -0.2170 -0.3735
 3567DOPC   C4B41859  30.825  32.384  13.852 -0.4058  0.0338  0.0037
 3568DOPS   CNO41860  25.568  27.506  12.147  0.2528  0.1216  0.2609
 3568DOPS   PO441861  25.506  27.558  12.542 -0.3495  0.0461  0.1059
 3568DOPS   GL141862  25.566  27.378  12.821 -0.3112  0.3683  0.1342
 3568DOPS   GL241863  25.858  27.419  12.910  0.0840  0.0537 -0.1591
 3568DOPS   C1A41864  25.517  27.592  13.248 -0.2509 -0.1583  0.2384
 3568DOPS   D2A41865  25.573  27.973  13.577  0.2915 -0.0314 -0.1901
 3568DOPS   C3A41866  25.209  27.921  13.861 -0.0037  0.2272  0.3222
 3568DOPS   C4A41867  25.234  27.789  14.310 -0.2223  0.4298 -0.0872
 3568DOPS   C1B41868  26.081  27.124  13.246  0.0301  0.0223 -0.0879
 3568DOPS   D2B41869  26.482  26.905  13.401  0.2590 -0.2976  0.3737
 3568DOPS   C3B41870  26.795  26.673  13.600 -0.1347 -0.1280  0.1350
 3568DOPS   C4B41871  26.715  26.380  13.928  0.0708  0.0833  0.1596
 3569DOPS   CNO41872  26.790  29.656  12.338  0.0602 -0.0551 -0.0368
 3569DOPS   PO441873  26.908  29.538  12.695  0.0519  0.1132 -0.2744
 3569DOPS   GL141874  26.952  29.423  13.063 -0.0403 -0.0465 -0.1044
 3569DOPS   GL241875  27.266  29.460  13.035  0.1703  0.0136  0.1297
 3569DOPS   C1A41876  27.161  29.066  13.291 -0.0788  0.1310 -0.3290
 3569DOPS   D2A41877  27.511  28.881  13.632  0.1018  0.0641 -0.1011
 3569DOPS   C3A41878  27.813  29.207  13.835 -0.3783 -0.2345  0.0687
 3569DOPS   C4A41879  28.139  29.389  13.602  0.0047 -0.0777 -0.1202
 3569DOPS   C1B41880  27.155  29.705  13.457  0.0225  0.3328 -0.3082
 3569DOPS   D2B41881  27.061  29.766  13.949  0.0794  0.2498  0.1523
 3569DOPS   C3B41882  27.498  29.779  14.170  0.1993 -0.0198 -0.0865
 3569DOPS   C4B41883  27.838  29.980  14.435 -0.1140 -0.1708  0.1171
 3570DOPC   NC341884  24.660  31.643  12.422  0.1941 -0.0652  0.2443
 3570DOPC   PO441885  24.519  31.414  12.719 -0.4600  0.0211  0.0702
 3570DOPC   GL141886  24.687  31.736  12.911 -0.0153 -0.4894 -0.2711
 3570DOPC   GL241887  24.424  31.854  13.039 -0.1125  0.2169  0.0645
 3570DOPC   C1A41888  25.078  31.881  12.758 -0.1268 -0.1983  0.1307
 3570DOPC   D2A41889  25.512  31.695  12.747 -0.2980  0.4944  0.0759
 3570DOPC   C3A41890  25.709  31.529  13.134  0.1691 -0.1173 -0.2659
 3570DOPC   C4A41891  25.877  31.527  13.524 -0.0116 -0.4548  0.1775
 3570DOPC   C1B41892  24.682  32.228  12.845 -0.2106  0.1826 -0.2668
 3570DOPC   D2B41893  24.962  32.437  12.552  0.2925  0.2818 -0.1053
 3570DOPC   C3B41894  24.992  32.895  12.696  0.0603 -0.0671 -0.0084
 3570DOPC   C4B41895  24.721  33.251  12.855 -0.3001 -0.0224  0.2497
 3571DOPE   NH341896  33.287  23.352  12.748  0.0581 -0.2994 -0.2767
 3571DOPE   PO441897  33.052  23.241  12.928  0.1158 -0.2067  0.2659
 3571DOPE   GL141898  33.145  23.044  13.194  0.2977 -0.1039 -0.0043
 3571DOPE   GL241899  33.055  23.202  13.451 -0.0012  0.1691 -0.0237
 3571DOPE   C1A41900  33.202  22.793  13.605 -0.0501  0.1070  0.0099
 3571DOPE   D2A41901  33.048  22.391  13.755 -0.1259  0.2607  0.1690
 3571DOPE   C3A41902  32.745  22.180  13.915  0.4034  0.1145 -0.0787
 3571DOPE   C4A41903  32.369  21.948  13.856  0.3508  0.1815  0.0827
 3571DOPE   C1B41904  33.216  23.356  13.864 -0.0643 -0.0462 -0.0048
 3571DOPE   D2B41905  33.267  23.106  14.226 -0.0297 -0.1763 -0.0181
 3571DOPE   C3B41906  33.160  22.729  14.084  0.0428  0.0644  0.2620
 3571DOPE   C4B41907  33.298  22.319  14.201  0.0953  0.0417  0.1029
 3572DOPE   NH341908  23.676  34.068  12.624  0.0953 -0.1115  0.0545
 3572DOPE   PO441909  23.514  34.237  12.381  0.3348  0.3334  0.1317
 3572DOPE   GL141910  23.740  34.509  12.589  0.1076 -0.1577  0.1972
 3572DOPE   GL241911  24.000  34.534  12.531 -0.1170  0.2628 -0.1468
 3572DOPE   C1A41912  23.815  34.525  13.034  0.2130 -0.2417 -0.2446
 3572DOPE   D2A41913  24.040  34.652  13.435 -0.0544  0.2639  0.3207
 3572DOPE   C3A41914  23.815  34.781  13.742 -0.4823 -0.0600  0.3261
 3572DOPE   C4A41915  23.768  34.712  14.228  0.1693  0.1862  0.0788
 3572DOPE   C1B41916  24.095  34.224  12.831 -0.0344 -0.4123  0.2403
 3572DOPE   D2B41917  24.161  34.166  13.292  0.1905 -0.1187  0.1681
 3572DOPE   C3B41918  24.372  33.895  13.652 -0.0711 -0.1561 -0.0985
 3572DOPE   C4B41919  24.319  33.529  13.868 -0.2724 -0.1853  0.1165
 3573POSM   NC341920  29.240  25.929  12.522  0.1857 -0.1212 -0.2546
 3573POSM   PO441921  29.087  26.314  12.580 -0.0118  0.0860  0.0692
 3573POSM   AM141922  29.251  26.263  12.882  0.0774  0.3120 -0.0025
 3573POSM   AM241923  29.503  26.246  13.030  0.1423 -0.2213 -0.1180
 3573POSM   T1A41924  29.120  26.313  13.384  0.0523  0.0830 -0.0256
 3573POSM   C2A41925  28.848  26.324  13.813 -0.1386 -0.0004 -0.0514
 3573POSM   C3A41926  28.494  26.209  14.043 -0.3985  0.1263 -0.1194
 3573POSM   C1B41927  29.635  25.986  13.153 -0.0853  0.1648  0.0896
 3573POSM   D2B41928  29.873  25.808  13.523 -0.2171  0.0378 -0.1172
 3573POSM   C3B41929  29.688  25.817  13.913 -0.1871 -0.3476 -0.1651
 3573POSM   C4B41930  29.738  25.390  14.078  0.1646 -0.1667 -0.2972
 3574DOPS   CNO41931  33.157  34.698  12.357 -0.0791  0.2485  0.2072
 3574DOPS   PO441932  32.904  34.558  12.575  0.0806 -0.4027  0.1151
 3574DOPS   GL141933  32.772  34.278  12.867  0.1533 -0.0853  0.0767
 3574DOPS   GL241934  33.014  34.044  12.890  0.0105 -0.3633 -0.0929
 3574DOPS   C1A41935  32.530  33.910  12.963  0.3716 -0.2938 -0.0872
 3574DOPS   D2A41936  32.400  33.496  13.247 -0.0416 -0.0147  0.0018
 3574DOPS   C3A41937  32.200  33.129  13.365  0.2426 -0.0554 -0.1572
 3574DOPS   C4A41938  32.063  32.822  13.748 -0.3020  0.0278  0.1402
 3574DOPS   C1B41939  32.883  33.671  12.617  0.1430 -0.3160 -0.0102
 3574DOPS   D2B41940  32.841  33.235  12.562 -0.3339 -0.4276 -0.0000
 3574DOPS   C3B41941  32.661  33.142  13.004  0.0384  0.3069  0.0174
 3574DOPS   C4B41942  32.688  32.899  13.395  0.1873 -0.0226 -0.3310
 3575DOPC   NC341943  31.160  25.910  12.335  0.1946  0.0998 -0.0232
 3575DOPC   PO441944  31.108  25.763  12.652 -0.2579  0.2253 -0.0913
 3575DOPC   GL141945  30.962  25.511  12.983  0.0825  0.2931  0.3196
 3575DOPC   GL241946  31.163  25.335  13.031  0.1294  0.0869  0.0543
 3575DOPC   C1A41947  30.697  25.155  13.134  0.2740 -0.2167  0.3962
 3575DOPC   D2A41948  30.604  25.056  13.580  0.0104  0.0596  0.1207
 3575DOPC   C3A41949  30.404  24.691  13.755 -0.2020 -0.0740  0.6261
 3575DOPC   C4A41950  30.525  24.556  14.154 -0.0320 -0.3115  0.1789
 3575DOPC   C1B41951  31.082  25.013  12.628 -0.3790  0.0158  0.1456
 3575DOPC   D2B41952  31.011  24.590  12.516 -0.1535  0.0634 -0.1794
 3575DOPC   C3B41953  31.095  24.290  12.829 -0.2235  0.1805 -0.1421
 3575DOPC   C4B41954  31.009  24.040  13.191 -0.1918  0.1158 -0.2059
 3576DOPE   NH341955  23.721  27.011  12.400 -0.1530 -0.1884 -0.2471
 3576DOPE   PO441956  23.749  26.675  12.425  0.1570 -0.2019 -0.0972
 3576DOPE   GL141957  23.664  26.407  12.744  0.1315 -0.1096  0.1977
 3576DOPE   GL241958  23.463  26.463  12.933  0.3168  0.2329  0.1333
 3576DOPE   C1A41959  23.423  26.017  12.842  0.2384  0.0823 -0.1003
 3576DOPE   D2A41960  23.138  25.694  12.964  0.2630  0.0517 -0.0192
 3576DOPE   C3A41961  23.287  25.315  13.241  0.1434  0.1842  0.1750
 3576DOPE   C4A41962  23.078  25.012  13.537  0.0967  0.0884 -0.0395
 3576DOPE   C1B41963  23.792  26.425  13.238  0.1014 -0.2709 -0.1344
 3576DOPE   D2B41964  23.671  26.512  13.699  0.0156 -0.0777  0.0670
 3576DOPE   C3B41965  23.417  26.864  13.636 -0.4040 -0.1794 -0.2201
 3576DOPE   C4B41966  22.982  26.951  13.758 -0.1710  0.0046 -0.2269
 3577DOPS   CNO41967  30.897  26.193  12.786 -0.0377 -0.1988  0.0393
 3577DOPS   PO441968  30.721  26.106  12.457 -0.1625  0.1883  0.4730
 3577DOPS   GL141969  30.684  25.839  12.865 -0.0830  0.4492 -0.3021
 3577DOPS   GL241970  30.493  26.008  12.988 -0.0909  0.0498 -0.3722
 3577DOPS   C1A41971  30.443  25.456  12.745 -0.2409 -0.0556 -0.4597
 3577DOPS   D2A41972  30.249  24.979  12.827 -0.2454 -0.0848  0.3641
 3577DOPS   C3A41973  29.810  24.925  12.708  0.1493 -0.0933  0.0555
 3577DOPS   C4A41974  29.377  25.020  12.780 -0.2241 -0.1299 -0.0176
 3577DOPS   C1B41975  30.757  25.758  13.296  0.1201  0.0560 -0.0769
 3577DOPS   D2B41976  30.978  25.426  13.560 -0.2352 -0.3194  0.2041
 3577DOPS   C3B41977  30.704  25.477  13.957  0.0974  0.3594  0.2423
 3577DOPS   C4B41978  30.361  25.572  14.333  0.1356  0.1555 -0.0867
 3578DOPS   CNO41979  31.979  30.164  12.406 -0.2695  0.3011  0.0824
 3578DOPS   PO441980  32.094  30.516  12.357 -0.0472  0.1567  0.0257
 3578DOPS   GL141981  32.234  30.821  12.640  0.1678  0.3801 -0.2234
 3578DOPS   GL241982  31.918  30.858  12.711  0.0169  0.2090  0.1697
 3578DOPS   C1A41983  32.412  31.259  12.645  0.0393 -0.0776  0.1061
 3578DOPS   D2A41984  32.748  31.553  12.885 -0.0285 -0.1276  0.0814
 3578DOPS   C3A41985  32.793  32.038  12.901  0.3462  0.3680 -0.2060
 3578DOPS   C4A41986  32.698  32.454  13.121 -0.3076  0.0769  0.0993
 3578DOPS   C1B41987  31.844  31.200  12.462 -0.0171  0.0713  0.0594
 3578DOPS   D2B41988  32.100  31.558  12.455 -0.1134  0.2079 -0.0549
 3578DOPS   C3B41989  32.090  31.727  12.900  0.3981  0.3036  0.1969
 3578DOPS   C4B41990  32.342  31.670  13.339 -0.1135  0.0098  0.0058
 3579DOPE   NH341991  23.215  33.858  12.247 -0.4651 -0.2665 -0.0853
 3579DOPE   PO441992  23.112  33.654  12.389  0.3481 -0.3568 -0.3015
 3579DOPE   GL141993  23.260  33.552  12.845 -0.0508 -0.0123  0.0528
 3579DOPE   GL241994  23.144  33.288  12.917  0.1724 -0.0205 -0.1817
 3579DOPE   C1A41995  23.371  33.474  13.278 -0.3870 -0.1013 -0.3324
 3579DOPE   D2A41996  23.563  33.401  13.701 -0.1839 -0.0749  0.0177
 3579DOPE   C3A41997  23.568  33.038  13.923  0.0288 -0.0107  0.0526
 3579DOPE   C4A41998  23.740  32.671  14.108  0.1114 -0.0172 -0.0777
 3579DOPE   C1B41999  23.240  32.855  13.006  0.1946  0.1064 -0.0792
 3579DOPE   D2B42000  23.551  32.628  13.185 -0.0849  0.1542 -0.2884
 3579DOPE   C3B42001  23.517  32.560  13.644  0.1048 -0.2054  0.1293
 3579DOPE   C4B42002  23.222  32.624  13.966 -0.0860  0.2925  0.0620
 3580DOPE   NH342003  27.260  29.042  12.739  0.3531  0.1343  0.0412
 3580DOPE   PO442004  27.404  29.250  12.588  0.1454  0.1618  0.1992
 3580DOPE   GL142005  27.721  29.191  12.895  0.4029 -0.3146  0.0553
 3580DOPE   GL242006  27.664  28.908  12.972  0.2259  0.1593 -0.2320
 3580DOPE   C1A42007  28.128  29.268  13.080  0.3328  0.0403 -0.0586
 3580DOPE   D2A42008  28.468  29.007  13.287  0.0044 -0.1583  0.0720
 3580DOPE   C3A42009  28.324  28.767  13.649  0.0280  0.0439 -0.1112
 3580DOPE   C4A42010  28.232  28.964  14.033 -0.0598  0.4009  0.1479
 3580DOPE   C1B42011  27.957  28.830  13.307  0.3578 -0.2494  0.1814
 3580DOPE   D2B42012  27.900  28.419  13.524 -0.0466 -0.1649  0.0409
 3580DOPE   C3B42013  28.243  28.125  13.530 -0.0535  0.0672  0.0160
 3580DOPE   C4B42014  28.217  27.721  13.694 -0.1713 -0.2077 -0.2873
 3581POSM   NC342015  34.040  23.474  12.401  0.2544 -0.0884 -0.1855
 3581POSM   PO442016  33.831  23.386  12.757  0.0763  0.0458 -0.0954
 3581POSM   AM142017  33.731  23.460  13.057 -0.0366 -0.2877 -0.4504
 3581POSM   AM242018  33.548  23.359  13.262 -0.2078  0.1425  0.0308
 3581POSM   T1A42019  33.747  23.798  13.389 -0.0011  0.1431  0.2160
 3581POSM   C2A42020  33.978  23.921  13.733  0.0501 -0.0232  0.1422
 3581POSM   C3A42021  34.203  24.291  13.901  0.0729  0.0879  0.0326
 3581POSM   C1B42022  33.679  23.286  13.569 -0.1979 -0.0561 -0.0555
 3581POSM   D2B42023  33.717  23.185  14.030  0.1044 -0.0201  0.0598
 3581POSM   C3B42024  33.941  23.517  14.177  0.0476  0.4674 -0.3216
 3581POSM   C4B42025  34.133  23.657  14.575 -0.2656  0.1246  0.1874
 3582DOPC   NC342026  31.708  27.669  12.243 -0.2867  0.0263  0.0305
 3582DOPC   PO442027  31.527  27.536  12.541 -0.3629  0.3978 -0.2265
 3582DOPC   GL142028  31.434  27.453  12.935 -0.0059  0.3133  0.1845
 3582DOPC   GL242029  31.150  27.464  13.019 -0.3819  0.1211 -0.0294
 3582DOPC   C1A42030  31.579  27.358  13.361 -0.0127 -0.1573  0.0324
 3582DOPC   D2A42031  31.717  27.440  13.822 -0.0776  0.2140 -0.1233
 3582DOPC   C3A42032  31.598  27.701  14.151 -0.0347  0.0071  0.0330
 3582DOPC   C4A42033  31.367  28.077  14.313  0.0713  0.0875  0.2310
 3582DOPC   C1B42034  31.018  27.412  13.434  0.0796 -0.0520 -0.3357
 3582DOPC   D2B42035  31.240  27.509  13.785  0.2866  0.1096 -0.0437
 3582DOPC   C3B42036  31.128  27.532  14.207  0.1059  0.1530 -0.0978
 3582DOPC   C4B42037  30.927  27.943  14.480  0.0742 -0.1607 -0.0442
 3583DOPC   NC342038  26.478  28.693  12.726  0.3839 -0.1576 -0.2787
 3583DOPC   PO442039  26.497  28.640  12.310 -0.0182 -0.0990  0.0534
 3583DOPC   GL142040  26.716  28.412  12.504  0.2556 -0.0300 -0.0312
 3583DOPC   GL242041  26.970  28.589  12.577  0.2887  0.1371  0.0539
 3583DOPC   C1A42042  26.844  28.319  12.977 -0.1667 -0.1033 -0.1235
 3583DOPC   D2A42043  27.041  27.885  13.131  0.1786  0.0352 -0.0904
 3583DOPC   C3A42044  27.022  27.637  13.571  0.0986 -0.1100  0.1093
 3583DOPC   C4A42045  26.952  27.739  13.986 -0.0687 -0.0693 -0.0487
 3583DOPC   C1B42046  27.327  28.527  12.904  0.0006 -0.0129  0.0112
 3583DOPC   D2B42047  27.429  28.300  13.287 -0.0580 -0.2036 -0.2230
 3583DOPC   C3B42048  27.465  28.382  13.773  0.0642  0.1663 -0.0233
 3583DOPC   C4B42049  27.427  28.746  14.112  0.0648 -0.1543  0.0985
 3584DOPE   NH342050  32.260  34.419  13.145 -0.1369 -0.1144 -0.1781
 3584DOPE   PO442051  32.123  34.737  13.219 -0.2065 -0.0892 -0.1325
 3584DOPE   GL142052  32.164  34.633  13.616 -0.0395 -0.4272 -0.0466
 3584DOPE   GL242053  32.416  34.545  13.662  0.0057 -0.0707 -0.1821
 3584DOPE   C1A42054  32.218  34.978  13.917 -0.0679 -0.4720 -0.0774
 3584DOPE   D2A42055  32.022  35.180  14.274 -0.4330  0.3881 -0.0103
 3584DOPE   C3A42056  31.871  35.526  13.964 -0.2241 -0.0018 -0.3044
 3584DOPE   C4A42057  31.572  35.648  13.677 -0.2160 -0.0258  0.1450
 3584DOPE   C1B42058  32.152  34.241  13.872  0.4250 -0.1225  0.1521
 3584DOPE   D2B42059  32.150  33.871  14.188  0.0686  0.5652 -0.0083
 3584DOPE   C3B42060  32.423  33.550  13.939 -0.0179 -0.0832  0.0401
 3584DOPE   C4B42061  32.731  33.422  13.601 -0.0149 -0.0480 -0.1300
 3585POSM   NC342062  33.350  34.401  12.732 -0.3250  0.2203 -0.0176
 3585POSM   PO442063  33.536  34.740  12.682 -0.4039 -0.0469  0.0165
 3585POSM   AM142064  33.680  34.604  12.966 -0.0870 -0.1272  0.4851
 3585POSM   AM242065  33.597  34.605  13.225  0.2500  0.0564  0.2929
 3585POSM   T1A42066  33.678  34.145  13.160  0.0741 -0.1428  0.0399
 3585POSM   C2A42067  33.381  33.786  13.087  0.0414  0.1800  0.0401
 3585POSM   C3A42068  32.955  33.613  13.149 -0.4151  0.0510  0.1824
 3585POSM   C1B42069  33.830  34.559  13.492 -0.2600  0.0638  0.0403
 3585POSM   D2B42070  34.007  34.507  13.857 -0.1402  0.0825 -0.0249
 3585POSM   C3B42071  33.885  34.861  14.145  0.0891 -0.0791 -0.1806
 3585POSM   C4B42072  33.608  34.808  14.494  0.0837 -0.0339  0.1042
 3586DOPE   NH342073  30.101  29.260  12.566  0.0965  0.0224  0.1509
 3586DOPE   PO442074  29.934  29.532  12.507 -0.1891 -0.3120  0.2781
 3586DOPE   GL142075  29.596  29.655  12.693 -0.5534  0.2310 -0.0728
 3586DOPE   GL242076  29.642  29.473  12.919  0.3943  0.2093  0.0447
 3586DOPE   C1A42077  29.271  29.915  12.531  0.1832  0.3338  0.0999
 3586DOPE   D2A42078  28.828  30.075  12.651 -0.0889 -0.0468 -0.0282
 3586DOPE   C3A42079  28.464  29.702  12.745  0.0745 -0.0421  0.3304
 3586DOPE   C4A42080  28.484  29.232  12.721  0.3632  0.0299  0.3161
 3586DOPE   C1B42081  29.463  29.689  13.312 -0.4107  0.1322 -0.0272
 3586DOPE   D2B42082  29.202  29.592  13.685  0.0961  0.1396 -0.1675
 3586DOPE   C3B42083  29.202  29.240  13.978 -0.1763  0.2055  0.1524
 3586DOPE   C4B42084  29.368  28.845  14.108  0.1615 -0.1056 -0.4887
 3587DOPC   NC342085  31.489  29.111  12.915  0.3005  0.2153 -0.2464
 3587DOPC   PO442086  31.389  29.126  12.530 -0.1120 -0.0057 -0.0989
 3587DOPC   GL142087  31.030  29.189  12.829 -0.0209 -0.1122 -0.2071
 3587DOPC   GL242088  30.969  28.828  12.876  0.2099 -0.0163  0.0478
 3587DOPC   C1A42089  31.125  29.175  13.298  0.0898  0.0825 -0.2101
 3587DOPC   D2A42090  31.183  28.961  13.703 -0.3020 -0.6276 -0.1082
 3587DOPC   C3A42091  31.612  28.815  13.825 -0.3518 -0.1503  0.2659
 3587DOPC   C4A42092  32.054  28.904  13.841  0.0113  0.0726  0.1444
 3587DOPC   C1B42093  30.643  28.554  13.065  0.2725  0.1116 -0.2554
 3587DOPC   D2B42094  30.745  28.303  13.489  0.0747  0.3499  0.0007
 3587DOPC   C3B42095  30.684  28.553  13.845 -0.1142 -0.1392  0.0000
 3587DOPC   C4B42096  30.873  28.794  14.111 -0.1268  0.0311  0.1235
 3588DOPS   CNO42097  26.859  23.359  12.492  0.3337 -0.0640  0.1067
 3588DOPS   PO442098  26.487  23.499  12.595  0.0638 -0.1715  0.2345
 3588DOPS   GL142099  26.407  23.939  12.657 -0.0583 -0.0483  0.0556
 3588DOPS   GL242100  26.287  24.122  12.913 -0.0458 -0.2185 -0.0253
 3588DOPS   C1A42101  25.959  24.002  12.578 -0.2300 -0.1551 -0.0680
 3588DOPS   D2A42102  25.562  23.872  12.454  0.1420 -0.1249 -0.1802
 3588DOPS   C3A42103  25.162  24.113  12.472 -0.3042 -0.2591  0.2449
 3588DOPS   C4A42104  24.690  24.018  12.593  0.1344 -0.0300 -0.1182
 3588DOPS   C1B42105  25.989  24.067  13.267 -0.0960  0.2431  0.2437
 3588DOPS   D2B42106  25.859  24.373  13.625  0.0389  0.0000  0.2728
 3588DOPS   C3B42107  25.482  24.618  13.664 -0.3543  0.0095 -0.0870
 3588DOPS   C4B42108  25.066  24.624  13.429  0.1346  0.3402  0.1832
 3589DOPE   NH342109  27.294  31.931  12.517  0.3107  0.1429 -0.1778
 3589DOPE   PO442110  27.107  31.645  12.531  0.2868  0.0370  0.0238
 3589DOPE   GL142111  26.859  31.949  12.757 -0.3367  0.1800 -0.0571
 3589DOPE   GL242112  27.095  31.945  12.980  0.0379 -0.0066 -0.1180
 3589DOPE   C1A42113  26.726  32.271  13.037 -0.0501 -0.3316  0.1467
 3589DOPE   D2A42114  26.692  32.441  13.466 -0.0598  0.2291 -0.1180
 3589DOPE   C3A42115  26.674  32.286  13.898 -0.0218 -0.3237  0.1479
 3589DOPE   C4A42116  26.763  31.911  14.183 -0.2499 -0.0263 -0.0439
 3589DOPE   C1B42117  27.069  32.004  13.483 -0.2558 -0.0955  0.0442
 3589DOPE   D2B42118  27.210  32.053  13.903 -0.0333 -0.1397  0.1022
 3589DOPE   C3B42119  27.557  31.953  14.147 -0.0946  0.0465  0.0524
 3589DOPE   C4B42120  27.821  31.651  14.301 -0.1154 -0.3370  0.1754
 3590DOPE   NH342121  25.797  27.963  12.379 -0.0137  0.0437  0.3085
 3590DOPE   PO442122  25.973  27.693  12.466 -0.2645 -0.1386  0.1120
 3590DOPE   GL142123  26.224  27.729  12.713 -0.1988  0.3875  0.1973
 3590DOPE   GL242124  26.097  27.840  12.940  0.1390  0.1455  0.2392
 3590DOPE   C1A42125  26.589  27.589  12.926 -0.1231 -0.0658  0.0472
 3590DOPE   D2A42126  26.693  27.349  13.286  0.1179  0.1352  0.0781
 3590DOPE   C3A42127  26.394  27.353  13.686 -0.1892  0.1586 -0.0774
 3590DOPE   C4A42128  26.068  27.088  13.858 -0.0713 -0.1802 -0.0954
 3590DOPE   C1B42129  26.188  27.589  13.279  0.4867  0.0278  0.0188
 3590DOPE   D2B42130  25.835  27.445  13.571  0.3411 -0.0614  0.2174
 3590DOPE   C3B42131  25.538  27.114  13.554 -0.0260 -0.0632  0.1689
 3590DOPE   C4B42132  25.417  26.686  13.834 -0.2007  0.2835  0.1449
 3591DOPS   CNO42133  34.316   0.159  12.382  0.0903  0.1530  0.1016
 3591DOPS   PO442134  34.132   0.037  12.685 -0.1879  0.0637  0.1327
 3591DOPS   GL142135  33.934   0.294  12.954  0.1158 -0.3496 -0.1748
 3591DOPS   GL242136  34.050   0.155  13.222 -0.0859  0.0641 -0.0741
 3591DOPS   C1A42137  34.020   0.621  13.322  0.0728 -0.0161  0.1872
 3591DOPS   D2A42138  34.349   0.807  13.565  0.1050 -0.1585 -0.1942
 3591DOPS   C3A42139  34.572   0.501  13.892  0.2599 -0.0716 -0.0830
 3591DOPS   C4A42140  34.411   0.223  14.234  0.2724  0.1454 -0.0660
 3591DOPS   C1B42141  34.187   0.249  13.720  0.2127  0.0150  0.0083
 3591DOPS   D2B42142  34.156   0.611  14.107  0.1372 -0.4029 -0.0122
 3591DOPS   C3B42143  33.966   0.515  14.544 -0.0819 -0.0102  0.0422
 3591DOPS   C4B42144  34.096   0.538  15.055 -0.3823  0.1576  0.1377
 3592DOPE   NH342145  34.503  26.151  12.828 -0.1209  0.0353 -0.1161
 3592DOPE   PO442146  34.511  25.946  12.595  0.1582 -0.4216 -0.1304
 3592DOPE   GL142147  34.627  25.773  12.994 -0.1809  0.3076 -0.0659
 3592DOPE   GL242148  34.795  25.886  13.178 -0.1838  0.1996 -0.2666
 3592DOPE   C1A42149  34.315  25.877  13.406 -0.2672  0.1983  0.1605
 3592DOPE   D2A42150  34.316  25.968  13.830  0.0479 -0.2195 -0.1869
 3592DOPE   C3A42151  33.998  25.715  13.994  0.0000 -0.0629 -0.0740
 3592DOPE   C4A42152  33.986  25.353  14.236 -0.0732  0.0726 -0.0560
 3592DOPE   C1B42153  35.103  25.522  13.313  0.1529 -0.0701  0.1501
 3592DOPE   D2B42154  35.236  25.103  13.378  0.0916  0.4679  0.0946
 3592DOPE   C3B42155  35.476  24.841  13.668 -0.1854 -0.1545 -0.0383
 3592DOPE   C4B42156  35.510  24.391  13.810  0.5803  0.1720  0.2655
 3593DOPS   CNO42157  29.017  22.823  12.657  0.0407  0.0164 -0.1278
 3593DOPS   PO442158  28.673  22.977  12.807  0.2091  0.3939  0.1446
 3593DOPS   GL142159  28.599  23.328  13.083  0.2303  0.0061  0.0800
 3593DOPS   GL242160  28.505  23.208  13.278  0.0334  0.1097  0.0372
 3593DOPS   C1A42161  28.485  23.791  13.116  0.6073  0.1222 -0.0157
 3593DOPS   D2A42162  28.532  24.112  13.415  0.3950 -0.0314  0.3635
 3593DOPS   C3A42163  28.327  24.528  13.507 -0.0336  0.2664  0.0439
 3593DOPS   C4A42164  27.979  24.768  13.656  0.2848 -0.3064 -0.1000
 3593DOPS   C1B42165  28.830  23.496  13.402 -0.0884  0.0685  0.2963
 3593DOPS   D2B42166  28.922  23.868  13.625  0.1861  0.1867 -0.2163
 3593DOPS   C3B42167  29.305  24.007  13.922  0.0428 -0.0896  0.2561
 3593DOPS   C4B42168  29.583  24.374  14.112  0.3162  0.2832 -0.1012
 3594DOPS   CNO42169  32.850  23.474  12.404 -0.3261 -0.1542  0.1200
 3594DOPS   PO442170  33.100  23.751  12.530 -0.5612 -0.1481 -0.2073
 3594DOPS   GL142171  33.556  23.734  12.692 -0.1452 -0.0267 -0.2613
 3594DOPS   GL242172  33.442  23.809  12.928 -0.1472  0.1179 -0.2325
 3594DOPS   C1A42173  33.839  23.952  12.402 -0.0074  0.0819 -0.0811
 3594DOPS   D2A42174  34.279  24.088  12.507 -0.2731 -0.4139  0.3311
 3594DOPS   C3A42175  34.425  24.142  12.956  0.2977 -0.1443 -0.1380
 3594DOPS   C4A42176  34.678  24.345  13.266  0.1603 -0.1289  0.2933
 3594DOPS   C1B42177  33.832  24.004  12.902  0.1193 -0.3156 -0.2209
 3594DOPS   D2B42178  34.012  24.216  13.272  0.1688 -0.1252 -0.1070
 3594DOPS   C3B42179  33.798  24.446  13.622 -0.1378 -0.0087  0.1491
 3594DOPS   C4B42180  33.710  24.458  14.085 -0.0597  0.0181 -0.0977
 3595DOPC   NC342181  28.522  25.119  13.071 -0.1890 -0.0911 -0.0951
 3595DOPC   PO442182  28.598  24.902  12.740 -0.2646 -0.0886 -0.3686
 3595DOPC   GL142183  28.215  24.565  12.795  0.0852 -0.1700 -0.1702
 3595DOPC   GL242184  28.158  24.651  13.036  0.1677  0.0858 -0.0657
 3595DOPC   C1A42185  27.886  24.234  12.914 -0.0789  0.0524  0.0819
 3595DOPC   D2A42186  27.561  24.076  13.180  0.1918  0.0129 -0.0658
 3595DOPC   C3A42187  27.634  24.251  13.584 -0.1273 -0.1781 -0.0633
 3595DOPC   C4A42188  27.661  24.298  14.042 -0.0698 -0.2861 -0.1355
 3595DOPC   C1B42189  28.043  25.007  13.212  0.0542 -0.2886 -0.0775
 3595DOPC   D2B42190  27.818  25.339  13.483  0.2888 -0.0569  0.0578
 3595DOPC   C3B42191  27.416  25.231  13.711 -0.0592  0.1195 -0.1931
 3595DOPC   C4B42192  27.028  25.286  13.824  0.2389 -0.1129  0.3046
 3596DOPC   NC342193  33.992  30.004  13.218  0.1634  0.2933  0.0960
 3596DOPC   PO442194  34.038  30.299  12.946 -0.4160  0.0089  0.1588
 3596DOPC   GL142195  33.690  30.386  13.156 -0.1799 -0.3013  0.0576
 3596DOPC   GL242196  33.521  30.667  13.163 -0.0134 -0.1514 -0.1360
 3596DOPC   C1A42197  33.326  30.084  13.189 -0.1372  0.4936 -0.2831
 3596DOPC   D2A42198  32.968  29.948  13.362  0.3072 -0.1915  0.0826
 3596DOPC   C3A42199  32.758  30.222  13.755 -0.0734  0.0702  0.2134
 3596DOPC   C4A42200  32.554  30.360  14.149 -0.2839 -0.3309  0.2179
 3596DOPC   C1B42201  33.514  30.856  13.604  0.1435  0.1287 -0.1894
 3596DOPC   D2B42202  33.289  31.097  13.947 -0.0407  0.3071 -0.0626
 3596DOPC   C3B42203  33.451  30.951  14.385  0.1609  0.1318  0.2494
 3596DOPC   C4B42204  33.744  30.867  14.649 -0.3596  0.3193  0.2659
 3597DOPE   NH342205  29.718  26.645  12.392 -0.1540 -0.2178 -0.0602
 3597DOPE   PO442206  29.625  26.349  12.539 -0.0317 -0.2481 -0.0236
 3597DOPE   GL142207  29.872  26.431  12.794 -0.0532  0.2919 -0.0733
 3597DOPE   GL242208  29.963  26.710  12.890  0.1544  0.1890 -0.0599
 3597DOPE   C1A42209  30.086  26.219  13.196  0.0749 -0.0810  0.1684
 3597DOPE   D2A42210  30.151  26.218  13.630  0.1050  0.0098 -0.0197
 3597DOPE   C3A42211  30.415  26.506  13.842  0.0228  0.0070  0.0524
 3597DOPE   C4A42212  30.695  26.756  14.129 -0.1578 -0.0927  0.0035
 3597DOPE   C1B42213  29.955  27.075  13.177 -0.0550 -0.2892  0.0863
 3597DOPE   D2B42214  29.795  27.144  13.612  0.1262  0.0678 -0.1297
 3597DOPE   C3B42215  29.596  27.474  13.880 -0.0008 -0.0570  0.2593
 3597DOPE   C4B42216  29.465  27.759  14.271 -0.2250 -0.0247 -0.2100
 3598DOPC   NC342217  33.042   0.286  13.316  0.1447 -0.0282  0.3049
 3598DOPC   PO442218  33.147   0.019  13.029 -0.2118 -0.0717  0.2582
 3598DOPC   GL142219  33.153  -0.272  13.389 -0.5580  0.1183 -0.0142
 3598DOPC   GL242220  33.280  -0.483  13.381 -0.0746 -0.0515 -0.0390
 3598DOPC   C1A42221  32.896  -0.421  13.791 -0.0117  0.2444 -0.1367
 3598DOPC   D2A42222  32.589  -0.674  14.017 -0.0521 -0.2077 -0.0589
 3598DOPC   C3A42223  32.617  -0.416  14.407 -0.3351 -0.1818  0.0490
 3598DOPC   C4A42224  32.713  -0.022  14.710  0.1308  0.1918 -0.0738
 3598DOPC   C1B42225  33.601  -0.684  13.624 -0.0412  0.1376 -0.2612
 3598DOPC   D2B42226  33.745  -1.031  13.895  0.0311 -0.1517  0.0557
 3598DOPC   C3B42227  33.949  -1.218  14.252  0.0570 -0.2063  0.0406
 3598DOPC   C4B42228  34.307  -1.076  14.581  0.2177  0.1552 -0.0393
 3599POSM   NC342229  28.274  25.830  12.390 -0.4174  0.2530  0.1796
 3599POSM   PO442230  28.684  25.864  12.495  0.2617 -0.2456  0.2187
 3599POSM   AM142231  28.847  25.718  12.713  0.0464 -0.2507  0.0603
 3599POSM   AM242232  28.900  25.473  12.819  0.0225  0.0398  0.1703
 3599POSM   T1A42233  29.176  25.820  13.114 -0.1597 -0.1384 -0.1795
 3599POSM   C2A42234  29.193  25.841  13.540 -0.1960 -0.0013  0.0764
 3599POSM   C3A42235  29.318  25.482  13.859 -0.0029  0.2823  0.1617
 3599POSM   C1B42236  29.096  25.358  13.100  0.1570  0.1536 -0.0004
 3599POSM   D2B42237  29.390  25.052  13.295 -0.0231 -0.1513 -0.0552
 3599POSM   C3B42238  29.693  25.146  13.674  0.2930  0.4363 -0.1304
 3599POSM   C4B42239  30.120  25.208  13.753 -0.3721  0.2704 -0.2053
 3600DOPC   NC342240  26.898  30.747  12.909  0.0100 -0.0478  0.0225
 3600DOPC   PO442241  26.856  30.640  12.500 -0.2965 -0.2736  0.4010
 3600DOPC   GL142242  26.618  30.387  12.786  0.2421 -0.3011  0.0384
 3600DOPC   GL242243  26.361  30.612  12.689  0.2306  0.0695 -0.2508
 3600DOPC   C1A42244  26.562  30.431  13.246 -0.3891  0.2641 -0.2280
 3600DOPC   D2A42245  26.422  30.713  13.614  0.1092 -0.0795  0.1799
 3600DOPC   C3A42246  26.227  30.585  13.974 -0.0979 -0.0255 -0.2167
 3600DOPC   C4A42247  26.006  30.784  14.329 -0.0605 -0.3790 -0.0144
 3600DOPC   C1B42248  26.389  30.937  13.084  0.1742 -0.0122 -0.0745
 3600DOPC   D2B42249  26.563  31.213  13.411  0.1433  0.0035  0.1816
 3600DOPC   C3B42250  26.353  31.500  13.677 -0.1493 -0.1005  0.1610
 3600DOPC   C4B42251  26.334  31.509  14.153  0.0177 -0.1630 -0.0690
 3601DOPC   NC342252  29.973  31.262  12.839  0.1983 -0.2166 -0.2536
 3601DOPC   PO442253  29.769  31.632  12.771  0.0543 -0.0651 -0.2985
 3601DOPC   GL142254  29.893  31.584  13.144  0.2524 -0.3554  0.4754
 3601DOPC   GL242255  29.601  31.508  13.294 -0.1834 -0.1284 -0.0965
 3601DOPC   C1A42256  30.021  31.970  13.361 -0.0399  0.0943  0.0558
 3601DOPC   D2A42257  30.037  32.338  13.679 -0.1132 -0.1840  0.1541
 3601DOPC   C3A42258  29.777  32.336  14.072 -0.3291  0.2341 -0.0911
 3601DOPC   C4A42259  29.478  32.416  14.443 -0.1039 -0.1238 -0.0888
 3601DOPC   C1B42260  30.015  31.444  13.602  0.1126  0.1534  0.2636
 3601DOPC   D2B42261  30.336  31.218  13.784  0.0691  0.2798  0.2148
 3601DOPC   C3B42262  30.581  31.243  14.176  0.1501 -0.1188 -0.0274
 3601DOPC   C4B42263  30.643  31.563  14.573  0.0421  0.2029  0.2123
 3602DOPE   NH342264  27.537  32.503  12.540  0.1713 -0.2673 -0.0102
 3602DOPE   PO442265  27.251  32.397  12.667 -0.2294 -0.2524 -0.4382
 3602DOPE   GL142266  27.063  32.643  12.768 -0.1683  0.1055 -0.2322
 3602DOPE   GL242267  26.756  32.666  12.780 -0.0819 -0.0913  0.1427
 3602DOPE   C1A42268  26.958  32.774  13.183 -0.0975 -0.1069 -0.0630
 3602DOPE   D2A42269  27.159  33.049  13.429  0.0987  0.1044  0.2120
 3602DOPE   C3A42270  26.951  33.414  13.455 -0.1830  0.0316  0.1582
 3602DOPE   C4A42271  26.864  33.813  13.289 -0.0749  0.1723  0.1071
 3602DOPE   C1B42272  26.496  32.671  13.105  0.0463 -0.1394  0.2347
 3602DOPE   D2B42273  26.177  32.381  13.208 -0.0135  0.1480  0.2044
 3602DOPE   C3B42274  25.966  32.365  13.598 -0.1253 -0.0543 -0.2611
 3602DOPE   C4B42275  26.084  32.386  14.009  0.0562  0.0676  0.0619
 3603DOPE   NH342276  25.666  33.594  12.367  0.2097 -0.2383  0.1864
 3603DOPE   PO442277  25.892  33.839  12.458  0.1933 -0.0606  0.0533
 3603DOPE   GL142278  25.692  33.730  12.809 -0.3529 -0.1833 -0.2103
 3603DOPE   GL242279  25.726  33.890  12.998 -0.1916 -0.0729  0.0934
 3603DOPE   C1A42280  25.732  33.223  12.831 -0.0025 -0.1028  0.0615
 3603DOPE   D2A42281  25.423  32.906  12.943 -0.1696 -0.0934 -0.1712
 3603DOPE   C3A42282  25.086  33.083  13.183  0.0919  0.2561 -0.1127
 3603DOPE   C4A42283  25.147  33.237  13.620 -0.0586 -0.3393  0.1468
 3603DOPE   C1B42284  25.393  33.963  13.283  0.2694  0.0522  0.0122
 3603DOPE   D2B42285  25.203  34.383  13.438  0.0600  0.1681 -0.3373
 3603DOPE   C3B42286  24.991  34.760  13.663  0.0058 -0.2883 -0.1597
 3603DOPE   C4B42287  24.885  35.006  14.019  0.1725  0.2221  0.1097
 3604DOPC   NC342288  24.272  30.025  12.549 -0.1285 -0.0680 -0.1055
 3604DOPC   PO442289  23.991  30.281  12.429 -0.0643  0.2101 -0.1532
 3604DOPC   GL142290  23.695  30.434  12.721 -0.3191  0.1385  0.2641
 3604DOPC   GL242291  23.588  30.089  12.738 -0.2716 -0.3397 -0.4098
 3604DOPC   C1A42292  23.558  30.374  13.158  0.1994  0.0316 -0.0141
 3604DOPC   D2A42293  23.444  30.665  13.463  0.2708  0.1011  0.1320
 3604DOPC   C3A42294  23.718  30.641  13.882  0.1103 -0.2032 -0.2736
 3604DOPC   C4A42295  24.039  30.439  14.200  0.0850  0.0600 -0.5652
 3604DOPC   C1B42296  23.791  29.986  13.129  0.2793 -0.2253  0.1576
 3604DOPC   D2B42297  23.591  29.973  13.527 -0.0214 -0.0663 -0.3746
 3604DOPC   C3B42298  23.436  29.735  13.909  0.2753 -0.0815 -0.1635
 3604DOPC   C4B42299  23.310  29.527  14.278  0.1249 -0.0434  0.0175
 3605DOPE   NH342300  32.206  29.764  12.864 -0.2807  0.1851 -0.0511
 3605DOPE   PO442301  32.224  29.567  12.617 -0.3507  0.0080  0.1722
 3605DOPE   GL142302  32.542  29.410  12.832 -0.2917 -0.0836 -0.0400
 3605DOPE   GL242303  32.547  29.179  12.813  0.1955  0.0247 -0.3903
 3605DOPE   C1A42304  32.961  29.501  12.877 -0.1915  0.1068  0.0607
 3605DOPE   D2A42305  33.395  29.559  13.057 -0.0528  0.0184  0.0606
 3605DOPE   C3A42306  33.509  29.654  13.475 -0.2737 -0.2845 -0.1834
 3605DOPE   C4A42307  33.381  29.533  13.944  0.2356 -0.1766  0.0951
 3605DOPE   C1B42308  32.690  29.406  13.282  0.1934 -0.1337 -0.0181
 3605DOPE   D2B42309  32.971  29.342  13.617  0.1354  0.2046  0.2489
 3605DOPE   C3B42310  32.839  29.201  14.048  0.1043 -0.0303 -0.1191
 3605DOPE   C4B42311  32.807  29.142  14.480 -0.0774 -0.2103  0.1317
 3606DOPS   CNO42312  29.517  32.655  12.217 -0.2599 -0.3653  0.0528
 3606DOPS   PO442313  29.437  32.718  12.592 -0.1116 -0.2489  0.0800
 3606DOPS   GL142314  29.786  32.888  12.935  0.3177 -0.1509 -0.1566
 3606DOPS   GL242315  30.065  32.904  12.811  0.0776  0.0728  0.1443
 3606DOPS   C1A42316  29.757  33.252  13.141 -0.0015  0.1440  0.2004
 3606DOPS   D2A42317  29.502  33.605  13.228 -0.0018  0.0399 -0.0706
 3606DOPS   C3A42318  29.163  33.836  13.503  0.0993 -0.2183  0.0335
 3606DOPS   C4A42319  29.046  34.091  13.744  0.1051  0.0092 -0.2235
 3606DOPS   C1B42320  29.910  33.287  12.582  0.1328  0.0928  0.0165
 3606DOPS   D2B42321  29.629  33.642  12.639  0.0864  0.0052  0.3138
 3606DOPS   C3B42322  29.304  33.892  12.848  0.0464  0.0009  0.1019
 3606DOPS   C4B42323  29.365  34.239  13.156  0.2612 -0.1313 -0.2866
 3607DOPC   NC342324  27.182  33.055  12.499 -0.1677  0.0860  0.3044
 3607DOPC   PO442325  26.872  33.292  12.506 -0.2318 -0.1281  0.3136
 3607DOPC   GL142326  26.883  33.192  12.875 -0.0333 -0.1492  0.0408
 3607DOPC   GL242327  27.116  33.388  13.002 -0.1990  0.0363  0.1584
 3607DOPC   C1A42328  26.587  33.168  13.198  0.2270 -0.0819 -0.0450
 3607DOPC   D2A42329  26.684  32.989  13.582 -0.1106 -0.1722 -0.4022
 3607DOPC   C3A42330  26.413  32.803  13.932  0.1853  0.0884 -0.0266
 3607DOPC   C4A42331  26.060  32.882  14.166  0.2419  0.4487 -0.3071
 3607DOPC   C1B42332  27.382  33.803  13.055  0.0792 -0.2737  0.0875
 3607DOPC   D2B42333  27.276  34.212  13.206  0.2190  0.0968 -0.0900
 3607DOPC   C3B42334  26.995  34.260  13.516  0.4188 -0.7059  0.3218
 3607DOPC   C4B42335  26.718  34.257  13.869  0.1774 -0.0034  0.0438
 3608POSM   NC342336  31.714  29.750  12.437 -0.0427 -0.2169 -0.1282
 3608POSM   PO442337  31.744  30.015  12.796  0.0713  0.0550  0.0262
 3608POSM   AM142338  31.742  30.103  13.094  0.3601 -0.0890  0.1702
 3608POSM   AM242339  31.970  30.080  13.226  0.1657  0.1054 -0.1527
 3608POSM   T1A42340  31.468  30.028  13.492  0.2112  0.0359 -0.1306
 3608POSM   C2A42341  31.328  30.133  13.928 -0.0273 -0.1065  0.5489
 3608POSM   C3A42342  31.349  30.174  14.407 -0.2749 -0.1869  0.0867
 3608POSM   C1B42343  31.862  30.389  13.409  0.3100  0.2048  0.1222
 3608POSM   D2B42344  31.795  30.768  13.737 -0.3005  0.1823  0.2986
 3608POSM   C3B42345  31.664  30.449  14.072  0.1429  0.0657  0.0330
 3608POSM   C4B42346  31.848  30.273  14.420 -0.0786 -0.0241  0.0450
 3609DOPC   NC342347  25.731  29.842  12.478  0.0521 -0.3718 -0.0557
 3609DOPC   PO442348  25.614  30.214  12.532  0.0673 -0.2292  0.1491
 3609DOPC   GL142349  25.712  30.265  12.960  0.0331  0.1584 -0.2661
 3609DOPC   GL242350  25.441  30.280  13.003  0.6210  0.3576 -0.0966
 3609DOPC   C1A42351  25.638  30.593  13.326  0.2164 -0.1814  0.2657
 3609DOPC   D2A42352  25.261  30.576  13.592 -0.1131 -0.3340  0.0740
 3609DOPC   C3A42353  25.048  30.239  13.820 -0.2060 -0.1721 -0.1830
 3609DOPC   C4A42354  24.682  30.037  14.072  0.0268  0.2162 -0.0855
 3609DOPC   C1B42355  25.201  30.157  13.367 -0.0207 -0.1497 -0.0343
 3609DOPC   D2B42356  24.825  29.928  13.478  0.1611 -0.3466  0.1349
 3609DOPC   C3B42357  24.470  29.724  13.627  0.0212  0.0639  0.0415
 3609DOPC   C4B42358  24.370  29.452  14.008  0.1592 -0.1243 -0.3074
 3610POSM   NC342359  28.333  30.356  12.735 -0.0961 -0.0691 -0.0026
 3610POSM   PO442360  28.304  30.745  12.762 -0.0037 -0.1714  0.0437
 3610POSM   AM142361  28.342  30.978  12.977  0.1217 -0.0217  0.2255
 3610POSM   AM242362  28.454  31.234  13.102 -0.0116  0.0077 -0.1332
 3610POSM   T1A42363  28.330  31.025  13.495 -0.0878 -0.0381  0.2446
 3610POSM   C2A42364  28.582  30.945  13.817 -0.1807  0.2213 -0.3036
 3610POSM   C3A42365  28.385  30.723  14.218 -0.4552  0.1178 -0.1129
 3610POSM   C1B42366  28.786  31.207  13.307 -0.1858  0.3815  0.2789
 3610POSM   D2B42367  29.076  31.146  13.665  0.1117 -0.0307 -0.1238
 3610POSM   C3B42368  29.214  31.364  14.032  0.1036 -0.1440 -0.0042
 3610POSM   C4B42369  29.277  31.230  14.383  0.3477  0.2283  0.0158
 3611DOPE   NH342370  26.323  29.180  12.376 -0.2638  0.4808 -0.1910
 3611DOPE   PO442371  26.230  29.137  12.675  0.1837 -0.2111 -0.1276
 3611DOPE   GL142372  26.202  29.174  13.071 -0.2152  0.1454  0.5295
 3611DOPE   GL242373  26.295  28.946  13.180 -0.2007  0.2168  0.2298
 3611DOPE   C1A42374  26.203  29.517  13.367 -0.0907  0.1414 -0.2112
 3611DOPE   D2A42375  25.911  29.691  13.688 -0.0277  0.0663  0.0944
 3611DOPE   C3A42376  25.686  29.723  14.035 -0.0076  0.4202  0.0192
 3611DOPE   C4A42377  25.759  29.806  14.484 -0.1844  0.0583  0.1200
 3611DOPE   C1B42378  26.235  29.062  13.638  0.0812  0.1618 -0.1319
 3611DOPE   D2B42379  26.189  29.201  14.122  0.1129 -0.2857  0.0938
 3611DOPE   C3B42380  26.109  28.917  14.503 -0.1774 -0.2429  0.1052
 3611DOPE   C4B42381  26.247  29.028  14.918 -0.1830  0.1577 -0.2006
 3612DOPE   NH342382  32.024  30.420  12.838  0.0132  0.1102  0.3564
 3612DOPE   PO442383  32.330  30.263  12.813 -0.2550  0.0862 -0.2122
 3612DOPE   GL142384  32.399  30.166  13.091 -0.3993 -0.0383  0.3248
 3612DOPE   GL242385  32.619  30.347  13.192  0.0617  0.1409  0.3196
 3612DOPE   C1A42386  32.496  29.843  13.413  0.1213  0.0354  0.1271
 3612DOPE   D2A42387  32.465  29.452  13.717 -0.1707 -0.0474  0.0552
 3612DOPE   C3A42388  32.141  29.414  13.995  0.3133  0.1759 -0.1039
 3612DOPE   C4A42389  31.776  29.189  14.182 -0.3691  0.3355  0.2807
 3612DOPE   C1B42390  32.341  30.390  13.582  0.2370  0.0315  0.3082
 3612DOPE   D2B42391  32.031  30.181  13.882 -0.2329 -0.1462  0.0533
 3612DOPE   C3B42392  32.354  29.848  13.934 -0.0955 -0.3228  0.1479
 3612DOPE   C4B42393  32.577  29.557  14.236 -0.0064  0.0660 -0.2934
 3613DOPS   CNO42394  30.459  22.429  12.656  0.0164 -0.2264 -0.1977
 3613DOPS   PO442395  30.243  22.671  12.935  0.1242  0.2085  0.3745
 3613DOPS   GL142396  30.377  22.695  13.305  0.3798 -0.3123  0.0679
 3613DOPS   GL242397  30.337  22.933  13.360  0.1887 -0.0314  0.0777
 3613DOPS   C1A42398  30.200  22.496  13.703 -0.3150  0.0574  0.1490
 3613DOPS   D2A42399  30.341  22.274  14.139 -0.3021 -0.2364 -0.1580
 3613DOPS   C3A42400  30.346  21.849  14.286 -0.0842 -0.0743 -0.0513
 3613DOPS   C4A42401  30.583  21.476  14.119  0.0872  0.0881  0.2217
 3613DOPS   C1B42402  30.496  22.934  13.840  0.0718 -0.0426 -0.1124
 3613DOPS   D2B42403  30.693  23.197  14.169 -0.2956 -0.0078  0.0810
 3613DOPS   C3B42404  30.746  23.071  14.618 -0.1041 -0.1778  0.0679
 3613DOPS   C4B42405  30.618  22.946  15.043  0.0365  0.2332  0.0155
 3614DOPE   NH342406  25.947  23.429  12.467 -0.0365  0.0140  0.1102
 3614DOPE   PO442407  25.684  23.326  12.537 -0.2537  0.2923  0.3341
 3614DOPE   GL142408  25.486  23.560  12.853  0.0412 -0.2044  0.1702
 3614DOPE   GL242409  25.671  23.715  13.003 -0.0732 -0.3196  0.2333
 3614DOPE   C1A42410  25.129  23.866  12.953  0.0743  0.1594  0.0613
 3614DOPE   D2A42411  24.902  24.283  12.953  0.3758 -0.0672 -0.0195
 3614DOPE   C3A42412  24.617  24.236  13.316  0.0485 -0.1408  0.0923
 3614DOPE   C4A42413  24.573  23.934  13.671 -0.3776 -0.1497 -0.3448
 3614DOPE   C1B42414  25.532  24.147  12.857 -0.2836 -0.1305 -0.0684
 3614DOPE   D2B42415  25.354  24.578  12.653  0.0792  0.0075  0.0124
 3614DOPE   C3B42416  25.659  24.947  12.724 -0.1890  0.0255 -0.0984
 3614DOPE   C4B42417  25.936  25.317  12.564  0.0823 -0.3906 -0.1187
 3615DOPE   NH342418  32.130  23.686  13.073 -0.0278  0.1000 -0.2022
 3615DOPE   PO442419  32.252  23.944  13.140 -0.2024  0.1413 -0.3004
 3615DOPE   GL142420  32.653  24.012  13.357  0.0835 -0.2099  0.2306
 3615DOPE   GL242421  32.499  23.983  13.617  0.0625 -0.4132  0.0891
 3615DOPE   C1A42422  32.968  23.972  13.715  0.1975  0.3597  0.0245
 3615DOPE   D2A42423  33.034  24.255  14.097 -0.1718 -0.1199 -0.0251
 3615DOPE   C3A42424  33.307  24.162  14.421 -0.0268 -0.3160 -0.3306
 3615DOPE   C4A42425  33.714  24.254  14.687  0.2152  0.0036  0.2198
 3615DOPE   C1B42426  32.566  24.337  13.904  0.2200 -0.2454  0.0933
 3615DOPE   D2B42427  32.568  24.638  14.245  0.1329 -0.1543 -0.2093
 3615DOPE   C3B42428  32.358  24.577  14.613 -0.2292 -0.2514  0.1117
 3615DOPE   C4B42429  32.091  24.659  14.986 -0.0276  0.0802 -0.2631
 3616POSM   NC342430   0.547  32.170  12.177  0.0936 -0.2213 -0.0022
 3616POSM   PO442431   0.181  32.251  12.223 -0.0404 -0.2871 -0.0967
 3616POSM   AM142432  -0.053  32.437  12.379 -0.1501  0.3308 -0.0597
 3616POSM   AM242433  -0.166  32.720  12.385  0.1331  0.2311 -0.1809
 3616POSM   T1A42434  -0.454  32.377  12.700 -0.1031  0.0508 -0.0092
 3616POSM   C2A42435  -0.812  32.568  12.854 -0.0757  0.1090  0.0685
 3616POSM   C3A42436  -1.289  32.479  12.922  0.3046 -0.0192 -0.1761
 3616POSM   C1B42437  -0.359  32.977  12.341 -0.2023  0.0641 -0.2132
 3616POSM   D2B42438  -0.686  33.373  12.382 -0.1252 -0.3707  0.0562
 3616POSM   C3B42439  -0.915  33.456  12.755 -0.1376  0.2733 -0.3699
 3616POSM   C4B42440  -0.984  33.423  13.212  0.3948  0.1234  0.1519
 3617DOPC   NC342441  33.536  30.693  12.557  0.2056 -0.1697 -0.0433
 3617DOPC   PO442442  33.818  30.935  12.390  0.0114 -0.0123 -0.0824
 3617DOPC   GL142443  33.981  31.188  12.670 -0.0568  0.0046 -0.0574
 3617DOPC   GL242444  34.060  31.426  12.496 -0.1790 -0.0577 -0.0872
 3617DOPC   C1A42445  33.812  31.488  12.974  0.3077 -0.0483  0.2020
 3617DOPC   D2A42446  33.861  31.742  13.390 -0.1078  0.4642 -0.1413
 3617DOPC   C3A42447  33.763  31.696  13.794 -0.2234  0.0817  0.0645
 3617DOPC   C4A42448  33.646  31.759  14.221 -0.1541 -0.0118  0.0283
 3617DOPC   C1B42449  34.259  31.846  12.482 -0.0287  0.1368  0.0950
 3617DOPC   D2B42450  34.635  32.063  12.627  0.3391 -0.0135 -0.2559
 3617DOPC   C3B42451  34.750  31.960  13.072 -0.0095 -0.1529 -0.2066
 3617DOPC   C4B42452  34.979  31.561  13.262  0.2165  0.3688 -0.0603
 3618DOPC   NC342453  27.992  22.828  13.543  0.0042 -0.1983 -0.0516
 3618DOPC   PO442454  27.746  22.849  13.243  0.1676  0.3180 -0.1243
 3618DOPC   GL142455  27.591  23.050  13.651 -0.0809  0.1651  0.0364
 3618DOPC   GL242456  27.403  22.871  13.607  0.2224 -0.0342 -0.1311
 3618DOPC   C1A42457  27.909  23.269  13.888  0.1270 -0.0627  0.0695
 3618DOPC   D2A42458  28.388  23.327  14.002 -0.2906 -0.1597 -0.1133
 3618DOPC   C3A42459  28.841  23.535  14.087 -0.2711  0.1484  0.0055
 3618DOPC   C4A42460  29.261  23.589  14.195 -0.0718 -0.1956 -0.1320
 3618DOPC   C1B42461  27.656  22.761  14.007  0.1245 -0.2978  0.1934
 3618DOPC   D2B42462  27.568  22.732  14.445  0.2073  0.1688 -0.1564
 3618DOPC   C3B42463  27.394  22.569  14.877 -0.1129 -0.2009 -0.1579
 3618DOPC   C4B42464  27.400  22.272  15.265 -0.2138 -0.0532 -0.1969
 3619DOPE   NH342465  27.563  23.486  13.028 -0.0531  0.2354  0.2369
 3619DOPE   PO442466  27.415  23.317  13.267  0.0923  0.0073  0.0436
 3619DOPE   GL142467  27.634  23.496  13.617  0.0375 -0.0330  0.0587
 3619DOPE   GL242468  27.503  23.741  13.563  0.1889  0.2691  0.0496
 3619DOPE   C1A42469  27.874  23.778  13.858  0.1319  0.0407 -0.2999
 3619DOPE   D2A42470  27.955  23.847  14.286 -0.0703  0.0390 -0.3508
 3619DOPE   C3A42471  28.353  24.067  14.377 -0.0822  0.0421  0.2511
 3619DOPE   C4A42472  28.826  23.990  14.262  0.2061 -0.1983 -0.0374
 3619DOPE   C1B42473  27.177  23.978  13.893 -0.3192  0.1111  0.0566
 3619DOPE   D2B42474  27.119  24.166  14.248 -0.1408 -0.4195 -0.0516
 3619DOPE   C3B42475  26.843  24.484  14.332 -0.1947 -0.3914  0.0351
 3619DOPE   C4B42476  26.576  24.624  14.668 -0.0050  0.2819 -0.0747
 3620DOPE   NH342477  31.555  26.958  12.459  0.4573  0.3714 -0.0199
 3620DOPE   PO442478  31.330  27.057  12.646  0.1334 -0.0578 -0.1289
 3620DOPE   GL142479  31.424  26.956  13.013  0.3964 -0.1306  0.0388
 3620DOPE   GL242480  31.709  26.942  12.964  0.3584 -0.2305  0.1637
 3620DOPE   C1A42481  31.208  26.964  13.484 -0.3362  0.3130  0.1269
 3620DOPE   D2A42482  31.077  27.038  13.940 -0.2527  0.0663 -0.0328
 3620DOPE   C3A42483  30.655  27.305  13.854 -0.1840  0.4325 -0.1416
 3620DOPE   C4A42484  30.248  27.111  13.781 -0.1596  0.1405 -0.1466
 3620DOPE   C1B42485  31.725  26.868  13.390  0.1915  0.0177 -0.0291
 3620DOPE   D2B42486  31.607  26.945  13.866 -0.3070  0.2839  0.0248
 3620DOPE   C3B42487  31.836  27.188  14.199  0.1629 -0.1803 -0.1201
 3620DOPE   C4B42488  31.832  27.473  14.594  0.0506  0.0461 -0.0408
 3621POSM   NC342489  29.216  23.142  13.029 -0.1570 -0.1916  0.0688
 3621POSM   PO442490  29.478  23.133  12.705 -0.0089  0.0005 -0.2656
 3621POSM   AM142491  29.574  23.406  12.903 -0.0095 -0.0891 -0.0236
 3621POSM   AM242492  29.660  23.419  13.208 -0.0474 -0.1885  0.2398
 3621POSM   T1A42493  29.930  23.780  12.982 -0.2471  0.0321  0.0207
 3621POSM   C2A42494  30.320  24.048  13.063 -0.1450  0.2671  0.0413
 3621POSM   C3A42495  30.597  24.148  12.692  0.1136 -0.0635 -0.2520
 3621POSM   C1B42496  29.512  23.719  13.309 -0.1527 -0.0181 -0.3416
 3621POSM   D2B42497  29.348  24.157  13.404  0.1729 -0.1021  0.1767
 3621POSM   C3B42498  29.061  24.380  13.754 -0.3892  0.3397 -0.0214
 3621POSM   C4B42499  29.061  24.425  14.211  0.0314 -0.4123  0.2132
 3622POSM   NC342500  31.434  27.959  12.769 -0.1720  0.3974  0.1602
 3622POSM   PO442501  31.800  27.806  12.900 -0.1491 -0.2953  0.1184
 3622POSM   AM142502  31.650  27.859  13.211  0.1119  0.5464 -0.0295
 3622POSM   AM242503  31.384  27.924  13.288 -0.1247  0.1619  0.0500
 3622POSM   T1A42504  31.705  27.927  13.701 -0.2586  0.1180 -0.0582
 3622POSM   C2A42505  31.723  28.300  14.041 -0.1481 -0.0877  0.3340
 3622POSM   C3A42506  31.706  28.370  14.550 -0.0532 -0.1107  0.0480
 3622POSM   C1B42507  31.046  27.936  13.390  0.2196 -0.3607  0.1118
 3622POSM   D2B42508  30.746  27.785  13.751 -0.0246  0.1864  0.1396
 3622POSM   C3B42509  30.488  28.080  13.859  0.0121 -0.0222 -0.1328
 3622POSM   C4B42510  30.119  28.355  13.884  0.0354 -0.2237  0.1048
 3623POSM   NC342511  25.547  33.903  12.054  0.1214  0.2204  0.1501
 3623POSM   PO442512  25.301  33.712  11.789 -0.0305 -0.1976  0.4216
 3623POSM   AM142513  25.157  33.486  11.948 -0.0307 -0.1995  0.3479
 3623POSM   AM242514  25.191  33.543  12.246 -0.1617  0.0534  0.1848
 3623POSM   T1A42515  25.022  32.987  11.938 -0.0174  0.0579  0.1233
 3623POSM   C2A42516  24.820  32.538  11.989 -0.0917  0.2149 -0.1415
 3623POSM   C3A42517  24.904  32.079  12.137 -0.3559 -0.0271  0.1131
 3623POSM   C1B42518  24.965  33.324  12.363 -0.2831  0.2575  0.0300
 3623POSM   D2B42519  24.561  33.161  12.346 -0.3177  0.2297  0.1937
 3623POSM   C3B42520  24.499  32.830  12.661 -0.4747 -0.4810 -0.3159
 3623POSM   C4B42521  24.731  32.661  13.078 -0.1347  0.0151 -0.1714
 3624POSM   NC342522  34.090  26.807  12.294  0.2593  0.1670  0.1612
 3624POSM   PO442523  33.733  26.753  12.175  0.2329 -0.0082  0.2082
 3624POSM   AM142524  33.580  26.509  12.323 -0.2694 -0.0616  0.1209
 3624POSM   AM242525  33.480  26.425  12.597  0.1446 -0.0658 -0.1241
 3624POSM   T1A42526  33.347  26.077  12.246 -0.2957 -0.2879 -0.0322
 3624POSM   C2A42527  33.338  25.608  12.223  0.2405  0.1105  0.0637
 3624POSM   C3A42528  33.232  25.263  12.440  0.1336 -0.4293  0.0613
 3624POSM   C1B42529  33.153  26.514  12.757 -0.1431 -0.3045 -0.2291
 3624POSM   D2B42530  32.845  26.839  12.819 -0.0484 -0.1496 -0.0076
 3624POSM   C3B42531  32.697  26.622  13.198  0.3350  0.3932 -0.3632
 3624POSM   C4B42532  32.601  26.345  13.541 -0.0692 -0.0409 -0.2227
 3625DOPC   NC342533  27.058  29.136  12.203  0.2630  0.0046  0.3223
 3625DOPC   PO442534  26.810  29.087  12.504 -0.1228  0.1059  0.2553
 3625DOPC   GL142535  26.722  29.055  12.962 -0.0223 -0.2559 -0.0069
 3625DOPC   GL242536  26.852  28.823  13.011 -0.2818 -0.0052 -0.2687
 3625DOPC   C1A42537  26.696  28.951  13.459 -0.2909  0.2140 -0.0923
 3625DOPC   D2A42538  27.048  28.899  13.765 -0.1127  0.0507 -0.2353
 3625DOPC   C3A42539  27.026  28.464  13.980 -0.0887  0.1960  0.3094
 3625DOPC   C4A42540  26.990  28.108  14.306 -0.1925 -0.0166  0.2367
 3625DOPC   C1B42541  27.031  28.555  13.356 -0.1864 -0.1970  0.0665
 3625DOPC   D2B42542  27.040  28.148  13.590  0.1765 -0.0896  0.0703
 3625DOPC   C3B42543  27.440  27.898  13.715  0.0021 -0.4220  0.3061
 3625DOPC   C4B42544  27.848  28.062  13.884  0.0824  0.1326 -0.0940
 3626DOPC   NC342545  32.304  24.108  12.312 -0.0245  0.1001  0.1168
 3626DOPC   PO442546  32.274  24.190  12.700  0.0256 -0.2566 -0.1087
 3626DOPC   GL142547  32.434  24.527  12.847  0.2545  0.0561 -0.0555
 3626DOPC   GL242548  32.361  24.428  13.145  0.1314  0.0779  0.4719
 3626DOPC   C1A42549  32.322  24.906  13.009  0.0518 -0.2407 -0.0641
 3626DOPC   D2A42550  32.034  25.059  13.293 -0.0633  0.0794 -0.1720
 3626DOPC   C3A42551  31.921  24.923  13.691  0.1410 -0.1599 -0.0363
 3626DOPC   C4A42552  32.138  24.661  13.956  0.2542  0.0258 -0.0517
 3626DOPC   C1B42553  32.385  24.709  13.500 -0.2258 -0.0043 -0.0712
 3626DOPC   D2B42554  32.352  25.097  13.684  0.0707 -0.1384 -0.0932
 3626DOPC   C3B42555  32.150  25.169  14.123 -0.0206 -0.0234 -0.2266
 3626DOPC   C4B42556  31.938  24.867  14.431  0.0604  0.1769 -0.4081
 3627DOPE   NH342557  31.075  29.770  12.571 -0.1666 -0.0645 -0.1140
 3627DOPE   PO442558  31.248  29.589  12.779  0.1056  0.0997 -0.1902
 3627DOPE   GL142559  31.131  29.830  13.083 -0.2828 -0.3157 -0.1275
 3627DOPE   GL242560  31.268  30.078  13.052  0.0794  0.1055  0.2236
 3627DOPE   C1A42561  31.147  29.627  13.517  0.3486  0.0094 -0.0106
 3627DOPE   D2A42562  31.047  29.651  13.976 -0.0547  0.3019  0.0869
 3627DOPE   C3A42563  31.353  29.684  14.320  0.0374  0.1254  0.4387
 3627DOPE   C4A42564  31.333  29.829  14.752  0.0652  0.2326 -0.0290
 3627DOPE   C1B42565  31.213  30.414  13.313  0.1732  0.0945  0.2229
 3627DOPE   D2B42566  31.307  30.583  13.733  0.0920 -0.1651 -0.1972
 3627DOPE   C3B42567  31.059  30.534  14.148 -0.0982 -0.0573  0.2705
 3627DOPE   C4B42568  30.640  30.612  14.384  0.2740 -0.0674 -0.0428
 3628DOPC   NC342569  29.949  29.607  13.345  0.5263  0.0132 -0.2443
 3628DOPC   PO442570  30.161  29.561  13.013  0.2156  0.0311 -0.1583
 3628DOPC   GL142571  30.328  29.837  13.253  0.1839  0.2449 -0.1097
 3628DOPC   GL242572  30.226  30.031  13.183 -0.0079 -0.3703  0.0050
 3628DOPC   C1A42573  30.380  29.731  13.702  0.2714 -0.0760  0.1963
 3628DOPC   D2A42574  30.574  29.624  14.130 -0.2205 -0.1040  0.1391
 3628DOPC   C3A42575  30.446  29.644  14.546  0.0126  0.0557 -0.0624
 3628DOPC   C4A42576  30.437  29.698  15.009  0.0880 -0.1447  0.0576
 3628DOPC   C1B42577  30.264  30.193  13.605  0.0245 -0.1771 -0.2382
 3628DOPC   D2B42578  30.375  30.374  14.005  0.2653  0.0301  0.1264
 3628DOPC   C3B42579  30.637  30.718  13.912  0.0113  0.0999  0.3036
 3628DOPC   C4B42580  31.012  31.027  13.876 -0.0826 -0.0112  0.0050
 3629DOPC   NC342581  32.949  30.316  12.827 -0.2980 -0.3258  0.3171
 3629DOPC   PO442582  33.066  30.683  12.895  0.0627  0.1255  0.2379
 3629DOPC   GL142583  33.030  30.989  13.264 -0.4614 -0.0949 -0.1900
 3629DOPC   GL242584  33.037  31.298  13.167 -0.2540 -0.1285  0.1598
 3629DOPC   C1A42585  32.850  31.225  13.607 -0.3153 -0.1306  0.1917
 3629DOPC   D2A42586  32.574  31.558  13.789 -0.2181 -0.0917  0.1201
 3629DOPC   C3A42587  32.153  31.763  13.801 -0.2027 -0.2642  0.0907
 3629DOPC   C4A42588  31.724  31.973  13.782 -0.2348 -0.2550  0.2289
 3629DOPC   C1B42589  32.864  31.688  13.341 -0.0272 -0.0906  0.2216
 3629DOPC   D2B42590  33.012  32.164  13.307 -0.1876  0.0313  0.4689
 3629DOPC   C3B42591  32.937  32.490  13.587 -0.5249  0.2356  0.2692
 3629DOPC   C4B42592  32.871  32.432  14.021  0.2460  0.0096  0.2251
 3630DOPS   CNO42593  32.536   0.251  12.542  0.1656  0.1934  0.1942
 3630DOPS   PO442594  32.166   0.194  12.467  0.2032 -0.1285  0.2429
 3630DOPS   GL142595  31.781   0.017  12.557 -0.1549  0.0437  0.1985
 3630DOPS   GL242596  31.819  -0.115  12.765  0.1204 -0.1182  0.2676
 3630DOPS   C1A42597  31.608   0.353  12.853  0.0758 -0.0922 -0.0086
 3630DOPS   D2A42598  31.655   0.707  13.111  0.0318 -0.2628 -0.0227
 3630DOPS   C3A42599  31.830   0.573  13.505 -0.1780  0.2232  0.0711
 3630DOPS   C4A42600  31.674   0.383  13.868  0.1122  0.0283 -0.1212
 3630DOPS   C1B42601  31.719  -0.440  13.075  0.2387 -0.0570  0.4758
 3630DOPS   D2B42602  31.883  -0.422  13.496  0.2017 -0.0186  0.0512
 3630DOPS   C3B42603  31.633  -0.486  13.906  0.0427  0.2354  0.2192
 3630DOPS   C4B42604  31.682  -0.628  14.361  0.2429  0.1669  0.0053
 3631POSM   NC342605  34.509  27.353  12.723 -0.3118  0.0052  0.2522
 3631POSM   PO442606  34.300  27.493  12.388 -0.2042  0.2983  0.2708
 3631POSM   AM142607  34.242  27.731  12.587  0.0609  0.1174  0.0224
 3631POSM   AM242608  34.136  27.760  12.848  0.1603  0.2224 -0.1968
 3631POSM   T1A42609  34.080  28.189  12.624 -0.0670 -0.1169  0.0702
 3631POSM   C2A42610  34.028  28.645  12.724  0.0932 -0.0946  0.0639
 3631POSM   C3A42611  34.194  29.101  12.675  0.1538  0.2419  0.0588
 3631POSM   C1B42612  34.004  27.982  13.120 -0.1806 -0.1399 -0.0996
 3631POSM   D2B42613  33.939  28.230  13.509 -0.1102  0.1521  0.1107
 3631POSM   C3B42614  33.498  28.372  13.663  0.0421 -0.0176  0.3107
 3631POSM   C4B42615  33.264  28.516  14.003 -0.0337  0.0060  0.1278
 3632DOPS   CNO42616  30.106  31.687  12.332 -0.1097  0.0075 -0.2553
 3632DOPS   PO442617  30.156  31.310  12.371  0.0616  0.0713  0.0596
 3632DOPS   GL142618  30.459  31.533  12.538  0.3004  0.2717  0.1566
 3632DOPS   GL242619  30.326  31.649  12.766 -0.2038  0.2190  0.0111
 3632DOPS   C1A42620  30.773  31.776  12.803 -0.0178  0.0448 -0.2072
 3632DOPS   D2A42621  31.109  32.132  12.861 -0.1400  0.1780 -0.1908
 3632DOPS   C3A42622  31.357  32.248  13.280 -0.2561 -0.1277  0.0239
 3632DOPS   C4A42623  31.672  32.536  13.417  0.1322  0.0431 -0.0622
 3632DOPS   C1B42624  30.444  32.102  12.898 -0.1034 -0.0602 -0.1407
 3632DOPS   D2B42625  30.696  32.339  13.179  0.2707  0.0698  0.0696
 3632DOPS   C3B42626  30.961  32.637  13.474 -0.1006 -0.0051  0.0918
 3632DOPS   C4B42627  31.174  32.870  13.830  0.1596  0.0830  0.0188
 3633POSM   NC342628  26.013  28.653  12.514 -0.2867 -0.1566  0.1908
 3633POSM   PO442629  25.930  28.752  12.904 -0.2060 -0.1003 -0.0179
 3633POSM   AM142630  25.812  28.824  13.201  0.5507  0.1315  0.1069
 3633POSM   AM242631  25.860  28.790  13.503 -0.2719  0.1509 -0.1269
 3633POSM   T1A42632  25.398  28.941  13.445 -0.3402 -0.1299  0.1420
 3633POSM   C2A42633  25.179  29.143  13.866  0.0261 -0.2856  0.0358
 3633POSM   C3A42634  25.181  29.303  14.312 -0.2878  0.0799  0.2733
 3633POSM   C1B42635  25.895  28.475  13.666 -0.3259 -0.3465 -0.1286
 3633POSM   D2B42636  25.786  28.209  13.990  0.1104 -0.0799  0.1125
 3633POSM   C3B42637  25.861  28.422  14.357 -0.1058  0.2220  0.5105
 3633POSM   C4B42638  26.115  28.192  14.595 -0.2655 -0.1065  0.0725
 3634DOPC   NC342639  26.644  31.380  12.654  0.0694  0.1224 -0.0512
 3634DOPC   PO442640  26.995  31.184  12.669  0.2632  0.0794 -0.1140
 3634DOPC   GL142641  27.098  31.482  13.001 -0.1529 -0.3446 -0.1274
 3634DOPC   GL242642  26.861  31.527  13.126  0.0637  0.2193  0.0665
 3634DOPC   C1A42643  27.397  31.650  13.291 -0.2517 -0.2719 -0.2975
 3634DOPC   D2A42644  27.621  31.809  13.622 -0.1437  0.1155 -0.0272
 3634DOPC   C3A42645  28.079  31.791  13.744 -0.0963  0.1988 -0.0280
 3634DOPC   C4A42646  28.423  32.078  13.858  0.0434  0.2333 -0.0944
 3634DOPC   C1B42647  26.616  31.852  13.316  0.1098  0.0143 -0.3796
 3634DOPC   D2B42648  26.332  32.042  13.591  0.3063  0.0588 -0.1567
 3634DOPC   C3B42649  25.981  31.880  13.866  0.1048 -0.1302 -0.1367
 3634DOPC   C4B42650  25.549  31.606  13.860 -0.0757  0.1704 -0.3875
 3635DOPC   NC342651  31.718  28.330  13.046  0.1017  0.0622  0.0641
 3635DOPC   PO442652  32.055  28.367  12.855  0.1859 -0.0142 -0.1049
 3635DOPC   GL142653  32.244  28.341  13.259  0.0379 -0.3050  0.1874
 3635DOPC   GL242654  32.088  28.063  13.287 -0.1050 -0.1363  0.0199
 3635DOPC   C1A42655  32.415  28.563  13.558 -0.0049  0.0758  0.1608
 3635DOPC   D2A42656  32.681  28.462  13.953  0.1041  0.1249 -0.0244
 3635DOPC   C3A42657  32.878  28.680  14.277  0.2761 -0.0758  0.0545
 3635DOPC   C4A42658  33.262  28.955  14.378 -0.1671  0.2482 -0.0578
 3635DOPC   C1B42659  32.519  27.906  13.163 -0.0240  0.1863 -0.1537
 3635DOPC   D2B42660  32.862  27.601  13.332  0.0334 -0.1025  0.0102
 3635DOPC   C3B42661  32.662  27.554  13.796  0.3454 -0.0924  0.1014
 3635DOPC   C4B42662  32.333  27.298  13.935  0.0224  0.1129 -0.1946
 3636DOPC   NC342663  26.158  23.607  12.968  0.1103  0.0192 -0.1853
 3636DOPC   PO442664  26.484  23.601  13.180 -0.2573  0.0504 -0.2562
 3636DOPC   GL142665  26.216  23.418  13.386 -0.1240  0.0164  0.1662
 3636DOPC   GL242666  26.229  23.532  13.648 -0.1368 -0.3074 -0.0705
 3636DOPC   C1A42667  25.807  23.636  13.543  0.2362  0.2056  0.1052
 3636DOPC   D2A42668  25.603  23.892  13.886  0.2395  0.1410  0.2825
 3636DOPC   C3A42669  25.216  23.627  13.891  0.0985 -0.0520 -0.0244
 3636DOPC   C4A42670  24.806  23.432  14.037 -0.2382  0.1071 -0.1614
 3636DOPC   C1B42671  26.137  23.972  13.766  0.2982 -0.2894 -0.5332
 3636DOPC   D2B42672  26.327  24.339  13.813  0.0886  0.1808  0.3506
 3636DOPC   C3B42673  26.703  24.530  13.699 -0.0367 -0.0010 -0.0539
 3636DOPC   C4B42674  27.027  24.884  13.598  0.1174 -0.0016  0.4741
 3637POSM   NC342675  32.066  34.398  12.342  0.2412 -0.2620 -0.3747
 3637POSM   PO442676  32.320  34.458  12.633  0.0743 -0.0675  0.0107
 3637POSM   AM142677  32.147  34.219  12.769  0.0207  0.1952  0.2430
 3637POSM   AM242678  31.932  34.036  12.645 -0.1053  0.1210  0.3065
 3637POSM   T1A42679  31.986  33.866  13.140  0.3420  0.0590  0.1332
 3637POSM   C2A42680  31.755  33.469  13.300 -0.2062  0.0811 -0.2512
 3637POSM   C3A42681  31.774  33.163  13.633 -0.1438  0.1795  0.1966
 3637POSM   C1B42682  31.688  33.752  12.726  0.1478 -0.0762 -0.0851
 3637POSM   D2B42683  31.363  33.419  12.882 -0.2043 -0.1396  0.2043
 3637POSM   C3B42684  31.035  33.531  13.158 -0.1224 -0.1152 -0.1656
 3637POSM   C4B42685  30.613  33.566  13.361 -0.1114  0.0206  0.2367
 3638POSM   NC342686  25.200  26.626  12.341 -0.1107  0.0524 -0.1189
 3638POSM   PO442687  25.587  26.675  12.429 -0.0671  0.0940  0.1037
 3638POSM   AM142688  25.794  26.657  12.722  0.1396 -0.0422 -0.0264
 3638POSM   AM242689  25.793  26.882  12.917  0.0022  0.0746  0.0964
 3638POSM   T1A42690  26.012  26.265  12.962  0.1435  0.3123 -0.0930
 3638POSM   C2A42691  26.410  26.102  13.126  0.0737 -0.1603  0.0955
 3638POSM   C3A42692  26.780  25.946  12.930 -0.1017 -0.3309  0.2224
 3638POSM   C1B42693  25.661  26.789  13.209  0.1315  0.1798 -0.4553
 3638POSM   D2B42694  25.639  26.415  13.488  0.0461 -0.2714 -0.1204
 3638POSM   C3B42695  25.816  26.437  13.930  0.0231  0.2521 -0.0168
 3638POSM   C4B42696  25.957  26.682  14.315  0.0654 -0.0496 -0.0900
 3639DOPE   NH342697  28.963  26.617  12.937  0.2213 -0.0319  0.0849
 3639DOPE   PO442698  28.985  26.947  12.814  0.0524 -0.1993  0.0161
 3639DOPE   GL142699  29.060  27.139  13.148  0.0145 -0.3155  0.0613
 3639DOPE   GL242700  28.864  27.118  13.272  0.4577  0.1108  0.1216
 3639DOPE   C1A42701  29.446  27.328  13.258  0.1791 -0.2379 -0.1539
 3639DOPE   D2A42702  29.838  27.643  13.258 -0.0132 -0.1083  0.2381
 3639DOPE   C3A42703  29.841  27.954  13.615 -0.2343  0.2731  0.0556
 3639DOPE   C4A42704  29.623  28.205  13.907  0.2029  0.3229 -0.0699
 3639DOPE   C1B42705  28.918  27.378  13.657 -0.2444 -0.0862 -0.0907
 3639DOPE   D2B42706  29.110  27.527  14.020  0.0972 -0.0483  0.0036
 3639DOPE   C3B42707  29.131  27.975  14.065 -0.0030 -0.2873  0.1694
 3639DOPE   C4B42708  29.186  28.431  14.020  0.1225 -0.0620  0.1369
 3640DOPS   CNO42709  34.685  26.414  12.419 -0.0182  0.1854 -0.2179
 3640DOPS   PO442710  34.531  26.640  12.673 -0.3178 -0.1013 -0.0171
 3640DOPS   GL142711  34.712  26.790  13.009  0.0191  0.1030  0.1147
 3640DOPS   GL242712  34.665  26.605  13.187 -0.3821 -0.2455 -0.0182
 3640DOPS   C1A42713  34.666  27.184  13.218 -0.3623 -0.1601 -0.0257
 3640DOPS   D2A42714  34.456  27.589  13.206 -0.0737 -0.0693  0.0918
 3640DOPS   C3A42715  34.182  27.671  13.526 -0.2283 -0.2191 -0.0381
 3640DOPS   C4A42716  33.730  27.613  13.768 -0.0966 -0.0539  0.3042
 3640DOPS   C1B42717  34.343  26.891  13.503  0.1195  0.3564  0.1583
 3640DOPS   D2B42718  33.967  27.200  13.443  0.0683 -0.0330 -0.3227
 3640DOPS   C3B42719  33.578  27.049  13.247 -0.0672  0.0502  0.1276
 3640DOPS   C4B42720  33.299  26.762  13.151 -0.0257  0.2029  0.2127
 3641DOPE   NH342721   0.295   0.101  12.531  0.1467 -0.0759  0.1125
 3641DOPE   PO442722  -0.006  -0.038  12.676 -0.0470  0.0828 -0.0501
 3641DOPE   GL142723  -0.185  -0.090  13.008 -0.0725  0.3772  0.0070
 3641DOPE   GL242724  -0.331  -0.346  12.967 -0.2344  0.0299 -0.0763
 3641DOPE   C1A42725  -0.119  -0.019  13.463  0.1398  0.0724  0.2290
 3641DOPE   D2A42726  -0.144  -0.133  13.873  0.2174 -0.1715 -0.4496
 3641DOPE   C3A42727   0.265   0.083  13.981 -0.3915 -0.2703  0.1035
 3641DOPE   C4A42728   0.678   0.101  14.144 -0.2869  0.0318  0.0761
 3641DOPE   C1B42729  -0.387  -0.430  13.433  0.3125  0.0457  0.5271
 3641DOPE   D2B42730  -0.413  -0.672  13.796  0.0804 -0.2016  0.3670
 3641DOPE   C3B42731  -0.715  -0.629  14.109  0.0835 -0.2031 -0.2058
 3641DOPE   C4B42732  -0.728  -0.269  14.407 -0.3832 -0.3411  0.0021
 3642DOPC   NC342733  24.853  28.272  12.310 -0.4116 -0.0953 -0.0162
 3642DOPC   PO442734  24.622  27.972  12.139  0.0006 -0.1060  0.3295
 3642DOPC   GL142735  24.344  28.210  12.272 -0.1011 -0.2551 -0.1140
 3642DOPC   GL242736  24.359  28.279  12.573 -0.0471 -0.0622 -0.4142
 3642DOPC   C1A42737  24.286  28.716  12.236  0.3910  0.0066  0.1888
 3642DOPC   D2A42738  24.505  29.146  12.403  0.2706  0.0128  0.0609
 3642DOPC   C3A42739  24.422  29.341  12.817 -0.1180 -0.1865  0.0184
 3642DOPC   C4A42740  24.666  29.602  13.105 -0.0622  0.2333 -0.1897
 3642DOPC   C1B42741  24.093  28.611  12.706  0.1156  0.1504 -0.0612
 3642DOPC   D2B42742  23.979  29.077  12.668 -0.0196 -0.2534  0.1263
 3642DOPC   C3B42743  23.568  29.156  12.807 -0.1537  0.3304 -0.1494
 3642DOPC   C4B42744  23.212  28.979  12.974 -0.0144 -0.0183 -0.1334
 3643DOPC   NC342745  27.673  26.595  12.633 -0.2070  0.0307 -0.0085
 3643DOPC   PO442746  27.699  26.219  12.587 -0.1279 -0.0006  0.1192
 3643DOPC   GL142747  27.555  26.170  12.933  0.1983 -0.0105  0.3520
 3643DOPC   GL242748  27.733  26.006  13.159  0.0362  0.1250  0.0887
 3643DOPC   C1A42749  27.160  26.098  13.177  0.0221 -0.0152  0.0517
 3643DOPC   D2A42750  26.808  26.201  13.451 -0.1148  0.1312 -0.0580
 3643DOPC   C3A42751  26.822  25.833  13.732  0.0206  0.2514 -0.3313
 3643DOPC   C4A42752  26.675  25.527  14.078 -0.2811  0.0677  0.0316
 3643DOPC   C1B42753  27.608  26.206  13.591  0.0968 -0.3385 -0.1960
 3643DOPC   D2B42754  27.229  26.458  13.616 -0.1103  0.1718  0.0345
 3643DOPC   C3B42755  27.236  26.884  13.761 -0.1477 -0.0368  0.3170
 3643DOPC   C4B42756  26.933  27.171  13.761 -0.0756  0.0478  0.1268
 3644POSM   NC342757  33.901  29.629  12.526 -0.0645  0.0722 -0.1883
 3644POSM   PO442758  34.185  29.824  12.725 -0.1045  0.1524 -0.1718
 3644POSM   AM142759  34.131  29.566  12.927  0.2907 -0.0832  0.1732
 3644POSM   AM242760  34.117  29.518  13.242  0.1423  0.0281  0.0176
 3644POSM   T1A42761  33.793  29.166  13.040 -0.1866  0.1297 -0.2771
 3644POSM   C2A42762  33.539  28.816  12.947  0.2065  0.0103 -0.4059
 3644POSM   C3A42763  33.191  28.653  13.224  0.1630 -0.1766 -0.0661
 3644POSM   C1B42764  33.985  29.352  13.474 -0.2061  0.4109 -0.2434
 3644POSM   D2B42765  33.981  28.928  13.689  0.1218 -0.1011  0.0128
 3644POSM   C3B42766  33.896  28.714  13.297 -0.0914  0.1524  0.1803
 3644POSM   C4B42767  33.709  28.318  13.038 -0.1726 -0.1944  0.1374
 3645POSM   NC342768  22.605  32.649  11.952  0.0759 -0.0786  0.0451
 3645POSM   PO442769  22.936  32.887  12.080  0.0229  0.4379 -0.4408
 3645POSM   AM142770  23.168  32.725  12.311  0.0947  0.0991  0.6403
 3645POSM   AM242771  23.297  32.864  12.527  0.0467 -0.1266  0.4729
 3645POSM   T1A42772  23.513  32.414  12.455  0.0085 -0.0598 -0.1477
 3645POSM   C2A42773  23.664  32.058  12.731 -0.1843  0.1525  0.0782
 3645POSM   C3A42774  23.907  31.796  13.056  0.0197  0.3008  0.2829
 3645POSM   C1B42775  23.593  32.914  12.314 -0.0527  0.2658  0.3897
 3645POSM   D2B42776  23.979  33.099  12.361  0.0249 -0.1892  0.2785
 3645POSM   C3B42777  24.289  32.834  12.113  0.1580 -0.1981  0.1541
 3645POSM   C4B42778  24.367  32.540  11.798 -0.1002  0.0162  0.2697
 3646DOPS   CNO42779  31.138  26.452  12.364 -0.1702 -0.4190  0.0984
 3646DOPS   PO442780  31.396  26.505  12.619  0.1991  0.0626  0.1848
 3646DOPS   GL142781  31.448  26.222  12.894 -0.1485  0.0756  0.0931
 3646DOPS   GL242782  31.255  26.020  13.060 -0.2429 -0.4283  0.1004
 3646DOPS   C1A42783  31.503  26.327  13.339  0.2010 -0.0759 -0.1279
 3646DOPS   D2A42784  31.457  26.454  13.771  0.1531  0.1843 -0.0664
 3646DOPS   C3A42785  31.878  26.401  13.939 -0.0473 -0.0545 -0.2746
 3646DOPS   C4A42786  32.320  26.464  13.947  0.3227  0.2209 -0.0872
 3646DOPS   C1B42787  31.479  25.717  13.398  0.1243 -0.1597  0.1260
 3646DOPS   D2B42788  31.597  25.264  13.453 -0.0860  0.1099  0.2024
 3646DOPS   C3B42789  31.389  24.841  13.672  0.1144 -0.0272  0.0174
 3646DOPS   C4B42790  30.942  24.761  13.842 -0.0335 -0.2699 -0.1541
 3647POSM   NC342791  27.141  23.302  13.645  0.0048  0.0208  0.2486
 3647POSM   PO442792  26.763  23.310  13.495  0.0685  0.1598 -0.2443
 3647POSM   AM142793  26.479  23.135  13.491  0.0078 -0.1343  0.1042
 3647POSM   AM242794  26.368  22.911  13.358 -0.3077  0.1040  0.1336
 3647POSM   T1A42795  25.984  23.108  13.600  0.1980 -0.0886  0.0744
 3647POSM   C2A42796  25.551  23.236  13.713  0.3037  0.0708  0.0800
 3647POSM   C3A42797  25.109  23.110  13.690  0.0449 -0.3444 -0.2820
 3647POSM   C1B42798  26.124  22.658  13.398 -0.0177  0.0268  0.0031
 3647POSM   D2B42799  25.884  22.330  13.454 -0.3366 -0.1345  0.1191
 3647POSM   C3B42800  25.466  22.371  13.692 -0.1397 -0.0171 -0.1477
 3647POSM   C4B42801  25.007  22.483  13.786 -0.0022  0.2543  0.2073
 3648DOPE   NH342802  29.065  32.408  12.321 -0.3842  0.2947 -0.2465
 3648DOPE   PO442803  28.991  32.086  12.304 -0.2240 -0.0013  0.2442
 3648DOPE   GL142804  28.688  32.112  12.486  0.1019  0.2492  0.0090
 3648DOPE   GL242805  28.542  32.359  12.245 -0.0133 -0.2830 -0.1946
 3648DOPE   C1A42806  28.662  32.006  12.914 -0.3468  0.0379 -0.1017
 3648DOPE   D2A42807  28.654  31.950  13.373  0.0906 -0.0574  0.0328
 3648DOPE   C3A42808  28.882  32.102  13.750 -0.1269 -0.0381  0.0780
 3648DOPE   C4A42809  29.313  32.190  14.013  0.0469  0.1209  0.3835
 3648DOPE   C1B42810  28.263  31.954  12.343 -0.1833 -0.0438 -0.2538
 3648DOPE   D2B42811  28.202  31.579  12.615 -0.2307  0.5066  0.0065
 3648DOPE   C3B42812  28.242  31.702  13.047 -0.3252 -0.0615 -0.1203
 3648DOPE   C4B42813  28.167  32.073  13.356 -0.1001 -0.0805  0.1909
 3649DOPE   NH342814  26.551  23.936  12.187 -0.1173  0.2394  0.1970
 3649DOPE   PO442815  26.703  24.181  12.265  0.1793  0.2908 -0.2678
 3649DOPE   GL142816  26.526  24.364  12.466 -0.0343 -0.0410 -0.1357
 3649DOPE   GL242817  26.217  24.423  12.401  0.0819  0.0413  0.5330
 3649DOPE   C1A42818  26.402  24.795  12.640 -0.0117 -0.1915  0.1400
 3649DOPE   D2A42819  26.169  25.025  13.006  0.0926 -0.1512  0.2271
 3649DOPE   C3A42820  26.171  25.329  13.309  0.3715  0.0109  0.0799
 3649DOPE   C4A42821  26.447  25.711  13.426 -0.1743  0.1584 -0.0078
 3649DOPE   C1B42822  25.997  24.475  12.754 -0.1752  0.4078 -0.2698
 3649DOPE   D2B42823  25.663  24.526  13.092  0.1061 -0.3928  0.0104
 3649DOPE   C3B42824  25.481  24.141  13.360  0.0309  0.1172  0.0328
 3649DOPE   C4B42825  25.089  23.979  13.533  0.1262  0.3550  0.0278
 3650DOPE   NH342826  26.786  23.955  12.947 -0.0189 -0.2225  0.2734
 3650DOPE   PO442827  26.798  24.243  12.822  0.2652  0.0637  0.0465
 3650DOPE   GL142828  26.726  24.389  13.186 -0.0875 -0.3013 -0.1611
 3650DOPE   GL242829  26.479  24.250  13.335  0.0686 -0.2709  0.0338
 3650DOPE   C1A42830  26.649  24.831  13.193 -0.3777 -0.1225 -0.0131
 3650DOPE   D2A42831  26.556  25.147  13.550 -0.0610  0.1802 -0.2933
 3650DOPE   C3A42832  26.245  24.841  13.688  0.0698 -0.0485  0.2678
 3650DOPE   C4A42833  25.860  24.823  13.970 -0.3389  0.0985  0.0852
 3650DOPE   C1B42834  26.141  24.549  13.299  0.1611  0.1788 -0.2352
 3650DOPE   D2B42835  25.854  24.897  13.446  0.0117 -0.1625 -0.1896
 3650DOPE   C3B42836  25.440  24.968  13.328  0.2303  0.1078 -0.0880
 3650DOPE   C4B42837  25.097  24.866  13.021 -0.2100  0.2274  0.0100
 3651DOPS   CNO42838  28.134  22.992  12.881  0.1635  0.0499  0.3023
 3651DOPS   PO442839  28.000  23.331  12.845  0.0198  0.0643 -0.0212
 3651DOPS   GL142840  27.985  23.520  13.183  0.0522  0.0415  0.0003
 3651DOPS   GL242841  27.940  23.318  13.390 -0.2272  0.2509 -0.0713
 3651DOPS   C1A42842  28.062  23.920  13.420 -0.0190 -0.0214  0.0254
 3651DOPS   D2A42843  28.102  24.228  13.821 -0.1612 -0.0869  0.1957
 3651DOPS   C3A42844  28.231  24.638  14.149  0.1314  0.1624  0.2890
 3651DOPS   C4A42845  27.982  24.754  14.510  0.1897 -0.2818 -0.3084
 3651DOPS   C1B42846  28.316  23.510  13.588 -0.0584 -0.0820  0.1430
 3651DOPS   D2B42847  28.443  23.850  13.956  0.1438  0.0396 -0.1862
 3651DOPS   C3B42848  28.589  24.312  13.950 -0.3444  0.1857 -0.2228
 3651DOPS   C4B42849  28.672  24.714  13.867  0.1118 -0.1373 -0.0503
 3652POSM   NC342850  31.195  26.574  13.053  0.3036 -0.3221  0.3061
 3652POSM   PO442851  30.916  26.835  12.920 -0.0667 -0.1453  0.0540
 3652POSM   AM142852  30.724  26.633  13.112  0.0403  0.1450 -0.2223
 3652POSM   AM242853  30.405  26.651  13.180  0.1742 -0.0261  0.1784
 3652POSM   T1A42854  30.652  26.249  13.442 -0.3355 -0.0815 -0.0595
 3652POSM   C2A42855  30.779  25.991  13.805 -0.0359  0.0356 -0.5283
 3652POSM   C3A42856  30.694  25.935  14.230  0.1107 -0.0540  0.1988
 3652POSM   C1B42857  30.224  26.706  13.433 -0.0504 -0.1935  0.3787
 3652POSM   D2B42858  29.937  26.734  13.791 -0.2188  0.1447  0.0681
 3652POSM   C3B42859  29.862  26.354  14.094 -0.0369 -0.2048 -0.0516
 3652POSM   C4B42860  29.668  26.132  14.400 -0.1136 -0.2044  0.0369
 3653POSM   NC342861  32.226  28.317  12.266 -0.0552  0.0909 -0.0110
 3653POSM   PO442862  32.155  28.650  12.473 -0.1645 -0.3375 -0.1178
 3653POSM   AM142863  32.399  28.731  12.658 -0.0188 -0.3493  0.0831
 3653POSM   AM242864  32.506  28.704  12.936 -0.1376 -0.0637 -0.2988
 3653POSM   T1A42865  32.911  28.716  12.697 -0.1308  0.1580 -0.2662
 3653POSM   C2A42866  33.297  28.515  12.640 -0.0043  0.2557 -0.0678
 3653POSM   C3A42867  33.438  28.082  12.591  0.1136 -0.2878 -0.2386
 3653POSM   C1B42868  32.762  28.863  13.116 -0.0989 -0.2143  0.0490
 3653POSM   D2B42869  33.110  29.156  13.187  0.1272  0.0833  0.1570
 3653POSM   C3B42870  33.435  29.006  13.458  0.0469  0.1629 -0.0700
 3653POSM   C4B42871  33.563  28.941  13.954 -0.0698 -0.0337  0.2375
 3654DOPE   NH342872  31.920  26.599  12.384  0.3593  0.0372  0.1968
 3654DOPE   PO442873  31.919  26.618  12.693 -0.1034 -0.1212  0.0109
 3654DOPE   GL142874  31.932  26.481  12.922  0.0288  0.2995  0.5578
 3654DOPE   GL242875  32.274  26.343  12.963  0.2231  0.0245  0.4388
 3654DOPE   C1A42876  32.073  26.509  13.368 -0.0152  0.2333 -0.0194
 3654DOPE   D2A42877  32.148  26.859  13.674  0.0664  0.0657  0.0596
 3654DOPE   C3A42878  32.081  26.826  14.123  0.0700 -0.2365 -0.1702
 3654DOPE   C4A42879  32.052  26.513  14.427 -0.2025  0.1972  0.1840
 3654DOPE   C1B42880  32.299  26.015  13.230  0.2188  0.0349 -0.3760
 3654DOPE   D2B42881  32.297  25.830  13.628 -0.4713 -0.0421 -0.1574
 3654DOPE   C3B42882  32.548  25.990  14.014  0.2744  0.1580 -0.3921
 3654DOPE   C4B42883  32.475  26.128  14.452 -0.2811  0.0410 -0.3975
 3655DOPS   CNO42884  25.589  34.481  12.215  0.0482  0.0737  0.2323
 3655DOPS   PO442885  25.249  34.377  12.397 -0.1681  0.2782 -0.0377
 3655DOPS   GL142886  24.912  34.184  12.463 -0.3127 -0.1694  0.1571
 3655DOPS   GL242887  24.843  33.929  12.400  0.0502 -0.2861  0.2539
 3655DOPS   C1A42888  24.656  34.273  12.855 -0.0708 -0.0580 -0.1485
 3655DOPS   D2A42889  24.445  34.519  13.152 -0.1262 -0.1554 -0.2143
 3655DOPS   C3A42890  24.460  34.462  13.608 -0.0211  0.3158  0.1118
 3655DOPS   C4A42891  24.151  34.428  13.941  0.1614 -0.2002  0.0407
 3655DOPS   C1B42892  24.623  33.801  12.719  0.0495 -0.2761  0.2439
 3655DOPS   D2B42893  24.559  33.852  13.162  0.5274 -0.2066  0.1835
 3655DOPS   C3B42894  24.815  34.079  13.479 -0.2689 -0.4374 -0.0674
 3655DOPS   C4B42895  25.133  33.829  13.722  0.3802  0.3596 -0.0794
 3656DOPE   NH342896  29.277  30.962  12.642 -0.0816  0.0970 -0.3011
 3656DOPE   PO442897  29.387  31.178  12.880  0.0243  0.1701 -0.1567
 3656DOPE   GL142898  29.563  30.981  13.080 -0.2450 -0.3280  0.1550
 3656DOPE   GL242899  29.441  30.888  13.333  0.0775  0.0202  0.2666
 3656DOPE   C1A42900  30.005  31.017  13.233 -0.0971 -0.0065  0.1429
 3656DOPE   D2A42901  30.366  31.234  13.193 -0.1392 -0.2853 -0.0246
 3656DOPE   C3A42902  30.454  31.701  13.246  0.0292 -0.0962 -0.0264
 3656DOPE   C4A42903  30.504  32.025  13.614 -0.3607  0.1656 -0.0796
 3656DOPE   C1B42904  29.563  31.157  13.706  0.0596  0.1414  0.2342
 3656DOPE   D2B42905  29.781  31.376  14.030  0.2761 -0.1975 -0.0757
 3656DOPE   C3B42906  29.668  31.433  14.466 -0.1344 -0.1099  0.1020
 3656DOPE   C4B42907  29.740  31.801  14.738  0.2094 -0.1606  0.0256
 3657POSM   NC342908  22.502  24.553  11.618  0.1236 -0.2638  0.0566
 3657POSM   PO442909  22.667  24.877  11.822  0.0146  0.4098 -0.1231
 3657POSM   AM142910  22.828  24.848  12.139  0.0744  0.2272  0.0310
 3657POSM   AM242911  22.796  24.854  12.387  0.4720 -0.0961 -0.0578
 3657POSM   T1A42912  23.293  24.979  12.252 -0.1588  0.1112  0.1036
 3657POSM   C2A42913  23.733  25.160  12.335 -0.1282 -0.0697  0.0589
 3657POSM   C3A42914  24.119  24.931  12.170  0.1045 -0.3095  0.2948
 3657POSM   C1B42915  22.788  24.712  12.657  0.1397  0.1220 -0.3126
 3657POSM   D2B42916  22.912  24.553  13.075 -0.0565 -0.0996 -0.2968
 3657POSM   C3B42917  22.707  24.759  13.518  0.0260 -0.0001  0.1016
 3657POSM   C4B42918  22.728  24.558  13.923  0.0214 -0.1750  0.1425
 3658POSM   NC342919  23.710  33.499  12.030 -0.0773 -0.1103 -0.0603
 3658POSM   PO442920  23.698  33.868  12.097  0.1103  0.0041 -0.0363
 3658POSM   AM142921  23.962  33.819  12.311  0.3608  0.5769  0.0611
 3658POSM   AM242922  24.159  34.050  12.347  0.2836 -0.0349  0.0813
 3658POSM   T1A42923  24.179  33.523  12.638  0.0551 -0.0313  0.2815
 3658POSM   C2A42924  24.123  33.123  12.933  0.4231  0.0729 -0.2080
 3658POSM   C3A42925  24.215  32.650  13.126  0.0074 -0.0301 -0.1797
 3658POSM   C1B42926  24.442  34.296  12.420  0.0195 -0.2460  0.1799
 3658POSM   D2B42927  24.482  34.714  12.670  0.1142 -0.1301  0.1176
 3658POSM   C3B42928  24.135  34.850  12.900  0.0636 -0.2469  0.3703
 3658POSM   C4B42929  23.801  35.112  13.050  0.0226 -0.1409  0.2288
 3659DOPC   NC342930  27.331  30.638  12.629 -0.2800 -0.1566 -0.2396
 3659DOPC   PO442931  27.454  30.996  12.617 -0.1287  0.3270  0.0527
 3659DOPC   GL142932  27.318  31.101  13.018  0.2207  0.0466  0.3657
 3659DOPC   GL242933  27.406  30.784  13.167 -0.2789  0.0749 -0.3063
 3659DOPC   C1A42934  27.050  31.124  13.383 -0.1581  0.1461  0.0919
 3659DOPC   D2A42935  27.106  31.076  13.820  0.1138 -0.1732 -0.0560
 3659DOPC   C3A42936  26.942  31.391  14.219 -0.0276 -0.2694  0.0840
 3659DOPC   C4A42937  27.192  31.730  14.425  0.5830  0.0643  0.1702
 3659DOPC   C1B42938  27.537  31.196  13.455  0.2050 -0.0740 -0.0464
 3659DOPC   D2B42939  27.754  31.361  13.875  0.0542  0.2578 -0.0681
 3659DOPC   C3B42940  27.320  31.514  13.908 -0.2345 -0.0223 -0.1493
 3659DOPC   C4B42941  26.901  31.527  13.741  0.0244  0.0061 -0.1990
 3660POSM   NC342942  23.749  30.708  12.326  0.5827  0.0820  0.0860
 3660POSM   PO442943  23.989  30.753  12.680 -0.2394  0.0570 -0.1021
 3660POSM   AM142944  23.888  30.800  12.980  0.0020 -0.3348 -0.0678
 3660POSM   AM242945  23.686  30.938  13.164 -0.1128 -0.1488  0.2478
 3660POSM   T1A42946  23.985  30.585  13.459 -0.1242 -0.1130 -0.0314
 3660POSM   C2A42947  24.027  30.160  13.622  0.0315 -0.3441  0.0713
 3660POSM   C3A42948  24.200  29.998  14.021 -0.1152  0.3689 -0.2124
 3660POSM   C1B42949  23.773  31.086  13.486  0.4198  0.2556  0.1232
 3660POSM   D2B42950  24.093  31.240  13.826 -0.1828  0.2623 -0.0908
 3660POSM   C3B42951  24.234  30.872  13.996 -0.0056  0.1811  0.3505
 3660POSM   C4B42952  24.590  30.816  14.304 -0.0740  0.1352  0.0807
 3661DOPE   NH342953  28.136  26.100  12.825 -0.4617 -0.1872 -0.0203
 3661DOPE   PO442954  28.327  26.016  13.055  0.2458  0.2328  0.1821
 3661DOPE   GL142955  28.218  26.118  13.376  0.1211 -0.0875  0.1764
 3661DOPE   GL242956  28.562  26.058  13.525 -0.2961 -0.2396  0.1148
 3661DOPE   C1A42957  28.004  25.821  13.643 -0.2083 -0.3036  0.3126
 3661DOPE   D2A42958  27.914  25.530  13.990  0.4929  0.0717 -0.0041
 3661DOPE   C3A42959  27.703  25.921  14.194 -0.0289  0.0214 -0.0111
 3661DOPE   C4A42960  27.620  26.213  14.447  0.1232 -0.0419  0.2289
 3661DOPE   C1B42961  28.776  25.800  13.837  0.0127 -0.3920 -0.0631
 3661DOPE   D2B42962  29.010  25.687  14.174 -0.0597 -0.0134  0.0585
 3661DOPE   C3B42963  28.803  25.424  14.460  0.0953 -0.4282  0.1439
 3661DOPE   C4B42964  28.565  25.125  14.355  0.0512 -0.1240 -0.1126
 3662DOPS   CNO42965  26.131  28.313  12.104 -0.0493  0.0956 -0.0270
 3662DOPS   PO442966  26.222  28.202  12.446  0.1689 -0.3105  0.0151
 3662DOPS   GL142967  26.373  28.235  12.860  0.1842  0.3872 -0.0378
 3662DOPS   GL242968  26.302  28.409  13.079  0.1325  0.0675 -0.0474
 3662DOPS   C1A42969  26.553  27.962  13.235 -0.2335  0.0101 -0.1829
 3662DOPS   D2A42970  26.532  27.868  13.642  0.0072  0.1749 -0.1085
 3662DOPS   C3A42971  26.178  27.734  13.913  0.0122  0.3632  0.0327
 3662DOPS   C4A42972  26.088  27.780  14.337 -0.0644 -0.0421  0.2935
 3662DOPS   C1B42973  26.446  28.485  13.443 -0.1468  0.1779  0.1856
 3662DOPS   D2B42974  26.419  28.707  13.859 -0.0420 -0.2180 -0.0659
 3662DOPS   C3B42975  26.015  28.751  14.016 -0.0514  0.2775  0.3050
 3662DOPS   C4B42976  25.568  28.747  13.927 -0.0094 -0.2638  0.3689
 3663DOPC   NC342977  26.456  29.546  12.910  0.1585  0.3467 -0.1604
 3663DOPC   PO442978  26.193  29.698  12.633  0.0305  0.1652 -0.0833
 3663DOPC   GL142979  26.237  29.947  12.958 -0.0838  0.0439 -0.3603
 3663DOPC   GL242980  26.197  30.158  12.816  0.1574  0.2437  0.1448
 3663DOPC   C1A42981  26.264  30.036  13.369 -0.2078 -0.2888 -0.0280
 3663DOPC   D2A42982  26.455  29.744  13.742  0.2704 -0.0582  0.1134
 3663DOPC   C3A42983  26.582  29.999  14.076  0.2239 -0.1639  0.0235
 3663DOPC   C4A42984  26.729  30.171  14.481  0.0091 -0.2627  0.0135
 3663DOPC   C1B42985  26.089  30.443  13.105 -0.2816  0.0107  0.0231
 3663DOPC   D2B42986  25.997  30.374  13.575  0.0649 -0.0915  0.1211
 3663DOPC   C3B42987  26.100  30.097  13.898 -0.0372  0.3052 -0.1475
 3663DOPC   C4B42988  26.151  29.752  14.169 -0.1414  0.0131  0.3470
 3664DOPC   NC342989  32.641  34.061  12.444  0.0894  0.2989  0.0527
 3664DOPC   PO442990  32.339  33.941  12.252  0.0825 -0.1460  0.1735
 3664DOPC   GL142991  32.311  33.548  12.333  0.0063  0.2558  0.0333
 3664DOPC   GL242992  32.255  33.598  12.689  0.2988  0.2607  0.2275
 3664DOPC   C1A42993  32.299  33.080  12.535 -0.1942  0.0192  0.5889
 3664DOPC   D2A42994  32.312  32.798  12.855  0.0050 -0.0686 -0.0108
 3664DOPC   C3A42995  32.166  32.654  13.311  0.2906 -0.0930  0.3864
 3664DOPC   C4A42996  32.068  32.312  13.644 -0.0629 -0.1915  0.1701
 3664DOPC   C1B42997  32.084  33.297  12.927 -0.1800  0.1111  0.1512
 3664DOPC   D2B42998  31.864  32.903  13.045 -0.3559 -0.1113  0.0201
 3664DOPC   C3B42999  31.434  32.712  12.934  0.2541 -0.3544  0.1823
 3664DOPC   C4B43000  31.039  32.780  12.584 -0.3075  0.0015 -0.0470
 3665DOPC   NC343001  25.635  28.010  12.847 -0.2440 -0.0047  0.1593
 3665DOPC   PO443002  25.870  28.276  12.757 -0.0297 -0.1154 -0.0736
 3665DOPC   GL143003  25.857  28.265  13.136 -0.0225  0.3603 -0.2875
 3665DOPC   GL243004  25.644  28.361  13.219  0.3666  0.1261 -0.1713
 3665DOPC   C1A43005  26.125  28.057  13.483  0.0788  0.0407  0.1588
 3665DOPC   D2A43006  26.292  28.252  13.852  0.0284  0.0282 -0.0485
 3665DOPC   C3A43007  26.515  28.034  14.158 -0.0797 -0.1247 -0.0925
 3665DOPC   C4A43008  26.632  27.822  14.542  0.3376  0.3089 -0.1010
 3665DOPC   C1B43009  25.282  28.461  13.557  0.1408 -0.0756 -0.1824
 3665DOPC   D2B43010  25.023  28.591  13.950  0.3405  0.2042 -0.2475
 3665DOPC   C3B43011  25.158  28.805  14.349 -0.1928 -0.0154 -0.0517
 3665DOPC   C4B43012  25.525  28.747  14.609 -0.2008  0.3040 -0.0066
 3666DOPS   CNO43013  29.646  31.275  12.388 -0.1803  0.1380  0.2555
 3666DOPS   PO443014  29.336  31.499  12.444  0.0448 -0.0981  0.0177
 3666DOPS   GL143015  29.285  31.676  12.829  0.0943 -0.1026  0.0842
 3666DOPS   GL243016  29.166  31.930  12.765  0.3471  0.2759 -0.0249
 3666DOPS   C1A43017  29.088  31.669  13.196 -0.0697  0.2612  0.1647
 3666DOPS   D2A43018  29.170  31.685  13.627  0.2230  0.2344 -0.0997
 3666DOPS   C3A43019  29.560  31.819  13.773  0.0244  0.0904  0.1926
 3666DOPS   C4A43020  30.032  31.833  13.881  0.2781  0.1097  0.0797
 3666DOPS   C1B43021  29.132  32.134  13.190 -0.2334 -0.3798  0.1941
 3666DOPS   D2B43022  28.945  32.507  13.366 -0.1331  0.0876  0.2808
 3666DOPS   C3B43023  28.965  32.647  13.795  0.1178  0.1435 -0.2957
 3666DOPS   C4B43024  28.961  32.639  14.252  0.1344  0.2217 -0.0120
 3667POSM   NC343025  26.640  23.117  12.955 -0.0459  0.0336 -0.2238
 3667POSM   PO443026  26.282  23.113  12.924  0.1248 -0.1802  0.1729
 3667POSM   AM143027  26.006  23.106  13.086 -0.1193 -0.0015  0.0471
 3667POSM   AM243028  25.716  23.128  13.005 -0.1329  0.0088 -0.1654
 3667POSM   T1A43029  25.657  22.791  13.314  0.1618  0.1659  0.1192
 3667POSM   C2A43030  25.205  22.680  13.379  0.0560 -0.1270 -0.0997
 3667POSM   C3A43031  25.112  22.223  13.276  0.2482  0.0552 -0.0846
 3667POSM   C1B43032  25.412  23.232  13.196  0.2094  0.3227 -0.1540
 3667POSM   D2B43033  25.054  23.507  13.298  0.1986  0.0654  0.3683
 3667POSM   C3B43034  24.660  23.709  13.224  0.2879 -0.1064 -0.0495
 3667POSM   C4B43035  24.223  23.729  13.271  0.0470 -0.3820  0.0659
 3668POSM   NC343036  29.202  33.149  12.316  0.2261  0.3595 -0.1795
 3668POSM   PO443037  28.972  32.885  12.443 -0.0188  0.0277  0.1730
 3668POSM   AM143038  29.089  32.963  12.730 -0.1408  0.2821 -0.3955
 3668POSM   AM243039  29.280  33.159  12.875 -0.0865  0.0460 -0.1304
 3668POSM   T1A43040  29.001  32.959  13.178  0.1139  0.1066  0.1549
 3668POSM   C2A43041  28.581  32.970  13.452 -0.1627 -0.2627  0.1151
 3668POSM   C3A43042  28.136  32.960  13.698 -0.2759  0.3299  0.0346
 3668POSM   C1B43043  29.052  33.415  12.924  0.1429  0.0440 -0.0928
 3668POSM   D2B43044  28.710  33.761  13.089 -0.3283  0.2340  0.3052
 3668POSM   C3B43045  28.772  34.182  13.308  0.1126 -0.0322  0.2852
 3668POSM   C4B43046  28.681  34.643  13.179 -0.0786  0.0696 -0.3384
 3669DOPE   NH343047  22.769  30.191  12.359 -0.0225  0.1632 -0.1851
 3669DOPE   PO443048  22.698  29.975  12.127 -0.2586  0.1384 -0.2992
 3669DOPE   GL143049  22.993  29.673  12.388 -0.0214 -0.2180 -0.0138
 3669DOPE   GL243050  23.197  29.951  12.439  0.0420  0.2057 -0.1337
 3669DOPE   C1A43051  23.059  29.382  12.771  0.1315  0.0870  0.4520
 3669DOPE   D2A43052  22.874  29.336  13.223 -0.2119  0.2115  0.1373
 3669DOPE   C3A43053  22.890  28.937  13.434  0.0059  0.1682  0.0805
 3669DOPE   C4A43054  22.644  28.582  13.639 -0.3900 -0.0503 -0.0566
 3669DOPE   C1B43055  23.512  29.596  12.471 -0.2441  0.2066 -0.3077
 3669DOPE   D2B43056  23.928  29.684  12.692 -0.1686 -0.1485 -0.0053
 3669DOPE   C3B43057  23.981  29.375  13.043  0.2273  0.2014  0.3266
 3669DOPE   C4B43058  23.701  29.277  13.431  0.2732 -0.2252  0.0300
 3670DOPC   NC343059  28.114  22.512  13.019  0.1378 -0.4387  0.0068
 3670DOPC   PO443060  28.378  22.706  13.240 -0.0574 -0.0771  0.0893
 3670DOPC   GL143061  28.575  22.705  13.586  0.1169  0.2629  0.1593
 3670DOPC   GL243062  28.322  22.517  13.683  0.0088 -0.0451  0.0789
 3670DOPC   C1A43063  28.536  22.822  14.040  0.0330  0.1962  0.1173
 3670DOPC   D2A43064  28.566  23.033  14.410  0.1055 -0.1308  0.4962
 3670DOPC   C3A43065  28.259  23.012  14.722 -0.1380  0.1020 -0.1418
 3670DOPC   C4A43066  28.183  22.858  15.198  0.0365 -0.0910 -0.0319
 3670DOPC   C1B43067  28.369  22.128  13.932  0.0343  0.1702  0.1795
 3670DOPC   D2B43068  28.324  22.024  14.337 -0.1949  0.3649  0.1644
 3670DOPC   C3B43069  27.830  21.970  14.422 -0.4431 -0.0641 -0.0019
 3670DOPC   C4B43070  27.418  22.165  14.436  0.1856 -0.0941 -0.0282
 3671POSM   NC343071  33.745  26.000  12.623  0.0037  0.0603 -0.0177
 3671POSM   PO443072  34.089  25.884  12.781 -0.1620 -0.3418 -0.2311
 3671POSM   AM143073  34.029  26.108  13.050 -0.0937  0.3528 -0.1438
 3671POSM   AM243074  34.184  26.317  13.195 -0.0245  0.1535  0.0037
 3671POSM   T1A43075  33.803  26.130  13.494 -0.1213  0.0663 -0.1483
 3671POSM   C2A43076  33.714  26.310  13.916  0.4491  0.0029 -0.0969
 3671POSM   C3A43077  33.351  26.254  14.189  0.0610 -0.3369  0.0102
 3671POSM   C1B43078  34.223  26.460  13.495  0.0752  0.0206 -0.1377
 3671POSM   D2B43079  34.476  26.421  13.868 -0.2685  0.0425 -0.2745
 3671POSM   C3B43080  34.470  26.641  14.313 -0.0738 -0.1293  0.0309
 3671POSM   C4B43081  34.445  26.794  14.786 -0.2803 -0.3215 -0.0025
 3672POSM   NC343082  28.836  31.493  12.703  0.2323 -0.1236 -0.2483
 3672POSM   PO443083  28.726  31.127  12.660 -0.1554 -0.4396  0.0695
 3672POSM   AM143084  28.809  30.848  12.886 -0.1118 -0.2454  0.1201
 3672POSM   AM243085  28.993  30.813  13.108  0.1799  0.0508 -0.1981
 3672POSM   T1A43086  28.926  30.364  13.081  0.1551  0.0062 -0.0208
 3672POSM   C2A43087  28.527  30.075  13.299  0.3328 -0.0480  0.1860
 3672POSM   C3A43088  28.286  30.065  13.660 -0.4563  0.2102 -0.1590
 3672POSM   C1B43089  29.002  30.724  13.457  0.0769  0.1019  0.0469
 3672POSM   D2B43090  29.099  30.742  13.902 -0.0307 -0.0913 -0.1796
 3672POSM   C3B43091  28.877  30.987  14.295 -0.1921 -0.0180 -0.0889
 3672POSM   C4B43092  28.507  31.188  14.278 -0.0355 -0.2032 -0.0746
 3673G2HFO Head43093  15.069  15.368  26.991  0.0456 -0.0362  0.1919
 3673G2HFO Head43094  15.214  15.385  26.725 -0.0635  0.0490  0.0503
 3673G2HFO Head43095  15.747  15.376  27.284 -0.0424  0.2057 -0.1801
 3673G2HFO Head43096  15.522  15.321  27.064 -0.3919 -0.3185 -0.0751
 3673G2HFO Head43097  15.542  15.462  26.735 -0.3693 -0.2707  0.3123
 3673G2HFO Head43098  16.187  15.111  27.119 -0.0907  0.0528 -0.0738
 3673G2HFO Head43099  16.062  15.316  26.941 -0.1401 -0.1058 -0.1297
 3673G2HFO Head43100  15.467  14.937  26.906  0.2138  0.1317  0.0294
 3673G2HFO Head43101  15.774  15.008  26.901 -0.1304  0.2431 -0.2508
 3673G2HFO Head43102  15.884  15.215  26.653  0.5260  0.1950 -0.0315
 3673G2HFO link43103  15.708  15.395  26.549 -0.1931  0.6041 -0.6258
 3673G2HFO link43104  15.688  15.434  26.277 -0.1040  0.2525  0.3075
 3673G2HFO Tail43105  15.912  15.337  26.044 -0.0768  0.0003 -0.2979
 3673G2HFO Tail43106  15.819  15.513  25.750 -0.5039  0.1030 -0.0148
 3673G2HFO Tail43107  15.892  15.794  25.651  0.2241  0.1071  0.0859
 3673G2HFO Tail43108  15.756  16.211  25.628  0.1040 -0.1112 -0.1559
 3673G2HFO Tail43109  16.223  15.455  26.119 -0.0149 -0.0409  0.4230
 3673G2HFO Tail43110  16.429  15.401  25.967  0.1533 -0.5124  0.1406
 3673G2HFO Tail43111  16.390  15.257  25.766  0.1562 -0.0918  0.0524
 3673G2HFO Tail43112  16.378  15.115  25.556  0.1477 -0.0678 -0.1073
 3673G2HFO Tail43113  16.316  14.982  25.376 -0.0179  0.0031  0.0869
 3674G2HFO Head43114  13.833  19.110  24.435 -0.3889 -0.1582  0.2406
 3674G2HFO Head43115  13.831  18.899  24.150  0.2034 -0.0002 -0.1883
 3674G2HFO Head43116  14.329  19.216  24.334  0.3604  0.2396 -0.0717
 3674G2HFO Head43117  14.117  19.212  24.101 -0.0589  0.5238  0.2362
 3674G2HFO Head43118  14.093  18.900  23.937 -0.3157 -0.1393  0.3416
 3674G2HFO Head43119  14.452  19.209  23.453  0.1059 -0.0791 -0.1954
 3674G2HFO Head43120  14.464  19.169  23.746 -0.1063  0.0846  0.1469
 3674G2HFO Head43121  14.799  19.340  24.092 -0.1877  0.1078 -0.0799
 3674G2HFO Head43122  14.694  19.036  24.128  0.1323  0.4528  0.0510
 3674G2HFO Head43123  14.504  18.862  23.893 -0.0679  0.0384  0.0505
 3674G2HFO link43124  14.302  18.727  23.952  0.6470 -0.3047 -0.1400
 3674G2HFO link43125  14.293  18.508  24.137 -0.2656  0.3310 -0.3325
 3674G2HFO Tail43126  14.562  18.381  24.266 -0.1202  0.0142  0.2084
 3674G2HFO Tail43127  14.496  18.035  24.194 -0.2118  0.1457 -0.3033
 3674G2HFO Tail43128  14.668  17.772  24.215  0.2775 -0.0628  0.1815
 3674G2HFO Tail43129  14.678  17.345  24.125 -0.0922  0.2818 -0.2045
 3674G2HFO Tail43130  14.758  18.423  23.983 -0.3289  0.1240  0.2266
 3674G2HFO Tail43131  14.951  18.267  23.899 -0.0298  0.0666  0.0497
 3674G2HFO Tail43132  15.191  18.319  23.955  0.2724 -0.1625 -0.3271
 3674G2HFO Tail43133  15.403  18.411  24.049  0.0555  0.0059 -0.1272
 3674G2HFO Tail43134  15.562  18.550  24.139  0.0696 -0.0906  0.1212
 3675G2HFO Head43135  15.083  16.114  27.144 -0.2146 -0.1937  0.0871
 3675G2HFO Head43136  15.265  16.147  27.428  0.1515  0.1571 -0.3928
 3675G2HFO Head43137  15.074  15.633  27.914  0.0923 -0.0728  0.3087
 3675G2HFO Head43138  15.291  15.879  27.809  0.0763 -0.2986  0.1899
 3675G2HFO Head43139  15.427  15.850  27.481 -0.3348 -0.0847  0.0299
 3675G2HFO Head43140  15.242  15.040  27.841 -0.1666 -0.3433  0.1170
 3675G2HFO Head43141  15.350  15.316  27.709  0.2632  0.0509 -0.1751
 3675G2HFO Head43142  15.481  14.938  27.434 -0.3924  0.2239 -0.1979
 3675G2HFO Head43143  15.249  15.128  27.323  0.0450 -0.0530 -0.2374
 3675G2HFO Head43144  15.253  15.470  27.405  0.2277 -0.1390 -0.1274
 3675G2HFO link43145  15.392  15.660  27.300 -0.2169 -0.3083 -0.1897
 3675G2HFO link43146  15.357  15.729  27.030 -0.0876 -0.0828  0.2741
 3675G2HFO Tail43147  15.584  15.914  26.881  0.1397 -0.1087  0.3524
 3675G2HFO Tail43148  15.520  15.875  26.544  0.2893  0.3180 -0.0968
 3675G2HFO Tail43149  15.365  16.055  26.341  0.0109 -0.0024 -0.0570
 3675G2HFO Tail43150  15.039  16.321  26.311  0.0200  0.0786  0.0548
 3675G2HFO Tail43151  15.855  15.722  26.915  0.0256  0.2670 -0.0047
 3675G2HFO Tail43152  16.025  15.710  26.724 -0.4953  0.3009  0.0020
 3675G2HFO Tail43153  15.965  15.808  26.495 -0.0979 -0.1056 -0.1054
 3675G2HFO Tail43154  15.923  15.916  26.271  0.3764  0.0333  0.3742
 3675G2HFO Tail43155  15.881  16.078  26.107 -0.0188 -0.1889  0.0456
 3676G2HFO Head43156  17.928  13.019  20.412  0.0115  0.1678  0.1631
 3676G2HFO Head43157  18.155  13.226  20.369  0.4650 -0.1480  0.0251
 3676G2HFO Head43158  18.347  12.979  20.837  0.0699  0.0476  0.1636
 3676G2HFO Head43159  18.215  13.296  20.832  0.1733  0.1662  0.2939
 3676G2HFO Head43160  18.225  13.518  20.551  0.2516 -0.3125  0.0844
 3676G2HFO Head43161  18.641  13.757  20.592 -0.0572  0.0558  0.0178
 3676G2HFO Head43162  18.468  13.810  20.809  0.1719  0.0404  0.2612
 3676G2HFO Head43163  17.933  13.439  21.169 -0.3008 -0.0755  0.0273
 3676G2HFO Head43164  18.161  13.634  21.065  0.0650 -0.0815 -0.1017
 3676G2HFO Head43165  18.124  13.827  20.764  0.0547 -0.1421  0.2960
 3676G2HFO link43166  18.053  13.728  20.538 -0.0237 -0.0985 -0.1971
 3676G2HFO link43167  17.913  13.838  20.326  0.0527  0.0233  0.1300
 3676G2HFO Tail43168  18.046  14.021  20.075 -0.2162 -0.1271  0.0465
 3676G2HFO Tail43169  18.119  14.309  20.281 -0.1046 -0.1134 -0.0187
 3676G2HFO Tail43170  18.183  14.610  20.190 -0.1156  0.5212  0.0701
 3676G2HFO Tail43171  18.439  14.843  19.933  0.2413 -0.2038  0.3165
 3676G2HFO Tail43172  18.381  13.907  20.117 -0.1587 -0.2098 -0.0039
 3676G2HFO Tail43173  18.538  13.873  19.901 -0.0257 -0.0424 -0.1468
 3676G2HFO Tail43174  18.779  13.973  19.891 -0.0632 -0.0745 -0.0663
 3676G2HFO Tail43175  19.002  14.098  19.890 -0.0472  0.1260  0.0249
 3676G2HFO Tail43176  19.226  14.155  19.913 -0.2879  0.0696 -0.1549
 3677G2HFO Head43177  20.409  19.544  24.150 -0.2743  0.0880 -0.3797
 3677G2HFO Head43178  20.184  19.342  24.121  0.2642  0.0692  0.6071
 3677G2HFO Head43179  19.955  19.899  23.671 -0.2305 -0.1040  0.0460
 3677G2HFO Head43180  19.939  19.671  23.912  0.0266  0.4738 -0.2407
 3677G2HFO Head43181  19.995  19.346  23.835  0.1841  0.0547  0.1881
 3677G2HFO Head43182  20.575  19.074  24.025  0.2608 -0.1047 -0.0442
 3677G2HFO Head43183  20.534  19.225  23.788  0.1360  0.3034  0.2788
 3677G2HFO Head43184  20.203  18.578  23.655 -0.0661  0.2602 -0.0691
 3677G2HFO Head43185  20.273  18.827  23.785 -0.2273  0.2386  0.1645
 3677G2HFO Head43186  20.289  19.118  23.584 -0.1067  0.2420  0.0968
 3677G2HFO link43187  20.080  19.299  23.581 -0.3619 -0.0168  0.0251
 3677G2HFO link43188  19.957  19.395  23.344  0.3981 -0.2666 -0.0429
 3677G2HFO Tail43189  19.682  19.575  23.373 -0.8815  0.0674 -0.3151
 3677G2HFO Tail43190  19.544  19.369  23.626 -0.2818  0.2902  0.3459
 3677G2HFO Tail43191  19.233  19.292  23.666 -0.0020  0.1108  0.1524
 3677G2HFO Tail43192  18.878  19.184  23.421  0.0255  0.1006 -0.0970
 3677G2HFO Tail43193  19.534  19.449  23.081  0.2067 -0.1470 -0.2180
 3677G2HFO Tail43194  19.575  19.238  22.939  0.5174 -0.0931  0.2273
 3677G2HFO Tail43195  19.812  19.202  22.841  0.2218 -0.0369  0.0468
 3677G2HFO Tail43196  20.052  19.191  22.776  0.1371 -0.1388  0.1251
 3677G2HFO Tail43197  20.263  19.213  22.663 -0.1846  0.3696 -0.0777
 3678G2HFO Head43198  18.784  16.386  25.474  0.3205 -0.0584 -0.1592
 3678G2HFO Head43199  18.700  16.172  25.722 -0.0028  0.4573  0.4754
 3678G2HFO Head43200  18.886  15.666  25.199 -0.1130 -0.0195 -0.3836
 3678G2HFO Head43201  18.851  15.851  25.426 -0.3500  0.1919  0.2454
 3678G2HFO Head43202  18.554  15.864  25.625 -0.1533  0.0722  0.2320
 3678G2HFO Head43203  18.807  16.272  26.146  0.1643 -0.2564 -0.0833
 3678G2HFO Head43204  18.706  15.961  26.227 -0.2019  0.1376 -0.2432
 3678G2HFO Head43205  18.788  15.197  26.079 -0.0692  0.1061  0.4217
 3678G2HFO Head43206  18.842  15.481  26.161 -0.0835 -0.4995  0.2322
 3678G2HFO Head43207  18.703  15.739  25.964 -0.1514 -0.3118 -0.4281
 3678G2HFO link43208  18.487  15.689  25.818  0.0382  0.0346  0.4743
 3678G2HFO link43209  18.229  15.651  25.907  0.0636  0.4216 -0.2228
 3678G2HFO Tail43210  18.114  15.349  26.001 -0.0427 -0.1915  0.1720
 3678G2HFO Tail43211  17.840  15.328  25.805 -0.0171 -0.1807  0.2168
 3678G2HFO Tail43212  17.607  15.144  25.678  0.1794 -0.3549 -0.0214
 3678G2HFO Tail43213  17.199  15.228  25.517 -0.3191  0.0394  0.0867
 3678G2HFO Tail43214  18.361  15.155  25.851  0.0173  0.0895 -0.1786
 3678G2HFO Tail43215  18.326  14.909  25.767 -0.3999  0.0037 -0.0679
 3678G2HFO Tail43216  18.086  14.817  25.779  0.0332 -0.1318  0.0106
 3678G2HFO Tail43217  17.847  14.732  25.739 -0.3064 -0.2624  0.0558
 3678G2HFO Tail43218  17.650  14.656  25.658 -0.1488  0.0339 -0.2568
 3679G2HFO Head43219  16.795  17.664  21.769 -0.3028  0.1506  0.0866
 3679G2HFO Head43220  16.927  17.784  21.468 -0.2244 -0.0525  0.1585
 3679G2HFO Head43221  17.392  17.762  21.275 -0.0202  0.2647 -0.1633
 3679G2HFO Head43222  17.307  17.970  21.464  0.1630  0.0357 -0.4363
 3679G2HFO Head43223  17.001  18.129  21.424  0.0300  0.0816 -0.0715
 3679G2HFO Head43224  16.172  18.343  21.193 -0.1918  0.0508  0.0249
 3679G2HFO Head43225  16.458  18.381  21.276 -0.1980 -0.1895 -0.1254
 3679G2HFO Head43226  16.540  17.608  21.292  0.0208 -0.1193 -0.1708
 3679G2HFO Head43227  16.564  17.968  21.348  0.0986  0.2316 -0.0206
 3679G2HFO Head43228  16.704  18.183  21.130  0.0804  0.5295  0.3760
 3679G2HFO link43229  16.958  18.256  21.170 -0.1221  0.3743  0.0641
 3679G2HFO link43230  17.162  18.273  20.963  0.0287 -0.1410 -0.0092
 3679G2HFO Tail43231  17.454  18.130  20.996  0.2324 -0.0801  0.5250
 3679G2HFO Tail43232  17.640  18.342  20.787  0.3159  0.1487  0.1599
 3679G2HFO Tail43233  17.617  18.619  20.611  0.3847  0.0576  0.0919
 3679G2HFO Tail43234  17.878  18.916  20.413 -0.2756  0.5174 -0.3171
 3679G2HFO Tail43235  17.404  17.884  20.770 -0.3589 -0.2338 -0.4127
 3679G2HFO Tail43236  17.191  17.805  20.668  0.0835  0.3337  0.0868
 3679G2HFO Tail43237  17.205  17.591  20.528 -0.3335 -0.1532  0.1130
 3679G2HFO Tail43238  17.208  17.365  20.419  0.1626 -0.1611  0.1366
 3679G2HFO Tail43239  17.185  17.193  20.263 -0.3799 -0.3074  0.0388
 3680G2HFO Head43240  15.106  19.638  23.258 -0.3818  0.0929  0.1240
 3680G2HFO Head43241  15.411  19.531  23.163 -0.5165 -0.3170 -0.5380
 3680G2HFO Head43242  15.797  19.343  22.575 -0.0981  0.2196  0.0654
 3680G2HFO Head43243  15.734  19.379  22.871  0.0913  0.0239  0.2706
 3680G2HFO Head43244  15.476  19.220  23.053  0.1610  0.3764 -0.0340
 3680G2HFO Head43245  15.111  18.888  23.900  0.4522 -0.4116 -0.3002
 3680G2HFO Head43246  15.346  18.918  23.714  0.1128 -0.5865 -0.1162
 3680G2HFO Head43247  15.212  19.381  23.849 -0.3737 -0.1188  0.1211
 3680G2HFO Head43248  15.111  19.236  23.549 -0.0830  0.5958  0.1953
 3680G2HFO Head43249  15.309  19.007  23.378 -0.0507  0.1808 -0.0918
 3680G2HFO link43250  15.534  19.027  23.220 -0.2708  0.5194 -0.0576
 3680G2HFO link43251  15.796  18.902  23.248 -0.3000 -0.3106 -0.1706
 3680G2HFO Tail43252  15.827  18.656  23.471 -0.3222 -0.1072  0.2675
 3680G2HFO Tail43253  15.782  18.816  23.790 -0.1430 -0.0147 -0.1998
 3680G2HFO Tail43254  15.984  18.872  24.049  0.1307 -0.1544  0.0564
 3680G2HFO Tail43255  16.402  19.006  24.147  0.3541  0.0492  0.2013
 3680G2HFO Tail43256  15.514  18.521  23.386  0.0999 -0.1832 -0.1507
 3680G2HFO Tail43257  15.309  18.531  23.548 -0.1936  0.0911 -0.2054
 3680G2HFO Tail43258  15.082  18.414  23.471  0.0191 -0.1140 -0.0405
 3680G2HFO Tail43259  14.866  18.286  23.423  0.1112 -0.1462 -0.0351
 3680G2HFO Tail43260  14.707  18.124  23.356 -0.2472  0.0239  0.0988
 3681G2HFO Head43261  19.624  21.426  22.112 -0.4798  0.1028  0.1704
 3681G2HFO Head43262  19.415  21.430  21.849  0.2398 -0.2220  0.1588
 3681G2HFO Head43263  19.821  21.276  21.591 -0.1389 -0.0973 -0.4283
 3681G2HFO Head43264  19.641  21.084  21.643 -0.4101 -0.2371  0.0142
 3681G2HFO Head43265  19.304  21.168  21.645  0.0583  0.0541 -0.3998
 3681G2HFO Head43266  19.404  21.878  21.790  0.3261 -0.0788  0.0583
 3681G2HFO Head43267  19.424  21.658  21.486 -0.2670  0.1872  0.0105
 3681G2HFO Head43268  19.497  21.691  21.044  0.0204  0.0675  0.0612
 3681G2HFO Head43269  19.229  21.618  21.076 -0.2930  0.1904 -0.0921
 3681G2HFO Head43270  19.152  21.470  21.371 -0.1358  0.1374 -0.0516
 3681G2HFO link43271  19.171  21.208  21.413 -0.0794  0.4363  0.4711
 3681G2HFO link43272  19.025  21.004  21.268 -0.4809 -0.2231  0.2790
 3681G2HFO Tail43273  18.716  20.920  21.343  0.0301 -0.6874 -0.0729
 3681G2HFO Tail43274  18.608  21.245  21.422  0.1574 -0.3677 -0.2284
 3681G2HFO Tail43275  18.364  21.415  21.545  0.4495  0.0836  0.0755
 3681G2HFO Tail43276  18.098  21.751  21.453 -0.2718 -0.1111 -0.3768
 3681G2HFO Tail43277  18.741  20.772  21.659 -0.1519  0.0493  0.2038
 3681G2HFO Tail43278  18.837  20.904  21.869 -0.1891 -0.0597  0.1328
 3681G2HFO Tail43279  18.868  21.159  21.859 -0.3185 -0.2603  0.0415
 3681G2HFO Tail43280  18.924  21.402  21.802  0.1374  0.1944  0.1499
 3681G2HFO Tail43281  18.996  21.619  21.799  0.0455  0.2137 -0.1907
 3682G2HFO Head43282  14.445  15.553  21.898 -0.3278  0.1766 -0.0736
 3682G2HFO Head43283  14.528  15.654  22.166 -0.3906  0.0958 -0.0658
 3682G2HFO Head43284  14.109  15.467  22.643  0.0434 -0.0378  0.2908
 3682G2HFO Head43285  14.264  15.495  22.425  0.3121 -0.5069  0.0993
 3682G2HFO Head43286  14.600  15.423  22.427 -0.1329 -0.1030  0.3947
 3682G2HFO Head43287  14.548  15.746  23.409  0.5114  0.2408  0.0453
 3682G2HFO Head43288  14.706  15.555  23.154  0.2900  0.0245 -0.2327
 3682G2HFO Head43289  14.774  16.050  23.113 -0.6058  0.1998 -0.0243
 3682G2HFO Head43290  14.670  15.937  22.844  0.0186 -0.1521 -0.3143
 3682G2HFO Head43291  14.626  15.590  22.809 -0.5620  0.0193  0.0944
 3682G2HFO link43292  14.771  15.460  22.613 -0.0521  0.2065  0.0675
 3682G2HFO link43293  15.057  15.420  22.592  0.0785  0.2285 -0.2494
 3682G2HFO Tail43294  15.166  15.510  22.295 -0.0166  0.3175  0.7756
 3682G2HFO Tail43295  15.473  15.312  22.293 -0.0813 -0.0531 -0.3242
 3682G2HFO Tail43296  15.713  15.183  22.471  0.6409  0.2153 -0.0982
 3682G2HFO Tail43297  16.112  15.038  22.410 -0.1675 -0.6237  0.0334
 3682G2HFO Tail43298  15.345  15.808  22.365  0.0008 -0.0133 -0.0035
 3682G2HFO Tail43299  15.596  15.789  22.435  0.0646 -0.1848 -0.0098
 3682G2HFO Tail43300  15.634  15.731  22.690  0.0112  0.0927  0.1778
 3682G2HFO Tail43301  15.634  15.693  22.950 -0.1305 -0.0033 -0.2299
 3682G2HFO Tail43302  15.607  15.615  23.174  0.2021 -0.1894  0.2548
 3683G2HFO Head43303  19.875  20.456  20.439 -0.3850  0.0174 -0.2418
 3683G2HFO Head43304  19.755  20.603  20.206  0.0003 -0.4306 -0.1476
 3683G2HFO Head43305  19.309  20.472  20.509 -0.1617  0.1298 -0.2467
 3683G2HFO Head43306  19.301  20.550  20.198  0.1744  0.0165  0.1136
 3683G2HFO Head43307  19.544  20.450  19.970 -0.0559 -0.0546 -0.1380
 3683G2HFO Head43308  19.897  20.811  19.844  0.1135 -0.2408  0.0804
 3683G2HFO Head43309  19.888  20.562  19.641 -0.2082  0.0861 -0.1729
 3683G2HFO Head43310  20.237  20.113  20.125  0.6878 -0.3370 -0.2759
 3683G2HFO Head43311  20.110  20.331  19.962 -0.1366  0.5077  0.0464
 3683G2HFO Head43312  19.829  20.251  19.790  0.1102  0.2740  0.6894
 3683G2HFO link43313  19.600  20.210  19.905  0.0568  0.0261 -0.3111
 3683G2HFO link43314  19.399  20.024  19.839 -0.1833 -0.0199  0.0298
 3683G2HFO Tail43315  19.089  20.114  19.764 -0.1390  0.1913  0.0908
 3683G2HFO Tail43316  18.944  19.861  19.945  0.0573 -0.1472 -0.2255
 3683G2HFO Tail43317  18.641  19.730  19.951 -0.0009  0.1101  0.0813
 3683G2HFO Tail43318  18.238  19.795  20.106  0.3373 -0.4243  0.5037
 3683G2HFO Tail43319  19.046  19.987  19.437 -0.1789  0.2299 -0.4194
 3683G2HFO Tail43320  18.827  19.931  19.313 -0.0312  0.0446 -0.0690
 3683G2HFO Tail43321  18.657  19.767  19.419  0.0330 -0.1268 -0.2706
 3683G2HFO Tail43322  18.512  19.585  19.522  0.0338 -0.1829 -0.0589
 3683G2HFO Tail43323  18.360  19.466  19.650  0.3063  0.0447  0.1153
 3684G2HFO Head43324  15.578  19.903  25.358 -0.1165 -0.0325 -0.2173
 3684G2HFO Head43325  15.480  19.601  25.252 -0.0414 -0.2700  0.2405
 3684G2HFO Head43326  15.258  19.172  25.578  0.0678 -0.0375  0.1388
 3684G2HFO Head43327  15.433  19.107  25.328 -0.0397 -0.5306  0.3129
 3684G2HFO Head43328  15.691  19.325  25.225  0.1909  0.0766  0.1255
 3684G2HFO Head43329  15.938  19.978  25.683  0.2638  0.1716 -0.0343
 3684G2HFO Head43330  16.097  19.763  25.501 -0.1024 -0.1354 -0.1787
 3684G2HFO Head43331  15.577  19.427  25.850 -0.1087  0.3038  0.4761
 3684G2HFO Head43332  15.731  19.572  25.646  0.1640  0.0039  0.0430
 3684G2HFO Head43333  15.993  19.439  25.469 -0.0822  0.3482  0.2618
 3684G2HFO link43334  15.947  19.320  25.247  0.1174  0.1253  0.2469
 3684G2HFO link43335  16.100  19.271  25.017  0.1978  0.4213 -0.1211
 3684G2HFO Tail43336  16.236  18.975  24.993  0.1768 -0.3655  0.5066
 3684G2HFO Tail43337  16.555  19.052  24.969  0.0125  0.2279 -0.4950
 3684G2HFO Tail43338  16.726  19.187  24.743  0.2241 -0.1858  0.2814
 3684G2HFO Tail43339  16.902  19.118  24.360 -0.2362 -0.2596 -0.2585
 3684G2HFO Tail43340  16.180  18.905  24.665 -0.0586  0.1708  0.0622
 3684G2HFO Tail43341  16.128  19.106  24.499  0.1477 -0.1896  0.1085
 3684G2HFO Tail43342  15.913  19.241  24.549 -0.0745 -0.0139  0.1842
 3684G2HFO Tail43343  15.691  19.332  24.624  0.1561  0.3265 -0.0380
 3684G2HFO Tail43344  15.522  19.466  24.719 -0.0582  0.1730  0.2680
 3685G2HFO Head43345  18.495  13.922  18.271  0.1900 -0.0575  0.1633
 3685G2HFO Head43346  18.479  14.183  18.485 -0.3097 -0.1998  0.2532
 3685G2HFO Head43347  18.896  14.395  18.256  0.1971  0.1596 -0.1904
 3685G2HFO Head43348  18.934  14.400  18.534 -0.2956 -0.0092 -0.2366
 3685G2HFO Head43349  18.708  14.204  18.739  0.1337 -0.2809  0.0903
 3685G2HFO Head43350  18.492  13.768  19.454  0.1117  0.0706  0.1393
 3685G2HFO Head43351  18.645  14.054  19.427 -0.2778 -0.0805  0.0697
 3685G2HFO Head43352  18.912  13.669  19.317 -0.0646  0.1926  0.1662
 3685G2HFO Head43353  18.948  13.885  19.070  0.1289 -0.0608 -0.0521
 3685G2HFO Head43354  18.799  14.201  19.137 -0.3604  0.4080  0.3729
 3685G2HFO link43355  18.645  14.322  18.970 -0.1295  0.4327  0.4493
 3685G2HFO link43356  18.546  14.580  19.001  0.1660 -0.1313  0.2156
 3685G2HFO Tail43357  18.242  14.640  19.130  0.0266  0.1856  0.4199
 3685G2HFO Tail43358  18.280  14.952  19.289 -0.1495  0.0343  0.1768
 3685G2HFO Tail43359  18.232  15.058  19.584  0.2131 -0.2632 -0.0983
 3685G2HFO Tail43360  17.958  15.103  19.932 -0.2998  0.3213 -0.0069
 3685G2HFO Tail43361  18.091  14.738  18.814 -0.1215  0.1091 -0.0856
 3685G2HFO Tail43362  17.835  14.748  18.782  0.3404  0.1576 -0.1521
 3685G2HFO Tail43363  17.751  14.727  18.534 -0.3125  0.0714 -0.0492
 3685G2HFO Tail43364  17.703  14.707  18.284 -0.0374 -0.1843 -0.1657
 3685G2HFO Tail43365  17.630  14.641  18.065  0.0038  0.3551  0.2770
 3686G2HFO Head43366  19.820  18.182  21.175 -0.1653 -0.0969  0.1962
 3686G2HFO Head43367  19.547  18.190  21.168  0.3630 -0.1191 -0.1921
 3686G2HFO Head43368  19.844  17.681  21.453 -0.0727 -0.0618 -0.0945
 3686G2HFO Head43369  19.668  17.765  21.227 -0.3073 -0.0825 -0.1996
 3686G2HFO Head43370  19.388  17.931  21.331 -0.2357  0.3052 -0.0574
 3686G2HFO Head43371  19.487  17.348  21.526 -0.1790  0.1688  0.0085
 3686G2HFO Head43372  19.203  17.462  21.504 -0.3049  0.2619  0.2845
 3686G2HFO Head43373  19.435  17.134  21.004  0.3301 -0.1939 -0.2636
 3686G2HFO Head43374  19.419  17.439  21.116 -0.7109 -0.4226  0.3566
 3686G2HFO Head43375  19.126  17.609  21.213 -0.1026 -0.1642  0.0297
 3686G2HFO link43376  19.152  17.877  21.220 -0.3642 -0.1856 -0.1295
 3686G2HFO link43377  18.931  18.056  21.204  0.1198 -0.0645  0.2663
 3686G2HFO Tail43378  18.682  18.058  21.414  0.1821  0.1149 -0.1077
 3686G2HFO Tail43379  18.606  18.378  21.457  0.0919 -0.0848  0.1847
 3686G2HFO Tail43380  18.325  18.541  21.486 -0.0656  0.0446  0.2151
 3686G2HFO Tail43381  18.176  18.948  21.462 -0.1685  0.2426 -0.2239
 3686G2HFO Tail43382  18.414  17.985  21.174 -0.2924 -0.3669  0.3478
 3686G2HFO Tail43383  18.447  17.963  20.905  0.0438 -0.1143 -0.0468
 3686G2HFO Tail43384  18.225  17.953  20.757 -0.0357 -0.0030 -0.1574
 3686G2HFO Tail43385  18.003  17.944  20.637 -0.0706 -0.0189 -0.2309
 3686G2HFO Tail43386  17.803  17.987  20.514  0.0421 -0.0677  0.0351
 3687G2HFO Head43387  15.514  16.635  21.960  0.2667 -0.0680  0.0488
 3687G2HFO Head43388  15.436  16.796  21.723  0.2161 -0.4489  0.1151
 3687G2HFO Head43389  15.145  17.135  21.246 -0.0656 -0.1635  0.0347
 3687G2HFO Head43390  15.437  16.955  21.278 -0.4456 -0.0971 -0.0957
 3687G2HFO Head43391  15.421  16.626  21.414 -0.4414  0.1967  0.3633
 3687G2HFO Head43392  14.899  16.073  21.023  0.1468  0.4061  0.1152
 3687G2HFO Head43393  14.857  16.368  20.994 -0.0601  0.2174  0.2831
 3687G2HFO Head43394  14.810  17.019  20.970  0.2278  0.0788  0.0116
 3687G2HFO Head43395  14.852  16.820  21.185 -0.2366 -0.2657  0.2025
 3687G2HFO Head43396  15.104  16.569  21.139 -0.2882  0.0054  0.3231
 3687G2HFO link43397  15.226  16.466  21.357  0.2360 -0.4794  0.3413
 3687G2HFO link43398  15.212  16.188  21.428 -0.0614  0.1092  0.1960
 3687G2HFO Tail43399  15.436  16.034  21.620  0.0720  0.1098  0.1701
 3687G2HFO Tail43400  15.681  16.303  21.639 -0.1194 -0.0371 -0.1011
 3687G2HFO Tail43401  15.960  16.415  21.505 -0.5797  0.0527  0.1190
 3687G2HFO Tail43402  16.316  16.669  21.594  0.3506  0.4637  0.2120
 3687G2HFO Tail43403  15.311  16.083  21.937  0.1025  0.1653  0.2346
 3687G2HFO Tail43404  15.066  16.032  21.972 -0.0617  0.2014 -0.0691
 3687G2HFO Tail43405  14.982  15.803  21.898  0.1147  0.0838 -0.0429
 3687G2HFO Tail43406  14.901  15.581  21.800 -0.2199 -0.0438  0.0090
 3687G2HFO Tail43407  14.863  15.401  21.654 -0.1385  0.0463 -0.3093
 3688G2HFO Head43408  15.441  18.932  24.340  0.0474 -0.0251  0.1613
 3688G2HFO Head43409  15.607  18.862  24.617  0.0395  0.1382 -0.3972
 3688G2HFO Head43410  14.935  18.600  24.878  0.0977  0.2056  0.0573
 3688G2HFO Head43411  15.201  18.750  24.819  0.1648  0.0839 -0.0764
 3688G2HFO Head43412  15.482  18.559  24.765  0.2131  0.1215 -0.1047
 3688G2HFO Head43413  14.755  17.872  24.741 -0.0800 -0.1086 -0.0951
 3688G2HFO Head43414  15.073  17.913  24.715 -0.1785 -0.0613  0.2550
 3688G2HFO Head43415  14.923  18.157  25.174  0.0075  0.1496  0.0017
 3688G2HFO Head43416  15.179  18.099  25.075 -0.0746  0.3062  0.1121
 3688G2HFO Head43417  15.229  18.234  24.749  0.1177  0.0809 -0.1561
 3688G2HFO link43418  15.468  18.322  24.661  0.2062  0.3550  0.0946
 3688G2HFO link43419  15.624  18.209  24.458 -0.2521  0.2905  0.2125
 3688G2HFO Tail43420  15.872  17.992  24.507  0.0917  0.0483  0.2046
 3688G2HFO Tail43421  15.848  17.823  24.189 -0.1508 -0.4159  0.0927
 3688G2HFO Tail43422  15.999  17.583  24.027  0.1842  0.1660  0.2314
 3688G2HFO Tail43423  16.218  17.213  24.104 -0.0843 -0.0804  0.1282
 3688G2HFO Tail43424  15.718  17.765  24.706 -0.3093 -0.0078  0.2047
 3688G2HFO Tail43425  15.458  17.753  24.733 -0.2476  0.1965 -0.2578
 3688G2HFO Tail43426  15.375  17.696  24.969 -0.0870 -0.2970 -0.2041
 3688G2HFO Tail43427  15.327  17.656  25.214  0.0689 -0.1855  0.0236
 3688G2HFO Tail43428  15.322  17.612  25.438 -0.4333 -0.1916 -0.1652
 3689G2HFO Head43429  16.379  21.308  21.507 -0.1833 -0.0357  0.0199
 3689G2HFO Head43430  16.546  21.027  21.453 -0.2186 -0.2664 -0.1125
 3689G2HFO Head43431  16.349  21.083  22.035 -0.0985  0.0307 -0.1577
 3689G2HFO Head43432  16.595  21.143  21.867 -0.0163 -0.1986 -0.0029
 3689G2HFO Head43433  16.765  20.897  21.675  0.2418  0.2821 -0.4076
 3689G2HFO Head43434  17.419  21.587  21.583  0.0260 -0.2588  0.0074
 3689G2HFO Head43435  17.226  21.356  21.705 -0.2666 -0.3851  0.0461
 3689G2HFO Head43436  16.908  21.674  21.743  0.0895 -0.0102  0.2570
 3689G2HFO Head43437  16.869  21.409  21.512  0.0182  0.1229 -0.4525
 3689G2HFO Head43438  17.088  21.112  21.504  0.2721  0.0144  0.0374
 3689G2HFO link43439  17.014  20.878  21.603 -0.0217  0.2223 -0.5679
 3689G2HFO link43440  17.144  20.631  21.553 -0.0312  0.2551 -0.1266
 3689G2HFO Tail43441  17.436  20.498  21.657  0.0875 -0.6029  0.4907
 3689G2HFO Tail43442  17.464  20.181  21.482  0.1686 -0.3486  0.0914
 3689G2HFO Tail43443  17.633  19.927  21.550  0.1910  0.3063  0.1625
 3689G2HFO Tail43444  17.601  19.554  21.782  0.1141 -0.1462  0.2470
 3689G2HFO Tail43445  17.616  20.710  21.471 -0.3690 -0.3564  0.1232
 3689G2HFO Tail43446  17.875  20.715  21.405 -0.1569  0.2043 -0.2134
 3689G2HFO Tail43447  18.047  20.838  21.547 -0.0961  0.1923 -0.1383
 3689G2HFO Tail43448  18.238  20.979  21.645 -0.0012 -0.0431 -0.1310
 3689G2HFO Tail43449  18.407  21.057  21.787  0.1247 -0.3431  0.3197
 3690G2HFO Head43450  20.289  18.041  20.088  0.1890  0.4069 -0.3877
 3690G2HFO Head43451  20.376  18.015  19.773 -0.1108  0.5298 -0.0847
 3690G2HFO Head43452  20.372  17.545  19.932  0.1496 -0.0275 -0.0271
 3690G2HFO Head43453  20.300  17.533  19.679  0.0805 -0.3601 -0.1035
 3690G2HFO Head43454  20.194  17.829  19.522 -0.3324 -0.0401 -0.1414
 3690G2HFO Head43455  20.986  17.768  19.447 -0.2302  0.0366  0.0537
 3690G2HFO Head43456  20.701  17.724  19.478  0.0380 -0.0151 -0.3934
 3690G2HFO Head43457  20.771  18.170  19.601 -0.3034 -0.1610  0.0507
 3690G2HFO Head43458  20.678  18.139  19.324  0.0320 -0.0872  0.2634
 3690G2HFO Head43459  20.497  17.852  19.232  0.4475  0.0337 -0.3005
 3690G2HFO link43460  20.228  17.865  19.273 -0.3241 -0.2670 -0.1169
 3690G2HFO link43461  20.041  17.769  19.082  0.0877 -0.0275  0.5171
 3690G2HFO Tail43462  19.723  17.726  19.119 -0.1086 -0.1027 -0.2731
 3690G2HFO Tail43463  19.617  17.557  18.819  0.0620 -0.1998 -0.1071
 3690G2HFO Tail43464  19.371  17.423  18.681  0.2971 -0.2877  0.1867
 3690G2HFO Tail43465  19.211  17.039  18.609 -0.2636  0.1362  0.0984
 3690G2HFO Tail43466  19.735  17.484  19.346 -0.0365  0.1883  0.0490
 3690G2HFO Tail43467  19.903  17.275  19.320  0.0553 -0.0752  0.0005
 3690G2HFO Tail43468  20.153  17.324  19.270 -0.0569  0.0166 -0.0820
 3690G2HFO Tail43469  20.395  17.378  19.201  0.0091 -0.1394 -0.0263
 3690G2HFO Tail43470  20.616  17.366  19.131  0.2036  0.0099  0.2784
 3691G2HFO Head43471  19.384  13.641  20.274 -0.0681 -0.0411  0.0503
 3691G2HFO Head43472  19.511  13.875  20.320 -0.0905 -0.2716  0.3107
 3691G2HFO Head43473  20.010  13.520  19.972 -0.2775 -0.1442 -0.3233
 3691G2HFO Head43474  19.815  13.602  20.153  0.1134  0.0458 -0.1073
 3691G2HFO Head43475  19.869  13.907  20.307  0.1921 -0.2774 -0.1496
 3691G2HFO Head43476  20.624  14.043  20.464  0.4600 -0.0548 -0.1161
 3691G2HFO Head43477  20.518  14.106  20.200 -0.2509  0.2802 -0.3744
 3691G2HFO Head43478  20.592  13.624  20.144 -0.2539  0.2777  0.2483
 3691G2HFO Head43479  20.322  13.698  20.199  0.1318 -0.0354  0.3079
 3691G2HFO Head43480  20.209  14.009  20.075 -0.4802 -0.1122 -0.9898
 3691G2HFO link43481  19.978  14.105  20.180 -0.4293  0.1291 -0.0614
 3691G2HFO link43482  19.823  14.294  20.036  0.0234  0.2246 -0.2024
 3691G2HFO Tail43483  19.764  14.606  20.138  0.4987  0.2604 -0.1474
 3691G2HFO Tail43484  19.689  14.741  19.826  0.2922 -0.0347 -0.2099
 3691G2HFO Tail43485  19.554  15.025  19.734 -0.2255 -0.0372  0.1371
 3691G2HFO Tail43486  19.616  15.345  19.462  0.5615 -0.0871 -0.0541
 3691G2HFO Tail43487  19.452  14.574  20.259  0.1509  0.2919 -0.2763
 3691G2HFO Tail43488  19.403  14.357  20.403 -0.5388 -0.0509  0.0430
 3691G2HFO Tail43489  19.584  14.274  20.557  0.1229 -0.0020  0.0211
 3691G2HFO Tail43490  19.722  14.154  20.725 -0.0062  0.0590 -0.1370
 3691G2HFO Tail43491  19.855  13.995  20.833 -0.0529  0.2175  0.2687
 3692G2HFO Head43492  17.521  13.271  23.566 -0.5399  0.4269  0.2523
 3692G2HFO Head43493  17.270  13.450  23.457 -0.3158  0.5679  0.2715
 3692G2HFO Head43494  17.962  13.678  23.268 -0.3047  0.1002 -0.0658
 3692G2HFO Head43495  17.645  13.564  23.255  0.1289 -0.2846  0.0111
 3692G2HFO Head43496  17.349  13.743  23.301 -0.0054 -0.0555  0.2132
 3692G2HFO Head43497  17.872  14.200  22.880 -0.1536  0.2705  0.0930
 3692G2HFO Head43498  17.757  14.006  23.104 -0.0172 -0.3378  0.1737
 3692G2HFO Head43499  17.715  14.368  23.750  0.1315  0.0636  0.1140
 3692G2HFO Head43500  17.713  14.329  23.446  0.0123  0.1116  0.1593
 3692G2HFO Head43501  17.503  14.117  23.299 -0.0115 -0.3460  0.2110
 3692G2HFO link43502  17.352  13.972  23.429  0.4283 -0.1915 -0.2194
 3692G2HFO link43503  17.263  13.997  23.700  0.2408  0.0551  0.1183
 3692G2HFO Tail43504  17.292  14.285  23.868  0.4381 -0.1573  0.2596
 3692G2HFO Tail43505  17.025  14.488  23.729 -0.0030  0.0469 -0.0268
 3692G2HFO Tail43506  16.862  14.726  23.865 -0.0427  0.5219 -0.0204
 3692G2HFO Tail43507  16.540  14.745  24.155 -0.3277 -0.0312  0.2767
 3692G2HFO Tail43508  17.134  14.214  24.172 -0.0836  0.0199  0.0307
 3692G2HFO Tail43509  17.135  14.405  24.344 -0.2145  0.0494  0.2447
 3692G2HFO Tail43510  16.914  14.471  24.471 -0.0626  0.0979  0.0932
 3692G2HFO Tail43511  16.729  14.589  24.586 -0.1401 -0.0811  0.3366
 3692G2HFO Tail43512  16.590  14.677  24.751 -0.4314 -0.0208  0.4811
 3693G2HFO Head43513  14.190  16.475  24.656  0.1728  0.2337  0.0922
 3693G2HFO Head43514  14.384  16.280  24.624 -0.1110 -0.2273  0.1203
 3693G2HFO Head43515  14.465  15.818  24.482 -0.0814 -0.2190  0.1211
 3693G2HFO Head43516  14.721  16.029  24.521  0.2328  0.2416  0.2162
 3693G2HFO Head43517  14.697  16.365  24.597 -0.3680 -0.1888  0.2216
 3693G2HFO Head43518  14.858  16.478  23.758  0.2218 -0.0944  0.0899
 3693G2HFO Head43519  14.577  16.527  23.913  0.0575  0.1014  0.5457
 3693G2HFO Head43520  14.430  16.122  23.927  0.2468  0.2107  0.3193
 3693G2HFO Head43521  14.391  16.236  24.216  0.0525  0.0603  0.1150
 3693G2HFO Head43522  14.567  16.537  24.276 -0.0836  0.1723  0.0080
 3693G2HFO link43523  14.788  16.534  24.418 -0.0355  0.5427  0.0938
 3693G2HFO link43524  15.052  16.510  24.310  0.0750  0.3294 -0.2104
 3693G2HFO Tail43525  15.291  16.295  24.387 -0.2825 -0.2373 -0.1300
 3693G2HFO Tail43526  15.524  16.498  24.537  0.2410  0.1270  0.3725
 3693G2HFO Tail43527  15.553  16.552  24.837 -0.2036 -0.3685 -0.0642
 3693G2HFO Tail43528  15.766  16.378  25.163 -0.0426 -0.0003  0.0037
 3693G2HFO Tail43529  15.126  16.156  24.667 -0.3010  0.0098  0.2368
 3693G2HFO Tail43530  15.233  16.162  24.913  0.1314  0.2185  0.2069
 3693G2HFO Tail43531  15.141  16.020  25.104 -0.0630  0.0709 -0.0704
 3693G2HFO Tail43532  15.039  15.860  25.278 -0.0006 -0.1594  0.0414
 3693G2HFO Tail43533  14.992  15.705  25.463 -0.0491 -0.2394 -0.0446
 3694G2HFO Head43534  18.477  14.459  24.800  0.0453 -0.2480  0.0810
 3694G2HFO Head43535  18.417  14.705  24.594 -0.0583 -0.3187  0.0954
 3694G2HFO Head43536  18.262  14.155  24.469  0.1321 -0.0733 -0.2082
 3694G2HFO Head43537  18.169  14.439  24.371 -0.1195  0.2405 -0.2132
 3694G2HFO Head43538  18.409  14.655  24.261  0.1348 -0.0297  0.1423
 3694G2HFO Head43539  19.103  14.875  24.017  0.3856 -0.1242 -0.1124
 3694G2HFO Head43540  18.876  14.918  24.223 -0.2526 -0.2553  0.5136
 3694G2HFO Head43541  18.926  15.253  24.521 -0.0112  0.0760  0.0301
 3694G2HFO Head43542  18.643  15.212  24.433 -0.0829  0.2609  0.2527
 3694G2HFO Head43543  18.564  15.021  24.156 -0.2714  0.1049  0.0658
 3694G2HFO link43544  18.356  14.878  24.129 -0.5343 -0.1535  0.6646
 3694G2HFO link43545  18.203  14.892  23.893  0.2397 -0.1239  0.1507
 3694G2HFO Tail43546  17.887  14.812  23.849  0.3308 -0.3986 -0.1507
 3694G2HFO Tail43547  17.823  14.679  24.161 -0.1677  0.0794  0.0107
 3694G2HFO Tail43548  17.663  14.414  24.252 -0.0850  0.0478  0.4628
 3694G2HFO Tail43549  17.602  14.008  24.100 -0.0165  0.0920  0.1478
 3694G2HFO Tail43550  17.727  15.135  23.906  0.0870  0.0336  0.2673
 3694G2HFO Tail43551  17.465  15.166  23.883 -0.0814 -0.1568  0.0816
 3694G2HFO Tail43552  17.369  15.351  23.727  0.0741 -0.0966  0.1694
 3694G2HFO Tail43553  17.280  15.530  23.561  0.2466  0.0888 -0.1589
 3694G2HFO Tail43554  17.226  15.669  23.383  0.0777 -0.1562 -0.0249
 3695G2HFO Head43555  15.156  16.244  23.381 -0.2650  0.2242  0.0732
 3695G2HFO Head43556  14.942  16.463  23.271 -0.2553 -0.1205  0.3028
 3695G2HFO Head43557  14.636  16.788  23.358 -0.1606 -0.0903  0.1611
 3695G2HFO Head43558  14.820  16.902  23.194  0.0748 -0.0569 -0.2127
 3695G2HFO Head43559  15.017  16.679  23.020 -0.2953  0.4258 -0.1410
 3695G2HFO Head43560  15.090  16.896  22.069 -0.0313  0.1414 -0.1671
 3695G2HFO Head43561  14.910  16.790  22.308 -0.0332 -0.1860 -0.4597
 3695G2HFO Head43562  15.451  16.451  22.416 -0.1362  0.1574  0.1721
 3695G2HFO Head43563  15.297  16.714  22.408  0.2010 -0.4497 -0.1460
 3695G2HFO Head43564  15.032  16.770  22.625 -0.1576 -0.0485 -0.0764
 3695G2HFO link43565  14.971  16.600  22.788  0.2668  0.4978  0.2997
 3695G2HFO link43566  14.984  16.327  22.713  0.1021 -0.0802  0.6165
 3695G2HFO Tail43567  15.272  16.160  22.706  0.0972  0.0125 -0.0165
 3695G2HFO Tail43568  15.426  16.315  22.970  0.1900  0.1715  0.1357
 3695G2HFO Tail43569  15.607  16.215  23.215 -0.2315  0.1117 -0.2429
 3695G2HFO Tail43570  15.963  15.961  23.292  0.1448  0.4056  0.2863
 3695G2HFO Tail43571  15.187  15.855  22.878  0.0403  0.1097 -0.2602
 3695G2HFO Tail43572  15.228  15.864  23.132  0.2639 -0.1652 -0.0089
 3695G2HFO Tail43573  15.176  15.643  23.258 -0.0041  0.4319 -0.0030
 3695G2HFO Tail43574  15.105  15.446  23.404 -0.0143  0.1026 -0.0926
 3695G2HFO Tail43575  15.056  15.237  23.492 -0.1590  0.0891  0.0396
 3696G2HFO Head43576  15.299  13.625  20.126 -0.0421 -0.2475  0.4795
 3696G2HFO Head43577  15.578  13.806  20.136  0.0839 -0.5705  0.0104
 3696G2HFO Head43578  15.776  13.213  20.221  0.3616  0.2100 -0.1261
 3696G2HFO Head43579  15.635  13.460  20.386  0.1533  0.0258  0.1093
 3696G2HFO Head43580  15.805  13.755  20.392 -0.3288  0.0253 -0.0499
 3696G2HFO Head43581  15.197  13.911  21.054 -0.3353  0.3109  0.1313
 3696G2HFO Head43582  15.349  13.969  20.797  0.2935  0.1380  0.0286
 3696G2HFO Head43583  15.214  13.559  20.580  0.2101 -0.0887  0.2320
 3696G2HFO Head43584  15.475  13.563  20.757  0.2491 -0.1239 -0.0512
 3696G2HFO Head43585  15.667  13.857  20.777 -0.1289  0.1803  0.4751
 3696G2HFO link43586  15.843  13.931  20.582 -0.1096  0.0436 -0.4112
 3696G2HFO link43587  16.087  14.069  20.619 -0.1163 -0.1828  0.1481
 3696G2HFO Tail43588  16.383  13.968  20.536  0.0776  0.2737 -0.0767
 3696G2HFO Tail43589  16.578  14.232  20.677  0.0351  0.1895 -0.0984
 3696G2HFO Tail43590  16.758  14.269  20.941 -0.3793 -0.3498  0.0845
 3696G2HFO Tail43591  17.074  14.552  21.056  0.0303 -0.0590  0.4757
 3696G2HFO Tail43592  16.363  13.995  20.189 -0.2181 -0.0846 -0.5197
 3696G2HFO Tail43593  16.525  14.151  20.066  0.1171 -0.1638  0.0606
 3696G2HFO Tail43594  16.776  14.130  20.119  0.1785  0.1451  0.1261
 3696G2HFO Tail43595  17.018  14.069  20.188  0.0168 -0.1026  0.3252
 3696G2HFO Tail43596  17.227  14.033  20.297  0.1536  0.0756 -0.3283
 3697G2HFO Head43597  15.450  20.283  22.561  0.4452 -0.0969  0.2156
 3697G2HFO Head43598  15.732  20.215  22.439  0.5946  0.0547 -0.2450
 3697G2HFO Head43599  15.603  20.866  22.170  0.2738  0.0064 -0.3188
 3697G2HFO Head43600  15.746  20.667  22.342  0.1122 -0.0285  0.0089
 3697G2HFO Head43601  15.873  20.384  22.175 -0.4778 -0.3534 -0.3486
 3697G2HFO Head43602  15.631  19.990  21.661  0.0645 -0.1907 -0.1353
 3697G2HFO Head43603  15.937  20.106  21.668  0.1257  0.1958  0.2121
 3697G2HFO Head43604  15.902  19.726  22.331  0.2094 -0.2099  0.2776
 3697G2HFO Head43605  15.890  19.891  22.034  0.2508  0.1287 -0.0615
 3697G2HFO Head43606  16.110  20.141  21.977  0.2891  0.3111  0.1968
 3697G2HFO link43607  16.106  20.374  22.082 -0.2593  0.1438  0.0000
 3697G2HFO link43608  16.343  20.513  22.176  0.4962  0.2505 -0.3333
 3697G2HFO Tail43609  16.561  20.667  21.992 -0.2135 -0.0752 -0.0335
 3697G2HFO Tail43610  16.827  20.459  21.967 -0.1555 -0.0139 -0.0584
 3697G2HFO Tail43611  17.127  20.451  22.052  0.2803  0.1748 -0.0703
 3697G2HFO Tail43612  17.360  20.540  22.407 -0.0943 -0.1873 -0.1804
 3697G2HFO Tail43613  16.407  20.648  21.691  0.4391  0.4138 -0.3285
 3697G2HFO Tail43614  16.366  20.425  21.570  0.3369  0.0149  0.1787
 3697G2HFO Tail43615  16.423  20.184  21.654 -0.1545  0.4394  0.2081
 3697G2HFO Tail43616  16.520  19.977  21.769  0.0824  0.1440 -0.2574
 3697G2HFO Tail43617  16.659  19.814  21.874  0.3580  0.0381  0.0114
 3698G2HFO Head43618  18.222  16.944  23.228  0.0441  0.1786 -0.1524
 3698G2HFO Head43619  18.182  17.232  23.409 -0.0133 -0.0193  0.4564
 3698G2HFO Head43620  18.782  17.353  22.981  0.2600 -0.1539  0.4119
 3698G2HFO Head43621  18.477  17.322  23.056  0.0847 -0.1462  0.2750
 3698G2HFO Head43622  18.287  17.537  23.280 -0.0756  0.1113  0.0095
 3698G2HFO Head43623  19.066  17.401  23.758 -0.3061  0.0159  0.0501
 3698G2HFO Head43624  18.852  17.617  23.742 -0.2012 -0.2129  0.4851
 3698G2HFO Head43625  18.659  17.093  23.626 -0.0583  0.2325 -0.0595
 3698G2HFO Head43626  18.808  17.319  23.412 -0.2090  0.8240 -0.0773
 3698G2HFO Head43627  18.685  17.643  23.434 -0.4912  0.2514  0.2215
 3698G2HFO link43628  18.421  17.709  23.444  0.2985  0.2217  0.4008
 3698G2HFO link43629  18.309  17.957  23.498 -0.1751  0.1134 -0.3905
 3698G2HFO Tail43630  18.374  18.244  23.339  0.0538  0.0345  0.0779
 3698G2HFO Tail43631  18.053  18.372  23.286  0.1113  0.3290  0.0210
 3698G2HFO Tail43632  17.951  18.605  23.122 -0.2639 -0.0121 -0.1273
 3698G2HFO Tail43633  18.042  18.862  22.784  0.0441 -0.0375  0.4721
 3698G2HFO Tail43634  18.450  18.450  23.606  0.1631  0.0851  0.0357
 3698G2HFO Tail43635  18.572  18.673  23.561  0.4508  0.0108 -0.1884
 3698G2HFO Tail43636  18.762  18.726  23.730  0.1600 -0.1072  0.0661
 3698G2HFO Tail43637  18.941  18.816  23.888  0.2139 -0.1176 -0.1604
 3698G2HFO Tail43638  19.136  18.908  23.979  0.2351 -0.1839  0.0670
 3699G2HFO Head43639  17.252  20.858  25.964 -0.0756 -0.1477  0.1642
 3699G2HFO Head43640  17.100  20.670  26.196  0.0108 -0.1836 -0.0525
 3699G2HFO Head43641  16.594  20.214  26.430  0.0147 -0.4117  0.5167
 3699G2HFO Head43642  16.741  20.431  26.250 -0.1422 -0.2498  0.2927
 3699G2HFO Head43643  17.034  20.346  26.087  0.1295 -0.2679 -0.0176
 3699G2HFO Head43644  16.895  20.488  26.894 -0.0715  0.1459 -0.1452
 3699G2HFO Head43645  17.038  20.469  26.575  0.0924 -0.3592 -0.0134
 3699G2HFO Head43646  16.849  19.688  26.589 -0.1543  0.1548  0.0103
 3699G2HFO Head43647  16.916  20.033  26.616  0.1195 -0.0785  0.3536
 3699G2HFO Head43648  17.169  20.173  26.430 -0.3122 -0.2357 -0.1692
 3699G2HFO link43649  17.176  20.144  26.176 -0.0306  0.0280  0.0246
 3699G2HFO link43650  17.315  19.969  26.018 -0.1326 -0.0235  0.5581
 3699G2HFO Tail43651  17.355  19.651  26.066 -0.3715 -0.1657  0.2361
 3699G2HFO Tail43652  17.287  19.614  26.400 -0.1212  0.0386  0.1345
 3699G2HFO Tail43653  17.298  19.743  26.664  0.4513  0.0126  0.0252
 3699G2HFO Tail43654  17.550  19.729  27.011  0.1614 -0.0681 -0.2821
 3699G2HFO Tail43655  17.698  19.667  26.075 -0.0161  0.0357 -0.0939
 3699G2HFO Tail43656  17.831  19.889  26.089  0.3993 -0.0582  0.3005
 3699G2HFO Tail43657  18.072  19.874  26.205  0.1444 -0.0767  0.3306
 3699G2HFO Tail43658  18.317  19.891  26.295 -0.1091 -0.0764 -0.1798
 3699G2HFO Tail43659  18.541  19.962  26.341 -0.1305  0.0651  0.1093
 3700G2HFO Head43660  15.277  12.816  25.094  0.0630 -0.2879  0.0389
 3700G2HFO Head43661  15.457  12.987  25.220  0.1017 -0.0852 -0.3939
 3700G2HFO Head43662  15.981  12.540  25.425  0.3426 -0.0705  0.0553
 3700G2HFO Head43663  15.857  12.831  25.454 -0.4748 -0.1027  0.0393
 3700G2HFO Head43664  15.799  12.991  25.145 -0.3075  0.1425 -0.3608
 3700G2HFO Head43665  16.290  12.711  24.944  0.0812  0.1120 -0.3139
 3700G2HFO Head43666  16.320  12.850  25.206  0.2896 -0.3383 -0.3810
 3700G2HFO Head43667  16.590  13.397  24.879 -0.0318 -0.1758 -0.2344
 3700G2HFO Head43668  16.471  13.200  25.110  0.6502 -0.1328  0.1784
 3700G2HFO Head43669  16.152  13.154  25.224 -0.1423 -0.1329 -0.3665
 3700G2HFO link43670  15.925  13.211  25.106 -0.1182  0.4249 -0.2633
 3700G2HFO link43671  15.919  13.336  24.850  0.1691  0.2202 -0.1599
 3700G2HFO Tail43672  16.034  13.644  24.804  0.2659  0.1721  0.0390
 3700G2HFO Tail43673  16.180  13.584  24.495  0.4528 -0.2808 -0.0331
 3700G2HFO Tail43674  16.357  13.760  24.290  0.0055 -0.4831  0.0797
 3700G2HFO Tail43675  16.636  14.082  24.265 -0.1219  0.1523 -0.0542
 3700G2HFO Tail43676  15.728  13.781  24.716 -0.2496 -0.3030  0.1568
 3700G2HFO Tail43677  15.656  14.036  24.734  0.0015 -0.0604 -0.0704
 3700G2HFO Tail43678  15.457  14.097  24.561 -0.1372 -0.3146 -0.0251
 3700G2HFO Tail43679  15.238  14.125  24.433  0.1622 -0.3123  0.0445
 3700G2HFO Tail43680  15.065  14.169  24.267  0.0263  0.1725 -0.0040
 3701G2HFO Head43681  16.069  17.679  22.861  0.2436  0.3039  0.4072
 3701G2HFO Head43682  16.121  17.356  22.961  0.0326 -0.3293 -0.1701
 3701G2HFO Head43683  16.224  17.342  22.223 -0.1055  0.3220 -0.2867
 3701G2HFO Head43684  16.255  17.404  22.549 -0.2650  0.1427 -0.2266
 3701G2HFO Head43685  16.358  17.167  22.791 -0.1823 -0.5011 -0.0381
 3701G2HFO Head43686  16.856  17.125  22.154 -0.3671  0.2638  0.0802
 3701G2HFO Head43687  16.649  17.178  22.356  0.2816  0.0592 -0.1162
 3701G2HFO Head43688  16.716  17.626  22.247 -0.0842 -0.0277 -0.2684
 3701G2HFO Head43689  16.649  17.584  22.517  0.0311  0.1184 -0.1894
 3701G2HFO Head43690  16.756  17.284  22.675  0.1336  0.4535  0.0963
 3701G2HFO link43691  16.598  17.154  22.889 -0.3634 -0.2530 -0.2056
 3701G2HFO link43692  16.666  16.980  23.095 -0.4052 -0.1451 -0.0749
 3701G2HFO Tail43693  16.504  16.987  23.382 -0.1892  0.4074  0.1099
 3701G2HFO Tail43694  16.262  16.762  23.295  0.1801 -0.0838 -0.1197
 3701G2HFO Tail43695  16.143  16.487  23.414 -0.0473 -0.1684  0.0039
 3701G2HFO Tail43696  16.145  16.259  23.786 -0.0606  0.1775 -0.1343
 3701G2HFO Tail43697  16.296  17.272  23.341 -0.1360  0.2857 -0.2405
 3701G2HFO Tail43698  16.397  17.495  23.252 -0.1117  0.4661  0.1677
 3701G2HFO Tail43699  16.637  17.491  23.163 -0.0722 -0.1931 -0.1242
 3701G2HFO Tail43700  16.862  17.494  23.054 -0.3390  0.1897 -0.0317
 3701G2HFO Tail43701  17.045  17.533  22.907 -0.0203  0.4093 -0.1488
 3702G2HFO Head43702  14.852  17.649  23.291 -0.4417  0.1348  0.1414
 3702G2HFO Head43703  14.991  17.831  23.476 -0.1674 -0.2195 -0.0727
 3702G2HFO Head43704  14.635  17.835  23.772 -0.2558 -0.0024 -0.4340
 3702G2HFO Head43705  14.936  17.853  23.905 -0.2385 -0.0178 -0.1335
 3702G2HFO Head43706  15.194  17.718  23.735 -0.3954  0.3976  0.0552
 3702G2HFO Head43707  15.206  16.819  23.411 -0.2090  0.0609 -0.3531
 3702G2HFO Head43708  15.389  17.022  23.525 -0.0023 -0.0467 -0.1912
 3702G2HFO Head43709  15.257  17.142  23.024 -0.0991 -0.3555  0.2344
 3702G2HFO Head43710  15.107  17.252  23.259  0.1286 -0.5832 -0.2632
 3702G2HFO Head43711  15.295  17.361  23.522  0.2466 -0.1605 -0.0112
 3702G2HFO link43712  15.221  17.455  23.757 -0.3999 -0.5417  0.0039
 3702G2HFO link43713  15.169  17.288  23.969  0.0164  0.2188 -0.2583
 3702G2HFO Tail43714  15.410  17.097  24.099  0.1476 -0.0032 -0.2573
 3702G2HFO Tail43715  15.563  17.365  24.271 -0.1421  0.2757  0.0595
 3702G2HFO Tail43716  15.827  17.400  24.451  0.0308 -0.1725  0.1737
 3702G2HFO Tail43717  16.233  17.579  24.416  0.4063  0.3384  0.2476
 3702G2HFO Tail43718  15.218  16.972  24.356 -0.2037 -0.0023  0.1709
 3702G2HFO Tail43719  14.979  17.061  24.346 -0.2146 -0.2361 -0.2964
 3702G2HFO Tail43720  14.798  16.930  24.492 -0.0616 -0.0774  0.0220
 3702G2HFO Tail43721  14.660  16.801  24.663  0.1188  0.1975 -0.0217
 3702G2HFO Tail43722  14.572  16.719  24.862 -0.0970  0.0038  0.1881
 3703G2HFO Head43723  17.761  17.998  24.424  0.0220 -0.1070  0.1373
 3703G2HFO Head43724  17.677  17.781  24.275 -0.0598 -0.1619  0.0767
 3703G2HFO Head43725  18.288  17.443  24.451  0.0833  0.0448 -0.0420
 3703G2HFO Head43726  18.037  17.552  24.311 -0.1120  0.0139 -0.1635
 3703G2HFO Head43727  17.705  17.470  24.421 -0.4204 -0.0810  0.0038
 3703G2HFO Head43728  18.273  17.018  24.870 -0.0513 -0.1035 -0.3390
 3703G2HFO Head43729  18.149  17.272  24.837  0.1831 -0.1404  0.0082
 3703G2HFO Head43730  18.028  17.291  25.258  0.0632 -0.0356  0.1738
 3703G2HFO Head43731  17.797  17.263  25.110  0.0975 -0.0531 -0.2037
 3703G2HFO Head43732  17.803  17.262  24.763 -0.2729  0.2330 -0.1209
 3703G2HFO link43733  17.663  17.436  24.669  0.2354 -0.0483  0.1362
 3703G2HFO link43734  17.478  17.572  24.841 -0.2557  0.2359  0.1198
 3703G2HFO Tail43735  17.599  17.746  25.109  0.1463 -0.0656  0.1454
 3703G2HFO Tail43736  17.561  18.083  24.997  0.1463 -0.0652  0.0409
 3703G2HFO Tail43737  17.307  18.280  25.002  0.0689  0.3560  0.0580
 3703G2HFO Tail43738  16.957  18.382  25.252 -0.0229 -0.0835 -0.4229
 3703G2HFO Tail43739  17.303  17.741  25.289  0.0838 -0.2653 -0.1509
 3703G2HFO Tail43740  17.223  17.956  25.429  0.4433  0.0239 -0.0867
 3703G2HFO Tail43741  16.989  17.914  25.553 -0.0723 -0.2304  0.0209
 3703G2HFO Tail43742  16.782  17.889  25.707  0.0018 -0.2310 -0.0190
 3703G2HFO Tail43743  16.639  17.857  25.896 -0.2105 -0.2463  0.1602
 3704G2HFO Head43744  16.678  19.448  26.142 -0.0823  0.1128 -0.2243
 3704G2HFO Head43745  16.552  19.183  26.202 -0.3430 -0.5695  0.0160
 3704G2HFO Head43746  16.315  19.418  26.485  0.3958  0.0804  0.0837
 3704G2HFO Head43747  16.121  19.283  26.261 -0.1922  0.1618  0.0716
 3704G2HFO Head43748  16.285  19.075  26.021  0.1435  0.1806  0.1373
 3704G2HFO Head43749  16.365  18.927  26.801  0.0441  0.2813  0.1383
 3704G2HFO Head43750  16.214  18.956  26.530  0.2229 -0.2526  0.2050
 3704G2HFO Head43751  15.947  18.548  26.764  0.0977 -0.0671 -0.0435
 3704G2HFO Head43752  15.945  18.602  26.444 -0.2095  0.0513  0.1015
 3704G2HFO Head43753  16.228  18.732  26.269 -0.0052  0.0934 -0.1375
 3704G2HFO link43754  16.215  18.820  26.019 -0.1053  0.0259  0.0300
 3704G2HFO link43755  16.239  18.651  25.794  0.0758 -0.2915  0.0181
 3704G2HFO Tail43756  16.441  18.787  25.557  0.2900  0.0418 -0.2744
 3704G2HFO Tail43757  16.302  18.627  25.290  0.3222  0.0116  0.0414
 3704G2HFO Tail43758  16.145  18.379  25.238  0.0870  0.0572  0.0745
 3704G2HFO Tail43759  16.146  17.972  25.102  0.1483  0.4467 -0.2569
 3704G2HFO Tail43760  16.286  19.086  25.480 -0.0212  0.0936  0.0600
 3704G2HFO Tail43761  16.421  19.298  25.419 -0.1464  0.1905 -0.2711
 3704G2HFO Tail43762  16.679  19.281  25.373  0.4820  0.1424  0.1077
 3704G2HFO Tail43763  16.923  19.256  25.310  0.3464  0.0473 -0.1283
 3704G2HFO Tail43764  17.126  19.210  25.210  0.1570  0.0704  0.2020
 3705G2HFO Head43765  16.628  13.919  19.726  0.3686 -0.0512  0.1171
 3705G2HFO Head43766  16.915  13.845  19.762  0.3334  0.3496 -0.0553
 3705G2HFO Head43767  17.079  13.847  19.235  0.3660 -0.3055 -0.0948
 3705G2HFO Head43768  17.069  14.104  19.435  0.5355 -0.0519  0.2846
 3705G2HFO Head43769  17.174  14.064  19.763  0.0271 -0.4133 -0.1863
 3705G2HFO Head43770  17.793  13.517  19.959 -0.0093  0.0906  0.1353
 3705G2HFO Head43771  17.598  13.526  19.758  0.0967 -0.1383 -0.3506
 3705G2HFO Head43772  18.017  13.996  19.635  0.5037  0.2402 -0.1026
 3705G2HFO Head43773  17.836  13.825  19.557 -0.2586  0.1764  0.0348
 3705G2HFO Head43774  17.489  13.826  19.626 -0.0498 -0.1224 -0.1761
 3705G2HFO link43775  17.432  13.998  19.809  0.2013  0.1892 -0.0322
 3705G2HFO link43776  17.639  14.163  19.929  0.2556 -0.0185 -0.4141
 3705G2HFO Tail43777  17.699  14.480  19.836 -0.3257 -0.0162  0.3812
 3705G2HFO Tail43778  17.681  14.681  20.137  0.0062 -0.1360 -0.1023
 3705G2HFO Tail43779  17.425  14.824  20.263 -0.3209 -0.1411  0.0138
 3705G2HFO Tail43780  17.235  14.851  20.662  0.2180  0.3385 -0.1582
 3705G2HFO Tail43781  18.046  14.473  19.803 -0.3751  0.3370  0.0276
 3705G2HFO Tail43782  18.177  14.600  19.591  0.2240 -0.0419 -0.1797
 3705G2HFO Tail43783  18.435  14.548  19.570  0.1402 -0.1750 -0.1271
 3705G2HFO Tail43784  18.676  14.480  19.574 -0.2215  0.2359  0.0116
 3705G2HFO Tail43785  18.907  14.464  19.563  0.0219 -0.2092  0.0783
 3706G2HFO Head43786  17.007  17.362  21.388  0.1551  0.0024  0.1352
 3706G2HFO Head43787  16.796  17.327  21.092 -0.3628  0.1247  0.0817
 3706G2HFO Head43788  17.512  17.384  20.912 -0.1106  0.0725  0.0385
 3706G2HFO Head43789  17.202  17.421  20.961 -0.4426 -0.0460 -0.2216
 3706G2HFO Head43790  16.963  17.243  20.786 -0.1410  0.2109 -0.1867
 3706G2HFO Head43791  16.407  17.198  20.983  0.2854 -0.2088  0.0030
 3706G2HFO Head43792  16.499  17.019  20.739 -0.0270 -0.0140 -0.0449
 3706G2HFO Head43793  16.780  16.690  21.306  0.0112 -0.5579  0.0152
 3706G2HFO Head43794  16.677  16.850  21.106 -0.0956 -0.2139 -0.1420
 3706G2HFO Head43795  16.806  16.844  20.779 -0.1495  0.4476  0.1595
 3706G2HFO link43796  17.025  16.990  20.716  0.5382 -0.0861  0.2992
 3706G2HFO link43797  17.272  16.886  20.704 -0.2515  0.4757  0.2251
 3706G2HFO Tail43798  17.366  16.603  20.830 -0.4265 -0.1446  0.0498
 3706G2HFO Tail43799  17.113  16.392  20.714 -0.0599 -0.1616  0.1787
 3706G2HFO Tail43800  17.068  16.071  20.750  0.2376  0.1031  0.1933
 3706G2HFO Tail43801  16.821  15.758  20.939  0.4783  0.0355 -0.1391
 3706G2HFO Tail43802  17.606  16.542  20.587  0.0745 -0.0050  0.2172
 3706G2HFO Tail43803  17.838  16.665  20.549 -0.0611 -0.0651  0.1982
 3706G2HFO Tail43804  18.028  16.642  20.725  0.4638  0.1581 -0.1687
 3706G2HFO Tail43805  18.246  16.621  20.855  0.0028  0.0984  0.1339
 3706G2HFO Tail43806  18.398  16.607  21.032  0.3074  0.1758  0.0726
 3707G2HFO Head43807  18.393  20.994  24.147 -0.2288 -0.1418  0.2210
 3707G2HFO Head43808  18.067  21.072  24.146 -0.2833  0.0921 -0.4079
 3707G2HFO Head43809  17.718  21.337  24.287 -0.2657  0.2696 -0.1971
 3707G2HFO Head43810  17.620  21.071  24.201 -0.4153  0.2064  0.2692
 3707G2HFO Head43811  17.840  20.815  24.119 -0.1730  0.1089  0.0551
 3707G2HFO Head43812  17.727  21.286  23.433 -0.2167 -0.0151 -0.7230
 3707G2HFO Head43813  17.874  21.150  23.664  0.1025 -0.0047 -0.2665
 3707G2HFO Head43814  18.277  21.246  23.747  0.3084 -0.3988  0.1920
 3707G2HFO Head43815  18.259  20.969  23.741  0.1729  0.0934 -0.3154
 3707G2HFO Head43816  17.958  20.793  23.680  0.1177  0.0424 -0.1292
 3707G2HFO link43817  17.829  20.664  23.899 -0.2432 -0.2197 -0.1444
 3707G2HFO link43818  17.663  20.441  23.864  0.4164 -0.0765 -0.1246
 3707G2HFO Tail43819  17.590  20.300  23.563  0.0045 -0.0138 -0.1492
 3707G2HFO Tail43820  17.252  20.223  23.616  0.0213  0.0750  0.4088
 3707G2HFO Tail43821  17.082  19.966  23.521 -0.3921  0.1106  0.3870
 3707G2HFO Tail43822  16.926  19.576  23.599  0.0385  0.0958 -0.3371
 3707G2HFO Tail43823  17.554  20.604  23.376  0.3029 -0.1377 -0.0725
 3707G2HFO Tail43824  17.728  20.648  23.187 -0.0111  0.3270 -0.2668
 3707G2HFO Tail43825  17.927  20.812  23.236 -0.1802  0.2325 -0.2221
 3707G2HFO Tail43826  18.126  20.965  23.284  0.1185  0.1554  0.0394
 3707G2HFO Tail43827  18.307  21.104  23.262 -0.2776  0.0559  0.1048
 3708G2HFO Head43828  19.919  18.799  20.500  0.1818 -0.0394  0.2747
 3708G2HFO Head43829  20.084  19.007  20.317  0.3865 -0.0041  0.1564
 3708G2HFO Head43830  20.498  19.269  20.201  0.0599  0.1333 -0.1067
 3708G2HFO Head43831  20.259  19.358  20.339  0.4659  0.0223  0.6595
 3708G2HFO Head43832  19.930  19.287  20.210 -0.1665 -0.2518 -0.1871
 3708G2HFO Head43833  20.033  19.975  20.667  0.1609 -0.0338 -0.0207
 3708G2HFO Head43834  20.017  19.749  20.412 -0.2414 -0.1104  0.0738
 3708G2HFO Head43835  19.799  19.695  19.743 -0.2003 -0.1733 -0.1074
 3708G2HFO Head43836  19.790  19.796  20.059 -0.0095  0.3318  0.3195
 3708G2HFO Head43837  19.708  19.596  20.343 -0.0999 -0.1223 -0.2573
 3708G2HFO link43838  19.691  19.333  20.303 -0.3222 -0.6283 -0.1948
 3708G2HFO link43839  19.526  19.171  20.462 -0.1294  0.1676 -0.1968
 3708G2HFO Tail43840  19.336  19.279  20.705  0.2294 -0.0218 -0.0699
 3708G2HFO Tail43841  19.177  18.988  20.820 -0.2411 -0.0261  0.1733
 3708G2HFO Tail43842  18.896  18.885  20.793  0.6905 -0.0379 -0.1577
 3708G2HFO Tail43843  18.592  18.859  20.490  0.0853 -0.0568  0.2945
 3708G2HFO Tail43844  19.075  19.433  20.505 -0.0434  0.0604 -0.2046
 3708G2HFO Tail43845  19.041  19.689  20.496  0.0099 -0.1237  0.0446
 3708G2HFO Tail43846  19.237  19.839  20.432 -0.1681 -0.1336 -0.2361
 3708G2HFO Tail43847  19.402  20.014  20.359  0.1578  0.1057  0.1453
 3708G2HFO Tail43848  19.584  20.161  20.346  0.1348  0.1429 -0.0461
 3709G2HFO Head43849  17.110  16.571  22.245 -0.1822  0.1630  0.1094
 3709G2HFO Head43850  17.039  16.692  21.945  0.1455 -0.2325 -0.0231
 3709G2HFO Head43851  17.264  16.560  21.281  0.0050 -0.0094  0.3512
 3709G2HFO Head43852  17.193  16.638  21.548 -0.0461 -0.0864  0.0149
 3709G2HFO Head43853  16.927  16.485  21.694 -0.1003 -0.1174 -0.0547
 3709G2HFO Head43854  17.544  15.869  21.375 -0.0747 -0.1506 -0.2865
 3709G2HFO Head43855  17.357  16.121  21.403  0.1851 -0.0164  0.2098
 3709G2HFO Head43856  17.663  16.428  21.544  0.2816  0.1517  0.5902
 3709G2HFO Head43857  17.443  16.380  21.772  0.2372  0.4662  0.3479
 3709G2HFO Head43858  17.176  16.159  21.706 -0.0712 -0.2066  0.0601
 3709G2HFO link43859  16.925  16.244  21.709 -0.5578 -0.2809 -0.3165
 3709G2HFO link43860  16.741  16.101  21.867  0.1438  0.3387  0.1463
 3709G2HFO Tail43861  16.665  15.776  21.796 -0.0076 -0.3631 -0.2489
 3709G2HFO Tail43862  16.886  15.707  21.544  0.1005  0.4523  0.2477
 3709G2HFO Tail43863  16.884  15.520  21.286 -0.1025  0.0019  0.0089
 3709G2HFO Tail43864  17.129  15.236  21.058  0.3756 -0.0048  0.0494
 3709G2HFO Tail43865  16.885  15.617  22.031  0.0073  0.2804  0.1302
 3709G2HFO Tail43866  16.919  15.355  22.022 -0.1831 -0.3827 -0.2225
 3709G2HFO Tail43867  16.975  15.247  22.250  0.1593  0.2327  0.2769
 3709G2HFO Tail43868  17.062  15.136  22.462 -0.2020 -0.0841  0.0105
 3709G2HFO Tail43869  17.129  15.095  22.684 -0.1219  0.2914 -0.1486
 3710G2HFO Head43870  20.785  15.529  22.071 -0.0318 -0.0922  0.0035
 3710G2HFO Head43871  20.672  15.659  21.817  0.2337 -0.1252  0.4921
 3710G2HFO Head43872  20.330  15.339  22.267  0.0626  0.2612 -0.0327
 3710G2HFO Head43873  20.400  15.311  21.920 -0.2403 -0.3665 -0.0720
 3710G2HFO Head43874  20.352  15.585  21.707 -0.2898 -0.4952  0.2630
 3710G2HFO Head43875  20.833  15.116  21.416  0.0529 -0.0266 -0.0569
 3710G2HFO Head43876  20.512  15.058  21.503 -0.2685  0.2603 -0.0643
 3710G2HFO Head43877  20.571  15.014  20.998 -0.0276 -0.1835 -0.0589
 3710G2HFO Head43878  20.305  15.176  21.089 -0.1305 -0.1040 -0.0086
 3710G2HFO Head43879  20.267  15.300  21.416 -0.2443  0.2077  0.1460
 3710G2HFO link43880  20.328  15.557  21.443  0.0993  0.2450  0.3779
 3710G2HFO link43881  20.227  15.765  21.277 -0.0110  0.1231 -0.1337
 3710G2HFO Tail43882  19.935  15.775  21.153 -0.0050  0.3119  0.4595
 3710G2HFO Tail43883  19.897  15.457  21.023  0.1352  0.0059  0.0448
 3710G2HFO Tail43884  19.647  15.324  20.877  0.2235  0.2494 -0.0492
 3710G2HFO Tail43885  19.222  15.369  20.900  0.2619  0.1061 -0.2254
 3710G2HFO Tail43886  20.011  15.984  20.895 -0.2305  0.2536  0.0737
 3710G2HFO Tail43887  20.010  15.897  20.647 -0.2199  0.1261 -0.2242
 3710G2HFO Tail43888  19.834  15.710  20.575  0.2374 -0.2145 -0.0257
 3710G2HFO Tail43889  19.644  15.555  20.498 -0.1192  0.0628  0.3745
 3710G2HFO Tail43890  19.508  15.395  20.379 -0.1263  0.0375 -0.1890
 3711G2HFO Head43891  19.999  14.580  22.023 -0.0923  0.1487  0.0697
 3711G2HFO Head43892  19.975  14.663  21.766  0.2803  0.1685  0.0352
 3711G2HFO Head43893  20.029  15.141  21.827 -0.1514 -0.2586  0.0860
 3711G2HFO Head43894  19.780  15.047  21.642 -0.0177 -0.2696 -0.0192
 3711G2HFO Head43895  19.667  14.704  21.641  0.0140  0.1844 -0.2373
 3711G2HFO Head43896  19.864  13.923  21.715  0.3332  0.0494  0.2366
 3711G2HFO Head43897  19.626  14.076  21.578 -0.2069 -0.2328  0.1338
 3711G2HFO Head43898  19.618  13.825  21.226  0.1118 -0.0571 -0.3719
 3711G2HFO Head43899  19.693  14.163  21.160  0.0875  0.2430  0.0164
 3711G2HFO Head43900  19.717  14.380  21.422  0.0337  0.1419  0.1134
 3711G2HFO link43901  19.609  14.598  21.415  0.1396  0.0454 -0.0802
 3711G2HFO link43902  19.531  14.748  21.190 -0.3533 -0.1229  0.0547
 3711G2HFO Tail43903  19.358  15.031  21.194 -0.5483  0.2058 -0.0843
 3711G2HFO Tail43904  19.086  14.920  21.036  0.2538 -0.2861  0.1877
 3711G2HFO Tail43905  18.905  14.650  21.058 -0.4269  0.1407 -0.0875
 3711G2HFO Tail43906  18.486  14.516  21.063 -0.0335 -0.0166 -0.0091
 3711G2HFO Tail43907  19.192  14.964  21.502 -0.3352 -0.0030 -0.2296
 3711G2HFO Tail43908  19.087  14.748  21.572  0.2243  0.2541 -0.1268
 3711G2HFO Tail43909  19.200  14.527  21.477  0.1988  0.1648  0.1392
 3711G2HFO Tail43910  19.267  14.306  21.370 -0.0850 -0.2875  0.0587
 3711G2HFO Tail43911  19.279  14.114  21.241  0.2978  0.3930 -0.2373
 3712G2HFO Head43912  21.322  16.997  19.038 -0.2215 -0.2165 -0.0609
 3712G2HFO Head43913  21.245  16.868  19.291  0.2751  0.0803  0.2647
 3712G2HFO Head43914  21.377  16.994  19.810  0.0374  0.2782  0.2408
 3712G2HFO Head43915  21.093  17.075  19.699 -0.1929  0.1249  0.2253
 3712G2HFO Head43916  20.938  16.887  19.444  0.0914  0.2022  0.2081
 3712G2HFO Head43917  21.115  16.149  19.965 -0.2593 -0.0494 -0.4012
 3712G2HFO Head43918  20.892  16.247  19.789  0.1220 -0.1810  0.2944
 3712G2HFO Head43919  21.504  16.523  19.521  0.0839 -0.3990  0.1729
 3712G2HFO Head43920  21.241  16.437  19.659  0.1203  0.0574  0.3297
 3712G2HFO Head43921  20.937  16.468  19.508 -0.0230 -0.1977 -0.1480
 3712G2HFO link43922  20.788  16.675  19.501 -0.1207  0.1310  0.4222
 3712G2HFO link43923  20.556  16.691  19.639  0.2462  0.2515  0.0525
 3712G2HFO Tail43924  20.295  16.511  19.515 -0.4483  0.0139  0.2170
 3712G2HFO Tail43925  20.082  16.764  19.398 -0.0406 -0.0150  0.5427
 3712G2HFO Tail43926  19.827  16.771  19.197 -0.1299  0.2860 -0.3389
 3712G2HFO Tail43927  19.571  17.040  18.964 -0.1885 -0.3796 -0.3426
 3712G2HFO Tail43928  20.420  16.453  19.197 -0.0486 -0.2154  0.0607
 3712G2HFO Tail43929  20.678  16.459  19.165  0.3196 -0.3786  0.3994
 3712G2HFO Tail43930  20.791  16.663  19.071 -0.2618  0.0444  0.0899
 3712G2HFO Tail43931  20.854  16.882  18.969 -0.0889 -0.3644 -0.0753
 3712G2HFO Tail43932  20.847  17.083  18.847  0.4208  0.1732  0.0032
 3713G2HFO Head43933  18.328  13.712  24.894  0.3134  0.1918  0.1921
 3713G2HFO Head43934  18.049  13.844  24.880 -0.1644 -0.0250 -0.0644
 3713G2HFO Head43935  17.834  13.423  25.386  0.0893  0.0405 -0.0994
 3713G2HFO Head43936  17.979  13.630  25.243  0.0106  0.0696  0.4363
 3713G2HFO Head43937  17.837  13.941  25.146 -0.0513  0.3446  0.0493
 3713G2HFO Head43938  17.946  13.352  24.851  0.3057  0.0231 -0.2382
 3713G2HFO Head43939  17.681  13.452  24.964 -0.2196 -0.0163  0.2275
 3713G2HFO Head43940  17.169  13.394  24.973 -0.0787 -0.0818  0.1667
 3713G2HFO Head43941  17.266  13.651  24.832 -0.1008  0.1572  0.1256
 3713G2HFO Head43942  17.581  13.794  24.882 -0.4252  0.0647  0.1246
 3713G2HFO link43943  17.596  13.945  25.086 -0.1665 -0.2936 -0.1443
 3713G2HFO link43944  17.468  14.201  25.057 -0.5872  0.0923 -0.0118
 3713G2HFO Tail43945  17.272  14.279  24.805  0.2035 -0.1607 -0.0646
 3713G2HFO Tail43946  17.413  14.573  24.672 -0.0732  0.0579  0.0172
 3713G2HFO Tail43947  17.407  14.731  24.396 -0.2854  0.0552  0.0873
 3713G2HFO Tail43948  17.381  14.707  23.973  0.0127  0.1915 -0.4302
 3713G2HFO Tail43949  17.364  14.053  24.579 -0.2142  0.2248  0.2082
 3713G2HFO Tail43950  17.618  14.029  24.526 -0.2634  0.0814 -0.0750
 3713G2HFO Tail43951  17.785  14.190  24.654 -0.1873  0.2145  0.4523
 3713G2HFO Tail43952  17.902  14.329  24.812  0.0622  0.0388 -0.0921
 3713G2HFO Tail43953  18.048  14.395  24.983 -0.3424 -0.2856 -0.0940
 3714G2HFO Head43954  19.167  14.442  22.485 -0.4055  0.2768  0.3304
 3714G2HFO Head43955  19.177  14.629  22.190 -0.4851 -0.3519  0.2432
 3714G2HFO Head43956  19.114  14.175  22.026 -0.2086 -0.2677 -0.1366
 3714G2HFO Head43957  19.031  14.425  21.862  0.1974 -0.3716  0.2061
 3714G2HFO Head43958  18.878  14.699  22.016  0.2155  0.4498  0.3694
 3714G2HFO Head43959  19.606  14.883  22.089 -0.2816  0.2627  0.2385
 3714G2HFO Head43960  19.369  14.853  21.886  0.2600  0.4231 -0.3340
 3714G2HFO Head43961  19.194  15.331  22.338  0.0515  0.1041  0.0091
 3714G2HFO Head43962  19.191  15.064  22.235 -0.1559 -0.2171 -0.2424
 3714G2HFO Head43963  19.061  15.022  21.908  0.1744 -0.0804 -0.1411
 3714G2HFO link43964  18.839  14.911  21.867  0.2606 -0.0298  0.3181
 3714G2HFO link43965  18.664  14.987  21.653  0.0348 -0.0690 -0.0087
 3714G2HFO Tail43966  18.746  14.992  21.317  0.3002  0.0077 -0.2439
 3714G2HFO Tail43967  18.427  15.025  21.186 -0.4656 -0.0117 -0.2667
 3714G2HFO Tail43968  18.270  14.965  20.922  0.1976 -0.0315  0.1644
 3714G2HFO Tail43969  18.168  15.148  20.541 -0.3204  0.3588 -0.3763
 3714G2HFO Tail43970  18.856  15.324  21.286 -0.3812 -0.4048  0.5653
 3714G2HFO Tail43971  18.802  15.486  21.484  0.1189 -0.0224 -0.0430
 3714G2HFO Tail43972  18.566  15.461  21.582 -0.0809  0.1684 -0.0283
 3714G2HFO Tail43973  18.358  15.406  21.706 -0.1001  0.1733  0.0936
 3714G2HFO Tail43974  18.173  15.293  21.807 -0.1569  0.0827  0.0731
 3715G2HFO Head43975  19.800  19.205  19.456  0.2051  0.0384  0.1896
 3715G2HFO Head43976  19.538  19.036  19.514 -0.1328 -0.4212 -0.3440
 3715G2HFO Head43977  19.873  18.818  19.113 -0.2122 -0.0302 -0.0857
 3715G2HFO Head43978  19.867  18.722  19.411  0.2337  0.0677  0.0581
 3715G2HFO Head43979  19.547  18.688  19.547  0.1935 -0.3293  0.1203
 3715G2HFO Head43980  20.069  19.040  19.786  0.0386  0.0471 -0.1488
 3715G2HFO Head43981  20.020  18.728  19.839 -0.1059  0.0414  0.1246
 3715G2HFO Head43982  19.586  19.161  19.943  0.3035  0.0790  0.0818
 3715G2HFO Head43983  19.708  18.950  20.058  0.0174 -0.1660  0.0373
 3715G2HFO Head43984  19.699  18.640  19.925  0.0051  0.1342 -0.3324
 3715G2HFO link43985  19.507  18.574  19.764  0.1245 -0.1904 -0.3671
 3715G2HFO link43986  19.270  18.429  19.842  0.1032 -0.0757 -0.2511
 3715G2HFO Tail43987  19.118  18.247  19.625  0.0566  0.3219 -0.5245
 3715G2HFO Tail43988  18.830  18.169  19.824 -0.0130  0.4191 -0.1137
 3715G2HFO Tail43989  18.785  18.236  20.129  0.4966  0.1563 -0.2450
 3715G2HFO Tail43990  18.957  18.513  20.411 -0.0845  0.0798  0.2274
 3715G2HFO Tail43991  18.998  18.519  19.425 -0.1154  0.3352 -0.3294
 3715G2HFO Tail43992  19.008  18.489  19.178 -0.0654 -0.0242  0.0706
 3715G2HFO Tail43993  18.794  18.442  19.040  0.1026 -0.0490 -0.0030
 3715G2HFO Tail43994  18.607  18.349  18.894  0.2182 -0.0511 -0.2934
 3715G2HFO Tail43995  18.446  18.322  18.710  0.0466  0.0862  0.1354
 3716G2HFO Head43996  21.374  17.604  17.789  0.0413  0.3282 -0.1243
 3716G2HFO Head43997  21.117  17.383  17.772  0.3507 -0.0362 -0.2856
 3716G2HFO Head43998  20.734  17.943  17.917 -0.1784 -0.1780 -0.2049
 3716G2HFO Head43999  20.962  17.735  18.013  0.0650  0.0675 -0.1667
 3716G2HFO Head44000  20.885  17.385  18.043  0.0039 -0.1680  0.0076
 3716G2HFO Head44001  20.791  17.868  18.410 -0.0762 -0.2037  0.1140
 3716G2HFO Head44002  21.007  17.691  18.543  0.0336 -0.2364  0.4501
 3716G2HFO Head44003  21.320  17.507  18.883  0.1563 -0.0998 -0.0260
 3716G2HFO Head44004  21.149  17.324  18.746 -0.2136  0.0672  0.2710
 3716G2HFO Head44005  21.070  17.392  18.413 -0.2493  0.1034  0.0179
 3716G2HFO link44006  20.901  17.258  18.273  0.0321  0.5643  0.3750
 3716G2HFO link44007  20.753  17.037  18.374  0.2210 -0.2124 -0.0263
 3716G2HFO Tail44008  20.760  16.729  18.275 -0.1542  0.1034 -0.0492
 3716G2HFO Tail44009  20.624  16.560  18.547  0.3670 -0.0229 -0.0729
 3716G2HFO Tail44010  20.397  16.612  18.746  0.1800 -0.0380 -0.0162
 3716G2HFO Tail44011  19.980  16.544  18.840  0.3612 -0.2341  0.2903
 3716G2HFO Tail44012  20.527  16.729  18.021 -0.0242  0.2499 -0.1594
 3716G2HFO Tail44013  20.454  16.950  17.904  0.0068 -0.1070 -0.1500
 3716G2HFO Tail44014  20.446  17.170  18.035 -0.0194 -0.1487 -0.0933
 3716G2HFO Tail44015  20.445  17.414  18.115 -0.0266 -0.1185  0.2235
 3716G2HFO Tail44016  20.485  17.649  18.131  0.2806 -0.0804  0.0244
 3717G2HFO Head44017  21.257  16.257  20.417  0.3362 -0.2611  0.0852
 3717G2HFO Head44018  20.961  16.280  20.458  0.0382  0.1425  0.6540
 3717G2HFO Head44019  20.721  15.629  20.602  0.1816  0.2039 -0.1039
 3717G2HFO Head44020  20.715  15.958  20.540  0.0113  0.1753  0.3923
 3717G2HFO Head44021  20.787  16.095  20.213 -0.0451  0.1029  0.0079
 3717G2HFO Head44022  21.002  16.695  19.951 -0.0786 -0.2922 -0.2936
 3717G2HFO Head44023  20.827  16.639  20.221 -0.3456  0.0339 -0.2767
 3717G2HFO Head44024  20.508  16.258  20.734  0.0082 -0.1759  0.0807
 3717G2HFO Head44025  20.605  16.505  20.535  0.2947 -0.1936 -0.2005
 3717G2HFO Head44026  20.543  16.430  20.209 -0.2471 -0.6534 -0.1350
 3717G2HFO link44027  20.574  16.203  20.102 -0.4580  0.2031  0.9674
 3717G2HFO link44028  20.478  16.113  19.849 -0.1018  0.2659 -0.1007
 3717G2HFO Tail44029  20.184  15.955  19.812  0.1146 -0.1035  0.0839
 3717G2HFO Tail44030  19.975  16.206  19.787  0.2018  0.0330 -0.0011
 3717G2HFO Tail44031  19.682  16.242  19.666  0.2615 -0.1814 -0.0084
 3717G2HFO Tail44032  19.448  16.553  19.507 -0.2511 -0.0016  0.0142
 3717G2HFO Tail44033  20.174  15.890  19.473  0.0457 -0.0056 -0.0404
 3717G2HFO Tail44034  20.341  16.017  19.316 -0.1024  0.0392 -0.0586
 3717G2HFO Tail44035  20.600  16.039  19.358  0.0903  0.1536 -0.1691
 3717G2HFO Tail44036  20.851  16.031  19.379 -0.2105  0.0253 -0.0241
 3717G2HFO Tail44037  21.076  16.034  19.468  0.0999 -0.4322  0.0158
 3718G2HFO Head44038  17.419  15.665  27.841 -0.1803 -0.0216 -0.2250
 3718G2HFO Head44039  17.568  15.547  27.579  0.1489  0.3707 -0.3964
 3718G2HFO Head44040  17.958  15.699  27.269 -0.2038 -0.2720 -0.5021
 3718G2HFO Head44041  17.755  15.456  27.198  0.6079 -0.0393 -0.0983
 3718G2HFO Head44042  17.411  15.468  27.279  0.4065  0.4602  0.0781
 3718G2HFO Head44043  16.728  15.936  27.698  0.0600  0.0019  0.1805
 3718G2HFO Head44044  16.879  15.746  27.569  0.0835  0.2153  0.1946
 3718G2HFO Head44045  17.041  16.350  27.152  0.2335 -0.1291  0.0550
 3718G2HFO Head44046  16.918  16.056  27.278  0.4017  0.3030 -0.2423
 3718G2HFO Head44047  17.153  15.813  27.369 -0.2492 -0.1311  0.1498
 3718G2HFO link44048  17.244  15.659  27.178 -0.2657 -0.2763  1.0228
 3718G2HFO link44049  17.281  15.748  26.911  0.2110 -0.2700  0.0347
 3718G2HFO Tail44050  17.119  16.031  26.808 -0.1412  0.0262  0.2084
 3718G2HFO Tail44051  17.182  15.993  26.467  0.5154 -0.1175 -0.0626
 3718G2HFO Tail44052  17.036  15.859  26.220  0.0077  0.2377 -0.5760
 3718G2HFO Tail44053  16.908  15.994  25.844  0.2389  0.0411  0.2457
 3718G2HFO Tail44054  16.798  15.929  26.812  0.1090 -0.0868  0.2378
 3718G2HFO Tail44055  16.682  15.809  27.011 -0.1885 -0.0920  0.4149
 3718G2HFO Tail44056  16.794  15.595  27.090 -0.0933  0.1175  0.0230
 3718G2HFO Tail44057  16.920  15.404  27.216  0.2263 -0.1221  0.2625
 3718G2HFO Tail44058  17.012  15.206  27.284 -0.2827  0.4192  0.1162
 3719G2HFO Head44059  18.912  20.009  27.086 -0.2970 -0.1598 -0.1276
 3719G2HFO Head44060  18.704  19.928  26.817  0.0735 -0.0766  0.3444
 3719G2HFO Head44061  18.474  19.838  27.389 -0.2955  0.3249 -0.0825
 3719G2HFO Head44062  18.395  19.888  27.090  0.2934  0.1029 -0.0797
 3719G2HFO Head44063  18.458  19.676  26.835  0.3267 -0.0001  0.0597
 3719G2HFO Head44064  17.844  20.193  27.007  0.1510 -0.3487  0.3364
 3719G2HFO Head44065  17.947  19.928  26.985  0.0217  0.2312 -0.2076
 3719G2HFO Head44066  17.604  20.091  26.537 -0.2518  0.1131 -0.2264
 3719G2HFO Head44067  17.770  19.823  26.568 -0.3549 -0.2143  0.0080
 3719G2HFO Head44068  18.097  19.822  26.694  0.3263  0.1359 -0.1174
 3719G2HFO link44069  18.274  19.640  26.648 -0.7374 -0.4038 -0.5784
 3719G2HFO link44070  18.215  19.401  26.509 -0.0610 -0.2439  0.0220
 3719G2HFO Tail44071  18.067  19.422  26.223 -0.4108  0.8135  0.1209
 3719G2HFO Tail44072  18.362  19.412  26.008 -0.2294  0.2771  0.1995
 3719G2HFO Tail44073  18.405  19.422  25.692  0.0167 -0.0187 -0.2058
 3719G2HFO Tail44074  18.187  19.405  25.333 -0.1140 -0.1974 -0.0003
 3719G2HFO Tail44075  17.959  19.076  26.195  0.1331 -0.0200  0.3213
 3719G2HFO Tail44076  17.708  19.013  26.160 -0.1033 -0.3524  0.0000
 3719G2HFO Tail44077  17.588  19.164  25.985  0.3140  0.1640  0.1472
 3719G2HFO Tail44078  17.450  19.263  25.797 -0.1391 -0.1439  0.1266
 3719G2HFO Tail44079  17.321  19.303  25.603  0.3160  0.1815  0.0553
 3720G2HFO Head44080  19.856  15.469  21.545 -0.0528 -0.1194 -0.3692
 3720G2HFO Head44081  19.560  15.586  21.396  0.0796  0.3268  0.1799
 3720G2HFO Head44082  19.780  16.064  21.933 -0.1066  0.1407  0.1451
 3720G2HFO Head44083  19.649  15.821  21.792  0.3281  0.3248  0.2823
 3720G2HFO Head44084  19.450  15.889  21.498  0.2191  0.3213 -0.0357
 3720G2HFO Head44085  19.026  16.646  21.753  0.1471 -0.1496 -0.0141
 3720G2HFO Head44086  18.907  16.355  21.760 -0.1773  0.3370 -0.0702
 3720G2HFO Head44087  19.383  16.513  22.144 -0.3446 -0.0819  0.0784
 3720G2HFO Head44088  19.347  16.363  21.820 -0.1540  0.2701 -0.0593
 3720G2HFO Head44089  19.137  16.081  21.759 -0.0269  0.0635  0.0700
 3720G2HFO link44090  19.180  15.943  21.519 -0.7138  0.2826  0.4489
 3720G2HFO link44091  18.992  15.901  21.302  0.0968  0.2066  0.0477
 3720G2HFO Tail44092  19.079  15.815  20.998  0.1932  0.3157  0.0900
 3720G2HFO Tail44093  18.815  15.642  20.913 -0.0176  0.0987  0.1134
 3720G2HFO Tail44094  18.794  15.348  20.746  0.0826 -0.4685 -0.0673
 3720G2HFO Tail44095  18.671  14.936  20.776  0.1926 -0.0157 -0.1356
 3720G2HFO Tail44096  19.011  16.099  20.841 -0.1536  0.0433 -0.2175
 3720G2HFO Tail44097  18.940  16.317  20.932  0.1255  0.0623 -0.0029
 3720G2HFO Tail44098  18.820  16.484  20.768  0.1018 -0.1821 -0.0659
 3720G2HFO Tail44099  18.669  16.638  20.629  0.0693  0.0086 -0.1540
 3720G2HFO Tail44100  18.557  16.823  20.532  0.1878  0.2589 -0.1125
 3721G2HFO Head44101  14.769  14.148  23.419  0.0678 -0.1931 -0.1368
 3721G2HFO Head44102  14.730  14.376  23.610  0.4470  0.1498  0.0173
 3721G2HFO Head44103  14.622  14.014  24.256 -0.2432  0.1293  0.1015
 3721G2HFO Head44104  14.665  14.103  23.968 -0.1378 -0.8042 -0.2546
 3721G2HFO Head44105  14.879  14.381  23.916  0.0267  0.0795 -0.1610
 3721G2HFO Head44106  15.427  14.063  23.330  0.1079  0.0433  0.4587
 3721G2HFO Head44107  15.195  13.997  23.538 -0.2079  0.1394  0.2506
 3721G2HFO Head44108  15.044  13.516  23.810  0.1032 -0.4199 -0.0488
 3721G2HFO Head44109  14.961  13.857  23.843 -0.3390 -0.0206 -0.3082
 3721G2HFO Head44110  15.208  14.099  23.868 -0.1535  0.2610 -0.1341
 3721G2HFO link44111  15.144  14.342  23.952  0.2260 -0.1948  0.4144
 3721G2HFO link44112  15.342  14.544  23.979 -0.3511 -0.2471 -0.3104
 3721G2HFO Tail44113  15.582  14.620  23.767 -0.1792 -0.0389  0.1533
 3721G2HFO Tail44114  15.796  14.826  23.957  0.4729  0.1218  0.0266
 3721G2HFO Tail44115  16.088  14.959  23.915 -0.0389 -0.1128 -0.0980
 3721G2HFO Tail44116  16.331  15.331  23.897 -0.4272  0.1620  0.0176
 3721G2HFO Tail44117  15.426  14.879  23.586  0.0655 -0.1082 -0.0084
 3721G2HFO Tail44118  15.267  14.833  23.374  0.0132  0.2937  0.2909
 3721G2HFO Tail44119  15.287  15.005  23.186 -0.0753  0.1338  0.0165
 3721G2HFO Tail44120  15.337  15.195  23.020 -0.0913  0.1926  0.1499
 3721G2HFO Tail44121  15.411  15.328  22.839  0.2024  0.3696 -0.3211
 3722G2HFO Head44122  18.900  16.711  21.168 -0.0410  0.4544 -0.1593
 3722G2HFO Head44123  18.982  16.929  20.939 -0.1390  0.8281  0.3937
 3722G2HFO Head44124  18.836  17.676  20.880  0.3628 -0.3949  0.1953
 3722G2HFO Head44125  18.852  17.334  20.982 -0.0998  0.0036 -0.1739
 3722G2HFO Head44126  18.718  17.114  20.761 -0.5177 -0.2422 -0.0337
 3722G2HFO Head44127  19.538  16.883  20.471 -0.0106 -0.0438 -0.1042
 3722G2HFO Head44128  19.263  16.989  20.613 -0.3175 -0.3782 -0.0469
 3722G2HFO Head44129  19.197  17.312  20.086 -0.0452  0.0503 -0.1837
 3722G2HFO Head44130  19.154  17.023  20.198  0.1192  0.1556  0.1827
 3722G2HFO Head44131  18.941  16.964  20.457  0.0750  0.2399  0.4103
 3722G2HFO link44132  18.762  17.153  20.508  0.0505  0.4088  0.0893
 3722G2HFO link44133  18.685  17.395  20.388  0.5160  0.1289  0.0046
 3722G2HFO Tail44134  18.888  17.639  20.329 -0.4135  0.0230  0.2961
 3722G2HFO Tail44135  18.780  17.719  20.008 -0.2661  0.2112  0.0772
 3722G2HFO Tail44136  18.854  17.641  19.712  0.0034  0.2544  0.3229
 3722G2HFO Tail44137  18.796  17.331  19.416 -0.1024 -0.0059  0.3192
 3722G2HFO Tail44138  18.735  17.894  20.485  0.0590 -0.3130  0.0936
 3722G2HFO Tail44139  18.537  18.053  20.404  0.0918 -0.1082  0.2389
 3722G2HFO Tail44140  18.365  17.968  20.234  0.1574 -0.2091  0.3338
 3722G2HFO Tail44141  18.187  17.858  20.087  0.1095 -0.2543  0.0682
 3722G2HFO Tail44142  18.058  17.721  19.945 -0.2783  0.3162  0.0210
 3723G2HFO Head44143  17.705  17.919  26.961  0.2402 -0.3149 -0.1463
 3723G2HFO Head44144  17.472  18.006  26.783 -0.2537 -0.0429  0.2614
 3723G2HFO Head44145  17.007  18.400  26.426 -0.3152 -0.0933  0.0874
 3723G2HFO Head44146  17.169  18.072  26.441 -0.1958  0.1673 -0.0018
 3723G2HFO Head44147  17.508  18.021  26.422 -0.0377  0.0107 -0.0044
 3723G2HFO Head44148  18.107  17.325  26.706  0.1072  0.0050 -0.3161
 3723G2HFO Head44149  17.927  17.436  26.449  0.0352 -0.2717 -0.1347
 3723G2HFO Head44150  18.316  17.599  26.286  0.0599  0.3946 -0.1131
 3723G2HFO Head44151  18.136  17.835  26.400 -0.0229 -0.3191  0.2155
 3723G2HFO Head44152  17.803  17.765  26.473 -0.2373  0.4007  0.4726
 3723G2HFO link44153  17.626  17.818  26.283 -0.2894  0.1986 -0.1656
 3723G2HFO link44154  17.451  17.633  26.148  0.1185  0.1398 -0.3515
 3723G2HFO Tail44155  17.324  17.730  25.866 -0.0354  0.1295 -0.4150
 3723G2HFO Tail44156  17.126  17.472  25.810  0.1978  0.2451 -0.0763
 3723G2HFO Tail44157  16.891  17.392  25.623  0.0812  0.4422  0.0821
 3723G2HFO Tail44158  16.717  17.489  25.229  0.1809  0.0742 -0.1161
 3723G2HFO Tail44159  17.137  17.997  26.015  0.2591  0.2303  0.0290
 3723G2HFO Tail44160  17.126  18.245  25.931  0.3956  0.1856 -0.2537
 3723G2HFO Tail44161  17.284  18.337  25.754  0.0696 -0.2239  0.2354
 3723G2HFO Tail44162  17.445  18.389  25.564  0.0565  0.1979  0.0390
 3723G2HFO Tail44163  17.540  18.436  25.357 -0.0894 -0.3397  0.0862
 3724G2HFO Head44164  16.185  19.234  22.963  0.0535  0.0263 -0.0558
 3724G2HFO Head44165  16.117  19.513  23.012  0.0708  0.1392  0.2971
 3724G2HFO Head44166  15.839  19.743  23.277 -0.3414 -0.0290  0.2271
 3724G2HFO Head44167  16.087  19.907  23.203  0.0560  0.1716 -0.3880
 3724G2HFO Head44168  16.367  19.756  23.029  0.3920  0.4877 -0.6400
 3724G2HFO Head44169  16.701  20.426  23.247  0.1493 -0.1466  0.2437
 3724G2HFO Head44170  16.808  20.134  23.182 -0.1708 -0.2696 -0.0196
 3724G2HFO Head44171  16.329  20.127  23.679  0.0423 -0.2361 -0.1936
 3724G2HFO Head44172  16.408  20.096  23.376  0.1791  0.2386  0.0645
 3724G2HFO Head44173  16.649  19.863  23.310 -0.0355 -0.0486  0.0153
 3724G2HFO link44174  16.584  19.675  23.155 -0.0312  0.2796  0.1735
 3724G2HFO link44175  16.642  19.385  23.172  0.3057 -0.2907  0.1018
 3724G2HFO Tail44176  16.952  19.261  23.140  0.1818 -0.1763  0.2515
 3724G2HFO Tail44177  16.913  18.941  23.285 -0.1306 -0.0986  0.2600
 3724G2HFO Tail44178  16.972  18.771  23.539  0.5927  0.0099 -0.6703
 3724G2HFO Tail44179  16.857  18.780  23.973 -0.0958 -0.0613  0.2677
 3724G2HFO Tail44180  16.913  19.163  22.816 -0.1294  0.1698 -0.1387
 3724G2HFO Tail44181  16.684  19.125  22.696  0.1703  0.1694 -0.0271
 3724G2HFO Tail44182  16.515  19.307  22.638  0.1826  0.1858 -0.1174
 3724G2HFO Tail44183  16.347  19.488  22.602  0.0175 -0.0283 -0.1322
 3724G2HFO Tail44184  16.245  19.698  22.612 -0.0517 -0.0507  0.0509
 3725G2HFO Head44185  15.718  21.194  21.146 -0.4375 -0.2857 -0.1585
 3725G2HFO Head44186  15.863  20.968  20.999  0.2452 -0.0538 -0.2044
 3725G2HFO Head44187  16.362  21.575  21.039  0.0081 -0.0479  0.3112
 3725G2HFO Head44188  16.182  21.313  21.100  0.2033  0.3399  0.0898
 3725G2HFO Head44189  16.209  21.007  20.928 -0.1169 -0.0290  0.1305
 3725G2HFO Head44190  16.000  20.979  21.693 -0.1105 -0.1320 -0.3986
 3725G2HFO Head44191  16.061  20.968  21.388  0.0537 -0.2378 -0.0484
 3725G2HFO Head44192  15.857  20.493  21.066  0.2511  0.0845 -0.2751
 3725G2HFO Head44193  16.033  20.523  21.281  0.0009  0.1271 -0.0740
 3725G2HFO Head44194  16.289  20.762  21.253  0.0792  0.0630 -0.0738
 3725G2HFO link44195  16.383  20.808  21.006  0.0251  0.2827 -0.0156
 3725G2HFO link44196  16.652  20.772  20.944 -0.2583 -0.1590  0.2239
 3725G2HFO Tail44197  16.797  20.697  20.660  0.0507  0.4504 -0.0174
 3725G2HFO Tail44198  16.850  20.372  20.757  0.1614  0.2680 -0.1126
 3725G2HFO Tail44199  17.118  20.243  20.882 -0.0351  0.0475 -0.1428
 3725G2HFO Tail44200  17.312  19.919  21.095 -0.3545 -0.1522  0.1688
 3725G2HFO Tail44201  16.506  20.718  20.476 -0.0991  0.2238 -0.1278
 3725G2HFO Tail44202  16.290  20.600  20.554  0.0376  0.2460 -0.0900
 3725G2HFO Tail44203  16.303  20.451  20.757  0.0459 -0.0583 -0.0087
 3725G2HFO Tail44204  16.326  20.346  20.985  0.1100 -0.1366 -0.1490
 3725G2HFO Tail44205  16.390  20.256  21.192  0.1785  0.0521  0.0396
 3726G2HFO Head44206  14.685  14.473  25.843  0.2204 -0.0995 -0.0832
 3726G2HFO Head44207  14.745  14.353  25.533  0.0811  0.0716  0.1305
 3726G2HFO Head44208  15.327  13.928  25.574 -0.0892 -0.1068 -0.2149
 3726G2HFO Head44209  15.051  14.061  25.422 -0.0573 -0.3112 -0.2253
 3726G2HFO Head44210  15.046  14.413  25.379 -0.2600 -0.3068 -0.1334
 3726G2HFO Head44211  15.475  14.407  26.258 -0.3083 -0.2446  0.2270
 3726G2HFO Head44212  15.405  14.298  25.966  0.0366  0.0925  0.0055
 3726G2HFO Head44213  15.124  14.027  26.134 -0.0939  0.1807  0.1069
 3726G2HFO Head44214  15.027  14.220  25.866  0.4161  0.4506 -0.1126
 3726G2HFO Head44215  15.200  14.504  25.761  0.4475 -0.3724  0.3395
 3726G2HFO link44216  15.237  14.566  25.485  0.1582  0.3568 -0.3231
 3726G2HFO link44217  15.330  14.822  25.374  0.2724  0.1104 -0.0336
 3726G2HFO Tail44218  15.144  15.082  25.448  0.0016 -0.1922 -0.4615
 3726G2HFO Tail44219  15.395  15.321  25.475 -0.0402  0.0441 -0.3331
 3726G2HFO Tail44220  15.397  15.627  25.580 -0.2091 -0.1885 -0.1975
 3726G2HFO Tail44221  15.494  15.857  25.932 -0.1514 -0.0377 -0.2796
 3726G2HFO Tail44222  15.012  15.158  25.127 -0.3212  0.2312 -0.6267
 3726G2HFO Tail44223  15.158  15.155  24.915 -0.4317 -0.0776  0.1180
 3726G2HFO Tail44224  15.057  15.092  24.682  0.0674 -0.1362 -0.0141
 3726G2HFO Tail44225  14.927  15.054  24.469 -0.0474 -0.2775  0.0681
 3726G2HFO Tail44226  14.804  15.083  24.274  0.0511 -0.0756 -0.1864
 3727G2HFO Head44227  16.807  17.596  26.210  0.0881  0.0936  0.1831
 3727G2HFO Head44228  16.824  17.424  26.466 -0.0803  0.0229  0.1672
 3727G2HFO Head44229  16.375  17.116  26.937  0.3356  0.2844 -0.3091
 3727G2HFO Head44230  16.604  17.206  26.771  0.2906 -0.1658 -0.2608
 3727G2HFO Head44231  16.672  17.107  26.447 -0.3569  0.2143  0.1514
 3727G2HFO Head44232  16.998  17.286  26.976  0.2568 -0.0602  0.2955
 3727G2HFO Head44233  16.915  16.983  26.897  0.0029  0.0956 -0.0678
 3727G2HFO Head44234  17.549  17.043  26.602 -0.0755 -0.0671  0.1055
 3727G2HFO Head44235  17.256  17.154  26.585  0.2601  0.1727 -0.2556
 3727G2HFO Head44236  16.994  16.899  26.565 -0.2772 -0.4098  0.0088
 3727G2HFO link44237  16.829  16.912  26.390 -0.2192  0.1887  0.2574
 3727G2HFO link44238  16.790  16.719  26.178 -0.0775 -0.2305 -0.1648
 3727G2HFO Tail44239  16.475  16.640  26.122  0.1904  0.0727  0.0514
 3727G2HFO Tail44240  16.399  16.870  25.876 -0.0756 -0.0238  0.1914
 3727G2HFO Tail44241  16.155  16.942  25.680 -0.2751  0.0796 -0.2187
 3727G2HFO Tail44242  15.738  16.849  25.637  0.1750  0.2113  0.1706
 3727G2HFO Tail44243  16.521  16.348  25.939 -0.4333 -0.0763 -0.0885
 3727G2HFO Tail44244  16.489  16.099  26.030  0.2153 -0.2793  0.4227
 3727G2HFO Tail44245  16.387  15.927  25.861 -0.0702  0.3468 -0.1927
 3727G2HFO Tail44246  16.303  15.747  25.709  0.1341 -0.1542  0.0423
 3727G2HFO Tail44247  16.276  15.601  25.532  0.0048 -0.0214  0.3519
 3728G2HFO Head44248  15.577  19.106  20.981 -0.1524 -0.1298  0.1613
 3728G2HFO Head44249  15.867  19.091  20.881  0.3996  0.2424  0.1206
 3728G2HFO Head44250  15.689  18.387  20.927 -0.0286 -0.0539  0.3701
 3728G2HFO Head44251  15.753  18.671  21.002  0.0922  0.4663 -0.1547
 3728G2HFO Head44252  16.056  18.817  20.975 -0.1391 -0.1599 -0.0101
 3728G2HFO Head44253  15.857  19.266  21.542  0.0968  0.0672  0.1211
 3728G2HFO Head44254  15.816  18.974  21.429 -0.1019 -0.1350 -0.0060
 3728G2HFO Head44255  15.530  18.600  21.394  0.0657 -0.1915 -0.1330
 3728G2HFO Head44256  15.830  18.528  21.438 -0.0044  0.2797  0.2118
 3728G2HFO Head44257  16.095  18.766  21.390  0.5611  0.1631  0.0290
 3728G2HFO link44258  16.234  18.809  21.169 -0.2457 -0.2378 -0.2140
 3728G2HFO link44259  16.525  18.820  21.154  0.1084 -0.0870  0.1903
 3728G2HFO Tail44260  16.734  19.014  20.992  0.3512 -0.1821  0.2010
 3728G2HFO Tail44261  16.928  19.177  21.246 -0.2352  0.3055  0.0306
 3728G2HFO Tail44262  17.252  19.260  21.232 -0.3661 -0.1513  0.0912
 3728G2HFO Tail44263  17.661  19.149  21.390  0.0591  0.0547  0.4667
 3728G2HFO Tail44264  16.950  18.763  20.902  0.2420 -0.3173 -0.2505
 3728G2HFO Tail44265  16.823  18.537  20.855 -0.0066  0.1042 -0.0541
 3728G2HFO Tail44266  16.573  18.535  20.793 -0.0741  0.0613 -0.0469
 3728G2HFO Tail44267  16.322  18.537  20.769  0.1879  0.0187  0.0091
 3728G2HFO Tail44268  16.100  18.474  20.752  0.4850 -0.1284 -0.1159
 3729G2HFO Head44269  20.137  14.260  21.021  0.0277  0.1648  0.1327
 3729G2HFO Head44270  19.914  14.504  20.919  0.1375  0.1111 -0.1974
 3729G2HFO Head44271  20.406  14.620  20.388  0.1372  0.0665 -0.1401
 3729G2HFO Head44272  20.184  14.688  20.644  0.3098  0.0290  0.2932
 3729G2HFO Head44273  19.855  14.612  20.583  0.3316 -0.5042  0.1490
 3729G2HFO Head44274  20.263  15.073  20.042 -0.0344 -0.0874  0.0826
 3729G2HFO Head44275  20.071  14.879  20.225 -0.0725  0.2314  0.2494
 3729G2HFO Head44276  20.284  15.123  20.556 -0.1821 -0.1002  0.0396
 3729G2HFO Head44277  19.990  15.215  20.511  0.2244 -0.0250  0.1521
 3729G2HFO Head44278  19.778  14.972  20.386 -0.2481  0.3298 -0.1819
 3729G2HFO link44279  19.686  14.792  20.546 -0.3253 -0.2265  0.0949
 3729G2HFO link44280  19.442  14.821  20.682  0.1745  0.0635  0.6334
 3729G2HFO Tail44281  19.159  14.916  20.552  0.0949 -0.3474 -0.0248
 3729G2HFO Tail44282  19.249  15.009  20.242  0.1506  0.2536  0.1028
 3729G2HFO Tail44283  19.212  15.260  20.059  0.1762  0.1696 -0.1736
 3729G2HFO Tail44284  19.415  15.635  20.013  0.0068 -0.1482  0.3205
 3729G2HFO Tail44285  18.995  14.615  20.522  0.2822  0.2371  0.0236
 3729G2HFO Tail44286  19.001  14.472  20.300  0.1135  0.0683 -0.0115
 3729G2HFO Tail44287  18.774  14.440  20.173  0.0229 -0.0676  0.1044
 3729G2HFO Tail44288  18.570  14.376  20.049  0.0645  0.0489  0.0786
 3729G2HFO Tail44289  18.413  14.276  19.904  0.1066  0.0617  0.2360
 3730G2HFO Head44290  16.649  14.374  25.563 -0.0356  0.0974  0.0259
 3730G2HFO Head44291  16.544  14.601  25.726 -0.1035 -0.1410  0.2355
 3730G2HFO Head44292  16.332  14.232  25.970  0.1181  0.4823  0.0994
 3730G2HFO Head44293  16.202  14.337  25.741 -0.2312  0.2543  0.3616
 3730G2HFO Head44294  16.225  14.688  25.693  0.2502 -0.0160  0.2366
 3730G2HFO Head44295  16.250  14.942  26.553 -0.3846  0.1142 -0.0884
 3730G2HFO Head44296  16.166  15.046  26.317  0.0405  0.1837 -0.1862
 3730G2HFO Head44297  16.804  14.639  26.143 -0.3899  0.1038  0.0562
 3730G2HFO Head44298  16.470  14.635  26.178 -0.1670  0.0692  0.3336
 3730G2HFO Head44299  16.269  14.901  26.016  0.0739 -0.2713 -0.3748
 3730G2HFO link44300  16.084  14.843  25.855 -0.2003  0.7242  0.2914
 3730G2HFO link44301  15.919  15.033  25.755  0.1555 -0.1970 -0.0140
 3730G2HFO Tail44302  15.777  15.041  25.459  0.0308 -0.2430 -0.2006
 3730G2HFO Tail44303  15.977  15.286  25.332  0.1998 -0.1482 -0.2080
 3730G2HFO Tail44304  15.913  15.559  25.207  0.0630  0.0772 -0.1988
 3730G2HFO Tail44305  15.626  15.879  25.232 -0.3494  0.1084  0.2143
 3730G2HFO Tail44306  15.891  14.766  25.281  0.4231  0.1905  0.2654
 3730G2HFO Tail44307  15.782  14.630  25.084  0.1100 -0.2301 -0.0889
 3730G2HFO Tail44308  15.884  14.409  25.020 -0.0052 -0.0904  0.2723
 3730G2HFO Tail44309  16.011  14.191  24.954  0.4433  0.0381  0.1273
 3730G2HFO Tail44310  16.160  14.043  24.850  0.1824  0.2675  0.2897
 3731G2HFO Head44311  19.017  16.511  17.141 -0.0260  0.0954 -0.1290
 3731G2HFO Head44312  18.936  16.390  17.380 -0.2111  0.2055  0.4063
 3731G2HFO Head44313  18.299  16.348  17.069 -0.0980 -0.4266 -0.0122
 3731G2HFO Head44314  18.505  16.561  17.184  0.4510 -0.0151 -0.2408
 3731G2HFO Head44315  18.643  16.519  17.511 -0.0042 -0.3965 -0.0098
 3731G2HFO Head44316  19.308  16.695  17.546 -0.1665  0.2318  0.3070
 3731G2HFO Head44317  19.105  16.943  17.503  0.0666  0.3810 -0.0517
 3731G2HFO Head44318  18.574  17.171  17.035 -0.2267  0.2789  0.3727
 3731G2HFO Head44319  18.741  16.915  17.175  0.3270 -0.3304  0.0692
 3731G2HFO Head44320  18.775  16.902  17.518  0.1194  0.2858  0.0031
 3731G2HFO link44321  18.674  16.723  17.666 -0.0432 -0.0259 -0.0351
 3731G2HFO link44322  18.630  16.725  17.946 -0.1317  0.2414 -0.0323
 3731G2HFO Tail44323  18.619  16.440  18.131 -0.0659 -0.0470 -0.1605
 3731G2HFO Tail44324  18.278  16.450  18.225 -0.1926  0.0367 -0.0738
 3731G2HFO Tail44325  18.106  16.616  18.443  0.3658 -0.1011 -0.2442
 3731G2HFO Tail44326  17.737  16.844  18.464 -0.0963 -0.2679  0.0477
 3731G2HFO Tail44327  18.804  16.543  18.397  0.1562  0.0746 -0.3901
 3731G2HFO Tail44328  19.056  16.465  18.455  0.0894 -0.2156  0.1024
 3731G2HFO Tail44329  19.243  16.532  18.279 -0.0455 -0.2027 -0.0267
 3731G2HFO Tail44330  19.449  16.611  18.138 -0.0064 -0.0691 -0.1774
 3731G2HFO Tail44331  19.601  16.644  17.964  0.2260 -0.0063  0.0220
 3732G2HFO Head44332  16.793  16.879  20.001  0.2520  0.2664  0.4473
 3732G2HFO Head44333  16.656  16.651  19.874 -0.1703 -0.2290 -0.0559
 3732G2HFO Head44334  16.152  17.064  19.553 -0.0545 -0.0335  0.1333
 3732G2HFO Head44335  16.295  16.834  19.727  0.1487 -0.1638  0.1797
 3732G2HFO Head44336  16.560  16.686  19.544  0.2621 -0.1303  0.0405
 3732G2HFO Head44337  15.914  16.547  19.721  0.0231 -0.0529  0.1151
 3732G2HFO Head44338  16.188  16.438  19.828 -0.3104 -0.2173  0.0620
 3732G2HFO Head44339  15.913  16.083  19.789  0.2356 -0.2257 -0.0101
 3732G2HFO Head44340  16.140  16.122  19.558  0.0089  0.4690  0.0217
 3732G2HFO Head44341  16.422  16.328  19.592  0.1911 -0.0474 -0.4247
 3732G2HFO link44342  16.528  16.486  19.391  0.1138 -0.2338  0.6156
 3732G2HFO link44343  16.758  16.423  19.227  0.2013  0.0671 -0.2338
 3732G2HFO Tail44344  16.800  16.120  19.094  0.0242  0.0790 -0.1770
 3732G2HFO Tail44345  17.084  15.996  19.259  0.3491  0.3497  0.0487
 3732G2HFO Tail44346  17.216  16.099  19.500 -0.2514  0.3891  0.1321
 3732G2HFO Tail44347  17.612  16.217  19.597 -0.0169  0.0040 -0.0415
 3732G2HFO Tail44348  16.542  15.966  19.280 -0.1507  0.3027  0.0622
 3732G2HFO Tail44349  16.383  15.801  19.173  0.2516  0.0755  0.0061
 3732G2HFO Tail44350  16.395  15.741  18.925 -0.0940  0.0802 -0.2099
 3732G2HFO Tail44351  16.407  15.728  18.672  0.0165  0.0290  0.1226
 3732G2HFO Tail44352  16.372  15.704  18.442  0.3207 -0.3119 -0.5820
 3733G2HFO Head44353  15.644  16.799  20.557 -0.0122  0.0299  0.3120
 3733G2HFO Head44354  15.594  17.096  20.733  0.3502  0.1398  0.4925
 3733G2HFO Head44355  15.163  17.317  20.788  0.0705 -0.0291 -0.0943
 3733G2HFO Head44356  15.379  17.509  20.629 -0.2562 -0.0696 -0.2172
 3733G2HFO Head44357  15.714  17.387  20.577  0.1302 -0.2131  0.3074
 3733G2HFO Head44358  15.056  16.991  20.239  0.1154 -0.1047 -0.0690
 3733G2HFO Head44359  15.302  17.090  20.406  0.1639  0.3737  0.1703
 3733G2HFO Head44360  15.511  16.853  19.862 -0.0357  0.1952 -0.2186
 3733G2HFO Head44361  15.577  16.907  20.138 -0.1257 -0.1189 -0.0325
 3733G2HFO Head44362  15.572  17.250  20.218 -0.0543 -0.1330  0.2196
 3733G2HFO link44363  15.784  17.359  20.338 -0.3024  0.0228  0.9095
 3733G2HFO link44364  15.977  17.534  20.221 -0.0093  0.4645  0.1575
 3733G2HFO Tail44365  16.283  17.524  20.360  0.5394 -0.1138  0.4528
 3733G2HFO Tail44366  16.186  17.588  20.674  0.1381 -0.1891 -0.2697
 3733G2HFO Tail44367  16.022  17.450  20.902 -0.1256  0.4315 -0.2432
 3733G2HFO Tail44368  15.946  17.032  21.001  0.1706 -0.0007  0.1105
 3733G2HFO Tail44369  16.427  17.838  20.289 -0.2766 -0.1158 -0.0580
 3733G2HFO Tail44370  16.365  17.952  20.052 -0.4550  0.0616  0.1714
 3733G2HFO Tail44371  16.126  18.035  20.027 -0.0983 -0.1207  0.1158
 3733G2HFO Tail44372  15.898  18.144  20.023 -0.1723 -0.0826  0.0855
 3733G2HFO Tail44373  15.725  18.279  20.085  0.0735 -0.0918  0.0229
 3734G2HFO Head44374  14.257  17.432  24.943 -0.1588  0.0499  0.1593
 3734G2HFO Head44375  14.378  17.529  25.199 -0.3578  0.0651 -0.4213
 3734G2HFO Head44376  14.153  17.079  25.304 -0.0542 -0.1313  0.4977
 3734G2HFO Head44377  14.437  17.098  25.228 -0.1525 -0.5246 -0.3385
 3734G2HFO Head44378  14.654  17.343  25.330 -0.0198  0.0036  0.0447
 3734G2HFO Head44379  14.127  17.756  25.528 -0.0705  0.1369 -0.2371
 3734G2HFO Head44380  14.186  17.457  25.592  0.0423 -0.5089 -0.2069
 3734G2HFO Head44381  13.976  17.089  25.813 -0.2157 -0.2793  0.1261
 3734G2HFO Head44382  14.320  17.080  25.740  0.2330 -0.2399  0.2150
 3734G2HFO Head44383  14.509  17.372  25.696 -0.4003  0.3806  0.4441
 3734G2HFO link44384  14.728  17.369  25.579 -0.3407  0.4224 -0.1312
 3734G2HFO link44385  14.994  17.365  25.681  0.4131 -0.2507  0.2543
 3734G2HFO Tail44386  15.246  17.225  25.537 -0.0466 -0.1682  0.2948
 3734G2HFO Tail44387  15.217  16.907  25.654 -0.2360  0.0066  0.1122
 3734G2HFO Tail44388  15.277  16.754  25.926 -0.3062 -0.0748  0.3440
 3734G2HFO Tail44389  15.509  16.415  26.085 -0.7451 -0.1708 -0.1500
 3734G2HFO Tail44390  15.127  17.215  25.196  0.1245  0.0622  0.0511
 3734G2HFO Tail44391  15.283  17.144  25.001  0.2294  0.0835 -0.0818
 3734G2HFO Tail44392  15.242  17.256  24.772 -0.3480 -0.2102 -0.0629
 3734G2HFO Tail44393  15.189  17.405  24.571  0.0601 -0.0091  0.3564
 3734G2HFO Tail44394  15.175  17.561  24.402 -0.2161 -0.2001 -0.0509
 3735G2HFO Head44395  16.453  17.993  19.019 -0.3882  0.3083  0.1812
 3735G2HFO Head44396  16.690  17.815  19.085 -0.0310  0.3034  0.6034
 3735G2HFO Head44397  16.202  17.604  19.632 -0.1952  0.0177  0.2353
 3735G2HFO Head44398  16.427  17.806  19.486 -0.2944  0.2339  0.1835
 3735G2HFO Head44399  16.743  17.686  19.402 -0.4751  0.1195  0.0058
 3735G2HFO Head44400  16.831  18.341  19.047  0.0421  0.0380  0.0811
 3735G2HFO Head44401  17.046  18.152  19.160  0.1734  0.0370 -0.4505
 3735G2HFO Head44402  16.467  18.206  19.649 -0.0680  0.2390  0.0379
 3735G2HFO Head44403  16.731  18.246  19.495  0.1737 -0.2267  0.0553
 3735G2HFO Head44404  16.989  18.016  19.491 -0.1117  0.1111  0.1445
 3735G2HFO link44405  16.958  17.762  19.551  0.1946 -0.0471 -0.0035
 3735G2HFO link44406  17.130  17.577  19.659  0.0889 -0.2103  0.2765
 3735G2HFO Tail44407  17.101  17.258  19.565  0.2633 -0.0408  0.2863
 3735G2HFO Tail44408  17.373  17.237  19.327  0.0487  0.1349  0.0433
 3735G2HFO Tail44409  17.613  17.416  19.222  0.2028 -0.1144  0.2997
 3735G2HFO Tail44410  18.023  17.523  19.344  0.0164  0.1912  0.0442
 3735G2HFO Tail44411  17.262  17.094  19.841  0.2185 -0.1655 -0.1354
 3735G2HFO Tail44412  17.358  16.843  19.808  0.2126 -0.2409 -0.0965
 3735G2HFO Tail44413  17.181  16.653  19.745  0.1258  0.1716 -0.1140
 3735G2HFO Tail44414  17.019  16.453  19.720 -0.0782 -0.1636 -0.0634
 3735G2HFO Tail44415  16.841  16.309  19.641  0.3108  0.0496  0.4565
 3736G2HFO Head44416  17.414  16.072  23.424  0.3184 -0.0450 -0.1688
 3736G2HFO Head44417  17.279  16.020  23.109  0.3672 -0.3410 -0.2724
 3736G2HFO Head44418  17.566  16.058  22.705 -0.0915 -0.3730 -0.4711
 3736G2HFO Head44419  17.450  15.804  22.691 -0.1015 -0.0041 -0.2108
 3736G2HFO Head44420  17.268  15.696  22.960  0.1582  0.2817 -0.3660
 3736G2HFO Head44421  17.964  15.927  23.037 -0.2887  0.0497 -0.0048
 3736G2HFO Head44422  17.835  15.650  22.960 -0.2164 -0.0292  0.3148
 3736G2HFO Head44423  17.985  15.194  22.843  0.3865  0.0383  0.1511
 3736G2HFO Head44424  17.792  15.226  23.125 -0.0183 -0.1576  0.1186
 3736G2HFO Head44425  17.591  15.517  23.173 -0.3777 -0.0753  0.3781
 3736G2HFO link44426  17.337  15.479  23.079 -0.6181 -0.3334  0.0406
 3736G2HFO link44427  17.203  15.239  23.109  0.0786 -0.2194 -0.3772
 3736G2HFO Tail44428  16.883  15.211  23.057  0.1568  0.1647  0.0495
 3736G2HFO Tail44429  16.783  15.328  23.376 -0.1020  0.1736 -0.1349
 3736G2HFO Tail44430  16.541  15.458  23.535  0.7899 -0.4271 -0.1105
 3736G2HFO Tail44431  16.423  15.857  23.634 -0.0760 -0.0089 -0.3912
 3736G2HFO Tail44432  16.846  15.473  22.848 -0.2745  0.1282  0.1761
 3736G2HFO Tail44433  16.796  15.735  22.908 -0.1582  0.0413 -0.1115
 3736G2HFO Tail44434  16.853  15.824  23.147  0.1366  0.0051  0.0305
 3736G2HFO Tail44435  16.896  15.948  23.372  0.0555  0.0267  0.0214
 3736G2HFO Tail44436  16.906  16.016  23.596 -0.1604  0.0818 -0.0878
 3737G2HFO Head44437  14.830  17.974  26.838 -0.1554 -0.3374  0.1887
 3737G2HFO Head44438  14.995  17.911  26.535 -0.0923  0.0510  0.1482
 3737G2HFO Head44439  14.972  18.264  26.217  0.2785  0.3723  0.1195
 3737G2HFO Head44440  15.258  18.127  26.265 -0.4307  0.1292 -0.1599
 3737G2HFO Head44441  15.350  17.907  26.530 -0.1689  0.1910 -0.1546
 3737G2HFO Head44442  15.445  17.054  27.059 -0.0845  0.0547 -0.1485
 3737G2HFO Head44443  15.447  17.371  26.956 -0.0946 -0.0276 -0.3169
 3737G2HFO Head44444  14.765  17.541  26.678  0.1184 -0.1697 -0.0353
 3737G2HFO Head44445  15.055  17.532  26.824 -0.0508  0.2987 -0.2358
 3737G2HFO Head44446  15.339  17.487  26.631 -0.4049  0.2901  0.0715
 3737G2HFO link44447  15.469  17.669  26.495 -0.3148  0.0529 -0.3271
 3737G2HFO link44448  15.651  17.602  26.292  0.0039  0.2161  0.4007
 3737G2HFO Tail44449  15.570  17.692  25.971 -0.1067  0.2953  0.1463
 3737G2HFO Tail44450  15.894  17.681  25.833 -0.0870 -0.1353 -0.1632
 3737G2HFO Tail44451  16.150  17.882  25.828 -0.0223  0.0587  0.1021
 3737G2HFO Tail44452  16.351  18.156  25.580 -0.0178  0.1500 -0.1103
 3737G2HFO Tail44453  15.562  18.037  26.001  0.2584 -0.1516  0.5082
 3737G2HFO Tail44454  15.789  18.163  25.999 -0.0311 -0.1065  0.2633
 3737G2HFO Tail44455  15.809  18.422  26.004 -0.2362 -0.0040 -0.1341
 3737G2HFO Tail44456  15.819  18.674  25.976  0.0190 -0.2065  0.1691
 3737G2HFO Tail44457  15.846  18.904  26.010  0.0900  0.0860 -0.2590
 3738G2HFO Head44458  19.616  18.641  21.217  0.0378  0.0730 -0.1511
 3738G2HFO Head44459  19.655  18.968  21.307 -0.1916  0.4117 -0.1376
 3738G2HFO Head44460  20.111  19.131  21.087  0.0358  0.2026 -0.0453
 3738G2HFO Head44461  19.811  19.325  21.139  0.0227  0.1519  0.0620
 3738G2HFO Head44462  19.480  19.220  21.148 -0.0737 -0.1602 -0.0777
 3738G2HFO Head44463  19.384  20.083  21.635  0.0867  0.0195 -0.1412
 3738G2HFO Head44464  19.320  19.758  21.660 -0.1021 -0.1847  0.0226
 3738G2HFO Head44465  19.862  19.750  21.166  0.0174  0.1679  0.0017
 3738G2HFO Head44466  19.583  19.802  21.278  0.0265  0.4752  0.0235
 3738G2HFO Head44467  19.443  19.522  21.421  0.0365  0.0255 -0.1936
 3738G2HFO link44468  19.289  19.355  21.281 -0.4359  0.0460  0.1664
 3738G2HFO link44469  19.057  19.216  21.368  0.1032  0.2769 -0.1590
 3738G2HFO Tail44470  18.808  19.124  21.162  0.1087  0.4882  0.1897
 3738G2HFO Tail44471  18.539  19.253  21.343 -0.0937  0.0964  0.2726
 3738G2HFO Tail44472  18.217  19.327  21.273  0.2065  0.2980  0.0179
 3738G2HFO Tail44473  17.945  19.660  21.267 -0.3463  0.0300  0.2391
 3738G2HFO Tail44474  18.831  19.382  20.921 -0.4320  0.2345  0.2086
 3738G2HFO Tail44475  18.936  19.627  20.971 -0.2241 -0.3465 -0.2135
 3738G2HFO Tail44476  19.194  19.662  20.928 -0.0295  0.0496  0.1247
 3738G2HFO Tail44477  19.447  19.648  20.891 -0.2401  0.0986 -0.2806
 3738G2HFO Tail44478  19.658  19.633  20.806  0.2794 -0.1934 -0.2350
 3739G2HFO Head44479  16.693  21.433  22.863  0.0739  0.0745  0.0212
 3739G2HFO Head44480  16.855  21.228  22.689  0.0480 -0.2386 -0.0140
 3739G2HFO Head44481  17.255  21.149  23.284  0.4048 -0.0623  0.4059
 3739G2HFO Head44482  16.989  21.138  23.089 -0.2495 -0.1735  0.0342
 3739G2HFO Head44483  16.973  20.919  22.809 -0.1727  0.7695  0.1202
 3739G2HFO Head44484  16.212  21.095  22.508  0.0147 -0.0797  0.3437
 3739G2HFO Head44485  16.447  20.900  22.482  0.2096 -0.4773 -0.5031
 3739G2HFO Head44486  16.099  20.617  22.582  0.0144 -0.4056  0.1030
 3739G2HFO Head44487  16.367  20.520  22.708 -0.0571  0.3330 -0.1627
 3739G2HFO Head44488  16.569  20.786  22.791 -0.4777  0.0189  0.0108
 3739G2HFO link44489  16.813  20.702  22.821 -0.0078 -0.3939 -0.1387
 3739G2HFO link44490  16.867  20.430  22.749 -0.1892 -0.3436  0.0618
 3739G2HFO Tail44491  16.972  20.339  22.446  0.0327 -0.2703 -0.5055
 3739G2HFO Tail44492  17.171  20.071  22.516 -0.0888 -0.3349 -0.1260
 3739G2HFO Tail44493  17.478  20.041  22.493  0.0834 -0.0089 -0.5321
 3739G2HFO Tail44494  17.815  20.262  22.357 -0.3545  0.0843  0.4554
 3739G2HFO Tail44495  16.680  20.145  22.322 -0.2880 -0.1466  0.1782
 3739G2HFO Tail44496  16.630  19.908  22.420 -0.3978 -0.2099 -0.1223
 3739G2HFO Tail44497  16.731  19.840  22.652 -0.0955  0.0189 -0.0050
 3739G2HFO Tail44498  16.858  19.795  22.864 -0.1120 -0.0548 -0.0260
 3739G2HFO Tail44499  16.981  19.694  23.045  0.2520 -0.0299 -0.0198
 3740G2HFO Head44500  18.394  17.069  19.227  0.0087 -0.1798 -0.0369
 3740G2HFO Head44501  18.274  17.143  19.523  0.2526 -0.1474  0.6591
 3740G2HFO Head44502  18.055  17.330  20.129 -0.1759  0.2418 -0.1066
 3740G2HFO Head44503  18.312  17.242  20.022  0.1509  0.0036 -0.0716
 3740G2HFO Head44504  18.327  16.963  19.817  0.0145  0.5345  0.0324
 3740G2HFO Head44505  17.691  16.406  20.048 -0.4257 -0.0880  0.3080
 3740G2HFO Head44506  17.683  16.691  20.097 -0.0634  0.1144  0.3637
 3740G2HFO Head44507  17.796  17.234  19.615  0.0107 -0.4079  0.2177
 3740G2HFO Head44508  17.746  17.115  19.882  0.2986  0.0329 -0.1956
 3740G2HFO Head44509  17.958  16.877  20.023 -0.1867  0.3422 -0.1147
 3740G2HFO link44510  18.157  16.770  19.872 -0.1401  0.6962  0.3710
 3740G2HFO link44511  18.185  16.491  19.800  0.2062 -0.3003 -0.1504
 3740G2HFO Tail44512  18.476  16.376  19.700  0.4584  0.2458 -0.3706
 3740G2HFO Tail44513  18.407  16.046  19.663  0.1016  0.2258  0.0591
 3740G2HFO Tail44514  18.568  15.787  19.549  0.2233  0.4099 -0.4122
 3740G2HFO Tail44515  18.579  15.379  19.704 -0.0534 -0.1659  0.3006
 3740G2HFO Tail44516  18.611  16.371  20.026 -0.2861  0.2083 -0.0371
 3740G2HFO Tail44517  18.600  16.572  20.190  0.0834 -0.0844  0.1813
 3740G2HFO Tail44518  18.700  16.809  20.105  0.3149 -0.2188  0.1258
 3740G2HFO Tail44519  18.742  17.038  20.002 -0.5125 -0.1814  0.1538
 3740G2HFO Tail44520  18.732  17.238  19.890  0.1150  0.3509  0.1571
 3741G2HFO Head44521  17.482  18.589  17.620  0.0345 -0.0673 -0.4553
 3741G2HFO Head44522  17.610  18.419  17.812 -0.2385  0.1555 -0.2552
 3741G2HFO Head44523  17.949  18.181  18.422  0.1099 -0.0743 -0.0403
 3741G2HFO Head44524  17.681  18.240  18.241  0.1028 -0.1703  0.0381
 3741G2HFO Head44525  17.674  18.569  18.134 -0.1951 -0.0246  0.1570
 3741G2HFO Head44526  17.225  19.350  18.313  0.3502  0.2708 -0.0717
 3741G2HFO Head44527  17.167  19.142  18.073 -0.3682  0.2698  0.1913
 3741G2HFO Head44528  16.830  18.831  17.863  0.0250  0.2560 -0.0948
 3741G2HFO Head44529  17.125  18.736  17.837 -0.1820 -0.1570 -0.1527
 3741G2HFO Head44530  17.382  18.857  18.042 -0.1121 -0.0859 -0.1677
 3741G2HFO link44531  17.486  18.719  18.239  0.0316  0.1968  0.2016
 3741G2HFO link44532  17.409  18.703  18.513 -0.1181 -0.0653  0.2128
 3741G2HFO Tail44533  17.627  18.585  18.722 -0.0977  0.1465  0.1828
 3741G2HFO Tail44534  17.539  18.266  18.728 -0.1490  0.5411  0.2673
 3741G2HFO Tail44535  17.429  18.057  18.518 -0.1091  0.2634 -0.1016
 3741G2HFO Tail44536  17.474  17.667  18.363  0.0303 -0.0353  0.0611
 3741G2HFO Tail44537  17.493  18.733  19.003  0.0666 -0.3012  0.1774
 3741G2HFO Tail44538  17.425  18.600  19.217 -0.0537  0.4990  0.4762
 3741G2HFO Tail44539  17.521  18.356  19.269 -0.0782  0.0818 -0.1406
 3741G2HFO Tail44540  17.656  18.149  19.311 -0.1023 -0.0641 -0.0351
 3741G2HFO Tail44541  17.795  17.959  19.277 -0.0136 -0.1351 -0.1863
 3742G2HFO Head44542  14.115  14.698  23.683  0.1759 -0.1325  0.0811
 3742G2HFO Head44543  14.353  14.945  23.648 -0.0144 -0.1117 -0.4322
 3742G2HFO Head44544  13.947  15.124  23.892 -0.0282 -0.0811  0.1564
 3742G2HFO Head44545  14.179  14.998  24.041  0.0512  0.1291  0.1042
 3742G2HFO Head44546  14.521  15.037  23.947  0.2052 -0.5031 -0.0194
 3742G2HFO Head44547  14.451  14.882  24.413  0.2098  0.3033 -0.0255
 3742G2HFO Head44548  14.403  15.189  24.439  0.0705  0.0349  0.0175
 3742G2HFO Head44549  14.140  15.758  24.047 -0.2129  0.0615  0.1172
 3742G2HFO Head44550  14.210  15.509  24.175  0.4558 -0.2579 -0.2968
 3742G2HFO Head44551  14.535  15.394  24.200  0.0315  0.2561 -0.4050
 3742G2HFO link44552  14.637  15.277  23.982  0.0861 -0.0202  0.0191
 3742G2HFO link44553  14.896  15.326  23.856 -0.4461  0.0418  0.1512
 3742G2HFO Tail44554  15.177  15.187  23.962  0.5016 -0.1557  0.1732
 3742G2HFO Tail44555  15.418  15.343  23.777 -0.0019  0.1081  0.0341
 3742G2HFO Tail44556  15.560  15.291  23.510 -0.2203  0.1362 -0.2687
 3742G2HFO Tail44557  15.743  14.991  23.262  0.0480 -0.0595 -0.2646
 3742G2HFO Tail44558  15.185  15.391  24.252  0.1437 -0.1769  0.0237
 3742G2HFO Tail44559  14.969  15.537  24.315  0.0629  0.1396 -0.0914
 3742G2HFO Tail44560  14.910  15.592  24.567  0.2327 -0.0482  0.1670
 3742G2HFO Tail44561  14.847  15.598  24.813  0.2548 -0.4064  0.1956
 3742G2HFO Tail44562  14.775  15.537  25.026 -0.1030 -0.1811  0.2382
 3743G2HFO Head44563  19.043  20.826  22.667 -0.0722  0.0504 -0.3092
 3743G2HFO Head44564  19.190  20.661  22.450 -0.1169  0.0638 -0.1565
 3743G2HFO Head44565  19.477  20.632  22.917  0.1952  0.0489  0.6745
 3743G2HFO Head44566  19.252  20.441  22.827 -0.0643 -0.1733 -0.2105
 3743G2HFO Head44567  19.193  20.314  22.501 -0.0801 -0.0429 -0.1945
 3743G2HFO Head44568  19.642  19.915  23.046 -0.2915 -0.2573  0.0115
 3743G2HFO Head44569  19.610  20.184  22.848  0.4101  0.1874  0.2243
 3743G2HFO Head44570  19.693  20.678  22.320 -0.0796  0.1525 -0.2879
 3743G2HFO Head44571  19.788  20.433  22.510  0.2526  0.1702 -0.0103
 3743G2HFO Head44572  19.597  20.144  22.505  0.2593  0.1709  0.3400
 3743G2HFO link44573  19.358  20.132  22.398 -0.2093  0.0915 -0.3857
 3743G2HFO link44574  19.302  19.966  22.168  0.4260 -0.0115  0.3283
 3743G2HFO Tail44575  19.023  19.779  22.141  0.0563  0.0718 -0.3436
 3743G2HFO Tail44576  18.873  19.873  22.449 -0.0199  0.2522 -0.1164
 3743G2HFO Tail44577  18.739  19.730  22.692 -0.2837  0.0984  0.1944
 3743G2HFO Tail44578  18.780  19.384  22.958  0.1914 -0.2619  0.0669
 3743G2HFO Tail44579  18.836  19.960  21.909 -0.1677  0.2998  0.2482
 3743G2HFO Tail44580  18.652  20.142  21.970  0.1819 -0.1914 -0.1065
 3743G2HFO Tail44581  18.553  20.131  22.205  0.2583 -0.2000  0.0347
 3743G2HFO Tail44582  18.497  20.153  22.446  0.1993  0.2324  0.0008
 3743G2HFO Tail44583  18.455  20.105  22.675 -0.3957 -0.0019 -0.2981
 3744G2HFO Head44584  19.203  20.676  24.149  0.0701  0.3927  0.1495
 3744G2HFO Head44585  19.257  20.397  24.087 -0.1340  0.2184  0.1444
 3744G2HFO Head44586  18.808  19.892  24.115 -0.1712 -0.2035  0.0066
 3744G2HFO Head44587  19.114  20.008  24.102  0.1459  0.2293  0.4659
 3744G2HFO Head44588  19.249  20.183  24.366 -0.3831 -0.3151 -0.1241
 3744G2HFO Head44589  19.402  20.473  25.187 -0.4865 -0.2586 -0.1668
 3744G2HFO Head44590  19.156  20.494  25.006  0.1888  0.1448  0.1817
 3744G2HFO Head44591  19.200  20.992  24.765 -0.0661 -0.1571  0.0423
 3744G2HFO Head44592  19.052  20.759  24.714  0.4342 -0.0681 -0.1894
 3744G2HFO Head44593  19.201  20.480  24.659 -0.4111  0.2464 -0.0108
 3744G2HFO link44594  19.085  20.277  24.554  0.3369  0.1593  0.1446
 3744G2HFO link44595  18.872  20.132  24.666 -0.2147 -0.0241  0.3103
 3744G2HFO Tail44596  18.903  19.897  24.896 -0.4865 -0.4035  0.3038
 3744G2HFO Tail44597  18.988  20.114  25.168  0.2786  0.3660 -0.0830
 3744G2HFO Tail44598  18.804  20.350  25.309 -0.5059  0.0892  0.3010
 3744G2HFO Tail44599  18.871  20.705  25.568 -0.1153  0.4089  0.1611
 3744G2HFO Tail44600  18.568  19.857  24.960 -0.0039  0.1989  0.2786
 3744G2HFO Tail44601  18.394  19.935  24.786 -0.1543  0.0126  0.0588
 3744G2HFO Tail44602  18.231  19.767  24.706  0.0510 -0.0552  0.0807
 3744G2HFO Tail44603  18.077  19.573  24.615  0.1672  0.1389 -0.0376
 3744G2HFO Tail44604  17.901  19.453  24.528 -0.3273 -0.0038  0.4450
 3745G2HFO Head44605  14.813  13.478  22.887  0.0118 -0.1277  0.0827
 3745G2HFO Head44606  14.780  13.521  22.602  0.1390  0.1050 -0.0173
 3745G2HFO Head44607  14.404  13.492  22.367  0.1733  0.0049 -0.0888
 3745G2HFO Head44608  14.501  13.776  22.401 -0.3107  0.0709  0.1942
 3745G2HFO Head44609  14.834  13.833  22.467 -0.0828  0.0623 -0.2369
 3745G2HFO Head44610  14.180  14.053  22.485 -0.0218  0.3153 -0.0156
 3745G2HFO Head44611  14.392  14.235  22.660  0.1370 -0.0239  0.3367
 3745G2HFO Head44612  14.348  13.669  22.823 -0.1690  0.0388 -0.0887
 3745G2HFO Head44613  14.527  13.882  22.957  0.0717 -0.5693 -0.3825
 3745G2HFO Head44614  14.702  14.118  22.757  0.3198  0.0405 -0.8172
 3745G2HFO link44615  14.901  14.034  22.598 -0.3990 -0.0114 -0.2066
 3745G2HFO link44616  15.136  14.202  22.536  0.1554 -0.3536  0.3166
 3745G2HFO Tail44617  15.167  14.341  22.252 -0.2810  0.0088 -0.0383
 3745G2HFO Tail44618  15.486  14.484  22.298 -0.8032 -0.0688 -0.0924
 3745G2HFO Tail44619  15.775  14.398  22.185 -0.3377  0.1018  0.1275
 3745G2HFO Tail44620  16.181  14.547  22.153 -0.0646 -0.2548  0.1037
 3745G2HFO Tail44621  14.962  14.645  22.318 -0.2427  0.0148  0.0034
 3745G2HFO Tail44622  14.825  14.675  22.540  0.1342 -0.2309 -0.4118
 3745G2HFO Tail44623  14.864  14.877  22.697 -0.0625 -0.0495  0.0780
 3745G2HFO Tail44624  14.852  15.059  22.874 -0.0547  0.1721  0.1433
 3745G2HFO Tail44625  14.880  15.185  23.071 -0.2838 -0.3507 -0.0975
 3746G2HFO Head44626  19.316  18.880  25.613 -0.1364  0.1823 -0.1631
 3746G2HFO Head44627  19.013  18.945  25.638  0.2606 -0.2648 -0.0735
 3746G2HFO Head44628  18.930  19.500  25.198 -0.0719 -0.0628  0.1318
 3746G2HFO Head44629  18.819  19.293  25.406 -0.0303 -0.2947  0.2240
 3746G2HFO Head44630  18.804  18.943  25.368 -0.2334  0.0106  0.2416
 3746G2HFO Head44631  19.542  18.725  24.726  0.2502 -0.0454  0.1215
 3746G2HFO Head44632  19.346  18.570  24.933 -0.2468 -0.0235 -0.4224
 3746G2HFO Head44633  19.366  19.255  25.233 -0.0270 -0.0295 -0.2182
 3746G2HFO Head44634  19.390  18.995  25.075 -0.1319  0.2110  0.1971
 3746G2HFO Head44635  19.148  18.751  25.163  0.1328 -0.0035  0.1601
 3746G2HFO link44636  18.887  18.824  25.129 -0.2475 -0.1697  0.0911
 3746G2HFO link44637  18.711  18.688  24.947 -0.3661 -0.3285 -0.1254
 3746G2HFO Tail44638  18.417  18.554  25.004  0.0288  0.1233  0.1346
 3746G2HFO Tail44639  18.247  18.783  24.819  0.2412 -0.1289  0.0247
 3746G2HFO Tail44640  18.172  18.823  24.530 -0.1366  0.1184 -0.2130
 3746G2HFO Tail44641  18.221  19.159  24.252  0.0479  0.1651 -0.2909
 3746G2HFO Tail44642  18.364  18.658  25.328  0.1889  0.3583 -0.2080
 3746G2HFO Tail44643  18.292  18.490  25.511  0.3271  0.3768 -0.0693
 3746G2HFO Tail44644  18.481  18.411  25.663 -0.1245 -0.0799  0.0994
 3746G2HFO Tail44645  18.661  18.368  25.835 -0.1150 -0.3055 -0.1927
 3746G2HFO Tail44646  18.870  18.365  25.950 -0.0301 -0.0203  0.1924
 3747G2HFO Head44647  14.688  14.881  20.796  0.0550  0.1271 -0.1507
 3747G2HFO Head44648  14.918  15.080  20.640 -0.2179 -0.0952  0.0366
 3747G2HFO Head44649  14.908  15.085  20.129  0.1728 -0.2282 -0.4307
 3747G2HFO Head44650  14.917  15.388  20.284 -0.1681 -0.2457  0.2747
 3747G2HFO Head44651  14.869  15.431  20.606 -0.1756  0.1860 -0.1100
 3747G2HFO Head44652  15.332  16.277  20.783  0.1847 -0.3253  0.2940
 3747G2HFO Head44653  15.359  15.985  20.756 -0.3895  0.0758 -0.1885
 3747G2HFO Head44654  15.477  16.085  20.352 -0.3735  0.1628 -0.1252
 3747G2HFO Head44655  15.213  15.904  20.362  0.1433 -0.3231 -0.1028
 3747G2HFO Head44656  15.071  15.809  20.659  0.4313  0.1651 -0.3665
 3747G2HFO link44657  15.034  15.572  20.756  0.1048  0.2063  0.0260
 3747G2HFO link44658  15.216  15.456  20.935  0.2429 -0.0154  0.1732
 3747G2HFO Tail44659  15.535  15.513  20.879  0.1270  0.0539  0.3670
 3747G2HFO Tail44660  15.648  15.180  20.827  0.0559  0.1517 -0.4839
 3747G2HFO Tail44661  15.703  14.939  21.029  0.2837  0.1528 -0.0335
 3747G2HFO Tail44662  15.969  14.831  21.348  0.1595  0.3220 -0.2235
 3747G2HFO Tail44663  15.471  15.622  20.555 -0.1374  0.3439  0.1110
 3747G2HFO Tail44664  15.285  15.502  20.429  0.1288  0.1954 -0.0117
 3747G2HFO Tail44665  15.295  15.239  20.444  0.0002 -0.1847  0.1135
 3747G2HFO Tail44666  15.335  14.985  20.472 -0.0020 -0.1384 -0.0350
 3747G2HFO Tail44667  15.333  14.751  20.479  0.2181 -0.3537 -0.0400
 3748G2HFO Head44668  18.134  19.184  18.905  0.1468  0.0635 -0.1213
 3748G2HFO Head44669  17.916  19.019  18.946  0.0690 -0.1598 -0.1149
 3748G2HFO Head44670  17.337  19.005  19.455 -0.0490 -0.0357 -0.2350
 3748G2HFO Head44671  17.600  19.061  19.282 -0.0255 -0.2451 -0.2498
 3748G2HFO Head44672  17.911  18.864  19.253 -0.0662 -0.3736 -0.1483
 3748G2HFO Head44673  17.965  18.761  18.490 -0.0202  0.0783 -0.0198
 3748G2HFO Head44674  18.087  18.624  18.772 -0.2295  0.2399 -0.3083
 3748G2HFO Head44675  18.226  18.087  19.113  0.1704 -0.0073  0.0309
 3748G2HFO Head44676  18.006  18.182  18.969  0.0960  0.4861  0.1711
 3748G2HFO Head44677  17.883  18.511  19.037 -0.6635  0.2033 -0.0497
 3748G2HFO link44678  17.918  18.616  19.267 -0.1972  0.1353  0.5165
 3748G2HFO link44679  18.072  18.456  19.449  0.2301 -0.1832  0.0008
 3748G2HFO Tail44680  18.008  18.466  19.764 -0.4512  0.0615  0.0721
 3748G2HFO Tail44681  18.291  18.364  19.921 -0.0104 -0.0825 -0.2716
 3748G2HFO Tail44682  18.451  18.424  20.211  0.0938  0.3522  0.0111
 3748G2HFO Tail44683  18.390  18.372  20.639 -0.3338 -0.2009 -0.0126
 3748G2HFO Tail44684  17.775  18.206  19.797  0.3174  0.1163 -0.1127
 3748G2HFO Tail44685  17.767  18.064  20.010  0.2700  0.0160  0.1207
 3748G2HFO Tail44686  17.588  18.116  20.197  0.1258  0.0331  0.2835
 3748G2HFO Tail44687  17.394  18.179  20.340 -0.1464 -0.2426  0.0054
 3748G2HFO Tail44688  17.265  18.243  20.519 -0.1035 -0.1057 -0.3767
 3749G2HFO Head44689  15.446  12.690  23.107 -0.1685 -0.0226 -0.2040
 3749G2HFO Head44690  15.452  12.923  22.898  0.3197 -0.0215  0.1999
 3749G2HFO Head44691  15.485  13.191  23.548  0.3452 -0.1776 -0.3210
 3749G2HFO Head44692  15.429  13.069  23.280  0.1298 -0.1655  0.3542
 3749G2HFO Head44693  15.593  13.230  23.007  0.1840  0.0070  0.0010
 3749G2HFO Head44694  15.039  13.256  23.384  0.0208 -0.2761 -0.1041
 3749G2HFO Head44695  15.080  13.194  23.077 -0.6694 -0.2780  0.1898
 3749G2HFO Head44696  14.891  13.102  22.604  0.3780  0.0458 -0.0252
 3749G2HFO Head44697  15.142  13.242  22.597  0.1474  0.4193  0.4225
 3749G2HFO Head44698  15.274  13.415  22.882  0.0843  0.2318 -0.2325
 3749G2HFO link44699  15.507  13.456  22.938 -0.1711 -0.4158  0.1189
 3749G2HFO link44700  15.643  13.708  22.948 -0.0834 -0.4552  0.0545
 3749G2HFO Tail44701  15.927  13.691  23.112  0.3826  0.3699  0.1484
 3749G2HFO Tail44702  15.981  14.007  23.250  0.2024  0.1442  0.0257
 3749G2HFO Tail44703  15.912  14.277  23.120  0.0079  0.0966  0.1823
 3749G2HFO Tail44704  15.561  14.554  23.149  0.0206  0.0286  0.3188
 3749G2HFO Tail44705  15.830  13.478  23.378  0.6918  0.2964 -0.1754
 3749G2HFO Tail44706  16.008  13.426  23.580  0.1472  0.2122  0.5223
 3749G2HFO Tail44707  16.171  13.232  23.551  0.0130  0.0714 -0.2330
 3749G2HFO Tail44708  16.352  13.059  23.517 -0.0349  0.1401  0.0213
 3749G2HFO Tail44709  16.551  12.941  23.510 -0.0705  0.2264  0.3389
 3750G2HFO Head44710  19.722  15.860  17.674 -0.0578  0.2263 -0.1519
 3750G2HFO Head44711  19.464  15.983  17.770  0.2119  0.4471  0.1620
 3750G2HFO Head44712  18.993  16.427  17.870  0.2430  0.1469 -0.0983
 3750G2HFO Head44713  19.270  16.328  17.832 -0.1297  0.0653 -0.0902
 3750G2HFO Head44714  19.465  16.168  18.076 -0.4915  0.0212  0.1309
 3750G2HFO Head44715  20.152  16.539  17.792  0.2161 -0.1268  0.0358
 3750G2HFO Head44716  20.150  16.285  17.940 -0.0094  0.1879  0.5942
 3750G2HFO Head44717  20.320  15.873  18.037 -0.2286  0.0717 -0.1843
 3750G2HFO Head44718  20.018  15.852  18.084 -0.2103  0.1440 -0.4766
 3750G2HFO Head44719  19.848  16.142  17.997  0.2045 -0.1872  0.2978
 3750G2HFO link44720  19.677  16.271  18.154 -0.1624 -0.4940  0.4656
 3750G2HFO link44721  19.708  16.324  18.433  0.0323 -0.2304 -0.1583
 3750G2HFO Tail44722  19.468  16.268  18.635  0.0239 -0.0056  0.4726
 3750G2HFO Tail44723  19.646  16.156  18.912 -0.2158 -0.1718  0.0285
 3750G2HFO Tail44724  19.634  15.893  19.088 -0.1019 -0.0355  0.0758
 3750G2HFO Tail44725  19.728  15.477  19.027  0.0608  0.0686 -0.0758
 3750G2HFO Tail44726  19.365  15.956  18.515  0.1455 -0.0977  0.0262
 3750G2HFO Tail44727  19.515  15.806  18.363  0.1816 -0.1186  0.0753
 3750G2HFO Tail44728  19.400  15.688  18.170 -0.2055  0.1229  0.1944
 3750G2HFO Tail44729  19.288  15.583  17.966 -0.0339 -0.1004 -0.1215
 3750G2HFO Tail44730  19.213  15.540  17.746  0.0356  0.2539  0.0952
 3751G2HFO Head44731  19.831  20.222  22.101 -0.3028 -0.0957 -0.2011
 3751G2HFO Head44732  19.869  19.915  22.208  0.7213  0.1287 -0.2137
 3751G2HFO Head44733  20.241  19.329  22.068 -0.1987 -0.4617 -0.3553
 3751G2HFO Head44734  20.103  19.601  21.981  0.1838  0.0290  0.2794
 3751G2HFO Head44735  19.754  19.659  22.017 -0.3427 -0.1991 -0.3815
 3751G2HFO Head44736  20.121  18.857  22.363 -0.0972 -0.1437 -0.2868
 3751G2HFO Head44737  19.886  19.073  22.363 -0.3216 -0.4672 -0.1530
 3751G2HFO Head44738  19.756  18.724  21.954 -0.0238 -0.0618  0.2422
 3751G2HFO Head44739  19.585  18.937  22.019 -0.7109 -0.0079 -0.0897
 3751G2HFO Head44740  19.737  19.257  22.091 -0.2353  0.1940 -0.0946
 3751G2HFO link44741  19.607  19.469  22.113 -0.3084  0.1493  0.1363
 3751G2HFO link44742  19.332  19.477  22.055 -0.1260 -0.1336 -0.0672
 3751G2HFO Tail44743  19.182  19.390  21.767 -0.3081 -0.1939  0.0658
 3751G2HFO Tail44744  18.856  19.456  21.892  0.1256 -0.0460  0.2743
 3751G2HFO Tail44745  18.595  19.560  21.719 -0.2198  0.3144 -0.2587
 3751G2HFO Tail44746  18.350  19.922  21.665  0.1334  0.0541  0.2745
 3751G2HFO Tail44747  19.198  19.044  21.807  0.0327 -0.0779  0.2597
 3751G2HFO Tail44748  19.350  18.895  21.663 -0.1977 -0.1284 -0.1958
 3751G2HFO Tail44749  19.233  18.746  21.496  0.0723  0.1292  0.2137
 3751G2HFO Tail44750  19.104  18.588  21.340 -0.2839 -0.1526 -0.0632
 3751G2HFO Tail44751  18.960  18.486  21.186  0.2885  0.0181 -0.0112
 3752G2HFO Head44752  16.188  18.856  19.542  0.2273 -0.0039 -0.2528
 3752G2HFO Head44753  16.421  18.998  19.630 -0.2988 -0.0141  0.3694
 3752G2HFO Head44754  16.033  19.136  19.911  0.4247  0.1643 -0.3137
 3752G2HFO Head44755  16.259  18.918  20.048  0.1287 -0.1869  0.3833
 3752G2HFO Head44756  16.579  18.897  19.923 -0.3541 -0.1437  0.0602
 3752G2HFO Head44757  16.303  19.470  19.702 -0.1200  0.1439 -0.1021
 3752G2HFO Head44758  16.597  19.431  19.744  0.6503  0.3379 -0.1052
 3752G2HFO Head44759  17.027  19.618  19.617  0.1843 -0.5702 -0.1825
 3752G2HFO Head44760  17.000  19.452  19.904 -0.3920  0.0888 -0.0768
 3752G2HFO Head44761  16.733  19.280  20.040  0.4360  0.0875 -0.1237
 3752G2HFO link44762  16.774  19.026  20.050 -0.1602 -0.2536 -0.3135
 3752G2HFO link44763  17.050  18.926  20.062 -0.1414  0.3387  0.0646
 3752G2HFO Tail44764  17.169  18.714  19.846 -0.1557  0.1600 -0.4706
 3752G2HFO Tail44765  17.411  18.546  20.031 -0.0130  0.1216 -0.3467
 3752G2HFO Tail44766  17.697  18.587  20.147  0.0802 -0.2837 -0.0723
 3752G2HFO Tail44767  17.958  18.407  20.433  0.1289 -0.0792  0.0792
 3752G2HFO Tail44768  16.935  18.439  19.874  0.1351 -0.2131  0.0180
 3752G2HFO Tail44769  17.001  18.205  19.986  0.3083  0.2198  0.3411
 3752G2HFO Tail44770  16.866  18.004  19.916 -0.0988  0.4146 -0.1191
 3752G2HFO Tail44771  16.747  17.784  19.896  0.3491  0.0563 -0.0560
 3752G2HFO Tail44772  16.639  17.583  19.830 -0.1601  0.2130 -0.0474
 3753G2HFO Head44773  16.497  16.489  22.955 -0.2956 -0.1094 -0.0354
 3753G2HFO Head44774  16.639  16.204  22.878  0.0392  0.0040  0.0528
 3753G2HFO Head44775  16.227  16.213  22.317  0.0801 -0.0909  0.0238
 3753G2HFO Head44776  16.287  16.197  22.631  0.0620 -0.5012  0.3502
 3753G2HFO Head44777  16.423  15.928  22.785  0.0108 -0.1920  0.0468
 3753G2HFO Head44778  15.997  16.358  22.991 -0.2822 -0.5743  0.2585
 3753G2HFO Head44779  15.868  16.104  22.867 -0.3413 -0.8066  0.3399
 3753G2HFO Head44780  16.084  15.638  22.308  0.2865 -0.0473 -0.4675
 3753G2HFO Head44781  16.036  15.866  22.506  0.1247  0.0570 -0.1642
 3753G2HFO Head44782  16.057  15.819  22.855  0.1204 -0.2100  0.3776
 3753G2HFO link44783  16.293  15.807  22.968  0.2044  0.3826  0.2828
 3753G2HFO link44784  16.381  15.590  23.137 -0.2012 -0.1655 -0.1522
 3753G2HFO Tail44785  16.175  15.386  23.301 -0.0733 -0.2030  0.1161
 3753G2HFO Tail44786  16.345  15.076  23.291 -0.2964  0.1439  0.0315
 3753G2HFO Tail44787  16.506  14.946  23.071 -0.1916  0.1742  0.4263
 3753G2HFO Tail44788  16.872  14.715  23.025 -0.0480  0.2563  0.2828
 3753G2HFO Tail44789  15.929  15.355  23.044 -0.0074  0.1744 -0.0301
 3753G2HFO Tail44790  15.979  15.343  22.785 -0.1415 -0.0795 -0.0124
 3753G2HFO Tail44791  16.211  15.426  22.710  0.0038  0.0032  0.1463
 3753G2HFO Tail44792  16.442  15.482  22.601 -0.1743  0.1085 -0.1630
 3753G2HFO Tail44793  16.648  15.481  22.496  0.3069 -0.0349  0.3456
 3754G2HFO Head44794  18.322  16.307  25.551 -0.0281  0.0234  0.1570
 3754G2HFO Head44795  18.126  16.469  25.657 -0.2488  0.0733  0.1626
 3754G2HFO Head44796  18.304  16.194  26.045  0.0048  0.0241 -0.0797
 3754G2HFO Head44797  18.048  16.316  26.081 -0.1512 -0.4253  0.0312
 3754G2HFO Head44798  17.830  16.343  25.800 -0.0561  0.3412  0.0430
 3754G2HFO Head44799  17.308  16.735  26.292 -0.2989  0.2284 -0.0885
 3754G2HFO Head44800  17.551  16.857  26.143  0.1464  0.3915 -0.1782
 3754G2HFO Head44801  18.254  16.796  25.927 -0.1605 -0.5164 -0.1396
 3754G2HFO Head44802  17.999  16.751  26.070  0.1342 -0.1140  0.0903
 3754G2HFO Head44803  17.701  16.721  25.877 -0.2523 -0.2020  0.3678
 3754G2HFO link44804  17.604  16.479  25.814  0.0235  0.1702  0.2439
 3754G2HFO link44805  17.410  16.449  25.604 -0.3255 -0.3733  0.0804
 3754G2HFO Tail44806  17.116  16.288  25.637 -0.6565 -0.0474 -0.1918
 3754G2HFO Tail44807  16.947  16.577  25.710 -0.1167  0.4074 -0.4214
 3754G2HFO Tail44808  16.668  16.693  25.540 -0.0654 -0.0799  0.3008
 3754G2HFO Tail44809  16.502  17.049  25.390 -0.1931 -0.1864  0.2057
 3754G2HFO Tail44810  17.032  16.195  25.319  0.1333  0.4487  0.1355
 3754G2HFO Tail44811  16.943  16.369  25.145 -0.1815  0.2087 -0.1644
 3754G2HFO Tail44812  16.999  16.620  25.196 -0.0718 -0.1208  0.0801
 3754G2HFO Tail44813  17.009  16.871  25.264  0.0294  0.1647  0.1972
 3754G2HFO Tail44814  17.032  17.068  25.390 -0.2100  0.1250  0.1493
 3755G2HFO Head44815  16.223  14.963  17.960 -0.0554  0.1526  0.0608
 3755G2HFO Head44816  16.339  14.993  18.248  0.2051  0.3186 -0.1070
 3755G2HFO Head44817  16.017  15.617  18.220 -0.1876 -0.4582 -0.0911
 3755G2HFO Head44818  16.177  15.385  18.192  0.0102 -0.2364 -0.4278
 3755G2HFO Head44819  16.449  15.286  18.400  0.1388  0.0435  0.5238
 3755G2HFO Head44820  16.494  14.770  18.636 -0.0491 -0.1685  0.0328
 3755G2HFO Head44821  16.743  14.826  18.453 -0.2959  0.2581  0.3091
 3755G2HFO Head44822  16.711  14.716  17.978  0.2809  0.0243 -0.1950
 3755G2HFO Head44823  16.912  14.969  18.076  0.1200  0.3848  0.1884
 3755G2HFO Head44824  16.845  15.149  18.353  0.2141  0.3159  0.2082
 3755G2HFO link44825  16.683  15.361  18.322 -0.2970  0.6148  0.2925
 3755G2HFO link44826  16.806  15.615  18.371  0.0242 -0.4196 -0.0205
 3755G2HFO Tail44827  17.094  15.688  18.222  0.1003 -0.1947  0.1143
 3755G2HFO Tail44828  17.285  15.874  18.438  0.0815  0.6814 -0.1611
 3755G2HFO Tail44829  17.275  16.167  18.495 -0.1509  0.1242 -0.1841
 3755G2HFO Tail44830  17.167  16.528  18.296 -0.0182  0.0221  0.1429
 3755G2HFO Tail44831  17.250  15.370  18.195 -0.1264  0.3400 -0.1066
 3755G2HFO Tail44832  17.325  15.215  18.394 -0.1577  0.2517 -0.2100
 3755G2HFO Tail44833  17.262  14.959  18.394 -0.0853  0.1263 -0.2592
 3755G2HFO Tail44834  17.225  14.710  18.440  0.1718 -0.2063 -0.0371
 3755G2HFO Tail44835  17.227  14.483  18.423  0.0684  0.1247 -0.1770
 3756G2HFO Head44836  19.369  19.474  19.589 -0.0057  0.1511  0.2882
 3756G2HFO Head44837  19.395  19.371  19.285 -0.1214  0.1849 -0.1059
 3756G2HFO Head44838  19.831  19.662  19.103  0.1789 -0.1890  0.1463
 3756G2HFO Head44839  19.580  19.706  18.931 -0.3547  0.0077  0.0085
 3756G2HFO Head44840  19.282  19.546  19.016  0.1087 -0.4279 -0.0307
 3756G2HFO Head44841  18.912  20.187  18.734 -0.2280 -0.2205 -0.0398
 3756G2HFO Head44842  19.079  19.962  18.833  0.1760  0.6119 -0.1058
 3756G2HFO Head44843  18.518  19.661  18.490 -0.0186  0.1504  0.4894
 3756G2HFO Head44844  18.732  19.771  18.710  0.3144  0.1473 -0.2635
 3756G2HFO Head44845  19.067  19.641  18.694  0.2662  0.2548  0.2138
 3756G2HFO link44846  19.136  19.432  18.841 -0.0784 -0.1367  0.4609
 3756G2HFO link44847  19.233  19.177  18.747  0.1281 -0.2579  0.0538
 3756G2HFO Tail44848  19.045  18.913  18.750  0.0439 -0.2276  0.0752
 3756G2HFO Tail44849  19.280  18.661  18.752 -0.2162  0.2626 -0.1141
 3756G2HFO Tail44850  19.446  18.533  18.992  0.1364  0.3098  0.1296
 3756G2HFO Tail44851  19.404  18.195  19.278  0.0744  0.0960 -0.0939
 3756G2HFO Tail44852  18.908  18.899  19.071 -0.0016 -0.1241  0.0463
 3756G2HFO Tail44853  18.952  19.098  19.235 -0.3241 -0.0645 -0.0012
 3756G2HFO Tail44854  19.058  19.040  19.466 -0.1777  0.1672  0.3027
 3756G2HFO Tail44855  19.129  18.986  19.710 -0.0895  0.0415 -0.0126
 3756G2HFO Tail44856  19.260  18.936  19.901 -0.1417 -0.5329  0.0545
 3757G2HFO Head44857  15.844  17.891  28.325 -0.1593  0.1153 -0.3241
 3757G2HFO Head44858  15.760  17.692  28.085 -0.0562 -0.2942  0.4577
 3757G2HFO Head44859  15.876  18.339  27.768 -0.0813 -0.1503 -0.0438
 3757G2HFO Head44860  15.925  18.045  27.906  0.1043  0.2629  0.0924
 3757G2HFO Head44861  15.801  17.759  27.732 -0.4669  0.1494 -0.1038
 3757G2HFO Head44862  15.793  16.865  27.424 -0.5433 -0.1696 -0.2637
 3757G2HFO Head44863  16.038  17.076  27.500  0.1742  0.0221 -0.2065
 3757G2HFO Head44864  15.716  17.188  28.154  0.0848  0.1466  0.1157
 3757G2HFO Head44865  15.751  17.187  27.853 -0.2717  0.1501 -0.1341
 3757G2HFO Head44866  15.990  17.372  27.701  0.3912 -0.2115 -0.4849
 3757G2HFO link44867  15.949  17.600  27.573  0.1804  0.0865 -0.3318
 3757G2HFO link44868  16.103  17.697  27.365  0.0360 -0.2287 -0.1975
 3757G2HFO Tail44869  16.233  17.462  27.174  0.0159  0.0119 -0.4557
 3757G2HFO Tail44870  15.951  17.250  27.123  0.0691 -0.0453 -0.0880
 3757G2HFO Tail44871  15.913  16.957  26.963 -0.0327 -0.0757  0.3745
 3757G2HFO Tail44872  15.608  16.722  26.741  0.1583 -0.1794 -0.0208
 3757G2HFO Tail44873  16.229  17.639  26.878 -0.1824  0.0925  0.0985
 3757G2HFO Tail44874  16.014  17.643  26.738 -0.0164  0.2286  0.2130
 3757G2HFO Tail44875  15.785  17.718  26.851  0.2100 -0.1549 -0.0309
 3757G2HFO Tail44876  15.554  17.810  26.923 -0.0574  0.2173 -0.1670
 3757G2HFO Tail44877  15.337  17.904  26.922  0.0763 -0.0648 -0.3091
 3758G2HFO Head44878  21.870  15.369  20.057  0.0202 -0.0540 -0.1877
 3758G2HFO Head44879  21.565  15.300  19.976  0.2124  0.3200 -0.5004
 3758G2HFO Head44880  21.467  15.187  20.453  0.1237 -0.1027  0.4187
 3758G2HFO Head44881  21.421  15.491  20.353 -0.1270 -0.2514 -0.0025
 3758G2HFO Head44882  21.321  15.558  20.019 -0.0793 -0.1635  0.0350
 3758G2HFO Head44883  21.126  14.829  20.188  0.0622 -0.1915  0.0753
 3758G2HFO Head44884  21.265  15.043  20.028  0.1136  0.1894 -0.0727
 3758G2HFO Head44885  21.304  15.152  19.307  0.3399 -0.5484  0.0370
 3758G2HFO Head44886  21.341  15.179  19.628  0.0725  0.4929 -0.5508
 3758G2HFO Head44887  21.080  15.266  19.850 -0.0022  0.0889 -0.2797
 3758G2HFO link44888  21.060  15.524  19.919 -0.2200 -0.3225 -0.3907
 3758G2HFO link44889  20.893  15.720  19.813  0.1611 -0.5291 -0.5476
 3758G2HFO Tail44890  20.665  15.640  19.577  0.0762 -0.0342  0.2589
 3758G2HFO Tail44891  20.402  15.465  19.764 -0.0073  0.3532  0.2322
 3758G2HFO Tail44892  20.096  15.545  19.847  0.2939  0.1229  0.0800
 3758G2HFO Tail44893  19.743  15.753  19.677  0.0363  0.3719 -0.1146
 3758G2HFO Tail44894  20.843  15.382  19.426 -0.0569 -0.1860 -0.0001
 3758G2HFO Tail44895  20.832  15.134  19.519 -0.1046  0.0436  0.0475
 3758G2HFO Tail44896  20.583  15.047  19.549 -0.4701  0.2579  0.1431
 3758G2HFO Tail44897  20.336  14.989  19.577  0.1579 -0.0305  0.1865
 3758G2HFO Tail44898  20.102  15.004  19.589 -0.1204 -0.1270  0.1671
 3759G2HFO Head44899  19.965  21.439  21.154  0.3684  0.0371  0.0453
 3759G2HFO Head44900  20.053  21.161  21.018 -0.3384  0.0625 -0.1929
 3759G2HFO Head44901  20.312  20.591  21.349  0.0278  0.1667 -0.0432
 3759G2HFO Head44902  20.235  20.828  21.203 -0.1335 -0.6068  0.2089
 3759G2HFO Head44903  19.903  20.869  21.129  0.0910 -0.1090 -0.2979
 3759G2HFO Head44904  20.206  20.346  21.735 -0.1480 -0.1082  0.0181
 3759G2HFO Head44905  19.944  20.458  21.641  0.0117  0.1034 -0.6277
 3759G2HFO Head44906  19.987  21.080  22.015 -0.0080 -0.2646 -0.2487
 3759G2HFO Head44907  19.914  20.845  21.874 -0.1409  0.4974  0.1426
 3759G2HFO Head44908  19.955  20.776  21.515 -0.0853  0.0932  0.0800
 3759G2HFO link44909  19.757  20.853  21.335  0.0939  0.2332 -0.3276
 3759G2HFO link44910  19.488  20.765  21.340  0.2171 -0.1015  0.3467
 3759G2HFO Tail44911  19.312  20.732  21.617 -0.0030  0.3391  0.1035
 3759G2HFO Tail44912  19.063  20.505  21.510 -0.2299  0.1673 -0.0773
 3759G2HFO Tail44913  18.831  20.504  21.278  0.0355  0.2438 -0.1315
 3759G2HFO Tail44914  18.415  20.624  21.269  0.3270 -0.2971 -0.3663
 3759G2HFO Tail44915  19.489  20.506  21.821  0.1001 -0.2085 -0.3100
 3759G2HFO Tail44916  19.355  20.371  22.002 -0.1077  0.1913  0.2889
 3759G2HFO Tail44917  19.108  20.440  22.034  0.0569  0.0543  0.5378
 3759G2HFO Tail44918  18.872  20.493  22.099  0.0944 -0.0183 -0.1200
 3759G2HFO Tail44919  18.643  20.563  22.109 -0.3117 -0.1415 -0.1452
 3760G2HFO Head44920  20.352  19.486  24.747  0.1235 -0.1338 -0.0796
 3760G2HFO Head44921  20.053  19.374  24.701 -0.0018 -0.1614  0.0111
 3760G2HFO Head44922  19.630  19.673  24.864  0.3096 -0.0139  0.0452
 3760G2HFO Head44923  19.798  19.724  24.613 -0.4879  0.0265 -0.1543
 3760G2HFO Head44924  19.924  19.461  24.407  0.0018  0.0517  0.2976
 3760G2HFO Head44925  20.034  18.570  24.101 -0.2142 -0.1981  0.0945
 3760G2HFO Head44926  20.036  18.865  24.114  0.0054 -0.3782  0.1617
 3760G2HFO Head44927  20.417  18.786  24.447  0.1902 -0.1323  0.0916
 3760G2HFO Head44928  20.246  19.037  24.460  0.6354  0.0945  0.1877
 3760G2HFO Head44929  19.897  19.029  24.381 -0.2396  0.0072 -0.1316
 3760G2HFO link44930  19.772  19.274  24.304  0.2938  0.0538 -0.1848
 3760G2HFO link44931  19.571  19.293  24.091 -0.1295 -0.0851 -0.0526
 3760G2HFO Tail44932  19.400  19.567  23.982 -0.1794 -0.1529 -0.5333
 3760G2HFO Tail44933  19.080  19.463  24.046  0.4974 -0.1127 -0.1740
 3760G2HFO Tail44934  18.899  19.244  23.907 -0.0158  0.2858 -0.2200
 3760G2HFO Tail44935  18.470  19.157  23.818  0.0979  0.2532  0.0393
 3760G2HFO Tail44936  19.493  19.801  24.249  0.0292  0.2936 -0.1015
 3760G2HFO Tail44937  19.369  19.783  24.486 -0.3230 -0.2667 -0.2120
 3760G2HFO Tail44938  19.127  19.714  24.483  0.3278  0.2875  0.1476
 3760G2HFO Tail44939  18.891  19.614  24.489  0.0574  0.0706  0.1887
 3760G2HFO Tail44940  18.672  19.551  24.437 -0.2202  0.1124 -0.0124
 3761G2HFO Head44941  14.541  18.036  22.858  0.2443  0.0559  0.6912
 3761G2HFO Head44942  14.803  18.149  22.953  0.2235 -0.0502  0.0720
 3761G2HFO Head44943  14.902  17.964  22.422  0.2354 -0.4179 -0.0810
 3761G2HFO Head44944  15.062  18.049  22.646 -0.2340  0.1890 -0.5042
 3761G2HFO Head44945  15.068  17.916  22.961 -0.1278 -0.0803 -0.1600
 3761G2HFO Head44946  15.268  18.709  22.939 -0.1666 -0.0470  0.1354
 3761G2HFO Head44947  15.143  18.403  23.042 -0.1030 -0.4736  0.4551
 3761G2HFO Head44948  15.456  18.325  22.592  0.0806 -0.0760  0.2915
 3761G2HFO Head44949  15.557  18.321  22.905  0.0554 -0.3688  0.2224
 3761G2HFO Head44950  15.365  18.168  23.158  0.1211  0.2927 -0.0484
 3761G2HFO link44951  15.278  17.922  23.139  0.4333 -0.3464 -0.2348
 3761G2HFO link44952  15.388  17.701  23.291  0.1744  0.2730  0.3746
 3761G2HFO Tail44953  15.698  17.656  23.370 -0.0284  0.2556  0.2385
 3761G2HFO Tail44954  15.822  17.995  23.295 -0.0369 -0.1960 -0.0342
 3761G2HFO Tail44955  15.872  18.237  23.476  0.0220 -0.3964 -0.2396
 3761G2HFO Tail44956  16.116  18.472  23.731 -0.1109 -0.2937 -0.1463
 3761G2HFO Tail44957  15.668  17.696  23.704  0.0923 -0.0723  0.3457
 3761G2HFO Tail44958  15.590  17.492  23.849  0.1567 -0.0446 -0.0699
 3761G2HFO Tail44959  15.719  17.269  23.818 -0.0715  0.0953  0.0709
 3761G2HFO Tail44960  15.800  17.033  23.780 -0.0302  0.1255  0.3533
 3761G2HFO Tail44961  15.915  16.831  23.722  0.2747  0.3772  0.3308
 3762G2HFO Head44962  20.191  17.688  17.262 -0.1631  0.2436 -0.1587
 3762G2HFO Head44963  19.910  17.649  17.389 -0.1299  0.0536  0.2226
 3762G2HFO Head44964  19.485  17.793  17.499  0.2670 -0.1577  0.2191
 3762G2HFO Head44965  19.622  17.614  17.711  0.0737 -0.5151  0.1218
 3762G2HFO Head44966  19.847  17.364  17.591 -0.3596 -0.4036 -0.3156
 3762G2HFO Head44967  20.729  17.511  17.473 -0.4006  0.1652 -0.1844
 3762G2HFO Head44968  20.577  17.229  17.590  0.1837 -0.5682  0.2222
 3762G2HFO Head44969  20.153  16.894  17.113  0.5076  0.2436 -0.0043
 3762G2HFO Head44970  20.295  16.947  17.377  0.3648 -0.0702  0.2411
 3762G2HFO Head44971  20.229  17.238  17.537 -0.2449 -0.0108 -0.4318
 3762G2HFO link44972  20.038  17.260  17.756 -0.1496 -0.1032  0.0608
 3762G2HFO link44973  20.005  17.110  17.998 -0.0293  0.2895 -0.1419
 3762G2HFO Tail44974  19.694  17.080  18.099  0.3097 -0.0718 -0.1160
 3762G2HFO Tail44975  19.732  16.985  18.445  0.1006 -0.3578  0.1657
 3762G2HFO Tail44976  19.637  16.725  18.575 -0.4203  0.1025 -0.2701
 3762G2HFO Tail44977  19.317  16.580  18.829 -0.1682 -0.2678  0.0364
 3762G2HFO Tail44978  19.611  17.404  18.094  0.0112 -0.1371 -0.1791
 3762G2HFO Tail44979  19.783  17.587  18.164 -0.1939  0.2996  0.1682
 3762G2HFO Tail44980  19.978  17.626  17.996  0.0437  0.1879  0.0726
 3762G2HFO Tail44981  20.147  17.704  17.827 -0.0535 -0.2650 -0.0476
 3762G2HFO Tail44982  20.325  17.795  17.708 -0.2703 -0.0427  0.1746
 3763G2HFO Head44983  17.920  18.224  26.516  0.0139  0.2913 -0.5712
 3763G2HFO Head44984  17.891  18.294  26.801 -0.2415  0.2719  0.4488
 3763G2HFO Head44985  18.234  18.295  27.076  0.1449  0.0775  0.2877
 3763G2HFO Head44986  18.141  18.573  26.987  0.1442  0.0951  0.1636
 3763G2HFO Head44987  17.799  18.631  26.875 -0.0751 -0.2531  0.3995
 3763G2HFO Head44988  17.985  18.997  27.290 -0.1432 -0.1103  0.1311
 3763G2HFO Head44989  18.059  19.008  26.972 -0.0416  0.0630  0.0977
 3763G2HFO Head44990  17.369  19.274  26.904  0.1538  0.1012 -0.2606
 3763G2HFO Head44991  17.659  19.189  26.977 -0.1510 -0.0387 -0.2110
 3763G2HFO Head44992  17.839  19.008  26.714  0.1058  0.2107  0.0653
 3763G2HFO link44993  17.735  18.785  26.648  0.1841  0.2148 -0.0117
 3763G2HFO link44994  17.717  18.671  26.390  0.1835  0.1328  0.1626
 3763G2HFO Tail44995  17.460  18.485  26.283  0.4464 -0.0686 -0.3649
 3763G2HFO Tail44996  17.296  18.706  26.078 -0.0189  0.1410 -0.4425
 3763G2HFO Tail44997  17.047  18.885  26.037  0.0825  0.0064 -0.0247
 3763G2HFO Tail44998  16.931  19.224  25.788  0.1468  0.2189  0.0344
 3763G2HFO Tail44999  17.599  18.274  26.070 -0.5770  0.1092 -0.2654
 3763G2HFO Tail45000  17.852  18.311  25.988  0.1198 -0.0514  0.0709
 3763G2HFO Tail45001  17.898  18.258  25.743  0.0372 -0.0127  0.0614
 3763G2HFO Tail45002  17.904  18.206  25.495 -0.2710  0.3466  0.0709
 3763G2HFO Tail45003  17.970  18.159  25.284  0.1318 -0.2004  0.2690
 3764G2HFO Head45004  18.387  13.362  21.359  0.3367 -0.1994  0.2991
 3764G2HFO Head45005  18.173  13.418  21.580  0.2830 -0.2485  0.0398
 3764G2HFO Head45006  18.841  13.516  21.924  0.2080  0.0645  0.0150
 3764G2HFO Head45007  18.570  13.492  21.739 -0.0138 -0.2788 -0.1532
 3764G2HFO Head45008  18.276  13.441  21.920  0.0898 -0.0232 -0.0464
 3764G2HFO Head45009  18.021  13.396  22.852  0.0126  0.2232 -0.1915
 3764G2HFO Head45010  18.173  13.499  22.590  0.1128 -0.5273  0.2043
 3764G2HFO Head45011  18.112  12.872  22.341  0.0565  0.0201  0.2904
 3764G2HFO Head45012  18.223  13.171  22.375 -0.6858 -0.3917 -0.1086
 3764G2HFO Head45013  18.064  13.458  22.264 -0.0504  0.1545 -0.1378
 3764G2HFO link45014  18.170  13.614  22.072 -0.2544  0.1057  0.2119
 3764G2HFO link45015  18.014  13.834  21.976 -0.1558 -0.0675 -0.1588
 3764G2HFO Tail45016  17.704  13.874  22.032  0.3059  0.0737  0.2292
 3764G2HFO Tail45017  17.586  14.081  21.767  0.1625 -0.0544 -0.2622
 3764G2HFO Tail45018  17.366  14.327  21.764  0.0626  0.2650  0.0909
 3764G2HFO Tail45019  16.992  14.418  21.938  0.1677 -0.4666  0.1608
 3764G2HFO Tail45020  17.699  14.127  22.271  0.1906 -0.0212  0.0744
 3764G2HFO Tail45021  17.501  14.184  22.445 -0.0118  0.0123  0.0700
 3764G2HFO Tail45022  17.260  14.124  22.363 -0.0552 -0.1200 -0.0999
 3764G2HFO Tail45023  17.048  14.057  22.241  0.0030 -0.0006  0.2482
 3764G2HFO Tail45024  16.850  13.952  22.160 -0.1700  0.3011 -0.0214
 3765G2HFO Head45025  17.498  17.417  22.866 -0.0288 -0.1261  0.0271
 3765G2HFO Head45026  17.387  17.693  22.740  0.1742 -0.3893  0.5318
 3765G2HFO Head45027  17.537  18.402  22.934  0.1354 -0.0779 -0.1135
 3765G2HFO Head45028  17.470  18.108  22.851  0.3267 -0.1296  0.1754
 3765G2HFO Head45029  17.625  17.919  22.606  0.0936 -0.2406  0.0150
 3765G2HFO Head45030  17.776  17.530  21.764  0.1037 -0.0283  0.1972
 3765G2HFO Head45031  17.829  17.668  22.006 -0.3866 -0.1331  0.0970
 3765G2HFO Head45032  17.885  17.516  22.535  0.2633 -0.0225  0.2219
 3765G2HFO Head45033  17.679  17.493  22.337  0.2379 -0.0137 -0.0202
 3765G2HFO Head45034  17.552  17.791  22.201 -0.1807  0.2388  0.0659
 3765G2HFO link45035  17.589  17.998  22.349  0.3940 -0.1096 -0.1430
 3765G2HFO link45036  17.597  18.269  22.255 -0.3247  0.3378 -0.0697
 3765G2HFO Tail45037  17.822  18.488  22.347 -0.3461  0.1174 -0.0947
 3765G2HFO Tail45038  17.927  18.324  22.664 -0.0129 -0.0409  0.3797
 3765G2HFO Tail45039  18.209  18.366  22.830 -0.2347  0.3050 -0.1479
 3765G2HFO Tail45040  18.396  18.680  23.072 -0.2074 -0.0779  0.0172
 3765G2HFO Tail45041  17.599  18.741  22.446 -0.0694  0.3895 -0.0507
 3765G2HFO Tail45042  17.640  18.990  22.410  0.0217  0.0292 -0.0087
 3765G2HFO Tail45043  17.478  19.173  22.488  0.1389 -0.0851 -0.0681
 3765G2HFO Tail45044  17.307  19.332  22.585  0.1956 -0.0359  0.0401
 3765G2HFO Tail45045  17.188  19.525  22.666  0.1154  0.2158  0.1732
 3766G2HFO Head45046  17.258  22.503  22.364 -0.0393 -0.2588 -0.1272
 3766G2HFO Head45047  17.511  22.274  22.331 -0.0459 -0.1544  0.3524
 3766G2HFO Head45048  17.773  22.607  21.821 -0.0656 -0.0666  0.2855
 3766G2HFO Head45049  17.722  22.614  22.140  0.2539 -0.1595 -0.4215
 3766G2HFO Head45050  17.841  22.358  22.340  0.0677 -0.0251  0.3711
 3766G2HFO Head45051  18.472  22.805  22.009  0.0213 -0.0815  0.2092
 3766G2HFO Head45052  18.251  22.603  21.988 -0.1386  0.4503 -0.0837
 3766G2HFO Head45053  18.112  22.859  22.426 -0.0485 -0.1432 -0.0437
 3766G2HFO Head45054  18.299  22.622  22.400 -0.0697  0.3427  0.0396
 3766G2HFO Head45055  18.237  22.338  22.227  0.1862  0.1111 -0.1475
 3766G2HFO link45056  18.018  22.195  22.239 -0.4079  0.0552  0.0514
 3766G2HFO link45057  17.941  21.970  22.068 -0.0078 -0.0351 -0.2244
 3766G2HFO Tail45058  17.726  21.730  22.144  0.2222 -0.0402  0.1316
 3766G2HFO Tail45059  17.422  21.841  22.022 -0.1983 -0.0292  0.1056
 3766G2HFO Tail45060  17.145  21.886  22.161  0.2373 -0.3753 -0.3203
 3766G2HFO Tail45061  16.914  21.743  22.496  0.0425 -0.2139  0.4210
 3766G2HFO Tail45062  17.672  21.772  22.482 -0.4865 -0.2886  0.0806
 3766G2HFO Tail45063  17.775  21.989  22.605 -0.0917 -0.3595  0.3072
 3766G2HFO Tail45064  18.035  22.014  22.606 -0.2550  0.0874  0.1047
 3766G2HFO Tail45065  18.286  21.991  22.629 -0.1395  0.0691  0.0931
 3766G2HFO Tail45066  18.501  21.994  22.717 -0.3415 -0.2386 -0.0383
 3767G2HFO Head45067  19.929  14.484  19.227 -0.0366 -0.3192 -0.0311
 3767G2HFO Head45068  20.195  14.663  19.247  0.4422 -0.1099 -0.1736
 3767G2HFO Head45069  20.651  15.121  18.935 -0.0033  0.3532  0.2448
 3767G2HFO Head45070  20.502  14.963  19.097  0.2022  0.0663  0.2165
 3767G2HFO Head45071  20.393  14.656  18.966 -0.0158 -0.3561 -0.0361
 3767G2HFO Head45072  20.477  14.929  18.034 -0.0025  0.2099  0.0587
 3767G2HFO Head45073  20.594  14.774  18.301 -0.3629 -0.6324 -0.3081
 3767G2HFO Head45074  20.978  14.653  18.478  0.1477 -0.0285 -0.0144
 3767G2HFO Head45075  20.833  14.804  18.666 -0.1805  0.4543  0.0236
 3767G2HFO Head45076  20.481  14.839  18.611 -0.2133 -0.0935  0.0400
 3767G2HFO link45077  20.305  14.677  18.731 -0.0354 -0.4960  0.3582
 3767G2HFO link45078  20.024  14.687  18.664  0.2740 -0.1303  0.3050
 3767G2HFO Tail45079  19.879  14.951  18.562 -0.0339 -0.1689  0.2755
 3767G2HFO Tail45080  20.056  15.165  18.773 -0.1966 -0.0633  0.0849
 3767G2HFO Tail45081  20.310  15.365  18.800  0.5912  0.0357  0.4552
 3767G2HFO Tail45082  20.493  15.643  19.087 -0.4225  0.0358  0.0869
 3767G2HFO Tail45083  20.053  15.000  18.255  0.0488  0.0434  0.2734
 3767G2HFO Tail45084  20.099  15.247  18.189  0.0325 -0.0845 -0.0413
 3767G2HFO Tail45085  20.006  15.430  18.344  0.0529  0.0423  0.1249
 3767G2HFO Tail45086  19.949  15.638  18.469  0.1730 -0.2190 -0.0052
 3767G2HFO Tail45087  19.875  15.793  18.632 -0.0002  0.0657 -0.2006
 3768G2HFO Head45088  15.927  16.977  18.485  0.2201 -0.3424 -0.4132
 3768G2HFO Head45089  15.882  16.929  18.207  0.1504 -0.0415 -0.0096
 3768G2HFO Head45090  15.743  17.337  17.973 -0.4454 -0.0330  0.0919
 3768G2HFO Head45091  16.062  17.245  17.942 -0.0941 -0.2442  0.2144
 3768G2HFO Head45092  16.148  16.912  17.988 -0.0049  0.0038 -0.0142
 3768G2HFO Head45093  15.897  16.259  17.474  0.2717  0.0611 -0.0284
 3768G2HFO Head45094  15.751  16.564  17.498  0.3697  0.1557  0.0374
 3768G2HFO Head45095  15.992  17.261  17.357  0.0160  0.4275  0.1655
 3768G2HFO Head45096  15.792  17.012  17.455 -0.0819 -0.4404 -0.2962
 3768G2HFO Head45097  15.892  16.792  17.700  0.6209  0.0649  0.1331
 3768G2HFO link45098  16.132  16.749  17.780 -0.5463 -0.1782 -0.2628
 3768G2HFO link45099  16.268  16.492  17.759  0.1044  0.2473  0.0391
 3768G2HFO Tail45100  16.402  16.371  18.030  0.1536 -0.1123 -0.0342
 3768G2HFO Tail45101  16.677  16.565  18.066  0.3374 -0.1085  0.1436
 3768G2HFO Tail45102  16.776  16.691  18.335 -0.3610  0.1139 -0.1227
 3768G2HFO Tail45103  17.089  16.943  18.481 -0.0445 -0.1542 -0.1422
 3768G2HFO Tail45104  16.201  16.556  18.254  0.0992  0.2043  0.0892
 3768G2HFO Tail45105  16.278  16.772  18.369  0.0644 -0.1964  0.0135
 3768G2HFO Tail45106  16.366  16.760  18.607 -0.2710 -0.0097 -0.1978
 3768G2HFO Tail45107  16.437  16.728  18.854  0.0403  0.1906  0.1634
 3768G2HFO Tail45108  16.533  16.759  19.068 -0.0152  0.1981  0.1517
 3769G2HFO Head45109  18.111  16.188  25.077 -0.0908 -0.1709 -0.0935
 3769G2HFO Head45110  17.874  16.376  24.995 -0.1700 -0.2207  0.2879
 3769G2HFO Head45111  18.358  16.709  25.291 -0.3244  0.2931  0.1145
 3769G2HFO Head45112  18.235  16.590  24.977 -0.0004  0.1717  0.1213
 3769G2HFO Head45113  17.916  16.701  24.882 -0.4115 -0.1176  0.1022
 3769G2HFO Head45114  18.652  16.837  24.521  0.0971  0.2810  0.1503
 3769G2HFO Head45115  18.349  16.752  24.406 -0.5557 -0.2421 -0.0410
 3769G2HFO Head45116  18.275  17.024  23.991 -0.3776  0.0509 -0.0985
 3769G2HFO Head45117  18.054  17.076  24.253 -0.3460 -0.3471 -0.1703
 3769G2HFO Head45118  18.063  16.889  24.537  0.2734  0.1564 -0.0464
 3769G2HFO link45119  17.859  16.756  24.622  0.1844  0.0070 -0.0358
 3769G2HFO link45120  17.605  16.799  24.512 -0.0493  0.0385  0.0453
 3769G2HFO Tail45121  17.472  17.097  24.454 -0.0327 -0.1148 -0.3660
 3769G2HFO Tail45122  17.196  16.980  24.274 -0.5295 -0.3698  0.0653
 3769G2HFO Tail45123  16.905  17.095  24.187 -0.5749  0.1739 -0.3264
 3769G2HFO Tail45124  16.644  17.429  24.127 -0.0381 -0.4905 -0.0177
 3769G2HFO Tail45125  17.291  17.150  24.743 -0.1928 -0.3601  0.3031
 3769G2HFO Tail45126  17.406  17.089  24.967 -0.2474 -0.0993  0.0629
 3769G2HFO Tail45127  17.461  16.837  25.020 -0.3581 -0.1882  0.0619
 3769G2HFO Tail45128  17.476  16.589  25.077  0.1783 -0.1030  0.2220
 3769G2HFO Tail45129  17.430  16.378  25.160  0.0490 -0.1433  0.1903
 3770G2HFO Head45130  17.270  20.611  25.557  0.1669 -0.4006 -0.0972
 3770G2HFO Head45131  17.358  20.415  25.771  0.0721  0.1280  0.1848
 3770G2HFO Head45132  17.523  20.493  26.247 -0.0895  0.1281  0.0557
 3770G2HFO Head45133  17.621  20.270  26.110 -0.2998 -0.0325  0.4078
 3770G2HFO Head45134  17.674  20.273  25.752  0.2280 -0.0798  0.0765
 3770G2HFO Head45135  18.111  20.697  25.485  0.0960  0.0602 -0.1150
 3770G2HFO Head45136  17.912  20.519  25.328 -0.2155  0.2822  0.0005
 3770G2HFO Head45137  17.996  20.296  24.821  0.0658 -0.1865  0.2879
 3770G2HFO Head45138  17.809  20.176  25.019  0.0674  0.1217 -0.3350
 3770G2HFO Head45139  17.866  20.164  25.380  0.2804  0.2882 -0.0450
 3770G2HFO link45140  17.697  20.073  25.562 -0.0990  0.3439  0.5937
 3770G2HFO link45141  17.596  19.815  25.593  0.1438 -0.0719  0.2755
 3770G2HFO Tail45142  17.683  19.586  25.378  0.0060  0.2712 -0.0925
 3770G2HFO Tail45143  17.891  19.768  25.176  0.1526 -0.0620  0.2001
 3770G2HFO Tail45144  18.180  19.936  25.185  0.0807 -0.2272  0.0716
 3770G2HFO Tail45145  18.361  20.337  25.245 -0.2475  0.2289  0.4521
 3770G2HFO Tail45146  17.391  19.598  25.190  0.2174  0.1028  0.0716
 3770G2HFO Tail45147  17.195  19.776  25.230 -0.4179  0.2249 -0.2605
 3770G2HFO Tail45148  17.279  20.027  25.255  0.0682 -0.0334 -0.4543
 3770G2HFO Tail45149  17.399  20.252  25.256  0.3409 -0.0843 -0.2438
 3770G2HFO Tail45150  17.499  20.455  25.177  0.0679 -0.0356 -0.1935
 3771G2HFO Head45151  18.104  15.046  22.404 -0.3937 -0.1640 -0.1176
 3771G2HFO Head45152  18.014  15.187  22.166 -0.1650  0.1493  0.0239
 3771G2HFO Head45153  18.439  15.475  22.531 -0.1731  0.0275  0.1145
 3771G2HFO Head45154  18.338  15.444  22.222 -0.0814 -0.2554 -0.8299
 3771G2HFO Head45155  18.018  15.546  22.136  0.1485  0.0860 -0.0638
 3771G2HFO Head45156  17.950  16.185  22.274  0.2953  0.1892  0.1212
 3771G2HFO Head45157  18.133  16.130  22.049  0.1233 -0.2120  0.0531
 3771G2HFO Head45158  18.473  16.040  22.334  0.1284 -0.0210  0.0049
 3771G2HFO Head45159  18.462  15.844  22.112  0.2185  0.2456 -0.3206
 3771G2HFO Head45160  18.195  15.835  21.884  0.2116 -0.1946 -0.1270
 3771G2HFO link45161  18.011  15.641  21.879  0.1137  0.0693  0.5177
 3771G2HFO link45162  17.812  15.588  21.683  0.0868 -0.3361  0.1999
 3771G2HFO Tail45163  17.731  15.300  21.549 -0.2014  0.0366  0.0422
 3771G2HFO Tail45164  17.391  15.326  21.509  0.1114 -0.2067 -0.1366
 3771G2HFO Tail45165  17.109  15.308  21.676  0.3956 -0.1342  0.1130
 3771G2HFO Tail45166  16.677  15.233  21.622 -0.1707 -0.2750  0.4746
 3771G2HFO Tail45167  17.724  15.086  21.824 -0.2530  0.1345  0.1789
 3771G2HFO Tail45168  17.568  15.140  22.022  0.0975 -0.0167  0.2163
 3771G2HFO Tail45169  17.584  15.376  22.125 -0.0549 -0.3704 -0.0603
 3771G2HFO Tail45170  17.577  15.626  22.201 -0.0889 -0.1952  0.1250
 3771G2HFO Tail45171  17.629  15.841  22.280  0.1202  0.1194 -0.1586
 3772G2HFO Head45172  15.826  20.720  24.208 -0.0573 -0.0216  0.0244
 3772G2HFO Head45173  15.927  20.763  23.930 -0.1849 -0.3318 -0.0829
 3772G2HFO Head45174  16.053  20.088  24.081 -0.0169  0.1350  0.0814
 3772G2HFO Head45175  16.133  20.405  24.053  0.1104 -0.3411 -0.2444
 3772G2HFO Head45176  16.152  20.551  23.738  0.1620 -0.2414 -0.2498
 3772G2HFO Head45177  15.773  21.042  23.536 -0.1063 -0.1696  0.1852
 3772G2HFO Head45178  16.046  20.990  23.377 -0.1007  0.1146  0.1243
 3772G2HFO Head45179  15.999  21.198  23.990  0.0042  0.0790  0.0693
 3772G2HFO Head45180  16.286  21.135  23.828 -0.2827 -0.3322 -0.1559
 3772G2HFO Head45181  16.310  20.888  23.587 -0.4072  0.0372 -0.1943
 3772G2HFO link45182  16.368  20.647  23.656 -0.8272  0.0263 -0.7511
 3772G2HFO link45183  16.637  20.540  23.694  0.2664 -0.1400 -0.1714
 3772G2HFO Tail45184  16.740  20.396  23.981  0.2200  0.2012  0.0395
 3772G2HFO Tail45185  16.850  20.077  23.871 -0.0346 -0.0550  0.0590
 3772G2HFO Tail45186  17.021  19.839  23.954 -0.4501  0.0987  0.4078
 3772G2HFO Tail45187  17.393  19.634  23.818  0.1767 -0.2504 -0.1364
 3772G2HFO Tail45188  17.048  20.516  23.991 -0.2781 -0.0759  0.0878
 3772G2HFO Tail45189  17.113  20.733  23.850  0.3616  0.2255 -0.0568
 3772G2HFO Tail45190  17.084  20.711  23.593 -0.0584 -0.0043  0.2522
 3772G2HFO Tail45191  17.082  20.649  23.344 -0.1975 -0.0324  0.1458
 3772G2HFO Tail45192  17.041  20.636  23.106 -0.2389  0.1316 -0.3238
 3773G2HFO Head45193  20.481  18.307  17.683 -0.1788  0.0841 -0.1786
 3773G2HFO Head45194  20.397  18.335  17.960 -0.0339 -0.2013 -0.1316
 3773G2HFO Head45195  20.019  18.073  17.610 -0.2471  0.0761 -0.1012
 3773G2HFO Head45196  20.064  18.091  17.937  0.3560 -0.4921 -0.1174
 3773G2HFO Head45197  20.326  18.052  18.151  0.0472 -0.1304  0.0452
 3773G2HFO Head45198  20.434  18.813  18.319 -0.1985  0.0774  0.1670
 3773G2HFO Head45199  20.216  18.580  18.263 -0.0510 -0.2501 -0.2617
 3773G2HFO Head45200  20.200  18.799  18.740  0.0839  0.0540 -0.1806
 3773G2HFO Head45201  20.343  18.540  18.686 -0.0745 -0.4194  0.0148
 3773G2HFO Head45202  20.191  18.306  18.466 -0.0917 -0.1444  0.0172
 3773G2HFO link45203  20.268  18.059  18.416 -0.7117 -0.3542  0.1300
 3773G2HFO link45204  20.291  17.850  18.612  0.1455 -0.1524 -0.2906
 3773G2HFO Tail45205  20.019  17.681  18.663 -0.1418  0.0402  0.0156
 3773G2HFO Tail45206  20.064  17.409  18.435  0.4498  0.3766  0.0251
 3773G2HFO Tail45207  20.227  17.134  18.430 -0.1713 -0.0344  0.0331
 3773G2HFO Tail45208  20.180  16.698  18.356  0.0222 -0.0478 -0.0060
 3773G2HFO Tail45209  19.775  17.864  18.488 -0.0542 -0.3263  0.0049
 3773G2HFO Tail45210  19.824  18.051  18.295 -0.0670  0.2935 -0.3840
 3773G2HFO Tail45211  19.746  18.295  18.369 -0.0638  0.0292  0.0791
 3773G2HFO Tail45212  19.693  18.520  18.485 -0.0769  0.0108 -0.2240
 3773G2HFO Tail45213  19.702  18.710  18.616  0.2777 -0.0438 -0.1702
 3774G2HFO Head45214  17.967  17.362  23.048  0.2838  0.2689  0.3828
 3774G2HFO Head45215  17.851  17.069  23.046 -0.2859 -0.2715 -0.1257
 3774G2HFO Head45216  17.954  16.682  22.880  0.0332 -0.1208  0.1717
 3774G2HFO Head45217  17.643  16.696  22.958  0.3401 -0.0449 -0.1208
 3774G2HFO Head45218  17.503  16.998  23.060 -0.5620  0.1230  0.0588
 3774G2HFO Head45219  18.033  16.757  23.649 -0.1198 -0.0552 -0.0647
 3774G2HFO Head45220  17.815  16.861  23.407  0.4697 -0.4922  0.0979
 3774G2HFO Head45221  17.953  17.277  23.747 -0.0360 -0.0463 -0.1601
 3774G2HFO Head45222  17.772  17.272  23.499 -0.2046 -0.1691 -0.1289
 3774G2HFO Head45223  17.519  17.033  23.482  0.2971 -0.3762 -0.2511
 3774G2HFO link45224  17.351  17.010  23.297  0.1371  0.3183  0.3256
 3774G2HFO link45225  17.085  17.112  23.299  0.0590 -0.1533 -0.3211
 3774G2HFO Tail45226  17.025  17.380  23.500  0.1741 -0.0015  0.1344
 3774G2HFO Tail45227  16.729  17.293  23.651 -0.1593 -0.0891  0.4537
 3774G2HFO Tail45228  16.611  17.054  23.828 -0.0187 -0.4746 -0.1647
 3774G2HFO Tail45229  16.440  16.669  23.789 -0.0161 -0.1172 -0.2500
 3774G2HFO Tail45230  17.211  17.268  23.782 -0.1281  0.0004  0.0035
 3774G2HFO Tail45231  17.203  17.006  23.838 -0.0818 -0.3896 -0.0037
 3774G2HFO Tail45232  17.040  16.852  23.713 -0.1424  0.1832 -0.0519
 3774G2HFO Tail45233  16.906  16.688  23.571 -0.1513  0.1891 -0.0513
 3774G2HFO Tail45234  16.737  16.590  23.431 -0.0018 -0.1623 -0.1610
 3775G2HFO Head45235  18.920  19.174  26.049  0.3985  0.3288 -0.0880
 3775G2HFO Head45236  18.672  19.203  26.278  0.1837  0.1324  0.5660
 3775G2HFO Head45237  18.635  19.182  26.731  0.1648  0.1252  0.1533
 3775G2HFO Head45238  18.391  19.036  26.615 -0.2756 -0.1057  0.0989
 3775G2HFO Head45239  18.376  19.013  26.271  0.3875  0.3285  0.3152
 3775G2HFO Head45240  18.695  18.724  26.774  0.0201  0.2615  0.1630
 3775G2HFO Head45241  18.772  18.809  26.478  0.0822 -0.0317 -0.0543
 3775G2HFO Head45242  18.992  18.289  26.465  0.0038  0.1074  0.0859
 3775G2HFO Head45243  18.676  18.367  26.348 -0.2013  0.1610  0.0814
 3775G2HFO Head45244  18.612  18.687  26.197  0.1752  0.5048 -0.1167
 3775G2HFO link45245  18.372  18.787  26.144 -0.3305  0.3461  0.0862
 3775G2HFO link45246  18.151  18.653  26.023  0.1633 -0.5904  0.1285
 3775G2HFO Tail45247  18.050  18.749  25.726  0.1298 -0.3145 -0.0422
 3775G2HFO Tail45248  17.709  18.765  25.781 -0.1824  0.0174  0.3055
 3775G2HFO Tail45249  17.480  18.871  25.591 -0.0062 -0.1590 -0.0747
 3775G2HFO Tail45250  17.062  18.800  25.538  0.0254 -0.0771 -0.0040
 3775G2HFO Tail45251  18.107  19.095  25.744  0.0478 -0.2218  0.3881
 3775G2HFO Tail45252  17.915  19.272  25.767 -0.1827 -0.1924 -0.0231
 3775G2HFO Tail45253  17.984  19.528  25.735 -0.0861 -0.0678 -0.0232
 3775G2HFO Tail45254  18.057  19.773  25.745 -0.0199  0.0707  0.0583
 3775G2HFO Tail45255  18.061  20.004  25.782 -0.0361  0.1200 -0.0313
 3776G2HFO Head45256  19.184  18.052  22.103 -0.0298 -0.2406 -0.1332
 3776G2HFO Head45257  19.080  17.876  22.365 -0.2507 -0.4286 -0.1151
 3776G2HFO Head45258  18.714  17.385  22.419  0.0415 -0.1518  0.0253
 3776G2HFO Head45259  18.819  17.614  22.601 -0.0199  0.2554 -0.2680
 3776G2HFO Head45260  18.783  17.958  22.530 -0.0480 -0.0696  0.0321
 3776G2HFO Head45261  18.385  17.592  21.754  0.3009 -0.0117 -0.0171
 3776G2HFO Head45262  18.426  17.870  21.882  0.2407 -0.0757 -0.3794
 3776G2HFO Head45263  18.861  17.764  21.704  0.0303 -0.1378  0.3701
 3776G2HFO Head45264  18.823  17.702  22.025 -0.4071 -0.3084 -0.1703
 3776G2HFO Head45265  18.565  17.844  22.204  0.1929  0.0397 -0.1167
 3776G2HFO link45266  18.600  18.036  22.353 -0.7124  0.5575  0.0228
 3776G2HFO link45267  18.416  18.242  22.395  0.1163 -0.0871  0.0363
 3776G2HFO Tail45268  18.510  18.553  22.340 -0.0223  0.1079 -0.2065
 3776G2HFO Tail45269  18.214  18.747  22.316 -0.3111  0.1137 -0.0500
 3776G2HFO Tail45270  17.960  18.798  22.079  0.0190 -0.0107  0.3330
 3776G2HFO Tail45271  17.824  18.636  21.708 -0.1789  0.1803  0.3349
 3776G2HFO Tail45272  18.623  18.634  22.653 -0.1101 -0.2622  0.3085
 3776G2HFO Tail45273  18.771  18.485  22.786  0.1291 -0.3409  0.1358
 3776G2HFO Tail45274  18.684  18.255  22.873 -0.0052  0.0980 -0.1757
 3776G2HFO Tail45275  18.616  18.041  22.994  0.2570  0.0024  0.0774
 3776G2HFO Tail45276  18.499  17.875  23.107 -0.0266  0.3250  0.3310
 3777G2HFO Head45277  15.916  12.832  23.324 -0.2229 -0.5518  0.1249
 3777G2HFO Head45278  15.778  12.852  23.599 -0.2270 -0.3297 -0.3177
 3777G2HFO Head45279  16.158  12.667  24.202 -0.0391 -0.1296  0.2231
 3777G2HFO Head45280  15.931  12.754  24.020  0.4647  0.3894  0.3068
 3777G2HFO Head45281  15.915  13.060  23.855  0.3195 -0.1999 -0.1119
 3777G2HFO Head45282  15.485  12.652  24.399 -0.2316 -0.2991 -0.2073
 3777G2HFO Head45283  15.478  12.984  24.355  0.4116  0.3656 -0.1429
 3777G2HFO Head45284  15.084  13.195  24.400 -0.2082  0.1454 -0.1110
 3777G2HFO Head45285  15.233  13.299  24.133 -0.0560  0.0271  0.2144
 3777G2HFO Head45286  15.514  13.126  24.022 -0.1711 -0.1595  0.2107
 3777G2HFO link45287  15.734  13.240  23.944  0.2754 -0.0392 -0.2578
 3777G2HFO link45288  15.755  13.513  23.918  0.1461 -0.0179  0.3122
 3777G2HFO Tail45289  15.480  13.702  23.878 -0.1229  0.0687  0.4310
 3777G2HFO Tail45290  15.637  14.019  23.851  0.0055 -0.1354 -0.1844
 3777G2HFO Tail45291  15.802  14.164  23.629  0.1185 -0.2212 -0.0096
 3777G2HFO Tail45292  15.977  14.552  23.518 -0.2576  0.4545 -0.0386
 3777G2HFO Tail45293  15.374  13.742  24.188 -0.2348 -0.0445 -0.2407
 3777G2HFO Tail45294  15.473  13.604  24.393 -0.1213 -0.0212 -0.0853
 3777G2HFO Tail45295  15.660  13.427  24.374  0.0553  0.0035  0.1266
 3777G2HFO Tail45296  15.830  13.231  24.380 -0.1217 -0.1574  0.0759
 3777G2HFO Tail45297  15.999  13.083  24.332 -0.2442  0.2305  0.0635
 3778G2HFO Head45298  18.463  20.613  23.142  0.1650 -0.1956  0.1635
 3778G2HFO Head45299  18.209  20.472  23.031  0.3644 -0.2202  0.2164
 3778G2HFO Head45300  18.271  21.033  22.822 -0.0881 -0.1574  0.1299
 3778G2HFO Head45301  18.035  20.878  22.808 -0.1713 -0.5380  0.0282
 3778G2HFO Head45302  18.081  20.554  22.706  0.0871 -0.1911  0.3456
 3778G2HFO Head45303  18.841  20.224  22.815  0.0345 -0.3012 -0.3426
 3778G2HFO Head45304  18.772  20.450  22.616  0.1171 -0.2890 -0.4113
 3778G2HFO Head45305  18.501  21.122  22.376  0.3126  0.0450  0.0227
 3778G2HFO Head45306  18.640  20.880  22.500 -0.0332 -0.1677  0.2576
 3778G2HFO Head45307  18.458  20.611  22.647  0.2959  0.0118  0.2348
 3778G2HFO link45308  18.254  20.524  22.516 -0.0951  0.1072  0.2207
 3778G2HFO link45309  18.241  20.577  22.230 -0.3218 -0.0026  0.0097
 3778G2HFO Tail45310  18.133  20.360  21.997  0.1434  0.1639  0.1463
 3778G2HFO Tail45311  18.379  20.442  21.740  0.1655  0.2044 -0.0014
 3778G2HFO Tail45312  18.632  20.300  21.596  0.0738  0.1229 -0.0887
 3778G2HFO Tail45313  18.737  20.028  21.279  0.0646  0.1416 -0.3191
 3778G2HFO Tail45314  17.853  20.548  21.889  0.0049  0.1166  0.1948
 3778G2HFO Tail45315  17.718  20.666  22.082 -0.1837  0.0672 -0.0910
 3778G2HFO Tail45316  17.507  20.814  22.022  0.1376 -0.1702 -0.2464
 3778G2HFO Tail45317  17.279  20.940  21.999 -0.2466  0.0404  0.0373
 3778G2HFO Tail45318  17.052  20.989  21.983  0.3509 -0.0751 -0.1120
 3779G2HFO Head45319  15.475  16.610  18.590  0.0020 -0.0180  0.1348
 3779G2HFO Head45320  15.749  16.547  18.451 -0.3737 -0.2514 -0.0265
 3779G2HFO Head45321  15.513  16.165  18.901 -0.3504  0.3719 -0.3292
 3779G2HFO Head45322  15.629  16.215  18.623 -0.1738  0.6266  0.0147
 3779G2HFO Head45323  15.962  16.287  18.575  0.1298 -0.1219 -0.0544
 3779G2HFO Head45324  15.505  15.732  18.240 -0.0693 -0.1242 -0.1694
 3779G2HFO Head45325  15.648  15.999  18.230  0.2960  0.0506  0.0952
 3779G2HFO Head45326  15.696  16.521  18.040 -0.0536 -0.5002  0.1082
 3779G2HFO Head45327  15.919  16.309  17.975  0.2325 -0.2697 -0.2083
 3779G2HFO Head45328  15.997  16.075  18.230 -0.0020 -0.2518 -0.0372
 3779G2HFO link45329  16.116  16.154  18.445  0.1752 -0.1431  0.0419
 3779G2HFO link45330  16.393  16.183  18.462 -0.1212 -0.3422  0.0877
 3779G2HFO Tail45331  16.581  16.159  18.730  0.1137 -0.3791 -0.0182
 3779G2HFO Tail45332  16.790  16.443  18.678  0.1791  0.0203  0.1052
 3779G2HFO Tail45333  17.062  16.569  18.753  0.1521 -0.0369 -0.1773
 3779G2HFO Tail45334  17.215  16.943  18.931 -0.0921 -0.3063  0.2584
 3779G2HFO Tail45335  16.350  16.278  18.972  0.1078  0.1439 -0.2566
 3779G2HFO Tail45336  16.128  16.174  19.057 -0.0733 -0.0379  0.3009
 3779G2HFO Tail45337  16.009  16.017  18.897  0.1057 -0.1118  0.0690
 3779G2HFO Tail45338  15.917  15.830  18.751 -0.1941  0.2118 -0.0171
 3779G2HFO Tail45339  15.783  15.715  18.594  0.0770  0.3575  0.0484
 3780G2HFO Head45340  18.596  14.485  23.378 -0.4937 -0.1053  0.1926
 3780G2HFO Head45341  18.394  14.630  23.558  0.2492  0.3440  0.5138
 3780G2HFO Head45342  18.039  13.996  23.616  0.1887  0.2370  0.2381
 3780G2HFO Head45343  18.160  14.222  23.427 -0.1672  0.0594 -0.0976
 3780G2HFO Head45344  18.059  14.543  23.482  0.2678 -0.0978 -0.2449
 3780G2HFO Head45345  18.425  14.558  22.840 -0.2229  0.2985 -0.1385
 3780G2HFO Head45346  18.281  14.453  23.052  0.0568 -0.1991 -0.1706
 3780G2HFO Head45347  17.963  14.551  22.550  0.2790  0.0207  0.4377
 3780G2HFO Head45348  18.020  14.745  22.806  0.4239  0.2065 -0.3485
 3780G2HFO Head45349  17.952  14.571  23.098  0.1581 -0.2329  0.4410
 3780G2HFO link45350  17.898  14.695  23.326 -0.7252 -0.5605 -0.1425
 3780G2HFO link45351  17.658  14.788  23.446  0.3801  0.1338  0.0910
 3780G2HFO Tail45352  17.389  14.838  23.264  0.0905 -0.5332  0.3096
 3780G2HFO Tail45353  17.145  14.947  23.478  0.1099 -0.1709 -0.1431
 3780G2HFO Tail45354  16.808  14.913  23.418  0.0527 -0.1183  0.0671
 3780G2HFO Tail45355  16.489  14.792  23.672  0.2919  0.1671  0.4851
 3780G2HFO Tail45356  17.281  14.503  23.172  0.1790 -0.1824 -0.0156
 3780G2HFO Tail45357  17.045  14.423  23.275  0.0269 -0.1785  0.0719
 3780G2HFO Tail45358  16.973  14.175  23.242 -0.1293  0.0124 -0.0721
 3780G2HFO Tail45359  16.949  13.922  23.238  0.0695 -0.2093 -0.1305
 3780G2HFO Tail45360  16.956  13.689  23.255 -0.0836 -0.0999 -0.2617
 3781G2HFO Head45361  17.471  13.321  20.346  0.1651  0.0050 -0.0431
 3781G2HFO Head45362  17.514  13.153  20.605  0.1532  0.0749 -0.1248
 3781G2HFO Head45363  17.880  12.934  20.962 -0.2257  0.0923 -0.2701
 3781G2HFO Head45364  17.580  13.070  21.035 -0.2779  0.0836 -0.3577
 3781G2HFO Head45365  17.448  13.354  20.883  0.3181 -0.3084  0.1234
 3781G2HFO Head45366  16.654  12.929  20.794  0.1682  0.3886  0.0566
 3781G2HFO Head45367  16.816  13.092  20.966 -0.2362 -0.2623 -0.1708
 3781G2HFO Head45368  16.607  13.287  20.439  0.0853  0.1300  0.0083
 3781G2HFO Head45369  16.753  13.423  20.703 -0.0795  0.0335  0.0121
 3781G2HFO Head45370  17.044  13.297  20.819  0.1132  0.0894  0.0736
 3781G2HFO link45371  17.209  13.436  20.962  0.2696  0.1448 -0.3512
 3781G2HFO link45372  17.184  13.662  21.130 -0.0391 -0.4233 -0.0771
 3781G2HFO Tail45373  17.431  13.803  21.307 -0.3301  0.1034 -0.1361
 3781G2HFO Tail45374  17.335  14.127  21.289 -0.0045  0.1684 -0.0918
 3781G2HFO Tail45375  17.465  14.405  21.323  0.0964 -0.2510  0.4306
 3781G2HFO Tail45376  17.394  14.824  21.421  0.1261  0.0096 -0.0911
 3781G2HFO Tail45377  17.668  13.805  21.053  0.0608 -0.0449 -0.2055
 3781G2HFO Tail45378  17.619  13.846  20.790 -0.0274  0.1710 -0.0338
 3781G2HFO Tail45379  17.404  13.738  20.702  0.0181 -0.0514 -0.1842
 3781G2HFO Tail45380  17.208  13.641  20.574  0.1697 -0.0295  0.0318
 3781G2HFO Tail45381  17.069  13.501  20.451  0.0922  0.0702  0.2362
 3782G2HFO Head45382  14.133  15.217  22.093  0.0992 -0.3861  0.2844
 3782G2HFO Head45383  14.418  15.153  22.109  0.0355  0.1276  0.1444
 3782G2HFO Head45384  14.162  14.646  21.647  0.0614  0.1090  0.1946
 3782G2HFO Head45385  14.233  14.960  21.713 -0.3488 -0.0170  0.2835
 3782G2HFO Head45386  14.570  15.044  21.803 -0.2840 -0.2706 -0.2729
 3782G2HFO Head45387  14.853  14.176  21.493 -0.2545  0.0753  0.0375
 3782G2HFO Head45388  14.638  14.403  21.512  0.0304 -0.1085 -0.3181
 3782G2HFO Head45389  14.627  14.256  22.251  0.0076  0.0485 -0.3235
 3782G2HFO Head45390  14.775  14.364  21.960  0.0031 -0.2324 -0.1311
 3782G2HFO Head45391  14.625  14.632  21.771  0.1787 -0.1238  0.1009
 3782G2HFO link45392  14.759  14.873  21.760 -0.6627  0.5599 -0.2392
 3782G2HFO link45393  14.970  14.927  21.582 -0.0023  0.1116 -0.0772
 3782G2HFO Tail45394  15.187  14.692  21.502  0.1276 -0.4409  0.2908
 3782G2HFO Tail45395  15.491  14.844  21.535 -0.1063 -0.1800  0.3598
 3782G2HFO Tail45396  15.685  15.006  21.730 -0.3534  0.0342 -1.0113
 3782G2HFO Tail45397  16.106  15.008  21.843  0.6784  0.0013 -0.0819
 3782G2HFO Tail45398  15.178  14.533  21.814 -0.3391  0.1937  0.1378
 3782G2HFO Tail45399  15.392  14.387  21.880  0.1167 -0.2254 -0.2477
 3782G2HFO Tail45400  15.634  14.467  21.790  0.3471 -0.0334 -0.0430
 3782G2HFO Tail45401  15.880  14.534  21.748  0.0780  0.4598  0.1474
 3782G2HFO Tail45402  16.110  14.547  21.718  0.1178  0.0779  0.0509
 3783G2HFO Head45403  17.695  21.986  20.074  0.0402 -0.0913  0.2365
 3783G2HFO Head45404  17.671  21.726  20.256 -0.1306 -0.0198 -0.0078
 3783G2HFO Head45405  16.963  21.456  20.087  0.0891  0.2198 -0.5217
 3783G2HFO Head45406  17.263  21.587  20.095  0.1099  0.1328 -0.1143
 3783G2HFO Head45407  17.564  21.417  20.125 -0.2574  0.1015 -0.0278
 3783G2HFO Head45408  17.255  20.671  20.652  0.3255  0.1385  0.1400
 3783G2HFO Head45409  17.326  20.968  20.723  0.4514  0.0496  0.1997
 3783G2HFO Head45410  17.397  21.702  20.673  0.2324 -0.3839  0.0737
 3783G2HFO Head45411  17.412  21.401  20.737  0.0525  0.0070 -0.2291
 3783G2HFO Head45412  17.374  21.208  20.463 -0.1524  0.2086 -0.1314
 3783G2HFO link45413  17.577  21.194  20.278  0.1645  0.4167 -0.0120
 3783G2HFO link45414  17.830  21.090  20.345 -0.0533 -0.0426  0.2253
 3783G2HFO Tail45415  17.868  20.916  20.623  0.1787 -0.2652  0.0253
 3783G2HFO Tail45416  17.907  20.582  20.506  0.0799 -0.3509  0.2839
 3783G2HFO Tail45417  18.020  20.322  20.605 -0.0683  0.0608  0.0656
 3783G2HFO Tail45418  18.408  20.186  20.721 -0.1201  0.5369 -0.0729
 3783G2HFO Tail45419  18.193  21.022  20.740 -0.1725 -0.1605  0.2963
 3783G2HFO Tail45420  18.333  21.190  20.586 -0.0211 -0.1243 -0.0733
 3783G2HFO Tail45421  18.547  21.094  20.475  0.0059  0.0667 -0.0278
 3783G2HFO Tail45422  18.714  20.954  20.346 -0.0448  0.0656  0.0768
 3783G2HFO Tail45423  18.904  20.866  20.255  0.1334  0.1808 -0.1085
 3784G2HFO Head45424  17.866  15.641  17.826  0.0432  0.0445 -0.0454
 3784G2HFO Head45425  17.682  15.420  17.975 -0.0407  0.1180  0.3490
 3784G2HFO Head45426  17.379  14.910  17.774  0.5757  0.1438  0.4153
 3784G2HFO Head45427  17.463  15.058  18.007 -0.2169 -0.3884 -0.2409
 3784G2HFO Head45428  17.802  15.107  18.076  0.0689  0.2566  0.2878
 3784G2HFO Head45429  18.583  15.258  18.301  0.1775 -0.3161  0.2233
 3784G2HFO Head45430  18.394  15.091  18.473 -0.0986 -0.1900  0.0998
 3784G2HFO Head45431  18.570  14.765  18.063  0.1129  0.0285 -0.0074
 3784G2HFO Head45432  18.330  14.927  18.071  0.0332 -0.2761  0.0313
 3784G2HFO Head45433  18.098  14.933  18.336  0.0327 -0.2042  0.2867
 3784G2HFO link45434  17.864  15.067  18.331  0.0679 -0.2493  0.1621
 3784G2HFO link45435  17.762  15.232  18.541 -0.0315  0.0330  0.2264
 3784G2HFO Tail45436  17.531  15.142  18.751  0.3523 -0.0501  0.0370
 3784G2HFO Tail45437  17.723  15.134  19.058  0.1605  0.0173  0.3366
 3784G2HFO Tail45438  17.648  15.000  19.330  0.0543  0.0715 -0.5037
 3784G2HFO Tail45439  17.435  15.112  19.694  0.3322  0.1225  0.1838
 3784G2HFO Tail45440  17.366  15.456  18.765 -0.1421  0.0611  0.2131
 3784G2HFO Tail45441  17.098  15.467  18.726 -0.2773  0.2385 -0.2845
 3784G2HFO Tail45442  16.978  15.535  18.948  0.2458 -0.0981  0.0663
 3784G2HFO Tail45443  16.872  15.565  19.176  0.0780 -0.0103  0.1168
 3784G2HFO Tail45444  16.753  15.551  19.379 -0.0440  0.1513  0.0123
 3785G2HFO Head45445  17.853  15.101  26.938  0.4049 -0.0778 -0.4608
 3785G2HFO Head45446  17.834  15.062  26.629  0.0080  0.0547 -0.0327
 3785G2HFO Head45447  17.795  15.573  26.781 -0.1430  0.3506  0.0830
 3785G2HFO Head45448  17.544  15.359  26.734  0.1155  0.0745  0.0130
 3785G2HFO Head45449  17.532  15.160  26.460  0.1517 -0.0646  0.1491
 3785G2HFO Head45450  17.160  14.288  26.306  0.0561 -0.0680 -0.0874
 3785G2HFO Head45451  17.401  14.502  26.291  0.2954  0.3039  0.0301
 3785G2HFO Head45452  17.168  14.573  26.986 -0.0368 -0.0171 -0.5302
 3785G2HFO Head45453  17.216  14.552  26.679  0.4172 -0.1918  0.3893
 3785G2HFO Head45454  17.428  14.769  26.516  0.0892 -0.0050 -0.2725
 3785G2HFO link45455  17.340  15.017  26.438 -0.0185  0.0414  0.2821
 3785G2HFO link45456  17.110  15.063  26.279 -0.0821  0.0479 -0.0414
 3785G2HFO Tail45457  17.173  15.195  25.986 -0.2607  0.0991  0.3305
 3785G2HFO Tail45458  16.922  15.418  25.919 -0.2927  0.0477 -0.0432
 3785G2HFO Tail45459  16.767  15.502  25.649 -0.1730  0.3244 -0.2937
 3785G2HFO Tail45460  16.700  15.853  25.403 -0.2592  0.0641 -0.0162
 3785G2HFO Tail45461  17.423  15.408  26.111 -0.0214 -0.1415  0.1460
 3785G2HFO Tail45462  17.376  15.575  26.311 -0.0524  0.0643  0.1827
 3785G2HFO Tail45463  17.172  15.529  26.464  0.0683  0.0432  0.0571
 3785G2HFO Tail45464  16.961  15.450  26.586  0.1818 -0.0274 -0.0482
 3785G2HFO Tail45465  16.794  15.318  26.678  0.0967  0.1351 -0.0599
 3786G2HFO Head45466  21.327  15.522  18.486 -0.2295 -0.2117  0.2036
 3786G2HFO Head45467  21.324  15.644  18.766 -0.5419  0.3798 -0.1506
 3786G2HFO Head45468  21.619  16.297  18.764  0.0170 -0.0148 -0.0233
 3786G2HFO Head45469  21.470  16.038  18.687 -0.3303  0.1150  0.1910
 3786G2HFO Head45470  21.184  15.945  18.842  0.1110  0.1793  0.3101
 3786G2HFO Head45471  20.651  16.281  18.152  0.2061  0.2771  0.1119
 3786G2HFO Head45472  20.723  15.984  18.268 -0.1122 -0.2700 -0.2817
 3786G2HFO Head45473  21.081  16.099  17.936 -0.1150 -0.1127  0.1825
 3786G2HFO Head45474  21.182  16.090  18.262  0.1623  0.1989  0.0543
 3786G2HFO Head45475  20.976  15.907  18.490 -0.2038 -0.3288  0.0681
 3786G2HFO link45476  20.940  15.999  18.728 -0.6318 -0.1293 -0.2970
 3786G2HFO link45477  20.686  16.077  18.845  0.0440  0.0462  0.0718
 3786G2HFO Tail45478  20.413  16.017  18.658  0.2614 -0.4635 -0.1325
 3786G2HFO Tail45479  20.157  15.983  18.898 -0.0579  0.1997 -0.2579
 3786G2HFO Tail45480  20.035  15.757  19.072 -0.0302  0.1174 -0.1435
 3786G2HFO Tail45481  20.124  15.435  19.353 -0.0740  0.1953  0.0949
 3786G2HFO Tail45482  20.473  15.689  18.572  0.3722 -0.1232  0.2843
 3786G2HFO Tail45483  20.699  15.561  18.567 -0.1446 -0.0883  0.0514
 3786G2HFO Tail45484  20.852  15.579  18.766 -0.0358 -0.2070 -0.1254
 3786G2HFO Tail45485  20.961  15.618  18.995 -0.1191 -0.0494  0.2919
 3786G2HFO Tail45486  21.112  15.624  19.173  0.0614  0.1785  0.1409
 3787G2HFO Head45487  17.919  17.103  20.928  0.1753 -0.3950  0.2319
 3787G2HFO Head45488  17.703  16.870  20.960  0.0520 -0.2470  0.1829
 3787G2HFO Head45489  17.744  17.134  21.405 -0.3358 -0.1467  0.0610
 3787G2HFO Head45490  17.598  16.833  21.375 -0.1859 -0.0045 -0.0324
 3787G2HFO Head45491  17.735  16.586  21.159 -0.1960  0.0356  0.4334
 3787G2HFO Head45492  18.418  17.085  21.156 -0.0952 -0.2699 -0.1433
 3787G2HFO Head45493  18.148  16.991  21.281  0.3333 -0.3130 -0.0086
 3787G2HFO Head45494  17.922  16.556  21.929 -0.2575 -0.0433  0.2040
 3787G2HFO Head45495  17.964  16.775  21.666  0.0174 -0.0146 -0.3533
 3787G2HFO Head45496  18.110  16.667  21.353  0.1161  0.1024  0.0271
 3787G2HFO link45497  17.983  16.516  21.191  0.2150  0.1323  0.2289
 3787G2HFO link45498  18.105  16.273  21.111  0.0332 -0.0416  0.2096
 3787G2HFO Tail45499  17.993  15.999  21.251  0.1034  0.1010  0.1324
 3787G2HFO Tail45500  17.863  15.808  20.991  0.0775 -0.1761  0.0442
 3787G2HFO Tail45501  17.827  15.496  20.911 -0.4732 -0.3384 -0.1244
 3787G2HFO Tail45502  17.638  15.158  21.089  0.3133 -0.1056 -0.0984
 3787G2HFO Tail45503  18.282  15.839  21.328  0.0244 -0.0481  0.1451
 3787G2HFO Tail45504  18.496  15.875  21.179 -0.2055 -0.0428 -0.2789
 3787G2HFO Tail45505  18.491  16.012  20.964 -0.0102 -0.1199  0.0348
 3787G2HFO Tail45506  18.463  16.172  20.770  0.1555 -0.0774  0.0156
 3787G2HFO Tail45507  18.400  16.272  20.570  0.2298 -0.1228  0.0315
 3788G2HFO Head45508  20.364  16.254  21.200  0.3558 -0.1520 -0.3121
 3788G2HFO Head45509  20.114  16.430  21.109  0.0239  0.1041  0.2322
 3788G2HFO Head45510  20.445  16.730  21.070 -0.0552  0.2759 -0.1389
 3788G2HFO Head45511  20.273  16.670  20.781 -0.1334  0.0356 -0.1338
 3788G2HFO Head45512  20.002  16.433  20.764 -0.2573 -0.1461 -0.0343
 3788G2HFO Head45513  19.968  16.939  21.325  0.3028 -0.1430  0.0912
 3788G2HFO Head45514  19.950  16.899  21.006  0.0191  0.1024 -0.0388
 3788G2HFO Head45515  19.436  16.822  21.384 -0.0612  0.0407  0.0014
 3788G2HFO Head45516  19.648  16.652  21.210 -0.0284 -0.0470  0.0468
 3788G2HFO Head45517  19.699  16.697  20.865  0.0442 -0.4157 -0.0376
 3788G2HFO link45518  19.754  16.511  20.690 -0.2994  0.1525 -0.0966
 3788G2HFO link45519  19.562  16.361  20.549 -0.6810 -0.0359  0.2838
 3788G2HFO Tail45520  19.618  16.077  20.408  0.3402  0.0096  0.2360
 3788G2HFO Tail45521  19.292  15.962  20.454 -0.2231 -0.1533  0.1995
 3788G2HFO Tail45522  19.168  15.678  20.514  0.0405  0.0136 -0.3064
 3788G2HFO Tail45523  18.893  15.416  20.328  0.1962  0.0018 -0.0727
 3788G2HFO Tail45524  19.562  16.166  20.070  0.1989 -0.0859  0.4261
 3788G2HFO Tail45525  19.341  16.295  20.005  0.0490  0.0275  0.0507
 3788G2HFO Tail45526  19.121  16.152  20.010 -0.1301 -0.2576 -0.0092
 3788G2HFO Tail45527  18.923  15.989  20.002 -0.1719 -0.0673 -0.0425
 3788G2HFO Tail45528  18.715  15.877  19.961  0.1797  0.2560 -0.0806
 3789G2HFO Head45529  16.223  16.790  27.247 -0.0611  0.1811 -0.0404
 3789G2HFO Head45530  16.333  16.564  27.054  0.3245  0.1586 -0.2262
 3789G2HFO Head45531  15.689  16.369  27.146 -0.1419  0.2432  0.0815
 3789G2HFO Head45532  16.011  16.306  27.088 -0.2794 -0.2344  0.5190
 3789G2HFO Head45533  16.131  16.445  26.788  0.0344 -0.0949 -0.0203
 3789G2HFO Head45534  16.372  15.998  27.312 -0.2166 -0.1303  0.1453
 3789G2HFO Head45535  16.266  15.923  27.019  0.0269 -0.0364  0.4806
 3789G2HFO Head45536  16.599  15.736  26.323  0.3032 -0.1777 -0.4814
 3789G2HFO Head45537  16.444  15.772  26.613 -0.2478 -0.2543 -0.3451
 3789G2HFO Head45538  16.384  16.100  26.741 -0.1348 -0.3220 -0.0481
 3789G2HFO link45539  16.215  16.270  26.614  0.1411 -0.0228  0.0206
 3789G2HFO link45540  16.199  16.313  26.333 -0.0274  0.1903 -0.3828
 3789G2HFO Tail45541  15.973  16.494  26.195  0.2557  0.2277  0.2800
 3789G2HFO Tail45542  16.069  16.512  25.864 -0.1208  0.0939  0.0727
 3789G2HFO Tail45543  16.210  16.370  25.621  0.1908  0.0692 -0.4199
 3789G2HFO Tail45544  16.117  16.049  25.348  0.0530  0.0804 -0.2261
 3789G2HFO Tail45545  16.080  16.814  26.335 -0.0188 -0.0737  0.2122
 3789G2HFO Tail45546  16.251  16.884  26.527  0.0553 -0.0546  0.3063
 3789G2HFO Tail45547  16.452  16.728  26.586 -0.3753  0.0351  0.0544
 3789G2HFO Tail45548  16.623  16.549  26.652  0.0606 -0.0074 -0.1328
 3789G2HFO Tail45549  16.757  16.404  26.781 -0.0117 -0.1929 -0.2430
 3790G2HFO Head45550  15.765  18.127  18.750 -0.2942  0.0442 -0.0212
 3790G2HFO Head45551  15.990  18.020  18.889  0.1426 -0.2776 -0.1456
 3790G2HFO Head45552  15.551  17.650  18.872  0.1707  0.3597  0.4694
 3790G2HFO Head45553  15.776  17.598  18.676 -0.2271 -0.1873 -0.4324
 3790G2HFO Head45554  16.092  17.688  18.793 -0.0603 -0.1372  0.4097
 3790G2HFO Head45555  16.694  17.520  18.183 -0.1053  0.1449  0.1172
 3790G2HFO Head45556  16.425  17.593  18.170 -0.0511 -0.5978 -0.1393
 3790G2HFO Head45557  15.706  17.836  18.290 -0.3186  0.0497  0.1987
 3790G2HFO Head45558  15.983  17.641  18.268  0.2008 -0.0646  0.2105
 3790G2HFO Head45559  16.263  17.748  18.426 -0.3858  0.1643  0.1110
 3790G2HFO link45560  16.315  17.662  18.650 -0.2170  0.0011 -0.2656
 3790G2HFO link45561  16.558  17.558  18.742  0.2405 -0.0659 -0.0479
 3790G2HFO Tail45562  16.711  17.323  18.570 -0.0217  0.2167 -0.6453
 3790G2HFO Tail45563  17.038  17.447  18.547  0.1644  0.0648  0.3151
 3790G2HFO Tail45564  17.283  17.468  18.760  0.3225  0.0938  0.0457
 3790G2HFO Tail45565  17.537  17.751  18.955 -0.2238 -0.3199  0.1532
 3790G2HFO Tail45566  16.746  17.089  18.811 -0.0524  0.0807  0.3123
 3790G2HFO Tail45567  16.783  17.183  19.054 -0.1602  0.0081 -0.1653
 3790G2HFO Tail45568  16.936  17.389  19.085 -0.0972  0.0153 -0.1702
 3790G2HFO Tail45569  17.089  17.584  19.158  0.2098 -0.0004  0.0698
 3790G2HFO Tail45570  17.237  17.719  19.278 -0.3402  0.1061  0.5522
 3791G2HFO Head45571  19.671  17.566  22.096 -0.1502  0.3847 -0.0813
 3791G2HFO Head45572  19.472  17.732  22.295 -0.0106  0.0766 -0.2917
 3791G2HFO Head45573  19.943  17.938  21.959 -0.0455 -0.1049  0.4011
 3791G2HFO Head45574  19.647  18.099  22.049  0.2455  0.1816  0.0427
 3791G2HFO Head45575  19.513  18.060  22.374  0.2393 -0.3930 -0.3515
 3791G2HFO Head45576  20.313  17.867  22.440  0.0184 -0.2047  0.1254
 3791G2HFO Head45577  20.026  17.795  22.402 -0.1883  0.0482  0.0333
 3791G2HFO Head45578  19.797  17.362  22.830 -0.1113  0.0457 -0.3000
 3791G2HFO Head45579  19.692  17.581  22.634 -0.1089 -0.1524  0.0908
 3791G2HFO Head45580  19.809  17.912  22.635 -0.1945 -0.1233  0.3029
 3791G2HFO link45581  19.655  18.135  22.593 -0.3194  0.1565  0.4788
 3791G2HFO link45582  19.617  18.345  22.771  0.2369 -0.2423 -0.0729
 3791G2HFO Tail45583  19.327  18.487  22.785 -0.5104  0.0481 -0.3709
 3791G2HFO Tail45584  19.202  18.363  22.488 -0.1078 -0.0819  0.3499
 3791G2HFO Tail45585  18.935  18.387  22.306 -0.1752 -0.1749 -0.4035
 3791G2HFO Tail45586  18.748  18.182  21.988 -0.1386  0.3908 -0.1570
 3791G2HFO Tail45587  19.152  18.266  22.989  0.0452  0.4754 -0.0438
 3791G2HFO Tail45588  19.278  18.177  23.201  0.0847  0.0243  0.1129
 3791G2HFO Tail45589  19.294  18.304  23.422 -0.1759 -0.2414  0.1449
 3791G2HFO Tail45590  19.332  18.462  23.618 -0.2890 -0.1732 -0.0375
 3791G2HFO Tail45591  19.335  18.554  23.840  0.0582  0.0544  0.3032
 3792G2HFO Head45592  16.113  18.983  22.429  0.1274 -0.2219  0.3011
 3792G2HFO Head45593  16.360  18.781  22.426  0.0284  0.4341 -0.1120
 3792G2HFO Head45594  16.163  18.168  22.054 -0.0579  0.2614  0.1052
 3792G2HFO Head45595  16.170  18.420  22.185 -0.1571 -0.2839 -0.0399
 3792G2HFO Head45596  16.468  18.610  22.145 -0.3076  0.1514  0.3513
 3792G2HFO Head45597  17.202  18.361  22.575 -0.2009 -0.2427  0.1525
 3792G2HFO Head45598  16.922  18.254  22.586  0.6227 -0.1762 -0.1998
 3792G2HFO Head45599  16.471  18.290  22.813  0.2834  0.1397  0.0763
 3792G2HFO Head45600  16.405  18.276  22.522 -0.0667  0.0642 -0.1769
 3792G2HFO Head45601  16.686  18.265  22.321 -0.6598 -0.0023  0.1704
 3792G2HFO link45602  16.713  18.475  22.166 -0.0311  0.1317 -0.0584
 3792G2HFO link45603  16.959  18.562  22.054 -0.0135 -0.0477  0.2379
 3792G2HFO Tail45604  17.208  18.684  22.226  0.1277  0.1186 -0.3332
 3792G2HFO Tail45605  17.101  19.036  22.244 -0.2923 -0.0888  0.2174
 3792G2HFO Tail45606  17.171  19.303  22.085  0.0158  0.1611 -0.1003
 3792G2HFO Tail45607  17.152  19.738  22.097 -0.3394  0.0888  0.1066
 3792G2HFO Tail45608  17.459  18.697  21.991 -0.0154  0.2901  0.1304
 3792G2HFO Tail45609  17.434  18.526  21.781  0.3958 -0.0171 -0.0850
 3792G2HFO Tail45610  17.225  18.527  21.631  0.0638  0.0690 -0.0244
 3792G2HFO Tail45611  17.037  18.558  21.468  0.0934  0.0902  0.1805
 3792G2HFO Tail45612  16.833  18.546  21.360  0.2831  0.0715  0.1289
 3793G2HFO Head45613  19.997  17.506  24.077 -0.0892 -0.0627 -0.1258
 3793G2HFO Head45614  19.801  17.718  24.055 -0.2764 -0.4763 -0.0889
 3793G2HFO Head45615  19.454  17.154  23.621 -0.1052 -0.1067 -0.0105
 3793G2HFO Head45616  19.614  17.330  23.852  0.1734  0.2832  0.0266
 3793G2HFO Head45617  19.472  17.649  23.933 -0.0610 -0.2058  0.4039
 3793G2HFO Head45618  18.633  17.411  24.079 -0.0425  0.0553 -0.2431
 3793G2HFO Head45619  18.882  17.293  24.195 -0.1340  0.1490 -0.2671
 3793G2HFO Head45620  19.147  16.970  24.485 -0.0382  0.2725  0.3848
 3793G2HFO Head45621  19.325  17.215  24.392 -0.2777 -0.0356  0.0668
 3793G2HFO Head45622  19.218  17.399  24.132  0.1872  0.0968 -0.1065
 3793G2HFO link45623  19.261  17.669  24.089  0.2630 -0.0489  0.0620
 3793G2HFO link45624  19.064  17.870  24.068  0.1758 -0.2453 -0.0196
 3793G2HFO Tail45625  19.128  18.145  23.896 -0.1054  0.2486 -0.1459
 3793G2HFO Tail45626  18.862  18.160  23.635  0.2267  0.1779  0.1475
 3793G2HFO Tail45627  18.811  18.343  23.377 -0.1962 -0.2403 -0.1105
 3793G2HFO Tail45628  18.880  18.741  23.221  0.0356  0.1730  0.2582
 3793G2HFO Tail45629  18.927  18.383  24.072 -0.3648 -0.1922 -0.0407
 3793G2HFO Tail45630  18.798  18.322  24.282  0.1515  0.0724 -0.0113
 3793G2HFO Tail45631  18.777  18.078  24.370 -0.4766  0.0102  0.0378
 3793G2HFO Tail45632  18.752  17.827  24.421  0.0880 -0.1285  0.1181
 3793G2HFO Tail45633  18.674  17.622  24.494  0.3760 -0.0565 -0.1563
 3794G2HFO Head45634  16.398  13.799  25.666 -0.0035  0.0300  0.0660
 3794G2HFO Head45635  16.300  14.015  25.452  0.0504 -0.0210 -0.1740
 3794G2HFO Head45636  16.174  13.628  25.248 -0.0018 -0.5048 -0.2362
 3794G2HFO Head45637  16.369  13.775  25.068  0.1660  0.0948 -0.2655
 3794G2HFO Head45638  16.500  14.097  25.150 -0.5063  0.1971 -0.1286
 3794G2HFO Head45639  16.736  13.720  24.543 -0.1827  0.0182  0.0592
 3794G2HFO Head45640  16.520  13.886  24.691  0.1977  0.2966 -0.0623
 3794G2HFO Head45641  16.942  13.854  24.963 -0.0997  0.1027 -0.3000
 3794G2HFO Head45642  16.907  14.094  24.797 -0.0287 -0.0361 -0.1621
 3794G2HFO Head45643  16.578  14.227  24.787 -0.2725 -0.1557 -0.0188
 3794G2HFO link45644  16.446  14.309  25.002  0.0171  0.2038 -0.2103
 3794G2HFO link45645  16.337  14.563  25.089  0.1187  0.1157  0.0861
 3794G2HFO Tail45646  16.143  14.740  24.896 -0.1410  0.5283  0.5575
 3794G2HFO Tail45647  16.290  15.052  24.880 -0.3475 -0.2731  0.3736
 3794G2HFO Tail45648  16.200  15.364  24.926  0.0005  0.0322  0.0913
 3794G2HFO Tail45649  16.361  15.729  25.057  0.1923  0.0178 -0.2174
 3794G2HFO Tail45650  16.206  14.587  24.568  0.0805  0.3661 -0.6180
 3794G2HFO Tail45651  16.313  14.358  24.539  0.0774  0.3331 -0.1626
 3794G2HFO Tail45652  16.179  14.170  24.426  0.0230 -0.0050  0.1865
 3794G2HFO Tail45653  16.002  14.011  24.328  0.0592  0.2236 -0.3250
 3794G2HFO Tail45654  15.834  13.841  24.302 -0.2101 -0.0822  0.1949
 3795G2HFO Head45655  16.574  12.830  22.696 -0.2506  0.0346 -0.0776
 3795G2HFO Head45656  16.497  13.096  22.582 -0.0672  0.1410 -0.0272
 3795G2HFO Head45657  17.229  13.074  22.547  0.0646  0.0779  0.1183
 3795G2HFO Head45658  16.956  13.040  22.413  0.0952  0.0511 -0.2318
 3795G2HFO Head45659  16.738  13.312  22.423 -0.1404 -0.2924  0.1818
 3795G2HFO Head45660  17.481  13.585  22.270  0.2457  0.0685 -0.2737
 3795G2HFO Head45661  17.211  13.460  22.344  0.2065 -0.0574 -0.0754
 3795G2HFO Head45662  17.361  13.078  22.065  0.3079 -0.0136  0.3697
 3795G2HFO Head45663  17.074  13.201  21.969  0.0524 -0.1331  0.3121
 3795G2HFO Head45664  16.945  13.499  22.114  0.0123  0.1832 -0.0422
 3795G2HFO link45665  16.687  13.465  22.188 -0.1462  0.0370 -0.6208
 3795G2HFO link45666  16.485  13.672  22.148 -0.1912  0.1259  0.4075
 3795G2HFO Tail45667  16.419  13.844  21.859 -0.1632 -0.3439 -0.2033
 3795G2HFO Tail45668  16.610  14.148  21.877 -0.1434  0.0491  0.1223
 3795G2HFO Tail45669  16.490  14.443  21.875 -0.0534 -0.1506  0.2424
 3795G2HFO Tail45670  16.602  14.844  21.995 -0.0571  0.1768  0.1701
 3795G2HFO Tail45671  16.615  13.686  21.627  0.1654 -0.2660 -0.1461
 3795G2HFO Tail45672  16.851  13.603  21.668 -0.0033 -0.1405 -0.3608
 3795G2HFO Tail45673  16.942  13.402  21.519  0.1173  0.0990 -0.0240
 3795G2HFO Tail45674  17.066  13.237  21.375  0.0836  0.0114  0.2347
 3795G2HFO Tail45675  17.184  13.127  21.201 -0.2851  0.2173  0.0329
 3796G2HFO Head45676  16.400  16.205  17.412 -0.2668  0.1228 -0.0670
 3796G2HFO Head45677  16.339  16.060  17.673 -0.4108 -0.2462 -0.2052
 3796G2HFO Head45678  16.305  15.590  17.157 -0.2452  0.2444 -0.3301
 3796G2HFO Head45679  16.271  15.777  17.412 -0.0840  0.0685  0.5301
 3796G2HFO Head45680  16.441  15.721  17.698  0.3505 -0.1794  0.0625
 3796G2HFO Head45681  17.275  15.545  17.225 -0.0781  0.0051  0.5667
 3796G2HFO Head45682  17.032  15.403  17.374 -0.0669 -0.2642  0.0407
 3796G2HFO Head45683  16.373  15.123  17.420  0.0979  0.1748  0.0500
 3796G2HFO Head45684  16.651  15.243  17.345  0.1263  0.1715 -0.2948
 3796G2HFO Head45685  16.735  15.578  17.455 -0.0778 -0.2630  0.2507
 3796G2HFO link45686  16.684  15.684  17.688 -0.6795 -0.0385  0.7753
 3796G2HFO link45687  16.860  15.840  17.843 -0.0338  0.0717 -0.2483
 3796G2HFO Tail45688  17.152  15.923  17.716  0.0200 -0.0878  0.4686
 3796G2HFO Tail45689  17.289  16.090  17.995  0.0112  0.2219  0.3600
 3796G2HFO Tail45690  17.557  16.206  18.099 -0.0014  0.2415  0.1002
 3796G2HFO Tail45691  17.789  16.269  18.472  0.3679 -0.0073 -0.0593
 3796G2HFO Tail45692  17.346  15.627  17.752 -0.0129 -0.1277 -0.0736
 3796G2HFO Tail45693  17.246  15.383  17.734 -0.2032  0.0003 -0.0232
 3796G2HFO Tail45694  17.004  15.338  17.807 -0.0260  0.2235 -0.1984
 3796G2HFO Tail45695  16.772  15.315  17.916  0.1334  0.1962  0.1448
 3796G2HFO Tail45696  16.546  15.251  17.963 -0.1465 -0.1146  0.0613
 3797G2HFO Head45697  16.549  12.797  21.254 -0.4399  0.0137  0.4503
 3797G2HFO Head45698  16.615  13.044  21.454 -0.0794 -0.3356  0.3003
 3797G2HFO Head45699  16.008  13.119  21.789 -0.4773  0.5531  0.2451
 3797G2HFO Head45700  16.168  13.111  21.513  0.1291 -0.0171  0.1202
 3797G2HFO Head45701  16.429  13.335  21.501 -0.4256 -0.1693  0.2788
 3797G2HFO Head45702  15.727  13.477  21.117  0.0459 -0.2083  0.1541
 3797G2HFO Head45703  15.911  13.505  21.377  0.2350 -0.1821  0.1992
 3797G2HFO Head45704  15.829  14.041  21.107  0.1047  0.1518  0.1442
 3797G2HFO Head45705  16.032  13.792  21.077 -0.0855 -0.1672  0.0084
 3797G2HFO Head45706  16.221  13.657  21.334  0.2701  0.4558 -0.0247
 3797G2HFO link45707  16.457  13.518  21.309  0.4296  0.0601 -0.4708
 3797G2HFO link45708  16.645  13.536  21.100  0.0349 -0.1826  0.2475
 3797G2HFO Tail45709  16.718  13.836  20.987 -0.4167 -0.0855 -0.2307
 3797G2HFO Tail45710  16.405  13.996  21.029 -0.2249  0.1134  0.4148
 3797G2HFO Tail45711  16.273  14.261  21.129  0.2713 -0.4604 -0.3208
 3797G2HFO Tail45712  16.059  14.601  20.949  0.2716 -0.1726 -0.2060
 3797G2HFO Tail45713  16.853  13.969  21.280  0.0973  0.0768 -0.1498
 3797G2HFO Tail45714  16.708  14.149  21.405  0.2059  0.1123  0.1219
 3797G2HFO Tail45715  16.785  14.391  21.435  0.0748 -0.0407 -0.0708
 3797G2HFO Tail45716  16.833  14.643  21.433 -0.1631 -0.0088 -0.1401
 3797G2HFO Tail45717  16.909  14.864  21.408 -0.0382 -0.3700 -0.1943
 3798G2HFO Head45718  14.634  18.206  25.862 -0.1574 -0.2600 -0.0078
 3798G2HFO Head45719  14.793  18.177  25.624  0.1154 -0.3797 -0.1504
 3798G2HFO Head45720  14.931  18.855  25.854 -0.0177 -0.0313  0.2495
 3798G2HFO Head45721  14.942  18.533  25.833  0.1851  0.1263  0.2936
 3798G2HFO Head45722  15.064  18.389  25.543  0.2531 -0.2396 -0.1730
 3798G2HFO Head45723  15.468  18.551  26.319 -0.1816 -0.1639  0.1659
 3798G2HFO Head45724  15.280  18.508  26.059 -0.4220 -0.3401  0.1511
 3798G2HFO Head45725  15.422  18.944  26.014 -0.0346 -0.1435 -0.2136
 3798G2HFO Head45726  15.370  18.782  25.733 -0.1383  0.3462 -0.3838
 3798G2HFO Head45727  15.419  18.441  25.745 -0.2242  0.0396 -0.1104
 3798G2HFO link45728  15.298  18.294  25.572  0.0344 -0.1415  0.0115
 3798G2HFO link45729  15.389  18.047  25.486 -0.0933 -0.2253 -0.0613
 3798G2HFO Tail45730  15.686  17.939  25.600 -0.0760 -0.1588 -0.0428
 3798G2HFO Tail45731  15.767  17.756  25.331 -0.1656  0.2828  0.0215
 3798G2HFO Tail45732  15.968  17.539  25.247 -0.2906 -0.0094 -0.2045
 3798G2HFO Tail45733  16.203  17.400  24.911 -0.4230  0.4324  0.2644
 3798G2HFO Tail45734  15.898  18.210  25.536 -0.0427 -0.2116 -0.0317
 3798G2HFO Tail45735  15.808  18.454  25.572  0.0098  0.2999 -0.0082
 3798G2HFO Tail45736  15.829  18.634  25.393 -0.2171  0.4046  0.2995
 3798G2HFO Tail45737  15.802  18.804  25.201 -0.1354 -0.1790 -0.1112
 3798G2HFO Tail45738  15.720  18.963  25.040  0.1462 -0.4515  0.1593
 3799G2HFO Head45739  17.804  17.770  17.555  0.2727  0.2616 -0.1980
 3799G2HFO Head45740  17.861  18.075  17.578 -0.0591 -0.1419  0.0432
 3799G2HFO Head45741  18.487  17.754  17.566  0.0881  0.3212 -0.1397
 3799G2HFO Head45742  18.245  17.839  17.420 -0.3175  0.5016  0.4121
 3799G2HFO Head45743  18.154  18.189  17.444  0.0283  0.0845  0.0343
 3799G2HFO Head45744  18.700  18.991  17.264  0.1011  0.0152  0.1851
 3799G2HFO Head45745  18.603  18.673  17.270 -0.2841  0.0886 -0.3681
 3799G2HFO Head45746  18.108  19.097  17.479  0.0986 -0.1372 -0.0556
 3799G2HFO Head45747  18.336  18.910  17.509  0.2626 -0.0062  0.1221
 3799G2HFO Head45748  18.287  18.585  17.404  0.0768 -0.1709  0.0031
 3799G2HFO link45749  18.294  18.364  17.575 -0.8072 -0.0108  0.4801
 3799G2HFO link45750  18.519  18.283  17.739  0.1415 -0.1678 -0.0206
 3799G2HFO Tail45751  18.461  18.131  18.028 -0.1948 -0.1463  0.4154
 3799G2HFO Tail45752  18.730  17.914  18.007  0.2647  0.1624  0.2161
 3799G2HFO Tail45753  18.891  17.721  18.164  0.2147  0.0921 -0.1945
 3799G2HFO Tail45754  19.029  17.317  18.109 -0.5306 -0.0398  0.0151
 3799G2HFO Tail45755  18.187  17.925  17.905 -0.0063  0.3232 -0.1769
 3799G2HFO Tail45756  17.998  17.830  18.059  0.4779 -0.0756  0.4311
 3799G2HFO Tail45757  17.756  17.865  17.995 -0.0531  0.1016 -0.0948
 3799G2HFO Tail45758  17.527  17.923  17.921  0.2444  0.2224  0.2100
 3799G2HFO Tail45759  17.346  18.017  17.806  0.0850 -0.1470 -0.3536
 3800G2HFO Head45760  16.579  20.619  24.796  0.2523  0.0965  0.2713
 3800G2HFO Head45761  16.691  20.354  24.899  0.1027  0.0592 -0.0310
 3800G2HFO Head45762  16.784  20.840  25.136  0.0108 -0.1822 -0.2404
 3800G2HFO Head45763  16.904  20.577  25.238 -0.4262  0.2128  0.0176
 3800G2HFO Head45764  17.016  20.328  25.010  0.1328 -0.1971  0.0619
 3800G2HFO Head45765  17.470  20.482  24.283 -0.3748 -0.2153  0.1826
 3800G2HFO Head45766  17.325  20.686  24.425 -0.1866 -0.0604 -0.1403
 3800G2HFO Head45767  16.778  20.726  24.307  0.0332 -0.3525 -0.1925
 3800G2HFO Head45768  16.909  20.500  24.443 -0.0100 -0.3327  0.2430
 3800G2HFO Head45769  17.139  20.566  24.697 -0.3226  0.1448 -0.1511
 3800G2HFO link45770  17.215  20.392  24.842 -0.1909  0.3412  0.1760
 3800G2HFO link45771  17.422  20.200  24.754 -0.1264  0.0497  0.1842
 3800G2HFO Tail45772  17.349  19.924  24.587  0.1553  0.1215  0.0073
 3800G2HFO Tail45773  17.565  19.733  24.756  0.1056 -0.0721  0.3262
 3800G2HFO Tail45774  17.658  19.437  24.854 -0.0623  0.2909  0.0409
 3800G2HFO Tail45775  17.997  19.189  24.909 -0.3308  0.2764  0.0414
 3800G2HFO Tail45776  17.057  19.818  24.767 -0.1781  0.1867  0.0377
 3800G2HFO Tail45777  17.010  19.561  24.795 -0.0947 -0.0898 -0.0571
 3800G2HFO Tail45778  17.176  19.375  24.730  0.0303  0.1595 -0.1275
 3800G2HFO Tail45779  17.302  19.160  24.694 -0.1633  0.2839  0.0544
 3800G2HFO Tail45780  17.475  19.007  24.631  0.1029 -0.2169 -0.0082
 3801G2HFO Head45781  18.823  20.897  19.400  0.0616 -0.1315  0.1220
 3801G2HFO Head45782  18.594  20.905  19.195 -0.1044  0.1304  0.2055
 3801G2HFO Head45783  18.534  21.393  18.700 -0.0602 -0.2580 -0.1953
 3801G2HFO Head45784  18.462  21.115  18.859  0.0143  0.1486  0.3547
 3801G2HFO Head45785  18.365  21.163  19.208 -0.1409 -0.3516  0.0123
 3801G2HFO Head45786  17.933  21.653  19.848 -0.3280 -0.3679 -0.0618
 3801G2HFO Head45787  18.133  21.476  19.715 -0.1033  0.0434 -0.2323
 3801G2HFO Head45788  17.717  21.782  19.224  0.1415 -0.0075 -0.1145
 3801G2HFO Head45789  17.780  21.528  19.393 -0.1529  0.2378 -0.0535
 3801G2HFO Head45790  18.099  21.386  19.384  0.1252 -0.1063  0.3119
 3801G2HFO link45791  18.127  21.140  19.312 -0.0606 -0.0653  0.0319
 3801G2HFO link45792  18.054  20.924  19.479  0.1471  0.2073 -0.1945
 3801G2HFO Tail45793  18.220  20.639  19.494  0.2551  0.3573  0.5667
 3801G2HFO Tail45794  18.489  20.736  19.710 -0.2417 -0.0490  0.3095
 3801G2HFO Tail45795  18.593  20.670  20.004  0.3186 -0.2937 -0.2371
 3801G2HFO Tail45796  18.867  20.418  20.205 -0.3394  0.1768  0.2928
 3801G2HFO Tail45797  18.008  20.461  19.723  0.3332 -0.4573 -0.3583
 3801G2HFO Tail45798  17.969  20.567  19.967  0.1525 -0.2645 -0.0815
 3801G2HFO Tail45799  17.745  20.688  20.025  0.0052  0.1026  0.0427
 3801G2HFO Tail45800  17.527  20.783  20.120  0.1860  0.0490 -0.0049
 3801G2HFO Tail45801  17.301  20.804  20.178 -0.0109 -0.0037 -0.1308
 3802G2HFO Head45802  19.051  21.366  20.220  0.0432 -0.1031 -0.1353
 3802G2HFO Head45803  18.831  21.427  20.468  0.0609 -0.1628  0.1564
 3802G2HFO Head45804  18.955  22.005  20.933 -0.2292  0.1105 -0.1453
 3802G2HFO Head45805  18.926  21.763  20.714  0.2560 -0.0721 -0.0291
 3802G2HFO Head45806  18.953  21.423  20.793 -0.2928 -0.1548  0.0112
 3802G2HFO Head45807  18.165  21.700  20.955 -0.0477 -0.2319 -0.3253
 3802G2HFO Head45808  18.391  21.605  21.181  0.2353  0.0843  0.0249
 3802G2HFO Head45809  19.012  21.941  21.504 -0.2955 -0.0621  0.0118
 3802G2HFO Head45810  18.760  21.706  21.411  0.0302  0.0251 -0.1736
 3802G2HFO Head45811  18.721  21.583  21.075  0.0092 -0.5783  0.0234
 3802G2HFO link45812  18.825  21.346  20.990  0.3056  0.2259 -0.3713
 3802G2HFO link45813  18.663  21.109  20.959 -0.1670 -0.0139  0.1827
 3802G2HFO Tail45814  18.776  20.797  20.931 -0.1111 -0.1896  0.2815
 3802G2HFO Tail45815  18.540  20.656  20.742  0.2553  0.2302 -0.1142
 3802G2HFO Tail45816  18.515  20.570  20.444 -0.3483  0.2026 -0.1974
 3802G2HFO Tail45817  18.321  20.284  20.179  0.0400 -0.2156  0.1350
 3802G2HFO Tail45818  19.006  20.838  20.664 -0.1875 -0.0626 -0.2121
 3802G2HFO Tail45819  19.154  21.054  20.634  0.0150 -0.1770  0.3456
 3802G2HFO Tail45820  19.329  21.114  20.825 -0.0747 -0.3712 -0.0715
 3802G2HFO Tail45821  19.440  21.178  21.046  0.3373  0.3035 -0.0451
 3802G2HFO Tail45822  19.591  21.270  21.201  0.0809  0.0612 -0.0499
 3803G2HFO Head45823  18.099  13.976  25.806  0.1764  0.1187 -0.1928
 3803G2HFO Head45824  18.022  14.296  25.768 -0.0363 -0.2589 -0.7296
 3803G2HFO Head45825  17.665  13.933  25.600 -0.0817  0.1592 -0.0031
 3803G2HFO Head45826  17.675  14.249  25.505 -0.1098  0.3904 -0.0412
 3803G2HFO Head45827  17.988  14.383  25.443  0.0749 -0.1671  0.0504
 3803G2HFO Head45828  18.272  14.076  25.214 -0.0130 -0.3886 -0.2424
 3803G2HFO Head45829  18.454  14.321  25.281 -0.2841 -0.0789  0.0840
 3803G2HFO Head45830  18.722  14.279  25.688 -0.0439  0.0528 -0.0004
 3803G2HFO Head45831  18.434  14.460  25.678 -0.0212 -0.1675 -0.3158
 3803G2HFO Head45832  18.301  14.623  25.388  0.3441  0.2077 -0.2398
 3803G2HFO link45833  18.039  14.632  25.368 -0.0099 -0.4176 -0.2154
 3803G2HFO link45834  17.885  14.829  25.223  0.0655  0.0682  0.0851
 3803G2HFO Tail45835  17.710  14.734  24.960 -0.1093 -0.0685 -0.0165
 3803G2HFO Tail45836  17.542  15.021  24.916 -0.3759 -0.5226  0.3388
 3803G2HFO Tail45837  17.450  15.257  25.125  0.2029  0.0891  0.1393
 3803G2HFO Tail45838  17.597  15.552  25.401  0.0582 -0.0963  0.3261
 3803G2HFO Tail45839  17.949  14.816  24.708  0.5072  0.2647 -0.1983
 3803G2HFO Tail45840  18.037  15.058  24.687  0.0319 -0.2610 -0.1505
 3803G2HFO Tail45841  18.110  15.155  24.457 -0.1606  0.1215 -0.0191
 3803G2HFO Tail45842  18.142  15.251  24.219  0.0277  0.1873  0.1131
 3803G2HFO Tail45843  18.102  15.368  24.022 -0.3036 -0.0446 -0.0445
 3804G2HFO Head45844  15.893  19.553  20.983  0.2189 -0.0918 -0.0229
 3804G2HFO Head45845  16.025  19.607  21.233  0.0670  0.0108 -0.0737
 3804G2HFO Head45846  15.692  19.998  21.085  0.0378 -0.0610  0.1764
 3804G2HFO Head45847  15.957  20.098  21.228 -0.0531 -0.4561 -0.1680
 3804G2HFO Head45848  16.229  19.889  21.217 -0.1622  0.0497 -0.4951
 3804G2HFO Head45849  16.015  19.538  20.499 -0.0991 -0.2896  0.1141
 3804G2HFO Head45850  16.255  19.680  20.562 -0.0210  0.0859  0.2232
 3804G2HFO Head45851  16.885  19.490  20.858 -0.3145  0.1187  0.4411
 3804G2HFO Head45852  16.587  19.455  20.765 -0.2354 -0.1841 -0.0577
 3804G2HFO Head45853  16.347  19.667  20.900  0.2555 -0.0691 -0.1281
 3804G2HFO link45854  16.411  19.898  21.032 -0.3230  0.3798  0.1440
 3804G2HFO link45855  16.688  19.986  21.055  0.0528 -0.1583 -0.1405
 3804G2HFO Tail45856  16.894  19.845  21.264  0.0334 -0.1866  0.1669
 3804G2HFO Tail45857  16.934  20.096  21.493 -0.2198  0.1016  0.1130
 3804G2HFO Tail45858  17.076  20.129  21.764 -0.1424  0.0744  0.0567
 3804G2HFO Tail45859  17.453  20.124  21.992 -0.1550 -0.3033  0.0665
 3804G2HFO Tail45860  16.682  19.623  21.416  0.0318 -0.5047  0.1976
 3804G2HFO Tail45861  16.505  19.483  21.289 -0.1492 -0.1192  0.1723
 3804G2HFO Tail45862  16.378  19.305  21.426 -0.1245  0.1830 -0.2698
 3804G2HFO Tail45863  16.292  19.118  21.572 -0.1612 -0.1704  0.2351
 3804G2HFO Tail45864  16.245  18.971  21.743  0.0222 -0.1888 -0.2335
 3805G2HFO Head45865  19.988  18.376  22.374  0.0982 -0.0062 -0.1087
 3805G2HFO Head45866  20.120  18.470  22.614 -0.1360 -0.2451  0.3846
 3805G2HFO Head45867  20.259  18.459  23.187  0.0841 -0.3675  0.0659
 3805G2HFO Head45868  19.996  18.485  22.998 -0.2352 -0.1563 -0.2295
 3805G2HFO Head45869  19.946  18.739  22.755 -0.2366  0.0876 -0.1643
 3805G2HFO Head45870  19.794  18.496  23.386 -0.2239 -0.1721 -0.1988
 3805G2HFO Head45871  19.559  18.559  23.159  0.2103 -0.2061  0.3474
 3805G2HFO Head45872  20.087  18.901  23.175  0.1452  0.0931 -0.1107
 3805G2HFO Head45873  19.768  18.918  23.185  0.1202  0.5226 -0.1188
 3805G2HFO Head45874  19.578  18.813  22.908 -0.2459 -0.1063  0.1667
 3805G2HFO link45875  19.694  18.780  22.686 -0.2708  0.1837 -0.4591
 3805G2HFO link45876  19.596  18.753  22.430  0.0247 -0.3347  0.4511
 3805G2HFO Tail45877  19.323  18.925  22.349 -0.0483 -0.3030  0.2308
 3805G2HFO Tail45878  19.426  19.235  22.466  0.0686  0.0549 -0.2039
 3805G2HFO Tail45879  19.297  19.434  22.660  0.0775  0.0875  0.0589
 3805G2HFO Tail45880  19.286  19.866  22.736  0.2614  0.3788  0.0829
 3805G2HFO Tail45881  19.134  18.844  22.635 -0.0675 -0.2509  0.2057
 3805G2HFO Tail45882  19.048  19.008  22.810 -0.0212 -0.1577  0.0865
 3805G2HFO Tail45883  19.182  19.044  23.029 -0.0811  0.0233  0.1407
 3805G2HFO Tail45884  19.318  19.020  23.245  0.3054 -0.1806 -0.2146
 3805G2HFO Tail45885  19.378  18.978  23.473 -0.1099 -0.2844 -0.1292
 3806G2HFO Head45886  17.770  22.194  23.013  0.2621 -0.1447  0.0229
 3806G2HFO Head45887  17.906  21.921  23.060 -0.5429  0.0942  0.6653
 3806G2HFO Head45888  17.330  21.614  23.388 -0.2858 -0.0173 -0.3330
 3806G2HFO Head45889  17.596  21.751  23.299 -0.2403  0.3797  0.1011
 3806G2HFO Head45890  17.713  21.636  22.993 -0.0480  0.0633  0.0841
 3806G2HFO Head45891  18.301  21.667  23.496 -0.4847  0.0283 -0.0097
 3806G2HFO Head45892  18.076  21.652  23.327 -0.0469 -0.0739  0.0175
 3806G2HFO Head45893  18.558  21.613  23.047  0.2291 -0.2966  0.1557
 3806G2HFO Head45894  18.284  21.625  22.987 -0.6433  0.5142  0.3254
 3806G2HFO Head45895  18.043  21.402  23.089 -0.0041 -0.2189  0.4145
 3806G2HFO link45896  17.820  21.401  22.972  0.1587 -0.2696  0.3530
 3806G2HFO link45897  17.672  21.159  22.950  0.2848  0.1869  0.2567
 3806G2HFO Tail45898  17.364  21.047  22.894  0.2948 -0.3236 -0.3090
 3806G2HFO Tail45899  17.411  20.701  22.916  0.3014  0.0619  0.2251
 3806G2HFO Tail45900  17.585  20.499  22.773 -0.1333 -0.2858  0.2102
 3806G2HFO Tail45901  17.854  20.204  22.917 -0.0488  0.0736 -0.1618
 3806G2HFO Tail45902  17.307  21.073  22.564 -0.0728 -0.2811  0.1819
 3806G2HFO Tail45903  17.490  21.135  22.375 -0.3699 -0.0134  0.1030
 3806G2HFO Tail45904  17.685  21.277  22.468 -0.2079 -0.0248  0.0100
 3806G2HFO Tail45905  17.896  21.382  22.567  0.0281  0.0786 -0.0123
 3806G2HFO Tail45906  18.047  21.520  22.672 -0.0468 -0.1439 -0.0250
 3807G2HFO Head45907  17.826  14.534  19.325  0.0434 -0.3062 -0.0692
 3807G2HFO Head45908  17.853  14.323  19.079  0.0953 -0.1262 -0.0859
 3807G2HFO Head45909  17.548  13.813  18.964  0.1012  0.2754  0.2076
 3807G2HFO Head45910  17.656  14.013  18.761  0.1240  0.1451 -0.1120
 3807G2HFO Head45911  17.653  14.356  18.816  0.4689 -0.3543  0.1961
 3807G2HFO Head45912  17.071  13.741  18.762  0.2172  0.2290 -0.1098
 3807G2HFO Head45913  17.142  14.008  18.678 -0.3248 -0.2530 -0.0775
 3807G2HFO Head45914  16.749  14.435  19.172 -0.0061  0.3277  0.0325
 3807G2HFO Head45915  16.903  14.293  18.902 -0.2626 -0.0237 -0.2826
 3807G2HFO Head45916  17.254  14.258  18.913 -0.1205  0.5149  0.3403
 3807G2HFO link45917  17.415  14.465  18.829 -0.3335 -0.4459  0.3288
 3807G2HFO link45918  17.393  14.738  18.912  0.2192  0.1837  0.0329
 3807G2HFO Tail45919  17.135  14.812  19.089 -0.1948 -0.0531 -0.1453
 3807G2HFO Tail45920  17.209  15.130  19.203  0.2455  0.2042  0.3310
 3807G2HFO Tail45921  17.427  15.344  19.281 -0.6442 -0.0967  0.1264
 3807G2HFO Tail45922  17.511  15.770  19.277  0.0770 -0.1863 -0.2768
 3807G2HFO Tail45923  16.913  14.874  18.847  0.0576 -0.1616  0.5216
 3807G2HFO Tail45924  16.836  15.124  18.800 -0.0709 -0.2613 -0.1356
 3807G2HFO Tail45925  16.587  15.163  18.833 -0.1609  0.1130 -0.1230
 3807G2HFO Tail45926  16.339  15.197  18.811  0.3093 -0.1167 -0.2983
 3807G2HFO Tail45927  16.116  15.219  18.736 -0.2998 -0.1004 -0.0077
 3808G2HFO Head45928  20.034  17.019  20.584  0.1828 -0.2075  0.0207
 3808G2HFO Head45929  19.791  17.159  20.713  0.2630  0.2463 -0.2601
 3808G2HFO Head45930  19.748  17.909  20.749  0.2603 -0.1991 -0.1637
 3808G2HFO Head45931  19.798  17.594  20.773  0.0641  0.1681  0.2585
 3808G2HFO Head45932  19.590  17.384  20.557 -0.0207 -0.0739 -0.1616
 3808G2HFO Head45933  19.643  18.125  20.037 -0.0912 -0.0532 -0.1299
 3808G2HFO Head45934  19.677  17.910  20.239 -0.1550 -0.0166 -0.1846
 3808G2HFO Head45935  19.246  18.097  20.374  0.1651 -0.0859 -0.1781
 3808G2HFO Head45936  19.323  17.774  20.420 -0.2564  0.2181 -0.0343
 3808G2HFO Head45937  19.519  17.589  20.210  0.0562 -0.3233  0.0739
 3808G2HFO link45938  19.630  17.377  20.301  0.5362 -0.7337 -0.5508
 3808G2HFO link45939  19.754  17.177  20.162 -0.4137 -0.3758 -0.0946
 3808G2HFO Tail45940  19.583  16.951  20.011 -0.0827  0.1800 -0.3717
 3808G2HFO Tail45941  19.655  16.973  19.675 -0.1540  0.0233 -0.1392
 3808G2HFO Tail45942  19.472  17.038  19.414 -0.1925  0.1752  0.3052
 3808G2HFO Tail45943  19.111  16.880  19.231 -0.0786  0.0304  0.1723
 3808G2HFO Tail45944  19.757  16.666  20.070  0.1532  0.1659  0.3604
 3808G2HFO Tail45945  19.888  16.631  20.293  0.2147  0.0698 -0.0294
 3808G2HFO Tail45946  20.031  16.427  20.343 -0.0461 -0.0340  0.1516
 3808G2HFO Tail45947  20.171  16.215  20.331  0.1193  0.3519 -0.0099
 3808G2HFO Tail45948  20.254  15.997  20.318  0.4995 -0.2829 -0.1297
 3809G2HFO Head45949  15.500  18.619  20.327 -0.0976  0.1967  0.0397
 3809G2HFO Head45950  15.757  18.553  20.491  0.3992  0.0392 -0.2238
 3809G2HFO Head45951  15.838  19.044  20.441  0.1354 -0.0166  0.0240
 3809G2HFO Head45952  16.080  18.838  20.508  0.2280  0.2024 -0.0122
 3809G2HFO Head45953  16.083  18.516  20.359  0.0089 -0.0427 -0.0704
 3809G2HFO Head45954  16.006  17.867  21.098 -0.0429 -0.2199  0.2841
 3809G2HFO Head45955  16.011  18.089  20.831 -0.1819 -0.2504 -0.8099
 3809G2HFO Head45956  15.601  17.904  20.679  0.2860 -0.1076  0.2354
 3809G2HFO Head45957  15.792  18.053  20.482 -0.1871 -0.1479  0.1655
 3809G2HFO Head45958  16.134  18.096  20.515 -0.3040  0.2694 -0.2030
 3809G2HFO link45959  16.250  18.310  20.404  0.1733  0.0239  0.4400
 3809G2HFO link45960  16.526  18.295  20.297 -0.1056  0.2155 -0.0469
 3809G2HFO Tail45961  16.675  18.567  20.214  0.2275  0.5055  0.1577
 3809G2HFO Tail45962  16.966  18.547  20.398 -0.0489  0.0944  0.0812
 3809G2HFO Tail45963  17.208  18.716  20.462  0.2076 -0.0203  0.2443
 3809G2HFO Tail45964  17.372  19.083  20.650  0.0185 -0.3273  0.2536
 3809G2HFO Tail45965  16.482  18.799  20.379  0.2388 -0.1620 -0.1823
 3809G2HFO Tail45966  16.581  18.947  20.577  0.1024 -0.2178  0.0757
 3809G2HFO Tail45967  16.757  19.123  20.511  0.0660 -0.3739  0.5009
 3809G2HFO Tail45968  16.910  19.304  20.415 -0.0354  0.1375 -0.1215
 3809G2HFO Tail45969  17.101  19.436  20.372  0.4019  0.1744 -0.0732
 3810G2HFO Head45970  18.356  16.424  24.093  0.0047  0.2287 -0.3013
 3810G2HFO Head45971  18.130  16.169  24.150  0.0159  0.1618  0.1282
 3810G2HFO Head45972  18.153  16.249  23.584  0.2729  0.2925  0.1404
 3810G2HFO Head45973  17.882  16.201  23.731 -0.0708  0.1531  0.1960
 3810G2HFO Head45974  17.791  16.254  24.060  0.0801  0.0949  0.1287
 3810G2HFO Head45975  17.981  16.382  24.547  0.0944  0.0999  0.1570
 3810G2HFO Head45976  17.941  16.061  24.545 -0.0405  0.0172 -0.3802
 3810G2HFO Head45977  18.257  15.671  24.367  0.4517 -0.4064 -0.5278
 3810G2HFO Head45978  18.042  15.784  24.191  0.0567 -0.1585  0.0950
 3810G2HFO Head45979  17.736  15.939  24.302  0.3704  0.3395 -0.2852
 3810G2HFO link45980  17.598  16.117  24.164  0.3926 -0.4163  0.1782
 3810G2HFO link45981  17.338  16.073  24.051 -0.1112 -0.0862  0.1289
 3810G2HFO Tail45982  17.091  15.992  24.246 -0.0481  0.3115  0.3057
 3810G2HFO Tail45983  16.866  15.855  24.026  0.2547 -0.1457 -0.0051
 3810G2HFO Tail45984  16.804  15.597  23.848 -0.0467  0.0264  0.2722
 3810G2HFO Tail45985  16.777  15.163  23.897 -0.0751  0.3431  0.2604
 3810G2HFO Tail45986  16.918  16.297  24.278  0.0545  0.1906 -0.0122
 3810G2HFO Tail45987  16.997  16.534  24.201 -0.1857 -0.1710  0.1512
 3810G2HFO Tail45988  17.205  16.533  24.046 -0.1634  0.0555 -0.0921
 3810G2HFO Tail45989  17.431  16.564  23.931 -0.1108 -0.1209  0.1067
 3810G2HFO Tail45990  17.613  16.660  23.805  0.0198  0.0821 -0.2434
 3811G2HFO Head45991  15.080  14.654  19.657  0.5099 -0.3609 -0.1080
 3811G2HFO Head45992  15.349  14.644  19.588  0.0685 -0.2257  0.0939
 3811G2HFO Head45993  15.440  14.221  19.376 -0.2428 -0.1499 -0.0164
 3811G2HFO Head45994  15.668  14.368  19.556  0.0484 -0.1427  0.1758
 3811G2HFO Head45995  15.572  14.559  19.834 -0.2513 -0.4601  0.3059
 3811G2HFO Head45996  15.608  15.400  20.086 -0.1714  0.0578  0.3091
 3811G2HFO Head45997  15.744  15.147  20.225 -0.1192 -0.3248 -0.4083
 3811G2HFO Head45998  15.332  15.065  19.763  0.0126 -0.0292 -0.0340
 3811G2HFO Head45999  15.348  14.954  20.045 -0.1980 -0.0265  0.4432
 3811G2HFO Head46000  15.658  14.826  20.134 -0.4355 -0.0423 -0.0308
 3811G2HFO link46001  15.768  14.706  19.940 -0.5033 -0.2765 -0.5663
 3811G2HFO link46002  16.047  14.634  19.958 -0.2790  0.0740  0.2913
 3811G2HFO Tail46003  16.163  14.343  20.047 -0.4129 -0.1872 -0.0261
 3811G2HFO Tail46004  16.300  14.441  20.359  0.3114  0.1317 -0.4384
 3811G2HFO Tail46005  16.326  14.722  20.520 -0.0024  0.3483 -0.1430
 3811G2HFO Tail46006  16.345  15.122  20.380 -0.1188 -0.0833 -0.5717
 3811G2HFO Tail46007  15.853  14.181  20.102  0.1537  0.0417  0.0017
 3811G2HFO Tail46008  15.660  14.255  20.255 -0.1805  0.2351 -0.1198
 3811G2HFO Tail46009  15.705  14.454  20.405  0.1683  0.0354 -0.0084
 3811G2HFO Tail46010  15.776  14.674  20.522 -0.0180  0.0814  0.3799
 3811G2HFO Tail46011  15.882  14.877  20.552  0.0147  0.0288 -0.1188
 3812G2HFO Head46012  14.034  17.561  26.560  0.0128  0.3272 -0.0308
 3812G2HFO Head46013  14.281  17.596  26.430 -0.3747  0.2028 -0.0723
 3812G2HFO Head46014  14.050  17.472  26.049  0.2457  0.1659  0.1374
 3812G2HFO Head46015  14.350  17.330  26.087 -0.1201  0.2412  0.0212
 3812G2HFO Head46016  14.516  17.343  26.399  0.4848  0.0004  0.0753
 3812G2HFO Head46017  14.078  16.671  26.056  0.3097  0.1113  0.2523
 3812G2HFO Head46018  14.266  16.911  26.123  0.0791 -0.3460  0.1559
 3812G2HFO Head46019  14.652  16.545  26.575 -0.0998 -0.0818 -0.0048
 3812G2HFO Head46020  14.351  16.646  26.501 -0.2066 -0.0797 -0.0765
 3812G2HFO Head46021  14.326  16.989  26.463 -0.1104  0.0332 -0.1519
 3812G2HFO link46022  14.533  17.138  26.526 -0.3268 -0.4337 -0.1483
 3812G2HFO link46023  14.783  17.028  26.587  0.0249 -0.3297  0.1853
 3812G2HFO Tail46024  14.908  16.798  26.393 -0.3704 -0.0526 -0.0763
 3812G2HFO Tail46025  15.240  16.837  26.486  0.0579  0.1441 -0.1465
 3812G2HFO Tail46026  15.431  17.090  26.422  0.1491  0.5988 -0.1392
 3812G2HFO Tail46027  15.807  17.243  26.555 -0.0987  0.0279  0.3496
 3812G2HFO Tail46028  14.926  16.941  26.061 -0.0195 -0.1980 -0.2025
 3812G2HFO Tail46029  14.714  16.990  25.937  0.3221  0.0987 -0.2937
 3812G2HFO Tail46030  14.717  16.932  25.676 -0.3846 -0.0431  0.1166
 3812G2HFO Tail46031  14.767  16.883  25.430 -0.0902  0.0589  0.0242
 3812G2HFO Tail46032  14.773  16.871  25.200  0.1834  0.1214 -0.0027
 3813G2HFO Head46033  13.801  14.192  23.327  0.0108  0.0013 -0.0250
 3813G2HFO Head46034  13.756  14.346  23.049 -0.0559  0.2673  0.1711
 3813G2HFO Head46035  13.889  13.875  22.984 -0.2274 -0.1883 -0.0701
 3813G2HFO Head46036  14.106  14.082  22.957 -0.2118 -0.0059 -0.4192
 3813G2HFO Head46037  14.023  14.402  22.843 -0.1579 -0.0018  0.5563
 3813G2HFO Head46038  13.438  14.783  22.921  0.0786 -0.0355 -0.2114
 3813G2HFO Head46039  13.742  14.887  23.038  0.2876 -0.2472 -0.0398
 3813G2HFO Head46040  13.885  14.891  22.284  0.2962  0.3036 -0.1383
 3813G2HFO Head46041  13.806  14.983  22.609 -0.3957 -0.1603 -0.0695
 3813G2HFO Head46042  14.029  14.851  22.855  0.4302 -0.3527 -0.1627
 3813G2HFO link46043  14.175  14.623  22.881 -0.3310  0.3714 -0.3823
 3813G2HFO link46044  14.460  14.611  22.887  0.3941  0.1988 -0.1188
 3813G2HFO Tail46045  14.660  14.516  23.131  0.7130 -0.1626 -0.1289
 3813G2HFO Tail46046  14.977  14.518  23.004  0.2293 -0.1936  0.0840
 3813G2HFO Tail46047  15.189  14.307  23.022  0.0595  0.2242  0.0696
 3813G2HFO Tail46048  15.566  14.176  22.832 -0.1375  0.4463  0.1047
 3813G2HFO Tail46049  14.680  14.811  23.298 -0.1387 -0.2488  0.2429
 3813G2HFO Tail46050  14.888  14.863  23.432  0.1676 -0.1936  0.3204
 3813G2HFO Tail46051  14.900  14.812  23.686 -0.0631 -0.2526  0.3315
 3813G2HFO Tail46052  14.952  14.805  23.932 -0.0232  0.4446 -0.0620
 3813G2HFO Tail46053  15.015  14.731  24.145  0.1314 -0.0673  0.1245
 3814G2HFO Head46054  14.206  14.629  25.910  0.0673  0.1202 -0.0780
 3814G2HFO Head46055  14.320  14.800  25.725 -0.2557 -0.0036 -0.0762
 3814G2HFO Head46056  13.971  15.045  25.912  0.3631  0.0267 -0.0108
 3814G2HFO Head46057  14.275  15.183  25.966 -0.1158  0.0171 -0.1373
 3814G2HFO Head46058  14.557  15.048  25.819  0.6282  0.4290  0.1170
 3814G2HFO Head46059  14.198  15.169  26.505 -0.0665 -0.2144 -0.0882
 3814G2HFO Head46060  14.464  15.008  26.487 -0.5240  0.2013 -0.2895
 3814G2HFO Head46061  14.857  14.379  26.322  0.1180 -0.2211 -0.3799
 3814G2HFO Head46062  14.736  14.645  26.435 -0.0648  0.1428  0.0523
 3814G2HFO Head46063  14.575  14.846  26.187  0.2792 -0.1517  0.1229
 3814G2HFO link46064  14.734  14.986  26.006  0.3815  0.2644  0.1038
 3814G2HFO link46065  15.009  14.940  25.932  0.3785 -0.0396  0.0468
 3814G2HFO Tail46066  15.233  14.778  26.118  0.2409 -0.0283  0.4542
 3814G2HFO Tail46067  15.496  14.800  25.873  0.0226  0.2382 -0.1958
 3814G2HFO Tail46068  15.740  14.603  25.791  0.0513 -0.0544  0.6194
 3814G2HFO Tail46069  15.861  14.299  25.496  0.0649  0.1443 -0.0083
 3814G2HFO Tail46070  15.309  15.024  26.335  0.3902  0.3002 -0.1124
 3814G2HFO Tail46071  15.553  15.045  26.437  0.0718  0.1364 -0.1514
 3814G2HFO Tail46072  15.736  14.889  26.340 -0.1631 -0.0963  0.0627
 3814G2HFO Tail46073  15.877  14.707  26.233 -0.0934 -0.0104 -0.1032
 3814G2HFO Tail46074  16.038  14.590  26.102  0.0702  0.0610 -0.3481
 3815G2HFO Head46075  17.463  13.427  22.813  0.0236  0.2764  0.0392
 3815G2HFO Head46076  17.235  13.416  22.994 -0.3029 -0.5023 -0.0915
 3815G2HFO Head46077  17.672  12.955  22.983  0.1273 -0.3542 -0.0602
 3815G2HFO Head46078  17.498  13.066  23.160 -0.0677 -0.1709 -0.2594
 3815G2HFO Head46079  17.152  13.121  23.139 -0.2397  0.4050  0.0505
 3815G2HFO Head46080  16.997  12.894  24.064 -0.0095 -0.0964 -0.3171
 3815G2HFO Head46081  16.958  12.844  23.772  0.1723 -0.1876 -0.1336
 3815G2HFO Head46082  17.383  13.204  24.095 -0.0548  0.1558 -0.3311
 3815G2HFO Head46083  17.161  13.249  23.840  0.1392  0.0791 -0.1767
 3815G2HFO Head46084  17.120  13.055  23.553  0.0320  0.5444 -0.2457
 3815G2HFO link46085  17.014  13.140  23.340  0.1062 -0.7727  0.2953
 3815G2HFO link46086  16.778  13.294  23.358 -0.1148 -0.0702  0.2626
 3815G2HFO Tail46087  16.659  13.404  23.647  0.1185 -0.3036  0.1339
 3815G2HFO Tail46088  16.893  13.648  23.740 -0.1118  0.2509  0.3679
 3815G2HFO Tail46089  17.030  13.736  24.023 -0.0719 -0.3287 -0.0224
 3815G2HFO Tail46090  17.254  13.608  24.381 -0.1416  0.0965  0.3287
 3815G2HFO Tail46091  16.420  13.621  23.534 -0.1504 -0.0049  0.0805
 3815G2HFO Tail46092  16.319  13.596  23.288 -0.2388  0.0599  0.1525
 3815G2HFO Tail46093  16.411  13.775  23.116  0.1034 -0.3677  0.1780
 3815G2HFO Tail46094  16.477  13.969  22.960 -0.0118  0.3452 -0.0847
 3815G2HFO Tail46095  16.512  14.106  22.781  0.1270  0.0599  0.2353
 3816G2HFO Head46096  16.333  13.214  23.077  0.1482 -0.0645  0.2883
 3816G2HFO Head46097  16.061  13.308  23.031  0.4262 -0.1175  0.3629
 3816G2HFO Head46098  15.925  12.943  22.842 -0.3077  0.1668 -0.0743
 3816G2HFO Head46099  16.013  13.155  22.632  0.0762  0.2605 -0.0962
 3816G2HFO Head46100  16.014  13.487  22.745 -0.4236 -0.0039  0.1524
 3816G2HFO Head46101  16.805  13.247  22.881 -0.1555 -0.0349  0.0813
 3816G2HFO Head46102  16.646  13.511  22.883 -0.2603 -0.4334 -0.0495
 3816G2HFO Head46103  16.999  13.691  22.636 -0.0722 -0.1776  0.1349
 3816G2HFO Head46104  16.680  13.748  22.527  0.1947 -0.0715 -0.1252
 3816G2HFO Head46105  16.409  13.554  22.633 -0.1291 -0.4658 -0.0738
 3816G2HFO link46106  16.167  13.665  22.663 -0.1348 -0.1724  0.2132
 3816G2HFO link46107  16.098  13.935  22.680 -0.4155 -0.2493  0.0442
 3816G2HFO Tail46108  15.910  14.095  22.474  0.0806  0.0138  0.0387
 3816G2HFO Tail46109  16.091  14.056  22.191  0.1307 -0.0085  0.3406
 3816G2HFO Tail46110  16.078  14.181  21.905 -0.1392 -0.2390 -0.4578
 3816G2HFO Tail46111  16.281  14.106  21.528  0.0356  0.0849 -0.0378
 3816G2HFO Tail46112  15.646  13.897  22.437  0.2989 -0.0168 -0.3109
 3816G2HFO Tail46113  15.487  13.925  22.222  0.4202 -0.0193 -0.1073
 3816G2HFO Tail46114  15.612  13.971  21.997  0.3463 -0.2550  0.1309
 3816G2HFO Tail46115  15.737  13.965  21.776  0.0199  0.0637 -0.2536
 3816G2HFO Tail46116  15.851  13.894  21.577  0.1046  0.2894  0.1339
 3817G2HFO Head46117  17.512  20.157  19.626 -0.0708 -0.0481 -0.2266
 3817G2HFO Head46118  17.655  20.134  19.327  0.0053  0.2943 -0.1533
 3817G2HFO Head46119  18.066  20.196  19.201 -0.2536  0.3568  0.1350
 3817G2HFO Head46120  17.959  19.942  19.059 -0.2680 -0.3077  0.1341
 3817G2HFO Head46121  17.642  19.831  19.163  0.0252 -0.0846  0.0939
 3817G2HFO Head46122  18.045  19.601  18.651 -0.1341  0.3199  0.0923
 3817G2HFO Head46123  17.778  19.567  18.778 -0.1777 -0.1278 -0.4618
 3817G2HFO Head46124  17.658  19.183  18.595 -0.0614 -0.1316  0.0656
 3817G2HFO Head46125  17.518  19.268  18.862 -0.1405 -0.0877 -0.0001
 3817G2HFO Head46126  17.693  19.437  19.102 -0.3126  0.1521  0.0569
 3817G2HFO link46127  17.583  19.601  19.268 -0.1010  0.0672  0.1535
 3817G2HFO link46128  17.528  19.568  19.548  0.0566  0.0760  0.0991
 3817G2HFO Tail46129  17.651  19.771  19.777 -0.0721 -0.0138 -0.2911
 3817G2HFO Tail46130  17.780  19.528  19.971  0.2539  0.0050  0.0994
 3817G2HFO Tail46131  17.893  19.522  20.273 -0.1741 -0.1927  0.2075
 3817G2HFO Tail46132  18.000  19.833  20.567  0.2752  0.3288 -0.0874
 3817G2HFO Tail46133  17.916  19.897  19.605  0.3394 -0.0992 -0.0680
 3817G2HFO Tail46134  18.170  19.859  19.664  0.0841 -0.1223  0.1268
 3817G2HFO Tail46135  18.333  20.056  19.647  0.0168 -0.2942  0.0365
 3817G2HFO Tail46136  18.519  20.221  19.644 -0.0046  0.1797 -0.1622
 3817G2HFO Tail46137  18.707  20.343  19.707 -0.1786  0.1474  0.2775
 3818G2HFO Head46138  15.549  19.890  24.087  0.0366  0.0784 -0.1169
 3818G2HFO Head46139  15.723  19.658  24.161  0.3462  0.2748 -0.1520
 3818G2HFO Head46140  15.655  19.887  24.649  0.0196  0.1970 -0.0435
 3818G2HFO Head46141  15.889  19.720  24.578 -0.2397 -0.1539 -0.0099
 3818G2HFO Head46142  16.050  19.707  24.272  0.2250  0.2211  0.3284
 3818G2HFO Head46143  16.225  19.116  23.563  0.0496  0.2499 -0.1850
 3818G2HFO Head46144  16.321  19.300  23.781 -0.2079 -0.1573  0.1067
 3818G2HFO Head46145  15.928  19.782  23.750 -0.0544 -0.2748 -0.2052
 3818G2HFO Head46146  15.935  19.497  23.808 -0.1646 -0.3484  0.3970
 3818G2HFO Head46147  16.127  19.346  24.063 -0.2004 -0.3172  0.0095
 3818G2HFO link46148  16.231  19.517  24.247  0.1109  0.2945 -0.3303
 3818G2HFO link46149  16.446  19.453  24.432 -0.3506 -0.0276  0.0291
 3818G2HFO Tail46150  16.756  19.570  24.412  0.1017  0.3098 -0.4943
 3818G2HFO Tail46151  16.819  19.485  24.063 -0.0298 -0.1752  0.2252
 3818G2HFO Tail46152  16.949  19.246  23.897 -0.2346 -0.3260  0.0032
 3818G2HFO Tail46153  17.263  19.225  23.585  0.4736  0.3974 -0.2272
 3818G2HFO Tail46154  16.710  19.907  24.377  0.3437  0.0130 -0.0623
 3818G2HFO Tail46155  16.890  20.085  24.433 -0.0044  0.2807 -0.5363
 3818G2HFO Tail46156  17.108  20.087  24.309  0.3059 -0.1462  0.0919
 3818G2HFO Tail46157  17.321  20.049  24.178 -0.0603 -0.0840  0.0708
 3818G2HFO Tail46158  17.515  20.063  24.047  0.0178 -0.1898  0.0251
 3819G2HFO Head46159  17.088  17.835  18.167  0.0688 -0.0664  0.0573
 3819G2HFO Head46160  17.127  17.561  18.036  0.2774 -0.3171 -0.0526
 3819G2HFO Head46161  16.593  17.890  17.902 -0.0796  0.0790  0.2099
 3819G2HFO Head46162  16.809  17.762  17.744  0.4394  0.1879  0.1975
 3819G2HFO Head46163  16.885  17.424  17.802  0.1656  0.2890  0.0504
 3819G2HFO Head46164  16.990  17.544  16.869 -0.2402 -0.2080  0.3546
 3819G2HFO Head46165  17.085  17.360  17.123  0.1531  0.2149 -0.0092
 3819G2HFO Head46166  16.989  17.859  17.200  0.0598  0.3691 -0.0438
 3819G2HFO Head46167  16.797  17.673  17.346  0.0759  0.1712  0.0865
 3819G2HFO Head46168  16.880  17.335  17.412 -0.2803 -0.1089  0.3967
 3819G2HFO link46169  16.981  17.280  17.618  0.3832 -0.0965  0.0739
 3819G2HFO link46170  17.177  17.072  17.664 -0.1085 -0.4257 -0.1077
 3819G2HFO Tail46171  17.150  16.875  17.922  0.4057  0.0215 -0.1942
 3819G2HFO Tail46172  17.411  16.981  18.114  0.3563  0.1204  0.0001
 3819G2HFO Tail46173  17.431  17.214  18.338 -0.2407 -0.2090 -0.3610
 3819G2HFO Tail46174  17.670  17.308  18.694  0.1757  0.3545  0.2617
 3819G2HFO Tail46175  16.901  17.065  18.070  0.0597 -0.1966  0.0594
 3819G2HFO Tail46176  16.636  17.029  18.051  0.1535 -0.0461  0.4102
 3819G2HFO Tail46177  16.473  17.137  18.231 -0.1160 -0.0576  0.0351
 3819G2HFO Tail46178  16.305  17.229  18.395  0.2581  0.0891  0.1487
 3819G2HFO Tail46179  16.198  17.301  18.590 -0.0737  0.2019  0.0421
 3820G2HFO Head46180  16.189  14.792  19.074  0.1366 -0.3292  0.1474
 3820G2HFO Head46181  16.146  15.023  19.278 -0.1328 -0.2997  0.5652
 3820G2HFO Head46182  15.783  15.109  19.027 -0.3126  0.0397 -0.0048
 3820G2HFO Head46183  15.938  15.378  19.157 -0.0473  0.0782  0.2709
 3820G2HFO Head46184  16.271  15.354  19.232 -0.0466  0.0349  0.0366
 3820G2HFO Head46185  15.680  15.859  19.395  0.4242  0.1364  0.3395
 3820G2HFO Head46186  15.931  15.808  19.293  0.2193 -0.0986  0.0549
 3820G2HFO Head46187  15.641  15.343  19.543  0.2846  0.2030  0.2770
 3820G2HFO Head46188  15.872  15.580  19.684  0.0024 -0.0806  0.0517
 3820G2HFO Head46189  16.178  15.670  19.513  0.1509 -0.3741 -0.0831
 3820G2HFO link46190  16.341  15.468  19.465  0.3590  0.1064  0.2116
 3820G2HFO link46191  16.448  15.332  19.682 -0.0410 -0.2327  0.0109
 3820G2HFO Tail46192  16.399  15.452  19.994 -0.0330 -0.2598  0.2658
 3820G2HFO Tail46193  16.726  15.463  20.097  0.0220 -0.0838 -0.1628
 3820G2HFO Tail46194  16.905  15.564  20.350  0.0163 -0.0111 -0.0391
 3820G2HFO Tail46195  17.204  15.352  20.607  0.1365  0.0220  0.1191
 3820G2HFO Tail46196  16.352  15.789  19.924 -0.1360  0.0833  0.2279
 3820G2HFO Tail46197  16.500  15.903  19.735  0.1155 -0.1369 -0.2583
 3820G2HFO Tail46198  16.752  15.848  19.717 -0.0948  0.0088 -0.0996
 3820G2HFO Tail46199  16.989  15.764  19.731 -0.1426 -0.1749  0.0876
 3820G2HFO Tail46200  17.219  15.700  19.673 -0.0845 -0.2581 -0.0339
 3821G2HFO Head46201  14.534  15.013  24.947  0.2197  0.0502 -0.0514
 3821G2HFO Head46202  14.748  14.845  24.836 -0.3233  0.4636  0.3343
 3821G2HFO Head46203  14.783  14.824  25.474  0.0577  0.2209  0.0433
 3821G2HFO Head46204  14.768  14.672  25.217 -0.4516 -0.0648 -0.3361
 3821G2HFO Head46205  15.037  14.717  25.004 -0.1439 -0.2807 -0.1510
 3821G2HFO Head46206  14.625  13.920  24.742 -0.1945  0.0029 -0.3234
 3821G2HFO Head46207  14.885  14.060  24.681  0.1123  0.4781 -0.5491
 3821G2HFO Head46208  15.266  13.699  24.775  0.2768  0.3533 -0.4970
 3821G2HFO Head46209  15.247  13.971  24.991  0.3896 -0.3844 -0.1352
 3821G2HFO Head46210  15.041  14.263  24.937  0.0321 -0.2501 -0.0208
 3821G2HFO link46211  15.158  14.503  24.905 -0.0072  0.1376  0.0334
 3821G2HFO link46212  15.395  14.533  24.738  0.0600  0.1535 -0.2232
 3821G2HFO Tail46213  15.386  14.580  24.407  0.1562 -0.1789 -0.3227
 3821G2HFO Tail46214  15.433  14.940  24.379  0.0422  0.1578  0.0759
 3821G2HFO Tail46215  15.594  15.128  24.193  0.1336  0.6899  0.1406
 3821G2HFO Tail46216  15.916  15.426  24.180 -0.1636  0.2433 -0.1226
 3821G2HFO Tail46217  15.706  14.514  24.347 -0.0887 -0.2136  0.4821
 3821G2HFO Tail46218  15.772  14.426  24.104  0.1869  0.2451  0.0969
 3821G2HFO Tail46219  16.021  14.383  24.028  0.0131 -0.2909 -0.0527
 3821G2HFO Tail46220  16.264  14.329  23.984 -0.1848 -0.0767 -0.0074
 3821G2HFO Tail46221  16.501  14.345  23.959 -0.0178  0.1442 -0.1901
 3822G2HFO Head46222  15.946  15.471  20.499 -0.2687 -0.0341 -0.4034
 3822G2HFO Head46223  16.067  15.470  20.793  0.0475 -0.2415  0.0977
 3822G2HFO Head46224  15.827  16.196  20.769 -0.0874  0.0193  0.0594
 3822G2HFO Head46225  15.810  15.886  20.772 -0.2499  0.0060 -0.1416
 3822G2HFO Head46226  15.969  15.731  21.023 -0.4399  0.3598  0.0884
 3822G2HFO Head46227  16.226  16.604  21.144  0.1268 -0.0442 -0.2260
 3822G2HFO Head46228  16.159  16.347  21.012  0.4291  0.0057  0.0161
 3822G2HFO Head46229  15.559  15.916  21.166  0.3619  0.2977 -0.0750
 3822G2HFO Head46230  15.747  16.140  21.222 -0.0221  0.0536 -0.1966
 3822G2HFO Head46231  16.091  16.073  21.212 -0.2309  0.1564  0.1132
 3822G2HFO link46232  16.175  15.845  21.145 -0.1082 -0.3098 -0.0426
 3822G2HFO link46233  16.434  15.745  21.194  0.0944  0.1650 -0.0092
 3822G2HFO Tail46234  16.455  15.422  21.279 -0.1128 -0.1535  0.2689
 3822G2HFO Tail46235  16.621  15.280  21.003  0.1419 -0.0122 -0.3575
 3822G2HFO Tail46236  16.670  15.369  20.689  0.1801 -0.2025 -0.1391
 3822G2HFO Tail46237  16.430  15.627  20.439  0.1432 -0.0284 -0.0452
 3822G2HFO Tail46238  16.126  15.343  21.232 -0.1564  0.2575 -0.1293
 3822G2HFO Tail46239  15.984  15.288  21.450  0.1450 -0.1835  0.4449
 3822G2HFO Tail46240  15.729  15.312  21.418 -0.0207  0.0439  0.3973
 3822G2HFO Tail46241  15.481  15.295  21.354 -0.2088 -0.1240 -0.0610
 3822G2HFO Tail46242  15.248  15.282  21.365  0.0430 -0.1513 -0.0208
 3823G2HFO Head46243  18.879  20.931  23.892 -0.3527 -0.0720 -0.3459
 3823G2HFO Head46244  19.106  20.802  23.710  0.3084  0.5256  0.0346
 3823G2HFO Head46245  18.957  20.638  23.158  0.0015  0.3201  0.0717
 3823G2HFO Head46246  19.186  20.591  23.337  0.2175 -0.1988 -0.1017
 3823G2HFO Head46247  19.158  20.457  23.660 -0.3971  0.2901  0.1056
 3823G2HFO Head46248  18.232  20.477  24.017  0.1159 -0.4073  0.0830
 3823G2HFO Head46249  18.508  20.281  23.997 -0.0530 -0.1478  0.2477
 3823G2HFO Head46250  18.696  20.650  24.401 -0.2822  0.0487  0.0159
 3823G2HFO Head46251  18.819  20.437  24.260  0.3422 -0.4964  0.0797
 3823G2HFO Head46252  18.813  20.442  23.906 -0.1901  0.0492 -0.0179
 3823G2HFO link46253  18.993  20.292  23.751  0.3254  0.5716  0.0934
 3823G2HFO link46254  18.888  20.073  23.612  0.1388  0.1392  0.0601
 3823G2HFO Tail46255  19.006  19.782  23.703 -0.0344  0.1876  0.1055
 3823G2HFO Tail46256  18.723  19.577  23.649 -0.4060 -0.1261  0.4987
 3823G2HFO Tail46257  18.580  19.501  23.387  0.2327 -0.5747 -0.1129
 3823G2HFO Tail46258  18.424  19.143  23.228 -0.5329  0.4734  0.0657
 3823G2HFO Tail46259  19.163  19.703  23.400  0.0661  0.0098 -0.1430
 3823G2HFO Tail46260  19.056  19.728  23.161 -0.0571  0.1334 -0.1183
 3823G2HFO Tail46261  18.831  19.870  23.155  0.1335  0.1518  0.0917
 3823G2HFO Tail46262  18.615  20.009  23.163  0.1399  0.2039 -0.3762
 3823G2HFO Tail46263  18.461  20.186  23.159 -0.0631  0.1193  0.3417
 3824G2HFO Head46264  19.140  17.836  24.977  0.0819  0.1145 -0.0447
 3824G2HFO Head46265  18.818  17.838  24.920  0.0947  0.2199  0.0298
 3824G2HFO Head46266  18.674  17.864  25.365 -0.0280 -0.1100  0.0137
 3824G2HFO Head46267  18.512  18.059  25.136  0.1118  0.2448  0.1313
 3824G2HFO Head46268  18.583  18.059  24.795 -0.0283  0.1316  0.2079
 3824G2HFO Head46269  19.471  18.144  24.797 -0.1606  0.2690 -0.1968
 3824G2HFO Head46270  19.178  18.175  24.649  0.0048 -0.1570  0.3188
 3824G2HFO Head46271  18.873  18.356  25.331  0.0140 -0.1277 -0.1168
 3824G2HFO Head46272  19.018  18.276  25.061 -0.3175 -0.1451  0.0516
 3824G2HFO Head46273  18.908  18.349  24.754  0.1740 -0.2724 -0.0038
 3824G2HFO link46274  18.658  18.290  24.708 -0.3291 -0.0207  0.2561
 3824G2HFO link46275  18.479  18.457  24.574 -0.0778  0.1865 -0.3538
 3824G2HFO Tail46276  18.573  18.735  24.455 -0.4457  0.0726  0.1748
 3824G2HFO Tail46277  18.485  18.689  24.103  0.1014 -0.2038 -0.1996
 3824G2HFO Tail46278  18.245  18.775  23.944 -0.2796 -0.0854 -0.0532
 3824G2HFO Tail46279  18.146  18.856  23.549  0.3822  0.2334  0.1696
 3824G2HFO Tail46280  18.933  18.716  24.441  0.0154  0.4566 -0.3626
 3824G2HFO Tail46281  19.085  18.747  24.652 -0.0339  0.1235  0.0398
 3824G2HFO Tail46282  19.097  18.988  24.746 -0.0378 -0.1090 -0.0325
 3824G2HFO Tail46283  19.095  19.236  24.789  0.0424 -0.2042  0.0838
 3824G2HFO Tail46284  19.157  19.455  24.832 -0.1415  0.0655 -0.1958
 3825G2HFO Head46285  13.950  16.030  25.853  0.2118  0.3242 -0.0697
 3825G2HFO Head46286  14.232  16.101  25.730  0.2514  0.0141  0.2877
 3825G2HFO Head46287  14.238  16.213  26.392  0.1560 -0.0708  0.1534
 3825G2HFO Head46288  14.267  16.056  26.139  0.1639 -0.1749  0.1694
 3825G2HFO Head46289  14.532  16.126  25.922  0.3006  0.1970  0.0004
 3825G2HFO Head46290  13.992  15.554  26.099 -0.0316 -0.3891 -0.0205
 3825G2HFO Head46291  14.213  15.667  25.894 -0.2308  0.2007 -0.0647
 3825G2HFO Head46292  14.662  15.435  25.451  0.1603  0.0103 -0.2744
 3825G2HFO Head46293  14.499  15.461  25.695 -0.1276 -0.2430  0.0882
 3825G2HFO Head46294  14.561  15.692  25.947  0.0371  0.3389  0.0602
 3825G2HFO link46295  14.691  15.925  25.892 -0.3664 -0.0015 -0.0569
 3825G2HFO link46296  14.986  15.953  25.851  0.1999  0.0468 -0.3430
 3825G2HFO Tail46297  15.146  16.241  25.809 -0.1641 -0.0320 -0.0378
 3825G2HFO Tail46298  15.288  16.197  25.496  0.2154  0.2831 -0.0646
 3825G2HFO Tail46299  15.304  16.395  25.260 -0.0591 -0.4789  0.1864
 3825G2HFO Tail46300  15.420  16.805  25.176 -0.0345  0.3300 -0.1596
 3825G2HFO Tail46301  14.885  16.464  25.752 -0.3190  0.3496  0.4114
 3825G2HFO Tail46302  14.722  16.432  25.543 -0.0954  0.2810 -0.0380
 3825G2HFO Tail46303  14.479  16.518  25.585 -0.1907  0.1573 -0.0952
 3825G2HFO Tail46304  14.259  16.643  25.603  0.1396  0.0684  0.0167
 3825G2HFO Tail46305  14.059  16.752  25.549 -0.0041  0.0943  0.0011
 3826G2HFO Head46306  19.446  18.756  17.993  0.0451 -0.1668  0.0032
 3826G2HFO Head46307  19.323  18.649  18.261  0.4783  0.0960  0.2012
 3826G2HFO Head46308  19.597  18.021  17.932  0.1714  0.3709 -0.3439
 3826G2HFO Head46309  19.450  18.288  18.035  0.4890 -0.3511 -0.0709
 3826G2HFO Head46310  19.220  18.321  18.302  0.3283  0.4991 -0.7753
 3826G2HFO Head46311  18.853  18.912  17.893 -0.1610 -0.2871  0.1346
 3826G2HFO Head46312  19.017  18.622  17.908  0.0004 -0.2482 -0.3037
 3826G2HFO Head46313  18.356  18.488  18.321  0.1120 -0.1241  0.1186
 3826G2HFO Head46314  18.589  18.541  18.111 -0.1584 -0.0353  0.2436
 3826G2HFO Head46315  18.881  18.342  18.075  0.5054 -0.0441 -0.2455
 3826G2HFO link46316  18.973  18.261  18.277 -0.3775 -0.0064 -0.2799
 3826G2HFO link46317  18.819  18.106  18.476 -0.1046  0.2807 -0.0007
 3826G2HFO Tail46318  18.911  18.030  18.767 -0.0961  0.2617 -0.2021
 3826G2HFO Tail46319  18.961  17.679  18.729  0.0025  0.0122  0.1991
 3826G2HFO Tail46320  18.904  17.439  18.523  0.4121 -0.3637 -0.0226
 3826G2HFO Tail46321  18.691  17.058  18.461 -0.0904 -0.1956 -0.1253
 3826G2HFO Tail46322  19.239  18.155  18.732  0.1402  0.0346  0.2011
 3826G2HFO Tail46323  19.438  18.007  18.810  0.1957  0.0575  0.0376
 3826G2HFO Tail46324  19.671  18.107  18.871  0.1299 -0.3589 -0.2241
 3826G2HFO Tail46325  19.906  18.194  18.893 -0.3240  0.3535  0.0135
 3826G2HFO Tail46326  20.140  18.198  18.914  0.0614 -0.4415  0.0103
 3827G2HFO Head46327  18.523  16.126  26.644  0.0857  0.1484  0.2946
 3827G2HFO Head46328  18.265  16.135  26.447  0.1283 -0.1969  0.2886
 3827G2HFO Head46329  18.426  15.426  26.333 -0.2923  0.0145  0.0991
 3827G2HFO Head46330  18.337  15.730  26.312 -0.1977  0.0950  0.6359
 3827G2HFO Head46331  18.048  15.862  26.451  0.1747 -0.3457  0.0890
 3827G2HFO Head46332  18.037  16.079  26.942 -0.0800 -0.0837  0.0844
 3827G2HFO Head46333  17.725  16.033  26.843  0.1031 -0.3055  0.1673
 3827G2HFO Head46334  17.757  16.535  26.389  0.1773  0.0865  0.3149
 3827G2HFO Head46335  17.602  16.288  26.570  0.1562  0.6257  0.3157
 3827G2HFO Head46336  17.639  15.951  26.511  0.0072  0.0043  0.0136
 3827G2HFO link46337  17.806  15.868  26.341 -0.1530 -0.2326 -0.5843
 3827G2HFO link46338  17.759  15.794  26.086 -0.2448 -0.0115  0.3371
 3827G2HFO Tail46339  17.577  15.993  25.881 -0.2416  0.0942  0.2892
 3827G2HFO Tail46340  17.325  15.773  25.790 -0.1177 -0.4375  0.2648
 3827G2HFO Tail46341  17.159  15.731  25.525  0.1808  0.0341  0.4397
 3827G2HFO Tail46342  17.199  15.636  25.097  0.0710 -0.0976 -0.0790
 3827G2HFO Tail46343  17.446  16.208  26.122 -0.2057  0.2270 -0.0146
 3827G2HFO Tail46344  17.278  16.386  26.034  0.0379  0.0761 -0.2788
 3827G2HFO Tail46345  17.047  16.356  26.165 -0.0226 -0.0729  0.0034
 3827G2HFO Tail46346  16.833  16.296  26.293 -0.2606  0.2427 -0.4384
 3827G2HFO Tail46347  16.644  16.182  26.385  0.5747 -0.0095  0.0601
 3828LEFL  Drug46348  16.891  17.127  24.591 -0.1755  0.0477 -0.2308
 3828LEFL  Drug46349  16.933  17.401  24.496 -0.0436  0.0258 -0.2355
 3828LEFL  Drug46350  17.083  17.344  24.388  0.0067 -0.0268 -0.1398
 3828LEFL  Drug46351  17.284  17.433  24.331  0.2876  0.2711 -0.0180
 3828LEFL  Drug46352  17.408  17.389  24.122  0.1942  0.0698  0.0500
 3828LEFL  Drug46353  17.693  17.431  24.035  0.2959 -0.2169  0.2349
 3828LEFL  Drug46354  17.505  17.199  24.063 -0.1391  0.0401 -0.4260
 3828LEFL  Drug46355  17.702  17.066  24.057  0.0509  0.2637  0.4029
 3829LEFL  Drug46356  18.400  19.902  25.833  0.0518  0.4671  0.4222
 3829LEFL  Drug46357  18.620  19.772  25.976  0.0001 -0.3888 -0.2405
 3829LEFL  Drug46358  18.749  19.842  25.850 -0.0293 -0.2614 -0.1998
 3829LEFL  Drug46359  18.851  20.062  25.803  0.7184 -0.0498 -0.2116
 3829LEFL  Drug46360  18.758  20.299  25.785 -0.1435  0.1147  0.2656
 3829LEFL  Drug46361  18.518  20.204  25.941 -0.1055 -0.2318  0.1175
 3829LEFL  Drug46362  18.567  20.338  25.677 -0.1338 -0.1997  0.1282
 3829LEFL  Drug46363  18.332  20.360  25.665 -0.1225 -0.1458 -0.0053
 3830LEFL  Drug46364  18.029  18.373  23.871 -0.1524  0.1594  0.2157
 3830LEFL  Drug46365  17.820  18.516  23.724 -0.3069 -0.1691  0.1118
 3830LEFL  Drug46366  17.683  18.412  23.811 -0.2098 -0.0681  0.3927
 3830LEFL  Drug46367  17.538  18.379  23.976  0.1747 -0.2763 -0.0927
 3830LEFL  Drug46368  17.310  18.283  23.884  0.0649 -0.2243 -0.0461
 3830LEFL  Drug46369  17.068  18.422  23.771  0.2362 -0.1272 -0.2969
 3830LEFL  Drug46370  17.174  18.356  24.044 -0.0774 -0.1797 -0.1861
 3830LEFL  Drug46371  16.955  18.383  24.130  0.0532  0.0214  0.0920
 3831LEFL  Drug46372  20.977  15.999  21.304 -0.3043  0.1288 -0.2553
 3831LEFL  Drug46373  20.752  15.827  21.375 -0.1265 -0.0550 -0.1338
 3831LEFL  Drug46374  20.632  15.931  21.266 -0.3119 -0.0319  0.0882
 3831LEFL  Drug46375  20.683  15.932  21.024 -0.0166  0.1241 -0.2493
 3831LEFL  Drug46376  20.470  15.906  20.898  0.4388  0.0549 -0.0783
 3831LEFL  Drug46377  20.380  15.820  20.623  0.9278 -0.1548 -0.1766
 3831LEFL  Drug46378  20.377  15.704  20.900  0.1734  0.1761 -0.0368
 3831LEFL  Drug46379  20.304  15.502  20.800 -0.0269  0.2117  0.0344
 3832LEFL  Drug46380  18.888  15.070  18.593 -0.3268  0.1608  0.0082
 3832LEFL  Drug46381  18.949  14.820  18.733  0.3165  0.2824 -0.0381
 3832LEFL  Drug46382  18.800  14.731  18.647  0.5948 -0.1115 -0.1245
 3832LEFL  Drug46383  18.601  14.692  18.505 -0.2123  0.0090  0.1093
 3832LEFL  Drug46384  18.412  14.545  18.585 -0.4789  0.1027  0.3495
 3832LEFL  Drug46385  18.279  14.344  18.765  0.0733 -0.6713 -0.0805
 3832LEFL  Drug46386  18.221  14.472  18.500 -0.0582 -0.6129 -0.0239
 3832LEFL  Drug46387  18.004  14.380  18.531 -0.2643 -0.1237  0.0241
 3833LEFL  Drug46388  16.309  17.973  24.280  0.5968  0.0689 -0.0279
 3833LEFL  Drug46389  16.242  18.257  24.251  0.6912  0.1007  0.0592
 3833LEFL  Drug46390  16.057  18.213  24.215  0.3327  0.2402  1.4565
 3833LEFL  Drug46391  15.859  18.279  24.068 -0.1356  0.0772  0.1616
 3833LEFL  Drug46392  15.719  18.138  23.918 -0.1477  0.4050  0.0797
 3833LEFL  Drug46393  15.630  18.338  23.711  0.0346  0.0717 -0.3294
 3833LEFL  Drug46394  15.538  18.070  23.808  0.0749  0.1308 -0.1262
 3833LEFL  Drug46395  15.401  18.074  23.615 -0.0890 -0.0774 -0.0162
 3834LEFL  Drug46396  15.688  16.812  24.233 -0.2245 -0.2580  0.2575
 3834LEFL  Drug46397  15.635  16.645  23.998 -0.1686 -0.1003  0.1327
 3834LEFL  Drug46398  15.453  16.615  24.055 -0.4009  0.4268 -0.2865
 3834LEFL  Drug46399  15.246  16.719  23.938 -0.1284  0.1512  0.2562
 3834LEFL  Drug46400  15.039  16.835  24.023 -0.0497  0.1615  0.0838
 3834LEFL  Drug46401  15.001  16.962  23.753 -0.3400 -0.4831 -0.1902
 3834LEFL  Drug46402  14.827  16.829  23.958 -0.1103 -0.0563  0.2938
 3834LEFL  Drug46403  14.648  16.939  23.849 -0.0523 -0.0652  0.1889
 3835LEFL  Drug46404  18.180  19.729  19.314 -0.1530 -0.1053 -0.2097
 3835LEFL  Drug46405  18.034  19.498  19.420  0.0779 -0.0622  0.2139
 3835LEFL  Drug46406  18.140  19.377  19.313 -0.1246 -0.1104  0.0654
 3835LEFL  Drug46407  18.294  19.180  19.332 -0.6042  0.2462  0.2175
 3835LEFL  Drug46408  18.551  19.183  19.323 -0.3691 -0.0001  0.1094
 3835LEFL  Drug46409  18.601  19.099  19.607 -0.3373  0.1376  0.1444
 3835LEFL  Drug46410  18.622  18.973  19.336 -0.3803  0.0021  0.2040
 3835LEFL  Drug46411  18.644  18.766  19.449  0.2760 -0.0644 -0.0247
 3836LEFL  Drug46412  17.506  17.982  25.724  0.0502 -0.1034 -0.0863
 3836LEFL  Drug46413  17.652  17.904  25.483 -0.3181 -0.1549 -0.2955
 3836LEFL  Drug46414  17.617  17.718  25.517  0.2332 -0.1950  0.1267
 3836LEFL  Drug46415  17.793  17.571  25.651  0.2864 -0.7528  0.1077
 3836LEFL  Drug46416  18.010  17.471  25.694 -0.0567 -0.2096 -0.3690
 3836LEFL  Drug46417  17.968  17.178  25.747  0.5807 -0.2170  0.1610
 3836LEFL  Drug46418  18.067  17.415  25.901 -0.0696  0.3180 -0.2156
 3836LEFL  Drug46419  18.109  17.248  26.064 -0.0891 -0.1720 -0.7030
 3837LEFL  Drug46420  15.824  16.147  26.738 -0.6419  0.1706  0.0862
 3837LEFL  Drug46421  15.800  16.315  26.499 -0.4297  0.0135 -0.0477
 3837LEFL  Drug46422  15.611  16.338  26.530 -0.5401 -0.2887 -0.4516
 3837LEFL  Drug46423  15.428  16.302  26.702 -0.1099 -0.0957  0.3833
 3837LEFL  Drug46424  15.191  16.184  26.766 -0.2928  0.1899  0.2385
 3837LEFL  Drug46425  14.902  16.141  26.696 -0.3098  0.2379  0.2787
 3837LEFL  Drug46426  15.146  15.970  26.728 -0.0566  0.3221 -0.9650
 3837LEFL  Drug46427  14.998  15.788  26.760  0.3160  0.1551 -0.0557
 3838LEFL  Drug46428  20.548  14.636  19.358  0.0999 -0.1490  0.3680
 3838LEFL  Drug46429  20.581  14.486  19.607  0.2546 -0.2693  0.2758
 3838LEFL  Drug46430  20.625  14.647  19.703  0.1218 -0.2874  0.3678
 3838LEFL  Drug46431  20.682  14.802  19.886 -0.1913 -0.1217 -0.0240
 3838LEFL  Drug46432  20.686  15.036  19.940 -0.4058 -0.0716 -0.2229
 3838LEFL  Drug46433  20.660  15.087  20.235  0.3238 -0.3515 -0.1009
 3838LEFL  Drug46434  20.696  15.253  19.988 -0.6636 -0.0871 -0.0886
 3838LEFL  Drug46435  20.640  15.443  20.118 -0.0034  0.0756 -0.0246
 3839LEFL  Drug46436  19.955  18.118  19.804  0.0040  0.0237 -0.6196
 3839LEFL  Drug46437  19.843  18.372  19.711  0.0644  0.2011 -0.2185
 3839LEFL  Drug46438  19.698  18.280  19.623 -0.0037  0.3792 -0.2948
 3839LEFL  Drug46439  19.742  18.058  19.481 -0.1989 -0.2602  0.1266
 3839LEFL  Drug46440  19.617  17.839  19.493  0.1594 -0.1322  0.0316
 3839LEFL  Drug46441  19.375  17.694  19.390  0.2113 -0.1291 -0.0957
 3839LEFL  Drug46442  19.539  17.693  19.641 -0.4841  0.5355  0.3826
 3839LEFL  Drug46443  19.447  17.480  19.687  0.2178  0.1028 -0.1250
 3840LEFL  Drug46444  17.354  18.415  19.654  0.3097 -0.0519  0.0994
 3840LEFL  Drug46445  17.113  18.421  19.487  0.2471  0.0006  0.1908
 3840LEFL  Drug46446  17.148  18.605  19.438  0.2437  0.0072  0.2139
 3840LEFL  Drug46447  17.005  18.746  19.278 -0.5876  0.1049  0.1066
 3840LEFL  Drug46448  16.997  18.821  19.032  0.4152  0.1685  0.2865
 3840LEFL  Drug46449  16.941  19.116  19.046 -0.0015  0.1226 -0.2424
 3840LEFL  Drug46450  17.039  18.922  18.839 -0.4124 -0.2190 -0.1220
 3840LEFL  Drug46451  17.121  19.114  18.727  0.0448 -0.1838  0.2625
 3841LEFL  Drug46452  16.366  15.077  21.421 -0.2901 -0.6920 -0.6910
 3841LEFL  Drug46453  16.425  14.832  21.571 -0.0481 -0.1830  0.0744
 3841LEFL  Drug46454  16.398  14.724  21.413  0.5923 -0.6565  0.2665
 3841LEFL  Drug46455  16.467  14.697  21.183  0.0341 -0.3209  0.4689
 3841LEFL  Drug46456  16.674  14.734  21.079  0.3323 -0.2317 -0.0385
 3841LEFL  Drug46457  16.606  14.597  20.820 -0.1917 -0.3694  0.1648
 3841LEFL  Drug46458  16.700  14.869  20.905 -0.2524 -0.2488 -0.1475
 3841LEFL  Drug46459  16.685  14.926  20.675 -0.0283  0.0382 -0.0945
 3842LEFL  Drug46460  16.552  20.114  20.688 -0.2553 -0.3922 -0.0826
 3842LEFL  Drug46461  16.819  19.995  20.677 -0.0418  0.0848 -0.1607
 3842LEFL  Drug46462  16.744  19.817  20.666  0.2729 -0.0709  0.1169
 3842LEFL  Drug46463  16.711  19.719  20.455 -0.1968  0.0061 -0.1296
 3842LEFL  Drug46464  16.554  19.599  20.315 -0.1694  0.4813  0.7700
 3842LEFL  Drug46465  16.372  19.461  20.118  0.7353  0.4782 -0.0995
 3842LEFL  Drug46466  16.474  19.409  20.396 -0.3387  0.3399  0.2874
 3842LEFL  Drug46467  16.328  19.222  20.388 -0.1652  0.2114  0.0702
 3843LEFL  Drug46468  16.089  17.678  23.340  0.0823 -0.4425  0.0660
 3843LEFL  Drug46469  16.061  17.812  23.599  0.2207  0.2734 -0.2778
 3843LEFL  Drug46470  16.231  17.742  23.658  0.1477  0.2459 -0.0951
 3843LEFL  Drug46471  16.452  17.634  23.641  0.0901  0.2044  0.1064
 3843LEFL  Drug46472  16.681  17.649  23.746 -0.1995 -0.0092 -0.4472
 3843LEFL  Drug46473  16.678  17.950  23.749 -0.1192 -0.0100 -0.1642
 3843LEFL  Drug46474  16.863  17.735  23.652  0.1981  0.0339  0.3259
 3843LEFL  Drug46475  16.962  17.905  23.520 -0.0296  0.1070  0.2452
 3844LEFL  Drug46476  18.812  19.509  21.330 -0.3119  0.1341  0.3583
 3844LEFL  Drug46477  19.025  19.661  21.461 -0.0950  0.0849  0.0664
 3844LEFL  Drug46478  19.092  19.721  21.290  0.1032 -0.4769 -0.0642
 3844LEFL  Drug46479  19.182  19.965  21.248 -0.3116  0.5304  0.0464
 3844LEFL  Drug46480  19.315  20.016  21.062 -0.0919 -0.0048 -0.2195
 3844LEFL  Drug46481  19.344  20.100  20.775 -0.3891 -0.2616 -0.3269
 3844LEFL  Drug46482  19.528  20.027  21.000 -0.1448  0.2113 -0.3671
 3844LEFL  Drug46483  19.697  20.119  20.861  0.2972 -0.3271 -0.2059
 3845LEFL  Drug46484  18.608  21.297  22.693  0.4614  0.0761  0.3306
 3845LEFL  Drug46485  18.540  21.563  22.590 -0.1995 -0.1326  0.2028
 3845LEFL  Drug46486  18.633  21.526  22.424  0.1507  0.1193  0.3363
 3845LEFL  Drug46487  18.515  21.521  22.206 -0.0963 -0.1183 -0.1198
 3845LEFL  Drug46488  18.334  21.403  22.078  0.1214  0.0091 -0.0335
 3845LEFL  Drug46489  18.084  21.568  22.112 -0.0129 -0.1647 -0.1725
 3845LEFL  Drug46490  18.175  21.341  21.936  0.2795 -0.0340 -0.1934
 3845LEFL  Drug46491  17.972  21.380  21.820  0.0709  0.0327  0.1833
 3846LEFL  Drug46492  18.322  17.430  25.588 -0.1773  0.1297  0.3501
 3846LEFL  Drug46493  18.574  17.559  25.660  0.0673 -0.0473 -0.1700
 3846LEFL  Drug46494  18.512  17.590  25.840  0.2656  0.4485 -0.1775
 3846LEFL  Drug46495  18.368  17.801  25.858 -0.0217 -0.2495 -0.0517
 3846LEFL  Drug46496  18.396  18.036  25.831  0.0081 -0.1196 -0.2178
 3846LEFL  Drug46497  18.564  18.031  26.081  0.1935 -0.1098 -0.3413
 3846LEFL  Drug46498  18.313  18.168  25.989  0.0554 -0.2100 -0.1176
 3846LEFL  Drug46499  18.295  18.238  26.215  0.2813 -0.2854 -0.0750
 3847LEFL  Drug46500  18.072  15.926  18.466 -0.2578 -0.4511 -0.2082
 3847LEFL  Drug46501  18.122  15.812  18.201  0.4013 -0.1785 -0.2095
 3847LEFL  Drug46502  18.043  15.966  18.116  0.2462 -0.2690 -0.2321
 3847LEFL  Drug46503  17.970  16.129  17.979  0.0316 -0.0711 -0.0724
 3847LEFL  Drug46504  17.889  16.362  18.036  0.0916  0.1360  0.6046
 3847LEFL  Drug46505  17.759  16.610  18.146  0.4421  0.3670  0.5036
 3847LEFL  Drug46506  17.958  16.545  17.932  0.3213 -0.0080  0.5018
 3847LEFL  Drug46507  17.956  16.780  17.897 -0.2531 -0.0826 -0.0238
 3848LEFL  Drug46508  15.453  15.414  25.096 -0.1889  0.1468  0.4764
 3848LEFL  Drug46509  15.187  15.534  25.065 -0.1509  0.1318  0.0737
 3848LEFL  Drug46510  15.234  15.602  24.891 -0.0107 -0.1680 -0.0088
 3848LEFL  Drug46511  15.323  15.742  24.727 -0.0615 -0.3174 -0.1453
 3848LEFL  Drug46512  15.366  15.724  24.502  0.1868 -0.0600 -0.1856
 3848LEFL  Drug46513  15.229  15.847  24.263  0.3835  0.2929 -0.1211
 3848LEFL  Drug46514  15.485  15.701  24.317  0.3198  0.1762 -0.1314
 3848LEFL  Drug46515  15.508  15.695  24.081  0.0445 -0.2977 -0.1513
 3849LEFL  Drug46516  16.813  16.979  25.861 -0.0637 -0.0476  0.0206
 3849LEFL  Drug46517  16.719  17.146  26.083  0.3212  0.0920  0.0815
 3849LEFL  Drug46518  16.900  17.203  26.121  0.4897 -0.5227  0.2548
 3849LEFL  Drug46519  17.097  17.158  26.216 -0.5078 -0.0369  0.5439
 3849LEFL  Drug46520  17.339  17.143  26.166  0.1664  0.1799 -0.0782
 3849LEFL  Drug46521  17.604  17.257  26.251  0.4207 -0.0832 -0.5012
 3849LEFL  Drug46522  17.446  17.238  25.997 -0.1221  0.2927 -0.2010
 3849LEFL  Drug46523  17.650  17.305  25.897  0.0879 -0.0025  0.0225
 3850LEFL  Drug46524  16.369  14.517  27.514 -0.4622 -0.1016  0.0440
 3850LEFL  Drug46525  16.482  14.667  27.289  0.3447 -0.1719  0.3844
 3850LEFL  Drug46526  16.429  14.835  27.370 -0.5188 -0.1683 -0.1275
 3850LEFL  Drug46527  16.592  15.016  27.477 -0.0188 -0.0222  0.1188
 3850LEFL  Drug46528  16.606  15.255  27.454 -0.3167  0.1060 -0.1473
 3850LEFL  Drug46529  16.610  15.556  27.470 -0.1606  0.0903  0.1394
 3850LEFL  Drug46530  16.474  15.348  27.301 -0.0372  0.3268 -0.2588
 3850LEFL  Drug46531  16.375  15.535  27.195 -0.0028  0.3436 -0.2614
 3851LEFL  Drug46532  19.283  20.759  19.881 -0.0518 -0.4691  0.3021
 3851LEFL  Drug46533  19.076  20.554  19.913 -0.3103 -0.3092 -0.2991
 3851LEFL  Drug46534  19.066  20.530  19.722  0.3228 -0.3949 -0.3311
 3851LEFL  Drug46535  19.067  20.514  19.489 -0.1197  0.3398 -0.0832
 3851LEFL  Drug46536  18.909  20.436  19.322 -0.1615 -0.1671  0.0384
 3851LEFL  Drug46537  18.762  20.270  19.119 -0.3674  0.0204  0.0317
 3851LEFL  Drug46538  18.690  20.472  19.328 -0.1284  0.0270  0.1083
 3851LEFL  Drug46539  18.471  20.438  19.246 -0.0364  0.0999 -0.1751
 3852LEFL  Drug46540  17.082  19.281  26.180  0.1043 -0.0386  0.1519
 3852LEFL  Drug46541  16.943  19.282  26.439 -0.4520  0.1027 -0.1404
 3852LEFL  Drug46542  16.871  19.106  26.405 -0.3785  0.0836 -0.1993
 3852LEFL  Drug46543  16.771  18.914  26.512 -0.0851 -0.2345  0.0352
 3852LEFL  Drug46544  16.862  18.743  26.650 -0.1704  0.1662  0.0042
 3852LEFL  Drug46545  16.815  18.862  26.922 -0.2244  0.0266  0.0568
 3852LEFL  Drug46546  17.045  18.736  26.775 -0.1571  0.2289 -0.0123
 3852LEFL  Drug46547  17.170  18.803  26.965 -0.1612  0.0736  0.0455
 3853LEFL  Drug46548  17.028  17.994  25.086  0.6074  0.2977  0.1219
 3853LEFL  Drug46549  17.068  17.812  24.860 -0.1073  0.1420  0.1091
 3853LEFL  Drug46550  17.011  17.661  24.967 -0.7119  0.3521  0.0959
 3853LEFL  Drug46551  17.045  17.405  24.947 -0.2172 -0.0807  0.4500
 3853LEFL  Drug46552  16.921  17.200  24.983 -0.1131  0.0033 -0.1320
 3853LEFL  Drug46553  16.834  16.927  24.888  0.1166 -0.2473  0.3617
 3853LEFL  Drug46554  16.702  17.190  24.947 -0.2041 -0.4345  0.4835
 3853LEFL  Drug46555  16.503  17.063  24.919 -0.2395 -0.3544  0.3666
 3854LEFL  Drug46556  18.251  19.348  20.383 -0.0472  0.0848 -0.0954
 3854LEFL  Drug46557  18.166  19.282  20.111 -0.1570 -0.0400 -0.0311
 3854LEFL  Drug46558  18.167  19.093  20.152  0.1248 -0.0389 -0.0222
 3854LEFL  Drug46559  18.005  18.974  19.981  0.2024  0.0946 -0.2683
 3854LEFL  Drug46560  17.768  19.003  20.017 -0.2740 -0.3075 -0.2987
 3854LEFL  Drug46561  17.484  18.960  20.110 -0.2829 -0.1403 -0.2472
 3854LEFL  Drug46562  17.697  19.168  20.147  0.1147 -0.6385  0.3611
 3854LEFL  Drug46563  17.537  19.261  20.294 -0.0494 -0.1488 -0.1112
 3855LEFL  Drug46564  17.900  14.148  20.709  0.1782 -0.3556 -0.0980
 3855LEFL  Drug46565  18.084  14.345  20.823  0.1459 -0.2178 -0.2830
 3855LEFL  Drug46566  18.044  14.284  21.001 -0.1139  0.1826 -0.1992
 3855LEFL  Drug46567  18.144  14.071  21.109 -0.1853 -0.0190 -0.2591
 3855LEFL  Drug46568  18.078  13.924  21.285 -0.0018 -0.2037  0.2927
 3855LEFL  Drug46569  17.815  14.000  21.410 -0.1436 -0.3770  0.1027
 3855LEFL  Drug46570  17.993  13.758  21.406 -0.1022 -0.3456  0.0336
 3855LEFL  Drug46571  17.832  13.662  21.551 -0.1898 -0.1264  0.0836
 3856LEFL  Drug46572  19.109  18.273  17.801 -0.1324 -0.0429  0.0586
 3856LEFL  Drug46573  19.175  18.004  17.897  0.0390 -0.0082  0.0396
 3856LEFL  Drug46574  19.075  17.924  17.752 -0.1836 -0.0613  0.2202
 3856LEFL  Drug46575  19.065  17.676  17.758 -0.4080 -0.1677 -0.0916
 3856LEFL  Drug46576  18.893  17.514  17.794  0.1558 -0.0802  0.2445
 3856LEFL  Drug46577  18.897  17.221  17.725 -0.5283 -0.1452  0.4518
 3856LEFL  Drug46578  18.727  17.404  17.892 -0.0326  0.3533  0.4233
 3856LEFL  Drug46579  18.622  17.199  17.949  0.3412  0.0625  0.0878
 3857LEFL  Drug46580  16.441  17.755  22.844  0.0316 -0.3369 -0.3063
 3857LEFL  Drug46581  16.724  17.810  22.793 -0.0168 -0.1191 -0.3447
 3857LEFL  Drug46582  16.746  17.880  22.971 -0.0710 -0.0059 -0.3827
 3857LEFL  Drug46583  16.719  18.049  23.135  0.0218  0.0234  0.0734
 3857LEFL  Drug46584  16.789  18.190  23.302 -0.1730 -0.0520  0.2283
 3857LEFL  Drug46585  16.853  18.435  23.464 -0.3706  0.1402  0.0196
 3857LEFL  Drug46586  17.006  18.233  23.304 -0.1836 -0.0021  0.3732
 3857LEFL  Drug46587  17.199  18.311  23.418  0.0168  0.0106  0.0300
 3858LEFL  Drug46588  19.311  13.805  19.874  0.1509 -0.2109 -0.4055
 3858LEFL  Drug46589  19.540  13.966  19.963 -0.2770 -0.0462  0.4462
 3858LEFL  Drug46590  19.663  13.838  19.888  0.0748  0.5819 -0.0947
 3858LEFL  Drug46591  19.860  13.867  19.725 -0.1350 -0.3759 -0.0285
 3858LEFL  Drug46592  20.027  14.069  19.747  0.1839  0.4768  0.5578
 3858LEFL  Drug46593  20.265  13.887  19.720 -0.1760  0.0667  0.0626
 3858LEFL  Drug46594  20.167  14.138  19.589 -0.1794  0.0509  0.0346
 3858LEFL  Drug46595  20.392  14.179  19.526 -0.1430 -0.1202  0.0542
 3859LEFL  Drug46596  15.270  14.557  22.657 -0.0591  0.5555  0.0408
 3859LEFL  Drug46597  15.375  14.751  22.849  0.2066  0.4190  0.0363
 3859LEFL  Drug46598  15.310  14.898  22.743  0.0168  0.4944  0.2523
 3859LEFL  Drug46599  15.247  14.900  22.505 -0.1225 -0.0124 -0.1804
 3859LEFL  Drug46600  15.383  14.878  22.293  0.2384  0.3541 -0.0042
 3859LEFL  Drug46601  15.476  14.813  22.015 -0.1754  0.4120 -0.1600
 3859LEFL  Drug46602  15.604  14.874  22.279  0.2189  0.1521 -0.2870
 3859LEFL  Drug46603  15.806  14.807  22.175  0.2419  0.1822 -0.2618
 3860LEFL  Drug46604  17.334  15.498  20.088  0.5144  0.3656 -0.3100
 3860LEFL  Drug46605  17.365  15.213  20.149  0.1211  0.3797 -0.0220
 3860LEFL  Drug46606  17.539  15.245  20.226  0.2581  0.1906 -0.2452
 3860LEFL  Drug46607  17.721  15.193  20.372  0.0880 -0.5261  0.0443
 3860LEFL  Drug46608  17.818  14.973  20.373  0.1252  0.1878  0.0866
 3860LEFL  Drug46609  17.841  14.974  20.673  0.3900  0.0045  0.0678
 3860LEFL  Drug46610  17.950  14.810  20.446  0.4406  0.3335 -0.1481
 3860LEFL  Drug46611  18.065  14.708  20.626 -0.1538 -0.0966  0.0034
 3861LEFL  Drug46612  17.514  17.213  21.833  0.0096  0.0757 -0.1384
 3861LEFL  Drug46613  17.404  17.266  21.567 -0.1783  0.2281 -0.0312
 3861LEFL  Drug46614  17.313  17.096  21.566  0.2318  0.0053 -0.2761
 3861LEFL  Drug46615  17.124  17.057  21.742  0.0165 -0.0802  0.2945
 3861LEFL  Drug46616  16.898  16.970  21.707  0.2272 -0.2769 -0.2828
 3861LEFL  Drug46617  16.773  17.241  21.751  0.0601 -0.3872 -0.0698
 3861LEFL  Drug46618  16.776  17.034  21.533 -0.1095 -0.3729 -0.0864
 3861LEFL  Drug46619  16.611  17.175  21.438  0.0366 -0.0132  0.1851
 3862LEFL  Drug46620  18.516  19.427  24.821  0.2684  0.4014  0.0698
 3862LEFL  Drug46621  18.424  19.170  24.714 -0.1910  0.4064  0.4410
 3862LEFL  Drug46622  18.597  19.136  24.636 -0.2689  0.0146  0.4285
 3862LEFL  Drug46623  18.759  19.155  24.457  0.1355  0.3878  0.2155
 3862LEFL  Drug46624  18.991  19.249  24.397  0.3003  0.4128 -0.1215
 3862LEFL  Drug46625  19.275  19.349  24.405  0.4351  0.0562 -0.3097
 3862LEFL  Drug46626  19.135  19.099  24.318  0.0954  0.1045  0.0833
 3862LEFL  Drug46627  19.346  18.994  24.350 -0.0160 -0.1597 -0.0303
 3863LEFL  Drug46628  18.314  17.403  19.026  0.1847 -0.0170  0.4134
 3863LEFL  Drug46629  18.412  17.520  18.776 -0.0261  0.0489  0.3609
 3863LEFL  Drug46630  18.453  17.686  18.865 -0.1706  0.1066  0.3204
 3863LEFL  Drug46631  18.501  17.845  18.709  0.4919 -0.1199 -0.4204
 3863LEFL  Drug46632  18.480  17.832  18.470 -0.4597  0.2542  0.0711
 3863LEFL  Drug46633  18.350  17.743  18.213  0.1166  0.3127 -0.2485
 3863LEFL  Drug46634  18.516  17.617  18.429 -0.1871  0.3136 -0.0109
 3863LEFL  Drug46635  18.466  17.415  18.317  0.5561  0.0120  0.1707
 3864LEFL  Drug46636  19.277  19.783  24.974  0.1194 -0.0800  0.0589
 3864LEFL  Drug46637  19.473  19.852  25.180 -0.1569  0.0035  0.2978
 3864LEFL  Drug46638  19.333  19.888  25.308 -0.3263 -0.0868  0.1387
 3864LEFL  Drug46639  19.162  19.847  25.507  0.5753  0.0196 -0.0757
 3864LEFL  Drug46640  18.931  19.793  25.523 -0.0539  0.1800  0.0700
 3864LEFL  Drug46641  18.685  19.633  25.588  0.0688 -0.0150  0.0603
 3864LEFL  Drug46642  18.745  19.909  25.487 -0.1466  0.0182  0.0190
 3864LEFL  Drug46643  18.521  19.921  25.412 -0.1309 -0.0500 -0.0387
 3865LEFL  Drug46644  18.354  14.294  20.667  0.1594 -0.0453  0.3277
 3865LEFL  Drug46645  18.514  14.166  20.457 -0.0045  0.1333  0.0912
 3865LEFL  Drug46646  18.677  14.203  20.554  0.0356 -0.3830  0.2378
 3865LEFL  Drug46647  18.742  14.270  20.775 -0.4058  0.3380 -0.1022
 3865LEFL  Drug46648  18.953  14.304  20.870  0.0724  0.0143 -0.1483
 3865LEFL  Drug46649  19.196  14.173  20.750  0.1286 -0.7231  0.7220
 3865LEFL  Drug46650  19.140  14.376  20.964  0.0234  0.5114 -0.4131
 3865LEFL  Drug46651  19.375  14.413  20.961  0.1526 -0.2197 -0.2390
 3866LEFL  Drug46652  17.895  15.953  19.818  0.0316 -0.2292  0.3136
 3866LEFL  Drug46653  17.666  15.947  20.001 -0.0453 -0.1203  0.2220
 3866LEFL  Drug46654  17.769  16.034  20.139  0.0746 -0.5561  0.4143
 3866LEFL  Drug46655  18.007  16.078  20.201 -0.3978  0.0776 -0.0037
 3866LEFL  Drug46656  18.181  15.983  20.364 -0.0892  0.1443  0.2320
 3866LEFL  Drug46657  18.454  16.034  20.247 -0.0890 -0.0161  0.1617
 3866LEFL  Drug46658  18.339  15.869  20.470 -0.1698 -0.2134 -0.0244
 3866LEFL  Drug46659  18.560  15.792  20.509 -0.0256  0.2129  0.0262
 3867LEFL  Drug46660  18.926  19.244  22.515  0.0313  0.1135  0.0125
 3867LEFL  Drug46661  18.966  19.237  22.224  0.0930  0.2021  0.0182
 3867LEFL  Drug46662  18.994  19.046  22.229  0.1542  0.2098 -0.0258
 3867LEFL  Drug46663  18.953  18.824  22.124 -0.3575  0.1574 -0.6049
 3867LEFL  Drug46664  18.900  18.707  21.931  0.1974  0.0465 -0.0009
 3867LEFL  Drug46665  18.921  18.551  21.675 -0.0963 -0.2123  0.1302
 3867LEFL  Drug46666  18.820  18.821  21.758 -0.0808 -0.1626 -0.0125
 3867LEFL  Drug46667  18.732  18.835  21.538 -0.0446  0.4832  0.0076
 3868LEFL  Drug46668  20.273  17.452  18.818  0.0252 -0.0515 -0.5439
 3868LEFL  Drug46669  19.998  17.422  18.915  0.2512 -0.3605  0.0206
 3868LEFL  Drug46670  19.981  17.252  18.825  0.1422 -0.2139 -0.2404
 3868LEFL  Drug46671  20.066  17.021  18.877 -0.0714 -0.0979 -0.0870
 3868LEFL  Drug46672  20.222  16.858  18.971 -0.0370  0.0908  0.1643
 3868LEFL  Drug46673  20.455  17.038  18.909 -0.2388  0.3714  0.2119
 3868LEFL  Drug46674  20.361  16.875  19.143  0.1026 -0.0437  0.0655
 3868LEFL  Drug46675  20.550  16.975  19.246  0.0809  0.0572  0.0089
 3869LEFL  Drug46676  16.876  14.542  20.666 -0.3605 -0.0478  0.2631
 3869LEFL  Drug46677  16.974  14.325  20.495 -0.4573  0.3655 -0.3298
 3869LEFL  Drug46678  17.154  14.394  20.504 -0.4191  0.2420 -0.1076
 3869LEFL  Drug46679  17.348  14.427  20.649  0.1534  0.5097 -0.2899
 3869LEFL  Drug46680  17.437  14.389  20.886 -0.0208  0.0096 -0.0033
 3869LEFL  Drug46681  17.699  14.291  20.997 -0.2098  0.1515  0.5890
 3869LEFL  Drug46682  17.572  14.557  20.941 -0.1277  0.0813  0.0417
 3869LEFL  Drug46683  17.793  14.637  20.970 -0.1234  0.2505 -0.4115
 3870LEFL  Drug46684  14.233  15.327  23.559 -0.0472 -0.1351  0.5065
 3870LEFL  Drug46685  14.313  15.383  23.835 -0.0222  0.2925  0.4162
 3870LEFL  Drug46686  14.463  15.488  23.775  0.2402 -0.1730  0.2324
 3870LEFL  Drug46687  14.576  15.687  23.869  0.4667 -0.4846 -0.3431
 3870LEFL  Drug46688  14.674  15.717  24.090  0.0303 -0.0204 -0.1652
 3870LEFL  Drug46689  14.954  15.748  23.986  0.0363  0.2801 -0.0627
 3870LEFL  Drug46690  14.773  15.897  24.172 -0.2395  0.1605 -0.2322
 3870LEFL  Drug46691  14.926  16.078  24.163  0.0724 -0.0800  0.0944
 3871LEFL  Drug46692  19.358  18.503  25.806 -0.0107 -0.3230  0.0402
 3871LEFL  Drug46693  19.090  18.517  25.688 -0.0027 -0.0591  0.0502
 3871LEFL  Drug46694  19.163  18.510  25.510 -0.0338 -0.5363  0.0493
 3871LEFL  Drug46695  19.362  18.421  25.364  0.1283  0.1468  0.1326
 3871LEFL  Drug46696  19.385  18.212  25.244  0.0173 -0.1977 -0.0219
 3871LEFL  Drug46697  19.515  17.949  25.312 -0.1162 -0.3131 -0.2056
 3871LEFL  Drug46698  19.247  18.076  25.353  0.1612  0.0719  0.5127
 3871LEFL  Drug46699  19.189  17.869  25.452 -0.2540 -0.0588  0.0148
 3872LEFL  Drug46700  17.053  17.916  22.769  0.2518 -0.3467 -0.0185
 3872LEFL  Drug46701  17.055  18.159  22.933 -0.2831 -0.3347 -0.0202
 3872LEFL  Drug46702  17.176  18.076  23.060  0.1996  0.0525 -0.2126
 3872LEFL  Drug46703  17.249  17.894  23.200 -0.1743 -0.1574  0.0712
 3872LEFL  Drug46704  17.367  17.848  23.417  0.1484 -0.1125  0.4406
 3872LEFL  Drug46705  17.385  18.051  23.638  0.0348  0.1722  0.1909
 3872LEFL  Drug46706  17.560  17.956  23.413 -0.0936  0.3220  0.0264
 3872LEFL  Drug46707  17.727  18.082  23.526  0.2859 -0.0296 -0.1318
 3873LEFL  Drug46708  17.538  17.794  23.888  0.3184  0.0712  0.1333
 3873LEFL  Drug46709  17.606  17.604  23.676 -0.0276  0.0506  0.0384
 3873LEFL  Drug46710  17.760  17.708  23.627  0.4049 -0.4169  0.3619
 3873LEFL  Drug46711  17.889  17.704  23.432 -0.0449  0.1033  0.1011
 3873LEFL  Drug46712  18.003  17.865  23.281  0.4540 -0.1306  0.0146
 3873LEFL  Drug46713  17.761  17.906  23.107  0.2338  0.3470  0.4217
 3873LEFL  Drug46714  18.057  17.944  23.081  0.2324  0.1260  0.0532
 3873LEFL  Drug46715  18.021  17.925  22.847  0.2054 -0.2465  0.0857
 3874LEFL  Drug46716  14.589  17.093  24.901  0.1443  0.0944 -0.3980
 3874LEFL  Drug46717  14.873  17.164  24.884  0.1459  0.3047  0.3426
 3874LEFL  Drug46718  14.833  17.348  24.926 -0.0468  0.1972  0.6512
 3874LEFL  Drug46719  14.917  17.580  24.993  0.2921  0.0814 -0.0487
 3874LEFL  Drug46720  14.846  17.708  25.178 -0.2358  0.2635 -0.0477
 3874LEFL  Drug46721  14.949  17.809  25.442  0.0239  0.6254 -0.2834
 3874LEFL  Drug46722  14.681  17.768  25.314 -0.1222  0.0698  0.1808
 3874LEFL  Drug46723  14.583  17.797  25.528 -0.2238 -0.0407  0.1499
 3875LEFL  Drug46724  18.532  19.975  19.043 -0.0970 -0.0457  0.0906
 3875LEFL  Drug46725  18.327  19.917  18.842  0.0236 -0.1684  0.0027
 3875LEFL  Drug46726  18.300  19.740  18.914 -0.0820 -0.0931  0.1499
 3875LEFL  Drug46727  18.451  19.542  18.943  0.2023  0.0236 -0.0108
 3875LEFL  Drug46728  18.625  19.450  19.103 -0.3649  0.3826  0.3708
 3875LEFL  Drug46729  18.849  19.647  19.060  0.1888 -0.3526 -0.2253
 3875LEFL  Drug46730  18.797  19.410  19.237 -0.0054 -0.3498 -0.2771
 3875LEFL  Drug46731  18.978  19.492  19.366 -0.3376 -0.0105 -0.0181
 3876LEFL  Drug46732  17.231  14.773  22.225 -0.2951  0.1617  0.5523
 3876LEFL  Drug46733  17.323  14.503  22.159 -0.3505  0.2130  0.2612
 3876LEFL  Drug46734  17.498  14.570  22.113 -0.2811  0.2054  0.5073
 3876LEFL  Drug46735  17.658  14.651  21.958  0.2551 -0.4504  0.0681
 3876LEFL  Drug46736  17.720  14.581  21.752 -0.1310 -0.1350  0.0720
 3876LEFL  Drug46737  17.995  14.638  21.643 -0.3620  0.4573 -0.2187
 3876LEFL  Drug46738  17.785  14.427  21.605  0.2140 -0.2373  0.3261
 3876LEFL  Drug46739  17.938  14.344  21.444 -0.1650  0.1963 -0.2759
 3877LEFL  Drug46740  18.222  19.972  24.333 -0.3130  0.1245 -0.2924
 3877LEFL  Drug46741  17.992  20.152  24.351 -0.2739  0.1876 -0.4168
 3877LEFL  Drug46742  17.893  20.021  24.453 -0.2826  0.3002 -0.2796
 3877LEFL  Drug46743  17.730  19.888  24.337 -0.0419  0.2714  0.0951
 3877LEFL  Drug46744  17.619  19.690  24.305 -0.1373  0.1322  0.0750
 3877LEFL  Drug46745  17.515  19.450  24.454 -0.2057  0.2557  0.2262
 3877LEFL  Drug46746  17.400  19.665  24.279 -0.1411  0.1671  0.0743
 3877LEFL  Drug46747  17.198  19.543  24.306  0.0192 -0.0916  0.1255
 3878LEFL  Drug46748  20.694  17.522  20.213  0.1633  0.4824 -0.1967
 3878LEFL  Drug46749  20.584  17.252  20.241  0.2806  0.4534 -0.0072
 3878LEFL  Drug46750  20.406  17.322  20.260  0.2634  0.3943  0.0522
 3878LEFL  Drug46751  20.176  17.207  20.225 -0.1537  0.0286  0.0685
 3878LEFL  Drug46752  20.120  16.966  20.200  0.3829  0.1808  0.0010
 3878LEFL  Drug46753  20.301  16.751  20.306  0.0629 -0.1360 -0.0862
 3878LEFL  Drug46754  20.180  16.824  20.041 -0.5119 -0.3545  0.1085
 3878LEFL  Drug46755  20.223  16.602  19.969  0.0363 -0.1806 -0.1274
 3879LEFL  Drug46756  16.458  17.216  20.451  0.0907 -0.0244 -0.0694
 3879LEFL  Drug46757  16.669  17.027  20.376 -0.0481  0.0224 -0.5904
 3879LEFL  Drug46758  16.786  17.172  20.324  0.0743  0.0887 -0.1501
 3879LEFL  Drug46759  16.792  17.312  20.105 -0.5562 -0.1842 -0.2853
 3879LEFL  Drug46760  16.983  17.467  20.044  0.2906  0.0609 -0.5553
 3879LEFL  Drug46761  16.850  17.648  20.245  0.0446 -0.6802 -0.0316
 3879LEFL  Drug46762  17.110  17.642  20.095  0.1607 -0.0326  0.1309
 3879LEFL  Drug46763  17.157  17.843  20.211 -0.1529  0.0326  0.1473
 3880LEFL  Drug46764  16.735  12.574  24.367  0.2367  0.2577 -0.2563
 3880LEFL  Drug46765  16.606  12.318  24.308 -0.1278  0.3435  0.1395
 3880LEFL  Drug46766  16.556  12.379  24.132  0.4973 -0.0581 -0.1946
 3880LEFL  Drug46767  16.530  12.471  23.906 -0.3073  0.0822 -0.0407
 3880LEFL  Drug46768  16.584  12.679  23.814 -0.4658 -0.0371  0.1329
 3880LEFL  Drug46769  16.609  12.768  24.100  0.1551  0.0651  0.0518
 3880LEFL  Drug46770  16.437  12.838  23.865 -0.2710  0.0717  0.3600
 3880LEFL  Drug46771  16.366  13.025  23.992 -0.0896  0.4805 -0.1217
 3881LEFL  Drug46772  20.494  15.976  21.663 -0.2075  0.4846  0.1539
 3881LEFL  Drug46773  20.303  15.919  21.878 -0.3418  0.1129 -0.0593
 3881LEFL  Drug46774  20.155  15.925  21.754 -0.2100 -0.2774 -0.2427
 3881LEFL  Drug46775  20.109  16.058  21.558  0.0818 -0.0962 -0.1082
 3881LEFL  Drug46776  19.899  16.155  21.441  0.2559  0.2060  0.0220
 3881LEFL  Drug46777  19.604  16.218  21.438  0.2280  0.0729 -0.0555
 3881LEFL  Drug46778  19.820  16.173  21.234  0.3285  0.2906  0.0017
 3881LEFL  Drug46779  19.644  16.221  21.082  0.1084  0.1040  0.1941
 3882LEFL  Drug46780  18.833  14.320  21.223 -0.7584 -0.2016 -0.1532
 3882LEFL  Drug46781  18.788  14.432  21.490 -0.0084 -0.1100 -0.0545
 3882LEFL  Drug46782  18.597  14.434  21.461 -0.0857  0.0254  0.4221
 3882LEFL  Drug46783  18.454  14.622  21.530 -0.1926 -0.0884  0.4415
 3882LEFL  Drug46784  18.268  14.750  21.407 -0.0777 -0.1825 -0.0045
 3882LEFL  Drug46785  18.136  14.999  21.512  0.1648 -0.0697  0.0358
 3882LEFL  Drug46786  18.060  14.772  21.330  0.0710  0.2287 -0.3028
 3882LEFL  Drug46787  17.843  14.867  21.342  0.1171  0.2827  0.2695
 3883LEFL  Drug46788  18.148  19.244  20.874 -0.0195 -0.0210  0.1476
 3883LEFL  Drug46789  18.435  19.187  20.901  0.0003  0.0041 -0.0066
 3883LEFL  Drug46790  18.397  19.023  20.996  0.0652 -0.0075 -0.0005
 3883LEFL  Drug46791  18.532  18.835  21.022  0.0057 -0.1925  0.2091
 3883LEFL  Drug46792  18.620  18.639  20.917 -0.5039  0.0464  0.0690
 3883LEFL  Drug46793  18.578  18.356  21.008 -0.2068  0.0025  0.0735
 3883LEFL  Drug46794  18.759  18.498  20.816  0.0278  0.2622  0.4804
 3883LEFL  Drug46795  18.867  18.287  20.807 -0.1296  0.1856  0.3654
 3884W        W46796   1.831   4.308  20.395 -0.1751  0.1029  0.1367
 3885W        W46797   1.464   0.585  16.397  0.3275 -0.0113 -0.2029
 3886W        W46798   2.039   0.590  16.225  0.0204 -0.1140  0.1129
 3887W        W46799   4.665   1.739  16.778 -0.5778  0.2240  0.1629
 3888W        W46800   0.223   2.172  17.349 -0.1858 -0.0867  0.4758
 3889W        W46801   0.865   2.361  16.967 -0.0048 -0.1047 -0.0828
 3890W        W46802  34.431   0.027  19.273  0.3856  0.1177  0.0978
 3891W        W46803   1.981   3.581  18.651  0.2787 -0.0759  0.0343
 3892W        W46804   3.410   3.634  19.558 -0.3841  0.2080 -0.0292
 3893W        W46805   1.641   1.701  17.290 -0.1782  0.0231  0.3117
 3894W        W46806   2.057   1.611  17.535 -0.0514  0.0501  0.0788
 3895W        W46807   1.861   3.134  18.984  0.0563 -0.0610 -0.2017
 3896W        W46808   0.974  33.974  16.820 -0.1037 -0.0333 -0.0726
 3897W        W46809   0.297  33.844  19.394 -0.0664 -0.1623 -0.1351
 3898W        W46810   3.060   2.610  18.180 -0.0244  0.0371 -0.3621
 3899W        W46811   1.074   1.573  16.555 -0.0138  0.0438  0.0327
 3900W        W46812   0.257   2.134  19.288  0.2011  0.1216 -0.2520
 3901W        W46813   0.993   1.272  17.006  0.1864  0.1615 -0.0839
 3902W        W46814   0.659   4.099  18.638  0.0544  0.1323 -0.0780
 3903W        W46815   2.211   1.252  19.366  0.1828  0.0185 -0.1268
 3904W        W46816   1.844  34.658  20.677 -0.0162  0.0363 -0.1323
 3905W        W46817   2.649   2.921  16.562  0.0963 -0.2866  0.1264
 3906W        W46818   0.199   0.434  16.887  0.1008  0.2488 -0.0086
 3907W        W46819  34.232   2.950  19.750  0.3749 -0.1841 -0.3288
 3908W        W46820   1.212   2.366  19.161  0.0523 -0.0750 -0.2978
 3909W        W46821   2.179   0.452  18.585  0.2928  0.1794  0.2220
 3910W        W46822   3.364   1.170  17.381  0.1610 -0.3690 -0.1677
 3911W        W46823   1.518   3.784  18.680  0.1605  0.2267 -0.1295
 3912W        W46824   2.010   4.381  17.775 -0.1514  0.2238  0.1910
 3913W        W46825   3.039   1.591  19.253 -0.3283 -0.0978  0.0687
 3914W        W46826  32.488   2.534  19.385  0.2995  0.0775  0.1137
 3915W        W46827   0.813   2.044  17.409  0.2480  0.0653  0.1845
 3916W        W46828   0.662   3.874  17.429  0.0480 -0.0432 -0.0303
 3917W        W46829   2.873   3.132  17.018  0.2939 -0.2875  0.2639
 3918W        W46830   4.138   2.440  19.607 -0.0935 -0.2419 -0.0242
 3919W        W46831   0.822   4.148  19.730 -0.0809 -0.0055 -0.1315
 3920W        W46832  34.265   2.966  17.794  0.0051 -0.1310  0.0694
 3921W        W46833   2.157   4.398  18.281  0.2584  0.2071  0.0555
 3922W        W46834   0.327   4.088  19.764 -0.0604  0.2956  0.0599
 3923W        W46835   4.095   1.944  19.830  0.0348  0.1822  0.0160
 3924W        W46836   1.279   1.283  17.826  0.0989  0.1311  0.3255
 3925W        W46837   1.897   2.751  16.306 -0.0066 -0.0754  0.1699
 3926W        W46838   2.746   2.571  16.951 -0.1679 -0.0008  0.1551
 3927W        W46839   1.390   1.893  19.108 -0.0655 -0.0079  0.4645
 3928W        W46840  34.684   2.432  19.049 -0.1527 -0.0047 -0.0074
 3929W        W46841   3.921   1.431  19.176 -0.2191  0.1871 -0.1522
 3930W        W46842   0.747   2.898  16.426  0.1953 -0.0129 -0.1135
 3931W        W46843   4.322   1.371  16.656 -0.0837  0.0610  0.0109
 3932W        W46844   3.276   0.464  16.928  0.0164  0.0451 -0.2015
 3933W        W46845   3.011   1.275  16.895 -0.1858 -0.3074  0.1619
 3934W        W46846   1.704   0.474  18.925 -0.1884 -0.0958  0.0607
 3935W        W46847   0.063   2.660  17.535 -0.0444 -0.0109 -0.0174
 3936W        W46848   1.682   1.270  18.245  0.1357 -0.0466  0.1006
 3937W        W46849   4.228   3.100  19.093  0.2139 -0.1771  0.1038
 3938W        W46850  34.648   1.840  16.270 -0.0734 -0.5374  0.0993
 3939W        W46851   4.164   1.279  17.808 -0.0055 -0.1073 -0.0921
 3940W        W46852   1.389   2.830  18.425  0.0617 -0.2708  0.0436
 3941W        W46853   0.103  34.615  19.757 -0.0638  0.0417 -0.1812
 3942W        W46854   3.839   3.408  16.377 -0.1615  0.0145  0.2998
 3943W        W46855   2.630   2.611  17.905  0.1403 -0.3241 -0.1326
 3944W        W46856   3.371   3.109  16.159 -0.1046  0.0066  0.1668
 3945W        W46857   0.070   2.098  18.281  0.1545  0.0970  0.1060
 3946W        W46858   1.343   1.360  19.974 -0.0078  0.1130 -0.0788
 3947W        W46859   1.445   0.489  19.754 -0.0883 -0.2635  0.1362
 3948W        W46860   1.054   0.866  16.437 -0.1129  0.2997  0.3611
 3949W        W46861   3.893   2.904  19.464  0.0362  0.1673 -0.3787
 3950W        W46862   0.723   3.274  18.997  0.0765 -0.1422 -0.1311
 3951W        W46863   3.489   1.409  16.932 -0.1235 -0.0916 -0.0335
 3952W        W46864   1.517   2.322  18.669  0.1340 -0.1625 -0.0105
 3953W        W46865   2.685   2.521  19.307 -0.2237 -0.0252 -0.1513
 3954W        W46866   2.433   2.143  15.985 -0.1026  0.0781  0.0456
 3955W        W46867   2.938   0.773  16.639 -0.2064  0.0215 -0.1035
 3956W        W46868   1.843   0.312  19.527  0.2275 -0.3074  0.3089
 3957W        W46869   1.179   2.116  16.475  0.0197 -0.2278  0.0652
 3958W        W46870   2.366   2.775  16.090 -0.0570 -0.0366 -0.0256
 3959W        W46871   2.822   3.613  17.899 -0.1996 -0.0223 -0.0309
 3960W        W46872   3.033   2.241  16.607  0.1012 -0.2209 -0.2454
 3961W        W46873   0.544   3.545  17.780  0.3941 -0.1128 -0.1931
 3962W        W46874   1.399   1.774  19.692 -0.0257 -0.1361  0.1912
 3963W        W46875   2.829   2.986  18.672 -0.2866 -0.3948  0.0395
 3964W        W46876   0.431   2.844  16.840  0.4384 -0.1957 -0.1571
 3965W        W46877   1.308   1.047  19.596 -0.0691 -0.0151  0.2729
 3966W        W46878   0.427   2.102  17.809 -0.1069  0.1876 -0.0922
 3967W        W46879   0.066   0.688  20.052  0.0837  0.3601 -0.4937
 3968W        W46880   1.639   2.519  17.746 -0.2646 -0.1886  0.1781
 3969W        W46881   3.956   1.121  16.809 -0.0149 -0.0555  0.0780
 3970W        W46882   0.238  34.529  19.221 -0.1129 -0.0758  0.1696
 3971W        W46883   2.462   0.034  18.655  0.1280 -0.0633  0.4015
 3972W        W46884   0.630   2.493  17.381  0.1601  0.0813  0.0583
 3973W        W46885   2.938   4.267  16.184  0.0028 -0.1528 -0.2916
 3974W        W46886   2.643   0.570  17.481 -0.2342  0.3180 -0.2079
 3975W        W46887   3.820   2.971  16.016  0.1809 -0.0408  0.0893
 3976W        W46888   0.316   1.556  19.021 -0.0987  0.1233 -0.0962
 3977W        W46889   1.223  33.761  17.592 -0.1557  0.0188 -0.0469
 3978W        W46890  34.579   1.141  20.251  0.0060 -0.2295  0.2232
 3979W        W46891   1.251   0.579  18.735  0.0709  0.3286 -0.3259
 3980W        W46892   3.505   1.586  18.309 -0.0905  0.3670  0.1868
 3981W        W46893   0.936   0.772  17.164 -0.0027  0.0627  0.1571
 3982W        W46894   2.700   1.560  17.928  0.1263 -0.1777 -0.2630
 3983W        W46895   2.232   2.090  16.812  0.1293  0.0830 -0.0023
 3984W        W46896  33.911   3.637  18.707 -0.0632  0.2706 -0.1486
 3985W        W46897   3.205   0.406  20.587  0.0231 -0.1731  0.0607
 3986W        W46898   2.404   4.892  18.335 -0.2667  0.3015  0.1925
 3987W        W46899   4.753   2.478  17.926  0.5660  0.1632  0.0937
 3988W        W46900   3.196   3.078  18.282  0.1747  0.3849 -0.0619
 3989W        W46901   1.248   0.939  19.046 -0.0647  0.0252 -0.0806
 3990W        W46902   1.415   1.254  16.407  0.3369  0.2146 -0.1717
 3991W        W46903  34.282   3.314  17.440 -0.0638  0.2599  0.3243
 3992W        W46904   1.547   2.940  16.758 -0.3543 -0.4974  0.3465
 3993W        W46905   0.551   0.758  16.843  0.1454  0.3168  0.2384
 3994W        W46906   1.759   2.227  19.105 -0.1439 -0.0329  0.2232
 3995W        W46907   2.116   2.483  17.636  0.1318  0.1884 -0.0260
 3996W        W46908   0.387   3.584  18.776 -0.1572  0.1723  0.1297
 3997W        W46909   2.673   0.381  19.246  0.2433 -0.2758 -0.0070
 3998W        W46910   6.192   2.055  18.782  0.2266 -0.0001  0.1153
 3999W        W46911   1.851   3.970  16.633  0.3554 -0.1332  0.2916
 4000W        W46912  33.774   1.007  16.957  0.0422 -0.1360  0.0192
 4001W        W46913   1.297   4.049  17.996 -0.2691 -0.2178 -0.2910
 4002W        W46914   1.043   1.974  17.883 -0.5383 -0.0004  0.0259
 4003W        W46915  33.962   1.033  18.471 -0.0673  0.0274  0.1120
 4004W        W46916   0.354   3.814  16.946 -0.0988 -0.0891  0.0047
 4005W        W46917   3.793   2.102  17.678  0.0153  0.1651  0.0129
 4006W        W46918   0.464   2.188  20.653 -0.1589 -0.1214 -0.0629
 4007W        W46919   2.822   1.571  19.761  0.2608  0.0098 -0.2980
 4008W        W46920   1.487   2.504  16.396 -0.1033 -0.1098  0.3490
 4009W        W46921   1.313   3.227  18.840  0.0607 -0.0062  0.3229
 4010W        W46922   2.468   0.265  16.279  0.0395 -0.3217 -0.0363
 4011W        W46923   4.528   1.516  16.130 -0.1107  0.0873 -0.0811
 4012W        W46924   2.318   2.822  19.438 -0.0764 -0.3101 -0.2812
 4013W        W46925   2.429   3.222  17.800  0.0821 -0.2762  0.0605
 4014W        W46926   1.447   1.708  15.885  0.1968 -0.1122 -0.2753
 4015W        W46927   2.915   1.818  17.512  0.3548 -0.1613 -0.2096
 4016W        W46928  34.272   1.368  19.970 -0.1776 -0.1756 -0.0350
 4017W        W46929   1.355   2.354  16.954  0.0175  0.1075 -0.2089
 4018W        W46930   3.291   4.055  19.847 -0.2499  0.0533 -0.0176
 4019W        W46931   0.370   0.695  17.342 -0.1754 -0.1032 -0.3042
 4020W        W46932   2.510   3.904  15.986 -0.1678  0.0152  0.1878
 4021W        W46933   1.498   1.720  17.784 -0.5969  0.0208 -0.1455
 4022W        W46934   3.461   3.817  18.988  0.0717 -0.1045  0.3590
 4023W        W46935   1.793   4.287  16.985 -0.1173 -0.2642 -0.0237
 4024W        W46936   1.343   0.613  17.315  0.1179 -0.5415 -0.2357
 4025W        W46937   0.765   2.173  16.032  0.2930  0.1363  0.1846
 4026W        W46938   2.168   0.521  17.136 -0.2219 -0.4539 -0.0178
 4027W        W46939   0.114   3.642  16.512 -0.0282  0.2471 -0.0094
 4028W        W46940   2.916   1.305  17.563 -0.2405  0.2134 -0.2592
 4029W        W46941   3.457   0.828  18.742  0.1433 -0.3690  0.0714
 4030W        W46942   2.087  34.562  20.211 -0.2122 -0.0950 -0.2348
 4031W        W46943   1.848   1.929  18.479  0.0642 -0.3694 -0.2435
 4032W        W46944   2.397   1.586  16.498 -0.0414 -0.0316 -0.0195
 4033W        W46945   2.795   1.807  18.731  0.0452  0.0137  0.1956
 4034W        W46946  34.355   1.680  17.285 -0.0516 -0.2611 -0.1592
 4035W        W46947   2.514   0.884  19.023  0.1257 -0.3014  0.0009
 4036W        W46948   0.722   0.776  19.546 -0.0359 -0.2618  0.0730
 4037W        W46949   0.920   3.332  18.573 -0.1447 -0.2458  0.1522
 4038W        W46950   2.994   3.463  18.446  0.0858  0.2550 -0.1097
 4039W        W46951   2.743   2.030  18.271 -0.1062  0.2200  0.1391
 4040W        W46952   1.744   1.410  19.576 -0.2672 -0.2127  0.3033
 4041W        W46953   1.738   0.605  16.843  0.0081  0.1970 -0.1609
 4042W        W46954  34.627   3.432  17.025 -0.0332 -0.1792  0.0769
 4043W        W46955   0.298   2.182  16.291  0.1897 -0.1248 -0.0051
 4044W        W46956   1.226   0.011  18.206  0.1553 -0.0269 -0.2530
 4045W        W46957   1.468   3.171  19.322  0.1348 -0.2071  0.2655
 4046W        W46958   1.917   3.496  16.890  0.2433 -0.0755  0.0072
 4047W        W46959   3.220   2.008  18.509  0.2097 -0.0271 -0.1887
 4048W        W46960   2.291   2.952  18.628 -0.0182  0.2085  0.0567
 4049W        W46961   2.690   2.355  17.414  0.0081  0.1683  0.4184
 4050W        W46962  34.236   1.703  18.554 -0.2080 -0.3201  0.2934
 4051W        W46963   0.859   1.190  16.163 -0.1108  0.0382 -0.0739
 4052W        W46964  34.511   2.515  18.041  0.1957 -0.1819  0.3316
 4053W        W46965   3.595   2.466  17.338  0.1883  0.0922  0.2609
 4054W        W46966   3.295   2.488  16.253 -0.1200  0.2848  0.0017
 4055W        W46967  33.866   2.475  18.604 -0.0533 -0.4574  0.3654
 4056W        W46968   2.490   1.110  16.932 -0.1503  0.0977 -0.0035
 4057W        W46969  33.578   3.297  20.603  0.0717  0.0494 -0.2134
 4058W        W46970   3.451   0.696  19.642  0.0581 -0.3319 -0.0858
 4059W        W46971   3.959  34.521  16.264  0.0894  0.2380  0.2944
 4060W        W46972   2.858   2.810  20.086  0.0418 -0.2280  0.0517
 4061W        W46973   1.487   2.785  18.978  0.0921 -0.1439 -0.1155
 4062W        W46974   0.422   0.166  17.367  0.0392 -0.2436 -0.0098
 4063W        W46975   3.935   2.326  18.165  0.1845 -0.3040 -0.0185
 4064W        W46976   1.163   1.618  17.435  0.1429  0.1687 -0.0819
 4065W        W46977   0.517   3.234  18.210 -0.2108  0.3309  0.0143
 4066W        W46978   2.340   3.961  18.742 -0.0635 -0.3752  0.1926
 4067W        W46979   0.733   1.731  17.018 -0.5996  0.0371  0.2528
 4068W        W46980   0.550   2.025  19.799  0.3069 -0.4680  0.2437
 4069W        W46981   1.366   2.715  19.509 -0.2079  0.2256 -0.2215
 4070W        W46982   3.212   1.968  19.001 -0.0926  0.3242 -0.0401
 4071W        W46983   1.909  34.671  18.489  0.0522 -0.1800  0.1193
 4072W        W46984   1.023   1.772  16.115 -0.0677 -0.1818  0.1914
 4073W        W46985   1.221   1.881  16.939 -0.0808 -0.2569 -0.0320
 4074W        W46986   1.890   2.051  17.757 -0.0707 -0.0324 -0.4290
 4075W        W46987   2.908   2.382  18.670  0.1269  0.0871 -0.2553
 4076W        W46988   0.274   3.547  19.668 -0.0639 -0.0620 -0.2443
 4077W        W46989   1.681  34.199  19.487 -0.2155  0.0176 -0.0498
 4078W        W46990   2.625   4.220  16.648  0.4241 -0.4410 -0.0063
 4079W        W46991   1.537   2.249  19.574  0.0499 -0.0504  0.0201
 4080W        W46992   0.265   2.679  16.418  0.3220 -0.0046  0.2341
 4081W        W46993  33.375   1.524  19.171 -0.2516 -0.0648 -0.0532
 4082W        W46994   1.502   2.124  18.130  0.2448 -0.1449  0.0110
 4083W        W46995   3.604  34.632  19.150  0.2701  0.1097 -0.4798
 4084W        W46996   0.534   1.475  19.483 -0.3569  0.0840  0.2655
 4085W        W46997   0.423   3.335  16.894  0.0789 -0.1162 -0.0364
 4086W        W46998  34.474   2.657  19.440  0.2078  0.1382  0.0975
 4087W        W46999   1.842   0.727  17.485  0.0576 -0.1606  0.3023
 4088W        W47000   2.993   2.835  16.035  0.1959  0.1089  0.2322
 4089W        W47001   2.309   1.951  17.286 -0.1101 -0.3402  0.0554
 4090W        W47002   3.930   1.880  18.530  0.2614  0.1666 -0.1531
 4091W        W47003   3.606   1.226  16.436 -0.3287 -0.2401 -0.3614
 4092W        W47004   3.512   2.014  19.866 -0.1038  0.0352 -0.0365
 4093W        W47005  34.671   0.451  19.616 -0.0910 -0.0425 -0.3354
 4094W        W47006   3.421   5.108  17.543  0.0549  0.1142  0.2558
 4095W        W47007   1.912   0.305  20.056  0.2078  0.0678  0.0817
 4096W        W47008   1.621   4.278  19.577  0.1088  0.3228 -0.2340
 4097W        W47009   1.126   0.790  19.957 -0.0498  0.2570 -0.4333
 4098W        W47010   2.581   1.578  17.037 -0.0127  0.1256  0.3016
 4099W        W47011   1.736   0.247  17.191 -0.0847 -0.1194  0.1136
 4100W        W47012   1.195   0.757  17.803  0.2305 -0.0622 -0.0579
 4101W        W47013   2.626   3.528  18.834  0.0047  0.0613  0.2520
 4102W        W47014   2.363   3.022  16.996  0.2539  0.0219  0.0611
 4103W        W47015   3.383   0.930  16.849  0.0862 -0.2148 -0.0322
 4104W        W47016   1.100   1.413  19.329  0.0289 -0.1129  0.0617
 4105W        W47017   1.384   2.099  17.426  0.1186  0.1373 -0.2049
 4106W        W47018   2.043   2.409  15.916  0.0324 -0.2436 -0.5606
 4107W        W47019   0.736   2.385  16.478 -0.3011 -0.3130  0.3292
 4108W        W47020   0.409   0.436  19.842  0.1393 -0.1545 -0.2502
 4109W        W47021   2.929   2.820  17.493  0.1088  0.1002 -0.0737
 4110W        W47022   3.516   0.854  17.803 -0.1124 -0.2457 -0.0207
 4111W        W47023   2.362   1.748  19.417  0.1601  0.0098 -0.1853
 4112W        W47024   4.271   2.151  18.841 -0.1393 -0.1129  0.0810
 4113W        W47025   1.638   2.316  20.059  0.0231 -0.0355 -0.3456
 4114W        W47026   0.648   0.886  20.213  0.2966 -0.0550 -0.0834
 4115W        W47027   2.546   3.888  17.342 -0.0010  0.0587 -0.2862
 4116W        W47028   4.707   1.101  16.463  0.0748 -0.0701  0.0696
 4117W        W47029   3.995   0.800  17.974 -0.3154 -0.0420 -0.0046
 4118W        W47030   3.326   1.857  16.552 -0.0265 -0.2908  0.1169
 4119W        W47031   2.769   1.593  16.129 -0.2321  0.2529  0.3428
 4120W        W47032   1.057   1.331  18.706  0.0523  0.1747 -0.0982
 4121W        W47033   3.378   2.765  20.119 -0.1302  0.1269 -0.2806
 4122W        W47034   1.867   1.530  16.118 -0.1615  0.0243 -0.1324
 4123W        W47035   3.323   1.548  18.798 -0.3546 -0.0168  0.1298
 4124W        W47036   2.130   3.614  16.401 -0.1838 -0.0582 -0.0777
 4125W        W47037   1.587   3.590  19.129  0.1063  0.2302 -0.2184
 4126W        W47038   1.574   1.429  16.880  0.1816  0.1337  0.1113
 4127W        W47039  32.947   0.762  19.686 -0.2077 -0.0697 -0.3879
 4128W        W47040   0.222   3.728  19.251  0.1066 -0.2474  0.0694
 4129W        W47041  33.842   0.923  17.498  0.0908  0.1932  0.0701
 4130W        W47042   2.866   1.684  16.631  0.1313  0.0502  0.1728
 4131W        W47043   1.979   2.587  18.783  0.0187 -0.0088 -0.0013
 4132W        W47044   3.557   2.668  18.200  0.0915  0.0445  0.0579
 4133W        W47045   1.243   0.465  16.844  0.1869  0.3104  0.2899
 4134W        W47046   2.239   2.105  18.733 -0.0438 -0.1447 -0.1871
 4135W        W47047  34.653   2.966  17.172  0.0075 -0.0895 -0.0894
 4136W        W47048   2.843   0.931  17.216  0.1203 -0.0413  0.0240
 4137W        W47049   1.004   3.271  18.062 -0.1278  0.0013 -0.2148
 4138W        W47050   0.225   1.785  20.527 -0.0767  0.1774 -0.4600
 4139W        W47051   1.076   3.706  18.872  0.0467  0.1813 -0.0087
 4140W        W47052   1.519  34.625  19.221  0.2281  0.0275 -0.0741
 4141W        W47053   4.389   1.678  18.327 -0.3312 -0.0925 -0.1471
 4142W        W47054   2.224   2.846  18.083  0.0404 -0.0103  0.4502
 4143W        W47055   3.849   3.380  18.915 -0.1353 -0.1838 -0.1333
 4144W        W47056   2.898   3.816  19.566 -0.1748  0.0732  0.0939
 4145W        W47057   1.067   2.358  18.294  0.0681  0.0416 -0.0195
 4146W        W47058   2.841   4.351  19.555 -0.0553  0.2032 -0.3454
 4147W        W47059   3.136   2.808  16.609 -0.0913 -0.0941 -0.0984
 4148W        W47060   0.840   1.720  18.422 -0.2296  0.0709  0.2616
 4149W        W47061   0.116   0.812  20.588  0.0114  0.0298 -0.1565
 4150W        W47062   2.154   2.251  18.194  0.1847 -0.1686  0.4118
 4151W        W47063   1.964   3.430  18.078 -0.0010  0.1913  0.1372
 4152W        W47064   1.846  34.156  18.413  0.0389 -0.0486  0.2074
 4153W        W47065   2.028   3.042  17.642 -0.0960 -0.0197  0.0287
 4154W        W47066  34.125   4.229  20.758 -0.2858  0.3524  0.3434
 4155W        W47067  33.208   1.576  17.350 -0.1701  0.0092  0.2876
 4156W        W47068  33.911   4.450  16.965 -0.0865  0.1829 -0.0900
 4157W        W47069   3.494   2.112  18.112  0.1685 -0.1998  0.0128
 4158W        W47070   1.870   2.200  17.260 -0.2789 -0.0201 -0.0974
 4159W        W47071   1.914   5.543  17.523 -0.1663  0.1151  0.0541
 4160W        W47072   0.997   0.285  16.433 -0.0900  0.4422 -0.1258
 4161W        W47073   0.144   2.919  18.316 -0.0927  0.0443 -0.0077
 4162W        W47074  34.097   2.064  17.004 -0.0716 -0.0703 -0.3597
 4163W        W47075   2.272   2.459  17.132  0.1698  0.2510  0.2262
 4164W        W47076   0.624   1.676  17.991  0.2952 -0.0804 -0.2739
 4165W        W47077   5.124   3.109  20.220  0.0563 -0.0317 -0.3102
 4166W        W47078   3.540  34.204  15.895 -0.0627 -0.0787  0.1632
 4167W        W47079   2.568   2.076  16.439 -0.2919  0.0904  0.1368
 4168W        W47080   3.070   1.199  16.396 -0.2163 -0.1772 -0.1046
 4169W        W47081   3.825   2.914  19.981 -0.0759 -0.0785  0.2188
 4170W        W47082   2.348   1.752  18.404  0.0517  0.1660 -0.1458
 4171W        W47083   1.412   0.938  16.840 -0.1441  0.1612 -0.0821
 4172W        W47084   1.687   0.388  18.452 -0.0973  0.0223  0.0041
 4173W        W47085   3.431   1.235  19.212 -0.2766  0.0566 -0.1579
 4174W        W47086  33.674   3.886  19.121 -0.0886 -0.0917 -0.0851
 4175W        W47087   2.493   3.496  15.762  0.1697  0.1676  0.0268
 4176W        W47088  34.656   1.159  17.401  0.0015 -0.0929  0.0666
 4177W        W47089   2.585   3.471  19.392  0.2202  0.1429 -0.1433
 4178W        W47090   3.046   1.145  18.925 -0.2308  0.0717  0.0778
 4179W        W47091   3.272   1.679  15.619 -0.1207  0.0262  0.0852
 4180W        W47092   2.293   0.976  17.420 -0.2947 -0.2199  0.0485
 4181W        W47093   1.438   3.392  18.387  0.2434 -0.0768  0.1519
 4182W        W47094   0.712   2.709  18.422 -0.0391  0.0299 -0.0055
 4183W        W47095   1.800   4.032  18.301  0.0701  0.2517 -0.2513
 4184W        W47096  34.667   0.862  16.540  0.0867 -0.1539 -0.1823
 4185W        W47097   2.703   1.405  18.454  0.0234 -0.3742  0.0974
 4186W        W47098   1.556   1.401  18.960 -0.1927  0.1798 -0.0163
 4187W        W47099   2.794   0.235  19.685  0.1012  0.1644 -0.0250
 4188W        W47100   0.170   2.529  18.587  0.2490 -0.1197 -0.1902
 4189W        W47101   3.170   1.742  17.042  0.0228 -0.0949  0.2341
 4190W        W47102   2.155   3.604  19.130 -0.1699 -0.0230 -0.0187
 4191W        W47103   0.551   0.127  18.932  0.1704 -0.0146 -0.1808
 4192W        W47104   0.614   1.419  16.650  0.1688  0.0528 -0.0119
 4193W        W47105   3.916   2.422  20.027 -0.1483  0.0806  0.0963
 4194W        W47106   2.593   2.692  15.654 -0.1799 -0.0171  0.1035
 4195W        W47107   2.213   3.650  20.299 -0.1965 -0.0935  0.2321
 4196W        W47108   1.202   0.571  18.259 -0.0592 -0.3001 -0.0188
 4197W        W47109   2.458   1.972  17.806  0.1976  0.1040  0.3598
 4198W        W47110   0.678   1.165  19.080  0.2087  0.0399  0.0875
 4199W        W47111   2.411   1.468  18.864  0.0494 -0.2638  0.2696
 4200W        W47112   3.555   3.393  18.474  0.0485  0.0352 -0.3576
 4201W        W47113   0.687   1.545  17.495  0.0419  0.0678  0.0264
 4202W        W47114   3.635   2.155  16.302  0.1590 -0.0037  0.0108
 4203W        W47115   3.976   1.756  18.036 -0.1445 -0.1963 -0.0088
 4204W        W47116   1.127   2.649  16.664  0.1351  0.0370  0.1564
 4205W        W47117   2.291   3.490  17.225  0.4816  0.2277 -0.0884
 4206W        W47118   2.328   4.900  17.833  0.1245 -0.1716  0.0339
 4207W        W47119  33.802   2.602  19.790  0.0101 -0.0227 -0.0128
 4208W        W47120   3.354   4.563  19.663  0.1727 -0.2696  0.0850
 4209W        W47121   2.438   2.847  17.449  0.1665 -0.2452  0.1825
 4210W        W47122   3.143   1.707  17.997 -0.1187  0.0479 -0.3244
 4211W        W47123   1.281   1.610  18.245 -0.2239  0.0038  0.0850
 4212W        W47124  34.161   2.090  18.864  0.0805 -0.2733 -0.0649
 4213W        W47125   3.236   2.339  17.708  0.0161  0.0819  0.2681
 4214W        W47126   3.199   1.177  18.435 -0.1108  0.1349 -0.0472
 4215W        W47127   1.122   3.940  16.600 -0.0534 -0.2335 -0.1191
 4216W        W47128   3.711   1.309  18.681  0.0257 -0.1715  0.4549
 4217W        W47129   1.879   4.026  18.884  0.2522  0.0682  0.2882
 4218W        W47130   2.095   4.367  19.480 -0.1550  0.2161 -0.2302
 4219W        W47131   0.331   1.810  16.731 -0.0484 -0.0702  0.4090
 4220W        W47132   1.022   2.609  18.761  0.0961  0.4972 -0.2028
 4221W        W47133   1.870   3.089  18.469  0.1643 -0.2255 -0.0583
 4222W        W47134   1.727   2.012  16.791  0.1350  0.3537  0.3858
 4223W        W47135   2.034   1.377  18.611 -0.1448  0.1137 -0.2415
 4224W        W47136   1.912   1.217  17.784 -0.1771 -0.1226 -0.3217
 4225W        W47137   3.281   3.678  16.211 -0.3427 -0.0492 -0.0416
 4226W        W47138   1.437   1.223  17.333 -0.0287 -0.0123 -0.0228
 4227W        W47139   3.773   0.206  17.224  0.1296  0.0368  0.0221
 4228W        W47140   2.581   1.043  16.344  0.0523  0.0901  0.2029
 4229W        W47141   2.049   1.681  18.022 -0.0849 -0.0260  0.0627
 4230W        W47142   0.199   1.622  17.724 -0.1190 -0.1079 -0.1032
 4231W        W47143   0.574   2.703  15.984  0.1028  0.0121  0.0575
 4232W        W47144   1.828   2.696  19.395 -0.0473  0.0813  0.0409
 4233W        W47145   1.471  33.265  21.068  0.4180 -0.0814 -0.1273
 4234W        W47146   2.185   2.921  20.018 -0.4673 -0.4565 -0.0823
 4235W        W47147  34.249   2.720  17.331  0.0061 -0.0784 -0.0393
 4236W        W47148   2.034   0.897  18.841  0.4617  0.0340 -0.0494
 4237W        W47149   3.949   2.217  16.767  0.0941  0.1327 -0.1218
 4238W        W47150   0.900   0.335  19.592 -0.0501  0.1865  0.1487
 4239W        W47151   0.540   1.380  18.549  0.1629 -0.1496  0.0838
 4240W        W47152   2.314   1.283  18.163  0.0112 -0.0545 -0.3210
 4241W        W47153   2.741   3.799  16.399 -0.2410  0.1941  0.1742
 4242W        W47154   2.243   0.798  17.863  0.0274 -0.0973 -0.0348
 4243W        W47155   2.474   3.443  18.311  0.2225  0.0927 -0.0430
 4244W        W47156  33.745   2.384  16.849 -0.0669 -0.3123 -0.1426
 4245W        W47157   2.081   0.670  19.273  0.1251  0.1811  0.0731
 4246W        W47158   2.080   1.682  20.465  0.0377 -0.3565 -0.2495
 4247W        W47159   0.379  34.632  16.807  0.0507 -0.0588  0.2111
 4248W        W47160   2.061   0.170  19.003  0.2914  0.0552 -0.1825
 4249W        W47161   0.694   2.930  17.833  0.1616  0.0981  0.0600
 4250W        W47162   2.232   4.151  15.673 -0.0897  0.0142  0.1678
 4251W        W47163   1.928   3.874  19.439 -0.1159 -0.0676 -0.0009
 4252W        W47164   1.594   3.585  19.635 -0.1352 -0.1240 -0.0294
 4253W        W47165   1.371  34.691  19.700  0.1338 -0.2920 -0.2272
 4254W        W47166   2.717   2.061  16.975  0.0001 -0.0153  0.3461
 4255W        W47167  34.699   3.321  18.515  0.1528  0.0627 -0.0531
 4256W        W47168   3.788   2.669  16.453 -0.2914  0.2406  0.0131
 4257W        W47169   1.987   1.686  19.051 -0.1895 -0.3042  0.1404
 4258W        W47170   2.104   1.609  16.997 -0.1781 -0.5004 -0.2861
 4259W        W47171   0.215  33.518  18.972 -0.0360 -0.0907  0.0367
 4260W        W47172  34.617   1.780  20.131  0.2230 -0.1751 -0.1348
 4261W        W47173   2.460   2.547  18.429 -0.5483  0.0964 -0.0039
 4262W        W47174   1.517   0.358  17.730  0.0046 -0.0595 -0.1383
 4263W        W47175   2.093   0.859  18.308  0.0028  0.0786  0.3101
 4264W        W47176   2.631   4.088  17.842  0.2294  0.1803 -0.4285
 4265W        W47177   0.202   1.624  18.295 -0.0709 -0.0718 -0.0870
 4266W        W47178   1.901   1.165  17.211  0.2189  0.0678  0.0465
 4267W        W47179   2.295  33.804  18.789 -0.0190  0.2061 -0.1419
 4268W        W47180   2.442   2.505  18.913 -0.1304  0.1848  0.3145
 4269W        W47181   2.023   2.311  19.768 -0.0051 -0.0413 -0.0087
 4270W        W47182   1.631   2.615  17.254  0.0572  0.1688  0.0317
 4271W        W47183   4.151   2.206  15.814 -0.1095 -0.4270  0.2776
 4272W        W47184   3.065   4.073  18.114  0.0164 -0.0615  0.0831
 4273W        W47185   2.428   4.035  19.287  0.0161  0.0958  0.1335
 4274W        W47186   2.152   5.460  18.016 -0.2177  0.0824 -0.1431
 4275W        W47187   2.723   3.032  18.141  0.0909 -0.0479  0.2801
 4276W        W47188  34.525  33.672  19.334  0.2907 -0.4065 -0.2571
 4277W        W47189   1.176   2.574  17.490 -0.1846 -0.0961  0.1468
 4278W        W47190   0.807   2.424  17.856 -0.1114  0.1078 -0.0691
 4279W        W47191   3.300   0.045  18.095  0.3009 -0.0739 -0.1372
 4280W        W47192   0.816   1.663  18.932  0.2117  0.2619  0.0222
 4281W        W47193   2.801   1.053  18.111  0.1796  0.0162  0.2035
 4282W        W47194   1.264   3.905  19.439 -0.1271  0.1381  0.1416
 4283W        W47195   2.630   2.099  19.069  0.2263 -0.1955 -0.1597
 4284W        W47196   0.549   1.740  23.615 -0.0932 -0.0888  0.0501
 4285W        W47197   1.490   2.213  20.924 -0.1538  0.0812  0.2342
 4286W        W47198   2.504  34.564  20.599 -0.0009 -0.1631  0.1259
 4287W        W47199   2.202   1.192  20.589  0.0586 -0.0073 -0.0187
 4288W        W47200  34.011   0.813  23.290 -0.3987 -0.0875  0.0258
 4289W        W47201   1.713   5.660  20.020 -0.1896  0.0408  0.2260
 4290W        W47202   1.663   0.202  22.135 -0.0980  0.0690  0.1649
 4291W        W47203   2.878   5.346  21.897  0.1946 -0.0781 -0.1936
 4292W        W47204   3.663   2.611  22.142 -0.2128  0.1831 -0.4351
 4293W        W47205   1.933   2.627  20.329 -0.2500  0.0446  0.4057
 4294W        W47206   0.318   0.123  20.955 -0.1816 -0.0388  0.4273
 4295W        W47207   0.322   3.174  21.356 -0.3434 -0.0981  0.2432
 4296W        W47208   2.825   0.695  21.488  0.0235 -0.2312 -0.1369
 4297W        W47209  34.601   1.167  22.006 -0.3646 -0.3541  0.0458
 4298W        W47210   1.714   2.575  21.628 -0.1751 -0.0921  0.1837
 4299W        W47211   0.614   2.121  21.286  0.0214 -0.1626 -0.1608
 4300W        W47212   0.955   2.705  22.296 -0.1648 -0.1165 -0.2660
 4301W        W47213   1.167  34.573  21.410  0.1182  0.0761  0.3310
 4302W        W47214   2.251   2.906  21.011  0.0502  0.4611  0.1169
 4303W        W47215   2.558   2.741  23.315  0.2628  0.0170 -0.0324
 4304W        W47216   2.008   0.156  22.475  0.0677  0.0075 -0.0730
 4305W        W47217   2.363   3.817  19.780  0.0403  0.3418 -0.0757
 4306W        W47218   0.230   2.162  20.180  0.3107 -0.0722  0.2038
 4307W        W47219   1.148   0.839  22.028 -0.1484  0.2766  0.2468
 4308W        W47220   1.162   1.381  22.149  0.1531 -0.2707 -0.1035
 4309W        W47221   1.833   0.872  21.523  0.0446 -0.2579  0.0740
 4310W        W47222   2.741   2.004  20.225 -0.1377  0.0655 -0.1850
 4311W        W47223   0.863   2.850  21.795  0.1488  0.2238  0.0072
 4312W        W47224   2.422   3.915  21.850 -0.0430  0.0160  0.0381
 4313W        W47225   2.408   1.111  21.355  0.3036  0.1168 -0.2201
 4314W        W47226  33.695   2.481  21.586  0.0672 -0.1508 -0.1658
 4315W        W47227  34.518   2.152  21.852 -0.0584 -0.1593  0.3271
 4316W        W47228   1.402   3.859  21.585 -0.0325 -0.0039 -0.0661
 4317W        W47229   2.777   4.363  20.607  0.1252  0.1742  0.0042
 4318W        W47230   3.390   4.015  22.871  0.2194 -0.2352 -0.2962
 4319W        W47231   1.704   3.761  22.618  0.1681 -0.1316  0.3017
 4320W        W47232   0.040   2.195  19.729 -0.0151  0.1768  0.0004
 4321W        W47233   1.650   4.190  21.922 -0.2393 -0.0755 -0.1742
 4322W        W47234   0.886   3.401  22.958 -0.1925 -0.2032  0.0512
 4323W        W47235   1.051   1.854  21.146 -0.0726 -0.1262 -0.4997
 4324W        W47236   1.438   2.672  21.094  0.2903  0.0971  0.0881
 4325W        W47237   1.786   3.859  20.261 -0.2207 -0.1307 -0.1469
 4326W        W47238   1.801   2.846  20.758 -0.1480 -0.2216 -0.0084
 4327W        W47239   0.115   2.104  22.924 -0.1585  0.0868 -0.0774
 4328W        W47240  34.047   1.954  21.989 -0.1025  0.0535  0.3811
 4329W        W47241   2.648   0.053  23.676  0.0619 -0.0354  0.1992
 4330W        W47242   0.593   3.166  19.444  0.0549 -0.0119  0.1174
 4331W        W47243   3.248   3.382  18.885 -0.1114 -0.0265 -0.1063
 4332W        W47244   0.766   2.078  19.233  0.1634 -0.2811  0.0897
 4333W        W47245   4.125   1.895  19.340 -0.0712  0.3207 -0.1976
 4334W        W47246   0.782   0.653  21.624 -0.0025  0.0882 -0.2351
 4335W        W47247   2.732   3.518  21.811  0.1751 -0.0349  0.0338
 4336W        W47248   0.826  34.015  21.353  0.2290 -0.3203  0.3059
 4337W        W47249   1.957   3.315  21.055  0.0620 -0.0020  0.0283
 4338W        W47250   0.954   2.829  21.096 -0.3063 -0.0421  0.3160
 4339W        W47251   0.367   0.921  21.989  0.1945 -0.0616 -0.1190
 4340W        W47252  33.982   3.906  22.074 -0.0206 -0.1196  0.0588
 4341W        W47253   1.118   1.991  21.727  0.1104  0.1085 -0.2308
 4342W        W47254   3.126   4.116  20.348 -0.0516 -0.4192  0.0796
 4343W        W47255   2.119   4.683  20.171  0.2163 -0.0709  0.2619
 4344W        W47256   0.435   3.734  20.118 -0.1382 -0.2896 -0.1940
 4345W        W47257   0.067   3.061  19.610 -0.0353 -0.0210  0.0882
 4346W        W47258   0.960   1.256  23.374  0.1298  0.0650  0.0141
 4347W        W47259   1.111   2.100  23.984  0.0291 -0.2686  0.0718
 4348W        W47260   0.930  34.483  19.638 -0.1428 -0.1555 -0.1149
 4349W        W47261   4.042   2.742  24.397  0.3507  0.0031 -0.1219
 4350W        W47262   0.460   3.015  24.153  0.0273  0.0968 -0.0439
 4351W        W47263   4.276   1.171  19.815 -0.0891 -0.1690  0.2171
 4352W        W47264   0.747   2.341  21.737  0.2058  0.1584  0.4184
 4353W        W47265   2.343   2.132  22.046  0.0312 -0.0257 -0.0906
 4354W        W47266   2.220   2.219  19.293  0.1548  0.0226  0.0345
 4355W        W47267   1.421  34.464  22.866 -0.0353  0.0385 -0.0223
 4356W        W47268   2.506  34.477  22.324 -0.0823  0.0993  0.2929
 4357W        W47269   0.752   1.921  20.346  0.1725  0.2475 -0.0800
 4358W        W47270   1.294   2.668  20.009  0.4501 -0.0444 -0.2905
 4359W        W47271   2.982   2.099  21.089  0.1857  0.0681  0.1878
 4360W        W47272   3.968   2.506  20.532 -0.1387  0.1930 -0.4427
 4361W        W47273  34.386   4.023  20.425  0.2778 -0.1168 -0.0325
 4362W        W47274   2.584   1.931  22.940  0.1109  0.1775 -0.1469
 4363W        W47275   1.116   2.211  22.181 -0.0717  0.0462  0.2207
 4364W        W47276   0.545   4.293  20.245  0.1255  0.1120  0.1308
 4365W        W47277  34.286   3.152  22.552  0.0761 -0.1475  0.2062
 4366W        W47278   0.767   3.559  20.493 -0.1698 -0.0989  0.0050
 4367W        W47279   0.502  34.575  22.329 -0.0065 -0.3245 -0.0286
 4368W        W47280   0.622   1.559  21.349  0.0507 -0.0540  0.0477
 4369W        W47281   2.881   0.291  22.372  0.0607 -0.3072  0.0292
 4370W        W47282  34.578   1.755  24.318 -0.0617 -0.0069 -0.1629
 4371W        W47283   2.448   1.947  19.855  0.2144 -0.4350 -0.1066
 4372W        W47284   0.590   3.629  22.484 -0.0092 -0.0891  0.1937
 4373W        W47285   3.695   4.086  19.490 -0.0050  0.0038  0.1206
 4374W        W47286   3.022   2.783  19.595 -0.2005 -0.0816  0.2067
 4375W        W47287   3.013   3.408  19.856 -0.0899 -0.0150 -0.2587
 4376W        W47288  34.513  34.188  22.097  0.0643 -0.0657  0.0309
 4377W        W47289   0.425   0.408  20.498  0.0401  0.0111 -0.1120
 4378W        W47290  34.697  34.342  23.785 -0.1176  0.1347  0.0020
 4379W        W47291  34.217   1.435  23.957  0.0056 -0.2820  0.0998
 4380W        W47292   2.159   1.052  21.895  0.0643 -0.1337 -0.0259
 4381W        W47293   0.864   0.437  21.031  0.1751 -0.0232 -0.0115
 4382W        W47294   2.207   1.526  19.844 -0.0464 -0.1860 -0.2679
 4383W        W47295  34.607   2.662  19.997 -0.4892 -0.1588 -0.0606
 4384W        W47296  32.794   2.602  20.899 -0.1448  0.0729 -0.2381
 4385W        W47297   2.449  33.997  23.489 -0.0334 -0.0927 -0.0615
 4386W        W47298   1.977   4.111  19.884  0.1383  0.0654  0.0630
 4387W        W47299   2.868   2.787  22.224  0.0162  0.0174  0.0914
 4388W        W47300   2.320   5.244  20.326  0.3638  0.3411 -0.1807
 4389W        W47301   0.130   2.403  22.460  0.3489 -0.1356  0.1571
 4390W        W47302   1.138   1.375  21.518 -0.0407  0.0331  0.0402
 4391W        W47303  34.449   3.517  22.939 -0.1108  0.1097  0.1547
 4392W        W47304   1.709   2.616  22.679  0.1894  0.0706 -0.1908
 4393W        W47305   1.731   0.911  20.658 -0.2851  0.1610  0.2311
 4394W        W47306   3.766   4.716  21.659  0.1452  0.3449  0.1713
 4395W        W47307   2.587   3.256  20.220 -0.0468 -0.0094 -0.0468
 4396W        W47308   0.459   1.414  22.249 -0.2553  0.4493 -0.0956
 4397W        W47309   2.989  34.455  22.368 -0.2117 -0.2437 -0.2231
 4398W        W47310   2.986   2.229  22.927 -0.1207 -0.2052 -0.0207
 4399W        W47311   1.527   1.018  22.372  0.0942 -0.2099  0.0192
 4400W        W47312   0.575  34.634  20.040 -0.1845 -0.2063 -0.1338
 4401W        W47313   2.290   4.510  21.870  0.2615 -0.0252 -0.0327
 4402W        W47314  34.140   2.629  20.292  0.1476 -0.2143  0.2121
 4403W        W47315  34.350   1.123  23.297 -0.1635  0.1659 -0.2142
 4404W        W47316   1.174   2.128  20.195 -0.0232 -0.0535 -0.1054
 4405W        W47317   1.380   1.116  21.184  0.1341 -0.1041  0.0703
 4406W        W47318  34.307   2.398  23.679 -0.1544 -0.0320 -0.0844
 4407W        W47319   2.174   1.752  24.745  0.0377  0.1588  0.1072
 4408W        W47320   0.361   1.241  20.404  0.2693 -0.3008  0.1829
 4409W        W47321   1.293   2.934  22.610  0.0178 -0.1108 -0.1172
 4410W        W47322   2.992   1.121  20.171  0.0819  0.3049 -0.0247
 4411W        W47323   3.372   1.511  19.971  0.1046 -0.1192  0.0599
 4412W        W47324   2.413   2.406  22.891 -0.3168  0.2643  0.0877
 4413W        W47325   3.023   2.193  20.610 -0.0887 -0.0337  0.1184
 4414W        W47326   1.881   1.905  19.474 -0.0688  0.1884  0.2253
 4415W        W47327   0.512  34.289  21.006 -0.1569 -0.1635  0.0222
 4416W        W47328   0.998   4.521  22.067  0.2983  0.0193 -0.3065
 4417W        W47329   1.296   3.489  20.289 -0.0081  0.3980  0.1653
 4418W        W47330   1.822   3.053  21.885  0.1402  0.0090  0.1947
 4419W        W47331   2.561   1.111  19.838  0.1252 -0.1633  0.1018
 4420W        W47332   4.454   5.086  20.207  0.1077  0.1484 -0.1113
 4421W        W47333  33.900   2.420  22.044  0.0646  0.0160  0.0830
 4422W        W47334   0.698   3.212  23.766 -0.5737  0.1110 -0.0016
 4423W        W47335   1.507   1.615  21.149 -0.0649  0.0666 -0.0107
 4424W        W47336   1.401  34.354  23.335 -0.3501 -0.0198  0.1862
 4425W        W47337   2.239   2.207  20.250 -0.2323 -0.0820 -0.0387
 4426W        W47338   1.621   1.707  23.303  0.1317 -0.1016  0.3535
 4427W        W47339  33.844   3.813  20.372 -0.4045 -0.2913 -0.1681
 4428W        W47340   2.112   1.779  21.431 -0.0441 -0.2095 -0.1059
 4429W        W47341   3.384  34.257  22.088 -0.1713 -0.0634 -0.1901
 4430W        W47342   0.658   1.711  21.785  0.2498 -0.0760 -0.0863
 4431W        W47343   2.184   1.745  24.195 -0.0872 -0.2354  0.1405
 4432W        W47344   2.481   2.506  19.966  0.2341  0.1585 -0.1218
 4433W        W47345   2.486   0.398  23.157 -0.3173 -0.1831  0.1403
 4434W        W47346   1.419   3.952  19.958  0.0917  0.0664  0.0820
 4435W        W47347   1.337  34.577  22.387 -0.1499 -0.1980  0.1829
 4436W        W47348   0.732   2.324  22.465  0.0789 -0.0214  0.1105
 4437W        W47349  33.957   3.305  22.881 -0.0842 -0.3712 -0.0115
 4438W        W47350   2.194   1.729  22.464 -0.1942  0.0165 -0.2554
 4439W        W47351   2.388   2.117  21.134  0.0952 -0.1859  0.0377
 4440W        W47352   2.689   0.008  22.814  0.1332 -0.0152  0.3749
 4441W        W47353   2.081   0.239  21.013 -0.0771  0.1200 -0.1055
 4442W        W47354   0.531   4.574  19.818  0.1510 -0.0157  0.4075
 4443W        W47355   0.472   3.112  19.934  0.1205 -0.1792 -0.1237
 4444W        W47356   0.922  34.364  22.496  0.1120  0.2656  0.0644
 4445W        W47357  34.619   2.691  22.105 -0.2956  0.2566 -0.2147
 4446W        W47358   0.308   2.804  19.178 -0.2270  0.2271  0.3163
 4447W        W47359   2.934   1.503  23.704  0.0112  0.2037  0.0170
 4448W        W47360   0.890   2.807  19.627 -0.0142 -0.1009 -0.2135
 4449W        W47361   3.554   0.936  22.279 -0.1045 -0.1727 -0.1072
 4450W        W47362  33.315   2.455  22.066  0.0967  0.0825 -0.1095
 4451W        W47363   1.852   1.280  20.138  0.1884 -0.1797  0.0547
 4452W        W47364  33.903   1.360  20.790  0.2127  0.1310  0.2458
 4453W        W47365   2.113   1.622  21.974  0.0749  0.1908  0.1961
 4454W        W47366   2.424   2.640  20.437 -0.1065  0.0071 -0.0315
 4455W        W47367   0.273   0.373  22.277 -0.1442 -0.0679 -0.3590
 4456W        W47368   0.925  33.754  21.819  0.3339  0.2251  0.0203
 4457W        W47369   0.363   3.363  22.888 -0.2908  0.1197 -0.2712
 4458W        W47370   2.121   0.561  21.826  0.0875  0.0455  0.0508
 4459W        W47371   1.683   0.987  19.261 -0.1826 -0.0929 -0.0145
 4460W        W47372   2.822   1.742  22.507 -0.2850 -0.1174 -0.1939
 4461W        W47373   1.821   2.230  23.346 -0.1735  0.1670  0.1554
 4462W        W47374  33.239   0.808  21.347 -0.1780  0.2568 -0.0256
 4463W        W47375   3.037   2.679  23.158 -0.0180 -0.0304  0.3516
 4464W        W47376   1.154   1.821  20.693  0.5386 -0.1592 -0.0053
 4465W        W47377  34.010   3.050  21.685  0.1971 -0.1401 -0.2184
 4466W        W47378   0.188   4.333  21.603 -0.2094 -0.1180 -0.2052
 4467W        W47379  34.435   2.074  19.338 -0.2272 -0.0714 -0.1303
 4468W        W47380   1.120   3.648  20.843  0.1221  0.0580 -0.3882
 4469W        W47381   1.893   2.076  22.927  0.2594  0.0295 -0.1464
 4470W        W47382   3.259   1.952  22.547 -0.0533  0.2043  0.0161
 4471W        W47383   0.813   1.451  22.628  0.0874 -0.3296  0.1341
 4472W        W47384   0.380   0.702  20.982 -0.3420 -0.0510 -0.0383
 4473W        W47385   1.504   1.656  21.805 -0.0346  0.0591  0.1858
 4474W        W47386   2.830   1.866  23.397  0.0559 -0.0302  0.2715
 4475W        W47387   2.118   2.247  22.462  0.1239 -0.0716  0.0244
 4476W        W47388   1.307   2.621  24.030  0.0264  0.0424  0.0255
 4477W        W47389   2.428  34.158  22.992  0.0701  0.5457 -0.1557
 4478W        W47390   3.791   4.358  21.148 -0.1252  0.2527 -0.1960
 4479W        W47391   2.110   2.603  23.679 -0.1826 -0.1631 -0.0703
 4480W        W47392  34.594   2.936  20.403 -0.3074 -0.0367  0.0711
 4481W        W47393  34.325  34.540  22.461  0.1399  0.2007 -0.1445
 4482W        W47394   1.009   2.958  19.195  0.0053  0.2056 -0.0166
 4483W        W47395   0.172   1.514  22.895  0.1559  0.0705 -0.0597
 4484W        W47396   0.118   3.481  21.695  0.1273  0.0930  0.4173
 4485W        W47397   0.198   2.421  21.132  0.0945  0.1307  0.1110
 4486W        W47398   0.434   2.674  23.525 -0.1884  0.1207 -0.0418
 4487W        W47399   3.235  34.538  19.642 -0.1179 -0.1051  0.0319
 4488W        W47400   1.053   2.189  19.653  0.2277 -0.0650  0.1426
 4489W        W47401   0.616  34.466  21.422  0.1434  0.0273  0.4430
 4490W        W47402   2.080   1.268  22.481  0.0897 -0.0887  0.2152
 4491W        W47403   3.686   1.904  19.000  0.1432 -0.3052  0.3010
 4492W        W47404   2.286  33.563  23.783  0.1885  0.0647 -0.0130
 4493W        W47405   0.969   0.096  22.200 -0.2261  0.3852  0.1312
 4494W        W47406   2.141   2.286  21.662  0.2667 -0.0003 -0.1027
 4495W        W47407   0.566   0.106  21.881 -0.2714 -0.0340 -0.0665
 4496W        W47408   2.331   2.762  24.865 -0.0022  0.1725 -0.1765
 4497W        W47409   0.615   2.667  22.819  0.1272 -0.1663 -0.0992
 4498W        W47410   2.740   1.478  21.612 -0.2472  0.1550 -0.0833
 4499W        W47411   0.462   1.248  20.925  0.0471 -0.0368 -0.0209
 4500W        W47412   0.762   1.198  21.826  0.1780 -0.0589 -0.1106
 4501W        W47413   2.884   3.315  22.311 -0.1393  0.0326  0.0797
 4502W        W47414   1.818   3.403  20.056  0.2109  0.0389 -0.0581
 4503W        W47415   3.283   1.376  20.849 -0.0177  0.0033  0.2051
 4504W        W47416   1.291   3.063  21.552  0.1648 -0.1594 -0.1989
 4505W        W47417   1.720   1.412  20.683 -0.0475  0.0996 -0.2362
 4506W        W47418   2.855   2.037  19.518 -0.0082 -0.0160  0.1122
 4507W        W47419   0.003   2.847  21.214  0.1622 -0.0005  0.2609
 4508W        W47420  34.555   0.100  23.402  0.1489  0.0906 -0.1413
 4509W        W47421   1.770   2.079  20.478 -0.1318 -0.0013 -0.1946
 4510W        W47422   2.260  34.219  21.938  0.0134 -0.3037 -0.1210
 4511W        W47423   2.820  34.418  23.262 -0.2323 -0.0381  0.1683
 4512W        W47424   1.601   0.234  22.724  0.0081  0.1086 -0.2991
 4513W        W47425   1.186   2.410  22.683  0.1980  0.4173  0.2533
 4514W        W47426   0.038  34.461  23.052  0.0941  0.1664 -0.0914
 4515W        W47427   1.901   3.752  21.788  0.1740 -0.3621  0.1054
 4516W        W47428   3.474   2.373  20.363  0.0013 -0.0619  0.0662
 4517W        W47429   2.658   0.618  22.681 -0.0312 -0.1668  0.2948
 4518W        W47430   1.126   3.161  20.629  0.0563 -0.1575  0.3569
 4519W        W47431   1.990   3.823  20.759 -0.1835 -0.1326  0.1618
 4520W        W47432   0.801   0.936  20.681  0.5363  0.0674  0.0579
 4521W        W47433   2.360   2.210  23.347  0.2818 -0.0332 -0.3790
 4522W        W47434   0.909   0.190  20.558 -0.0227  0.0464 -0.0090
 4523W        W47435   2.040   0.908  23.904  0.1466  0.1220  0.2293
 4524W        W47436   1.093   4.080  21.187 -0.1860 -0.1210 -0.0833
 4525W        W47437   1.560   2.999  20.323  0.1835 -0.4090  0.2229
 4526W        W47438   2.477   1.505  20.257 -0.0147  0.1034  0.0478
 4527W        W47439  33.853   0.570  22.226  0.3250  0.2496 -0.1282
 4528W        W47440   2.278   3.222  23.709 -0.0977  0.3546 -0.1647
 4529W        W47441   0.395   2.547  19.852  0.0816 -0.0834  0.0075
 4530W        W47442   1.680   2.983  19.824  0.0495 -0.0635 -0.1267
 4531W        W47443   1.850   3.084  23.532  0.1582 -0.1626 -0.0307
 4532W        W47444   3.697   2.380  24.177  0.1982  0.2050  0.1818
 4533W        W47445   3.197   1.331  21.449  0.1151  0.1543  0.0696
 4534W        W47446   1.590   0.627  21.885 -0.0391  0.0334  0.1483
 4535W        W47447   0.199   2.960  21.740 -0.2540  0.0338  0.1421
 4536W        W47448   1.854   0.278  21.519 -0.3195  0.1764 -0.1363
 4537W        W47449   0.520   4.216  22.471  0.4366  0.1757 -0.1780
 4538W        W47450  33.708   2.426  22.552 -0.1939 -0.0158  0.1807
 4539W        W47451   0.549   2.708  21.377 -0.0613 -0.3962  0.2533
 4540W        W47452   1.080  33.871  22.752 -0.5796 -0.0523  0.0748
 4541W        W47453   1.051   2.342  21.347 -0.0457  0.0776 -0.0012
 4542W        W47454   0.470   2.611  22.102 -0.1759  0.2765 -0.1624
 4543W        W47455   2.715   1.675  21.187  0.1214  0.0929  0.3116
 4544W        W47456   0.796   1.863  22.278 -0.0695 -0.1075 -0.0121
 4545W        W47457   1.233   2.465  21.811  0.2108 -0.0462  0.2695
 4546W        W47458   1.942   2.605  22.098 -0.1319  0.1743 -0.3086
 4547W        W47459   1.913   1.875  20.016  0.1739  0.2873  0.0276
 4548W        W47460   0.787   3.256  20.955 -0.0427 -0.0265 -0.1411
 4549W        W47461  33.739   0.174  24.216  0.2559  0.0089  0.2700
 4550W        W47462   1.978   0.904  22.851 -0.0577 -0.2017 -0.1925
 4551W        W47463   1.036   3.265  22.278 -0.0144 -0.1509  0.0560
 4552W        W47464  34.652   0.762  22.257  0.2714  0.4135  0.4503
 4553W        W47465   0.400   3.058  18.688 -0.0211  0.1023  0.0025
 4554W        W47466   1.081   3.868  23.207  0.0158  0.0294 -0.2448
 4555W        W47467   0.187   2.474  21.661  0.1379  0.0753 -0.4025
 4556W        W47468   0.737   3.703  21.171  0.3055 -0.0445  0.2813
 4557W        W47469   3.444   3.126  19.721 -0.0865 -0.1422 -0.1439
 4558W        W47470   2.267   3.340  19.826  0.4049  0.0913 -0.1931
 4559W        W47471   1.666   3.395  21.482  0.1455  0.0055 -0.0502
 4560W        W47472   2.432   0.518  20.045  0.1442 -0.3163 -0.1512
 4561W        W47473   0.678   1.695  20.763 -0.5106 -0.2130 -0.1924
 4562W        W47474   0.806   2.479  20.280  0.2380 -0.2020  0.1320
 4563W        W47475   3.480   3.500  20.019 -0.0217  0.0668 -0.0981
 4564W        W47476  34.683   3.595  21.229  0.1366  0.2472  0.3216
 4565W        W47477   2.656   3.541  22.823 -0.1274 -0.2021  0.1074
 4566W        W47478   3.841   1.051  20.092  0.0142 -0.0363 -0.0231
 4567W        W47479   2.627   1.919  20.735  0.0049  0.0283 -0.4862
 4568W        W47480   4.922   1.014  19.345  0.1401  0.0376  0.2291
 4569W        W47481   2.639   2.499  20.837 -0.1723 -0.0816  0.0254
 4570W        W47482   0.995   1.364  20.998 -0.0632  0.3277 -0.0820
 4571W        W47483   2.491   0.707  19.545  0.3509  0.0387 -0.1042
 4572W        W47484  34.423   1.902  22.615  0.0869 -0.1186  0.0297
 4573W        W47485   2.588   1.475  23.240 -0.0517 -0.4881  0.3128
 4574W        W47486   0.036   2.796  25.843 -0.1170  0.0449  0.0404
 4575W        W47487   3.493   6.174  18.915  0.1213 -0.1250  0.0759
 4576W        W47488  34.064   1.222  22.850 -0.1704 -0.0447 -0.2782
 4577W        W47489   0.082   1.496  21.285  0.1048  0.0048  0.2397
 4578W        W47490   3.789  34.111  21.670  0.0136 -0.2747  0.0257
 4579W        W47491   1.006   2.101  18.760  0.1834  0.3274  0.0668
 4580W        W47492   1.340   0.476  22.379 -0.2450  0.1204  0.0960
 4581W        W47493   0.812   3.616  19.824 -0.1842  0.0596  0.0721
 4582W        W47494   0.182   5.447  20.661 -0.0046  0.1948  0.0574
 4583W        W47495   1.276   3.445  21.859  0.1656  0.1602  0.1733
 4584W        W47496  33.846   0.813  20.668 -0.0494 -0.1129 -0.0473
 4585W        W47497   3.076   1.808  21.526  0.0994  0.0489  0.3576
 4586W        W47498  34.301   1.109  21.555 -0.2245 -0.0659 -0.0244
 4587W        W47499   2.997  33.610  23.408 -0.2426 -0.2681  0.0676
 4588W        W47500   1.989   2.522  21.205 -0.1676  0.1876 -0.0607
 4589W        W47501   3.196   1.159  19.628  0.0674 -0.3689  0.1629
 4590W        W47502   2.639   2.019  21.641 -0.0049 -0.0122 -0.1865
 4591W        W47503   1.113   2.837  23.582 -0.1022  0.2182 -0.2160
 4592W        W47504   1.506   2.070  21.384  0.1190 -0.1028 -0.2793
 4593W        W47505   3.797   2.012  22.741 -0.0751 -0.0833  0.2301
 4594W        W47506   0.950   1.724  19.916 -0.1090  0.0418  0.1248
 4595W        W47507   1.183   4.073  21.978  0.1945  0.4321  0.1365
 4596W        W47508  34.683   1.383  20.810 -0.2611 -0.0122  0.1843
 4597W        W47509   3.891   0.988  19.559 -0.0120 -0.1985  0.1049
 4598W        W47510  34.222   2.575  21.708  0.2416  0.0952  0.0766
 4599W        W47511  34.699   1.412  22.404  0.1421  0.1068  0.0286
 4600W        W47512   2.421   4.040  23.276  0.0620 -0.0567  0.2381
 4601W        W47513   0.840   0.227  21.447 -0.4333  0.1148 -0.1058
 4602W        W47514   3.137   3.194  20.409 -0.1980 -0.2947 -0.2025
 4603W        W47515   1.315   1.209  20.440 -0.0745  0.3073 -0.1956
 4604W        W47516   1.427   4.631  20.858  0.2148  0.0606 -0.0146
 4605W        W47517   2.139   2.373  20.732  0.0184 -0.0160 -0.0859
 4606W        W47518   2.623   5.014  21.585  0.1295 -0.3113  0.1725
 4607W        W47519  34.174  32.968  23.612 -0.2148 -0.3691 -0.1356
 4608W        W47520   1.720   3.384  20.597 -0.1471 -0.0177  0.2849
 4609W        W47521   1.726   2.114  21.934  0.0731  0.1294 -0.2547
 4610W        W47522   2.012   0.750  20.236  0.1146 -0.1413 -0.0070
 4611W        W47523   1.695   1.638  22.280 -0.3132  0.2320  0.1053
 4612W        W47524  34.058   4.090  21.576  0.2956  0.2840 -0.2397
 4613W        W47525   3.253   0.966  21.840  0.3484 -0.1596  0.0574
 4614W        W47526   2.110   1.299  23.057  0.1093  0.1235  0.0674
 4615W        W47527   1.617   4.443  18.094 -0.0567 -0.0207 -0.0073
 4616W        W47528   3.182  34.522  24.746  0.1583  0.1753  0.2590
 4617W        W47529   1.563   3.299  22.344 -0.2604 -0.3558  0.1736
 4618W        W47530   2.284   3.955  22.704 -0.2297  0.4184 -0.6268
 4619W        W47531  33.911   2.794  19.376  0.2892  0.1297  0.1475
 4620W        W47532  34.213   1.475  22.390 -0.3867  0.0697 -0.0845
 4621W        W47533   0.548   3.110  20.401  0.1221  0.2146 -0.0838
 4622W        W47534   1.461   4.126  19.082  0.3042 -0.0593  0.2779
 4623W        W47535   2.227   4.233  21.025 -0.0862 -0.0219  0.0913
 4624W        W47536   1.662   1.171  21.958 -0.1265  0.4342 -0.0809
 4625W        W47537   2.022   3.448  22.209  0.2296  0.2371  0.0170
 4626W        W47538   0.273  34.342  21.853 -0.0588 -0.0465  0.1106
 4627W        W47539   4.571   0.848  20.686 -0.0727  0.2351  0.0952
 4628W        W47540   2.569   0.856  20.430  0.2653 -0.2247  0.2604
 4629W        W47541   1.426   3.169  21.049 -0.4011 -0.4552  0.2836
 4630W        W47542   0.176  34.133  20.564  0.2691  0.0294 -0.2893
 4631W        W47543   1.258   2.507  20.583  0.2299 -0.4778  0.1720
 4632W        W47544  34.471   3.102  21.532  0.2341 -0.0978 -0.0909
 4633W        W47545   1.017   0.663  22.689  0.0593  0.2071 -0.2827
 4634W        W47546   2.167   0.482  22.782  0.0919  0.0508 -0.1106
 4635W        W47547  34.418   3.294  22.062 -0.0223  0.2321 -0.0400
 4636W        W47548  33.567   0.629  21.061 -0.1446 -0.1567  0.2604
 4637W        W47549   1.547   3.674  21.082 -0.0221  0.1272  0.2331
 4638W        W47550  34.489   0.221  22.925 -0.3960 -0.1931  0.1028
 4639W        W47551   0.260  34.232  20.072  0.1289 -0.1516 -0.2018
 4640W        W47552   2.971   3.634  20.336 -0.1879  0.1408 -0.2509
 4641W        W47553   2.801   4.216  21.746  0.0744 -0.0757  0.2942
 4642W        W47554   2.844   1.144  21.146  0.0773  0.3639 -0.0670
 4643W        W47555   3.684   2.358  23.539 -0.0948 -0.1547 -0.2059
 4644W        W47556  32.941   1.905  20.859  0.2987 -0.1658 -0.1926
 4645W        W47557   2.186  34.572  22.891  0.0329  0.0130  0.1530
 4646W        W47558  34.044   1.247  21.982 -0.2558 -0.0596  0.3115
 4647W        W47559   1.473   1.679  20.326  0.1631  0.1246 -0.2757
 4648W        W47560   1.545   0.711  22.805 -0.0247  0.0579 -0.0432
 4649W        W47561   2.926   3.776  21.339 -0.2337 -0.1939 -0.1015
 4650W        W47562   3.067   5.055  20.397 -0.1721 -0.0510 -0.2193
 4651W        W47563   1.900   1.843  23.684 -0.1351  0.0568  0.1859
 4652W        W47564  34.334   4.886  22.795  0.0698  0.0031 -0.2080
 4653W        W47565  34.389  34.106  22.784 -0.2837  0.1398  0.0566
 4654W        W47566   1.034   3.428  19.384  0.1724 -0.0889  0.2466
 4655W        W47567   2.776   2.686  22.731  0.1468  0.0319  0.2960
 4656W        W47568   3.274   2.682  21.928 -0.3441 -0.0162  0.0639
 4657W        W47569   3.540   0.042  21.912  0.1485 -0.1902  0.1326
 4658W        W47570   1.223   3.281  19.821 -0.1904 -0.1840  0.0813
 4659W        W47571  34.053  33.552  22.739 -0.2919  0.0176 -0.0582
 4660W        W47572   0.417   1.798  22.615  0.0416  0.2150  0.0281
 4661W        W47573   2.750   2.215  22.418  0.2096 -0.1372 -0.0236
 4662W        W47574   0.674  33.344  21.451 -0.1000  0.2355  0.1424
 4663W        W47575   1.703   0.577  21.095  0.0680 -0.0401  0.1527
 4664W        W47576   3.750   4.657  20.766  0.0166 -0.3407  0.2627
 4665W        W47577   0.857   1.366  20.254 -0.0444 -0.0396 -0.2341
 4666W        W47578   1.887   1.105  21.082  0.0401 -0.1176  0.3069
 4667W        W47579   2.837   2.339  24.056 -0.0032  0.3187  0.4307
 4668W        W47580   2.645   2.500  21.854 -0.0637 -0.0059 -0.3072
 4669W        W47581   2.434   3.161  22.103 -0.1756  0.1883  0.0875
 4670W        W47582   1.628   2.090  22.493  0.0880 -0.0359 -0.0128
 4671W        W47583   4.115   2.811  20.861  0.1311 -0.1591  0.4227
 4672W        W47584   3.699   3.947  22.162  0.0715 -0.2540 -0.0035
 4673W        W47585   3.814   3.214  22.233 -0.4583 -0.0896 -0.0492
 4674W        W47586   3.120   3.281  21.292  0.1609  0.2152 -0.2786
 4675W        W47587   2.681   2.987  21.642 -0.0469  0.0983  0.1037
 4676W        W47588   1.653  33.699  22.049  0.0228 -0.0373  0.1783
 4677W        W47589   0.545   2.705  20.840 -0.1930  0.1818  0.1377
 4678W        W47590   0.943   2.293  20.863 -0.3064 -0.0148  0.1363
 4679W        W47591   3.034   0.012  21.932 -0.0556  0.1523  0.4008
 4680W        W47592   0.200   1.907  20.992 -0.0008  0.2813 -0.5289
 4681W        W47593   3.474   1.696  19.471  0.2706  0.0958 -0.1067
 4682W        W47594   1.321   2.944  22.038 -0.4090 -0.0171 -0.0476
 4683W        W47595   2.969   1.080  22.744 -0.0497 -0.2028  0.1155
 4684W        W47596   2.070   2.982  26.572  0.4198 -0.0668  0.0818
 4685W        W47597   0.427   1.547  24.413 -0.2447 -0.2182  0.5309
 4686W        W47598   2.152   0.277  23.508  0.1657  0.4586 -0.0019
 4687W        W47599   4.256   0.814  24.140 -0.0327  0.0938 -0.0770
 4688W        W47600   0.571   1.922  24.997 -0.0693  0.2639  0.0076
 4689W        W47601   2.958   3.965  23.808 -0.1789 -0.0200  0.1341
 4690W        W47602   1.781   0.809  27.601  0.1529  0.2749  0.0103
 4691W        W47603   1.285   3.237  25.791  0.0060  0.1809  0.2338
 4692W        W47604   4.166   4.192  24.336  0.1261  0.1307 -0.0294
 4693W        W47605   1.585   0.970  23.611  0.1600  0.0325 -0.0681
 4694W        W47606   2.090   0.649  26.806  0.0756  0.0773 -0.0797
 4695W        W47607   1.634   4.486  25.020 -0.0894 -0.2673  0.3511
 4696W        W47608   0.393  34.651  23.534  0.1865  0.0601  0.4670
 4697W        W47609   1.143   0.946  24.855  0.2855  0.1828 -0.0545
 4698W        W47610   2.421   1.995  26.738 -0.0999 -0.2324 -0.2074
 4699W        W47611   1.233   1.679  24.374 -0.2003 -0.1678 -0.0759
 4700W        W47612   1.385   1.033  25.797 -0.1547 -0.1467 -0.0416
 4701W        W47613   0.935   2.301  25.185  0.3371 -0.1102  0.2056
 4702W        W47614   2.663   3.625  24.719  0.2287 -0.1321 -0.0365
 4703W        W47615   0.342   1.984  26.594 -0.2930  0.0519  0.1045
 4704W        W47616   2.432  34.282  26.363  0.1781  0.0515  0.1731
 4705W        W47617   1.505   3.040  24.405  0.0521 -0.0092  0.1534
 4706W        W47618   0.358   0.965  22.498 -0.1641  0.2930  0.0858
 4707W        W47619  34.187   1.115  24.741  0.1344  0.0152  0.4384
 4708W        W47620   1.381   3.743  25.608  0.2849 -0.0763  0.5704
 4709W        W47621   2.309   0.868  25.222  0.0529  0.1447 -0.2055
 4710W        W47622   2.149   2.252  24.935  0.0768 -0.3259 -0.1227
 4711W        W47623  34.686   3.680  24.845 -0.0154 -0.1559  0.3409
 4712W        W47624   2.145   4.892  26.105 -0.1482 -0.2988 -0.0197
 4713W        W47625   3.222   0.884  26.692 -0.0817 -0.2339 -0.2285
 4714W        W47626   1.307   1.547  24.928  0.0453 -0.0286  0.3703
 4715W        W47627  34.022   4.767  25.448 -0.0700  0.1145  0.0264
 4716W        W47628   1.028   3.062  24.123 -0.1480 -0.2602 -0.1828
 4717W        W47629   4.193   3.289  23.129 -0.1047  0.0681  0.0842
 4718W        W47630   1.857   3.874  25.826  0.1240 -0.0151  0.4869
 4719W        W47631   1.154   4.500  28.305  0.1394 -0.1901  0.1406
 4720W        W47632  34.248   2.713  24.225 -0.1652 -0.4000 -0.3551
 4721W        W47633   1.970   2.828  27.199  0.1884  0.1100 -0.4120
 4722W        W47634   2.036   3.046  27.707  0.1385  0.1889  0.1827
 4723W        W47635   0.775   1.503  27.005  0.0747 -0.1613  0.1571
 4724W        W47636   2.806   2.310  24.768  0.1426  0.1029 -0.0393
 4725W        W47637  34.611   2.763  23.691  0.0070 -0.2339 -0.0180
 4726W        W47638   1.597   2.267  25.707  0.2100 -0.1095 -0.5520
 4727W        W47639   0.260   2.994  27.960 -0.0551 -0.0362 -0.0952
 4728W        W47640   1.040   3.372  24.618  0.0020  0.1335 -0.0634
 4729W        W47641   3.405   1.251  25.261 -0.0873  0.1426 -0.2374
 4730W        W47642   1.323   2.194  23.492  0.1584 -0.1950 -0.0020
 4731W        W47643   2.858   2.814  24.224 -0.2622  0.0839 -0.2458
 4732W        W47644   0.314   2.113  22.035  0.3352 -0.1709 -0.1222
 4733W        W47645   2.920   0.681  23.110 -0.2334  0.1200 -0.1178
 4734W        W47646   3.479  34.183  25.704  0.0028  0.2052 -0.0975
 4735W        W47647   1.419   5.433  23.311  0.0721 -0.0743 -0.0567
 4736W        W47648   2.276   0.389  25.830  0.2831  0.1315 -0.0371
 4737W        W47649   2.592   4.162  25.717  0.0215  0.0860 -0.0367
 4738W        W47650   1.587   1.885  26.077  0.0264 -0.1509 -0.0543
 4739W        W47651   2.491   0.368  26.916  0.0034  0.0445  0.0267
 4740W        W47652   1.127   4.506  25.462  0.0248  0.3007  0.0816
 4741W        W47653   0.051   1.560  26.365  0.0903  0.3559  0.2666
 4742W        W47654   3.150   3.127  21.922  0.1284 -0.2061 -0.1100
 4743W        W47655   4.099   3.685  24.483 -0.1301  0.0699 -0.2187
 4744W        W47656   1.511   2.547  22.239 -0.2520 -0.0183  0.3018
 4745W        W47657   0.298   0.841  23.856  0.0373 -0.5208  0.0183
 4746W        W47658   0.612   3.138  26.684  0.1806  0.0919 -0.1784
 4747W        W47659   0.222   3.038  26.281  0.0845 -0.0826  0.0316
 4748W        W47660   0.608   0.588  23.030 -0.2705  0.2607 -0.1709
 4749W        W47661   3.795   1.934  26.330  0.0647 -0.0493 -0.1287
 4750W        W47662   0.171   4.021  26.441 -0.0167 -0.0809 -0.3727
 4751W        W47663   2.519   0.551  23.722  0.1135 -0.5846  0.3015
 4752W        W47664   1.769   2.598  26.385  0.0521 -0.0420  0.1934
 4753W        W47665   3.445   5.868  26.571  0.2539 -0.1966  0.2053
 4754W        W47666   3.576   2.895  24.461  0.1644 -0.1773 -0.1285
 4755W        W47667   1.281   0.090  24.097 -0.0547 -0.3058 -0.1244
 4756W        W47668   3.032   1.565  25.167  0.0338  0.1380  0.0701
 4757W        W47669   0.248   2.538  24.134  0.0139 -0.0567 -0.4023
 4758W        W47670   1.878   1.362  24.157  0.0174  0.3349  0.1612
 4759W        W47671   4.074   2.659  27.400 -0.0802  0.2349 -0.0695
 4760W        W47672   2.373   1.281  23.983  0.0868  0.0096  0.3479
 4761W        W47673   1.831   2.845  24.028 -0.0933 -0.3955 -0.2440
 4762W        W47674   2.572   1.411  26.513 -0.1080 -0.1969  0.1794
 4763W        W47675   1.667   4.113  26.634  0.1642  0.2505 -0.2789
 4764W        W47676   0.764   4.717  23.306  0.2567 -0.2940 -0.2255
 4765W        W47677  34.197   2.214  25.236 -0.3208  0.2599 -0.0275
 4766W        W47678   0.997   1.748  23.475  0.2371 -0.1826 -0.1796
 4767W        W47679   2.152   1.137  26.506 -0.0425 -0.2361 -0.0443
 4768W        W47680   0.471   3.180  25.561  0.1244  0.2170 -0.1866
 4769W        W47681   1.560   1.060  24.533 -0.0912  0.0428  0.1495
 4770W        W47682   0.290   1.818  27.155 -0.1991  0.2233  0.3652
 4771W        W47683   3.183   1.581  24.658  0.2411  0.0756 -0.0770
 4772W        W47684   0.953   2.803  24.960  0.1764  0.2110  0.3786
 4773W        W47685   3.848   4.970  24.109 -0.1919 -0.1002  0.2419
 4774W        W47686   3.449   1.303  22.639 -0.1563  0.1051 -0.0670
 4775W        W47687   0.717   3.353  21.624  0.2963  0.0460  0.0707
 4776W        W47688   0.741   1.996  27.121 -0.0755 -0.0991 -0.0555
 4777W        W47689   0.693   1.133  25.183 -0.3440  0.3067 -0.2552
 4778W        W47690   0.909   1.046  27.457 -0.0955 -0.0844 -0.1615
 4779W        W47691   0.670   0.623  26.504  0.0705  0.0725  0.0594
 4780W        W47692   1.602   1.898  27.388 -0.4756  0.3471  0.2293
 4781W        W47693   0.526  34.542  22.904 -0.1244  0.0785 -0.0193
 4782W        W47694   3.935   0.943  24.621  0.2186 -0.1045 -0.2937
 4783W        W47695   1.313   1.989  22.973  0.1162 -0.0055 -0.3526
 4784W        W47696   0.603   1.220  23.717  0.2236  0.1229  0.0835
 4785W        W47697   2.880   0.191  25.028  0.2173 -0.4253 -0.2789
 4786W        W47698   1.453   3.136  23.827 -0.1540 -0.0751  0.1827
 4787W        W47699   3.215   3.784  24.648 -0.0189  0.0389 -0.1501
 4788W        W47700   3.285   3.606  25.353 -0.3136 -0.1916 -0.0621
 4789W        W47701   1.699  34.584  27.208  0.1563  0.0462 -0.0169
 4790W        W47702   1.416   1.210  24.036 -0.0189 -0.0753 -0.2246
 4791W        W47703  34.475   3.072  24.942  0.3989  0.1960  0.0043
 4792W        W47704   2.229   2.435  26.537 -0.0586  0.0700  0.0122
 4793W        W47705   1.129   0.434  23.693 -0.0522 -0.1613 -0.3618
 4794W        W47706   3.791   5.946  26.036  0.0511 -0.0689 -0.2355
 4795W        W47707   2.027   3.468  26.028  0.0876 -0.1574  0.1599
 4796W        W47708  34.276   2.987  27.274 -0.2811 -0.0578 -0.2556
 4797W        W47709   2.561   1.766  25.760 -0.2664 -0.3928  0.2051
 4798W        W47710   2.959   3.092  26.885  0.2941 -0.0252  0.0683
 4799W        W47711   2.624   1.651  26.990 -0.1847  0.0052 -0.1316
 4800W        W47712   1.087   0.787  23.152  0.0484 -0.0326  0.0365
 4801W        W47713   1.805   3.749  25.298 -0.2814  0.0238 -0.1114
 4802W        W47714  34.399   4.438  23.460 -0.0671 -0.1964  0.0872
 4803W        W47715  33.296   2.170  25.464 -0.1151 -0.2770  0.2270
 4804W        W47716   1.264   3.323  25.309 -0.0818 -0.1791  0.1515
 4805W        W47717   1.665   0.446  24.360  0.0970 -0.0922 -0.3671
 4806W        W47718   0.177   2.526  28.205  0.2319  0.0453 -0.0222
 4807W        W47719   1.079   3.013  27.901  0.0141  0.5059 -0.0871
 4808W        W47720   0.148   2.244  23.686  0.0165 -0.0430  0.1685
 4809W        W47721   0.753   2.741  26.359  0.0240  0.1900  0.0673
 4810W        W47722   4.903  33.770  25.141  0.2920 -0.1380 -0.0511
 4811W        W47723   2.105   0.424  24.043 -0.1353 -0.1061  0.5474
 4812W        W47724   3.231   2.338  26.994 -0.3033  0.0024 -0.1064
 4813W        W47725   2.434   3.163  25.865  0.0350 -0.5070  0.0499
 4814W        W47726   1.743   0.478  23.191 -0.3091 -0.1173  0.2790
 4815W        W47727   1.112   0.146  22.756 -0.0171  0.0985 -0.0622
 4816W        W47728   0.674   2.959  29.276  0.2005  0.0959  0.1669
 4817W        W47729   2.052   2.878  25.505  0.1549 -0.3368 -0.2924
 4818W        W47730   1.266   2.406  26.109  0.3087  0.0594 -0.1452
 4819W        W47731   1.778   2.343  23.928 -0.3164 -0.0832  0.0873
 4820W        W47732   3.468   3.411  22.634  0.3186 -0.4369 -0.0690
 4821W        W47733   1.042   3.183  26.262  0.2544 -0.0300 -0.0075
 4822W        W47734   2.270   2.374  27.024  0.0718  0.1831 -0.0673
 4823W        W47735   3.312   2.541  23.885  0.2208 -0.2074  0.3383
 4824W        W47736   1.172  34.565  25.449 -0.3062 -0.2190 -0.1213
 4825W        W47737   1.388   1.672  23.787 -0.0858  0.1271 -0.0088
 4826W        W47738   0.536  34.271  23.840 -0.1922 -0.1866  0.3063
 4827W        W47739   0.444   3.985  22.984 -0.0229 -0.0892  0.2901
 4828W        W47740   2.649   1.313  25.598 -0.0977  0.0115 -0.1404
 4829W        W47741   2.037   0.466  25.366  0.1153 -0.1093 -0.0989
 4830W        W47742   2.229   1.143  27.506 -0.1002 -0.0915  0.0525
 4831W        W47743   3.351   0.762  25.056 -0.0377  0.1345 -0.0392
 4832W        W47744   2.494   2.029  24.451  0.0022  0.0146 -0.1049
 4833W        W47745   1.796   1.873  25.410 -0.0653 -0.1961 -0.1452
 4834W        W47746   0.766   0.655  24.120 -0.1924  0.0353 -0.0402
 4835W        W47747   1.840   1.055  26.139  0.1748 -0.1794 -0.0120
 4836W        W47748   0.920   2.989  25.464 -0.1343 -0.4433  0.0826
 4837W        W47749   1.784   3.834  24.824 -0.4177 -0.2026 -0.1573
 4838W        W47750   3.859   3.041  27.099 -0.2728  0.3035 -0.1538
 4839W        W47751   2.878   2.806  26.462 -0.3968 -0.1590  0.0704
 4840W        W47752   2.356   1.090  26.988  0.0365 -0.0345 -0.0238
 4841W        W47753   0.615   0.288  22.643 -0.2602  0.2722 -0.0835
 4842W        W47754   0.886   4.186  24.243 -0.2872  0.0026  0.1157
 4843W        W47755   2.146   1.764  23.140 -0.0288 -0.1317 -0.1776
 4844W        W47756   1.378   0.619  25.462  0.0954 -0.0501 -0.3669
 4845W        W47757   2.591   2.280  26.180 -0.2102  0.1175 -0.0043
 4846W        W47758   1.058   2.807  22.992 -0.0764  0.2799  0.2689
 4847W        W47759   1.291   2.619  26.566  0.1335 -0.0701  0.0093
 4848W        W47760   1.220   4.762  24.999  0.0004 -0.2469  0.1353
 4849W        W47761   2.997   0.699  24.439  0.1407 -0.0198  0.3291
 4850W        W47762   0.821   3.510  25.636 -0.2193  0.4461  0.5492
 4851W        W47763   1.665   1.394  22.736  0.1143  0.0268 -0.2239
 4852W        W47764  33.643   1.597  24.659  0.0113  0.2731 -0.2091
 4853W        W47765   2.564  34.645  25.346 -0.1957 -0.2274  0.2376
 4854W        W47766   3.039   1.999  24.437  0.1360 -0.1155  0.3097
 4855W        W47767   1.621   0.678  26.397  0.0682 -0.1647  0.2700
 4856W        W47768   1.892   1.470  25.733  0.2509 -0.1027  0.1877
 4857W        W47769   2.025   3.676  23.597 -0.2274  0.1930  0.1678
 4858W        W47770   2.348   1.809  26.223  0.1542  0.2198 -0.0184
 4859W        W47771   2.334  33.890  24.135 -0.1268 -0.1289  0.1234
 4860W        W47772   2.834   3.818  26.211 -0.1118  0.1846 -0.1917
 4861W        W47773   1.138   2.252  28.640  0.0755 -0.0056  0.1344
 4862W        W47774  34.377   0.557  23.578 -0.0672 -0.0500 -0.1925
 4863W        W47775   2.754   2.359  26.687 -0.1370 -0.1384  0.0946
 4864W        W47776   1.793   1.487  25.123 -0.2705 -0.1403 -0.1016
 4865W        W47777   1.102   2.248  24.503 -0.0350  0.0143  0.2838
 4866W        W47778   2.212   3.560  25.513 -0.1253 -0.3440 -0.0646
 4867W        W47779   1.062   0.534  24.508 -0.1750  0.0302  0.2227
 4868W        W47780   0.664   3.047  24.630 -0.0252 -0.0966 -0.1049
 4869W        W47781   0.800   1.769  26.581 -0.1227  0.0944  0.1536
 4870W        W47782   2.485   2.765  26.805 -0.4401 -0.0007 -0.1049
 4871W        W47783   1.294   1.145  25.293 -0.0321 -0.0980  0.1804
 4872W        W47784   0.512   0.038  24.633  0.1486 -0.0028  0.0898
 4873W        W47785   2.074   1.915  25.827  0.3064  0.2656 -0.1890
 4874W        W47786   2.801   1.847  26.404  0.2812  0.1821  0.1933
 4875W        W47787   2.005   1.978  27.007  0.0895 -0.2092 -0.1299
 4876W        W47788   1.307   3.360  27.198 -0.2351  0.1815 -0.0141
 4877W        W47789   1.511   0.161  25.234 -0.2478 -0.1517  0.3697
 4878W        W47790   3.991   2.835  23.154  0.0861  0.1850 -0.1442
 4879W        W47791   1.514   2.152  26.942 -0.0323  0.0604  0.1395
 4880W        W47792   0.891   2.435  23.627 -0.1381 -0.1230 -0.0144
 4881W        W47793   1.503   2.754  25.853  0.1642 -0.2563 -0.0189
 4882W        W47794   0.992   1.740  25.292 -0.0912 -0.0660  0.1941
 4883W        W47795   1.987   2.922  25.999 -0.0719  0.0634 -0.3098
 4884W        W47796   1.486   4.823  25.484  0.5650  0.0473 -0.3716
 4885W        W47797  34.074   2.719  24.950  0.0635 -0.0776  0.2062
 4886W        W47798   0.262   4.939  24.660 -0.4523 -0.0044  0.1613
 4887W        W47799   3.116   0.242  23.732 -0.0715  0.0975 -0.0987
 4888W        W47800   2.469   2.525  24.439  0.1091  0.4817  0.1035
 4889W        W47801   2.358   1.309  26.050 -0.0744  0.2507 -0.1771
 4890W        W47802   3.103  34.289  27.226 -0.0276  0.0981  0.4144
 4891W        W47803   2.925   2.781  25.165  0.1681  0.2337  0.0968
 4892W        W47804   2.726   0.999  26.289  0.1107 -0.0379  0.0676
 4893W        W47805   0.735   1.047  26.930 -0.1462 -0.3612 -0.1438
 4894W        W47806   2.886   2.854  23.669 -0.0190 -0.1679 -0.0587
 4895W        W47807   1.343   0.359  28.050  0.2379  0.0588  0.1707
 4896W        W47808   0.371   3.498  28.236  0.1128 -0.0141 -0.2017
 4897W        W47809   1.169   2.121  27.407 -0.2243 -0.3036  0.0351
 4898W        W47810   2.245   1.349  25.331  0.2183  0.0432 -0.1561
 4899W        W47811   0.163   0.555  23.453 -0.2399  0.3291  0.1197
 4900W        W47812   1.536   2.940  26.841 -0.0557  0.0662  0.1761
 4901W        W47813   2.904   4.437  25.406 -0.0134 -0.1982 -0.2769
 4902W        W47814   1.364   2.494  24.858 -0.3504 -0.0519  0.4740
 4903W        W47815   3.294   2.299  25.474  0.1154 -0.0474 -0.1114
 4904W        W47816   0.338   2.281  27.036  0.1112  0.0341 -0.0468
 4905W        W47817   1.657   0.461  23.807  0.0795  0.1146 -0.0346
 4906W        W47818   1.581   2.438  24.438 -0.0780 -0.0491 -0.2527
 4907W        W47819   0.864   4.573  24.598  0.2361 -0.2791 -0.2360
 4908W        W47820  34.333   1.425  26.088  0.1792 -0.0857  0.0937
 4909W        W47821   3.355   3.054  23.983 -0.0294 -0.1207 -0.0538
 4910W        W47822   2.741   1.342  24.388  0.1596  0.3514  0.0953
 4911W        W47823   2.857   3.322  27.600  0.0000 -0.1473  0.2393
 4912W        W47824   3.517   1.948  27.194 -0.0530 -0.3210 -0.1317
 4913W        W47825   1.120   1.337  27.952 -0.0790  0.5850 -0.1103
 4914W        W47826   1.809   0.374  27.217 -0.3087 -0.0790  0.2352
 4915W        W47827   2.851   2.899  25.772  0.1736 -0.1773  0.1627
 4916W        W47828   2.039   1.339  23.560 -0.0835 -0.2722  0.1919
 4917W        W47829   2.852   0.744  25.850  0.0882  0.3966 -0.0579
 4918W        W47830   3.887   1.869  25.596  0.1343  0.1689  0.4064
 4919W        W47831   1.016   0.913  23.728  0.1693 -0.2475  0.1034
 4920W        W47832   1.228   0.553  25.944  0.0507 -0.0645  0.0115
 4921W        W47833   4.306   3.373  26.793  0.1252  0.0514 -0.0656
 4922W        W47834   1.231   1.157  22.690 -0.0194 -0.1426  0.0539
 4923W        W47835   1.856   2.327  27.316 -0.1932  0.1486 -0.0797
 4924W        W47836   1.386   3.511  22.984  0.0531  0.0820 -0.3137
 4925W        W47837   2.807   3.267  23.394 -0.0978  0.0223  0.0232
 4926W        W47838   1.380   2.106  25.244 -0.3236 -0.1648 -0.2503
 4927W        W47839   0.604   0.855  25.989  0.0000 -0.2113  0.0165
 4928W        W47840   1.489   3.610  26.062  0.0607  0.2715  0.1594
 4929W        W47841  34.337   1.010  24.207  0.0155  0.2803  0.0371
 4930W        W47842   1.139   1.501  23.005  0.0810 -0.0258 -0.2271
 4931W        W47843   1.722   3.395  25.645  0.2760 -0.0366  0.2228
 4932W        W47844   4.013   1.141  26.165 -0.3348  0.1354 -0.2945
 4933W        W47845   1.781  34.390  25.189  0.1622 -0.0271 -0.0342
 4934W        W47846   5.379   1.816  27.435  0.0702 -0.1878  0.1730
 4935W        W47847   1.689   1.901  24.256  0.0683  0.2141  0.0705
 4936W        W47848   1.416  33.378  24.930 -0.0906 -0.0052  0.2671
 4937W        W47849   1.565   5.195  23.747  0.0785  0.1536 -0.1797
 4938W        W47850   1.269   3.832  26.437  0.1696 -0.2181 -0.3061
 4939W        W47851  34.356   3.609  24.471 -0.2719 -0.2987  0.1138
 4940W        W47852   1.567  33.890  25.930  0.0467 -0.2131 -0.1065
 4941W        W47853   2.037   2.408  26.021 -0.1739 -0.0297 -0.3447
 4942W        W47854   1.954   1.080  24.904  0.0850  0.0209 -0.0347
 4943W        W47855   3.539   2.514  26.216 -0.0403  0.2451 -0.2020
 4944W        W47856   2.438   4.650  25.562  0.0228 -0.2947 -0.1502
 4945W        W47857   1.025   2.916  27.370 -0.1578  0.0559  0.2147
 4946W        W47858   2.401   3.797  25.995  0.1255  0.0789 -0.0505
 4947W        W47859   2.847   3.482  25.218 -0.0954  0.0751  0.2711
 4948W        W47860   0.905   5.337  24.170  0.2658  0.0526  0.1190
 4949W        W47861  33.465   1.144  27.161 -0.2672 -0.1227  0.2769
 4950W        W47862   1.421   2.601  27.269  0.1492 -0.1296 -0.0164
 4951W        W47863   1.210   1.441  26.545  0.0620  0.1334 -0.1045
 4952W        W47864   1.571   0.038  23.631 -0.0914 -0.0213  0.0436
 4953W        W47865   2.370   1.707  23.662 -0.1954  0.0034  0.0710
 4954W        W47866   0.914   3.922  27.240 -0.0747 -0.2682  0.1634
 4955W        W47867   0.521   1.415  25.977  0.1073  0.1772  0.2175
 4956W        W47868  34.532   4.482  24.096 -0.0864  0.2507 -0.0281
 4957W        W47869   1.875   3.452  24.059  0.0036  0.0690  0.0876
 4958W        W47870   2.171   4.099  25.442 -0.2251 -0.0997 -0.0078
 4959W        W47871   2.162   3.823  26.728  0.2718 -0.0533 -0.1017
 4960W        W47872   0.621   0.844  23.424  0.2310 -0.0816 -0.0779
 4961W        W47873   1.915   4.988  25.699  0.4146  0.0287 -0.4502
 4962W        W47874   0.518   3.573  24.726 -0.1838  0.2551 -0.0817
 4963W        W47875   2.998   3.151  22.778 -0.0756  0.0214  0.1757
 4964W        W47876   0.794   2.567  24.116  0.2283  0.5020 -0.0384
 4965W        W47877   2.682   3.907  27.084  0.1060 -0.0647 -0.2206
 4966W        W47878   3.483   0.649  24.540  0.0424 -0.1451  0.0065
 4967W        W47879   1.833   2.507  26.852 -0.1922  0.0425  0.4691
 4968W        W47880   2.686   1.801  24.857  0.1863  0.1449  0.4560
 4969W        W47881   3.230   3.667  27.866  0.2002  0.1593 -0.0231
 4970W        W47882   0.262   2.369  25.761  0.1626 -0.2764 -0.0792
 4971W        W47883  34.447  34.164  23.327 -0.1356 -0.2774  0.1332
 4972W        W47884   1.509   2.139  27.961 -0.1547 -0.3421  0.1116
 4973W        W47885   2.738   0.259  27.333  0.0556  0.2336 -0.4273
 4974W        W47886   1.972   4.518  27.319 -0.1205  0.1778 -0.0788
 4975W        W47887   4.175   4.232  22.838  0.1753 -0.5086  0.1760
 4976W        W47888   0.617   1.645  23.119  0.2241 -0.0353  0.0279
 4977W        W47889   0.444   1.933  26.107 -0.0455 -0.2895 -0.1030
 4978W        W47890   3.712   0.138  24.490  0.2505 -0.1130 -0.0226
 4979W        W47891   1.299   1.738  22.555 -0.2383 -0.1336 -0.4552
 4980W        W47892   2.256   3.346  24.774 -0.1033  0.0511  0.2014
 4981W        W47893   0.895   4.282  23.521  0.1505 -0.1354  0.0758
 4982W        W47894   1.508   2.920  25.413  0.0488  0.0175 -0.0233
 4983W        W47895   1.227   4.674  27.786 -0.0846  0.1141  0.1706
 4984W        W47896   0.638   0.368  23.636  0.0537 -0.0060  0.1516
 4985W        W47897   3.320   3.070  25.535 -0.1455  0.0163 -0.3481
 4986W        W47898   0.657   3.152  27.675  0.0796  0.1591  0.0420
 4987W        W47899   3.566   2.245  26.648  0.2319  0.0332 -0.0557
 4988W        W47900   0.744   2.324  26.019 -0.0063  0.0112  0.1497
 4989W        W47901   3.202   0.251  24.316  0.0012 -0.2430  0.2650
 4990W        W47902   1.051   2.432  26.995  0.0768 -0.2606  0.0392
 4991W        W47903   1.353   0.214  27.072 -0.0188 -0.0407 -0.0597
 4992W        W47904   2.140   0.803  23.393  0.0065  0.1932  0.4994
 4993W        W47905   4.093   1.673  26.009 -0.2306 -0.2643 -0.0425
 4994W        W47906   2.019   2.578  23.045  0.2198  0.0507 -0.0221
 4995W        W47907   1.756   3.454  27.504 -0.0283  0.2538 -0.1242
 4996W        W47908   1.818   1.033  25.428  0.0701  0.0618  0.0193
 4997W        W47909   1.711   1.566  24.628 -0.1804 -0.0932 -0.1778
 4998W        W47910   1.020   1.668  26.094  0.0225  0.0860  0.0835
 4999W        W47911   0.678   2.714  27.043 -0.2415  0.2424 -0.0033
 5000W        W47912   3.537   3.513  24.918 -0.2135 -0.0342 -0.0255
 5001W        W47913   0.506   0.553  25.598  0.1297  0.2990  0.1102
 5002W        W47914   2.576   2.502  21.375 -0.0530  0.5075 -0.4325
 5003W        W47915   2.416   3.346  26.734  0.2023  0.1347  0.0487
 5004W        W47916   1.156   3.993  23.845 -0.1165  0.2508  0.1392
 5005W        W47917   1.918   1.554  26.258  0.2149  0.2259 -0.6104
 5006W        W47918   2.892   4.543  26.824 -0.0357 -0.3138  0.0023
 5007W        W47919   0.122   1.773  25.741 -0.0193 -0.0012 -0.0296
 5008W        W47920   1.189   4.331  26.381  0.0288 -0.6417 -0.1001
 5009W        W47921   3.259   3.043  26.165  0.0473 -0.1035 -0.1178
 5010W        W47922   0.930   0.131  24.972 -0.1689  0.0227 -0.0728
 5011W        W47923   2.411   0.732  24.763  0.1085 -0.2382 -0.1157
 5012W        W47924   0.180   3.113  23.467 -0.3422 -0.0366  0.2412
 5013W        W47925   3.233   1.597  25.753 -0.0600  0.3092  0.1423
 5014W        W47926   3.567   0.486  25.844 -0.2269  0.2261 -0.0978
 5015W        W47927   1.457   2.494  23.131  0.3192 -0.0834  0.0150
 5016W        W47928   2.960   1.152  24.807 -0.0238 -0.2468 -0.0036
 5017W        W47929   0.906   3.655  26.834  0.0300  0.0355  0.0240
 5018W        W47930   0.768   3.310  27.203  0.0104 -0.0277  0.0239
 5019W        W47931   1.416   1.568  25.658 -0.1272  0.0483  0.0968
 5020W        W47932   2.694   3.443  27.137 -0.2355  0.1991 -0.3237
 5021W        W47933   2.214   3.859  24.565 -0.2894 -0.1089  0.1455
 5022W        W47934   1.353   4.294  24.280  0.0037  0.1839 -0.1881
 5023W        W47935   3.164   4.197  26.101  0.4021 -0.0807 -0.6579
 5024W        W47936   2.448   1.352  24.892  0.1166  0.1810 -0.0667
 5025W        W47937   3.599   3.391  25.856  0.0664  0.0602  0.2847
 5026W        W47938   2.388   0.884  25.728 -0.0554 -0.0872  0.1587
 5027W        W47939   3.064   2.758  24.677 -0.1118  0.1761  0.2662
 5028W        W47940   1.194  33.813  24.048 -0.1590 -0.1894 -0.0776
 5029W        W47941   1.849   3.237  25.077  0.1396 -0.0999  0.1169
 5030W        W47942  34.480   2.229  24.226  0.0311 -0.2637  0.1465
 5031W        W47943   0.867   1.559  24.051 -0.0166  0.0276  0.1364
 5032W        W47944   0.165   2.183  25.178  0.2070  0.2823 -0.2879
 5033W        W47945   2.396  32.389  27.347  0.3752  0.0913  0.4101
 5034W        W47946   0.702   2.348  27.484 -0.0031 -0.3161 -0.0913
 5035W        W47947   0.553   1.826  25.598 -0.1216 -0.3378 -0.1157
 5036W        W47948   1.354   0.161  24.698 -0.3338 -0.0133 -0.1783
 5037W        W47949   1.486   3.039  23.189  0.0878  0.0592  0.2540
 5038W        W47950   1.595   0.153  25.762  0.3109 -0.2320 -0.1425
 5039W        W47951   0.191   0.993  26.443 -0.1690 -0.2308 -0.3237
 5040W        W47952   3.415   2.817  23.478  0.0799 -0.0846 -0.0094
 5041W        W47953   3.321   3.560  22.164 -0.3270  0.0334 -0.0624
 5042W        W47954   0.709   0.053  24.055 -0.0898  0.0352 -0.0678
 5043W        W47955   3.573   4.011  27.096 -0.1015  0.0416 -0.0787
 5044W        W47956   0.675   1.977  24.513  0.0480 -0.1115 -0.1994
 5045W        W47957   1.145   0.914  26.597 -0.0864  0.0933 -0.2069
 5046W        W47958   1.798   0.958  27.103  0.2616 -0.2661 -0.0641
 5047W        W47959  33.418  34.471  24.061 -0.2798  0.3245  0.0956
 5048W        W47960   1.899   2.077  26.423 -0.2456 -0.2669 -0.1732
 5049W        W47961   1.393   3.565  24.897 -0.0237 -0.2459 -0.0163
 5050W        W47962   2.397   4.566  23.319 -0.0340 -0.1289 -0.1062
 5051W        W47963   1.612   1.720  26.665 -0.1502  0.2555 -0.0428
 5052W        W47964   1.832   3.743  27.908  0.0918  0.1212  0.0602
 5053W        W47965   2.756   0.395  27.835  0.0213  0.1013  0.4573
 5054W        W47966   2.143   3.048  23.053 -0.1568 -0.2198 -0.1004
 5055W        W47967   2.033   1.570  27.348 -0.1271 -0.1760 -0.2765
 5056W        W47968   2.556   3.078  25.385 -0.0223  0.1718  0.0801
 5057W        W47969   3.208   1.106  25.706  0.0784  0.0150  0.0219
 5058W        W47970   1.724   2.023  24.813 -0.1142 -0.0147  0.4124
 5059W        W47971   1.143  34.635  25.956 -0.2031  0.1901 -0.2545
 5060W        W47972   1.580   2.998  27.461 -0.1255  0.1370  0.0634
 5061W        W47973   1.892   3.477  26.512 -0.0034  0.1165 -0.0647
 5062W        W47974   0.946  34.117  25.260 -0.0164  0.2475 -0.1108
 5063W        W47975   1.292   0.162  23.222 -0.0730 -0.0136  0.3262
 5064W        W47976   2.686   3.100  24.672 -0.0148 -0.1745  0.0665
 5065W        W47977  34.532   2.217  25.630  0.1466 -0.2232 -0.1112
 5066W        W47978   2.235   1.197  24.460 -0.0174 -0.0434 -0.1065
 5067W        W47979   1.629   3.042  28.028 -0.0622  0.2337 -0.1478
 5068W        W47980   1.814   2.781  24.710 -0.0024 -0.1795  0.3038
 5069W        W47981   3.495   2.114  25.893 -0.0985 -0.2524 -0.0755
 5070W        W47982   1.535   1.112  23.121 -0.0332  0.1069 -0.1918
 5071W        W47983   3.388   3.029  24.934  0.1622 -0.1620 -0.1904
 5072W        W47984   2.482   4.219  26.677  0.1319  0.1247 -0.1083
 5073W        W47985   2.519   3.453  28.398 -0.2109 -0.1901  0.4343
 5074W        W47986   3.265   5.073  26.122 -0.1808  0.2035  0.3463
 5075W        W47987   2.853   2.056  25.433 -0.2222 -0.2263  0.2143
 5076W        W47988   1.454   1.423  26.112  0.0545  0.0843  0.0101
 5077W        W47989   2.017   2.196  24.445 -0.1117 -0.0827  0.1190
 5078W        W47990   2.335   1.854  25.242  0.2239 -0.1789 -0.1785
 5079W        W47991   1.646   1.144  26.618  0.1408  0.0085 -0.1634
 5080W        W47992   1.764   0.639  25.808 -0.1157  0.0338 -0.0480
 5081W        W47993   1.338   0.730  24.160  0.2193 -0.1190  0.0519
 5082W        W47994   1.403   3.358  26.644 -0.3617  0.1294 -0.2029
 5083W        W47995   2.140   1.552  26.790 -0.1579 -0.1950 -0.1402
 5084W        W47996   0.540   1.726  30.026  0.0007 -0.1239  0.0964
 5085W        W47997   1.494   0.713  28.432 -0.4367 -0.1600  0.1918
 5086W        W47998   2.897   1.131  26.990  0.2232  0.0627  0.0974
 5087W        W47999   4.577   3.375  28.424  0.1192 -0.0047  0.0760
 5088W        W48000   2.118   0.915  29.332 -0.0047 -0.0619  0.0549
 5089W        W48001   2.322   2.263  28.026 -0.1080  0.2895 -0.0097
 5090W        W48002   1.625  34.637  29.874  0.3809 -0.0871 -0.1801
 5091W        W48003   3.137   1.916  30.458 -0.0090  0.0199 -0.0158
 5092W        W48004   3.048   2.983  31.152  0.1846 -0.0050 -0.0500
 5093W        W48005   2.869   2.671  27.128  0.4199  0.0047 -0.5243
 5094W        W48006   1.845   0.549  30.854  0.1391 -0.0169  0.1658
 5095W        W48007   1.839   3.434  31.354  0.0915 -0.4283 -0.1242
 5096W        W48008   3.077  34.268  28.287  0.1726  0.0750 -0.0819
 5097W        W48009   0.740   0.857  29.689 -0.0282  0.6118  0.0185
 5098W        W48010   3.179   1.076  30.154  0.0663  0.0935  0.2492
 5099W        W48011   1.084   2.121  29.503  0.0967 -0.3235 -0.0972
 5100W        W48012   0.810   0.365  29.732 -0.0966  0.1649  0.1076
 5101W        W48013   1.998   0.458  28.651 -0.1205  0.0027  0.4101
 5102W        W48014   1.796   3.188  29.289  0.1960 -0.2766  0.0305
 5103W        W48015   1.449   0.541  30.250 -0.0623 -0.3646  0.2326
 5104W        W48016   2.719   0.740   0.136 -0.2827  0.0454 -0.1548
 5105W        W48017   1.451   4.365  27.167  0.0129  0.1087  0.0134
 5106W        W48018   1.177   1.819  26.931  0.0965  0.0842  0.1717
 5107W        W48019   1.932   1.203  29.675  0.1473 -0.1235 -0.1736
 5108W        W48020   2.234   1.391  31.234 -0.2076  0.4213 -0.0663
 5109W        W48021   3.146   1.673  29.208  0.0337  0.1404 -0.1269
 5110W        W48022   2.752   2.334  29.699 -0.0635  0.1772 -0.2630
 5111W        W48023   1.256   2.482  30.620  0.1043 -0.1245 -0.0223
 5112W        W48024   3.601   2.191  29.246  0.0322  0.3010 -0.2828
 5113W        W48025   2.083   2.195  31.062 -0.0586 -0.1189 -0.1886
 5114W        W48026   0.489   2.203  30.360 -0.1370 -0.1400  0.1907
 5115W        W48027   0.123   3.772  28.746 -0.0787  0.4462  0.2138
 5116W        W48028   1.655   2.225  29.443  0.0063 -0.2391  0.0487
 5117W        W48029   4.250   2.706  28.581 -0.1659  0.0394 -0.1343
 5118W        W48030   2.712   3.227  29.644  0.0355 -0.2202 -0.0113
 5119W        W48031   1.787   2.932  30.584 -0.1898  0.0755  0.1930
 5120W        W48032   1.043   2.976  26.844  0.1816 -0.0809 -0.1564
 5121W        W48033   3.529   3.609  30.635  0.0230  0.0695 -0.0894
 5122W        W48034   1.620   2.350  30.287  0.1446  0.1411 -0.1358
 5123W        W48035   1.228   0.555  29.306 -0.1652 -0.0648 -0.3968
 5124W        W48036   1.698   2.564  27.746 -0.3094  0.0378 -0.3944
 5125W        W48037   1.344   4.822  26.484  0.2032 -0.0105  0.0413
 5126W        W48038   1.382   1.145  27.448  0.0186 -0.3466  0.1108
 5127W        W48039   1.313   3.210  31.313 -0.0785  0.2497  0.0583
 5128W        W48040   1.357   3.943  30.306  0.0732  0.2345 -0.1193
 5129W        W48041   3.017   0.960  30.903  0.1390  0.1377 -0.0027
 5130W        W48042   0.312   3.128  27.058  0.0332  0.1073 -0.0849
 5131W        W48043   3.194   1.798  26.858  0.0745  0.1398 -0.0081
 5132W        W48044   1.734   0.318  27.698 -0.1205  0.1007 -0.1675
 5133W        W48045   2.122  34.646  28.752  0.3606 -0.2370 -0.1473
 5134W        W48046   2.765  33.525  29.028  0.3356 -0.3134  0.3195
 5135W        W48047   0.857   3.354  29.524  0.1278  0.0731 -0.1124
 5136W        W48048   2.428  34.207  30.786  0.1853 -0.2035 -0.2184
 5137W        W48049   3.606   1.457  30.750  0.2425 -0.1812 -0.0601
 5138W        W48050   2.409   1.980  27.310  0.3724 -0.0034 -0.1017
 5139W        W48051   2.734   0.938  30.499  0.3794 -0.2390 -0.3394
 5140W        W48052   2.494   3.814  31.566  0.0707  0.0893 -0.0411
 5141W        W48053   0.846   1.959  28.935 -0.1317  0.2706 -0.0375
 5142W        W48054   2.135   2.937  28.876 -0.0623  0.2280  0.3276
 5143W        W48055   4.707   4.320  28.799 -0.0730  0.2606  0.1693
 5144W        W48056   2.272   3.471  29.258  0.1796  0.0558  0.0361
 5145W        W48057   0.521   2.123  29.349  0.0863  0.0367  0.4446
 5146W        W48058   0.099   1.196   0.190 -0.1604  0.3071 -0.2654
 5147W        W48059   2.400   1.499  29.713 -0.1044 -0.0451 -0.0327
 5148W        W48060   1.958  34.467  27.639  0.2502 -0.1597 -0.0683
 5149W        W48061   3.282   1.936   0.648  0.0637  0.0707 -0.0320
 5150W        W48062   0.038   2.402  31.077  0.2223  0.0009 -0.1756
 5151W        W48063   3.497   1.053  29.167 -0.1000  0.0058  0.1534
 5152W        W48064   2.143   3.168  29.672 -0.0225 -0.2025  0.0505
 5153W        W48065   3.140   2.371  30.636  0.0003  0.1126  0.0726
 5154W        W48066   3.984   2.016  26.821 -0.0279  0.0730  0.1736
 5155W        W48067   2.631  34.524  29.354 -0.3818  0.4116 -0.2664
 5156W        W48068   3.089   0.966  29.447 -0.2973  0.3352  0.2298
 5157W        W48069  34.662   3.509  26.408  0.0171  0.1308  0.2743
 5158W        W48070   0.921   1.074  29.151 -0.1184 -0.1692 -0.1385
 5159W        W48071   3.301   1.970  31.319 -0.1786 -0.2022 -0.2334
 5160W        W48072   4.622   2.907  25.599 -0.0141 -0.1769 -0.0153
 5161W        W48073  34.006   3.761  31.717 -0.0123  0.0066  0.5016
 5162W        W48074   2.852   2.796  29.981  0.0944  0.3387 -0.1284
 5163W        W48075   3.207   4.091  30.129  0.3035  0.0206  0.0141
 5164W        W48076   1.575   4.437  28.961  0.1195  0.2468  0.1101
 5165W        W48077   0.023   1.436  31.769  0.0784  0.2210  0.0959
 5166W        W48078   1.306   2.931  29.273  0.4354 -0.1016 -0.0836
 5167W        W48079  33.795   0.923  31.076  0.1330  0.3606 -0.0344
 5168W        W48080   1.269   1.718  30.705 -0.4737 -0.2055  0.2249
 5169W        W48081   3.439   0.014  28.317  0.1825  0.0945  0.1177
 5170W        W48082  34.679   0.710  30.902  0.1670 -0.1493 -0.1789
 5171W        W48083   3.114  33.736  28.210  0.3223  0.2064  0.0662
 5172W        W48084   0.971   2.425  29.132 -0.1748 -0.2107 -0.3270
 5173W        W48085   3.967   3.281  28.723 -0.1329  0.1409 -0.0363
 5174W        W48086   2.783   0.703  27.150 -0.0450 -0.0711  0.2125
 5175W        W48087   1.824   3.910  27.170 -0.0541 -0.2346 -0.2579
 5176W        W48088   0.271   1.948  31.586  0.1333  0.3231  0.0182
 5177W        W48089   0.885   1.743  28.362  0.2286 -0.2833 -0.1685
 5178W        W48090   1.179   1.347  30.303  0.1107  0.0932  0.0530
 5179W        W48091   0.684   1.185  30.512 -0.3885  0.0621  0.3712
 5180W        W48092   3.894   0.540  30.602 -0.1808 -0.0142 -0.2633
 5181W        W48093   0.793   0.908  28.709 -0.0341 -0.1704 -0.0111
 5182W        W48094   3.506   1.192  27.768 -0.0388 -0.0080 -0.1349
 5183W        W48095   1.861   2.223  28.259 -0.0684 -0.4512  0.3253
 5184W        W48096   0.130   2.350  29.078  0.0597 -0.0561  0.2944
 5185W        W48097   3.841   0.671  31.221 -0.0995  0.1015 -0.2967
 5186W        W48098   0.927   3.361  29.005 -0.3816 -0.5233 -0.1356
 5187W        W48099   3.891   3.256  30.199  0.0252 -0.0849  0.1202
 5188W        W48100   3.037   2.177  28.623  0.1368  0.2415  0.1139
 5189W        W48101   1.935   1.692  29.738 -0.2689 -0.0754  0.0532
 5190W        W48102   1.183   1.092  28.385 -0.2302 -0.3816  0.0409
 5191W        W48103   1.344   3.739  30.908  0.2378  0.0770 -0.0082
 5192W        W48104   0.187   3.086  29.358  0.0480  0.0673 -0.0461
 5193W        W48105   2.694   1.751  27.733 -0.2438 -0.1087 -0.0861
 5194W        W48106   3.942   2.849  28.988  0.2261  0.0829  0.2239
 5195W        W48107   1.843   0.413  28.195 -0.0417  0.1087  0.0896
 5196W        W48108  34.497   3.511  31.230  0.0217  0.0292  0.0086
 5197W        W48109   2.410   0.476  30.237 -0.0961  0.1790  0.0814
 5198W        W48110   4.118   0.922  30.946  0.1360 -0.1939  0.1381
 5199W        W48111   2.677   2.315  27.571  0.0664  0.4044 -0.1246
 5200W        W48112   0.933   0.856  27.955 -0.2480 -0.0849  0.0287
 5201W        W48113   2.343   3.080  30.582 -0.3709  0.1212  0.5538
 5202W        W48114   0.584   3.085  29.876  0.0964 -0.3481 -0.1285
 5203W        W48115   1.635   1.715  29.221 -0.1981 -0.1083 -0.0504
 5204W        W48116   2.154   3.756  28.470 -0.0995  0.0209 -0.2163
 5205W        W48117   2.709   0.563  28.712 -0.1172 -0.1937  0.1279
 5206W        W48118   0.693  34.599   0.603  0.0504 -0.1184  0.1643
 5207W        W48119   2.912   2.699  29.386 -0.3290  0.0193 -0.0313
 5208W        W48120  34.562   2.227  27.163  0.1970  0.0621 -0.1587
 5209W        W48121  34.542   4.294  30.761  0.1864  0.0107 -0.0718
 5210W        W48122   2.039  33.155  29.732 -0.2005 -0.0845 -0.1396
 5211W        W48123   2.684   0.894  27.707  0.0487  0.1745 -0.1802
 5212W        W48124   1.703   1.373  30.519 -0.0050 -0.2286  0.1737
 5213W        W48125   3.191   3.662  27.167  0.0581 -0.3331 -0.2524
 5214W        W48126   1.959   1.188  27.960 -0.1329  0.0500  0.1199
 5215W        W48127   3.059   0.780  27.980  0.2702 -0.1069  0.2483
 5216W        W48128  34.461   2.108  29.311  0.0689  0.1313 -0.1967
 5217W        W48129   2.850   1.798  30.000  0.1014  0.0496 -0.2987
 5218W        W48130   2.610   1.705  30.490 -0.0615 -0.2180  0.1327
 5219W        W48131   1.432   3.845  27.459 -0.2314 -0.0378  0.0348
 5220W        W48132   3.558   3.217  29.011  0.1230  0.2094 -0.0446
 5221W        W48133   1.623   2.592  29.127  0.1130  0.0457  0.2067
 5222W        W48134   3.308   3.396  31.692  0.1635  0.2483  0.5984
 5223W        W48135   3.313   2.549  29.624  0.0611 -0.0993  0.0104
 5224W        W48136   2.761   0.772  30.029  0.1055 -0.2673  0.2914
 5225W        W48137   2.503   0.816  28.234  0.1759  0.2116 -0.1861
 5226W        W48138   1.573  34.150  28.016 -0.0653  0.2092  0.0963
 5227W        W48139   0.508   3.615  27.703 -0.1297  0.0449  0.4195
 5228W        W48140   4.070  34.371  29.114  0.0776  0.1342 -0.1769
 5229W        W48141   2.083   0.938  28.420  0.1810  0.2011  0.4082
 5230W        W48142   1.677   0.205  30.553 -0.0727 -0.3322 -0.1181
 5231W        W48143   3.292   1.483  31.144 -0.0452  0.0086 -0.1701
 5232W        W48144   1.439   0.911  27.977 -0.0811 -0.2720  0.2013
 5233W        W48145   2.513   1.066  29.578  0.1552 -0.1252  0.1414
 5234W        W48146   1.644   1.239  28.390  0.1589 -0.2260  0.0550
 5235W        W48147   2.681  33.977  29.243 -0.2428  0.0031 -0.2721
 5236W        W48148   1.025   1.784  29.978 -0.1205 -0.0883  0.2082
 5237W        W48149   1.240   3.007  30.718  0.4126 -0.0180  0.0585
 5238W        W48150   3.803   1.837  29.478  0.0520 -0.1132 -0.0982
 5239W        W48151   2.052   2.709  28.135  0.1760  0.1350 -0.0808
 5240W        W48152   3.254   0.591  30.431  0.0828 -0.1712 -0.0891
 5241W        W48153   2.243   2.614  27.572 -0.1946 -0.0189  0.2187
 5242W        W48154   0.564   3.994  26.860 -0.3366 -0.3104  0.1817
 5243W        W48155   1.397   3.842  26.933  0.0494  0.3209 -0.4471
 5244W        W48156   1.659  34.500  29.050 -0.2180  0.2912  0.1484
 5245W        W48157   2.539   3.992  30.587  0.5556 -0.1443  0.2088
 5246W        W48158   2.421   3.075  27.408  0.2495  0.2810 -0.1116
 5247W        W48159   2.088   2.196  30.442  0.0126 -0.0886 -0.0226
 5248W        W48160   0.445   4.129  28.875 -0.2960  0.0510 -0.1799
 5249W        W48161   3.052  34.501  30.319 -0.3377 -0.2670  0.0249
 5250W        W48162   1.065   3.797  29.547  0.0559 -0.0625  0.2190
 5251W        W48163   0.621   2.159  28.403 -0.0617  0.4767 -0.0198
 5252W        W48164   0.804   2.976  28.742  0.0737  0.4190  0.3893
 5253W        W48165   2.121  34.573  29.250 -0.1153  0.0272 -0.1066
 5254W        W48166   2.523   2.894  27.983  0.5171  0.1870  0.1512
 5255W        W48167   0.231   1.268  30.893  0.2206 -0.0911 -0.3341
 5256W        W48168   2.412   0.600  29.652  0.2682  0.0180  0.0403
 5257W        W48169  33.421   2.993  30.238  0.2265  0.0330  0.1116
 5258W        W48170   3.684   2.566  29.985 -0.1183  0.1355 -0.1390
 5259W        W48171   2.520  33.955  28.184  0.2341  0.0701  0.0175
 5260W        W48172   3.805   2.126  29.899  0.1890 -0.1431 -0.0291
 5261W        W48173   1.864   1.415   0.434 -0.1119  0.1738 -0.1412
 5262W        W48174   0.217   2.347  27.662  0.1689  0.1874  0.2021
 5263W        W48175   4.376   0.937  31.408 -0.0746  0.4673  0.1858
 5264W        W48176   2.454   1.784  28.187  0.4324 -0.6602  0.3238
 5265W        W48177   0.020   3.720  27.810 -0.0060 -0.1229 -0.0137
 5266W        W48178   1.632   3.102  29.836 -0.2020 -0.0577  0.0259
 5267W        W48179   2.339   1.629  28.771 -0.0435  0.1479 -0.0987
 5268W        W48180   1.473   2.592  29.680  0.1199 -0.4451  0.0918
 5269W        W48181   0.833   1.016  31.108 -0.1167 -0.1057  0.3932
 5270W        W48182   3.323   1.605  30.040  0.1929 -0.2431  0.1650
 5271W        W48183   2.737   1.274  30.085 -0.1859 -0.0330 -0.4519
 5272W        W48184   0.982   2.606  29.643 -0.0215  0.1010 -0.1062
 5273W        W48185   2.679   1.850  29.459  0.0367 -0.0271  0.3250
 5274W        W48186   2.909   1.898  30.925 -0.1212 -0.1725  0.1017
 5275W        W48187   1.390   0.394  29.799  0.1388 -0.2925  0.2431
 5276W        W48188  34.217   3.678   0.515  0.1401  0.3066  0.1474
 5277W        W48189   2.564  34.619  30.256 -0.2647  0.1127 -0.1775
 5278W        W48190   4.518   4.798  28.964 -0.1381 -0.1588  0.0943
 5279W        W48191   2.611   3.152  30.997 -0.0825  0.3057 -0.0707
 5280W        W48192   1.928   2.736  29.542 -0.0822  0.1516  0.2896
 5281W        W48193   0.543   1.234  29.457  0.0162 -0.3191 -0.1038
 5282W        W48194   1.437   3.227  28.892  0.1260 -0.2108  0.3948
 5283W        W48195   2.293   0.991  30.012  0.1333  0.0360  0.1680
 5284W        W48196  34.682   3.793  30.830  0.1758  0.1075  0.0966
 5285W        W48197   1.603   3.747  28.703 -0.2521  0.0282 -0.0178
 5286W        W48198  34.491   2.040   0.467  0.3195  0.2209  0.0973
 5287W        W48199   3.244   0.462  26.233 -0.2042 -0.2665 -0.1920
 5288W        W48200   3.097   1.653  27.350 -0.2653  0.2467  0.1545
 5289W        W48201   1.903   0.918  30.414  0.0660 -0.5625  0.3844
 5290W        W48202   2.282   1.104  28.880 -0.1194  0.1776  0.2381
 5291W        W48203   2.884   1.385  29.580 -0.0472  0.1478  0.3164
 5292W        W48204   3.013   1.407  30.471 -0.0825  0.2381  0.1318
 5293W        W48205   1.237   0.313  30.663 -0.0999  0.0420  0.0129
 5294W        W48206   3.677   2.341  31.382  0.1635 -0.3118  0.2007
 5295W        W48207   0.376   0.594   0.136  0.1987  0.1498 -0.2834
 5296W        W48208   3.615   2.348   0.094  0.1458  0.0627 -0.2135
 5297W        W48209   1.078   2.247   0.148 -0.0894  0.2539  0.0032
 5298W        W48210   1.537   1.028  29.303  0.2647  0.1924  0.1946
 5299W        W48211   1.346  34.163  28.835 -0.0691 -0.2329 -0.0779
 5300W        W48212   2.554   2.146  29.057  0.3442  0.2489 -0.2621
 5301W        W48213   2.373   1.213  30.465 -0.1446  0.2034 -0.1668
 5302W        W48214   0.790   4.446  27.324 -0.1666  0.2889  0.0319
 5303W        W48215   3.932   0.825  29.326  0.1566  0.2242  0.2836
 5304W        W48216   2.804   2.233  30.288 -0.1274  0.2187 -0.0706
 5305W        W48217   3.360   2.717  27.355  0.0119 -0.3141  0.1058
 5306W        W48218   0.991   3.566  27.594  0.4431 -0.1006 -0.0818
 5307W        W48219   2.486   3.032  29.269 -0.0849 -0.1226 -0.0592
 5308W        W48220   1.162   0.607  31.103 -0.1626  0.0011 -0.0911
 5309W        W48221   1.476   2.585  28.220  0.0935 -0.0810  0.1329
 5310W        W48222   3.432   0.931  28.635  0.0308  0.1881  0.2956
 5311W        W48223   3.143  33.491  28.654  0.0858 -0.2080  0.1719
 5312W        W48224   3.617  34.149  29.007  0.2377 -0.1821  0.0690
 5313W        W48225   1.387   2.162  29.897  0.0508  0.0053  0.1142
 5314W        W48226   0.583  34.538  31.086  0.0762  0.1561  0.1635
 5315W        W48227   3.007   3.288  29.137  0.0975 -0.0217 -0.2004
 5316W        W48228   4.347   1.791  27.649 -0.0377  0.2463  0.0693
 5317W        W48229   4.945   1.008  30.680 -0.1296 -0.0209 -0.0599
 5318W        W48230   3.755   2.548  27.022  0.0582  0.0365  0.0698
 5319W        W48231   1.769   1.783  28.598  0.4374 -0.1107 -0.1416
 5320W        W48232   0.433   1.123  28.955  0.2604  0.0764  0.1120
 5321W        W48233   3.712   1.423  31.522 -0.0392 -0.0649 -0.0805
 5322W        W48234   2.510  34.374  28.421 -0.2379  0.1209  0.0566
 5323W        W48235   3.147   0.125  30.720  0.0231 -0.1090  0.1552
 5324W        W48236   1.394   3.849  28.224  0.2880 -0.0700  0.0586
 5325W        W48237   2.882   1.704  28.505 -0.0855 -0.3844 -0.0264
 5326W        W48238   3.000   0.925  28.448 -0.2387 -0.3172 -0.1651
 5327W        W48239  33.066   1.512  29.519 -0.0990 -0.1083  0.2148
 5328W        W48240  34.529   3.711  31.676 -0.1837 -0.0369 -0.4040
 5329W        W48241   1.826   1.350  28.903  0.2137  0.0274 -0.0090
 5330W        W48242   1.368   1.659  28.223  0.1074 -0.0946 -0.0791
 5331W        W48243   3.419   2.707  29.125  0.0042  0.1709  0.0011
 5332W        W48244   4.557   1.186  30.921  0.1760  0.1552  0.3719
 5333W        W48245   2.133  33.565  28.437  0.0698  0.0980 -0.1792
 5334W        W48246   1.827   1.106  30.929 -0.1610  0.0667  0.0375
 5335W        W48247   1.152   3.141  28.360  0.1913 -0.0073  0.3508
 5336W        W48248   4.263  33.231  29.696 -0.0025  0.1394 -0.1346
 5337W        W48249   1.811   3.776  31.016 -0.2181 -0.1604  0.0456
 5338W        W48250  34.557   3.092  30.206 -0.0267  0.4125 -0.4739
 5339W        W48251   2.535   4.191  29.580  0.2147 -0.0388 -0.1634
 5340W        W48252   2.666   0.114  29.770 -0.2592  0.2728 -0.1825
 5341W        W48253   3.625   1.771  30.371  0.1613 -0.1456 -0.0373
 5342W        W48254   3.189   1.944  29.661  0.0340  0.0712  0.2681
 5343W        W48255   3.252   2.528  31.179  0.0990 -0.2153  0.5133
 5344W        W48256   2.495   2.234  30.709  0.4093 -0.0159  0.1646
 5345W        W48257   2.110   2.509  28.570  0.5279 -0.2411 -0.3233
 5346W        W48258   2.324   3.107  31.526  0.0647 -0.1515 -0.3272
 5347W        W48259   2.895   2.143  28.066 -0.2754  0.1006  0.1171
 5348W        W48260   2.655   1.474  29.133 -0.1437 -0.2638 -0.0862
 5349W        W48261  34.221   0.501  30.741  0.2334 -0.0196 -0.1283
 5350W        W48262   2.401   3.088  30.080 -0.2427  0.0203  0.0194
 5351W        W48263   3.257   2.352  30.094  0.0510  0.1012  0.0507
 5352W        W48264   1.813  34.318  29.528  0.0193  0.1371  0.2197
 5353W        W48265   2.580   3.176  28.805  0.1799  0.1484  0.3584
 5354W        W48266   0.697   2.481   0.495 -0.3204 -0.3267  0.0441
 5355W        W48267   1.187   2.034  31.065 -0.0764  0.2315 -0.0820
 5356W        W48268   1.139   3.571  28.627  0.0403 -0.0615  0.1745
 5357W        W48269   3.674   1.394  28.231 -0.0613 -0.3300 -0.0279
 5358W        W48270   1.620   2.333  28.629 -0.0881 -0.1315 -0.2012
 5359W        W48271   3.296   3.277  30.277  0.1343  0.1360 -0.1075
 5360W        W48272   1.593   1.479  27.728  0.1137 -0.0297 -0.0816
 5361W        W48273   0.428   3.733  30.663 -0.0092 -0.0972  0.1289
 5362W        W48274   1.087   1.534  27.376 -0.3372 -0.5130  0.0818
 5363W        W48275   2.196   4.352  28.490 -0.1157 -0.4625  0.2880
 5364W        W48276   0.935   4.161  30.153  0.3074  0.0333  0.0920
 5365W        W48277   2.732   2.638  30.889  0.0295  0.1480  0.0908
 5366W        W48278   3.006  34.549  27.870  0.0307  0.1726  0.0972
 5367W        W48279   1.982   2.079  27.729 -0.1922 -0.1446  0.1775
 5368W        W48280   2.071  34.108  28.079 -0.0517 -0.4352  0.0293
 5369W        W48281   1.734   2.398   0.321  0.2667  0.1709 -0.2381
 5370W        W48282   2.418   2.012  30.036  0.0296 -0.2534  0.1927
 5371W        W48283   0.306   2.955  28.510  0.0730  0.1745 -0.1570
 5372W        W48284   1.405   0.842  30.696 -0.4207  0.0314 -0.1031
 5373W        W48285   4.293  34.082  30.987  0.2933 -0.0895  0.0480
 5374W        W48286   1.073   2.846   0.955  0.0621 -0.1807  0.1333
 5375W        W48287   4.338   3.966  26.971 -0.0045 -0.2584  0.1009
 5376W        W48288   1.679   0.634  29.037  0.0007  0.2476 -0.2278
 5377W        W48289   1.151  34.673  29.660  0.0995 -0.5350 -0.1411
 5378W        W48290   5.061  34.245  28.660 -0.3613 -0.0586 -0.2103
 5379W        W48291   1.792   4.153  27.604  0.0295 -0.1385  0.0599
 5380W        W48292   3.886   2.441  30.906 -0.1773 -0.0561  0.2423
 5381W        W48293   1.494   4.291  27.987  0.0949  0.2370  0.1215
 5382W        W48294   2.647   3.497  30.609 -0.2029  0.0565 -0.0774
 5383W        W48295   2.190   2.626  30.778 -0.1026  0.4485 -0.2783
 5384W        W48296   0.640   2.015  27.926  0.0140 -0.0432  0.1046
 5385W        W48297   3.694   0.854  28.174  0.0661  0.0391  0.0050
 5386W        W48298   2.147   1.676  30.653  0.0378  0.0681  0.2640
 5387W        W48299   4.011  33.465  28.977 -0.2046  0.0605 -0.4159
 5388W        W48300   0.539   1.148  30.044 -0.0002 -0.0654  0.2865
 5389W        W48301   2.508   1.270  28.024  0.0481 -0.0844  0.1446
 5390W        W48302   2.276   2.203  29.575  0.0346 -0.0608 -0.2126
 5391W        W48303   0.774   1.691  30.479  0.0921 -0.2587 -0.0087
 5392W        W48304   1.041   4.232  26.845 -0.3179 -0.1048  0.0098
 5393W        W48305   5.664   2.472   0.481 -0.4301  0.0167  0.1859
 5394W        W48306   2.118   3.267  28.135  0.0061 -0.1887  0.0896
 5395W        W48307   2.912   3.009  31.675  0.3675 -0.2353 -0.0114
 5396W        W48308   2.150   1.589  30.146  0.1195  0.2204  0.1426
 5397W        W48309   2.267   0.268  27.694  0.0524  0.1273  0.2928
 5398W        W48310   1.248   1.453  29.315 -0.2786 -0.1446  0.0849
 5399W        W48311   1.659   1.211  30.063  0.0520 -0.0873  0.0531
 5400W        W48312   3.041   3.303  30.732  0.0300 -0.1830 -0.0016
 5401W        W48313   1.295  34.298  29.308 -0.2096  0.0110 -0.2175
 5402W        W48314   3.903   3.789  26.114  0.1268 -0.1353  0.2973
 5403W        W48315   3.727   1.575  27.616  0.2331  0.0496  0.2419
 5404W        W48316   1.481   5.631  26.865 -0.1276  0.0155  0.1462
 5405W        W48317   2.536   2.260  28.456  0.1218 -0.1243 -0.5822
 5406W        W48318   2.741   2.572  28.820  0.1415 -0.3199 -0.2659
 5407W        W48319  34.242   1.854  30.596  0.0020  0.2379  0.1422
 5408W        W48320   2.245   2.545  29.116  0.0519 -0.1076  0.0818
 5409W        W48321   3.561   2.919  31.130 -0.2037  0.0396 -0.0703
 5410W        W48322   2.180  34.287  27.238  0.0639  0.2650 -0.0228
 5411W        W48323   1.248   1.626  28.807 -0.0583  0.1859  0.2720
 5412W        W48324   0.779   4.050  26.404 -0.0643  0.0748 -0.0745
 5413W        W48325   3.368   1.882  28.285 -0.0364  0.0404 -0.1307
 5414W        W48326   2.357   0.350  28.230 -0.2469  0.2206 -0.3578
 5415W        W48327   1.310   4.209  28.654  0.1767  0.2840  0.0648
 5416W        W48328   3.760  34.277  31.061  0.0065 -0.0282  0.0721
 5417W        W48329   3.184   3.126  29.749 -0.1378 -0.0334 -0.2375
 5418W        W48330   2.170   4.717  30.883 -0.0268 -0.0644  0.0853
 5419W        W48331   0.672   2.995  28.241  0.2132 -0.3891  0.0419
 5420W        W48332   1.866   1.761  31.262 -0.2899  0.0182 -0.2282
 5421W        W48333   1.937   3.403  28.825 -0.0551  0.0081  0.0750
 5422W        W48334   0.492   3.940  28.366  0.0302  0.3734 -0.1622
 5423W        W48335   5.305   3.310  29.903  0.1465 -0.0186  0.2984
 5424W        W48336   1.737  34.448  28.532 -0.6140  0.1258 -0.1273
 5425W        W48337   4.286   2.835  29.372  0.3885 -0.0250 -0.3132
 5426W        W48338   0.827  34.236  28.793  0.2126  0.0654  0.0236
 5427W        W48339   2.847   0.324  28.295 -0.1228 -0.0361  0.2769
 5428W        W48340   1.348   1.100  28.880 -0.1351  0.1123  0.1111
 5429W        W48341   1.104   2.497  31.222 -0.1417  0.0629  0.0072
 5430W        W48342   0.905   2.633  28.376 -0.2424 -0.2513  0.0943
 5431W        W48343   0.541   3.665  29.226 -0.1809 -0.1388  0.1467
 5432W        W48344   1.943   2.773  30.025  0.0933 -0.3715  0.1818
 5433W        W48345   2.594   0.128  31.516  0.2282 -0.3717 -0.0636
 5434W        W48346   1.747   0.545  31.815 -0.0390  0.3242  0.0229
 5435W        W48347   0.545   2.873  30.331 -0.1767 -0.1007 -0.0628
 5436W        W48348   1.967   0.414  29.416  0.0827  0.5143 -0.3561
 5437W        W48349   2.871   2.064  27.184  0.1067  0.0483  0.0933
 5438W        W48350   2.124   0.053  29.751 -0.1094 -0.2892  0.0075
 5439W        W48351   0.731   1.481  28.786 -0.0458  0.0459 -0.3703
 5440W        W48352   1.615   3.370  28.425 -0.0653  0.0712  0.0051
 5441W        W48353   1.328   3.452  27.945 -0.5077 -0.2478 -0.1007
 5442W        W48354   2.410  33.924  27.620  0.0123  0.3633  0.3033
 5443W        W48355   4.013   2.715  31.333  0.0596  0.3209 -0.0213
 5444W        W48356  33.960   2.616  28.083 -0.0525 -0.0966  0.1830
 5445W        W48357   2.119   0.702  31.302  0.1641  0.0013 -0.2586
 5446W        W48358   2.274   0.826  30.830  0.0542 -0.2658 -0.1192
 5447W        W48359   0.427  34.693  27.869 -0.1548  0.1455  0.2538
 5448W        W48360   1.713   0.741  29.643 -0.3191  0.0248 -0.1536
 5449W        W48361   2.023   2.047  29.074  0.1826  0.1662  0.3954
 5450W        W48362   3.832   4.182  29.004 -0.1285 -0.1074 -0.0469
 5451W        W48363   2.374   3.683  31.102 -0.0287  0.1809 -0.3112
 5452W        W48364   2.814   2.908  30.480 -0.2350  0.0560 -0.1695
 5453W        W48365   1.388  34.617  31.655 -0.3931 -0.1599 -0.1724
 5454W        W48366   2.959   2.762  27.687  0.2159 -0.1776 -0.0346
 5455W        W48367   3.188   2.412   0.503 -0.2174  0.1061 -0.0646
 5456W        W48368   4.212   2.996  26.462 -0.0750 -0.0139 -0.1510
 5457W        W48369   3.468  34.306  30.131  0.0532  0.2300  0.2732
 5458W        W48370   3.087   2.271  29.114 -0.1076 -0.0671 -0.2934
 5459W        W48371  34.668   1.123  31.341  0.1909  0.3699 -0.1530
 5460W        W48372   0.785   3.933  31.130 -0.2472 -0.0270  0.2497
 5461W        W48373   3.841   1.885  31.167  0.0234  0.0597 -0.0112
 5462W        W48374   2.361  34.256  28.968 -0.1096 -0.1271  0.2183
 5463W        W48375   2.359   0.442  29.062  0.4357  0.0783  0.3517
 5464W        W48376   1.866   1.715  28.101  0.0043 -0.1241  0.2575
 5465W        W48377   1.124   2.140  30.346  0.0709 -0.0944  0.1810
 5466W        W48378   2.165   1.553  29.239 -0.2242  0.2180 -0.0326
 5467W        W48379   1.703   1.976  30.763  0.0264  0.2009  0.0099
 5468W        W48380   1.451   2.841  30.211  0.3659 -0.0725  0.2659
 5469W        W48381   2.428   1.830  31.007 -0.2388  0.0405 -0.2527
 5470W        W48382   2.423  34.459  27.822 -0.0080  0.0881  0.0084
 5471W        W48383   3.259   1.745  27.830  0.1224 -0.0666 -0.0011
 5472W        W48384   3.031   4.201  30.684 -0.2305  0.2592 -0.0775
 5473W        W48385   2.439   2.635  31.828  0.1127  0.2839 -0.2748
 5474W        W48386   3.092   3.709  30.439  0.0588 -0.0036  0.2624
 5475W        W48387   4.144   1.349  30.629 -0.0380  0.2785 -0.2006
 5476W        W48388   0.925   0.679  30.141 -0.0791 -0.1397 -0.3222
 5477W        W48389   1.039   2.164  28.134 -0.2939 -0.0773 -0.0817
 5478W        W48390   3.565  34.550  27.824  0.0215  0.0395  0.0023
 5479W        W48391   3.870   1.595  29.907  0.1744 -0.1810  0.3921
 5480W        W48392   1.232   0.910  29.841  0.0156 -0.1753 -0.4285
 5481W        W48393   3.252   0.264  27.886 -0.2759  0.2411  0.0781
 5482W        W48394   0.558   4.041  31.526 -0.1255 -0.1020 -0.0021
 5483W        W48395   1.748   2.926  28.558 -0.1362  0.1155  0.2622
 5484W        W48396   2.579   1.000  31.254  0.0955  0.2721  0.3938
 5485W        W48397   2.852   1.884  31.707 -0.2028  0.4777 -0.0366
 5486W        W48398   1.343   0.252   0.087  0.0880  0.0728  0.1821
 5487W        W48399   0.347   2.938  31.148  0.2205 -0.0246 -0.1552
 5488W        W48400   2.459   2.978   0.643  0.0883 -0.0364 -0.0590
 5489W        W48401   1.011   3.514   0.454 -0.2496  0.0683  0.3696
 5490W        W48402   3.738   0.610   0.014  0.1141 -0.0780  0.2226
 5491W        W48403   2.022   0.967  31.759  0.0889  0.1486  0.0342
 5492W        W48404   3.271   0.440   0.226  0.0123  0.1330  0.0179
 5493W        W48405   4.594   3.144   0.099  0.0030  0.3275  0.1050
 5494W        W48406   4.544   2.379   0.700 -0.2083 -0.0331 -0.1439
 5495W        W48407  34.641   0.266  30.614  0.2002 -0.1344 -0.3996
 5496W        W48408   3.238   2.014   0.159  0.1069  0.0267  0.3775
 5497W        W48409   0.273   2.181   0.118 -0.0535 -0.0539 -0.1014
 5498W        W48410   4.164   1.841  31.665  0.0333  0.0534 -0.0154
 5499W        W48411   0.872   3.012  31.413  0.1936  0.3642 -0.1005
 5500W        W48412   0.486   3.426  31.137  0.1178  0.0684  0.0948
 5501W        W48413   2.811   1.876   0.435 -0.0485  0.1596  0.1699
 5502W        W48414   2.035  34.352   0.782 -0.0738 -0.1265  0.0689
 5503W        W48415   1.044  34.252   0.582  0.0548  0.1972 -0.0662
 5504W        W48416   1.646  34.475   0.440  0.1626 -0.2121 -0.0131
 5505W        W48417  33.450   3.968   0.686 -0.0350  0.0520 -0.0408
 5506W        W48418   4.469   0.425  31.442 -0.4233  0.0022  0.0686
 5507W        W48419   4.196   1.350  31.671  0.0077 -0.1344  0.1011
 5508W        W48420   1.605   0.806  31.264 -0.3581  0.0543  0.1314
 5509W        W48421   2.507   1.184  31.745  0.2066  0.4648 -0.1553
 5510W        W48422   1.539   1.481   0.952  0.2990 -0.3030 -0.0160
 5511W        W48423  33.331   3.459  31.897  0.0055  0.1405 -0.1709
 5512W        W48424   0.365   0.797  31.197  0.1535  0.1872 -0.0732
 5513W        W48425   2.703   3.432  31.854 -0.1472 -0.2307 -0.0649
 5514W        W48426   2.111   3.092   0.059  0.2053  0.0378 -0.0527
 5515W        W48427   2.383   2.612  30.230 -0.0244 -0.3168 -0.0445
 5516W        W48428   4.505   0.990   0.040 -0.1836 -0.0258 -0.3387
 5517W        W48429   2.951   0.648   0.560  0.0369 -0.0305 -0.3668
 5518W        W48430   0.325  34.671  31.941 -0.3487  0.1461  0.0570
 5519W        W48431   1.288   3.140   0.624 -0.1958 -0.0726  0.3267
 5520W        W48432   0.894   2.662  31.744 -0.0274  0.0136  0.1880
 5521W        W48433   3.644   3.102  30.617  0.0773 -0.0928 -0.3477
 5522W        W48434   3.134   1.018   2.042  0.2865  0.1520 -0.2447
 5523W        W48435   2.444   2.695  31.275 -0.2725  0.0753  0.1623
 5524W        W48436   3.787   0.505   1.079 -0.2385  0.0479  0.0757
 5525W        W48437   3.266   1.603  31.778 -0.1272  0.0257  0.1172
 5526W        W48438   2.693   1.382  30.894  0.2256  0.1804 -0.2477
 5527W        W48439   2.991   3.079   0.400  0.0791  0.0805 -0.1419
 5528W        W48440   1.224   0.500  31.613 -0.0905 -0.0801  0.2946
 5529W        W48441   1.134   1.247  30.814 -0.2660 -0.1880  0.0228
 5530W        W48442   2.176   0.560   0.177  0.2505  0.0618 -0.3088
 5531W        W48443   0.908   2.634  30.127  0.2759 -0.0296 -0.0657
 5532W        W48444   6.107   3.082  31.074  0.0978  0.0394 -0.0285
 5533W        W48445  33.867   4.220  31.372 -0.1516 -0.0186  0.0973
 5534W        W48446   5.038   2.931   0.074 -0.3515 -0.0532 -0.3368
 5535W        W48447   4.566   0.035  31.795 -0.4807 -0.0792 -0.0140
 5536W        W48448   2.812   0.235   0.013  0.2152  0.1805 -0.0221
 5537W        W48449   0.785   2.369  30.712  0.2476 -0.0879  0.0866
 5538W        W48450   1.656   1.813  30.185  0.0576 -0.3645 -0.1579
 5539W        W48451   1.394   2.112  29.029 -0.0498  0.0717  0.1101
 5540W        W48452   4.400   1.887   0.503  0.0007 -0.2276  0.1685
 5541W        W48453   1.219   4.114   0.158 -0.3376  0.0934  0.2244
 5542W        W48454   1.254   3.668   0.021  0.1963  0.3895  0.3118
 5543W        W48455   1.318   1.686  31.589  0.0442  0.0874 -0.0579
 5544W        W48456   1.797   1.336  31.542 -0.3734 -0.0322  0.1821
 5545W        W48457   0.547   1.658  31.027 -0.1300  0.0405 -0.1038
 5546W        W48458   0.742   1.661  31.674  0.1056 -0.0443 -0.1020
 5547W        W48459   0.281  34.517  30.604  0.1533 -0.4309 -0.2549
 5548W        W48460   3.966   3.293  30.966 -0.2169 -0.2477 -0.2247
 5549W        W48461   3.972   1.936   0.779 -0.3352 -0.1140  0.0653
 5550W        W48462   4.291   2.138  31.281  0.1822 -0.1893 -0.0121
 5551W        W48463   1.730   5.296  19.615  0.0357 -0.1427  0.0165
 5552W        W48464   1.138   5.047  17.133 -0.1954  0.0750 -0.1520
 5553W        W48465   3.268   4.535  15.890  0.2920 -0.2381 -0.1548
 5554W        W48466   2.610   6.216  17.146  0.0320  0.0416  0.1209
 5555W        W48467   0.439   4.844  18.326  0.1257 -0.0200 -0.1439
 5556W        W48468   2.690   7.322  16.110  0.1960 -0.1521  0.2601
 5557W        W48469  34.666   3.867  19.995  0.2866 -0.2281 -0.0502
 5558W        W48470   3.054   6.789  18.225  0.1863 -0.1187  0.0613
 5559W        W48471   3.719   7.449  17.922 -0.0602  0.0332 -0.0346
 5560W        W48472   2.359   5.054  16.015 -0.0359  0.0391 -0.4651
 5561W        W48473   1.422   4.919  18.057  0.0941 -0.2286  0.2719
 5562W        W48474   2.453   6.411  19.912  0.0111  0.0032 -0.0566
 5563W        W48475   1.706   3.433  17.411  0.0720 -0.0047  0.1088
 5564W        W48476  33.910   3.324  19.700  0.0155 -0.3448 -0.1423
 5565W        W48477   1.164   5.078  18.895 -0.0689  0.0295 -0.0467
 5566W        W48478   0.233   5.967  18.016 -0.2264 -0.1748  0.0385
 5567W        W48479   1.972   4.709  17.330 -0.2701 -0.1033  0.1194
 5568W        W48480  34.552   3.978  16.766 -0.1752  0.2688  0.0052
 5569W        W48481   1.121   7.392  17.245  0.5820 -0.1359 -0.0594
 5570W        W48482   1.238   3.473  17.220 -0.0469 -0.3665  0.0664
 5571W        W48483   2.482   5.120  19.402  0.3176 -0.0117 -0.0431
 5572W        W48484   2.159   6.939  16.769 -0.0226  0.4040  0.0484
 5573W        W48485   0.047   5.120  16.801  0.1600  0.1204 -0.0267
 5574W        W48486  34.203   5.040  19.011 -0.1297  0.0859  0.1808
 5575W        W48487   0.604   5.933  19.156 -0.1841 -0.1926 -0.2374
 5576W        W48488   2.994   4.412  17.616  0.0797  0.0335  0.1406
 5577W        W48489   2.336   5.817  17.397  0.0128  0.2537  0.0902
 5578W        W48490   2.820   7.102  17.351  0.0234  0.4894 -0.3115
 5579W        W48491   2.437   6.950  18.173 -0.3607 -0.2515 -0.0683
 5580W        W48492   3.417   6.118  18.352 -0.1111 -0.3409  0.3166
 5581W        W48493  34.445   5.916  18.150 -0.2320  0.0155 -0.0452
 5582W        W48494  34.503   7.487  17.435 -0.2016 -0.0739  0.2320
 5583W        W48495   1.314   7.724  16.814 -0.0212 -0.1335 -0.0606
 5584W        W48496   3.886   5.897  17.796  0.1212 -0.1882  0.3392
 5585W        W48497   4.304   7.117  19.093  0.2503 -0.2517  0.0203
 5586W        W48498   0.835   8.726  19.897 -0.0440  0.2506  0.4007
 5587W        W48499   0.347   7.126  15.997 -0.1550  0.1672 -0.1691
 5588W        W48500   1.950   7.329  19.832 -0.1974 -0.0064  0.0015
 5589W        W48501   1.828   7.928  19.121  0.1367  0.2146  0.1567
 5590W        W48502   1.354   5.223  17.575  0.2537  0.2334  0.2880
 5591W        W48503   1.897   5.921  17.117  0.4523 -0.3855  0.1116
 5592W        W48504   0.010   5.915  17.469 -0.1426 -0.0304  0.0438
 5593W        W48505   2.520   6.645  17.333  0.0750  0.2743  0.2287
 5594W        W48506   0.340   6.106  19.531  0.0461 -0.0450  0.3029
 5595W        W48507   0.773   6.558  18.713  0.0885 -0.4824 -0.1144
 5596W        W48508   3.538   5.765  19.247  0.0413  0.0772 -0.0214
 5597W        W48509   0.093   6.493  16.735  0.0923 -0.4783  0.0762
 5598W        W48510   2.098   4.691  16.153 -0.1921 -0.1610 -0.1069
 5599W        W48511   0.595   3.809  16.496  0.0053  0.1436 -0.2970
 5600W        W48512   1.401   3.497  16.648  0.1743 -0.2330  0.3582
 5601W        W48513   0.915   4.973  18.244  0.2659  0.1287  0.0065
 5602W        W48514   1.577   6.679  18.273  0.4062 -0.0010  0.0358
 5603W        W48515   1.024   3.585  17.660  0.1433  0.3253  0.0960
 5604W        W48516   3.099   6.377  18.651  0.0485 -0.2217 -0.2142
 5605W        W48517   1.995   4.925  16.813 -0.1608 -0.1134 -0.0421
 5606W        W48518   2.605   4.968  17.399 -0.2148  0.3520  0.2144
 5607W        W48519   0.980   7.801  19.665 -0.1246  0.1009 -0.4008
 5608W        W48520   2.117   5.855  16.529  0.1325 -0.3302  0.0537
 5609W        W48521   1.268   6.405  16.654 -0.1560 -0.2367 -0.1548
 5610W        W48522   3.068   6.367  17.383 -0.1061 -0.1193  0.0039
 5611W        W48523   3.570   6.912  16.286  0.2619  0.0973 -0.2085
 5612W        W48524   0.590   6.142  17.675  0.0444  0.0230  0.0691
 5613W        W48525   1.590   6.451  19.905  0.0946  0.1626 -0.0709
 5614W        W48526   0.736   5.696  18.282  0.1097 -0.0999  0.0581
 5615W        W48527   1.735   4.674  16.444 -0.0294  0.0329  0.3333
 5616W        W48528   4.421   6.771  19.394  0.1417 -0.0797  0.2853
 5617W        W48529   0.371   6.766  20.245  0.0952 -0.2564  0.0512
 5618W        W48530   3.528   4.012  17.592  0.1075  0.0508 -0.0912
 5619W        W48531   0.857   6.511  17.936 -0.0730 -0.0103  0.2429
 5620W        W48532   2.383   7.088  19.615  0.1884 -0.0796  0.0712
 5621W        W48533   1.929   4.899  18.248  0.0340 -0.0938  0.1673
 5622W        W48534   1.488   3.917  16.928  0.1054 -0.1667  0.0799
 5623W        W48535   2.635   4.547  18.043  0.0535 -0.0243 -0.1048
 5624W        W48536   0.179   5.021  17.275 -0.0521 -0.1346 -0.1389
 5625W        W48537  34.541   5.950  16.526 -0.0195  0.5406  0.5197
 5626W        W48538   4.392   8.231  19.443 -0.2823  0.1846 -0.0898
 5627W        W48539   1.532   4.803  17.023 -0.1060 -0.5579 -0.1147
 5628W        W48540   1.585   6.518  20.676  0.0579 -0.1042 -0.0964
 5629W        W48541   2.057   6.582  18.387  0.0332  0.0439 -0.1328
 5630W        W48542   2.666   5.851  20.067  0.1936  0.2318 -0.0357
 5631W        W48543   0.883   6.543  16.195  0.2832 -0.1282  0.0361
 5632W        W48544  33.933   4.234  18.934  0.0680 -0.4090 -0.1015
 5633W        W48545  33.626   6.463  17.823 -0.1728  0.0782  0.0381
 5634W        W48546   0.887   4.744  19.217 -0.1839 -0.2613 -0.2958
 5635W        W48547   0.213   5.643  19.220  0.0274 -0.1805  0.1234
 5636W        W48548   3.666   5.686  16.265 -0.2199  0.0050 -0.3353
 5637W        W48549   0.102   4.528  19.532  0.0477 -0.2756 -0.2310
 5638W        W48550   1.731   3.794  17.762  0.0872  0.0079 -0.0156
 5639W        W48551   1.149   6.368  18.391 -0.1104 -0.0958  0.0466
 5640W        W48552   3.603   6.711  16.798  0.2943 -0.1101  0.2649
 5641W        W48553   2.442   4.342  16.201 -0.0976  0.0014 -0.0557
 5642W        W48554   1.194   6.687  15.816  0.0774 -0.0241  0.2751
 5643W        W48555   2.139   4.842  19.221 -0.1843  0.0707 -0.4533
 5644W        W48556   1.468   4.771  17.555 -0.2059 -0.1590  0.4078
 5645W        W48557   0.538   4.264  19.331 -0.3296  0.1334 -0.1562
 5646W        W48558   0.505   4.781  18.871 -0.0857 -0.0162  0.0558
 5647W        W48559   1.908   5.344  19.152  0.0424  0.0094 -0.1419
 5648W        W48560  34.026   4.309  17.420 -0.0185  0.1941 -0.1975
 5649W        W48561   2.782   5.558  16.640  0.0141  0.0937 -0.0361
 5650W        W48562   0.670   5.758  16.668  0.2432 -0.0800 -0.3822
 5651W        W48563   0.653   4.943  17.286 -0.1514  0.0929  0.1062
 5652W        W48564   3.659   5.126  18.952  0.2167 -0.1053 -0.0940
 5653W        W48565   2.670   6.799  16.901  0.2683 -0.0031 -0.0425
 5654W        W48566   1.148   7.592  20.362 -0.0056 -0.1005  0.0751
 5655W        W48567   3.079   6.038  16.370 -0.1441 -0.1877  0.0247
 5656W        W48568   0.687   3.782  19.319 -0.2172  0.1509 -0.3026
 5657W        W48569   1.493   4.162  16.241 -0.1741 -0.0563 -0.2402
 5658W        W48570   0.013   7.704  16.895  0.0753  0.1421  0.2076
 5659W        W48571   2.233   7.657  19.016 -0.0928 -0.0398 -0.2040
 5660W        W48572   2.145   4.381  16.599  0.3718  0.1976  0.0791
 5661W        W48573   3.108   5.938  17.859  0.4342 -0.0577 -0.0704
 5662W        W48574   1.693   5.860  15.943 -0.0310  0.1145 -0.1821
 5663W        W48575   1.123   6.667  19.086  0.3231  0.0186  0.3974
 5664W        W48576   1.296   4.612  19.015 -0.0054  0.2321 -0.1531
 5665W        W48577   3.006   5.241  19.113  0.1769  0.2058 -0.1863
 5666W        W48578   2.273   5.619  16.110 -0.0603  0.1917 -0.2796
 5667W        W48579  34.180   4.186  16.532 -0.0464  0.1068 -0.0347
 5668W        W48580   0.707   7.817  18.125  0.0199  0.0829 -0.2629
 5669W        W48581   1.040   7.074  17.672  0.1621 -0.1095 -0.0794
 5670W        W48582  33.406   4.208  18.248 -0.3782 -0.0427  0.0291
 5671W        W48583   2.175   6.648  17.817 -0.0328 -0.2070  0.0015
 5672W        W48584   2.236   3.689  17.734  0.1028  0.0391  0.0236
 5673W        W48585   0.606   6.454  19.773 -0.1465  0.0426  0.4496
 5674W        W48586   2.692   6.612  18.958  0.0490  0.4502  0.1162
 5675W        W48587   0.843   4.398  16.496 -0.1296  0.1835  0.0682
 5676W        W48588   0.666   7.432  20.496  0.1338  0.0880  0.3341
 5677W        W48589   1.631   3.672  16.183  0.1179  0.0841  0.0136
 5678W        W48590   2.895   3.770  15.501 -0.0601 -0.0818  0.1564
 5679W        W48591   2.452   6.606  19.466 -0.0320 -0.1083 -0.1339
 5680W        W48592   2.788   5.207  16.240  0.2575 -0.4375 -0.1467
 5681W        W48593   0.419   3.701  16.003 -0.0037  0.1779 -0.0984
 5682W        W48594   1.931   2.622  16.821 -0.2230 -0.0515 -0.0878
 5683W        W48595   1.719   7.562  20.463 -0.0497  0.1248  0.1043
 5684W        W48596   1.870   7.295  17.129 -0.0632 -0.1527  0.1211
 5685W        W48597   1.226   6.150  17.847 -0.1488 -0.2408 -0.0883
 5686W        W48598   0.874   6.056  16.376 -0.2253 -0.0300  0.0847
 5687W        W48599   3.000   7.771  15.934 -0.1215 -0.0027  0.1093
 5688W        W48600   0.723   6.416  19.197  0.1761 -0.3860 -0.1110
 5689W        W48601   2.948   6.297  20.111 -0.1387 -0.1592  0.0919
 5690W        W48602   2.860   7.350  16.619  0.4604  0.0130  0.1589
 5691W        W48603   1.222   2.756  17.959  0.2794  0.0864  0.0306
 5692W        W48604   1.590   5.758  16.673 -0.3403  0.1199 -0.0993
 5693W        W48605   0.717   4.121  16.899  0.0386 -0.4143  0.1462
 5694W        W48606  33.467   6.446  16.264 -0.4720  0.5124  0.0318
 5695W        W48607   2.709   3.886  18.467 -0.0234 -0.1698 -0.2266
 5696W        W48608   2.891   5.546  17.716  0.0741  0.0566  0.3054
 5697W        W48609   1.766   5.155  20.082 -0.1438 -0.0224 -0.0715
 5698W        W48610   3.035   7.353  19.416 -0.0721  0.0802  0.2125
 5699W        W48611   1.959   4.169  16.151 -0.0738 -0.1645  0.5311
 5700W        W48612   2.280   6.263  18.075 -0.2273 -0.1164 -0.0004
 5701W        W48613   0.550   6.213  16.761 -0.1859  0.1250  0.0898
 5702W        W48614   1.999   5.820  18.326 -0.1551 -0.1142 -0.0276
 5703W        W48615   0.699   5.659  19.554 -0.4283  0.0035 -0.1984
 5704W        W48616   0.113   8.092  19.062  0.0964  0.1599 -0.0202
 5705W        W48617   2.302   6.031  19.698 -0.4761 -0.1213  0.0780
 5706W        W48618   1.109   4.413  17.797 -0.2062  0.0133 -0.0343
 5707W        W48619   1.627   4.977  19.241 -0.0268  0.1303  0.0192
 5708W        W48620   1.662   4.496  15.933  0.0634  0.0396  0.1329
 5709W        W48621   0.647   5.858  17.133  0.3062 -0.2210 -0.0357
 5710W        W48622   1.428   5.031  16.287  0.3048 -0.1111  0.0323
 5711W        W48623   1.943   3.183  19.476  0.1678  0.1466  0.2369
 5712W        W48624   1.676   6.259  18.541  0.1050  0.1069 -0.0357
 5713W        W48625   1.068   6.001  15.913 -0.1580 -0.0078  0.2513
 5714W        W48626   1.610   6.724  18.931 -0.0045  0.1774 -0.1073
 5715W        W48627   1.714   6.662  16.979  0.0585 -0.3234  0.1573
 5716W        W48628   2.784   3.414  17.367 -0.1085 -0.0183 -0.0206
 5717W        W48629   0.316   6.759  18.533 -0.1253 -0.1770  0.1627
 5718W        W48630   1.115   5.870  16.864 -0.0437 -0.0074  0.3428
 5719W        W48631  32.656   5.528  17.187  0.0297  0.0755  0.0848
 5720W        W48632   1.902   3.021  17.090  0.0482  0.0190  0.3261
 5721W        W48633   3.577   6.510  17.400 -0.0588  0.0076  0.0605
 5722W        W48634   0.118   4.542  18.597  0.3212 -0.3186  0.0383
 5723W        W48635   0.942   5.783  17.818 -0.0703  0.1659  0.0117
 5724W        W48636  33.850   7.083  19.150 -0.1313  0.2268 -0.1977
 5725W        W48637   1.605   5.229  18.801  0.1981  0.2580  0.1981
 5726W        W48638   2.266   3.883  16.881 -0.2299 -0.0897 -0.0425
 5727W        W48639   2.750   6.808  19.893  0.1167 -0.1961 -0.1104
 5728W        W48640   1.370   6.293  20.301 -0.1789  0.1884  0.0007
 5729W        W48641  34.436   3.704  17.648 -0.0660 -0.0871  0.4509
 5730W        W48642   3.683   5.330  18.425 -0.1510 -0.1624  0.1078
 5731W        W48643   1.111   4.537  17.287  0.4183  0.0158 -0.0495
 5732W        W48644   1.484   7.125  17.400  0.2641  0.2378 -0.0748
 5733W        W48645   0.699   8.058  19.320  0.0181  0.1989  0.0132
 5734W        W48646   0.550   4.563  17.898  0.3561  0.0524 -0.1443
 5735W        W48647   0.933   6.310  17.057  0.0265  0.0559  0.2356
 5736W        W48648   1.017   5.196  19.442  0.1767  0.0048  0.1296
 5737W        W48649   2.606   4.379  18.537  0.2133  0.0703 -0.1317
 5738W        W48650   0.940   4.232  19.072  0.0326  0.1229  0.1609
 5739W        W48651  34.117   3.616  16.734 -0.2189 -0.1288  0.4254
 5740W        W48652   2.020   4.876  18.741 -0.1597  0.2005 -0.1553
 5741W        W48653   2.155   6.661  18.861  0.0473  0.1134 -0.0310
 5742W        W48654   1.068   3.814  18.329  0.0601 -0.4138 -0.1456
 5743W        W48655   1.324   6.293  18.873  0.3194  0.1783  0.0067
 5744W        W48656   2.282   3.849  18.223  0.2406  0.2353 -0.2595
 5745W        W48657   4.629   7.332  16.553 -0.0394  0.0993 -0.2504
 5746W        W48658   1.142   7.303  19.362 -0.0565 -0.0518 -0.1287
 5747W        W48659   0.256   5.487  17.125  0.0926 -0.1621  0.2502
 5748W        W48660  34.124   4.688  18.667 -0.0077 -0.0862 -0.1442
 5749W        W48661   2.181   6.132  16.088 -0.1442 -0.1089 -0.2400
 5750W        W48662   0.697   5.182  18.721 -0.0949  0.2074  0.0975
 5751W        W48663  34.516   5.356  18.329  0.3220 -0.0878  0.0505
 5752W        W48664  34.021   6.634  16.859 -0.0505  0.0993  0.1336
 5753W        W48665   0.322   6.774  19.035 -0.2042 -0.0187 -0.0735
 5754W        W48666   2.009   3.731  15.918 -0.0764 -0.0038 -0.1643
 5755W        W48667   2.271   5.321  16.541 -0.1590  0.1502  0.1517
 5756W        W48668   2.467   5.336  17.667  0.1263 -0.3691 -0.0357
 5757W        W48669   2.336   6.282  19.119  0.3215 -0.1041  0.2894
 5758W        W48670   3.422   5.187  16.291 -0.0321  0.0970  0.0313
 5759W        W48671   2.586   4.832  20.347 -0.2197 -0.0303  0.0557
 5760W        W48672   0.310   4.046  17.762 -0.0402 -0.0039  0.1161
 5761W        W48673   2.648   6.177  17.634  0.0934  0.1417  0.0068
 5762W        W48674   1.147   4.471  19.503 -0.0850 -0.1271 -0.3250
 5763W        W48675   3.497   8.481  19.698  0.2412  0.1924 -0.0211
 5764W        W48676  34.678   4.801  19.022 -0.3333 -0.0906 -0.0372
 5765W        W48677   3.234   5.427  18.094 -0.0101  0.0912  0.2706
 5766W        W48678   0.421   2.958  17.414  0.2867 -0.0576  0.0151
 5767W        W48679   1.984   6.713  19.283  0.0469 -0.2111  0.1206
 5768W        W48680   2.796   6.109  18.920  0.1215 -0.1754 -0.0224
 5769W        W48681   2.285   6.531  16.443 -0.3779 -0.0896  0.2316
 5770W        W48682   3.228   3.251  17.462  0.0112 -0.0030 -0.1114
 5771W        W48683   1.051   6.890  18.162  0.3709  0.0385  0.0998
 5772W        W48684   2.192   6.299  17.504  0.0696  0.2554 -0.1305
 5773W        W48685   2.441   4.631  16.999 -0.0145 -0.1217 -0.1204
 5774W        W48686   1.436   5.555  17.180  0.2045 -0.4284  0.0262
 5775W        W48687   0.786   4.005  17.903  0.1145  0.1077  0.1949
 5776W        W48688   3.317   6.366  16.982  0.2732  0.1506  0.3060
 5777W        W48689   1.861   3.879  17.248  0.0395 -0.5427 -0.1623
 5778W        W48690   2.094   5.791  18.865 -0.1254 -0.0257  0.0506
 5779W        W48691   1.722   6.277  18.024 -0.0973 -0.0020 -0.0539
 5780W        W48692   1.556   5.726  18.767  0.0858  0.2092 -0.0803
 5781W        W48693  33.873   3.926  19.619 -0.0769 -0.2445 -0.2656
 5782W        W48694   2.806   7.276  18.349 -0.1563 -0.1165  0.2129
 5783W        W48695   3.296   5.570  16.562  0.2657  0.2216 -0.2713
 5784W        W48696   3.109   4.845  18.846 -0.1342  0.1290 -0.3507
 5785W        W48697   2.708   4.673  15.907  0.0239 -0.1633 -0.1041
 5786W        W48698   1.738   5.182  17.256  0.2113 -0.0320  0.1534
 5787W        W48699  33.790   3.935  16.885  0.0397 -0.1322 -0.1191
 5788W        W48700   2.743   7.279  20.108 -0.1237 -0.1408  0.0520
 5789W        W48701  33.701   3.858  16.418  0.0015 -0.0182 -0.1016
 5790W        W48702   1.768   5.095  17.760  0.1103 -0.1517 -0.0786
 5791W        W48703   1.522   7.714  16.339  0.3298 -0.1979  0.1626
 5792W        W48704   2.420   5.742  16.909  0.3969  0.0962  0.0194
 5793W        W48705   2.236   4.229  17.227 -0.1118  0.2485  0.1031
 5794W        W48706   0.297   5.376  18.445  0.1409 -0.0936 -0.1035
 5795W        W48707   1.046   6.872  19.589 -0.3146 -0.0126 -0.2419
 5796W        W48708   0.699   5.358  16.960  0.0500 -0.1759  0.0247
 5797W        W48709   2.660   5.426  15.824  0.0277  0.0756 -0.4101
 5798W        W48710   2.673   7.710  20.413 -0.3398 -0.3545  0.0571
 5799W        W48711   3.756   6.995  18.773 -0.0962  0.1203 -0.0195
 5800W        W48712   0.974   3.109  16.840 -0.0874  0.3437  0.4927
 5801W        W48713   2.106   5.717  19.352 -0.1528 -0.0777 -0.1454
 5802W        W48714  34.639   6.342  16.239  0.4027  0.0975 -0.2959
 5803W        W48715   2.044   5.366  18.538 -0.0010  0.0279 -0.0770
 5804W        W48716   0.710   7.693  20.052  0.3664  0.3335  0.1629
 5805W        W48717   1.229   6.792  18.601 -0.0407 -0.1496 -0.2642
 5806W        W48718   1.515   5.783  17.748  0.0131 -0.2771 -0.1428
 5807W        W48719   2.645   3.056  19.665 -0.0077  0.0049  0.2574
 5808W        W48720   3.441   5.705  17.015 -0.3459  0.4905 -0.0492
 5809W        W48721   2.468   4.808  16.473  0.2677  0.1732  0.0745
 5810W        W48722   2.456   5.424  18.937 -0.4548 -0.2233 -0.0205
 5811W        W48723   2.000   7.330  19.335  0.3728  0.3182  0.4965
 5812W        W48724   1.650   6.295  17.502 -0.2208  0.0097  0.1528
 5813W        W48725   2.417   8.633  18.815  0.1071  0.0688  0.3983
 5814W        W48726   4.029   5.694  16.826  0.0882  0.1566 -0.0752
 5815W        W48727   0.590   5.311  17.969 -0.1722  0.1192  0.0484
 5816W        W48728  34.536   4.081  19.534  0.1127 -0.3265  0.0505
 5817W        W48729   2.255   6.129  20.645  0.1385 -0.1838 -0.0887
 5818W        W48730   2.524   6.991  16.441  0.3292  0.2082  0.1797
 5819W        W48731   0.844   3.639  16.894  0.0061 -0.0607 -0.5180
 5820W        W48732   0.464   7.716  16.760  0.2922  0.2764 -0.0267
 5821W        W48733   1.008   6.812  21.354 -0.1828 -0.0055 -0.0848
 5822W        W48734   0.531   6.829  19.487 -0.4235  0.0237 -0.0809
 5823W        W48735   0.936   7.420  16.747 -0.0049  0.0473  0.0641
 5824W        W48736   3.140   5.037  15.922  0.0772 -0.1909  0.1348
 5825W        W48737   1.480   5.235  16.709  0.3866 -0.4559  0.1476
 5826W        W48738   1.851   7.569  18.122 -0.1561  0.4384  0.0501
 5827W        W48739   2.554   3.379  16.242  0.1449  0.1122 -0.0065
 5828W        W48740   1.278   6.644  17.735 -0.2835  0.1019  0.4424
 5829W        W48741  34.124   6.523  17.775 -0.1392  0.3680 -0.1274
 5830W        W48742   2.712   6.412  16.207  0.3784  0.0566  0.4173
 5831W        W48743   0.413   6.742  17.067 -0.2437 -0.1107 -0.0619
 5832W        W48744   2.569   7.499  19.407  0.0524  0.3271 -0.0094
 5833W        W48745   2.811   4.257  15.634 -0.0834  0.0097 -0.2233
 5834W        W48746   2.845   5.427  17.240 -0.1673 -0.1427  0.0167
 5835W        W48747   4.240   4.780  16.399  0.0869  0.1005 -0.0135
 5836W        W48748   2.638   7.017  21.065  0.1618  0.0048  0.0938
 5837W        W48749   0.675   6.974  16.478 -0.2420  0.3084  0.0544
 5838W        W48750  34.647   2.363  16.549  0.1124 -0.0322  0.2969
 5839W        W48751   1.398   5.932  19.701  0.2934  0.2261 -0.2304
 5840W        W48752   3.021   4.795  19.380 -0.0847 -0.0357 -0.0495
 5841W        W48753   0.004   7.388  20.557 -0.0249 -0.0405  0.2395
 5842W        W48754   3.530   7.939  16.093  0.1831  0.3132  0.0151
 5843W        W48755   0.178   4.545  17.525  0.1347  0.0668 -0.2545
 5844W        W48756   1.631   4.318  17.469 -0.1939  0.0707 -0.0641
 5845W        W48757   4.167   3.101  17.728 -0.3293  0.0230 -0.2188
 5846W        W48758   1.378   5.683  16.252  0.1026 -0.0375 -0.1769
 5847W        W48759   2.655   5.080  16.909  0.2852  0.2009  0.1239
 5848W        W48760   0.841   6.642  17.428  0.2294  0.2419 -0.0363
 5849W        W48761   1.412   4.844  18.530 -0.0980 -0.0245  0.4750
 5850W        W48762   0.676   7.385  19.562 -0.1130  0.0881  0.1222
 5851W        W48763   0.166   3.414  17.454  0.1597  0.0211 -0.0307
 5852W        W48764   4.425   4.737  18.453  0.0610 -0.1342  0.0572
 5853W        W48765   0.916   4.606  18.652 -0.0634  0.1410  0.2049
 5854W        W48766   3.414   4.418  18.120  0.1788 -0.1350 -0.1421
 5855W        W48767  34.620   5.514  17.815 -0.1490 -0.2237  0.0637
 5856W        W48768   3.079   4.839  17.255  0.1583  0.0871  0.2506
 5857W        W48769   2.491   7.016  19.168  0.2209  0.1799  0.3407
 5858W        W48770  34.505   5.564  16.901  0.0912 -0.0625 -0.0111
 5859W        W48771   0.864   5.388  17.439 -0.1994 -0.3493  0.1973
 5860W        W48772   2.919   6.837  19.378  0.2784  0.2163 -0.1951
 5861W        W48773   1.149   4.906  16.643 -0.0025  0.0506  0.1056
 5862W        W48774   3.371   7.846  17.764 -0.4189 -0.3201  0.1916
 5863W        W48775  34.377   4.820  17.022 -0.3506  0.0404 -0.2074
 5864W        W48776   1.944   5.474  16.918 -0.0755 -0.1407 -0.1721
 5865W        W48777   1.336   4.422  16.673  0.0109 -0.0105  0.0996
 5866W        W48778   1.145   5.428  18.527 -0.3098  0.1867 -0.0788
 5867W        W48779   2.104   8.005  20.163  0.3612  0.1152 -0.1420
 5868W        W48780  33.958   3.378  17.838 -0.0074  0.2875 -0.1362
 5869W        W48781   2.595   6.071  16.593  0.0935 -0.0646  0.1167
 5870W        W48782   3.855   4.397  17.284  0.4442  0.0852  0.0331
 5871W        W48783  34.288   6.224  17.371 -0.2814  0.3532 -0.0991
 5872W        W48784   3.744   6.381  16.343  0.1033 -0.0693  0.1084
 5873W        W48785   3.990   7.731  17.663 -0.0864  0.4518 -0.2214
 5874W        W48786  33.781   4.713  19.021 -0.0841 -0.2225 -0.0077
 5875W        W48787   3.110   7.491  17.546 -0.2073 -0.0726  0.1181
 5876W        W48788   4.772   4.959  19.810 -0.4442 -0.1408 -0.1671
 5877W        W48789   2.099   3.097  16.572 -0.1830 -0.0531 -0.0504
 5878W        W48790  34.459   5.317  17.355 -0.0899  0.1658 -0.0960
 5879W        W48791   0.575   8.040  16.265 -0.1429 -0.5073  0.0536
 5880W        W48792   2.964   4.931  17.815 -0.0405 -0.3351 -0.1632
 5881W        W48793   3.239   7.031  18.623  0.2992 -0.1831  0.0622
 5882W        W48794   0.153   5.902  16.927  0.2291 -0.0519  0.3886
 5883W        W48795   3.876   3.673  19.303  0.0400 -0.0024 -0.3974
 5884W        W48796   1.358   7.695  18.478 -0.2949 -0.1250  0.3899
 5885W        W48797   1.898   6.581  20.332  0.2148  0.0353 -0.0352
 5886W        W48798  34.112   5.770  16.642 -0.2615 -0.2957 -0.1666
 5887W        W48799   2.041   6.674  19.771 -0.0496 -0.1846  0.0586
 5888W        W48800   1.704   7.247  16.498  0.3501 -0.1046 -0.0448
 5889W        W48801   1.879   7.286  17.702 -0.0395  0.1219  0.0276
 5890W        W48802   2.373   6.150  18.598  0.0964 -0.0351  0.2376
 5891W        W48803   1.640   5.362  18.226  0.1875  0.1382  0.1259
 5892W        W48804   3.501   6.008  17.434 -0.2544 -0.0549 -0.0472
 5893W        W48805   0.630   4.463  17.354  0.2848  0.3117 -0.0887
 5894W        W48806   3.010   3.338  16.553 -0.2527  0.0303 -0.1424
 5895W        W48807   0.993   4.078  16.128  0.3237 -0.0526 -0.0604
 5896W        W48808   0.593   5.322  19.185  0.0321 -0.2647 -0.2811
 5897W        W48809   0.816   4.687  16.917 -0.0462 -0.1129  0.0311
 5898W        W48810   0.488   6.177  16.045 -0.0226  0.1669 -0.3197
 5899W        W48811   1.161   5.346  18.045  0.0711  0.2623 -0.2132
 5900W        W48812   1.315   4.234  18.528  0.2435  0.1682 -0.0576
 5901W        W48813   1.040   4.469  20.622  0.4094  0.0404 -0.2262
 5902W        W48814   0.035   5.909  18.588 -0.0102  0.2715 -0.2369
 5903W        W48815  33.855   2.816  17.034  0.1686 -0.0709 -0.3302
 5904W        W48816   3.116   6.496  15.720 -0.2269  0.2869  0.2424
 5905W        W48817   1.476   3.293  17.866  0.1359  0.0513  0.1306
 5906W        W48818  34.301   4.531  19.136  0.1101  0.2055  0.2509
 5907W        W48819   2.183   6.441  16.965 -0.1045 -0.2585  0.0217
 5908W        W48820   2.309   7.430  16.665 -0.0899 -0.1065 -0.1878
 5909W        W48821   0.233   4.978  17.798 -0.4173 -0.1679  0.1028
 5910W        W48822   3.441   7.219  19.098  0.0902 -0.1834  0.0925
 5911W        W48823   1.301   6.335  16.187 -0.3329  0.2163 -0.1956
 5912W        W48824   1.854   6.280  18.991 -0.0635 -0.0609  0.3477
 5913W        W48825   1.458   5.830  18.249 -0.0117 -0.2153 -0.0765
 5914W        W48826  34.389   3.279  16.439  0.1306 -0.1684 -0.2287
 5915W        W48827   2.783   4.260  17.106  0.0290  0.0350  0.2438
 5916W        W48828   1.987   7.110  18.202  0.0682 -0.1843  0.1428
 5917W        W48829   2.748   7.586  17.172  0.1388 -0.1915  0.0055
 5918W        W48830   1.506   6.487  19.374 -0.0300 -0.1706 -0.0777
 5919W        W48831   2.918   9.028  19.907 -0.1991 -0.0331  0.0156
 5920W        W48832   0.433   4.833  19.350  0.0166 -0.4015 -0.0822
 5921W        W48833   3.729   4.774  16.300  0.0984  0.0150 -0.2362
 5922W        W48834   1.529   6.947  19.924 -0.2209 -0.0664 -0.1177
 5923W        W48835   3.185   6.979  17.051 -0.0376  0.0185  0.0513
 5924W        W48836   3.344   2.856  17.797  0.1850 -0.0020 -0.2094
 5925W        W48837   2.432   5.677  18.506 -0.1297  0.3440 -0.3240
 5926W        W48838   0.131   4.876  19.931  0.1461 -0.1511  0.0421
 5927W        W48839  34.307   6.120  18.733  0.0269 -0.1988 -0.3790
 5928W        W48840   1.993   7.818  19.617 -0.1704  0.2893  0.0946
 5929W        W48841   1.408   2.997  17.397  0.1152 -0.1656 -0.0306
 5930W        W48842   3.047   4.572  16.818  0.3192  0.3520  0.4136
 5931W        W48843   2.726   5.870  16.087  0.0285 -0.1517  0.0861
 5932W        W48844   0.049   4.274  19.024 -0.3045 -0.1943  0.0885
 5933W        W48845   2.009   5.935  17.800  0.0134  0.0849  0.1085
 5934W        W48846   1.003   4.913  17.777 -0.3627 -0.2956 -0.0163
 5935W        W48847   3.031   6.880  16.527 -0.0584  0.2526  0.1389
 5936W        W48848   2.338   7.458  18.000  0.0543 -0.0049  0.0238
 5937W        W48849   1.291   6.646  17.216  0.2275  0.3644  0.2187
 5938W        W48850   3.079   5.989  16.844  0.1190 -0.1426  0.2377
 5939W        W48851   2.465   9.124  19.470 -0.1730 -0.3979 -0.1199
 5940W        W48852   3.143   7.557  20.415 -0.0279  0.1289 -0.0218
 5941W        W48853   2.163   8.288  19.754  0.1543 -0.0678 -0.1217
 5942W        W48854   3.900   5.566  17.455  0.1330 -0.0142  0.0342
 5943W        W48855  34.530   3.578  19.035 -0.0888 -0.2001 -0.2121
 5944W        W48856   2.267   5.254  17.204  0.3186  0.2514 -0.2376
 5945W        W48857   1.853   6.835  17.458  0.0084  0.3237 -0.0915
 5946W        W48858   2.951   5.748  18.315 -0.1406 -0.3040 -0.0301
 5947W        W48859   0.875   2.918  17.297 -0.1923 -0.2352  0.0313
 5948W        W48860   2.504   3.456  16.769  0.0626  0.2866  0.3154
 5949W        W48861   0.359   7.688  19.246  0.0388  0.0170 -0.0654
 5950W        W48862   2.778   7.225  17.841 -0.0910  0.2770 -0.2169
 5951W        W48863   0.919   5.877  22.523 -0.0453 -0.2242  0.0394
 5952W        W48864  34.651   5.936  20.878  0.1176  0.0879 -0.1083
 5953W        W48865   2.621   4.801  18.970  0.2383 -0.3115 -0.0280
 5954W        W48866   3.177   5.554  20.069  0.3790 -0.4628  0.0246
 5955W        W48867  33.151   3.925  21.970  0.1824  0.3647  0.1511
 5956W        W48868   3.705   7.089  21.792 -0.1758 -0.1333 -0.0337
 5957W        W48869   0.620   3.572  23.381 -0.2425  0.2210  0.2201
 5958W        W48870   3.636   6.692  22.106 -0.0984  0.1526  0.1886
 5959W        W48871   2.710   6.323  22.103 -0.2387 -0.0695 -0.1617
 5960W        W48872   2.740   5.287  20.086 -0.1529  0.0962 -0.3309
 5961W        W48873   1.761   4.728  21.792  0.0094 -0.1352 -0.0142
 5962W        W48874   2.693   5.474  23.235  0.1677 -0.1516  0.1593
 5963W        W48875   0.930   3.963  20.177  0.1785  0.3324 -0.0330
 5964W        W48876  34.471   2.668  20.791 -0.1626  0.1639  0.1530
 5965W        W48877   3.293   5.259  22.366  0.1437  0.3414 -0.0188
 5966W        W48878  34.270   6.343  19.600 -0.1944 -0.1892  0.0644
 5967W        W48879   0.631   3.038  23.217 -0.0689  0.0746 -0.1030
 5968W        W48880   0.193   4.064  20.510 -0.0600 -0.2188 -0.2595
 5969W        W48881   2.195   7.509  22.552  0.1563 -0.1316  0.0437
 5970W        W48882   1.280   3.713  22.401  0.2691  0.1104 -0.0463
 5971W        W48883   1.979   2.983  22.445  0.0380 -0.0961 -0.0335
 5972W        W48884   0.680   5.979  21.380  0.1326  0.1219  0.2589
 5973W        W48885  34.443   4.912  19.651 -0.0807  0.1878  0.0700
 5974W        W48886  33.858   5.205  22.053 -0.3921 -0.1617 -0.0569
 5975W        W48887   0.783   4.978  21.500 -0.0489 -0.1820 -0.0216
 5976W        W48888   2.207   4.382  22.939  0.0356 -0.0805 -0.0086
 5977W        W48889   2.214   4.556  20.639  0.2581 -0.0280 -0.0676
 5978W        W48890   2.829   6.728  22.920 -0.0869  0.1710  0.2302
 5979W        W48891   3.427   8.092  22.763 -0.1009 -0.1763  0.2330
 5980W        W48892   1.703   3.803  24.350  0.4289  0.3136  0.0251
 5981W        W48893  34.108   7.377  22.896  0.2513  0.0972 -0.1949
 5982W        W48894   0.436   6.993  22.238  0.0392 -0.3163  0.3379
 5983W        W48895  33.806   6.406  20.817 -0.0906  0.1171  0.2722
 5984W        W48896   4.045   7.984  21.043 -0.3414  0.0767  0.0609
 5985W        W48897   2.444   6.909  23.317  0.1848 -0.0732 -0.1370
 5986W        W48898   1.279   6.287  22.390 -0.1376 -0.2161 -0.3119
 5987W        W48899  34.368   6.942  21.383 -0.2448  0.0151  0.1062
 5988W        W48900   1.949   6.553  23.170  0.4327  0.0282 -0.3685
 5989W        W48901   1.376   6.770  22.477  0.3316 -0.3223 -0.0228
 5990W        W48902   1.975   5.480  21.359  0.1955 -0.2013  0.0093
 5991W        W48903   1.392   7.126  20.502 -0.1298 -0.2968 -0.1001
 5992W        W48904   0.838   6.214  20.332  0.0089  0.2307 -0.1154
 5993W        W48905   2.176   6.197  21.261  0.2613 -0.0537 -0.1190
 5994W        W48906   2.028   6.131  22.843  0.1013 -0.1255 -0.0652
 5995W        W48907  32.991   6.688  23.796 -0.0253  0.3259 -0.0861
 5996W        W48908   4.932   4.560  23.758 -0.1172 -0.0375 -0.0071
 5997W        W48909   0.277   8.221  19.512 -0.0362  0.0296  0.0921
 5998W        W48910   1.738   4.857  20.538 -0.1421  0.2179 -0.0936
 5999W        W48911   0.855   5.284  21.093 -0.3568  0.2165 -0.2194
 6000W        W48912   2.408   4.396  19.851 -0.1668 -0.0684 -0.1634
 6001W        W48913   1.134   3.522  21.346  0.1914  0.0026 -0.1411
 6002W        W48914   0.159   6.970  21.120 -0.0146 -0.0290  0.0845
 6003W        W48915   0.098   3.874  22.672 -0.1652 -0.0024 -0.1800
 6004W        W48916   2.377   5.998  22.347  0.0952 -0.2867 -0.0732
 6005W        W48917   0.703   5.754  20.325 -0.3299 -0.1735 -0.0923
 6006W        W48918   2.138   5.032  20.804  0.0739 -0.0682 -0.3882
 6007W        W48919   2.317   4.744  22.600 -0.0242 -0.1377 -0.2176
 6008W        W48920  34.085   5.538  21.618  0.0049 -0.1316  0.1160
 6009W        W48921   1.753   7.465  21.262 -0.2447  0.0181  0.3812
 6010W        W48922   3.681   8.001  22.210  0.2499 -0.0175  0.0367
 6011W        W48923   1.377   6.081  20.798 -0.0882 -0.2200 -0.0291
 6012W        W48924  34.595   4.959  22.332  0.0902  0.0121 -0.2303
 6013W        W48925   0.821   5.974  21.900  0.0209  0.1106 -0.1504
 6014W        W48926   0.964   4.306  22.923 -0.1477  0.0400  0.0249
 6015W        W48927   1.561   4.510  19.999  0.2644 -0.0861 -0.0809
 6016W        W48928   3.739   6.948  23.483 -0.3726 -0.3188 -0.0679
 6017W        W48929  34.424   6.113  23.430  0.0417 -0.0626 -0.1720
 6018W        W48930   3.197   5.526  20.629 -0.3719 -0.0476 -0.3592
 6019W        W48931   1.847   6.198  20.901  0.0311 -0.3194 -0.1120
 6020W        W48932   3.006   6.772  22.464 -0.0401  0.0304 -0.2824
 6021W        W48933   2.338   6.907  20.115  0.2649  0.2937  0.1742
 6022W        W48934   2.422   3.461  20.785  0.0541  0.0285  0.2645
 6023W        W48935   3.715   4.469  22.115  0.0542  0.0091  0.1520
 6024W        W48936   1.401   5.402  19.238 -0.0737 -0.0562 -0.1559
 6025W        W48937   2.996   7.324  21.833 -0.1961  0.1597 -0.1175
 6026W        W48938   4.532   6.605  22.254 -0.0287 -0.2225  0.2791
 6027W        W48939   3.536   6.425  19.438 -0.1391  0.0946 -0.0629
 6028W        W48940  34.601   5.950  23.912  0.0835  0.0948  0.0831
 6029W        W48941   1.332   4.379  22.438 -0.3233 -0.2184 -0.0387
 6030W        W48942   3.161   5.652  23.261 -0.0007  0.0282  0.2975
 6031W        W48943  34.412   8.427  20.862 -0.1370 -0.3521  0.1534
 6032W        W48944  34.672   4.603  21.951  0.0274 -0.0492  0.1555
 6033W        W48945   0.696   5.323  20.606  0.3024  0.0187  0.1861
 6034W        W48946  34.219   5.304  22.485  0.0773  0.0205  0.1201
 6035W        W48947   2.087   5.176  21.721 -0.0383 -0.0555 -0.0421
 6036W        W48948   3.203   5.043  19.838  0.3603 -0.0426 -0.0285
 6037W        W48949   1.140   3.316  23.388  0.0099  0.3687  0.2542
 6038W        W48950   4.142   5.019  21.519  0.1234 -0.4374 -0.1087
 6039W        W48951   0.090   6.893  19.775  0.2568  0.2342 -0.1954
 6040W        W48952   4.426   6.748  22.775 -0.2120  0.0727 -0.1279
 6041W        W48953   1.688   5.876  20.479 -0.0274  0.0087  0.1067
 6042W        W48954   2.836   6.832  20.432  0.0699  0.0191  0.2311
 6043W        W48955   0.799   4.960  22.128 -0.0733 -0.0697 -0.1452
 6044W        W48956   0.090   5.799  22.463  0.0524  0.1965  0.0376
 6045W        W48957   1.019   3.532  23.805  0.1288  0.1824  0.0085
 6046W        W48958  34.119   3.565  21.656  0.2480 -0.0811 -0.1894
 6047W        W48959   5.316   5.200  23.295 -0.0722 -0.0644 -0.1550
 6048W        W48960   0.313   3.717  20.856  0.1076 -0.2145  0.1211
 6049W        W48961   0.838   3.978  21.586 -0.1655 -0.1693  0.0411
 6050W        W48962   0.548   5.691  20.973 -0.1103 -0.1941  0.2589
 6051W        W48963   0.073   5.292  20.199  0.1764  0.1844  0.0277
 6052W        W48964   4.177   4.207  23.728 -0.1964  0.2352 -0.2534
 6053W        W48965   3.736   6.983  21.274  0.3798 -0.0212  0.1088
 6054W        W48966   3.428   6.559  23.344 -0.1423  0.2591  0.1063
 6055W        W48967   2.860   7.334  21.332  0.0865  0.0325  0.1225
 6056W        W48968   0.579   4.271  21.964 -0.1746  0.1689  0.0766
 6057W        W48969  34.699   4.383  20.047 -0.0589 -0.1112 -0.0294
 6058W        W48970   0.223   6.730  21.551 -0.0728  0.2322 -0.0979
 6059W        W48971  34.280   5.623  21.153 -0.1610 -0.2016 -0.0239
 6060W        W48972  34.499   3.804  20.799  0.1239  0.0032 -0.0841
 6061W        W48973   3.141   5.944  21.895  0.0819  0.0892 -0.1235
 6062W        W48974   2.517   6.443  20.951  0.0474 -0.3481  0.2726
 6063W        W48975   0.895   5.227  22.536 -0.1239 -0.0542  0.0378
 6064W        W48976   1.855   2.973  21.378  0.1628  0.0252  0.0444
 6065W        W48977   3.931   6.271  23.447 -0.2238  0.0076  0.0261
 6066W        W48978   2.764   6.860  21.952 -0.1351  0.3785 -0.1372
 6067W        W48979   1.245   5.519  19.825  0.0077 -0.3200  0.1508
 6068W        W48980   1.589   5.139  20.928 -0.0196  0.0090  0.0319
 6069W        W48981  34.419   7.299  21.766 -0.2153 -0.0318 -0.0539
 6070W        W48982  33.435   5.637  21.092 -0.2124 -0.1928  0.0519
 6071W        W48983   2.310   7.766  22.160  0.1407 -0.2003  0.3365
 6072W        W48984   3.191   4.384  22.009  0.2986  0.0404 -0.1069
 6073W        W48985   0.342   5.192  22.434  0.3550 -0.1507  0.2614
 6074W        W48986   3.427   5.610  23.903 -0.1072  0.0573  0.1021
 6075W        W48987   1.657   5.677  20.955  0.0260  0.0289  0.0181
 6076W        W48988   1.709   6.790  22.038  0.2300  0.2327  0.1210
 6077W        W48989   2.670   3.076  20.660  0.1512 -0.0481 -0.6298
 6078W        W48990   4.260   3.641  19.989 -0.0199 -0.2901 -0.1485
 6079W        W48991   3.493   5.250  23.261 -0.1210 -0.3405  0.1367
 6080W        W48992   4.113   5.692  19.682  0.0557 -0.0242  0.0665
 6081W        W48993   2.564   5.783  17.992  0.0560  0.1120  0.0370
 6082W        W48994   1.424   5.393  20.393  0.1111 -0.1628 -0.1884
 6083W        W48995   1.706   7.298  22.685  0.2055 -0.0693  0.0997
 6084W        W48996   0.664   6.997  19.931 -0.2462  0.0482  0.0015
 6085W        W48997   1.780   6.045  22.364  0.1333  0.1683  0.2548
 6086W        W48998   3.665   5.792  20.208 -0.1287 -0.1783  0.1147
 6087W        W48999   3.134   6.484  19.697  0.0693 -0.1081 -0.1028
 6088W        W49000   1.254   4.984  21.940 -0.1131  0.2345  0.1549
 6089W        W49001   3.007   5.804  23.779  0.1609 -0.0687 -0.1419
 6090W        W49002   4.720   7.256  21.529  0.1697  0.0697  0.3013
 6091W        W49003   0.035   3.386  22.492  0.3452  0.3075  0.3500
 6092W        W49004   0.306   5.584  19.864  0.1040 -0.1648 -0.2988
 6093W        W49005   2.627   3.395  21.288 -0.1167  0.6511  0.1057
 6094W        W49006  34.520   7.365  21.044  0.0707 -0.2515  0.0293
 6095W        W49007   2.438   3.899  21.370  0.1523 -0.3016 -0.0630
 6096W        W49008   2.039   4.258  23.581 -0.0827 -0.0579 -0.0923
 6097W        W49009   2.364   4.327  22.313  0.0746  0.2745  0.1215
 6098W        W49010   4.997   4.466  23.110 -0.2576 -0.0606  0.0959
 6099W        W49011   2.212   5.701  20.915 -0.1752 -0.3750 -0.2447
 6100W        W49012   2.813   5.710  21.531  0.2127  0.3411 -0.2138
 6101W        W49013  33.917   5.306  19.841  0.0313 -0.0628  0.1991
 6102W        W49014   4.064   4.936  22.024  0.0257 -0.0824  0.1661
 6103W        W49015   1.953   5.662  22.662 -0.1511  0.2803 -0.2707
 6104W        W49016   1.672   5.203  22.804 -0.2613 -0.3475 -0.2352
 6105W        W49017   2.973   6.777  23.409  0.0169 -0.0729  0.0199
 6106W        W49018   2.856   3.877  22.099  0.1019  0.1550 -0.0790
 6107W        W49019   1.266   4.941  22.435  0.0579 -0.2167  0.4205
 6108W        W49020   2.402   5.347  21.195 -0.1009  0.0344 -0.1417
 6109W        W49021   0.895   5.507  21.513  0.1696 -0.4392 -0.0540
 6110W        W49022   0.977   7.416  20.933 -0.1478 -0.1257  0.2192
 6111W        W49023   0.881   3.669  22.077 -0.2477 -0.1288 -0.0017
 6112W        W49024   2.688   6.290  22.662  0.2417  0.0388  0.0344
 6113W        W49025   1.882   7.079  20.255 -0.1504  0.1393 -0.1438
 6114W        W49026   2.828   7.276  23.518  0.0271 -0.0505 -0.0473
 6115W        W49027  33.424   5.365  19.634 -0.3246  0.0370 -0.2256
 6116W        W49028   3.285   4.104  22.382 -0.1587 -0.2439  0.1034
 6117W        W49029  34.093   7.087  23.912 -0.0285 -0.0987  0.1917
 6118W        W49030  34.583   3.909  21.626  0.0584 -0.5044  0.0614
 6119W        W49031   0.345   5.920  20.579 -0.3784  0.2739  0.6599
 6120W        W49032   3.045   5.083  21.361 -0.1015  0.1986 -0.0885
 6121W        W49033   3.280   5.974  19.752 -0.1670 -0.3244 -0.1057
 6122W        W49034   0.450   5.271  21.814 -0.2442  0.1653 -0.2070
 6123W        W49035   0.403   3.764  22.067 -0.3208 -0.2071  0.0019
 6124W        W49036   0.702   6.416  22.550  0.0029 -0.2461 -0.0338
 6125W        W49037   2.482   5.114  23.004 -0.2276 -0.0814 -0.0903
 6126W        W49038   2.204   4.397  18.950  0.1064 -0.0255  0.1789
 6127W        W49039   4.170   5.429  22.802 -0.0249  0.0673  0.1041
 6128W        W49040   1.111   5.088  22.962 -0.0562  0.1275  0.1731
 6129W        W49041  34.083   5.779  19.657 -0.2108 -0.0597 -0.0606
 6130W        W49042   2.672   5.797  22.005 -0.1243  0.1101  0.4143
 6131W        W49043   1.748   5.917  21.367 -0.0434  0.0269 -0.1747
 6132W        W49044  33.250   5.935  21.460 -0.0515 -0.0382  0.1432
 6133W        W49045   1.657   6.934  23.041  0.1216  0.1241  0.0870
 6134W        W49046   0.426   4.682  21.344  0.1580  0.0357 -0.1698
 6135W        W49047  34.460   6.527  21.663  0.1108 -0.0387 -0.2572
 6136W        W49048   0.458   4.508  22.977 -0.0608  0.0945 -0.0476
 6137W        W49049   3.080   5.370  22.826 -0.0062  0.1698 -0.2092
 6138W        W49050   0.829   4.494  21.606 -0.0132  0.0553 -0.0620
 6139W        W49051  34.302   5.077  21.333  0.1979  0.1441 -0.2953
 6140W        W49052   1.071   6.522  20.639 -0.0730  0.0106  0.0238
 6141W        W49053   2.506   6.676  22.382 -0.2588  0.0032 -0.4166
 6142W        W49054   2.848   4.288  22.528 -0.1828 -0.3368  0.2242
 6143W        W49055   2.203   5.511  23.087  0.0537  0.0435 -0.2577
 6144W        W49056   0.530   3.151  22.077  0.2818 -0.0568  0.3544
 6145W        W49057   3.273   8.250  22.305 -0.1952 -0.0397 -0.1850
 6146W        W49058   2.970   6.324  23.134  0.0328  0.0440 -0.0182
 6147W        W49059   1.411   4.964  19.761  0.2154 -0.1943  0.1789
 6148W        W49060   1.923   5.775  21.788  0.0465  0.1632  0.0933
 6149W        W49061   1.021   6.652  20.090  0.1152  0.0484  0.0504
 6150W        W49062   1.409   4.346  21.471 -0.4648  0.1201 -0.6622
 6151W        W49063   0.591   6.510  20.686  0.0694  0.0904  0.1023
 6152W        W49064   0.696   8.200  19.802 -0.1326  0.1087 -0.1806
 6153W        W49065   0.324   6.736  22.828  0.1732  0.1433  0.0764
 6154W        W49066   2.259   5.018  19.902 -0.3087 -0.2872  0.0100
 6155W        W49067   2.802   6.096  19.617 -0.1907 -0.2084 -0.3236
 6156W        W49068   2.265   5.728  20.369  0.0012  0.0456 -0.1042
 6157W        W49069   4.366   3.740  23.621 -0.1168  0.1945  0.1602
 6158W        W49070   2.211   5.522  19.867  0.0043 -0.2342  0.1316
 6159W        W49071   2.178   3.388  22.675 -0.1182 -0.0662 -0.3179
 6160W        W49072  34.402   4.117  22.511 -0.1932  0.1966 -0.1937
 6161W        W49073   1.425   6.419  21.163 -0.4180  0.2424  0.0226
 6162W        W49074  34.244   6.284  23.922  0.0239 -0.1795 -0.0608
 6163W        W49075   1.944   6.713  25.080  0.2222  0.2348  0.3092
 6164W        W49076   0.629   5.073  22.900  0.2319  0.2171 -0.1108
 6165W        W49077   1.306   4.020  20.526  0.1641 -0.0316  0.0577
 6166W        W49078  34.485   5.016  20.705  0.0219  0.1579  0.2398
 6167W        W49079   0.773   6.445  22.095 -0.1698 -0.0707  0.1598
 6168W        W49080   3.885   5.398  21.138 -0.2708 -0.1549 -0.0093
 6169W        W49081   2.072   6.649  20.824 -0.0759 -0.1651  0.1963
 6170W        W49082   2.225   3.359  21.603 -0.1394  0.0158 -0.0037
 6171W        W49083   1.316   5.785  21.708 -0.0782 -0.0952  0.0538
 6172W        W49084   0.072   4.932  21.563 -0.0134  0.4780 -0.1177
 6173W        W49085   2.653   5.967  21.093  0.1352  0.0692  0.1458
 6174W        W49086  33.819   6.433  21.622  0.1922 -0.1455  0.1431
 6175W        W49087   1.825   3.482  23.178  0.0957  0.0619 -0.1143
 6176W        W49088   1.800   4.551  21.202  0.2949  0.1819 -0.1663
 6177W        W49089   1.873   4.596  22.242  0.0237 -0.2871 -0.0100
 6178W        W49090   3.193   4.517  22.827  0.0619  0.3215 -0.1462
 6179W        W49091   3.648   5.607  22.895  0.0711 -0.1681 -0.1178
 6180W        W49092   1.274   4.833  21.367  0.0232 -0.1392  0.0552
 6181W        W49093  34.060   4.741  23.199  0.0655  0.3222  0.2937
 6182W        W49094   2.519   7.086  22.626 -0.0388  0.1806  0.0284
 6183W        W49095   3.793   6.063  19.764 -0.0032  0.1751 -0.0874
 6184W        W49096   4.524   5.144  22.965  0.3500  0.2571  0.0380
 6185W        W49097   3.601   5.546  19.761 -0.0296 -0.1284 -0.4374
 6186W        W49098   2.012   6.101  20.069  0.4448  0.0308  0.0689
 6187W        W49099   0.035   5.544  22.044 -0.0645 -0.1780  0.1105
 6188W        W49100   3.869   4.414  23.327 -0.2139 -0.1644  0.0476
 6189W        W49101   1.753   4.528  19.183 -0.0509  0.0497 -0.0688
 6190W        W49102   3.459   4.772  23.337 -0.0354 -0.0982 -0.0514
 6191W        W49103   3.070   6.994  20.889 -0.1967 -0.0483  0.3056
 6192W        W49104   2.600   4.746  20.857  0.3754 -0.0494  0.1624
 6193W        W49105   2.067   4.251  21.509  0.0607  0.2132 -0.1515
 6194W        W49106  33.478   4.183  21.613 -0.0104 -0.3142 -0.0965
 6195W        W49107   1.864   7.412  22.115  0.0538 -0.0658  0.1707
 6196W        W49108  34.547   4.429  20.717  0.0793  0.0619  0.0154
 6197W        W49109   1.907   4.770  19.712 -0.0368  0.1777 -0.2596
 6198W        W49110   2.048   6.966  22.517 -0.1089 -0.0705  0.2833
 6199W        W49111   5.031   5.030  23.864  0.2287  0.0515  0.0857
 6200W        W49112   1.074   4.412  20.052 -0.2920 -0.3233  0.1867
 6201W        W49113   3.013   4.271  23.352 -0.0276  0.1499  0.0653
 6202W        W49114  33.729   7.519  20.501  0.0458  0.1752 -0.0786
 6203W        W49115   0.755   4.042  20.720  0.1093 -0.0554 -0.0182
 6204W        W49116   1.191   7.377  22.671  0.1200 -0.0156  0.5484
 6205W        W49117   1.321   7.814  23.118 -0.2207  0.2146 -0.1294
 6206W        W49118   2.262   7.415  20.223 -0.1260  0.0165  0.1302
 6207W        W49119   0.958   3.869  22.701  0.0373  0.4765  0.1803
 6208W        W49120   2.211   4.785  21.337 -0.1891 -0.1127 -0.0325
 6209W        W49121   2.160   6.225  21.827 -0.0184 -0.0131  0.1860
 6210W        W49122   4.797   5.212  22.354  0.1137 -0.0730  0.0914
 6211W        W49123   2.314   7.750  24.511  0.0718 -0.1752  0.0848
 6212W        W49124  34.077   4.695  20.826 -0.1888 -0.1434 -0.3552
 6213W        W49125   2.828   7.162  24.044 -0.0179 -0.0982 -0.1858
 6214W        W49126   3.211   6.011  20.391 -0.2446  0.1570 -0.2086
 6215W        W49127  34.655   6.964  22.010 -0.2961 -0.1721 -0.0470
 6216W        W49128  33.240   3.692  23.347  0.1492 -0.1218  0.0641
 6217W        W49129   3.100   5.961  22.867 -0.3801  0.1552  0.1539
 6218W        W49130   2.289   4.905  22.139 -0.2773  0.0145 -0.1955
 6219W        W49131   0.921   2.933  20.131  0.0019  0.0559  0.0486
 6220W        W49132   1.834   7.108  20.806 -0.1770 -0.2603  0.0693
 6221W        W49133   1.200   6.666  24.265  0.2919  0.1157 -0.1256
 6222W        W49134   0.914   4.693  21.075 -0.1186  0.0183  0.3096
 6223W        W49135   0.909   6.923  20.891  0.0242  0.1490  0.2879
 6224W        W49136   2.072   6.990  21.194  0.0613 -0.2356  0.2480
 6225W        W49137   2.415   6.518  20.390 -0.0210 -0.1114  0.2069
 6226W        W49138   2.322   7.978  22.622  0.0907 -0.4181  0.2144
 6227W        W49139   0.206   4.790  20.392 -0.0392  0.1213 -0.1697
 6228W        W49140  34.365   6.478  22.992  0.1877 -0.1183  0.1183
 6229W        W49141  34.185   6.101  20.599  0.0488 -0.2742 -0.0380
 6230W        W49142   4.178   5.967  21.620 -0.0850 -0.2459  0.1822
 6231W        W49143  34.141   6.175  21.154 -0.2798  0.2443 -0.1165
 6232W        W49144   3.564   6.150  23.122  0.0840 -0.0424 -0.0979
 6233W        W49145   3.284   4.223  19.273 -0.0371  0.0228 -0.1711
 6234W        W49146   4.029   5.476  20.312 -0.0772  0.0008  0.1565
 6235W        W49147   3.614   5.266  20.195  0.1578  0.1663 -0.1714
 6236W        W49148   1.312   6.346  23.797  0.0657 -0.1843  0.2352
 6237W        W49149   0.461   4.976  20.896 -0.0372  0.0756 -0.0939
 6238W        W49150   2.462   4.517  17.573  0.0950 -0.1545 -0.2200
 6239W        W49151   0.063   4.433  22.674  0.2874  0.2272  0.2861
 6240W        W49152   3.341   4.340  23.741 -0.4674  0.0906  0.0751
 6241W        W49153   1.323   7.054  23.384  0.0364  0.1037  0.1207
 6242W        W49154   3.156   6.079  21.379  0.1024 -0.1988 -0.0514
 6243W        W49155   0.155   5.814  21.301  0.3752  0.4211  0.2335
 6244W        W49156   1.317   5.900  22.149 -0.0009 -0.3014  0.1497
 6245W        W49157   4.218   2.664  21.572 -0.0145 -0.1017 -0.2137
 6246W        W49158   1.579   6.994  19.439 -0.1112  0.1181  0.1162
 6247W        W49159   1.225   5.850  21.192  0.2873  0.2309  0.0539
 6248W        W49160   2.271   6.565  22.831 -0.1732 -0.2840  0.1297
 6249W        W49161   2.247   5.498  22.160  0.2595 -0.0677 -0.2399
 6250W        W49162   2.366   6.631  21.384 -0.0021  0.1114 -0.4659
 6251W        W49163  33.717   4.381  20.424 -0.0135  0.2346  0.0517
 6252W        W49164   3.906   6.703  20.428 -0.2690  0.1168 -0.0978
 6253W        W49165   1.366   5.330  21.308  0.1271 -0.1800 -0.1139
 6254W        W49166   3.649   3.602  21.790 -0.1471 -0.1834  0.0878
 6255W        W49167   0.884   5.966  19.890  0.0792  0.1047 -0.0265
 6256W        W49168   1.259   4.795  20.288 -0.4554 -0.1433  0.0866
 6257W        W49169   3.188   6.254  22.426 -0.0101 -0.2586  0.0882
 6258W        W49170   0.133   4.173  21.065  0.0102  0.2324 -0.0828
 6259W        W49171   1.198   5.813  20.247  0.4389 -0.0515 -0.1450
 6260W        W49172   3.954   4.849  22.937  0.1890 -0.2904  0.1195
 6261W        W49173   1.848   6.213  19.505  0.4812  0.3192 -0.0328
 6262W        W49174   1.783   7.177  25.396  0.1833 -0.0262 -0.0548
 6263W        W49175  34.689   4.743  21.053 -0.1086 -0.0136 -0.1317
 6264W        W49176   2.664   5.750  20.666 -0.2758 -0.0328  0.0974
 6265W        W49177   0.023   6.306  21.227  0.2103  0.1707 -0.2302
 6266W        W49178  34.281   4.565  21.650  0.3055 -0.2630  0.1062
 6267W        W49179   3.107   7.544  23.815 -0.0990 -0.0660 -0.2645
 6268W        W49180  34.385   4.286  21.202  0.0977  0.0222 -0.0515
 6269W        W49181   3.274   6.868  21.768  0.0581 -0.2470  0.1250
 6270W        W49182   3.092   4.929  21.930 -0.1949  0.2174 -0.2919
 6271W        W49183   2.279   7.043  20.551 -0.1344  0.0545  0.2102
 6272W        W49184   3.172   5.979  20.877 -0.0973  0.3266  0.0420
 6273W        W49185   4.349   7.397  21.856 -0.4572  0.0784 -0.2268
 6274W        W49186  33.749   3.781  21.272 -0.0537  0.1029 -0.4401
 6275W        W49187   1.771   7.538  23.650 -0.0180 -0.2063 -0.1737
 6276W        W49188   4.392   5.685  21.280  0.2250  0.2187  0.2504
 6277W        W49189   1.984   3.804  21.261 -0.0259  0.3634 -0.1446
 6278W        W49190   0.415   5.237  21.298  0.0178  0.0771 -0.1716
 6279W        W49191  34.126   6.814  21.902  0.2752 -0.1282  0.0901
 6280W        W49192   3.367   5.359  21.078  0.1564 -0.0805 -0.2001
 6281W        W49193   3.400   3.971  24.096 -0.1289 -0.1482  0.1931
 6282W        W49194   0.739   7.017  19.076 -0.1918 -0.1765 -0.0316
 6283W        W49195   4.546   3.104  21.559 -0.0788 -0.0064  0.0880
 6284W        W49196   1.997   8.153  23.089  0.1684  0.2088  0.0002
 6285W        W49197   1.646   6.176  23.450 -0.0686 -0.1103  0.0994
 6286W        W49198   1.092   5.936  19.277  0.4179 -0.0247 -0.2197
 6287W        W49199   1.800   5.059  22.191  0.0589 -0.0577  0.1399
 6288W        W49200   0.423   6.173  21.000 -0.0735  0.0306 -0.1265
 6289W        W49201   2.205   7.700  20.580 -0.1188 -0.2380 -0.2177
 6290W        W49202   3.632   6.239  20.585  0.0377  0.2636 -0.3637
 6291W        W49203   1.602   5.853  19.314 -0.0953  0.0917 -0.5571
 6292W        W49204   4.824   6.146  22.203  0.0881  0.2706  0.2782
 6293W        W49205   0.629   4.229  21.153 -0.4748  0.0101  0.0388
 6294W        W49206   2.899   5.523  21.111  0.1900 -0.1139  0.0049
 6295W        W49207   1.804   5.011  21.379 -0.0846 -0.0114 -0.0108
 6296W        W49208   1.032   5.504  22.036  0.1355  0.0276 -0.1160
 6297W        W49209   0.100   3.955  18.628  0.1091  0.2408  0.3973
 6298W        W49210   0.852   5.978  20.761 -0.0726 -0.0106  0.0767
 6299W        W49211  34.688   5.436  21.545  0.2156 -0.1302 -0.2291
 6300W        W49212   2.421   4.311  24.614  0.0691  0.2657  0.0594
 6301W        W49213  34.320   5.134  21.873 -0.3380 -0.1595 -0.0494
 6302W        W49214  34.568   5.622  23.539 -0.2373  0.0445  0.0270
 6303W        W49215   0.873   5.279  20.090  0.0698 -0.0874 -0.1555
 6304W        W49216   2.175   7.689  21.477  0.1934 -0.0591  0.0740
 6305W        W49217  34.253   3.650  22.503  0.0582  0.0052  0.1099
 6306W        W49218   0.309   3.213  20.842 -0.1691 -0.0053 -0.0119
 6307W        W49219   1.406   7.146  22.156  0.1088  0.2226  0.2419
 6308W        W49220   3.582   6.164  21.108  0.3055 -0.1557 -0.0359
 6309W        W49221   1.631   4.163  20.927 -0.0999  0.0142 -0.1019
 6310W        W49222   3.652   7.488  24.528 -0.0068 -0.0304 -0.0257
 6311W        W49223  34.297   6.933  19.625  0.1471 -0.0777 -0.4396
 6312W        W49224   1.788   4.542  23.229 -0.3694  0.1537  0.0917
 6313W        W49225   0.610   3.911  23.949  0.1100  0.0957  0.0523
 6314W        W49226  34.343   3.462  20.483  0.1297 -0.0589  0.2846
 6315W        W49227   1.574   6.305  21.908  0.2426 -0.0485 -0.0034
 6316W        W49228  34.474   7.498  22.399 -0.0944  0.0535  0.0111
 6317W        W49229   3.081   8.234  19.869  0.2660 -0.1797  0.1269
 6318W        W49230   3.266   6.408  21.930  0.3245  0.2456 -0.0742
 6319W        W49231   1.278   6.530  23.325  0.0726  0.1328  0.1406
 6320W        W49232   0.962   2.297  23.126  0.4029 -0.1860 -0.1291
 6321W        W49233   3.698   5.779  20.828  0.2182  0.1470  0.1386
 6322W        W49234   1.659   6.645  23.615 -0.0204 -0.3955  0.2568
 6323W        W49235   4.488   6.367  21.812  0.0572 -0.2473  0.1854
 6324W        W49236   3.740   4.839  22.481 -0.1322 -0.0196 -0.0509
 6325W        W49237   0.957   5.551  18.952  0.1734 -0.3138 -0.0906
 6326W        W49238   0.308   3.492  23.933  0.1861  0.0618 -0.1033
 6327W        W49239   3.305   6.061  24.143 -0.3061 -0.2049 -0.0227
 6328W        W49240   4.042   5.994  21.105  0.0826 -0.0875  0.0620
 6329W        W49241   0.381   3.870  21.510 -0.4856  0.1089 -0.4700
 6330W        W49242   1.749   4.455  18.619 -0.4638 -0.0099 -0.0067
 6331W        W49243   2.204   5.214  22.574  0.1189 -0.2590 -0.1508
 6332W        W49244  34.682   5.274  21.074  0.0908  0.0283  0.1490
 6333W        W49245   1.140   5.587  20.757  0.0958 -0.0854 -0.1658
 6334W        W49246   1.877   4.224  22.570  0.0960  0.3547 -0.1468
 6335W        W49247   2.341   5.804  21.501  0.2683  0.0792 -0.3306
 6336W        W49248   2.516   5.535  22.736 -0.0320 -0.6435  0.0851
 6337W        W49249   0.463   4.446  20.708  0.1827 -0.1333 -0.3915
 6338W        W49250   3.792   6.654  19.895 -0.0467 -0.1587  0.2687
 6339W        W49251   3.821   6.600  23.024 -0.3406  0.0959 -0.1479
 6340W        W49252   2.875   7.675  24.455  0.4584  0.1707  0.1578
 6341W        W49253   2.471   6.423  23.254 -0.2542 -0.0718 -0.2063
 6342W        W49254   4.398   6.544  19.899  0.1370  0.2442 -0.2343
 6343W        W49255  32.651   4.429  21.916 -0.1134  0.1867 -0.1033
 6344W        W49256  34.346   5.614  20.621 -0.0489 -0.1202 -0.1207
 6345W        W49257   1.159   6.268  21.574  0.0058 -0.3052  0.0107
 6346W        W49258   2.683   5.260  22.371 -0.2948  0.1357 -0.4912
 6347W        W49259   0.853   4.752  22.577  0.0680 -0.0268 -0.1363
 6348W        W49260   2.667   5.248  20.673  0.1961 -0.0357  0.2085
 6349W        W49261   0.831   8.780  22.222  0.0712  0.1834 -0.2417
 6350W        W49262   2.150   6.742  21.861  0.0449  0.1395 -0.0797
 6351W        W49263   1.982   6.245  28.497 -0.4833 -0.1924  0.3141
 6352W        W49264  34.089   5.289  24.495  0.0102  0.0065  0.0892
 6353W        W49265   3.412   4.994  22.812  0.1746 -0.1171 -0.1807
 6354W        W49266   3.782   5.146  24.697  0.1018 -0.2988 -0.0305
 6355W        W49267  33.391   4.473  26.887 -0.0934 -0.4595 -0.0818
 6356W        W49268   2.386   6.864  25.363 -0.0106  0.0972  0.1234
 6357W        W49269   0.957   5.106  24.672  0.1663  0.2903  0.1559
 6358W        W49270   2.994   6.250  25.645 -0.0408 -0.2192  0.2494
 6359W        W49271   2.815   6.597  27.683  0.0077  0.1154 -0.0350
 6360W        W49272   3.384   5.059  23.763  0.1720 -0.0642 -0.4439
 6361W        W49273   1.806   5.497  24.887  0.1063  0.0498  0.0772
 6362W        W49274   2.309   6.845  26.454 -0.3652  0.1438  0.1928
 6363W        W49275   1.441   4.202  23.367 -0.1906  0.1814 -0.0710
 6364W        W49276   1.028   5.559  26.231  0.0131 -0.0604  0.1375
 6365W        W49277   4.048   5.092  26.515  0.0845  0.2511  0.1171
 6366W        W49278   1.479   5.999  22.750  0.0344 -0.0848 -0.1712
 6367W        W49279   1.393   4.721  24.557  0.0992  0.0223  0.1977
 6368W        W49280   2.768   4.960  25.441  0.3349 -0.0277  0.3051
 6369W        W49281   0.499   6.375  25.996  0.0818  0.1908  0.4994
 6370W        W49282   1.569   5.593  26.402 -0.2489  0.3199  0.0049
 6371W        W49283   1.541   3.113  26.246  0.3963  0.0870  0.0822
 6372W        W49284   1.706   5.841  25.267  0.0346  0.2697 -0.0837
 6373W        W49285   1.723   4.079  23.905  0.2482  0.0052  0.1220
 6374W        W49286   0.176   6.289  25.607  0.0428 -0.1633  0.0485
 6375W        W49287  33.851   6.845  25.856  0.0153 -0.2542  0.0049
 6376W        W49288   2.485   4.393  25.118 -0.0990 -0.1624  0.3726
 6377W        W49289   2.530   5.832  26.910  0.1316 -0.0423  0.2145
 6378W        W49290   0.493   6.752  26.279 -0.1211  0.0852  0.1371
 6379W        W49291   1.044   6.537  24.906 -0.1556 -0.0684 -0.0846
 6380W        W49292   3.237   4.471  28.219  0.0572  0.0083  0.0247
 6381W        W49293   1.201   5.917  23.385 -0.1942 -0.0867 -0.0348
 6382W        W49294  33.425   6.478  25.829 -0.1394 -0.1713  0.4164
 6383W        W49295   0.894   7.370  25.089  0.1966  0.1354  0.0195
 6384W        W49296   3.240   6.399  24.487  0.2834 -0.2018  0.2283
 6385W        W49297   2.750   6.494  27.098  0.0862 -0.0338  0.0052
 6386W        W49298   1.580   6.385  27.128 -0.3240 -0.3367 -0.1277
 6387W        W49299   1.543   6.478  22.870 -0.5911  0.1186  0.0202
 6388W        W49300   2.375   7.428  27.869  0.1355  0.1031 -0.0862
 6389W        W49301  34.364   7.058  26.220  0.3457 -0.4733 -0.0793
 6390W        W49302   3.014   5.114  26.560  0.0899 -0.0283  0.0556
 6391W        W49303   2.007   5.002  23.215  0.0095  0.0089  0.1857
 6392W        W49304   1.821   6.348  23.950  0.0436  0.1809  0.1632
 6393W        W49305   1.318   6.195  25.497  0.0403  0.2649  0.0313
 6394W        W49306   1.955   5.816  27.178 -0.0618 -0.0964 -0.0113
 6395W        W49307   0.115   7.069  26.990  0.2744 -0.2473  0.5187
 6396W        W49308   2.748   3.710  27.901 -0.1016  0.0213 -0.0030
 6397W        W49309   2.531   6.242  23.795  0.3436 -0.2624 -0.1226
 6398W        W49310   3.354   5.081  24.379  0.0996  0.0232  0.0299
 6399W        W49311   1.719   3.195  22.788  0.3045  0.0473 -0.0565
 6400W        W49312   2.550   4.741  23.925  0.2354 -0.4463  0.0217
 6401W        W49313   1.813   5.024  25.087  0.2589 -0.1571  0.2088
 6402W        W49314   0.403   8.492  27.129  0.0396 -0.0765  0.1093
 6403W        W49315   2.571   5.221  24.052  0.2262  0.0172  0.3468
 6404W        W49316   3.298   7.204  28.072  0.0520 -0.0933 -0.0263
 6405W        W49317   0.824   5.268  23.323 -0.0092 -0.0048  0.0097
 6406W        W49318   2.782   4.636  25.995  0.0056 -0.1156 -0.0857
 6407W        W49319   1.569   6.614  28.328 -0.1308 -0.0240  0.3033
 6408W        W49320   0.659   5.503  25.940  0.1164  0.2318 -0.1142
 6409W        W49321   2.610   5.630  24.588  0.0081 -0.2074 -0.1052
 6410W        W49322   2.056   6.663  27.019 -0.0514 -0.2018 -0.0069
 6411W        W49323   2.503   5.946  22.942 -0.0230 -0.2581 -0.1258
 6412W        W49324   1.002   5.138  26.722  0.1780 -0.1669  0.2174
 6413W        W49325  34.366   5.941  27.127 -0.0790  0.0474  0.2372
 6414W        W49326  34.426   7.001  25.196 -0.2373  0.1675 -0.1259
 6415W        W49327   0.556   5.602  22.797  0.0312  0.1707 -0.0861
 6416W        W49328   3.405   6.513  25.450 -0.1360 -0.0927 -0.2641
 6417W        W49329  34.294   6.832  26.810 -0.0724  0.2855  0.0246
 6418W        W49330   2.934   4.401  24.961 -0.1432  0.0468 -0.0905
 6419W        W49331   1.018   6.398  26.285  0.0024 -0.0863 -0.1467
 6420W        W49332   3.595   5.087  27.378  0.0574 -0.0356  0.0082
 6421W        W49333   2.843   6.330  24.166  0.2135  0.1920 -0.0612
 6422W        W49334   1.701   4.229  25.490  0.0659  0.1114 -0.2027
 6423W        W49335   1.781   3.323  27.009 -0.1372 -0.3143 -0.4668
 6424W        W49336   1.029   5.616  22.966  0.0995  0.0423  0.0881
 6425W        W49337   1.723   5.814  23.096  0.0711  0.2751 -0.1230
 6426W        W49338   2.799   6.392  24.721  0.1039  0.3767 -0.1174
 6427W        W49339   4.473   5.794  22.961 -0.0901  0.1039  0.0728
 6428W        W49340  34.675   7.497  25.018  0.0704 -0.1970  0.1040
 6429W        W49341   1.204   6.026  25.988 -0.0217  0.1679 -0.0415
 6430W        W49342   0.712   7.251  26.797  0.0461  0.2079 -0.0199
 6431W        W49343   1.609   7.195  24.444  0.1005  0.2103 -0.0178
 6432W        W49344   0.012   6.207  26.902  0.1312 -0.1947  0.0314
 6433W        W49345   0.533   6.638  23.897 -0.1303  0.0356  0.0614
 6434W        W49346   0.926   5.640  26.965  0.2085 -0.1859  0.2563
 6435W        W49347   0.579   6.780  26.899  0.0576  0.0186  0.1626
 6436W        W49348   4.036   3.934  23.248 -0.2173 -0.1300  0.1023
 6437W        W49349   1.080   4.093  27.719 -0.0134 -0.0640 -0.0795
 6438W        W49350   3.995   4.562  24.559  0.0301  0.0406 -0.1601
 6439W        W49351   0.356   6.722  25.356  0.0404  0.0221 -0.3025
 6440W        W49352   2.647   5.950  23.417  0.2653  0.3619  0.2508
 6441W        W49353   3.443   5.996  23.638  0.0754  0.0509  0.0689
 6442W        W49354   2.975   4.930  24.093  0.3321 -0.0505  0.1224
 6443W        W49355   1.142   5.911  26.570 -0.1447 -0.0048 -0.0156
 6444W        W49356   0.684   4.860  25.132  0.0996  0.2826 -0.4548
 6445W        W49357   1.773   4.502  26.310  0.1108 -0.1750 -0.0741
 6446W        W49358  34.361   5.437  25.684  0.1065 -0.2597 -0.0204
 6447W        W49359   3.041   5.449  27.902 -0.0302  0.1672  0.0187
 6448W        W49360   0.356   4.406  24.319 -0.1405  0.2341  0.2702
 6449W        W49361   2.485   3.536  24.266 -0.0353  0.0488 -0.2503
 6450W        W49362   0.290   5.472  23.273  0.1801 -0.1595 -0.0815
 6451W        W49363  33.956   4.785  24.452 -0.1831 -0.0319  0.1954
 6452W        W49364   2.974   5.484  26.211  0.0510 -0.0670  0.2077
 6453W        W49365   2.690   6.741  23.796  0.0661 -0.4140  0.0234
 6454W        W49366   3.257   6.692  27.447 -0.0822 -0.3006  0.0973
 6455W        W49367   2.199   6.437  24.203 -0.2919  0.0984  0.1712
 6456W        W49368   0.117   5.844  24.880 -0.2011 -0.1552 -0.0127
 6457W        W49369   1.144   5.524  23.749  0.0226 -0.0276 -0.3656
 6458W        W49370  33.376   8.007  26.463  0.4245  0.3448  0.0307
 6459W        W49371   1.438   5.869  24.863 -0.0775 -0.2569 -0.1306
 6460W        W49372   1.038   5.619  24.618  0.3647 -0.2467 -0.1399
 6461W        W49373   3.695   7.541  25.598  0.1761  0.2238 -0.0980
 6462W        W49374   2.954   4.780  23.607  0.0498  0.1980  0.2991
 6463W        W49375   2.167   6.146  25.908  0.0799  0.2224 -0.1330
 6464W        W49376   2.935   3.899  27.506 -0.1001 -0.1411 -0.0228
 6465W        W49377   2.952   5.578  26.794  0.0565  0.2544  0.1827
 6466W        W49378   2.888   4.450  24.018  0.0545 -0.0544 -0.1669
 6467W        W49379   0.087   4.767  23.299 -0.0962 -0.4961  0.0308
 6468W        W49380   0.773   6.891  25.109 -0.5262 -0.0460  0.1572
 6469W        W49381   0.340   6.576  24.327  0.0857  0.0110  0.0972
 6470W        W49382  33.941   4.876  24.942 -0.0768 -0.1127 -0.0424
 6471W        W49383   0.013   6.669  26.151 -0.2322  0.1591 -0.0677
 6472W        W49384   4.362   4.645  23.084  0.0451 -0.0219 -0.0689
 6473W        W49385   0.653   5.852  27.346  0.1052  0.0092 -0.2342
 6474W        W49386   3.289   5.750  27.553 -0.2542 -0.0745 -0.2213
 6475W        W49387  34.609   5.442  22.760  0.1449  0.1261 -0.1435
 6476W        W49388   0.858   5.036  27.944 -0.1872  0.1794  0.2169
 6477W        W49389   2.065   4.652  24.708  0.1302 -0.0807  0.2496
 6478W        W49390   2.949   5.353  23.625  0.1705  0.3659  0.1520
 6479W        W49391   1.659   4.995  27.810  0.0595  0.0574 -0.1346
 6480W        W49392   2.412   6.098  24.522 -0.0102  0.0477  0.0526
 6481W        W49393   1.507   3.577  23.594 -0.0228 -0.2077  0.2146
 6482W        W49394   2.992   3.728  22.529 -0.0990  0.0289 -0.2712
 6483W        W49395   0.446   5.922  28.051  0.2015  0.2954  0.3117
 6484W        W49396   1.775   6.803  24.174 -0.2774  0.1329  0.0787
 6485W        W49397   0.361   7.126  26.522 -0.0600 -0.1549  0.1084
 6486W        W49398   1.923   3.970  23.164  0.1810 -0.2077  0.0537
 6487W        W49399   3.145   6.718  24.099 -0.1289 -0.1406 -0.2989
 6488W        W49400  33.067   6.325  26.289  0.1775  0.1249  0.0378
 6489W        W49401   1.985   6.269  27.423 -0.0741 -0.0386  0.1676
 6490W        W49402   2.601   5.917  24.992 -0.2789  0.2070  0.5454
 6491W        W49403   0.613   5.302  26.400 -0.1507 -0.3748  0.1325
 6492W        W49404   0.151   4.949  22.853 -0.1413 -0.0473  0.4019
 6493W        W49405   1.800   4.252  24.526  0.0671 -0.0989 -0.2659
 6494W        W49406   0.566   7.289  24.675  0.1951 -0.3450 -0.0764
 6495W        W49407   3.217   4.792  25.157 -0.1917  0.2857  0.1711
 6496W        W49408   3.365   6.288  26.116  0.2325 -0.1741 -0.0037
 6497W        W49409   2.479   4.271  26.169  0.3577  0.3011  0.0432
 6498W        W49410   2.595   5.209  27.768  0.0030 -0.1272  0.1431
 6499W        W49411   4.802   4.934  24.616  0.1205 -0.0932  0.4767
 6500W        W49412   3.367   4.883  26.903  0.1445  0.1047 -0.0223
 6501W        W49413   0.365   4.714  22.366  0.0473  0.0180  0.0212
 6502W        W49414   2.684   4.435  27.240 -0.0013  0.2169  0.3915
 6503W        W49415  34.330   6.492  25.367 -0.0173  0.2320  0.0288
 6504W        W49416   0.277   6.981  27.415 -0.2211 -0.2188 -0.2117
 6505W        W49417   3.771   6.336  24.732  0.0100 -0.1086  0.1738
 6506W        W49418   2.581   5.778  24.101  0.1423 -0.0321  0.0402
 6507W        W49419   1.660   5.180  26.782 -0.0809  0.0760  0.1583
 6508W        W49420   2.502   3.714  23.757 -0.1762  0.1510  0.2049
 6509W        W49421   1.472   6.214  24.437  0.0178  0.0679 -0.3101
 6510W        W49422   0.850   6.324  24.140  0.0292 -0.1218 -0.0185
 6511W        W49423   2.034   4.176  24.989  0.1140  0.3197 -0.2959
 6512W        W49424   1.165   7.463  26.664  0.2814 -0.2196  0.0592
 6513W        W49425   1.765   4.693  22.695  0.2560  0.1304  0.2091
 6514W        W49426   2.011   6.726  28.113  0.1870 -0.0745  0.0114
 6515W        W49427  34.371   6.830  25.696 -0.4036 -0.2732  0.2716
 6516W        W49428   3.513   5.116  25.625 -0.0594 -0.0438 -0.0268
 6517W        W49429   0.621   7.744  24.953 -0.0151  0.0750 -0.3252
 6518W        W49430   0.598   5.550  23.697 -0.0903 -0.2281 -0.1579
 6519W        W49431   0.458   6.056  25.280  0.2307 -0.1135  0.1287
 6520W        W49432   2.158   2.980  24.375 -0.0642  0.1755  0.2712
 6521W        W49433   3.786   5.391  23.659  0.0346  0.1505 -0.1761
 6522W        W49434  34.479   4.933  25.595  0.2617  0.1519  0.0775
 6523W        W49435   3.172   5.232  24.818 -0.0566 -0.2388 -0.0096
 6524W        W49436   0.875   6.689  27.897 -0.1104 -0.0044  0.3826
 6525W        W49437   2.185   6.790  25.957  0.1254  0.1270  0.0278
 6526W        W49438   2.417   2.637  22.323  0.0580 -0.1606 -0.0272
 6527W        W49439   2.562   6.895  26.884  0.0726 -0.1319 -0.1047
 6528W        W49440   0.710   4.930  27.038  0.1409 -0.3199 -0.3577
 6529W        W49441   0.476   6.053  22.890 -0.0426 -0.1435 -0.1409
 6530W        W49442   3.355   4.614  24.181  0.2470 -0.1099  0.0661
 6531W        W49443   2.082   4.970  24.161 -0.2085  0.1723 -0.0024
 6532W        W49444  34.245   7.733  26.267 -0.0291  0.3757 -0.4027
 6533W        W49445   1.350   6.766  25.295  0.3224 -0.2529  0.1942
 6534W        W49446  33.861   6.426  26.159 -0.3438 -0.1226 -0.1477
 6535W        W49447  33.420   6.727  26.348 -0.1784 -0.1553  0.1392
 6536W        W49448   0.222   5.612  26.343 -0.1316 -0.0955 -0.2088
 6537W        W49449   3.337   7.040  26.868  0.1224 -0.0100 -0.2424
 6538W        W49450   1.036   6.214  22.906 -0.0114  0.2870 -0.0941
 6539W        W49451   2.702   4.867  24.951  0.0257 -0.0141 -0.3026
 6540W        W49452   2.459   4.293  23.824  0.1915 -0.1039 -0.3746
 6541W        W49453   2.599   6.298  26.023  0.2057 -0.0370 -0.1313
 6542W        W49454   2.066   5.468  26.132 -0.3346  0.0013 -0.0387
 6543W        W49455   1.143   5.706  27.467 -0.1473  0.1278  0.1377
 6544W        W49456   1.111   2.759  24.493  0.0273  0.2266 -0.2622
 6545W        W49457   5.339   6.903  24.509 -0.0529 -0.1040 -0.1982
 6546W        W49458   3.187   6.398  26.551 -0.2241 -0.1691  0.4102
 6547W        W49459   0.864   6.019  23.718  0.2679  0.0736  0.2664
 6548W        W49460  34.331   6.386  26.050  0.0858 -0.0893  0.2528
 6549W        W49461   1.555   5.730  24.425  0.1803  0.2669 -0.0199
 6550W        W49462   1.370   4.612  26.010  0.0760  0.0629  0.0977
 6551W        W49463   0.600   7.706  25.458  0.0237 -0.0270  0.0152
 6552W        W49464   0.063   6.333  25.107  0.0221  0.2310  0.1202
 6553W        W49465   1.171   7.315  27.150 -0.0488  0.2633  0.4695
 6554W        W49466   2.115   3.895  24.054  0.1128  0.0128 -0.1522
 6555W        W49467   4.142   5.240  23.294  0.0888  0.1369 -0.1241
 6556W        W49468   2.252   4.990  25.190  0.0093  0.1024  0.1355
 6557W        W49469   2.424   5.407  27.274  0.3202  0.0605 -0.0616
 6558W        W49470   1.930   5.503  23.506  0.2202 -0.0098  0.3115
 6559W        W49471   3.939   4.303  26.823 -0.0037 -0.1074 -0.1084
 6560W        W49472   0.926   5.064  26.083  0.0568  0.1569 -0.0050
 6561W        W49473   2.476   5.961  26.396 -0.1091 -0.0977  0.2772
 6562W        W49474   1.454   5.372  25.915 -0.1138  0.1769  0.0086
 6563W        W49475   1.613   7.798  28.516 -0.1880  0.0829 -0.1239
 6564W        W49476   0.068   6.718  26.621 -0.0601  0.0822  0.0057
 6565W        W49477   3.036   3.586  24.158 -0.0203 -0.1202 -0.0906
 6566W        W49478   2.837   4.047  22.948 -0.1900 -0.1923  0.0091
 6567W        W49479  34.279   6.400  26.541 -0.0740 -0.0927  0.0810
 6568W        W49480   3.664   6.753  24.488  0.3529 -0.2095 -0.1834
 6569W        W49481   1.977   6.021  24.258  0.1528 -0.1966 -0.2079
 6570W        W49482   3.621   3.978  25.056  0.0998 -0.0508 -0.2644
 6571W        W49483   0.414   6.358  26.599  0.2480 -0.2462 -0.1010
 6572W        W49484   2.544   6.387  25.526 -0.0049  0.0838  0.1811
 6573W        W49485   2.673   4.538  22.945 -0.1821 -0.1237 -0.0341
 6574W        W49486  33.422   6.316  25.178  0.1588 -0.0626  0.0406
 6575W        W49487   2.022   4.087  26.232 -0.1397  0.0514 -0.1492
 6576W        W49488   1.843   5.824  28.262  0.2942  0.0205 -0.1101
 6577W        W49489   2.480   3.905  25.127  0.1989  0.1633  0.0748
 6578W        W49490   2.631   5.138  26.939  0.2314 -0.3430  0.1658
 6579W        W49491   4.541   4.958  27.757 -0.0385  0.0839  0.1322
 6580W        W49492   1.734   6.071  26.804 -0.0404  0.0466  0.1168
 6581W        W49493  34.253   4.977  27.451 -0.0289 -0.1250 -0.0778
 6582W        W49494   2.651   6.404  26.524  0.3014  0.1000 -0.0887
 6583W        W49495   3.002   3.973  25.126 -0.0982  0.1748 -0.0391
 6584W        W49496   1.721   5.826  25.917 -0.0536 -0.0063  0.1375
 6585W        W49497   4.046   5.389  25.099  0.2725 -0.0478 -0.0325
 6586W        W49498   2.980   5.512  24.130  0.2512 -0.0650 -0.1123
 6587W        W49499  34.404   5.546  24.767 -0.2823  0.0623  0.0852
 6588W        W49500   3.019   5.111  27.560 -0.0873  0.1179 -0.0398
 6589W        W49501   1.963   4.788  23.638 -0.1226 -0.1838  0.3579
 6590W        W49502   2.391   4.658  26.969  0.3446 -0.4043  0.4026
 6591W        W49503   1.466   7.604  24.679 -0.4066 -0.0375 -0.0881
 6592W        W49504   1.910   6.016  24.789  0.1031 -0.1229 -0.1757
 6593W        W49505   2.487   5.044  23.510  0.2573  0.3752 -0.1391
 6594W        W49506   0.317   4.483  24.971 -0.1280 -0.1430 -0.1462
 6595W        W49507   1.007   8.190  27.161  0.2415 -0.1409  0.1044
 6596W        W49508   1.311   4.670  22.849  0.3154 -0.1511 -0.0878
 6597W        W49509   1.398   4.086  22.843 -0.1475 -0.3195 -0.6706
 6598W        W49510   2.574   5.732  25.947 -0.3143 -0.0109 -0.0672
 6599W        W49511   2.313   5.981  29.083  0.3044 -0.0040 -0.1519
 6600W        W49512   2.614   4.029  24.219  0.0679  0.0397 -0.0629
 6601W        W49513   3.415   5.771  28.180  0.2592 -0.2532 -0.0124
 6602W        W49514   0.286   5.345  24.039  0.2405 -0.2863 -0.0590
 6603W        W49515   3.099   3.933  25.662  0.0289 -0.2789  0.0288
 6604W        W49516  33.854   7.508  28.520 -0.0251 -0.1663  0.2535
 6605W        W49517   0.297   7.528  26.972 -0.0122 -0.0709  0.1108
 6606W        W49518  34.019   5.991  26.767 -0.1035 -0.1948  0.0477
 6607W        W49519   2.615   5.142  25.979  0.2393  0.2553  0.2313
 6608W        W49520   3.346   5.629  24.483 -0.1828  0.0025  0.1547
 6609W        W49521   1.160   5.634  25.649 -0.0445  0.1184 -0.0666
 6610W        W49522   3.029   5.328  25.687  0.0603  0.0749 -0.1762
 6611W        W49523   0.822   6.208  26.846  0.1048  0.0322 -0.0444
 6612W        W49524   1.421   5.403  25.216 -0.2219 -0.0207 -0.0807
 6613W        W49525   2.145   6.378  26.345 -0.0630 -0.1860  0.1234
 6614W        W49526   3.897   5.862  23.849 -0.1222 -0.0843  0.1715
 6615W        W49527   1.749   6.551  26.618 -0.0025 -0.0585 -0.1771
 6616W        W49528  34.056   6.449  27.057  0.2361  0.0101 -0.2791
 6617W        W49529   2.164   3.504  27.229 -0.1721  0.1494  0.3104
 6618W        W49530   2.242   5.530  25.102  0.1246  0.0626 -0.0861
 6619W        W49531   0.297   5.151  25.449 -0.0989 -0.0632 -0.1869
 6620W        W49532   1.595   5.752  23.783  0.0097 -0.5657  0.1159
 6621W        W49533   0.796   7.236  28.271 -0.1165 -0.2238  0.4245
 6622W        W49534  33.615   6.089  25.547  0.0849 -0.0236 -0.1113
 6623W        W49535  33.947   6.892  26.372  0.2259  0.1863  0.0456
 6624W        W49536   2.746   5.335  25.122  0.2111 -0.0218 -0.2544
 6625W        W49537   1.394   4.555  23.709 -0.0028  0.0152 -0.2234
 6626W        W49538   1.627   7.707  26.403 -0.0479 -0.5050  0.0207
 6627W        W49539   2.166   5.427  26.855  0.0745 -0.2028 -0.1115
 6628W        W49540   1.249   6.444  26.768  0.0134  0.2497 -0.1590
 6629W        W49541  34.576   6.237  24.465 -0.0278  0.0931 -0.3228
 6630W        W49542   1.561   6.790  24.734  0.3949 -0.1005  0.1578
 6631W        W49543  34.022   7.305  25.972  0.1602 -0.4031 -0.1499
 6632W        W49544   4.126   6.977  27.518  0.1002  0.0894  0.1470
 6633W        W49545   5.318   4.850  24.594  0.2313 -0.1496  0.2164
 6634W        W49546   4.363   6.761  23.380  0.2271 -0.1617 -0.1116
 6635W        W49547   3.209   3.446  23.630  0.1063  0.0004  0.1147
 6636W        W49548   1.357   8.559  26.802 -0.1821 -0.0733  0.2259
 6637W        W49549   0.678   5.938  26.275  0.0158 -0.1439 -0.0361
 6638W        W49550   1.561   4.811  24.081  0.1524  0.0928 -0.0872
 6639W        W49551  34.649   4.935  27.824 -0.0996 -0.0110 -0.0678
 6640W        W49552   3.031   4.023  26.624  0.0975 -0.0034  0.2174
 6641W        W49553   0.705   8.178  28.111  0.3169 -0.0461 -0.0810
 6642W        W49554   2.094   7.016  24.490  0.0182 -0.2469 -0.3091
 6643W        W49555   0.548   5.045  23.719  0.1612 -0.2443 -0.0879
 6644W        W49556   1.626   7.846  27.388  0.0747  0.0043 -0.0812
 6645W        W49557   4.771   3.079  26.946  0.0005 -0.1599 -0.0653
 6646W        W49558   1.171   5.820  24.157 -0.3115 -0.0806  0.2038
 6647W        W49559   2.602   4.749  24.443  0.2367 -0.0218 -0.2395
 6648W        W49560   0.041   7.936  26.477 -0.0025  0.2625 -0.1304
 6649W        W49561   1.486   8.299  27.469  0.0695  0.0595 -0.1999
 6650W        W49562   1.310   7.917  25.918  0.1900  0.0425  0.1798
 6651W        W49563  33.538   4.402  24.158  0.2523 -0.0942 -0.0269
 6652W        W49564   4.639   4.154  23.684 -0.0309  0.0225  0.0420
 6653W        W49565   0.369   5.829  26.783  0.0737 -0.0323  0.2018
 6654W        W49566   3.760   4.626  25.568  0.3185 -0.2531  0.0129
 6655W        W49567  34.602   4.518  24.574 -0.0414  0.0953  0.1210
 6656W        W49568   3.401   4.302  25.369  0.0296 -0.1807  0.0028
 6657W        W49569   1.896   6.184  27.912 -0.0801  0.0960 -0.2196
 6658W        W49570   1.277   6.034  27.145 -0.0128  0.0451 -0.1530
 6659W        W49571   2.811   4.856  22.596  0.3918  0.2428  0.1397
 6660W        W49572   3.241   7.580  28.438 -0.4298 -0.0359 -0.1677
 6661W        W49573   3.922   4.887  23.591 -0.0571 -0.0241 -0.1066
 6662W        W49574   1.600   7.526  26.883 -0.1419 -0.0220 -0.4644
 6663W        W49575  34.558   3.994  24.257 -0.1344 -0.2276 -0.0426
 6664W        W49576   2.261   5.130  24.696 -0.1014  0.1652 -0.1168
 6665W        W49577   1.811   6.997  26.228  0.2056  0.0200  0.0714
 6666W        W49578   1.497   6.165  26.360  0.2202 -0.1510  0.0225
 6667W        W49579   4.180   6.500  27.797  0.0424 -0.2859 -0.3095
 6668W        W49580   0.746   4.574  23.924 -0.1899 -0.2484 -0.0017
 6669W        W49581   4.629   5.464  23.571 -0.0164  0.1256  0.0280
 6670W        W49582   4.824   5.382  25.056 -0.2150 -0.3325  0.3511
 6671W        W49583   1.941   7.083  23.496  0.4115 -0.0035  0.3063
 6672W        W49584   3.415   5.745  27.033 -0.0300 -0.0803  0.0803
 6673W        W49585   2.155   7.593  26.522  0.0267  0.0357  0.1163
 6674W        W49586   0.081   5.606  25.358  0.1703 -0.0147  0.3647
 6675W        W49587   2.088   6.270  25.334  0.0246 -0.1713  0.0247
 6676W        W49588   2.462   5.339  26.416 -0.0674 -0.1450  0.0279
 6677W        W49589   1.087   4.851  24.211 -0.2163  0.0534  0.0226
 6678W        W49590   1.417   5.304  24.250 -0.1888  0.3679 -0.0473
 6679W        W49591   1.336   8.047  24.466 -0.2297  0.2887  0.1201
 6680W        W49592   2.425   5.402  25.572  0.1862  0.2741  0.2485
 6681W        W49593   2.255   3.509  27.749  0.3013  0.1269  0.1335
 6682W        W49594   2.125   5.610  24.560  0.0348  0.0715  0.0028
 6683W        W49595   4.345   4.009  25.804 -0.4977  0.0604  0.1017
 6684W        W49596   0.809   6.993  25.587 -0.0602  0.3749  0.0952
 6685W        W49597   0.175   6.110  27.454  0.0906  0.2148  0.0349
 6686W        W49598   1.529   4.910  23.204  0.1317 -0.2805  0.0871
 6687W        W49599   1.716   5.083  26.259  0.1138  0.0294  0.0105
 6688W        W49600   2.865   5.792  25.372  0.1521 -0.1487  0.3664
 6689W        W49601   0.289   9.677  24.232 -0.1267 -0.0578 -0.3236
 6690W        W49602   1.973   7.427  27.289 -0.3430  0.2947 -0.1570
 6691W        W49603   2.064   4.470  25.828 -0.2012  0.0907 -0.3276
 6692W        W49604   3.052   7.868  25.293 -0.0802  0.3983 -0.0609
 6693W        W49605  34.326   5.157  25.191  0.0576 -0.0165 -0.0804
 6694W        W49606   3.680   3.988  24.538  0.0586  0.0583 -0.1613
 6695W        W49607   3.377   2.982  22.372  0.2153 -0.1223 -0.2594
 6696W        W49608   2.028   7.166  26.858 -0.2857  0.0354  0.1169
 6697W        W49609  34.343   5.360  23.933  0.1241  0.0846 -0.1468
 6698W        W49610   0.467   6.089  22.308 -0.0312 -0.3870  0.0184
 6699W        W49611  33.181   6.936  25.915 -0.0350 -0.0970 -0.0388
 6700W        W49612   2.143   4.946  26.608 -0.1536  0.0870 -0.2678
 6701W        W49613   0.528   4.075  27.891  0.0416 -0.2440  0.2888
 6702W        W49614   0.598   5.594  25.458  0.0095 -0.0657  0.0396
 6703W        W49615  34.459   4.954  24.724  0.0220  0.1757 -0.1407
 6704W        W49616   2.852   5.207  24.458 -0.2435 -0.0687 -0.1862
 6705W        W49617   0.798   5.341  25.094  0.0951  0.2213 -0.3585
 6706W        W49618   0.624   4.951  24.274  0.2421 -0.3298  0.2067
 6707W        W49619   2.366   6.374  24.966 -0.2627 -0.0539  0.0118
 6708W        W49620   3.003   6.174  25.142 -0.0006 -0.1915 -0.2408
 6709W        W49621   2.084   4.439  24.180  0.3088  0.0385 -0.1958
 6710W        W49622   4.671   6.347  27.411  0.0504  0.1748  0.0710
 6711W        W49623   0.167   6.333  22.647  0.0862 -0.3718  0.0845
 6712W        W49624   2.054   5.007  27.127  0.3834  0.1037 -0.0687
 6713W        W49625   1.925   5.524  25.581  0.1812  0.0040  0.1400
 6714W        W49626  34.228   4.335  22.921  0.0654  0.0692 -0.2296
 6715W        W49627   1.989   4.580  25.318  0.0395  0.0781  0.4118
 6716W        W49628   1.570   6.358  24.960  0.0743  0.4236  0.0786
 6717W        W49629   3.043   6.292  23.653  0.2065 -0.0231 -0.0108
 6718W        W49630   2.020   5.763  26.551  0.2052  0.1809 -0.0763
 6719W        W49631   0.915   7.654  27.933 -0.0377  0.2553  0.0587
 6720W        W49632   1.308   3.479  24.210 -0.1736  0.2061  0.0993
 6721W        W49633   3.016   5.678  24.908  0.1188 -0.1775 -0.1439
 6722W        W49634   2.354   5.981  28.272  0.2275 -0.2084 -0.1364
 6723W        W49635   3.875   5.935  24.318 -0.0093 -0.0374 -0.1972
 6724W        W49636   4.122   4.491  25.963 -0.0579 -0.1549  0.0477
 6725W        W49637   3.828   5.653  25.500 -0.2095 -0.3361 -0.1689
 6726W        W49638   1.367   4.028  25.179 -0.4512 -0.0031 -0.1579
 6727W        W49639   1.216   4.731  26.926 -0.1515 -0.2691 -0.0741
 6728W        W49640   3.301   6.572  26.986 -0.1258  0.1255 -0.2588
 6729W        W49641   0.138   4.871  24.145  0.1338 -0.1217  0.0265
 6730W        W49642   2.179   6.039  23.333  0.1006 -0.2565 -0.0479
 6731W        W49643   2.437   5.576  23.684  0.0489  0.0716 -0.1893
 6732W        W49644   0.995   5.946  25.126  0.0937  0.3232 -0.1784
 6733W        W49645   2.024   3.926  22.211  0.1437  0.1119  0.0058
 6734W        W49646   2.190   6.206  26.878 -0.2471  0.0993 -0.1432
 6735W        W49647   1.107   6.826  27.070  0.1127 -0.1097  0.2253
 6736W        W49648   3.174   6.675  28.153  0.0370  0.3311  0.0897
 6737W        W49649   1.435   5.539  22.491  0.1833 -0.0269 -0.1593
 6738W        W49650   4.139   7.467  24.089 -0.4122 -0.2458  0.1361
 6739W        W49651   2.554   9.052  27.578 -0.0697 -0.1258 -0.1764
 6740W        W49652   3.984   6.768  28.150  0.1283 -0.1089  0.1565
 6741W        W49653   2.052   7.866  27.056 -0.2590 -0.1571 -0.0992
 6742W        W49654   3.274   5.857  25.867  0.3384  0.0349  0.0915
 6743W        W49655   2.751   3.269  23.891 -0.1178  0.0111 -0.0132
 6744W        W49656   1.143   4.960  23.588 -0.0977 -0.0196  0.2320
 6745W        W49657   1.761   5.070  24.565 -0.1093 -0.1167  0.1826
 6746W        W49658   3.155   5.250  27.115  0.2130 -0.0937 -0.0063
 6747W        W49659   1.194   3.849  24.503 -0.1030 -0.1415  0.2547
 6748W        W49660   3.336   3.867  23.416  0.1847  0.3502 -0.2134
 6749W        W49661   1.391   6.722  26.254 -0.1554  0.0370 -0.0072
 6750W        W49662   2.969   7.671  27.478  0.0105  0.0342  0.2746
 6751W        W49663   1.865   6.785  30.335 -0.1625  0.1707 -0.0107
 6752W        W49664   2.111   4.210  30.880  0.0486  0.1861  0.2574
 6753W        W49665   2.212   4.508  28.990  0.0017  0.1301 -0.3467
 6754W        W49666   3.862   6.265  28.167  0.0330  0.0527 -0.1875
 6755W        W49667   1.173   4.859  29.611  0.1847  0.2696 -0.0667
 6756W        W49668   2.167   6.509  29.010  0.0749 -0.1309 -0.0817
 6757W        W49669   1.443   3.443  30.460 -0.3841  0.1802 -0.0059
 6758W        W49670   1.880   7.250  30.167  0.2674  0.1012 -0.2334
 6759W        W49671   3.753   5.628  30.248  0.0784 -0.0748 -0.1425
 6760W        W49672   2.992   6.185  27.373 -0.0424  0.0119  0.3729
 6761W        W49673   2.210   4.711  31.548  0.0625 -0.3688 -0.2721
 6762W        W49674   1.686   7.531  30.978  0.0987  0.3702 -0.0154
 6763W        W49675   0.864   3.492  28.126 -0.0258 -0.1723  0.0157
 6764W        W49676   1.467   4.449  30.378  0.5332  0.0339 -0.0797
 6765W        W49677   2.653   5.711   0.488 -0.0448  0.0297 -0.2899
 6766W        W49678   0.683   5.418  28.712 -0.0271  0.0940 -0.0884
 6767W        W49679   2.104   3.999  29.888  0.0580 -0.1958 -0.4314
 6768W        W49680   2.411   5.472  29.116 -0.0775 -0.1474  0.0920
 6769W        W49681   2.636   7.549  30.079  0.2988 -0.0385 -0.2960
 6770W        W49682   1.357   4.905  30.614  0.1239  0.2895  0.1519
 6771W        W49683   1.665   3.503  31.827  0.0772 -0.1112 -0.0424
 6772W        W49684   1.860   7.362  29.661 -0.1177 -0.1622 -0.3231
 6773W        W49685   0.922   4.083  28.210  0.2507 -0.0180 -0.0698
 6774W        W49686   1.526   4.824  30.015 -0.1774 -0.0155 -0.1117
 6775W        W49687   0.440   4.997  30.331  0.1792  0.2362  0.2007
 6776W        W49688   3.154   5.502  29.486  0.0300 -0.2374 -0.4733
 6777W        W49689   3.066   5.585  30.034 -0.1906 -0.1054  0.1550
 6778W        W49690   0.881   6.413  29.316 -0.1309  0.0766 -0.0634
 6779W        W49691   2.878   5.734  30.557  0.2033 -0.2499  0.0374
 6780W        W49692   3.621   4.230   0.831  0.0923  0.2437  0.0845
 6781W        W49693   1.453   5.268  29.702 -0.1272 -0.0721 -0.0845
 6782W        W49694  34.516   5.945  28.365 -0.0832 -0.0216  0.1731
 6783W        W49695   1.379   6.196  28.147  0.3707  0.3476 -0.0336
 6784W        W49696   2.963   5.388  28.878  0.1294  0.1845  0.1496
 6785W        W49697   3.047   7.001  30.594 -0.2687 -0.0771 -0.0698
 6786W        W49698   1.695   8.022  30.876  0.0979  0.0258  0.1042
 6787W        W49699   0.590   6.370  28.242  0.2810  0.1708  0.0251
 6788W        W49700   3.354   6.640  31.240 -0.1633  0.0571 -0.3022
 6789W        W49701   0.785   6.600  30.892 -0.0684 -0.3125 -0.1749
 6790W        W49702   2.226   6.316  29.923 -0.1917  0.1229 -0.0150
 6791W        W49703   1.806   4.669  29.386  0.0954 -0.1079  0.1606
 6792W        W49704   1.958   6.696  27.606  0.2060 -0.1380  0.1981
 6793W        W49705   2.844   5.375  31.536  0.0490  0.1268 -0.3242
 6794W        W49706   1.208   7.362  30.954 -0.0501 -0.0468  0.1261
 6795W        W49707   0.653   6.395  28.781  0.0835 -0.0660  0.5520
 6796W        W49708   4.687   4.340   1.980  0.2973  0.0016 -0.0709
 6797W        W49709   0.118   7.446  29.989 -0.1537 -0.1127  0.2675
 6798W        W49710   2.364   6.241  27.853 -0.1157 -0.1708  0.0590
 6799W        W49711   1.654   4.473  28.451  0.0696 -0.2433  0.1382
 6800W        W49712   2.737   3.945  30.073 -0.1582 -0.2082 -0.2160
 6801W        W49713   2.345   3.983  27.473  0.2003  0.1076  0.2651
 6802W        W49714   1.562   6.968  29.215  0.1155  0.1894  0.3543
 6803W        W49715   2.767   4.421  31.554  0.1285 -0.0830  0.1599
 6804W        W49716   4.181   5.843  31.495 -0.0155  0.2819  0.0476
 6805W        W49717   2.458   5.670  28.689  0.1418  0.1340 -0.3833
 6806W        W49718   2.341   5.088  30.054  0.1494 -0.0130  0.1674
 6807W        W49719   0.500   5.116  29.495  0.1412 -0.0708 -0.0019
 6808W        W49720   1.245   4.754  28.744  0.0745  0.0808  0.0770
 6809W        W49721   3.198   7.529  29.250  0.0185 -0.0462  0.0685
 6810W        W49722   2.931   7.119  29.089  0.2021 -0.0452 -0.2297
 6811W        W49723   2.585   6.255  28.714 -0.0849 -0.0636 -0.1209
 6812W        W49724   1.865   5.627  29.273 -0.1186  0.0350  0.1828
 6813W        W49725  34.152   6.048  30.174  0.1361 -0.0831 -0.1135
 6814W        W49726  34.258   5.358  29.103  0.5318  0.3914  0.0295
 6815W        W49727   2.588   4.847  26.424 -0.2163 -0.0064  0.0242
 6816W        W49728   5.040   6.071  31.740 -0.2100 -0.1289  0.0096
 6817W        W49729   0.207   5.234  29.922  0.2247 -0.2381  0.4071
 6818W        W49730   2.782   4.210  29.119  0.0494  0.0837 -0.2371
 6819W        W49731   1.379   5.597  28.973 -0.0732  0.0508  0.1702
 6820W        W49732   3.323   5.989  29.507  0.4063  0.1253  0.1122
 6821W        W49733   2.400   5.590  30.160 -0.0637  0.2229 -0.0339
 6822W        W49734   2.832   3.280  30.172 -0.2455 -0.1487 -0.2146
 6823W        W49735   3.065   3.763  30.973  0.1864 -0.1163 -0.0965
 6824W        W49736   1.191   5.319  27.777  0.1099  0.1118  0.1183
 6825W        W49737   2.303   5.188  28.578  0.0500 -0.0845  0.0220
 6826W        W49738   3.690   5.327  29.771  0.0356 -0.0541  0.4499
 6827W        W49739   3.226   4.833  28.693 -0.2681 -0.1217  0.2320
 6828W        W49740   1.633   6.943  29.875 -0.1717 -0.0183 -0.0989
 6829W        W49741   1.649   5.124  31.748  0.1724  0.1258  0.1949
 6830W        W49742   0.516   6.883  30.584  0.1990  0.2462 -0.1021
 6831W        W49743   0.653   6.846  28.948 -0.0307  0.0517 -0.0160
 6832W        W49744   0.971   6.518  29.861 -0.2442  0.1408 -0.0068
 6833W        W49745   0.628   7.868  27.518 -0.0635  0.0301  0.1320
 6834W        W49746   1.174   4.276  30.784  0.2906 -0.1586 -0.1378
 6835W        W49747   1.456   5.728  29.511 -0.0857 -0.1106 -0.0646
 6836W        W49748   2.802   4.927  28.183  0.2232 -0.0909 -0.0630
 6837W        W49749  34.640   4.348   0.111 -0.2181 -0.0922 -0.2392
 6838W        W49750   2.469   3.967  28.774 -0.0686 -0.2467  0.0416
 6839W        W49751   1.327   5.743  28.474 -0.1038  0.1893  0.1764
 6840W        W49752   3.361   6.130  29.014  0.2167  0.1040 -0.1216
 6841W        W49753   2.320   5.209  29.558  0.0912  0.0591 -0.1120
 6842W        W49754   2.721   6.936  28.331 -0.1910  0.2218  0.2427
 6843W        W49755   0.644   4.205  30.639  0.2667 -0.0167 -0.4273
 6844W        W49756   2.361   4.685  29.439 -0.3483 -0.0561 -0.4733
 6845W        W49757   0.746   4.897  31.404 -0.5046  0.0119 -0.1114
 6846W        W49758   0.571   4.213  29.770  0.0275  0.0537  0.0863
 6847W        W49759   2.862   4.420  30.250  0.1642  0.0458  0.1073
 6848W        W49760   0.005   4.653  28.321 -0.0360 -0.0182 -0.0014
 6849W        W49761   4.080   3.950  29.801  0.0572 -0.3017 -0.3358
 6850W        W49762   1.558   4.231  29.907  0.1762  0.1150 -0.1402
 6851W        W49763   0.985   5.959  29.493  0.0036  0.3030 -0.0261
 6852W        W49764   3.350   3.379  31.171  0.0255 -0.0064 -0.0670
 6853W        W49765   2.791   7.405  28.180  0.2593  0.2853 -0.1822
 6854W        W49766   4.110   7.476  31.301  0.0659  0.1328  0.2407
 6855W        W49767   3.061   6.252  29.937  0.2868 -0.0290  0.1668
 6856W        W49768  34.460   4.727  31.768 -0.0087 -0.0013 -0.1960
 6857W        W49769  34.430   4.159  27.752  0.1797 -0.1268  0.2889
 6858W        W49770   0.907   6.463  30.366  0.0799  0.1153 -0.2296
 6859W        W49771   2.014   6.179  30.774  0.1224 -0.0098  0.1671
 6860W        W49772   3.561   3.977  29.634  0.0981  0.0201  0.1466
 6861W        W49773   3.220   5.590  31.109  0.0467  0.1479  0.1892
 6862W        W49774   0.831   6.900  29.437 -0.1292 -0.1544 -0.2974
 6863W        W49775   0.307   5.735  30.790 -0.0678  0.1463  0.0240
 6864W        W49776   2.858   3.471  31.353  0.2619 -0.0572  0.0820
 6865W        W49777   3.977   4.912  29.790  0.1392 -0.0805  0.2849
 6866W        W49778   1.751   3.752  30.124  0.0074 -0.3662 -0.0807
 6867W        W49779   1.199   5.276  27.205 -0.1446 -0.1433 -0.0300
 6868W        W49780   3.706   5.133  31.144  0.1262 -0.0046  0.2134
 6869W        W49781  34.494   7.249  28.304 -0.1949 -0.3661  0.0967
 6870W        W49782   0.828   5.210  29.885  0.0987  0.2232 -0.0778
 6871W        W49783   2.200   6.441  30.426  0.1136  0.0416 -0.1512
 6872W        W49784   2.410   3.613  29.718 -0.1403  0.1088  0.0367
 6873W        W49785   0.903   5.409   0.134  0.1674  0.0040  0.0151
 6874W        W49786   3.142   4.659  31.784 -0.2371  0.0572  0.0488
 6875W        W49787   2.175   5.322  28.131 -0.1309  0.2626 -0.4461
 6876W        W49788  34.638   5.665  30.000 -0.1476  0.2078  0.2327
 6877W        W49789   3.729   4.273  30.008 -0.0575  0.1179 -0.0946
 6878W        W49790   2.226   5.775  27.824 -0.0877 -0.1119 -0.1937
 6879W        W49791   2.947   5.906  31.448 -0.2716 -0.0429 -0.0631
 6880W        W49792   3.939   4.836  28.372  0.3023 -0.1280  0.0632
 6881W        W49793   2.062   4.310  26.866  0.3177  0.0980  0.1898
 6882W        W49794   3.531   4.006  28.636 -0.2022  0.1623 -0.0154
 6883W        W49795   1.617   6.852  31.512 -0.0931 -0.1937 -0.0841
 6884W        W49796   1.410   6.129  27.580 -0.1069 -0.1667 -0.2363
 6885W        W49797   1.231   5.574  30.610 -0.1593  0.1254 -0.1119
 6886W        W49798   2.586   4.939  27.366  0.0825  0.0486  0.0677
 6887W        W49799   3.742   7.237  29.274 -0.0300 -0.0947 -0.2474
 6888W        W49800  34.338   6.071  29.695 -0.1506  0.0745 -0.1233
 6889W        W49801   2.535   6.386   0.052  0.1633  0.0633 -0.3947
 6890W        W49802   1.597   7.399  28.844  0.1830 -0.0163 -0.0424
 6891W        W49803   3.168   4.365  31.205  0.0275  0.0726 -0.0257
 6892W        W49804   3.116   4.268  28.723 -0.0204  0.3180 -0.1567
 6893W        W49805   0.955   3.453  31.049  0.2057 -0.0153  0.2710
 6894W        W49806   0.501   7.521  29.577  0.0756 -0.1604  0.1626
 6895W        W49807   3.268   2.811  30.239  0.0222 -0.1465 -0.1269
 6896W        W49808   1.821   3.565  29.679 -0.0691  0.1048  0.2752
 6897W        W49809   1.925   3.893  31.485  0.0958  0.1093 -0.2194
 6898W        W49810   3.252   6.089   0.220  0.0811 -0.1517 -0.1909
 6899W        W49811   3.016   4.076  29.560  0.1059 -0.1210 -0.0210
 6900W        W49812   3.114   4.916  30.343 -0.0695  0.0845 -0.1516
 6901W        W49813  34.407   4.701  28.757 -0.1744  0.0137  0.0032
 6902W        W49814   1.741   4.700  31.367 -0.1760  0.0963 -0.1444
 6903W        W49815   0.621   5.327  30.703 -0.2117 -0.3521  0.1152
 6904W        W49816  34.380   5.151  30.335 -0.0710  0.0250  0.0473
 6905W        W49817   2.316   5.977  31.165 -0.1266  0.0356  0.1028
 6906W        W49818   2.003   7.494  28.656 -0.0547  0.0680  0.0680
 6907W        W49819   2.467   3.479   0.333 -0.0437  0.0394 -0.1770
 6908W        W49820   1.880   4.109  28.806  0.0019  0.0002  0.0036
 6909W        W49821   1.457   7.532  27.973 -0.1112 -0.0319 -0.1132
 6910W        W49822   2.318   6.704  28.546  0.2429 -0.1497 -0.3448
 6911W        W49823   1.680   4.614  30.860  0.2866 -0.0838 -0.0069
 6912W        W49824   2.412   6.207  31.611 -0.0772  0.0255  0.3556
 6913W        W49825   1.681   6.034  28.822  0.1931  0.0396  0.1305
 6914W        W49826   2.660   5.397   0.032 -0.0940 -0.2206 -0.0635
 6915W        W49827   0.394   5.039  28.136  0.1021 -0.2625 -0.0051
 6916W        W49828   3.771   3.684  29.154  0.0038 -0.1124  0.0063
 6917W        W49829   0.340   6.170  29.300 -0.0976  0.0793 -0.1266
 6918W        W49830   0.847   4.480  28.703 -0.0638 -0.1157  0.0809
 6919W        W49831   0.071   4.698  26.438 -0.3099  0.2589  0.0057
 6920W        W49832   3.574   3.508  28.593  0.3780  0.0509 -0.0367
 6921W        W49833   2.159   4.861  27.794 -0.1337  0.1666 -0.0823
 6922W        W49834   1.390   3.538  29.283 -0.3024 -0.0228 -0.1244
 6923W        W49835   2.068   3.492  30.652  0.1486 -0.1079  0.2090
 6924W        W49836   0.324   7.451  30.830 -0.2047 -0.2366  0.1069
 6925W        W49837   1.600   5.908  30.520 -0.0522 -0.0615 -0.3315
 6926W        W49838   3.428   5.023  28.182  0.2101  0.0104  0.0688
 6927W        W49839   3.341   6.155  31.253  0.0948  0.0209 -0.1493
 6928W        W49840   0.682   6.629   0.073  0.1807 -0.0395 -0.1948
 6929W        W49841   1.819   4.074  28.286  0.3228  0.2012 -0.0285
 6930W        W49842   3.705   5.209  29.263 -0.0616 -0.1727 -0.0980
 6931W        W49843   1.985   4.583  29.996  0.1165 -0.3882  0.0968
 6932W        W49844   0.325   5.241  29.039  0.2444  0.1494  0.2601
 6933W        W49845   2.909   6.867  31.546  0.0489 -0.1898 -0.4055
 6934W        W49846   1.855   4.774  28.782  0.2381  0.3052 -0.3764
 6935W        W49847   0.836   4.951  28.464 -0.0215 -0.0850  0.1077
 6936W        W49848   1.038   3.950  31.679  0.0587 -0.0914 -0.1176
 6937W        W49849   3.271   5.545  31.705  0.0018 -0.0384  0.0089
 6938W        W49850   2.294   5.173  31.404  0.1113  0.1537  0.2483
 6939W        W49851   3.104   3.629  29.878  0.2945  0.2356  0.1654
 6940W        W49852   2.728   5.583  31.108  0.1864 -0.0520  0.2295
 6941W        W49853   2.534   6.864  29.199 -0.0665  0.1153  0.0542
 6942W        W49854   2.270   5.846   0.046 -0.2750 -0.0795 -0.0189
 6943W        W49855   0.468   6.247  30.700  0.3119 -0.4310  0.1615
 6944W        W49856   2.397   2.801  29.722  0.3966  0.1276 -0.1482
 6945W        W49857   3.753   6.930  28.888  0.0885 -0.1129 -0.1629
 6946W        W49858   2.537   4.788  30.452 -0.0642  0.1799  0.1293
 6947W        W49859   0.664   5.357  27.301 -0.0295  0.0353  0.0276
 6948W        W49860   0.086   4.649  30.596  0.1368 -0.0333  0.0115
 6949W        W49861   0.948   5.798  28.806  0.2208 -0.1835  0.0216
 6950W        W49862   2.980   3.851  31.681  0.1760  0.1817  0.1423
 6951W        W49863   1.741   6.337  30.040  0.0422 -0.0254 -0.0783
 6952W        W49864   1.380   6.200  29.751 -0.1749  0.2668 -0.0427
 6953W        W49865  33.767   5.294  29.341 -0.0642  0.0951 -0.2471
 6954W        W49866   3.828   5.331  28.271  0.4796  0.2035  0.1076
 6955W        W49867   1.700   6.145  29.355  0.1769  0.1558  0.1554
 6956W        W49868   3.519   5.045  31.709 -0.0928 -0.1089 -0.0626
 6957W        W49869   2.899   2.484  31.568 -0.1084 -0.4090  0.1635
 6958W        W49870   1.314   5.733  27.994 -0.0240 -0.0193 -0.2196
 6959W        W49871   4.758   2.900  31.506 -0.1557  0.1214  0.0239
 6960W        W49872   1.312   5.824   0.065  0.2181 -0.0110  0.1145
 6961W        W49873   2.793   6.577  29.584 -0.2040  0.0631  0.2842
 6962W        W49874   1.321   5.753  31.059  0.0169  0.2545  0.1093
 6963W        W49875   2.540   8.024  30.969  0.4014  0.1458  0.0550
 6964W        W49876   1.579   6.356  31.030  0.4461 -0.2367 -0.2904
 6965W        W49877   2.266   4.015  29.200  0.0652 -0.1826  0.2965
 6966W        W49878   1.173   2.027  26.443 -0.3452 -0.2521  0.0238
 6967W        W49879   0.990   5.147  30.418  0.1393 -0.1152  0.1248
 6968W        W49880   3.357   6.489  29.362 -0.0253  0.1471  0.0430
 6969W        W49881   1.440   7.183  27.592  0.2670 -0.0097 -0.0368
 6970W        W49882   3.346   3.543  29.445  0.2725  0.2306 -0.1355
 6971W        W49883   0.738   4.462  31.141 -0.2562 -0.2190  0.2470
 6972W        W49884   2.115   4.174  30.357 -0.2509  0.0978  0.2996
 6973W        W49885   2.645   5.433  28.227  0.1056 -0.0612  0.1586
 6974W        W49886   0.685   6.072  29.924 -0.1226  0.0047  0.0227
 6975W        W49887   1.402   3.673  31.399  0.0183  0.1937 -0.3447
 6976W        W49888   3.416   6.626  30.334  0.0207  0.2755  0.0696
 6977W        W49889   3.111   3.765  28.313 -0.3312  0.1705  0.3983
 6978W        W49890   2.607   4.883  31.754 -0.2596 -0.1692 -0.1342
 6979W        W49891   2.832   4.806   0.295 -0.2666 -0.0373 -0.2643
 6980W        W49892   2.526   5.264   0.606  0.4312 -0.3039 -0.1186
 6981W        W49893   1.268   4.637  31.208 -0.3080  0.0312  0.0505
 6982W        W49894   2.815   7.499  31.061  0.0227  0.1915  0.0780
 6983W        W49895   3.171   5.362  28.416  0.1737 -0.3301 -0.0256
 6984W        W49896   3.342   4.219  31.734  0.0629  0.5204 -0.3062
 6985W        W49897   3.233   5.059  29.168  0.1293 -0.0111 -0.3115
 6986W        W49898   1.968   5.655  28.748 -0.2342 -0.2515  0.1015
 6987W        W49899   1.815   5.183  30.832 -0.1596 -0.2508  0.0315
 6988W        W49900   1.600   6.902   0.624 -0.0945  0.1225  0.2149
 6989W        W49901   1.469   4.900  27.349 -0.0764 -0.1181 -0.2212
 6990W        W49902   2.210   4.925   0.129  0.1748 -0.2234  0.0218
 6991W        W49903   0.929   7.191  27.773 -0.2821 -0.1274 -0.0409
 6992W        W49904   1.651   5.277  28.713 -0.0995  0.0109  0.2374
 6993W        W49905   1.534   5.737  30.031 -0.0440 -0.0224  0.1774
 6994W        W49906   0.715   4.649  29.382 -0.0377  0.0588 -0.0016
 6995W        W49907   0.978   7.251  30.522 -0.0555 -0.2719  0.2425
 6996W        W49908   0.772   4.535  27.921 -0.0097 -0.2801 -0.1488
 6997W        W49909   0.905   5.472  28.229 -0.3350 -0.2611 -0.2560
 6998W        W49910   2.632   5.983  29.993 -0.0122  0.2397 -0.1599
 6999W        W49911   3.926   5.070   0.023 -0.3176 -0.1020 -0.0129
 7000W        W49912   1.751   4.690  26.784 -0.3358  0.2458 -0.2391
 7001W        W49913   3.114   5.092  31.956 -0.0363 -0.1881 -0.1003
 7002W        W49914   0.076   6.607  27.162  0.1059  0.3085  0.0062
 7003W        W49915   2.434   4.417  30.045  0.1891 -0.0895  0.3252
 7004W        W49916   1.023   7.748  29.557 -0.3855  0.0183  0.2098
 7005W        W49917  33.130   5.326  29.721  0.1523  0.0428 -0.1469
 7006W        W49918   1.193   6.292  28.609 -0.2081  0.2223 -0.1110
 7007W        W49919   2.268   4.266  31.344 -0.0243 -0.3506 -0.1363
 7008W        W49920   3.559   4.945  30.088  0.1525  0.1907  0.1783
 7009W        W49921   2.800   5.938  29.524  0.3456 -0.0960  0.3120
 7010W        W49922   2.785   6.166   0.535  0.0724 -0.0966 -0.1761
 7011W        W49923   2.332   6.701  31.342 -0.0021  0.0040 -0.3329
 7012W        W49924   0.760   5.962  30.423  0.0663  0.1951  0.1282
 7013W        W49925   3.460   5.984  30.066  0.1514 -0.2226 -0.2899
 7014W        W49926   3.551   5.364  27.846 -0.0820 -0.1568  0.3607
 7015W        W49927   1.236   6.748  30.784  0.1397 -0.0509 -0.0976
 7016W        W49928  34.319   4.582  31.294 -0.0312 -0.0349  0.0365
 7017W        W49929   1.591   6.406  31.726  0.1776  0.0437 -0.0631
 7018W        W49930   3.561   4.601  29.063  0.0566 -0.2635 -0.2031
 7019W        W49931   2.806   3.680  28.931  0.4249  0.1526  0.0495
 7020W        W49932   3.139   6.237  28.551 -0.0620 -0.0728  0.0169
 7021W        W49933   1.210   4.131  31.269  0.0036 -0.1757 -0.0717
 7022W        W49934   0.028   4.754  30.071  0.1188  0.0905  0.1143
 7023W        W49935  34.178   7.196  28.823 -0.2300 -0.0774  0.1168
 7024W        W49936   2.812   5.905  28.424 -0.1549 -0.2123  0.0122
 7025W        W49937   1.326   6.675  27.539  0.0558 -0.0222 -0.2860
 7026W        W49938   2.384   7.058  30.203  0.0900 -0.1389 -0.1587
 7027W        W49939   2.510   4.973  29.082 -0.0187  0.1715  0.1750
 7028W        W49940  34.583   5.969  29.291 -0.0506  0.0655  0.0077
 7029W        W49941   1.754   5.723  27.663  0.4139  0.0335  0.2048
 7030W        W49942   2.420   7.744  28.816 -0.2402  0.2099  0.1129
 7031W        W49943   1.399   8.644  30.093 -0.2624 -0.4203  0.0069
 7032W        W49944   4.263   6.592  31.487 -0.0418 -0.1326 -0.0708
 7033W        W49945   3.798   5.556  27.386 -0.0360  0.2766 -0.1500
 7034W        W49946   3.349   4.134  29.151 -0.0183  0.0176  0.1644
 7035W        W49947   3.161   2.877  28.792 -0.1508 -0.0044 -0.0459
 7036W        W49948   2.409   7.888  31.910 -0.1623 -0.1177  0.0064
 7037W        W49949   2.175   5.390  31.842  0.0250  0.2704  0.1294
 7038W        W49950   2.651   4.460  28.725 -0.1416  0.0917 -0.1208
 7039W        W49951   1.967   5.937  31.641 -0.0308  0.1684 -0.0476
 7040W        W49952   5.210   2.754  30.820 -0.1630 -0.0940  0.2023
 7041W        W49953   0.459   5.566  30.219 -0.2300 -0.0452 -0.1497
 7042W        W49954   3.263   8.072  29.098  0.3478 -0.0042 -0.1609
 7043W        W49955   1.871   4.214  29.504 -0.1722  0.0220 -0.4132
 7044W        W49956   2.079   5.947  30.248  0.3008 -0.0874 -0.1100
 7045W        W49957   3.077   3.323  28.591  0.1046  0.0707  0.2103
 7046W        W49958   2.394   6.533  27.431  0.2026 -0.1220  0.1358
 7047W        W49959   2.734   5.282  30.374  0.1914 -0.3130  0.2602
 7048W        W49960   0.386   6.558  29.728  0.2085  0.2217 -0.0582
 7049W        W49961   2.318   5.740  30.685 -0.2700  0.2158 -0.0634
 7050W        W49962   1.470   8.175  30.419  0.1080 -0.3062  0.3377
 7051W        W49963  34.663   3.876  28.271 -0.2627 -0.1630  0.0871
 7052W        W49964   3.845   3.537  29.679 -0.0646 -0.2054  0.0994
 7053W        W49965   2.565   4.441  30.767  0.1433 -0.1975  0.1088
 7054W        W49966   1.936   2.130  29.918 -0.0011  0.1420 -0.0921
 7055W        W49967   1.278   6.187  30.240  0.0149 -0.1709  0.1024
 7056W        W49968   2.779   5.097  29.439 -0.3273  0.1228 -0.1250
 7057W        W49969   3.929   5.421  30.760  0.3266 -0.3569 -0.0125
 7058W        W49970   0.798   5.771  30.867  0.4063 -0.2975 -0.2866
 7059W        W49971   1.874   4.975  28.310 -0.2565  0.1644  0.0084
 7060W        W49972   3.930   6.220  31.330 -0.2057 -0.0695 -0.3056
 7061W        W49973   2.062   5.316  27.644 -0.0999 -0.1298 -0.2865
 7062W        W49974   2.146   6.994   0.864  0.0633 -0.0379 -0.0013
 7063W        W49975   1.352   3.521  29.873 -0.2215  0.0758 -0.1137
 7064W        W49976   2.416   6.000  27.440 -0.2335  0.1433 -0.2332
 7065W        W49977   2.383   4.729  28.178  0.1887  0.0150 -0.1088
 7066W        W49978   0.702   6.844  31.507  0.1598  0.2424 -0.0023
 7067W        W49979   4.105   5.985  29.993  0.0171  0.2219 -0.0166
 7068W        W49980   1.923   3.264  30.161 -0.2188  0.5312 -0.2035
 7069W        W49981   3.677   6.071  28.590  0.2994  0.1093  0.0661
 7070W        W49982   3.594   4.908  30.689 -0.1804 -0.2240 -0.1499
 7071W        W49983   0.799   7.692  28.504 -0.0207  0.1880 -0.2022
 7072W        W49984   1.858   5.019  29.690 -0.1106  0.1747 -0.0560
 7073W        W49985   2.830   7.620  29.600 -0.0350 -0.1372  0.3399
 7074W        W49986   1.908   4.899  30.400  0.0638 -0.1231  0.0308
 7075W        W49987   2.807   5.149  30.864  0.3398 -0.0297 -0.1856
 7076W        W49988   1.979   5.106  29.207  0.0273  0.0764  0.2900
 7077W        W49989   2.299   4.077  28.080  0.1057  0.0549 -0.1112
 7078W        W49990   1.081   4.312  29.673 -0.1655 -0.2490 -0.1795
 7079W        W49991   0.472   6.901  28.488  0.1719  0.0383  0.0892
 7080W        W49992   4.130   3.332  29.211 -0.0706 -0.1616 -0.0630
 7081W        W49993   3.647   3.744  30.135  0.2152  0.0984 -0.2780
 7082W        W49994   0.451   5.851  28.712  0.0687  0.1440  0.0977
 7083W        W49995   3.345   3.815  31.398  0.0541 -0.3053 -0.1868
 7084W        W49996   1.987   5.269   0.461 -0.0541 -0.0482  0.0190
 7085W        W49997   0.609   7.106   0.078  0.2351 -0.0344 -0.2754
 7086W        W49998   1.278   6.994  28.110 -0.0005  0.0966 -0.2271
 7087W        W49999   1.737   5.616   0.078 -0.2472  0.1542 -0.1751
 7088W        W50000   2.356   6.800  29.644  0.2070  0.3508 -0.1243
 7089W        W50001   1.763   7.223  28.277 -0.2619 -0.0384 -0.0259
 7090W        W50002   2.816   6.644  30.286  0.3831 -0.1193  0.0921
 7091W        W50003   2.849   4.527  29.714 -0.0075  0.0120 -0.2105
 7092W        W50004   4.276   5.979  29.334 -0.1979  0.0093 -0.1496
 7093W        W50005   2.317   5.177  30.639  0.1729 -0.1602  0.1451
 7094W        W50006   4.302   4.038  28.734  0.0806  0.0219  0.2435
 7095W        W50007   3.033   4.615  29.223  0.0053 -0.1539 -0.0761
 7096W        W50008   1.983   5.472  30.413 -0.5267 -0.0045  0.1904
 7097W        W50009   0.250   5.403  27.682  0.2186 -0.1005 -0.0679
 7098W        W50010   1.658   5.359  27.253  0.3519  0.1364  0.1643
 7099W        W50011   1.222   6.102  29.127  0.0384 -0.0059  0.0872
 7100W        W50012   1.619   3.245  30.925  0.0559 -0.0016 -0.2447
 7101W        W50013   1.428   5.144  31.181  0.1420  0.1299 -0.2207
 7102W        W50014   1.589   6.485  30.546  0.1872 -0.0182 -0.1847
 7103W        W50015   1.824   3.746  29.178 -0.0209  0.0151  0.2987
 7104W        W50016   3.767   7.986  27.129 -0.1843  0.3259  0.2011
 7105W        W50017   1.372   6.098  31.410 -0.3145  0.0970  0.2657
 7106W        W50018   1.549   5.309  30.279 -0.0634 -0.0385 -0.0067
 7107W        W50019   3.556   7.181  31.311  0.1236 -0.1828 -0.0494
 7108W        W50020   2.804   7.039  29.616 -0.0433  0.2353 -0.0997
 7109W        W50021   2.298   3.583  30.180 -0.0055  0.2683 -0.0122
 7110W        W50022   3.067   7.400  31.473  0.1292  0.3817  0.1703
 7111W        W50023   0.740   5.577  27.766  0.1463 -0.2170 -0.0760
 7112W        W50024   2.546   3.927   0.086  0.1381 -0.1178 -0.1965
 7113W        W50025   0.952   5.854  31.557 -0.1029 -0.3091  0.3090
 7114W        W50026  34.105   3.980  27.391  0.0394  0.2207  0.0939
 7115W        W50027   2.851   4.978  29.959 -0.0972  0.0674  0.0247
 7116W        W50028   2.056   6.734  30.907  0.3913  0.0118 -0.2082
 7117W        W50029   2.156   8.085  28.575  0.2271  0.1951  0.0205
 7118W        W50030   1.891   5.432  31.418 -0.1586 -0.0460 -0.0126
 7119W        W50031   1.621   7.306  31.884  0.0981  0.3374 -0.0676
 7120W        W50032  33.076   3.639   0.699  0.1587  0.0427  0.0778
 7121W        W50033   1.629   6.541  28.904 -0.1498 -0.0142 -0.6024
 7122W        W50034   2.499   6.383  30.921  0.0939 -0.2777  0.3490
 7123W        W50035   3.278   6.996  29.409  0.1804 -0.2615  0.2025
 7124W        W50036   3.628   2.971  28.521  0.1153  0.3113  0.0942
 7125W        W50037   1.903   5.980  29.743 -0.1133  0.2600 -0.2397
 7126W        W50038   0.914   4.463  31.607 -0.0318 -0.1292  0.5727
 7127W        W50039   1.843   4.587  31.845  0.4495  0.0662  0.0633
 7128W        W50040   3.146   5.001  31.413 -0.0663  0.0969 -0.1499
 7129W        W50041   1.856   5.655  30.920 -0.1669 -0.1033 -0.0322
 7130W        W50042   2.598   4.264  27.750  0.0061  0.2416  0.1051
 7131W        W50043   1.422   6.988  28.632  0.1467  0.2709  0.0347
 7132W        W50044   0.913   4.674  30.120  0.1009 -0.2158  0.0100
 7133W        W50045   2.001   4.448  27.948 -0.1336  0.4434 -0.0619
 7134W        W50046   1.988   6.347  31.376  0.3590  0.0123 -0.2577
 7135W        W50047   2.918   6.067  30.910  0.0678  0.1268 -0.0727
 7136W        W50048   3.756   6.683  31.498  0.0428  0.3038 -0.0212
 7137W        W50049   1.654   5.372  28.078 -0.1720  0.0862 -0.2654
 7138W        W50050   4.049   4.880  29.234  0.0749 -0.0892  0.0945
 7139W        W50051   1.646   7.727  29.978  0.0190 -0.1844  0.0930
 7140W        W50052   4.479   7.468  30.918 -0.0718  0.3491 -0.2747
 7141W        W50053   2.358   7.775  31.348  0.0453  0.0115  0.0830
 7142W        W50054   1.941   5.493  29.888 -0.2890 -0.3318  0.3941
 7143W        W50055   0.924   3.640  30.579 -0.0579  0.2702  0.0907
 7144W        W50056   1.486   4.948  29.125  0.1799  0.2959  0.0827
 7145W        W50057   0.487   4.457  28.354 -0.0555 -0.0614 -0.1386
 7146W        W50058   4.164   4.555  31.251 -0.0003 -0.0785  0.1717
 7147W        W50059   0.930   5.008  30.949 -0.2976 -0.0090  0.2982
 7148W        W50060   3.144   4.654  26.384 -0.1139  0.1646  0.3467
 7149W        W50061   1.136   6.875  30.202 -0.3046 -0.1471 -0.3386
 7150W        W50062   3.249   4.595  29.991 -0.1431  0.2430 -0.0415
 7151W        W50063   3.627   4.667  31.094  0.1033  0.2060 -0.1734
 7152W        W50064   2.085   5.741   1.288 -0.0245 -0.0413 -0.0886
 7153W        W50065  33.916   4.762  31.657  0.1172 -0.0304 -0.1375
 7154W        W50066   0.950   5.432  31.219  0.1382 -0.0737 -0.2140
 7155W        W50067   2.433   7.105  31.073 -0.0080  0.2277 -0.1171
 7156W        W50068   1.296   8.322   0.677 -0.2195 -0.0471 -0.2836
 7157W        W50069   2.725   4.047  31.198 -0.0341 -0.3487  0.0526
 7158W        W50070   2.230   5.689   0.831  0.0620  0.1238 -0.1412
 7159W        W50071   3.783   3.654  31.559  0.0042 -0.2503 -0.2491
 7160W        W50072   5.094   6.030  31.239  0.0309  0.4487 -0.0202
 7161W        W50073   2.956   6.658   0.179  0.0717  0.1477  0.1557
 7162W        W50074   0.457   3.002  31.663 -0.4602  0.2957  0.2979
 7163W        W50075   2.912   7.541   0.339  0.0549  0.3163  0.3316
 7164W        W50076   0.491   6.201   0.035 -0.1462 -0.0739  0.1200
 7165W        W50077   2.609   6.970   0.356  0.1689  0.1396  0.0920
 7166W        W50078   0.424   4.820  30.892 -0.1314 -0.1706  0.2417
 7167W        W50079   0.033   5.993  31.663  0.0422 -0.0803 -0.0750
 7168W        W50080   3.229   7.141   0.437  0.0444 -0.0082 -0.1383
 7169W        W50081  34.197   4.898   0.733 -0.2830  0.0903  0.3975
 7170W        W50082   0.257   4.990  31.779 -0.2918 -0.2365 -0.0548
 7171W        W50083   0.106   4.796  31.309  0.0092 -0.0437 -0.0845
 7172W        W50084   1.020   8.333   0.210 -0.2033  0.0629  0.1273
 7173W        W50085   4.885   4.272   0.730  0.2742  0.3349  0.0726
 7174W        W50086   3.511   4.208  30.908  0.3736 -0.1005  0.0101
 7175W        W50087   3.404   3.770  31.967 -0.2734 -0.2468 -0.0582
 7176W        W50088   1.829   4.733   0.455 -0.0652 -0.3064 -0.4654
 7177W        W50089   0.692   6.165  31.237  0.1152 -0.1001 -0.1119
 7178W        W50090   2.026   6.613   0.485  0.2803  0.1339 -0.0389
 7179W        W50091   1.186   6.694  31.812 -0.0383 -0.1363  0.0400
 7180W        W50092   1.355   7.436  30.171  0.2923  0.1613  0.0591
 7181W        W50093   1.690   7.027  31.073  0.3283  0.0111  0.0464
 7182W        W50094   2.151   6.019   1.757  0.1560 -0.1235  0.2701
 7183W        W50095   2.480   5.674  31.582  0.1519 -0.1925 -0.0608
 7184W        W50096   4.477   2.694   1.060 -0.0792  0.1311 -0.1184
 7185W        W50097   2.088   3.815   0.371  0.1664  0.0144  0.1598
 7186W        W50098   0.811   6.864   0.572 -0.0199  0.1176  0.3583
 7187W        W50099   0.513   8.818   1.495 -0.1523 -0.2536  0.2401
 7188W        W50100   3.123   5.554   0.207 -0.2917 -0.1345  0.0338
 7189W        W50101   3.215   5.073   0.498 -0.0091  0.1680 -0.1678
 7190W        W50102   1.919   8.386   0.716 -0.0318  0.2377 -0.2988
 7191W        W50103   3.442   4.079   0.372 -0.1546 -0.1313  0.1741
 7192W        W50104   3.162   2.676   0.069  0.1107  0.0297 -0.1828
 7193W        W50105   1.701   4.012  31.965 -0.0604  0.0914 -0.1628
 7194W        W50106   2.780   5.943   0.008  0.1445  0.0461 -0.1634
 7195W        W50107   0.382   5.517   0.603  0.1867  0.1474 -0.1887
 7196W        W50108   1.516   7.135  30.591  0.0372 -0.0943 -0.0316
 7197W        W50109   2.926   2.798   0.825 -0.0180  0.0080 -0.1087
 7198W        W50110   0.608   7.840  30.536 -0.2971 -0.0687  0.1409
 7199W        W50111   2.487   7.378   0.614 -0.1609  0.0734 -0.0362
 7200W        W50112   0.113   5.199  30.716 -0.0269  0.3769 -0.1419
 7201W        W50113   2.554   7.339  31.550  0.0648  0.1934 -0.2032
 7202W        W50114   3.784   2.744  31.869  0.1586 -0.4236 -0.4465
 7203W        W50115   1.722   4.243  31.183 -0.3430 -0.1017  0.1161
 7204W        W50116   2.703   5.994   1.098  0.4131  0.6325 -0.1938
 7205W        W50117   1.100   6.473  31.256 -0.2454  0.3278  0.3615
 7206W        W50118   2.931   3.843   0.446  0.0564 -0.0616 -0.2239
 7207W        W50119   3.386   6.044  31.733 -0.0726 -0.1609 -0.3390
 7208W        W50120   1.285   7.905  31.120  0.0488 -0.1789  0.1790
 7209W        W50121   2.386   7.365   0.070 -0.1080 -0.2189 -0.1898
 7210W        W50122   1.189   7.016  31.325  0.0636 -0.0355  0.1773
 7211W        W50123   1.506   4.257  31.603  0.1379 -0.0638  0.0162
 7212W        W50124   2.036   7.626  31.698 -0.0166  0.0215 -0.0762
 7213W        W50125   1.248   4.804  31.721 -0.3625  0.3517  0.0903
 7214W        W50126  33.464   4.699  31.447  0.1920  0.0191 -0.0114
 7215W        W50127   3.322   7.842  31.613  0.4807 -0.1729 -0.2215
 7216W        W50128   3.821   5.846   0.039  0.2387 -0.0992  0.5263
 7217W        W50129   4.828   4.119   0.261  0.1513  0.2539  0.1423
 7218W        W50130   0.177  10.002  20.692 -0.0619 -0.1646  0.0509
 7219W        W50131   0.411   6.587  16.305 -0.1224 -0.0634  0.2780
 7220W        W50132   1.922   7.844  17.672  0.0774  0.0241 -0.3402
 7221W        W50133   3.809   8.161  17.054  0.2527  0.0448  0.0819
 7222W        W50134  33.982   8.530  16.130 -0.1468  0.2608 -0.0107
 7223W        W50135   0.346  12.123  17.600 -0.1526 -0.0804  0.1681
 7224W        W50136   0.318   8.117  18.383 -0.0593  0.2160  0.1708
 7225W        W50137   2.514  11.205  18.253 -0.0775  0.0332  0.2410
 7226W        W50138   4.132  11.256  18.707  0.2116  0.0208  0.0728
 7227W        W50139   1.159   8.729  15.993 -0.1937  0.1784  0.3107
 7228W        W50140   0.799   9.345  19.576 -0.1430  0.0410  0.2377
 7229W        W50141  34.504  11.002  19.788  0.0311 -0.1080 -0.1403
 7230W        W50142   3.239   8.032  17.198  0.0588 -0.1178  0.1419
 7231W        W50143  33.283   7.076  19.178  0.0835 -0.2017  0.2342
 7232W        W50144   3.045   8.009  18.685 -0.0289 -0.1293  0.1459
 7233W        W50145  32.878   7.912  17.397  0.1619 -0.0305 -0.0200
 7234W        W50146   1.446   6.171  17.096  0.1888  0.1522 -0.3007
 7235W        W50147   1.280   8.090  19.350 -0.2982  0.2432  0.0564
 7236W        W50148   2.348   9.879  16.324  0.0371 -0.1327 -0.1251
 7237W        W50149   1.211   8.956  20.541 -0.1774  0.1305  0.1908
 7238W        W50150   3.226   6.817  20.041  0.1935 -0.1784 -0.0416
 7239W        W50151   1.449   9.975  18.004 -0.1489 -0.0929  0.2049
 7240W        W50152  33.453   8.551  16.053  0.3209  0.1357  0.0200
 7241W        W50153   1.302   7.790  18.956 -0.0863  0.0480  0.1042
 7242W        W50154   0.587   7.995  17.554 -0.0282 -0.3497 -0.3387
 7243W        W50155   1.861   7.686  18.653  0.1145  0.0735  0.0383
 7244W        W50156   3.826   8.919  16.485  0.6655 -0.2770 -0.1337
 7245W        W50157   1.013  10.459  17.772  0.0539  0.3533  0.0720
 7246W        W50158   2.117  10.666  16.810 -0.0328  0.1478  0.0031
 7247W        W50159   3.291   8.533  20.198  0.0897 -0.0300  0.0422
 7248W        W50160   0.939   8.801  18.821  0.1947  0.0229  0.0613
 7249W        W50161  33.970  11.290  18.079 -0.1716 -0.0323  0.3229
 7250W        W50162   2.054   9.813  16.805  0.4621 -0.1714  0.5335
 7251W        W50163   2.293  10.933  17.415 -0.1122 -0.1715  0.1396
 7252W        W50164   2.682   8.321  19.151 -0.0758 -0.0067  0.2501
 7253W        W50165   1.495  11.485  20.621 -0.0756 -0.1788 -0.0415
 7254W        W50166   0.494   9.374  16.201  0.3896  0.2816 -0.2879
 7255W        W50167   2.221  10.497  19.917  0.0908  0.1825 -0.0129
 7256W        W50168   0.650  10.261  20.081 -0.1522  0.1471  0.0976
 7257W        W50169   0.769   9.017  19.232  0.2534  0.0276 -0.0795
 7258W        W50170   1.896  10.126  18.793 -0.1083 -0.3704 -0.0613
 7259W        W50171   0.686  10.910  16.766  0.0796  0.1005 -0.3584
 7260W        W50172   1.004   8.845  17.357 -0.3129 -0.2272 -0.0018
 7261W        W50173   1.997  10.235  20.312 -0.0883  0.0226  0.0879
 7262W        W50174   0.582   9.929  19.087 -0.4934  0.0324  0.4774
 7263W        W50175   4.522   9.276  19.304  0.1447  0.2738 -0.0717
 7264W        W50176   0.981   9.036  16.499 -0.2326 -0.1528 -0.1128
 7265W        W50177   3.125   9.592  16.354  0.1322  0.1824 -0.0086
 7266W        W50178  34.440   9.116  15.891  0.1117  0.2965 -0.0695
 7267W        W50179   2.019   8.195  16.826 -0.2396  0.1661 -0.0473
 7268W        W50180   0.602   6.991  17.858  0.3848 -0.1628  0.3267
 7269W        W50181   1.402  11.026  19.328 -0.2474 -0.2249  0.3347
 7270W        W50182  34.487   7.417  17.972 -0.0370  0.1147 -0.3668
 7271W        W50183   3.755   9.265  19.091  0.1816 -0.3956  0.0305
 7272W        W50184   1.725   8.817  17.577 -0.1534  0.0553 -0.0676
 7273W        W50185   1.447   8.574  19.019  0.1006 -0.2763 -0.0904
 7274W        W50186   1.328   9.735  20.028 -0.1251 -0.0511  0.0577
 7275W        W50187   0.826   8.380  17.192 -0.1292 -0.1841  0.0689
 7276W        W50188   0.939  10.447  16.703  0.1449 -0.1687 -0.0482
 7277W        W50189   2.792  11.003  17.210 -0.1218  0.1013 -0.2211
 7278W        W50190   1.431  10.489  16.432  0.2011 -0.1860 -0.0086
 7279W        W50191  34.111   8.243  17.359  0.0816 -0.0118 -0.1667
 7280W        W50192  34.596   9.699  21.125  0.0216  0.0383  0.0736
 7281W        W50193   0.505   9.562  20.512 -0.0765  0.1499  0.1038
 7282W        W50194   0.501   7.291  16.927 -0.2471  0.1733 -0.0103
 7283W        W50195   2.359  10.153  19.495 -0.3958 -0.0956 -0.1014
 7284W        W50196   0.253  10.286  19.785 -0.0049  0.2663  0.0071
 7285W        W50197   2.736   7.734  18.255 -0.0712  0.0120 -0.0519
 7286W        W50198   1.946   9.871  19.265 -0.1810  0.1169 -0.1331
 7287W        W50199   3.408  10.072  20.029 -0.0833  0.2427  0.2362
 7288W        W50200   2.254  10.438  16.231  0.1081  0.0035 -0.2039
 7289W        W50201   2.217   8.171  19.090 -0.0661 -0.1462 -0.0712
 7290W        W50202   4.166   7.309  18.641  0.1596  0.3563 -0.0480
 7291W        W50203   0.217   7.737  17.897  0.1003 -0.5071  0.0549
 7292W        W50204   1.603   8.110  17.134 -0.0443  0.0263  0.0849
 7293W        W50205   2.666  10.142  18.387 -0.1354  0.2030 -0.0178
 7294W        W50206   1.528   9.879  18.498  0.0379  0.0684  0.3590
 7295W        W50207   1.197   9.426  18.655  0.4056 -0.1609  0.1309
 7296W        W50208   1.233   8.057  20.171  0.0796 -0.0962 -0.3142
 7297W        W50209   1.737  11.223  19.732  0.1563  0.1853  0.0173
 7298W        W50210  34.675  10.647  16.499 -0.2989  0.2072  0.2093
 7299W        W50211  34.623   9.390  17.911  0.2898 -0.1428 -0.2175
 7300W        W50212  34.185   8.964  16.411 -0.0067 -0.0202  0.0823
 7301W        W50213  34.108   6.586  19.081  0.1811  0.1956 -0.1755
 7302W        W50214   0.877  10.711  19.311 -0.2712  0.0773  0.0618
 7303W        W50215   2.400   8.739  16.300  0.0532  0.2742  0.4363
 7304W        W50216   0.272   7.307  20.051  0.1027  0.2923  0.1332
 7305W        W50217   3.929   7.217  16.585 -0.1342  0.0650  0.1611
 7306W        W50218  34.687   8.967  16.837 -0.0049  0.0991 -0.1744
 7307W        W50219   2.591  11.325  17.599  0.1415  0.0043 -0.2643
 7308W        W50220   4.522   8.709  17.627  0.1407 -0.4301 -0.0566
 7309W        W50221   1.563   9.174  15.820  0.0221 -0.1911 -0.3175
 7310W        W50222   1.121   8.064  18.163 -0.3463  0.1159 -0.0161
 7311W        W50223  34.484   7.279  19.875  0.2593 -0.2903  0.3240
 7312W        W50224   1.545   7.620  19.948 -0.0135 -0.1435  0.3245
 7313W        W50225   0.322   7.642  17.318 -0.1449 -0.1419 -0.2421
 7314W        W50226   1.133  10.565  20.034  0.2685 -0.0181  0.2508
 7315W        W50227   0.237   6.958  16.653 -0.1505  0.1015 -0.1229
 7316W        W50228   2.781   9.294  16.611 -0.0240 -0.0627  0.0050
 7317W        W50229  34.505   7.148  16.782 -0.2309  0.0828  0.6256
 7318W        W50230  34.038   8.581  16.632  0.1021 -0.0085 -0.0947
 7319W        W50231   1.283   7.222  21.354 -0.0119 -0.0689  0.0150
 7320W        W50232   0.774  11.376  16.863  0.2872  0.0684 -0.3037
 7321W        W50233   2.668  11.207  20.306 -0.0691  0.0672 -0.3153
 7322W        W50234   3.280  12.087  16.858  0.0737 -0.0862  0.4234
 7323W        W50235   0.379   7.778  18.759 -0.3782  0.1125  0.0200
 7324W        W50236   0.383   6.637  15.779  0.0791 -0.0859  0.1933
 7325W        W50237  34.641  11.568  18.906 -0.0459  0.1271 -0.0421
 7326W        W50238   1.651  10.548  18.976  0.0470  0.0197  0.0200
 7327W        W50239   0.304   8.153  17.162  0.0742  0.0996  0.0765
 7328W        W50240   3.134  11.939  17.753  0.0862 -0.0721 -0.2117
 7329W        W50241   1.994   7.808  17.170 -0.1131  0.4092 -0.1827
 7330W        W50242   1.138   9.854  18.855 -0.2775 -0.0149  0.0949
 7331W        W50243   1.994   7.186  18.747  0.3252  0.0306  0.1021
 7332W        W50244   3.518   7.954  18.609 -0.2955 -0.0549 -0.2894
 7333W        W50245   1.463  11.816  17.310  0.2200 -0.3123  0.0815
 7334W        W50246   0.627   7.155  17.404  0.1031  0.2089  0.5083
 7335W        W50247   1.425  10.538  18.026 -0.1360  0.0875  0.2171
 7336W        W50248   0.364   9.129  17.136 -0.0824 -0.5361 -0.0227
 7337W        W50249  34.370   7.859  17.782  0.3113 -0.2223  0.1857
 7338W        W50250  34.353  11.537  17.522  0.1366  0.0159  0.1035
 7339W        W50251   4.697   7.591  17.077  0.1007 -0.1768  0.0312
 7340W        W50252  34.418   9.094  19.147 -0.1443  0.1132  0.2272
 7341W        W50253   1.292   9.083  19.079  0.2421  0.0701 -0.1006
 7342W        W50254   0.090   7.838  16.212 -0.0979 -0.1017 -0.1343
 7343W        W50255   0.396   9.737  19.570 -0.2001  0.0820  0.0849
 7344W        W50256   2.311   8.027  18.096 -0.0310  0.1746  0.0335
 7345W        W50257   3.108   8.954  16.847  0.2569 -0.2216 -0.1862
 7346W        W50258   2.054   8.870  19.766  0.1347  0.0105  0.1552
 7347W        W50259   2.740  10.666  18.255 -0.3885  0.2309 -0.1698
 7348W        W50260   1.849   7.705  16.701 -0.2982  0.0432  0.0692
 7349W        W50261   1.673   8.673  16.925  0.1569  0.5723  0.0552
 7350W        W50262  34.087  10.160  19.657  0.1464 -0.0527  0.2788
 7351W        W50263   2.188  10.103  17.207 -0.1143 -0.0343 -0.0672
 7352W        W50264   1.821   9.503  17.126  0.1153  0.1562 -0.2363
 7353W        W50265   0.781   7.564  17.618 -0.0618 -0.2190  0.0043
 7354W        W50266   2.374   9.219  16.284  0.1181 -0.0086  0.2185
 7355W        W50267   0.966   9.222  17.014 -0.0986  0.0158 -0.2286
 7356W        W50268   1.654   8.345  20.194 -0.1834 -0.1638 -0.2982
 7357W        W50269   2.098   9.601  18.886  0.0376  0.0217  0.0475
 7358W        W50270   1.186   8.409  18.631  0.0091  0.2388 -0.2307
 7359W        W50271   0.684   9.246  17.453 -0.1456 -0.5145  0.2049
 7360W        W50272   2.364   7.568  19.797 -0.0945 -0.1087  0.2063
 7361W        W50273  34.429  11.874  16.171 -0.0442 -0.0720 -0.0326
 7362W        W50274   3.335   7.828  19.665 -0.0269  0.1267  0.1496
 7363W        W50275   2.543   8.061  18.754 -0.0608  0.2238  0.2195
 7364W        W50276   1.974   7.893  20.985 -0.2537  0.0698  0.0777
 7365W        W50277   1.741   8.841  20.287 -0.0688  0.1462  0.2629
 7366W        W50278   0.512   9.173  16.662  0.1967  0.0439 -0.0741
 7367W        W50279   1.407   8.536  18.193  0.2146 -0.2315  0.0065
 7368W        W50280   0.129   8.146  16.633  0.1310  0.0824 -0.2058
 7369W        W50281   1.555   8.096  19.801  0.0153 -0.2038  0.0828
 7370W        W50282   1.421   8.989  17.963  0.1362  0.0600  0.0243
 7371W        W50283  33.627  10.155  19.355  0.0762 -0.0114  0.0789
 7372W        W50284   1.335  11.519  19.156  0.0297 -0.0725 -0.2079
 7373W        W50285   1.318   9.663  16.930 -0.1082 -0.0546  0.0911
 7374W        W50286   2.974   8.149  20.387 -0.3334  0.1697  0.0900
 7375W        W50287   1.619   8.189  16.484 -0.0442 -0.0096 -0.2891
 7376W        W50288   1.610  10.056  16.977 -0.1037 -0.1173 -0.1137
 7377W        W50289   0.567   9.595  17.013 -0.0105 -0.1098 -0.1727
 7378W        W50290   0.569   7.334  18.237  0.0038  0.1483 -0.2853
 7379W        W50291   1.383  11.912  20.155  0.0728 -0.1794  0.0143
 7380W        W50292   1.183  10.025  16.642 -0.1612  0.2978 -0.1023
 7381W        W50293   0.950   9.880  17.782  0.0887 -0.0735  0.0026
 7382W        W50294   0.944   9.676  17.331  0.0412 -0.1432 -0.1663
 7383W        W50295   2.342   8.389  18.411 -0.2431  0.1471  0.1615
 7384W        W50296   0.907   9.819  18.307  0.0549  0.0511  0.1327
 7385W        W50297   0.687   8.096  15.717 -0.0600 -0.2299 -0.0442
 7386W        W50298  34.414   8.103  16.229 -0.1723  0.1636 -0.0810
 7387W        W50299   2.574   8.392  17.834  0.4085 -0.3805  0.2736
 7388W        W50300   2.184   9.301  15.828 -0.0298  0.3624  0.1755
 7389W        W50301   0.539   8.975  18.599  0.1453  0.1034 -0.1780
 7390W        W50302   1.880   8.729  18.419  0.0215 -0.0895 -0.2665
 7391W        W50303   0.172  10.940  18.933 -0.0605  0.1828  0.0134
 7392W        W50304   2.152   8.524  20.302 -0.1321 -0.0902 -0.2128
 7393W        W50305   2.643   7.779  16.429  0.0242 -0.1231  0.2276
 7394W        W50306   1.297  10.336  18.663 -0.2847 -0.0269 -0.1640
 7395W        W50307   0.843   7.579  19.102 -0.0553 -0.3125 -0.3038
 7396W        W50308   0.154   7.424  16.475 -0.0197  0.2246 -0.1425
 7397W        W50309   3.409   8.032  20.181  0.2390 -0.2178 -0.1032
 7398W        W50310  34.659   7.090  18.478 -0.1122 -0.1986 -0.3170
 7399W        W50311   0.082  10.481  18.104 -0.4733  0.1971  0.3814
 7400W        W50312   1.845  10.305  18.159  0.0772 -0.0663 -0.1725
 7401W        W50313   0.593   8.264  16.768 -0.1026 -0.0279 -0.0271
 7402W        W50314   1.923   8.495  18.881  0.2154 -0.0631 -0.1175
 7403W        W50315   1.798   9.444  18.474  0.0100  0.0449  0.1620
 7404W        W50316   2.475   9.979  18.882 -0.2473  0.0114 -0.3224
 7405W        W50317   1.037   7.483  18.072 -0.0086 -0.2582  0.3366
 7406W        W50318   0.145   7.522  18.402  0.0038  0.3751  0.1661
 7407W        W50319   0.962   8.473  19.292 -0.1179  0.2962 -0.0457
 7408W        W50320   2.291   9.102  18.976  0.0008 -0.0599  0.0857
 7409W        W50321   1.347   9.477  18.146  0.3573  0.1270 -0.1724
 7410W        W50322  34.336  10.383  20.049  0.1636  0.0670 -0.0634
 7411W        W50323   1.557   7.199  18.468  0.0207 -0.0983 -0.0361
 7412W        W50324   2.216  10.987  16.424 -0.1087 -0.0193 -0.1674
 7413W        W50325   1.581   8.167  18.697 -0.3938  0.0629  0.0153
 7414W        W50326   0.984   8.499  16.534  0.3514 -0.3368  0.3029
 7415W        W50327  34.433   8.392  17.752  0.0945  0.0374 -0.1552
 7416W        W50328   1.972   9.422  19.327  0.0719  0.0492 -0.2050
 7417W        W50329   1.177   8.904  19.560  0.1407  0.0758  0.1673
 7418W        W50330   0.097   9.435  19.938 -0.0956 -0.2554 -0.0624
 7419W        W50331  34.567   8.784  17.354  0.5424  0.0413 -0.0711
 7420W        W50332   0.255  10.658  19.333 -0.2366  0.1068  0.0770
 7421W        W50333   3.495   7.569  15.780 -0.2236 -0.1201 -0.1570
 7422W        W50334   0.449   8.786  18.159  0.0909  0.2094  0.0307
 7423W        W50335   2.222   8.637  17.071  0.0937  0.4138 -0.0594
 7424W        W50336   2.918   7.132  18.979 -0.0068  0.3136 -0.1549
 7425W        W50337   1.935   8.971  16.140  0.0495 -0.1172  0.1883
 7426W        W50338   3.425   7.795  19.189 -0.1855 -0.5183 -0.3416
 7427W        W50339  34.062   7.720  18.121 -0.4006 -0.0892  0.1484
 7428W        W50340   2.418  10.823  17.904 -0.2132 -0.0911 -0.2325
 7429W        W50341  33.900   8.910  19.005 -0.0012 -0.0974 -0.2083
 7430W        W50342   2.433   9.945  20.024  0.0949 -0.0373 -0.0953
 7431W        W50343   0.513   8.735  19.542 -0.0014 -0.3373 -0.1603
 7432W        W50344   3.268   7.525  18.754 -0.2213  0.0831 -0.1098
 7433W        W50345   0.399   6.477  18.055 -0.1917  0.4508  0.1698
 7434W        W50346   0.848   9.267  18.224  0.2494 -0.1845 -0.0603
 7435W        W50347   3.320  10.040  19.063 -0.1244 -0.2897  0.0168
 7436W        W50348   0.254   9.594  17.558  0.3081 -0.0451 -0.0567
 7437W        W50349   2.692   8.227  17.169 -0.0456  0.0056 -0.5216
 7438W        W50350   1.759   9.286  19.775 -0.0665 -0.3298 -0.0386
 7439W        W50351   2.983   7.997  16.751 -0.2882 -0.1538 -0.3342
 7440W        W50352   1.566   9.228  16.768 -0.0391  0.0839  0.2711
 7441W        W50353  34.486   8.908  17.861  0.1429  0.3544 -0.0249
 7442W        W50354   1.596   7.401  19.052 -0.2537  0.0425 -0.0349
 7443W        W50355   2.303  10.376  18.099  0.0808 -0.0238 -0.0735
 7444W        W50356   2.403   7.871  16.890  0.1381  0.1958  0.2079
 7445W        W50357   2.856   9.066  18.754 -0.0037  0.1460  0.1311
 7446W        W50358   2.967   8.948  20.398 -0.0518  0.3624  0.1576
 7447W        W50359   1.480   7.485  20.891  0.0187 -0.0352  0.1819
 7448W        W50360  33.923   8.088  20.524  0.1330 -0.0144 -0.0848
 7449W        W50361   3.619  10.578  19.471  0.0431 -0.0016  0.1260
 7450W        W50362   3.211   7.715  16.397  0.0302  0.3465 -0.0075
 7451W        W50363   3.154   8.640  18.926  0.0178  0.0473 -0.3178
 7452W        W50364   2.333   9.334  18.045 -0.0210 -0.1743 -0.1822
 7453W        W50365   1.322   9.338  16.308 -0.3661  0.1042 -0.2258
 7454W        W50366   0.724   8.324  18.011 -0.0267 -0.3161  0.1878
 7455W        W50367   2.167   9.963  18.426  0.0596  0.1884 -0.1940
 7456W        W50368   1.912   8.391  17.409  0.1265  0.1019  0.0808
 7457W        W50369   2.233   8.646  19.340 -0.2222 -0.0231  0.2738
 7458W        W50370   1.615   9.817  16.492 -0.1020 -0.0479  0.2027
 7459W        W50371   2.479   9.097  17.239 -0.0329 -0.4646 -0.1711
 7460W        W50372   2.207   8.452  15.911  0.0309 -0.3945 -0.1723
 7461W        W50373  34.537   8.607  16.440  0.2238  0.2931 -0.2645
 7462W        W50374   1.105  12.529  19.510  0.0912  0.2010 -0.2770
 7463W        W50375   0.632   7.500  16.344 -0.0031 -0.1798 -0.0639
 7464W        W50376   0.200   8.268  17.926  0.0542  0.0447  0.0358
 7465W        W50377   1.618  10.188  19.932 -0.4144  0.4467 -0.2639
 7466W        W50378   3.949  10.214  20.245 -0.3316  0.0434 -0.0150
 7467W        W50379   2.094   7.092  16.169  0.3465 -0.0248  0.1669
 7468W        W50380   4.513   8.605  19.046 -0.0819 -0.1520 -0.0162
 7469W        W50381   1.034   9.367  17.735 -0.2739 -0.1422 -0.1986
 7470W        W50382   3.697   8.866  18.287 -0.0841 -0.0545  0.0812
 7471W        W50383   1.911  10.313  19.485 -0.3069 -0.0732  0.1511
 7472W        W50384  33.136   9.083  18.066 -0.0737 -0.2424 -0.0074
 7473W        W50385   0.553   9.980  17.562  0.0408 -0.1387  0.1068
 7474W        W50386   2.315   7.549  17.526 -0.1832 -0.2729  0.0865
 7475W        W50387   2.354   8.044  17.595  0.1479  0.4375  0.4121
 7476W        W50388   2.032   9.814  19.740  0.0665 -0.0253 -0.3761
 7477W        W50389   3.793   9.829  18.973 -0.0726 -0.2336  0.0133
 7478W        W50390   2.359   9.678  20.436 -0.0074 -0.2843  0.0904
 7479W        W50391   1.407   8.978  18.603  0.0665 -0.0984  0.0120
 7480W        W50392   2.820   9.509  18.962  0.2958  0.1978  0.1105
 7481W        W50393   2.234  10.774  18.341 -0.4692 -0.3069  0.1043
 7482W        W50394   0.887  11.206  18.605  0.0067  0.4502  0.0626
 7483W        W50395  33.212   7.477  21.241  0.0424  0.0127  0.2957
 7484W        W50396   1.335   9.772  21.353  0.1706  0.0308 -0.0507
 7485W        W50397   1.449   9.132  17.291 -0.1658  0.0391 -0.3217
 7486W        W50398   1.458   7.102  17.955  0.0644 -0.0217 -0.1856
 7487W        W50399   1.119   9.456  15.885  0.0336 -0.1381  0.1887
 7488W        W50400  34.521  10.388  19.536 -0.0087  0.1134  0.0760
 7489W        W50401   0.996   9.472  19.114 -0.0664 -0.0162 -0.0150
 7490W        W50402   0.160  10.281  17.437  0.1004 -0.1954  0.0776
 7491W        W50403   1.021  11.032  17.164 -0.2460  0.0096 -0.4057
 7492W        W50404   2.557   9.986  17.568 -0.0337 -0.0800  0.0234
 7493W        W50405   0.510  11.176  17.221 -0.1351 -0.1649  0.1219
 7494W        W50406   2.140   8.008  16.398  0.0797 -0.1090 -0.1484
 7495W        W50407   0.838  10.052  17.033  0.3570  0.3326 -0.0742
 7496W        W50408  34.537   9.836  17.355 -0.2844 -0.1336  0.1432
 7497W        W50409   1.369  11.324  17.332  0.4428  0.2335 -0.0663
 7498W        W50410   0.471  10.935  18.530 -0.0991 -0.0753 -0.5356
 7499W        W50411   3.245   9.620  19.812 -0.1728  0.3955  0.2167
 7500W        W50412   4.210   5.699  16.152  0.3834  0.0589 -0.1548
 7501W        W50413   2.381   7.226  17.147  0.1278  0.0057 -0.0787
 7502W        W50414   4.196   7.673  16.739  0.2055 -0.5112 -0.0356
 7503W        W50415   2.330   8.987  21.262  0.0163  0.0662 -0.1102
 7504W        W50416   1.149   8.358  19.746  0.1729 -0.0926  0.0926
 7505W        W50417   1.726   6.659  16.472 -0.0959  0.2289  0.1896
 7506W        W50418   0.145   8.609  18.620  0.3630 -0.1680 -0.1298
 7507W        W50419   3.582   7.441  19.556 -0.0376 -0.0501  0.0731
 7508W        W50420  34.538  10.761  20.432  0.0063  0.2149  0.2153
 7509W        W50421   1.820  10.714  16.261 -0.2182  0.2720  0.0868
 7510W        W50422   0.190   7.200  17.653  0.0356 -0.0691 -0.4709
 7511W        W50423  34.126   8.314  19.031  0.1560  0.2476 -0.0564
 7512W        W50424   2.757   6.710  17.756 -0.2149  0.0134 -0.0727
 7513W        W50425   2.444   8.866  15.800 -0.2659  0.0293 -0.0887
 7514W        W50426   1.507   7.668  19.438 -0.0080 -0.2505 -0.3057
 7515W        W50427   0.816  10.177  18.638 -0.2875 -0.0206  0.2233
 7516W        W50428   0.697  10.234  19.515 -0.0836  0.1209  0.1123
 7517W        W50429   1.008  10.285  19.091  0.1872 -0.1346  0.1763
 7518W        W50430   0.099   7.183  17.179 -0.1923 -0.1119  0.0942
 7519W        W50431   2.744   9.934  17.061  0.0027 -0.0792  0.0058
 7520W        W50432   0.692   8.454  18.513  0.1146 -0.2473 -0.0515
 7521W        W50433   2.761   8.828  19.222 -0.0074  0.0325  0.2846
 7522W        W50434   1.246   8.186  16.814 -0.1099 -0.2070 -0.2520
 7523W        W50435   1.972   8.523  16.402  0.0624 -0.0511 -0.3424
 7524W        W50436   1.311   9.393  19.604  0.0302 -0.3781 -0.0803
 7525W        W50437   0.207   8.968  19.095  0.1086  0.0353 -0.0550
 7526W        W50438   0.349   8.693  16.528 -0.1865  0.3881  0.1747
 7527W        W50439   2.842   9.267  18.249  0.1663  0.3590  0.1578
 7528W        W50440   0.297   8.635  17.105 -0.3613 -0.3655  0.1291
 7529W        W50441   2.910  11.695  19.770 -0.0221  0.2014  0.0696
 7530W        W50442  34.216   7.043  18.768  0.0601 -0.2155 -0.1858
 7531W        W50443   1.599   8.469  16.098 -0.0074  0.1156 -0.3508
 7532W        W50444  34.224   8.100  16.883  0.0803 -0.0299 -0.2484
 7533W        W50445   0.556   9.151  20.065 -0.0539  0.0187 -0.1134
 7534W        W50446   2.603   9.414  21.093  0.1070 -0.2401  0.1170
 7535W        W50447  34.407   6.662  16.527  0.4780  0.2039 -0.1021
 7536W        W50448   2.102   8.942  16.724 -0.0205 -0.0381 -0.1836
 7537W        W50449   1.863   8.116  18.266 -0.2668  0.3523 -0.2000
 7538W        W50450   1.900   9.594  18.024  0.1470  0.0589  0.1299
 7539W        W50451   3.292   9.970  16.662 -0.0579  0.1976  0.0855
 7540W        W50452   2.362   9.898  17.993 -0.1669  0.0609  0.1196
 7541W        W50453  34.571   7.704  20.134 -0.0796  0.0210 -0.0266
 7542W        W50454   0.883  10.660  18.626  0.3582  0.5965  0.0237
 7543W        W50455   2.872  10.699  17.618 -0.2408  0.1835  0.3411
 7544W        W50456   2.497   6.980  18.714  0.3305  0.0982  0.2480
 7545W        W50457   1.045   8.846  18.307 -0.2969 -0.1821 -0.0410
 7546W        W50458  33.670  11.275  17.259  0.2383  0.1128 -0.0411
 7547W        W50459   1.818   9.092  18.851 -0.1382 -0.0201 -0.1284
 7548W        W50460   1.679   8.406  19.432  0.2470  0.0685 -0.0736
 7549W        W50461  34.449   9.394  16.556 -0.0980  0.3205  0.0275
 7550W        W50462   3.421   5.243  19.364  0.0646 -0.0524  0.0851
 7551W        W50463   0.513  10.492  18.926 -0.1007  0.0994  0.1442
 7552W        W50464   0.179  10.293  20.338  0.0611  0.1457  0.3499
 7553W        W50465  33.705   9.028  17.871  0.0120 -0.0561  0.2869
 7554W        W50466   1.992   9.279  20.281 -0.2122 -0.0102 -0.1213
 7555W        W50467   2.049   9.285  17.586  0.1541 -0.0498 -0.0774
 7556W        W50468   1.887  10.234  16.571  0.0097 -0.1206 -0.1769
 7557W        W50469   3.100  11.476  17.542 -0.1295 -0.2427 -0.1499
 7558W        W50470   2.440   8.831  18.096  0.0433  0.2197 -0.2494
 7559W        W50471   4.306  10.438  17.455 -0.1498  0.0333  0.1199
 7560W        W50472   1.423   7.741  17.903  0.2659 -0.0948  0.0923
 7561W        W50473   4.751   8.013  17.383  0.3662 -0.3177  0.1445
 7562W        W50474   3.200   7.567  16.996  0.0174 -0.1225  0.2830
 7563W        W50475   0.490   9.451  19.168  0.0697  0.2427 -0.0608
 7564W        W50476   0.500   8.504  17.522 -0.2344 -0.1063  0.2097
 7565W        W50477   0.027  10.159  16.526  0.2158  0.2339 -0.0910
 7566W        W50478   1.291  10.513  19.456  0.3213 -0.0175 -0.2643
 7567W        W50479   2.938   6.802  21.439  0.1833  0.1901  0.3766
 7568W        W50480   1.212   8.592  20.219  0.1295  0.0347 -0.0523
 7569W        W50481  34.586   7.895  18.236 -0.0963 -0.3230  0.2349
 7570W        W50482   0.822   7.845  17.073  0.0595  0.1286 -0.0766
 7571W        W50483   2.741  10.409  16.227 -0.1108  0.0136 -0.0538
 7572W        W50484   1.117   5.943  17.417 -0.0586  0.1174  0.2262
 7573W        W50485   0.761   7.008  18.551  0.2599  0.1629  0.1004
 7574W        W50486   2.758  10.270  19.799  0.0548  0.2821  0.0552
 7575W        W50487   2.789   9.853  16.563  0.3298  0.0329  0.2503
 7576W        W50488   1.093   8.554  17.778 -0.4262 -0.0915  0.2201
 7577W        W50489   2.820  10.140  19.241  0.1443  0.2087  0.1065
 7578W        W50490  34.210  10.046  15.780 -0.1182  0.2642 -0.0403
 7579W        W50491   1.674   9.247  20.696  0.0792  0.2197 -0.4928
 7580W        W50492   3.340   7.961  20.789  0.2502  0.2014  0.2074
 7581W        W50493  34.646   7.443  15.939  0.0186 -0.0951  0.2405
 7582W        W50494   2.583   8.659  19.722  0.2153  0.1928  0.3556
 7583W        W50495   1.074  10.335  18.233  0.0642 -0.1597  0.3352
 7584W        W50496   0.902  12.368  16.961  0.2866  0.1612 -0.0476
 7585W        W50497   1.470  10.120  19.155 -0.3497 -0.0118 -0.0888
 7586W        W50498   1.734  10.746  19.796  0.2074 -0.1530 -0.2891
 7587W        W50499   0.492   8.408  18.974  0.3009 -0.3136 -0.3304
 7588W        W50500   1.436   8.765  16.520 -0.1087  0.0455 -0.1835
 7589W        W50501   1.075   9.154  20.023  0.3745 -0.0500  0.0966
 7590W        W50502   3.173  10.169  16.203  0.1795  0.1088 -0.0227
 7591W        W50503   3.529   8.954  18.731 -0.0039 -0.0771  0.0752
 7592W        W50504   2.243   8.799  17.614  0.0209  0.2529 -0.2008
 7593W        W50505   1.169   7.252  18.792 -0.1589  0.0334  0.1069
 7594W        W50506   1.481   9.857  19.562  0.1302 -0.1765 -0.3364
 7595W        W50507   2.567   8.868  16.771  0.0736 -0.3130 -0.2430
 7596W        W50508   0.328   7.232  18.819  0.0449  0.0230 -0.1749
 7597W        W50509   2.510   8.357  16.601  0.0851  0.1335 -0.1022
 7598W        W50510   1.849  11.198  17.421 -0.0525  0.0559 -0.1706
 7599W        W50511   0.724   8.787  16.896  0.0064 -0.1102 -0.1172
 7600W        W50512   2.342   7.500  18.480 -0.1673 -0.2709 -0.0385
 7601W        W50513   0.817   8.307  20.275  0.0426  0.1345 -0.1189
 7602W        W50514   1.633   8.945  19.355  0.1019 -0.0620 -0.0957
 7603W        W50515   3.456   8.997  20.113  0.2802 -0.1532  0.0348
 7604W        W50516   1.990   8.495  17.958  0.1992  0.1147 -0.0729
 7605W        W50517   3.256  10.048  15.677  0.1949  0.0056  0.0648
 7606W        W50518   2.481  10.684  19.555  0.2027  0.1623 -0.2086
 7607W        W50519   3.295  10.767  20.641 -0.0673 -0.1468  0.1451
 7608W        W50520   2.319  11.497  19.977  0.3918 -0.0922  0.0043
 7609W        W50521   2.393   9.448  16.819  0.0927 -0.1202 -0.3181
 7610W        W50522   0.334   6.689  17.560  0.0672  0.2073  0.3530
 7611W        W50523   1.382   8.530  17.260  0.0009 -0.1809 -0.0836
 7612W        W50524   1.931   8.990  18.013 -0.1031 -0.0570 -0.1539
 7613W        W50525   2.670   8.567  20.259  0.4769 -0.4512  0.0753
 7614W        W50526   1.545   8.313  17.788  0.0204  0.2208 -0.0782
 7615W        W50527   1.536   7.603  17.359  0.1291  0.1648  0.0765
 7616W        W50528   1.687  10.695  18.430  0.0669  0.0226  0.4174
 7617W        W50529   2.919   8.719  18.350 -0.0313  0.1464 -0.0893
 7618W        W50530   0.480   8.906  21.883  0.0011  0.4009 -0.2128
 7619W        W50531   0.155   7.290  21.525 -0.0303  0.0300 -0.1342
 7620W        W50532   3.197   8.377  21.260 -0.0019 -0.0480 -0.1361
 7621W        W50533   3.431  10.351  20.926  0.1489  0.0421 -0.2050
 7622W        W50534  34.246   8.655  21.832  0.0081 -0.3306  0.3997
 7623W        W50535   1.941   9.766  20.728 -0.0015  0.1194  0.0683
 7624W        W50536   0.667   7.583  23.607 -0.1059  0.0494  0.0843
 7625W        W50537   1.758  10.856  22.368  0.0029 -0.0621  0.2266
 7626W        W50538   3.329  10.269  22.583 -0.0839 -0.1806 -0.0453
 7627W        W50539   2.053   9.394  21.426  0.0578 -0.1890 -0.0663
 7628W        W50540   2.292   7.668  23.057 -0.0972  0.0724  0.1105
 7629W        W50541   1.216   8.711  23.002 -0.3952  0.0710 -0.3296
 7630W        W50542   1.185   6.651  21.904 -0.0726  0.0140  0.3192
 7631W        W50543  34.476   5.954  21.570 -0.0118  0.0096 -0.2350
 7632W        W50544   3.212   8.553  22.694  0.1051 -0.1432  0.0612
 7633W        W50545   1.586   8.667  19.850 -0.1975 -0.0196 -0.0173
 7634W        W50546   1.206   8.514  22.502  0.1344  0.2239  0.1810
 7635W        W50547   0.658   7.780  21.986  0.2351 -0.3212  0.2173
 7636W        W50548   1.679  11.803  22.183 -0.2374  0.0450 -0.1773
 7637W        W50549   1.204   7.652  21.878  0.3581  0.0226  0.0230
 7638W        W50550   2.158   7.156  23.012 -0.0733  0.1056  0.2517
 7639W        W50551   1.226   9.494  23.082 -0.0341  0.0516  0.3317
 7640W        W50552  33.862   9.023  20.319  0.1102 -0.2222 -0.0044
 7641W        W50553  33.958   8.508  22.220 -0.2230  0.0712  0.0619
 7642W        W50554   0.481   9.273  22.672 -0.3088 -0.4982  0.0825
 7643W        W50555   0.886   8.273  22.177 -0.1021  0.1372  0.0024
 7644W        W50556   3.837  10.181  22.365  0.1561  0.1344 -0.0255
 7645W        W50557   1.040  11.247  22.753  0.3241 -0.1133  0.1493
 7646W        W50558   2.897  10.074  21.835  0.0296  0.1714  0.1425
 7647W        W50559   2.713   9.464  23.001 -0.0199 -0.0522  0.0509
 7648W        W50560   0.266  10.433  21.443 -0.1328  0.2004  0.2379
 7649W        W50561  34.677  10.211  21.119  0.3111 -0.0539  0.2576
 7650W        W50562  34.373   9.812  20.609 -0.1870  0.0828 -0.1599
 7651W        W50563   3.927  10.132  21.771 -0.4473  0.1770 -0.2400
 7652W        W50564   1.805   8.968  23.702  0.1648 -0.2542 -0.1697
 7653W        W50565   1.211   9.946  23.923 -0.3119 -0.0540 -0.4470
 7654W        W50566   1.065  10.064  20.333  0.2320  0.0178  0.0280
 7655W        W50567   1.976  11.026  24.526  0.1798  0.1325  0.0213
 7656W        W50568   1.266   8.998  22.321  0.0718 -0.1250 -0.1874
 7657W        W50569   0.860   8.512  24.272 -0.1807 -0.0819 -0.0818
 7658W        W50570   2.475   7.472  21.792 -0.2155  0.3079  0.0070
 7659W        W50571  34.624  10.601  21.862  0.2100  0.1840 -0.1743
 7660W        W50572   1.179   9.510  21.821  0.2000 -0.0584  0.2013
 7661W        W50573   0.920  10.317  23.268  0.1392 -0.0293 -0.3049
 7662W        W50574   1.529  10.291  21.561  0.1633 -0.1086  0.3294
 7663W        W50575   4.940   9.060  23.908  0.2662  0.2431  0.1360
 7664W        W50576   0.670  10.755  21.438  0.2193 -0.1196 -0.0153
 7665W        W50577   3.438   9.623  19.319 -0.3778  0.0004  0.1982
 7666W        W50578   2.521   8.629  20.758 -0.2604 -0.0657 -0.0748
 7667W        W50579   2.699   7.287  20.664  0.0461  0.0656  0.1522
 7668W        W50580   1.192   8.417  20.664 -0.0361  0.2666 -0.1538
 7669W        W50581   2.191  11.803  22.377  0.3180  0.2427  0.2346
 7670W        W50582   1.204   8.166  23.477  0.4183  0.2366  0.0860
 7671W        W50583   2.941   9.274  22.396 -0.2075  0.2742 -0.4354
 7672W        W50584  33.682   9.098  20.762 -0.2593 -0.1427 -0.0956
 7673W        W50585   2.176   8.886  22.271  0.0256 -0.0772  0.1672
 7674W        W50586   1.815   9.754  22.398  0.2119 -0.0426  0.4231
 7675W        W50587   0.372   7.545  22.485 -0.1737 -0.5312  0.3261
 7676W        W50588   2.800   9.787  19.669 -0.0505 -0.1951  0.0360
 7677W        W50589   3.703   9.719  20.379  0.0206 -0.1649 -0.1516
 7678W        W50590   3.063   8.579  20.714  0.0764  0.0887  0.0988
 7679W        W50591  34.501   8.709  22.302  0.0035  0.2222 -0.0107
 7680W        W50592  32.575  10.206  23.172 -0.0158 -0.0707  0.0310
 7681W        W50593   0.807   8.934  25.238 -0.0378  0.0443  0.3911
 7682W        W50594   0.387   8.561  20.075 -0.1222 -0.1101  0.2191
 7683W        W50595   3.671  10.025  23.951 -0.0354 -0.3668 -0.0262
 7684W        W50596   0.464  10.628  21.931  0.2805  0.0572  0.1163
 7685W        W50597   3.621   8.551  21.510 -0.2789 -0.0606 -0.4448
 7686W        W50598   1.830   9.256  22.393 -0.0848  0.3467  0.2035
 7687W        W50599   2.809  11.335  22.118 -0.1635  0.1960 -0.2641
 7688W        W50600   2.631   9.902  20.811  0.4894 -0.1638  0.0383
 7689W        W50601   2.973   7.172  22.698  0.1405 -0.0400  0.1346
 7690W        W50602   1.868   8.056  22.321 -0.0770 -0.1437 -0.3226
 7691W        W50603   1.489   9.342  20.254 -0.2539 -0.0823 -0.0828
 7692W        W50604   1.707   8.669  22.332 -0.1539 -0.1541  0.0238
 7693W        W50605   3.289   9.673  23.109 -0.0893  0.5195  0.1276
 7694W        W50606   3.781   8.326  20.153  0.1685 -0.2108  0.0868
 7695W        W50607   0.609  11.620  22.677 -0.0577 -0.1766  0.0926
 7696W        W50608   2.379   9.061  24.100 -0.1053 -0.2264  0.1598
 7697W        W50609   2.223  10.881  22.622 -0.0499 -0.3926  0.1001
 7698W        W50610   0.360   9.830  20.089  0.1177  0.0698 -0.2314
 7699W        W50611  32.581  10.278  20.136 -0.0147  0.1039  0.3084
 7700W        W50612   0.730   8.807  20.379  0.1033 -0.1987 -0.2103
 7701W        W50613  34.389   6.733  23.551  0.0573 -0.0365  0.0766
 7702W        W50614   2.040  10.466  22.254 -0.1678  0.3028 -0.0587
 7703W        W50615   2.852   7.782  19.908 -0.0363 -0.0451  0.0344
 7704W        W50616   1.284   8.632  21.990  0.4320 -0.1853  0.1564
 7705W        W50617   3.284   7.177  22.233 -0.2548 -0.1242 -0.0978
 7706W        W50618   1.059   9.866  22.224 -0.0482  0.0167 -0.0603
 7707W        W50619   2.787  10.552  21.604 -0.1071 -0.1630  0.3086
 7708W        W50620   3.401   9.529  21.651 -0.0141 -0.0194  0.1751
 7709W        W50621   2.786  10.756  20.629 -0.0667 -0.1162  0.1544
 7710W        W50622  34.439   9.566  21.969 -0.0315 -0.0265 -0.0354
 7711W        W50623   0.444   8.284  21.782  0.2138 -0.2852 -0.1732
 7712W        W50624   0.315   7.795  23.147 -0.1626 -0.3137  0.2574
 7713W        W50625   0.513   8.881  23.033 -0.1026  0.0208 -0.1191
 7714W        W50626   2.806   8.967  24.473 -0.0598 -0.0853 -0.2213
 7715W        W50627  33.619   7.649  21.019 -0.0665 -0.1934  0.0111
 7716W        W50628   1.811   6.435  21.499  0.0033  0.3308  0.2038
 7717W        W50629   2.007  10.289  21.784  0.0088  0.0384 -0.3177
 7718W        W50630   0.155   9.259  20.986  0.0264  0.1876 -0.0491
 7719W        W50631   2.059   7.340  24.105 -0.3477  0.3036 -0.2140
 7720W        W50632   1.848   9.841  21.484  0.1786  0.2316 -0.0569
 7721W        W50633   3.999  10.606  22.192  0.2287  0.1953 -0.2215
 7722W        W50634   3.091  10.241  21.260  0.0005  0.2340 -0.0959
 7723W        W50635   0.286   8.949  22.369  0.1189  0.2326 -0.0038
 7724W        W50636   0.588   7.174  21.359 -0.2478 -0.1204  0.1958
 7725W        W50637   0.166  10.990  21.570 -0.0490 -0.0699  0.2122
 7726W        W50638   2.471   9.368  22.145 -0.1571  0.0354 -0.0181
 7727W        W50639   1.206   7.933  20.985  0.0636  0.1386 -0.3903
 7728W        W50640   2.481  10.372  21.967 -0.1222 -0.2775 -0.2360
 7729W        W50641   2.044   8.960  21.749  0.0902 -0.4693 -0.2494
 7730W        W50642   1.010   9.031  21.850 -0.1790  0.1654 -0.1487
 7731W        W50643   2.714   7.815  23.431 -0.2272  0.0406 -0.2053
 7732W        W50644   3.386   9.363  22.625 -0.0999  0.1545  0.4191
 7733W        W50645   3.258   7.693  22.331 -0.1649  0.0611  0.6028
 7734W        W50646   1.085   7.185  21.801  0.0829 -0.0135 -0.1337
 7735W        W50647   2.637  10.443  21.021 -0.1002 -0.0744 -0.1017
 7736W        W50648   0.958  11.612  19.855 -0.3006  0.3728 -0.0347
 7737W        W50649   0.583  10.271  22.246  0.1606 -0.0182 -0.1101
 7738W        W50650   1.011   9.379  21.411  0.0381  0.0115 -0.1410
 7739W        W50651   3.383   7.081  23.082 -0.1036 -0.0809  0.0592
 7740W        W50652  34.166   9.153  23.353 -0.0071  0.3291 -0.2314
 7741W        W50653   1.546   8.352  23.134 -0.3702 -0.1985 -0.0743
 7742W        W50654   0.075   8.135  19.994 -0.2728  0.2497 -0.2867
 7743W        W50655   0.895   8.514  21.700 -0.0414 -0.2014  0.0052
 7744W        W50656   1.393   6.904  20.951 -0.0300  0.0515  0.0041
 7745W        W50657   3.392   6.515  21.436  0.1736  0.0773 -0.0959
 7746W        W50658   0.110   9.457  22.908  0.1476 -0.0475  0.0971
 7747W        W50659   4.602   9.601  21.830  0.0404 -0.0673 -0.0050
 7748W        W50660   0.932   8.764  21.025  0.0693  0.2137 -0.3922
 7749W        W50661   2.775   8.638  21.292  0.0271 -0.2219 -0.1784
 7750W        W50662  34.072   8.873  23.899  0.0263  0.1384 -0.0371
 7751W        W50663   1.672   9.476  21.101  0.3249 -0.0032 -0.0477
 7752W        W50664   2.217   9.928  22.069 -0.0864  0.2063  0.2678
 7753W        W50665   2.016   8.546  21.052  0.2769 -0.1087 -0.0109
 7754W        W50666   2.936  10.701  19.736  0.3704  0.0431 -0.3342
 7755W        W50667   0.218   9.918  21.535 -0.2182  0.2674 -0.1579
 7756W        W50668   1.661   8.574  21.510  0.0520  0.1329  0.0049
 7757W        W50669   3.562   9.362  20.701 -0.0633 -0.2904 -0.2047
 7758W        W50670   1.785   7.778  22.741 -0.1326 -0.2339 -0.1573
 7759W        W50671   0.712   8.385  20.835  0.2986 -0.2178 -0.0870
 7760W        W50672   1.543   8.022  20.616 -0.3249  0.2900  0.0560
 7761W        W50673   1.180  11.046  19.799  0.1987 -0.3424 -0.0093
 7762W        W50674   4.019   6.697  22.503  0.2084 -0.2201 -0.0403
 7763W        W50675   0.054   8.603  21.846  0.1042 -0.1441  0.0960
 7764W        W50676   0.825   7.884  23.251  0.2315 -0.0574 -0.0371
 7765W        W50677   0.861   8.574  23.350 -0.0939 -0.1675  0.2545
 7766W        W50678   2.860   8.106  20.899  0.3556  0.0443 -0.1148
 7767W        W50679   3.631   8.484  22.025  0.1263  0.1731  0.0047
 7768W        W50680   1.029   9.460  20.446 -0.1135 -0.0525  0.2228
 7769W        W50681   1.471   8.004  23.890  0.3057  0.2898 -0.0991
 7770W        W50682   1.050   9.910  22.882  0.1015 -0.1187  0.1364
 7771W        W50683   0.817  10.241  23.746 -0.2521  0.0050  0.1664
 7772W        W50684   2.931   8.959  22.812  0.0168  0.4863 -0.0620
 7773W        W50685   3.164   9.888  22.219  0.2558  0.0312 -0.0231
 7774W        W50686   2.088   9.017  22.862 -0.0210 -0.3544 -0.0027
 7775W        W50687   2.840   7.851  19.281 -0.0986  0.0392 -0.0745
 7776W        W50688   1.044  11.080  20.290 -0.0591  0.3264 -0.3311
 7777W        W50689   2.196   9.795  21.146  0.0039 -0.1550  0.1322
 7778W        W50690  34.561   7.005  23.020  0.0318 -0.2018  0.2800
 7779W        W50691   2.300  11.601  21.929 -0.2995  0.0666 -0.1738
 7780W        W50692   0.627  10.097  20.552 -0.1602 -0.3449  0.1143
 7781W        W50693   2.962  10.262  22.981 -0.4472 -0.1358 -0.0458
 7782W        W50694   0.578  11.814  21.450  0.2856  0.3314 -0.2276
 7783W        W50695   3.324   6.460  22.824  0.0674  0.2772  0.0520
 7784W        W50696   0.318  10.783  20.620  0.2584 -0.1321  0.2256
 7785W        W50697   0.936   6.951  22.226  0.0842  0.1224  0.0583
 7786W        W50698  34.583   8.891  20.845 -0.2456  0.1163 -0.0284
 7787W        W50699   2.695   7.646  20.988 -0.0754 -0.1362 -0.2518
 7788W        W50700   3.205   9.102  19.128 -0.0412 -0.0039 -0.0070
 7789W        W50701   0.703   6.912  23.136  0.0649  0.1675 -0.0304
 7790W        W50702   0.662   8.597  22.653 -0.0806  0.0725 -0.0634
 7791W        W50703   1.401  10.567  21.116 -0.3190 -0.1135 -0.1273
 7792W        W50704   2.953   7.865  22.972 -0.1258 -0.0745 -0.3199
 7793W        W50705   2.772   6.233  20.554  0.1733 -0.1277  0.4216
 7794W        W50706   1.763   8.806  23.164  0.1108 -0.0465  0.0392
 7795W        W50707   1.435   9.472  22.234 -0.2258 -0.2524  0.0238
 7796W        W50708  34.618   7.758  21.369  0.0575 -0.0495  0.1139
 7797W        W50709   3.469   7.490  22.924 -0.1661  0.0584  0.1006
 7798W        W50710   1.457   8.134  21.982  0.1664  0.0273  0.0492
 7799W        W50711   0.777   9.202  20.786  0.0392  0.3645  0.0802
 7800W        W50712   1.025  11.079  21.251 -0.1531 -0.0102  0.0057
 7801W        W50713  34.032   8.483  21.301 -0.3792  0.3538 -0.0260
 7802W        W50714   0.499  10.088  21.101 -0.1800 -0.2231 -0.0421
 7803W        W50715   1.205   7.246  25.458 -0.2006 -0.2343 -0.0663
 7804W        W50716   2.596   9.907  22.781  0.1299  0.0293  0.0573
 7805W        W50717   0.435   7.672  21.466  0.1694 -0.0728  0.1827
 7806W        W50718  34.700   7.103  22.545 -0.1192  0.4580 -0.3028
 7807W        W50719   1.074   8.068  21.638 -0.0225 -0.0424 -0.2488
 7808W        W50720   1.830   8.455  23.534  0.0514 -0.0111 -0.1931
 7809W        W50721   2.243   8.123  23.541 -0.0356  0.1400  0.1143
 7810W        W50722   0.752  11.358  23.732  0.1381  0.1042 -0.0227
 7811W        W50723   3.414   7.605  21.759 -0.2747  0.0744 -0.0510
 7812W        W50724   3.047  10.412  20.260 -0.1143  0.1290 -0.0369
 7813W        W50725   1.459   8.103  22.642 -0.1120 -0.1124 -0.0608
 7814W        W50726   1.169   8.383  21.288  0.0046  0.2391  0.3182
 7815W        W50727  33.407   8.026  23.027  0.0363 -0.0616  0.1429
 7816W        W50728   0.824   9.738  20.851  0.1119 -0.1180 -0.0578
 7817W        W50729   1.452   7.671  22.308 -0.0553  0.2161 -0.1215
 7818W        W50730   1.593   9.582  22.761  0.1990  0.1825 -0.4470
 7819W        W50731  34.070   9.924  20.061 -0.0439 -0.0832 -0.3215
 7820W        W50732  34.528   9.066  21.837  0.0859  0.2898 -0.0791
 7821W        W50733   4.412   7.970  20.042 -0.0954 -0.2516 -0.0631
 7822W        W50734   2.365   9.097  18.509 -0.1464 -0.0415 -0.1576
 7823W        W50735   1.009   7.946  22.510  0.0995  0.2126 -0.2777
 7824W        W50736   3.894   7.924  24.109 -0.2059  0.0457  0.0574
 7825W        W50737   2.536   9.191  20.653 -0.4863 -0.3837 -0.1735
 7826W        W50738   1.570   8.612  23.960 -0.1480  0.1802  0.2966
 7827W        W50739   0.730   7.608  22.828 -0.0237  0.1587 -0.0150
 7828W        W50740   2.916   9.918  20.129 -0.1272  0.1848 -0.6516
 7829W        W50741  33.982   7.978  22.317 -0.1566  0.1284  0.0173
 7830W        W50742   2.570  11.216  24.461 -0.2814 -0.1541 -0.2602
 7831W        W50743   1.139  10.408  24.320 -0.0450  0.1105 -0.0298
 7832W        W50744   3.800   7.956  21.470  0.1016  0.1008 -0.1110
 7833W        W50745   0.533   7.351  21.855  0.0371  0.0609  0.0968
 7834W        W50746   2.421   8.621  24.454 -0.0554  0.0719  0.0029
 7835W        W50747   4.093   9.785  22.551  0.0546 -0.1756 -0.0122
 7836W        W50748   1.576   9.422  21.596 -0.6520  0.3415 -0.2370
 7837W        W50749   3.799   7.489  21.523 -0.1535  0.2449  0.0556
 7838W        W50750  34.671   8.598  20.346 -0.3690  0.1303 -0.1486
 7839W        W50751   1.866   7.836  21.859  0.1886 -0.0928 -0.0164
 7840W        W50752   1.248   9.339  20.966  0.3422  0.3273  0.0823
 7841W        W50753   0.266   8.335  20.598 -0.0893 -0.0886  0.1048
 7842W        W50754   0.688   7.520  24.163  0.0542 -0.1427 -0.0536
 7843W        W50755   2.872   8.984  20.961  0.2105 -0.0226  0.0151
 7844W        W50756   2.325   7.130  22.128 -0.1803  0.0548  0.1777
 7845W        W50757   2.771   8.686  24.024 -0.3373 -0.2126 -0.0902
 7846W        W50758   3.038   8.057  23.775  0.0692  0.0158 -0.0528
 7847W        W50759   0.477   9.272  23.996  0.1263 -0.1163  0.1518
 7848W        W50760   1.596   7.427  23.179 -0.2130 -0.0617 -0.0983
 7849W        W50761   2.013  11.304  22.696 -0.2252 -0.0835  0.2435
 7850W        W50762   4.053   8.580  18.970  0.1455  0.0681 -0.0347
 7851W        W50763   2.681   7.680  22.612  0.2781  0.0324  0.1858
 7852W        W50764   2.789   8.274  21.596 -0.1211  0.2124 -0.0504
 7853W        W50765   0.914   7.579  21.387 -0.1365  0.0673  0.0586
 7854W        W50766   0.032   7.934  22.406  0.1001  0.3563 -0.0513
 7855W        W50767   4.357   7.903  24.313  0.1279 -0.1524 -0.0909
 7856W        W50768   1.403   8.791  20.985 -0.1633  0.1355 -0.0382
 7857W        W50769   2.686   8.319  23.512 -0.0584 -0.1421  0.0652
 7858W        W50770   1.595  10.681  20.274  0.1706 -0.1717  0.1896
 7859W        W50771   2.546   8.720  21.923  0.1575  0.0997 -0.1792
 7860W        W50772   1.244   8.933  21.450 -0.2651  0.1598 -0.1244
 7861W        W50773  34.007   7.353  20.937  0.1474 -0.0861  0.1083
 7862W        W50774   1.410  11.300  24.594  0.0844  0.1663 -0.2472
 7863W        W50775   0.811   7.905  20.601  0.0805  0.0730  0.2071
 7864W        W50776   1.205  10.629  20.592  0.1865  0.2742 -0.0003
 7865W        W50777   0.859   9.837  21.513  0.0250 -0.1137  0.2107
 7866W        W50778   3.360   9.132  25.231  0.1102 -0.2737 -0.0669
 7867W        W50779   1.579   6.837  21.484  0.2456 -0.0050 -0.1313
 7868W        W50780   4.529   8.251  22.962  0.2757 -0.0754  0.3964
 7869W        W50781  34.568   9.954  19.863  0.1218  0.0567 -0.0583
 7870W        W50782   0.898   7.416  22.238  0.0270 -0.1569 -0.1549
 7871W        W50783   0.736  12.044  22.977  0.3011 -0.0327  0.3328
 7872W        W50784   0.218   9.414  22.077  0.0390 -0.1502  0.0785
 7873W        W50785   0.017   9.517  20.441  0.1482 -0.1448 -0.1156
 7874W        W50786   0.540   8.019  22.548 -0.0469  0.1834 -0.0558
 7875W        W50787   3.801   7.138  22.304 -0.0269 -0.0197 -0.2815
 7876W        W50788   2.337   8.106  21.740 -0.0661  0.2528  0.0142
 7877W        W50789   4.538   8.351  23.991 -0.0524 -0.1239 -0.0519
 7878W        W50790   2.196  10.074  22.541 -0.2730  0.1479 -0.0222
 7879W        W50791  34.345   8.215  22.085  0.1249 -0.0550  0.3025
 7880W        W50792   1.749   8.547  24.626  0.1160 -0.1115  0.0415
 7881W        W50793   3.651   9.753  22.711  0.2606  0.0762  0.0166
 7882W        W50794   1.025   8.247  22.967  0.7321 -0.1531  0.2422
 7883W        W50795  33.603   6.766  22.512 -0.5192 -0.2469 -0.2343
 7884W        W50796   1.970   8.397  22.695 -0.1023  0.0448  0.2839
 7885W        W50797   3.363   8.819  22.286 -0.2178  0.1262  0.0777
 7886W        W50798   2.240   8.543  21.547  0.2971  0.2547  0.2422
 7887W        W50799   2.033  10.309  21.237  0.2488 -0.2357  0.1856
 7888W        W50800   0.269  10.534  24.309  0.3260 -0.3478  0.0640
 7889W        W50801   0.177   8.933  21.439 -0.4397  0.4095  0.3405
 7890W        W50802   0.263  12.628  21.361 -0.2522  0.1450  0.1242
 7891W        W50803   3.553   8.748  19.196  0.0858 -0.0754 -0.0159
 7892W        W50804   2.856   9.759  21.316 -0.1063  0.1380  0.3085
 7893W        W50805   1.656  10.717  21.896 -0.2222  0.1400  0.1269
 7894W        W50806   1.476   7.850  21.432  0.1315  0.0408  0.1162
 7895W        W50807   1.515  10.274  22.207 -0.0332  0.1034  0.0207
 7896W        W50808  34.418   9.030  20.306 -0.2375  0.1006 -0.0757
 7897W        W50809   2.111   8.890  20.645 -0.0221  0.2213  0.0214
 7898W        W50810   0.088  10.745  21.091 -0.2489  0.0284  0.1149
 7899W        W50811   2.014   8.664  24.186 -0.0300 -0.0609 -0.2299
 7900W        W50812   2.465   8.167  21.218 -0.1444  0.1798 -0.1327
 7901W        W50813   2.966   9.069  21.929  0.1924  0.1429  0.2930
 7902W        W50814   1.559   8.240  21.074 -0.2445  0.0555 -0.2654
 7903W        W50815   1.484  10.013  22.638  0.1592 -0.2031 -0.1137
 7904W        W50816   1.979   7.160  21.647  0.1964 -0.5224  0.1413
 7905W        W50817   2.500   8.143  20.577  0.1529  0.2223 -0.2920
 7906W        W50818   0.103   9.018  23.752 -0.2339  0.2292  0.2056
 7907W        W50819   4.532   7.891  23.823  0.3425  0.1139  0.1632
 7908W        W50820  33.913  10.274  21.757  0.0947 -0.0268  0.1398
 7909W        W50821   3.283  10.630  21.584  0.2349 -0.2020 -0.3996
 7910W        W50822   0.526   8.548  21.332  0.1070  0.0165  0.2172
 7911W        W50823   2.188   9.544  22.696  0.0356 -0.0631 -0.1762
 7912W        W50824   4.163   7.165  23.647  0.1503 -0.4215  0.0645
 7913W        W50825   1.550  10.159  20.584  0.2046  0.1085  0.1297
 7914W        W50826   1.924   8.328  21.903  0.0089  0.1003 -0.1829
 7915W        W50827   1.498  11.241  22.536 -0.1302 -0.2177  0.1218
 7916W        W50828   0.072   9.458  21.502 -0.2941 -0.2688 -0.0440
 7917W        W50829   0.984  11.159  23.331  0.1400 -0.0602  0.4830
 7918W        W50830  33.771   8.474  20.093  0.1180 -0.0293 -0.1338
 7919W        W50831   3.908   7.629  22.015 -0.0199  0.0261 -0.2754
 7920W        W50832   0.418   8.705  23.474  0.2053  0.1470  0.1517
 7921W        W50833   2.236   8.617  23.178 -0.4827 -0.0957 -0.0463
 7922W        W50834   1.127  10.135  19.804 -0.1203  0.0676  0.0217
 7923W        W50835   3.646   8.230  21.095  0.0243  0.2713  0.0481
 7924W        W50836   1.380  10.237  23.549 -0.2072  0.0462  0.1921
 7925W        W50837   0.586   8.160  23.619  0.0808  0.0822 -0.0898
 7926W        W50838   0.376   7.467  20.964  0.0743  0.0844  0.0175
 7927W        W50839   2.140  10.497  24.749  0.0678 -0.0188 -0.2323
 7928W        W50840   2.417   8.988  20.114 -0.0958 -0.0335 -0.0158
 7929W        W50841   3.899  11.856  24.482 -0.1502  0.2594 -0.0277
 7930W        W50842   0.292   8.439  22.280 -0.3074 -0.0964 -0.1799
 7931W        W50843   1.939   8.140  21.390  0.0810 -0.0627  0.2747
 7932W        W50844   0.780   9.665  19.995  0.2654 -0.0398  0.1684
 7933W        W50845  34.397   8.307  22.563  0.3208 -0.2002 -0.1283
 7934W        W50846   2.730  10.375  23.893  0.0763 -0.0995  0.1528
 7935W        W50847   0.655   6.878  21.814 -0.1126 -0.1481  0.0368
 7936W        W50848   3.539   9.877  18.548  0.0226  0.0898 -0.2006
 7937W        W50849   2.932   8.623  23.157 -0.2355 -0.1155 -0.0717
 7938W        W50850   0.783  10.992  20.873 -0.3605  0.1474 -0.1032
 7939W        W50851   3.886   9.425  21.794 -0.1007  0.3368  0.0980
 7940W        W50852   3.261  11.234  22.505 -0.0217  0.0415  0.2140
 7941W        W50853   0.136   8.671  22.783  0.2244  0.0897  0.0754
 7942W        W50854   3.703  11.101  22.872  0.0577 -0.1176  0.1303
 7943W        W50855   3.402  10.058  21.595  0.1657 -0.2217 -0.3460
 7944W        W50856   2.423   7.089  21.540 -0.1992 -0.3791 -0.0744
 7945W        W50857   0.772   8.054  21.244 -0.0495 -0.2467 -0.0906
 7946W        W50858  34.424  10.283  20.555 -0.1558 -0.0405  0.3229
 7947W        W50859   1.521   9.084  22.800 -0.0806 -0.3278 -0.0311
 7948W        W50860   3.215   8.107  23.268  0.1928 -0.0449 -0.0754
 7949W        W50861   2.032  10.931  19.410  0.0652 -0.1718 -0.3010
 7950W        W50862   2.794   7.430  23.069  0.0499  0.2862 -0.2033
 7951W        W50863   1.919  11.865  22.802 -0.0119  0.1953  0.0509
 7952W        W50864   0.319  10.359  23.172 -0.0588  0.0907  0.1418
 7953W        W50865   1.799   9.800  20.242  0.1755  0.1355  0.0998
 7954W        W50866   0.943   9.032  22.734  0.0442 -0.3739 -0.0211
 7955W        W50867   0.163   8.234  21.267  0.0385  0.1262 -0.1126
 7956W        W50868   0.961  10.532  22.013 -0.4456  0.2336  0.1519
 7957W        W50869   2.484  10.169  21.512  0.0685 -0.1203 -0.0137
 7958W        W50870   2.775   7.901  22.029 -0.0642  0.1003  0.0752
 7959W        W50871   3.815  10.653  21.766 -0.0458  0.4168 -0.1096
 7960W        W50872   0.634   6.394  21.609  0.0783  0.3043  0.1071
 7961W        W50873   4.245   6.991  21.498 -0.0147 -0.0415 -0.2529
 7962W        W50874   2.783   7.319  22.268  0.1344  0.0081  0.1428
 7963W        W50875   0.727   9.292  22.157 -0.2012 -0.0439 -0.2270
 7964W        W50876   0.541   6.668  21.180  0.2280  0.0333  0.2412
 7965W        W50877   1.392   9.711  20.673 -0.4525 -0.0351  0.0640
 7966W        W50878   1.136  10.099  21.827 -0.0644 -0.3536 -0.1376
 7967W        W50879   1.050   9.058  24.073  0.0409 -0.0894 -0.0839
 7968W        W50880   0.810   8.903  23.706 -0.0636  0.0601 -0.0663
 7969W        W50881   0.538   9.341  21.676  0.3443  0.2843  0.0825
 7970W        W50882   1.570   7.412  21.735  0.1920 -0.0607  0.1124
 7971W        W50883   2.532   8.166  19.997 -0.3096 -0.3107  0.0861
 7972W        W50884   0.086   7.347  23.358  0.0658 -0.2301 -0.0538
 7973W        W50885  33.469   7.802  22.249  0.2140 -0.2525 -0.2093
 7974W        W50886   2.819   9.465  20.243 -0.1390  0.1507  0.1256
 7975W        W50887   3.877  10.487  20.747  0.0114 -0.0257 -0.2941
 7976W        W50888   3.321   8.103  21.837  0.2281  0.1634  0.0273
 7977W        W50889   3.444  10.133  23.075 -0.2628  0.2567 -0.0958
 7978W        W50890   0.038   7.988  21.818  0.0879  0.0858  0.1910
 7979W        W50891   0.479   8.560  24.774 -0.2714  0.2700 -0.0940
 7980W        W50892   1.764   8.216  24.239  0.0293  0.2113  0.1868
 7981W        W50893  34.308   8.134  21.545 -0.1294 -0.2306  0.2868
 7982W        W50894   2.460   8.668  22.736  0.0353 -0.2051  0.0505
 7983W        W50895   2.623   9.258  21.546  0.0254 -0.0244 -0.0592
 7984W        W50896   2.167  10.764  20.408  0.1902 -0.2220  0.2015
 7985W        W50897   0.616   9.795  21.973  0.0098 -0.0622 -0.2060
 7986W        W50898   1.032   9.842  23.484  0.2118 -0.0078  0.0676
 7987W        W50899   1.997   6.453  22.419 -0.1558 -0.4136 -0.1940
 7988W        W50900   3.435   8.897  20.585 -0.1279 -0.1370  0.0613
 7989W        W50901   2.475   9.152  22.626 -0.0677  0.0329  0.0398
 7990W        W50902   4.834   9.295  19.978  0.1318 -0.2014 -0.1421
 7991W        W50903   3.986   5.814  22.499 -0.1490 -0.3570  0.0429
 7992W        W50904   3.781  10.327  21.339  0.0112 -0.1263 -0.0578
 7993W        W50905   0.758   6.491  25.412  0.1161 -0.2647 -0.0933
 7994W        W50906  34.109   9.134  24.349 -0.1794  0.0544 -0.0195
 7995W        W50907   3.421   9.348  22.108  0.0160  0.1118 -0.3160
 7996W        W50908   0.917   6.381  21.115 -0.0927 -0.0329  0.1492
 7997W        W50909   2.424   7.970  19.489 -0.2403 -0.1038 -0.3538
 7998W        W50910   1.666  10.046  21.062  0.0389  0.2238 -0.0597
 7999W        W50911  34.145   9.704  22.381 -0.0748 -0.2227 -0.2121
 8000W        W50912   0.434   7.934  20.913 -0.2871  0.2482 -0.1500
 8001W        W50913   2.342   8.568  23.809 -0.0324  0.1405 -0.2735
 8002W        W50914   2.015   9.465  21.932 -0.1320 -0.0233  0.0025
 8003W        W50915   2.232   9.011  23.498  0.0811  0.1712 -0.1716
 8004W        W50916   1.680   8.548  20.661  0.0326  0.0001  0.1274
 8005W        W50917   4.597   7.149  20.265  0.0257  0.0611 -0.0319
 8006W        W50918   2.316  11.189  23.140  0.0590 -0.0415 -0.1431
 8007W        W50919   2.477  10.337  24.369  0.1741  0.1005  0.1883
 8008W        W50920   1.434  10.448  23.090  0.2701 -0.4080  0.1414
 8009W        W50921   3.221   7.839  21.382  0.0506  0.1232  0.2218
 8010W        W50922   0.297   6.569  22.048 -0.0752 -0.5257  0.1724
 8011W        W50923   0.680   9.004  21.379 -0.0626 -0.1319 -0.3271
 8012W        W50924   1.780   8.984  21.293  0.1787 -0.7355  0.1214
 8013W        W50925   3.258   7.549  23.332 -0.1749 -0.0368 -0.0308
 8014W        W50926   0.119   7.493  22.009  0.1643  0.0076 -0.4919
 8015W        W50927   2.158   7.468  20.979 -0.3406  0.0100 -0.2952
 8016W        W50928   2.742  11.397  23.271 -0.0792 -0.1839 -0.1679
 8017W        W50929   1.620   9.010  21.948  0.1986 -0.3387 -0.0031
 8018W        W50930   1.434  10.601  25.949 -0.3418  0.2012 -0.3543
 8019W        W50931   1.355   8.648  23.496  0.0546  0.1584 -0.3107
 8020W        W50932   1.855   9.736  24.125 -0.2066 -0.0308 -0.0515
 8021W        W50933   2.563   7.552  24.037 -0.1403  0.1728 -0.0250
 8022W        W50934   0.277   6.954  24.860 -0.1335 -0.0354 -0.1437
 8023W        W50935   3.654  11.073  25.017 -0.1484 -0.0331  0.1155
 8024W        W50936   1.390   7.981  26.963 -0.0959 -0.0555 -0.0765
 8025W        W50937   1.860  10.492  25.655  0.1586 -0.0643  0.0096
 8026W        W50938   3.697   9.538  26.216 -0.2545  0.1841  0.0733
 8027W        W50939   0.563   9.987  23.296 -0.1114  0.2712 -0.1037
 8028W        W50940   0.151   8.420  26.438  0.0986  0.1783  0.0037
 8029W        W50941   1.189  10.693  26.350  0.1002  0.3309  0.0173
 8030W        W50942   0.986   7.153  24.155  0.0295 -0.0202  0.0368
 8031W        W50943  33.982   7.857  26.671  0.1853  0.3530  0.1073
 8032W        W50944   3.779   8.360  26.722  0.0769 -0.0283 -0.1609
 8033W        W50945  33.952   9.913  25.051 -0.1953  0.4457  0.1131
 8034W        W50946   1.150   7.834  25.467  0.1588 -0.5604  0.2356
 8035W        W50947   1.369   8.394  24.904  0.3830  0.0502  0.0241
 8036W        W50948   1.858  11.318  26.425 -0.1297  0.2689  0.2143
 8037W        W50949   0.103   7.936  27.333  0.1095 -0.2427  0.2595
 8038W        W50950   1.652   6.933  27.090  0.1078 -0.0758  0.0823
 8039W        W50951   2.250  10.602  25.290  0.0507  0.0160 -0.1481
 8040W        W50952   0.195   7.976  25.318 -0.0825 -0.0246 -0.1186
 8041W        W50953   0.290   9.262  25.961  0.2960  0.1389  0.0951
 8042W        W50954   0.379   8.915  25.619 -0.1913  0.1643 -0.3856
 8043W        W50955   1.790   8.157  26.616 -0.0020  0.0858 -0.1707
 8044W        W50956   2.728   9.764  25.382  0.2555  0.1633  0.1572
 8045W        W50957   0.908  11.393  26.960 -0.2204  0.0689 -0.2294
 8046W        W50958   2.394  10.086  25.304  0.1883  0.1182  0.2445
 8047W        W50959   2.788   8.639  28.526  0.0322  0.0317 -0.0462
 8048W        W50960   0.260   7.825  24.623  0.4663  0.0767 -0.3718
 8049W        W50961   0.679  11.460  26.026  0.1491 -0.0799  0.1308
 8050W        W50962   0.648  11.850  25.725 -0.1908 -0.1762  0.3021
 8051W        W50963   3.193  10.199  24.035 -0.0440 -0.1237  0.0496
 8052W        W50964   3.076   8.887  26.442 -0.0751 -0.1365 -0.0238
 8053W        W50965   1.070  10.251  28.772 -0.0844  0.3826  0.1774
 8054W        W50966  34.120  10.199  23.477 -0.2139 -0.2092 -0.1630
 8055W        W50967   2.131  10.905  27.252 -0.2567  0.0885  0.1796
 8056W        W50968   0.890   9.311  27.448 -0.0605 -0.2016  0.0202
 8057W        W50969   1.874   9.858  26.095  0.2033  0.1503  0.2194
 8058W        W50970   2.476   9.119  26.065  0.1884  0.0029  0.0242
 8059W        W50971   0.793   9.582  24.283  0.0554  0.4128  0.3655
 8060W        W50972   1.649   9.058  24.622  0.0913  0.3621  0.1076
 8061W        W50973   0.467   9.717  27.182  0.1784 -0.0073 -0.4158
 8062W        W50974  34.400   9.282  26.161 -0.0164  0.4016  0.2198
 8063W        W50975   2.855   7.908  28.430 -0.1386 -0.1298 -0.0224
 8064W        W50976   0.047  10.777  25.288  0.1654 -0.2746  0.0431
 8065W        W50977   2.291   8.360  22.283 -0.1772 -0.2534 -0.2569
 8066W        W50978   0.990   8.080  24.035 -0.1418  0.1398  0.2935
 8067W        W50979   3.155   8.075  24.820 -0.0246  0.3222  0.2455
 8068W        W50980  34.168   6.974  24.366 -0.2448  0.2244  0.3434
 8069W        W50981   0.174  11.490  25.917  0.1016 -0.3658 -0.3713
 8070W        W50982   0.817   7.966  25.790  0.1596 -0.0622 -0.0611
 8071W        W50983   3.148   9.571  25.547 -0.0660  0.1672 -0.4412
 8072W        W50984  34.657   8.761  23.242 -0.1273  0.0001  0.0048
 8073W        W50985   1.798   8.465  27.092  0.0337 -0.2948 -0.1248
 8074W        W50986   0.467  10.579  26.947 -0.2068 -0.4118  0.1805
 8075W        W50987  33.989   8.190  26.129 -0.1015  0.2768 -0.2022
 8076W        W50988   2.088  10.678  23.194 -0.3243  0.1698 -0.1150
 8077W        W50989   3.042  10.296  24.575 -0.2184  0.0983  0.0534
 8078W        W50990   1.496  11.087  25.053  0.1964  0.4604  0.0361
 8079W        W50991  34.266   8.907  25.694 -0.1291 -0.0275 -0.1481
 8080W        W50992   0.179   8.131  27.861  0.0945  0.2409  0.1638
 8081W        W50993   0.628   9.964  26.220 -0.1999  0.4880 -0.1046
 8082W        W50994   1.212   8.370  25.396 -0.1251  0.1340 -0.2064
 8083W        W50995   3.084   9.000  25.891  0.1727  0.0017 -0.1911
 8084W        W50996   0.349  10.105  26.829 -0.1297 -0.0915  0.1280
 8085W        W50997   3.639   9.314  24.838  0.0944  0.0345  0.1989
 8086W        W50998   1.144  10.031  26.649 -0.0757  0.2069 -0.1435
 8087W        W50999   2.618   8.834  24.955 -0.3532 -0.2474  0.3661
 8088W        W51000   2.277   9.054  24.612 -0.0872 -0.0970 -0.2084
 8089W        W51001   1.846   7.478  26.026  0.0423 -0.0280 -0.0193
 8090W        W51002   2.252   8.322  27.076 -0.0288  0.0865 -0.0857
 8091W        W51003  34.289   9.994  24.699 -0.1119 -0.0134  0.3434
 8092W        W51004   0.583   9.298  24.852 -0.3028 -0.0350 -0.0599
 8093W        W51005   2.723   8.545  26.213  0.1342 -0.0868 -0.1234
 8094W        W51006   0.961   7.690  24.542  0.2348 -0.2381  0.2222
 8095W        W51007   1.227  10.310  27.304 -0.3258  0.0445 -0.2256
 8096W        W51008   1.993   9.098  26.255  0.1508  0.1715 -0.0999
 8097W        W51009   2.671  11.084  26.351 -0.1581 -0.2726 -0.1362
 8098W        W51010   0.769  10.202  24.719 -0.4500  0.2328  0.4291
 8099W        W51011  32.775  10.130  25.598  0.1195 -0.3195 -0.2321
 8100W        W51012   0.264  10.371  25.151  0.0009 -0.0326 -0.1556
 8101W        W51013   0.394   9.232  26.536  0.1770  0.0597  0.0934
 8102W        W51014   0.651   8.860  26.167 -0.3386 -0.3321  0.4766
 8103W        W51015   2.119   8.202  24.554 -0.0725 -0.0726 -0.1425
 8104W        W51016   1.596   8.054  25.488 -0.0426 -0.1018  0.0062
 8105W        W51017   1.065   6.647  25.778 -0.1496  0.1313  0.1206
 8106W        W51018  34.183   8.492  25.091 -0.1333  0.1604  0.4237
 8107W        W51019   3.944  11.488  24.890 -0.1668 -0.0638 -0.2837
 8108W        W51020   3.027   6.899  24.737 -0.2402 -0.2764 -0.3580
 8109W        W51021   2.211   9.983  23.435  0.0541  0.0936 -0.0408
 8110W        W51022  33.760   8.920  25.698  0.1505  0.0756 -0.2794
 8111W        W51023   1.708   8.587  25.626  0.4686 -0.1648  0.0301
 8112W        W51024  33.055   8.199  29.308 -0.0366  0.1580 -0.0355
 8113W        W51025  34.324   8.044  25.261 -0.0875  0.2105 -0.1644
 8114W        W51026   2.118   8.225  28.022 -0.0496  0.1882 -0.0727
 8115W        W51027   0.191   6.857  23.373 -0.1373 -0.0865  0.1135
 8116W        W51028   3.214   8.399  26.003 -0.1288 -0.0772 -0.2459
 8117W        W51029   0.713   9.066  24.437  0.1434 -0.1724  0.1631
 8118W        W51030  33.744   8.636  25.268  0.3097  0.0931 -0.1724
 8119W        W51031   2.276   7.129  28.279  0.2693 -0.3016  0.1940
 8120W        W51032   2.292  10.322  25.833  0.0212  0.1962  0.0744
 8121W        W51033   3.304  10.803  25.965 -0.1798  0.0102 -0.4919
 8122W        W51034   2.009  11.020  25.420 -0.1419 -0.3446  0.0507
 8123W        W51035   0.750   9.443  26.206 -0.0365  0.0416  0.1396
 8124W        W51036   0.473   7.177  23.713 -0.0736 -0.0224  0.0256
 8125W        W51037   0.396  11.835  26.226  0.0597 -0.2806 -0.1644
 8126W        W51038   1.076  10.767  25.161 -0.0275 -0.2267  0.0659
 8127W        W51039   0.901   7.449  25.780  0.0679 -0.0837 -0.4245
 8128W        W51040   3.262   9.834  26.012  0.0553  0.2352  0.0896
 8129W        W51041   1.949   9.392  24.754 -0.1114 -0.0912 -0.1275
 8130W        W51042   0.122   8.947  26.300  0.3159  0.2206  0.2474
 8131W        W51043   2.990   7.344  27.099  0.1233  0.1306 -0.0585
 8132W        W51044   3.325   8.711  25.450 -0.0454 -0.1206  0.0298
 8133W        W51045   2.810   9.845  23.750  0.0158 -0.3214 -0.0232
 8134W        W51046  34.486   6.704  24.670 -0.0678  0.1809  0.0254
 8135W        W51047   1.256   9.534  25.427 -0.0804  0.0203  0.1045
 8136W        W51048   0.388  11.109  24.090  0.1506  0.1511 -0.1899
 8137W        W51049   0.251   7.691  25.835 -0.0307 -0.3583  0.1681
 8138W        W51050   0.975  11.163  24.791 -0.0768  0.0648  0.3874
 8139W        W51051   2.885   6.705  26.158  0.2537  0.1128  0.1616
 8140W        W51052   1.125   9.621  27.878 -0.0265 -0.2842 -0.0250
 8141W        W51053   1.942   9.440  28.902 -0.1086  0.0302  0.0544
 8142W        W51054   0.489   9.768  24.710 -0.0582 -0.1827  0.2255
 8143W        W51055   1.445  10.199  26.295 -0.1116  0.0244 -0.2949
 8144W        W51056   1.440   7.194  25.010  0.0616 -0.0344  0.1448
 8145W        W51057   3.735   7.533  23.319 -0.0986  0.1155 -0.2187
 8146W        W51058   1.245   9.511  26.609 -0.1289  0.2723  0.0911
 8147W        W51059   3.176   9.828  24.578  0.3261 -0.2957  0.1085
 8148W        W51060   2.249   9.623  24.427 -0.1791 -0.1851 -0.1588
 8149W        W51061   1.946   6.522  24.627 -0.0964  0.1809  0.1065
 8150W        W51062  34.514  10.023  29.076 -0.0700 -0.1692  0.2137
 8151W        W51063   1.302  10.256  24.902  0.1897 -0.1194 -0.1292
 8152W        W51064   0.516   9.908  25.250  0.2057  0.1728 -0.0950
 8153W        W51065   2.615   8.080  24.673  0.2741  0.0577  0.0468
 8154W        W51066   3.563  10.579  24.751 -0.0891  0.1089  0.0417
 8155W        W51067  34.376   9.234  26.695 -0.0663  0.2527  0.1062
 8156W        W51068   1.957   9.491  25.278 -0.0555  0.1012  0.3730
 8157W        W51069   3.587  10.402  24.269 -0.1268  0.1237  0.0829
 8158W        W51070   0.792   8.389  26.170 -0.0869  0.0142  0.0279
 8159W        W51071   0.530   9.383  23.465  0.0603 -0.0855  0.0611
 8160W        W51072   1.349   7.333  26.189  0.1171 -0.0367  0.0192
 8161W        W51073  33.959   9.781  23.821  0.0071  0.0041  0.2018
 8162W        W51074   2.891   6.862  25.581 -0.0311  0.0232  0.2041
 8163W        W51075   1.647   6.393  25.926  0.0453  0.1666  0.1266
 8164W        W51076  34.223   7.304  27.642  0.0964 -0.2744  0.1855
 8165W        W51077   5.081   8.962  26.803  0.1305 -0.1827  0.0959
 8166W        W51078   2.107   7.836  23.928 -0.1228 -0.1592 -0.1386
 8167W        W51079   3.419   7.902  25.729 -0.1798 -0.1045 -0.2686
 8168W        W51080  34.205   8.604  24.612 -0.0238 -0.3679 -0.0342
 8169W        W51081   1.487   9.041  26.502  0.1343 -0.1162 -0.0720
 8170W        W51082   0.582   9.670  25.818 -0.3016 -0.1138 -0.3444
 8171W        W51083   0.208  10.558  26.471 -0.1414  0.2347 -0.0546
 8172W        W51084   1.787   9.537  25.752 -0.1642  0.1180 -0.1806
 8173W        W51085   0.718   9.452  25.328  0.0736  0.0041 -0.0025
 8174W        W51086   0.023   7.683  28.473  0.0574  0.2014 -0.0786
 8175W        W51087   1.701   8.040  24.808  0.0005 -0.0341  0.0714
 8176W        W51088   0.685  10.681  24.699  0.0595 -0.0909  0.1769
 8177W        W51089   1.635  10.694  23.471  0.1548 -0.0974  0.0248
 8178W        W51090   0.386   7.092  25.933  0.0191  0.1022  0.0382
 8179W        W51091   0.195  12.108  27.006 -0.0584 -0.0787  0.0929
 8180W        W51092   1.742   9.301  23.295 -0.0228 -0.0218 -0.0742
 8181W        W51093   1.498  10.813  25.466  0.1582  0.0415 -0.1780
 8182W        W51094   0.210  12.250  24.805  0.0645  0.3579  0.4639
 8183W        W51095   2.971   5.995  26.317  0.4929 -0.2021  0.2149
 8184W        W51096  34.416  10.050  25.903  0.3768 -0.1822 -0.2205
 8185W        W51097   1.348   8.897  25.040 -0.2658  0.1070  0.1416
 8186W        W51098   0.202   9.248  24.510  0.0155 -0.0695 -0.3501
 8187W        W51099   3.273   6.962  25.269  0.1667  0.2697  0.1166
 8188W        W51100   4.000  10.623  24.497 -0.0094  0.0299  0.0255
 8189W        W51101   0.476   7.934  26.680  0.4420 -0.2606 -0.0757
 8190W        W51102   1.628   9.039  25.943 -0.0092 -0.1282 -0.1218
 8191W        W51103  34.445  11.150  25.989 -0.1373  0.2873 -0.1210
 8192W        W51104   1.819  10.739  25.037 -0.0984 -0.0013  0.1717
 8193W        W51105   3.441   8.341  23.987  0.1161  0.1544  0.1335
 8194W        W51106   3.621   9.908  25.646 -0.0640 -0.0081  0.3390
 8195W        W51107   0.805   8.671  28.097  0.2280 -0.1356 -0.2440
 8196W        W51108   0.389   8.413  23.964 -0.2109  0.1410 -0.0040
 8197W        W51109   4.196   9.060  26.931 -0.4731  0.2909  0.1801
 8198W        W51110   0.783   8.191  25.240 -0.1322 -0.0399  0.0819
 8199W        W51111   1.040   9.680  24.896 -0.1323 -0.1850 -0.1814
 8200W        W51112   1.808  10.325  26.617 -0.0143  0.2362 -0.2473
 8201W        W51113   0.215   7.695  23.693 -0.1176  0.1270 -0.0913
 8202W        W51114   0.252  10.156  23.781  0.1776  0.1941 -0.4305
 8203W        W51115   0.867   8.326  26.645  0.0408 -0.0439  0.0685
 8204W        W51116   3.494   9.331  25.801  0.2015 -0.0584  0.1840
 8205W        W51117   1.532   7.067  26.617  0.0631  0.0462  0.0116
 8206W        W51118  34.557   8.110  24.789 -0.1875  0.1229 -0.0792
 8207W        W51119   2.823   8.158  26.553  0.0318  0.2856  0.0945
 8208W        W51120   2.770   8.610  25.740  0.1469 -0.1176  0.1945
 8209W        W51121   2.522   7.499  27.241  0.6367  0.0889  0.0510
 8210W        W51122   1.423   9.805  27.378 -0.0436  0.0664  0.0927
 8211W        W51123   1.036   6.825  26.553  0.0453  0.4431  0.0469
 8212W        W51124   2.637   9.413  23.570 -0.3025 -0.0181 -0.0996
 8213W        W51125   2.285   8.835  27.036  0.2698  0.1162 -0.2386
 8214W        W51126   0.094   9.463  24.940  0.1633  0.1228 -0.2342
 8215W        W51127  34.341   9.744  26.628  0.2526 -0.3126  0.0700
 8216W        W51128   0.655  10.153  24.253  0.2672 -0.0498 -0.1117
 8217W        W51129   1.299   8.154  26.457  0.1398  0.2482  0.0084
 8218W        W51130  34.173   9.837  25.505 -0.0074  0.1120 -0.0833
 8219W        W51131   1.021  11.496  24.201 -0.2894  0.1303  0.0594
 8220W        W51132  33.882  10.046  26.508 -0.1901  0.0928 -0.2144
 8221W        W51133   2.295   7.527  23.618 -0.1573 -0.1465  0.0317
 8222W        W51134   1.510   9.075  24.118 -0.1064  0.0303  0.2119
 8223W        W51135   0.806   7.252  26.316 -0.3678 -0.0977 -0.2276
 8224W        W51136   3.818   8.192  25.794  0.2702 -0.2201  0.1484
 8225W        W51137   2.780   9.935  24.269  0.2440  0.0249 -0.0731
 8226W        W51138   3.296   7.997  27.340  0.0308  0.1902  0.3541
 8227W        W51139   1.190   8.653  26.319  0.0617  0.0797 -0.0493
 8228W        W51140   3.271   9.960  23.623  0.0045  0.2478  0.0465
 8229W        W51141   0.028   7.411  27.426  0.1609 -0.2008 -0.0488
 8230W        W51142   2.491  11.213  27.526 -0.1855  0.1029 -0.0689
 8231W        W51143   0.123   9.344  26.946  0.0436  0.4160 -0.2748
 8232W        W51144   1.731   7.720  25.163 -0.0614  0.1587  0.2027
 8233W        W51145   1.342   8.712  24.402 -0.0298 -0.3233  0.0961
 8234W        W51146   1.221   8.873  25.637 -0.2629  0.2711 -0.0473
 8235W        W51147   2.823   9.181  25.342 -0.0499 -0.3214  0.0217
 8236W        W51148  34.504   9.097  24.725 -0.2728  0.0623 -0.0560
 8237W        W51149   1.894   8.910  25.039 -0.1209  0.1239 -0.1951
 8238W        W51150   1.164   9.808  26.191 -0.1785  0.3597 -0.0569
 8239W        W51151   2.753   8.880  23.556 -0.2883  0.1129 -0.0036
 8240W        W51152   1.701   7.975  23.464 -0.0812  0.1574 -0.0170
 8241W        W51153   1.077  10.272  25.970  0.1067 -0.0196 -0.4164
 8242W        W51154  33.610   7.781  25.554 -0.1544 -0.0323  0.1256
 8243W        W51155   3.645   9.660  24.369  0.0047  0.0444 -0.0407
 8244W        W51156   3.760   8.995  25.514  0.1154 -0.1020  0.1145
 8245W        W51157   2.264   8.170  26.358 -0.3253 -0.1796 -0.0336
 8246W        W51158   1.539   7.982  27.888  0.1221  0.0679  0.1124
 8247W        W51159   1.585   9.491  26.977 -0.2172  0.0884 -0.0683
 8248W        W51160   0.889   8.854  28.707  0.1912 -0.1837  0.2003
 8249W        W51161   2.830   9.306  26.432  0.0009  0.0975 -0.4998
 8250W        W51162   3.623   7.448  23.898 -0.2202 -0.2984  0.1484
 8251W        W51163   3.300   8.059  26.832  0.1181 -0.2483 -0.2359
 8252W        W51164   2.435   9.448  24.936  0.3680 -0.1679 -0.1700
 8253W        W51165   2.516   8.153  24.120  0.0285 -0.1511  0.0571
 8254W        W51166   0.228   7.451  24.193 -0.2605 -0.1453  0.3204
 8255W        W51167   3.566   9.324  27.632  0.0759  0.1720  0.1412
 8256W        W51168   0.779   8.150  24.639 -0.2185 -0.2157  0.0445
 8257W        W51169   2.497   7.899  26.836 -0.0987 -0.0082  0.1855
 8258W        W51170   1.427  11.030  23.157 -0.1823 -0.2971 -0.1051
 8259W        W51171   2.738   9.464  24.501  0.0294 -0.2497  0.2138
 8260W        W51172   3.165   8.254  25.558  0.1859 -0.3148  0.1427
 8261W        W51173  33.675   7.774  24.338  0.1076  0.0049 -0.1284
 8262W        W51174  34.323  11.005  26.928  0.0902 -0.2853  0.2840
 8263W        W51175  34.275   7.864  22.811 -0.0527  0.2138 -0.0176
 8264W        W51176   1.581   9.584  23.729  0.0426 -0.0861 -0.2017
 8265W        W51177   1.409   9.895  25.738  0.5019 -0.1706  0.0425
 8266W        W51178   1.988   9.762  27.265  0.2477  0.0672 -0.1307
 8267W        W51179   1.765   7.679  24.278 -0.1036 -0.1354 -0.3387
 8268W        W51180   2.398   6.863  27.833  0.3807  0.0821 -0.1484
 8269W        W51181  32.472  10.507  25.594  0.0689 -0.1553 -0.1277
 8270W        W51182   2.322   9.104  25.265 -0.0214  0.2711 -0.2325
 8271W        W51183   1.344  10.405  27.797 -0.2026 -0.3117  0.0863
 8272W        W51184   0.181  11.069  25.625  0.2037  0.0290  0.0489
 8273W        W51185   1.501   9.401  24.978 -0.3729 -0.1215 -0.2877
 8274W        W51186   2.454   8.173  25.882 -0.1696 -0.1469  0.2934
 8275W        W51187   2.497   7.219  26.224  0.0798  0.0162 -0.1779
 8276W        W51188   0.080   9.917  25.545 -0.1039 -0.0916 -0.3203
 8277W        W51189   4.494   8.443  25.136  0.0206 -0.0599  0.3269
 8278W        W51190   1.975   9.313  26.718 -0.2238  0.0683  0.0181
 8279W        W51191   1.187   7.904  24.980  0.1360 -0.0875 -0.3502
 8280W        W51192   2.252  10.459  26.748 -0.5280  0.0354 -0.0397
 8281W        W51193   3.153   9.836  25.082  0.0945 -0.3051 -0.1512
 8282W        W51194   1.112  10.997  25.879  0.0317 -0.2066  0.1221
 8283W        W51195  33.951   7.637  28.945  0.1621  0.0853  0.0850
 8284W        W51196   1.199   9.133  26.967 -0.3010  0.0296 -0.0496
 8285W        W51197   1.307  10.281  25.403 -0.2603  0.0737 -0.0752
 8286W        W51198   0.758   8.543  25.610  0.0680 -0.2044  0.1149
 8287W        W51199   1.485   9.865  25.109 -0.0029  0.0266  0.0449
 8288W        W51200   1.733  10.673  27.725 -0.1109 -0.0712  0.1682
 8289W        W51201  33.995  10.376  25.799 -0.4739  0.2464  0.1480
 8290W        W51202   0.511  12.351  25.845 -0.0621 -0.0835  0.0070
 8291W        W51203   0.955   9.425  23.705 -0.1521 -0.3578 -0.1369
 8292W        W51204   0.615   9.784  23.834  0.3549 -0.2066 -0.0691
 8293W        W51205   2.467   9.896  25.865 -0.0944 -0.0152  0.1699
 8294W        W51206   1.221   7.668  24.142  0.0708  0.0202 -0.2337
 8295W        W51207   0.742  10.373  25.183  0.1075 -0.4463  0.2139
 8296W        W51208  34.497  10.555  22.841  0.0887 -0.0539  0.1731
 8297W        W51209   1.585   9.742  24.666 -0.1083 -0.1857  0.2520
 8298W        W51210  34.284  11.555  25.065 -0.0224 -0.2042 -0.2399
 8299W        W51211   2.238  10.096  26.363 -0.2887 -0.4905 -0.0635
 8300W        W51212   2.565   8.182  25.212  0.2809 -0.2895  0.3193
 8301W        W51213   3.254   8.819  24.213  0.0586 -0.0012 -0.1732
 8302W        W51214   4.602   7.636  24.852  0.1178 -0.1120  0.0602
 8303W        W51215   2.317  10.037  27.546  0.0629 -0.0369 -0.0219
 8304W        W51216   0.525   8.785  26.662  0.2388  0.0243 -0.2959
 8305W        W51217   1.502   7.166  23.884 -0.3088 -0.3049  0.2953
 8306W        W51218   0.780   9.678  26.677  0.1446 -0.2554  0.2707
 8307W        W51219   3.728   6.706  27.261 -0.0395 -0.0876 -0.2089
 8308W        W51220   0.128   9.870  27.524  0.1226 -0.1537  0.0747
 8309W        W51221   1.856  11.392  24.904 -0.3237  0.3030  0.1269
 8310W        W51222  34.336   9.445  23.868  0.2321 -0.5337 -0.1911
 8311W        W51223   0.780   9.138  25.732  0.0550 -0.1628  0.0764
 8312W        W51224   3.200   7.431  26.594 -0.4096  0.1562 -0.0134
 8313W        W51225   1.961   9.914  23.010 -0.1554  0.3868  0.0980
 8314W        W51226   1.692   8.563  26.202 -0.1068  0.1011 -0.0736
 8315W        W51227   1.169  11.606  25.873 -0.0454  0.0589 -0.0620
 8316W        W51228   0.864   9.121  26.584 -0.1231  0.0748 -0.1399
 8317W        W51229   1.801  10.769  26.357  0.1009  0.0578  0.2391
 8318W        W51230   0.470   7.934  24.161  0.1138  0.0085  0.2102
 8319W        W51231   3.503   8.309  25.096 -0.1735  0.4587  0.2074
 8320W        W51232   1.025   8.588  27.613  0.0404 -0.1243 -0.1365
 8321W        W51233   3.609   6.565  27.821  0.0853 -0.2554 -0.1417
 8322W        W51234   0.397   8.242  25.721 -0.1320 -0.2653  0.0366
 8323W        W51235   2.887   8.477  24.698  0.0500 -0.0591  0.3840
 8324W        W51236   2.052   9.095  25.707  0.2439  0.2488 -0.1204
 8325W        W51237   0.862   7.792  26.324 -0.1911 -0.2269  0.1223
 8326W        W51238   2.136   8.591  25.927  0.0591 -0.1411 -0.1061
 8327W        W51239   3.258   9.485  26.367  0.1554  0.2426 -0.0462
 8328W        W51240   2.521   9.032  23.145 -0.3101  0.0079  0.1441
 8329W        W51241   2.823  10.824  25.928  0.1549  0.1950  0.1758
 8330W        W51242  34.554   7.684  25.563 -0.0728  0.1211 -0.2203
 8331W        W51243   1.544   7.516  25.687 -0.0626  0.3157  0.4048
 8332W        W51244   0.589  10.142  25.716 -0.4313 -0.0161 -0.1545
 8333W        W51245   1.835   7.968  25.970 -0.1791  0.1122  0.4449
 8334W        W51246   4.182   9.380  26.512  0.1660 -0.3010 -0.1087
 8335W        W51247  34.593   8.554  25.401  0.3667  0.2073  0.1415
 8336W        W51248   2.462   8.227  23.012  0.0475 -0.1110  0.2437
 8337W        W51249   2.552   7.353  26.754  0.2017 -0.2081  0.0406
 8338W        W51250   1.214   9.282  24.576  0.1491  0.1861  0.0054
 8339W        W51251   2.305  10.017  23.974 -0.3564  0.2438  0.0089
 8340W        W51252   2.628  10.543  25.006  0.0483  0.4018 -0.1569
 8341W        W51253  34.318   8.230  26.499  0.1555  0.0740 -0.0325
 8342W        W51254   2.467   9.560  26.697  0.3400  0.1457  0.2544
 8343W        W51255   3.872   8.454  25.379  0.1517  0.3237 -0.2032
 8344W        W51256   1.974   7.466  24.768 -0.3253 -0.1958  0.0914
 8345W        W51257  34.264   8.396  25.747 -0.1526  0.0343 -0.0943
 8346W        W51258   0.358  11.939  25.257  0.5140  0.0472 -0.0139
 8347W        W51259   3.351   8.521  26.560 -0.0220  0.1093 -0.0352
 8348W        W51260   3.131   9.069  27.221  0.0706 -0.0331 -0.0376
 8349W        W51261   1.572  10.504  23.971 -0.1989 -0.0482  0.2207
 8350W        W51262   2.845   6.688  28.724 -0.2430 -0.1854 -0.3678
 8351W        W51263   1.529   9.437  26.230  0.0055  0.2672 -0.0569
 8352W        W51264   2.106   9.907  26.792 -0.1170 -0.2339 -0.1244
 8353W        W51265   0.125   9.571  23.767  0.3100  0.0676  0.2006
 8354W        W51266  34.557   7.399  25.943 -0.2186 -0.1039 -0.4501
 8355W        W51267   0.946  10.603  25.615 -0.0737  0.0056 -0.0631
 8356W        W51268   0.916  11.408  25.523  0.3703  0.1218  0.2200
 8357W        W51269   3.141  10.062  25.523  0.0160  0.3333  0.1046
 8358W        W51270   0.262   9.397  25.432  0.0548 -0.1551  0.1384
 8359W        W51271   3.844  11.104  24.565  0.1355 -0.0988 -0.1396
 8360W        W51272  34.644   8.090  26.004 -0.0292 -0.1269  0.1085
 8361W        W51273   3.699   8.855  24.969 -0.2111 -0.0326  0.1035
 8362W        W51274   2.262   7.357  25.200  0.0060 -0.1846  0.3247
 8363W        W51275   0.861   8.707  27.064 -0.0298  0.1498 -0.1257
 8364W        W51276  33.772   9.435  23.298 -0.0236  0.2025 -0.1648
 8365W        W51277  34.463   9.960  23.811  0.1196 -0.1202 -0.3981
 8366W        W51278  33.957   9.970  25.996 -0.2212  0.3254  0.2446
 8367W        W51279   0.880   5.979  28.387  0.0377 -0.2358  0.1742
 8368W        W51280  33.991   8.260  27.465 -0.0790 -0.0807 -0.1499
 8369W        W51281   0.717  10.363  26.542 -0.2984 -0.1105  0.2096
 8370W        W51282   1.556   6.971  25.780  0.3495  0.1394 -0.2113
 8371W        W51283   2.143   9.475  23.700  0.0810 -0.1197 -0.3062
 8372W        W51284   0.650   7.352  27.324 -0.5234 -0.0155 -0.0255
 8373W        W51285  33.050   7.326  25.544 -0.0790 -0.0391 -0.0934
 8374W        W51286   2.197   9.450  23.204 -0.0725 -0.0289  0.1186
 8375W        W51287   3.148  10.406  26.177  0.1793  0.1591 -0.0808
 8376W        W51288   1.094   7.165  24.664  0.0825  0.0007  0.2188
 8377W        W51289   3.167  10.965  27.003 -0.4526 -0.0717  0.1110
 8378W        W51290  34.271   9.670  23.345 -0.0819 -0.0332  0.1839
 8379W        W51291   2.570   8.243  28.753  0.0647  0.0905 -0.4759
 8380W        W51292   1.964   8.914  27.440  0.0553 -0.3846  0.3572
 8381W        W51293  33.956   7.512  22.333  0.1805  0.1461 -0.1470
 8382W        W51294   2.618   7.764  25.459  0.0516  0.2089 -0.0885
 8383W        W51295   2.413   9.461  25.662 -0.0288  0.0580 -0.1500
 8384W        W51296   2.036  10.075  24.428 -0.0750 -0.1277 -0.2107
 8385W        W51297   1.129   9.110  26.161  0.4107  0.0995  0.1084
 8386W        W51298   1.853   9.727  27.809  0.3802 -0.0415  0.0560
 8387W        W51299  34.157   8.212  26.988  0.0290 -0.1674 -0.1199
 8388W        W51300   1.950   9.184  24.295 -0.3902 -0.4173 -0.0389
 8389W        W51301   1.647  10.620  28.232 -0.1996 -0.2802 -0.4611
 8390W        W51302   1.317  10.793  24.718 -0.2121  0.1042 -0.0063
 8391W        W51303   4.005   7.349  26.047  0.0790  0.0382  0.1849
 8392W        W51304   2.283   8.640  25.420  0.0872  0.2200 -0.0331
 8393W        W51305  33.730   7.156  27.636  0.0207 -0.1361  0.2293
 8394W        W51306   0.493  10.288  27.333  0.0313 -0.1329 -0.1893
 8395W        W51307   3.771   8.455  26.222 -0.2867  0.1496 -0.1311
 8396W        W51308  34.613   7.379  26.582 -0.1140 -0.3194 -0.2716
 8397W        W51309   2.347   7.716  26.061 -0.2777  0.0633 -0.2034
 8398W        W51310   2.502   9.542  24.034 -0.0503  0.2631 -0.0644
 8399W        W51311   0.037   8.629  25.899  0.2874 -0.1199 -0.0575
 8400W        W51312   2.075   8.172  25.552  0.2285  0.1340 -0.1619
 8401W        W51313   2.293   9.546  26.206 -0.3061  0.4045  0.1845
 8402W        W51314   1.625   9.113  25.394  0.0798 -0.0968  0.4629
 8403W        W51315   2.260   9.319  27.150  0.2158 -0.3517 -0.0117
 8404W        W51316  34.680   9.933  25.056  0.2353 -0.1383 -0.0133
 8405W        W51317   3.598  10.096  24.854 -0.1124 -0.1321  0.1636
 8406W        W51318   2.575   8.571  26.703  0.1496 -0.2792  0.1060
 8407W        W51319   5.105  11.885  27.708  0.1609 -0.0384 -0.1993
 8408W        W51320   1.721  10.212  27.538 -0.0208 -0.0454 -0.1045
 8409W        W51321   3.615   9.039  26.346 -0.2524  0.0217  0.3011
 8410W        W51322  34.196   6.056  28.995  0.0779 -0.0680  0.1630
 8411W        W51323   0.991   8.699  24.781 -0.0744 -0.0868 -0.1860
 8412W        W51324   0.020   9.684  26.033  0.0463 -0.0236 -0.1954
 8413W        W51325   2.710   7.668  26.406 -0.1818  0.0101  0.1686
 8414W        W51326   1.269   8.404  25.877 -0.0877 -0.0603 -0.4388
 8415W        W51327   2.172   8.560  24.940 -0.1392 -0.2023  0.1516
 8416W        W51328   1.047   9.619  27.092 -0.2818  0.2085 -0.0577
 8417W        W51329   1.114   9.510  25.857  0.0755  0.2276  0.1042
 8418W        W51330   2.463   9.415  30.280  0.0881  0.0199  0.1629
 8419W        W51331   0.957   9.066  29.141  0.0401 -0.2064 -0.2350
 8420W        W51332   2.061   8.694  26.580 -0.3785  0.0896  0.0176
 8421W        W51333   3.369   9.340  29.183  0.2009  0.0403  0.1490
 8422W        W51334  34.305   6.828  29.675 -0.1323  0.0061  0.1897
 8423W        W51335   3.403  11.216  28.406  0.0470 -0.0599  0.0559
 8424W        W51336   0.829   7.488  29.953  0.0152  0.1376  0.1981
 8425W        W51337   2.770  10.263  29.472 -0.1073 -0.1225 -0.0535
 8426W        W51338   3.350  10.772  28.757 -0.6062 -0.2915 -0.1480
 8427W        W51339   2.005   9.238  27.869  0.2801 -0.1741  0.0567
 8428W        W51340   2.818   9.394  29.844 -0.3959 -0.0224 -0.1607
 8429W        W51341   1.099  10.645  30.730  0.2563  0.0633  0.0517
 8430W        W51342   1.931   7.177  27.731  0.0505  0.1782  0.0536
 8431W        W51343   0.317   6.782  31.058  0.1755 -0.0654  0.1305
 8432W        W51344   2.328   9.362  31.647 -0.1842  0.0255 -0.0820
 8433W        W51345  32.937   8.676  29.534  0.2015  0.1682 -0.0241
 8434W        W51346   1.038  10.342  29.871  0.0722  0.2916 -0.2015
 8435W        W51347   1.393   8.629  28.553  0.1123 -0.0710  0.2717
 8436W        W51348   2.551  11.271  29.260 -0.0655 -0.1265 -0.1786
 8437W        W51349   2.759   8.646  30.404  0.1160  0.1954  0.0317
 8438W        W51350   3.480   7.700  31.176 -0.0930 -0.1712 -0.0506
 8439W        W51351   2.066  11.382  28.578  0.4450  0.0982  0.0918
 8440W        W51352  34.077   8.501  27.887  0.0276  0.2139 -0.1593
 8441W        W51353   0.651   8.535  29.013  0.0652 -0.2720  0.0952
 8442W        W51354   1.636   9.363  29.779 -0.1930  0.3286 -0.0306
 8443W        W51355   3.008   8.372  30.005 -0.2474 -0.2335  0.1207
 8444W        W51356   2.167   8.718  29.673  0.1603 -0.0374  0.1489
 8445W        W51357   2.777  11.394  28.714 -0.0202 -0.0993  0.0922
 8446W        W51358   3.009  10.984  29.497 -0.3049  0.1065 -0.0805
 8447W        W51359   3.509   6.941  30.892  0.1048 -0.3996  0.1085
 8448W        W51360   0.082   9.577  28.969  0.0890  0.1324 -0.0349
 8449W        W51361   0.931   9.967  27.545 -0.2171  0.3716  0.2691
 8450W        W51362   1.462  10.672  28.747  0.0759  0.0346  0.0500
 8451W        W51363   2.922   9.956  27.401 -0.3301 -0.0125 -0.1214
 8452W        W51364   4.031   9.694  30.056  0.2387  0.0021  0.3114
 8453W        W51365   0.706  11.564  31.389 -0.0911  0.1101 -0.3177
 8454W        W51366   0.740   9.878  28.687  0.1785  0.1208 -0.1822
 8455W        W51367   1.589   9.836  30.718 -0.2240  0.0519 -0.1344
 8456W        W51368   0.570  10.424  29.494  0.0056  0.1743  0.0933
 8457W        W51369   2.056   9.132  29.411 -0.1665 -0.0412  0.3510
 8458W        W51370   2.271  10.124  28.635 -0.4499 -0.1172  0.0126
 8459W        W51371   1.905   9.258  28.415 -0.2811 -0.3211 -0.1318
 8460W        W51372   2.143   9.245  29.898  0.0625  0.2385  0.0254
 8461W        W51373   1.355   8.811  31.273  0.3026  0.0747 -0.0699
 8462W        W51374   0.760   9.620  29.940 -0.2412  0.0416 -0.0180
 8463W        W51375   4.529   8.127  31.650 -0.4113  0.0419 -0.1543
 8464W        W51376   0.598  10.316  28.946  0.0956 -0.2382  0.0222
 8465W        W51377   2.357   7.640  28.327 -0.0535  0.0022  0.0500
 8466W        W51378   1.266   7.425  28.401 -0.0904  0.1036 -0.1817
 8467W        W51379   1.916   7.634  28.091  0.2473  0.1898 -0.1865
 8468W        W51380   0.808   8.222  29.658  0.1777 -0.0240  0.0602
 8469W        W51381   1.956  11.660  28.190 -0.0172 -0.3640  0.0031
 8470W        W51382   1.012   7.892  30.155  0.0085  0.0361 -0.1649
 8471W        W51383   3.927   9.546  29.197 -0.1182  0.0056 -0.2861
 8472W        W51384   1.284   8.172  28.766 -0.1984  0.1366 -0.2807
 8473W        W51385   1.763   8.018  29.508 -0.1290 -0.1933  0.0088
 8474W        W51386   3.248  11.642  28.961  0.0299  0.0429 -0.1115
 8475W        W51387  34.412   8.454  29.201  0.1698  0.1366  0.2618
 8476W        W51388   3.124  10.930  26.454 -0.0146  0.2328 -0.5061
 8477W        W51389   3.847  10.991  30.084 -0.3347  0.0239 -0.2716
 8478W        W51390   2.949   9.614  26.830  0.1170 -0.0271  0.1285
 8479W        W51391   0.857   8.037  29.121  0.0578  0.0376  0.1070
 8480W        W51392   0.426   8.622   0.940  0.1303 -0.1696  0.2084
 8481W        W51393   0.259   9.514  30.161 -0.0653 -0.1257 -0.1239
 8482W        W51394   1.037   8.126  27.774  0.0918  0.0021  0.1321
 8483W        W51395   4.572   8.428  30.878 -0.1507 -0.0148  0.0942
 8484W        W51396   0.360   9.705   0.926 -0.1903  0.1135  0.0806
 8485W        W51397   3.580   7.796  29.561 -0.0261 -0.0982  0.1689
 8486W        W51398   1.539  10.381  29.800 -0.1095  0.0611  0.1214
 8487W        W51399   2.203   9.578  29.418  0.0246 -0.2783 -0.1854
 8488W        W51400   2.820   9.482  25.944 -0.3204  0.0631 -0.2080
 8489W        W51401   2.886   6.453  31.333 -0.1018 -0.0850 -0.0362
 8490W        W51402   2.545   6.102  30.483  0.0784 -0.3288 -0.3316
 8491W        W51403   0.282   9.733  26.563  0.0495  0.1919 -0.4269
 8492W        W51404   1.535   9.116  29.373  0.2222 -0.0749  0.0954
 8493W        W51405   2.903   9.854  30.023 -0.1929 -0.2063  0.1199
 8494W        W51406   3.102   7.708  27.975  0.0793 -0.1874 -0.4725
 8495W        W51407   1.427  12.081  28.210 -0.1870  0.2221 -0.0558
 8496W        W51408   1.981   8.121  30.431 -0.1211 -0.1073 -0.0292
 8497W        W51409   1.917  10.813  31.872  0.0328  0.0381 -0.1062
 8498W        W51410   0.351   9.300  27.518 -0.1125  0.1762  0.1604
 8499W        W51411  33.963  10.077  28.761 -0.0067 -0.1658 -0.1461
 8500W        W51412  34.629   9.127  28.708  0.0551  0.1767 -0.0978
 8501W        W51413   0.093   6.521  30.544 -0.0703 -0.0985  0.0326
 8502W        W51414   2.478  11.202  30.275 -0.1719  0.1117 -0.2597
 8503W        W51415   4.223   7.858  28.323  0.0405 -0.1564  0.1872
 8504W        W51416   0.561   6.873  30.048 -0.1874 -0.0353 -0.2241
 8505W        W51417   2.358   7.370  29.743 -0.0465 -0.0898 -0.2705
 8506W        W51418   1.391   9.075  28.851  0.2334 -0.2841 -0.1028
 8507W        W51419   3.319   9.924  28.686  0.4295  0.0617  0.0179
 8508W        W51420   4.061   8.901  27.345 -0.2487 -0.0802  0.0725
 8509W        W51421   4.731  11.648  27.939  0.2330 -0.0885 -0.0652
 8510W        W51422   0.712   8.315  30.206  0.0496  0.0400  0.0900
 8511W        W51423   1.337   8.177  29.315  0.2611 -0.0932 -0.1732
 8512W        W51424   1.550   8.292  31.318  0.1242 -0.0599 -0.2702
 8513W        W51425  34.426   7.401  30.294  0.1346  0.2049  0.4229
 8514W        W51426   4.065   8.300  29.750  0.2183 -0.1050  0.1732
 8515W        W51427  34.573   6.928  29.231  0.1001  0.0626 -0.0966
 8516W        W51428   2.226   7.604  30.326 -0.3823  0.0001 -0.3358
 8517W        W51429   2.499   9.110  28.555 -0.0228  0.1336  0.2430
 8518W        W51430  34.469   8.628  28.679 -0.2618  0.0943 -0.2354
 8519W        W51431   3.985   7.811  30.941 -0.1889 -0.1168  0.1857
 8520W        W51432   3.408  11.834  29.375 -0.1495  0.0846 -0.0151
 8521W        W51433   3.780  10.807  31.569  0.2434  0.1718 -0.0610
 8522W        W51434   2.169  11.283  29.630  0.1141 -0.0988 -0.1219
 8523W        W51435   1.846   6.589  29.478 -0.1298  0.1182 -0.2749
 8524W        W51436   0.376   7.105  29.262 -0.1080 -0.1720 -0.4190
 8525W        W51437   0.133  10.445  29.152  0.1808  0.2388 -0.2139
 8526W        W51438   0.954   8.173  30.659 -0.0929  0.0183  0.0650
 8527W        W51439   1.219   8.980  28.239  0.3744  0.0361  0.1649
 8528W        W51440   3.909  10.873  28.950 -0.1001  0.0274  0.1192
 8529W        W51441   1.844   9.929  29.735  0.0097 -0.0041 -0.0188
 8530W        W51442   0.563  10.122  30.018  0.1996  0.1235  0.0660
 8531W        W51443   3.253   7.397  30.840 -0.0758 -0.1921  0.0244
 8532W        W51444   3.755   7.280  29.850  0.1233 -0.2460  0.3815
 8533W        W51445   3.006   8.797  29.482 -0.2886 -0.2229  0.2204
 8534W        W51446  34.504   7.642  28.904  0.0896 -0.1205 -0.1823
 8535W        W51447   2.921  11.921  29.956  0.0822  0.0929  0.0791
 8536W        W51448   0.363   9.941  28.294  0.0530 -0.1145 -0.1225
 8537W        W51449  33.227   8.135  28.318 -0.1103 -0.0634  0.2143
 8538W        W51450   2.784  10.443  28.128 -0.1013 -0.2724  0.0006
 8539W        W51451   4.183   8.981  30.520 -0.0041  0.0832 -0.3396
 8540W        W51452   0.886   8.020   0.854 -0.0804  0.1892 -0.0902
 8541W        W51453   2.280   8.685  31.107 -0.1348  0.3981  0.0939
 8542W        W51454   1.045   9.471  28.752 -0.4559  0.0237  0.4050
 8543W        W51455  34.618   9.408  31.853 -0.0733  0.1269  0.0523
 8544W        W51456   2.082   7.012  29.293 -0.1418  0.0697  0.2636
 8545W        W51457   3.599   7.035  27.618 -0.0766 -0.1218 -0.3031
 8546W        W51458   3.073   9.580  31.041  0.0765  0.0923 -0.0982
 8547W        W51459   2.286   9.490  28.164  0.3666  0.1331  0.3224
 8548W        W51460   2.762   9.488  27.253 -0.2568 -0.0907 -0.0974
 8549W        W51461   2.559   7.912  27.977 -0.1522 -0.3129  0.2065
 8550W        W51462  34.612   9.755   0.707 -0.1513 -0.3059 -0.0680
 8551W        W51463   0.827  10.792  29.698  0.0135 -0.0037 -0.3740
 8552W        W51464   1.376  10.445  30.346  0.5084 -0.1012  0.5525
 8553W        W51465   1.553   8.592  27.847 -0.0443 -0.4450  0.4110
 8554W        W51466   3.159  10.762  27.877  0.0642 -0.0182  0.1954
 8555W        W51467  34.666   9.179  30.404 -0.2378  0.3287  0.2472
 8556W        W51468   2.411   9.970  30.856 -0.2245 -0.2743 -0.0037
 8557W        W51469   2.616  10.506  28.582 -0.2676 -0.2098  0.0041
 8558W        W51470   1.948   8.895  30.199  0.1130  0.3207  0.2823
 8559W        W51471   0.835   8.394  28.545 -0.0729 -0.0709 -0.2496
 8560W        W51472   2.122   7.906  29.941  0.0459 -0.2242  0.1172
 8561W        W51473  34.520  11.278  27.939 -0.1030  0.0850 -0.3047
 8562W        W51474   3.022   8.204  29.529  0.1612  0.3108  0.0918
 8563W        W51475   1.700   8.844  28.226  0.2113 -0.0134 -0.0325
 8564W        W51476   2.342   8.401  30.675  0.2372  0.0306 -0.0401
 8565W        W51477   4.915   8.498  31.409  0.2824  0.3506  0.0093
 8566W        W51478   3.057   9.281  27.738 -0.0800  0.0748 -0.0408
 8567W        W51479   3.818   8.707  30.206  0.0329 -0.0890 -0.1427
 8568W        W51480   1.212   8.393  28.164  0.1304 -0.2667 -0.0793
 8569W        W51481   2.994   8.296  30.709  0.1603 -0.1932  0.2011
 8570W        W51482   1.615   9.372  30.964 -0.1886 -0.5062 -0.3913
 8571W        W51483   1.855  10.206  30.160  0.0463  0.0912 -0.2072
 8572W        W51484   3.323  10.232  29.527 -0.0567 -0.1166  0.0891
 8573W        W51485   1.951   9.966  28.987 -0.3417 -0.0797  0.1225
 8574W        W51486   2.597   9.036  31.370 -0.1673 -0.0565 -0.0109
 8575W        W51487   2.207   8.247  29.073  0.3321  0.0356 -0.1131
 8576W        W51488   1.836  11.123  28.195  0.0865 -0.2325  0.1877
 8577W        W51489   1.178   9.857  28.412  0.2218  0.0492  0.3205
 8578W        W51490   1.893   6.947  28.681 -0.1013 -0.1863 -0.1642
 8579W        W51491   0.115  10.111  29.568 -0.1596  0.2561  0.0352
 8580W        W51492   1.969  10.242  28.006 -0.1598 -0.2065 -0.5218
 8581W        W51493   2.495   8.948  30.074  0.0762 -0.2042 -0.0086
 8582W        W51494   1.155  10.268  29.373 -0.1745  0.3281 -0.3866
 8583W        W51495   3.551   7.639  30.109 -0.3468  0.0108 -0.0767
 8584W        W51496   1.174  10.386  28.348 -0.2311  0.1641  0.0760
 8585W        W51497   0.949   7.165  28.756 -0.2433 -0.1890  0.1116
 8586W        W51498   0.110   8.242  28.390  0.1509  0.1941 -0.2804
 8587W        W51499   2.160   8.755  28.323  0.1844 -0.0124  0.0430
 8588W        W51500   4.212  10.187  28.602  0.0609  0.1101 -0.1261
 8589W        W51501   2.188   7.770  29.418 -0.0957 -0.1946 -0.1136
 8590W        W51502   1.380   8.578  29.576 -0.0903 -0.1224 -0.0343
 8591W        W51503  34.272  10.209  30.038  0.0242  0.2507 -0.5987
 8592W        W51504   2.275   8.906  30.593  0.0600 -0.0192 -0.1528
 8593W        W51505   3.330   8.686  28.427 -0.0882  0.0833 -0.0179
 8594W        W51506   3.425   8.648  29.813 -0.0684  0.1947  0.1147
 8595W        W51507   1.292   9.153  31.717  0.0315 -0.0767 -0.2485
 8596W        W51508  34.207   8.319  28.346  0.3983 -0.2996  0.0754
 8597W        W51509   3.687   9.404  29.602  0.1947 -0.0857  0.0351
 8598W        W51510   1.466   7.526  29.323 -0.0145 -0.2140  0.2379
 8599W        W51511   1.529   9.768  28.853 -0.0089  0.0339 -0.1770
 8600W        W51512   1.904  10.660  30.362 -0.0062  0.0631  0.2876
 8601W        W51513   0.013   8.931  28.281  0.0169  0.3811 -0.2147
 8602W        W51514   2.443  10.081  28.180 -0.1673 -0.0082 -0.1835
 8603W        W51515   1.699   8.643  31.632 -0.0583  0.1109 -0.2330
 8604W        W51516   2.989   8.866  29.975 -0.1064 -0.1046  0.0657
 8605W        W51517   1.691   8.303  28.347 -0.1097  0.1516  0.0851
 8606W        W51518   0.419   7.755  28.133  0.0260 -0.0991  0.0220
 8607W        W51519   1.781   8.394  28.846 -0.1002  0.2201  0.1431
 8608W        W51520   3.765   9.223  30.522  0.2106 -0.0905 -0.2129
 8609W        W51521   2.612   8.030  29.877 -0.0899 -0.0945 -0.2450
 8610W        W51522   1.775  10.273  30.780  0.1501  0.3749 -0.0980
 8611W        W51523   2.505   6.799  30.673  0.0958 -0.1994  0.0083
 8612W        W51524   4.064  10.461  29.078 -0.1374  0.2087  0.2021
 8613W        W51525   4.072   7.590  30.471  0.2130  0.1169 -0.0901
 8614W        W51526   0.650   9.215  27.002 -0.0351 -0.0041  0.2248
 8615W        W51527   0.771   7.664  30.974 -0.1632  0.1803 -0.4812
 8616W        W51528   0.880   9.429  29.513 -0.0147  0.1842 -0.0539
 8617W        W51529   0.804   9.296  30.344 -0.4606  0.1785 -0.2095
 8618W        W51530  34.310  10.216  29.536  0.1108  0.0951  0.0455
 8619W        W51531  33.893   8.726  29.164  0.1356  0.2232 -0.0462
 8620W        W51532   0.412   9.535  30.657  0.1709  0.0521 -0.0066
 8621W        W51533   2.888   7.766  28.901  0.0395 -0.1922  0.2346
 8622W        W51534   2.782   9.140  26.891  0.1040 -0.0744  0.0550
 8623W        W51535   1.356   8.215  29.847  0.2275  0.3754 -0.0215
 8624W        W51536   3.736   8.627  30.696  0.3541 -0.2228  0.0239
 8625W        W51537   2.818  11.176  28.176  0.4561 -0.1473 -0.0402
 8626W        W51538   3.359   8.193  31.286  0.2023 -0.3659  0.0044
 8627W        W51539   2.647   8.495  29.688 -0.4086  0.1316 -0.1802
 8628W        W51540   3.131   9.134  28.616 -0.4366 -0.3642 -0.4292
 8629W        W51541   0.576   9.126  29.840 -0.0791  0.1978 -0.0255
 8630W        W51542   2.622   9.372   0.368  0.1701  0.0613 -0.2367
 8631W        W51543  34.232   8.437  31.647  0.1543 -0.0145 -0.3472
 8632W        W51544   1.945   7.474  29.135  0.2050 -0.2175  0.0331
 8633W        W51545   0.450   8.000  28.637  0.0085  0.2394  0.0941
 8634W        W51546   2.080   9.855  30.510  0.2243 -0.1624  0.1275
 8635W        W51547   2.473   9.827  29.052  0.0032 -0.0219 -0.2118
 8636W        W51548   0.802   9.537  28.248  0.3579  0.1843 -0.0359
 8637W        W51549   3.221   9.188  29.624  0.0819 -0.1950 -0.3978
 8638W        W51550   0.541   9.224  31.127  0.2977  0.3525 -0.0602
 8639W        W51551   2.128   7.798  27.645  0.3900 -0.2982 -0.2713
 8640W        W51552   1.668   8.945  26.975 -0.2758 -0.0651  0.1592
 8641W        W51553   1.201   9.067  29.733  0.0863  0.1768 -0.0812
 8642W        W51554   1.886   9.289  30.553  0.0333 -0.2729  0.1756
 8643W        W51555   3.536   9.917  30.071  0.0402  0.2937 -0.0016
 8644W        W51556   3.110   7.887  29.917 -0.0420  0.3645 -0.0602
 8645W        W51557   3.345   7.957  30.429  0.2646 -0.0278 -0.3742
 8646W        W51558   3.681   9.607  30.885 -0.0211  0.2045  0.1952
 8647W        W51559   1.997   9.827  31.038  0.1806  0.0381 -0.0448
 8648W        W51560   2.106   7.377  31.253 -0.2471  0.1432 -0.0183
 8649W        W51561   4.265  10.667  30.235  0.3207  0.0534 -0.1473
 8650W        W51562   3.912   7.549  27.534 -0.0296 -0.2083 -0.1642
 8651W        W51563   3.623   7.600  30.640 -0.1416  0.2028 -0.4620
 8652W        W51564   3.896   7.186  27.967 -0.1086  0.1287  0.0215
 8653W        W51565   3.485   8.502  28.939  0.3286 -0.0097 -0.2223
 8654W        W51566   0.448   6.404  30.198  0.0802 -0.1570 -0.0456
 8655W        W51567   2.537   8.029  30.445  0.0945 -0.0246 -0.0338
 8656W        W51568   0.563   9.540  29.103 -0.1899  0.4450 -0.2223
 8657W        W51569   1.808   8.731  31.187 -0.1770 -0.0828  0.2037
 8658W        W51570   2.472  11.064  28.498 -0.2941 -0.2210 -0.0245
 8659W        W51571   3.667  10.629  30.609 -0.0119  0.1576 -0.0587
 8660W        W51572   2.646   7.950  29.285 -0.5458  0.0422 -0.2018
 8661W        W51573   0.409   8.183  29.387  0.1366  0.1031 -0.3883
 8662W        W51574   0.926  10.263  30.326  0.2849 -0.3303  0.2488
 8663W        W51575  34.642   8.775  26.793 -0.3090 -0.1172  0.1010
 8664W        W51576   1.526   9.317  27.463  0.1200  0.2110  0.2365
 8665W        W51577   2.675   9.779  29.544  0.2538 -0.1033  0.0585
 8666W        W51578   3.136   9.459   0.486 -0.2297 -0.1129 -0.1039
 8667W        W51579   2.302   7.160  28.876 -0.3786  0.1782 -0.2128
 8668W        W51580   5.146   7.546  30.282 -0.3356  0.0080  0.3129
 8669W        W51581   2.249  11.032  28.936 -0.2856 -0.1399  0.0182
 8670W        W51582   3.309   6.722  28.929 -0.0052  0.1585  0.1129
 8671W        W51583  33.779  10.523  29.549 -0.1066  0.1633  0.0917
 8672W        W51584   0.370   9.173  31.632 -0.1329 -0.1224  0.2132
 8673W        W51585   1.214  11.075  29.158 -0.0386 -0.3791 -0.4478
 8674W        W51586   2.632   7.361  30.570 -0.0785  0.1343 -0.1328
 8675W        W51587   1.815   8.609  29.307 -0.0731  0.1495 -0.2374
 8676W        W51588   1.261   9.820  29.565 -0.0327 -0.1226  0.0060
 8677W        W51589   3.708   9.147  30.030  0.1314 -0.3121  0.0416
 8678W        W51590   2.844   9.162  30.357  0.0714 -0.1720  0.1948
 8679W        W51591   1.721   8.888  29.793 -0.0514  0.0061 -0.0547
 8680W        W51592   2.502  10.293  31.231  0.0609  0.0079  0.1112
 8681W        W51593   4.161   9.227  29.860  0.2345  0.1228 -0.0204
 8682W        W51594   0.213  10.099  28.702 -0.0639  0.0590 -0.4549
 8683W        W51595  34.477   7.945  31.209  0.1464  0.2157 -0.1948
 8684W        W51596   1.789  10.073  31.610  0.0476 -0.0177  0.1546
 8685W        W51597   2.402   9.251  29.066 -0.0310 -0.0548  0.1469
 8686W        W51598   1.121   6.670  28.978 -0.2667 -0.0495 -0.1826
 8687W        W51599   3.372   9.253  26.773  0.0065 -0.0072 -0.0344
 8688W        W51600  32.938   9.814  31.479 -0.4043 -0.0229  0.0778
 8689W        W51601   0.934   8.645  29.951 -0.2770 -0.1647 -0.1167
 8690W        W51602   1.657   9.674  29.312  0.1202  0.3636  0.3493
 8691W        W51603   1.912  11.136  27.676 -0.3625  0.1751 -0.0994
 8692W        W51604   1.945   9.840  28.341 -0.1050 -0.1402  0.1224
 8693W        W51605   2.032  10.857  29.375 -0.0859  0.1666  0.0968
 8694W        W51606   1.156   7.901  28.265 -0.0002 -0.0223 -0.0279
 8695W        W51607  34.670  10.848  29.485 -0.2012  0.1638  0.0481
 8696W        W51608   0.061  10.357  27.721  0.2140 -0.1014 -0.1033
 8697W        W51609   2.865  10.833  27.422 -0.0033  0.0441  0.0185
 8698W        W51610   1.984  10.497  29.706 -0.2680 -0.0852 -0.1076
 8699W        W51611   4.360   9.999   0.516 -0.0555 -0.0755 -0.0171
 8700W        W51612   3.023   7.176  27.693  0.2222 -0.0998  0.1302
 8701W        W51613   3.349  10.335  28.966  0.3559  0.0582  0.0072
 8702W        W51614   3.447   8.003  28.629  0.0559  0.0037 -0.1584
 8703W        W51615   1.847   9.547  31.529  0.1103 -0.0262 -0.0136
 8704W        W51616   1.820   8.567  30.529  0.2405  0.0547  0.0993
 8705W        W51617   1.993   8.314  27.521  0.0745 -0.0768  0.4251
 8706W        W51618   0.891   8.980  31.338 -0.2269  0.2737  0.0272
 8707W        W51619   3.051   7.853  30.821 -0.2863 -0.2154  0.0352
 8708W        W51620  34.207  11.653  31.936 -0.0271 -0.0451 -0.2188
 8709W        W51621   2.950   9.862  28.252  0.0748 -0.0094  0.3120
 8710W        W51622   0.887   8.657  29.454 -0.1528 -0.5317 -0.0601
 8711W        W51623   1.940   8.930  28.930 -0.0466  0.0684  0.1765
 8712W        W51624   3.070   7.581  30.345  0.0969  0.2063  0.2047
 8713W        W51625   1.446   8.788  27.399 -0.2826 -0.0516  0.1570
 8714W        W51626   2.343   6.307  29.442  0.1441  0.0415  0.0305
 8715W        W51627   2.013  11.309  26.952  0.7164  0.0274  0.2099
 8716W        W51628   1.669  10.219  28.493 -0.1903  0.1200  0.2425
 8717W        W51629   2.404  10.434  29.098 -0.0882 -0.0640 -0.0277
 8718W        W51630  34.699   8.783  29.915  0.2344 -0.0332 -0.0044
 8719W        W51631   4.021   8.115  28.731  0.2296  0.1390 -0.0672
 8720W        W51632   2.321   8.456  30.101  0.0265 -0.1604 -0.0754
 8721W        W51633   3.409   8.432  30.410  0.0465  0.0745 -0.0855
 8722W        W51634   1.428   9.464  28.490  0.1479  0.1753  0.1166
 8723W        W51635   3.609   8.123  29.955 -0.5643 -0.0014 -0.0988
 8724W        W51636   1.362   9.988  30.186 -0.0877  0.1499  0.1154
 8725W        W51637   1.259   7.760  30.639 -0.1047 -0.1605 -0.1464
 8726W        W51638   1.150   7.771  27.424  0.0945  0.1839 -0.1632
 8727W        W51639   4.108   9.625  30.541  0.1911 -0.0516  0.2418
 8728W        W51640   2.325   9.549  27.620  0.2740  0.1651  0.0930
 8729W        W51641   2.854  10.159  30.835  0.0334 -0.1718 -0.0019
 8730W        W51642   0.030   7.448  29.491  0.0636  0.0871 -0.0298
 8731W        W51643   4.147   8.041  26.783  0.1097  0.3401 -0.2797
 8732W        W51644   1.017   9.763  29.108  0.3689  0.0008  0.2222
 8733W        W51645   1.748   9.638  30.219  0.2383  0.2076 -0.0866
 8734W        W51646   4.675   8.974  30.677  0.1506  0.0393 -0.1364
 8735W        W51647   1.012   5.379  29.350 -0.0273 -0.1199  0.1222
 8736W        W51648   4.056   8.750  26.580  0.0258  0.3158 -0.1441
 8737W        W51649   4.067   9.949  30.876 -0.0116 -0.0846 -0.1339
 8738W        W51650   1.310  11.242  27.876  0.0401 -0.1341 -0.3243
 8739W        W51651   2.887   9.388  29.312  0.4329  0.4173 -0.2444
 8740W        W51652   2.640  10.401  27.600 -0.0133 -0.2279 -0.2053
 8741W        W51653   0.498   7.880  30.052 -0.0787  0.0911 -0.3702
 8742W        W51654   2.793   9.658  30.616  0.1986 -0.4193  0.0083
 8743W        W51655   3.714  10.455  28.641  0.1784  0.2225 -0.0347
 8744W        W51656   2.755   7.378  28.652  0.1905  0.0653 -0.0437
 8745W        W51657   1.063   8.696  30.478 -0.2226 -0.0229  0.3166
 8746W        W51658   2.286   9.726  29.946 -0.0157 -0.0658 -0.1484
 8747W        W51659   3.804   8.623  28.393 -0.1395  0.0275  0.2673
 8748W        W51660   2.255   8.692  31.650 -0.0885 -0.0794  0.2526
 8749W        W51661   2.202  10.687  27.689  0.0450 -0.1671 -0.1591
 8750W        W51662   3.035   6.976  31.095  0.2955  0.0113 -0.4970
 8751W        W51663   1.495   9.968  31.208 -0.3195  0.0738 -0.3147
 8752W        W51664   1.716  10.404   0.050  0.0117 -0.1571 -0.1413
 8753W        W51665   0.327   8.644  28.564  0.1916 -0.0089  0.2074
 8754W        W51666   1.600   8.918  30.761  0.2081  0.0357 -0.0774
 8755W        W51667   2.613   8.945  28.056 -0.0241 -0.1576  0.3353
 8756W        W51668   2.935  10.864  28.519  0.2940  0.2070  0.2517
 8757W        W51669   2.882  10.515  29.069 -0.0232 -0.0341  0.1525
 8758W        W51670   1.130   7.614  28.890  0.1520 -0.1219  0.6126
 8759W        W51671   2.261  10.673  28.173 -0.0412  0.2493  0.0330
 8760W        W51672   2.238   8.249  29.570  0.1008 -0.1390 -0.1140
 8761W        W51673   3.064   8.300  28.680  0.4343  0.2001 -0.2133
 8762W        W51674   3.784   7.678  28.583 -0.0531  0.0030  0.0281
 8763W        W51675   1.228   9.551  30.016  0.0276  0.1421 -0.1917
 8764W        W51676  34.392   9.162  29.168  0.0582  0.0470  0.0013
 8765W        W51677   1.488  10.013  28.098  0.1609  0.1495  0.0221
 8766W        W51678  33.643   9.722  28.985 -0.1021 -0.0937 -0.0252
 8767W        W51679   3.204   7.984   0.169  0.0205  0.1132  0.3068
 8768W        W51680   1.074   8.183  31.431 -0.0378 -0.4935 -0.4042
 8769W        W51681  34.594   8.916  30.817  0.0266  0.0782  0.0858
 8770W        W51682   0.449   7.399  28.763 -0.1183  0.2728  0.1023
 8771W        W51683   3.279   9.593  27.291 -0.0177  0.0203  0.0308
 8772W        W51684   0.871   7.386  29.261 -0.1881  0.1509  0.1131
 8773W        W51685  33.986   7.752  30.706 -0.1834  0.1671 -0.0246
 8774W        W51686   2.719   9.717  27.821  0.0690 -0.3657 -0.3034
 8775W        W51687   2.814   8.433  29.149  0.0266 -0.0600  0.0522
 8776W        W51688   1.626   7.924  29.014  0.2761  0.1653 -0.0885
 8777W        W51689   2.962  10.446  31.446 -0.0911  0.0635  0.0897
 8778W        W51690  34.540   8.349  27.544  0.0779 -0.0350 -0.4903
 8779W        W51691   2.096   9.243  31.213 -0.2911 -0.0197  0.0673
 8780W        W51692   2.139   7.815  30.806  0.0706 -0.0391 -0.2160
 8781W        W51693   0.586   8.319  27.631  0.2845 -0.0035 -0.0020
 8782W        W51694   1.524   9.353  28.016  0.1119  0.1829 -0.1742
 8783W        W51695   3.615  11.984  28.906  0.0590 -0.0825 -0.1266
 8784W        W51696   2.442  11.612  28.244 -0.1300 -0.4187  0.0846
 8785W        W51697   0.356   9.952  29.197 -0.2964 -0.2707 -0.1930
 8786W        W51698   1.884  10.961  29.898 -0.0487  0.2192  0.1802
 8787W        W51699   0.343   7.219   0.605 -0.2153  0.0348 -0.0117
 8788W        W51700   2.335   8.675  28.766  0.3662 -0.1277  0.2236
 8789W        W51701   1.428  10.438  31.046  0.0932 -0.1233  0.2381
 8790W        W51702   2.435   9.651  28.603  0.0067 -0.1106 -0.0037
 8791W        W51703   4.350   8.738  30.019 -0.2957  0.0359 -0.1911
 8792W        W51704   2.417   8.741  29.258  0.0935  0.1554 -0.1139
 8793W        W51705   0.407   8.525  29.782 -0.1161  0.1150  0.0033
 8794W        W51706   1.705   9.082  31.492 -0.1325 -0.2207  0.3524
 8795W        W51707   4.694   8.508  30.428 -0.0757  0.0520  0.0564
 8796W        W51708   0.114   7.902  29.726 -0.0853 -0.1295  0.0428
 8797W        W51709   2.762   8.570  27.202  0.0106 -0.2436 -0.1569
 8798W        W51710   2.800   8.994  28.948  0.2530  0.1273  0.0423
 8799W        W51711   0.204   9.263  29.305  0.0645  0.0212  0.3140
 8800W        W51712   1.202   9.032  27.770  0.2957 -0.0853  0.0808
 8801W        W51713   3.212   9.712  29.611 -0.3386 -0.1985  0.1153
 8802W        W51714   0.724   9.971  29.539 -0.1570  0.2118 -0.0224
 8803W        W51715   1.822   8.404  29.937  0.0865  0.1290  0.0550
 8804W        W51716   1.193   8.584  29.053 -0.0191 -0.0353 -0.4748
 8805W        W51717   2.482   8.318  27.494  0.0339 -0.0455 -0.1559
 8806W        W51718   0.637  10.391  30.741  0.1699  0.0103  0.1455
 8807W        W51719   4.277  10.772  30.989  0.0998 -0.2965 -0.0986
 8808W        W51720   1.979  10.328  31.195 -0.2816 -0.0350 -0.1402
 8809W        W51721   3.281   9.419  30.044  0.0668  0.1968 -0.0669
 8810W        W51722  33.797   5.789  29.825 -0.1139 -0.2071 -0.1221
 8811W        W51723   0.306   9.621  29.626 -0.0161 -0.0289 -0.0938
 8812W        W51724   2.257  10.063  29.506  0.0899 -0.1896  0.1060
 8813W        W51725   3.892   8.787  29.711 -0.2726 -0.1870 -0.1609
 8814W        W51726   1.453   9.159  30.250  0.0078  0.0764  0.1190
 8815W        W51727   2.508   7.398  29.284 -0.3193 -0.0071  0.1015
 8816W        W51728   1.657  10.212  29.324  0.1953 -0.2090  0.3415
 8817W        W51729   2.558   9.101  29.529 -0.2629 -0.1467 -0.3132
 8818W        W51730   4.215   8.763  30.978 -0.2809 -0.0914  0.1395
 8819W        W51731   2.199   9.345   0.876  0.3438  0.0128  0.0874
 8820W        W51732   0.253   9.183   0.227 -0.0314  0.2888 -0.0699
 8821W        W51733   0.860   9.551  30.880  0.0132 -0.2051 -0.0741
 8822W        W51734   1.529  10.501  31.565  0.1220 -0.3327 -0.5604
 8823W        W51735   1.342   9.757  31.629 -0.0071 -0.0571  0.1274
 8824W        W51736   3.359   9.474  31.565 -0.4876  0.1014 -0.1714
 8825W        W51737   0.279   8.275  31.909 -0.0482  0.1403  0.1615
 8826W        W51738   2.854   8.720  31.764 -0.1098  0.0397 -0.1715
 8827W        W51739   3.628   8.277   1.233  0.0304 -0.0051  0.0028
 8828W        W51740   1.249   9.703   1.338 -0.4164 -0.2851 -0.1640
 8829W        W51741   2.827   7.622  31.858  0.3098  0.2458 -0.2744
 8830W        W51742   3.415  10.203  30.902 -0.0339  0.1036 -0.2412
 8831W        W51743   2.242   9.918  31.533  0.0649 -0.0501  0.0664
 8832W        W51744   3.705   8.564  31.256 -0.1013  0.0873 -0.1265
 8833W        W51745   0.620  11.066  31.431  0.1248 -0.0801  0.1895
 8834W        W51746   0.194   9.228   0.735 -0.3487  0.1400 -0.2672
 8835W        W51747   3.326  10.683  29.840 -0.3033 -0.1883  0.1170
 8836W        W51748   1.068   7.209  31.723 -0.2218 -0.2761  0.3303
 8837W        W51749   1.613   7.373  31.411 -0.0788  0.1487  0.2861
 8838W        W51750   0.561   7.843  31.385  0.1569  0.1247 -0.1846
 8839W        W51751  34.579  10.521  31.133 -0.0134 -0.0523 -0.3040
 8840W        W51752   3.788   7.831   0.053  0.2647  0.0532  0.1982
 8841W        W51753   3.265   8.599  30.997  0.1674  0.2562  0.0730
 8842W        W51754   2.916   7.906  31.300  0.0317  0.0087 -0.2598
 8843W        W51755   2.969   9.840   0.163  0.1180  0.0704 -0.0657
 8844W        W51756   1.191   9.363  31.292  0.2855 -0.2742 -0.0981
 8845W        W51757   0.398  10.495  31.141 -0.1204  0.1479 -0.0883
 8846W        W51758   2.000   7.209  30.688  0.1136  0.1496  0.0844
 8847W        W51759   1.234   9.497  30.558  0.0909  0.4244 -0.1895
 8848W        W51760   1.352  10.015   0.079  0.0632 -0.0452 -0.0180
 8849W        W51761   3.548   8.247  31.897  0.1859 -0.0637  0.2406
 8850W        W51762   3.254  10.097  31.711  0.2053 -0.1151 -0.0880
 8851W        W51763   4.087   8.197  31.873  0.0889  0.1420 -0.1882
 8852W        W51764   3.349   8.652  31.615  0.2024  0.2228  0.1048
 8853W        W51765   1.140   7.819  31.912  0.3707 -0.5776  0.1580
 8854W        W51766   0.347  10.074  30.464 -0.2816  0.0545 -0.0366
 8855W        W51767   2.074  10.022   0.071 -0.1075  0.3085 -0.0300
 8856W        W51768   3.330   9.545  30.529 -0.0542  0.2442  0.2308
 8857W        W51769   2.775   8.710  30.892  0.1024  0.2836  0.0472
 8858W        W51770   3.634   7.843   1.044  0.0260 -0.0440 -0.1487
 8859W        W51771   2.895   8.484  31.342  0.2612 -0.0447  0.0647
 8860W        W51772   1.735   7.652  30.451 -0.1293  0.1166 -0.4684
 8861W        W51773   2.001  11.057   0.356 -0.0386  0.2809 -0.1764
 8862W        W51774  34.432   8.995   0.123  0.1715 -0.2888 -0.2278
 8863W        W51775   0.571   8.701  31.648 -0.0387  0.1196  0.0841
 8864W        W51776   4.537   7.093  31.482 -0.3298 -0.2831  0.3607
 8865W        W51777   1.184   9.613   0.812  0.1284 -0.0554  0.1831
 8866W        W51778   4.748  10.016   0.871 -0.2100 -0.1712 -0.1326
 8867W        W51779   0.572  10.478  31.591 -0.0129 -0.1649  0.1266
 8868W        W51780   3.737   9.819  31.747 -0.1776  0.0180 -0.0853
 8869W        W51781   4.077   8.738   0.220 -0.1651  0.3041 -0.1987
 8870W        W51782   1.189   7.260  29.689 -0.3725 -0.2013  0.2585
 8871W        W51783   3.268  10.563  30.323  0.1953 -0.1184 -0.0487
 8872W        W51784   2.426   9.588  31.188 -0.1109 -0.4880  0.1015
 8873W        W51785   3.482   9.032  31.846  0.1669 -0.0582 -0.2749
 8874W        W51786   4.826   8.080  31.208 -0.0247 -0.1416  0.0687
 8875W        W51787   2.283  10.760  31.252 -0.1653 -0.0003  0.1140
 8876W        W51788   1.796  10.646   0.589  0.0905 -0.0710  0.0791
 8877W        W51789   0.323   9.291   2.281 -0.0727 -0.0208 -0.0813
 8878W        W51790  33.691   6.828   0.985 -0.1149 -0.2100  0.1785
 8879W        W51791   1.541   9.814   0.542 -0.1630  0.1212  0.3602
 8880W        W51792  34.162   9.928   0.695  0.0700  0.4039 -0.1664
 8881W        W51793   0.052   7.558  31.251  0.0719 -0.1900 -0.0968
 8882W        W51794   3.418   9.623   0.126  0.0228 -0.0767  0.0934
 8883W        W51795   3.856   9.248  31.628  0.0033  0.0653  0.0420
 8884W        W51796   3.581   8.102  30.876  0.2051  0.0772  0.0100
 8885W        W51797   2.054  14.705  19.188 -0.3613  0.1451 -0.1597
 8886W        W51798   0.379  11.359  19.231  0.0677  0.0179 -0.0370
 8887W        W51799   1.563  12.144  15.759 -0.1670  0.0257  0.1230
 8888W        W51800   1.581  12.132  16.377  0.0013 -0.0064 -0.1722
 8889W        W51801   0.302  11.330  16.779 -0.1758  0.0563 -0.2324
 8890W        W51802   2.802  14.227  18.377  0.0735  0.1372  0.1289
 8891W        W51803   0.646  10.667  19.777 -0.0804  0.1376  0.1956
 8892W        W51804   3.119  13.215  17.438  0.1647  0.0798 -0.2409
 8893W        W51805   3.921  12.674  18.272 -0.1844  0.0501 -0.0747
 8894W        W51806   0.150  12.637  16.579 -0.0028 -0.1532 -0.0413
 8895W        W51807   2.662  12.070  18.796  0.1829 -0.0714  0.2337
 8896W        W51808   1.317  14.236  19.428 -0.2366 -0.0243 -0.0910
 8897W        W51809   1.164  12.579  16.555  0.0101  0.0651 -0.0983
 8898W        W51810  34.250  10.123  18.674  0.1842  0.2205 -0.2843
 8899W        W51811   1.812  12.700  17.287 -0.1836 -0.1585 -0.0453
 8900W        W51812  33.628  12.272  17.770 -0.1890 -0.0652  0.1054
 8901W        W51813   1.390  12.452  18.037 -0.1199 -0.2507  0.2632
 8902W        W51814   0.703  12.240  16.436  0.2499  0.2046  0.1711
 8903W        W51815   0.408  13.888  17.139 -0.0343  0.3996 -0.0130
 8904W        W51816   1.614  12.962  20.046 -0.2907  0.0715 -0.3883
 8905W        W51817   2.465  11.177  20.848  0.0463  0.1360  0.1517
 8906W        W51818   1.671  13.376  17.059  0.2107  0.2452 -0.0356
 8907W        W51819  34.233  11.821  17.968 -0.4370 -0.2163  0.2373
 8908W        W51820  34.194  11.852  18.954 -0.0418  0.3572 -0.5165
 8909W        W51821   0.647  12.296  19.710 -0.0261 -0.0107 -0.1705
 8910W        W51822   1.913   9.036  17.196  0.1459  0.1376 -0.0921
 8911W        W51823   3.319  13.543  18.447  0.3214  0.0788  0.1498
 8912W        W51824   0.867  13.587  17.233  0.1209  0.1878 -0.0840
 8913W        W51825   1.893  12.913  16.314 -0.0941  0.1187 -0.1951
 8914W        W51826   2.518  12.061  17.006 -0.1800 -0.1336  0.0940
 8915W        W51827  34.214  13.219  17.947  0.0542  0.1573  0.3382
 8916W        W51828   0.025  13.004  17.850  0.0755 -0.0710  0.1222
 8917W        W51829  33.950  13.130  17.377  0.0229 -0.1374  0.0797
 8918W        W51830   2.648  12.749  16.741  0.0733  0.4567 -0.2814
 8919W        W51831   1.798  15.173  19.200  0.2890  0.2894 -0.0120
 8920W        W51832   0.912  14.762  18.159  0.2574  0.0937 -0.3129
 8921W        W51833   1.110  13.609  15.860  0.0978  0.0175  0.5210
 8922W        W51834   1.276  13.367  19.120  0.3643  0.0678  0.1972
 8923W        W51835   1.699  13.797  19.396 -0.0310  0.2067  0.5515
 8924W        W51836   1.832  13.368  19.888  0.0293  0.3731 -0.3148
 8925W        W51837   0.760  12.810  16.300  0.1775  0.0722 -0.0279
 8926W        W51838   2.238  13.245  16.308  0.0337  0.0690  0.0334
 8927W        W51839   1.850  14.149  18.392  0.3742  0.0417 -0.2619
 8928W        W51840   2.092  13.340  19.456 -0.0158 -0.0283  0.0414
 8929W        W51841  34.413  12.717  18.132  0.1231  0.1026 -0.2080
 8930W        W51842   3.155  11.690  18.830 -0.1671  0.0887 -0.0700
 8931W        W51843   0.538  13.716  15.872 -0.1310 -0.0903  0.0689
 8932W        W51844   2.172  12.461  16.992  0.2071  0.1357 -0.0761
 8933W        W51845  33.569  11.962  16.555 -0.2303  0.1282  0.2627
 8934W        W51846   1.776  12.520  16.595 -0.1976 -0.0730  0.0277
 8935W        W51847   1.754  10.374  17.686 -0.0045  0.1402  0.2435
 8936W        W51848   0.261  13.011  16.894 -0.0433 -0.1638  0.3786
 8937W        W51849   0.871  11.593  19.028  0.2673 -0.0070 -0.4681
 8938W        W51850   2.560  13.643  18.502  0.0496  0.0991  0.1027
 8939W        W51851   2.087  12.108  17.295  0.1720  0.2165 -0.3089
 8940W        W51852   2.245  12.059  18.499  0.1110 -0.5615 -0.3562
 8941W        W51853   0.804  14.274  17.966  0.3650 -0.2960  0.2120
 8942W        W51854  34.093  12.318  17.936  0.0327  0.1182 -0.0017
 8943W        W51855   2.159  14.440  16.471 -0.2949  0.1052 -0.0434
 8944W        W51856   3.137  15.027  19.042 -0.2533 -0.1229  0.0393
 8945W        W51857   2.259  13.585  16.778  0.2000  0.1917  0.3137
 8946W        W51858  33.703  12.616  19.122 -0.3466 -0.2383 -0.3421
 8947W        W51859   0.334  13.010  19.173 -0.1638 -0.0354 -0.1247
 8948W        W51860   0.868  12.557  20.477 -0.2287 -0.1687  0.0196
 8949W        W51861   1.052  11.069  15.979 -0.0333 -0.0489  0.3725
 8950W        W51862   2.582  12.837  19.954  0.0019  0.1807  0.1872
 8951W        W51863   0.501  13.987  19.445  0.4307 -0.0311 -0.0591
 8952W        W51864   3.033  12.215  17.265  0.1362  0.2663 -0.0052
 8953W        W51865   1.168  12.940  17.973  0.1400 -0.0289  0.2272
 8954W        W51866   3.447  13.937  18.038  0.0310  0.0676  0.0764
 8955W        W51867   1.509  12.632  16.187  0.1942  0.3436 -0.0876
 8956W        W51868   2.014  10.926  18.807 -0.0718 -0.0135  0.0502
 8957W        W51869   2.409  11.049  19.072 -0.1390 -0.1339 -0.2982
 8958W        W51870  33.599  11.473  16.440 -0.1316 -0.2453 -0.0942
 8959W        W51871   0.414  13.147  16.379  0.0095  0.2396  0.0848
 8960W        W51872   4.031  13.463  17.719  0.0941 -0.1566  0.1839
 8961W        W51873   2.022  12.107  15.730 -0.2014  0.0514 -0.4624
 8962W        W51874  33.736  15.021  19.301 -0.3711 -0.0940  0.2214
 8963W        W51875   0.689  10.903  17.625 -0.1292  0.0463 -0.0474
 8964W        W51876   1.793  13.487  18.986  0.1784  0.1855  0.1812
 8965W        W51877   0.068  15.277  16.113  0.0354  0.1072 -0.4364
 8966W        W51878  32.814  12.697  18.940 -0.2822 -0.0273 -0.3624
 8967W        W51879  34.212  13.214  16.280  0.1671 -0.1816 -0.0090
 8968W        W51880   0.456  10.459  18.408  0.2513  0.0520  0.3103
 8969W        W51881   0.951  13.517  18.660  0.2560  0.0362  0.1548
 8970W        W51882   1.969  12.402  16.112  0.0052 -0.3440 -0.1918
 8971W        W51883   1.099  12.112  19.798  0.0903  0.1303  0.0430
 8972W        W51884   2.963   9.949  18.731 -0.1242 -0.1052  0.2185
 8973W        W51885  34.686  13.360  17.058  0.1672  0.2933  0.0915
 8974W        W51886   2.855  14.633  17.502 -0.1963  0.1891  0.0162
 8975W        W51887   3.218  11.503  16.856 -0.1031  0.1094 -0.0122
 8976W        W51888   2.679  14.228  15.402 -0.0465  0.3555  0.2062
 8977W        W51889  34.354  12.191  18.474 -0.3217 -0.2146 -0.2879
 8978W        W51890   1.316  12.098  18.996  0.0192  0.0730  0.1629
 8979W        W51891   1.985  12.480  20.032  0.1422 -0.1803  0.0624
 8980W        W51892  34.091  10.365  19.141  0.4682 -0.4724  0.1041
 8981W        W51893   3.398  11.615  19.709  0.0132  0.0545  0.0765
 8982W        W51894  34.606   9.385  17.114 -0.1627 -0.0871 -0.0018
 8983W        W51895   1.100  11.268  17.766 -0.2916 -0.2036  0.1889
 8984W        W51896  34.422  12.859  17.191 -0.1948  0.1954 -0.0868
 8985W        W51897  33.805  12.789  17.912 -0.2190  0.1417 -0.1593
 8986W        W51898   3.514  12.138  20.358  0.1256  0.2399 -0.1155
 8987W        W51899   1.680  14.521  16.357  0.1377  0.0808 -0.3085
 8988W        W51900   1.843  14.298  19.451 -0.1681  0.1324  0.0177
 8989W        W51901   2.637  14.269  17.899  0.1508 -0.3475 -0.1459
 8990W        W51902   0.473  11.603  20.213  0.0824 -0.0586  0.0008
 8991W        W51903   0.446  10.551  16.515  0.2778  0.0712 -0.0558
 8992W        W51904   0.890  14.921  18.635  0.3182 -0.2048  0.2840
 8993W        W51905   1.183  12.435  18.561 -0.1618 -0.3024 -0.0282
 8994W        W51906   1.583  11.095  16.413 -0.0585 -0.3318  0.0699
 8995W        W51907   4.433  13.993  18.051 -0.0899 -0.0234  0.1478
 8996W        W51908  34.547  12.321  15.861 -0.0974  0.1573  0.1497
 8997W        W51909   0.175  13.278  20.586  0.0001 -0.1206 -0.0672
 8998W        W51910   2.227  10.393  19.102  0.1571 -0.0227 -0.0789
 8999W        W51911   2.633  11.386  19.406 -0.1540 -0.3283 -0.2850
 9000W        W51912   3.776  12.900  17.761  0.2224  0.2104  0.3264
 9001W        W51913   0.286  11.016  16.303  0.0170 -0.0086  0.0268
 9002W        W51914   2.330  14.797  18.703  0.0235  0.0627  0.1648
 9003W        W51915   1.044  13.479  16.413  0.0559 -0.2051  0.1524
 9004W        W51916  33.886  12.023  18.308  0.0189 -0.2346 -0.0301
 9005W        W51917   1.560  12.889  16.867  0.2132 -0.0927 -0.1508
 9006W        W51918   3.331  12.342  18.568  0.4937  0.0930  0.1970
 9007W        W51919   0.431  12.216  19.272  0.2380  0.0090 -0.1288
 9008W        W51920   2.889  11.137  17.939  0.2698  0.1622  0.2702
 9009W        W51921  34.674  12.538  17.513 -0.0267  0.1762  0.1604
 9010W        W51922  34.455  14.506  18.734  0.0384 -0.1372 -0.2482
 9011W        W51923   0.934  12.447  17.820  0.1643  0.1384  0.1450
 9012W        W51924   0.779  10.747  18.119 -0.0874 -0.3746 -0.1800
 9013W        W51925   2.441  12.754  18.843 -0.1192  0.0303  0.0468
 9014W        W51926   1.755  12.988  15.845 -0.1724 -0.0520 -0.0548
 9015W        W51927   1.132  11.891  15.973 -0.1933 -0.2097  0.1545
 9016W        W51928   1.918  11.431  16.577  0.0715 -0.1818 -0.3235
 9017W        W51929   2.324  14.886  19.667  0.1933 -0.0528 -0.0033
 9018W        W51930   1.440  13.312  16.072  0.2343 -0.2779 -0.0178
 9019W        W51931   2.126  12.246  18.983 -0.0362 -0.0026 -0.1271
 9020W        W51932   1.340  10.570  15.922  0.3032 -0.0786  0.1343
 9021W        W51933   2.668  14.971  16.350  0.0653  0.0113 -0.0052
 9022W        W51934  34.407  13.056  19.088 -0.0127  0.0649  0.0747
 9023W        W51935   0.996  12.980  20.693  0.1325 -0.1322  0.1090
 9024W        W51936   2.788  14.878  16.831  0.2919  0.0606 -0.2388
 9025W        W51937   1.310  12.927  19.261  0.0094 -0.0559  0.2344
 9026W        W51938  34.589  11.575  17.058 -0.4246 -0.2014 -0.3146
 9027W        W51939   1.746  12.773  17.816  0.0173  0.0433 -0.1360
 9028W        W51940  34.080  11.692  16.657 -0.2453 -0.2468  0.1343
 9029W        W51941   4.585  11.020  18.535  0.0633  0.1070  0.2093
 9030W        W51942   1.427   9.605  17.520 -0.2000 -0.1197  0.1168
 9031W        W51943   1.449  11.615  19.614  0.3109 -0.2507  0.1012
 9032W        W51944   2.232  11.710  19.035  0.1534  0.0830  0.0592
 9033W        W51945   1.564  11.635  18.143  0.1300  0.0261 -0.0920
 9034W        W51946   2.312  12.842  18.323  0.0349  0.0639  0.2685
 9035W        W51947  34.173  11.287  17.120 -0.0283  0.0112  0.0303
 9036W        W51948   1.585  12.640  19.686  0.1334  0.3943  0.1712
 9037W        W51949   0.201  12.212  18.568  0.2730 -0.0638 -0.3189
 9038W        W51950   0.183  11.720  17.955  0.3385 -0.0567  0.0944
 9039W        W51951   2.161  14.053  19.175 -0.1031  0.1936 -0.0900
 9040W        W51952   2.038  12.941  16.847  0.3400 -0.1913  0.1892
 9041W        W51953   2.957  10.976  19.319  0.2171  0.0899  0.0203
 9042W        W51954   1.020  12.417  16.081  0.0492 -0.1409 -0.0561
 9043W        W51955   0.533  15.247  17.355 -0.2287  0.5620  0.1661
 9044W        W51956   1.769  13.296  16.550  0.0196 -0.0321  0.0284
 9045W        W51957   1.892   9.914  17.567  0.1632 -0.1836  0.0011
 9046W        W51958   1.417  14.926  18.359  0.0402 -0.1252 -0.3524
 9047W        W51959   0.677  12.626  17.445 -0.1764  0.2373 -0.0776
 9048W        W51960   2.621  12.417  19.235  0.0913  0.1024 -0.1190
 9049W        W51961   0.492  12.132  17.153 -0.0512  0.0950 -0.2738
 9050W        W51962   1.758  12.103  19.860  0.3760  0.0894  0.3029
 9051W        W51963  32.929  12.423  18.337  0.0877  0.1140  0.0819
 9052W        W51964   0.045  11.246  17.369 -0.0510  0.2153  0.0842
 9053W        W51965   0.128  11.684  18.441 -0.0462 -0.0861 -0.1458
 9054W        W51966   1.704  12.301  17.615  0.4743  0.0631  0.1281
 9055W        W51967   2.848  13.921  16.124 -0.0730  0.1113  0.2269
 9056W        W51968   0.639  11.014  19.016  0.0864 -0.2249 -0.1530
 9057W        W51969   1.313  12.001  17.764 -0.0924  0.2901  0.1532
 9058W        W51970   0.449  13.439  18.950  0.0150  0.1935 -0.3123
 9059W        W51971   1.510  12.205  19.446  0.2711 -0.1450 -0.1977
 9060W        W51972   1.399  11.003  18.156  0.0812 -0.1276 -0.1325
 9061W        W51973   3.061  15.878  19.337  0.0277  0.0227 -0.1531
 9062W        W51974   1.230  12.961  19.736  0.1316 -0.0798  0.3175
 9063W        W51975   0.501  11.556  16.286  0.1611  0.1126 -0.0768
 9064W        W51976   2.578  12.422  18.442 -0.0230  0.2604 -0.0217
 9065W        W51977  33.960  12.759  16.891  0.2651  0.2378 -0.2697
 9066W        W51978  34.595  13.584  17.854  0.4347  0.0187 -0.0500
 9067W        W51979   2.147  13.773  18.765  0.0068  0.1856 -0.0113
 9068W        W51980  34.141  11.889  17.169 -0.0037  0.1939 -0.2328
 9069W        W51981  34.549  13.735  17.334  0.0764  0.1826 -0.0330
 9070W        W51982   1.962  11.634  19.555 -0.1634  0.0577 -0.2256
 9071W        W51983   2.655  13.836  19.374 -0.1731  0.2378  0.0081
 9072W        W51984   0.400  11.369  18.723  0.0351  0.2007  0.0217
 9073W        W51985   0.709  11.712  18.499  0.1373  0.2354  0.0734
 9074W        W51986  33.520  12.491  18.235  0.3161  0.1219  0.1060
 9075W        W51987   1.660  14.147  17.559 -0.1628 -0.1235 -0.1867
 9076W        W51988   2.747  10.926  18.666 -0.1784 -0.1536  0.2374
 9077W        W51989   0.492  13.013  20.903 -0.0394 -0.1797  0.0168
 9078W        W51990   1.826  11.328  19.203  0.3201  0.0559  0.2497
 9079W        W51991   3.542  16.058  16.613  0.2247  0.3959 -0.0305
 9080W        W51992   2.815  11.632  18.009  0.0711 -0.0824  0.0048
 9081W        W51993  33.738  12.673  17.408  0.1036  0.1088 -0.0406
 9082W        W51994  33.829  13.551  19.749 -0.1915  0.2274  0.1835
 9083W        W51995   0.990  13.401  17.710 -0.1683 -0.3050  0.0371
 9084W        W51996   0.411  11.370  17.709  0.1272 -0.0139  0.0123
 9085W        W51997  33.901  13.069  19.297 -0.0065  0.4927  0.1910
 9086W        W51998   0.753  13.106  17.260 -0.0082  0.2704  0.1265
 9087W        W51999   0.154  15.004  19.393  0.1015 -0.1084  0.0776
 9088W        W52000   1.678   9.638  16.003  0.0647  0.0925  0.0447
 9089W        W52001   2.173  12.501  17.602 -0.0820  0.0263  0.0304
 9090W        W52002  34.699  12.079  17.110  0.0068  0.0645 -0.3478
 9091W        W52003   4.577  11.537  18.518  0.0828 -0.1299  0.2017
 9092W        W52004   2.772  12.699  16.132  0.2565 -0.0951  0.3262
 9093W        W52005   2.463   9.660  19.318 -0.4261 -0.1655  0.1068
 9094W        W52006   0.399  11.854  18.886 -0.2212 -0.0698  0.2644
 9095W        W52007   2.396  13.301  18.105 -0.1482 -0.1040 -0.3139
 9096W        W52008  34.274  11.563  20.747 -0.0398 -0.1115  0.3281
 9097W        W52009   3.143  13.921  19.299 -0.2648  0.1607 -0.1725
 9098W        W52010  34.597  13.233  19.527 -0.0256 -0.0338 -0.0111
 9099W        W52011   1.563  11.002  15.918  0.3052  0.0613  0.2177
 9100W        W52012   0.855   9.556  16.555 -0.3300  0.0342 -0.1232
 9101W        W52013   0.925  12.089  19.311  0.3205 -0.2348  0.3633
 9102W        W52014   3.212  12.431  17.687  0.0929  0.0157 -0.0702
 9103W        W52015   1.455  12.394  16.963 -0.0021  0.0166 -0.1437
 9104W        W52016   2.275  12.964  17.781 -0.2714 -0.1416 -0.3472
 9105W        W52017   0.902  13.013  18.878  0.3498 -0.0073 -0.2123
 9106W        W52018   1.213  12.031  18.271  0.0294 -0.0672 -0.0256
 9107W        W52019   0.940  13.859  16.718 -0.1501 -0.0374  0.0804
 9108W        W52020  34.452  13.254  17.493  0.2177  0.2073  0.0919
 9109W        W52021   1.798  11.634  20.188  0.1512  0.1288  0.0403
 9110W        W52022   2.946  12.685  17.285  0.0666  0.1495  0.0732
 9111W        W52023   1.359  10.502  16.994  0.0901 -0.3936 -0.1807
 9112W        W52024   1.869  11.729  18.642 -0.0043  0.1571  0.1068
 9113W        W52025   1.401  11.181  18.648 -0.1782 -0.3440 -0.0952
 9114W        W52026   2.107  12.954  19.770 -0.0181  0.0151  0.2086
 9115W        W52027  34.339  11.486  19.856 -0.3172 -0.1590 -0.0876
 9116W        W52028   3.040  14.642  17.985 -0.1637 -0.3637 -0.3772
 9117W        W52029   2.752  11.277  16.737  0.2197  0.1443 -0.0457
 9118W        W52030   3.712  12.763  19.348  0.1087  0.0685 -0.0132
 9119W        W52031   2.194  11.925  17.764  0.1846 -0.0317  0.0125
 9120W        W52032   0.905  11.885  17.111  0.1225  0.0542  0.0989
 9121W        W52033   0.728  12.239  18.789  0.3652 -0.1072  0.3332
 9122W        W52034   2.117  12.295  20.901 -0.0565 -0.2611  0.0697
 9123W        W52035   0.206   9.640  16.561 -0.1186 -0.1821  0.2202
 9124W        W52036   2.034  12.454  19.499  0.1997  0.2753  0.1198
 9125W        W52037   0.004  13.438  16.483  0.1447 -0.0889 -0.2202
 9126W        W52038   3.354  12.663  18.130 -0.0325  0.1393  0.0450
 9127W        W52039   1.259  12.006  16.769 -0.3213  0.2667  0.0334
 9128W        W52040  34.630  11.257  19.323 -0.3804 -0.1774  0.3089
 9129W        W52041   0.855  13.140  19.409  0.0884 -0.3752 -0.2044
 9130W        W52042   0.529  11.244  15.834 -0.1307  0.0585  0.4177
 9131W        W52043   0.833  11.240  16.435  0.2214  0.0602  0.0370
 9132W        W52044   2.218  13.243  18.603 -0.3426  0.0638  0.4399
 9133W        W52045   3.824  13.659  21.112  0.1927  0.2102  0.2105
 9134W        W52046   1.700  11.082  16.913 -0.1315 -0.0306 -0.1994
 9135W        W52047   3.225  13.049  18.729  0.1610  0.0097  0.1938
 9136W        W52048   0.745  13.332  16.038 -0.1495  0.4673  0.1657
 9137W        W52049   1.796  11.616  17.721  0.1080  0.0722  0.0608
 9138W        W52050   1.346  14.439  18.223  0.2672 -0.1106  0.3266
 9139W        W52051   0.642  13.864  18.590  0.0812 -0.2497  0.1491
 9140W        W52052   0.553  15.211  16.862  0.1266 -0.0304  0.0950
 9141W        W52053   1.186  11.662  18.670  0.0762  0.0096 -0.2095
 9142W        W52054   1.318  10.153  17.467  0.6526  0.0127 -0.0749
 9143W        W52055   2.763  13.179  18.630 -0.1577  0.0080 -0.0844
 9144W        W52056   4.022  11.716  18.461 -0.0551  0.1374  0.1436
 9145W        W52057   1.071  12.543  19.053  0.5110  0.2581 -0.2046
 9146W        W52058   0.029  12.243  18.030  0.1587 -0.1732 -0.0544
 9147W        W52059   3.273  14.685  19.730  0.2300 -0.1011  0.0538
 9148W        W52060   3.709  12.544  16.710  0.0258  0.0495 -0.0523
 9149W        W52061   2.321  14.054  18.243  0.1933 -0.0652  0.1497
 9150W        W52062  33.998  11.089  18.580  0.1811  0.2244  0.1043
 9151W        W52063   2.614  12.553  17.857  0.0495  0.1816 -0.0072
 9152W        W52064   1.648  12.296  18.482  0.3616 -0.0265  0.0809
 9153W        W52065   1.556   9.512  19.066  0.1978  0.0400  0.5860
 9154W        W52066   1.246  14.186  15.815 -0.0870  0.0261 -0.0051
 9155W        W52067  34.671  14.076  19.475 -0.1401  0.2913 -0.0767
 9156W        W52068   0.172  12.800  20.488  0.0463  0.0384 -0.2828
 9157W        W52069   0.518  14.565  16.185  0.4945 -0.0368  0.1290
 9158W        W52070   1.328  12.688  17.493  0.2571 -0.0339 -0.1672
 9159W        W52071   1.820  12.064  18.073 -0.3656  0.2523  0.0513
 9160W        W52072   1.884  13.186  18.024  0.1166  0.2352  0.2284
 9161W        W52073   0.225  12.557  17.035 -0.1551 -0.1800  0.1585
 9162W        W52074   0.307  12.695  18.793  0.3188  0.2146  0.1628
 9163W        W52075  34.503  12.034  17.584  0.1544 -0.2467 -0.1823
 9164W        W52076   1.456  13.697  16.579  0.0925 -0.1335  0.0087
 9165W        W52077   0.178  12.976  17.373 -0.1423 -0.4165  0.2819
 9166W        W52078   2.729  13.341  19.442 -0.0298  0.1461 -0.0774
 9167W        W52079   3.063  11.405  16.394 -0.3551 -0.1660  0.0821
 9168W        W52080   3.122  12.214  19.002 -0.4314  0.0004 -0.1387
 9169W        W52081   2.924  12.867  17.727  0.1487 -0.2345 -0.0019
 9170W        W52082   3.218  13.344  19.286 -0.0273  0.0423 -0.1088
 9171W        W52083   1.725  11.857  19.158  0.0007  0.2315  0.2452
 9172W        W52084   0.080  11.829  15.819 -0.1183 -0.1519 -0.2946
 9173W        W52085   0.862  12.696  19.962 -0.2695 -0.0715 -0.3444
 9174W        W52086   2.684  11.123  19.803 -0.0156 -0.1135 -0.0175
 9175W        W52087  34.480  15.661  19.134 -0.0640  0.1280  0.1269
 9176W        W52088   2.603  15.328  17.704  0.4055  0.0478  0.0020
 9177W        W52089  34.457  11.973  16.732  0.3548  0.0348  0.4040
 9178W        W52090   1.085  12.840  17.009  0.1551  0.1825  0.6534
 9179W        W52091   3.610  11.353  18.491  0.1458  0.0546  0.1842
 9180W        W52092   1.517  13.846  16.043  0.1691  0.1775  0.1128
 9181W        W52093   0.817  11.935  17.640 -0.1710  0.0551 -0.0844
 9182W        W52094   0.621  12.683  16.785 -0.1251 -0.1163 -0.0438
 9183W        W52095   0.169  12.724  18.312  0.2214  0.2956  0.4032
 9184W        W52096   0.526  15.816  17.408 -0.1386  0.1360  0.6077
 9185W        W52097   0.983  10.293  16.233 -0.1912  0.2488 -0.1487
 9186W        W52098   2.862  12.334  16.774 -0.0940  0.0630  0.1288
 9187W        W52099   0.890  11.558  20.513  0.0510  0.0134  0.0574
 9188W        W52100   2.972  10.491  18.678  0.0186 -0.2568 -0.2618
 9189W        W52101   0.210  12.192  16.164 -0.1069  0.1421 -0.0764
 9190W        W52102   2.862  12.790  18.278  0.1871  0.0905  0.2380
 9191W        W52103   0.705  12.820  18.173  0.0051 -0.1223  0.0227
 9192W        W52104   0.308  11.029  19.631 -0.3914 -0.2755  0.0063
 9193W        W52105  34.682  11.622  16.506  0.2785  0.1643  0.0172
 9194W        W52106   2.239  11.964  20.040  0.1944 -0.0674 -0.3124
 9195W        W52107   0.959  11.707  16.417 -0.0596 -0.0798 -0.0848
 9196W        W52108   2.362  13.396  19.862 -0.1172 -0.0635 -0.0213
 9197W        W52109  34.624  12.124  19.005 -0.3847  0.1045 -0.1052
 9198W        W52110   1.353  11.481  16.197 -0.0214  0.0999 -0.2545
 9199W        W52111   1.636  13.616  17.602 -0.2343 -0.0794  0.1397
 9200W        W52112   0.337  12.122  21.153  0.0159  0.1077 -0.2357
 9201W        W52113   2.460  13.486  18.981 -0.0838 -0.3392 -0.0450
 9202W        W52114   1.220  10.783  18.945  0.2237 -0.0122 -0.0342
 9203W        W52115   2.435  13.645  16.045  0.2558 -0.1257  0.0142
 9204W        W52116   1.291  10.788  17.525  0.0962 -0.1375 -0.1569
 9205W        W52117   0.104  15.484  15.695 -0.0574 -0.1806 -0.1457
 9206W        W52118   2.244  12.598  16.470  0.2130 -0.2813  0.3408
 9207W        W52119   1.178  12.220  17.356 -0.0014  0.4146 -0.2501
 9208W        W52120   1.021  11.631  18.077  0.2225  0.1210 -0.2552
 9209W        W52121   2.863  13.023  19.084 -0.3164 -0.1240 -0.0805
 9210W        W52122   3.373  13.900  17.023 -0.0425 -0.2360  0.1400
 9211W        W52123   2.571  13.210  16.883  0.0908 -0.3444  0.1209
 9212W        W52124   0.565  13.082  17.731  0.0374  0.0276  0.1514
 9213W        W52125   0.327  14.101  16.164 -0.0179 -0.1419 -0.0852
 9214W        W52126   2.229  11.387  18.652  0.0834 -0.1561  0.3657
 9215W        W52127   2.149  12.064  16.601  0.3817  0.2663 -0.0843
 9216W        W52128  34.245  12.835  17.659 -0.0754 -0.1613 -0.1402
 9217W        W52129   2.349  10.412  17.586  0.0353 -0.2889  0.3237
 9218W        W52130   2.542  14.420  19.032  0.0104  0.0289  0.1123
 9219W        W52131   0.810  14.412  19.957 -0.0991  0.0379  0.0019
 9220W        W52132   0.060  13.558  15.972 -0.3150  0.0982 -0.0909
 9221W        W52133   1.363  14.035  20.449 -0.3491  0.2062  0.1654
 9222W        W52134   1.153  13.376  16.871  0.1919  0.1976  0.0559
 9223W        W52135   1.371  13.752  17.199  0.1901 -0.2572  0.0446
 9224W        W52136   3.611  13.442  17.016 -0.1406  0.0645 -0.2196
 9225W        W52137   0.821  11.483  17.443 -0.0726 -0.3701 -0.0833
 9226W        W52138   4.555  13.801  16.751  0.0325 -0.0362 -0.0560
 9227W        W52139   0.711  10.730  16.151  0.1398 -0.0476 -0.0142
 9228W        W52140   1.823  11.205  18.391  0.2632  0.0244  0.1572
 9229W        W52141   3.173  10.663  18.020 -0.1116 -0.4234 -0.0755
 9230W        W52142   1.632  12.816  18.318 -0.1004 -0.4001 -0.2039
 9231W        W52143   0.180  10.805  17.493 -0.0229 -0.0796  0.3420
 9232W        W52144  34.415  12.947  16.663  0.1377 -0.0936  0.1193
 9233W        W52145  34.690  13.588  19.092 -0.0763  0.0284 -0.1930
 9234W        W52146   2.127   9.337  20.923  0.1095 -0.1435 -0.0152
 9235W        W52147  34.562  12.217  21.288  0.0821  0.2746  0.0090
 9236W        W52148   0.535  11.352  18.214  0.1018 -0.1874 -0.0435
 9237W        W52149  34.158  10.686  16.734  0.4286 -0.3993  0.1658
 9238W        W52150   4.312  13.593  16.076  0.1806 -0.1864 -0.2153
 9239W        W52151  34.418  12.457  16.894  0.4039  0.1323  0.1191
 9240W        W52152  34.059  11.085  17.630  0.0520 -0.0159 -0.2504
 9241W        W52153   2.660  14.471  16.590 -0.3298 -0.2204 -0.4906
 9242W        W52154   4.412  14.105  16.272  0.0822 -0.1983  0.2848
 9243W        W52155   0.635  11.954  16.005  0.0818  0.1282 -0.1012
 9244W        W52156   4.518  13.490  18.566  0.2211  0.5492  0.1124
 9245W        W52157  34.700  11.345  16.037  0.2658  0.0778  0.0311
 9246W        W52158   1.962  12.756  18.679 -0.2345  0.1578  0.2431
 9247W        W52159   0.150  11.218  20.152  0.1132  0.1896 -0.0044
 9248W        W52160   1.186  10.939  16.675  0.0001 -0.1031 -0.0177
 9249W        W52161   2.389  12.452  20.331  0.0593 -0.4012 -0.1413
 9250W        W52162   3.215  14.288  16.266  0.2533  0.0917 -0.1910
 9251W        W52163   2.196  14.419  15.611  0.1246  0.3453 -0.0458
 9252W        W52164   1.782  14.612  18.103 -0.3533  0.1225 -0.2526
 9253W        W52165   1.389  13.413  18.034 -0.1398 -0.2660  0.2473
 9254W        W52166  33.854   9.795  18.312 -0.5236 -0.2806 -0.0631
 9255W        W52167   3.590  14.567  16.543  0.3128 -0.0996 -0.0635
 9256W        W52168   0.653  12.675  19.385 -0.0545 -0.0212 -0.0878
 9257W        W52169   4.404  14.461  15.939 -0.3114 -0.1216 -0.2745
 9258W        W52170   1.854  10.588  17.198  0.2049  0.1751  0.1767
 9259W        W52171   0.348  11.641  17.280 -0.3817 -0.2628  0.0694
 9260W        W52172   1.922  12.614  20.560 -0.0526  0.1669 -0.2125
 9261W        W52173   0.528  12.496  20.870  0.1420 -0.1329  0.1576
 9262W        W52174   2.869  12.192  21.557 -0.0281 -0.0898  0.3347
 9263W        W52175  34.690  10.628  18.595  0.0441 -0.0679 -0.1328
 9264W        W52176   2.006  12.516  18.168  0.0771  0.0043 -0.1484
 9265W        W52177   2.487  14.003  16.457 -0.1347  0.0200  0.2116
 9266W        W52178   0.799  11.155  19.472  0.1269 -0.0812  0.5504
 9267W        W52179   1.289  13.050  16.496  0.0794  0.0170  0.1989
 9268W        W52180   2.441  11.836  19.491 -0.2254 -0.3909  0.0760
 9269W        W52181   2.631  13.294  17.565 -0.1082 -0.0731 -0.1763
 9270W        W52182   1.616  13.262  19.490  0.1177  0.0293  0.1608
 9271W        W52183   0.566  11.816  16.732 -0.1023  0.1022 -0.0472
 9272W        W52184   4.623  13.311  16.842  0.0203 -0.0866  0.0929
 9273W        W52185   1.826  13.012  19.096  0.1710  0.2455  0.1796
 9274W        W52186   3.024  13.665  19.725 -0.1455  0.2722  0.0168
 9275W        W52187   2.896  13.269  18.082  0.0320  0.0658  0.0527
 9276W        W52188   1.761  13.306  18.512 -0.2950  0.0043 -0.0400
 9277W        W52189  34.017  10.668  19.487 -0.1643  0.0214 -0.0842
 9278W        W52190   0.230  12.160  16.668 -0.1970  0.0925 -0.2847
 9279W        W52191   1.361  13.204  17.385 -0.0270  0.2942  0.0012
 9280W        W52192   2.589  12.379  17.333 -0.0748 -0.0526  0.2920
 9281W        W52193   0.473  10.478  17.776  0.0205 -0.2040  0.0155
 9282W        W52194   2.335  11.626  16.750  0.1873  0.1523 -0.0164
 9283W        W52195   2.840  15.755  18.029  0.1825 -0.1988  0.2291
 9284W        W52196   0.516  13.128  18.567  0.0140  0.0340  0.2454
 9285W        W52197   1.811  12.846  22.984 -0.2290 -0.2978  0.1298
 9286W        W52198   0.717  12.351  21.375 -0.1357 -0.4445  0.2809
 9287W        W52199   2.414  12.868  19.337  0.3952  0.4008  0.1499
 9288W        W52200   4.319  12.723  20.049 -0.1672 -0.0905 -0.1821
 9289W        W52201   0.638  11.291  21.463  0.3649  0.0480 -0.1942
 9290W        W52202   3.638  14.564  20.931 -0.1151 -0.0630  0.0888
 9291W        W52203   1.455   9.945  23.169 -0.0578 -0.1111 -0.0767
 9292W        W52204   2.252  14.326  20.996 -0.1494 -0.3373 -0.0995
 9293W        W52205   4.352  14.685  22.374 -0.2583  0.2319 -0.3695
 9294W        W52206   2.678  11.775  20.265  0.0574  0.2129 -0.0151
 9295W        W52207   1.487  12.518  23.223 -0.0350  0.0861 -0.0602
 9296W        W52208   1.176  13.197  22.928 -0.1684 -0.1615  0.2381
 9297W        W52209   1.410  11.215  21.799 -0.1601 -0.0048  0.0540
 9298W        W52210   0.631  10.223  21.719 -0.2196  0.0344 -0.0212
 9299W        W52211   3.375  13.618  22.533 -0.2469  0.1374 -0.0524
 9300W        W52212   2.264  11.746  21.025 -0.0266 -0.0316  0.2976
 9301W        W52213   0.369  11.741  22.043 -0.0382  0.0996 -0.0051
 9302W        W52214   2.462  12.137  21.943  0.1159 -0.0139  0.0921
 9303W        W52215   2.344  14.254  20.443  0.0169  0.1593  0.0554
 9304W        W52216   1.352  11.986  24.174 -0.2257 -0.0847 -0.1336
 9305W        W52217   3.196  10.436  23.423 -0.2267 -0.0033 -0.0807
 9306W        W52218   1.068  11.746  21.411  0.0673  0.1124 -0.1632
 9307W        W52219  34.641  12.345  20.166 -0.2451 -0.1141 -0.3142
 9308W        W52220  34.427  11.808  21.591 -0.1399 -0.2136  0.1118
 9309W        W52221   1.806  12.956  21.466  0.2572 -0.1757  0.3073
 9310W        W52222   2.687  11.812  22.260  0.1286 -0.0297  0.0968
 9311W        W52223   3.507  12.076  22.109 -0.0170 -0.1366 -0.1560
 9312W        W52224   2.853  13.565  20.984 -0.0960 -0.3194 -0.1066
 9313W        W52225   2.278  14.439  19.919  0.1629 -0.0556 -0.0042
 9314W        W52226   1.804  10.862  22.853  0.0369 -0.2175  0.1313
 9315W        W52227   0.878  12.887  21.283  0.4091  0.1161 -0.1503
 9316W        W52228   0.242  15.700  21.630  0.0084 -0.0816 -0.0113
 9317W        W52229   1.775  14.859  19.616 -0.1890  0.0034 -0.1310
 9318W        W52230   3.709  13.431  22.099  0.1507 -0.0464  0.0492
 9319W        W52231   3.145  13.505  22.035  0.1919 -0.2992 -0.3307
 9320W        W52232   1.562  14.058  24.228  0.0585 -0.0445  0.2476
 9321W        W52233   0.746  13.492  19.807  0.0454  0.1252  0.0647
 9322W        W52234   0.935  14.609  21.881 -0.0921 -0.1335 -0.2317
 9323W        W52235   2.222  14.321  24.896 -0.2241  0.2456  0.1595
 9324W        W52236   2.208  12.576  22.045 -0.2058 -0.0419 -0.0077
 9325W        W52237   2.903  14.104  20.830 -0.0432 -0.2749 -0.2402
 9326W        W52238   1.056  13.190  20.165  0.1561  0.1221 -0.1486
 9327W        W52239   1.598  13.457  21.580 -0.0497  0.0887  0.2876
 9328W        W52240   2.447  14.635  23.089  0.0211 -0.2540  0.2063
 9329W        W52241   0.302  13.508  21.840 -0.1250 -0.1965 -0.2623
 9330W        W52242   3.847  11.217  23.709  0.0220 -0.0901 -0.0789
 9331W        W52243   2.429  13.445  21.799 -0.0983 -0.4015 -0.0150
 9332W        W52244   2.281  11.931  20.565  0.0476  0.1468 -0.2104
 9333W        W52245   3.084  10.934  20.216 -0.1125  0.4902 -0.0036
 9334W        W52246   3.880  11.666  22.338 -0.2220  0.4113 -0.0072
 9335W        W52247   2.557  11.124  21.731  0.1593 -0.0124 -0.0952
 9336W        W52248   1.868  14.392  22.128  0.1448 -0.0066 -0.2734
 9337W        W52249   1.146  11.655  23.281 -0.1002 -0.1492  0.1533
 9338W        W52250   2.950  12.273  23.289 -0.0389  0.1677 -0.0183
 9339W        W52251   3.137  11.469  19.288 -0.0615 -0.2236  0.3031
 9340W        W52252   2.553  13.120  22.695  0.0857 -0.4549  0.0062
 9341W        W52253   1.114  13.733  22.759  0.0180 -0.4212 -0.2235
 9342W        W52254   0.372  12.412  22.746  0.0632 -0.0501  0.0725
 9343W        W52255   1.984  13.540  20.679 -0.1362  0.1782  0.0203
 9344W        W52256   3.739  14.207  21.293  0.0626  0.2409  0.0101
 9345W        W52257   1.149  13.533  21.213  0.1610 -0.5956  0.1702
 9346W        W52258   0.469  13.877  21.004 -0.2787 -0.1019  0.3039
 9347W        W52259   0.565  12.926  21.759  0.1836 -0.2315  0.0248
 9348W        W52260   1.212  12.744  24.563  0.3969 -0.2309  0.1303
 9349W        W52261   0.156  10.704  20.024 -0.0598  0.0808 -0.2331
 9350W        W52262   3.230  12.677  23.827 -0.0848  0.0705  0.0747
 9351W        W52263   0.936  13.489  23.950  0.1158  0.0221  0.5261
 9352W        W52264   5.028  12.119  21.036  0.0796  0.0196  0.1324
 9353W        W52265   1.200  13.141  21.555  0.3078 -0.2104 -0.0707
 9354W        W52266   3.232  12.770  22.941 -0.1501 -0.0735 -0.1614
 9355W        W52267   3.641  12.944  21.775  0.0979  0.0930  0.5052
 9356W        W52268   3.670  11.203  22.055  0.1599  0.0735  0.1787
 9357W        W52269   2.720  10.876  22.287 -0.3205 -0.3591 -0.1388
 9358W        W52270   2.165  12.999  20.829 -0.3226  0.0511  0.1880
 9359W        W52271   1.473  12.321  20.954  0.1083  0.1125 -0.2772
 9360W        W52272   2.954  12.812  23.344 -0.1235 -0.2134 -0.0790
 9361W        W52273   3.500  11.940  21.138 -0.0913  0.3840  0.1822
 9362W        W52274   1.328  15.293  21.227  0.1494 -0.0456  0.3116
 9363W        W52275   2.977  10.921  23.352  0.3663  0.0037 -0.0809
 9364W        W52276   2.173  13.765  23.875 -0.0519 -0.1987 -0.0183
 9365W        W52277   1.341  14.463  18.702 -0.0064 -0.0536 -0.0947
 9366W        W52278   0.284  11.740  23.372 -0.3089  0.0135 -0.0863
 9367W        W52279   0.460  13.115  22.201 -0.0337 -0.2000 -0.1209
 9368W        W52280  34.162  10.735  24.049 -0.2031  0.1741 -0.0350
 9369W        W52281   1.690  15.691  21.744 -0.2913  0.0357 -0.0365
 9370W        W52282   2.764  11.429  21.320  0.0588 -0.0514 -0.0129
 9371W        W52283   0.792  11.360  22.264  0.2537 -0.0820 -0.3280
 9372W        W52284   2.693  10.921  21.277 -0.1059 -0.3697 -0.0358
 9373W        W52285   0.470  13.567  20.331  0.0387 -0.2813 -0.1055
 9374W        W52286   3.645  13.528  21.586  0.3047 -0.0219 -0.0277
 9375W        W52287   1.756  13.346  21.085  0.1041 -0.1154 -0.2444
 9376W        W52288   2.936  13.514  20.497  0.2763 -0.0779  0.0966
 9377W        W52289  33.073  11.650  22.943 -0.0629  0.0624 -0.3962
 9378W        W52290   0.850  11.580  21.822 -0.1369 -0.0017  0.3774
 9379W        W52291  34.595  10.139  24.314 -0.0971  0.1048  0.0201
 9380W        W52292  33.490  11.113  20.860 -0.3436  0.2623  0.0310
 9381W        W52293   2.604  12.334  22.411 -0.0633  0.1240  0.2075
 9382W        W52294  34.330  11.018  20.795 -0.2073 -0.0704  0.0891
 9383W        W52295   2.839  13.270  22.312  0.3514  0.0044 -0.2687
 9384W        W52296   1.942  11.169  21.011 -0.0582 -0.1683 -0.0537
 9385W        W52297  34.496  12.727  21.398 -0.1344  0.0049  0.0472
 9386W        W52298   2.607  10.740  23.029  0.1797  0.1192  0.4514
 9387W        W52299   2.746  14.873  19.952  0.0223  0.0744 -0.0007
 9388W        W52300   3.339  13.252  23.841  0.1349 -0.1915 -0.1109
 9389W        W52301   3.182  13.100  20.842 -0.0605 -0.2461  0.0826
 9390W        W52302   0.158  11.725  22.508 -0.1033 -0.0060 -0.0728
 9391W        W52303   1.826  11.967  21.214  0.0364  0.2372 -0.0970
 9392W        W52304   1.723  15.202  21.838 -0.0452 -0.1954 -0.1950
 9393W        W52305   1.360  13.949  21.327 -0.1474  0.2060  0.0336
 9394W        W52306   0.535  11.196  20.474 -0.2269  0.1538 -0.0021
 9395W        W52307   5.344  12.851  21.941  0.0965 -0.1081  0.2191
 9396W        W52308   1.018  12.523  20.969  0.1511 -0.1312 -0.0066
 9397W        W52309   1.832  13.065  22.393  0.0703  0.2718  0.0782
 9398W        W52310   3.927  12.640  23.268 -0.1996  0.0923 -0.1260
 9399W        W52311   2.775  12.075  22.827  0.0525 -0.2916 -0.4218
 9400W        W52312   1.755  12.016  20.698 -0.0541  0.1669  0.1306
 9401W        W52313   1.374  11.394  20.049  0.1875  0.2499 -0.1485
 9402W        W52314   3.104  14.915  21.454 -0.0940 -0.2039  0.3751
 9403W        W52315   0.936  14.315  20.587 -0.1455  0.2681  0.0460
 9404W        W52316   0.895  13.398  22.314 -0.1689  0.5134 -0.0696
 9405W        W52317   1.638  14.111  21.722  0.0910  0.0350  0.1002
 9406W        W52318   3.067  11.112  21.700 -0.0210  0.2348 -0.2817
 9407W        W52319   0.731  12.808  24.441 -0.2474  0.1055  0.1973
 9408W        W52320   0.994  13.016  21.989  0.1782 -0.1141 -0.1637
 9409W        W52321   0.620  12.274  21.900 -0.2628 -0.0615  0.0564
 9410W        W52322   0.904  12.339  24.534  0.0862 -0.3810  0.0159
 9411W        W52323   2.976  11.186  20.737  0.3267 -0.0861  0.1362
 9412W        W52324   3.979  10.909  19.680  0.3523 -0.1221  0.3584
 9413W        W52325   2.710  13.006  21.700  0.1366  0.0464 -0.5510
 9414W        W52326   4.088  13.371  20.756  0.1616 -0.1755  0.0583
 9415W        W52327   3.525  10.621  20.054  0.3570  0.0204 -0.0305
 9416W        W52328   2.746  11.374  18.897 -0.3822 -0.0498  0.1698
 9417W        W52329   2.358  13.697  22.669 -0.0604  0.1058 -0.2193
 9418W        W52330   2.739  13.079  21.018  0.1119  0.4230 -0.0341
 9419W        W52331   2.635  14.172  21.924 -0.0730  0.2910 -0.0831
 9420W        W52332   2.625  12.183  21.082  0.0950 -0.0947  0.3615
 9421W        W52333   3.686  13.116  20.634 -0.1001 -0.1008 -0.0299
 9422W        W52334  34.109  13.697  21.120  0.0139  0.2870 -0.3241
 9423W        W52335   1.768  13.743  24.555 -0.1008 -0.1388 -0.3498
 9424W        W52336   2.556  15.366  21.771 -0.0090 -0.0563 -0.0966
 9425W        W52337   1.041  11.897  22.373  0.0842 -0.2853  0.0286
 9426W        W52338   0.316  12.084  20.414  0.0033  0.1536 -0.1370
 9427W        W52339   2.239  10.729  21.610  0.0547 -0.0114  0.1586
 9428W        W52340  34.332  13.406  19.947  0.0793 -0.0278  0.2972
 9429W        W52341   1.920  11.118  21.753 -0.0901  0.0166  0.0290
 9430W        W52342   3.677  12.165  22.574  0.1076  0.1387  0.0153
 9431W        W52343   2.206  10.447  23.753 -0.0757  0.1697 -0.0957
 9432W        W52344   3.106  11.778  23.117 -0.0598  0.0177 -0.0654
 9433W        W52345   4.039  11.430  19.891 -0.2371 -0.3740  0.0033
 9434W        W52346   1.915  13.490  22.029  0.3799 -0.1417  0.3219
 9435W        W52347   0.036  12.423  20.763  0.1051  0.1586 -0.0944
 9436W        W52348   1.828  10.089  23.756  0.1199 -0.0882 -0.1405
 9437W        W52349   1.868  13.479  23.501  0.0713 -0.2563  0.4486
 9438W        W52350   1.591  13.443  22.933 -0.2826 -0.0540  0.0932
 9439W        W52351   2.422  11.676  22.793  0.0219 -0.0964  0.5093
 9440W        W52352   3.023  12.628  20.817 -0.0717 -0.3984  0.2476
 9441W        W52353   1.908  11.171  23.562 -0.0789  0.1354 -0.1330
 9442W        W52354   3.016  10.294  20.714 -0.1444  0.0693  0.2907
 9443W        W52355   0.230  15.429  19.146  0.0419  0.1937  0.1008
 9444W        W52356   0.752  13.417  20.735 -0.1304  0.0610 -0.1439
 9445W        W52357   1.442  12.078  21.484 -0.1237 -0.0146 -0.1029
 9446W        W52358   0.612  13.929  22.806 -0.1406 -0.0152  0.0097
 9447W        W52359   1.461  12.815  18.790  0.0045 -0.0617 -0.0415
 9448W        W52360   3.453  12.433  23.461 -0.1867  0.1117  0.0134
 9449W        W52361   0.831  15.161  21.798  0.0447  0.2963  0.0335
 9450W        W52362   2.994  10.615  22.634  0.4144 -0.2334  0.0177
 9451W        W52363   0.202  13.967  22.072 -0.2630 -0.0757 -0.0133
 9452W        W52364   0.408  12.971  19.682  0.1859 -0.0193 -0.0602
 9453W        W52365   0.350  11.287  22.437  0.1045  0.0844 -0.3677
 9454W        W52366   2.698  11.645  20.757  0.0818  0.2094  0.1210
 9455W        W52367   1.381  12.686  20.590 -0.3595 -0.0965 -0.3258
 9456W        W52368   0.730  10.713  23.852  0.2014  0.0239 -0.4530
 9457W        W52369   1.881  11.354  22.170  0.1319 -0.0057 -0.0892
 9458W        W52370  34.261  14.897  22.113  0.1069 -0.3116 -0.2326
 9459W        W52371   2.293  12.249  22.826  0.1870  0.1275 -0.1782
 9460W        W52372   2.587  10.722  20.145 -0.2978 -0.2461  0.3025
 9461W        W52373   2.463  13.892  20.852 -0.1486 -0.0377  0.1858
 9462W        W52374   1.943  12.953  24.112  0.1913 -0.0854 -0.0322
 9463W        W52375   1.476  11.453  21.310 -0.1887 -0.2272 -0.1599
 9464W        W52376   2.918  11.615  22.668 -0.0301  0.1964 -0.1062
 9465W        W52377   1.400  11.706  21.748 -0.1295  0.2144  0.2054
 9466W        W52378   0.876  13.903  21.363 -0.1902  0.0792 -0.0535
 9467W        W52379   2.659  14.247  21.273  0.1200 -0.1204 -0.1576
 9468W        W52380   1.661  13.096  20.522 -0.1317  0.1465  0.0650
 9469W        W52381   0.090  13.494  22.284 -0.2453 -0.1161  0.2595
 9470W        W52382   0.767  13.119  24.812 -0.3525 -0.1236  0.0344
 9471W        W52383   2.562  12.822  22.271  0.0934 -0.0715  0.1670
 9472W        W52384   0.214  12.537  21.859 -0.0112  0.1155 -0.0494
 9473W        W52385   1.481  12.217  22.024  0.0523  0.1568 -0.2540
 9474W        W52386   2.077  13.290  22.880  0.1018 -0.3166  0.2486
 9475W        W52387   3.222  12.950  21.318 -0.2432 -0.2480 -0.2504
 9476W        W52388   1.404  13.382  22.471 -0.3989  0.0941 -0.0876
 9477W        W52389   2.554  13.063  23.612 -0.1185 -0.0511 -0.0263
 9478W        W52390   0.929  11.059  21.838 -0.0002  0.0843 -0.2840
 9479W        W52391   2.992  13.152  20.110  0.1742 -0.1241  0.2897
 9480W        W52392   2.195  13.811  24.865  0.0849 -0.1164 -0.1102
 9481W        W52393   0.788  11.532  21.053  0.1292 -0.0452 -0.1227
 9482W        W52394   1.621  14.542  24.234  0.2011  0.0272  0.2740
 9483W        W52395   0.324  13.837  21.476  0.2598 -0.0950  0.0638
 9484W        W52396   0.882  12.840  22.506  0.1573 -0.0780 -0.2016
 9485W        W52397   1.353  14.851  21.498 -0.4110 -0.2007  0.1481
 9486W        W52398   0.959  13.925  19.628  0.0275  0.1626  0.1583
 9487W        W52399   0.518  14.265  21.630 -0.0090 -0.2717  0.2570
 9488W        W52400   3.338  11.133  19.823 -0.0694  0.3404 -0.0756
 9489W        W52401   2.963  12.099  20.097  0.0771  0.0122 -0.2458
 9490W        W52402   2.186  10.757  21.107  0.3789 -0.2047  0.1943
 9491W        W52403   3.533  10.934  23.315  0.0057  0.2372  0.0633
 9492W        W52404   3.386  12.130  21.628  0.0496  0.2808 -0.0170
 9493W        W52405   2.195  10.931  22.118 -0.2239  0.1702  0.0602
 9494W        W52406   1.132  10.707  23.568  0.1052  0.0873  0.3036
 9495W        W52407   2.868  14.057  20.323 -0.2234 -0.0242  0.2120
 9496W        W52408  34.406  11.168  23.154  0.3776 -0.0676 -0.0831
 9497W        W52409   4.048  15.689  24.939  0.0374 -0.1620  0.1056
 9498W        W52410   0.388  12.256  23.370 -0.1554  0.1756 -0.4399
 9499W        W52411   2.236  11.368  21.384 -0.1342 -0.1121 -0.3649
 9500W        W52412   0.779  10.495  20.882  0.2445 -0.2241 -0.0005
 9501W        W52413   2.194  13.910  21.991  0.1328  0.0907 -0.2372
 9502W        W52414   3.908  12.978  22.188  0.3862 -0.2181 -0.2673
 9503W        W52415   1.708  12.828  20.954  0.1706 -0.4461 -0.0221
 9504W        W52416   2.934  11.646  21.750  0.2022  0.4248 -0.1623
 9505W        W52417   0.787  13.402  21.807 -0.2308  0.0151  0.0142
 9506W        W52418   1.872  11.624  21.658  0.0972  0.1364 -0.1150
 9507W        W52419   1.239  13.444  20.666  0.0912  0.1450  0.1823
 9508W        W52420   1.219  14.855  20.946  0.1073  0.3282  0.1308
 9509W        W52421   1.251  10.892  22.173 -0.2162 -0.0451 -0.0627
 9510W        W52422   2.051  13.442  21.438 -0.0094  0.1459 -0.0632
 9511W        W52423   1.853  10.645  20.798  0.1961  0.0854 -0.0849
 9512W        W52424   3.215  11.287  23.005  0.2330  0.2776 -0.3834
 9513W        W52425   2.783  12.405  23.893 -0.0779 -0.2962  0.0923
 9514W        W52426   1.365  12.639  22.715 -0.1639  0.2118 -0.0994
 9515W        W52427   0.769  12.432  23.731  0.0375  0.3115  0.3302
 9516W        W52428   3.293  15.898  20.672 -0.2052 -0.0528  0.2326
 9517W        W52429   3.193  11.731  20.568  0.1040 -0.2897 -0.2982
 9518W        W52430   2.811  11.150  22.677  0.2833 -0.0628  0.1846
 9519W        W52431   1.299  13.063  21.063 -0.0544 -0.1015  0.0111
 9520W        W52432   2.230  10.979  19.928 -0.0439 -0.0057 -0.2437
 9521W        W52433   0.083  12.185  22.324 -0.1327  0.1449 -0.3924
 9522W        W52434   1.948  12.246  24.687 -0.2191  0.1417  0.0753
 9523W        W52435   0.369  11.187  21.010  0.0864  0.1611  0.3480
 9524W        W52436   3.189  11.416  23.516  0.2452 -0.0559 -0.2329
 9525W        W52437   1.523  13.765  18.554  0.2386 -0.0808 -0.1584
 9526W        W52438   2.268  13.337  22.330 -0.2647 -0.0977  0.2528
 9527W        W52439   2.270  10.193  20.734 -0.0233  0.0727 -0.2999
 9528W        W52440  34.114  10.729  21.885  0.4299  0.0616  0.2906
 9529W        W52441   1.999  14.978  22.840 -0.0817 -0.1643  0.0043
 9530W        W52442   0.675  11.153  19.982 -0.3669  0.1698  0.1859
 9531W        W52443   2.388  13.648  20.330 -0.1610 -0.0482  0.0284
 9532W        W52444   2.083  14.129  22.525  0.0975 -0.0047  0.1699
 9533W        W52445   2.316  12.723  23.882 -0.3860 -0.1935 -0.1078
 9534W        W52446   1.682   9.884  21.928 -0.2116  0.2577  0.3627
 9535W        W52447   3.735  11.803  23.906  0.0213  0.0372  0.1448
 9536W        W52448   0.110  13.556  21.101 -0.1730  0.0933 -0.1588
 9537W        W52449   3.392  11.214  20.500  0.2046  0.1658 -0.4198
 9538W        W52450   0.684  13.493  23.138 -0.2654 -0.2278  0.0608
 9539W        W52451  34.495  13.878  22.885 -0.1342 -0.0665 -0.0823
 9540W        W52452   0.931  14.044  23.176  0.0239  0.0507 -0.0104
 9541W        W52453   1.989  11.632  23.350 -0.1669  0.0802  0.0192
 9542W        W52454   3.631  11.438  23.235  0.3268 -0.1136 -0.0609
 9543W        W52455   2.352  12.903  23.149  0.0779  0.0202  0.3971
 9544W        W52456   3.150  14.468  23.712 -0.1463  0.2091 -0.1599
 9545W        W52457   1.026  13.956  22.333 -0.2413  0.1462 -0.2749
 9546W        W52458  34.543  12.385  22.728  0.2119  0.1292 -0.0332
 9547W        W52459   2.319  14.569  22.039  0.0631 -0.1065 -0.1934
 9548W        W52460   3.764  12.250  20.834  0.1371 -0.0824  0.0642
 9549W        W52461   2.461  13.857  21.439 -0.1104  0.0506  0.0367
 9550W        W52462   0.699  11.507  23.157 -0.0948 -0.1943  0.0289
 9551W        W52463   2.125  11.644  24.064  0.0690  0.0611  0.2686
 9552W        W52464   1.743  12.566  21.829 -0.0981 -0.2028 -0.1759
 9553W        W52465   1.746  10.838  21.357 -0.1107 -0.1080 -0.1865
 9554W        W52466   1.345  14.324  20.927 -0.1612  0.0679  0.2399
 9555W        W52467   1.195  13.899  23.745 -0.0558  0.0001  0.0962
 9556W        W52468   0.684  12.947  22.994 -0.2053  0.0065  0.2485
 9557W        W52469   0.760  14.738  20.814  0.2112  0.2650 -0.0086
 9558W        W52470   2.738  12.829  20.451  0.0908  0.2132 -0.0506
 9559W        W52471   3.272  13.422  21.189  0.0044 -0.1722  0.3686
 9560W        W52472   1.672  15.977  22.514 -0.0018 -0.1066  0.1963
 9561W        W52473   1.284  11.080  20.809  0.2633  0.2057 -0.0592
 9562W        W52474   1.757  14.309  21.256  0.0921  0.0114  0.0550
 9563W        W52475   0.100  13.267  20.061  0.1311 -0.1074  0.2547
 9564W        W52476   2.951  15.026  22.351  0.0831  0.1580  0.2633
 9565W        W52477   1.471  14.971  20.481  0.0289 -0.2235 -0.1901
 9566W        W52478   2.984  13.004  24.099  0.0161 -0.1293  0.0348
 9567W        W52479   3.648  10.095  19.453  0.1280  0.2237 -0.1839
 9568W        W52480   4.433  12.978  22.084  0.2391  0.1495  0.1786
 9569W        W52481   4.228  11.485  20.837 -0.0516 -0.1524  0.0079
 9570W        W52482   3.028  14.085  22.692 -0.1172  0.1012 -0.0259
 9571W        W52483   2.353  13.431  21.033 -0.2014 -0.0825 -0.1230
 9572W        W52484   2.157  11.408  20.451  0.2561 -0.2758  0.1150
 9573W        W52485   0.503  13.688  24.124  0.2871 -0.1164  0.1777
 9574W        W52486   3.873   9.105  23.404  0.0359  0.2968 -0.1138
 9575W        W52487   0.493  13.752  25.593  0.1316  0.0227 -0.0057
 9576W        W52488   3.411  14.155  19.810 -0.0872 -0.1461  0.0914
 9577W        W52489   0.206  13.139  21.402  0.2759 -0.2149  0.0626
 9578W        W52490   0.021  12.991  21.903  0.2180 -0.2146 -0.0525
 9579W        W52491   3.804  10.558  23.176  0.1240 -0.2365 -0.0941
 9580W        W52492   1.326  12.629  21.358 -0.1972  0.0721  0.4459
 9581W        W52493   2.186  13.006  21.818  0.0724  0.0960  0.1025
 9582W        W52494   2.168  13.853  19.665  0.1953 -0.0575 -0.0367
 9583W        W52495   0.387  14.713  21.374  0.0707  0.2179 -0.0794
 9584W        W52496   2.017  14.607  20.644  0.1528 -0.0509 -0.0459
 9585W        W52497   0.611  12.051  22.443  0.0335 -0.1418 -0.0610
 9586W        W52498   3.444  12.259  22.999  0.1344  0.0312 -0.0634
 9587W        W52499   2.171  12.691  22.561 -0.0345  0.1078  0.1130
 9588W        W52500   4.386  10.219  24.267 -0.3472 -0.0391 -0.1726
 9589W        W52501   0.475  12.875  23.532  0.0171 -0.1057  0.1568
 9590W        W52502   3.594  11.575  20.278  0.3585 -0.0576 -0.0814
 9591W        W52503   2.875  13.789  21.753 -0.1035 -0.2266  0.2242
 9592W        W52504   0.954  10.951  24.249 -0.0049  0.2810  0.1208
 9593W        W52505   0.398  12.530  20.105 -0.2509  0.0863 -0.1163
 9594W        W52506   2.401  11.991  23.213 -0.0516 -0.1877  0.0652
 9595W        W52507   1.683  12.534  19.167  0.0051 -0.1019 -0.1896
 9596W        W52508   3.468  14.082  23.774  0.1486  0.1913 -0.1020
 9597W        W52509   1.080  12.139  21.785  0.1942  0.0796 -0.0450
 9598W        W52510   3.055  11.750  21.104  0.0548  0.0152  0.0221
 9599W        W52511   1.188  13.706  21.796  0.4300  0.1458  0.2449
 9600W        W52512   1.292  11.671  22.711  0.1569 -0.0089  0.3374
 9601W        W52513   4.621  13.632  22.875 -0.2823 -0.0240  0.2632
 9602W        W52514   0.182  12.452  19.610  0.0138 -0.2315 -0.1544
 9603W        W52515   3.236  12.382  21.186 -0.1624  0.2342 -0.1777
 9604W        W52516   2.905  13.986  23.697  0.0197 -0.2163  0.2746
 9605W        W52517   1.170  13.931  18.796  0.1259 -0.1412  0.1970
 9606W        W52518   2.495  13.256  20.561 -0.2474 -0.0278 -0.0291
 9607W        W52519   3.373  14.754  24.177  0.1108  0.3224  0.1809
 9608W        W52520   1.022  12.401  22.226  0.0051 -0.0850  0.1582
 9609W        W52521   2.778  14.445  22.297 -0.1576 -0.0581 -0.0516
 9610W        W52522   4.962  13.235  21.954 -0.3157  0.0395  0.1573
 9611W        W52523   2.652   9.815  22.269  0.1270 -0.2597  0.1730
 9612W        W52524   0.947  12.619  21.725 -0.0823  0.0343  0.0663
 9613W        W52525   0.971  14.932  20.153  0.5797 -0.2630  0.0136
 9614W        W52526   3.713  12.467  21.862  0.1537 -0.1536 -0.0597
 9615W        W52527   4.408  11.404  23.091 -0.1848 -0.3085  0.0434
 9616W        W52528   0.957  13.863  20.847 -0.1986 -0.0677  0.3265
 9617W        W52529   3.633  10.458  23.663 -0.2911 -0.1547 -0.1752
 9618W        W52530   2.312  14.524  22.560 -0.0949 -0.0580 -0.0762
 9619W        W52531   2.667  13.746  22.227  0.0100 -0.1748  0.2823
 9620W        W52532   1.193  12.148  20.519  0.1167 -0.1041 -0.2117
 9621W        W52533   1.652  12.025  23.296  0.1382 -0.1641  0.0008
 9622W        W52534   3.539  13.789  19.506  0.2872  0.0536  0.0864
 9623W        W52535   1.182  13.469  19.613  0.0777  0.1495  0.1601
 9624W        W52536   4.035  13.960  22.641  0.0265  0.5324  0.3484
 9625W        W52537   1.223  11.787  20.880  0.0751  0.3734 -0.2693
 9626W        W52538   3.530  14.666  21.605 -0.1927  0.3545  0.0607
 9627W        W52539   1.134  10.140  20.864  0.1622  0.0754 -0.0685
 9628W        W52540   3.222   9.891  20.535 -0.2519  0.0161  0.0534
 9629W        W52541   3.231  11.629  22.202 -0.1320 -0.1472  0.1986
 9630W        W52542   1.854  13.615  22.525 -0.2907 -0.0858  0.0545
 9631W        W52543  34.230  12.563  21.023 -0.1349  0.0751  0.1363
 9632W        W52544   0.790  12.038  20.811 -0.1093 -0.0517 -0.3065
 9633W        W52545   1.988  13.885  21.156  0.1341  0.0838  0.1492
 9634W        W52546   1.359   9.538  24.179 -0.1186 -0.0970  0.2012
 9635W        W52547   0.903  12.393  22.661 -0.0528 -0.1782  0.2554
 9636W        W52548   0.520  12.558  22.301  0.1592  0.1047  0.2459
 9637W        W52549   1.271  10.783  21.570 -0.2816  0.4104  0.1137
 9638W        W52550   2.177  12.946  20.272 -0.1258 -0.1334  0.2140
 9639W        W52551   0.212  10.773  23.698  0.0354  0.1334 -0.1707
 9640W        W52552  33.727  10.392  21.334  0.1356  0.0510 -0.1494
 9641W        W52553   1.493  13.790  20.876  0.0476  0.0837 -0.1938
 9642W        W52554   2.729  13.395  21.424  0.0852 -0.1860  0.2250
 9643W        W52555   1.259  11.466  22.170  0.4032  0.0076 -0.1248
 9644W        W52556   2.740  14.646  23.496  0.1835  0.1498 -0.2338
 9645W        W52557   0.832  13.619  19.196  0.1461 -0.2816 -0.5663
 9646W        W52558   1.871  10.386  22.811  0.0418 -0.0663 -0.4378
 9647W        W52559   1.944  11.209  24.098 -0.2696  0.0619  0.3374
 9648W        W52560   0.404  11.613  20.731 -0.0023 -0.1446  0.2807
 9649W        W52561   2.434  11.287  22.397  0.3814  0.0944  0.4050
 9650W        W52562   4.002  14.691  21.472  0.1565 -0.0745 -0.2881
 9651W        W52563   0.863  13.863  20.327  0.1802 -0.2303  0.0792
 9652W        W52564   0.066  14.302  22.930 -0.1232 -0.1873 -0.0420
 9653W        W52565   3.295  14.047  23.180 -0.2493 -0.3396 -0.1101
 9654W        W52566  33.707  11.892  22.722  0.1891 -0.0632  0.2954
 9655W        W52567   2.852  13.577  22.725 -0.2059 -0.1504 -0.1822
 9656W        W52568   1.319  14.355  22.113 -0.0991  0.1904  0.1547
 9657W        W52569   3.703  13.666  20.026  0.4579 -0.2453 -0.0681
 9658W        W52570   4.024  11.429  22.747 -0.2360  0.1764  0.2249
 9659W        W52571   2.013  12.142  21.726 -0.0341 -0.2148  0.2737
 9660W        W52572   0.783  11.949  23.530  0.2385  0.2554  0.0737
 9661W        W52573  34.565  13.057  23.568 -0.2677  0.0214 -0.0141
 9662W        W52574   1.774  14.613  21.662 -0.2422 -0.1453 -0.0789
 9663W        W52575   0.450  11.193  21.974  0.0253 -0.0298  0.0722
 9664W        W52576   3.022  12.125  22.049 -0.1037 -0.2949 -0.2449
 9665W        W52577   2.939  12.584  20.099  0.0887 -0.0611 -0.0955
 9666W        W52578   2.438  13.268  24.046 -0.2092  0.0013  0.0936
 9667W        W52579   1.781  11.125  20.212 -0.2113 -0.1664  0.2201
 9668W        W52580   1.658  12.603  22.310 -0.3379 -0.1473  0.2835
 9669W        W52581   3.399  14.039  20.900  0.2226  0.1594 -0.0210
 9670W        W52582   2.520  14.180  23.413  0.0126  0.0688 -0.0296
 9671W        W52583   1.853  12.486  21.312 -0.2431  0.0337  0.0371
 9672W        W52584   3.243  12.162  20.784  0.2547  0.1052  0.1810
 9673W        W52585   3.326  14.532  22.484  0.1484  0.5905  0.1580
 9674W        W52586   3.814  15.144  22.842  0.1397 -0.2667 -0.1214
 9675W        W52587   1.944  13.880  22.963  0.1194 -0.1525 -0.0953
 9676W        W52588   3.195  13.285  21.647 -0.1752 -0.0545 -0.0951
 9677W        W52589   0.368  10.632  22.773  0.1525 -0.2748 -0.1924
 9678W        W52590   2.234  14.325  21.570  0.1893 -0.2373 -0.3020
 9679W        W52591   1.509  13.052  21.947 -0.0230  0.0475 -0.3551
 9680W        W52592   1.958  12.199  22.284 -0.1727  0.1188 -0.0670
 9681W        W52593   0.726  10.765  22.465  0.0800  0.2717  0.1248
 9682W        W52594   2.588  10.286  20.417  0.4011  0.4464 -0.0226
 9683W        W52595   1.430  13.084  23.370  0.0316 -0.1288 -0.0598
 9684W        W52596   2.313  12.938  21.301 -0.3059  0.4663  0.0891
 9685W        W52597   2.976  13.619  28.103 -0.3199 -0.3951 -0.1066
 9686W        W52598   0.999  12.667  25.059  0.0344  0.1243 -0.1158
 9687W        W52599   2.186  11.526  24.541 -0.2430 -0.3166 -0.1315
 9688W        W52600   2.526  12.541  24.806 -0.1023  0.1858  0.2966
 9689W        W52601  34.566  13.899  25.584  0.0183 -0.0289 -0.0572
 9690W        W52602   3.214  15.050  24.583  0.1336 -0.3712  0.0773
 9691W        W52603   0.582   9.620  27.792  0.1978 -0.2159 -0.2258
 9692W        W52604   2.922  13.326  25.098  0.1803 -0.2068 -0.0231
 9693W        W52605   3.625  13.054  27.588 -0.2524  0.2244 -0.1557
 9694W        W52606   2.503  12.406  23.461  0.0457 -0.2591  0.1748
 9695W        W52607   1.452  12.322  26.997  0.0646 -0.0483 -0.1174
 9696W        W52608   0.380  13.826  26.833  0.5084 -0.1468 -0.1678
 9697W        W52609   1.019  12.095  25.804  0.1439  0.3186 -0.0815
 9698W        W52610   0.227  10.943  26.126  0.1064 -0.0066  0.0407
 9699W        W52611   1.410  12.315  25.998 -0.1810 -0.0617  0.2622
 9700W        W52612  34.656  13.394  24.449  0.0948 -0.0126  0.0320
 9701W        W52613   1.202  13.413  27.063 -0.1765  0.0735 -0.1895
 9702W        W52614   0.516  11.023  25.220 -0.1192 -0.5123 -0.0709
 9703W        W52615   3.138  16.073  25.271  0.1196 -0.0446 -0.1648
 9704W        W52616   0.945  12.783  27.208 -0.1237  0.2020  0.2195
 9705W        W52617   2.069  10.265  27.144  0.1597 -0.0934 -0.1116
 9706W        W52618   2.960  16.001  24.711 -0.1605  0.0374  0.0651
 9707W        W52619   1.013  11.847  24.705  0.5833 -0.0523 -0.2624
 9708W        W52620   0.484  12.700  24.953 -0.0016 -0.2665 -0.1010
 9709W        W52621   2.217  13.771  26.328 -0.2737 -0.1304 -0.4218
 9710W        W52622   3.992  11.954  25.157  0.0032 -0.0754 -0.1572
 9711W        W52623   2.866  12.707  25.584  0.0504  0.0872  0.0101
 9712W        W52624   1.547  15.243  26.025 -0.0203 -0.2624 -0.0195
 9713W        W52625   1.802  14.691  26.761 -0.1478 -0.0038  0.0281
 9714W        W52626   1.663  12.741  26.346 -0.0296 -0.0676  0.1153
 9715W        W52627   0.246  14.003  24.374 -0.0527  0.0460  0.2675
 9716W        W52628   1.497  15.161  25.361 -0.0260  0.0910  0.1422
 9717W        W52629   0.159  13.480  25.380 -0.2655 -0.4813 -0.2474
 9718W        W52630   3.487  13.137  26.215 -0.1582  0.0704  0.0033
 9719W        W52631   2.152  13.865  27.371 -0.1561 -0.1501  0.1606
 9720W        W52632  33.977  14.520  26.699 -0.0462 -0.1699  0.2193
 9721W        W52633   1.656  12.558  24.148  0.1758  0.0848  0.0595
 9722W        W52634   2.033  13.590  26.822 -0.0109  0.2362 -0.0950
 9723W        W52635   1.157  13.937  27.329  0.0768  0.0952  0.2090
 9724W        W52636   2.818  12.001  26.939 -0.2068  0.0130  0.1839
 9725W        W52637   0.694  12.148  24.946  0.0664 -0.0394  0.1925
 9726W        W52638   2.478  14.417  25.597 -0.2938  0.1247  0.3079
 9727W        W52639   2.213  13.369  26.011  0.1084  0.1051 -0.1202
 9728W        W52640   0.901  14.237  27.810 -0.0711 -0.2792  0.1139
 9729W        W52641   0.003  12.756  25.118 -0.1141  0.1184  0.2128
 9730W        W52642   3.593  11.217  28.861 -0.1109  0.2983  0.1285
 9731W        W52643   1.760  14.296  25.015  0.0352 -0.2499  0.0929
 9732W        W52644   2.633  13.671  24.651  0.3430 -0.0968 -0.1856
 9733W        W52645   1.538  11.476  24.074  0.3264 -0.3268  0.4152
 9734W        W52646   2.337  11.008  24.830 -0.2067  0.0316 -0.0750
 9735W        W52647   0.022  12.153  25.815 -0.2806  0.0100  0.0052
 9736W        W52648   1.895  16.339  24.832  0.3900 -0.1515 -0.2020
 9737W        W52649   1.017  12.862  26.318  0.1014 -0.1283 -0.0359
 9738W        W52650   4.109  14.528  26.833 -0.1268  0.0428  0.0642
 9739W        W52651   1.996  13.123  25.598  0.0690  0.0055 -0.0370
 9740W        W52652   2.578  12.115  26.038  0.0644  0.0005 -0.1759
 9741W        W52653   0.773  14.554  26.101 -0.1679 -0.0047 -0.0517
 9742W        W52654  34.302  12.784  26.057 -0.1170  0.0402  0.1448
 9743W        W52655   4.216  12.801  24.862 -0.0264  0.2756 -0.0229
 9744W        W52656   3.681  13.541  26.473  0.1176 -0.0574  0.0133
 9745W        W52657   3.066  15.379  23.554 -0.0549 -0.0551  0.0625
 9746W        W52658  33.868  12.731  25.807  0.4099  0.2425  0.3438
 9747W        W52659  34.619  13.636  26.542  0.0607  0.0129 -0.0163
 9748W        W52660   0.302  10.880  28.373 -0.3371 -0.2053 -0.0076
 9749W        W52661   1.774  11.906  23.762 -0.2786 -0.0584  0.0217
 9750W        W52662   3.405  12.878  28.444 -0.0590  0.4152  0.1476
 9751W        W52663  33.350  12.985  26.174 -0.2681  0.1981 -0.1835
 9752W        W52664   2.965  13.082  26.813  0.2670  0.0404  0.1341
 9753W        W52665   1.049  13.685  25.531 -0.1927  0.2088  0.0055
 9754W        W52666   2.553  15.419  26.109  0.2867 -0.1359 -0.0161
 9755W        W52667   2.782  13.332  23.163  0.3821 -0.1171  0.1475
 9756W        W52668   2.725  10.805  24.608 -0.0684  0.1059  0.1699
 9757W        W52669   2.652  10.354  26.149 -0.2215 -0.0900  0.2421
 9758W        W52670   1.903  12.101  24.203  0.0500  0.2674  0.1849
 9759W        W52671   1.846  13.403  24.065 -0.0601 -0.0448 -0.3355
 9760W        W52672   3.736  14.177  27.101  0.3042 -0.1472  0.2159
 9761W        W52673   3.571  12.745  24.205 -0.3246  0.0661 -0.1237
 9762W        W52674   1.213  15.948  24.885 -0.1063  0.3190 -0.2712
 9763W        W52675   2.479   9.899  27.075  0.1491  0.2641  0.2673
 9764W        W52676   1.588  14.815  28.197  0.4904  0.2494  0.1463
 9765W        W52677   1.552  14.701  24.650 -0.0110 -0.1647  0.2629
 9766W        W52678   0.291  13.360  25.847 -0.3671 -0.3861  0.0736
 9767W        W52679  34.074  12.952  23.484  0.3809 -0.1490 -0.3221
 9768W        W52680   1.302  10.486  26.836 -0.1728 -0.1406  0.0593
 9769W        W52681   0.904  14.081  25.948  0.1272 -0.1043 -0.0414
 9770W        W52682   3.194  10.834  23.725 -0.2208  0.0993  0.0472
 9771W        W52683   1.657  10.608  27.242 -0.0087 -0.2139 -0.2448
 9772W        W52684   4.351  11.599  25.195  0.0175 -0.0761  0.1552
 9773W        W52685   0.410  13.203  24.329 -0.0634 -0.0202 -0.0257
 9774W        W52686   2.752  13.076  24.657  0.0583 -0.0329 -0.1618
 9775W        W52687   3.093  11.716  24.909 -0.2772 -0.2282  0.2199
 9776W        W52688   2.214  14.067  25.356 -0.1222  0.0107 -0.0248
 9777W        W52689   0.360  13.147  27.169 -0.1393 -0.0453  0.2290
 9778W        W52690   1.244  11.546  25.034 -0.1669  0.1180  0.1308
 9779W        W52691   1.957  10.826  28.562  0.0489 -0.2387 -0.3506
 9780W        W52692   0.504  11.362  26.469  0.1599 -0.0593  0.0035
 9781W        W52693   3.053  11.016  25.577 -0.1534  0.1114  0.1038
 9782W        W52694  34.190  11.563  25.854  0.2150  0.1449  0.1608
 9783W        W52695   2.840  11.541  25.282 -0.1325 -0.3990  0.2613
 9784W        W52696   2.559  10.858  24.074 -0.0611 -0.2103  0.0613
 9785W        W52697   1.760  13.851  25.473  0.0513  0.1367 -0.4318
 9786W        W52698   2.742  11.581  27.318 -0.0063 -0.0784  0.0759
 9787W        W52699   3.009  14.568  24.494 -0.2476  0.0581 -0.2973
 9788W        W52700   3.235  14.091  26.767 -0.1505 -0.1200  0.0629
 9789W        W52701   2.748  13.927  25.717  0.2194  0.1679 -0.1366
 9790W        W52702   1.172  10.982  26.915 -0.0403 -0.0626 -0.3401
 9791W        W52703   0.049  13.200  26.238  0.0211 -0.0272  0.1205
 9792W        W52704   0.397  15.093  24.524  0.1221  0.2013 -0.0698
 9793W        W52705   1.312  12.447  25.497  0.0621 -0.1761 -0.2352
 9794W        W52706   0.249  10.186  24.694 -0.2422  0.0688  0.1179
 9795W        W52707   2.489  14.267  26.145  0.0665  0.0346 -0.0597
 9796W        W52708   2.727  13.488  25.912 -0.2748 -0.0327  0.0268
 9797W        W52709   0.273  13.795  24.987 -0.1049 -0.2273  0.3420
 9798W        W52710   2.771  10.437  25.541 -0.0253 -0.1765  0.1432
 9799W        W52711   2.656  14.048  27.257 -0.0632  0.4091 -0.0745
 9800W        W52712   2.535  13.000  25.964 -0.3232 -0.1319  0.0428
 9801W        W52713   0.003  11.772  24.927  0.2606 -0.2359  0.2528
 9802W        W52714   3.225  14.282  25.871 -0.1455  0.1030 -0.0397
 9803W        W52715   0.247  16.021  24.880  0.0625 -0.1666 -0.3054
 9804W        W52716   0.798  12.349  25.452  0.1039  0.0945  0.0465
 9805W        W52717   2.106  14.423  26.437 -0.0746  0.2863 -0.1933
 9806W        W52718   4.636  10.870  25.392  0.0813 -0.0970 -0.0983
 9807W        W52719   1.025  12.821  27.823  0.0087  0.1996  0.1621
 9808W        W52720   2.683  11.114  27.051 -0.0414 -0.2128 -0.1083
 9809W        W52721   0.392  12.424  24.377  0.0964 -0.0645 -0.2934
 9810W        W52722   0.365  14.084  27.780 -0.2352  0.0678  0.0250
 9811W        W52723   4.090  11.722  25.624 -0.0522  0.1059  0.0513
 9812W        W52724   3.038  10.634  24.219 -0.1853  0.0074 -0.1108
 9813W        W52725   1.416  13.223  28.322 -0.0049  0.1907 -0.1246
 9814W        W52726   2.057  11.854  24.978 -0.0627 -0.2468  0.3306
 9815W        W52727   1.297   9.096  23.627  0.0115  0.2248  0.0761
 9816W        W52728   1.815  10.239  23.292 -0.0330 -0.0528 -0.0035
 9817W        W52729   1.456  13.072  27.845 -0.0858  0.0907  0.0461
 9818W        W52730   1.427  14.847  25.770  0.0359 -0.2079 -0.1289
 9819W        W52731   1.228  12.800  26.801  0.0001 -0.2585  0.0028
 9820W        W52732   1.563  11.519  23.565  0.3789  0.0974  0.0671
 9821W        W52733   2.242  12.375  25.279  0.1533  0.0051  0.0284
 9822W        W52734  34.339  13.473  25.456 -0.3400 -0.1629  0.1731
 9823W        W52735   1.709  13.705  27.181 -0.2387 -0.0421 -0.1723
 9824W        W52736   2.119  14.526  25.966 -0.1595  0.0186  0.2370
 9825W        W52737   1.061  11.806  27.273 -0.1583  0.3227 -0.2312
 9826W        W52738   1.691  12.822  24.577 -0.2188  0.0213  0.1215
 9827W        W52739   2.631  10.950  25.273  0.0482  0.0597  0.0217
 9828W        W52740  34.029  15.071  23.849  0.2190 -0.2914  0.0305
 9829W        W52741   3.225  10.369  25.098 -0.1133  0.0708 -0.1314
 9830W        W52742   3.991  11.497  26.042 -0.0456  0.0257  0.1380
 9831W        W52743   1.615  10.041  27.015  0.2833  0.1262 -0.1168
 9832W        W52744   3.670  13.114  28.084 -0.0313  0.0684  0.0794
 9833W        W52745   2.395  13.284  24.969  0.1650 -0.1071 -0.2019
 9834W        W52746   1.059  11.918  26.304 -0.2323  0.3257  0.1575
 9835W        W52747  34.543  11.781  22.927 -0.0026  0.0365  0.0661
 9836W        W52748   2.404  12.475  26.976 -0.1009 -0.1047 -0.1151
 9837W        W52749   0.731  13.526  27.122  0.2364 -0.2816 -0.2965
 9838W        W52750  34.596  14.072  26.938 -0.3311 -0.3108  0.2320
 9839W        W52751   3.045  12.335  26.652 -0.1295 -0.0435 -0.1195
 9840W        W52752   1.403  12.897  25.893  0.0446 -0.1816 -0.0926
 9841W        W52753   2.206  11.648  27.655  0.3339 -0.0916 -0.2943
 9842W        W52754   0.184  13.241  24.877 -0.3021 -0.1168  0.0739
 9843W        W52755   1.127  13.575  24.858  0.3970  0.1116 -0.1014
 9844W        W52756   1.220  12.147  22.952  0.0899 -0.0021  0.2724
 9845W        W52757   1.205  10.810  27.415 -0.1862  0.2137  0.2497
 9846W        W52758   0.829  14.033  26.919  0.1565  0.0136 -0.2005
 9847W        W52759   2.826  13.861  23.165 -0.1316 -0.2493 -0.0280
 9848W        W52760   3.436  13.558  27.899 -0.1412  0.1505 -0.0825
 9849W        W52761   0.641  14.536  25.053  0.0791  0.2285 -0.0000
 9850W        W52762   3.230  10.012  26.491 -0.2994 -0.0661 -0.1211
 9851W        W52763  33.853  15.371  26.514  0.0662 -0.1937  0.0827
 9852W        W52764   0.928  11.856  25.327 -0.3423  0.1280  0.1802
 9853W        W52765  33.552  12.669  23.377  0.0579  0.0979  0.2040
 9854W        W52766   4.563   9.621  25.036  0.2359 -0.0501 -0.1261
 9855W        W52767   2.492  12.821  25.214  0.4302 -0.3319 -0.0581
 9856W        W52768   0.579  11.687  27.241 -0.2026  0.1798 -0.0449
 9857W        W52769   2.231  11.227  26.159  0.2985  0.0592 -0.1294
 9858W        W52770   0.223  15.044  25.442 -0.2648  0.0932  0.3589
 9859W        W52771   2.891  12.242  27.410  0.3674 -0.0918  0.2945
 9860W        W52772   1.764  12.163  25.264  0.3866 -0.1313  0.0693
 9861W        W52773   2.914  13.594  27.109 -0.0460  0.2026  0.1495
 9862W        W52774   1.295  13.968  27.911 -0.1563  0.0998  0.2418
 9863W        W52775   0.854  12.922  23.940 -0.2381 -0.1397  0.2038
 9864W        W52776   2.036  12.299  26.164 -0.0959 -0.2271 -0.1642
 9865W        W52777   1.053  12.917  25.495 -0.2888 -0.0322 -0.1213
 9866W        W52778   0.696  13.523  25.123  0.4159  0.0842 -0.3052
 9867W        W52779   0.277  14.370  26.737 -0.3447  0.4848  0.0218
 9868W        W52780   1.417  13.027  24.136 -0.0442  0.0486  0.0815
 9869W        W52781   0.289  14.157  25.352 -0.1129  0.0569  0.0735
 9870W        W52782   2.367  11.550  27.094  0.1586  0.2767 -0.1790
 9871W        W52783   3.229  12.200  26.204 -0.0590 -0.1344 -0.0319
 9872W        W52784   0.740  13.603  25.998 -0.1603 -0.1955 -0.1403
 9873W        W52785   1.407  11.134  26.262 -0.3047 -0.2783  0.1008
 9874W        W52786   2.175  11.468  25.715  0.0715 -0.1117 -0.1597
 9875W        W52787   3.201  13.370  26.512  0.0022 -0.0712  0.1357
 9876W        W52788   2.198  10.971  26.608  0.1065  0.0206  0.0776
 9877W        W52789   1.883  14.047  26.832 -0.0819 -0.1095  0.1147
 9878W        W52790   2.361  10.815  25.745 -0.0586 -0.2079 -0.1659
 9879W        W52791   4.126  13.546  24.220  0.0092  0.2674 -0.1403
 9880W        W52792   2.452  11.799  25.465 -0.0415 -0.0397  0.5072
 9881W        W52793   0.012  13.022  25.566  0.1617  0.4377  0.3308
 9882W        W52794  34.341  13.262  26.577  0.2339  0.0238  0.0365
 9883W        W52795   0.422  13.384  23.694 -0.3897 -0.1703  0.1680
 9884W        W52796   1.553  12.887  25.387  0.0016 -0.1117 -0.3219
 9885W        W52797   0.638  14.141  27.382  0.0468  0.2606 -0.2824
 9886W        W52798   2.203  14.567  23.557 -0.1678 -0.2349 -0.2661
 9887W        W52799   1.399  13.557  27.529  0.2064  0.0446 -0.1717
 9888W        W52800   3.708  11.430  24.218 -0.1367 -0.0416 -0.1964
 9889W        W52801   2.635  15.110  23.726  0.1197  0.2469 -0.3655
 9890W        W52802   2.690  12.062  24.970  0.2573  0.3733 -0.1943
 9891W        W52803   3.786  11.514  26.525 -0.2101  0.2059  0.1502
 9892W        W52804   2.357  12.026  24.448 -0.0176  0.3993  0.0986
 9893W        W52805   2.695  10.540  27.025 -0.3053  0.1448  0.0046
 9894W        W52806   0.495  12.162  26.588  0.4120  0.2626 -0.0046
 9895W        W52807   1.735  13.269  26.151 -0.0639 -0.0419  0.3595
 9896W        W52808   1.412  11.844  26.817 -0.4602 -0.2370 -0.2235
 9897W        W52809   1.832  15.405  26.921 -0.1285  0.2607 -0.0825
 9898W        W52810   0.254  12.629  27.321 -0.0737  0.0183 -0.0538
 9899W        W52811   1.704  11.721  24.492 -0.0410  0.0730 -0.2232
 9900W        W52812   0.761  12.102  24.135  0.3002  0.0452 -0.0380
 9901W        W52813   1.684  10.885  26.813 -0.1586  0.0097  0.1149
 9902W        W52814   2.729  13.922  26.695  0.1093 -0.1346  0.0187
 9903W        W52815   1.211  12.724  23.611 -0.0159  0.2261  0.0028
 9904W        W52816   3.556  11.934  24.871 -0.2590  0.1155 -0.1018
 9905W        W52817   0.268  13.131  26.667  0.1829 -0.2547 -0.1730
 9906W        W52818   2.909  11.887  25.754 -0.1165  0.1189 -0.0147
 9907W        W52819   1.628  11.454  23.017 -0.1102 -0.1412  0.1033
 9908W        W52820   0.740  13.323  25.568 -0.1352  0.0265  0.3360
 9909W        W52821   1.282  12.438  26.444  0.3110  0.1380  0.0180
 9910W        W52822   1.865  11.621  25.373 -0.0894 -0.2167  0.2473
 9911W        W52823   1.459  11.377  26.714  0.0483 -0.2337  0.3140
 9912W        W52824   1.513  11.648  26.253  0.4230  0.0531  0.1952
 9913W        W52825   3.047  11.458  26.084  0.1468  0.0387 -0.2391
 9914W        W52826   2.360  13.009  27.726 -0.2333 -0.3911 -0.1527
 9915W        W52827   0.575  10.642  27.992 -0.2888 -0.1288 -0.0687
 9916W        W52828   2.048  14.959  26.326 -0.2549  0.0827  0.0922
 9917W        W52829   3.004  13.918  25.076  0.2060  0.2253 -0.1100
 9918W        W52830   4.604  12.163  26.328  0.1043 -0.2133 -0.0118
 9919W        W52831   3.042  11.444  24.425 -0.0802  0.0542 -0.1263
 9920W        W52832   2.997  12.759  25.055 -0.1435 -0.3864  0.0307
 9921W        W52833   0.609  13.253  26.282 -0.0440 -0.1982  0.2325
 9922W        W52834   2.639  12.110  28.329  0.0676 -0.1479 -0.1574
 9923W        W52835   0.565  11.080  22.909  0.0312 -0.1706  0.0867
 9924W        W52836   2.412  11.765  26.599 -0.1470  0.1978 -0.2169
 9925W        W52837   2.386  15.137  25.300 -0.3919 -0.3865  0.2586
 9926W        W52838   2.857  13.888  26.204 -0.2002  0.0494  0.0866
 9927W        W52839   1.439  12.312  24.582 -0.1687  0.0552  0.3381
 9928W        W52840  34.054  12.324  26.732  0.0187  0.0533  0.0877
 9929W        W52841  34.410  14.209  25.982  0.1372 -0.0430 -0.2870
 9930W        W52842   1.811  12.334  22.770 -0.0883  0.0281 -0.0892
 9931W        W52843   2.861  13.403  24.308  0.0442  0.0669 -0.0837
 9932W        W52844   1.668  13.701  26.482  0.0799  0.0771 -0.1812
 9933W        W52845   3.005  13.454  29.110 -0.2219  0.2444  0.1272
 9934W        W52846   1.980   9.975  25.575 -0.0200 -0.0331 -0.2789
 9935W        W52847   3.551  11.090  27.888  0.5864 -0.2118 -0.0534
 9936W        W52848   1.167  14.512  25.467 -0.1343 -0.4678 -0.1771
 9937W        W52849   1.883  10.359  26.117 -0.0584 -0.2894 -0.0943
 9938W        W52850  34.558  14.510  26.481  0.0327  0.0906  0.1658
 9939W        W52851  34.221  14.119  26.480  0.1116 -0.1096 -0.3499
 9940W        W52852   2.103  13.346  24.535 -0.1101  0.2053 -0.1499
 9941W        W52853   2.897  11.903  26.450 -0.2064  0.0686 -0.1787
 9942W        W52854   2.457  12.261  26.549 -0.0907 -0.4242  0.1519
 9943W        W52855   1.229  13.124  25.072  0.0138 -0.0110 -0.1211
 9944W        W52856   3.304  11.347  26.608 -0.1733 -0.2996 -0.1195
 9945W        W52857   2.022  12.211  26.783  0.0985  0.2067  0.4519
 9946W        W52858   0.976  13.213  24.344  0.3101 -0.2991  0.0426
 9947W        W52859   2.274  14.374  27.138 -0.0038 -0.1579  0.0499
 9948W        W52860   3.209  12.772  26.407  0.0702  0.2983 -0.0736
 9949W        W52861   1.196  14.002  25.125  0.2309  0.1026  0.4056
 9950W        W52862   0.675  10.933  26.680  0.0084 -0.0321  0.1270
 9951W        W52863   1.427  12.941  27.333 -0.2517 -0.0287  0.2644
 9952W        W52864   1.340  13.636  26.057  0.3073  0.2245  0.2072
 9953W        W52865   1.899  10.913  25.900  0.0564 -0.0829  0.0311
 9954W        W52866   1.863  13.023  23.640  0.2069 -0.0640 -0.0720
 9955W        W52867  34.065  14.610  25.193 -0.1853 -0.1130  0.0031
 9956W        W52868  34.552  12.788  26.581  0.0685  0.0477 -0.1005
 9957W        W52869   1.114  14.356  24.267  0.0618  0.1151 -0.0575
 9958W        W52870   3.517  13.222  25.668 -0.0490 -0.0558 -0.1288
 9959W        W52871   1.425  13.347  25.597  0.1427 -0.0169 -0.3253
 9960W        W52872   2.515  14.961  25.791  0.1412  0.0304  0.0109
 9961W        W52873   2.852  11.187  23.806 -0.3324  0.1023  0.0926
 9962W        W52874   1.911  14.993  25.618 -0.0284  0.1809  0.1639
 9963W        W52875   2.026  15.033  23.503 -0.0819  0.3386  0.0839
 9964W        W52876   2.304  12.907  24.520  0.1031  0.1228 -0.0309
 9965W        W52877   1.663  14.665  26.248  0.3391  0.0038 -0.1329
 9966W        W52878   3.192  13.135  27.988 -0.0490 -0.0100  0.2002
 9967W        W52879   2.956  10.378  22.218  0.0154 -0.0989  0.0832
 9968W        W52880   3.971  12.294  24.775  0.1174  0.2801 -0.2236
 9969W        W52881   4.248  11.939  26.067  0.3722  0.1407 -0.1495
 9970W        W52882   2.792  14.051  28.106  0.2115  0.1005  0.0665
 9971W        W52883   2.085  12.856  26.088  0.0783 -0.0406 -0.0215
 9972W        W52884   0.281  12.576  25.444 -0.1056 -0.3312  0.0366
 9973W        W52885   0.802  11.102  27.809  0.2936  0.0365  0.1000
 9974W        W52886   3.036  11.248  27.685  0.0355  0.1597 -0.2356
 9975W        W52887  34.305  15.339  26.864 -0.0307  0.3651 -0.2162
 9976W        W52888   2.704  14.167  24.595 -0.0214  0.0498  0.0013
 9977W        W52889  34.520  13.616  25.016 -0.1083  0.1951 -0.1085
 9978W        W52890   2.465  13.299  26.868  0.0838 -0.3301 -0.2514
 9979W        W52891   3.167  10.476  26.760  0.0846  0.1137 -0.0404
 9980W        W52892   2.618  13.886  24.132  0.0299  0.1851  0.0247
 9981W        W52893   1.706  11.350  25.889 -0.2511  0.1392 -0.3643
 9982W        W52894   1.012  15.002  25.424 -0.3237  0.1065 -0.2311
 9983W        W52895   0.367  13.660  26.284  0.0419 -0.1242  0.0620
 9984W        W52896   1.794  15.745  25.813  0.0418  0.0881 -0.3075
 9985W        W52897   0.304  12.066  23.843 -0.0121  0.2981 -0.1102
 9986W        W52898   4.675  11.552  24.821  0.1972  0.0389 -0.2131
 9987W        W52899   1.894  11.750  26.669 -0.1513 -0.0164  0.1529
 9988W        W52900   3.387  10.715  25.409 -0.1888  0.2520  0.2528
 9989W        W52901   1.877  12.604  25.604  0.1172  0.1067 -0.0072
 9990W        W52902   3.270  11.340  25.177  0.2482 -0.3431 -0.1117
 9991W        W52903   2.153  12.533  27.830 -0.1858 -0.0331 -0.0009
 9992W        W52904   1.247  13.372  26.472  0.0657  0.2646 -0.0577
 9993W        W52905   1.090   9.903  24.458 -0.0389 -0.2420  0.1529
 9994W        W52906   3.705  13.446  27.354  0.0368  0.0600 -0.0284
 9995W        W52907   2.372  11.372  23.629 -0.0536 -0.2657 -0.1840
 9996W        W52908   3.090  14.939  28.201  0.0140 -0.3488 -0.2601
 9997W        W52909   0.497  12.742  26.314  0.0024  0.0180 -0.4527
 9998W        W52910   1.500  11.930  25.665  0.0161  0.0263  0.0601
 9999W        W52911   0.456  13.091  25.249 -0.1410 -0.0557 -0.2856
10000W        W52912   1.007  13.185  25.979  0.0842  0.1497  0.2013
10001W        W52913   3.096  15.197  26.786  0.2269 -0.2067 -0.2698
10002W        W52914   0.998  12.611  25.872  0.0742  0.2817  0.1610
10003W        W52915   2.322  13.603  23.220  0.1255 -0.2881  0.1380
10004W        W52916   3.730  11.174  25.734  0.4220  0.1080 -0.0921
10005W        W52917   2.195  13.889  24.384  0.2408  0.0665 -0.1211
10006W        W52918   2.126  12.682  26.618 -0.0384  0.2065 -0.0575
10007W        W52919   3.199  13.585  25.437  0.1947  0.1309  0.3110
10008W        W52920  34.490  10.790  26.333 -0.0163  0.0368 -0.0185
10009W        W52921   3.018  14.933  26.339  0.2559  0.0116 -0.0927
10010W        W52922   3.381  13.317  26.943 -0.1466 -0.0861 -0.3047
10011W        W52923   2.041   9.841  24.890  0.0257  0.3176 -0.0976
10012W        W52924   1.103  13.978  26.408 -0.0732 -0.0224  0.0817
10013W        W52925  34.526  14.148  23.943 -0.0423 -0.0953 -0.4765
10014W        W52926   3.869  10.800  26.022  0.0267  0.2211 -0.2758
10015W        W52927   3.066  10.876  25.050 -0.1232 -0.0340 -0.0710
10016W        W52928   2.793  13.502  23.671 -0.1752 -0.1408  0.0251
10017W        W52929   2.734  10.641  26.531 -0.0092  0.0023  0.0738
10018W        W52930   2.684  12.499  28.018 -0.2175  0.0186 -0.0198
10019W        W52931  34.371  13.645  28.065 -0.0271 -0.1019  0.0647
10020W        W52932   1.443  13.424  23.716  0.2285 -0.0691 -0.2589
10021W        W52933   1.364  13.935  26.841 -0.1986 -0.2667 -0.0870
10022W        W52934   2.460  13.286  25.449 -0.0280 -0.0211  0.0554
10023W        W52935   1.316  14.065  25.684  0.0782  0.1826  0.2356
10024W        W52936   2.994  13.112  26.137  0.1703  0.0308 -0.1974
10025W        W52937   2.634  11.223  25.771 -0.0634 -0.1736 -0.0270
10026W        W52938   3.125  12.003  25.318 -0.1676  0.3148 -0.0194
10027W        W52939   1.459  11.353  25.466 -0.0042 -0.0736  0.3251
10028W        W52940   3.449  11.422  24.684 -0.4405 -0.0182  0.1186
10029W        W52941   3.308  11.148  24.135 -0.2087 -0.1501 -0.2238
10030W        W52942   0.839  13.101  26.697  0.0441 -0.0444 -0.1137
10031W        W52943   1.009  12.621  23.143  0.4995  0.3311 -0.2029
10032W        W52944   2.239  12.155  23.851  0.1281 -0.2817  0.0118
10033W        W52945   0.371  14.168  25.848  0.1234  0.0302 -0.2228
10034W        W52946   1.675  11.550  27.646 -0.2608 -0.1358  0.1161
10035W        W52947   2.073  11.746  26.137  0.1177  0.1987 -0.0756
10036W        W52948   1.801  13.124  24.948 -0.3472  0.0655 -0.2116
10037W        W52949   1.183  12.474  24.074  0.2698 -0.2055 -0.1637
10038W        W52950   2.590  13.729  25.182 -0.0990 -0.0720 -0.0367
10039W        W52951   1.049  11.475  26.402 -0.0444 -0.3300  0.1700
10040W        W52952   0.807  11.787  26.702  0.2871  0.1809  0.3763
10041W        W52953   3.443  12.534  24.906  0.0424  0.1020 -0.1360
10042W        W52954   2.649  13.419  26.403  0.1558  0.0269  0.2328
10043W        W52955   1.543  11.920  24.887  0.0488  0.2476 -0.0900
10044W        W52956   2.435  13.730  27.837  0.2109 -0.0377 -0.1366
10045W        W52957  33.185  12.553  23.050 -0.5171  0.0471 -0.0706
10046W        W52958   2.266  12.917  27.171  0.3194 -0.1626  0.2120
10047W        W52959   1.605  11.087  27.252 -0.1258  0.1561  0.1326
10048W        W52960   0.158  10.731  24.772 -0.1437  0.1711 -0.1297
10049W        W52961   0.507  12.876  25.772  0.0289 -0.1386 -0.0196
10050W        W52962   2.414  14.471  24.341  0.2478 -0.0232  0.0537
10051W        W52963   3.874  14.614  22.528  0.1826  0.2607  0.1042
10052W        W52964   0.783  13.591  26.573  0.0326  0.1075  0.1771
10053W        W52965   2.286  14.772  26.808 -0.0514  0.3210 -0.3243
10054W        W52966   0.754  10.948  27.273 -0.1378 -0.0948  0.1366
10055W        W52967   2.860  11.272  24.864 -0.2588  0.1244  0.2294
10056W        W52968   2.181  13.186  26.477  0.3291  0.1034  0.1975
10057W        W52969   3.810  12.685  25.700  0.0016 -0.1754  0.0028
10058W        W52970   4.557  11.452  27.333  0.2582  0.0916  0.1352
10059W        W52971   2.012  13.479  25.215 -0.0192  0.2381 -0.0422
10060W        W52972   0.376  10.728  27.547 -0.1136  0.3068  0.1353
10061W        W52973  34.675  11.580  27.609  0.3192  0.2034 -0.0938
10062W        W52974   2.844  12.551  26.079 -0.3565 -0.0595 -0.3248
10063W        W52975   2.324  10.672  26.244 -0.1556  0.0897  0.0188
10064W        W52976   2.375  11.418  25.088 -0.1545  0.1386  0.0364
10065W        W52977   1.760  14.410  25.524 -0.1895 -0.1222 -0.1417
10066W        W52978  34.342  13.281  25.951 -0.1514 -0.2844 -0.1509
10067W        W52979   1.425  10.960  24.163 -0.1273  0.0923  0.1104
10068W        W52980   2.593  11.591  26.153  0.1135  0.0193 -0.0887
10069W        W52981   2.641  12.869  26.430 -0.3179  0.0318 -0.0496
10070W        W52982   3.255  11.483  27.089  0.0377  0.2549  0.0997
10071W        W52983   2.097  12.704  24.941  0.0317  0.0250 -0.2138
10072W        W52984   2.872  11.967  24.357  0.2758 -0.0701 -0.3605
10073W        W52985   2.922  12.646  27.104 -0.1442  0.0953 -0.1403
10074W        W52986   2.888  13.801  27.607 -0.0094  0.1581 -0.1644
10075W        W52987   1.757  13.975  26.026  0.4561 -0.3087  0.1791
10076W        W52988   2.410  12.530  25.822 -0.2490  0.0744 -0.3107
10077W        W52989   1.679   9.810  26.514  0.1787 -0.0727  0.0365
10078W        W52990  34.454  12.569  25.606  0.3609  0.0145 -0.2885
10079W        W52991   1.546  12.584  25.000 -0.1684  0.0302 -0.0459
10080W        W52992   2.815  11.494  26.734 -0.0481  0.0623 -0.2428
10081W        W52993  34.188  12.984  25.490  0.0355 -0.3052  0.2379
10082W        W52994   3.266  10.943  24.592 -0.1034  0.0463  0.3669
10083W        W52995   1.644  14.369  27.058 -0.0026  0.1965  0.1170
10084W        W52996   1.638  13.133  26.707  0.1194  0.1433  0.0057
10085W        W52997   1.522  13.080  31.348  0.0211 -0.3137 -0.0299
10086W        W52998   2.088  12.164  28.190 -0.1499 -0.2725  0.0769
10087W        W52999   3.741  12.584  27.669  0.1099  0.0733 -0.2671
10088W        W53000   3.609  13.213  28.798 -0.1502 -0.1227  0.0164
10089W        W53001   0.639  12.016  28.153  0.0663 -0.0173 -0.3168
10090W        W53002   2.481  15.237  28.814  0.2201  0.1477  0.1788
10091W        W53003   0.165  10.518  30.631 -0.0960  0.2618 -0.0400
10092W        W53004   2.769  13.348  30.408  0.2427 -0.4764  0.1349
10093W        W53005   3.695  13.098  30.238 -0.0306  0.0140  0.1045
10094W        W53006   2.246  11.870  28.627 -0.1821  0.3632  0.2997
10095W        W53007   1.681  13.541  31.438 -0.2139 -0.0949  0.1860
10096W        W53008   1.678  11.819  31.719  0.0229 -0.1759  0.0225
10097W        W53009   1.560  10.716  29.339 -0.0305 -0.2856 -0.0648
10098W        W53010  33.647  11.315  29.248  0.0723 -0.0146 -0.1029
10099W        W53011   2.708  12.829  30.298 -0.0449 -0.0238 -0.0565
10100W        W53012   0.696  12.530  27.561 -0.1481 -0.1401 -0.1594
10101W        W53013   1.615  12.546  29.879 -0.0856 -0.0197 -0.1592
10102W        W53014   0.857  12.238  29.003 -0.0295 -0.0735 -0.3192
10103W        W53015   1.761  14.224  28.943  0.0610 -0.2552  0.2445
10104W        W53016   2.618  11.388  29.760  0.0593  0.2478  0.3806
10105W        W53017   3.231  10.068  30.438  0.2048 -0.1043 -0.0747
10106W        W53018   0.863  13.979  29.411  0.3037 -0.0776  0.0380
10107W        W53019   1.498  11.491  28.376 -0.2580  0.3061  0.1848
10108W        W53020  34.501  11.545  29.015  0.0091 -0.0034  0.1351
10109W        W53021  34.339  12.056  31.559 -0.0417  0.2122  0.2311
10110W        W53022   2.823  11.719  29.379  0.0950 -0.3233  0.2476
10111W        W53023   2.113  12.258  29.818 -0.1396 -0.2624 -0.0628
10112W        W53024   0.512  13.632  30.159 -0.2729 -0.0499  0.0651
10113W        W53025   2.079  14.423  29.303  0.0103 -0.2980  0.0635
10114W        W53026   2.791  11.646   0.169  0.1266 -0.1962  0.2174
10115W        W53027   0.159  12.303  29.392  0.2952 -0.3697  0.2923
10116W        W53028   0.440  14.259  28.266 -0.2046 -0.1548  0.2333
10117W        W53029   0.858  14.507  29.518 -0.0758 -0.1937 -0.1825
10118W        W53030   2.166  13.878  28.383  0.2762 -0.2243  0.0581
10119W        W53031   2.943  14.015  29.061 -0.1069  0.0243 -0.1286
10120W        W53032   1.048  13.126  31.516  0.0573  0.0927 -0.0727
10121W        W53033   0.843  13.653  28.401 -0.0650  0.4123 -0.2981
10122W        W53034   1.463  15.203  30.327 -0.0357  0.0322  0.0119
10123W        W53035   0.136  14.558  30.617 -0.1738  0.3024  0.1860
10124W        W53036   1.402  11.894  30.512  0.2146 -0.0756  0.0037
10125W        W53037   2.047  12.357  28.691 -0.0590 -0.3144 -0.0260
10126W        W53038   0.835  13.709  27.627  0.1710 -0.1573  0.4148
10127W        W53039   2.539  13.715  29.275 -0.2061  0.3415 -0.1584
10128W        W53040   0.293  14.066  30.627 -0.0391 -0.0424 -0.0896
10129W        W53041   0.737  14.992  29.605 -0.4736 -0.0942 -0.1679
10130W        W53042   4.139  11.314   1.981  0.2945 -0.2329 -0.4377
10131W        W53043   1.239  14.741  28.551  0.1089  0.2797  0.0376
10132W        W53044   3.226  13.302  27.453  0.0947 -0.0278 -0.0350
10133W        W53045   1.507  11.531  27.187  0.0272 -0.0248  0.2321
10134W        W53046   4.035  11.905  29.263  0.0231 -0.2914 -0.2512
10135W        W53047   0.150  11.163  28.931 -0.0485  0.0068 -0.0022
10136W        W53048   1.587  13.603  29.926 -0.0124 -0.1046  0.4208
10137W        W53049   1.057  11.254  31.626 -0.1205 -0.0883  0.0301
10138W        W53050   2.845  13.967  29.570 -0.1070 -0.0048 -0.3244
10139W        W53051   1.254  12.352  27.837  0.2245  0.3254 -0.0053
10140W        W53052   2.285  12.068  30.364  0.4495 -0.2533 -0.4727
10141W        W53053   1.537  13.195  30.482 -0.0883 -0.0736  0.1231
10142W        W53054   0.623  11.682  30.031  0.2201  0.1052 -0.1190
10143W        W53055   1.758  13.813  28.659  0.0350 -0.0474 -0.1540
10144W        W53056   3.784  14.885  28.789  0.3272  0.0114 -0.1344
10145W        W53057   2.237  14.384  27.644  0.0072 -0.0959  0.0230
10146W        W53058   1.726  12.509  28.072  0.1274  0.0420 -0.0971
10147W        W53059  34.460  12.706  29.851 -0.0320 -0.5770 -0.2155
10148W        W53060   0.415  11.770   0.178 -0.0738 -0.1466  0.3866
10149W        W53061   1.672  12.102  26.408  0.0337 -0.2305 -0.1076
10150W        W53062   2.275  12.678  31.022 -0.0490 -0.0162 -0.1139
10151W        W53063   0.168  12.532  30.429  0.0615 -0.1213  0.1093
10152W        W53064   3.926  12.350  28.655  0.1846 -0.1687  0.2582
10153W        W53065   1.285  13.785  28.389 -0.0514 -0.0102 -0.0625
10154W        W53066   3.154  11.208  31.059 -0.0537  0.2248 -0.2962
10155W        W53067   2.762  13.129  27.284 -0.4494  0.0927  0.2262
10156W        W53068   3.074  11.103  28.983  0.1766 -0.1776 -0.0194
10157W        W53069   3.129  11.438  29.711 -0.2232 -0.0122 -0.3433
10158W        W53070  34.335  12.833  27.946  0.2224  0.2774 -0.1963
10159W        W53071   1.751  11.899  28.550  0.0887 -0.1852 -0.0721
10160W        W53072   3.542  14.743  29.569 -0.3607 -0.2771  0.0286
10161W        W53073   3.983  13.319  28.424  0.3682  0.1314 -0.1311
10162W        W53074  34.649  12.628  30.913  0.1956 -0.1755 -0.1094
10163W        W53075   2.438  11.884  29.901  0.0917 -0.0922 -0.2608
10164W        W53076   1.306  14.291  31.449 -0.2375 -0.0283  0.1488
10165W        W53077  34.510  15.118  26.489 -0.0026 -0.0588  0.0461
10166W        W53078  34.592  12.272  29.934 -0.0157 -0.1057 -0.3003
10167W        W53079   0.333  12.996  28.745 -0.0366 -0.0027 -0.0255
10168W        W53080   0.551  10.787  30.456  0.0290 -0.0929 -0.0006
10169W        W53081   0.930  12.696  29.798  0.0337 -0.0271  0.2042
10170W        W53082   2.939  11.660  28.253  0.1218 -0.1012  0.1467
10171W        W53083   1.004   9.872  31.249 -0.0399  0.2953  0.0396
10172W        W53084   3.747   9.894  29.637  0.0065  0.0146  0.1318
10173W        W53085   1.289  14.305  29.265  0.2685  0.1979  0.1369
10174W        W53086   2.577  15.086  28.336 -0.1604 -0.0175 -0.2929
10175W        W53087   3.942  11.869  28.208  0.0795  0.0560 -0.0422
10176W        W53088   3.028  13.213  28.673 -0.1822  0.0803 -0.1702
10177W        W53089   1.690  11.510  30.384  0.1169 -0.0532  0.0964
10178W        W53090   0.693  12.702  28.605  0.2152  0.0226 -0.4346
10179W        W53091   1.035  11.259  31.103  0.3340 -0.4037  0.0620
10180W        W53092   0.015  11.309  28.445  0.3480 -0.3055  0.1423
10181W        W53093   2.807  11.706  31.067 -0.1646  0.1203  0.2986
10182W        W53094   0.486  10.855  28.814 -0.0434 -0.2880 -0.0006
10183W        W53095   3.614  11.643  28.516 -0.2535 -0.2078 -0.0290
10184W        W53096   1.687  12.198  29.554 -0.1036  0.0819 -0.0742
10185W        W53097   1.285  13.125  29.956  0.1425  0.0762  0.0663
10186W        W53098   2.295   9.448  30.734  0.2262 -0.0375  0.1679
10187W        W53099   2.869  15.667  28.479 -0.0968  0.1402  0.0238
10188W        W53100   3.416  13.551  30.215 -0.2165 -0.1490  0.0473
10189W        W53101   1.746  14.100  28.206  0.0842 -0.1981 -0.3432
10190W        W53102   0.999  10.757  30.168 -0.3044 -0.2806  0.1583
10191W        W53103   1.094  11.360  28.720  0.3268  0.0249 -0.3885
10192W        W53104   0.027  14.012  29.331 -0.1805 -0.1031 -0.0106
10193W        W53105   0.579  13.671  29.654  0.3274 -0.1802 -0.0186
10194W        W53106   1.969  11.435  29.071  0.0052  0.1485 -0.0987
10195W        W53107   2.996  14.579  29.030 -0.1393  0.0456 -0.0977
10196W        W53108   0.938  14.450  28.951 -0.0450  0.1349 -0.1578
10197W        W53109   1.043  12.587  30.706 -0.2846  0.0673 -0.0467
10198W        W53110   3.630   9.972  31.295  0.0547  0.1276  0.0682
10199W        W53111   2.863  11.239  30.653  0.0337  0.5287  0.0509
10200W        W53112   1.202  12.306  29.714  0.1930 -0.1645 -0.1488
10201W        W53113   1.773  12.043  29.040 -0.5127 -0.1201  0.1503
10202W        W53114   3.637  16.352  28.599  0.0467  0.0544 -0.0523
10203W        W53115   1.200  14.827  29.216  0.0288  0.0627 -0.1344
10204W        W53116   1.136  12.718  28.290 -0.0700 -0.1444 -0.1857
10205W        W53117   2.547  12.791  29.822 -0.3147  0.2161  0.0475
10206W        W53118   3.425  11.307  29.313  0.0513 -0.0124 -0.0251
10207W        W53119   0.177  10.832   0.603  0.1381  0.1698 -0.0268
10208W        W53120   1.867  11.366  30.944 -0.0816  0.2962  0.1080
10209W        W53121   0.508  12.896  27.900  0.2103 -0.1166 -0.0998
10210W        W53122   1.279  14.278  31.953  0.2266 -0.3396  0.1112
10211W        W53123   3.431  11.570  28.017  0.1183 -0.2659  0.0166
10212W        W53124   3.873  11.343  28.134  0.0535 -0.1385 -0.2577
10213W        W53125   2.375  13.134  31.696 -0.2666  0.0242 -0.0789
10214W        W53126   1.769  14.005  29.429 -0.0639 -0.0303  0.2955
10215W        W53127   3.472  12.483  28.742 -0.1808  0.2820 -0.0931
10216W        W53128   1.862  12.978  28.101 -0.0797 -0.4172  0.1729
10217W        W53129   0.632  11.927  28.656  0.2907  0.1985  0.3180
10218W        W53130   2.144  13.961  29.084 -0.2087  0.0905 -0.3090
10219W        W53131   1.249  11.855  30.020  0.4102 -0.2044  0.1349
10220W        W53132   3.237  12.625  27.963  0.0802 -0.0869  0.0659
10221W        W53133   2.123  14.783  28.939 -0.1668  0.1967  0.0132
10222W        W53134   0.319  12.109  30.186 -0.2577  0.0523 -0.1664
10223W        W53135   1.798  12.825   0.741 -0.0554  0.2815 -0.1428
10224W        W53136   2.028  15.381  28.698  0.1737  0.1260 -0.2178
10225W        W53137   0.851  11.769  29.147 -0.1643  0.0960  0.0445
10226W        W53138   2.088  12.361  27.343  0.3658 -0.0028 -0.2760
10227W        W53139   1.707  10.891  31.272 -0.1358 -0.1438  0.0526
10228W        W53140   0.495  13.953  28.630  0.0577  0.1116 -0.1392
10229W        W53141   0.737  11.255  29.149  0.1371  0.0921 -0.2129
10230W        W53142   1.530  11.401  29.933 -0.1475  0.0020 -0.4118
10231W        W53143   2.276  10.478  30.706  0.0749 -0.0509 -0.1738
10232W        W53144   2.764  11.049  31.531  0.1946  0.0102  0.2643
10233W        W53145   2.262  12.814  28.870  0.1772  0.1543  0.0860
10234W        W53146   2.121  12.693  30.161  0.3032  0.1633 -0.4886
10235W        W53147   1.915  12.872  27.535  0.3485  0.0666  0.2853
10236W        W53148   2.418  10.988  30.701  0.0915 -0.0519 -0.2100
10237W        W53149   1.297  12.860  31.828  0.1359  0.1175  0.4017
10238W        W53150   0.999  13.499  30.468 -0.1312  0.1942  0.0411
10239W        W53151   1.941  13.600   0.022  0.4167  0.0382  0.4243
10240W        W53152   1.594  11.726  29.590 -0.0284  0.1812 -0.0782
10241W        W53153   2.028  11.112  30.430 -0.3058  0.1090 -0.3223
10242W        W53154   1.794  12.083  27.799  0.0400  0.1476  0.1907
10243W        W53155   1.259  13.927  30.186 -0.0621 -0.0950  0.1796
10244W        W53156   1.338  14.170  28.668 -0.1851 -0.2376 -0.2614
10245W        W53157   0.602  11.371  28.627 -0.1210 -0.0064 -0.1497
10246W        W53158   2.481  15.192  30.308 -0.3096 -0.2268  0.1802
10247W        W53159   2.009  13.922  27.866  0.1346  0.2848  0.2260
10248W        W53160   2.502  13.811  31.205  0.2346  0.0909  0.2210
10249W        W53161   0.638  12.424  29.532 -0.0125  0.0601 -0.0161
10250W        W53162   2.650  10.198  30.317  0.0079  0.0687 -0.1469
10251W        W53163  34.685  13.270  29.045  0.3386 -0.0215  0.1248
10252W        W53164   0.284  11.359  29.349 -0.0180  0.0672  0.0668
10253W        W53165  34.176  12.143  27.947 -0.2037 -0.1120  0.2094
10254W        W53166   2.313  11.621  30.575  0.1241  0.1825 -0.0381
10255W        W53167   3.055  12.421  28.360  0.1251  0.0376 -0.1922
10256W        W53168   1.222  11.968  31.007  0.4205  0.0798 -0.0682
10257W        W53169   3.190  12.001  28.586  0.1799 -0.4468 -0.0041
10258W        W53170   0.413  14.243  29.675  0.1245 -0.0025  0.1137
10259W        W53171   3.497  13.153  30.666 -0.2191 -0.1243 -0.2529
10260W        W53172   2.626  10.872  27.823  0.5801  0.3106 -0.4854
10261W        W53173   1.833  14.968  29.945 -0.2313 -0.2605  0.0482
10262W        W53174   2.051  13.849   0.498 -0.0348 -0.3445 -0.2662
10263W        W53175   1.094  11.320  27.411  0.3043  0.0305 -0.0936
10264W        W53176   3.198  12.161  30.323  0.2237 -0.2231 -0.1899
10265W        W53177   1.673  11.104  28.883 -0.0640 -0.2720  0.2738
10266W        W53178   0.139  12.126  28.061  0.1997  0.0691 -0.2218
10267W        W53179   2.065  14.956  29.398  0.0155 -0.1371  0.0892
10268W        W53180   0.832  12.534  26.678 -0.0700  0.0534 -0.4359
10269W        W53181   1.734  13.553  29.131 -0.0753 -0.0691 -0.0633
10270W        W53182   0.977  11.618  30.367  0.0213 -0.1019  0.0507
10271W        W53183   2.674  12.320  30.197  0.1249 -0.2784  0.0045
10272W        W53184   1.393  11.446  30.817  0.1217  0.0959  0.1614
10273W        W53185   1.136  11.306  29.573  0.0486  0.0909 -0.4119
10274W        W53186   1.745  12.663  29.056 -0.0208  0.1924 -0.2162
10275W        W53187   1.887  13.109  30.066  0.4054  0.0393  0.2672
10276W        W53188   2.094  11.495  30.113 -0.2383 -0.0445 -0.0728
10277W        W53189   2.208  15.215   0.564 -0.2629 -0.0336 -0.0279
10278W        W53190   1.965  10.586  29.003  0.0484  0.0539  0.2392
10279W        W53191   3.072  16.307  27.684  0.0833 -0.3227 -0.1781
10280W        W53192   2.792  13.446  30.908  0.0801 -0.3717  0.1457
10281W        W53193   0.907  14.251  28.449  0.0620  0.5397 -0.0429
10282W        W53194   0.824  12.241  30.090 -0.0771  0.0318 -0.1813
10283W        W53195   0.972  13.147  28.444  0.0297  0.0931  0.0555
10284W        W53196   0.867  10.395  31.228 -0.1156  0.0994 -0.2106
10285W        W53197   2.146  13.509  28.824  0.2432  0.0014  0.1678
10286W        W53198  34.476  11.749  28.167 -0.0324 -0.0961 -0.0220
10287W        W53199   1.802  12.253  30.336 -0.0708 -0.2161 -0.0483
10288W        W53200   3.498  10.668  28.212  0.1984 -0.1512 -0.0350
10289W        W53201   2.755  13.293  27.825 -0.2070  0.0660  0.0084
10290W        W53202   1.070  12.649  29.242 -0.0853  0.0227 -0.1563
10291W        W53203   3.233  10.856  31.452  0.4658  0.3438 -0.2362
10292W        W53204   4.151  13.755  29.316  0.3147  0.0553  0.2784
10293W        W53205   1.484  10.947  30.782  0.2920  0.0440  0.0481
10294W        W53206   0.374  11.412  31.718  0.0603  0.3115 -0.0465
10295W        W53207   3.189  14.336  29.516 -0.2463 -0.1013  0.4110
10296W        W53208   1.488  12.244  31.517  0.0885  0.0202 -0.2637
10297W        W53209   3.773  14.390  31.036 -0.0287  0.0200  0.0729
10298W        W53210   0.110  12.296  31.747  0.2567 -0.1074  0.1093
10299W        W53211   1.934  11.849  27.168 -0.0257  0.0463 -0.0959
10300W        W53212   1.400  11.019  28.439 -0.0578 -0.0085  0.1327
10301W        W53213   0.945  12.947  31.053  0.0907  0.0991 -0.1961
10302W        W53214   2.357  13.235  30.225 -0.2306  0.0816 -0.0180
10303W        W53215   2.648  12.981  28.260  0.2196 -0.1589  0.2331
10304W        W53216   3.029  12.540  29.955 -0.1179  0.2679  0.3919
10305W        W53217   0.418  14.231  30.161 -0.1845 -0.0552 -0.0337
10306W        W53218   2.599  13.215  28.942  0.1130  0.0069 -0.1164
10307W        W53219   2.336  12.581  28.394 -0.1521 -0.2403  0.0457
10308W        W53220   0.448  13.241  29.274 -0.1984  0.1900  0.1646
10309W        W53221   0.005  11.789  31.796  0.0249  0.0619 -0.0662
10310W        W53222   3.714  12.098  30.298 -0.2484  0.0483  0.0190
10311W        W53223   2.390  11.936  29.102  0.0515  0.2756 -0.0641
10312W        W53224   3.010  10.328  29.991 -0.0579 -0.1739 -0.3413
10313W        W53225   2.485  11.908  31.561 -0.0643  0.1671  0.0531
10314W        W53226   2.597  12.245  29.659  0.1056  0.1447  0.1602
10315W        W53227   1.051  11.143  30.576  0.1802  0.0844  0.0547
10316W        W53228   1.685  13.947  30.506 -0.1057  0.0030 -0.2640
10317W        W53229   3.657  11.841  27.118  0.3252  0.0532  0.1561
10318W        W53230   3.280  11.563  30.675  0.2245 -0.0565  0.0234
10319W        W53231   2.943  13.054  29.503 -0.3926  0.3081 -0.1589
10320W        W53232   3.156  12.705  29.169  0.1110 -0.1487 -0.0900
10321W        W53233   2.919  11.457  30.168  0.0719  0.0457 -0.0135
10322W        W53234   3.505  13.664  31.379  0.1522  0.1000  0.1676
10323W        W53235   1.195  11.737  27.792  0.0311 -0.0191 -0.1984
10324W        W53236   2.045  12.076  31.459  0.3121  0.0250 -0.1441
10325W        W53237   1.774  14.448  27.831 -0.4050  0.2452  0.0781
10326W        W53238   2.082  13.872  30.955 -0.1471 -0.0435 -0.2559
10327W        W53239   3.620  13.531  29.687  0.1096  0.0327  0.3834
10328W        W53240   1.062  11.236  30.079  0.1162 -0.0287  0.5424
10329W        W53241   0.277  13.593  31.144 -0.0478 -0.0750 -0.2110
10330W        W53242   1.822  12.679  27.021 -0.0463  0.3700 -0.3309
10331W        W53243   1.585  13.538  27.980  0.0137  0.4138  0.1234
10332W        W53244   2.505  13.663  31.839  0.0087  0.0694  0.3464
10333W        W53245   3.989  12.330  31.444 -0.0167  0.0740 -0.0879
10334W        W53246   2.474  12.007  27.308 -0.0111 -0.2924 -0.3379
10335W        W53247   3.214  10.648  30.919  0.0432 -0.0089 -0.0628
10336W        W53248   0.528  14.548  28.660 -0.2090 -0.1538 -0.0165
10337W        W53249   2.060  11.876  29.521  0.0677  0.0557 -0.0707
10338W        W53250   1.401  15.038  29.683  0.0601  0.1193 -0.2279
10339W        W53251  33.484  13.127  30.361 -0.0850  0.1633  0.2013
10340W        W53252   1.340  14.036  29.682  0.0967 -0.1303  0.0735
10341W        W53253   2.412  10.925  29.863  0.1267 -0.1066 -0.1009
10342W        W53254   3.395  11.739  30.093  0.0055  0.0409 -0.0894
10343W        W53255   1.665  12.739  30.389 -0.0143  0.2862 -0.0578
10344W        W53256   4.047  12.067  31.009  0.2073  0.1122  0.0052
10345W        W53257   2.531  13.633  29.774 -0.0816 -0.0321  0.1406
10346W        W53258   1.432  12.787  29.515 -0.0642  0.1961  0.0216
10347W        W53259   2.491  12.660   0.037  0.0068  0.0230 -0.2479
10348W        W53260   4.839  12.966  30.030  0.1526  0.1137  0.0006
10349W        W53261   1.737  13.200  28.763 -0.4590  0.0115 -0.2221
10350W        W53262  33.855  11.343  31.625  0.1084 -0.1727 -0.0408
10351W        W53263   1.939  13.504  30.503  0.1068  0.2498  0.1169
10352W        W53264   1.295  13.101  29.120 -0.0399 -0.0361 -0.0039
10353W        W53265   0.149  10.447  28.239  0.2593 -0.1392 -0.1360
10354W        W53266   2.224  13.316  28.062 -0.0655 -0.0990  0.0170
10355W        W53267   0.294  14.767  31.077  0.1263 -0.1640 -0.0673
10356W        W53268   1.718  13.208  29.580 -0.0022 -0.2584 -0.0458
10357W        W53269   0.851  14.694  28.135 -0.0207  0.1501 -0.4542
10358W        W53270   2.908  14.268  28.559 -0.2607 -0.0256 -0.5095
10359W        W53271   3.039  12.219  29.459 -0.2517  0.2658 -0.3663
10360W        W53272   2.611  14.782  29.315  0.0113 -0.0338 -0.3565
10361W        W53273   2.511  12.592  27.475  0.1827 -0.1297  0.0049
10362W        W53274   1.003  13.562  29.891  0.0869 -0.0225  0.2397
10363W        W53275   0.486  13.190  28.275  0.0764 -0.0728 -0.3223
10364W        W53276   2.437  16.118  27.439 -0.0484  0.2057 -0.1879
10365W        W53277   0.821  15.057  28.745  0.2131 -0.1377 -0.0518
10366W        W53278   3.785  13.320  31.065 -0.2731 -0.1645  0.1563
10367W        W53279   2.728  11.873  28.731 -0.2064  0.1567 -0.0874
10368W        W53280   5.176  12.641  30.480  0.3369 -0.1647  0.0768
10369W        W53281   3.555  12.321  29.288 -0.0468  0.0247  0.0570
10370W        W53282   2.251  15.345  31.355 -0.3103  0.2235 -0.0638
10371W        W53283   1.300  10.826  29.737  0.2566  0.0684  0.0762
10372W        W53284   2.283  11.185  28.054  0.0134  0.0771  0.0260
10373W        W53285   1.474  10.935  31.739  0.1318 -0.3030  0.1953
10374W        W53286   2.714   9.191  30.904  0.1850  0.2818  0.1367
10375W        W53287  34.342  13.935  31.134  0.1655 -0.2269  0.4013
10376W        W53288   2.280  14.856  27.966  0.2400  0.0246 -0.1208
10377W        W53289  33.689  12.108  28.238  0.2056 -0.3496 -0.0000
10378W        W53290   0.822  13.100  28.897  0.0899 -0.0571 -0.2509
10379W        W53291   4.355  11.144  30.051  0.1854 -0.0552 -0.2555
10380W        W53292   1.881  13.217  27.160 -0.0971 -0.2314 -0.0686
10381W        W53293   1.496  12.357  30.819 -0.1935 -0.2099 -0.2171
10382W        W53294   2.095  13.545  29.505  0.3632 -0.0396 -0.2870
10383W        W53295   2.119  12.378  29.212  0.0107  0.1124  0.3928
10384W        W53296   0.772  13.976  30.410  0.2035  0.1068 -0.1430
10385W        W53297   0.807  12.098  27.683  0.0843  0.1587  0.0433
10386W        W53298   2.669  11.639  27.791 -0.0916  0.1114 -0.3165
10387W        W53299   0.200  12.282   0.319  0.1484 -0.0932  0.0465
10388W        W53300   2.947  10.903  30.095 -0.0642 -0.2348  0.0523
10389W        W53301   1.181  13.483  28.831 -0.2164 -0.4127  0.0116
10390W        W53302   3.802  11.015  29.534  0.1770  0.0512 -0.0401
10391W        W53303   1.985  12.225  31.010  0.2708 -0.1430  0.0549
10392W        W53304   1.214  10.838  31.199  0.2118  0.3830 -0.0489
10393W        W53305   1.404  13.891  29.076 -0.0043 -0.0759 -0.0945
10394W        W53306   3.592  12.152  31.210 -0.0860  0.0003 -0.0935
10395W        W53307   1.750  12.749  28.537 -0.3226  0.0370 -0.2257
10396W        W53308   2.366  13.747  30.446  0.0513  0.1062  0.1940
10397W        W53309  34.628  11.337  26.434  0.0070  0.1157 -0.0762
10398W        W53310   3.416  10.999  27.428  0.0217 -0.1774 -0.1056
10399W        W53311   0.540  12.705  29.130 -0.2322  0.0053  0.0307
10400W        W53312   1.777  11.892  30.021  0.0639 -0.0637 -0.1830
10401W        W53313   2.787  13.870  30.615  0.0098 -0.0820  0.0391
10402W        W53314   0.904  10.658  29.176  0.0416 -0.0673  0.1598
10403W        W53315   1.917  13.338  27.640  0.1183  0.0683  0.0492
10404W        W53316   3.780  14.120  30.501 -0.1632 -0.2159 -0.1021
10405W        W53317   1.613  15.337  27.371 -0.2687 -0.1636 -0.0531
10406W        W53318   1.555  15.090  28.681  0.2064 -0.2369 -0.2449
10407W        W53319   2.998  15.186  28.653  0.1615  0.2601 -0.0690
10408W        W53320   0.564  11.261  30.212 -0.0214  0.2493 -0.1286
10409W        W53321   1.976  12.777  29.546  0.0902 -0.1329 -0.1089
10410W        W53322   2.988  12.327  28.883 -0.1127  0.2744  0.1453
10411W        W53323   1.526  12.001  27.401  0.1074  0.2438  0.0576
10412W        W53324   0.478  11.787  29.573 -0.1388 -0.0329  0.1064
10413W        W53325   0.192  14.730  30.060  0.0662  0.1843  0.2633
10414W        W53326   4.485  11.239  29.493 -0.4302 -0.0976  0.1320
10415W        W53327   2.753  11.872  30.457  0.5166 -0.3191 -0.1081
10416W        W53328   0.315  14.839  26.669  0.0323 -0.0882 -0.0230
10417W        W53329   3.510  10.404  31.356 -0.2081  0.0459  0.2765
10418W        W53330   2.089  13.766  29.972 -0.4364  0.2032 -0.3545
10419W        W53331   0.270  15.187  29.280  0.0036  0.1648 -0.0899
10420W        W53332   1.155  10.793  28.038 -0.0164  0.0349  0.0558
10421W        W53333   2.278  13.350  31.005  0.0611  0.0751 -0.0177
10422W        W53334   1.514  12.329  28.682  0.1614 -0.1265  0.0687
10423W        W53335   1.229  14.614  29.916 -0.1703 -0.3204  0.1018
10424W        W53336   2.274  14.041  29.600  0.0406  0.2361  0.1076
10425W        W53337   2.587  12.734  29.202  0.1578 -0.0104 -0.0984
10426W        W53338   2.083  13.143  29.200  0.1918  0.0314 -0.0270
10427W        W53339   0.295  11.611  28.132  0.2953  0.2858 -0.0674
10428W        W53340   4.164  11.291  28.724 -0.1999  0.2925 -0.1554
10429W        W53341   2.519  12.324  28.809  0.2874  0.0267 -0.0372
10430W        W53342   0.391  12.269  30.796 -0.1513  0.0431 -0.0851
10431W        W53343  34.253  12.744  27.468  0.3132  0.0549  0.1481
10432W        W53344   1.639  12.483  27.473  0.3197 -0.1976 -0.0329
10433W        W53345   0.887  13.450  29.227  0.3131  0.1698 -0.0585
10434W        W53346   0.784   9.812  30.439 -0.2327 -0.2094  0.0826
10435W        W53347   1.330  12.057   0.083 -0.1283 -0.0964  0.2053
10436W        W53348   1.187  12.780  28.773 -0.3924  0.0802  0.2293
10437W        W53349   0.353  12.292  28.691  0.1112  0.2109 -0.2039
10438W        W53350   1.329  13.491  29.495  0.1116 -0.1468 -0.3453
10439W        W53351   1.500  10.993  30.248 -0.1579 -0.1900 -0.0922
10440W        W53352   1.053  11.679  28.296 -0.2584 -0.0429 -0.0955
10441W        W53353   2.466  13.016  30.666 -0.1523 -0.0207  0.0722
10442W        W53354   1.622  14.700  28.995  0.2215 -0.0886 -0.1363
10443W        W53355   2.520  10.400  29.872  0.1249 -0.0201  0.3634
10444W        W53356   3.082  14.768  29.793 -0.0007  0.1374 -0.1124
10445W        W53357   0.063  14.075  26.296 -0.1215  0.2300 -0.1753
10446W        W53358   1.225  12.567  31.208  0.0732 -0.1350  0.0783
10447W        W53359   2.429  10.687  30.294 -0.0250  0.0566 -0.2530
10448W        W53360  34.254  10.800  27.780  0.1414 -0.1650  0.2276
10449W        W53361   1.400  11.541  29.193 -0.2640  0.0488  0.1604
10450W        W53362   1.844  13.460  28.377  0.0380  0.0508  0.0630
10451W        W53363   1.789  14.478  28.502 -0.1801  0.0449 -0.0003
10452W        W53364   1.978  12.961  30.756  0.2739 -0.0902 -0.1260
10453W        W53365   2.553  13.803  28.759  0.0008 -0.0624 -0.2236
10454W        W53366  33.873  11.004  28.710  0.0939 -0.1330 -0.0871
10455W        W53367   2.217  13.058  28.462 -0.0581  0.2766 -0.0349
10456W        W53368   0.554  12.461   0.665 -0.0219  0.0197  0.0259
10457W        W53369   2.299  14.288  28.720 -0.2544  0.0728 -0.1517
10458W        W53370   3.676  10.400  30.112 -0.1570  0.0902 -0.1846
10459W        W53371   2.398  13.178  29.586  0.1690  0.6308 -0.0323
10460W        W53372   0.075  10.934  30.350 -0.3821  0.1058  0.3596
10461W        W53373  34.312  11.640  29.972 -0.0182  0.1949  0.3246
10462W        W53374   4.141  11.644  30.812 -0.2552 -0.2249 -0.1564
10463W        W53375   0.381  10.864  29.914 -0.0673  0.0499 -0.2566
10464W        W53376   3.420  12.648  29.644  0.0564 -0.4529  0.0552
10465W        W53377   1.623  14.227  30.086 -0.1122  0.1308 -0.0665
10466W        W53378   0.918  12.087  30.577 -0.2803 -0.4105  0.0549
10467W        W53379   1.284  12.043  29.238 -0.2636  0.0029  0.2805
10468W        W53380   1.367  11.533  31.924  0.2231  0.1597  0.0467
10469W        W53381   0.637  12.500  31.337 -0.0509 -0.1056 -0.1649
10470W        W53382   2.206  14.027  31.983  0.0046 -0.1749 -0.0093
10471W        W53383   1.140  12.369  27.330  0.0299 -0.0764  0.0793
10472W        W53384   3.396  13.218  29.345  0.2356 -0.0093  0.1277
10473W        W53385   2.400  15.773  28.771 -0.0488  0.1167 -0.1201
10474W        W53386   2.680  12.983  31.174 -0.2182  0.2413 -0.0853
10475W        W53387   2.014  13.081  31.360 -0.1958  0.0833  0.3627
10476W        W53388   2.181  12.622  31.620  0.0236  0.0290 -0.0066
10477W        W53389  33.942  11.517  29.633 -0.3400  0.1698 -0.1708
10478W        W53390   0.920  13.916  28.892  0.0964  0.2682  0.0355
10479W        W53391   1.004  11.791  29.601  0.1333 -0.0155  0.2897
10480W        W53392   3.909  11.355  29.201  0.0122 -0.0635 -0.0301
10481W        W53393   0.570  11.284  29.711 -0.2856 -0.1628 -0.1267
10482W        W53394   2.435  12.090  27.831  0.1330 -0.3369 -0.2275
10483W        W53395   1.641  14.504  29.577 -0.3232 -0.0678  0.0062
10484W        W53396   1.330  12.350  30.235  0.0869 -0.2852  0.2568
10485W        W53397   1.933  10.790  30.843  0.1762 -0.0258 -0.2676
10486W        W53398   2.580  12.387  31.449  0.1612 -0.0412  0.0915
10487W        W53399   0.467  11.970  31.701  0.0262 -0.2990  0.1589
10488W        W53400   0.703  12.045  31.117 -0.2717  0.2038 -0.1778
10489W        W53401   2.150  14.339  31.120 -0.1742 -0.2249 -0.0601
10490W        W53402   2.073  15.226  31.871 -0.3919 -0.1677 -0.0631
10491W        W53403   2.101  12.471  30.605  0.0155 -0.0307  0.0055
10492W        W53404   0.739  12.092   0.396  0.2297  0.0201 -0.1388
10493W        W53405   2.784  11.290   0.480 -0.0408 -0.1088  0.1201
10494W        W53406   2.977  13.336   0.512 -0.2557  0.2129  0.4153
10495W        W53407   2.192  13.531  31.447 -0.1641 -0.2968  0.0736
10496W        W53408   1.111  10.235  31.654  0.1079  0.0529 -0.0265
10497W        W53409   3.022  14.042  31.690 -0.0588  0.2884  0.2993
10498W        W53410   1.844  11.845  30.709 -0.0535  0.2989 -0.1878
10499W        W53411   3.944  11.305   0.192 -0.0709  0.1811  0.2009
10500W        W53412  34.343  15.637  31.064 -0.0625 -0.1332 -0.1175
10501W        W53413  34.054  13.321  31.488  0.1893 -0.0726 -0.1795
10502W        W53414   1.596  14.017  31.059  0.2204  0.0800  0.4114
10503W        W53415   0.903  11.757  31.911  0.1336  0.0415  0.1262
10504W        W53416   0.234  11.138   0.211 -0.1274  0.0310 -0.0561
10505W        W53417   0.279  12.878  31.730 -0.1109  0.2579  0.2404
10506W        W53418   0.569  13.004  31.327  0.0254 -0.0901 -0.0245
10507W        W53419   3.175  13.534  31.742 -0.2362 -0.1233 -0.1858
10508W        W53420   1.514  11.373  31.395  0.0329 -0.0407 -0.0789
10509W        W53421   2.364  11.288  31.086 -0.1337  0.1638 -0.0642
10510W        W53422   3.452  10.886   0.124 -0.1008  0.1330  0.2291
10511W        W53423   3.387  12.458  30.685  0.3566  0.0117 -0.0853
10512W        W53424   0.572  14.990  31.800 -0.3089  0.0432  0.0378
10513W        W53425   1.793  12.649  31.295 -0.0019 -0.0472 -0.1742
10514W        W53426   1.499  14.958  31.807 -0.0811 -0.1364 -0.1073
10515W        W53427   1.248  13.909  30.684 -0.0309 -0.3776 -0.4018
10516W        W53428   1.138  10.070  30.739  0.0938 -0.3892  0.2580
10517W        W53429   3.416  12.842  31.058 -0.1477  0.2232  0.3002
10518W        W53430   3.063  11.690   0.632  0.0474  0.0180  0.3366
10519W        W53431  34.383  11.000  31.263 -0.2036 -0.1183 -0.1532
10520W        W53432   1.197  13.778  31.317 -0.0479 -0.1688 -0.1998
10521W        W53433   2.691  14.179   0.208  0.2931  0.1688  0.0342
10522W        W53434   1.039  12.462   0.144 -0.3199 -0.0027  0.1657
10523W        W53435   2.521  12.129  30.998 -0.1252 -0.4105 -0.1316
10524W        W53436   2.802  12.079   0.546  0.0059 -0.1485  0.0367
10525W        W53437   2.765  10.773  31.105  0.1369 -0.3038 -0.2697
10526W        W53438   2.360  11.766   0.372  0.0583 -0.3615 -0.0330
10527W        W53439   0.752  10.139   0.093 -0.0911  0.0602  0.2604
10528W        W53440   2.498  13.680   0.378 -0.1747 -0.0903  0.0174
10529W        W53441   2.587  11.481  31.742 -0.0727  0.0001 -0.2061
10530W        W53442   1.539  12.499   0.417  0.1122  0.3173 -0.2958
10531W        W53443   1.691  11.862  31.180  0.2262 -0.0204 -0.2463
10532W        W53444   1.021  13.135   0.232 -0.1010 -0.1169 -0.1887
10533W        W53445   3.595  13.318  31.806  0.0356  0.2059 -0.1042
10534W        W53446  34.505  11.294   0.400  0.0487 -0.3801 -0.3576
10535W        W53447   1.265  15.464  31.335 -0.0250 -0.0445  0.0813
10536W        W53448   3.226   9.070  30.793  0.2700 -0.1082  0.2547
10537W        W53449   2.051  12.613   0.205  0.3221  0.1328  0.1169
10538W        W53450   0.376  13.588  30.608  0.0835 -0.0312 -0.0508
10539W        W53451   2.797  12.795  31.629  0.2301  0.1300 -0.2052
10540W        W53452   3.257  12.475  31.514  0.0802 -0.0418 -0.0633
10541W        W53453   2.985  12.948  30.742 -0.1771 -0.0720  0.1002
10542W        W53454   0.899  14.209  30.933 -0.1459 -0.1890  0.4834
10543W        W53455   1.986  14.779  30.897 -0.2729 -0.1865  0.0003
10544W        W53456  34.606  12.953  31.306 -0.1879  0.0673  0.1891
10545W        W53457  34.633  11.762   0.337  0.1613  0.5271 -0.0554
10546W        W53458   0.758  13.752  30.854  0.4405 -0.3667  0.0142
10547W        W53459   1.237  13.421  30.967 -0.0228 -0.1593 -0.0235
10548W        W53460   0.532  10.893  31.890 -0.0735 -0.1467  0.1408
10549W        W53461   2.355  13.134   0.212 -0.2718  0.1062 -0.0059
10550W        W53462   2.430  14.253  30.556  0.1370  0.0996 -0.1075
10551W        W53463   3.876  13.813   0.005  0.0209  0.1252  0.1386
10552W        W53464   0.984  17.905  19.054  0.0707  0.1363  0.3286
10553W        W53465  34.019  15.211  17.418  0.0885  0.1958 -0.0726
10554W        W53466   2.713  16.244  17.160  0.2206  0.1356 -0.1909
10555W        W53467   2.369  15.874  17.038 -0.2692 -0.0419 -0.2827
10556W        W53468  34.591  15.681  18.190 -0.1644  0.0228 -0.3661
10557W        W53469   2.842  17.319  18.835  0.0815  0.1201  0.3156
10558W        W53470   0.366  13.464  19.433 -0.0209 -0.6163  0.0169
10559W        W53471   2.731  17.116  17.393 -0.0067 -0.0022  0.0355
10560W        W53472   4.064  16.433  19.298 -0.0331 -0.0115 -0.0981
10561W        W53473   2.273  16.736  16.659 -0.3310 -0.3286  0.1691
10562W        W53474   0.749  16.008  19.184  0.2475 -0.3075 -0.2016
10563W        W53475   0.143  18.139  19.868  0.0952 -0.2133 -0.3794
10564W        W53476   1.636  14.982  16.875  0.0226 -0.2262 -0.1029
10565W        W53477  34.422  14.044  18.899 -0.2482  0.1143  0.0427
10566W        W53478   3.547  16.661  17.722  0.1619 -0.1130  0.0896
10567W        W53479   0.985  15.091  16.622 -0.0270  0.2250  0.2465
10568W        W53480   0.517  16.087  19.661 -0.0482 -0.0118  0.2163
10569W        W53481   1.017  16.875  17.388  0.0779  0.1272  0.1034
10570W        W53482   2.247  19.110  17.182 -0.0157  0.0220 -0.1304
10571W        W53483   2.041  14.984  17.171  0.1304  0.1115 -0.1269
10572W        W53484   3.562  13.385  18.870 -0.2915 -0.0343 -0.0288
10573W        W53485   1.747  18.143  17.802 -0.0240 -0.1883  0.3081
10574W        W53486  34.277  15.570  16.836  0.0783  0.4036  0.0276
10575W        W53487  33.465  15.987  17.829  0.3544 -0.2818 -0.0471
10576W        W53488   0.680  15.540  19.440  0.3093  0.2008  0.1921
10577W        W53489   2.698  15.103  18.841  0.2952  0.0872  0.2518
10578W        W53490   3.540  15.586  16.737 -0.2812 -0.2500  0.0048
10579W        W53491   1.081  17.923  18.497  0.0390  0.0285  0.0250
10580W        W53492   2.277  18.088  19.018 -0.2073  0.2311  0.1770
10581W        W53493   4.489  14.583  19.724  0.0278 -0.0331 -0.1155
10582W        W53494  34.694  15.917  17.127  0.1768  0.0010 -0.0866
10583W        W53495  34.136  16.422  17.806  0.1613 -0.0242 -0.1651
10584W        W53496   0.965  17.248  17.012  0.1436 -0.1395  0.1456
10585W        W53497   3.615  17.298  16.718 -0.2499  0.0868  0.0060
10586W        W53498   1.767  16.458  19.809 -0.2143 -0.1641  0.1590
10587W        W53499   0.636  18.537  19.809 -0.1731  0.0056  0.2583
10588W        W53500   2.020  17.744  16.415 -0.1059  0.3234  0.0980
10589W        W53501   2.660  18.452  19.891  0.1390 -0.0766  0.2768
10590W        W53502   0.959  17.311  19.170 -0.1424 -0.0565 -0.1829
10591W        W53503   2.406  15.713  20.002  0.2527 -0.0743 -0.1842
10592W        W53504   0.943  16.231  18.705 -0.1458 -0.1454  0.0638
10593W        W53505   1.475  16.786  17.299  0.3826  0.2672  0.0004
10594W        W53506   1.833  17.092  17.789  0.1353 -0.1178 -0.2409
10595W        W53507   1.811  17.375  20.199 -0.0632  0.4237 -0.0457
10596W        W53508   0.547  17.137  17.543  0.1036  0.0261  0.0780
10597W        W53509   3.360  14.343  18.320 -0.2920 -0.0552  0.0928
10598W        W53510   1.314  16.367  17.811 -0.0931 -0.0046 -0.1648
10599W        W53511   1.835  14.535  16.872  0.0160 -0.0290 -0.1324
10600W        W53512   1.011  16.363  16.720 -0.0574 -0.0839 -0.1434
10601W        W53513   1.464  14.677  15.925  0.2095  0.1097  0.0747
10602W        W53514   1.991  14.207  17.927  0.2258  0.0768 -0.2228
10603W        W53515  34.417  19.031  19.017 -0.0416 -0.4221 -0.0085
10604W        W53516   1.075  14.638  19.117  0.1400  0.0570  0.0692
10605W        W53517   3.591  16.674  19.610 -0.0971  0.1754  0.1968
10606W        W53518   2.598  16.801  18.067 -0.2420 -0.0734  0.0592
10607W        W53519   0.661  16.415  19.988 -0.0208 -0.0017 -0.0641
10608W        W53520   0.573  17.609  19.079  0.2509 -0.0735  0.1867
10609W        W53521  34.206  15.715  17.363 -0.0526 -0.1443  0.0469
10610W        W53522   3.500  18.548  16.248 -0.0067  0.0038  0.2411
10611W        W53523   4.835  17.791  17.601 -0.1700  0.0038  0.0764
10612W        W53524   1.564  17.228  16.331 -0.2095  0.0285  0.3158
10613W        W53525  33.540  15.235  17.453  0.0532 -0.0875  0.0934
10614W        W53526   0.069  17.101  18.431 -0.1092  0.3666 -0.2736
10615W        W53527  34.490  16.591  18.780 -0.1600  0.1894  0.2997
10616W        W53528   0.101  14.412  16.461 -0.1940  0.0861 -0.1442
10617W        W53529   4.461  17.235  17.898 -0.2405  0.1482 -0.3950
10618W        W53530  34.281  17.709  18.329 -0.0161 -0.1231  0.1063
10619W        W53531   2.940  15.149  17.986  0.0424 -0.0084 -0.0876
10620W        W53532   2.171  16.082  19.666 -0.1581 -0.1856 -0.0522
10621W        W53533   3.328  15.956  18.904  0.0384 -0.0683 -0.1474
10622W        W53534   1.241  16.043  16.979 -0.0490 -0.1087  0.0603
10623W        W53535   2.700  13.804  16.931 -0.2723  0.0339  0.0763
10624W        W53536   3.518  15.108  19.933  0.1897 -0.2851  0.1067
10625W        W53537   1.580  16.446  16.888  0.1309  0.0217 -0.0415
10626W        W53538   1.915  15.200  16.521 -0.1312  0.1725 -0.1316
10627W        W53539   1.908  15.719  19.962  0.1677 -0.0324 -0.1654
10628W        W53540   1.902  16.773  17.022 -0.1812 -0.2930 -0.1634
10629W        W53541  34.352  17.910  18.876  0.3467  0.2087  0.0572
10630W        W53542   2.302  15.104  19.164 -0.3650 -0.0980 -0.0197
10631W        W53543   1.797  17.010  19.529  0.4143  0.1471 -0.2452
10632W        W53544   0.646  18.091  16.957 -0.1650 -0.1552  0.0941
10633W        W53545   0.414  16.266  18.843  0.0756  0.3980 -0.0644
10634W        W53546   1.094  17.284  16.499 -0.0290  0.1310  0.1849
10635W        W53547  33.655  16.020  18.905  0.0865  0.0331 -0.2419
10636W        W53548   1.477  16.357  19.422  0.0576 -0.3261  0.0480
10637W        W53549   2.741  15.638  16.340 -0.3571  0.0070  0.3439
10638W        W53550   1.062  15.386  20.375  0.1619  0.0425  0.2772
10639W        W53551   2.510  14.851  17.868  0.0769 -0.2135  0.0989
10640W        W53552   0.264  16.780  17.210  0.3124 -0.1085  0.1093
10641W        W53553   3.470  16.781  17.176  0.0325 -0.0136  0.2116
10642W        W53554   2.009  14.300  17.282 -0.0554 -0.2385 -0.0170
10643W        W53555   2.105  17.308  16.159  0.0067 -0.0668  0.2396
10644W        W53556  33.969  14.125  18.154  0.2910  0.2909 -0.1467
10645W        W53557   0.967  14.647  15.906 -0.0278 -0.3316  0.1348
10646W        W53558   1.470  14.930  18.881 -0.1254 -0.0672  0.0737
10647W        W53559   0.331  13.992  18.177  0.1596  0.0227  0.1255
10648W        W53560   2.353  15.778  18.222 -0.2494  0.2466  0.1336
10649W        W53561  34.250  13.092  18.469 -0.3229 -0.1195  0.2539
10650W        W53562   2.682  14.853  18.338 -0.0349  0.2614  0.1231
10651W        W53563   0.938  15.425  17.137  0.0217  0.0124  0.3225
10652W        W53564  33.734  16.450  17.487 -0.1962  0.0132 -0.0574
10653W        W53565   2.896  14.256  19.733  0.3651  0.1789  0.0984
10654W        W53566   2.507  17.651  16.624 -0.2999 -0.4026  0.4070
10655W        W53567   3.679  17.395  18.587  0.1638  0.3237  0.1103
10656W        W53568   2.968  18.683  17.632  0.0398  0.0959 -0.1819
10657W        W53569   1.352  14.997  19.334 -0.0451 -0.0890  0.3602
10658W        W53570  34.032  14.128  16.212 -0.5064 -0.5351  0.1385
10659W        W53571  34.123  18.147  18.505 -0.0302 -0.0661  0.0736
10660W        W53572   1.362  17.657  18.882  0.0229 -0.0895 -0.0482
10661W        W53573   0.627  14.769  17.157 -0.0446 -0.0661  0.0365
10662W        W53574   2.503  17.989  18.555 -0.0774 -0.0320 -0.0315
10663W        W53575   1.645  15.842  16.779  0.0829  0.1064  0.0043
10664W        W53576   1.150  15.186  17.948  0.1623 -0.0641  0.3206
10665W        W53577   3.027  16.174  17.532  0.0852  0.3402  0.3105
10666W        W53578   2.743  15.427  18.382  0.1589 -0.0700 -0.0829
10667W        W53579   2.421  16.257  18.170 -0.3715 -0.0055  0.1853
10668W        W53580   0.637  14.132  17.516 -0.1573 -0.1380  0.0978
10669W        W53581   2.435  17.960  18.068  0.1484  0.3059 -0.1404
10670W        W53582   0.478  17.288  17.096 -0.3454 -0.2449  0.0590
10671W        W53583   1.997  15.596  19.051 -0.0440  0.0270  0.0717
10672W        W53584   2.048  18.368  17.169 -0.0991 -0.0155  0.0170
10673W        W53585   2.745  14.884  19.386  0.0441  0.2340 -0.0830
10674W        W53586  34.447  17.400  18.704 -0.0846 -0.1508 -0.1801
10675W        W53587   0.314  15.589  19.742  0.4126  0.1845  0.2403
10676W        W53588  34.349  15.098  16.989  0.1553  0.1503 -0.0936
10677W        W53589   0.311  17.199  19.316 -0.2403  0.0037 -0.1599
10678W        W53590   2.659  13.528  16.469 -0.1711  0.1938 -0.1786
10679W        W53591   2.510  16.708  17.171 -0.2629  0.1339 -0.1996
10680W        W53592   2.136  15.281  20.098 -0.1052 -0.1397 -0.0301
10681W        W53593   3.122  17.184  18.120  0.0538  0.0453  0.0319
10682W        W53594   1.051  15.922  17.406 -0.3373  0.1047  0.2194
10683W        W53595   2.449  15.837  15.974 -0.1232 -0.1374  0.0042
10684W        W53596  34.419  16.148  18.513 -0.0558 -0.0290  0.1114
10685W        W53597   1.894  17.222  17.235 -0.1040 -0.0386  0.0944
10686W        W53598   1.544  16.803  18.153  0.0465 -0.2027  0.0988
10687W        W53599   2.451  15.985  16.506 -0.1944 -0.3203  0.1510
10688W        W53600   3.528  16.916  18.149  0.1270  0.2432 -0.3320
10689W        W53601  34.131  16.260  18.902 -0.2719 -0.1437 -0.1969
10690W        W53602   2.251  16.566  20.069  0.1920 -0.1085  0.1773
10691W        W53603   2.313  17.091  18.660 -0.0700  0.1295  0.1891
10692W        W53604   2.111  15.654  17.781  0.0786  0.0599  0.4390
10693W        W53605   0.013  15.303  16.702  0.0300  0.0056  0.1324
10694W        W53606   2.494  14.008  17.352  0.4696  0.1010  0.3639
10695W        W53607   1.588  17.631  16.582  0.1614  0.3210  0.0755
10696W        W53608   1.913  14.683  17.636 -0.2195  0.1129  0.3509
10697W        W53609   1.483  13.927  18.079  0.2168 -0.0573 -0.1497
10698W        W53610   2.184  15.026  18.259  0.0654 -0.1512  0.1303
10699W        W53611   2.817  15.687  20.326 -0.0691 -0.0370  0.1659
10700W        W53612   3.019  15.659  17.474  0.0807  0.0747  0.1267
10701W        W53613   0.787  15.846  18.394 -0.1266  0.2947  0.2421
10702W        W53614   0.356  15.878  16.314 -0.0231 -0.0939 -0.1412
10703W        W53615   1.881  15.147  18.695 -0.0759 -0.5293 -0.1290
10704W        W53616   2.310  15.383  18.654  0.0436  0.1289 -0.5518
10705W        W53617   0.267  18.314  18.496  0.1269 -0.2415 -0.0762
10706W        W53618   2.746  17.052  20.242  0.0751  0.0431  0.0849
10707W        W53619   2.350  17.055  17.716  0.1010 -0.2506  0.3285
10708W        W53620   1.278  14.540  20.247 -0.1342  0.0406 -0.1295
10709W        W53621   1.248  15.463  16.586  0.0534 -0.0548  0.0867
10710W        W53622   1.439  17.322  17.355  0.2117 -0.2428 -0.0067
10711W        W53623   0.720  16.200  17.727  0.0170  0.2554  0.0527
10712W        W53624   1.464  15.626  17.223 -0.0317  0.1543 -0.0117
10713W        W53625   0.605  17.017  18.444 -0.3502 -0.0055 -0.0419
10714W        W53626   2.255  17.109  18.194  0.2312 -0.2106  0.1940
10715W        W53627   2.062  15.345  19.592  0.2579 -0.0607  0.1063
10716W        W53628  34.244  16.205  17.351  0.1238 -0.1422  0.0555
10717W        W53629   3.415  13.931  20.314 -0.0257 -0.0177  0.0767
10718W        W53630   0.024  17.832  17.429  0.3529 -0.2734  0.4341
10719W        W53631   0.223  16.199  16.711 -0.3640  0.1897 -0.1138
10720W        W53632  34.056  15.773  18.586 -0.0206  0.1765 -0.1434
10721W        W53633   2.039  13.690  18.152  0.1904  0.0552  0.1220
10722W        W53634   3.944  16.813  16.904 -0.1599 -0.2409 -0.1321
10723W        W53635   0.079  14.814  18.454  0.1601 -0.1665  0.0458
10724W        W53636   1.836  14.623  18.671  0.0316  0.0779 -0.2129
10725W        W53637  33.589  19.328  18.849  0.1505 -0.1102 -0.1023
10726W        W53638   1.899  16.768  18.552  0.0635  0.0491  0.0699
10727W        W53639   1.660  15.518  16.252  0.1948 -0.3723 -0.2317
10728W        W53640   2.934  16.616  18.554 -0.0683  0.1199 -0.2151
10729W        W53641   0.730  17.162  19.569  0.0581 -0.1912 -0.0358
10730W        W53642   0.613  15.050  16.149  0.1465 -0.1885 -0.1423
10731W        W53643   4.529  15.088  19.688  0.2552 -0.0269 -0.2819
10732W        W53644   0.695  15.069  17.797  0.1931 -0.0126 -0.2255
10733W        W53645   0.239  18.617  17.474 -0.0173  0.0978  0.2794
10734W        W53646   2.236  16.560  19.578 -0.0190 -0.0813 -0.2018
10735W        W53647  34.604  16.483  17.141  0.1825 -0.1568  0.1037
10736W        W53648   0.384  17.781  16.271 -0.0533  0.0687  0.1750
10737W        W53649  33.232  16.637  19.138 -0.2039  0.1114  0.1322
10738W        W53650   1.909  15.457  18.326  0.1702 -0.0423  0.1073
10739W        W53651   1.273  15.828  18.642  0.0706 -0.3237  0.0619
10740W        W53652  34.294  16.062  16.848 -0.1405 -0.3972 -0.1506
10741W        W53653   2.336  16.654  18.428 -0.1625 -0.2018  0.3142
10742W        W53654   1.706  15.862  18.480 -0.0322  0.0236  0.2359
10743W        W53655   3.164  14.820  20.243 -0.1392  0.0962  0.2063
10744W        W53656   0.876  17.408  19.975  0.0576  0.3622  0.1619
10745W        W53657   1.432  15.340  18.697 -0.0509 -0.0192  0.0619
10746W        W53658   3.677  18.070  17.360  0.0148 -0.1184  0.2033
10747W        W53659   3.484  15.542  19.682 -0.0426  0.1975 -0.1402
10748W        W53660   0.514  16.619  17.627 -0.0566 -0.1980  0.0791
10749W        W53661  34.553  16.692  18.183  0.0019 -0.1039  0.2911
10750W        W53662   1.791  16.631  17.723 -0.0704 -0.0309 -0.1009
10751W        W53663   1.320  14.712  17.823 -0.1113  0.1209 -0.2189
10752W        W53664   0.988  16.789  17.935 -0.0793 -0.1631  0.1395
10753W        W53665   1.697  18.002  16.972 -0.1348  0.0979  0.2859
10754W        W53666   0.368  17.355  18.728 -0.1603 -0.2681 -0.1754
10755W        W53667   2.758  15.325  17.132  0.1181  0.0979  0.1896
10756W        W53668   2.978  16.866  16.884 -0.0410 -0.0331 -0.0859
10757W        W53669   1.159  13.906  17.685  0.0768  0.0331 -0.2978
10758W        W53670   3.302  14.393  20.583 -0.0609 -0.1635 -0.0439
10759W        W53671   3.080  13.808  16.619 -0.4392 -0.0117 -0.0958
10760W        W53672   3.075  14.482  19.280  0.0297  0.0782 -0.2201
10761W        W53673   0.534  15.054  18.292 -0.0987 -0.1175  0.0297
10762W        W53674   3.018  16.133  18.418  0.0659  0.0902 -0.2271
10763W        W53675  33.081  17.571  17.864  0.1138 -0.0974  0.0014
10764W        W53676   1.522  17.291  19.172  0.1956 -0.3214 -0.0697
10765W        W53677   1.045  16.389  19.586  0.2250  0.0339 -0.2117
10766W        W53678   0.355  14.881  16.567 -0.0498  0.4076 -0.0786
10767W        W53679   0.554  13.634  16.398  0.1746 -0.0817 -0.1564
10768W        W53680   1.428  15.605  18.167 -0.1758 -0.0615 -0.1987
10769W        W53681   3.882  16.379  18.442  0.0488 -0.5679  0.0317
10770W        W53682   1.518  16.275  17.356 -0.0819 -0.2590  0.1804
10771W        W53683   3.599  15.644  17.533  0.0465 -0.0548 -0.2118
10772W        W53684   0.261  17.011  17.968  0.2582 -0.1369 -0.0638
10773W        W53685   2.327  14.480  17.560 -0.0876  0.0432 -0.1202
10774W        W53686   0.511  15.506  15.943  0.2345  0.1896  0.0190
10775W        W53687   0.295  15.144  18.765 -0.2791 -0.1536  0.2214
10776W        W53688  34.019  15.300  18.769  0.0385  0.4272  0.0463
10777W        W53689   2.289  17.428  17.380  0.0818  0.1220  0.1615
10778W        W53690   2.098  13.865  17.615 -0.0619 -0.1116  0.0603
10779W        W53691   1.582  14.610  19.221 -0.0259  0.1808 -0.1124
10780W        W53692   3.539  14.823  20.520  0.0315 -0.3164 -0.2642
10781W        W53693   1.235  16.421  20.059 -0.2400  0.0768 -0.2242
10782W        W53694  33.542  15.117  18.898  0.0319 -0.6006 -0.1204
10783W        W53695   1.647  15.910  19.534  0.2125 -0.0701  0.1209
10784W        W53696   2.707  16.446  16.678 -0.0848  0.1273  0.2602
10785W        W53697   2.579  15.298  19.729  0.1368 -0.0106 -0.0772
10786W        W53698   2.429  14.560  17.068 -0.0374  0.2561 -0.1786
10787W        W53699   1.934  15.830  17.299 -0.0861  0.2139 -0.2346
10788W        W53700  34.425  15.330  17.781 -0.2661 -0.7589 -0.0215
10789W        W53701   2.290  14.767  20.259  0.2135  0.2578 -0.2112
10790W        W53702   0.730  14.319  16.601 -0.2815 -0.0910 -0.6699
10791W        W53703   1.543  15.391  19.538  0.3707  0.0495  0.0615
10792W        W53704   2.760  18.295  17.250  0.0321  0.4252  0.0028
10793W        W53705   2.759  17.339  17.855  0.2149 -0.1494 -0.1514
10794W        W53706   1.177  14.720  16.915 -0.2325 -0.0452 -0.1231
10795W        W53707  33.831  14.608  18.156  0.1856 -0.0565  0.0228
10796W        W53708  33.832  16.850  18.175  0.0158 -0.1247 -0.1149
10797W        W53709  34.130  16.076  16.015 -0.1506 -0.1925  0.0343
10798W        W53710   1.669  15.242  17.427  0.2069 -0.1031 -0.1304
10799W        W53711   0.340  15.498  18.358  0.0426 -0.3744 -0.1516
10800W        W53712   3.072  15.308  19.996 -0.1224 -0.0658  0.2051
10801W        W53713   0.709  14.205  15.782  0.1914  0.0303 -0.0179
10802W        W53714   2.368  15.964  20.779  0.1694 -0.2199  0.0452
10803W        W53715   0.803  17.658  16.663 -0.0645 -0.1044 -0.1873
10804W        W53716   2.200  14.265  18.734 -0.1484  0.1387  0.0198
10805W        W53717   0.166  17.811  18.645  0.0743 -0.0270  0.0537
10806W        W53718  34.355  16.698  19.691  0.2964  0.0876  0.0126
10807W        W53719   0.833  16.406  18.241  0.2394  0.0252  0.0252
10808W        W53720   1.653  15.088  17.944 -0.1696  0.1091  0.1461
10809W        W53721   2.303  14.508  18.191  0.2061 -0.1380 -0.0599
10810W        W53722   1.664  16.358  18.801  0.0477 -0.0752  0.1847
10811W        W53723   3.069  16.397  19.841 -0.1656  0.2096  0.0699
10812W        W53724   1.279  16.127  19.067 -0.0164 -0.0662 -0.0242
10813W        W53725   0.487  16.284  17.178  0.1729  0.2171 -0.0601
10814W        W53726   3.849  17.356  19.039 -0.0486  0.0122  0.1164
10815W        W53727   3.310  15.332  17.763 -0.1391 -0.2313 -0.2391
10816W        W53728   1.907  17.412  18.695 -0.0563 -0.1884  0.2141
10817W        W53729  31.744  15.283  19.408 -0.2671 -0.0510 -0.1483
10818W        W53730   1.008  16.749  21.146  0.0443  0.0791 -0.1940
10819W        W53731   1.922  15.436  17.005 -0.0794 -0.1287 -0.1034
10820W        W53732   1.534  14.997  16.392 -0.0332 -0.2512 -0.1519
10821W        W53733   2.354  17.141  16.998 -0.2261 -0.4359 -0.0625
10822W        W53734   0.042  17.612  19.064  0.0404  0.1509 -0.1135
10823W        W53735   0.226  16.061  18.429 -0.0347  0.1805 -0.0078
10824W        W53736  34.363  17.851  16.175 -0.3076 -0.2176  0.2288
10825W        W53737   3.087  16.755  17.920  0.3633 -0.0231 -0.1143
10826W        W53738   3.024  16.556  15.895  0.0559 -0.2726 -0.3539
10827W        W53739   1.645  18.308  18.333  0.3031 -0.3652  0.2753
10828W        W53740   1.800  15.994  16.109 -0.0779  0.4755 -0.1826
10829W        W53741  34.486  18.136  18.202  0.1432 -0.0100 -0.1061
10830W        W53742   0.166  17.183  16.667  0.0133  0.0561  0.0001
10831W        W53743   2.813  17.391  16.928  0.0644 -0.1293  0.0124
10832W        W53744   1.017  16.815  18.739  0.2854  0.1450  0.1048
10833W        W53745   2.688  16.841  18.905  0.0720  0.5298  0.2128
10834W        W53746   2.989  16.026  15.955  0.1369  0.1608  0.3347
10835W        W53747   3.944  17.009  17.773 -0.1323  0.2046  0.1758
10836W        W53748   1.934  13.169  17.511 -0.0861 -0.4041 -0.0174
10837W        W53749   1.878  18.685  20.315 -0.1280  0.1475  0.0598
10838W        W53750   0.914  16.589  20.464 -0.1657  0.0688  0.0685
10839W        W53751   0.911  14.046  16.189  0.1752  0.0470  0.1594
10840W        W53752   1.129  16.846  19.390 -0.1592  0.1365  0.2420
10841W        W53753   4.336  14.046  19.335 -0.0216  0.1611  0.1491
10842W        W53754   0.471  16.670  19.596 -0.2477  0.1326 -0.2258
10843W        W53755   2.626  17.793  17.617  0.3590 -0.0910  0.1921
10844W        W53756  34.482  14.281  15.941  0.1746  0.4898 -0.0916
10845W        W53757   2.446  16.430  17.654  0.0628 -0.0727  0.0397
10846W        W53758   3.420  14.383  17.310 -0.2387  0.0239  0.3036
10847W        W53759   2.013  16.162  16.699 -0.0160 -0.1100  0.3380
10848W        W53760   1.599  15.787  17.700  0.1229  0.0661  0.2550
10849W        W53761   0.930  17.450  18.702  0.0979  0.0084  0.0092
10850W        W53762   1.472  17.142  18.658 -0.0270  0.0390 -0.2175
10851W        W53763   2.246  16.530  18.897  0.0263  0.4212  0.2170
10852W        W53764   0.478  13.451  16.866 -0.0971 -0.1611 -0.1571
10853W        W53765   3.420  14.921  18.044 -0.1222 -0.1325  0.3341
10854W        W53766  34.495  16.266  19.231  0.2528  0.1111 -0.0110
10855W        W53767   2.541  13.981  19.919 -0.1399 -0.1096  0.2422
10856W        W53768   1.190  16.847  16.826  0.0404 -0.2540  0.5376
10857W        W53769   1.515  14.767  17.313 -0.0170 -0.0663  0.0351
10858W        W53770   2.363  17.039  19.949 -0.0022  0.0008 -0.0061
10859W        W53771   0.826  16.512  19.152 -0.1456  0.0269  0.1845
10860W        W53772   0.380  15.745  16.851  0.0722 -0.0348 -0.1353
10861W        W53773   3.416  16.237  19.348 -0.1997  0.0451 -0.0874
10862W        W53774   2.132  14.876  16.130 -0.0394 -0.1195 -0.0883
10863W        W53775   1.466  16.779  18.979  0.2033  0.0564 -0.2541
10864W        W53776   0.021  14.741  16.887 -0.1748  0.0416 -0.0317
10865W        W53777   2.156  15.636  16.419  0.1985  0.2944 -0.1722
10866W        W53778  34.555  16.180  18.027 -0.0334 -0.0009 -0.1558
10867W        W53779   1.173  15.543  19.926 -0.0248 -0.1126 -0.0018
10868W        W53780   2.456  17.081  19.415 -0.1538 -0.3908 -0.3354
10869W        W53781  34.212  13.496  19.285  0.2722  0.1579  0.1039
10870W        W53782   3.944  18.248  16.358  0.0473 -0.0246  0.0455
10871W        W53783   3.926  15.444  19.174 -0.0774  0.1464  0.3210
10872W        W53784   2.639  17.021  16.562 -0.0443 -0.2732 -0.2114
10873W        W53785   3.447  14.875  17.552  0.1688 -0.0464 -0.0818
10874W        W53786   2.131  17.613  18.321 -0.1019  0.2385 -0.1338
10875W        W53787  34.575  15.414  19.646  0.3642  0.0051 -0.1873
10876W        W53788   1.874  16.308  18.318  0.1716 -0.0883 -0.1056
10877W        W53789   4.330  16.179  18.522  0.1020  0.0967 -0.2018
10878W        W53790   1.020  16.450  17.195 -0.0495  0.1793  0.0810
10879W        W53791   0.990  15.492  17.605  0.1684  0.1665 -0.0666
10880W        W53792   0.730  17.295  17.998  0.2667 -0.1951  0.0444
10881W        W53793   3.285  15.931  17.910 -0.1496 -0.0387 -0.1253
10882W        W53794   1.591  13.578  20.310 -0.0937  0.1572 -0.1289
10883W        W53795   2.419  18.496  16.559  0.1391 -0.3033  0.0727
10884W        W53796   3.988  14.468  19.230 -0.0629  0.0237  0.1976
10885W        W53797   1.478  17.943  19.330 -0.1448  0.0589 -0.2041
10886W        W53798   0.182  19.278  20.795  0.0648 -0.2057  0.0168
10887W        W53799   0.918  15.950  16.217  0.0483  0.4126  0.1644
10888W        W53800   1.843  16.609  19.236  0.3928  0.2812  0.1502
10889W        W53801   1.939  16.099  17.895  0.4049  0.1103 -0.0623
10890W        W53802   1.332  17.027  17.766  0.2158 -0.4610  0.0915
10891W        W53803   3.987  17.359  18.183  0.3916 -0.0408 -0.0134
10892W        W53804   2.208  14.061  16.893  0.2685  0.1965  0.3943
10893W        W53805   3.502  17.472  18.134  0.1753 -0.2607  0.2166
10894W        W53806   1.477  14.301  17.096  0.3171 -0.0936  0.1791
10895W        W53807   2.469  14.965  17.369 -0.0436 -0.0002  0.3235
10896W        W53808   3.256  15.650  16.258 -0.1228  0.1909 -0.0175
10897W        W53809   1.323  16.092  18.264  0.1368  0.0123  0.2223
10898W        W53810  33.780  14.533  17.118 -0.0286 -0.0798 -0.1372
10899W        W53811   0.812  15.920  16.716 -0.0314  0.0732  0.0740
10900W        W53812   0.940  15.371  18.409 -0.2104  0.2120 -0.0222
10901W        W53813   1.022  13.884  18.263  0.1302 -0.0349  0.1055
10902W        W53814   0.027  15.050  20.189 -0.1854  0.1502 -0.1832
10903W        W53815   1.067  15.376  19.162 -0.1481  0.0264  0.0288
10904W        W53816   0.940  14.154  17.170  0.0370 -0.0500  0.1435
10905W        W53817   3.468  18.184  17.893  0.1233  0.4501  0.1723
10906W        W53818   0.286  15.701  18.778 -0.1338  0.0234  0.0624
10907W        W53819   0.317  13.461  17.421  0.0632 -0.2401  0.0267
10908W        W53820   2.986  16.680  17.359  0.1246 -0.1338 -0.2660
10909W        W53821   2.236  17.557  17.876  0.2769  0.5267 -0.2811
10910W        W53822   0.699  13.750  17.826  0.0872  0.1706 -0.0762
10911W        W53823   2.437  15.726  19.384 -0.0458  0.0963  0.1170
10912W        W53824   0.322  17.721  16.865 -0.1485 -0.2022 -0.1495
10913W        W53825   1.817  16.443  20.283 -0.0355  0.0295  0.1214
10914W        W53826   0.744  14.173  19.043 -0.0393  0.2978  0.1600
10915W        W53827   0.450  14.358  17.022 -0.0491  0.0621  0.0402
10916W        W53828   1.088  15.783  19.450  0.1073  0.1396  0.1646
10917W        W53829   2.360  18.190  17.544  0.0732 -0.0803  0.1352
10918W        W53830   2.407  17.832  17.137  0.0172 -0.0151  0.0216
10919W        W53831   0.695  18.042  20.085 -0.5006  0.1863 -0.1734
10920W        W53832  34.494  18.420  19.402 -0.1128 -0.2087 -0.2487
10921W        W53833  34.340  14.412  18.252 -0.1667  0.1843  0.0614
10922W        W53834   3.191  16.320  16.881 -0.1407  0.0403  0.1224
10923W        W53835   1.368  17.475  20.549  0.2312  0.0167  0.0621
10924W        W53836   4.553  17.647  17.193 -0.0692  0.1967  0.3448
10925W        W53837   1.457  15.632  19.106  0.0159  0.2055  0.1684
10926W        W53838   1.341  16.543  18.479  0.0121  0.3018  0.1441
10927W        W53839  34.527  14.947  19.004 -0.2374 -0.0801 -0.2606
10928W        W53840   0.154  16.752  19.990  0.0685 -0.3267 -0.1389
10929W        W53841   4.754  15.970  19.682  0.2635  0.1631  0.1137
10930W        W53842   0.927  14.493  17.536 -0.0327 -0.3633 -0.2211
10931W        W53843   1.135  15.059  17.437 -0.2780 -0.4378  0.0868
10932W        W53844   2.566  16.201  19.210  0.3185  0.1556  0.0525
10933W        W53845   0.701  15.535  17.987 -0.0905  0.1809 -0.0971
10934W        W53846   1.282  14.228  16.610 -0.1960 -0.0661 -0.1368
10935W        W53847   2.649  16.115  20.158  0.0762 -0.0265  0.0109
10936W        W53848   2.796  17.070  18.435  0.1199 -0.1631  0.2637
10937W        W53849   2.703  17.325  19.752 -0.1931 -0.0301 -0.2503
10938W        W53850  34.626  15.394  17.334  0.2682  0.0495 -0.1123
10939W        W53851   3.353  16.304  16.205  0.2714  0.1332  0.0449
10940W        W53852   1.195  17.255  19.607  0.1778  0.1520 -0.1183
10941W        W53853   3.239  18.390  20.425  0.1917 -0.1028  0.2367
10942W        W53854   1.925  18.822  18.698 -0.0309 -0.0686 -0.3305
10943W        W53855   3.648  15.543  18.641  0.0472 -0.0980 -0.0641
10944W        W53856   0.210  13.925  17.669 -0.0156  0.2343  0.0562
10945W        W53857   0.663  16.846  16.947 -0.1638  0.1669  0.1846
10946W        W53858   1.992  16.058  19.211 -0.0460 -0.0885 -0.0042
10947W        W53859   2.905  16.287  17.954 -0.2565  0.1470  0.2719
10948W        W53860  33.266  13.848  16.853  0.2121 -0.1096  0.2126
10949W        W53861   1.809  14.129  16.649 -0.1180  0.1933 -0.0570
10950W        W53862  34.133  19.281  19.388  0.1293 -0.2063  0.0927
10951W        W53863   0.310  16.436  18.026  0.0397 -0.0809  0.1528
10952W        W53864   1.375  18.033  23.318  0.3162 -0.1186 -0.1824
10953W        W53865   1.590  16.599  21.106 -0.2033  0.3672 -0.1017
10954W        W53866   4.042  13.565  18.739 -0.2903 -0.2475 -0.3852
10955W        W53867   3.395  17.444  22.537  0.4829  0.1456 -0.0083
10956W        W53868   0.858  14.900  21.315  0.4849 -0.0798  0.1865
10957W        W53869   2.751  17.593  21.006 -0.0825 -0.0040  0.3005
10958W        W53870   1.504  13.909  23.290 -0.3133  0.0247 -0.3197
10959W        W53871   2.252  16.505  23.665  0.1135 -0.1403  0.1567
10960W        W53872   3.385  17.472  21.380  0.1488  0.1819  0.1156
10961W        W53873   1.422  16.790  19.782  0.0327 -0.0617 -0.3963
10962W        W53874   1.773  15.587  22.942  0.1351 -0.3017 -0.1016
10963W        W53875   1.706  18.688  24.107 -0.0450  0.0216  0.1273
10964W        W53876   3.775  14.296  20.212  0.1801  0.2278  0.0363
10965W        W53877   0.063  14.893  22.210 -0.2358  0.0190  0.2184
10966W        W53878   0.652  17.425  22.192 -0.1356  0.0019  0.3319
10967W        W53879   0.573  16.555  20.937  0.1059 -0.0798 -0.1140
10968W        W53880   1.353  15.498  22.682 -0.3968 -0.2542 -0.4114
10969W        W53881   1.109  15.297  22.193 -0.0590  0.4904  0.1389
10970W        W53882   1.342  16.968  20.817  0.0227  0.0573  0.1524
10971W        W53883   2.439  15.397  23.091  0.0858 -0.2717  0.0983
10972W        W53884   2.309  15.368  22.624  0.1018 -0.1115  0.1262
10973W        W53885   2.061  17.072  21.911  0.4476 -0.0273 -0.0431
10974W        W53886  33.628  16.072  19.960 -0.2715 -0.0533  0.0194
10975W        W53887  33.857  15.623  23.372 -0.1156  0.2030 -0.1643
10976W        W53888   1.071  17.273  21.852 -0.0492  0.2233  0.1535
10977W        W53889   2.712  15.801  21.512 -0.0094 -0.1051 -0.2233
10978W        W53890   2.969  16.803  23.313 -0.0189  0.0181 -0.4123
10979W        W53891   0.584  16.276  22.563 -0.2152 -0.0748  0.2572
10980W        W53892   2.159  16.479  21.872  0.2209 -0.3710  0.0921
10981W        W53893   3.465  17.222  24.471 -0.0296  0.0584  0.0483
10982W        W53894   0.053  16.353  20.863 -0.0220 -0.1039  0.2238
10983W        W53895  34.015  18.254  21.435 -0.0799 -0.5211  0.1324
10984W        W53896   0.431  17.417  20.596 -0.0581  0.1649 -0.0773
10985W        W53897   2.821  17.949  22.611 -0.0073  0.1689  0.4905
10986W        W53898   2.997  16.987  23.855 -0.2490 -0.3221 -0.2740
10987W        W53899   0.716  18.969  22.689  0.1653 -0.0313  0.0313
10988W        W53900   0.412  17.656  20.125  0.0249 -0.0072 -0.0132
10989W        W53901   1.817  18.818  23.571  0.0735 -0.0844 -0.4087
10990W        W53902   0.444  18.259  24.685 -0.2117  0.4806 -0.2379
10991W        W53903   2.714  16.540  24.007  0.0126  0.0309  0.0556
10992W        W53904   3.104  16.287  21.896  0.0700  0.2862 -0.0028
10993W        W53905   0.962  17.425  20.878  0.0737  0.0742 -0.0451
10994W        W53906   2.920  16.673  20.722 -0.2306 -0.0697  0.0838
10995W        W53907   1.323  18.579  23.214 -0.2098 -0.1402 -0.1136
10996W        W53908   0.642  17.697  21.662 -0.1348  0.6007  0.0683
10997W        W53909   3.590  13.654  25.145  0.1008 -0.2911  0.0463
10998W        W53910  34.489  17.775  20.038  0.0707  0.2601  0.1197
10999W        W53911   1.937  15.102  20.529 -0.1180  0.3080 -0.0899
11000W        W53912   0.499  15.568  21.103  0.0220  0.2285 -0.4074
11001W        W53913   3.963  14.077  19.710  0.3452 -0.0182 -0.1209
11002W        W53914   1.556  14.170  22.583  0.0051  0.0154  0.0052
11003W        W53915   0.766  17.211  21.365 -0.0948 -0.0331  0.1016
11004W        W53916   1.213  15.585  23.754  0.2054  0.1713  0.1949
11005W        W53917   3.134  17.310  23.406 -0.0744  0.0168  0.1773
11006W        W53918   1.394  16.881  21.454 -0.0319  0.2229  0.2561
11007W        W53919   1.945  14.965  22.291 -0.0245  0.2362 -0.0833
11008W        W53920   1.148  16.869  22.158 -0.0361  0.1605 -0.4725
11009W        W53921   1.508  15.014  22.560  0.0180  0.2017  0.1323
11010W        W53922   2.979  17.122  19.359 -0.3587  0.1761 -0.1198
11011W        W53923   4.163  17.328  21.480 -0.0513  0.2824 -0.2080
11012W        W53924   1.917  18.265  21.659  0.0792  0.2860 -0.1854
11013W        W53925  34.537  16.058  20.559 -0.1098  0.0760  0.0769
11014W        W53926   1.090  17.119  23.557 -0.0707  0.0732  0.2701
11015W        W53927   1.868  17.393  22.735  0.0762  0.0159  0.5963
11016W        W53928   0.521  14.638  18.907  0.0597 -0.2063  0.1443
11017W        W53929   4.793  18.032  22.857  0.0568  0.1284 -0.2621
11018W        W53930  34.122  17.781  22.814  0.1380 -0.1449 -0.0206
11019W        W53931   3.847  15.602  22.086  0.0051  0.0779  0.2452
11020W        W53932  34.611  14.374  20.859 -0.1119 -0.2136 -0.0483
11021W        W53933   3.982  17.365  23.097  0.1971  0.1220 -0.1519
11022W        W53934   3.144  16.945  19.914 -0.0423  0.1336 -0.3242
11023W        W53935   3.184  15.947  21.371  0.1111  0.1313 -0.0821
11024W        W53936   2.430  14.131  22.962 -0.1040 -0.1444  0.3050
11025W        W53937   1.384  15.059  19.899  0.0866 -0.2131 -0.3151
11026W        W53938   1.360  16.793  20.325  0.1075  0.0369 -0.1350
11027W        W53939   4.363  17.619  23.242  0.2939 -0.3118  0.2139
11028W        W53940   3.946  15.328  19.712  0.0286  0.0554  0.0165
11029W        W53941   1.265  17.408  21.327  0.0000 -0.1608 -0.0477
11030W        W53942   1.601  16.416  23.530 -0.3347 -0.1642  0.0423
11031W        W53943   2.337  16.936  24.036  0.0138 -0.3964 -0.1584
11032W        W53944   0.680  18.963  19.387  0.0658 -0.2165 -0.0507
11033W        W53945  34.208  14.788  20.209 -0.0748  0.0213 -0.1047
11034W        W53946  34.248  17.044  20.679 -0.0368  0.0715  0.0202
11035W        W53947   1.604  14.457  23.292  0.0510 -0.3274  0.1088
11036W        W53948   2.020  17.008  22.463 -0.0148 -0.1022  0.1155
11037W        W53949   4.043  16.201  21.560 -0.1683 -0.0081  0.0124
11038W        W53950   0.542  15.707  23.833  0.0038  0.1055  0.2589
11039W        W53951   3.116  15.003  22.893  0.0795 -0.3157 -0.1418
11040W        W53952   0.389  16.127  21.330  0.2316 -0.1442  0.1712
11041W        W53953   3.891  17.723  20.692 -0.1322 -0.2496 -0.0031
11042W        W53954   2.881  15.030  20.611 -0.0979  0.1897 -0.4109
11043W        W53955   2.045  17.043  19.123  0.1415  0.3055 -0.0138
11044W        W53956  34.367  16.474  22.480  0.1309  0.1692 -0.0579
11045W        W53957   0.573  16.908  22.262  0.3328 -0.1074 -0.0105
11046W        W53958   2.106  14.786  24.630 -0.1990 -0.4115 -0.3060
11047W        W53959  34.657  15.562  22.894 -0.0721 -0.2329 -0.2212
11048W        W53960   3.112  15.936  22.825  0.2895 -0.0635  0.0863
11049W        W53961   0.683  15.051  19.186  0.0985  0.0856  0.3061
11050W        W53962   3.156  15.489  20.875 -0.0190 -0.0860  0.0101
11051W        W53963   1.878  16.782  21.493 -0.1673  0.1835 -0.2924
11052W        W53964  34.682  16.788  20.490 -0.1929 -0.2642  0.3403
11053W        W53965   2.537  14.722  24.840 -0.0884  0.3221 -0.0028
11054W        W53966   1.847  16.912  20.013  0.0941  0.0592  0.0169
11055W        W53967   3.455  17.177  22.103  0.0578 -0.1530 -0.0932
11056W        W53968   3.195  17.966  22.273  0.1396  0.0109  0.3236
11057W        W53969   1.420  16.095  23.948 -0.1050  0.0452 -0.2091
11058W        W53970   0.904  14.419  21.215  0.1758 -0.1243  0.0595
11059W        W53971   0.140  18.458  21.251 -0.2810  0.0680 -0.0224
11060W        W53972   1.776  16.485  22.791  0.1733  0.0557  0.1601
11061W        W53973   1.796  15.564  21.276  0.3310 -0.3019 -0.1871
11062W        W53974   2.821  16.733  21.267 -0.4991  0.0510  0.0769
11063W        W53975   2.370  16.171  21.556  0.1781  0.1393  0.0618
11064W        W53976   1.498  16.804  22.541 -0.1536  0.2336 -0.0754
11065W        W53977   3.020  15.473  22.530 -0.1515  0.0959  0.0674
11066W        W53978   3.488  15.800  24.155  0.2279 -0.0575 -0.1861
11067W        W53979   4.019  15.357  21.160  0.0584  0.0610  0.1634
11068W        W53980  34.026  14.817  18.958 -0.2019 -0.1667  0.2965
11069W        W53981   1.757  17.531  21.214  0.0497  0.4076  0.0457
11070W        W53982  33.429  18.101  20.679  0.0002 -0.0244  0.1025
11071W        W53983   0.571  16.073  22.058  0.1024 -0.5449 -0.1953
11072W        W53984   0.944  17.135  20.478 -0.0218  0.1280 -0.0551
11073W        W53985   3.403  16.235  22.316 -0.1046 -0.0401 -0.0086
11074W        W53986   0.107  16.473  24.173  0.2232 -0.0139  0.1580
11075W        W53987   2.093  15.292  24.488  0.1658 -0.1259 -0.1325
11076W        W53988  34.304  15.584  21.088  0.1724 -0.0595  0.1922
11077W        W53989   0.175  18.258  24.269  0.1144 -0.2982 -0.2432
11078W        W53990   2.637  16.480  21.941 -0.0538  0.1318 -0.2087
11079W        W53991   3.892  14.628  19.718 -0.3491  0.3483 -0.0134
11080W        W53992   1.729  16.810  25.071 -0.0254  0.2965  0.0037
11081W        W53993   3.115  16.310  21.043 -0.1161  0.1474 -0.0753
11082W        W53994   1.396  15.914  20.197  0.2845  0.1062  0.0505
11083W        W53995   1.414  13.829  19.884  0.0246  0.0755 -0.0409
11084W        W53996   0.641  16.658  23.409 -0.3469  0.0656 -0.0815
11085W        W53997   1.673  17.284  21.619  0.2071  0.1281 -0.1214
11086W        W53998   1.306  16.290  22.259  0.1840  0.0941 -0.1288
11087W        W53999   1.927  16.229  20.725  0.1431  0.1104 -0.1811
11088W        W54000   4.309  16.472  20.243  0.3624  0.0561 -0.0782
11089W        W54001   0.401  17.186  22.627  0.1170 -0.2902  0.0750
11090W        W54002   1.054  17.980  23.716  0.1479 -0.2327 -0.0729
11091W        W54003   2.004  17.729  21.669  0.1709 -0.1204  0.1474
11092W        W54004   2.755  14.534  20.542 -0.1276 -0.2453  0.0660
11093W        W54005   2.654  16.151  19.664  0.2710 -0.0549 -0.2867
11094W        W54006   0.576  15.102  20.478  0.1875  0.0866  0.1942
11095W        W54007   0.073  18.642  19.903  0.2514  0.1235  0.0011
11096W        W54008   2.467  17.383  23.402  0.2640  0.0152  0.0921
11097W        W54009   2.123  15.756  22.449 -0.1381 -0.1023 -0.1101
11098W        W54010   2.028  14.024  23.457  0.0979 -0.3059  0.0664
11099W        W54011   3.948  16.528  25.992  0.1384 -0.2381 -0.1971
11100W        W54012   4.204  15.662  20.569 -0.3307  0.1550 -0.0736
11101W        W54013   1.939  17.513  22.209  0.2032  0.2375  0.1700
11102W        W54014   0.989  15.986  19.914 -0.0369  0.1636 -0.0597
11103W        W54015   2.298  15.847  24.233 -0.1068 -0.0486  0.0612
11104W        W54016   0.852  15.867  22.949 -0.0531 -0.1817 -0.0874
11105W        W54017   1.275  17.304  23.040 -0.3122 -0.0338 -0.1247
11106W        W54018   2.721  17.790  23.176 -0.0293 -0.0445  0.3393
11107W        W54019   2.227  15.597  21.482 -0.0253  0.1458 -0.2440
11108W        W54020   3.112  15.599  24.410 -0.0646  0.0387 -0.1383
11109W        W54021   1.082  16.273  20.966 -0.0550  0.1420 -0.0121
11110W        W54022  34.240  18.619  20.742  0.0039 -0.1230 -0.2153
11111W        W54023   1.993  17.982  19.479  0.0815  0.2778  0.1639
11112W        W54024   2.016  14.401  22.987  0.1201 -0.1868  0.0347
11113W        W54025   2.554  17.034  21.905 -0.1800  0.1655  0.0512
11114W        W54026   1.994  17.905  20.235 -0.1281  0.1093 -0.1775
11115W        W54027   2.582  16.895  23.611 -0.0249  0.0187  0.0302
11116W        W54028   0.508  17.591  21.066  0.0445 -0.1278 -0.2797
11117W        W54029   3.090  14.028  22.147  0.2999  0.3332  0.0858
11118W        W54030  34.207  17.655  21.933 -0.0928  0.0611  0.1157
11119W        W54031   1.454  16.399  20.600  0.2880 -0.2157  0.3120
11120W        W54032  34.221  14.101  20.707 -0.5680 -0.1506  0.3723
11121W        W54033   3.078  13.899  21.291  0.2107  0.1385  0.0008
11122W        W54034   2.797  15.940  21.055  0.0715  0.0939 -0.0778
11123W        W54035  34.244  15.030  22.991 -0.3334  0.0355  0.3743
11124W        W54036   1.784  15.127  21.354 -0.0209 -0.1000 -0.2363
11125W        W54037  34.481  18.155  22.232 -0.2711 -0.0566 -0.2940
11126W        W54038   2.032  17.214  23.743 -0.1660  0.5251 -0.0948
11127W        W54039   1.798  14.395  20.296 -0.0489  0.0852  0.0547
11128W        W54040   3.861  15.629  23.343  0.1924  0.2978  0.4990
11129W        W54041   2.156  17.657  23.165 -0.0718 -0.3024 -0.1133
11130W        W54042   0.508  14.079  20.578  0.2345  0.0225  0.0342
11131W        W54043   1.639  16.071  23.026 -0.1695 -0.2170  0.2854
11132W        W54044   1.317  16.378  21.454  0.1331  0.1088  0.4741
11133W        W54045  34.612  16.815  20.956  0.1705  0.1527 -0.2843
11134W        W54046   3.027  16.784  21.816  0.0198 -0.1396 -0.2365
11135W        W54047   1.006  16.072  20.470  0.2656  0.2030 -0.1598
11136W        W54048   0.182  17.334  21.284  0.2273 -0.0613  0.0028
11137W        W54049   0.323  16.981  23.132  0.0251  0.1345 -0.1266
11138W        W54050   3.419  16.132  24.544  0.1367  0.0773 -0.1347
11139W        W54051   2.090  15.472  21.977  0.1592 -0.0750  0.1936
11140W        W54052   0.305  15.534  20.297 -0.3920  0.2653 -0.0853
11141W        W54053   0.783  15.920  21.112 -0.1772 -0.2507  0.1195
11142W        W54054   3.901  16.979  24.492 -0.0776 -0.1001  0.1110
11143W        W54055   1.211  16.108  22.737 -0.1188 -0.1429  0.1312
11144W        W54056   0.787  17.488  22.729  0.1010 -0.1533  0.3286
11145W        W54057   2.615  14.946  22.712 -0.1303  0.0376 -0.1614
11146W        W54058   3.143  19.345  20.032  0.0252 -0.1859  0.1488
11147W        W54059   1.148  17.823  22.822 -0.2004  0.0434  0.1821
11148W        W54060   0.029  17.639  19.571  0.0705 -0.1408 -0.1444
11149W        W54061  33.962  16.757  23.230  0.2095  0.2037  0.1652
11150W        W54062   0.520  16.846  18.914 -0.0016  0.0174 -0.1807
11151W        W54063   2.427  16.271  22.311 -0.1796 -0.3378 -0.1371
11152W        W54064   0.793  17.050  23.090  0.1700  0.0473  0.4038
11153W        W54065  34.685  17.009  18.933 -0.1901 -0.2556  0.3719
11154W        W54066   0.464  19.009  23.583  0.2660 -0.0377  0.3739
11155W        W54067   2.695  13.992  18.817 -0.2705  0.3317  0.4210
11156W        W54068   2.345  16.396  20.560  0.3029  0.0834 -0.0633
11157W        W54069   1.231  14.667  23.828  0.1223 -0.0893  0.2127
11158W        W54070   4.508  13.958  24.016  0.0025 -0.1437 -0.1160
11159W        W54071   1.560  16.538  21.863  0.0424 -0.0709  0.0944
11160W        W54072   2.798  14.735  24.059  0.0067  0.1106 -0.0823
11161W        W54073   1.769  15.421  22.313  0.1312  0.2025 -0.0263
11162W        W54074   1.830  17.960  22.107  0.2394 -0.0334  0.0507
11163W        W54075   1.589  16.941  23.461  0.1504 -0.3692  0.1899
11164W        W54076   2.171  17.129  24.469 -0.0615 -0.1645 -0.0036
11165W        W54077   1.396  17.551  23.496 -0.2406 -0.2291  0.0193
11166W        W54078   1.751  16.076  22.044  0.0509 -0.0747 -0.2701
11167W        W54079   0.319  14.562  19.775 -0.0116 -0.1756  0.1435
11168W        W54080   0.803  16.505  22.097 -0.4075  0.0066 -0.1391
11169W        W54081   4.162  16.947  21.890 -0.0000 -0.2103  0.1936
11170W        W54082   2.641  15.420  20.898 -0.4117  0.0719 -0.1383
11171W        W54083   2.899  15.394  21.293  0.0148  0.0865 -0.0321
11172W        W54084   2.525  16.488  23.241 -0.1560  0.2439 -0.0380
11173W        W54085   2.420  15.018  20.685 -0.1068  0.0930 -0.1340
11174W        W54086   0.943  16.877  20.030  0.2877  0.2448 -0.0511
11175W        W54087   0.259  14.889  20.847 -0.1555  0.1013 -0.4578
11176W        W54088   2.895  14.436  23.088  0.1839  0.0993 -0.0178
11177W        W54089   2.271  17.893  22.328 -0.0104  0.0347 -0.2064
11178W        W54090   2.669  14.716  21.065  0.4292  0.0659 -0.2199
11179W        W54091   1.020  16.113  21.878  0.2277  0.1369 -0.0215
11180W        W54092   1.084  15.043  22.884 -0.0604  0.1034 -0.3156
11181W        W54093   1.752  15.656  24.068 -0.0805  0.0628  0.0643
11182W        W54094   1.620  15.097  23.138 -0.2143  0.1319  0.1306
11183W        W54095   2.025  18.885  22.994 -0.1663 -0.2546 -0.2589
11184W        W54096   4.407  14.655  20.289  0.0766 -0.1100 -0.1533
11185W        W54097   2.651  15.924  23.303 -0.0965  0.2369 -0.1010
11186W        W54098   3.976  16.687  21.512 -0.2786 -0.0400 -0.2738
11187W        W54099   1.598  16.053  21.176  0.0128  0.1249 -0.0024
11188W        W54100   0.584  15.093  22.261  0.1363 -0.0443 -0.1260
11189W        W54101   3.480  16.185  23.065  0.1217 -0.5446 -0.0578
11190W        W54102   0.791  14.406  19.458  0.2157 -0.0952  0.1707
11191W        W54103   2.527  15.151  24.303 -0.2617 -0.0628 -0.1683
11192W        W54104   2.146  17.247  21.436 -0.1266 -0.0867  0.0691
11193W        W54105   2.402  17.507  21.842  0.0286  0.6011  0.2106
11194W        W54106   1.566  15.347  20.780  0.3684  0.1744  0.0431
11195W        W54107   0.229  15.322  21.993 -0.3331 -0.1438  0.3109
11196W        W54108   0.072  17.687  24.290 -0.1919 -0.1519 -0.0575
11197W        W54109   0.674  15.421  20.019 -0.2018 -0.0150 -0.1531
11198W        W54110   1.717  17.067  21.127 -0.1729 -0.2970  0.4829
11199W        W54111   2.577  17.807  24.128  0.3801  0.1562  0.0349
11200W        W54112   3.566  17.618  23.486  0.1140 -0.0646 -0.2715
11201W        W54113   1.737  14.118  18.928  0.1386 -0.0742  0.2033
11202W        W54114   2.399  17.187  22.811  0.1895  0.3490  0.1703
11203W        W54115  34.693  17.765  20.947 -0.0643 -0.2172 -0.2282
11204W        W54116   2.155  14.767  21.248  0.2439  0.4757  0.0005
11205W        W54117   1.624  17.121  22.111  0.2060  0.0366  0.0412
11206W        W54118   0.069  16.532  23.355  0.1046 -0.3182 -0.2522
11207W        W54119   1.807  16.793  20.634 -0.1489  0.4044 -0.0106
11208W        W54120   2.142  14.953  21.754  0.2517  0.0852 -0.2199
11209W        W54121   2.413  17.802  21.406 -0.1311  0.1470  0.0628
11210W        W54122   1.801  16.275  21.549 -0.3489 -0.3020  0.1334
11211W        W54123   2.923  15.986  24.252  0.0956  0.1479  0.1658
11212W        W54124   2.052  16.413  23.238  0.3991  0.0597 -0.0922
11213W        W54125   0.972  16.803  21.674  0.2009 -0.0473 -0.1152
11214W        W54126   2.691  18.609  21.931 -0.2076 -0.1905  0.3731
11215W        W54127   4.086  16.671  22.312  0.0100  0.1196  0.0027
11216W        W54128   0.499  16.675  21.416 -0.0081 -0.0045 -0.0704
11217W        W54129  34.324  14.357  23.146 -0.1310 -0.1494  0.2257
11218W        W54130   1.486  15.939  24.408 -0.3580  0.0137  0.0759
11219W        W54131   2.429  15.183  21.294  0.0055  0.1561 -0.1791
11220W        W54132   1.926  14.030  20.647  0.0809 -0.3994 -0.2552
11221W        W54133   2.161  18.280  20.531  0.0863  0.0851 -0.3087
11222W        W54134  34.102  18.213  24.742  0.0028 -0.2194 -0.1733
11223W        W54135   0.188  16.366  21.834 -0.0323  0.0452  0.1630
11224W        W54136  34.220  17.720  21.036  0.1726 -0.0052 -0.1726
11225W        W54137   2.264  17.620  21.013  0.0790 -0.2158 -0.0348
11226W        W54138   2.127  16.068  20.266 -0.2235 -0.4654  0.4108
11227W        W54139   3.508  17.434  23.016  0.0284 -0.0667  0.0323
11228W        W54140   2.613  15.243  20.231 -0.0908  0.0761  0.1605
11229W        W54141   0.984  17.090  22.580 -0.0724 -0.1375  0.1608
11230W        W54142  34.463  16.391  20.178  0.1630 -0.1400  0.0401
11231W        W54143   1.775  17.829  20.698  0.1737 -0.0642 -0.1496
11232W        W54144  34.368  18.010  20.661 -0.0015  0.1286 -0.0535
11233W        W54145   2.568  16.103  23.761  0.3642 -0.3030  0.1148
11234W        W54146   3.940  14.859  20.197 -0.2088 -0.1340 -0.1354
11235W        W54147   2.908  17.384  22.916  0.0119 -0.4002 -0.1911
11236W        W54148   3.269  15.294  20.451 -0.2601 -0.0048 -0.0786
11237W        W54149   3.117  15.901  23.745 -0.4702 -0.0388  0.0506
11238W        W54150   2.234  16.669  22.788  0.0385  0.0830  0.0592
11239W        W54151   0.897  14.381  18.507  0.1852 -0.1902 -0.1943
11240W        W54152   1.349  17.780  24.089  0.0329 -0.2495 -0.0144
11241W        W54153   4.162  14.193  23.652 -0.0090  0.2266  0.5014
11242W        W54154   0.489  18.348  22.926  0.1850  0.1332 -0.0458
11243W        W54155   3.600  19.842  20.637 -0.1382 -0.0803  0.2458
11244W        W54156   0.253  16.365  20.355 -0.0423  0.2453 -0.2203
11245W        W54157   2.303  15.898  21.961 -0.0459 -0.2866 -0.3648
11246W        W54158   2.586  14.778  21.621  0.3262  0.0441 -0.0038
11247W        W54159   1.201  17.777  19.986 -0.0454 -0.1330  0.2524
11248W        W54160   2.836  16.251  21.464 -0.3443  0.0022 -0.0589
11249W        W54161   0.729  18.021  21.310  0.1878  0.1025 -0.2298
11250W        W54162   2.557  16.819  22.358 -0.0904  0.0029  0.1630
11251W        W54163   1.294  19.501  22.224 -0.0802 -0.1060  0.1245
11252W        W54164   0.388  14.404  20.993 -0.0374 -0.4580 -0.0236
11253W        W54165   4.286  15.856  18.999  0.1643  0.0089 -0.0991
11254W        W54166   0.884  16.371  23.101 -0.2645  0.0939 -0.1418
11255W        W54167   3.473  15.276  23.242  0.2646 -0.0598  0.3084
11256W        W54168   0.608  17.061  20.861 -0.2289  0.2341  0.1976
11257W        W54169   3.367  15.492  21.576  0.0624 -0.0217  0.1739
11258W        W54170   2.847  18.268  23.095 -0.0215  0.1194  0.2344
11259W        W54171   2.136  16.913  23.369 -0.1782 -0.0390  0.1217
11260W        W54172   0.923  15.166  19.652 -0.2353  0.1466 -0.1267
11261W        W54173   4.483  16.975  24.527  0.3071  0.2747 -0.0176
11262W        W54174   1.851  15.822  20.537  0.1043 -0.1055 -0.0419
11263W        W54175   2.118  18.787  22.486 -0.2617  0.0074  0.0772
11264W        W54176  34.496  14.805  21.282 -0.3144 -0.0152 -0.0611
11265W        W54177   1.800  14.830  20.143  0.2197  0.2558  0.1979
11266W        W54178   0.948  15.814  22.408  0.1385 -0.1169  0.0947
11267W        W54179   1.326  17.273  23.970 -0.1768  0.1870 -0.3603
11268W        W54180   3.767  18.044  22.604 -0.0071  0.0445  0.1294
11269W        W54181  34.141  15.109  21.203 -0.1461 -0.0353  0.1080
11270W        W54182   2.515  17.647  19.323 -0.4334 -0.0215 -0.1218
11271W        W54183   3.067  15.813  21.855 -0.1953 -0.1850 -0.1749
11272W        W54184   0.678  19.208  20.729 -0.1298  0.2134 -0.2640
11273W        W54185   3.337  16.473  21.506  0.1352  0.1568  0.1024
11274W        W54186   2.355  17.336  22.303  0.0114 -0.0476 -0.0990
11275W        W54187  34.214  16.335  23.120 -0.2027  0.0605  0.0504
11276W        W54188   3.765  18.369  23.364  0.0405 -0.0581 -0.0723
11277W        W54189   2.910  16.598  20.219  0.1714 -0.2165 -0.3282
11278W        W54190   1.740  14.866  20.936 -0.1519  0.1360  0.0606
11279W        W54191   0.434  14.196  23.370 -0.0220  0.0061  0.2297
11280W        W54192  34.347  17.261  21.179  0.2539  0.0130  0.0890
11281W        W54193   3.861  15.721  21.605  0.0602 -0.2846 -0.1304
11282W        W54194   2.836  16.050  22.357 -0.2829 -0.2049  0.0916
11283W        W54195   1.673  18.022  19.900 -0.0033 -0.1481  0.0049
11284W        W54196   3.155  13.954  24.548 -0.1600  0.3709 -0.0423
11285W        W54197   2.479  17.648  22.742 -0.1561 -0.1765 -0.2048
11286W        W54198   0.692  18.977  25.337  0.0339  0.3975 -0.0563
11287W        W54199   0.152  15.452  20.748  0.0684 -0.1313 -0.0528
11288W        W54200   1.849  16.536  23.967  0.1147 -0.2927 -0.2456
11289W        W54201   1.952  16.534  22.334 -0.1968  0.0406 -0.1615
11290W        W54202   2.289  16.951  20.478 -0.0052 -0.4890 -0.2213
11291W        W54203   2.842  17.489  22.411  0.1067 -0.0691  0.1853
11292W        W54204   1.625  15.447  20.254  0.1766 -0.0153 -0.0516
11293W        W54205   3.039  17.314  21.777  0.2001  0.0817 -0.0373
11294W        W54206   0.404  15.822  22.760 -0.0675  0.0530 -0.1554
11295W        W54207   2.972  16.563  22.342 -0.1696 -0.1645  0.2242
11296W        W54208   1.158  14.664  19.701 -0.1077  0.2134 -0.1537
11297W        W54209   1.757  16.943  22.964 -0.3755 -0.0481 -0.1944
11298W        W54210  34.260  15.826  20.001 -0.0406  0.1050  0.1540
11299W        W54211   2.123  16.584  21.061  0.1842 -0.2516  0.0139
11300W        W54212   0.063  15.821  21.119  0.3639  0.0491  0.1075
11301W        W54213   2.014  14.276  24.020 -0.2819 -0.0499  0.0901
11302W        W54214   0.297  15.263  24.026  0.3344  0.1116 -0.0867
11303W        W54215   0.194  15.363  22.463  0.0429 -0.1548 -0.3407
11304W        W54216   0.665  15.558  20.604 -0.0014  0.0866  0.1102
11305W        W54217   2.669  16.725  19.755  0.0743 -0.0211  0.1833
11306W        W54218   1.311  15.769  22.132  0.2164  0.0677 -0.2120
11307W        W54219  34.641  15.332  21.270  0.1154 -0.1346  0.2303
11308W        W54220   2.276  17.485  20.259  0.1679 -0.0756 -0.2939
11309W        W54221   2.542  16.339  21.054 -0.1472  0.2870  0.0390
11310W        W54222   1.619  14.437  19.829  0.0905  0.1741 -0.3480
11311W        W54223   2.309  18.140  23.208  0.1349 -0.2270  0.1453
11312W        W54224  34.346  16.797  19.210 -0.3156  0.1834 -0.2206
11313W        W54225   3.113  16.311  23.405 -0.0061  0.2992  0.0894
11314W        W54226   1.728  15.800  23.497 -0.1346 -0.0029 -0.0745
11315W        W54227  34.476  14.500  19.230  0.1512 -0.0196 -0.0198
11316W        W54228   2.575  15.557  22.246 -0.1034 -0.2684  0.0942
11317W        W54229   2.903  18.209  21.199  0.0514 -0.5509 -0.1701
11318W        W54230   2.803  18.872  20.467  0.0663 -0.1904 -0.0542
11319W        W54231   0.881  17.595  23.310  0.0769  0.1724 -0.1524
11320W        W54232   2.698  18.100  23.616  0.2915  0.2577 -0.0199
11321W        W54233   2.265  15.631  23.589  0.0685 -0.2652  0.0861
11322W        W54234   3.513  16.582  20.116 -0.0042 -0.0744  0.1039
11323W        W54235   0.777  18.617  23.761  0.2699  0.1056  0.1302
11324W        W54236   3.391  16.518  20.657 -0.2074  0.2798  0.0159
11325W        W54237   3.593  15.675  21.184  0.1434  0.1636 -0.0622
11326W        W54238   0.473  16.968  20.286  0.0933  0.0474 -0.2020
11327W        W54239   1.699  13.894  23.779 -0.1442 -0.1253 -0.0986
11328W        W54240   1.099  16.561  23.527  0.1027 -0.2567 -0.0898
11329W        W54241   2.552  15.776  22.816 -0.2119 -0.1598 -0.2011
11330W        W54242   0.801  15.659  21.919 -0.3117 -0.2249  0.0955
11331W        W54243   1.183  15.926  21.419  0.0833 -0.1661 -0.0967
11332W        W54244   1.338  17.260  20.093 -0.0884  0.0122 -0.0174
11333W        W54245   1.381  14.642  22.905  0.1849  0.5421  0.1622
11334W        W54246   2.062  15.269  20.963 -0.2558  0.1238 -0.0158
11335W        W54247   1.515  16.435  24.285  0.2029  0.0895  0.3720
11336W        W54248   1.803  18.369  22.485  0.0485  0.0957  0.3417
11337W        W54249   1.745  17.105  24.152  0.1379  0.0905 -0.0911
11338W        W54250   2.075  16.093  21.208 -0.1629 -0.3659 -0.1637
11339W        W54251   5.184  16.455  20.595  0.1439  0.0138  0.1371
11340W        W54252   3.127  18.336  22.569 -0.2771 -0.4614  0.1700
11341W        W54253   4.831  17.612  23.518 -0.1000 -0.1266 -0.0892
11342W        W54254   3.280  17.874  22.786 -0.1928  0.1438 -0.1230
11343W        W54255   1.813  17.363  23.325 -0.2339 -0.2021 -0.2656
11344W        W54256   1.397  14.867  22.016 -0.0499  0.2187 -0.1601
11345W        W54257   0.007  17.305  20.320  0.1238 -0.0642  0.0049
11346W        W54258   0.615  17.095  21.804  0.0290  0.2595  0.1344
11347W        W54259   2.169  16.165  22.755  0.2096  0.0573 -0.1822
11348W        W54260   0.836  16.340  21.460  0.1167 -0.0759  0.0599
11349W        W54261   0.475  15.027  19.847 -0.1915  0.2433  0.0472
11350W        W54262   1.622  17.865  22.503  0.2866  0.2387 -0.2315
11351W        W54263   1.615  17.691  23.043 -0.1748 -0.1026  0.0937
11352W        W54264   1.896  17.486  26.259  0.1152  0.0177 -0.0178
11353W        W54265   1.810  14.998  24.197 -0.0468 -0.0898  0.0461
11354W        W54266   3.481  14.851  23.612 -0.0313 -0.2065 -0.2169
11355W        W54267   4.300  17.978  26.531 -0.1998 -0.2163 -0.2012
11356W        W54268   0.929  16.142  26.090  0.2311  0.0440  0.1514
11357W        W54269   1.290  18.223  24.234 -0.0004  0.1388 -0.1178
11358W        W54270  34.600  14.635  27.590  0.0285 -0.2436 -0.0246
11359W        W54271   2.131  17.982  27.490  0.0402 -0.3182 -0.0581
11360W        W54272   4.627  18.501  26.427 -0.0133  0.0612 -0.0806
11361W        W54273   2.922  16.494  24.463 -0.0919 -0.1677 -0.4137
11362W        W54274   2.185  15.336  25.808 -0.3423  0.1194 -0.1651
11363W        W54275   1.728  17.534  26.808  0.0102 -0.0054  0.1586
11364W        W54276   2.108  15.903  23.177  0.0343 -0.0577  0.3195
11365W        W54277  34.632  15.165  25.865 -0.5788 -0.0412 -0.0443
11366W        W54278   2.610  15.112  26.542  0.1279  0.2740  0.1465
11367W        W54279   0.988  16.911  25.057 -0.3464  0.3924 -0.0526
11368W        W54280   0.390  16.342  27.016 -0.2921  0.0999  0.0393
11369W        W54281   0.917  14.635  23.162  0.1030  0.0352 -0.1362
11370W        W54282   3.026  17.686  25.879  0.2137 -0.1221 -0.0210
11371W        W54283   2.239  15.361  26.641  0.1014 -0.0075 -0.1923
11372W        W54284   1.604  15.160  26.526 -0.0548 -0.2496 -0.0787
11373W        W54285   1.858  18.049  23.360  0.0102 -0.2255 -0.0233
11374W        W54286   0.653  17.036  24.050  0.1307  0.2339  0.1708
11375W        W54287   0.690  17.122  25.935  0.1932 -0.1727 -0.0374
11376W        W54288   0.847  16.567  27.050 -0.1613 -0.2642  0.3655
11377W        W54289   3.157  14.833  25.569  0.2591  0.2056  0.1094
11378W        W54290   3.424  16.472  25.930 -0.0566 -0.3239  0.0628
11379W        W54291   2.014  18.063  24.886  0.3328  0.3649 -0.1488
11380W        W54292   1.584  18.816  25.485 -0.1118 -0.1179 -0.0971
11381W        W54293   3.037  15.977  27.135 -0.1564  0.0326 -0.1782
11382W        W54294   0.593  17.667  25.255 -0.2324 -0.2299  0.1013
11383W        W54295  34.404  19.541  24.821  0.0701 -0.3376  0.1017
11384W        W54296   1.730  17.281  25.474 -0.0157  0.2593 -0.3760
11385W        W54297   3.667  18.601  24.769 -0.3453  0.4836  0.3234
11386W        W54298   1.887  18.793  27.307  0.1145 -0.0170 -0.1363
11387W        W54299   0.430  19.135  26.424  0.1939  0.1727  0.4624
11388W        W54300   0.355  18.741  23.971 -0.2727 -0.3096 -0.1107
11389W        W54301   2.677  18.142  27.518 -0.0151 -0.0522  0.2370
11390W        W54302   1.285  17.594  26.851  0.1129 -0.0178 -0.2715
11391W        W54303   1.649  16.302  27.184 -0.2347  0.1821 -0.0580
11392W        W54304   2.140  16.135  27.045 -0.2678 -0.3542 -0.0880
11393W        W54305   1.915  18.405  23.018  0.0149 -0.3532 -0.0636
11394W        W54306   1.667  16.432  26.127 -0.0875 -0.0051 -0.0540
11395W        W54307   0.976  15.645  28.478 -0.0066 -0.1412 -0.0506
11396W        W54308  34.545  17.931  25.569 -0.0750 -0.1195 -0.0855
11397W        W54309   3.307  14.491  28.246  0.1236  0.0696 -0.0292
11398W        W54310   0.813  17.902  24.515  0.2028  0.0233  0.0049
11399W        W54311   1.643  15.483  24.565  0.0894 -0.0130 -0.0962
11400W        W54312   1.502  14.699  25.166  0.0076  0.1486 -0.0773
11401W        W54313   2.561  14.291  23.889  0.2584 -0.4249 -0.1356
11402W        W54314   1.078  15.337  26.361  0.1316  0.0834 -0.0508
11403W        W54315   1.191  19.089  25.295  0.1535  0.0502  0.1537
11404W        W54316   0.387  16.010  25.399  0.0938 -0.2130  0.0160
11405W        W54317   3.941  17.061  25.324  0.3488  0.1464  0.0295
11406W        W54318   1.129  15.957  25.384  0.0859  0.0819 -0.0689
11407W        W54319   1.173  16.224  27.293  0.0164  0.4035 -0.2226
11408W        W54320   1.227  17.127  25.993  0.2420  0.0683 -0.1988
11409W        W54321  34.643  15.831  25.256  0.3232  0.1968  0.0561
11410W        W54322   3.754  17.031  23.409 -0.1218  0.1357  0.0430
11411W        W54323   3.214  17.858  25.451  0.2512 -0.1696 -0.1032
11412W        W54324   2.138  18.493  23.621 -0.2518 -0.3331  0.2077
11413W        W54325  34.280  17.210  24.317  0.1201  0.0595 -0.0552
11414W        W54326  33.865  16.102  28.258  0.1093 -0.0558 -0.0505
11415W        W54327   0.283  17.580  26.882 -0.1934  0.1435 -0.1465
11416W        W54328   2.752  15.063  23.206 -0.2258  0.1762  0.2208
11417W        W54329   3.653  17.051  26.851  0.0702 -0.0718 -0.1615
11418W        W54330   0.240  16.062  27.902  0.1195 -0.1748 -0.2211
11419W        W54331   3.324  16.847  24.205  0.1303  0.0244 -0.4076
11420W        W54332   0.068  16.528  24.839 -0.1013  0.2981  0.0852
11421W        W54333   3.173  17.867  26.426  0.4331  0.0941  0.0123
11422W        W54334   2.526  17.450  24.445  0.0462 -0.0071 -0.2227
11423W        W54335   3.221  13.519  25.967 -0.0486  0.3909  0.2618
11424W        W54336   1.361  14.386  26.620  0.1536 -0.4473  0.0268
11425W        W54337   2.572  18.463  24.007 -0.1111 -0.2780  0.0383
11426W        W54338   1.768  15.065  24.909  0.0209  0.1418 -0.4508
11427W        W54339   3.652  17.561  25.627 -0.1474  0.0490 -0.0727
11428W        W54340   3.104  17.803  24.976  0.0636 -0.0671 -0.2548
11429W        W54341   0.426  19.120  27.369 -0.4540  0.0511 -0.0607
11430W        W54342   0.925  15.795  26.537 -0.1030 -0.2069  0.2844
11431W        W54343   1.319  17.394  27.327 -0.1034 -0.1189  0.1910
11432W        W54344   1.767  19.217  23.992 -0.1644  0.1771  0.2086
11433W        W54345   1.845  17.196  24.814  0.1812 -0.0936  0.0641
11434W        W54346   1.392  16.558  23.100  0.1833  0.1638 -0.0174
11435W        W54347   0.346  15.966  26.494 -0.2566 -0.1059 -0.2875
11436W        W54348   0.511  17.997  26.944  0.1512  0.0986  0.1139
11437W        W54349   2.260  16.093  24.682  0.2499 -0.0391  0.3866
11438W        W54350  34.151  15.779  26.652  0.1625 -0.0432 -0.2158
11439W        W54351   2.962  13.171  25.620  0.0964  0.3705  0.1182
11440W        W54352   1.250  18.620  23.692 -0.0064  0.0096  0.1613
11441W        W54353   2.306  19.493  24.036  0.0557  0.0990 -0.0754
11442W        W54354   4.059  17.286  25.800  0.0349 -0.0532 -0.0263
11443W        W54355   2.000  18.265  24.082  0.1126  0.0537 -0.3731
11444W        W54356  33.372  16.593  26.927  0.0749 -0.1750  0.3203
11445W        W54357   1.043  16.275  24.550  0.3493 -0.0330  0.2794
11446W        W54358   1.308  14.408  28.116  0.0425  0.0264 -0.0588
11447W        W54359   1.381  15.581  25.609 -0.6935  0.2414  0.2246
11448W        W54360   1.704  16.170  26.726  0.1032 -0.1452 -0.3017
11449W        W54361   0.431  15.617  24.309 -0.0641  0.0648  0.1680
11450W        W54362   3.068  14.356  25.441  0.0009  0.2200 -0.1638
11451W        W54363   1.486  17.406  24.431 -0.4073  0.0874 -0.1771
11452W        W54364   0.084  17.623  25.296 -0.0068  0.1910  0.0257
11453W        W54365   3.684  17.321  26.429 -0.0364  0.0508  0.2337
11454W        W54366   2.632  17.344  23.891  0.3412  0.1711  0.1823
11455W        W54367   2.938  19.060  27.124  0.1263  0.0486 -0.0561
11456W        W54368   2.117  17.508  24.187 -0.1370 -0.2507  0.1448
11457W        W54369   0.228  15.191  26.284 -0.4458  0.1617 -0.2412
11458W        W54370   1.011  15.149  23.869 -0.0912 -0.1447  0.0624
11459W        W54371   0.697  18.440  25.997 -0.0533  0.4230  0.0721
11460W        W54372   2.389  17.452  26.557 -0.1049 -0.0482  0.1820
11461W        W54373   1.245  15.055  24.878 -0.0890 -0.3043 -0.0435
11462W        W54374   2.772  18.102  26.126 -0.0744 -0.1874 -0.0686
11463W        W54375   3.207  17.382  25.420  0.0326  0.2535 -0.0558
11464W        W54376   1.300  16.649  25.884  0.0161  0.0623  0.1061
11465W        W54377   2.451  15.893  26.459  0.0824  0.3405  0.2385
11466W        W54378   3.028  16.883  25.758 -0.0286 -0.3516  0.3115
11467W        W54379   1.942  16.172  24.308 -0.3016 -0.1082 -0.0320
11468W        W54380   0.901  15.435  23.198 -0.1037  0.3339  0.1797
11469W        W54381   2.162  16.628  26.144  0.1912 -0.0746  0.1171
11470W        W54382   0.275  18.714  24.502  0.3625  0.0802  0.0028
11471W        W54383   0.042  16.998  25.149 -0.0518  0.2303 -0.0185
11472W        W54384   1.888  18.385  24.565  0.0780  0.1365 -0.1725
11473W        W54385   4.335  14.540  25.916  0.0836 -0.1385  0.1616
11474W        W54386  33.419  16.217  29.318 -0.0178 -0.0677  0.0469
11475W        W54387   4.074  16.123  26.467 -0.0047  0.1516 -0.2020
11476W        W54388   1.354  15.278  24.193 -0.1085  0.2947  0.0960
11477W        W54389   0.605  17.748  26.520 -0.1648  0.1581 -0.0363
11478W        W54390   2.679  14.232  25.160  0.0895 -0.1894 -0.0865
11479W        W54391   3.154  15.569  24.955  0.2981 -0.1016  0.0614
11480W        W54392   0.839  17.102  26.406 -0.0959  0.1989 -0.2049
11481W        W54393   2.897  18.171  26.756  0.0706  0.1878  0.2189
11482W        W54394   2.771  16.855  22.785 -0.0449  0.2438 -0.0854
11483W        W54395   3.541  14.684  24.790 -0.3078 -0.0043  0.2623
11484W        W54396   1.024  17.123  26.898  0.4955 -0.1470  0.0379
11485W        W54397   1.912  16.673  24.456  0.3125 -0.0948  0.2434
11486W        W54398   0.937  17.446  24.846 -0.3906  0.1411  0.2369
11487W        W54399   3.017  15.172  24.066  0.2221  0.2771 -0.0634
11488W        W54400   2.317  18.500  24.879 -0.4297  0.1152 -0.0619
11489W        W54401  34.574  17.498  26.353 -0.2756 -0.3399  0.0229
11490W        W54402   1.280  16.775  26.376  0.3152 -0.4336 -0.0223
11491W        W54403   2.138  19.076  24.865  0.0901  0.1959 -0.2333
11492W        W54404   1.272  14.853  26.779  0.3369  0.0229 -0.3504
11493W        W54405   2.618  15.689  24.553  0.1719 -0.1160 -0.1397
11494W        W54406   1.947  15.406  25.347 -0.0288  0.0365  0.2562
11495W        W54407  33.635  18.128  24.742  0.1439 -0.0277  0.1264
11496W        W54408   2.838  14.541  25.875  0.0267 -0.1786  0.2173
11497W        W54409   2.745  15.538  26.764 -0.0317 -0.0067 -0.1566
11498W        W54410   1.112  14.406  27.122  0.0130  0.0939  0.3052
11499W        W54411   4.032  17.005  26.247  0.2904  0.3763  0.0288
11500W        W54412   3.167  16.406  24.933 -0.0452 -0.1265 -0.0191
11501W        W54413   1.884  16.650  26.580  0.3356 -0.0380  0.0013
11502W        W54414   2.013  16.080  23.807  0.1579  0.3405  0.0026
11503W        W54415   2.119  15.429  27.332  0.0422 -0.0220  0.1413
11504W        W54416   0.346  17.247  26.317  0.0445 -0.0976  0.1051
11505W        W54417   0.669  18.368  26.583 -0.2726  0.0533 -0.2470
11506W        W54418   2.972  19.419  25.006 -0.1169  0.1365 -0.1850
11507W        W54419   1.383  17.356  25.160 -0.1648  0.2115  0.0762
11508W        W54420   1.994  15.511  26.253 -0.4451 -0.4630  0.3450
11509W        W54421   1.349  15.699  23.161  0.3117 -0.1546 -0.3938
11510W        W54422   1.696  19.561  23.234  0.2593 -0.0565  0.3547
11511W        W54423   1.303  16.881  24.339  0.1174 -0.1249 -0.1809
11512W        W54424   1.302  16.178  26.451 -0.0875  0.1409 -0.0715
11513W        W54425   1.975  17.128  26.592  0.1133  0.1318 -0.1701
11514W        W54426   2.164  18.942  23.947 -0.2152  0.1319 -0.0016
11515W        W54427   2.548  17.429  25.816 -0.0746 -0.4024 -0.0875
11516W        W54428   0.845  18.459  25.489 -0.2158 -0.1494 -0.1314
11517W        W54429   3.399  14.744  26.040  0.0250 -0.0022  0.2342
11518W        W54430  34.220  19.599  26.065  0.0641  0.1768 -0.0218
11519W        W54431   1.935  14.337  24.525  0.1862  0.0621  0.3516
11520W        W54432   0.329  17.493  23.827  0.0917  0.2204  0.0549
11521W        W54433   3.158  13.478  24.682  0.2146 -0.0837  0.1259
11522W        W54434   3.533  17.552  25.012  0.2042 -0.0695 -0.0007
11523W        W54435  34.637  15.572  26.606 -0.0084  0.0439 -0.3226
11524W        W54436   0.686  14.581  25.540 -0.0378  0.3821 -0.1153
11525W        W54437  34.108  18.041  27.133  0.1450 -0.0919 -0.2029
11526W        W54438   2.332  16.381  27.841  0.2471  0.1211  0.0420
11527W        W54439   4.036  15.869  25.413 -0.0972  0.0636 -0.1787
11528W        W54440   1.891  17.350  27.314  0.1346 -0.1781 -0.0345
11529W        W54441   0.790  16.201  25.621 -0.1140  0.0367  0.1954
11530W        W54442   0.686  15.943  24.644  0.0743  0.2085 -0.0267
11531W        W54443   3.072  16.608  26.256  0.4309  0.2727 -0.1954
11532W        W54444   1.296  16.610  24.782  0.1926 -0.1327 -0.5083
11533W        W54445   0.361  17.201  25.550  0.1211  0.1431  0.2136
11534W        W54446   2.059  17.534  25.785 -0.0161 -0.1234 -0.0589
11535W        W54447   0.849  16.580  24.218  0.0521 -0.1841 -0.1518
11536W        W54448   0.898  18.045  25.765  0.0207  0.0734 -0.5682
11537W        W54449   1.199  14.916  27.857  0.3800 -0.1733  0.0489
11538W        W54450   2.264  17.189  26.982 -0.2637 -0.0821 -0.2059
11539W        W54451   1.297  15.860  26.939 -0.1543  0.0511 -0.0646
11540W        W54452   1.019  15.444  25.201 -0.4833 -0.2547  0.1549
11541W        W54453   1.826  15.977  26.260 -0.1326  0.0912 -0.0178
11542W        W54454   3.711  16.909  25.811 -0.0109 -0.0517  0.3063
11543W        W54455   1.211  14.854  26.271 -0.0221  0.0471  0.1862
11544W        W54456   0.112  16.423  26.191  0.3727  0.2508 -0.1274
11545W        W54457   1.408  16.175  25.756  0.2264 -0.0771  0.2993
11546W        W54458   2.837  18.471  24.930  0.0118 -0.2730  0.1400
11547W        W54459   3.305  16.308  26.586 -0.0890 -0.0288 -0.0282
11548W        W54460   2.599  16.176  25.521  0.2815  0.1621 -0.5371
11549W        W54461   0.541  16.467  24.672 -0.3690  0.1320 -0.2522
11550W        W54462  34.579  18.458  24.750 -0.2420 -0.0658 -0.0763
11551W        W54463   1.642  14.845  27.331  0.0019 -0.1296 -0.3019
11552W        W54464  34.621  19.048  27.511  0.0797  0.0229 -0.2025
11553W        W54465   0.825  15.213  24.356 -0.0629  0.0821  0.1922
11554W        W54466   1.536  17.822  26.304 -0.0207  0.0168  0.0299
11555W        W54467   3.652  12.307  24.419 -0.3491  0.1340 -0.2758
11556W        W54468   2.428  17.984  25.744 -0.2257 -0.0081  0.2646
11557W        W54469   1.447  15.559  25.062  0.2220 -0.2846  0.0302
11558W        W54470   2.639  15.023  27.037 -0.1557  0.1967 -0.1857
11559W        W54471   2.134  16.247  25.226  0.1064 -0.0266 -0.1507
11560W        W54472   1.706  15.793  27.209  0.5827  0.1230  0.0258
11561W        W54473   1.204  15.691  26.056 -0.3177  0.0498 -0.1521
11562W        W54474   3.041  18.476  26.318  0.2996 -0.1197  0.3504
11563W        W54475   0.048  15.679  26.122  0.1823 -0.0470  0.2335
11564W        W54476   2.259  18.449  27.434  0.1880  0.2581 -0.0195
11565W        W54477   0.033  14.663  27.060 -0.0376  0.0668  0.0371
11566W        W54478   3.136  15.610  25.453 -0.0409 -0.2174 -0.0929
11567W        W54479   2.087  14.718  25.223 -0.3470  0.0054 -0.1574
11568W        W54480   0.347  16.636  25.738 -0.0472 -0.1379  0.1320
11569W        W54481   2.675  17.012  25.362 -0.4002  0.1943  0.1590
11570W        W54482   1.546  18.118  23.797  0.0022  0.0379 -0.1740
11571W        W54483   3.200  17.227  26.149 -0.1553  0.0445 -0.2121
11572W        W54484   0.123  17.573  25.818 -0.0371 -0.0219  0.0806
11573W        W54485   2.177  17.577  24.813 -0.2271  0.1654 -0.1944
11574W        W54486   2.559  15.707  25.183  0.2465 -0.1761 -0.2860
11575W        W54487  34.218  17.714  24.434 -0.2428  0.2064  0.1245
11576W        W54488  34.283  14.860  26.846  0.0421  0.1069  0.0520
11577W        W54489   3.120  17.014  25.122  0.3191 -0.0317 -0.2643
11578W        W54490   4.037  14.073  25.508 -0.0597 -0.1103 -0.1972
11579W        W54491   2.258  15.842  25.977 -0.5054  0.1313  0.1692
11580W        W54492   3.156  16.483  27.143  0.2837 -0.0789  0.0674
11581W        W54493   1.339  15.330  26.947 -0.0898 -0.2744 -0.1306
11582W        W54494   0.432  15.678  27.053  0.0587  0.3603 -0.0030
11583W        W54495   2.234  18.243  26.089  0.0828 -0.0272  0.0660
11584W        W54496   2.183  15.362  23.973  0.2081 -0.1713 -0.1520
11585W        W54497   4.577  16.078  26.270  0.0610 -0.0265  0.0685
11586W        W54498   3.615  16.546  24.769 -0.0026 -0.2198 -0.0839
11587W        W54499   1.797  16.627  25.592  0.0279 -0.1631  0.1062
11588W        W54500   1.486  15.649  26.489 -0.1267 -0.0993  0.1743
11589W        W54501   3.260  16.814  26.744 -0.0385  0.3609  0.1725
11590W        W54502   1.799  14.622  22.587  0.0300  0.0184 -0.0249
11591W        W54503   3.614  15.196  26.141 -0.2735  0.3149  0.0488
11592W        W54504   1.819  18.614  25.104  0.0483  0.0160  0.0329
11593W        W54505   3.361  17.804  24.541 -0.0631  0.3354  0.0743
11594W        W54506   3.680  15.814  26.453 -0.1298  0.0770  0.0173
11595W        W54507   1.367  16.513  26.843  0.4169 -0.0309  0.0814
11596W        W54508   0.165  18.404  26.840  0.0318 -0.1727 -0.3050
11597W        W54509   0.003  17.348  24.715  0.1578  0.1951 -0.2515
11598W        W54510   1.369  17.117  24.783  0.0103  0.0334 -0.2803
11599W        W54511   2.399  16.853  26.510  0.4483 -0.1243 -0.1484
11600W        W54512   3.396  18.792  27.244  0.1171 -0.1160 -0.0531
11601W        W54513   2.260  14.838  23.992 -0.2647 -0.3246  0.1379
11602W        W54514   3.528  16.869  26.280 -0.0683  0.0419  0.0309
11603W        W54515   0.661  18.363  24.239 -0.0481  0.2729  0.0035
11604W        W54516   2.910  15.173  25.277  0.0319  0.1384 -0.0394
11605W        W54517   1.203  17.586  25.646 -0.0557 -0.1254 -0.0519
11606W        W54518   0.005  18.053  27.097  0.1484  0.2135  0.1320
11607W        W54519   2.209  17.229  25.184  0.0320  0.0411 -0.0287
11608W        W54520   2.252  15.883  27.894  0.0838  0.2355 -0.0367
11609W        W54521   1.888  15.816  24.882 -0.4562 -0.2100 -0.1152
11610W        W54522   0.486  16.709  26.465 -0.0604 -0.1808  0.0173
11611W        W54523   4.139  17.476  26.262 -0.0137 -0.0181 -0.2738
11612W        W54524   2.574  16.712  25.766  0.0547 -0.3505  0.2877
11613W        W54525   0.413  16.619  25.223  0.1766 -0.0899  0.1133
11614W        W54526   3.382  18.357  29.320  0.1462  0.0551  0.1254
11615W        W54527   5.261  17.799  26.462 -0.4242 -0.2081  0.1023
11616W        W54528   0.646  17.608  25.744 -0.0087 -0.1548 -0.0924
11617W        W54529  34.176  15.998  28.630 -0.2015  0.1277  0.0814
11618W        W54530   0.762  15.751  27.516  0.0641  0.2293 -0.0411
11619W        W54531   2.724  16.993  26.158 -0.3167  0.0861  0.1499
11620W        W54532   1.111  14.441  24.913 -0.2427 -0.1628  0.3349
11621W        W54533   2.170  17.700  25.358 -0.3287  0.1739  0.1516
11622W        W54534  33.999  17.588  27.432 -0.3269  0.2548 -0.1267
11623W        W54535   1.273  17.028  25.475 -0.0631  0.1206 -0.4885
11624W        W54536  33.716  19.386  24.162 -0.2554 -0.1862  0.1486
11625W        W54537   3.315  16.295  24.070 -0.2170 -0.1788 -0.2221
11626W        W54538   1.104  17.869  25.287 -0.4261  0.0998  0.1837
11627W        W54539   1.587  17.422  25.904  0.2409  0.3373 -0.0351
11628W        W54540   1.252  16.031  23.510 -0.0778  0.1344  0.3143
11629W        W54541   1.455  18.155  25.013  0.3238 -0.0185 -0.4614
11630W        W54542  34.186  17.709  23.923  0.1627  0.0374  0.1668
11631W        W54543   2.842  17.786  24.552 -0.0698  0.0824  0.1691
11632W        W54544   0.464  17.419  24.378 -0.0391 -0.3169  0.2497
11633W        W54545   2.434  18.257  26.564  0.0758  0.0637  0.0334
11634W        W54546   3.592  15.636  24.663  0.3635 -0.1267  0.1573
11635W        W54547   3.856  17.922  26.262 -0.0682  0.1710 -0.1330
11636W        W54548   3.113  15.423  26.333  0.0024 -0.0649 -0.0031
11637W        W54549   2.691  17.651  27.335  0.1021 -0.0972  0.0950
11638W        W54550   0.460  15.502  26.579 -0.1675 -0.1517 -0.0587
11639W        W54551   1.986  16.225  25.720 -0.1505  0.0021 -0.1181
11640W        W54552   1.342  15.890  28.113  0.1080  0.0985  0.2023
11641W        W54553   4.214  13.946  26.899  0.0928  0.5989  0.0997
11642W        W54554   0.126  18.961  27.991  0.0341  0.1514 -0.2247
11643W        W54555   2.284  19.074  24.426 -0.0003  0.0134  0.1405
11644W        W54556  34.386  15.294  25.361 -0.0646 -0.1544 -0.2361
11645W        W54557   0.589  16.698  22.803  0.0832  0.2477  0.2646
11646W        W54558   3.671  15.587  25.833 -0.1829 -0.0588 -0.1060
11647W        W54559   2.306  18.592  24.399 -0.1253 -0.2517 -0.2016
11648W        W54560   2.632  15.473  25.593  0.1082 -0.2407  0.1829
11649W        W54561   0.856  19.591  24.577  0.1614 -0.1948  0.2382
11650W        W54562   1.114  18.589  26.639  0.2869 -0.1727 -0.0714
11651W        W54563   1.618  17.760  25.419  0.3040  0.2066 -0.2163
11652W        W54564  34.323  16.012  23.996 -0.3778  0.0479 -0.2910
11653W        W54565   5.245  16.200  25.427  0.0497  0.1087 -0.1098
11654W        W54566   0.659  16.888  27.388 -0.3707  0.0149 -0.0673
11655W        W54567   3.219  15.788  26.705  0.0162 -0.2158  0.0470
11656W        W54568   0.818  16.343  26.578  0.0332 -0.3494 -0.0103
11657W        W54569   3.071  14.699  24.993  0.0598 -0.1594 -0.1831
11658W        W54570   0.863  16.698  26.099  0.2384  0.0233 -0.1391
11659W        W54571   0.853  16.396  25.167  0.3079  0.2668 -0.0930
11660W        W54572   1.750  16.983  26.129 -0.1613 -0.2595  0.0048
11661W        W54573   2.832  16.579  26.711  0.2508  0.2047 -0.2168
11662W        W54574   2.684  15.541  24.007  0.1420 -0.0173 -0.0776
11663W        W54575   3.277  19.441  27.163  0.1345  0.0768 -0.2331
11664W        W54576   0.643  15.556  26.132  0.0625  0.1485 -0.1061
11665W        W54577   3.522  15.181  25.547 -0.0385  0.0804 -0.0025
11666W        W54578  34.365  16.510  26.003  0.0957  0.1372  0.1660
11667W        W54579   0.759  16.066  27.026  0.2898  0.0087 -0.1778
11668W        W54580   2.308  17.762  26.206 -0.1282  0.1609 -0.0407
11669W        W54581   1.137  15.482  24.655 -0.2589  0.2570  0.2365
11670W        W54582   2.681  18.261  24.505 -0.4092 -0.2716 -0.0327
11671W        W54583   3.548  15.381  26.684  0.0552 -0.0025 -0.0471
11672W        W54584   0.049  19.513  23.767 -0.1405  0.1614 -0.0018
11673W        W54585   4.072  17.586  26.822  0.0171  0.0746  0.1099
11674W        W54586   2.825  19.243  25.609 -0.0954  0.1595 -0.0820
11675W        W54587   0.018  16.135  25.730 -0.2460  0.0415 -0.0888
11676W        W54588   2.685  18.630  27.186 -0.1773  0.3331 -0.1195
11677W        W54589   3.265  17.383  26.652  0.0429 -0.0696  0.3490
11678W        W54590   1.565  15.228  23.699 -0.1882 -0.1664 -0.4109
11679W        W54591   1.368  16.485  25.331  0.2796  0.1408 -0.0021
11680W        W54592   1.266  18.643  25.152 -0.0819  0.0455  0.3701
11681W        W54593   2.589  16.394  24.985 -0.0410 -0.0471 -0.2284
11682W        W54594   2.490  16.271  26.028 -0.2386  0.3666 -0.0078
11683W        W54595   1.901  19.501  24.932 -0.1045 -0.2950  0.3633
11684W        W54596   3.725  16.082  26.013 -0.1449  0.1715 -0.0124
11685W        W54597   0.466  17.087  26.889 -0.1136  0.1398 -0.1607
11686W        W54598   0.532  18.428  28.058 -0.1965  0.3117  0.0497
11687W        W54599   1.381  16.747  23.859 -0.1376  0.0857 -0.1296
11688W        W54600   0.347  17.917  26.125 -0.2603  0.2480  0.0746
11689W        W54601   1.730  17.642  23.868  0.1738  0.1609 -0.3700
11690W        W54602   2.819  17.005  24.357  0.0781 -0.0015 -0.0075
11691W        W54603   2.212  16.794  24.903 -0.0912  0.2226  0.1769
11692W        W54604   0.513  16.089  24.165  0.1108  0.0781  0.0506
11693W        W54605   4.772  17.925  26.611 -0.1471 -0.0165 -0.4092
11694W        W54606   1.684  16.046  25.307 -0.0669  0.0429  0.1604
11695W        W54607   3.819  13.188  25.132 -0.0743 -0.2764 -0.0979
11696W        W54608   3.939  15.500  24.337 -0.0797 -0.2905 -0.1523
11697W        W54609   0.845  16.774  25.624 -0.0390  0.0021 -0.0547
11698W        W54610   0.555  17.157  23.536 -0.4089  0.2583  0.0041
11699W        W54611  34.678  19.029  23.724 -0.1489  0.1150 -0.1759
11700W        W54612   0.397  18.034  25.572 -0.1563 -0.0050 -0.1164
11701W        W54613   2.804  12.730  28.689  0.1446  0.2363 -0.1749
11702W        W54614   0.955  15.528  27.974 -0.3210 -0.2307 -0.2771
11703W        W54615   0.818  17.257  25.450 -0.4834  0.1391 -0.1003
11704W        W54616  34.652  15.624  24.115  0.1059 -0.0712  0.3681
11705W        W54617   3.766  18.555  26.219  0.1411  0.0009  0.0614
11706W        W54618   0.784  14.083  25.380  0.1334 -0.1305 -0.0517
11707W        W54619  34.050  14.210  24.111 -0.0839  0.0007  0.0722
11708W        W54620   2.944  16.532  25.346 -0.2023  0.2285 -0.1386
11709W        W54621   2.100  17.046  25.674  0.2336  0.3970  0.0197
11710W        W54622   2.988  14.261  24.149  0.2955  0.0284  0.1969
11711W        W54623   3.759  18.572  27.557  0.0037 -0.1550 -0.0257
11712W        W54624  33.823  17.817  25.114 -0.0752 -0.1966  0.0253
11713W        W54625   2.463  15.755  27.120  0.1718  0.1343  0.0804
11714W        W54626   0.154  15.237  26.899 -0.0232 -0.2772 -0.0641
11715W        W54627   0.293  13.994  23.767 -0.0662  0.1073 -0.0508
11716W        W54628   2.764  15.853  25.875  0.2156  0.1117  0.2747
11717W        W54629   2.714  16.091  26.846  0.0351 -0.3072  0.1104
11718W        W54630   3.317  18.954  23.198 -0.1158 -0.0383 -0.2144
11719W        W54631   1.357  17.362  26.437  0.0346 -0.0908 -0.2218
11720W        W54632   1.979  17.952  26.516 -0.0317  0.0946  0.0169
11721W        W54633  34.064  14.611  25.848 -0.3994  0.0234  0.3605
11722W        W54634   2.945  18.927  26.053 -0.1151 -0.1774  0.2423
11723W        W54635   1.480  18.801  27.564  0.0262 -0.0985  0.0775
11724W        W54636   3.507  18.248  24.339  0.0864  0.1821 -0.0666
11725W        W54637   2.753  14.866  27.614 -0.1585 -0.1438  0.0374
11726W        W54638   3.975  17.450  24.843 -0.2924 -0.3713  0.0556
11727W        W54639  33.643  13.823  25.707  0.0836  0.0436  0.0324
11728W        W54640  34.442  16.745  26.514  0.0401  0.1303  0.1798
11729W        W54641   3.268  18.356  27.045 -0.0616  0.1020  0.1006
11730W        W54642   0.966  15.148  25.883 -0.0467  0.1639  0.1049
11731W        W54643   3.427  16.619  25.332  0.3017 -0.0141  0.0704
11732W        W54644   2.239  17.978  24.456  0.4003 -0.1154  0.2589
11733W        W54645   0.497  17.227  25.026  0.5151 -0.0423  0.1889
11734W        W54646   3.571  16.029  25.514 -0.3235  0.0655 -0.1647
11735W        W54647   0.227  15.581  25.660 -0.0067  0.1037  0.1157
11736W        W54648   1.817  16.864  27.158  0.1776 -0.0804 -0.0124
11737W        W54649   2.695  17.726  26.829  0.1886  0.1614 -0.1514
11738W        W54650   1.730  14.725  23.737 -0.0781  0.0984 -0.0637
11739W        W54651   4.354  17.034  23.113 -0.2086 -0.2964  0.2477
11740W        W54652   2.324  18.931  26.293  0.1542  0.3612 -0.2041
11741W        W54653   3.572  18.142  27.328  0.3961 -0.0583  0.1684
11742W        W54654   1.494  18.272  26.572  0.0549  0.1716  0.1308
11743W        W54655   2.720  16.852  24.799 -0.0268 -0.1690  0.0640
11744W        W54656   0.876  15.553  27.095  0.2138 -0.1039 -0.1248
11745W        W54657   0.971  15.831  24.249  0.1049  0.3408 -0.1557
11746W        W54658   0.990  17.421  24.299  0.1026  0.0563 -0.0600
11747W        W54659   3.497  14.872  26.507  0.0294 -0.2322  0.0616
11748W        W54660   2.185  15.849  25.483  0.0761 -0.1280  0.1106
11749W        W54661   4.054  16.335  25.558  0.0894 -0.1601  0.0311
11750W        W54662   1.625  18.706  26.819  0.0963  0.0222 -0.0918
11751W        W54663   2.245  17.167  26.143  0.2225  0.0349  0.2009
11752W        W54664   1.674  18.079  29.380 -0.1982 -0.1888  0.1079
11753W        W54665   0.641  14.537  30.490 -0.2542  0.1359  0.2088
11754W        W54666   2.258  14.951  27.427 -0.0376 -0.0129 -0.0999
11755W        W54667   2.888  17.821  27.880  0.1857  0.2349 -0.1802
11756W        W54668   0.646  15.538  29.032 -0.1800 -0.3417  0.0391
11757W        W54669   1.400  18.490  28.019  0.0784 -0.3278 -0.1613
11758W        W54670   0.141  13.140  30.903  0.0088 -0.1657  0.0914
11759W        W54671   2.182  18.235  29.115  0.2406  0.0770 -0.0319
11760W        W54672   4.681  17.250  29.491  0.1479 -0.0973 -0.0941
11761W        W54673   1.060  17.073  27.635 -0.0539  0.0077  0.2712
11762W        W54674   3.446  15.588  29.861  0.2492  0.0924  0.1627
11763W        W54675   0.483  17.014  29.463  0.3937 -0.3191  0.0204
11764W        W54676   2.165  14.816  28.454 -0.0421  0.1144  0.1606
11765W        W54677  33.484  14.746  30.690 -0.5691 -0.0888  0.2472
11766W        W54678   3.026  16.655  29.620 -0.1021 -0.3716 -0.0895
11767W        W54679   0.600  15.614  30.073 -0.1692  0.1456  0.0571
11768W        W54680   1.682  14.534  31.269  0.0118  0.1442  0.3072
11769W        W54681   1.442  16.217  27.731 -0.0448 -0.0151  0.1139
11770W        W54682   2.913  18.833  28.596 -0.0964  0.0905  0.1530
11771W        W54683   2.094  15.736  30.615  0.1498 -0.2486 -0.0787
11772W        W54684   2.533  14.542  30.156 -0.0049 -0.1048 -0.0448
11773W        W54685   0.924  16.101  27.852  0.0427  0.2705  0.1100
11774W        W54686  33.094  16.629  27.439 -0.1795  0.0952  0.0179
11775W        W54687   1.011  15.244  29.977  0.0364  0.2125 -0.1476
11776W        W54688   1.461  17.156  29.382  0.0705  0.0172 -0.1886
11777W        W54689   4.101  16.411  30.149 -0.0277 -0.2825 -0.3058
11778W        W54690   3.226  17.480  28.334 -0.1629  0.3323  0.2139
11779W        W54691   1.616  18.206  28.852 -0.2118  0.0513  0.0233
11780W        W54692   1.375  20.011  28.330  0.1300 -0.1137 -0.1952
11781W        W54693   2.801  16.312  30.028 -0.0609  0.1355 -0.0821
11782W        W54694   0.177  16.773  28.007  0.2800  0.1881  0.2563
11783W        W54695   0.691  17.411  27.589  0.0480  0.2553  0.2471
11784W        W54696   2.006  17.545  27.765 -0.0300  0.0502  0.1342
11785W        W54697   3.312  17.090  28.025  0.2010 -0.2708 -0.2948
11786W        W54698   3.425  16.992  29.668  0.1581 -0.0802  0.2807
11787W        W54699   2.316  17.068  30.935  0.0873  0.0781  0.3310
11788W        W54700   1.722  17.489  28.438  0.0354 -0.2549  0.2258
11789W        W54701   1.226  18.057  29.206  0.1982  0.2307  0.1407
11790W        W54702   1.818  17.383  29.648 -0.0685 -0.2624 -0.1810
11791W        W54703   2.232  17.600  29.936 -0.0911  0.0978 -0.1082
11792W        W54704   2.074  16.712  28.232 -0.1471 -0.0587  0.0732
11793W        W54705   1.471  17.442  27.831  0.0794  0.1058  0.0506
11794W        W54706   3.084  17.437  28.814 -0.1566  0.3267 -0.1195
11795W        W54707   1.669  17.723  30.793  0.1043 -0.0242  0.1057
11796W        W54708  34.435  17.670  30.123  0.0738  0.6622  0.1200
11797W        W54709   2.980  14.242  30.020 -0.6436 -0.0797  0.1212
11798W        W54710   0.664  17.220  28.813  0.0479  0.0016  0.1870
11799W        W54711   2.277  16.306  26.557  0.0580 -0.1661 -0.1756
11800W        W54712   0.814  14.670  27.512 -0.1571  0.1157 -0.0965
11801W        W54713   3.043  17.327  27.121 -0.1004 -0.0945  0.0933
11802W        W54714   1.440  15.509  29.904  0.0803  0.3588  0.0108
11803W        W54715   0.389  18.955  28.534  0.4880 -0.0332  0.0662
11804W        W54716   2.081  14.240  30.249  0.2023  0.1380  0.1559
11805W        W54717   3.366  17.573  29.772 -0.0971  0.3269  0.1316
11806W        W54718   1.786  17.137  28.078 -0.0539 -0.1581 -0.2967
11807W        W54719   2.303  17.344  29.506 -0.0635 -0.1667  0.2849
11808W        W54720  34.488  17.289  28.963  0.1494 -0.0589 -0.1396
11809W        W54721   2.157  14.816  30.325  0.1382 -0.1644 -0.0713
11810W        W54722   3.604  19.227  28.037 -0.0163 -0.1121 -0.0139
11811W        W54723   3.209  17.925  28.974 -0.3842 -0.1737 -0.2845
11812W        W54724   3.526  18.257  26.529  0.0124  0.0649  0.0292
11813W        W54725   0.735  16.304  29.205 -0.0417  0.2758 -0.4783
11814W        W54726   0.755  16.306  30.996  0.2202  0.3341 -0.0938
11815W        W54727   0.915  16.937  30.049  0.4364 -0.1152  0.4096
11816W        W54728   0.230  14.970  27.385  0.1603 -0.0500 -0.0327
11817W        W54729   3.565  16.662  31.368 -0.1495  0.0004  0.1293
11818W        W54730  34.343  18.108  29.366  0.3868  0.4019  0.0055
11819W        W54731   3.195  15.738  27.914  0.1852  0.0801  0.3027
11820W        W54732   1.867  17.156  30.797  0.0839  0.2067 -0.2389
11821W        W54733   2.522  18.005  29.551 -0.0643  0.1047 -0.0739
11822W        W54734   2.804  17.496  26.307 -0.0909  0.0597 -0.5035
11823W        W54735   3.075  15.377  29.220  0.0330 -0.0910  0.4276
11824W        W54736   1.995  14.037  31.502  0.0573  0.2504  0.2684
11825W        W54737   1.268  16.731  27.305 -0.3854  0.3551 -0.0574
11826W        W54738   3.286  16.697  30.064 -0.2183  0.1868 -0.0025
11827W        W54739   3.165  16.153  29.761  0.3816  0.4391  0.2700
11828W        W54740   3.191  17.881  26.941  0.2326  0.1990  0.2044
11829W        W54741   0.392  18.147  29.942  0.1406  0.1460 -0.1973
11830W        W54742   3.441  15.684  30.439  0.0413  0.3073  0.2658
11831W        W54743   1.873  17.260  30.133 -0.1985 -0.2172 -0.1115
11832W        W54744  34.690  18.401  28.054 -0.0518  0.0914 -0.1733
11833W        W54745   0.285  17.329  29.096  0.1099 -0.0497  0.1542
11834W        W54746   1.248  17.294  28.523 -0.3618 -0.1549 -0.0365
11835W        W54747  33.546  14.846  29.557  0.0947  0.1718 -0.0991
11836W        W54748   0.615  16.759  29.038  0.0118  0.0949 -0.0619
11837W        W54749   3.165  16.504  28.760 -0.1273  0.0809  0.1030
11838W        W54750  33.336  15.079  29.994 -0.0411  0.0988  0.1403
11839W        W54751   4.406  15.652  30.079  0.0097  0.0715  0.2566
11840W        W54752  34.533  16.991  27.550 -0.1315 -0.1080 -0.0237
11841W        W54753   3.808  18.116  28.749 -0.0512  0.0251 -0.1163
11842W        W54754   2.306  16.607  27.041 -0.2225 -0.0141  0.0257
11843W        W54755   1.867  16.571  27.556 -0.0383 -0.3269 -0.1049
11844W        W54756   1.256  16.605  31.313  0.0115  0.1704 -0.0459
11845W        W54757   0.852  14.097  29.891 -0.0294  0.1305  0.0082
11846W        W54758  33.885  16.797  29.441  0.2356  0.0195  0.2351
11847W        W54759  34.300  14.668  29.996  0.1129  0.0174 -0.0760
11848W        W54760   3.629  16.613  30.422  0.0986 -0.1237 -0.0896
11849W        W54761   0.257  14.729  29.466 -0.3095 -0.0259  0.0940
11850W        W54762   3.536  15.760  28.277  0.2320  0.0126 -0.2357
11851W        W54763   1.800  16.153  28.032 -0.0709  0.0970  0.1442
11852W        W54764   0.231  16.571  27.535 -0.1453  0.0238 -0.3890
11853W        W54765   4.175  15.301  30.332 -0.2017 -0.0915 -0.0177
11854W        W54766   0.934  19.228  28.324 -0.0531 -0.2784 -0.1668
11855W        W54767   3.756  17.656  30.194 -0.2026  0.4442  0.1891
11856W        W54768   1.333  17.334  29.836 -0.3501  0.0138  0.2284
11857W        W54769   0.827  15.537  31.052  0.0364 -0.1243 -0.1051
11858W        W54770   1.482  15.520  28.525  0.3349  0.1031 -0.3222
11859W        W54771   0.649  19.442  28.667  0.0297 -0.0793 -0.1017
11860W        W54772   0.822  17.713  28.773 -0.2467  0.2678 -0.0545
11861W        W54773   1.966  15.975  28.770 -0.2720  0.0875 -0.0184
11862W        W54774   3.137  19.273  27.878  0.0364  0.0687  0.0302
11863W        W54775   2.596  17.863  29.076 -0.0467  0.6538 -0.0663
11864W        W54776   0.873  17.413  30.878 -0.1921  0.0562 -0.3282
11865W        W54777   2.600  15.573  30.647  0.1795 -0.0342  0.0275
11866W        W54778   3.964  15.345  29.910 -0.1207 -0.0209 -0.0491
11867W        W54779   2.770  16.552  28.225 -0.1377  0.0044 -0.4171
11868W        W54780   0.349  14.793  28.245  0.2738 -0.0755 -0.3589
11869W        W54781   4.255  18.262  28.027  0.2405 -0.3329 -0.0723
11870W        W54782   0.630  20.467  28.624 -0.0199  0.2048  0.3442
11871W        W54783   0.583  16.403  28.058  0.1960  0.3180 -0.0959
11872W        W54784   2.223  17.318  28.136  0.0643  0.2533 -0.0590
11873W        W54785   3.193  16.206  28.283  0.0001 -0.3949 -0.3583
11874W        W54786  34.463  15.068  31.898  0.1311  0.1719 -0.4249
11875W        W54787   3.020  15.817  30.164 -0.2938  0.2888  0.0839
11876W        W54788   0.241  15.544  27.790 -0.1413 -0.1620 -0.2155
11877W        W54789   1.665  18.781  30.335 -0.1783  0.1027  0.1709
11878W        W54790   2.080  15.542  29.169  0.0918 -0.1144  0.0642
11879W        W54791   2.707  15.798  27.673 -0.0636 -0.1258  0.0429
11880W        W54792   1.489  16.041  29.906  0.1407  0.1369 -0.0783
11881W        W54793   3.601  17.797  26.697 -0.0176 -0.0874 -0.1337
11882W        W54794   2.016  15.818  26.661 -0.2580  0.0640  0.1198
11883W        W54795   3.357  16.973  27.255 -0.1901  0.2043  0.0338
11884W        W54796   0.972  16.463  30.481  0.0138  0.0710 -0.0813
11885W        W54797   2.041  17.828  28.198  0.1751  0.1525  0.0043
11886W        W54798   1.131  17.360  29.003 -0.0598  0.0325  0.3130
11887W        W54799   0.706  16.335  27.488  0.2854 -0.3123  0.1006
11888W        W54800   5.140  16.213  27.191  0.2412 -0.2079  0.1804
11889W        W54801   0.103  16.837  29.029  0.0324 -0.2986 -0.3122
11890W        W54802   2.860  17.813   0.211  0.0503 -0.0396  0.0097
11891W        W54803   0.474  17.752  27.868 -0.0186  0.0101 -0.0414
11892W        W54804   2.239  16.238  29.743  0.2691  0.1115  0.0423
11893W        W54805   0.777  15.051  26.788  0.0849 -0.0238  0.2365
11894W        W54806   1.506  14.868  30.881 -0.2606 -0.1655 -0.0273
11895W        W54807   1.432  19.348  27.622 -0.0481 -0.1032  0.2850
11896W        W54808   2.381  15.712  29.593 -0.0516  0.0753 -0.1824
11897W        W54809   2.641  14.727  28.681  0.1455  0.2050  0.0917
11898W        W54810   1.689  15.770  30.333 -0.1180  0.0163  0.0951
11899W        W54811   2.999  16.143   0.209  0.1617 -0.2841  0.0248
11900W        W54812   2.814  17.837  28.654 -0.0105 -0.0262  0.0773
11901W        W54813   1.970  17.082  29.261 -0.2512  0.0175  0.1707
11902W        W54814   0.012  15.918  26.933 -0.1430  0.0499  0.0658
11903W        W54815   2.285  15.610   0.870 -0.2316 -0.2043  0.0663
11904W        W54816   1.742  16.154  30.687  0.1389 -0.0932  0.2480
11905W        W54817   0.445  18.941  30.964  0.0616  0.2089  0.1608
11906W        W54818   3.993  17.181  30.360 -0.1552 -0.4223  0.0140
11907W        W54819   2.726  16.972  27.153  0.1918  0.0278  0.0087
11908W        W54820   0.449  16.350  30.555  0.0841  0.1107 -0.3000
11909W        W54821   2.654  16.450  29.140 -0.1758  0.1546 -0.2540
11910W        W54822   1.413  19.076  28.216  0.2762  0.0374 -0.1777
11911W        W54823   0.747  16.891  27.962  0.0888 -0.1207 -0.0226
11912W        W54824   1.897  14.325  30.697  0.1699  0.0254  0.0423
11913W        W54825   1.718  19.692  28.623 -0.0255 -0.0991  0.0907
11914W        W54826   2.485  18.150  27.089  0.0145  0.2401 -0.0095
11915W        W54827   2.957  17.132  29.427  0.0147  0.1516  0.0017
11916W        W54828   1.954  18.311  28.436  0.1727 -0.0520 -0.2520
11917W        W54829   4.834  15.602  30.335  0.1713  0.4061  0.1466
11918W        W54830   0.166  17.398  29.569 -0.2337  0.1074 -0.1257
11919W        W54831   1.484  15.381  27.956  0.1190 -0.0072  0.2607
11920W        W54832   0.715  15.892  31.375  0.2735  0.1755 -0.0316
11921W        W54833   3.654  16.032  29.712 -0.1322 -0.0191  0.1973
11922W        W54834   1.592  17.941  27.718 -0.0289 -0.1524 -0.1087
11923W        W54835  34.518  13.356  30.534 -0.0964  0.1082  0.1170
11924W        W54836   2.501  14.016  30.072  0.0109  0.2641 -0.1150
11925W        W54837  33.844  18.915  29.010  0.3565 -0.0275  0.1298
11926W        W54838   2.422  17.145  29.962  0.2430  0.4393  0.1587
11927W        W54839   2.852  14.320  27.654 -0.1592  0.0710  0.0141
11928W        W54840   2.916  18.350  28.722  0.0722 -0.0295  0.0870
11929W        W54841   0.284  15.746   0.140  0.0881  0.0018 -0.2219
11930W        W54842   1.953  15.227  28.231  0.2708 -0.0456 -0.0244
11931W        W54843   3.958  15.092  29.322  0.0442 -0.0032  0.1373
11932W        W54844   1.077  15.361  29.459  0.1835  0.0681 -0.2752
11933W        W54845   0.615  18.094  28.450 -0.2082 -0.3093 -0.2500
11934W        W54846   0.078  18.838  28.930  0.0145 -0.1112  0.3856
11935W        W54847  34.224  15.528  26.220  0.0274 -0.1566 -0.1121
11936W        W54848   0.330  17.216  28.158 -0.1000 -0.0473 -0.2230
11937W        W54849   1.794  15.246  30.707  0.1573 -0.0250  0.2568
11938W        W54850   3.706  16.399  29.180 -0.0497 -0.0694  0.2387
11939W        W54851   2.227  14.615  29.734 -0.4644  0.0052 -0.1648
11940W        W54852   1.977  16.171  30.218  0.1250  0.2436 -0.0600
11941W        W54853   1.841  16.462  28.588 -0.0218  0.0029  0.0635
11942W        W54854   1.910  17.813  28.776  0.0391  0.0531  0.0251
11943W        W54855   1.851  15.713  28.311  0.2394  0.1816 -0.0025
11944W        W54856   0.076  17.701  30.566  0.1469 -0.1096 -0.1750
11945W        W54857   1.026  13.157  29.561 -0.0872 -0.1823  0.1632
11946W        W54858   4.723  19.184  27.241 -0.1504 -0.0876 -0.1013
11947W        W54859   2.007  16.544  29.290  0.1287  0.2150 -0.0173
11948W        W54860   1.324  17.772  28.778  0.0556  0.0907  0.0233
11949W        W54861   1.132  16.463  30.003 -0.1247  0.0682  0.1990
11950W        W54862   0.709  18.593  28.796 -0.1406  0.0923 -0.1094
11951W        W54863   2.275  16.004  29.222 -0.0634  0.0043 -0.1203
11952W        W54864  34.521  15.506  29.545 -0.1199 -0.1197  0.0932
11953W        W54865   0.905  18.357  27.033 -0.1029  0.0448  0.1593
11954W        W54866   0.112  16.353  29.019 -0.2764 -0.1032  0.1698
11955W        W54867   4.541  14.852  28.546  0.2078 -0.0083  0.0216
11956W        W54868   1.043  17.845  27.857  0.1615  0.1410 -0.0180
11957W        W54869   1.798  15.367  29.610  0.1410  0.0077  0.0069
11958W        W54870   4.090  13.370  31.756 -0.2975  0.1402  0.2172
11959W        W54871   3.559  16.866  28.399  0.0381  0.1262  0.1181
11960W        W54872   2.631  14.404  29.725 -0.2729 -0.2327 -0.3235
11961W        W54873   1.117  14.860  30.497  0.0635  0.0274  0.1650
11962W        W54874   3.419  18.418  28.787  0.1381 -0.3817  0.0113
11963W        W54875   0.754  15.479  30.503  0.2468  0.0413 -0.0906
11964W        W54876   1.721  16.901  31.257  0.0934  0.0751  0.2733
11965W        W54877   0.780  16.770  31.441 -0.3874 -0.1633 -0.0969
11966W        W54878   1.957  16.088  27.539  0.3437  0.1946 -0.0480
11967W        W54879   0.858  14.517  26.611 -0.1190 -0.2790 -0.4139
11968W        W54880   2.765  17.616  29.802 -0.0232 -0.2282  0.1021
11969W        W54881   2.389  18.138  28.687 -0.1451  0.1522 -0.0283
11970W        W54882   1.273  17.048  28.087 -0.3127 -0.1567 -0.1549
11971W        W54883   3.093  16.948  28.429  0.1635 -0.0063  0.0829
11972W        W54884   2.780  16.002  28.121 -0.2457  0.2484  0.2781
11973W        W54885   4.235  16.852  27.612  0.0388 -0.0104  0.1964
11974W        W54886   2.799  18.367  29.226  0.0393  0.1856  0.0073
11975W        W54887   0.735  16.344  28.602 -0.1219 -0.0502  0.0967
11976W        W54888   2.013  15.372  30.282 -0.2541  0.1945  0.1921
11977W        W54889   1.729  18.317  27.429  0.0364  0.1320 -0.3707
11978W        W54890   3.806  14.066  28.583  0.0167  0.0071 -0.0670
11979W        W54891   2.969  15.265  29.838 -0.0715  0.3134 -0.0880
11980W        W54892   2.540  16.832  31.448 -0.0287 -0.1124 -0.0368
11981W        W54893   3.145  16.219  29.257 -0.1070  0.0171  0.0288
11982W        W54894   0.049  15.051  30.690  0.1965  0.2807 -0.1919
11983W        W54895   3.003  18.010  30.018  0.0401 -0.1711  0.0317
11984W        W54896   2.523  17.189  27.536  0.0118 -0.0907 -0.0115
11985W        W54897   3.524  15.267  28.537 -0.1929  0.1139 -0.2722
11986W        W54898   3.475  17.739  28.012 -0.0221 -0.1088 -0.1475
11987W        W54899   1.424  16.044  28.602 -0.0415 -0.0171  0.3525
11988W        W54900   1.315  16.124  30.384 -0.2284  0.0067  0.0953
11989W        W54901   3.468  15.905  30.950 -0.0369 -0.2107 -0.3416
11990W        W54902   0.490  14.573  27.153  0.3457  0.2812 -0.1492
11991W        W54903   2.290  15.179  30.785 -0.1126 -0.2533 -0.1498
11992W        W54904   1.938  18.531  26.482  0.0797  0.4650  0.3091
11993W        W54905   2.905  18.410  28.160 -0.2328 -0.1277 -0.0729
11994W        W54906   2.100  16.984  27.693 -0.0060  0.0687 -0.3076
11995W        W54907   1.587  14.639  30.385  0.1554  0.1420  0.2990
11996W        W54908   1.389  18.751  31.327 -0.2433 -0.1663 -0.2913
11997W        W54909   0.595  15.033  27.795  0.1378  0.0931  0.0844
11998W        W54910   0.496  16.011  28.880  0.2558 -0.1063 -0.0542
11999W        W54911   2.995  18.711  29.587 -0.2099  0.1583  0.0937
12000W        W54912   2.607  16.476   0.360  0.2046 -0.2611  0.1351
12001W        W54913   1.852  15.642  27.689  0.1545 -0.1959 -0.3610
12002W        W54914   2.976  15.704  29.591 -0.0471 -0.4946 -0.0116
12003W        W54915   1.121  18.409  27.535 -0.0555 -0.2698 -0.3364
12004W        W54916   1.178  15.187  28.373  0.0112  0.1333 -0.1163
12005W        W54917   0.771  18.919  29.229  0.2770 -0.2164  0.2854
12006W        W54918   0.416  17.028  29.928 -0.3236  0.0900 -0.2435
12007W        W54919   0.935  16.855  28.616  0.0121 -0.0355  0.2259
12008W        W54920   2.622  15.310  29.329 -0.0226 -0.3235 -0.0955
12009W        W54921   3.313  16.730  29.211  0.0836 -0.1251  0.0452
12010W        W54922   1.203  16.396  28.287  0.2452 -0.1125 -0.2734
12011W        W54923   3.994  16.351  31.526 -0.5661 -0.0525  0.0961
12012W        W54924   2.112  17.100  31.552 -0.2539  0.0129  0.4872
12013W        W54925   1.441  15.805  29.421  0.0336  0.1502 -0.0808
12014W        W54926   1.604  16.787  29.122 -0.1423  0.2568  0.3781
12015W        W54927   3.697  17.433  29.313 -0.1026 -0.0521  0.0796
12016W        W54928  34.009  16.765  27.563  0.2422  0.0955  0.1991
12017W        W54929  34.621  16.440  30.643  0.2368  0.0258 -0.0709
12018W        W54930   3.330  16.481  30.870 -0.0473 -0.1430 -0.1388
12019W        W54931   3.562  16.515  29.623  0.0066  0.2127 -0.0357
12020W        W54932   1.620  15.674  28.987  0.1600 -0.0096 -0.2953
12021W        W54933   2.426  18.529  28.424  0.0458  0.1522 -0.0196
12022W        W54934   2.185  19.752  31.638 -0.0930  0.1275 -0.0670
12023W        W54935   0.576  17.672  29.726 -0.1065 -0.2946 -0.1620
12024W        W54936  34.293  20.255  28.606  0.0769 -0.3078 -0.1821
12025W        W54937   2.960  16.997  27.606 -0.0452 -0.1044  0.1876
12026W        W54938   1.560  16.983  27.638 -0.1259 -0.0183 -0.1342
12027W        W54939   3.104  18.448  27.517  0.0576  0.0943 -0.1813
12028W        W54940   1.287  14.478  27.571 -0.0757 -0.0559 -0.4450
12029W        W54941   1.125  17.707  29.552  0.0002 -0.0966  0.2237
12030W        W54942   0.740  17.608  27.103  0.2928  0.1418  0.0376
12031W        W54943   2.241  18.339  28.001 -0.1576 -0.0353  0.0370
12032W        W54944   1.620  18.451  29.707  0.1760 -0.0528 -0.0240
12033W        W54945   2.060  18.431  30.478  0.3140 -0.2209 -0.0366
12034W        W54946   3.656  16.581  27.130 -0.1023  0.1471  0.4199
12035W        W54947   4.376  17.207  29.955  0.0042 -0.1258  0.1689
12036W        W54948   3.201  16.630  28.018  0.0597  0.1833  0.1101
12037W        W54949   2.422  18.035  30.721 -0.0015  0.2201 -0.2259
12038W        W54950   1.224  16.227  29.548 -0.0704  0.1857  0.1403
12039W        W54951   0.701  15.033  26.308 -0.3916  0.0055 -0.0138
12040W        W54952   1.207  15.669  30.336  0.2756 -0.0414  0.2089
12041W        W54953   3.588  14.353  29.904  0.2875  0.0125  0.3551
12042W        W54954  34.421  17.344  30.480  0.2290  0.3175 -0.0238
12043W        W54955   3.386  18.213  27.903 -0.0407  0.4858  0.3329
12044W        W54956  33.085  15.935  29.847  0.3263  0.1519  0.2408
12045W        W54957   2.728  15.795  29.149 -0.0594 -0.4693 -0.3140
12046W        W54958   3.782  14.823  30.054 -0.0015  0.2958  0.0335
12047W        W54959   1.640  16.618  28.019  0.3342  0.0847  0.1785
12048W        W54960   3.711  15.928  28.931 -0.1678 -0.0370 -0.0411
12049W        W54961   2.069  18.043  29.716  0.0577  0.1768  0.0075
12050W        W54962   1.030  17.891  30.002 -0.1172  0.1687  0.0987
12051W        W54963   1.661  17.246  28.888 -0.0903 -0.0106  0.2101
12052W        W54964  34.691  14.687  29.072  0.0076  0.0808  0.2143
12053W        W54965   4.255  15.751  27.969 -0.1833  0.0784 -0.2278
12054W        W54966   2.614  16.082  30.758  0.0600  0.3339  0.0152
12055W        W54967   2.598  15.558  30.000  0.1342  0.1539  0.0872
12056W        W54968   0.431  15.526  28.618 -0.0022 -0.2576 -0.0502
12057W        W54969   2.042  16.994  28.686 -0.4612  0.0854  0.3495
12058W        W54970   3.123  18.415  30.233  0.0741 -0.1997  0.0632
12059W        W54971   0.958  17.067  29.612  0.0537  0.2857  0.2429
12060W        W54972   0.211  15.909  29.250 -0.0923 -0.1911 -0.0652
12061W        W54973   3.753  16.831  31.955 -0.0366  0.0040 -0.1107
12062W        W54974   2.462  17.027  28.523 -0.0638 -0.3751 -0.1475
12063W        W54975   3.672  16.872  30.859  0.1702  0.1062  0.0556
12064W        W54976   0.747  14.688  30.063 -0.0076 -0.0139 -0.0593
12065W        W54977   2.280  15.371  27.876 -0.0040  0.1541 -0.0542
12066W        W54978  34.275  16.252  31.003 -0.0069 -0.1541  0.0571
12067W        W54979   1.594  16.216  29.101  0.3486  0.5008  0.1183
12068W        W54980   3.029  17.992  29.522 -0.0533 -0.1592  0.1808
12069W        W54981  34.406  15.448  28.597 -0.3043 -0.0772 -0.1449
12070W        W54982   2.194  17.788  26.974 -0.3053  0.0527  0.1505
12071W        W54983   3.252  15.819  28.892  0.2516 -0.0174 -0.1752
12072W        W54984   1.375  18.255  27.054 -0.2287  0.0635  0.1036
12073W        W54985   3.614  17.099  27.658 -0.0012 -0.1800  0.2223
12074W        W54986   4.127  19.159  27.936  0.2660 -0.2269 -0.2391
12075W        W54987   1.731  13.404  30.955 -0.1960  0.3328 -0.1240
12076W        W54988   3.424  18.619  29.856 -0.1384  0.2899  0.0547
12077W        W54989   4.173  17.329  29.360  0.3109 -0.0132 -0.1653
12078W        W54990   1.118  15.062  27.373 -0.0893 -0.3034 -0.0393
12079W        W54991   2.227  16.148  28.347 -0.1415 -0.1188  0.1288
12080W        W54992   1.028  17.794  28.339  0.1346  0.0131  0.4084
12081W        W54993   2.800  16.130  28.778  0.1976 -0.0094  0.0565
12082W        W54994   3.283  15.002  30.581  0.1702 -0.1820 -0.0082
12083W        W54995   1.524  18.123  28.330  0.1918  0.1784  0.1509
12084W        W54996   3.059  13.860  31.162  0.2124 -0.1875 -0.0171
12085W        W54997   2.662  19.511  29.130  0.0336 -0.0732  0.0468
12086W        W54998   2.338  16.726  31.947 -0.2159  0.0152 -0.0307
12087W        W54999   0.061  16.742  27.126 -0.1698 -0.2832  0.1469
12088W        W55000   2.423  16.521  28.650  0.0237 -0.2073 -0.1741
12089W        W55001   2.424  17.563  28.497  0.0101  0.3588 -0.0405
12090W        W55002   0.447  20.333  29.048 -0.1913 -0.0455 -0.3923
12091W        W55003   3.768  18.208  28.226 -0.1726 -0.1104 -0.0366
12092W        W55004   1.047  16.881  29.174  0.0594  0.1836 -0.4450
12093W        W55005   3.470  17.096  28.911 -0.2115  0.1142  0.1778
12094W        W55006   2.511  16.975  29.230 -0.2278  0.0449 -0.1981
12095W        W55007   3.601  16.608  27.620  0.1903 -0.2544  0.0286
12096W        W55008   2.387  15.577  28.306 -0.0166  0.1306  0.2280
12097W        W55009   0.725  17.604  29.283  0.0764 -0.0058 -0.2312
12098W        W55010   1.281  16.705  29.568  0.1221  0.2803 -0.0849
12099W        W55011   1.066  17.756  26.144 -0.0788 -0.1559  0.0914
12100W        W55012   1.009  15.838  29.866  0.3156  0.2454 -0.1403
12101W        W55013   3.058  13.543  29.617 -0.1800 -0.0939 -0.1810
12102W        W55014   0.756  16.075  30.248 -0.3948  0.1763 -0.0374
12103W        W55015   1.893  15.910  29.449  0.1636  0.0407 -0.0700
12104W        W55016   0.053  15.255  28.222  0.1306  0.0615 -0.1198
12105W        W55017   2.442  17.719  27.820  0.1072 -0.0532  0.2530
12106W        W55018   1.296  16.302  30.861  0.1667  0.1563  0.1584
12107W        W55019   0.041  13.849  30.273  0.1357 -0.1188 -0.2933
12108W        W55020   1.530  17.032  26.797 -0.1419  0.0540 -0.2133
12109W        W55021   3.832  17.548  27.703 -0.1650  0.2033  0.1041
12110W        W55022   0.624  15.201  28.296 -0.1396 -0.0613 -0.3185
12111W        W55023   3.586  17.346  30.643  0.0843 -0.4760 -0.1082
12112W        W55024   0.317  16.033  27.416 -0.0804  0.2578 -0.0781
12113W        W55025   3.247  16.931  30.580 -0.1608  0.2938  0.1480
12114W        W55026   2.018  16.648  30.931 -0.2495 -0.0430 -0.2290
12115W        W55027   0.068  14.493  28.463 -0.1608  0.2602  0.2673
12116W        W55028   2.937  16.969  28.958 -0.1268  0.1900  0.0159
12117W        W55029   2.621  18.573  27.842  0.0565  0.2588  0.0868
12118W        W55030   1.134  17.892  27.253  0.0032 -0.1036 -0.0216
12119W        W55031   1.602  16.929  28.498 -0.2565  0.1773  0.0026
12120W        W55032   0.440  16.827  28.524  0.1921 -0.2222  0.1832
12121W        W55033   0.371  14.309  31.661  0.1276  0.1266 -0.3009
12122W        W55034   2.810  17.322  28.189 -0.1659  0.0197 -0.0974
12123W        W55035   2.696  17.587  30.891  0.1138  0.1701  0.1298
12124W        W55036   2.553  17.990  28.250 -0.4467  0.2838  0.2757
12125W        W55037   4.069  15.056  28.479 -0.2632  0.1215 -0.4750
12126W        W55038   2.546  16.935  27.954  0.1037 -0.0634 -0.0357
12127W        W55039  34.337  14.804  30.538 -0.0615  0.1796  0.0678
12128W        W55040   0.126  16.076  30.261 -0.1928 -0.0614  0.3057
12129W        W55041   2.931  16.439  30.513 -0.0253  0.0480 -0.1174
12130W        W55042   1.132  15.478  28.906 -0.0070 -0.1566  0.1200
12131W        W55043   2.645  16.633  27.451 -0.7020 -0.1302 -0.1474
12132W        W55044   2.305  17.442  28.918 -0.2516 -0.1435  0.0283
12133W        W55045   1.788  16.373  29.669 -0.1789 -0.1536  0.0570
12134W        W55046   2.081  17.790  29.248  0.1322 -0.0543  0.0301
12135W        W55047   1.417  16.859  30.115 -0.0365  0.1575  0.0830
12136W        W55048   3.225  17.537  29.279  0.0763 -0.1327 -0.0000
12137W        W55049   3.404  15.769  29.347 -0.1078 -0.2964 -0.3015
12138W        W55050   0.617  16.142  29.774 -0.0395 -0.0870  0.0997
12139W        W55051   3.043  15.278  27.669  0.0266  0.2458  0.0620
12140W        W55052   3.148  17.174  31.020  0.0403 -0.1422  0.2669
12141W        W55053   4.256  17.668  30.193  0.1851 -0.2950 -0.2658
12142W        W55054   0.349  17.962  29.377  0.1201 -0.1980 -0.0456
12143W        W55055   4.375  15.724  30.628 -0.2263  0.1388 -0.1385
12144W        W55056  34.666  14.244  29.973  0.0760 -0.0900  0.1536
12145W        W55057   0.615  15.936  28.263 -0.0329  0.3121  0.4252
12146W        W55058   1.236  16.539  28.830  0.0318  0.2083 -0.3760
12147W        W55059   2.494  14.687  30.711 -0.2607 -0.1144  0.0067
12148W        W55060   1.581  15.196  29.140 -0.1032 -0.0220  0.0886
12149W        W55061   1.836  15.080  27.734 -0.1404  0.1040 -0.0081
12150W        W55062   2.504  17.586  30.375  0.1729 -0.0614  0.1376
12151W        W55063   2.561  16.656  29.688  0.0342  0.2365 -0.0447
12152W        W55064   2.578  16.331  31.489 -0.2438 -0.0764  0.1186
12153W        W55065   3.503  16.107  30.214  0.0610  0.3048 -0.0505
12154W        W55066   0.740  14.981  30.998 -0.1124  0.0016 -0.0350
12155W        W55067   2.205  17.840  31.640  0.1737  0.1068  0.0136
12156W        W55068   1.177  17.740  30.736  0.0680 -0.0413  0.0500
12157W        W55069   1.754  17.294   0.681  0.1999 -0.2247  0.1057
12158W        W55070   2.924  16.011  31.104 -0.1105 -0.0392  0.4445
12159W        W55071   2.231  15.252  29.836  0.2269  0.0819  0.1062
12160W        W55072   3.363  14.423  31.430  0.1185  0.1543 -0.0003
12161W        W55073   2.664  17.132   0.047  0.1020  0.0722  0.0486
12162W        W55074   2.892  19.174  29.635  0.2900 -0.0224  0.0230
12163W        W55075   2.594  15.690  31.122  0.1923 -0.1247 -0.1611
12164W        W55076   2.964  17.194  29.941  0.0780 -0.0574 -0.0203
12165W        W55077   0.347  17.059  31.236 -0.2286 -0.0300  0.0583
12166W        W55078   3.370  14.832   0.919 -0.0874  0.3670  0.1103
12167W        W55079   0.873  17.425  30.101 -0.0830 -0.0529  0.1087
12168W        W55080   0.010  16.912  30.848 -0.2178 -0.0647 -0.1976
12169W        W55081   4.629  17.858  30.748 -0.0261 -0.0132  0.2501
12170W        W55082   0.370  15.237  31.311 -0.1056 -0.2143 -0.0543
12171W        W55083  34.635  14.386  31.825  0.1290 -0.2859 -0.1488
12172W        W55084  34.412  14.638  31.014 -0.1605  0.2097 -0.2919
12173W        W55085   0.286  18.475  31.792 -0.0486 -0.1950  0.1512
12174W        W55086   2.276  15.728  31.673 -0.0861  0.0937 -0.1697
12175W        W55087   2.784  15.167  31.220  0.1624  0.2581  0.1042
12176W        W55088   2.381  14.736  31.255  0.0509  0.2858 -0.0804
12177W        W55089   1.735  15.509  31.625  0.1602  0.2083 -0.2715
12178W        W55090   2.221  16.605  30.053  0.4088  0.1491 -0.0822
12179W        W55091   0.175  18.352  30.830  0.2382 -0.0957 -0.1090
12180W        W55092   1.968  15.628  31.095 -0.1501  0.1274 -0.2261
12181W        W55093   2.486  17.404  31.418  0.2005  0.1712 -0.1534
12182W        W55094   1.421  17.298  31.036  0.1995 -0.3265 -0.2025
12183W        W55095   0.988  17.987  31.704  0.2170  0.0066 -0.1055
12184W        W55096   3.337  16.926   2.507  0.2938  0.0553 -0.0167
12185W        W55097   2.636  14.270  31.054 -0.0594 -0.3805  0.0304
12186W        W55098  33.828  16.219  31.343 -0.3541 -0.0955  0.0975
12187W        W55099   1.654  17.942  31.845 -0.2821 -0.2135  0.0667
12188W        W55100   0.753  18.587   0.823 -0.0467 -0.1259 -0.0256
12189W        W55101   0.998  16.968  30.998  0.2108 -0.0190  0.0900
12190W        W55102   3.075  16.966  31.494  0.1751  0.0712 -0.0710
12191W        W55103   2.653  16.708   0.856 -0.0556 -0.1096 -0.1000
12192W        W55104   5.523  16.209  30.430  0.1883  0.3203  0.2515
12193W        W55105   2.846  17.276  30.539  0.0599 -0.1764 -0.3023
12194W        W55106   1.789  16.865  29.716 -0.0361 -0.0761  0.0153
12195W        W55107   0.673  17.699  30.484  0.0500 -0.0878  0.0750
12196W        W55108   2.490  15.962  30.242  0.2755  0.3499  0.0593
12197W        W55109   1.943  15.976   0.860  0.3450 -0.0998 -0.0586
12198W        W55110   2.180  16.104  30.993  0.1672  0.0434  0.1663
12199W        W55111   2.183  16.973  30.443  0.0965  0.0003  0.0386
12200W        W55112   3.099  16.472  31.326  0.2230  0.2827 -0.3648
12201W        W55113   0.452  17.657  31.041 -0.1143  0.3206  0.0016
12202W        W55114   3.219  17.676  30.798  0.0473 -0.0881  0.0309
12203W        W55115   3.787  14.696  30.642  0.0461  0.0426  0.3410
12204W        W55116   1.710  16.354  31.209  0.2232 -0.2100  0.1041
12205W        W55117   1.476  17.073  31.974  0.0760  0.0627  0.0091
12206W        W55118   0.394  16.501  31.369  0.0113  0.1708  0.1030
12207W        W55119   2.723  16.832  30.260 -0.0255 -0.0645 -0.1689
12208W        W55120   2.841  16.836  30.826 -0.1345  0.0333  0.1062
12209W        W55121   1.926  18.509  31.418 -0.1394 -0.1556 -0.0860
12210W        W55122   1.553  17.574   0.114 -0.1562  0.1156 -0.0987
12211W        W55123  33.633  15.370   0.349 -0.0775  0.0843 -0.4333
12212W        W55124   0.306  14.607   1.016  0.0497  0.0970  0.1361
12213W        W55125   1.506  17.632  29.256  0.1761 -0.2062 -0.0220
12214W        W55126   0.126  16.582  30.177 -0.0591  0.1601 -0.0078
12215W        W55127   0.994  14.638  31.860  0.0155 -0.0717 -0.1373
12216W        W55128   2.294  18.534  30.909 -0.1498  0.1672 -0.0958
12217W        W55129   4.471  18.454  31.979  0.0627 -0.0854 -0.1020
12218W        W55130   3.860  17.623  31.879 -0.2261  0.1437  0.0801
12219W        W55131   0.948  21.227  18.869 -0.1142  0.4530  0.1461
12220W        W55132   1.037  19.271  17.324  0.0744 -0.0663  0.2384
12221W        W55133   2.874  19.410  16.294  0.0044  0.2196 -0.0243
12222W        W55134   3.181  19.755  17.333 -0.0360  0.0546 -0.1032
12223W        W55135   0.204  18.149  16.646 -0.2848 -0.0291  0.4159
12224W        W55136   3.363  21.885  16.054  0.3561  0.0610  0.1704
12225W        W55137   0.564  18.056  18.830 -0.2524  0.1631 -0.0387
12226W        W55138   3.278  21.557  17.509 -0.0467 -0.1381  0.0957
12227W        W55139   4.510  20.316  19.155 -0.0690  0.0779  0.0665
12228W        W55140   2.329  20.212  16.566  0.0595 -0.1557 -0.1712
12229W        W55141   0.236  19.450  19.452  0.2067 -0.2487 -0.1179
12230W        W55142   1.851  22.294  18.573  0.1031 -0.0833  0.2214
12231W        W55143   2.040  17.574  16.886  0.1370 -0.1528  0.1845
12232W        W55144  33.948  18.661  18.436 -0.2209  0.1595  0.0203
12233W        W55145   3.529  19.682  20.072  0.1244  0.2198 -0.1569
12234W        W55146  33.655  18.966  16.619 -0.1011 -0.0678 -0.2721
12235W        W55147  33.440  19.189  19.893  0.1269  0.2355 -0.0559
12236W        W55148   1.353  19.244  16.902 -0.2022  0.0122 -0.1045
12237W        W55149   0.207  21.849  17.487 -0.0474 -0.0635  0.1252
12238W        W55150   0.128  19.105  17.565 -0.2499  0.0140 -0.0935
12239W        W55151   2.377  17.583  18.787  0.2917  0.1741  0.0769
12240W        W55152   1.782  20.163  16.673  0.0830  0.1379  0.2196
12241W        W55153  33.518  19.926  16.546  0.1116  0.1443 -0.0873
12242W        W55154  34.159  19.103  18.088  0.1221  0.0225  0.2964
12243W        W55155   0.978  20.764  18.664  0.2874 -0.1366  0.3235
12244W        W55156   2.287  19.094  17.833  0.1075  0.0986 -0.0968
12245W        W55157   3.188  20.782  17.005 -0.0371 -0.1780 -0.2851
12246W        W55158   2.750  21.629  17.462 -0.0469  0.1292 -0.1714
12247W        W55159   3.117  21.640  18.805 -0.0778  0.2703  0.0550
12248W        W55160   1.948  19.247  19.818  0.2501  0.0031  0.0523
12249W        W55161   0.561  19.210  18.432  0.0042  0.1250  0.5218
12250W        W55162  34.125  20.542  18.734 -0.0840 -0.1911  0.1647
12251W        W55163   1.031  21.711  17.074 -0.1804 -0.1099 -0.2719
12252W        W55164   2.832  21.427  18.445 -0.3042 -0.2180  0.2122
12253W        W55165   2.433  21.386  17.816 -0.1754 -0.1375  0.1151
12254W        W55166   0.995  22.819  19.661  0.1855 -0.3911  0.1263
12255W        W55167  34.226  21.187  17.114  0.3930 -0.1618 -0.0923
12256W        W55168   1.171  21.513  18.427  0.0854  0.1556  0.1817
12257W        W55169   2.500  21.749  18.953  0.2061 -0.0140 -0.0155
12258W        W55170   1.876  20.453  18.143 -0.0997 -0.0939  0.1059
12259W        W55171   2.548  21.045  18.310  0.2695 -0.2126 -0.1511
12260W        W55172   0.679  21.787  16.753  0.3328  0.1039  0.0905
12261W        W55173   2.246  20.777  17.971  0.1719 -0.2544 -0.0565
12262W        W55174   1.033  20.278  20.193  0.2798 -0.3350 -0.1887
12263W        W55175  34.588  20.329  17.743 -0.0811  0.0541  0.0183
12264W        W55176   2.777  20.131  19.425  0.1440 -0.0141  0.1021
12265W        W55177  34.674  19.483  18.007  0.3163  0.1296 -0.0748
12266W        W55178   3.255  19.357  16.567 -0.2821  0.5525 -0.3059
12267W        W55179   2.082  18.859  16.702 -0.0564 -0.2403 -0.2963
12268W        W55180   2.504  19.776  16.324  0.0100  0.1329 -0.0389
12269W        W55181   0.714  18.248  18.246  0.1344 -0.1097  0.0062
12270W        W55182   0.745  21.121  18.370  0.0738  0.1115  0.1060
12271W        W55183   0.187  18.548  17.941 -0.0727 -0.2678 -0.1310
12272W        W55184   1.962  22.441  19.344 -0.0974 -0.2219 -0.2691
12273W        W55185   1.250  18.677  17.161 -0.3820  0.0389 -0.1059
12274W        W55186   1.518  17.767  18.386 -0.2888 -0.0281  0.0072
12275W        W55187   0.565  19.599  17.560 -0.2628  0.2225  0.1192
12276W        W55188   1.122  18.381  19.254 -0.2453  0.0609  0.1016
12277W        W55189   4.170  21.106  16.162  0.0852  0.1832  0.1246
12278W        W55190   4.144  23.139  17.977 -0.1281 -0.2137  0.1549
12279W        W55191   2.078  21.417  16.202 -0.1833  0.0541 -0.1537
12280W        W55192   3.234  20.199  17.057  0.2281 -0.0778 -0.1496
12281W        W55193   0.183  19.457  18.917 -0.0227 -0.4506  0.2417
12282W        W55194  32.964  19.702  18.545 -0.1241 -0.4750  0.2991
12283W        W55195   1.109  17.575  18.147 -0.2476  0.2474 -0.1192
12284W        W55196   2.311  20.261  19.439 -0.1064  0.2244 -0.0555
12285W        W55197   0.568  19.599  18.115 -0.3170  0.1083 -0.2411
12286W        W55198   0.743  18.548  17.190  0.1708 -0.0316  0.0925
12287W        W55199   0.732  21.069  17.367  0.2049 -0.1998  0.2887
12288W        W55200   2.963  21.526  17.928  0.1908  0.1733 -0.1356
12289W        W55201   3.031  20.536  16.577  0.2438  0.0537 -0.2039
12290W        W55202   2.650  17.564  18.284 -0.1378 -0.1021  0.0356
12291W        W55203   3.060  18.215  18.256 -0.2960  0.0585  0.0126
12292W        W55204   1.358  19.876  16.913  0.1293 -0.1675  0.2129
12293W        W55205   1.537  20.787  17.380  0.2711  0.2467  0.0880
12294W        W55206   3.527  22.018  18.681  0.0470 -0.3333 -0.0194
12295W        W55207   3.433  21.170  16.733  0.1329  0.1746 -0.1862
12296W        W55208   1.368  20.587  18.260 -0.3441  0.0174  0.0529
12297W        W55209   1.063  17.745  19.507 -0.3242 -0.3291 -0.2245
12298W        W55210   0.975  21.176  20.393  0.1442  0.0524  0.0004
12299W        W55211  34.351  21.792  15.990  0.0666  0.2074  0.2440
12300W        W55212  34.359  20.552  18.096  0.1853  0.0920  0.3495
12301W        W55213  33.391  20.621  15.893  0.1530  0.0148 -0.4580
12302W        W55214  34.523  19.024  19.518  0.2377  0.1021  0.2729
12303W        W55215   0.681  20.633  17.534  0.1411 -0.1388  0.0050
12304W        W55216   1.792  17.725  17.390  0.3683  0.0233 -0.1151
12305W        W55217  33.555  18.799  19.568 -0.2161  0.0065 -0.0056
12306W        W55218   3.582  18.898  17.211 -0.2081 -0.0445 -0.0109
12307W        W55219   1.062  20.787  17.162 -0.1723 -0.0482 -0.1066
12308W        W55220   2.231  22.529  18.370  0.0005 -0.0799 -0.3055
12309W        W55221   3.917  19.931  16.115 -0.1970  0.0938 -0.2121
12310W        W55222   1.973  21.382  17.032 -0.2385 -0.0895 -0.0689
12311W        W55223   1.213  19.799  17.921 -0.1249 -0.0829  0.3393
12312W        W55224   0.653  18.587  17.843 -0.2209  0.1639  0.0748
12313W        W55225  34.415  19.750  19.188  0.0444  0.1990  0.1911
12314W        W55226  34.282  19.589  18.337 -0.2268 -0.1382  0.0398
12315W        W55227   1.611  19.588  19.303  0.0126 -0.2093  0.0161
12316W        W55228  34.123  18.213  17.122 -0.2531 -0.0511  0.1248
12317W        W55229   3.538  20.114  17.458 -0.3068 -0.4098  0.2571
12318W        W55230   1.565  19.525  18.246 -0.2385  0.1305 -0.0870
12319W        W55231  34.027  21.063  16.558 -0.1311 -0.0533 -0.0989
12320W        W55232   1.894  17.623  19.161 -0.0033 -0.1467  0.1193
12321W        W55233   1.952  22.044  17.122  0.1038 -0.0536 -0.1831
12322W        W55234   3.809  23.346  19.926 -0.0309 -0.0413  0.4401
12323W        W55235   4.744  23.079  19.338  0.5524  0.1004  0.2914
12324W        W55236   0.568  17.690  19.682  0.3285  0.1683  0.1764
12325W        W55237   0.537  19.380  17.120  0.0163  0.0460 -0.0039
12326W        W55238  34.220  22.176  18.315  0.0815  0.2442  0.1405
12327W        W55239   1.660  21.369  18.342  0.1119 -0.0013 -0.1675
12328W        W55240   0.876  18.955  16.985 -0.0389 -0.3382  0.2738
12329W        W55241   3.530  21.776  17.939 -0.1641  0.1058 -0.2423
12330W        W55242   2.172  20.071  17.993  0.0747 -0.1321  0.1283
12331W        W55243   0.948  19.476  18.680  0.0543 -0.2047  0.2637
12332W        W55244   1.823  17.932  18.733  0.0223 -0.0562 -0.1485
12333W        W55245   1.216  20.273  18.714 -0.0007  0.2802 -0.0426
12334W        W55246   1.045  18.876  17.591  0.0558 -0.0093 -0.1052
12335W        W55247   0.297  18.401  16.191 -0.0469 -0.0095  0.0116
12336W        W55248   2.340  22.484  17.266  0.0680 -0.2480 -0.1008
12337W        W55249  34.537  21.760  16.996  0.0286  0.1711  0.0394
12338W        W55250  33.804  19.282  18.319  0.1021 -0.0511 -0.0268
12339W        W55251   2.090  22.964  17.651  0.0728 -0.1516  0.1069
12340W        W55252   2.697  18.810  17.988  0.0121  0.1983  0.2453
12341W        W55253   0.533  20.986  20.192  0.1851  0.1037 -0.0378
12342W        W55254   2.264  19.279  20.291  0.0226  0.2127 -0.3117
12343W        W55255  33.209  19.549  16.681  0.0855  0.1673  0.1909
12344W        W55256   1.706  23.118  18.941  0.0240  0.0906 -0.3486
12345W        W55257   1.470  19.034  17.411 -0.1849 -0.1984  0.0566
12346W        W55258   3.213  18.192  17.492 -0.1084 -0.1674 -0.2957
12347W        W55259   1.564  20.707  20.041 -0.0001  0.1571 -0.1253
12348W        W55260   4.050  22.546  18.715 -0.1698 -0.0850  0.1047
12349W        W55261   1.618  19.391  16.067  0.2162 -0.3282  0.0771
12350W        W55262   2.535  17.600  16.051 -0.1485 -0.1160 -0.0429
12351W        W55263   1.873  20.911  18.354 -0.2226  0.0749 -0.3608
12352W        W55264   1.979  20.501  19.152  0.1950  0.1840 -0.1137
12353W        W55265   1.563  20.065  18.280 -0.1054 -0.0796  0.0017
12354W        W55266   2.753  19.015  17.146 -0.2211 -0.0027 -0.0601
12355W        W55267   2.362  21.229  17.331 -0.0975  0.1958 -0.0537
12356W        W55268   0.658  20.033  18.311  0.1203 -0.1884 -0.0481
12357W        W55269   2.324  22.027  18.505  0.2161 -0.1458  0.0084
12358W        W55270   2.853  22.086  18.268  0.0632  0.0668  0.0065
12359W        W55271   1.574  17.573  19.617 -0.3372 -0.1798 -0.3831
12360W        W55272   0.601  19.040  17.481  0.0600 -0.0299  0.0437
12361W        W55273   1.648  17.588  17.918 -0.1274  0.2686  0.0480
12362W        W55274  32.684  21.361  16.825  0.2681 -0.2457 -0.2965
12363W        W55275   1.492  19.097  19.540 -0.0975  0.0568  0.1748
12364W        W55276   2.873  17.757  19.002  0.1466  0.0038  0.2317
12365W        W55277   1.376  18.821  19.138  0.0489  0.0194  0.1189
12366W        W55278   1.866  20.069  19.041  0.2126  0.0022  0.0337
12367W        W55279   3.144  19.124  17.416 -0.0440 -0.0429  0.1514
12368W        W55280   1.418  20.467  16.990  0.2003 -0.2379  0.1883
12369W        W55281   1.281  20.115  16.507  0.0958 -0.2634 -0.0581
12370W        W55282   0.922  18.428  18.710 -0.3251  0.0466 -0.1640
12371W        W55283   1.945  19.823  21.111 -0.1202 -0.0570  0.1818
12372W        W55284   0.893  20.422  19.238 -0.1621 -0.0925  0.0936
12373W        W55285   3.588  22.964  18.595  0.0110  0.0244  0.4549
12374W        W55286   2.371  20.058  17.011 -0.2031 -0.3047  0.1434
12375W        W55287   1.513  18.475  20.065  0.1876  0.1605 -0.1478
12376W        W55288   0.062  18.688  16.528  0.0105  0.0779 -0.3175
12377W        W55289  33.261  21.961  17.755  0.0905  0.1836 -0.1121
12378W        W55290   1.302  21.236  17.015 -0.1862 -0.0177  0.1731
12379W        W55291   1.012  17.416  17.605  0.0546  0.2701  0.0818
12380W        W55292   2.545  21.839  17.955  0.1618  0.2616 -0.2529
12381W        W55293   0.078  19.530  17.331 -0.6935  0.0664  0.2719
12382W        W55294   3.044  20.716  19.342  0.1561 -0.1070 -0.0144
12383W        W55295   0.215  22.055  16.898  0.0280  0.1305  0.0006
12384W        W55296   2.938  16.338  18.928 -0.0740 -0.0266  0.1378
12385W        W55297  34.627  21.334  17.337 -0.2092 -0.0005 -0.2671
12386W        W55298   1.691  19.069  16.476 -0.0997 -0.5270  0.3833
12387W        W55299   0.452  19.862  17.115  0.1039 -0.1040 -0.1599
12388W        W55300   1.916  18.768  17.549 -0.0495 -0.1160  0.1441
12389W        W55301   2.879  21.122  17.582  0.1197 -0.0592 -0.1588
12390W        W55302   0.546  19.574  20.037  0.0877  0.2980  0.2579
12391W        W55303   1.362  18.652  18.628 -0.1087 -0.0282  0.3064
12392W        W55304   0.058  22.851  17.556 -0.0506  0.1235  0.4955
12393W        W55305   2.723  20.752  17.910 -0.0426  0.0210 -0.2994
12394W        W55306   3.395  17.755  17.664 -0.0454  0.2858  0.2888
12395W        W55307   3.827  22.523  16.787  0.0259 -0.0455  0.0487
12396W        W55308   2.139  20.156  20.445 -0.0642  0.3331 -0.0636
12397W        W55309   0.673  18.147  16.485  0.0067  0.1627  0.2536
12398W        W55310   3.300  20.368  18.462  0.2136 -0.0327 -0.0421
12399W        W55311   1.884  19.689  18.688 -0.2112 -0.2134 -0.4370
12400W        W55312   0.227  20.979  17.022  0.0919 -0.0368  0.2671
12401W        W55313   1.443  21.896  18.190  0.0910 -0.3139  0.0224
12402W        W55314  34.474  18.567  17.147  0.1296 -0.2245 -0.4063
12403W        W55315  34.405  20.443  17.188 -0.0277  0.0994  0.1720
12404W        W55316   1.829  20.255  19.638  0.3036 -0.0307  0.0629
12405W        W55317   1.838  19.129  18.320 -0.1638  0.2973 -0.0063
12406W        W55318   1.878  18.670  18.080 -0.3723  0.0275  0.0865
12407W        W55319   1.501  18.629  17.746  0.1486  0.2080 -0.1999
12408W        W55320   0.737  19.011  18.017 -0.0137  0.0219  0.1771
12409W        W55321   3.006  20.323  18.989  0.0879 -0.0293  0.1369
12410W        W55322   1.195  18.699  19.660  0.0883 -0.1336  0.2286
12411W        W55323   1.265  21.473  19.296 -0.0013 -0.1264 -0.0590
12412W        W55324   1.783  19.125  19.065  0.2930 -0.3230 -0.3007
12413W        W55325   3.369  22.450  16.260 -0.1736  0.1808 -0.1421
12414W        W55326   1.167  19.327  19.165 -0.3395  0.0263  0.1603
12415W        W55327   0.882  20.255  17.138 -0.1531 -0.0552 -0.2534
12416W        W55328  34.398  19.971  17.371  0.0274 -0.1671  0.1352
12417W        W55329   2.123  21.683  17.443 -0.2503 -0.1369 -0.0809
12418W        W55330   2.092  19.610  18.203  0.0238 -0.1720  0.3398
12419W        W55331   1.528  20.287  17.870  0.0321  0.1130 -0.0099
12420W        W55332   0.061  20.533  16.892 -0.1204  0.0863 -0.0600
12421W        W55333   1.540  19.500  20.614  0.1340  0.2257  0.2249
12422W        W55334   3.037  18.532  18.749  0.2088 -0.1564  0.0590
12423W        W55335   2.909  21.064  16.559  0.0749 -0.4740 -0.1718
12424W        W55336   1.449  19.205  18.721 -0.0164  0.2509  0.2476
12425W        W55337   3.716  18.527  19.764  0.1439 -0.2658 -0.1622
12426W        W55338   2.767  20.033  16.736 -0.2468 -0.1919  0.3895
12427W        W55339   1.733  18.335  19.063 -0.0957 -0.2125  0.1723
12428W        W55340   0.060  18.287  18.940 -0.1824  0.0145  0.1670
12429W        W55341   3.595  21.274  17.214  0.0833 -0.1403 -0.1797
12430W        W55342  34.183  19.460  18.830 -0.0440 -0.1231 -0.0536
12431W        W55343   2.426  20.926  19.480 -0.1846 -0.1710  0.0226
12432W        W55344   2.040  21.320  19.470 -0.0487  0.2490  0.0830
12433W        W55345   3.153  18.602  17.167 -0.0661  0.0516 -0.4199
12434W        W55346   1.213  17.962  16.571  0.0121 -0.0005  0.0385
12435W        W55347   0.396  20.722  18.614  0.0057 -0.2150  0.4530
12436W        W55348   2.834  20.618  18.585  0.0310 -0.1460 -0.1424
12437W        W55349   1.991  20.859  17.164 -0.0405 -0.1421  0.1643
12438W        W55350   4.118  20.492  16.833  0.1583 -0.0210  0.1496
12439W        W55351   0.861  19.925  18.960 -0.1196 -0.0618  0.1698
12440W        W55352   3.876  20.001  16.659  0.1223  0.0535 -0.1613
12441W        W55353   1.968  20.356  17.150 -0.2423 -0.2143  0.0549
12442W        W55354   0.384  20.268  17.765  0.1965  0.0866  0.0982
12443W        W55355   0.103  19.488  20.365  0.1226 -0.0609  0.3587
12444W        W55356   2.094  21.697  18.041 -0.1734  0.3317 -0.0350
12445W        W55357   1.360  18.167  18.808 -0.0882 -0.0116 -0.0774
12446W        W55358   2.390  18.975  18.995 -0.1462  0.0218 -0.2619
12447W        W55359   1.422  20.537  19.130  0.3661 -0.2642  0.0319
12448W        W55360   1.684  20.029  20.680  0.0012 -0.1719  0.1775
12449W        W55361  33.808  18.352  19.688 -0.0791  0.0195  0.0604
12450W        W55362   2.298  21.533  18.460 -0.1893  0.0759 -0.1005
12451W        W55363   3.389  20.200  16.561 -0.1326  0.1504  0.0896
12452W        W55364   3.163  18.538  19.940  0.0245  0.0338 -0.1447
12453W        W55365   2.675  20.983  17.024  0.1293  0.1687 -0.1748
12454W        W55366   1.972  19.439  17.496  0.1800 -0.2471  0.1359
12455W        W55367  33.483  19.812  18.673  0.2489  0.1489 -0.0762
12456W        W55368   2.046  20.570  20.076  0.0785 -0.0923 -0.0229
12457W        W55369   1.561  17.165  16.883  0.0968  0.0613 -0.0673
12458W        W55370   1.745  19.143  17.830 -0.2533  0.2209  0.2942
12459W        W55371   0.799  21.248  16.896 -0.0602 -0.1356  0.1871
12460W        W55372   1.194  21.173  17.539 -0.0169  0.1119  0.1248
12461W        W55373   1.829  19.323  17.017 -0.0667  0.1482 -0.0467
12462W        W55374   0.305  18.604  19.444  0.2546 -0.1383 -0.1145
12463W        W55375   1.392  20.983  19.657  0.2042 -0.1969  0.0961
12464W        W55376   0.543  19.167  16.675 -0.0088 -0.1105 -0.3221
12465W        W55377   1.316  17.825  17.569  0.2748  0.0983  0.3382
12466W        W55378   2.115  20.116  18.590  0.0633  0.2561 -0.1028
12467W        W55379   3.478  20.311  20.597 -0.0799 -0.0539 -0.0133
12468W        W55380   1.998  17.179  16.617 -0.0722 -0.0200 -0.1119
12469W        W55381   3.015  20.580  20.586  0.0373  0.0817  0.0534
12470W        W55382   0.621  20.650  16.930 -0.1798  0.1638  0.1216
12471W        W55383   2.654  18.473  18.357  0.0126 -0.1717 -0.2900
12472W        W55384   1.569  21.483  18.815  0.1502 -0.1146 -0.1907
12473W        W55385   1.337  20.392  19.746  0.0680 -0.0979  0.0481
12474W        W55386   3.090  20.867  18.250 -0.0256 -0.3170  0.1011
12475W        W55387   1.367  19.011  18.186  0.0023 -0.3802 -0.1756
12476W        W55388   2.447  20.412  18.273  0.1433  0.0454 -0.0653
12477W        W55389   2.418  20.659  17.400  0.1068 -0.0614  0.2513
12478W        W55390   2.373  20.204  19.927  0.3613 -0.0066 -0.1033
12479W        W55391   1.409  22.110  19.145  0.0663  0.1476 -0.3433
12480W        W55392   1.586  20.124  17.370 -0.0436  0.0591  0.0556
12481W        W55393   3.085  21.698  19.444  0.2160 -0.2132 -0.0178
12482W        W55394   3.373  21.093  17.674 -0.0424  0.1041 -0.3704
12483W        W55395   1.308  21.920  18.673 -0.1397 -0.2295 -0.1212
12484W        W55396  34.223  19.047  18.564  0.1320 -0.1362 -0.0439
12485W        W55397   1.981  21.017  18.791  0.1381 -0.0017 -0.3490
12486W        W55398   2.055  21.494  19.038  0.1500  0.1837 -0.1048
12487W        W55399   1.340  17.630  17.039 -0.2781  0.0497  0.1501
12488W        W55400   2.721  21.497  16.517  0.0753  0.0560  0.0550
12489W        W55401  34.422  20.934  18.903 -0.0093  0.3328  0.0942
12490W        W55402   0.653  19.011  18.866  0.0378  0.0269  0.0840
12491W        W55403   0.837  21.820  18.244  0.0193 -0.3167 -0.0586
12492W        W55404   2.089  21.655  16.662 -0.0418 -0.1194  0.0040
12493W        W55405   2.051  20.635  16.592 -0.1379  0.0983  0.0069
12494W        W55406   1.018  22.555  18.925  0.0542 -0.4593 -0.1012
12495W        W55407   0.956  18.447  16.776 -0.1228  0.0188  0.1964
12496W        W55408   0.805  19.854  19.461  0.0556 -0.2501 -0.0201
12497W        W55409  34.656  21.016  16.369  0.1217 -0.0803  0.0915
12498W        W55410   3.484  22.106  16.580 -0.0503  0.1010 -0.1409
12499W        W55411   0.761  22.079  20.095 -0.0634  0.0294  0.1846
12500W        W55412   2.389  23.401  17.935 -0.0372 -0.0668  0.2440
12501W        W55413   3.247  18.091  16.971  0.1585 -0.2709  0.2937
12502W        W55414   3.103  20.238  17.651 -0.1148  0.0194 -0.5112
12503W        W55415   1.299  19.332  17.746  0.2400  0.0906 -0.1241
12504W        W55416   1.707  20.827  20.905 -0.2582 -0.2315  0.1786
12505W        W55417   0.130  19.901  18.228  0.2037 -0.2361  0.2215
12506W        W55418   1.452  17.717  16.119 -0.0457 -0.2597  0.2601
12507W        W55419   1.410  19.832  18.819  0.1188 -0.0076 -0.0242
12508W        W55420   3.061  17.703  19.533 -0.0844 -0.0696  0.2138
12509W        W55421  34.465  21.373  19.143  0.0192  0.2539 -0.3043
12510W        W55422   3.392  22.234  18.061  0.1629 -0.0149 -0.0200
12511W        W55423  33.599  19.213  17.781 -0.1599  0.3172 -0.0196
12512W        W55424   2.122  20.082  17.485  0.0451 -0.1593 -0.1409
12513W        W55425   2.840  18.209  17.796  0.2986  0.0054 -0.1950
12514W        W55426   1.530  19.611  17.336  0.2561 -0.1060  0.0193
12515W        W55427   1.342  19.606  19.721  0.0018 -0.0816 -0.0086
12516W        W55428   1.544  21.369  17.839  0.2001  0.1167  0.1145
12517W        W55429   0.136  20.221  17.304 -0.0073 -0.3804 -0.1017
12518W        W55430   1.151  21.981  17.586  0.0673 -0.0289 -0.1897
12519W        W55431  33.661  18.252  16.733 -0.0040 -0.1162 -0.0806
12520W        W55432   4.422  20.367  17.864 -0.0430  0.2268 -0.1919
12521W        W55433   1.944  19.647  20.399  0.1332  0.0500 -0.4554
12522W        W55434   3.126  17.552  18.469 -0.0292 -0.0154 -0.0241
12523W        W55435   1.290  18.065  18.010  0.0852 -0.1196  0.0480
12524W        W55436   2.559  19.411  16.704 -0.2418  0.0354  0.0870
12525W        W55437   1.733  20.406  18.678  0.0525  0.0697  0.2654
12526W        W55438   1.021  18.984  18.549 -0.1769  0.0645  0.0826
12527W        W55439   0.959  19.532  16.819 -0.0040 -0.1587  0.4252
12528W        W55440   2.414  20.025  19.000 -0.0953  0.2055 -0.1837
12529W        W55441   4.762  18.776  16.709 -0.2378 -0.2469  0.1396
12530W        W55442   1.293  20.806  20.498 -0.0350 -0.4218 -0.0266
12531W        W55443   0.124  19.880  17.709 -0.2638  0.0134 -0.1907
12532W        W55444   1.874  19.866  17.085  0.2725 -0.1376  0.0838
12533W        W55445   1.736  19.815  17.823  0.0839 -0.2675  0.1144
12534W        W55446   1.110  20.713  17.817 -0.2012  0.0294 -0.0724
12535W        W55447   3.377  21.325  18.091  0.4630  0.1337 -0.1091
12536W        W55448  34.650  18.078  17.021 -0.0468  0.4049 -0.0783
12537W        W55449   4.701  19.829  17.296 -0.5615  0.1044 -0.2995
12538W        W55450   2.697  19.852  18.093  0.2073 -0.0841 -0.1458
12539W        W55451   0.687  22.834  16.602  0.1282 -0.1217 -0.1726
12540W        W55452   2.541  20.330  17.739  0.1324  0.2420  0.2422
12541W        W55453   1.444  22.048  17.171  0.0438 -0.3542 -0.2112
12542W        W55454   1.205  20.346  17.503 -0.0653 -0.0910  0.3114
12543W        W55455   3.123  22.437  18.555  0.0385  0.2055 -0.1275
12544W        W55456   2.658  20.642  19.026  0.2214 -0.0402 -0.1726
12545W        W55457   1.129  18.115  17.058  0.0250  0.1062  0.0287
12546W        W55458   1.052  20.265  18.109  0.0117  0.1766 -0.1323
12547W        W55459  34.408  20.845  16.811 -0.0326  0.0993 -0.1366
12548W        W55460   2.191  19.306  18.643  0.0517  0.0754 -0.0166
12549W        W55461   2.157  19.081  19.389  0.1754  0.1215  0.0283
12550W        W55462   1.577  22.528  16.612  0.0717 -0.0828 -0.1284
12551W        W55463   3.988  16.926  18.516  0.2924  0.2558 -0.1206
12552W        W55464   1.863  22.020  18.999 -0.1913  0.3174  0.2846
12553W        W55465   1.229  20.283  20.743 -0.1375 -0.0340  0.1027
12554W        W55466   1.538  20.561  16.421  0.4672 -0.0519 -0.1629
12555W        W55467   0.740  20.335  18.653 -0.0701 -0.1296  0.2046
12556W        W55468   0.626  22.385  16.835 -0.0187  0.0087 -0.1207
12557W        W55469   1.552  21.682  16.798  0.3365 -0.1611  0.0686
12558W        W55470   2.866  22.060  18.779  0.2025 -0.0164  0.1306
12559W        W55471   1.124  18.611  18.116 -0.2390  0.0937  0.0781
12560W        W55472   4.122  20.632  19.097 -0.1904 -0.0797  0.0312
12561W        W55473   1.729  17.229  18.263 -0.0523 -0.2395 -0.1369
12562W        W55474   4.386  18.063  17.994 -0.0166 -0.4949 -0.0015
12563W        W55475   4.149  20.534  17.304 -0.2298  0.1686  0.0997
12564W        W55476   1.837  18.762  19.744  0.0204 -0.0016 -0.0539
12565W        W55477  33.953  19.964  17.585  0.2015  0.0812  0.2479
12566W        W55478   1.827  21.183  17.508 -0.0949  0.2672 -0.1067
12567W        W55479   0.793  20.044  17.732  0.1498 -0.1566 -0.0455
12568W        W55480   2.337  19.766  19.482  0.0505 -0.0729 -0.1252
12569W        W55481   0.961  19.179  19.763  0.2134 -0.2041 -0.1839
12570W        W55482   1.094  19.870  18.420  0.0185 -0.0139  0.1420
12571W        W55483   0.248  18.026  18.057  0.0702  0.0025  0.1425
12572W        W55484   3.027  20.707  17.446  0.0652  0.0812  0.2012
12573W        W55485   0.901  17.727  17.226 -0.1070  0.1704 -0.2350
12574W        W55486  34.048  18.040  17.938  0.0237  0.2542 -0.3461
12575W        W55487   1.536  21.545  17.368 -0.4446 -0.0862  0.0893
12576W        W55488   4.161  22.502  18.225 -0.2324 -0.1594 -0.2831
12577W        W55489   2.483  18.730  17.496 -0.1616  0.3172 -0.0903
12578W        W55490   3.246  21.684  20.326  0.1212  0.2379 -0.2422
12579W        W55491   0.384  21.118  16.134 -0.1132  0.1193  0.1920
12580W        W55492   2.299  18.755  20.584  0.4074  0.0985 -0.1443
12581W        W55493   2.002  18.678  19.257  0.1102  0.1252  0.0234
12582W        W55494  34.251  17.771  16.967  0.1009 -0.3368  0.0785
12583W        W55495   1.559  18.398  19.547  0.2137  0.1351  0.4515
12584W        W55496   0.999  22.373  17.172  0.0932 -0.1084  0.0833
12585W        W55497   2.168  21.124  16.622  0.1616 -0.1467 -0.1553
12586W        W55498   1.787  22.690  18.007 -0.1695  0.1452 -0.0976
12587W        W55499   1.586  21.004  19.125 -0.2708  0.0721  0.0988
12588W        W55500   0.710  18.138  19.405 -0.1013  0.0881 -0.4412
12589W        W55501   1.613  20.926  16.828  0.0884  0.0553  0.1351
12590W        W55502   2.420  21.187  19.041 -0.1696  0.2931  0.2939
12591W        W55503   3.168  20.818  15.839 -0.1444  0.0047  0.0863
12592W        W55504   2.286  18.448  17.970 -0.1216  0.0368 -0.2421
12593W        W55505   2.453  20.524  16.910 -0.1985 -0.1493  0.0713
12594W        W55506  33.924  19.669  19.213  0.1084  0.0276 -0.0141
12595W        W55507   1.443  21.017  18.624 -0.0482 -0.1769 -0.0184
12596W        W55508   1.333  20.003  19.374  0.0203 -0.0804  0.1414
12597W        W55509   0.772  17.808  17.803 -0.0273  0.1902 -0.2627
12598W        W55510   2.526  19.280  18.230 -0.0216 -0.0022 -0.0100
12599W        W55511   2.489  21.934  17.199  0.0494  0.0117 -0.0122
12600W        W55512   1.044  19.433  18.181 -0.1107 -0.0704  0.0431
12601W        W55513   2.207  18.046  16.759  0.1996 -0.1595  0.0383
12602W        W55514   2.748  19.426  20.350 -0.2430 -0.0402  0.0693
12603W        W55515   1.645  20.872  17.901  0.0471 -0.2551 -0.3299
12604W        W55516   3.126  19.746  20.378 -0.1084  0.2997  0.1198
12605W        W55517   2.439  18.640  17.010 -0.0396 -0.1781 -0.1027
12606W        W55518   3.537  22.231  17.054 -0.1475 -0.0194 -0.3710
12607W        W55519   2.186  22.974  18.133 -0.1021  0.0350  0.0073
12608W        W55520   2.780  22.524  19.062  0.0028  0.0836  0.1081
12609W        W55521   0.114  22.778  18.614 -0.1153  0.3335  0.0700
12610W        W55522   2.141  19.508  19.074  0.2606  0.0612 -0.0018
12611W        W55523   0.186  18.842  18.618  0.1534  0.0331 -0.0466
12612W        W55524  34.413  19.053  17.261 -0.0168  0.0333 -0.0035
12613W        W55525   2.000  20.540  17.609 -0.5228  0.1377  0.0324
12614W        W55526   2.127  18.285  18.525  0.0474  0.0362  0.1999
12615W        W55527   0.287  18.473  17.002 -0.1020 -0.1707 -0.1568
12616W        W55528   2.971  19.446  17.030  0.2710  0.0324 -0.0394
12617W        W55529   0.504  22.335  18.346 -0.0418  0.2291 -0.0501
12618W        W55530   3.319  21.231  18.589 -0.0124 -0.0541 -0.3399
12619W        W55531   0.965  20.356  23.693  0.2248  0.0824  0.1507
12620W        W55532   0.890  18.626  20.610 -0.0896  0.0940 -0.2210
12621W        W55533   3.332  19.213  21.302  0.1537  0.2709  0.1245
12622W        W55534   2.872  19.549  21.315 -0.0481  0.1072  0.2797
12623W        W55535   0.013  18.411  20.671  0.1237  0.0045 -0.1358
12624W        W55536   4.602  20.754  19.627 -0.2053  0.1053 -0.1754
12625W        W55537   0.340  17.564  23.141 -0.1888 -0.3011  0.0086
12626W        W55538   2.461  20.364  21.297 -0.0695  0.0499 -0.2821
12627W        W55539   2.415  22.764  21.718  0.1444  0.1635  0.0482
12628W        W55540   1.780  20.535  20.489  0.1268 -0.1038  0.1035
12629W        W55541   1.603  20.430  22.246 -0.3543  0.1942 -0.0852
12630W        W55542   1.512  20.569  22.940 -0.2557  0.0460  0.1216
12631W        W55543   1.215  19.852  20.405 -0.2195 -0.3844 -0.0029
12632W        W55544   0.355  18.718  22.035 -0.0344 -0.0822  0.0973
12633W        W55545   3.490  20.689  20.306  0.0042  0.0628  0.0611
12634W        W55546   1.017  19.354  20.222  0.3277  0.3713 -0.0191
12635W        W55547   1.310  18.797  21.945  0.0245  0.1697 -0.3036
12636W        W55548   1.534  18.370  20.570 -0.0880  0.0742  0.0258
12637W        W55549   2.372  21.308  19.873 -0.1476 -0.0782 -0.0807
12638W        W55550  34.539  18.635  22.406  0.1738  0.1246  0.0475
12639W        W55551   2.456  18.589  23.059 -0.1103  0.1335  0.1460
12640W        W55552   0.812  22.350  19.731 -0.0276  0.0135 -0.0374
12641W        W55553  34.518  20.547  19.666  0.1856  0.0913 -0.0151
12642W        W55554  34.250  18.628  19.866 -0.3515 -0.2839 -0.0530
12643W        W55555   1.225  17.930  22.144 -0.1159 -0.3071  0.1524
12644W        W55556   3.724  17.875  23.080  0.1618  0.1469  0.1295
12645W        W55557   3.115  22.583  22.567  0.0898  0.2195 -0.2556
12646W        W55558   1.717  21.328  22.763 -0.1290 -0.3751  0.4435
12647W        W55559   0.183  23.014  21.428 -0.0549 -0.0701  0.1346
12648W        W55560   3.963  20.577  22.214 -0.4860 -0.2162  0.0744
12649W        W55561   1.024  20.734  21.469 -0.0806 -0.0373 -0.2154
12650W        W55562   1.562  21.357  21.657  0.0108  0.2844 -0.0333
12651W        W55563   0.588  21.916  19.620 -0.1697  0.1669 -0.3125
12652W        W55564   2.465  20.902  20.119 -0.1390  0.0813 -0.2185
12653W        W55565   3.984  21.066  22.027 -0.0764  0.4943  0.2286
12654W        W55566   1.395  22.756  22.389  0.2161 -0.0330  0.2080
12655W        W55567  33.925  21.186  20.115  0.1257  0.1362  0.4837
12656W        W55568   4.564  21.016  21.953 -0.1713  0.0464  0.1377
12657W        W55569   1.317  21.016  22.968 -0.1523 -0.2663  0.1241
12658W        W55570   2.494  19.114  22.666  0.3956  0.4049  0.1270
12659W        W55571   2.004  20.107  22.247 -0.0101  0.0965 -0.0572
12660W        W55572   0.862  21.074  20.846  0.0361 -0.0926  0.1605
12661W        W55573   1.324  21.220  20.762  0.1103  0.0926 -0.2978
12662W        W55574   2.253  20.752  23.658  0.1770  0.0322 -0.1500
12663W        W55575  34.689  21.098  20.663 -0.1518 -0.0786  0.1527
12664W        W55576   3.485  20.068  25.422  0.0092 -0.1475  0.4119
12665W        W55577   1.007  21.711  19.665  0.2330 -0.2435 -0.3699
12666W        W55578   2.698  18.426  20.364 -0.0609 -0.2291  0.1048
12667W        W55579   2.664  18.226  22.205 -0.1704  0.0772  0.0349
12668W        W55580   3.426  16.733  21.096 -0.3377  0.2340 -0.4272
12669W        W55581   1.285  17.776  20.952  0.1109  0.3257 -0.0299
12670W        W55582   1.094  23.177  21.560  0.0656 -0.1039  0.2130
12671W        W55583   1.534  19.071  23.209  0.3359  0.0153  0.2164
12672W        W55584   3.972  22.687  23.319  0.0879  0.1536 -0.1727
12673W        W55585   1.560  20.276  21.121 -0.0747  0.3654 -0.1755
12674W        W55586   3.594  21.134  21.578  0.4721  0.0573 -0.0766
12675W        W55587   0.830  20.836  22.761 -0.2395 -0.0598 -0.0424
12676W        W55588   0.807  18.643  22.306  0.0912 -0.2153  0.2053
12677W        W55589   3.501  20.799  18.484  0.1715 -0.0821  0.2356
12678W        W55590   3.276  20.868  21.271 -0.1100 -0.0857 -0.1589
12679W        W55591   1.956  21.685  19.789  0.1215  0.1605 -0.3218
12680W        W55592   1.406  19.803  21.013 -0.1756 -0.0785 -0.0830
12681W        W55593   0.367  20.461  24.779 -0.4213  0.0449 -0.2558
12682W        W55594   0.718  18.490  21.130  0.0450 -0.0811  0.0033
12683W        W55595   1.019  18.504  20.127 -0.0675 -0.0266 -0.2309
12684W        W55596   3.716  19.863  22.413 -0.1556  0.1967  0.1785
12685W        W55597   1.299  20.983  23.718  0.0842 -0.1383 -0.0809
12686W        W55598   2.497  19.087  21.705  0.0799  0.1607 -0.3168
12687W        W55599   1.685  20.269  21.767  0.0534  0.0336  0.1278
12688W        W55600   3.026  22.884  22.189 -0.2915  0.1074 -0.5431
12689W        W55601   2.178  22.819  19.695  0.0170 -0.1484  0.2139
12690W        W55602   3.610  17.871  21.093 -0.0262 -0.1446 -0.2182
12691W        W55603   3.124  18.756  20.850  0.0173 -0.0060  0.1675
12692W        W55604   0.831  20.282  19.730  0.1567  0.2164  0.0003
12693W        W55605   2.594  20.954  21.925  0.2666  0.1491  0.1038
12694W        W55606   4.004  22.140  22.461 -0.0206  0.0609 -0.0121
12695W        W55607   2.338  18.866  21.081 -0.4598  0.0390 -0.0192
12696W        W55608   0.436  19.346  22.840 -0.2292 -0.0507 -0.1929
12697W        W55609   0.945  19.818  22.924  0.3981  0.1069  0.0377
12698W        W55610   2.059  22.356  23.669 -0.0546  0.1916 -0.2375
12699W        W55611   0.587  20.103  20.109 -0.1820  0.2039 -0.0092
12700W        W55612   0.757  20.260  20.577  0.1467  0.0476 -0.1050
12701W        W55613  33.473  21.056  20.547 -0.1505 -0.3052  0.0305
12702W        W55614  33.778  18.429  22.951  0.3421 -0.0304 -0.3798
12703W        W55615   0.913  21.018  22.208  0.2493  0.2264 -0.1102
12704W        W55616   3.335  19.870  22.074  0.0235  0.2317  0.0973
12705W        W55617   0.908  18.214  21.877 -0.2409 -0.3004  0.1902
12706W        W55618   2.361  18.327  21.418  0.2480 -0.1077 -0.1175
12707W        W55619  33.966  20.555  19.634 -0.0337 -0.0622 -0.0501
12708W        W55620   3.383  21.375  22.221 -0.1019 -0.2082 -0.1299
12709W        W55621   2.283  19.632  20.770  0.0485  0.0111 -0.0146
12710W        W55622   0.968  21.607  20.613  0.2002  0.0409  0.0364
12711W        W55623   0.852  18.348  23.232  0.2488 -0.1779 -0.2209
12712W        W55624   1.413  18.332  21.787  0.2128  0.2737 -0.0961
12713W        W55625   0.058  18.098  22.779 -0.2084 -0.0295  0.0791
12714W        W55626  34.560  19.123  22.531 -0.0517 -0.0697 -0.4282
12715W        W55627   3.367  19.507  23.461 -0.0049  0.0106 -0.0742
12716W        W55628   0.415  18.111  20.867  0.1344 -0.0569 -0.2968
12717W        W55629   1.332  20.829  22.488  0.0909  0.3058  0.0084
12718W        W55630   2.614  19.897  21.713 -0.1802  0.1279 -0.1031
12719W        W55631  34.517  19.725  20.702  0.1199 -0.1879 -0.0780
12720W        W55632   3.747  17.885  21.600  0.0313 -0.0528  0.1369
12721W        W55633   1.682  20.177  20.161  0.0580  0.2340  0.0143
12722W        W55634   4.368  21.470  21.823 -0.1406  0.3396  0.2513
12723W        W55635   2.385  22.235  20.575  0.3594  0.0479  0.0455
12724W        W55636   0.036  18.554  22.900 -0.1871 -0.0583  0.2311
12725W        W55637  34.377  19.174  20.631 -0.0292 -0.0066 -0.1640
12726W        W55638   0.167  21.285  21.080 -0.1653 -0.0207  0.0999
12727W        W55639   2.302  20.748  22.699 -0.0190  0.1542  0.0786
12728W        W55640   1.775  18.647  21.960 -0.0768  0.0250 -0.0460
12729W        W55641   3.589  22.500  22.435 -0.2800 -0.2294 -0.5409
12730W        W55642   1.046  19.584  20.809 -0.1401  0.2244 -0.0592
12731W        W55643   1.584  19.867  22.337  0.0467  0.2425  0.0225
12732W        W55644   2.104  19.202  20.821 -0.0677  0.1924  0.4487
12733W        W55645   2.371  18.318  22.632 -0.2179  0.0450 -0.1868
12734W        W55646   1.801  19.931  22.790  0.1223  0.3606 -0.1009
12735W        W55647   0.466  18.482  20.277  0.2198  0.0150 -0.0515
12736W        W55648   2.701  21.100  22.549  0.2465  0.2351 -0.1269
12737W        W55649   0.423  20.536  20.016  0.1359  0.0045 -0.1376
12738W        W55650  34.252  19.238  21.164  0.2775 -0.0274  0.0559
12739W        W55651   0.545  21.657  21.055 -0.3886  0.0556 -0.4136
12740W        W55652   2.690  18.537  20.856 -0.1339  0.0104 -0.3302
12741W        W55653   0.444  21.211  23.565 -0.2129  0.1318  0.2739
12742W        W55654   2.006  19.521  22.349 -0.1815 -0.1185  0.3089
12743W        W55655  33.413  19.766  20.706 -0.0638  0.0773  0.2222
12744W        W55656   1.079  20.772  23.304  0.1284  0.0235 -0.1480
12745W        W55657   3.056  17.522  20.081 -0.1401 -0.2277  0.1272
12746W        W55658   3.371  17.878  20.472  0.0758  0.0946 -0.1177
12747W        W55659   3.216  20.143  24.580 -0.2494 -0.0127  0.1935
12748W        W55660   3.337  21.231  20.579 -0.3742 -0.2410 -0.0186
12749W        W55661   2.711  19.690  19.936  0.1766 -0.0050 -0.1205
12750W        W55662   4.056  19.050  20.439  0.2584 -0.0729  0.0983
12751W        W55663   0.595  19.655  22.003  0.3811  0.2804  0.3384
12752W        W55664   0.839  20.466  21.006 -0.1527 -0.1128 -0.0945
12753W        W55665   1.564  21.676  21.150 -0.0538 -0.0235  0.0623
12754W        W55666   3.107  19.222  20.670  0.2426 -0.2232 -0.0693
12755W        W55667   2.065  20.288  20.904  0.3690 -0.2160  0.5231
12756W        W55668   0.602  19.548  21.101  0.0814  0.0540  0.0614
12757W        W55669   3.539  20.958  23.455 -0.0929  0.0523 -0.1333
12758W        W55670   2.889  20.068  21.238  0.1995 -0.0629  0.1861
12759W        W55671   1.560  17.912  21.518 -0.0748  0.0587 -0.0168
12760W        W55672   1.526  19.420  20.102  0.0471  0.2965 -0.1602
12761W        W55673   1.981  17.987  21.218 -0.1258  0.0218  0.1843
12762W        W55674   1.235  22.120  19.846 -0.2424 -0.0882  0.1920
12763W        W55675   3.784  19.295  21.279 -0.1594  0.1310  0.0343
12764W        W55676   2.960  19.111  22.597  0.1466 -0.2430 -0.0525
12765W        W55677   1.495  17.573  21.954 -0.0444  0.0196 -0.1973
12766W        W55678   4.133  20.087  23.884  0.1002  0.3174 -0.1116
12767W        W55679   2.405  19.856  21.219  0.2178  0.0393  0.0758
12768W        W55680   2.344  19.834  22.722  0.1269 -0.1624  0.0578
12769W        W55681   0.759  20.744  20.551  0.1011 -0.0198  0.0821
12770W        W55682   1.078  18.608  21.484  0.1035  0.0897  0.0283
12771W        W55683   1.655  20.110  23.226  0.1985 -0.0778 -0.1370
12772W        W55684   1.125  21.260  22.566  0.2443 -0.1152  0.1192
12773W        W55685   2.786  21.136  23.534  0.1042 -0.0771  0.1013
12774W        W55686   0.329  20.239  20.903  0.0475  0.2630  0.0149
12775W        W55687   1.369  19.543  22.794 -0.1974 -0.1132  0.0055
12776W        W55688   2.379  16.985  21.132 -0.1674 -0.2612 -0.0474
12777W        W55689   1.420  22.469  19.528  0.2779  0.1019  0.0689
12778W        W55690   1.195  21.689  20.182 -0.1128  0.0690 -0.0762
12779W        W55691   1.336  18.819  20.373 -0.0732 -0.0957 -0.0402
12780W        W55692   1.066  22.032  22.274  0.1569  0.1233 -0.3032
12781W        W55693   0.710  20.814  19.622 -0.0388 -0.2199  0.0409
12782W        W55694   2.701  20.221  24.480 -0.0156 -0.2233 -0.1304
12783W        W55695   1.301  21.136  21.278 -0.0430 -0.4727  0.0285
12784W        W55696   3.020  17.089  20.992 -0.1540 -0.1310  0.2186
12785W        W55697   1.182  20.413  21.878  0.2310 -0.2295 -0.1049
12786W        W55698   0.176  19.386  21.333 -0.1333 -0.3422  0.2103
12787W        W55699   0.408  18.753  20.713  0.2038  0.0295  0.0383
12788W        W55700   3.016  19.015  21.648 -0.0749  0.0112  0.1232
12789W        W55701   3.275  19.620  20.957  0.0681  0.0615 -0.5397
12790W        W55702   0.526  19.258  21.655 -0.1205  0.0132  0.1204
12791W        W55703   2.066  18.503  21.092  0.0348  0.2672 -0.2010
12792W        W55704   0.690  21.133  21.363  0.0323 -0.4039  0.1627
12793W        W55705   2.928  20.706  22.796  0.1010  0.0139  0.2890
12794W        W55706   2.146  17.439  19.727  0.0227 -0.0777 -0.2575
12795W        W55707   4.149  20.872  22.589  0.1322 -0.2368 -0.1886
12796W        W55708   2.154  21.236  22.633 -0.0894  0.1606  0.2871
12797W        W55709  34.236  19.656  19.704  0.2552 -0.0353  0.0733
12798W        W55710   3.655  18.499  22.368 -0.1616  0.0230  0.1109
12799W        W55711   2.276  19.513  21.771 -0.1681 -0.0445 -0.1236
12800W        W55712  34.059  24.335  23.642 -0.1867  0.1049 -0.1273
12801W        W55713   3.845  21.541  21.854 -0.0962 -0.1436  0.2164
12802W        W55714   0.832  20.003  21.081  0.0562  0.1191 -0.5053
12803W        W55715   0.262  20.563  20.519  0.0221  0.0018  0.1194
12804W        W55716   1.200  18.974  22.404  0.0263  0.0160 -0.0237
12805W        W55717   3.501  20.864  22.059 -0.1041 -0.0974 -0.1000
12806W        W55718   1.850  19.018  21.251 -0.2815  0.0589 -0.3065
12807W        W55719   1.551  18.223  21.060 -0.0832 -0.4253  0.0777
12808W        W55720   1.555  19.871  21.473  0.1925  0.3985  0.0186
12809W        W55721   2.882  21.592  20.699 -0.0153  0.0247  0.0862
12810W        W55722   2.100  19.421  22.898  0.2300 -0.2559 -0.0293
12811W        W55723   2.365  21.286  23.785  0.1770 -0.1562  0.0332
12812W        W55724   2.175  18.998  22.056  0.1446  0.0803  0.1947
12813W        W55725   2.702  21.943  20.320  0.0871 -0.0834  0.0366
12814W        W55726   1.975  20.275  23.682  0.2615 -0.1051  0.0216
12815W        W55727   0.507  19.721  20.600  0.0260 -0.2075 -0.0373
12816W        W55728   0.514  20.323  23.949  0.2346  0.1031  0.1424
12817W        W55729  34.467  19.067  21.995 -0.2015 -0.1203  0.2012
12818W        W55730   2.001  17.959  22.789  0.0282 -0.0968 -0.1247
12819W        W55731   1.152  20.276  23.264  0.1160 -0.2815 -0.0579
12820W        W55732   0.428  20.835  20.939  0.0322 -0.1031  0.3489
12821W        W55733   0.415  21.523  23.185  0.0746  0.1240  0.0419
12822W        W55734   2.883  17.991  20.765 -0.2360  0.1150  0.0790
12823W        W55735   2.219  20.577  21.811  0.1166 -0.1296  0.0828
12824W        W55736   1.742  19.065  22.276 -0.2865 -0.0447  0.1102
12825W        W55737   3.371  19.558  24.021  0.0759 -0.2075 -0.3059
12826W        W55738   2.734  19.739  20.873  0.3235  0.0717 -0.0491
12827W        W55739   1.343  20.116  22.812 -0.4800  0.0096  0.1428
12828W        W55740   1.027  16.552  22.555  0.1091  0.1632  0.0351
12829W        W55741   3.723  21.549  18.665  0.0274 -0.2121 -0.1068
12830W        W55742   0.778  19.116  22.181 -0.0922 -0.2179 -0.0014
12831W        W55743   1.814  22.647  21.807 -0.2195  0.2274 -0.1573
12832W        W55744   0.529  20.303  21.471 -0.0064  0.1219 -0.1653
12833W        W55745   2.206  18.498  22.126 -0.1707 -0.4169  0.0144
12834W        W55746   0.770  17.761  20.513  0.1756  0.0273  0.1447
12835W        W55747   2.333  21.928  22.213 -0.2500 -0.2900 -0.0009
12836W        W55748   2.851  20.623  21.545  0.1610 -0.0987 -0.2892
12837W        W55749   0.863  21.243  19.818 -0.3505  0.0425 -0.0409
12838W        W55750   2.701  18.630  22.492  0.1167 -0.0264  0.0328
12839W        W55751   0.971  20.473  22.383 -0.2257  0.0212 -0.1036
12840W        W55752   3.489  19.274  22.709  0.3583 -0.1592  0.4038
12841W        W55753   1.747  18.828  20.746 -0.1982 -0.1430  0.2928
12842W        W55754   2.094  21.924  21.040  0.1281  0.1080 -0.1001
12843W        W55755   0.810  18.826  23.225 -0.0176 -0.1851  0.0694
12844W        W55756   2.801  21.074  20.735  0.0673  0.1685 -0.1440
12845W        W55757   2.360  18.011  21.872  0.0455 -0.3885  0.3235
12846W        W55758   2.543  19.530  23.094  0.3054  0.0590  0.0869
12847W        W55759   2.719  20.635  22.335 -0.0682  0.0514 -0.1692
12848W        W55760   1.238  19.918  23.708  0.1617 -0.0266  0.0481
12849W        W55761   0.112  19.511  21.873 -0.1230 -0.1929  0.1068
12850W        W55762   2.017  21.721  21.797 -0.1582 -0.2940 -0.1208
12851W        W55763   1.938  20.801  19.580  0.3766 -0.0671  0.1668
12852W        W55764   4.610  18.772  23.444 -0.0087 -0.2880 -0.0107
12853W        W55765   3.790  18.310  21.199 -0.2174 -0.1177 -0.1082
12854W        W55766   2.648  20.339  21.891  0.3835  0.1988 -0.0796
12855W        W55767   1.859  19.505  21.470  0.2198 -0.0877 -0.0852
12856W        W55768   3.004  20.275  23.778  0.2288 -0.0313 -0.1816
12857W        W55769   1.138  18.217  19.751  0.4196  0.0239 -0.1409
12858W        W55770   3.003  18.732  22.901  0.0733 -0.2896 -0.0735
12859W        W55771   1.058  20.813  20.064  0.0284  0.0608 -0.0022
12860W        W55772   2.308  21.342  20.361  0.1527 -0.1762  0.0083
12861W        W55773   2.856  19.991  22.193  0.3884 -0.0308 -0.1250
12862W        W55774   1.879  19.773  21.891 -0.0990 -0.0746  0.1322
12863W        W55775   1.411  20.492  23.623 -0.4271 -0.0320  0.0883
12864W        W55776   0.611  18.957  20.221 -0.0753  0.1703  0.3892
12865W        W55777   0.498  21.814  20.604 -0.2564  0.1516  0.0601
12866W        W55778   1.861  20.893  22.914 -0.1227  0.1087  0.2053
12867W        W55779   4.285  20.621  24.072 -0.0165  0.0419  0.0694
12868W        W55780   2.106  18.370  19.990 -0.0628 -0.1537  0.1054
12869W        W55781   4.315  18.958  22.739  0.0245 -0.2203  0.0637
12870W        W55782   0.765  22.649  20.148  0.1609 -0.1403 -0.0463
12871W        W55783   3.201  18.481  21.987  0.1845 -0.2727  0.0252
12872W        W55784   2.273  22.446  22.286  0.0725  0.2536  0.1717
12873W        W55785  34.309  20.967  24.757 -0.1879  0.0468  0.1366
12874W        W55786   1.264  20.691  21.022 -0.0388 -0.0961  0.0571
12875W        W55787   1.163  18.178  21.379  0.0622 -0.0937  0.1684
12876W        W55788   2.325  19.316  21.269  0.4493 -0.2717 -0.3011
12877W        W55789   1.379  22.854  21.806 -0.0566 -0.1964  0.0122
12878W        W55790   4.762  19.008  22.999 -0.0747 -0.0224  0.2375
12879W        W55791   2.461  20.631  24.542  0.2489  0.1604  0.2916
12880W        W55792   1.164  20.239  21.404  0.1484 -0.1746  0.1736
12881W        W55793   2.910  21.477  21.731  0.1460  0.0236 -0.2333
12882W        W55794   4.502  19.843  21.227  0.0304 -0.4467  0.1366
12883W        W55795   0.453  18.976  21.218  0.0909 -0.0785  0.0280
12884W        W55796   0.040  19.270  23.118 -0.2126 -0.3514 -0.4044
12885W        W55797   3.237  21.217  22.667 -0.1456 -0.0946  0.0725
12886W        W55798   2.156  22.232  21.856 -0.0185 -0.0427 -0.3235
12887W        W55799   1.956  17.291  20.699  0.4218 -0.0540 -0.1514
12888W        W55800   1.401  21.216  20.171  0.0065  0.1601  0.5268
12889W        W55801   2.063  21.165  23.328 -0.0131 -0.0175 -0.0165
12890W        W55802   1.446  19.451  21.745  0.2386 -0.0182 -0.1330
12891W        W55803   0.655  22.179  21.354  0.1186 -0.2496  0.0498
12892W        W55804   2.622  20.239  20.762 -0.1093  0.3920  0.0427
12893W        W55805   1.956  20.477  21.302  0.2836  0.0568 -0.0416
12894W        W55806   2.720  22.463  22.208 -0.1496 -0.6677  0.3591
12895W        W55807   1.797  19.775  19.736  0.2502  0.1058 -0.0680
12896W        W55808   1.374  21.292  22.084  0.2474 -0.1485 -0.2546
12897W        W55809  34.678  20.900  20.134  0.1066 -0.0051 -0.0995
12898W        W55810   2.219  21.858  20.173 -0.1913  0.1098 -0.2355
12899W        W55811  34.229  23.078  22.602 -0.2002 -0.0146 -0.3842
12900W        W55812   3.448  20.574  24.418 -0.0125 -0.0369 -0.1531
12901W        W55813   3.328  17.987  19.160  0.1518 -0.1979 -0.0884
12902W        W55814   3.872  19.123  23.141  0.0780 -0.2595  0.2015
12903W        W55815   3.723  18.602  20.294 -0.2215 -0.1095  0.0223
12904W        W55816   3.152  21.491  23.311  0.0790  0.2969  0.3021
12905W        W55817   2.378  21.413  22.135  0.1544 -0.0142 -0.0180
12906W        W55818   0.255  19.068  19.742 -0.0641  0.0417 -0.3072
12907W        W55819   1.248  19.906  21.897  0.0251 -0.1189 -0.1851
12908W        W55820   4.381  17.993  23.853 -0.0862  0.0076  0.1437
12909W        W55821   0.604  20.475  23.341  0.0381  0.1430  0.0621
12910W        W55822   2.210  20.834  20.563  0.3033 -0.1370  0.4664
12911W        W55823  34.692  17.283  20.814  0.0596 -0.0995 -0.2785
12912W        W55824   1.097  21.912  21.418  0.0274  0.0402 -0.2077
12913W        W55825   4.790  18.615  22.071  0.1792  0.1019  0.0248
12914W        W55826   0.487  21.274  20.571  0.0263  0.3861 -0.1389
12915W        W55827   2.417  19.797  22.191 -0.1918  0.1020 -0.0942
12916W        W55828   0.965  22.234  19.320 -0.2176 -0.0003 -0.2700
12917W        W55829   2.795  22.020  21.940 -0.1526  0.2384 -0.2229
12918W        W55830   1.520  22.181  21.061  0.1722 -0.1674 -0.3080
12919W        W55831  33.477  18.376  21.109  0.1401  0.0182  0.0717
12920W        W55832   3.257  20.169  22.454 -0.1769  0.0852  0.4085
12921W        W55833   0.709  17.905  23.023 -0.1732 -0.0073 -0.0001
12922W        W55834   3.415  18.235  23.765 -0.4573 -0.2244 -0.0447
12923W        W55835   0.948  19.849  19.968 -0.0964 -0.1728  0.0004
12924W        W55836   2.858  19.521  21.937  0.0813  0.2140  0.0864
12925W        W55837   3.287  21.914  22.090  0.0731 -0.0418 -0.0466
12926W        W55838   0.451  20.864  22.329 -0.0622  0.0892 -0.0818
12927W        W55839   0.498  18.484  19.013 -0.0329  0.2308  0.1711
12928W        W55840   3.563  20.294  22.074 -0.0599  0.3975  0.1239
12929W        W55841   2.227  19.713  20.005  0.2213  0.4834  0.2613
12930W        W55842   2.825  23.029  21.729  0.0173  0.0862 -0.6163
12931W        W55843  34.285  17.503  20.619  0.2613  0.0367 -0.3675
12932W        W55844   2.877  18.187  21.733 -0.0501 -0.2257  0.0396
12933W        W55845   0.979  19.236  21.183 -0.2796 -0.2946  0.2772
12934W        W55846   0.868  18.072  22.469  0.0739  0.2033  0.0995
12935W        W55847   4.019  21.491  23.219  0.1213 -0.0177 -0.0697
12936W        W55848  34.021  17.880  20.354  0.0820 -0.2382  0.1125
12937W        W55849   2.598  19.903  20.372  0.2942 -0.2218 -0.0374
12938W        W55850   3.286  19.651  21.581 -0.0746  0.0001  0.2042
12939W        W55851   1.900  23.896  19.314  0.2499  0.0069  0.0475
12940W        W55852   2.337  21.212  21.015  0.0106 -0.1749  0.0760
12941W        W55853   2.900  20.655  23.281  0.0807  0.4375  0.1312
12942W        W55854  34.032  20.331  22.583  0.0675  0.0316  0.1191
12943W        W55855   2.092  22.457  22.832  0.1318  0.3063 -0.4384
12944W        W55856   3.837  20.671  21.736 -0.3185  0.0175 -0.2433
12945W        W55857   0.189  17.916  20.471  0.0004  0.1381  0.0349
12946W        W55858   1.922  21.045  21.325  0.1083  0.0838  0.0905
12947W        W55859   1.429  21.780  20.713  0.1891  0.1454 -0.1875
12948W        W55860   4.361  18.069  20.466 -0.0528 -0.1262 -0.0838
12949W        W55861   4.175  19.116  23.538  0.1016  0.1642  0.1752
12950W        W55862   1.696  21.696  19.353  0.1430  0.0904  0.0908
12951W        W55863   3.292  18.915  22.258  0.1822 -0.1039 -0.6044
12952W        W55864   2.668  19.515  22.469 -0.0693  0.1145 -0.0128
12953W        W55865   1.688  23.116  22.526 -0.1849 -0.0731 -0.0594
12954W        W55866  34.350  21.306  20.274 -0.0711  0.0593  0.0097
12955W        W55867   2.037  21.513  21.341  0.0450  0.2288 -0.0888
12956W        W55868   2.910  21.584  22.211 -0.1071 -0.4543  0.1730
12957W        W55869   2.736  22.877  19.573 -0.1943 -0.2333 -0.1935
12958W        W55870   3.583  20.683  23.064 -0.2255  0.2130  0.0858
12959W        W55871   2.563  17.318  20.619  0.0136 -0.1857  0.5121
12960W        W55872   2.955  22.095  22.453  0.1004  0.0029  0.4038
12961W        W55873   1.629  18.578  21.449 -0.0628 -0.2684  0.0743
12962W        W55874   2.408  18.053  20.910  0.1681 -0.0382 -0.1703
12963W        W55875   2.739  18.641  21.466 -0.1235  0.4245  0.4070
12964W        W55876   1.791  21.105  22.334  0.2397  0.0788  0.0027
12965W        W55877  34.331  19.790  20.211 -0.4622  0.1936  0.1612
12966W        W55878  34.595  20.030  19.768 -0.2867 -0.0244  0.0016
12967W        W55879  33.868  19.430  20.485  0.1052 -0.1451 -0.1269
12968W        W55880   3.176  18.968  23.712  0.3339  0.2184 -0.0810
12969W        W55881   0.717  20.660  21.891 -0.2042  0.1486  0.0080
12970W        W55882   1.768  19.115  21.771  0.2859 -0.0874 -0.3234
12971W        W55883   0.026  16.851  21.503 -0.0142 -0.1750 -0.2626
12972W        W55884   2.422  20.712  20.959  0.1238  0.1610  0.0156
12973W        W55885   0.372  18.326  21.717 -0.3430  0.0037 -0.1646
12974W        W55886   0.940  18.098  20.855  0.0228 -0.1214 -0.0793
12975W        W55887   2.979  21.273  19.162  0.2609 -0.0046  0.0556
12976W        W55888   2.904  20.616  21.090 -0.2960 -0.0045  0.1793
12977W        W55889   1.252  17.966  20.438  0.0255 -0.0150  0.0471
12978W        W55890   3.802  21.107  22.936  0.0049 -0.2141  0.3484
12979W        W55891   0.261  19.886  19.110  0.0414  0.1984  0.2741
12980W        W55892   1.665  19.156  22.752  0.1787 -0.4655  0.0409
12981W        W55893   1.462  18.181  22.878 -0.1048 -0.0124  0.0369
12982W        W55894   0.086  18.880  20.348 -0.1534 -0.4250  0.0470
12983W        W55895   2.666  19.073  22.168 -0.0767 -0.1242 -0.1931
12984W        W55896   1.794  21.576  20.413  0.3700 -0.0389  0.0238
12985W        W55897   3.614  21.693  20.708  0.1395  0.4203  0.3858
12986W        W55898   3.173  21.329  23.864 -0.0280  0.1899 -0.0157
12987W        W55899   1.584  22.385  23.346 -0.2420  0.1696 -0.2152
12988W        W55900  34.456  18.079  21.713  0.0639  0.0001 -0.0100
12989W        W55901   1.920  21.161  19.991 -0.1320 -0.0288  0.3200
12990W        W55902   1.695  20.803  23.374  0.1304 -0.1413 -0.1149
12991W        W55903   3.655  21.622  21.293 -0.3266  0.0081 -0.1442
12992W        W55904   3.940  16.582  21.019  0.1490  0.4271  0.2115
12993W        W55905   3.065  21.021  21.754  0.0657 -0.0133 -0.0353
12994W        W55906  34.541  18.485  23.626  0.0658  0.0212 -0.0826
12995W        W55907   0.751  20.146  21.989 -0.0730  0.1442  0.0926
12996W        W55908   5.753  19.414  22.764  0.1829 -0.2877 -0.1563
12997W        W55909   0.225  17.934  21.469 -0.1653  0.0039  0.1280
12998W        W55910   2.182  18.734  21.601 -0.1250  0.1107  0.0362
12999W        W55911   1.720  22.082  19.630 -0.0617  0.1292  0.1146
13000W        W55912   1.266  18.401  22.277  0.0380  0.0543 -0.1134
13001W        W55913   2.111  20.073  21.532 -0.0580  0.5972  0.2761
13002W        W55914   2.111  20.567  23.170  0.2537 -0.0910  0.0141
13003W        W55915   2.405  21.885  21.604  0.1132  0.0929 -0.0013
13004W        W55916   3.368  20.458  23.441  0.2694 -0.0374  0.0103
13005W        W55917   1.199  19.112  20.744  0.2152  0.1893 -0.1253
13006W        W55918   3.318  20.106  19.410  0.1762 -0.0567 -0.0384
13007W        W55919   1.701  22.016  20.126  0.1111 -0.1753 -0.0217
13008W        W55920   4.324  20.495  23.513 -0.1461 -0.0571  0.1550
13009W        W55921   2.259  22.924  22.626  0.3425 -0.6769 -0.0853
13010W        W55922   3.411  20.774  22.608  0.1677  0.3115  0.2033
13011W        W55923   0.516  17.872  22.142 -0.1697 -0.5054 -0.0887
13012W        W55924   1.480  19.306  21.098  0.3601 -0.1541  0.4275
13013W        W55925   1.352  20.810  21.996  0.1543 -0.0610  0.1527
13014W        W55926   2.084  20.710  22.264 -0.1290 -0.1490 -0.1230
13015W        W55927   1.039  19.672  21.448 -0.0706 -0.2327  0.4552
13016W        W55928   2.537  17.898  20.445  0.0290 -0.3904 -0.0023
13017W        W55929   1.225  22.378  21.520  0.1924  0.1121  0.0349
13018W        W55930   3.725  21.736  22.288 -0.0080  0.0421  0.1440
13019W        W55931   1.053  21.236  26.752 -0.0808 -0.0755  0.2923
13020W        W55932   0.882  19.565  25.146  0.1228  0.1279  0.1831
13021W        W55933   3.724  19.263  23.736  0.1119 -0.2449 -0.1420
13022W        W55934   3.294  19.337  25.846  0.1696  0.0356  0.1709
13023W        W55935   0.956  20.680  25.525  0.1226 -0.0805 -0.5053
13024W        W55936   2.244  23.433  22.821 -0.2446 -0.3247 -0.0186
13025W        W55937  34.613  19.464  26.319 -0.1736  0.0376  0.1608
13026W        W55938   2.698  21.625  26.406  0.0478 -0.0111  0.0679
13027W        W55939   3.697  22.153  25.782  0.1298 -0.0249  0.2010
13028W        W55940   1.770  20.751  23.932 -0.2978  0.4395  0.3689
13029W        W55941   1.195  20.332  26.390 -0.0811 -0.0246 -0.0886
13030W        W55942   1.073  21.631  25.465 -0.1461 -0.3296 -0.1318
13031W        W55943   2.549  18.458  25.559 -0.4179  0.0355 -0.1206
13032W        W55944  34.153  20.107  24.194  0.0650 -0.0317 -0.0024
13033W        W55945   1.908  19.665  25.731  0.1457  0.0307  0.2989
13034W        W55946   0.149  19.859  26.749  0.2254  0.2698 -0.1156
13035W        W55947   1.438  19.858  25.896  0.5721 -0.1141  0.1681
13036W        W55948   1.539  20.203  24.057 -0.0073  0.0561 -0.0414
13037W        W55949   0.962  23.024  25.018  0.1280  0.0572 -0.2092
13038W        W55950   1.279  20.801  26.833  0.0251  0.1567  0.0282
13039W        W55951   1.927  19.431  27.456  0.0591  0.2324  0.0862
13040W        W55952   1.753  21.557  23.210  0.1881  0.1254 -0.2195
13041W        W55953   0.145  20.844  24.676 -0.0096  0.2631  0.0772
13042W        W55954  34.589  19.380  26.767 -0.1830  0.3776 -0.2360
13043W        W55955   0.230  21.292  25.237  0.1865  0.3647 -0.2211
13044W        W55956   3.777  19.044  27.054 -0.1158  0.0999  0.1588
13045W        W55957   1.558  21.001  24.787  0.1390 -0.0155 -0.1070
13046W        W55958   1.528  21.927  25.341 -0.3019 -0.1012  0.2734
13047W        W55959   0.573  22.639  25.346 -0.1049 -0.0221  0.0994
13048W        W55960   2.691  20.069  27.379  0.1512  0.2169  0.0551
13049W        W55961   0.557  19.952  25.864  0.1472  0.0990 -0.1757
13050W        W55962   0.678  23.359  25.161 -0.1265  0.1134  0.2591
13051W        W55963   1.110  22.596  23.389  0.0749 -0.0566  0.1333
13052W        W55964   2.411  20.660  25.941 -0.0726  0.1090  0.1502
13053W        W55965   2.447  21.676  28.014 -0.4566  0.2031  0.1587
13054W        W55966   1.148  22.395  28.966 -0.0775  0.1925 -0.1066
13055W        W55967  34.156  21.727  23.513 -0.0425 -0.1667 -0.0002
13056W        W55968   1.629  20.721  27.403 -0.2311  0.1341 -0.0057
13057W        W55969   1.148  22.050  26.305 -0.0473 -0.2643 -0.0713
13058W        W55970   2.090  20.243  25.251 -0.2216  0.1461 -0.0899
13059W        W55971   2.576  20.251  24.041 -0.0624  0.1145 -0.3188
13060W        W55972   0.787  20.810  23.772 -0.0355 -0.0390  0.0494
13061W        W55973   2.057  21.012  24.757  0.3245 -0.4651 -0.4847
13062W        W55974   0.707  20.978  27.472  0.1532 -0.1006  0.1175
13063W        W55975   0.881  20.595  26.060  0.0156 -0.3977  0.3412
13064W        W55976   3.688  20.193  27.107  0.3610 -0.0672  0.1204
13065W        W55977   1.360  21.312  23.389  0.0066 -0.1302  0.1176
13066W        W55978   2.770  20.007  23.272  0.4492 -0.0290 -0.2987
13067W        W55979   1.991  19.300  23.551  0.1264  0.2948  0.0475
13068W        W55980   3.176  19.603  24.482  0.0883 -0.2297  0.1287
13069W        W55981   1.703  18.237  25.451 -0.0879  0.2743 -0.2061
13070W        W55982   0.693  22.137  26.492  0.0144 -0.0999  0.0526
13071W        W55983   1.364  19.110  26.695  0.2618  0.1706 -0.3166
13072W        W55984   3.191  20.737  27.054 -0.1094 -0.1795 -0.1699
13073W        W55985   2.202  19.936  24.855  0.0488  0.3918  0.0558
13074W        W55986   2.107  19.360  26.061 -0.2148 -0.1279 -0.2893
13075W        W55987   0.744  21.451  25.844 -0.2460  0.3728 -0.4858
13076W        W55988   0.586  19.894  24.897  0.1360 -0.2108 -0.5587
13077W        W55989   3.039  22.391  23.570 -0.0124 -0.2469 -0.1506
13078W        W55990   2.653  22.165  26.328  0.1981  0.1492  0.0875
13079W        W55991   2.400  20.629  25.375  0.0676  0.0742  0.0823
13080W        W55992   1.199  20.119  24.946 -0.1238 -0.4342 -0.1400
13081W        W55993   1.650  21.165  27.707 -0.1236  0.0699 -0.0139
13082W        W55994   0.814  19.941  26.821  0.1606 -0.3216  0.2304
13083W        W55995   0.711  19.133  24.006 -0.1151  0.0897 -0.1560
13084W        W55996   2.993  20.110  26.730  0.0663 -0.0982  0.1386
13085W        W55997  34.484  21.348  27.049 -0.3165 -0.1715  0.0016
13086W        W55998   3.665  18.830  23.494 -0.2272  0.2143  0.0213
13087W        W55999   1.448  21.239  25.524  0.1589  0.0985 -0.2908
13088W        W56000   2.894  21.427  25.792 -0.0175  0.0256 -0.0122
13089W        W56001   3.431  20.063  24.167  0.2782 -0.1559 -0.0318
13090W        W56002   3.088  18.539  23.938  0.1200 -0.1419  0.3421
13091W        W56003   1.878  19.196  25.381 -0.2989 -0.1541  0.0799
13092W        W56004   0.889  19.450  22.581 -0.3674  0.4159  0.1500
13093W        W56005   1.063  20.465  24.158  0.1613  0.1676  0.1125
13094W        W56006   4.054  21.070  27.451 -0.2083  0.0536 -0.1111
13095W        W56007   4.476  19.691  24.105 -0.1005 -0.2947 -0.1840
13096W        W56008   0.367  21.960  26.000 -0.0748 -0.0458 -0.2030
13097W        W56009   0.687  19.721  28.244 -0.1606  0.0121 -0.4486
13098W        W56010   2.366  21.874  26.717  0.2036  0.0752 -0.0652
13099W        W56011   1.601  23.177  23.532  0.0109  0.0099  0.3035
13100W        W56012  34.342  20.382  26.018  0.1117 -0.0881 -0.0637
13101W        W56013   0.814  21.160  23.231  0.0633 -0.0823 -0.0292
13102W        W56014   0.838  19.623  27.369 -0.0265 -0.0902  0.3117
13103W        W56015   0.250  20.859  26.782 -0.1640 -0.1198  0.3948
13104W        W56016   2.750  18.883  24.196  0.0997 -0.0892  0.1034
13105W        W56017   1.540  19.558  26.627 -0.0310  0.2203 -0.3110
13106W        W56018   2.843  19.063  24.617 -0.3217  0.1862  0.0230
13107W        W56019   1.368  20.442  24.575 -0.0660 -0.1973  0.4020
13108W        W56020   3.557  22.181  26.351 -0.1017 -0.1562  0.0290
13109W        W56021   2.712  19.766  25.293 -0.1837 -0.1514  0.1459
13110W        W56022   3.061  21.673  22.755  0.4700 -0.0144  0.1474
13111W        W56023   0.431  19.911  27.196  0.2124  0.1035  0.2509
13112W        W56024   1.248  20.174  25.476  0.0559  0.0027  0.2579
13113W        W56025   0.958  19.032  28.769  0.1560  0.3218  0.0759
13114W        W56026   0.865  20.164  27.348 -0.0884  0.0366 -0.1576
13115W        W56027   2.108  19.953  26.128 -0.0695  0.1442 -0.4056
13116W        W56028   0.349  19.649  24.518 -0.1521 -0.1022  0.0449
13117W        W56029   1.723  19.903  25.273  0.2325  0.0988 -0.2159
13118W        W56030   1.384  21.361  24.038  0.0245  0.1125  0.0921
13119W        W56031   0.636  20.662  24.307  0.2451  0.2034  0.0146
13120W        W56032   2.405  19.048  27.115 -0.4478  0.0243  0.2428
13121W        W56033   1.131  21.206  25.061 -0.2087 -0.0974 -0.1766
13122W        W56034   3.485  22.745  26.450  0.1306 -0.1129 -0.0667
13123W        W56035   2.311  22.744  26.230 -0.2279  0.1608  0.2551
13124W        W56036   1.881  19.025  26.452  0.0738  0.3326 -0.1640
13125W        W56037   1.163  18.989  22.900  0.2814 -0.1152 -0.2170
13126W        W56038   0.214  23.718  24.464 -0.0211 -0.1279  0.1570
13127W        W56039   1.274  22.202  25.036 -0.2355  0.0799 -0.1226
13128W        W56040   1.067  19.197  24.831  0.1247 -0.1222 -0.1962
13129W        W56041   4.151  22.107  25.650  0.0204 -0.1481  0.0634
13130W        W56042   2.021  22.034  23.218  0.1441 -0.0216  0.0034
13131W        W56043   1.600  20.913  25.972 -0.1965  0.0790  0.0883
13132W        W56044   2.213  19.423  27.852 -0.1890 -0.2475 -0.0105
13133W        W56045   1.431  20.352  25.961  0.1226 -0.0622  0.2121
13134W        W56046   1.683  20.021  26.286  0.2398  0.1130  0.1985
13135W        W56047   0.022  20.034  24.162 -0.1128 -0.1653  0.0519
13136W        W56048   1.741  21.048  26.965 -0.1026  0.0145 -0.1496
13137W        W56049  33.779  23.909  24.255 -0.1254  0.0817  0.2718
13138W        W56050  34.496  19.194  25.163 -0.2188 -0.0364 -0.3332
13139W        W56051   1.287  21.473  24.573  0.0309  0.1532 -0.0361
13140W        W56052   3.536  19.853  25.878 -0.2499 -0.0172  0.2112
13141W        W56053   0.564  20.648  29.475  0.2898  0.3452 -0.0705
13142W        W56054   2.875  18.889  27.595  0.0048  0.0422  0.1467
13143W        W56055  34.343  19.954  25.712 -0.3356 -0.0352  0.2466
13144W        W56056   1.945  21.701  26.330  0.2876  0.1153  0.0000
13145W        W56057   2.227  18.203  25.277  0.1447  0.1624 -0.4438
13146W        W56058   3.246  19.011  24.211  0.0556  0.0020 -0.1537
13147W        W56059   2.145  20.295  24.322 -0.1544  0.0151 -0.1256
13148W        W56060   2.849  21.057  24.579  0.1106  0.2910  0.1222
13149W        W56061   2.593  20.365  22.983  0.1474  0.2153 -0.0030
13150W        W56062   3.206  17.935  23.329 -0.2811 -0.1281 -0.1242
13151W        W56063   0.085  20.905  28.155  0.1796  0.0182  0.1156
13152W        W56064   0.615  21.229  24.853 -0.0812  0.0819  0.0823
13153W        W56065   1.901  21.591  26.806  0.2183 -0.0372 -0.3025
13154W        W56066   1.560  18.667  22.723  0.1367  0.0029  0.1293
13155W        W56067   3.125  22.186  25.319 -0.0761 -0.0609  0.1108
13156W        W56068   0.925  19.574  25.863  0.0207 -0.0770  0.1619
13157W        W56069   2.257  19.915  27.542 -0.0920  0.1325  0.0560
13158W        W56070   2.247  20.921  24.175 -0.2278  0.0903  0.0162
13159W        W56071   1.885  17.962  25.864 -0.0763  0.2595 -0.1644
13160W        W56072   1.213  19.646  23.287  0.1375 -0.1768  0.0429
13161W        W56073   1.547  19.067  24.946 -0.0767 -0.0082  0.2743
13162W        W56074   0.129  22.866  23.170 -0.2996  0.0083  0.1792
13163W        W56075   2.218  18.768  25.341  0.3935 -0.0727 -0.0236
13164W        W56076   2.685  18.980  25.070 -0.0622  0.2887  0.0273
13165W        W56077   2.909  19.516  26.798 -0.1295  0.1475 -0.0105
13166W        W56078   3.194  20.132  27.960 -0.1161  0.1062 -0.2531
13167W        W56079   4.035  20.003  24.334  0.2010 -0.3807  0.0769
13168W        W56080   2.541  20.259  25.092 -0.1468 -0.1249 -0.0053
13169W        W56081   0.114  20.320  25.799 -0.3655  0.0875 -0.0874
13170W        W56082   2.582  18.604  26.080 -0.2457  0.0959  0.0624
13171W        W56083   2.251  21.351  26.501  0.0201  0.5581 -0.1768
13172W        W56084  34.413  21.236  26.513 -0.5232  0.0144  0.1882
13173W        W56085   2.826  21.268  28.493  0.0230  0.2102  0.1163
13174W        W56086   0.746  21.247  25.393 -0.1437 -0.0537  0.0136
13175W        W56087   1.062  18.272  28.697 -0.3024 -0.0070 -0.1042
13176W        W56088   0.913  18.796  24.429  0.4924 -0.1585  0.1268
13177W        W56089   2.649  23.348  24.473  0.1559  0.0756  0.2598
13178W        W56090   1.295  21.566  22.912 -0.2202  0.1531 -0.1170
13179W        W56091   1.440  19.212  24.422  0.1584  0.0347  0.0797
13180W        W56092   1.447  21.471  26.983  0.0311 -0.2564  0.0588
13181W        W56093   2.633  21.305  24.205  0.2223 -0.0467  0.3569
13182W        W56094   2.664  21.535  26.948  0.2982 -0.1086 -0.1289
13183W        W56095  34.675  21.794  25.698  0.1262 -0.1878  0.2220
13184W        W56096   3.608  19.477  26.267  0.0061 -0.1022  0.1530
13185W        W56097   0.314  22.714  24.137 -0.1355 -0.2118 -0.0548
13186W        W56098   0.630  20.818  25.138 -0.1481 -0.1404  0.1587
13187W        W56099   0.371  19.403  25.945  0.1769  0.1962 -0.2233
13188W        W56100   2.420  19.867  24.361  0.1890  0.1202 -0.1220
13189W        W56101   3.796  20.392  24.128  0.2310  0.1989  0.0962
13190W        W56102   2.460  19.582  27.129 -0.1708  0.0213 -0.2321
13191W        W56103   0.773  18.801  26.332  0.0080 -0.1870 -0.1065
13192W        W56104  33.414  20.793  27.108 -0.0654  0.3680 -0.1796
13193W        W56105   2.519  19.755  26.315 -0.0716  0.1258 -0.0188
13194W        W56106   2.608  19.219  23.714  0.0271  0.2122  0.3031
13195W        W56107   4.285  19.424  27.133  0.2187 -0.0062  0.0426
13196W        W56108   0.809  20.639  26.520 -0.3120  0.1235 -0.1607
13197W        W56109   0.932  19.983  24.074  0.0878  0.2069  0.2723
13198W        W56110   1.966  19.532  24.402  0.0871 -0.1846  0.4230
13199W        W56111   1.222  20.943  26.316 -0.1355 -0.0546  0.3062
13200W        W56112   0.956  20.870  24.651 -0.1101  0.0219  0.2130
13201W        W56113   1.596  21.418  25.077 -0.2991 -0.3185  0.1545
13202W        W56114   1.435  19.611  24.978 -0.0361  0.1679 -0.0277
13203W        W56115   1.373  20.887  24.208  0.1037  0.0725 -0.2527
13204W        W56116   0.854  19.427  27.848  0.1749  0.0691 -0.0671
13205W        W56117   2.977  19.133  26.460  0.0889 -0.2067 -0.4795
13206W        W56118   1.589  19.689  24.110  0.0579 -0.3801  0.3470
13207W        W56119   1.274  17.774  24.722 -0.1770  0.0375 -0.0352
13208W        W56120   0.500  19.254  24.996  0.6148  0.2550  0.1248
13209W        W56121   2.939  20.078  25.614 -0.0605  0.0544  0.1559
13210W        W56122   1.021  20.073  25.922 -0.0105  0.3017 -0.4766
13211W        W56123   0.574  21.050  28.051 -0.2733  0.5183  0.3561
13212W        W56124   1.684  18.354  26.090 -0.1661  0.0351 -0.1827
13213W        W56125   3.378  20.613  23.943  0.2122 -0.1908  0.0301
13214W        W56126   1.918  19.787  27.072 -0.2005 -0.0869  0.0281
13215W        W56127   1.027  19.967  22.372 -0.0954  0.0401 -0.0936
13216W        W56128   0.309  20.742  26.050  0.0556  0.3501 -0.0591
13217W        W56129   0.490  21.355  24.109 -0.0803  0.0938  0.3755
13218W        W56130   2.594  19.297  26.084 -0.1753 -0.0951  0.3216
13219W        W56131   0.815  22.201  25.249 -0.2116  0.1676  0.2035
13220W        W56132   0.952  22.796  22.861 -0.0522 -0.0780 -0.0496
13221W        W56133   0.743  20.175  26.334 -0.2129  0.1479 -0.2032
13222W        W56134   3.191  18.551  23.452 -0.2245  0.2027 -0.0254
13223W        W56135   3.049  20.368  25.216 -0.0118  0.0327 -0.0883
13224W        W56136   1.141  19.484  24.049 -0.0834  0.0303 -0.1015
13225W        W56137   3.362  18.562  28.274  0.1203 -0.1412  0.0649
13226W        W56138   4.458  20.349  24.792 -0.1291 -0.3329 -0.0885
13227W        W56139   3.808  18.688  28.134 -0.1233 -0.2509  0.1187
13228W        W56140   1.397  18.014  25.847 -0.3251  0.1057 -0.2632
13229W        W56141   4.530  21.314  26.172  0.0626  0.2949  0.1441
13230W        W56142   0.480  19.517  25.458  0.0964  0.0384  0.0549
13231W        W56143   0.344  22.165  27.446 -0.0350 -0.2030 -0.1409
13232W        W56144  34.383  22.024  27.820 -0.0948  0.1945 -0.1527
13233W        W56145   1.747  19.812  23.654 -0.2065  0.0279 -0.1195
13234W        W56146   0.829  19.392  23.144  0.3492 -0.1356 -0.4238
13235W        W56147   1.740  21.104  26.440  0.2455  0.0173 -0.1629
13236W        W56148   3.386  20.361  25.791 -0.0399 -0.0894 -0.0192
13237W        W56149   1.794  21.382  23.704 -0.0186  0.0393 -0.2352
13238W        W56150   3.860  19.836  25.268 -0.0376  0.0641  0.2717
13239W        W56151   1.147  21.422  26.268  0.1440  0.3339  0.0510
13240W        W56152   2.075  20.530  24.848 -0.0805  0.1234  0.0220
13241W        W56153   1.778  21.168  24.319  0.3487  0.0405  0.1508
13242W        W56154   2.529  21.040  25.675 -0.2620  0.0064 -0.0188
13243W        W56155   0.186  18.960  26.845  0.0370  0.1849  0.1532
13244W        W56156   3.040  20.194  26.174 -0.1699 -0.0179 -0.1830
13245W        W56157   2.340  19.255  25.381  0.0444  0.2035  0.0395
13246W        W56158   2.684  19.341  27.524  0.0692 -0.1738  0.2082
13247W        W56159   2.054  20.187  26.550 -0.1561 -0.1533  0.2939
13248W        W56160   1.594  20.367  25.116 -0.2443 -0.1440  0.1165
13249W        W56161   0.929  19.050  27.413 -0.2082 -0.2792 -0.0754
13250W        W56162   1.459  21.821  26.592 -0.3352 -0.2192 -0.2157
13251W        W56163   2.857  19.951  22.750 -0.1426  0.0726  0.3038
13252W        W56164   3.640  18.143  25.646 -0.1448 -0.0898  0.1923
13253W        W56165   2.395  19.736  25.809 -0.0659  0.1081 -0.1099
13254W        W56166   3.821  20.410  25.454  0.1281  0.0846 -0.2599
13255W        W56167   0.250  19.129  25.552 -0.0938 -0.1819  0.1115
13256W        W56168   2.389  20.414  27.466 -0.1452  0.1124  0.0937
13257W        W56169   0.423  19.716  24.019 -0.0251 -0.0293 -0.3778
13258W        W56170   2.184  20.311  27.977  0.0862  0.0421 -0.0371
13259W        W56171   2.043  22.002  24.655  0.0777  0.3003 -0.0710
13260W        W56172   3.297  21.873  23.675  0.1641  0.2200  0.3988
13261W        W56173   2.053  19.902  24.047 -0.1887  0.1958 -0.2263
13262W        W56174   0.529  19.485  26.903  0.1723  0.0132 -0.0719
13263W        W56175   1.557  22.642  26.902  0.1182  0.2067  0.0979
13264W        W56176   0.796  19.544  23.704 -0.0259  0.3324  0.0240
13265W        W56177   0.792  21.621  24.587 -0.1021  0.2259  0.2516
13266W        W56178   1.837  21.444  27.288 -0.1482  0.1386 -0.1136
13267W        W56179   2.517  21.088  27.391 -0.2023 -0.0301 -0.3055
13268W        W56180   1.016  18.537  22.753  0.2478  0.0879 -0.0510
13269W        W56181   3.444  20.843  27.549  0.3103 -0.2009 -0.0342
13270W        W56182  33.784  21.854  23.877 -0.0009 -0.0185  0.0011
13271W        W56183   3.437  18.647  25.802  0.0044 -0.4889  0.4136
13272W        W56184   0.282  22.229  25.098 -0.0067  0.1506  0.3425
13273W        W56185  34.412  21.341  27.965  0.1421  0.1483  0.0032
13274W        W56186   0.871  21.919  25.917  0.3365  0.0741 -0.2890
13275W        W56187   2.047  18.488  25.717  0.0601 -0.2668  0.1563
13276W        W56188   3.857  20.254  26.010  0.0079  0.1586 -0.1183
13277W        W56189   0.739  21.091  26.195 -0.2219  0.1862  0.0858
13278W        W56190   2.089  19.609  26.520 -0.0855  0.0767  0.2903
13279W        W56191   1.878  20.220  27.389 -0.0648  0.0014 -0.1631
13280W        W56192   1.277  19.893  24.387  0.2154  0.0177 -0.0751
13281W        W56193   2.466  22.367  25.916  0.2975 -0.1404  0.0034
13282W        W56194   3.976  21.352  24.628  0.1795 -0.2945 -0.0113
13283W        W56195  34.620  20.921  25.171  0.0615 -0.1522 -0.3597
13284W        W56196  33.792  19.639  29.523 -0.3686 -0.1728 -0.3404
13285W        W56197   1.604  19.470  26.128 -0.0729 -0.3661  0.0301
13286W        W56198   2.839  21.558  24.719  0.1197  0.0192 -0.0631
13287W        W56199   0.432  17.732  24.754  0.1152 -0.3677 -0.2750
13288W        W56200   2.249  21.584  23.013 -0.5178  0.1926 -0.0314
13289W        W56201   0.937  21.810  27.391 -0.3129  0.0411  0.0494
13290W        W56202   1.047  20.632  27.398  0.0013 -0.0301 -0.2755
13291W        W56203  34.683  22.670  25.196  0.3299 -0.2091 -0.1044
13292W        W56204   2.965  20.582  24.758 -0.0137  0.1880 -0.0720
13293W        W56205   3.271  21.438  24.930 -0.2639 -0.0926  0.1920
13294W        W56206   1.946  22.968  27.092  0.1059 -0.0726 -0.0906
13295W        W56207   2.488  20.340  23.486  0.3686 -0.0789 -0.0510
13296W        W56208  34.695  21.575  26.238  0.0512 -0.1401  0.1467
13297W        W56209   0.298  22.184  23.846  0.1150 -0.0144 -0.0968
13298W        W56210   2.536  20.859  24.969 -0.0351  0.2003 -0.1388
13299W        W56211   0.027  22.982  25.991  0.1007  0.1341 -0.0544
13300W        W56212   2.057  20.782  26.670 -0.0719 -0.2214 -0.0134
13301W        W56213   2.976  19.613  23.693  0.1199 -0.0881  0.0985
13302W        W56214   2.028  20.731  25.662 -0.1005 -0.2904 -0.0054
13303W        W56215   3.882  19.134  24.678 -0.1214 -0.1454  0.0269
13304W        W56216   2.179  21.793  27.227  0.2656  0.1966  0.1030
13305W        W56217   2.529  20.960  26.415  0.0608 -0.2085  0.2376
13306W        W56218   0.963  18.330  24.636 -0.1377  0.0027 -0.1149
13307W        W56219   1.174  19.781  26.381  0.1227 -0.0876  0.1862
13308W        W56220   2.222  19.004  27.622 -0.2293  0.0931  0.1115
13309W        W56221   0.594  21.301  26.652 -0.0113  0.1829 -0.4666
13310W        W56222   3.587  21.562  22.782  0.0604 -0.2479 -0.0252
13311W        W56223   0.873  20.357  24.628  0.2140  0.0774 -0.3972
13312W        W56224   1.620  21.386  26.051 -0.0142 -0.1662  0.1068
13313W        W56225   2.693  18.804  26.739 -0.1099  0.0027  0.2859
13314W        W56226   1.869  20.377  22.678 -0.1828 -0.1285  0.1213
13315W        W56227   1.850  18.949  25.936 -0.2504  0.0746  0.4821
13316W        W56228  34.661  21.220  23.503  0.1079  0.0853 -0.3424
13317W        W56229   0.223  21.336  25.861 -0.3310  0.0356  0.0345
13318W        W56230   0.590  22.360  25.722 -0.0985  0.1135 -0.0635
13319W        W56231  34.140  20.638  25.084  0.2771 -0.1107  0.1145
13320W        W56232   4.746  21.508  23.928 -0.0619 -0.1566 -0.0007
13321W        W56233   1.902  18.191  26.949  0.1678 -0.1191  0.0582
13322W        W56234   4.697  18.524  27.985  0.2683 -0.1146 -0.2346
13323W        W56235   1.807  20.696  24.450  0.0196 -0.2130 -0.0635
13324W        W56236   3.178  19.691  25.513 -0.1367 -0.3158 -0.1803
13325W        W56237   1.633  20.633  26.425  0.0793  0.4817 -0.2744
13326W        W56238   0.851  19.886  25.480  0.0112 -0.0973  0.0969
13327W        W56239   3.122  20.942  24.205 -0.0561 -0.0097  0.1993
13328W        W56240   2.902  20.590  25.824 -0.0645  0.2156 -0.1236
13329W        W56241   2.108  19.864  23.239 -0.2238  0.3255  0.2216
13330W        W56242   1.434  23.059  25.901  0.1049 -0.2403  0.0047
13331W        W56243   1.682  17.642  24.955 -0.2274 -0.2529 -0.0915
13332W        W56244   2.977  18.103  24.129  0.1637  0.2549 -0.2369
13333W        W56245   0.538  19.178  24.523  0.1811 -0.1735 -0.5232
13334W        W56246   1.827  20.190  25.701  0.1657 -0.2370  0.3691
13335W        W56247   3.027  21.136  26.310  0.2488 -0.0052 -0.1617
13336W        W56248  34.444  18.939  24.626  0.0926 -0.1202  0.1429
13337W        W56249   4.294  21.258  22.901  0.2955  0.3065 -0.0315
13338W        W56250   2.389  18.938  25.751 -0.0783  0.0117 -0.4506
13339W        W56251   2.046  22.806  24.624  0.1168  0.0137 -0.2695
13340W        W56252   3.538  18.773  22.806 -0.3637 -0.1809 -0.0374
13341W        W56253   2.504  22.279  27.720 -0.4029  0.2393 -0.1218
13342W        W56254  34.521  18.684  26.526 -0.2110  0.3262 -0.2805
13343W        W56255   1.997  22.239  27.570 -0.0495 -0.2084  0.1099
13344W        W56256   3.080  21.756  27.142  0.2177  0.0552  0.3621
13345W        W56257   0.645  18.637  24.915 -0.2591  0.0258 -0.2066
13346W        W56258   0.250  21.151  26.352 -0.0808 -0.3446  0.3871
13347W        W56259   1.106  21.762  24.158 -0.2338 -0.0527 -0.2515
13348W        W56260   4.619  18.915  24.977 -0.2944  0.0003  0.5467
13349W        W56261   3.192  20.000  27.368 -0.0286  0.4876 -0.0821
13350W        W56262   1.982  21.108  21.874  0.1858  0.2313  0.1539
13351W        W56263   2.457  19.294  26.673  0.3611  0.2456 -0.0073
13352W        W56264   2.826  22.092  26.800  0.0721  0.1470  0.2378
13353W        W56265   1.422  21.961  27.874  0.0293 -0.0278 -0.1751
13354W        W56266   0.340  18.919  23.011 -0.0972 -0.2601 -0.2180
13355W        W56267   1.714  20.401  26.943 -0.0462 -0.2285 -0.1584
13356W        W56268   1.570  22.704  23.737  0.2307  0.2684 -0.0225
13357W        W56269   1.123  21.725  24.992  0.0534  0.1026  0.1486
13358W        W56270   1.428  23.548  25.725  0.1454  0.0118 -0.1395
13359W        W56271   1.113  20.603  25.009  0.0931 -0.0315  0.0938
13360W        W56272   3.685  21.260  25.166  0.0909 -0.1632 -0.1359
13361W        W56273   1.445  19.387  23.621 -0.0089 -0.1416 -0.4273
13362W        W56274   3.245  18.234  24.811 -0.1336 -0.2347 -0.1389
13363W        W56275   2.523  19.766  23.690  0.0047  0.0614 -0.3640
13364W        W56276   2.094  20.988  26.122 -0.0984  0.3051  0.0385
13365W        W56277  34.507  19.555  24.285  0.4014  0.0120 -0.0107
13366W        W56278   0.316  18.306  22.417 -0.1583  0.0681  0.1417
13367W        W56279   1.104  21.074  25.849 -0.1670 -0.0665  0.2179
13368W        W56280   1.790  18.768  28.297 -0.1817 -0.1745 -0.0539
13369W        W56281  34.578  19.210  25.895 -0.2852 -0.0974  0.2337
13370W        W56282   0.550  19.696  26.462 -0.1623 -0.0281 -0.3301
13371W        W56283   1.130  19.217  26.284 -0.0075 -0.2577 -0.0316
13372W        W56284   2.833  21.779  25.398 -0.1455 -0.1763  0.0618
13373W        W56285   1.456  18.806  26.281 -0.0798  0.3254 -0.1470
13374W        W56286   0.086  18.333  25.775 -0.3195 -0.1796 -0.2434
13375W        W56287   3.599  21.485  23.555  0.0530  0.2369 -0.1382
13376W        W56288   4.116  20.705  24.515 -0.0800 -0.0426  0.2128
13377W        W56289   1.477  18.606  24.700  0.3992  0.0445  0.0627
13378W        W56290   2.456  21.359  26.058 -0.0263 -0.0053  0.3755
13379W        W56291   0.491  20.150  24.414 -0.0246 -0.0476  0.2326
13380W        W56292   1.986  19.269  26.871 -0.1955 -0.1099  0.2142
13381W        W56293   1.435  20.003  26.758 -0.0696 -0.1602 -0.0567
13382W        W56294  33.975  18.578  23.444  0.0339  0.1619 -0.1725
13383W        W56295   2.192  19.708  25.337 -0.0389 -0.1337 -0.4022
13384W        W56296   2.379  21.612  25.601  0.0418 -0.1569 -0.2044
13385W        W56297   1.900  21.612  22.326 -0.3603 -0.1022 -0.0409
13386W        W56298   0.629  21.998  27.844 -0.0495 -0.0615 -0.0835
13387W        W56299   2.476  22.192  27.194 -0.3478  0.0234  0.0932
13388W        W56300   1.418  19.204  25.742 -0.1829 -0.1271  0.0104
13389W        W56301   3.861  20.891  24.130  0.2187 -0.0434  0.1388
13390W        W56302   1.666  20.187  27.866  0.0938 -0.1172 -0.3862
13391W        W56303   2.876  19.734  25.903 -0.0088  0.0191 -0.1577
13392W        W56304   3.859  19.318  25.127  0.1992  0.0205 -0.1223
13393W        W56305   2.834  22.053  24.439 -0.0124  0.0347  0.0856
13394W        W56306   0.689  18.074  27.445 -0.0738 -0.1104  0.5031
13395W        W56307   1.235  21.057  27.332 -0.2272  0.0258  0.1086
13396W        W56308   2.545  20.477  26.612  0.2042  0.0527 -0.4056
13397W        W56309   1.723  17.897  24.519  0.2792 -0.0571 -0.0917
13398W        W56310   2.716  18.715  23.616  0.1690 -0.0543 -0.4570
13399W        W56311   1.938  22.775  23.276 -0.1285  0.2575  0.0119
13400W        W56312  34.175  19.335  27.252 -0.1003  0.1730 -0.0038
13401W        W56313   1.217  18.969  24.015 -0.0592 -0.0830 -0.1555
13402W        W56314   1.015  19.491  26.788  0.1474  0.2501 -0.4003
13403W        W56315   1.620  22.078  26.018  0.1138  0.2580 -0.1954
13404W        W56316   2.790  21.074  26.782  0.0061  0.1675 -0.1328
13405W        W56317   1.028  19.119  23.568 -0.0684 -0.1887  0.1199
13406W        W56318   4.331  20.805  25.139 -0.0831  0.0699  0.0073
13407W        W56319   2.173  23.214  25.605 -0.1030 -0.3254 -0.0423
13408W        W56320   4.644  21.847  26.249  0.2627 -0.0400  0.1466
13409W        W56321   1.137  22.106  26.955  0.2842  0.0071 -0.2444
13410W        W56322   2.474  19.453  24.917  0.2566 -0.2928  0.2199
13411W        W56323   0.380  18.628  25.531 -0.0559 -0.2588  0.2868
13412W        W56324   1.798  19.980  24.540 -0.0125  0.1636  0.0071
13413W        W56325   2.820  19.861  24.756 -0.1330 -0.2545 -0.0258
13414W        W56326   4.462  20.226  25.882 -0.1003 -0.0413 -0.2144
13415W        W56327   1.331  19.628  25.467  0.1337  0.0764 -0.2614
13416W        W56328   1.819  18.922  24.551  0.1338 -0.3794 -0.1318
13417W        W56329   2.525  23.432  26.990 -0.0306 -0.0382 -0.0580
13418W        W56330   2.911  20.831  25.354 -0.0552  0.2719  0.1684
13419W        W56331   0.828  20.657  31.215  0.0664 -0.0387 -0.2212
13420W        W56332  34.603  20.425  29.040 -0.1792 -0.0217 -0.1215
13421W        W56333   3.202  18.743  26.700 -0.1530  0.5019 -0.0372
13422W        W56334   3.021  19.371  28.413 -0.1973 -0.0282 -0.0164
13423W        W56335  34.672  19.322  29.504 -0.2212  0.0373 -0.1036
13424W        W56336   4.351  21.993  28.132  0.0430  0.1316 -0.0260
13425W        W56337   1.576  19.348  30.135 -0.1266  0.1463 -0.2088
13426W        W56338   3.627  20.917  29.999  0.0643  0.2860 -0.1130
13427W        W56339   2.622  21.136  30.151 -0.1186 -0.3180  0.4572
13428W        W56340   1.399  20.255  27.303  0.0040  0.3187  0.0903
13429W        W56341   1.803  20.184  29.631  0.1699 -0.0766  0.2012
13430W        W56342   1.384  21.147   0.073 -0.1839  0.1458  0.5129
13431W        W56343   1.483  19.228  28.688  0.2047 -0.1305 -0.1026
13432W        W56344  33.492  18.101  29.757 -0.1329 -0.1331  0.1609
13433W        W56345   3.806  20.208  28.957  0.2918 -0.1362 -0.2116
13434W        W56346   0.775  21.460  27.747  0.2984  0.0835  0.2067
13435W        W56347   2.563  19.783  30.286 -0.0573 -0.0255 -0.1542
13436W        W56348   2.144  19.993  30.403 -0.1670  0.0371 -0.0267
13437W        W56349   1.689  20.726  29.624 -0.1259 -0.2523 -0.0943
13438W        W56350   1.849  19.156  31.147 -0.1218  0.0269 -0.0438
13439W        W56351   1.787  18.237  30.121  0.3978  0.1029  0.3400
13440W        W56352   0.954  21.962  29.186  0.1050  0.0771 -0.0891
13441W        W56353   0.640  19.909  27.780  0.1329  0.2009 -0.1516
13442W        W56354  33.867  19.773  28.907 -0.0148 -0.3580 -0.0463
13443W        W56355   1.120  19.631  30.076 -0.2853  0.0512  0.1040
13444W        W56356   4.137  18.132  29.310  0.0743  0.0363 -0.1450
13445W        W56357   2.089  20.065  28.815  0.1278 -0.2214 -0.1285
13446W        W56358   2.317  21.416  29.107 -0.0717  0.0474  0.2193
13447W        W56359   2.529  20.441  28.997 -0.1760  0.0859 -0.2649
13448W        W56360   1.304  18.741  30.844 -0.0728  0.3073  0.4265
13449W        W56361  34.423  20.766  28.660 -0.0840  0.1909  0.1361
13450W        W56362   0.311  20.789  30.922  0.1221  0.1173  0.2447
13451W        W56363   1.506  22.375  28.458 -0.3548  0.1675 -0.1069
13452W        W56364   3.554  20.327  30.691  0.2526  0.1791  0.0120
13453W        W56365   3.935  21.671  30.674 -0.1547 -0.2578  0.2152
13454W        W56366   0.019  22.768  31.410  0.2583 -0.2989 -0.1619
13455W        W56367   2.221  21.239  26.992 -0.0567  0.0394  0.1200
13456W        W56368   2.365  20.937  30.993  0.0568  0.0634 -0.1105
13457W        W56369   1.482  22.087  31.195  0.0353 -0.1351 -0.1445
13458W        W56370   2.869  19.722  30.852  0.1132 -0.2908 -0.1844
13459W        W56371   1.400  20.344  29.350  0.3624  0.2130  0.1596
13460W        W56372   1.954  21.013  28.201  0.1397 -0.0593  0.0627
13461W        W56373   0.987  20.933  28.675  0.5101 -0.0027  0.0723
13462W        W56374   2.885  21.078  31.102 -0.1599 -0.0752 -0.0918
13463W        W56375   1.182  20.237  31.513  0.3146  0.2341 -0.3641
13464W        W56376   3.016  19.308  30.500  0.0949  0.2323 -0.1095
13465W        W56377   0.490  20.996  28.557  0.1481  0.1059  0.0377
13466W        W56378   2.641  19.241  28.716  0.1115  0.1429  0.3903
13467W        W56379   1.478  19.387  27.116 -0.0495  0.1611  0.0143
13468W        W56380   2.878  19.847  28.250 -0.0808 -0.1371 -0.1950
13469W        W56381   2.041  19.533  29.189  0.1558 -0.4148  0.1755
13470W        W56382   1.154  21.434  29.836  0.1634 -0.2380 -0.0070
13471W        W56383   2.082  18.548  29.529 -0.0797  0.0880  0.0732
13472W        W56384   2.908  22.085  30.308 -0.4141  0.0623 -0.2199
13473W        W56385   2.335  19.960  29.233  0.1552 -0.5364  0.2241
13474W        W56386   2.286  19.381  30.675  0.0197 -0.2423  0.2382
13475W        W56387   1.520  21.396  31.538 -0.0758  0.1054 -0.2305
13476W        W56388   0.199  20.997  30.274  0.0382 -0.2583  0.1301
13477W        W56389   3.585  21.288  27.432  0.3870  0.0261  0.2383
13478W        W56390   4.388  21.117  27.905  0.3796  0.1726 -0.1968
13479W        W56391   1.298  21.512  27.558  0.0232 -0.0585 -0.0152
13480W        W56392   0.082  20.160  30.479 -0.2205 -0.1022 -0.0970
13481W        W56393  33.055  19.891  31.789  0.0608 -0.0737  0.4749
13482W        W56394  34.488  19.688  30.501 -0.0886  0.2868 -0.0251
13483W        W56395   0.107  18.634  27.238 -0.0541  0.0838 -0.0624
13484W        W56396   3.029  21.612  30.880 -0.1359  0.0483 -0.2381
13485W        W56397   0.984  20.613  30.178 -0.2000  0.1498  0.0833
13486W        W56398   5.155  17.589  27.842  0.2388  0.1920 -0.2251
13487W        W56399   1.223  20.744  30.817  0.3219 -0.2660  0.1942
13488W        W56400   2.917  21.388  28.002 -0.1249  0.0977 -0.1301
13489W        W56401   3.264  22.630  27.339  0.0426  0.3716 -0.0044
13490W        W56402   4.386  18.151  29.760  0.6796 -0.2576  0.0736
13491W        W56403   2.280  18.878  30.371  0.1745 -0.0517 -0.2433
13492W        W56404   1.094  21.096  27.826 -0.0512 -0.0824 -0.1332
13493W        W56405   0.370  20.053  30.085 -0.2313 -0.0845  0.0954
13494W        W56406   3.274  20.463  31.437  0.2975  0.0315  0.2960
13495W        W56407   4.535  19.442  29.091 -0.1049 -0.2763  0.0720
13496W        W56408   1.056  22.173  30.936  0.2480  0.0497 -0.0830
13497W        W56409   0.582  19.355  31.306  0.3611 -0.3229 -0.2368
13498W        W56410   0.347  22.230  30.538  0.3647 -0.2211 -0.2545
13499W        W56411   1.659  21.910  27.340 -0.1127 -0.1541  0.3864
13500W        W56412  34.213  20.839  29.663 -0.0024 -0.1355  0.0470
13501W        W56413   0.743  22.401  29.348 -0.1500  0.2077  0.1140
13502W        W56414   0.733  18.082  29.117  0.0351 -0.1445 -0.1405
13503W        W56415   1.430  21.850  29.777  0.2510  0.1649  0.2832
13504W        W56416   4.235  18.266  28.511 -0.0775 -0.0021 -0.0852
13505W        W56417   0.407  19.121  30.441  0.0893 -0.0735  0.0689
13506W        W56418   3.293  18.827  29.083  0.2199  0.2931  0.0074
13507W        W56419   0.910  20.029  28.699 -0.0627 -0.1622  0.0939
13508W        W56420   4.131  22.460  27.034 -0.1033  0.0641 -0.1434
13509W        W56421   3.783  20.592  28.532 -0.0603 -0.1795  0.1043
13510W        W56422   2.265  21.314  27.733 -0.0079  0.1190  0.2727
13511W        W56423   0.384  19.495  30.825  0.2533 -0.0780  0.1569
13512W        W56424   0.001  19.976  29.220  0.1584  0.1162  0.0774
13513W        W56425  34.697  19.201  31.244 -0.0568 -0.0085  0.0653
13514W        W56426   1.405  19.897  29.697  0.1529 -0.1534 -0.0440
13515W        W56427   2.761  19.703  29.661  0.0623  0.0432 -0.3124
13516W        W56428  34.598  19.495  28.123 -0.0750 -0.2455 -0.0729
13517W        W56429   3.769  19.154  28.985 -0.0774 -0.0569 -0.3993
13518W        W56430   2.203  20.522  29.738 -0.2398 -0.0209 -0.1422
13519W        W56431  34.134  22.066  29.714 -0.0580  0.1094  0.0424
13520W        W56432   2.985  19.158  30.996 -0.3275 -0.0006 -0.0413
13521W        W56433   1.463  21.985  28.891 -0.0105  0.2357 -0.1467
13522W        W56434   2.906  21.728  31.836  0.0734  0.0606  0.2833
13523W        W56435   3.330  21.495  28.719 -0.0528  0.0078  0.0387
13524W        W56436   1.553  20.286  31.220 -0.2655  0.1670 -0.0878
13525W        W56437   0.639  19.864  29.083 -0.1430  0.0988  0.3413
13526W        W56438   2.463  22.272  29.371  0.0589  0.0463 -0.0918
13527W        W56439   1.447  21.556  30.263 -0.1961 -0.1336 -0.0116
13528W        W56440   1.796  19.096  27.871  0.0463  0.2398 -0.2146
13529W        W56441   2.870  20.804  28.680 -0.2429  0.0773  0.2550
13530W        W56442   1.751  20.715  29.142  0.2778  0.1582  0.0699
13531W        W56443   2.951  20.038   0.327  0.1289 -0.2911  0.1320
13532W        W56444   3.479  18.074  29.836 -0.0953 -0.2175 -0.2522
13533W        W56445   4.219  20.090  30.348  0.0360  0.0011  0.0600
13534W        W56446   3.513  19.620  27.607 -0.0732 -0.3033  0.3373
13535W        W56447  34.436  20.892  26.895  0.0093  0.0323 -0.0106
13536W        W56448   1.508  21.206  29.000  0.2177 -0.0752  0.0194
13537W        W56449   0.984  21.766  28.125 -0.3593 -0.0158  0.1725
13538W        W56450  33.338  21.860  29.094 -0.3965 -0.2464 -0.1407
13539W        W56451   2.538  22.848  29.107  0.2721  0.0258 -0.1898
13540W        W56452   4.292  18.549  30.102  0.0826 -0.3229  0.0148
13541W        W56453  33.329  20.728  31.178 -0.0922  0.4094 -0.0341
13542W        W56454   3.371  19.080  29.698 -0.2033 -0.2074 -0.1328
13543W        W56455   0.245  19.501  27.702 -0.2406  0.0102 -0.1237
13544W        W56456   0.556  20.777  31.652  0.0811 -0.2085 -0.2431
13545W        W56457   1.868  18.590  27.816  0.0608  0.0424  0.1925
13546W        W56458   3.211  20.118  28.968  0.2262  0.1370 -0.0007
13547W        W56459   2.175  20.327  31.206 -0.0118  0.2688 -0.1098
13548W        W56460   4.143  22.110  27.610  0.1683  0.1955  0.3484
13549W        W56461   2.274  18.920  28.086 -0.2943 -0.1563  0.2216
13550W        W56462   1.241  18.768  27.131 -0.0895  0.0108 -0.0065
13551W        W56463  33.207  19.206  31.058 -0.0280  0.4279  0.1154
13552W        W56464   2.172  20.405  29.299 -0.0637 -0.0241 -0.1045
13553W        W56465   3.278  21.045  28.984 -0.1357  0.2302 -0.2119
13554W        W56466   1.157  20.448  28.569 -0.1818 -0.0936 -0.0853
13555W        W56467   5.254  20.896  27.932  0.0071  0.0076  0.4046
13556W        W56468  33.878  19.655  31.327  0.1695 -0.3789  0.1089
13557W        W56469   1.362  20.400  30.491 -0.1141 -0.0839  0.0693
13558W        W56470   2.136  20.989  29.330 -0.0516 -0.2285  0.3491
13559W        W56471   1.631  18.547  29.169 -0.1100 -0.1533  0.1087
13560W        W56472   0.901  20.165  28.171  0.4968 -0.1033  0.1625
13561W        W56473   3.556  19.902  29.423 -0.1389 -0.0718  0.2167
13562W        W56474   1.071  22.277  28.080  0.1476  0.0994  0.2064
13563W        W56475   3.125  19.485  29.956  0.2062 -0.0095 -0.0413
13564W        W56476   2.830  18.997  29.221  0.1547  0.0860 -0.1510
13565W        W56477   2.507  18.591  28.879 -0.2068 -0.2737 -0.1223
13566W        W56478   2.275  19.450  31.220 -0.0897 -0.1039  0.0426
13567W        W56479   3.172  20.620  27.870 -0.3054  0.0211  0.1267
13568W        W56480   3.019  19.686  28.749 -0.2726 -0.1095  0.2555
13569W        W56481   1.750  19.982  29.166  0.1986 -0.1866  0.1567
13570W        W56482   2.849  18.905  31.393  0.1620 -0.1206  0.0768
13571W        W56483  33.941  19.614  30.724 -0.4522  0.0620 -0.0645
13572W        W56484   0.889  22.063  29.701 -0.2550  0.3340 -0.1279
13573W        W56485   3.580  20.147  31.691  0.5028  0.3407 -0.0423
13574W        W56486   3.275  21.121  27.947 -0.0061  0.2748  0.0455
13575W        W56487   1.414  18.231  30.526 -0.2904  0.1896 -0.0823
13576W        W56488   1.367  18.700  28.711  0.2175  0.1490  0.1486
13577W        W56489   0.924  22.550  28.537 -0.1269 -0.4274 -0.0197
13578W        W56490   0.235  21.640  29.575 -0.0318 -0.5006  0.0970
13579W        W56491   0.747  19.499  30.489  0.0817  0.1486 -0.0290
13580W        W56492   2.620  20.780  29.437  0.2886  0.1454  0.0074
13581W        W56493   0.313  21.346  27.145 -0.2931  0.1565  0.0479
13582W        W56494   3.185  20.169  29.483 -0.0794 -0.2292 -0.2648
13583W        W56495   0.435  21.439  30.392 -0.1439  0.1473  0.1713
13584W        W56496   3.957  18.121  30.112  0.1629 -0.2210  0.0120
13585W        W56497   0.047  21.779  30.514 -0.1227 -0.0319  0.0962
13586W        W56498   0.774  20.548  27.783 -0.0867 -0.1214  0.1354
13587W        W56499   0.045  19.986  28.148 -0.2121  0.2837 -0.1398
13588W        W56500   2.161  19.501  28.685  0.1348  0.2241  0.1381
13589W        W56501   4.122  20.259  28.181  0.2085 -0.3515 -0.0986
13590W        W56502   1.698  19.421  29.650 -0.3582 -0.0273  0.1061
13591W        W56503   1.740  18.896  29.491 -0.0290 -0.0372  0.2939
13592W        W56504   1.354  20.564   0.106  0.1900  0.2008  0.1668
13593W        W56505   1.927  20.012  28.272 -0.1063  0.0318 -0.0411
13594W        W56506   4.960  18.874  27.535 -0.0402  0.0560  0.0815
13595W        W56507   1.321  22.282  30.048 -0.0924  0.3031  0.1666
13596W        W56508   0.614  20.302  31.478 -0.3901  0.1449  0.1825
13597W        W56509  34.269  20.861  29.111 -0.0271  0.0166  0.0210
13598W        W56510   3.070  20.107  31.058 -0.0383  0.1361  0.2444
13599W        W56511   2.131  19.365  30.223  0.0271 -0.1230  0.2318
13600W        W56512   0.973  21.375  30.569  0.1159 -0.4480 -0.0317
13601W        W56513   2.500  20.318  30.279  0.0628  0.0964  0.0118
13602W        W56514   2.279  20.465  30.693  0.2072  0.0853 -0.0875
13603W        W56515   0.514  20.548  29.963 -0.0770 -0.0056  0.0430
13604W        W56516   1.641  19.584  31.024  0.3711 -0.3295  0.0534
13605W        W56517   1.833  19.768  30.029  0.1411 -0.1565  0.2161
13606W        W56518   2.340  19.123  29.112 -0.0650 -0.1188 -0.0092
13607W        W56519   1.196  20.764  29.224  0.2086 -0.2878 -0.0750
13608W        W56520   2.297  19.499  29.670 -0.0119 -0.0135 -0.3565
13609W        W56521   2.642  20.143  30.762 -0.3270 -0.0781 -0.0192
13610W        W56522   2.772  20.449  31.312  0.0257 -0.0977  0.1298
13611W        W56523  34.490  19.147   0.700  0.0848  0.0952  0.1547
13612W        W56524   2.196  19.004  28.620  0.1083  0.0372  0.2845
13613W        W56525   3.775  21.158  28.695  0.2593  0.1856  0.0299
13614W        W56526   2.186  19.834  30.875  0.0754 -0.2406  0.1724
13615W        W56527   0.252  20.731  27.696 -0.0907 -0.0350  0.0985
13616W        W56528  33.574  19.417  29.902 -0.1730 -0.2200 -0.3698
13617W        W56529   1.848  21.978  29.209  0.0780 -0.0101 -0.0731
13618W        W56530   2.648  19.281  30.140 -0.0299  0.1831  0.2340
13619W        W56531   0.612  23.477  30.101 -0.1954  0.0441  0.2957
13620W        W56532   1.021  21.321  29.224  0.0062 -0.4477 -0.0724
13621W        W56533  33.217  19.994  30.071 -0.0790 -0.5712 -0.0990
13622W        W56534   3.812  17.233  28.130  0.2790 -0.1541  0.1008
13623W        W56535   1.962  20.522  28.750 -0.1379  0.1024 -0.3582
13624W        W56536   1.839  19.103  30.651 -0.0918  0.0336  0.0227
13625W        W56537   3.674  19.985  31.190  0.1550  0.0268  0.2629
13626W        W56538   2.817  19.002  28.118 -0.1930  0.0962 -0.0871
13627W        W56539   2.313  18.577   0.267  0.0530 -0.1520  0.2290
13628W        W56540   0.940  18.141  29.638 -0.1560 -0.1209  0.3363
13629W        W56541   2.443  20.228  28.418  0.3417  0.2044  0.0405
13630W        W56542   0.927  19.772  31.494 -0.0254 -0.0855  0.0932
13631W        W56543   2.011  22.712   0.503 -0.0044  0.1929 -0.2557
13632W        W56544   1.147  21.107  31.277  0.2971  0.1810 -0.0727
13633W        W56545   1.853  19.269  28.344 -0.1209  0.0998  0.1167
13634W        W56546   1.017  18.240  28.152 -0.1152  0.1350  0.1084
13635W        W56547   1.798  20.287  30.234 -0.1264 -0.2028  0.0086
13636W        W56548   2.405  20.992  28.738 -0.1119  0.0847  0.1393
13637W        W56549   1.386  21.649  29.221  0.1322 -0.0575 -0.1124
13638W        W56550   2.512  19.354  28.235 -0.1637 -0.1255  0.2103
13639W        W56551   0.822  21.699  30.091  0.2269  0.0534 -0.2091
13640W        W56552   3.352  18.811  27.802 -0.2080 -0.2947  0.1931
13641W        W56553   2.151  20.785  27.239  0.2692 -0.0914 -0.1345
13642W        W56554  34.665  20.756  29.905 -0.0641 -0.2698  0.0842
13643W        W56555   1.420  17.745  30.314  0.0506  0.1418  0.1172
13644W        W56556   3.359  20.630  28.772  0.1035 -0.0787  0.1108
13645W        W56557   2.807  18.828  30.119 -0.2766 -0.0319 -0.0326
13646W        W56558   1.792  18.934  31.589  0.1143 -0.2125  0.0705
13647W        W56559   3.809  19.587  30.839 -0.3174 -0.1223 -0.1221
13648W        W56560   2.310  21.067   0.189 -0.0177 -0.0241  0.1550
13649W        W56561   1.249  18.377  30.069 -0.0574 -0.2893  0.1321
13650W        W56562   3.178  20.766  29.513  0.0605  0.0900  0.5861
13651W        W56563   2.992  19.743  27.768  0.0490 -0.1575 -0.1762
13652W        W56564   3.673  17.966  29.221  0.1416  0.1339  0.0811
13653W        W56565   4.119  17.717  28.961  0.1317  0.0825  0.3425
13654W        W56566   3.931  19.996  28.526  0.2859 -0.0419 -0.1475
13655W        W56567  34.560  20.476  30.951 -0.4055 -0.0323  0.2615
13656W        W56568   3.267  20.887   0.077 -0.0200 -0.2846  0.2138
13657W        W56569   1.114  18.877  27.848 -0.0951  0.2012 -0.0582
13658W        W56570   4.092  17.211  30.909  0.1027  0.0925 -0.0434
13659W        W56571   0.573  21.787  28.583  0.0324  0.2901  0.0583
13660W        W56572   4.056  21.253  29.220 -0.0758 -0.2292  0.0811
13661W        W56573   2.433  21.148  28.210 -0.0905  0.0107 -0.0284
13662W        W56574   0.138  20.272  29.680 -0.2283 -0.4175 -0.1230
13663W        W56575   0.552  21.610  31.280  0.1593 -0.4345 -0.0795
13664W        W56576   1.303  19.524  28.183 -0.0177 -0.1254  0.0406
13665W        W56577   2.296  20.708  28.347  0.0795  0.2806 -0.1806
13666W        W56578   3.207  21.466  29.461  0.2110 -0.0785 -0.1430
13667W        W56579   3.644  20.708  31.744  0.2440  0.0216 -0.0741
13668W        W56580   1.716  19.636  27.923  0.0435 -0.0256 -0.2651
13669W        W56581   1.725  18.515  31.945 -0.3240  0.0976 -0.6133
13670W        W56582   0.679  20.869  29.069  0.0373 -0.1999  0.0889
13671W        W56583   3.401  18.968  28.539  0.0021 -0.0628  0.2514
13672W        W56584   0.694  20.915  30.608 -0.1465 -0.0150 -0.0573
13673W        W56585  33.626  19.217  31.353 -0.2405 -0.0860  0.0895
13674W        W56586   0.243  19.614  30.332 -0.1958 -0.2757  0.1778
13675W        W56587   2.731  18.374  30.488  0.3576 -0.1596  0.2170
13676W        W56588   3.801  18.723  29.242 -0.1201 -0.3702  0.1419
13677W        W56589   3.008  20.553  29.119 -0.1030  0.0856  0.0558
13678W        W56590   3.741  19.907  30.380  0.1729 -0.4335  0.1994
13679W        W56591   2.349  21.252   1.139  0.3148  0.3256 -0.2015
13680W        W56592   0.965  19.992  30.470 -0.0799 -0.0491 -0.0545
13681W        W56593   2.920  20.123  30.063 -0.2060  0.0844 -0.1975
13682W        W56594   4.642  20.264  28.894 -0.1487 -0.0590  0.2211
13683W        W56595  34.475  20.660  30.511 -0.0961 -0.0809  0.1749
13684W        W56596   1.358  18.322  31.594  0.0176 -0.0239  0.3076
13685W        W56597   0.503  19.841  31.147 -0.2951  0.1527  0.1586
13686W        W56598   2.675  20.633  27.065 -0.2747 -0.0075 -0.2061
13687W        W56599  34.438  20.380  29.513  0.0742  0.1191  0.1255
13688W        W56600   0.150  20.358  28.525  0.2597  0.0362 -0.0622
13689W        W56601   0.061  21.957  30.990  0.1343 -0.1171  0.0260
13690W        W56602   0.075  19.883  30.879  0.0783  0.1070 -0.1429
13691W        W56603   1.353  22.891  28.850  0.1391  0.0555  0.1042
13692W        W56604   1.169  19.843  27.824 -0.1416  0.1162  0.2244
13693W        W56605   2.597  21.691  27.539 -0.2209  0.0730 -0.1342
13694W        W56606   3.320  21.710  30.318  0.0492  0.1811  0.1702
13695W        W56607   0.577  18.858  27.799 -0.1038  0.1852  0.0013
13696W        W56608   1.831  21.621  28.826 -0.1736  0.2286  0.2019
13697W        W56609   0.889  21.370  28.340  0.1421  0.1166 -0.0342
13698W        W56610   3.496  22.178  27.816 -0.3380 -0.0237 -0.0540
13699W        W56611   0.379  20.551  30.508  0.3613  0.3086  0.1185
13700W        W56612   2.684  20.652  29.954  0.0304 -0.0298 -0.0323
13701W        W56613   4.293  18.606  27.672  0.1320 -0.1441  0.1061
13702W        W56614   3.621  19.477  28.552 -0.0664  0.2111  0.4508
13703W        W56615   5.109  19.822  27.805  0.0973  0.0589  0.0675
13704W        W56616   1.023  22.644   0.875  0.1988  0.1633  0.1084
13705W        W56617   3.144  19.621  29.330  0.3527  0.1743 -0.1281
13706W        W56618   2.157  18.686  26.880  0.1567 -0.2038  0.2433
13707W        W56619   1.831  20.297  30.728 -0.0019 -0.3558 -0.4057
13708W        W56620   3.667  17.194  31.256 -0.0992  0.2209 -0.3123
13709W        W56621   1.049  22.692  30.964  0.2063 -0.0399 -0.1826
13710W        W56622   4.274  22.899  27.213  0.0190 -0.1517 -0.0163
13711W        W56623   0.409  19.994  28.678 -0.0699 -0.0830  0.2087
13712W        W56624   1.944  21.094  28.828 -0.0433 -0.3243  0.0498
13713W        W56625   4.704  17.918  30.082 -0.1822  0.0528  0.0219
13714W        W56626   1.962  21.519  28.175 -0.2142 -0.3324 -0.3491
13715W        W56627   3.475  18.575  30.599 -0.1842 -0.2513 -0.0544
13716W        W56628   0.138  20.873  28.937  0.2111 -0.0465  0.0779
13717W        W56629   1.643  21.376  29.866  0.1284  0.0091 -0.0054
13718W        W56630   1.139  22.436  30.522 -0.5033  0.0620  0.0117
13719W        W56631   0.359  19.794  29.619 -0.2188  0.0280 -0.2501
13720W        W56632   3.861  17.681  28.314 -0.1658  0.2064  0.0379
13721W        W56633   0.846  20.456  30.704  0.1986 -0.1648  0.1863
13722W        W56634   3.422  18.070  30.334  0.2723 -0.2164  0.2556
13723W        W56635   0.934  20.406  29.019  0.3036 -0.1045  0.0751
13724W        W56636   3.528  17.521  27.190  0.3467  0.0905 -0.0453
13725W        W56637   3.663  20.396  29.704  0.1572 -0.5111  0.0644
13726W        W56638   0.498  20.007  30.674  0.1977  0.0085  0.1221
13727W        W56639   0.391  19.341  28.223 -0.3334 -0.1139  0.2113
13728W        W56640   3.971  19.120  30.945  0.0374 -0.2255 -0.0809
13729W        W56641   1.817  20.532  28.234 -0.2437  0.2163 -0.2460
13730W        W56642   3.128  21.955   0.233 -0.1156  0.1383 -0.2355
13731W        W56643  34.265  20.218  30.438  0.4518  0.0433 -0.2728
13732W        W56644   0.997  20.132  29.971  0.0919  0.2690 -0.1240
13733W        W56645   1.544  19.821  27.486 -0.1106  0.0094  0.3368
13734W        W56646   2.750  20.343  29.588  0.1030  0.1578 -0.1795
13735W        W56647   3.151  20.637  30.913  0.3433  0.3210  0.0840
13736W        W56648   0.339  18.442  29.046  0.1283 -0.2019 -0.1126
13737W        W56649   2.214  20.300  27.001 -0.0589  0.0524  0.2994
13738W        W56650   4.319  20.413  29.839 -0.3134  0.3889  0.3971
13739W        W56651   1.130  22.242  27.596  0.2034  0.1925  0.2793
13740W        W56652   3.817  20.809  29.034 -0.0720 -0.1932 -0.0131
13741W        W56653   3.100  21.289  30.049  0.3244  0.2022  0.0685
13742W        W56654   1.246  19.330  29.620  0.1750 -0.1207  0.0853
13743W        W56655   2.823  21.617  28.835  0.0105  0.0435 -0.1831
13744W        W56656   3.371  22.231  30.168  0.1568 -0.1633 -0.1163
13745W        W56657   1.876  19.167  28.960  0.3030  0.2279  0.1422
13746W        W56658   0.672  20.190  29.557 -0.1189  0.1538  0.0050
13747W        W56659   0.472  21.608  28.096 -0.0898  0.2639  0.1478
13748W        W56660   3.831  18.643  31.009  0.2244 -0.0535  0.2909
13749W        W56661   3.662  17.666  31.048 -0.0196  0.0584  0.2613
13750W        W56662   1.240  20.513  27.938 -0.0596 -0.0259  0.0415
13751W        W56663   4.543  17.661  29.206  0.7133  0.0769 -0.0065
13752W        W56664   2.081  21.526  30.090 -0.3537 -0.1850 -0.0173
13753W        W56665  34.684  22.229  31.432  0.2544  0.1906 -0.2947
13754W        W56666  34.602  21.756  28.224  0.0698 -0.0760 -0.0013
13755W        W56667   0.331  20.910   0.215  0.4898 -0.0010 -0.3641
13756W        W56668   1.623  21.228  28.501  0.1255 -0.3432  0.2202
13757W        W56669   2.121  22.337  29.711 -0.0122  0.0427 -0.5898
13758W        W56670   2.435  22.135  28.259 -0.0847 -0.1539 -0.1028
13759W        W56671   2.796  19.985  29.178 -0.2091  0.1027  0.0272
13760W        W56672   3.229  20.558  29.943 -0.1212 -0.0214 -0.0326
13761W        W56673   1.318  19.004  29.131 -0.2485  0.2480  0.1273
13762W        W56674   5.160  16.956  29.962 -0.2439  0.2754 -0.1980
13763W        W56675   4.252  17.789  28.025 -0.1763 -0.0978 -0.2327
13764W        W56676  34.573  20.785  31.712  0.0823  0.0046 -0.2832
13765W        W56677   1.120  19.926  29.252 -0.1207 -0.0595  0.1457
13766W        W56678   1.347  20.893  28.271  0.0061 -0.1813 -0.3538
13767W        W56679   1.690  20.776  30.246 -0.1913  0.1370 -0.2993
13768W        W56680   3.116  17.977  31.777  0.3026  0.0210 -0.0785
13769W        W56681   1.783  18.632  30.872  0.0359  0.2441  0.0405
13770W        W56682   1.569  19.553  29.140  0.3934  0.0579 -0.1141
13771W        W56683   0.189  18.225  27.630 -0.3558  0.0700 -0.2541
13772W        W56684   3.181  21.257  27.079 -0.1330  0.2729  0.1057
13773W        W56685   0.759  18.501  30.038  0.4268 -0.0220 -0.1234
13774W        W56686  34.304  18.534  29.830 -0.4099 -0.0453  0.0195
13775W        W56687   1.483  20.768  28.747  0.2596  0.0714 -0.1351
13776W        W56688   3.768  20.953  28.170  0.0073 -0.1377 -0.1468
13777W        W56689   1.892  18.672  28.793  0.0889 -0.0271 -0.0554
13778W        W56690   2.787  21.447  31.360  0.0044  0.0074 -0.1904
13779W        W56691   0.145  21.474  28.520 -0.0246 -0.0194 -0.1702
13780W        W56692   1.257  19.210  31.002  0.0872  0.0751  0.2798
13781W        W56693   1.093  18.531  29.128 -0.2002  0.1159  0.3314
13782W        W56694  34.627  19.962  28.751 -0.0692  0.1807 -0.0282
13783W        W56695   3.048  19.759  30.347 -0.0072  0.1470 -0.1653
13784W        W56696   2.871  20.189  28.670  0.0885  0.0598  0.4498
13785W        W56697   2.247  21.675  28.572  0.0891 -0.0662 -0.0808
13786W        W56698   1.354  21.477   0.397  0.1000 -0.0229 -0.0540
13787W        W56699   1.990  22.486  31.253  0.1800  0.1945  0.0715
13788W        W56700   0.160  18.633  29.985  0.0100 -0.2186 -0.3404
13789W        W56701   3.144  19.268  28.920 -0.2963 -0.1946  0.1591
13790W        W56702   0.162  20.620  31.347  0.0834  0.0428  0.0130
13791W        W56703   4.823  21.420  27.610 -0.0553  0.0290 -0.5978
13792W        W56704   4.391  18.106  30.390 -0.2237 -0.1350 -0.1334
13793W        W56705   1.814  21.693  27.771  0.1015  0.0246  0.0146
13794W        W56706  34.689  18.027  31.142 -0.1281 -0.0670  0.1998
13795W        W56707   0.857  20.045  31.939 -0.1408  0.0750 -0.0889
13796W        W56708   3.503  20.466  29.243 -0.1347 -0.0789 -0.0776
13797W        W56709   0.915  18.729  28.299  0.0734  0.0130 -0.0164
13798W        W56710   1.134  19.581  28.685 -0.4339 -0.1136 -0.0224
13799W        W56711   3.313  21.066  28.428  0.0228  0.3105  0.1089
13800W        W56712   1.439  20.430  29.923 -0.0081  0.1037 -0.0576
13801W        W56713   0.985  19.368  29.173 -0.2559 -0.0862  0.1567
13802W        W56714   1.431  19.974  30.836  0.0195  0.0492 -0.1059
13803W        W56715   1.873  21.424  29.290 -0.2062  0.0522 -0.1029
13804W        W56716   1.841  19.573  30.570  0.2028  0.1067  0.3187
13805W        W56717   2.395  21.418  29.667 -0.3539 -0.2982  0.0305
13806W        W56718   3.125  20.492  28.347 -0.0669 -0.1538 -0.4202
13807W        W56719   1.996  21.488  31.461  0.1621  0.1233  0.3986
13808W        W56720   3.316  21.652  31.387 -0.1948  0.3523 -0.2116
13809W        W56721   2.799  21.144  29.706 -0.2359 -0.0474  0.2157
13810W        W56722   3.427  20.008  30.004 -0.2722 -0.0261 -0.0837
13811W        W56723   0.552  19.315  29.454  0.0381 -0.0096  0.3899
13812W        W56724   1.026  20.543  29.652  0.1644 -0.2351 -0.0396
13813W        W56725   2.869  20.868  28.194 -0.1053  0.0310  0.2120
13814W        W56726   3.550  18.470  31.413  0.0557  0.0530 -0.1269
13815W        W56727  34.622  19.557  29.964  0.1198 -0.1374  0.0571
13816W        W56728   4.271  18.726  28.324  0.1109  0.0008  0.1611
13817W        W56729   2.822  21.198  29.060 -0.1083  0.0762 -0.1629
13818W        W56730   1.968  20.723  27.795  0.4883 -0.1422 -0.2232
13819W        W56731   3.032  20.379  31.907 -0.3546  0.1564 -0.0638
13820W        W56732   1.192  19.548  30.618 -0.2423  0.2258  0.2754
13821W        W56733   0.557  19.434   0.479 -0.0626 -0.0150  0.1801
13822W        W56734   0.362  21.047   2.142 -0.2853  0.2178 -0.4702
13823W        W56735   1.702  23.428  31.170 -0.0912 -0.0263  0.4477
13824W        W56736   1.672  20.624  31.645 -0.0608 -0.0144  0.2273
13825W        W56737   1.369  19.125  30.525 -0.3093  0.2533 -0.3795
13826W        W56738   1.582  19.206  31.941 -0.1298  0.1921 -0.0522
13827W        W56739   3.302  20.103   0.700 -0.1104 -0.1432  0.2031
13828W        W56740   3.932  22.530  31.476 -0.3134  0.1074 -0.0492
13829W        W56741   1.771  21.017  31.183 -0.2637 -0.4148 -0.1050
13830W        W56742   0.384  17.234  30.740 -0.4270 -0.0051  0.2079
13831W        W56743   3.637  19.502  30.099  0.0158  0.1447 -0.0303
13832W        W56744   2.985  20.552   0.796 -0.0578 -0.0171 -0.1709
13833W        W56745   2.973  20.014  31.581  0.1798  0.1186  0.1448
13834W        W56746   0.325  21.162  31.311 -0.2025  0.1455 -0.0259
13835W        W56747   0.589  22.935   0.765 -0.0502  0.0167 -0.0531
13836W        W56748   2.293  21.625   0.424  0.0623 -0.1524  0.0932
13837W        W56749   0.213  19.339   0.970  0.3472  0.0697 -0.2403
13838W        W56750   0.042  18.337   0.265 -0.0251  0.0757  0.3012
13839W        W56751   1.814  19.313   0.385 -0.5843  0.2994  0.2208
13840W        W56752  34.372  21.796  31.753  0.0298  0.2687  0.0244
13841W        W56753   3.113  17.604  31.282  0.1368 -0.0068 -0.2925
13842W        W56754   2.836  19.471  31.383  0.1380  0.3205 -0.0939
13843W        W56755   1.928  17.742  30.299  0.5180  0.0530  0.1262
13844W        W56756   3.253  18.670  31.052  0.0740  0.2755 -0.0987
13845W        W56757   0.651  20.532   0.045  0.2641  0.0161 -0.1965
13846W        W56758   0.561  21.808  31.823 -0.0223  0.0531 -0.2607
13847W        W56759   1.339  20.940  29.873  0.1821  0.1741  0.0787
13848W        W56760   1.876  21.117  31.787 -0.2132  0.0778  0.1196
13849W        W56761  34.365  21.502  30.678 -0.3473 -0.0462  0.1419
13850W        W56762   2.267  20.689  31.523 -0.2125  0.1948 -0.0940
13851W        W56763   2.545  21.384  30.851  0.4728 -0.1115  0.1815
13852W        W56764   1.305  19.604   1.074 -0.1750  0.1221  0.1082
13853W        W56765   0.719  18.969  29.830  0.2335 -0.0538 -0.1353
13854W        W56766   0.859  21.078   0.141 -0.0942  0.1001 -0.2140
13855W        W56767   0.679  22.640  30.530  0.1660  0.4091  0.1179
13856W        W56768   2.278  18.512  29.994  0.1004  0.1368 -0.1065
13857W        W56769   1.629  20.091  31.690  0.1101  0.0378 -0.3147
13858W        W56770   2.288  19.967   0.170 -0.1668  0.1173 -0.0301
13859W        W56771   4.242  19.274  31.447 -0.1323 -0.4194  0.1011
13860W        W56772   1.489  19.714   0.519 -0.0764 -0.1055  0.0278
13861W        W56773   2.098  17.453  31.944 -0.1319  0.1124  0.2325
13862W        W56774   2.272  21.745  31.048 -0.2899  0.0632 -0.1071
13863W        W56775   0.491  19.855   1.398  0.0587  0.1453 -0.0987
13864W        W56776   2.579  20.717  31.949  0.0895  0.2247  0.1463
13865W        W56777   2.320  17.832  31.164 -0.1159  0.0277  0.2600
13866W        W56778   2.373  21.152  31.540 -0.2597  0.1835 -0.0627
13867W        W56779   3.168  21.361   0.054  0.2487  0.1882 -0.1325
13868W        W56780  32.479  22.818  31.816  0.1042  0.1094  0.0586
13869W        W56781   1.489  22.077  31.727 -0.2753  0.0194  0.0689
13870W        W56782   2.494  18.004  30.073  0.3672 -0.3501  0.0678
13871W        W56783   1.031  18.697  30.445  0.0006  0.1117 -0.0459
13872W        W56784   2.180  20.725  30.215  0.0461 -0.3014 -0.1446
13873W        W56785   1.016  19.159  30.185 -0.2898  0.2085 -0.2414
13874W        W56786   2.309  19.998  29.892 -0.0918  0.0226  0.0543
13875W        W56787   3.092  20.264  30.542 -0.3029  0.0871 -0.0606
13876W        W56788   2.102  24.064  30.989  0.1911 -0.1777  0.0946
13877W        W56789   2.010  21.386  30.900 -0.0175 -0.0978 -0.1902
13878W        W56790   1.366  19.815  31.318  0.0054  0.3550 -0.0450
13879W        W56791   0.523  17.927  31.477  0.1127  0.2460  0.1482
13880W        W56792   0.536  22.217   0.135  0.1450  0.1095  0.1999
13881W        W56793   0.645  20.501   1.396 -0.3763  0.2154  0.0273
13882W        W56794   0.518  18.394  31.263  0.1276  0.0332 -0.0236
13883W        W56795   2.999  20.859  31.642 -0.0417  0.2461 -0.0752
13884W        W56796   3.188  21.027   0.631  0.4699  0.2387  0.2693
13885W        W56797   4.006  20.308  31.776  0.0483 -0.0135 -0.3607
13886W        W56798  34.604  23.517  19.438  0.1317  0.1903 -0.0161
13887W        W56799  34.485  22.915  16.550  0.0792  0.0807  0.2309
13888W        W56800   2.747  22.294  17.398  0.3079  0.0238 -0.1092
13889W        W56801   4.684  24.334  16.796  0.2672 -0.0495  0.2496
13890W        W56802   0.173  20.667  17.440  0.0610  0.0594 -0.3405
13891W        W56803   2.833  25.464  16.429 -0.2298  0.0641  0.0661
13892W        W56804   0.328  21.818  18.221  0.0913  0.1586 -0.2024
13893W        W56805   2.923  26.324  17.356  0.2623 -0.0747  0.1197
13894W        W56806   4.442  25.136  17.756  0.0427 -0.0046 -0.2571
13895W        W56807   2.622  24.917  16.568  0.2614 -0.1660 -0.2390
13896W        W56808   0.265  23.205  18.005 -0.2496 -0.2819  0.0115
13897W        W56809   1.373  23.967  18.990  0.3023  0.3212 -0.0207
13898W        W56810   0.300  22.306  17.811 -0.0330 -0.1168  0.0886
13899W        W56811  34.201  21.344  18.166  0.0713  0.2849  0.0655
13900W        W56812   3.801  25.216  18.258 -0.0382 -0.1890  0.1023
13901W        W56813   0.400  24.774  17.153 -0.1028  0.3220 -0.1701
13902W        W56814   0.362  23.340  17.225  0.2098  0.1866  0.1804
13903W        W56815   2.200  22.096  17.645 -0.1042 -0.1527  0.3122
13904W        W56816   2.418  25.398  16.124  0.1821  0.0934  0.0217
13905W        W56817   0.478  22.953  18.958  0.2206 -0.1268 -0.0538
13906W        W56818   2.062  21.245  18.063  0.2415  0.3171  0.0960
13907W        W56819   0.692  25.096  16.372 -0.3093 -0.0997  0.2596
13908W        W56820   1.115  22.689  16.800  0.1747  0.0414  0.0192
13909W        W56821  33.929  24.617  18.388  0.1817  0.0115 -0.3172
13910W        W56822   0.945  24.612  18.798 -0.4521 -0.0901  0.1722
13911W        W56823   3.090  22.951  18.531 -0.1590 -0.1069 -0.1032
13912W        W56824   3.868  24.328  17.214  0.0594 -0.0029 -0.1281
13913W        W56825   0.628  25.452  17.228 -0.1421  0.1598  0.1305
13914W        W56826   2.496  25.674  17.745  0.0046  0.1341  0.2744
13915W        W56827   2.518  24.159  18.747  0.0951 -0.1211  0.1019
13916W        W56828   0.737  25.408  17.699 -0.2366  0.2011  0.0728
13917W        W56829  34.335  24.357  17.548 -0.0035  0.0334 -0.0782
13918W        W56830   3.330  26.720  18.066  0.2465  0.0110 -0.3521
13919W        W56831   2.998  23.646  16.551 -0.2818  0.3059 -0.2174
13920W        W56832   3.834  24.737  19.142 -0.0316  0.2312 -0.4480
13921W        W56833   1.086  25.549  20.180  0.3378 -0.1279  0.3759
13922W        W56834  34.358  24.945  16.852  0.0870 -0.3115  0.2869
13923W        W56835   0.851  25.944  19.851 -0.2499 -0.0578  0.1852
13924W        W56836  34.393  24.832  20.097  0.1179 -0.0240 -0.0621
13925W        W56837   1.607  24.609  17.213 -0.1843 -0.0947  0.1443
13926W        W56838   1.365  25.065  17.393 -0.2095  0.0006  0.2397
13927W        W56839   1.443  25.377  16.632  0.3954  0.0184  0.0237
13928W        W56840   2.672  24.624  17.597 -0.0715  0.0718  0.2584
13929W        W56841   1.058  24.754  19.386 -0.0551 -0.0623 -0.0768
13930W        W56842   0.637  25.139  16.849 -0.1616  0.2506 -0.0166
13931W        W56843   2.116  23.287  18.743  0.0296  0.0460 -0.4232
13932W        W56844   0.577  24.639  16.701  0.0541  0.0749  0.0268
13933W        W56845   3.197  22.606  17.236 -0.0449 -0.1679  0.0467
13934W        W56846   1.079  24.676  17.058  0.0736 -0.2225 -0.2156
13935W        W56847   2.523  21.974  16.526 -0.1379  0.3682 -0.1412
13936W        W56848   2.141  23.408  19.302  0.1165  0.1069  0.1652
13937W        W56849   2.045  25.599  18.332 -0.1676 -0.0273 -0.0955
13938W        W56850   1.580  22.483  18.907  0.1023 -0.1328 -0.0392
13939W        W56851   3.441  24.466  18.872  0.0019 -0.1093  0.0770
13940W        W56852   2.525  22.417  16.751 -0.1887 -0.1670  0.0428
13941W        W56853   2.918  24.056  16.391  0.0080 -0.1031  0.1883
13942W        W56854   2.083  25.212  18.654 -0.1920  0.0112  0.1680
13943W        W56855   0.373  23.873  17.482 -0.0534 -0.1475  0.1060
13944W        W56856   3.077  24.535  17.131  0.0177 -0.0639  0.1434
13945W        W56857   3.020  25.002  17.384  0.1395  0.1018 -0.1453
13946W        W56858   2.583  23.911  16.846 -0.0233 -0.0869 -0.4642
13947W        W56859  34.668  24.615  17.819 -0.0053 -0.1419  0.0187
13948W        W56860   0.403  22.205  19.272 -0.0910 -0.1666  0.1098
13949W        W56861   0.511  22.875  19.787  0.3595  0.1662  0.0296
13950W        W56862  33.955  21.454  16.303 -0.1536 -0.0004  0.0888
13951W        W56863   4.158  24.040  20.342  0.5243  0.2408 -0.1275
13952W        W56864   0.651  24.625  19.894 -0.1337 -0.1772  0.0175
13953W        W56865   2.434  23.035  17.135  0.2999  0.0466  0.1253
13954W        W56866   1.456  24.744  17.935  0.0424  0.0738  0.1473
13955W        W56867   3.523  23.814  17.650  0.1994  0.0106 -0.3467
13956W        W56868   2.599  23.307  16.670 -0.5336 -0.1515  0.1055
13957W        W56869   2.985  22.022  17.749  0.0269  0.2980  0.1725
13958W        W56870   1.905  23.747  17.637  0.2637  0.2462  0.2968
13959W        W56871   0.250  24.989  16.573 -0.3707 -0.1392 -0.2695
13960W        W56872   1.363  24.552  16.204  0.1214 -0.0670 -0.0373
13961W        W56873   3.736  24.386  18.417  0.0709 -0.0664 -0.1195
13962W        W56874   4.128  23.210  16.158 -0.1003  0.2226  0.0015
13963W        W56875   1.015  25.174  18.603  0.0014  0.4249  0.0687
13964W        W56876   0.385  23.324  18.541  0.2074 -0.3779  0.1347
13965W        W56877   3.110  24.753  20.800  0.0162 -0.3075  0.2110
13966W        W56878  33.603  24.422  16.882  0.3330  0.1176  0.2334
13967W        W56879   0.552  24.758  19.143  0.0791  0.1666  0.0756
13968W        W56880   1.680  21.915  17.683  0.0565 -0.1387  0.1868
13969W        W56881  34.076  23.507  17.542  0.1086  0.0222 -0.0374
13970W        W56882  34.327  24.006  18.460  0.3464  0.2071 -0.1730
13971W        W56883   1.896  22.527  17.443 -0.0569  0.0651  0.0152
13972W        W56884  34.625  21.949  17.954  0.0141 -0.0427 -0.4479
13973W        W56885   2.500  23.900  17.540  0.0278 -0.3432  0.2032
13974W        W56886   0.127  24.376  17.376 -0.1201 -0.0073 -0.0950
13975W        W56887   2.812  26.825  16.408  0.1248 -0.0825 -0.0258
13976W        W56888   4.038  23.628  17.700 -0.1337  0.0165  0.1801
13977W        W56889   2.225  24.838  16.317 -0.0762  0.0899  0.3831
13978W        W56890   1.490  23.927  18.338  0.1870  0.1607  0.1630
13979W        W56891   0.370  24.740  18.227 -0.0147  0.0413 -0.2933
13980W        W56892   1.078  23.158  18.333 -0.0266  0.1950  0.1600
13981W        W56893   0.023  21.452  18.315  0.1534  0.1407  0.0527
13982W        W56894   3.299  23.924  18.363  0.1802 -0.0772 -0.1918
13983W        W56895   0.645  22.011  17.282  0.1106  0.1670 -0.1463
13984W        W56896   1.122  25.207  16.971 -0.0501  0.2086  0.0765
13985W        W56897   2.461  24.520  18.037 -0.2318 -0.2511 -0.4008
13986W        W56898   0.379  23.420  16.236  0.0666  0.3555  0.2273
13987W        W56899   2.888  21.629  20.002 -0.1960  0.0249  0.0777
13988W        W56900   1.183  25.379  16.148 -0.0128  0.0432 -0.0406
13989W        W56901   4.679  24.994  19.838 -0.2117  0.0565 -0.0518
13990W        W56902   2.870  26.776  17.205  0.0298 -0.0808 -0.2335
13991W        W56903   0.032  22.276  18.310  0.0369  0.6247  0.2134
13992W        W56904   1.145  22.471  16.275  0.1888 -0.0271 -0.0105
13993W        W56905   0.317  25.459  18.393  0.1177 -0.0539 -0.1692
13994W        W56906   2.166  26.289  18.789  0.1009  0.2854 -0.0296
13995W        W56907  34.380  23.617  17.174  0.1006 -0.1156 -0.2608
13996W        W56908   4.239  25.363  17.169 -0.3078 -0.1840  0.4136
13997W        W56909   2.184  24.701  17.322 -0.1238  0.0361  0.0201
13998W        W56910  34.584  23.939  19.194 -0.4912  0.1721  0.2692
13999W        W56911   3.847  22.052  18.282  0.1698 -0.0136 -0.0021
14000W        W56912   3.610  23.291  18.257  0.2307  0.5435 -0.0202
14001W        W56913   1.712  24.219  16.286 -0.1765 -0.1045 -0.0034
14002W        W56914   2.033  22.499  16.859  0.0965 -0.1335  0.1531
14003W        W56915   2.540  25.968  16.253 -0.0802  0.1513  0.1203
14004W        W56916  33.308  25.239  16.943  0.0143 -0.3165  0.1006
14005W        W56917   0.785  24.105  17.750  0.1969  0.0019 -0.0960
14006W        W56918   1.090  25.598  18.373 -0.0342  0.1765  0.2808
14007W        W56919   4.503  22.828  18.429  0.0202 -0.0064  0.0230
14008W        W56920  33.886  22.676  19.902 -0.0278  0.1646 -0.3151
14009W        W56921   1.750  24.743  18.730 -0.0908  0.3897  0.3351
14010W        W56922  34.250  23.313  16.763  0.3353  0.0673  0.0028
14011W        W56923   0.175  24.131  18.358 -0.0553  0.2973 -0.0030
14012W        W56924   1.617  22.912  17.573 -0.1882 -0.0734  0.1712
14013W        W56925   3.226  23.176  16.864 -0.1197 -0.0224  0.2462
14014W        W56926   1.696  25.341  18.985  0.3310 -0.3865  0.1944
14015W        W56927   3.214  24.251  16.069 -0.1366  0.4526  0.6463
14016W        W56928   3.570  23.361  16.319  0.0561  0.1765 -0.0445
14017W        W56929   2.994  22.021  16.383  0.0218  0.3483 -0.2451
14018W        W56930   0.218  25.215  18.938 -0.0543  0.0789  0.0307
14019W        W56931   1.567  23.974  16.729  0.5185 -0.1138  0.0756
14020W        W56932   2.147  26.011  17.903  0.0503 -0.4142 -0.1255
14021W        W56933   2.906  22.533  16.435 -0.1879  0.2090  0.1271
14022W        W56934   4.039  24.935  17.248 -0.0342  0.0145  0.0871
14023W        W56935   0.670  25.725  18.052 -0.3788  0.1971  0.0022
14024W        W56936   2.394  24.971  19.339  0.2378 -0.1893  0.0581
14025W        W56937   2.926  25.448  17.749 -0.0129 -0.3356  0.2849
14026W        W56938   1.158  22.426  18.496 -0.0186  0.0887 -0.0496
14027W        W56939   1.288  23.020  17.147  0.1758 -0.0112  0.2003
14028W        W56940   3.408  22.277  17.581 -0.0973  0.0765 -0.1564
14029W        W56941  33.990  24.881  16.546  0.0154 -0.0924 -0.0019
14030W        W56942   3.692  22.450  19.248 -0.1149 -0.3706 -0.0238
14031W        W56943   2.738  23.765  18.089  0.1099 -0.1144  0.0516
14032W        W56944   2.331  22.927  19.246  0.1702 -0.0152 -0.0909
14033W        W56945   2.634  24.682  18.587 -0.1633  0.1449  0.2284
14034W        W56946   3.501  24.512  16.863 -0.0488  0.0462  0.1133
14035W        W56947   2.083  24.901  16.868  0.4153 -0.0556 -0.1791
14036W        W56948   1.277  22.743  18.069  0.0425 -0.0521  0.0963
14037W        W56949   1.694  22.561  19.888  0.1665 -0.1330 -0.0282
14038W        W56950   0.567  23.799  18.567  0.0471 -0.0523 -0.2576
14039W        W56951   0.425  26.208  17.748  0.3545 -0.2642  0.1937
14040W        W56952   3.299  22.848  18.118 -0.1306 -0.1953 -0.0688
14041W        W56953   3.394  24.256  17.423 -0.1381 -0.3456  0.1804
14042W        W56954   1.761  22.932  19.403  0.0104 -0.2281 -0.2207
14043W        W56955   1.701  23.409  16.861  0.1151  0.0952 -0.0891
14044W        W56956   1.841  24.927  17.559  0.2003  0.0385  0.0364
14045W        W56957   0.143  23.718  17.965  0.2679  0.0263  0.2766
14046W        W56958   1.079  22.238  18.041  0.0244 -0.2782 -0.0889
14047W        W56959   3.297  25.869  17.543 -0.0013  0.0131 -0.2792
14048W        W56960   1.267  23.299  16.615 -0.4410  0.0509  0.1708
14049W        W56961   3.460  25.124  17.682  0.1849 -0.3218 -0.0275
14050W        W56962   0.101  23.328  16.699  0.0499 -0.0799 -0.1266
14051W        W56963   4.410  21.726  18.787  0.0375  0.0282  0.1690
14052W        W56964   0.430  24.678  17.637  0.0688 -0.1624 -0.2946
14053W        W56965   2.102  23.950  17.198  0.4884 -0.3225  0.1531
14054W        W56966  33.921  24.131  18.197  0.1347 -0.0711  0.3015
14055W        W56967   4.032  22.999  18.423 -0.1493  0.0566  0.1930
14056W        W56968   3.615  24.466  15.774  0.0942  0.1089 -0.0477
14057W        W56969   0.764  22.363  17.640 -0.3123  0.0405  0.0270
14058W        W56970   1.977  22.164  18.076  0.0929 -0.0346  0.1738
14059W        W56971  34.215  25.304  17.180  0.0223 -0.2816  0.3143
14060W        W56972   2.061  24.632  19.971 -0.0807  0.1400  0.1692
14061W        W56973   1.808  22.096  16.667 -0.2785  0.2880 -0.0182
14062W        W56974   4.175  24.643  17.665  0.0627  0.0461  0.3846
14063W        W56975   0.296  22.795  20.240  0.1843  0.0649 -0.6071
14064W        W56976  33.966  22.604  17.279  0.0483  0.1997  0.2316
14065W        W56977   3.044  23.513  19.088 -0.0915  0.1324 -0.0282
14066W        W56978   0.264  22.727  18.074  0.0810 -0.1305  0.3982
14067W        W56979  33.350  26.149  17.619  0.1813  0.1544 -0.0282
14068W        W56980   2.748  25.160  18.985  0.0191  0.3675 -0.1856
14069W        W56981   0.801  23.211  17.361  0.3317  0.4751  0.0585
14070W        W56982   0.988  24.577  17.769  0.0119 -0.0568 -0.1803
14071W        W56983   0.693  22.867  18.491 -0.2726 -0.1101 -0.5880
14072W        W56984   3.437  24.892  18.594  0.0502  0.1721  0.2345
14073W        W56985   1.910  23.527  18.254  0.0693 -0.3481  0.0387
14074W        W56986  34.477  23.027  17.990  0.1428 -0.1451  0.2723
14075W        W56987   2.108  25.312  17.263  0.1292 -0.1868 -0.0091
14076W        W56988   2.669  26.123  17.002  0.2015 -0.2583  0.1391
14077W        W56989   2.834  25.116  18.465 -0.0196  0.3560 -0.2845
14078W        W56990  34.176  25.059  18.552 -0.1422  0.2136  0.0541
14079W        W56991   0.780  22.079  18.704 -0.1724  0.0768  0.3656
14080W        W56992   3.457  25.006  17.098  0.2321 -0.1148  0.2564
14081W        W56993   2.347  23.758  18.447 -0.0940  0.0477  0.0924
14082W        W56994   0.730  23.706  17.182 -0.2977 -0.0874 -0.2469
14083W        W56995  34.579  23.889  17.518  0.0093 -0.1314  0.0316
14084W        W56996   0.108  24.137  16.597  0.1677  0.0320 -0.1332
14085W        W56997   1.692  24.440  18.278  0.1209  0.2848  0.0194
14086W        W56998   0.655  24.278  19.435  0.0278  0.3659 -0.1112
14087W        W56999   2.408  25.730  17.056  0.1275 -0.2144  0.0523
14088W        W57000  34.528  25.561  18.799 -0.0207 -0.1749 -0.0721
14089W        W57001   2.478  21.492  16.974  0.1922 -0.0198 -0.0674
14090W        W57002   1.019  24.969  15.919 -0.0091  0.1398 -0.2520
14091W        W57003   2.263  23.912  17.966 -0.4440 -0.1890  0.0125
14092W        W57004   4.013  21.977  19.103 -0.1693  0.3732 -0.0731
14093W        W57005   1.996  22.992  15.963  0.1617 -0.0641 -0.0397
14094W        W57006   5.076  21.399  19.663  0.3418 -0.1928  0.4093
14095W        W57007   0.824  23.242  18.805  0.2370  0.2113  0.0400
14096W        W57008   2.961  24.092  17.270 -0.0015 -0.2007 -0.1549
14097W        W57009  34.538  22.500  17.821 -0.1166  0.0175  0.0402
14098W        W57010   2.812  25.246  19.625 -0.2791  0.0484  0.0444
14099W        W57011   1.233  25.575  18.852  0.1241  0.0487  0.4450
14100W        W57012   1.202  21.092  18.113  0.3263  0.2292  0.0649
14101W        W57013   0.702  22.577  16.198 -0.2861  0.1655 -0.1667
14102W        W57014   2.607  25.242  17.346  0.2574  0.1634 -0.3469
14103W        W57015   4.508  24.319  17.869 -0.1956 -0.0988 -0.0053
14104W        W57016   0.466  24.913  15.970  0.0037  0.0441 -0.0708
14105W        W57017   3.858  24.246  17.759  0.0737 -0.1527  0.2011
14106W        W57018   0.889  24.797  18.242  0.1382  0.2831 -0.0266
14107W        W57019   1.578  25.669  16.095 -0.1235  0.0995 -0.2158
14108W        W57020   2.199  23.398  17.405 -0.3590  0.1749  0.0394
14109W        W57021   0.785  25.021  17.357  0.0158  0.0519 -0.3164
14110W        W57022   1.274  22.945  18.747  0.1011 -0.0829 -0.1008
14111W        W57023   4.575  24.090  19.019 -0.3421 -0.1180  0.0758
14112W        W57024   2.324  22.266  18.964 -0.0141  0.2948  0.0573
14113W        W57025   1.373  24.848  18.422 -0.0536 -0.0168 -0.1889
14114W        W57026   3.085  23.378  18.153  0.0999  0.3057  0.2796
14115W        W57027   1.892  24.257  18.970 -0.3647 -0.2025 -0.1375
14116W        W57028   0.376  19.958  19.663 -0.2743  0.1817  0.0331
14117W        W57029   4.507  24.833  18.689  0.0678 -0.3865 -0.2541
14118W        W57030   3.972  23.682  16.318  0.2474  0.2578  0.0706
14119W        W57031   2.827  22.975  17.940  0.1072  0.2526  0.1095
14120W        W57032   4.431  22.188  17.697 -0.2213  0.1155  0.0895
14121W        W57033   1.228  23.620  17.062 -0.1882 -0.0288 -0.0477
14122W        W57034   0.976  23.201  17.830 -0.0906  0.1609 -0.0460
14123W        W57035   1.042  23.698  18.554 -0.1777  0.1943  0.0191
14124W        W57036   1.132  22.952  15.988  0.0599 -0.0354 -0.3757
14125W        W57037   2.579  23.505  18.932 -0.0828  0.1737 -0.2868
14126W        W57038   2.705  24.531  16.176  0.0606  0.4328  0.1455
14127W        W57039   2.100  26.135  16.909  0.0414  0.0086 -0.1964
14128W        W57040   2.686  23.356  17.588 -0.1147  0.0592 -0.1936
14129W        W57041  34.657  23.327  17.629 -0.1017 -0.1769 -0.0578
14130W        W57042   1.360  25.142  19.951  0.2001  0.2791 -0.0518
14131W        W57043  34.119  22.226  17.616 -0.1974 -0.2298  0.2547
14132W        W57044   0.731  22.822  17.154  0.0114 -0.0289  0.1010
14133W        W57045   0.749  24.373  17.332  0.3346 -0.1050  0.0093
14134W        W57046   1.426  23.436  18.475  0.0691  0.1910  0.0258
14135W        W57047   0.575  22.875  17.686 -0.0112 -0.0832  0.0917
14136W        W57048   2.789  23.952  19.117 -0.2124  0.2867  0.0453
14137W        W57049   0.264  25.113  17.573 -0.0223 -0.0376 -0.0406
14138W        W57050   1.821  21.823  18.518 -0.3734 -0.3087 -0.1066
14139W        W57051   1.690  25.440  17.374  0.0847 -0.3764  0.3515
14140W        W57052   0.409  24.091  19.015 -0.0557  0.0648  0.2266
14141W        W57053   0.467  23.759  16.682 -0.2735 -0.1800  0.0893
14142W        W57054   1.509  22.536  17.116 -0.0157 -0.3249 -0.3168
14143W        W57055   2.757  24.230  18.309 -0.0245 -0.1529 -0.0284
14144W        W57056   2.820  23.489  17.042  0.0267  0.1501  0.0549
14145W        W57057   4.046  23.155  19.519 -0.1595 -0.4945 -0.0661
14146W        W57058   2.354  25.040  17.745 -0.1463 -0.0364  0.1098
14147W        W57059   1.072  22.750  17.556  0.3454  0.5197 -0.1197
14148W        W57060   2.862  24.952  17.934  0.2316  0.1467 -0.2818
14149W        W57061   3.333  23.824  17.090 -0.1708 -0.0473  0.1643
14150W        W57062   0.137  25.242  17.015  0.0155 -0.1990  0.3010
14151W        W57063  34.510  22.339  20.111  0.1008 -0.3168  0.3236
14152W        W57064   1.315  23.806  20.417 -0.2515 -0.0499 -0.1041
14153W        W57065   2.240  24.286  17.609 -0.2431  0.2291 -0.0509
14154W        W57066   0.624  21.912  17.804  0.0901 -0.2954 -0.1105
14155W        W57067   2.074  23.862  16.556 -0.2352  0.0728 -0.2743
14156W        W57068   0.185  24.516  21.853 -0.0673  0.0036  0.0509
14157W        W57069  33.550  23.930  17.964 -0.1355  0.0130 -0.0249
14158W        W57070   1.026  26.237  16.292 -0.1170 -0.0275 -0.4787
14159W        W57071   1.710  24.863  16.382  0.2938 -0.3500 -0.0206
14160W        W57072   2.660  23.311  16.137  0.4087  0.2684  0.3009
14161W        W57073   2.809  27.955  18.311  0.0638 -0.0189 -0.2334
14162W        W57074   1.611  24.057  17.378 -0.1247  0.2505  0.1122
14163W        W57075   3.006  25.734  19.627  0.2008 -0.0001  0.1823
14164W        W57076   0.208  24.531  16.276 -0.0965  0.1806 -0.1282
14165W        W57077   0.017  26.981  18.531  0.0699 -0.1446 -0.3237
14166W        W57078   0.982  23.820  16.677  0.0082 -0.0277 -0.0224
14167W        W57079   3.936  23.828  19.694  0.3450 -0.2254  0.4344
14168W        W57080   3.555  23.430  17.290  0.0851  0.2414  0.0019
14169W        W57081   3.122  24.169  16.787  0.1840  0.4080  0.1127
14170W        W57082   3.719  23.746  18.640 -0.1341 -0.3335  0.0535
14171W        W57083   4.178  25.114  19.064  0.1420 -0.3843 -0.0850
14172W        W57084   1.998  24.097  18.454 -0.1876 -0.1932  0.0846
14173W        W57085   3.153  21.977  17.275 -0.0618  0.3126 -0.1183
14174W        W57086   1.456  23.069  20.453  0.1631 -0.2896  0.0118
14175W        W57087   4.297  21.772  19.503 -0.0815 -0.0553 -0.1745
14176W        W57088   0.931  25.168  19.108  0.2219  0.3398  0.1102
14177W        W57089   1.748  25.906  16.548 -0.0092  0.2278  0.0998
14178W        W57090   1.064  23.705  17.574  0.0309 -0.0971 -0.2643
14179W        W57091   1.083  25.790  17.803  0.0110  0.1679  0.1389
14180W        W57092   3.756  21.109  18.883  0.1732 -0.4511 -0.0089
14181W        W57093   2.131  24.353  16.485  0.4411  0.1505 -0.1115
14182W        W57094   3.372  22.870  17.627 -0.0287 -0.1492  0.0747
14183W        W57095   2.442  26.093  17.453 -0.2510 -0.0398 -0.3474
14184W        W57096   1.976  24.598  17.944  0.0781 -0.2295 -0.0774
14185W        W57097   2.272  24.747  18.897 -0.0818  0.0713  0.0832
14186W        W57098  33.654  22.895  17.513  0.2953 -0.1582 -0.5482
14187W        W57099   4.855  23.056  18.802  0.0206 -0.1834 -0.1247
14188W        W57100   2.151  24.658  18.418  0.1929 -0.0358 -0.0143
14189W        W57101   3.868  22.773  19.727 -0.0803  0.0041 -0.0630
14190W        W57102   0.790  22.626  18.082  0.2106 -0.2862  0.1867
14191W        W57103   3.032  23.644  17.568 -0.3040 -0.0436  0.0350
14192W        W57104   1.035  24.175  19.788 -0.1993 -0.1479  0.4365
14193W        W57105   1.720  23.035  18.448  0.1321 -0.1993 -0.1176
14194W        W57106   1.630  23.612  16.429 -0.3876  0.1670  0.0550
14195W        W57107   2.805  23.007  19.023  0.0236  0.0238 -0.0102
14196W        W57108   1.781  23.043  16.468  0.0214 -0.1478 -0.0431
14197W        W57109   2.128  26.130  20.479 -0.1627  0.2892  0.2350
14198W        W57110  33.613  22.899  18.036 -0.1310  0.1526  0.2633
14199W        W57111   1.603  23.491  17.392  0.3712  0.0910 -0.3389
14200W        W57112  33.444  24.245  17.431  0.5021  0.0062 -0.0574
14201W        W57113   0.847  24.181  18.672  0.2532 -0.1389 -0.0735
14202W        W57114   3.770  25.100  19.458  0.0320  0.1404  0.0850
14203W        W57115   1.447  22.411  17.694 -0.2721  0.1280 -0.3335
14204W        W57116   2.039  24.425  16.937 -0.0970 -0.2103  0.1918
14205W        W57117   4.181  22.682  17.717 -0.2055  0.0861  0.1331
14206W        W57118   2.162  23.383  16.304  0.1491 -0.1885 -0.0492
14207W        W57119   3.700  23.559  16.778  0.1945  0.0468 -0.1705
14208W        W57120   3.483  25.541  17.977  0.0991  0.2916 -0.3001
14209W        W57121   1.781  24.115  17.922  0.0756 -0.1753 -0.0531
14210W        W57122   1.819  23.922  20.419 -0.2085 -0.3327  0.1568
14211W        W57123   3.706  25.566  17.499 -0.1774  0.0347 -0.0206
14212W        W57124   1.439  23.650  17.925 -0.1317 -0.1001  0.0883
14213W        W57125   0.406  24.194  16.960 -0.0305  0.1326  0.1943
14214W        W57126   0.438  25.641  16.860  0.2522 -0.3817 -0.2673
14215W        W57127   3.401  23.192  19.040 -0.1038  0.3932 -0.0191
14216W        W57128   2.466  22.848  18.712 -0.0277 -0.1559  0.0515
14217W        W57129   1.498  25.838  17.580  0.1957  0.1235 -0.2676
14218W        W57130   2.218  21.897  19.355  0.3237 -0.1135 -0.1737
14219W        W57131   1.124  25.120  17.856 -0.0972  0.0821  0.1453
14220W        W57132   0.407  24.221  19.840  0.2095  0.0961 -0.0926
14221W        W57133  33.662  23.029  16.973  0.0438  0.1981 -0.2124
14222W        W57134   1.598  23.433  19.305  0.3813 -0.1165 -0.1133
14223W        W57135   1.516  24.528  16.682 -0.3790 -0.2807 -0.2931
14224W        W57136   2.783  26.856  18.126  0.2938 -0.1943 -0.2575
14225W        W57137   3.037  25.649  18.199  0.2438  0.0496 -0.0094
14226W        W57138   3.783  22.825  18.000  0.1961 -0.0761 -0.0516
14227W        W57139   4.779  23.924  17.772  0.2907 -0.0611 -0.2669
14228W        W57140   2.464  22.555  17.839 -0.0387  0.0237  0.0370
14229W        W57141   3.545  23.279  17.778 -0.0050 -0.1154  0.3220
14230W        W57142   3.037  22.516  17.775  0.0239  0.0015 -0.0610
14231W        W57143   1.472  24.105  19.514 -0.0853 -0.4472  0.2452
14232W        W57144  34.519  24.154  16.116  0.2145  0.2162  0.2542
14233W        W57145   1.903  25.271  16.606  0.1133  0.1573 -0.1794
14234W        W57146   0.221  27.507  17.889  0.2585 -0.1717  0.2200
14235W        W57147   1.594  23.464  20.131  0.1081  0.1760 -0.2668
14236W        W57148   0.473  22.469  18.864  0.1926 -0.2811  0.0570
14237W        W57149   0.411  24.509  18.685  0.2098 -0.1903  0.0596
14238W        W57150   0.520  23.465  17.669 -0.1028 -0.1170 -0.1000
14239W        W57151   2.197  23.451  16.871 -0.4550 -0.0040  0.0630
14240W        W57152   1.188  24.338  18.197  0.1192 -0.2159 -0.1118
14241W        W57153   0.760  20.643  18.227  0.3791  0.1763 -0.1325
14242W        W57154   2.694  24.420  16.708 -0.3156 -0.2280  0.0287
14243W        W57155   4.066  24.163  15.674  0.0011 -0.0686 -0.1043
14244W        W57156   0.353  22.434  17.378 -0.0538  0.1033  0.1094
14245W        W57157   3.627  24.933  20.397  0.0312 -0.1289  0.3163
14246W        W57158  34.432  24.497  18.310  0.0670  0.0333  0.2142
14247W        W57159   2.381  25.020  18.250  0.0034  0.0206 -0.3103
14248W        W57160   1.986  22.695  18.937  0.0059 -0.1164 -0.0750
14249W        W57161  34.374  22.335  16.871 -0.4543 -0.0639  0.3477
14250W        W57162   3.668  24.674  17.531  0.0559 -0.1235  0.0470
14251W        W57163   1.922  25.637  16.946 -0.0636  0.0606 -0.1715
14252W        W57164   1.835  26.421  15.905  0.2186 -0.1374  0.1895
14253W        W57165   1.503  25.614  18.055  0.1720  0.3185 -0.2197
14254W        W57166   0.834  25.094  20.020 -0.3084 -0.0406 -0.1606
14255W        W57167   0.592  20.817  19.076 -0.1644 -0.1088 -0.1328
14256W        W57168   1.993  23.799  16.056  0.1117 -0.0002  0.1962
14257W        W57169   1.213  26.640  19.024  0.1272  0.0987  0.0710
14258W        W57170   3.794  25.388  16.292 -0.0759  0.1455  0.2131
14259W        W57171   3.869  23.308  18.825  0.2402 -0.0292 -0.3962
14260W        W57172   2.495  24.387  17.155  0.0260 -0.0423  0.1580
14261W        W57173  34.658  22.100  19.106  0.0761  0.4088  0.2613
14262W        W57174  34.163  24.172  18.906  0.2737  0.3727  0.0293
14263W        W57175   3.319  25.224  19.677 -0.0497  0.3634 -0.2496
14264W        W57176  34.564  23.464  18.389 -0.1877 -0.1324 -0.0246
14265W        W57177   3.339  24.220  17.952  0.0014  0.1442  0.0133
14266W        W57178   2.233  25.791  16.597 -0.0824 -0.2851  0.2614
14267W        W57179   0.661  23.500  18.133 -0.1832 -0.1069 -0.1198
14268W        W57180   1.954  22.927  17.106  0.0059 -0.1611 -0.0933
14269W        W57181   2.677  24.475  20.020 -0.0928 -0.0102 -0.0076
14270W        W57182   0.571  26.452  18.218  0.3110 -0.0475  0.0154
14271W        W57183   2.680  24.844  17.062 -0.3494  0.1513  0.1998
14272W        W57184   1.025  23.892  18.115 -0.3499  0.0202  0.0773
14273W        W57185   3.772  23.583  15.802  0.1127  0.0137  0.2489
14274W        W57186   2.862  26.053  17.826  0.1025  0.1510  0.1006
14275W        W57187   3.724  25.931  19.381 -0.0436  0.0646  0.2025
14276W        W57188   3.109  23.875  19.487 -0.0986 -0.0664  0.0163
14277W        W57189   3.127  24.598  18.315 -0.0533  0.2293 -0.0270
14278W        W57190   0.845  21.538  17.489 -0.0969 -0.0336  0.0613
14279W        W57191   1.582  23.188  17.981 -0.5023  0.2600  0.0908
14280W        W57192   1.975  25.469  17.770  0.2490  0.1494  0.2747
14281W        W57193   4.270  22.624  17.087  0.1264 -0.0647  0.0798
14282W        W57194  34.478  22.674  18.293 -0.0417  0.1094 -0.2558
14283W        W57195   3.864  23.057  17.015  0.2030 -0.2967  0.0897
14284W        W57196   2.545  25.563  18.782 -0.0100 -0.1038 -0.0358
14285W        W57197   2.390  25.286  16.800 -0.1191 -0.2279  0.2035
14286W        W57198  34.484  26.104  23.148  0.0808  0.3360  0.1353
14287W        W57199   0.521  22.610  21.761 -0.1238  0.0068  0.0693
14288W        W57200   2.337  23.903  19.842  0.1768  0.0281 -0.4293
14289W        W57201   3.266  25.114  18.213  0.1182  0.0430 -0.3516
14290W        W57202   0.235  22.435  19.734 -0.0097 -0.2752 -0.0650
14291W        W57203   2.739  24.487  21.158  0.0988  0.3099 -0.5881
14292W        W57204   1.532  20.680  21.478 -0.0410 -0.0949  0.0856
14293W        W57205   2.999  24.069  22.649 -0.3530  0.0461 -0.2086
14294W        W57206   1.294  25.683  21.970 -0.0316  0.3631  0.2853
14295W        W57207   2.864  23.786  18.580 -0.1329 -0.2364  0.2565
14296W        W57208   2.091  23.186  22.101 -0.0766  0.0987  0.3458
14297W        W57209   0.602  24.798  21.659  0.1834 -0.0397  0.4330
14298W        W57210   1.260  22.123  20.383 -0.3969 -0.0591  0.0894
14299W        W57211   0.325  22.957  23.724 -0.1018  0.1022  0.1163
14300W        W57212   3.186  23.683  22.399  0.2487  0.0861  0.0044
14301W        W57213  33.999  25.368  21.859  0.0905  0.1135 -0.1742
14302W        W57214   2.009  22.823  21.207 -0.3618 -0.1137  0.3137
14303W        W57215   0.535  23.670  21.816  0.1686  0.3548 -0.0609
14304W        W57216   2.450  25.054  21.993 -0.0516  0.3710 -0.2940
14305W        W57217   1.176  23.006  20.887  0.2260  0.0268  0.3759
14306W        W57218   1.751  21.032  20.443 -0.0905 -0.0046  0.0863
14307W        W57219   1.856  24.978  19.744  0.0657  0.2039 -0.0951
14308W        W57220  34.550  22.498  20.587 -0.1376  0.0764 -0.2377
14309W        W57221  34.517  24.301  22.066  0.4912  0.0708 -0.3145
14310W        W57222   0.891  24.804  22.493  0.2483  0.0336  0.0461
14311W        W57223   2.210  24.902  22.421 -0.0289  0.1438 -0.3309
14312W        W57224   3.216  24.542  21.514  0.0867  0.2877 -0.0040
14313W        W57225   1.041  24.893  20.938 -0.1760 -0.2442  0.1113
14314W        W57226   1.569  25.157  21.299  0.1121 -0.1613  0.0972
14315W        W57227   2.240  23.870  23.803  0.0234 -0.0343 -0.1916
14316W        W57228  34.055  24.349  21.609 -0.0107  0.6233 -0.0653
14317W        W57229  33.766  25.009  21.532  0.0844 -0.3302  0.0046
14318W        W57230   2.069  25.872  19.991  0.1792  0.0634 -0.3270
14319W        W57231   3.659  24.392  20.152  0.1137 -0.1091  0.0029
14320W        W57232   1.678  25.168  23.047  0.0344 -0.2217  0.1037
14321W        W57233   0.807  25.936  23.209 -0.0445  0.1006  0.3849
14322W        W57234   0.002  25.178  20.466 -0.1050 -0.0222 -0.1327
14323W        W57235   1.451  25.407  24.968  0.0242  0.0114  0.1156
14324W        W57236   1.318  25.471  23.839 -0.1535 -0.1675  0.0068
14325W        W57237   1.665  23.119  21.544 -0.1296 -0.0600  0.0858
14326W        W57238   2.546  22.850  20.163  0.0882  0.1754  0.0142
14327W        W57239   3.672  24.726  18.049  0.2897  0.0277  0.0319
14328W        W57240   3.157  23.752  21.754  0.0661 -0.2784 -0.0231
14329W        W57241   1.369  23.442  22.661 -0.3219 -0.0075 -0.0731
14330W        W57242  34.080  25.132  23.094 -0.0540  0.2510  0.1810
14331W        W57243   3.677  22.374  23.004  0.1064  0.0498 -0.2815
14332W        W57244   0.821  24.128  20.290  0.2214 -0.1212  0.1553
14333W        W57245   2.560  23.611  19.484 -0.1570 -0.0091 -0.1153
14334W        W57246   1.227  23.447  18.967 -0.2437  0.0043 -0.2126
14335W        W57247   2.107  22.212  19.832 -0.0726 -0.3473 -0.2268
14336W        W57248   1.829  21.341  20.860 -0.3975  0.3208 -0.1993
14337W        W57249   0.688  25.304  21.667  0.3118 -0.3321  0.0006
14338W        W57250   1.857  23.743  22.796  0.1375 -0.0424  0.2504
14339W        W57251   1.347  24.977  23.770 -0.0073 -0.2243  0.1371
14340W        W57252   2.363  23.659  21.370 -0.0548  0.0848  0.0402
14341W        W57253   2.132  23.764  23.239  0.1340  0.1044 -0.0922
14342W        W57254   0.841  25.476  24.144 -0.1140  0.1850 -0.0572
14343W        W57255   0.506  25.064  20.417 -0.2180  0.2102 -0.2401
14344W        W57256   2.644  25.738  20.115 -0.0739  0.0275 -0.4104
14345W        W57257   3.344  24.877  19.233 -0.1890 -0.1249  0.1472
14346W        W57258   2.436  25.721  21.188  0.2273  0.1221  0.2668
14347W        W57259   1.868  23.049  20.142 -0.1496 -0.2305 -0.2375
14348W        W57260   0.130  25.008  23.206 -0.1474 -0.1254  0.3547
14349W        W57261  34.201  23.350  24.671  0.1197  0.0589 -0.2330
14350W        W57262   0.662  22.907  20.573 -0.2155  0.1730 -0.4025
14351W        W57263   3.754  24.553  22.145 -0.0119 -0.1432  0.1907
14352W        W57264   0.634  24.234  22.608 -0.4010  0.1902 -0.1277
14353W        W57265   2.322  23.621  22.341  0.1634  0.1038  0.0533
14354W        W57266   0.036  24.742  21.312 -0.3721  0.0765  0.1068
14355W        W57267   2.164  25.162  21.643 -0.5232  0.1980 -0.0043
14356W        W57268   2.967  25.606  19.148  0.0353 -0.0771 -0.0549
14357W        W57269   2.601  23.587  23.627 -0.1510  0.1969 -0.2642
14358W        W57270   3.297  21.957  23.176 -0.0034  0.2803 -0.0579
14359W        W57271   0.174  24.410  19.396  0.2424 -0.0781  0.0784
14360W        W57272   2.430  23.693  20.404 -0.2055  0.2258  0.5089
14361W        W57273   3.544  24.086  22.479 -0.0269  0.0934  0.3661
14362W        W57274   4.195  22.629  19.399  0.1861  0.2560 -0.1101
14363W        W57275   0.141  24.498  22.454 -0.0185  0.0532 -0.2536
14364W        W57276   1.253  23.798  22.350  0.0403 -0.0644 -0.1775
14365W        W57277   0.603  25.908  23.673 -0.1284  0.0508  0.0117
14366W        W57278   0.632  24.971  19.581  0.2089 -0.0857  0.3110
14367W        W57279  34.174  23.853  21.422  0.1018  0.0772 -0.0136
14368W        W57280   0.620  23.824  21.244  0.4331  0.0232 -0.1610
14369W        W57281  34.137  23.351  21.916 -0.2310  0.0160 -0.0016
14370W        W57282   1.956  24.185  23.035 -0.1184  0.0918  0.0052
14371W        W57283   2.394  21.705  20.729  0.0438 -0.1989  0.0402
14372W        W57284   1.757  23.218  23.020  0.0177 -0.0969 -0.0658
14373W        W57285   3.178  22.057  20.676 -0.0538 -0.0437 -0.0770
14374W        W57286   0.628  24.596  20.620 -0.1395  0.2568 -0.0971
14375W        W57287   2.525  24.994  21.107  0.1290 -0.0657 -0.2664
14376W        W57288   3.054  22.629  19.994  0.4672 -0.3003 -0.2552
14377W        W57289   1.932  24.380  19.557 -0.1984 -0.0947  0.3355
14378W        W57290  34.595  24.230  21.518 -0.1284  0.1924 -0.1486
14379W        W57291  33.669  23.346  20.725 -0.1953  0.1164  0.0690
14380W        W57292   0.863  22.152  21.815 -0.0051  0.0712 -0.1362
14381W        W57293   0.605  23.255  21.497  0.1007 -0.0188 -0.0834
14382W        W57294   3.861  23.262  23.975 -0.3725  0.2040 -0.1980
14383W        W57295  34.577  22.087  19.662 -0.0046 -0.0086 -0.2903
14384W        W57296   2.494  23.389  21.853  0.2797 -0.0960  0.2346
14385W        W57297   0.658  22.924  21.052  0.0795  0.2905  0.1895
14386W        W57298  32.847  23.045  20.840  0.0297  0.1829 -0.2700
14387W        W57299   2.728  21.388  23.079 -0.2460 -0.0347 -0.2465
14388W        W57300   1.609  26.219  20.846 -0.0890 -0.0365  0.0006
14389W        W57301   2.860  25.927  21.862 -0.2655 -0.0301 -0.0300
14390W        W57302   3.655  23.362  21.914 -0.0409 -0.0286 -0.0068
14391W        W57303   1.346  23.215  22.185 -0.2047  0.0134  0.2077
14392W        W57304   1.055  20.884  19.245 -0.1453  0.1005 -0.1814
14393W        W57305  34.225  25.459  22.511  0.1545 -0.2832 -0.0317
14394W        W57306   1.251  24.229  20.691 -0.1293 -0.1328 -0.1652
14395W        W57307   1.156  23.715  19.409  0.0987 -0.1448 -0.1566
14396W        W57308   4.810  24.081  21.912  0.1413  0.0238 -0.0252
14397W        W57309   1.393  24.344  21.187  0.1837 -0.0472 -0.4485
14398W        W57310   0.929  23.631  22.666  0.1876  0.3471 -0.0112
14399W        W57311   3.213  21.013  23.116  0.0318  0.3519  0.1309
14400W        W57312   4.245  22.200  22.925  0.2081 -0.3307 -0.0012
14401W        W57313   2.390  23.915  21.810  0.0554 -0.1544 -0.2282
14402W        W57314   1.236  22.994  19.289  0.1609  0.2780  0.2319
14403W        W57315   1.020  25.674  21.567 -0.0782 -0.0207  0.1911
14404W        W57316   0.603  25.948  20.819  0.2417  0.3663 -0.0239
14405W        W57317  34.208  24.965  22.659  0.0852  0.0605 -0.1548
14406W        W57318   1.554  25.164  19.401  0.3177 -0.0190  0.2548
14407W        W57319   2.895  23.676  20.622 -0.0811 -0.1498  0.2001
14408W        W57320   0.644  25.032  24.002 -0.0707  0.1613 -0.2301
14409W        W57321   2.787  22.945  22.705  0.1589  0.2689 -0.0811
14410W        W57322   1.443  22.992  19.767  0.0794 -0.1531 -0.0631
14411W        W57323   2.664  24.468  22.662 -0.1150 -0.1097 -0.1448
14412W        W57324   2.830  22.388  20.406  0.1352 -0.2864  0.1001
14413W        W57325   1.847  23.418  20.610 -0.1582  0.0008  0.0430
14414W        W57326   1.781  25.305  23.591  0.0284  0.2067 -0.0389
14415W        W57327   4.159  23.357  20.990  0.2191  0.0011 -0.1448
14416W        W57328   2.179  23.784  18.902 -0.2795 -0.3153 -0.1285
14417W        W57329   3.275  22.156  19.105  0.1280 -0.1446 -0.3511
14418W        W57330  33.852  25.522  23.437  0.1645 -0.1973 -0.0044
14419W        W57331   1.626  23.840  21.006  0.0370 -0.0332  0.1198
14420W        W57332   0.533  24.582  21.211 -0.0535 -0.0089  0.1750
14421W        W57333   2.176  23.781  20.857 -0.4152 -0.0589 -0.2201
14422W        W57334   3.577  23.167  19.519  0.1052  0.2631 -0.0127
14423W        W57335  34.210  25.469  21.389 -0.1163 -0.1970 -0.0295
14424W        W57336   1.249  24.469  23.849  0.1932  0.0224  0.0204
14425W        W57337   1.813  24.577  22.268  0.3630 -0.1275  0.0154
14426W        W57338   0.364  23.050  22.103 -0.5074  0.0604 -0.0316
14427W        W57339   2.272  24.209  21.313 -0.0977  0.0260  0.0521
14428W        W57340   2.155  22.407  20.964 -0.2848  0.0188 -0.3325
14429W        W57341   0.634  26.425  19.657  0.3209  0.0504  0.1334
14430W        W57342   2.644  21.965  22.987 -0.1269  0.1770 -0.0849
14431W        W57343   1.682  23.138  21.014  0.0249  0.0637 -0.3916
14432W        W57344   1.207  22.329  22.794  0.1612 -0.2232  0.0783
14433W        W57345   2.927  24.550  23.265 -0.0342 -0.0219 -0.1773
14434W        W57346   2.984  24.273  18.756  0.0240  0.1891 -0.2783
14435W        W57347   3.162  23.586  22.924 -0.2923 -0.0347  0.0225
14436W        W57348   0.871  23.410  21.073  0.2883 -0.0124 -0.2158
14437W        W57349   1.653  21.911  22.886  0.0332 -0.1407  0.0580
14438W        W57350   2.017  24.038  22.375  0.2308 -0.0566 -0.2117
14439W        W57351  34.470  25.448  23.474 -0.0787 -0.2277  0.0231
14440W        W57352   2.135  25.010  22.893  0.1029 -0.0997  0.0134
14441W        W57353   1.265  25.512  22.945 -0.0295 -0.1255  0.0507
14442W        W57354   2.493  22.112  23.763  0.1490 -0.2389 -0.1446
14443W        W57355   1.381  24.364  18.662 -0.1182 -0.1296  0.0857
14444W        W57356   1.398  25.449  20.937 -0.1019  0.0547 -0.0171
14445W        W57357   1.016  24.282  19.139  0.0238  0.2715 -0.0823
14446W        W57358   1.059  22.481  20.999  0.2282 -0.0082 -0.0566
14447W        W57359   2.384  25.343  22.622  0.1962  0.3232 -0.1275
14448W        W57360   1.903  24.807  19.232 -0.0134 -0.1228  0.1816
14449W        W57361   1.759  24.601  21.390 -0.0942  0.2043 -0.2065
14450W        W57362   1.827  24.484  20.625  0.1782 -0.0560  0.3049
14451W        W57363   1.051  21.522  21.130  0.2054 -0.2448  0.0035
14452W        W57364  34.344  25.030  20.868 -0.2981 -0.4921  0.2277
14453W        W57365   1.917  23.282  19.714  0.0597  0.0126  0.3798
14454W        W57366   1.979  24.165  21.717  0.1586  0.2489  0.1465
14455W        W57367   2.975  23.204  20.470 -0.2140 -0.0372 -0.0412
14456W        W57368   2.760  24.210  19.585  0.0594  0.1397 -0.0201
14457W        W57369   2.117  21.963  22.715  0.2899 -0.4672  0.0702
14458W        W57370   1.125  23.893  21.112  0.1427  0.0514 -0.1020
14459W        W57371   0.368  26.374  23.052  0.2158  0.0257  0.0859
14460W        W57372   2.444  23.733  24.268  0.1284 -0.3161  0.0642
14461W        W57373   3.059  22.392  19.550 -0.3694 -0.1537  0.1607
14462W        W57374   1.670  23.653  24.804 -0.0146 -0.2238  0.2249
14463W        W57375   0.178  25.098  21.684 -0.0318 -0.0094 -0.1047
14464W        W57376  34.154  22.292  19.208 -0.1295  0.0684 -0.3395
14465W        W57377   4.061  22.698  22.295  0.0200 -0.3991 -0.2445
14466W        W57378   1.121  22.638  20.537  0.0841  0.0100 -0.2415
14467W        W57379   0.505  25.060  21.258 -0.1766  0.1469 -0.0082
14468W        W57380   1.514  26.255  22.162 -0.2922  0.0010 -0.1071
14469W        W57381   1.410  23.442  21.270 -0.0401 -0.1192  0.3044
14470W        W57382   0.183  23.913  22.542  0.1905 -0.1744  0.0843
14471W        W57383   0.710  22.635  23.719  0.0933 -0.2883  0.1698
14472W        W57384   1.266  25.187  23.333 -0.0418 -0.1051  0.1513
14473W        W57385   1.125  23.544  24.745 -0.0646 -0.0490 -0.1772
14474W        W57386   1.037  23.034  20.108 -0.1207  0.2289  0.0495
14475W        W57387   2.131  23.312  21.010 -0.0267 -0.1381 -0.0072
14476W        W57388   1.199  25.711  23.409 -0.0491  0.2087  0.1112
14477W        W57389   0.673  24.446  23.304  0.3300  0.1743 -0.5102
14478W        W57390   0.514  23.740  22.968  0.0290  0.0669 -0.0877
14479W        W57391   2.802  21.115  21.331 -0.1679 -0.0815 -0.0659
14480W        W57392   2.841  25.170  20.763 -0.3259  0.1576  0.0376
14481W        W57393   2.927  23.714  23.969 -0.0484  0.2497 -0.1476
14482W        W57394   1.185  24.565  20.098 -0.0540  0.2636  0.0124
14483W        W57395  33.672  24.926  22.873  0.0888  0.0386 -0.0757
14484W        W57396   0.975  24.908  20.463 -0.0024 -0.2832  0.0186
14485W        W57397   2.115  24.660  23.246 -0.1226  0.3195 -0.0529
14486W        W57398   0.342  25.440  20.799  0.1430 -0.1480 -0.1236
14487W        W57399   0.838  23.745  20.626 -0.0575  0.2277 -0.0683
14488W        W57400   0.100  27.265  20.680  0.1225  0.1713  0.0477
14489W        W57401   3.388  22.440  20.297  0.4089 -0.2771  0.1198
14490W        W57402   3.054  25.493  20.072  0.0436 -0.0179  0.2438
14491W        W57403   0.908  22.923  21.975 -0.1822  0.2386  0.1331
14492W        W57404   2.719  21.744  23.474 -0.0500  0.0227 -0.0430
14493W        W57405   3.171  23.820  21.066  0.0698  0.1057  0.0491
14494W        W57406   2.569  22.477  22.708 -0.2251  0.1361  0.0399
14495W        W57407   0.595  21.592  22.238  0.1215  0.3201  0.0045
14496W        W57408   5.206  23.770  21.789  0.1560  0.0343 -0.0660
14497W        W57409   1.669  23.967  22.030  0.1951 -0.1669 -0.3089
14498W        W57410   2.059  24.735  24.189  0.1791  0.1823 -0.1481
14499W        W57411  34.681  25.315  21.184  0.1510  0.3739  0.1484
14500W        W57412   2.091  23.590  20.122  0.2382  0.2346 -0.0701
14501W        W57413   0.647  21.588  20.169 -0.1363 -0.0725 -0.1098
14502W        W57414   1.872  23.558  21.344 -0.1048 -0.2924 -0.1121
14503W        W57415   3.789  24.107  20.717  0.1045 -0.0774 -0.0191
14504W        W57416   1.892  24.239  21.042  0.1036 -0.2609  0.0124
14505W        W57417   2.725  23.530  22.645 -0.1049 -0.0359  0.0130
14506W        W57418   1.154  24.417  22.853  0.4590 -0.1669  0.0716
14507W        W57419   2.615  24.016  20.835  0.0985 -0.0683  0.0727
14508W        W57420   2.768  24.068  20.320 -0.1026  0.2493  0.0542
14509W        W57421   0.889  22.748  21.462  0.1023 -0.0694 -0.0536
14510W        W57422   1.435  21.714  22.435  0.0901 -0.1401  0.1220
14511W        W57423   3.053  24.221  20.720 -0.2999  0.1787  0.1849
14512W        W57424   1.909  22.051  20.550  0.0645 -0.1886  0.3441
14513W        W57425   2.435  22.293  23.307  0.0701  0.0997  0.0310
14514W        W57426   3.747  21.839  23.942  0.1447  0.0314  0.1460
14515W        W57427   1.778  23.603  23.677  0.1235  0.1016 -0.0707
14516W        W57428  34.637  22.541  23.783 -0.0723  0.0519  0.0398
14517W        W57429   1.953  25.919  21.488 -0.1458 -0.2182  0.0176
14518W        W57430   4.729  23.268  20.151  0.0075 -0.1411  0.2037
14519W        W57431   3.360  22.546  24.341 -0.0564 -0.0185  0.0520
14520W        W57432   2.308  24.689  21.439  0.2666  0.0760  0.0209
14521W        W57433   2.425  23.281  19.818 -0.0712 -0.1247 -0.1070
14522W        W57434   0.508  23.318  22.487  0.0518 -0.0045  0.1845
14523W        W57435   1.794  23.166  23.982 -0.0498  0.1076  0.2819
14524W        W57436   2.521  21.919  19.768 -0.0854 -0.2811 -0.2560
14525W        W57437   2.413  23.962  22.812 -0.0264  0.1054  0.0027
14526W        W57438   2.738  24.724  20.465  0.1338 -0.0387  0.0860
14527W        W57439   1.935  24.903  21.039 -0.4320  0.1269 -0.1997
14528W        W57440   2.912  23.147  19.992 -0.1158  0.0028 -0.1529
14529W        W57441   1.038  23.707  21.575  0.1805  0.4783  0.0411
14530W        W57442   1.163  24.934  24.711  0.1018  0.2338  0.0104
14531W        W57443   0.688  22.685  19.321  0.2021  0.1285 -0.3736
14532W        W57444   2.383  24.985  19.944 -0.1156 -0.0611  0.4221
14533W        W57445   1.772  25.584  22.684 -0.2064  0.1150 -0.1538
14534W        W57446   3.433  23.849  24.351  0.2213  0.2098  0.0601
14535W        W57447   1.214  22.550  20.054 -0.2740 -0.0831  0.0645
14536W        W57448   3.435  22.074  22.692 -0.0616 -0.3906 -0.1115
14537W        W57449   0.291  24.683  20.196  0.1239 -0.1455 -0.0934
14538W        W57450   2.159  23.186  21.528  0.0791  0.1776 -0.1209
14539W        W57451   0.369  26.317  20.407 -0.0867  0.2827  0.0365
14540W        W57452   0.904  24.034  22.962  0.0417  0.2159  0.0324
14541W        W57453   1.526  23.937  21.538 -0.0174 -0.0472  0.1623
14542W        W57454   1.928  22.305  21.407 -0.1496  0.0849 -0.3756
14543W        W57455   2.648  23.503  20.996 -0.2367  0.1771 -0.0614
14544W        W57456   1.025  24.751  23.484 -0.0780  0.1765 -0.0282
14545W        W57457   2.781  23.049  23.488 -0.0194 -0.0857  0.4656
14546W        W57458   1.911  24.761  23.701  0.0244 -0.0950  0.0103
14547W        W57459   1.036  23.107  23.599 -0.2196 -0.1862 -0.0202
14548W        W57460   1.036  24.739  24.262  0.1564  0.2027  0.0251
14549W        W57461   3.838  24.884  21.786  0.0915 -0.1489 -0.2126
14550W        W57462   0.139  25.905  20.594 -0.3039 -0.0749  0.0643
14551W        W57463  34.539  23.073  22.172 -0.1838 -0.1721  0.0247
14552W        W57464   0.783  23.999  23.460  0.1290  0.1540  0.2153
14553W        W57465   2.772  23.675  22.135 -0.1853  0.0446 -0.0251
14554W        W57466  34.644  23.377  22.630 -0.0728  0.2064 -0.1027
14555W        W57467   3.535  24.564  20.644  0.0549  0.0459 -0.1831
14556W        W57468   0.018  25.851  23.647  0.0036 -0.1037  0.1118
14557W        W57469   1.119  24.058  21.921  0.0810  0.0298 -0.1814
14558W        W57470   1.431  25.974  20.175  0.4546 -0.0417 -0.1058
14559W        W57471   3.438  24.163  21.819 -0.0679 -0.0062 -0.0870
14560W        W57472   2.333  24.512  22.069  0.0361  0.0577 -0.1266
14561W        W57473   1.819  25.891  22.045  0.0438  0.2601 -0.1682
14562W        W57474   2.424  23.170  20.593 -0.3404  0.1787  0.0043
14563W        W57475   1.314  24.807  22.220 -0.0029 -0.1518 -0.1691
14564W        W57476   1.052  24.599  21.863  0.1101  0.6682  0.0542
14565W        W57477   3.779  25.143  21.356  0.0800 -0.2010  0.0425
14566W        W57478  34.303  27.382  20.944 -0.0182 -0.3088  0.0985
14567W        W57479   2.768  23.838  23.178 -0.0832  0.0384 -0.3465
14568W        W57480   3.234  21.724  18.334  0.0353  0.1913 -0.2629
14569W        W57481   3.941  22.933  21.730  0.0244 -0.0949 -0.0177
14570W        W57482   3.330  22.694  18.908 -0.0078 -0.2930  0.1121
14571W        W57483   2.263  24.276  23.644 -0.1944  0.0426  0.0752
14572W        W57484   1.363  23.477  20.797  0.1666  0.1592 -0.0055
14573W        W57485   2.456  22.415  19.444 -0.2766  0.0985  0.0955
14574W        W57486   0.393  24.047  23.891 -0.3738  0.0083 -0.0893
14575W        W57487   3.196  23.193  22.599 -0.0382 -0.1766  0.0599
14576W        W57488   0.614  25.918  24.362 -0.1487  0.2239  0.3299
14577W        W57489   4.535  25.683  21.601  0.7648  0.2719  0.1086
14578W        W57490  34.409  23.340  21.431 -0.1753  0.3830  0.0291
14579W        W57491   1.721  24.576  22.818 -0.0491  0.1432  0.1080
14580W        W57492   3.205  23.090  23.199 -0.0314  0.0272  0.3505
14581W        W57493   1.685  24.312  20.099 -0.3032 -0.1001  0.3437
14582W        W57494   2.033  23.621  21.809  0.0044 -0.0666  0.0970
14583W        W57495   1.139  26.417  20.709 -0.1323  0.0125 -0.0151
14584W        W57496  34.632  25.798  22.749  0.2108  0.1831  0.1033
14585W        W57497   0.038  25.469  22.393 -0.1578 -0.0057  0.1872
14586W        W57498   0.484  21.741  19.135 -0.2875  0.1295 -0.0146
14587W        W57499   3.234  22.836  19.462  0.0213 -0.1616 -0.0058
14588W        W57500   2.162  24.438  22.677  0.2615  0.1048  0.2052
14589W        W57501   2.542  21.645  22.585  0.0045  0.1173 -0.2646
14590W        W57502   1.842  23.837  19.790 -0.2191 -0.1574  0.1982
14591W        W57503   3.330  22.918  20.589  0.3054  0.3270 -0.0823
14592W        W57504   1.746  25.022  22.567  0.2678 -0.0749 -0.1245
14593W        W57505   1.055  24.343  22.332 -0.0721  0.2991  0.0157
14594W        W57506   2.435  24.586  19.602 -0.1528 -0.0618  0.1242
14595W        W57507   3.261  24.588  22.334  0.0060  0.4978  0.0354
14596W        W57508   2.693  23.649  19.999 -0.3235 -0.1138  0.1849
14597W        W57509   2.746  25.505  24.183  0.0773 -0.3449 -0.1399
14598W        W57510   1.016  23.281  20.509  0.1258 -0.1373 -0.0194
14599W        W57511   1.737  23.594  18.843 -0.2727  0.0978 -0.2290
14600W        W57512  34.444  24.666  21.759 -0.2029 -0.0078  0.2292
14601W        W57513   1.447  22.374  22.022 -0.1813  0.0559  0.2231
14602W        W57514   3.138  26.233  21.207 -0.0895  0.3807 -0.1602
14603W        W57515  33.981  22.429  21.329  0.2801  0.1856 -0.0141
14604W        W57516   3.028  24.774  18.896  0.2709  0.3421  0.0181
14605W        W57517   3.656  23.577  22.509 -0.0038 -0.2343  0.1845
14606W        W57518   2.355  25.506  19.784  0.0097  0.1321  0.2106
14607W        W57519   3.653  23.908  21.485  0.0475 -0.1423  0.1882
14608W        W57520   1.972  25.477  21.258 -0.0729  0.0304  0.1081
14609W        W57521  33.902  22.477  23.043  0.1322  0.1448  0.0336
14610W        W57522   1.996  26.814  21.898  0.2500  0.1189  0.2408
14611W        W57523   3.618  24.467  22.978  0.1113  0.1565  0.0396
14612W        W57524   2.593  22.378  19.943 -0.0063 -0.1802 -0.0307
14613W        W57525   1.439  23.520  21.818 -0.4885 -0.1745  0.0847
14614W        W57526   1.282  24.781  21.418  0.1029 -0.1907  0.1107
14615W        W57527   3.657  23.851  22.931 -0.0136 -0.1197  0.0729
14616W        W57528   1.519  23.606  23.167 -0.3498  0.0139  0.2066
14617W        W57529   2.623  24.521  19.113  0.0006 -0.0733 -0.2489
14618W        W57530   3.087  23.313  21.997  0.1398 -0.3531  0.0560
14619W        W57531  34.499  25.325  22.944 -0.2341  0.1209 -0.0423
14620W        W57532   0.442  26.681  23.394 -0.0368  0.2247  0.2097
14621W        W57533   0.584  23.204  20.164 -0.0072 -0.1396 -0.0324
14622W        W57534   1.220  23.801  24.267  0.0199 -0.0960  0.2327
14623W        W57535   2.001  25.194  20.228 -0.0444 -0.2104  0.4050
14624W        W57536   1.427  26.651  21.725 -0.1632 -0.0507 -0.2125
14625W        W57537   2.144  25.485  23.134  0.0098  0.2209 -0.2729
14626W        W57538   1.601  22.643  20.839 -0.0499 -0.2831  0.0024
14627W        W57539   4.344  25.731  21.056 -0.1766  0.0546 -0.0559
14628W        W57540   1.146  21.704  21.868 -0.0556 -0.0600 -0.1991
14629W        W57541   3.633  23.243  22.965 -0.0243 -0.5584 -0.0381
14630W        W57542   3.552  22.012  20.099  0.2983 -0.1936 -0.2677
14631W        W57543   0.926  23.101  22.503 -0.0241  0.0139  0.2322
14632W        W57544   0.060  23.846  19.968  0.0613 -0.0313  0.1629
14633W        W57545   0.701  25.232  18.153  0.0153  0.1439 -0.2881
14634W        W57546   0.744  23.901  22.240 -0.1405  0.2202 -0.0532
14635W        W57547   1.570  21.961  21.729  0.1663 -0.0589 -0.1260
14636W        W57548  34.679  22.840  22.562  0.2439  0.2063  0.0077
14637W        W57549   0.270  24.914  22.132 -0.1929 -0.1344 -0.2166
14638W        W57550  33.669  22.421  21.749 -0.0588  0.0276 -0.0206
14639W        W57551   4.281  24.154  21.698  0.1762 -0.1552 -0.0273
14640W        W57552  34.603  22.358  21.052 -0.2444  0.0332 -0.1150
14641W        W57553  33.954  22.900  21.673 -0.0719 -0.2165 -0.2819
14642W        W57554   2.229  24.728  20.392  0.0205 -0.1651 -0.0804
14643W        W57555   2.367  24.448  20.793  0.1841 -0.1124 -0.1130
14644W        W57556   1.439  21.510  19.754 -0.0387 -0.0136 -0.0053
14645W        W57557   2.309  25.116  23.425  0.0254 -0.2744  0.0070
14646W        W57558   0.726  23.821  19.665 -0.0749 -0.0368  0.0834
14647W        W57559   1.412  22.857  25.216 -0.0763  0.1915  0.0970
14648W        W57560   0.930  22.534  22.310 -0.0906 -0.2492 -0.1490
14649W        W57561  33.649  22.073  18.075  0.0836 -0.0369 -0.2642
14650W        W57562   2.178  23.282  23.403  0.0884 -0.0498 -0.1041
14651W        W57563   1.773  25.488  19.795 -0.4312 -0.0329 -0.0440
14652W        W57564   2.884  26.142  19.838 -0.0427  0.1351  0.0760
14653W        W57565   1.276  24.981  22.709 -0.2903 -0.0460 -0.0456
14654W        W57566   1.204  25.961  23.917  0.1447 -0.2336 -0.3511
14655W        W57567  34.573  22.381  23.334  0.1879  0.1202  0.1114
14656W        W57568   2.238  24.174  20.391 -0.1910 -0.0966 -0.0026
14657W        W57569   0.639  24.480  22.098  0.1406  0.2012 -0.2703
14658W        W57570   3.093  24.412  19.218  0.2023  0.0078  0.2441
14659W        W57571   1.782  23.568  22.287  0.0708 -0.1060  0.3623
14660W        W57572   2.659  24.343  21.719  0.0678  0.2734 -0.0069
14661W        W57573   1.272  23.117  23.157 -0.2304 -0.2146  0.1510
14662W        W57574   1.226  24.313  23.362 -0.1243 -0.0513  0.1441
14663W        W57575   2.637  23.350  23.125 -0.0657  0.0727  0.2032
14664W        W57576  34.441  22.373  21.535  0.0447  0.0291 -0.0240
14665W        W57577   2.373  24.153  19.302  0.1218  0.0482  0.0431
14666W        W57578   2.269  25.182  20.706 -0.1758  0.1235  0.0766
14667W        W57579   0.270  24.010  22.079  0.0788  0.2209  0.1137
14668W        W57580   1.642  22.477  20.376  0.1330 -0.2174  0.1534
14669W        W57581   1.297  23.897  23.630  0.4559 -0.0921 -0.0191
14670W        W57582   1.207  25.123  21.794 -0.0478 -0.0965 -0.3412
14671W        W57583   2.365  25.405  23.834  0.0141  0.1571  0.3199
14672W        W57584   2.014  22.849  20.651 -0.0254 -0.1181  0.5281
14673W        W57585   3.600  24.219  19.559  0.2214 -0.1035  0.0072
14674W        W57586   1.361  25.353  22.319 -0.0097 -0.4807  0.3123
14675W        W57587   1.694  24.902  21.862 -0.0202 -0.2448 -0.1504
14676W        W57588   0.853  25.326  23.612  0.0406  0.1022  0.0860
14677W        W57589   2.552  24.066  22.343  0.3860 -0.1712 -0.1611
14678W        W57590   0.263  22.061  20.958 -0.1123 -0.1691  0.1700
14679W        W57591   0.502  23.728  20.207  0.1782  0.0582 -0.2939
14680W        W57592   0.839  23.801  19.046  0.1033 -0.0806  0.2468
14681W        W57593   3.379  22.691  23.286  0.0280  0.1132 -0.2357
14682W        W57594   0.911  21.977  20.938 -0.0917 -0.1831  0.1201
14683W        W57595   2.580  20.416  20.307 -0.1437 -0.2713  0.1034
14684W        W57596   0.274  25.855  23.121  0.0402  0.1615 -0.0677
14685W        W57597   0.653  24.496  23.754  0.0460  0.1927 -0.2003
14686W        W57598   1.819  23.772  26.544 -0.0582 -0.3939 -0.1751
14687W        W57599  34.609  23.972  23.841  0.0552  0.1820 -0.0571
14688W        W57600   2.152  22.871  23.716  0.0227 -0.0442  0.0136
14689W        W57601   2.967  22.814  24.603 -0.2752 -0.0218 -0.3102
14690W        W57602  34.573  24.337  24.260 -0.1781 -0.0823  0.1515
14691W        W57603   2.925  25.959  23.376 -0.0826  0.4591 -0.0232
14692W        W57604   1.090  22.469  26.660 -0.0838  0.0695  0.0776
14693W        W57605   0.617  24.769  26.270 -0.0380 -0.0889  0.0066
14694W        W57606   3.752  25.969  25.902  0.2420 -0.0751  0.0940
14695W        W57607   1.313  25.197  24.288  0.0197 -0.1157  0.1846
14696W        W57608   0.835  22.897  26.911  0.3211 -0.2497 -0.0545
14697W        W57609   3.361  25.608  27.594  0.2902 -0.2269 -0.2770
14698W        W57610   2.177  21.677  23.532 -0.1209  0.2464 -0.0127
14699W        W57611  33.792  24.203  25.181 -0.2381 -0.1267  0.0001
14700W        W57612   2.634  22.587  26.582  0.2188 -0.2337 -0.0540
14701W        W57613  34.099  24.472  24.134  0.0259  0.0690  0.1117
14702W        W57614   0.272  23.430  27.722 -0.4611 -0.0412  0.2371
14703W        W57615   1.598  24.424  25.488  0.2234 -0.1992  0.3564
14704W        W57616   1.836  26.238  25.159 -0.0797 -0.4042 -0.0153
14705W        W57617   0.839  23.524  27.689 -0.0900 -0.0958 -0.0261
14706W        W57618   0.505  22.646  26.499  0.0413 -0.1625 -0.1497
14707W        W57619   0.267  25.699  24.089  0.0114  0.3105 -0.0613
14708W        W57620  34.524  22.290  24.736 -0.0515 -0.3849  0.1012
14709W        W57621   0.101  23.993  25.798  0.2888 -0.0076  0.3471
14710W        W57622   1.058  24.367  27.779 -0.0026 -0.3205 -0.1000
14711W        W57623   3.330  23.008  24.219 -0.0166 -0.1664 -0.0581
14712W        W57624   2.875  24.247  26.250  0.4566  0.1961 -0.0620
14713W        W57625   2.251  25.984  25.002  0.1305  0.1546 -0.0142
14714W        W57626   0.469  24.713  24.693 -0.0216 -0.1675 -0.1329
14715W        W57627   3.903  23.205  26.365  0.1743  0.0331 -0.0461
14716W        W57628   0.058  25.400  25.343 -0.3331  0.0819  0.1691
14717W        W57629  33.864  25.947  26.907  0.3177  0.0768 -0.0463
14718W        W57630  34.095  25.682  24.418  0.0614 -0.1726 -0.0613
14719W        W57631   3.060  23.471  23.393  0.0838  0.1155 -0.0515
14720W        W57632   2.377  24.361  26.960  0.0287 -0.1211  0.0196
14721W        W57633   1.435  25.854  28.150 -0.0416  0.1733 -0.0743
14722W        W57634  33.859  25.436  24.904  0.0581  0.0859 -0.0306
14723W        W57635   1.300  25.366  26.949  0.2318 -0.0218  0.2402
14724W        W57636   2.511  24.752  27.210 -0.5070 -0.0533  0.0096
14725W        W57637   2.835  24.639  26.730  0.2136  0.3431  0.0488
14726W        W57638   1.302  24.081  24.833 -0.4238 -0.0765  0.1263
14727W        W57639   0.674  24.287  24.346 -0.0770 -0.4657  0.3030
14728W        W57640  33.763  24.595  25.958  0.2339  0.1853  0.1305
14729W        W57641   1.691  23.954  27.075 -0.0927 -0.0338  0.0311
14730W        W57642  34.153  24.513  25.128 -0.1572  0.4219 -0.2278
14731W        W57643   3.699  22.896  27.151 -0.3343  0.3873  0.0856
14732W        W57644  34.434  26.435  24.059 -0.1136  0.1100 -0.1135
14733W        W57645   3.799  22.287  24.285  0.3137 -0.0050 -0.1230
14734W        W57646   0.962  23.081  25.575  0.1176 -0.1799 -0.0424
14735W        W57647   1.884  21.680  25.677 -0.0044 -0.0470 -0.0848
14736W        W57648   2.017  21.640  25.214 -0.2306  0.0186  0.1900
14737W        W57649   1.026  25.429  24.661  0.1279 -0.2092 -0.2365
14738W        W57650   1.371  22.202  23.781  0.0489 -0.1015 -0.1376
14739W        W57651   2.451  25.590  26.780 -0.0795 -0.0060  0.1468
14740W        W57652   1.254  24.263  24.301  0.1297  0.2005 -0.0070
14741W        W57653   2.055  22.243  26.409 -0.0713  0.0796 -0.0936
14742W        W57654   0.382  26.243  25.905 -0.2174  0.0971  0.0147
14743W        W57655   0.933  23.675  25.718 -0.0234  0.1727 -0.2924
14744W        W57656   1.921  26.141  23.840 -0.2692  0.2042 -0.3590
14745W        W57657   1.826  25.630  24.050 -0.2273  0.1841  0.0919
14746W        W57658   2.388  26.333  24.040  0.2385  0.1537  0.2491
14747W        W57659   0.211  25.200  24.212  0.0718  0.1215  0.1823
14748W        W57660   0.402  25.881  27.011  0.2083  0.1474  0.5830
14749W        W57661   1.149  25.175  27.475 -0.0565 -0.0447 -0.0603
14750W        W57662   0.346  22.560  21.292  0.0545  0.0744  0.3926
14751W        W57663   4.707  24.715  26.807 -0.0991 -0.0775  0.0353
14752W        W57664  34.495  25.716  27.380 -0.0120 -0.0072 -0.0462
14753W        W57665   4.216  22.136  24.127 -0.1398  0.1015  0.0115
14754W        W57666   0.828  23.817  25.197  0.1626 -0.4050  0.0238
14755W        W57667   2.124  23.822  24.637  0.0449 -0.1610  0.1781
14756W        W57668   2.548  21.268  25.274 -0.0542 -0.2837 -0.0203
14757W        W57669   3.261  21.848  24.194  0.1350  0.2662 -0.2274
14758W        W57670   3.104  21.917  26.345  0.0329  0.0047  0.0961
14759W        W57671   0.908  24.082  23.978 -0.0134 -0.1949  0.0590
14760W        W57672   0.620  22.945  23.265  0.5576  0.0379  0.1446
14761W        W57673   3.228  24.123  25.367 -0.1228 -0.0330 -0.2642
14762W        W57674   4.164  22.001  24.638 -0.0215 -0.1037  0.0029
14763W        W57675  34.467  25.937  26.907  0.0627 -0.1223 -0.2197
14764W        W57676   0.946  23.134  27.334  0.0075 -0.1041 -0.1112
14765W        W57677   2.241  25.189  27.032 -0.1067  0.1152  0.1998
14766W        W57678  34.413  27.090  24.014  0.1781 -0.3410  0.1934
14767W        W57679   0.636  25.240  25.003 -0.2462  0.0194  0.2963
14768W        W57680  34.657  23.644  25.429  0.1827 -0.2598  0.0892
14769W        W57681  34.222  23.156  28.165  0.1019  0.0190 -0.2272
14770W        W57682   0.977  25.118  25.520  0.1556 -0.0776  0.3429
14771W        W57683   4.625  22.380  24.392 -0.1717 -0.0737 -0.0227
14772W        W57684  34.426  22.260  28.303  0.2071  0.2166  0.1540
14773W        W57685   3.405  20.720  25.446  0.4243 -0.0498 -0.0648
14774W        W57686  34.162  24.263  26.382 -0.1301 -0.2060  0.2444
14775W        W57687   2.921  26.874  23.627  0.0251  0.2075 -0.0572
14776W        W57688   3.337  23.397  23.876 -0.0077  0.0666  0.1125
14777W        W57689   1.664  23.998  24.517  0.3420 -0.2082  0.1945
14778W        W57690   0.844  23.924  26.666 -0.0241 -0.0032 -0.2134
14779W        W57691   0.955  23.324  26.136 -0.2725  0.0479  0.0803
14780W        W57692   0.419  21.802  26.890 -0.3772 -0.1990  0.1614
14781W        W57693   1.299  23.075  27.005 -0.0140 -0.1838  0.1357
14782W        W57694   2.411  24.460  27.561  0.2047  0.1277  0.2258
14783W        W57695   0.972  22.545  24.752 -0.3626 -0.0560 -0.0823
14784W        W57696   2.443  23.941  26.121 -0.0262 -0.0374 -0.2878
14785W        W57697   2.562  23.747  24.809  0.0276 -0.2057  0.2050
14786W        W57698  32.937  24.933  24.982  0.2050 -0.1004  0.0480
14787W        W57699   3.487  22.583  25.842 -0.0234 -0.1336  0.2200
14788W        W57700   1.515  26.098  23.516 -0.0275 -0.0575 -0.0326
14789W        W57701   3.620  25.692  26.972  0.1313  0.0713  0.1809
14790W        W57702   3.169  25.316  24.629 -0.0127  0.1333 -0.2218
14791W        W57703  34.128  23.047  26.014  0.1586  0.0974  0.1429
14792W        W57704   0.687  22.804  24.482 -0.1434 -0.0751 -0.3000
14793W        W57705   0.766  27.443  25.886  0.0531  0.0193 -0.0918
14794W        W57706   1.896  25.446  25.551  0.0120  0.0411 -0.0352
14795W        W57707   1.297  23.241  24.006  0.1907  0.2764 -0.1141
14796W        W57708   3.645  26.508  23.625 -0.0986  0.0983 -0.0106
14797W        W57709   1.519  24.594  24.758  0.3532  0.1850 -0.2668
14798W        W57710   2.232  23.956  25.699  0.0645 -0.2386  0.3504
14799W        W57711   3.631  22.192  25.050  0.0865  0.1050 -0.2558
14800W        W57712   3.746  24.209  24.952 -0.3175 -0.0664  0.2445
14801W        W57713   2.872  22.742  24.132 -0.1542 -0.1274  0.0328
14802W        W57714  34.582  22.764  21.781 -0.0939  0.0702 -0.0411
14803W        W57715   2.701  25.118  25.126  0.2039  0.4946 -0.1012
14804W        W57716   0.796  23.982  24.748  0.1570  0.4015 -0.1099
14805W        W57717   1.390  24.921  25.164 -0.2985  0.0133 -0.0752
14806W        W57718  34.593  25.955  24.231 -0.3436 -0.0177  0.1048
14807W        W57719   3.834  21.739  24.980  0.0637 -0.2418  0.0374
14808W        W57720   0.330  24.473  26.672  0.2635 -0.2651  0.3269
14809W        W57721   2.618  22.886  25.807 -0.1549 -0.2041 -0.1141
14810W        W57722  34.274  24.039  25.144 -0.0218  0.2634 -0.0697
14811W        W57723   0.289  23.609  26.864 -0.3747 -0.2978 -0.1835
14812W        W57724   3.236  21.394  24.444  0.0466 -0.0237  0.2567
14813W        W57725   4.636  21.644  22.569  0.0045  0.0112 -0.1934
14814W        W57726   2.335  24.966  28.026 -0.2928  0.2207  0.0327
14815W        W57727   2.148  24.243  24.189  0.1778 -0.1164 -0.1114
14816W        W57728   2.860  22.659  23.131  0.5135  0.1658 -0.1050
14817W        W57729   2.135  22.097  24.105 -0.0387 -0.1254  0.1227
14818W        W57730   0.914  25.132  26.543  0.4489  0.3945 -0.0800
14819W        W57731   2.458  24.378  25.873  0.1938  0.1040  0.1969
14820W        W57732   0.771  24.211  27.085  0.1526  0.1482 -0.0403
14821W        W57733   2.372  22.914  24.215 -0.1607 -0.0749  0.1810
14822W        W57734   1.733  25.013  24.569  0.1501  0.0463  0.2339
14823W        W57735  34.515  24.954  25.495  0.0008  0.1920 -0.0568
14824W        W57736   3.472  24.761  28.021 -0.3724  0.0486 -0.2884
14825W        W57737   2.897  24.974  25.587  0.1530 -0.1538 -0.0800
14826W        W57738   1.081  22.579  27.237 -0.1904  0.6140  0.0034
14827W        W57739   1.425  23.908  25.295  0.1700 -0.0266 -0.0410
14828W        W57740   2.257  22.409  24.931  0.1805  0.0794  0.0953
14829W        W57741  34.106  26.311  25.093  0.3734  0.0552  0.1011
14830W        W57742   1.916  22.272  25.595  0.3316  0.2390 -0.1803
14831W        W57743   1.931  23.056  26.144  0.5104  0.4432  0.1274
14832W        W57744   1.314  21.740  25.874  0.2578 -0.4510  0.1002
14833W        W57745   3.112  23.606  26.850  0.0816  0.1649  0.1043
14834W        W57746   2.396  22.903  23.138  0.0628 -0.2065 -0.1735
14835W        W57747   2.990  23.729  25.177 -0.2460  0.2679  0.2787
14836W        W57748   0.906  23.539  23.801 -0.3700  0.0245  0.0514
14837W        W57749   2.036  22.752  25.182  0.0568 -0.0952  0.2552
14838W        W57750   0.165  23.658  28.163  0.3183 -0.0217 -0.0982
14839W        W57751   1.753  24.363  26.679 -0.0088 -0.0752  0.1527
14840W        W57752   2.324  23.894  26.713  0.0867 -0.1517  0.0192
14841W        W57753   2.529  24.303  24.553  0.1098  0.2236  0.0993
14842W        W57754   1.659  23.294  27.246 -0.0138 -0.0698  0.1193
14843W        W57755   0.417  22.457  23.400 -0.0469  0.0425  0.0816
14844W        W57756   0.526  26.453  24.383 -0.5193  0.2425  0.1310
14845W        W57757   0.297  24.616  24.176  0.1150  0.3306 -0.0734
14846W        W57758  34.349  23.484  25.811 -0.1121  0.1873 -0.1895
14847W        W57759   0.467  25.389  27.010  0.1984  0.2412 -0.0482
14848W        W57760   1.034  26.310  24.282 -0.1339 -0.0837 -0.0546
14849W        W57761   2.024  24.738  26.809  0.2815  0.1458  0.2985
14850W        W57762  34.458  25.435  23.943  0.0476  0.1522  0.0297
14851W        W57763   2.514  21.995  24.848  0.1861  0.2983 -0.0648
14852W        W57764  34.368  26.384  26.292 -0.2883 -0.0639 -0.0735
14853W        W57765   1.158  22.999  24.469 -0.1813  0.1035  0.0734
14854W        W57766   0.058  24.507  23.758  0.0007 -0.0855 -0.2310
14855W        W57767   2.451  22.531  25.419 -0.2064  0.0392 -0.0539
14856W        W57768   3.262  24.021  24.759 -0.0301  0.0887  0.0224
14857W        W57769   1.597  23.452  26.246 -0.1580 -0.0957  0.1959
14858W        W57770   1.411  22.414  24.305 -0.0202 -0.2125 -0.0321
14859W        W57771   0.132  25.624  26.616 -0.1991 -0.0187 -0.2287
14860W        W57772   2.259  23.486  26.418  0.2055 -0.3439 -0.2117
14861W        W57773   2.379  21.384  24.701  0.2157 -0.1033  0.1369
14862W        W57774   1.825  24.441  27.251 -0.0234  0.1704  0.1389
14863W        W57775   1.423  23.473  27.714 -0.0863  0.4508 -0.0272
14864W        W57776   1.048  22.628  25.464  0.2503  0.0055 -0.2329
14865W        W57777   2.622  23.145  26.255  0.1875  0.4034  0.0459
14866W        W57778   0.299  24.152  24.679 -0.0133 -0.0092  0.2175
14867W        W57779   0.850  24.813  25.090  0.0729 -0.1004  0.1259
14868W        W57780   1.710  24.972  25.569 -0.1041  0.2465 -0.1428
14869W        W57781   1.926  23.695  24.165  0.0521 -0.0326  0.2297
14870W        W57782   0.690  25.714  25.475  0.0298  0.0411 -0.1267
14871W        W57783   1.366  24.798  27.741  0.1593 -0.0979  0.0917
14872W        W57784   2.408  24.367  26.410  0.1061  0.3731  0.4126
14873W        W57785   3.298  23.498  24.822 -0.0799 -0.2658  0.2046
14874W        W57786   0.195  23.236  25.273 -0.2290 -0.2613  0.1887
14875W        W57787   2.045  23.311  24.453 -0.0919  0.0528 -0.0197
14876W        W57788   3.266  24.310  26.600  0.2457  0.3390  0.2629
14877W        W57789   1.489  22.964  26.399 -0.3573 -0.1580 -0.0401
14878W        W57790   0.898  25.508  27.213 -0.1345  0.2437 -0.2735
14879W        W57791   2.468  23.576  25.328  0.4145 -0.1906  0.1153
14880W        W57792   3.242  26.643  24.449 -0.3013  0.0638  0.0100
14881W        W57793   3.426  21.659  27.759  0.2298  0.1625  0.2371
14882W        W57794  33.850  24.230  24.654 -0.0126  0.1271  0.0761
14883W        W57795  33.738  25.405  25.508 -0.0394 -0.0142 -0.0705
14884W        W57796  34.059  23.852  23.813 -0.0211  0.0641  0.0141
14885W        W57797   1.527  22.611  25.639  0.0299  0.1624  0.4504
14886W        W57798   1.275  24.277  26.490 -0.2126 -0.0681  0.0081
14887W        W57799   1.630  22.904  24.392  0.0977  0.0748 -0.0143
14888W        W57800   1.707  25.132  27.125 -0.1361 -0.0234  0.1078
14889W        W57801   4.474  21.361  23.368 -0.3929  0.2389  0.0485
14890W        W57802   1.617  24.167  23.999  0.0486  0.1934 -0.0853
14891W        W57803   3.188  21.270  25.409  0.0895 -0.0212 -0.1981
14892W        W57804   4.097  22.888  26.744  0.2494  0.1449  0.1580
14893W        W57805   0.936  24.498  24.717  0.1530 -0.0004 -0.0229
14894W        W57806   2.077  22.719  25.723 -0.4350  0.1351  0.0036
14895W        W57807   1.710  23.237  25.339  0.1565  0.1897  0.1950
14896W        W57808   2.298  24.935  24.856 -0.2486  0.1357  0.1819
14897W        W57809  34.251  23.593  27.314 -0.0223 -0.3084 -0.1570
14898W        W57810   3.034  26.120  26.421  0.0385 -0.0360  0.1191
14899W        W57811   0.845  24.514  26.696 -0.0418 -0.1678  0.1425
14900W        W57812   2.965  22.270  24.026  0.0554  0.0802 -0.1257
14901W        W57813   0.835  22.103  23.640  0.0887 -0.0783  0.0244
14902W        W57814   1.985  23.583  25.937  0.0008  0.2656  0.1818
14903W        W57815   2.911  23.896  24.478 -0.0144  0.0232 -0.0462
14904W        W57816   1.958  24.650  25.214 -0.0109  0.0350 -0.2098
14905W        W57817   4.233  23.002  24.716  0.0412 -0.1873  0.3473
14906W        W57818   2.279  24.990  26.076  0.3124 -0.0849 -0.0678
14907W        W57819   1.985  23.660  25.309  0.0287  0.0913  0.2158
14908W        W57820   1.914  25.146  25.151 -0.1891  0.1339  0.1758
14909W        W57821  34.655  25.360  25.807  0.1824 -0.0307  0.0358
14910W        W57822  33.913  22.028  26.706 -0.2495  0.1738  0.0708
14911W        W57823   2.782  24.750  26.132 -0.1992 -0.2968 -0.1191
14912W        W57824   1.785  21.884  23.820 -0.1543 -0.0439  0.0920
14913W        W57825   1.909  21.508  24.645 -0.1317  0.2424  0.1270
14914W        W57826   1.805  20.855  25.205  0.1037  0.3389 -0.0093
14915W        W57827   1.173  23.317  26.606 -0.3654  0.0891 -0.3125
14916W        W57828   0.231  21.267  27.627  0.2343  0.1935 -0.1725
14917W        W57829   4.124  25.292  25.518  0.3689  0.2052 -0.1525
14918W        W57830   2.589  22.593  23.754 -0.1464 -0.0392 -0.0730
14919W        W57831   5.238  23.723  25.415  0.1375 -0.1918  0.0664
14920W        W57832   2.503  23.006  25.259  0.2848 -0.2633  0.1373
14921W        W57833   0.213  24.270  22.932  0.2477 -0.1055 -0.0546
14922W        W57834  34.453  24.266  24.744 -0.5245  0.2840  0.3138
14923W        W57835   2.011  24.109  26.142 -0.2519 -0.1830  0.1490
14924W        W57836   1.584  22.764  22.889 -0.1377 -0.1484  0.1091
14925W        W57837   2.829  22.666  27.082 -0.3411  0.1081  0.1681
14926W        W57838   0.384  23.528  23.809 -0.0467 -0.3073 -0.0339
14927W        W57839   1.248  24.169  25.813  0.2340 -0.0016  0.0714
14928W        W57840   2.698  23.139  23.939 -0.2175 -0.1809  0.0955
14929W        W57841  34.591  24.727  25.017  0.4860  0.2264  0.0363
14930W        W57842   2.514  26.062  26.401 -0.1425 -0.2073  0.2631
14931W        W57843  34.453  22.992  23.647  0.0738 -0.3949 -0.0755
14932W        W57844   1.460  24.021  22.938  0.0329 -0.1269  0.2959
14933W        W57845   0.776  25.189  26.021 -0.1572  0.0477  0.2538
14934W        W57846   4.355  23.847  26.018  0.2249 -0.2970 -0.1200
14935W        W57847   1.821  22.070  22.182  0.4269  0.1037 -0.1335
14936W        W57848   3.136  23.050  25.825 -0.0331  0.3400  0.0125
14937W        W57849   0.637  23.747  24.245  0.0288  0.2015 -0.0460
14938W        W57850   1.540  21.803  24.788  0.0232 -0.3112  0.2729
14939W        W57851   1.472  25.937  25.343  0.0223  0.3771  0.1313
14940W        W57852  33.975  24.514  27.308  0.0374  0.1513 -0.0563
14941W        W57853   1.586  24.678  24.210 -0.0018  0.4245  0.4102
14942W        W57854   2.189  21.893  25.949 -0.3045  0.1038  0.0206
14943W        W57855   3.278  23.557  25.652 -0.0774  0.0655 -0.0931
14944W        W57856   0.660  23.528  26.503 -0.1230 -0.1562 -0.0032
14945W        W57857   1.944  22.709  26.560  0.1643 -0.1981  0.0300
14946W        W57858   1.988  24.650  26.325  0.1483  0.2193 -0.0853
14947W        W57859   0.841  22.443  26.123  0.0301  0.2147  0.0382
14948W        W57860   2.113  25.258  26.493 -0.0299  0.1317 -0.1249
14949W        W57861   2.781  23.315  24.919  0.0236 -0.0129 -0.1833
14950W        W57862   1.191  24.759  25.689  0.1753  0.2545 -0.1856
14951W        W57863   0.172  22.762  27.544  0.0086 -0.1922  0.0997
14952W        W57864   1.994  22.737  27.572 -0.1332  0.0024 -0.1078
14953W        W57865   1.804  22.255  25.082 -0.0408  0.0579 -0.1378
14954W        W57866   0.774  23.351  24.528  0.0696  0.0116  0.1091
14955W        W57867  34.407  24.177  22.830 -0.0093 -0.1901 -0.1722
14956W        W57868   1.730  25.873  25.868 -0.0296  0.0155  0.0833
14957W        W57869   1.171  24.377  25.233 -0.0007 -0.0878  0.2493
14958W        W57870   0.972  26.077  24.670  0.0569  0.1319 -0.1231
14959W        W57871   1.033  25.492  25.185 -0.2362 -0.2238  0.1868
14960W        W57872   2.598  26.356  24.746 -0.2201  0.1809 -0.0548
14961W        W57873   2.727  26.397  26.726  0.1098 -0.0331  0.2991
14962W        W57874   0.351  23.783  24.992 -0.3137  0.0263  0.1247
14963W        W57875   0.325  25.327  26.235 -0.1908  0.0480 -0.2556
14964W        W57876   0.375  25.533  24.546 -0.0231  0.1398  0.2293
14965W        W57877   3.232  24.897  23.686 -0.0181  0.4817 -0.1100
14966W        W57878   0.317  26.710  26.640  0.1009  0.1130  0.0346
14967W        W57879   3.227  24.268  28.201  0.1130 -0.1920  0.0233
14968W        W57880   3.613  22.193  23.463  0.3805  0.1035  0.1928
14969W        W57881   1.870  25.677  25.071  0.2045  0.2866 -0.1635
14970W        W57882   3.651  23.385  24.444 -0.0172  0.2564 -0.1286
14971W        W57883   3.676  24.432  25.825  0.1548 -0.3190  0.0712
14972W        W57884   0.908  22.937  26.428 -0.1298  0.0723 -0.0087
14973W        W57885   1.520  24.188  22.440  0.0550  0.0774 -0.3054
14974W        W57886   1.013  24.185  28.355 -0.0333 -0.0653  0.0935
14975W        W57887   3.775  22.999  25.848  0.1510 -0.5122 -0.1095
14976W        W57888   0.367  24.717  27.653 -0.3910  0.2383 -0.1381
14977W        W57889   1.999  25.728  23.589 -0.0334 -0.1010  0.1345
14978W        W57890   0.220  23.251  24.210  0.1124 -0.6142  0.0118
14979W        W57891   1.092  23.828  26.228  0.2081  0.0644  0.1977
14980W        W57892   3.814  20.723  26.573  0.2074  0.1338  0.1602
14981W        W57893   1.006  23.587  23.300  0.4843  0.0896 -0.1133
14982W        W57894   2.346  23.010  26.712  0.0835  0.1586 -0.0586
14983W        W57895   0.797  25.364  23.123 -0.0321 -0.3703  0.1845
14984W        W57896   1.649  24.923  26.062 -0.2017 -0.1645  0.0671
14985W        W57897   1.501  25.058  26.507  0.1759  0.1458  0.0135
14986W        W57898  34.254  23.231  25.277  0.2906 -0.0605 -0.2591
14987W        W57899   3.128  23.461  24.383  0.2261  0.0209 -0.0751
14988W        W57900   1.222  23.629  27.174 -0.2374  0.2434  0.2644
14989W        W57901   3.454  21.736  25.348 -0.0954 -0.1141  0.3742
14990W        W57902  33.620  24.108  25.794 -0.1280  0.0865  0.1107
14991W        W57903   2.843  24.226  24.926  0.1260  0.0748  0.2255
14992W        W57904   3.346  24.026  25.823  0.0139  0.0665 -0.0608
14993W        W57905   0.567  24.693  28.901  0.0244 -0.2044 -0.2944
14994W        W57906   0.436  22.815  25.798  0.1921 -0.1910 -0.4399
14995W        W57907   3.755  24.546  26.540 -0.1923  0.0049 -0.1169
14996W        W57908   2.267  23.341  24.910  0.3011 -0.2932  0.1231
14997W        W57909   2.587  26.138  27.931  0.2409 -0.1975 -0.0016
14998W        W57910  33.920  23.788  25.574 -0.2072  0.2848 -0.3705
14999W        W57911   2.506  24.310  23.177 -0.0216  0.0072  0.1391
15000W        W57912   0.615  24.326  25.104 -0.1438  0.0472  0.2016
15001W        W57913   0.613  25.100  27.470 -0.1681 -0.0045  0.2533
15002W        W57914   4.988  25.214  26.721 -0.1281  0.1910 -0.2654
15003W        W57915   0.408  22.654  24.865 -0.0072 -0.0904  0.3441
15004W        W57916   2.472  24.703  25.522  0.0454 -0.1592  0.0453
15005W        W57917   2.687  21.849  25.933 -0.0159  0.0456 -0.0702
15006W        W57918   1.297  25.718  24.319 -0.0284 -0.2867  0.0197
15007W        W57919   2.974  24.596  25.292 -0.0859 -0.1646 -0.0279
15008W        W57920   3.252  24.502  24.909 -0.1747  0.0373  0.3791
15009W        W57921  33.575  23.249  25.323  0.0354  0.0722  0.0148
15010W        W57922   2.845  24.724  24.792  0.1773 -0.2202  0.0154
15011W        W57923   3.711  25.166  24.855 -0.3403 -0.0161 -0.4267
15012W        W57924   0.342  23.139  24.686  0.0895 -0.1608 -0.0979
15013W        W57925   2.386  23.127  27.373  0.1054 -0.1934  0.2029
15014W        W57926  34.538  25.957  25.329  0.1460  0.3330  0.2241
15015W        W57927   3.726  23.208  24.887 -0.0725 -0.1984  0.1896
15016W        W57928   2.932  22.617  25.524 -0.1394  0.0469 -0.0159
15017W        W57929   1.737  24.228  23.479  0.1312  0.1480 -0.1697
15018W        W57930   3.175  21.513  26.642 -0.1295  0.1650  0.0927
15019W        W57931   2.323  24.047  25.077  0.0985 -0.1941  0.0505
15020W        W57932   1.540  25.543  26.478  0.1689 -0.0559  0.1123
15021W        W57933  34.072  22.962  23.953 -0.2548  0.1481  0.1236
15022W        W57934   1.479  24.296  27.536  0.1753  0.1920 -0.0798
15023W        W57935   2.211  25.421  24.813 -0.3147 -0.1555 -0.3231
15024W        W57936   2.293  25.796  22.797  0.3459 -0.0602 -0.0661
15025W        W57937   1.174  26.274  26.431  0.0311  0.2049 -0.1086
15026W        W57938   1.753  23.964  25.707 -0.1811  0.0913  0.3930
15027W        W57939   2.434  25.819  22.350  0.1976  0.2306  0.1570
15028W        W57940   2.277  23.385  23.922  0.2425  0.0246 -0.0684
15029W        W57941   3.650  21.322  24.141  0.0609  0.2788  0.0339
15030W        W57942   2.436  21.776  24.362 -0.0057 -0.1557  0.1423
15031W        W57943   2.344  23.577  27.559 -0.2145 -0.1120  0.0184
15032W        W57944  33.847  22.461  24.532 -0.2115 -0.1348  0.1761
15033W        W57945   0.815  23.268  22.959 -0.1480  0.1273 -0.1757
15034W        W57946  34.081  24.660  25.597  0.2241  0.2226  0.1124
15035W        W57947   1.406  21.419  28.081 -0.4650 -0.2888  0.0719
15036W        W57948   0.495  23.792  27.334  0.0486  0.1225 -0.1644
15037W        W57949  34.095  23.835  26.008 -0.0936 -0.5450 -0.0199
15038W        W57950  34.272  22.734  24.593 -0.0162 -0.2313  0.0406
15039W        W57951   2.587  24.814  22.990  0.5284  0.0583 -0.0498
15040W        W57952   0.610  23.850  26.052  0.1352  0.0737 -0.0312
15041W        W57953  34.424  22.588  26.067  0.2204 -0.2077  0.4794
15042W        W57954   1.599  26.273  24.269  0.2440 -0.0309 -0.1412
15043W        W57955   2.481  25.245  25.681 -0.3087 -0.3946 -0.1034
15044W        W57956   2.079  21.522  24.089 -0.0420  0.0479 -0.1249
15045W        W57957   3.671  24.178  26.227  0.0292 -0.4253  0.0225
15046W        W57958  33.380  24.867  23.274  0.1580  0.1593 -0.0294
15047W        W57959   1.891  22.103  26.836 -0.1918 -0.2680 -0.1371
15048W        W57960   1.350  23.862  26.693  0.0304  0.0366 -0.1432
15049W        W57961   1.495  20.718  25.530  0.2429 -0.2545 -0.0045
15050W        W57962   2.029  23.632  27.172  0.1038 -0.1057  0.0464
15051W        W57963   1.741  25.144  24.082  0.0843  0.0955  0.0164
15052W        W57964   0.841  26.553  23.061  0.1251 -0.0296 -0.1133
15053W        W57965   1.540  24.445  26.114  0.2723  0.1861  0.2343
15054W        W57966   3.194  25.755  26.688  0.5546  0.3374 -0.0183
15055W        W57967   0.444  21.698  27.436  0.1473  0.0781 -0.0696
15056W        W57968   1.839  22.536  26.097 -0.0086  0.0406 -0.2348
15057W        W57969   2.510  24.944  26.533  0.2226 -0.0162 -0.1366
15058W        W57970   3.450  24.212  24.014  0.1207 -0.1048 -0.1689
15059W        W57971   2.501  22.445  24.468  0.1868  0.0802 -0.0956
15060W        W57972   1.816  24.142  24.994 -0.0619 -0.1224  0.1039
15061W        W57973   0.999  23.144  28.515  0.0838 -0.0488  0.1376
15062W        W57974   1.478  24.270  28.094  0.2600  0.0346  0.0563
15063W        W57975   1.991  24.543  24.725 -0.1623 -0.0428 -0.1148
15064W        W57976   1.966  22.651  24.137 -0.1176 -0.1044 -0.0126
15065W        W57977   3.436  22.272  23.941 -0.1634  0.0347 -0.0222
15066W        W57978   2.648  25.293  24.679  0.1312 -0.0151 -0.1225
15067W        W57979   1.301  22.624  26.143  0.6186 -0.0540 -0.0212
15068W        W57980   1.192  23.450  25.287 -0.4554  0.0075 -0.0031
15069W        W57981   2.736  23.686  26.449  0.2525 -0.0425 -0.1918
15070W        W57982   2.423  24.513  25.079 -0.1799 -0.0759  0.1747
15071W        W57983   2.714  24.298  27.989 -0.0565  0.1875 -0.0138
15072W        W57984   1.530  23.436  24.367  0.5230  0.1497 -0.2539
15073W        W57985   2.713  24.193  24.134 -0.1707 -0.0573  0.2257
15074W        W57986   3.215  25.125  26.241  0.0417  0.0325 -0.1086
15075W        W57987   3.284  24.626  26.236 -0.0106 -0.4421  0.2822
15076W        W57988   3.475  24.671  25.341 -0.1038  0.0879  0.1067
15077W        W57989   3.396  24.972  25.819  0.5363  0.0573  0.3652
15078W        W57990   1.605  21.787  24.267  0.1490  0.3283 -0.0145
15079W        W57991   0.316  24.845  25.213  0.0957  0.0235 -0.1719
15080W        W57992   1.446  25.365  25.487 -0.2174 -0.0895 -0.1606
15081W        W57993   3.393  23.232  25.288  0.2709  0.1933  0.0772
15082W        W57994   1.479  22.618  24.795 -0.1722 -0.3088 -0.1873
15083W        W57995   1.817  22.564  22.397  0.1360  0.0193 -0.0963
15084W        W57996   1.037  24.552  27.302  0.1916  0.1391  0.0079
15085W        W57997   1.934  24.549  25.813  0.0583 -0.3276  0.3283
15086W        W57998   2.969  24.467  30.191 -0.3412  0.1982  0.0071
15087W        W57999   1.388  23.421  28.670  0.0281  0.0430  0.1007
15088W        W58000   2.785  23.874  25.750  0.1016 -0.2665 -0.3894
15089W        W58001   3.460  23.550  27.634  0.1115  0.1084  0.3075
15090W        W58002  34.283  23.437  30.403  0.2346  0.0367  0.1224
15091W        W58003   3.199  25.005  28.821  0.1550  0.0951 -0.2272
15092W        W58004  34.190  22.049  31.337  0.0708 -0.1639 -0.0034
15093W        W58005   2.849  24.347  29.375 -0.1872  0.3566 -0.1883
15094W        W58006   4.359  24.804  29.000 -0.1654 -0.2184  0.2136
15095W        W58007   3.134  23.112  27.933  0.2098  0.0657 -0.1113
15096W        W58008   1.637  22.488  29.692 -0.1578 -0.3457  0.0927
15097W        W58009   2.536  25.838  30.808  0.2822 -0.0976  0.1289
15098W        W58010   0.712  21.653  29.478 -0.0342 -0.1094 -0.1988
15099W        W58011   0.708  22.251  30.222  0.0263  0.4135 -0.2336
15100W        W58012   2.025  23.665  30.255 -0.0752  0.1618  0.0975
15101W        W58013   0.996  24.600  30.522 -0.2913  0.2744 -0.1380
15102W        W58014  34.365  23.481  30.897 -0.0134 -0.1046  0.1518
15103W        W58015   2.686  23.379  27.886 -0.1654  0.0942 -0.1953
15104W        W58016   2.070  25.644  28.579  0.1105  0.0701 -0.0381
15105W        W58017   0.420  24.051  30.670  0.1036 -0.3343  0.2296
15106W        W58018   1.953  22.010  31.452  0.1128  0.3201  0.0424
15107W        W58019   2.770  22.999  28.677 -0.0613  0.4445 -0.3483
15108W        W58020  33.988  23.950  27.603  0.0163 -0.0880  0.4958
15109W        W58021   0.452  23.376  29.613  0.0144 -0.1068 -0.0704
15110W        W58022   2.172  23.320  31.356  0.1773 -0.0979 -0.0142
15111W        W58023   3.747  22.512  27.524  0.1726 -0.4725 -0.3306
15112W        W58024   3.129  23.554  28.980  0.3356  0.0442 -0.0168
15113W        W58025   3.591  23.857  29.807 -0.4163 -0.1894 -0.0372
15114W        W58026   2.887  24.169  30.553 -0.1662  0.0996 -0.2072
15115W        W58027   3.260  23.755  30.661 -0.3152 -0.0628 -0.1317
15116W        W58028   1.132  24.702  29.206  0.3726 -0.0751 -0.1961
15117W        W58029  33.292  26.647  28.872 -0.0209  0.0386 -0.1555
15118W        W58030   1.918  25.649  27.395 -0.0797  0.0431  0.0402
15119W        W58031   2.784  25.673  27.776  0.0600 -0.0400  0.0768
15120W        W58032   3.419  25.269  29.776 -0.0807  0.0640  0.1613
15121W        W58033   0.250  25.328  30.537 -0.0285 -0.0653  0.1185
15122W        W58034   1.012  23.998  27.461 -0.0969  0.1288  0.3588
15123W        W58035   1.694  25.257  30.833  0.1096 -0.1062  0.0790
15124W        W58036   1.551  24.435  28.598  0.0951 -0.0387  0.2998
15125W        W58037   2.927  23.298  29.934  0.0304  0.1396  0.0565
15126W        W58038   1.328  22.929  30.412 -0.0456 -0.1357  0.1762
15127W        W58039   1.611  24.986  28.524  0.0407  0.0500  0.4022
15128W        W58040   2.776  24.069  29.903 -0.0122 -0.4843  0.2844
15129W        W58041   1.383  24.350  30.454 -0.0836 -0.2073  0.1978
15130W        W58042   0.442  26.107  28.982 -0.2080 -0.1519  0.1712
15131W        W58043   3.945  22.118  31.900  0.0797 -0.1360  0.1259
15132W        W58044   1.155  24.669  28.191  0.1327 -0.3553  0.2224
15133W        W58045   3.131  22.471  26.649  0.1743  0.0375  0.3630
15134W        W58046   2.140  24.068  27.387  0.0638  0.2788 -0.2626
15135W        W58047   1.881  22.123  28.162 -0.1360 -0.0445 -0.0638
15136W        W58048   1.080  21.941  30.471 -0.0341  0.1977  0.1300
15137W        W58049   2.406  24.813  30.133  0.1841 -0.0037 -0.1117
15138W        W58050   2.115  23.156  29.335  0.1112  0.1820 -0.0278
15139W        W58051   3.357  24.956  31.237  0.0717  0.1075 -0.0362
15140W        W58052   2.572  23.718  28.770  0.3192 -0.0983 -0.0656
15141W        W58053   3.860  22.815  29.078 -0.0643 -0.1601 -0.2303
15142W        W58054   1.016  24.050  30.247 -0.0170 -0.0216 -0.1132
15143W        W58055   0.922  22.996  29.633 -0.0797 -0.0206 -0.0032
15144W        W58056   2.161  24.946  27.519  0.1742 -0.2288  0.1138
15145W        W58057   4.225  25.744  29.704 -0.3960 -0.0904 -0.2399
15146W        W58058   2.514  24.780  28.789  0.1610 -0.1041 -0.2577
15147W        W58059  34.403  24.218  28.336  0.0231 -0.1030  0.2597
15148W        W58060  34.360  23.938   0.333  0.0179  0.2196  0.0073
15149W        W58061   1.967  23.822  31.518  0.1825 -0.0550  0.1566
15150W        W58062   0.518  21.764  25.546  0.0713 -0.3195  0.0371
15151W        W58063   4.391  25.239  29.557 -0.1880 -0.0841 -0.0273
15152W        W58064   0.263  23.685  31.428  0.0679 -0.2246  0.0681
15153W        W58065   2.989  22.144  29.584 -0.0969  0.0168 -0.0878
15154W        W58066   2.147  23.277  29.931 -0.3711 -0.1558 -0.2512
15155W        W58067   3.269  23.084  28.889  0.1384  0.0118  0.0463
15156W        W58068   2.886  23.342  25.473  0.2873  0.0143 -0.1233
15157W        W58069   3.552  22.020  28.770  0.0185  0.0749  0.2635
15158W        W58070   2.973  22.507  29.910  0.0458  0.1370  0.1025
15159W        W58071   1.780  24.759  27.995 -0.1129 -0.0196  0.0452
15160W        W58072   2.359  24.537  29.212  0.1484 -0.3423 -0.0399
15161W        W58073   2.918  24.989  31.492 -0.2983  0.0093  0.2805
15162W        W58074   2.906  24.369  27.187  0.0283 -0.1424 -0.3883
15163W        W58075  34.499  25.824  31.449 -0.2340 -0.0863  0.0537
15164W        W58076   2.422  22.697  31.127  0.1609  0.0356  0.0767
15165W        W58077   2.593  24.572  30.528 -0.0567 -0.1923  0.0736
15166W        W58078   0.699  26.473  25.565 -0.2867 -0.0411  0.1674
15167W        W58079   0.175  24.929  28.538  0.2079 -0.1261  0.2073
15168W        W58080   0.465  25.129  29.429  0.0600  0.1836 -0.0036
15169W        W58081   1.230  21.042  30.359 -0.0810  0.0454 -0.0622
15170W        W58082   1.816  24.119  30.332 -0.0931 -0.0351 -0.0431
15171W        W58083   2.879  23.028  26.687  0.4980  0.2341 -0.4000
15172W        W58084  34.533  23.755  31.723 -0.1598  0.0211  0.4049
15173W        W58085   2.002  22.098  30.809 -0.0481 -0.2121  0.1560
15174W        W58086  34.567  24.362  29.328  0.6272 -0.3632 -0.3731
15175W        W58087   4.959  25.201  29.934  0.0883 -0.5152  0.0073
15176W        W58088   3.330  21.887  28.203  0.2231  0.0004 -0.0502
15177W        W58089   1.966  24.591  28.845  0.1695  0.1509  0.2307
15178W        W58090   0.004  23.109  30.992 -0.0535 -0.1942 -0.0684
15179W        W58091  34.378  22.787  28.502  0.0831  0.1322  0.0417
15180W        W58092   1.744  23.763   0.538 -0.0575 -0.1291  0.1557
15181W        W58093   0.867  22.771  28.956  0.1093  0.1995 -0.0302
15182W        W58094   3.783  23.072  31.003 -0.3117  0.1225 -0.2532
15183W        W58095   0.628  23.007  27.725 -0.0226 -0.1820  0.0525
15184W        W58096   1.810  22.015  30.077  0.0214 -0.0952  0.1313
15185W        W58097   1.493  23.376  28.193 -0.1191 -0.1298  0.2339
15186W        W58098   1.892  25.032  29.918  0.4248 -0.0953  0.3605
15187W        W58099   2.696  20.784  30.462  0.0354  0.1456  0.0477
15188W        W58100   2.905  25.495  28.512 -0.1572  0.0515  0.2799
15189W        W58101   3.300  25.652  30.161  0.0022  0.3022  0.0161
15190W        W58102   3.092  25.264  29.335  0.0808 -0.1057  0.1630
15191W        W58103  34.528  22.260  30.576 -0.0977 -0.2059  0.1324
15192W        W58104   1.577  22.389  27.333  0.3079 -0.2548 -0.0249
15193W        W58105   0.383  26.175  29.483  0.1825  0.1168 -0.2976
15194W        W58106   2.013  24.000  29.881 -0.1053 -0.3303 -0.0248
15195W        W58107   1.219  23.863  27.906  0.2993  0.0585 -0.0188
15196W        W58108   3.663  25.268  28.728 -0.0539 -0.1887  0.0415
15197W        W58109   1.770  22.933  28.017  0.0756 -0.0465  0.0383
15198W        W58110   1.535  24.443  29.114 -0.0210 -0.0260 -0.3733
15199W        W58111   1.848  21.741  30.541 -0.1187  0.1416  0.0935
15200W        W58112   2.285  24.139  30.524  0.0892 -0.0363 -0.0867
15201W        W58113   0.041  23.247  28.449  0.0573 -0.1002  0.2331
15202W        W58114  34.509  23.213  27.686  0.2261 -0.2541  0.0580
15203W        W58115   3.529  23.707  29.326  0.3515  0.0362 -0.0774
15204W        W58116   0.659  25.798  28.697 -0.3185  0.0907 -0.2709
15205W        W58117  34.696  23.031  29.648 -0.0211 -0.0856  0.0245
15206W        W58118   3.235  24.345  29.719  0.1739 -0.2375 -0.2667
15207W        W58119   4.493  23.962  29.071 -0.1563 -0.4142 -0.2009
15208W        W58120  33.382  22.741  31.389 -0.1333 -0.1832 -0.4480
15209W        W58121   1.560  22.148  30.474  0.0630  0.0106 -0.1181
15210W        W58122  34.407  23.786  27.879 -0.0020  0.0184 -0.1773
15211W        W58123   0.980  24.937  30.167 -0.4398 -0.2239  0.1293
15212W        W58124   3.101  22.118  28.636 -0.2348 -0.0529 -0.0682
15213W        W58125   3.437  22.381  28.365 -0.3403  0.2533  0.0309
15214W        W58126   4.198  24.814  29.884 -0.0852  0.1400 -0.1749
15215W        W58127   3.218  22.857  28.399 -0.2555 -0.2035  0.1132
15216W        W58128   3.612  21.264  25.733 -0.0944  0.0055  0.2815
15217W        W58129   1.216  22.203  25.623  0.3189  0.2268 -0.1605
15218W        W58130   0.080  24.226  31.062 -0.0113  0.2955  0.0382
15219W        W58131   3.232  24.670  29.252 -0.1508  0.2176 -0.5265
15220W        W58132   1.841  24.072  28.743  0.0171  0.0510  0.2030
15221W        W58133   2.964  22.235  27.458  0.1136 -0.1166 -0.3277
15222W        W58134   3.714  24.127  25.439 -0.1908 -0.1941 -0.2959
15223W        W58135   1.726  23.200  30.162  0.1614 -0.3508  0.3248
15224W        W58136   3.144  24.827  30.625  0.1812  0.0883 -0.0745
15225W        W58137   3.509  26.285  29.718 -0.2157  0.1146  0.1352
15226W        W58138   1.777  22.470  31.702 -0.0060 -0.0283  0.0609
15227W        W58139   1.863  23.660  28.505  0.1246 -0.1662  0.0183
15228W        W58140   1.756  21.722  31.091  0.1924 -0.1049 -0.3674
15229W        W58141  34.610  24.882  27.683 -0.1053  0.1408 -0.0229
15230W        W58142   3.909  23.835  31.725  0.1197 -0.0945 -0.0607
15231W        W58143   4.301  23.189  29.156 -0.0558  0.0408  0.4770
15232W        W58144   2.691  22.492  28.546 -0.0057  0.3309 -0.0314
15233W        W58145   3.085  23.285  30.833 -0.1525  0.1626  0.0573
15234W        W58146   3.640  24.228  27.405  0.0904  0.2844 -0.1140
15235W        W58147   0.608  22.307  28.805  0.0270 -0.1432  0.2649
15236W        W58148  34.461  23.726  26.797 -0.1771  0.2103 -0.1293
15237W        W58149   3.165  23.318  30.353 -0.0361 -0.0930  0.0990
15238W        W58150   1.635  24.095  31.246  0.1132 -0.0137  0.2150
15239W        W58151   1.491  24.789  30.166  0.0428 -0.5050 -0.1382
15240W        W58152   3.886  24.238   0.211  0.1120  0.1609 -0.2520
15241W        W58153   1.614  22.450  27.887  0.2502 -0.2662  0.2200
15242W        W58154   2.447  23.927  31.399 -0.2376  0.0098  0.1550
15243W        W58155   1.791  22.914  29.020 -0.3465 -0.0363 -0.2919
15244W        W58156   1.581  25.972  28.796 -0.2783 -0.0245  0.1758
15245W        W58157   1.402  23.880  28.506 -0.0303  0.0592  0.1297
15246W        W58158   1.676  22.604  30.311 -0.0040 -0.0365 -0.0033
15247W        W58159   2.263  25.052  29.147  0.2455 -0.2197 -0.0114
15248W        W58160   0.727  25.510  27.747  0.0878 -0.1529  0.0641
15249W        W58161   1.860  23.570  29.586  0.0924  0.3467 -0.1289
15250W        W58162   1.264  27.095  29.044 -0.0211  0.0252 -0.1117
15251W        W58163   3.361  21.224  31.083  0.1897  0.0426 -0.0550
15252W        W58164  34.093  23.723  29.950 -0.2179  0.2149  0.0722
15253W        W58165   0.596  22.502  27.730 -0.4393  0.0938  0.2339
15254W        W58166   0.000  24.922  29.633 -0.1130  0.2524  0.1495
15255W        W58167   2.809  21.772  28.345 -0.1140  0.0249 -0.2249
15256W        W58168   2.804  24.754  27.756 -0.0534 -0.0718 -0.0174
15257W        W58169   0.883  22.769  30.118 -0.0034  0.2461 -0.1891
15258W        W58170   2.055  21.082  29.870  0.0342  0.4877 -0.2565
15259W        W58171  34.082  25.068  30.511  0.1687 -0.0554 -0.1387
15260W        W58172   2.661  22.855  29.968 -0.0730 -0.1292  0.0250
15261W        W58173   3.442  22.099  27.354 -0.0133  0.1562 -0.1211
15262W        W58174   3.641  24.995  29.193  0.0632  0.2113 -0.0248
15263W        W58175   1.258  25.912  31.355 -0.0326  0.3170 -0.0171
15264W        W58176   0.072  23.714  28.794 -0.1963 -0.0668  0.1323
15265W        W58177   3.425  23.388  29.937 -0.1018  0.1652  0.4134
15266W        W58178   0.627  24.460  28.481 -0.1338 -0.3769 -0.0047
15267W        W58179   0.864  25.110  29.095  0.1268  0.2336  0.0969
15268W        W58180   2.941  25.528  29.775 -0.0825 -0.1904 -0.1112
15269W        W58181   0.579  24.365  28.005 -0.0245 -0.0503 -0.0214
15270W        W58182   1.914  25.261  28.863 -0.2946  0.3272  0.2128
15271W        W58183   1.473  25.359  31.248  0.0486  0.1274 -0.0849
15272W        W58184   3.175  23.851  30.131 -0.2973  0.4043 -0.1427
15273W        W58185   2.720  21.720  29.382 -0.0848 -0.1452  0.0101
15274W        W58186   0.573  23.358  28.198 -0.0875 -0.2892  0.1792
15275W        W58187   0.639  23.802  28.394 -0.2374 -0.2567 -0.0170
15276W        W58188   2.755  25.238  28.965  0.1051 -0.0405  0.0774
15277W        W58189   1.706  23.321  30.679  0.3883  0.3145 -0.1274
15278W        W58190   2.210  23.546  30.825  0.1540 -0.0669  0.0377
15279W        W58191   2.128  22.534  28.012  0.0812 -0.1667 -0.0511
15280W        W58192   3.210  24.498  27.689  0.0016  0.3637  0.3032
15281W        W58193   2.406  23.300  30.392 -0.0225  0.2445  0.1031
15282W        W58194   0.798  23.146  30.550  0.1706  0.2419  0.0719
15283W        W58195   0.300  23.294  30.565  0.3887  0.1035 -0.0371
15284W        W58196   1.749  24.861  29.245 -0.0376 -0.2054  0.1009
15285W        W58197   2.241  21.513  31.902 -0.0112 -0.0394 -0.2723
15286W        W58198   1.990  24.492  29.980 -0.2916  0.2222 -0.2054
15287W        W58199   1.072  24.309  28.845  0.1934 -0.0003 -0.1520
15288W        W58200  34.330  24.110  29.753 -0.0571  0.1716  0.0893
15289W        W58201   4.855  22.530  27.393  0.0769 -0.2618 -0.0564
15290W        W58202   1.373  25.116  28.121  0.3719 -0.3012  0.2654
15291W        W58203   1.842  23.280  26.736 -0.1682  0.0876 -0.3505
15292W        W58204   2.590  21.980  30.738  0.1036  0.0002 -0.3173
15293W        W58205   2.894  22.279  28.142 -0.1572 -0.1265  0.1897
15294W        W58206   2.553  20.199  31.735  0.0663  0.2303  0.2568
15295W        W58207   1.484  21.293  30.831  0.0059  0.2006  0.0586
15296W        W58208   3.662  24.768  28.598 -0.1575 -0.0135 -0.4361
15297W        W58209   1.778  24.401  30.774  0.1200 -0.1735  0.2515
15298W        W58210   1.401  24.434  31.468  0.3248 -0.6151 -0.4349
15299W        W58211   0.282  24.927  31.011 -0.0240 -0.1105 -0.2581
15300W        W58212   1.462  22.828  27.486 -0.1006 -0.2209 -0.3759
15301W        W58213   1.072  22.721  27.792  0.0990  0.0316 -0.0697
15302W        W58214   2.254  22.793  29.653  0.1559  0.1872  0.0886
15303W        W58215   4.195  24.353  29.623 -0.0116  0.0323 -0.0372
15304W        W58216   3.187  22.545  27.854  0.2715  0.0508 -0.1278
15305W        W58217   2.062  23.919  29.211  0.2484  0.1600 -0.1811
15306W        W58218   2.519  24.369  30.988 -0.0462  0.0516 -0.2385
15307W        W58219   3.303  22.915  26.912 -0.1617  0.0203 -0.1574
15308W        W58220   1.558  23.951  26.213 -0.2543 -0.0305 -0.0616
15309W        W58221   0.038  23.812  30.528 -0.0940  0.2085 -0.2007
15310W        W58222   0.321  21.491  30.875 -0.1194 -0.0292 -0.0662
15311W        W58223   3.588  23.928  28.784 -0.0685  0.0103  0.3204
15312W        W58224   0.440  23.930  30.187  0.0706 -0.0379  0.3869
15313W        W58225   3.324  23.043  31.299  0.2523 -0.0738 -0.1960
15314W        W58226   3.126  22.639  30.511  0.1595 -0.2119  0.1414
15315W        W58227   1.527  24.214  29.842  0.3551 -0.0431  0.1477
15316W        W58228  33.132  22.750  31.886  0.1111  0.1529 -0.2735
15317W        W58229   1.403  24.853  30.662 -0.2017  0.1600  0.2727
15318W        W58230   2.082  21.220  25.692  0.0260 -0.0680 -0.2520
15319W        W58231   4.665  23.195  30.005  0.0675 -0.3864 -0.3327
15320W        W58232   3.091  23.353  28.490 -0.2138 -0.3603  0.0895
15321W        W58233   3.563  22.487  26.903 -0.0971 -0.0036  0.0466
15322W        W58234   1.386  22.199  29.380 -0.3255  0.1143 -0.1627
15323W        W58235   2.863  24.264   0.234 -0.1221  0.2316 -0.1099
15324W        W58236   0.460  23.235  27.267 -0.1552 -0.0031 -0.1286
15325W        W58237   2.475  21.875  31.574  0.0141 -0.4697 -0.0712
15326W        W58238   3.309  24.393  28.654 -0.0342 -0.2932 -0.2038
15327W        W58239   2.233  24.833  29.598 -0.1866 -0.0845 -0.3276
15328W        W58240   1.750  23.088  28.548 -0.0329  0.1262  0.0104
15329W        W58241  34.621  22.479  28.821 -0.1053 -0.2169  0.2744
15330W        W58242   0.248  23.694  30.923 -0.1536  0.3635 -0.1973
15331W        W58243  33.442  22.890  27.765  0.2574  0.0946  0.0670
15332W        W58244   1.716  23.849  28.028  0.1087 -0.0229 -0.1509
15333W        W58245   3.632  24.757  29.773 -0.1516  0.2082 -0.2776
15334W        W58246   5.216  23.919  30.414 -0.4759 -0.0881 -0.0167
15335W        W58247   1.579  22.342  26.488  0.0989  0.2601  0.4822
15336W        W58248   3.956  21.207  29.686  0.0172  0.0355 -0.0530
15337W        W58249   1.390  25.087  28.989 -0.1025 -0.4636 -0.2712
15338W        W58250   2.540  22.135  29.841 -0.1135  0.1118 -0.0730
15339W        W58251   1.278  25.306  29.966  0.1517 -0.0582  0.0475
15340W        W58252  34.022  25.393  31.434  0.0703  0.1216  0.2000
15341W        W58253   0.957  23.664  28.750  0.1595 -0.2505 -0.2388
15342W        W58254   2.759  23.291  29.077  0.3329  0.1677 -0.0087
15343W        W58255   1.695  23.062  29.569 -0.0846  0.1600  0.1443
15344W        W58256   2.434  23.691  29.932 -0.2358  0.0675  0.1144
15345W        W58257   3.276  22.151  30.673 -0.0354  0.1330  0.0450
15346W        W58258   3.829  23.921  31.274  0.0518 -0.0507  0.0304
15347W        W58259   1.365  22.756  29.311  0.2811  0.0905 -0.1732
15348W        W58260   4.326  24.279  30.643  0.2274 -0.2397 -0.0707
15349W        W58261   2.253  23.002  27.895  0.1350 -0.2207  0.0493
15350W        W58262   0.884  23.973  29.207  0.2992 -0.5171 -0.1637
15351W        W58263  33.186  22.314  31.674  0.3555  0.1881 -0.2347
15352W        W58264   2.790  23.668  30.432 -0.0842 -0.0186 -0.2003
15353W        W58265   3.197  21.901  29.089  0.2934 -0.2265  0.0294
15354W        W58266   1.367  22.855  29.943 -0.0944  0.0481  0.4877
15355W        W58267   1.662  25.239  27.644 -0.0159 -0.0398 -0.0477
15356W        W58268   0.123  24.208  31.580  0.1641 -0.4697  0.0563
15357W        W58269   0.370  24.536  31.328 -0.1036  0.0227  0.3523
15358W        W58270   1.104  26.053  29.016  0.0980 -0.0547 -0.0116
15359W        W58271   2.525  23.659  29.305  0.3709  0.1708  0.2994
15360W        W58272   2.795  24.126  26.741 -0.1869 -0.0397 -0.2844
15361W        W58273  34.532  26.656  30.806  0.1115 -0.0470 -0.3057
15362W        W58274   1.900  23.309  27.691  0.0354  0.4451  0.1878
15363W        W58275   1.501  24.646  29.652 -0.0563  0.0679  0.0237
15364W        W58276   1.962  25.900  28.058 -0.2649  0.0674 -0.0058
15365W        W58277   2.618  25.203  27.481  0.1161 -0.2395 -0.1825
15366W        W58278   1.552  23.720  29.942  0.1390 -0.0734  0.0343
15367W        W58279   3.675  24.453  31.196  0.1096 -0.0585  0.0444
15368W        W58280   4.128  21.330  28.349 -0.4108  0.1995  0.3231
15369W        W58281   3.359  24.162  29.216  0.2683  0.5980  0.2443
15370W        W58282   2.575  21.700  30.044 -0.1616 -0.3419  0.0824
15371W        W58283   4.111  24.829  29.387  0.0210 -0.0587  0.0960
15372W        W58284   2.370  24.111  29.520 -0.1188 -0.0737 -0.1830
15373W        W58285   1.449  21.818  28.367  0.0746  0.0048  0.4455
15374W        W58286   1.078  23.894  29.769  0.0222  0.2422 -0.1760
15375W        W58287   1.430  20.012  30.237 -0.4492  0.2367 -0.6146
15376W        W58288   0.803  25.420  30.541 -0.0023  0.3974  0.1462
15377W        W58289   2.572  24.616  28.300  0.1251 -0.0998  0.1717
15378W        W58290   0.075  23.357  29.204  0.0706 -0.0483  0.2118
15379W        W58291   1.524  23.938  29.446  0.0441  0.0489 -0.0602
15380W        W58292   3.819  23.096  29.660 -0.0647 -0.2410  0.1281
15381W        W58293   0.820  24.808  27.835  0.0885 -0.1465  0.0095
15382W        W58294   1.709  23.626  29.012 -0.1779  0.0819 -0.0022
15383W        W58295   1.256  26.297  28.534  0.2191  0.1923 -0.0022
15384W        W58296   0.915  25.377  29.502  0.2234  0.0197 -0.2210
15385W        W58297   1.860  25.293  30.384 -0.0691  0.3034 -0.0489
15386W        W58298  34.699  23.873  29.302  0.0785  0.0675 -0.1174
15387W        W58299   3.643  21.546  29.100  0.0295 -0.2377 -0.1997
15388W        W58300   2.581  23.104  30.908  0.4210 -0.0576 -0.1508
15389W        W58301   3.436  22.566  30.912 -0.0769 -0.2400 -0.1997
15390W        W58302   0.938  23.245  28.999 -0.1307  0.1724  0.1407
15391W        W58303   2.290  22.899  28.455  0.0002  0.3557 -0.1474
15392W        W58304   3.165  23.250  29.479  0.1368 -0.0775  0.0012
15393W        W58305   1.866  23.424  31.804  0.1756  0.3273  0.2488
15394W        W58306   1.951  22.553  28.562 -0.2204  0.0190  0.0185
15395W        W58307   3.604  24.830  30.791  0.2719  0.1073  0.0809
15396W        W58308   2.219  22.481  26.865  0.0221 -0.0511  0.1558
15397W        W58309   3.485  25.886  31.399  0.3024  0.1224 -0.1428
15398W        W58310   0.654  22.789  28.170  0.1969 -0.0951 -0.0703
15399W        W58311   1.034  22.062  28.538  0.0933  0.0958 -0.1697
15400W        W58312   1.407  23.993  28.984  0.2908  0.2193  0.0347
15401W        W58313   2.448  24.336  30.124  0.2298 -0.0619 -0.0626
15402W        W58314   3.338  24.625   0.574 -0.2179  0.0058  0.0110
15403W        W58315   0.141  23.980  29.730  0.2279 -0.3265 -0.1150
15404W        W58316   3.003  23.163  27.356  0.2288 -0.1207 -0.0376
15405W        W58317   2.921  22.374  29.144 -0.2316 -0.1009 -0.1017
15406W        W58318   1.357  26.978  26.468  0.0162  0.0035  0.1599
15407W        W58319   2.779  23.837  27.640 -0.0295 -0.1298  0.1888
15408W        W58320   2.245  25.814  29.897  0.0659  0.0472 -0.1672
15409W        W58321  34.430  22.537  30.215 -0.0033  0.1299  0.1564
15410W        W58322   3.833  24.506  30.524  0.1278  0.0265 -0.1975
15411W        W58323   4.546  24.472  31.474  0.0926  0.0921 -0.0348
15412W        W58324   0.281  22.451  29.252 -0.0732  0.1527  0.0925
15413W        W58325   3.257  22.916  30.100  0.0978  0.1277 -0.2618
15414W        W58326   0.592  25.598  29.165 -0.1144 -0.1004 -0.2542
15415W        W58327   2.582  23.214  29.561  0.1947  0.2775  0.2959
15416W        W58328   2.263  22.501  30.675  0.2890 -0.0184 -0.1117
15417W        W58329   2.116  26.102  26.083 -0.0929  0.1381  0.3145
15418W        W58330   4.068  21.522  30.050  0.0635 -0.0771  0.1624
15419W        W58331   3.065  25.429  31.490 -0.0839  0.0583 -0.2519
15420W        W58332  34.313  26.239  31.102  0.3204  0.1642 -0.1024
15421W        W58333   1.372  23.303  29.287 -0.1211  0.1101  0.0120
15422W        W58334   3.545  24.394  30.109  0.1250  0.2145  0.0038
15423W        W58335   1.732  25.470  29.868  0.0640 -0.2039  0.0478
15424W        W58336   2.452  24.183  28.841 -0.2701 -0.0637  0.0119
15425W        W58337   3.104  26.161  30.045 -0.2163  0.0675  0.0769
15426W        W58338   1.178  24.262  29.474 -0.0847 -0.2277 -0.4071
15427W        W58339   3.980  23.997  29.252  0.1734 -0.0536 -0.0109
15428W        W58340   1.685  22.419  29.041 -0.0949 -0.1294  0.4008
15429W        W58341   2.244  21.869  29.559  0.2284 -0.0704  0.2388
15430W        W58342   2.974  21.880  27.842  0.1388  0.0535  0.1361
15431W        W58343   0.166  23.931   0.061  0.3280  0.1938 -0.0912
15432W        W58344  33.692  24.211  28.272 -0.2029 -0.0390  0.0102
15433W        W58345   0.730  25.026  28.330  0.0413  0.2431  0.1186
15434W        W58346   0.363  23.348  28.799 -0.0744  0.2466  0.0457
15435W        W58347   1.642  21.626  31.944  0.0134 -0.0847 -0.0557
15436W        W58348   0.951  24.131  30.756 -0.0899  0.3439 -0.1543
15437W        W58349   0.022  24.726  30.097 -0.1374  0.1481 -0.1821
15438W        W58350   0.243  21.532  29.041  0.2343 -0.5329  0.2268
15439W        W58351   4.046  24.294  26.983  0.0311 -0.4491  0.0079
15440W        W58352   0.010  21.105  30.702  0.2163  0.0771 -0.2973
15441W        W58353   2.133  22.402  30.209 -0.0954 -0.2598 -0.0113
15442W        W58354   2.328  24.043  27.913  0.0517  0.0878  0.0872
15443W        W58355   1.920  24.319  27.826  0.3008 -0.1186  0.1092
15444W        W58356   1.259  22.750  28.240  0.0158 -0.1397  0.1528
15445W        W58357   4.093  23.896  29.870  0.1624  0.4371  0.1170
15446W        W58358  33.879  23.792  28.126  0.1189 -0.1873 -0.0328
15447W        W58359   2.902  22.352  30.905  0.1407 -0.3085 -0.1268
15448W        W58360   1.467  23.672  31.515  0.1957 -0.0391  0.0351
15449W        W58361   0.425  22.860  28.757  0.1984 -0.0349  0.0773
15450W        W58362   2.273  21.937  30.371  0.1714 -0.3826 -0.0265
15451W        W58363   1.853  25.377  28.195 -0.2225  0.1474 -0.0153
15452W        W58364   3.566  26.023  27.873 -0.2142  0.1737 -0.1106
15453W        W58365   2.918  24.017  28.967 -0.1221 -0.2265  0.2591
15454W        W58366   1.419  25.599  30.401 -0.0627 -0.0322 -0.1174
15455W        W58367  33.653  22.187  29.993  0.0889  0.3222 -0.1592
15456W        W58368   2.714  22.802  28.103  0.1724  0.0438  0.3188
15457W        W58369   1.988  24.758  30.461  0.0891  0.0468  0.0306
15458W        W58370   4.124  23.783  26.811 -0.0381  0.1899  0.0964
15459W        W58371   3.420  22.826  29.416 -0.0178 -0.3495 -0.0231
15460W        W58372   2.711  22.719  27.631 -0.0682  0.0437 -0.2800
15461W        W58373   0.270  22.474  30.100 -0.0207 -0.0100  0.0974
15462W        W58374  32.716  24.671  31.065  0.1932 -0.1252  0.1472
15463W        W58375   3.771  23.537  30.906 -0.0714  0.0206 -0.1446
15464W        W58376   0.486  22.956  29.229 -0.1479 -0.1514  0.0073
15465W        W58377   1.951  22.061  28.679  0.0399 -0.0238  0.2238
15466W        W58378   2.332  24.029  28.400  0.2752 -0.1427 -0.2727
15467W        W58379   1.124  23.337  30.061  0.0135 -0.2150  0.0130
15468W        W58380   0.754  23.489  26.980 -0.3732 -0.0326 -0.0518
15469W        W58381   0.880  23.666  30.485 -0.0393  0.0458 -0.0568
15470W        W58382   3.715  24.355  29.437 -0.2661  0.0155 -0.3210
15471W        W58383   4.196  24.755   0.471 -0.0156  0.1842 -0.2681
15472W        W58384   1.081  23.563  28.281 -0.0533 -0.2817 -0.1021
15473W        W58385   4.796  23.921  26.241  0.1408 -0.0329 -0.1895
15474W        W58386   1.223  24.938  31.176 -0.0783  0.0369  0.0469
15475W        W58387   3.779  27.172  30.076 -0.0546  0.1591 -0.2014
15476W        W58388   2.700  24.906  29.334 -0.1767  0.0947 -0.2288
15477W        W58389   2.724  23.815  28.144 -0.0209  0.3521 -0.4033
15478W        W58390   0.127  23.394  30.002  0.0777 -0.0272 -0.0150
15479W        W58391   2.265  23.289  28.833  0.0882 -0.3611 -0.2141
15480W        W58392   0.896  23.500  29.449  0.0059  0.1061  0.0310
15481W        W58393   1.551  23.994  30.782 -0.1756  0.0173 -0.1332
15482W        W58394   0.439  21.963  29.210 -0.0790 -0.0926 -0.0053
15483W        W58395   3.862  21.658  28.633  0.3038 -0.1138  0.1291
15484W        W58396   0.497  24.675  31.809  0.2185  0.0549  0.1622
15485W        W58397   2.235  23.535  28.025  0.0529  0.2276 -0.4582
15486W        W58398   3.460  22.985  30.579 -0.1102  0.1621 -0.1041
15487W        W58399   2.935  23.403   1.057 -0.0424  0.1293  0.1930
15488W        W58400   1.061  23.942  31.733 -0.0050 -0.0343 -0.0870
15489W        W58401  34.403  25.826   0.399 -0.5105 -0.1429 -0.0216
15490W        W58402   1.286  24.498  30.942  0.3013  0.2957  0.1452
15491W        W58403   0.534  25.423  30.975 -0.3165  0.4065 -0.3116
15492W        W58404   2.627  22.462  30.305  0.0312  0.1036 -0.2267
15493W        W58405   2.283  24.451  31.418  0.1708 -0.0388 -0.0947
15494W        W58406   3.217  21.584   0.540 -0.0013  0.1751  0.1439
15495W        W58407   3.487  25.000   0.887  0.0630  0.0877 -0.0017
15496W        W58408   2.803  23.856  31.712 -0.0348 -0.2088 -0.0621
15497W        W58409   0.801  23.674  30.985  0.0529  0.2002  0.0293
15498W        W58410   3.042  24.496  30.963 -0.2162  0.3393  0.1869
15499W        W58411   1.222  24.751   1.063 -0.0321 -0.5654 -0.0685
15500W        W58412   4.336  23.859  31.509 -0.1381  0.2541  0.2564
15501W        W58413   0.953  26.587   0.465  0.0852 -0.0174 -0.0786
15502W        W58414   0.398  25.412   1.638  0.1634 -0.1968 -0.1500
15503W        W58415   3.315  25.616  31.028  0.0507  0.1109 -0.3568
15504W        W58416  34.192  21.305   0.099  0.2288 -0.0924  0.0846
15505W        W58417   0.525  22.932  31.701 -0.1826 -0.4047 -0.0651
15506W        W58418   1.320  23.079  31.181 -0.1790 -0.2150 -0.0122
15507W        W58419   0.519  25.611   1.096  0.3833 -0.1040  0.4007
15508W        W58420   3.316  22.212  31.157 -0.2040 -0.0755 -0.1588
15509W        W58421   2.647  23.813  30.928  0.3432  0.0832 -0.0426
15510W        W58422   1.789  21.247  30.487 -0.1011 -0.1641 -0.0097
15511W        W58423   0.559  22.099  31.082 -0.0261  0.1324 -0.3066
15512W        W58424   1.408  24.132   1.948 -0.1600  0.0455  0.0633
15513W        W58425  32.712  25.781  31.925  0.0613 -0.0267 -0.2177
15514W        W58426   2.005  23.938   0.098 -0.0578 -0.2060  0.0592
15515W        W58427   2.862  25.255  30.293 -0.3096 -0.0410  0.2454
15516W        W58428   1.917  25.158  31.278 -0.2186  0.0923  0.1468
15517W        W58429   0.985  23.018  31.578  0.2744  0.1183  0.3221
15518W        W58430   4.263  23.431  31.755  0.1248  0.2357  0.1294
15519W        W58431   3.957  22.981  31.772 -0.0768  0.1629 -0.3170
15520W        W58432   1.010  23.522  31.390 -0.2226 -0.3149 -0.0288
15521W        W58433   0.915  23.936   0.911  0.2614 -0.0554  0.2813
15522W        W58434   1.668  24.759  31.139 -0.1856  0.1280 -0.0101
15523W        W58435   3.234  24.707   0.109  0.0190  0.1829  0.2300
15524W        W58436   3.856  22.651  30.569  0.1916 -0.3200 -0.0628
15525W        W58437   3.661  23.478  30.379  0.0924 -0.0756  0.3354
15526W        W58438   2.730  22.934  30.422  0.3869  0.2766 -0.2751
15527W        W58439   2.642  23.503   0.658 -0.0133 -0.0236  0.1909
15528W        W58440   2.198  24.771  30.923  0.2332  0.0893  0.0783
15529W        W58441   2.106  24.726   0.660 -0.2254 -0.0426  0.0731
15530W        W58442   2.095  24.661  31.898 -0.0956 -0.0473  0.2910
15531W        W58443   2.530  23.989   0.669  0.3748 -0.2370  0.0110
15532W        W58444   1.510  24.206   0.546 -0.0858 -0.0816  0.0667
15533W        W58445   1.204  25.137   0.175  0.2171  0.3412  0.6313
15534W        W58446   4.578  24.668   0.036  0.0711 -0.1114 -0.0006
15535W        W58447  33.900  26.407  31.408  0.0843  0.1167 -0.0018
15536W        W58448   4.097  25.781  31.455 -0.1617  0.3851 -0.1222
15537W        W58449   2.951  22.839  30.962 -0.1344  0.1063  0.3464
15538W        W58450   1.822  22.866   0.002 -0.3017  0.1841  0.1212
15539W        W58451   2.685  24.561  29.761 -0.1323  0.0544 -0.0128
15540W        W58452   1.408  22.532  31.360 -0.1491  0.1818 -0.0344
15541W        W58453   2.219  22.557  28.993 -0.0721  0.2962  0.1570
15542W        W58454   4.989  24.283  29.593  0.3068  0.2246 -0.0697
15543W        W58455   1.894  26.441  30.635 -0.0422 -0.0149 -0.0063
15544W        W58456   0.552  25.123  31.361  0.1351  0.2312  0.1755
15545W        W58457  32.858  24.791   0.750 -0.2741  0.0096  0.1202
15546W        W58458  34.056  23.591   0.554  0.2996 -0.0153  0.2767
15547W        W58459   0.438  25.848  31.760 -0.0317  0.2471  0.0883
15548W        W58460  32.733  26.124   0.438 -0.0416  0.2039 -0.0251
15549W        W58461  34.278  23.353  31.408  0.0046 -0.0334 -0.4056
15550W        W58462   2.807  26.159  30.545  0.0981 -0.0581 -0.0597
15551W        W58463   4.868  25.992   0.115 -0.0929  0.2658  0.1999
15552W        W58464   3.833  24.368   0.695  0.2823 -0.0060  0.1911
15553W        W58465   0.166  28.933  18.069  0.2778  0.0511 -0.1482
15554W        W58466   0.583  26.663  17.778 -0.2577 -0.3883 -0.1209
15555W        W58467   1.548  26.522  16.453 -0.2600  0.4468 -0.0014
15556W        W58468   4.509  26.834  17.586  0.0729 -0.3848 -0.3971
15557W        W58469   0.122  26.198  18.189  0.0186 -0.0021 -0.1104
15558W        W58470   2.876  28.132  17.292 -0.1304  0.2680  0.0596
15559W        W58471   0.588  24.997  18.603 -0.3123  0.2393  0.0043
15560W        W58472   2.279  28.462  16.801 -0.0919 -0.1373  0.4707
15561W        W58473   3.081  29.337  20.244 -0.1358  0.4211  0.2800
15562W        W58474   2.671  28.543  16.406  0.2736  0.2525 -0.2475
15563W        W58475   1.571  26.680  18.265  0.0810 -0.1507  0.0120
15564W        W58476   2.546  28.324  18.217 -0.1316  0.0047 -0.3685
15565W        W58477  34.537  24.176  17.023 -0.0041 -0.2548  0.0053
15566W        W58478   0.180  26.460  18.587  0.0846  0.2066  0.1913
15567W        W58479   2.643  28.572  19.103  0.0020 -0.2499  0.0942
15568W        W58480  34.484  26.774  16.904 -0.1018 -0.0852  0.0072
15569W        W58481   2.511  25.521  19.278 -0.0748 -0.0462  0.0286
15570W        W58482   0.950  26.289  17.779 -0.1725  0.0655 -0.0009
15571W        W58483   1.465  29.094  15.986 -0.0667  0.0368  0.0453
15572W        W58484   1.175  26.247  19.618 -0.0034  0.0910 -0.0294
15573W        W58485   2.491  25.987  19.060 -0.1246 -0.1678  0.3260
15574W        W58486   3.151  28.590  17.299 -0.1340 -0.2449  0.0309
15575W        W58487   0.752  28.206  17.037 -0.2060  0.0502 -0.1329
15576W        W58488  33.672  26.419  17.938  0.0859 -0.1565 -0.0503
15577W        W58489   1.255  27.131  19.810 -0.0137  0.2814  0.0181
15578W        W58490   3.225  25.431  17.264 -0.0321 -0.3003  0.0491
15579W        W58491   3.560  27.252  17.011  0.2848  0.2193  0.1824
15580W        W58492   1.974  29.658  17.592  0.1195 -0.1595  0.0581
15581W        W58493   1.258  29.509  17.225 -0.1726 -0.1422  0.0101
15582W        W58494   2.770  26.801  20.050  0.0832  0.0361  0.1837
15583W        W58495  33.902  28.271  19.362 -0.3463  0.2118 -0.3459
15584W        W58496   0.551  29.303  18.208  0.0706 -0.1139 -0.1326
15585W        W58497   0.905  27.451  16.311 -0.3561 -0.2149 -0.2451
15586W        W58498   3.792  26.943  18.061 -0.1001  0.0055  0.0179
15587W        W58499   1.906  28.870  19.515 -0.2150  0.1495  0.2458
15588W        W58500   1.968  28.671  19.969 -0.0134  0.2733  0.2868
15589W        W58501  33.348  28.410  17.539  0.2728  0.0885 -0.2431
15590W        W58502   2.174  29.123  19.894 -0.0014  0.0790  0.0001
15591W        W58503   1.148  28.435  19.894 -0.1302 -0.2020 -0.3221
15592W        W58504   2.557  26.499  19.079  0.2930  0.0572 -0.1645
15593W        W58505   2.308  27.581  18.312 -0.1557  0.4500  0.1650
15594W        W58506   1.932  27.846  16.510 -0.0257 -0.0009  0.1007
15595W        W58507   4.367  27.602  18.622  0.0168 -0.2147  0.0466
15596W        W58508   1.601  27.758  20.146  0.0044 -0.1410 -0.0761
15597W        W58509   1.176  27.606  17.446 -0.0653  0.2199  0.0054
15598W        W58510   2.685  25.260  20.309  0.1943  0.0348 -0.4464
15599W        W58511  34.211  27.015  15.787  0.0575 -0.2227 -0.0103
15600W        W58512   3.785  27.285  17.709  0.2444 -0.0392 -0.1981
15601W        W58513   1.575  26.749  17.319  0.2490 -0.0292 -0.1379
15602W        W58514   2.133  27.466  16.744 -0.3318 -0.0039 -0.2330
15603W        W58515   2.681  26.187  18.664  0.1479 -0.1161  0.0026
15604W        W58516   0.727  28.770  17.938 -0.2124 -0.1581  0.0534
15605W        W58517   1.381  27.510  18.302 -0.1647  0.0165 -0.2184
15606W        W58518   2.390  28.115  19.134 -0.0158 -0.1275  0.0329
15607W        W58519   2.195  27.535  17.280  0.1555 -0.1098  0.0203
15608W        W58520   2.533  25.464  18.184  0.0982 -0.0438 -0.3765
15609W        W58521   0.697  29.471  17.311 -0.3806  0.0949 -0.1581
15610W        W58522   0.064  27.323  18.924 -0.3311 -0.0001  0.1682
15611W        W58523   3.529  28.508  16.397 -0.1735  0.2971  0.4990
15612W        W58524   4.526  27.182  18.921 -0.0317  0.2186 -0.1204
15613W        W58525   2.937  29.637  16.163  0.3112  0.1459  0.0201
15614W        W58526   1.231  27.136  17.255  0.0579  0.1873 -0.3510
15615W        W58527   0.557  28.188  19.551 -0.0053 -0.1523 -0.1878
15616W        W58528  34.075  26.768  17.825  0.3068 -0.0338  0.0600
15617W        W58529  32.756  26.115  16.746  0.0832  0.1113  0.3167
15618W        W58530   3.386  28.516  19.891  0.0042 -0.2699 -0.4702
15619W        W58531   0.478  26.824  18.784  0.1745  0.4144 -0.2712
15620W        W58532   4.094  25.905  16.529 -0.1582 -0.2471 -0.1885
15621W        W58533   0.526  29.698  16.868  0.2227 -0.0797 -0.1764
15622W        W58534   1.736  28.416  19.577  0.0952  0.0125  0.0541
15623W        W58535   3.688  27.372  16.125 -0.2532  0.0035 -0.1786
15624W        W58536   2.021  26.594  17.962 -0.3530  0.1340  0.2132
15625W        W58537   2.046  25.333  19.410 -0.0785  0.0900 -0.1254
15626W        W58538   1.273  27.105  16.348 -0.0462  0.0116  0.1655
15627W        W58539   0.410  27.893  16.919  0.1091 -0.0975  0.1223
15628W        W58540   2.733  28.281  18.691  0.2693  0.0316 -0.0923
15629W        W58541   1.535  27.389  16.911  0.2388 -0.1714  0.1227
15630W        W58542   0.577  27.771  17.708 -0.5481 -0.0719  0.1504
15631W        W58543   2.385  27.104  19.875  0.1483 -0.0857  0.0261
15632W        W58544   1.483  29.209  19.756  0.2111 -0.1618  0.0700
15633W        W58545  33.651  29.985  15.931 -0.0771 -0.0685  0.0183
15634W        W58546   0.335  27.572  17.306 -0.1643 -0.0864  0.1615
15635W        W58547   0.565  26.757  16.811  0.4338 -0.0641 -0.2794
15636W        W58548   1.698  26.983  18.774  0.0629  0.1855 -0.4606
15637W        W58549   1.732  27.843  18.306 -0.0405 -0.0478 -0.1247
15638W        W58550   1.375  26.908  16.829 -0.2000 -0.1868 -0.0313
15639W        W58551   1.333  25.288  20.526 -0.1023  0.5691  0.3466
15640W        W58552   1.670  26.412  17.647  0.0605 -0.2083 -0.0232
15641W        W58553   1.018  27.181  18.005 -0.1121  0.3293  0.3694
15642W        W58554   4.968  27.953  17.056  0.0310 -0.3558  0.0939
15643W        W58555   3.508  26.882  15.955  0.1221  0.1816 -0.4586
15644W        W58556   2.436  27.773  16.441 -0.0903 -0.1903 -0.4195
15645W        W58557  34.301  27.279  18.536  0.5257  0.1090 -0.0714
15646W        W58558   2.418  25.948  18.316 -0.0975 -0.0242 -0.3474
15647W        W58559   0.232  27.273  19.817  0.0746  0.1843 -0.0241
15648W        W58560  34.128  26.276  18.191  0.1842  0.2189  0.0149
15649W        W58561   3.681  26.749  17.581  0.0138  0.0418  0.0058
15650W        W58562   0.925  25.842  16.953  0.1709 -0.3375  0.4211
15651W        W58563   2.820  27.212  17.692  0.2660  0.0493 -0.2148
15652W        W58564   0.098  26.621  16.546  0.0739 -0.1059  0.0099
15653W        W58565  33.691  28.334  17.113  0.1293  0.3416  0.1433
15654W        W58566   2.893  24.836  19.414  0.0720  0.1486 -0.0772
15655W        W58567   1.284  30.039  18.223  0.4291 -0.1469  0.0311
15656W        W58568   2.435  28.642  19.656  0.0326 -0.0496  0.3807
15657W        W58569   2.691  27.667  16.847 -0.2019 -0.3089  0.3525
15658W        W58570   0.479  25.950  19.479  0.0203 -0.1375  0.2809
15659W        W58571   0.157  27.064  17.108 -0.1943  0.1316  0.1224
15660W        W58572   1.395  29.020  17.204 -0.5675  0.2123  0.0665
15661W        W58573   1.118  30.262  17.806  0.0214  0.1980 -0.2137
15662W        W58574   0.251  26.626  17.193  0.3566  0.1042  0.0663
15663W        W58575   3.309  29.077  19.826 -0.1707 -0.1810 -0.0682
15664W        W58576   3.620  27.079  18.918  0.0033  0.1094  0.1820
15665W        W58577   2.009  27.768  18.871 -0.2050  0.0443 -0.2293
15666W        W58578   3.421  25.928  19.000 -0.4131 -0.3031 -0.0081
15667W        W58579   2.183  28.057  18.029 -0.1514 -0.1429 -0.0472
15668W        W58580   3.756  26.429  18.252 -0.0367  0.0573 -0.1499
15669W        W58581   1.143  24.100  17.268  0.1282  0.0624  0.0146
15670W        W58582   2.636  30.389  18.724  0.2242 -0.1511 -0.2132
15671W        W58583  34.493  28.707  17.035  0.1382 -0.0967  0.0175
15672W        W58584  34.250  27.258  19.097  0.0753 -0.1795  0.1508
15673W        W58585   1.573  28.916  16.407 -0.0185  0.1812  0.4405
15674W        W58586   2.403  26.600  17.030  0.0382 -0.1970  0.0568
15675W        W58587   0.191  28.496  19.446 -0.1775  0.0938  0.0956
15676W        W58588   2.188  25.605  20.407  0.1482  0.0129 -0.0422
15677W        W58589  33.577  27.043  16.421 -0.1467  0.0596 -0.3188
15678W        W58590   0.999  28.102  18.902 -0.3489  0.0630  0.3366
15679W        W58591   1.664  26.238  17.115 -0.4506 -0.1470  0.0744
15680W        W58592   2.982  26.485  16.825  0.2062  0.2725  0.2716
15681W        W58593   2.462  27.876  21.243 -0.1746  0.1115  0.0401
15682W        W58594   2.262  27.906  16.894  0.0671 -0.2492 -0.2242
15683W        W58595   2.600  26.264  15.756  0.2107  0.2593  0.0541
15684W        W58596   1.644  27.302  15.871  0.2595  0.4848 -0.2260
15685W        W58597   0.527  27.688  18.248 -0.2357  0.2080 -0.0669
15686W        W58598   1.578  28.730  16.869 -0.2297 -0.0665  0.1018
15687W        W58599   1.536  28.047  17.434 -0.2446  0.3444  0.0664
15688W        W58600   0.805  26.982  16.226  0.0504  0.1692  0.1628
15689W        W58601   3.419  28.137  17.165 -0.0925  0.2182 -0.0540
15690W        W58602   0.240  27.997  18.034  0.2181  0.1208 -0.0725
15691W        W58603   0.901  28.845  20.688  0.2455  0.0366 -0.0246
15692W        W58604   0.950  28.103  17.491  0.0383  0.2851 -0.0312
15693W        W58605   2.943  26.205  19.346 -0.1339  0.1810 -0.0199
15694W        W58606   0.478  26.343  16.370  0.1279 -0.1410  0.1359
15695W        W58607   1.027  26.784  17.535 -0.1510 -0.3397 -0.0118
15696W        W58608  33.981  29.012  16.395  0.1777 -0.1037 -0.5979
15697W        W58609   4.265  24.937  18.147 -0.2248 -0.1498 -0.2564
15698W        W58610   3.093  26.958  18.865  0.2476  0.2773  0.2909
15699W        W58611   1.341  24.937  18.909 -0.1359  0.2685  0.2766
15700W        W58612   3.797  26.328  18.943 -0.1488 -0.2414  0.1015
15701W        W58613   2.364  26.486  16.116 -0.1049 -0.0584 -0.1562
15702W        W58614   2.585  27.748  18.782  0.0097  0.2954  0.2282
15703W        W58615  34.577  27.108  16.546  0.1260  0.1024  0.0782
15704W        W58616   2.354  27.104  18.030  0.0793  0.1474 -0.1286
15705W        W58617  34.512  27.762  18.080 -0.0101 -0.0138  0.1065
15706W        W58618   0.057  28.973  19.560 -0.0898  0.1110  0.4273
15707W        W58619   1.868  27.919  20.561  0.0562 -0.0300  0.2206
15708W        W58620   3.360  27.695  18.272  0.1410 -0.3782 -0.0510
15709W        W58621   1.437  25.626  19.289 -0.1831  0.0828  0.0616
15710W        W58622   1.844  26.631  16.824 -0.2825 -0.1850 -0.2711
15711W        W58623   1.895  28.806  16.057  0.3086  0.1522  0.2615
15712W        W58624   1.193  28.765  15.699  0.0482  0.2832 -0.0270
15713W        W58625   1.355  26.224  18.008  0.1256 -0.1550  0.0605
15714W        W58626   1.353  29.138  18.743 -0.0550  0.2425  0.3854
15715W        W58627   1.628  28.365  15.867 -0.0101  0.0748 -0.3320
15716W        W58628   1.796  27.149  18.133  0.1332  0.0979 -0.0090
15717W        W58629   1.116  27.172  15.822  0.0521 -0.0549  0.0544
15718W        W58630   3.468  25.566  18.478 -0.3553 -0.1914  0.0335
15719W        W58631  34.112  28.105  18.137 -0.1609 -0.2909 -0.1625
15720W        W58632  34.082  27.737  16.307 -0.0193  0.1773  0.2045
15721W        W58633  33.724  26.669  17.449 -0.0243 -0.2092 -0.4033
15722W        W58634   3.224  26.918  16.812 -0.1480  0.1261 -0.2111
15723W        W58635   2.271  28.743  17.278  0.0727 -0.2439  0.0883
15724W        W58636   1.722  26.484  18.810  0.2158 -0.1662  0.0655
15725W        W58637   0.712  26.413  17.349  0.0190 -0.1547  0.0216
15726W        W58638   1.573  29.190  18.268  0.0243  0.1375  0.0230
15727W        W58639   2.918  27.222  19.226 -0.0292  0.0459  0.2850
15728W        W58640   2.976  27.285  17.050 -0.5582 -0.3270 -0.3118
15729W        W58641   3.164  29.116  18.590 -0.0748 -0.0662 -0.0109
15730W        W58642   1.625  28.734  19.086  0.0735 -0.0947 -0.0462
15731W        W58643   0.737  26.256  16.776 -0.0183 -0.2263  0.0442
15732W        W58644   2.820  25.797  17.348 -0.0842  0.0939  0.1034
15733W        W58645   1.435  27.289  17.784 -0.0532 -0.0116 -0.0945
15734W        W58646  33.891  27.617  17.097 -0.0133  0.2181  0.1314
15735W        W58647   1.892  29.378  18.639 -0.1834  0.3541  0.1006
15736W        W58648   1.673  28.328  17.774  0.0533 -0.2084 -0.3122
15737W        W58649   0.682  28.535  17.434  0.2013  0.2303 -0.1277
15738W        W58650   0.865  26.483  18.667 -0.0840  0.1431  0.0686
15739W        W58651   1.493  29.628  18.501  0.2435 -0.0686  0.2882
15740W        W58652   1.906  27.029  17.605 -0.0706 -0.0068  0.2156
15741W        W58653   0.881  25.492  16.583  0.0606  0.0414  0.0619
15742W        W58654   1.300  27.737  16.624 -0.3280 -0.0905 -0.0635
15743W        W58655   2.488  25.983  19.581 -0.0023  0.2379  0.1009
15744W        W58656   3.029  25.771  18.691  0.0446  0.1164 -0.3536
15745W        W58657  34.556  28.637  20.597  0.0235 -0.0074 -0.4041
15746W        W58658   2.104  26.903  18.482  0.0596  0.1613  0.0066
15747W        W58659   4.929  27.418  17.095 -0.1604 -0.2880  0.2547
15748W        W58660   5.078  27.381  19.170 -0.0779 -0.1514 -0.4223
15749W        W58661   1.291  28.548  16.255 -0.2168 -0.3209 -0.2566
15750W        W58662  34.353  28.228  19.563  0.2367  0.1730  0.0712
15751W        W58663   1.512  29.363  16.806 -0.1495 -0.0111 -0.4153
15752W        W58664   2.266  28.061  18.539  0.4276  0.2327 -0.0807
15753W        W58665   1.627  30.088  17.800  0.3101 -0.0192  0.0790
15754W        W58666   0.099  28.548  16.583 -0.0155 -0.0900 -0.0042
15755W        W58667   0.074  28.036  19.315 -0.0860  0.0521  0.0377
15756W        W58668   4.046  25.899  17.350  0.0746 -0.0895  0.0516
15757W        W58669   2.678  28.170  16.736 -0.0926  0.1205  0.0033
15758W        W58670  34.026  28.163  17.563  0.0914 -0.0569 -0.0680
15759W        W58671   4.426  26.237  19.698 -0.1186 -0.0346  0.1184
15760W        W58672   1.555  28.033  16.270  0.0202  0.1863  0.0788
15761W        W58673   3.402  26.240  19.553 -0.0349  0.0827 -0.2418
15762W        W58674   2.079  25.660  18.868 -0.0346 -0.0583 -0.1115
15763W        W58675   3.231  28.544  17.797 -0.1395 -0.0409 -0.1118
15764W        W58676  33.708  26.094  19.730 -0.0709 -0.1395 -0.2494
15765W        W58677   2.863  29.433  19.332 -0.0172 -0.1134  0.2531
15766W        W58678   0.266  27.510  19.405  0.0388 -0.0482  0.3773
15767W        W58679   2.043  26.499  17.330 -0.0841 -0.0450 -0.5711
15768W        W58680  34.486  26.257  16.805 -0.0532 -0.0268  0.2686
15769W        W58681   1.206  27.255  19.324  0.0046  0.2232  0.4289
15770W        W58682   2.750  28.663  17.764  0.0279  0.2805 -0.1535
15771W        W58683   2.524  28.907  16.808  0.2368  0.4218 -0.1160
15772W        W58684   4.135  27.702  17.752  0.1184 -0.3604  0.1458
15773W        W58685   1.750  28.524  18.263 -0.1477 -0.1294  0.0931
15774W        W58686   3.169  27.671  17.321 -0.1691  0.0681  0.2983
15775W        W58687   0.823  27.794  16.673  0.0165 -0.0232  0.4437
15776W        W58688   1.513  27.829  17.877  0.1314  0.0754 -0.0232
15777W        W58689   1.482  24.557  19.152 -0.0642  0.1693 -0.2805
15778W        W58690   3.119  26.327  18.897  0.0232  0.0941  0.3011
15779W        W58691   1.067  26.636  17.075 -0.4116 -0.0856 -0.0820
15780W        W58692   1.974  25.812  19.453  0.1615 -0.1859 -0.0172
15781W        W58693   3.353  27.079  19.542 -0.1192  0.0029 -0.0534
15782W        W58694   1.250  27.434  18.792  0.0891  0.1841  0.1330
15783W        W58695   0.803  26.317  19.200 -0.4734 -0.0882  0.2836
15784W        W58696   3.428  28.740  19.476  0.0219 -0.0794 -0.1302
15785W        W58697   1.784  27.820  17.034  0.1082  0.0635  0.3854
15786W        W58698   3.135  24.506  19.726  0.0860  0.1874 -0.4056
15787W        W58699   4.689  25.989  17.973 -0.3250 -0.1172  0.1067
15788W        W58700   2.510  27.157  16.995  0.2840 -0.0897  0.2441
15789W        W58701   1.516  27.562  19.662 -0.0325 -0.3301  0.1976
15790W        W58702   2.848  27.781  20.286  0.1177  0.1973  0.2037
15791W        W58703   1.971  25.918  17.387  0.0013  0.0568 -0.0623
15792W        W58704   3.479  26.723  19.225 -0.0716  0.0471 -0.2427
15793W        W58705   3.039  28.819  16.334 -0.1083  0.0409 -0.0934
15794W        W58706   4.046  27.268  18.767 -0.1286  0.1085 -0.0512
15795W        W58707   2.461  26.366  17.858  0.0508  0.0232 -0.1336
15796W        W58708   0.684  27.268  17.631 -0.2028 -0.0636  0.2829
15797W        W58709   0.967  29.086  17.475 -0.1034 -0.1263  0.1431
15798W        W58710   0.154  26.279  15.715 -0.1213  0.2011  0.3194
15799W        W58711   0.253  26.624  16.081  0.1892  0.3044  0.0485
15800W        W58712   1.740  28.000  19.323 -0.2297 -0.2898 -0.3886
15801W        W58713   4.084  27.576  19.256  0.0058 -0.0545 -0.2527
15802W        W58714   0.285  26.140  17.017 -0.0932 -0.1940  0.1434
15803W        W58715   3.879  26.432  19.483  0.1612 -0.1368 -0.0531
15804W        W58716   0.493  27.357  16.841  0.0474  0.0598  0.0342
15805W        W58717   3.075  26.780  17.659 -0.1230  0.1865 -0.0651
15806W        W58718   0.585  28.904  18.646 -0.1437 -0.1171 -0.0275
15807W        W58719   0.788  28.228  17.977  0.0877  0.0549 -0.0092
15808W        W58720   0.327  28.514  16.997  0.2254  0.1608  0.1736
15809W        W58721   2.765  26.690  18.585  0.2813 -0.0094 -0.0351
15810W        W58722   4.157  26.820  19.058  0.0363  0.0504 -0.1125
15811W        W58723   1.354  28.713  19.565 -0.1009  0.3514  0.0162
15812W        W58724   4.220  26.278  18.669 -0.1412 -0.1982  0.0237
15813W        W58725   2.631  27.555  19.829 -0.0417 -0.0071 -0.0589
15814W        W58726   2.066  27.987  17.520 -0.0612  0.1148  0.0587
15815W        W58727   2.378  28.271  17.307  0.0078 -0.0889  0.1611
15816W        W58728   3.284  27.215  17.494  0.0168 -0.2973  0.2390
15817W        W58729   1.445  28.478  18.670 -0.1087 -0.0389  0.1235
15818W        W58730  34.065  26.375  20.441  0.0088 -0.0080 -0.4521
15819W        W58731   3.011  26.709  19.258  0.0628 -0.0360 -0.0881
15820W        W58732   3.375  27.268  17.970 -0.0103  0.0667  0.3888
15821W        W58733  34.574  26.119  17.292  0.0338  0.0112 -0.0812
15822W        W58734   1.595  27.485  16.325 -0.0980  0.1029 -0.0249
15823W        W58735   1.246  27.784  19.262  0.1723 -0.1520  0.0919
15824W        W58736   1.441  26.803  17.817 -0.0251  0.4984 -0.0882
15825W        W58737   0.489  28.141  16.513  0.2879  0.1661  0.3659
15826W        W58738   3.700  27.741  17.160 -0.1598 -0.0186  0.6113
15827W        W58739   1.792  28.869  18.641  0.0853  0.0609 -0.1739
15828W        W58740   2.308  28.566  18.710 -0.2065  0.1456  0.1173
15829W        W58741   1.222  26.259  16.847  0.1231 -0.1859  0.2087
15830W        W58742   1.076  27.871  18.350 -0.1238 -0.3105 -0.0382
15831W        W58743  34.694  27.987  16.642  0.1664 -0.2713 -0.1703
15832W        W58744   3.669  28.050  16.747  0.1934 -0.0197 -0.2110
15833W        W58745  33.882  27.422  16.650  0.1030 -0.1096 -0.1072
15834W        W58746   3.635  27.485  19.673  0.0828 -0.1750 -0.2837
15835W        W58747   2.919  25.982  16.581  0.1984 -0.0834 -0.0724
15836W        W58748   3.385  26.653  17.188 -0.2719 -0.0648  0.0084
15837W        W58749   3.810  25.712  16.923 -0.1749  0.0185  0.0453
15838W        W58750   1.860  27.439  20.463  0.1384 -0.1398 -0.0659
15839W        W58751   0.962  27.037  18.886 -0.1540  0.1431  0.1023
15840W        W58752   1.018  26.697  16.554 -0.3406  0.2201  0.0740
15841W        W58753   1.637  26.329  19.389  0.2264 -0.3223  0.1117
15842W        W58754   2.394  26.469  18.324 -0.1560  0.3543 -0.0263
15843W        W58755  33.453  29.066  19.562 -0.1220  0.2221 -0.0180
15844W        W58756   3.219  28.094  17.638  0.0077 -0.0533  0.1390
15845W        W58757  34.625  26.265  16.233  0.0480 -0.2391  0.1472
15846W        W58758   2.558  27.620  17.890 -0.0555  0.2409 -0.1446
15847W        W58759   3.966  25.683  18.150 -0.0484 -0.2658  0.2805
15848W        W58760   2.018  28.959  16.888  0.0696 -0.0436  0.0896
15849W        W58761   2.580  26.738  19.536  0.0478  0.3398 -0.0988
15850W        W58762   0.883  29.868  17.132  0.0498 -0.1915 -0.1155
15851W        W58763   1.004  28.954  18.400  0.1833  0.1208 -0.1613
15852W        W58764   0.577  30.284  18.148 -0.3821  0.0950 -0.0785
15853W        W58765  34.577  25.657  16.138  0.0528 -0.3580  0.0591
15854W        W58766   4.970  24.823  17.012  0.1864 -0.1330  0.2448
15855W        W58767   1.843  25.062  18.131  0.0997 -0.1609 -0.1737
15856W        W58768   4.249  24.086  17.494 -0.3098  0.1999 -0.1607
15857W        W58769   0.642  26.958  17.273  0.2807  0.1556 -0.2016
15858W        W58770   4.112  27.031  17.403 -0.0560  0.0680  0.0633
15859W        W58771   2.575  26.991  18.975  0.0053 -0.3111  0.0262
15860W        W58772   0.023  28.684  18.472 -0.0241  0.0202  0.1468
15861W        W58773   2.114  27.461  16.131 -0.1594 -0.0473 -0.0993
15862W        W58774   3.150  27.501  18.831 -0.2480 -0.0999 -0.3128
15863W        W58775   1.805  27.042  16.574 -0.0065 -0.0183  0.1696
15864W        W58776   2.953  28.722  19.684 -0.0813  0.3731 -0.3554
15865W        W58777   0.804  26.886  18.393  0.2479  0.3160  0.0138
15866W        W58778   2.037  27.504  17.756  0.0690 -0.0515  0.2225
15867W        W58779   1.077  28.230  16.616  0.1995 -0.1778 -0.0444
15868W        W58780   2.333  27.258  20.425 -0.0485  0.0525 -0.1899
15869W        W58781   2.057  28.939  20.427 -0.2540 -0.1349  0.0147
15870W        W58782  34.067  26.252  17.649  0.3248  0.0980  0.1494
15871W        W58783   4.371  28.032  16.069 -0.1384 -0.0386 -0.4019
15872W        W58784   3.210  25.910  17.018  0.1805 -0.0555  0.0534
15873W        W58785   0.827  30.012  15.976 -0.2484 -0.0261  0.2652
15874W        W58786   4.570  27.616  18.047 -0.1026 -0.2180  0.2173
15875W        W58787   3.404  29.474  18.844 -0.1332 -0.1010  0.2272
15876W        W58788   1.550  25.841  18.536 -0.0296 -0.4193  0.1187
15877W        W58789   3.402  28.723  18.340  0.1313  0.1190 -0.1181
15878W        W58790   3.981  27.491  18.294 -0.1464  0.0393  0.0347
15879W        W58791   1.177  26.163  17.366 -0.1952  0.0358  0.4705
15880W        W58792   0.760  27.641  18.928  0.2455  0.1046  0.0264
15881W        W58793   1.002  27.658  17.933 -0.1835  0.2476  0.2082
15882W        W58794   4.129  26.721  17.792 -0.1678 -0.0106  0.2232
15883W        W58795   3.992  24.824  18.557 -0.1582 -0.0950 -0.0861
15884W        W58796   2.199  28.800  16.436  0.0434  0.0993  0.0180
15885W        W58797   3.170  25.094  20.412 -0.3768  0.2048  0.0494
15886W        W58798   1.243  29.601  19.015  0.0841  0.1155  0.3800
15887W        W58799   2.860  29.561  18.889  0.2781 -0.2944  0.1907
15888W        W58800   0.831  27.922  16.190 -0.1617 -0.0284 -0.1803
15889W        W58801   2.381  27.935  20.263  0.1448 -0.0730  0.2391
15890W        W58802   2.681  28.106  17.749  0.2350 -0.1596  0.0575
15891W        W58803   2.508  27.900  15.955 -0.0696 -0.0897 -0.0010
15892W        W58804   2.674  28.721  18.424  0.0325 -0.0995 -0.1523
15893W        W58805   1.685  27.558  17.444  0.3541  0.0645 -0.1877
15894W        W58806   4.674  27.481  20.085 -0.2854 -0.1960 -0.0162
15895W        W58807   1.177  25.000  16.458 -0.1363  0.0765  0.1738
15896W        W58808   4.397  24.946  16.750  0.2373 -0.2364 -0.2924
15897W        W58809   2.732  27.169  15.631  0.0693  0.2647  0.1133
15898W        W58810   1.381  28.325  19.136  0.1685  0.2385 -0.4451
15899W        W58811   0.670  25.527  18.768 -0.3666 -0.1638 -0.4750
15900W        W58812  34.650  27.853  17.632  0.0461  0.0287 -0.1409
15901W        W58813   0.488  29.146  17.716 -0.2721  0.0602  0.0638
15902W        W58814   1.472  24.620  19.704 -0.4197  0.0477  0.2347
15903W        W58815   1.085  26.913  20.944 -0.3376 -0.0385  0.0641
15904W        W58816   1.062  26.767  19.532  0.3631 -0.2226  0.1686
15905W        W58817   1.837  26.185  18.343 -0.0081 -0.0823 -0.0408
15906W        W58818   3.251  27.771  16.878  0.1643  0.2543  0.2905
15907W        W58819   0.445  27.163  18.191 -0.1228  0.0063 -0.1266
15908W        W58820  34.556  25.803  18.390  0.1136 -0.1099  0.1830
15909W        W58821   1.828  28.432  16.437  0.1151 -0.0352  0.3210
15910W        W58822   4.318  28.608  17.922  0.0663 -0.1192  0.1795
15911W        W58823   1.261  25.832  16.516 -0.2046 -0.0307  0.2927
15912W        W58824   4.442  28.799  20.115  0.1466 -0.0313 -0.1165
15913W        W58825   0.433  26.608  15.491  0.0264  0.1242  0.0897
15914W        W58826   2.047  27.062  20.778  0.1542 -0.2524 -0.0527
15915W        W58827   0.355  26.087  19.962  0.0652 -0.0563 -0.0746
15916W        W58828  34.599  25.694  17.043  0.1918  0.2836 -0.0758
15917W        W58829   1.797  27.426  18.539 -0.2675  0.2454 -0.0775
15918W        W58830   2.740  28.552  17.076 -0.4369  0.1013  0.2866
15919W        W58831   3.927  29.793  18.252 -0.4091  0.1202 -0.0795
15920W        W58832   2.113  29.504  19.271  0.1965 -0.1636  0.0604
15921W        W58833   1.985  29.635  20.777 -0.0011  0.0551  0.2979
15922W        W58834   1.289  26.162  19.067 -0.0705 -0.0452  0.2200
15923W        W58835   2.469  29.093  17.963 -0.2365  0.1032 -0.1707
15924W        W58836   1.719  29.526  20.041  0.0942  0.3378 -0.1091
15925W        W58837   3.942  28.141  17.188  0.2631 -0.1031 -0.1022
15926W        W58838   2.656  27.608  17.422  0.3082  0.1434  0.1596
15927W        W58839   2.425  26.771  17.608 -0.1193 -0.1717  0.0905
15928W        W58840   2.139  26.338  19.353  0.1132 -0.1490  0.2664
15929W        W58841   0.526  28.044  19.082  0.0183 -0.1551 -0.1082
15930W        W58842   2.554  27.237  18.540 -0.1290  0.3583  0.0910
15931W        W58843   1.136  26.648  18.147 -0.1628  0.0241  0.3665
15932W        W58844   2.515  26.400  16.557 -0.1157 -0.0003 -0.1197
15933W        W58845   3.036  27.624  17.785  0.1153 -0.0399  0.3587
15934W        W58846   0.160  26.790  18.103 -0.1432  0.0974  0.1244
15935W        W58847   2.014  26.353  16.465 -0.1341  0.0771 -0.1505
15936W        W58848   1.813  26.333  19.877 -0.1652  0.0112 -0.2053
15937W        W58849   1.834  29.345  17.247  0.0286  0.2445 -0.0257
15938W        W58850   3.358  27.555  21.252 -0.1127 -0.2653 -0.2098
15939W        W58851   2.021  27.062  17.074  0.1752 -0.2550 -0.2066
15940W        W58852   3.697  27.037  16.527  0.0519  0.1134 -0.1643
15941W        W58853   2.301  29.054  18.571  0.2103 -0.2242  0.0463
15942W        W58854   2.366  29.176  21.739  0.0662  0.1593 -0.3994
15943W        W58855   1.722  29.633  18.037  0.1801 -0.1288  0.2870
15944W        W58856   3.674  27.680  18.648  0.2515 -0.0367 -0.0994
15945W        W58857   1.286  27.029  18.498 -0.0884 -0.1941  0.0900
15946W        W58858   2.150  28.523  17.730 -0.1806 -0.0129 -0.1651
15947W        W58859   1.885  28.400  17.222  0.1256  0.1813  0.1036
15948W        W58860   2.875  26.396  18.217  0.0338 -0.0173  0.2107
15949W        W58861   0.994  27.248  16.771 -0.0166 -0.0137 -0.3072
15950W        W58862   2.303  26.897  16.596  0.0201 -0.0658  0.1200
15951W        W58863   2.143  29.153  17.634  0.2820  0.0275 -0.2366
15952W        W58864   2.088  28.564  19.179  0.1721 -0.0921 -0.0718
15953W        W58865   0.778  30.425  22.934  0.3683  0.1077 -0.0309
15954W        W58866   1.519  27.229  20.848 -0.1550  0.0862 -0.2302
15955W        W58867   2.196  26.162  21.022 -0.1195 -0.1091  0.1049
15956W        W58868   2.923  27.981  19.053  0.0021 -0.5301  0.0278
15957W        W58869   0.668  25.506  19.811  0.2868 -0.0332  0.0064
15958W        W58870   3.989  29.140  21.522  0.0011  0.0805 -0.4871
15959W        W58871   0.494  25.264  22.401 -0.1738  0.3948  0.0516
15960W        W58872   1.642  27.892  21.606  0.1548  0.0409 -0.0942
15961W        W58873   1.415  28.091  23.115  0.0372  0.1164 -0.1615
15962W        W58874   2.722  28.304  20.022 -0.1504  0.0416 -0.1078
15963W        W58875  33.951  27.248  23.961  0.2333 -0.0934  0.0333
15964W        W58876   2.261  28.502  23.444 -0.2608  0.0296 -0.2591
15965W        W58877   1.666  25.566  20.272 -0.5298  0.0898  0.1174
15966W        W58878  34.361  26.176  22.359  0.4027  0.1691 -0.0727
15967W        W58879   2.210  26.761  21.341  0.0895  0.3055  0.0212
15968W        W58880   1.025  27.827  21.310  0.3997  0.2420 -0.0401
15969W        W58881   1.081  26.503  22.065  0.0643  0.0785  0.1415
15970W        W58882   1.013  26.320  20.149 -0.0377  0.2140 -0.0008
15971W        W58883   2.746  28.655  21.634 -0.1483 -0.0073  0.2597
15972W        W58884   1.035  26.218  22.717  0.2158  0.0869 -0.0653
15973W        W58885   0.688  25.772  24.921  0.0586 -0.0119  0.0633
15974W        W58886   2.726  27.491  21.349  0.2252  0.1203 -0.2852
15975W        W58887   1.320  26.323  18.565 -0.2107 -0.1331  0.0962
15976W        W58888  34.273  27.713  21.739 -0.2407  0.1642  0.1792
15977W        W58889   0.407  27.208  23.490 -0.0165  0.2385 -0.1885
15978W        W58890   0.315  25.587  21.499 -0.0978 -0.1844  0.0249
15979W        W58891   2.862  29.363  20.995  0.1376  0.0205  0.1331
15980W        W58892   0.825  29.650  22.247  0.1727 -0.1136  0.3614
15981W        W58893   0.922  28.486  21.108  0.0470  0.0826 -0.1058
15982W        W58894   1.237  27.855  22.699 -0.0827  0.1310 -0.1875
15983W        W58895   1.372  28.249  21.355  0.2465  0.1864 -0.2227
15984W        W58896  33.797  29.520  21.611 -0.0022 -0.1933  0.0579
15985W        W58897   2.278  28.724  21.359  0.0041  0.1624 -0.0293
15986W        W58898   5.107  28.242  21.802 -0.4907  0.0801 -0.2138
15987W        W58899   2.600  28.790  23.580  0.1095 -0.3294 -0.1837
15988W        W58900   2.010  29.460  23.235 -0.3759  0.2638 -0.1674
15989W        W58901  34.246  28.277  20.924 -0.0761  0.1078  0.2711
15990W        W58902   2.634  28.277  23.723  0.5626 -0.1772  0.0574
15991W        W58903   0.923  29.879  24.171  0.0693 -0.1088 -0.1079
15992W        W58904   2.373  27.304  23.908  0.1363 -0.2217  0.1470
15993W        W58905   1.586  26.705  20.838 -0.0306 -0.0240  0.0200
15994W        W58906   0.240  28.958  20.745  0.1487 -0.3150  0.0942
15995W        W58907   2.939  27.632  21.785  0.0113 -0.0564  0.1189
15996W        W58908  34.590  27.589  23.763 -0.0058  0.1745 -0.0877
15997W        W58909   0.502  29.029  22.336 -0.1585  0.0943 -0.1206
15998W        W58910   2.805  25.936  22.828  0.0715 -0.0799 -0.0672
15999W        W58911   0.871  28.741  20.174 -0.5092 -0.1097  0.1964
16000W        W58912   3.210  27.448  20.503 -0.0490 -0.2125  0.0193
16001W        W58913   1.568  26.771  19.774  0.1114  0.1965 -0.1254
16002W        W58914   3.847  27.081  19.385  0.2263  0.0365  0.0971
16003W        W58915  34.647  26.956  21.124 -0.4666 -0.2131 -0.0391
16004W        W58916   1.040  30.252  22.156  0.2279 -0.2816 -0.0355
16005W        W58917   0.578  27.714  21.482 -0.1323 -0.0571  0.0203
16006W        W58918   2.233  28.474  22.346 -0.2839 -0.0195  0.0489
16007W        W58919   1.422  27.327  20.232 -0.2895  0.1625 -0.1921
16008W        W58920   1.075  27.498  21.626  0.3204  0.1199  0.2591
16009W        W58921   0.856  28.370  20.559 -0.0720 -0.0996  0.2069
16010W        W58922   0.991  29.182  22.309  0.2533 -0.2379 -0.0639
16011W        W58923   1.873  28.258  18.806 -0.1110 -0.0808  0.0529
16012W        W58924   3.561  28.933  21.591  0.3416  0.2019 -0.0011
16013W        W58925   2.279  28.154  20.799 -0.3222 -0.2126  0.1742
16014W        W58926   0.568  28.141  21.145 -0.3018  0.0182 -0.2574
16015W        W58927  33.149  27.275  23.362  0.1326  0.1010  0.1756
16016W        W58928  33.483  27.634  24.999 -0.1848  0.2526  0.1005
16017W        W58929   1.509  24.802  20.859 -0.1903  0.3208  0.1832
16018W        W58930   3.155  27.647  23.000  0.3242  0.2045 -0.2287
16019W        W58931   0.401  30.182  23.817  0.0039  0.2192 -0.2161
16020W        W58932   3.131  25.106  21.166  0.6220 -0.0763  0.0833
16021W        W58933   2.608  28.405  21.230  0.0902  0.3970 -0.1666
16022W        W58934   2.683  27.614  23.065  0.0196  0.1754 -0.0137
16023W        W58935   2.961  28.777  20.214  0.0078 -0.0908  0.1927
16024W        W58936   3.607  25.956  21.021 -0.3028 -0.2085 -0.3645
16025W        W58937   1.416  27.184  22.534  0.0355 -0.2770  0.0848
16026W        W58938  34.126  29.035  20.276 -0.1893  0.1234  0.0285
16027W        W58939   2.791  27.257  20.244  0.1038  0.3151 -0.1978
16028W        W58940   3.549  27.881  22.095 -0.4219  0.0587 -0.1058
16029W        W58941   2.744  28.088  19.554  0.0702 -0.2819 -0.4152
16030W        W58942   0.302  28.806  23.313  0.2827  0.2819  0.1700
16031W        W58943   0.498  25.778  22.294 -0.1095  0.0807 -0.0265
16032W        W58944   3.546  28.724  25.489 -0.2362 -0.2578  0.1306
16033W        W58945   1.663  29.740  19.533 -0.2525 -0.0200  0.0493
16034W        W58946  33.950  27.494  22.724  0.0439  0.1171 -0.0596
16035W        W58947   0.627  28.683  19.749 -0.2348 -0.4377 -0.4968
16036W        W58948   1.129  26.814  22.705 -0.1342 -0.0447 -0.2410
16037W        W58949   1.341  30.148  22.654 -0.2911  0.2374 -0.0225
16038W        W58950   2.067  27.447  21.204 -0.1121 -0.0825  0.1221
16039W        W58951   1.064  27.429  22.889 -0.2826 -0.1274  0.1030
16040W        W58952   2.719  26.159  20.345  0.2979 -0.2376  0.1179
16041W        W58953  34.684  27.744  20.867 -0.1871 -0.3114  0.3590
16042W        W58954   2.359  30.319  22.706  0.0265 -0.2321  0.1628
16043W        W58955   3.254  26.293  22.060  0.3252  0.1208  0.0884
16044W        W58956   2.022  29.058  19.051 -0.2951  0.2175 -0.0033
16045W        W58957   0.106  25.956  22.019 -0.0722  0.0680  0.0375
16046W        W58958   0.446  27.036  20.269  0.1587  0.1245  0.0359
16047W        W58959   0.337  27.730  23.526  0.0685  0.0887  0.1219
16048W        W58960  34.523  26.742  21.682  0.0135 -0.0986 -0.1666
16049W        W58961   2.471  26.812  21.908  0.0483  0.0036 -0.1233
16050W        W58962   0.878  25.416  20.638  0.1317  0.1553 -0.0505
16051W        W58963   0.874  25.488  22.081  0.2167  0.1162 -0.1675
16052W        W58964   1.194  26.877  20.464  0.1304 -0.1223  0.1273
16053W        W58965   0.542  28.310  21.968  0.0284  0.1909 -0.2762
16054W        W58966   2.936  26.505  22.843  0.2159  0.2489 -0.3426
16055W        W58967   1.708  29.323  21.850 -0.3235 -0.3520 -0.0236
16056W        W58968   3.016  29.014  23.181 -0.0028 -0.2324 -0.0677
16057W        W58969   2.153  28.650  21.835  0.0116  0.2023  0.2737
16058W        W58970   0.594  26.278  22.201  0.0678  0.3118  0.0544
16059W        W58971   0.969  25.795  19.353 -0.1608  0.1624 -0.0633
16060W        W58972   0.471  29.357  21.476  0.0085  0.0007  0.3311
16061W        W58973   1.229  29.171  20.885 -0.0627 -0.2797 -0.1234
16062W        W58974   0.992  25.970  18.718 -0.0455  0.2230 -0.1871
16063W        W58975   3.262  28.443  21.945 -0.1058  0.0401  0.3353
16064W        W58976   1.871  29.122  20.907 -0.3394  0.2988  0.3199
16065W        W58977   0.033  28.622  23.846 -0.1136  0.0441 -0.0194
16066W        W58978   0.752  24.989  22.072  0.2390  0.0194  0.2521
16067W        W58979   4.621  27.117  22.984  0.2665 -0.0924 -0.1700
16068W        W58980   2.442  27.747  21.701  0.3953 -0.0622 -0.3771
16069W        W58981  34.257  26.716  18.355  0.1722 -0.0296  0.1291
16070W        W58982   2.612  27.762  22.205  0.2056  0.1095 -0.2599
16071W        W58983   0.046  27.851  18.829 -0.0488  0.1082  0.1909
16072W        W58984  33.955  26.950  20.974  0.0251  0.1107  0.2704
16073W        W58985   2.265  29.203  21.221  0.1024 -0.2695 -0.0481
16074W        W58986   1.500  26.798  22.227  0.0439  0.2347 -0.0005
16075W        W58987  33.988  27.040  23.418  0.0413 -0.0334  0.3041
16076W        W58988   0.131  27.736  22.880 -0.2569 -0.4062  0.0271
16077W        W58989  33.340  26.676  20.508  0.0518 -0.2525  0.2179
16078W        W58990   1.117  29.493  24.062 -0.0463  0.1940  0.2310
16079W        W58991   1.500  25.808  21.275  0.1372  0.1113  0.4124
16080W        W58992   2.172  26.752  20.237  0.2756  0.0295 -0.1159
16081W        W58993   1.223  29.960  23.771 -0.1636  0.1784 -0.1544
16082W        W58994   3.750  27.988  21.183  0.3718  0.0718 -0.0256
16083W        W58995   3.546  26.740  20.372 -0.1518  0.3329  0.0256
16084W        W58996   1.592  24.822  20.322 -0.1488 -0.1341 -0.1941
16085W        W58997   0.504  29.245  24.263  0.3184 -0.0276 -0.1977
16086W        W58998   2.014  28.388  20.438  0.1915 -0.3702 -0.2447
16087W        W58999   1.609  29.811  21.670  0.1380 -0.2060  0.1709
16088W        W59000   2.289  26.293  20.037 -0.2301  0.1741 -0.1398
16089W        W59001   3.988  28.548  20.775 -0.1961 -0.0856  0.0933
16090W        W59002   1.218  29.491  21.937 -0.4645  0.1960  0.2009
16091W        W59003   1.616  27.576  24.129 -0.0710 -0.0150  0.0400
16092W        W59004   2.866  28.164  21.635  0.1052  0.4905 -0.0277
16093W        W59005   1.448  24.739  23.210  0.0793  0.0757  0.0255
16094W        W59006   1.605  28.248  20.055  0.2380  0.1634  0.0313
16095W        W59007   0.711  25.533  21.134  0.3375 -0.1002 -0.0461
16096W        W59008   0.285  29.922  19.191  0.1769 -0.0649  0.0673
16097W        W59009   2.384  29.268  20.701 -0.1849  0.1320  0.1028
16098W        W59010   0.941  25.304  22.632 -0.0823  0.1675  0.2002
16099W        W59011   1.356  27.561  23.681 -0.0852 -0.1144 -0.0547
16100W        W59012   1.908  27.209  22.314 -0.1081  0.0066 -0.3675
16101W        W59013   2.883  27.027  21.717 -0.1036  0.3608  0.4131
16102W        W59014   1.140  27.910  21.892  0.4351  0.2496 -0.4504
16103W        W59015   0.722  28.169  20.065 -0.1269 -0.0858  0.0616
16104W        W59016   1.943  27.490  21.772  0.2125 -0.0874 -0.1305
16105W        W59017  34.011  28.246  23.812 -0.3867 -0.0865  0.0073
16106W        W59018   0.842  28.788  23.691  0.4189  0.2145 -0.2756
16107W        W59019   3.451  27.855  22.589  0.1065 -0.1430 -0.2614
16108W        W59020   3.139  26.910  20.556 -0.0478  0.0091 -0.1501
16109W        W59021   1.656  25.686  23.257  0.1644 -0.0297 -0.0147
16110W        W59022   2.401  26.147  21.468  0.1447  0.2805  0.2434
16111W        W59023   1.393  29.867  20.755 -0.0002 -0.3268 -0.1140
16112W        W59024   0.857  27.329  20.117  0.0968  0.0986 -0.0177
16113W        W59025   0.832  26.450  21.098 -0.2012  0.1761 -0.2347
16114W        W59026   1.474  27.729  20.754 -0.2426  0.0819 -0.1253
16115W        W59027   2.423  28.682  20.221  0.1838 -0.0773  0.0782
16116W        W59028   1.864  28.123  22.534  0.0178 -0.0516 -0.3904
16117W        W59029   0.477  28.048  20.438 -0.1526  0.1418 -0.1991
16118W        W59030   1.956  26.309  21.795 -0.0189 -0.0390  0.1041
16119W        W59031   1.838  28.518  21.244  0.0821 -0.2552  0.0239
16120W        W59032   2.280  27.634  20.777  0.3412 -0.0727 -0.4358
16121W        W59033  33.468  27.119  21.742  0.1549  0.3143  0.0459
16122W        W59034   1.932  27.928  21.098  0.1324 -0.3725  0.0749
16123W        W59035   3.169  27.516  19.978  0.0083 -0.0802 -0.0069
16124W        W59036  34.632  27.499  21.323  0.2078 -0.1015 -0.0150
16125W        W59037   1.097  26.018  21.071 -0.0755  0.3234  0.2327
16126W        W59038   0.420  30.098  23.000 -0.1174 -0.3358 -0.0165
16127W        W59039   0.975  28.282  22.818 -0.1595  0.1569  0.1458
16128W        W59040   3.596  26.292  20.096  0.3047 -0.0718 -0.0820
16129W        W59041   1.872  29.379  24.601  0.0787  0.0739 -0.0613
16130W        W59042   1.836  28.245  23.337 -0.0758 -0.3696  0.0643
16131W        W59043  34.059  26.364  19.396 -0.2307 -0.1320  0.0000
16132W        W59044   3.673  25.291  23.022 -0.1817  0.1587 -0.1637
16133W        W59045   0.534  26.882  21.060  0.0160 -0.3224  0.1451
16134W        W59046   0.803  28.674  21.576  0.1493 -0.0586 -0.0033
16135W        W59047   2.069  27.781  22.180  0.2688  0.1762  0.1244
16136W        W59048   0.100  27.865  19.776  0.3330 -0.0506  0.3641
16137W        W59049   1.688  28.584  22.256  0.0623 -0.2193 -0.1819
16138W        W59050  34.099  28.362  23.079  0.0405 -0.0030  0.1723
16139W        W59051   2.337  27.341  22.069  0.1180  0.0461 -0.0565
16140W        W59052   0.628  26.741  21.843 -0.0631  0.0572  0.0164
16141W        W59053   0.224  26.689  20.024  0.1556 -0.0230  0.0623
16142W        W59054   0.747  27.801  20.846  0.1579 -0.2804 -0.0464
16143W        W59055   3.057  28.873  23.933 -0.6339  0.1942 -0.2225
16144W        W59056  34.614  26.428  22.786  0.0878 -0.0698 -0.1096
16145W        W59057   1.370  28.118  23.616 -0.1064 -0.0079  0.0315
16146W        W59058   2.892  24.944  21.632 -0.0330  0.2766 -0.1768
16147W        W59059   3.687  29.745  20.999  0.0855  0.3106 -0.1896
16148W        W59060   4.252  26.543  22.319 -0.3129 -0.2039 -0.0985
16149W        W59061   0.514  26.869  19.676  0.1020 -0.1766  0.3280
16150W        W59062  33.680  28.252  23.385 -0.0043 -0.1886  0.2880
16151W        W59063   2.444  29.731  20.969  0.0276  0.3657  0.1188
16152W        W59064   0.347  26.111  22.644  0.0356 -0.3571  0.1606
16153W        W59065   1.151  28.404  21.899 -0.0630 -0.3367 -0.1425
16154W        W59066   1.222  29.610  20.069 -0.4861  0.2363 -0.0226
16155W        W59067  33.905  27.766  24.412 -0.1221 -0.0970  0.2258
16156W        W59068   3.512  24.818  21.097  0.2897 -0.1449  0.4092
16157W        W59069   1.324  28.049  19.626  0.1297 -0.0083 -0.2546
16158W        W59070   0.945  26.258  21.555 -0.1393 -0.2681 -0.0542
16159W        W59071   1.478  26.143  21.650  0.0452 -0.0364  0.2607
16160W        W59072   2.174  28.697  20.886 -0.0343  0.2677 -0.1645
16161W        W59073   0.866  24.850  23.014 -0.3857 -0.2035  0.2128
16162W        W59074   0.420  26.652  22.659  0.1143  0.4379 -0.0048
16163W        W59075   2.741  28.029  20.840  0.0133  0.2285  0.2382
16164W        W59076   0.754  27.133  22.514 -0.1425  0.1201  0.0204
16165W        W59077   2.239  30.215  24.241  0.1174 -0.0540  0.0307
16166W        W59078   1.802  28.535  23.759  0.1592 -0.1642  0.2619
16167W        W59079   2.939  27.093  21.174  0.0272  0.0368 -0.5181
16168W        W59080   0.387  26.405  20.910 -0.0656  0.2954 -0.3864
16169W        W59081   0.276  27.664  22.279  0.0340  0.2347  0.2268
16170W        W59082   2.979  27.650  20.971 -0.1192  0.3593  0.2313
16171W        W59083   0.890  27.346  21.158  0.0011 -0.1251  0.0500
16172W        W59084   2.386  27.160  21.596 -0.0323 -0.1826  0.2240
16173W        W59085   0.651  27.683  22.589 -0.1060  0.2471  0.0734
16174W        W59086   2.133  27.568  19.955 -0.3964  0.0495  0.1651
16175W        W59087   3.487  27.478  19.179 -0.1245  0.0661  0.0073
16176W        W59088   0.683  29.191  20.305  0.4676  0.1901 -0.2199
16177W        W59089  34.106  25.879  21.636 -0.1445 -0.4500 -0.4670
16178W        W59090   3.293  27.322  21.982 -0.2475 -0.0100 -0.1108
16179W        W59091   1.315  26.550  21.267  0.0795 -0.2056  0.0529
16180W        W59092   0.761  25.783  22.758 -0.2351  0.1664  0.0846
16181W        W59093   2.846  26.632  22.252  0.0034 -0.0931  0.2794
16182W        W59094   1.078  28.471  23.246 -0.4320  0.0126  0.2304
16183W        W59095  34.687  26.840  23.031  0.2486  0.1463 -0.0965
16184W        W59096   3.165  29.014  21.233 -0.2341  0.2302 -0.0700
16185W        W59097   3.485  25.721  19.818 -0.1345 -0.0368 -0.2157
16186W        W59098   3.838  26.208  21.586  0.1859  0.3234  0.2622
16187W        W59099   2.227  27.936  19.551  0.0057  0.0053 -0.0526
16188W        W59100   3.706  27.951  19.253 -0.2402  0.0728  0.1309
16189W        W59101   0.834  28.189  21.575  0.1081 -0.0573  0.2341
16190W        W59102   3.077  27.007  22.542  0.0430  0.1167 -0.1789
16191W        W59103   0.239  27.637  20.346  0.0444  0.1181 -0.0587
16192W        W59104   1.796  27.059  21.321  0.0989  0.1622 -0.1918
16193W        W59105   1.614  29.384  20.520 -0.0073 -0.0805  0.3246
16194W        W59106   4.932  28.384  21.105  0.0876  0.0784 -0.4228
16195W        W59107   1.902  25.796  20.804 -0.6033  0.3121  0.1006
16196W        W59108   0.342  26.893  22.186  0.0812 -0.0242  0.1583
16197W        W59109   1.200  29.546  23.524 -0.3057 -0.2747 -0.2192
16198W        W59110   0.410  27.447  21.118 -0.2156  0.1025 -0.2958
16199W        W59111   1.160  29.045  19.269 -0.0657 -0.0976 -0.0075
16200W        W59112   1.516  27.193  21.838 -0.1069  0.1577  0.1156
16201W        W59113   1.720  27.821  23.526 -0.2924  0.1149  0.2154
16202W        W59114   1.798  25.187  20.666  0.2352  0.1426  0.0251
16203W        W59115   3.761  26.807  22.260  0.1329 -0.2310 -0.1625
16204W        W59116   0.902  28.991  21.217  0.1750  0.1033 -0.3479
16205W        W59117   0.360  25.406  22.888 -0.2376 -0.1830 -0.1286
16206W        W59118   0.663  30.300  22.463 -0.0590 -0.1547 -0.1736
16207W        W59119   0.827  28.719  22.070 -0.0822 -0.0085  0.1902
16208W        W59120   1.417  28.093  22.239 -0.2269  0.0602 -0.0403
16209W        W59121   0.306  25.475  21.969  0.0559  0.1374  0.0237
16210W        W59122   1.442  27.579  21.219 -0.0669 -0.0903  0.0434
16211W        W59123   1.040  27.705  19.838 -0.0513  0.0800  0.0408
16212W        W59124   2.885  27.900  22.615  0.1686  0.1151  0.0841
16213W        W59125   1.841  28.334  24.559 -0.1631 -0.1501 -0.2029
16214W        W59126   0.572  27.565  23.090 -0.0165  0.1064  0.0925
16215W        W59127   2.709  28.340  22.712 -0.3400  0.1639 -0.2381
16216W        W59128   2.439  27.185  21.097 -0.1197  0.4269 -0.2413
16217W        W59129   1.643  28.500  21.743 -0.1107 -0.2464  0.0498
16218W        W59130  34.556  27.040  23.513 -0.1782  0.1435  0.2004
16219W        W59131   0.774  29.329  23.702  0.2345  0.1126 -0.1878
16220W        W59132   2.554  26.825  20.600 -0.0475 -0.0489  0.0476
16221W        W59133   0.829  26.755  20.041  0.3275 -0.0360 -0.0082
16222W        W59134   1.636  27.517  19.096  0.0556  0.0966  0.1976
16223W        W59135  34.540  28.519  23.420 -0.0561 -0.0796 -0.1052
16224W        W59136  33.820  26.615  23.146 -0.0781 -0.0176  0.0338
16225W        W59137   1.753  29.962  20.436 -0.4234  0.0148  0.1753
16226W        W59138   2.255  29.965  20.490  0.0579  0.0219 -0.0467
16227W        W59139   1.886  27.148  19.982  0.2437  0.1034  0.1602
16228W        W59140   1.466  29.097  22.449  0.1168  0.3477 -0.1806
16229W        W59141   1.338  25.782  19.751  0.0653  0.1814 -0.0022
16230W        W59142   0.361  28.853  21.257 -0.1392 -0.3639  0.3523
16231W        W59143   0.985  29.020  19.761  0.0497 -0.3568 -0.1094
16232W        W59144   2.114  28.241  19.937 -0.0795 -0.0449 -0.2099
16233W        W59145   0.366  28.728  20.186 -0.1707 -0.2236  0.3442
16234W        W59146   2.845  28.595  22.243 -0.2250 -0.2230 -0.0345
16235W        W59147   3.033  25.553  20.529 -0.0115 -0.0069  0.0942
16236W        W59148   2.699  26.098  21.004 -0.1836 -0.0815 -0.0721
16237W        W59149   4.884  25.955  20.730 -0.1934  0.2620 -0.1028
16238W        W59150   3.386  28.877  23.471 -0.0092  0.2484  0.1804
16239W        W59151  34.622  28.159  22.383 -0.1233 -0.1862 -0.0460
16240W        W59152   1.657  26.946  19.288  0.0751  0.1213 -0.0497
16241W        W59153   0.822  28.924  23.173 -0.3277 -0.5271  0.2507
16242W        W59154   3.399  25.503  22.630 -0.0121  0.2212 -0.2251
16243W        W59155   1.390  28.208  24.349 -0.2647  0.1054 -0.3751
16244W        W59156   3.134  30.122  20.732 -0.1340  0.3551 -0.1163
16245W        W59157   0.284  28.409  21.455 -0.0708  0.0724 -0.2156
16246W        W59158   3.093  28.067  21.216 -0.0066  0.2595  0.1156
16247W        W59159   3.841  25.742  22.481  0.0215 -0.1264  0.3392
16248W        W59160  34.535  26.710  18.848  0.0291  0.3609 -0.0540
16249W        W59161   1.006  25.193  21.304  0.0712 -0.0734 -0.1887
16250W        W59162   2.609  29.222  20.266  0.1310 -0.0148 -0.0121
16251W        W59163  34.697  28.431  21.880 -0.1681 -0.2453  0.0227
16252W        W59164   0.593  30.286  23.375 -0.0049  0.3480 -0.2051
16253W        W59165  34.628  26.201  20.145  0.0178  0.5186  0.1310
16254W        W59166   3.453  26.241  20.605  0.2757 -0.1319  0.2277
16255W        W59167   1.842  27.263  23.281  0.0229  0.0256  0.3437
16256W        W59168   2.475  26.202  21.993  0.1207  0.1093 -0.1763
16257W        W59169   1.081  27.476  20.731 -0.0673 -0.0335  0.2259
16258W        W59170   1.080  27.445  22.277  0.5622  0.1940  0.3713
16259W        W59171   1.556  29.281  23.367 -0.2882  0.1135  0.0052
16260W        W59172   0.844  28.226  23.609  0.0168 -0.1675  0.0546
16261W        W59173   2.806  27.257  20.722  0.2933 -0.4417  0.0399
16262W        W59174   2.316  26.235  23.523 -0.0913 -0.1549 -0.1823
16263W        W59175   2.111  27.358  19.485  0.1616 -0.0053  0.2800
16264W        W59176   1.554  31.748  22.748 -0.3069 -0.0971  0.2203
16265W        W59177  34.643  25.957  21.515  0.0012  0.0869 -0.0598
16266W        W59178   1.716  26.962  20.416 -0.2844 -0.0186  0.4162
16267W        W59179   3.092  28.002  22.162  0.1697  0.0249  0.0004
16268W        W59180   2.144  28.432  22.936 -0.0482  0.2359 -0.3999
16269W        W59181   3.427  29.470  23.172  0.0278  0.0942 -0.0588
16270W        W59182   0.247  26.674  21.425 -0.4333  0.1211 -0.0603
16271W        W59183   3.712  28.546  21.194 -0.0959 -0.2854  0.2649
16272W        W59184   3.475  28.014  21.608 -0.1367 -0.0815 -0.0902
16273W        W59185   1.581  28.801  20.679 -0.1403 -0.1061 -0.1831
16274W        W59186   3.222  27.953  20.564 -0.0631  0.0356 -0.0781
16275W        W59187   1.296  28.932  22.864  0.0656  0.1157  0.0628
16276W        W59188  34.428  27.476  20.473 -0.0055 -0.3009 -0.3098
16277W        W59189   0.509  29.281  23.243 -0.1414  0.1643 -0.0394
16278W        W59190   3.725  26.727  21.683  0.2223 -0.0089 -0.0385
16279W        W59191   3.018  25.624  21.128  0.1716 -0.1840  0.3329
16280W        W59192  34.258  27.167  21.462 -0.1405  0.0977  0.1706
16281W        W59193   1.317  28.919  21.922 -0.0906 -0.0560 -0.0434
16282W        W59194   3.266  25.889  21.551 -0.1173 -0.2074  0.2608
16283W        W59195   1.299  27.087  21.352  0.0177 -0.0072  0.1947
16284W        W59196   0.958  28.548  19.324 -0.0397  0.2378 -0.1882
16285W        W59197   1.563  27.635  22.099 -0.0966  0.1018  0.2743
16286W        W59198   1.261  29.551  22.481  0.0076 -0.0445 -0.3025
16287W        W59199   1.464  29.141  23.850 -0.0196  0.3740  0.1615
16288W        W59200  34.572  28.597  19.818 -0.0131 -0.0165 -0.0942
16289W        W59201   1.909  29.285  24.125 -0.0451  0.0718  0.0195
16290W        W59202  34.584  28.028  21.483 -0.1160  0.1933 -0.1455
16291W        W59203   1.499  28.408  22.721 -0.0203 -0.1035  0.2153
16292W        W59204   3.293  28.545  21.484  0.0906 -0.0946 -0.0950
16293W        W59205   2.106  26.565  20.857 -0.1499  0.1186 -0.0328
16294W        W59206   2.859  26.364  21.704 -0.0304  0.2939 -0.2069
16295W        W59207   0.884  26.816  21.409 -0.1308  0.0524  0.0091
16296W        W59208   3.960  24.367  21.133  0.1150  0.1074  0.1170
16297W        W59209   1.742  26.457  20.447 -0.0229  0.1474 -0.1552
16298W        W59210   0.120  29.051  22.874  0.2539  0.0507  0.0242
16299W        W59211  33.903  28.453  20.652  0.1392  0.0959 -0.2790
16300W        W59212   0.759  27.710  19.404  0.0884  0.1272 -0.1447
16301W        W59213   1.321  28.797  23.573 -0.0466 -0.0730  0.3033
16302W        W59214   0.673  26.456  23.867  0.1213  0.0202 -0.2077
16303W        W59215  34.315  28.526  24.694 -0.2063  0.0951  0.2573
16304W        W59216   0.118  27.894  24.126 -0.0736 -0.1260  0.0881
16305W        W59217   2.115  26.787  19.065 -0.4355  0.0199  0.1397
16306W        W59218   3.108  28.483  20.963 -0.0495  0.2529 -0.0039
16307W        W59219   0.571  25.988  21.310  0.0497 -0.1843 -0.0587
16308W        W59220   0.000  25.006  22.600 -0.0804  0.2128  0.2187
16309W        W59221   2.616  29.964  22.068  0.1576 -0.1116  0.2605
16310W        W59222   2.862  29.680  20.605 -0.0392  0.0585  0.0087
16311W        W59223   1.781  26.005  19.006 -0.1561 -0.2173  0.0119
16312W        W59224   2.265  27.536  22.535  0.1587  0.3175  0.1243
16313W        W59225   1.435  27.881  18.746 -0.2069  0.2612 -0.1585
16314W        W59226   1.768  27.646  22.590  0.1159 -0.1152 -0.2738
16315W        W59227   0.991  27.299  23.339 -0.0743 -0.1646 -0.2355
16316W        W59228   0.589  25.452  19.294  0.2427 -0.0220  0.0911
16317W        W59229   0.578  27.334  22.078  0.3880  0.2770  0.0747
16318W        W59230   2.620  29.024  22.160  0.0308 -0.1067  0.4005
16319W        W59231   2.706  28.605  23.131 -0.4441  0.0259 -0.0873
16320W        W59232   1.934  29.018  23.615  0.2143 -0.0891  0.0696
16321W        W59233   2.599  29.264  23.321 -0.2738 -0.0151  0.1991
16322W        W59234  34.020  27.219  21.902  0.0669  0.0841  0.2200
16323W        W59235   2.583  27.592  19.281  0.0798  0.1814  0.1681
16324W        W59236   2.599  30.177  23.114 -0.2725  0.2760  0.2126
16325W        W59237   4.274  28.289  19.801 -0.0930  0.0631  0.0113
16326W        W59238   3.846  26.322  22.076 -0.0107  0.1866 -0.2105
16327W        W59239   1.511  28.268  20.541  0.3559 -0.1078 -0.0404
16328W        W59240   0.232  26.225  24.012  0.0397  0.4341 -0.3443
16329W        W59241  34.659  29.296  21.874 -0.3349  0.2985  0.0493
16330W        W59242   2.004  27.887  23.007  0.2627 -0.1627 -0.0443
16331W        W59243   0.617  27.173  21.563 -0.0734 -0.0074 -0.0468
16332W        W59244   2.162  27.273  18.908  0.1196 -0.2173 -0.1402
16333W        W59245   2.693  28.333  20.487 -0.0465 -0.2359 -0.0708
16334W        W59246   1.012  27.059  21.908  0.0063  0.0564  0.1026
16335W        W59247   2.088  26.747  19.711  0.2023  0.0984  0.4595
16336W        W59248   3.368  28.677  22.962  0.1785  0.0287  0.2024
16337W        W59249   2.170  28.942  23.182 -0.0785  0.2680 -0.1153
16338W        W59250   1.945  28.211  21.990 -0.2813  0.0479 -0.1547
16339W        W59251   2.189  28.227  21.513  0.3531  0.2347 -0.0411
16340W        W59252   4.703  28.509  18.301 -0.1606 -0.0023 -0.1648
16341W        W59253   1.082  27.800  23.282  0.0124  0.1428  0.0275
16342W        W59254   2.365  27.993  22.554 -0.0082  0.1250 -0.3110
16343W        W59255   1.031  30.566  21.754 -0.1782 -0.0831  0.0208
16344W        W59256   2.863  26.450  20.705  0.0705  0.0185  0.0480
16345W        W59257   0.254  24.851  20.809  0.0499  0.1735  0.0145
16346W        W59258  34.484  29.186  20.639 -0.5898 -0.1975  0.2241
16347W        W59259   1.113  27.980  20.365  0.1342  0.1088 -0.1980
16348W        W59260   0.634  25.853  21.850  0.1402  0.0762  0.1830
16349W        W59261   0.684  26.657  20.600 -0.2719  0.0560 -0.2361
16350W        W59262   1.807  26.372  21.322 -0.2086 -0.2615 -0.1684
16351W        W59263   1.396  28.273  24.866 -0.2216 -0.0488  0.2936
16352W        W59264   2.492  28.206  22.009 -0.0337  0.1004 -0.0018
16353W        W59265   0.821  28.964  27.623  0.0609  0.2050  0.1523
16354W        W59266   0.723  27.047  23.022  0.0922 -0.0836 -0.0240
16355W        W59267   1.491  27.610  23.082 -0.0647  0.0864 -0.1019
16356W        W59268   3.932  27.240  24.486  0.0233 -0.1436 -0.0821
16357W        W59269  33.701  26.810  25.808  0.3686 -0.0197 -0.1321
16358W        W59270   3.969  29.216  25.396 -0.0234 -0.0488 -0.0274
16359W        W59271   1.824  26.366  27.128 -0.2896  0.2678  0.0954
16360W        W59272   2.887  28.456  25.950  0.0942  0.1209 -0.2533
16361W        W59273   2.541  27.732  25.308  0.0847  0.4770 -0.1140
16362W        W59274   1.970  26.915  24.624  0.1350  0.2116 -0.3894
16363W        W59275   2.050  25.791  26.472 -0.2758  0.1707  0.0625
16364W        W59276   0.950  28.222  26.405 -0.1293 -0.3353  0.0805
16365W        W59277   0.151  26.682  23.784 -0.2246 -0.0566 -0.0642
16366W        W59278   0.471  26.380  27.377 -0.0734 -0.2717  0.1596
16367W        W59279   2.965  27.051  25.608  0.3660 -0.1591  0.1088
16368W        W59280   0.933  28.111  24.566  0.0041 -0.2736  0.0699
16369W        W59281  34.525  27.542  27.304  0.2026  0.0253  0.1150
16370W        W59282   0.938  26.837  24.175  0.0310  0.2492 -0.0061
16371W        W59283   1.630  27.834  24.775  0.0823  0.0559 -0.0551
16372W        W59284   2.119  26.443  29.168  0.2576 -0.1554 -0.0792
16373W        W59285   2.908  25.549  27.279  0.1049  0.1046  0.1481
16374W        W59286   0.898  29.216  24.573  0.1170  0.0981 -0.2334
16375W        W59287  34.468  27.556  24.322 -0.0727 -0.0762 -0.1124
16376W        W59288  33.233  26.577  24.807  0.2132 -0.0099 -0.1807
16377W        W59289   0.961  27.240  26.336 -0.0485  0.0954 -0.0621
16378W        W59290   3.405  27.212  25.300  0.0015 -0.0260  0.2290
16379W        W59291   3.586  26.944  25.802 -0.1124 -0.0186 -0.0638
16380W        W59292   2.537  29.376  25.451 -0.1020 -0.1637  0.1778
16381W        W59293   0.847  28.883  25.843  0.3914 -0.3996 -0.1611
16382W        W59294   2.560  26.985  27.497 -0.2846 -0.0684 -0.2725
16383W        W59295  34.142  29.501  24.742 -0.0566 -0.1188  0.1215
16384W        W59296  34.591  29.772  25.963  0.1311  0.2787  0.0326
16385W        W59297   0.259  29.875  24.772 -0.1882 -0.0277  0.0193
16386W        W59298   2.792  28.033  25.674 -0.0407 -0.0678 -0.0106
16387W        W59299   2.981  28.870  27.704 -0.1786  0.0978 -0.1463
16388W        W59300   0.072  29.262  28.978 -0.1200  0.3545 -0.3902
16389W        W59301   0.446  29.738  23.989  0.0186  0.2782  0.1209
16390W        W59302   1.614  29.167  26.435 -0.0059 -0.2488  0.3381
16391W        W59303   0.589  29.214  28.426 -0.1513  0.1039  0.1293
16392W        W59304   1.189  27.884  25.721 -0.2156 -0.0561  0.0563
16393W        W59305   2.450  27.085  25.078  0.1554 -0.1541 -0.1408
16394W        W59306   0.962  28.758  26.283  0.2424  0.4336 -0.0541
16395W        W59307   1.052  28.562  25.035 -0.1214  0.1263  0.0116
16396W        W59308   1.541  28.490  27.812 -0.0361  0.1583 -0.1695
16397W        W59309  33.058  29.152  25.684 -0.0148  0.1454  0.3790
16398W        W59310   5.178  26.171  27.260 -0.2077 -0.3217  0.2255
16399W        W59311   0.465  29.141  24.840  0.1090  0.0235  0.0308
16400W        W59312   1.971  26.167  22.448 -0.3246  0.1120  0.1789
16401W        W59313   0.613  28.002  23.995  0.0074  0.1279  0.1704
16402W        W59314   2.479  26.248  23.064 -0.0980 -0.0813  0.1378
16403W        W59315   1.815  25.382  26.071 -0.3412 -0.1213 -0.0936
16404W        W59316   1.188  29.280  25.907  0.2133  0.0351  0.0332
16405W        W59317   3.455  26.289  26.782 -0.0940 -0.1679 -0.1178
16406W        W59318   3.124  27.502  26.320  0.2677 -0.1793 -0.1185
16407W        W59319   2.029  27.685  25.115  0.2176  0.0711 -0.1712
16408W        W59320   3.318  26.594  25.431 -0.1909 -0.0067  0.1225
16409W        W59321  34.546  29.839  25.370 -0.0590 -0.0296  0.0752
16410W        W59322   0.454  28.016  25.654  0.0426  0.3559 -0.2632
16411W        W59323   2.993  28.420  24.104 -0.0659 -0.0095  0.0145
16412W        W59324   3.161  29.136  24.805  0.1778 -0.1369  0.0092
16413W        W59325   2.502  29.713  23.438  0.1400  0.0941  0.2120
16414W        W59326   0.971  26.112  25.355 -0.1489 -0.1072 -0.0612
16415W        W59327   0.797  29.347  25.557  0.2204 -0.1118 -0.0189
16416W        W59328  33.182  27.424  27.904 -0.3722  0.0127 -0.0539
16417W        W59329   0.003  26.318  23.541 -0.0723 -0.2012 -0.0621
16418W        W59330   2.798  28.427  26.985  0.2101 -0.1953 -0.0309
16419W        W59331  34.698  30.914  26.391 -0.2827  0.1905  0.0106
16420W        W59332   3.053  25.137  22.861 -0.0310  0.0308 -0.2068
16421W        W59333   0.137  28.966  25.356  0.2063 -0.0695  0.1914
16422W        W59334   3.311  28.310  26.166 -0.2640  0.2749  0.1150
16423W        W59335   1.965  27.844  24.418 -0.1204 -0.1898  0.1833
16424W        W59336   2.341  25.560  25.332  0.0507 -0.3642 -0.3439
16425W        W59337   3.777  24.851  26.169 -0.1528 -0.1669 -0.3004
16426W        W59338   0.637  28.139  23.143  0.0962  0.1268  0.0426
16427W        W59339   1.120  27.394  24.080  0.2442 -0.0928 -0.0553
16428W        W59340   4.810  29.395  27.609 -0.2162 -0.0259  0.2329
16429W        W59341   2.734  26.330  23.721 -0.0011  0.0359 -0.1537
16430W        W59342   1.226  28.781  25.525  0.0339 -0.1281  0.0637
16431W        W59343   2.878  26.504  26.152  0.1068 -0.1541 -0.1629
16432W        W59344   2.442  28.095  26.812  0.0436 -0.0969  0.1589
16433W        W59345   0.269  29.246  23.669 -0.0277 -0.0582 -0.4981
16434W        W59346  33.924  28.720  26.973  0.0464 -0.1179 -0.0387
16435W        W59347   0.457  27.939  24.527  0.0492  0.4029 -0.0761
16436W        W59348   0.050  26.344  26.860  0.0764 -0.0494  0.0289
16437W        W59349   0.881  28.174  27.189  0.0739  0.1916  0.4880
16438W        W59350   2.261  25.683  21.836  0.0487 -0.2221  0.1388
16439W        W59351   1.278  25.272  25.977  0.2531  0.0719 -0.1572
16440W        W59352   2.031  26.017  23.180  0.2135 -0.0363 -0.2513
16441W        W59353  33.768  27.160  26.281  0.2201  0.0513  0.3973
16442W        W59354   4.227  30.248  23.077  0.1475 -0.0612  0.0293
16443W        W59355   2.206  27.635  23.438 -0.1377 -0.0899  0.1115
16444W        W59356   2.262  28.128  25.322  0.2557 -0.2807 -0.1533
16445W        W59357   0.193  28.210  25.236  0.0288 -0.1133 -0.0932
16446W        W59358   0.979  26.821  23.502 -0.1539 -0.2306 -0.0026
16447W        W59359   0.704  25.724  25.981 -0.1311 -0.1873  0.0236
16448W        W59360   0.660  24.685  25.570 -0.0131 -0.0677  0.1062
16449W        W59361   3.145  26.697  26.641  0.0746  0.0622  0.2327
16450W        W59362   0.127  25.720  24.964  0.0220  0.1252 -0.0126
16451W        W59363   3.277  27.846  25.424 -0.2407 -0.1187 -0.1034
16452W        W59364  34.538  28.366  24.226 -0.0705  0.2679 -0.2133
16453W        W59365  33.414  26.710  26.229  0.1216  0.3529 -0.3647
16454W        W59366   3.457  27.680  26.853  0.1467  0.1297  0.0398
16455W        W59367   2.604  28.703  24.071  0.0571 -0.0470 -0.0072
16456W        W59368   3.102  29.715  27.984 -0.0648 -0.1544 -0.1645
16457W        W59369   2.336  30.205  25.735 -0.1985  0.1607  0.1271
16458W        W59370   0.473  27.075  26.274 -0.1703  0.0342 -0.2844
16459W        W59371   0.006  26.488  24.940 -0.0888 -0.0441 -0.2429
16460W        W59372   0.139  30.214  25.665  0.1399 -0.1137  0.2510
16461W        W59373   2.088  28.502  24.989  0.0458  0.0509  0.0036
16462W        W59374   2.206  26.658  24.945 -0.4406  0.0930 -0.0254
16463W        W59375   3.491  29.133  26.241 -0.0967 -0.3647  0.2972
16464W        W59376   1.905  28.592  25.526  0.0173  0.1708  0.0014
16465W        W59377  34.273  27.699  26.845  0.1293 -0.2233 -0.3852
16466W        W59378   3.157  27.027  26.109 -0.1962 -0.0927  0.1620
16467W        W59379   3.875  26.649  24.832  0.1711  0.0846  0.1792
16468W        W59380   1.940  25.965  24.573 -0.1017 -0.0296  0.2252
16469W        W59381   0.301  27.300  22.632 -0.0056 -0.0409 -0.2660
16470W        W59382   4.246  27.673  26.891 -0.2147 -0.0418  0.3977
16471W        W59383  34.158  28.734  24.291 -0.0296 -0.3654  0.0688
16472W        W59384  34.442  26.920  26.167  0.1371 -0.0853 -0.0052
16473W        W59385   1.141  27.897  25.056  0.2732  0.0177 -0.3160
16474W        W59386   3.065  26.432  24.993  0.3830  0.1112  0.0370
16475W        W59387  34.453  27.309  28.252  0.0059 -0.0612  0.0394
16476W        W59388   2.359  26.681  26.301 -0.1574  0.0834  0.0440
16477W        W59389   0.346  26.706  25.288  0.2156  0.0622 -0.0737
16478W        W59390  34.518  29.965  26.861  0.0909  0.0935 -0.1761
16479W        W59391   1.418  25.960  24.821 -0.0665  0.3201 -0.0242
16480W        W59392   3.569  25.710  24.012 -0.0288 -0.2589 -0.0390
16481W        W59393   0.618  28.581  27.331  0.0426  0.0328  0.0384
16482W        W59394   3.312  28.768  24.409 -0.1953  0.0957 -0.0869
16483W        W59395   1.399  26.057  23.024 -0.0698  0.1221 -0.1222
16484W        W59396   1.920  27.125  23.793  0.0499 -0.2031 -0.0313
16485W        W59397   0.245  28.922  27.474 -0.1980  0.1012  0.1356
16486W        W59398   0.923  28.460  24.069 -0.0365 -0.2242  0.4051
16487W        W59399   1.392  28.830  26.129 -0.0072 -0.1494  0.0429
16488W        W59400   1.388  27.115  23.064  0.2095  0.2657 -0.0261
16489W        W59401   3.484  27.923  26.415 -0.0035 -0.2413 -0.1937
16490W        W59402  34.651  28.809  26.320  0.0225 -0.1017 -0.0592
16491W        W59403   2.282  28.505  27.145 -0.0596 -0.0802 -0.0682
16492W        W59404   3.019  27.474  24.479  0.2380  0.0767 -0.0358
16493W        W59405   3.249  25.497  25.718 -0.0361  0.2664  0.2865
16494W        W59406   1.033  26.325  23.514 -0.0365 -0.1014  0.1165
16495W        W59407   1.326  26.392  25.048 -0.2068 -0.5286 -0.2120
16496W        W59408  34.512  30.633  22.352  0.2337 -0.1322  0.0172
16497W        W59409   3.617  25.200  25.352 -0.0362 -0.0085  0.2733
16498W        W59410   2.736  25.713  25.029 -0.1230 -0.0048 -0.0800
16499W        W59411   2.818  25.951  26.937  0.0981 -0.0738  0.0800
16500W        W59412   2.380  25.590  27.265 -0.0721  0.2852  0.1328
16501W        W59413   2.034  27.360  24.770  0.0926 -0.0554  0.2324
16502W        W59414   2.089  27.367  25.505 -0.3993 -0.0434 -0.1527
16503W        W59415   0.498  28.805  23.996  0.2981 -0.0147  0.0605
16504W        W59416   3.258  25.969  27.211 -0.0806  0.2454 -0.0043
16505W        W59417  34.163  27.374  26.019  0.1793 -0.1886 -0.1589
16506W        W59418   0.394  30.075  26.736 -0.0668  0.3497  0.1603
16507W        W59419   1.797  26.984  27.379 -0.2914  0.1149 -0.0424
16508W        W59420   2.955  27.427  25.227 -0.0732  0.3769 -0.0023
16509W        W59421   2.290  26.798  25.414 -0.0155 -0.0811  0.0987
16510W        W59422   1.413  26.597  23.118 -0.0012 -0.1559 -0.0992
16511W        W59423   1.690  29.626  25.275  0.0332  0.1329 -0.1533
16512W        W59424   2.041  27.318  24.253 -0.0287 -0.3121 -0.1805
16513W        W59425   2.407  26.333  25.309  0.2221  0.0753 -0.2479
16514W        W59426   0.563  29.953  27.656 -0.1866 -0.3196  0.0753
16515W        W59427  34.594  28.140  23.772 -0.1221  0.0250  0.1765
16516W        W59428   1.715  27.044  25.630 -0.2800 -0.4478  0.2612
16517W        W59429   0.902  30.261  25.313  0.3748  0.2196  0.1031
16518W        W59430   3.732  25.429  25.910  0.3408  0.0748  0.0710
16519W        W59431  34.095  28.606  26.463 -0.0783 -0.0815  0.0361
16520W        W59432   2.446  26.745  22.862  0.1869 -0.0171 -0.3298
16521W        W59433   0.361  26.943  25.775 -0.0650 -0.2602  0.0242
16522W        W59434   2.571  25.893  23.874  0.0473  0.2051  0.0045
16523W        W59435   2.476  28.087  23.143 -0.0548  0.1800  0.1683
16524W        W59436   1.359  28.061  26.167  0.1432 -0.1094 -0.0326
16525W        W59437   3.374  26.021  25.298  0.0006  0.0801  0.0103
16526W        W59438  33.817  28.500  25.983 -0.1006 -0.0582  0.3557
16527W        W59439   2.773  26.981  26.499 -0.0360  0.3323  0.0268
16528W        W59440   2.118  26.763  23.268  0.3256 -0.2222 -0.1665
16529W        W59441   2.621  27.476  26.511  0.1042  0.1609  0.2100
16530W        W59442   0.437  28.027  26.572  0.0664  0.1280 -0.3638
16531W        W59443  34.194  26.295  24.490 -0.2204 -0.0667 -0.4785
16532W        W59444   3.438  28.159  27.099  0.1319  0.0754 -0.0276
16533W        W59445   2.864  26.122  25.374 -0.1369 -0.2806 -0.0020
16534W        W59446   0.797  28.393  25.528  0.4891 -0.0603 -0.0022
16535W        W59447   1.936  28.794  26.290 -0.1617  0.1836 -0.0776
16536W        W59448  34.475  27.495  24.823 -0.0944 -0.3520  0.2327
16537W        W59449   0.102  28.392  26.020  0.0775 -0.1096 -0.2864
16538W        W59450   0.991  26.797  27.740  0.1053  0.3462  0.0556
16539W        W59451   2.290  27.808  25.795  0.2120 -0.1046  0.1425
16540W        W59452   0.308  27.522  25.769 -0.2842 -0.0037 -0.1563
16541W        W59453   1.063  27.401  25.119 -0.0219  0.2303  0.2943
16542W        W59454   0.983  27.351  24.615 -0.0423  0.0723 -0.4015
16543W        W59455   2.552  27.241  25.525 -0.1574  0.1985 -0.0142
16544W        W59456   2.463  26.360  25.822  0.3000  0.0270 -0.4475
16545W        W59457   1.402  27.069  27.648 -0.3131 -0.0210 -0.1601
16546W        W59458   0.240  25.806  25.629  0.0511  0.1467  0.1373
16547W        W59459   3.100  29.747  24.345  0.0179  0.1482  0.0416
16548W        W59460   1.778  27.533  25.883  0.1100  0.0652 -0.1336
16549W        W59461   1.205  26.847  25.565  0.0441 -0.0671  0.2482
16550W        W59462  33.847  27.875  26.975 -0.0552 -0.0062 -0.3225
16551W        W59463   0.791  28.697  24.691 -0.0626  0.3938  0.0232
16552W        W59464   1.928  26.474  25.706 -0.0705 -0.0301 -0.0720
16553W        W59465   1.286  28.370  26.769  0.0327  0.1395  0.2070
16554W        W59466   2.307  27.936  24.776  0.1665  0.3257 -0.0559
16555W        W59467  34.373  28.583  26.837 -0.5311  0.0306 -0.0784
16556W        W59468   1.006  25.979  22.256 -0.2463 -0.1774  0.2656
16557W        W59469   1.923  27.033  25.116 -0.0177 -0.1394  0.1466
16558W        W59470   1.619  26.681  25.307 -0.0020  0.2570  0.0070
16559W        W59471   4.330  27.170  26.827  0.1335  0.0200  0.0643
16560W        W59472   2.282  27.212  22.929 -0.0081 -0.1574  0.0041
16561W        W59473   3.174  25.995  28.214  0.0492 -0.2425  0.1970
16562W        W59474   2.334  25.669  25.898  0.0960 -0.0135 -0.2149
16563W        W59475   3.308  28.282  25.134 -0.0194  0.1219  0.2246
16564W        W59476   1.053  25.909  26.748 -0.0391  0.0878  0.3132
16565W        W59477   1.786  29.816  26.117 -0.0307 -0.0827 -0.1526
16566W        W59478   0.232  27.876  26.065  0.3901 -0.2390 -0.3323
16567W        W59479   1.346  26.522  23.877  0.0547 -0.1279  0.0151
16568W        W59480   0.571  27.047  24.975 -0.1784  0.0245  0.1439
16569W        W59481   0.685  27.575  24.324 -0.4818 -0.2696  0.0796
16570W        W59482   2.639  27.748  26.095 -0.1813 -0.1789  0.0160
16571W        W59483   1.117  27.923  23.989 -0.1486  0.0155  0.0691
16572W        W59484   2.831  25.518  23.605 -0.1625 -0.0862  0.0220
16573W        W59485   0.001  29.400  25.650 -0.0436  0.2945  0.0144
16574W        W59486   2.746  28.194  25.102  0.2271 -0.1972  0.1368
16575W        W59487   3.054  28.080  24.620  0.1078  0.3547  0.2275
16576W        W59488   1.603  27.393  25.060  0.0282  0.0307  0.1294
16577W        W59489   1.301  26.949  26.988 -0.3369 -0.3491  0.1890
16578W        W59490   2.189  28.932  25.765  0.2312 -0.0602 -0.0046
16579W        W59491   0.946  26.622  24.654 -0.0881  0.0589  0.1199
16580W        W59492   2.153  27.061  25.929 -0.0917  0.1192 -0.2806
16581W        W59493   3.813  26.460  25.626 -0.1843  0.0861  0.1931
16582W        W59494   2.119  26.766  28.412  0.1368 -0.1288  0.2583
16583W        W59495  34.366  26.881  27.952  0.1988  0.1003  0.0455
16584W        W59496   2.829  28.470  26.447  0.3155 -0.1704 -0.1624
16585W        W59497   2.908  27.077  24.822  0.0064 -0.0242 -0.3265
16586W        W59498   2.814  25.683  26.354  0.0442  0.1715 -0.2013
16587W        W59499   2.719  27.165  24.242 -0.0494  0.4146  0.1547
16588W        W59500   1.992  26.423  22.892 -0.2551  0.0095 -0.0265
16589W        W59501  33.433  27.504  26.449 -0.4085  0.0187 -0.0582
16590W        W59502   2.182  27.084  26.540  0.3756 -0.3161 -0.0230
16591W        W59503   0.578  26.975  24.464  0.1692 -0.1180 -0.0981
16592W        W59504   2.266  26.949  27.038 -0.1583  0.3292  0.0223
16593W        W59505   1.455  29.267  24.926 -0.2680 -0.0587 -0.0170
16594W        W59506   1.538  28.686  25.141  0.1376 -0.3476  0.0018
16595W        W59507   3.295  27.372  23.520 -0.1103  0.0806 -0.1396
16596W        W59508  32.769  26.400  25.722 -0.0332 -0.1112  0.0008
16597W        W59509   0.522  30.012  26.194  0.0632  0.0919  0.5225
16598W        W59510  34.490  27.405  22.657 -0.1217 -0.3097  0.0875
16599W        W59511   1.519  27.774  25.370 -0.0940 -0.1102 -0.2112
16600W        W59512   2.295  27.984  26.350 -0.0254 -0.2011  0.1896
16601W        W59513   3.840  27.019  28.436  0.2253  0.0115  0.1070
16602W        W59514   1.703  25.533  24.604  0.2124 -0.0351  0.0269
16603W        W59515   4.614  26.683  26.845 -0.2521  0.0367  0.3869
16604W        W59516   0.208  29.488  25.118 -0.0991 -0.0221  0.0773
16605W        W59517   2.788  25.663  25.562  0.1304  0.0714 -0.1105
16606W        W59518   0.371  28.686  26.526 -0.0982 -0.2431  0.1975
16607W        W59519  34.140  28.241  27.104 -0.0087  0.1282 -0.0927
16608W        W59520   0.357  28.592  24.975 -0.1818  0.0554 -0.1264
16609W        W59521   2.464  26.473  27.207 -0.0380 -0.0860 -0.1576
16610W        W59522   3.547  26.208  26.286 -0.1707 -0.0002  0.2684
16611W        W59523   2.811  26.671  24.099 -0.0640  0.2740  0.3554
16612W        W59524   3.913  25.303  26.425 -0.3507  0.0868 -0.1173
16613W        W59525   1.953  26.430  26.652  0.0632  0.1961  0.0155
16614W        W59526   0.761  26.342  26.948  0.2217 -0.4967 -0.2125
16615W        W59527   2.715  28.078  27.296  0.2142 -0.1020  0.1866
16616W        W59528   2.518  26.848  24.608 -0.5053  0.1748  0.3802
16617W        W59529   0.432  29.096  25.783 -0.0614 -0.1053  0.0599
16618W        W59530   0.592  26.108  26.514 -0.2789 -0.0280 -0.0060
16619W        W59531   2.105  27.043  27.801  0.1103  0.1398 -0.1425
16620W        W59532   1.846  26.635  24.167 -0.1485 -0.0185  0.1429
16621W        W59533   1.313  26.919  24.916 -0.1026  0.3246  0.3263
16622W        W59534   1.507  27.316  24.556 -0.1227  0.2777 -0.2604
16623W        W59535  34.472  27.998  27.514  0.2156  0.2868  0.0362
16624W        W59536   1.761  28.045  25.777 -0.3032 -0.2467 -0.2292
16625W        W59537  34.569  29.594  23.872 -0.4487 -0.0916 -0.3773
16626W        W59538   2.667  27.582  24.837  0.2622  0.5024 -0.0528
16627W        W59539   2.366  26.746  23.697 -0.2405  0.0016  0.1018
16628W        W59540   2.656  29.368  26.800 -0.0218  0.1321 -0.2032
16629W        W59541   1.840  26.972  22.853 -0.2568 -0.0729 -0.1590
16630W        W59542   0.328  28.593  25.655  0.2372  0.1056 -0.0463
16631W        W59543   0.982  28.934  24.175 -0.2477 -0.2837  0.1392
16632W        W59544   2.529  27.780  23.751  0.0054  0.0133  0.1051
16633W        W59545  34.555  28.485  25.597  0.0084  0.0355  0.1836
16634W        W59546   3.961  28.514  26.756  0.3624  0.0545  0.0561
16635W        W59547   2.008  26.670  22.372 -0.1254  0.0296  0.2475
16636W        W59548   4.012  27.325  25.003  0.0223 -0.0185  0.2081
16637W        W59549   3.094  25.904  23.877 -0.0115  0.2218 -0.0313
16638W        W59550   2.552  28.775  26.163  0.2000 -0.3178 -0.1492
16639W        W59551   1.345  26.356  25.633  0.0229  0.2991 -0.0317
16640W        W59552   1.713  26.671  23.570 -0.0673 -0.0319 -0.0609
16641W        W59553   0.206  27.699  26.956 -0.0961 -0.0765  0.0009
16642W        W59554   4.272  24.978  27.074  0.1267 -0.0352  0.4226
16643W        W59555  33.526  26.581  28.006 -0.0224 -0.0675 -0.3708
16644W        W59556   4.247  28.558  24.441  0.0412  0.0347  0.0215
16645W        W59557  34.261  26.522  25.556  0.3351  0.3189 -0.1787
16646W        W59558   0.492  27.571  26.396  0.2002  0.0765 -0.0438
16647W        W59559   4.111  25.690  26.183 -0.1708  0.1437 -0.1598
16648W        W59560   2.065  27.669  23.901 -0.0784 -0.0721  0.1731
16649W        W59561   3.032  27.508  25.718 -0.0172 -0.0715 -0.0291
16650W        W59562   0.977  29.100  25.107 -0.3881  0.1393  0.0785
16651W        W59563   0.777  27.888  26.081 -0.0323  0.2067 -0.0587
16652W        W59564   1.687  28.469  25.992  0.0587 -0.0624  0.1775
16653W        W59565  33.924  26.764  25.298 -0.1707 -0.0236  0.0968
16654W        W59566   2.879  26.527  25.633 -0.1682 -0.1633 -0.0705
16655W        W59567   1.223  25.766  27.660  0.0694  0.3208  0.0171
16656W        W59568   2.837  26.059  25.958  0.0732 -0.2899  0.2935
16657W        W59569   1.418  27.053  23.621  0.1004 -0.0776 -0.1050
16658W        W59570   2.681  25.888  24.521 -0.0147  0.1415 -0.1128
16659W        W59571   1.341  27.367  25.605 -0.0579 -0.2146  0.1453
16660W        W59572   1.280  26.408  26.931  0.0056  0.4254  0.5507
16661W        W59573   0.594  26.372  24.955 -0.0861 -0.1189 -0.0169
16662W        W59574   3.184  28.794  26.440  0.0159  0.0650  0.0427
16663W        W59575   1.381  26.722  24.420  0.1123 -0.0649 -0.3106
16664W        W59576   1.128  28.060  27.613  0.0441  0.1599 -0.1338
16665W        W59577   0.785  27.171  25.446 -0.0656  0.0993 -0.1042
16666W        W59578   2.961  26.194  24.285  0.1777  0.0760  0.2024
16667W        W59579   0.670  27.714  24.888  0.1883 -0.2441 -0.0558
16668W        W59580  34.171  27.140  27.092  0.0390 -0.0052  0.2951
16669W        W59581   2.966  29.274  27.237 -0.1657  0.5133  0.3105
16670W        W59582  34.552  25.470  24.568  0.3856 -0.1801  0.1854
16671W        W59583   2.259  28.274  24.165  0.1948 -0.1161  0.0392
16672W        W59584   4.216  26.646  26.452 -0.1315  0.0945 -0.0775
16673W        W59585   1.844  28.859  24.694  0.1322  0.0707 -0.1172
16674W        W59586   1.754  28.173  25.150 -0.1808 -0.1209  0.1223
16675W        W59587   3.565  28.879  25.026 -0.1471 -0.0241  0.1226
16676W        W59588  34.182  28.130  26.595  0.1657  0.2942 -0.2031
16677W        W59589   3.220  28.795  25.844 -0.1118 -0.2433 -0.2779
16678W        W59590   2.959  28.025  26.440  0.0671 -0.3317  0.1569
16679W        W59591   0.627  26.551  26.264  0.0368  0.0355 -0.0231
16680W        W59592  34.625  27.726  26.511 -0.0023  0.2593 -0.0209
16681W        W59593  33.022  29.371  24.635  0.0287 -0.6100 -0.1727
16682W        W59594   3.157  25.757  24.356 -0.2401 -0.1582  0.1338
16683W        W59595   2.566  26.828  25.855  0.0263 -0.1076 -0.0468
16684W        W59596   1.737  29.086  25.320  0.0822  0.1491 -0.2349
16685W        W59597   3.826  26.506  27.874 -0.2353  0.3390  0.0610
16686W        W59598   1.330  28.283  25.414  0.0972 -0.0224 -0.1437
16687W        W59599  34.443  29.695  28.845  0.3542 -0.0564  0.0852
16688W        W59600   0.689  28.142  25.142 -0.0077 -0.0676  0.0852
16689W        W59601   1.687  28.420  26.499 -0.2443  0.0247 -0.1300
16690W        W59602   0.220  27.376  24.553 -0.3446 -0.1101 -0.1526
16691W        W59603   0.129  30.557  24.098  0.3128  0.1173  0.0133
16692W        W59604   3.531  29.177  25.732 -0.1803  0.1114 -0.1271
16693W        W59605  34.437  25.960  24.811  0.0162 -0.0786 -0.1455
16694W        W59606   3.754  27.747  25.128  0.0497 -0.2709 -0.0495
16695W        W59607   0.936  26.717  25.154 -0.0391  0.2141 -0.1482
16696W        W59608   4.778  26.094  24.653 -0.1375  0.2057 -0.2392
16697W        W59609   3.056  24.531  23.892  0.2424  0.0120  0.1166
16698W        W59610   1.526  27.929  26.790 -0.4766  0.1535 -0.0411
16699W        W59611   0.551  27.021  23.886  0.2167 -0.1440  0.1827
16700W        W59612  34.405  29.354  25.211 -0.2653 -0.2285 -0.0047
16701W        W59613  34.543  26.810  26.740 -0.3947  0.0274  0.0231
16702W        W59614   1.166  25.773  26.302  0.3988 -0.0126  0.3030
16703W        W59615   0.968  26.719  26.597  0.1274 -0.0935 -0.0000
16704W        W59616  33.928  27.659  26.435  0.0010 -0.0461  0.1055
16705W        W59617   0.073  24.250  25.146  0.3467 -0.0661 -0.1626
16706W        W59618   3.559  28.086  24.736 -0.0336 -0.1592  0.0775
16707W        W59619   1.132  25.694  25.658  0.1072  0.0665  0.0265
16708W        W59620   0.236  26.233  25.273  0.3480  0.0046  0.0959
16709W        W59621   1.543  28.687  24.188 -0.0758  0.2865 -0.2169
16710W        W59622   3.311  27.676  24.892  0.1654 -0.0936 -0.1205
16711W        W59623   1.722  26.451  24.700  0.2104  0.2092 -0.2077
16712W        W59624   3.408  29.497  27.562  0.0479  0.1277  0.0286
16713W        W59625  34.603  27.269  25.707  0.0011 -0.3145  0.2693
16714W        W59626   1.931  25.528  26.900  0.3472 -0.2473  0.1157
16715W        W59627   1.835  26.767  26.169  0.2835 -0.0173 -0.2549
16716W        W59628  34.047  26.237  22.899 -0.3253 -0.0051 -0.1198
16717W        W59629   1.693  26.117  26.302 -0.2314 -0.4888 -0.5541
16718W        W59630   1.358  28.724  24.631  0.3003 -0.3950  0.1896
16719W        W59631   3.567  29.591  24.163  0.3119 -0.0514  0.3105
16720W        W59632   2.188  28.367  25.919 -0.2678 -0.1881  0.0749
16721W        W59633   0.083  29.015  27.017  0.1007  0.0866 -0.1652
16722W        W59634   0.358  27.119  27.700 -0.0685 -0.0403  0.0553
16723W        W59635   3.545  27.264  24.092  0.2670  0.0417  0.1460
16724W        W59636   2.171  27.592  26.661  0.0761 -0.0211 -0.2696
16725W        W59637   3.869  28.780  23.631 -0.1019 -0.0174  0.2170
16726W        W59638   2.561  24.698  24.106 -0.1383  0.1926  0.0362
16727W        W59639   0.822  27.605  23.687  0.1019  0.0171  0.0439
16728W        W59640   1.389  24.679  26.994 -0.2639 -0.1976  0.1681
16729W        W59641  34.671  28.348  26.529  0.1812 -0.2199  0.2056
16730W        W59642   3.257  27.866  25.983  0.2056  0.1474  0.1926
16731W        W59643   0.115  25.146  24.848  0.0026  0.2423  0.1126
16732W        W59644   2.722  27.369  23.492 -0.0777  0.2376  0.0286
16733W        W59645   2.727  26.695  25.200 -0.2265  0.0286 -0.1098
16734W        W59646  33.408  27.491  26.960  0.2571  0.3012  0.1836
16735W        W59647   0.074  26.748  24.293  0.2329 -0.1507  0.3405
16736W        W59648   1.320  27.091  26.000  0.1346  0.1015  0.1680
16737W        W59649   2.929  29.167  26.294  0.1198 -0.1354 -0.3065
16738W        W59650   0.749  27.684  25.412 -0.1592 -0.3659  0.1624
16739W        W59651   1.516  26.467  22.634 -0.1466 -0.2101 -0.1431
16740W        W59652   3.050  27.391  23.968 -0.2332 -0.3791 -0.2224
16741W        W59653   1.674  29.071  25.826 -0.1288 -0.0830 -0.1880
16742W        W59654   2.734  28.162  28.701  0.4335  0.0603 -0.0463
16743W        W59655   1.512  29.124  28.193 -0.0833  0.2898  0.2243
16744W        W59656   3.344  27.188  26.672 -0.0139  0.0753  0.0203
16745W        W59657   0.844  26.914  25.965  0.2069 -0.1015  0.0563
16746W        W59658   1.265  27.733  24.454 -0.0429 -0.2222 -0.0823
16747W        W59659   0.331  28.368  24.133 -0.0320  0.1386  0.0504
16748W        W59660   3.111  24.534  25.785 -0.1069 -0.0973  0.3778
16749W        W59661   0.286  27.254  25.348 -0.4075 -0.2587 -0.0841
16750W        W59662   2.167  26.390  24.460 -0.0983 -0.1603  0.0815
16751W        W59663   1.383  30.081  24.348  0.1378 -0.0822  0.3787
16752W        W59664   1.488  29.200  24.365  0.0057 -0.2548  0.0950
16753W        W59665   1.779  28.063  30.090  0.2319 -0.0725  0.0810
16754W        W59666   0.960  25.503  28.188 -0.1936 -0.0108  0.3103
16755W        W59667   3.400  28.398  26.598  0.2692  0.0177  0.1043
16756W        W59668   3.515  26.586  28.778 -0.1115  0.2466  0.0582
16757W        W59669   0.117  26.459  28.890  0.0929 -0.1278 -0.3886
16758W        W59670   2.370  28.970  27.665  0.2619 -0.5007  0.3181
16759W        W59671   1.673  25.494  29.193  0.0666 -0.0793  0.1742
16760W        W59672   2.461  26.795  30.918  0.2658  0.0076  0.1460
16761W        W59673   2.836  30.175  30.022  0.5018  0.2331  0.1147
16762W        W59674   1.774  26.856  26.862  0.0174  0.0140 -0.2411
16763W        W59675   1.619  27.527  30.402 -0.2358 -0.2407 -0.1707
16764W        W59676   1.480  28.867  30.619  0.1391  0.1006  0.0242
16765W        W59677   2.496  25.659  28.835  0.0886 -0.0881  0.0018
16766W        W59678  34.514  25.648  30.483  0.1136 -0.3489  0.0067
16767W        W59679   2.142  27.012  30.606  0.2848 -0.2986  0.1950
16768W        W59680   0.946  26.028  28.245 -0.0011  0.0408  0.1375
16769W        W59681   0.643  27.108  29.853 -0.0603 -0.1462 -0.0205
16770W        W59682   2.073  25.362  29.527  0.1107 -0.1720  0.0098
16771W        W59683   2.565  28.366  29.161 -0.3029 -0.0642  0.0719
16772W        W59684   1.121  26.571  29.024 -0.0790 -0.4247 -0.1650
16773W        W59685   0.624  26.272  30.340  0.1746 -0.1216  0.2444
16774W        W59686   2.157  27.925  28.347  0.1156 -0.0728 -0.2198
16775W        W59687   0.094  26.063  27.857 -0.0053  0.2956 -0.3314
16776W        W59688   0.468  26.735  29.488 -0.0676 -0.3576 -0.2439
16777W        W59689   2.735  26.691  31.367 -0.2484 -0.2594 -0.1285
16778W        W59690   3.279  25.523  28.110  0.0699 -0.2146  0.2048
16779W        W59691   3.629  25.204  27.805  0.0797  0.2956 -0.1937
16780W        W59692   2.926  26.965  29.419  0.2692 -0.3179  0.0913
16781W        W59693   1.261  28.868  28.579 -0.0435  0.3515 -0.2734
16782W        W59694   3.399  26.694  30.048 -0.1471 -0.2510 -0.0049
16783W        W59695   1.378  27.797  27.993  0.0892  0.0014  0.1638
16784W        W59696  34.587  29.177  29.450  0.1548  0.2064  0.2318
16785W        W59697   0.485  28.894  28.040  0.0128  0.0907  0.1530
16786W        W59698   3.634  27.045  28.883  0.4249 -0.0463 -0.2390
16787W        W59699   2.991  28.266  29.460 -0.1339 -0.1246  0.0858
16788W        W59700   3.042  29.356  30.727 -0.1207  0.2517  0.0609
16789W        W59701   0.772  28.488  26.803 -0.2177  0.0398 -0.5178
16790W        W59702   2.038  29.426  29.549  0.0795  0.2559 -0.0619
16791W        W59703   1.371  28.351  29.812 -0.0743  0.2947  0.1201
16792W        W59704   1.616  27.581  29.857 -0.1552  0.2584  0.0578
16793W        W59705   1.690  26.749  29.088 -0.1663 -0.0982  0.0310
16794W        W59706   0.401  28.074  27.360  0.0802  0.3369  0.0357
16795W        W59707   2.178  27.392  29.063  0.1794 -0.0242 -0.2849
16796W        W59708   1.130  28.229  31.182  0.2315 -0.0337 -0.3239
16797W        W59709   0.779  26.999  28.164  0.3010 -0.0405 -0.3555
16798W        W59710   2.066  27.989   0.093  0.1114 -0.0452 -0.0893
16799W        W59711   1.036  28.985  28.148 -0.0011 -0.2570 -0.0440
16800W        W59712   2.389  26.677  28.005 -0.0345  0.0287  0.0871
16801W        W59713   1.700  26.155  27.617  0.0095 -0.1134 -0.0005
16802W        W59714   0.854  25.001  27.060  0.1667 -0.2284  0.0958
16803W        W59715   2.682  26.065  28.519 -0.0392  0.3709  0.0833
16804W        W59716  34.405  29.254  28.608  0.0387 -0.2280 -0.1161
16805W        W59717   0.765  26.906  30.374  0.0105  0.0208  0.0850
16806W        W59718   3.560  26.986  30.492 -0.1726 -0.2009  0.0148
16807W        W59719   1.394  26.786  28.648  0.0758 -0.3893 -0.0651
16808W        W59720   3.135  27.364  31.432 -0.0245  0.0982  0.0303
16809W        W59721   0.693  28.153  30.438  0.2728  0.1807 -0.0770
16810W        W59722   1.690  26.209  29.196  0.1249  0.0931  0.1306
16811W        W59723   3.178  28.485  28.417  0.0557 -0.1490 -0.0146
16812W        W59724   3.017  27.755  27.965 -0.1357 -0.0583 -0.1781
16813W        W59725   0.706  27.616  26.867  0.2398  0.0758  0.1879
16814W        W59726   0.570  26.634  30.001  0.1067  0.1136 -0.3920
16815W        W59727   0.845  26.952  29.304 -0.2248  0.0253 -0.3306
16816W        W59728   0.176  26.721  30.461  0.3403 -0.3569 -0.3081
16817W        W59729   2.697  25.258  26.134 -0.2631  0.2962  0.0085
16818W        W59730   3.992  28.095  31.037  0.0002  0.0071 -0.2106
16819W        W59731  34.523  30.126  29.676 -0.0537 -0.0546  0.0207
16820W        W59732   2.801  26.905  27.034  0.0591 -0.2549  0.2780
16821W        W59733   1.790  27.935  29.465 -0.1869 -0.2826  0.1515
16822W        W59734   3.191  28.339  30.338 -0.0190  0.2408 -0.2556
16823W        W59735   2.690  27.258  26.077 -0.0785 -0.1499 -0.3701
16824W        W59736   2.634  26.485  29.335  0.0434  0.2990  0.1523
16825W        W59737   3.623  26.109  30.159  0.0223  0.2001  0.0078
16826W        W59738   1.371  27.540  26.154 -0.2059  0.2537 -0.2806
16827W        W59739   0.902  27.721  28.505 -0.2481 -0.0014  0.1446
16828W        W59740   4.222  28.832  30.758 -0.2750 -0.0126  0.2961
16829W        W59741   3.464  26.852  27.023  0.0150  0.0421  0.0837
16830W        W59742   0.925  28.672  28.897  0.2940  0.0056  0.1950
16831W        W59743  33.830  26.263  30.423 -0.1736 -0.1440  0.1456
16832W        W59744   3.264  27.404  30.834  0.2507  0.0929  0.0869
16833W        W59745   0.180  28.767  29.248 -0.0445  0.3409 -0.3433
16834W        W59746  34.320  25.851  29.340 -0.2615 -0.2221 -0.1495
16835W        W59747   1.387  26.762  28.063  0.0893  0.0350  0.0978
16836W        W59748  33.752  25.062  30.983 -0.0834 -0.1102  0.0601
16837W        W59749   2.521  27.445  31.456  0.1124  0.2064  0.0958
16838W        W59750   3.003  26.432  27.130  0.0507 -0.0094  0.1848
16839W        W59751   0.109  26.155  30.309  0.0885 -0.2760 -0.0114
16840W        W59752   3.111  26.286  29.328  0.0484  0.1929 -0.1400
16841W        W59753   0.624  25.334  28.710 -0.2787  0.2820 -0.0326
16842W        W59754   2.338  31.242  29.255 -0.1932  0.0358  0.1872
16843W        W59755   3.982  26.895  29.213 -0.2462 -0.3224 -0.0162
16844W        W59756   3.328  27.336  27.692  0.3454  0.0692  0.1085
16845W        W59757   1.224  27.228  29.845 -0.0214  0.0662  0.1410
16846W        W59758   0.600  26.602  29.048 -0.1251  0.1435  0.0815
16847W        W59759   0.557  26.182  30.961 -0.1941 -0.2531  0.1504
16848W        W59760  34.664  26.011  29.797  0.1429 -0.0963 -0.1180
16849W        W59761   2.058  27.450  29.577  0.1087  0.2742 -0.5332
16850W        W59762   0.089  25.803  29.194 -0.3155 -0.0437 -0.3344
16851W        W59763   2.303  26.016  30.383  0.3023 -0.1058 -0.1943
16852W        W59764   1.971  27.207  30.018  0.3056  0.1200  0.2457
16853W        W59765   1.169  26.282  27.781 -0.0512  0.0262 -0.0155
16854W        W59766   5.272  25.936  31.824 -0.2723 -0.3554 -0.2468
16855W        W59767   1.448  28.384  27.264 -0.1173 -0.1851 -0.0326
16856W        W59768   2.251  28.529  30.098  0.0067  0.1209 -0.1180
16857W        W59769   3.460  28.727  29.300  0.1369  0.3763 -0.1028
16858W        W59770   0.440  25.789  30.674 -0.0957  0.1290  0.1031
16859W        W59771   1.040  26.539  27.340 -0.0204  0.3056  0.3562
16860W        W59772  34.562  30.155  28.628  0.3422 -0.0493 -0.1975
16861W        W59773   1.559  28.786  30.068  0.0326 -0.4352 -0.0589
16862W        W59774   2.317  26.072  26.864 -0.1567 -0.0416 -0.1610
16863W        W59775   1.641  28.768  29.499  0.1125 -0.2433  0.0405
16864W        W59776   1.695  27.222  28.803  0.0352  0.1075 -0.0350
16865W        W59777   0.413  27.857  30.803 -0.1280 -0.0384 -0.3112
16866W        W59778   1.882  25.951  30.712 -0.2176  0.0050 -0.1823
16867W        W59779   3.988  27.257  30.831  0.1643 -0.1253 -0.1518
16868W        W59780   2.396  26.549  28.760 -0.2724  0.1705 -0.0848
16869W        W59781   0.109  25.327  27.432 -0.0640 -0.2024  0.1567
16870W        W59782   1.914  28.307  27.516 -0.2082  0.0764 -0.1208
16871W        W59783  34.274  29.435  28.040 -0.3596 -0.0323 -0.0449
16872W        W59784  34.254  26.021  30.087  0.3623  0.0689 -0.0074
16873W        W59785   2.533  28.281  29.748  0.0838 -0.0894 -0.0969
16874W        W59786   4.588  25.382  29.120  0.0227  0.0936 -0.1493
16875W        W59787   0.915  27.377  31.298 -0.1074  0.2190 -0.0760
16876W        W59788   3.283  27.060   0.446 -0.4444  0.1199  0.0991
16877W        W59789   0.210  25.643  30.173  0.1323 -0.2001  0.1521
16878W        W59790   1.397  29.416  30.658  0.2615 -0.4001 -0.2090
16879W        W59791   3.449  26.099  29.048  0.0198  0.0485 -0.0506
16880W        W59792   2.936  27.382  26.899 -0.0443  0.1253 -0.0430
16881W        W59793   3.286  26.332  31.510  0.0941 -0.0173 -0.1036
16882W        W59794   3.596  25.507  29.252  0.0744  0.0357 -0.4645
16883W        W59795   2.519  27.727  27.699 -0.0891 -0.0864 -0.1617
16884W        W59796   2.189  25.384  27.774 -0.2419  0.1025 -0.0687
16885W        W59797  34.039  28.350  29.502 -0.2124 -0.2907  0.0267
16886W        W59798   2.557  27.308  29.393 -0.1646 -0.3265 -0.2033
16887W        W59799   2.990  28.554  29.919 -0.2082  0.0960  0.2826
16888W        W59800   1.241  27.325  28.054 -0.1111  0.1163  0.0164
16889W        W59801   4.385  28.147  28.550 -0.1139 -0.2691  0.0053
16890W        W59802   0.920  27.689  30.648 -0.0140  0.2899  0.0114
16891W        W59803   2.363  29.299  30.767  0.1257 -0.0811 -0.2825
16892W        W59804   2.486  27.722  28.769  0.0815 -0.0068  0.0629
16893W        W59805   1.586  26.921  30.110  0.0238  0.1054  0.2827
16894W        W59806   1.754  27.294  26.416  0.1798  0.0202 -0.0428
16895W        W59807   3.247  25.504  28.897 -0.0964 -0.2053  0.0282
16896W        W59808  34.508  27.790  28.294  0.0275  0.1298  0.0976
16897W        W59809   3.139  27.035  28.786  0.0545  0.2136 -0.1171
16898W        W59810   3.226  26.879  30.903 -0.1982 -0.0746  0.0691
16899W        W59811   1.860  24.311  29.475 -0.2695  0.3929  0.2914
16900W        W59812   3.483  26.926   0.973  0.0431 -0.0399 -0.0473
16901W        W59813   2.735  26.065  27.418  0.1001 -0.2976 -0.0844
16902W        W59814   2.944  27.453  29.031 -0.0802  0.0336  0.2307
16903W        W59815   0.597  27.105  26.826  0.3353 -0.1180  0.0047
16904W        W59816   1.331  26.212  29.572  0.1169  0.2313  0.3305
16905W        W59817   0.105  27.374  30.493  0.1109 -0.3264  0.2354
16906W        W59818   0.511  29.767  29.585 -0.1233 -0.0305  0.2660
16907W        W59819   2.395  29.729  29.081  0.0924  0.1881 -0.1060
16908W        W59820   2.220  27.510  28.075  0.0096  0.2846  0.1256
16909W        W59821   2.136  25.734  29.198  0.0295 -0.0240  0.1838
16910W        W59822   2.232  26.263  28.256 -0.0940  0.1388  0.2088
16911W        W59823   2.188  28.989  28.404 -0.2832  0.1769  0.0009
16912W        W59824   1.902  27.680  28.694  0.4133 -0.1990 -0.2837
16913W        W59825   1.809  25.896  29.603 -0.1515  0.0621 -0.2343
16914W        W59826   2.759  27.510  30.173 -0.0545  0.0396 -0.0675
16915W        W59827   1.806  28.727  28.252 -0.2604 -0.0201 -0.2053
16916W        W59828   3.520  28.033  30.115  0.1781 -0.0116 -0.1954
16917W        W59829   0.965  28.129  28.226  0.0175 -0.4200 -0.2993
16918W        W59830   4.496  26.207  29.646 -0.3595 -0.0644 -0.0424
16919W        W59831   1.912  28.414  29.745 -0.0856 -0.0782 -0.0815
16920W        W59832   0.603  26.067  27.857 -0.0673 -0.0387 -0.1877
16921W        W59833  34.580  27.275  27.764  0.0343 -0.0958 -0.1839
16922W        W59834   4.304  24.447  27.982  0.1828  0.2499 -0.3455
16923W        W59835   2.985  27.856  26.915 -0.1707 -0.0891  0.1954
16924W        W59836  33.681  26.782   0.204 -0.2588 -0.3529 -0.2599
16925W        W59837   2.067  26.085  28.754 -0.0012  0.2862  0.2267
16926W        W59838   1.593  27.901  27.409 -0.1372  0.0894 -0.2624
16927W        W59839   2.761  29.279  30.222 -0.1604 -0.0070 -0.1520
16928W        W59840   2.094  24.834  28.414 -0.1693 -0.2174 -0.1193
16929W        W59841   3.151  28.906  30.428 -0.1331  0.2150  0.0916
16930W        W59842   1.990  28.802  31.531 -0.2058 -0.0408  0.0286
16931W        W59843   0.841  27.232  27.706  0.0683  0.2799  0.0018
16932W        W59844   3.822  27.218  29.573  0.0804  0.1043  0.3239
16933W        W59845   1.017  26.755  29.893 -0.1835 -0.0087  0.1331
16934W        W59846   0.273  28.539  28.664  0.2684 -0.2579 -0.2118
16935W        W59847   3.445  27.285  29.289  0.2307 -0.3207  0.0877
16936W        W59848   1.619  27.059  28.310 -0.1511  0.1631 -0.4108
16937W        W59849   1.763  28.369  28.600  0.2022  0.0500 -0.1739
16938W        W59850   1.425  26.217  30.443 -0.1569 -0.3105  0.1546
16939W        W59851   3.275  26.894  31.547 -0.2397 -0.0249  0.0724
16940W        W59852   2.621  27.023  28.989  0.3101 -0.3033  0.1879
16941W        W59853   1.419  25.971  27.172 -0.0077  0.0081 -0.1455
16942W        W59854   2.603  27.595  30.659  0.1312 -0.1559  0.2426
16943W        W59855   4.127  27.692  30.769 -0.1616 -0.3335  0.1637
16944W        W59856   2.327  26.268  30.859  0.0731  0.0363  0.0883
16945W        W59857   1.525  28.390  30.369  0.0935  0.1387  0.4265
16946W        W59858   1.003  26.574  28.290  0.1677 -0.4576 -0.0516
16947W        W59859   3.326  29.552  29.074  0.0951 -0.1669  0.3720
16948W        W59860   3.088  28.615  31.384  0.1727 -0.0189  0.0519
16949W        W59861   0.614  28.036  27.829  0.1670 -0.0496 -0.2719
16950W        W59862  34.513  27.737  29.753 -0.2607 -0.2649  0.1643
16951W        W59863   0.388  28.472  27.741  0.1121 -0.2326 -0.0834
16952W        W59864   2.276  25.309  29.985 -0.0811 -0.0726  0.1471
16953W        W59865   1.245  28.050  29.224 -0.0776 -0.0472  0.0885
16954W        W59866   0.536  29.506  28.008 -0.0317 -0.2061  0.2364
16955W        W59867   1.102  28.715  30.250  0.0760  0.0279  0.0855
16956W        W59868   2.738  25.249  28.065 -0.1038 -0.0907 -0.0979
16957W        W59869   2.193  27.920  27.309  0.2192  0.0108 -0.1363
16958W        W59870   3.128  26.195  28.690  0.0662 -0.3289 -0.0417
16959W        W59871   4.468  26.663  31.592  0.0694  0.2985  0.0030
16960W        W59872   3.754  25.930  27.391 -0.0039  0.4213 -0.1814
16961W        W59873   2.512  26.285  30.024 -0.0752 -0.1912  0.3301
16962W        W59874   1.096  25.444  31.015  0.1644  0.0157  0.2634
16963W        W59875   2.535  28.274  31.169  0.0792 -0.0505  0.4145
16964W        W59876   0.160  26.981  30.921 -0.1797  0.2699 -0.0527
16965W        W59877   2.414  28.476  30.723 -0.3883 -0.3467 -0.3180
16966W        W59878   1.917  26.595  31.716 -0.1513  0.1219  0.2242
16967W        W59879   2.431  25.683  28.126 -0.0797  0.3203  0.2099
16968W        W59880   1.008  27.711  26.485 -0.0146  0.1930  0.0382
16969W        W59881   1.161  27.496  29.381  0.0839 -0.2258  0.2514
16970W        W59882   3.113  27.893  30.872  0.3088 -0.1505  0.0135
16971W        W59883   0.878  28.522  27.916 -0.1119 -0.1046 -0.1953
16972W        W59884   2.891  26.596  28.920 -0.0399  0.1437  0.0497
16973W        W59885   1.265  29.261  30.159  0.3374 -0.0055 -0.0218
16974W        W59886   1.839  28.241  28.135  0.1512 -0.0823 -0.1540
16975W        W59887   2.868  26.885  27.942  0.0740  0.0143  0.1110
16976W        W59888   0.472  27.115  28.995 -0.1230  0.0308 -0.3902
16977W        W59889   0.982  25.893  30.524 -0.0926 -0.1317 -0.1471
16978W        W59890   3.636  27.108  28.000  0.5266 -0.1898 -0.1825
16979W        W59891   2.314  26.276  29.612  0.2604 -0.2746 -0.1556
16980W        W59892   1.974  26.195  30.002  0.3130  0.0858 -0.1875
16981W        W59893   2.819  27.187  31.103  0.2869 -0.0056  0.0216
16982W        W59894   2.677  27.830  31.128 -0.0725  0.0441  0.2428
16983W        W59895   1.026  26.926  30.793 -0.1659 -0.0279 -0.0216
16984W        W59896   2.080  30.583  30.179  0.0749 -0.2818 -0.5993
16985W        W59897   3.364  26.565  27.704 -0.1495  0.0391  0.0906
16986W        W59898   2.754  26.012  29.661 -0.0943  0.0920 -0.1332
16987W        W59899   2.724  26.476  28.295  0.1047  0.0925 -0.2951
16988W        W59900   1.766  26.443  28.701  0.4571  0.3473  0.0970
16989W        W59901  33.466  26.465  30.792 -0.0546 -0.0541  0.1666
16990W        W59902   3.355  27.632   1.751  0.0159  0.0698  0.1306
16991W        W59903   1.298  26.603  26.071 -0.1496 -0.0838  0.0325
16992W        W59904   2.917  27.149  30.577  0.0946  0.1119 -0.2639
16993W        W59905   1.324  28.897  27.689 -0.1276 -0.1480 -0.2015
16994W        W59906   2.302  28.122  27.886 -0.0688  0.0261 -0.0973
16995W        W59907   3.356  26.677  28.207  0.1361 -0.1606  0.0044
16996W        W59908   0.506  25.993  29.913  0.1414 -0.3877  0.2811
16997W        W59909   0.335  28.513  30.189 -0.3174 -0.1222  0.3289
16998W        W59910   0.324  26.144  28.353  0.1189 -0.1723 -0.4074
16999W        W59911   1.195  27.760  27.145 -0.1245  0.0165  0.1304
17000W        W59912   0.787  29.347  29.678  0.0194 -0.0345 -0.1820
17001W        W59913   4.655  26.856   0.166 -0.1223 -0.0108 -0.2315
17002W        W59914   2.350  25.292  28.426 -0.0349 -0.1171 -0.4000
17003W        W59915   4.406  26.214  31.311 -0.3233  0.1985 -0.0653
17004W        W59916   1.731  27.356  27.015 -0.0371 -0.0782  0.0912
17005W        W59917   2.966  23.810  29.531  0.2443  0.2246 -0.2183
17006W        W59918   2.050  29.790  29.967  0.0267  0.1483 -0.0270
17007W        W59919   1.312  27.731  31.053  0.0301 -0.1198 -0.2065
17008W        W59920   2.183  30.200  29.169 -0.0354  0.2556 -0.2194
17009W        W59921   2.403  25.490  30.445 -0.3690 -0.4331  0.0465
17010W        W59922   1.433  26.443  29.980  0.0144 -0.4172 -0.3626
17011W        W59923   1.931  28.036  31.226  0.3388 -0.2657 -0.2702
17012W        W59924   3.905  26.761  30.702 -0.0567 -0.1405  0.2621
17013W        W59925   2.446  27.232  29.902 -0.0292 -0.2354 -0.2606
17014W        W59926   0.863  26.896  28.738  0.0716 -0.0047  0.1452
17015W        W59927   1.573  28.429  30.881  0.0417  0.0563 -0.2851
17016W        W59928   3.486  25.797  28.575  0.3793  0.0065  0.1040
17017W        W59929   1.951  28.408  29.185 -0.1117  0.2774  0.1311
17018W        W59930   0.138  26.737   0.647  0.0629 -0.3812 -0.1100
17019W        W59931   1.933  26.833  31.010  0.2763 -0.1863 -0.0179
17020W        W59932   4.062  27.371  29.104 -0.0608 -0.0972 -0.0434
17021W        W59933   1.645  26.299  28.086  0.0644 -0.1209 -0.2186
17022W        W59934   1.304  28.856  26.746 -0.3684  0.0633 -0.0914
17023W        W59935  34.195  27.745  30.202 -0.3121  0.2084 -0.0505
17024W        W59936   1.143  27.250  28.520 -0.3371  0.2694 -0.2693
17025W        W59937   0.698  31.266  28.830 -0.2041  0.1870 -0.1561
17026W        W59938   2.711  27.376  28.009 -0.1091 -0.0203  0.5056
17027W        W59939   1.740  27.387  27.777 -0.3211 -0.2976 -0.1349
17028W        W59940   2.677  28.097  30.656 -0.1069 -0.2191  0.1888
17029W        W59941   3.001  24.878  27.229  0.0782 -0.0420  0.1799
17030W        W59942   1.666  27.441  29.303 -0.0105  0.1811 -0.2982
17031W        W59943  33.143  28.427  27.831 -0.2189 -0.0204 -0.3060
17032W        W59944   2.253  28.438  28.423  0.0772 -0.0627 -0.1648
17033W        W59945   1.085  29.688  29.866 -0.0161 -0.1538  0.2323
17034W        W59946   2.513  27.937  30.197 -0.1351  0.0294  0.0611
17035W        W59947   4.607  25.454  27.019  0.1594  0.3464  0.4207
17036W        W59948   4.251  27.761  28.896 -0.5118  0.1258 -0.0504
17037W        W59949   3.901  26.057  28.929  0.0110 -0.0847  0.0073
17038W        W59950   1.704  27.926  30.818  0.4042 -0.1738  0.1803
17039W        W59951   1.150  27.201  30.386  0.0003 -0.0295  0.0159
17040W        W59952   2.058  25.986  25.572 -0.1488 -0.0521 -0.2349
17041W        W59953  34.390  27.105  30.920 -0.0604  0.2897  0.3995
17042W        W59954   2.914  26.590  30.328  0.2909  0.2086  0.1106
17043W        W59955  34.245  28.453  30.406  0.3125  0.0400 -0.3986
17044W        W59956   3.545  28.242  28.143 -0.3839 -0.1843 -0.0473
17045W        W59957   0.572  26.837  27.288 -0.1669  0.1859 -0.3636
17046W        W59958   2.216  26.928  29.376  0.1878  0.1529 -0.1468
17047W        W59959   2.957  25.815  29.164  0.2274  0.0879  0.5307
17048W        W59960   2.175  27.484  26.185  0.1355 -0.1860  0.0056
17049W        W59961   0.683  27.377  30.320  0.2626  0.2192  0.1156
17050W        W59962   1.784  29.661  29.138 -0.1355 -0.4029  0.1162
17051W        W59963   1.153  28.192  28.756 -0.3084 -0.0655 -0.1558
17052W        W59964   2.219  29.325  30.109 -0.4662  0.0658  0.1113
17053W        W59965   0.772  27.685  27.423  0.1384  0.1230 -0.2129
17054W        W59966   4.844  24.929  28.640 -0.2130  0.1288 -0.3604
17055W        W59967   1.638  27.046  30.627 -0.0152 -0.0551  0.2708
17056W        W59968   3.996  27.582  29.939  0.2778  0.1967  0.1002
17057W        W59969   1.319  26.734  29.481  0.1498 -0.0424 -0.0752
17058W        W59970   3.338  27.107  29.747 -0.1525 -0.1886 -0.0354
17059W        W59971   2.365  28.947  30.423 -0.0658  0.2847  0.1231
17060W        W59972   0.461  27.301  31.356  0.1208 -0.1404 -0.0323
17061W        W59973   2.638  27.847  28.270 -0.1741 -0.1603 -0.0818
17062W        W59974   4.191  26.876  31.197  0.1060  0.2445  0.0311
17063W        W59975   2.154  26.498  27.635 -0.0884 -0.0196 -0.2127
17064W        W59976   1.966  30.388  29.703  0.0468  0.0165 -0.1974
17065W        W59977  33.054  26.788  29.854 -0.2109  0.0945  0.3309
17066W        W59978   3.436  25.383  26.603 -0.2099 -0.1578 -0.1207
17067W        W59979   0.021  26.550  29.460 -0.3201  0.3341  0.0358
17068W        W59980   1.767  25.740  31.167 -0.1797  0.0754 -0.0934
17069W        W59981   2.204  29.677  30.479 -0.3520 -0.2489 -0.0013
17070W        W59982  33.699  25.584  28.770  0.0696 -0.0565  0.4238
17071W        W59983   3.390  27.305  27.206  0.0284 -0.2047  0.1274
17072W        W59984   2.508  26.086  29.105  0.1372  0.2462 -0.3608
17073W        W59985   1.804  29.706  27.148 -0.2787  0.3922  0.0372
17074W        W59986   3.089  26.878  27.425  0.1754 -0.0847  0.1284
17075W        W59987   3.576  29.415  28.591 -0.0396  0.1891  0.2766
17076W        W59988  34.332  26.724  29.170  0.1245 -0.1653  0.0893
17077W        W59989   2.635  30.220  30.808  0.1658  0.1381 -0.1921
17078W        W59990   3.555  28.081  30.634 -0.1603  0.2077  0.2110
17079W        W59991   2.579  25.492  29.413  0.0845  0.1913 -0.2474
17080W        W59992   0.520  26.278  31.445  0.0439 -0.0075 -0.0043
17081W        W59993   0.326  27.782  28.817  0.1556 -0.1140  0.0342
17082W        W59994   4.073  25.940  30.419 -0.3287 -0.0368 -0.0806
17083W        W59995   4.000  25.565  30.108 -0.1658  0.0045 -0.2488
17084W        W59996   0.748  29.049  26.788 -0.1344  0.0709  0.2462
17085W        W59997   2.649  26.228  31.283 -0.1825 -0.0669  0.2317
17086W        W59998   3.146  28.004  28.944  0.0873 -0.0245  0.2319
17087W        W59999   0.699  28.903  29.976 -0.4064  0.4527  0.1361
17088W        W60000   0.041  27.338  26.158  0.0307  0.0487 -0.2604
17089W        W60001   2.762  27.079  31.691 -0.0660 -0.0366 -0.1718
17090W        W60002   2.169  27.936  29.815  0.0236  0.0490 -0.1818
17091W        W60003   1.902  28.239  26.908  0.2434  0.0935  0.1482
17092W        W60004   1.913  27.885  27.800  0.1828 -0.2507 -0.1413
17093W        W60005   2.214  27.304  28.536  0.3703 -0.3528 -0.0397
17094W        W60006   3.177  27.199  28.240 -0.0835 -0.0048  0.1597
17095W        W60007   1.739  26.991  29.570 -0.0296  0.0057  0.0944
17096W        W60008   3.790  25.562  28.102 -0.4290  0.0584  0.1486
17097W        W60009   4.076  25.365  29.036 -0.1995  0.0152  0.0757
17098W        W60010   1.356  27.184  31.097  0.1988  0.0411 -0.2593
17099W        W60011   0.016  26.979  29.052 -0.1308  0.0625  0.1020
17100W        W60012   2.529  27.639  27.057 -0.0489  0.2439  0.0992
17101W        W60013   2.033  28.203  30.483 -0.1330  0.2112 -0.1837
17102W        W60014   0.974  25.712  29.910  0.0201  0.0243  0.1547
17103W        W60015   1.374  25.836  30.868 -0.1798 -0.0948 -0.0683
17104W        W60016   1.139  28.147  30.692 -0.0553 -0.0204 -0.0346
17105W        W60017   1.569  25.485  28.549  0.1056  0.1567  0.0870
17106W        W60018   2.583  26.986  28.401  0.3996  0.0072  0.1871
17107W        W60019   0.102  26.906  31.424 -0.2785 -0.2439 -0.2153
17108W        W60020  33.917  26.857  29.362 -0.1580 -0.1384 -0.0503
17109W        W60021   0.924  27.158  27.204  0.0174 -0.1549  0.1805
17110W        W60022   2.776  26.544  27.580 -0.0887  0.0525  0.1131
17111W        W60023   1.168  25.792  28.608  0.0979  0.2872 -0.2231
17112W        W60024   3.060  27.904  29.949  0.0930 -0.0479 -0.3949
17113W        W60025   1.492  26.573  27.553 -0.0200 -0.1246  0.0410
17114W        W60026   2.014  27.923   1.667  0.0129 -0.1284  0.3979
17115W        W60027   0.958  26.173  29.968  0.2402  0.1849  0.0983
17116W        W60028   0.818  26.009  27.280 -0.3328  0.1774  0.0269
17117W        W60029   1.380  27.501  31.515 -0.0311 -0.1479 -0.0684
17118W        W60030   2.582  28.837  28.093  0.1278 -0.1863 -0.0815
17119W        W60031   2.870  29.527  28.901  0.3050  0.1216 -0.2258
17120W        W60032   1.964  28.709  30.591 -0.0820 -0.1175 -0.0861
17121W        W60033   1.681  30.338  31.073  0.0144 -0.0012  0.0435
17122W        W60034   1.363  25.681  29.562 -0.2840  0.0862 -0.2305
17123W        W60035   1.647  25.968  26.733 -0.0445  0.0959 -0.1454
17124W        W60036   2.606  28.700  31.654 -0.0252  0.2287  0.0585
17125W        W60037   3.108  26.124  27.724 -0.1251 -0.0116  0.0097
17126W        W60038   4.337  26.641  30.513  0.1396 -0.0480 -0.1659
17127W        W60039   2.241  25.993  27.595  0.0972 -0.3766  0.1928
17128W        W60040   1.132  25.578  29.115  0.0978 -0.0803 -0.2419
17129W        W60041   0.643  28.778  31.007  0.0222 -0.0426  0.0670
17130W        W60042   2.936  26.993  29.991  0.1807 -0.1990  0.0719
17131W        W60043   2.880  24.497  28.917  0.2051 -0.2310  0.0913
17132W        W60044   2.846  27.423  28.561 -0.5500  0.0996  0.2465
17133W        W60045   3.274  28.808  27.100 -0.2312 -0.1128 -0.2581
17134W        W60046   1.785  27.343  31.201  0.0760 -0.0826 -0.0778
17135W        W60047   1.280  27.398  26.744  0.2342  0.0888 -0.2785
17136W        W60048   3.232  27.953  31.412  0.6536 -0.0417 -0.2034
17137W        W60049   3.283  27.248  30.219  0.0562  0.2528  0.0781
17138W        W60050   3.074  26.766   0.061 -0.1810  0.0670  0.1469
17139W        W60051   0.804  27.947  29.050 -0.1573  0.1782 -0.0304
17140W        W60052   3.422  25.126  28.313 -0.2786 -0.3520  0.1718
17141W        W60053   2.581  28.907  29.893 -0.2419  0.0634 -0.3769
17142W        W60054   3.467  29.742  30.524  0.1955  0.0268  0.0508
17143W        W60055   2.164  28.794  28.863  0.0861 -0.3061  0.1009
17144W        W60056   3.017  26.541  29.734  0.0281  0.1845 -0.0655
17145W        W60057   0.665  24.637  29.408  0.1338  0.1585 -0.0591
17146W        W60058   0.612  28.202  28.647 -0.0783 -0.0557  0.1646
17147W        W60059   2.251  27.984  29.339  0.0086  0.1276 -0.1941
17148W        W60060   1.847  26.502  29.570  0.1090  0.0528 -0.2741
17149W        W60061   0.784  26.343  28.635  0.1053  0.3226 -0.2434
17150W        W60062   4.403  25.279  28.689  0.2524  0.3490 -0.0711
17151W        W60063   1.289  30.337  30.753  0.3622  0.0095  0.2454
17152W        W60064   1.713  27.580  28.269 -0.0405 -0.1332  0.0709
17153W        W60065   1.471  26.598  30.860 -0.0258 -0.1381 -0.0017
17154W        W60066   2.430  27.919  31.537  0.1275  0.0506 -0.1437
17155W        W60067   1.407  26.427  31.645 -0.0881 -0.2063 -0.1624
17156W        W60068   0.962  28.505   0.316 -0.3194 -0.0183 -0.0733
17157W        W60069  34.695  28.451  31.220  0.1803 -0.2282 -0.2529
17158W        W60070   0.346  28.794  31.406 -0.0498  0.0559  0.0633
17159W        W60071   2.019  26.722  30.008  0.2944  0.1630 -0.3689
17160W        W60072   1.656  26.896  31.358 -0.1879  0.0999 -0.1440
17161W        W60073   2.915  26.509  30.923 -0.2183  0.1354 -0.0945
17162W        W60074   3.596  27.429  31.634  0.0242  0.4172 -0.1008
17163W        W60075   2.256  27.914  30.849 -0.3928  0.1357 -0.1336
17164W        W60076   0.793  25.907  29.493  0.0098 -0.2448 -0.2203
17165W        W60077   2.023  28.507  31.097  0.4104 -0.1614  0.2355
17166W        W60078   2.222  27.028  31.506 -0.3844 -0.1259  0.0539
17167W        W60079   3.983  28.124   0.501 -0.0056  0.1038 -0.0124
17168W        W60080  34.425  28.865  30.934  0.0669  0.1611 -0.3198
17169W        W60081   3.117  28.350   1.115 -0.4768  0.1057 -0.1455
17170W        W60082   2.796  28.899   0.133 -0.0824  0.2728 -0.1199
17171W        W60083  34.213  24.890   0.826 -0.0406 -0.2652 -0.3719
17172W        W60084  33.597  27.663   0.386 -0.0475  0.2809  0.4202
17173W        W60085  34.627  25.550  31.840  0.0372 -0.0734  0.0611
17174W        W60086   1.263  27.917  30.252 -0.1509  0.2852 -0.3062
17175W        W60087   5.902  25.454   0.351  0.0957  0.0704  0.0391
17176W        W60088   2.009  26.151  31.329  0.1607  0.0044  0.2328
17177W        W60089   1.232  26.678  30.375 -0.3279 -0.0184 -0.1881
17178W        W60090   1.007  26.398  30.781  0.0539 -0.4801  0.1403
17179W        W60091   1.097  27.076  31.657  0.0699 -0.0448  0.0158
17180W        W60092   1.054  29.898  30.855 -0.4489 -0.0748 -0.0465
17181W        W60093   0.632  27.235  30.829  0.3126 -0.0240  0.1059
17182W        W60094  34.508  27.341  31.448 -0.1693 -0.1453 -0.2237
17183W        W60095   0.258  29.015  30.247 -0.0013  0.4664  0.1808
17184W        W60096   0.913  26.029  31.755 -0.1591 -0.3284 -0.0529
17185W        W60097   1.791  28.325  31.857 -0.0458  0.4100 -0.2503
17186W        W60098   2.437  26.642  31.791 -0.1191  0.0473 -0.0560
17187W        W60099  33.213  26.735   1.363 -0.2383  0.1528  0.0433
17188W        W60100   1.299  28.381  31.968  0.0555  0.1031 -0.2259
17189W        W60101  33.538  28.285  31.839  0.1280  0.1115 -0.0962
17190W        W60102   2.805  29.573  31.417 -0.1707 -0.2191  0.2699
17191W        W60103   2.837  27.726  31.731 -0.1731 -0.1331  0.1537
17192W        W60104   0.765  27.910   1.188 -0.1396  0.0657  0.1278
17193W        W60105   2.209  27.476  31.844  0.0297 -0.1539  0.1066
17194W        W60106   1.241  27.306   0.113 -0.1155 -0.1367  0.1867
17195W        W60107   0.117  27.449  31.032  0.2895  0.0226 -0.2820
17196W        W60108   1.919  29.592  30.847  0.0388 -0.1206 -0.3156
17197W        W60109   0.639  26.815  31.242 -0.0664  0.0975 -0.0086
17198W        W60110   2.300  26.600  30.411  0.0843 -0.1439 -0.0477
17199W        W60111   2.690  25.688  31.261 -0.1552 -0.0488  0.0892
17200W        W60112   2.270  27.942   0.581  0.2151  0.0630 -0.0726
17201W        W60113   2.885  28.799  29.486 -0.2536  0.0585 -0.2567
17202W        W60114   0.957  28.318  30.058 -0.2918 -0.0331  0.0080
17203W        W60115   3.843  28.876  31.109  0.2812 -0.1993 -0.0634
17204W        W60116   4.456  27.753  29.939 -0.2483 -0.2548 -0.0333
17205W        W60117   1.848  25.796  30.261  0.0650  0.0402 -0.0467
17206W        W60118   2.134  27.567  30.355  0.0607  0.0118 -0.1317
17207W        W60119   2.133  26.170  31.811  0.2118 -0.0778  0.1830
17208W        W60120   2.312  27.313  30.975 -0.1136  0.1374  0.1664
17209W        W60121   3.079  28.281   0.530  0.1278  0.0180 -0.0886
17210W        W60122   1.575  29.821  31.094 -0.0339  0.0555  0.0178
17211W        W60123   1.598  28.457  31.394 -0.0759 -0.3433 -0.2851
17212W        W60124   0.162  28.282  31.695 -0.1066  0.2044  0.0500
17213W        W60125   0.981  27.793  31.510  0.0566  0.3226 -0.1024
17214W        W60126   1.134  27.846   0.058  0.0895 -0.0084 -0.0188
17215W        W60127   0.369  27.746  30.313  0.2992 -0.0029  0.0420
17216W        W60128   0.523  26.939  31.751  0.5326  0.3779  0.0110
17217W        W60129   2.593  29.390  29.647 -0.2077  0.2182  0.0610
17218W        W60130   3.650  27.685  31.087 -0.1552  0.2864 -0.0452
17219W        W60131   3.793  27.067   0.596  0.0662 -0.0028 -0.1422
17220W        W60132   0.512  30.942  18.871  0.0823  0.0732 -0.2928
17221W        W60133   1.596  30.483  17.123  0.0362  0.2086 -0.0433
17222W        W60134   1.866  31.105  16.359 -0.0352 -0.2808  0.0254
17223W        W60135   2.374  31.985  17.289 -0.1589 -0.1168 -0.1941
17224W        W60136   0.927  30.383  16.291  0.1943 -0.2656 -0.3784
17225W        W60137   2.546  32.911  17.740 -0.1500  0.0159  0.3517
17226W        W60138   1.342  28.772  18.093 -0.0859 -0.0347  0.0419
17227W        W60139   1.983  32.874  17.395 -0.1043  0.0430 -0.1082
17228W        W60140   3.127  31.634  18.694 -0.3271 -0.0048  0.0159
17229W        W60141   2.883  31.213  16.858 -0.0261 -0.1084  0.3059
17230W        W60142   1.712  30.236  19.456 -0.2819 -0.0547 -0.0405
17231W        W60143  34.587  32.011  17.354  0.0908 -0.0558 -0.2686
17232W        W60144   3.008  30.125  16.220  0.2374 -0.0095  0.0158
17233W        W60145   0.729  29.810  17.656  0.0807 -0.1231  0.0280
17234W        W60146   2.599  31.105  19.766 -0.1346  0.3080 -0.2502
17235W        W60147   0.557  30.797  16.149 -0.0687 -0.3409 -0.1819
17236W        W60148   2.346  30.024  17.898  0.0097 -0.1490  0.0552
17237W        W60149   1.990  30.182  17.368  0.0024 -0.1607  0.3719
17238W        W60150   1.737  33.296  17.216 -0.0314  0.0023  0.0946
17239W        W60151   2.185  29.957  18.858  0.1824 -0.0873 -0.1618
17240W        W60152   2.268  29.564  18.300  0.0694 -0.1029  0.4160
17241W        W60153   2.744  32.380  16.009 -0.1192  0.0867  0.0610
17242W        W60154   0.848  29.951  16.594 -0.0390  0.0516 -0.0722
17243W        W60155   1.254  29.726  17.719 -0.3081 -0.0358 -0.0453
17244W        W60156   0.812  30.295  20.480  0.2787 -0.1995  0.1192
17245W        W60157   2.822  30.278  17.864  0.2566 -0.1412  0.4422
17246W        W60158   2.764  31.292  17.378  0.0030 -0.0797  0.0772
17247W        W60159   1.114  33.034  18.876 -0.1769 -0.3086  0.0751
17248W        W60160   3.107  32.074  18.419 -0.0734 -0.1874  0.2413
17249W        W60161   3.875  31.446  19.377 -0.0146 -0.1496  0.2237
17250W        W60162  33.816  31.559  17.611  0.0131  0.2830  0.4243
17251W        W60163   0.272  33.443  17.911 -0.1651  0.0153  0.1800
17252W        W60164   2.210  33.304  17.538 -0.1870 -0.0411 -0.3553
17253W        W60165   4.000  31.323  15.849  0.1225 -0.1678 -0.1115
17254W        W60166   2.508  33.107  17.144 -0.1868  0.1838  0.1172
17255W        W60167   2.048  34.438  19.280  0.0155 -0.0233  0.2211
17256W        W60168   0.399  33.294  17.410 -0.0543  0.4019  0.1421
17257W        W60169   2.605  32.092  19.289  0.2667  0.1644  0.2400
17258W        W60170   2.807  33.738  18.907 -0.0483  0.1365 -0.0742
17259W        W60171   2.304  31.644  18.381 -0.0838 -0.1493  0.2472
17260W        W60172   1.189  30.295  16.794  0.1732  0.3253  0.0579
17261W        W60173   0.464  33.245  16.874  0.0519  0.1845 -0.0268
17262W        W60174   2.628  32.229  17.654  0.1438  0.2707  0.0111
17263W        W60175   0.469  30.513  19.413  0.1694  0.2354 -0.2862
17264W        W60176   0.882  32.096  18.151 -0.0820  0.1789  0.2554
17265W        W60177   3.990  30.620  19.677  0.0523 -0.1105 -0.4400
17266W        W60178   0.805  32.931  16.589  0.0872  0.1050 -0.0398
17267W        W60179   2.772  30.336  16.929 -0.3338 -0.1306  0.1871
17268W        W60180   0.949  32.438  16.670  0.2536  0.0501 -0.1555
17269W        W60181   2.617  29.917  16.711  0.2060 -0.1631  0.2257
17270W        W60182   1.029  30.475  17.190 -0.1790 -0.0298 -0.3167
17271W        W60183   1.255  32.970  18.216 -0.0154  0.1502 -0.2323
17272W        W60184   1.296  30.054  18.780 -0.0235  0.2421  0.0415
17273W        W60185   3.292  32.077  17.116 -0.2089  0.0239 -0.0020
17274W        W60186   1.677  31.009  18.001 -0.0676 -0.1046 -0.0109
17275W        W60187   2.695  29.327  18.501  0.0169  0.2844 -0.2054
17276W        W60188   0.521  32.403  18.226 -0.2124 -0.1170  0.1444
17277W        W60189   0.663  31.174  16.441  0.2525  0.2595  0.0915
17278W        W60190   3.635  32.328  15.345  0.0556  0.0836  0.0718
17279W        W60191   2.919  33.354  16.687  0.0286  0.0488 -0.1050
17280W        W60192   2.989  32.758  15.788  0.1093  0.1805 -0.0375
17281W        W60193   0.458  31.031  17.523 -0.1035  0.0301  0.0670
17282W        W60194  34.593  31.029  20.560  0.2348  0.3283  0.4035
17283W        W60195  33.967  30.995  18.954 -0.1596 -0.1301 -0.0784
17284W        W60196  34.344  30.400  16.950 -0.1545  0.0529  0.2035
17285W        W60197   3.755  32.571  18.061 -0.0386  0.3989  0.0257
17286W        W60198  34.391  31.823  18.361 -0.0745 -0.3096  0.0095
17287W        W60199   4.810  28.808  16.932 -0.2234  0.0586  0.0796
17288W        W60200   1.715  31.705  19.139  0.2083  0.0927 -0.0767
17289W        W60201   2.377  32.530  18.016  0.0850 -0.0553  0.0354
17290W        W60202   2.402  30.771  16.790  0.0271 -0.0122 -0.2207
17291W        W60203   3.940  29.032  17.613 -0.0879  0.0004 -0.0111
17292W        W60204   2.249  28.712  18.202  0.2355 -0.3009  0.2509
17293W        W60205   1.911  31.876  17.503  0.0798  0.2467 -0.0145
17294W        W60206   2.001  30.809  18.889  0.5540 -0.0136 -0.0606
17295W        W60207   3.658  31.442  17.924 -0.2606  0.1290 -0.1036
17296W        W60208   2.057  31.565  18.819 -0.0393  0.0078 -0.4477
17297W        W60209   1.545  33.691  19.324 -0.3223 -0.2582 -0.2344
17298W        W60210   1.875  28.887  17.945  0.0828 -0.1085 -0.1930
17299W        W60211   2.910  32.268  18.835 -0.1115 -0.0985 -0.1466
17300W        W60212   0.581  32.456  16.383 -0.2879 -0.1139  0.0718
17301W        W60213  34.321  32.962  17.888 -0.0170  0.0633 -0.2550
17302W        W60214   0.001  31.251  17.391  0.0665 -0.2180  0.0924
17303W        W60215   0.652  30.333  17.510  0.2167 -0.1291  0.0285
17304W        W60216   1.860  32.865  19.266  0.0396 -0.1317  0.0043
17305W        W60217   3.253  29.895  18.005  0.0789 -0.4050  0.2118
17306W        W60218   0.030  29.676  18.847 -0.3558  0.1632 -0.2655
17307W        W60219   3.052  28.370  18.265 -0.2046 -0.2544  0.2240
17308W        W60220  34.351  32.611  16.821  0.0257 -0.2569 -0.2788
17309W        W60221   3.275  32.658  17.174  0.0210 -0.1845 -0.1346
17310W        W60222   4.326  29.690  16.610  0.0414 -0.2924  0.0551
17311W        W60223   2.877  32.757  16.962  0.1680 -0.1203 -0.2633
17312W        W60224  33.948  31.494  18.075  0.4025  0.1590 -0.3021
17313W        W60225   0.957  29.477  16.846  0.0564 -0.0732  0.0933
17314W        W60226   0.380  29.673  19.892  0.0217  0.3158  0.1636
17315W        W60227   0.890  29.286  18.847  0.1204  0.0926  0.0337
17316W        W60228   2.932  31.280  19.380  0.0134 -0.6279 -0.0892
17317W        W60229   1.565  28.184  16.820  0.0998  0.1350  0.1041
17318W        W60230   3.463  31.799  17.594  0.0132  0.0881  0.1876
17319W        W60231   2.166  30.642  17.245  0.2136 -0.4494 -0.0509
17320W        W60232  34.455  32.808  17.337  0.0255 -0.2090  0.0799
17321W        W60233   3.114  30.254  19.548 -0.2527  0.0718  0.1414
17322W        W60234   1.525  33.886  17.203 -0.0448 -0.1617 -0.1618
17323W        W60235   4.074  31.943  18.116 -0.0620 -0.2981 -0.0225
17324W        W60236   2.235  33.451  18.419  0.0725  0.3606  0.2615
17325W        W60237   0.701  29.831  18.155  0.0195 -0.1347  0.1025
17326W        W60238  33.980  30.449  16.542 -0.2436 -0.1577  0.0341
17327W        W60239   1.671  33.600  16.834 -0.1295  0.2290  0.1464
17328W        W60240   1.757  32.101  18.003 -0.0471  0.4155 -0.0474
17329W        W60241   2.436  29.753  17.157 -0.0066  0.2984  0.0043
17330W        W60242   3.015  33.771  17.981 -0.1275  0.2825  0.2506
17331W        W60243   2.043  31.327  18.003 -0.0909 -0.3302  0.2261
17332W        W60244   0.452  32.072  17.833  0.5149 -0.0889 -0.0578
17333W        W60245   2.670  30.356  19.292  0.0137 -0.1352  0.2183
17334W        W60246   0.927  31.129  18.205  0.2722  0.0305  0.1493
17335W        W60247   1.993  30.013  18.351  0.0337 -0.2980  0.0776
17336W        W60248   0.192  29.132  16.769 -0.0212  0.0101 -0.0845
17337W        W60249   2.906  33.016  18.043  0.3818 -0.2222  0.2528
17338W        W60250   1.171  32.875  16.994 -0.1182  0.1514 -0.1085
17339W        W60251   0.583  31.476  17.342 -0.1015 -0.4023  0.2463
17340W        W60252   2.508  33.393  17.994  0.1969  0.0661  0.0265
17341W        W60253   3.024  28.965  19.280 -0.3159  0.1571 -0.0174
17342W        W60254   0.399  30.579  19.987 -0.1755 -0.4475  0.3039
17343W        W60255   0.775  31.366  19.198  0.2300  0.0810  0.1456
17344W        W60256  34.582  31.332  16.852 -0.0807  0.1508  0.5212
17345W        W60257   1.116  32.233  19.293  0.1654 -0.1155  0.1350
17346W        W60258   2.928  30.766  19.534 -0.0825 -0.1120  0.1954
17347W        W60259   3.951  30.983  16.630 -0.1125 -0.0333 -0.0124
17348W        W60260   1.704  29.825  18.996 -0.0680 -0.1369 -0.1606
17349W        W60261   2.688  31.693  15.964  0.0339  0.0587 -0.1917
17350W        W60262   3.198  29.441  16.968 -0.3653 -0.0353  0.0620
17351W        W60263   3.100  29.311  16.517 -0.1496  0.1797 -0.3578
17352W        W60264   0.786  31.121  20.810 -0.1520 -0.0360  0.1934
17353W        W60265   1.840  32.473  19.785  0.0372  0.1351  0.0334
17354W        W60266   2.346  32.965  19.095 -0.2414 -0.0184 -0.0792
17355W        W60267   2.020  29.667  16.069 -0.1615 -0.0154  0.0303
17356W        W60268   3.192  31.542  17.094 -0.0593  0.4165  0.1308
17357W        W60269   0.955  32.114  18.651 -0.1112  0.2056  0.0642
17358W        W60270   4.152  31.951  19.386  0.0856 -0.0879 -0.1783
17359W        W60271   1.608  32.769  17.892 -0.4761  0.2816  0.0032
17360W        W60272   1.086  28.577  17.158 -0.1748 -0.1243 -0.1120
17361W        W60273   0.734  31.559  16.796 -0.2021 -0.1017  0.1449
17362W        W60274   2.342  29.283  17.142 -0.0871  0.1881 -0.0104
17363W        W60275  34.142  33.973  16.760  0.1042  0.0166 -0.0395
17364W        W60276   2.382  29.475  18.904 -0.0766 -0.4882  0.1846
17365W        W60277   3.020  30.244  18.389  0.0687  0.0672  0.0103
17366W        W60278   1.616  29.231  19.278  0.0802 -0.0801  0.0835
17367W        W60279   4.853  30.791  18.197  0.0436  0.2734 -0.0872
17368W        W60280   3.656  30.276  18.128  0.4243  0.1598  0.0405
17369W        W60281   1.813  31.681  18.345 -0.2026  0.1309  0.2480
17370W        W60282   1.045  31.503  16.347  0.2769 -0.2435 -0.2242
17371W        W60283   2.430  30.441  18.220 -0.1603  0.0772 -0.2643
17372W        W60284   0.984  30.629  18.138  0.0703  0.1478  0.2819
17373W        W60285   0.101  32.523  17.950  0.1887  0.3364  0.3218
17374W        W60286   1.659  31.158  19.657  0.1149 -0.0757  0.1112
17375W        W60287   2.881  31.952  16.811  0.3227  0.2870  0.0269
17376W        W60288   0.723  30.231  19.891 -0.1731 -0.0591 -0.4008
17377W        W60289   3.386  29.334  18.017  0.0804  0.0860  0.0202
17378W        W60290   2.705  33.331  17.544 -0.1306 -0.1316  0.1241
17379W        W60291   1.356  31.935  17.571 -0.0935  0.4102 -0.1744
17380W        W60292   1.122  29.397  18.349  0.2465  0.3627 -0.0066
17381W        W60293   2.514  32.472  18.467  0.4371 -0.1434  0.0556
17382W        W60294   2.402  32.578  16.441  0.1371  0.0862  0.1321
17383W        W60295   2.982  31.920  19.682 -0.0774  0.2057  0.0632
17384W        W60296   1.500  31.313  17.302  0.2274 -0.2872  0.0224
17385W        W60297   3.025  28.894  18.120  0.0555 -0.0330 -0.3236
17386W        W60298   0.260  34.391  18.279 -0.1964 -0.1350 -0.2145
17387W        W60299  34.353  30.870  16.655  0.1126  0.1208  0.1314
17388W        W60300   1.108  31.212  17.723 -0.2258 -0.0586 -0.0858
17389W        W60301   4.434  30.624  17.837 -0.1774  0.0310 -0.0236
17390W        W60302   4.167  31.287  17.015  0.0959 -0.1762  0.1308
17391W        W60303   1.187  29.581  19.575 -0.1318 -0.0641 -0.1001
17392W        W60304   2.282  30.207  16.908 -0.1829  0.3219  0.2558
17393W        W60305  34.206  32.726  18.637 -0.0887 -0.2154  0.1749
17394W        W60306   3.004  31.977  17.880 -0.0300  0.0032  0.0118
17395W        W60307   3.537  28.834  16.844 -0.0734 -0.0548  0.1001
17396W        W60308   2.052  32.993  18.684  0.0042  0.0106  0.2376
17397W        W60309   0.245  30.316  21.182  0.2512  0.1088  0.1860
17398W        W60310   1.041  31.212  16.737  0.1329  0.1070 -0.1194
17399W        W60311   3.199  30.737  18.481  0.0208 -0.0965  0.0308
17400W        W60312   1.966  31.454  17.091  0.1905 -0.1478  0.1316
17401W        W60313   1.141  33.235  17.699 -0.0479  0.3011 -0.0050
17402W        W60314   3.528  32.070  18.056 -0.0888  0.1228  0.0053
17403W        W60315   0.950  32.028  17.087 -0.1729  0.0671 -0.0462
17404W        W60316   0.243  31.597  17.010  0.0873  0.1704  0.4715
17405W        W60317   0.966  30.390  19.389  0.2267 -0.1080  0.1426
17406W        W60318   1.822  30.699  18.457 -0.1657 -0.1427  0.2289
17407W        W60319   2.406  30.583  17.773  0.1563 -0.3054 -0.1910
17408W        W60320   1.804  30.589  17.604  0.0413 -0.0428  0.0673
17409W        W60321   2.148  30.389  18.632 -0.1477  0.3056  0.0879
17410W        W60322   3.192  30.520  18.018  0.2176  0.0161 -0.1532
17411W        W60323   2.188  30.428  19.109  0.1417  0.1570 -0.1510
17412W        W60324   0.672  32.066  19.077  0.4361 -0.2220 -0.3185
17413W        W60325   1.139  28.936  16.750  0.1711  0.1920 -0.0143
17414W        W60326   4.369  33.220  17.983 -0.1204  0.0139 -0.1055
17415W        W60327   2.920  31.188  18.561 -0.1078  0.2858  0.0808
17416W        W60328  33.806  32.100  16.555 -0.2184  0.2369  0.2796
17417W        W60329  34.482  30.138  18.706  0.0110 -0.2402 -0.0221
17418W        W60330   1.546  31.918  17.063  0.2605 -0.0800  0.0864
17419W        W60331   0.928  30.234  18.590 -0.1258  0.5280  0.0584
17420W        W60332   1.351  31.355  19.208  0.1252 -0.2090  0.1626
17421W        W60333   2.028  33.289  16.680 -0.1531  0.1836 -0.2665
17422W        W60334   0.056  31.605  18.693 -0.4950  0.0399  0.1449
17423W        W60335   3.116  29.042  17.674  0.0152 -0.0278 -0.0633
17424W        W60336   3.228  32.468  16.130  0.2840  0.2523  0.1723
17425W        W60337   3.441  29.150  17.270  0.3495  0.0936  0.0773
17426W        W60338   3.846  30.169  19.438  0.0921  0.0292 -0.0672
17427W        W60339   2.604  30.429  16.488 -0.0198 -0.2148 -0.0826
17428W        W60340   4.157  29.988  19.114  0.0337 -0.0161  0.0897
17429W        W60341   0.966  29.365  17.873 -0.1863 -0.1324  0.2806
17430W        W60342   2.157  33.539  17.080 -0.2270  0.0557 -0.0144
17431W        W60343  34.502  30.397  19.532 -0.0505 -0.0033  0.1338
17432W        W60344   3.126  32.755  20.385 -0.1200  0.0271  0.0723
17433W        W60345   0.707  30.490  18.925 -0.2425  0.2697  0.0244
17434W        W60346   2.479  30.272  17.399  0.2517 -0.0188  0.2194
17435W        W60347   0.712  28.601  16.702  0.3311 -0.0274  0.0242
17436W        W60348   2.477  29.516  17.621 -0.3456 -0.1909  0.0039
17437W        W60349   2.054  32.374  17.639  0.1496  0.0653  0.0292
17438W        W60350   0.702  32.428  17.255 -0.0414  0.1706 -0.0062
17439W        W60351   1.841  31.183  19.121 -0.2827  0.1730 -0.0021
17440W        W60352   0.575  31.638  18.836  0.0301  0.3615  0.1086
17441W        W60353   2.664  30.811  17.286  0.1925 -0.0303  0.0268
17442W        W60354   2.397  31.069  17.715 -0.0698  0.0251  0.0294
17443W        W60355   1.055  31.259  18.752  0.3346 -0.2141 -0.2929
17444W        W60356   0.816  29.903  19.534  0.3660  0.0865 -0.1399
17445W        W60357   2.853  32.329  17.215  0.1753  0.0807  0.0849
17446W        W60358   2.960  30.412  17.380  0.1205  0.0873 -0.0870
17447W        W60359   2.905  29.422  17.850 -0.1448  0.3055  0.0833
17448W        W60360   2.164  30.843  21.072  0.2583  0.0996  0.2514
17449W        W60361   1.711  30.377  18.939  0.1055  0.0358  0.2236
17450W        W60362   1.285  30.054  19.783 -0.0405 -0.1547 -0.0544
17451W        W60363   2.931  33.481  19.639 -0.0642 -0.2312  0.0358
17452W        W60364   3.409  31.019  16.657  0.0040 -0.0464  0.2243
17453W        W60365   2.468  30.851  18.577 -0.2170  0.1713 -0.1838
17454W        W60366   3.933  31.931  16.410  0.0858  0.0597 -0.3124
17455W        W60367   2.278  31.243  16.660 -0.0395  0.0575 -0.0622
17456W        W60368   0.496  30.803  18.133 -0.1030  0.2374 -0.3814
17457W        W60369   2.678  30.024  19.643 -0.0494  0.0997 -0.2374
17458W        W60370   1.954  29.267  16.359 -0.2891 -0.2244 -0.1022
17459W        W60371   2.136  29.962  19.372 -0.0102 -0.1520 -0.0269
17460W        W60372   2.520  33.651  16.677  0.0334 -0.0970  0.1185
17461W        W60373   2.622  32.089  18.181  0.0330  0.0285  0.2790
17462W        W60374   3.282  30.223  16.936  0.0966  0.2223 -0.1899
17463W        W60375  34.282  29.514  18.704  0.0736 -0.2494  0.0292
17464W        W60376   1.092  32.141  20.237  0.0204 -0.2471 -0.0838
17465W        W60377  34.637  30.819  17.033 -0.0399  0.2391 -0.3462
17466W        W60378   2.314  31.124  17.178  0.3776  0.0270  0.0324
17467W        W60379   1.589  31.363  18.721  0.0318 -0.3112 -0.1643
17468W        W60380   1.518  32.099  18.669 -0.4015  0.2252 -0.2571
17469W        W60381   2.123  29.559  16.736 -0.0181  0.2544  0.2351
17470W        W60382   3.491  30.399  20.969  0.0598  0.0552  0.0135
17471W        W60383   0.550  32.111  16.813 -0.0025 -0.0821 -0.0459
17472W        W60384   1.765  28.811  17.417 -0.1789  0.1691 -0.0666
17473W        W60385   1.891  31.623  19.749 -0.0214  0.1686  0.0496
17474W        W60386   0.282  31.325  19.062  0.0716 -0.1596  0.2903
17475W        W60387   2.350  33.212  19.900 -0.0101  0.2772  0.0141
17476W        W60388   2.429  29.106  19.283  0.0712 -0.1091 -0.1481
17477W        W60389   3.986  31.474  18.344 -0.0353 -0.2050  0.0048
17478W        W60390   1.392  30.894  19.344 -0.3870 -0.0513  0.2534
17479W        W60391   3.626  31.719  17.027 -0.0854  0.0787  0.2556
17480W        W60392   2.183  31.236  19.535  0.1329  0.1173  0.1893
17481W        W60393   1.497  30.524  18.039  0.1111  0.0613 -0.0713
17482W        W60394   2.087  32.348  19.335 -0.3529 -0.5540  0.1616
17483W        W60395   4.783  31.681  16.923  0.0333  0.0070 -0.1196
17484W        W60396   1.596  32.401  17.459 -0.0919 -0.2735 -0.1318
17485W        W60397   0.046  29.855  20.513  0.2652  0.2716 -0.2201
17486W        W60398   0.923  30.856  19.204  0.1033 -0.0819 -0.1158
17487W        W60399   3.294  32.421  17.757 -0.1728 -0.1926  0.1366
17488W        W60400   2.238  28.498  15.917  0.0420 -0.5334  0.1318
17489W        W60401   1.674  32.757  17.049  0.0939  0.1370  0.0612
17490W        W60402   0.003  32.931  18.673  0.1472 -0.0510  0.0338
17491W        W60403  34.360  31.318  18.318 -0.1539  0.0265  0.2433
17492W        W60404   1.485  32.260  16.631 -0.2590  0.0511 -0.1165
17493W        W60405   2.265  31.897  17.915  0.0224 -0.1245  0.0213
17494W        W60406   1.416  32.913  17.470 -0.2113  0.0235 -0.2490
17495W        W60407   3.197  34.512  18.537  0.0015 -0.3708 -0.0855
17496W        W60408   2.733  28.823  15.923  0.0285 -0.1984 -0.0072
17497W        W60409   0.946  32.664  18.061 -0.1829 -0.0461 -0.2861
17498W        W60410   0.105  32.114  16.601  0.2014  0.0198  0.1205
17499W        W60411   1.979  32.349  17.139  0.0823  0.3163  0.0039
17500W        W60412   1.242  32.435  17.189 -0.0973 -0.2145 -0.0880
17501W        W60413   3.049  31.887  19.154  0.0058  0.0057 -0.1736
17502W        W60414   3.133  28.487  16.713  0.1064  0.0727 -0.3630
17503W        W60415   4.755  29.899  17.317  0.1645 -0.1748  0.0400
17504W        W60416   3.969  29.034  16.980  0.0468  0.0731  0.1808
17505W        W60417   2.868  32.474  18.021 -0.2263  0.0904  0.1372
17506W        W60418   1.880  29.786  17.092 -0.0333  0.1836 -0.2804
17507W        W60419   2.067  30.000  16.497  0.2685  0.0350 -0.0007
17508W        W60420   1.326  32.249  19.802 -0.2619 -0.2953 -0.3070
17509W        W60421   3.519  29.915  19.745 -0.0442 -0.2014  0.1818
17510W        W60422  34.348  31.785  18.836  0.1666  0.1439 -0.1263
17511W        W60423   2.995  33.315  18.510 -0.0249  0.1518 -0.1097
17512W        W60424   0.097  29.610  16.621 -0.0943  0.2515  0.0785
17513W        W60425   3.184  31.035  17.152 -0.0583  0.0334 -0.1242
17514W        W60426   3.241  29.833  19.337  0.0957 -0.1132  0.2924
17515W        W60427   1.891  30.969  16.910 -0.0313  0.4187 -0.0713
17516W        W60428   3.083  30.858  17.616 -0.2421 -0.2670 -0.1931
17517W        W60429   1.554  32.905  18.669 -0.0291 -0.3461 -0.2290
17518W        W60430   2.074  33.996  17.886 -0.1842 -0.1810 -0.1863
17519W        W60431   1.852  32.508  18.800  0.0095 -0.2791  0.2424
17520W        W60432   1.087  31.570  17.207 -0.0359 -0.0843 -0.2012
17521W        W60433   3.024  28.966  16.879  0.0771 -0.2301 -0.2521
17522W        W60434   0.921  30.824  18.605 -0.1277  0.1149  0.1539
17523W        W60435   2.742  29.814  18.138  0.1314 -0.0620 -0.1379
17524W        W60436   0.569  29.333  16.497 -0.0850  0.0215 -0.1012
17525W        W60437   3.958  30.191  18.590  0.1632 -0.2821  0.2710
17526W        W60438   2.391  30.834  19.359  0.0202  0.0314 -0.0449
17527W        W60439   0.421  30.084  18.627  0.3972  0.0732  0.0672
17528W        W60440   0.864  32.111  17.579  0.0682  0.2094 -0.1095
17529W        W60441   3.114  31.108  18.045  0.0221  0.1044 -0.2866
17530W        W60442   1.536  31.322  16.783 -0.0850  0.1140  0.0069
17531W        W60443   4.141  32.365  19.621  0.0627 -0.1176 -0.0473
17532W        W60444   0.275  30.097  17.792 -0.2528  0.1374 -0.0855
17533W        W60445   2.687  29.389  16.815  0.1873 -0.2518 -0.1421
17534W        W60446   0.414  31.152  16.978 -0.2171  0.0264 -0.0525
17535W        W60447   0.537  31.247  18.451 -0.3072 -0.0537  0.2666
17536W        W60448   2.747  32.568  19.363  0.0790  0.0994  0.3284
17537W        W60449  34.567  27.558  16.312  0.0613 -0.1363 -0.1798
17538W        W60450   3.663  30.575  16.784 -0.2457  0.1971 -0.1765
17539W        W60451   3.879  31.283  18.824 -0.1562 -0.3081  0.1304
17540W        W60452   0.988  33.392  16.724  0.0513 -0.2345  0.2149
17541W        W60453   3.484  31.178  16.124 -0.4747  0.0413 -0.1092
17542W        W60454   3.651  33.077  17.136  0.2665  0.0464 -0.0308
17543W        W60455  34.184  30.444  18.073 -0.2400 -0.1869 -0.0295
17544W        W60456   1.653  31.988  20.017  0.3060  0.1400  0.1325
17545W        W60457   2.547  33.017  16.644  0.1771  0.1077 -0.1671
17546W        W60458   2.924  29.887  17.638 -0.0202  0.2116  0.3394
17547W        W60459   2.099  31.168  18.576 -0.0987  0.4327  0.0888
17548W        W60460   0.763  33.004  17.220  0.4275 -0.0021 -0.0844
17549W        W60461   3.652  29.381  18.433  0.2818  0.1864  0.0958
17550W        W60462   2.864  30.907  20.260 -0.3426 -0.0570 -0.0266
17551W        W60463   0.311  31.526  16.519 -0.0582 -0.2174  0.0092
17552W        W60464   2.701  29.175  19.775  0.2322  0.2181  0.2523
17553W        W60465   2.121  32.042  19.737  0.3244 -0.0228  0.2198
17554W        W60466   0.034  30.855  19.725 -0.0041  0.1455  0.0702
17555W        W60467  34.552  29.823  17.509 -0.0571 -0.1084 -0.1386
17556W        W60468   1.226  31.746  18.885  0.0034  0.2806 -0.0703
17557W        W60469   2.241  31.506  17.503  0.4906 -0.1097  0.0439
17558W        W60470   0.846  34.099  17.654  0.0609  0.1977  0.1588
17559W        W60471   4.484  33.478  17.142 -0.1357 -0.0350 -0.1110
17560W        W60472   2.168  30.848  18.138 -0.0067  0.0233 -0.1716
17561W        W60473   2.456  32.586  17.344  0.2282 -0.2485  0.2069
17562W        W60474   2.615  29.144  16.388  0.0446 -0.2393  0.1557
17563W        W60475   3.919  28.778  16.495  0.0399  0.0270  0.0455
17564W        W60476   2.656  29.046  17.493 -0.2336  0.3403  0.4084
17565W        W60477  34.530  29.948  16.963  0.1765  0.1792  0.0422
17566W        W60478  34.239  29.596  16.182  0.1945  0.2275  0.0942
17567W        W60479   1.994  32.204  16.512  0.0670 -0.0184 -0.1532
17568W        W60480   1.337  31.947  18.139  0.0256  0.1140 -0.1759
17569W        W60481   2.120  29.406  20.269  0.0658  0.3101 -0.0159
17570W        W60482   0.188  30.884  19.264  0.2523 -0.1993  0.3304
17571W        W60483   1.309  32.376  17.866 -0.0132  0.1917  0.0419
17572W        W60484   0.983  31.149  15.945 -0.3195 -0.1176 -0.1089
17573W        W60485   4.295  31.669  16.749  0.0839  0.0631  0.0575
17574W        W60486   0.782  29.684  18.628 -0.0167 -0.2303 -0.0562
17575W        W60487   0.041  30.331  17.188 -0.1347 -0.1268  0.2146
17576W        W60488   2.182  32.797  16.952 -0.1102 -0.2213  0.0720
17577W        W60489   1.894  32.726  16.573  0.0601  0.3374  0.1502
17578W        W60490   1.198  27.951  17.058 -0.3782  0.2004  0.0952
17579W        W60491   4.063  33.296  19.490 -0.1784  0.0742 -0.3565
17580W        W60492  34.290  31.288  16.422  0.0742  0.0937  0.0192
17581W        W60493   2.039  30.372  20.211  0.0883  0.2334  0.0011
17582W        W60494   2.138  29.901  19.978 -0.0110  0.4100 -0.1464
17583W        W60495  34.369  30.022  16.470  0.0962 -0.1348  0.4775
17584W        W60496   1.344  30.481  18.494  0.1657  0.1459  0.0880
17585W        W60497   3.392  33.580  17.255 -0.0115  0.1464 -0.1864
17586W        W60498   2.539  31.578  16.992  0.0303 -0.1690  0.2668
17587W        W60499   1.012  31.659  18.441  0.0998 -0.0068  0.3817
17588W        W60500   3.182  32.798  19.186 -0.3145  0.0923  0.6626
17589W        W60501   0.584  30.950  19.581 -0.0893  0.0718 -0.0340
17590W        W60502   3.401  30.591  17.225 -0.2929  0.0417  0.0588
17591W        W60503   1.436  31.691  19.644 -0.4503  0.0686  0.0611
17592W        W60504   2.420  32.292  16.872 -0.2398  0.0693 -0.1687
17593W        W60505   4.491  28.903  18.400 -0.0258  0.2146 -0.1264
17594W        W60506   0.950  30.773  19.822 -0.0624 -0.0127 -0.0629
17595W        W60507   0.159  28.959  18.936 -0.1964 -0.1061  0.1911
17596W        W60508   1.013  31.735  19.436 -0.1260  0.0330  0.0122
17597W        W60509   2.573  29.929  18.547  0.0294 -0.1032 -0.2962
17598W        W60510   1.489  29.273  17.722  0.0924  0.0384 -0.2233
17599W        W60511   3.050  30.719  16.837 -0.0931  0.2702 -0.0546
17600W        W60512   1.522  32.474  18.378 -0.1691 -0.0735  0.2416
17601W        W60513   0.125  31.084  18.582  0.1823  0.0543 -0.2191
17602W        W60514   1.619  30.668  16.483 -0.3714 -0.2549 -0.1809
17603W        W60515   1.669  31.488  17.702 -0.2579 -0.1556  0.1921
17604W        W60516   2.045  32.186  18.399 -0.0515 -0.3152 -0.4516
17605W        W60517   3.929  31.776  19.017 -0.1200 -0.3006 -0.1517
17606W        W60518   1.376  30.837  16.893  0.2524 -0.1279  0.2166
17607W        W60519   3.989  30.939  17.329  0.2239 -0.1071 -0.0112
17608W        W60520   2.672  33.095  19.505  0.0461 -0.0096  0.0904
17609W        W60521   3.664  33.310  19.877 -0.1409 -0.4523 -0.0343
17610W        W60522   1.997  32.046  18.932  0.4029 -0.1549 -0.0237
17611W        W60523   2.659  31.630  17.756 -0.1290 -0.3697 -0.1180
17612W        W60524   0.510  28.567  19.000 -0.0798 -0.1312  0.0879
17613W        W60525   1.925  31.104  17.512  0.1831 -0.0078  0.3450
17614W        W60526   1.430  31.432  18.177  0.0160  0.0798 -0.0586
17615W        W60527   2.801  30.765  18.060 -0.0525 -0.0770  0.2690
17616W        W60528   0.830  30.636  16.771  0.3530 -0.3452  0.0190
17617W        W60529   1.668  29.699  16.433 -0.0357 -0.0966 -0.0171
17618W        W60530   1.644  32.170  19.349  0.3628 -0.0879  0.3940
17619W        W60531   2.415  32.457  18.980 -0.1993  0.1513  0.2632
17620W        W60532   0.106  32.090  21.363  0.0372  0.0746  0.1626
17621W        W60533   1.733  30.078  19.939  0.2053 -0.1718  0.0432
17622W        W60534   2.641  29.937  19.118 -0.4297  0.1436  0.3584
17623W        W60535   2.866  29.889  21.135 -0.1226  0.2572 -0.0019
17624W        W60536  34.243  30.683  20.351 -0.1106 -0.0333 -0.3096
17625W        W60537   2.733  33.130  20.593  0.0379 -0.0015 -0.1320
17626W        W60538   1.476  29.876  22.174  0.4018  0.0784 -0.4039
17627W        W60539   2.906  32.144  22.023  0.0638 -0.2697  0.1580
17628W        W60540   2.905  33.170  21.932 -0.2065 -0.0666  0.0408
17629W        W60541   1.275  30.024  19.298  0.0271 -0.1011 -0.1171
17630W        W60542   1.899  30.671  21.837  0.0662  0.2332  0.3302
17631W        W60543   2.021  33.119  21.342  0.0299  0.0101  0.1966
17632W        W60544   1.953  30.160  21.930 -0.0819 -0.1367  0.0884
17633W        W60545   0.625  30.022  21.968  0.0239  0.2096  0.0042
17634W        W60546   3.470  30.683  23.066 -0.2536  0.0315  0.0853
17635W        W60547  33.870  30.625  19.430 -0.1191  0.3077  0.1143
17636W        W60548   1.175  31.347  21.908 -0.0440  0.2243  0.0070
17637W        W60549   1.591  29.495  21.017 -0.0287  0.3423  0.2674
17638W        W60550   0.717  32.553  20.053  0.1275 -0.1844  0.0953
17639W        W60551   0.434  31.068  23.611  0.1340 -0.2229  0.1202
17640W        W60552   0.942  30.433  23.697 -0.1269  0.3265 -0.2106
17641W        W60553   1.547  31.532  20.133  0.0084 -0.1076 -0.0601
17642W        W60554   0.060  30.459  20.566 -0.3503 -0.0159  0.2523
17643W        W60555  34.377  30.748  19.208  0.1141 -0.0512 -0.3690
17644W        W60556   0.796  31.536  22.686 -0.0736 -0.0185  0.1433
17645W        W60557   2.673  30.823  22.448 -0.0990 -0.1384  0.0322
17646W        W60558   4.148  31.827  22.620  0.0593  0.2199 -0.1397
17647W        W60559   1.310  32.987  20.699 -0.1050 -0.0243 -0.2580
17648W        W60560   2.793  31.647  21.803 -0.1571 -0.0664  0.0553
17649W        W60561   2.374  31.364  23.522 -0.0240 -0.0374  0.1549
17650W        W60562  33.725  32.822  20.479 -0.2334 -0.0904  0.0953
17651W        W60563  32.872  33.072  20.597  0.1222 -0.1029 -0.0658
17652W        W60564   1.143  31.695  22.263  0.2511  0.1959 -0.0580
17653W        W60565   3.619  32.507  22.232  0.2950  0.0934  0.0126
17654W        W60566   2.679  32.130  23.140 -0.0891 -0.0736 -0.1775
17655W        W60567   0.830  32.268  22.926 -0.5911 -0.1499  0.3886
17656W        W60568   0.281  32.152  20.479 -0.4253 -0.2806  0.0185
17657W        W60569   1.807  31.259  22.711 -0.0023  0.0315 -0.0381
17658W        W60570  34.467  32.207  22.404 -0.1313  0.0453 -0.0444
17659W        W60571   1.585  30.396  22.270 -0.4026  0.0168 -0.0095
17660W        W60572   1.087  30.573  20.201  0.2211 -0.0991 -0.0231
17661W        W60573   2.425  30.903  20.488  0.1816  0.0002 -0.2320
17662W        W60574   2.211  31.209  22.402 -0.3201 -0.0973 -0.2232
17663W        W60575   1.229  31.574  24.066  0.2437 -0.4762 -0.0665
17664W        W60576  33.525  32.104  21.248 -0.1433  0.1695 -0.0458
17665W        W60577   2.628  30.669  22.914 -0.0597 -0.0304 -0.3900
17666W        W60578   0.490  31.807  19.479 -0.0995  0.0991 -0.2143
17667W        W60579   3.318  29.466  20.805  0.3225  0.0703 -0.0479
17668W        W60580   0.229  31.374  20.927  0.0706  0.3408  0.2501
17669W        W60581   2.363  30.709  20.012  0.1512  0.0462 -0.0059
17670W        W60582   1.829  29.813  22.863 -0.2009  0.2533 -0.1561
17671W        W60583   1.364  33.657  20.147 -0.1295  0.0012 -0.2035
17672W        W60584   1.607  30.917  20.901 -0.0665  0.3336  0.1298
17673W        W60585   3.674  31.597  23.031 -0.1275  0.2899 -0.0143
17674W        W60586   0.699  30.723  21.405  0.0621 -0.1126 -0.2183
17675W        W60587   2.734  31.300  22.232 -0.0691  0.1275  0.1391
17676W        W60588   0.974  31.924  21.788 -0.0199  0.3120  0.0526
17677W        W60589  34.331  29.653  20.770  0.3729  0.0646 -0.1314
17678W        W60590   4.306  32.196  18.995 -0.0310 -0.1103 -0.0019
17679W        W60591   3.238  33.243  20.514 -0.1110 -0.3426 -0.0142
17680W        W60592   3.443  32.200  20.787 -0.0549 -0.2087  0.1482
17681W        W60593   0.537  31.418  20.463  0.2633  0.3700 -0.3334
17682W        W60594  33.876  31.430  22.985 -0.5043  0.0728 -0.1692
17683W        W60595  34.524  30.515  23.301 -0.1935 -0.1214 -0.0444
17684W        W60596   1.160  29.143  20.357 -0.5130 -0.1669  0.1444
17685W        W60597   4.062  31.569  23.352  0.0975  0.0200  0.1820
17686W        W60598  34.652  31.865  23.875  0.0080  0.5303 -0.0245
17687W        W60599   2.378  30.893  21.964 -0.0464  0.1400 -0.0272
17688W        W60600  34.140  30.937  22.069  0.0756  0.2532 -0.0374
17689W        W60601   2.085  31.888  20.638 -0.0077  0.1348 -0.3241
17690W        W60602   3.313  30.912  19.155  0.0073 -0.1757 -0.1196
17691W        W60603   3.021  28.179  23.032 -0.2363  0.0998 -0.0194
17692W        W60604   1.546  30.369  21.804  0.0662  0.0165  0.0471
17693W        W60605   0.083  31.675  20.554  0.1192  0.0671  0.2812
17694W        W60606   0.398  30.141  20.757 -0.2081  0.0701  0.3897
17695W        W60607   3.198  30.565  23.856 -0.1171 -0.0053 -0.0814
17696W        W60608   4.192  31.383  19.774 -0.0911 -0.3242  0.1172
17697W        W60609  32.930  32.597  22.038  0.0058 -0.1096 -0.0877
17698W        W60610  34.633  31.021  23.298  0.1916 -0.1091  0.0138
17699W        W60611   2.369  31.561  22.921 -0.0556  0.0709  0.2822
17700W        W60612   0.700  31.418  19.773  0.2055 -0.2522  0.0363
17701W        W60613  34.486  30.490  21.315  0.1337 -0.2727  0.1160
17702W        W60614  34.435  31.973  20.107 -0.2519  0.0809 -0.1035
17703W        W60615   0.215  30.805  21.463 -0.1622 -0.1224  0.1020
17704W        W60616   1.458  32.306  20.821  0.2990  0.0270 -0.1693
17705W        W60617   3.577  30.038  19.031 -0.1977 -0.1012 -0.2374
17706W        W60618   2.002  29.627  23.798 -0.1873  0.1225  0.3103
17707W        W60619   1.423  28.808  21.153  0.2250 -0.2283 -0.0332
17708W        W60620  34.341  31.579  20.374  0.0816  0.2183 -0.2352
17709W        W60621   3.249  31.868  21.933  0.1361  0.0224  0.1749
17710W        W60622   3.322  30.568  20.452  0.0458 -0.0953 -0.0160
17711W        W60623   3.778  32.273  19.233  0.1706  0.2903 -0.0077
17712W        W60624  33.703  31.578  22.503 -0.2019 -0.0665  0.3679
17713W        W60625   0.257  31.280  21.723  0.2007  0.2589 -0.2061
17714W        W60626   0.828  30.965  22.719 -0.0089 -0.3956  0.3066
17715W        W60627   0.608  29.701  21.078  0.0166  0.0308 -0.1729
17716W        W60628   1.966  32.327  23.365  0.2028 -0.0492  0.2905
17717W        W60629  33.834  29.799  20.417 -0.1951 -0.1065  0.1801
17718W        W60630   3.276  30.858  21.281  0.3057 -0.0091  0.5375
17719W        W60631   1.053  31.631  20.090 -0.0280 -0.2983 -0.3494
17720W        W60632  33.166  31.850  21.497  0.2266  0.0000  0.4798
17721W        W60633   2.205  31.153  23.100  0.1208  0.3681  0.1938
17722W        W60634   2.699  32.733  19.999  0.2095 -0.2233  0.1498
17723W        W60635   2.968  33.489  21.506  0.0457 -0.1540  0.0038
17724W        W60636   2.393  33.689  21.216  0.2216  0.2237 -0.0752
17725W        W60637   0.754  29.358  22.697 -0.0407 -0.2218 -0.2281
17726W        W60638   1.632  29.946  21.183  0.3306 -0.2140 -0.3686
17727W        W60639   1.619  33.301  21.730  0.1276 -0.0890  0.2724
17728W        W60640   1.945  31.738  21.558 -0.2095 -0.0878 -0.2850
17729W        W60641   2.131  29.598  21.867 -0.0436  0.4280 -0.0428
17730W        W60642   4.302  33.273  21.972 -0.1750  0.0991 -0.1174
17731W        W60643   2.714  33.313  21.090 -0.2885  0.2481  0.0616
17732W        W60644   0.415  31.180  22.939  0.1599 -0.0206 -0.1045
17733W        W60645   3.014  30.826  20.801 -0.0650 -0.0491 -0.0669
17734W        W60646   4.178  31.982  21.706 -0.3423  0.3710 -0.0666
17735W        W60647   2.113  30.570  20.619  0.0556  0.0885  0.1154
17736W        W60648   0.221  29.415  19.417  0.0128  0.0236  0.0135
17737W        W60649   2.081  33.433  20.983  0.2518  0.0104  0.3022
17738W        W60650  34.423  31.840  19.320 -0.0360  0.1067 -0.1924
17739W        W60651  33.724  32.424  19.806 -0.2361 -0.3103 -0.1582
17740W        W60652   3.126  32.519  21.275  0.1684  0.2387 -0.3639
17741W        W60653   3.851  28.861  22.561  0.0124  0.1534 -0.2411
17742W        W60654   0.985  31.108  24.138  0.1299  0.2231 -0.0260
17743W        W60655   1.299  30.608  23.976  0.2114 -0.0738 -0.4074
17744W        W60656   1.258  30.250  21.226  0.1713  0.2508 -0.0414
17745W        W60657  34.645  31.860  23.324 -0.3965 -0.1672  0.1849
17746W        W60658   3.147  30.400  22.014 -0.1286 -0.4700 -0.1468
17747W        W60659   3.219  30.889  19.903 -0.0251  0.2679 -0.2399
17748W        W60660   1.195  32.270  22.072  0.0591  0.3234 -0.2119
17749W        W60661   2.998  31.625  20.458  0.1797  0.1886 -0.2853
17750W        W60662   1.346  30.527  19.658  0.3764  0.0722  0.4164
17751W        W60663   2.320  30.386  19.630  0.0406  0.6786 -0.4207
17752W        W60664  34.122  31.747  24.297  0.1530  0.2424 -0.0751
17753W        W60665   3.699  32.412  21.201  0.0764 -0.1728 -0.5230
17754W        W60666  34.612  31.956  22.831 -0.1821 -0.3098 -0.2346
17755W        W60667   2.334  31.236  19.036 -0.2294 -0.1194  0.0712
17756W        W60668   2.964  32.131  20.433 -0.0735  0.1246 -0.0904
17757W        W60669  33.824  31.809  21.581  0.1262 -0.0205  0.1974
17758W        W60670   2.727  32.031  24.888  0.4403  0.4431  0.0243
17759W        W60671   3.521  32.687  20.793 -0.1027  0.0861  0.2722
17760W        W60672   1.084  29.346  23.103  0.2650  0.0263  0.3843
17761W        W60673   1.513  30.906  18.851  0.2194  0.3994 -0.0181
17762W        W60674   1.327  29.289  21.482  0.1302 -0.4956 -0.1220
17763W        W60675   0.019  32.763  19.665  0.2380 -0.1162  0.0881
17764W        W60676   1.858  30.007  24.459 -0.1310 -0.2153  0.0130
17765W        W60677   1.162  30.154  23.264 -0.0829 -0.0003  0.2266
17766W        W60678   0.717  29.625  25.088  0.2047 -0.0630  0.0031
17767W        W60679   2.933  30.027  23.556  0.1155 -0.0547  0.1166
17768W        W60680   3.623  32.335  19.799  0.3942 -0.0633 -0.3136
17769W        W60681   1.263  31.640  21.421  0.3229  0.4017 -0.2463
17770W        W60682   0.920  29.984  20.817 -0.0547  0.0886  0.2478
17771W        W60683   3.333  30.135  24.031 -0.0398  0.2959 -0.1702
17772W        W60684   1.887  31.121  22.083 -0.1357  0.2782 -0.2181
17773W        W60685   0.772  31.468  21.636 -0.2821 -0.3381 -0.1831
17774W        W60686   2.472  31.851  24.031  0.0955 -0.1209 -0.0274
17775W        W60687   2.424  32.236  20.706 -0.1140 -0.1509 -0.4606
17776W        W60688   1.711  30.768  23.073  0.0186 -0.0464  0.0387
17777W        W60689   1.816  29.008  21.491  0.1485  0.3494  0.1990
17778W        W60690   1.106  34.176  20.887  0.1272  0.0446  0.1844
17779W        W60691   2.593  31.624  19.692  0.0635 -0.1473  0.0613
17780W        W60692   1.709  30.302  20.795 -0.0563  0.2469  0.1436
17781W        W60693   2.463  31.807  21.390  0.1925  0.0045  0.3533
17782W        W60694   0.167  31.939  19.089 -0.0123  0.1400 -0.0534
17783W        W60695   2.475  31.785  22.216 -0.1851 -0.0829 -0.3728
17784W        W60696   0.337  32.827  20.186 -0.1095  0.1422  0.0914
17785W        W60697   3.393  30.223  22.556 -0.1056 -0.2222  0.1310
17786W        W60698   0.229  32.514  21.858 -0.2360 -0.2593  0.2171
17787W        W60699   2.299  30.647  21.549 -0.2158 -0.0574  0.1913
17788W        W60700  33.423  32.435  20.312  0.1322  0.2197 -0.1868
17789W        W60701   2.898  30.098  21.613  0.3377 -0.0032 -0.1571
17790W        W60702   4.639  30.801  20.084  0.1680  0.1402 -0.3973
17791W        W60703   1.178  30.647  22.396  0.3121  0.3023 -0.3353
17792W        W60704   0.738  29.754  23.130 -0.3190 -0.1561 -0.1097
17793W        W60705  33.569  31.854  22.019 -0.2039 -0.0902 -0.1565
17794W        W60706   1.287  31.282  21.012  0.0835  0.1935 -0.0245
17795W        W60707   2.888  30.639  21.581 -0.0549 -0.1942 -0.2688
17796W        W60708   1.658  31.813  21.010 -0.0784  0.4224  0.0252
17797W        W60709   2.748  31.700  23.628  0.0504  0.0700  0.2643
17798W        W60710   1.264  30.078  20.271 -0.1102 -0.0020 -0.0839
17799W        W60711   3.654  31.906  23.464  0.1312 -0.1641 -0.2359
17800W        W60712   2.101  29.899  21.386 -0.2451 -0.1791  0.0435
17801W        W60713   0.473  31.815  20.817  0.2458 -0.0753 -0.2809
17802W        W60714   2.534  32.386  21.184 -0.0158 -0.0033  0.1980
17803W        W60715   0.771  31.031  21.784 -0.1897  0.2664 -0.1348
17804W        W60716   0.714  31.901  20.406 -0.0986 -0.0751 -0.0306
17805W        W60717   0.010  31.222  22.367 -0.0584  0.3035 -0.1459
17806W        W60718   2.886  32.072  21.519 -0.1851 -0.0933 -0.2683
17807W        W60719   1.662  30.279  23.099 -0.0747  0.3629  0.1535
17808W        W60720   0.215  30.846  22.039  0.1017  0.0365  0.3781
17809W        W60721   2.058  29.151  22.193 -0.0294  0.5886 -0.3623
17810W        W60722   3.006  30.897  22.035 -0.2635  0.1971 -0.1171
17811W        W60723   1.530  31.276  23.104 -0.0711 -0.3374 -0.0047
17812W        W60724   0.084  30.417  22.769  0.2056  0.0261 -0.1190
17813W        W60725   1.815  28.799  22.744 -0.1271  0.0066  0.1241
17814W        W60726   3.663  31.363  20.004  0.0306 -0.0868  0.1001
17815W        W60727   2.010  32.656  23.724  0.3133  0.0314 -0.1809
17816W        W60728   0.750  30.530  20.881 -0.0959 -0.0025  0.1886
17817W        W60729  33.184  31.303  21.166 -0.1006 -0.2157 -0.0012
17818W        W60730   0.860  31.089  20.207 -0.0627  0.0261  0.3063
17819W        W60731   1.338  29.750  23.006  0.1826  0.1041  0.1402
17820W        W60732   1.671  32.300  21.874 -0.1601  0.0110 -0.0002
17821W        W60733   1.004  31.519  20.585 -0.4352  0.1651 -0.1086
17822W        W60734  34.136  32.051  20.543  0.3637  0.2422 -0.0924
17823W        W60735   2.550  29.687  21.543 -0.0368  0.0741 -0.1981
17824W        W60736   2.186  31.687  19.319  0.0558  0.0797  0.1999
17825W        W60737   2.753  29.287  22.822  0.0725  0.0451  0.1763
17826W        W60738   3.951  30.103  22.510  0.1704  0.1653  0.1495
17827W        W60739   2.762  31.004  18.974 -0.0018  0.2793 -0.0371
17828W        W60740   2.139  30.516  23.192 -0.2268 -0.1840 -0.0854
17829W        W60741   0.947  29.878  22.700  0.1436  0.0913 -0.0777
17830W        W60742   2.147  32.020  21.108  0.1462 -0.0187 -0.4697
17831W        W60743   1.845  30.398  21.335  0.2426  0.5200  0.2720
17832W        W60744   2.129  33.009  22.987 -0.1025 -0.2538  0.0335
17833W        W60745   1.785  31.317  23.651 -0.1782  0.1994  0.0640
17834W        W60746   2.442  29.753  22.882  0.0260  0.1838  0.0508
17835W        W60747   0.455  28.034  18.558  0.0215  0.0836 -0.1513
17836W        W60748   0.483  29.438  21.949 -0.0383 -0.5045  0.2146
17837W        W60749   2.606  31.776  20.825  0.0594  0.0123 -0.1555
17838W        W60750   3.053  31.336  20.032  0.0753 -0.0263  0.0941
17839W        W60751   1.884  31.632  23.131 -0.3595  0.1324  0.0151
17840W        W60752   0.509  31.196  22.406 -0.0615  0.0591  0.0054
17841W        W60753   2.191  31.401  21.136  0.0459  0.2964  0.0841
17842W        W60754   2.578  31.335  20.255 -0.0490 -0.1598  0.0380
17843W        W60755   2.041  31.673  20.190 -0.0001  0.0201  0.0192
17844W        W60756   0.784  29.902  23.625 -0.0952  0.0433  0.0443
17845W        W60757   3.938  32.324  20.668  0.0306 -0.0475  0.1096
17846W        W60758   2.651  31.062  21.194  0.2217 -0.0224 -0.0998
17847W        W60759   1.873  30.296  22.651 -0.1819 -0.3358 -0.3206
17848W        W60760   2.128  32.060  22.996  0.0496 -0.1653  0.2349
17849W        W60761   1.716  31.261  21.235 -0.5187  0.0922  0.3668
17850W        W60762  33.846  31.430  23.602 -0.1697 -0.0270  0.0254
17851W        W60763   2.555  33.060  23.418 -0.0802  0.2622 -0.2179
17852W        W60764   4.683  30.892  18.670 -0.2815  0.3681  0.1817
17853W        W60765   3.325  31.546  23.481  0.0151 -0.1419  0.1390
17854W        W60766   2.747  31.210  21.658 -0.0420  0.1084 -0.1120
17855W        W60767   1.811  30.703  19.888 -0.1609  0.0350  0.0604
17856W        W60768   1.703  31.545  22.269  0.1578  0.1894  0.1573
17857W        W60769   3.107  32.348  24.809 -0.1912 -0.1664 -0.1004
17858W        W60770   1.107  29.731  21.213 -0.1040  0.0625  0.0916
17859W        W60771   2.287  30.108  23.713 -0.3038 -0.1048  0.1000
17860W        W60772   1.727  33.749  19.813  0.0921 -0.2568 -0.0666
17861W        W60773   1.645  31.375  21.699  0.3625  0.3682  0.2843
17862W        W60774   1.863  30.700  19.401  0.3195 -0.3491 -0.1230
17863W        W60775  34.488  31.374  22.834 -0.2359  0.1887 -0.2926
17864W        W60776  33.391  32.311  23.615 -0.2407 -0.2289  0.0151
17865W        W60777   0.554  28.946  19.305  0.1268  0.0509 -0.2912
17866W        W60778   1.551  30.478  20.304 -0.0112 -0.0024 -0.1200
17867W        W60779   0.723  32.854  22.367  0.2032  0.0144  0.2010
17868W        W60780   4.884  31.305  24.120  0.0533 -0.1607  0.0900
17869W        W60781   3.122  29.626  19.784  0.0405 -0.1084  0.0888
17870W        W60782   2.174  32.120  24.359 -0.0826  0.0231  0.1143
17871W        W60783   0.375  32.863  18.185  0.2019  0.1453 -0.0960
17872W        W60784   0.379  30.761  22.603 -0.1137  0.0228  0.1223
17873W        W60785   1.688  34.112  21.787 -0.1527  0.0819 -0.2416
17874W        W60786  34.101  32.639  21.959 -0.1093  0.0327 -0.2576
17875W        W60787  34.558  32.000  20.827  0.1000 -0.2153 -0.0006
17876W        W60788   1.701  29.301  22.872 -0.4000  0.1832  0.0612
17877W        W60789   2.112  30.839  22.744  0.1259  0.0803 -0.1427
17878W        W60790   1.148  29.962  21.786  0.1171 -0.0802 -0.0942
17879W        W60791   3.734  31.177  23.259  0.2374 -0.1530 -0.0425
17880W        W60792   2.917  31.603  23.143  0.1653 -0.0181 -0.1220
17881W        W60793  34.446  30.031  21.079  0.0495  0.0624 -0.2001
17882W        W60794   2.076  30.888  23.614 -0.1918 -0.1641  0.1240
17883W        W60795   2.872  32.620  20.826 -0.1387 -0.0001 -0.1322
17884W        W60796   0.464  30.719  20.516 -0.2325  0.0390 -0.3093
17885W        W60797  33.359  31.525  23.931  0.2332  0.1092 -0.0975
17886W        W60798   2.196  32.260  24.941 -0.4948 -0.0207 -0.1052
17887W        W60799   1.203  30.941  20.634 -0.2590 -0.0759 -0.4870
17888W        W60800   1.862  29.486  21.429  0.0959 -0.1652  0.3033
17889W        W60801   2.352  32.767  19.628 -0.0264 -0.2085  0.0417
17890W        W60802   0.128  32.782  24.401  0.0739 -0.0305 -0.0567
17891W        W60803   1.293  31.308  22.656  0.0918 -0.1027 -0.1169
17892W        W60804   0.115  33.592  20.572 -0.0567 -0.2718  0.1436
17893W        W60805   1.376  30.961  20.029  0.0082  0.0716  0.2792
17894W        W60806   3.359  31.452  19.621 -0.2855  0.0329 -0.0733
17895W        W60807   2.004  31.871  22.030  0.1837  0.1521 -0.0052
17896W        W60808   2.120  30.134  20.937  0.0057  0.0641  0.0901
17897W        W60809   0.131  32.648  21.117 -0.1223 -0.3214 -0.0040
17898W        W60810   0.025  32.449  18.570 -0.1727 -0.2820 -0.1425
17899W        W60811   4.480  32.513  20.601  0.3484 -0.1970 -0.0443
17900W        W60812   0.722  32.018  21.234 -0.1919 -0.1928  0.2959
17901W        W60813   2.291  31.420  21.825  0.3792 -0.1139  0.0856
17902W        W60814   3.473  28.775  20.791 -0.4913 -0.1719 -0.2549
17903W        W60815   3.745  30.584  22.596  0.2094  0.1700  0.0302
17904W        W60816   3.230  31.426  21.553 -0.1504 -0.0503 -0.2102
17905W        W60817   2.021  31.651  23.961  0.1439  0.2627 -0.0463
17906W        W60818   0.693  31.641  22.085 -0.0401  0.0181 -0.0694
17907W        W60819   2.583  30.620  20.874 -0.1221 -0.0405  0.2998
17908W        W60820  34.273  31.429  23.336 -0.2060 -0.0181  0.0557
17909W        W60821   3.666  29.787  22.265 -0.0633  0.0794 -0.4162
17910W        W60822   0.762  32.360  23.865 -0.0422 -0.0059  0.3299
17911W        W60823   4.653  32.318  19.815  0.0322 -0.1819 -0.0067
17912W        W60824   1.126  28.076  20.873 -0.1271 -0.1430 -0.1552
17913W        W60825   1.250  30.392  20.683  0.4023  0.1327  0.0225
17914W        W60826   2.177  28.098  23.668  0.1038  0.0727 -0.0736
17915W        W60827   1.181  31.248  19.693 -0.2856 -0.1868  0.0322
17916W        W60828   2.260  31.379  20.646  0.2325 -0.1159 -0.0793
17917W        W60829   1.677  33.015  20.197 -0.0269 -0.0274 -0.2766
17918W        W60830   2.542  32.413  22.254 -0.3742  0.2350 -0.0309
17919W        W60831   2.083  32.441  22.051 -0.1088 -0.0732 -0.1013
17920W        W60832  33.233  29.842  20.336  0.0606  0.1325  0.1725
17921W        W60833   4.005  30.111  20.913 -0.1656  0.0453  0.2460
17922W        W60834   0.364  31.895  23.611  0.2368  0.1904 -0.0118
17923W        W60835   4.248  30.495  22.682 -0.1035  0.2094 -0.3711
17924W        W60836   0.799  31.557  21.087  0.3088 -0.3652 -0.2354
17925W        W60837   3.549  30.830  21.812  0.2043  0.0275 -0.0895
17926W        W60838   1.501  31.828  21.926  0.0098  0.0765 -0.1633
17927W        W60839  33.861  30.744  21.057  0.1778  0.2417  0.1720
17928W        W60840   2.839  30.475  20.481  0.1808  0.0025 -0.1348
17929W        W60841   2.247  31.853  23.540 -0.2029  0.1086 -0.0778
17930W        W60842   2.844  30.465  19.912  0.1104 -0.2672  0.3038
17931W        W60843   1.638  33.370  23.133  0.0600 -0.2047 -0.1308
17932W        W60844   1.025  29.521  20.587  0.1747  0.0194 -0.0276
17933W        W60845   2.619  30.130  20.744  0.0599  0.3611 -0.1196
17934W        W60846  32.716  32.703  20.272 -0.2390  0.2008  0.0684
17935W        W60847  33.616  30.966  23.788  0.1011 -0.1574 -0.0296
17936W        W60848   2.927  31.781  22.425 -0.0193  0.0215  0.0352
17937W        W60849   0.879  29.128  21.748 -0.0638 -0.1550 -0.0281
17938W        W60850   3.190  31.273  20.968  0.4158 -0.0361 -0.0275
17939W        W60851   3.549  31.067  22.769 -0.4135  0.0540  0.0450
17940W        W60852   1.192  30.494  18.959 -0.0146  0.0110  0.1918
17941W        W60853   2.566  31.836  20.245 -0.2267 -0.3082  0.0043
17942W        W60854   4.197  33.302  20.511  0.3103 -0.0278 -0.1175
17943W        W60855  34.682  31.782  21.808  0.2596  0.0311  0.1432
17944W        W60856   3.210  31.202  23.130  0.3290  0.3136  0.0192
17945W        W60857   3.245  33.140  22.608 -0.4446  0.0130 -0.1128
17946W        W60858   1.829  29.587  22.324  0.5591  0.4552  0.2658
17947W        W60859   0.549  31.134  21.266 -0.1498  0.0606  0.0433
17948W        W60860   0.345  31.757  20.124  0.0814  0.0460  0.0678
17949W        W60861   3.078  30.795  22.782 -0.0117 -0.1636 -0.0051
17950W        W60862   3.931  31.498  23.799  0.1090  0.1155 -0.0931
17951W        W60863   1.282  32.789  19.906  0.0929  0.1272  0.0290
17952W        W60864   3.038  30.375  23.027  0.0214  0.0689  0.2206
17953W        W60865   0.902  32.409  21.646 -0.0124 -0.0530 -0.1044
17954W        W60866   2.817  32.568  21.722  0.2489 -0.2907  0.3274
17955W        W60867  34.666  31.355  20.068 -0.0377 -0.1943 -0.0271
17956W        W60868   0.971  31.817  23.074 -0.1792  0.1721 -0.1716
17957W        W60869   0.910  32.576  19.615 -0.3555  0.3340  0.2331
17958W        W60870   1.897  31.023  20.355 -0.0681 -0.0546 -0.1981
17959W        W60871   3.225  33.874  21.753 -0.0280 -0.4530 -0.4393
17960W        W60872   2.507  29.507  22.355  0.0437 -0.0422 -0.0514
17961W        W60873   3.241  32.168  22.359  0.1973 -0.1380  0.0419
17962W        W60874   2.120  30.524  22.285 -0.0581  0.1190 -0.0053
17963W        W60875   2.468  28.816  22.693 -0.2035  0.0689 -0.1055
17964W        W60876   2.529  30.296  21.294  0.4241 -0.0716 -0.0770
17965W        W60877   1.398  30.843  22.019  0.0483  0.0503 -0.0984
17966W        W60878  34.405  31.457  20.865 -0.0612 -0.1704  0.0905
17967W        W60879   0.787  31.969  19.884  0.0980 -0.1597  0.3268
17968W        W60880   2.072  32.623  21.079  0.2361 -0.0273  0.2667
17969W        W60881   1.200  29.702  24.606 -0.1996 -0.3852  0.1628
17970W        W60882  33.691  30.723  22.156 -0.0687  0.1042  0.1396
17971W        W60883  33.758  31.211  20.924 -0.0991  0.0888  0.1445
17972W        W60884   0.751  30.146  21.324  0.4435  0.1102 -0.0542
17973W        W60885   3.472  32.790  19.971  0.1973 -0.2883  0.0769
17974W        W60886  34.369  29.119  22.556 -0.0420  0.2016 -0.1649
17975W        W60887   1.081  31.156  21.419 -0.2544  0.1994  0.1400
17976W        W60888   2.345  32.716  20.521 -0.1722  0.0267 -0.2025
17977W        W60889   3.114  32.339  20.005 -0.3957  0.1555 -0.1239
17978W        W60890   2.597  30.408  21.928 -0.0336  0.1578  0.0030
17979W        W60891   3.082  32.011  22.863 -0.1755  0.0472  0.0038
17980W        W60892   1.526  31.862  20.517 -0.0688 -0.0639 -0.1274
17981W        W60893   2.736  29.754  23.966 -0.1385 -0.2842  0.0029
17982W        W60894   0.347  29.706  23.481  0.0242 -0.2058 -0.0844
17983W        W60895  34.341  30.097  20.477 -0.4144 -0.2795  0.2736
17984W        W60896  34.059  31.868  23.139  0.0028 -0.0195 -0.2589
17985W        W60897   1.627  32.171  21.355  0.2011  0.4037 -0.0442
17986W        W60898   4.236  32.814  20.283  0.3253  0.1876  0.0350
17987W        W60899   1.608  32.074  22.340  0.0452  0.2706 -0.0699
17988W        W60900   2.054  32.280  21.565 -0.0112 -0.4065  0.2439
17989W        W60901   0.446  30.442  21.781  0.0620 -0.0460  0.2411
17990W        W60902   3.667  31.015  19.650 -0.0677  0.3127  0.3411
17991W        W60903   2.055  31.750  22.530  0.0110  0.2208  0.2632
17992W        W60904   3.350  32.048  21.360  0.1421 -0.0706 -0.1698
17993W        W60905   3.511  29.306  22.325 -0.0422 -0.0628  0.1522
17994W        W60906   3.327  31.110  20.480 -0.2007 -0.1622 -0.0845
17995W        W60907  34.613  30.172  24.542 -0.1428 -0.2478 -0.4730
17996W        W60908  34.552  31.063  24.317 -0.4011 -0.1987  0.0343
17997W        W60909   2.690  31.172  22.911  0.2240  0.1158  0.1677
17998W        W60910   0.840  29.608  21.602  0.1399  0.2321 -0.1350
17999W        W60911   2.505  30.170  20.090  0.0990  0.1747 -0.2230
18000W        W60912   2.099  32.740  20.108  0.2508 -0.0069  0.0752
18001W        W60913  34.699  29.533  21.432  0.0467  0.2044 -0.2564
18002W        W60914   2.676  29.700  20.079  0.0126 -0.2996  0.0758
18003W        W60915   2.048  31.074  21.553 -0.0382 -0.0863 -0.0933
18004W        W60916   1.665  30.827  22.539  0.0725  0.2750  0.1401
18005W        W60917   3.687  32.359  23.622  0.1419 -0.0356  0.1674
18006W        W60918   1.184  30.743  21.110  0.0745 -0.0512  0.0270
18007W        W60919   3.341  31.862  20.089  0.0582  0.0509  0.3027
18008W        W60920   1.693  31.417  20.611 -0.0642 -0.0067  0.0287
18009W        W60921   2.483  32.565  24.071 -0.3935 -0.2137  0.0944
18010W        W60922   0.674  32.377  22.160  0.1479 -0.1901 -0.0671
18011W        W60923   3.992  32.439  20.136  0.0069 -0.2029 -0.1864
18012W        W60924   0.210  30.345  22.296  0.1951  0.1226 -0.0033
18013W        W60925   1.533  30.828  21.529 -0.2016 -0.1372 -0.2191
18014W        W60926   0.253  30.780  20.954 -0.4144 -0.0621  0.2980
18015W        W60927   1.656  29.788  23.472  0.3121  0.1319 -0.2707
18016W        W60928   0.950  31.105  22.265  0.0388  0.0003  0.1124
18017W        W60929   2.966  29.001  20.648  0.4180  0.2153 -0.1474
18018W        W60930   2.312  32.693  21.520 -0.1548  0.0816 -0.1941
18019W        W60931   0.370  31.038  20.098  0.0979 -0.1494  0.0779
18020W        W60932   1.820  32.972  25.965  0.0381 -0.0707  0.1395
18021W        W60933   0.801  30.846  23.310  0.2549 -0.2497  0.1707
18022W        W60934   3.670  30.012  24.363 -0.3920  0.1492 -0.0313
18023W        W60935   4.261  31.177  23.991 -0.0118  0.2582  0.0544
18024W        W60936  34.431  30.444  23.850 -0.0247  0.0777  0.2472
18025W        W60937   3.190  32.153  25.290 -0.0013 -0.5034 -0.2168
18026W        W60938   0.634  30.433  27.473 -0.1367  0.0036 -0.1101
18027W        W60939   2.443  31.990  27.088  0.6759  0.2274 -0.2404
18028W        W60940   3.080  31.697  26.209 -0.1433 -0.3300  0.1049
18029W        W60941   2.559  32.441  24.587  0.0855  0.2387  0.1750
18030W        W60942   1.382  30.412  26.944 -0.3434 -0.0362  0.2736
18031W        W60943   1.676  33.428  26.213 -0.2472  0.0172  0.0533
18032W        W60944   0.664  29.648  24.521  0.2074 -0.1091 -0.1071
18033W        W60945  34.287  29.044  26.750  0.0325  0.2592 -0.4715
18034W        W60946   1.845  30.154  25.168 -0.3970  0.2130  0.0803
18035W        W60947  34.169  30.997  24.653  0.1130 -0.0077 -0.1645
18036W        W60948   0.871  30.883  26.242 -0.0497 -0.0957 -0.0405
18037W        W60949   2.299  28.665  24.514  0.2173  0.0307 -0.1346
18038W        W60950   1.656  31.972  24.258 -0.0248 -0.0353 -0.0667
18039W        W60951  34.653  27.874  25.691  0.2237  0.2335 -0.0285
18040W        W60952   2.286  29.106  26.469 -0.0590 -0.0952  0.3631
18041W        W60953   3.596  32.491  25.090 -0.2782  0.2838  0.1314
18042W        W60954   0.690  30.668  22.184 -0.3189  0.0325 -0.1891
18043W        W60955   0.743  31.798  24.814 -0.0971  0.0623  0.2197
18044W        W60956   1.989  31.461  25.356  0.2761 -0.3183 -0.3836
18045W        W60957   2.304  29.631  26.466  0.2176 -0.0959 -0.0625
18046W        W60958   3.605  31.078  24.727 -0.3504 -0.1991 -0.0444
18047W        W60959   1.680  31.897  25.910 -0.2390  0.0466 -0.0465
18048W        W60960   1.800  32.481  25.933 -0.1441 -0.1804 -0.3432
18049W        W60961   1.338  31.281  27.010  0.4114 -0.2900  0.0572
18050W        W60962   1.179  32.670  24.083  0.2856 -0.2905 -0.1160
18051W        W60963  32.267  33.259  25.781  0.2124 -0.1710  0.2167
18052W        W60964  33.431  33.005  22.866 -0.0139  0.1284 -0.0756
18053W        W60965   3.709  32.844  23.761 -0.0103 -0.1163  0.1626
18054W        W60966   2.632  31.410  25.965 -0.2079  0.1292 -0.4251
18055W        W60967   1.882  33.047  28.777 -0.0722  0.0285 -0.3388
18056W        W60968   1.631  32.940  23.895 -0.1296 -0.0446  0.3275
18057W        W60969   1.787  31.392  26.796  0.5545 -0.2248  0.0111
18058W        W60970   0.826  32.954  26.934 -0.0006 -0.1143 -0.0199
18059W        W60971   2.158  30.605  26.221  0.1767  0.2494 -0.2449
18060W        W60972   2.049  30.666  25.045 -0.0340 -0.1983 -0.0255
18061W        W60973   1.985  33.173  23.491  0.2792  0.1015 -0.2307
18062W        W60974   3.083  31.130  24.809  0.1036 -0.0791 -0.3561
18063W        W60975   2.101  31.681  26.133  0.2536  0.0228 -0.0835
18064W        W60976   0.448  31.586  26.537  0.1717 -0.0746  0.0524
18065W        W60977   4.386  30.672  27.928 -0.3721  0.2024  0.2044
18066W        W60978  34.439  32.273  23.219 -0.0643 -0.0763  0.2480
18067W        W60979   2.963  29.587  23.221  0.3179  0.0315  0.1392
18068W        W60980   1.774  30.111  23.945 -0.0613  0.1329 -0.1724
18069W        W60981   2.747  29.441  24.545  0.0719 -0.1707  0.2843
18070W        W60982   2.265  28.977  25.286  0.0351  0.1410  0.3482
18071W        W60983   0.704  32.273  25.536 -0.0658  0.1105  0.3633
18072W        W60984   1.094  29.213  26.468  0.0306  0.0307  0.3479
18073W        W60985   1.850  30.021  25.680 -0.1253  0.1665  0.2210
18074W        W60986   1.500  30.560  23.520 -0.0299 -0.1872 -0.1025
18075W        W60987   2.744  28.830  27.269  0.2215  0.0948  0.0995
18076W        W60988  34.528  31.771  26.873 -0.2617  0.0541 -0.1343
18077W        W60989   0.859  29.667  26.139  0.1304 -0.0290  0.0912
18078W        W60990   2.990  31.707  24.607 -0.2449 -0.0714  0.2983
18079W        W60991   3.950  32.224  25.390  0.0545  0.1343  0.2841
18080W        W60992   1.586  33.472  23.757  0.0484  0.1393  0.0103
18081W        W60993   1.649  31.018  24.650  0.0047 -0.1817 -0.4164
18082W        W60994   1.654  31.498  26.305  0.3445 -0.1591 -0.1743
18083W        W60995   0.104  31.894  27.223  0.2200  0.0372  0.1525
18084W        W60996   0.025  29.017  24.167  0.0954 -0.0320  0.1372
18085W        W60997   3.304  32.056  25.923 -0.1218 -0.4101  0.0181
18086W        W60998   1.236  33.218  27.073 -0.4809  0.2437  0.1579
18087W        W60999   3.299  29.693  25.663  0.0749  0.0987  0.0979
18088W        W61000   2.528  31.979  25.889 -0.1541 -0.1789  0.1149
18089W        W61001   2.580  31.339  24.834  0.4696 -0.0810  0.0979
18090W        W61002   3.335  31.877  24.888  0.2106  0.3167  0.0178
18091W        W61003   2.786  29.894  25.922  0.1388 -0.1633 -0.4611
18092W        W61004   3.366  29.829  27.180  0.2121  0.1510 -0.2305
18093W        W61005   0.311  32.137  25.104 -0.0559 -0.1460 -0.2756
18094W        W61006   1.559  32.114  23.152  0.2854  0.2067 -0.0956
18095W        W61007   3.754  31.951  25.825 -0.0278  0.0763 -0.1112
18096W        W61008   3.472  31.444  23.949 -0.0727 -0.2498  0.1882
18097W        W61009  33.633  31.806  26.344 -0.2396  0.0046  0.1565
18098W        W61010   2.327  28.573  26.586  0.0187  0.4028 -0.1116
18099W        W61011   2.421  32.215  26.287  0.0162 -0.1309  0.3335
18100W        W61012   0.094  32.341  23.614  0.0250  0.0105  0.0437
18101W        W61013   0.738  31.905  25.935 -0.1042  0.0745  0.2373
18102W        W61014   0.508  31.417  25.644  0.1548 -0.2903 -0.0170
18103W        W61015  34.095  30.804  26.738 -0.1588 -0.0069 -0.0088
18104W        W61016  34.218  31.881  27.356  0.1333 -0.1060 -0.0536
18105W        W61017   3.873  31.756  24.757  0.0879  0.0087  0.2598
18106W        W61018   0.641  29.163  26.286 -0.1932 -0.0768 -0.1857
18107W        W61019   3.046  28.550  23.516 -0.0138  0.1490 -0.0853
18108W        W61020   0.678  32.288  23.385 -0.0232  0.1755 -0.0949
18109W        W61021   2.154  32.834  25.522  0.1263 -0.3320  0.0437
18110W        W61022   4.216  29.832  22.806 -0.1824  0.3507  0.2184
18111W        W61023   1.280  32.510  23.154 -0.0146 -0.0859 -0.1236
18112W        W61024   0.429  30.559  26.330 -0.2817 -0.0945 -0.1978
18113W        W61025   1.431  30.216  25.499 -0.0458  0.1181  0.0335
18114W        W61026   0.970  29.368  27.808 -0.0119 -0.2071 -0.4150
18115W        W61027  34.138  29.318  25.769 -0.0484 -0.0346 -0.1395
18116W        W61028   1.912  30.214  26.791  0.2616 -0.0382  0.1499
18117W        W61029   0.059  29.604  24.356  0.1230  0.1562  0.3040
18118W        W61030   1.710  28.082  24.012  0.0952 -0.0825 -0.1982
18119W        W61031   2.561  30.909  23.363  0.1940  0.0096 -0.2178
18120W        W61032  34.552  32.104  24.398  0.2610 -0.3331 -0.1239
18121W        W61033   3.741  29.116  27.656 -0.0993 -0.4286  0.0866
18122W        W61034   2.468  32.855  24.930  0.0384  0.0787  0.3111
18123W        W61035   2.501  30.820  24.879 -0.0119  0.3726  0.1433
18124W        W61036   2.513  32.113  25.429  0.1640 -0.1891 -0.1119
18125W        W61037  34.172  30.908  27.244 -0.0667 -0.4159 -0.2497
18126W        W61038   0.086  31.406  23.896  0.1893 -0.2398 -0.1988
18127W        W61039   0.734  33.954  24.706  0.0060 -0.1785 -0.0328
18128W        W61040   1.342  31.240  25.371 -0.0226 -0.1527 -0.0561
18129W        W61041  34.220  29.815  24.321 -0.1223 -0.1288 -0.3492
18130W        W61042   2.459  33.707  25.567 -0.0132  0.2048 -0.0709
18131W        W61043   3.097  30.708  24.428  0.1513 -0.1461 -0.1672
18132W        W61044   0.536  31.628  27.155 -0.0826  0.3691  0.0029
18133W        W61045   2.285  29.688  27.055 -0.1303 -0.0608 -0.4383
18134W        W61046   3.012  31.183  26.161  0.0611 -0.2081  0.1453
18135W        W61047   1.024  30.492  25.790 -0.3885 -0.3562  0.1978
18136W        W61048  34.145  29.284  23.499  0.0263  0.2187 -0.2184
18137W        W61049   1.770  32.535  25.093 -0.1774 -0.1330 -0.0615
18138W        W61050   0.184  33.231  24.649  0.2388  0.0924 -0.0470
18139W        W61051   0.039  30.710  25.368  0.0053  0.0481 -0.1240
18140W        W61052   2.467  32.534  25.796  0.2744 -0.0959 -0.1470
18141W        W61053   2.032  29.401  25.623  0.1056 -0.0020  0.1763
18142W        W61054  34.354  30.451  27.005 -0.2446 -0.0020 -0.2927
18143W        W61055   1.966  28.781  27.400  0.0074 -0.1570 -0.1188
18144W        W61056   1.173  31.798  24.526  0.1089 -0.2551 -0.0315
18145W        W61057   1.594  30.855  27.026  0.1888  0.1934 -0.3117
18146W        W61058   2.474  28.542  25.468  0.0340 -0.1834  0.0656
18147W        W61059   3.812  29.509  23.607 -0.1539 -0.0316 -0.0479
18148W        W61060   2.614  31.029  26.697  0.2479  0.2216 -0.5252
18149W        W61061   3.085  30.223  24.516 -0.0131 -0.4798 -0.0950
18150W        W61062   2.718  30.255  24.024 -0.0174  0.0310 -0.0440
18151W        W61063   2.361  29.156  24.741 -0.1490  0.0474  0.1388
18152W        W61064   0.619  31.717  27.636  0.1765  0.2013  0.0048
18153W        W61065   2.372  31.703  25.116  0.1247 -0.0254 -0.0020
18154W        W61066   2.082  31.157  24.939  0.0566  0.1144 -0.0800
18155W        W61067   2.770  30.367  24.936  0.0297 -0.1000 -0.1265
18156W        W61068   3.547  32.484  24.045  0.0090  0.2505 -0.2029
18157W        W61069   0.226  31.622  26.051  0.1691 -0.0155  0.0791
18158W        W61070   2.176  31.250  25.773 -0.2651 -0.3126  0.2028
18159W        W61071   3.073  32.675  25.898 -0.2378 -0.1071  0.0140
18160W        W61072   1.298  29.659  26.398 -0.1179 -0.1553 -0.1184
18161W        W61073   2.754  30.817  23.826 -0.1631 -0.1289  0.0417
18162W        W61074   1.148  29.215  27.342  0.1574 -0.0387 -0.0206
18163W        W61075  34.397  33.491  24.817 -0.0938  0.1610  0.1113
18164W        W61076   2.504  30.984  26.178 -0.1873 -0.0481  0.1200
18165W        W61077   2.559  29.991  26.638 -0.0560  0.1444 -0.0027
18166W        W61078   1.956  29.381  26.133 -0.2635  0.0542 -0.1304
18167W        W61079   3.463  29.929  27.794 -0.1107  0.0605 -0.0428
18168W        W61080   2.197  29.776  25.292 -0.0033  0.2246  0.0318
18169W        W61081   1.274  30.050  26.052 -0.2786  0.0637  0.1576
18170W        W61082   1.170  31.608  25.025 -0.2490  0.0862  0.2044
18171W        W61083   1.003  29.730  27.396  0.0409  0.1443  0.2177
18172W        W61084  34.680  31.233  25.479 -0.1856 -0.3179  0.0062
18173W        W61085   0.417  33.475  25.564 -0.1482  0.1012 -0.1278
18174W        W61086   2.198  31.802  26.631  0.0076  0.1553 -0.0554
18175W        W61087   2.663  30.477  24.482  0.0115  0.0541 -0.1574
18176W        W61088   1.292  29.810  27.922 -0.1137 -0.0708  0.1906
18177W        W61089   1.548  29.707  24.052 -0.1195  0.2276 -0.0179
18178W        W61090   0.739  33.200  23.350  0.2485 -0.1159  0.1458
18179W        W61091   1.045  31.275  23.093  0.2035  0.2936  0.0838
18180W        W61092   0.690  29.329  27.299  0.1998  0.1422 -0.0229
18181W        W61093   1.481  32.020  24.870 -0.0359  0.2052 -0.1722
18182W        W61094  34.299  33.248  23.055 -0.2159 -0.4741 -0.1841
18183W        W61095   2.657  29.988  24.540 -0.1642 -0.1457  0.2967
18184W        W61096   0.829  32.953  23.869  0.0340  0.0674  0.0529
18185W        W61097   3.162  29.293  26.745  0.1019 -0.1605  0.0663
18186W        W61098  32.969  32.579  25.721  0.0837 -0.1240  0.3251
18187W        W61099   2.216  31.283  24.432  0.1827  0.2231  0.2056
18188W        W61100   0.733  31.414  26.135 -0.4798 -0.0006  0.0997
18189W        W61101   2.318  29.642  24.281  0.0623 -0.1859 -0.2005
18190W        W61102   4.453  30.034  24.708  0.0600 -0.0191  0.2666
18191W        W61103   0.317  30.455  24.858 -0.0141  0.7464  0.2025
18192W        W61104   2.529  29.252  26.069  0.5506  0.4207 -0.1271
18193W        W61105   0.823  31.791  25.353  0.1966  0.0013  0.0720
18194W        W61106   1.020  29.795  25.662  0.0617 -0.3137  0.1257
18195W        W61107   2.443  29.331  23.814  0.0895 -0.0449 -0.1175
18196W        W61108   2.865  30.333  25.690 -0.2105  0.0433  0.0098
18197W        W61109   1.736  31.966  26.759 -0.1504 -0.1542  0.0411
18198W        W61110  34.683  30.082  23.562  0.0178  0.1134 -0.2722
18199W        W61111   2.986  30.232  26.899 -0.3931  0.1620  0.3096
18200W        W61112   2.300  30.687  24.059  0.1141  0.3248  0.3178
18201W        W61113  34.571  31.681  25.302  0.0028  0.3003 -0.1695
18202W        W61114   2.139  31.894  25.673  0.2417 -0.0387  0.1170
18203W        W61115   1.182  30.721  24.496  0.1106 -0.2622 -0.4427
18204W        W61116   1.186  31.680  26.174 -0.0661  0.0856 -0.2233
18205W        W61117   1.619  29.048  27.243 -0.1719  0.0914  0.1104
18206W        W61118   2.362  31.034  25.357 -0.1663 -0.0639  0.1497
18207W        W61119   2.359  29.677  25.878  0.2101 -0.0050  0.1388
18208W        W61120  34.618  29.987  23.025  0.2798  0.0919 -0.0288
18209W        W61121   0.397  30.944  25.106  0.0486  0.1915  0.2796
18210W        W61122   3.135  31.274  25.506  0.2103  0.1764 -0.0527
18211W        W61123   2.363  29.929  27.486 -0.0670  0.1527  0.2412
18212W        W61124   1.202  31.591  27.958 -0.1336 -0.3422 -0.1208
18213W        W61125   2.696  29.097  25.079  0.5210  0.2147  0.4965
18214W        W61126   3.831  32.972  24.257  0.3117 -0.0351 -0.0953
18215W        W61127   1.705  30.354  26.025  0.0620  0.0057 -0.1124
18216W        W61128   0.201  31.764  24.734 -0.1551  0.1929 -0.2347
18217W        W61129  34.443  31.394  27.223 -0.0216 -0.1400  0.2435
18218W        W61130   1.292  31.310  24.544 -0.1961  0.0341  0.2600
18219W        W61131   1.972  29.358  26.834 -0.2443  0.1110 -0.1871
18220W        W61132   0.225  32.119  26.086  0.0480  0.2001  0.0805
18221W        W61133   1.764  31.483  24.432 -0.1188  0.2540 -0.0230
18222W        W61134   0.213  32.624  25.191 -0.0130 -0.0290 -0.0043
18223W        W61135   3.807  28.215  24.315 -0.0052  0.0599 -0.0762
18224W        W61136   2.500  31.695  24.479 -0.0783  0.0496  0.0526
18225W        W61137   1.647  29.825  24.827 -0.1960 -0.1637  0.0893
18226W        W61138   4.742  29.566  25.892  0.0754  0.1264 -0.1736
18227W        W61139   1.784  30.700  24.102  0.0203  0.1584 -0.1198
18228W        W61140   2.613  28.427  27.659  0.1089  0.0926  0.2050
18229W        W61141  33.883  30.511  26.384 -0.0847  0.3320  0.1476
18230W        W61142   3.430  31.538  25.932  0.1159  0.0380  0.0910
18231W        W61143   0.801  30.670  24.902 -0.1334  0.1991  0.2421
18232W        W61144   2.272  32.508  27.952 -0.1399 -0.0061 -0.2161
18233W        W61145   0.192  31.363  27.427 -0.0067 -0.0891 -0.3123
18234W        W61146   3.532  30.016  24.847  0.2248 -0.1583 -0.0398
18235W        W61147  34.686  29.419  23.282 -0.0366  0.0617  0.0155
18236W        W61148  34.500  31.263  26.698 -0.0799 -0.2656  0.1907
18237W        W61149   3.402  31.439  25.026  0.1290  0.1145  0.1036
18238W        W61150   1.152  32.560  25.427 -0.0367 -0.2618  0.0416
18239W        W61151   2.792  30.974  25.741 -0.4037 -0.0898 -0.0771
18240W        W61152  33.968  31.752  25.754 -0.3724  0.0120 -0.3473
18241W        W61153   1.670  30.496  24.626  0.2893  0.2648 -0.0123
18242W        W61154   1.220  32.116  23.972 -0.2478 -0.0581 -0.1108
18243W        W61155   1.066  30.761  25.292 -0.1381  0.0440 -0.0538
18244W        W61156   0.544  29.616  26.567 -0.1115  0.1326 -0.0229
18245W        W61157   2.889  31.580  25.122 -0.1317  0.0418 -0.2085
18246W        W61158   2.773  28.937  25.686  0.0809 -0.1283 -0.0942
18247W        W61159   1.352  29.900  26.927  0.1147 -0.0426 -0.2645
18248W        W61160   2.326  30.721  25.774 -0.1538 -0.1729 -0.3237
18249W        W61161   0.847  29.998  26.615  0.2228  0.0665  0.0041
18250W        W61162  34.114  31.379  25.024  0.0053 -0.0728  0.0330
18251W        W61163   1.814  30.988  25.971 -0.1935  0.0500 -0.1938
18252W        W61164   4.285  31.118  23.402 -0.2437  0.1140 -0.1283
18253W        W61165   4.122  29.520  26.899 -0.0353  0.0148  0.0938
18254W        W61166   3.556  30.904  24.225 -0.2005 -0.0018 -0.0986
18255W        W61167   3.380  29.761  23.664  0.1180  0.0133  0.0328
18256W        W61168   0.771  31.507  24.294  0.0348 -0.2115  0.3528
18257W        W61169   2.527  31.477  27.401 -0.4860 -0.1743 -0.1921
18258W        W61170   0.801  30.163  24.693 -0.1115  0.2369 -0.1625
18259W        W61171   1.844  28.763  26.885 -0.0183  0.3676 -0.1440
18260W        W61172   1.689  32.815  23.253 -0.0929 -0.2004 -0.2976
18261W        W61173   1.870  31.951  25.178 -0.2227  0.0963 -0.1343
18262W        W61174   1.333  30.193  24.964 -0.0715 -0.0341  0.0406
18263W        W61175  33.863  30.992  25.903 -0.0824  0.2642  0.1302
18264W        W61176   1.220  32.697  27.052 -0.0206 -0.0910  0.2255
18265W        W61177  34.633  31.536  24.337  0.2190  0.3023 -0.1191
18266W        W61178   0.807  31.874  23.795  0.2008  0.1124  0.0327
18267W        W61179   1.161  34.077  24.467 -0.1274  0.0323 -0.0775
18268W        W61180   2.575  31.731  26.373 -0.2094  0.1897  0.0076
18269W        W61181   2.808  28.893  24.488  0.1347  0.1562 -0.2295
18270W        W61182   3.716  28.989  26.672  0.0008  0.0449 -0.3039
18271W        W61183  34.189  32.714  24.083 -0.3240 -0.0940  0.2147
18272W        W61184   3.287  28.282  25.645 -0.1708 -0.0610  0.1682
18273W        W61185   0.088  33.880  25.639 -0.2953 -0.2980  0.0414
18274W        W61186   0.217  31.342  26.912  0.0097 -0.3769 -0.2327
18275W        W61187   1.545  32.462  23.609 -0.1375  0.0503 -0.0368
18276W        W61188   1.785  27.789  26.369  0.1268  0.0193 -0.0923
18277W        W61189   2.131  30.743  24.579  0.2112 -0.2363 -0.0098
18278W        W61190   2.617  30.988  24.384  0.1006 -0.2801  0.0699
18279W        W61191   2.831  29.647  26.381 -0.0345 -0.1459 -0.0142
18280W        W61192   1.198  31.293  26.494 -0.2688  0.1106 -0.0128
18281W        W61193   1.085  31.539  25.712  0.3315 -0.1016  0.0967
18282W        W61194   2.874  33.196  28.118 -0.0158 -0.1147  0.1419
18283W        W61195   3.239  30.056  25.295  0.1643  0.1200  0.1358
18284W        W61196   1.403  30.820  25.678  0.0165 -0.1309 -0.1412
18285W        W61197   0.687  31.382  27.989  0.0239  0.1238  0.0166
18286W        W61198   1.022  31.606  27.194 -0.2903  0.0541  0.2885
18287W        W61199   2.901  32.288  25.667  0.0326 -0.0549 -0.0233
18288W        W61200   0.201  30.623  23.597 -0.3755 -0.0220  0.0147
18289W        W61201   1.503  33.899  23.498 -0.2300 -0.1676 -0.1441
18290W        W61202  34.417  32.102  26.014  0.1401 -0.1172 -0.1684
18291W        W61203   0.464  31.062  26.602 -0.1534 -0.1805 -0.0386
18292W        W61204   0.315  33.115  25.113  0.1134 -0.1050  0.0206
18293W        W61205   3.494  31.744  24.338  0.3587  0.0554 -0.0658
18294W        W61206   3.285  31.921  23.899 -0.1076 -0.2447  0.1913
18295W        W61207   1.884  32.719  27.364 -0.2079  0.0953  0.2040
18296W        W61208   2.163  29.833  24.775 -0.1017 -0.2701 -0.5115
18297W        W61209   1.019  33.473  24.429 -0.0914 -0.2542  0.1282
18298W        W61210  34.379  31.700  24.734  0.1031 -0.2959 -0.0723
18299W        W61211   3.135  31.161  24.228 -0.0994  0.0440  0.0302
18300W        W61212   0.362  32.637  23.894  0.1201  0.2438  0.0744
18301W        W61213   1.829  31.708  27.613  0.1695 -0.0155  0.1099
18302W        W61214   2.904  29.967  22.734  0.2275 -0.1069  0.0992
18303W        W61215   3.983  31.686  25.279  0.4084 -0.0507 -0.0295
18304W        W61216   3.741  30.449  23.954 -0.0772  0.0386 -0.0409
18305W        W61217   2.092  31.576  27.181 -0.2109  0.0856  0.0368
18306W        W61218   0.788  31.274  25.221  0.0561 -0.1583 -0.1051
18307W        W61219   0.636  30.708  23.955 -0.1480  0.0360  0.0979
18308W        W61220   0.957  31.038  25.715 -0.4349  0.1071 -0.0825
18309W        W61221   3.128  28.250  27.841  0.1062  0.2206 -0.0350
18310W        W61222  34.177  32.426  26.437  0.0496  0.1487 -0.5359
18311W        W61223   2.840  33.204  24.309  0.0723 -0.2500  0.0690
18312W        W61224   0.394  30.100  24.325  0.0144  0.0086  0.0300
18313W        W61225   2.660  30.448  23.507 -0.0413 -0.1525  0.0335
18314W        W61226   3.695  28.712  26.287  0.3455 -0.0152 -0.0892
18315W        W61227   0.695  31.960  22.472  0.2157 -0.1423  0.3617
18316W        W61228   1.521  30.659  25.114  0.2446  0.0278 -0.0532
18317W        W61229   1.072  32.995  24.488  0.2489  0.1114  0.0270
18318W        W61230   0.709  33.275  25.929 -0.0316  0.2724 -0.1016
18319W        W61231  34.396  32.544  25.236 -0.0296  0.1172  0.2008
18320W        W61232  33.672  30.415  23.710  0.2074  0.2867  0.1528
18321W        W61233   4.491  31.385  24.502  0.4331  0.0062 -0.3994
18322W        W61234   0.533  31.011  27.718  0.1745  0.1883 -0.0208
18323W        W61235   2.318  29.053  27.062 -0.2655  0.4111  0.0048
18324W        W61236   1.238  31.003  24.920  0.2111 -0.1228 -0.0758
18325W        W61237   2.512  29.550  24.996  0.1489  0.0302 -0.0200
18326W        W61238   1.341  30.682  26.241  0.2220 -0.1416  0.5386
18327W        W61239  34.675  30.626  25.933 -0.1363  0.2453  0.0094
18328W        W61240   1.134  31.065  23.647 -0.1421 -0.0473  0.2856
18329W        W61241   2.043  30.611  27.147 -0.0598 -0.0334  0.2498
18330W        W61242   1.605  31.901  23.642  0.1176 -0.2514 -0.1493
18331W        W61243   3.456  32.923  27.402 -0.0072  0.1124 -0.1586
18332W        W61244   0.526  30.791  24.505 -0.0952  0.3601  0.1264
18333W        W61245   2.129  28.713  24.039  0.0512  0.0719  0.1291
18334W        W61246   0.345  31.512  25.144  0.2703  0.1394  0.1139
18335W        W61247   1.764  31.261  27.335  0.3103  0.1438  0.3308
18336W        W61248   2.877  32.002  26.664  0.1450 -0.3256  0.2369
18337W        W61249  34.590  30.044  24.058 -0.2445 -0.0694  0.0178
18338W        W61250   2.902  31.597  24.123  0.1961 -0.1554  0.3281
18339W        W61251   2.250  31.301  26.421 -0.0635 -0.1788  0.1764
18340W        W61252   1.308  32.658  22.567  0.0508  0.0082 -0.1005
18341W        W61253   4.148  30.256  24.279 -0.0737  0.0073  0.0632
18342W        W61254   3.391  33.106  24.100  0.1767 -0.1451 -0.0072
18343W        W61255   0.416  30.020  25.280  0.1346 -0.1961 -0.2533
18344W        W61256   1.903  34.015  25.498  0.0948 -0.3988 -0.1980
18345W        W61257   2.974  29.556  25.287  0.1943 -0.1194  0.3637
18346W        W61258   2.589  28.244  24.547  0.1686 -0.1280  0.2552
18347W        W61259   0.476  30.503  25.348  0.0330 -0.4733  0.0173
18348W        W61260  34.044  32.346  25.604  0.0917  0.1278  0.0764
18349W        W61261   2.330  30.405  25.308  0.2084 -0.3066 -0.1805
18350W        W61262   2.518  29.435  27.410  0.0519 -0.1910  0.3564
18351W        W61263   0.296  31.549  22.663  0.1538 -0.0798  0.1253
18352W        W61264   3.409  28.733  27.976 -0.2720 -0.0239  0.2153
18353W        W61265   2.188  32.690  26.233 -0.0723  0.1759 -0.2947
18354W        W61266   1.479  32.944  27.472 -0.0001 -0.0305 -0.2157
18355W        W61267   1.170  32.141  23.489  0.2983  0.0703  0.4835
18356W        W61268   1.496  30.479  27.458  0.2165 -0.0863 -0.1884
18357W        W61269   1.485  31.098  24.072 -0.0300  0.1188  0.0145
18358W        W61270   1.084  32.144  25.160 -0.1750 -0.3514  0.2986
18359W        W61271   2.600  31.431  25.477  0.1436  0.1936 -0.2104
18360W        W61272   1.881  30.597  25.561  0.0249  0.0018  0.2197
18361W        W61273   2.977  31.709  25.699 -0.0998  0.0820  0.0106
18362W        W61274   0.628  30.163  25.715  0.1426  0.1543  0.4653
18363W        W61275   2.693  30.040  25.329  0.1678 -0.0073  0.0269
18364W        W61276   3.645  29.110  23.974  0.2809  0.2530  0.1524
18365W        W61277   1.397  32.164  26.278  0.1707 -0.0548  0.0715
18366W        W61278   0.839  31.104  24.619 -0.0456 -0.0023  0.1227
18367W        W61279   0.760  31.387  23.802 -0.0758 -0.4852 -0.0606
18368W        W61280   0.349  31.745  24.189  0.0018 -0.1466  0.0849
18369W        W61281   1.163  28.444  25.865  0.0731  0.2058 -0.2656
18370W        W61282   0.991  29.572  26.881  0.1120  0.3089  0.2907
18371W        W61283  34.617  32.226  25.517 -0.1024  0.1940  0.0421
18372W        W61284   0.664  28.855  25.353  0.0802 -0.6303 -0.0154
18373W        W61285   1.934  33.372  24.139  0.1968 -0.1099  0.1237
18374W        W61286   0.441  30.933  25.620  0.0444 -0.1257 -0.1542
18375W        W61287  34.594  30.268  25.119 -0.2600  0.1953  0.2635
18376W        W61288   3.411  30.976  23.624 -0.2149  0.4672 -0.2369
18377W        W61289   1.634  32.451  24.111 -0.0312  0.0798  0.2526
18378W        W61290   1.229  29.787  25.236  0.0143  0.0866  0.0689
18379W        W61291   4.103  32.013  27.343 -0.1828 -0.3627 -0.0686
18380W        W61292  34.525  30.988  23.787  0.2525  0.1058  0.0879
18381W        W61293   1.527  30.140  26.472 -0.0463  0.3079  0.1165
18382W        W61294   1.189  30.865  26.725 -0.0301 -0.1408  0.2836
18383W        W61295  34.099  31.003  23.120 -0.1029  0.3280  0.0726
18384W        W61296   1.741  29.749  26.607  0.0689 -0.1006  0.0762
18385W        W61297   4.128  31.690  24.289  0.1722 -0.2215 -0.2214
18386W        W61298   2.741  33.695  23.904  0.2274  0.0934  0.1681
18387W        W61299   1.346  31.168  26.037  0.1409  0.3372 -0.3059
18388W        W61300   1.797  34.044  26.961  0.0690 -0.2359 -0.0006
18389W        W61301   0.932  30.389  26.285  0.1540 -0.0075 -0.1467
18390W        W61302   2.927  32.827  24.653 -0.1227 -0.1249 -0.0970
18391W        W61303   2.141  33.685  26.285  0.3833  0.0838  0.0693
18392W        W61304   4.443  31.735  23.038 -0.3786 -0.1512  0.1602
18393W        W61305   3.152  29.071  25.461  0.1684  0.1461  0.2069
18394W        W61306   1.673  31.452  24.915  0.0513  0.0518 -0.2229
18395W        W61307   0.317  30.403  28.383  0.0580 -0.0306 -0.1278
18396W        W61308   1.785  31.017  26.450 -0.1509 -0.2392 -0.2341
18397W        W61309   4.073  30.244  25.325  0.0832  0.4216 -0.2717
18398W        W61310   0.564  28.408  26.148  0.2738 -0.1626 -0.1944
18399W        W61311   2.053  29.334  25.076  0.0782 -0.2428  0.1141
18400W        W61312   2.535  31.299  23.991 -0.2010  0.1415  0.0942
18401W        W61313  33.693  31.001  27.182  0.0542 -0.2494  0.3303
18402W        W61314   2.132  32.226  23.887 -0.1720 -0.1354 -0.1877
18403W        W61315   1.071  30.895  27.750 -0.0897  0.2153  0.0647
18404W        W61316   1.293  32.510  24.917 -0.3706  0.0342  0.1014
18405W        W61317   2.336  30.194  27.035  0.2598  0.0207 -0.3446
18406W        W61318   1.245  30.649  22.999  0.2412 -0.0574 -0.0725
18407W        W61319   3.856  31.266  24.329  0.3320 -0.1581 -0.4909
18408W        W61320   1.619  33.204  27.996  0.1033 -0.0317 -0.3523
18409W        W61321   2.778  32.965  26.940 -0.0233 -0.1545 -0.1912
18410W        W61322   1.722  32.472  26.739 -0.1480 -0.0982 -0.0816
18411W        W61323   3.038  29.777  24.829 -0.0881  0.1631  0.2303
18412W        W61324  34.402  30.456  26.500 -0.2443 -0.2418  0.1615
18413W        W61325   1.772  31.011  25.368  0.0576 -0.3363 -0.1704
18414W        W61326   2.087  31.794  24.713  0.1416  0.0561 -0.0444
18415W        W61327   1.545  29.627  25.769 -0.1107 -0.0158  0.1671
18416W        W61328   0.506  29.704  25.702  0.1981 -0.1221 -0.1254
18417W        W61329   2.231  29.300  22.804  0.1804 -0.2307  0.0587
18418W        W61330   1.225  31.738  26.657 -0.0146 -0.0388 -0.0264
18419W        W61331   2.228  30.300  24.775  0.0477  0.1974 -0.1097
18420W        W61332   1.230  32.479  29.194  0.1086 -0.0628  0.1107
18421W        W61333  34.675  30.832  28.986  0.0234 -0.0665  0.1805
18422W        W61334   2.017  29.320  27.466 -0.0785  0.0396  0.4041
18423W        W61335   1.692  31.051  28.680 -0.5026 -0.2582  0.2931
18424W        W61336   0.779  30.336  28.542  0.1106 -0.2214 -0.0081
18425W        W61337   3.424  32.994  27.874 -0.0403  0.0368 -0.2253
18426W        W61338   1.183  30.340  31.321 -0.1379 -0.2213  0.1653
18427W        W61339   3.389  33.356  30.498  0.0687 -0.0816 -0.0168
18428W        W61340   3.765  32.564  30.175  0.2260  0.2190 -0.1597
18429W        W61341   2.503  31.475  26.876  0.3005 -0.0857  0.3996
18430W        W61342   1.594  29.789  29.683  0.2178 -0.2007  0.0696
18431W        W61343   2.376  31.279  30.666 -0.1308 -0.1905  0.0255
18432W        W61344   1.460  29.380  29.518  0.1362 -0.1896  0.0077
18433W        W61345  34.537  29.133  29.941  0.2418 -0.1538  0.3852
18434W        W61346   2.776  30.722  28.473 -0.2938 -0.3141  0.1452
18435W        W61347  33.311  30.908  29.739 -0.1348 -0.3652  0.0266
18436W        W61348   2.086  30.749  29.080 -0.2246  0.0018 -0.0209
18437W        W61349   0.875  29.398  29.197  0.0931 -0.0146 -0.0029
18438W        W61350   1.912  32.819  29.261 -0.5761 -0.0639 -0.0563
18439W        W61351   1.714  30.205  30.178  0.0096  0.1973 -0.0784
18440W        W61352   1.881  29.196  30.485 -0.2955 -0.4795 -0.0472
18441W        W61353   1.550  32.773  28.362  0.1743  0.1133  0.0458
18442W        W61354  34.326  31.737  28.168  0.0213  0.1502 -0.0385
18443W        W61355   0.201  30.425  28.885 -0.1090  0.3148  0.1566
18444W        W61356   1.797  31.264   0.091 -0.1249  0.4122  0.0362
18445W        W61357   1.902  30.357  28.764 -0.1393 -0.0114  0.1975
18446W        W61358   2.094  32.593  29.706  0.4091  0.2590 -0.1441
18447W        W61359   1.229  31.600  29.367  0.1537  0.3809 -0.0038
18448W        W61360   1.439  32.035  29.348  0.0808 -0.0604  0.1487
18449W        W61361   2.506  30.415  31.214 -0.1109  0.0247  0.1935
18450W        W61362   0.089  31.706  28.479  0.0843 -0.1692  0.1750
18451W        W61363   0.311  32.799  29.639 -0.2255 -0.0848 -0.0926
18452W        W61364   1.291  32.741  29.654  0.1451  0.0189  0.3425
18453W        W61365   4.072  31.458  28.943 -0.0069 -0.0318  0.0630
18454W        W61366   1.850  31.154  31.390 -0.1801 -0.2193 -0.1987
18455W        W61367   2.454  33.105  30.494  0.0753  0.2528 -0.1103
18456W        W61368   1.343  32.488  27.518 -0.2705  0.1594  0.2124
18457W        W61369   2.962  33.254  30.660 -0.0474 -0.0019 -0.1023
18458W        W61370   0.468  31.249  31.935  0.0276  0.0368  0.1097
18459W        W61371   0.821  30.352  30.037 -0.1034  0.1533 -0.0639
18460W        W61372   0.981  31.685  28.781  0.0479 -0.0145 -0.0259
18461W        W61373   1.591  33.365  28.512  0.2151  0.0929  0.1501
18462W        W61374   1.640  31.125  29.167 -0.0320 -0.4465  0.2363
18463W        W61375   1.561  31.752   0.442 -0.2258 -0.2790 -0.1841
18464W        W61376  34.415  31.386  30.590 -0.1943 -0.1881 -0.1501
18465W        W61377   3.338  29.110  31.982 -0.4576 -0.1744 -0.0657
18466W        W61378   1.221  32.827  27.898 -0.1082 -0.2098  0.2334
18467W        W61379   2.658  30.222  27.813 -0.1654  0.0649  0.3944
18468W        W61380   1.021  30.225  27.218  0.1847 -0.0782  0.3879
18469W        W61381   2.279  29.893  28.061 -0.2234 -0.1454 -0.0117
18470W        W61382   0.987  29.297  28.709  0.1137 -0.3272  0.4750
18471W        W61383   1.695  33.052  31.552 -0.2074  0.1141 -0.1144
18472W        W61384   1.416  31.051  30.402 -0.1329  0.0235  0.0172
18473W        W61385   2.846  30.797  29.552  0.2465 -0.2849 -0.0400
18474W        W61386   1.393  31.375  30.757  0.3143  0.3517 -0.2844
18475W        W61387   1.216  31.045  29.469  0.0230 -0.1052 -0.2525
18476W        W61388   1.651  32.032  30.747 -0.0945 -0.3007 -0.0405
18477W        W61389   0.534  30.923  30.054  0.0155 -0.3433 -0.0038
18478W        W61390   3.661  32.286  27.202  0.0845 -0.2766  0.1024
18479W        W61391   4.655  31.533  27.663  0.3111  0.0267 -0.2311
18480W        W61392   2.143  31.555  28.001 -0.1029 -0.2151 -0.1986
18481W        W61393   0.217  30.877  28.102  0.2317  0.1512  0.4697
18482W        W61394  34.522  31.233  31.176 -0.1072 -0.2792 -0.0962
18483W        W61395   1.460  31.064  31.821  0.5167  0.0934  0.0942
18484W        W61396   0.864  29.911  28.034 -0.1498  0.4230  0.3365
18485W        W61397   4.459  31.781  30.824 -0.1357 -0.1020  0.0577
18486W        W61398   1.079  31.738  30.984  0.0191  0.3090 -0.0511
18487W        W61399   2.681  29.714  28.305 -0.0796 -0.1666  0.0171
18488W        W61400   1.687  31.847  28.028  0.0814 -0.1261 -0.0698
18489W        W61401   3.168  32.455  30.180 -0.0913  0.2021 -0.0274
18490W        W61402   2.463  30.436  26.616 -0.0444  0.3356 -0.0280
18491W        W61403   2.206  27.368  27.415  0.2972  0.1795 -0.0912
18492W        W61404   3.093  30.237  29.565  0.2223 -0.0920  0.0036
18493W        W61405   0.284  32.168  28.625  0.0521  0.0683 -0.0877
18494W        W61406   2.696  31.964  30.140  0.0952 -0.0509  0.2255
18495W        W61407   3.297  30.638  29.736 -0.0226 -0.0454 -0.2646
18496W        W61408   3.039  30.399  28.102  0.0784 -0.2128 -0.0607
18497W        W61409   1.887  31.565  29.903  0.0055  0.0757  0.0583
18498W        W61410   1.713  30.172  29.341  0.6117  0.3243 -0.1797
18499W        W61411   2.397  32.494   0.785  0.2535  0.0470  0.1531
18500W        W61412   0.021  32.649  28.249  0.1155 -0.1205 -0.0224
18501W        W61413  34.294  30.663  29.766 -0.3637  0.2242  0.4243
18502W        W61414   0.146  31.989  29.429 -0.0924 -0.2194 -0.0750
18503W        W61415   0.748  28.036  29.595  0.0606 -0.0023 -0.0994
18504W        W61416   1.422  31.784  29.845  0.4204 -0.0426 -0.0279
18505W        W61417   1.458  31.618  28.951 -0.2792 -0.0504  0.2542
18506W        W61418   0.259  29.510  30.495 -0.0278  0.1200 -0.3204
18507W        W61419   3.001  27.435  29.612  0.2215  0.3580 -0.2172
18508W        W61420   0.411  32.364  28.010 -0.1564 -0.1833  0.0586
18509W        W61421   3.727  32.827  28.272 -0.2902  0.1901  0.0698
18510W        W61422   2.411  31.013  28.714 -0.2327  0.1744  0.2401
18511W        W61423   2.354  30.416  28.192 -0.1405 -0.0462  0.1846
18512W        W61424  33.764  30.293  30.413 -0.0604  0.2077  0.1978
18513W        W61425   1.161  30.527  28.152  0.1440 -0.3724 -0.1254
18514W        W61426   1.023  29.487  31.795  0.2972  0.2966 -0.1415
18515W        W61427   0.800  30.275  29.552 -0.0034  0.0371  0.0830
18516W        W61428   3.101  31.205  31.469 -0.1345  0.0683 -0.0805
18517W        W61429  34.328  30.892  27.969  0.3840 -0.3321 -0.2260
18518W        W61430   2.808  31.032  29.042 -0.0346  0.4364 -0.2085
18519W        W61431   1.067  30.689  28.703 -0.1342  0.1399  0.1126
18520W        W61432  33.267  31.580  27.834 -0.4034 -0.1312  0.0868
18521W        W61433   2.836  30.070  31.262  0.0522 -0.0265 -0.0165
18522W        W61434   3.284  31.381  28.347 -0.2155 -0.4373 -0.3055
18523W        W61435   3.103  34.019  31.779  0.2435  0.0564  0.1931
18524W        W61436   3.184  31.990  29.284 -0.2499 -0.2825  0.0640
18525W        W61437   1.274  30.536  30.299 -0.1341 -0.2083  0.2820
18526W        W61438  34.477  30.507  27.648  0.4572 -0.2842  0.1788
18527W        W61439   0.789  32.157  28.712 -0.0877 -0.0470  0.1244
18528W        W61440   0.415  31.724  28.833  0.0491 -0.0570  0.0334
18529W        W61441   0.433  30.833  28.737 -0.0053  0.2170 -0.0011
18530W        W61442   3.363  32.881  31.008  0.1836 -0.0292 -0.1350
18531W        W61443   1.297  32.284  28.023 -0.3025  0.1710 -0.2461
18532W        W61444   0.602  31.158  30.537 -0.0384  0.0040 -0.1020
18533W        W61445   2.314  30.001  28.659 -0.0251 -0.0908  0.0066
18534W        W61446   3.192  31.945  29.956 -0.1362 -0.2541 -0.2691
18535W        W61447   1.995  31.456  28.851  0.1315 -0.2439 -0.3299
18536W        W61448  33.640  29.308  28.789  0.0828 -0.1658  0.4333
18537W        W61449   3.076  32.706  29.705 -0.2247  0.1645  0.0818
18538W        W61450   0.017  33.913  26.239 -0.3207 -0.1839 -0.1631
18539W        W61451   1.166  30.664  29.851  0.1275 -0.0477  0.0998
18540W        W61452   2.266  31.557  29.646 -0.0229 -0.1574 -0.1418
18541W        W61453   2.667  28.744  28.588  0.0947 -0.3377 -0.2870
18542W        W61454   0.810  30.533  31.073  0.0016 -0.0839  0.1152
18543W        W61455   2.400  30.122  30.377  0.2010  0.0217  0.2761
18544W        W61456  33.506  31.505  28.359 -0.0999 -0.2802  0.1494
18545W        W61457   0.228  32.098  30.323 -0.0480  0.0669 -0.2396
18546W        W61458   1.071  28.768  27.212  0.1508  0.0960  0.3366
18547W        W61459   2.860  29.749  26.993  0.0506  0.0989  0.1919
18548W        W61460   1.325  30.568  31.781  0.0032 -0.0953  0.1346
18549W        W61461   1.934  31.762  28.452 -0.0414 -0.0559 -0.0629
18550W        W61462   3.181  31.035  26.728 -0.0538  0.0904  0.1208
18551W        W61463   0.609  29.924  27.121 -0.0595  0.0110  0.0011
18552W        W61464   1.745  31.695  31.719  0.1083  0.1166  0.1541
18553W        W61465   2.213  32.071  28.725  0.1833  0.1093 -0.0363
18554W        W61466   3.063  30.426  30.945  0.0929  0.0199  0.0289
18555W        W61467   2.153  30.872  28.068  0.1483 -0.3903 -0.2535
18556W        W61468   2.559  31.862  28.189  0.0258  0.4005 -0.0315
18557W        W61469   0.204  32.605  30.419  0.0265 -0.0897  0.2379
18558W        W61470   2.076  31.815  30.910 -0.2225 -0.0772  0.0368
18559W        W61471   1.684  31.908  30.248 -0.2534  0.1098  0.1305
18560W        W61472   1.560  30.637  29.003  0.2016  0.0100 -0.0915
18561W        W61473   1.718  32.293  28.451  0.2490  0.3868  0.0568
18562W        W61474   1.666  28.035  28.978 -0.3207  0.1450  0.0887
18563W        W61475   0.257  33.026  26.003  0.1114 -0.0650  0.1350
18564W        W61476   3.092  29.481  29.790 -0.1667  0.0710  0.1804
18565W        W61477   1.385  30.220  29.781 -0.0253  0.2027 -0.1328
18566W        W61478   3.258  29.250  31.396 -0.1061 -0.2128 -0.1304
18567W        W61479   3.524  30.242  30.711  0.2445 -0.0858  0.0802
18568W        W61480   2.009  30.411  27.830 -0.0590  0.0034 -0.0024
18569W        W61481   2.530  30.543  29.913  0.1448 -0.3022 -0.1514
18570W        W61482   1.634  30.599  26.593 -0.0924 -0.1440  0.1200
18571W        W61483   2.759  28.548  30.378  0.0699 -0.2540  0.2026
18572W        W61484   2.021  32.246  30.136 -0.1684 -0.0355  0.1721
18573W        W61485   1.565  32.548  31.882 -0.1753 -0.1049  0.0751
18574W        W61486   3.081  32.411  30.624 -0.3876 -0.3462  0.1371
18575W        W61487   2.892  32.539  28.660  0.0433 -0.1272  0.2473
18576W        W61488   1.739  30.583  30.506 -0.1788  0.1393 -0.0109
18577W        W61489   1.533  30.244  27.905 -0.1898  0.3100  0.2507
18578W        W61490   1.380  32.910  28.868 -0.0545  0.1993 -0.1119
18579W        W61491   1.531  31.710  27.176 -0.2813 -0.2860  0.0467
18580W        W61492   1.979  28.988  29.764  0.0327 -0.1949  0.0730
18581W        W61493   2.923  31.553  30.163  0.0521  0.1474  0.0624
18582W        W61494   0.629  32.907  26.305 -0.1033 -0.2045 -0.0725
18583W        W61495   3.520  32.250  29.638  0.2069 -0.3315 -0.0770
18584W        W61496   0.379  31.322  28.344  0.0220  0.0170 -0.2695
18585W        W61497   2.350  31.134  31.194  0.1276 -0.0210  0.1067
18586W        W61498  34.318  31.300  29.165 -0.0180  0.0494 -0.0244
18587W        W61499  33.776  31.494  27.843  0.1075 -0.1350 -0.3522
18588W        W61500  34.068  30.296  29.353 -0.0298  0.0355 -0.2104
18589W        W61501   3.238  27.834  29.397 -0.1724 -0.3318 -0.1157
18590W        W61502   0.819  31.290  27.472 -0.2467  0.0854 -0.1285
18591W        W61503   0.337  30.323  29.801 -0.1075  0.0244  0.0227
18592W        W61504   1.191  28.993  29.283 -0.1180 -0.3205 -0.3235
18593W        W61505   0.587  32.871  30.918 -0.2763 -0.0703 -0.0444
18594W        W61506   4.328  31.291  29.872 -0.2686  0.0357  0.1514
18595W        W61507   4.013  29.525  28.854  0.0594 -0.3618  0.0915
18596W        W61508   3.094  31.871  30.511  0.2522  0.0535 -0.0169
18597W        W61509   1.888  31.334  30.939  0.1382  0.0108  0.2413
18598W        W61510  34.596  31.009  27.519 -0.1168 -0.1381  0.0819
18599W        W61511   4.116  30.503  29.481 -0.0461  0.1304  0.1049
18600W        W61512   1.061  30.264  27.721 -0.0838 -0.0726 -0.1163
18601W        W61513   1.734  31.590  29.339 -0.0179 -0.0155 -0.0429
18602W        W61514   2.225  31.855  30.424  0.0678  0.3465 -0.1953
18603W        W61515   1.461  32.017  27.609  0.1426 -0.1822  0.0137
18604W        W61516   0.846  32.011  27.971 -0.0813  0.0141  0.0620
18605W        W61517   2.039  30.259  31.377 -0.1473 -0.0660  0.0511
18606W        W61518   3.311  30.734  31.519 -0.2495 -0.1822 -0.1657
18607W        W61519   0.188  29.522  28.439  0.0209  0.0402  0.0122
18608W        W61520   0.247  30.545  27.780 -0.1288  0.1213  0.0595
18609W        W61521   1.708  30.883  27.665  0.0037  0.3893 -0.0631
18610W        W61522   2.591  32.191  28.999  0.0513 -0.0698 -0.0523
18611W        W61523   3.313  30.361  30.187 -0.0899  0.2371 -0.0055
18612W        W61524   1.093  30.880   0.469  0.5086  0.1185  0.0817
18613W        W61525   2.587  27.686  29.716  0.1671 -0.4145 -0.1682
18614W        W61526   4.305  32.725  27.279  0.0021 -0.0411 -0.1237
18615W        W61527   2.893  30.933  30.024 -0.0310 -0.1531 -0.2480
18616W        W61528   0.231  32.675  27.663  0.0009  0.2431  0.0067
18617W        W61529  33.522  30.561  30.029 -0.0274  0.0252  0.1479
18618W        W61530   1.686  32.468  29.510  0.0028  0.4743  0.2509
18619W        W61531   1.215  29.002  29.756  0.0877  0.3846 -0.2821
18620W        W61532  34.452  31.204  30.109  0.3984  0.0130 -0.0593
18621W        W61533   0.457  33.290  27.682  0.0278  0.3611 -0.2719
18622W        W61534   0.678  32.633  31.408  0.4708  0.1494 -0.0425
18623W        W61535   3.862  29.081  28.148  0.1506  0.0806  0.2230
18624W        W61536   1.296  32.061  28.837  0.0092  0.0699  0.0121
18625W        W61537   2.541  30.462  28.855  0.0961 -0.2619 -0.3759
18626W        W61538   3.691  29.626  29.836 -0.2712 -0.2118 -0.0372
18627W        W61539   1.886  30.199  28.280  0.1547  0.1205 -0.0480
18628W        W61540   2.062  30.752  31.111  0.0537  0.0927  0.1114
18629W        W61541   0.823  30.721  30.408  0.0094  0.0532  0.0832
18630W        W61542   2.970  31.488  28.761  0.1774 -0.3617  0.1539
18631W        W61543   1.137  30.395   0.203  0.3088  0.0573 -0.3501
18632W        W61544   3.408  32.615   0.005  0.2513  0.1872 -0.3955
18633W        W61545  34.257  32.551   0.351  0.0590  0.1435 -0.2869
18634W        W61546   2.602  29.240  28.448  0.0782  0.1007 -0.0587
18635W        W61547   0.673  30.372  28.023  0.3684  0.0662 -0.1273
18636W        W61548   1.482  31.139  29.885  0.0379  0.0535 -0.0440
18637W        W61549   2.702  31.329  28.310  0.0072 -0.1758 -0.0174
18638W        W61550   1.313  31.285  27.554  0.1975 -0.1578 -0.0163
18639W        W61551   2.854  29.784  29.416 -0.2711  0.0531  0.0341
18640W        W61552   0.929  31.538  30.593  0.2229  0.1978 -0.0103
18641W        W61553   2.311  31.773  29.185 -0.2255 -0.0869 -0.0458
18642W        W61554   1.394  30.110  28.388 -0.2711 -0.1008  0.3396
18643W        W61555   0.972  31.262  28.379  0.2663 -0.0839 -0.0255
18644W        W61556   1.109  29.042  31.054  0.0350  0.6451  0.0344
18645W        W61557   0.860  30.857  29.168 -0.1766  0.0633  0.1912
18646W        W61558   3.064  28.977  28.298  0.2331 -0.0023 -0.3569
18647W        W61559   2.935  29.783  30.388 -0.1612 -0.1464  0.0753
18648W        W61560   2.034  31.274  28.380 -0.6499 -0.1007  0.3862
18649W        W61561   2.061  30.931  30.625  0.1409  0.2440  0.0172
18650W        W61562  34.562  28.620  30.024 -0.2315 -0.2630  0.1822
18651W        W61563   1.851  32.051  29.750  0.2667  0.1245 -0.0985
18652W        W61564   2.774  31.521  29.231 -0.0150  0.3701  0.2522
18653W        W61565   3.436  29.832  29.455  0.0658 -0.2731  0.0365
18654W        W61566   2.819  29.289  27.944 -0.0049 -0.1739  0.1704
18655W        W61567   3.015  31.112  27.986  0.2033  0.0533 -0.2524
18656W        W61568   0.210  28.900  29.732 -0.1773 -0.0151  0.0812
18657W        W61569   4.107  31.899  31.245 -0.3177  0.0048  0.0587
18658W        W61570   1.698  30.731  28.135  0.2648 -0.0457  0.0305
18659W        W61571   2.766  28.908  30.709  0.0250  0.3013 -0.3409
18660W        W61572   0.477  32.261  29.181 -0.1628 -0.1709 -0.1785
18661W        W61573   2.562  32.477  29.391  0.1240 -0.2021  0.1339
18662W        W61574   1.490  30.556  28.530 -0.2585 -0.0609 -0.2517
18663W        W61575  34.152  31.212  29.686 -0.4431 -0.1485 -0.1503
18664W        W61576   1.141  34.078  31.587 -0.2250 -0.1605 -0.2688
18665W        W61577   0.153  31.304  27.910  0.1661  0.2182 -0.0704
18666W        W61578   0.459  32.601  28.525 -0.1434 -0.1471 -0.0764
18667W        W61579   2.839  32.188  29.669 -0.2164 -0.0723 -0.0781
18668W        W61580   3.674  31.257  30.563  0.1968 -0.2827  0.0580
18669W        W61581   1.617  29.956  28.786 -0.3243 -0.1618  0.1923
18670W        W61582   3.735  29.471  31.546  0.0573 -0.3055  0.0225
18671W        W61583   1.031  32.117  27.393  0.0300  0.1324 -0.2105
18672W        W61584   1.551  29.455  27.640 -0.0080  0.0789 -0.1839
18673W        W61585   0.756  32.923  30.406  0.0903 -0.0692 -0.3806
18674W        W61586   1.314  31.612  30.250 -0.0534 -0.0294  0.0041
18675W        W61587   0.916  32.468  30.680  0.0274 -0.1796  0.0921
18676W        W61588   2.281  28.645  29.498 -0.1578 -0.2940 -0.3179
18677W        W61589   1.957  31.130  29.548  0.3065 -0.0511 -0.0778
18678W        W61590   1.141  30.492  29.308  0.1336 -0.1887 -0.2773
18679W        W61591   4.317  32.258  30.852 -0.0344 -0.1466  0.0523
18680W        W61592   1.814  31.496  30.488 -0.1313  0.0004 -0.2584
18681W        W61593   0.713  30.403  28.997 -0.0952 -0.3260 -0.0565
18682W        W61594   2.857  33.100  31.216 -0.2096  0.0468 -0.2271
18683W        W61595   2.344  32.110  29.666 -0.1016  0.0027 -0.0318
18684W        W61596   0.661  32.425  30.236  0.2086  0.1943  0.1217
18685W        W61597   0.502  31.633  30.414  0.1639 -0.0124  0.0994
18686W        W61598   2.094  31.603  31.344 -0.1006  0.0848  0.0599
18687W        W61599   0.757  31.034  29.594  0.1759 -0.2661  0.0065
18688W        W61600   1.785  29.081  28.687  0.1585  0.0885 -0.0958
18689W        W61601   1.744  32.505  28.929 -0.0225  0.2848  0.1017
18690W        W61602   2.258  32.073   0.375 -0.2115  0.1109  0.1078
18691W        W61603  34.031  30.460  31.250  0.1022 -0.0105  0.0996
18692W        W61604   1.102  33.303  28.778 -0.3104  0.1615  0.2710
18693W        W61605   2.412  30.530  27.530 -0.1562 -0.1040  0.0118
18694W        W61606   1.154  31.926  28.341  0.0195  0.0183 -0.2150
18695W        W61607   1.551  32.415  29.979 -0.2047  0.3705 -0.0280
18696W        W61608   1.138  29.500  28.251 -0.3945 -0.1577  0.1947
18697W        W61609   1.169  32.266  29.636 -0.0297 -0.0563  0.1440
18698W        W61610   0.694  32.452  27.200 -0.1352 -0.3447  0.2947
18699W        W61611   3.289  32.319  28.444  0.0486 -0.2975 -0.1368
18700W        W61612   1.309  34.274  29.891 -0.1327  0.2048  0.2872
18701W        W61613   2.725  31.680  29.751  0.2030 -0.0297  0.0923
18702W        W61614   3.376  29.285  27.986  0.2252 -0.0521  0.2171
18703W        W61615   3.189  31.301  27.531  0.0133 -0.0628  0.0685
18704W        W61616   2.334  29.871  29.542 -0.0782  0.0818 -0.0320
18705W        W61617   3.308  32.815  31.469 -0.1284  0.2983 -0.3767
18706W        W61618   1.696  29.339  29.949 -0.3526  0.0454  0.2060
18707W        W61619   1.519  29.491  28.609 -0.0646  0.1791  0.1103
18708W        W61620   1.339  31.315  31.249  0.2208  0.1944  0.0584
18709W        W61621   3.905  29.582  30.706  0.0701 -0.1507 -0.3107
18710W        W61622   0.994  32.228  31.549 -0.3248 -0.3313  0.1137
18711W        W61623   3.829  32.957  28.883 -0.1057 -0.2476 -0.1159
18712W        W61624  34.644  30.507  29.377  0.1959 -0.0128  0.2168
18713W        W61625   0.857  30.151  30.518 -0.1108  0.0502  0.0787
18714W        W61626   5.409  29.204  30.264 -0.4295  0.0293  0.0806
18715W        W61627   2.341  31.148  27.690 -0.2101 -0.1817 -0.1460
18716W        W61628   2.428  31.651  28.634 -0.3054  0.1145 -0.1925
18717W        W61629   1.962  33.219  30.257  0.0187 -0.0291 -0.0052
18718W        W61630   0.692  31.503  29.288  0.3143 -0.2391 -0.0127
18719W        W61631   2.147  32.766  30.170  0.0795 -0.0112  0.2909
18720W        W61632  34.079  29.780  27.070  0.1951  0.2610  0.1003
18721W        W61633   4.293  30.573  28.776 -0.0557  0.0449 -0.0560
18722W        W61634   0.971  31.121  30.118 -0.0223  0.0014 -0.0976
18723W        W61635   3.746  30.178  29.785 -0.0972  0.0419  0.1630
18724W        W61636   0.466  30.609  29.394  0.0635  0.1951 -0.0194
18725W        W61637   3.847  30.407  28.933  0.3296 -0.0093  0.2985
18726W        W61638   1.116  30.830  30.784  0.1977 -0.2297 -0.1970
18727W        W61639  34.600  30.394  30.135  0.1153 -0.0599 -0.1247
18728W        W61640   1.806  31.973  28.934 -0.0587  0.3274  0.0296
18729W        W61641   2.745  30.531  30.384 -0.1023 -0.1676 -0.3578
18730W        W61642  33.756  31.028  27.708 -0.0947  0.0665  0.0285
18731W        W61643   3.563  33.773  29.965 -0.0807  0.1894 -0.0551
18732W        W61644   0.408  29.286  29.347  0.0182 -0.2913  0.0827
18733W        W61645   2.256  29.411  28.000 -0.1049  0.1067 -0.1409
18734W        W61646   0.251  31.333  29.798  0.1317  0.0184 -0.2591
18735W        W61647   1.571  30.742  29.509  0.4052 -0.1654  0.1390
18736W        W61648   2.939  32.906  29.305 -0.0136 -0.1563 -0.2448
18737W        W61649   1.084  28.473  29.423  0.2777  0.0094 -0.0718
18738W        W61650   2.282  31.078  27.147 -0.2017 -0.1802  0.1422
18739W        W61651   4.240  30.341  28.352  0.0172  0.0073 -0.0429
18740W        W61652   2.721  33.599  27.889  0.2473 -0.0216  0.2118
18741W        W61653   1.816  32.724  27.885 -0.1675 -0.3190  0.1488
18742W        W61654   3.532  33.387  29.553  0.0194  0.1933 -0.3076
18743W        W61655   0.232  30.077  30.430  0.1800  0.1064  0.0075
18744W        W61656   2.859  32.060  30.920 -0.1611  0.0703 -0.2418
18745W        W61657   2.428  30.924  30.231 -0.1377 -0.0516 -0.0383
18746W        W61658   1.893  29.032  27.861 -0.3089  0.1088  0.0065
18747W        W61659   0.554  29.896  30.816  0.3494 -0.3304  0.3505
18748W        W61660   0.953  32.002  29.173 -0.1245  0.1267 -0.0182
18749W        W61661   1.806  30.018  30.632 -0.1534  0.2224  0.0731
18750W        W61662   2.650  31.268  31.626  0.3441 -0.0988  0.4625
18751W        W61663   2.340  32.934  27.350 -0.1609  0.1110  0.1550
18752W        W61664   3.840  27.769  29.531  0.0551  0.1003  0.2384
18753W        W61665   0.684  30.837  31.536  0.0152 -0.1071  0.0549
18754W        W61666   2.072  32.631  31.663  0.5521  0.0324  0.1838
18755W        W61667  34.634  30.990  29.481 -0.0183  0.1835 -0.1371
18756W        W61668   2.778  31.333  30.979 -0.0533 -0.3915  0.0080
18757W        W61669   0.373  31.136  29.210  0.3881  0.2474 -0.0427
18758W        W61670   3.298  32.871  28.654  0.1327  0.2447  0.1112
18759W        W61671   2.823  32.900  30.244  0.0096 -0.1895  0.1659
18760W        W61672   1.201  30.194  28.909 -0.0612  0.2330  0.0695
18761W        W61673   3.082  31.289  29.664  0.2361  0.0616 -0.1936
18762W        W61674   0.708  28.716  28.487 -0.2600  0.0713 -0.1348
18763W        W61675   4.050  30.853  27.271 -0.0765  0.1014 -0.1102
18764W        W61676   3.518  28.235  29.302  0.0799 -0.1851 -0.1909
18765W        W61677   0.401  31.370  31.451  0.4324  0.3560  0.0417
18766W        W61678  33.262  31.315  28.897 -0.0044 -0.1534  0.1831
18767W        W61679   2.168  30.815  26.688  0.2120  0.0597  0.3030
18768W        W61680   0.053  30.844  29.932 -0.0329 -0.0985 -0.2534
18769W        W61681   2.153  30.407  30.778  0.2421 -0.0707  0.0567
18770W        W61682   0.304  30.084  31.620 -0.1067 -0.1646 -0.0865
18771W        W61683   0.634  31.616  31.048 -0.2218  0.0152  0.4122
18772W        W61684   1.329  28.495  28.272  0.0673  0.0513 -0.0461
18773W        W61685   3.203  31.625  27.933  0.1902  0.1438 -0.1512
18774W        W61686   1.270  29.640  29.044 -0.0360  0.0728 -0.2762
18775W        W61687  34.048  29.181  29.649  0.4952  0.0670  0.1113
18776W        W61688   3.323  30.928  29.187 -0.2178 -0.4085  0.3434
18777W        W61689   3.279  31.958  27.480 -0.0248  0.0509 -0.3046
18778W        W61690   2.086  29.569  28.519 -0.3143 -0.3438 -0.1013
18779W        W61691   4.882  32.366  30.203 -0.1629 -0.2696  0.0922
18780W        W61692   1.449  32.232  27.071  0.2215 -0.3661 -0.2887
18781W        W61693   2.402  31.358   0.091 -0.1695  0.0525  0.4427
18782W        W61694   1.941  29.586  31.357  0.0018 -0.3622  0.0862
18783W        W61695  34.408  29.383  27.137  0.2794  0.1193 -0.2486
18784W        W61696   1.336  31.042  28.162  0.0501 -0.1188 -0.2154
18785W        W61697   2.813  30.138  28.509 -0.1810  0.1796  0.1530
18786W        W61698   1.459  31.468  28.464 -0.1138  0.1792  0.0883
18787W        W61699   1.620  32.621  31.384 -0.2937  0.0132 -0.0561
18788W        W61700   1.308  32.210  31.137  0.1385 -0.0064 -0.0206
18789W        W61701   0.356  30.620  30.406 -0.0018 -0.0578  0.3333
18790W        W61702   1.672  31.294  27.930  0.3374 -0.0367 -0.0147
18791W        W61703   1.970  30.419  31.886  0.2778  0.0274 -0.0170
18792W        W61704   4.110  31.534  27.578  0.0951 -0.0411  0.1907
18793W        W61705   2.201  28.175  28.817 -0.0710 -0.4610 -0.0293
18794W        W61706   1.470  29.979  27.445 -0.0752  0.0252  0.0838
18795W        W61707   0.683  29.325  30.239  0.1712  0.0531 -0.2898
18796W        W61708  34.322  30.007  31.438 -0.1951  0.0175 -0.1806
18797W        W61709   2.946  30.562  29.050  0.2409 -0.0068  0.0640
18798W        W61710   0.307  29.974  28.709 -0.1213 -0.0645  0.0394
18799W        W61711   2.260  29.276  28.933 -0.2895  0.2668 -0.2954
18800W        W61712   2.302  32.718  28.969 -0.0407 -0.0576  0.1719
18801W        W61713   0.067  30.026  31.181  0.1116 -0.0248 -0.2086
18802W        W61714   1.761  29.642  28.131 -0.0978  0.0876  0.0798
18803W        W61715   1.919  31.106  30.171 -0.0697  0.1364  0.0023
18804W        W61716   2.551  31.170  29.705  0.0221  0.0983 -0.0329
18805W        W61717   3.554  32.139  30.388 -0.0735  0.1790  0.3070
18806W        W61718   0.393  29.945  28.227  0.0460  0.2044 -0.1779
18807W        W61719   2.668  31.523  27.866  0.1581 -0.2183 -0.2152
18808W        W61720   2.675  31.690  30.627 -0.0384  0.1801 -0.2625
18809W        W61721   3.296  33.573   1.366  0.0608  0.0520 -0.0445
18810W        W61722   1.134  32.697  31.188 -0.1787  0.1655  0.1648
18811W        W61723   4.035  30.982  28.993  0.0144  0.3234  0.3389
18812W        W61724   0.310  29.366  29.919 -0.1742  0.0106  0.1117
18813W        W61725   1.175  29.980  29.399 -0.0955 -0.0059  0.0197
18814W        W61726   0.103  31.318  28.803 -0.1332  0.0432  0.1598
18815W        W61727   2.321  30.743  29.532 -0.0872 -0.1749 -0.2136
18816W        W61728   2.057  30.766  28.525 -0.3591 -0.1078 -0.0701
18817W        W61729   2.082  28.561  27.883 -0.4037 -0.0959  0.0900
18818W        W61730   2.515  33.320  31.536 -0.1619  0.1373  0.0643
18819W        W61731   1.059  29.692  30.344  0.1801  0.2479  0.0076
18820W        W61732   3.121  31.027  30.887 -0.2827  0.4109 -0.1010
18821W        W61733   1.950  29.905  31.775  0.1457  0.0299 -0.2936
18822W        W61734   1.215  30.089   0.641  0.1104 -0.3049  0.0115
18823W        W61735   0.855  31.168  31.137  0.4316  0.2643  0.1183
18824W        W61736   1.453  32.978   0.139 -0.0323  0.0787 -0.0489
18825W        W61737   2.086  31.616   1.210  0.2242 -0.1331  0.1554
18826W        W61738   3.676  30.554  31.835  0.2748 -0.1671 -0.2172
18827W        W61739   1.657  30.713  31.428  0.0619  0.4820  0.1296
18828W        W61740   3.658  29.896  31.040  0.0037  0.2877  0.1574
18829W        W61741   3.728  32.180   0.730 -0.0198 -0.0746 -0.1030
18830W        W61742   1.954  31.437   0.595 -0.1236 -0.2314  0.2520
18831W        W61743   1.423  29.281   0.060 -0.1018  0.3728  0.1155
18832W        W61744   3.138  31.782  31.324  0.2119  0.2726  0.1211
18833W        W61745   0.847  30.297  31.679  0.0845 -0.2161  0.0828
18834W        W61746   2.388  29.901  31.411 -0.1863 -0.2807 -0.0544
18835W        W61747   2.169  32.156  31.485  0.3102 -0.0874  0.0121
18836W        W61748   0.204  31.337  30.903  0.0619  0.0592 -0.3178
18837W        W61749   2.425  32.332  31.084  0.0328 -0.1983 -0.2943
18838W        W61750   1.541  29.729  30.242 -0.0410  0.2125  0.0445
18839W        W61751  34.687  28.646  30.542  0.2583 -0.1134  0.3287
18840W        W61752   0.521  28.355  31.359 -0.3211  0.0227  0.4849
18841W        W61753   0.961  31.800   0.542 -0.2965 -0.0406  0.0115
18842W        W61754   5.226  29.712  30.903 -0.1012 -0.0574 -0.1371
18843W        W61755   2.841  29.924  31.763  0.0281 -0.2104 -0.2162
18844W        W61756   1.113  29.529  31.293  0.0136 -0.0002  0.0435
18845W        W61757   1.611  30.813   0.223 -0.1202 -0.2921  0.2640
18846W        W61758   2.174  31.221  31.698 -0.0847  0.2928  0.0387
18847W        W61759  34.568  33.500  31.507 -0.1815 -0.0193  0.1818
18848W        W61760   0.763  30.018  31.260  0.0634  0.0479 -0.1919
18849W        W61761   2.581  31.708  31.208 -0.2461 -0.0703 -0.1503
18850W        W61762   2.433  31.486  30.166  0.3004  0.0304 -0.0353
18851W        W61763   1.272  29.129  31.534 -0.0519 -0.1527  0.0147
18852W        W61764   2.920  32.559  31.794  0.2048 -0.2975 -0.4303
18853W        W61765   3.192  30.562   0.755 -0.0105  0.1284 -0.0162
18854W        W61766  34.469  29.950  31.941 -0.0035  0.2946  0.0265
18855W        W61767   1.340  31.484   0.086  0.1226  0.3445 -0.2449
18856W        W61768   0.762  32.143  31.118  0.0649 -0.1601  0.1553
18857W        W61769   2.556  31.710   1.252  0.0940 -0.1555  0.1744
18858W        W61770   2.068  31.123   1.045  0.0754  0.1843  0.2381
18859W        W61771   2.955  31.700  31.789  0.0091 -0.1338 -0.2529
18860W        W61772   2.188  29.971  30.963  0.0538 -0.1581 -0.1411
18861W        W61773   3.230  30.786  30.453  0.2085 -0.2197 -0.1204
18862W        W61774   1.386  29.133   0.574 -0.0986 -0.1985  0.1956
18863W        W61775   0.212  32.242  31.239  0.0111 -0.0607 -0.0971
18864W        W61776  33.963  29.667  31.613 -0.2970 -0.1390 -0.1389
18865W        W61777   1.807  30.860   0.682  0.0683  0.1892 -0.2331
18866W        W61778   1.546  29.645  31.649 -0.1185 -0.1829  0.3394
18867W        W61779   2.428  31.687  31.734 -0.2486 -0.0131  0.0472
18868W        W61780   3.309  31.545  30.927  0.1949 -0.1657  0.0689
18869W        W61781   0.729  32.031  30.534  0.1194  0.3018  0.0974
18870W        W61782   2.861  33.820   0.618  0.0772  0.0210 -0.3730
18871W        W61783   2.438  28.788  31.172  0.0448  0.2631 -0.0680
18872W        W61784   2.499  30.295  31.729  0.2329 -0.0585 -0.0781
18873W        W61785   1.577  30.908  30.947 -0.0513  0.2410  0.0559
18874W        W61786   1.725  30.145   0.624  0.2295 -0.1412  0.1420
18875W        W61787   3.056  31.209  31.983  0.0015 -0.5092 -0.2928
18876W        W61788   3.641  31.959  31.383  0.2164  0.1303  0.1104
18877W        W61789   1.311  33.622  31.720 -0.0384  0.2316 -0.0788
18878W        W61790   3.539  32.434  31.139 -0.2573 -0.2774 -0.1742
18879W        W61791   0.987  30.891  31.966 -0.0472  0.0396  0.0255
18880W        W61792  33.942  30.050  31.945 -0.0182 -0.2032 -0.2055
18881W        W61793   1.879  32.295  31.129 -0.1809  0.0064  0.2398
18882W        W61794  34.383  31.460   0.359  0.3885  0.2592 -0.1390
18883W        W61795   0.993  28.989  31.915 -0.0074 -0.0610  0.1535
18884W        W61796   3.549  32.779  29.815  0.1501  0.0465 -0.3038
18885W        W61797   3.479  29.433  30.983 -0.1955 -0.1989  0.1608
18886W        W61798   3.322  28.925  30.949 -0.0858  0.2038 -0.2828
18887W        W61799  34.638  34.435  17.927  0.1320 -0.3370 -0.2086
18888W        W61800   3.589  32.643  15.816  0.2259  0.1252 -0.2651
18889W        W61801   3.402  34.483  16.992 -0.0279  0.0659  0.1584
18890W        W61802   0.710  34.392  19.199  0.1394  0.0463  0.0509
18891W        W61803   1.971  33.416  20.112  0.2512  0.0649 -0.0968
18892W        W61804   3.019  34.249  16.707 -0.2062 -0.1587 -0.1737
18893W        W61805   1.598  34.321  18.854  0.3508 -0.1625 -0.0704
18894W        W61806   1.698  33.243  17.681 -0.3065  0.0925  0.3698
18895W        W61807   0.558  32.556  17.752 -0.1737  0.4960  0.4154
18896W        W61808   2.978   0.609  18.854 -0.0795  0.1891  0.0904
18897W        W61809   0.715   0.778  17.801 -0.3230 -0.0783  0.1509
18898W        W61810   2.154  34.290  18.756 -0.0802  0.3226  0.2948
18899W        W61811   2.312  34.042  18.343 -0.4525 -0.2578 -0.2499
18900W        W61812  33.893  33.061  20.947  0.1297 -0.1230  0.3070
18901W        W61813   3.760  33.005  20.398  0.0057  0.3192  0.1723
18902W        W61814  33.317   1.404  16.342  0.3285  0.0042  0.1493
18903W        W61815   1.288  34.223  17.822 -0.2005  0.1022  0.1504
18904W        W61816   1.799  33.684  17.558  0.3137  0.0102  0.1161
18905W        W61817   3.523  34.167  19.453 -0.0794 -0.0481  0.1056
18906W        W61818   3.548   0.560  18.239  0.0253 -0.0624 -0.2370
18907W        W61819   2.769  34.454  19.897 -0.1007 -0.4118 -0.0756
18908W        W61820   1.785  33.907  18.917 -0.2625  0.0678  0.1865
18909W        W61821   0.834   0.176  18.567 -0.0733 -0.5017 -0.0760
18910W        W61822   3.155  33.836  19.231  0.1233 -0.0824 -0.0079
18911W        W61823   4.263  34.146  17.634  0.2748 -0.0247 -0.0324
18912W        W61824   1.981  34.669  15.943  0.1154  0.0932  0.2890
18913W        W61825   3.248  33.485  16.348  0.2307 -0.2171  0.0087
18914W        W61826   1.320  32.486  18.935 -0.1483 -0.1121  0.2602
18915W        W61827   2.954  34.144  19.547  0.2129 -0.0087  0.1429
18916W        W61828   0.787  34.559  17.375 -0.1914 -0.0853 -0.0362
18917W        W61829   1.925  33.378  18.984 -0.4438  0.0666  0.0654
18918W        W61830  34.441  33.708  18.364  0.1714  0.1079 -0.1162
18919W        W61831   0.102   0.809  17.780  0.0184  0.2682 -0.0830
18920W        W61832   1.310   0.327  21.267  0.2862 -0.2502  0.2063
18921W        W61833  34.086  33.711  20.924  0.1067  0.2501 -0.0133
18922W        W61834   1.671  33.375  16.299 -0.1302  0.0997  0.1489
18923W        W61835   3.890  33.517  18.128 -0.0493  0.0666  0.1045
18924W        W61836   2.864  33.902  17.508 -0.1664  0.0521  0.2602
18925W        W61837   1.377  34.253  18.338  0.0742 -0.1365 -0.1858
18926W        W61838   5.512   0.169  17.679 -0.0830  0.1817  0.1910
18927W        W61839   1.186  34.130  19.305 -0.3506  0.0686 -0.1391
18928W        W61840   0.374  32.155  18.673 -0.0715 -0.3323 -0.1659
18929W        W61841   2.739  33.575  17.096 -0.1891 -0.1717  0.1830
18930W        W61842   1.298  33.866  18.869  0.0165  0.1043  0.0986
18931W        W61843   1.632  34.584  17.551 -0.3662 -0.1179 -0.0084
18932W        W61844   4.432  34.016  16.459 -0.0141  0.3391 -0.0097
18933W        W61845  33.556  34.404  18.697 -0.1051 -0.2446 -0.4054
18934W        W61846   1.323  33.444  18.118 -0.1614  0.1201 -0.1180
18935W        W61847   0.749  33.884  19.073  0.1194  0.2219 -0.0811
18936W        W61848  32.935  34.381  18.700  0.0738  0.4162  0.0323
18937W        W61849   3.600  33.259  18.616  0.0547  0.1086  0.0066
18938W        W61850   0.588  33.363  19.372 -0.2313  0.3790 -0.2173
18939W        W61851   3.109  33.166  17.220  0.1793 -0.1029 -0.0356
18940W        W61852   1.712  34.460  18.031  0.0352 -0.0450 -0.0639
18941W        W61853   2.317  33.460  19.221 -0.0890 -0.0051  0.3404
18942W        W61854  34.433  33.332  18.780 -0.0625  0.0143  0.1001
18943W        W61855   0.584  33.965  18.043 -0.0127  0.2268 -0.3306
18944W        W61856   0.452  34.574  17.795 -0.1802  0.0052 -0.3430
18945W        W61857   2.824  33.603  20.635 -0.1008 -0.1607 -0.0947
18946W        W61858   2.926   0.056  17.011  0.0064  0.1602  0.1401
18947W        W61859   0.747  33.585  17.704  0.1618 -0.2201 -0.2129
18948W        W61860  34.061   0.367  17.697  0.1163 -0.1125 -0.1655
18949W        W61861   4.191   0.004  19.310  0.1994  0.1170 -0.2437
18950W        W61862  34.637   0.320  20.597  0.0447  0.1300 -0.2724
18951W        W61863   2.732   0.383  21.875  0.0618 -0.1524 -0.0857
18952W        W61864   0.791   0.247  16.953  0.0495  0.1464 -0.0028
18953W        W61865   2.342  33.802  17.497 -0.2537  0.1859  0.0429
18954W        W61866   3.587  32.147  16.113  0.0447  0.0208  0.2383
18955W        W61867   3.083  34.271  16.205  0.0718  0.1190  0.2160
18956W        W61868   2.572  34.184  16.145 -0.0712  0.0173 -0.4074
18957W        W61869   1.584  34.435  17.105  0.0562  0.0647  0.1890
18958W        W61870   1.483  33.394  18.843  0.1112  0.0852 -0.2643
18959W        W61871   1.125  34.604  16.009 -0.0957 -0.4000 -0.3585
18960W        W61872   2.584  34.011  17.885  0.1975  0.0075  0.0475
18961W        W61873   2.551   0.966  18.570 -0.1557 -0.1988 -0.2466
18962W        W61874   2.571  33.301  18.842  0.1605  0.0227  0.2187
18963W        W61875   0.792  32.638  18.995  0.0873  0.0115  0.1317
18964W        W61876   2.539  34.021  20.775  0.2903 -0.2007 -0.0247
18965W        W61877   4.025  34.414  17.197 -0.1071 -0.1472  0.4644
18966W        W61878   1.859  34.566  19.756 -0.3880  0.0250 -0.6208
18967W        W61879   1.072  34.497  16.854  0.1841 -0.2341 -0.0421
18968W        W61880   3.403  33.740  19.683 -0.1896 -0.0121  0.1657
18969W        W61881   2.454  34.172  20.252 -0.0244  0.0298 -0.0159
18970W        W61882   1.886  34.421  16.720  0.0155  0.1963  0.0443
18971W        W61883   2.702  33.734  18.379 -0.3162 -0.0549 -0.2453
18972W        W61884   3.382  33.885  17.646  0.1530  0.0050 -0.4162
18973W        W61885   1.564   1.781  16.393 -0.2025 -0.1386  0.0245
18974W        W61886  34.638   0.509  17.339 -0.3074  0.0143  0.1816
18975W        W61887   1.537  33.136  16.710  0.1443 -0.0027  0.1754
18976W        W61888   0.279  33.741  18.424  0.0938 -0.0753  0.1904
18977W        W61889   1.016  33.526  19.778 -0.1343 -0.0529  0.1644
18978W        W61890   3.177   0.231  19.342  0.0738 -0.4784  0.1349
18979W        W61891   2.505  32.859  16.008 -0.0467 -0.1307  0.0157
18980W        W61892   2.788  33.881  19.971 -0.1166 -0.0433 -0.0153
18981W        W61893   0.460  33.616  16.560  0.1952  0.0534 -0.1439
18982W        W61894   3.534   0.620  19.156  0.2677  0.1216 -0.2495
18983W        W61895   2.136   0.321  17.579  0.1968  0.2206  0.0251
18984W        W61896   0.758  34.513  16.438 -0.0804 -0.0319 -0.0097
18985W        W61897   1.930  33.360  19.553  0.4992 -0.0322  0.0132
18986W        W61898   2.614  34.550  19.404  0.0416 -0.1059  0.0926
18987W        W61899   1.147   0.022  17.737 -0.0100  0.1177  0.3353
18988W        W61900   1.384   0.031  18.722 -0.3820 -0.1576  0.0714
18989W        W61901   3.655  33.262  20.821  0.1028 -0.1201 -0.3508
18990W        W61902   3.128  34.296  17.825 -0.0481  0.0393 -0.1423
18991W        W61903   1.299  34.538  20.568 -0.0236 -0.0168 -0.0649
18992W        W61904   2.777  33.394  20.168  0.0705  0.1501  0.0793
18993W        W61905   2.919  32.725  17.490 -0.0124 -0.1410 -0.1259
18994W        W61906   2.932   0.101  18.908  0.3210 -0.0550 -0.3552
18995W        W61907   1.973  32.682  18.243 -0.3026  0.1001  0.1328
18996W        W61908   2.664   0.494  17.009  0.0295  0.2570 -0.0949
18997W        W61909   3.352  33.192  19.461  0.4175  0.1544  0.1555
18998W        W61910   0.755  33.546  18.237  0.2362 -0.2836  0.0748
18999W        W61911   0.762  33.385  20.224  0.0541 -0.1311 -0.1509
19000W        W61912  34.328  33.265  20.778  0.2274  0.1308  0.2097
19001W        W61913   2.083  34.527  17.705  0.0269  0.1391  0.0131
19002W        W61914   0.850   0.406  17.482  0.1910 -0.0365  0.3045
19003W        W61915   2.036   0.315  18.047  0.1395  0.1151  0.0439
19004W        W61916   3.277   0.171  17.358 -0.1456  0.4139  0.0798
19005W        W61917   0.963   1.105  17.492 -0.0557 -0.0718  0.0434
19006W        W61918   2.497  34.318  17.538 -0.0435 -0.0693  0.0317
19007W        W61919   0.056  33.132  19.331  0.0952 -0.2107  0.0432
19008W        W61920   1.945  34.103  17.437 -0.1804 -0.1671 -0.3459
19009W        W61921   3.774   1.504  20.678  0.4288 -0.1044 -0.0063
19010W        W61922   2.284  33.770  19.913 -0.1123  0.2278 -0.2003
19011W        W61923   2.286   0.316  20.533  0.0038  0.2610 -0.0889
19012W        W61924  34.489  34.282  18.442 -0.1412  0.1588  0.2197
19013W        W61925   3.736  33.572  16.402 -0.1880 -0.0927  0.2073
19014W        W61926   3.602  33.989  18.921 -0.2309 -0.0845  0.1818
19015W        W61927   4.029  32.362  16.240  0.1962 -0.2338  0.0723
19016W        W61928   2.648  34.606  16.636  0.2062  0.0258 -0.0661
19017W        W61929   1.063  34.312  18.841  0.1101 -0.0403 -0.0311
19018W        W61930   2.723   1.204  19.371  0.1390  0.0668 -0.3589
19019W        W61931   1.272   0.166  17.241 -0.2300 -0.0763 -0.2279
19020W        W61932   2.780  32.748  18.829  0.0811 -0.2359 -0.1324
19021W        W61933   2.488   0.082  17.302  0.2182 -0.2138  0.0700
19022W        W61934  34.019  34.614  18.247 -0.1548  0.0746 -0.0889
19023W        W61935   0.748  33.930  16.328  0.2465 -0.0527 -0.0613
19024W        W61936   2.362   0.716  16.612 -0.0377  0.0635 -0.2225
19025W        W61937   3.681  32.663  16.347 -0.0565  0.0976  0.0686
19026W        W61938   4.055  34.204  19.338  0.2464  0.2737 -0.0332
19027W        W61939   3.400  33.616  18.254 -0.1016  0.1299  0.1257
19028W        W61940   0.949  33.021  19.394 -0.0180 -0.0330  0.0595
19029W        W61941   3.148   0.718  17.464  0.1273 -0.2687 -0.0556
19030W        W61942   3.263  34.187  19.960  0.0775 -0.0814 -0.3384
19031W        W61943   3.947   0.536  19.718 -0.2038 -0.1513  0.0705
19032W        W61944   1.219   1.123  18.266 -0.3623 -0.0761  0.0227
19033W        W61945  33.676  34.195  19.947  0.2129 -0.0961  0.2041
19034W        W61946   1.779  33.187  18.307  0.1215  0.1742  0.1844
19035W        W61947   0.881  34.317  18.091 -0.0389  0.2576  0.1146
19036W        W61948   1.968  33.982  16.963  0.0643  0.0198 -0.0009
19037W        W61949   4.417   0.021  17.470 -0.1139  0.1688 -0.1507
19038W        W61950   3.294  32.981  16.584  0.1557 -0.2395 -0.0334
19039W        W61951   2.056  33.893  19.432  0.4859 -0.0244 -0.1247
19040W        W61952   2.144  33.133  16.200 -0.0737 -0.1795 -0.2595
19041W        W61953   3.021  33.315  19.140  0.0333 -0.0838 -0.1529
19042W        W61954   4.469  33.080  19.296 -0.0896 -0.1324  0.1537
19043W        W61955  34.143  33.595  16.050  0.1168  0.1484 -0.1112
19044W        W61956   2.492   0.550  18.187  0.1787  0.0692 -0.1631
19045W        W61957   3.724  33.416  17.582 -0.1091  0.0554  0.3114
19046W        W61958   2.810   0.202  18.271 -0.0210 -0.3145 -0.0153
19047W        W61959   0.270  34.325  16.282 -0.0915 -0.1148 -0.4896
19048W        W61960   4.441  34.488  16.320  0.0193  0.2239  0.1775
19049W        W61961   1.076  33.495  19.187 -0.1940 -0.0151 -0.0120
19050W        W61962   3.987  32.832  19.799  0.3565 -0.1235 -0.1158
19051W        W61963   2.608   0.138  17.778  0.0332 -0.4009 -0.0941
19052W        W61964   3.454  33.450  16.791 -0.1728 -0.0828  0.0624
19053W        W61965   1.014   0.062  19.169  0.0770 -0.1013 -0.1098
19054W        W61966   2.309   0.165  16.863  0.2001 -0.0192 -0.1922
19055W        W61967   3.818   0.493  20.214  0.3046 -0.1766 -0.0366
19056W        W61968   1.647   0.797  18.038  0.0849  0.0741 -0.0663
19057W        W61969   1.609  33.904  18.056  0.2428 -0.1012  0.0368
19058W        W61970   4.092  34.353  18.076 -0.1034 -0.1434 -0.0139
19059W        W61971   0.398   0.392  17.819  0.0767 -0.1161 -0.0352
19060W        W61972   3.019  33.969  20.402  0.0513  0.0900  0.1129
19061W        W61973   0.987  32.665  17.563 -0.2426  0.2725 -0.0430
19062W        W61974   3.044   0.789  19.374  0.4575  0.2267 -0.1093
19063W        W61975   4.329   0.858  17.628 -0.0521 -0.1109 -0.2622
19064W        W61976   0.785  33.951  19.630 -0.1256 -0.1736 -0.2006
19065W        W61977   2.020  33.517  17.981 -0.3266 -0.0156 -0.1171
19066W        W61978   2.752  34.273  18.653  0.1012  0.1807 -0.1552
19067W        W61979   3.302  33.619  18.801 -0.1271  0.2802  0.1324
19068W        W61980   3.082  32.786  19.677 -0.4597  0.2005  0.1253
19069W        W61981   3.466  32.011  18.910  0.3287 -0.0610 -0.0111
19070W        W61982   2.518  34.133  19.154  0.0535 -0.0817 -0.0444
19071W        W61983   1.768  33.659  18.451  0.0913 -0.2018 -0.1864
19072W        W61984   2.563  34.081  17.082 -0.0135  0.2087  0.0340
19073W        W61985   2.116  33.033  17.930 -0.1682  0.3397 -0.0139
19074W        W61986   2.765  34.405  18.146  0.1000 -0.2336  0.1624
19075W        W61987   0.502   0.358  16.480  0.3305 -0.0743 -0.3156
19076W        W61988   2.360  34.222  19.689  0.0381  0.2520  0.0089
19077W        W61989   1.472  33.368  19.716  0.0321  0.1698 -0.0823
19078W        W61990   1.588   0.854  18.561 -0.0524  0.2598 -0.3051
19079W        W61991   1.151  33.194  16.260 -0.2419 -0.0028 -0.0283
19080W        W61992   0.138  34.613  18.772 -0.2017 -0.1926 -0.2752
19081W        W61993   0.069  32.341  17.019  0.0970 -0.2419  0.1049
19082W        W61994   1.100  33.519  18.552 -0.4352  0.0079 -0.0973
19083W        W61995   0.899  33.898  20.205 -0.1590  0.0051 -0.0184
19084W        W61996   1.069  33.876  18.066 -0.0026  0.0872  0.0536
19085W        W61997   0.455  33.938  15.903  0.0541 -0.3947  0.0692
19086W        W61998   2.581  33.768  19.497 -0.2273 -0.0039  0.0658
19087W        W61999   0.107  32.063  18.250  0.0089  0.2162  0.2923
19088W        W62000   4.514  32.355  17.923  0.0365  0.2049 -0.1834
19089W        W62001   2.073  34.543  17.165 -0.0605 -0.0227  0.1358
19090W        W62002   0.082  31.552  18.187 -0.1916  0.0229 -0.4082
19091W        W62003   0.857  33.040  18.463 -0.1194 -0.3562  0.2207
19092W        W62004   2.470  34.136  16.587 -0.1557 -0.1055 -0.2549
19093W        W62005   1.209  33.488  17.177 -0.0090  0.0829 -0.0285
19094W        W62006   1.131  34.214  17.323 -0.0435  0.1428  0.0911
19095W        W62007   1.982   0.963  19.779 -0.1999  0.0882 -0.4738
19096W        W62008   1.457  34.125  16.744  0.0717 -0.1676  0.0402
19097W        W62009   3.973   0.790  16.410 -0.0217  0.1960  0.0909
19098W        W62010   0.353  33.256  18.516  0.1356 -0.3369  0.1094
19099W        W62011   0.855   0.291  18.002  0.1831  0.0730 -0.2676
19100W        W62012   2.322  34.538  18.194  0.1318 -0.2635 -0.2023
19101W        W62013   4.060  33.147  18.475 -0.0004 -0.1179  0.0562
19102W        W62014   0.682  33.415  18.834  0.0934 -0.0801 -0.2194
19103W        W62015   3.122  33.813  16.914  0.0213 -0.0456  0.3914
19104W        W62016  34.616   0.385  21.111 -0.1556  0.0250  0.2052
19105W        W62017   4.294  34.375  19.718 -0.0432  0.0201  0.2214
19106W        W62018   1.838   0.426  20.613 -0.0554 -0.1280  0.1989
19107W        W62019   0.368  33.691  20.061  0.0069 -0.0507  0.0105
19108W        W62020  34.276  31.436  23.881 -0.2973  0.1315 -0.2805
19109W        W62021   0.847   1.214  19.797  0.1355 -0.1506 -0.2338
19110W        W62022   0.225  34.144  21.391 -0.1433  0.1433 -0.0734
19111W        W62023   2.196  32.257  20.219 -0.0924  0.3167  0.2492
19112W        W62024  33.950  32.793  21.534 -0.2395 -0.0861  0.3513
19113W        W62025   2.134  34.222  22.543  0.1788  0.2638  0.0429
19114W        W62026  34.619  34.686  22.082 -0.1842 -0.1497 -0.0682
19115W        W62027   1.713  33.379  20.618 -0.2194  0.0436 -0.2814
19116W        W62028   1.397  33.769  20.982  0.1914 -0.1108  0.1201
19117W        W62029   2.374  32.494  22.966  0.0170  0.1666  0.1307
19118W        W62030   1.220  32.092  22.604 -0.5350 -0.2875  0.3309
19119W        W62031   0.114  34.653  21.348 -0.1178  0.1243 -0.0891
19120W        W62032   1.471  34.606  21.798 -0.1176  0.0873 -0.1717
19121W        W62033   1.240  34.062  21.654 -0.1793  0.0935  0.4393
19122W        W62034   2.569  33.803  21.721 -0.1854 -0.2301  0.1936
19123W        W62035   3.186  34.383  21.495  0.1965 -0.0044 -0.0513
19124W        W62036   3.249  33.559  23.910  0.0699  0.0955 -0.3051
19125W        W62037   2.792  34.297  23.790 -0.3616 -0.0154  0.4552
19126W        W62038   1.225   0.332  21.842 -0.1309  0.2104  0.0992
19127W        W62039   2.930  33.612  24.540  0.0325  0.0737 -0.1885
19128W        W62040   1.529  34.127  21.296  0.0110 -0.0350  0.1149
19129W        W62041   0.396  33.236  19.842  0.1425  0.2823  0.1023
19130W        W62042   2.589   0.230  20.959  0.1205 -0.0659  0.0560
19131W        W62043   1.226  33.191  20.233  0.1934  0.0025  0.0932
19132W        W62044  34.354  32.267  21.181  0.3394 -0.2833  0.2151
19133W        W62045   0.903  34.390  21.922 -0.1014  0.0050  0.1333
19134W        W62046   3.238  34.004  23.599 -0.2239  0.2135 -0.1369
19135W        W62047  34.398  32.925  21.188 -0.1224 -0.0301  0.0224
19136W        W62048  34.550  33.724  20.973 -0.1123 -0.2100 -0.1505
19137W        W62049   0.383  33.641  22.406 -0.1457  0.0490  0.0903
19138W        W62050   0.142  34.244  22.632  0.0206  0.1793 -0.0419
19139W        W62051   0.853  33.040  19.864 -0.0638  0.0827  0.0232
19140W        W62052   3.973  33.924  21.218  0.2331  0.0318 -0.0534
19141W        W62053   3.373  33.862  21.311 -0.0807  0.2416 -0.1334
19142W        W62054   3.721  32.889  21.309  0.0980  0.1076 -0.2773
19143W        W62055   4.383   1.459  19.377  0.2102 -0.0554 -0.0173
19144W        W62056   1.927  33.225  22.286  0.0162  0.0760 -0.1075
19145W        W62057  34.480  32.247  21.826  0.0157  0.1181  0.1700
19146W        W62058   2.112  34.250  20.602  0.0715  0.0704 -0.1655
19147W        W62059  33.845  31.360  21.972  0.2380 -0.0368 -0.2768
19148W        W62060   3.484  34.181  20.460 -0.2244  0.2357 -0.1823
19149W        W62061   3.650   0.025  20.100  0.1904  0.0243 -0.1185
19150W        W62062  34.119  34.615  21.998 -0.0896  0.0838  0.3029
19151W        W62063  34.606  33.906  20.183 -0.1881 -0.5151 -0.2592
19152W        W62064   0.214  32.136  22.167 -0.1042 -0.4589  0.1731
19153W        W62065   0.513  32.473  21.291 -0.1065  0.1692  0.0882
19154W        W62066   3.374  34.174  22.596 -0.4441 -0.5028 -0.2399
19155W        W62067  34.644  32.460  20.674  0.2960  0.2179 -0.0272
19156W        W62068   2.190  34.067  21.482 -0.1456  0.0371 -0.3837
19157W        W62069   2.380   0.099  21.480  0.1552  0.0096  0.2407
19158W        W62070   1.127  33.740  24.945 -0.0206 -0.3421 -0.3799
19159W        W62071   2.086  33.481  22.961 -0.2787 -0.1074  0.1688
19160W        W62072   0.511  32.585  20.706  0.0455 -0.3771  0.2013
19161W        W62073   1.773  32.950  19.738  0.0661 -0.2858 -0.0377
19162W        W62074   1.935  32.854  24.220  0.3464  0.0326 -0.5494
19163W        W62075   3.837   1.567  20.164 -0.2368 -0.0526 -0.1469
19164W        W62076   0.403  32.249  19.689  0.0963  0.0284  0.3257
19165W        W62077  33.093  34.340  22.106  0.1374 -0.1646 -0.0732
19166W        W62078   2.925   0.138  21.413 -0.1430  0.0164 -0.2479
19167W        W62079  34.599   0.604  24.090  0.0212 -0.0253 -0.3598
19168W        W62080   2.658  34.663  24.176  0.0730  0.0175 -0.0825
19169W        W62081   1.304   0.499  19.301 -0.1537  0.1682  0.0036
19170W        W62082   3.225  33.057  20.989  0.0785 -0.2244  0.4545
19171W        W62083   4.635  32.986  21.106 -0.0101  0.1247 -0.3127
19172W        W62084   3.619   0.217  19.653  0.2170  0.0835  0.2340
19173W        W62085   4.638  33.446  20.868 -0.0615  0.2832 -0.1277
19174W        W62086   1.349  34.089  20.380 -0.2251  0.1848  0.2244
19175W        W62087   1.671  32.664  22.236 -0.3068  0.1211  0.1404
19176W        W62088  34.436  33.864  18.850  0.3450 -0.0650  0.1770
19177W        W62089   1.811  33.632  21.358 -0.1476 -0.1308  0.2407
19178W        W62090   3.327  33.271  23.172  0.3647 -0.0355 -0.4109
19179W        W62091   2.828  33.951  21.274  0.2299  0.1325  0.2443
19180W        W62092   2.206  33.841  25.058 -0.0172  0.2380  0.1625
19181W        W62093   2.028  33.746  24.523 -0.4162 -0.1423  0.2703
19182W        W62094   3.634   0.478  20.877  0.0278 -0.0870 -0.0417
19183W        W62095   3.882  33.936  22.432  0.0491 -0.3641 -0.0425
19184W        W62096   0.840   0.572  19.031  0.1962 -0.4552 -0.2924
19185W        W62097   3.243  32.954  21.640  0.0634  0.0719  0.2995
19186W        W62098   2.642  34.493  24.796  0.0124  0.1493 -0.4609
19187W        W62099   1.843  32.799  21.753  0.5126  0.0441  0.0369
19188W        W62100   2.827  33.389  22.439  0.1168 -0.0815 -0.1469
19189W        W62101   2.837  32.463  22.729  0.0709 -0.0607  0.3095
19190W        W62102   1.289  34.114  19.842  0.0259  0.0730  0.0607
19191W        W62103  34.213  34.128  21.126 -0.1074  0.0894 -0.0486
19192W        W62104   3.393  33.743  20.649  0.0717  0.2683  0.0866
19193W        W62105  33.529  33.088  21.416 -0.1255  0.1577 -0.2941
19194W        W62106   2.791  32.825  21.303  0.3227 -0.0167 -0.0584
19195W        W62107   1.878  34.204  23.065 -0.0451  0.0090 -0.3208
19196W        W62108   2.326  33.690  20.443 -0.1164 -0.0597  0.1040
19197W        W62109   0.756   1.035  22.897  0.0881 -0.1501  0.0633
19198W        W62110   0.461  34.323  19.601 -0.5796 -0.0982 -0.1477
19199W        W62111   3.604  33.217  21.808  0.3424  0.4368  0.0022
19200W        W62112  34.200  32.856  20.507 -0.4053 -0.2228 -0.0067
19201W        W62113   1.036  34.465  20.118  0.0465 -0.2926  0.4703
19202W        W62114   2.447  32.865  21.943  0.4346  0.4311 -0.3386
19203W        W62115   0.994  32.713  20.949  0.1452  0.2843 -0.1039
19204W        W62116   1.205  32.741  21.951 -0.1748 -0.0395  0.1215
19205W        W62117   0.547  33.994  22.109  0.3224 -0.2171 -0.0211
19206W        W62118   1.555  33.564  22.564  0.0100  0.1643 -0.0516
19207W        W62119   2.526  33.201  21.591 -0.1091  0.0473  0.1198
19208W        W62120   2.837  34.295  21.882 -0.0076 -0.0826 -0.3004
19209W        W62121   0.105  33.239  21.065 -0.2343  0.2216 -0.3635
19210W        W62122   3.901  33.770  19.604  0.1454  0.2481 -0.0973
19211W        W62123   2.670  34.424  21.269  0.1116  0.3061  0.1678
19212W        W62124   2.427  33.547  23.248 -0.1876  0.1325  0.1207
19213W        W62125   1.281   0.749  20.920  0.1037  0.1833 -0.0785
19214W        W62126   3.295  34.498  23.519  0.4455  0.2743 -0.0710
19215W        W62127   1.876  34.315  23.545 -0.0161  0.0468 -0.1020
19216W        W62128   0.759  33.321  22.401 -0.1981  0.3964 -0.0507
19217W        W62129   0.534   1.141  24.225  0.0832 -0.1637  0.0006
19218W        W62130   2.402  32.983  21.018 -0.0976  0.1935  0.0810
19219W        W62131   1.457  33.122  19.287  0.3185 -0.2158  0.2608
19220W        W62132   0.591  33.405  22.876  0.0521  0.0967  0.3327
19221W        W62133   3.425   0.091  21.277 -0.2816 -0.2772 -0.1715
19222W        W62134  34.554  33.754  22.424  0.1664 -0.2460  0.2244
19223W        W62135   2.431   0.946  22.372  0.1176 -0.0456  0.1995
19224W        W62136   2.071  32.246  22.509 -0.0231 -0.0493 -0.0203
19225W        W62137   1.179  33.503  20.611 -0.0441 -0.1101  0.4285
19226W        W62138   2.191  32.816  22.470 -0.0509  0.2312 -0.3049
19227W        W62139   2.758  33.264  23.002  0.2759  0.0313  0.1065
19228W        W62140   2.525  33.725  22.743 -0.0020  0.1584 -0.2527
19229W        W62141   0.506  32.774  23.420  0.4550 -0.0945  0.2103
19230W        W62142   4.490  33.902  19.499  0.0645 -0.0654  0.0261
19231W        W62143   3.889  34.274  20.742 -0.1449 -0.1712  0.1596
19232W        W62144   3.404   0.764  20.193 -0.2055  0.2025 -0.0081
19233W        W62145   2.947   0.719  19.871 -0.1452  0.2546 -0.0476
19234W        W62146   0.202   0.969  23.140 -0.0361 -0.0049 -0.0464
19235W        W62147   2.899   0.161  25.659 -0.1772  0.0122  0.1809
19236W        W62148   2.255  33.154  20.388 -0.1041 -0.0982  0.0803
19237W        W62149   1.022  34.617  23.603 -0.2964 -0.0586 -0.0660
19238W        W62150   3.036  34.680  20.956 -0.2403  0.2506 -0.0600
19239W        W62151   0.871  33.697  20.995 -0.2211 -0.0064 -0.0028
19240W        W62152   0.556  31.722  18.243  0.1460 -0.1616 -0.0661
19241W        W62153   1.399   0.313  20.212 -0.1510 -0.4252  0.1615
19242W        W62154   1.920  32.405  20.639 -0.0747  0.1137  0.3388
19243W        W62155   2.333  34.463  23.364  0.4009  0.0870 -0.4239
19244W        W62156   3.268  32.357  21.733 -0.2539  0.0280  0.1649
19245W        W62157   3.427  33.651  22.597 -0.0907  0.1908  0.2153
19246W        W62158   4.187   0.799  21.696  0.1107 -0.1219  0.0346
19247W        W62159   3.125   0.385  22.790  0.0160 -0.0687 -0.0676
19248W        W62160   3.476  34.678  22.453  0.2687 -0.0096  0.1251
19249W        W62161   1.594  32.756  21.025  0.2542  0.0475  0.0333
19250W        W62162   0.560  33.803  25.188  0.0893  0.0714 -0.0353
19251W        W62163   1.912  32.922  20.653 -0.2115  0.3116 -0.0282
19252W        W62164   1.558  34.491  20.120  0.1679  0.0475  0.1292
19253W        W62165   3.284  33.626  20.158  0.1833  0.0631 -0.3578
19254W        W62166   4.302   1.163  20.349  0.1055 -0.1076 -0.2203
19255W        W62167   4.785   0.372  20.552 -0.3432  0.0830  0.0715
19256W        W62168   0.327   0.374  21.411 -0.3525 -0.1223 -0.2705
19257W        W62169   1.434  32.607  19.492 -0.0072 -0.5402 -0.0714
19258W        W62170   1.248  34.045  22.193 -0.1625  0.2535 -0.0851
19259W        W62171   2.493  32.518  23.502 -0.1544 -0.0430  0.1627
19260W        W62172   1.611  34.197  20.768 -0.1890  0.2286 -0.0352
19261W        W62173   0.566  33.293  20.735 -0.1835 -0.1706  0.3064
19262W        W62174   4.053  32.555  23.392 -0.2943 -0.5475  0.3145
19263W        W62175   1.651  34.700  21.087  0.0327  0.1572 -0.1196
19264W        W62176   0.797  32.959  20.454 -0.0516  0.1700 -0.1981
19265W        W62177   3.805  34.401  21.222 -0.0184  0.1047  0.0237
19266W        W62178   2.086  33.675  22.450  0.0674  0.2807  0.0734
19267W        W62179   3.353  32.977  22.163 -0.1083  0.1431  0.1771
19268W        W62180   2.447  33.351  22.134  0.0850 -0.3965  0.2346
19269W        W62181   4.108  34.390  20.186  0.0177  0.3201 -0.0497
19270W        W62182   0.627  32.868  21.873  0.2595 -0.1512 -0.1302
19271W        W62183   2.655   1.369  20.724  0.0303  0.1994  0.1410
19272W        W62184   2.905  34.257  22.816 -0.2279 -0.4285  0.0446
19273W        W62185   3.252   0.323  20.058 -0.2916 -0.2502  0.2026
19274W        W62186   1.848  33.844  20.351  0.3117  0.1961  0.0075
19275W        W62187   4.064   0.080  19.873 -0.0870  0.0746  0.2136
19276W        W62188  34.652  34.269  20.992 -0.2760 -0.2407  0.0476
19277W        W62189   2.110  33.471  21.730 -0.2011 -0.3056  0.1654
19278W        W62190   0.235  33.105  22.540  0.2261  0.2804 -0.0429
19279W        W62191   4.400  34.372  20.681 -0.3038  0.1502  0.0436
19280W        W62192   3.249   0.456  21.689 -0.2552  0.3886  0.1020
19281W        W62193  34.049  34.018  22.312  0.0317  0.1194  0.2521
19282W        W62194   2.427  32.094  21.808 -0.0165  0.2213  0.2855
19283W        W62195   0.602  33.812  20.608 -0.2949  0.1887  0.3089
19284W        W62196   5.125  33.305  21.294  0.2154 -0.0724  0.3316
19285W        W62197   3.020  33.896  22.363  0.1439  0.2984 -0.1788
19286W        W62198   3.642  33.781  23.036 -0.0305  0.0017 -0.0979
19287W        W62199   1.809  34.399  22.195 -0.1741 -0.2966 -0.1394
19288W        W62200   2.057   0.022  21.865 -0.0148 -0.1714  0.1119
19289W        W62201   3.122  33.571  21.015 -0.3152 -0.0459  0.0661
19290W        W62202   2.000  33.941  21.003 -0.1610  0.0730 -0.3132
19291W        W62203   0.798   1.029  22.321  0.2077  0.1688 -0.2857
19292W        W62204   0.871  34.619  20.953  0.1544  0.0774  0.0937
19293W        W62205   2.736  32.883  22.350 -0.2234  0.0440  0.3359
19294W        W62206   1.058  33.217  21.801 -0.1227  0.1240  0.0362
19295W        W62207   0.765   0.556  22.161 -0.0105 -0.0677  0.1688
19296W        W62208  33.967  32.828  19.892 -0.0089 -0.1424  0.0888
19297W        W62209   1.158  33.544  21.392  0.2245 -0.1111  0.3241
19298W        W62210   1.202  32.655  20.383 -0.0855 -0.0371 -0.2488
19299W        W62211   1.661  32.479  20.251 -0.0557  0.1121  0.1122
19300W        W62212   1.965  33.761  23.362 -0.0497 -0.1707  0.0854
19301W        W62213   1.288  33.120  22.311  0.1324 -0.0640 -0.1169
19302W        W62214  33.850  33.429  20.578  0.1784  0.2244  0.2070
19303W        W62215  34.564  33.858  21.490  0.0175 -0.1414  0.2709
19304W        W62216   0.008  32.577  22.843 -0.0744  0.1953 -0.1635
19305W        W62217   3.710  32.139  21.699 -0.2980  0.1135 -0.1527
19306W        W62218   2.158   3.148  20.502  0.1747 -0.0360 -0.3383
19307W        W62219   1.100  33.373  22.741 -0.0388 -0.0441 -0.1569
19308W        W62220   0.478  31.976  21.695 -0.0626 -0.0307  0.0696
19309W        W62221   2.178  34.426  21.105  0.2126 -0.1603 -0.2545
19310W        W62222   1.276  32.847  21.382  0.1663  0.2168 -0.0743
19311W        W62223   1.953  34.172  19.981 -0.0658  0.0138 -0.3614
19312W        W62224   2.722   0.290  24.588 -0.1306  0.1622 -0.1681
19313W        W62225   0.739  34.340  20.545  0.0746  0.3084  0.3418
19314W        W62226   3.963   0.826  20.667  0.1313  0.0690  0.1011
19315W        W62227  34.052  32.582  22.465 -0.0847 -0.0788 -0.1492
19316W        W62228   1.387   0.284  20.758 -0.0238 -0.2662  0.1448
19317W        W62229   1.251   0.780  21.531  0.1495  0.3062  0.2824
19318W        W62230   3.241  33.511  22.078 -0.0441 -0.1971 -0.1015
19319W        W62231  34.301  33.310  22.352 -0.0597 -0.0033 -0.1020
19320W        W62232   1.844  34.448  21.502  0.1880  0.1335 -0.2113
19321W        W62233  34.680   1.309  25.533  0.0222  0.0748  0.0081
19322W        W62234   4.083  33.998  22.017 -0.0914  0.1106  0.1568
19323W        W62235   3.354   0.435  22.291 -0.1857 -0.0007  0.2223
19324W        W62236  34.589   0.797  24.849 -0.1812  0.3255 -0.0353
19325W        W62237   1.142  32.117  25.732 -0.2679  0.0502  0.0444
19326W        W62238   1.237  32.962  22.979  0.1561 -0.1534  0.3695
19327W        W62239   1.279  32.962  26.577  0.0260 -0.3768  0.1034
19328W        W62240   1.011  32.947  24.992  0.2257 -0.0153 -0.1469
19329W        W62241  34.590  32.263  24.871 -0.1508  0.0981 -0.4641
19330W        W62242   3.698   1.302  24.318  0.0780  0.3663 -0.1128
19331W        W62243  34.567  33.724  24.414 -0.0438 -0.1280  0.2157
19332W        W62244   1.548  33.888  26.542 -0.1106 -0.2202 -0.0956
19333W        W62245   1.214  32.295  24.436 -0.1440 -0.0745 -0.0165
19334W        W62246   1.993  33.566  25.818 -0.0485  0.0499  0.0131
19335W        W62247   1.875  33.905  27.643  0.2230  0.4752 -0.0113
19336W        W62248  34.028  33.988  23.159  0.1632  0.2623 -0.0305
19337W        W62249   1.564   0.047  26.271  0.0289 -0.2973 -0.1906
19338W        W62250   1.139  34.464  27.167  0.1580  0.2134 -0.0414
19339W        W62251   1.628  33.909  24.837 -0.2036  0.1451 -0.1873
19340W        W62252   2.691  34.195  24.337 -0.1678 -0.0892  0.0311
19341W        W62253   2.410   0.070  26.490 -0.2024  0.2890 -0.0089
19342W        W62254   2.389   0.658  26.393 -0.1057 -0.0947  0.1357
19343W        W62255   2.698   0.309  26.164 -0.0627 -0.0659  0.0885
19344W        W62256   4.638  33.341  27.408  0.2543  0.1420 -0.3054
19345W        W62257   1.449  34.260  23.848  0.1658 -0.0301  0.2337
19346W        W62258   2.217  34.475  23.851  0.0243 -0.0460 -0.1080
19347W        W62259   3.137  33.998  24.136  0.3136  0.2333  0.1318
19348W        W62260   0.772  32.107  24.313 -0.0868 -0.0039 -0.1920
19349W        W62261   1.573  34.373  25.669  0.2023  0.1056 -0.1361
19350W        W62262   0.997  34.342  24.054 -0.1776 -0.1120 -0.0771
19351W        W62263   2.945  33.837  25.511 -0.1340  0.1631 -0.1645
19352W        W62264   0.136  33.923  23.481  0.0085 -0.2840  0.0619
19353W        W62265   0.315  34.111  24.449 -0.0541  0.1799 -0.1849
19354W        W62266   0.627   1.288  26.430 -0.0152  0.1045 -0.1437
19355W        W62267   1.486   0.680  26.860  0.1582  0.4725  0.0836
19356W        W62268   0.233  32.624  22.373  0.0020  0.0876  0.4497
19357W        W62269   3.954  33.883  24.358  0.1398 -0.0912 -0.0349
19358W        W62270   1.630  32.906  26.932 -0.5988  0.2316  0.1874
19359W        W62271   0.847  33.269  26.576 -0.1801 -0.4949 -0.0406
19360W        W62272   3.862   0.480  24.893 -0.1690  0.0328 -0.4246
19361W        W62273   1.262  33.989  26.920 -0.0591  0.0091  0.0959
19362W        W62274  34.343  33.521  26.252  0.0366 -0.1375 -0.0677
19363W        W62275   1.750  32.321  24.647 -0.0937 -0.2569 -0.2484
19364W        W62276   0.834  34.096  27.230  0.0775 -0.2082 -0.4106
19365W        W62277   3.491  31.750  25.483  0.1154  0.3043  0.3921
19366W        W62278   1.815   0.012  23.194  0.0469 -0.0003  0.1107
19367W        W62279   1.107  33.609  25.924  0.2320  0.0390 -0.1766
19368W        W62280   0.948   0.327  25.458 -0.0293 -0.1451  0.0424
19369W        W62281   0.851  33.659  26.890 -0.1326 -0.0329  0.0418
19370W        W62282   0.427  33.644  24.479 -0.1068 -0.1594  0.1912
19371W        W62283   3.244  34.698  25.973 -0.0487 -0.1991  0.4242
19372W        W62284   0.192  33.888  24.055 -0.1511 -0.1124  0.1830
19373W        W62285   2.032  32.339  25.493  0.1004  0.0307 -0.1438
19374W        W62286   0.613  34.066  22.695  0.2367  0.1396  0.2938
19375W        W62287   3.102  32.697  28.209  0.0088 -0.2887  0.1310
19376W        W62288   1.122  33.712  27.329  0.2166 -0.0066 -0.0625
19377W        W62289  34.572  33.318  23.553  0.2692  0.2306 -0.0500
19378W        W62290   0.341  33.147  23.692 -0.2549  0.3302  0.0697
19379W        W62291   2.968  31.727  27.162  0.1084  0.0549  0.1133
19380W        W62292   3.716  32.935  24.881  0.0198  0.3460 -0.0477
19381W        W62293  34.621  32.897  23.936 -0.0396  0.2195 -0.1064
19382W        W62294  32.805   0.047  26.009  0.5436 -0.0504  0.2261
19383W        W62295   1.501  33.549  24.312  0.1001  0.3161 -0.0490
19384W        W62296   0.286   1.627  28.109 -0.0510  0.0613  0.1706
19385W        W62297   2.200  34.513  24.964 -0.1885  0.1564 -0.0869
19386W        W62298   0.066  33.483  22.771  0.1013 -0.3845  0.2053
19387W        W62299   3.673  34.583  25.006 -0.3006  0.1877 -0.1291
19388W        W62300   3.763   0.552  23.630  0.1576 -0.1917  0.1539
19389W        W62301   2.518  33.320  24.765 -0.0198  0.1575 -0.1304
19390W        W62302   1.885  32.520  22.873  0.0736  0.0127 -0.0423
19391W        W62303   2.404  33.240  22.636  0.0605 -0.2618 -0.1186
19392W        W62304   1.562  32.630  26.315 -0.0197  0.0730  0.0168
19393W        W62305   0.703  33.820  23.103 -0.0306 -0.0845 -0.2945
19394W        W62306   2.061  33.267  24.674  0.2361 -0.0445  0.2888
19395W        W62307   4.432  32.426  26.318 -0.0339  0.2570 -0.1002
19396W        W62308   1.519  33.397  25.745 -0.2309 -0.1112 -0.0446
19397W        W62309   1.882  32.271  27.688  0.1192  0.1488 -0.2084
19398W        W62310   3.241  33.446  27.631  0.0168 -0.1936 -0.0690
19399W        W62311   3.180  33.683  25.031  0.0342  0.2273 -0.0955
19400W        W62312   1.870   0.237  24.877 -0.0257 -0.0068 -0.0356
19401W        W62313  34.489   0.688  23.099 -0.0118  0.1296 -0.1915
19402W        W62314   2.478  33.100  27.887 -0.0607  0.0518  0.0186
19403W        W62315   2.129  32.098  28.114  0.0196 -0.1163  0.2889
19404W        W62316   0.574  33.840  23.686  0.1907 -0.1323  0.1600
19405W        W62317   1.592  31.439  25.732  0.0389  0.2678  0.1831
19406W        W62318   2.223  32.292  26.737 -0.2078  0.0719 -0.1783
19407W        W62319   1.112  33.558  22.175  0.0096 -0.0208 -0.1806
19408W        W62320  33.388   1.116  24.588  0.3664 -0.0153 -0.0238
19409W        W62321   3.325  33.219  24.666 -0.2747 -0.0507  0.0649
19410W        W62322   0.979  32.476  26.136  0.0965 -0.1734  0.1771
19411W        W62323   2.428  32.943  24.442 -0.0936 -0.1743  0.5763
19412W        W62324   3.214   0.405  25.387 -0.2157  0.0939  0.0209
19413W        W62325   2.508  33.863  24.609  0.2164  0.3275  0.3277
19414W        W62326   0.344   0.374  26.854 -0.0027  0.2106 -0.1713
19415W        W62327   0.302  33.447  23.291 -0.0123 -0.0259  0.0967
19416W        W62328   3.310  34.235  26.240 -0.3666  0.0085 -0.2071
19417W        W62329   1.653  32.758  25.536 -0.2366  0.0511  0.0002
19418W        W62330   0.166  33.688  24.901  0.0189  0.2528 -0.1299
19419W        W62331   2.025   0.365  26.297 -0.1422 -0.4788 -0.1931
19420W        W62332   1.240  33.114  26.066 -0.1194  0.0601 -0.1111
19421W        W62333   1.029  33.549  23.677  0.3228  0.1221  0.3025
19422W        W62334   2.362  34.092  25.887 -0.0413 -0.0612  0.0147
19423W        W62335   2.785  32.680  27.376  0.1608  0.1043  0.1383
19424W        W62336   1.546  32.242  25.428  0.4127 -0.3218 -0.1654
19425W        W62337   2.223   0.746  27.823  0.1581  0.2918 -0.3123
19426W        W62338   1.421  31.790  25.414  0.2341  0.3214 -0.0109
19427W        W62339   3.172  32.793  25.142 -0.1337  0.3991  0.3050
19428W        W62340   0.998  32.757  23.473 -0.3075 -0.0035 -0.1296
19429W        W62341   2.574  33.847  27.137  0.0819 -0.1164 -0.0431
19430W        W62342   2.827   0.439  24.066 -0.1422 -0.1459 -0.2579
19431W        W62343   2.091  32.285  29.299  0.1700 -0.0942 -0.1368
19432W        W62344   0.704  33.426  24.877  0.0141 -0.2249 -0.3704
19433W        W62345   0.508  33.969  26.457 -0.1773  0.0138 -0.1529
19434W        W62346   0.607   1.319  27.757  0.1113  0.0002 -0.0447
19435W        W62347   1.613  33.068  24.540 -0.0147 -0.0745 -0.0433
19436W        W62348   1.348  33.144  23.470 -0.0968  0.3099  0.1013
19437W        W62349   1.106  34.168  25.717 -0.0253  0.0883 -0.2795
19438W        W62350   3.164  34.510  24.038 -0.1257  0.2404 -0.2672
19439W        W62351   0.680  33.856  25.841  0.0136 -0.2194  0.1044
19440W        W62352   2.848  34.221  25.154 -0.1081  0.1759  0.0004
19441W        W62353   1.784  33.551  25.217  0.1977  0.1558  0.2451
19442W        W62354   1.850  33.877  23.885  0.0962  0.2254 -0.1194
19443W        W62355   2.975  33.259  26.321 -0.1412  0.1661 -0.3270
19444W        W62356   2.831  34.018  26.106  0.1822  0.1144 -0.0490
19445W        W62357   2.258   0.619  27.300  0.5256 -0.2427 -0.2717
19446W        W62358  34.285  32.912  26.502  0.1961 -0.2228 -0.1045
19447W        W62359   4.106  33.602  22.724 -0.1779  0.0700  0.0188
19448W        W62360   3.069  32.751  26.436 -0.3637 -0.3447 -0.0221
19449W        W62361   3.610   1.678  23.902 -0.1529  0.0138 -0.2181
19450W        W62362   2.041  32.749  24.684 -0.1760  0.1682 -0.0010
19451W        W62363   0.681  32.760  25.304 -0.0534  0.0109  0.0002
19452W        W62364   2.499  34.606  25.949 -0.0362 -0.2573 -0.0028
19453W        W62365   1.521  34.081  22.600 -0.0727 -0.1011 -0.1657
19454W        W62366   2.079  33.662  27.139 -0.2481 -0.0046 -0.1110
19455W        W62367   1.991   0.761  24.434  0.0529 -0.1150 -0.3602
19456W        W62368  33.470  32.497  25.881 -0.3233 -0.0158  0.1113
19457W        W62369   0.553  32.685  22.836  0.0980 -0.1809 -0.0352
19458W        W62370   0.800   0.119  23.220 -0.2144  0.1788  0.0648
19459W        W62371   1.177  33.638  23.188 -0.0803 -0.2943  0.1440
19460W        W62372   3.824  34.117  26.499  0.1941 -0.0093 -0.0684
19461W        W62373   0.823  32.420  24.816 -0.0424 -0.2642  0.2761
19462W        W62374   1.894  33.521  26.683  0.0124 -0.1458  0.0345
19463W        W62375   3.650  33.323  25.826  0.0138  0.1997 -0.2692
19464W        W62376   2.343  33.234  25.300  0.0408 -0.1095 -0.1561
19465W        W62377   3.493  34.657  26.935  0.1473  0.1843 -0.1389
19466W        W62378  34.294  34.369  25.166 -0.1624  0.1038  0.0192
19467W        W62379   0.596   0.116  26.398  0.2133  0.2547  0.1697
19468W        W62380  34.518  32.375  23.996 -0.1264 -0.0829 -0.0681
19469W        W62381  34.520  33.693  23.173 -0.4518 -0.0106 -0.0142
19470W        W62382   2.996  33.686  22.911 -0.0165 -0.3451  0.1396
19471W        W62383   3.386  34.165  25.123 -0.1766  0.0977 -0.0101
19472W        W62384   2.757  32.478  25.164  0.0635 -0.1369 -0.0301
19473W        W62385   1.419  33.992  25.301 -0.2736  0.4537  0.1089
19474W        W62386   1.691  32.978  22.715  0.1365 -0.1855  0.1104
19475W        W62387   2.634   0.518  25.414  0.3753  0.0925  0.1078
19476W        W62388   3.661  32.653  26.729  0.1213 -0.1053 -0.3988
19477W        W62389  34.145  34.517  23.570 -0.2101 -0.0457  0.0057
19478W        W62390   2.025  34.612  26.190 -0.0624 -0.0556  0.2283
19479W        W62391   3.327  33.287  25.374 -0.3664 -0.1282 -0.2882
19480W        W62392   1.782  33.027  26.502 -0.0264 -0.0176 -0.2003
19481W        W62393  33.671  34.095  25.033  0.0861 -0.0907  0.0627
19482W        W62394   3.469  32.263  24.516 -0.2725 -0.1036 -0.0489
19483W        W62395   2.190   0.099  27.232 -0.0120 -0.2112  0.1268
19484W        W62396   3.488  31.326  26.423 -0.0186 -0.1575 -0.2827
19485W        W62397   1.809  34.615  24.115  0.0786 -0.1308  0.2648
19486W        W62398   3.319   0.651  24.030 -0.0354  0.0736  0.1570
19487W        W62399   1.458  34.499  26.775 -0.0790  0.1531 -0.2138
19488W        W62400   1.750  34.507  24.667 -0.0749 -0.0392  0.1921
19489W        W62401   3.732  34.487  26.019 -0.0422 -0.2022 -0.0350
19490W        W62402   2.225  34.437  24.359 -0.1514 -0.0416 -0.3815
19491W        W62403   0.027  32.981  25.492 -0.3865  0.0163 -0.3347
19492W        W62404   1.317  32.626  25.883  0.4288 -0.1787  0.4804
19493W        W62405   0.697  33.923  24.157 -0.1497 -0.6420  0.0382
19494W        W62406   1.797   0.227  26.755  0.0895  0.2671  0.2462
19495W        W62407   0.074  33.481  25.970  0.0932 -0.3883  0.0874
19496W        W62408   2.905  34.327  25.699  0.2166 -0.0345 -0.1312
19497W        W62409   2.473   0.730  24.286  0.0575 -0.1347 -0.2976
19498W        W62410   0.849  33.219  25.430  0.0568  0.0065 -0.0836
19499W        W62411   1.234  33.243  24.067 -0.1827  0.2408 -0.0303
19500W        W62412   1.019  33.656  25.439 -0.2300 -0.0666 -0.0214
19501W        W62413   2.688  33.693  25.091 -0.0077  0.0277 -0.1848
19502W        W62414   1.899  32.213  26.358 -0.1527  0.2803 -0.1101
19503W        W62415   3.293  32.292  26.730 -0.2140 -0.0339 -0.1098
19504W        W62416   1.232  34.397  24.968  0.1067 -0.1371  0.4739
19505W        W62417   0.192  32.996  23.034  0.0909  0.0632 -0.0909
19506W        W62418   2.412  33.476  24.336  0.3077  0.0783 -0.1744
19507W        W62419   2.701  32.893  26.125  0.1533 -0.1861  0.2161
19508W        W62420   1.194   0.375  26.524 -0.0250  0.0706 -0.0021
19509W        W62421   0.271   0.215  23.089 -0.1398  0.2219  0.1961
19510W        W62422   1.501  33.122  29.285  0.2848 -0.1852 -0.0879
19511W        W62423   1.968  32.140  27.168 -0.0632 -0.0997 -0.2082
19512W        W62424   0.131  34.274  25.177  0.0108 -0.3447  0.1016
19513W        W62425  34.487   0.408  25.212  0.1854 -0.0534 -0.0465
19514W        W62426   0.429   0.156  25.271 -0.0914 -0.1377 -0.0772
19515W        W62427  34.623  32.890  24.900 -0.1853  0.2801 -0.3698
19516W        W62428   0.316  32.348  24.620  0.0982 -0.2618 -0.1707
19517W        W62429   2.264  33.988  26.733  0.5918  0.1049  0.3449
19518W        W62430   0.889  32.480  27.746  0.1855 -0.0421 -0.2800
19519W        W62431  33.316  32.923  24.179  0.2546  0.1196 -0.0911
19520W        W62432   2.066  34.594  25.644 -0.0538 -0.1844  0.0855
19521W        W62433   0.007  34.643  27.029 -0.4011  0.0235 -0.1757
19522W        W62434   2.862  33.260  25.115 -0.2443  0.0837 -0.2241
19523W        W62435   0.950  34.524  24.520 -0.0173 -0.0520  0.0120
19524W        W62436   1.889  33.218  27.223 -0.0679 -0.1788 -0.5219
19525W        W62437  34.325  33.604  25.724 -0.0258  0.0945  0.3997
19526W        W62438   2.362  34.179  25.404  0.2059  0.1188 -0.2437
19527W        W62439   0.975  33.793  26.401  0.0227  0.1114  0.3564
19528W        W62440   0.956  34.369  22.993  0.1963  0.2606  0.1627
19529W        W62441   1.283  34.207  26.211  0.2851  0.0023 -0.0152
19530W        W62442   1.015  34.070  23.587  0.1929 -0.1535 -0.0363
19531W        W62443   2.403   0.351  22.267 -0.0233 -0.0726  0.1291
19532W        W62444  33.806  32.844  26.540  0.0842 -0.0208  0.0700
19533W        W62445   0.934   0.833  25.537 -0.2410 -0.1785  0.1392
19534W        W62446   1.607   0.648  25.009 -0.0188  0.2314  0.2734
19535W        W62447   2.167  32.822  26.866  0.1401  0.2068  0.1030
19536W        W62448   1.733  34.108  24.356  0.3315 -0.5113  0.1381
19537W        W62449   1.884  33.004  25.129 -0.1493 -0.0810 -0.1175
19538W        W62450   2.401  34.295  29.912 -0.4439 -0.6409 -0.2329
19539W        W62451   2.578  32.361  28.268  0.0221 -0.0357  0.1265
19540W        W62452   2.356  33.217  28.836 -0.0117  0.1527 -0.2700
19541W        W62453   0.977  32.923  28.507  0.0146 -0.0758 -0.0260
19542W        W62454   2.028  31.721   0.147 -0.0296  0.0152  0.2940
19543W        W62455   2.636   1.385  27.396  0.5530 -0.2643  0.0118
19544W        W62456   2.553  34.015  31.319 -0.0635  0.0111 -0.1339
19545W        W62457   2.146  32.573  28.538 -0.1433 -0.0241 -0.1827
19546W        W62458   1.175  33.158  29.969 -0.2004 -0.0093 -0.0103
19547W        W62459   1.913  34.398  30.739  0.1603  0.0106 -0.0485
19548W        W62460   0.413  34.435  28.876 -0.0250  0.0475  0.1768
19549W        W62461   0.920  34.552   0.149 -0.4547  0.2428 -0.3486
19550W        W62462   1.358  33.747  27.876  0.3687  0.2159 -0.2312
19551W        W62463   2.268  33.739  31.054 -0.1086 -0.2158  0.1628
19552W        W62464   2.173  34.075  31.617  0.0770 -0.0946 -0.1374
19553W        W62465   0.715   0.384  27.891  0.0361  0.1995  0.0810
19554W        W62466   0.399   0.078  29.584 -0.0126 -0.0653  0.2948
19555W        W62467   1.317  33.363  30.375  0.0226  0.1464 -0.3027
19556W        W62468   3.171  33.904  30.394  0.2007  0.0319  0.0196
19557W        W62469   1.918   0.438  30.088  0.1486 -0.0984 -0.1932
19558W        W62470   3.418   0.224  31.750 -0.0508 -0.0257 -0.1901
19559W        W62471   2.161   0.244  30.674  0.2958 -0.0068 -0.1040
19560W        W62472   2.210  34.073  29.439  0.1062  0.2406  0.2003
19561W        W62473   5.056  32.002  31.305  0.0658 -0.2086  0.0086
19562W        W62474   3.301  33.960  28.638 -0.1479 -0.0456 -0.0603
19563W        W62475   1.578  33.620  27.094  0.0873  0.0102 -0.1362
19564W        W62476   3.404  33.873  27.806 -0.3949  0.1006 -0.0210
19565W        W62477   1.668  32.889  29.959  0.1109 -0.0567 -0.1603
19566W        W62478   1.576  32.944  30.458  0.2833 -0.0389 -0.0355
19567W        W62479   2.848  34.085  27.802 -0.1343 -0.1053  0.2941
19568W        W62480   4.598  33.752  29.771 -0.2289 -0.0803 -0.2123
19569W        W62481   0.432   0.528  30.559  0.1040 -0.0911  0.1717
19570W        W62482   0.448   1.175  27.327 -0.2014 -0.4029 -0.0915
19571W        W62483  34.085  33.771  30.835  0.1078 -0.1618  0.1295
19572W        W62484  34.259   0.690  31.230 -0.0692 -0.2798 -0.1520
19573W        W62485   1.440  34.081  27.408  0.1185  0.1929 -0.1645
19574W        W62486   3.056  34.300  29.395 -0.1492 -0.0712 -0.4554
19575W        W62487   2.586  32.274  30.475  0.4183 -0.1842  0.1045
19576W        W62488   1.420  32.569  30.767  0.3113 -0.0579  0.0874
19577W        W62489   2.636  34.399  27.356  0.1515  0.1435 -0.0134
19578W        W62490   3.472   0.658  31.534  0.1068 -0.2363 -0.0920
19579W        W62491   1.500  33.532  30.809  0.2092 -0.0098 -0.0621
19580W        W62492   4.316  33.461  28.059  0.0602  0.1461  0.2823
19581W        W62493   0.574  33.649  31.007  0.0132  0.1492  0.0292
19582W        W62494   5.170  33.209  28.486 -0.1139  0.0984  0.3597
19583W        W62495   4.218  32.947  28.170  0.0424  0.1422 -0.1089
19584W        W62496   0.812  34.364  29.862 -0.1055 -0.2859 -0.2773
19585W        W62497   0.685   0.309  29.145  0.0645  0.1890  0.0035
19586W        W62498   2.933  34.224  30.749 -0.1333  0.2104  0.2094
19587W        W62499   1.886  33.656  29.643  0.3605  0.2874  0.0298
19588W        W62500   4.160  34.542  30.831 -0.2270 -0.1436 -0.2040
19589W        W62501   1.106  33.286  27.672  0.0868  0.1172  0.1186
19590W        W62502   3.582  33.593  28.836  0.2600  0.2493 -0.1196
19591W        W62503   1.614  33.840  28.581  0.0416  0.0147  0.1167
19592W        W62504   2.851  33.690   1.121 -0.1306  0.1556  0.0641
19593W        W62505   2.618  34.363  31.711  0.5188  0.2441  0.2779
19594W        W62506   0.777  33.753  27.939 -0.0398 -0.2461 -0.1626
19595W        W62507   0.834  33.518  29.152  0.1424 -0.0619  0.2694
19596W        W62508   2.349  33.665  30.514  0.1201  0.4518  0.2328
19597W        W62509   2.774  33.303  29.548  0.2636  0.2178  0.5012
19598W        W62510   0.544  34.295  27.598  0.0209  0.2010  0.0789
19599W        W62511   0.221  34.001  29.035 -0.0991 -0.1271  0.2695
19600W        W62512   3.435  32.932  29.285  0.0535  0.3451 -0.1606
19601W        W62513  34.291   0.121  31.064  0.0437  0.2247  0.3875
19602W        W62514   3.907   0.951  31.717 -0.2273  0.2050 -0.0736
19603W        W62515  34.579  34.363  28.848  0.0214  0.1102 -0.0532
19604W        W62516   2.021  33.036  28.307  0.0306 -0.2298  0.2212
19605W        W62517   2.684  32.509  26.691  0.0582  0.0574 -0.3729
19606W        W62518   2.020  33.165  27.717  0.3194 -0.1652 -0.1074
19607W        W62519   3.192  32.422  27.598  0.2865 -0.0327  0.1159
19608W        W62520   0.867  32.410  28.277 -0.0056  0.1866  0.0677
19609W        W62521   2.105  32.811  30.663  0.0147 -0.0910  0.2945
19610W        W62522   1.973  34.482  26.731 -0.0523  0.0221  0.0958
19611W        W62523   2.346  33.096  29.320 -0.0250 -0.0149  0.3032
19612W        W62524   1.967  34.125  31.168  0.0503 -0.1254 -0.0223
19613W        W62525   2.765   0.302  29.262 -0.5676 -0.1592 -0.1070
19614W        W62526   1.983  33.450  31.697 -0.1112  0.3099 -0.2101
19615W        W62527   3.843  31.979  29.979 -0.0957 -0.4333 -0.2934
19616W        W62528   2.861  34.095  26.800 -0.4468  0.1390  0.1583
19617W        W62529   3.136  33.256  29.995 -0.1799  0.1195 -0.0068
19618W        W62530   1.071  34.585  26.462  0.1356 -0.0292 -0.2345
19619W        W62531   3.801  32.953  31.558 -0.3392 -0.1015  0.2684
19620W        W62532   3.302  33.277  31.451 -0.2279 -0.0677  0.1553
19621W        W62533   2.982  33.014  27.680 -0.0308 -0.0318 -0.0233
19622W        W62534   2.486  33.331  30.046  0.2540  0.1430  0.0837
19623W        W62535   2.904  34.199  29.871  0.1015 -0.0408  0.0199
19624W        W62536   0.668   1.276  28.330  0.0982  0.2327 -0.2160
19625W        W62537   0.000   0.707  28.953  0.1691 -0.0849  0.0283
19626W        W62538   4.353  33.544  28.616 -0.0570  0.0387  0.3423
19627W        W62539   1.213  33.115  31.729 -0.1131  0.3496  0.4560
19628W        W62540   2.719   0.505  30.708  0.0875 -0.2892  0.2889
19629W        W62541   4.091   0.864  30.261 -0.0578  0.2872 -0.0946
19630W        W62542   2.573  32.899  29.737 -0.1571  0.2016  0.2998
19631W        W62543   2.804   0.603  31.349 -0.2990  0.1025  0.0406
19632W        W62544   1.005   0.617  26.979 -0.2501  0.3461  0.0557
19633W        W62545   2.972   0.255  30.201 -0.2159  0.2102  0.0078
19634W        W62546   1.804  33.963  29.103  0.1179 -0.1855 -0.0777
19635W        W62547   0.525  34.476  27.157  0.3424 -0.0409 -0.0143
19636W        W62548   1.831   0.088  31.026 -0.2668 -0.0819  0.0084
19637W        W62549   2.415  33.595  29.452  0.0401  0.0200 -0.2887
19638W        W62550   1.217  33.475  29.488  0.1389 -0.0882  0.2097
19639W        W62551   2.593   0.049  28.843 -0.0427 -0.0022 -0.1832
19640W        W62552   3.551  33.892  31.380 -0.0301 -0.0105  0.1046
19641W        W62553   2.940  33.607  31.521 -0.0856 -0.3777 -0.0624
19642W        W62554   3.625   1.094  31.163 -0.0468  0.0070  0.0748
19643W        W62555   2.923  33.089  31.730 -0.0263  0.3647 -0.0992
19644W        W62556   3.179  33.783  29.628 -0.0257  0.0393  0.2042
19645W        W62557   3.197  34.637  29.832 -0.0938  0.2578  0.0593
19646W        W62558   3.698  31.441  29.348  0.0248 -0.0925 -0.1982
19647W        W62559   2.877  33.594  26.895  0.1973  0.1386  0.0034
19648W        W62560   2.824  33.710  30.955 -0.0660 -0.0890  0.0122
19649W        W62561  34.653  34.519  31.013 -0.0687  0.1367  0.1158
19650W        W62562   1.536  34.102  30.791 -0.2941  0.0393 -0.0672
19651W        W62563   1.808  34.685  31.939 -0.3081  0.4276  0.0387
19652W        W62564   2.849  33.094  28.789 -0.0092 -0.0003  0.2003
19653W        W62565   1.208  32.476  28.616  0.1215  0.0138 -0.1380
19654W        W62566   2.421   0.361  31.111  0.2401 -0.1644 -0.0986
19655W        W62567   4.816  33.995  29.271  0.0657  0.0895 -0.0648
19656W        W62568   0.502   1.283  31.399 -0.1043 -0.0340 -0.0238
19657W        W62569   2.966  34.380  28.885  0.3805  0.0491  0.0114
19658W        W62570   2.417  32.181  31.897 -0.0975 -0.2003  0.1090
19659W        W62571   1.947  33.395  29.227 -0.4228  0.2159 -0.1708
19660W        W62572   2.648  33.765  29.843  0.1093 -0.0964 -0.2230
19661W        W62573   3.123   1.054  31.392  0.0892  0.2351 -0.0874
19662W        W62574   1.571  33.844  30.331  0.0263 -0.0217 -0.1202
19663W        W62575   0.694   0.118  30.196  0.0532  0.0426 -0.1923
19664W        W62576   2.412  33.427  27.486  0.0889 -0.1289  0.0516
19665W        W62577   5.351  34.391  30.641  0.1833 -0.0322  0.0989
19666W        W62578   3.654  34.626  29.047  0.2076 -0.0961  0.2170
19667W        W62579   2.861  33.338  27.294  0.0917  0.0249 -0.3622
19668W        W62580   1.595  32.966  31.027 -0.1412  0.0401  0.4767
19669W        W62581   3.088  34.552  31.650 -0.0801  0.0720 -0.1290
19670W        W62582   1.161  33.361  28.175 -0.0469  0.3338 -0.1544
19671W        W62583   4.140   1.415  31.157  0.1214  0.2719 -0.0415
19672W        W62584   3.834  33.234  27.995  0.1872 -0.3068 -0.0425
19673W        W62585   1.131  33.021  30.762 -0.2290  0.2232 -0.4824
19674W        W62586   1.075  34.188  27.699  0.0814  0.0357 -0.2650
19675W        W62587   2.913  34.531  26.344  0.3231 -0.2906 -0.1065
19676W        W62588   1.437  33.590  29.030  0.0454 -0.0311 -0.2816
19677W        W62589   4.394  32.763  29.294 -0.4434 -0.2976  0.0616
19678W        W62590   3.656  33.264  30.106 -0.0938 -0.1029  0.2799
19679W        W62591   2.836  33.525  30.290  0.0100  0.1244  0.1144
19680W        W62592   3.964  34.529  28.642  0.1012 -0.0760 -0.2062
19681W        W62593   2.102  34.080  28.604  0.2244 -0.4046 -0.0179
19682W        W62594   4.622   0.195  30.129 -0.1972 -0.2853 -0.2632
19683W        W62595   1.479   0.226  28.503  0.0777 -0.0411  0.0062
19684W        W62596  33.773   0.767  30.546  0.1303  0.0640 -0.0034
19685W        W62597   1.589  33.462  27.548  0.1937 -0.3330  0.2314
19686W        W62598   1.602  34.650  28.063 -0.3566 -0.0415  0.1122
19687W        W62599   3.788  33.160  26.881 -0.2747  0.0067  0.1707
19688W        W62600   4.217  34.009  28.195  0.0949 -0.0998 -0.2168
19689W        W62601   3.791  33.335  27.396  0.1249  0.1357 -0.0249
19690W        W62602   2.797  33.938  28.677  0.2387 -0.1189 -0.0310
19691W        W62603   3.041  32.423  29.106 -0.3545 -0.1271  0.1164
19692W        W62604   2.441   0.646  31.723 -0.1091 -0.1137 -0.0213
19693W        W62605   4.243  32.663  29.780 -0.4121  0.3240  0.0512
19694W        W62606   1.144  34.682  28.924  0.1243  0.1384 -0.0537
19695W        W62607   1.427   1.610  29.785 -0.2175  0.0089 -0.0585
19696W        W62608   3.944  31.488  30.141  0.0588  0.1380  0.1313
19697W        W62609   3.283   0.224  29.268 -0.2144  0.2378  0.4623
19698W        W62610   0.794  32.592  28.929  0.0955 -0.3206 -0.1015
19699W        W62611   4.723   0.208  28.040  0.1464  0.0836  0.4109
19700W        W62612   2.140   0.286  31.584 -0.1049  0.0177 -0.1440
19701W        W62613   3.358  33.839   0.856  0.2546  0.0535  0.2572
19702W        W62614   0.450  33.607  28.772  0.0685  0.1124 -0.0760
19703W        W62615   3.664  33.956  29.482  0.2910  0.2240  0.0750
19704W        W62616   0.662  33.921  29.952  0.2174  0.0681  0.0056
19705W        W62617   2.228  33.587  27.956 -0.0499  0.3874 -0.0128
19706W        W62618   3.704   0.122  30.811 -0.3301 -0.0834 -0.0053
19707W        W62619   2.541  34.443  26.874  0.2595 -0.1706  0.2931
19708W        W62620   1.133  33.714  29.923 -0.1280 -0.1700  0.1964
19709W        W62621   3.445  33.220  28.310 -0.2097  0.1616 -0.0690
19710W        W62622   1.492  33.875  29.505 -0.2124  0.0222 -0.2163
19711W        W62623   2.620  33.861  31.848  0.0262  0.2176 -0.0054
19712W        W62624  33.635  32.617  28.961 -0.4146 -0.1295  0.0541
19713W        W62625   4.090  33.976  28.665 -0.1416  0.0142  0.2207
19714W        W62626   2.145   1.408  28.354  0.1005 -0.0455 -0.0192
19715W        W62627   1.784  34.079  29.942  0.0216  0.1054 -0.0869
19716W        W62628   2.521  32.891  28.345 -0.4061 -0.0179 -0.1029
19717W        W62629   0.676   0.119  28.664  0.0775 -0.3243  0.2726
19718W        W62630   5.175  33.002  29.370 -0.1729  0.2105  0.2285
19719W        W62631   1.821  33.503  31.201 -0.0621 -0.0936  0.2000
19720W        W62632   3.748  33.749  30.507  0.0506  0.1613  0.0995
19721W        W62633   3.237  33.378  29.149  0.2160  0.0220 -0.2635
19722W        W62634   2.149  32.817  31.195  0.0138 -0.0792 -0.2186
19723W        W62635   2.750  32.590  27.842 -0.0065 -0.0049  0.0014
19724W        W62636   3.938  31.854  29.479  0.0659 -0.1319  0.1862
19725W        W62637   2.296  34.523  31.090  0.0389  0.0446 -0.0253
19726W        W62638   0.256   1.389  26.759  0.0613 -0.1833 -0.0207
19727W        W62639   3.580  32.594  30.640 -0.1337 -0.1663 -0.2184
19728W        W62640   2.122  34.182  30.335  0.5734 -0.0278  0.0796
19729W        W62641   1.602  33.435  29.983  0.3112  0.1821 -0.1419
19730W        W62642   2.441  33.359  26.938 -0.0827  0.0399  0.0825
19731W        W62643   2.594  32.464  30.050 -0.1294 -0.0448 -0.1636
19732W        W62644   0.679  34.123  30.799 -0.0143  0.2619 -0.1520
19733W        W62645   2.001  33.703  30.190  0.2103  0.0449 -0.0761
19734W        W62646   2.316  34.691   0.002  0.2245  0.0697  0.1690
19735W        W62647   2.969  33.528   0.040 -0.2942 -0.0419 -0.1060
19736W        W62648   1.054  34.081  28.228 -0.0611 -0.1814 -0.2788
19737W        W62649   2.059  34.694  30.278  0.2519  0.0725  0.0667
19738W        W62650   0.424  33.441  31.489 -0.1534  0.2304 -0.0254
19739W        W62651   4.825  32.257  30.815 -0.3002 -0.0105 -0.2111
19740W        W62652   1.785  33.689  28.132 -0.0244  0.3807 -0.2688
19741W        W62653   1.982  32.968   0.003  0.0921 -0.1122  0.0993
19742W        W62654   1.946  33.348  30.739 -0.0938 -0.1852  0.2192
19743W        W62655   3.289  32.896  30.375 -0.0834 -0.2033  0.3211
19744W        W62656   0.590  34.291  30.309 -0.0667  0.1056  0.2231
19745W        W62657   2.654  33.526  28.446  0.2426 -0.0697 -0.1354
19746W        W62658   2.689   0.010  30.763  0.0395  0.2518  0.0610
19747W        W62659   1.583   0.139  29.396 -0.0737  0.2446 -0.1077
19748W        W62660   3.469   0.824  27.145 -0.1680  0.0863 -0.3545
19749W        W62661   1.172  32.736  30.248  0.0865  0.1828 -0.0893
19750W        W62662   1.450  34.551  27.655 -0.1380  0.2134  0.0432
19751W        W62663   2.332  33.717  28.892  0.0307 -0.0181 -0.1572
19752W        W62664   4.633  32.839  30.129  0.0304  0.3428  0.0372
19753W        W62665   1.925  33.852  30.707 -0.0437 -0.0984 -0.3935
19754W        W62666   2.678  34.053  30.316 -0.2830  0.0785 -0.0654
19755W        W62667   3.416  33.970  30.887  0.1654 -0.1484  0.4307
19756W        W62668   2.401  33.708   0.307 -0.0356  0.1571 -0.1626
19757W        W62669   0.245   0.270   0.522 -0.3200 -0.2197 -0.2219
19758W        W62670   2.811  34.183   0.177  0.0959 -0.0845  0.1036
19759W        W62671   1.351  33.324  31.308 -0.1584  0.0491  0.0471
19760W        W62672   4.144  34.028   0.536  0.0809  0.0103 -0.1185
19761W        W62673   2.429  31.761   0.704  0.2196  0.0887  0.1724
19762W        W62674   3.586  34.344   0.992 -0.1988 -0.0495 -0.0858
19763W        W62675   1.556  34.193  31.878  0.0335 -0.0479 -0.0173
19764W        W62676   0.657  34.271  31.760  0.0694  0.0744 -0.0064
19765W        W62677  33.910   0.378   1.060 -0.0597  0.3647 -0.2848
19766W        W62678   3.423  33.105   0.002  0.0413 -0.1879 -0.0678
19767W        W62679   3.674  34.190  31.952 -0.1000 -0.1786 -0.1378
19768W        W62680   3.281  33.362   0.422  0.0588  0.1599 -0.1026
19769W        W62681   1.647   0.319  31.393 -0.0169  0.3159  0.1779
19770W        W62682   3.291  34.502   0.145 -0.2210 -0.0189 -0.2640
19771W        W62683  34.586  34.464  30.329  0.1944  0.0261  0.0031
19772W        W62684   1.278   0.030  30.235  0.3678 -0.2581 -0.0837
19773W        W62685   0.885  32.940   0.224  0.0669  0.0196 -0.5497
19774W        W62686   0.773  33.348  31.900  0.0001  0.0052 -0.0480
19775W        W62687   2.425  33.783   0.864 -0.0166 -0.1726 -0.0810
19776W        W62688   3.082   0.212  31.290  0.1853  0.2366 -0.1361
19777W        W62689   4.052  33.825  31.959  0.1219 -0.1414  0.2781
19778W        W62690   2.091  32.939   0.961 -0.2140 -0.0142 -0.0652
19779W        W62691   1.087  34.319  31.063 -0.0206 -0.1337  0.0449
19780W        W62692   1.450   1.393   1.481  0.0642 -0.2085  0.0548
19781W        W62693   3.638  32.430   1.154  0.0000 -0.0551 -0.2797
19782W        W62694   5.608  33.422  28.459 -0.1464  0.1212  0.1950
19783W        W62695   2.623  32.735  30.864 -0.2919 -0.0779 -0.3263
19784W        W62696   1.691  33.841  31.555  0.0403 -0.0919 -0.0270
19785W        W62697   2.395  33.255   0.074  0.1765  0.1322 -0.2247
19786W        W62698  33.751   0.003  31.337 -0.0092  0.2791 -0.1322
19787W        W62699   0.571  32.880  31.830  0.2446  0.2693  0.2835
19788W        W62700   4.123   0.293  31.133  0.1909  0.1974 -0.1614
19789W        W62701   4.693   3.698  19.696  0.0451  0.0912 -0.0659
19790W        W62702   4.354   2.663  17.525 -0.0512  0.0564 -0.0942
19791W        W62703   7.173   0.461  15.791 -0.0363 -0.0471  0.0903
19792W        W62704   5.072   0.354  17.484 -0.1327 -0.3042 -0.0881
19793W        W62705   4.128   1.788  17.561  0.1557  0.1864 -0.0647
19794W        W62706   6.715   3.293  16.098  0.1574 -0.3146  0.1144
19795W        W62707   4.805  34.490  19.602 -0.0592  0.1116 -0.1144
19796W        W62708   7.686   2.530  17.422 -0.0007  0.2081 -0.0769
19797W        W62709   6.922   3.320  18.447  0.1545 -0.0618 -0.3265
19798W        W62710   7.228   2.299  15.704  0.3312  0.0318  0.1484
19799W        W62711   6.792   0.931  18.070 -0.4094 -0.0714 -0.3888
19800W        W62712   5.034   3.600  19.334  0.0854  0.0908 -0.2682
19801W        W62713   5.026   0.517  16.971  0.2656 -0.0582 -0.0857
19802W        W62714   4.615  34.542  18.720 -0.1776 -0.1542 -0.1681
19803W        W62715   6.217   1.689  19.829  0.0710 -0.0206 -0.2755
19804W        W62716   3.377   2.850  17.097  0.1752  0.1713 -0.1417
19805W        W62717   4.965   1.774  17.501 -0.0080 -0.0118  0.2173
19806W        W62718   6.465   0.540  17.329 -0.1650 -0.0672 -0.0001
19807W        W62719   4.442   3.343  18.114  0.1103  0.0559  0.0656
19808W        W62720   6.301   0.365  18.815 -0.1399  0.0184  0.1838
19809W        W62721   6.074   0.238  19.713  0.0292 -0.2652 -0.1985
19810W        W62722   6.548   1.859  16.434  0.0795 -0.1102  0.2074
19811W        W62723   2.361   2.490  16.557  0.1611 -0.2226 -0.0821
19812W        W62724   3.356   1.644  17.525 -0.1553 -0.1310  0.2298
19813W        W62725   5.221   1.580  18.083 -0.0922 -0.2371  0.3594
19814W        W62726   6.284   0.744  18.356 -0.0026  0.1309 -0.0253
19815W        W62727   7.852   2.952  17.211  0.1033  0.1138  0.3101
19816W        W62728   3.722   2.902  18.700 -0.1488  0.3285 -0.3236
19817W        W62729   4.468   2.762  18.191  0.0679 -0.1247  0.0625
19818W        W62730   6.072   2.166  19.746 -0.1546  0.0173 -0.0180
19819W        W62731   4.133   1.771  17.019  0.0326 -0.0916 -0.1217
19820W        W62732   2.845   3.774  16.934 -0.3023  0.3933 -0.1271
19821W        W62733   4.150   4.083  15.922 -0.1016  0.0105 -0.3073
19822W        W62734   8.270   3.141  16.961 -0.1097  0.0803  0.0334
19823W        W62735   5.356   3.687  18.933 -0.0057  0.2375 -0.0304
19824W        W62736   5.910   3.839  18.758 -0.3712  0.0220 -0.0451
19825W        W62737   3.761   2.470  15.962  0.2186  0.0110 -0.4208
19826W        W62738   6.210   4.722  19.401  0.4627  0.3920 -0.1428
19827W        W62739   4.089   4.563  19.391 -0.1658  0.1299  0.0007
19828W        W62740   5.717   0.093  18.858 -0.0595  0.2791  0.0310
19829W        W62741   6.975   1.549  16.961 -0.1168 -0.2259 -0.0660
19830W        W62742   5.209   2.771  16.211 -0.0814 -0.0345 -0.0731
19831W        W62743   4.800   2.486  16.130  0.0821  0.2060 -0.0925
19832W        W62744   5.991   3.190  20.172  0.2711  0.3961 -0.3114
19833W        W62745   3.685   3.017  17.444 -0.4496  0.0816  0.1973
19834W        W62746   6.921   0.842  17.539  0.0299 -0.2341 -0.2558
19835W        W62747   3.704   3.482  17.303 -0.0836 -0.2255 -0.4836
19836W        W62748   6.178   0.386  15.921  0.1008 -0.1220  0.0568
19837W        W62749   6.850   0.651  17.044  0.1263  0.1343  0.0893
19838W        W62750   8.654   0.823  16.242  0.0144  0.2566  0.0032
19839W        W62751   5.733  34.318  17.366  0.2252  0.2119 -0.0672
19840W        W62752   4.485   2.251  16.846  0.2012  0.2188  0.0435
19841W        W62753   3.701   2.149  19.402 -0.2171 -0.1117 -0.2196
19842W        W62754   5.825   3.367  19.624  0.0725  0.0225 -0.0111
19843W        W62755   5.806   0.314  16.869  0.0566  0.1476 -0.1461
19844W        W62756   5.502   0.085  17.146 -0.0381 -0.0150  0.1971
19845W        W62757   4.199   2.641  18.604 -0.2318 -0.2062  0.1065
19846W        W62758   2.987   0.675  18.339 -0.1788  0.0819 -0.3959
19847W        W62759   5.738   2.184  16.781 -0.0971  0.1309 -0.1653
19848W        W62760   7.077   3.604  16.723  0.1018  0.1504 -0.2067
19849W        W62761   4.846   3.129  16.764 -0.3221 -0.3434  0.1687
19850W        W62762   4.974   2.020  17.058 -0.4484  0.1248 -0.0047
19851W        W62763   4.707   2.027  19.209  0.1418  0.0098 -0.0477
19852W        W62764   5.826   0.651  17.741 -0.0038  0.1885 -0.2673
19853W        W62765   4.576   0.583  16.510  0.2076  0.0850 -0.0038
19854W        W62766   6.500   3.846  19.667  0.0663  0.1146 -0.0531
19855W        W62767   3.475   4.531  17.601  0.2135 -0.3068  0.0408
19856W        W62768   8.438   1.192  16.501 -0.0599  0.2599 -0.0504
19857W        W62769   4.980   3.150  17.195  0.2245  0.2410 -0.1675
19858W        W62770   6.450   2.395  17.894 -0.1249  0.0840  0.2834
19859W        W62771   6.211   3.858  16.599 -0.0041  0.1695 -0.1096
19860W        W62772   7.397   0.276  17.651 -0.0195  0.2732 -0.0744
19861W        W62773   6.218   0.870  19.011 -0.0493 -0.1915  0.3400
19862W        W62774   4.320   2.602  15.334 -0.0179  0.1951 -0.0004
19863W        W62775   5.452   2.451  16.494 -0.0998  0.1362 -0.0493
19864W        W62776   6.603   3.131  18.047 -0.0150  0.0975 -0.0065
19865W        W62777   6.058   1.691  16.098  0.0001 -0.0321  0.0165
19866W        W62778   4.005   2.979  18.269 -0.3499  0.0175  0.0339
19867W        W62779   6.151   1.333  19.342 -0.3122 -0.0690 -0.0430
19868W        W62780   5.469   4.079  19.194  0.2112  0.1207 -0.2427
19869W        W62781   4.057   3.874  17.227 -0.1015  0.0217  0.1172
19870W        W62782   2.753   2.536  16.292 -0.0208 -0.1319 -0.0230
19871W        W62783   4.261   3.129  16.277  0.3858  0.0403  0.3227
19872W        W62784   3.182   2.366  19.360  0.2177 -0.2408 -0.0937
19873W        W62785   6.548   1.115  18.626 -0.0166 -0.2440 -0.0415
19874W        W62786   6.884  34.414  16.077  0.2036 -0.0381 -0.1769
19875W        W62787   4.549  34.574  20.188  0.1289 -0.2559  0.2574
19876W        W62788   6.858  34.106  17.995  0.3449 -0.1570  0.1608
19877W        W62789   4.305   2.680  15.941 -0.0916  0.0196 -0.1236
19878W        W62790   6.657   3.439  16.993  0.2689 -0.1473 -0.2488
19879W        W62791   7.671  34.238  15.639  0.1215 -0.0501 -0.0219
19880W        W62792   8.192   2.595  17.776  0.3471  0.0594 -0.0433
19881W        W62793   4.011   3.496  18.191  0.0462  0.0259 -0.1689
19882W        W62794   5.899   0.689  18.694 -0.1937  0.3142  0.2035
19883W        W62795   3.923   1.479  19.687 -0.0944  0.1515 -0.1998
19884W        W62796   2.320   0.174  19.681  0.0877  0.0055 -0.1236
19885W        W62797   7.540   2.090  18.240  0.0158 -0.0528 -0.0297
19886W        W62798   4.165   0.284  16.372  0.1983 -0.1610  0.0000
19887W        W62799   6.497   1.707  17.865 -0.2249  0.0236  0.1644
19888W        W62800   5.725  34.654  16.518  0.0112 -0.2535 -0.3655
19889W        W62801   3.670   1.965  17.139 -0.2622 -0.2844 -0.1358
19890W        W62802   6.251   1.464  20.275 -0.1914  0.2277  0.2756
19891W        W62803   5.682   2.984  18.218  0.1596 -0.1687  0.1796
19892W        W62804   6.085   4.557  18.912 -0.1449  0.1984 -0.0780
19893W        W62805   7.460   4.340  16.149  0.2147  0.1698 -0.0132
19894W        W62806   3.620   1.025  18.255  0.0758  0.1828  0.0245
19895W        W62807   3.810   0.504  16.845 -0.2750 -0.1627 -0.1219
19896W        W62808   3.902   3.692  17.718  0.0757 -0.0782  0.1758
19897W        W62809   5.572   2.297  17.930  0.1625  0.0454 -0.0056
19898W        W62810   5.163   0.933  16.731 -0.0986  0.0776 -0.3200
19899W        W62811   8.680   3.365  16.087 -0.1791  0.1292 -0.3159
19900W        W62812   6.512   2.969  17.113  0.0348 -0.0114 -0.0625
19901W        W62813   5.631   2.908  17.740  0.0278  0.1329 -0.2389
19902W        W62814   6.145  34.633  19.100 -0.0594  0.1278  0.4034
19903W        W62815   7.106   1.833  19.163  0.1400 -0.1653 -0.0345
19904W        W62816   7.032   1.722  17.971  0.0219  0.2504  0.0554
19905W        W62817   4.797   0.787  16.120 -0.2081 -0.0061 -0.0843
19906W        W62818   5.478   2.921  17.265  0.0098  0.0448 -0.1275
19907W        W62819   3.720   3.366  15.756 -0.0913 -0.3299  0.3169
19908W        W62820   3.769   1.689  16.624 -0.1922  0.0209 -0.1690
19909W        W62821   3.964   2.737  17.097 -0.0659 -0.1314 -0.0950
19910W        W62822   6.772   0.643  18.592 -0.1503  0.0570 -0.2937
19911W        W62823   3.411   3.523  20.675  0.0375  0.1825 -0.0237
19912W        W62824   5.720   1.236  19.740 -0.0855 -0.0211  0.3176
19913W        W62825   4.547   2.026  16.092 -0.2384  0.1627  0.0848
19914W        W62826   5.022   2.444  19.104 -0.2923  0.5072  0.3296
19915W        W62827   5.708  33.665  18.054 -0.1141  0.0918  0.0582
19916W        W62828   7.685   0.850  16.508 -0.0458  0.1042 -0.3145
19917W        W62829   5.551   3.014  19.893  0.0815 -0.0724 -0.2393
19918W        W62830   7.917   2.701  16.685  0.0972 -0.1799 -0.1188
19919W        W62831   6.425   1.033  17.249 -0.2079 -0.2975  0.4745
19920W        W62832   5.861   0.379  16.401  0.1562 -0.0054 -0.2413
19921W        W62833   3.013   3.191  19.313  0.1996  0.0517 -0.1685
19922W        W62834   6.231   2.459  17.184 -0.1999 -0.0461  0.0178
19923W        W62835   5.625   1.888  18.237  0.4669  0.1283  0.0581
19924W        W62836   5.897   0.893  16.328  0.2508 -0.1063  0.2422
19925W        W62837   6.717   4.569  16.402  0.1343 -0.1943 -0.0739
19926W        W62838   4.661   1.920  17.913  0.0169 -0.0252 -0.0338
19927W        W62839   6.006   2.811  19.634 -0.0268  0.0293 -0.2365
19928W        W62840   5.489   3.307  16.877 -0.2309  0.0542  0.6731
19929W        W62841   5.478   0.603  17.252 -0.1066 -0.0627  0.1924
19930W        W62842   6.759   1.983  15.574  0.1827 -0.2857 -0.1641
19931W        W62843   5.617  33.951  16.067  0.2412  0.3234  0.1930
19932W        W62844   3.264   3.334  15.540  0.0079  0.0909 -0.0049
19933W        W62845   6.911  33.454  18.724  0.1514 -0.4434  0.0250
19934W        W62846   6.362   1.265  18.139  0.2001  0.1112  0.1115
19935W        W62847   4.352   0.242  18.871 -0.2908  0.1249 -0.0989
19936W        W62848   6.859   2.207  20.323  0.0800 -0.0234  0.0533
19937W        W62849   6.718   1.092  16.799  0.0118  0.0566  0.2075
19938W        W62850   6.487   0.226  17.686 -0.0705 -0.0060 -0.3872
19939W        W62851   4.885  34.580  17.618  0.2516  0.2769  0.4176
19940W        W62852   4.656   0.382  20.076 -0.2205  0.2728  0.1705
19941W        W62853   4.661   3.356  19.200 -0.0911 -0.2509 -0.1787
19942W        W62854   6.032   3.833  18.282 -0.0309  0.1159 -0.1328
19943W        W62855   7.160   3.245  19.267  0.0408 -0.1362  0.1154
19944W        W62856   6.819   1.650  17.404  0.1176 -0.2787  0.0808
19945W        W62857   5.774   0.722  19.822 -0.0443  0.1877 -0.1392
19946W        W62858   5.301  34.282  16.333 -0.0669 -0.1361 -0.1816
19947W        W62859   3.963   4.124  16.799 -0.1594 -0.1816  0.2334
19948W        W62860   4.458   2.689  16.526 -0.0708 -0.1178 -0.1281
19949W        W62861   5.789   1.529  17.452  0.1893 -0.0682 -0.0868
19950W        W62862   5.706   2.533  18.371  0.0631  0.0034 -0.0516
19951W        W62863   5.057   3.296  15.933  0.1329  0.0353  0.0829
19952W        W62864   6.000   3.368  18.376 -0.0012  0.1404  0.3124
19953W        W62865   4.011   3.075  16.674  0.0981  0.2414  0.0741
19954W        W62866   5.691  33.414  18.799 -0.0899 -0.1941 -0.0712
19955W        W62867   3.149   2.344  17.162  0.2525  0.1754 -0.0583
19956W        W62868   5.640   1.285  16.596 -0.0119 -0.1681 -0.1733
19957W        W62869   3.806   1.479  17.303  0.1134  0.0306 -0.3434
19958W        W62870   5.313   0.606  17.885  0.0870  0.0993  0.0775
19959W        W62871   7.328   2.528  16.159  0.2619 -0.0121 -0.1875
19960W        W62872   3.902   0.718  18.539  0.2602 -0.0468 -0.0595
19961W        W62873   5.271  34.404  17.870  0.2553  0.5027  0.1700
19962W        W62874   5.146   2.573  18.574 -0.0088  0.1635 -0.1687
19963W        W62875   5.118   2.153  17.984  0.1921  0.1920 -0.1074
19964W        W62876   5.932  34.108  15.702  0.0713 -0.0776 -0.0952
19965W        W62877   6.481   2.117  17.478 -0.3251  0.3951  0.2729
19966W        W62878   5.633   1.843  18.756  0.1348  0.1017  0.0216
19967W        W62879   2.769   1.871  15.671 -0.0525 -0.0819  0.1773
19968W        W62880   7.192   1.840  18.488 -0.0062  0.0121  0.0411
19969W        W62881   4.657   2.209  17.439 -0.0894  0.2275 -0.0610
19970W        W62882   3.859   2.588  17.740 -0.1831 -0.1321 -0.0670
19971W        W62883   6.590   2.096  18.281  0.0433 -0.0397  0.0221
19972W        W62884   4.761   1.277  16.941 -0.0658  0.0352  0.0028
19973W        W62885   4.644   1.665  18.885  0.1470 -0.0855 -0.4004
19974W        W62886   5.741   1.398  18.398 -0.0074 -0.0141 -0.1836
19975W        W62887   6.184   2.862  18.164 -0.0160  0.1157  0.2102
19976W        W62888   6.023   0.742  17.237 -0.1113  0.0798 -0.2336
19977W        W62889   4.254   1.336  17.195  0.2198 -0.0455 -0.1409
19978W        W62890   5.204   1.409  17.182  0.1031 -0.1022 -0.2794
19979W        W62891   5.553   2.004  17.305 -0.0553  0.1170 -0.0978
19980W        W62892   6.727  34.522  17.568  0.2088 -0.0278  0.1293
19981W        W62893   4.443   4.295  18.894  0.2277  0.1146  0.2880
19982W        W62894   5.550  33.863  18.647  0.1442 -0.0023  0.2493
19983W        W62895   6.999   3.086  17.049  0.0351  0.1381  0.1252
19984W        W62896   5.945   0.997  18.080 -0.2121 -0.1704 -0.1847
19985W        W62897   5.261   2.230  16.114  0.1126 -0.2481 -0.3866
19986W        W62898   4.883   3.002  18.131  0.2069 -0.1572  0.5200
19987W        W62899   4.485   2.883  17.009  0.0080  0.0586  0.2458
19988W        W62900   5.421  34.344  18.630  0.1372 -0.1381  0.0595
19989W        W62901   3.104   3.780  17.440  0.0482  0.0679  0.4462
19990W        W62902   5.040   2.682  15.754  0.1400  0.1003 -0.0096
19991W        W62903   2.990   3.802  19.040 -0.1289  0.0328 -0.2488
19992W        W62904   6.455  33.305  16.579  0.0678 -0.1607  0.2593
19993W        W62905   5.799   2.697  16.855  0.2648 -0.1142 -0.2713
19994W        W62906   6.665  34.568  16.538 -0.0345  0.0346 -0.4115
19995W        W62907   7.619   0.697  18.735  0.2986 -0.0548 -0.0146
19996W        W62908   5.943   1.805  16.575  0.3029  0.2402 -0.1916
19997W        W62909   6.404   0.727  17.789  0.0288 -0.1051  0.1400
19998W        W62910   5.543   0.986  18.531  0.2932 -0.1208 -0.0001
19999W        W62911   7.830   2.575  18.091  0.0365 -0.1350 -0.2352
20000W        W62912   4.686   1.328  18.043 -0.4153  0.1686 -0.1835
20001W        W62913   6.790   3.581  19.974  0.2158  0.0027 -0.0434
20002W        W62914   4.461   2.248  20.020  0.1510  0.1825 -0.1647
20003W        W62915   5.997  34.440  16.986 -0.1679 -0.2857  0.0210
20004W        W62916   4.611   0.483  17.325  0.0780 -0.2867 -0.1792
20005W        W62917   6.104   1.096  17.627 -0.1316  0.3945  0.1518
20006W        W62918   7.182   2.570  17.201  0.3131 -0.1428  0.0890
20007W        W62919   4.839   3.617  16.893  0.0248  0.2796  0.0208
20008W        W62920   7.981   0.654  17.316  0.2140  0.2426 -0.0835
20009W        W62921   4.742   2.894  18.601  0.0363  0.0133  0.0800
20010W        W62922   7.888   3.883  17.347  0.3166  0.0286 -0.1089
20011W        W62923   5.136   1.504  16.581 -0.0114 -0.1155 -0.0599
20012W        W62924   4.381   3.639  17.644 -0.0241 -0.2183 -0.2086
20013W        W62925   5.122   1.918  19.580 -0.1840  0.2550 -0.2387
20014W        W62926   5.305   4.617  18.522  0.0463  0.1570 -0.1711
20015W        W62927   6.051   1.908  17.057 -0.0722  0.0301  0.2572
20016W        W62928   6.019   1.254  16.946  0.0300 -0.1974 -0.0899
20017W        W62929   6.438   2.546  18.523 -0.1151  0.1165 -0.1652
20018W        W62930   5.538   0.525  18.963  0.0046  0.1443  0.1665
20019W        W62931   4.807   1.350  18.517  0.3734  0.0584  0.1310
20020W        W62932   6.997   4.462  18.040  0.0060  0.0265  0.0899
20021W        W62933   7.068   1.013  15.874  0.2313  0.4705 -0.0273
20022W        W62934   6.594   1.199  17.706  0.2347 -0.0287 -0.0762
20023W        W62935   7.319   1.580  17.318  0.0736 -0.0471 -0.0548
20024W        W62936   7.871   1.986  17.346 -0.1602 -0.0673 -0.0180
20025W        W62937   5.104   1.014  18.268  0.1398  0.2807 -0.0549
20026W        W62938   6.485   1.553  19.014  0.1499  0.2745  0.1625
20027W        W62939   5.547   1.101  17.194 -0.1755 -0.0861  0.0190
20028W        W62940   6.470   0.586  20.014  0.1079  0.0288 -0.2155
20029W        W62941   4.681   3.827  16.333  0.1463 -0.0192 -0.2100
20030W        W62942   6.937   2.675  16.761 -0.0185  0.1520 -0.1232
20031W        W62943   6.149   1.332  16.439  0.1701  0.3261  0.1624
20032W        W62944   3.727   2.331  18.703 -0.1893  0.3265 -0.0970
20033W        W62945   3.026   2.787  19.067  0.1273 -0.0799  0.1073
20034W        W62946   3.781   0.038  16.732 -0.0710  0.1940 -0.1404
20035W        W62947   5.318   2.015  16.645  0.0355  0.2935  0.1248
20036W        W62948   5.406   2.891  18.986 -0.1563  0.2533  0.1540
20037W        W62949   5.889   1.712  19.138 -0.0207  0.0144 -0.1774
20038W        W62950   5.546  34.433  15.728  0.0803  0.0769  0.2578
20039W        W62951   7.303   0.370  18.153 -0.0289 -0.2891 -0.1356
20040W        W62952   3.505   3.210  16.705 -0.1772 -0.0504 -0.0063
20041W        W62953   6.421  34.057  17.221 -0.0941 -0.0849 -0.1388
20042W        W62954   5.068   2.807  17.616  0.0045 -0.0863 -0.2938
20043W        W62955   3.313   2.617  18.648  0.3554  0.1199  0.0867
20044W        W62956   5.302   3.023  18.508  0.4349 -0.1141  0.0906
20045W        W62957   5.780   1.196  18.930 -0.0802 -0.0650 -0.2469
20046W        W62958   5.544   1.058  17.800 -0.0778 -0.0995 -0.3343
20047W        W62959   6.007   1.931  17.733  0.5088  0.3086 -0.0425
20048W        W62960   7.037   2.255  18.118  0.0496 -0.1904 -0.1164
20049W        W62961   5.884   3.017  19.122 -0.1676 -0.1964 -0.2417
20050W        W62962   5.701   2.496  17.326 -0.0369  0.3441 -0.1659
20051W        W62963   6.239   3.545  19.325  0.1444 -0.0763 -0.1249
20052W        W62964   7.897   2.157  17.850  0.0953  0.0786  0.3070
20053W        W62965   5.197   2.295  17.491 -0.0089 -0.2628 -0.0858
20054W        W62966   3.955   2.020  20.380  0.2556 -0.0175 -0.1873
20055W        W62967   5.831   2.545  20.082 -0.0841 -0.0632  0.3236
20056W        W62968   7.347   0.787  17.877 -0.1572  0.1022 -0.0421
20057W        W62969   3.228   1.220  17.962  0.0258 -0.1856  0.1259
20058W        W62970   4.873   2.577  16.676 -0.1498  0.2314  0.3933
20059W        W62971   3.729   3.941  18.167 -0.1842 -0.0673  0.1604
20060W        W62972   4.372   2.185  18.365  0.2937  0.4037 -0.4193
20061W        W62973   3.598   3.930  17.078  0.1351 -0.2551 -0.0261
20062W        W62974   6.678   2.575  16.327 -0.1358 -0.0228  0.2568
20063W        W62975   6.903   1.453  15.548 -0.0041  0.2837  0.0304
20064W        W62976   5.741   3.383  17.376 -0.1145  0.0226 -0.1518
20065W        W62977   6.453   1.977  15.939  0.2057  0.1401 -0.0549
20066W        W62978   4.360   3.775  16.856  0.0775 -0.0336  0.0371
20067W        W62979   3.500   2.402  16.801  0.1583 -0.1321  0.2523
20068W        W62980   5.283   3.257  17.643  0.2326 -0.2820  0.4853
20069W        W62981   4.895   2.633  17.173 -0.1489 -0.2766  0.1337
20070W        W62982   7.104   3.047  17.982 -0.0229 -0.0298 -0.0786
20071W        W62983   7.502   0.297  16.517  0.2173  0.0193 -0.0347
20072W        W62984   8.217   2.513  19.044 -0.1596 -0.0554  0.0839
20073W        W62985   7.154   1.111  17.079  0.0533 -0.0386 -0.1025
20074W        W62986   5.770   2.657  20.835  0.3489  0.4610 -0.0833
20075W        W62987   4.615   0.347  17.811  0.0836  0.3045  0.0797
20076W        W62988   4.977  34.629  16.173  0.1258 -0.0023  0.1557
20077W        W62989   6.281   1.535  17.468  0.0905 -0.0563 -0.1317
20078W        W62990   7.234  33.102  19.619 -0.0388 -0.0469  0.1056
20079W        W62991   3.118   4.335  18.644 -0.2843  0.1737 -0.1853
20080W        W62992   6.038   4.307  16.755  0.2008 -0.1785  0.2003
20081W        W62993   3.627   0.696  17.278 -0.0820 -0.0331 -0.0132
20082W        W62994   5.422   1.807  17.705 -0.1091 -0.0291 -0.1802
20083W        W62995   6.652  33.562  18.119 -0.1476  0.0759 -0.0045
20084W        W62996   5.734   2.906  16.344 -0.1360  0.3354 -0.2292
20085W        W62997   6.675   0.579  19.089  0.0529  0.1163 -0.0860
20086W        W62998   4.673   3.825  18.004 -0.2246  0.0702 -0.0613
20087W        W62999   4.055   2.506  19.126 -0.3213 -0.1176  0.1339
20088W        W63000   4.644   4.019  20.048 -0.0575  0.1287 -0.2233
20089W        W63001   4.853   0.018  17.100 -0.0732  0.0348 -0.0952
20090W        W63002   8.110   0.845  16.800  0.2535  0.0614  0.2046
20091W        W63003   6.064   2.235  18.194  0.0728 -0.1513  0.0383
20092W        W63004   6.700  34.470  19.101  0.1394  0.1940  0.0231
20093W        W63005   3.709   1.391  17.865  0.0014  0.1084  0.1106
20094W        W63006   6.861   0.452  17.873 -0.1220 -0.3582 -0.1077
20095W        W63007   5.838   0.914  19.348  0.0295  0.0240  0.1192
20096W        W63008   4.291   2.259  17.850 -0.0607 -0.1724 -0.2142
20097W        W63009   5.742   0.833  16.797 -0.0715 -0.0574  0.1429
20098W        W63010   7.144   1.250  17.696  0.2093 -0.0090  0.2340
20099W        W63011   5.754   0.596  15.957  0.3614 -0.2741 -0.1573
20100W        W63012   5.808   4.345  18.390  0.0597 -0.1801 -0.1179
20101W        W63013   5.688   0.515  18.217  0.4468 -0.1922 -0.1224
20102W        W63014   7.507   0.874  15.608  0.1550 -0.2341 -0.3991
20103W        W63015   4.641   1.265  17.482 -0.0122  0.2036  0.0855
20104W        W63016   3.877   0.206  18.794  0.0983  0.0969  0.2320
20105W        W63017   5.563   3.403  20.212  0.2601 -0.1270 -0.3329
20106W        W63018   3.876   1.042  17.498  0.1475 -0.1218 -0.0958
20107W        W63019   7.689   2.257  16.958 -0.0692  0.1590 -0.2371
20108W        W63020   6.653   2.002  17.052  0.2795  0.0007 -0.4316
20109W        W63021   6.295   4.276  16.273  0.1864 -0.0391  0.1129
20110W        W63022   6.426   1.554  15.543  0.1217  0.1590 -0.1175
20111W        W63023   6.437   2.831  17.595  0.4518  0.1134 -0.1070
20112W        W63024   4.214   1.504  18.779  0.2723  0.0287 -0.0853
20113W        W63025   4.706   3.111  17.656 -0.1430 -0.0298 -0.0531
20114W        W63026   7.413   2.475  17.837 -0.0433 -0.1826 -0.3542
20115W        W63027   6.017  33.977  17.566 -0.0241 -0.2077  0.4762
20116W        W63028   4.144   0.783  17.111 -0.1142  0.0107  0.0853
20117W        W63029   3.316   3.497  16.995 -0.1515 -0.0862  0.0779
20118W        W63030   7.096   0.880  19.451 -0.2088  0.0511  0.0178
20119W        W63031   6.818  34.146  19.455 -0.2603  0.0824  0.1425
20120W        W63032   6.947   2.136  16.542 -0.3991 -0.1213 -0.1246
20121W        W63033   6.787   0.789  20.397 -0.3106 -0.0505 -0.1361
20122W        W63034   5.677   2.630  19.311 -0.0996 -0.2056 -0.0659
20123W        W63035   4.263   4.530  20.598 -0.1677  0.1777  0.1437
20124W        W63036   4.177   2.363  16.305 -0.3818  0.1186  0.0578
20125W        W63037   4.527   0.803  18.580  0.0815  0.0663  0.1546
20126W        W63038   4.488   3.436  16.541  0.1331  0.0026  0.0750
20127W        W63039   5.314   2.873  16.736 -0.1538  0.1316  0.2635
20128W        W63040   6.155   1.614  18.541  0.3043 -0.1124  0.1293
20129W        W63041   7.067   2.198  17.525 -0.3279 -0.0396  0.1467
20130W        W63042   8.159   3.530  17.592  0.2136 -0.0735 -0.0745
20131W        W63043   5.124   1.294  17.682  0.1708  0.2406 -0.2754
20132W        W63044   6.950  34.565  17.083  0.1174 -0.2282  0.1016
20133W        W63045   7.018   0.313  16.716  0.0451  0.1126 -0.3337
20134W        W63046   4.855   2.807  19.842  0.3018 -0.1745  0.0203
20135W        W63047   4.275   0.290  16.953 -0.2611 -0.0455  0.2945
20136W        W63048   4.737   3.013  16.249  0.2410 -0.0722 -0.3755
20137W        W63049   4.121   2.255  17.222  0.1355 -0.3039 -0.2635
20138W        W63050   5.363  34.466  20.263  0.3262 -0.1060  0.1074
20139W        W63051   4.122   1.016  18.861  0.1042 -0.2067  0.1876
20140W        W63052   4.603   0.833  16.921  0.1073 -0.1946  0.0890
20141W        W63053   4.520   0.858  18.097 -0.1732  0.0935 -0.1698
20142W        W63054   6.274   2.883  16.134 -0.0069  0.2157 -0.0963
20143W        W63055   4.603  34.349  19.176  0.1556  0.0151  0.0502
20144W        W63056   3.014   0.432  17.848  0.1283  0.0010  0.0157
20145W        W63057   7.486   1.950  17.731  0.0029  0.0921  0.0771
20146W        W63058   8.524   3.382  16.636  0.0657 -0.1377 -0.0119
20147W        W63059   4.074   0.467  17.502 -0.1502 -0.0759  0.0204
20148W        W63060   7.412   3.757  19.179 -0.0084 -0.0269 -0.0706
20149W        W63061   4.858   1.529  15.625  0.0527 -0.0969 -0.1895
20150W        W63062   5.292  33.912  20.101 -0.1555  0.1940 -0.2282
20151W        W63063   5.494   0.505  19.491  0.0553 -0.1553  0.3461
20152W        W63064   4.066   1.400  16.269  0.0319  0.1043 -0.0613
20153W        W63065   7.131   2.103  17.047  0.0851  0.2309  0.0398
20154W        W63066   6.416   2.320  16.769  0.1376 -0.1074 -0.1919
20155W        W63067   6.766   3.152  16.592 -0.1479  0.1661 -0.0088
20156W        W63068   5.280   2.136  18.528 -0.4338  0.0561 -0.2144
20157W        W63069   4.835   3.782  18.882  0.2957 -0.2308 -0.1152
20158W        W63070   3.940  33.630  18.643 -0.1036 -0.0831 -0.1422
20159W        W63071   7.375   1.957  16.641  0.2092 -0.1111  0.0716
20160W        W63072   5.619   2.344  19.723 -0.3968  0.0719  0.0066
20161W        W63073   7.853   2.341  16.322 -0.2439 -0.2304 -0.1754
20162W        W63074   6.410  34.067  18.971  0.1237  0.5961 -0.3593
20163W        W63075   5.320   2.425  17.017 -0.1116  0.0313  0.1947
20164W        W63076   5.013   1.472  19.338  0.1234  0.0749 -0.0334
20165W        W63077   5.766   3.610  19.212 -0.3428 -0.0403  0.1859
20166W        W63078   7.454   3.019  17.498 -0.0372 -0.0482  0.0364
20167W        W63079   5.066  34.118  18.223 -0.0141  0.0538  0.0748
20168W        W63080   7.684   1.002  16.966  0.0327 -0.0294  0.1887
20169W        W63081   6.664   1.124  16.244  0.6619 -0.2432 -0.2451
20170W        W63082   4.225   3.956  18.078 -0.0810  0.1918 -0.0423
20171W        W63083   6.305   0.590  16.356  0.0866 -0.1424  0.2002
20172W        W63084   5.575   2.414  18.816 -0.0920 -0.0558  0.1805
20173W        W63085   5.714   1.492  17.934  0.1557  0.2611 -0.1394
20174W        W63086   8.144   1.887  18.216  0.2867 -0.0339 -0.1217
20175W        W63087   5.605   1.688  16.918 -0.0140 -0.0917  0.0759
20176W        W63088   5.860   3.269  16.054  0.2256  0.0215  0.0038
20177W        W63089   6.539   3.921  17.262 -0.1101 -0.1368  0.2291
20178W        W63090   5.942   4.230  20.226  0.0579  0.0381 -0.3080
20179W        W63091   5.036   4.210  18.270 -0.1091  0.3032  0.3386
20180W        W63092   6.002   2.914  17.291 -0.2828 -0.2066  0.1865
20181W        W63093   4.830   0.313  18.683 -0.0311 -0.0023  0.1560
20182W        W63094   4.584   1.747  17.246 -0.1554  0.2757  0.0519
20183W        W63095   4.865   2.096  16.491 -0.1353 -0.1045 -0.0105
20184W        W63096   7.163   1.305  18.283 -0.0664 -0.0430 -0.0514
20185W        W63097   5.035   0.824  18.730 -0.0413  0.0365 -0.3664
20186W        W63098   6.678   0.640  16.004  0.2026  0.0606  0.0143
20187W        W63099   4.793   2.191  18.703  0.0541  0.2277 -0.0000
20188W        W63100   6.040   2.525  17.643  0.0752  0.2057  0.3301
20189W        W63101   4.266   2.084  22.754 -0.0796 -0.0498  0.0124
20190W        W63102   3.463   1.884  20.444 -0.0695 -0.0303 -0.1174
20191W        W63103   7.744   1.602  19.315 -0.0611 -0.1453  0.2871
20192W        W63104   6.581   2.995  19.754 -0.2146  0.1756 -0.0369
20193W        W63105   3.411   1.844  20.949 -0.0005 -0.1188 -0.2852
20194W        W63106   5.840   3.346  21.262  0.3849  0.0897  0.1577
20195W        W63107   4.271  34.695  22.605  0.2377  0.5600 -0.0691
20196W        W63108   6.251   3.087  20.944  0.0857 -0.1396 -0.1292
20197W        W63109   8.014   4.544  22.103  0.2146  0.0356  0.2325
20198W        W63110   6.709   3.441  18.931  0.1031  0.1012 -0.1614
20199W        W63111   3.842   1.435  22.290  0.2628 -0.0603  0.2612
20200W        W63112   5.497   3.065  21.040  0.2830 -0.1319 -0.2793
20201W        W63113   4.550   1.559  21.225  0.0943  0.1631  0.0070
20202W        W63114   4.069  34.613  21.635  0.4604  0.1047 -0.0293
20203W        W63115   6.782   1.355  21.872 -0.2953 -0.3352  0.2847
20204W        W63116   2.551   1.447  22.093  0.1503  0.0808 -0.1339
20205W        W63117   4.348   1.224  22.934  0.4493 -0.1537 -0.2369
20206W        W63118   4.425   1.606  20.171 -0.0427 -0.0566  0.0128
20207W        W63119   6.034   2.774  20.449  0.1069  0.2255  0.0213
20208W        W63120   5.287   0.196  23.276  0.0488  0.0993 -0.0812
20209W        W63121   5.113  34.388  23.319 -0.1524 -0.1168 -0.1814
20210W        W63122   4.222   5.086  20.629  0.2961  0.0279  0.3330
20211W        W63123   3.555   2.561  19.124  0.0508 -0.2214  0.0644
20212W        W63124   4.063   0.312  21.931  0.0780  0.1236  0.0511
20213W        W63125   3.770   2.023  22.208 -0.1837  0.2402  0.1681
20214W        W63126   5.899   1.295  21.891 -0.2102  0.0675  0.0578
20215W        W63127   4.943   2.625  20.291 -0.0714 -0.3137  0.1448
20216W        W63128   4.985   3.336  21.730 -0.0638  0.3099 -0.2143
20217W        W63129   4.732   4.253  21.216  0.0258 -0.0516  0.0950
20218W        W63130   7.507   2.357  23.367 -0.0747  0.1670 -0.0536
20219W        W63131   3.200   3.044  20.857 -0.3937 -0.0508  0.1124
20220W        W63132   3.737   5.298  20.676 -0.1443  0.0766  0.2460
20221W        W63133   4.438   2.735  20.057  0.3673 -0.3552 -0.0588
20222W        W63134   6.981   2.292  18.628  0.1918 -0.2404 -0.3143
20223W        W63135   6.586   3.489  22.816 -0.0274  0.0658 -0.1916
20224W        W63136   4.113   3.128  21.315  0.0566 -0.0644 -0.1374
20225W        W63137   4.981   3.240  19.629  0.0623  0.0924  0.3179
20226W        W63138   5.758   3.601  22.775 -0.0525 -0.0228  0.4610
20227W        W63139   5.203   2.881  22.984 -0.0802 -0.2234 -0.3291
20228W        W63140   5.312   2.338  22.479 -0.0169  0.2992 -0.2302
20229W        W63141   4.349   3.284  22.196 -0.1135  0.1038 -0.4923
20230W        W63142   4.834   4.058  19.299  0.0039  0.1987  0.0658
20231W        W63143   4.775   2.557  21.733 -0.0437  0.1654 -0.0822
20232W        W63144   5.476   2.179  23.575 -0.1482 -0.2741  0.2479
20233W        W63145   3.021   2.727  20.527 -0.1196  0.1497  0.0844
20234W        W63146   7.222   1.227  23.201 -0.2354  0.0129 -0.0274
20235W        W63147   4.575   5.580  19.925 -0.1227  0.1781  0.0406
20236W        W63148   6.792   1.700  20.028 -0.3633  0.1521  0.0202
20237W        W63149   5.360   0.962  19.543  0.0024 -0.1261  0.2362
20238W        W63150   3.688   2.582  21.685 -0.0081 -0.2243  0.3566
20239W        W63151   6.062   0.366  22.812 -0.1307 -0.1685  0.0038
20240W        W63152   3.882   3.649  20.392  0.1974  0.1273  0.1001
20241W        W63153   5.136   0.669  22.059  0.1488  0.4055  0.1005
20242W        W63154   7.319   3.310  21.503 -0.0687  0.1342  0.1673
20243W        W63155   3.599   2.822  21.118 -0.3769  0.3517  0.2429
20244W        W63156   5.130   2.850  22.508 -0.5108 -0.1616 -0.0259
20245W        W63157   4.856   3.244  22.593 -0.0818 -0.0189 -0.0077
20246W        W63158   2.196   0.765  20.818  0.0836  0.1599  0.1408
20247W        W63159   6.880   2.712  18.301  0.1612  0.1425 -0.0919
20248W        W63160   7.281   2.659  20.053  0.0986  0.1423  0.1775
20249W        W63161   4.684   3.271  20.081  0.0753 -0.2294 -0.1708
20250W        W63162   3.700   1.430  21.139 -0.2389 -0.2255 -0.2447
20251W        W63163   4.441   2.050  24.038  0.7637  0.0981  0.3281
20252W        W63164   2.582   1.053  23.570  0.1744  0.3368 -0.2792
20253W        W63165   4.830   1.087  20.201  0.1954 -0.1033 -0.2741
20254W        W63166   8.927   2.477  23.712 -0.2953  0.0921  0.3321
20255W        W63167   3.479   2.393  22.964 -0.2738  0.0074 -0.0469
20256W        W63168   5.874   0.487  21.519 -0.0018 -0.0924 -0.0717
20257W        W63169   4.278   2.617  22.785 -0.3914  0.2150 -0.0701
20258W        W63170   6.883   3.214  21.759 -0.2805  0.0020  0.1600
20259W        W63171   6.668   3.344  19.436 -0.1498  0.1549  0.2429
20260W        W63172   5.762   0.188  21.922  0.0391  0.0397 -0.0127
20261W        W63173   6.336  33.762  23.404 -0.0517 -0.0089 -0.0892
20262W        W63174   4.280   3.205  18.571  0.2881  0.0266 -0.1695
20263W        W63175   3.998   2.388  21.259  0.1747  0.2659 -0.1153
20264W        W63176   7.607   4.072  22.600 -0.0207  0.0260  0.0239
20265W        W63177   6.348   2.657  20.027 -0.1200  0.3728 -0.1296
20266W        W63178   3.315   4.195  21.244 -0.1577  0.1926  0.0937
20267W        W63179   5.098   0.489  22.544 -0.4373  0.1709  0.0323
20268W        W63180   4.680   1.772  22.213  0.0107 -0.1549 -0.1166
20269W        W63181   4.613   4.414  19.607  0.2992  0.2418  0.0352
20270W        W63182   2.503   3.665  22.362  0.2131 -0.1599 -0.1671
20271W        W63183   1.907   1.950  21.022  0.0963  0.1021  0.1233
20272W        W63184   2.458   0.935  23.070  0.2050  0.0435 -0.0463
20273W        W63185   2.998   2.316  21.519  0.1792  0.1759  0.1301
20274W        W63186   6.682   1.127  19.307  0.1290  0.0031 -0.3417
20275W        W63187   3.036   1.261  22.325 -0.3619 -0.0297  0.1814
20276W        W63188   5.383   0.048  22.355 -0.5474 -0.0364  0.0821
20277W        W63189   4.491   2.511  20.580 -0.1068 -0.2675 -0.1641
20278W        W63190   6.761   3.617  21.003 -0.2951  0.0021 -0.0596
20279W        W63191   5.002   2.389  21.320  0.0630 -0.2524  0.0349
20280W        W63192   7.797   2.821  19.848 -0.2007  0.0336 -0.2514
20281W        W63193   3.030   1.704  22.982  0.0364  0.3306  0.1264
20282W        W63194   5.208   1.507  20.582  0.0901  0.0825 -0.1635
20283W        W63195   4.196   1.644  24.170  0.1408 -0.0172  0.1349
20284W        W63196   3.854   0.318  22.361  0.0953  0.2738  0.0704
20285W        W63197   6.894   1.534  22.775 -0.1730  0.1894 -0.1469
20286W        W63198   5.537   0.171  19.905  0.4470  0.0679  0.1878
20287W        W63199   5.304   1.622  21.535 -0.0932  0.0179 -0.0990
20288W        W63200   3.575   2.307  20.817 -0.3723 -0.0974 -0.2031
20289W        W63201   2.964   3.516  20.843  0.4613  0.0965  0.0151
20290W        W63202   5.370   1.280  22.928 -0.3201 -0.2142  0.2910
20291W        W63203   5.916   3.933  21.298 -0.0391 -0.2376  0.1000
20292W        W63204   7.203   4.242  23.770 -0.1724  0.1580  0.2988
20293W        W63205   6.919   3.040  20.255  0.2805 -0.0063  0.0238
20294W        W63206   3.030   0.782  22.332  0.0610 -0.1315  0.0152
20295W        W63207   4.804   0.109  19.205 -0.0200 -0.2526 -0.0246
20296W        W63208   5.294   5.229  20.839  0.0658 -0.2125 -0.1032
20297W        W63209   4.791   3.033  22.087 -0.1847  0.0298  0.1891
20298W        W63210   3.036   0.947  20.682  0.4236 -0.0972  0.0268
20299W        W63211   6.374   3.871  21.563  0.0458  0.0108 -0.3359
20300W        W63212   4.955   2.196  20.049  0.0057  0.2807  0.0085
20301W        W63213   4.364   2.765  23.460  0.2331 -0.2958 -0.0399
20302W        W63214   7.125   1.549  22.217  0.0188 -0.1421  0.1243
20303W        W63215   7.091   1.942  21.923 -0.2575 -0.0308  0.0762
20304W        W63216   5.042   1.962  20.650 -0.0298  0.0819 -0.0141
20305W        W63217   4.653   0.614  19.040 -0.0603 -0.2759 -0.0041
20306W        W63218   6.381   5.093  20.188  0.2612 -0.0145 -0.2005
20307W        W63219   2.797   4.050  19.948 -0.1322  0.3059 -0.0365
20308W        W63220   2.252   1.542  20.964 -0.0874 -0.1365  0.2701
20309W        W63221   5.802   3.258  20.675 -0.0321 -0.0813  0.0793
20310W        W63222   7.087   1.883  21.073 -0.1110 -0.1187 -0.4734
20311W        W63223   4.248   2.942  23.933 -0.2905  0.0705  0.1653
20312W        W63224   4.797   1.265  22.662  0.0948  0.0860 -0.0335
20313W        W63225   4.623   1.850  19.762 -0.2618 -0.4328  0.0940
20314W        W63226   4.950   2.119  24.029  0.2851 -0.0628 -0.1782
20315W        W63227   4.694   1.521  20.597 -0.1266  0.2359  0.3123
20316W        W63228   5.722   1.553  20.199 -0.2546 -0.0390 -0.2351
20317W        W63229   5.682   2.986  23.008  0.1371  0.0283 -0.0675
20318W        W63230   5.898   2.284  20.589  0.3577 -0.1836  0.0984
20319W        W63231   5.504   1.460  19.344  0.2156 -0.0980  0.3634
20320W        W63232   6.069   1.359  21.203 -0.0457 -0.4039 -0.1817
20321W        W63233   4.175   1.549  23.613 -0.0262 -0.1283 -0.2346
20322W        W63234   4.521   4.085  22.099  0.2661  0.3175  0.2016
20323W        W63235   4.207   1.750  23.133  0.4627  0.3127 -0.2881
20324W        W63236   5.477   2.173  19.281  0.0463  0.2031  0.0623
20325W        W63237   5.484   2.831  20.445 -0.0612 -0.0428  0.0607
20326W        W63238   2.534   3.092  22.601  0.1924  0.1744 -0.0764
20327W        W63239   6.068   2.750  24.127 -0.2037  0.2183  0.1734
20328W        W63240   5.501   2.620  21.270 -0.0477  0.0740 -0.0192
20329W        W63241   6.271   1.591  22.650 -0.0427 -0.2166  0.1259
20330W        W63242   5.913   1.035  20.201 -0.2998 -0.0723  0.0284
20331W        W63243   5.565   1.640  21.073  0.1073 -0.2236 -0.0149
20332W        W63244   2.967   4.848  18.293 -0.0864 -0.0313 -0.2898
20333W        W63245   6.229   1.203  22.303  0.4715 -0.2167 -0.1016
20334W        W63246   7.415   0.223  23.223  0.0701  0.1111  0.1831
20335W        W63247   8.105  34.333  23.394 -0.2924  0.0287 -0.0308
20336W        W63248   7.510   3.057  24.000 -0.0673  0.1345  0.1211
20337W        W63249   5.411   1.187  20.277  0.0694 -0.2886  0.2176
20338W        W63250   5.653   2.058  22.020  0.0269 -0.3559  0.1398
20339W        W63251   5.130   1.950  18.997 -0.1207  0.0918  0.1109
20340W        W63252   5.410   0.944  23.289  0.1384 -0.0845  0.1652
20341W        W63253   3.277   2.049  23.292 -0.1550  0.1989  0.2273
20342W        W63254   3.707   3.299  21.010 -0.1045  0.1920 -0.0372
20343W        W63255   5.891   2.885  22.380  0.1962  0.3310  0.1739
20344W        W63256   5.456   2.212  20.976 -0.5197  0.1131  0.0121
20345W        W63257   4.643   0.386  24.160  0.2222 -0.1681  0.2177
20346W        W63258   5.535   1.892  20.589  0.1724  0.0602 -0.6352
20347W        W63259   4.027   6.316  20.169 -0.2624 -0.1103 -0.0107
20348W        W63260   4.864   2.935  19.032 -0.3204  0.1536  0.0924
20349W        W63261   5.646   0.728  21.903 -0.2647  0.3661  0.3728
20350W        W63262   7.107   4.243  22.657 -0.1901 -0.1223 -0.0450
20351W        W63263   5.182   3.788  20.556  0.4031  0.4410  0.1750
20352W        W63264   7.285   2.383  21.536  0.0091  0.1193  0.2100
20353W        W63265   4.327   4.558  21.164  0.0847  0.2010  0.4075
20354W        W63266   6.399   0.703  22.495 -0.0655  0.1283 -0.2063
20355W        W63267   2.635   4.559  21.480  0.4106 -0.1092 -0.0321
20356W        W63268   4.119   1.353  21.434  0.1601 -0.2823  0.3995
20357W        W63269   4.916   1.703  20.144  0.2316 -0.2419  0.1233
20358W        W63270   6.610   1.287  20.547  0.1795  0.1839 -0.1895
20359W        W63271   6.168   2.602  19.143  0.0516 -0.0716 -0.0880
20360W        W63272   4.800   0.930  22.323  0.0533 -0.0270 -0.0761
20361W        W63273   5.589   0.834  22.811 -0.1208 -0.2551 -0.0242
20362W        W63274   2.222   2.801  21.689  0.1506  0.4655 -0.0161
20363W        W63275   6.373   3.044  21.570 -0.0059 -0.0243 -0.1371
20364W        W63276   6.219   0.881  20.609 -0.0409 -0.0896  0.1761
20365W        W63277   5.941   2.420  22.177 -0.3104 -0.1111 -0.0968
20366W        W63278   4.139   0.450  22.756 -0.0316 -0.1475 -0.4608
20367W        W63279   3.081   2.340  19.885 -0.2254 -0.0030 -0.0521
20368W        W63280   6.602   0.237  22.651 -0.0068 -0.2227 -0.0745
20369W        W63281   4.122   1.845  21.214 -0.0770 -0.1211  0.0132
20370W        W63282   2.790   4.192  21.099  0.1097 -0.0292 -0.1452
20371W        W63283   5.409   3.027  21.612 -0.1404  0.3669  0.2344
20372W        W63284   5.002   1.657  21.072  0.0373 -0.2519 -0.0912
20373W        W63285   4.696   2.077  20.985  0.1563 -0.1414 -0.4267
20374W        W63286   4.581   0.243  22.813 -0.3212 -0.4240  0.2000
20375W        W63287   7.344   1.413  23.703 -0.0214 -0.1205  0.0246
20376W        W63288   4.598   0.481  22.382 -0.0333 -0.1338  0.0994
20377W        W63289   4.725  34.619  21.090 -0.0636 -0.2332  0.0439
20378W        W63290   3.986   2.161  21.769 -0.0544 -0.0951  0.0602
20379W        W63291   5.959   2.841  21.309  0.0216 -0.1071  0.0097
20380W        W63292   6.072   1.744  22.056  0.1932  0.1199 -0.1505
20381W        W63293   3.988   2.311  23.120  0.2086 -0.0438  0.2144
20382W        W63294   6.271   0.636  24.054 -0.0104  0.1872  0.1422
20383W        W63295   7.035   4.104  21.161  0.2996  0.1378 -0.0832
20384W        W63296   5.851   2.052  22.587 -0.0964  0.0129 -0.1719
20385W        W63297   4.565   2.018  20.490 -0.0591  0.1127  0.0970
20386W        W63298   3.230   2.456  24.389 -0.0354 -0.0323 -0.0471
20387W        W63299   3.535   2.565  19.714 -0.1503 -0.1712  0.2836
20388W        W63300   5.518   1.537  22.007  0.1772  0.0549  0.1540
20389W        W63301   3.938   2.030  23.937  0.1963 -0.2223 -0.0956
20390W        W63302   4.318   3.704  18.983  0.0007  0.1773  0.0887
20391W        W63303   3.210   2.478  22.533 -0.0418  0.3531  0.0112
20392W        W63304   6.485  34.162  20.452 -0.3117 -0.0098 -0.2494
20393W        W63305   5.059   4.319  20.787  0.1584 -0.2005  0.1344
20394W        W63306   5.360   1.904  20.065 -0.0491 -0.1180  0.1162
20395W        W63307   8.401   3.151  21.517 -0.3235 -0.1358  0.0313
20396W        W63308   4.510   2.640  21.138  0.0626 -0.0767  0.1643
20397W        W63309   6.519   0.347  24.376 -0.0681  0.0364  0.2539
20398W        W63310   3.554   0.984  20.873  0.0436 -0.0130 -0.0191
20399W        W63311   6.541   2.898  22.131 -0.0901 -0.0939  0.3651
20400W        W63312   3.945   1.532  22.732  0.3508  0.0361  0.3147
20401W        W63313   5.410   3.269  22.686 -0.1511 -0.0899  0.0732
20402W        W63314   4.921   2.715  23.327  0.0197  0.2452  0.0187
20403W        W63315   5.029   1.512  21.933 -0.2664 -0.1294 -0.0002
20404W        W63316   4.058   0.592  19.107  0.0293 -0.3725 -0.1488
20405W        W63317   4.644   1.856  23.245 -0.1552  0.0214  0.2723
20406W        W63318   7.892   1.898  21.511 -0.0885  0.1763  0.1941
20407W        W63319   4.191   3.105  20.288 -0.5619  0.1593 -0.1359
20408W        W63320   7.594   1.915  21.036  0.2698  0.1722 -0.4491
20409W        W63321   3.374   2.036  21.907 -0.0866 -0.3515 -0.1415
20410W        W63322   5.479   2.782  22.176 -0.0205 -0.2861  0.0099
20411W        W63323   5.155   1.998  22.076  0.1667 -0.3372  0.1824
20412W        W63324   2.795   2.898  21.148  0.0063 -0.1369  0.0976
20413W        W63325   4.526   1.644  22.749 -0.1542 -0.0815  0.2646
20414W        W63326   6.766   3.290  22.371  0.1057 -0.0951  0.0959
20415W        W63327   6.028   1.967  21.105  0.1316  0.1778  0.2451
20416W        W63328   8.382   0.155  22.883  0.0517 -0.5114 -0.1870
20417W        W63329   5.069   2.164  23.248 -0.0536  0.0239 -0.1675
20418W        W63330   5.783   2.072  23.139 -0.1395  0.3379 -0.0315
20419W        W63331   3.808   0.405  21.433  0.0263 -0.5719  0.2884
20420W        W63332   7.335   3.695  21.112  0.0787  0.1142  0.0950
20421W        W63333   6.653   2.077  19.733  0.3238  0.2962  0.2151
20422W        W63334   7.856   1.458  23.058 -0.0377  0.0398 -0.0612
20423W        W63335   6.340   1.999  22.357 -0.1563  0.0115  0.0714
20424W        W63336   5.341   0.330  18.516 -0.1536  0.2138 -0.4093
20425W        W63337   4.223   1.826  22.308 -0.0114  0.2071 -0.0703
20426W        W63338   5.779   2.618  21.710  0.2433  0.1470  0.1372
20427W        W63339   5.719   1.830  19.669  0.0317 -0.1645  0.0938
20428W        W63340   6.626   1.563  22.290  0.0395 -0.1839 -0.0592
20429W        W63341   6.248   4.821  20.655 -0.0455 -0.0008  0.1022
20430W        W63342   6.242   3.224  22.348 -0.2700 -0.3283  0.2776
20431W        W63343   5.362   2.128  21.503  0.3279  0.2974  0.1163
20432W        W63344   3.479   1.210  20.369 -0.0340 -0.1870  0.3728
20433W        W63345   5.279   3.241  22.229 -0.0427 -0.0002 -0.0371
20434W        W63346   4.576   2.798  19.404  0.0758  0.1306 -0.1852
20435W        W63347   5.216   2.658  19.508  0.3246  0.4056  0.0307
20436W        W63348   5.808   1.568  22.444 -0.2974 -0.2652  0.3309
20437W        W63349   7.023   2.399  23.244 -0.0348 -0.0074  0.0155
20438W        W63350   4.957   1.179  20.941 -0.1720 -0.3172  0.3605
20439W        W63351   6.652   0.987  24.352  0.2824  0.1165 -0.0063
20440W        W63352   3.131   3.975  20.815  0.2944  0.0018  0.1482
20441W        W63353   5.427   1.137  20.822  0.1725 -0.4547  0.0095
20442W        W63354   3.590   3.184  21.511  0.0640  0.0558  0.1618
20443W        W63355   3.361   1.523  23.343 -0.1398 -0.0343  0.0624
20444W        W63356   4.001   4.936  21.062 -0.4809  0.1310 -0.2779
20445W        W63357   7.247  34.517  23.503 -0.0300  0.0682  0.2374
20446W        W63358   6.769   2.105  21.411  0.1645  0.0513 -0.0737
20447W        W63359   3.756   1.705  21.670 -0.1315  0.1552 -0.2576
20448W        W63360   6.914   3.649  21.482 -0.3975 -0.0545  0.0852
20449W        W63361   5.397   2.413  22.976  0.0050  0.0935 -0.2129
20450W        W63362   2.321   0.590  21.349  0.1816  0.0553  0.0092
20451W        W63363   5.920   4.163  21.813 -0.5487  0.3523 -0.1168
20452W        W63364   5.985   3.098  21.927  0.0764 -0.1934  0.2530
20453W        W63365   4.210   3.562  21.117 -0.0423  0.1375 -0.0767
20454W        W63366   2.705   1.844  23.984  0.0758 -0.0534  0.1815
20455W        W63367   5.299   1.038  22.407  0.3561 -0.0730 -0.6863
20456W        W63368   4.617   2.246  22.437  0.0653  0.0301  0.1632
20457W        W63369   4.871  34.110  21.055 -0.0837  0.1617 -0.0635
20458W        W63370   5.986   4.047  19.313 -0.1630  0.2120 -0.0212
20459W        W63371   4.646   2.338  23.685 -0.0910  0.0508  0.0285
20460W        W63372   1.942   0.678  22.317  0.0418  0.0355 -0.2001
20461W        W63373   4.222   4.005  19.623 -0.0579  0.2655  0.0746
20462W        W63374   6.504   2.521  20.511  0.0248  0.3152 -0.1451
20463W        W63375   4.988   3.394  21.183  0.0769  0.0481 -0.0363
20464W        W63376   5.460   3.666  22.085  0.0571  0.3163  0.3065
20465W        W63377   5.280   1.486  18.817  0.0019  0.0305 -0.2813
20466W        W63378   4.265   3.773  20.696  0.0905 -0.2203  0.1001
20467W        W63379   3.685   3.007  20.530 -0.0883 -0.0292 -0.1284
20468W        W63380   6.306   3.450  21.826 -0.0700 -0.4722  0.3191
20469W        W63381   5.644   4.122  19.683  0.3385 -0.0453  0.3528
20470W        W63382   5.435   2.692  23.388 -0.2052  0.1185  0.0735
20471W        W63383   6.487   0.743  21.598 -0.1367 -0.2714 -0.0351
20472W        W63384   6.667   2.342  22.041  0.0630  0.1861 -0.0323
20473W        W63385   5.778   1.731  21.614  0.0483 -0.1018  0.1088
20474W        W63386   6.170   3.042  22.931  0.2912 -0.2576  0.2847
20475W        W63387   3.455   0.811  21.332 -0.1566  0.0712 -0.1311
20476W        W63388   6.018   1.764  20.644  0.0191 -0.2400  0.1287
20477W        W63389   3.567   0.170  23.945  0.1462 -0.3004  0.1267
20478W        W63390   8.311   0.113  23.436 -0.0040 -0.0326  0.1041
20479W        W63391   4.461   2.187  21.969  0.2917  0.1697  0.2559
20480W        W63392   6.943   4.063  19.398 -0.0707 -0.0316  0.3350
20481W        W63393   4.648   0.774  19.738  0.0433 -0.0757  0.0977
20482W        W63394   4.619   1.175  21.801  0.2142  0.1950  0.1617
20483W        W63395   7.224   0.284  21.604  0.3595  0.0915 -0.1336
20484W        W63396   5.441   3.135  19.404  0.0678 -0.2656 -0.1275
20485W        W63397   5.785   1.031  22.287 -0.1727 -0.1245 -0.1339
20486W        W63398   5.070   3.308  20.681 -0.3041  0.2456 -0.0290
20487W        W63399   3.818   3.771  20.925  0.0996 -0.1555  0.0070
20488W        W63400   4.348   3.143  22.632 -0.0596  0.1174  0.0200
20489W        W63401   3.894   0.893  21.317  0.2765  0.2671 -0.2332
20490W        W63402   7.862   2.355  22.397  0.1578  0.1020 -0.1805
20491W        W63403   3.725   2.571  22.589 -0.0746  0.0917  0.0042
20492W        W63404   9.470   0.452  22.113 -0.1514  0.0833 -0.0877
20493W        W63405   1.807   1.373  21.468 -0.1017  0.3766 -0.1520
20494W        W63406   7.617   1.343  21.194 -0.0137 -0.0136 -0.1316
20495W        W63407   8.146   3.004  23.471 -0.0491 -0.0217  0.0968
20496W        W63408   4.412   2.222  21.429  0.2512  0.0017  0.2177
20497W        W63409   6.165   1.045  19.781  0.1425  0.0774  0.2598
20498W        W63410   7.634   3.188  22.953 -0.0647 -0.0280  0.0002
20499W        W63411   5.347   2.354  20.457  0.2204 -0.0848 -0.1022
20500W        W63412   6.664   5.043  22.248  0.2156 -0.1271 -0.0020
20501W        W63413   3.969   0.802  23.121 -0.0250 -0.0830  0.1657
20502W        W63414   7.091   2.581  20.497  0.0282 -0.0310  0.2461
20503W        W63415   3.451   2.160  21.345  0.0986 -0.3274 -0.0828
20504W        W63416   4.892   2.033  22.797  0.0942  0.1402 -0.0725
20505W        W63417   6.956   2.739  22.321 -0.0110  0.0078  0.2269
20506W        W63418   4.254   0.703  20.051 -0.2341 -0.1312  0.0734
20507W        W63419   6.446   3.128  20.311 -0.1555 -0.1415  0.1340
20508W        W63420   6.476   2.027  20.610  0.1595  0.0631  0.0974
20509W        W63421   4.834   1.913  21.533  0.1430 -0.2454 -0.0921
20510W        W63422   7.087   1.040  22.194  0.2965  0.1851  0.2379
20511W        W63423   6.795   3.993  20.660 -0.2194  0.0069  0.1084
20512W        W63424   4.062   0.763  22.269  0.1083 -0.2054  0.0914
20513W        W63425   7.295   2.375  22.022 -0.1962  0.1858  0.1413
20514W        W63426   8.666   3.924  22.155 -0.0112 -0.1718  0.1980
20515W        W63427   5.354   1.110  21.834  0.2785  0.0587 -0.1303
20516W        W63428   3.379   1.467  21.916  0.1077  0.4714 -0.2740
20517W        W63429   4.530   5.191  21.876  0.2077 -0.0220 -0.1745
20518W        W63430   6.676   0.486  21.980  0.2237 -0.0858  0.3801
20519W        W63431   6.953   0.969  22.835 -0.0718 -0.1673  0.0943
20520W        W63432   6.506   3.870  19.109  0.2225 -0.0046  0.0203
20521W        W63433   7.522   0.433  23.862  0.2544 -0.1391  0.3153
20522W        W63434   5.626   3.667  20.925  0.2516  0.0658 -0.0647
20523W        W63435   4.561   3.667  22.427 -0.0128 -0.3289  0.3177
20524W        W63436   5.305   2.592  19.971 -0.0849  0.0966  0.0281
20525W        W63437   5.829   1.655  22.936  0.0757 -0.1139 -0.3234
20526W        W63438   5.036   2.734  20.835 -0.0178 -0.1253 -0.0904
20527W        W63439   4.106   3.263  20.761  0.3198  0.1558  0.0682
20528W        W63440   7.256   2.913  21.877 -0.2913 -0.2054 -0.0742
20529W        W63441   4.226   1.700  20.728 -0.2428 -0.0641  0.0494
20530W        W63442   7.370   4.424  22.296  0.1624 -0.0575 -0.0622
20531W        W63443   4.384   1.652  21.833 -0.2392 -0.1963 -0.0343
20532W        W63444   7.657   2.198  22.828  0.1516 -0.3407 -0.2249
20533W        W63445   5.877  34.587  20.143  0.0885  0.0945 -0.5485
20534W        W63446   3.289   2.783  21.479 -0.0233  0.1464  0.0892
20535W        W63447   4.850   2.365  19.582  0.2528  0.0914  0.3459
20536W        W63448   3.480   3.029  19.142 -0.0458 -0.0876  0.0059
20537W        W63449   3.840   3.769  21.398  0.1023  0.2037 -0.0116
20538W        W63450   5.122  33.479  23.017 -0.1800 -0.2052 -0.1477
20539W        W63451   4.133   2.348  22.320  0.1495  0.1067  0.3240
20540W        W63452   4.107   1.181  21.974  0.1968 -0.1724  0.0638
20541W        W63453   3.078  34.176  20.835 -0.1318 -0.0254 -0.0781
20542W        W63454   7.384   3.238  20.231 -0.1292  0.0712  0.1193
20543W        W63455   4.325   1.344  22.402  0.0138  0.1093  0.2519
20544W        W63456   3.705   1.170  21.663 -0.2631  0.0400  0.0621
20545W        W63457   6.705   3.544  20.506  0.0332  0.0975  0.0039
20546W        W63458   7.144   3.684  20.300 -0.0719  0.0765 -0.1105
20547W        W63459   4.745   1.303  19.768 -0.0024  0.0829 -0.2432
20548W        W63460   7.943   4.314  22.882 -0.4699  0.0805  0.2912
20549W        W63461   3.854   3.407  19.754 -0.0893  0.1185  0.1066
20550W        W63462   5.950  34.650  24.102  0.2440 -0.2840  0.3265
20551W        W63463   6.838  33.932  24.420  0.3459  0.3333  0.0027
20552W        W63464   4.356   0.981  19.312 -0.2744  0.3420  0.1679
20553W        W63465   4.437   2.650  22.115 -0.1561  0.1276 -0.2030
20554W        W63466   5.497   3.920  20.132  0.0040 -0.1076  0.0589
20555W        W63467   6.305   5.162  20.990 -0.4441 -0.3110  0.1124
20556W        W63468   4.237   2.101  23.505  0.1322  0.2419 -0.0889
20557W        W63469   4.929   2.537  22.807  0.1631  0.0429  0.1542
20558W        W63470   3.244  34.582  22.933  0.1781  0.0458  0.1774
20559W        W63471   4.675   3.072  20.528 -0.0527 -0.1230 -0.0224
20560W        W63472   4.952   2.542  22.188 -0.0748  0.0581 -0.2294
20561W        W63473   7.413   3.055  18.646  0.2888  0.1279 -0.2686
20562W        W63474   7.460  34.544  22.787  0.0324 -0.1582  0.2117
20563W        W63475   4.531   3.129  21.034  0.1992 -0.0396  0.2339
20564W        W63476   5.568   1.176  21.381  0.2958 -0.3438  0.1564
20565W        W63477   5.283   3.912  22.725 -0.0294  0.1213 -0.1090
20566W        W63478   6.322   2.551  22.464  0.1187  0.0303 -0.2379
20567W        W63479   3.104   0.494  21.107  0.2888 -0.0068 -0.6130
20568W        W63480   5.219   1.442  19.829  0.1385 -0.0022  0.0720
20569W        W63481   4.308   3.124  19.682  0.1318 -0.2526  0.1731
20570W        W63482   6.025   0.956  21.506  0.3667 -0.0206  0.5713
20571W        W63483   5.813   2.040  20.168 -0.2642  0.0501  0.0879
20572W        W63484   5.215   1.765  23.737  0.1028 -0.0579 -0.0282
20573W        W63485   6.760   3.087  20.731  0.1332 -0.1288  0.2006
20574W        W63486   5.736   2.532  22.665 -0.0568  0.0081 -0.0223
20575W        W63487   4.188   2.224  20.813  0.0506 -0.2362  0.1227
20576W        W63488   6.812   2.566  19.934  0.3576 -0.0189  0.1596
20577W        W63489   5.306   2.446  21.844  0.1544 -0.1475 -0.1554
20578W        W63490   7.273   2.508  24.568  0.1503  0.4883  0.0046
20579W        W63491   5.854   3.630  21.714  0.2238 -0.1278  0.3165
20580W        W63492   6.279   3.616  20.269 -0.0049 -0.2466 -0.0048
20581W        W63493   3.933  34.498  22.152  0.1018 -0.0567 -0.0874
20582W        W63494   3.172   2.554  20.986  0.0627 -0.0197  0.0166
20583W        W63495   3.032   1.607  20.393 -0.0125 -0.1587 -0.0778
20584W        W63496   6.424   0.291  20.562 -0.0955 -0.1010  0.3019
20585W        W63497   5.342   0.716  21.425 -0.2114  0.1271  0.2448
20586W        W63498   6.342   2.174  20.166 -0.3813 -0.0635  0.1800
20587W        W63499   4.653   2.793  22.484 -0.0003 -0.0922  0.2428
20588W        W63500   6.449   2.570  22.987  0.0227 -0.1629  0.1585
20589W        W63501   4.895   1.921  26.685  0.2008  0.0362 -0.3092
20590W        W63502   4.783   1.654  24.174  0.2371  0.1882  0.1137
20591W        W63503   6.954  34.361  22.587 -0.2274  0.1837 -0.5696
20592W        W63504   5.529   3.213  23.492  0.1016 -0.2454  0.2727
20593W        W63505   4.280  34.698  24.280 -0.0178 -0.0778  0.1243
20594W        W63506   6.030   4.173  24.263  0.0374 -0.2932 -0.2143
20595W        W63507   4.456   0.392  25.642 -0.1615 -0.1483  0.2320
20596W        W63508   5.612   1.909  24.060 -0.0112  0.3669 -0.1311
20597W        W63509   7.724   3.247  25.367 -0.1232  0.0422  0.1857
20598W        W63510   5.057   1.271  23.652  0.0317  0.1591  0.1209
20599W        W63511   3.580   0.440  26.725  0.2413  0.1294  0.0767
20600W        W63512   3.760   2.832  26.461  0.0429  0.0218  0.2412
20601W        W63513   5.308   0.679  25.320 -0.0324  0.3699 -0.1500
20602W        W63514   2.883   0.706  24.915  0.0657 -0.0166 -0.0207
20603W        W63515   5.740   0.793  25.191  0.0888 -0.4481  0.2182
20604W        W63516   3.768   2.809  23.879  0.1255 -0.0051  0.1040
20605W        W63517   3.639   1.540  25.984  0.0114 -0.0707 -0.0953
20606W        W63518   4.475   2.588  24.219 -0.0571  0.3842  0.1989
20607W        W63519   6.287   4.211  23.841 -0.1051  0.3098 -0.1209
20608W        W63520   4.962   0.901  25.767  0.4354  0.1142  0.1683
20609W        W63521   5.620   0.148  25.150  0.0014  0.1690 -0.1509
20610W        W63522   5.151   3.224  23.883  0.1036  0.2016 -0.2123
20611W        W63523   3.085   0.761  23.567  0.0868  0.0784 -0.1539
20612W        W63524   3.149   1.563  24.131  0.0292  0.0497  0.2065
20613W        W63525   4.306  34.672  26.220 -0.0212  0.3191 -0.1414
20614W        W63526   6.390   1.445  25.746 -0.2443  0.0790  0.1920
20615W        W63527   4.858   2.709  25.169  0.1102  0.4062 -0.3043
20616W        W63528   5.190   3.002  25.591 -0.3310 -0.0264 -0.2142
20617W        W63529   5.689   3.473  24.377  0.3605  0.0319  0.0354
20618W        W63530   6.142   0.752  27.498  0.0028 -0.1063 -0.1625
20619W        W63531   2.670   3.681  25.617  0.0439  0.1562 -0.1118
20620W        W63532   4.396   3.465  24.040  0.0559  0.2314  0.0292
20621W        W63533   4.900   3.691  23.781 -0.1106  0.1944  0.0158
20622W        W63534   5.109   2.488  23.771 -0.1890 -0.4846 -0.0637
20623W        W63535   6.438   2.643  25.379 -0.3972 -0.1588 -0.0964
20624W        W63536   5.555   4.479  26.602 -0.2134 -0.4668 -0.0188
20625W        W63537   2.844   2.374  23.516 -0.1133  0.0454 -0.0259
20626W        W63538   4.488   2.604  26.452  0.0507 -0.1564 -0.0231
20627W        W63539   4.330   3.615  26.370  0.0840  0.1309 -0.0272
20628W        W63540   6.189   1.264  26.249  0.2435  0.2107 -0.1602
20629W        W63541   4.564   1.931  24.549  0.1373 -0.2712  0.1246
20630W        W63542   4.929   4.175  24.589  0.1930 -0.0526  0.0600
20631W        W63543   5.623   0.943  24.481 -0.1072  0.0499 -0.0604
20632W        W63544   4.564   1.980  27.226  0.2520  0.1167  0.1550
20633W        W63545   3.891   2.472  25.696  0.0776  0.0607  0.0303
20634W        W63546   7.880  34.394  27.751 -0.0791  0.1088  0.2114
20635W        W63547   4.672   2.645  24.691  0.1690  0.3604  0.2748
20636W        W63548   5.994   1.209  24.206  0.0769  0.1946 -0.2497
20637W        W63549   3.751   1.894  23.449  0.1430  0.3826  0.0184
20638W        W63550   5.799   1.206  24.899  0.0529  0.1992 -0.1692
20639W        W63551   6.080   0.228  24.547 -0.0608  0.0948  0.0432
20640W        W63552   4.147   3.036  25.584 -0.2753 -0.2738  0.1165
20641W        W63553   4.016   0.686  25.588 -0.2616  0.0730 -0.1193
20642W        W63554   6.495   0.752  26.729 -0.3573  0.0773 -0.2498
20643W        W63555   5.384   2.331  24.247 -0.1125  0.0233  0.0485
20644W        W63556   5.106   0.347  27.046 -0.0867 -0.3101 -0.1839
20645W        W63557   5.155   3.469  25.143 -0.0415  0.0135  0.0793
20646W        W63558   4.370   1.200  24.487  0.1061  0.3753  0.0543
20647W        W63559   7.051   4.388  23.228 -0.2438  0.1428 -0.4535
20648W        W63560   8.177   2.933  24.726  0.1312  0.1486  0.2656
20649W        W63561   5.208   3.623  24.296  0.0834 -0.0449 -0.3784
20650W        W63562   3.646   2.343  24.714  0.1331  0.1130 -0.1787
20651W        W63563   4.025   1.147  27.871  0.0249 -0.2122 -0.0544
20652W        W63564   2.889   1.491  26.090 -0.1198  0.3970 -0.0212
20653W        W63565   5.057  34.685  22.876  0.0173 -0.3350 -0.0150
20654W        W63566   7.634   1.129  25.635 -0.1903  0.1678 -0.2676
20655W        W63567   2.637   3.371  26.275  0.1508  0.2427  0.0294
20656W        W63568   8.059   0.022  25.965 -0.1331 -0.1671 -0.0393
20657W        W63569   5.687   2.095  25.032  0.0604  0.0669  0.0627
20658W        W63570   5.934   2.171  26.494  0.0325  0.2209  0.0275
20659W        W63571   4.519   2.376  23.165 -0.4932 -0.0349  0.1725
20660W        W63572   6.438   1.391  25.182 -0.2292 -0.0160  0.0337
20661W        W63573   4.454  34.626  25.471  0.0524 -0.2433  0.2227
20662W        W63574   5.088   1.845  24.494  0.0794 -0.1464  0.4406
20663W        W63575   6.013   2.190  23.666  0.4503  0.1744 -0.2627
20664W        W63576   7.134   0.980  25.520  0.0560 -0.1199  0.1742
20665W        W63577   7.191   2.972  23.298 -0.0340  0.1608  0.2443
20666W        W63578   3.079   3.522  26.563  0.1467 -0.0005  0.1133
20667W        W63579   4.794   0.872  26.257 -0.2236 -0.2732 -0.1048
20668W        W63580   4.450   1.705  26.814 -0.1329 -0.0490 -0.2279
20669W        W63581   5.817   3.826  23.315  0.2864 -0.1904  0.0023
20670W        W63582   3.329   1.734  26.313 -0.0753 -0.1328 -0.0166
20671W        W63583   4.657   3.327  23.633  0.0500  0.0997  0.1856
20672W        W63584   3.040  34.035  24.682  0.3733 -0.2072 -0.0927
20673W        W63585   4.457   1.421  26.354 -0.2293 -0.1250  0.1642
20674W        W63586   7.568  34.592  25.456 -0.1804  0.0314 -0.1614
20675W        W63587   3.605   0.049  25.563  0.2640  0.2103  0.1471
20676W        W63588   7.833  33.355  25.944  0.1029  0.0451 -0.1954
20677W        W63589   3.969   3.249  24.685  0.1953  0.0267  0.0072
20678W        W63590   7.296   2.978  24.766 -0.0772  0.1460  0.1114
20679W        W63591   6.675  34.694  25.749 -0.0867  0.0268 -0.0637
20680W        W63592   6.380   4.667  24.333 -0.0925  0.1348  0.3145
20681W        W63593   2.920   0.947  25.358 -0.0465  0.0891  0.1801
20682W        W63594   4.136   0.863  23.581  0.1256  0.0680  0.1168
20683W        W63595   4.739   0.046  25.913 -0.2214 -0.0069  0.1769
20684W        W63596   4.043   1.535  24.658 -0.0605 -0.2470 -0.1140
20685W        W63597   6.316   1.635  27.280 -0.0221 -0.0595 -0.0356
20686W        W63598   4.518   0.694  23.198 -0.0723 -0.3302  0.0654
20687W        W63599   4.916   1.844  24.954  0.2240 -0.0238  0.3365
20688W        W63600   4.112   2.098  24.406  0.4003 -0.5372  0.1193
20689W        W63601   3.178   3.479  23.107  0.1944 -0.3120  0.0873
20690W        W63602   4.292   0.289  26.599 -0.0737  0.0174 -0.0717
20691W        W63603   5.931   2.549  23.172 -0.0344  0.0705  0.0454
20692W        W63604   7.447   2.970  25.683 -0.0216  0.1896 -0.0075
20693W        W63605   7.400   1.520  24.243 -0.2457  0.0449 -0.3425
20694W        W63606   4.859   1.286  25.319 -0.2014  0.2600 -0.2632
20695W        W63607   1.640   2.672  23.556  0.0382  0.2184  0.0412
20696W        W63608   3.358   2.520  25.046 -0.0116 -0.0494 -0.0302
20697W        W63609   5.384   3.291  24.686 -0.0787  0.1236 -0.2122
20698W        W63610   5.577  34.274  23.225  0.1211  0.3734 -0.1062
20699W        W63611   6.210   3.158  23.910  0.0380  0.1021  0.1499
20700W        W63612   5.806   0.639  24.081  0.3692 -0.2635  0.0485
20701W        W63613   3.181   0.420  27.062 -0.3316  0.0163  0.0675
20702W        W63614   6.655   0.140  27.124 -0.0609  0.1220 -0.1826
20703W        W63615   5.485   2.352  26.322 -0.2592  0.3990 -0.2590
20704W        W63616   3.975   1.345  25.692 -0.0976  0.1176  0.0033
20705W        W63617   4.632  34.348  22.843  0.0109 -0.0589 -0.2357
20706W        W63618   7.802   2.514  24.769  0.0354  0.2601 -0.0009
20707W        W63619   3.669   3.265  23.266 -0.0217 -0.1079 -0.0072
20708W        W63620   3.745   2.925  25.938  0.0032  0.0704 -0.1530
20709W        W63621   5.434   4.372  24.596 -0.3529  0.1231  0.0996
20710W        W63622   5.102   2.318  24.931 -0.1590 -0.2459  0.1170
20711W        W63623   4.125   1.679  28.131  0.0931 -0.1536 -0.3159
20712W        W63624   5.132   1.412  26.482  0.1008  0.1238 -0.0770
20713W        W63625   3.600   1.858  24.386  0.2052  0.1339  0.1514
20714W        W63626   4.256   2.775  26.908 -0.0894 -0.1240  0.0001
20715W        W63627   7.081   0.005  25.424  0.2349 -0.0143  0.2572
20716W        W63628   6.092   1.754  24.273 -0.2093  0.3928 -0.1416
20717W        W63629   4.612   1.347  25.873  0.0411  0.0825  0.2078
20718W        W63630   6.371   2.448  23.917  0.1780 -0.1685  0.1339
20719W        W63631   6.831   0.634  23.969 -0.0113 -0.0582 -0.1226
20720W        W63632   7.318  34.497  26.316  0.1705  0.0312  0.0654
20721W        W63633   3.325   2.699  26.692 -0.0932  0.1226 -0.0640
20722W        W63634   5.709   2.525  24.599 -0.1740  0.2625 -0.0192
20723W        W63635   4.163   2.692  26.081  0.2377  0.2643  0.2693
20724W        W63636   5.300   1.459  24.760  0.0869  0.0819  0.0947
20725W        W63637   6.720   3.323  24.083 -0.0384  0.0949 -0.2147
20726W        W63638   3.042   2.524  25.956 -0.3457  0.1748  0.0183
20727W        W63639   6.647   2.639  25.924 -0.0029 -0.0842 -0.0872
20728W        W63640   5.211   2.760  24.726  0.2492 -0.2132  0.0703
20729W        W63641   5.252   1.013  26.196  0.1203  0.0967 -0.1807
20730W        W63642   4.892   3.110  24.777  0.0649  0.1084 -0.0917
20731W        W63643   6.105  34.584  25.867 -0.3282 -0.0645  0.2298
20732W        W63644   2.352   2.173  23.951 -0.0714 -0.3382  0.0341
20733W        W63645   5.818   0.482  25.918 -0.0851  0.0269 -0.1070
20734W        W63646   5.239   1.365  25.764  0.0561 -0.0079  0.0520
20735W        W63647   5.774   0.931  26.183 -0.3551  0.0773 -0.1747
20736W        W63648   6.368   0.420  25.757 -0.2131  0.1341  0.1619
20737W        W63649   6.394   0.904  23.460 -0.1408 -0.0417 -0.1097
20738W        W63650   6.628   1.767  25.445  0.0743 -0.3255 -0.2489
20739W        W63651   4.962   2.309  24.467  0.0531 -0.3659 -0.0630
20740W        W63652   5.748   1.355  25.902 -0.0836 -0.1815  0.0843
20741W        W63653   4.512   2.444  25.890  0.1051  0.0870  0.0837
20742W        W63654   5.420   3.614  27.604 -0.1940 -0.3980  0.1441
20743W        W63655   6.867   2.423  25.440 -0.2842  0.1731  0.0922
20744W        W63656   5.730   1.306  23.323  0.0772 -0.2010 -0.0258
20745W        W63657   5.998   1.681  26.517  0.0475  0.0201  0.0595
20746W        W63658   6.328   0.009  24.920  0.0270 -0.0760  0.2867
20747W        W63659   4.599   4.386  25.174 -0.0220 -0.0624 -0.0839
20748W        W63660   4.845   3.630  22.933 -0.2246 -0.1174 -0.0011
20749W        W63661   4.610   0.415  26.171 -0.1722  0.2969  0.1927
20750W        W63662   4.991   3.553  25.642  0.0445  0.1702  0.1376
20751W        W63663   6.019   3.205  23.404 -0.0914  0.0051 -0.2748
20752W        W63664   6.166   1.271  27.544  0.1120 -0.1353  0.3367
20753W        W63665   5.347   3.539  23.131 -0.1135  0.0912 -0.1948
20754W        W63666   6.959  34.249  26.705  0.0757  0.2482  0.0076
20755W        W63667   4.104   3.664  24.989 -0.0252 -0.2087 -0.1350
20756W        W63668   3.304   1.201  23.793  0.2551 -0.1563  0.0225
20757W        W63669   3.236   1.125  24.339 -0.4806 -0.2875 -0.0279
20758W        W63670   6.594   0.596  24.847 -0.1285  0.2299 -0.0609
20759W        W63671   5.779   3.439  23.869  0.0607 -0.0168 -0.3400
20760W        W63672   3.143  34.548  25.351 -0.1603 -0.0913  0.1429
20761W        W63673   5.770   0.063  26.280 -0.2103 -0.1042  0.1218
20762W        W63674   3.997   2.456  26.568  0.2582 -0.0890 -0.2621
20763W        W63675   4.930   1.780  25.533  0.2330 -0.1227  0.1158
20764W        W63676   7.337  34.624  24.459 -0.0493  0.1997  0.0857
20765W        W63677   5.899   1.337  26.843  0.2031 -0.3251 -0.2363
20766W        W63678   5.399   1.486  28.421 -0.6044  0.0371 -0.0501
20767W        W63679   4.395   3.079  24.372 -0.2368 -0.2900 -0.0847
20768W        W63680   6.913   2.040  26.408  0.1257 -0.1459  0.0294
20769W        W63681   3.610   1.747  24.864 -0.0526  0.2842  0.2650
20770W        W63682   3.127   3.200  24.443  0.2757  0.1452 -0.1684
20771W        W63683   5.913   2.638  26.325 -0.2023  0.1861  0.0877
20772W        W63684   2.856   1.042  23.988 -0.1944  0.0137 -0.0901
20773W        W63685   3.991   3.828  24.051  0.1400 -0.0695  0.0029
20774W        W63686   3.641   1.637  26.765 -0.0516 -0.2670  0.2645
20775W        W63687   7.127   1.747  26.088 -0.0435 -0.0696  0.1971
20776W        W63688   4.616   2.231  24.961  0.0070  0.2068  0.0517
20777W        W63689   4.409   0.694  24.618 -0.0557 -0.2144  0.0957
20778W        W63690   4.402   1.696  25.557 -0.1037 -0.1649  0.0399
20779W        W63691   5.471   1.923  26.591 -0.1760  0.2019 -0.1460
20780W        W63692   4.315   0.843  26.481 -0.0832  0.0989 -0.2446
20781W        W63693   3.694   3.528  27.049 -0.1435 -0.0201  0.0242
20782W        W63694   5.500   0.830  25.745  0.5206 -0.2050  0.0412
20783W        W63695   6.187   3.736  23.632 -0.1996 -0.0274  0.1356
20784W        W63696   5.712   0.863  27.255 -0.2069  0.1427  0.0733
20785W        W63697   4.626   1.271  23.398 -0.1447 -0.0117 -0.3226
20786W        W63698   2.421   2.791  26.207  0.0349 -0.1203  0.1429
20787W        W63699   3.547   3.467  24.376 -0.1598 -0.1033 -0.3959
20788W        W63700   4.235   2.103  25.328  0.2947  0.0696  0.0953
20789W        W63701   2.395   2.309  25.696 -0.2422 -0.0487  0.4220
20790W        W63702   4.080   3.309  23.603  0.1657 -0.0310 -0.0281
20791W        W63703   3.390   4.416  26.724  0.2371 -0.0753 -0.0078
20792W        W63704   6.154   0.492  24.975  0.1612  0.1008 -0.0988
20793W        W63705   5.605   1.388  23.796 -0.0903  0.1010 -0.2715
20794W        W63706   5.612   1.353  26.455 -0.1952  0.2741  0.0907
20795W        W63707   6.195  34.604  27.090 -0.3685 -0.4585  0.2415
20796W        W63708   6.500   2.291  23.398  0.1275  0.0374 -0.2363
20797W        W63709   5.292  33.326  28.011 -0.2292  0.2088 -0.1212
20798W        W63710   3.926   0.284  26.138 -0.0559 -0.2380  0.2701
20799W        W63711   5.979   2.238  24.225  0.1768 -0.1042 -0.0511
20800W        W63712   4.358   0.659  25.176 -0.1675 -0.2150 -0.0590
20801W        W63713   4.058   1.616  27.116  0.1729  0.1907  0.0527
20802W        W63714   4.070   1.505  26.605  0.0387  0.1535  0.1650
20803W        W63715   5.596   0.384  24.749  0.0981 -0.0973  0.1346
20804W        W63716   4.262   1.098  24.969 -0.2618 -0.1065 -0.1644
20805W        W63717   4.827   3.316  24.335  0.4476  0.0283  0.1319
20806W        W63718   6.747   2.110  25.940  0.1331 -0.0343 -0.0356
20807W        W63719   5.629   2.602  23.894  0.0230  0.1832  0.0692
20808W        W63720   6.121   1.824  25.457  0.2220 -0.2290  0.3200
20809W        W63721   3.201   2.032  24.977 -0.3283 -0.2200  0.0104
20810W        W63722   3.876   1.045  22.647 -0.1150 -0.2446  0.1725
20811W        W63723   4.607   1.666  23.715  0.0150 -0.2448  0.1697
20812W        W63724   4.948   3.263  23.248  0.1446 -0.0037 -0.1013
20813W        W63725   4.400   0.840  25.943 -0.2318 -0.1189  0.1008
20814W        W63726   6.080   2.081  24.695  0.2845 -0.0865  0.0720
20815W        W63727   4.779   0.991  24.821 -0.0708 -0.2491 -0.3143
20816W        W63728   6.392  34.195  24.756  0.5394  0.1861 -0.3778
20817W        W63729   5.944   0.373  26.635  0.1990  0.1156 -0.0728
20818W        W63730   3.710   2.336  27.616  0.1124  0.0106 -0.3192
20819W        W63731   3.950  34.190  27.725  0.2619 -0.2877  0.0714
20820W        W63732   6.099   2.657  25.782  0.0783  0.0254  0.1866
20821W        W63733   7.592   1.875  23.254  0.0229  0.1403  0.1695
20822W        W63734   7.096   0.436  25.157  0.0608 -0.2367 -0.1286
20823W        W63735   5.996   1.333  25.458 -0.2685  0.3163 -0.0770
20824W        W63736   5.942   0.279  23.690  0.0605 -0.1481  0.0547
20825W        W63737   2.569   2.441  25.206 -0.0473 -0.1037  0.1791
20826W        W63738   5.709   1.893  28.905 -0.1647  0.1072 -0.2885
20827W        W63739   4.173  34.520  23.068  0.0648  0.2397 -0.1581
20828W        W63740   5.236   0.764  27.296 -0.1397 -0.1978  0.2153
20829W        W63741   4.954   2.815  24.276 -0.1479 -0.1113  0.2876
20830W        W63742   6.333   2.308  26.167 -0.0733 -0.0309 -0.0887
20831W        W63743   6.181   0.748  24.579 -0.2374 -0.0611  0.2788
20832W        W63744   2.363   0.320  25.002  0.5394  0.1428 -0.0477
20833W        W63745   3.068   4.697  27.276  0.1037 -0.0727  0.1238
20834W        W63746   3.590   1.086  23.359 -0.0641 -0.0021 -0.2171
20835W        W63747   4.216   2.433  24.758 -0.2971 -0.0850  0.3787
20836W        W63748   5.116   2.206  25.450 -0.2435 -0.0409  0.0000
20837W        W63749   6.965   0.480  25.706  0.0033  0.1330 -0.1052
20838W        W63750   6.650  33.476  24.267  0.2225 -0.0206  0.1901
20839W        W63751   5.999   0.931  25.669 -0.1586 -0.1438 -0.0950
20840W        W63752   2.851   3.787  23.363 -0.0749  0.0967  0.0826
20841W        W63753   6.249   0.011  25.435  0.1996 -0.0680  0.3246
20842W        W63754   4.896   3.329  26.494 -0.1270  0.1805 -0.1147
20843W        W63755   4.106   2.176  26.048  0.0135  0.0448  0.2522
20844W        W63756   5.617   3.713  26.021 -0.1729 -0.3568 -0.0989
20845W        W63757   5.813  34.317  26.947  0.1482  0.0227  0.0054
20846W        W63758   6.260   0.961  25.103  0.2823  0.0636 -0.3316
20847W        W63759   4.260   2.587  25.251  0.1505  0.0174 -0.3470
20848W        W63760   7.049   0.530  26.949 -0.1808 -0.0831 -0.1893
20849W        W63761   4.650   1.934  25.966  0.0806 -0.0922 -0.0133
20850W        W63762   3.575   1.309  26.393  0.0167  0.0028 -0.1057
20851W        W63763   5.725   1.810  26.134  0.1879 -0.0881 -0.2125
20852W        W63764   6.653   1.788  23.100 -0.3210 -0.0791 -0.2889
20853W        W63765   3.959   3.235  24.155 -0.2715 -0.0234 -0.1483
20854W        W63766   4.410   2.299  26.815 -0.1401  0.1939  0.2256
20855W        W63767   5.297   2.611  25.288  0.0419  0.3480  0.2124
20856W        W63768   5.397   2.231  25.829  0.1350 -0.0159  0.0623
20857W        W63769   4.694   0.259  25.184  0.1503 -0.1151  0.1135
20858W        W63770   5.544   3.991  24.300  0.1902 -0.2540  0.0437
20859W        W63771   3.037   3.387  25.930 -0.0253 -0.1871  0.0716
20860W        W63772   3.559   1.233  24.812  0.0281 -0.1138 -0.3324
20861W        W63773   3.860   3.183  22.769 -0.0285 -0.1126  0.1279
20862W        W63774   6.420   1.944  23.894  0.0886 -0.2752 -0.0186
20863W        W63775   5.694   4.009  23.828 -0.1804  0.3219  0.0167
20864W        W63776   3.648   3.566  23.852 -0.0720  0.2214 -0.0268
20865W        W63777   5.344   1.005  23.979 -0.0943 -0.0454 -0.1246
20866W        W63778   4.603   3.066  26.116 -0.3716 -0.2969  0.1306
20867W        W63779   2.370   3.492  23.263 -0.3214 -0.0217 -0.1486
20868W        W63780   6.286   2.753  23.495  0.0554  0.0461  0.1542
20869W        W63781   4.134   3.256  26.035  0.0052  0.4332 -0.2794
20870W        W63782   7.197   2.143  27.279  0.1506  0.1904 -0.0435
20871W        W63783   8.068  34.564  23.894 -0.3263  0.3344  0.3159
20872W        W63784   5.626   1.769  25.644  0.2539 -0.0898 -0.1895
20873W        W63785   7.317   0.901  24.065  0.1298 -0.0687  0.0752
20874W        W63786   5.406   2.269  26.909 -0.2629  0.1258  0.0895
20875W        W63787   4.064   0.719  27.087  0.1660  0.1622  0.0361
20876W        W63788   5.082  34.007  22.944  0.3290  0.2158 -0.1337
20877W        W63789   3.825   1.136  27.402 -0.0353 -0.4300  0.3334
20878W        W63790   7.702   0.594  27.200 -0.1320  0.0912 -0.3123
20879W        W63791   3.508   3.157  26.786  0.0474 -0.1871 -0.1199
20880W        W63792   6.554   3.131  23.236 -0.0758  0.1519  0.0054
20881W        W63793   4.122   1.950  24.882  0.1180  0.0100  0.3237
20882W        W63794   3.974   1.604  25.196 -0.0319  0.0714 -0.0370
20883W        W63795   6.138  34.566  26.551  0.0214 -0.0975 -0.3260
20884W        W63796   7.138   2.002  22.931 -0.0855 -0.1530  0.1213
20885W        W63797   5.359   1.740  25.213 -0.1225  0.3985  0.2240
20886W        W63798   4.474   4.539  24.701 -0.0497  0.1001  0.0220
20887W        W63799   6.035   3.254  24.822  0.2087  0.1927  0.0578
20888W        W63800   4.557   4.542  26.166  0.3159  0.0785  0.0025
20889W        W63801   3.731   0.176  22.921 -0.3693 -0.2459  0.0304
20890W        W63802   6.938   1.293  24.123  0.1637  0.1136 -0.1903
20891W        W63803   4.806   0.660  27.513 -0.0038  0.6670 -0.1381
20892W        W63804   5.134   0.277  26.566  0.2195  0.1876 -0.2093
20893W        W63805   3.820   2.760  24.893  0.1674 -0.0854 -0.1945
20894W        W63806   6.179   1.238  24.636  0.0670  0.1361 -0.2192
20895W        W63807   4.504   1.588  25.056  0.0523  0.1022  0.0767
20896W        W63808   3.150   2.243  26.376  0.0456  0.1102 -0.0414
20897W        W63809   4.967   0.830  23.457 -0.2478 -0.2141 -0.1851
20898W        W63810   7.951   3.157  26.342 -0.2875 -0.1772  0.0915
20899W        W63811   6.090   0.860  23.066  0.1463 -0.2415  0.0131
20900W        W63812   6.281   3.316  26.341 -0.2263 -0.0463 -0.0604
20901W        W63813   3.829   1.167  23.827  0.0509  0.1839  0.1149
20902W        W63814   6.801  34.364  24.673 -0.2541 -0.1204  0.1043
20903W        W63815   3.736   2.165  25.167  0.1341 -0.2117 -0.0940
20904W        W63816   4.062   2.149  27.346  0.0036  0.3073  0.2731
20905W        W63817   7.109   1.988  25.633  0.2390 -0.3642  0.0703
20906W        W63818   3.926   1.409  23.211  0.0535  0.2921 -0.0250
20907W        W63819   6.384   2.116  22.879  0.0022 -0.2294  0.1943
20908W        W63820   5.578   1.985  24.580  0.1769 -0.1649 -0.2565
20909W        W63821   7.185   4.965  22.541  0.0283  0.3101 -0.1493
20910W        W63822   5.363   0.552  23.680  0.1789 -0.0819  0.0809
20911W        W63823   6.598   3.621  23.436 -0.0880 -0.3662 -0.3889
20912W        W63824   3.329   0.301  24.896 -0.1633 -0.0061 -0.0246
20913W        W63825   5.697   2.929  25.614 -0.0284  0.1944 -0.0019
20914W        W63826   6.553   2.883  24.170 -0.0074 -0.1955 -0.3714
20915W        W63827   5.169  34.535  25.720  0.0426 -0.2627 -0.3197
20916W        W63828   5.419   1.178  25.226 -0.4013 -0.4024  0.0826
20917W        W63829   4.630   2.915  23.007 -0.1711 -0.0801  0.3205
20918W        W63830   7.522   0.580  24.336  0.0614  0.4239 -0.1980
20919W        W63831   6.530   1.280  26.640 -0.3314  0.0447 -0.0221
20920W        W63832   6.595   4.231  22.080  0.1412 -0.1171  0.2565
20921W        W63833   5.178  34.541  27.090  0.0924  0.1398 -0.0887
20922W        W63834   4.873   1.565  27.074 -0.0148 -0.0810  0.1499
20923W        W63835   4.020   4.040  27.824  0.2702 -0.2290  0.2009
20924W        W63836   3.206   2.015  23.943 -0.3285 -0.0779  0.0826
20925W        W63837   3.257   3.197  27.258 -0.2084 -0.1007  0.2459
20926W        W63838   5.500   4.478  24.051 -0.1576  0.1795 -0.2634
20927W        W63839   4.043   4.177  24.868  0.0128  0.0408 -0.3332
20928W        W63840   5.476   3.047  25.143  0.1049 -0.0265  0.1609
20929W        W63841   4.308   2.910  24.874  0.3052  0.1096  0.2389
20930W        W63842   6.237   1.858  23.364 -0.2027  0.2234  0.4275
20931W        W63843   4.354   1.089  25.451  0.2092  0.3669 -0.4395
20932W        W63844   7.018   1.771  24.122  0.1756  0.0065 -0.2927
20933W        W63845   6.920  34.358  23.940  0.0429  0.0247  0.0075
20934W        W63846   4.150  34.683  27.595  0.1414 -0.4402  0.0948
20935W        W63847   2.496   2.690  23.949  0.1053 -0.3276  0.1072
20936W        W63848   2.984   1.974  25.930 -0.2479  0.0151 -0.1469
20937W        W63849   3.685   2.760  25.376 -0.0198  0.0548  0.3285
20938W        W63850   6.363  33.386  26.852 -0.0995 -0.2048  0.0056
20939W        W63851   3.072   1.370  26.557 -0.1013 -0.2194  0.3732
20940W        W63852   1.934   2.425  25.379 -0.1098  0.2189  0.2187
20941W        W63853   3.022   1.172  23.316  0.2679 -0.1037  0.3572
20942W        W63854   7.746   2.814  23.319  0.1177  0.0403  0.2167
20943W        W63855   3.655   1.000  25.807 -0.0453 -0.0036 -0.0316
20944W        W63856   5.152   0.589  24.267 -0.3630 -0.0309  0.0484
20945W        W63857   5.734   1.527  24.491 -0.3116  0.0490 -0.0257
20946W        W63858   5.523   3.027  24.255 -0.1136  0.0196 -0.0786
20947W        W63859   6.908   0.218  24.773 -0.0309 -0.0981  0.3024
20948W        W63860   8.200   2.770  27.054 -0.1010 -0.2685 -0.2821
20949W        W63861   4.161   2.503  23.806 -0.1866  0.0101 -0.0089
20950W        W63862   5.175   1.225  27.268 -0.0540 -0.2096  0.0662
20951W        W63863   5.414   0.554  27.727  0.1766  0.2237 -0.2123
20952W        W63864   2.546   1.344  22.736 -0.0457 -0.1091  0.1590
20953W        W63865   4.648   2.216  25.474  0.1804  0.0342  0.0326
20954W        W63866   5.394   3.689  23.596 -0.1263  0.1610  0.1508
20955W        W63867   7.021   3.432  23.132  0.3254  0.1510  0.3381
20956W        W63868   5.249   3.258  26.794 -0.0296  0.3671 -0.1143
20957W        W63869   5.482   2.800  26.612  0.0770  0.4891  0.3856
20958W        W63870   3.673  33.452  25.041 -0.2612 -0.0360  0.1092
20959W        W63871   5.401   0.128  24.142  0.2164 -0.1022 -0.3222
20960W        W63872   5.886   2.520  26.828 -0.1448 -0.0704 -0.2659
20961W        W63873   6.835   2.919  25.082  0.1130  0.1129 -0.2861
20962W        W63874   7.545  33.889  25.549  0.1920  0.2315 -0.0282
20963W        W63875   4.803   1.484  24.643  0.0109  0.2162 -0.0671
20964W        W63876   4.679  34.114  26.433 -0.1079 -0.0952  0.1242
20965W        W63877   3.752   2.943  27.733 -0.0939  0.0196 -0.1247
20966W        W63878   6.148   2.301  25.186  0.1652  0.1107 -0.1325
20967W        W63879   4.082   0.439  24.398  0.0139 -0.0715 -0.0822
20968W        W63880   6.783   1.535  24.658  0.0642 -0.0785 -0.1462
20969W        W63881   5.411   1.726  23.261  0.2710  0.1186 -0.0210
20970W        W63882   3.712   0.729  26.267  0.0794 -0.2691  0.0007
20971W        W63883   4.905  34.648  24.182  0.2175 -0.0334 -0.0480
20972W        W63884   6.705   1.219  26.195 -0.2258  0.0014  0.1436
20973W        W63885   5.773   2.613  25.086  0.2279 -0.0689 -0.3520
20974W        W63886   8.200   1.458  27.071  0.1217  0.1646 -0.0424
20975W        W63887   5.304   1.479  24.250 -0.1621  0.1199  0.1493
20976W        W63888   6.830   2.375  24.270 -0.0981 -0.0960 -0.0878
20977W        W63889   6.525   4.559  26.025 -0.1762 -0.1266 -0.1424
20978W        W63890   7.939   1.998  26.759  0.3101 -0.1306  0.0276
20979W        W63891   5.299   3.653  26.501 -0.1473  0.1179 -0.0136
20980W        W63892   4.991   2.580  25.742 -0.2245  0.0342  0.0107
20981W        W63893   3.795  33.854  25.906 -0.0590 -0.0583 -0.0036
20982W        W63894   3.460   1.789  25.356  0.1117  0.0862  0.0979
20983W        W63895   4.749   3.246  25.273 -0.1555 -0.0157 -0.1715
20984W        W63896   6.910   1.428  25.736 -0.0060  0.0459  0.3000
20985W        W63897   3.784   0.929  25.258 -0.0401  0.0439  0.0887
20986W        W63898   6.755  33.652  24.784 -0.2202  0.0465 -0.1270
20987W        W63899   5.545   3.168  27.455 -0.1454  0.0599  0.1685
20988W        W63900   4.957   2.402  26.552 -0.2056  0.2659 -0.2844
20989W        W63901   4.275   3.609  31.276  0.1432 -0.0903 -0.2126
20990W        W63902   4.824   0.609  29.230  0.0322 -0.0272 -0.3946
20991W        W63903   7.199   1.886  26.865  0.0597  0.1489  0.1859
20992W        W63904   6.734   0.779  25.319 -0.0579 -0.0430  0.2363
20993W        W63905   3.040   1.210  28.887 -0.3203  0.0231  0.0252
20994W        W63906   7.603   3.456  27.462 -0.0113  0.3658  0.0315
20995W        W63907   4.874  34.217  30.701 -0.5257  0.1150  0.0541
20996W        W63908   4.812   2.110  27.701  0.1747 -0.0441 -0.1375
20997W        W63909   6.977   4.266  29.574 -0.0612  0.1077  0.0783
20998W        W63910   5.787   1.398  27.956 -0.2203 -0.1668  0.3716
20999W        W63911   6.111  34.029  30.956  0.0165 -0.2431  0.0822
21000W        W63912   4.965   1.504  30.802  0.0165 -0.5499 -0.3179
21001W        W63913   5.879  33.769  27.686  0.0818 -0.3478  0.0738
21002W        W63914   4.080  34.285  29.615  0.0346  0.1472 -0.0628
21003W        W63915   6.469   1.562  29.245 -0.2476  0.0660 -0.0450
21004W        W63916   3.847   0.992  26.693  0.1306  0.0666 -0.2102
21005W        W63917   4.563   0.679  30.950 -0.1776  0.5010 -0.0866
21006W        W63918   4.890   1.605  28.458 -0.0881  0.0034  0.1508
21007W        W63919   6.669   4.133  28.046  0.0475  0.1707 -0.1514
21008W        W63920   5.716  34.422  30.963 -0.0918 -0.3398  0.3058
21009W        W63921   4.853   0.105  31.273  0.2223 -0.0294  0.0534
21010W        W63922   3.926   2.646  28.122 -0.0545  0.2597 -0.0223
21011W        W63923   3.303   3.112  27.776 -0.0017 -0.0155  0.1158
21012W        W63924   4.200   2.286  30.218  0.0956  0.1915 -0.0829
21013W        W63925   4.709   1.429  30.440 -0.2419  0.2647  0.3719
21014W        W63926   5.779   0.226  31.139  0.0175 -0.2879 -0.1222
21015W        W63927   6.024   0.574  30.331  0.1410 -0.0252  0.3519
21016W        W63928   4.485   2.547  28.966 -0.1465  0.0916 -0.1141
21017W        W63929   4.685   2.934  28.475 -0.1198 -0.3186 -0.0318
21018W        W63930   6.730   0.059  30.793  0.1077  0.2571  0.2064
21019W        W63931   2.967   3.205  28.105 -0.2300 -0.1040 -0.1973
21020W        W63932   4.078   3.620  28.389 -0.0837 -0.0968  0.1851
21021W        W63933   4.283   1.611  29.354  0.1003 -0.2582 -0.4731
21022W        W63934   6.959   2.267  27.679 -0.1324 -0.0525 -0.0529
21023W        W63935   5.630   1.227  29.685  0.2601 -0.0436  0.0439
21024W        W63936   5.971   2.120  29.954 -0.0492 -0.0509 -0.0754
21025W        W63937   4.149   3.102  28.242  0.0266  0.0021 -0.0982
21026W        W63938   6.972   3.154  31.443  0.0162 -0.4480 -0.3214
21027W        W63939   4.665   2.080  30.437  0.3459 -0.2931 -0.0206
21028W        W63940   5.861   2.151  29.372 -0.0893  0.0654  0.2925
21029W        W63941   4.427   1.967  26.416  0.0603 -0.0864  0.1063
21030W        W63942   5.013   2.767  28.105 -0.1268 -0.0006 -0.2597
21031W        W63943   4.834   2.480  28.669 -0.2101  0.0614 -0.0828
21032W        W63944   5.618   1.830  31.648 -0.2299  0.0923  0.1404
21033W        W63945   3.753   3.005  29.524 -0.4438 -0.1579 -0.0103
21034W        W63946   7.416   1.398  30.537 -0.0257  0.0647 -0.0468
21035W        W63947   5.003   3.782  28.122  0.0206 -0.2641 -0.1818
21036W        W63948   6.283   0.763  26.203 -0.1989 -0.0690 -0.1953
21037W        W63949   4.806   0.778  25.298 -0.1003 -0.0376 -0.1574
21038W        W63950   6.515   0.252  26.677 -0.3689  0.2815  0.0790
21039W        W63951   5.615   0.521  29.021  0.0264 -0.1906 -0.0710
21040W        W63952   3.793   1.829  28.526  0.1243  0.0077  0.1271
21041W        W63953   4.900   0.442  30.629 -0.0132 -0.1509  0.0866
21042W        W63954   6.771   2.579  29.522 -0.0239  0.1567 -0.0170
21043W        W63955   5.224   1.786  26.070  0.0340  0.0119  0.1297
21044W        W63956   6.777  34.439  29.502  0.1840  0.1511 -0.0233
21045W        W63957   5.604   3.587  30.291  0.1265 -0.3108 -0.2172
21046W        W63958   3.388   1.478  29.558 -0.1828  0.2243  0.0444
21047W        W63959   5.591   2.658  27.164 -0.1405  0.2437 -0.0970
21048W        W63960   6.558   2.832  28.211 -0.0162  0.1015  0.0076
21049W        W63961   6.803   2.632  26.455 -0.3759 -0.1722  0.0514
21050W        W63962   3.286   0.042  27.404 -0.1308 -0.1550  0.2504
21051W        W63963   5.590   1.308  31.518 -0.0952 -0.2028  0.0606
21052W        W63964   3.732   1.282  30.252 -0.0303 -0.0525 -0.2848
21053W        W63965   3.113  33.796  27.301 -0.0089  0.1606  0.0777
21054W        W63966   7.074   1.875  29.405 -0.0917 -0.4170 -0.0405
21055W        W63967   4.447   1.710  30.792 -0.2450 -0.2323  0.1830
21056W        W63968   7.604   0.570  28.114  0.1636  0.2402  0.1453
21057W        W63969   5.360   2.947  28.794 -0.2300  0.3060  0.2234
21058W        W63970   6.655   3.264  28.762 -0.2077  0.0951 -0.4317
21059W        W63971   6.737   2.107  27.092 -0.1192  0.0790  0.2979
21060W        W63972   6.634   0.685  27.328 -0.1463  0.0593 -0.1618
21061W        W63973   6.302  34.343  28.230  0.1479 -0.2825  0.0950
21062W        W63974   4.294   1.333  27.496 -0.1653  0.2506  0.0742
21063W        W63975   4.473   0.840  27.912  0.1785 -0.2665 -0.1990
21064W        W63976   6.899   2.929  28.599  0.1124  0.3544  0.3838
21065W        W63977   6.802   1.569  26.925 -0.1850 -0.3455  0.0198
21066W        W63978   4.715   2.928  30.997 -0.2349 -0.1113  0.0429
21067W        W63979   5.783  33.971  30.536  0.1030 -0.0289 -0.1776
21068W        W63980   4.735   3.337  29.991  0.2415 -0.0873  0.1820
21069W        W63981   3.540   4.132  27.595  0.0823 -0.2379  0.2406
21070W        W63982   4.675   3.525  29.274 -0.1355  0.0064 -0.0833
21071W        W63983   3.066   1.110  27.483 -0.0565  0.2721  0.0002
21072W        W63984   4.401   0.479  30.447 -0.1108 -0.1862 -0.1338
21073W        W63985   4.213   2.853  30.896 -0.2515 -0.4068 -0.0615
21074W        W63986   5.729  34.453  27.381 -0.0294 -0.0231 -0.3979
21075W        W63987   5.570   0.909  31.219 -0.2169 -0.1432 -0.0925
21076W        W63988   7.220  34.508  28.483 -0.0210 -0.2160  0.1219
21077W        W63989   4.478   4.021  27.492  0.2339  0.0023  0.0761
21078W        W63990   6.276   3.143  27.837 -0.2879  0.1344 -0.1265
21079W        W63991   7.606   0.947  26.322  0.4535  0.0475  0.1143
21080W        W63992   6.534   1.687  26.378  0.1119  0.1019 -0.2328
21081W        W63993   4.285   1.264  30.136 -0.2790 -0.0328 -0.0525
21082W        W63994   3.255   1.366  28.472 -0.1049  0.1339 -0.2041
21083W        W63995   4.238   1.763  30.241 -0.1086  0.0681 -0.3683
21084W        W63996   4.252   0.086  29.689 -0.1548  0.3254 -0.2041
21085W        W63997   6.212   0.183  29.641  0.0861 -0.1351 -0.1016
21086W        W63998   3.872  34.615  26.564  0.0416  0.2968  0.1683
21087W        W63999   6.173   1.190  29.478  0.1804  0.3617  0.0372
21088W        W64000   4.061   1.199  28.448 -0.0364 -0.1571 -0.3097
21089W        W64001   3.455   1.302  27.068  0.0365  0.1587 -0.1867
21090W        W64002   6.342   0.155  30.119  0.1029 -0.0297 -0.3000
21091W        W64003   6.188   4.173  28.750 -0.2089 -0.3400 -0.1634
21092W        W64004   6.663   3.618  30.081  0.2922 -0.4226  0.2088
21093W        W64005   7.028   2.525  28.220 -0.0761  0.1275 -0.0007
21094W        W64006   4.506  34.082  31.612  0.0695 -0.0593 -0.2652
21095W        W64007   3.604  34.337  27.375  0.0225 -0.3668 -0.2452
21096W        W64008   4.376   3.574  28.840  0.0074 -0.0370 -0.0105
21097W        W64009   4.999   2.138  29.218 -0.0524 -0.0303 -0.1762
21098W        W64010   4.097   0.120  27.043  0.0416  0.2935  0.1575
21099W        W64011   6.500   3.299  29.654 -0.0861 -0.1436 -0.3590
21100W        W64012   5.692   1.960  28.042 -0.0957 -0.1271  0.1186
21101W        W64013   4.440   2.626  30.475  0.0495  0.5970 -0.2317
21102W        W64014   7.108  33.924  29.596 -0.1098 -0.3059  0.2793
21103W        W64015   5.813   2.162  31.349 -0.0619 -0.1933  0.0886
21104W        W64016   6.760   1.827  29.012 -0.2089  0.0751 -0.2479
21105W        W64017   4.058   0.258  25.312 -0.0472  0.3147 -0.0127
21106W        W64018   5.350   2.423  28.674 -0.1303 -0.1960 -0.3714
21107W        W64019   3.566   2.367  28.586 -0.3492 -0.1588  0.0799
21108W        W64020   3.391   2.308  27.988 -0.0494  0.1528 -0.1468
21109W        W64021   6.174   3.449  28.641 -0.1118 -0.1439  0.0125
21110W        W64022   7.382   0.671  28.602 -0.2479  0.1821  0.2362
21111W        W64023   3.618   0.932  30.694  0.0355 -0.1705 -0.0007
21112W        W64024   7.032   1.001  30.044  0.1121 -0.3553 -0.0347
21113W        W64025   4.057   0.706  27.615 -0.3873  0.1735 -0.0617
21114W        W64026   3.416   2.006  30.881  0.0637 -0.0324  0.4701
21115W        W64027   6.302   0.252  26.218  0.1828  0.1772  0.1869
21116W        W64028   4.823   0.152  27.423  0.0658  0.1967  0.0679
21117W        W64029   5.461   1.689  31.055 -0.1659  0.1450  0.2903
21118W        W64030   6.540   0.981  27.758  0.1510  0.2143 -0.3654
21119W        W64031   5.422   1.074  27.677 -0.4249 -0.1627 -0.1175
21120W        W64032   4.660   0.056  26.947 -0.2678 -0.1336 -0.0239
21121W        W64033   4.303   2.761  31.718 -0.0148 -0.2186  0.0853
21122W        W64034   6.379   2.948  27.398 -0.0604 -0.1084 -0.2865
21123W        W64035   5.762   2.198  28.490 -0.1698  0.1813  0.2478
21124W        W64036   4.593   1.909  28.155 -0.1297 -0.1983 -0.3302
21125W        W64037   7.379   3.904  27.551 -0.0110 -0.2246  0.2059
21126W        W64038   4.154   2.143  28.467  0.2403  0.0763  0.1178
21127W        W64039   5.382   2.084  30.007 -0.0245  0.0602 -0.2698
21128W        W64040   5.586   3.244  26.334 -0.1823 -0.1526 -0.2292
21129W        W64041   5.113  34.175  29.745 -0.1983  0.0121  0.0725
21130W        W64042   4.812   1.124  26.872  0.0959  0.3038 -0.1781
21131W        W64043   5.014  34.492  27.916 -0.2891 -0.0445  0.0222
21132W        W64044   3.663   3.431  26.388  0.0943 -0.0267 -0.2649
21133W        W64045   7.215   0.218  29.424  0.2319 -0.0153 -0.2624
21134W        W64046   4.385   0.505  29.471  0.0540 -0.5134  0.1475
21135W        W64047   4.742   0.198  28.963  0.0593 -0.1035  0.1298
21136W        W64048   6.075   1.176  30.567  0.0693 -0.0749 -0.1022
21137W        W64049   5.703   2.469  28.112 -0.0734  0.0418 -0.4510
21138W        W64050   5.748   0.997  29.252  0.0229  0.2721  0.0686
21139W        W64051   5.241   2.410  29.605 -0.1778  0.0374  0.0556
21140W        W64052   5.358   0.122  30.942  0.2874 -0.0645  0.2131
21141W        W64053   4.800   2.050  31.020 -0.2348  0.1889 -0.2038
21142W        W64054   4.726   4.129  29.346 -0.0024 -0.1998  0.1426
21143W        W64055   6.350   2.022  28.580  0.0145 -0.0786 -0.0115
21144W        W64056   5.081   1.777  27.971  0.2225 -0.0707  0.0545
21145W        W64057   6.397  34.233  29.275  0.0303  0.1155 -0.0848
21146W        W64058   4.504   1.412  27.935  0.0813  0.2087 -0.0816
21147W        W64059   4.471   3.765  28.061  0.0132 -0.2376  0.1931
21148W        W64060   5.708   2.997  30.000 -0.1302  0.0233  0.1845
21149W        W64061   5.778  34.417  28.396 -0.0269 -0.3838  0.2425
21150W        W64062   5.806   2.747  28.593  0.1715 -0.2488  0.0029
21151W        W64063   5.755   1.829  26.995 -0.1227  0.2818 -0.1237
21152W        W64064   4.251   1.074  29.568 -0.2607 -0.0401 -0.2217
21153W        W64065   5.714   3.421  26.898  0.0440  0.0241  0.0563
21154W        W64066   6.849   0.169  29.756 -0.2977  0.1802  0.0457
21155W        W64067   4.184   4.194  28.268 -0.1030 -0.0229  0.3523
21156W        W64068   3.935   0.821  28.829 -0.2196 -0.5044  0.0417
21157W        W64069   4.114   0.645  28.364  0.0596 -0.0265 -0.0956
21158W        W64070   6.565   0.550  28.037  0.0007 -0.3581  0.0065
21159W        W64071   5.988   0.865  26.732 -0.0798 -0.0794 -0.4654
21160W        W64072   4.405  34.404  30.254 -0.0571  0.0940 -0.0923
21161W        W64073   5.816   0.293  29.936  0.0285 -0.2156  0.0838
21162W        W64074   4.596   2.872  29.974  0.2554  0.2801 -0.0375
21163W        W64075   5.923   1.230  31.089 -0.0439 -0.0171  0.1459
21164W        W64076   5.904  34.224  27.887 -0.3931  0.0889 -0.0143
21165W        W64077   5.582   1.610  30.144 -0.1068  0.3034 -0.0702
21166W        W64078   5.950   0.811   0.251  0.1125 -0.1175  0.2499
21167W        W64079   3.362   0.018  26.460  0.0244  0.0720  0.0273
21168W        W64080   6.589   1.356  30.824 -0.3449  0.0614 -0.2648
21169W        W64081   4.670   1.667  29.050 -0.0871 -0.2722 -0.2642
21170W        W64082   5.319   3.716  27.111 -0.3317 -0.0229  0.2018
21171W        W64083   4.251   2.283  27.948  0.1203  0.1302 -0.1230
21172W        W64084   5.760   2.196  27.347  0.0700 -0.0646 -0.2337
21173W        W64085   4.044   2.346  29.432 -0.1689  0.0179  0.1054
21174W        W64086   5.209   0.200  30.418  0.0995  0.0016  0.1391
21175W        W64087   6.727   0.604  30.032  0.3114  0.1335 -0.1943
21176W        W64088   4.162   1.260  28.981 -0.0927 -0.0172 -0.3814
21177W        W64089   4.782   1.561  27.576  0.0768  0.1593  0.2253
21178W        W64090   5.297   0.908  29.870  0.0698 -0.1493  0.1217
21179W        W64091   5.646   1.807  29.670 -0.0646  0.0385  0.0836
21180W        W64092   5.215   0.259  29.442 -0.2508 -0.3449 -0.3783
21181W        W64093   4.364   2.435  29.777  0.0556 -0.0656 -0.1039
21182W        W64094   6.314  34.248  30.482 -0.1338 -0.1973  0.2829
21183W        W64095   5.954   2.704  27.541 -0.0230  0.1212  0.0935
21184W        W64096   5.957   1.686  31.300  0.0983  0.1574  0.0584
21185W        W64097   2.805   2.740  28.378 -0.1177  0.2555 -0.0428
21186W        W64098   5.231   2.210  31.562  0.1375  0.0435 -0.5083
21187W        W64099   4.435   3.055  28.942  0.0486  0.0801 -0.0795
21188W        W64100   4.719  34.635  30.821  0.1215  0.0037  0.2381
21189W        W64101   4.213   3.877  29.247  0.1260  0.0139 -0.0871
21190W        W64102   3.678   3.265  28.129  0.0389  0.3010 -0.1541
21191W        W64103   4.089   2.857  29.935 -0.1129  0.1201 -0.3245
21192W        W64104   6.443   0.286  27.602  0.1232 -0.0281  0.0002
21193W        W64105   5.680   1.376  27.330 -0.0938 -0.3589 -0.0672
21194W        W64106   4.137   0.180  29.055 -0.2771  0.0347 -0.2786
21195W        W64107   7.284   0.702  30.984  0.3184  0.1129 -0.2642
21196W        W64108   6.095   0.106  28.113  0.2479  0.1769 -0.0263
21197W        W64109   5.808  33.810  31.303 -0.0786  0.1358  0.1568
21198W        W64110   4.000   0.442  30.025 -0.3548  0.2157  0.1450
21199W        W64111   5.990   1.713  28.383 -0.0394  0.0735 -0.1570
21200W        W64112   2.995   0.519  29.700  0.2806 -0.0306  0.3516
21201W        W64113   5.697   2.565  30.371  0.2604 -0.1301 -0.4517
21202W        W64114   5.782   0.903  31.700  0.0724  0.1088 -0.1029
21203W        W64115   4.501   0.699  29.985 -0.3096 -0.0980  0.1645
21204W        W64116   5.310  34.218  28.207  0.1100 -0.1718  0.0070
21205W        W64117   4.843   2.888  30.392 -0.1879 -0.1175 -0.2458
21206W        W64118   6.627   2.051  29.510  0.4167 -0.2725  0.2888
21207W        W64119   4.947   1.314  28.848 -0.1196  0.1631 -0.2432
21208W        W64120   7.230   0.990  28.284  0.1960  0.0025  0.2353
21209W        W64121   5.344   0.415  29.949 -0.0664  0.4114  0.0118
21210W        W64122   6.290   1.941  28.074  0.2088  0.0303 -0.0733
21211W        W64123   5.019   0.644  28.018 -0.0940 -0.2010  0.2257
21212W        W64124   3.654   1.424  28.803 -0.2238 -0.1123  0.0032
21213W        W64125   7.686   0.096  29.470 -0.0166 -0.3242  0.2239
21214W        W64126   5.618   0.594  29.570 -0.0655  0.1526  0.0704
21215W        W64127   5.790  34.408  29.781 -0.3257  0.0148 -0.1034
21216W        W64128   6.468   0.936  30.365 -0.1772  0.3360 -0.0297
21217W        W64129   5.693   1.503  30.615 -0.0287  0.2945 -0.1506
21218W        W64130   5.382  34.568  29.964  0.0371  0.1472  0.1323
21219W        W64131   4.860   0.490  29.677 -0.0707 -0.0835 -0.1835
21220W        W64132   6.407   3.817  29.084  0.0856  0.0876 -0.0802
21221W        W64133   6.957   1.401  27.845  0.0596 -0.0319 -0.3563
21222W        W64134   8.375   0.129  30.080 -0.1240  0.1726  0.0241
21223W        W64135   7.397  34.420  28.000 -0.1687  0.1184  0.0498
21224W        W64136   5.501   0.562  26.844  0.2935 -0.0585 -0.2715
21225W        W64137   4.795   2.138  29.675 -0.1893 -0.3380  0.1966
21226W        W64138   6.522   2.476  30.706 -0.1825 -0.1259 -0.0657
21227W        W64139   4.538   0.948  27.239  0.0043 -0.1489  0.2756
21228W        W64140   8.684   0.181  30.442  0.1411 -0.0942 -0.1758
21229W        W64141   3.143   2.254  27.546 -0.0646  0.0964 -0.0146
21230W        W64142   6.166   1.612  28.862  0.0708 -0.1037 -0.2946
21231W        W64143   6.752   1.070  28.228 -0.3984 -0.1757 -0.0410
21232W        W64144   3.493   0.062  30.345  0.1446  0.0568  0.1652
21233W        W64145   4.687   3.621  31.552 -0.0741 -0.2808  0.3189
21234W        W64146   3.013   1.296  27.926 -0.1379 -0.3160 -0.1057
21235W        W64147   4.608   0.567  26.905  0.1406 -0.0580 -0.0719
21236W        W64148   5.904   3.090  28.928 -0.0114  0.0552  0.0847
21237W        W64149   6.471   2.441  29.089 -0.3218  0.0978 -0.1644
21238W        W64150   4.917  33.768  27.259  0.1899  0.1049  0.2292
21239W        W64151   6.541   0.029  29.225  0.1265 -0.0245 -0.1260
21240W        W64152   3.299   2.814  28.191  0.0022 -0.0073  0.1906
21241W        W64153   5.639  34.636  27.931  0.3508 -0.2307  0.2175
21242W        W64154   5.678   3.287  28.514 -0.0853 -0.0827 -0.0111
21243W        W64155   4.126   2.343  31.811  0.0738 -0.0893  0.0468
21244W        W64156   4.631   3.580  30.449  0.1370 -0.1958 -0.1524
21245W        W64157   6.176   0.541  28.892  0.0702  0.2159 -0.2696
21246W        W64158   5.729   0.117  29.500  0.3344  0.2025  0.1179
21247W        W64159   4.987   0.642  28.753  0.0064 -0.1848  0.0078
21248W        W64160   6.668   1.405  30.335  0.3493 -0.5643 -0.1638
21249W        W64161   5.196   1.683  29.720  0.1119 -0.1887  0.0539
21250W        W64162   4.438   2.104  29.211 -0.0477 -0.0322  0.2305
21251W        W64163   5.692   2.810  29.290 -0.0251  0.0735 -0.3605
21252W        W64164   7.858   2.654  28.887 -0.4020  0.1533  0.3771
21253W        W64165   4.637   2.040  28.691 -0.1696 -0.0055  0.0686
21254W        W64166   3.614   0.722  30.167 -0.0417  0.1485  0.1752
21255W        W64167   5.038   1.747  31.389 -0.0876 -0.1611 -0.4898
21256W        W64168   5.100   2.051  28.409  0.2591  0.1257 -0.5412
21257W        W64169   5.713   0.440  28.159  0.3116 -0.3505 -0.2649
21258W        W64170   5.961   1.790  27.616 -0.2819  0.0656  0.1863
21259W        W64171   3.735   3.180  31.519  0.1030  0.3355 -0.3838
21260W        W64172   4.829   1.087  29.873  0.0691  0.4574  0.1573
21261W        W64173   4.429   4.476  27.566 -0.1987 -0.2202 -0.0489
21262W        W64174   6.210   2.215  27.142  0.0099  0.3194 -0.0758
21263W        W64175   7.711   2.452  27.106 -0.0643 -0.0567 -0.4002
21264W        W64176   4.900   2.889  29.014  0.0122 -0.2631 -0.2245
21265W        W64177   4.552   1.159  28.463 -0.1928  0.2280  0.0870
21266W        W64178   4.324   3.330  29.649  0.1565  0.1085 -0.0605
21267W        W64179   4.080   3.452  27.901 -0.0174 -0.0553 -0.0905
21268W        W64180   5.391   2.221  27.741 -0.1288 -0.1804 -0.0549
21269W        W64181   4.213   4.644  27.977  0.2236 -0.1297 -0.4362
21270W        W64182   7.836   2.388  31.124  0.0022 -0.0109  0.4142
21271W        W64183   4.243   1.195  26.967 -0.1447  0.1839 -0.1560
21272W        W64184   6.654   0.574  29.532 -0.2417  0.0568  0.1492
21273W        W64185   5.693   0.284  27.224 -0.1891 -0.3491  0.1071
21274W        W64186   5.976   3.136  29.595 -0.0553 -0.2849  0.1864
21275W        W64187   4.916   1.129  27.801  0.2933  0.0865  0.1493
21276W        W64188   2.857   0.527  26.642  0.0092  0.2340  0.2371
21277W        W64189   5.655   1.154  30.212 -0.2937 -0.1667 -0.1606
21278W        W64190   7.375  34.456  31.291 -0.0371  0.0371 -0.1237
21279W        W64191   5.258   3.569  31.457  0.0441 -0.0998 -0.1427
21280W        W64192   6.355   1.874  26.825 -0.0524 -0.2012  0.0091
21281W        W64193   3.590   0.690  27.712  0.0440 -0.0550 -0.2065
21282W        W64194   3.931   1.824  29.016 -0.0517  0.1479  0.0482
21283W        W64195   6.696  34.429  30.121 -0.0546  0.0155  0.2387
21284W        W64196   5.338   1.616  26.958  0.0148 -0.0824  0.2687
21285W        W64197   4.939  34.674  29.702 -0.1763  0.0605 -0.0105
21286W        W64198   4.935   2.704  27.632 -0.0422  0.1930 -0.0501
21287W        W64199   5.340   1.860  29.311 -0.0261  0.3886  0.3549
21288W        W64200   4.749   2.581  29.382 -0.0025  0.4104  0.1050
21289W        W64201   4.375   0.397  27.416 -0.2269  0.4506 -0.1976
21290W        W64202   7.977   1.256  29.497  0.4875 -0.1442  0.1753
21291W        W64203   4.195  33.967  30.049 -0.1853  0.0575  0.1782
21292W        W64204   7.656  33.552  29.014 -0.0767  0.0459  0.0271
21293W        W64205   3.381   1.862  28.846 -0.0437  0.1966  0.0464
21294W        W64206   6.832   0.523  29.063  0.0718  0.0799  0.1974
21295W        W64207   6.270   0.610  29.854 -0.0377  0.0251 -0.1774
21296W        W64208   5.259   0.971  31.577  0.0226 -0.2849  0.1008
21297W        W64209   5.423  34.211  27.714  0.2504 -0.3422 -0.0747
21298W        W64210   7.039   1.082  30.614 -0.2590  0.3290  0.1168
21299W        W64211   5.910   0.875  27.879  0.2071 -0.0004  0.2335
21300W        W64212   6.526   2.992  30.777 -0.1159 -0.3812 -0.3241
21301W        W64213   3.589   0.541  29.000  0.1285 -0.2483  0.3558
21302W        W64214   4.308   1.630  28.713  0.1503  0.1665  0.2763
21303W        W64215   2.710   0.884  29.146 -0.0003 -0.1334  0.1900
21304W        W64216   5.839   0.798  29.951  0.4031  0.1549 -0.0976
21305W        W64217   7.060   4.377  30.069 -0.2573  0.0346  0.0488
21306W        W64218   3.321   0.561  28.364  0.1846  0.3191  0.0745
21307W        W64219   6.537   1.630  27.794 -0.2257 -0.2210  0.1511
21308W        W64220   8.432  34.596  29.107  0.0115  0.2026  0.2610
21309W        W64221   4.332   2.776  27.829 -0.1939  0.0937 -0.1316
21310W        W64222   6.252   1.200  28.140 -0.1923  0.0366 -0.1621
21311W        W64223   5.927   1.623  29.294 -0.0416 -0.4064  0.1788
21312W        W64224   4.994   0.659  30.198  0.4396  0.1547  0.2132
21313W        W64225   6.560   1.025  29.758  0.0224 -0.0391 -0.0735
21314W        W64226   7.688   3.113  28.809 -0.2234  0.0184  0.0568
21315W        W64227   4.653  33.631  26.852  0.2140  0.2143  0.3692
21316W        W64228   3.831   1.344  29.371 -0.0910  0.2044  0.1114
21317W        W64229   4.805   4.242  27.837  0.1779  0.1112 -0.1332
21318W        W64230   7.552   0.968  29.509 -0.0957 -0.1743 -0.0449
21319W        W64231   7.469   0.839  30.236  0.2835  0.0606  0.2544
21320W        W64232   4.533   2.451  27.397 -0.3467  0.1271  0.3738
21321W        W64233   7.946  34.154  30.544  0.1932 -0.0667 -0.3294
21322W        W64234   5.413   3.434  28.933  0.2001  0.2028  0.2899
21323W        W64235   6.148   4.796  30.373  0.0627  0.3921 -0.1451
21324W        W64236   3.622   3.509  27.657 -0.2238  0.3408  0.1755
21325W        W64237   4.764   2.431  30.097 -0.0670  0.1403 -0.0152
21326W        W64238   4.595   2.468  28.234 -0.1937  0.1954  0.0812
21327W        W64239   4.629   3.173  27.982 -0.1352 -0.2503  0.0788
21328W        W64240   6.670   2.228  28.168  0.0235  0.0788  0.2055
21329W        W64241   5.055   1.040  28.402 -0.0469 -0.0514  0.0214
21330W        W64242   7.869   3.613  29.186  0.1822  0.2113 -0.1456
21331W        W64243   4.319  33.918  29.153 -0.1270  0.0642 -0.0731
21332W        W64244   6.442   0.889  28.606  0.3230  0.1065 -0.2375
21333W        W64245   5.300   0.130  28.960  0.0843  0.0812 -0.1758
21334W        W64246   4.946   1.807  30.192 -0.2434 -0.5433  0.0453
21335W        W64247   3.224   0.972  26.189  0.2749  0.2497  0.3093
21336W        W64248   5.407   1.099  26.840 -0.1629 -0.0432  0.0559
21337W        W64249   4.716   3.091  29.504 -0.2096  0.1496  0.1232
21338W        W64250   5.676   0.226  30.566 -0.1298  0.2826 -0.0277
21339W        W64251   5.015   0.586  31.143  0.0540 -0.3726  0.0091
21340W        W64252   3.666   2.301  30.459 -0.3121 -0.0245 -0.2267
21341W        W64253   3.792   0.372  28.065  0.0746  0.0695  0.0712
21342W        W64254   7.993   2.782  28.450  0.3187 -0.2368  0.0203
21343W        W64255   3.080   0.592  27.512  0.1755 -0.0021  0.1353
21344W        W64256   3.118   0.664  28.998  0.1077  0.4230 -0.1602
21345W        W64257   6.340   2.894  28.729 -0.0191 -0.2877  0.0492
21346W        W64258   6.305   1.973  29.107  0.2478  0.1507 -0.1381
21347W        W64259   3.848   0.302  28.652 -0.1639  0.0374 -0.1445
21348W        W64260   7.565   2.771  29.734 -0.1454  0.0370 -0.0632
21349W        W64261   4.133   3.206  27.499 -0.1720 -0.1210  0.1600
21350W        W64262   5.818  34.578  30.271 -0.1822  0.0268  0.3655
21351W        W64263   4.523   0.936  30.463  0.0161  0.0482 -0.1360
21352W        W64264   4.758  34.249  25.898 -0.0455  0.0974  0.0991
21353W        W64265   5.234   0.826  29.350 -0.0954 -0.0141  0.1796
21354W        W64266   6.766   3.320  27.733  0.0757 -0.0054 -0.0153
21355W        W64267   6.357   2.841  26.222  0.1632  0.1540 -0.0465
21356W        W64268   4.049   2.338  28.915 -0.0475 -0.0726 -0.2367
21357W        W64269   5.058   3.867  29.002  0.0957  0.1325  0.3224
21358W        W64270   4.096  33.722  29.642 -0.4516  0.3107 -0.0629
21359W        W64271   5.962   3.050  27.157  0.2463  0.0654  0.0076
21360W        W64272   5.160   1.314  30.232 -0.2649  0.0135 -0.2448
21361W        W64273   5.740   3.179  27.888 -0.0457  0.2015  0.1550
21362W        W64274   8.254  34.659  29.589 -0.1818 -0.7673 -0.0483
21363W        W64275   5.159   1.826  28.831  0.2735 -0.0651 -0.3315
21364W        W64276   4.731  33.235  31.070  0.0203  0.0834  0.1596
21365W        W64277   5.521   1.133   0.050 -0.1666 -0.0558  0.0451
21366W        W64278   5.884   2.243  30.839 -0.1169 -0.2679  0.1630
21367W        W64279   3.458   0.675  29.546 -0.0351  0.2641  0.0627
21368W        W64280   5.302   0.108  27.508 -0.1385 -0.0456 -0.0824
21369W        W64281   6.507   2.301  26.673 -0.0068 -0.0118 -0.4504
21370W        W64282   4.641   1.750  31.700 -0.3497 -0.0725  0.0605
21371W        W64283   4.581   1.057  29.117  0.1190 -0.2310  0.0984
21372W        W64284   6.432   1.294   0.020 -0.0752 -0.2552  0.0057
21373W        W64285   5.557   0.973  28.285  0.1200  0.1574 -0.2575
21374W        W64286   6.577   2.315  30.033 -0.0113 -0.1739 -0.1828
21375W        W64287   3.554   0.270  29.897 -0.0186 -0.0726  0.3467
21376W        W64288   7.067   1.393  26.559 -0.3471 -0.0952  0.0610
21377W        W64289   4.528   5.124  29.829  0.2531  0.0841  0.0697
21378W        W64290   7.577   4.259  29.464  0.2654 -0.1398 -0.1751
21379W        W64291   5.641   3.440  29.409  0.3972 -0.1605  0.0078
21380W        W64292   6.653   1.026  29.266 -0.0112 -0.1689 -0.3727
21381W        W64293   5.215  33.725  28.388  0.3830  0.1893  0.0579
21382W        W64294   4.275   3.121  30.449  0.0682  0.2293  0.1806
21383W        W64295   3.776   1.024  29.823  0.5502  0.2235 -0.2361
21384W        W64296   8.757   1.825  28.857 -0.0989  0.1993 -0.0983
21385W        W64297   3.810   0.345  29.449  0.1615 -0.0105 -0.0795
21386W        W64298   4.292   0.396  27.924 -0.0955  0.1613  0.1531
21387W        W64299   5.150   3.271  28.437 -0.2896 -0.2937  0.1496
21388W        W64300   6.215   2.410  28.290  0.1960  0.0809 -0.0909
21389W        W64301   6.768   1.450  31.661  0.0687 -0.1935  0.1445
21390W        W64302   5.258   2.213  30.861 -0.3664  0.0947  0.4286
21391W        W64303   3.117   1.256   1.130 -0.0572 -0.1292 -0.3059
21392W        W64304   5.740   2.975  31.472  0.1956 -0.2428 -0.1726
21393W        W64305   6.387   1.969  31.131  0.0151  0.2208 -0.0681
21394W        W64306   5.197   2.396  30.356 -0.2144  0.2724 -0.2913
21395W        W64307   7.105   2.504  31.279 -0.2054 -0.0764 -0.1317
21396W        W64308   5.433  33.487  31.622 -0.1978  0.1164 -0.1138
21397W        W64309   5.851  33.578  31.878 -0.0699  0.3622 -0.1862
21398W        W64310   7.392   3.675  31.205 -0.1312  0.2136 -0.0441
21399W        W64311   5.688   2.546  29.841 -0.2857  0.0314 -0.0310
21400W        W64312   4.899  33.909  31.269  0.3434 -0.0506 -0.0325
21401W        W64313   5.280   2.771  29.923 -0.0822 -0.0924  0.0766
21402W        W64314   5.939   1.481  31.848  0.2340 -0.0195 -0.0233
21403W        W64315   6.959   2.087  30.363  0.0275  0.0481 -0.0102
21404W        W64316   4.464   2.088   0.086  0.0588 -0.0244  0.1420
21405W        W64317   5.157   1.221  31.165  0.1624  0.0073 -0.2140
21406W        W64318   7.460   2.339  30.093  0.2716 -0.2334 -0.0607
21407W        W64319   6.950  32.765   0.483 -0.0706 -0.0674 -0.3041
21408W        W64320   4.716   0.496  31.927  0.3888 -0.0528 -0.2857
21409W        W64321   4.408  34.554  31.272  0.1404 -0.3909 -0.0089
21410W        W64322   4.987   2.502  31.183 -0.1904  0.0612  0.1253
21411W        W64323   6.038   0.130   1.218  0.1721  0.0789  0.1498
21412W        W64324   6.218   0.003  30.667 -0.0980  0.1035 -0.1403
21413W        W64325   5.967  34.052   0.298  0.1128  0.3983 -0.1440
21414W        W64326   6.648  33.918  30.809  0.1489 -0.2386  0.0941
21415W        W64327   5.450   1.115   0.500 -0.1269  0.0217 -0.3247
21416W        W64328   5.017   3.371  31.832  0.0281 -0.1472 -0.3028
21417W        W64329   4.584   1.579  31.259 -0.2832  0.4053  0.1535
21418W        W64330   3.960   1.950  30.676 -0.1270  0.3926  0.2449
21419W        W64331   5.166   2.689  31.632  0.0549 -0.1858 -0.0971
21420W        W64332   5.446   0.741  30.377  0.3608  0.0061  0.4100
21421W        W64333   7.130   2.563  30.426  0.0409 -0.0236  0.2619
21422W        W64334   6.262  33.534  30.042  0.1320  0.0088  0.4418
21423W        W64335   3.543   1.054   0.334  0.2217 -0.0954 -0.2711
21424W        W64336   5.654   1.364   0.913  0.2674  0.0783 -0.0120
21425W        W64337   5.011   1.356  29.367  0.0309  0.0667  0.0328
21426W        W64338   7.366   2.380  30.859  0.1700  0.4436 -0.3144
21427W        W64339   6.344   0.384  30.989  0.0338 -0.0959 -0.1679
21428W        W64340   6.300   0.938  30.949  0.0906 -0.0770  0.0793
21429W        W64341   8.069   1.115  31.571  0.0001 -0.0557  0.2050
21430W        W64342   6.016   0.598  31.330  0.2910  0.3871  0.0360
21431W        W64343   3.398   0.564  30.948 -0.1620 -0.3411 -0.1051
21432W        W64344   4.280   1.956  29.680 -0.4279 -0.0475  0.0241
21433W        W64345   4.375   0.179   0.277  0.2032  0.0368  0.3126
21434W        W64346   5.291   0.130   0.527  0.2119 -0.0587  0.0072
21435W        W64347   6.046  33.664   0.749 -0.1484  0.0881  0.0753
21436W        W64348   5.770   2.051  30.393 -0.1000  0.0923  0.2270
21437W        W64349   8.039   1.674  31.799 -0.0408  0.0636 -0.0188
21438W        W64350   4.655   2.582   0.110  0.0832 -0.0338  0.1246
21439W        W64351   6.992   4.575  31.250  0.0550 -0.1676 -0.1054
21440W        W64352   7.107   0.585  30.526 -0.0822 -0.0177  0.0803
21441W        W64353   7.462  33.659  30.776 -0.5269 -0.0572 -0.0095
21442W        W64354   4.365   2.261  30.782 -0.0299 -0.1281 -0.0441
21443W        W64355   5.875   0.673  30.825  0.0220 -0.1548 -0.0334
21444W        W64356   5.644   2.582  31.216  0.2721  0.0996  0.1166
21445W        W64357   6.211   3.781  30.422 -0.1029  0.2019  0.0686
21446W        W64358   5.474   3.224  31.892  0.1596  0.1338 -0.0960
21447W        W64359   6.108   2.739  30.674  0.0889 -0.2438  0.0207
21448W        W64360   5.627   0.375   0.771 -0.0839 -0.0351  0.2001
21449W        W64361   4.843   0.798  31.529  0.0526 -0.0735 -0.1158
21450W        W64362   4.522   2.296   1.336  0.1845 -0.1217 -0.0905
21451W        W64363   4.718   2.279  31.564 -0.1388  0.1784 -0.1009
21452W        W64364   3.525  34.404  31.510 -0.3001  0.1236 -0.0914
21453W        W64365   5.728   3.510  31.463  0.2395 -0.0433 -0.1386
21454W        W64366   7.535   3.996   0.256  0.2120 -0.3872  0.2201
21455W        W64367   7.141   3.361  30.178 -0.2339  0.2516 -0.4190
21456W        W64368   5.029   6.827  18.811 -0.2443 -0.1887  0.0267
21457W        W64369   3.352   3.625  17.997  0.0806 -0.0646 -0.1301
21458W        W64370   6.790   5.004  16.083  0.3116 -0.0077 -0.3219
21459W        W64371   5.136   5.868  17.398  0.1545 -0.2891  0.0502
21460W        W64372   3.103   4.089  16.636 -0.0047 -0.2488  0.1630
21461W        W64373   5.813   7.471  16.435  0.2556 -0.1101 -0.1021
21462W        W64374   3.309   3.833  18.518  0.0079 -0.1557 -0.1459
21463W        W64375   6.189   4.328  19.706  0.1427  0.0504  0.1546
21464W        W64376   7.254   6.839  20.155  0.4499 -0.4496  0.0872
21465W        W64377   6.091   6.211  17.087  0.3501 -0.3264 -0.0426
21466W        W64378   3.613   4.230  18.653 -0.2223 -0.1090  0.3389
21467W        W64379   5.220   7.601  17.369 -0.1866 -0.0122  0.2032
21468W        W64380   4.964   3.451  17.908 -0.1842  0.1695  0.3833
21469W        W64381   3.934   3.558  16.848 -0.1914  0.1591  0.2800
21470W        W64382   5.385   5.934  19.242 -0.3580 -0.1652 -0.0412
21471W        W64383   3.950   5.248  16.100  0.2118 -0.1916 -0.2241
21472W        W64384   4.190   5.139  17.539  0.3505  0.0361  0.0733
21473W        W64385   3.951   4.761  17.782 -0.2947  0.0843 -0.2475
21474W        W64386   6.716   6.268  17.648 -0.2542 -0.0408 -0.0201
21475W        W64387   5.032   3.348  18.715  0.3112 -0.4213 -0.1016
21476W        W64388   5.259   4.772  19.096 -0.0308  0.3096  0.1845
21477W        W64389   4.861   5.813  16.704  0.2628  0.0013  0.0952
21478W        W64390   3.178   4.682  16.342  0.1059  0.0573 -0.0401
21479W        W64391   2.619   5.284  18.167  0.1878  0.0018  0.1958
21480W        W64392   4.592   4.948  17.760 -0.0650 -0.0969  0.2108
21481W        W64393   6.252   3.319  16.643  0.1401 -0.1003 -0.2890
21482W        W64394   6.887   3.801  18.397 -0.2431 -0.1528  0.1044
21483W        W64395   3.704   7.153  17.041 -0.0961  0.1421 -0.4559
21484W        W64396   4.390   7.681  19.111 -0.1173 -0.4889 -0.0503
21485W        W64397   7.592   4.156  20.240 -0.0735 -0.0231 -0.0967
21486W        W64398   4.353   5.989  17.701  0.2036  0.0625 -0.0715
21487W        W64399   2.930   6.248  18.184  0.0246  0.3404 -0.1239
21488W        W64400   4.930   5.867  17.904  0.0613  0.1661 -0.1806
21489W        W64401   8.246   7.121  16.941 -0.2048  0.0407 -0.2075
21490W        W64402   6.345   5.557  20.142 -0.0551  0.0184  0.0439
21491W        W64403   4.702   8.076  20.682  0.2047  0.2194 -0.2522
21492W        W64404   4.370   6.052  16.808 -0.0397  0.2569  0.0593
21493W        W64405   4.972   7.671  20.980  0.1697  0.2549 -0.1441
21494W        W64406   6.190   6.693  18.611  0.0762  0.0042 -0.0829
21495W        W64407   3.982   5.531  19.166  0.0404 -0.0276 -0.2059
21496W        W64408   5.868   6.005  16.669  0.2222 -0.2447  0.2154
21497W        W64409   5.536   7.232  16.908  0.2626 -0.1741  0.3754
21498W        W64410   6.621   6.325  17.183 -0.3862 -0.0241  0.2330
21499W        W64411   5.942   5.219  20.013  0.1794  0.0608 -0.0219
21500W        W64412   3.012   5.869  17.345 -0.2567  0.0847  0.1187
21501W        W64413   7.498   4.893  19.152  0.1639  0.0245 -0.3391
21502W        W64414   4.709   6.788  17.062 -0.1189  0.2137  0.4304
21503W        W64415   6.897   4.187  17.100 -0.2722 -0.1661  0.2288
21504W        W64416   4.470   4.653  15.968  0.2772 -0.0304 -0.3252
21505W        W64417   6.160   5.053  18.411 -0.0712  0.0958  0.0481
21506W        W64418   5.299   3.698  16.648  0.3446 -0.0621  0.0097
21507W        W64419   3.649   7.025  18.280  0.2477  0.2007 -0.1203
21508W        W64420   3.865   4.286  17.866  0.0361  0.1596 -0.1255
21509W        W64421   6.737   7.087  20.338 -0.0826 -0.0561  0.3688
21510W        W64422   6.281   5.373  18.013  0.2395  0.3269 -0.2079
21511W        W64423   5.749   4.996  18.644 -0.2935  0.2262  0.0314
21512W        W64424   3.913   7.046  19.398 -0.2237  0.0251  0.4174
21513W        W64425   3.503   4.962  18.083 -0.0894 -0.1559 -0.3323
21514W        W64426   7.609   6.708  16.176  0.3032  0.1976 -0.0490
21515W        W64427   6.917   5.928  18.282 -0.0152  0.1893 -0.0836
21516W        W64428   6.516   7.687  15.730  0.1231  0.0678 -0.1808
21517W        W64429   4.811   4.720  16.402  0.2545 -0.3895 -0.1960
21518W        W64430   2.799   5.459  19.633 -0.0777 -0.1227 -0.1034
21519W        W64431   3.543   6.573  18.566 -0.1371  0.0085  0.0559
21520W        W64432   4.108   3.838  16.419 -0.1854  0.2797 -0.1364
21521W        W64433   6.502   5.815  19.680 -0.0440 -0.1563  0.1764
21522W        W64434   3.414   6.319  17.897  0.0390 -0.2680 -0.0119
21523W        W64435   7.014   6.329  18.044 -0.1440  0.0020  0.2459
21524W        W64436   4.500   5.891  18.170 -0.1431  0.3283 -0.1427
21525W        W64437   7.011   5.727  19.190 -0.0603 -0.3117 -0.1189
21526W        W64438   6.937   5.306  17.074  0.1033 -0.1280  0.3686
21527W        W64439   6.491   4.517  17.328 -0.2624 -0.2047  0.1028
21528W        W64440   7.842   3.522  17.976  0.0721  0.0673  0.2736
21529W        W64441   4.869   6.208  16.383  0.0274  0.0552 -0.0746
21530W        W64442   6.617   5.803  17.874 -0.0204 -0.0050  0.1367
21531W        W64443   7.409   6.962  19.676 -0.0444  0.0120 -0.0026
21532W        W64444   5.946   5.223  17.240  0.0141  0.0432 -0.0989
21533W        W64445   4.545   6.429  17.600 -0.3502  0.4890 -0.0670
21534W        W64446   4.258   5.035  18.143  0.1735 -0.0820 -0.2541
21535W        W64447   5.971   5.929  19.323  0.1870  0.0728  0.4303
21536W        W64448   3.575   7.281  17.486 -0.3764 -0.0389 -0.3545
21537W        W64449   4.712   5.418  18.085 -0.0848  0.0000  0.0797
21538W        W64450   4.369   5.978  15.608  0.0887 -0.1273 -0.0929
21539W        W64451   2.804   4.321  19.024  0.2279 -0.2700 -0.0501
21540W        W64452   4.749   6.143  18.920  0.1956 -0.1742  0.0706
21541W        W64453   7.808   4.787  17.076  0.0042 -0.3203 -0.0009
21542W        W64454   2.514   3.034  19.054 -0.5585  0.2092  0.0895
21543W        W64455   5.657   3.697  17.915  0.1305 -0.0996  0.2797
21544W        W64456   4.742   5.167  16.604  0.2555 -0.2658 -0.0629
21545W        W64457   7.090   6.832  17.867  0.2149  0.2252 -0.3026
21546W        W64458   7.277   4.912  17.336 -0.1291  0.0190  0.1924
21547W        W64459   5.517   6.758  16.752 -0.0032  0.0823 -0.2498
21548W        W64460   3.988   5.886  18.262  0.1462 -0.0814  0.4048
21549W        W64461   4.106   5.218  17.046  0.1303 -0.0824  0.2146
21550W        W64462   4.165   4.087  20.233 -0.0350  0.0034 -0.0582
21551W        W64463   5.358   3.398  18.210 -0.2645 -0.2865 -0.0029
21552W        W64464   6.726   5.398  19.598 -0.0212  0.0829 -0.3463
21553W        W64465   3.920   4.286  16.345  0.4840  0.2000 -0.4389
21554W        W64466   5.990   5.431  17.648 -0.0445 -0.3206 -0.0941
21555W        W64467   5.206   5.451  16.571 -0.2744 -0.1354  0.0736
21556W        W64468   4.396   4.278  17.030  0.1068  0.2318 -0.2375
21557W        W64469   7.876   4.318  19.854  0.0372  0.2597 -0.2433
21558W        W64470   5.960   7.036  16.724 -0.2922 -0.3731  0.1501
21559W        W64471   6.833   6.664  20.513 -0.0504  0.1459 -0.2295
21560W        W64472   7.724   6.243  19.079 -0.2091  0.1234 -0.5701
21561W        W64473   5.053   4.264  18.878 -0.2374 -0.2751  0.2037
21562W        W64474   5.205   4.971  16.710 -0.0913 -0.1811 -0.0367
21563W        W64475   4.232   8.157  16.751  0.4398  0.2968 -0.0134
21564W        W64476   4.518   7.350  18.148 -0.2470  0.1668 -0.0490
21565W        W64477   5.574   4.190  16.647  0.1924 -0.1838 -0.0603
21566W        W64478   6.372   5.474  18.740 -0.1723 -0.1411 -0.2832
21567W        W64479   6.322   6.000  17.491 -0.2583 -0.1123 -0.2621
21568W        W64480   5.061   6.611  18.293 -0.0903 -0.1886 -0.2049
21569W        W64481   6.479   3.623  18.106  0.1932 -0.1881  0.0733
21570W        W64482   7.963   5.274  18.005  0.2570 -0.0213  0.0821
21571W        W64483   7.565   6.032  16.900 -0.0515 -0.2679 -0.3530
21572W        W64484   4.399   4.273  16.424 -0.1756  0.2442  0.3757
21573W        W64485   5.873   7.035  17.244  0.5159 -0.1824  0.0287
21574W        W64486   5.319   5.873  16.874 -0.0253 -0.0399  0.1409
21575W        W64487   3.370   5.580  17.619 -0.0838  0.1745  0.0697
21576W        W64488   7.455   7.148  17.944  0.0006 -0.0705 -0.0743
21577W        W64489   8.649   4.466  18.415  0.2720 -0.2575 -0.0594
21578W        W64490   2.719   5.136  18.615  0.0010  0.0455 -0.0913
21579W        W64491   6.557   4.965  18.005 -0.0427  0.0371  0.1142
21580W        W64492   3.103   5.570  16.040  0.1093 -0.0286 -0.0300
21581W        W64493   4.028   6.400  17.573  0.1184  0.0357 -0.0487
21582W        W64494   4.411   3.363  17.094  0.2016  0.4117  0.1699
21583W        W64495   6.014   4.706  18.035  0.0027  0.0515 -0.1812
21584W        W64496   6.366   6.242  19.239 -0.1201  0.0245 -0.2721
21585W        W64497   5.416   7.638  16.230 -0.2730 -0.0459  0.2633
21586W        W64498   5.071   5.033  17.197  0.2161 -0.0927 -0.1284
21587W        W64499   5.736   4.290  16.048  0.1390 -0.1487  0.0840
21588W        W64500   4.010   6.488  19.520  0.0788  0.0077 -0.3635
21589W        W64501   6.377   5.835  17.046 -0.0711  0.2084 -0.1139
21590W        W64502   5.024   6.443  17.343 -0.0254 -0.4239  0.0091
21591W        W64503   5.740   5.570  16.497 -0.3607 -0.0160 -0.1496
21592W        W64504   6.767   5.575  16.703 -0.1306 -0.1135  0.1237
21593W        W64505   4.467   5.770  19.280  0.2493 -0.0170  0.1100
21594W        W64506   5.779   5.978  20.774 -0.2466 -0.1721 -0.3599
21595W        W64507   6.117   7.090  16.284  0.1061  0.1002  0.1433
21596W        W64508   3.876   4.657  18.286 -0.2981 -0.0584 -0.0776
21597W        W64509   4.754   4.613  17.302 -0.1356  0.2023 -0.1676
21598W        W64510   4.340   4.135  17.579 -0.0913 -0.3093  0.1811
21599W        W64511   3.347   7.297  16.595 -0.2949 -0.1816 -0.0847
21600W        W64512   6.402   3.731  18.638 -0.1506 -0.0226  0.0921
21601W        W64513   6.142   3.340  18.888  0.1107  0.1033 -0.0399
21602W        W64514   6.067   4.156  17.942  0.1202  0.0375  0.2536
21603W        W64515   6.838   5.299  20.128  0.1451  0.2372 -0.0867
21604W        W64516   6.923   5.793  17.281 -0.0620 -0.1460 -0.1378
21605W        W64517   7.371   6.083  19.422 -0.1810 -0.1140  0.0731
21606W        W64518   3.258   4.093  15.743 -0.0687 -0.3022  0.1112
21607W        W64519   5.817   5.164  18.112  0.2738 -0.4461  0.1050
21608W        W64520   2.731   4.879  19.791 -0.1305  0.0809  0.0910
21609W        W64521   4.980   8.104  18.620  0.4999  0.1508  0.0261
21610W        W64522   6.494   4.951  19.762  0.1952 -0.0131  0.1651
21611W        W64523   6.729   6.430  16.454  0.2548 -0.1301  0.1774
21612W        W64524   3.981   4.619  18.798  0.3339  0.0147 -0.2263
21613W        W64525   4.271   4.642  17.416  0.1698  0.1069  0.1754
21614W        W64526   4.882   6.328  16.914  0.2343  0.0797  0.0431
21615W        W64527   5.868   4.618  16.395  0.3257  0.2861 -0.1744
21616W        W64528   4.918   1.826  18.376 -0.2636 -0.1361  0.4216
21617W        W64529   4.936   6.140  18.480 -0.0206 -0.6162  0.1663
21618W        W64530   4.687   5.963  16.009 -0.3290  0.0225 -0.2643
21619W        W64531   6.221   5.226  19.407  0.2903 -0.0784  0.2850
21620W        W64532   3.958   6.697  17.170 -0.2694 -0.0634 -0.3029
21621W        W64533   6.868   2.620  17.754  0.1438  0.0793  0.0176
21622W        W64534   4.263   7.876  17.208 -0.0061  0.0574  0.1217
21623W        W64535   4.217   5.266  16.540 -0.0883  0.1367 -0.1939
21624W        W64536   3.533   4.371  16.675  0.0362 -0.0891  0.1653
21625W        W64537   6.989   4.535  17.497 -0.0013  0.2299 -0.4631
21626W        W64538   6.776   7.132  17.469  0.1627 -0.1245 -0.2300
21627W        W64539   3.558   4.640  19.184 -0.1377  0.1070 -0.1755
21628W        W64540   5.733   3.883  17.458  0.1591 -0.0428 -0.1392
21629W        W64541   2.386   7.051  17.618 -0.0568  0.2300 -0.2826
21630W        W64542   5.709   5.045  19.271 -0.1308 -0.2023 -0.0349
21631W        W64543   5.664   4.343  17.209 -0.2974 -0.1570 -0.1297
21632W        W64544   7.100   6.805  18.912 -0.1628  0.1617  0.2074
21633W        W64545   5.905   4.735  20.189  0.0745 -0.0348 -0.0964
21634W        W64546   2.977   3.369  15.959  0.0959  0.1922 -0.1719
21635W        W64547   8.214   5.011  19.227  0.1451  0.0725 -0.1195
21636W        W64548   6.204   5.487  16.728 -0.0868  0.1583 -0.2093
21637W        W64549   3.804   6.223  17.036  0.0683  0.0266  0.0770
21638W        W64550   5.582   6.859  19.542  0.2427  0.1177 -0.1840
21639W        W64551   4.651   5.561  16.293  0.2962  0.1070 -0.0856
21640W        W64552   3.526   6.009  16.630  0.5551  0.2009 -0.0716
21641W        W64553   3.881   4.448  19.829 -0.2768  0.0142  0.3773
21642W        W64554   6.111   4.235  17.322  0.0588 -0.0334 -0.0170
21643W        W64555   5.520   5.481  19.478 -0.3414 -0.0699  0.0739
21644W        W64556   4.253   5.500  17.888  0.1043 -0.3136 -0.0098
21645W        W64557   3.974   5.062  19.289 -0.1921  0.0417 -0.2029
21646W        W64558   6.861   4.582  18.568  0.0024 -0.3123 -0.3128
21647W        W64559   5.271   5.051  19.576 -0.0494 -0.0355  0.0436
21648W        W64560   5.425   7.019  20.442 -0.2648 -0.0816 -0.2344
21649W        W64561   5.353   3.539  19.747 -0.2894 -0.0176  0.1793
21650W        W64562   7.138   7.422  16.609  0.0866  0.0837 -0.2261
21651W        W64563   6.455   4.261  18.757  0.0067 -0.1256 -0.0538
21652W        W64564   4.518   6.511  16.659 -0.0710 -0.1740 -0.2099
21653W        W64565   4.426   5.298  19.011  0.1775  0.4524  0.0135
21654W        W64566   6.974   6.548  16.910  0.1896  0.0544  0.1609
21655W        W64567   5.453   4.582  18.034  0.0061 -0.0365 -0.3391
21656W        W64568   4.692   6.330  18.071  0.3337 -0.1366  0.1163
21657W        W64569   4.655   6.025  17.269  0.1192  0.0696  0.2754
21658W        W64570   3.264   6.840  17.630  0.0348  0.0209 -0.0761
21659W        W64571   7.050   4.962  17.828 -0.0024  0.1435  0.1606
21660W        W64572   5.301   4.686  16.355  0.1703  0.1064 -0.1049
21661W        W64573   4.890   4.816  18.250  0.1281 -0.1685 -0.1643
21662W        W64574   8.288   4.977  20.669 -0.0384 -0.1637  0.0190
21663W        W64575   6.024   4.723  17.122  0.1625  0.1945  0.1148
21664W        W64576   6.489   4.326  19.330 -0.1767  0.0238  0.2263
21665W        W64577   5.222   4.417  17.447  0.1600 -0.3191  0.0477
21666W        W64578   6.917   5.412  17.602  0.2298 -0.0752  0.1070
21667W        W64579   4.436   5.281  19.536 -0.1692  0.2185 -0.1507
21668W        W64580   5.999   7.727  20.189 -0.2964  0.1238 -0.0981
21669W        W64581   3.872   6.528  19.011 -0.1743 -0.0886  0.0652
21670W        W64582   5.534   4.816  17.330 -0.0176 -0.1572  0.2268
21671W        W64583   5.573   4.703  16.825  0.2942 -0.3081 -0.4013
21672W        W64584   5.683   6.336  17.984 -0.2606 -0.0827 -0.1966
21673W        W64585   6.617   5.026  18.626  0.2609 -0.0826 -0.0207
21674W        W64586   5.379   6.233  16.538  0.0089  0.0585  0.0795
21675W        W64587   7.085   5.542  18.678 -0.1088 -0.3340  0.1458
21676W        W64588   5.683   5.890  18.780  0.1701 -0.3121  0.0085
21677W        W64589   6.631   4.121  16.693  0.2229  0.0313  0.0168
21678W        W64590   3.683   5.273  16.780 -0.0908  0.0749  0.2314
21679W        W64591   5.034   5.499  17.058 -0.4493 -0.2581 -0.0463
21680W        W64592   5.965   2.198  19.253 -0.1429 -0.2103 -0.1423
21681W        W64593   6.342   6.243  17.991  0.2073  0.1287 -0.1903
21682W        W64594   5.390   5.341  18.997  0.2144 -0.0078  0.1370
21683W        W64595   6.247   3.826  17.660  0.0102  0.3812  0.0538
21684W        W64596   7.702   4.854  18.213 -0.0297 -0.0810  0.2207
21685W        W64597   6.850   4.858  19.357  0.1421  0.0432  0.0941
21686W        W64598   3.751   3.881  19.910  0.3292 -0.0308 -0.2278
21687W        W64599   6.718   6.943  18.632  0.2420  0.1864 -0.3289
21688W        W64600   6.203   4.852  17.545 -0.2567  0.0599  0.1862
21689W        W64601   7.222   3.966  17.954  0.1513 -0.2656  0.2928
21690W        W64602   7.296   6.335  16.600  0.1942  0.1945 -0.3500
21691W        W64603   6.469   4.469  17.812 -0.3201  0.0217  0.2768
21692W        W64604   3.624   3.218  17.999 -0.0542  0.1089 -0.2195
21693W        W64605   5.728   6.179  20.202  0.1620  0.0996 -0.2064
21694W        W64606   4.993   3.806  15.957 -0.3076  0.2198 -0.0089
21695W        W64607   6.926   4.423  19.043  0.1111 -0.1028 -0.1723
21696W        W64608   6.287   6.525  16.245 -0.3169  0.1287 -0.1177
21697W        W64609   5.874   6.492  16.503  0.1392  0.2089  0.0284
21698W        W64610   7.024   4.947  18.894 -0.1172  0.0223 -0.0259
21699W        W64611   3.534   4.730  17.043 -0.0471  0.3150 -0.3080
21700W        W64612   4.767   7.133  19.081 -0.3032 -0.0623 -0.0437
21701W        W64613   4.601   5.102  16.125  0.0581 -0.0608  0.1265
21702W        W64614   4.822   4.063  17.304 -0.3331 -0.0562 -0.0605
21703W        W64615   5.130   5.781  18.830  0.1401 -0.0464  0.3298
21704W        W64616   7.066   6.369  20.940  0.0062  0.0916  0.1297
21705W        W64617   5.798   3.414  16.521  0.1439 -0.0515  0.1124
21706W        W64618   5.783   4.598  20.695  0.2732 -0.1880  0.1098
21707W        W64619   3.245   6.486  16.218 -0.1153  0.0766 -0.1489
21708W        W64620   5.295   2.708  18.105 -0.2440  0.2863 -0.3374
21709W        W64621   2.894   5.610  18.806 -0.3481  0.5516 -0.0656
21710W        W64622   3.331   5.740  18.744 -0.4361 -0.2053 -0.0238
21711W        W64623   3.757   6.761  17.797  0.0756 -0.2033  0.4904
21712W        W64624   6.066   2.875  18.698  0.2137  0.0487 -0.0834
21713W        W64625   6.001   5.898  17.922 -0.0011  0.3896 -0.0490
21714W        W64626   5.505   6.779  18.083 -0.0012  0.1928 -0.1220
21715W        W64627   7.833   5.821  19.434 -0.3019  0.2597  0.4384
21716W        W64628   5.864   6.324  18.917  0.3014  0.0409 -0.1245
21717W        W64629   4.256   5.472  18.442 -0.0328  0.2910  0.0790
21718W        W64630   6.647   8.007  18.349 -0.1233  0.0208 -0.1564
21719W        W64631   7.329   6.863  16.749 -0.0871 -0.1882  0.0648
21720W        W64632   3.912   6.379  18.111 -0.2045  0.0861 -0.1211
21721W        W64633   4.027   5.234  19.883 -0.0029 -0.0923  0.2180
21722W        W64634   6.704   5.277  19.084  0.1552 -0.1227  0.1896
21723W        W64635   5.485   5.533  17.290  0.0480 -0.0414 -0.2663
21724W        W64636   5.067   4.481  16.958 -0.2263  0.1498 -0.0184
21725W        W64637   6.455   6.017  16.549  0.3809 -0.0227  0.2967
21726W        W64638   3.124   8.296  19.351  0.1185 -0.0586  0.1099
21727W        W64639   2.566   5.865  19.295 -0.0261  0.1051  0.0976
21728W        W64640   4.298   6.967  16.817 -0.2668  0.3220 -0.1309
21729W        W64641   6.906   6.057  16.826 -0.2853  0.1003 -0.1847
21730W        W64642   6.810   4.137  16.201 -0.2285  0.2751 -0.2905
21731W        W64643   5.857   5.479  19.065  0.0896 -0.0535  0.1254
21732W        W64644   4.026   4.648  16.799  0.1643 -0.3301 -0.0278
21733W        W64645   4.155   5.952  17.249  0.0472 -0.2879 -0.0725
21734W        W64646   2.881   6.423  16.681 -0.5322 -0.3093  0.0109
21735W        W64647   6.002   5.908  16.210 -0.0828  0.0533  0.0526
21736W        W64648   5.045   7.076  16.835 -0.1017 -0.1739  0.0397
21737W        W64649   7.116   7.491  19.567  0.2776  0.2120  0.1867
21738W        W64650   7.155   4.146  16.626 -0.0379 -0.0365 -0.0247
21739W        W64651   8.259   5.154  16.967  0.1665 -0.0206  0.2464
21740W        W64652   7.618   4.614  16.615 -0.2746  0.1673  0.0981
21741W        W64653   6.250   6.442  20.050  0.2239  0.1276 -0.1353
21742W        W64654   5.442   5.732  17.787  0.2195 -0.3866 -0.0379
21743W        W64655   5.730   3.896  16.319  0.2162 -0.0204  0.0876
21744W        W64656   6.358   4.548  20.164  0.1353  0.0618  0.1028
21745W        W64657   8.351   3.444  19.750  0.1804  0.1291  0.0109
21746W        W64658   3.166   7.344  19.907  0.0934 -0.2415  0.0060
21747W        W64659   6.224   7.783  17.474  0.2909  0.0935 -0.3568
21748W        W64660   3.219   5.156  16.892 -0.0526 -0.0283  0.1487
21749W        W64661   5.644   5.244  16.860  0.2189  0.0596  0.2433
21750W        W64662   8.730   3.766  18.250 -0.2145 -0.0293  0.2029
21751W        W64663   4.492   5.456  15.808 -0.0367 -0.0424 -0.2304
21752W        W64664   5.806   4.522  17.642  0.0343  0.2444 -0.1382
21753W        W64665   5.638   6.076  17.487 -0.2650  0.0878 -0.0431
21754W        W64666   4.375   6.404  17.124  0.0852  0.0410 -0.2558
21755W        W64667   3.711   7.498  18.470  0.1331  0.1359 -0.0243
21756W        W64668   3.516   4.759  18.615 -0.3124 -0.3592 -0.0718
21757W        W64669   7.903   4.200  16.441 -0.0983 -0.0461 -0.2945
21758W        W64670   4.460   6.297  18.513 -0.2616 -0.1459  0.0811
21759W        W64671   7.903   4.423  18.746  0.0245  0.1697  0.1844
21760W        W64672   4.609   5.564  17.562  0.1734  0.1051  0.1733
21761W        W64673   4.640   5.126  18.619 -0.1023 -0.3222  0.0500
21762W        W64674   4.816   6.390  19.717  0.1392  0.2002 -0.1821
21763W        W64675   2.509   4.579  19.354 -0.2035  0.1778 -0.0804
21764W        W64676   6.907   5.498  16.196  0.0367  0.1279 -0.1512
21765W        W64677   7.377   4.609  18.654  0.1866  0.4275  0.1818
21766W        W64678   6.395   4.604  16.792 -0.0387  0.2248 -0.2422
21767W        W64679   6.489   6.709  17.766 -0.2422  0.0076  0.1849
21768W        W64680   3.586   3.788  16.624  0.0566  0.1895  0.1082
21769W        W64681   5.466   3.611  16.030  0.1504 -0.0269 -0.0938
21770W        W64682   4.108   6.706  18.492 -0.0147 -0.0335 -0.0303
21771W        W64683   3.806   5.678  18.748 -0.1080  0.1992  0.0527
21772W        W64684   6.315   7.677  20.927 -0.0320 -0.0268  0.3539
21773W        W64685   5.275   4.030  17.083  0.0062  0.0681 -0.1213
21774W        W64686   7.120   6.417  16.083 -0.2624 -0.3176  0.0797
21775W        W64687   7.376   4.400  17.023  0.1013  0.0269 -0.1695
21776W        W64688   5.843   5.538  15.862  0.1490 -0.4597 -0.2781
21777W        W64689   6.702   4.970  17.392  0.2489  0.0796 -0.1597
21778W        W64690   5.801   7.026  17.772 -0.0951  0.0228  0.1056
21779W        W64691   3.183   5.260  18.577  0.1051  0.2922 -0.2322
21780W        W64692   6.486   5.828  18.343  0.0064  0.2630 -0.4858
21781W        W64693   7.081   5.856  17.776 -0.0794  0.0628  0.1002
21782W        W64694   4.571   4.658  16.825 -0.0572 -0.0331  0.1719
21783W        W64695   5.186   4.837  17.710  0.0829  0.0256  0.2327
21784W        W64696   4.076   6.527  16.723 -0.1760  0.0379  0.3447
21785W        W64697   7.242   4.555  19.446  0.0874 -0.0459  0.0570
21786W        W64698   6.800   4.038  17.680 -0.0418  0.0343  0.0823
21787W        W64699   6.058   7.963  16.717  0.0860  0.3157  0.0214
21788W        W64700   7.839   4.033  18.382 -0.0821  0.1273  0.1500
21789W        W64701   5.423   7.389  18.077 -0.0888  0.2006  0.2964
21790W        W64702   5.285   4.934  20.043  0.1159  0.2676  0.2759
21791W        W64703   3.990   5.653  15.728  0.0739 -0.1388  0.1103
21792W        W64704   5.618   5.174  20.494 -0.1301  0.2968  0.0038
21793W        W64705   5.467   6.378  17.047 -0.0184  0.2022 -0.2010
21794W        W64706   5.527   5.488  18.502  0.2236 -0.0977 -0.0487
21795W        W64707   7.922   6.281  17.219 -0.2919 -0.1392  0.0851
21796W        W64708   5.894   5.738  17.119 -0.0398  0.1536  0.2502
21797W        W64709   7.378   7.841  17.548  0.0697  0.1352  0.1034
21798W        W64710   4.902   4.367  17.826  0.0779 -0.0597  0.2784
21799W        W64711   7.157   4.585  16.528 -0.2705 -0.1352 -0.0360
21800W        W64712   5.168   3.887  17.691  0.1677 -0.0153  0.1105
21801W        W64713   4.858   5.061  19.185 -0.1003  0.1708  0.3232
21802W        W64714   3.445   4.164  16.260 -0.0061  0.0684  0.0159
21803W        W64715   5.056   5.150  16.210  0.2287  0.1521 -0.2266
21804W        W64716   4.277   5.877  18.789  0.4584 -0.1726  0.0586
21805W        W64717   5.182   4.505  19.551 -0.2654 -0.0137  0.0829
21806W        W64718   4.986   5.535  19.336 -0.3079  0.0946 -0.0418
21807W        W64719   4.476   5.535  16.938 -0.1028 -0.3436 -0.0916
21808W        W64720   3.320   4.332  17.193 -0.0093 -0.0910 -0.1656
21809W        W64721   7.349   7.119  16.337 -0.1507 -0.0561 -0.1499
21810W        W64722   5.541   3.788  18.440 -0.1503 -0.2856  0.2974
21811W        W64723   3.979   4.125  19.075  0.0915 -0.0917 -0.0414
21812W        W64724   6.937   5.959  16.317  0.0698 -0.0650 -0.1688
21813W        W64725   6.429   6.695  19.424  0.1525  0.0313  0.1116
21814W        W64726   4.347   4.476  17.997 -0.1340  0.0478  0.0827
21815W        W64727   5.804   7.653  20.769 -0.0726 -0.0787 -0.1115
21816W        W64728   2.540   6.285  15.727  0.1122 -0.0741 -0.1688
21817W        W64729   5.094   4.050  19.799  0.1933  0.0202  0.1175
21818W        W64730   3.916   3.809  18.597  0.0086  0.0898  0.0542
21819W        W64731   3.764   3.813  16.052  0.3047 -0.1324  0.3503
21820W        W64732   5.279   5.225  18.125 -0.0780  0.0055  0.0537
21821W        W64733   6.028   4.993  16.672  0.0734 -0.1276  0.2678
21822W        W64734   6.898   8.021  16.035  0.3446  0.3161  0.1835
21823W        W64735   5.132   5.685  19.765  0.3793 -0.0844 -0.0256
21824W        W64736   6.455   4.020  21.072 -0.1315  0.2152  0.1190
21825W        W64737   4.413   4.477  20.048  0.1714  0.1378  0.3762
21826W        W64738   7.519   6.027  18.128  0.3304 -0.2249  0.2360
21827W        W64739   5.008   6.936  19.442 -0.2402 -0.0039  0.3369
21828W        W64740   7.282   5.625  16.781 -0.0377 -0.0036 -0.2084
21829W        W64741   8.062   3.835  19.823  0.0330  0.0966 -0.1480
21830W        W64742   5.099   5.669  18.338  0.2206 -0.2995  0.1136
21831W        W64743   4.672   3.549  20.510  0.1082 -0.0563  0.2665
21832W        W64744   3.895   6.214  18.635 -0.2320  0.1151 -0.0474
21833W        W64745   7.080   5.055  18.381  0.1072 -0.2091 -0.1954
21834W        W64746   3.675   4.981  19.677  0.2290  0.1353  0.1860
21835W        W64747   5.018   3.699  18.359  0.0720 -0.1108 -0.0467
21836W        W64748   6.924   6.667  17.458  0.0375 -0.1848 -0.1394
21837W        W64749   3.952   6.064  19.267  0.1530 -0.2870 -0.2741
21838W        W64750   4.822   3.587  17.409  0.0427 -0.0370 -0.3380
21839W        W64751   5.507   5.470  20.027 -0.1279 -0.0038  0.0258
21840W        W64752   5.475   6.398  18.465 -0.1356  0.1086 -0.1000
21841W        W64753   6.727   5.886  18.772  0.0671 -0.1548  0.0049
21842W        W64754   4.583   5.076  17.203 -0.1792 -0.3663  0.5179
21843W        W64755   7.697   6.769  17.748 -0.4567 -0.5388  0.0900
21844W        W64756   4.916   6.012  19.415  0.1567 -0.1574 -0.1423
21845W        W64757   7.126   7.701  19.006  0.0010  0.1901 -0.1960
21846W        W64758   5.523   5.915  18.283 -0.2968  0.2245 -0.0336
21847W        W64759   7.389   5.697  17.304  0.1630 -0.2661  0.3161
21848W        W64760   4.067   4.257  18.475  0.0586  0.0517  0.0458
21849W        W64761   5.046   5.380  17.687  0.0125 -0.0440  0.3433
21850W        W64762   5.531   5.168  17.643  0.0776  0.2116 -0.2567
21851W        W64763   5.272   3.554  17.244 -0.1254 -0.1380  0.2621
21852W        W64764   4.674   5.669  18.571 -0.0328 -0.0923  0.0854
21853W        W64765   4.788   4.107  16.740  0.0402  0.1711 -0.1427
21854W        W64766   5.243   6.277  18.893  0.0681 -0.0174 -0.2359
21855W        W64767   6.569   6.577  18.918  0.2584 -0.4276 -0.1048
21856W        W64768   6.286   6.147  24.295  0.0926  0.0050  0.0114
21857W        W64769   5.618   4.292  21.104 -0.1824  0.2407 -0.2199
21858W        W64770   6.296   3.391  19.804 -0.3706 -0.0573  0.1899
21859W        W64771   7.648   4.441  20.690 -0.0873 -0.1278 -0.0844
21860W        W64772   3.910   4.763  20.227 -0.0096 -0.1828 -0.2027
21861W        W64773   5.425   8.388  21.154 -0.1845  0.0492  0.0212
21862W        W64774   2.894   1.864  22.024 -0.1123  0.0237  0.0190
21863W        W64775   5.576   6.021  22.946  0.0875  0.3033 -0.1024
21864W        W64776   7.521   6.758  23.444  0.2616 -0.3092 -0.1675
21865W        W64777   4.861   6.117  21.100 -0.4798  0.0868  0.0957
21866W        W64778   5.970   4.940  22.069  0.1794  0.1288  0.0183
21867W        W64779   4.360   5.983  22.154  0.0879 -0.2947  0.2557
21868W        W64780   4.588   4.157  20.570 -0.0431  0.1760  0.3976
21869W        W64781   3.730   4.179  21.664  0.0024 -0.0638 -0.2155
21870W        W64782   8.978   4.944  22.404  0.2602 -0.2262  0.2046
21871W        W64783   5.064   4.187  20.289  0.1151  0.3217  0.0835
21872W        W64784   5.005   3.809  22.314 -0.2756  0.1690 -0.2390
21873W        W64785   5.127   3.939  21.207 -0.1622 -0.1533 -0.2725
21874W        W64786   6.242   5.774  20.816 -0.0427  0.0755 -0.1550
21875W        W64787   4.681   4.968  21.485 -0.2293 -0.4170 -0.2691
21876W        W64788   6.221   3.635  23.085  0.1968 -0.2048 -0.1637
21877W        W64789   4.962   6.956  20.650  0.3950  0.0047  0.1334
21878W        W64790   4.983   5.436  20.188 -0.1049  0.2857  0.0561
21879W        W64791   2.862   5.885  22.437  0.1637  0.5939 -0.0208
21880W        W64792   3.236   5.514  21.581 -0.0580  0.0486 -0.0660
21881W        W64793   7.032   4.724  21.267 -0.0575 -0.1883  0.0842
21882W        W64794   5.501   4.829  21.478 -0.3071  0.3958 -0.1951
21883W        W64795   6.696   5.663  21.613 -0.2632  0.0062 -0.0430
21884W        W64796   5.969   7.096  22.397  0.1379  0.1644  0.1981
21885W        W64797   7.970   4.101  23.342  0.1445 -0.1036  0.2532
21886W        W64798   4.224   5.575  20.788 -0.0154  0.1481 -0.0549
21887W        W64799   3.581   5.596  21.978 -0.0548  0.1872 -0.1706
21888W        W64800   5.336   7.331  20.831 -0.1458 -0.3057  0.1310
21889W        W64801   8.590   6.992  21.120 -0.1202  0.0111 -0.0267
21890W        W64802   8.028   6.380  24.283 -0.1697  0.2222  0.1089
21891W        W64803   4.900   6.155  24.676 -0.0841 -0.1663  0.1078
21892W        W64804   3.354   6.940  19.586 -0.2610 -0.0307  0.0288
21893W        W64805   5.297   7.391  24.295  0.1408  0.0147  0.0905
21894W        W64806   5.561   6.387  24.596 -0.0803 -0.1721 -0.0361
21895W        W64807   6.288   5.629  23.727 -0.0150  0.1590  0.0348
21896W        W64808   5.267   5.408  22.260 -0.0586 -0.1196  0.1031
21897W        W64809   4.168   7.021  19.919 -0.0809  0.3699  0.3162
21898W        W64810   5.576   5.624  22.582 -0.1864 -0.0661  0.2690
21899W        W64811   5.949   5.533  24.671  0.0056 -0.2523  0.0996
21900W        W64812   3.853   6.643  21.679  0.1647 -0.1847  0.0121
21901W        W64813   6.947   4.841  24.359 -0.4675  0.2479 -0.0422
21902W        W64814   4.266   7.505  20.022 -0.0671 -0.1132  0.0451
21903W        W64815   5.794   5.030  20.980  0.0211 -0.2440 -0.2331
21904W        W64816   4.403   4.795  19.084  0.1496  0.1954 -0.1379
21905W        W64817   4.671   3.787  21.483  0.2117  0.0516 -0.0797
21906W        W64818   4.050   3.037  21.852  0.0864 -0.0730  0.0972
21907W        W64819   6.665   5.846  21.112  0.2052 -0.0064  0.1388
21908W        W64820   6.090   5.427  22.229 -0.0537  0.0236  0.1612
21909W        W64821   7.723   6.623  23.926 -0.0915  0.0990 -0.0596
21910W        W64822   6.662   4.437  21.110 -0.1141 -0.0308  0.0322
21911W        W64823   8.171   5.789  24.003  0.0298  0.2505 -0.0803
21912W        W64824   5.038   6.695  23.800  0.0084  0.1064 -0.2006
21913W        W64825   3.781   5.361  22.406  0.0454 -0.0007 -0.0252
21914W        W64826   7.061   6.345  19.036  0.0973  0.1580  0.0386
21915W        W64827   7.706   5.140  20.931  0.1856 -0.2344 -0.3315
21916W        W64828   5.765   6.383  19.481 -0.2364  0.1936  0.0622
21917W        W64829   4.247   4.555  21.680 -0.0926  0.0650 -0.1064
21918W        W64830   4.012   5.414  21.812 -0.0414  0.1967  0.2724
21919W        W64831   5.354   5.061  22.729 -0.0694 -0.0979 -0.0122
21920W        W64832   5.631   3.319  18.785 -0.0071 -0.0400  0.1679
21921W        W64833   6.891   6.176  23.371 -0.0863 -0.1351  0.1962
21922W        W64834   4.792   4.794  25.381 -0.2605 -0.0299  0.2926
21923W        W64835   7.659   4.244  21.208  0.3450  0.0195 -0.2642
21924W        W64836   5.943   5.534  21.740  0.1284 -0.3020 -0.0444
21925W        W64837   7.066   6.655  23.244 -0.1177  0.0119  0.0713
21926W        W64838   6.018   5.569  19.707  0.1041  0.1533 -0.1332
21927W        W64839   6.071   4.202  20.780  0.1614 -0.2125 -0.3482
21928W        W64840   6.874   3.220  23.633  0.3078  0.2327  0.2723
21929W        W64841   5.246   6.483  19.420  0.1213 -0.3397 -0.1206
21930W        W64842   6.479   4.776  21.866  0.1865 -0.1599  0.2087
21931W        W64843   8.526   6.793  23.514  0.4259  0.0127 -0.1290
21932W        W64844   7.118   5.665  20.009 -0.0113 -0.0603 -0.0459
21933W        W64845   4.331   6.230  22.602  0.2047 -0.4711  0.4991
21934W        W64846   6.139   5.632  24.229 -0.3625  0.0115 -0.0079
21935W        W64847   6.345   6.809  24.407 -0.2242  0.0100  0.1465
21936W        W64848   5.022   7.420  19.456 -0.0110  0.1069  0.1569
21937W        W64849   4.843   6.346  20.663 -0.0985  0.1166 -0.0985
21938W        W64850   3.111   6.303  19.233  0.2636  0.0493 -0.0390
21939W        W64851   3.231   3.943  21.714  0.3883 -0.0369  0.1251
21940W        W64852   5.810   5.977  24.456 -0.1661  0.3321  0.3155
21941W        W64853   8.400   4.922  21.722  0.1325  0.0347  0.2056
21942W        W64854   4.628   3.590  21.901  0.1069  0.2476  0.0359
21943W        W64855   9.060   3.077  20.961 -0.1554  0.1322  0.1962
21944W        W64856   4.242   5.909  20.068 -0.0229  0.0837  0.3252
21945W        W64857   6.179   6.592  22.438 -0.2214 -0.2009  0.0986
21946W        W64858   7.799   4.891  20.526  0.0184  0.0573 -0.2002
21947W        W64859   6.672   6.745  19.886 -0.1157 -0.0425  0.1939
21948W        W64860   2.982   4.910  23.085  0.1070  0.0116  0.0850
21949W        W64861   5.309   4.395  22.593 -0.0637 -0.1100 -0.2359
21950W        W64862   5.271   4.211  23.632  0.1573  0.0839 -0.3046
21951W        W64863   2.829   6.347  21.665  0.0202  0.0813 -0.3996
21952W        W64864   8.296   6.318  23.107 -0.2728 -0.0251 -0.0724
21953W        W64865   2.598   3.930  20.690 -0.1116  0.2487 -0.2144
21954W        W64866   6.800   4.266  21.599  0.1520  0.1219 -0.0414
21955W        W64867   5.672   5.165  22.373  0.0918  0.0427  0.0770
21956W        W64868   5.496   5.727  20.470  0.1846 -0.2185 -0.1378
21957W        W64869   7.842   5.480  23.111 -0.1009  0.3575  0.0630
21958W        W64870   6.018   6.893  19.809 -0.3186  0.1365  0.1744
21959W        W64871   7.274   7.258  23.163 -0.0908  0.0171  0.0526
21960W        W64872   7.088   5.968  20.548 -0.0520  0.0605  0.0953
21961W        W64873   6.527   5.171  23.636  0.1356 -0.0205 -0.0446
21962W        W64874   3.245   4.455  20.800 -0.1425  0.0468 -0.1015
21963W        W64875   4.883   6.474  22.720  0.1138  0.1229 -0.0595
21964W        W64876   6.334   6.457  23.273 -0.1719  0.2255 -0.3202
21965W        W64877   5.691   4.825  19.716  0.3538  0.0875 -0.0863
21966W        W64878   6.691   6.104  22.025  0.0250 -0.0091 -0.4290
21967W        W64879   5.240   5.661  21.194  0.1563  0.3198  0.2882
21968W        W64880   6.019   5.751  22.628  0.0429  0.2251 -0.0866
21969W        W64881   6.742   3.924  23.024  0.0937  0.0464 -0.3041
21970W        W64882   8.783   5.547  22.825  0.1488  0.1820 -0.0650
21971W        W64883   8.027   4.057  20.787 -0.2727 -0.0527 -0.3006
21972W        W64884   2.893   4.530  20.088  0.1656 -0.1190 -0.1905
21973W        W64885   6.034   7.219  21.009 -0.0405  0.3163  0.0755
21974W        W64886   4.806   6.572  19.205  0.1965  0.1277 -0.1714
21975W        W64887   3.436   4.805  21.232  0.1260  0.1187 -0.2713
21976W        W64888   5.718   5.809  22.157 -0.2256 -0.5642  0.0724
21977W        W64889   8.864   5.062  21.913 -0.1599 -0.2254  0.1075
21978W        W64890   4.231   6.180  23.957 -0.0317  0.0599 -0.1362
21979W        W64891   6.485   4.654  23.848 -0.4067 -0.2121  0.1802
21980W        W64892   4.313   6.393  19.059 -0.4079 -0.2002 -0.0494
21981W        W64893   4.745   7.044  23.453 -0.0391  0.2552 -0.2315
21982W        W64894   6.479   4.071  20.224  0.2291  0.2125  0.2651
21983W        W64895   7.840   3.739  21.150  0.2204 -0.1126  0.0113
21984W        W64896   7.069   6.222  22.821 -0.0571  0.1123  0.1875
21985W        W64897   6.156   6.562  21.504 -0.0827  0.0976  0.1592
21986W        W64898   6.549   4.761  18.983  0.0665 -0.0545 -0.1261
21987W        W64899   5.523   4.183  20.582  0.2586  0.0077  0.0975
21988W        W64900   4.803   5.937  23.347  0.1616 -0.3440 -0.3950
21989W        W64901   7.361   5.052  21.553 -0.1078  0.1578 -0.0151
21990W        W64902   5.280   5.753  23.261  0.0589 -0.1596 -0.0114
21991W        W64903   4.090   5.062  18.727 -0.0849  0.2826  0.0197
21992W        W64904   7.008   6.593  21.929 -0.2088  0.1758  0.0423
21993W        W64905   4.785   7.038  22.425  0.3704  0.1745  0.0538
21994W        W64906   6.710   7.319  23.643 -0.0412  0.0918  0.1376
21995W        W64907   7.370   5.441  21.862 -0.1195 -0.3995 -0.1522
21996W        W64908   5.705   3.958  22.366 -0.0372 -0.1842 -0.1235
21997W        W64909   4.788   4.675  21.066 -0.3515  0.1634 -0.1480
21998W        W64910   6.156   3.609  20.805 -0.1449 -0.0967  0.1273
21999W        W64911   3.333   7.320  21.369 -0.3618  0.1980 -0.0197
22000W        W64912   8.027   3.634  21.677 -0.1088 -0.0539  0.0598
22001W        W64913   5.846   4.272  22.802 -0.1569  0.0993 -0.0455
22002W        W64914   6.663   5.084  22.764 -0.0297 -0.1948  0.3141
22003W        W64915   8.630   6.016  22.814  0.0289 -0.1577 -0.1179
22004W        W64916   6.750   4.825  20.412 -0.0669  0.3341 -0.0283
22005W        W64917   6.925   4.567  22.273  0.2222 -0.2367  0.1570
22006W        W64918   3.829   5.270  17.890 -0.2096  0.1356  0.0873
22007W        W64919   4.153   4.250  22.332  0.1694 -0.1760  0.1072
22008W        W64920   5.819   4.464  23.478  0.0596 -0.3758  0.3249
22009W        W64921   4.640   5.262  24.101 -0.1347  0.0731 -0.1109
22010W        W64922   8.021   4.770  22.707 -0.0546 -0.1282 -0.3385
22011W        W64923   7.449   6.715  21.030 -0.1175 -0.1087  0.0955
22012W        W64924   6.197   5.148  22.620  0.2483  0.1140 -0.1235
22013W        W64925   5.857   3.771  20.439 -0.0791 -0.0340  0.0747
22014W        W64926   4.550   7.289  20.792 -0.2113 -0.1655  0.0944
22015W        W64927   4.792   5.491  21.010 -0.1258 -0.0852 -0.0089
22016W        W64928   4.142   3.675  22.081  0.0981 -0.1820 -0.1151
22017W        W64929   4.062   6.402  22.112 -0.4377 -0.0158 -0.1743
22018W        W64930   4.769   7.201  18.599  0.1748 -0.0507  0.2847
22019W        W64931   7.861   6.135  23.775 -0.5346 -0.0481  0.1132
22020W        W64932   4.053   7.343  21.065  0.0817 -0.0439  0.2782
22021W        W64933   6.962   4.758  21.777 -0.0894 -0.1484  0.3228
22022W        W64934   3.467   6.326  20.058  0.0511  0.0938  0.0453
22023W        W64935   4.795   4.552  19.172  0.0631 -0.0921 -0.1709
22024W        W64936   4.145   6.350  20.724  0.1187  0.3468  0.0947
22025W        W64937   6.890   3.177  21.265  0.3156  0.0762  0.1258
22026W        W64938   6.827   7.631  20.102 -0.0008  0.5734  0.2044
22027W        W64939   4.945   4.327  22.225 -0.2034  0.0387 -0.3324
22028W        W64940   6.015   4.349  22.327 -0.2920 -0.2854 -0.3448
22029W        W64941   2.316   6.931  24.027 -0.1921  0.1823  0.0983
22030W        W64942   6.505   5.545  22.450 -0.1681  0.0715  0.0205
22031W        W64943   6.994   3.982  19.880 -0.0473 -0.4745 -0.4370
22032W        W64944   6.244   6.826  22.874  0.1534 -0.0702 -0.1503
22033W        W64945   5.494   4.654  23.007  0.3666  0.0998  0.0726
22034W        W64946   3.416   4.484  20.128 -0.2785  0.0792 -0.0742
22035W        W64947   7.898   5.918  24.402  0.0204  0.0847  0.2160
22036W        W64948   5.738   4.729  22.524 -0.0289  0.0639  0.1974
22037W        W64949   4.431   6.267  21.310  0.1142  0.1802  0.0893
22038W        W64950   6.549   6.479  22.787 -0.0347 -0.0705 -0.0382
22039W        W64951   4.791   5.105  20.630 -0.4260 -0.0176 -0.0701
22040W        W64952   5.328   6.534  20.424 -0.0056  0.2314 -0.1035
22041W        W64953   4.338   5.444  22.290  0.1501  0.4798  0.0403
22042W        W64954   6.297   5.771  21.954 -0.1042  0.0308 -0.4085
22043W        W64955   5.217   4.890  22.264 -0.4386 -0.0671  0.3932
22044W        W64956   4.503   5.996  20.790 -0.0204  0.0680  0.1185
22045W        W64957   5.476   4.054  21.608  0.0708 -0.0585 -0.3222
22046W        W64958   6.382   6.047  21.491  0.2727 -0.1087 -0.0900
22047W        W64959   5.012   4.685  21.771  0.0486 -0.0309 -0.0423
22048W        W64960   4.023   6.073  22.935  0.0949 -0.0842  0.0414
22049W        W64961   4.938   2.896  21.321  0.0409  0.0755  0.0690
22050W        W64962   5.582   5.951  19.768 -0.3250 -0.2952 -0.0126
22051W        W64963   5.203   6.254  23.393 -0.0945  0.1027  0.0205
22052W        W64964   4.683   6.101  20.214  0.2216 -0.1650  0.1316
22053W        W64965   4.037   6.658  23.802  0.0758 -0.0765 -0.5611
22054W        W64966   5.930   6.785  21.943  0.1242  0.0334  0.2985
22055W        W64967   6.827   4.613  22.751  0.0265 -0.2298 -0.0442
22056W        W64968   5.110   5.134  21.335 -0.0403 -0.0981 -0.2258
22057W        W64969   4.710   6.962  19.811 -0.2275  0.0955  0.1189
22058W        W64970   4.732   6.746  21.382  0.1281 -0.0009 -0.1002
22059W        W64971   6.498   4.405  20.610  0.0825  0.1476  0.0301
22060W        W64972   7.208   5.294  19.145 -0.1499  0.1606 -0.2588
22061W        W64973   6.337   4.403  21.478 -0.1295  0.0315 -0.1367
22062W        W64974   8.785   5.851  22.311 -0.0142 -0.0654  0.0517
22063W        W64975   7.731   5.470  21.334  0.1447 -0.2617  0.0133
22064W        W64976   6.149   3.624  24.212  0.2630 -0.2432  0.1163
22065W        W64977   5.364   3.520  21.472  0.1889 -0.2439 -0.0874
22066W        W64978   8.430   5.398  20.430 -0.6187 -0.1305 -0.0643
22067W        W64979   4.261   4.059  21.676 -0.0066  0.2244 -0.0034
22068W        W64980   5.442   7.233  23.157 -0.2110  0.2221  0.0846
22069W        W64981   5.466   6.950  24.032  0.0870 -0.0067  0.1051
22070W        W64982   5.042   3.858  21.839 -0.0880  0.2926  0.1508
22071W        W64983   3.060   4.979  20.888 -0.0245  0.1808  0.0447
22072W        W64984   7.047   5.482  22.828  0.2350  0.1846 -0.0248
22073W        W64985   7.961   6.562  23.454 -0.1095  0.4269  0.0478
22074W        W64986   7.016   4.819  19.942 -0.0681  0.0917 -0.0223
22075W        W64987   8.878   4.642  21.551 -0.1749  0.4372 -0.1598
22076W        W64988   4.750   5.936  21.601  0.0757 -0.0634  0.0223
22077W        W64989   5.363   4.739  20.998  0.3303  0.0084  0.3079
22078W        W64990   5.421   5.629  21.818  0.0744  0.1215  0.2558
22079W        W64991   5.578   6.527  21.727 -0.1247 -0.1240  0.2445
22080W        W64992   5.473   4.165  23.137 -0.0808 -0.0515  0.1981
22081W        W64993   6.179   5.532  21.299  0.1024 -0.1768 -0.0107
22082W        W64994   6.112   4.613  21.096 -0.0217  0.1293 -0.2280
22083W        W64995   6.425   4.382  22.882  0.2330 -0.0385  0.2239
22084W        W64996   7.080   5.798  23.700 -0.0855  0.1426  0.2591
22085W        W64997   6.056   5.565  23.290  0.1750  0.0620  0.3522
22086W        W64998   5.978   4.699  23.924  0.1020 -0.2228  0.2735
22087W        W64999   7.828   7.202  23.184 -0.4062  0.0798 -0.2914
22088W        W65000   8.839   4.721  20.863 -0.0436  0.0924  0.2424
22089W        W65001   6.726   3.733  21.973  0.1121  0.0436  0.1686
22090W        W65002   9.136   4.514  21.171  0.0106 -0.0328 -0.0010
22091W        W65003   6.949   4.365  20.246 -0.3498 -0.0031 -0.1460
22092W        W65004   7.469   4.623  22.876 -0.2836 -0.0852 -0.0618
22093W        W65005   7.456   5.912  22.781  0.2408 -0.2502  0.0036
22094W        W65006   5.463   4.453  20.023  0.2891  0.0788 -0.0128
22095W        W65007   5.890   4.586  21.540  0.0992 -0.1468 -0.2085
22096W        W65008   5.773   6.724  20.224  0.1240  0.2319 -0.0340
22097W        W65009   6.603   4.891  21.398  0.0862  0.0719 -0.2279
22098W        W65010   7.150   3.441  20.739 -0.0681 -0.2029  0.1530
22099W        W65011   4.505   5.549  20.418  0.0652  0.1787  0.0324
22100W        W65012   4.979   7.282  24.651  0.1051  0.0736  0.1438
22101W        W65013   5.286   4.712  20.473 -0.1198 -0.1324 -0.3475
22102W        W65014   5.199   6.022  20.199  0.1381  0.1556  0.0404
22103W        W65015   5.809   6.209  22.509  0.0194  0.1881  0.1495
22104W        W65016   8.695   6.084  24.973 -0.3012 -0.0272 -0.0001
22105W        W65017   4.455   3.680  18.481 -0.2805 -0.3967 -0.2579
22106W        W65018   7.872   5.693  22.657 -0.2251 -0.1140  0.3430
22107W        W65019   4.951   7.178  21.105  0.2744 -0.1838  0.3752
22108W        W65020   6.176   3.747  22.211 -0.1219 -0.0071 -0.1745
22109W        W65021   3.656   6.196  22.281  0.0033 -0.0866  0.1409
22110W        W65022   4.574   6.351  23.670  0.1365  0.2098  0.0142
22111W        W65023   5.605   5.291  21.398  0.2003 -0.0967  0.1177
22112W        W65024   6.899   5.210  21.689 -0.1576 -0.0505 -0.0913
22113W        W65025   6.585   5.320  20.573 -0.0493  0.1315 -0.2176
22114W        W65026   6.393   5.535  22.939  0.0293  0.1745  0.0215
22115W        W65027   9.827   5.247  21.878  0.0804 -0.0819 -0.0412
22116W        W65028   5.641   5.499  23.566  0.2590 -0.0147  0.2982
22117W        W65029   6.293   5.113  23.144 -0.1429 -0.1763 -0.0229
22118W        W65030   5.281   8.299  22.098 -0.0546 -0.2763 -0.0562
22119W        W65031   7.207   5.112  21.033 -0.4761  0.4042 -0.1057
22120W        W65032   4.751   5.464  21.551 -0.1728  0.1259 -0.0139
22121W        W65033   4.501   4.190  23.211 -0.0876  0.1698 -0.0320
22122W        W65034   5.618   5.210  24.421  0.2764 -0.0464 -0.1323
22123W        W65035   8.787   4.394  22.376  0.1233  0.0724 -0.0003
22124W        W65036   4.422   5.152  21.098  0.0497  0.0312  0.0347
22125W        W65037   4.936   5.817  20.571  0.2777 -0.2083 -0.3617
22126W        W65038   2.702   6.750  24.346 -0.0263  0.4879 -0.0365
22127W        W65039   4.577   4.743  22.086 -0.1029 -0.1567  0.1061
22128W        W65040   3.608   7.117  20.821  0.0817 -0.2507 -0.0450
22129W        W65041   5.290   6.113  20.838  0.2271 -0.0057 -0.2394
22130W        W65042   5.376   6.139  22.032 -0.1781  0.2295 -0.1056
22131W        W65043   6.686   7.538  23.098  0.2296 -0.1193 -0.2694
22132W        W65044   6.974   4.454  20.746  0.0848 -0.0862 -0.1755
22133W        W65045   4.762   5.639  22.094 -0.1413 -0.2630 -0.0063
22134W        W65046   2.995   6.493  20.975  0.0358 -0.0499  0.1728
22135W        W65047   6.070   6.728  19.073 -0.0297 -0.2191  0.2522
22136W        W65048   4.547   6.671  20.941 -0.0689 -0.1322 -0.0209
22137W        W65049   6.819   5.879  24.644 -0.0468  0.1875 -0.0979
22138W        W65050   7.307   3.490  18.121 -0.2806 -0.0278  0.2709
22139W        W65051   7.767   5.379  22.262 -0.0345  0.0141  0.1604
22140W        W65052   7.797   5.581  19.872  0.3226  0.1729 -0.0625
22141W        W65053   8.322   6.168  23.582  0.2971  0.1365  0.2284
22142W        W65054   4.428   6.245  23.147 -0.1516 -0.0681 -0.0592
22143W        W65055   4.756   4.644  20.402 -0.1314  0.0777  0.2443
22144W        W65056   5.004   6.009  22.893 -0.0314  0.0605  0.3811
22145W        W65057   8.716   2.969  21.867  0.1998 -0.2119  0.2007
22146W        W65058   3.398   7.912  24.395  0.0020 -0.1788  0.2552
22147W        W65059   7.302   7.303  20.967  0.3705  0.1335  0.2921
22148W        W65060   4.928   4.539  19.962  0.2771 -0.0456 -0.1853
22149W        W65061   5.534   5.176  21.904  0.3779  0.1222 -0.2219
22150W        W65062   8.492   3.866  21.632 -0.0641  0.2869  0.1831
22151W        W65063   4.421   6.639  20.391  0.2441 -0.3898 -0.1816
22152W        W65064   7.842   5.004  21.664 -0.3225 -0.0959  0.2395
22153W        W65065   5.713   5.834  21.263 -0.2844  0.2413 -0.1724
22154W        W65066   5.802   6.568  22.828 -0.0057  0.2469 -0.0456
22155W        W65067   5.742   6.417  23.315 -0.2258  0.1448 -0.2510
22156W        W65068   1.911   5.414  20.572  0.2665  0.0639  0.2541
22157W        W65069   8.150   5.264  22.017 -0.2347 -0.1561 -0.1423
22158W        W65070   5.765   5.166  22.972  0.0765 -0.0756  0.2314
22159W        W65071   9.249   4.559  22.683 -0.1458 -0.1654 -0.2162
22160W        W65072   5.213   6.082  21.446 -0.2777  0.0831 -0.2331
22161W        W65073   7.284   4.053  20.678 -0.4650  0.0801 -0.0033
22162W        W65074   6.627   5.966  22.899 -0.0014  0.0531  0.0718
22163W        W65075   6.344   4.615  23.360 -0.0495 -0.0045 -0.0357
22164W        W65076   8.084   3.971  20.288  0.3229 -0.1354  0.1013
22165W        W65077   7.810   6.007  23.158 -0.0880 -0.1586 -0.0215
22166W        W65078   6.735   5.735  20.354  0.2748  0.1332 -0.3709
22167W        W65079   5.529   7.741  23.478  0.4095 -0.0455  0.0807
22168W        W65080   5.390   4.189  22.057  0.0414  0.1193  0.2866
22169W        W65081   4.578   4.285  18.401  0.0112 -0.1036  0.0255
22170W        W65082   4.815   4.695  22.643 -0.0577  0.3591 -0.2243
22171W        W65083   6.034   4.712  22.951 -0.0528  0.0956 -0.2289
22172W        W65084   8.160   7.655  24.783  0.1543  0.2818 -0.2141
22173W        W65085   3.654   5.233  21.545 -0.2435  0.0711 -0.2184
22174W        W65086   6.584   6.502  21.097 -0.1029  0.0021 -0.1832
22175W        W65087   7.446   6.047  24.629 -0.1835  0.0468  0.2750
22176W        W65088   3.542   6.635  20.965 -0.2390  0.2583 -0.2089
22177W        W65089   7.300   4.716  20.450  0.2939 -0.2273 -0.1885
22178W        W65090   5.855   6.116  21.640 -0.0542 -0.2040 -0.1440
22179W        W65091   4.315   4.983  22.505 -0.2633 -0.1361 -0.0245
22180W        W65092   6.865   6.168  21.433  0.1178 -0.1671 -0.2609
22181W        W65093   8.568   5.264  20.966 -0.3587 -0.2749  0.0363
22182W        W65094   5.992   3.800  19.871  0.2033 -0.0869  0.1221
22183W        W65095   5.063   5.179  21.851  0.1533  0.0668  0.0825
22184W        W65096   3.992   6.507  21.197  0.1561 -0.2636 -0.1509
22185W        W65097   8.261   5.689  22.312  0.0107 -0.0686  0.1089
22186W        W65098   5.689   5.505  24.042  0.0060  0.2690 -0.0571
22187W        W65099   5.181   6.872  19.892  0.2224  0.2595  0.0089
22188W        W65100   6.705   3.888  22.491 -0.4750 -0.0433 -0.0617
22189W        W65101   7.580   5.760  23.641 -0.0679 -0.2677 -0.0704
22190W        W65102   4.011   7.536  25.213  0.1743  0.0682 -0.0227
22191W        W65103   4.321   4.841  19.740 -0.0620 -0.0121  0.1323
22192W        W65104   6.748   5.628  23.273  0.0611 -0.0344 -0.3013
22193W        W65105   5.215   6.916  21.424  0.0262  0.2538  0.3739
22194W        W65106   5.744   5.485  20.897  0.0547 -0.1075 -0.1094
22195W        W65107   8.265   5.097  23.094 -0.2365  0.2347 -0.2072
22196W        W65108   6.344   3.448  21.249 -0.1803 -0.2016 -0.0652
22197W        W65109   8.276   4.098  21.273  0.0072  0.5110 -0.0647
22198W        W65110   2.289   4.158  20.391 -0.0869  0.0131 -0.0244
22199W        W65111   8.111   3.553  22.286 -0.0540 -0.1900 -0.0637
22200W        W65112   7.060   2.735  21.082  0.0714 -0.0981  0.0091
22201W        W65113   5.045   5.399  22.849  0.1865 -0.0181  0.0623
22202W        W65114   4.391   6.114  19.640 -0.0655 -0.3701  0.2830
22203W        W65115   3.042   5.709  19.257  0.2078 -0.0416 -0.1054
22204W        W65116   5.192   5.878  22.453  0.1584  0.1161 -0.0995
22205W        W65117   6.197   3.964  22.639  0.2690 -0.1380  0.0569
22206W        W65118   4.776   5.710  24.631  0.0586 -0.0131  0.3296
22207W        W65119   3.661   5.725  21.403 -0.2416  0.0553  0.3162
22208W        W65120   3.667   4.107  20.609 -0.1066 -0.0221  0.0130
22209W        W65121   6.398   5.670  19.207 -0.1846 -0.0402  0.0335
22210W        W65122   3.854   3.863  22.628  0.1209  0.0228  0.1072
22211W        W65123   2.726   4.609  22.092 -0.0019 -0.0671 -0.0991
22212W        W65124   6.891   6.949  20.945  0.1191 -0.0070  0.1944
22213W        W65125   6.599   6.133  20.663 -0.3273  0.0561 -0.1355
22214W        W65126   4.709   3.815  20.962 -0.0121 -0.2894  0.1383
22215W        W65127   7.925   7.264  24.548 -0.1702 -0.2085  0.0329
22216W        W65128   3.277   6.720  19.024 -0.2313 -0.1873 -0.1246
22217W        W65129   6.619   7.021  24.040 -0.2449  0.2417 -0.2822
22218W        W65130   6.767   4.882  23.235 -0.2824  0.0611 -0.0829
22219W        W65131   5.188   5.085  18.631 -0.2471 -0.1031 -0.2036
22220W        W65132   7.015   5.903  22.442  0.0684 -0.0563 -0.2815
22221W        W65133   6.110   5.072  21.432  0.2429 -0.1668 -0.1667
22222W        W65134   7.192   7.285  20.038 -0.1259  0.0671 -0.0104
22223W        W65135   6.418   6.837  23.578  0.3726  0.3658 -0.3511
22224W        W65136   5.744   6.007  23.932  0.2163 -0.1464 -0.2214
22225W        W65137   4.759   4.188  22.714  0.0011 -0.1465 -0.1288
22226W        W65138   5.057   3.640  20.100  0.2560 -0.0351  0.2416
22227W        W65139   5.251   6.427  24.225 -0.1264  0.1265  0.1767
22228W        W65140   7.247   6.920  20.615 -0.0561 -0.2040 -0.0580
22229W        W65141   9.237   3.926  22.693  0.1932 -0.1103 -0.1944
22230W        W65142   6.075   5.323  20.537 -0.1418 -0.0248 -0.0302
22231W        W65143   4.350   3.727  22.911  0.1074  0.1012  0.0826
22232W        W65144   5.596   7.345  22.697  0.0756  0.0755 -0.0660
22233W        W65145   7.021   5.331  23.938 -0.1756  0.0795 -0.1479
22234W        W65146   4.268   3.493  21.612  0.2227 -0.3394 -0.0771
22235W        W65147   5.580   4.641  21.932  0.1008 -0.0962  0.0123
22236W        W65148   6.225   6.043  20.331 -0.2234  0.3739  0.2957
22237W        W65149   3.238   4.750  22.373 -0.0163 -0.1353 -0.2572
22238W        W65150   7.668   3.741  20.481 -0.3482  0.3395 -0.0010
22239W        W65151   6.201   4.324  24.706  0.1526 -0.1954  0.0439
22240W        W65152   6.344   6.105  22.471 -0.0061  0.1378  0.0363
22241W        W65153   8.712   5.817  23.305  0.2530  0.1247  0.0146
22242W        W65154   6.758   4.452  19.745 -0.1552 -0.3403  0.1404
22243W        W65155   7.473   5.989  19.939  0.0516 -0.1401 -0.1357
22244W        W65156   7.123   7.668  23.365  0.1064 -0.3967  0.0600
22245W        W65157   6.263   8.009  22.364 -0.0196  0.1645 -0.0648
22246W        W65158   6.681   6.938  24.814 -0.2962 -0.4184 -0.2559
22247W        W65159   8.073   5.436  20.782  0.2291 -0.2298  0.4061
22248W        W65160   4.163   4.076  21.122 -0.0042 -0.1840 -0.1699
22249W        W65161   5.204   4.418  21.404 -0.2852  0.0303  0.0109
22250W        W65162   4.780   4.248  21.716 -0.2280 -0.0369  0.1447
22251W        W65163   8.176   5.269  24.056  0.0719  0.0336  0.1146
22252W        W65164   3.382   3.679  21.207  0.2081 -0.2625 -0.1681
22253W        W65165   4.820   4.692  18.710 -0.1739  0.0018  0.1190
22254W        W65166   5.332   6.689  23.064 -0.0338 -0.2166  0.0595
22255W        W65167   7.223   5.737  23.220 -0.1175  0.0500 -0.0636
22256W        W65168   4.106   6.088  26.596 -0.2636  0.1049  0.0740
22257W        W65169   4.714   5.735  22.545 -0.0789  0.0964  0.0324
22258W        W65170   6.377   4.080  23.301 -0.1354  0.0397 -0.1254
22259W        W65171   7.019   7.331  24.861 -0.0823  0.1847  0.0820
22260W        W65172   4.638   3.789  24.296 -0.0731 -0.0350 -0.0244
22261W        W65173   6.614   8.585  25.728  0.0143  0.0521 -0.0085
22262W        W65174   5.124   2.838  27.150  0.0175 -0.0242  0.0851
22263W        W65175   6.929   6.284  25.573 -0.1176  0.3622 -0.1810
22264W        W65176   5.581   7.695  25.155  0.0218 -0.1751 -0.2099
22265W        W65177   6.970   5.365  24.465 -0.1955  0.3077 -0.2248
22266W        W65178   5.453   5.505  27.060 -0.0977 -0.2801 -0.0689
22267W        W65179   4.420   7.165  26.979  0.1773 -0.5325 -0.0841
22268W        W65180   5.088   4.065  24.126 -0.3810 -0.0592 -0.0744
22269W        W65181   3.860   3.277  25.241  0.1708 -0.4592  0.4082
22270W        W65182   5.992   5.738  26.479  0.1309 -0.1537  0.1551
22271W        W65183   4.550   6.497  26.004  0.2906 -0.1265  0.2206
22272W        W65184   4.753   4.688  28.095 -0.3226  0.2066 -0.1127
22273W        W65185   5.664   4.093  25.128  0.0852 -0.0926  0.0266
22274W        W65186   6.382   8.181  24.428  0.2353  0.0379 -0.1715
22275W        W65187   5.397   4.092  26.297  0.1416 -0.3056  0.1867
22276W        W65188   5.910   4.861  26.543 -0.1528  0.1466 -0.1489
22277W        W65189   5.240   5.948  25.695 -0.0930  0.3293  0.1402
22278W        W65190   5.222   5.356  24.201 -0.0446 -0.0120 -0.1193
22279W        W65191   3.085   4.707  24.625 -0.1352  0.2470  0.3500
22280W        W65192   3.776   6.229  25.536  0.1558 -0.2704 -0.0343
22281W        W65193   5.522   2.787  26.069  0.2950  0.0431  0.3098
22282W        W65194   6.748   5.615  25.822  0.4548  0.0678  0.1372
22283W        W65195   5.498   7.336  25.528 -0.3951  0.0765 -0.3597
22284W        W65196   5.592   7.309  24.775 -0.1209  0.1706 -0.0784
22285W        W65197   7.046   4.414  26.881 -0.2020  0.1772 -0.2198
22286W        W65198   4.315   6.526  24.399  0.0357  0.0353 -0.1290
22287W        W65199   1.758   8.401  25.165 -0.0909  0.1440 -0.1889
22288W        W65200   5.210   6.036  25.076 -0.1132  0.0970 -0.0456
22289W        W65201   8.382   7.235  24.880  0.0558 -0.0845 -0.1715
22290W        W65202   7.005   6.237  27.521  0.0683  0.1187  0.4260
22291W        W65203   6.049   6.558  25.872 -0.0368  0.2372 -0.3424
22292W        W65204   4.131   7.773  25.730 -0.3178  0.4343 -0.2988
22293W        W65205   5.082   6.603  27.534  0.3181  0.3004 -0.2099
22294W        W65206   6.020   6.903  26.460 -0.2624  0.0049 -0.2612
22295W        W65207   4.564   4.435  25.678  0.1137 -0.0216  0.2362
22296W        W65208   7.307   5.325  23.509 -0.0551 -0.0161  0.0448
22297W        W65209   3.873   5.779  23.337  0.0569 -0.3055  0.1041
22298W        W65210   7.755   4.537  25.736 -0.3875  0.0073 -0.1002
22299W        W65211   3.716   5.890  27.836 -0.1592  0.0375 -0.1245
22300W        W65212   2.937   7.771  25.933 -0.2148 -0.1277  0.3174
22301W        W65213   7.018   3.994  25.713 -0.1264  0.0760 -0.2729
22302W        W65214   2.193   6.538  23.665 -0.1488  0.0230 -0.0961
22303W        W65215   7.680   6.767  24.489 -0.3350 -0.0204 -0.3302
22304W        W65216   8.346   4.753  23.829  0.3634 -0.0268 -0.1073
22305W        W65217   6.718   4.398  24.653  0.1917 -0.0157 -0.1068
22306W        W65218   5.658   3.532  25.081 -0.0700  0.0577  0.0452
22307W        W65219   4.391   7.123  26.362  0.1017 -0.2074 -0.1022
22308W        W65220   4.475   3.416  24.731  0.1466 -0.0674 -0.0541
22309W        W65221   7.280   5.329  26.072  0.0784  0.0347  0.1187
22310W        W65222   5.882   3.901  25.578 -0.0025 -0.1593  0.0334
22311W        W65223   5.077   5.196  25.535 -0.0885 -0.3232 -0.0527
22312W        W65224   4.392   6.995  25.365 -0.2490 -0.1027 -0.0038
22313W        W65225   3.367   7.437  25.205  0.3131  0.1236 -0.0507
22314W        W65226   7.346   8.081  24.154  0.0484  0.1583 -0.0945
22315W        W65227   7.891   7.019  25.221  0.0370 -0.3395  0.1981
22316W        W65228   6.044   6.471  24.647  0.1177 -0.2804 -0.1079
22317W        W65229   4.278   6.432  25.510 -0.1506 -0.0638  0.0918
22318W        W65230   2.405   6.813  24.821 -0.1720  0.3382 -0.0742
22319W        W65231   3.421   4.697  27.725 -0.2148  0.0544 -0.3203
22320W        W65232   6.337   4.723  22.422  0.0025  0.0383 -0.2480
22321W        W65233   8.516   5.785  27.017  0.2507 -0.0983  0.1601
22322W        W65234   3.498   6.166  27.302  0.0561  0.0513  0.0647
22323W        W65235   6.684   3.701  25.365 -0.3105 -0.1465 -0.3020
22324W        W65236   4.678   6.177  25.614 -0.0512 -0.2206  0.0717
22325W        W65237   4.743   5.901  27.072 -0.3182 -0.1623  0.2168
22326W        W65238   7.537   6.133  24.153 -0.3508 -0.2101 -0.1786
22327W        W65239   7.389   3.756  25.342  0.1335  0.3104  0.1299
22328W        W65240   5.855   2.251  25.980 -0.1834 -0.0663  0.0004
22329W        W65241   4.820   6.801  24.564 -0.1228  0.2854 -0.4009
22330W        W65242   5.062   6.418  25.339  0.0584  0.0277  0.0079
22331W        W65243   7.129   6.130  26.492  0.2117  0.1625 -0.1028
22332W        W65244   6.442   7.776  23.577  0.2954  0.2494 -0.3409
22333W        W65245   5.105   7.926  27.042 -0.0362  0.1747  0.2067
22334W        W65246   3.560   4.106  25.771 -0.2657 -0.1226 -0.4349
22335W        W65247   6.825   5.363  26.656  0.1449  0.2825 -0.1231
22336W        W65248   4.905   5.741  24.085 -0.1486  0.1294  0.0524
22337W        W65249   2.643   7.678  24.963  0.2189  0.1328 -0.1123
22338W        W65250   3.091   7.401  24.797  0.2549 -0.4471  0.0923
22339W        W65251   3.795   5.043  26.119 -0.1992  0.1172  0.0035
22340W        W65252   5.591   6.279  25.925 -0.0881 -0.4983  0.2128
22341W        W65253   7.032   4.050  25.123 -0.1973  0.0284 -0.1510
22342W        W65254   5.029   4.383  25.911  0.1467 -0.1160 -0.1958
22343W        W65255   6.849   2.810  24.576 -0.1731 -0.4628 -0.1562
22344W        W65256   3.853   6.566  25.219 -0.0735  0.0356 -0.0268
22345W        W65257   7.253   7.458  25.323  0.0948  0.1944  0.0420
22346W        W65258   7.726   5.464  24.099 -0.1223  0.0771 -0.0649
22347W        W65259   5.362   5.838  24.377  0.0115 -0.3825  0.1081
22348W        W65260   3.355   5.460  25.316  0.1590 -0.1437 -0.0876
22349W        W65261   3.663   4.994  25.212  0.2185 -0.0153  0.3890
22350W        W65262   3.511   4.514  27.249  0.1334  0.1103  0.1630
22351W        W65263   4.141   4.278  25.343 -0.1682 -0.0914  0.1003
22352W        W65264   4.655   6.038  26.560 -0.1367  0.1932 -0.0099
22353W        W65265   3.446   2.906  22.923  0.1213 -0.0664 -0.1243
22354W        W65266   5.379   5.894  26.165 -0.0383 -0.1410  0.0412
22355W        W65267   5.778   6.224  24.994 -0.1785 -0.0845 -0.1075
22356W        W65268   4.226   5.202  23.842  0.1798  0.0501 -0.0101
22357W        W65269   6.758   3.537  26.429 -0.0864  0.1319  0.1007
22358W        W65270   5.612   5.853  25.343  0.2738 -0.1412  0.0955
22359W        W65271   5.896   7.701  27.695  0.0087 -0.3982  0.3578
22360W        W65272   6.063   7.974  24.860  0.1265 -0.1083  0.0321
22361W        W65273   4.326   6.132  27.109  0.1703  0.2527  0.0952
22362W        W65274   4.805   5.026  23.374  0.1187 -0.0861 -0.2505
22363W        W65275   3.422   7.024  25.874 -0.1114  0.0553  0.0037
22364W        W65276   6.497   6.028  25.681  0.1288  0.2814 -0.2439
22365W        W65277   5.169   5.501  23.726 -0.1820 -0.1254  0.0896
22366W        W65278   6.942   8.950  25.812  0.0474  0.0374  0.2514
22367W        W65279   6.256   4.658  25.075  0.1326  0.0239 -0.0126
22368W        W65280   4.294   5.657  27.367 -0.0252 -0.1577 -0.2447
22369W        W65281   6.054   4.397  25.917  0.3438  0.0606 -0.2174
22370W        W65282   7.448   4.907  27.183 -0.3093  0.0698 -0.1958
22371W        W65283   6.587   4.978  25.343  0.0191  0.2802 -0.3225
22372W        W65284   4.995   3.979  23.263  0.3560  0.4158 -0.1228
22373W        W65285   7.703   7.244  26.145  0.2113  0.0077  0.2116
22374W        W65286   4.346   5.900  23.516 -0.0093 -0.3086 -0.1064
22375W        W65287   4.449   5.004  24.980 -0.0099 -0.1790 -0.0135
22376W        W65288   4.562   5.807  25.113 -0.1682 -0.3432 -0.2669
22377W        W65289   4.985   2.851  26.343 -0.1663 -0.0668  0.1097
22378W        W65290   2.819   5.595  27.401 -0.3545  0.0421  0.2941
22379W        W65291   6.819   2.977  27.096 -0.1627  0.2585  0.0435
22380W        W65292   4.295   5.832  25.618  0.0298 -0.0244 -0.0779
22381W        W65293   4.380   7.132  28.071 -0.2455  0.1563 -0.2035
22382W        W65294   6.460   3.356  24.581  0.0847  0.0147 -0.2254
22383W        W65295   6.987   5.223  25.573 -0.1723  0.0480  0.0145
22384W        W65296   6.272   5.055  28.094  0.1113  0.0469 -0.0392
22385W        W65297   7.855   6.023  24.980  0.1830 -0.2932  0.1462
22386W        W65298   7.254   5.060  23.116  0.0750 -0.0451  0.0764
22387W        W65299   5.938   4.955  23.476  0.4232 -0.0817  0.0576
22388W        W65300   3.574   6.657  28.503  0.1290 -0.1298 -0.1482
22389W        W65301   6.653   4.315  25.257  0.1134  0.1087 -0.1936
22390W        W65302   3.650   6.742  26.689 -0.0299 -0.0591  0.0856
22391W        W65303   6.483   4.056  24.368  0.1139  0.0962 -0.2503
22392W        W65304   6.650   8.214  25.417  0.2488  0.3580 -0.1454
22393W        W65305   2.569   7.264  24.498  0.2223 -0.0226 -0.0401
22394W        W65306   5.116   6.162  27.288  0.0887 -0.1784  0.1277
22395W        W65307   6.384   5.722  26.969  0.1674 -0.1882 -0.1294
22396W        W65308   6.524   5.139  25.876  0.2405 -0.3777  0.4266
22397W        W65309   6.062   5.199  23.867 -0.3119  0.1442  0.0613
22398W        W65310   6.170   3.447  25.618  0.2435  0.0145  0.0106
22399W        W65311   4.494   6.059  24.345  0.2710 -0.1238  0.3742
22400W        W65312   7.562   4.142  24.945  0.0567  0.0757  0.0489
22401W        W65313   4.339   4.860  25.599 -0.5953 -0.1539 -0.3461
22402W        W65314   5.150   3.261  26.075  0.0394 -0.1439 -0.1029
22403W        W65315   5.920   5.465  28.101  0.2140  0.2389 -0.2739
22404W        W65316   6.469   5.416  24.544 -0.0138 -0.0453  0.1349
22405W        W65317   5.198   5.008  25.088 -0.1443  0.3487  0.0441
22406W        W65318   4.756   6.465  24.228  0.0534 -0.0416  0.1722
22407W        W65319   5.528   4.541  26.104 -0.0133 -0.1719  0.2310
22408W        W65320   4.139   5.491  25.992  0.1169  0.0636 -0.0534
22409W        W65321   3.756   7.251  26.505  0.0198  0.0153  0.0202
22410W        W65322   4.866   5.698  26.250  0.2671  0.1280  0.3543
22411W        W65323   6.192   5.207  24.985 -0.4105  0.0847  0.1427
22412W        W65324   5.071   4.196  26.836  0.1835  0.2718 -0.2407
22413W        W65325   6.092   5.080  24.389  0.0084  0.0243 -0.1227
22414W        W65326   3.528   8.552  24.528  0.1575  0.0071  0.1429
22415W        W65327   3.326   5.723  22.413 -0.0728 -0.1443  0.1258
22416W        W65328   3.401   3.759  26.166  0.3456  0.0487  0.0096
22417W        W65329   5.690   5.520  26.166  0.2010 -0.2428  0.0287
22418W        W65330   5.460   6.472  23.779 -0.2167 -0.0381 -0.2967
22419W        W65331   5.164   5.133  27.260 -0.3562  0.1336 -0.4107
22420W        W65332   3.830   7.015  24.086 -0.0151 -0.0388  0.3276
22421W        W65333   5.940   3.197  26.007 -0.1869 -0.1076 -0.1390
22422W        W65334   2.761   7.192  25.172 -0.0664  0.0596 -0.0457
22423W        W65335   5.595   5.817  24.865 -0.1336  0.1806 -0.0641
22424W        W65336   3.831   5.423  24.303 -0.0988  0.1237 -0.1803
22425W        W65337   7.185   3.250  24.384 -0.4681  0.0089  0.2916
22426W        W65338   7.178   6.812  24.698 -0.0784  0.1455  0.1445
22427W        W65339   6.101   3.896  26.055  0.0342 -0.2660 -0.0998
22428W        W65340   6.077   3.035  25.262  0.3291 -0.0167 -0.1434
22429W        W65341   2.946   6.851  26.622  0.1133 -0.1309 -0.3926
22430W        W65342   5.674   4.315  28.167 -0.1106  0.0993 -0.1087
22431W        W65343   7.018   3.849  23.492  0.0198 -0.1006  0.0683
22432W        W65344   6.429   6.601  25.532  0.2777 -0.0338 -0.0362
22433W        W65345   3.801   6.690  25.860 -0.0021 -0.0459  0.0357
22434W        W65346   3.125   4.252  24.435 -0.1103 -0.2376 -0.3449
22435W        W65347   5.180   5.897  26.826 -0.1503  0.1825 -0.2273
22436W        W65348   5.697   5.408  25.104 -0.4372  0.0970 -0.4061
22437W        W65349   5.136   6.631  25.908 -0.2492 -0.3259 -0.2201
22438W        W65350   6.034   6.097  25.499  0.1291  0.0238 -0.2071
22439W        W65351   4.844   5.673  25.496 -0.2027  0.2059  0.1666
22440W        W65352   4.753   6.750  25.580  0.1076  0.0744 -0.2252
22441W        W65353   4.745   4.327  27.212 -0.2335 -0.0256  0.1191
22442W        W65354   5.319   5.563  26.528  0.0988  0.2993 -0.0017
22443W        W65355   5.866   4.858  25.807  0.2116  0.1869  0.2208
22444W        W65356   3.543   4.496  24.901 -0.1629 -0.3251 -0.5201
22445W        W65357   3.995   5.177  25.570  0.1128 -0.0424  0.1349
22446W        W65358   6.384   5.994  26.202  0.3839  0.2668  0.0235
22447W        W65359   4.324   4.991  26.099  0.1373 -0.1306  0.3736
22448W        W65360   4.211   7.557  26.629  0.0305 -0.2383 -0.0372
22449W        W65361   4.793   3.638  26.103 -0.1103  0.0632 -0.2386
22450W        W65362   8.299   8.332  24.923  0.2830 -0.1037  0.2191
22451W        W65363   6.878   4.777  25.740  0.2492 -0.1475 -0.1401
22452W        W65364   5.253   5.438  24.787 -0.1473  0.0198  0.1617
22453W        W65365   2.922   5.971  24.490  0.1376 -0.0525  0.1153
22454W        W65366   5.169   6.568  24.819 -0.2518  0.2878 -0.1252
22455W        W65367   3.910   3.810  25.526 -0.0667 -0.2453  0.0441
22456W        W65368   4.945   6.588  26.445  0.1036  0.1208  0.1083
22457W        W65369   4.344   6.148  24.788  0.0938  0.1748  0.0469
22458W        W65370   3.851   6.379  26.290  0.0417 -0.1480 -0.0871
22459W        W65371   5.799   3.391  22.362  0.3319  0.2352 -0.0566
22460W        W65372   6.662   5.620  24.126 -0.0187  0.0236  0.2879
22461W        W65373   5.488   4.581  25.109  0.2381 -0.0022  0.0142
22462W        W65374   6.487   3.066  25.720 -0.1583 -0.1430 -0.3723
22463W        W65375   6.563   6.172  23.819 -0.2271 -0.0456  0.0625
22464W        W65376   6.671   3.577  26.927 -0.3991 -0.1590 -0.1446
22465W        W65377   3.777   4.257  26.353 -0.3162 -0.5402 -0.0410
22466W        W65378   7.704   5.234  25.853  0.0065 -0.2201 -0.1217
22467W        W65379   4.394   5.711  26.779  0.1666 -0.0434 -0.0149
22468W        W65380   6.618   7.402  26.720  0.4032 -0.1359  0.0937
22469W        W65381   2.859   4.657  27.744 -0.0823 -0.2795 -0.1950
22470W        W65382   4.112   4.749  25.174  0.4959  0.0505 -0.4081
22471W        W65383   3.739   4.021  23.683 -0.1860  0.0269 -0.2127
22472W        W65384   5.022   5.204  26.356  0.0715  0.2756 -0.2276
22473W        W65385   7.357   4.892  25.692  0.2937 -0.0919 -0.4604
22474W        W65386   6.004   5.367  25.485  0.2920  0.4264 -0.1830
22475W        W65387   7.031   4.837  25.156  0.2864 -0.0360 -0.0106
22476W        W65388   3.843   6.425  24.223  0.2114  0.1844 -0.1290
22477W        W65389   6.598   6.013  25.116 -0.3503 -0.3502 -0.1459
22478W        W65390   7.367   4.461  24.201 -0.0863 -0.4015  0.0968
22479W        W65391   3.958   5.690  26.957  0.2835 -0.2194  0.0152
22480W        W65392   4.033   3.703  27.384  0.1470 -0.2274  0.1459
22481W        W65393   7.910   4.913  26.149  0.1707 -0.0346 -0.2377
22482W        W65394   6.277   4.685  25.595 -0.0683  0.1693 -0.1275
22483W        W65395   6.045   4.335  26.855 -0.3496 -0.1397  0.1092
22484W        W65396   6.117   5.304  27.183  0.3170  0.3265  0.1977
22485W        W65397   6.055   5.189  26.135 -0.0145 -0.0927  0.0526
22486W        W65398   3.101   4.110  27.968  0.0689 -0.3263  0.2591
22487W        W65399   7.070   7.131  26.834 -0.2985 -0.2612  0.2397
22488W        W65400   6.961   4.791  23.853 -0.0455 -0.2915  0.2297
22489W        W65401   6.887   5.761  26.984  0.0169 -0.1831 -0.0788
22490W        W65402   6.051   5.799  25.113  0.1723  0.0762 -0.0042
22491W        W65403   7.223   5.717  24.196  0.4199  0.1418  0.1501
22492W        W65404   3.408   6.005  25.317  0.2843  0.4472  0.1126
22493W        W65405   6.137   4.860  27.003  0.0885 -0.0905 -0.0092
22494W        W65406   4.500   5.335  25.396  0.0109  0.0309  0.0794
22495W        W65407   5.388   5.029  26.741 -0.0295 -0.3488 -0.0139
22496W        W65408   5.791   5.786  25.806 -0.0012  0.1171 -0.1868
22497W        W65409   6.957   5.666  26.253  0.0386 -0.0670 -0.1722
22498W        W65410   5.047   4.682  26.361 -0.0656  0.1023  0.3028
22499W        W65411   4.582   4.286  24.163 -0.0332  0.1586  0.0554
22500W        W65412   4.323   8.560  27.017  0.2158 -0.0872 -0.2390
22501W        W65413   4.221   5.043  24.474 -0.1461  0.0773  0.1356
22502W        W65414   6.290   5.862  24.704  0.0005 -0.0998 -0.0652
22503W        W65415   6.576   6.973  26.371  0.1195  0.1887  0.2129
22504W        W65416   4.593   6.792  27.710 -0.4189  0.2257 -0.1124
22505W        W65417   6.937   3.386  24.797 -0.2183  0.1077  0.1021
22506W        W65418   6.633   6.184  27.063 -0.1695 -0.2708  0.0039
22507W        W65419   2.082   5.885  23.804 -0.3959  0.0231 -0.2082
22508W        W65420   5.488   4.158  25.772 -0.0435 -0.2215 -0.2603
22509W        W65421   6.319   7.495  25.800 -0.0157  0.0365 -0.0165
22510W        W65422   3.502   5.528  26.123  0.1424  0.1013 -0.3803
22511W        W65423   4.623   6.423  25.045 -0.0776 -0.1124 -0.0970
22512W        W65424   5.517   3.428  25.644 -0.0672  0.1422  0.1181
22513W        W65425   6.257   5.257  26.713 -0.2664 -0.0119 -0.0235
22514W        W65426   5.201   5.478  25.952 -0.1166 -0.0808  0.0344
22515W        W65427   7.780   3.958  27.238 -0.0083  0.1242 -0.0947
22516W        W65428   5.344   6.459  26.893 -0.1227 -0.1843  0.2194
22517W        W65429   4.312   4.134  26.259  0.0294 -0.1278  0.2502
22518W        W65430   7.728   7.359  25.604 -0.3756  0.1991  0.2547
22519W        W65431   8.000   5.510  26.173  0.0010 -0.2437 -0.1159
22520W        W65432   5.916   7.276  25.308 -0.1303  0.0421 -0.2440
22521W        W65433   3.119   4.193  27.077  0.5233 -0.4346 -0.0817
22522W        W65434   4.937   4.736  27.501  0.1053  0.0447 -0.2967
22523W        W65435   7.513   5.730  26.228  0.0145 -0.0286  0.3413
22524W        W65436   5.346   3.899  24.784 -0.0407  0.0556  0.1492
22525W        W65437   5.368   8.206  24.368  0.0732  0.2506  0.1257
22526W        W65438   4.945   6.398  28.108 -0.2654 -0.4032  0.3544
22527W        W65439   2.929   6.062  26.805 -0.2181 -0.3266  0.0091
22528W        W65440   3.412   6.627  24.923  0.2806 -0.0580  0.5573
22529W        W65441   6.220   6.397  25.139 -0.0790  0.0204 -0.2330
22530W        W65442   5.930   6.742  23.712  0.2251  0.0195 -0.0844
22531W        W65443   5.825   6.543  26.704  0.4609 -0.1414 -0.0590
22532W        W65444   5.972   3.755  24.704 -0.1570 -0.4044  0.2130
22533W        W65445   3.361   6.979  26.361  0.1490 -0.0854 -0.0342
22534W        W65446   3.559   6.531  23.823  0.2086  0.2379  0.2888
22535W        W65447   6.887   5.257  25.001  0.1373  0.0401 -0.0957
22536W        W65448   4.117   6.739  24.829 -0.0029  0.0480  0.0699
22537W        W65449   7.533   7.074  27.415  0.0075 -0.0846 -0.0827
22538W        W65450   7.295   5.474  22.343  0.2002  0.1381 -0.1238
22539W        W65451   8.733   4.854  26.017  0.1786  0.0215  0.1876
22540W        W65452   7.524   4.022  24.055 -0.1623  0.0453 -0.0049
22541W        W65453   6.793   6.355  26.135  0.2076  0.1979  0.1976
22542W        W65454   4.796   4.888  25.925 -0.1768  0.1095 -0.2259
22543W        W65455   6.726   4.288  23.552  0.3953 -0.0153  0.2363
22544W        W65456   3.953   3.736  26.694 -0.1588  0.0738  0.2409
22545W        W65457   6.489   3.583  25.964 -0.0696 -0.0843 -0.3563
22546W        W65458   4.426   7.383  25.694 -0.0732  0.1271  0.0027
22547W        W65459   6.072   7.462  24.664  0.0402  0.0388 -0.1166
22548W        W65460   4.578   4.779  24.133 -0.0955 -0.3768 -0.0219
22549W        W65461   5.839   4.645  24.396 -0.2282 -0.2916  0.2102
22550W        W65462   6.309   3.783  26.570  0.1102 -0.0545  0.4582
22551W        W65463   5.852   6.421  24.152 -0.2513  0.0840  0.2734
22552W        W65464   6.217   5.581  25.950 -0.2448 -0.1318  0.0322
22553W        W65465   5.275   8.177  25.091 -0.0825  0.3040  0.0680
22554W        W65466   6.191   6.921  24.914  0.0702 -0.0132 -0.1821
22555W        W65467   6.470   5.539  26.339  0.1303  0.2313  0.1175
22556W        W65468   4.745   2.892  23.828  0.1528 -0.0179 -0.0061
22557W        W65469   7.769   4.932  24.776 -0.0154 -0.4423  0.1258
22558W        W65470   4.325   4.509  27.097  0.2199  0.1135 -0.0810
22559W        W65471   6.733   4.013  26.161  0.0180 -0.0671  0.0903
22560W        W65472   4.040   5.954  25.171  0.2895  0.2192 -0.0319
22561W        W65473   7.197   5.058  22.081  0.2126  0.1257  0.2370
22562W        W65474   5.670   4.547  27.068 -0.2839  0.2003 -0.2419
22563W        W65475   3.599   4.845  26.508  0.1378 -0.1338 -0.0784
22564W        W65476   5.548   5.002  23.890  0.0650  0.2421  0.2891
22565W        W65477   7.099   5.961  25.892  0.0920  0.2120 -0.2240
22566W        W65478   6.541   6.347  24.654  0.1679 -0.0868 -0.0220
22567W        W65479   6.367   7.459  26.294 -0.1267 -0.3294 -0.0770
22568W        W65480   3.589   4.621  26.045  0.0005  0.1176 -0.0724
22569W        W65481   6.853   5.550  22.044 -0.0515  0.2036 -0.1641
22570W        W65482   3.189   4.735  25.679  0.0072 -0.2453 -0.1630
22571W        W65483   5.452   4.963  27.680  0.2369 -0.2646  0.1304
22572W        W65484   7.150   6.972  26.093 -0.0159 -0.1527 -0.2281
22573W        W65485   4.911   3.665  24.756 -0.0030  0.1314 -0.2053
22574W        W65486   7.382   6.311  23.176 -0.1079 -0.2519 -0.1258
22575W        W65487   7.497   4.697  25.211  0.1764 -0.0616 -0.1270
22576W        W65488   5.039   7.685  25.200 -0.1771 -0.2365  0.0649
22577W        W65489   6.497   5.424  25.352  0.0572 -0.0202  0.1720
22578W        W65490   6.329   6.989  25.908  0.0393 -0.0639 -0.0913
22579W        W65491   4.522   5.353  26.425  0.0217 -0.1656  0.0685
22580W        W65492   4.438   7.642  26.185  0.1001 -0.1264  0.2504
22581W        W65493   7.648   6.226  26.695  0.2225  0.2092  0.1477
22582W        W65494   4.935   4.002  25.129 -0.2068 -0.2420  0.1359
22583W        W65495   5.002   4.547  24.909 -0.0739  0.0862 -0.2776
22584W        W65496   2.034   7.670  25.543 -0.2717  0.0929  0.1733
22585W        W65497   6.360   4.885  26.318 -0.1756 -0.1257 -0.0271
22586W        W65498   7.409   4.815  26.259 -0.0391 -0.1838  0.3411
22587W        W65499   5.016   7.738  24.050  0.2218 -0.2370 -0.0442
22588W        W65500   7.197   3.310  25.198 -0.2609 -0.1205 -0.0550
22589W        W65501   4.789   6.473  26.892 -0.3068 -0.0872 -0.3248
22590W        W65502   4.033   7.314  28.882 -0.3098 -0.1597  0.2665
22591W        W65503   3.601   5.040  22.020 -0.0946  0.0056 -0.0685
22592W        W65504   5.255   6.103  27.754 -0.1806  0.0639  0.0932
22593W        W65505   4.469   7.780  25.321 -0.1379 -0.0084 -0.1942
22594W        W65506   4.287   5.600  24.515  0.0216  0.1637 -0.2547
22595W        W65507   6.382   7.075  25.434  0.2135  0.0970 -0.4680
22596W        W65508   5.874   4.889  24.856 -0.0564  0.0759 -0.0734
22597W        W65509   8.073   7.787  25.716 -0.1563 -0.4452 -0.2195
22598W        W65510   4.480   3.798  25.317 -0.1430 -0.0333  0.1380
22599W        W65511   7.545   3.883  23.577  0.2652  0.0265  0.2234
22600W        W65512   6.530   3.279  25.043 -0.1701 -0.0123  0.0498
22601W        W65513   3.135   7.048  28.533  0.0898 -0.0972 -0.4099
22602W        W65514   3.697   6.103  21.766  0.0923 -0.0076  0.0006
22603W        W65515   4.489   7.137  24.822 -0.0034 -0.2070  0.0985
22604W        W65516   3.359   6.055  24.807  0.4533 -0.0293 -0.3567
22605W        W65517   6.320   2.736  26.873  0.0386 -0.1994  0.2286
22606W        W65518   4.408   6.006  26.110 -0.1798  0.1467 -0.2126
22607W        W65519   3.634   5.612  24.917 -0.3698 -0.4544  0.1761
22608W        W65520   5.388   4.700  23.533  0.0525  0.0997  0.0420
22609W        W65521   7.220   6.960  23.796 -0.2639  0.3522  0.2698
22610W        W65522   5.035   4.577  24.254  0.0060 -0.5441  0.0171
22611W        W65523   4.487   3.948  24.749 -0.0134  0.0146  0.0033
22612W        W65524   6.696   6.513  25.120 -0.1003  0.0094  0.0960
22613W        W65525   5.495   7.793  24.647 -0.1055  0.0578 -0.3864
22614W        W65526   4.448   4.642  23.542 -0.1970 -0.4363 -0.0491
22615W        W65527   6.916   4.782  27.184 -0.1037  0.0540 -0.0225
22616W        W65528   4.364   5.687  24.020  0.0294 -0.0134  0.1180
22617W        W65529   5.230   4.241  27.280 -0.2281 -0.0630  0.1092
22618W        W65530   3.953   4.221  27.355  0.2253  0.1348  0.0841
22619W        W65531   3.703   4.404  22.714 -0.2340  0.0182 -0.0291
22620W        W65532   5.316   3.876  25.392 -0.0323  0.1082 -0.0168
22621W        W65533   7.148   6.194  25.087 -0.0006 -0.1934  0.1616
22622W        W65534   5.189   8.668  23.638 -0.1113 -0.2858 -0.0779
22623W        W65535   4.928   5.296  27.699 -0.1637 -0.0325 -0.0023
22624W        W65536   4.898   6.975  26.781  0.2303  0.2213  0.1607
22625W        W65537   4.569   4.331  26.652 -0.3687  0.1558  0.1336
22626W        W65538   6.071   6.221  23.648  0.1057 -0.2542 -0.1717
22627W        W65539   3.969   6.111  27.451  0.0687  0.1222  0.1737
22628W        W65540   9.655   6.669  24.861 -0.0386  0.1966 -0.3853
22629W        W65541   6.657   4.891  26.724  0.3164 -0.0198 -0.0717
22630W        W65542   4.809   4.013  25.612 -0.0180  0.0809 -0.1398
22631W        W65543   3.468   3.817  26.641  0.2021 -0.1276 -0.3480
22632W        W65544   3.915   7.100  26.926  0.1421 -0.0292 -0.1804
22633W        W65545   7.178   4.841  26.696  0.0977  0.0941  0.0851
22634W        W65546   3.846   4.486  23.992  0.3959 -0.2475 -0.0301
22635W        W65547   7.292   4.393  25.538 -0.0197 -0.1193  0.1511
22636W        W65548   5.572   5.271  25.655  0.1339  0.1653 -0.0590
22637W        W65549   4.441   4.840  26.702 -0.2154 -0.4915 -0.0047
22638W        W65550   7.210   5.682  24.885 -0.0100  0.0174 -0.0696
22639W        W65551   5.928   6.749  25.371 -0.1051  0.1667  0.2507
22640W        W65552   5.889   4.934  25.314  0.1076 -0.0870 -0.1152
22641W        W65553   6.134   6.118  26.764 -0.0715  0.4361 -0.0039
22642W        W65554   6.552   4.902  24.730  0.1223  0.2338  0.0298
22643W        W65555   6.910   5.029  26.201 -0.2792 -0.0696  0.1132
22644W        W65556   5.346   6.314  26.410 -0.0232 -0.0222 -0.0264
22645W        W65557   6.265   6.564  27.121  0.1989 -0.4219  0.1625
22646W        W65558   7.110   6.703  26.529  0.2825 -0.0854 -0.2844
22647W        W65559   5.941   6.230  26.300 -0.0453 -0.1956 -0.0313
22648W        W65560   4.496   3.459  25.769  0.1874  0.2094 -0.0874
22649W        W65561   5.364   4.767  25.565 -0.3845  0.1609 -0.0796
22650W        W65562   4.286   6.889  25.834  0.1716 -0.2709  0.0172
22651W        W65563   5.486   5.081  26.133  0.0817  0.1115 -0.3011
22652W        W65564   5.233   5.569  25.241 -0.0647  0.1590  0.0074
22653W        W65565   6.804   4.421  24.115  0.1093  0.1543  0.0828
22654W        W65566   6.337   8.022  27.517  0.1291 -0.2847 -0.1950
22655W        W65567   5.148   4.341  25.422 -0.2558  0.1405 -0.0665
22656W        W65568   5.898   5.788  28.540 -0.1266  0.2312  0.0379
22657W        W65569   5.597   5.903  27.354  0.0372 -0.0136 -0.0787
22658W        W65570   7.636   2.057  27.394  0.1660 -0.2665  0.1701
22659W        W65571   7.344   5.433  26.618  0.1830 -0.0456  0.3004
22660W        W65572   5.030   3.341  27.347 -0.0576  0.0712 -0.0790
22661W        W65573   5.607   6.306  28.473  0.0262 -0.0774  0.0719
22662W        W65574   5.783   3.954  30.625 -0.0160 -0.0584  0.0534
22663W        W65575   6.302   7.294  29.388 -0.1080 -0.2656 -0.0143
22664W        W65576   6.503   6.590  28.588  0.1935  0.1121  0.1859
22665W        W65577   5.305   4.099  27.799 -0.1294  0.0061  0.1283
22666W        W65578   5.057   5.330  28.638  0.0025  0.3964 -0.1472
22667W        W65579   4.615   7.243  29.251  0.1140  0.4776  0.0574
22668W        W65580   4.614   3.047  27.454  0.4087 -0.1838  0.3012
22669W        W65581   1.271   2.738  28.752 -0.0374 -0.1577 -0.0094
22670W        W65582   6.686   5.419  27.811 -0.0661 -0.3613 -0.1321
22671W        W65583   2.734   6.475  28.188 -0.0917  0.3437 -0.4799
22672W        W65584   3.989   5.103  30.331  0.1555 -0.1669  0.0337
22673W        W65585   5.869   3.880  28.408  0.0280 -0.1956  0.0066
22674W        W65586   4.154   5.932  28.792 -0.0044 -0.0157  0.0019
22675W        W65587   4.518   3.790  29.622 -0.0142  0.2275  0.0058
22676W        W65588   7.188   5.007  30.449 -0.1184  0.1845 -0.0079
22677W        W65589   5.401   6.547  28.060 -0.0912  0.1038  0.0486
22678W        W65590   3.952   4.702  27.458  0.1444 -0.0501 -0.0153
22679W        W65591   4.150   5.500  29.972  0.2810 -0.0284 -0.1070
22680W        W65592   4.326   5.396  31.025 -0.0685  0.2373  0.0365
22681W        W65593   8.222   4.583  28.375 -0.1380  0.0224 -0.0365
22682W        W65594   6.354   5.597  28.372  0.2342 -0.0451  0.0490
22683W        W65595   4.613   7.579  28.380 -0.0230 -0.3532  0.1315
22684W        W65596   5.278   7.424  28.361 -0.0507 -0.2140  0.0954
22685W        W65597   7.666   4.740  28.257 -0.1270  0.1860 -0.3459
22686W        W65598   5.003   5.963  30.177 -0.1234 -0.0158 -0.3946
22687W        W65599   3.389   7.116  30.228  0.0370 -0.2528 -0.2911
22688W        W65600   4.470   6.659  28.188  0.1537 -0.1535  0.1052
22689W        W65601   7.975   5.985  29.004  0.0805  0.0077 -0.0483
22690W        W65602   7.930   8.335  30.285  0.1140  0.1464 -0.2150
22691W        W65603   5.666   7.689  30.177  0.1055  0.0303  0.1098
22692W        W65604   4.214   5.238  26.973 -0.0766  0.1339  0.0698
22693W        W65605   5.465   7.101  29.811 -0.0530  0.0528 -0.2024
22694W        W65606   4.838   7.231  30.568 -0.2376 -0.0448  0.1321
22695W        W65607   6.041   6.169  30.407 -0.2313 -0.0955 -0.2737
22696W        W65608   6.621   4.327  27.534 -0.0537 -0.1042  0.1471
22697W        W65609   4.820   5.417  28.206  0.0850 -0.0650  0.1003
22698W        W65610   5.740   5.427  27.577 -0.2906 -0.1889  0.1321
22699W        W65611   6.190   7.672  30.234 -0.0404 -0.0439 -0.1167
22700W        W65612   5.075   6.937  30.156 -0.1511 -0.2473 -0.1807
22701W        W65613   6.168   2.600  30.195 -0.0114  0.2148  0.1652
22702W        W65614   4.022   5.491  27.838 -0.1481  0.1167  0.1715
22703W        W65615   7.562   4.479  26.730  0.0456 -0.2100 -0.1316
22704W        W65616   5.781   5.321  26.694  0.2823  0.0755 -0.1452
22705W        W65617   5.691   3.987  26.814  0.0312  0.0114  0.0112
22706W        W65618   5.274   2.581  29.166 -0.1161 -0.2781  0.1545
22707W        W65619   4.980   7.485  28.849  0.0021  0.1698  0.1439
22708W        W65620   6.068   4.146  29.281 -0.4547 -0.0266  0.4037
22709W        W65621   7.481   4.950  30.002  0.0322 -0.1535 -0.4595
22710W        W65622   4.961   3.856  27.464 -0.1066  0.1524 -0.2237
22711W        W65623   6.371   5.106  29.560 -0.1001 -0.0715 -0.1903
22712W        W65624   5.109   6.279  28.558 -0.3769 -0.0432  0.0476
22713W        W65625   3.419   4.503  30.490  0.0239 -0.1555 -0.1077
22714W        W65626   8.281   7.102  28.643 -0.0413  0.0871  0.0457
22715W        W65627   6.856   6.319  28.930 -0.0527 -0.2101  0.1097
22716W        W65628   7.388   7.403  28.842  0.0240  0.1386  0.3263
22717W        W65629   5.299   3.728  28.560 -0.2724  0.2281  0.1000
22718W        W65630   4.609   6.057  30.964  0.0023 -0.3005  0.0209
22719W        W65631   4.725   4.420  31.011  0.1331 -0.0188  0.0347
22720W        W65632   4.706   3.562  27.038  0.2529  0.1700  0.0291
22721W        W65633   6.950   5.914  31.471 -0.0879 -0.1155 -0.0534
22722W        W65634   3.903   6.618  31.032  0.1755  0.2608 -0.1302
22723W        W65635   7.210   4.299  27.937  0.1110  0.1454 -0.3078
22724W        W65636   5.073   5.639  29.119 -0.0661 -0.0742  0.3559
22725W        W65637   7.728   5.691  31.301 -0.2037 -0.1575 -0.1465
22726W        W65638   5.423   2.785  27.710  0.2606  0.2723 -0.0792
22727W        W65639   7.603   4.218  28.877  0.0951 -0.0929 -0.2557
22728W        W65640   7.108   4.513  30.603 -0.2688  0.1990 -0.0736
22729W        W65641   4.848   5.529  26.739 -0.0538  0.0176  0.0104
22730W        W65642   4.891   4.970  26.795 -0.2025  0.1193  0.1958
22731W        W65643   7.844   6.615  30.454 -0.0389  0.0762 -0.0487
22732W        W65644   7.070   4.282  27.375  0.1165 -0.0982 -0.0205
22733W        W65645   4.175   7.072  29.545 -0.3847 -0.1787 -0.2890
22734W        W65646   5.460   4.575  31.278  0.0601 -0.2377 -0.0395
22735W        W65647   6.318   5.951  29.971 -0.0538 -0.1515  0.2883
22736W        W65648   3.775   6.203  29.363 -0.1530 -0.1260 -0.3624
22737W        W65649   2.309   5.726  29.530  0.0446 -0.1703 -0.1606
22738W        W65650   4.543   6.603  29.731  0.2285 -0.2744  0.0995
22739W        W65651   2.647   4.751  31.227 -0.0453 -0.0521 -0.0502
22740W        W65652   5.530   5.821  29.432  0.4489 -0.3179  0.0332
22741W        W65653   7.195   2.651  27.276 -0.2039 -0.3808  0.0249
22742W        W65654   3.805   4.211  31.484 -0.1904 -0.1009 -0.1765
22743W        W65655   6.181   2.752  29.318 -0.3258  0.0006  0.2106
22744W        W65656   4.579   5.855  28.185  0.1541 -0.4804 -0.4195
22745W        W65657   5.607   7.331  27.394  0.0033  0.0157 -0.1379
22746W        W65658   6.141   4.401  27.332  0.1119  0.2158 -0.2534
22747W        W65659   7.169   7.388  27.421 -0.3208 -0.2761 -0.2791
22748W        W65660   3.901   4.570  30.314 -0.0000 -0.1799 -0.0313
22749W        W65661   4.164   5.137  28.842 -0.2864 -0.0639  0.0715
22750W        W65662   4.973   3.259  30.688  0.2714  0.2185  0.0201
22751W        W65663   4.380   3.947  30.786  0.1343 -0.3225  0.0362
22752W        W65664   6.332   4.496  29.550 -0.0804 -0.1038 -0.1394
22753W        W65665   2.730   4.154  28.297 -0.0193  0.1230  0.2367
22754W        W65666   7.647   3.642  26.881  0.0075 -0.2023 -0.0212
22755W        W65667   5.647   5.926  28.146  0.1606  0.1168 -0.0676
22756W        W65668   3.827   5.493  28.729  0.0686  0.0217  0.2630
22757W        W65669   6.082   5.245  29.989 -0.0332 -0.3803 -0.3788
22758W        W65670   5.676   6.310  27.624 -0.3537 -0.3885 -0.1926
22759W        W65671   7.094   5.685  29.479  0.0113 -0.0285 -0.2269
22760W        W65672   6.366   6.401  29.103  0.0969  0.1343 -0.0800
22761W        W65673   5.383   3.117  30.351  0.0342 -0.0329  0.2072
22762W        W65674   4.501   5.456  27.838 -0.1394 -0.2066 -0.0227
22763W        W65675   4.653   7.167  29.983  0.0006  0.1169 -0.1045
22764W        W65676   5.046   6.497  29.000  0.1462  0.2988 -0.0157
22765W        W65677   4.583   3.542  27.542  0.1926 -0.2813  0.0979
22766W        W65678   6.438   7.387  29.897 -0.1466  0.0967  0.1898
22767W        W65679   6.641   5.277  27.099  0.3302  0.0643 -0.0894
22768W        W65680   3.919   6.730  30.530  0.3436 -0.3110 -0.1648
22769W        W65681   7.843   4.008  30.235  0.0374  0.0569  0.0274
22770W        W65682   5.990   5.244  28.559  0.1731 -0.2210  0.0867
22771W        W65683   5.698   4.476  28.711  0.3096  0.1043  0.2066
22772W        W65684   4.121   4.588  26.423  0.0192 -0.2163  0.2017
22773W        W65685   5.906   6.486  28.132 -0.0494 -0.0279 -0.1790
22774W        W65686   3.735   6.155  26.836  0.1383 -0.1258 -0.1373
22775W        W65687   3.384   4.497  29.546 -0.0185  0.0712 -0.1485
22776W        W65688   4.669   6.737  29.259 -0.0659  0.1033 -0.1690
22777W        W65689   6.823   3.965  27.099 -0.1005  0.1435 -0.2200
22778W        W65690   4.467   5.352  31.518  0.1738  0.2802 -0.1845
22779W        W65691   6.301   4.914  28.695  0.1423  0.0224 -0.3698
22780W        W65692   4.201   5.166  27.487  0.3572 -0.3447 -0.1899
22781W        W65693   5.244   6.428  30.367  0.3496 -0.3020  0.4270
22782W        W65694   5.958   3.483  27.570  0.2353 -0.2730  0.0004
22783W        W65695   6.780   3.096  26.153  0.0417 -0.1107  0.1219
22784W        W65696   5.627   5.496  30.724 -0.0834  0.0539 -0.3953
22785W        W65697   6.849   7.244  29.153 -0.6471  0.0171 -0.2205
22786W        W65698   6.297   3.927  27.134 -0.0184  0.2376 -0.3676
22787W        W65699   5.860   3.638  26.430  0.1946  0.0691 -0.3465
22788W        W65700   5.174   5.550  30.441  0.3772  0.2724 -0.1142
22789W        W65701   6.168   6.079  28.219 -0.0660  0.1006 -0.0583
22790W        W65702   5.047   5.855  29.620  0.1671 -0.0378 -0.2243
22791W        W65703   7.155   3.670  26.658 -0.0938  0.0749  0.1039
22792W        W65704   8.068   6.607  29.576  0.3085 -0.1365  0.1925
22793W        W65705   2.997   6.560  30.853 -0.0174  0.1745 -0.0675
22794W        W65706   5.777   7.120  29.306 -0.2683  0.0515  0.0260
22795W        W65707   5.777   6.225  29.991  0.0038 -0.0194  0.1747
22796W        W65708   5.410   3.930  29.325 -0.0304  0.0625  0.1407
22797W        W65709   3.845   4.992  27.902 -0.1087 -0.1058  0.1926
22798W        W65710   6.441   4.268  30.130  0.3988 -0.1484  0.0676
22799W        W65711   4.167   6.846  28.610 -0.1131  0.2927 -0.0951
22800W        W65712   6.063   5.232  30.506  0.1337  0.1846  0.1794
22801W        W65713   5.412   5.222  29.338  0.1148  0.1455 -0.0041
22802W        W65714   6.753   5.378  31.258 -0.1355  0.0501 -0.1685
22803W        W65715   7.304   3.969  30.327  0.0071  0.0269 -0.1553
22804W        W65716   7.660   5.765  27.417 -0.3069 -0.0153 -0.2584
22805W        W65717   5.628   5.033  27.180  0.4270 -0.0058 -0.2200
22806W        W65718   5.648   6.044  26.722 -0.1402  0.1942  0.2481
22807W        W65719   6.168   3.662  29.544  0.1270  0.0199  0.1416
22808W        W65720   4.814   2.473  30.694  0.0175 -0.0773 -0.0769
22809W        W65721   3.496   6.347  30.749  0.0997  0.1547 -0.0307
22810W        W65722   5.967   7.244  29.755 -0.2166 -0.1347 -0.1967
22811W        W65723   6.082   6.648  27.711  0.0457  0.2849  0.1039
22812W        W65724   5.349   4.174  30.629 -0.0470  0.2253  0.0636
22813W        W65725   6.275   3.312  26.887  0.1594  0.0727 -0.1564
22814W        W65726   4.725   5.430  27.234  0.2826 -0.0148  0.1258
22815W        W65727   5.199   5.654  27.468 -0.0780 -0.1252 -0.1384
22816W        W65728   5.008   3.710  29.695 -0.2238  0.3426  0.0452
22817W        W65729   6.033   6.307  28.759  0.1588  0.1406  0.1918
22818W        W65730   4.164   6.342  28.547 -0.2065  0.1897  0.0727
22819W        W65731   6.196   6.187  29.522  0.2739 -0.2314  0.2275
22820W        W65732   3.882   5.780  29.150 -0.0754  0.3646  0.0853
22821W        W65733   6.083   2.856  28.169  0.0722 -0.1829 -0.0576
22822W        W65734   2.694   5.528  29.739  0.1009  0.0615  0.1498
22823W        W65735   4.663   3.821  26.649 -0.0946  0.1977 -0.1167
22824W        W65736   3.615   3.896  28.087  0.0432 -0.1381 -0.2390
22825W        W65737   5.661   4.376  27.550 -0.0102  0.2942 -0.2299
22826W        W65738   6.564   4.424  26.982  0.1120  0.2057 -0.0203
22827W        W65739   4.777   3.827  31.031  0.3668  0.1307  0.2818
22828W        W65740   6.051   3.573  28.077 -0.0963  0.1546  0.2581
22829W        W65741   3.250   6.551  31.771 -0.2423 -0.1968  0.0127
22830W        W65742   5.473   5.244  28.423 -0.2878 -0.1327 -0.1282
22831W        W65743   7.020   2.436  26.877  0.0029 -0.3771 -0.1733
22832W        W65744   5.977   6.707  29.121 -0.1695 -0.2059  0.5189
22833W        W65745   4.759   5.533  30.094 -0.0486 -0.2249 -0.2030
22834W        W65746   3.243   5.771  28.644 -0.5574  0.4657  0.0283
22835W        W65747   6.540   4.937  29.100 -0.2881 -0.0070 -0.3000
22836W        W65748   4.720   3.809  28.605 -0.0279  0.0965  0.1568
22837W        W65749   4.652   5.600  29.387 -0.4946  0.0117 -0.1501
22838W        W65750   5.256   6.629  29.829 -0.1434 -0.1552  0.2139
22839W        W65751   3.644   4.481  28.581 -0.1625  0.1993  0.0125
22840W        W65752   4.638   5.089  28.578  0.0042 -0.2382  0.2205
22841W        W65753   4.874   4.010  30.575  0.0365 -0.1277 -0.0039
22842W        W65754   5.714   5.486  28.885 -0.0514 -0.0833 -0.0876
22843W        W65755   6.030   5.759  29.319  0.0760  0.0251 -0.1275
22844W        W65756   5.193   4.273  28.375  0.0288  0.2204 -0.2192
22845W        W65757   6.935   5.442  30.641 -0.2932  0.0912  0.0035
22846W        W65758   7.058   6.125  30.703  0.1892 -0.0446 -0.1778
22847W        W65759   5.616   5.152  29.794 -0.2250  0.0541 -0.0772
22848W        W65760   5.319   6.129  29.884  0.0081 -0.1397 -0.2182
22849W        W65761   5.713   4.266  29.586  0.1742 -0.2758 -0.1243
22850W        W65762   8.435   6.406  28.333 -0.0323  0.2077  0.2056
22851W        W65763   6.687   5.343  28.762  0.3163 -0.0115  0.0150
22852W        W65764   3.681   5.289  26.826 -0.3359  0.0189 -0.1148
22853W        W65765   4.945   5.102  29.531  0.2869  0.4202 -0.1228
22854W        W65766   4.764   6.077  29.146 -0.3722  0.2261  0.1101
22855W        W65767   5.115   3.614  30.281  0.5270  0.0320 -0.5114
22856W        W65768   3.557   6.356  29.810  0.0333 -0.0761  0.0321
22857W        W65769   2.800   5.819  29.034 -0.0415  0.0920  0.0863
22858W        W65770   4.863   6.416  30.066  0.0858 -0.2872 -0.0186
22859W        W65771   6.445   2.554  27.823 -0.0051  0.0493 -0.0960
22860W        W65772   5.761   6.644  27.225 -0.0151  0.0267  0.3562
22861W        W65773   5.334   4.733  29.695  0.0261 -0.4281  0.0738
22862W        W65774   7.161   4.369  29.126 -0.4511 -0.1514 -0.1037
22863W        W65775   7.132   5.309  27.106  0.1889  0.0251  0.1658
22864W        W65776   6.688   5.808  30.958 -0.1709  0.2063  0.0227
22865W        W65777   4.363   4.344  29.786  0.0109  0.0188  0.2618
22866W        W65778   7.894   7.394  28.467  0.0994 -0.2071 -0.0294
22867W        W65779   4.075   6.417  29.723 -0.0436 -0.1039 -0.2075
22868W        W65780   6.843   5.906  29.832 -0.2532 -0.0420  0.0218
22869W        W65781   5.657   5.391  30.242 -0.0709  0.3456 -0.0283
22870W        W65782   6.183   4.195  28.198  0.0207 -0.0957  0.0659
22871W        W65783   5.398   4.700  28.369  0.2450 -0.0955  0.0617
22872W        W65784   3.792   5.839  29.684 -0.1252 -0.0931 -0.0215
22873W        W65785   7.766   6.133  29.521  0.0237 -0.0994  0.1133
22874W        W65786   5.373   5.433  27.995 -0.0370  0.0087 -0.1013
22875W        W65787   6.678   4.228  28.584 -0.1608  0.1747 -0.1081
22876W        W65788   5.228   3.701  30.805 -0.0617  0.2845  0.1863
22877W        W65789   6.752   4.672  28.721  0.4090 -0.1996  0.0670
22878W        W65790   5.131   5.896  28.206 -0.0423 -0.1399 -0.2288
22879W        W65791   3.962   5.792  28.245 -0.0080  0.2820 -0.0822
22880W        W65792   5.694   3.773  29.808 -0.2713 -0.0256 -0.1293
22881W        W65793   6.987   6.580  27.918 -0.0453  0.1251  0.0572
22882W        W65794   5.922   3.621  29.043 -0.3261  0.1586 -0.2358
22883W        W65795   6.436   4.755  29.953 -0.2805 -0.2674 -0.3843
22884W        W65796   6.465   4.605  28.326  0.2524  0.0498  0.0886
22885W        W65797   4.773   5.090  30.371 -0.2637 -0.0121  0.0057
22886W        W65798   5.134   4.188  31.096 -0.1735  0.0612  0.2041
22887W        W65799   5.983   7.307  28.376  0.0997 -0.1654 -0.0391
22888W        W65800   6.601   2.539  27.295  0.3097 -0.1284 -0.2005
22889W        W65801   6.893   3.776  27.604  0.3174 -0.2527  0.1338
22890W        W65802   7.210   4.163  26.489 -0.1768  0.1245  0.4161
22891W        W65803   6.464   4.796  27.505 -0.0133 -0.2969  0.0915
22892W        W65804   5.681   4.051  28.941 -0.0421  0.2439 -0.1554
22893W        W65805   6.695   4.600  30.382  0.0691  0.0441  0.2875
22894W        W65806   4.725   4.245  28.311 -0.3143 -0.1656  0.0350
22895W        W65807   7.035   4.829  29.140  0.2919 -0.1943 -0.2164
22896W        W65808   5.612   6.950  28.340 -0.1472  0.0249 -0.0737
22897W        W65809   6.260   5.780  28.877  0.0040  0.0889  0.3210
22898W        W65810   5.805   3.964  27.829  0.0540 -0.1045 -0.0241
22899W        W65811   4.242   3.626  30.109  0.0508  0.2438  0.0912
22900W        W65812   4.371   5.390  30.494 -0.1130 -0.0405  0.0900
22901W        W65813   5.117   4.991  28.130 -0.0700  0.1814 -0.0963
22902W        W65814   5.239   4.583  27.898 -0.3525 -0.1065  0.1886
22903W        W65815   6.111   6.001  27.283 -0.2557  0.3182 -0.1038
22904W        W65816   6.822   4.033  30.409  0.1030  0.0445 -0.1121
22905W        W65817   5.082   2.149  27.263 -0.0606  0.0006 -0.1698
22906W        W65818   7.329   4.642  29.613 -0.1911 -0.1933 -0.3169
22907W        W65819   2.922   6.299  29.145  0.0160 -0.3435  0.1317
22908W        W65820   5.570   4.593  29.246  0.3572  0.3616  0.1250
22909W        W65821   4.255   6.860  30.032  0.0136  0.2552 -0.1945
22910W        W65822   4.042   4.890  30.832  0.1465 -0.2231 -0.3547
22911W        W65823   4.923   6.351  29.507 -0.0961  0.0115  0.2978
22912W        W65824   5.534   4.473  30.058 -0.0477 -0.2222  0.1277
22913W        W65825   6.446   3.425  27.391  0.2195 -0.0818 -0.1036
22914W        W65826   5.294   6.109  29.155  0.1151 -0.3491 -0.2856
22915W        W65827   8.084   4.752  30.264 -0.0218  0.3037 -0.1433
22916W        W65828   6.290   5.570  29.674 -0.4548  0.1369 -0.1108
22917W        W65829   3.271   5.011  29.655  0.1699 -0.0594 -0.2050
22918W        W65830   6.457   7.089  28.526 -0.1234  0.0486 -0.0817
22919W        W65831   7.307   6.564  28.834  0.0620 -0.0537 -0.5087
22920W        W65832   4.487   4.758  29.480  0.2364 -0.0989 -0.1320
22921W        W65833   4.952   5.046  31.662 -0.1477 -0.0180 -0.1076
22922W        W65834   6.426   5.381  30.808  0.1670  0.0743 -0.1644
22923W        W65835   5.980   4.725  28.380  0.2881 -0.2990 -0.0306
22924W        W65836   5.134   3.385  29.281 -0.1512  0.1153 -0.1915
22925W        W65837   4.328   6.576  26.516  0.2788 -0.1588 -0.0222
22926W        W65838   4.731   6.436  31.273 -0.2230 -0.0515 -0.1490
22927W        W65839   3.719   5.754  31.205 -0.0041 -0.0534  0.1830
22928W        W65840   3.687   7.144  28.436 -0.2210 -0.1855 -0.2735
22929W        W65841   5.773   5.012  28.016 -0.0848  0.0015 -0.0920
22930W        W65842   6.692   6.001  26.559  0.1828  0.0959 -0.2147
22931W        W65843   6.374   7.597  29.011 -0.1384 -0.0786 -0.2802
22932W        W65844   5.541   3.631  28.094 -0.2204  0.2119 -0.2434
22933W        W65845   3.477   7.326  28.816 -0.1652  0.0456 -0.0444
22934W        W65846   2.664   7.011  27.381  0.0971 -0.1902  0.0197
22935W        W65847   6.519   6.968  27.706  0.0422 -0.1355 -0.0974
22936W        W65848   3.803   6.759  29.408  0.0242 -0.1838 -0.2609
22937W        W65849   6.725   5.415  29.306  0.0807  0.1609  0.1410
22938W        W65850   9.272   4.196  27.039 -0.0263 -0.2567  0.3609
22939W        W65851   6.204   5.380  27.712 -0.0841 -0.0291 -0.0752
22940W        W65852   6.771   4.716  27.927 -0.1278 -0.0643 -0.1504
22941W        W65853   7.559   7.507  29.331  0.0301  0.0722 -0.0896
22942W        W65854   4.728   4.042  30.041 -0.0091  0.0876  0.1327
22943W        W65855   6.703   4.009  26.627 -0.2595  0.0629 -0.0676
22944W        W65856   4.336   4.779  30.160  0.2782 -0.2000 -0.0186
22945W        W65857   7.329   2.947  31.175  0.0767 -0.0211  0.2885
22946W        W65858   4.621   7.654  30.225 -0.0783  0.0088 -0.0907
22947W        W65859   6.710   7.049  29.602 -0.1628  0.2517 -0.1206
22948W        W65860   3.766   4.424  28.026 -0.2843 -0.1426 -0.0725
22949W        W65861   6.186   4.507  27.819 -0.0426  0.3110  0.1618
22950W        W65862   7.110   2.636  29.890  0.1973 -0.0544 -0.1575
22951W        W65863   3.951   4.795  26.911 -0.1882 -0.1564 -0.0612
22952W        W65864   6.120   4.060  29.814  0.1033  0.2630 -0.1139
22953W        W65865   3.423   5.665  29.121 -0.1800 -0.0202  0.0421
22954W        W65866   3.796   6.740  29.990  0.0808  0.0319  0.1151
22955W        W65867   5.543   6.956  28.860  0.0866  0.1168  0.2017
22956W        W65868   4.326   5.106  28.182  0.2144  0.4070  0.0738
22957W        W65869   7.398   6.627  27.611 -0.1569  0.0493  0.0925
22958W        W65870   4.806   5.244  31.183 -0.1134 -0.1407  0.0100
22959W        W65871   7.441   3.848  29.191  0.0379  0.0263 -0.2374
22960W        W65872   4.754   5.209  29.048  0.0166 -0.0796  0.0269
22961W        W65873   6.496   3.686  27.996 -0.1755  0.0472 -0.1210
22962W        W65874   6.827   5.620  28.284 -0.1913 -0.5655 -0.0792
22963W        W65875   4.295   4.380  29.139  0.0006  0.0390  0.1935
22964W        W65876   5.155   4.647  27.031 -0.4058 -0.0211  0.1876
22965W        W65877   7.009   6.173  29.436 -0.1882 -0.1874  0.0240
22966W        W65878   6.973   3.406  25.700  0.0104 -0.2371 -0.2026
22967W        W65879   8.069   9.649  30.135 -0.0034  0.2622 -0.0413
22968W        W65880   4.258   5.501  28.489  0.1332 -0.2392 -0.1435
22969W        W65881   5.463   2.913  28.220  0.0719  0.2506 -0.3595
22970W        W65882   4.927   4.695  28.539 -0.1286 -0.0272 -0.5948
22971W        W65883   5.729   4.991  28.883 -0.0972  0.1418  0.3473
22972W        W65884   6.684   6.527  29.616  0.1623  0.0966  0.2743
22973W        W65885   5.219   4.977  28.929  0.2771 -0.2568  0.2115
22974W        W65886   8.520   6.696  27.425  0.0264 -0.3011  0.1793
22975W        W65887   8.769   4.419  29.753 -0.1619  0.0052  0.1724
22976W        W65888   6.218   7.760  28.040 -0.0080 -0.2789  0.0422
22977W        W65889   7.287   5.613  27.980 -0.4345 -0.0782 -0.0862
22978W        W65890   5.312   7.263  29.209 -0.1059  0.2883  0.0830
22979W        W65891   4.218   4.145  30.291 -0.1362  0.3498  0.2143
22980W        W65892   8.393   7.936  30.207  0.0115 -0.1368 -0.1845
22981W        W65893   8.088   7.626  30.535  0.2136  0.1320 -0.1251
22982W        W65894   4.882   4.129  26.328 -0.1209  0.0880 -0.2960
22983W        W65895   4.739   5.702  28.742 -0.0319 -0.2284  0.2719
22984W        W65896   3.129   6.172  30.443 -0.0784 -0.0660 -0.1973
22985W        W65897   7.364   4.656  28.710 -0.0279  0.1259  0.2275
22986W        W65898   7.315   3.216  29.700  0.1105 -0.2008 -0.0336
22987W        W65899   6.027   7.681  27.236 -0.2418  0.1360  0.0803
22988W        W65900   6.979   3.153  29.316  0.1771 -0.1689 -0.0500
22989W        W65901   7.039   7.679  29.156 -0.1061  0.1242 -0.1829
22990W        W65902   4.838   6.541  31.874 -0.2126  0.0382 -0.1239
22991W        W65903   3.264   6.203  27.924 -0.0234 -0.1195  0.2082
22992W        W65904   5.820   5.622  29.746 -0.2650  0.3117 -0.1772
22993W        W65905   4.941   7.016  28.935  0.1646 -0.2674  0.2283
22994W        W65906   5.709   7.759  28.273  0.0656 -0.2480  0.1072
22995W        W65907   6.260   6.783  29.515 -0.2438  0.2671 -0.0907
22996W        W65908   4.957   4.629  29.216  0.2296  0.1292 -0.1831
22997W        W65909   7.632   6.157  28.702  0.5740 -0.0597 -0.1122
22998W        W65910   5.746   3.939  27.350 -0.0736  0.1395  0.1238
22999W        W65911   7.144   3.517  27.178  0.2987 -0.0742 -0.0647
23000W        W65912   7.589   3.635  28.743 -0.0013  0.0285 -0.3003
23001W        W65913   4.180   5.352  29.459 -0.1378 -0.2724  0.0493
23002W        W65914   4.344   5.533  28.991  0.1036 -0.3019 -0.0246
23003W        W65915   3.903   5.565  26.451 -0.3447 -0.1377 -0.0899
23004W        W65916   3.581   5.845  30.729 -0.3132 -0.0544 -0.1750
23005W        W65917   6.452   3.911  30.939  0.2509 -0.1970  0.0476
23006W        W65918   4.675   5.801  31.408  0.2643  0.0303  0.0671
23007W        W65919   4.054   4.613  28.804 -0.1273 -0.3158  0.0827
23008W        W65920   5.093   5.046  29.975 -0.1732  0.0049  0.1801
23009W        W65921   6.362   7.472  27.559 -0.1770  0.0852  0.3362
23010W        W65922   5.098   4.248  29.636 -0.0968 -0.0150 -0.1744
23011W        W65923   3.669   5.052  28.771  0.4132 -0.3936 -0.0497
23012W        W65924   5.569   6.789  27.658 -0.0333  0.0735 -0.4298
23013W        W65925   6.965   7.331  28.403 -0.0038 -0.0089  0.1478
23014W        W65926   5.159   3.232  27.855 -0.2207 -0.2401  0.0479
23015W        W65927   6.619   6.347  31.015 -0.0194  0.0100  0.1473
23016W        W65928   2.797   6.004  27.825 -0.1240 -0.0903  0.0437
23017W        W65929   5.689   4.916  30.235  0.1072 -0.1632 -0.1213
23018W        W65930   4.601   4.537  30.553  0.1377  0.1688 -0.0800
23019W        W65931   4.555   4.990  27.237  0.1428  0.1339 -0.0949
23020W        W65932   5.890   4.732  29.840 -0.1115  0.2884  0.0211
23021W        W65933   5.292   5.797  28.686  0.1744  0.1521 -0.0587
23022W        W65934   6.940   6.685  27.330 -0.1398 -0.2803 -0.2000
23023W        W65935   6.249   6.424  30.057  0.0053  0.1886 -0.0687
23024W        W65936   5.402   6.744  29.355  0.0541  0.1094  0.2517
23025W        W65937   3.932   2.717  30.392 -0.2096 -0.2165 -0.0778
23026W        W65938   6.449   5.923  27.832  0.1911 -0.2443 -0.1194
23027W        W65939   5.028   7.468  29.504  0.1093 -0.0834  0.2133
23028W        W65940   6.926   6.106  28.047  0.2554  0.2512  0.0094
23029W        W65941   6.634   4.390  29.077  0.0884  0.0757  0.0527
23030W        W65942   4.425   4.619  28.452 -0.0911  0.0181  0.0356
23031W        W65943   3.264   3.654  28.982  0.0574  0.4374  0.2269
23032W        W65944   3.340   5.398  30.550 -0.1481 -0.2463 -0.1862
23033W        W65945   8.431   5.785  29.005 -0.1654 -0.2096  0.4242
23034W        W65946   4.822   3.331  28.842  0.3464  0.0464 -0.2775
23035W        W65947   7.943   3.447  27.856 -0.0005 -0.0986  0.1596
23036W        W65948   5.959   4.925  27.535  0.0162 -0.0455 -0.1610
23037W        W65949   3.982   4.966  31.523 -0.1568 -0.0919  0.2047
23038W        W65950   5.931   3.052  26.655  0.1457 -0.0690 -0.4193
23039W        W65951   6.209   5.323  29.133  0.1127  0.0038  0.1330
23040W        W65952   6.117   4.604  28.979 -0.1432  0.0102  0.2677
23041W        W65953   6.612   6.062  28.485  0.1319  0.2167  0.4360
23042W        W65954   5.851   4.197  26.368 -0.1096 -0.0168 -0.1086
23043W        W65955   7.582   6.230  27.210 -0.0647  0.1828  0.2395
23044W        W65956   5.938   8.161  29.968 -0.0055 -0.4872 -0.0914
23045W        W65957   6.972   5.749  28.835  0.0692  0.4752 -0.0281
23046W        W65958   5.821   7.591  29.157 -0.2782  0.3717 -0.2382
23047W        W65959   7.191   6.938  29.663  0.2986  0.1025  0.0202
23048W        W65960   3.921   4.387  29.489 -0.1487  0.0366  0.1610
23049W        W65961   5.146   6.775  28.527  0.0266 -0.5671  0.0076
23050W        W65962   5.728   5.937  29.002  0.0805 -0.0195  0.2937
23051W        W65963   5.981   4.829  29.358 -0.1060  0.1142 -0.1184
23052W        W65964   5.248   4.311  28.967 -0.0522 -0.2510 -0.1545
23053W        W65965   4.844   2.483  27.010 -0.0488 -0.0319  0.3065
23054W        W65966   4.302   7.162  30.507 -0.1569  0.0882 -0.1499
23055W        W65967   5.968   5.863  27.739  0.0109 -0.1224 -0.0766
23056W        W65968   6.709   3.503  30.561  0.1903  0.0032 -0.1432
23057W        W65969   7.143   5.380  30.070 -0.1391 -0.3219 -0.2292
23058W        W65970   4.522   5.910  30.474  0.3280 -0.0916  0.1745
23059W        W65971   5.076   5.955  30.682  0.0552  0.1536 -0.1630
23060W        W65972   6.103   6.857  30.928  0.2878  0.1022 -0.1001
23061W        W65973   3.983   7.753   0.572  0.0991 -0.0674 -0.0396
23062W        W65974   7.500   5.819  30.731  0.0737 -0.1144  0.2374
23063W        W65975   4.661   4.123  31.747  0.1715 -0.2708  0.2371
23064W        W65976   6.743   5.335  29.847 -0.0840  0.0670 -0.1187
23065W        W65977   8.271   6.356  30.650 -0.0509  0.0429  0.0431
23066W        W65978   5.293   5.556  29.960 -0.1453 -0.3656 -0.1831
23067W        W65979   4.355   3.124  31.317 -0.3046  0.0070  0.2683
23068W        W65980   7.692   4.753  31.188  0.0210  0.1095  0.1724
23069W        W65981   4.767   4.654  29.874  0.0360  0.2201  0.0625
23070W        W65982   7.230   5.297  29.173 -0.0557 -0.1966 -0.4338
23071W        W65983   5.562   7.123  31.762  0.1881 -0.1530 -0.0084
23072W        W65984   4.164   7.389   0.101  0.1648  0.0110 -0.1268
23073W        W65985   5.656   6.430  30.663  0.0176 -0.0348 -0.1724
23074W        W65986   5.406   4.181  31.550  0.0155  0.2281  0.2681
23075W        W65987   3.925   3.885  30.968  0.1403  0.3996  0.0343
23076W        W65988   5.176   5.516  30.985  0.0726  0.0188  0.2179
23077W        W65989   3.824   7.206  30.382  0.0253  0.0533 -0.1026
23078W        W65990   7.156   4.033  30.783  0.3561 -0.4006  0.0976
23079W        W65991   6.780   4.784  29.553  0.1666 -0.0707  0.0655
23080W        W65992   5.670   4.484  30.789  0.3079 -0.1391  0.0214
23081W        W65993   6.517   4.018  31.484  0.0524  0.1051 -0.0484
23082W        W65994   3.757   4.105  30.500  0.0108 -0.0301  0.2768
23083W        W65995   3.812   7.954  31.426  0.1830 -0.2635  0.2793
23084W        W65996   5.024   4.510  31.570 -0.0765 -0.0720 -0.2061
23085W        W65997   4.774   5.514  30.701 -0.1363  0.1414 -0.3141
23086W        W65998   5.542   5.895  30.291  0.0946 -0.0974  0.2611
23087W        W65999   5.466   5.850  31.536  0.0167  0.1020 -0.0374
23088W        W66000   7.361   4.660  31.539 -0.0896 -0.4950  0.1584
23089W        W66001   6.304   3.311  29.142  0.0855  0.0445 -0.3574
23090W        W66002   4.092   4.372  30.783  0.1187 -0.0743 -0.0102
23091W        W66003   6.516   5.528  30.221  0.1821 -0.1809 -0.0705
23092W        W66004   4.981   6.829  31.380  0.5357 -0.3505  0.3966
23093W        W66005   6.059   5.661  30.300  0.3127 -0.4710  0.0592
23094W        W66006   5.297   5.049  30.463 -0.1591  0.1722  0.0132
23095W        W66007   7.939   5.614  30.512  0.1589 -0.1259  0.1200
23096W        W66008   6.864   3.037  29.930  0.0371 -0.1660 -0.2155
23097W        W66009   6.593   5.101  30.377 -0.1664 -0.1756  0.0085
23098W        W66010   5.662   3.505  30.825 -0.1310  0.2209  0.1326
23099W        W66011   5.558   6.470  28.976  0.0062 -0.3145  0.1288
23100W        W66012   4.043   3.633  30.548 -0.2506 -0.2262  0.1789
23101W        W66013   6.493   6.480  28.072  0.3035  0.3798 -0.1877
23102W        W66014   5.291   3.015  31.267 -0.0359 -0.0148  0.1420
23103W        W66015   5.051   4.554  30.285  0.0261 -0.0953  0.1407
23104W        W66016   7.461   4.519   0.016  0.0296  0.1395  0.3194
23105W        W66017   5.776   6.728  29.708  0.0528 -0.0103  0.1747
23106W        W66018   7.327   6.125  31.149  0.0885 -0.1363 -0.3076
23107W        W66019   6.274   3.423  30.768 -0.0275  0.3165 -0.2984
23108W        W66020   6.290   4.289  30.586  0.0610  0.0435 -0.0887
23109W        W66021   5.674   6.305  29.426  0.1268  0.2125 -0.1656
23110W        W66022   5.123   3.854  31.796  0.1236  0.3216 -0.2706
23111W        W66023   6.567   6.036  30.474 -0.0315 -0.2237  0.0949
23112W        W66024   7.041   7.322  30.612 -0.1357  0.0791  0.2107
23113W        W66025   4.954   7.156  31.839  0.0995  0.1934  0.1283
23114W        W66026   5.199   6.879  30.635  0.2675 -0.1188  0.0360
23115W        W66027   4.703   4.587   0.017  0.2481  0.0051  0.0240
23116W        W66028   4.182   4.437  31.790 -0.2291  0.3045  0.1156
23117W        W66029   5.914   4.730  31.182  0.5066 -0.1213  0.0778
23118W        W66030   3.207   6.495   0.550 -0.0137  0.0233 -0.2011
23119W        W66031   3.382   3.086   0.098 -0.3568 -0.1876 -0.3790
23120W        W66032   8.247   6.801  31.374 -0.1374 -0.2358 -0.0102
23121W        W66033   7.487   5.515  29.726 -0.0792  0.1349  0.2543
23122W        W66034   8.772   3.655  31.334 -0.2475 -0.1013  0.1024
23123W        W66035   5.337   9.030  19.214 -0.1392  0.1038  0.2531
23124W        W66036   3.872   9.218  17.492 -0.1908 -0.3137  0.3193
23125W        W66037   6.441   7.973  16.982 -0.3074  0.2396  0.0430
23126W        W66038   6.227   9.835  15.612 -0.0503  0.2286  0.1449
23127W        W66039   3.301   7.207  17.984 -0.0280  0.0403  0.3145
23128W        W66040   6.664   9.558  18.559  0.1223 -0.0530  0.3310
23129W        W66041   4.505   6.779  18.792 -0.1323 -0.1905  0.1556
23130W        W66042   5.653  10.101  18.104 -0.2667  0.6237  0.5035
23131W        W66043   6.185  11.512  18.874  0.4990 -0.1409  0.2257
23132W        W66044   5.279   8.403  16.744  0.2485 -0.1556 -0.2850
23133W        W66045   4.671   8.248  17.858 -0.1115 -0.0661 -0.2173
23134W        W66046   5.728   9.222  18.409 -0.1361  0.1387 -0.2947
23135W        W66047   5.085   7.274  16.410 -0.1148  0.0150  0.3970
23136W        W66048   2.705   7.695  17.800  0.1518  0.2183 -0.1676
23137W        W66049   6.312   9.668  17.904  0.5817  0.0901  0.2125
23138W        W66050   3.336  10.008  17.140 -0.0915  0.0820 -0.0476
23139W        W66051   3.870   8.420  18.475 -0.0130  0.1150  0.1593
23140W        W66052   5.025   7.646  17.831  0.2495  0.0609  0.2138
23141W        W66053   6.477   8.929  16.480 -0.2505  0.1719 -0.1630
23142W        W66054   5.343   7.148  18.529 -0.0417  0.1317 -0.0657
23143W        W66055   6.202   5.943  18.771 -0.1613  0.2741 -0.2568
23144W        W66056   3.728  10.324  17.220  0.1266 -0.0655  0.1346
23145W        W66057   3.611   9.529  16.812 -0.2051 -0.0705 -0.3109
23146W        W66058   3.283   8.369  17.593 -0.1050 -0.0060  0.0668
23147W        W66059   3.750   7.951  18.069 -0.2316 -0.1455 -0.2992
23148W        W66060   6.636   6.748  18.188 -0.0457  0.3250  0.1014
23149W        W66061   6.846   8.703  18.880 -0.0478  0.2936 -0.2157
23150W        W66062   5.733   9.564  18.028 -0.1137 -0.1259 -0.2736
23151W        W66063   5.047   9.948  16.897  0.1089 -0.1078  0.1504
23152W        W66064   5.819   8.458  19.263 -0.2666 -0.0130  0.1661
23153W        W66065   2.964   9.054  17.308  0.0999 -0.1606  0.1928
23154W        W66066   2.568  12.047  18.098  0.1477 -0.0904  0.5154
23155W        W66067   4.853   9.337  18.478  0.1704 -0.4930  0.1013
23156W        W66068   7.132  10.617  17.380 -0.2020  0.1525 -0.1733
23157W        W66069   5.904  11.856  18.490  0.0394  0.2445 -0.1959
23158W        W66070   4.742  10.320  19.513 -0.5348  0.3731 -0.3507
23159W        W66071   2.514   9.738  15.672 -0.5133 -0.1258  0.1174
23160W        W66072   4.885  10.798  19.791  0.2457  0.5030  0.0430
23161W        W66073   4.206   9.462  18.514 -0.0078  0.1807  0.0951
23162W        W66074   5.017   7.530  18.894 -0.2286 -0.2384  0.0251
23163W        W66075   6.058   8.254  17.105 -0.0648  0.1033  0.2160
23164W        W66076   4.811   9.434  16.157 -0.1989 -0.0031 -0.0885
23165W        W66077   6.587   8.130  17.510  0.2299  0.1496  0.3212
23166W        W66078   4.409   9.453  20.299 -0.2898  0.1617 -0.0360
23167W        W66079   4.597   9.816  18.552  0.2487  0.0123 -0.4543
23168W        W66080   6.090   8.534  20.086  0.1745 -0.4355  0.3415
23169W        W66081   3.535  10.996  16.272 -0.3678  0.3091  0.3016
23170W        W66082   5.835   9.405  16.345  0.0974 -0.1964  0.3117
23171W        W66083   4.243   7.483  15.781  0.0969 -0.0220 -0.1992
23172W        W66084   6.188   9.219  16.746  0.1279 -0.0888 -0.0015
23173W        W66085   5.164   6.261  17.787 -0.1126  0.0269  0.4627
23174W        W66086   4.244   9.041  18.275 -0.0611 -0.1823 -0.1687
23175W        W66087   5.769   8.074  18.305  0.1919  0.2603 -0.1573
23176W        W66088   7.007  10.197  18.958  0.0696  0.2509  0.0258
23177W        W66089   5.089   9.714  17.970  0.2016  0.1967 -0.2326
23178W        W66090   5.357   8.785  17.525 -0.0930  0.1736 -0.0455
23179W        W66091   6.031  10.507  20.643 -0.4071 -0.2810  0.2733
23180W        W66092   4.094   8.658  16.864 -0.0947 -0.3111  0.0607
23181W        W66093   6.259   9.914  17.468 -0.0724 -0.2350  0.0554
23182W        W66094   6.787  10.744  16.396 -0.2418 -0.2387 -0.2406
23183W        W66095   5.447  10.162  16.644 -0.2510  0.0969  0.0542
23184W        W66096   4.401   6.897  17.419  0.2931  0.2535  0.4139
23185W        W66097   3.203   9.427  18.606  0.1172  0.1089  0.1282
23186W        W66098   3.613   8.295  18.984 -0.0946  0.2940  0.0442
23187W        W66099   3.870   8.387  16.378  0.2352 -0.1319  0.1231
23188W        W66100   6.839   9.940  19.349  0.0667  0.2231 -0.2349
23189W        W66101   2.322   9.433  19.830  0.2286 -0.0711  0.0935
23190W        W66102   6.396   8.632  17.559 -0.0195 -0.1309 -0.1261
23191W        W66103   4.244  10.691  18.100 -0.4426  0.0783 -0.0540
23192W        W66104   6.204   9.600  18.859  0.1791 -0.1032 -0.1136
23193W        W66105   5.342   9.360  16.375  0.0920 -0.2602  0.0431
23194W        W66106   7.460   6.602  17.291  0.2211  0.0281 -0.2002
23195W        W66107   6.401   6.812  17.252 -0.3150  0.0488  0.2652
23196W        W66108   4.719   9.440  16.672 -0.1937  0.0429 -0.2527
23197W        W66109   3.592   8.556  16.807  0.1947  0.3383  0.1016
23198W        W66110   6.452   9.897  20.201 -0.1523  0.1326 -0.1389
23199W        W66111   7.095   9.322  17.590 -0.1065 -0.1533 -0.1907
23200W        W66112   2.755  10.241  17.929  0.2236 -0.0290 -0.1837
23201W        W66113   4.207   7.666  20.665 -0.1006 -0.0955  0.1292
23202W        W66114   5.840  10.662  19.762 -0.0889 -0.1575 -0.0477
23203W        W66115   3.203  10.984  16.664 -0.1352 -0.0790  0.2089
23204W        W66116   4.108   9.915  17.202 -0.0771  0.3192  0.0048
23205W        W66117   2.808   9.562  17.377  0.0869  0.3898  0.1447
23206W        W66118   4.694   7.158  17.706  0.3979  0.1589 -0.0895
23207W        W66119   4.846   8.385  19.353 -0.2955  0.0294 -0.0176
23208W        W66120   5.757   7.863  17.865 -0.0442 -0.0358 -0.4030
23209W        W66121   3.942   8.028  19.770  0.0915 -0.4244 -0.0041
23210W        W66122   5.934   6.651  16.991  0.0896  0.1050 -0.1956
23211W        W66123   2.657   9.189  17.746 -0.1114  0.1265 -0.1295
23212W        W66124   7.623  10.666  17.557  0.1887 -0.0498  0.1031
23213W        W66125   6.817   7.641  16.879 -0.1803 -0.3133 -0.1360
23214W        W66126   6.750   8.158  16.682 -0.0738  0.1189  0.0104
23215W        W66127   2.921   9.351  19.461 -0.1164 -0.0943 -0.1537
23216W        W66128   3.726   7.694  17.262  0.0960 -0.1286 -0.1635
23217W        W66129   4.484   7.261  19.523  0.2620 -0.0153 -0.1020
23218W        W66130   6.104   6.676  18.075  0.0181  0.2997 -0.3242
23219W        W66131   8.586   7.887  19.512 -0.1508 -0.0402  0.2267
23220W        W66132   3.271   8.572  16.418 -0.3727 -0.0639  0.2320
23221W        W66133   5.037   8.607  17.918  0.0505 -0.2147 -0.0921
23222W        W66134   4.478   8.456  17.129  0.0688 -0.2481 -0.0502
23223W        W66135   3.357   9.181  16.496 -0.0473 -0.0933  0.2162
23224W        W66136   6.439   7.983  20.093 -0.0932 -0.0308 -0.1315
23225W        W66137   4.802  10.032  16.123  0.2875  0.2193 -0.0783
23226W        W66138   7.142   9.784  19.983 -0.1712  0.0164 -0.0197
23227W        W66139   5.242  10.285  17.203  0.1518  0.2964 -0.2892
23228W        W66140   5.250   7.142  19.029 -0.1246 -0.0134  0.1803
23229W        W66141   3.449   9.159  17.155  0.1697 -0.3761  0.4365
23230W        W66142   3.424  11.709  17.231  0.3257  0.0403 -0.0916
23231W        W66143   3.430   8.908  17.620 -0.0614 -0.1595  0.1851
23232W        W66144   4.961   8.494  17.333  0.0097  0.1736 -0.0099
23233W        W66145   7.860  11.164  18.462  0.0868  0.2588 -0.0956
23234W        W66146   5.425   8.834  16.477 -0.0901  0.1126 -0.3193
23235W        W66147   2.965   9.472  20.764 -0.1820  0.0703  0.4283
23236W        W66148   6.467   6.327  18.437 -0.0502  0.0856  0.1034
23237W        W66149   7.095   9.410  18.407  0.0292 -0.2027 -0.0415
23238W        W66150   5.245   8.011  19.486 -0.1450  0.4163  0.0526
23239W        W66151   3.732   8.766  17.239 -0.1161  0.1516 -0.2582
23240W        W66152   5.117  10.280  17.841 -0.2471  0.0196  0.2272
23241W        W66153   3.874  10.873  15.942 -0.0137  0.1353  0.0433
23242W        W66154   2.954   8.500  16.766 -0.0077 -0.1476  0.1400
23243W        W66155   5.166   9.479  16.830  0.0993 -0.0118 -0.2860
23244W        W66156   7.352   9.153  17.162 -0.0294  0.0901  0.1693
23245W        W66157   3.538  10.335  20.431  0.2088 -0.2609 -0.1552
23246W        W66158   5.645   9.836  20.162 -0.0192 -0.1589  0.1606
23247W        W66159   3.936   9.140  16.994 -0.1921 -0.0274 -0.0326
23248W        W66160   4.088   9.823  19.383 -0.1082  0.1321  0.1223
23249W        W66161   5.512   6.599  17.588  0.1470  0.3560 -0.0014
23250W        W66162   5.968   8.797  16.619 -0.2438 -0.0610 -0.1323
23251W        W66163   4.788  10.090  18.112 -0.2102 -0.0767  0.1649
23252W        W66164   7.203   9.397  16.261  0.3256  0.1195  0.0733
23253W        W66165   5.300   8.543  15.936  0.1078 -0.1217  0.0148
23254W        W66166   5.003   6.815  16.127  0.0064  0.0425  0.1205
23255W        W66167   4.555  10.698  19.123 -0.0196  0.0897  0.3122
23256W        W66168   4.897   9.454  17.240  0.1488  0.1403  0.3511
23257W        W66169   6.724   8.084  19.247  0.0036 -0.2977 -0.1453
23258W        W66170   5.180   8.085  17.147  0.1104 -0.4204 -0.0278
23259W        W66171   7.383   9.667  16.625  0.1540 -0.2204 -0.3732
23260W        W66172   3.362   9.173  18.208  0.0768  0.1147 -0.1936
23261W        W66173   6.696   8.446  18.038  0.2238 -0.0611  0.0066
23262W        W66174   6.330   8.827  17.088 -0.2482 -0.0324  0.2582
23263W        W66175   4.576   7.708  18.647  0.0589 -0.0551 -0.0926
23264W        W66176   5.039   6.659  16.550  0.2786  0.1204 -0.0829
23265W        W66177   6.413   8.036  16.328  0.0564  0.0986  0.1659
23266W        W66178   4.367  11.608  15.951 -0.0064 -0.2535 -0.1864
23267W        W66179   5.988   6.175  18.347 -0.2073 -0.0328 -0.0784
23268W        W66180   6.068   6.473  17.484 -0.2726  0.1875 -0.0384
23269W        W66181   3.650   7.113  19.982  0.1061 -0.1314 -0.0369
23270W        W66182   5.505   8.331  18.637  0.1659  0.1668  0.1887
23271W        W66183   6.089   8.879  18.061  0.0584  0.2342  0.2995
23272W        W66184   7.058   8.101  17.292  0.4123  0.2161  0.0012
23273W        W66185   3.769  10.036  16.848 -0.2317 -0.2555 -0.3010
23274W        W66186   4.826   7.910  19.098 -0.2057 -0.0036  0.0129
23275W        W66187   3.258   9.856  17.670 -0.1575  0.1273 -0.2649
23276W        W66188   3.670  10.916  18.806 -0.1744 -0.1094 -0.2322
23277W        W66189   6.524  11.678  19.222  0.2320  0.0041 -0.0646
23278W        W66190   5.258   8.681  18.326 -0.1301 -0.0563  0.1291
23279W        W66191   5.617   7.807  19.866  0.0976 -0.2993  0.2959
23280W        W66192   5.087   7.750  15.924 -0.1346 -0.0575  0.0384
23281W        W66193   3.759  11.255  17.247  0.0717 -0.0219 -0.3028
23282W        W66194   4.128   9.594  16.753 -0.2742  0.2354  0.3087
23283W        W66195   4.516   7.669  17.702 -0.0541 -0.0483  0.0069
23284W        W66196   4.328   9.643  18.977  0.0016  0.1085 -0.1345
23285W        W66197   3.153  10.648  16.335  0.0547 -0.0537  0.0436
23286W        W66198   6.548   9.478  19.224  0.1326  0.0460 -0.1576
23287W        W66199   2.959  10.239  17.399 -0.0299  0.1408 -0.0600
23288W        W66200   7.071   7.304  18.740 -0.0672 -0.0728 -0.0892
23289W        W66201   3.528  12.404  17.282 -0.1622  0.3431  0.0518
23290W        W66202   3.942   8.756  16.010 -0.0778 -0.0322 -0.0660
23291W        W66203   5.765   7.860  17.279 -0.1736 -0.0804 -0.0793
23292W        W66204   6.439   7.378  17.047  0.0209  0.2448 -0.1040
23293W        W66205   6.074   9.793  16.102 -0.0044  0.0924  0.1228
23294W        W66206   4.547   6.798  18.274 -0.1922 -0.2906  0.0050
23295W        W66207   4.981   7.585  18.324 -0.1589  0.0454 -0.1263
23296W        W66208   3.158   9.966  18.252 -0.0332  0.2216 -0.3074
23297W        W66209   5.166   8.660  19.722  0.1935 -0.0071  0.2425
23298W        W66210   6.540   8.831  15.971 -0.0639 -0.4707  0.0071
23299W        W66211   5.991  10.132  18.902 -0.1535 -0.0564  0.0936
23300W        W66212   3.776   9.356  20.055  0.0680 -0.1348  0.1070
23301W        W66213   3.428   8.140  16.615 -0.1824  0.0729  0.2487
23302W        W66214   6.195   8.294  18.265  0.0352 -0.0573 -0.1015
23303W        W66215   5.206   7.573  16.738  0.3631 -0.0777  0.0047
23304W        W66216   3.028  10.584  17.069 -0.1686  0.0185 -0.1027
23305W        W66217   6.015  10.299  18.451 -0.0728  0.2485  0.1554
23306W        W66218   4.809   8.941  17.236 -0.2326  0.0216  0.0590
23307W        W66219   3.218   8.634  17.194  0.2522 -0.2175 -0.2369
23308W        W66220   6.443   8.983  19.075  0.0487 -0.0455 -0.0248
23309W        W66221   7.260   9.668  17.923  0.2998 -0.1157 -0.2050
23310W        W66222   4.164   7.711  18.201  0.1543 -0.1339 -0.0682
23311W        W66223   5.289   6.878  17.214  0.1321  0.1403 -0.0154
23312W        W66224   4.148   8.443  17.524  0.3991  0.0711 -0.1571
23313W        W66225   6.374   8.467  19.132  0.0818 -0.2074  0.1801
23314W        W66226   5.760   7.980  19.396  0.0399 -0.1893  0.0928
23315W        W66227   4.519   9.154  18.768  0.1048 -0.4122  0.1336
23316W        W66228   4.990   7.120  18.115 -0.2252  0.2055  0.0020
23317W        W66229   5.843  10.132  16.999 -0.0193 -0.1773 -0.1553
23318W        W66230   6.579   8.941  17.962 -0.0034  0.1601 -0.1214
23319W        W66231   5.604   8.759  17.028 -0.1735  0.2342 -0.0729
23320W        W66232   3.609   9.637  17.350  0.0382  0.1013  0.0013
23321W        W66233   5.027   8.534  16.354 -0.0590 -0.2386 -0.2538
23322W        W66234   5.173   8.040  18.156 -0.2016  0.3172  0.0136
23323W        W66235   3.124   9.554  16.984  0.0734 -0.2038 -0.0928
23324W        W66236   5.137   9.817  16.442 -0.0484  0.0541  0.0265
23325W        W66237   3.129   9.317  17.719 -0.2523  0.0219 -0.2137
23326W        W66238   6.128   8.444  16.175  0.1793 -0.4922 -0.1537
23327W        W66239   3.370  10.455  16.723  0.1155  0.0189 -0.0171
23328W        W66240   6.034   5.574  18.393 -0.3722 -0.0352  0.1852
23329W        W66241   6.764   7.509  20.889  0.1554  0.0710  0.2539
23330W        W66242   5.907   9.457  15.837  0.0744  0.3745  0.3200
23331W        W66243   6.102   7.637  19.674 -0.1988  0.1013 -0.0714
23332W        W66244   4.291   6.693  17.915  0.0816  0.0216  0.1043
23333W        W66245   5.548   7.952  16.792 -0.3139  0.2563 -0.2206
23334W        W66246   4.009   7.783  18.715 -0.2447  0.0635  0.0786
23335W        W66247   4.808  11.954  18.688  0.1141  0.1385  0.6020
23336W        W66248   3.659   7.554  20.545 -0.3747 -0.2285 -0.1641
23337W        W66249   5.943   7.497  16.974  0.0725 -0.1486 -0.1677
23338W        W66250   4.134   7.362  17.274  0.1329 -0.0380 -0.1619
23339W        W66251   4.977   9.115  17.751 -0.0396 -0.4032 -0.2536
23340W        W66252   6.668   9.571  17.515 -0.0498  0.1552 -0.0182
23341W        W66253   4.487   9.066  16.901 -0.0383  0.2059  0.1825
23342W        W66254   7.595   9.493  17.496 -0.1715 -0.2789 -0.1480
23343W        W66255   3.919   8.860  17.801 -0.3677  0.0945  0.0109
23344W        W66256   6.268   9.843  18.395 -0.3050  0.2375  0.0159
23345W        W66257   5.757   8.659  18.426 -0.1055  0.1709  0.0697
23346W        W66258   2.281   9.611  17.264 -0.2768 -0.1072 -0.4182
23347W        W66259   3.278   6.557  20.514  0.0927  0.0996  0.2158
23348W        W66260   6.251   9.371  18.297 -0.0021 -0.2057 -0.0155
23349W        W66261   7.133   8.371  16.295 -0.2832  0.0087 -0.1994
23350W        W66262   6.083   8.226  17.604 -0.0956  0.2403  0.0096
23351W        W66263   5.252   9.195  18.207  0.5682  0.2703  0.1379
23352W        W66264   3.949   8.450  19.445  0.3016 -0.1249  0.2183
23353W        W66265   3.382   9.854  21.071  0.0304  0.1237  0.3635
23354W        W66266   6.021  10.620  19.112 -0.0621 -0.0914 -0.2409
23355W        W66267   7.449   7.949  15.902  0.2183 -0.2798 -0.1115
23356W        W66268   6.300   7.094  18.902  0.1056  0.0816  0.0012
23357W        W66269   8.430   9.265  17.501  0.0518  0.1475  0.0156
23358W        W66270   5.568   8.325  17.370  0.1628  0.0065  0.0801
23359W        W66271   3.664   8.462  17.982 -0.1644 -0.0158 -0.2341
23360W        W66272   6.627   9.404  20.781 -0.0665  0.0385  0.1042
23361W        W66273   4.631   7.812  16.476 -0.1017 -0.1787 -0.0781
23362W        W66274   6.645   7.605  18.936 -0.2369  0.1935 -0.3039
23363W        W66275   5.739  10.833  16.346  0.2057  0.1557  0.4367
23364W        W66276   5.913   9.111  17.210 -0.3647 -0.1569  0.1947
23365W        W66277   6.054   7.478  17.992 -0.1326 -0.3058  0.3566
23366W        W66278   2.982   8.722  17.854 -0.1264 -0.0893 -0.0945
23367W        W66279   3.979  10.230  19.090 -0.1155 -0.1207 -0.0254
23368W        W66280   4.437   9.758  16.364 -0.0599 -0.0536 -0.0129
23369W        W66281   5.009   9.012  16.731 -0.2696  0.4132 -0.3029
23370W        W66282   6.417  10.464  18.774  0.0998 -0.1441  0.0491
23371W        W66283   7.017   8.508  20.183  0.1326  0.0562  0.1854
23372W        W66284   6.422   5.622  16.265 -0.1107  0.0154  0.0919
23373W        W66285   5.567   6.778  18.876  0.0182  0.1727 -0.0648
23374W        W66286   2.365  10.200  16.685 -0.2581  0.1717 -0.1492
23375W        W66287   6.434   7.404  19.408  0.0349 -0.2034  0.1536
23376W        W66288   4.298  10.082  19.820  0.0619  0.4299 -0.1002
23377W        W66289   3.394  10.392  18.407  0.1725  0.3153 -0.0835
23378W        W66290   4.454   9.903  17.569 -0.1708  0.2408  0.1421
23379W        W66291   5.410   7.730  18.484  0.2459  0.0643  0.0329
23380W        W66292   5.270   9.510  18.659 -0.3105 -0.0082  0.2483
23381W        W66293   4.639   8.849  18.086 -0.1358 -0.0057  0.0249
23382W        W66294   7.129   8.270  19.507 -0.1930 -0.3570 -0.1528
23383W        W66295   4.412   9.597  19.812 -0.0913  0.2471 -0.1015
23384W        W66296   3.192   8.214  18.045  0.0384  0.3596 -0.0091
23385W        W66297   7.053   9.480  19.470 -0.3417  0.4905 -0.2071
23386W        W66298   6.593   9.947  17.058  0.3037  0.3908  0.0619
23387W        W66299   4.345   9.102  17.789 -0.1816 -0.0972  0.1716
23388W        W66300   4.886   8.900  19.276 -0.2122 -0.1213  0.2201
23389W        W66301   5.493   8.596  20.700  0.0046  0.2044 -0.0606
23390W        W66302   5.939   9.245  17.692  0.0399  0.1435  0.1307
23391W        W66303   4.907   6.680  17.798  0.1133 -0.1377 -0.0577
23392W        W66304   3.653  11.268  16.718 -0.1867 -0.0148  0.1180
23393W        W66305   4.068   9.349  19.550  0.0030  0.1755 -0.0960
23394W        W66306   2.842   9.714  17.921 -0.3134 -0.1323 -0.4920
23395W        W66307   4.155  10.920  16.788 -0.2069  0.0230  0.0009
23396W        W66308   6.440  10.006  16.401  0.1557 -0.2193  0.1635
23397W        W66309   5.653   9.207  16.803 -0.1441 -0.0572 -0.3286
23398W        W66310   5.498  10.731  19.137 -0.0035  0.0161  0.0422
23399W        W66311   5.337   7.257  15.934  0.0987  0.3246 -0.1049
23400W        W66312   3.890  10.010  17.633 -0.3366 -0.5462  0.2378
23401W        W66313   1.342  11.395  16.765 -0.1687 -0.2277  0.3937
23402W        W66314   6.498   9.456  17.047 -0.0549  0.2039 -0.0829
23403W        W66315   5.412   9.345  17.716 -0.1034  0.0524  0.0655
23404W        W66316   6.730   9.526  19.867 -0.2626  0.0054  0.0223
23405W        W66317   7.197   7.962  16.539 -0.1804 -0.0704 -0.1005
23406W        W66318   6.683   8.986  18.448 -0.1708 -0.0683  0.1792
23407W        W66319   6.874   8.747  16.716  0.1989  0.0248  0.1743
23408W        W66320   5.339  11.451  19.812 -0.2612  0.1065  0.1533
23409W        W66321   6.378   8.009  18.778 -0.0962 -0.0021 -0.0252
23410W        W66322   5.807   7.406  15.914  0.1800  0.0187  0.1780
23411W        W66323   4.397   8.690  18.594 -0.0953 -0.0631 -0.0228
23412W        W66324   6.728   7.199  19.772 -0.0179  0.0599  0.2556
23413W        W66325   2.685  10.632  19.068 -0.3471 -0.2638  0.1159
23414W        W66326   6.127   9.806  16.768  0.1715  0.3179  0.1104
23415W        W66327   3.734   8.133  17.593  0.0903 -0.4444  0.0869
23416W        W66328   4.168   8.562  18.098 -0.1837 -0.1456 -0.0833
23417W        W66329   7.505   7.671  17.963 -0.1444 -0.1949 -0.0641
23418W        W66330   5.330  10.172  16.092  0.0551 -0.1220 -0.1874
23419W        W66331   5.300   7.124  17.696  0.0799 -0.2131 -0.0923
23420W        W66332   3.669  10.819  16.964  0.1423 -0.0518  0.1968
23421W        W66333   4.113   9.562  17.742  0.0612  0.2516 -0.0868
23422W        W66334   4.285  10.144  18.039  0.4410  0.1079  0.2494
23423W        W66335   1.453   7.195  16.934  0.4310  0.0988 -0.0427
23424W        W66336   7.424   8.768  16.578 -0.0249  0.0817 -0.0699
23425W        W66337   4.804   8.481  18.346  0.2087 -0.0684  0.0933
23426W        W66338   6.799   9.099  19.643  0.2176  0.1945 -0.0153
23427W        W66339   2.921   8.058  17.623  0.1283  0.1454 -0.1539
23428W        W66340   8.223   9.905  17.764 -0.0567 -0.2205  0.0009
23429W        W66341   5.749   8.858  18.968  0.0973 -0.3370 -0.2483
23430W        W66342   2.516   9.598  18.466  0.0952  0.0828  0.2213
23431W        W66343   5.770   8.366  16.590  0.2807  0.0613 -0.4470
23432W        W66344   6.270   9.320  19.675  0.0274 -0.2401 -0.0859
23433W        W66345   5.168   8.124  17.645 -0.1060 -0.3919 -0.2018
23434W        W66346   5.477   9.981  18.872  0.0391 -0.0338 -0.1270
23435W        W66347   4.210   8.128  17.923 -0.4902  0.1586 -0.0650
23436W        W66348   6.705   8.475  17.149  0.0721 -0.5721 -0.1839
23437W        W66349   3.598  10.148  18.064 -0.1510  0.0985 -0.0230
23438W        W66350   4.802   8.343  19.866 -0.0122 -0.2425 -0.0055
23439W        W66351   5.964   9.664  19.350  0.1869  0.1049  0.3011
23440W        W66352   3.041   8.162  16.279 -0.2051 -0.0017  0.0519
23441W        W66353   6.564  10.401  17.302 -0.0520 -0.2508  0.0813
23442W        W66354   5.975   9.174  19.265  0.2725 -0.1998 -0.1021
23443W        W66355   3.819  10.387  16.489 -0.0484  0.1487 -0.0345
23444W        W66356   6.392   9.150  17.449  0.0884  0.1209 -0.2361
23445W        W66357   5.926  10.785  18.616 -0.2738  0.0975  0.1626
23446W        W66358   3.979   7.920  19.231  0.1607 -0.1783  0.0807
23447W        W66359   5.686  10.163  19.307  0.0236 -0.0553 -0.0886
23448W        W66360   6.995  12.017  20.084 -0.1617 -0.0716 -0.2713
23449W        W66361   6.699   7.646  17.446 -0.2237 -0.0945 -0.0568
23450W        W66362   3.385   8.481  18.454  0.0002  0.0323  0.3112
23451W        W66363   1.786  10.844  17.831  0.2334  0.2355  0.1390
23452W        W66364   6.721   9.458  18.062 -0.3947 -0.2673  0.1215
23453W        W66365   6.953   8.147  18.731 -0.0938  0.0531 -0.0285
23454W        W66366   2.915  10.338  16.652  0.0618  0.0018  0.1099
23455W        W66367   8.340   6.575  19.622  0.2355  0.4067  0.0875
23456W        W66368   3.393  10.318  17.585  0.1177  0.0997  0.0620
23457W        W66369   4.238  10.451  19.471 -0.4275  0.2530 -0.3186
23458W        W66370   4.311   9.158  16.416 -0.1854 -0.0502 -0.0342
23459W        W66371   4.743   9.114  21.099  0.2768  0.3775 -0.3485
23460W        W66372   4.727   8.052  16.903 -0.3603  0.3409 -0.0180
23461W        W66373   5.304  11.249  16.183  0.3481 -0.2941 -0.3007
23462W        W66374   5.424   9.776  17.205 -0.0036 -0.1597  0.0386
23463W        W66375   6.191   7.237  17.547 -0.0844  0.0773 -0.0982
23464W        W66376   7.230  10.356  18.533 -0.0318 -0.1297  0.5196
23465W        W66377   4.683   7.875  18.160  0.1517 -0.1152  0.1767
23466W        W66378   7.816   6.818  16.913  0.2114  0.2718  0.0578
23467W        W66379   6.541   7.422  17.942  0.0915 -0.1459  0.1483
23468W        W66380   3.413   9.195  19.573 -0.1171 -0.0542  0.0185
23469W        W66381   3.411   8.911  16.078  0.3017 -0.0169  0.0615
23470W        W66382   3.175  10.568  15.873  0.2039  0.1586 -0.1094
23471W        W66383   3.513   9.665  18.044 -0.2548  0.0511  0.1357
23472W        W66384   6.133   7.321  20.537 -0.1836 -0.1642 -0.2410
23473W        W66385   3.287   9.459  20.279  0.0456  0.3499  0.4497
23474W        W66386   2.663   8.684  17.422 -0.0933  0.0971  0.0776
23475W        W66387   4.697   7.482  16.085 -0.0688 -0.4400 -0.1455
23476W        W66388   7.756   9.553  16.232  0.0157  0.4277  0.2846
23477W        W66389   4.181   7.232  17.805  0.1822  0.0838 -0.1927
23478W        W66390   2.810   8.241  18.323 -0.1774  0.1237 -0.1818
23479W        W66391   5.874   9.568  17.293 -0.1064 -0.3515  0.2486
23480W        W66392   7.251  10.607  16.882  0.1642 -0.1478 -0.1380
23481W        W66393   5.680   7.439  17.550  0.0444 -0.1586  0.2027
23482W        W66394   7.115  10.994  19.035  0.2955 -0.2719  0.0885
23483W        W66395   1.969   9.466  16.394 -0.0891  0.1158  0.0932
23484W        W66396   5.403   8.014  19.012 -0.1565  0.0010  0.0666
23485W        W66397   4.819   7.450  19.888  0.2534  0.1790  0.1446
23486W        W66398   3.680   7.618  16.785 -0.2004 -0.0867  0.0248
23487W        W66399   5.675   9.364  18.957 -0.0756 -0.2983  0.1426
23488W        W66400   5.607   8.912  17.946 -0.0446 -0.0737 -0.0524
23489W        W66401   6.063  10.509  16.773 -0.1814 -0.0282 -0.3492
23490W        W66402   3.835   9.303  18.064 -0.3823  0.0186  0.3654
23491W        W66403   5.508  10.276  19.958 -0.1576  0.3830  0.1217
23492W        W66404   3.243   7.699  18.267  0.0056 -0.1054  0.5468
23493W        W66405   6.555   8.320  15.849 -0.0859  0.1185  0.1236
23494W        W66406   4.978  10.778  16.783 -0.2265 -0.0644 -0.0791
23495W        W66407   7.114  10.091  15.706  0.1283  0.2665 -0.2392
23496W        W66408   6.322   7.908  17.953  0.0523  0.0776  0.0175
23497W        W66409   5.378   9.024  18.653  0.0662 -0.0157  0.0250
23498W        W66410   4.629   7.638  20.421 -0.0853 -0.3649  0.0221
23499W        W66411   3.971   9.768  18.181 -0.2018 -0.1248 -0.0779
23500W        W66412   5.891  11.209  19.795  0.0493 -0.0852  0.2373
23501W        W66413   3.830   7.449  19.057 -0.0025 -0.0665  0.1618
23502W        W66414   7.673   8.099  17.147  0.1527 -0.0828 -0.1570
23503W        W66415   5.883   8.718  17.530  0.1834  0.0253  0.0157
23504W        W66416   4.034   9.011  18.723 -0.3160  0.3807  0.1942
23505W        W66417   4.834   8.172  16.034 -0.3722  0.0894  0.0309
23506W        W66418   5.285   9.143  19.713 -0.0057  0.0076  0.3006
23507W        W66419   5.397   9.235  17.226 -0.1985  0.2574  0.0185
23508W        W66420   5.241   8.549  19.052  0.2778  0.1015 -0.1273
23509W        W66421   4.245   8.891  17.304 -0.3602  0.0122 -0.2582
23510W        W66422   6.966   9.850  16.396  0.2487 -0.3940 -0.1919
23511W        W66423   4.710  10.609  18.286 -0.1063 -0.1892  0.2124
23512W        W66424   6.391  10.998  20.550 -0.0301 -0.0012 -0.0735
23513W        W66425   3.866   9.870  19.866 -0.0567 -0.1149 -0.1123
23514W        W66426   6.226   8.940  18.620 -0.0761  0.0418 -0.2292
23515W        W66427   4.086   7.553  19.568 -0.3207 -0.1012  0.0638
23516W        W66428   4.278   8.193  18.392  0.0633  0.3086 -0.1572
23517W        W66429   4.772   8.541  16.773  0.0502 -0.1335 -0.0011
23518W        W66430   5.804   7.018  18.344 -0.1122  0.3051 -0.3604
23519W        W66431   3.722   9.395  18.576  0.0533  0.1738  0.0824
23520W        W66432   5.676   8.375  17.904 -0.0470  0.1626  0.3379
23521W        W66433   4.465  10.149  19.043 -0.2839  0.2008 -0.1493
23522W        W66434   5.356   9.601  19.208  0.1294  0.2024 -0.0331
23523W        W66435   4.070  10.483  24.009  0.3167 -0.0455  0.0897
23524W        W66436   4.340   8.457  20.340 -0.1722  0.2088 -0.0161
23525W        W66437   5.671   8.222  20.285 -0.2511  0.1026  0.0475
23526W        W66438   6.004   8.520  20.690 -0.0409 -0.1017 -0.2404
23527W        W66439   4.495   8.822  21.427 -0.4620  0.2016 -0.0607
23528W        W66440   6.609   9.932  20.666  0.0969  0.1733  0.0206
23529W        W66441   5.018   7.095  22.884  0.1017 -0.0686 -0.2726
23530W        W66442   4.710  11.317  20.823 -0.2632 -0.0054 -0.1693
23531W        W66443   5.640   9.710  20.626 -0.1718  0.0134 -0.1046
23532W        W66444   6.114  10.346  19.486  0.2023 -0.0469 -0.0927
23533W        W66445   4.804   7.658  22.786  0.2815 -0.1593 -0.1193
23534W        W66446   4.853   9.999  21.213 -0.2147  0.0918 -0.4642
23535W        W66447   4.979   8.625  21.674 -0.3177 -0.0998  0.2327
23536W        W66448   5.070   7.230  21.919  0.1116 -0.2985 -0.0634
23537W        W66449   5.145   9.035  21.451 -0.0090 -0.0742  0.1706
23538W        W66450   4.247   9.086  19.965  0.1137 -0.0161 -0.2035
23539W        W66451   4.862   9.177  22.375  0.0743 -0.0153 -0.0649
23540W        W66452   4.939   8.677  20.700 -0.2175 -0.0728 -0.0195
23541W        W66453   7.499  11.878  21.451  0.0072 -0.2869  0.1535
23542W        W66454   5.440   7.845  22.496  0.1257 -0.0116  0.3681
23543W        W66455   5.938   7.618  22.453  0.1446  0.3154 -0.0864
23544W        W66456   4.222   9.862  20.500  0.0478 -0.1161 -0.0791
23545W        W66457   4.385   8.149  18.933 -0.3239  0.0435 -0.2315
23546W        W66458   3.875   7.604  22.542 -0.1092 -0.0099 -0.2226
23547W        W66459   4.091   8.338  22.230  0.3220 -0.0581 -0.1945
23548W        W66460   5.655   6.762  21.266 -0.3802 -0.2045 -0.0594
23549W        W66461   5.691   9.969  21.434  0.0885 -0.0540 -0.2299
23550W        W66462   4.881  10.849  20.885  0.2436 -0.1526  0.0509
23551W        W66463   4.912   9.473  21.409  0.0639 -0.1230  0.0834
23552W        W66464   6.123   8.872  23.132 -0.1468  0.0368  0.0308
23553W        W66465   4.304   9.898  22.049 -0.1754 -0.0775 -0.0547
23554W        W66466   3.198  10.905  22.140  0.0864 -0.0346 -0.1306
23555W        W66467   5.635  10.214  20.502 -0.3561  0.2598 -0.0805
23556W        W66468   6.385   9.743  22.030 -0.1217 -0.4283 -0.0485
23557W        W66469   6.613   9.697  22.565 -0.0227  0.0005  0.1031
23558W        W66470   5.188  11.548  24.553  0.1745 -0.1573 -0.0647
23559W        W66471   4.862   9.570  20.916 -0.1190  0.1681  0.1621
23560W        W66472   5.407  10.586  22.488 -0.1261  0.1026 -0.0259
23561W        W66473   4.343  10.237  22.503 -0.1947  0.2161 -0.0173
23562W        W66474   4.963  10.276  22.608  0.2346 -0.1294 -0.1091
23563W        W66475   6.101   9.547  20.150 -0.0141 -0.3985  0.0909
23564W        W66476   4.015   9.206  20.507 -0.0853 -0.2495  0.0815
23565W        W66477   5.037  10.393  20.851 -0.1282  0.0936 -0.1357
23566W        W66478   4.519  10.684  24.910 -0.1269 -0.0529  0.0028
23567W        W66479   2.862   9.551  21.900  0.3943 -0.2043 -0.1634
23568W        W66480   6.813   7.850  24.145 -0.3926  0.1037  0.1378
23569W        W66481   4.063   8.971  19.275 -0.1138  0.2185 -0.2222
23570W        W66482   5.797   9.024  20.693 -0.0418  0.0102  0.0435
23571W        W66483   5.361   7.293  20.025 -0.1568  0.0779  0.2182
23572W        W66484   5.165   8.428  20.212  0.1811  0.1512 -0.2687
23573W        W66485   5.056   6.425  21.779 -0.1889 -0.0513  0.1081
23574W        W66486   4.079  11.827  21.170 -0.0663  0.0606 -0.0943
23575W        W66487   4.681   7.656  22.236 -0.2771  0.1658  0.1015
23576W        W66488   5.993   9.396  22.415  0.2185 -0.3604 -0.0137
23577W        W66489   4.151   8.955  21.847  0.0265  0.0100  0.0351
23578W        W66490   5.153   6.541  22.260  0.1215  0.0750 -0.0157
23579W        W66491   4.265  10.635  23.170 -0.2990 -0.1475 -0.0581
23580W        W66492   4.103   6.894  22.017 -0.1036  0.1337 -0.1997
23581W        W66493   7.037   9.782  20.811 -0.1368 -0.0558  0.1627
23582W        W66494   5.733  11.541  21.452 -0.0794  0.1968 -0.0492
23583W        W66495   4.567  10.466  19.997 -0.1746 -0.1457  0.1768
23584W        W66496   3.194   8.581  21.861  0.2712  0.3343  0.0455
23585W        W66497   3.689   8.786  23.883 -0.1946  0.2974  0.1249
23586W        W66498   4.347   9.023  23.151 -0.3153  0.0343 -0.1050
23587W        W66499   2.730   7.563  18.842  0.1529 -0.0898 -0.1698
23588W        W66500   6.230   8.740  22.046  0.3361 -0.0394  0.0210
23589W        W66501   4.141   9.599  23.020  0.1377 -0.3081  0.1987
23590W        W66502   7.011   7.114  22.225 -0.0075 -0.0217  0.4558
23591W        W66503   3.561   8.936  21.850 -0.1571  0.1691  0.2669
23592W        W66504   5.472  10.093  22.586  0.2029  0.0935 -0.0388
23593W        W66505   5.942   9.947  19.793 -0.6283  0.0446 -0.0041
23594W        W66506   6.346   7.882  21.720  0.2100 -0.0385  0.1341
23595W        W66507   6.357   7.012  21.999  0.2557 -0.1285 -0.4748
23596W        W66508   4.945   9.309  19.007 -0.2288  0.0826  0.0054
23597W        W66509   4.726   8.764  20.087 -0.2120  0.0761  0.0967
23598W        W66510   5.883   9.846  24.144  0.2507 -0.1125  0.2592
23599W        W66511   5.634   8.817  19.576  0.2667 -0.2395  0.0491
23600W        W66512   3.694   8.503  22.537 -0.0441  0.0669  0.2006
23601W        W66513   5.461   9.065  23.367 -0.1053  0.0569  0.1284
23602W        W66514   4.540   9.215  23.575  0.1633 -0.1499  0.1955
23603W        W66515   4.359  11.612  19.414  0.1124 -0.0803  0.1889
23604W        W66516   2.343  10.253  23.029  0.3442  0.0684  0.1433
23605W        W66517   4.604   9.973  20.238  0.1296  0.0626  0.1705
23606W        W66518   3.312   7.116  24.329  0.2972 -0.1739  0.1657
23607W        W66519   4.653  10.086  21.660 -0.2462 -0.0227 -0.0201
23608W        W66520   6.460   7.375  21.652 -0.2144  0.2996 -0.3163
23609W        W66521   5.274   7.362  23.700  0.1641  0.2464 -0.1693
23610W        W66522   6.402   5.285  21.828  0.2144  0.0539  0.3062
23611W        W66523   3.875   9.310  21.089 -0.1461 -0.1170 -0.2606
23612W        W66524   5.258  10.621  20.435 -0.0208 -0.0487 -0.0598
23613W        W66525   6.054   9.255  21.418  0.1611  0.0523  0.1047
23614W        W66526   6.279  11.073  20.053  0.1579  0.1582  0.0090
23615W        W66527   4.414   8.965  22.309  0.0258  0.0572 -0.1163
23616W        W66528   3.853   8.960  21.471 -0.2620  0.0355 -0.0617
23617W        W66529   5.530   7.168  21.734  0.1352  0.1624  0.0918
23618W        W66530   4.941   8.087  22.541  0.3805 -0.0161 -0.1097
23619W        W66531   7.105  10.203  24.532 -0.0774  0.1174 -0.1611
23620W        W66532   3.177   7.470  20.927 -0.0426  0.2673 -0.0396
23621W        W66533   6.023   7.025  21.536 -0.1413 -0.0239  0.1319
23622W        W66534   5.114   9.821  21.836 -0.0448 -0.0228 -0.1379
23623W        W66535   3.946   8.772  20.319  0.1738  0.1063  0.5194
23624W        W66536   6.446   8.104  23.942 -0.0518 -0.0855  0.0663
23625W        W66537   5.929  10.167  20.999  0.2796 -0.2378 -0.1148
23626W        W66538   6.877  10.465  22.714 -0.1498  0.2688 -0.1803
23627W        W66539   6.285  12.488  21.242 -0.0495  0.1022 -0.2050
23628W        W66540   4.858   6.599  23.271 -0.0134  0.0304 -0.0373
23629W        W66541   3.757   8.742  20.960  0.0910 -0.1473  0.0324
23630W        W66542   4.553  10.430  20.990 -0.2599 -0.1214 -0.0984
23631W        W66543   4.748  10.059  20.719 -0.0232 -0.0059 -0.0430
23632W        W66544   4.570   8.283  21.456 -0.0325 -0.1826  0.2073
23633W        W66545   6.961   9.458  22.123 -0.0611  0.1796 -0.0670
23634W        W66546   3.372   9.353  21.204 -0.2302  0.2742 -0.1550
23635W        W66547   3.437   8.916  23.267 -0.0586  0.1414 -0.2083
23636W        W66548   6.235   7.838  23.124  0.0827 -0.0397  0.1414
23637W        W66549   5.710   7.986  22.087 -0.0698 -0.0272  0.1303
23638W        W66550   4.247   9.288  21.442 -0.0866 -0.1262 -0.0779
23639W        W66551   4.363   9.482  20.824 -0.2445 -0.1879  0.1832
23640W        W66552   6.827  10.862  22.187 -0.2477  0.1372 -0.4987
23641W        W66553   4.375  10.858  20.688 -0.0676 -0.0010 -0.3317
23642W        W66554   2.832   8.238  22.591  0.0188 -0.2357 -0.0715
23643W        W66555   5.413  12.018  19.914  0.0622  0.1391 -0.0527
23644W        W66556   6.650   7.631  22.040  0.2276  0.1486 -0.1745
23645W        W66557   3.290   9.299  24.482  0.0460 -0.3048  0.1196
23646W        W66558   6.283   8.264  22.908  0.1757  0.2108 -0.0231
23647W        W66559   3.539   8.411  20.606 -0.1723 -0.2000 -0.1591
23648W        W66560   4.321  10.059  23.191  0.2204 -0.2735 -0.2599
23649W        W66561   5.591   7.366  22.172  0.2220 -0.0109 -0.1692
23650W        W66562   7.036   8.039  19.932 -0.0194  0.1345  0.0707
23651W        W66563   4.599  10.427  22.877 -0.2746 -0.1712  0.0792
23652W        W66564   6.551   8.732  20.005  0.2069 -0.3333 -0.0580
23653W        W66565   5.440   7.668  20.370 -0.0766 -0.1546  0.2386
23654W        W66566   6.416   6.985  20.753 -0.1125 -0.0258  0.0161
23655W        W66567   3.497  11.716  22.720  0.2722  0.2402 -0.0224
23656W        W66568   5.764   9.455  21.056  0.2027 -0.0892  0.2098
23657W        W66569   6.669  10.155  21.620 -0.0426 -0.0140 -0.1888
23658W        W66570   5.850   7.220  20.169  0.0528  0.0181  0.0680
23659W        W66571   7.170  11.522  20.877  0.1185 -0.0945 -0.1488
23660W        W66572   3.705   9.393  23.032  0.0184  0.0913 -0.2374
23661W        W66573   5.672   9.486  23.784 -0.2101 -0.0603  0.0022
23662W        W66574   6.570  10.441  20.504  0.2768  0.1346  0.0772
23663W        W66575   5.336   6.970  22.413  0.0207  0.0859  0.2610
23664W        W66576   4.134   8.511  21.302  0.0646 -0.1177  0.0396
23665W        W66577   6.245   6.542  20.575 -0.0098  0.0660  0.1593
23666W        W66578   4.109  10.998  19.162 -0.0639 -0.1215  0.0359
23667W        W66579   6.249   7.379  23.401 -0.1435  0.1064 -0.1211
23668W        W66580   6.798   7.007  21.772 -0.1502  0.0184 -0.0968
23669W        W66581   5.685   6.645  22.310  0.0854 -0.2819 -0.0188
23670W        W66582   5.649   9.716  22.009  0.1227 -0.3253 -0.0269
23671W        W66583   4.921   9.143  20.604 -0.3491 -0.0436  0.1281
23672W        W66584   4.501   8.576  21.882 -0.2592  0.0007  0.0455
23673W        W66585   5.853   7.955  18.773  0.0255  0.0543 -0.1096
23674W        W66586   4.520   7.277  22.771  0.1255 -0.4169  0.0712
23675W        W66587   4.481   8.770  23.769 -0.1495 -0.0176 -0.4408
23676W        W66588   4.712  10.247  24.686  0.0622  0.0559  0.1236
23677W        W66589   4.637   9.556  23.213 -0.0623  0.1574 -0.2495
23678W        W66590   5.331   9.983  21.046  0.0494 -0.0753  0.1995
23679W        W66591   4.981   9.163  22.819  0.1327  0.3561  0.3556
23680W        W66592   5.275   8.920  20.952  0.2403  0.2979  0.1716
23681W        W66593   3.856  11.575  19.429  0.0698  0.1297  0.0456
23682W        W66594   5.430  10.770  19.985  0.0516  0.3441  0.1384
23683W        W66595   5.963   8.421  22.466  0.0005  0.3030 -0.0076
23684W        W66596   4.238  10.265  21.422  0.0654 -0.0588  0.2200
23685W        W66597   6.363  10.013  19.207 -0.0525  0.2569  0.0371
23686W        W66598   5.505  10.091  23.394 -0.1105  0.1624  0.1991
23687W        W66599   4.394  11.409  21.330  0.0375  0.0239  0.0462
23688W        W66600   8.141   7.232  22.726 -0.1731 -0.2776 -0.0474
23689W        W66601   3.454  10.457  22.051  0.2981  0.2167 -0.0478
23690W        W66602   4.036   8.449  21.752  0.0528  0.0012 -0.0742
23691W        W66603   3.864   8.038  20.561 -0.3547 -0.5162  0.1393
23692W        W66604   7.009   8.057  22.352  0.2110 -0.4557  0.3873
23693W        W66605   5.170   8.985  20.203 -0.0317 -0.1440  0.0558
23694W        W66606   5.824   7.979  22.843 -0.3321  0.0879  0.1721
23695W        W66607   4.264   7.301  22.361 -0.0788  0.2304 -0.0682
23696W        W66608   3.300  10.653  23.012 -0.2277 -0.0710 -0.1053
23697W        W66609   4.543   9.324  22.710  0.2221 -0.2239  0.0100
23698W        W66610   5.762   7.232  18.821 -0.0239  0.0772 -0.0583
23699W        W66611   5.389  11.017  22.197 -0.2437 -0.0639  0.0378
23700W        W66612   5.459   9.029  23.864  0.2856 -0.0427  0.0016
23701W        W66613   3.749   7.646  20.064 -0.0745  0.0356  0.0477
23702W        W66614   5.034   8.551  22.824  0.0759  0.1566  0.0188
23703W        W66615   5.596   7.324  21.279  0.0898 -0.4600 -0.1593
23704W        W66616   4.186   8.577  22.782  0.0242  0.0949 -0.0344
23705W        W66617   5.769  10.676  22.144 -0.0718 -0.0325 -0.0608
23706W        W66618   3.327   7.116  20.384 -0.1364 -0.0811 -0.0778
23707W        W66619   3.047  10.710  21.045 -0.1781 -0.1632  0.0892
23708W        W66620   4.399   7.277  23.221 -0.1760  0.1164  0.1334
23709W        W66621   5.475  10.204  21.987  0.1903 -0.0034  0.2002
23710W        W66622   5.328   7.688  22.974 -0.0608  0.1432 -0.1896
23711W        W66623   4.930   8.611  21.173  0.2222  0.1363  0.1303
23712W        W66624   4.443   8.976  20.457  0.0798  0.0912  0.1724
23713W        W66625   4.790  10.649  20.438 -0.4501 -0.2130 -0.0483
23714W        W66626   5.758   8.649  23.474 -0.3018  0.4066 -0.1973
23715W        W66627   3.690  10.354  25.271  0.1258  0.0538  0.2110
23716W        W66628   6.533   6.554  21.795 -0.1729  0.1581  0.1560
23717W        W66629   6.831  11.063  21.200  0.0483  0.2605 -0.1245
23718W        W66630   5.986   8.884  24.068 -0.1601 -0.1029 -0.3861
23719W        W66631   4.958   9.917  19.855  0.0766  0.0248  0.0999
23720W        W66632   3.843   9.431  22.367 -0.1503 -0.1634 -0.2702
23721W        W66633   4.310  10.659  21.660  0.1674 -0.0409  0.0379
23722W        W66634   6.525   9.171  21.743  0.0824  0.2590 -0.1832
23723W        W66635   2.552  10.390  22.533 -0.0020  0.0339  0.0233
23724W        W66636   4.201  10.698  18.642 -0.1041  0.0399 -0.0586
23725W        W66637   3.056   9.271  23.263 -0.3168 -0.0176 -0.1031
23726W        W66638   5.707   6.940  20.817 -0.3580  0.0776  0.1882
23727W        W66639   6.053  10.266  20.193 -0.3875  0.0031 -0.3222
23728W        W66640   6.160   6.185  21.072  0.1116  0.1330  0.0584
23729W        W66641   7.748   7.478  25.012  0.2299 -0.1365  0.0041
23730W        W66642   5.565   8.740  20.232 -0.0939  0.0874  0.0762
23731W        W66643   7.710   7.744  24.466 -0.0336 -0.2177 -0.0685
23732W        W66644   6.240   8.388  21.649  0.0519 -0.0052  0.1230
23733W        W66645   6.847   9.607  21.631  0.1935  0.0599 -0.2770
23734W        W66646   5.347   6.329  22.684 -0.3524 -0.2059  0.0134
23735W        W66647   6.667  12.369  24.188  0.3738  0.2404 -0.1658
23736W        W66648   3.180   8.846  24.877 -0.0355 -0.0961  0.0751
23737W        W66649   5.809   8.112  21.559 -0.2614 -0.2266 -0.0114
23738W        W66650   5.020   8.119  21.119 -0.0347  0.1754 -0.0667
23739W        W66651   4.676   9.136  21.786  0.1885 -0.1801  0.4048
23740W        W66652   6.502   8.815  21.445  0.2181  0.1477  0.2196
23741W        W66653   5.008   9.628  20.454  0.2877 -0.1791  0.1543
23742W        W66654   5.664   8.924  21.251  0.1010 -0.1227  0.2364
23743W        W66655   4.296   8.426  24.453  0.0271  0.0099 -0.2942
23744W        W66656   5.395   9.603  21.493 -0.2074  0.2877 -0.0329
23745W        W66657   5.805   9.248  19.803 -0.2693 -0.3442 -0.1265
23746W        W66658   3.603   8.905  22.785 -0.1268  0.0731  0.1390
23747W        W66659   4.508   6.874  23.913  0.1758  0.0292  0.3492
23748W        W66660   5.484   8.946  22.867 -0.2209  0.1940  0.1228
23749W        W66661   4.570   8.429  22.432 -0.2754  0.2627  0.0518
23750W        W66662   3.616   7.622  21.097 -0.0416  0.0061  0.0963
23751W        W66663   5.158   9.628  22.325 -0.1836  0.2256  0.1861
23752W        W66664   4.121   7.613  24.687  0.0103 -0.2358 -0.0944
23753W        W66665   3.733   8.333  23.596  0.0742 -0.0475 -0.1435
23754W        W66666   4.944  10.729  22.303 -0.1249 -0.1664  0.1809
23755W        W66667   5.254   9.511  19.998 -0.0441  0.0107 -0.2787
23756W        W66668   6.838   9.124  22.569  0.2117 -0.1645 -0.2723
23757W        W66669   6.132   9.368  20.601  0.1901  0.1271 -0.1703
23758W        W66670   6.021   8.167  19.760  0.0824  0.2421  0.0667
23759W        W66671   4.288   7.990  21.923 -0.1248 -0.1034  0.2886
23760W        W66672   5.582   9.485  22.709 -0.4203 -0.0976 -0.0331
23761W        W66673   4.748   7.904  19.641 -0.3051 -0.1361 -0.0691
23762W        W66674   5.930   7.799  23.846  0.0919  0.1087  0.1743
23763W        W66675   3.999  10.723  20.385 -0.1159  0.0784  0.1666
23764W        W66676   5.547  10.586  20.886  0.1345  0.2300  0.0247
23765W        W66677   4.797   7.741  21.711 -0.0889 -0.2502 -0.0356
23766W        W66678   5.155   7.421  22.504 -0.1772 -0.1095 -0.1082
23767W        W66679   4.478  10.664  23.783 -0.1160  0.0028  0.0494
23768W        W66680   3.982   7.245  20.323  0.3489  0.0782  0.2124
23769W        W66681   4.956   9.851  18.953 -0.0009  0.1487 -0.0257
23770W        W66682   4.966  10.268  22.028  0.0854 -0.0819 -0.2157
23771W        W66683   5.919   9.116  23.597  0.1354 -0.0712  0.0692
23772W        W66684   4.911   6.654  20.218  0.1002  0.0936  0.1495
23773W        W66685   6.470   9.305  22.290 -0.1805  0.3110 -0.0916
23774W        W66686   4.508  10.364  22.029  0.4393 -0.1146  0.0354
23775W        W66687   6.110   6.731  21.080  0.2695  0.0908 -0.0845
23776W        W66688   4.456  10.745  22.369  0.1732 -0.1300 -0.0039
23777W        W66689   2.755   9.865  23.272 -0.0092  0.0162  0.3377
23778W        W66690   4.286  12.021  20.770  0.2696  0.1296  0.2475
23779W        W66691   6.346   5.962  23.377 -0.1748 -0.0061 -0.1407
23780W        W66692   6.007   8.802  21.623  0.2296 -0.1049 -0.0010
23781W        W66693   4.772  10.555  21.540  0.0916  0.2504  0.0129
23782W        W66694   7.243   8.738  22.954 -0.1368 -0.2217  0.1805
23783W        W66695   6.151  10.798  21.619  0.0854  0.0858  0.2256
23784W        W66696   4.591   7.373  23.820  0.1726 -0.1692  0.0535
23785W        W66697   6.103  11.548  24.172 -0.1452 -0.2042 -0.0876
23786W        W66698   6.567   8.387  22.514  0.0195  0.0033 -0.1504
23787W        W66699   4.343  10.376  20.543  0.2631 -0.1810  0.0812
23788W        W66700   4.388   8.919  24.269  0.0400 -0.0300  0.1942
23789W        W66701   4.793   9.808  24.180 -0.2141  0.2137  0.1688
23790W        W66702   6.171  10.250  21.531  0.0956  0.2070 -0.1451
23791W        W66703   5.444   6.461  19.921  0.2496  0.1242 -0.2386
23792W        W66704   4.889  10.252  18.579  0.0062  0.4714 -0.1411
23793W        W66705   2.516  10.022  24.723 -0.0225  0.2546  0.1471
23794W        W66706   4.044   9.180  22.810  0.3118  0.0733  0.0761
23795W        W66707   3.770  11.036  20.792 -0.1279  0.0053  0.0493
23796W        W66708   5.878  10.994  20.781  0.1161 -0.1438  0.1101
23797W        W66709   5.608   9.305  20.307  0.2614  0.0075  0.0856
23798W        W66710   5.665  11.068  21.301  0.0642  0.0465  0.1887
23799W        W66711   4.521   8.860  19.634  0.3056  0.1174 -0.0663
23800W        W66712   5.122  11.554  20.868 -0.1372  0.1491 -0.0983
23801W        W66713   3.211  10.245  19.593 -0.1917 -0.0627 -0.1884
23802W        W66714   6.543   9.389  21.301  0.2411 -0.2074 -0.1632
23803W        W66715   4.426  10.954  20.227  0.2374 -0.2255  0.2472
23804W        W66716   5.027   9.303  23.364 -0.0313 -0.0114  0.0133
23805W        W66717   7.118   8.458  21.932 -0.2610 -0.2997 -0.2121
23806W        W66718   6.245   9.748  21.528  0.1990  0.1062 -0.0712
23807W        W66719   7.508   8.888  21.828 -0.0144  0.2739 -0.0538
23808W        W66720   5.524  10.926  22.880 -0.0443  0.0003  0.0311
23809W        W66721   4.733   9.918  22.311  0.2962  0.2323  0.0724
23810W        W66722   5.071   7.380  20.432  0.2350  0.0327  0.2512
23811W        W66723   4.593   7.780  23.313  0.0002 -0.4353 -0.0563
23812W        W66724   6.928   8.043  23.669  0.0155  0.0327 -0.1855
23813W        W66725   3.753  10.020  20.825  0.0207 -0.1458 -0.2750
23814W        W66726   6.086   9.929  20.585  0.0565  0.0476 -0.1134
23815W        W66727   2.737   7.776  21.528  0.1415 -0.0927 -0.2594
23816W        W66728   5.780   8.454  21.946 -0.1037 -0.0711 -0.1838
23817W        W66729   6.596   7.062  23.131 -0.0706  0.1032  0.1473
23818W        W66730   5.125  10.077  20.431 -0.4573  0.3004  0.0065
23819W        W66731   4.748   8.169  22.009  0.0117  0.0128  0.1116
23820W        W66732   3.941  11.252  21.222 -0.0134  0.2437 -0.1817
23821W        W66733   4.092  10.737  21.138 -0.1220  0.2875 -0.0934
23822W        W66734   4.353  11.261  22.295  0.0152 -0.1041 -0.3490
23823W        W66735   3.329   8.833  21.139 -0.1326  0.2217  0.2169
23824W        W66736   7.842   9.248  21.299 -0.0274  0.2003 -0.2761
23825W        W66737   5.521   8.597  22.522  0.0155  0.1266  0.0467
23826W        W66738   5.838   8.502  22.985  0.0190  0.1521 -0.3456
23827W        W66739   4.205   8.444  19.879  0.0001  0.4523  0.1366
23828W        W66740   5.584   9.135  21.664  0.1565  0.2877 -0.4441
23829W        W66741   4.914   8.686  22.200 -0.0063  0.0166 -0.0776
23830W        W66742   3.489   6.881  22.624  0.1642 -0.0541  0.3383
23831W        W66743   5.304   8.084  21.628 -0.0579 -0.0011  0.0290
23832W        W66744   5.936   9.862  23.472 -0.0355 -0.0059  0.0311
23833W        W66745   5.545   8.304  19.790 -0.1839  0.0916  0.5092
23834W        W66746   5.895  11.888  22.964  0.1185  0.2332 -0.0673
23835W        W66747   4.763   6.825  21.886 -0.1105  0.2050 -0.0273
23836W        W66748   5.891   7.579  18.456  0.2511 -0.1013  0.3018
23837W        W66749   4.305   9.394  22.118 -0.0707  0.2936 -0.0133
23838W        W66750   5.004   9.325  24.339  0.0308 -0.1183  0.4616
23839W        W66751   5.774  10.478  23.469  0.0716  0.0476  0.0573
23840W        W66752   5.297   6.686  20.903  0.2846 -0.2621 -0.0146
23841W        W66753   7.018  11.535  19.893  0.1697 -0.0724  0.2693
23842W        W66754   5.268  10.276  21.537  0.1421  0.2439  0.0331
23843W        W66755   3.581  10.739  21.137 -0.0384  0.0508 -0.0515
23844W        W66756   6.158   8.898  21.041 -0.0056 -0.2524  0.1874
23845W        W66757   6.386   8.855  22.493  0.0605  0.1500  0.1590
23846W        W66758   3.872   7.200  22.866  0.0308 -0.0339 -0.3881
23847W        W66759   6.353  10.129  22.739  0.1091 -0.0358 -0.2029
23848W        W66760   7.405   9.757  22.902  0.2192  0.1290  0.0965
23849W        W66761   6.095   6.049  19.795  0.3751 -0.4971 -0.2680
23850W        W66762   4.599   8.815  22.791  0.1932 -0.2638 -0.0490
23851W        W66763   3.576  11.102  21.533  0.2139  0.1458  0.1341
23852W        W66764   6.992   8.612  22.419 -0.2034 -0.0084 -0.0371
23853W        W66765   5.410   6.897  23.492  0.1382  0.3087  0.0593
23854W        W66766   6.164  11.941  20.484  0.4202  0.2410  0.0426
23855W        W66767   7.310   6.682  22.323  0.2017  0.2087 -0.1057
23856W        W66768   4.489  10.142  23.771  0.0467  0.2353 -0.3158
23857W        W66769   5.239  11.074  23.245  0.0705 -0.2271  0.3334
23858W        W66770   4.528   8.467  20.930  0.3157 -0.2437  0.0215
23859W        W66771   5.673  10.154  24.468 -0.2816 -0.0376  0.2928
23860W        W66772   4.470   9.710  21.301 -0.0258  0.1881  0.2244
23861W        W66773   5.668  12.657  21.410 -0.1006  0.3905  0.0709
23862W        W66774   5.809  11.170  21.753 -0.1631 -0.0990 -0.0877
23863W        W66775   5.125   7.910  20.028  0.4448 -0.3481 -0.1264
23864W        W66776   7.818   9.656  21.584 -0.1598  0.1450  0.1204
23865W        W66777   5.624   7.663  21.727 -0.0931  0.3083 -0.1688
23866W        W66778   7.623   7.414  19.593  0.2383  0.2310  0.0269
23867W        W66779   5.186   8.026  20.536 -0.0843 -0.1409 -0.0171
23868W        W66780   4.767  10.468  23.391  0.2653  0.0212 -0.0377
23869W        W66781   3.112   8.765  19.543  0.0884 -0.0010 -0.0330
23870W        W66782   4.898   8.830  18.711  0.1165  0.1535 -0.0255
23871W        W66783   3.873   8.940  22.339 -0.1435 -0.3966 -0.0918
23872W        W66784   5.269   8.202  23.463 -0.1115  0.1298  0.1439
23873W        W66785   3.907  10.202  22.868 -0.2140  0.0598  0.1865
23874W        W66786   2.758   8.685  22.356 -0.1827 -0.1965 -0.0508
23875W        W66787   4.287   8.608  23.363 -0.2071  0.1021  0.0648
23876W        W66788   6.600  11.322  19.679 -0.1511  0.0912 -0.0963
23877W        W66789   6.082   6.125  22.982 -0.2501  0.0373  0.0689
23878W        W66790   4.252   7.719  21.462 -0.1914 -0.1099 -0.3412
23879W        W66791   6.087   9.018  20.145  0.0493  0.1284 -0.1450
23880W        W66792   7.056   9.413  21.163  0.0817 -0.1531 -0.1613
23881W        W66793   5.784   6.478  20.663 -0.1984  0.0122  0.1233
23882W        W66794   5.512  10.423  22.991  0.1049 -0.0426  0.1669
23883W        W66795   3.079   9.031  21.480  0.0368 -0.0967 -0.2022
23884W        W66796   5.397   8.731  24.287 -0.1413  0.2618  0.1622
23885W        W66797   4.959   7.424  23.276  0.0254 -0.1289  0.1152
23886W        W66798   4.197   6.954  20.746 -0.3047 -0.1799  0.1669
23887W        W66799   4.206   8.960  21.052 -0.0863 -0.4431  0.0488
23888W        W66800   5.556  11.729  21.003  0.0541  0.1300  0.2777
23889W        W66801   5.298  10.410  19.532 -0.4375  0.2026  0.1006
23890W        W66802   4.700   9.662  23.729 -0.2180 -0.0196 -0.0987
23891W        W66803   5.407   9.750  24.320  0.1893 -0.0268  0.0637
23892W        W66804   5.011   6.156  23.839 -0.0067 -0.0244 -0.1481
23893W        W66805   7.587  10.153  20.056 -0.1527 -0.0681 -0.0291
23894W        W66806   4.072   7.732  23.650 -0.1690 -0.1673  0.1489
23895W        W66807   7.034  10.323  21.299  0.2366  0.2822  0.1133
23896W        W66808   5.430   7.797  21.123 -0.2270 -0.1423  0.0606
23897W        W66809   5.459   8.653  21.621  0.0648 -0.1825 -0.0737
23898W        W66810   3.927   8.007  23.227 -0.2815 -0.1673 -0.2608
23899W        W66811   4.854   8.799  23.248  0.1164 -0.0285 -0.3950
23900W        W66812   6.291   8.052  21.238  0.1948  0.0253 -0.2547
23901W        W66813   5.175   7.474  21.422  0.2426 -0.0486 -0.1352
23902W        W66814   5.173   9.286  21.852 -0.0440 -0.0434  0.1593
23903W        W66815   4.956   9.456  19.542 -0.1008  0.1943  0.0369
23904W        W66816   4.698   8.290  23.499 -0.1219  0.0349  0.2214
23905W        W66817   4.560   7.846  21.150 -0.3066 -0.2046  0.0283
23906W        W66818   3.775   8.562  23.106  0.0110  0.2302  0.0534
23907W        W66819   7.072   8.800  21.512 -0.4334  0.1659 -0.0594
23908W        W66820   7.544   8.001  22.242  0.2902 -0.1356  0.1024
23909W        W66821   4.083   8.455  20.771  0.0477 -0.0141 -0.1046
23910W        W66822   6.573   7.741  20.548  0.2204 -0.2171  0.0248
23911W        W66823   5.288  10.595  23.383 -0.0192  0.2885 -0.1607
23912W        W66824   5.077  10.215  23.083  0.4671 -0.4799 -0.0136
23913W        W66825   4.917  11.851  23.094 -0.2748  0.0618  0.0547
23914W        W66826   6.646  10.231  22.186  0.2116  0.1323 -0.0810
23915W        W66827   4.459   7.913  22.547 -0.3538  0.0602 -0.0493
23916W        W66828   5.294   9.365  20.789  0.0090 -0.0420 -0.3124
23917W        W66829   5.480   9.556  23.338 -0.0125  0.0375 -0.0682
23918W        W66830   6.443   7.239  22.415 -0.0576 -0.1740 -0.1678
23919W        W66831   5.228   7.742  22.031 -0.0919  0.1525 -0.5346
23920W        W66832   5.653   6.302  21.133  0.2238 -0.1872 -0.0146
23921W        W66833   4.035  10.633  22.697  0.2387 -0.0864  0.1050
23922W        W66834   5.383   9.129  22.395  0.2087 -0.2077 -0.0498
23923W        W66835   4.096   9.604  26.977 -0.1140 -0.1403 -0.3502
23924W        W66836   5.504   8.811  24.982  0.1803 -0.2625 -0.1618
23925W        W66837   5.937   8.958  22.685  0.1912 -0.2848 -0.3049
23926W        W66838   5.783   9.199  25.129  0.0448  0.0713  0.0675
23927W        W66839   2.846   6.659  25.103  0.1179  0.0465  0.2171
23928W        W66840   6.037  10.440  24.287 -0.2348 -0.0785 -0.0724
23929W        W66841   2.950   7.282  26.097  0.0140 -0.3834  0.1800
23930W        W66842   5.631   9.937  27.216  0.0753 -0.1968  0.2120
23931W        W66843   6.007  10.923  26.930  0.1747  0.0666 -0.2699
23932W        W66844   5.056   9.799  23.407 -0.1981 -0.0120  0.1199
23933W        W66845   4.527   7.631  27.054  0.3843 -0.3956 -0.1942
23934W        W66846   4.954   8.428  26.869  0.0204 -0.1168  0.0425
23935W        W66847   5.193   8.514  24.660  0.1456 -0.0841  0.0239
23936W        W66848   3.074   7.359  25.604 -0.0993  0.1973 -0.1019
23937W        W66849   7.790   9.303  25.460  0.2300  0.0562 -0.0172
23938W        W66850   3.926   9.534  25.723 -0.0584 -0.1382  0.3649
23939W        W66851   5.208   7.371  26.515  0.2174  0.0666  0.0160
23940W        W66852   5.628   6.691  26.217  0.1504 -0.2014 -0.2058
23941W        W66853   6.809  10.405  25.368  0.0676 -0.2210  0.1451
23942W        W66854   4.418   8.365  26.482 -0.2808 -0.2521  0.2296
23943W        W66855   6.553   8.047  26.515  0.1885  0.1917  0.0378
23944W        W66856   3.886  10.720  25.541 -0.0307 -0.0298  0.0408
23945W        W66857   3.615   9.813  21.977  0.2674  0.0758 -0.1041
23946W        W66858   3.323   7.988  26.298  0.1725  0.0751 -0.2202
23947W        W66859   5.206   8.123  26.009  0.0184  0.0167 -0.1676
23948W        W66860   5.534   7.634  25.961  0.0610  0.2377  0.2411
23949W        W66861   6.261   9.807  24.988  0.2132  0.1145 -0.1331
23950W        W66862   4.549  10.706  26.286 -0.0318 -0.0800  0.2112
23951W        W66863   4.826   9.976  27.493  0.0591 -0.5246 -0.0483
23952W        W66864   6.833   8.233  26.856  0.2608 -0.1458 -0.2164
23953W        W66865   4.328  10.643  25.789 -0.2641  0.1841 -0.0539
23954W        W66866   4.082  12.422  26.266  0.1986  0.0160  0.0894
23955W        W66867   5.457  10.546  25.285 -0.3216 -0.0120  0.0811
23956W        W66868   6.909  10.928  23.344 -0.0902 -0.3552  0.0335
23957W        W66869   5.965  11.400  26.746  0.0453  0.0838  0.0919
23958W        W66870   5.228  10.251  26.341  0.0805 -0.3403 -0.1215
23959W        W66871   4.226   9.645  23.567  0.0794 -0.1471 -0.1052
23960W        W66872   4.666  11.885  27.492  0.0873  0.5764 -0.0625
23961W        W66873   4.623   9.376  26.818  0.1024 -0.0590 -0.2067
23962W        W66874   5.551   7.948  27.416  0.1354  0.0038 -0.1583
23963W        W66875   5.517  10.428  23.958 -0.2795 -0.0426  0.4364
23964W        W66876   6.485  10.822  26.344  0.1242  0.1192  0.0649
23965W        W66877   4.935  10.527  25.107  0.2862 -0.0510  0.0523
23966W        W66878   4.552   8.871  26.639 -0.2744 -0.0684  0.2354
23967W        W66879   4.135   9.125  23.845  0.2157  0.1271 -0.1400
23968W        W66880   7.646   8.128  27.686 -0.1213 -0.0913  0.0578
23969W        W66881   4.199   9.701  24.109 -0.0270 -0.0910 -0.0074
23970W        W66882   6.146   9.667  22.804  0.2917 -0.0171 -0.0550
23971W        W66883   5.760   7.227  23.713 -0.1295  0.0577  0.3054
23972W        W66884   5.847   7.498  23.087 -0.1810 -0.3866 -0.4269
23973W        W66885   5.672   8.344  24.845  0.0446  0.1530  0.2777
23974W        W66886   4.416  10.228  26.619  0.0936 -0.0310  0.1990
23975W        W66887   4.046   8.469  24.901  0.3255 -0.2601  0.1338
23976W        W66888   7.172  10.019  27.273  0.1418  0.1269 -0.0154
23977W        W66889   5.938   8.742  25.068  0.0106 -0.0517 -0.0758
23978W        W66890   6.811   7.607  25.551 -0.0678 -0.0971  0.1999
23979W        W66891   5.039  10.366  28.041  0.2613  0.2469  0.1095
23980W        W66892   5.430   7.944  25.558 -0.1644 -0.0756  0.0692
23981W        W66893   6.740   9.532  24.243 -0.1695 -0.3557 -0.0436
23982W        W66894   8.270  11.045  24.665  0.0009 -0.0122 -0.1217
23983W        W66895   5.439  10.893  23.784 -0.0016 -0.0033 -0.0504
23984W        W66896   4.067   8.619  25.773 -0.1443  0.0258  0.0155
23985W        W66897   2.388   9.069  26.622  0.1132  0.3209  0.1138
23986W        W66898   4.034  10.067  26.966 -0.0367 -0.2157  0.2671
23987W        W66899   4.964   7.057  24.146 -0.0676  0.0710  0.0021
23988W        W66900   6.888   8.648  27.708 -0.1750  0.0414 -0.1736
23989W        W66901   3.576  10.685  26.441  0.0257 -0.2460  0.3719
23990W        W66902   6.542   8.215  26.078 -0.1914  0.1891 -0.0139
23991W        W66903   5.239   9.734  27.467 -0.0334 -0.0309 -0.3264
23992W        W66904   6.625  10.528  25.932  0.3039  0.1465  0.1300
23993W        W66905   5.523   9.962  23.880  0.1556 -0.1438 -0.0578
23994W        W66906   7.688   7.648  26.611 -0.0300  0.1709  0.0663
23995W        W66907   6.467   7.776  26.999  0.0427 -0.0204 -0.0967
23996W        W66908   3.248   9.588  24.065 -0.0935 -0.1984  0.3262
23997W        W66909   4.953   8.610  26.175 -0.2106  0.0541 -0.1485
23998W        W66910   8.268  10.921  26.509  0.1290 -0.0662 -0.1724
23999W        W66911   7.323   9.589  25.049  0.2329  0.1095 -0.1161
24000W        W66912   4.047   9.877  26.406  0.0522 -0.0879  0.1641
24001W        W66913   5.448   8.248  26.955 -0.1661 -0.4040 -0.2213
24002W        W66914   4.193   8.940  28.201 -0.0200 -0.3279 -0.1862
24003W        W66915   3.576   9.523  23.656  0.1506 -0.1508 -0.2539
24004W        W66916   2.866   9.188  24.032  0.0375  0.1257  0.1267
24005W        W66917   4.701   9.644  25.505  0.0899 -0.0737  0.1519
24006W        W66918   3.498   7.510  26.096 -0.1105  0.0040 -0.1870
24007W        W66919   5.127  11.573  27.326 -0.2438  0.1526  0.3001
24008W        W66920   5.806   7.425  24.270  0.0643 -0.2778  0.0468
24009W        W66921   3.844   7.818  26.155  0.0315 -0.2623  0.0180
24010W        W66922   6.060   8.448  26.147 -0.1787  0.2880 -0.0414
24011W        W66923   5.423   9.372  24.698 -0.0673 -0.0230 -0.0738
24012W        W66924   7.493  10.377  24.819 -0.1615  0.0577  0.0869
24013W        W66925   6.414   9.054  24.333 -0.0616  0.1063  0.0211
24014W        W66926   6.351   9.570  24.516 -0.0100 -0.2162  0.3698
24015W        W66927   3.654   9.666  26.719 -0.0232 -0.3239 -0.0793
24016W        W66928   4.836   8.201  24.428  0.1181 -0.1438  0.3270
24017W        W66929   4.803   7.451  27.901  0.0745  0.0021  0.0663
24018W        W66930   2.558   7.235  25.696  0.2538  0.3789  0.1327
24019W        W66931   6.539   9.546  28.831 -0.0762  0.1435  0.2818
24020W        W66932   3.275   7.076  23.700 -0.3859 -0.1055 -0.0007
24021W        W66933   6.015   8.529  25.584  0.0594  0.2361  0.0220
24022W        W66934   5.551   8.647  26.053  0.0366  0.0620 -0.1639
24023W        W66935   3.645   9.225  24.079 -0.2658  0.1240  0.1623
24024W        W66936   7.642   5.058  26.654  0.2374 -0.1587 -0.1703
24025W        W66937   5.283  10.831  25.723 -0.1117  0.0481  0.3268
24026W        W66938   8.526   9.659  27.536  0.0900 -0.0425  0.1158
24027W        W66939   7.902  11.478  24.469  0.0111  0.1827  0.1156
24028W        W66940   4.890   6.159  26.143  0.0781 -0.2214 -0.1598
24029W        W66941   4.900   9.216  25.804  0.0373 -0.1091 -0.0486
24030W        W66942   4.647  10.202  25.670  0.2496  0.0162  0.0947
24031W        W66943   4.839  11.732  26.496  0.0820 -0.0906 -0.0746
24032W        W66944   4.982   7.814  23.572  0.0689 -0.1857 -0.1100
24033W        W66945   7.036  10.738  26.155  0.1618 -0.2977  0.1063
24034W        W66946   5.843   9.642  24.583  0.2337 -0.1002  0.0865
24035W        W66947   4.627  10.250  26.165 -0.1387  0.2621 -0.0931
24036W        W66948   6.147   7.325  26.885  0.0217  0.0044  0.0257
24037W        W66949   7.265   7.388  26.329  0.0674  0.0897  0.4630
24038W        W66950   6.897   9.919  26.035  0.2134  0.1507  0.1080
24039W        W66951   4.004   7.189  24.933  0.1056  0.0001  0.0748
24040W        W66952   6.587  10.766  25.041  0.0409  0.3181 -0.0353
24041W        W66953   3.675  10.817  23.993 -0.0939 -0.0266  0.0972
24042W        W66954   3.146   8.545  23.642  0.1258  0.2902  0.0691
24043W        W66955   5.169  10.026  25.165 -0.1330 -0.0320  0.1356
24044W        W66956   7.219   7.542  25.843 -0.0684  0.0097 -0.1761
24045W        W66957   2.241   8.683  27.795  0.0136  0.1323 -0.0431
24046W        W66958   6.300   8.843  28.450  0.2044  0.0741  0.2531
24047W        W66959   5.032   8.253  23.952 -0.0021 -0.1440 -0.0961
24048W        W66960   5.630  12.642  27.500 -0.1339  0.0294 -0.1399
24049W        W66961   5.956   8.124  25.301 -0.2458 -0.0510  0.0084
24050W        W66962   7.300   8.644  24.931  0.1804  0.0634 -0.4710
24051W        W66963   5.422   7.937  27.937  0.1315 -0.3165  0.1702
24052W        W66964   6.980   8.353  26.303  0.2484  0.2609  0.0799
24053W        W66965   6.228   9.461  23.582 -0.2447 -0.0778 -0.2303
24054W        W66966   5.888   6.990  23.217  0.0852  0.0376 -0.3495
24055W        W66967   4.199  11.454  27.785 -0.0560  0.0546  0.0819
24056W        W66968   5.642  10.605  24.685  0.0527  0.2352  0.0458
24057W        W66969   5.205   8.002  26.499 -0.2115  0.0206 -0.0375
24058W        W66970   5.401   8.208  22.850  0.1045  0.1145  0.1435
24059W        W66971   6.570  10.527  24.481  0.1870 -0.1925 -0.2016
24060W        W66972   4.540   9.239  26.201 -0.0826 -0.0174 -0.0375
24061W        W66973   6.734   9.615  26.851 -0.0354 -0.1320 -0.1581
24062W        W66974   6.175  10.079  24.576  0.1042  0.0427  0.2144
24063W        W66975   4.979   7.347  25.689  0.2847  0.0528 -0.4262
24064W        W66976   5.167   9.511  23.899  0.0202 -0.2898  0.1660
24065W        W66977   6.435   9.151  25.861  0.1718  0.1389 -0.0547
24066W        W66978   3.066   9.848  22.693  0.2001  0.0777 -0.2042
24067W        W66979   6.310   8.896  26.266  0.1964 -0.3498 -0.0276
24068W        W66980   4.687   7.887  25.788 -0.0525  0.1704  0.0598
24069W        W66981   5.371   7.116  26.085  0.1745  0.1054  0.0614
24070W        W66982   7.772   8.537  27.359 -0.2758  0.1295  0.0736
24071W        W66983   7.253   8.182  25.079  0.1211 -0.1220 -0.0173
24072W        W66984   6.273   9.686  26.967  0.0263  0.1151  0.2910
24073W        W66985   4.010   8.470  24.078  0.3284  0.1988 -0.3273
24074W        W66986   4.051   6.543  26.924 -0.1408 -0.4086 -0.0701
24075W        W66987   4.003   9.064  26.003 -0.1526  0.0742 -0.2737
24076W        W66988   3.575  11.176  26.198  0.2825  0.1244  0.1316
24077W        W66989   3.668  10.483  27.176 -0.1684  0.2954 -0.3971
24078W        W66990   6.168   8.994  25.466  0.0852  0.1123 -0.0302
24079W        W66991   5.469   7.388  27.897  0.1347 -0.2301 -0.2081
24080W        W66992   5.904   9.073  24.610 -0.2997  0.1531  0.4082
24081W        W66993   6.421  12.068  25.059  0.0304  0.1501 -0.3553
24082W        W66994   6.429   8.614  25.169 -0.1975  0.1882  0.1466
24083W        W66995   5.025   7.732  24.547  0.1146 -0.0738 -0.0816
24084W        W66996   4.216  10.395  25.350 -0.1587  0.2458  0.0891
24085W        W66997   3.523  10.780  22.510  0.0139 -0.2138  0.4127
24086W        W66998   6.297   8.882  26.920 -0.0138  0.1372 -0.1364
24087W        W66999   3.916  10.064  24.432  0.2306 -0.1008  0.2174
24088W        W67000   7.095   6.312  26.993  0.0209 -0.0639  0.2138
24089W        W67001   2.988   9.334  24.903  0.0265 -0.1922 -0.3139
24090W        W67002   5.520   7.865  24.055  0.0112 -0.0858  0.1913
24091W        W67003   4.816   8.066  24.947  0.0978  0.0036 -0.0214
24092W        W67004   5.785   7.345  26.373 -0.3264  0.1295  0.2458
24093W        W67005   7.501   9.870  24.689 -0.3135 -0.1055  0.3269
24094W        W67006   5.864   7.137  25.950 -0.0440  0.1869  0.5107
24095W        W67007   5.170   8.545  25.751  0.0118  0.4224  0.3851
24096W        W67008   4.549   9.350  27.325  0.3169 -0.0520 -0.0437
24097W        W67009   5.876   7.672  25.609  0.2381 -0.0577 -0.1452
24098W        W67010   6.843   7.848  25.115  0.0737  0.2122 -0.0212
24099W        W67011   7.651  10.008  26.416  0.0386  0.1744 -0.2442
24100W        W67012   5.058  10.184  27.060  0.4262  0.1934 -0.0038
24101W        W67013   2.991   8.454  25.176  0.1010  0.1250  0.1544
24102W        W67014   7.401   9.568  26.434 -0.0382  0.0948  0.1665
24103W        W67015   4.976   9.533  26.361 -0.3065  0.0357  0.3842
24104W        W67016   1.790  10.247  25.192 -0.0747  0.2815 -0.1488
24105W        W67017   7.355  10.950  24.750  0.0215 -0.1883 -0.0154
24106W        W67018   5.051   9.019  24.777 -0.1512  0.3337  0.2038
24107W        W67019   5.540   9.665  25.100 -0.2754  0.2595  0.1667
24108W        W67020   2.694   8.366  28.075  0.0942 -0.1444 -0.1780
24109W        W67021   6.056  10.597  26.500 -0.0894  0.1799  0.2293
24110W        W67022   5.012   9.272  27.415  0.0037  0.2536  0.0769
24111W        W67023   4.925   8.228  25.482  0.0612  0.0556  0.2478
24112W        W67024   5.294   9.822  25.879 -0.1845  0.0759  0.1002
24113W        W67025   7.739   9.408  26.050 -0.2518  0.2969  0.0338
24114W        W67026   6.180   8.195  27.095  0.0387 -0.1794  0.1288
24115W        W67027   4.719   8.908  27.137 -0.1970  0.0798  0.1811
24116W        W67028   6.768   7.230  25.935 -0.1602 -0.2546 -0.1611
24117W        W67029   6.852  11.151  24.816  0.1060  0.0279  0.3752
24118W        W67030   5.897   8.733  26.562  0.0415 -0.1123  0.0361
24119W        W67031   5.014   9.401  25.176  0.0974 -0.1556 -0.1989
24120W        W67032   4.130   9.017  24.843  0.1680 -0.0327  0.0263
24121W        W67033   4.825   9.793  25.958 -0.0186  0.0512 -0.3049
24122W        W67034   4.696   7.349  25.256  0.6300  0.1162 -0.3538
24123W        W67035   5.575  11.855  27.567  0.2368  0.1310  0.3368
24124W        W67036   4.549  10.660  24.431  0.1059 -0.1032  0.3231
24125W        W67037   3.615  10.186  26.241 -0.2894  0.2898  0.1564
24126W        W67038   8.152   5.650  25.072  0.1337  0.0229  0.1067
24127W        W67039   6.032  10.199  23.845 -0.3363  0.1664 -0.0269
24128W        W67040   5.365   9.490  25.493  0.2637  0.2125 -0.0418
24129W        W67041   8.152   9.119  26.495 -0.2289 -0.0916  0.2129
24130W        W67042   5.774   8.132  23.350  0.1546  0.0217  0.0872
24131W        W67043   7.927   7.167  27.141  0.3098 -0.1092 -0.0554
24132W        W67044   6.806   6.770  25.795 -0.2924 -0.0989  0.2014
24133W        W67045   8.176  10.761  25.116  0.0543 -0.2058  0.3101
24134W        W67046   3.892   7.089  25.551 -0.1016 -0.1719  0.0739
24135W        W67047   5.152  10.871  28.868 -0.0672  0.4321  0.0745
24136W        W67048   4.331   9.358  27.911  0.0884 -0.0160 -0.1689
24137W        W67049   5.912   7.978  24.335 -0.3405  0.1320 -0.2977
24138W        W67050   3.484   7.901  23.635 -0.0703  0.0891 -0.0154
24139W        W67051   6.093   8.280  26.612  0.1222 -0.0749 -0.2464
24140W        W67052   5.660  10.290  25.722 -0.3673 -0.0424 -0.0780
24141W        W67053   4.426   9.745  24.551 -0.2212 -0.2547 -0.1300
24142W        W67054   5.693   8.881  25.524  0.1361 -0.1091 -0.0151
24143W        W67055   4.041  10.559  26.787  0.0987  0.0433 -0.3875
24144W        W67056   5.891   9.355  25.579  0.0996 -0.1857  0.0713
24145W        W67057   3.987   9.724  24.800  0.1829  0.4540  0.1441
24146W        W67058   5.168   8.999  26.275 -0.1150 -0.2306 -0.3141
24147W        W67059   3.953   6.912  26.238 -0.0260  0.2265 -0.1786
24148W        W67060   5.814  10.059  24.949 -0.1181 -0.0225  0.0587
24149W        W67061   4.758   8.066  26.232 -0.3328 -0.2302 -0.0704
24150W        W67062   5.765   8.171  25.854 -0.2134 -0.2490 -0.0781
24151W        W67063   5.454   9.463  26.858  0.0008  0.2454  0.0359
24152W        W67064   4.660   7.996  26.696  0.2207  0.0189 -0.1273
24153W        W67065   4.310   7.569  27.913  0.1476  0.0041  0.0007
24154W        W67066   6.350  10.529  26.863  0.2021 -0.3487 -0.1378
24155W        W67067   6.251   8.743  23.622  0.0573 -0.0963  0.0730
24156W        W67068   6.034   7.826  26.765  0.1284  0.0548  0.3905
24157W        W67069   7.123   9.194  25.363 -0.2522  0.0654  0.0956
24158W        W67070   5.531   9.286  24.229  0.0328 -0.0377 -0.0853
24159W        W67071   4.802   6.892  25.092  0.0813  0.0077 -0.0870
24160W        W67072   5.996   9.264  26.771  0.1277 -0.1061 -0.0752
24161W        W67073   3.509   7.108  24.767  0.3901 -0.0752  0.2634
24162W        W67074   8.287   8.496  27.448  0.1003 -0.1396  0.1243
24163W        W67075   4.970   9.826  24.647  0.1317 -0.0862 -0.0869
24164W        W67076   5.154  10.296  25.592 -0.0816  0.4558 -0.1054
24165W        W67077   7.358   9.228  24.606  0.3531 -0.0513 -0.2974
24166W        W67078   5.375   6.883  26.582  0.0010 -0.2094  0.0818
24167W        W67079   4.176  10.673  27.250  0.2222  0.1097  0.3453
24168W        W67080   4.631   8.647  25.713  0.0288 -0.2784 -0.0205
24169W        W67081   4.947   8.054  23.112 -0.2046  0.0596 -0.1742
24170W        W67082   5.894   9.899  25.409  0.0061 -0.2584 -0.3110
24171W        W67083   7.948   9.379  27.562 -0.1327  0.1235  0.0273
24172W        W67084   5.823   6.870  24.403  0.0532 -0.3584  0.4207
24173W        W67085   6.810   8.825  26.265 -0.0004  0.1581  0.0341
24174W        W67086   3.273   9.066  23.711 -0.4040  0.0264  0.1262
24175W        W67087   5.188   7.179  25.103  0.0125  0.0166  0.1975
24176W        W67088   5.657  10.771  26.184  0.2563  0.2067 -0.1336
24177W        W67089   2.801   8.042  27.165 -0.3418  0.2458 -0.2185
24178W        W67090   4.116   9.355  24.440 -0.0495 -0.0454 -0.2997
24179W        W67091   6.050   7.812  26.140 -0.0735  0.2019 -0.2153
24180W        W67092   6.796  10.167  26.981 -0.2599 -0.1072  0.2504
24181W        W67093   6.058   9.390  26.313 -0.0937  0.5016  0.2693
24182W        W67094   8.762   8.162  26.418 -0.1376  0.0328  0.0616
24183W        W67095   5.657   9.948  27.825 -0.1902  0.3841 -0.1754
24184W        W67096   3.539   8.788  25.914 -0.0206 -0.3040 -0.1089
24185W        W67097   6.560  10.031  25.639 -0.2173  0.0465 -0.0198
24186W        W67098   6.691   9.993  24.790  0.1852  0.3056 -0.1665
24187W        W67099   3.649   9.683  25.196  0.1755 -0.0629 -0.0566
24188W        W67100   4.847   6.873  27.254  0.1261  0.1643 -0.0071
24189W        W67101   4.923   8.634  28.812 -0.1297  0.1320  0.0572
24190W        W67102   4.593  10.125  25.179  0.1917  0.2247  0.1951
24191W        W67103   4.600   7.497  24.330  0.1057  0.2852 -0.1333
24192W        W67104   5.316  11.469  23.841 -0.0197 -0.0332 -0.1919
24193W        W67105   3.127  10.246  27.832 -0.1843  0.3016  0.2581
24194W        W67106   5.560   8.439  25.376 -0.0636 -0.0883 -0.1310
24195W        W67107   4.364  11.177  24.912  0.4105 -0.0352  0.0048
24196W        W67108   6.027   9.336  24.218  0.2520  0.0431  0.1914
24197W        W67109   5.241   8.969  25.405  0.0829  0.1883 -0.2097
24198W        W67110   4.169   9.853  25.390 -0.1242  0.1301  0.2826
24199W        W67111   4.157   7.651  22.931 -0.0688 -0.0856 -0.0388
24200W        W67112   4.883  10.441  26.616  0.1363  0.1136 -0.0695
24201W        W67113   1.529  10.113  24.273 -0.1956 -0.4784  0.3865
24202W        W67114   6.739   9.573  23.659  0.0292  0.1514  0.1374
24203W        W67115   3.789   9.807  23.331 -0.2194  0.4509  0.1094
24204W        W67116   5.576  11.703  27.097  0.3760 -0.0544  0.2383
24205W        W67117   7.158   7.539  23.881 -0.2543  0.1918 -0.1176
24206W        W67118   6.136  10.620  26.004 -0.0453  0.2338  0.1514
24207W        W67119   7.020   8.622  25.427  0.0196 -0.1992  0.1000
24208W        W67120   6.187  11.984  28.088  0.0789  0.1059  0.0371
24209W        W67121   4.400   9.222  25.644  0.2306 -0.0887  0.1182
24210W        W67122   5.743   6.748  24.917 -0.1219 -0.3095  0.3798
24211W        W67123   4.093   9.501  27.513 -0.1631 -0.0343 -0.1288
24212W        W67124   6.914   6.894  28.750  0.3288  0.0969  0.1349
24213W        W67125   5.181  11.976  26.797 -0.2512 -0.0624 -0.0103
24214W        W67126   7.378  11.477  24.643  0.2630  0.0089 -0.0556
24215W        W67127   4.746   9.004  25.364  0.1529  0.1274  0.1651
24216W        W67128   5.872  11.143  24.690  0.1926  0.1176  0.0123
24217W        W67129   6.951   7.724  26.499 -0.1079  0.0086 -0.0820
24218W        W67130   5.121  10.218  23.719 -0.1144 -0.2415 -0.1874
24219W        W67131   6.875   9.499  26.337  0.0501 -0.3431  0.1386
24220W        W67132   3.509  10.358  25.754 -0.0587  0.3352  0.1048
24221W        W67133   4.931   9.659  27.108 -0.3738  0.1884 -0.2135
24222W        W67134   5.475  12.528  26.146 -0.1827  0.1218  0.1251
24223W        W67135   2.194   7.912  25.052 -0.0340 -0.0197  0.2324
24224W        W67136   6.703   7.740  26.047  0.1676  0.2745  0.0867
24225W        W67137   5.792   8.566  27.080 -0.0287  0.2681  0.0012
24226W        W67138   6.976   8.722  27.081  0.1167  0.1978  0.2297
24227W        W67139   4.325   8.221  25.554  0.3138 -0.1266 -0.1048
24228W        W67140   7.367   8.534  26.015  0.2091  0.0326  0.0645
24229W        W67141   5.039  10.933  26.759  0.3377 -0.0368 -0.3670
24230W        W67142   4.227   8.833  25.306  0.0232  0.0926  0.0894
24231W        W67143   5.474   8.424  23.950 -0.2974 -0.2231  0.1660
24232W        W67144   6.458   8.868  27.405  0.2352  0.0256  0.2387
24233W        W67145   6.310   9.686  24.011  0.3590  0.0901 -0.0939
24234W        W67146   7.476   9.652  25.535  0.1322  0.0001  0.0923
24235W        W67147   3.551   7.811  24.984 -0.3142 -0.0544 -0.0981
24236W        W67148   6.122   7.076  24.043  0.1399 -0.2470  0.0378
24237W        W67149   3.873   8.007  24.647  0.1252  0.0114 -0.1446
24238W        W67150   5.296   8.601  26.531  0.1521 -0.0924  0.0784
24239W        W67151   7.828  10.376  26.700 -0.2092 -0.0988 -0.1099
24240W        W67152   5.009   8.631  25.133 -0.0151  0.2787 -0.1010
24241W        W67153   6.469  10.062  23.680 -0.1540 -0.0971 -0.0290
24242W        W67154   6.254   8.066  25.734  0.1114  0.0653 -0.1505
24243W        W67155   4.075  11.002  24.131  0.1018 -0.2212  0.0391
24244W        W67156   6.965  10.829  25.629  0.0649  0.0789  0.2866
24245W        W67157   6.183  10.739  24.776  0.3453 -0.0478 -0.1443
24246W        W67158   3.722   7.771  26.624  0.1160  0.0497 -0.0062
24247W        W67159   4.955   9.945  26.672  0.3740 -0.0894  0.3673
24248W        W67160   8.414   9.074  26.996 -0.1971 -0.1651 -0.0266
24249W        W67161   6.334   7.638  24.258 -0.3578  0.1160 -0.1819
24250W        W67162   4.401   8.767  26.149 -0.3151  0.0973  0.1772
24251W        W67163   5.224  10.914  25.115 -0.0520  0.0018 -0.0585
24252W        W67164   7.485   8.575  25.412  0.1333  0.0876 -0.0303
24253W        W67165   6.857   6.992  25.307  0.3205  0.4798 -0.0478
24254W        W67166   4.918  10.595  24.020 -0.0232 -0.2150  0.0866
24255W        W67167   4.823   7.071  26.033  0.2035 -0.0706  0.1017
24256W        W67168   5.825   9.496  27.178  0.2915 -0.0535 -0.0903
24257W        W67169   4.825   8.570  27.431 -0.0523 -0.2271 -0.0802
24258W        W67170   4.337   9.653  25.992  0.0193  0.3172 -0.5049
24259W        W67171   5.652   9.154  26.393  0.4654 -0.0294 -0.1862
24260W        W67172   5.497   9.728  26.395  0.1576 -0.0625  0.0218
24261W        W67173   5.346  11.341  25.462  0.2895 -0.0221 -0.2399
24262W        W67174   6.755   9.486  25.701 -0.1826 -0.1319 -0.1477
24263W        W67175   4.855   8.701  24.237 -0.3312  0.0213  0.1507
24264W        W67176   9.244  11.177  23.288 -0.0453  0.2258  0.2694
24265W        W67177   5.100   7.430  26.976 -0.1181 -0.0787 -0.1471
24266W        W67178   6.624   7.259  24.451  0.0400 -0.0092 -0.1872
24267W        W67179   6.904   6.163  24.198 -0.0444  0.1536  0.1378
24268W        W67180   3.664   8.847  26.943 -0.2309  0.0014  0.3049
24269W        W67181   3.035   8.242  24.214  0.1948 -0.1580  0.1547
24270W        W67182   4.175  10.259  24.828  0.1487 -0.1170  0.1081
24271W        W67183   4.103   9.302  25.208 -0.1080  0.0993  0.2369
24272W        W67184   4.733   7.455  26.578  0.0831 -0.0103 -0.1129
24273W        W67185   4.638   7.841  27.537  0.1459 -0.1110 -0.2523
24274W        W67186   4.352   8.057  24.798  0.1564 -0.2669 -0.1923
24275W        W67187   3.880   8.919  24.406  0.1083  0.2832  0.1256
24276W        W67188   6.346  11.251  24.586  0.0174  0.2937 -0.2790
24277W        W67189   4.620   5.385  25.912  0.0263  0.1216 -0.5208
24278W        W67190   2.386   5.907  25.440  0.1881 -0.0200  0.1917
24279W        W67191   8.208  10.925  26.004 -0.1288  0.1151 -0.0876
24280W        W67192   6.865   8.821  24.069 -0.0825 -0.2153  0.3488
24281W        W67193   5.586   6.333  25.420 -0.2180 -0.0017 -0.2073
24282W        W67194   7.573   9.110  27.553  0.0106 -0.1716 -0.1640
24283W        W67195   4.207   8.200  23.633  0.2263 -0.3441  0.1558
24284W        W67196   5.495   8.474  27.620  0.2438 -0.0802 -0.0192
24285W        W67197   6.477   7.360  25.082 -0.1151  0.0226 -0.0599
24286W        W67198   4.314   7.047  24.395 -0.5238  0.1843 -0.1220
24287W        W67199   5.561   7.745  26.959  0.0063 -0.3353  0.2914
24288W        W67200   6.984  10.640  24.702  0.0569  0.0865  0.1267
24289W        W67201   6.077  12.499  24.865 -0.0039  0.2274 -0.2422
24290W        W67202   6.360   9.636  25.996  0.0768 -0.1429  0.0389
24291W        W67203   5.559  11.102  27.005 -0.2554  0.1198  0.0801
24292W        W67204   3.394   7.476  27.615  0.1020  0.1416  0.2557
24293W        W67205   6.883   8.892  24.976 -0.4679  0.4319  0.3401
24294W        W67206   5.502   9.372  25.956 -0.0476  0.0598 -0.2033
24295W        W67207   6.550  10.102  24.240 -0.0566 -0.5316 -0.0872
24296W        W67208   5.980   8.327  23.929  0.1428 -0.2238 -0.0138
24297W        W67209   4.594   8.817  24.854 -0.3125  0.0720 -0.0335
24298W        W67210   3.490   7.549  27.045 -0.1912 -0.1095 -0.0973
24299W        W67211   3.631  10.228  26.729  0.1631 -0.1043 -0.0087
24300W        W67212   7.063   9.608  27.619  0.1453 -0.0088 -0.2152
24301W        W67213   6.213   8.711  24.678  0.3031 -0.0284  0.2038
24302W        W67214   6.512   8.588  26.591  0.0468  0.1486 -0.0661
24303W        W67215   5.158  10.214  24.256  0.0150  0.1164 -0.0466
24304W        W67216   3.803   8.489  27.286  0.2302 -0.0218  0.2193
24305W        W67217   5.364   8.569  23.198  0.1412 -0.0240 -0.1473
24306W        W67218   5.943   8.637  28.209  0.1706 -0.3078 -0.1477
24307W        W67219   7.090  10.839  25.159  0.0915 -0.2676 -0.0826
24308W        W67220   6.305   9.364  27.359  0.3543 -0.2474  0.3305
24309W        W67221   5.712   5.928  23.434 -0.0914  0.0306  0.1154
24310W        W67222   7.431  10.112  24.134 -0.0135  0.0616  0.0628
24311W        W67223   4.660  10.905  27.258 -0.0067  0.0413 -0.1361
24312W        W67224   6.986   9.640  28.102 -0.0970  0.3049 -0.5062
24313W        W67225   4.596  10.452  27.635 -0.1637  0.1395  0.2701
24314W        W67226   6.310   9.519  25.448 -0.1231  0.1304 -0.1636
24315W        W67227   5.526   6.835  25.666  0.1916 -0.1553 -0.3095
24316W        W67228   4.826  10.621  25.859 -0.0519 -0.2232  0.1466
24317W        W67229   5.935   9.848  26.620  0.3541  0.1440  0.1800
24318W        W67230   7.859   7.522  27.526  0.1787  0.2060  0.2307
24319W        W67231   3.974   8.030  25.141 -0.2093 -0.0694 -0.2834
24320W        W67232   5.817   8.512  24.411  0.1546 -0.2899 -0.0898
24321W        W67233   4.542   9.762  26.454  0.2668 -0.3801  0.1626
24322W        W67234   5.786   9.762  25.967 -0.1839  0.4359  0.2016
24323W        W67235   4.344   8.456  31.341 -0.2855  0.1283 -0.2503
24324W        W67236   5.630   7.447  28.734 -0.0387  0.0859 -0.3133
24325W        W67237   7.262   8.350  27.317  0.1944 -0.1401  0.3042
24326W        W67238   7.476   9.475  27.840 -0.2110  0.0636  0.1566
24327W        W67239   4.203   7.992  27.330  0.1217 -0.2155 -0.0703
24328W        W67240   5.505  10.317  28.738 -0.2509 -0.1008 -0.0765
24329W        W67241   4.436   6.176  31.698 -0.0300  0.1013  0.2732
24330W        W67242   6.096   9.521  28.634  0.0985  0.1307 -0.1067
24331W        W67243   6.186   8.635  29.838 -0.2170  0.1985 -0.3263
24332W        W67244   5.166   8.824  27.709  0.2155  0.3281 -0.0002
24333W        W67245   5.040   8.427  29.976  0.4096  0.2131  0.1211
24334W        W67246   5.346   9.651  30.588 -0.2246 -0.0578  0.1601
24335W        W67247   4.594   8.097  28.682  0.0436 -0.0707 -0.1217
24336W        W67248   3.882   7.293  30.902 -0.1860  0.0876  0.2797
24337W        W67249   5.755   9.165  29.234 -0.0218  0.1256  0.4053
24338W        W67250   3.054   8.187  27.736 -0.4812 -0.0754 -0.0115
24339W        W67251   5.606   8.459  29.758  0.0482  0.0114 -0.1285
24340W        W67252   4.515   7.243  28.800  0.0259  0.3340  0.3214
24341W        W67253   5.165   9.897  29.806  0.3688  0.3380  0.2871
24342W        W67254   5.536   7.111  30.381  0.0625  0.0078  0.0552
24343W        W67255   6.064   7.088  30.203  0.1506 -0.1337 -0.1738
24344W        W67256   4.698   9.970  28.107  0.0907  0.0832 -0.2204
24345W        W67257   3.797   9.708  27.921  0.0171 -0.0299 -0.2237
24346W        W67258   3.867  10.022  28.932  0.1921 -0.0809 -0.4209
24347W        W67259   4.374   8.594  29.475 -0.0968  0.0266 -0.3634
24348W        W67260   7.563   7.650  27.921 -0.0109 -0.0574  0.1563
24349W        W67261   7.180   8.175  29.042 -0.0265  0.0415 -0.1753
24350W        W67262   5.355  10.002  29.295  0.0626  0.0792  0.1919
24351W        W67263   6.277   8.192  29.521 -0.0306  0.0562 -0.1714
24352W        W67264   7.079   7.981  29.537 -0.4012  0.1023 -0.1188
24353W        W67265   3.091  10.369  28.517 -0.0690 -0.1374  0.0675
24354W        W67266   4.322  10.839  29.242  0.1896  0.3412 -0.1721
24355W        W67267   3.396  10.115  28.200  0.1292 -0.0698  0.3630
24356W        W67268   8.910   8.751  30.114  0.4033 -0.3684  0.2279
24357W        W67269   6.290   9.320  28.200  0.3213 -0.2580 -0.0284
24358W        W67270   5.043  10.349  29.633  0.1516  0.0649 -0.1423
24359W        W67271   3.732   9.298  27.096 -0.2543  0.0839 -0.0409
24360W        W67272   5.037   9.817  30.985 -0.0480  0.1988 -0.3796
24361W        W67273   5.012   9.240  30.942  0.4227 -0.4623  0.0179
24362W        W67274   5.643   9.739  29.739  0.1344 -0.1053  0.4092
24363W        W67275   5.649   8.279  28.275  0.2367  0.0352 -0.0855
24364W        W67276   4.016  10.817  27.996  0.1872 -0.1318 -0.3937
24365W        W67277   5.290   8.398  28.590  0.0240 -0.0201 -0.3783
24366W        W67278   4.243   9.286  30.902  0.1221  0.1485 -0.0162
24367W        W67279   4.684   9.112  28.094 -0.1733 -0.1922  0.3226
24368W        W67280   8.427   7.342  30.733 -0.3538  0.2630  0.2787
24369W        W67281   3.837  10.922  28.456 -0.0318 -0.1150  0.0261
24370W        W67282   5.096   8.133  27.620  0.2522 -0.1174  0.1996
24371W        W67283   5.082   7.538  27.490  0.1138 -0.0115  0.1620
24372W        W67284   6.839   8.907  28.681  0.0268 -0.0818  0.1298
24373W        W67285   3.713   7.909  29.074  0.0109  0.0014  0.0702
24374W        W67286   4.956  11.745  29.757 -0.2065  0.1024  0.1077
24375W        W67287   6.626   7.783  28.466  0.1280  0.0351 -0.1044
24376W        W67288   6.491   9.447  29.554  0.1625 -0.3286  0.0732
24377W        W67289   5.586   9.178  30.387  0.1144  0.1042  0.2619
24378W        W67290   6.737   9.168  27.838  0.1268 -0.1820 -0.1400
24379W        W67291   5.216  11.075  31.217 -0.1409  0.0922  0.0373
24380W        W67292   4.263   8.343  28.175 -0.2719 -0.1141  0.2251
24381W        W67293   7.249   9.061  28.475 -0.3447 -0.0828  0.1459
24382W        W67294   7.950  10.126  29.966 -0.2807  0.2259  0.2619
24383W        W67295   7.385  10.380  26.960 -0.2597  0.2741  0.3295
24384W        W67296   3.570   8.302  29.450 -0.1868  0.3241  0.0134
24385W        W67297   5.487  10.691  31.068  0.2597  0.2456  0.0588
24386W        W67298   6.570   8.880  30.270  0.0423  0.1480  0.0405
24387W        W67299   5.367   6.949  27.140  0.0751  0.1115  0.1520
24388W        W67300   7.065  10.812  29.788  0.0395  0.2398  0.0791
24389W        W67301   4.474   9.757  29.873 -0.3433 -0.3543 -0.1137
24390W        W67302   8.094   8.054  28.783 -0.1827  0.4067 -0.0184
24391W        W67303   5.008   8.854  28.325 -0.0199  0.0926  0.0634
24392W        W67304   7.517   9.844  30.327  0.1011  0.1310 -0.1315
24393W        W67305   5.713  10.285  26.216 -0.0057 -0.1231 -0.0389
24394W        W67306   6.745   6.952  28.186 -0.5159 -0.0727 -0.0681
24395W        W67307   7.547   7.398  30.393  0.0767 -0.2077 -0.0677
24396W        W67308   4.232   8.099  26.081  0.2542  0.3611 -0.0159
24397W        W67309   5.563   9.005  26.937 -0.3446  0.1835 -0.0069
24398W        W67310   6.406   9.796  30.867 -0.2808 -0.2961  0.3443
24399W        W67311   6.652   8.404  27.290 -0.1971 -0.0164  0.2718
24400W        W67312   4.975   9.139  28.782 -0.0773  0.2110  0.1123
24401W        W67313   6.030   7.480  31.625 -0.1132 -0.1595  0.1635
24402W        W67314   6.391   9.248  31.002 -0.0004  0.0399  0.0931
24403W        W67315   3.889  12.083  27.747  0.1670  0.4253 -0.1785
24404W        W67316   3.355   9.530  28.292  0.1031 -0.1358  0.1889
24405W        W67317   3.723   9.772  27.343  0.0904  0.3444  0.0148
24406W        W67318   3.214   7.310  29.784 -0.2273  0.1256 -0.0970
24407W        W67319   4.371   9.986  29.072  0.1792 -0.0260 -0.2817
24408W        W67320   6.077   8.045  29.029 -0.1284  0.2265 -0.1066
24409W        W67321   4.716   7.736  29.221 -0.0580 -0.1981 -0.2266
24410W        W67322   7.652   7.821  28.821 -0.0168  0.0974  0.0252
24411W        W67323   3.785   9.876  28.436  0.2003 -0.2156  0.1521
24412W        W67324   6.971  11.001  29.339 -0.1045 -0.3235  0.2119
24413W        W67325   7.476   8.194  28.540 -0.0132 -0.1675 -0.2758
24414W        W67326   6.173   9.817  27.452 -0.0604 -0.0114 -0.3160
24415W        W67327   4.209   8.468  30.474  0.2177  0.1905 -0.0319
24416W        W67328   5.575   7.921  28.780 -0.3130  0.0002  0.0613
24417W        W67329   4.533   6.707   0.438  0.2471 -0.2622  0.1227
24418W        W67330   4.481   8.120  29.710  0.0082  0.1201 -0.2076
24419W        W67331   7.339   8.562  31.235 -0.1299 -0.2237 -0.0206
24420W        W67332   4.755   5.845  27.646 -0.2450  0.2487  0.0765
24421W        W67333   7.204   7.911  28.182 -0.1460  0.2143 -0.2484
24422W        W67334   3.752   8.140  28.206 -0.4065  0.0577  0.0244
24423W        W67335   3.257   9.750  27.828 -0.2247 -0.0795  0.2879
24424W        W67336   6.612   5.903  29.351 -0.1706 -0.0395 -0.2784
24425W        W67337   6.032   9.186  27.754  0.0166 -0.2919 -0.0870
24426W        W67338   6.086  10.211  30.867  0.1675  0.0424 -0.1378
24427W        W67339   7.644  10.444  30.252 -0.0156 -0.1083  0.2213
24428W        W67340   5.342   8.309  29.137  0.2286 -0.0499 -0.1365
24429W        W67341   5.671   8.089  26.360 -0.0845  0.2974  0.1157
24430W        W67342   3.021   9.965  29.177 -0.0241  0.1804  0.0212
24431W        W67343   5.409  10.619  29.241 -0.1159 -0.1345 -0.2124
24432W        W67344   3.657   7.663  28.082 -0.1298  0.1240 -0.1712
24433W        W67345   7.303   9.163  30.567 -0.0125 -0.3636 -0.0353
24434W        W67346   6.039   8.544  27.481  0.0503 -0.3291 -0.1423
24435W        W67347   3.846   8.082  30.424 -0.1006 -0.1497 -0.1190
24436W        W67348   6.090   7.905  30.666  0.3982  0.0743  0.5049
24437W        W67349   7.623   8.285  29.792  0.0927  0.2102 -0.3107
24438W        W67350   6.806   8.295  28.205  0.2263  0.0628  0.1160
24439W        W67351   3.998   7.540  27.075 -0.1738 -0.0519 -0.1904
24440W        W67352   8.038  10.910  28.465 -0.4313  0.1164  0.1260
24441W        W67353   3.980  10.330  28.154  0.2188 -0.0019 -0.0867
24442W        W67354   3.369   8.595  27.891  0.0041 -0.0971 -0.0894
24443W        W67355   4.857   9.713  29.080  0.0458 -0.0447  0.0604
24444W        W67356   6.614   8.934  29.707  0.0865 -0.1758 -0.1129
24445W        W67357   3.303   8.987  30.319  0.0182 -0.1076 -0.3839
24446W        W67358   5.450   8.162  30.134 -0.2939  0.0963 -0.0152
24447W        W67359   3.571   8.097  27.758 -0.1979 -0.3020  0.0669
24448W        W67360   4.486   9.973  30.442 -0.1145 -0.0369 -0.0765
24449W        W67361   6.288   8.538  29.202 -0.0871 -0.1089 -0.3968
24450W        W67362   6.688   6.848  26.872 -0.1161 -0.1778  0.2727
24451W        W67363   6.779   8.377  30.770  0.2544 -0.4121  0.0155
24452W        W67364   7.471   8.675  27.766  0.0278  0.0820  0.4980
24453W        W67365   7.320   7.847  27.481  0.1098 -0.0458  0.1788
24454W        W67366   6.819   7.870  27.495 -0.2602  0.2340  0.0759
24455W        W67367   3.286  10.180   0.276 -0.0246 -0.0981  0.1485
24456W        W67368   5.613  10.296  29.648 -0.2227  0.1630 -0.1691
24457W        W67369   4.861   9.484  29.500  0.0617  0.1369  0.0288
24458W        W67370   6.498   6.511  26.549  0.1106 -0.1811  0.0391
24459W        W67371   8.782   8.392  29.693  0.2046 -0.0399 -0.2578
24460W        W67372   4.891   9.485  28.394  0.0752  0.0101 -0.0185
24461W        W67373   6.765  11.241  31.462  0.0501 -0.1095  0.0817
24462W        W67374   6.123   9.965  28.978 -0.2805 -0.1079 -0.2483
24463W        W67375   5.351   7.749  29.218  0.0429  0.1701  0.1704
24464W        W67376   5.631   9.483  27.811  0.2475 -0.2102 -0.2039
24465W        W67377   6.560   7.386  28.070  0.0856 -0.0272  0.0316
24466W        W67378   3.923  11.049  27.449 -0.0778 -0.2925 -0.0770
24467W        W67379   6.808   8.537  29.135  0.0928 -0.0949  0.2574
24468W        W67380   7.025   8.350  28.618  0.1107  0.1595  0.1990
24469W        W67381   6.874   7.762  29.904 -0.1254 -0.1057 -0.0689
24470W        W67382   9.296   9.725  30.051  0.1409  0.0542  0.1922
24471W        W67383   5.430   8.833  28.913 -0.1058 -0.3468  0.1799
24472W        W67384   6.414   9.052  28.935 -0.0405 -0.3026  0.1290
24473W        W67385   3.256   9.994  26.990 -0.2369 -0.1405 -0.0087
24474W        W67386   6.038   7.383  31.077 -0.0130 -0.3026 -0.2263
24475W        W67387   5.725   7.771  30.960 -0.2875 -0.0897  0.0028
24476W        W67388   3.950  10.426  31.133  0.0757  0.1400 -0.1771
24477W        W67389   5.922  10.438  31.369 -0.4334  0.3117 -0.2165
24478W        W67390   6.250  10.131  27.115  0.1265 -0.1980  0.0944
24479W        W67391   6.435   6.516  31.859 -0.2964 -0.3966 -0.0018
24480W        W67392   5.156   7.069  27.620  0.0068 -0.1623 -0.2100
24481W        W67393   4.441  10.503  28.258  0.3856 -0.1031 -0.1193
24482W        W67394   4.350   8.407  27.556 -0.0709  0.0301  0.0982
24483W        W67395   4.965   6.975  29.582  0.3325  0.4035  0.1394
24484W        W67396   5.341  10.798  29.708 -0.1153 -0.0265 -0.0398
24485W        W67397   5.955  11.107  28.529  0.1214  0.1081  0.1624
24486W        W67398   6.158  10.462  30.239 -0.1463 -0.1903  0.1368
24487W        W67399   4.804  10.759  28.579  0.0460 -0.2370 -0.1900
24488W        W67400   6.664   8.008  29.004  0.0306  0.0081 -0.0443
24489W        W67401   3.615   9.538  28.799 -0.1470  0.4208 -0.1919
24490W        W67402   4.772   8.424  28.359  0.2298  0.0189  0.0087
24491W        W67403   3.220   8.203  28.191  0.0333  0.0431  0.2414
24492W        W67404   6.716   7.887  27.977  0.0720  0.0310  0.3736
24493W        W67405   6.437   8.404  27.800 -0.1428 -0.0009  0.1582
24494W        W67406   4.140   8.079  29.325 -0.2552 -0.2282  0.1216
24495W        W67407   4.489   8.858  29.046 -0.2207 -0.3770 -0.0537
24496W        W67408   4.496   9.373  28.998  0.0584 -0.1265  0.1075
24497W        W67409   7.221   8.152  30.591  0.0960  0.1230 -0.0407
24498W        W67410   6.157   7.037  27.359 -0.3407 -0.0948  0.2093
24499W        W67411   6.749   9.239  28.350  0.0010 -0.1650 -0.1342
24500W        W67412   6.528   7.692  31.548 -0.1797 -0.4779 -0.1219
24501W        W67413   4.039   7.969  27.808 -0.0410 -0.1368 -0.2848
24502W        W67414   7.599   7.990  30.344 -0.1529  0.0804 -0.0663
24503W        W67415   5.221   8.446  28.078  0.2116  0.1318  0.0924
24504W        W67416   4.427   8.960  27.634  0.1719 -0.0399  0.2857
24505W        W67417   5.833   9.580  30.169  0.1325  0.2987  0.3186
24506W        W67418   2.804   9.389  28.222  0.2687  0.1765 -0.3465
24507W        W67419   4.880   9.017  29.282  0.0970 -0.1085  0.2558
24508W        W67420   6.442   7.992  29.961  0.0163 -0.2430 -0.3056
24509W        W67421   7.445   8.721  30.676 -0.2831  0.0953 -0.0985
24510W        W67422   4.623   8.242  29.114  0.1703 -0.1774  0.0500
24511W        W67423   4.319   7.690  28.844 -0.0236 -0.1618  0.2471
24512W        W67424   5.351   8.761  29.431 -0.0949 -0.1174 -0.1959
24513W        W67425   6.096   9.275  30.521  0.2820 -0.0715 -0.0127
24514W        W67426   5.212   8.636  30.512 -0.0569  0.4735  0.0803
24515W        W67427   5.873   9.912  31.268  0.3074 -0.1440 -0.0027
24516W        W67428   6.160   6.872  28.134  0.1869  0.2329  0.4118
24517W        W67429   7.317  12.354  27.779 -0.1650 -0.1059 -0.0808
24518W        W67430   6.697   9.344  30.042  0.1107  0.0069 -0.5179
24519W        W67431   5.466  10.164  28.268 -0.0501 -0.0083  0.0965
24520W        W67432   3.490   9.851  29.194  0.0616 -0.3714  0.1279
24521W        W67433   5.265   8.710  27.181 -0.0072 -0.2231  0.3485
24522W        W67434   4.557   9.076  29.606  0.1776  0.2149 -0.2505
24523W        W67435   4.998  11.512  31.446 -0.1599  0.2985 -0.3051
24524W        W67436   3.952   8.499  27.830 -0.1438 -0.0953  0.0417
24525W        W67437   4.804   8.916  30.137  0.1367 -0.1959  0.4433
24526W        W67438   7.623   6.691  28.518  0.0154 -0.0408  0.1564
24527W        W67439   5.973   9.013  27.300  0.0999  0.0032  0.0875
24528W        W67440   7.155   7.798  28.670  0.1241 -0.4596  0.4981
24529W        W67441   7.382   8.460  31.798  0.3887 -0.4058 -0.1210
24530W        W67442   6.352   8.861  27.885 -0.1736 -0.4929 -0.1990
24531W        W67443   6.934   7.429  31.267  0.2972  0.2606  0.4001
24532W        W67444   6.121   7.713  29.622 -0.1024 -0.0295 -0.3687
24533W        W67445   7.856   8.802  29.022  0.0437 -0.1018  0.0394
24534W        W67446   5.424   7.881  30.595  0.5033  0.3851 -0.0196
24535W        W67447   4.805  10.007  31.502  0.1484  0.0135 -0.2071
24536W        W67448   5.992   8.938  31.155  0.0804 -0.2685 -0.0798
24537W        W67449   7.174   7.067  27.752  0.1109 -0.1004 -0.0454
24538W        W67450   4.259   5.936  27.829  0.0578  0.0835 -0.2174
24539W        W67451   5.743   8.924  29.707 -0.2558 -0.0964 -0.0122
24540W        W67452   7.444   8.681  30.125 -0.0936  0.2424  0.2876
24541W        W67453   5.532  11.272  28.385 -0.0340 -0.0331  0.0237
24542W        W67454   7.823   7.895  28.328 -0.1056 -0.0992 -0.1813
24543W        W67455   5.539   8.652  31.286  0.2260  0.0290 -0.0430
24544W        W67456   5.690   7.269  26.870  0.3007 -0.3257 -0.3750
24545W        W67457   5.462   9.133  27.457  0.1352  0.1472  0.0659
24546W        W67458   4.827   9.531  27.769 -0.0060  0.1204 -0.1771
24547W        W67459   4.198   7.593  29.349  0.4449  0.2245 -0.1465
24548W        W67460   6.528  10.820  29.532 -0.2764  0.1379  0.1015
24549W        W67461   6.295   8.240  28.249 -0.3318  0.0877 -0.1536
24550W        W67462   5.961   9.370  29.668  0.0561  0.0812  0.0439
24551W        W67463   6.602   7.770  29.443  0.1456  0.2051  0.1574
24552W        W67464   6.350   8.266  30.399  0.3620  0.0035  0.0228
24553W        W67465   4.495   8.287   0.243  0.2081 -0.2286  0.3063
24554W        W67466   5.184  10.226  30.660  0.2657 -0.2960  0.0631
24555W        W67467   8.345   7.226  27.491 -0.3896  0.3345  0.0409
24556W        W67468   7.711   9.362  29.883  0.1456 -0.0147 -0.1671
24557W        W67469   7.960   7.781  29.442 -0.0341 -0.2659  0.0618
24558W        W67470   5.907   8.991  28.793  0.0122  0.3597  0.1356
24559W        W67471   3.969   8.616  29.188 -0.2942  0.1050  0.3986
24560W        W67472   4.932   9.402  29.980 -0.2363 -0.0818 -0.1609
24561W        W67473   4.614   8.178  27.134  0.1794  0.1408 -0.1621
24562W        W67474   7.464   7.782  29.806  0.1869 -0.0707  0.1906
24563W        W67475   4.372  10.969  27.653  0.0729  0.1904  0.1787
24564W        W67476   5.186   9.865  27.987  0.1047  0.1696 -0.1197
24565W        W67477   5.590   8.945  27.930  0.4142 -0.1029 -0.1136
24566W        W67478   4.230   6.876  29.102 -0.2540 -0.0253  0.0191
24567W        W67479   3.054  10.589  31.965  0.0746 -0.0747 -0.4950
24568W        W67480   3.934   9.000  27.799  0.3635  0.1387  0.1770
24569W        W67481   4.547   9.869  26.958  0.3975 -0.3419  0.0561
24570W        W67482   6.105   8.802  30.518 -0.1052  0.3141  0.0514
24571W        W67483   7.518   9.546  28.893  0.0741  0.1790  0.1734
24572W        W67484   4.607   6.169  28.603 -0.1126  0.0861 -0.2990
24573W        W67485   7.572   9.014  31.413  0.2109 -0.0197 -0.2169
24574W        W67486   2.927   9.591  28.836  0.3260  0.3127 -0.1605
24575W        W67487   6.137   7.756  28.606  0.1778 -0.1337 -0.1117
24576W        W67488   4.723   9.987  29.496 -0.0459 -0.0455 -0.0228
24577W        W67489   4.238  10.057  29.548  0.0614 -0.1169 -0.0046
24578W        W67490   4.248   9.795  28.251  0.1340  0.1493  0.1000
24579W        W67491   7.971   7.082  30.545  0.0633 -0.0972  0.0585
24580W        W67492   6.460   8.416  28.802  0.2187  0.0542 -0.0984
24581W        W67493   5.270   9.830  28.698 -0.1834  0.3190  0.0067
24582W        W67494   7.773  10.231  30.704  0.1261  0.1334  0.0918
24583W        W67495   5.689   9.053  31.562 -0.0528 -0.1388  0.0614
24584W        W67496   4.921   8.527  29.392  0.1389  0.0903 -0.0081
24585W        W67497   6.731   9.323  30.545  0.0714 -0.0045 -0.0827
24586W        W67498   6.670  10.005  28.986 -0.0357 -0.1622 -0.3525
24587W        W67499   5.699   8.644  30.183  0.3829 -0.0214 -0.2514
24588W        W67500   4.431   7.969  30.681 -0.1086  0.0026 -0.1057
24589W        W67501   7.439   9.444  31.057 -0.0645 -0.0154 -0.2614
24590W        W67502   5.900   8.195  27.797 -0.1167  0.3043 -0.1095
24591W        W67503   3.182   6.725  29.859  0.0945  0.1309 -0.1729
24592W        W67504   6.005  10.215  28.095  0.3329  0.1223  0.3034
24593W        W67505   5.681  10.065  31.816 -0.1254  0.2772 -0.1212
24594W        W67506   4.570   8.904  28.552 -0.2801 -0.0135 -0.1263
24595W        W67507   4.949  10.282  29.140  0.1811 -0.0363  0.3571
24596W        W67508   7.764  10.236  27.281  0.0360  0.1234  0.1700
24597W        W67509   4.295  10.020  27.843 -0.1161 -0.0453 -0.1031
24598W        W67510   6.822  10.391  29.583  0.1452 -0.4657  0.0919
24599W        W67511   4.986   7.612  26.099 -0.1869  0.0985 -0.1795
24600W        W67512   4.968  10.510  30.198 -0.0753  0.1034 -0.0548
24601W        W67513   2.804  10.143  26.745  0.1401  0.0218 -0.1611
24602W        W67514   6.245  10.638  27.693  0.1174  0.0425  0.0227
24603W        W67515   4.286  10.739  28.693 -0.3767  0.0137  0.5764
24604W        W67516   6.863  10.009  30.901  0.0565  0.0041 -0.0563
24605W        W67517   8.195   6.231  26.776  0.1294 -0.0232  0.0205
24606W        W67518   8.107   9.040  29.585 -0.2185 -0.0415  0.1729
24607W        W67519   8.023   7.622  27.053  0.2651 -0.1314 -0.0108
24608W        W67520   4.790   8.883  31.746  0.0435 -0.1982  0.2337
24609W        W67521   5.785   8.582  29.223 -0.0720  0.0712 -0.0926
24610W        W67522   4.464   7.357  27.498  0.1049  0.0801 -0.0324
24611W        W67523   5.430   9.595  31.179 -0.2125  0.1622 -0.0191
24612W        W67524   7.434   6.867  30.731  0.2669  0.2537 -0.4098
24613W        W67525   4.247   9.027  31.514 -0.2342 -0.0920  0.2627
24614W        W67526   7.072  10.078  27.847 -0.0161  0.0956  0.0288
24615W        W67527   4.147   7.374  28.429  0.1213  0.1088  0.2434
24616W        W67528   4.612   8.014  28.090  0.0737  0.2415  0.1699
24617W        W67529   7.957   7.955  29.949 -0.1010 -0.2227  0.3648
24618W        W67530   6.683   9.822  27.308  0.2360  0.1364 -0.1609
24619W        W67531   5.095   8.006  28.830  0.1286 -0.4127  0.2083
24620W        W67532   4.383  11.624  28.313 -0.0351 -0.0171  0.1077
24621W        W67533   4.702  10.382  30.672 -0.2009 -0.1252  0.1402
24622W        W67534   4.634  10.208  29.943  0.1367  0.2809 -0.1174
24623W        W67535   3.858   6.445  28.894 -0.1063 -0.2015 -0.0550
24624W        W67536   7.762   7.022  28.898  0.2561 -0.2394 -0.0782
24625W        W67537   5.283   8.909  29.954 -0.0054 -0.1045  0.0751
24626W        W67538   8.351   5.744  30.228  0.2572  0.0977  0.1395
24627W        W67539   3.639   9.017  28.746 -0.0646  0.1759 -0.1845
24628W        W67540   6.884   9.041  29.195 -0.1747 -0.1375  0.2511
24629W        W67541   5.706   9.289  30.917 -0.0654  0.0777 -0.2598
24630W        W67542   4.329   9.501  29.478  0.1888  0.1289 -0.1442
24631W        W67543   5.213   9.235  27.988  0.1019 -0.2989  0.0591
24632W        W67544   7.491  11.323  30.059 -0.1094  0.1399  0.0264
24633W        W67545   5.257   9.425  29.125 -0.2498 -0.0590 -0.1864
24634W        W67546   7.531   9.950  31.080  0.0319  0.2807  0.2318
24635W        W67547   6.004   6.835  28.580 -0.0816 -0.0801 -0.0579
24636W        W67548   7.174   8.292  27.824  0.0991 -0.4291 -0.0636
24637W        W67549   3.570   8.869  29.354 -0.0309  0.1297 -0.4032
24638W        W67550   6.911   8.849  30.695 -0.0973  0.0756 -0.0335
24639W        W67551   5.578  10.214  30.973  0.0257  0.3040 -0.0945
24640W        W67552   4.646   6.701  28.620 -0.0026 -0.2275  0.0317
24641W        W67553   7.912   9.987  28.346 -0.1162 -0.1232 -0.1381
24642W        W67554   7.012   9.346  28.815 -0.4113 -0.5310 -0.1718
24643W        W67555   5.184  11.523  28.796 -0.2361 -0.1587  0.0133
24644W        W67556   7.737   8.373  28.893 -0.1479  0.2248 -0.0529
24645W        W67557   5.785  10.567  28.404  0.4760  0.1910 -0.1064
24646W        W67558   3.489   9.078  28.116 -0.0666 -0.3076 -0.5232
24647W        W67559   6.751   9.799  29.862 -0.0746  0.1074 -0.0404
24648W        W67560   8.140  10.351  30.407 -0.1740  0.1338 -0.0235
24649W        W67561   4.368   6.383  29.043  0.1626  0.0780 -0.0102
24650W        W67562   4.248   8.522  28.697 -0.0406 -0.0258  0.1763
24651W        W67563   4.962  10.260  28.570 -0.0227 -0.0500 -0.0996
24652W        W67564   7.928   8.725  29.927 -0.1196  0.0835 -0.0958
24653W        W67565   7.096   7.405  29.618  0.1940 -0.1400  0.3732
24654W        W67566   4.008  10.284  27.516  0.0077 -0.0947  0.1256
24655W        W67567   6.676   8.443  29.862  0.0698  0.0607  0.6247
24656W        W67568   5.058  10.352  31.145 -0.1139  0.1013 -0.0950
24657W        W67569   4.787  10.745  31.347  0.1175  0.5169  0.1871
24658W        W67570   2.783  10.050  28.695  0.0332 -0.0257 -0.3084
24659W        W67571   5.016   8.044  29.476 -0.4128  0.0958  0.2098
24660W        W67572   5.469   9.322  28.682  0.3521 -0.0922  0.3179
24661W        W67573   6.064   9.707  27.973 -0.1133 -0.3491  0.0022
24662W        W67574   7.105   9.812  28.673  0.0103  0.0791  0.1823
24663W        W67575   6.052   7.231  28.893  0.0972  0.1559 -0.0576
24664W        W67576   7.574   8.946  29.617 -0.0398 -0.0721  0.0328
24665W        W67577   4.967   7.859  29.905  0.0011 -0.0830  0.0139
24666W        W67578   9.316   6.606  28.323  0.2378 -0.0745  0.2409
24667W        W67579   7.840   8.392  28.102  0.5113 -0.0162  0.1126
24668W        W67580   4.917   9.769  30.342 -0.0920 -0.1791 -0.0178
24669W        W67581   3.509   8.865  27.465 -0.1806 -0.2001  0.0215
24670W        W67582   4.350   9.941  27.354 -0.1013 -0.0742  0.1747
24671W        W67583   4.100   9.669  28.737  0.1229  0.0830  0.2370
24672W        W67584   5.473   7.582  29.701 -0.2596  0.0951  0.0338
24673W        W67585   5.809   8.282  30.469 -0.0245  0.1197 -0.2518
24674W        W67586   4.104   9.107  28.751  0.1055 -0.0503 -0.3726
24675W        W67587   4.436   6.695  27.177 -0.1528  0.0541 -0.1856
24676W        W67588   6.824   9.240  27.227 -0.0535 -0.2639 -0.0268
24677W        W67589   3.946   6.102  30.454 -0.0810  0.0888 -0.3165
24678W        W67590   2.906   7.111  30.109 -0.0616  0.0670  0.2165
24679W        W67591   5.694   9.659  28.313 -0.1282 -0.1769  0.1655
24680W        W67592   7.575   9.554  28.340  0.1704  0.2865 -0.1543
24681W        W67593   5.109   7.965  28.318 -0.0691 -0.0415  0.0561
24682W        W67594   6.915   9.502  31.008 -0.0633 -0.0523 -0.1635
24683W        W67595   3.596  10.153  27.739 -0.1214  0.0580 -0.1136
24684W        W67596   7.195   8.928  31.785  0.1017  0.0059  0.1771
24685W        W67597   6.507   6.990  30.400 -0.1395 -0.3533 -0.1717
24686W        W67598   3.254   8.500  27.120 -0.0354  0.1846  0.5269
24687W        W67599   5.375   9.286  29.626 -0.2111 -0.1428 -0.0844
24688W        W67600   7.392  10.016  28.265 -0.0104 -0.1909 -0.1170
24689W        W67601   8.269  10.355  28.117  0.2959  0.1450 -0.0025
24690W        W67602   5.030   9.229  30.426  0.0180  0.3734 -0.3487
24691W        W67603   4.648   9.497  30.707  0.0441 -0.1120  0.1775
24692W        W67604   4.310   6.518  30.774  0.0274  0.2521 -0.2789
24693W        W67605   6.603   9.665  27.766 -0.2111  0.0323  0.0275
24694W        W67606   6.098   9.462  31.292 -0.1682 -0.0966 -0.0932
24695W        W67607   8.828  10.297  28.609 -0.1998  0.0303 -0.2995
24696W        W67608   8.318   8.337  29.846  0.0394  0.0578  0.1539
24697W        W67609   6.558   9.725  28.326  0.1659 -0.2126  0.3648
24698W        W67610   4.944   8.020  30.412  0.2695  0.2053 -0.1374
24699W        W67611   5.068   8.265  30.842 -0.2058  0.0471 -0.2071
24700W        W67612   8.291   9.202  30.336 -0.3204 -0.0152  0.0310
24701W        W67613   4.982   6.871  28.053  0.0842  0.0775 -0.2373
24702W        W67614   5.989   8.456  28.684 -0.0750 -0.2262 -0.0976
24703W        W67615   5.766  10.489  26.963 -0.1287 -0.0817  0.2180
24704W        W67616   4.148   9.061  29.357  0.2544 -0.0293 -0.0362
24705W        W67617   4.807   7.093  28.399 -0.2880 -0.0748 -0.3519
24706W        W67618   5.490   8.834  28.419  0.5248 -0.0763 -0.0297
24707W        W67619   6.408  10.295  28.562  0.0954 -0.3516 -0.1553
24708W        W67620   6.008   9.077  30.075  0.2530 -0.1395  0.1264
24709W        W67621   4.710   8.637  27.911 -0.2481  0.0759  0.1517
24710W        W67622   7.954   8.799  27.841  0.1082 -0.0138  0.1043
24711W        W67623   5.917  10.050  29.986  0.2801  0.0840  0.0360
24712W        W67624   7.577   9.614  31.521 -0.3056  0.0228 -0.0203
24713W        W67625   6.578  10.206  30.120  0.1272 -0.0980  0.0682
24714W        W67626   7.153   8.550  29.646  0.0993 -0.1191  0.1594
24715W        W67627   4.533   7.617  29.706  0.1239 -0.1240  0.0540
24716W        W67628   3.917   9.350  28.265 -0.2487  0.0838 -0.2811
24717W        W67629   5.827   9.194  28.373 -0.1237 -0.3397 -0.0461
24718W        W67630   7.243   6.924  28.325 -0.0619  0.2098 -0.0852
24719W        W67631   4.048   7.769  29.858  0.0435  0.0066 -0.1723
24720W        W67632   5.988   7.246  27.826 -0.2590 -0.0215 -0.2264
24721W        W67633   4.575  10.399  28.862 -0.0061  0.0561 -0.2745
24722W        W67634   7.064  10.053  30.139  0.0096 -0.0211  0.2165
24723W        W67635   6.888   6.860  31.275  0.0557  0.0480  0.0408
24724W        W67636   5.358   8.179  31.420  0.1228  0.0126  0.0446
24725W        W67637   5.849   7.447  30.582 -0.2082  0.0990 -0.0684
24726W        W67638   5.358   9.261   0.343 -0.0602 -0.0401  0.1971
24727W        W67639   5.591   8.279  30.973  0.1446 -0.0207  0.5653
24728W        W67640   4.625  11.062   0.297 -0.2322 -0.4409  0.3292
24729W        W67641   8.745   9.075  30.590  0.2286  0.0477 -0.0016
24730W        W67642   5.553   7.296  31.219 -0.0608  0.1947  0.0831
24731W        W67643   7.948   7.856   0.203 -0.1148  0.1204 -0.1672
24732W        W67644   6.571  11.055  30.913 -0.0301 -0.0952 -0.0946
24733W        W67645   5.366   9.843   0.991 -0.0300  0.1165  0.2846
24734W        W67646   4.198   7.364  30.026  0.1770  0.1108  0.1403
24735W        W67647   7.350   7.690  30.852 -0.0912  0.1725 -0.5442
24736W        W67648   4.808   9.161   0.544 -0.2819  0.0236 -0.1431
24737W        W67649   7.958   9.317  31.305 -0.1289  0.1457 -0.1916
24738W        W67650   4.448   9.629  31.595  0.3323  0.1052  0.0858
24739W        W67651   5.005   8.752  30.962  0.1573 -0.2567  0.0254
24740W        W67652   6.870   8.542  31.241  0.2189  0.1012 -0.1159
24741W        W67653   5.082   5.789   0.212 -0.2284 -0.0346  0.0407
24742W        W67654   4.699   7.912   0.524  0.2624 -0.0070 -0.2643
24743W        W67655   4.329   7.883  31.263  0.0394 -0.1947 -0.0085
24744W        W67656   4.035   9.545  31.274  0.4613 -0.1681 -0.1692
24745W        W67657   6.710   9.809  30.459 -0.0860 -0.1131 -0.1499
24746W        W67658   6.602   7.731   0.469 -0.1659  0.0541 -0.0554
24747W        W67659   6.450   6.355   0.324 -0.1622 -0.2317 -0.2077
24748W        W67660   6.830   7.771  30.841 -0.0442 -0.0562 -0.0652
24749W        W67661   6.210   8.458  30.843 -0.0662  0.1657  0.1238
24750W        W67662   4.844   9.865   0.004 -0.0503 -0.0234 -0.1847
24751W        W67663   4.281   8.059  30.196 -0.4549  0.2463  0.0282
24752W        W67664   5.106  10.453   0.869  0.0715 -0.0296 -0.0812
24753W        W67665   4.921   9.436  31.571 -0.0969 -0.0952 -0.4261
24754W        W67666   4.894   7.716  30.821  0.3017  0.2755 -0.0488
24755W        W67667   7.178   9.624  30.601  0.1378  0.1935 -0.1982
24756W        W67668   9.286   8.390   0.523  0.1736 -0.0127 -0.0431
24757W        W67669   5.243   7.707  31.197 -0.1010 -0.2586 -0.1319
24758W        W67670   5.771   8.209   0.340 -0.2004 -0.0920  0.1188
24759W        W67671   5.844   9.391   0.163  0.0773 -0.1176 -0.1948
24760W        W67672   7.692   7.108  31.936  0.1144  0.1301  0.0000
24761W        W67673   5.904   8.066   0.833 -0.3181  0.2259 -0.1190
24762W        W67674   6.313   9.215   0.255  0.1409 -0.1009 -0.0469
24763W        W67675   7.872   8.516  31.853 -0.4879 -0.0395  0.1434
24764W        W67676   6.319   7.373  30.637  0.3785 -0.1267  0.2578
24765W        W67677   5.325   7.425  30.756 -0.0834  0.3338 -0.0709
24766W        W67678   4.528   9.762  31.116  0.2080  0.0240 -0.2072
24767W        W67679   5.197   6.482  30.980  0.0671 -0.5392 -0.1988
24768W        W67680   6.146   7.869  31.934  0.2515 -0.0338  0.0997
24769W        W67681   6.627   6.865  30.874 -0.1548  0.0420 -0.0597
24770W        W67682   7.172   8.208  30.069  0.0893 -0.1861 -0.0837
24771W        W67683   9.326   9.050  31.087  0.0236  0.0533  0.0654
24772W        W67684   2.781   9.684  31.576 -0.1363 -0.2163  0.0139
24773W        W67685   7.524  11.633   0.009  0.0883 -0.1794 -0.1570
24774W        W67686   6.783   6.814  30.029 -0.1793 -0.1574  0.1988
24775W        W67687   6.061   6.680  30.477  0.1029  0.0575 -0.1455
24776W        W67688   7.107   9.848  31.887  0.1559 -0.0939  0.0886
24777W        W67689   7.784   9.017  30.382 -0.1034  0.0916  0.1956
24778W        W67690   7.525   8.325   0.728 -0.1865 -0.2206 -0.1620
24779W        W67691   8.515   9.569  30.679 -0.1883  0.1402 -0.1715
24780W        W67692   4.676  10.363  31.817 -0.2678  0.0301 -0.3701
24781W        W67693   5.706  10.878  31.535  0.1673 -0.0220 -0.2327
24782W        W67694   6.797   9.034  31.447 -0.1136  0.0283 -0.0848
24783W        W67695   4.420   8.566  31.828  0.0043 -0.1351  0.0446
24784W        W67696   6.316   8.573  31.316 -0.1292  0.2267 -0.4778
24785W        W67697   4.637   8.973  31.250 -0.2647  0.1850 -0.1336
24786W        W67698   4.493   6.451   1.988 -0.0280  0.0620  0.1979
24787W        W67699   6.303  11.282   0.144  0.2831  0.0561  0.0722
24788W        W67700   8.179  11.362  31.352  0.2349  0.1894  0.1123
24789W        W67701   9.399   9.962   0.069 -0.1319  0.1628  0.2705
24790W        W67702   3.918  12.369  17.864 -0.1117  0.0597 -0.2028
24791W        W67703   4.163  12.415  16.919 -0.0926 -0.5005  0.3049
24792W        W67704   6.495  13.082  16.317  0.3241 -0.2779 -0.2388
24793W        W67705   6.747  12.153  16.535 -0.4513  0.0203 -0.1194
24794W        W67706   3.272  11.875  16.438 -0.0315 -0.1808  0.0512
24795W        W67707   6.034  11.584  18.079  0.1329  0.0569 -0.3458
24796W        W67708   3.256  11.181  18.914 -0.3344 -0.3415  0.0077
24797W        W67709   4.474  12.367  17.932 -0.2311 -0.1607  0.0629
24798W        W67710   5.447  13.471  18.898  0.0617 -0.3282  0.1588
24799W        W67711   6.296  12.012  17.791 -0.1044 -0.6293  0.1557
24800W        W67712   5.201  12.173  19.078 -0.0157  0.1895 -0.0724
24801W        W67713   4.836  13.930  18.488  0.0561  0.0253 -0.1948
24802W        W67714   4.316  10.160  16.602  0.1408  0.1028  0.1265
24803W        W67715   2.059  11.224  17.932 -0.2536 -0.2258 -0.0238
24804W        W67716   5.962  11.769  17.059 -0.1239 -0.1862 -0.0401
24805W        W67717   3.823  12.155  16.267  0.1704  0.3889 -0.3292
24806W        W67718   4.401  11.886  18.125 -0.0660 -0.2214 -0.1795
24807W        W67719   4.340  11.964  16.997  0.3826  0.0990  0.0218
24808W        W67720   4.963  12.682  17.352 -0.0764  0.1362  0.2184
24809W        W67721   3.879   8.849  19.757  0.1258 -0.0906 -0.2586
24810W        W67722   6.774  11.499  18.736 -0.0328 -0.1157 -0.2144
24811W        W67723   5.793  14.013  16.340 -0.0637 -0.0527  0.1623
24812W        W67724   3.822  11.759  15.940  0.3585  0.2088  0.4197
24813W        W67725   2.244  11.195  16.952 -0.1630 -0.0674 -0.5029
24814W        W67726   3.541  11.855  18.586  0.1210 -0.1099  0.1085
24815W        W67727   6.718  11.000  17.971  0.0971 -0.2595  0.1849
24816W        W67728   4.661  11.548  17.760 -0.2239  0.2609 -0.1081
24817W        W67729   6.230  13.407  17.546  0.2776  0.1106 -0.1283
24818W        W67730   6.764  14.637  17.688  0.4670 -0.2550  0.1021
24819W        W67731   7.204  12.189  19.677  0.0433 -0.0760  0.0338
24820W        W67732   2.712  13.180  16.134 -0.1538  0.3265  0.1593
24821W        W67733   3.954  13.980  17.780 -0.0379  0.5034  0.0671
24822W        W67734   4.962  14.039  16.972  0.1424 -0.1789 -0.2785
24823W        W67735   6.710  13.302  17.259 -0.3087  0.1649 -0.3671
24824W        W67736   6.459  14.167  19.074 -0.0334  0.0128 -0.0175
24825W        W67737   4.635  14.196  17.640 -0.2915 -0.0959  0.2268
24826W        W67738   4.383  15.106  16.612 -0.3179  0.2750 -0.0037
24827W        W67739   5.601  14.872  18.751 -0.0287 -0.2449  0.1423
24828W        W67740   4.948  13.582  18.837  0.2507  0.3311  0.0388
24829W        W67741   5.125  12.794  18.274  0.1851  0.0600 -0.2144
24830W        W67742   5.001  13.123  17.121  0.0070 -0.0531  0.2590
24831W        W67743   5.908  12.874  17.503  0.1969  0.1598 -0.0361
24832W        W67744   5.872  11.985  16.606 -0.2058 -0.0100  0.0353
24833W        W67745   5.259  12.478  18.628  0.1187 -0.2544  0.1896
24834W        W67746   4.207  12.500  19.089  0.2538 -0.4260 -0.0067
24835W        W67747   6.283  11.177  21.060  0.1810 -0.1362  0.0732
24836W        W67748   5.270  13.605  17.317  0.0656  0.0369  0.0846
24837W        W67749   6.693  11.223  16.186 -0.0560  0.0445 -0.4942
24838W        W67750   4.428  11.212  16.448  0.1535  0.1010 -0.0594
24839W        W67751   4.926  11.625  17.027  0.0709  0.0124 -0.0688
24840W        W67752   4.541   9.817  16.931 -0.2166 -0.0856  0.1565
24841W        W67753   5.995  13.984  18.937 -0.0352 -0.3427  0.1791
24842W        W67754   4.841  11.292  18.943  0.0381 -0.1996 -0.0521
24843W        W67755   6.950  13.213  19.266  0.3435 -0.0137  0.1681
24844W        W67756   4.012  11.305  18.212 -0.1788 -0.1609 -0.0089
24845W        W67757   6.094  11.054  18.101  0.1075 -0.1309  0.1818
24846W        W67758   3.653  13.886  18.600  0.4801  0.1331 -0.1370
24847W        W67759   3.943  11.915  18.036  0.0844  0.0767 -0.0574
24848W        W67760   5.969  13.676  15.945 -0.1387  0.1132 -0.1940
24849W        W67761   6.148  14.175  17.085  0.2271  0.5923 -0.1823
24850W        W67762   5.461  13.702  15.916  0.0560 -0.0433  0.5443
24851W        W67763   4.010  11.712  17.288  0.0178 -0.0151  0.0520
24852W        W67764   3.894  13.024  19.902  0.0389  0.3671 -0.3034
24853W        W67765   3.257  10.895  18.513  0.0774  0.1432  0.1473
24854W        W67766   2.537  10.501  17.091 -0.1749 -0.0305  0.0845
24855W        W67767   6.314  13.627  18.977 -0.1462 -0.1427  0.1412
24856W        W67768   3.645  12.269  19.527  0.0124 -0.0800  0.0269
24857W        W67769   6.945  11.380  17.684 -0.1454 -0.1943  0.1124
24858W        W67770   4.331  12.824  17.750  0.5430 -0.1493 -0.1806
24859W        W67771   5.783  13.776  18.205 -0.3503  0.1457  0.2223
24860W        W67772   6.623  12.946  15.744 -0.1121 -0.1589  0.0202
24861W        W67773   5.341  10.458  18.280 -0.2793 -0.3227 -0.1117
24862W        W67774   5.430  10.986  18.693  0.2435  0.0551 -0.0237
24863W        W67775   3.734  11.784  16.742 -0.1226 -0.0240  0.0032
24864W        W67776   4.890  12.079  16.815  0.3478  0.2385 -0.1103
24865W        W67777   5.876  13.538  18.651  0.3153 -0.0991  0.0627
24866W        W67778   6.251  12.310  16.497 -0.1424 -0.1754  0.0050
24867W        W67779   3.164  13.605  17.816 -0.0370 -0.0939  0.0162
24868W        W67780   5.331  11.254  19.077  0.1175  0.0420  0.1034
24869W        W67781   6.022  14.289  19.369  0.1139 -0.3652 -0.2174
24870W        W67782   3.051  14.122  17.657  0.0471  0.0175  0.1939
24871W        W67783   2.207  11.654  18.207  0.0521 -0.1600  0.0802
24872W        W67784   3.841  13.909  16.097  0.1029  0.0067  0.2259
24873W        W67785   3.191  10.533  19.162  0.3160 -0.1487  0.1611
24874W        W67786   4.595  13.010  17.361 -0.1377 -0.1573 -0.2047
24875W        W67787   5.956  11.519  16.580  0.1806  0.0931  0.0046
24876W        W67788   3.469  11.882  19.225  0.3575  0.2121  0.0119
24877W        W67789   5.391  10.702  17.794 -0.0326 -0.3094 -0.1868
24878W        W67790   5.044  13.156  16.533 -0.4098  0.1419  0.1845
24879W        W67791   5.739  13.537  16.536  0.2909 -0.6562 -0.0830
24880W        W67792   6.115  10.801  17.336  0.2359 -0.5839  0.2652
24881W        W67793   5.271  12.758  16.927 -0.0806 -0.0118 -0.1808
24882W        W67794   2.976  11.355  18.461 -0.1934  0.2018  0.1017
24883W        W67795   3.582  11.519  16.301 -0.2861  0.0408 -0.2390
24884W        W67796   4.789  11.922  19.623 -0.0431 -0.1430 -0.0614
24885W        W67797   2.779  11.560  17.158 -0.1497  0.1193 -0.0048
24886W        W67798   6.278  12.114  18.874 -0.1389  0.1134 -0.0342
24887W        W67799   4.011  11.326  16.199  0.0502 -0.2004 -0.1250
24888W        W67800   5.529  10.816  17.262 -0.1125 -0.1070  0.2478
24889W        W67801   4.958  10.634  17.375 -0.1333  0.1469  0.0086
24890W        W67802   3.963  12.725  17.359 -0.1295  0.2448  0.3487
24891W        W67803   5.159  12.348  19.608  0.1254  0.3204  0.2107
24892W        W67804   5.053  13.549  16.801  0.0240 -0.0448  0.0678
24893W        W67805   7.185  13.520  19.660  0.1953  0.2926 -0.0341
24894W        W67806   5.431  14.154  17.189 -0.3022  0.1912 -0.0903
24895W        W67807   4.921  11.727  19.090 -0.0106 -0.0397  0.6041
24896W        W67808   4.102  11.376  16.858  0.3613 -0.4378  0.1919
24897W        W67809   3.827  14.215  18.171 -0.1753 -0.2275  0.2259
24898W        W67810   4.691  14.795  17.610 -0.1314  0.0378 -0.0150
24899W        W67811   4.265  12.134  15.987  0.1279  0.1892  0.1687
24900W        W67812   6.243  13.887  16.648  0.1452 -0.0336 -0.0236
24901W        W67813   5.796  13.373  17.231  0.0955  0.5716 -0.0425
24902W        W67814   3.048  11.901  18.417 -0.0091 -0.1009 -0.3165
24903W        W67815   6.017  11.843  19.265 -0.1345 -0.2692  0.3202
24904W        W67816   7.088  11.696  17.343 -0.0238 -0.0760 -0.0829
24905W        W67817   4.388  10.868  17.686 -0.0238  0.1655  0.1210
24906W        W67818   5.614   9.796  16.215  0.1775  0.0318  0.2200
24907W        W67819   7.184  15.363  17.185  0.2446  0.1365  0.0397
24908W        W67820   2.947  13.681  17.396  0.2663 -0.0436 -0.0176
24909W        W67821   1.773  11.875  16.921  0.0063  0.2120 -0.2371
24910W        W67822   4.345  11.998  17.634 -0.1308  0.0429 -0.0559
24911W        W67823   6.520  10.263  18.260  0.0093  0.2798  0.1549
24912W        W67824   4.112  12.101  19.408 -0.0203 -0.0898  0.1552
24913W        W67825   6.162  11.392  19.409 -0.2575 -0.1668  0.0555
24914W        W67826   4.628  10.463  16.194 -0.2932 -0.0779 -0.2027
24915W        W67827   3.308  12.556  19.773  0.1012 -0.0508  0.0247
24916W        W67828   5.646  10.325  17.549 -0.0349 -0.0058  0.1038
24917W        W67829   6.188  11.300  16.232 -0.1133  0.1953 -0.0146
24918W        W67830   5.608  12.558  18.239  0.1195 -0.0616 -0.0750
24919W        W67831   6.632  12.806  17.081  0.1977 -0.0984  0.0687
24920W        W67832   5.391  11.724  16.870 -0.3285 -0.3433  0.2210
24921W        W67833   5.555  12.272  16.238 -0.2447 -0.0171 -0.0487
24922W        W67834   2.517  12.343  19.821 -0.1150 -0.0439  0.0959
24923W        W67835   6.397  11.161  17.529 -0.2413  0.1386  0.3301
24924W        W67836   3.877  11.047  17.760 -0.0081 -0.1428 -0.0837
24925W        W67837   4.619  11.638  16.629  0.2180  0.0171  0.0764
24926W        W67838   6.722  13.685  16.849 -0.0365 -0.0140  0.0443
24927W        W67839   2.615  13.788  17.823  0.0564 -0.3655 -0.1080
24928W        W67840   6.526  12.937  19.477  0.2925 -0.0093  0.0269
24929W        W67841   6.399  14.173  17.683 -0.0701 -0.1029  0.0039
24930W        W67842   5.918  10.780  20.226  0.1792 -0.3156 -0.2877
24931W        W67843   5.162  12.039  15.996  0.0644  0.0614  0.2984
24932W        W67844   4.721  10.263  17.152  0.2651 -0.0081  0.1813
24933W        W67845   1.847  13.817  17.162  0.2788 -0.0755  0.1149
24934W        W67846   6.552  10.524  19.279 -0.2154 -0.0620 -0.1036
24935W        W67847   5.492  11.037  18.156 -0.2997 -0.2315 -0.2471
24936W        W67848   5.023  10.393  20.059  0.0841 -0.1076 -0.2855
24937W        W67849   7.431  11.830  20.130 -0.0137  0.1226 -0.0255
24938W        W67850   6.866  11.988  17.033  0.0163  0.1099  0.1812
24939W        W67851   4.488  12.236  16.495  0.0151  0.0340  0.1654
24940W        W67852   2.039  12.613  15.651  0.2705  0.1926  0.0074
24941W        W67853   5.543  10.454  18.744 -0.1210  0.0052  0.2088
24942W        W67854   4.436  13.389  19.239  0.0574 -0.0301 -0.0711
24943W        W67855   4.295  13.998  18.534 -0.0505 -0.2758  0.0397
24944W        W67856   6.715  12.719  19.105  0.0872  0.1149  0.0474
24945W        W67857   6.247  12.677  17.874 -0.1574  0.0120 -0.0595
24946W        W67858   5.500  11.016  19.562  0.0295  0.1417 -0.1452
24947W        W67859   4.776  10.954  16.271 -0.1526 -0.4096 -0.2311
24948W        W67860   4.762  13.572  17.248 -0.0244  0.1023 -0.0124
24949W        W67861   5.454  13.232  16.808  0.1763  0.0861  0.0682
24950W        W67862   4.490   9.577  18.107  0.0488 -0.0866  0.2631
24951W        W67863   4.751  14.401  18.108  0.0697 -0.0079 -0.0204
24952W        W67864   3.459  13.390  16.530  0.1297 -0.2001 -0.1283
24953W        W67865   6.521  11.876  18.432  0.6333  0.2828 -0.0098
24954W        W67866   4.101  13.197  18.150 -0.0429 -0.1496 -0.2509
24955W        W67867   6.470  11.495  17.862 -0.2873 -0.0261  0.1441
24956W        W67868   3.563  12.402  19.053  0.0093 -0.1654  0.2058
24957W        W67869   4.736  11.919  16.210 -0.1108 -0.2680 -0.2047
24958W        W67870   2.426  12.919  17.262 -0.1014 -0.1309 -0.2013
24959W        W67871   6.323  10.713  17.813  0.0952 -0.1265  0.0901
24960W        W67872   6.234  13.231  15.939  0.2384  0.0923 -0.1935
24961W        W67873   4.546  11.226  18.098  0.1201 -0.1708  0.1293
24962W        W67874   5.617   9.723  16.694 -0.1364 -0.0871  0.0588
24963W        W67875   3.026  13.586  18.905  0.0859 -0.0697  0.1627
24964W        W67876   7.067  11.955  18.915 -0.0239  0.2022  0.0944
24965W        W67877   7.079  10.065  16.854 -0.1518 -0.2446  0.1409
24966W        W67878   5.235  12.210  18.216 -0.3555  0.2175 -0.0584
24967W        W67879   7.010  13.128  20.282 -0.0702 -0.0226  0.2091
24968W        W67880   2.453  12.342  15.804 -0.0944  0.2248 -0.0374
24969W        W67881   7.737  12.236  18.197 -0.4445 -0.2182  0.1898
24970W        W67882   3.589  10.428  18.849 -0.1573  0.0791 -0.1527
24971W        W67883   3.828  13.426  16.209 -0.2317 -0.0287 -0.2856
24972W        W67884   6.190  14.621  17.858  0.0193  0.0549  0.0464
24973W        W67885   4.628  12.856  16.607 -0.0034  0.0794  0.2421
24974W        W67886   4.469  12.455  17.412 -0.3010 -0.1753 -0.1384
24975W        W67887   4.718  12.350  18.367 -0.0089 -0.1801  0.2583
24976W        W67888   6.092  12.700  18.428  0.0515 -0.2388  0.0389
24977W        W67889   4.894  10.852  17.840  0.1959  0.3165 -0.2142
24978W        W67890   5.292  11.593  17.387 -0.2103  0.2088 -0.0859
24979W        W67891   4.006  10.808  17.322  0.0360 -0.1912  0.0469
24980W        W67892   5.103  11.370  18.005 -0.2425  0.3213 -0.0100
24981W        W67893   5.257  11.470  18.624  0.2568 -0.0842  0.0169
24982W        W67894   4.297  13.884  20.846 -0.0835  0.1345  0.3489
24983W        W67895   5.461   9.904  17.692  0.2907 -0.0270  0.3189
24984W        W67896   6.239  14.606  18.371 -0.0675 -0.0669 -0.0197
24985W        W67897   5.458  12.810  17.824  0.3592 -0.1495 -0.0560
24986W        W67898   4.262  13.506  17.102  0.0680  0.1235  0.1378
24987W        W67899   3.021  12.300  18.140  0.0737 -0.3792 -0.1103
24988W        W67900   5.786  12.463  17.767  0.0581 -0.1564 -0.0553
24989W        W67901   5.634  11.455  17.767  0.2291  0.2077 -0.1202
24990W        W67902   3.558  13.377  17.611 -0.3304  0.0696 -0.0458
24991W        W67903   5.215  14.401  16.759 -0.0407 -0.2908 -0.0177
24992W        W67904   2.890  12.706  19.564  0.1749  0.2113  0.1659
24993W        W67905   6.436  10.844  16.882 -0.0469 -0.4060  0.0215
24994W        W67906   5.747  12.825  16.998 -0.2101 -0.0822 -0.2439
24995W        W67907   4.948   9.970  17.486  0.0744 -0.1794 -0.1491
24996W        W67908   7.452  12.082  18.601  0.0232  0.3434  0.1170
24997W        W67909   6.430  11.775  16.860  0.2338  0.1095 -0.1209
24998W        W67910   6.965  12.100  18.259  0.0969  0.1214 -0.0247
24999W        W67911   4.984  10.774  18.757  0.0081  0.5544 -0.0808
25000W        W67912   7.233  14.507  17.760  0.0135 -0.1083  0.2627
25001W        W67913   3.720  11.091  20.117  0.2000  0.1244 -0.0046
25002W        W67914   5.541  13.914  19.685  0.0296  0.2153 -0.1796
25003W        W67915   4.715  13.134  18.845  0.0393 -0.1727 -0.1343
25004W        W67916   5.483  11.281  16.674  0.2801  0.1825 -0.1058
25005W        W67917   4.096  11.765  16.438 -0.0371  0.1727  0.0391
25006W        W67918   4.524  12.877  18.187 -0.2065 -0.0893  0.0592
25007W        W67919   6.945  13.412  17.804  0.0200  0.0889 -0.1691
25008W        W67920   4.923  13.352  15.925  0.0039 -0.1184 -0.4795
25009W        W67921   4.538  11.649  17.320 -0.1641  0.1001  0.1961
25010W        W67922   4.165  11.541  17.771 -0.2103 -0.1351  0.1449
25011W        W67923   5.270  11.117  17.591  0.1188 -0.3536  0.2132
25012W        W67924   5.981  12.268  16.063 -0.2079  0.2409 -0.0652
25013W        W67925   3.916  13.797  17.223 -0.0156  0.0784  0.1072
25014W        W67926   4.709   9.846  19.360 -0.0492 -0.3822 -0.1498
25015W        W67927   7.405  13.001  17.998 -0.2165  0.1063  0.2220
25016W        W67928   4.499  10.597  16.652  0.1710  0.2270  0.1256
25017W        W67929   6.607   9.998  18.742 -0.3256  0.1338  0.1246
25018W        W67930   7.176  11.116  18.132  0.4228  0.0442 -0.2112
25019W        W67931   5.651  12.539  19.235 -0.0557 -0.1038  0.1468
25020W        W67932   5.372  11.815  19.471  0.2107  0.2052  0.0172
25021W        W67933   6.292  12.457  19.277  0.1533  0.0744  0.1762
25022W        W67934   6.793  11.647  16.371  0.4788  0.1181 -0.0583
25023W        W67935   7.830  11.950  19.490 -0.0699 -0.1600 -0.3259
25024W        W67936   6.774  10.525  17.779  0.1871  0.3101  0.3968
25025W        W67937   5.242  12.098  17.191  0.2812 -0.1567  0.2786
25026W        W67938   2.613  11.679  18.480  0.1990  0.2251 -0.0435
25027W        W67939   6.497  13.135  19.030  0.2480  0.1666 -0.3188
25028W        W67940   4.197  12.719  15.758 -0.1837  0.2168 -0.2143
25029W        W67941   5.686  11.617  18.902 -0.2278 -0.3413 -0.0818
25030W        W67942   6.240  14.482  16.627 -0.5530  0.0293  0.2479
25031W        W67943   5.981  13.853  17.495  0.0631  0.1814  0.2393
25032W        W67944   5.419  13.081  17.395 -0.1956  0.2318 -0.3478
25033W        W67945   3.415  12.837  17.445 -0.2735  0.1786 -0.0644
25034W        W67946   3.696  13.317  19.361 -0.0905  0.0139  0.0642
25035W        W67947   3.339  12.007  15.982  0.0511 -0.0481  0.1584
25036W        W67948   5.143  11.122  17.097 -0.0237  0.0916 -0.1937
25037W        W67949   5.225  13.868  18.116 -0.0541 -0.2370  0.2406
25038W        W67950   5.039  12.660  19.251  0.0736  0.1709  0.0635
25039W        W67951   5.277  10.621  16.331 -0.2058  0.3700  0.2912
25040W        W67952   6.425  11.345  18.339  0.0616 -0.0740 -0.2993
25041W        W67953   3.561  13.915  16.535  0.0379  0.1390 -0.1273
25042W        W67954   5.778   9.781  18.582  0.0301 -0.0620 -0.0282
25043W        W67955   5.754  15.168  17.930  0.2823 -0.2657  0.1000
25044W        W67956   2.942  12.591  18.724 -0.1169  0.2835  0.0002
25045W        W67957   4.852  13.703  17.873  0.1018 -0.0302  0.1260
25046W        W67958   4.670  10.399  17.751  0.0019 -0.0045  0.0696
25047W        W67959   4.797  11.201  17.463 -0.1473 -0.0016 -0.0517
25048W        W67960   3.964  13.182  17.328  0.3159  0.1986 -0.0864
25049W        W67961   7.593  11.353  19.445 -0.2636 -0.0741  0.2807
25050W        W67962   5.915  13.117  18.099 -0.0471 -0.2286 -0.0655
25051W        W67963   3.608  13.137  18.418  0.2145  0.1042  0.0963
25052W        W67964   7.074  14.390  18.303 -0.0799 -0.1925 -0.2464
25053W        W67965   7.637  11.836  16.268 -0.0989  0.1450 -0.0573
25054W        W67966   2.985  13.100  16.600  0.1176 -0.1027 -0.1864
25055W        W67967   4.112  11.270  20.392 -0.2037  0.0972 -0.2112
25056W        W67968   5.340  11.941  18.691 -0.5441  0.0790 -0.1985
25057W        W67969   5.207  11.876  17.821  0.0036 -0.0228  0.0279
25058W        W67970   4.214  10.722  16.249 -0.0734 -0.0059 -0.0199
25059W        W67971   5.221  13.599  16.355 -0.1720  0.0489 -0.0639
25060W        W67972   3.302  12.718  20.423  0.1917 -0.2010  0.4667
25061W        W67973   2.806  11.837  19.202  0.1992 -0.2561 -0.1434
25062W        W67974   3.943  14.919  16.515 -0.0088  0.0482  0.1128
25063W        W67975   6.212  13.058  17.169 -0.0322 -0.0511  0.0518
25064W        W67976   5.897  13.065  16.384 -0.0795  0.0186 -0.1683
25065W        W67977   6.007  14.104  17.954 -0.0944 -0.0902  0.2103
25066W        W67978   4.029  11.309  15.716  0.0996  0.1011  0.1424
25067W        W67979   4.127  13.116  18.619  0.0613 -0.2101 -0.1853
25068W        W67980   2.323  13.534  17.263 -0.0674 -0.2575  0.1716
25069W        W67981   4.358  15.872  17.222  0.0640  0.1765  0.0807
25070W        W67982   4.334  14.870  17.962 -0.3014  0.1813  0.2899
25071W        W67983   7.616  12.675  19.348 -0.0882 -0.0190 -0.3672
25072W        W67984   5.498  10.721  16.784  0.2072 -0.1825  0.2165
25073W        W67985   5.838  11.971  17.523  0.3950  0.2086 -0.1819
25074W        W67986   7.504  11.420  17.341  0.1435 -0.2090  0.2343
25075W        W67987   5.543  14.939  19.245 -0.0479 -0.0270 -0.0060
25076W        W67988   3.367  11.571  18.138  0.0098  0.1575 -0.2415
25077W        W67989   4.988  10.519  15.901 -0.1958 -0.1778 -0.1701
25078W        W67990   2.950  12.178  19.599 -0.2422  0.3546  0.3451
25079W        W67991   7.285  11.501  18.656  0.1613  0.3505 -0.2950
25080W        W67992   3.646  14.713  18.527  0.3988  0.0111  0.1426
25081W        W67993   6.663  14.483  16.243 -0.0158  0.0901  0.0518
25082W        W67994   2.783  11.809  16.637  0.0694 -0.2421 -0.0425
25083W        W67995   3.466  10.862  17.524 -0.3585 -0.1766 -0.0135
25084W        W67996   9.610  10.819  18.582  0.2278  0.0179 -0.2845
25085W        W67997   5.668  12.726  16.082  0.0741 -0.1839 -0.0104
25086W        W67998   5.011  10.989  18.308 -0.0953 -0.0894 -0.0383
25087W        W67999   3.333  12.989  16.987  0.1700 -0.1452  0.2555
25088W        W68000   4.608  14.849  18.381 -0.0981  0.4075  0.3604
25089W        W68001   4.971  15.813  18.435  0.1002 -0.1468  0.0143
25090W        W68002   2.224  11.561  17.302  0.1068  0.1517 -0.0117
25091W        W68003   6.189  11.281  17.076 -0.2506  0.0698 -0.0874
25092W        W68004   4.571  12.849  19.268 -0.1783  0.1064  0.1480
25093W        W68005   5.758  11.316  18.433  0.0715  0.4314  0.0144
25094W        W68006   3.479  12.073  18.150 -0.1802 -0.1675 -0.1341
25095W        W68007   5.847  10.962  17.706  0.2621  0.2075 -0.0144
25096W        W68008   5.369  13.471  18.405 -0.2269 -0.1484  0.2167
25097W        W68009   4.324  12.662  18.647  0.0893  0.0948 -0.2235
25098W        W68010   5.639  11.297  17.271  0.0015  0.1451 -0.0589
25099W        W68011   6.135  12.554  17.204 -0.0208 -0.2589  0.4009
25100W        W68012   5.379  12.217  16.700 -0.3507 -0.0250  0.2154
25101W        W68013   5.876  14.232  18.474 -0.1359  0.2521 -0.3719
25102W        W68014   3.632  11.516  17.711  0.0618  0.0139  0.1733
25103W        W68015   5.877  10.150  16.448 -0.1162  0.0742  0.3520
25104W        W68016   4.606  11.256  16.951  0.3846 -0.1757  0.0645
25105W        W68017   3.235  12.724  19.207 -0.1850 -0.1687 -0.1443
25106W        W68018   5.673  13.915  20.207 -0.0629  0.0159 -0.1802
25107W        W68019   3.258  11.112  17.168  0.2163  0.3598  0.2789
25108W        W68020   5.796  12.537  16.556 -0.0688  0.4940 -0.2496
25109W        W68021   6.526  11.737  17.420 -0.0035 -0.3720  0.1327
25110W        W68022   3.509  13.869  17.522  0.0262  0.0397  0.0674
25111W        W68023   6.689  11.392  17.082 -0.0260 -0.1042  0.0469
25112W        W68024   7.411  15.120  19.925  0.0692  0.1319 -0.0701
25113W        W68025   3.552  11.097  19.365  0.1847 -0.0888  0.0622
25114W        W68026   5.489  14.279  18.186  0.0535  0.0540 -0.0229
25115W        W68027   7.324  12.563  18.228  0.0893  0.0706 -0.1897
25116W        W68028   4.147  10.420  17.006  0.1203 -0.1778 -0.1471
25117W        W68029   5.153  12.391  17.767  0.0837 -0.0308 -0.1481
25118W        W68030   3.805  13.036  16.721  0.1157 -0.2443 -0.1834
25119W        W68031   6.444  11.293  16.613  0.0445 -0.4306 -0.0251
25120W        W68032   6.223  12.241  18.276  0.0453 -0.0729 -0.0876
25121W        W68033   3.980  14.776  16.070 -0.0900 -0.0000 -0.3223
25122W        W68034   6.225  10.897  19.578 -0.0505  0.1888 -0.1842
25123W        W68035   5.516  14.375  18.889  0.2130  0.1606  0.0243
25124W        W68036   4.997  13.559  20.367 -0.2057 -0.0069  0.2227
25125W        W68037   3.238  12.668  16.674  0.1073 -0.1003  0.1084
25126W        W68038   3.871  12.217  18.498  0.0387  0.0322 -0.1581
25127W        W68039   5.342  12.753  16.456  0.0481 -0.0892  0.3441
25128W        W68040   5.495  13.954  18.609  0.2776  0.2766 -0.0607
25129W        W68041   5.755  13.452  17.749 -0.0772 -0.1049  0.2636
25130W        W68042   3.906  10.505  17.715 -0.1344  0.3702 -0.2378
25131W        W68043   6.929  12.906  18.081  0.0315  0.0225  0.1814
25132W        W68044   4.491  10.826  17.157 -0.1274  0.0492 -0.0542
25133W        W68045   6.133  10.112  17.968 -0.1443  0.0851 -0.1852
25134W        W68046   5.813  10.612  18.138 -0.2944  0.1292  0.1209
25135W        W68047   4.861  13.261  18.339 -0.2607  0.1603 -0.0598
25136W        W68048   2.851  13.295  15.679 -0.3099 -0.4370  0.0649
25137W        W68049   4.631  14.365  16.716  0.3155 -0.1354 -0.1202
25138W        W68050   4.239  12.978  17.006  0.2299  0.1377  0.0020
25139W        W68051   5.817  11.133  18.964  0.2749 -0.0020  0.1087
25140W        W68052   4.645  12.138  19.125 -0.5199 -0.1084 -0.1153
25141W        W68053   3.341  13.118  17.975  0.4501 -0.0528  0.1585
25142W        W68054   2.652  10.824  16.610 -0.1974 -0.1484 -0.0166
25143W        W68055   6.638  14.157  17.094 -0.0994  0.4285 -0.2894
25144W        W68056   4.414  10.296  18.478 -0.0185 -0.2112  0.1089
25145W        W68057   3.368  11.109  17.929 -0.0272  0.2320  0.2688
25146W        W68058   4.825  12.053  17.474 -0.1353  0.0672  0.0640
25147W        W68059   5.741  13.852  17.012 -0.1127  0.1931 -0.2102
25148W        W68060   4.798  10.202  16.603  0.1313 -0.1541  0.1131
25149W        W68061   7.666  12.846  20.339 -0.0851  0.0180 -0.0637
25150W        W68062   3.023  13.438  16.974 -0.4226 -0.0756  0.0743
25151W        W68063   5.678  11.423  19.394 -0.0527 -0.0825 -0.0221
25152W        W68064   4.336  11.672  20.395  0.1225 -0.0019  0.3705
25153W        W68065   2.506  11.428  16.299  0.2500 -0.1432  0.0186
25154W        W68066   3.955  11.966  18.942  0.2793 -0.3123  0.0743
25155W        W68067   4.713  14.861  17.084 -0.3379  0.0247 -0.0161
25156W        W68068   5.370  15.678  16.161 -0.0545  0.0294 -0.0440
25157W        W68069   4.841  12.766  17.817 -0.2115  0.0787  0.3120
25158W        W68070   5.185  13.116  18.746 -0.0605 -0.2109 -0.0188
25159W        W68071   3.908  10.219  18.493  0.2531 -0.1773 -0.1704
25160W        W68072   6.674  12.307  17.404  0.0796 -0.1454  0.1244
25161W        W68073   5.305  13.351  17.947 -0.2136 -0.0637  0.0276
25162W        W68074   6.497  12.345  16.927 -0.0031 -0.0880 -0.2017
25163W        W68075   6.737   9.952  17.753 -0.0420 -0.0886 -0.2113
25164W        W68076   3.977  12.236  17.376 -0.1011  0.1913 -0.1101
25165W        W68077   3.865  10.372  19.816  0.0104  0.3045  0.0896
25166W        W68078   2.498  12.658  20.870 -0.4453  0.1195 -0.0539
25167W        W68079   6.737  12.488  17.874  0.0947  0.2274 -0.2248
25168W        W68080   4.328   9.393  17.310 -0.0923 -0.1587 -0.0624
25169W        W68081   5.895  11.041  16.775 -0.1735 -0.2245 -0.2680
25170W        W68082   4.275  14.472  18.379 -0.1396  0.1277  0.3830
25171W        W68083   3.604  12.080  17.653 -0.1069 -0.1575 -0.0720
25172W        W68084   5.256   9.971  18.430  0.1264  0.1390  0.0444
25173W        W68085   4.378  11.727  18.935  0.0107 -0.1846  0.2244
25174W        W68086   5.177  14.431  17.794 -0.3332  0.0921  0.1169
25175W        W68087   6.334  14.005  18.575  0.0544 -0.1528  0.0292
25176W        W68088   4.954  12.361  16.425  0.0677 -0.1329  0.0835
25177W        W68089   8.466  13.393  17.041  0.0158 -0.0227 -0.0854
25178W        W68090   7.146  15.164  18.231  0.0130  0.2816  0.1527
25179W        W68091   6.606  14.294  19.993  0.1217  0.1884 -0.0721
25180W        W68092   6.485  14.937  18.633 -0.1524  0.0707  0.2132
25181W        W68093   5.791  12.275  17.006  0.0269 -0.0123 -0.0361
25182W        W68094   2.429  10.455  18.677  0.3473 -0.1277 -0.0794
25183W        W68095   4.261  11.230  17.352 -0.0495 -0.0975 -0.0743
25184W        W68096   4.713  12.538  16.986 -0.0779 -0.3535 -0.0109
25185W        W68097   6.951  10.576  18.193 -0.0360  0.2621 -0.0091
25186W        W68098   2.693  11.867  17.547  0.0133 -0.0023 -0.1988
25187W        W68099   5.012  11.313  16.633 -0.1631 -0.0373  0.0543
25188W        W68100   4.223  13.264  16.547  0.0250 -0.0637 -0.0011
25189W        W68101   6.232  12.061  17.265  0.0036 -0.0751  0.0342
25190W        W68102   4.585  13.492  24.567 -0.2025  0.0931 -0.1699
25191W        W68103   2.835  12.554  21.970 -0.3345 -0.1798 -0.3505
25192W        W68104   6.850  11.075  18.541  0.0393  0.1739  0.0449
25193W        W68105   6.711  11.982  22.313 -0.2678  0.0230  0.3260
25194W        W68106   4.499  11.785  22.119  0.0415 -0.1970 -0.2958
25195W        W68107   5.228  12.858  21.041 -0.0814  0.0877 -0.1364
25196W        W68108   3.334  11.596  21.468  0.0406  0.2096 -0.0454
25197W        W68109   7.644  13.397  20.594  0.4733 -0.1046 -0.0588
25198W        W68110   6.965  14.106  20.290  0.2020 -0.0041  0.1093
25199W        W68111   6.588  13.331  19.931  0.2069 -0.2769  0.1317
25200W        W68112   6.187  12.259  24.411  0.2771  0.0029 -0.0004
25201W        W68113   5.950  14.060  23.783  0.3175 -0.1106 -0.2238
25202W        W68114   5.246  11.956  20.573 -0.0490  0.0748 -0.0477
25203W        W68115   4.245  10.052  20.969  0.1126 -0.0405 -0.1222
25204W        W68116   6.267  12.815  21.649 -0.2226  0.0207 -0.1197
25205W        W68117   4.580  12.892  21.281  0.2148  0.1700 -0.2264
25206W        W68118   4.187  12.947  22.705  0.0784  0.1476 -0.3097
25207W        W68119   5.310  11.611  23.329 -0.2375  0.0863 -0.1164
25208W        W68120   5.538  15.105  21.057 -0.0672 -0.0010  0.1696
25209W        W68121   4.990  11.940  23.568  0.1075 -0.1179 -0.1643
25210W        W68122   5.843  11.369  23.017  0.1618  0.1333  0.0504
25211W        W68123   4.795  13.485  21.177 -0.1715  0.0232  0.2126
25212W        W68124   2.788  12.273  20.621 -0.1080  0.0757  0.3516
25213W        W68125   2.785  12.674  21.318  0.1301 -0.1701  0.1516
25214W        W68126   4.248  12.521  23.731  0.0623  0.0614 -0.0677
25215W        W68127   6.938  12.852  22.837  0.0636 -0.2412 -0.0302
25216W        W68128   7.947  12.445  22.172 -0.0315 -0.1032  0.2130
25217W        W68129   5.307  14.156  22.347  0.1013 -0.2325 -0.0644
25218W        W68130   4.875  14.754  24.174  0.1577 -0.1846 -0.2535
25219W        W68131   7.030  13.294  24.343 -0.2073 -0.4112  0.1786
25220W        W68132   3.463  13.940  21.809 -0.0209 -0.2257  0.3793
25221W        W68133   4.496  14.006  21.901 -0.1596  0.2141 -0.0168
25222W        W68134   4.919  13.318  22.447  0.1352 -0.0612  0.2270
25223W        W68135   6.682  13.676  19.322 -0.2290 -0.2054 -0.1193
25224W        W68136   6.618  13.460  23.216 -0.1772  0.1234 -0.1137
25225W        W68137   5.837  14.017  23.155  0.2635 -0.0540  0.1383
25226W        W68138   3.354  13.054  19.640  0.3740 -0.0901  0.2394
25227W        W68139   5.586  14.759  22.574 -0.2610  0.0102  0.0711
25228W        W68140   4.905  14.066  25.308 -0.3153 -0.2915  0.1254
25229W        W68141   5.440  12.053  23.213  0.1447 -0.1201  0.3980
25230W        W68142   4.754  12.785  21.783 -0.2090  0.0128 -0.4651
25231W        W68143   4.585  13.205  20.199 -0.1114 -0.0446  0.1675
25232W        W68144   6.257  13.640  21.979 -0.2419 -0.1461  0.1952
25233W        W68145   5.277  13.201  24.875  0.1300 -0.1747 -0.2352
25234W        W68146   4.062  13.237  21.766  0.1169  0.3044 -0.0294
25235W        W68147   7.906  10.467  22.595 -0.2404 -0.0374 -0.1775
25236W        W68148   3.816  12.474  19.939  0.1023 -0.3831 -0.0029
25237W        W68149   7.122  12.760  19.322 -0.1733  0.0674  0.0255
25238W        W68150   5.011  12.640  20.075 -0.1242  0.1976  0.2740
25239W        W68151   5.781  11.973  22.200  0.1853  0.2260 -0.0897
25240W        W68152   5.193  12.492  20.662 -0.3836 -0.0069  0.1484
25241W        W68153   4.166  15.280  21.953 -0.0768  0.1759 -0.3199
25242W        W68154   5.858  11.224  23.755 -0.0545  0.3898 -0.0851
25243W        W68155   6.745  14.710  23.621 -0.1349  0.0915  0.0482
25244W        W68156   6.271  11.921  22.125 -0.1307 -0.0063  0.4047
25245W        W68157   5.317  11.379  22.816  0.3136 -0.0401  0.1013
25246W        W68158   5.156  13.434  23.678 -0.0307  0.1068 -0.1666
25247W        W68159   4.690  11.430  21.751  0.1269 -0.0932  0.3018
25248W        W68160   7.224  13.616  20.543  0.2307 -0.1364 -0.1309
25249W        W68161   6.350  13.926  23.467 -0.0475 -0.0058 -0.2140
25250W        W68162   4.062  12.875  21.035 -0.1416  0.1601  0.0727
25251W        W68163   4.784  12.891  19.718  0.2686 -0.1686  0.0925
25252W        W68164   2.458  10.856  23.547 -0.1345 -0.2127 -0.0602
25253W        W68165   3.790  12.395  23.929 -0.2462 -0.0563 -0.2679
25254W        W68166   3.936  12.165  21.578  0.0539  0.3244 -0.0034
25255W        W68167   7.364  13.396  23.262  0.1773 -0.0036 -0.0411
25256W        W68168   3.499  14.756  23.086  0.0558  0.0260  0.0257
25257W        W68169   6.700   9.849  21.195 -0.2691 -0.0820  0.0566
25258W        W68170   4.667  13.162  22.876  0.1015  0.1007 -0.0879
25259W        W68171   6.870  12.335  22.009 -0.2535  0.3239 -0.0578
25260W        W68172   5.744  12.041  18.018  0.2898 -0.1791 -0.0333
25261W        W68173   6.085  11.441  22.078 -0.2657  0.2690  0.2137
25262W        W68174   5.949  12.157  23.374 -0.0769  0.0962  0.0358
25263W        W68175   3.823  11.911  19.984 -0.2570  0.0458 -0.1405
25264W        W68176   4.978  13.216  19.240 -0.1681  0.1218  0.0032
25265W        W68177   7.077  14.448  23.929  0.0152 -0.3132 -0.2943
25266W        W68178   7.397  12.225  19.260 -0.1918  0.0198 -0.3691
25267W        W68179   3.576  13.752  24.295  0.3694 -0.0137 -0.1557
25268W        W68180   4.814  11.427  23.389  0.1997 -0.3497 -0.1016
25269W        W68181   4.767  13.366  23.387 -0.1729  0.1985 -0.0608
25270W        W68182   5.242  13.521  19.540 -0.0878  0.1428 -0.3457
25271W        W68183   4.552  12.411  21.559  0.0986  0.0863  0.0910
25272W        W68184   5.384  13.119  22.607  0.2121  0.2147 -0.1272
25273W        W68185   3.929  11.899  23.012 -0.0973 -0.0359 -0.0832
25274W        W68186   4.877  12.814  23.104 -0.0437 -0.2940 -0.4218
25275W        W68187   6.127  11.548  20.147 -0.1249  0.0993  0.1355
25276W        W68188   4.558   9.306  24.062  0.1288  0.2211  0.0977
25277W        W68189   5.040  11.741  21.949  0.3202  0.4469  0.1205
25278W        W68190   5.200  13.587  21.434 -0.4136 -0.0400  0.1058
25279W        W68191   6.943  14.808  22.275 -0.1327  0.2899 -0.0055
25280W        W68192   5.843  11.684  19.763  0.3112 -0.0768 -0.0795
25281W        W68193   4.944  13.252  17.660  0.2476 -0.1288  0.1123
25282W        W68194   4.140  11.075  21.886 -0.0840  0.1874 -0.3568
25283W        W68195   4.099  12.721  21.727  0.1371 -0.1041  0.0739
25284W        W68196   4.310  11.032  22.772  0.1068  0.1655  0.0628
25285W        W68197   4.206  12.368  21.139  0.0281  0.2125 -0.0757
25286W        W68198   6.789  12.814  21.906 -0.1150 -0.1874 -0.0102
25287W        W68199   5.008  11.315  19.471 -0.2439 -0.2398 -0.0104
25288W        W68200   6.163  12.100  20.945 -0.0060 -0.1017  0.2045
25289W        W68201   5.536  11.872  21.753  0.1085 -0.0905 -0.1208
25290W        W68202   3.890  14.319  21.778 -0.2179 -0.0040 -0.0366
25291W        W68203   4.676  10.962  21.838  0.1406 -0.2863 -0.0961
25292W        W68204   5.182  15.408  21.492  0.2539  0.2008  0.2297
25293W        W68205   7.931  14.347  24.237 -0.0700 -0.1746  0.1656
25294W        W68206   6.275  14.374  20.967 -0.0635  0.1923 -0.0690
25295W        W68207   4.609  12.201  22.883  0.1693 -0.1785 -0.5075
25296W        W68208   5.607  12.898  20.175  0.1937  0.2824 -0.0566
25297W        W68209   3.275  13.622  23.544 -0.0590  0.0516 -0.0473
25298W        W68210   5.714  13.850  21.510  0.0900 -0.0487 -0.0392
25299W        W68211   4.637  12.294  20.087 -0.0136 -0.1355  0.0254
25300W        W68212   6.354  14.200  21.901 -0.0603 -0.1203 -0.1863
25301W        W68213   5.879  13.186  20.413 -0.3418  0.1642 -0.1689
25302W        W68214   3.331  13.448  23.070  0.3849  0.2762  0.0790
25303W        W68215   6.171  10.988  25.262 -0.0872  0.0127  0.1745
25304W        W68216   6.725  12.338  22.726  0.0160  0.1844 -0.0759
25305W        W68217   5.513  12.198  21.195 -0.3846  0.1559  0.2074
25306W        W68218   3.735  11.463  18.942 -0.0470 -0.0757 -0.0814
25307W        W68219   5.585  13.670  21.085 -0.1182  0.4315 -0.3523
25308W        W68220   6.225  13.552  20.279  0.2286 -0.2667 -0.1455
25309W        W68221   4.709  12.778  20.451 -0.0971 -0.0468  0.1163
25310W        W68222   5.797  13.242  20.901 -0.1632 -0.1064 -0.2723
25311W        W68223   6.827  12.667  21.448  0.0671 -0.1740  0.0558
25312W        W68224   3.401  11.828  24.345 -0.0992 -0.3084  0.3142
25313W        W68225   5.468  12.042  23.877  0.0737 -0.1858  0.2183
25314W        W68226   5.243  11.511  20.349  0.1220  0.2950  0.2694
25315W        W68227   5.849  13.348  22.804 -0.0274 -0.0733  0.0763
25316W        W68228   5.707  10.519  21.589  0.3042 -0.3285 -0.2586
25317W        W68229   7.393   9.798  20.477 -0.2398 -0.0012 -0.0329
25318W        W68230   6.274  13.447  22.530  0.2587  0.3376 -0.0887
25319W        W68231   5.984  12.883  19.416  0.1489  0.0101 -0.1417
25320W        W68232   6.685  12.204  19.136 -0.1218 -0.0732  0.1020
25321W        W68233   4.624  11.492  19.837  0.4828  0.1733 -0.2020
25322W        W68234   4.612  12.754  25.141 -0.1349 -0.4325 -0.0264
25323W        W68235   6.421  13.134  22.111  0.0056  0.0168  0.0984
25324W        W68236   5.586  13.032  23.080 -0.1888 -0.0197 -0.0431
25325W        W68237   6.528  11.761  19.902 -0.2213  0.1005  0.1797
25326W        W68238   6.787  13.577  20.316  0.1419  0.0084  0.1912
25327W        W68239   3.306  12.226  24.100  0.2346 -0.2728  0.0475
25328W        W68240   6.045  13.576  23.604 -0.0713  0.1107 -0.1802
25329W        W68241   6.731  13.291  22.450 -0.2113  0.1443 -0.1230
25330W        W68242   3.848  13.168  23.316 -0.0862  0.0205 -0.3158
25331W        W68243   6.360  12.080  19.549  0.0824  0.1499 -0.0844
25332W        W68244   4.877  12.046  21.540 -0.0015  0.0073  0.1159
25333W        W68245   4.593  13.947  18.952  0.3262  0.2179  0.0391
25334W        W68246   6.810  12.477  23.224 -0.0199  0.0935  0.1093
25335W        W68247   5.214  10.666  21.252 -0.0432  0.0271  0.0269
25336W        W68248   4.315  11.883  24.822 -0.0323  0.1724 -0.0089
25337W        W68249   5.762  13.447  23.946  0.1169  0.0582  0.0135
25338W        W68250   7.793  12.383  19.700 -0.1030 -0.1574  0.1327
25339W        W68251   5.292  12.069  22.239  0.1109  0.0656 -0.0524
25340W        W68252   4.113  12.143  20.304  0.1760 -0.1606 -0.1112
25341W        W68253   5.300  11.379  21.740  0.0540 -0.2857 -0.0105
25342W        W68254   3.755  14.020  24.749 -0.0718 -0.0360  0.0829
25343W        W68255   4.042  14.571  23.132  0.0408  0.0477 -0.1391
25344W        W68256   6.019  12.686  23.533  0.1648  0.1826 -0.0379
25345W        W68257   6.003  12.838  22.882  0.1569  0.2377 -0.2277
25346W        W68258   4.897  11.984  24.649  0.2737 -0.0023 -0.0083
25347W        W68259   4.163  12.676  19.555  0.2008 -0.1274 -0.1242
25348W        W68260   5.271  13.358  20.872  0.0922  0.1111 -0.0055
25349W        W68261   5.362  12.848  19.577 -0.0127  0.0963 -0.1413
25350W        W68262   4.590  10.902  21.281  0.2201  0.0770  0.3602
25351W        W68263   4.849  14.242  22.971 -0.0898 -0.4374 -0.3517
25352W        W68264   4.386  13.789  17.549  0.2620  0.1679  0.2123
25353W        W68265   6.015  13.208  23.286 -0.0547  0.1758 -0.6734
25354W        W68266   4.989  13.924  22.636 -0.2056  0.0007 -0.1189
25355W        W68267   5.103   9.689  22.915  0.2267 -0.0346 -0.2707
25356W        W68268   3.444  14.963  22.018  0.1752 -0.1112 -0.0265
25357W        W68269   5.129  13.013  20.501 -0.4200 -0.3151 -0.0597
25358W        W68270   4.422  12.346  22.059  0.0988 -0.0958 -0.1009
25359W        W68271   5.396  12.555  22.381 -0.3282 -0.1098  0.0385
25360W        W68272   6.089  12.769  18.935  0.0461 -0.1692  0.1533
25361W        W68273   4.450  12.628  22.490 -0.0864  0.2411  0.0411
25362W        W68274   6.036  11.599  22.560  0.0166 -0.1548  0.3142
25363W        W68275   3.816  13.364  23.824 -0.1470  0.1845 -0.0231
25364W        W68276   5.716  11.664  23.582 -0.2500 -0.0226 -0.2380
25365W        W68277   5.487  11.655  18.221 -0.0007  0.1572 -0.0996
25366W        W68278   6.282  13.468  20.774  0.1816 -0.0561  0.0422
25367W        W68279   4.815  12.927  23.707 -0.2485 -0.0519  0.0046
25368W        W68280   2.372  12.434  21.491  0.0278 -0.0192 -0.2853
25369W        W68281   6.437  12.416  23.572  0.1054 -0.3076 -0.3762
25370W        W68282   4.342  11.914  21.625 -0.2311 -0.1868  0.1507
25371W        W68283   4.003  13.830  21.632  0.1962 -0.1257  0.1639
25372W        W68284   4.368  13.568  21.997 -0.0658  0.3451  0.0429
25373W        W68285   5.235  11.668  21.360 -0.1900 -0.1705 -0.0457
25374W        W68286   3.755  13.288  22.681 -0.1031 -0.0951  0.5347
25375W        W68287   4.628   9.916  22.805 -0.0321 -0.0077 -0.1508
25376W        W68288   6.953  13.041  23.283  0.1292 -0.0811  0.4236
25377W        W68289   3.306  13.058  22.143  0.0397 -0.0178  0.0799
25378W        W68290   4.648  11.782  21.130  0.0375 -0.1448  0.0459
25379W        W68291   4.944  12.530  22.697 -0.1481 -0.3083 -0.1984
25380W        W68292   5.173  12.618  21.513 -0.0887 -0.2231 -0.1025
25381W        W68293   5.768  12.655  24.491 -0.2475 -0.1726  0.0666
25382W        W68294   3.820  15.021  25.135 -0.1479  0.0732 -0.1196
25383W        W68295   5.405  11.146  20.787  0.3006 -0.2585 -0.2312
25384W        W68296   5.966  13.606  19.873 -0.0003 -0.0397  0.0871
25385W        W68297   4.993  13.303  24.373  0.4278  0.3666  0.0424
25386W        W68298   5.683  12.594  19.809  0.3188 -0.2655  0.0843
25387W        W68299   3.911  12.136  23.466  0.2188 -0.0176  0.2605
25388W        W68300   4.195  13.005  20.453 -0.1622 -0.0204  0.4937
25389W        W68301   5.157  10.702  21.812  0.0724  0.2596  0.3685
25390W        W68302   3.239  13.170  22.634 -0.2502 -0.1726  0.0906
25391W        W68303   4.326  13.166  19.674  0.2208 -0.1314 -0.1605
25392W        W68304   4.201  13.396  22.463  0.0273  0.2986 -0.0892
25393W        W68305   6.936  10.774  20.558  0.1723  0.1484  0.1888
25394W        W68306   4.858  11.856  18.213  0.1196 -0.0629  0.0319
25395W        W68307   5.491  11.535  22.186  0.2482 -0.1642 -0.1196
25396W        W68308   6.568  10.765  22.965 -0.2087  0.0593  0.1871
25397W        W68309   7.967  12.222  20.202 -0.0152 -0.0879 -0.2357
25398W        W68310   5.087  11.034  24.185 -0.0936 -0.1468  0.2515
25399W        W68311   4.686  10.889  23.156 -0.2024 -0.0218  0.1448
25400W        W68312   6.152  13.058  19.872 -0.2301 -0.1261  0.0728
25401W        W68313   4.539  12.476  23.337  0.0195 -0.1154  0.3762
25402W        W68314   5.141  15.183  23.986 -0.1184  0.0168  0.0147
25403W        W68315   3.315  11.999  23.599 -0.3482 -0.1142 -0.1864
25404W        W68316   6.413  10.245  20.987  0.1623  0.1606 -0.0720
25405W        W68317   6.378  11.009  18.837  0.3586  0.1039 -0.0549
25406W        W68318   4.144  12.334  22.892  0.3702 -0.3859 -0.0238
25407W        W68319   6.116  12.720  20.212  0.2621  0.1965  0.2899
25408W        W68320   5.722  12.303  20.366  0.4855 -0.2640  0.0709
25409W        W68321   7.428  12.382  22.045  0.1686 -0.1183 -0.2710
25410W        W68322   3.957  13.867  22.130 -0.2464  0.0500  0.1568
25411W        W68323   6.672  13.604  21.103 -0.0339 -0.0853  0.0438
25412W        W68324   5.726  12.136  19.576  0.1225  0.1406  0.0907
25413W        W68325   5.851  12.335  22.766 -0.2723 -0.0580 -0.0727
25414W        W68326   6.323  11.963  23.864  0.0294  0.0693 -0.4125
25415W        W68327   5.581  12.814  20.675 -0.0490 -0.0096 -0.1669
25416W        W68328   6.321  12.601  22.080 -0.1484  0.1183 -0.1800
25417W        W68329   5.620  10.800  24.248  0.0641 -0.0121 -0.0496
25418W        W68330   5.187  12.894  24.106  0.0298  0.2166  0.1745
25419W        W68331   4.343  12.967  23.254 -0.1859  0.0207  0.0206
25420W        W68332   5.126  10.667  24.556  0.1525  0.0062 -0.1097
25421W        W68333   5.043  14.368  23.390 -0.2129 -0.0054 -0.0867
25422W        W68334   6.616  11.687  20.815 -0.1207 -0.2823  0.1061
25423W        W68335   6.151  10.977  24.185 -0.0118  0.0707  0.2094
25424W        W68336   7.390  11.199  21.243  0.1165  0.0246  0.1064
25425W        W68337   6.175  12.550  19.735  0.1641  0.0156  0.1770
25426W        W68338   3.705  12.645  21.348  0.0593  0.3908 -0.0781
25427W        W68339   5.600  13.281  23.545  0.2765  0.0839  0.1767
25428W        W68340   4.885  12.377  22.015  0.1126  0.1113 -0.1377
25429W        W68341   6.484  12.909  23.450 -0.0709 -0.0638  0.0747
25430W        W68342   5.504  13.455  20.189 -0.1188 -0.2859  0.0834
25431W        W68343   5.207  13.133  19.997  0.0813 -0.2751 -0.3771
25432W        W68344   7.019  12.172  21.530 -0.2276 -0.1333  0.2611
25433W        W68345   3.933  11.046  22.438  0.0562  0.0048  0.0355
25434W        W68346   3.576  14.085  22.447  0.0030  0.0040  0.3697
25435W        W68347   4.973  10.866  19.327 -0.1614  0.3240 -0.0903
25436W        W68348   5.680  13.033  18.561  0.0837  0.1710  0.1885
25437W        W68349   5.469  12.325  21.837 -0.1093 -0.0255  0.2785
25438W        W68350   6.343  13.756  25.177  0.0747 -0.3543 -0.1255
25439W        W68351   5.099  10.377  19.066  0.2773  0.0291 -0.5389
25440W        W68352   7.468  11.532  23.455 -0.1122 -0.1905  0.4008
25441W        W68353   3.532  12.718  20.878 -0.2655 -0.2311  0.1737
25442W        W68354   5.654  11.208  20.223 -0.2905  0.0433 -0.4040
25443W        W68355   4.876  13.696  22.124 -0.0805 -0.0316 -0.0176
25444W        W68356   3.778  13.647  22.950 -0.0868 -0.3333 -0.1141
25445W        W68357   5.013  13.098  21.467 -0.0111 -0.1403 -0.3377
25446W        W68358   5.968  10.719  22.902 -0.1070 -0.1431 -0.1028
25447W        W68359   6.287  12.423  23.070  0.0309 -0.1519 -0.1901
25448W        W68360   5.880  11.988  24.096  0.1949 -0.0289  0.0776
25449W        W68361   7.194  12.443  24.452 -0.1534 -0.0071 -0.1117
25450W        W68362   5.531  13.767  23.593 -0.1278 -0.2357  0.1919
25451W        W68363   5.116  13.453  22.884 -0.1056 -0.0913  0.3284
25452W        W68364   5.830  13.847  22.649  0.1827  0.0533 -0.0401
25453W        W68365   7.335  12.811  19.887 -0.2757 -0.0130  0.0995
25454W        W68366   3.636  14.403  23.430  0.0344 -0.0645  0.0078
25455W        W68367   1.479  12.073  22.528 -0.1554 -0.0598 -0.1263
25456W        W68368   4.915  13.565  24.891  0.4218  0.1253  0.1484
25457W        W68369   5.575  13.202  21.387 -0.0086  0.0762  0.2015
25458W        W68370   4.791  11.412  20.349  0.1564  0.2274  0.0496
25459W        W68371   5.098  14.057  18.921 -0.1180 -0.1864 -0.1651
25460W        W68372   3.816  13.731  23.486  0.2040 -0.0020 -0.2363
25461W        W68373   2.625  11.550  24.073  0.0534  0.3035  0.1208
25462W        W68374   4.170  14.758  23.554 -0.1678 -0.0867  0.5119
25463W        W68375   5.708  11.835  20.267  0.1284 -0.0860 -0.2395
25464W        W68376   4.248  12.549  20.677  0.3106 -0.0037 -0.3803
25465W        W68377   7.214  14.491  22.547 -0.1030  0.1211  0.1125
25466W        W68378   4.824  13.421  19.813 -0.1351 -0.1448  0.0844
25467W        W68379   5.639  14.529  23.011  0.0657 -0.1673 -0.0120
25468W        W68380   4.139  13.396  20.156  0.0873  0.0576 -0.3276
25469W        W68381   6.914  13.055  19.743  0.0201 -0.2805  0.1096
25470W        W68382   4.915  13.958  21.627  0.0857  0.2629 -0.1228
25471W        W68383   7.020  13.560  23.526 -0.2646  0.1732  0.0462
25472W        W68384   6.603  11.490  20.351  0.2220 -0.2185 -0.2111
25473W        W68385   7.710  11.623  21.009 -0.2756 -0.3047  0.0358
25474W        W68386   8.479  11.065  21.920 -0.1637 -0.0147 -0.1551
25475W        W68387   5.057  15.033  22.596  0.0526 -0.1030  0.1434
25476W        W68388   3.171  12.105  22.542  0.0542  0.1138  0.0031
25477W        W68389   4.517  11.145  19.478 -0.0034 -0.2991 -0.3600
25478W        W68390   2.176  12.504  24.292  0.0712  0.0364 -0.2103
25479W        W68391   6.654  10.958  24.363 -0.2509  0.2647  0.1265
25480W        W68392   3.684  12.887  24.648  0.1401  0.1714 -0.2033
25481W        W68393   7.108  12.917  18.600 -0.2136 -0.0802 -0.1944
25482W        W68394   2.482  11.900  21.531  0.1424  0.2503  0.0806
25483W        W68395   5.110  10.714  22.912  0.0377  0.1708  0.2186
25484W        W68396   6.486  11.537  22.394 -0.0548  0.0123  0.2283
25485W        W68397   4.752  12.523  18.848  0.0404 -0.1573 -0.2936
25486W        W68398   6.126  13.108  23.771  0.0185  0.2809  0.0218
25487W        W68399   4.552  13.217  20.775 -0.0387 -0.0552  0.0640
25488W        W68400   2.965  12.743  22.467  0.1585 -0.0913  0.0241
25489W        W68401   5.365  13.884  21.872  0.0911 -0.1318  0.0415
25490W        W68402   3.053  11.460  20.146 -0.2752 -0.1548  0.1215
25491W        W68403   6.539  10.626  21.346 -0.0692  0.1506  0.2293
25492W        W68404   4.259  11.487  24.522  0.1634 -0.1552  0.1254
25493W        W68405   6.170  10.290  22.032 -0.0122  0.1813 -0.0001
25494W        W68406   5.559  11.877  22.604  0.0707  0.0616 -0.0440
25495W        W68407   6.475  12.294  21.691  0.2144  0.0127 -0.1830
25496W        W68408   5.374  12.550  22.936  0.2563  0.1817 -0.0281
25497W        W68409   3.666  12.814  22.752 -0.1719 -0.1732 -0.2398
25498W        W68410   4.370  12.137  18.699 -0.0517 -0.3776  0.0450
25499W        W68411   6.536  13.012  21.190 -0.1762 -0.0641  0.4332
25500W        W68412   4.335  11.896  19.907 -0.0473  0.5284  0.0938
25501W        W68413   6.827  14.227  22.718  0.2892  0.0990  0.2218
25502W        W68414   4.035  12.086  22.066 -0.4351  0.1077 -0.1158
25503W        W68415   4.762  11.842  20.641 -0.1781 -0.0354  0.4324
25504W        W68416   5.079  11.648  22.510 -0.0440 -0.0489  0.3259
25505W        W68417   3.679  12.857  23.709  0.0262  0.1668  0.0536
25506W        W68418   4.898  13.815  24.317 -0.0108 -0.2316 -0.0670
25507W        W68419   3.802  11.749  20.665 -0.0941  0.1569  0.3197
25508W        W68420   7.278  13.825  19.190  0.0235  0.2364 -0.0869
25509W        W68421   7.786  11.981  21.906  0.1687  0.3128 -0.0048
25510W        W68422   5.322  13.829  20.634 -0.1501 -0.3019  0.0956
25511W        W68423   6.219  12.936  20.773  0.1354 -0.2236  0.2933
25512W        W68424   5.400  14.148  24.019  0.1459 -0.0818  0.0501
25513W        W68425   4.211  11.951  22.570  0.2748  0.0427 -0.0689
25514W        W68426   6.223  13.617  22.985 -0.2716 -0.1629 -0.0371
25515W        W68427   6.636  14.710  21.919 -0.0394 -0.1928 -0.0039
25516W        W68428   5.531   9.768  19.607  0.0416  0.4464  0.1246
25517W        W68429   3.415  12.596  22.265  0.0028 -0.1658 -0.1244
25518W        W68430   3.482  13.173  20.182  0.0584  0.3608  0.1019
25519W        W68431   4.714  12.110  22.423  0.1072 -0.0548 -0.1699
25520W        W68432   5.575  11.343  24.218  0.1387  0.0471 -0.3223
25521W        W68433   4.237  13.341  21.269  0.0381 -0.2473 -0.3165
25522W        W68434   6.472  10.509  23.966 -0.3150 -0.2293 -0.1836
25523W        W68435   4.519  14.382  23.323  0.3622 -0.0277  0.1995
25524W        W68436   5.512  14.834  23.428  0.1399  0.3529 -0.0741
25525W        W68437   3.788  12.668  20.387  0.0484  0.0197 -0.1154
25526W        W68438   5.002  12.351  23.201 -0.0774 -0.0189  0.2321
25527W        W68439   4.737  12.513  20.945  0.1020 -0.1033 -0.0135
25528W        W68440   5.424  14.380  20.531 -0.2634 -0.3510 -0.0828
25529W        W68441   5.865  13.617  19.346 -0.2818 -0.0782  0.3266
25530W        W68442   6.055  13.011  22.399  0.0102  0.0129  0.3084
25531W        W68443   8.240  13.014  21.259 -0.5323 -0.1510 -0.2056
25532W        W68444   3.877  11.533  21.696 -0.2156 -0.0775  0.0199
25533W        W68445   5.062  11.204  21.201  0.0066 -0.3186 -0.1478
25534W        W68446   5.081  11.091  20.103  0.0253 -0.2555  0.1374
25535W        W68447   4.560  11.637  22.579  0.2045 -0.0136  0.2982
25536W        W68448   3.451  11.484  20.935 -0.2098  0.1932  0.0814
25537W        W68449   3.878  13.670  18.246 -0.2480  0.1360 -0.5391
25538W        W68450   5.506  13.414  21.908  0.1156  0.0013  0.1011
25539W        W68451   5.582  11.873  24.570 -0.1234  0.0143 -0.3002
25540W        W68452   4.005  11.114  23.252  0.0108 -0.2595 -0.0010
25541W        W68453   3.244  12.699  21.721  0.1174  0.0062  0.4339
25542W        W68454   3.158  11.183  21.191 -0.0976 -0.1530 -0.1270
25543W        W68455   6.754  12.861  20.661 -0.0640  0.1109  0.2809
25544W        W68456   3.805   9.783  21.434  0.0365  0.1342  0.0419
25545W        W68457   2.374   9.681  21.645  0.2149  0.0448  0.1121
25546W        W68458   6.792  13.395  21.990  0.1686  0.0882 -0.0447
25547W        W68459   6.699  14.115  21.167  0.1644  0.1168 -0.0344
25548W        W68460   4.955  11.855  20.114  0.3926 -0.0875  0.0167
25549W        W68461   6.411  15.366  23.185 -0.1199  0.0847  0.3644
25550W        W68462   3.707  12.834  18.800 -0.3155 -0.2749  0.1508
25551W        W68463   5.152  12.518  23.707  0.0027 -0.1228 -0.1955
25552W        W68464   4.157  11.561  24.016 -0.0673  0.1430  0.1320
25553W        W68465   3.780  10.745  18.238 -0.1503  0.2855 -0.0121
25554W        W68466   4.630  12.228  23.848  0.1163 -0.0830  0.0664
25555W        W68467   6.121  13.921  20.970  0.1421 -0.1488 -0.0468
25556W        W68468   5.673  13.217  19.700 -0.0732 -0.1949 -0.0139
25557W        W68469   6.434  13.091  22.975  0.1574 -0.0568  0.2155
25558W        W68470   5.025  14.461  21.615  0.0286 -0.0274  0.1979
25559W        W68471   4.580   9.278  24.615 -0.3813 -0.2357 -0.0251
25560W        W68472   6.268  13.380  19.523 -0.0055  0.1462  0.0810
25561W        W68473   5.847  13.916  25.180 -0.2878  0.2746 -0.1570
25562W        W68474   6.461  13.279  21.614  0.1586  0.1870 -0.3870
25563W        W68475   6.344  11.586  22.968  0.0615 -0.1759  0.1899
25564W        W68476   5.855  12.522  20.970  0.5688  0.3244  0.3792
25565W        W68477   5.574  12.401  25.257 -0.0322 -0.0653  0.3282
25566W        W68478   4.106  14.081  23.193 -0.2834 -0.0927 -0.0905
25567W        W68479   6.327  12.588  22.570  0.0388  0.2786  0.0628
25568W        W68480   3.988  12.500  22.382 -0.1396  0.0819  0.0794
25569W        W68481   6.028  12.952  21.264  0.2154 -0.1843 -0.0558
25570W        W68482   6.276  13.823  21.470  0.0176  0.0703 -0.1334
25571W        W68483   2.728  11.800  23.675  0.0478  0.2832  0.0047
25572W        W68484   4.896  11.320  22.193 -0.2934 -0.1147 -0.2027
25573W        W68485   4.929  12.793  22.269 -0.0399  0.3091  0.2403
25574W        W68486   6.020  13.455  21.274 -0.2280  0.1771 -0.1786
25575W        W68487   7.381  12.931  23.030  0.0745  0.1399 -0.1864
25576W        W68488   6.096  10.643  21.148 -0.2057  0.2413  0.0604
25577W        W68489   6.484  13.168  20.392 -0.3116 -0.1090 -0.0137
25578W        W68490   5.317  14.134  22.889  0.2085 -0.0509 -0.0042
25579W        W68491   6.666  14.768  25.432 -0.0962  0.0433  0.1530
25580W        W68492   6.872  13.864  21.554  0.2588  0.1122 -0.1178
25581W        W68493   7.053  12.908  21.087  0.1941 -0.1934  0.4256
25582W        W68494   4.820  11.213  22.717 -0.2454  0.3255  0.3351
25583W        W68495   5.799  12.329  18.807 -0.2938 -0.0845 -0.1180
25584W        W68496   5.837  12.823  21.955 -0.0519  0.2745  0.1852
25585W        W68497   6.032  11.630  24.658 -0.1849 -0.0482 -0.1619
25586W        W68498   4.492  13.818  22.462  0.0080  0.1312  0.2054
25587W        W68499   4.637  12.418  19.540 -0.2837 -0.1445 -0.3866
25588W        W68500   3.373  13.040  23.334  0.2545  0.3004 -0.0825
25589W        W68501   5.857  12.475  24.055 -0.1786 -0.0108 -0.1301
25590W        W68502   4.215  14.246  27.379  0.0182  0.0507  0.1430
25591W        W68503   4.332  12.323  25.078  0.1764  0.0476  0.1059
25592W        W68504   6.171  11.507  23.549  0.0080 -0.1156 -0.0043
25593W        W68505   7.227  13.621  24.010 -0.0657 -0.2626 -0.1155
25594W        W68506   3.402  12.737  25.390 -0.3265 -0.0965 -0.1815
25595W        W68507   6.162  14.519  23.206 -0.2993 -0.1252 -0.0952
25596W        W68508   4.172  11.048  26.371  0.0531  0.1264  0.0769
25597W        W68509   6.556  13.362  26.485  0.0823 -0.1088  0.0578
25598W        W68510   5.375  13.547  26.255  0.1257  0.5035  0.0560
25599W        W68511   5.361  13.857  24.974 -0.1112 -0.3968  0.0133
25600W        W68512   3.638  12.611  26.342 -0.1570  0.4382 -0.1046
25601W        W68513   4.665  14.222  26.756  0.1334 -0.0801  0.1392
25602W        W68514   4.512  11.866  24.222 -0.1045 -0.2038  0.0460
25603W        W68515   2.715   9.830  26.332  0.1164  0.1855  0.1570
25604W        W68516   6.677  12.082  26.373  0.0595 -0.1364  0.3689
25605W        W68517   4.921  13.362  25.937  0.2213 -0.0952 -0.0003
25606W        W68518   4.728  12.679  27.052 -0.1802  0.1733 -0.0719
25607W        W68519   6.745  11.654  24.916 -0.2045 -0.0275  0.2324
25608W        W68520   5.521  13.481  25.255  0.0800 -0.0528 -0.2209
25609W        W68521   5.111  12.273  25.855 -0.0434 -0.3596  0.0918
25610W        W68522   4.502  10.756  26.776 -0.1682  0.1335 -0.0921
25611W        W68523   5.833  14.294  25.798 -0.2006 -0.1639 -0.0318
25612W        W68524   4.537  11.701  23.682 -0.1930 -0.2086  0.0631
25613W        W68525   2.001  12.055  25.683 -0.0848  0.2784  0.0727
25614W        W68526   4.713  11.781  26.959  0.0051 -0.2715  0.3213
25615W        W68527   6.007  12.381  26.999  0.1888  0.3525  0.0586
25616W        W68528   7.686  12.584  24.764  0.1183 -0.1143 -0.1799
25617W        W68529   4.398  13.440  26.050 -0.1600 -0.1296 -0.1077
25618W        W68530   4.672  14.091  27.237  0.2686 -0.0549 -0.3429
25619W        W68531   6.559  11.706  27.958 -0.0611  0.0133 -0.1286
25620W        W68532   3.597  12.259  25.412 -0.3386 -0.1482 -0.2835
25621W        W68533   4.392  13.279  25.198  0.4465  0.0189  0.3613
25622W        W68534   4.671  13.026  24.729  0.1471  0.0157 -0.1751
25623W        W68535   7.274  12.669  25.470  0.0267 -0.1407 -0.0297
25624W        W68536   6.165  13.611  26.677  0.1415 -0.0570 -0.1719
25625W        W68537   4.087  14.810  27.288  0.1830 -0.2221  0.1288
25626W        W68538   3.682  13.465  24.702 -0.0146 -0.2254  0.3635
25627W        W68539   5.344  15.223  27.110 -0.0346  0.0917  0.0514
25628W        W68540   3.251  14.752  27.717 -0.0325  0.0142 -0.0196
25629W        W68541   5.191  12.623  26.870  0.0200 -0.0129 -0.3772
25630W        W68542   4.480  12.524  26.018 -0.3438 -0.0366 -0.3879
25631W        W68543   5.202  13.058  23.349  0.0791  0.0726 -0.1428
25632W        W68544   4.584  13.010  26.269  0.0275  0.1949 -0.0667
25633W        W68545   4.546  13.264  27.823  0.2266 -0.2314 -0.1005
25634W        W68546   3.323  14.388  27.360 -0.0619 -0.0575 -0.1660
25635W        W68547   7.028  10.501  27.317  0.1023 -0.0748  0.1994
25636W        W68548   4.143  13.218  24.600  0.1883 -0.3015 -0.1888
25637W        W68549   7.267  12.309  25.776 -0.0435  0.1878 -0.2120
25638W        W68550   7.004  11.917  24.242 -0.0535 -0.0618 -0.0435
25639W        W68551   6.956  12.790  24.246  0.1701 -0.0344  0.0051
25640W        W68552   5.124  10.807  26.254  0.3236 -0.4228  0.1140
25641W        W68553   4.528  13.775  25.193 -0.0550 -0.0369 -0.3429
25642W        W68554   7.067  11.299  25.592  0.0247 -0.1583  0.0609
25643W        W68555   5.482  12.872  27.864 -0.1190  0.0297 -0.1160
25644W        W68556   5.621  12.141  25.816 -0.1173 -0.0175  0.2320
25645W        W68557   5.811  11.893  26.631 -0.1726  0.1089 -0.2836
25646W        W68558   5.345  15.585  27.730  0.1719  0.1103  0.2100
25647W        W68559   4.779  12.235  26.788 -0.2243 -0.2857  0.3268
25648W        W68560   7.169  14.614  24.455  0.2714 -0.1360  0.1984
25649W        W68561   6.153  14.325  25.406  0.0063 -0.1316 -0.3706
25650W        W68562   6.183  14.222  24.891  0.4357 -0.0929  0.0976
25651W        W68563   5.293  12.205  24.885 -0.1064  0.0167  0.3415
25652W        W68564   3.547  12.226  28.270 -0.1856  0.2346  0.2817
25653W        W68565   3.292  12.258  27.130 -0.2435 -0.2227  0.0268
25654W        W68566   4.065  10.245  23.533  0.1929  0.0794 -0.2191
25655W        W68567   5.119  12.891  26.056  0.1090  0.2128 -0.1581
25656W        W68568   3.299  14.188  27.851  0.4155 -0.0514  0.0743
25657W        W68569   5.626  11.638  25.850 -0.3036 -0.1064  0.1214
25658W        W68570   4.159  12.690  27.280  0.0523 -0.0194 -0.1975
25659W        W68571   6.577  12.552  27.067  0.2527  0.0480  0.2124
25660W        W68572   4.201  13.387  22.965  0.1931  0.1077  0.1350
25661W        W68573   5.907  10.468  25.147 -0.3296 -0.0442  0.0193
25662W        W68574   7.760  10.849  26.656 -0.2291  0.0712  0.2030
25663W        W68575   4.882  11.356  25.282  0.2191 -0.0252  0.2646
25664W        W68576   5.475  12.250  24.346  0.1004 -0.1405 -0.0589
25665W        W68577   6.900  13.333  26.886  0.3025 -0.0179  0.0571
25666W        W68578   7.300  13.864  24.514  0.1308 -0.1658 -0.1253
25667W        W68579   3.576  14.125  25.380 -0.2505  0.1730  0.3276
25668W        W68580   5.049  11.268  26.372 -0.0389 -0.2737 -0.2017
25669W        W68581   5.527  15.051  26.426  0.0734 -0.3475  0.3012
25670W        W68582   4.025  14.450  24.428 -0.2126  0.0792 -0.2073
25671W        W68583   5.093  12.814  27.336 -0.2984  0.1546  0.1105
25672W        W68584   2.757  12.612  24.357 -0.1794  0.2129 -0.1706
25673W        W68585   5.135  11.074  27.263 -0.3276  0.0264  0.2066
25674W        W68586   5.069  14.400  27.088 -0.1031 -0.0409 -0.0550
25675W        W68587   7.834  11.294  25.786  0.0074 -0.0258 -0.0184
25676W        W68588   4.200  11.176  26.848  0.0230 -0.0859  0.0775
25677W        W68589   6.394  11.528  25.608  0.0316 -0.1519  0.3692
25678W        W68590   4.765  11.890  25.985  0.0388 -0.1831  0.1126
25679W        W68591   7.503  14.672  25.357 -0.2156 -0.1393  0.0504
25680W        W68592   7.242  12.612  23.427 -0.0840 -0.0408  0.0085
25681W        W68593   5.562  13.193  24.409 -0.1494  0.0317 -0.1686
25682W        W68594   4.110  10.430  26.253  0.3716 -0.2754 -0.1125
25683W        W68595   4.593  12.187  25.621 -0.4750 -0.0327 -0.0854
25684W        W68596   4.675  11.180  28.861  0.0107 -0.1222 -0.1204
25685W        W68597   4.370  12.218  27.140 -0.0535 -0.0076 -0.4177
25686W        W68598   7.598  12.727  26.384 -0.0476 -0.1429  0.0966
25687W        W68599   4.324  11.260  25.722  0.2176 -0.1656  0.0122
25688W        W68600   6.036  11.882  25.561  0.0564 -0.2108 -0.0174
25689W        W68601   5.161  11.657  25.045  0.2857  0.1316 -0.0106
25690W        W68602   4.055  11.608  23.483 -0.0851  0.2146  0.0903
25691W        W68603   7.296  11.358  28.220  0.1687 -0.1837 -0.0538
25692W        W68604   5.705  13.619  24.681  0.1311  0.0741  0.0127
25693W        W68605   7.344  13.776  26.073 -0.4532 -0.1460  0.3743
25694W        W68606   5.789  14.918  24.322  0.0295 -0.2178 -0.1668
25695W        W68607   4.228  12.053  26.720 -0.2511 -0.0180 -0.3995
25696W        W68608   5.349  11.122  24.643  0.1171 -0.2500  0.1692
25697W        W68609   5.209  14.101  26.476 -0.0317  0.1303 -0.1331
25698W        W68610   4.000  12.641  26.758  0.0603 -0.0879  0.0105
25699W        W68611   3.417  11.691  26.230  0.1609 -0.1116 -0.1309
25700W        W68612   5.424  13.466  25.749 -0.3120 -0.1954 -0.1421
25701W        W68613   4.728  13.390  26.636 -0.0045  0.2421 -0.1446
25702W        W68614   3.985  13.424  27.833  0.0225 -0.1042  0.1440
25703W        W68615   7.346  10.470  26.452  0.2682 -0.4068 -0.2915
25704W        W68616   6.948  12.424  27.328 -0.0869 -0.1522  0.1233
25705W        W68617   6.003  12.267  26.270  0.1650  0.0588 -0.0993
25706W        W68618   4.033  10.748  25.027  0.0682 -0.0015 -0.2353
25707W        W68619   5.915  13.542  26.015  0.0546 -0.0582 -0.0666
25708W        W68620   2.700  14.738  25.332  0.0363  0.0986  0.3068
25709W        W68621   4.086  12.227  25.723  0.1464  0.1236 -0.0971
25710W        W68622   6.357  13.351  25.519  0.0289 -0.0814  0.0095
25711W        W68623   7.303  11.380  26.052 -0.3556 -0.2970 -0.1559
25712W        W68624   2.893  12.873  27.692 -0.1276 -0.0639 -0.2260
25713W        W68625   7.281  10.916  27.807  0.1696 -0.0997 -0.0154
25714W        W68626   4.822  11.461  23.965  0.0731 -0.1655  0.1161
25715W        W68627   3.692  15.037  27.625 -0.0447 -0.1892 -0.0063
25716W        W68628   6.388  10.246  25.108 -0.0022 -0.2202 -0.3783
25717W        W68629   6.309  12.679  23.992  0.0755 -0.2228 -0.1188
25718W        W68630   6.038  11.909  27.147  0.1517 -0.0861  0.0166
25719W        W68631   6.491  13.573  27.016 -0.2228  0.3156 -0.2041
25720W        W68632   5.769  10.960  23.321 -0.2571  0.0476 -0.0204
25721W        W68633   6.943  11.806  25.391 -0.1270  0.3104  0.0430
25722W        W68634   3.792  13.733  28.212  0.1411  0.1780 -0.1171
25723W        W68635   6.078  13.255  26.374  0.2821  0.2425 -0.1789
25724W        W68636   4.781  13.413  28.193 -0.3909  0.1545 -0.3996
25725W        W68637   6.521  13.492  23.750  0.1068 -0.0016 -0.2406
25726W        W68638   6.280  14.772  25.094 -0.0922 -0.0370  0.0694
25727W        W68639   3.308  12.801  25.883 -0.3189  0.2304 -0.1358
25728W        W68640   5.220  15.565  26.721 -0.0260  0.2546 -0.1699
25729W        W68641   5.380  14.461  25.927 -0.0659 -0.0633  0.0424
25730W        W68642   6.214  10.439  25.546 -0.2770  0.3054  0.0314
25731W        W68643   5.004  12.401  24.242 -0.0278 -0.0128  0.2161
25732W        W68644   6.211  11.741  27.619 -0.1634 -0.0740 -0.2527
25733W        W68645   4.302  14.971  25.617  0.4188 -0.0320 -0.0160
25734W        W68646   6.626  12.808  27.525  0.4283 -0.0247 -0.0156
25735W        W68647   7.010  10.825  26.824 -0.1606 -0.1046 -0.0421
25736W        W68648   4.686  11.312  26.794  0.1479 -0.0499  0.1371
25737W        W68649   7.159  12.941  28.344  0.2179 -0.1465  0.3264
25738W        W68650   7.360  13.012  24.088 -0.0757 -0.1657  0.2484
25739W        W68651   3.713  13.066  26.666  0.2219 -0.1866  0.4351
25740W        W68652   4.384  11.219  23.662  0.0737  0.0487 -0.2883
25741W        W68653   6.017  11.123  26.330 -0.1615 -0.0005 -0.0556
25742W        W68654   3.769  13.032  27.145  0.0184 -0.1104  0.2592
25743W        W68655   2.982  14.321  26.344  0.1730  0.1409  0.1014
25744W        W68656   6.952  13.771  26.436 -0.1519  0.2273 -0.0081
25745W        W68657   6.471  13.458  25.996  0.0356  0.2321 -0.0301
25746W        W68658   5.485  10.115  26.747  0.0484  0.0463 -0.0900
25747W        W68659   6.451  12.552  25.184 -0.0698  0.1971 -0.1215
25748W        W68660   5.708  13.850  25.622 -0.3515  0.1364 -0.0342
25749W        W68661   3.163  13.712  24.014  0.0268  0.0410 -0.0851
25750W        W68662   4.921  11.131  25.815  0.0626  0.0412  0.1789
25751W        W68663   5.284  13.269  27.180 -0.0414  0.3964  0.2883
25752W        W68664   5.250  15.241  23.133  0.0573 -0.0365 -0.1109
25753W        W68665   5.693  13.373  26.723  0.1986  0.0390  0.0433
25754W        W68666   3.391  13.124  24.988  0.0983  0.1465 -0.0287
25755W        W68667   6.837  11.324  26.961  0.0604 -0.0326 -0.1871
25756W        W68668   4.177  14.230  24.946  0.2209 -0.1776 -0.0126
25757W        W68669   3.690  14.226  22.896  0.7055 -0.1301 -0.1963
25758W        W68670   2.671  11.684  24.665  0.0480 -0.1364  0.0888
25759W        W68671   6.502  11.658  26.629 -0.2143  0.0807  0.0132
25760W        W68672   6.195  13.808  24.582  0.1305  0.1438  0.1342
25761W        W68673   4.176  11.807  27.375  0.1304 -0.0634 -0.3949
25762W        W68674   3.656  12.271  25.950 -0.2094  0.0318 -0.2020
25763W        W68675   3.970  14.626  26.375 -0.1385  0.1898  0.0619
25764W        W68676   6.547  12.072  27.349  0.1322  0.0229  0.1305
25765W        W68677   6.456  11.821  24.378  0.0612 -0.2654  0.1021
25766W        W68678   5.892  12.759  26.358 -0.0081 -0.3479 -0.1087
25767W        W68679   6.055  13.343  27.081 -0.0287 -0.1963 -0.1539
25768W        W68680   2.620  10.386  23.405  0.1458 -0.0031  0.3822
25769W        W68681   7.445  10.989  27.041 -0.0181  0.1095 -0.0202
25770W        W68682   6.000  11.250  25.836  0.0234  0.1235  0.1205
25771W        W68683   4.136  12.905  26.040 -0.0664  0.2234  0.2046
25772W        W68684   4.961  15.149  26.429  0.0165  0.2367  0.0014
25773W        W68685   4.196  12.056  23.890 -0.1846  0.0888  0.3495
25774W        W68686   4.535  13.106  25.708 -0.1327  0.0208 -0.2599
25775W        W68687   5.406  11.022  27.901 -0.1887  0.3724  0.3060
25776W        W68688   6.327  10.698  28.213 -0.0945  0.1849 -0.1075
25777W        W68689   6.376  11.533  27.100  0.0287  0.2001  0.2981
25778W        W68690   6.393  12.913  26.184  0.4019 -0.1184 -0.1478
25779W        W68691   5.869  12.629  25.836  0.1726  0.1286  0.1131
25780W        W68692   6.854  12.952  25.276 -0.2071 -0.0052  0.1779
25781W        W68693   5.043  12.481  26.390  0.1038 -0.0490 -0.1655
25782W        W68694   3.331  13.865  27.305 -0.1537 -0.3529 -0.2981
25783W        W68695   5.390  10.603  26.607 -0.0163 -0.4614  0.2991
25784W        W68696   8.727  14.204  23.976 -0.1515  0.0943  0.2004
25785W        W68697   6.097  12.276  27.510 -0.0407 -0.1752 -0.1608
25786W        W68698   4.721  12.446  24.727  0.2201 -0.0274  0.0331
25787W        W68699   2.669  12.244  25.409  0.1562  0.0637  0.5675
25788W        W68700   4.100  13.900  26.055 -0.1013 -0.1966  0.1133
25789W        W68701   6.378  12.084  26.807  0.0160  0.1693  0.0494
25790W        W68702   3.575  13.745  26.919  0.2101 -0.1323 -0.1809
25791W        W68703   3.875  12.587  25.151 -0.3168  0.0314 -0.3266
25792W        W68704   3.629  13.739  25.725 -0.1187  0.2775 -0.1457
25793W        W68705   7.345  11.497  24.162  0.0243 -0.0172  0.2204
25794W        W68706   6.331  14.109  22.939  0.4859  0.0127  0.0004
25795W        W68707   5.893  12.074  24.895 -0.0926  0.0982 -0.2327
25796W        W68708   7.698  10.920  27.545  0.1700  0.3722  0.3574
25797W        W68709   5.976  13.007  24.250  0.0759  0.2021 -0.1624
25798W        W68710   6.780  10.916  27.496  0.0527 -0.0058 -0.0810
25799W        W68711   4.998  12.256  27.259  0.3387  0.0095 -0.2100
25800W        W68712   6.755  13.053  25.762 -0.0276  0.4881  0.1119
25801W        W68713   3.243  11.472  25.670 -0.0340 -0.1905  0.0924
25802W        W68714   5.457  13.731  27.027 -0.1214  0.3774  0.2822
25803W        W68715   3.400  12.192  27.709 -0.2271 -0.0544 -0.0939
25804W        W68716   6.887  12.698  23.729 -0.0215 -0.1076  0.1945
25805W        W68717   4.853  11.075  24.707  0.0179  0.0045 -0.0575
25806W        W68718   3.304  12.711  27.452  0.0436  0.0667 -0.0613
25807W        W68719   6.983  13.122  26.284 -0.1637 -0.1860  0.1885
25808W        W68720   3.343  14.252  24.872  0.3511 -0.2474  0.1248
25809W        W68721   6.784  12.377  24.720 -0.0680  0.1123  0.3151
25810W        W68722   4.476  13.542  27.055  0.3473  0.0691 -0.0402
25811W        W68723   6.793  11.676  25.887 -0.1093  0.2268 -0.0665
25812W        W68724   5.318  13.601  24.145  0.1355  0.1247  0.0864
25813W        W68725   5.063  12.726  25.026  0.0377 -0.0274  0.1542
25814W        W68726   4.965  11.293  27.661  0.4367  0.1967  0.0483
25815W        W68727   6.621  12.930  26.677  0.1350 -0.3254  0.0168
25816W        W68728   7.186  10.121  25.078 -0.2836  0.0121 -0.0135
25817W        W68729   5.582  10.825  27.459 -0.0089 -0.2731 -0.2975
25818W        W68730   6.556  12.421  27.793  0.0626  0.0888 -0.0604
25819W        W68731   3.889  12.253  27.306  0.1073 -0.2754  0.0019
25820W        W68732   3.674  10.639  27.711 -0.2488 -0.1378  0.0679
25821W        W68733   6.565  14.934  26.316  0.1184  0.0402 -0.0568
25822W        W68734   6.822  11.433  23.011 -0.1755  0.0125  0.0008
25823W        W68735   7.164  11.601  28.752 -0.0199  0.2807  0.0451
25824W        W68736   6.390  12.821  24.477  0.0014  0.0153  0.2867
25825W        W68737   6.003  13.099  24.746 -0.0170  0.2121 -0.0206
25826W        W68738   3.828  11.992  26.317 -0.2559 -0.0431 -0.0363
25827W        W68739   6.697  11.976  29.122  0.2593 -0.0879 -0.3476
25828W        W68740   4.062  10.759  23.614  0.0981 -0.1162  0.2693
25829W        W68741   7.352  11.053  26.493  0.1387 -0.1991  0.0469
25830W        W68742   5.737  14.405  23.511  0.0804  0.1459  0.4342
25831W        W68743   6.561  13.333  24.590 -0.0091 -0.2462 -0.2183
25832W        W68744   6.910  12.904  24.754 -0.1019  0.0714  0.1873
25833W        W68745   3.614  11.860  25.706  0.1183 -0.0187 -0.2922
25834W        W68746   3.101  14.948  27.252 -0.0136  0.2529  0.0742
25835W        W68747   4.410  11.969  23.286  0.2792  0.2475  0.2008
25836W        W68748   4.463  12.361  24.292  0.0921 -0.2438  0.1089
25837W        W68749   5.236  15.057  27.760  0.0653  0.0909  0.0610
25838W        W68750   7.581  12.277  26.624 -0.1474 -0.3356  0.0230
25839W        W68751   5.868  11.410  25.381 -0.0942 -0.0167 -0.1873
25840W        W68752   6.637  11.447  27.493 -0.0127 -0.4883 -0.0375
25841W        W68753   3.398  13.254  24.340  0.0776 -0.0833  0.2097
25842W        W68754   5.448  11.178  25.990 -0.0436  0.0040 -0.0452
25843W        W68755   3.358  13.903  26.317 -0.3504  0.2651  0.2058
25844W        W68756   3.700  13.971  27.641  0.0730  0.2491 -0.2133
25845W        W68757   3.212  12.335  25.717  0.0860  0.2609  0.0380
25846W        W68758   5.946  11.337  27.335 -0.0875  0.3218  0.0220
25847W        W68759   5.936  10.280  27.552  0.3931 -0.3031  0.1757
25848W        W68760   5.918  13.778  27.220 -0.0091  0.0173  0.0618
25849W        W68761   6.917  11.541  26.391 -0.0117  0.0760 -0.1619
25850W        W68762   6.130  13.863  26.293 -0.0967 -0.2394 -0.0458
25851W        W68763   4.044  13.158  25.602  0.0578 -0.3446 -0.1914
25852W        W68764   5.659  14.520  26.343  0.0610  0.2360 -0.2018
25853W        W68765   7.195  12.580  24.980  0.2129  0.4362 -0.0866
25854W        W68766   3.890  13.391  26.011  0.0544 -0.0133 -0.1014
25855W        W68767   3.705  10.914  26.867 -0.1320  0.0678 -0.1670
25856W        W68768   5.412  12.947  26.516 -0.2184 -0.3620 -0.1164
25857W        W68769   6.261  12.863  25.605  0.0629  0.1867  0.1876
25858W        W68770   5.808  10.817  25.671 -0.1147 -0.0709  0.0042
25859W        W68771   4.286  14.366  22.746 -0.0800 -0.1581 -0.2009
25860W        W68772   2.519  14.317  29.139 -0.0788 -0.1286  0.1874
25861W        W68773   2.968  12.078  27.980  0.1908 -0.1553  0.0700
25862W        W68774   3.361  15.146  25.043  0.0918 -0.1319 -0.0656
25863W        W68775   5.279  14.318  24.888 -0.0676 -0.0642  0.0418
25864W        W68776   5.600  13.084  26.101  0.0085  0.1909  0.3775
25865W        W68777   5.855  15.640  27.173 -0.1402  0.2095  0.0578
25866W        W68778   5.017  11.892  24.164  0.1783 -0.1395  0.0040
25867W        W68779   4.824  12.703  25.610 -0.0399 -0.0044  0.1405
25868W        W68780   4.243  15.239  24.674 -0.3314  0.0171  0.2485
25869W        W68781   6.718  13.609  24.165  0.1181 -0.0895 -0.0772
25870W        W68782   4.099  13.651  24.915 -0.0247 -0.0109 -0.0575
25871W        W68783   7.053  11.536  27.814  0.2062  0.0330 -0.3653
25872W        W68784   6.331  10.989  23.700  0.0139 -0.0201 -0.3874
25873W        W68785   6.003  13.353  25.152 -0.2138  0.1689  0.0246
25874W        W68786   7.900  12.122  23.900 -0.1917  0.0917 -0.1724
25875W        W68787   6.120  12.924  26.769  0.0132  0.0515  0.1601
25876W        W68788   4.401  13.041  26.930  0.0288 -0.0389 -0.0908
25877W        W68789   5.731  10.981  25.147  0.0725 -0.0119 -0.1413
25878W        W68790   4.230  11.648  26.925  0.1462 -0.0150 -0.3101
25879W        W68791   8.908  10.349  29.365 -0.2573 -0.1800  0.1669
25880W        W68792   3.997  13.444  26.904  0.2356  0.4077  0.1384
25881W        W68793   5.362  13.962  24.472  0.2612 -0.2767 -0.2505
25882W        W68794   5.008  12.357  25.281 -0.3288  0.3986  0.0850
25883W        W68795   5.950  12.824  25.246  0.0070 -0.1659 -0.0040
25884W        W68796   7.225  11.873  26.118  0.2266 -0.2264  0.0872
25885W        W68797   5.458  13.023  25.391 -0.2010 -0.2961 -0.2237
25886W        W68798   6.423  11.165  26.740  0.1198  0.1166 -0.0431
25887W        W68799   4.237  13.969  24.485 -0.1239  0.2038  0.2240
25888W        W68800   4.996  13.674  27.347  0.2240  0.2561  0.0503
25889W        W68801   3.820  13.973  26.475 -0.0748  0.2162 -0.0017
25890W        W68802   4.914  10.991  23.668  0.0492 -0.0275 -0.3951
25891W        W68803   6.894  11.451  24.390  0.2323  0.2113  0.1521
25892W        W68804   5.350  14.734  26.762  0.0639 -0.1824  0.4042
25893W        W68805   7.434  10.403  27.594 -0.0362 -0.0771 -0.0966
25894W        W68806   4.958  12.957  26.620  0.2735  0.0076 -0.0329
25895W        W68807   7.156  11.040  24.276 -0.3265 -0.2957  0.2112
25896W        W68808   4.444  12.613  26.685  0.0342  0.2065 -0.1074
25897W        W68809   4.361  11.952  27.907  0.1727  0.2420  0.0691
25898W        W68810   5.673  12.907  23.897 -0.0226  0.5722  0.1920
25899W        W68811   6.330  12.441  25.979 -0.1048 -0.0551 -0.0953
25900W        W68812   4.512  12.911  24.250  0.0326 -0.1884 -0.2894
25901W        W68813   6.715  14.369  26.946 -0.1189 -0.1617  0.0465
25902W        W68814   4.068  11.148  25.344 -0.0139 -0.0755  0.2104
25903W        W68815   6.457  12.098  25.565 -0.2844  0.1894 -0.4011
25904W        W68816   4.217  13.613  25.583 -0.1226 -0.2317 -0.0083
25905W        W68817   5.235  12.415  27.686  0.0811 -0.3980  0.0352
25906W        W68818   6.614  13.115  27.901  0.2915  0.0485 -0.0852
25907W        W68819   4.652  11.622  25.618  0.2302 -0.0540  0.1549
25908W        W68820   6.663  13.756  22.720 -0.2266 -0.0172 -0.0933
25909W        W68821   6.910  12.091  27.760  0.2893 -0.1433 -0.1794
25910W        W68822   4.905  14.700  24.833  0.0705 -0.0207 -0.1212
25911W        W68823   7.122  12.760  26.657 -0.0921  0.0371  0.2879
25912W        W68824   4.318  14.214  26.407 -0.2104  0.2414 -0.0012
25913W        W68825   3.744  11.504  25.340  0.2323  0.0557  0.2389
25914W        W68826   3.528  15.511  27.585  0.1414 -0.3467  0.3147
25915W        W68827   7.627  13.807  25.655  0.1598  0.2725 -0.3345
25916W        W68828   6.677  11.218  25.324  0.1249 -0.1472  0.0627
25917W        W68829   3.308  11.859  26.686 -0.1232  0.1173 -0.1005
25918W        W68830   3.113  12.172  24.750 -0.1852  0.2160 -0.1233
25919W        W68831   6.066  12.380  25.473  0.0941  0.0102  0.1909
25920W        W68832   5.529  11.094  26.540  0.1753  0.0439  0.0478
25921W        W68833   4.708  15.314  24.597  0.2446  0.4187  0.3433
25922W        W68834   7.751  10.237  27.912 -0.2910 -0.1143  0.2070
25923W        W68835   5.566  14.288  26.820 -0.1183 -0.0153  0.1629
25924W        W68836   4.111  16.307  27.890 -0.0001  0.0935  0.1801
25925W        W68837   3.138  11.645  23.938 -0.0452 -0.1922 -0.0975
25926W        W68838   3.515  12.624  26.894 -0.1764 -0.0009  0.1568
25927W        W68839   4.342  13.705  26.493 -0.0905 -0.2632  0.0597
25928W        W68840   4.905  13.126  25.298 -0.0418 -0.1143 -0.1682
25929W        W68841   6.708  13.731  25.581  0.1094  0.1192  0.1573
25930W        W68842   5.826  13.112  25.633 -0.1361  0.0152 -0.1487
25931W        W68843   7.786  13.479  25.322 -0.0266 -0.0881 -0.2129
25932W        W68844   5.137  11.877  25.549 -0.1232  0.1227 -0.0383
25933W        W68845   7.405  10.879  25.844  0.2625  0.3689 -0.2794
25934W        W68846   6.387  10.917  25.730  0.2269 -0.1814 -0.0457
25935W        W68847   4.406  15.491  27.125  0.1978 -0.0259 -0.2245
25936W        W68848   3.194  12.747  24.519 -0.0234 -0.0369 -0.0705
25937W        W68849   4.265  13.447  23.594 -0.0023  0.0152 -0.0516
25938W        W68850   4.978  13.825  26.875 -0.0618  0.1389  0.0843
25939W        W68851   4.393  12.076  28.912  0.0590  0.2555 -0.2232
25940W        W68852   3.825  11.381  27.029  0.0112  0.0098  0.2537
25941W        W68853   4.280  12.707  25.536 -0.2050  0.0363 -0.0457
25942W        W68854   4.116  10.179  25.830 -0.0293  0.0623 -0.1966
25943W        W68855   5.464  14.580  24.450 -0.1692  0.0948  0.3527
25944W        W68856   4.595  11.447  26.118  0.0582 -0.8099  0.2811
25945W        W68857   5.128  11.579  25.984 -0.2583  0.0018 -0.2164
25946W        W68858   6.469  13.032  24.994 -0.2222 -0.4616  0.1660
25947W        W68859   4.907  14.526  25.806 -0.0492  0.1343 -0.2405
25948W        W68860   5.496  11.589  26.382 -0.0615  0.1884 -0.0521
25949W        W68861   6.387  13.607  27.527 -0.0504 -0.1920 -0.1083
25950W        W68862   4.695  13.373  23.964 -0.1300 -0.1449  0.0029
25951W        W68863   4.780  13.191  27.205  0.0198 -0.1775  0.0704
25952W        W68864   5.908  11.295  27.840 -0.0449  0.1440 -0.2240
25953W        W68865   5.279  10.235  24.766 -0.1124 -0.0730  0.0236
25954W        W68866   6.916  11.792  27.103 -0.1687  0.1909 -0.2472
25955W        W68867   6.204  13.944  25.789  0.1589  0.2944  0.1183
25956W        W68868   6.624  15.257  23.739 -0.0237  0.1863 -0.1472
25957W        W68869   5.643  13.681  28.119 -0.0686  0.1563 -0.2391
25958W        W68870   3.714  14.723  27.019  0.2981 -0.0062 -0.0877
25959W        W68871   3.166  10.412  27.317  0.0686  0.2088  0.3341
25960W        W68872   5.606  11.890  25.293  0.0134  0.0944 -0.0097
25961W        W68873   3.649  14.805  28.126 -0.0716  0.1474 -0.0835
25962W        W68874   6.707  12.580  25.651 -0.0529 -0.0878  0.0227
25963W        W68875   7.869  11.240  24.918  0.0665  0.1120  0.2094
25964W        W68876   5.195  13.395  26.712 -0.2025 -0.2108 -0.1979
25965W        W68877   5.405  10.283  27.440  0.3603  0.1852 -0.2038
25966W        W68878   4.118  13.948  27.870 -0.1613  0.0985  0.0833
25967W        W68879   7.433  13.982  26.501  0.0673  0.0204  0.0307
25968W        W68880   4.298  11.566  26.454  0.1405 -0.1052  0.0411
25969W        W68881   5.925  10.726  23.859 -0.4925  0.2081 -0.0225
25970W        W68882   5.569  12.748  24.895 -0.2889  0.1745 -0.1942
25971W        W68883   3.747  12.201  26.746 -0.1031  0.0668  0.1549
25972W        W68884   5.427  12.604  25.674  0.1249 -0.1904  0.3134
25973W        W68885   5.499  12.328  27.192  0.1297 -0.2029 -0.1427
25974W        W68886   5.680  14.894  25.931  0.0453 -0.1006  0.1486
25975W        W68887   6.024  12.727  27.797  0.1080  0.1228 -0.0314
25976W        W68888   5.603  11.500  24.890  0.0944 -0.1976  0.2320
25977W        W68889   7.608  13.424  22.793  0.1753  0.1914  0.0817
25978W        W68890   4.723  15.334  27.613 -0.0207  0.1199  0.2089
25979W        W68891   6.520  14.069  27.763 -0.2856  0.0353  0.0976
25980W        W68892   5.658  13.812  26.540 -0.1336 -0.1056  0.2358
25981W        W68893   5.831  13.845  24.222  0.0623 -0.4020 -0.2902
25982W        W68894   4.556  10.388  27.146 -0.2564 -0.0388  0.1131
25983W        W68895   4.739  11.966  25.167  0.1858  0.2503  0.1369
25984W        W68896   4.985  13.614  25.468 -0.2953  0.1223  0.0407
25985W        W68897   7.222  11.213  27.422 -0.0612  0.2536 -0.0150
25986W        W68898   5.231  11.446  26.809  0.1270  0.0393 -0.0684
25987W        W68899   4.563  11.111  24.133  0.2798 -0.0722  0.0126
25988W        W68900   5.130  14.657  26.308  0.2190  0.3278 -0.3148
25989W        W68901   6.357  12.503  26.532 -0.0709  0.1148  0.1289
25990W        W68902   4.599  13.653  31.172 -0.2156 -0.1446 -0.0829
25991W        W68903   5.507  11.320  27.529 -0.0270 -0.2719 -0.4213
25992W        W68904   8.713  10.205  28.090 -0.1799  0.1377  0.2731
25993W        W68905   7.436  13.584  28.670  0.1407  0.2279  0.1353
25994W        W68906   4.418  11.880  29.888  0.1989 -0.2105 -0.3186
25995W        W68907   5.191  15.066  29.008 -0.0590 -0.1947  0.2488
25996W        W68908   5.549  12.261  30.347  0.0017  0.0703 -0.1522
25997W        W68909   6.588  12.662  29.694  0.1785 -0.2078  0.1131
25998W        W68910   7.381  14.061  31.363 -0.1267  0.2652 -0.1717
25999W        W68911   5.130  13.776  27.984  0.1397  0.2728 -0.3685
26000W        W68912   4.650  12.560  30.403  0.0187  0.2485  0.0535
26001W        W68913   4.519  13.469  30.206 -0.0014  0.0543 -0.0113
26002W        W68914   6.409  11.145  27.881 -0.1279 -0.1280 -0.0607
26003W        W68915   3.816  10.074  30.435 -0.1949 -0.1761  0.1574
26004W        W68916   7.047  13.922  30.926 -0.1310 -0.1350 -0.1337
26005W        W68917   3.370  13.423  28.378 -0.1466 -0.2551 -0.1466
26006W        W68918   3.499  12.499  30.123 -0.0741 -0.2078  0.0308
26007W        W68919   5.029  12.617  28.913 -0.1667 -0.0934  0.1109
26008W        W68920   4.956  14.903  27.312  0.0345  0.3316  0.0594
26009W        W68921   4.898  12.635  31.167 -0.3108 -0.0331  0.2473
26010W        W68922   5.803  10.528  30.623  0.1905 -0.0405  0.2790
26011W        W68923   4.806  14.252  28.915  0.1452  0.0627 -0.1867
26012W        W68924   5.734  11.761  28.054  0.0868  0.2267 -0.2701
26013W        W68925   3.640  11.492  29.737  0.2344  0.0828 -0.1567
26014W        W68926   4.813  13.654  28.911  0.1078  0.2164 -0.0558
26015W        W68927   6.875  10.830  31.268  0.1948  0.0244  0.0496
26016W        W68928   7.132  10.793  28.911  0.1309 -0.0605  0.3754
26017W        W68929   5.343  14.615  29.669 -0.1903 -0.0552 -0.0033
26018W        W68930   5.466  13.293  29.605  0.1754 -0.2482 -0.1387
26019W        W68931   4.483  12.628  29.960 -0.4539  0.3265  0.4086
26020W        W68932   3.859  13.031  29.651 -0.0729  0.0837  0.1418
26021W        W68933   2.782  15.408  28.043 -0.1453 -0.1766 -0.1341
26022W        W68934   5.159  14.389  28.058 -0.1115 -0.1329 -0.1724
26023W        W68935   7.216  12.041  29.114 -0.1204 -0.1854  0.0199
26024W        W68936   6.420  15.959  30.622  0.1021 -0.0635 -0.2942
26025W        W68937   5.436  15.331  31.643  0.0896 -0.0540  0.0719
26026W        W68938   3.562  13.733  28.869  0.3092 -0.2003  0.0468
26027W        W68939   6.375  15.078  29.769 -0.3099 -0.1510 -0.2814
26028W        W68940   3.766  14.073  31.507 -0.2486 -0.2036  0.2975
26029W        W68941   5.238  12.142  29.723  0.2426 -0.1076  0.2832
26030W        W68942   5.027  12.085  29.167 -0.1396 -0.4991 -0.0453
26031W        W68943   4.259  14.493  28.818  0.1903 -0.2080 -0.2778
26032W        W68944   5.479  13.118  29.120  0.0402  0.0773 -0.3614
26033W        W68945   3.776  12.726   0.518  0.0087  0.0181  0.3823
26034W        W68946   4.400  11.963  30.429  0.0249  0.1701  0.0585
26035W        W68947   7.338  11.861  31.514  0.1873 -0.2546  0.1424
26036W        W68948   3.810  14.491  27.765 -0.1339 -0.0730 -0.0526
26037W        W68949   8.054  11.372  28.721  0.1432 -0.0143  0.3290
26038W        W68950   5.553  12.334  26.589 -0.5475 -0.2521  0.0203
26039W        W68951   6.560   9.962  29.444  0.0723 -0.0567 -0.0862
26040W        W68952   5.284  10.771  28.317  0.2357  0.0187  0.2314
26041W        W68953   4.115  13.575  28.804  0.0354 -0.1507  0.0862
26042W        W68954   3.781  13.612  30.579  0.0587 -0.1873 -0.2269
26043W        W68955   6.908  14.623  28.503 -0.1075 -0.0113 -0.3546
26044W        W68956   5.342  12.816  28.362  0.0979 -0.0347  0.1369
26045W        W68957   6.534  11.349  30.279 -0.2249  0.1225  0.0176
26046W        W68958   4.494  13.372  30.766  0.1185  0.2954 -0.0874
26047W        W68959   4.042  12.458  29.090  0.0452  0.0410 -0.2152
26048W        W68960   5.846  13.223  28.077 -0.0084  0.1307 -0.0226
26049W        W68961   6.330  14.354  29.050 -0.3540  0.1068 -0.2276
26050W        W68962   5.149  14.113  27.564 -0.0272 -0.0209  0.3851
26051W        W68963   3.379  12.140  29.784 -0.1931 -0.0024  0.0914
26052W        W68964   4.347  13.267  31.364 -0.0766  0.1979  0.0985
26053W        W68965   2.812  10.729  30.625 -0.0021 -0.2304 -0.0441
26054W        W68966   4.810  10.846  27.994  0.2136  0.1722 -0.0865
26055W        W68967   7.319  13.812  31.944  0.1178  0.2190 -0.2926
26056W        W68968   2.893  14.900  30.254  0.2130  0.3278 -0.2184
26057W        W68969   6.335  11.816  30.684 -0.1218  0.1942  0.1239
26058W        W68970   4.686  13.909  29.901 -0.3556 -0.2932 -0.2533
26059W        W68971   6.509  13.827  29.801 -0.1072 -0.0340 -0.2671
26060W        W68972   4.966  12.880  27.956 -0.0303 -0.3765  0.2510
26061W        W68973   5.715   8.094  29.457 -0.1452 -0.2644  0.1200
26062W        W68974   6.384  10.755  30.541 -0.2080  0.1815  0.0575
26063W        W68975   4.387  13.030  28.213  0.0980 -0.2292 -0.1617
26064W        W68976   5.204  13.597  28.487 -0.3945 -0.0255  0.4537
26065W        W68977   7.383  12.761  30.932  0.1908 -0.0777 -0.0558
26066W        W68978   7.514  12.977  26.913  0.1333  0.0166  0.0371
26067W        W68979   3.258  14.078  30.399  0.0299 -0.0157  0.0916
26068W        W68980   5.333  13.526  30.978 -0.1707 -0.2303  0.0844
26069W        W68981   5.345  12.303  31.494 -0.2002 -0.2546 -0.1212
26070W        W68982   4.256  14.089  28.433 -0.5253  0.1294  0.2173
26071W        W68983   2.843  13.214  29.944  0.4205 -0.3005 -0.1907
26072W        W68984   3.025  13.707  28.616 -0.0136  0.0997 -0.0619
26073W        W68985   3.818  10.510  29.587 -0.0687 -0.1548  0.0896
26074W        W68986   4.919  12.482  31.673 -0.0018 -0.0205 -0.1307
26075W        W68987   6.500  10.206  27.960 -0.1446 -0.2697  0.0733
26076W        W68988   5.147  10.265  31.834 -0.0336 -0.0691 -0.2776
26077W        W68989   6.921  11.207  28.644  0.0173  0.2578  0.4269
26078W        W68990   3.809  13.843  30.009  0.1644  0.2729  0.1435
26079W        W68991   6.253  13.029  28.310 -0.2333 -0.2390  0.0178
26080W        W68992   6.315  11.889  28.574 -0.2419  0.1926 -0.2881
26081W        W68993   6.173  13.166  27.596  0.2023  0.1912 -0.1414
26082W        W68994   3.448  11.018  30.448  0.4145 -0.0827  0.1322
26083W        W68995   5.483  11.924  28.916 -0.1773  0.2053  0.0852
26084W        W68996   4.151  11.771   0.525 -0.1447  0.0344 -0.1703
26085W        W68997   4.539  10.448  29.465 -0.0300 -0.2023 -0.1967
26086W        W68998   6.278  12.990  30.473 -0.2142 -0.1853 -0.1960
26087W        W68999   5.651  11.191  29.963  0.0694 -0.2518  0.0249
26088W        W69000   6.079  11.300  28.960  0.1178 -0.1025  0.1027
26089W        W69001   3.887  12.487  29.740 -0.0030 -0.0565  0.1950
26090W        W69002   4.043  11.572  30.094 -0.0560  0.0571  0.0353
26091W        W69003   7.128  11.096  30.939 -0.0514 -0.2287 -0.1906
26092W        W69004   5.162  14.122  28.506  0.0258  0.0593 -0.2531
26093W        W69005   6.570  14.099  30.812  0.0139 -0.2479 -0.1265
26094W        W69006   7.390  14.268  29.709 -0.1868 -0.1146 -0.1234
26095W        W69007   4.681  10.939  30.488 -0.0469 -0.1357  0.0590
26096W        W69008   4.871  12.201  28.649 -0.1877 -0.0804 -0.0805
26097W        W69009   3.849  15.608  29.427  0.0532 -0.1875  0.3195
26098W        W69010   5.353  14.098  30.497 -0.1320  0.1910 -0.0517
26099W        W69011   4.183  13.220  27.389 -0.1659 -0.3050  0.1269
26100W        W69012   6.357  14.080  29.434  0.3867 -0.2595  0.0452
26101W        W69013   5.949  14.094  29.138  0.0708  0.0463 -0.3832
26102W        W69014   3.552  13.937  30.984 -0.1186 -0.1961 -0.0577
26103W        W69015   5.329  10.718  30.509  0.1484  0.0424  0.1996
26104W        W69016   7.275  12.516  29.269  0.0400 -0.0661  0.0317
26105W        W69017   5.080  13.257  27.632 -0.1669  0.0797  0.2915
26106W        W69018   3.172  11.803  27.471 -0.0896 -0.1197 -0.1078
26107W        W69019   5.293  14.141  29.127  0.0139  0.1194 -0.0070
26108W        W69020   2.213  14.400  28.171  0.2309 -0.2916  0.0887
26109W        W69021   3.851  11.967  29.722 -0.0512 -0.2392 -0.0553
26110W        W69022   5.482  13.673  29.921 -0.3401 -0.0142  0.0499
26111W        W69023   8.458  11.360  27.660  0.5244  0.0499 -0.2831
26112W        W69024   4.275  10.914   0.004  0.0858  0.2053 -0.1401
26113W        W69025   4.061  12.802  30.089 -0.1208  0.0413  0.0926
26114W        W69026   4.864  12.083  28.169  0.0634  0.2993  0.0826
26115W        W69027   3.734  14.130  29.485  0.0068 -0.0283  0.0490
26116W        W69028   6.813   8.763  28.220  0.2868  0.0914  0.0291
26117W        W69029   6.841  10.560  27.921  0.1249  0.0311  0.1395
26118W        W69030   5.865  13.290  29.916 -0.0002 -0.0419  0.1104
26119W        W69031   5.330  13.995  29.593 -0.0453  0.4112  0.2342
26120W        W69032   7.749  10.446  28.410  0.0475  0.1437 -0.1556
26121W        W69033   5.075  10.659  27.596  0.0758 -0.0750 -0.3613
26122W        W69034   2.604  14.909  29.819  0.0291  0.0113  0.1921
26123W        W69035   5.385  13.646  29.071 -0.0296  0.1075  0.0565
26124W        W69036   4.461  13.528  29.685  0.1462  0.0562  0.0640
26125W        W69037   6.862  11.121  28.132 -0.0911 -0.3586  0.1276
26126W        W69038   5.639  14.410  28.840 -0.0789 -0.0147 -0.0815
26127W        W69039   2.922  13.705  30.077  0.1126  0.2160 -0.4108
26128W        W69040   6.269  13.859  30.427  0.2967 -0.1690  0.0723
26129W        W69041   5.206  14.622  29.197 -0.2032  0.0053 -0.0133
26130W        W69042   5.138  10.992  30.159  0.2307  0.3629  0.0719
26131W        W69043   4.266  12.365  27.662 -0.3206  0.3579 -0.1258
26132W        W69044   6.183   9.927  30.441 -0.2059 -0.1026 -0.1024
26133W        W69045   3.939  15.594  28.526 -0.4114  0.0583 -0.1082
26134W        W69046   6.004  11.817  29.594 -0.1835 -0.2977  0.0900
26135W        W69047   5.579  12.067  29.414 -0.1984  0.0454 -0.1421
26136W        W69048   5.292   9.964  31.458  0.0116  0.0065  0.1663
26137W        W69049   7.030  12.685  30.146 -0.1589  0.1518  0.1290
26138W        W69050   5.795  12.739  28.258  0.1079  0.0954  0.2740
26139W        W69051   6.137  11.482  28.267 -0.0177 -0.1394  0.0192
26140W        W69052   4.102  12.934  27.767  0.0296  0.3239  0.3195
26141W        W69053   5.654  10.067  30.468  0.0694 -0.2196 -0.1000
26142W        W69054   4.299  11.712  31.257 -0.2165  0.1343  0.0304
26143W        W69055   5.221  14.756  30.264  0.0585  0.0436  0.2209
26144W        W69056   7.646  12.323  31.295  0.2567 -0.1760  0.0071
26145W        W69057   6.823  12.304  29.480 -0.2463  0.2004  0.0753
26146W        W69058   5.728  11.029  30.807  0.0122 -0.0836  0.4265
26147W        W69059   5.583  11.210  28.910  0.1729  0.2284  0.0192
26148W        W69060   5.560  13.292  28.643 -0.0670 -0.4049 -0.0539
26149W        W69061   5.263  13.292  28.080 -0.5702 -0.0117 -0.2532
26150W        W69062   4.172  10.125  30.038 -0.3152 -0.0671  0.1791
26151W        W69063   4.061  14.569  29.664 -0.2528 -0.2443 -0.2315
26152W        W69064   4.389  14.422  27.835 -0.2407 -0.3246  0.0658
26153W        W69065   6.839  12.741  31.241 -0.0485  0.0790 -0.3242
26154W        W69066   4.433  13.942  28.901 -0.0320 -0.0046  0.1983
26155W        W69067   6.072  11.454  30.125  0.1315  0.0876 -0.1343
26156W        W69068   3.743  14.522  28.501 -0.0908 -0.0127 -0.0380
26157W        W69069   5.250  12.018  26.261  0.0422 -0.1795 -0.2966
26158W        W69070   3.625  12.824  29.123 -0.0275  0.0707  0.0047
26159W        W69071   5.894  10.850  28.056 -0.2190 -0.0194 -0.0346
26160W        W69072   6.147  12.785  27.275  0.0249  0.2695  0.2450
26161W        W69073   5.272  11.131  29.285  0.3582  0.0189 -0.1540
26162W        W69074   5.209  12.599  29.948 -0.2163 -0.0940  0.2195
26163W        W69075   3.426  14.968  29.120 -0.1888  0.2252 -0.0313
26164W        W69076   5.770  12.767  30.100 -0.0254 -0.0261 -0.0227
26165W        W69077   6.800  10.434  26.483  0.2642 -0.1330 -0.2201
26166W        W69078   5.970  13.829  29.863  0.2521  0.2802  0.1398
26167W        W69079   4.423  12.006   0.200  0.2291 -0.1441 -0.0456
26168W        W69080   4.620  11.882  29.410 -0.2534  0.1488  0.3026
26169W        W69081   5.904  10.697  29.690 -0.2574  0.2368 -0.0999
26170W        W69082   4.988  11.233  29.725 -0.1508 -0.0986 -0.1146
26171W        W69083   3.986  14.102  29.052 -0.3844  0.2965  0.1588
26172W        W69084   5.741  13.692  29.460  0.2099 -0.3180  0.1589
26173W        W69085   5.115  13.194  28.787 -0.0785  0.1821  0.0141
26174W        W69086   3.335  13.860  29.301 -0.2631 -0.1488 -0.0353
26175W        W69087   3.170  11.902   0.037 -0.1585  0.0509  0.3197
26176W        W69088   6.261  12.970  29.897 -0.2007 -0.0416 -0.1723
26177W        W69089   4.992  13.329  29.381  0.0220 -0.2094  0.2660
26178W        W69090   5.625   9.691  29.046 -0.1154  0.2851 -0.2902
26179W        W69091   6.715  10.551  29.054 -0.1170 -0.0803 -0.2950
26180W        W69092   6.724  12.212  29.954 -0.1043 -0.0386  0.0884
26181W        W69093   4.221  10.806  29.712  0.1170  0.2067 -0.1094
26182W        W69094   5.446  14.017  31.439  0.0144  0.0474  0.0652
26183W        W69095   5.738  11.151  29.453  0.3740 -0.2296 -0.3502
26184W        W69096   5.576  14.123  27.857 -0.0336 -0.2283 -0.1902
26185W        W69097   6.791  13.078  30.632 -0.0223  0.3342  0.0065
26186W        W69098   4.720  13.848  28.488 -0.2495  0.4400  0.1368
26187W        W69099   2.954  12.510  31.140 -0.1196 -0.1292 -0.1638
26188W        W69100   4.563  13.267  28.695 -0.0777  0.3078  0.0345
26189W        W69101   5.908  11.639  30.984 -0.0221 -0.0490  0.0853
26190W        W69102   5.829  13.201  30.406  0.2315 -0.2184 -0.2525
26191W        W69103   4.125  14.934  27.965 -0.0480 -0.2039  0.2386
26192W        W69104   2.993  15.389  30.356  0.2088 -0.0145  0.2882
26193W        W69105   6.508  10.056  26.610  0.1092 -0.0218  0.1137
26194W        W69106   5.417  13.655  27.595 -0.2664  0.0565  0.0381
26195W        W69107   6.032   9.942  29.485 -0.1383 -0.0372  0.1825
26196W        W69108   7.594  11.477  31.147  0.0602 -0.1319 -0.2724
26197W        W69109   5.884  13.588  27.702  0.1003  0.0723 -0.0373
26198W        W69110   5.959  10.944  30.294  0.0015 -0.2404 -0.1422
26199W        W69111   4.988  10.791  30.834  0.1353 -0.6011  0.1746
26200W        W69112   7.471  12.501  28.219 -0.3086 -0.0755 -0.1332
26201W        W69113   3.669  11.412  30.370 -0.2316 -0.2479 -0.0570
26202W        W69114   5.446  13.175  30.118  0.0171 -0.1157 -0.2662
26203W        W69115   3.301  12.118   0.488  0.3192  0.2336 -0.0560
26204W        W69116   4.738  12.322  27.736  0.0134  0.2958 -0.1321
26205W        W69117   5.289  11.693  29.391 -0.0677 -0.1124 -0.1326
26206W        W69118   4.030  13.169  30.644  0.2401  0.6427  0.1949
26207W        W69119   5.757  12.306  27.964 -0.2473  0.2648  0.3241
26208W        W69120   5.606  14.406  28.307  0.3448  0.2355  0.2517
26209W        W69121   6.509  12.624  30.220  0.3223  0.3290  0.0490
26210W        W69122   3.342  13.121  29.889  0.1635  0.2184  0.1280
26211W        W69123   4.675  11.672  28.744 -0.0902 -0.1494 -0.0403
26212W        W69124   4.554  13.697  27.614  0.0346 -0.1189 -0.0048
26213W        W69125   4.792  12.992  29.062 -0.0211 -0.2546  0.1153
26214W        W69126   4.078  10.503   0.377  0.0103 -0.1197  0.2434
26215W        W69127   6.616  12.160  28.222 -0.0365  0.1280 -0.1582
26216W        W69128   7.105   9.918  29.532  0.3013 -0.0061  0.2722
26217W        W69129   5.585  10.689  30.135 -0.1091  0.0342  0.0954
26218W        W69130   5.369  13.060  30.709  0.1449  0.1976  0.4642
26219W        W69131   5.097  13.580  31.389 -0.4167  0.3637  0.1710
26220W        W69132   3.350  11.694  31.145  0.1643  0.3488  0.1510
26221W        W69133   6.210  15.466  30.410  0.0701  0.0963 -0.0263
26222W        W69134   5.287  11.905  28.455 -0.2085  0.2200 -0.1874
26223W        W69135   5.798  11.234   0.028 -0.3366 -0.0655  0.0443
26224W        W69136   6.852  11.602  28.348 -0.1258 -0.1789  0.1392
26225W        W69137   5.546  10.504  27.895  0.0721  0.3727  0.1912
26226W        W69138   4.789  11.459  30.188  0.1092 -0.1403  0.1538
26227W        W69139   6.965  11.963  30.732  0.1180  0.2273 -0.2589
26228W        W69140   4.595  12.798  27.589  0.1282  0.1842  0.1915
26229W        W69141   4.472  12.283  31.211  0.2429 -0.0120 -0.0703
26230W        W69142   4.481  14.880  27.625  0.2977  0.0190  0.0402
26231W        W69143   6.052  12.420  30.361 -0.4655  0.4338 -0.0451
26232W        W69144   4.425   9.380  28.509 -0.2175 -0.1608  0.0260
26233W        W69145   4.171  11.579  29.583  0.1121  0.0177  0.3893
26234W        W69146   4.951  14.134  31.458 -0.1605 -0.1924  0.0700
26235W        W69147   4.278  12.130  28.435 -0.0709  0.2162 -0.0696
26236W        W69148   4.541  12.551  28.123 -0.1508 -0.3521  0.0735
26237W        W69149   6.444  13.052  31.086 -0.1134 -0.3938  0.1840
26238W        W69150   7.090  11.538  31.158 -0.0971  0.3653 -0.2738
26239W        W69151   4.614   9.872  28.638 -0.1938  0.0879  0.2515
26240W        W69152   8.071  12.329   0.695 -0.1810  0.0834  0.1591
26241W        W69153   2.601  13.478  28.375  0.0648 -0.4204  0.2621
26242W        W69154   7.966  10.443  29.177  0.0467  0.2548  0.0283
26243W        W69155   4.434  12.999  30.362 -0.2835  0.0096 -0.0814
26244W        W69156   3.253  14.339  30.888 -0.0975 -0.0380 -0.1287
26245W        W69157   3.314  13.941  29.840  0.0450 -0.1838 -0.0247
26246W        W69158   6.199   8.997  29.385 -0.0091 -0.0329 -0.4500
26247W        W69159   6.552  11.539  28.826 -0.0480  0.0398 -0.3142
26248W        W69160   6.211  11.777  29.066 -0.0311 -0.1564 -0.0335
26249W        W69161   5.671  13.559  31.354  0.3495  0.0286  0.2696
26250W        W69162   5.469  13.544   0.151 -0.0483 -0.1795  0.2228
26251W        W69163   3.666  11.867  30.746  0.0295  0.0074  0.4409
26252W        W69164   6.258  13.384  30.764  0.2378  0.0177 -0.2359
26253W        W69165   6.704  13.235  28.398 -0.1661  0.1296  0.0022
26254W        W69166   4.707  13.862  29.351 -0.2123  0.0563  0.1327
26255W        W69167   3.806  11.687  31.364 -0.1241  0.0109  0.0845
26256W        W69168   5.899  12.904  31.439  0.1634  0.4352 -0.0149
26257W        W69169   5.356  12.562  29.331 -0.0893 -0.0845  0.0771
26258W        W69170   4.875  11.454  29.271 -0.0604 -0.2352  0.1224
26259W        W69171   6.003  14.303  27.543 -0.2182 -0.1986  0.1872
26260W        W69172   4.022  14.641   0.375  0.0540 -0.3861 -0.1834
26261W        W69173   2.891  14.460  30.494 -0.0051  0.2501 -0.1480
26262W        W69174   4.874  14.539  27.637  0.0086  0.3599  0.0846
26263W        W69175   5.835  12.664  29.131 -0.3533 -0.0573  0.1943
26264W        W69176   4.772  14.407  28.393 -0.3903  0.0468  0.2591
26265W        W69177   6.092  14.079  28.564 -0.1851  0.4253  0.0392
26266W        W69178   6.227  12.475  28.186  0.2126 -0.0692 -0.2172
26267W        W69179   3.242  13.609  30.662  0.0617  0.4563 -0.1342
26268W        W69180   2.678  14.634  28.049  0.1626  0.2146  0.0285
26269W        W69181   6.390  12.343  29.186 -0.1878  0.1560  0.0791
26270W        W69182   3.344  13.981  28.434  0.0462  0.1759  0.0540
26271W        W69183   6.680  13.639  30.629 -0.3886 -0.0929 -0.1366
26272W        W69184   7.062  10.023  26.543  0.2431 -0.0675 -0.0035
26273W        W69185   6.304  10.398  29.693 -0.3071 -0.0472 -0.1305
26274W        W69186   7.672   9.005  28.162 -0.2831  0.0040  0.1456
26275W        W69187   4.016  12.274   0.074 -0.1663  0.0232 -0.0457
26276W        W69188   4.264  12.739  29.527 -0.1525 -0.1565 -0.2410
26277W        W69189   5.268  10.641  27.099 -0.0833  0.1753  0.2480
26278W        W69190   4.370  12.754  31.476 -0.1007  0.4542  0.2637
26279W        W69191   6.879   9.574  29.229  0.1106  0.0521 -0.0736
26280W        W69192   3.547  12.847  31.920 -0.0638 -0.0483  0.2395
26281W        W69193   5.593  13.901  28.641 -0.2321  0.0999 -0.0301
26282W        W69194   4.865  11.229  28.355 -0.3124 -0.0155 -0.1066
26283W        W69195   4.987  13.488  29.958 -0.1335  0.0972  0.0308
26284W        W69196   7.806  11.321  30.477 -0.2096 -0.0685 -0.1196
26285W        W69197   4.133  13.721  27.375 -0.2745  0.0227 -0.0665
26286W        W69198   6.348  10.805  28.727 -0.0089  0.0290 -0.0288
26287W        W69199   5.431  15.343  28.575 -0.1575 -0.1800  0.0014
26288W        W69200   4.277  13.927  30.263  0.0242 -0.2529 -0.0048
26289W        W69201   5.099  14.615  31.176 -0.1860  0.0365 -0.1865
26290W        W69202   4.357  11.093  28.299  0.1939 -0.1531  0.0601
26291W        W69203   9.361  12.014  29.293  0.0932  0.4320  0.0064
26292W        W69204   3.029  11.960  31.546  0.2504 -0.0447 -0.1462
26293W        W69205   5.516  11.276  30.441  0.1234 -0.1904 -0.0788
26294W        W69206   4.004  13.409  29.959  0.1646  0.2739 -0.3075
26295W        W69207   6.358  11.421  29.346  0.0632 -0.1421 -0.0698
26296W        W69208   5.272  13.599  30.415 -0.2469 -0.0021  0.0335
26297W        W69209   3.617  11.234  31.391 -0.1002  0.3237 -0.0825
26298W        W69210   4.844  12.875  28.482  0.2763  0.2761  0.1799
26299W        W69211   7.246  12.378  29.825  0.0990 -0.0367 -0.3075
26300W        W69212   6.481  12.375  28.636 -0.4134 -0.0183 -0.1616
26301W        W69213   5.504  14.437  30.982  0.1469  0.1162  0.1650
26302W        W69214   4.841  10.850  29.343  0.2459  0.0736 -0.2587
26303W        W69215   5.825  12.086  28.406 -0.2997 -0.2082 -0.2034
26304W        W69216   3.901  13.336  29.242 -0.2808  0.2467  0.0696
26305W        W69217   5.887  12.150  30.773  0.1481  0.2235 -0.0387
26306W        W69218   5.803  15.609  31.198 -0.1276  0.0032  0.1616
26307W        W69219   4.675  10.756  29.924 -0.2819 -0.0497 -0.3492
26308W        W69220   5.930  13.050  28.800  0.0802  0.2002  0.0192
26309W        W69221   7.972  11.971  29.343 -0.0278  0.1466 -0.0112
26310W        W69222   4.146  15.295  27.593 -0.1518  0.2104  0.0981
26311W        W69223   7.647  12.911  28.467 -0.0092 -0.0169 -0.0855
26312W        W69224   6.672  13.058  30.158 -0.0796  0.0647  0.0512
26313W        W69225   4.035  11.096  30.595  0.3181  0.0795 -0.3710
26314W        W69226   6.866  13.599  30.173  0.3777  0.2441 -0.2948
26315W        W69227   6.169  12.957  29.362  0.1150 -0.1756 -0.0529
26316W        W69228   5.801  10.733  28.895  0.0841 -0.0436  0.0144
26317W        W69229   4.176  12.981  29.040 -0.0900  0.0353  0.0465
26318W        W69230   3.361  14.270  28.923  0.0044  0.0601  0.0157
26319W        W69231   6.441  11.781  30.011  0.0802  0.1448  0.2422
26320W        W69232   6.231  12.044  31.125 -0.0310 -0.1794  0.0171
26321W        W69233   4.731  14.068  28.006 -0.1148 -0.0467 -0.2126
26322W        W69234   5.830   9.706  30.760  0.1714  0.1987  0.4636
26323W        W69235   5.683  13.953  31.876  0.1654 -0.0830 -0.2542
26324W        W69236   4.466  13.833  31.624 -0.0835  0.1424  0.1716
26325W        W69237   4.584  12.557  29.127  0.0343 -0.1711  0.1082
26326W        W69238   5.117  14.273  29.948 -0.1757 -0.0823  0.1022
26327W        W69239   6.535  12.306  30.607  0.0816 -0.2455  0.2490
26328W        W69240   4.429  15.517  29.445 -0.0731 -0.1157  0.0216
26329W        W69241   6.980  12.834  28.790  0.0276  0.1878 -0.3454
26330W        W69242   5.730  11.608  29.218  0.2359  0.0882  0.0566
26331W        W69243   6.740  12.797  29.268  0.4677 -0.2344  0.0986
26332W        W69244   4.874  12.202  30.056 -0.1586 -0.0863 -0.3354
26333W        W69245   5.789  10.270  29.157  0.1519 -0.2016 -0.2185
26334W        W69246   6.852  10.159  28.296 -0.0551  0.1294  0.3512
26335W        W69247   4.538  11.870  31.634 -0.0317  0.2156  0.2628
26336W        W69248   3.577  11.523  27.560 -0.2051 -0.0610 -0.3325
26337W        W69249   5.661  12.757  26.984 -0.4779  0.0665  0.0864
26338W        W69250   3.182  12.900  30.300  0.0208  0.0073  0.1547
26339W        W69251   5.365  10.265  30.072 -0.0003 -0.0900  0.0004
26340W        W69252   3.571  12.150  31.709  0.1709  0.0094  0.3049
26341W        W69253   4.624  13.091  29.575 -0.0848 -0.1695 -0.1581
26342W        W69254   4.056  11.751  28.702 -0.1591 -0.1493 -0.2340
26343W        W69255   5.708  12.850  29.596  0.1457 -0.0844 -0.0869
26344W        W69256   4.131  11.223  31.170  0.1931 -0.0358  0.2766
26345W        W69257   3.711  11.389  30.883 -0.0284 -0.0418  0.0456
26346W        W69258   6.640  12.733  28.339 -0.3929  0.1443 -0.0632
26347W        W69259   7.455  13.104  28.874  0.0600 -0.1095  0.2542
26348W        W69260   6.586  11.115  29.017  0.0845 -0.1731  0.2013
26349W        W69261   5.925  14.711  30.891 -0.2316 -0.2956  0.1069
26350W        W69262   2.359  13.432  27.351 -0.2159 -0.2967  0.1403
26351W        W69263   6.074  10.962  31.159  0.1734  0.1277  0.1033
26352W        W69264   4.629  11.106  31.018 -0.0968  0.2067  0.2264
26353W        W69265   3.428  10.723  29.274  0.1472 -0.0219 -0.2645
26354W        W69266   5.481  12.362  28.653 -0.0560 -0.0872 -0.2247
26355W        W69267   3.295  14.803  28.671  0.1032  0.1617  0.0455
26356W        W69268   5.548  14.175  27.296 -0.1938 -0.0006 -0.3659
26357W        W69269   4.801  12.358  29.526 -0.2505  0.0373 -0.2030
26358W        W69270   4.157  13.906  30.821 -0.0321  0.1238 -0.0579
26359W        W69271   3.667  10.861  31.060 -0.0164  0.2022 -0.0588
26360W        W69272   7.114  11.966  28.180 -0.0049 -0.1145  0.2433
26361W        W69273   4.155  12.279  30.116 -0.0779 -0.1932  0.1060
26362W        W69274   6.723  13.676  27.906 -0.2493  0.0182  0.0608
26363W        W69275   6.629  10.736  30.036 -0.0564  0.0859  0.0527
26364W        W69276   5.289  12.353  28.167 -0.1740  0.2940  0.1042
26365W        W69277   4.384  11.519  29.085  0.0313 -0.3024  0.0514
26366W        W69278   4.044  11.887  31.723  0.0283 -0.1091  0.2222
26367W        W69279   6.503  11.191  28.442  0.0267  0.2382  0.2248
26368W        W69280   4.474   9.414  30.237  0.2501 -0.0860 -0.2721
26369W        W69281   5.939  10.107  28.556  0.2854  0.1053  0.0418
26370W        W69282   5.401  14.709  27.364 -0.0965 -0.2307  0.1514
26371W        W69283   4.962  13.220  31.033 -0.1598  0.2534 -0.3927
26372W        W69284   3.972  12.572  28.205  0.1618 -0.5657 -0.0173
26373W        W69285   3.818  12.712  30.624  0.0137  0.0449  0.3659
26374W        W69286   6.086  14.308  30.038  0.3935  0.3575  0.4365
26375W        W69287   7.268  13.049  29.360 -0.0154  0.2055 -0.0640
26376W        W69288   4.470  13.423  29.143  0.4409 -0.0115 -0.4306
26377W        W69289   6.791  11.188  25.995  0.0454 -0.0671  0.1938
26378W        W69290   5.855  15.856  30.685  0.1646  0.0020 -0.3348
26379W        W69291   8.221  14.066  31.571  0.2439 -0.1259  0.0956
26380W        W69292   6.322  13.463  30.135  0.3742  0.0575  0.2057
26381W        W69293   5.802  11.639  28.680  0.2034 -0.0562 -0.0954
26382W        W69294   3.755   9.058  31.003 -0.1164 -0.0006 -0.2339
26383W        W69295   4.319  13.551  28.161 -0.2224 -0.0467 -0.1382
26384W        W69296   4.409  12.540  28.663  0.0755 -0.0593  0.0972
26385W        W69297   6.214  12.204  29.911  0.2436  0.1749 -0.0454
26386W        W69298   4.274  12.244  29.563 -0.0938 -0.0890  0.0784
26387W        W69299   5.183  11.555  28.093 -0.2988 -0.0853  0.0511
26388W        W69300   4.032  14.344  30.128 -0.1241 -0.3040 -0.0835
26389W        W69301   5.760  12.297  29.872  0.0666 -0.1951  0.0562
26390W        W69302   5.609  11.849  30.055  0.2495 -0.2323  0.4014
26391W        W69303   6.862  12.732  31.771 -0.0734 -0.0648 -0.0628
26392W        W69304   4.281  10.963   0.625  0.3722 -0.2452 -0.1295
26393W        W69305   3.813  12.206   0.568 -0.0225  0.0143 -0.1048
26394W        W69306   5.032  11.902  31.801 -0.2404  0.1183 -0.0817
26395W        W69307   4.124  14.226   1.674  0.2048  0.0287  0.1197
26396W        W69308   5.941  13.388  31.711  0.0988  0.2168 -0.1350
26397W        W69309   5.541  11.777  30.570 -0.1398 -0.1648  0.3983
26398W        W69310   6.806  11.468  30.671  0.0184  0.0224 -0.1709
26399W        W69311   9.444  13.382  31.255 -0.1499  0.3201  0.1648
26400W        W69312   7.154  13.507  30.638  0.2109 -0.1003  0.2180
26401W        W69313   4.225  10.410  30.690 -0.3325 -0.2713 -0.0123
26402W        W69314   6.034  13.971  31.465  0.2687  0.0913 -0.0525
26403W        W69315   4.268  13.588   0.182  0.1504  0.1523  0.1875
26404W        W69316   7.202  12.247  31.096 -0.1035  0.1012  0.2056
26405W        W69317   4.500  15.217  31.694 -0.0578  0.2614  0.0242
26406W        W69318   3.311  13.530   0.884 -0.3382 -0.2141 -0.0048
26407W        W69319   6.274  15.077  30.721  0.0789 -0.1920 -0.1604
26408W        W69320   3.898  11.139   1.234 -0.1975 -0.0341  0.0670
26409W        W69321   4.178  12.412  30.577  0.4890 -0.3437 -0.2710
26410W        W69322   5.273   9.172  31.876 -0.2265 -0.2366  0.0128
26411W        W69323   4.558  13.984   1.034  0.3139 -0.0376  0.1008
26412W        W69324   9.230  11.935  31.156  0.0646  0.1235  0.0351
26413W        W69325   5.483  12.613  31.051  0.2081  0.0951 -0.2357
26414W        W69326   6.804  11.889  31.419  0.1489  0.0560  0.0525
26415W        W69327   4.510  11.387  30.608 -0.0626  0.1017 -0.0890
26416W        W69328   4.876  13.190  30.484  0.3000 -0.0827  0.1361
26417W        W69329   3.650  14.835  31.830  0.1905  0.2413  0.0083
26418W        W69330   4.534  10.325  31.127 -0.0071  0.0577 -0.2196
26419W        W69331   4.767  12.966  31.731 -0.1202  0.3411 -0.0788
26420W        W69332   5.254  13.416   0.578  0.1265  0.1786 -0.0133
26421W        W69333   4.665  11.566   1.464 -0.0015 -0.0924 -0.4554
26422W        W69334   5.881  13.028  30.939 -0.1805  0.2235  0.4191
26423W        W69335   6.192  11.260  30.623  0.2399 -0.2372 -0.3476
26424W        W69336   4.286  12.164   1.030  0.0249 -0.2074  0.2065
26425W        W69337   5.353  12.090  30.895  0.0754  0.1459 -0.0431
26426W        W69338   4.920  12.046  31.279 -0.0337  0.1407 -0.0203
26427W        W69339   6.330  12.409   0.106  0.0723 -0.2562  0.3719
26428W        W69340   5.971  11.687   0.170  0.0702 -0.2238 -0.0263
26429W        W69341   4.979  11.837  30.479 -0.2009  0.2282  0.0238
26430W        W69342   9.252  12.219  30.695  0.0397  0.0341 -0.2910
26431W        W69343   6.185  11.601   0.612  0.0853 -0.2445 -0.0856
26432W        W69344   4.567  10.510   0.449  0.0335  0.2232  0.2662
26433W        W69345   4.446  13.112   0.111  0.1866 -0.0474  0.1688
26434W        W69346   5.420  11.354  31.721  0.0432 -0.0422  0.0743
26435W        W69347   5.993  11.912  30.322 -0.0645 -0.1487  0.1513
26436W        W69348   5.618   9.782   0.484 -0.0337  0.0345  0.1559
26437W        W69349   6.324  11.455  31.193  0.1370 -0.0542 -0.1420
26438W        W69350   5.619  13.730   0.706 -0.1513 -0.3169 -0.0362
26439W        W69351   4.608  12.890  30.825 -0.1713 -0.0604 -0.1224
26440W        W69352   7.535  13.213  30.732 -0.3244  0.2363  0.0960
26441W        W69353   4.557  11.125  31.635 -0.1423  0.0719 -0.0357
26442W        W69354   5.475  10.449  31.481  0.1007 -0.0318 -0.0112
26443W        W69355   5.164  12.887  31.532  0.3020 -0.0076 -0.1809
26444W        W69356   4.924  11.361  31.944 -0.0362 -0.3356  0.0190
26445W        W69357   7.297  12.802  31.409  0.3483  0.3276  0.1095
26446W        W69358   6.447  13.646   0.457 -0.3389 -0.2675 -0.2834
26447W        W69359   6.143  14.701  31.485  0.0956 -0.0190 -0.1283
26448W        W69360   4.754  13.460  31.681  0.3354 -0.1355  0.2938
26449W        W69361   5.093  12.664   0.235 -0.0077 -0.1313  0.1581
26450W        W69362   4.861  12.066   0.331  0.1333  0.0670 -0.1774
26451W        W69363   3.221  13.062  31.579 -0.1951 -0.1238  0.4341
26452W        W69364   3.727  11.823   0.201 -0.1059  0.0117  0.0858
26453W        W69365   4.305  10.634  31.497  0.2356  0.1430  0.1643
26454W        W69366   5.917  15.267   0.085 -0.0280  0.2334 -0.1116
26455W        W69367   6.652  14.792   0.075  0.2213 -0.1022  0.2629
26456W        W69368   7.410  12.894  30.423  0.3788 -0.1085  0.0979
26457W        W69369   4.725  16.238  18.142  0.1702  0.1828 -0.0608
26458W        W69370   3.144  14.771  16.538  0.2606  0.2903 -0.2640
26459W        W69371   6.427  15.390  16.280  0.0648 -0.0328  0.0696
26460W        W69372   7.200  17.249  17.077  0.0345  0.2739 -0.0318
26461W        W69373   3.291  15.450  18.313  0.4139  0.1663  0.2565
26462W        W69374   6.573  17.160  17.239 -0.1891 -0.1809  0.1745
26463W        W69375   5.075  15.011  18.875  0.1318 -0.2901  0.4232
26464W        W69376   6.797  16.149  16.981 -0.0991 -0.1205  0.0124
26465W        W69377   5.135  16.647  19.677 -0.3627  0.2353 -0.2614
26466W        W69378   5.439  16.502  16.398 -0.3415 -0.0448 -0.3063
26467W        W69379   3.830  14.328  18.772  0.3052  0.0771  0.0996
26468W        W69380   5.520  16.408  19.384  0.1807 -0.0741  0.1085
26469W        W69381   4.854  14.414  16.215  0.0504 -0.0991  0.0236
26470W        W69382   3.167  14.990  18.469  0.0262  0.0068 -0.1681
26471W        W69383   7.279  16.936  18.884 -0.1402 -0.0908  0.1870
26472W        W69384   3.335  15.866  17.122 -0.0027  0.1762  0.1367
26473W        W69385   5.972  15.994  17.231 -0.0727  0.4820  0.4145
26474W        W69386   4.195  14.925  17.082 -0.1506 -0.0520 -0.2491
26475W        W69387   5.219  18.283  17.496  0.2995 -0.2221 -0.0687
26476W        W69388   3.670  15.007  19.366  0.2043  0.1237 -0.2774
26477W        W69389   3.940  14.352  17.291 -0.0577 -0.0278  0.5029
26478W        W69390   5.680  15.845  17.682  0.0461  0.0163 -0.1855
26479W        W69391   2.868  15.764  16.953 -0.1652 -0.1782  0.2203
26480W        W69392   2.178  16.026  18.711 -0.2668  0.1659  0.1870
26481W        W69393   4.331  15.928  17.944  0.1018 -0.1031 -0.1497
26482W        W69394   6.642  16.975  19.032 -0.2573  0.0666 -0.0393
26483W        W69395   6.822  18.665  18.290  0.1292 -0.0871 -0.2519
26484W        W69396   5.329  16.685  18.447  0.2902  0.1164  0.1634
26485W        W69397   6.783  17.584  17.052  0.0733 -0.0410  0.0712
26486W        W69398   5.109  15.889  20.160  0.1525 -0.1350  0.2902
26487W        W69399   4.691  16.085  16.689 -0.0565 -0.0170 -0.0137
26488W        W69400   3.580  17.850  18.444 -0.0243 -0.1385 -0.1901
26489W        W69401   4.198  17.270  17.406  0.0398 -0.0499 -0.4317
26490W        W69402   7.349  18.327  16.351  0.0497  0.2224 -0.1813
26491W        W69403   6.386  17.999  19.904  0.0384  0.0117  0.0278
26492W        W69404   5.038  17.459  19.094 -0.0361  0.2328 -0.1455
26493W        W69405   4.383  16.998  16.923  0.2600 -0.1299  0.3530
26494W        W69406   5.646  18.388  17.805  0.0411  0.1782 -0.1421
26495W        W69407   4.638  16.675  17.856  0.1878  0.0294  0.0182
26496W        W69408   4.039  16.508  17.991 -0.2181 -0.1025  0.1181
26497W        W69409   5.803  15.173  16.955  0.0834 -0.0198 -0.3415
26498W        W69410   4.441  17.807  16.688  0.0511 -0.3062  0.0946
26499W        W69411   4.489  16.331  17.520  0.0052  0.0103 -0.0549
26500W        W69412   3.792  15.347  20.334 -0.2492  0.0120 -0.0955
26501W        W69413   3.722  15.594  18.039  0.2146  0.1461  0.0518
26502W        W69414   7.406  16.298  19.707  0.1810 -0.2750  0.1870
26503W        W69415   4.030  17.714  17.235 -0.1845  0.2304 -0.1277
26504W        W69416   6.148  18.064  17.336  0.0718 -0.0168 -0.0569
26505W        W69417   5.019  15.406  15.887 -0.2269  0.0414  0.1458
26506W        W69418   6.777  16.264  17.633 -0.0873  0.1168  0.1314
26507W        W69419   4.093  13.792  16.516  0.3011  0.3097  0.5713
26508W        W69420   5.038  18.833  18.331 -0.2986 -0.0679  0.1180
26509W        W69421   4.086  14.799  18.799 -0.4131 -0.1105  0.0838
26510W        W69422   6.742  16.695  18.584  0.4732 -0.1358 -0.0275
26511W        W69423   6.403  16.292  17.320 -0.2955  0.1892 -0.0994
26512W        W69424   6.370  16.434  17.970 -0.0564  0.1576  0.1974
26513W        W69425   5.046  17.933  18.924 -0.2368  0.0389 -0.0743
26514W        W69426   4.058  15.691  18.385  0.3493  0.1588 -0.0977
26515W        W69427   6.378  17.968  16.333 -0.2493 -0.0253 -0.0507
26516W        W69428   5.994  18.755  18.023  0.2183  0.3455 -0.0165
26517W        W69429   5.210  18.390  18.034  0.0096 -0.3182  0.0504
26518W        W69430   3.922  16.383  16.544  0.0909  0.1020  0.1079
26519W        W69431   4.299  14.205  20.153 -0.0014 -0.2592 -0.0805
26520W        W69432   4.435  15.345  19.176 -0.1015 -0.0406 -0.1379
26521W        W69433   3.770  15.203  17.281  0.3219  0.0451 -0.2471
26522W        W69434   6.703  16.750  20.041 -0.0232  0.0354 -0.1212
26523W        W69435   4.358  16.691  18.305  0.2086 -0.2639  0.1551
26524W        W69436   7.939  14.572  17.122  0.1343 -0.2022  0.0594
26525W        W69437   3.034  17.743  17.289 -0.0513  0.0938  0.2345
26526W        W69438   6.862  17.010  16.792  0.1993 -0.3848  0.1605
26527W        W69439   6.403  15.749  17.150  0.0503 -0.1170 -0.0522
26528W        W69440   5.581  14.709  17.781  0.0900  0.3056  0.1209
26529W        W69441   7.023  14.368  17.265 -0.0709 -0.0027  0.2253
26530W        W69442   3.016  15.101  17.479  0.0446 -0.1740 -0.3387
26531W        W69443   4.759  15.861  15.880 -0.0839  0.3205 -0.2441
26532W        W69444   7.165  16.339  18.585 -0.0247  0.4614 -0.1571
26533W        W69445   7.465  16.873  16.775 -0.2861  0.0305  0.1056
26534W        W69446   4.897  16.217  18.747 -0.2240  0.0299  0.1206
26535W        W69447   4.837  14.480  18.716 -0.0553  0.1441  0.2310
26536W        W69448   5.758  17.245  19.050 -0.1364  0.2230  0.0589
26537W        W69449   3.947  17.404  16.168  0.0905  0.0532  0.1150
26538W        W69450   3.881  16.635  18.904 -0.1599  0.2518  0.0546
26539W        W69451   3.756  17.142  17.330 -0.2002  0.1758  0.1174
26540W        W69452   3.164  15.130  19.552  0.0039  0.4640  0.2315
26541W        W69453   5.216  16.212  18.309 -0.3106 -0.3398 -0.1216
26542W        W69454   7.043  16.564  16.895  0.2071  0.1767 -0.0227
26543W        W69455   4.803  13.766  19.407  0.0742  0.1472 -0.0541
26544W        W69456   7.225  16.140  17.797  0.4128 -0.3757  0.2922
26545W        W69457   4.139  17.357  16.774  0.1949  0.1130 -0.2660
26546W        W69458   6.225  17.860  18.443 -0.0777  0.2133 -0.1242
26547W        W69459   6.541  15.444  17.524  0.3694 -0.1748 -0.1859
26548W        W69460   6.470  16.512  16.108 -0.0820  0.0613  0.0629
26549W        W69461   3.122  15.484  18.788 -0.1113  0.1324 -0.1686
26550W        W69462   2.310  15.458  17.270 -0.1859 -0.2098 -0.0971
26551W        W69463   4.316  14.339  18.872 -0.1109  0.0422 -0.0151
26552W        W69464   4.140  15.257  18.700 -0.1049  0.0517 -0.1041
26553W        W69465   5.890  16.753  19.380 -0.1397 -0.1216 -0.0907
26554W        W69466   2.298  14.844  16.716 -0.4003  0.0423 -0.0527
26555W        W69467   5.527  16.344  17.728 -0.1375 -0.1393 -0.0249
26556W        W69468   5.766  15.692  16.892  0.2606 -0.0474 -0.3055
26557W        W69469   3.193  14.328  16.790  0.1328  0.3437  0.1053
26558W        W69470   5.784  14.863  20.464 -0.0332 -0.0766  0.0614
26559W        W69471   5.922  17.733  16.456  0.2994  0.0935  0.0803
26560W        W69472   6.976  17.414  17.478 -0.1394 -0.4887 -0.0426
26561W        W69473   5.868  16.940  16.933  0.0467 -0.0507  0.3218
26562W        W69474   5.002  14.578  19.677 -0.0852 -0.0372  0.1999
26563W        W69475   2.994  17.117  15.995 -0.1681 -0.1124  0.0898
26564W        W69476   5.081  17.412  17.292  0.0608 -0.1327 -0.1156
26565W        W69477   5.361  17.316  17.699 -0.0393 -0.2846 -0.0658
26566W        W69478   4.046  16.092  17.582 -0.2565 -0.2534  0.2012
26567W        W69479   6.581  18.193  18.261 -0.3967  0.0253 -0.0068
26568W        W69480   6.098  16.881  17.312  0.0348  0.1557  0.1048
26569W        W69481   4.322  15.994  19.496  0.1839 -0.0873 -0.0502
26570W        W69482   6.160  15.031  19.034 -0.0287  0.0008 -0.2808
26571W        W69483   6.458  16.701  19.521 -0.0814  0.0873  0.0720
26572W        W69484   7.021  15.272  18.698  0.0183  0.0085  0.2324
26573W        W69485   4.436  15.354  17.036 -0.0646  0.0642  0.1383
26574W        W69486   6.333  18.815  18.454 -0.4126 -0.2058 -0.1370
26575W        W69487   3.249  17.628  16.772  0.1004  0.0459 -0.1241
26576W        W69488   3.995  16.608  17.432  0.1640 -0.1042 -0.3056
26577W        W69489   5.597  18.296  17.124 -0.0576 -0.2195  0.0519
26578W        W69490   6.190  15.520  18.475  0.0012  0.2426 -0.3503
26579W        W69491   3.489  17.195  19.452 -0.3512 -0.2399 -0.3576
26580W        W69492   5.764  15.302  19.468  0.3731  0.2599 -0.1076
26581W        W69493   3.111  15.166  16.163 -0.1434 -0.1019  0.0310
26582W        W69494   5.880  16.228  19.018  0.0215  0.1333 -0.5843
26583W        W69495   4.852  15.267  17.409  0.1259 -0.0821  0.1239
26584W        W69496   5.635  14.788  16.664  0.0876  0.1963  0.1867
26585W        W69497   6.379  15.922  21.254  0.3072 -0.1484  0.1900
26586W        W69498   7.599  17.484  16.048 -0.5944 -0.0257  0.0858
26587W        W69499   5.688  16.213  16.774  0.1355 -0.0384 -0.0248
26588W        W69500   5.521  15.082  15.904 -0.3583 -0.0769 -0.1965
26589W        W69501   3.618  18.286  18.820  0.0862 -0.2001  0.0103
26590W        W69502   5.139  16.620  17.986 -0.2134 -0.1443  0.5040
26591W        W69503   5.792  15.770  18.745 -0.1429 -0.0304  0.0773
26592W        W69504   4.909  14.755  16.586  0.0138  0.1214  0.0074
26593W        W69505   6.421  17.289  17.772  0.3470  0.0365  0.0895
26594W        W69506   3.809  16.058  17.981  0.0395 -0.1428  0.2617
26595W        W69507   5.199  15.153  19.747 -0.0228 -0.0836  0.2974
26596W        W69508   5.602  18.806  16.964  0.2987 -0.2095  0.1475
26597W        W69509   4.720  15.230  17.878  0.0492 -0.1568  0.1414
26598W        W69510   4.875  16.099  17.285 -0.2696  0.1736 -0.1366
26599W        W69511   5.127  15.227  16.313 -0.1197 -0.2266  0.1085
26600W        W69512   2.787  19.328  17.686  0.1540 -0.1965  0.3916
26601W        W69513   7.517  14.971  17.919 -0.2596 -0.0081 -0.0767
26602W        W69514   6.141  16.064  18.599  0.2533 -0.0936  0.2097
26603W        W69515   5.264  14.535  18.527  0.4760 -0.1990 -0.1926
26604W        W69516   6.275  14.573  20.306  0.0634 -0.0736  0.0803
26605W        W69517   6.561  16.803  17.661  0.4095 -0.2758  0.1558
26606W        W69518   6.090  16.863  17.832  0.2437  0.0533 -0.1138
26607W        W69519   3.297  15.355  17.130  0.2241 -0.1801  0.0714
26608W        W69520   5.950  14.843  19.454  0.0643 -0.1034 -0.4342
26609W        W69521   5.173  15.968  19.228  0.0868 -0.0907  0.1343
26610W        W69522   5.271  16.888  17.357  0.0228 -0.0464 -0.1082
26611W        W69523   5.703  16.151  18.407 -0.0266 -0.1328  0.0059
26612W        W69524   5.997  16.426  17.540 -0.0433 -0.0706  0.4042
26613W        W69525   5.258  15.378  19.247 -0.0093  0.1533  0.3073
26614W        W69526   6.157  15.071  18.245 -0.0953  0.3457 -0.0141
26615W        W69527   3.941  18.065  17.783 -0.0981  0.0767 -0.2108
26616W        W69528   4.522  17.830  16.121 -0.1345  0.4942 -0.2008
26617W        W69529   5.548  14.715  17.217  0.4072 -0.0101 -0.1598
26618W        W69530   5.531  17.680  18.893 -0.1119 -0.3014 -0.1639
26619W        W69531   4.662  16.526  16.980 -0.0717 -0.0089  0.0529
26620W        W69532   6.119  16.568  19.878 -0.2187 -0.0008  0.3592
26621W        W69533   4.758  17.354  16.807  0.3393 -0.2181  0.1426
26622W        W69534   7.793  14.168  17.807  0.2349  0.0587  0.0882
26623W        W69535   4.159  17.352  19.474  0.1500 -0.4900 -0.0921
26624W        W69536   4.844  15.316  16.670 -0.3634 -0.0816 -0.0158
26625W        W69537   4.970  14.518  17.291  0.1484 -0.2062  0.3975
26626W        W69538   5.260  15.358  17.866  0.0715  0.0435 -0.3230
26627W        W69539   6.957  17.446  16.425  0.0453  0.2456 -0.2912
26628W        W69540   3.977  14.773  17.565  0.1364  0.2317  0.1848
26629W        W69541   5.156  14.909  17.575 -0.2759  0.0217 -0.3144
26630W        W69542   3.791  16.172  18.904  0.0754 -0.1872 -0.2350
26631W        W69543   6.251  16.521  18.455 -0.1934  0.1913  0.1578
26632W        W69544   7.274  16.926  18.339  0.0442 -0.3849  0.3023
26633W        W69545   6.644  17.136  19.744  0.0120 -0.4235  0.2141
26634W        W69546   4.377  15.565  19.732  0.0962 -0.0579 -0.1854
26635W        W69547   3.967  15.316  16.784 -0.1484  0.3845 -0.0128
26636W        W69548   7.517  14.564  20.118 -0.4180  0.0508  0.3208
26637W        W69549   3.679  14.776  17.000 -0.1516 -0.0404  0.2642
26638W        W69550   3.440  16.009  19.796 -0.1335  0.0349 -0.0654
26639W        W69551   5.407  18.717  17.454  0.0300 -0.1878 -0.2269
26640W        W69552   5.362  16.038  17.298 -0.2421  0.1563 -0.1988
26641W        W69553   3.740  17.784  16.807 -0.0933 -0.1124 -0.0555
26642W        W69554   3.878  13.933  19.151  0.0130  0.0780  0.0581
26643W        W69555   6.154  16.980  18.858 -0.1554 -0.2294 -0.0227
26644W        W69556   5.672  15.287  18.424  0.0620  0.3154  0.0534
26645W        W69557   2.166  15.124  17.705  0.0778 -0.2708 -0.0766
26646W        W69558   5.667  15.354  18.977  0.2492 -0.0398 -0.0107
26647W        W69559   6.926  16.591  17.962 -0.1407 -0.0998  0.2036
26648W        W69560   5.250  15.361  20.202  0.1322  0.0482 -0.1812
26649W        W69561   3.893  18.015  19.736 -0.1142 -0.1328 -0.0605
26650W        W69562   4.444  14.491  17.307 -0.0480  0.0235 -0.1323
26651W        W69563   5.791  17.753  17.595 -0.0632 -0.0935  0.1167
26652W        W69564   5.123  16.966  20.761 -0.0688 -0.4669 -0.0890
26653W        W69565   4.180  16.503  16.074  0.0913  0.0607  0.1229
26654W        W69566   4.496  15.738  18.577 -0.0968 -0.0830 -0.2345
26655W        W69567   4.569  17.373  16.336  0.0697  0.0449 -0.2799
26656W        W69568   5.543  15.230  17.473 -0.0286  0.2308 -0.0138
26657W        W69569   4.867  16.959  17.086 -0.1384 -0.1083 -0.0671
26658W        W69570   4.862  15.704  16.303  0.2003  0.1789  0.0074
26659W        W69571   4.438  16.839  17.420  0.2010 -0.1621 -0.0264
26660W        W69572   5.692  15.216  16.423 -0.1730 -0.2939 -0.1032
26661W        W69573   4.205  16.309  16.980  0.0314  0.4289  0.3933
26662W        W69574   4.320  15.144  17.527  0.2901 -0.0040  0.0013
26663W        W69575   7.343  14.062  18.055 -0.0685  0.0006 -0.1744
26664W        W69576   6.368  16.969  16.835  0.0450 -0.0027  0.0644
26665W        W69577   6.030  14.217  19.855  0.2863  0.0691 -0.1587
26666W        W69578   4.211  15.366  18.007  0.2591  0.1529 -0.0109
26667W        W69579   6.436  17.504  18.797 -0.2641  0.0975  0.0394
26668W        W69580   4.387  15.167  20.195 -0.0847 -0.1010 -0.0570
26669W        W69581   5.886  17.599  20.665  0.0058  0.2030 -0.1216
26670W        W69582   4.286  14.387  20.940 -0.0544 -0.1389  0.0301
26671W        W69583   6.247  15.490  17.967 -0.0431 -0.0575  0.1626
26672W        W69584   3.977  14.297  16.382  0.0254  0.0544  0.1491
26673W        W69585   4.675  16.124  19.198 -0.1445  0.1704 -0.0283
26674W        W69586   5.894  17.457  18.039 -0.1699 -0.4732  0.0091
26675W        W69587   5.979  15.484  17.448 -0.2541 -0.2844 -0.2758
26676W        W69588   7.205  15.764  18.654  0.1872  0.0198  0.1793
26677W        W69589   2.544  15.902  17.587  0.0564  0.1305  0.1487
26678W        W69590   5.542  17.085  18.130  0.1863 -0.2535 -0.1064
26679W        W69591   6.455  17.515  16.604  0.1525 -0.2453 -0.3739
26680W        W69592   4.840  15.743  17.963 -0.4394 -0.2743  0.0559
26681W        W69593   4.718  14.132  19.738  0.1929 -0.0153 -0.1579
26682W        W69594   6.397  15.919  18.195  0.1659 -0.2306  0.0608
26683W        W69595   6.627  15.766  18.687 -0.0625  0.1241  0.2941
26684W        W69596   6.673  14.593  19.047  0.0452 -0.1645  0.0433
26685W        W69597   5.647  15.168  19.955  0.0747 -0.1533 -0.1444
26686W        W69598   3.567  14.343  19.407  0.4921 -0.0924 -0.2088
26687W        W69599   3.058  14.542  18.698  0.0856  0.4441 -0.0314
26688W        W69600   4.881  17.039  19.822  0.1215  0.0885 -0.1364
26689W        W69601   6.789  15.012  16.411  0.0393 -0.2570  0.0579
26690W        W69602   5.907  14.343  20.609  0.1390 -0.0706  0.0897
26691W        W69603   7.214  15.570  17.667  0.1770 -0.4222  0.1831
26692W        W69604   6.106  16.480  16.985  0.0961  0.0344  0.1053
26693W        W69605   3.030  15.360  16.664 -0.1083 -0.1748  0.0738
26694W        W69606   5.959  16.031  20.169  0.1289 -0.0844 -0.0474
26695W        W69607   3.749  14.218  16.855 -0.1864 -0.0307  0.1187
26696W        W69608   5.524  14.343  19.462 -0.0621  0.0366 -0.0337
26697W        W69609   5.253  16.908  16.774  0.0623 -0.1446  0.0936
26698W        W69610   5.235  17.430  16.852 -0.3574 -0.0212  0.1011
26699W        W69611   6.814  15.791  17.843 -0.1705 -0.1782  0.2282
26700W        W69612   2.638  15.674  18.890  0.3255  0.3098 -0.0350
26701W        W69613   3.361  16.842  19.180  0.0605  0.1072  0.3520
26702W        W69614   4.114  15.247  16.233  0.4028 -0.1710  0.0473
26703W        W69615   5.706  17.009  16.301  0.0645 -0.2398  0.4386
26704W        W69616   5.547  18.447  19.022 -0.0358  0.1090  0.0974
26705W        W69617   7.696  16.654  18.734  0.3548 -0.2191 -0.1807
26706W        W69618   5.782  14.619  16.194 -0.0469  0.1434 -0.0912
26707W        W69619   6.679  15.152  19.046 -0.2011  0.0841  0.0279
26708W        W69620   3.338  17.228  17.694 -0.0296  0.0430 -0.0043
26709W        W69621   3.886  14.705  18.094 -0.0689  0.0174 -0.0353
26710W        W69622   5.105  17.087  18.728  0.0703 -0.1270  0.0458
26711W        W69623   2.882  15.384  19.230  0.0455  0.1004  0.1872
26712W        W69624   2.775  18.077  16.676  0.1936  0.0780 -0.0043
26713W        W69625   7.710  17.075  18.428 -0.1954  0.4640  0.1360
26714W        W69626   6.908  15.727  19.116  0.0090  0.0387 -0.0808
26715W        W69627   3.527  16.198  17.511 -0.2248  0.0066 -0.2559
26716W        W69628   7.055  14.786  20.080 -0.0004  0.0740 -0.2194
26717W        W69629   6.611  16.681  17.139 -0.0012 -0.3245  0.1862
26718W        W69630   5.054  16.171  17.769  0.3731  0.2693 -0.0451
26719W        W69631   4.734  18.550  19.455 -0.0878  0.0134  0.1947
26720W        W69632   5.785  16.621  18.717 -0.1726  0.0321  0.3356
26721W        W69633   4.670  16.921  16.540  0.1342  0.0773 -0.1687
26722W        W69634   5.265  16.193  19.736 -0.1293  0.0967  0.1478
26723W        W69635   5.339  15.821  18.085 -0.1296 -0.0833 -0.1120
26724W        W69636   5.735  17.974  18.148  0.0926 -0.1123  0.0512
26725W        W69637   3.419  15.465  19.199 -0.3024 -0.3304 -0.2619
26726W        W69638   5.163  16.408  16.998  0.1136 -0.1000 -0.0446
26727W        W69639   3.518  18.818  18.747  0.2973  0.0096 -0.1929
26728W        W69640   3.915  16.940  19.316  0.1944  0.0990  0.1997
26729W        W69641   3.540  19.703  16.363  0.2590 -0.3834 -0.0245
26730W        W69642   6.320  17.853  16.927 -0.0142  0.3449  0.2915
26731W        W69643   5.330  17.852  17.223  0.1524 -0.1492  0.1398
26732W        W69644   5.227  17.895  17.908 -0.0470 -0.0468 -0.0549
26733W        W69645   3.175  14.808  17.128 -0.3837  0.0018  0.0927
26734W        W69646   5.304  17.475  18.358  0.0179 -0.2623  0.3043
26735W        W69647   3.224  17.242  17.180  0.0629  0.0240  0.1706
26736W        W69648   5.475  17.516  16.248 -0.0938  0.2295 -0.3348
26737W        W69649   3.285  19.777  16.798  0.4476 -0.0001  0.1653
26738W        W69650   6.488  16.292  20.274 -0.1055 -0.0436 -0.2604
26739W        W69651   6.253  13.639  17.042 -0.1205  0.1417 -0.1754
26740W        W69652   5.605  16.826  17.718 -0.2361  0.1749  0.4191
26741W        W69653   7.426  14.525  16.948 -0.0779 -0.0807  0.1578
26742W        W69654   5.451  17.042  19.468 -0.0577 -0.0761  0.0799
26743W        W69655   5.735  16.575  18.161 -0.1981  0.3840  0.0226
26744W        W69656   6.320  15.210  17.158  0.1530 -0.1738  0.0286
26745W        W69657   4.562  14.957  18.857  0.1531 -0.0819  0.1637
26746W        W69658   6.842  15.760  19.891  0.0177 -0.1391  0.0225
26747W        W69659   3.942  18.660  19.104 -0.0503  0.2545 -0.0282
26748W        W69660   6.887  19.066  16.838  0.2506 -0.2228  0.0806
26749W        W69661   2.494  15.306  16.672 -0.0370  0.0621  0.1563
26750W        W69662   4.533  15.624  17.592 -0.1248  0.0933 -0.3292
26751W        W69663   7.959  15.328  17.845  0.1638  0.2787 -0.1705
26752W        W69664   5.242  15.993  16.707  0.1681  0.1625 -0.1798
26753W        W69665   3.826  15.904  17.133 -0.0484  0.1249 -0.1231
26754W        W69666   3.655  18.514  17.596  0.0608 -0.1218 -0.2846
26755W        W69667   5.047  17.081  18.206  0.0164 -0.3500  0.1471
26756W        W69668   4.201  17.486  18.657 -0.1392 -0.1817  0.1549
26757W        W69669   4.084  15.536  17.440 -0.1527 -0.0711 -0.1798
26758W        W69670   6.791  16.233  18.293 -0.0375  0.3297 -0.1151
26759W        W69671   5.747  14.757  18.273 -0.0194 -0.0471 -0.1481
26760W        W69672   6.757  14.823  18.215  0.0826  0.2312  0.1456
26761W        W69673   3.617  15.114  18.854 -0.1242 -0.0054 -0.0046
26762W        W69674   6.340  15.954  17.669  0.0386 -0.0426  0.2853
26763W        W69675   5.644  16.597  19.837  0.3290  0.1382  0.0561
26764W        W69676   3.927  15.699  20.029 -0.1132 -0.5101  0.3099
26765W        W69677   5.323  15.517  16.633  0.0067 -0.2678  0.0479
26766W        W69678   6.616  16.262  18.783 -0.0305 -0.2166 -0.0311
26767W        W69679   6.264  15.517  16.721 -0.0610 -0.0314  0.1500
26768W        W69680   6.913  18.865  19.512 -0.1200 -0.2248 -0.3250
26769W        W69681   5.086  14.008  17.483 -0.2264 -0.0889  0.3098
26770W        W69682   5.994  14.701  17.005 -0.2481  0.1912  0.3272
26771W        W69683   3.669  16.347  16.999 -0.0386 -0.0129  0.0851
26772W        W69684   5.669  15.782  19.226 -0.3285  0.2038  0.1061
26773W        W69685   6.647  18.399  19.797 -0.1279 -0.2865 -0.0167
26774W        W69686   2.933  14.231  17.163 -0.2387 -0.1682  0.2600
26775W        W69687   6.789  17.899  16.607 -0.3148 -0.1384 -0.2992
26776W        W69688   7.229  16.145  19.047 -0.0085  0.2874  0.3000
26777W        W69689   3.266  18.952  16.857 -0.3750  0.0027 -0.0668
26778W        W69690   6.533  16.944  18.199  0.0830 -0.2384  0.1263
26779W        W69691   5.357  19.143  17.255 -0.0979  0.0100  0.0517
26780W        W69692   4.043  14.899  20.947 -0.3569  0.0717  0.2060
26781W        W69693   6.233  18.333  17.817 -0.1923 -0.2952  0.1209
26782W        W69694   8.479  17.488  17.318 -0.0736  0.5302  0.2469
26783W        W69695   5.761  14.313  16.741  0.0890  0.3905  0.1161
26784W        W69696   3.760  15.171  18.275 -0.3622  0.5110 -0.1780
26785W        W69697   4.173  20.033  17.029 -0.0329 -0.1384 -0.1090
26786W        W69698   7.584  14.525  18.170  0.1983  0.3067  0.1892
26787W        W69699   5.295  15.690  18.773 -0.0758 -0.2932  0.1483
26788W        W69700   4.054  17.792  16.400  0.2786  0.0170  0.1608
26789W        W69701   6.401  14.469  19.557  0.2226  0.1419 -0.0667
26790W        W69702   4.994  17.025  19.358  0.1302  0.2163 -0.0568
26791W        W69703   4.571  15.320  18.410  0.0912  0.1292 -0.1008
26792W        W69704   2.992  16.070  16.466  0.0916 -0.0966  0.1842
26793W        W69705   5.079  15.706  17.555  0.0599  0.1235  0.2067
26794W        W69706   4.899  17.497  18.008  0.1444  0.1539  0.1877
26795W        W69707   7.197  18.470  18.773 -0.3278 -0.2178  0.3112
26796W        W69708   5.446  16.776  19.034  0.1747  0.1701 -0.0309
26797W        W69709   4.427  15.583  16.592  0.0524 -0.4565 -0.0103
26798W        W69710   6.619  17.398  19.319 -0.0861  0.0895 -0.1684
26799W        W69711   3.805  15.189  17.790  0.0287 -0.2266  0.3613
26800W        W69712   6.959  15.146  17.756  0.0111 -0.0102  0.1181
26801W        W69713   5.379  13.876  16.721  0.0001 -0.1731  0.1629
26802W        W69714   4.835  16.634  18.404 -0.3331 -0.2125  0.4659
26803W        W69715   3.467  16.733  16.695 -0.0971  0.0215  0.0889
26804W        W69716   4.430  16.492  16.529  0.0249 -0.0295 -0.2743
26805W        W69717   3.592  17.587  17.196 -0.0663 -0.5248  0.0731
26806W        W69718   5.531  13.110  19.207  0.1331  0.0896  0.2586
26807W        W69719   3.491  14.680  19.020 -0.2548  0.0588 -0.1577
26808W        W69720   3.820  15.864  19.346 -0.1160 -0.1806  0.0233
26809W        W69721   4.089  15.908  16.690  0.1615  0.2432  0.2690
26810W        W69722   7.093  16.130  16.467 -0.0202 -0.0540 -0.0285
26811W        W69723   4.273  14.085  17.013 -0.1036  0.0810  0.0076
26812W        W69724   4.236  14.432  17.751  0.0394 -0.4547  0.2408
26813W        W69725   4.944  16.521  16.534  0.1978 -0.0261  0.0513
26814W        W69726   7.449  18.107  16.872  0.1553 -0.2076  0.2473
26815W        W69727   4.411  14.657  16.390  0.0683  0.0124  0.0925
26816W        W69728   6.526  16.188  19.708 -0.0884  0.3047  0.1368
26817W        W69729   2.157  16.346  17.247  0.0526 -0.1324 -0.1306
26818W        W69730   4.401  15.903  20.157 -0.0508  0.0386 -0.0390
26819W        W69731   6.090  15.319  20.837  0.1048 -0.2490  0.1302
26820W        W69732   1.151  14.629  16.349  0.1867  0.3850 -0.1906
26821W        W69733   5.972  14.898  17.471 -0.1239 -0.0122 -0.2823
26822W        W69734   4.844  15.633  17.094 -0.3180 -0.3759 -0.0626
26823W        W69735   4.856  18.216  17.205  0.2320 -0.1159 -0.0510
26824W        W69736   4.899  17.546  18.662 -0.0787 -0.2569  0.1990
26825W        W69737   5.947  17.081  19.872 -0.1909  0.0770  0.3473
26826W        W69738   5.031  14.856  18.060 -0.0952  0.0905 -0.1501
26827W        W69739   6.512  17.021  16.343  0.1070 -0.1482 -0.3012
26828W        W69740   5.896  17.509  18.608 -0.0796  0.0688  0.1600
26829W        W69741   6.925  17.099  17.850  0.1937  0.4658  0.0772
26830W        W69742   8.469  14.577  19.492 -0.1703  0.2146 -0.3001
26831W        W69743   6.160  17.351  17.008  0.6517  0.1850  0.2695
26832W        W69744   4.607  14.488  19.232 -0.1304  0.2446  0.0868
26833W        W69745   4.837  15.012  19.335 -0.0128 -0.2335 -0.0011
26834W        W69746   7.380  17.959  18.545  0.1476  0.0449 -0.0742
26835W        W69747   4.111  14.529  16.761 -0.0304  0.2195 -0.2232
26836W        W69748   6.838  16.497  19.145  0.0184  0.0122 -0.1585
26837W        W69749   4.938  16.587  17.477  0.1692 -0.4208 -0.0602
26838W        W69750   3.582  15.965  18.429 -0.2073 -0.1716  0.1074
26839W        W69751   5.850  14.359  17.452 -0.0655 -0.2355  0.1903
26840W        W69752   6.111  16.263  19.466  0.0643 -0.4104  0.3170
26841W        W69753   5.966  16.191  18.007  0.1259 -0.0001 -0.0512
26842W        W69754   7.096  17.231  19.849 -0.1716  0.3665  0.0652
26843W        W69755   5.354  15.577  17.125  0.3064  0.0051  0.3434
26844W        W69756   6.743  15.448  16.893 -0.1022 -0.1124 -0.0951
26845W        W69757   4.630  17.620  19.531  0.2070  0.0763  0.0806
26846W        W69758   6.157  18.419  19.642  0.3464  0.1261 -0.2013
26847W        W69759   6.675  18.497  18.741  0.1040  0.0848 -0.1148
26848W        W69760   5.579  17.066  18.617  0.0177 -0.1175  0.0235
26849W        W69761   4.521  13.355  17.881 -0.2175 -0.0376  0.1923
26850W        W69762   3.417  16.353  18.164  0.1697 -0.1690  0.0078
26851W        W69763   5.318  15.099  16.890  0.0797 -0.6160 -0.2072
26852W        W69764   7.255  16.705  20.125 -0.1007  0.2780 -0.0768
26853W        W69765   3.586  14.430  17.781 -0.0811  0.1628 -0.0027
26854W        W69766   6.367  14.047  16.150  0.2247  0.0192  0.1411
26855W        W69767   3.116  18.009  18.707 -0.2280  0.3936 -0.0710
26856W        W69768   6.060  16.936  18.325 -0.0652  0.0031 -0.2483
26857W        W69769   4.673  16.936  24.055  0.0442 -0.1360  0.1434
26858W        W69770   5.250  14.021  21.279  0.2230  0.2876  0.0190
26859W        W69771   6.968  16.066  19.487  0.2989 -0.0348  0.3317
26860W        W69772   6.615  16.462  21.171 -0.1596  0.0874 -0.2303
26861W        W69773   4.321  15.092  21.493 -0.3140  0.3620 -0.1347
26862W        W69774   4.780  16.670  20.448 -0.1215 -0.0611 -0.0340
26863W        W69775   5.172  14.716  23.006  0.1098  0.1316  0.0945
26864W        W69776   6.032  16.916  21.377 -0.0588  0.2017 -0.2225
26865W        W69777   6.168  15.937  22.270 -0.1824 -0.2806 -0.1136
26866W        W69778   5.370  16.034  20.775  0.0625 -0.1141  0.0874
26867W        W69779   5.127  15.208  22.055 -0.2642 -0.5335  0.0271
26868W        W69780   3.453  16.685  23.688  0.0362  0.1048  0.2789
26869W        W69781   5.136  13.846  19.912  0.1972 -0.0735 -0.1285
26870W        W69782   3.032  15.249  21.935  0.0263 -0.0840 -0.1313
26871W        W69783   4.532  17.267  21.856 -0.2527  0.1149  0.0427
26872W        W69784   4.504  14.696  21.297 -0.1891  0.3285 -0.5394
26873W        W69785   4.217  15.472  23.001  0.0976  0.0657  0.2791
26874W        W69786   5.476  14.526  21.205 -0.1638 -0.1027 -0.1047
26875W        W69787   4.518  18.597  20.557  0.0979  0.4389 -0.0086
26876W        W69788   4.306  14.757  24.036  0.0611 -0.1609  0.1924
26877W        W69789   5.854  14.741  20.957 -0.0974 -0.2959 -0.1106
26878W        W69790   4.375  18.225  21.536 -0.2815 -0.0599 -0.2555
26879W        W69791   2.259  15.544  20.519 -0.3053  0.0462  0.0896
26880W        W69792   3.600  16.051  23.606  0.2214  0.0699 -0.3837
26881W        W69793   4.700  16.835  22.144 -0.1599 -0.1840 -0.0449
26882W        W69794   4.955  14.246  22.037 -0.0628 -0.3857 -0.1718
26883W        W69795   6.447  16.400  22.118  0.2194 -0.1830 -0.1547
26884W        W69796   5.276  16.908  22.574 -0.0033 -0.2004  0.2178
26885W        W69797   5.761  18.019  21.181 -0.1728  0.1135  0.4865
26886W        W69798   6.348  15.904  23.979  0.0396 -0.3348 -0.2009
26887W        W69799   3.454  15.658  20.187  0.0244  0.2989  0.0812
26888W        W69800   2.967  17.708  21.496 -0.1289  0.0448  0.2151
26889W        W69801   3.922  16.415  20.552  0.0860 -0.0026 -0.3567
26890W        W69802   5.434  17.840  20.431 -0.1209  0.0408  0.0773
26891W        W69803   7.260  17.800  21.788  0.1604 -0.1170 -0.0442
26892W        W69804   5.210  18.670  22.905  0.1000 -0.1001 -0.1977
26893W        W69805   2.933  18.020  19.991 -0.2863 -0.3552  0.0507
26894W        W69806   5.234  16.587  22.076 -0.1559 -0.0155 -0.2139
26895W        W69807   4.673  17.645  22.155 -0.2779  0.2791 -0.0461
26896W        W69808   5.254  16.020  22.600 -0.1958  0.2032  0.0223
26897W        W69809   4.835  15.481  19.907 -0.2574 -0.0682 -0.4315
26898W        W69810   5.050  16.470  19.225  0.1523  0.0269 -0.0064
26899W        W69811   5.842  16.009  21.249 -0.1874 -0.1258  0.0792
26900W        W69812   3.421  17.268  23.835  0.1215 -0.0358 -0.0725
26901W        W69813   5.735  18.187  20.653 -0.3742  0.1906  0.0222
26902W        W69814   6.027  15.346  24.437 -0.1687  0.0853  0.1558
26903W        W69815   3.757  17.838  18.944 -0.1331 -0.2063 -0.4247
26904W        W69816   6.429  14.950  19.443  0.2368 -0.0542 -0.0381
26905W        W69817   5.061  14.178  19.421  0.1321 -0.0931 -0.0104
26906W        W69818   5.725  16.029  19.727  0.0747  0.0162 -0.4750
26907W        W69819   5.509  13.641  23.126  0.2899 -0.1557  0.0164
26908W        W69820   4.406  18.128  19.619  0.1895  0.1405 -0.3519
26909W        W69821   3.464  14.367  22.031 -0.0577 -0.2173 -0.1116
26910W        W69822   6.434  17.242  21.472  0.0426 -0.3931 -0.3218
26911W        W69823   4.896  15.100  20.479 -0.0347  0.0887  0.3553
26912W        W69824   4.855  16.262  20.994 -0.0036  0.2104  0.0950
26913W        W69825   4.036  17.292  20.906 -0.0099 -0.0784  0.0451
26914W        W69826   3.746  17.103  21.246 -0.1683  0.0939 -0.0863
26915W        W69827   6.247  17.539  19.703  0.1506 -0.1342 -0.1371
26916W        W69828   7.996  17.643  20.645 -0.1062 -0.0111  0.1023
26917W        W69829   5.214  17.413  19.615  0.3266 -0.3276 -0.3187
26918W        W69830   4.596  14.219  20.601 -0.0365 -0.4571 -0.1995
26919W        W69831   3.499  16.767  22.412  0.0964 -0.4228  0.0477
26920W        W69832   3.915  16.481  23.269  0.2019 -0.0543  0.2236
26921W        W69833   4.133  13.023  19.111  0.1262  0.1843  0.2356
26922W        W69834   7.403  16.535  23.911 -0.0008 -0.4463 -0.0759
26923W        W69835   2.872  17.735  21.981 -0.0656 -0.2837  0.2090
26924W        W69836   7.440  15.853  21.173  0.2485 -0.0074 -0.0560
26925W        W69837   4.819  16.984  22.760 -0.2367  0.0214 -0.2831
26926W        W69838   6.802  16.516  21.701  0.1088  0.2407  0.0573
26927W        W69839   4.495  16.425  19.622  0.2825 -0.1414 -0.1447
26928W        W69840   5.499  14.588  22.113  0.0816  0.2514 -0.3131
26929W        W69841   5.793  14.140  22.074 -0.2022  0.2199  0.3574
26930W        W69842   4.679  15.564  20.455  0.0560  0.3250 -0.1519
26931W        W69843   3.669  16.097  20.245  0.0541 -0.2203  0.0370
26932W        W69844   7.292  18.122  23.591  0.2923 -0.1218  0.1726
26933W        W69845   6.597  15.366  20.130  0.0154 -0.2422  0.2451
26934W        W69846   5.087  17.392  21.829 -0.1600  0.1545 -0.3294
26935W        W69847   4.994  14.332  24.417 -0.0301  0.0172  0.2025
26936W        W69848   4.676  17.765  21.597  0.2099 -0.0253  0.0518
26937W        W69849   4.093  18.201  18.788 -0.0595 -0.0408  0.0215
26938W        W69850   3.005  17.058  22.266  0.1070  0.0387  0.1601
26939W        W69851   4.012  16.249  19.825 -0.0073 -0.2072 -0.0291
26940W        W69852   3.880  14.509  23.940 -0.0323  0.1756 -0.0193
26941W        W69853   4.933  16.524  22.505  0.1115 -0.1574  0.0388
26942W        W69854   6.651  15.466  19.446  0.0861 -0.0782  0.1418
26943W        W69855   3.508  15.446  23.722  0.1883  0.1286  0.0339
26944W        W69856   6.413  14.620  21.433  0.0987 -0.2676  0.0089
26945W        W69857   2.989  16.569  19.384 -0.2042 -0.1257 -0.0671
26946W        W69858   4.363  17.823  20.005 -0.0403 -0.1544  0.1930
26947W        W69859   5.391  15.609  19.705 -0.1114  0.2295 -0.0528
26948W        W69860   4.366  16.164  20.639 -0.0645 -0.2309 -0.1306
26949W        W69861   2.422  16.680  21.512 -0.1125  0.0575 -0.0123
26950W        W69862   4.756  15.648  22.364  0.1122  0.0643 -0.0254
26951W        W69863   4.661  14.283  22.409  0.2288 -0.3579  0.0435
26952W        W69864   5.123  14.315  20.900  0.1202 -0.2940  0.0896
26953W        W69865   6.254  16.397  22.576 -0.1046 -0.0532  0.2040
26954W        W69866   4.262  14.237  21.496 -0.2466  0.0816  0.0399
26955W        W69867   5.469  15.792  21.551 -0.1419  0.0891  0.0222
26956W        W69868   4.579  16.033  21.490  0.1268  0.1104  0.1706
26957W        W69869   2.848  16.199  20.620  0.1714  0.4011  0.2452
26958W        W69870   6.875  15.135  22.642  0.0139  0.3037 -0.2513
26959W        W69871   4.607  17.137  20.666  0.0655 -0.0015 -0.2471
26960W        W69872   6.921  18.023  22.830 -0.3905 -0.3262 -0.4583
26961W        W69873   6.140  17.455  22.530 -0.1518  0.3564  0.0921
26962W        W69874   4.152  16.023  23.596 -0.2771  0.0669 -0.0532
26963W        W69875   4.988  16.144  22.179 -0.3859 -0.1198  0.0358
26964W        W69876   3.735  18.193  20.705  0.2916  0.2348  0.1772
26965W        W69877   5.013  16.711  21.272 -0.0501 -0.1752 -0.2052
26966W        W69878   4.668  13.910  20.164 -0.0430 -0.0810  0.0891
26967W        W69879   7.422  17.610  22.311 -0.0544  0.1406  0.0155
26968W        W69880   4.313  16.305  21.120 -0.0807 -0.0985  0.1777
26969W        W69881   3.494  16.950  21.646 -0.1536 -0.0479 -0.4437
26970W        W69882   7.031  14.623  23.034 -0.2016 -0.1166  0.3015
26971W        W69883   7.300  16.523  22.513 -0.0450  0.2355 -0.0791
26972W        W69884   5.455  17.250  20.535  0.1733 -0.0967  0.0063
26973W        W69885   3.851  14.136  20.715  0.0394 -0.2715 -0.4566
26974W        W69886   5.883  18.887  23.457  0.0823 -0.0151 -0.2493
26975W        W69887   3.427  16.407  18.704  0.1490  0.1265  0.3762
26976W        W69888   3.600  16.179  21.063  0.0387  0.2337 -0.1830
26977W        W69889   5.935  18.788  21.399  0.0137  0.1776  0.3603
26978W        W69890   7.359  15.236  22.289 -0.1885  0.1822 -0.0094
26979W        W69891   3.943  18.264  23.960  0.2170  0.0235 -0.0522
26980W        W69892   5.929  15.002  22.290 -0.2175 -0.0696 -0.0852
26981W        W69893   4.781  14.829  20.046 -0.1855 -0.1923  0.2219
26982W        W69894   4.220  17.903  22.879  0.2607 -0.1874 -0.2201
26983W        W69895   7.221  15.226  21.296  0.0350  0.0658 -0.0929
26984W        W69896   6.152  15.696  19.477 -0.3464 -0.1024 -0.0845
26985W        W69897   5.517  17.130  23.974  0.0825  0.2287  0.1430
26986W        W69898   6.199  17.947  20.900 -0.0536  0.0330 -0.1796
26987W        W69899   6.630  15.406  18.273 -0.0724 -0.1174  0.0637
26988W        W69900   5.101  14.300  20.088  0.0746  0.2763  0.0874
26989W        W69901   3.855  17.578  22.662 -0.0283 -0.1198  0.0043
26990W        W69902   5.265  18.168  21.028  0.2213 -0.2167  0.0425
26991W        W69903   5.400  16.804  21.599 -0.1077  0.3570 -0.1973
26992W        W69904   5.145  15.361  18.336 -0.0048 -0.1281  0.0026
26993W        W69905   6.577  17.798  20.593  0.3601 -0.2590 -0.2151
26994W        W69906   4.264  16.517  22.831  0.1442  0.0249  0.0974
26995W        W69907   5.100  16.944  23.699  0.0136 -0.1429  0.0170
26996W        W69908   5.372  16.204  21.243 -0.2531 -0.0745  0.0917
26997W        W69909   4.971  13.905  23.771 -0.1305 -0.4533  0.0496
26998W        W69910   4.871  15.001  21.624  0.1631  0.3150  0.2044
26999W        W69911   5.914  14.517  21.792  0.0631 -0.2153 -0.1050
27000W        W69912   2.505  17.799  19.906 -0.2760 -0.0625 -0.1470
27001W        W69913   5.763  15.755  22.465  0.0338  0.0744 -0.0035
27002W        W69914   5.091  14.520  22.584 -0.0329  0.2537  0.0396
27003W        W69915   5.094  13.858  23.255  0.0880 -0.3421  0.0834
27004W        W69916   6.070  15.446  22.084  0.0713 -0.3707  0.1539
27005W        W69917   5.609  15.358  21.835  0.0999  0.0828 -0.0175
27006W        W69918   5.516  14.308  21.678 -0.1038  0.1219 -0.0701
27007W        W69919   4.842  15.466  18.843 -0.1042  0.1655  0.0780
27008W        W69920   5.295  16.455  22.846  0.0075  0.3110 -0.1250
27009W        W69921   5.000  17.965  21.956  0.2577 -0.0504 -0.3195
27010W        W69922   3.793  18.439  21.666 -0.3610  0.2364  0.3046
27011W        W69923   4.728  16.282  22.916 -0.1343  0.1067  0.3212
27012W        W69924   4.343  16.456  21.953  0.0245 -0.2336  0.2604
27013W        W69925   4.784  14.448  23.835  0.3753 -0.2743  0.1989
27014W        W69926   4.813  15.578  19.361  0.0947 -0.0484  0.1253
27015W        W69927   4.565  17.129  18.518  0.1336 -0.1691 -0.1778
27016W        W69928   4.525  17.291  20.005  0.1922  0.2085 -0.0896
27017W        W69929   5.962  14.266  21.328 -0.3353  0.1220 -0.1160
27018W        W69930   4.436  16.991  22.481 -0.2377 -0.0404 -0.1064
27019W        W69931   3.617  17.049  19.932 -0.1544  0.2117  0.0973
27020W        W69932   5.315  15.723  22.171 -0.1470 -0.0934  0.3551
27021W        W69933   3.867  18.200  19.298  0.1568 -0.1685 -0.1877
27022W        W69934   7.318  15.815  22.200  0.0902 -0.0308 -0.0149
27023W        W69935   4.628  18.399  21.140  0.2331  0.0579 -0.1829
27024W        W69936   4.465  13.613  20.465  0.2397 -0.2971  0.1069
27025W        W69937   3.041  15.776  19.829 -0.1224  0.1416 -0.0510
27026W        W69938   7.553  15.425  21.798  0.2370 -0.1210  0.3594
27027W        W69939   5.574  16.196  22.281  0.3344  0.4936 -0.1550
27028W        W69940   3.936  15.087  22.327  0.0336 -0.2085  0.1151
27029W        W69941   4.341  15.317  23.506 -0.0750  0.1691 -0.1405
27030W        W69942   3.753  17.398  21.750 -0.0731  0.0024  0.1721
27031W        W69943   3.547  17.409  20.918 -0.3981  0.4932 -0.0498
27032W        W69944   5.950  14.757  19.973  0.0891  0.0591  0.1694
27033W        W69945   6.250  15.966  22.819  0.0315 -0.1370 -0.1608
27034W        W69946   4.945  16.798  23.187 -0.1213 -0.0234  0.3711
27035W        W69947   4.016  13.790  20.391  0.0040 -0.3437  0.2005
27036W        W69948   6.312  16.491  23.071 -0.1141  0.0613  0.0233
27037W        W69949   2.672  16.311  22.775  0.1217 -0.0441  0.0181
27038W        W69950   3.046  17.434  20.606  0.1276  0.0387 -0.1066
27039W        W69951   5.690  16.572  22.596 -0.3618  0.1475 -0.2053
27040W        W69952   4.456  13.721  19.738 -0.0692  0.1846 -0.1076
27041W        W69953   4.172  17.466  20.376 -0.0140  0.1251 -0.1262
27042W        W69954   5.050  14.545  25.303  0.3342  0.3350  0.1025
27043W        W69955   6.514  17.035  22.740 -0.0878  0.4018  0.1230
27044W        W69956   4.306  15.004  23.071 -0.1143 -0.1100  0.1218
27045W        W69957   4.576  15.086  22.165  0.0807 -0.0561  0.0981
27046W        W69958   3.837  15.170  21.593 -0.1131  0.0002 -0.0791
27047W        W69959   5.396  17.076  22.131 -0.1557  0.2814 -0.0847
27048W        W69960   4.383  16.438  23.300  0.0824  0.1891  0.0160
27049W        W69961   3.003  17.693  23.711  0.0834 -0.1167  0.0270
27050W        W69962   5.557  12.616  23.384  0.1353  0.2828  0.0616
27051W        W69963   7.048  17.611  20.412 -0.1033 -0.0004 -0.1128
27052W        W69964   5.781  17.083  22.491 -0.2814  0.0476 -0.3418
27053W        W69965   3.191  14.799  20.947 -0.2311 -0.1671 -0.0766
27054W        W69966   3.486  16.699  23.165  0.1335 -0.1641 -0.0868
27055W        W69967   4.234  16.809  20.649  0.1770  0.2678 -0.0588
27056W        W69968   4.964  14.738  22.091  0.2147  0.1540 -0.0897
27057W        W69969   3.699  16.441  22.747 -0.0617  0.0074 -0.1066
27058W        W69970   3.661  16.937  20.710  0.1938  0.2209 -0.1365
27059W        W69971   4.654  16.772  20.993  0.1362  0.0518 -0.0512
27060W        W69972   6.674  13.827  22.196  0.0695 -0.3597  0.1333
27061W        W69973   4.608  17.243  21.337 -0.1292 -0.0923 -0.3027
27062W        W69974   3.406  15.037  22.508  0.1339 -0.1563  0.5933
27063W        W69975   6.739  15.670  22.895 -0.0405  0.0205  0.0263
27064W        W69976   6.039  16.898  20.841 -0.1435  0.0481  0.1007
27065W        W69977   5.716  14.300  22.538  0.0747  0.0803 -0.0842
27066W        W69978   4.121  14.276  22.253  0.0144  0.5050  0.1169
27067W        W69979   6.008  17.533  21.253 -0.2842  0.0236  0.1117
27068W        W69980   3.686  16.596  21.965 -0.0085 -0.1151  0.3079
27069W        W69981   5.236  17.718  23.058 -0.1123  0.3094  0.3054
27070W        W69982   2.400  16.608  24.418 -0.1467  0.3009  0.1503
27071W        W69983   6.107  14.594  22.725 -0.2251 -0.2205  0.1521
27072W        W69984   3.645  13.148  21.210 -0.1715 -0.0068 -0.0028
27073W        W69985   5.057  15.856  23.103 -0.4031 -0.0649 -0.0227
27074W        W69986   7.529  17.000  22.464 -0.2323  0.2604  0.0431
27075W        W69987   4.386  15.205  20.746 -0.2970 -0.1344  0.2937
27076W        W69988   5.764  15.871  21.946  0.0886 -0.0526  0.1840
27077W        W69989   2.943  15.483  23.047 -0.1856 -0.1504  0.1131
27078W        W69990   6.338  16.934  21.843 -0.0655 -0.0865  0.1191
27079W        W69991   5.473  14.754  19.696 -0.1460  0.0201 -0.1640
27080W        W69992   3.606  15.222  20.788  0.4575  0.0089  0.0933
27081W        W69993   3.974  15.079  23.865 -0.3373  0.0315 -0.1961
27082W        W69994   5.251  18.320  20.137 -0.4264 -0.0297 -0.1536
27083W        W69995   6.810  14.269  22.233  0.0590 -0.0503  0.0049
27084W        W69996   4.094  16.004  22.988  0.0524 -0.0787 -0.2198
27085W        W69997   5.465  16.979  23.009  0.1493 -0.1438 -0.0101
27086W        W69998   4.647  17.123  23.454 -0.0965  0.2673  0.0474
27087W        W69999   3.812  14.915  24.326  0.0839  0.3048 -0.2533
27088W        W70000   6.311  18.468  22.333  0.0262  0.2354 -0.1416
27089W        W70001   6.315  16.014  20.694 -0.1540  0.1773 -0.0885
27090W        W70002   6.831  15.547  22.346  0.1525  0.0520  0.1314
27091W        W70003   5.352  16.178  21.818  0.2792  0.1968 -0.0429
27092W        W70004   5.595  15.305  20.545 -0.0781 -0.2744 -0.0592
27093W        W70005   4.713  15.232  21.172  0.0876  0.2193 -0.1657
27094W        W70006   5.895  15.802  23.727 -0.0402 -0.1071 -0.1060
27095W        W70007   5.812  13.708  20.625 -0.1662  0.5270 -0.0165
27096W        W70008   6.236  15.113  22.699  0.2383 -0.2896  0.0420
27097W        W70009   4.763  16.783  18.954  0.3695  0.1398 -0.0735
27098W        W70010   5.751  17.843  21.664  0.0952  0.1805  0.0263
27099W        W70011   6.459  14.824  19.939 -0.2871  0.0784  0.1346
27100W        W70012   3.539  16.056  21.770  0.2136 -0.0151  0.2807
27101W        W70013   4.375  19.354  23.087 -0.2032  0.0520  0.0930
27102W        W70014   4.250  14.916  19.352 -0.1569 -0.1057 -0.0468
27103W        W70015   4.715  14.168  21.204 -0.0539 -0.0302 -0.0398
27104W        W70016   4.379  17.466  22.762 -0.1584 -0.0492 -0.0019
27105W        W70017   7.472  17.031  23.827  0.0965 -0.0360  0.0235
27106W        W70018   4.026  13.552  19.612 -0.1451 -0.1866  0.0279
27107W        W70019   8.312  15.907  21.773  0.2025 -0.2887  0.2094
27108W        W70020   4.064  16.835  19.763 -0.0890 -0.0352  0.2911
27109W        W70021   5.838  13.515  22.248  0.0505 -0.2315  0.2358
27110W        W70022   5.222  18.638  21.821 -0.0077 -0.3430 -0.0733
27111W        W70023   3.741  17.699  22.191  0.2072  0.0306  0.3225
27112W        W70024   3.152  16.167  20.236 -0.3994 -0.1000  0.0262
27113W        W70025   5.371  13.632  22.429 -0.0704  0.0154 -0.0150
27114W        W70026   5.352  14.797  20.231 -0.1660 -0.3065 -0.0438
27115W        W70027   5.495  15.644  21.054 -0.1847  0.2130  0.2092
27116W        W70028   7.226  15.799  21.633 -0.0258 -0.0593  0.0086
27117W        W70029   6.501  16.985  23.302  0.1214  0.3386 -0.0287
27118W        W70030   3.472  15.442  22.756  0.1497  0.3849 -0.0120
27119W        W70031   5.948  17.774  22.859  0.1331  0.0008 -0.0975
27120W        W70032   6.928  17.808  22.192  0.1942  0.0982 -0.1374
27121W        W70033   4.974  17.512  20.743 -0.0620 -0.0288 -0.0902
27122W        W70034   3.279  15.798  23.278  0.1902  0.4922 -0.5312
27123W        W70035   5.847  15.399  23.375  0.1214  0.0619 -0.0983
27124W        W70036   4.587  15.245  22.689 -0.0889 -0.1231  0.3453
27125W        W70037   5.668  14.112  20.970 -0.0842  0.0269  0.0643
27126W        W70038   4.934  17.122  20.325 -0.2083 -0.0368  0.1154
27127W        W70039   2.201  17.770  23.724  0.0183  0.0149  0.1674
27128W        W70040   3.264  16.954  22.799  0.2630  0.1254  0.2216
27129W        W70041   4.637  17.642  20.408 -0.0391 -0.8613 -0.2125
27130W        W70042   4.646  18.871  20.979 -0.2737  0.1196 -0.0191
27131W        W70043   5.540  18.723  20.414  0.3428  0.4547  0.2064
27132W        W70044   4.229  18.199  20.916 -0.2405 -0.2651 -0.0544
27133W        W70045   4.634  14.716  20.826 -0.1833 -0.1637  0.1937
27134W        W70046   4.523  17.620  20.924 -0.0392 -0.1947  0.2156
27135W        W70047   3.658  18.939  18.246 -0.0198 -0.0730  0.2220
27136W        W70048   6.733  18.361  20.625 -0.2811  0.3317  0.0502
27137W        W70049   4.965  19.310  20.070  0.0581 -0.0791  0.0005
27138W        W70050   6.813  17.351  23.107  0.0320  0.3003 -0.0228
27139W        W70051   6.362  15.812  20.008  0.0694 -0.0934  0.1016
27140W        W70052   5.060  15.806  21.242 -0.0978  0.0592 -0.1062
27141W        W70053   6.870  15.204  21.958  0.0140  0.0040 -0.1688
27142W        W70054   4.247  17.764  22.353 -0.0455  0.1181 -0.0622
27143W        W70055   4.348  15.574  21.428 -0.1914 -0.4287  0.0175
27144W        W70056   4.581  13.314  21.604 -0.1254 -0.0281  0.1385
27145W        W70057   4.538  15.733  22.792  0.2449  0.0873  0.2184
27146W        W70058   6.317  15.687  23.514 -0.2990  0.3041  0.0164
27147W        W70059   3.312  18.292  20.913  0.0161  0.2952 -0.1203
27148W        W70060   5.415  17.664  20.927 -0.2444  0.1738  0.0971
27149W        W70061   3.495  13.581  20.675  0.0118 -0.1273 -0.4081
27150W        W70062   3.375  15.584  22.236  0.2182  0.1945  0.0933
27151W        W70063   7.275  14.519  22.020  0.0575 -0.1682  0.0070
27152W        W70064   6.115  15.586  20.396  0.2686  0.0603 -0.0104
27153W        W70065   4.654  14.754  22.736  0.0937  0.0370  0.1945
27154W        W70066   5.556  18.632  20.939 -0.3382  0.2233 -0.0114
27155W        W70067   3.221  18.611  21.330  0.0004 -0.0106 -0.1542
27156W        W70068   5.472  18.179  21.990  0.0066 -0.2569 -0.0691
27157W        W70069   3.065  14.254  21.645  0.1217  0.1793 -0.2721
27158W        W70070   7.565  15.148  22.820  0.0706 -0.3465  0.1174
27159W        W70071   4.727  15.397  23.223 -0.0638  0.1162  0.0838
27160W        W70072   7.152  13.858  21.136 -0.0410  0.1208 -0.3592
27161W        W70073   5.119  15.396  20.831 -0.0443  0.1123  0.0823
27162W        W70074   5.836  15.844  20.765 -0.4517 -0.0340 -0.0065
27163W        W70075   4.456  15.759  23.931 -0.3525  0.1243 -0.0121
27164W        W70076   4.745  16.172  24.623  0.3623 -0.1580 -0.1354
27165W        W70077   5.843  15.693  18.136 -0.0507 -0.2913  0.1339
27166W        W70078   7.689  17.255  22.919  0.2573  0.3173 -0.0932
27167W        W70079   4.864  16.068  20.559  0.0949 -0.1673 -0.4225
27168W        W70080   5.531  18.005  22.598 -0.3833 -0.0900  0.0168
27169W        W70081   4.501  14.569  21.855 -0.1638 -0.0311  0.1176
27170W        W70082   6.199  14.599  22.220  0.1267 -0.3420  0.2230
27171W        W70083   4.628  15.716  20.949 -0.3022  0.0502 -0.3082
27172W        W70084   3.896  15.114  23.371 -0.0292 -0.1659 -0.2588
27173W        W70085   6.045  18.204  22.739 -0.0744  0.2119  0.0201
27174W        W70086   3.918  14.708  22.041 -0.0491  0.1183 -0.0622
27175W        W70087   5.670  17.218  21.008 -0.0415 -0.1170  0.0463
27176W        W70088   5.534  15.771  20.342  0.0309 -0.0755  0.3303
27177W        W70089   3.701  17.675  19.402 -0.5379 -0.2165  0.0260
27178W        W70090   6.280  16.475  21.620 -0.0329  0.0043  0.0251
27179W        W70091   6.257  17.935  21.517 -0.2541 -0.0239  0.0476
27180W        W70092   3.165  16.471  22.779 -0.2401  0.1878  0.1322
27181W        W70093   6.755  18.273  22.453 -0.0501 -0.0288  0.0069
27182W        W70094   6.209  16.842  22.338  0.0139  0.1446  0.1210
27183W        W70095   6.621  15.363  20.623 -0.1674  0.1745  0.0448
27184W        W70096   4.356  15.251  24.157  0.4288  0.1575 -0.0485
27185W        W70097   3.891  17.986  20.252 -0.0587 -0.0094  0.0459
27186W        W70098   5.340  14.908  21.670  0.1899 -0.2093 -0.3865
27187W        W70099   5.985  15.949  23.256 -0.1196  0.3083  0.0551
27188W        W70100   5.390  16.261  18.883 -0.1920 -0.0927  0.2969
27189W        W70101   6.247  14.034  22.407  0.2363  0.1652  0.0462
27190W        W70102   4.639  19.049  20.386  0.1128 -0.1043 -0.0829
27191W        W70103   3.033  17.422  24.206 -0.0147 -0.0529 -0.2214
27192W        W70104   4.671  15.420  21.869  0.1775 -0.1889  0.1572
27193W        W70105   4.220  16.187  24.188 -0.2667  0.4876 -0.0150
27194W        W70106   5.424  17.196  19.974  0.1420 -0.0479  0.0971
27195W        W70107   4.179  19.569  21.486 -0.1183  0.1853  0.0641
27196W        W70108   5.768  16.497  21.447 -0.1033  0.1464  0.3980
27197W        W70109   4.809  13.823  20.840 -0.2947  0.0649 -0.3246
27198W        W70110   7.045  17.254  22.294  0.0782  0.0538  0.0806
27199W        W70111   4.906  14.579  20.460  0.0426 -0.3107  0.1370
27200W        W70112   7.699  15.155  21.413  0.2765  0.0401  0.1862
27201W        W70113   6.278  15.062  21.269 -0.4198  0.1416 -0.2056
27202W        W70114   3.718  15.861  22.528 -0.2543 -0.1118 -0.6974
27203W        W70115   3.961  14.570  20.584  0.2856  0.1678 -0.0703
27204W        W70116   3.245  16.983  20.469  0.2291  0.0942 -0.0574
27205W        W70117   3.898  16.163  22.105  0.4218 -0.1077  0.3569
27206W        W70118   5.206  16.459  23.457 -0.0737  0.0021 -0.3073
27207W        W70119   4.606  16.584  24.886 -0.1367  0.2368  0.0909
27208W        W70120   4.262  16.050  22.551 -0.1631  0.1428 -0.0952
27209W        W70121   3.489  15.085  21.226 -0.2157  0.3823  0.0908
27210W        W70122   5.788  17.540  20.100  0.0759 -0.3819  0.1718
27211W        W70123   4.452  13.777  21.463 -0.1129 -0.2251 -0.1459
27212W        W70124   2.456  15.054  22.164 -0.0002  0.0717 -0.0567
27213W        W70125   5.189  17.321  21.257  0.1078  0.2841 -0.0961
27214W        W70126   5.299  17.763  21.505  0.2703  0.0226 -0.0599
27215W        W70127   3.218  14.403  21.208  0.1216  0.0312 -0.3156
27216W        W70128   5.662  16.246  23.593  0.2235  0.0057 -0.0559
27217W        W70129   3.290  17.004  18.611 -0.1880  0.1740 -0.1068
27218W        W70130   5.449  15.346  22.456  0.0999  0.0946 -0.1442
27219W        W70131   3.914  14.035  24.048  0.0155 -0.1378 -0.2537
27220W        W70132   3.177  14.027  18.730  0.2630 -0.0490  0.0428
27221W        W70133   5.584  16.758  23.650 -0.1258  0.2205 -0.0525
27222W        W70134   4.898  16.893  21.740  0.4262 -0.0604  0.1458
27223W        W70135   5.485  16.282  20.271  0.0397 -0.1637  0.0469
27224W        W70136   5.710  17.521  23.720  0.1836  0.0894 -0.1401
27225W        W70137   4.791  18.653  22.592  0.0825 -0.0358  0.0179
27226W        W70138   3.007  14.695  21.938  0.4007  0.2741  0.1035
27227W        W70139   6.123  16.425  21.101  0.2107  0.0366 -0.1206
27228W        W70140   5.266  17.336  23.444  0.2969 -0.1658  0.0581
27229W        W70141   5.625  16.776  20.503  0.2951 -0.1465  0.2193
27230W        W70142   5.798  14.935  21.461  0.2635 -0.0788  0.0477
27231W        W70143   5.729  16.406  20.806 -0.2078  0.0109 -0.0970
27232W        W70144   5.222  12.783  24.559 -0.0884 -0.2147 -0.1430
27233W        W70145   3.983  17.684  23.963 -0.0951  0.0842 -0.3021
27234W        W70146   7.382  17.167  23.339 -0.1219 -0.2220 -0.1134
27235W        W70147   5.329  14.868  20.706 -0.1055  0.0479  0.0194
27236W        W70148   5.893  15.451  21.349  0.1788  0.1333  0.1542
27237W        W70149   4.964  18.001  20.596  0.4823  0.1490 -0.0961
27238W        W70150   4.089  15.891  21.112  0.0581 -0.3144  0.0797
27239W        W70151   5.126  14.595  19.105  0.2128  0.2691  0.1886
27240W        W70152   5.681  16.091  22.882 -0.0321 -0.1889  0.0107
27241W        W70153   5.541  17.331  21.603 -0.1061  0.1951  0.0798
27242W        W70154   7.223  16.372  23.026 -0.0240  0.1209  0.0156
27243W        W70155   5.001  14.825  21.184 -0.1075  0.3275  0.0945
27244W        W70156   6.340  16.986  20.309  0.2342  0.0868 -0.0409
27245W        W70157   5.450  17.416  22.666  0.2776  0.1569 -0.3050
27246W        W70158   7.004  18.541  22.748  0.3825  0.0981 -0.2571
27247W        W70159   5.057  17.665  22.606  0.0479  0.0235  0.0361
27248W        W70160   4.494  16.655  21.525  0.1152  0.0447 -0.1045
27249W        W70161   4.133  15.530  22.513 -0.0163 -0.0098  0.4081
27250W        W70162   3.821  15.930  20.684 -0.1322 -0.2029 -0.1823
27251W        W70163   4.950  17.214  22.363  0.2637 -0.0159 -0.2572
27252W        W70164   5.729  16.550  23.182 -0.2428 -0.1895  0.2536
27253W        W70165   4.274  15.838  21.987 -0.2878 -0.0024  0.0291
27254W        W70166   5.593  14.408  20.044  0.1795 -0.1102 -0.2395
27255W        W70167   3.410  19.806  22.854  0.0537 -0.0375  0.2911
27256W        W70168   3.933  16.894  22.917  0.3116  0.0945  0.0432
27257W        W70169   5.894  16.853  27.373  0.0099  0.2605  0.1277
27258W        W70170   5.124  15.598  24.632 -0.0626 -0.2743 -0.0959
27259W        W70171   5.945  15.483  22.879 -0.1730 -0.1976 -0.2035
27260W        W70172   7.577  15.988  22.760  0.0096  0.3294  0.0062
27261W        W70173   3.829  14.789  25.797  0.0701 -0.0770  0.0550
27262W        W70174   3.862  18.280  25.263  0.1347  0.3044  0.2738
27263W        W70175   4.511  15.313  28.080  0.0990 -0.0774  0.1768
27264W        W70176   5.342  17.704  25.464 -0.0574  0.0280 -0.2048
27265W        W70177   7.049  17.842  28.240  0.0027 -0.2248 -0.2665
27266W        W70178   3.776  16.517  24.311 -0.0179 -0.3372  0.1322
27267W        W70179   5.408  15.844  25.752 -0.0905 -0.2377  0.0470
27268W        W70180   5.377  18.622  27.356  0.4984  0.1713 -0.3405
27269W        W70181   4.581  13.877  25.782 -0.1577 -0.2193  0.0804
27270W        W70182   4.219  15.051  26.171 -0.0782 -0.0907 -0.1458
27271W        W70183   6.382  15.742  26.821  0.3153  0.1130 -0.2297
27272W        W70184   4.463  14.697  26.455 -0.1492  0.2974  0.1879
27273W        W70185   4.774  15.597  26.261 -0.1495 -0.0221 -0.2659
27274W        W70186   3.941  16.024  24.588  0.1728  0.0679  0.0122
27275W        W70187   4.657  18.403  25.058  0.0941 -0.1605 -0.0189
27276W        W70188   6.030  14.863  26.278  0.1196 -0.0322  0.2530
27277W        W70189   6.250  15.328  26.570  0.2222  0.0992 -0.1625
27278W        W70190   5.004  18.229  25.573  0.0792  0.1387 -0.2815
27279W        W70191   3.198  16.815  24.674  0.0333  0.0354  0.0968
27280W        W70192   4.022  15.503  26.251 -0.0485  0.0089  0.2444
27281W        W70193   4.871  16.513  26.271 -0.0871 -0.0947  0.0081
27282W        W70194   5.879  15.356  26.204 -0.2762  0.0215  0.2952
27283W        W70195   6.601  15.738  25.301  0.2642 -0.1038 -0.1118
27284W        W70196   5.555  19.491  26.965  0.0179  0.0868  0.1679
27285W        W70197   5.498  18.154  26.716  0.1552 -0.1344  0.2020
27286W        W70198   5.614  16.221  28.014 -0.2012  0.1355  0.0484
27287W        W70199   3.792  18.889  26.601 -0.2250 -0.1662  0.0536
27288W        W70200   3.581  18.638  23.949 -0.0112  0.2622 -0.2757
27289W        W70201   5.636  16.693  24.742 -0.2433  0.5264 -0.2296
27290W        W70202   4.754  17.871  24.915  0.1133  0.2548 -0.1459
27291W        W70203   7.123  18.337  28.083 -0.1518 -0.0906  0.0697
27292W        W70204   5.491  17.717  28.182 -0.4385 -0.1795  0.2944
27293W        W70205   3.071  17.333  24.724 -0.1556 -0.0078 -0.0246
27294W        W70206   6.638  18.939  27.077 -0.0542 -0.0508 -0.1221
27295W        W70207   4.444  17.228  27.195 -0.0388 -0.1341  0.2007
27296W        W70208   5.347  15.752  27.211  0.1009 -0.1146  0.3316
27297W        W70209   5.843  17.357  24.310  0.0364 -0.1043  0.0244
27298W        W70210   5.681  17.430  23.155 -0.2173  0.2374 -0.0416
27299W        W70211   6.146  16.881  26.201 -0.1116  0.2708  0.1960
27300W        W70212   4.530  18.302  26.881 -0.0436  0.1946  0.0177
27301W        W70213   5.228  19.484  25.679 -0.2060  0.2238 -0.2992
27302W        W70214   8.181  15.224  27.801 -0.1189 -0.1402  0.1565
27303W        W70215   4.108  18.503  26.646 -0.0134 -0.1249 -0.0024
27304W        W70216   5.930  14.940  23.041  0.5182  0.2615  0.0059
27305W        W70217   3.463  15.321  24.217 -0.1448  0.0832 -0.2950
27306W        W70218   4.932  14.948  23.409 -0.3147 -0.0150  0.0934
27307W        W70219   4.906  13.700  26.339 -0.2075 -0.0983  0.1208
27308W        W70220   4.988  19.126  25.221  0.0192 -0.1890  0.0110
27309W        W70221   4.034  15.381  25.529  0.0159 -0.0684  0.1352
27310W        W70222   7.272  17.380  28.020 -0.3484  0.3050  0.1357
27311W        W70223   4.842  16.106  23.520  0.0986  0.4539 -0.3064
27312W        W70224   5.844  16.534  26.376  0.0545 -0.0251 -0.0324
27313W        W70225   4.547  19.783  26.108  0.0069 -0.2692 -0.1159
27314W        W70226   2.312  16.690  25.363  0.0384  0.2803  0.1922
27315W        W70227   6.512  18.401  23.568  0.1846  0.3136  0.0448
27316W        W70228   6.107  18.281  25.667 -0.2189 -0.2949  0.1036
27317W        W70229   4.968  16.051  24.150 -0.3041 -0.2301  0.1433
27318W        W70230   4.726  16.208  25.231  0.0682  0.1504 -0.2322
27319W        W70231   4.570  18.074  27.748  0.2544  0.1591 -0.0345
27320W        W70232   4.545  16.328  26.800 -0.0663  0.1849  0.3077
27321W        W70233   4.106  12.965  23.994  0.1103 -0.0493  0.1340
27322W        W70234   7.470  17.893  27.368 -0.0856  0.1010 -0.1921
27323W        W70235   4.295  18.759  27.088 -0.1882  0.0869 -0.0045
27324W        W70236   6.599  14.275  25.685 -0.1269  0.1363 -0.2437
27325W        W70237   4.979  18.548  26.013  0.0957 -0.2434  0.0950
27326W        W70238   6.467  16.527  25.234 -0.2196  0.1032 -0.1522
27327W        W70239   5.989  16.308  23.965  0.2750 -0.0725 -0.1511
27328W        W70240   6.364  14.614  25.870 -0.0002 -0.1075 -0.4184
27329W        W70241   6.605  15.465  26.212 -0.1074  0.1679  0.0877
27330W        W70242   4.246  16.481  24.597 -0.1530 -0.1903  0.1562
27331W        W70243   3.752  18.082  24.762 -0.1396 -0.2333 -0.2777
27332W        W70244   7.505  17.215  25.860 -0.2691  0.2879  0.0324
27333W        W70245   6.393  15.523  21.714  0.0087 -0.1239 -0.1222
27334W        W70246   3.881  18.637  25.721  0.2945  0.2593 -0.1859
27335W        W70247   4.824  15.260  26.907  0.1563  0.0641 -0.0670
27336W        W70248   6.223  17.703  27.836 -0.0503 -0.3141  0.0274
27337W        W70249   4.313  18.197  23.413 -0.2108  0.1394  0.0756
27338W        W70250   4.517  17.083  26.307  0.0078  0.3351  0.2326
27339W        W70251   3.499  17.682  26.074  0.0342  0.1012  0.1975
27340W        W70252   4.015  15.041  26.704  0.1306 -0.3945  0.1545
27341W        W70253   5.110  18.198  25.141  0.2251 -0.0503 -0.2783
27342W        W70254   7.042  14.401  25.251 -0.0198  0.0833  0.0269
27343W        W70255   4.174  16.779  27.073  0.2775 -0.1096  0.0960
27344W        W70256   8.155  14.755  24.815 -0.1671 -0.0252  0.1925
27345W        W70257   3.884  16.479  23.837  0.0663 -0.0423  0.0195
27346W        W70258   6.052  17.611  24.737  0.1773 -0.0163  0.1233
27347W        W70259   6.112  15.423  23.945  0.2296  0.3276 -0.3753
27348W        W70260   5.744  18.553  22.405 -0.1761 -0.0734  0.0189
27349W        W70261   2.784  17.181  26.677 -0.0668  0.2641 -0.3507
27350W        W70262   5.046  16.145  25.955  0.1945 -0.2651 -0.2629
27351W        W70263   3.974  15.745  27.377  0.3832  0.0532 -0.0636
27352W        W70264   3.183  14.625  26.887  0.2154  0.1860 -0.0758
27353W        W70265   5.671  16.538  26.865 -0.3084  0.3918  0.3450
27354W        W70266   3.544  14.289  24.339 -0.3576  0.2128  0.0775
27355W        W70267   6.571  14.449  24.548 -0.1129 -0.2611 -0.1851
27356W        W70268   4.994  17.431  26.280 -0.4205 -0.0045 -0.2902
27357W        W70269   4.447  18.480  25.903  0.2530 -0.1716  0.0993
27358W        W70270   6.499  14.963  26.921 -0.2258  0.3241 -0.2153
27359W        W70271   4.878  19.245  23.485 -0.0163 -0.3520  0.0812
27360W        W70272   5.224  18.125  26.061 -0.0879  0.4873 -0.0064
27361W        W70273   6.013  17.010  24.679 -0.0870  0.0591 -0.3226
27362W        W70274   4.385  15.026  27.003  0.3154  0.0842  0.2506
27363W        W70275   4.565  13.918  23.357 -0.0774 -0.0320  0.0774
27364W        W70276   4.086  19.294  26.697  0.0887  0.2531 -0.2064
27365W        W70277   5.553  18.249  25.420 -0.1284  0.0221 -0.2645
27366W        W70278   4.086  14.744  24.822  0.2277 -0.2431  0.1594
27367W        W70279   7.158  16.958  25.195 -0.1425  0.1741 -0.2654
27368W        W70280   5.019  17.694  25.819  0.0905 -0.0547 -0.0087
27369W        W70281   4.386  18.948  26.634 -0.0154  0.2441 -0.2169
27370W        W70282   5.714  15.282  26.830 -0.1020  0.0155  0.1898
27371W        W70283   8.054  15.737  25.504  0.0694 -0.0319  0.2018
27372W        W70284   5.127  16.869  24.745 -0.1078 -0.4169  0.0121
27373W        W70285   2.658  15.243  24.809  0.0799  0.1316  0.1034
27374W        W70286   5.423  18.244  24.560  0.4464  0.1534 -0.0958
27375W        W70287   4.105  19.117  24.064  0.2659  0.3609 -0.0110
27376W        W70288   2.985  18.375  25.788 -0.1407 -0.2043  0.0865
27377W        W70289   5.827  18.469  27.162 -0.1915 -0.1622 -0.1644
27378W        W70290   6.619  13.976  26.094  0.0497  0.1205 -0.0345
27379W        W70291   3.868  18.087  27.718  0.1580 -0.0669 -0.1602
27380W        W70292   4.561  16.226  27.974 -0.0999  0.0949 -0.1079
27381W        W70293   2.930  16.364  25.801 -0.2438 -0.1416 -0.1402
27382W        W70294   4.843  17.588  27.356 -0.1593 -0.0036  0.2945
27383W        W70295   6.252  15.006  23.502 -0.1743  0.2579  0.1567
27384W        W70296   7.314  15.608  24.790  0.0304 -0.0424  0.0656
27385W        W70297   6.480  16.237  26.638 -0.0482  0.2204  0.0458
27386W        W70298   5.640  17.296  24.789 -0.1213 -0.0562  0.2178
27387W        W70299   5.456  15.657  22.866  0.2124 -0.2102  0.0656
27388W        W70300   4.505  14.802  24.526 -0.0483  0.2558 -0.1023
27389W        W70301   4.391  17.539  27.624 -0.0288 -0.1002 -0.1991
27390W        W70302   5.288  17.414  24.380  0.3754 -0.0236 -0.0837
27391W        W70303   5.073  18.368  26.556  0.4535  0.0040  0.1611
27392W        W70304   4.866  15.593  23.692 -0.3214  0.0994  0.0082
27393W        W70305   6.191  17.514  23.937  0.0360 -0.0542 -0.3794
27394W        W70306   4.550  17.501  26.642  0.1208  0.2325  0.1368
27395W        W70307   5.360  17.520  27.403 -0.2021  0.3519  0.0331
27396W        W70308   6.230  16.652  25.702  0.0339 -0.1101  0.1098
27397W        W70309   4.135  13.285  26.481 -0.3408  0.0166  0.1132
27398W        W70310   5.121  16.046  24.909  0.3644 -0.3978  0.0156
27399W        W70311   5.257  14.668  23.842 -0.1355 -0.3047  0.2225
27400W        W70312   3.245  18.914  24.916 -0.0793  0.0981  0.1471
27401W        W70313   5.558  13.984  26.085  0.2225  0.1675 -0.0622
27402W        W70314   5.358  14.957  24.974  0.0412 -0.3840  0.0303
27403W        W70315   4.805  14.755  26.767  0.4055  0.2008  0.2826
27404W        W70316   6.778  16.738  26.929  0.1312 -0.1433  0.0021
27405W        W70317   5.103  16.488  23.935 -0.3344 -0.1644 -0.0747
27406W        W70318   7.063  15.960  25.703  0.1006 -0.1855 -0.0710
27407W        W70319   4.875  17.894  24.010 -0.2676 -0.0978 -0.2164
27408W        W70320   5.769  15.854  27.673  0.2714  0.0282  0.1007
27409W        W70321   5.402  16.700  27.308 -0.1794  0.0727  0.1626
27410W        W70322   3.379  18.903  26.281  0.5465 -0.1446 -0.2087
27411W        W70323   5.898  17.011  26.663 -0.0039 -0.0251  0.0462
27412W        W70324   4.229  16.812  23.634 -0.0239  0.1096 -0.0592
27413W        W70325   5.594  15.731  28.197  0.0973 -0.0782 -0.0962
27414W        W70326   4.037  15.557  23.812 -0.1354  0.1643 -0.0394
27415W        W70327   4.338  18.196  25.440  0.1449  0.3295  0.1288
27416W        W70328   5.649  17.950  23.301  0.1482  0.0155  0.3209
27417W        W70329   5.089  13.923  25.825 -0.1611 -0.1100  0.2704
27418W        W70330   5.429  16.810  25.527  0.0709  0.1817 -0.0573
27419W        W70331   2.705  17.199  21.415  0.0967  0.4716 -0.0171
27420W        W70332   6.220  16.304  26.101 -0.2162 -0.0895 -0.1289
27421W        W70333   4.774  18.694  25.518 -0.4881  0.2589 -0.1059
27422W        W70334   7.262  15.507  27.189 -0.1738 -0.0589  0.0991
27423W        W70335   4.392  19.350  26.264  0.2782  0.4547  0.4110
27424W        W70336   4.795  16.542  24.329  0.1320 -0.1542 -0.4225
27425W        W70337   2.642  17.349  24.935 -0.1974  0.0675 -0.0810
27426W        W70338   5.793  14.519  25.036  0.0965 -0.0581  0.0390
27427W        W70339   6.434  17.913  23.730 -0.4158  0.0955  0.0819
27428W        W70340   4.787  14.215  26.187 -0.1083  0.1639  0.0970
27429W        W70341   4.521  15.341  25.261 -0.0976  0.1201  0.1064
27430W        W70342   4.693  18.945  26.197  0.0658 -0.0466 -0.0898
27431W        W70343   6.251  15.640  25.649 -0.1948 -0.1634 -0.1191
27432W        W70344   7.685  15.078  24.118 -0.3338  0.0791  0.0303
27433W        W70345   5.953  17.933  26.629  0.0784  0.3288  0.0780
27434W        W70346   5.782  16.737  27.958 -0.0537  0.3124 -0.2048
27435W        W70347   3.646  16.078  25.028 -0.2916 -0.0418 -0.0497
27436W        W70348   6.931  15.266  26.510 -0.2082  0.2215  0.1530
27437W        W70349   5.109  15.424  25.790  0.1585 -0.1806  0.1768
27438W        W70350   2.711  17.564  25.351 -0.0977  0.1608 -0.3713
27439W        W70351   5.456  19.035  27.629 -0.0507 -0.0138 -0.1000
27440W        W70352   4.889  16.973  25.475  0.0975  0.0366 -0.0990
27441W        W70353   4.505  17.465  24.779 -0.0854  0.4328 -0.2491
27442W        W70354   5.954  17.205  27.740  0.1855 -0.0105  0.4973
27443W        W70355   6.008  16.147  26.692  0.1891 -0.1289  0.2601
27444W        W70356   6.220  16.021  25.167 -0.0794  0.1238 -0.2408
27445W        W70357   5.035  15.709  25.367 -0.1037  0.1434  0.1188
27446W        W70358   6.344  16.095  25.643  0.0371  0.0073 -0.0564
27447W        W70359   6.628  16.947  25.995  0.0853  0.0547 -0.0636
27448W        W70360   5.528  18.543  26.319  0.0855  0.1972  0.1307
27449W        W70361   4.743  18.427  27.478 -0.1285  0.2422 -0.0903
27450W        W70362   5.863  14.958  24.805  0.4109  0.1334 -0.1166
27451W        W70363   5.745  18.007  25.000  0.0866  0.1759  0.0402
27452W        W70364   7.065  16.252  28.317  0.0942 -0.1673 -0.3059
27453W        W70365   5.341  18.742  25.482  0.1226 -0.0262 -0.0126
27454W        W70366   2.911  16.083  26.277 -0.1820  0.0150  0.0365
27455W        W70367   5.476  15.936  24.539  0.0998 -0.1210  0.2886
27456W        W70368   5.748  15.732  26.495 -0.0663  0.1876 -0.0836
27457W        W70369   4.357  17.499  25.297  0.2150 -0.1890  0.1341
27458W        W70370   4.263  17.991  25.990  0.1798 -0.0660 -0.1108
27459W        W70371   3.362  18.175  26.073 -0.0454 -0.5401 -0.2000
27460W        W70372   6.003  14.490  24.430 -0.0461 -0.0029 -0.5061
27461W        W70373   4.462  15.897  23.259  0.1262  0.0228 -0.1469
27462W        W70374   5.482  14.259  25.379  0.1428 -0.0365 -0.0227
27463W        W70375   6.873  14.735  26.620 -0.1911 -0.3164  0.2424
27464W        W70376   5.149  16.928  24.249 -0.0100  0.4061 -0.0141
27465W        W70377   6.923  16.682  27.415 -0.0094 -0.1694 -0.2377
27466W        W70378   4.481  15.278  26.576 -0.0702  0.1809  0.1118
27467W        W70379   6.814  16.179  25.285  0.0458  0.3157  0.1564
27468W        W70380   2.758  14.568  27.205  0.0511 -0.1639  0.0519
27469W        W70381   6.658  18.132  27.882  0.4029 -0.1140  0.0113
27470W        W70382   4.926  16.677  27.424  0.1254  0.4229 -0.2704
27471W        W70383   5.824  15.326  25.675 -0.2330 -0.0038  0.0155
27472W        W70384   4.050  12.615  24.394 -0.2574  0.0970  0.3665
27473W        W70385   4.571  17.266  25.689  0.1251 -0.0949 -0.1079
27474W        W70386   6.393  16.651  27.311 -0.0794  0.0192 -0.0835
27475W        W70387   4.069  17.372  23.639 -0.0477  0.3552  0.1837
27476W        W70388   5.818  15.822  25.411  0.1142 -0.1217  0.1945
27477W        W70389   5.538  16.126  26.236  0.2444  0.2880  0.1050
27478W        W70390   5.573  16.665  24.159 -0.3149  0.1190 -0.0816
27479W        W70391   4.592  16.367  23.928 -0.2099  0.2341 -0.0199
27480W        W70392   4.582  17.586  26.140  0.0754 -0.1492  0.0331
27481W        W70393   5.173  16.172  27.658  0.3060 -0.1286 -0.0298
27482W        W70394   5.916  16.474  25.283 -0.0139  0.0321  0.3649
27483W        W70395   5.358  15.651  24.138 -0.0349 -0.1657  0.3699
27484W        W70396   6.143  14.419  26.226 -0.0529  0.0818  0.0683
27485W        W70397   6.832  15.205  27.343 -0.0931  0.2650  0.0222
27486W        W70398   5.844  16.742  28.580  0.1237  0.0436  0.0638
27487W        W70399   3.788  16.162  26.949  0.2052 -0.2751  0.1014
27488W        W70400   7.647  16.909  27.750  0.0925 -0.3674 -0.0752
27489W        W70401   5.881  15.890  24.233 -0.3572  0.0107  0.1207
27490W        W70402   6.645  15.892  25.989  0.4065 -0.2447  0.2238
27491W        W70403   5.572  15.376  24.672 -0.3335  0.0602  0.2670
27492W        W70404   5.291  15.220  25.383 -0.0132  0.1237  0.4797
27493W        W70405   4.540  14.419  25.378  0.2008  0.2281 -0.4730
27494W        W70406   7.290  16.995  27.163 -0.0280  0.0066 -0.0707
27495W        W70407   4.519  14.345  24.316  0.4580  0.0021 -0.0322
27496W        W70408   7.369  15.549  26.657 -0.0594 -0.4219 -0.0287
27497W        W70409   5.794  16.976  25.140 -0.2563 -0.0877  0.0488
27498W        W70410   5.763  16.273  25.764 -0.3495  0.1609 -0.1630
27499W        W70411   6.061  14.793  25.556  0.0520  0.2347  0.0097
27500W        W70412   3.102  15.269  25.789  0.0668 -0.1186 -0.0882
27501W        W70413   5.812  19.406  27.522 -0.1315 -0.2867  0.0125
27502W        W70414   4.423  15.717  24.507  0.2226  0.2462  0.2107
27503W        W70415   5.063  16.591  25.142 -0.1098  0.1265  0.1913
27504W        W70416   5.155  17.618  26.939 -0.0078  0.2808  0.1521
27505W        W70417   6.495  17.082  27.810 -0.1883 -0.0353  0.0101
27506W        W70418   4.833  15.534  24.173  0.0878  0.1225 -0.1436
27507W        W70419   7.256  15.928  26.932  0.0235 -0.1887  0.0561
27508W        W70420   2.849  18.144  25.298  0.2898 -0.0811 -0.1511
27509W        W70421   5.553  14.756  25.449  0.1577 -0.1208 -0.2237
27510W        W70422   6.364  17.812  26.949  0.2584 -0.0662 -0.1472
27511W        W70423   3.201  17.820  27.406  0.3896 -0.1315  0.3044
27512W        W70424   4.760  17.438  24.358  0.0419  0.0887  0.0618
27513W        W70425   6.339  14.550  26.665 -0.1144 -0.0052  0.1151
27514W        W70426   6.250  15.801  26.336 -0.1783 -0.0364 -0.0670
27515W        W70427   5.190  16.399  24.567 -0.0567 -0.1461  0.0080
27516W        W70428   7.505  16.393  27.564  0.1714 -0.0577  0.3733
27517W        W70429   5.775  17.635  27.689 -0.0270 -0.0236 -0.0525
27518W        W70430   3.672  17.058  24.918  0.1126  0.4344 -0.0668
27519W        W70431   6.637  17.472  28.153  0.4817  0.0692  0.1203
27520W        W70432   5.928  15.699  24.830  0.5839 -0.0675 -0.2283
27521W        W70433   5.672  17.480  26.662  0.1181 -0.0574  0.0259
27522W        W70434   3.885  15.319  27.169  0.0140 -0.2237  0.0068
27523W        W70435   6.283  16.310  28.197 -0.0546 -0.2800  0.0285
27524W        W70436   6.589  16.580  26.326 -0.2829  0.3162 -0.0336
27525W        W70437   4.232  16.255  25.058 -0.1005  0.0094 -0.0781
27526W        W70438   4.037  17.269  22.240  0.0299  0.3331  0.2220
27527W        W70439   4.295  18.234  27.341  0.1818  0.0419 -0.1002
27528W        W70440   3.888  18.108  26.945  0.2376  0.0285 -0.0986
27529W        W70441   4.297  18.029  24.906  0.2429 -0.1065  0.1930
27530W        W70442   6.008  16.938  22.990  0.3156 -0.1918  0.1311
27531W        W70443   5.668  18.313  24.114 -0.2766 -0.0639 -0.1407
27532W        W70444   5.367  18.948  24.682 -0.0694 -0.1707 -0.0096
27533W        W70445   4.967  15.313  25.027  0.2432  0.3220  0.2209
27534W        W70446   4.225  18.544  24.829  0.3428 -0.1809 -0.2132
27535W        W70447   3.338  18.336  25.292  0.2190  0.1460 -0.2326
27536W        W70448   4.466  17.482  23.848  0.2597 -0.0309  0.0437
27537W        W70449   5.357  17.726  24.989 -0.1232 -0.6270 -0.0402
27538W        W70450   6.967  16.311  26.747  0.6466 -0.0709 -0.0643
27539W        W70451   6.825  14.713  24.883 -0.1994 -0.2802 -0.5405
27540W        W70452   7.158  14.782  26.192  0.0023  0.3494 -0.0497
27541W        W70453   5.799  16.337  24.473  0.1684 -0.3315  0.1014
27542W        W70454   7.059  16.214  28.838  0.1403  0.1593 -0.0754
27543W        W70455   4.578  15.375  25.769 -0.1178 -0.1781 -0.0723
27544W        W70456   4.724  14.001  24.717  0.2680  0.1209  0.0249
27545W        W70457   4.045  15.593  26.740  0.0030 -0.3047  0.0366
27546W        W70458   7.120  15.107  26.914  0.1286  0.0159  0.1145
27547W        W70459   3.826  19.805  26.643 -0.0956  0.1143 -0.2726
27548W        W70460   5.316  18.206  23.029  0.1292 -0.1429  0.1697
27549W        W70461   4.637  15.712  24.985 -0.1752 -0.0784  0.1525
27550W        W70462   5.208  17.268  25.700  0.0294  0.1628 -0.0001
27551W        W70463   7.595  14.657  25.965  0.0585  0.0162 -0.3878
27552W        W70464   4.977  15.854  21.711 -0.2130 -0.0995  0.0950
27553W        W70465   5.983  16.991  23.958 -0.1108  0.1997 -0.2083
27554W        W70466   5.379  17.759  24.016 -0.0828 -0.0187 -0.0183
27555W        W70467   3.777  19.484  25.647 -0.2225  0.0897 -0.0047
27556W        W70468   6.190  18.077  27.506  0.1144 -0.0073 -0.1465
27557W        W70469   4.535  15.798  25.549  0.1788 -0.0618  0.2710
27558W        W70470   7.265  14.269  26.099 -0.0592  0.1486  0.0376
27559W        W70471   5.320  16.490  26.483 -0.2721 -0.0043 -0.2927
27560W        W70472   7.850  15.084  26.221  0.0653 -0.2853 -0.1247
27561W        W70473   3.970  17.770  25.251  0.0496 -0.3182 -0.1698
27562W        W70474   6.282  15.348  24.998  0.0885 -0.1106  0.0004
27563W        W70475   5.606  18.034  27.328 -0.2607 -0.1706  0.0010
27564W        W70476   4.563  15.768  26.677 -0.0099 -0.0144 -0.1060
27565W        W70477   4.910  17.515  25.294  0.0812 -0.0762 -0.1733
27566W        W70478   5.517  17.682  26.019 -0.0471  0.0864 -0.2295
27567W        W70479   4.970  17.341  23.902  0.3581  0.3156  0.0754
27568W        W70480   6.922  18.625  28.448  0.2695 -0.1342 -0.1716
27569W        W70481   3.252  15.975  25.891  0.0374  0.1083 -0.0232
27570W        W70482   5.513  15.831  23.313 -0.2880  0.0161 -0.0077
27571W        W70483   4.353  16.840  25.866  0.2810 -0.2173 -0.0060
27572W        W70484   6.330  17.256  26.934  0.1228  0.1179  0.0313
27573W        W70485   7.212  18.236  28.598 -0.2994  0.1741  0.2530
27574W        W70486   4.042  14.555  25.344  0.3737  0.2057  0.2063
27575W        W70487   6.941  16.709  23.946  0.2369 -0.1415  0.0739
27576W        W70488   6.313  15.145  25.960 -0.2911 -0.3668 -0.0603
27577W        W70489   3.840  17.007  23.948  0.2651 -0.4023  0.0914
27578W        W70490   6.684  16.583  24.417  0.0227  0.1932  0.0869
27579W        W70491   6.268  17.030  25.371  0.2359 -0.3507  0.1388
27580W        W70492   3.620  15.705  27.038 -0.0898  0.4521 -0.0867
27581W        W70493   5.828  18.666  27.758 -0.2079 -0.1674  0.1896
27582W        W70494   6.536  17.068  26.511  0.2031  0.3768  0.0645
27583W        W70495   5.298  15.925  23.732  0.0326 -0.0673 -0.0303
27584W        W70496   4.883  16.492  25.614  0.2331  0.1559  0.2586
27585W        W70497   4.204  18.636  23.767 -0.2468 -0.0522 -0.0857
27586W        W70498   6.760  15.813  26.529  0.0994 -0.0302 -0.1597
27587W        W70499   6.831  15.821  28.588 -0.0183  0.1213 -0.1158
27588W        W70500   4.194  17.332  24.351  0.0559 -0.1527 -0.0889
27589W        W70501   7.004  14.254  26.551 -0.1670 -0.1981  0.1725
27590W        W70502   5.032  18.124  27.018 -0.1334  0.0180 -0.0052
27591W        W70503   6.178  16.850  28.182 -0.4121 -0.4411  0.3284
27592W        W70504   4.457  16.272  25.789 -0.0334  0.2193  0.1665
27593W        W70505   5.614  17.293  28.584  0.0613  0.1084 -0.0433
27594W        W70506   4.911  16.963  25.992 -0.1371 -0.0614  0.1690
27595W        W70507   5.367  18.738  24.232  0.0604  0.0692 -0.0937
27596W        W70508   5.739  18.097  26.200 -0.0324  0.1307 -0.3921
27597W        W70509   3.543  14.671  25.273  0.0821  0.1835  0.2619
27598W        W70510   7.996  16.493  26.282  0.0239  0.0546  0.0319
27599W        W70511   5.365  15.454  26.198 -0.1467 -0.0870 -0.0750
27600W        W70512   7.546  14.297  24.493 -0.0117  0.0020  0.0333
27601W        W70513   5.809  15.003  23.791  0.0157  0.1147 -0.0994
27602W        W70514   5.463  17.095  26.985 -0.3171  0.1099 -0.1506
27603W        W70515   3.854  17.769  24.450 -0.0400  0.3414 -0.1042
27604W        W70516   3.989  17.918  23.527  0.0057  0.1789  0.0118
27605W        W70517   4.738  18.087  26.128  0.1703  0.0774 -0.2590
27606W        W70518   5.577  14.696  27.912 -0.0536  0.0680 -0.0463
27607W        W70519   4.246  15.980  26.987 -0.4252  0.1508 -0.1532
27608W        W70520   4.407  16.660  25.314 -0.0040  0.0641  0.1748
27609W        W70521   3.625  15.563  25.214  0.0132 -0.0149  0.1977
27610W        W70522   7.133  17.100  22.727  0.0980  0.1850  0.1120
27611W        W70523   4.767  14.964  25.501 -0.0077  0.2577 -0.4282
27612W        W70524   4.714  14.926  26.089  0.4497 -0.1013  0.1979
27613W        W70525   6.018  18.388  23.647  0.0823  0.0575  0.1817
27614W        W70526   6.133  16.509  24.865  0.2833  0.1138  0.2791
27615W        W70527   5.430  15.662  25.068 -0.2210 -0.1452  0.2108
27616W        W70528   7.493  17.684  28.432  0.0550 -0.1459  0.1888
27617W        W70529   3.050  18.798  25.456 -0.1922 -0.2290 -0.0778
27618W        W70530   5.820  17.399  27.165  0.0235 -0.0400 -0.0667
27619W        W70531   5.475  15.997  26.789 -0.2130  0.0445  0.1872
27620W        W70532   4.138  16.914  24.913  0.0545 -0.2349 -0.4231
27621W        W70533   5.199  14.912  25.878 -0.0361 -0.0308  0.2024
27622W        W70534   6.345  17.219  24.330  0.6220 -0.1381 -0.2273
27623W        W70535   5.495  18.597  23.714  0.4056  0.3229 -0.2846
27624W        W70536   5.317  16.575  25.942  0.0295  0.1108 -0.2658
27625W        W70537   5.126  18.045  28.064 -0.1428 -0.0549 -0.1526
27626W        W70538   2.494  14.748  26.205  0.0545 -0.0687 -0.0460
27627W        W70539   7.867  16.661  23.816 -0.5489 -0.0803 -0.2200
27628W        W70540   5.210  17.104  27.663 -0.1639  0.0754 -0.2388
27629W        W70541   6.258  16.259  24.408  0.2022  0.0898 -0.0532
27630W        W70542   6.787  14.470  26.168  0.0642 -0.1096  0.1106
27631W        W70543   5.485  16.197  24.088 -0.1546 -0.3509  0.0186
27632W        W70544   2.646  14.396  26.677 -0.0250 -0.1928 -0.1999
27633W        W70545   5.060  16.608  26.922  0.0989  0.2332  0.1857
27634W        W70546   6.609  16.194  27.178  0.2276 -0.1751 -0.3068
27635W        W70547   4.521  14.855  25.111 -0.0226  0.4100  0.1098
27636W        W70548   5.416  15.408  23.624 -0.0609  0.0490  0.1290
27637W        W70549   6.564  17.465  23.523  0.1626  0.0601  0.4980
27638W        W70550   4.235  15.850  25.912  0.0406 -0.0063 -0.0935
27639W        W70551   5.205  15.014  24.461 -0.2154 -0.1562 -0.0934
27640W        W70552   5.407  16.939  26.269  0.0199 -0.0407  0.0325
27641W        W70553   5.298  17.222  25.145  0.0866 -0.0716 -0.1084
27642W        W70554   6.708  16.826  28.250 -0.0429 -0.1351 -0.3044
27643W        W70555   4.254  16.665  24.140 -0.0399 -0.2486  0.2774
27644W        W70556   5.656  16.120  25.006 -0.2762  0.0757 -0.0965
27645W        W70557   6.271  17.813  28.368 -0.1106 -0.1504 -0.0101
27646W        W70558   7.008  17.902  26.350  0.0121  0.0521  0.0524
27647W        W70559   5.820  18.659  25.407  0.1169 -0.2005  0.0896
27648W        W70560   7.021  17.189  26.787  0.0988  0.3183  0.0373
27649W        W70561   3.726  14.301  25.827 -0.4473  0.2086 -0.2361
27650W        W70562   4.580  17.842  25.617  0.2305  0.1463  0.4098
27651W        W70563   4.611  17.045  25.011 -0.0539 -0.1689  0.2052
27652W        W70564   6.341  15.185  25.474  0.0713  0.3963 -0.3067
27653W        W70565   5.865  15.803  25.991 -0.0604 -0.1194 -0.0664
27654W        W70566   4.654  15.075  23.832  0.0037 -0.1986 -0.1156
27655W        W70567   4.845  19.577  24.977 -0.2299 -0.0928 -0.0429
27656W        W70568   5.751  16.846  25.952  0.0756  0.3038 -0.2141
27657W        W70569   5.579  18.362  30.771  0.2123  0.0133  0.2170
27658W        W70570   4.731  15.243  29.061  0.4187 -0.0430 -0.0894
27659W        W70571   7.100  15.694  26.212 -0.0422  0.0926 -0.0765
27660W        W70572   7.249  16.787  29.295 -0.0988  0.1014  0.1162
27661W        W70573   4.473  15.861  27.547 -0.0304 -0.0158  0.0217
27662W        W70574   5.295  18.925  29.269 -0.2316  0.2099 -0.0606
27663W        W70575   4.319  14.899  29.964 -0.1616  0.2940  0.1231
27664W        W70576   5.245  18.690  30.461  0.0996 -0.0747 -0.2792
27665W        W70577   6.934  17.423  29.966 -0.0939  0.4281 -0.0405
27666W        W70578   7.433  18.508  29.039 -0.4341  0.0566 -0.0175
27667W        W70579   5.013  16.094  30.671 -0.2606  0.0538 -0.3262
27668W        W70580   4.223  16.893   0.209 -0.2842  0.2704 -0.2603
27669W        W70581   4.818  14.871  28.056 -0.2723 -0.0238 -0.0344
27670W        W70582   4.380  14.349  29.282  0.0312  0.2861 -0.1256
27671W        W70583   6.385  16.706  30.293 -0.2178  0.0911  0.1509
27672W        W70584   4.717  17.139  27.633 -0.5010  0.4183  0.1753
27673W        W70585   4.440  14.827  29.386 -0.2367  0.0019  0.1371
27674W        W70586   5.400  15.282  29.490 -0.1180  0.0222  0.1797
27675W        W70587   4.668  15.953  28.387 -0.2676 -0.3850 -0.0986
27676W        W70588   4.691  14.655  30.339  0.1141  0.3504  0.0414
27677W        W70589   6.237  15.883   0.700 -0.0361 -0.0431 -0.1415
27678W        W70590   6.158  18.101  28.787  0.0246  0.2312  0.1837
27679W        W70591   4.964  16.937  26.482  0.0121  0.0903  0.0650
27680W        W70592   4.099  15.581  29.017 -0.1649  0.3471  0.0646
27681W        W70593   5.510  15.138  29.960  0.1171  0.2890  0.1356
27682W        W70594   6.680  14.858  29.446  0.0670  0.3816 -0.3005
27683W        W70595   6.488  15.456  28.227  0.1722 -0.2053 -0.1453
27684W        W70596   5.707  18.532  30.022  0.0146 -0.0582 -0.1002
27685W        W70597   5.687  19.116  30.220 -0.0517  0.0537  0.2698
27686W        W70598   7.418  15.668   0.717  0.1596  0.2335  0.0265
27687W        W70599   5.094  16.367  29.341  0.0201  0.1060 -0.0412
27688W        W70600   4.405  16.475  28.520  0.0959 -0.2379  0.3266
27689W        W70601   5.570  18.189  28.800  0.1326 -0.0431 -0.1802
27690W        W70602   6.902  16.526  29.607 -0.3008  0.0253 -0.4417
27691W        W70603   6.637  18.818  30.082 -0.1375  0.0996 -0.0618
27692W        W70604   4.756  18.902  31.138  0.2605 -0.2647  0.0638
27693W        W70605   3.699  19.114  27.552  0.1193  0.1932  0.3144
27694W        W70606   5.093  17.719  30.309  0.3201 -0.0650  0.2474
27695W        W70607   4.519  15.987  31.658 -0.0779  0.1487 -0.0126
27696W        W70608   5.333  14.351  31.815 -0.0265 -0.0457  0.2138
27697W        W70609   6.271  15.915  28.536 -0.1502 -0.1441  0.1174
27698W        W70610   4.172  17.130  26.716 -0.0886 -0.0364 -0.3790
27699W        W70611   7.232  16.949  29.833 -0.0842 -0.3076 -0.1398
27700W        W70612   5.590  17.119   0.198 -0.2379 -0.1744 -0.1671
27701W        W70613   5.249  16.635  27.927 -0.4554 -0.0330 -0.0634
27702W        W70614   8.134  14.774  31.703 -0.1186 -0.0687 -0.0722
27703W        W70615   4.311  17.222  28.036 -0.1401  0.1206  0.1268
27704W        W70616   7.879  15.459  27.434 -0.1919 -0.1540  0.3288
27705W        W70617   3.502  16.090  27.452 -0.0804 -0.2626  0.0284
27706W        W70618   5.807  14.891  28.325  0.2570 -0.1521  0.0015
27707W        W70619   5.590  15.272  28.090 -0.1105 -0.1210  0.0918
27708W        W70620   4.278  18.579  29.010  0.0280  0.2589  0.1758
27709W        W70621   5.716  15.301  29.101  0.0984 -0.2490  0.1831
27710W        W70622   6.131  16.549  31.397  0.0329  0.1724  0.1587
27711W        W70623   7.321  16.838  28.241 -0.3089  0.0703 -0.1918
27712W        W70624   6.051  16.092  29.601 -0.2405 -0.0519  0.1126
27713W        W70625   6.459  16.890  30.720  0.2446  0.0081  0.1105
27714W        W70626   4.710  14.772  30.851  0.0627 -0.2358 -0.1790
27715W        W70627   6.449  18.615  28.797 -0.4448  0.0013 -0.0056
27716W        W70628   6.626  19.071  28.651  0.2282  0.0816 -0.2935
27717W        W70629   6.001  18.338  29.684 -0.2991  0.2718 -0.0172
27718W        W70630   5.225  15.897  29.515  0.2548 -0.1673 -0.0501
27719W        W70631   4.220  14.820  30.450  0.2939 -0.3268  0.3360
27720W        W70632   5.276  15.597  29.075  0.1181  0.0398 -0.1615
27721W        W70633   4.927  17.131  28.077  0.0634 -0.0546  0.1459
27722W        W70634   7.685  16.340  30.597 -0.0094 -0.3348 -0.0301
27723W        W70635   4.534  17.517  31.541  0.2134 -0.0052  0.0375
27724W        W70636   6.396  14.600  27.671  0.2597 -0.2213 -0.0679
27725W        W70637   5.383  16.863  28.420  0.1349  0.2056  0.4000
27726W        W70638   7.188  18.645  31.341  0.2879  0.0957  0.3695
27727W        W70639   6.564  15.389  27.691 -0.0973 -0.1013 -0.0292
27728W        W70640   6.990  14.990  28.868  0.1785  0.1133 -0.1859
27729W        W70641   5.751  13.761  30.333 -0.1201  0.1994  0.0202
27730W        W70642   4.585  16.804  26.717 -0.3577 -0.0602  0.0371
27731W        W70643   4.581  16.320  27.454  0.0650  0.0199  0.0666
27732W        W70644   8.719  17.515  30.882  0.2468  0.1847 -0.0022
27733W        W70645   6.565  17.529  28.685  0.3067 -0.0893 -0.3368
27734W        W70646   6.022  16.462  29.908 -0.3074  0.1703 -0.5265
27735W        W70647   5.556  14.973  31.175  0.0780  0.0887  0.0479
27736W        W70648   5.463  18.015  31.099 -0.1448  0.0222 -0.3645
27737W        W70649   3.329  19.697  28.093 -0.1989 -0.1982 -0.1952
27738W        W70650   4.247  16.902  29.585  0.0424  0.2144 -0.0754
27739W        W70651   4.768  16.996  28.508  0.0678  0.1039 -0.0998
27740W        W70652   3.378  15.143  30.043 -0.0419  0.3262 -0.2311
27741W        W70653   4.679  16.813  29.914  0.1561 -0.0766 -0.1618
27742W        W70654   6.778  15.547  26.923 -0.4415  0.1403  0.2349
27743W        W70655   3.155  15.589  31.350 -0.0847 -0.2138  0.0204
27744W        W70656   6.434  14.871  28.366  0.2233 -0.1764  0.2901
27745W        W70657   3.959  16.768  28.823 -0.3368  0.1135  0.1860
27746W        W70658   8.196  17.894  30.049 -0.0189  0.4588 -0.0003
27747W        W70659   6.083  15.501  27.844 -0.0710  0.4699 -0.0309
27748W        W70660   6.710  15.949  28.038  0.0661 -0.1696  0.0679
27749W        W70661   4.059  15.153  30.874  0.4286  0.1479  0.0652
27750W        W70662   3.612  15.425  29.000  0.1637  0.2751  0.1443
27751W        W70663   5.224  13.994  31.020 -0.0030 -0.2896  0.1568
27752W        W70664   4.961  15.023  29.422  0.2043 -0.2093 -0.0327
27753W        W70665   5.938  17.190  31.411  0.0133  0.1959  0.3313
27754W        W70666   4.945  15.497  29.398 -0.2562 -0.1386 -0.2773
27755W        W70667   6.796  14.531  29.033 -0.0590  0.4236 -0.0777
27756W        W70668   5.061  15.403  28.094  0.1132 -0.1755  0.0789
27757W        W70669   4.609  16.758  27.935 -0.0146 -0.3089  0.3332
27758W        W70670   6.590  14.220  30.198 -0.1235 -0.0014  0.1280
27759W        W70671   6.385  18.837  28.260 -0.0548 -0.0858  0.0243
27760W        W70672   6.283  19.109  30.301  0.0932 -0.1257  0.2453
27761W        W70673   7.010  19.073  29.184  0.1905  0.0960 -0.0119
27762W        W70674   5.240  15.532  31.199 -0.1923 -0.4409 -0.0775
27763W        W70675   4.505  14.557  27.138  0.0615  0.0778  0.2675
27764W        W70676   4.382  17.287  28.501  0.0633 -0.2200 -0.3472
27765W        W70677   5.291  17.334  29.643 -0.3543  0.0533  0.2337
27766W        W70678   5.272  14.857  28.271  0.0212  0.1265  0.0716
27767W        W70679   8.031  18.851  29.540 -0.0600  0.0883 -0.1364
27768W        W70680   5.081  16.156  28.114  0.1591  0.0842  0.2806
27769W        W70681   3.904  16.834  29.969 -0.1732  0.0368 -0.1064
27770W        W70682   7.158  14.963  31.906  0.1642  0.0238 -0.2159
27771W        W70683   6.043  16.111  29.097  0.1760  0.4156 -0.1306
27772W        W70684   6.724  16.772  29.193 -0.0411 -0.1955  0.1450
27773W        W70685   4.396  16.621  26.322  0.2011 -0.1021 -0.2048
27774W        W70686   6.171  17.291  30.953 -0.0944 -0.0814  0.1408
27775W        W70687   5.082  17.973  27.551  0.0509 -0.0760  0.2257
27776W        W70688   4.348  16.034  28.795  0.0891  0.1286  0.0047
27777W        W70689   5.678  18.856  29.577  0.0134  0.2296 -0.1749
27778W        W70690   7.073  15.237  29.280  0.0674  0.1139 -0.1345
27779W        W70691   3.694  15.186  30.455  0.1248 -0.2549 -0.0240
27780W        W70692   5.007  15.157  30.899 -0.0231 -0.1275 -0.3471
27781W        W70693   3.997  16.103  28.446 -0.1274  0.2255 -0.0292
27782W        W70694   4.121  16.608  30.680 -0.3056  0.1067 -0.0486
27783W        W70695   5.159  12.943  29.633 -0.0579  0.1324 -0.1478
27784W        W70696   6.312  14.086  27.155 -0.0465  0.0198  0.5510
27785W        W70697   5.130  16.511  30.381 -0.3685 -0.1816  0.2879
27786W        W70698   7.566  17.814  29.111 -0.1208  0.1682  0.0508
27787W        W70699   6.288  16.701  26.725 -0.1390 -0.2014  0.3796
27788W        W70700   5.929  16.356  27.665 -0.1435 -0.1209  0.0986
27789W        W70701   4.551  17.431  30.995  0.3018 -0.1130 -0.0513
27790W        W70702   4.746  16.417  28.892 -0.0774  0.0134  0.1475
27791W        W70703   6.519  17.483  29.599  0.1865 -0.0207 -0.0918
27792W        W70704   5.613  16.269  27.262 -0.0917 -0.0741 -0.0440
27793W        W70705   7.136  18.270  29.462  0.3563  0.2096  0.0150
27794W        W70706   3.781  16.887  29.312 -0.2289 -0.1782 -0.0861
27795W        W70707   5.513  17.320  31.588  0.2977  0.3007 -0.2031
27796W        W70708   5.869  18.608  28.814  0.1729 -0.2149  0.3004
27797W        W70709   4.905  13.672  30.727  0.1746  0.1747 -0.2097
27798W        W70710   6.129  16.077  27.260 -0.1685 -0.2998 -0.1240
27799W        W70711   5.737  14.927  29.538 -0.1348 -0.1009  0.0511
27800W        W70712   3.812  18.550  27.097 -0.0475  0.1215  0.2431
27801W        W70713   6.808  15.357  29.731  0.0141 -0.1007 -0.0437
27802W        W70714   5.255  15.265  30.432 -0.1432 -0.0954 -0.0573
27803W        W70715   6.186  14.938  30.263  0.2583 -0.1231  0.1146
27804W        W70716   6.666  16.359  30.475  0.3903 -0.4378 -0.2059
27805W        W70717   6.798  16.208  27.606 -0.0864 -0.1420  0.2322
27806W        W70718   7.649  17.056  29.493 -0.1253 -0.2560 -0.1092
27807W        W70719   4.698  15.760  29.021 -0.1216 -0.1304 -0.1239
27808W        W70720   4.685  14.107  31.017  0.2224 -0.3857  0.3964
27809W        W70721   3.958  16.110  30.547 -0.1330  0.0434 -0.3480
27810W        W70722   4.030  15.874  31.099  0.3560 -0.0368 -0.1176
27811W        W70723   5.773  17.608  31.266  0.0116  0.0020  0.4462
27812W        W70724   6.718  17.928  29.521  0.0503 -0.1117 -0.1705
27813W        W70725   5.939  15.183  31.400  0.1302 -0.0724  0.0088
27814W        W70726   6.029  14.993  27.874  0.0607  0.0065  0.0176
27815W        W70727   5.166  17.201  28.858 -0.0084 -0.0288  0.1297
27816W        W70728   3.829  16.576  26.626 -0.4889 -0.1355 -0.0448
27817W        W70729   4.500  14.346  29.982 -0.0865 -0.1473 -0.0795
27818W        W70730   6.211  16.808  29.342 -0.1046 -0.1506 -0.0855
27819W        W70731   4.905  16.536  28.399 -0.0075  0.0435  0.0680
27820W        W70732   5.812  16.310  30.913 -0.0371  0.0762  0.1534
27821W        W70733   5.043  15.965  26.497  0.2953 -0.2345 -0.0213
27822W        W70734   7.327  13.673  30.157 -0.1831  0.0582  0.0074
27823W        W70735   3.282  18.043  28.425 -0.0833 -0.3308 -0.0388
27824W        W70736   3.698  14.215  28.141  0.0661 -0.0157 -0.0992
27825W        W70737   3.381  15.290  28.063  0.0740  0.0566 -0.0719
27826W        W70738   7.168  15.644  28.179  0.1566 -0.2115 -0.2032
27827W        W70739   6.582  16.049  28.980  0.3519 -0.0315 -0.0205
27828W        W70740   4.250  14.021  29.678 -0.0785  0.0553 -0.0847
27829W        W70741   5.561  15.377  30.809  0.0227 -0.2434 -0.0295
27830W        W70742   4.051  17.680  31.366 -0.0231  0.1575  0.2294
27831W        W70743   5.533  16.675  29.991  0.0892  0.1204  0.2355
27832W        W70744   7.002  17.113  28.962  0.1724  0.2424  0.0459
27833W        W70745   6.283  18.937  30.848  0.1578 -0.0046 -0.0330
27834W        W70746   3.423  17.800   0.132  0.3715 -0.2377 -0.2042
27835W        W70747   3.153  15.452  27.209 -0.2297  0.2163  0.0189
27836W        W70748   6.028  15.890  30.119  0.1075 -0.0431 -0.0951
27837W        W70749   6.557  15.350  29.262 -0.0054 -0.0417 -0.5004
27838W        W70750   3.979  17.207  27.285  0.2113 -0.0010 -0.0282
27839W        W70751   4.640  18.309  29.320 -0.0520  0.2586  0.1844
27840W        W70752   5.499  17.230  28.083  0.1303 -0.2417  0.0633
27841W        W70753   5.174  16.955  29.370  0.1799 -0.0755 -0.0797
27842W        W70754   4.390  14.390  30.652 -0.0470 -0.0583  0.1968
27843W        W70755   6.086  16.323  30.418  0.3554 -0.1286  0.1223
27844W        W70756   5.796  14.304  29.580 -0.3919 -0.0587  0.1831
27845W        W70757   5.761  15.799  28.640 -0.1952  0.2316 -0.1599
27846W        W70758   5.926  14.665  29.165 -0.1492  0.4265 -0.0775
27847W        W70759   6.818  16.644  30.090 -0.0692 -0.1941 -0.1151
27848W        W70760   5.372  14.820  30.736  0.0457  0.0565 -0.3156
27849W        W70761   3.340  16.600  31.820  0.0300  0.0775 -0.0660
27850W        W70762   6.163  14.341  31.133  0.1655 -0.3842  0.3004
27851W        W70763   8.389  17.452  27.096  0.4382 -0.1322  0.0992
27852W        W70764   6.462  16.173  30.052  0.2724 -0.1790 -0.1026
27853W        W70765   3.680  16.427  28.122  0.0514 -0.2200  0.0367
27854W        W70766   4.258  16.503  29.137  0.1695  0.1314  0.0778
27855W        W70767   5.370  16.092  28.973  0.0557 -0.4195 -0.0096
27856W        W70768   5.631  14.167  30.032  0.3411  0.0992  0.2174
27857W        W70769   3.829  18.612  30.232 -0.1536  0.0617 -0.0617
27858W        W70770   5.256  18.575  27.833 -0.2286 -0.1903 -0.0455
27859W        W70771   5.522  16.879  31.278  0.1818  0.1288  0.0426
27860W        W70772   4.946  15.154  28.592  0.0823  0.0729  0.1555
27861W        W70773   7.621  18.612  28.239  0.3196 -0.2560  0.1482
27862W        W70774   5.594  16.900  29.561  0.0999 -0.0047 -0.2138
27863W        W70775   7.009  14.504  30.097 -0.1443 -0.1088  0.1023
27864W        W70776   6.449  16.581  27.798 -0.2698  0.0277  0.0012
27865W        W70777   7.231  14.875  30.393  0.1229 -0.1697 -0.0190
27866W        W70778   5.697  14.463  30.442  0.1375 -0.2361  0.0090
27867W        W70779   5.562  18.182  29.565  0.0583 -0.3806 -0.3711
27868W        W70780   4.253  14.204  31.257 -0.0358  0.1706  0.1370
27869W        W70781   6.168  17.755  30.252 -0.2365 -0.0485  0.1001
27870W        W70782   3.770  16.316  31.044  0.3936 -0.0190 -0.2319
27871W        W70783   5.162  14.585  28.683 -0.1747  0.0634  0.2112
27872W        W70784   3.985  12.840  28.595  0.2399  0.1047  0.0067
27873W        W70785   3.536  17.157  30.133  0.4259 -0.0522  0.1724
27874W        W70786   6.042  17.282  29.334  0.3257 -0.1912 -0.2832
27875W        W70787   5.984  17.402  28.239 -0.1243  0.0202  0.0387
27876W        W70788   7.584  15.302  28.246  0.4372 -0.1920 -0.1406
27877W        W70789   5.538  16.185  29.846  0.4610 -0.1243 -0.2489
27878W        W70790   8.058  17.383  29.808 -0.1628 -0.1988  0.1633
27879W        W70791   7.444  17.164  28.708 -0.1891 -0.0244  0.0196
27880W        W70792   5.668  17.188  30.815  0.0671  0.0919  0.0278
27881W        W70793   5.774  14.402  31.578 -0.1694 -0.1723  0.1160
27882W        W70794   7.412  17.672  30.160  0.0798  0.0713 -0.1003
27883W        W70795   6.213  14.636  29.592  0.1888 -0.0508 -0.1117
27884W        W70796   5.006  14.434  30.687 -0.1369 -0.0448  0.1682
27885W        W70797   6.698  15.456  30.683  0.1450 -0.0642  0.1813
27886W        W70798   4.875  16.582  30.821  0.1007 -0.0473 -0.1037
27887W        W70799   2.924  14.715  31.009 -0.0244 -0.0431 -0.0389
27888W        W70800   5.965  17.326  31.888 -0.2182 -0.0110 -0.1280
27889W        W70801   6.619  18.399  29.752  0.0153 -0.2055 -0.0290
27890W        W70802   7.498  15.472  27.755 -0.0655  0.0757 -0.0093
27891W        W70803   7.370  16.292  29.198 -0.3327  0.2034 -0.0026
27892W        W70804   6.453  16.362  29.453 -0.3859  0.1203  0.1339
27893W        W70805   4.467  15.465  28.577  0.1523 -0.1525  0.1144
27894W        W70806   7.025  16.733  30.574 -0.0177 -0.0799  0.0611
27895W        W70807   6.072  15.900  28.109  0.1312  0.2015 -0.0180
27896W        W70808   5.007  16.203  31.689  0.0221  0.0712 -0.0741
27897W        W70809   6.838  18.771  29.517 -0.2339 -0.0569  0.1368
27898W        W70810   6.449  17.862  29.054  0.0260  0.2736  0.0662
27899W        W70811   6.074  15.084  27.054  0.2040  0.0448  0.0733
27900W        W70812   3.779  15.926  27.897 -0.1041  0.0591  0.2031
27901W        W70813   4.077  17.663  30.723  0.0516  0.3194 -0.2376
27902W        W70814   3.511  14.367  26.443  0.1951  0.0980  0.1882
27903W        W70815   4.044  16.308  27.324 -0.2620  0.2124  0.0698
27904W        W70816   7.324  17.222  30.400 -0.2600  0.0790 -0.0617
27905W        W70817   6.747  17.120  30.396  0.2308  0.2426  0.2496
27906W        W70818   6.021  14.081  26.768  0.2094 -0.0361  0.1918
27907W        W70819   6.461  15.656  29.960 -0.0893 -0.3170 -0.0884
27908W        W70820   5.265  17.702  28.774 -0.1149 -0.2681  0.0153
27909W        W70821   4.692  15.275  29.773 -0.0758 -0.1042 -0.3570
27910W        W70822   5.059  17.522  29.214 -0.2254 -0.1452  0.3525
27911W        W70823   2.704  16.153  29.544 -0.1168 -0.0624  0.0710
27912W        W70824   7.006  16.709  28.700  0.0304 -0.0081  0.0920
27913W        W70825   6.655  13.226  29.650 -0.0302  0.2468  0.0607
27914W        W70826   6.904  16.001  29.846  0.1441 -0.2269  0.0850
27915W        W70827   6.430  17.321  30.070  0.3428 -0.2703  0.0136
27916W        W70828   6.868  14.917  29.919 -0.3622  0.0709 -0.0306
27917W        W70829   5.033  17.106  30.964  0.3046  0.1774  0.0004
27918W        W70830   4.509  16.902  30.831 -0.2160 -0.2231 -0.1483
27919W        W70831   5.264  16.358  31.030  0.2745  0.0063  0.0223
27920W        W70832   6.237  18.747  29.775  0.2860  0.2882  0.1141
27921W        W70833   4.719  16.664  29.390  0.2242 -0.1772 -0.1139
27922W        W70834   4.078  13.685  31.312  0.0976  0.0479 -0.1615
27923W        W70835   4.444  16.200  30.897 -0.0580 -0.1832  0.2493
27924W        W70836   6.066  16.980  29.994 -0.2938 -0.2468 -0.1646
27925W        W70837   5.812  14.704  30.014 -0.3068 -0.2678 -0.0123
27926W        W70838   5.912  18.128  29.217 -0.1397 -0.0251  0.4126
27927W        W70839   4.513  18.981   0.155 -0.2127 -0.0785  0.0081
27928W        W70840   4.094  16.412  29.679 -0.1492  0.0532  0.0912
27929W        W70841   4.739  17.649  28.070  0.1127  0.1418 -0.0623
27930W        W70842   5.824  17.768  28.513  0.1661  0.0043 -0.0624
27931W        W70843   5.546  17.447  29.219  0.0162  0.0271 -0.0851
27932W        W70844   6.398  19.719  29.366 -0.3139  0.1955 -0.0257
27933W        W70845   6.656  16.407  28.569  0.0637 -0.2258 -0.0924
27934W        W70846   4.782  17.593  28.753  0.0974  0.1109  0.0765
27935W        W70847   3.975  17.776  27.272 -0.1998 -0.1279 -0.0263
27936W        W70848   7.223  17.804  29.539 -0.1117  0.3373 -0.2331
27937W        W70849   5.812  18.020  29.999  0.1422 -0.0094 -0.1560
27938W        W70850   7.823  17.327  30.759 -0.0926  0.2420  0.2791
27939W        W70851   6.408  15.005  27.398  0.2434 -0.1041 -0.1348
27940W        W70852   6.451  18.999  29.131 -0.0079  0.2067 -0.0743
27941W        W70853   7.371  15.253  29.961 -0.1827 -0.1327 -0.2468
27942W        W70854   8.834  17.618  30.392  0.1275  0.1528  0.1293
27943W        W70855   5.376  15.882  30.891  0.0234  0.0446 -0.0701
27944W        W70856   5.735  15.258  27.470 -0.2771 -0.2828 -0.0100
27945W        W70857   4.607  16.390  30.370  0.4260 -0.3803  0.1338
27946W        W70858   5.537  15.670  30.303 -0.1666  0.3735  0.1380
27947W        W70859   4.591  18.451  30.990  0.0941  0.2595 -0.1146
27948W        W70860   7.247  18.304  30.949 -0.2224  0.2798 -0.1074
27949W        W70861   4.075  16.056  29.223 -0.1358  0.2137  0.1482
27950W        W70862   5.946  16.266  28.617 -0.1983 -0.1060 -0.0246
27951W        W70863   6.338  13.817  29.003 -0.0894  0.1177 -0.2483
27952W        W70864   6.109  17.243  28.745 -0.1821 -0.0453 -0.4018
27953W        W70865   6.178  15.612  29.042 -0.1950 -0.0115 -0.1686
27954W        W70866   5.591  18.519  29.205  0.0496  0.0948  0.0496
27955W        W70867   5.983  16.800  30.956  0.0367  0.4646  0.2071
27956W        W70868   5.783  16.761  30.442 -0.6116 -0.0952 -0.0352
27957W        W70869   4.202  14.591  28.301  0.2985  0.0753  0.3202
27958W        W70870   6.487  15.818  29.488  0.0380  0.1334  0.0290
27959W        W70871   4.874  14.780  29.876  0.0427  0.0443 -0.1519
27960W        W70872   6.997  14.070  30.410  0.0249 -0.0227 -0.1883
27961W        W70873   4.189  15.876  29.676 -0.0090  0.0915  0.3057
27962W        W70874   6.936  16.091  29.348  0.2552  0.2644 -0.2165
27963W        W70875   4.851  15.110  30.189  0.0647 -0.0747 -0.0061
27964W        W70876   5.107  15.475  29.941 -0.2849  0.1864  0.0766
27965W        W70877   7.020  15.344  27.804 -0.1498 -0.2722 -0.2056
27966W        W70878   6.858  14.922  30.871  0.3381 -0.1785 -0.0867
27967W        W70879   6.966  17.073  27.825 -0.0782  0.0343 -0.0209
27968W        W70880   5.023  18.174  30.760 -0.2097  0.0177  0.0243
27969W        W70881   4.869  14.400  29.475 -0.1646  0.2236 -0.1355
27970W        W70882   6.354  16.076  27.705  0.1751  0.0812  0.0196
27971W        W70883   5.100  16.035  30.102  0.2509 -0.2939  0.3267
27972W        W70884   3.475  15.230  29.527 -0.0679  0.2609  0.2331
27973W        W70885   7.440  17.703  30.703  0.0081  0.0288 -0.2127
27974W        W70886   3.858  15.380  28.081  0.2695 -0.0750  0.2189
27975W        W70887   7.206  16.383  27.165  0.2138  0.1463 -0.0018
27976W        W70888   6.545  16.887  29.762  0.2743 -0.1359 -0.1107
27977W        W70889   5.495  18.248  28.309  0.0037  0.0380 -0.1192
27978W        W70890   6.495  18.414  29.256  0.0193 -0.2051 -0.2128
27979W        W70891   6.797  17.244  30.939 -0.0772 -0.0025 -0.1256
27980W        W70892   4.271  15.046  28.926 -0.2302  0.4464  0.2386
27981W        W70893   6.014  19.497  30.191 -0.0480  0.0502  0.2071
27982W        W70894   8.441  17.394  30.201 -0.0526 -0.2338  0.4032
27983W        W70895   6.141  15.079  29.303  0.1509  0.1860  0.2858
27984W        W70896   5.095  16.493  29.813 -0.1706  0.0849 -0.1227
27985W        W70897   3.956  17.828  29.661  0.0371 -0.2050 -0.3428
27986W        W70898   7.167  15.677  30.669 -0.1473  0.0348 -0.1327
27987W        W70899   5.806  15.015  30.533  0.2802  0.1143 -0.0573
27988W        W70900   5.550  18.197  27.786 -0.2130  0.1426  0.0881
27989W        W70901   6.038  13.490   0.191 -0.0383  0.0219 -0.0593
27990W        W70902   6.453  17.466  30.600 -0.0625 -0.0580 -0.0826
27991W        W70903   5.104  18.140  29.902  0.4136 -0.3866  0.1704
27992W        W70904   4.160  16.751  28.166 -0.1748  0.0944 -0.1519
27993W        W70905   5.431  16.759  30.793  0.3171  0.0305  0.0744
27994W        W70906   5.261  16.649  28.908  0.2412 -0.2084 -0.0795
27995W        W70907   6.678  17.982  28.587  0.1300 -0.2706  0.0608
27996W        W70908   6.323  18.223  30.066  0.1892 -0.0929  0.1774
27997W        W70909   5.685  15.790  29.265  0.0212  0.1000 -0.3098
27998W        W70910   8.824  17.832  29.012 -0.1762 -0.3596 -0.3095
27999W        W70911   4.718  15.809  29.731 -0.2011 -0.0114  0.0242
28000W        W70912   5.996  15.367  29.970 -0.2996  0.1600  0.2414
28001W        W70913   5.868  14.716  26.779 -0.2225 -0.1542 -0.0778
28002W        W70914   4.694  16.529  31.840 -0.1130 -0.2720 -0.3142
28003W        W70915   4.945  17.166  27.055 -0.1296  0.1046 -0.0370
28004W        W70916   4.522  17.836  27.076 -0.1240  0.2419 -0.0118
28005W        W70917   4.838  17.049  30.463 -0.0943 -0.3169 -0.0868
28006W        W70918   5.697  15.693  29.757  0.2304  0.0121 -0.1907
28007W        W70919   3.633  15.361  31.047 -0.2004 -0.0179 -0.0134
28008W        W70920   3.593  17.649  28.790 -0.2350 -0.2818 -0.1642
28009W        W70921   6.574  15.431  28.746  0.3840  0.1898  0.0272
28010W        W70922   8.243  16.662  29.079  0.1035 -0.0899  0.2013
28011W        W70923   4.776  14.761  29.028  0.3605  0.0894  0.0165
28012W        W70924   3.864  14.631  29.204 -0.3338  0.2204  0.0237
28013W        W70925   6.961  17.644  29.183 -0.0119 -0.4070  0.0692
28014W        W70926   6.235  17.919  29.616 -0.2520 -0.1659  0.1109
28015W        W70927   5.588  14.898  28.766 -0.2108 -0.0141  0.6118
28016W        W70928   6.817  18.210  31.216  0.1931  0.3112 -0.1648
28017W        W70929   3.258  17.435  27.709  0.0463 -0.1542 -0.0072
28018W        W70930   5.084  15.832   0.590 -0.3480 -0.0892  0.1487
28019W        W70931   5.813  16.101  31.360  0.0170  0.3299  0.1947
28020W        W70932   4.771  15.881  27.095  0.0026 -0.1066  0.0432
28021W        W70933   5.629  16.294  29.347 -0.1181  0.2655 -0.2434
28022W        W70934   4.629  16.973  29.007 -0.1188 -0.1725 -0.2552
28023W        W70935   7.792  18.728  28.742 -0.2753  0.4612 -0.0602
28024W        W70936   7.841  17.533  30.304 -0.3326  0.0010  0.2095
28025W        W70937   4.503  17.396  30.530  0.0892  0.2517  0.0628
28026W        W70938   4.757  12.195  30.790 -0.1812  0.0132 -0.0959
28027W        W70939   5.705  17.026  29.015 -0.0746  0.3782  0.0093
28028W        W70940   5.986  17.462  29.898  0.0272  0.3677  0.3101
28029W        W70941   7.893  17.083  29.065  0.3278  0.1037 -0.2982
28030W        W70942   6.502  14.329  28.609 -0.0563 -0.0915  0.0520
28031W        W70943   6.914  15.203  28.323 -0.1470 -0.0353  0.0465
28032W        W70944   3.377  14.551  30.246  0.0313  0.2576 -0.2005
28033W        W70945   3.882  15.831  30.162  0.3238 -0.2155 -0.3663
28034W        W70946   7.451  15.975  30.991  0.2361  0.2528  0.2443
28035W        W70947   5.074  15.793  28.629  0.2055 -0.0742  0.1832
28036W        W70948   6.114  14.525  28.093  0.0808  0.1044 -0.0345
28037W        W70949   5.957  17.675  29.048 -0.1122  0.0644 -0.0567
28038W        W70950   4.583  16.123  29.370  0.0270 -0.1033 -0.0101
28039W        W70951   5.427  16.338  28.450  0.1732  0.1816  0.2905
28040W        W70952   5.090  16.019   0.165  0.1258 -0.0406 -0.0355
28041W        W70953   6.525  17.257  29.198  0.0443  0.0298  0.0743
28042W        W70954   4.930  15.622  31.605 -0.1678 -0.1381 -0.2042
28043W        W70955   2.636  15.297  27.425 -0.4249  0.1363  0.0949
28044W        W70956   7.816  17.582  28.790  0.0885  0.0818  0.1747
28045W        W70957   6.584  17.782  29.973 -0.1427  0.0592 -0.1666
28046W        W70958   5.633  17.611  30.326 -0.2591  0.3180  0.2040
28047W        W70959   5.403  17.737  29.889 -0.3423 -0.2772  0.3817
28048W        W70960   7.810  18.139  30.254  0.0234 -0.0776  0.1064
28049W        W70961   3.901  15.608  30.637  0.4029 -0.0554  0.1440
28050W        W70962   6.016  15.336  28.332  0.1147 -0.0333  0.4788
28051W        W70963   6.296  16.533  28.914  0.0736 -0.1828 -0.5045
28052W        W70964   7.259  15.774  30.182 -0.1341  0.0507 -0.2204
28053W        W70965   6.111  15.481  29.534  0.0526  0.1074  0.0263
28054W        W70966   6.715  14.951  27.928  0.3445 -0.0765 -0.0685
28055W        W70967   5.972  18.079  31.199  0.2023  0.0886 -0.1256
28056W        W70968   5.574  17.172  30.129 -0.0278 -0.1973  0.1231
28057W        W70969   7.130  14.881  31.358 -0.4094 -0.3440  0.1378
28058W        W70970   5.561  17.644  31.971  0.1121  0.4584  0.2360
28059W        W70971   4.461  15.600  31.273 -0.0909  0.3871  0.0712
28060W        W70972   3.966  17.176  31.665 -0.0796 -0.2730 -0.0037
28061W        W70973   5.418  18.027  31.690  0.0694 -0.0244  0.0977
28062W        W70974   4.121  16.841   0.730  0.1343  0.1617 -0.1260
28063W        W70975   6.349  14.223   0.873  0.4485  0.1241 -0.2543
28064W        W70976   5.347  15.152   0.153  0.0168  0.0601 -0.0104
28065W        W70977   6.271  14.468  30.561  0.0067 -0.2948 -0.2856
28066W        W70978   7.381  17.253  30.984  0.0825  0.2321 -0.0387
28067W        W70979   6.935  17.716  31.214  0.0554 -0.0291 -0.1434
28068W        W70980   6.188  13.849  30.973 -0.0019 -0.1791  0.0147
28069W        W70981   7.385  16.691  30.253 -0.3802 -0.0626  0.0010
28070W        W70982   4.851  16.023  31.201  0.1322  0.0166  0.0989
28071W        W70983   6.908  15.877   0.250 -0.2346  0.0919 -0.2515
28072W        W70984   5.330  17.699  30.765  0.4713 -0.0577  0.1078
28073W        W70985   4.980  17.723  31.123  0.0195 -0.1235 -0.0232
28074W        W70986   5.199  16.831  31.711 -0.3409 -0.0601 -0.1636
28075W        W70987   4.123  12.668  31.009 -0.2670  0.0061 -0.2352
28076W        W70988   4.966  15.024  31.521 -0.0211  0.1411  0.1791
28077W        W70989   3.963  15.034  31.370  0.2893  0.2558  0.1490
28078W        W70990   4.285  17.346  31.948  0.1844  0.2255 -0.0927
28079W        W70991   6.694  15.020  31.607  0.0244  0.2253  0.0235
28080W        W70992   6.264  15.113  31.791  0.4218  0.1038 -0.3213
28081W        W70993   6.808  15.462   1.137 -0.0942  0.0097 -0.1403
28082W        W70994   4.618  14.542   1.123 -0.0640 -0.5212  0.0648
28083W        W70995   4.068  16.758  31.211 -0.3091  0.0024  0.1408
28084W        W70996   4.056  18.211   0.235 -0.3212 -0.1127 -0.4713
28085W        W70997   4.570  16.286  29.900 -0.0185 -0.0896  0.0737
28086W        W70998   4.949  16.592  31.367 -0.0681 -0.0843  0.3273
28087W        W70999   4.573  17.020  31.360 -0.0116 -0.1425  0.2086
28088W        W71000   5.632  16.182  31.906 -0.3131  0.0121 -0.0250
28089W        W71001   6.312  15.603   0.036  0.1256 -0.0238  0.0687
28090W        W71002   7.072  15.321  31.054  0.1333 -0.0464  0.0508
28091W        W71003   3.093  16.986  31.982 -0.2659 -0.0641  0.0088
28092W        W71004   4.761  16.692   0.439  0.2564 -0.3064  0.2013
28093W        W71005   4.603  14.636  31.330 -0.1558  0.2996 -0.2808
28094W        W71006   6.188  16.048  31.759 -0.1462 -0.1240 -0.2038
28095W        W71007   6.464  15.209  31.179  0.0466  0.1248  0.1605
28096W        W71008   6.210  16.017  31.113  0.3158  0.0353  0.0339
28097W        W71009   8.201  15.889  31.680  0.1513  0.1022 -0.0160
28098W        W71010   6.971  14.701   0.370 -0.2156  0.2391  0.0287
28099W        W71011   5.686  13.962  30.817  0.0556 -0.0537  0.0682
28100W        W71012   5.136  19.396   0.687  0.0228  0.1343  0.1177
28101W        W71013   4.011  16.257   1.081 -0.3647  0.0334  0.1181
28102W        W71014   5.569  16.965   0.650 -0.0346 -0.1811  0.4100
28103W        W71015   7.324  14.525  31.756  0.1518  0.0369 -0.1288
28104W        W71016   7.025  16.814  31.390 -0.0325  0.1425  0.0557
28105W        W71017   6.946  15.736   0.724 -0.2061 -0.3664  0.0528
28106W        W71018   4.033  17.207  28.869  0.0972  0.1499  0.1062
28107W        W71019   6.030  18.356   0.959 -0.0773 -0.1582  0.1871
28108W        W71020   6.825  14.477  30.603  0.1047  0.1572 -0.2374
28109W        W71021   4.891  14.525  31.832  0.0082 -0.1026  0.0957
28110W        W71022   5.989  17.201  30.420 -0.3252 -0.0671  0.1313
28111W        W71023   4.681  17.028   0.002 -0.0225  0.1516  0.0459
28112W        W71024   6.717  15.689  31.123 -0.1143  0.0947  0.0500
28113W        W71025   6.259  16.546  31.874 -0.1361  0.1307  0.1679
28114W        W71026   4.474  17.973  31.252 -0.0892 -0.2825  0.2308
28115W        W71027   5.325  17.396  31.161  0.0150  0.0841  0.0008
28116W        W71028   4.534  17.121   0.456 -0.2792 -0.2191  0.0213
28117W        W71029   3.839  15.424   1.247  0.0357 -0.3337 -0.0205
28118W        W71030   4.092  17.284   1.549  0.0854 -0.3656  0.1562
28119W        W71031   3.475  17.200  31.760 -0.1559  0.0657 -0.1687
28120W        W71032   4.202  14.649  31.022 -0.3398 -0.1835  0.1358
28121W        W71033   6.362  18.727   0.274 -0.1705  0.1746  0.0917
28122W        W71034   7.186  16.350  31.404  0.1939  0.0176  0.0373
28123W        W71035   6.357  17.609  31.968 -0.0939 -0.0713 -0.1475
28124W        W71036   5.937  20.860  19.486 -0.2847  0.3402 -0.1904
28125W        W71037   2.780  20.314  17.284 -0.1657  0.1338  0.1940
28126W        W71038   6.558  20.732  15.804  0.2093  0.2023  0.1608
28127W        W71039   5.885  19.941  17.941  0.3519 -0.0864  0.2153
28128W        W71040   2.672  18.802  19.472  0.4382 -0.1735  0.0602
28129W        W71041   6.130  21.301  17.748  0.2850  0.0180  0.0587
28130W        W71042   3.442  18.621  19.204  0.1127 -0.3371 -0.1017
28131W        W71043   6.213  20.714  18.532 -0.1551 -0.1273  0.3142
28132W        W71044   6.345  21.614  20.090  0.3371  0.0340 -0.1228
28133W        W71045   4.639  20.579  16.044  0.1183 -0.1896 -0.1076
28134W        W71046   3.769  19.780  18.415  0.2045 -0.0965  0.2047
28135W        W71047   3.896  21.233  19.458 -0.1136  0.5103  0.0061
28136W        W71048   3.662  18.431  16.809  0.1482 -0.0344 -0.0696
28137W        W71049   3.074  19.443  18.769 -0.1459 -0.3412 -0.1073
28138W        W71050   5.297  19.979  19.487 -0.1529 -0.1446 -0.1031
28139W        W71051   4.302  21.283  17.814  0.1349  0.2975  0.1048
28140W        W71052   3.548  19.352  18.673 -0.0921  0.3325 -0.3464
28141W        W71053   5.096  19.571  17.122  0.0263 -0.2247 -0.3026
28142W        W71054   3.933  21.877  16.792  0.1104 -0.1810 -0.0483
28143W        W71055   5.595  19.439  18.025 -0.2091 -0.1457  0.0450
28144W        W71056   5.306  18.820  19.291 -0.0792  0.0204  0.3700
28145W        W71057   5.588  21.706  17.114 -0.3565  0.0815 -0.0092
28146W        W71058   3.034  18.939  16.309  0.0464 -0.0666  0.0108
28147W        W71059   2.523  19.691  18.529 -0.1425 -0.0011  0.1270
28148W        W71060   3.496  19.433  17.605 -0.1819  0.1841 -0.3126
28149W        W71061   6.226  20.264  17.454  0.0035  0.2052  0.2870
28150W        W71062   6.564  19.500  18.825  0.0461  0.0721 -0.2535
28151W        W71063   5.529  20.727  18.000 -0.2087  0.1999  0.1199
28152W        W71064   4.991  21.417  18.346  0.0579 -0.0398 -0.1424
28153W        W71065   4.891  17.927  19.782  0.0864 -0.0597 -0.0565
28154W        W71066   4.877  21.363  17.776 -0.1193  0.1080 -0.3602
28155W        W71067   4.797  22.616  19.384 -0.0274  0.1589  0.0057
28156W        W71068   5.134  21.494  17.311 -0.1758 -0.0740  0.1077
28157W        W71069   7.395  20.494  16.975 -0.1039  0.0576  0.0047
28158W        W71070   5.937  21.559  18.283 -0.3850  0.4234 -0.0132
28159W        W71071   4.475  22.191  19.201  0.0601  0.1752 -0.0058
28160W        W71072   4.697  21.469  16.982  0.1769  0.2558  0.0124
28161W        W71073   6.465  23.429  19.409 -0.0009  0.1403  0.1545
28162W        W71074   5.361  21.168  20.091  0.0318 -0.1322 -0.0619
28163W        W71075   5.062  20.211  16.837 -0.1228  0.2766  0.3374
28164W        W71076   4.936  20.975  17.323 -0.0135 -0.1061  0.4083
28165W        W71077   5.000  22.145  18.308 -0.1825  0.1883 -0.0439
28166W        W71078   5.219  20.043  17.260 -0.0138 -0.1110 -0.1752
28167W        W71079   6.533  21.839  20.736 -0.1554 -0.0770 -0.0928
28168W        W71080   3.340  21.189  19.533 -0.1235  0.1662  0.1051
28169W        W71081   4.341  18.765  18.852  0.0041 -0.2671  0.0072
28170W        W71082   4.721  21.924  16.214  0.0153  0.1088  0.0105
28171W        W71083   5.801  21.072  15.905 -0.2013  0.2067  0.3005
28172W        W71084   4.507  19.121  17.014  0.0587  0.1239  0.2327
28173W        W71085   7.894  18.644  16.303  0.1018 -0.1751 -0.2775
28174W        W71086   5.619  16.529  17.193 -0.0576  0.1694 -0.0459
28175W        W71087   2.761  22.851  17.483 -0.0952 -0.1233 -0.0928
28176W        W71088   4.295  18.507  17.698  0.1265  0.2994 -0.3300
28177W        W71089   7.398  22.469  19.771 -0.0715  0.1625  0.0671
28178W        W71090   6.012  20.821  16.681  0.0178  0.0230 -0.1539
28179W        W71091   6.477  20.405  17.849  0.3101  0.1792  0.0674
28180W        W71092   4.245  20.334  18.750 -0.1677  0.3120  0.2080
28181W        W71093   3.731  20.956  18.045 -0.0448 -0.0140  0.2160
28182W        W71094   5.563  22.226  15.752  0.0343  0.0908 -0.0332
28183W        W71095   7.072  21.422  17.058 -0.3506 -0.3202  0.0500
28184W        W71096   5.029  20.697  16.390  0.2060 -0.2146  0.0501
28185W        W71097   4.167  19.952  17.612  0.2955 -0.3772  0.1631
28186W        W71098   2.911  20.145  19.955  0.1006 -0.0761  0.0493
28187W        W71099   4.022  19.314  18.374 -0.0874  0.1155  0.2644
28188W        W71100   5.686  19.089  17.683  0.2720 -0.1132  0.0795
28189W        W71101   6.388  20.302  18.396  0.0573 -0.0312 -0.0678
28190W        W71102   2.579  21.510  19.427 -0.2336 -0.1818 -0.0384
28191W        W71103   8.286  18.878  17.645  0.2962  0.2437 -0.2368
28192W        W71104   4.118  21.441  19.055 -0.2847 -0.2023 -0.1369
28193W        W71105   6.322  22.452  19.497 -0.0520 -0.1594 -0.1562
28194W        W71106   7.364  22.198  16.747  0.1503  0.0172  0.0346
28195W        W71107   6.372  17.854  17.951 -0.2208  0.0999 -0.1883
28196W        W71108   4.490  17.456  19.068 -0.2703 -0.1509 -0.1465
28197W        W71109   4.400  21.229  16.585  0.0797 -0.0630  0.2228
28198W        W71110   4.241  19.705  16.410 -0.3607 -0.1474  0.0946
28199W        W71111   6.069  20.811  18.972  0.0692 -0.0302 -0.2731
28200W        W71112   7.612  20.939  16.220 -0.1152 -0.0512 -0.0474
28201W        W71113   4.249  20.896  18.106 -0.2116  0.0277 -0.2251
28202W        W71114   5.396  17.999  18.540  0.2080 -0.3578  0.3423
28203W        W71115   5.795  20.995  20.054 -0.0000  0.2008  0.0929
28204W        W71116   3.770  21.782  16.288  0.0822  0.3238 -0.3535
28205W        W71117   2.943  20.330  18.110 -0.1634  0.0802 -0.1212
28206W        W71118   3.791  20.882  17.030 -0.3424 -0.0771 -0.0326
28207W        W71119   2.972  19.432  18.235  0.1527 -0.0428 -0.2939
28208W        W71120   4.567  22.338  18.569 -0.2588  0.2174  0.1613
28209W        W71121   6.621  18.267  16.996 -0.1650 -0.1971 -0.4013
28210W        W71122   3.127  19.022  18.453 -0.0091  0.1367  0.0901
28211W        W71123   6.536  18.979  17.158  0.2600 -0.1478 -0.0087
28212W        W71124   5.305  21.607  17.936  0.0506 -0.3539  0.0190
28213W        W71125   7.659  21.010  18.227  0.1741  0.0659  0.1810
28214W        W71126   6.106  19.312  17.258  0.1961 -0.1886  0.0952
28215W        W71127   6.797  21.390  17.473  0.1305 -0.1274 -0.2816
28216W        W71128   3.928  20.084  19.134 -0.1933 -0.2814 -0.2426
28217W        W71129   3.584  19.390  17.069  0.2015 -0.1795 -0.0780
28218W        W71130   4.472  17.596  18.216  0.1851  0.2310 -0.3989
28219W        W71131   2.633  19.497  19.060  0.0191  0.0192  0.1058
28220W        W71132   5.185  19.881  18.994 -0.1156  0.0737  0.0031
28221W        W71133   3.030  17.741  18.014 -0.2717 -0.0433  0.0383
28222W        W71134   6.071  18.520  16.979  0.2952  0.0964  0.0280
28223W        W71135   6.453  21.094  16.831  0.1526  0.0350  0.2691
28224W        W71136   2.895  21.733  16.924  0.0541  0.0599 -0.0945
28225W        W71137   5.802  19.644  19.386 -0.2795 -0.1197  0.0687
28226W        W71138   6.551  21.721  17.217  0.0459 -0.1182 -0.0144
28227W        W71139   7.358  21.951  19.635  0.0364 -0.0194 -0.0532
28228W        W71140   5.553  21.245  18.241 -0.0207  0.0845 -0.1777
28229W        W71141   3.724  19.824  17.846  0.1267 -0.0387 -0.1994
28230W        W71142   4.988  18.800  17.819 -0.0500 -0.0343 -0.0405
28231W        W71143   3.087  23.223  17.375 -0.1325  0.0367  0.0415
28232W        W71144   4.667  22.978  17.937  0.0641  0.2184 -0.3368
28233W        W71145   4.384  18.127  17.326 -0.0028 -0.1173 -0.3876
28234W        W71146   6.966  21.065  17.857  0.0466 -0.2382  0.0185
28235W        W71147   5.144  20.556  17.201 -0.3208  0.1747  0.2769
28236W        W71148   2.731  20.593  19.717 -0.1408  0.0216 -0.1796
28237W        W71149   5.683  19.015  18.945 -0.2741  0.1212 -0.0628
28238W        W71150   7.442  20.566  20.048  0.0026  0.0986  0.1991
28239W        W71151   4.941  19.083  16.285  0.2049 -0.3648  0.0128
28240W        W71152   3.725  19.853  17.070 -0.2124  0.0647  0.4050
28241W        W71153   7.260  21.161  17.464 -0.1446 -0.2003 -0.3299
28242W        W71154   3.784  21.388  17.750 -0.1282  0.0769 -0.0675
28243W        W71155   3.659  20.368  17.018  0.4719 -0.3787  0.1028
28244W        W71156   5.828  22.177  17.156  0.1522  0.2422 -0.0089
28245W        W71157   5.940  18.733  19.244 -0.0951  0.0445 -0.0964
28246W        W71158   2.679  19.050  19.997 -0.0234 -0.3258 -0.1693
28247W        W71159   5.087  19.316  18.051 -0.0791  0.1375 -0.0524
28248W        W71160   4.551  21.257  17.373  0.0342 -0.5246  0.0857
28249W        W71161   4.776  20.138  18.758 -0.0893 -0.0773  0.0330
28250W        W71162   6.434  17.621  17.418 -0.0810 -0.1612 -0.0789
28251W        W71163   6.524  19.144  16.413 -0.1083  0.2582  0.0990
28252W        W71164   6.256  20.560  19.360  0.0814  0.2095  0.2317
28253W        W71165   5.647  21.388  17.659  0.0800  0.0459 -0.4859
28254W        W71166   5.386  19.353  16.374  0.0214 -0.4414 -0.0226
28255W        W71167   5.133  19.202  16.752  0.0932 -0.0505  0.0454
28256W        W71168   3.149  21.308  21.025  0.0160 -0.2406 -0.0966
28257W        W71169   4.811  19.871  19.290 -0.0347  0.1655  0.1873
28258W        W71170   5.915  20.149  18.406 -0.2709 -0.0835  0.0545
28259W        W71171   6.402  18.564  17.370 -0.1114  0.1084  0.2477
28260W        W71172   6.947  23.234  15.988  0.2349 -0.2213 -0.2477
28261W        W71173   4.140  21.322  19.882 -0.0654 -0.1362  0.1213
28262W        W71174   4.990  21.165  19.265  0.1713  0.0070  0.0045
28263W        W71175   4.838  21.807  18.011 -0.1616  0.0191  0.1799
28264W        W71176   4.004  17.036  20.269  0.0540  0.2118 -0.1316
28265W        W71177   4.012  19.374  17.841 -0.1949  0.0550 -0.0018
28266W        W71178   6.375  19.470  16.804  0.2689 -0.0056  0.2027
28267W        W71179   3.762  21.282  16.331  0.2234  0.3376  0.1136
28268W        W71180   6.232  19.789  17.211 -0.0033  0.1137  0.0003
28269W        W71181   6.018  18.587  18.794 -0.1390 -0.2744  0.2496
28270W        W71182   5.650  19.514  18.924 -0.3436  0.0838 -0.1502
28271W        W71183   5.773  20.258  19.299 -0.1198 -0.5548  0.2699
28272W        W71184   5.494  20.230  18.061  0.1260  0.1559  0.0251
28273W        W71185   5.702  19.999  18.870 -0.0248 -0.1563  0.0353
28274W        W71186   3.728  21.786  17.427  0.1199  0.0853  0.0392
28275W        W71187   5.847  18.929  18.478 -0.0277 -0.1500  0.0000
28276W        W71188   4.151  20.210  18.269 -0.3425  0.1257 -0.1254
28277W        W71189   3.016  20.760  20.101  0.2648 -0.2003  0.1422
28278W        W71190   6.626  21.537  19.152 -0.2284  0.2067  0.0333
28279W        W71191   6.500  20.958  17.803 -0.3024 -0.0493  0.1500
28280W        W71192   6.813  19.244  19.218  0.0628 -0.0523  0.2036
28281W        W71193   5.138  19.792  18.155  0.3240  0.1140  0.3660
28282W        W71194   4.290  20.954  17.023  0.0462 -0.0797  0.0085
28283W        W71195   5.612  20.671  16.208  0.0740 -0.0868  0.3405
28284W        W71196   3.862  17.512  17.723 -0.0890 -0.2922 -0.0238
28285W        W71197   3.910  20.411  17.740  0.0610 -0.1723  0.3454
28286W        W71198   4.291  22.267  16.637  0.1990  0.3072  0.3039
28287W        W71199   4.927  20.647  19.137 -0.2012 -0.2896  0.0845
28288W        W71200   4.380  21.738  16.484 -0.2401  0.1339  0.1685
28289W        W71201   5.480  18.808  18.069 -0.1304  0.0233  0.0550
28290W        W71202   2.744  22.624  18.326  0.0855  0.0279  0.2769
28291W        W71203   4.202  18.631  16.831 -0.0998 -0.2280  0.1512
28292W        W71204   3.094  21.280  17.128  0.1627  0.0985 -0.1694
28293W        W71205   6.101  19.281  18.013 -0.0091 -0.2877  0.1843
28294W        W71206   7.149  20.959  17.021  0.1583  0.0279 -0.0453
28295W        W71207   2.775  19.880  17.555 -0.1474 -0.5400 -0.1305
28296W        W71208   4.095  17.893  18.429  0.1614  0.0644  0.2547
28297W        W71209   4.218  21.103  18.714  0.1598 -0.0149  0.0163
28298W        W71210   7.016  20.557  19.134  0.0136  0.3324  0.1538
28299W        W71211   6.007  19.470  16.443 -0.0835 -0.1843 -0.2134
28300W        W71212   7.086  20.894  19.956  0.2843  0.1677 -0.1756
28301W        W71213   4.625  20.090  20.034  0.0540 -0.2918  0.1410
28302W        W71214   4.006  19.485  17.334  0.0088  0.0541  0.2900
28303W        W71215   8.189  20.060  18.330  0.0217 -0.0969  0.1122
28304W        W71216   5.887  19.568  17.593 -0.1334 -0.2439  0.0364
28305W        W71217   4.917  22.219  17.646 -0.1080 -0.0557 -0.0148
28306W        W71218   5.350  20.351  18.961  0.2636  0.0117 -0.0514
28307W        W71219   5.169  19.785  16.671 -0.0869 -0.0705  0.3486
28308W        W71220   4.053  21.805  17.787 -0.0981  0.0339  0.1148
28309W        W71221   4.767  18.921  19.110 -0.2581 -0.3906  0.1587
28310W        W71222   6.624  20.849  18.338 -0.0353  0.1900 -0.1782
28311W        W71223   3.962  18.403  18.173  0.0515  0.3617  0.1882
28312W        W71224   3.988  19.072  16.995  0.0350 -0.0175  0.0270
28313W        W71225   5.284  20.398  17.634 -0.2052 -0.0140  0.0501
28314W        W71226   7.238  19.718  18.112  0.0012 -0.0271  0.1292
28315W        W71227   5.760  19.677  18.437  0.1379 -0.4881 -0.0254
28316W        W71228   4.246  21.910  20.567 -0.2157 -0.0772 -0.0311
28317W        W71229   5.805  17.783  17.021  0.0172 -0.0140  0.2030
28318W        W71230   6.934  23.293  16.903 -0.2905  0.1907  0.2573
28319W        W71231   4.331  19.780  18.626 -0.0994 -0.2118 -0.2131
28320W        W71232   4.585  20.330  17.065 -0.3113  0.1159 -0.1569
28321W        W71233   3.280  20.447  19.793 -0.0188  0.3125 -0.5048
28322W        W71234   4.376  22.054  18.192 -0.1630 -0.0317 -0.0107
28323W        W71235   4.510  17.851  18.686 -0.1465 -0.2715 -0.0042
28324W        W71236   4.530  19.536  20.278  0.0189 -0.2201  0.3740
28325W        W71237   5.192  22.654  17.846  0.1390 -0.1478 -0.0920
28326W        W71238   4.182  23.859  18.639  0.1104 -0.0380 -0.1622
28327W        W71239   6.568  19.656  16.249  0.2130  0.1914  0.1579
28328W        W71240   6.053  20.751  17.641 -0.4160  0.1888  0.0422
28329W        W71241   4.323  18.375  19.162  0.0494 -0.1560  0.0303
28330W        W71242   8.334  19.905  19.940 -0.1187 -0.1719  0.3041
28331W        W71243   5.741  21.715  16.646 -0.2963  0.1099 -0.2879
28332W        W71244   5.884  18.042  18.741 -0.2852 -0.1847 -0.1052
28333W        W71245   3.521  19.428  18.161 -0.0194  0.1870 -0.0777
28334W        W71246   6.954  21.270  16.584  0.1000  0.0706  0.1622
28335W        W71247   3.130  20.071  20.773  0.0109 -0.1496 -0.0420
28336W        W71248   5.277  20.225  19.939 -0.0583 -0.1895  0.0294
28337W        W71249   4.344  19.809  19.111 -0.0802 -0.0233  0.2523
28338W        W71250   6.655  18.069  17.514 -0.1769 -0.1950 -0.0649
28339W        W71251   4.994  19.570  17.624 -0.1138  0.2442 -0.0436
28340W        W71252   3.917  19.629  18.893  0.0923 -0.0998  0.1964
28341W        W71253   7.121  21.565  19.174 -0.0319 -0.3578 -0.1983
28342W        W71254   5.411  20.861  17.541 -0.2463  0.0389  0.1945
28343W        W71255   7.324  19.685  20.094 -0.0843 -0.0030  0.1330
28344W        W71256   4.158  19.482  19.365 -0.0252 -0.0956 -0.0462
28345W        W71257   7.836  20.165  17.780 -0.3269 -0.3028 -0.1278
28346W        W71258   5.910  19.758  16.881  0.1553  0.0754  0.1126
28347W        W71259   3.556  19.621  19.274 -0.2094  0.1169  0.2279
28348W        W71260   5.116  18.225  19.464  0.0253  0.0152  0.2295
28349W        W71261   5.704  20.523  17.125 -0.0535  0.0743 -0.0179
28350W        W71262   4.889  19.018  17.360 -0.1587 -0.0489  0.1532
28351W        W71263   6.884  19.164  17.587  0.1227  0.0051 -0.0290
28352W        W71264   6.190  19.752  18.871 -0.0752  0.0885 -0.2396
28353W        W71265   3.500  18.385  18.332  0.1251  0.0296 -0.3915
28354W        W71266   2.526  18.520  18.853  0.2083  0.3175  0.0093
28355W        W71267   6.523  22.027  19.368  0.4871  0.0565 -0.1247
28356W        W71268   6.601  20.196  17.148  0.1140 -0.0266 -0.3005
28357W        W71269   7.880  19.255  19.489  0.1700 -0.2439  0.0391
28358W        W71270   7.245  18.382  18.312 -0.0019 -0.0069 -0.0794
28359W        W71271   5.588  20.096  16.862 -0.1438  0.2171  0.0537
28360W        W71272   3.681  19.001  17.742 -0.0748 -0.0730  0.0928
28361W        W71273   5.260  20.501  19.477 -0.2537 -0.0471  0.0721
28362W        W71274   4.350  17.710  17.670  0.1753 -0.2792 -0.1331
28363W        W71275   5.601  18.359  19.515  0.0626  0.0943 -0.0071
28364W        W71276   6.496  21.446  16.506  0.2374  0.0824 -0.1104
28365W        W71277   6.404  21.135  18.788 -0.1383 -0.2230  0.0157
28366W        W71278   4.839  20.768  17.993 -0.0844 -0.0076  0.0762
28367W        W71279   3.219  19.845  18.336  0.2550 -0.2962 -0.0173
28368W        W71280   3.851  21.586  20.252  0.0450 -0.0692  0.3933
28369W        W71281   4.489  20.640  16.502  0.0336  0.1890 -0.1563
28370W        W71282   4.361  18.751  16.385  0.0772  0.0822  0.2180
28371W        W71283   4.636  19.988  18.276  0.0910 -0.2243  0.0386
28372W        W71284   5.737  20.010  19.812 -0.0051 -0.2620  0.1175
28373W        W71285   4.923  17.865  16.853 -0.2775 -0.0343 -0.0214
28374W        W71286   7.302  20.067  19.098  0.0653  0.0759  0.0023
28375W        W71287   3.413  21.717  16.988  0.1182 -0.0758 -0.1607
28376W        W71288   4.593  18.466  18.202  0.1260  0.1659  0.1784
28377W        W71289   3.516  21.501  19.195  0.3113  0.1699 -0.0305
28378W        W71290   2.874  21.202  19.723 -0.0223 -0.0923 -0.1122
28379W        W71291   4.236  21.654  17.081  0.1648  0.1896  0.1658
28380W        W71292   6.030  19.270  19.140 -0.0163  0.1653  0.2530
28381W        W71293   5.371  19.887  17.709  0.0313  0.2516  0.0078
28382W        W71294   4.019  20.681  18.491  0.0708 -0.1746 -0.0670
28383W        W71295   8.249  20.399  20.214  0.1086 -0.0341  0.1411
28384W        W71296   6.528  20.593  18.947 -0.4358  0.0809  0.1149
28385W        W71297   3.549  20.239  18.083  0.3061  0.1700 -0.3041
28386W        W71298   4.642  21.257  19.686  0.1466  0.2617 -0.0895
28387W        W71299   6.722  19.615  17.171  0.3227 -0.0836  0.2938
28388W        W71300   3.048  23.396  19.605 -0.2727  0.3424  0.0648
28389W        W71301   2.926  19.224  19.498 -0.0905  0.2830 -0.1636
28390W        W71302   4.791  19.639  18.843  0.1907 -0.0920 -0.1572
28391W        W71303   5.543  19.687  17.222  0.0690 -0.0428 -0.1159
28392W        W71304   4.364  19.612  16.980  0.1809 -0.2380  0.0891
28393W        W71305   5.544  20.012  16.010  0.0480 -0.0439  0.0483
28394W        W71306   4.254  20.467  21.348  0.1162  0.2248  0.4099
28395W        W71307   3.504  20.380  19.006  0.2791  0.0441 -0.1882
28396W        W71308   2.797  22.834  16.819 -0.2018 -0.3450  0.0638
28397W        W71309   7.675  21.338  17.238 -0.2458  0.1785 -0.0968
28398W        W71310   6.854  20.090  18.216 -0.1125  0.2379  0.0697
28399W        W71311   5.189  21.106  18.822 -0.1697 -0.0347 -0.1781
28400W        W71312   4.714  19.719  16.257 -0.0983  0.0971  0.1218
28401W        W71313   4.530  23.158  17.471  0.1851  0.1737 -0.1242
28402W        W71314   3.626  20.985  15.925  0.0397 -0.0986  0.1794
28403W        W71315   6.834  22.181  16.591 -0.2503  0.0889  0.1582
28404W        W71316   3.842  22.361  16.316  0.1706  0.0312 -0.0867
28405W        W71317   7.186  22.693  20.276  0.1194 -0.0950 -0.1364
28406W        W71318   7.058  17.988  17.156 -0.0444  0.1315 -0.2301
28407W        W71319   7.415  20.496  18.778  0.0549 -0.0333  0.0621
28408W        W71320   6.101  20.234  16.901 -0.0962  0.0421  0.1932
28409W        W71321   6.782  21.921  20.184  0.0049 -0.1114  0.1205
28410W        W71322   5.379  21.520  18.598 -0.3177  0.0189  0.0121
28411W        W71323   4.637  19.884  17.814 -0.0629  0.0503  0.3198
28412W        W71324   3.436  19.934  18.802 -0.0135 -0.0880 -0.0457
28413W        W71325   5.971  18.173  19.216 -0.1070 -0.2082 -0.0183
28414W        W71326   2.757  22.042  19.326 -0.2741  0.2251 -0.3041
28415W        W71327   7.144  22.674  16.431 -0.3694 -0.4350 -0.2554
28416W        W71328   4.455  19.480  17.542  0.0926  0.0088  0.2681
28417W        W71329   3.870  22.301  17.875 -0.0986 -0.0032  0.3063
28418W        W71330   6.424  18.445  19.215 -0.0336 -0.2352 -0.2443
28419W        W71331   3.932  21.325  16.781 -0.1338 -0.2712 -0.4170
28420W        W71332   4.493  20.508  18.323  0.0088 -0.0510 -0.1426
28421W        W71333   4.281  22.118  16.131  0.0681 -0.2938 -0.1360
28422W        W71334   3.342  20.616  17.854  0.0282 -0.1336  0.0445
28423W        W71335   5.195  20.926  18.347 -0.0520  0.0060 -0.0610
28424W        W71336   2.475  19.591  17.197 -0.1635 -0.1600  0.1176
28425W        W71337   7.064  18.291  17.613 -0.1987 -0.3240 -0.0106
28426W        W71338   2.728  20.100  18.608  0.0320  0.1386 -0.0465
28427W        W71339   6.043  18.374  18.361 -0.0549  0.1620  0.1686
28428W        W71340   3.590  20.719  17.406  0.3580  0.0723 -0.2468
28429W        W71341   6.467  20.582  16.687 -0.0099  0.1719  0.1257
28430W        W71342   4.954  20.580  18.630 -0.5477 -0.1994  0.2669
28431W        W71343   2.410  19.612  17.677 -0.0434  0.3229  0.1037
28432W        W71344   3.976  18.449  17.182 -0.1222 -0.0845  0.1007
28433W        W71345   7.623  19.232  18.899  0.0476  0.0714 -0.0631
28434W        W71346   5.665  19.308  16.862 -0.1869  0.1385  0.0162
28435W        W71347   7.090  22.871  19.825  0.3770  0.1172  0.0425
28436W        W71348   2.224  20.614  18.655  0.4851  0.2016 -0.0224
28437W        W71349   5.902  18.644  17.491 -0.1476  0.2089  0.0165
28438W        W71350   4.525  19.019  17.832 -0.0391 -0.2373  0.0587
28439W        W71351   4.111  18.949  18.065  0.0161 -0.2164 -0.0294
28440W        W71352   7.221  22.103  20.107  0.0697 -0.1131  0.0014
28441W        W71353   4.869  17.098  17.632  0.0885 -0.0062  0.2105
28442W        W71354   7.047  22.114  15.694  0.1259  0.0231 -0.0691
28443W        W71355   6.444  19.592  19.336 -0.0561 -0.1814  0.0790
28444W        W71356   4.134  22.182  17.202  0.1404  0.2725 -0.1092
28445W        W71357   6.701  20.900  17.317 -0.2712  0.0336  0.2407
28446W        W71358   6.921  20.559  17.893 -0.3312 -0.3181  0.0769
28447W        W71359   3.013  19.792  19.084  0.1815 -0.1334 -0.1650
28448W        W71360   6.520  21.313  18.139 -0.0113  0.2233 -0.0130
28449W        W71361   7.162  20.865  18.268  0.2491  0.0006 -0.1135
28450W        W71362   5.411  19.175  18.420 -0.2996 -0.3079 -0.2350
28451W        W71363   4.761  20.316  17.491  0.3289 -0.0925 -0.0577
28452W        W71364   3.761  22.628  17.326 -0.4067  0.0508 -0.1318
28453W        W71365   6.428  18.912  19.497  0.0640  0.0243 -0.0879
28454W        W71366   6.971  19.675  19.120  0.0711  0.1067 -0.0347
28455W        W71367   4.846  20.660  16.854  0.0345 -0.0583  0.0494
28456W        W71368   5.622  18.441  18.512  0.3393  0.0328 -0.2510
28457W        W71369   5.908  21.445  19.792  0.1526 -0.0047 -0.2059
28458W        W71370   4.369  21.579  20.249 -0.3415 -0.2388 -0.0356
28459W        W71371   4.698  19.427  16.626 -0.2065  0.0552  0.1410
28460W        W71372   4.829  21.330  20.164  0.2059  0.2558  0.2460
28461W        W71373   4.547  20.744  18.812  0.0732 -0.0602 -0.0932
28462W        W71374   5.255  21.488  16.759  0.0276 -0.1616 -0.1146
28463W        W71375   6.906  20.464  18.646  0.0818 -0.1861 -0.1664
28464W        W71376   5.147  18.563  17.035  0.1360  0.0165  0.0248
28465W        W71377   7.459  21.372  17.881 -0.0036  0.1463 -0.0511
28466W        W71378   3.164  19.050  17.943 -0.1277 -0.1712  0.1613
28467W        W71379   6.327  18.979  17.592 -0.1353  0.0954 -0.0583
28468W        W71380   4.625  18.378  18.693  0.1232 -0.2225  0.0201
28469W        W71381   3.242  20.803  18.893  0.0686 -0.0407  0.0172
28470W        W71382   5.383  20.260  16.426  0.3542 -0.2364 -0.2114
28471W        W71383   4.862  20.225  16.383 -0.0040  0.1755 -0.1925
28472W        W71384   2.833  21.051  18.764 -0.0034 -0.4455  0.1319
28473W        W71385   4.789  16.303  20.104 -0.1019  0.3920 -0.2062
28474W        W71386   2.304  18.828  19.878  0.0136  0.1660  0.1371
28475W        W71387   3.933  21.364  18.246  0.1271 -0.1639  0.5299
28476W        W71388   4.539  20.116  16.049 -0.1683 -0.0566 -0.1381
28477W        W71389   6.823  21.726  16.762  0.0083 -0.2847 -0.0429
28478W        W71390   4.456  16.948  19.397  0.1450 -0.3600 -0.1108
28479W        W71391   2.713  19.111  18.706  0.1563 -0.2083  0.0358
28480W        W71392   5.848  22.201  17.696  0.0523  0.0038 -0.0988
28481W        W71393   7.328  21.678  16.512  0.0991 -0.1925  0.1030
28482W        W71394   4.783  18.290  17.756 -0.0739  0.1995 -0.0692
28483W        W71395   7.134  22.650  19.366  0.0286  0.5957  0.0827
28484W        W71396   3.907  20.878  16.547  0.2080  0.1936  0.0860
28485W        W71397   5.753  20.463  19.799 -0.0571 -0.2843  0.0397
28486W        W71398   3.966  17.574  19.923  0.0031 -0.0509  0.2293
28487W        W71399   4.094  18.124  16.866 -0.1883  0.1296 -0.0239
28488W        W71400   3.790  20.258  18.622 -0.0610 -0.1560  0.1192
28489W        W71401   6.044  22.709  16.847 -0.0855  0.2615 -0.0691
28490W        W71402   5.445  22.056  16.788 -0.1544  0.0299  0.0322
28491W        W71403   4.404  21.451  18.308  0.1148 -0.1873  0.3184
28492W        W71404   4.842  20.542  20.125  0.1736 -0.3499  0.0132
28493W        W71405   3.330  17.499  18.970 -0.0320 -0.0951  0.0381
28494W        W71406   6.192  20.744  16.225  0.0773 -0.0630 -0.3424
28495W        W71407   5.231  20.092  18.552 -0.2165  0.0469 -0.1622
28496W        W71408   7.894  21.953  17.534 -0.0254  0.0503  0.1782
28497W        W71409   6.192  19.304  18.523 -0.2152  0.0590 -0.1079
28498W        W71410   5.750  20.072  17.419 -0.2861  0.0627 -0.1269
28499W        W71411   3.616  19.368  19.662  0.0694  0.2662 -0.2784
28500W        W71412   3.684  20.765  19.279  0.1351  0.3453 -0.0270
28501W        W71413   6.479  20.564  20.246 -0.0581  0.2628  0.0705
28502W        W71414   4.777  17.992  18.290  0.3003 -0.0977 -0.0925
28503W        W71415   5.604  19.799  16.441 -0.1570  0.1212  0.2432
28504W        W71416   6.287  21.185  17.313  0.1318 -0.3593  0.1179
28505W        W71417   4.195  19.748  18.106  0.0202 -0.6445 -0.0434
28506W        W71418   4.542  18.637  17.218 -0.0541  0.1775  0.0417
28507W        W71419   4.518  20.794  17.612  0.1050 -0.0441 -0.3005
28508W        W71420   5.748  20.583  18.608 -0.1687  0.1569  0.1896
28509W        W71421   6.724  21.502  18.635  0.0818 -0.2402  0.2116
28510W        W71422   5.635  21.111  16.566 -0.0523  0.2456 -0.1248
28511W        W71423   6.321  19.779  18.420  0.3768 -0.2327 -0.1194
28512W        W71424   7.512  21.976  21.467 -0.0133 -0.0470  0.0765
28513W        W71425   8.469  22.169  20.859 -0.4890 -0.0683 -0.1262
28514W        W71426   4.926  21.722  18.699 -0.2198  0.1899  0.3035
28515W        W71427   6.132  20.265  18.866 -0.0378 -0.3566 -0.0300
28516W        W71428   2.311  18.818  18.360  0.1606  0.2017 -0.1766
28517W        W71429   5.399  20.641  16.737  0.1294 -0.0061 -0.0734
28518W        W71430   5.281  21.072  17.023  0.2413  0.4083 -0.5135
28519W        W71431   6.503  20.111  19.230 -0.0778 -0.1341  0.3104
28520W        W71432   3.197  19.763  17.823  0.0354 -0.0002 -0.5494
28521W        W71433   5.905  18.143  16.743 -0.1123 -0.0848 -0.0451
28522W        W71434   6.282  20.850  19.887  0.1728  0.1354  0.2620
28523W        W71435   4.950  20.251  17.954  0.2423  0.0170  0.0550
28524W        W71436   4.514  20.190  24.254 -0.2762 -0.2960  0.0564
28525W        W71437   4.445  19.845  19.629 -0.1818 -0.3300  0.2304
28526W        W71438   5.826  19.324  20.405 -0.0265  0.0017 -0.2242
28527W        W71439   6.964  19.416  20.337 -0.0526  0.0116 -0.0704
28528W        W71440   3.647  17.387  20.343  0.3878 -0.5279 -0.0136
28529W        W71441   7.368  22.861  21.026  0.0418 -0.2076  0.1099
28530W        W71442   4.350  18.690  22.276  0.0595 -0.0451  0.0024
28531W        W71443   6.360  21.462  22.093 -0.2220  0.0788  0.2978
28532W        W71444   7.342  22.717  21.501 -0.1562  0.1061 -0.0407
28533W        W71445   4.999  20.915  19.851 -0.3223 -0.2426  0.1472
28534W        W71446   5.209  19.442  21.024 -0.1789  0.0026  0.0213
28535W        W71447   5.560  21.557  22.440  0.1979  0.2242  0.3300
28536W        W71448   5.436  17.812  19.798  0.0827  0.0133 -0.3335
28537W        W71449   3.326  18.137  21.493  0.1321 -0.2038 -0.2042
28538W        W71450   7.087  19.184  22.554 -0.1962 -0.0255 -0.1168
28539W        W71451   3.718  20.651  21.227  0.1209 -0.0390 -0.0044
28540W        W71452   4.058  18.620  20.662 -0.0486 -0.2572  0.2942
28541W        W71453   4.565  19.333  19.776 -0.2612  0.0793  0.0729
28542W        W71454   7.256  20.889  21.520  0.0854 -0.1682  0.2230
28543W        W71455   6.128  19.753  22.967 -0.1234 -0.0341  0.3040
28544W        W71456   5.253  18.568  22.446 -0.1821 -0.5578  0.0838
28545W        W71457   4.918  19.734  19.739  0.1634  0.0266  0.1237
28546W        W71458   3.997  19.607  20.418 -0.0737 -0.0874 -0.1805
28547W        W71459   2.803  20.731  23.855  0.3788  0.0258 -0.0770
28548W        W71460   5.399  20.565  22.003 -0.0335  0.1921  0.0324
28549W        W71461   6.772  18.613  22.076  0.5541 -0.0911  0.1609
28550W        W71462   6.158  19.043  20.913  0.0821 -0.0183 -0.1109
28551W        W71463   3.756  22.291  21.992  0.1061 -0.1760 -0.3672
28552W        W71464   5.026  21.030  22.011  0.0015  0.4012 -0.0801
28553W        W71465   6.684  19.172  23.035  0.0931  0.1920  0.1609
28554W        W71466   2.356  20.906  21.450 -0.1513  0.0064 -0.1249
28555W        W71467   2.425  21.341  21.618 -0.1099  0.0903 -0.4453
28556W        W71468   5.447  20.882  20.966  0.0230  0.0249  0.1078
28557W        W71469   8.450  20.021  20.994 -0.1232  0.1256  0.1658
28558W        W71470   6.850  21.283  22.232  0.2421 -0.1633  0.0599
28559W        W71471   6.559  20.787  23.802  0.1002 -0.1236 -0.1333
28560W        W71472   5.133  19.444  19.251 -0.1918 -0.0008  0.0352
28561W        W71473   6.671  22.400  25.151 -0.0696 -0.0476 -0.1990
28562W        W71474   3.968  20.998  23.638 -0.1346  0.1249  0.0342
28563W        W71475   6.918  20.813  21.926  0.2284 -0.0468  0.0376
28564W        W71476   4.622  19.552  21.649 -0.2544 -0.0637 -0.1169
28565W        W71477   5.409  20.681  20.245 -0.1664  0.0198 -0.2559
28566W        W71478   5.306  19.331  20.504 -0.0846  0.0629 -0.0332
28567W        W71479   4.767  21.096  23.008  0.0639  0.0947 -0.1274
28568W        W71480   4.087  20.909  21.033  0.0631  0.4257 -0.0802
28569W        W71481   6.225  17.356  23.001 -0.5278  0.3597  0.0323
28570W        W71482   5.482  20.892  19.688 -0.0990  0.1205  0.2054
28571W        W71483   5.689  20.215  20.261 -0.0821  0.0587 -0.0255
28572W        W71484   5.231  18.835  18.794  0.3341  0.1228  0.0122
28573W        W71485   5.048  18.456  18.995 -0.4562  0.1801  0.0263
28574W        W71486   3.907  19.375  22.271  0.1920 -0.1192  0.1063
28575W        W71487   5.869  21.716  22.047 -0.1663 -0.2584 -0.0415
28576W        W71488   4.631  19.364  21.155  0.2803  0.0024  0.1338
28577W        W71489   5.573  19.624  23.839 -0.2814 -0.1572  0.0010
28578W        W71490   4.395  19.064  21.444 -0.1503 -0.0591 -0.1007
28579W        W71491   5.779  20.439  22.313 -0.2178  0.2962 -0.3543
28580W        W71492   6.046  20.474  23.348  0.1458  0.1017 -0.1912
28581W        W71493   3.150  19.630  22.486 -0.0084 -0.2209  0.0633
28582W        W71494   7.658  21.908  20.435 -0.1629  0.0683 -0.0162
28583W        W71495   7.635  20.202  21.322 -0.2925 -0.2177  0.2904
28584W        W71496   7.558  21.542  20.069  0.0950  0.0324  0.4030
28585W        W71497   3.592  18.761  20.717  0.1050 -0.0166 -0.3498
28586W        W71498   3.025  19.493  22.980 -0.1488 -0.0711  0.1593
28587W        W71499   3.489  18.813  21.725 -0.3255  0.1284 -0.1528
28588W        W71500   4.402  16.412  18.926 -0.1955 -0.2125 -0.1069
28589W        W71501   7.311  20.861  23.447  0.0467  0.1991 -0.0470
28590W        W71502   4.481  20.029  21.669 -0.0852  0.0340  0.2313
28591W        W71503   7.070  19.470  20.930 -0.0320 -0.0488  0.0606
28592W        W71504   6.369  21.085  22.457 -0.0353  0.0541 -0.3464
28593W        W71505   6.092  22.135  21.805 -0.0281 -0.1517  0.2659
28594W        W71506   7.003  22.613  20.800 -0.0567 -0.4876  0.0414
28595W        W71507   5.633  19.031  22.481 -0.1630 -0.0238  0.1910
28596W        W71508   6.062  17.487  21.768  0.2171  0.1859 -0.0219
28597W        W71509   4.113  20.824  19.660  0.0293 -0.4478 -0.2645
28598W        W71510   3.647  20.209  20.122 -0.0131 -0.3445 -0.2186
28599W        W71511   6.393  21.084  23.326 -0.0072  0.1439  0.1550
28600W        W71512   6.009  20.595  20.427 -0.0895  0.4125 -0.1172
28601W        W71513   3.192  20.304  22.953 -0.1122  0.0987 -0.1855
28602W        W71514   5.231  19.170  22.785 -0.1128  0.2259 -0.1246
28603W        W71515   5.159  21.721  24.184  0.2351 -0.0154 -0.0031
28604W        W71516   4.410  21.826  21.513 -0.4110  0.0757 -0.1154
28605W        W71517   4.478  21.257  21.124  0.1746 -0.1143 -0.2046
28606W        W71518   3.756  19.881  19.690 -0.0295 -0.0291  0.2474
28607W        W71519   4.714  19.126  22.468 -0.0511 -0.1353 -0.1996
28608W        W71520   5.138  18.948  22.221  0.0921 -0.1889  0.2328
28609W        W71521   5.557  20.432  20.766 -0.1062 -0.0081 -0.3226
28610W        W71522   3.622  18.119  22.034 -0.0779 -0.3354 -0.0189
28611W        W71523   6.418  17.968  22.051 -0.1522  0.2456  0.4835
28612W        W71524   4.342  19.006  19.357 -0.0505 -0.2079  0.3461
28613W        W71525   8.346  21.276  21.303  0.2002  0.1646 -0.2770
28614W        W71526   6.393  20.748  20.694  0.1870 -0.0652  0.0722
28615W        W71527   6.514  21.287  20.970  0.2154 -0.2892  0.0483
28616W        W71528   4.351  20.548  21.792 -0.0536  0.1597  0.1213
28617W        W71529   4.229  17.833  19.249 -0.2343  0.0230  0.2027
28618W        W71530   4.574  18.470  23.041 -0.1024 -0.0758 -0.1239
28619W        W71531   2.300  18.915  23.425  0.0967  0.1583  0.2632
28620W        W71532   7.232  18.793  22.315 -0.0968  0.0769 -0.0643
28621W        W71533   4.543  19.008  18.409 -0.0382  0.1975  0.1720
28622W        W71534   5.693  20.104  21.209 -0.4356  0.1362 -0.2295
28623W        W71535   4.001  20.580  20.115  0.1480 -0.2846 -0.0103
28624W        W71536   2.598  19.254  20.775  0.2070 -0.2396  0.2971
28625W        W71537   6.566  18.322  22.935  0.1302  0.1903 -0.2049
28626W        W71538   6.402  22.052  19.843  0.1265 -0.2219  0.0246
28627W        W71539   8.532  21.629  20.964 -0.1139  0.2835 -0.0128
28628W        W71540   6.365  21.786  21.566 -0.0249  0.2290  0.2562
28629W        W71541   5.117  18.253  21.579  0.3229  0.0347  0.0810
28630W        W71542   2.379  18.431  19.433  0.1619  0.0076  0.3996
28631W        W71543   2.693  21.647  21.164  0.0372  0.0930 -0.0595
28632W        W71544   5.611  21.473  20.887  0.0377 -0.0200 -0.1226
28633W        W71545   4.324  19.344  20.666  0.0157  0.0172  0.0450
28634W        W71546   7.801  22.923  21.597 -0.0959 -0.1875 -0.2812
28635W        W71547   5.321  19.988  20.772  0.2827  0.1762 -0.0790
28636W        W71548   4.891  20.437  21.912 -0.0494  0.2664  0.0791
28637W        W71549   6.375  18.785  23.890  0.1502 -0.0747 -0.1296
28638W        W71550   7.660  19.365  23.254  0.1110  0.0017  0.2067
28639W        W71551   5.158  19.421  21.676  0.0436  0.0673 -0.0289
28640W        W71552   3.473  17.646  19.874 -0.3497 -0.0780  0.3092
28641W        W71553   7.299  22.252  20.590 -0.3037  0.2318 -0.0999
28642W        W71554   2.730  22.072  20.919 -0.3305  0.1239  0.3155
28643W        W71555   3.077  20.990  22.270  0.1993  0.1480 -0.0223
28644W        W71556   6.271  21.219  21.386 -0.0793 -0.1423  0.1579
28645W        W71557   7.517  18.491  22.631  0.0295 -0.4607 -0.0889
28646W        W71558   4.879  20.776  23.389 -0.2886  0.1841 -0.0736
28647W        W71559   6.639  19.855  23.515 -0.1517 -0.1203  0.3528
28648W        W71560   1.822  19.160  20.413  0.1011 -0.1549  0.1843
28649W        W71561   2.467  20.914  23.144  0.2647 -0.2099 -0.0531
28650W        W71562   5.050  17.599  20.160  0.2235  0.0666 -0.0754
28651W        W71563   6.165  19.551  20.833 -0.0232 -0.0098 -0.0529
28652W        W71564   5.288  20.264  22.445 -0.0159 -0.1987 -0.1718
28653W        W71565   7.022  20.364  21.619  0.0490  0.1759 -0.2304
28654W        W71566   6.238  19.445  19.722 -0.0989  0.0009  0.0184
28655W        W71567   5.624  19.132  19.494 -0.1588 -0.0592 -0.1545
28656W        W71568   4.793  21.917  23.459  0.1433 -0.0297 -0.1083
28657W        W71569   5.720  20.242  21.768  0.3724  0.0432 -0.0834
28658W        W71570   4.837  20.177  22.724 -0.0616 -0.1453 -0.1879
28659W        W71571   5.189  19.586  18.579 -0.2873 -0.1015  0.4138
28660W        W71572   8.446  21.779  20.505  0.1507 -0.0999 -0.1850
28661W        W71573   4.153  20.095  22.117  0.2565 -0.0719 -0.0262
28662W        W71574   6.566  20.276  23.712 -0.1572 -0.0383  0.1005
28663W        W71575   8.606  21.860  21.672 -0.2893  0.0776  0.0340
28664W        W71576   4.074  18.235  22.198  0.0910 -0.1739  0.0499
28665W        W71577   4.687  19.494  18.358 -0.0774 -0.1398  0.0377
28666W        W71578   5.157  18.982  20.843 -0.0921  0.1098 -0.1326
28667W        W71579   4.125  21.892  19.952 -0.0703  0.0107  0.1738
28668W        W71580   4.903  17.850  21.206  0.0438 -0.0311  0.0149
28669W        W71581   6.093  17.655  23.392  0.1045  0.1045  0.5072
28670W        W71582   5.507  17.641  22.204 -0.2760 -0.3701  0.0293
28671W        W71583   7.464  18.570  24.518 -0.1749  0.0884  0.1900
28672W        W71584   6.693  19.839  20.992  0.0492 -0.0911  0.0307
28673W        W71585   6.543  20.198  21.610  0.3142  0.2736  0.2262
28674W        W71586   5.577  20.791  19.075 -0.1180  0.2575  0.1585
28675W        W71587   5.356  19.574  22.101 -0.0760  0.1135  0.1625
28676W        W71588   4.651  20.107  22.268  0.1683 -0.3337  0.1907
28677W        W71589   3.399  22.065  21.643  0.3002 -0.2625 -0.1490
28678W        W71590   5.825  20.799  21.916  0.0531 -0.1185  0.1513
28679W        W71591   5.881  19.206  21.619  0.1545  0.0496 -0.1900
28680W        W71592   5.244  19.408  23.243 -0.3633  0.0443 -0.2987
28681W        W71593   3.304  18.960  19.692 -0.1801  0.3301 -0.3027
28682W        W71594   6.069  21.574  20.551  0.1176  0.1824 -0.0509
28683W        W71595   4.376  19.316  18.846  0.1652  0.0041  0.0628
28684W        W71596   4.589  18.150  21.989  0.1773 -0.1082 -0.2498
28685W        W71597   4.988  20.973  20.880  0.0294  0.2442 -0.2845
28686W        W71598   4.797  20.268  19.609 -0.2366 -0.2425  0.1946
28687W        W71599   6.268  20.065  24.316 -0.2328 -0.1295  0.0225
28688W        W71600   3.437  20.803  20.825 -0.0885 -0.1992  0.2580
28689W        W71601   5.013  18.146  22.402  0.3044 -0.1136 -0.0719
28690W        W71602   3.377  21.609  21.655 -0.0077  0.0206 -0.0375
28691W        W71603   3.895  19.126  18.970 -0.0789 -0.1744 -0.1805
28692W        W71604   2.813  19.040  21.190  0.0053 -0.0566 -0.1536
28693W        W71605   6.726  17.635  19.794  0.0214  0.1868  0.2325
28694W        W71606   6.145  19.885  21.733  0.0785 -0.2820 -0.1293
28695W        W71607   3.891  19.127  21.775 -0.1916 -0.1244 -0.0763
28696W        W71608   4.205  17.801  21.877  0.0677  0.2092  0.3367
28697W        W71609   4.864  21.646  21.023 -0.0288 -0.0162 -0.0255
28698W        W71610   5.104  19.800  21.373  0.0219  0.1371 -0.1325
28699W        W71611   6.495  18.851  20.000  0.4117  0.1441 -0.0706
28700W        W71612   5.187  21.292  22.687  0.1365 -0.3573  0.0779
28701W        W71613   3.980  19.649  23.978  0.0049  0.1188  0.0470
28702W        W71614   3.698  19.803  21.254 -0.1982 -0.1213  0.0205
28703W        W71615   5.939  19.364  23.696  0.0115 -0.3286 -0.2149
28704W        W71616   4.065  19.540  19.917  0.1959  0.1560 -0.0229
28705W        W71617   5.001  20.945  20.391  0.1713  0.0468  0.2118
28706W        W71618   6.272  22.025  22.270 -0.3995  0.2505  0.0606
28707W        W71619   3.346  19.169  19.168 -0.4521 -0.1009  0.2456
28708W        W71620   4.108  18.975  19.892 -0.0342 -0.0986  0.1140
28709W        W71621   3.694  19.100  24.267 -0.0646  0.0929  0.1114
28710W        W71622   5.498  20.895  22.353 -0.1256  0.0763  0.1712
28711W        W71623   6.374  18.478  21.752 -0.1094  0.1960 -0.0842
28712W        W71624   4.284  16.962  18.926 -0.0021 -0.0680 -0.3280
28713W        W71625   4.815  20.086  20.887 -0.0358  0.2285  0.2985
28714W        W71626   7.260  21.595  22.187  0.2646 -0.0381  0.2488
28715W        W71627   5.812  19.504  24.854 -0.0807  0.2555  0.2192
28716W        W71628   4.829  21.587  23.020 -0.1952  0.3650  0.1593
28717W        W71629   5.486  16.722  21.108 -0.2480 -0.1646  0.0454
28718W        W71630   9.761  21.847  20.817 -0.2409  0.1457 -0.0643
28719W        W71631   4.216  19.578  23.560 -0.3179  0.0500 -0.1026
28720W        W71632   3.996  20.130  20.554 -0.1016 -0.1332  0.0399
28721W        W71633   3.693  20.305  22.640 -0.0030 -0.0978  0.4286
28722W        W71634   3.697  21.202  21.035 -0.4056  0.1002  0.1156
28723W        W71635   6.013  18.913  22.074 -0.2212 -0.0532  0.0606
28724W        W71636   6.494  22.057  24.710  0.0468  0.0669  0.0867
28725W        W71637   4.826  19.418  20.687 -0.1436  0.0144  0.0714
28726W        W71638   4.250  20.285  22.610  0.1810  0.2291  0.1943
28727W        W71639   5.943  17.905  19.622 -0.0114 -0.4591  0.0098
28728W        W71640   6.400  21.130  19.348  0.2968  0.1049  0.1596
28729W        W71641   3.686  18.841  21.182 -0.1324 -0.1135 -0.0339
28730W        W71642   7.790  19.841  24.163  0.1803 -0.0917 -0.0449
28731W        W71643   6.150  20.131  20.142  0.3257  0.0527  0.0490
28732W        W71644   5.955  17.977  22.312 -0.2968  0.0207  0.0508
28733W        W71645   3.400  17.792  24.039 -0.0153  0.2899 -0.1821
28734W        W71646   6.748  20.989  21.293  0.0013  0.0262  0.0299
28735W        W71647   3.941  19.902  22.830 -0.0955  0.0514  0.0861
28736W        W71648   6.867  22.341  24.172 -0.1092 -0.1551 -0.0074
28737W        W71649   3.672  20.188  23.154 -0.0265  0.0297 -0.0514
28738W        W71650   6.034  18.830  20.314  0.1474 -0.0116  0.1255
28739W        W71651   4.013  18.695  18.558  0.1066  0.2781  0.2900
28740W        W71652   6.045  20.317  22.793 -0.1264 -0.0357 -0.0003
28741W        W71653   7.587  21.268  22.095 -0.2516 -0.1739  0.0293
28742W        W71654   4.321  20.358  20.877  0.0185 -0.1976 -0.0369
28743W        W71655   6.763  18.161  21.751  0.1407 -0.0354  0.0650
28744W        W71656   5.254  20.251  21.551  0.0561 -0.2051 -0.2843
28745W        W71657   6.515  18.916  20.535  0.1705 -0.0587 -0.1285
28746W        W71658   6.507  20.449  21.129 -0.0890  0.0083 -0.1208
28747W        W71659   4.962  19.847  20.365  0.0052  0.2624  0.1869
28748W        W71660   4.871  19.802  24.406  0.0733  0.0077 -0.1182
28749W        W71661   6.986  21.404  20.880 -0.0889 -0.4387  0.2257
28750W        W71662   5.057  19.923  21.930  0.1510 -0.1923  0.0350
28751W        W71663   6.527  19.065  22.282 -0.0253  0.0682  0.1502
28752W        W71664   6.073  20.035  22.213 -0.0577  0.0239  0.2250
28753W        W71665   4.920  19.051  21.301 -0.0816  0.3644  0.1176
28754W        W71666   4.031  18.469  22.752 -0.0620  0.0091  0.4236
28755W        W71667   6.992  21.813  22.869 -0.2848  0.0048 -0.1907
28756W        W71668   5.801  19.522  19.864 -0.1114 -0.1530  0.1165
28757W        W71669   7.948  17.275  22.500  0.0501 -0.0405 -0.1204
28758W        W71670   5.733  19.655  21.152  0.4221 -0.1553  0.0044
28759W        W71671   4.154  18.979  17.475 -0.0668 -0.0321 -0.0610
28760W        W71672   3.916  18.874  22.249  0.2433  0.2684 -0.0473
28761W        W71673   6.430  20.140  23.150 -0.0266 -0.0584  0.1957
28762W        W71674   2.681  18.039  19.531 -0.1674 -0.2588  0.2559
28763W        W71675   6.889  18.770  23.668 -0.2227 -0.1350  0.3153
28764W        W71676   3.882  21.076  20.353  0.1201  0.1660  0.0335
28765W        W71677   6.896  21.831  21.796  0.2250  0.0914  0.2966
28766W        W71678   6.210  18.446  20.704 -0.2612  0.1514 -0.4320
28767W        W71679   4.132  17.806  21.260  0.2471  0.0626  0.1672
28768W        W71680   3.187  22.453  22.041  0.0770  0.0355  0.2494
28769W        W71681   3.465  18.134  20.024  0.0790 -0.1342 -0.1097
28770W        W71682   5.356  19.503  19.743  0.0156 -0.2203  0.1001
28771W        W71683   5.115  20.520  21.118 -0.2018 -0.2673 -0.2491
28772W        W71684   7.008  20.608  23.822 -0.2137 -0.0478  0.1712
28773W        W71685   5.671  19.098  20.989 -0.0105 -0.1849 -0.0468
28774W        W71686   7.735  18.623  23.078 -0.0774 -0.1000  0.0769
28775W        W71687   3.307  20.328  21.192  0.0378  0.2069  0.1786
28776W        W71688   5.600  18.419  21.499 -0.1567 -0.1673 -0.2206
28777W        W71689   4.770  19.545  22.105 -0.1138 -0.1643  0.0552
28778W        W71690   4.197  18.613  21.246  0.0306 -0.1673  0.1912
28779W        W71691   4.257  21.335  22.313 -0.1411  0.2886  0.0388
28780W        W71692   5.279  18.092  23.571  0.1709 -0.3457 -0.0604
28781W        W71693   4.738  20.347  21.403  0.1276 -0.0456  0.1112
28782W        W71694   4.414  19.636  22.469  0.4080  0.0501  0.0365
28783W        W71695   7.631  20.743  22.619  0.2600  0.0423 -0.0931
28784W        W71696   6.101  20.320  23.848 -0.0507 -0.2568  0.0337
28785W        W71697   3.110  20.095  21.659 -0.1056 -0.1469 -0.2917
28786W        W71698   6.117  22.343  24.904  0.2182  0.2089 -0.0909
28787W        W71699   7.452  21.202  21.027 -0.0211  0.2857  0.1704
28788W        W71700   4.334  20.976  20.582  0.1657 -0.0165  0.0689
28789W        W71701   2.711  19.065  23.130  0.1367  0.0814 -0.3398
28790W        W71702   5.929  21.267  22.305  0.1556  0.1946  0.0565
28791W        W71703   6.032  20.555  20.941 -0.1086 -0.0093 -0.1090
28792W        W71704   4.750  18.202  20.161  0.0226 -0.0409  0.0011
28793W        W71705   5.922  21.250  21.810 -0.0538  0.0714  0.1860
28794W        W71706   5.161  22.247  23.893 -0.0424  0.1494 -0.3341
28795W        W71707   4.415  19.179  22.010 -0.1595 -0.0462 -0.0270
28796W        W71708   4.619  21.380  20.641 -0.1194 -0.2530 -0.3497
28797W        W71709   5.422  19.772  20.204 -0.0815  0.0827 -0.1361
28798W        W71710   5.137  20.316  20.388 -0.1417  0.0992  0.2700
28799W        W71711   5.336  21.626  21.679  0.0261 -0.0500  0.0519
28800W        W71712   4.944  19.068  19.557 -0.3178 -0.1120 -0.0660
28801W        W71713   3.489  22.882  21.443 -0.4265 -0.0503 -0.1054
28802W        W71714   4.122  20.039  20.040  0.0816  0.0156 -0.3346
28803W        W71715   6.990  20.289  21.053 -0.1106  0.2153 -0.4027
28804W        W71716   3.568  22.780  22.066  0.0873  0.2351  0.1511
28805W        W71717   7.010  19.928  22.860 -0.2726  0.0826 -0.0723
28806W        W71718   5.089  18.329  18.493  0.0958  0.3461  0.2234
28807W        W71719   6.652  19.670  23.034 -0.1379  0.1304 -0.2754
28808W        W71720   6.345  18.345  20.233 -0.2654 -0.0001 -0.2913
28809W        W71721   6.708  20.695  23.181 -0.2115 -0.2210 -0.1680
28810W        W71722   4.471  19.925  20.545  0.1018 -0.2823  0.1111
28811W        W71723   4.183  18.608  19.573 -0.0521 -0.1883 -0.1345
28812W        W71724   5.380  19.660  24.326 -0.1604  0.0367 -0.0502
28813W        W71725   6.519  17.005  23.846  0.2603 -0.1603 -0.1163
28814W        W71726   4.079  21.395  21.417  0.1200 -0.1797  0.1699
28815W        W71727   7.127  21.279  21.822  0.0095 -0.4484 -0.2927
28816W        W71728   4.074  19.651  20.966 -0.0258  0.0579  0.1943
28817W        W71729   3.780  19.677  21.838  0.2361 -0.1191  0.0669
28818W        W71730   7.720  17.737  22.696  0.1944 -0.0489 -0.1324
28819W        W71731   4.877  19.206  18.699  0.0334 -0.2011  0.2640
28820W        W71732   5.476  18.971  21.469 -0.0436  0.0393  0.2014
28821W        W71733   6.162  21.592  21.073  0.0283 -0.1099 -0.1978
28822W        W71734   4.007  22.000  21.718  0.0404  0.0774  0.2176
28823W        W71735   4.765  22.071  22.038  0.2945  0.1698  0.3902
28824W        W71736   3.156  18.288  19.548 -0.1057 -0.1547  0.2961
28825W        W71737   6.388  19.392  21.884  0.2322  0.3686  0.0024
28826W        W71738   3.982  20.063  21.558 -0.3298  0.1973 -0.0980
28827W        W71739   5.796  19.929  22.612 -0.1520  0.1776 -0.0052
28828W        W71740   3.833  20.218  20.998 -0.0826  0.0862 -0.0370
28829W        W71741   5.003  18.481  20.686  0.0767 -0.3017 -0.1510
28830W        W71742   6.221  20.011  21.210 -0.1235 -0.0861 -0.0194
28831W        W71743   4.032  19.388  22.759 -0.1712 -0.0417  0.0461
28832W        W71744   4.566  18.705  19.952 -0.0981 -0.1670  0.0815
28833W        W71745   7.407  19.418  23.780 -0.2155  0.0361 -0.0990
28834W        W71746   4.641  19.404  19.302  0.3627 -0.2254 -0.3517
28835W        W71747   6.495  22.087  22.653 -0.1217  0.1165  0.1156
28836W        W71748   3.652  19.047  20.077  0.0954 -0.1989  0.1681
28837W        W71749   5.769  18.800  19.846  0.0069  0.0054 -0.1467
28838W        W71750   3.356  20.543  21.635 -0.5733 -0.2311  0.0434
28839W        W71751   4.073  20.431  23.063  0.0135 -0.2284  0.2129
28840W        W71752   7.277  20.962  22.336 -0.0672  0.0010  0.0141
28841W        W71753   4.131  18.478  20.112 -0.2292  0.1632 -0.0509
28842W        W71754   7.681  20.930  20.690 -0.1354  0.1351 -0.0192
28843W        W71755   5.871  19.407  22.136  0.1415  0.0617  0.0934
28844W        W71756   4.371  20.396  20.364 -0.1060  0.1842 -0.1266
28845W        W71757   6.789  20.718  22.440 -0.0270 -0.1138  0.3091
28846W        W71758   7.695  21.265  21.619 -0.4481 -0.1045 -0.1633
28847W        W71759   3.414  19.315  21.906 -0.2725 -0.0474  0.0420
28848W        W71760   6.681  22.089  23.208  0.1004 -0.0089  0.1314
28849W        W71761   7.187  21.380  22.602  0.0977  0.0363  0.0464
28850W        W71762   4.118  19.033  20.981  0.0821  0.0086 -0.3050
28851W        W71763   3.065  20.472  22.018  0.4572  0.3702  0.0876
28852W        W71764   4.461  20.943  20.079  0.0356 -0.4747 -0.1610
28853W        W71765   6.727  19.664  21.607  0.0485 -0.2360  0.1705
28854W        W71766   6.106  18.912  22.578  0.3622  0.0805  0.0605
28855W        W71767   6.256  21.114  20.316 -0.0216 -0.1112 -0.1404
28856W        W71768   6.211  19.427  22.512  0.3698 -0.0269 -0.0795
28857W        W71769   6.575  21.559  22.641  0.0763 -0.2417  0.0315
28858W        W71770   6.669  22.245  25.635  0.2234  0.0741  0.1450
28859W        W71771   3.155  19.698  19.654  0.1314 -0.3357  0.3580
28860W        W71772   4.144  19.460  24.400  0.4455 -0.0485 -0.3340
28861W        W71773   4.602  20.786  21.110 -0.0325 -0.0558  0.0605
28862W        W71774   6.159  20.422  21.817  0.0991 -0.1450  0.1943
28863W        W71775   6.679  21.453  20.463 -0.1856  0.2558 -0.2166
28864W        W71776   5.185  18.638  21.254  0.1219  0.1150  0.2731
28865W        W71777   7.574  19.644  21.040  0.0513 -0.1816  0.1186
28866W        W71778   4.286  19.621  22.012  0.1747 -0.0100  0.1884
28867W        W71779   6.960  18.450  21.072 -0.0894 -0.2882 -0.1256
28868W        W71780   5.864  18.334  20.045 -0.0650  0.0898 -0.0578
28869W        W71781   5.543  20.614  22.746 -0.1611  0.0835  0.2768
28870W        W71782   2.447  19.350  19.732 -0.0823 -0.3768  0.0302
28871W        W71783   4.289  20.356  19.686 -0.0847  0.1012  0.3222
28872W        W71784   4.307  20.923  21.507 -0.0118 -0.0666 -0.0671
28873W        W71785   5.670  18.478  23.220  0.0732 -0.1033 -0.0091
28874W        W71786   4.846  19.054  21.821 -0.1036  0.1240  0.2480
28875W        W71787   4.642  21.072  22.517  0.0651  0.0269  0.2546
28876W        W71788   3.306  18.891  20.344  0.0826 -0.1226 -0.1406
28877W        W71789   6.569  22.295  21.937 -0.0459  0.0745 -0.1007
28878W        W71790   4.684  18.580  21.596 -0.0772 -0.1527 -0.1273
28879W        W71791   4.226  16.928  21.182 -0.1489 -0.1324  0.1343
28880W        W71792   6.584  19.326  20.902  0.0725  0.0910  0.1645
28881W        W71793   7.197  21.178  20.464  0.2267  0.2271 -0.0144
28882W        W71794   3.803  18.955  19.457 -0.1646 -0.2075 -0.4462
28883W        W71795   6.286  20.481  22.348 -0.0405  0.1798  0.2012
28884W        W71796   3.659  20.850  19.852 -0.2109  0.1673  0.5695
28885W        W71797   4.242  18.690  21.763  0.2689 -0.0436  0.0295
28886W        W71798   5.639  19.785  23.288 -0.0145 -0.0085 -0.3301
28887W        W71799   2.896  18.268  19.133 -0.1363 -0.0396 -0.2321
28888W        W71800   5.658  19.700  21.726  0.3270 -0.0353 -0.2408
28889W        W71801   6.687  20.383  22.031  0.1797  0.1752 -0.2004
28890W        W71802   6.425  22.605  21.564  0.1572 -0.1061 -0.0185
28891W        W71803   6.215  21.242  22.907 -0.2747  0.0063  0.0867
28892W        W71804   5.682  21.022  24.224  0.0491 -0.2106 -0.1508
28893W        W71805   4.997  18.859  23.834  0.0065 -0.0798  0.1604
28894W        W71806   6.154  20.073  19.560 -0.0376 -0.2431  0.3969
28895W        W71807   4.854  19.553  22.859 -0.0324 -0.0556  0.0804
28896W        W71808   7.991  20.114  20.762 -0.0922 -0.0543  0.3560
28897W        W71809   7.586  18.036  21.367  0.2843 -0.1448  0.0241
28898W        W71810   5.485  19.125  20.059  0.2547  0.0895  0.1783
28899W        W71811   3.081  18.580  24.472 -0.2092  0.3095 -0.1592
28900W        W71812   4.711  19.692  23.354 -0.1745 -0.1983 -0.0420
28901W        W71813   7.311  22.179  22.559 -0.1694  0.1387 -0.1853
28902W        W71814   3.644  19.279  20.768 -0.1770 -0.2502  0.5082
28903W        W71815   6.649  19.984  18.736  0.1531  0.2122  0.1695
28904W        W71816   5.870  20.013  20.719 -0.0379  0.0287  0.0126
28905W        W71817   4.100  21.366  20.720 -0.1389 -0.3143 -0.0753
28906W        W71818   2.947  18.869  19.090  0.3952 -0.0179  0.3154
28907W        W71819   4.698  20.238  23.268 -0.2797  0.0315 -0.0755
28908W        W71820   5.507  21.311  22.040 -0.1333  0.0926 -0.2091
28909W        W71821   6.330  21.949  23.598  0.2573  0.0577 -0.0869
28910W        W71822   5.070  18.819  20.292 -0.3475 -0.0151  0.0369
28911W        W71823   7.698  20.995  19.502  0.2100  0.0726 -0.0063
28912W        W71824   5.786  21.860  23.150  0.0097  0.0266  0.0438
28913W        W71825   6.340  21.737  23.070  0.0032 -0.2419 -0.0341
28914W        W71826   4.545  20.593  22.912 -0.0567 -0.0436 -0.0707
28915W        W71827   6.277  20.929  21.991 -0.0930 -0.2468 -0.1257
28916W        W71828   3.350  17.702  21.839 -0.0294  0.1674  0.2354
28917W        W71829   3.912  20.625  20.631  0.1627 -0.2054  0.1103
28918W        W71830   5.233  18.679  19.787 -0.0443  0.0597 -0.0943
28919W        W71831   6.137  18.114  23.217  0.2911  0.0236 -0.2698
28920W        W71832   2.465  20.252  22.493 -0.0478 -0.1593  0.2107
28921W        W71833   5.756  17.445  19.588  0.0957 -0.0224  0.0182
28922W        W71834   5.917  22.784  22.423 -0.1376  0.1281  0.3723
28923W        W71835   5.555  20.636  21.393 -0.2406  0.2259 -0.1143
28924W        W71836   4.809  20.570  26.489  0.0844  0.2460  0.0120
28925W        W71837   5.133  20.679  24.231  0.2165  0.0804  0.0058
28926W        W71838   6.574  18.823  22.722  0.1755 -0.2488  0.0550
28927W        W71839   6.699  19.994  24.564 -0.1714  0.3040 -0.1719
28928W        W71840   4.514  20.428  26.822  0.2193 -0.0497  0.1172
28929W        W71841   7.506  20.869  25.004  0.0377 -0.0755  0.1346
28930W        W71842   5.064  19.010  28.025 -0.0421  0.2039 -0.2692
28931W        W71843   5.898  20.250  26.969 -0.2384 -0.1600  0.2615
28932W        W71844   6.157  20.860  26.129  0.1465 -0.2248 -0.2169
28933W        W71845   5.991  21.430  23.381  0.1657 -0.1698 -0.4273
28934W        W71846   5.413  21.011  25.541 -0.0260 -0.0710  0.1053
28935W        W71847   6.290  20.706  27.676  0.1149  0.2954 -0.0625
28936W        W71848   4.133  18.170  24.433 -0.1568  0.0216 -0.1557
28937W        W71849   3.356  19.205  25.380  0.2525 -0.1698  0.1998
28938W        W71850   7.099  18.069  26.846  0.2408 -0.1942 -0.0286
28939W        W71851   4.331  21.181  24.272 -0.0642  0.0579 -0.1192
28940W        W71852   4.438  20.282  25.358 -0.0577 -0.3619  0.1222
28941W        W71853   5.640  20.619  25.209 -0.1714 -0.3666 -0.1803
28942W        W71854   5.785  21.294  25.781 -0.0590  0.1989  0.2128
28943W        W71855   6.544  18.372  28.321 -0.1854 -0.0778 -0.0982
28944W        W71856   6.831  18.835  28.051  0.0209 -0.3361 -0.0945
28945W        W71857   5.864  21.323  24.924 -0.1274  0.0344 -0.2102
28946W        W71858   5.166  19.862  23.592  0.3074  0.0889 -0.0647
28947W        W71859   5.678  20.694  26.242 -0.3260  0.1991  0.1084
28948W        W71860   4.920  18.977  26.687  0.1430  0.1459 -0.1984
28949W        W71861   4.949  19.071  25.748 -0.1639  0.4075  0.1556
28950W        W71862   6.706  19.831  25.078 -0.2721  0.0130  0.0741
28951W        W71863   4.232  20.632  25.693  0.1906 -0.0588  0.2064
28952W        W71864   5.415  21.547  27.073  0.1087  0.0732 -0.0877
28953W        W71865   7.399  20.226  28.282 -0.2031 -0.1120 -0.3483
28954W        W71866   3.901  21.614  25.518 -0.0477  0.0250  0.1908
28955W        W71867   4.461  22.570  24.920  0.1217  0.0206 -0.1418
28956W        W71868   4.951  20.984  26.243  0.2820 -0.1921 -0.0538
28957W        W71869   7.631  20.578  26.554 -0.1058 -0.0353 -0.2004
28958W        W71870   6.366  20.011  26.983  0.0937 -0.2198  0.1003
28959W        W71871   5.940  21.784  27.693 -0.0798  0.1000  0.1616
28960W        W71872   4.458  21.078  24.722  0.2586 -0.0820 -0.0979
28961W        W71873   5.071  22.370  26.915 -0.1440  0.0336  0.0624
28962W        W71874   6.089  21.484  27.300  0.4616  0.0510 -0.1549
28963W        W71875   5.398  19.943  25.628 -0.1661  0.0722  0.0328
28964W        W71876   5.393  20.473  26.924 -0.2243 -0.0781  0.2087
28965W        W71877   6.072  23.258  24.404  0.1924  0.0018 -0.2413
28966W        W71878   6.400  20.411  26.007  0.3803 -0.3411 -0.1314
28967W        W71879   4.570  21.531  28.085  0.2863 -0.3900  0.2081
28968W        W71880   4.779  21.750  25.110 -0.1343 -0.4322  0.1154
28969W        W71881   6.400  19.585  26.501  0.1101  0.0743 -0.1498
28970W        W71882   4.746  20.587  25.562  0.2216 -0.0530  0.0038
28971W        W71883   5.842  17.850  24.152 -0.1193  0.1517 -0.0092
28972W        W71884   5.331  18.889  23.383 -0.3233 -0.2137  0.0388
28973W        W71885   6.171  18.656  23.039 -0.1480 -0.2392  0.1925
28974W        W71886   5.532  18.465  25.845 -0.1295 -0.4064 -0.0710
28975W        W71887   4.318  21.833  25.245 -0.1507 -0.0564 -0.1870
28976W        W71888   3.626  18.775  25.328  0.0337 -0.0685 -0.2591
28977W        W71889   6.043  20.789  28.547  0.0887  0.2665 -0.1833
28978W        W71890   5.502  21.425  24.006 -0.0741 -0.3382 -0.0947
28979W        W71891   6.776  19.895  25.906  0.4345  0.2303 -0.0287
28980W        W71892   3.978  20.628  27.082  0.1183  0.4189 -0.1974
28981W        W71893   3.008  20.448  24.198 -0.2630  0.4297 -0.0527
28982W        W71894   5.571  22.149  23.538 -0.1908  0.0108  0.0338
28983W        W71895   9.130  19.861  25.702 -0.0989 -0.0578  0.2681
28984W        W71896   5.897  22.492  23.381 -0.0982 -0.1056  0.0735
28985W        W71897   4.887  20.287  24.591 -0.0669  0.3178  0.1943
28986W        W71898   2.516  19.858  28.722 -0.1246  0.1889 -0.0792
28987W        W71899   4.798  20.951  27.589  0.4015  0.0974  0.2982
28988W        W71900   4.869  18.034  23.307  0.0123 -0.1135 -0.3628
28989W        W71901   6.146  20.376  26.583 -0.1672 -0.0882 -0.1455
28990W        W71902   3.571  21.687  26.461 -0.0944 -0.0439 -0.4030
28991W        W71903   6.911  18.447  25.617 -0.0520  0.2618  0.1674
28992W        W71904   4.738  21.176  25.142  0.1249  0.0967  0.0799
28993W        W71905   6.590  21.189  26.321 -0.1244 -0.4112 -0.0921
28994W        W71906   6.556  19.558  24.212 -0.2865  0.1269 -0.0139
28995W        W71907   4.429  18.981  25.745  0.1836 -0.3228 -0.0808
28996W        W71908   7.096  18.419  26.333 -0.2737  0.5404  0.0739
28997W        W71909   5.636  20.163  23.649 -0.0340 -0.0050 -0.3235
28998W        W71910   6.110  19.122  24.754 -0.1380  0.1634 -0.2323
28999W        W71911   5.760  20.758  27.961 -0.0393 -0.2282 -0.2783
29000W        W71912   6.379  17.936  22.534 -0.0402  0.1544  0.0311
29001W        W71913   4.914  21.049  25.738 -0.2699  0.2099 -0.1347
29002W        W71914   6.415  19.011  27.775 -0.0334  0.1634  0.2107
29003W        W71915   7.088  20.951  26.233 -0.1189  0.0527  0.5792
29004W        W71916   4.442  21.560  24.735  0.0860 -0.3428 -0.0926
29005W        W71917   3.731  20.705  25.858  0.1492 -0.0045 -0.1006
29006W        W71918   5.260  19.910  22.956  0.1232 -0.2824 -0.2112
29007W        W71919   3.392  19.195  26.737 -0.0225  0.1139 -0.0397
29008W        W71920   4.896  20.765  26.952 -0.3804 -0.3373  0.4551
29009W        W71921   6.697  18.351  24.015 -0.0828  0.1638  0.1049
29010W        W71922   4.325  19.389  24.869  0.2520  0.0478  0.1581
29011W        W71923   5.937  18.451  26.615 -0.0777  0.0268  0.0717
29012W        W71924   4.151  19.904  25.670 -0.1546 -0.0004 -0.3604
29013W        W71925   8.060  21.500  25.410 -0.0835  0.0305 -0.0783
29014W        W71926   6.950  19.322  23.459 -0.1082  0.0441  0.1696
29015W        W71927   6.353  19.466  23.397  0.0218 -0.1327 -0.3372
29016W        W71928   4.388  18.986  24.514  0.5813 -0.5605 -0.1257
29017W        W71929   4.467  20.986  23.791 -0.0226  0.0894 -0.1227
29018W        W71930   6.295  19.259  27.357 -0.1625  0.1572  0.1338
29019W        W71931   3.854  19.054  26.029 -0.0828 -0.1144  0.1388
29020W        W71932   6.995  19.551  26.265 -0.0856 -0.0116  0.0722
29021W        W71933   3.677  20.099  24.649 -0.2550  0.0658 -0.2077
29022W        W71934   6.233  20.279  25.190 -0.0469 -0.0457 -0.3134
29023W        W71935   5.546  20.674  23.435 -0.1768  0.1396 -0.1365
29024W        W71936   3.973  20.989  25.408 -0.4784 -0.1539 -0.0926
29025W        W71937   7.716  18.060  28.660 -0.3953 -0.2189  0.2190
29026W        W71938   6.053  21.595  25.476 -0.0354 -0.3007  0.0244
29027W        W71939   7.599  22.028  26.666 -0.0173 -0.0424  0.1324
29028W        W71940   7.150  22.091  25.734 -0.0197 -0.0357 -0.2472
29029W        W71941   5.104  19.664  26.915 -0.0244  0.1310  0.1496
29030W        W71942   4.179  20.046  23.346  0.1024 -0.1347  0.0636
29031W        W71943   6.731  21.830  25.213 -0.2408  0.1452  0.0776
29032W        W71944   4.581  20.709  26.012  0.0645  0.1066 -0.1952
29033W        W71945   4.577  19.982  23.717 -0.0789  0.1272 -0.1444
29034W        W71946   7.321  22.025  26.250  0.3216  0.1462 -0.0172
29035W        W71947   5.708  19.922  24.690  0.3340 -0.0008 -0.1298
29036W        W71948   4.000  20.255  26.676  0.1104  0.1280 -0.1203
29037W        W71949   6.461  18.009  26.444 -0.1537  0.2423 -0.3436
29038W        W71950   8.105  19.283  26.044  0.0849 -0.0352 -0.1523
29039W        W71951   5.043  17.894  24.521  0.0303 -0.2656 -0.1323
29040W        W71952   4.157  18.647  23.265  0.1696 -0.1073  0.2570
29041W        W71953   6.586  20.627  26.379 -0.1431 -0.1426 -0.0346
29042W        W71954   3.825  20.781  24.982  0.0436 -0.1504 -0.1141
29043W        W71955   3.442  20.405  26.721 -0.0881 -0.0921 -0.1770
29044W        W71956   5.924  21.132  26.991  0.0939  0.0206  0.4846
29045W        W71957   6.350  18.644  25.379 -0.0375  0.1219  0.1958
29046W        W71958   4.441  19.845  28.556  0.0354 -0.1201 -0.1440
29047W        W71959   6.175  19.382  28.761 -0.2156 -0.2151 -0.1514
29048W        W71960   3.790  19.675  23.241  0.3016 -0.2333 -0.2415
29049W        W71961   4.036  20.652  27.743 -0.0590  0.0073 -0.2545
29050W        W71962   4.488  18.212  22.528 -0.2524  0.0862  0.2546
29051W        W71963   5.614  17.778  24.594 -0.1546  0.0894 -0.1689
29052W        W71964   6.181  19.559  27.857 -0.0624 -0.1866  0.4382
29053W        W71965   7.090  19.436  24.393  0.3727  0.0662  0.0713
29054W        W71966   5.150  19.232  24.165 -0.1195  0.4144  0.1968
29055W        W71967   5.495  19.141  21.915 -0.3182 -0.1595 -0.0084
29056W        W71968   4.463  20.690  27.330 -0.1230 -0.0830  0.0852
29057W        W71969   6.059  20.978  24.586  0.0610 -0.0079 -0.1768
29058W        W71970   5.954  20.312  26.155  0.2051  0.4886  0.1424
29059W        W71971   5.272  20.987  23.137 -0.1061  0.0078  0.0793
29060W        W71972   7.114  21.330  25.842 -0.0483  0.1433 -0.1729
29061W        W71973   5.142  20.657  25.954 -0.1056 -0.0580  0.0326
29062W        W71974   5.176  19.799  26.212 -0.0693  0.2373  0.2744
29063W        W71975   7.285  21.575  26.479  0.1582 -0.1658  0.1151
29064W        W71976   4.762  19.916  26.517 -0.0804  0.1714 -0.2699
29065W        W71977   5.619  20.263  23.117  0.0839  0.0425 -0.0686
29066W        W71978   4.511  17.857  24.398  0.0364  0.2718 -0.0706
29067W        W71979   3.825  21.899  23.053 -0.0510  0.2038  0.0271
29068W        W71980   6.923  17.308  25.786 -0.3200  0.0111  0.1194
29069W        W71981   5.616  19.083  25.678  0.3901  0.1278 -0.1655
29070W        W71982   6.533  19.678  27.378 -0.0255 -0.1335  0.2132
29071W        W71983   5.298  19.331  26.551 -0.3245  0.3689 -0.0238
29072W        W71984   6.494  18.185  24.463  0.3521  0.1052  0.0291
29073W        W71985   7.206  20.802  27.258 -0.1970  0.2855  0.1187
29074W        W71986   3.265  19.958  23.338 -0.0523  0.0804  0.2858
29075W        W71987   5.951  18.045  28.040  0.1358  0.2078 -0.1706
29076W        W71988   4.674  19.399  26.682  0.0056 -0.1983 -0.0030
29077W        W71989   3.803  19.543  27.133  0.2427  0.0617  0.1161
29078W        W71990   6.963  20.128  25.472 -0.2280  0.1308 -0.2604
29079W        W71991   6.558  19.148  25.149  0.1559  0.1487  0.3376
29080W        W71992   4.748  18.964  28.404 -0.0706 -0.0210  0.1410
29081W        W71993   4.874  18.756  24.433  0.0092  0.1333  0.0658
29082W        W71994   5.126  20.430  23.038 -0.0440 -0.2402 -0.2059
29083W        W71995   5.722  22.112  25.302 -0.2881 -0.1478  0.1723
29084W        W71996   4.948  20.010  25.339 -0.0994  0.0309 -0.1744
29085W        W71997   5.453  21.042  26.999 -0.2133 -0.2487 -0.3626
29086W        W71998   5.239  21.746  23.685  0.1533  0.1683 -0.0268
29087W        W71999   7.091  20.503  26.629  0.0435 -0.2585  0.2674
29088W        W72000   4.219  23.027  25.565  0.0349  0.1494 -0.0786
29089W        W72001   7.003  17.214  24.777  0.8063  0.0574 -0.2304
29090W        W72002   4.147  20.959  26.075  0.0189 -0.0090 -0.0635
29091W        W72003   4.391  19.864  25.116  0.2307  0.0210  0.4105
29092W        W72004   3.165  19.909  25.081  0.0792  0.1429  0.1586
29093W        W72005   6.341  17.895  25.044  0.0814  0.0890 -0.1916
29094W        W72006   7.617  20.583  24.622 -0.3128 -0.0640 -0.1549
29095W        W72007   4.238  19.431  25.767 -0.0424 -0.0225  0.2508
29096W        W72008   5.204  18.923  26.253  0.0589 -0.1793 -0.0024
29097W        W72009   3.550  21.645  27.094 -0.1401  0.0328  0.0601
29098W        W72010   7.188  18.296  27.247  0.2667  0.1215  0.0212
29099W        W72011   6.149  18.193  24.085  0.1588 -0.0298 -0.1231
29100W        W72012   7.444  19.867  26.058 -0.3595  0.2222 -0.2461
29101W        W72013   6.429  20.404  24.634 -0.0036 -0.0687 -0.0469
29102W        W72014   3.633  19.893  23.675 -0.0965  0.1563 -0.1159
29103W        W72015   7.438  20.095  26.627 -0.3361 -0.0251  0.0164
29104W        W72016   5.202  19.951  24.853 -0.3791 -0.0783  0.2483
29105W        W72017   4.168  21.330  25.144  0.3780 -0.1013  0.1182
29106W        W72018   5.875  20.936  27.418  0.1475  0.3906  0.0613
29107W        W72019   4.918  21.206  24.227  0.1262  0.0790 -0.1823
29108W        W72020   5.959  21.179  26.422  0.0308  0.1912  0.0340
29109W        W72021   4.981  20.242  26.890  0.0636 -0.0365  0.1480
29110W        W72022   6.206  19.929  28.261 -0.0057  0.0710 -0.1739
29111W        W72023   5.043  18.681  24.934  0.0126  0.1461 -0.0572
29112W        W72024   6.144  18.926  25.761 -0.3286 -0.2852 -0.2007
29113W        W72025   6.771  19.019  24.127  0.1626  0.2185  0.2008
29114W        W72026   6.746  20.977  25.432 -0.3736 -0.3141 -0.2373
29115W        W72027   6.240  19.874  26.068 -0.3359 -0.3807  0.3090
29116W        W72028   5.217  20.289  28.330 -0.0117  0.0109  0.1421
29117W        W72029   6.311  17.435  27.405  0.2656  0.2777  0.0001
29118W        W72030   6.780  22.597  23.282 -0.0340  0.0074 -0.1691
29119W        W72031   6.868  19.974  26.935  0.0351  0.3901 -0.0035
29120W        W72032   5.171  20.411  23.633  0.1177 -0.1474 -0.2440
29121W        W72033   3.998  19.068  25.484 -0.1380  0.3433  0.1469
29122W        W72034   5.880  20.930  23.189  0.4686  0.3260 -0.1452
29123W        W72035   5.672  20.294  26.558 -0.2616 -0.0834  0.1879
29124W        W72036   4.546  21.131  26.632 -0.2710  0.1248  0.2283
29125W        W72037   4.678  22.064  25.788  0.3574 -0.0976  0.3825
29126W        W72038   2.944  20.936  27.568 -0.0133  0.1108 -0.0672
29127W        W72039   5.813  17.827  25.669 -0.0078 -0.0941 -0.2013
29128W        W72040   7.201  21.975  24.027  0.0115  0.2446 -0.1350
29129W        W72041   6.367  19.571  25.500 -0.3245  0.2900  0.0459
29130W        W72042   7.638  17.747  27.837 -0.1352 -0.1047  0.0381
29131W        W72043   7.210  21.290  24.064 -0.1040 -0.0122  0.1016
29132W        W72044   7.522  18.086  28.157 -0.1301  0.2420 -0.0267
29133W        W72045   4.310  18.704  25.335  0.2637 -0.3388 -0.0496
29134W        W72046   7.674  21.232  25.795  0.2477 -0.1175 -0.2987
29135W        W72047   4.015  20.258  25.033  0.0486 -0.2226  0.1399
29136W        W72048   5.271  23.656  25.951  0.2813  0.2644 -0.1094
29137W        W72049   4.715  19.589  25.705  0.1864  0.2470  0.0856
29138W        W72050   4.523  18.419  24.169 -0.0891  0.1534 -0.1712
29139W        W72051   4.802  19.235  24.605 -0.4474 -0.0939  0.2818
29140W        W72052   4.810  20.567  25.049  0.0703  0.0907  0.0748
29141W        W72053   5.458  20.285  26.060  0.0098 -0.0714 -0.0739
29142W        W72054   5.384  20.476  24.810  0.0580 -0.0238  0.1446
29143W        W72055   6.022  18.111  24.559  0.4904 -0.2095 -0.0817
29144W        W72056   5.291  19.407  24.798 -0.1876  0.0031 -0.1142
29145W        W72057   5.962  20.135  25.668  0.2131 -0.0678  0.1716
29146W        W72058   6.888  21.124  23.633 -0.1324  0.0713 -0.1452
29147W        W72059   2.561  20.182  26.066 -0.0847 -0.3161 -0.3033
29148W        W72060   6.288  18.541  27.851 -0.0403  0.5695 -0.2189
29149W        W72061   6.772  18.933  25.559  0.0446 -0.0360 -0.1199
29150W        W72062   5.313  20.248  24.367 -0.2019 -0.0299 -0.0825
29151W        W72063   6.432  20.053  25.593 -0.1128 -0.0114 -0.1458
29152W        W72064   6.164  18.838  26.866 -0.0275  0.4122 -0.3105
29153W        W72065   5.191  20.231  26.453  0.1111  0.0323  0.0194
29154W        W72066   2.989  20.472  27.443 -0.4982 -0.2269 -0.3396
29155W        W72067   7.180  21.451  27.061  0.0865 -0.0175 -0.1473
29156W        W72068   7.282  18.958  24.240 -0.1444  0.1411  0.0623
29157W        W72069   5.576  19.157  25.147  0.0537  0.2640  0.2291
29158W        W72070   6.199  19.253  22.964  0.2108  0.2071 -0.3266
29159W        W72071   6.166  20.678  24.172 -0.1157  0.0416 -0.0849
29160W        W72072   6.178  20.677  25.646  0.1876 -0.0124 -0.0259
29161W        W72073   5.625  19.476  28.806 -0.2003 -0.0766 -0.0460
29162W        W72074   4.703  18.339  23.708 -0.0714 -0.2199  0.2737
29163W        W72075   6.264  18.341  26.913 -0.4807 -0.1832  0.0151
29164W        W72076   5.164  21.909  25.473  0.0317 -0.2902 -0.1125
29165W        W72077   5.904  21.414  24.289  0.1130 -0.1776 -0.1309
29166W        W72078   5.499  19.084  23.764 -0.0115  0.1383 -0.0418
29167W        W72079   4.629  19.107  24.066 -0.1861  0.2319  0.0246
29168W        W72080   5.743  20.388  28.392 -0.0559  0.1374  0.0190
29169W        W72081   4.448  19.830  24.644  0.0512  0.0185 -0.0356
29170W        W72082   5.728  20.023  24.171 -0.0393  0.2729 -0.2029
29171W        W72083   6.996  21.358  24.999  0.0866 -0.0519 -0.3722
29172W        W72084   7.423  19.774  27.568  0.1273  0.0254 -0.2224
29173W        W72085   4.769  18.281  24.613  0.1626  0.1578 -0.0209
29174W        W72086   5.651  18.982  26.652  0.1047 -0.0103  0.0753
29175W        W72087   3.255  20.951  24.966 -0.3422  0.4727 -0.0251
29176W        W72088   5.914  19.531  25.755 -0.0957 -0.0267  0.1974
29177W        W72089   3.586  21.020  26.224 -0.3589  0.1240 -0.0547
29178W        W72090   3.494  20.375  24.955  0.0545 -0.2800  0.0009
29179W        W72091   5.401  21.075  26.012 -0.1360  0.1851 -0.3142
29180W        W72092   5.049  19.329  27.606  0.0526  0.1395  0.4824
29181W        W72093   6.832  19.425  25.502 -0.2319 -0.0352  0.0544
29182W        W72094   5.961  21.036  25.363 -0.0264 -0.1795 -0.3723
29183W        W72095   7.715  20.221  27.912 -0.2840 -0.0059  0.2516
29184W        W72096   5.291  20.740  26.549 -0.2409  0.4329  0.1549
29185W        W72097   5.618  20.898  24.779  0.0395  0.2587 -0.0692
29186W        W72098   6.688  20.873  25.919  0.1370  0.4314 -0.3003
29187W        W72099   6.300  19.519  24.947  0.1157 -0.1821 -0.2048
29188W        W72100   4.468  21.030  25.640  0.0296  0.0897  0.0793
29189W        W72101   3.192  20.978  25.870 -0.2431 -0.4621 -0.0013
29190W        W72102   3.885  21.303  26.479  0.0328 -0.1661  0.1812
29191W        W72103   5.683  20.603  25.738 -0.2982  0.1941 -0.0715
29192W        W72104   3.483  19.463  24.862 -0.1679 -0.1234 -0.2783
29193W        W72105   6.481  22.490  24.516  0.0428 -0.0435 -0.0096
29194W        W72106   2.371  19.806  28.100 -0.1711 -0.0730  0.0441
29195W        W72107   3.018  20.589  26.502 -0.3956 -0.2054  0.1617
29196W        W72108   5.159  21.411  25.490 -0.2102 -0.3090 -0.0955
29197W        W72109   6.897  20.422  25.972 -0.3469  0.2726  0.1331
29198W        W72110   6.800  20.366  24.198  0.0205 -0.1386  0.0064
29199W        W72111   5.798  22.293  26.039 -0.0764  0.0614  0.1668
29200W        W72112   5.873  20.392  24.532  0.0460 -0.0580 -0.2181
29201W        W72113   3.355  21.058  26.640  0.3061 -0.0832  0.0587
29202W        W72114   4.678  20.778  24.367  0.1672  0.0323 -0.0262
29203W        W72115   7.703  21.745  23.854  0.0788  0.0554 -0.1293
29204W        W72116   4.399  21.269  27.132  0.1696  0.2549  0.0631
29205W        W72117   5.455  20.327  27.843 -0.0163 -0.2015  0.1202
29206W        W72118   5.739  18.921  22.970 -0.1081 -0.1004  0.2116
29207W        W72119   6.708  19.185  26.557  0.0013  0.4478  0.0637
29208W        W72120   6.056  19.588  24.445  0.2352 -0.0979 -0.1375
29209W        W72121   6.310  21.228  27.683  0.1634  0.0896 -0.2196
29210W        W72122   5.716  19.841  26.075 -0.1167 -0.3693 -0.0744
29211W        W72123   3.970  18.635  24.355  0.1382 -0.0568 -0.2441
29212W        W72124   2.494  19.962  26.780  0.2464 -0.0413  0.0807
29213W        W72125   6.437  18.535  26.432  0.0680 -0.0682 -0.1051
29214W        W72126   4.574  22.177  27.296  0.1421  0.1838 -0.0257
29215W        W72127   6.609  21.582  24.727 -0.1023 -0.0754  0.1897
29216W        W72128   5.448  19.658  25.186 -0.0842  0.1159 -0.2056
29217W        W72129   5.218  20.420  25.508 -0.1411 -0.3472  0.0980
29218W        W72130   7.473  18.140  26.329  0.0376  0.0834 -0.0614
29219W        W72131   6.300  20.771  25.034 -0.1239  0.1476  0.3671
29220W        W72132   6.317  19.359  26.026  0.0260 -0.0187  0.0277
29221W        W72133   4.860  21.521  25.899 -0.1601  0.2643  0.1347
29222W        W72134   4.329  21.604  27.551 -0.0254 -0.3609 -0.3813
29223W        W72135   6.894  21.840  26.113 -0.1337 -0.0316  0.0319
29224W        W72136   2.557  18.001  24.912 -0.1525  0.0771  0.2451
29225W        W72137   6.963  19.471  24.907  0.2879  0.2709 -0.0150
29226W        W72138   6.306  18.652  27.333 -0.2141 -0.0585  0.1203
29227W        W72139   6.153  17.482  26.564 -0.2839 -0.0925 -0.2428
29228W        W72140   3.583  21.059  24.615  0.2927  0.2742  0.3360
29229W        W72141   6.511  18.643  24.807  0.0352  0.2343 -0.1306
29230W        W72142   5.978  19.748  27.182  0.1202 -0.0188 -0.1546
29231W        W72143   5.210  20.232  27.378  0.0272  0.1300 -0.1580
29232W        W72144   6.371  22.257  24.067 -0.1493  0.0715 -0.1775
29233W        W72145   7.434  20.183  25.633  0.1173 -0.2971  0.1063
29234W        W72146   4.890  19.573  23.903  0.1787 -0.0726 -0.1108
29235W        W72147   6.230  23.036  27.989 -0.0463 -0.0841  0.0838
29236W        W72148   3.931  19.689  24.788  0.1060 -0.2078  0.0489
29237W        W72149   5.794  18.643  24.527  0.3691 -0.1242 -0.0463
29238W        W72150   3.420  20.553  26.244 -0.1758  0.2736 -0.1565
29239W        W72151   5.737  18.973  27.130  0.2010 -0.0991  0.0783
29240W        W72152   6.853  22.362  27.022  0.0534  0.1407 -0.1166
29241W        W72153   2.779  19.372  24.185 -0.0661 -0.1748 -0.1583
29242W        W72154   5.762  19.343  23.261  0.0725 -0.0102  0.1587
29243W        W72155   7.099  17.955  27.732 -0.2468  0.2007 -0.1173
29244W        W72156   5.024  20.952  24.675 -0.0364 -0.2106  0.1390
29245W        W72157   7.623  20.915  26.187 -0.3056 -0.1893 -0.1856
29246W        W72158   7.592  22.298  25.881 -0.0150 -0.3310 -0.0360
29247W        W72159   4.356  20.192  26.361 -0.0616 -0.0285  0.1388
29248W        W72160   5.396  20.760  27.445 -0.4276 -0.0135  0.2346
29249W        W72161   8.191  22.736  27.150 -0.0623  0.0848  0.1021
29250W        W72162   5.653  19.251  24.174 -0.0522  0.1348  0.0720
29251W        W72163   4.907  19.415  26.185 -0.0894 -0.1964  0.3463
29252W        W72164   5.122  22.197  24.439 -0.1718 -0.0710  0.2038
29253W        W72165   6.903  19.190  25.931 -0.3956 -0.3595 -0.3423
29254W        W72166   5.995  17.713  26.105 -0.2011  0.1553 -0.1886
29255W        W72167   5.624  21.621  25.247 -0.1530 -0.0303 -0.0032
29256W        W72168   7.108  17.662  28.691  0.0856 -0.2368  0.0424
29257W        W72169   7.525  21.529  27.806  0.2929  0.1092 -0.3931
29258W        W72170   5.852  21.686  28.458 -0.1672  0.1578 -0.1300
29259W        W72171   3.825  20.384  23.606 -0.0722 -0.1369 -0.0484
29260W        W72172   5.457  19.449  27.970  0.1811 -0.0878  0.0772
29261W        W72173   5.467  21.311  26.499  0.0474 -0.0919  0.2642
29262W        W72174   5.266  21.193  25.028 -0.0768 -0.1559 -0.1170
29263W        W72175   7.829  21.045  25.319  0.1929  0.0595  0.0823
29264W        W72176   5.969  19.779  25.278  0.2710 -0.1829  0.0349
29265W        W72177   9.397  22.006  26.562 -0.0180  0.1079  0.0217
29266W        W72178   5.022  18.421  24.076 -0.0390 -0.0753 -0.0689
29267W        W72179   6.295  18.652  24.359 -0.0967  0.3898  0.2994
29268W        W72180   5.035  18.505  23.389  0.4427  0.0577 -0.2563
29269W        W72181   6.220  21.712  24.974  0.1049 -0.1937  0.0400
29270W        W72182   3.687  19.626  24.387  0.0591  0.2601  0.2535
29271W        W72183   4.396  19.847  22.965  0.0704  0.1667 -0.1207
29272W        W72184   4.451  19.306  25.335  0.1260 -0.2405 -0.0955
29273W        W72185   5.093  18.127  28.615  0.3267  0.1368 -0.0354
29274W        W72186   4.432  18.998  28.800  0.1178 -0.1393  0.0552
29275W        W72187   2.412  20.146  25.596  0.0686  0.0404  0.0793
29276W        W72188   6.216  19.118  24.190  0.1980  0.2397  0.2454
29277W        W72189   6.727  21.596  23.873  0.3172  0.2040 -0.1235
29278W        W72190   4.202  18.750  26.207 -0.0170  0.0432  0.2105
29279W        W72191   2.856  19.852  24.125  0.1627 -0.0336  0.1255
29280W        W72192   7.200  19.883  24.708  0.6246  0.2781 -0.3303
29281W        W72193   8.346  21.133  25.195  0.0077  0.0495  0.0405
29282W        W72194   3.881  16.571  25.171 -0.3149 -0.2103  0.2391
29283W        W72195   7.573  20.557  27.529  0.2579 -0.0914 -0.0582
29284W        W72196   4.377  20.912  23.276  0.3055  0.1631  0.2001
29285W        W72197   6.671  19.478  27.827  0.1013 -0.0656 -0.0421
29286W        W72198   5.131  17.424  28.386  0.2324  0.2917  0.1745
29287W        W72199   3.470  18.280  22.908  0.1475  0.1848 -0.0209
29288W        W72200   6.601  20.405  26.928 -0.0896  0.0793 -0.0759
29289W        W72201   6.903  20.859  24.295 -0.1666  0.0035 -0.0797
29290W        W72202   7.402  22.611  25.549  0.3873  0.0728  0.1054
29291W        W72203   5.503  19.398  26.064 -0.0275 -0.0371  0.0308
29292W        W72204   5.259  21.224  27.476 -0.0186 -0.0998  0.0317
29293W        W72205   4.037  19.571  27.636 -0.1293 -0.1440 -0.3782
29294W        W72206   6.104  19.919  23.427  0.2588  0.1917  0.0695
29295W        W72207   5.924  19.447  26.348 -0.1242 -0.0153 -0.2236
29296W        W72208   6.610  19.222  24.592 -0.2036 -0.1683  0.3172
29297W        W72209   5.346  18.658  26.868  0.1491  0.0373 -0.0322
29298W        W72210   6.505  19.252  23.808 -0.2232 -0.3794  0.0220
29299W        W72211   3.146  19.619  26.356  0.1090  0.0962 -0.2233
29300W        W72212   3.746  21.106  26.973 -0.1568  0.2958 -0.0201
29301W        W72213   7.343  20.833  28.933 -0.1630  0.1584 -0.0290
29302W        W72214   4.892  17.385  23.015  0.4680  0.2973  0.2356
29303W        W72215   5.847  18.831  23.993  0.0065  0.2261 -0.1748
29304W        W72216   6.477  21.111  24.739 -0.4514 -0.0333  0.2014
29305W        W72217   4.568  19.981  27.040  0.1482  0.0670  0.0010
29306W        W72218   5.018  20.071  24.020  0.1998 -0.2322  0.2121
29307W        W72219   5.541  19.830  26.589 -0.1331 -0.0407  0.1639
29308W        W72220   7.837  21.391  26.269  0.0237 -0.3688  0.0709
29309W        W72221   6.457  21.245  28.417  0.1520 -0.1089 -0.0596
29310W        W72222   5.229  21.011  23.820  0.0257 -0.2460  0.0143
29311W        W72223   6.923  19.592  23.898  0.2394  0.0535  0.1531
29312W        W72224   4.456  22.137  26.715  0.0224  0.1295 -0.1627
29313W        W72225   5.670  21.967  27.256 -0.0124  0.1657  0.0699
29314W        W72226   6.339  21.593  26.187  0.0062  0.0590  0.0402
29315W        W72227   7.301  19.535  25.704 -0.0572  0.0092  0.0577
29316W        W72228   4.793  18.690  27.055  0.0131  0.0826 -0.4245
29317W        W72229   6.627  20.518  25.479  0.0519 -0.0646  0.1706
29318W        W72230   7.278  21.160  25.356  0.0874 -0.1009 -0.3300
29319W        W72231   6.033  18.547  26.143 -0.0202 -0.0608  0.0693
29320W        W72232   5.607  20.145  25.135  0.0037  0.0043 -0.1307
29321W        W72233   5.548  20.586  23.963  0.0800 -0.3325 -0.1733
29322W        W72234   5.176  22.088  27.359 -0.0658  0.0251 -0.2129
29323W        W72235   6.204  19.981  24.802  0.0084  0.1875 -0.0351
29324W        W72236   4.577  21.940  29.764 -0.0045  0.1710 -0.0824
29325W        W72237   3.887  18.883  29.840  0.0498 -0.0004  0.1889
29326W        W72238   6.768  18.038  27.325 -0.1245 -0.0996 -0.1866
29327W        W72239   7.803  20.084  27.391  0.0062 -0.2001 -0.1615
29328W        W72240   4.762  18.485  29.863 -0.0533 -0.0328  0.0200
29329W        W72241   5.584  20.903  28.898 -0.1766 -0.3075  0.0060
29330W        W72242   4.106  19.459  29.910  0.2120 -0.1219 -0.1319
29331W        W72243   4.961  21.437  30.519 -0.0834  0.1710  0.2880
29332W        W72244   5.914  21.286  29.689 -0.0363  0.0174 -0.1435
29333W        W72245   6.083  19.395  26.896 -0.0484  0.1983 -0.0205
29334W        W72246   6.902  19.786  30.304  0.1848  0.0966  0.0643
29335W        W72247   4.997  20.682  30.909 -0.0954  0.0277  0.0425
29336W        W72248   5.560  18.805  28.180 -0.0689 -0.1282  0.1680
29337W        W72249   4.382  17.651  29.699 -0.2635 -0.0271 -0.1242
29338W        W72250   7.644  19.848  31.161 -0.0840  0.1404 -0.0085
29339W        W72251   3.544  20.342  27.613  0.0840 -0.1197 -0.1913
29340W        W72252   5.518  19.781  29.877  0.0186 -0.1177 -0.0606
29341W        W72253   7.197  20.206  31.334  0.1002 -0.2673  0.1974
29342W        W72254   5.456  21.125  29.343  0.1037  0.0812 -0.0226
29343W        W72255   6.432  19.847  29.976  0.1751  0.2801 -0.0496
29344W        W72256   4.466  16.379  31.360  0.1988  0.0581 -0.1778
29345W        W72257   5.356  19.616  27.385  0.1689 -0.0896 -0.1239
29346W        W72258   4.010  19.703  26.164 -0.2898  0.0330 -0.1377
29347W        W72259   3.929  20.735  29.500  0.1323 -0.1253 -0.0873
29348W        W72260   3.984  20.621  30.851  0.1026  0.0584  0.1243
29349W        W72261   5.970  18.500  31.738  0.0085  0.1060  0.3155
29350W        W72262   7.042  19.829  29.737  0.2412  0.2365 -0.2306
29351W        W72263   5.852  22.381  30.162 -0.0812  0.1613 -0.4077
29352W        W72264   4.454  22.422  29.858 -0.1386 -0.1933 -0.0731
29353W        W72265   6.782  18.369  30.297 -0.1770  0.3032 -0.0700
29354W        W72266   4.016  19.624  29.393  0.0915  0.1822  0.2370
29355W        W72267   5.090  21.100  28.820 -0.1670  0.3595 -0.1857
29356W        W72268   5.946  18.977  28.461 -0.1579  0.2132 -0.4326
29357W        W72269   7.808  20.330  29.115 -0.0208  0.1129  0.1758
29358W        W72270   7.172  20.862   0.585  0.1475 -0.1971 -0.2233
29359W        W72271   4.810  21.885  30.726  0.0215  0.0216 -0.2700
29360W        W72272   4.954  20.371  27.896  0.3044  0.1020  0.0807
29361W        W72273   4.453  21.406  31.978 -0.1318  0.2887 -0.0150
29362W        W72274   4.650  21.639  31.412  0.3351 -0.0904 -0.1348
29363W        W72275   5.968  21.070  30.596 -0.5575  0.0244  0.0399
29364W        W72276   4.986  19.989  28.664  0.0104 -0.1053  0.2176
29365W        W72277   4.182  21.827  27.100  0.2699 -0.1213  0.0136
29366W        W72278   5.768  19.416  28.325 -0.2339 -0.3117  0.0280
29367W        W72279   5.018  21.282  30.012  0.2041  0.0291  0.0645
29368W        W72280   3.464  23.557  31.263  0.0643  0.1927 -0.2807
29369W        W72281   7.763  19.140  30.644 -0.2042  0.0324 -0.5144
29370W        W72282   5.674  21.262  27.794 -0.0006  0.3236  0.2296
29371W        W72283   7.571  18.981  29.234 -0.0632 -0.1864 -0.1006
29372W        W72284   7.479  18.616  29.546  0.1544  0.1388  0.1235
29373W        W72285   6.860  18.557  26.775  0.4170 -0.2017 -0.0247
29374W        W72286   5.326  17.957  29.184 -0.0094 -0.3026  0.1925
29375W        W72287   4.010  21.434  27.869 -0.2485  0.1864 -0.2575
29376W        W72288   5.810  18.804  30.599  0.3111 -0.0184  0.0898
29377W        W72289   7.434  19.380  31.708  0.1518 -0.1619 -0.1648
29378W        W72290   5.440  19.444  29.447 -0.0512  0.3068  0.2371
29379W        W72291   5.940  19.742  29.051  0.0861 -0.2634  0.2014
29380W        W72292   4.698  20.077  30.565  0.1818  0.2591 -0.3573
29381W        W72293   4.417  19.040  29.845 -0.1412  0.3937 -0.0722
29382W        W72294   7.604  21.703  28.327 -0.1932  0.2097 -0.1354
29383W        W72295   6.531  19.996  27.832 -0.0427 -0.0264 -0.0911
29384W        W72296   5.136  21.446  29.153 -0.0046 -0.1178  0.1392
29385W        W72297   5.802  19.876  28.523 -0.0391 -0.0380 -0.5127
29386W        W72298   4.719  19.555  30.610  0.0245  0.0349  0.0193
29387W        W72299   3.823  20.415   0.517 -0.0784  0.1572 -0.1347
29388W        W72300   4.186  19.052  27.455  0.2287 -0.2030 -0.0488
29389W        W72301   8.157  18.829  30.988  0.0487  0.0812 -0.1952
29390W        W72302   4.714  21.222  28.400  0.2728  0.1495  0.1328
29391W        W72303   6.994  18.083  29.956  0.1153 -0.1591  0.0712
29392W        W72304   5.145  20.207  29.225  0.1562  0.2743  0.0258
29393W        W72305   7.147  19.168  31.323  0.0453 -0.3497 -0.0642
29394W        W72306   5.656  19.973  27.554  0.1126 -0.3756 -0.0691
29395W        W72307   6.841  20.081  30.768 -0.3492  0.1862  0.0193
29396W        W72308   6.915  18.610  28.988 -0.2224 -0.0276 -0.1796
29397W        W72309   5.493  19.980  27.072 -0.0664  0.0358  0.1138
29398W        W72310   5.283  19.200  28.423 -0.1177  0.1515  0.1661
29399W        W72311   8.206  19.009  30.443 -0.0599  0.0209 -0.0595
29400W        W72312   8.086  19.814  27.692 -0.3312 -0.1478 -0.2636
29401W        W72313   3.444  20.128  28.517  0.2113 -0.1168 -0.1201
29402W        W72314   4.559  19.817  30.083 -0.0550 -0.0078  0.1485
29403W        W72315   5.160  21.724  31.427 -0.3433 -0.1395  0.0808
29404W        W72316   4.275  23.922  27.288  0.0031 -0.1520  0.0226
29405W        W72317   4.284  20.947  28.829 -0.2746 -0.0444 -0.0053
29406W        W72318   4.671  19.947  28.028 -0.0666  0.1807 -0.1621
29407W        W72319   4.201  19.092  30.313  0.0549  0.1433 -0.3201
29408W        W72320   6.375  22.231  30.278 -0.0726 -0.0600  0.1070
29409W        W72321   9.610  18.897  27.859  0.0469 -0.1619  0.0639
29410W        W72322   4.892  19.391  31.086  0.0977  0.4017  0.0702
29411W        W72323   8.235  19.388  29.383 -0.3438 -0.0199  0.1451
29412W        W72324   4.424  21.582  28.671 -0.0819  0.1421  0.0376
29413W        W72325   6.986  21.126  30.945 -0.0780  0.2271  0.0532
29414W        W72326   6.653  20.170  28.634 -0.1925  0.1009 -0.2538
29415W        W72327   6.638  20.835  27.287  0.0916  0.2296 -0.1068
29416W        W72328   4.829  17.363  30.061 -0.4290  0.0396 -0.3445
29417W        W72329   4.028  20.122  29.445 -0.2287  0.0043  0.1755
29418W        W72330   3.735  19.082  30.434 -0.0860 -0.0372 -0.1410
29419W        W72331   4.913  18.898  30.193  0.0409 -0.3587 -0.4100
29420W        W72332   5.645  20.901  30.264 -0.1019  0.0561 -0.1734
29421W        W72333   4.595  19.013  27.797 -0.1256  0.1682 -0.1123
29422W        W72334   7.314  18.844  31.776 -0.4194 -0.4477  0.1023
29423W        W72335   5.946  19.641  29.656 -0.0060  0.0446 -0.2915
29424W        W72336   4.318  19.968  27.709  0.1094 -0.0424 -0.1212
29425W        W72337   7.620  19.009  31.408  0.0655 -0.1102  0.0562
29426W        W72338   5.691  19.914  28.061 -0.0597  0.3073  0.0155
29427W        W72339   7.219  20.897  29.518 -0.0491  0.1101 -0.0867
29428W        W72340   6.436  22.659  28.267  0.1568  0.1679  0.1380
29429W        W72341   3.899  19.944  29.885 -0.0897  0.2885  0.0509
29430W        W72342   4.648  18.878  29.256  0.1142 -0.0128 -0.0895
29431W        W72343   2.590  22.036  28.731 -0.1322 -0.1701  0.0525
29432W        W72344   5.152  20.649  29.647  0.0517  0.0585 -0.1793
29433W        W72345   6.055  18.473  28.346  0.1178 -0.2142 -0.0768
29434W        W72346   6.906  20.415  29.507  0.1250 -0.2128 -0.1916
29435W        W72347   5.330  21.658  27.655  0.0604  0.3024 -0.1922
29436W        W72348   3.575  21.467  29.881 -0.1271 -0.1057  0.3038
29437W        W72349   6.027  17.818  30.710 -0.2845  0.2307 -0.0583
29438W        W72350   6.443  20.393  30.833  0.1360 -0.0878  0.0697
29439W        W72351   6.463  20.525  29.942  0.0990  0.0554 -0.2720
29440W        W72352   5.109  18.529  28.342  0.2713  0.2696  0.0335
29441W        W72353   7.106  20.702  28.456  0.1330 -0.1657 -0.1794
29442W        W72354   4.977  21.327  27.030  0.1895  0.2884 -0.1105
29443W        W72355   2.475  20.765  27.794  0.1718  0.2901 -0.1648
29444W        W72356   5.298  22.478  30.137 -0.0724 -0.1735 -0.3495
29445W        W72357   6.435  19.574  30.460  0.0010  0.3115  0.1472
29446W        W72358   4.272  20.272  31.340  0.0870 -0.3346 -0.1273
29447W        W72359   5.359  19.091  31.322  0.2447 -0.0801  0.3112
29448W        W72360   3.746  19.956  27.978 -0.4025 -0.0582 -0.2512
29449W        W72361   4.525  21.558  30.251 -0.2648  0.0506 -0.2699
29450W        W72362   5.216  18.651  29.762 -0.0393  0.0355  0.1412
29451W        W72363   7.427  19.221  27.470  0.2026  0.0348  0.1379
29452W        W72364   6.502  21.109  30.777  0.4801  0.0872  0.1294
29453W        W72365   6.769  20.385  27.613 -0.4145 -0.0699  0.0992
29454W        W72366   7.164  19.589  29.362  0.0768 -0.1038  0.0465
29455W        W72367   7.281  18.703  27.873  0.2287 -0.1934 -0.0392
29456W        W72368   5.068  20.202  31.648 -0.0711  0.2939  0.4261
29457W        W72369   8.017  19.627  30.256  0.0548 -0.0258  0.0741
29458W        W72370   5.056  21.308  28.041 -0.1339 -0.0272 -0.0035
29459W        W72371   6.311  20.239  27.403  0.1446 -0.3194  0.2286
29460W        W72372   6.955  21.639  27.619 -0.1182 -0.0845  0.0377
29461W        W72373   4.835  21.171  30.908  0.1764  0.0983  0.2842
29462W        W72374   5.738  21.174  31.737  0.2428  0.1531 -0.2724
29463W        W72375   4.791  20.580  30.465  0.2352  0.1062  0.0006
29464W        W72376   5.436  19.547  31.123  0.0961 -0.0011 -0.0428
29465W        W72377   4.943  20.174  26.053 -0.0654 -0.2123  0.3214
29466W        W72378   4.955  18.898  28.831  0.0079 -0.0495  0.1218
29467W        W72379   4.859  21.914  28.205  0.0907 -0.2954  0.1788
29468W        W72380   6.768  18.927  31.097  0.1291 -0.0041  0.0425
29469W        W72381   5.117  20.230  30.740  0.1621 -0.0730 -0.1813
29470W        W72382   5.203  18.671  31.041 -0.0603 -0.0163 -0.1520
29471W        W72383   7.816  18.477  31.720  0.3315 -0.3067 -0.1498
29472W        W72384   8.345  20.148  29.912  0.1334  0.1552 -0.3400
29473W        W72385   6.217  20.886  30.175 -0.1366  0.2994  0.1383
29474W        W72386   4.302  19.725  26.661 -0.0490 -0.0932 -0.1858
29475W        W72387   6.274  18.622  30.360  0.2805  0.0339  0.1741
29476W        W72388   7.005  19.704  31.754  0.0848  0.0576 -0.3041
29477W        W72389   3.174  20.761  30.404 -0.0495  0.1734 -0.1403
29478W        W72390   6.122  21.225  31.220  0.2144 -0.0223  0.3695
29479W        W72391   5.424  21.720  28.164 -0.1724  0.0901  0.1243
29480W        W72392   4.964  18.784   0.006 -0.0891  0.3089 -0.3054
29481W        W72393   5.078  18.424  28.996  0.0250  0.0954  0.0033
29482W        W72394   4.645  21.724  29.129 -0.1649 -0.3475 -0.2602
29483W        W72395   5.291  19.704  28.347  0.4244  0.0297  0.0503
29484W        W72396   5.979  19.280  29.292  0.0064  0.2004  0.1145
29485W        W72397   6.034  22.680  30.516  0.0447  0.2836  0.1005
29486W        W72398   6.039  22.284  27.711  0.3080 -0.2281 -0.1356
29487W        W72399   6.417  21.584  29.510  0.0253  0.0003  0.2467
29488W        W72400   3.844  22.281  29.053 -0.0770  0.3285  0.3590
29489W        W72401   5.546  19.365  31.825 -0.0553  0.3744 -0.2628
29490W        W72402   4.961  20.691  29.159  0.0036  0.1754  0.0927
29491W        W72403   5.065  19.332  29.134 -0.1240 -0.0167  0.1364
29492W        W72404   4.873  19.488  28.170 -0.1493 -0.0292 -0.2648
29493W        W72405   6.535  19.243  29.600 -0.2254  0.1067 -0.1069
29494W        W72406   7.353  20.500  29.297  0.1931  0.1732 -0.3664
29495W        W72407   5.158  19.306  30.351 -0.3615  0.1653  0.1617
29496W        W72408   6.664  20.668  30.440 -0.2047  0.0293 -0.1668
29497W        W72409   4.059  22.062  29.636  0.1866 -0.2289 -0.0347
29498W        W72410   7.417  19.939  31.641  0.0158  0.1542  0.2048
29499W        W72411   6.467  20.263  29.074 -0.2577 -0.0988 -0.0884
29500W        W72412   5.696  20.997  31.235 -0.0776 -0.0554 -0.1685
29501W        W72413   4.696  20.772  31.348 -0.1743 -0.0449 -0.1964
29502W        W72414   4.158  19.734  28.137 -0.0215  0.2196 -0.0489
29503W        W72415   7.797  18.962  31.876  0.3462 -0.2182 -0.0175
29504W        W72416   4.941  19.166  29.642  0.5570 -0.0233  0.2492
29505W        W72417   4.743  20.731  28.668 -0.0871 -0.0463 -0.1431
29506W        W72418   7.396  20.300  30.840 -0.1433  0.0076 -0.0013
29507W        W72419   4.145  19.141  29.344 -0.2592  0.1406 -0.3181
29508W        W72420   3.804  21.793  27.494  0.4585 -0.1566  0.1975
29509W        W72421   3.261  18.714  31.767 -0.0267 -0.0015  0.0253
29510W        W72422   7.307  20.775  31.417 -0.0334 -0.2236  0.5215
29511W        W72423   5.097  19.845  30.280  0.0774  0.0981 -0.0512
29512W        W72424   3.880  18.638  28.678  0.1416 -0.0727  0.2526
29513W        W72425   5.286  20.531  28.821  0.2058 -0.1196  0.3610
29514W        W72426   5.381  23.019  31.483  0.2708 -0.0630 -0.2469
29515W        W72427   7.165  19.459  30.553 -0.1388 -0.0649  0.1350
29516W        W72428   5.162  20.988  30.460  0.0671 -0.0395 -0.1322
29517W        W72429   3.544  19.770  28.933  0.1974  0.2115  0.1457
29518W        W72430   7.760  20.879  29.366  0.3489 -0.5117  0.1355
29519W        W72431   6.262  19.198  31.293 -0.0681  0.6256 -0.2856
29520W        W72432   5.268  19.087  27.108  0.1314 -0.3076  0.0382
29521W        W72433   3.596  19.368  29.364  0.0981 -0.4119 -0.0609
29522W        W72434   3.632  20.434  28.089 -0.1449 -0.1624 -0.0580
29523W        W72435   5.549  19.956  30.846 -0.2498  0.2153  0.2908
29524W        W72436   4.158  20.842  29.948 -0.1218 -0.1695  0.1480
29525W        W72437   4.791  20.783  28.118  0.1343  0.0680 -0.0523
29526W        W72438   3.540  21.141  29.451 -0.3571 -0.2096  0.0421
29527W        W72439   7.838  18.695  27.743  0.1218 -0.3054  0.0363
29528W        W72440   6.487  20.054  26.503  0.0083 -0.0062  0.1398
29529W        W72441   7.098  20.332  30.422  0.3466  0.1564  0.2376
29530W        W72442   7.394  19.020  30.299  0.0983  0.1305  0.0506
29531W        W72443   7.199  19.649  26.740  0.1679 -0.0578 -0.2212
29532W        W72444   6.485  17.939  31.568  0.2763 -0.0103  0.2418
29533W        W72445   5.404  18.225  30.321 -0.1333 -0.0671 -0.0143
29534W        W72446   8.476  20.552  28.535 -0.0755  0.1701  0.0901
29535W        W72447   2.400  19.002  29.659 -0.1435 -0.1325  0.2241
29536W        W72448   5.844  22.274  30.908  0.0154  0.1159 -0.0024
29537W        W72449   3.548  20.866  30.746  0.3873 -0.0578 -0.0316
29538W        W72450   5.713  19.038  28.960  0.2344  0.0779 -0.0976
29539W        W72451   4.613  18.107  28.879 -0.1279  0.0557  0.0714
29540W        W72452   4.740  20.791  29.943  0.0892 -0.2051 -0.1104
29541W        W72453   5.220  22.042  30.414 -0.1957 -0.2609 -0.1851
29542W        W72454   6.435  19.760  28.695 -0.1470  0.1225  0.0253
29543W        W72455   6.022  18.699  29.250  0.1956 -0.4273  0.2810
29544W        W72456   5.237  20.542  30.228  0.0316 -0.0343 -0.0673
29545W        W72457   6.680  19.940  31.279  0.3286 -0.0170  0.0335
29546W        W72458   6.934  19.935  27.545 -0.3069  0.1663  0.2197
29547W        W72459   3.202  21.218  30.606 -0.1119  0.0659 -0.0476
29548W        W72460   4.251  18.594  30.601 -0.0358 -0.2211 -0.0381
29549W        W72461   6.018  20.570  29.089 -0.0791  0.0001 -0.0953
29550W        W72462   5.979  20.061  29.927  0.2110  0.0230 -0.2222
29551W        W72463   5.994  19.374  30.709  0.0571  0.3331 -0.0939
29552W        W72464   5.942  20.079  31.131  0.1794 -0.0697  0.1655
29553W        W72465   4.016  19.817  31.727  0.0957  0.1581 -0.0100
29554W        W72466   3.114  17.580  30.221 -0.1879 -0.1373  0.1121
29555W        W72467   7.150  21.637  31.832 -0.0936  0.1548 -0.2830
29556W        W72468   7.686  19.693  27.965  0.4513  0.2485  0.0800
29557W        W72469   7.611  18.115  29.458 -0.1520 -0.2446  0.1386
29558W        W72470   7.073  19.935  28.734 -0.0500  0.0722 -0.0653
29559W        W72471   7.140  20.662  29.987 -0.0818 -0.3172  0.3453
29560W        W72472   5.575  19.615  30.338  0.1814 -0.1855 -0.0071
29561W        W72473   6.176  19.682   0.663 -0.1535 -0.1313 -0.1692
29562W        W72474   4.830  19.507  28.707  0.2343 -0.1479  0.2732
29563W        W72475   4.519  19.445  31.912  0.1518  0.0327 -0.2357
29564W        W72476   4.486  20.515  27.844 -0.2313  0.0227  0.2797
29565W        W72477   5.357  19.783  29.070 -0.2056 -0.1435 -0.0424
29566W        W72478   7.583  19.809  28.961 -0.2383 -0.0899 -0.1342
29567W        W72479   4.282  18.593  29.506  0.0419 -0.0797  0.0143
29568W        W72480   3.762  19.464  31.410  0.0540  0.0377 -0.2405
29569W        W72481   4.680  18.521  28.613  0.0490 -0.1705  0.0472
29570W        W72482   4.523  19.494  27.752 -0.1768  0.0850 -0.2031
29571W        W72483   5.065  22.625  30.625 -0.0703 -0.1556 -0.0706
29572W        W72484   6.448  20.359  31.974 -0.2831 -0.1704 -0.1442
29573W        W72485   5.357  18.756  28.716  0.0565 -0.2520 -0.1257
29574W        W72486   6.652  18.533  30.803  0.3289  0.1803  0.2209
29575W        W72487   4.844  19.789  29.205  0.2040  0.1861  0.0167
29576W        W72488   6.619  19.366  30.958 -0.0570 -0.1811 -0.1047
29577W        W72489   4.476  20.807  29.519  0.4355  0.0389 -0.0372
29578W        W72490   4.127  21.152  30.454  0.0335 -0.0592 -0.1896
29579W        W72491   4.526  21.241  29.200 -0.1645  0.0571  0.1139
29580W        W72492   5.414  19.118  30.773  0.1070 -0.0063  0.0306
29581W        W72493   6.872  20.231  29.949 -0.1970 -0.1719 -0.1744
29582W        W72494   6.095  19.953  30.405 -0.5481  0.1537 -0.2902
29583W        W72495   7.994  19.279  31.127 -0.3480 -0.2116  0.1028
29584W        W72496   5.462  22.609  30.997 -0.0303 -0.2735  0.1212
29585W        W72497   4.734  20.334  28.365  0.3336 -0.3035 -0.2758
29586W        W72498   7.398  20.794  30.923  0.3933  0.0009  0.0748
29587W        W72499   8.035  20.775  28.933 -0.0931 -0.0560  0.0260
29588W        W72500   4.767  20.350  29.507 -0.2599 -0.1618 -0.0909
29589W        W72501   2.984  18.744  30.597 -0.1021  0.0147  0.1665
29590W        W72502   6.424  19.877  31.739 -0.0511 -0.0778 -0.0278
29591W        W72503   5.910  21.602  29.315  0.0303  0.0149  0.2498
29592W        W72504   4.129  19.451  28.771 -0.0734  0.1163  0.0141
29593W        W72505   6.155  22.725  27.609  0.0274 -0.3861  0.1986
29594W        W72506   3.791  20.445  31.354  0.0265  0.0630 -0.3508
29595W        W72507   4.255  19.904  29.025 -0.0778  0.2473 -0.1030
29596W        W72508   5.139  22.268  27.884  0.0545  0.0643 -0.0826
29597W        W72509   6.170  21.065  28.120  0.0734 -0.3447 -0.1608
29598W        W72510   5.814  20.457  27.453 -0.1507 -0.0117  0.2505
29599W        W72511   4.683  22.991  28.959  0.1687 -0.0628  0.1165
29600W        W72512   6.795  18.488  27.569  0.2114  0.0660  0.0811
29601W        W72513   5.073  21.947  29.383 -0.0664  0.2373 -0.1412
29602W        W72514   3.017  21.439  27.539  0.2611  0.0729 -0.2433
29603W        W72515   6.674  21.907  27.945 -0.1309  0.0551 -0.0124
29604W        W72516   3.602  21.427  28.243 -0.1708  0.1455  0.0775
29605W        W72517   7.221  21.787   0.450 -0.1602  0.0717  0.2893
29606W        W72518   8.017  17.838  28.335  0.0467  0.3198 -0.0450
29607W        W72519   7.128  18.669  30.013 -0.0723  0.1196  0.3345
29608W        W72520   8.037  17.951  29.036 -0.0026  0.1984  0.0196
29609W        W72521   6.833  22.268  30.757 -0.3249  0.2735 -0.1304
29610W        W72522   5.508  20.127  30.217  0.1605 -0.0521  0.0011
29611W        W72523   5.685  20.211  28.897  0.0794 -0.2005  0.0206
29612W        W72524   4.464  19.937  29.545 -0.4775 -0.0182 -0.0111
29613W        W72525   8.316  17.893   0.050  0.1492 -0.2193  0.1950
29614W        W72526   4.140  21.774  29.151 -0.0941  0.1258  0.0659
29615W        W72527   7.114  21.722  28.475 -0.0965  0.2511 -0.2260
29616W        W72528   5.029  19.639  29.703  0.0493 -0.2799 -0.0350
29617W        W72529   5.411  20.785  28.430 -0.0541  0.2463  0.2217
29618W        W72530   6.986  17.211  29.485  0.0330  0.0474 -0.0152
29619W        W72531   6.186  20.711  27.107  0.1066 -0.3107 -0.0259
29620W        W72532   5.207  20.131  29.721 -0.0539  0.0730 -0.0843
29621W        W72533   5.287  21.377  28.473  0.1536  0.1476  0.2104
29622W        W72534   5.008  21.767  30.048  0.3923 -0.1186 -0.0123
29623W        W72535   5.119  22.889  29.828  0.0875  0.0315  0.1608
29624W        W72536   4.402  19.370  28.371  0.0933 -0.0846  0.2133
29625W        W72537   7.213  19.103  29.678  0.1386  0.4142 -0.0240
29626W        W72538   4.719  18.999  30.647  0.0283 -0.3232  0.0852
29627W        W72539   6.431  18.169  30.545 -0.1921 -0.0985 -0.1400
29628W        W72540   4.391  17.779  28.527 -0.0857  0.0586 -0.2204
29629W        W72541   8.126  19.967  28.208 -0.1663  0.3321 -0.2220
29630W        W72542   5.482  20.643  30.703  0.0891 -0.1626 -0.2291
29631W        W72543   3.787  20.438  30.267 -0.0687  0.0182 -0.0627
29632W        W72544   4.665  18.103  28.273  0.1576 -0.0270 -0.0548
29633W        W72545   6.395  19.850  30.850  0.0398  0.1445 -0.3467
29634W        W72546   6.048  20.175  27.815 -0.1467  0.2858  0.0946
29635W        W72547   6.510  21.535  31.130  0.1194  0.1911  0.0447
29636W        W72548   3.960  19.097  28.446  0.1066 -0.0206 -0.0338
29637W        W72549   4.227  20.274  27.343 -0.1023 -0.2253 -0.1458
29638W        W72550   4.248  20.419  28.677 -0.1581 -0.0691 -0.1034
29639W        W72551   4.814  20.248  30.029 -0.1696 -0.3225 -0.2381
29640W        W72552   7.623  21.517  31.957 -0.0280  0.2259  0.0906
29641W        W72553   3.878  17.326  29.816  0.0846  0.0541 -0.1796
29642W        W72554   7.448  20.346  28.747  0.1442 -0.1440 -0.1113
29643W        W72555   7.382  19.902  30.463 -0.2341 -0.0719 -0.2901
29644W        W72556   4.616  22.569  26.899 -0.3875  0.0250 -0.4037
29645W        W72557   6.850  20.591  30.990  0.2792 -0.1051 -0.0159
29646W        W72558   6.484  21.267  29.113 -0.0678 -0.2231 -0.0499
29647W        W72559   4.290  20.609  30.437  0.1327  0.0999 -0.2872
29648W        W72560   5.546  21.653  31.731 -0.0330 -0.1715  0.3865
29649W        W72561   7.521  19.630  29.799 -0.1365 -0.2921  0.1615
29650W        W72562   6.800  19.279  28.238  0.1598  0.1693  0.0045
29651W        W72563   5.434  21.054  29.817 -0.1269  0.1467 -0.3752
29652W        W72564   3.929  23.319  27.674 -0.4060 -0.2889 -0.0088
29653W        W72565   6.867  17.974  30.757 -0.1408  0.1042 -0.3020
29654W        W72566   5.884  18.300  30.428 -0.0911 -0.1292  0.2492
29655W        W72567   5.388  22.743  26.113 -0.0913 -0.1833 -0.1037
29656W        W72568   9.368  18.688  30.564  0.0836  0.0973  0.0622
29657W        W72569   6.206  23.492  30.837  0.1219  0.4012  0.2934
29658W        W72570   2.820  21.498  30.437  0.1134  0.0775  0.2404
29659W        W72571   3.524  20.025  26.319  0.2596 -0.3467  0.1480
29660W        W72572   5.675  21.536  31.104  0.2405 -0.0988  0.2306
29661W        W72573   4.245  20.756  28.284 -0.2036 -0.3379 -0.0012
29662W        W72574   6.267  20.479  28.197 -0.2376 -0.1531 -0.0986
29663W        W72575   6.489  20.717  29.331 -0.0838  0.1278  0.0490
29664W        W72576   6.816  19.905  29.131 -0.1096 -0.0451 -0.1281
29665W        W72577   7.855  20.163  29.755  0.1990  0.1999  0.2418
29666W        W72578   5.552  20.037  29.432  0.0751 -0.0520  0.1941
29667W        W72579   6.684  19.435  29.013 -0.0669  0.0498 -0.1895
29668W        W72580   8.171  18.736  27.269 -0.1147 -0.3182 -0.1700
29669W        W72581   3.896  22.411  30.080  0.0077  0.3449 -0.0515
29670W        W72582   1.944  20.498  26.121 -0.1736 -0.2088  0.0777
29671W        W72583   4.717  20.188  27.489  0.3158  0.1971 -0.0764
29672W        W72584   4.565  19.471  29.597  0.0749 -0.1851 -0.0338
29673W        W72585   5.438  18.978   0.157 -0.1539  0.1981  0.3578
29674W        W72586   3.443  19.215  30.827 -0.1933 -0.0804  0.1956
29675W        W72587   4.235  20.494  29.155  0.1353  0.1558  0.0484
29676W        W72588   5.324  19.195  29.886 -0.0363  0.0596  0.1562
29677W        W72589   6.782  21.427  28.085  0.2122 -0.1355  0.0893
29678W        W72590   5.282  17.265  30.511  0.0099 -0.2983 -0.4575
29679W        W72591   3.857  18.359  29.718  0.0014 -0.2696 -0.0348
29680W        W72592   6.070  20.136  29.370  0.1312  0.2313  0.1513
29681W        W72593   6.146  21.969  27.184  0.1527  0.3179 -0.1973
29682W        W72594   5.730  21.205  28.275  0.3648 -0.1758  0.0428
29683W        W72595   8.120  20.541  31.647  0.0587  0.0863  0.1808
29684W        W72596   4.781  19.678  27.359 -0.1797 -0.5167  0.3044
29685W        W72597   5.693  19.034   0.563  0.0080 -0.0078  0.2307
29686W        W72598   5.711  18.893  31.624  0.1241  0.3084  0.0350
29687W        W72599   2.727  20.253  27.862 -0.1549 -0.1781  0.0164
29688W        W72600   3.913  21.173  30.903  0.0813  0.0056 -0.0420
29689W        W72601   7.172  20.194  27.848 -0.2884  0.1018 -0.4500
29690W        W72602   6.790  22.209  28.470 -0.0211 -0.1020  0.0730
29691W        W72603   5.556  22.367  30.552 -0.2223  0.2502 -0.0874
29692W        W72604   4.273  22.146  31.422  0.1410  0.0715  0.0716
29693W        W72605   3.767  18.063  30.699  0.0974 -0.0309 -0.2150
29694W        W72606   6.036  21.275  28.810 -0.2284 -0.1501  0.0553
29695W        W72607   3.506  21.681  30.943  0.2258  0.2471  0.1442
29696W        W72608   5.957  21.043  29.254 -0.1721 -0.1219  0.1516
29697W        W72609   6.816  19.056  30.547  0.2591  0.2239  0.1192
29698W        W72610   5.951  20.498  30.097  0.0890 -0.0718 -0.1382
29699W        W72611   4.243  18.767  31.240 -0.0721  0.1262  0.1046
29700W        W72612   4.615  19.849  30.978 -0.1205  0.2672 -0.1817
29701W        W72613   7.470  21.385  31.479  0.0291 -0.0615 -0.0544
29702W        W72614   5.765  17.729  29.521  0.2775 -0.2293  0.0045
29703W        W72615   7.039  19.484  28.578 -0.0983  0.3751  0.1117
29704W        W72616   6.178  20.289  28.674  0.1333  0.1483  0.1613
29705W        W72617   5.968  20.545  30.769  0.2948  0.0627 -0.1516
29706W        W72618   6.697  19.760  28.255  0.0182 -0.0932  0.1173
29707W        W72619   6.326  18.965  31.814 -0.0423  0.4784  0.1051
29708W        W72620   5.564  20.532  29.315  0.2174 -0.0407 -0.1130
29709W        W72621   5.857  21.395   0.179  0.0991 -0.0784 -0.1652
29710W        W72622   5.932  19.130  27.932 -0.0101  0.1407 -0.2239
29711W        W72623   7.970  19.691  27.156 -0.0094  0.0883  0.1394
29712W        W72624   5.416  23.230  30.134 -0.0551  0.1086 -0.1204
29713W        W72625   7.717  21.250   0.640 -0.0275  0.0981  0.0922
29714W        W72626   5.210  23.016  30.973 -0.2232  0.2222 -0.0828
29715W        W72627   7.930  21.145  30.799  0.0704  0.2680  0.0394
29716W        W72628   4.844  17.875  29.530  0.0922 -0.0357  0.0990
29717W        W72629   3.418  19.802  26.848  0.3147  0.1092  0.0319
29718W        W72630   6.688  19.490  26.955 -0.2974  0.1536  0.1430
29719W        W72631   7.511  20.011  29.440 -0.1958  0.0496 -0.2192
29720W        W72632   4.709  19.361  30.130 -0.0905 -0.1474  0.0275
29721W        W72633   7.931  18.285  27.969  0.1346  0.1883  0.0665
29722W        W72634   3.991  23.572  28.942 -0.2302 -0.3333  0.1300
29723W        W72635   7.052  21.723  30.642  0.0044 -0.0054  0.0309
29724W        W72636   6.746  17.322   0.136  0.0580 -0.0579 -0.0880
29725W        W72637   7.242  20.888  30.463  0.0411 -0.3256 -0.1036
29726W        W72638   3.613  18.446   0.015  0.3206  0.0390 -0.2014
29727W        W72639   3.649  21.184   0.047 -0.0611 -0.0388  0.1923
29728W        W72640   5.377  20.247  31.167 -0.3771 -0.0628  0.0724
29729W        W72641   2.775  21.027   0.894  0.5664 -0.3204 -0.0943
29730W        W72642   4.972  18.295  31.905  0.0821 -0.1769  0.1426
29731W        W72643   2.703  18.376  29.828 -0.0604 -0.0167  0.2265
29732W        W72644   5.591  18.468  31.357 -0.1354  0.0657 -0.0885
29733W        W72645   6.763  20.564   0.788  0.0346  0.1846 -0.1233
29734W        W72646   5.510  21.337  30.687  0.1022  0.0717  0.2977
29735W        W72647   4.272  16.770  31.665 -0.1083  0.4089 -0.1264
29736W        W72648   6.016  20.623  31.764  0.0857 -0.0761 -0.3181
29737W        W72649   2.365  19.183  31.719  0.3204  0.2474  0.0979
29738W        W72650   6.737  16.520  31.716  0.0285 -0.3056  0.0662
29739W        W72651   3.749  20.976  31.300  0.2168 -0.2579  0.2092
29740W        W72652   4.499  20.480  31.705 -0.0941 -0.1274  0.1988
29741W        W72653   5.580  20.295  31.831  0.0908 -0.1941 -0.0023
29742W        W72654   3.530  19.052   0.029 -0.0148 -0.3776  0.2679
29743W        W72655   4.476  20.389  30.867  0.0976 -0.0702  0.0201
29744W        W72656   4.309  17.945  31.839  0.0687  0.0809  0.0178
29745W        W72657   3.212  21.377   1.023  0.0077 -0.0008  0.0594
29746W        W72658   7.464  16.620  31.816 -0.0386  0.1651  0.0360
29747W        W72659   5.082  18.708  31.541  0.1040 -0.0445 -0.1873
29748W        W72660   6.227  18.128   0.011  0.0554 -0.0095 -0.1070
29749W        W72661   5.886  18.875  31.125 -0.1234  0.0933  0.2578
29750W        W72662   3.321  18.936  30.229 -0.0002  0.0568  0.2717
29751W        W72663   3.217  22.005   0.756 -0.3387 -0.1657  0.1500
29752W        W72664   3.960  18.197  31.206 -0.2489  0.1451  0.0214
29753W        W72665   4.151  19.672  31.165  0.0074  0.4977  0.0842
29754W        W72666   5.778  19.858  31.893  0.1582  0.2961  0.0077
29755W        W72667   3.001  18.365  31.444 -0.2829  0.2790  0.1993
29756W        W72668   7.305  19.739   0.447  0.1863  0.2418 -0.1545
29757W        W72669   5.996  17.779   0.412 -0.1580 -0.0091 -0.0812
29758W        W72670   2.896  17.917  30.498  0.2280  0.2566  0.2047
29759W        W72671   4.093  20.102  30.879  0.1253  0.0128 -0.0154
29760W        W72672   4.044  21.150  31.693 -0.1255  0.0880  0.0088
29761W        W72673   6.245  19.696  31.267 -0.0673  0.2250  0.1488
29762W        W72674   6.581  20.956   0.102 -0.1540  0.2376 -0.1943
29763W        W72675   4.044  21.202   0.307 -0.2149 -0.1396  0.0255
29764W        W72676   7.870  18.073   0.028  0.1176 -0.0057  0.1495
29765W        W72677   5.190  19.634  30.711  0.2210 -0.0021 -0.3819
29766W        W72678   4.615  18.382  31.517 -0.1521 -0.2234 -0.1615
29767W        W72679   5.956  22.235   0.475 -0.2157 -0.1278  0.4106
29768W        W72680   2.832  18.063  31.051  0.0034  0.1681  0.1651
29769W        W72681   5.956  19.004   0.124  0.1033 -0.1544  0.0341
29770W        W72682   5.019  17.381  31.553  0.0824  0.2774 -0.1539
29771W        W72683   4.422  20.923  30.902 -0.3103  0.2878  0.0838
29772W        W72684   6.311  20.630   0.443  0.2217 -0.0352  0.2573
29773W        W72685   3.937  21.749   0.294  0.0305  0.0999 -0.2864
29774W        W72686   7.246  20.145   0.110  0.0597 -0.0071  0.1097
29775W        W72687   6.093  18.453  30.886  0.2085 -0.2127 -0.2142
29776W        W72688   5.960  17.865  31.658 -0.1591  0.2038 -0.1142
29777W        W72689   5.549  19.918  31.459  0.0899 -0.0864  0.4256
29778W        W72690   5.483  19.415   0.297 -0.1382  0.2284 -0.0107
29779W        W72691   6.586  20.189  30.398  0.3449 -0.0982 -0.1592
29780W        W72692   6.370  21.907   0.452  0.0436 -0.1854 -0.1002
29781W        W72693   4.116  21.684  31.629  0.0839  0.0068  0.2593
29782W        W72694   4.225  21.959  30.188  0.2315 -0.2468 -0.0433
29783W        W72695   4.895  20.723  31.838  0.0241  0.2343  0.0466
29784W        W72696   3.981  20.700   0.143  0.1125  0.0017 -0.3586
29785W        W72697   4.194  20.749  31.344  0.4329  0.4784 -0.2257
29786W        W72698   5.160  22.182  30.948 -0.2922  0.3342  0.2862
29787W        W72699   1.379  17.907   0.569  0.1168  0.0118 -0.1827
29788W        W72700   5.586  22.026  31.380  0.0595 -0.1191  0.1446
29789W        W72701   8.207  21.076   0.750 -0.1382 -0.0917  0.1807
29790W        W72702   6.193  19.916   0.204  0.0905  0.1669  0.0888
29791W        W72703   4.599  24.913  19.307 -0.0154 -0.2907  0.0487
29792W        W72704   4.678  22.985  16.415 -0.0583 -0.1368 -0.1902
29793W        W72705   5.155  21.969  17.191  0.2145 -0.2716  0.1040
29794W        W72706   7.368  23.264  17.415  0.1132  0.1476 -0.3123
29795W        W72707   5.153  22.526  17.046  0.4439 -0.0715 -0.1386
29796W        W72708   7.017  23.825  17.734 -0.0572  0.1330 -0.0927
29797W        W72709   4.760  21.700  19.244  0.2226 -0.0458 -0.3519
29798W        W72710   5.937  24.584  19.917 -0.1077  0.1007 -0.1269
29799W        W72711   7.239  26.199  19.080  0.1057 -0.0852 -0.2185
29800W        W72712   6.479  24.247  15.501 -0.1087 -0.2365 -0.1484
29801W        W72713   4.936  24.722  20.174 -0.0763 -0.0882  0.1532
29802W        W72714   6.314  24.169  18.285 -0.1640  0.1140 -0.0169
29803W        W72715   5.137  21.749  16.335 -0.1101  0.0961 -0.3030
29804W        W72716   4.996  22.997  17.377  0.2180  0.0415  0.1561
29805W        W72717   6.550  23.757  20.182  0.0423  0.0490 -0.1069
29806W        W72718   4.227  23.732  15.867  0.1055  0.0980 -0.3778
29807W        W72719   4.914  24.188  20.111  0.1026  0.1132 -0.2087
29808W        W72720   5.340  22.368  17.433  0.2011  0.1114  0.2440
29809W        W72721   5.656  26.256  18.157  0.0336 -0.2903  0.1080
29810W        W72722   5.833  22.609  19.616  0.0144  0.1673 -0.0229
29811W        W72723   5.020  21.963  19.574  0.2908 -0.3320 -0.0022
29812W        W72724   6.166  24.320  17.319 -0.2410 -0.1047  0.1976
29813W        W72725   5.616  24.217  16.304 -0.1897  0.0100  0.0797
29814W        W72726   2.848  24.225  17.814 -0.1700  0.2067  0.0849
29815W        W72727   4.107  23.520  18.305 -0.0388 -0.3083 -0.2106
29816W        W72728   6.688  22.768  18.620 -0.1956 -0.0848 -0.0324
29817W        W72729   7.906  23.482  17.550  0.0596  0.0474  0.0021
29818W        W72730   5.593  25.020  18.308 -0.0484 -0.1416  0.0081
29819W        W72731   6.469  24.519  17.009  0.1629 -0.0817 -0.0708
29820W        W72732   6.988  21.481  20.032 -0.2314 -0.0991  0.0133
29821W        W72733   4.193  23.324  16.664 -0.0259  0.0029  0.0823
29822W        W72734   4.195  25.575  17.693 -0.1194 -0.3395  0.0085
29823W        W72735   6.019  24.205  16.846  0.0475 -0.0914  0.0107
29824W        W72736   7.061  24.363  17.459 -0.1913 -0.0743  0.2263
29825W        W72737   6.705  24.866  19.449 -0.1264  0.0197 -0.3256
29826W        W72738   3.727  26.814  19.840 -0.1200 -0.1628  0.2613
29827W        W72739   3.935  25.411  15.819  0.3197  0.2219 -0.2573
29828W        W72740   3.963  25.420  19.880 -0.1409  0.2189  0.1344
29829W        W72741   3.948  26.035  19.806 -0.0655 -0.2082 -0.1507
29830W        W72742   6.628  23.729  18.908  0.2236  0.0774  0.0914
29831W        W72743   6.079  23.089  18.086 -0.0845 -0.2413  0.3651
29832W        W72744   5.461  24.444  18.034  0.0100 -0.0244  0.1935
29833W        W72745   6.053  23.732  17.199  0.1186  0.1497  0.0423
29834W        W72746   5.957  23.608  20.753 -0.2143 -0.0550  0.1036
29835W        W72747   3.215  24.638  17.796  0.0922  0.1154 -0.2168
29836W        W72748   8.284  22.793  21.562 -0.2224  0.1001  0.3070
29837W        W72749   3.970  24.645  16.818 -0.0207  0.1298 -0.0129
29838W        W72750   7.094  23.607  15.780  0.2685 -0.0546  0.1521
29839W        W72751   4.689  22.414  16.154  0.0023 -0.1838  0.2861
29840W        W72752   7.068  23.047  18.428  0.0453  0.2814 -0.1295
29841W        W72753   4.483  21.735  17.500 -0.0611 -0.2447 -0.1260
29842W        W72754   5.061  26.968  18.798 -0.0340  0.0652 -0.1630
29843W        W72755   4.128  23.663  19.129 -0.1725  0.1484 -0.0612
29844W        W72756   6.595  24.685  17.555  0.1700 -0.0890  0.0258
29845W        W72757   5.410  23.279  17.421  0.3060  0.1800 -0.0057
29846W        W72758   6.219  22.803  19.117 -0.3849 -0.1625  0.0612
29847W        W72759   4.075  25.338  18.601 -0.3361  0.0649  0.1783
29848W        W72760   5.610  23.541  16.918  0.0686  0.2892  0.0689
29849W        W72761   6.927  24.338  16.777  0.1617 -0.0793  0.1581
29850W        W72762   6.256  25.820  17.763  0.4482 -0.1567  0.1385
29851W        W72763   6.098  24.504  16.228 -0.4963  0.1378  0.0816
29852W        W72764   4.170  23.448  17.156  0.0884 -0.4902  0.0377
29853W        W72765   3.485  23.461  20.590  0.0017  0.0880 -0.2388
29854W        W72766   3.590  22.539  18.376 -0.1147 -0.2466  0.1985
29855W        W72767   3.031  22.233  16.863  0.3732 -0.1843  0.4538
29856W        W72768   7.522  22.952  20.022  0.2971  0.2556 -0.1585
29857W        W72769   4.249  25.077  19.632 -0.2396 -0.0263 -0.0856
29858W        W72770   6.957  22.155  18.017  0.0521  0.2334  0.0155
29859W        W72771   5.630  24.029  17.334  0.0730 -0.1354  0.0837
29860W        W72772   7.258  25.136  17.955 -0.0409 -0.0888 -0.0767
29861W        W72773   7.706  23.411  16.463  0.0377 -0.1187  0.0823
29862W        W72774   6.694  22.522  19.097 -0.0933 -0.1586  0.1229
29863W        W72775   5.630  21.959  18.369 -0.0121 -0.1062  0.1730
29864W        W72776   5.330  23.288  16.495 -0.0496 -0.0317  0.1046
29865W        W72777   6.137  23.754  17.759  0.2948 -0.0475  0.1223
29866W        W72778   6.790  24.957  18.886 -0.3009  0.3179  0.0472
29867W        W72779   6.145  22.265  15.513  0.3040 -0.1411 -0.0507
29868W        W72780   4.476  23.866  19.953 -0.0804 -0.1643 -0.1184
29869W        W72781   5.914  21.865  20.115 -0.1113  0.0696  0.0435
29870W        W72782   4.897  25.157  20.471 -0.0527 -0.1479 -0.0119
29871W        W72783   4.243  25.859  15.576 -0.0698  0.0083 -0.0762
29872W        W72784   4.868  24.512  18.977 -0.0218  0.1889 -0.2523
29873W        W72785   4.804  24.790  16.496  0.2304 -0.2231 -0.1942
29874W        W72786   3.851  22.892  19.062 -0.0685  0.1566  0.0032
29875W        W72787   4.513  24.345  20.375  0.1677  0.0912 -0.1210
29876W        W72788   6.192  22.640  18.413 -0.0723 -0.3500  0.0132
29877W        W72789   5.016  22.902  18.297 -0.1375  0.1059  0.0364
29878W        W72790   5.858  21.781  17.881  0.0317  0.2972 -0.1711
29879W        W72791   4.478  23.688  16.830  0.1859  0.1364 -0.0209
29880W        W72792   6.543  23.806  17.545  0.0171  0.6178  0.0967
29881W        W72793   8.197  22.850  16.308  0.0784  0.1474 -0.1156
29882W        W72794   6.455  24.309  16.535 -0.1916 -0.1514 -0.2551
29883W        W72795   5.170  23.437  19.333 -0.1025  0.0125 -0.1992
29884W        W72796   5.085  22.584  16.403  0.0822  0.1635 -0.0497
29885W        W72797   5.602  21.723  19.353  0.3080 -0.0870 -0.1145
29886W        W72798   3.356  21.290  20.030 -0.4653 -0.0687  0.0353
29887W        W72799   7.820  23.719  19.032 -0.2748  0.0296 -0.0582
29888W        W72800   4.501  23.504  16.335  0.2681 -0.1208  0.2078
29889W        W72801   5.347  22.418  18.428  0.2318 -0.4461  0.1618
29890W        W72802   6.077  25.044  17.139 -0.0250 -0.0775  0.2067
29891W        W72803   3.839  24.110  16.588  0.1606  0.2239  0.0060
29892W        W72804   8.003  23.317  18.871  0.0577  0.1282  0.2987
29893W        W72805   5.532  25.075  15.552  0.0425 -0.0904 -0.1529
29894W        W72806   6.085  23.774  20.303 -0.0421 -0.3767 -0.0709
29895W        W72807   6.536  25.826  16.644  0.0992  0.0901  0.2288
29896W        W72808   3.147  24.075  19.998 -0.1071  0.1550  0.0250
29897W        W72809   3.470  21.425  15.934 -0.1602  0.1257 -0.1284
29898W        W72810   4.213  26.629  18.308  0.2536 -0.0932  0.1506
29899W        W72811   5.665  24.525  17.039 -0.2351  0.0988  0.1969
29900W        W72812   4.915  21.964  16.731 -0.3240  0.1784  0.2990
29901W        W72813   6.938  26.565  19.015  0.0975  0.2871  0.0487
29902W        W72814   6.487  23.470  17.925 -0.0490  0.3031  0.2647
29903W        W72815   4.440  23.869  18.182 -0.1693  0.0525 -0.0407
29904W        W72816   7.619  21.854  21.946 -0.1615 -0.0757  0.1032
29905W        W72817   6.562  23.886  19.645  0.0530  0.0160 -0.1715
29906W        W72818   7.896  23.344  17.104 -0.0490  0.2462  0.1015
29907W        W72819   4.039  21.013  17.484 -0.0790  0.0145 -0.0205
29908W        W72820   6.274  23.542  16.424  0.1968  0.1189 -0.2608
29909W        W72821   3.008  25.817  16.087 -0.1919  0.2618 -0.1583
29910W        W72822   5.077  23.055  16.915  0.0742 -0.2644  0.0587
29911W        W72823   6.068  24.671  16.726  0.0232 -0.2469  0.0816
29912W        W72824   6.693  21.800  18.230  0.1696 -0.1540  0.2404
29913W        W72825   4.190  23.520  20.152 -0.3579 -0.0224 -0.1444
29914W        W72826   6.500  23.319  20.422  0.1241  0.3411  0.0335
29915W        W72827   4.149  22.990  15.711  0.0868 -0.0113  0.4273
29916W        W72828   5.206  24.177  19.665  0.1144  0.0177  0.1802
29917W        W72829   6.452  21.794  17.760 -0.1074 -0.1792 -0.2387
29918W        W72830   7.799  22.921  16.633 -0.0193  0.1987 -0.0039
29919W        W72831   4.447  22.997  19.739 -0.3041 -0.4688  0.2715
29920W        W72832   7.011  24.908  16.632 -0.0066  0.1727  0.1048
29921W        W72833   6.628  23.060  18.199 -0.3947 -0.1151 -0.2567
29922W        W72834   6.019  21.314  16.813  0.0579 -0.1033 -0.0024
29923W        W72835   3.636  23.112  20.992 -0.0337 -0.2350  0.1078
29924W        W72836   6.833  24.263  19.385 -0.1174  0.3631  0.2214
29925W        W72837   5.852  24.051  18.362  0.0853  0.2279  0.2857
29926W        W72838   6.014  22.815  16.321  0.1906  0.0937  0.0749
29927W        W72839   7.429  25.486  16.904 -0.0315  0.0068  0.1596
29928W        W72840   5.076  23.968  18.880 -0.1441  0.2315 -0.3396
29929W        W72841   5.774  23.829  21.184 -0.1811 -0.3209 -0.1623
29930W        W72842   6.632  25.377  16.458 -0.5814  0.2606 -0.1097
29931W        W72843   5.533  22.861  18.251  0.0630  0.1618 -0.1187
29932W        W72844   5.796  23.437  17.696 -0.0759  0.0109  0.0694
29933W        W72845   5.993  22.614  17.379  0.0883 -0.2367 -0.1853
29934W        W72846   3.438  23.851  16.432  0.1281 -0.2762 -0.0501
29935W        W72847   6.147  22.628  17.882  0.0577 -0.0326 -0.1834
29936W        W72848   5.816  21.124  18.725  0.3973 -0.0126  0.2463
29937W        W72849   6.875  21.751  19.592  0.2007  0.1041 -0.0068
29938W        W72850   7.422  23.500  19.214  0.3325  0.1485  0.3178
29939W        W72851   7.296  24.339  16.421  0.0688 -0.1143  0.0600
29940W        W72852   5.597  25.245  19.313 -0.4749 -0.0968 -0.2422
29941W        W72853   4.292  22.798  16.607  0.0749  0.2056  0.1870
29942W        W72854   5.300  22.546  19.807 -0.0142 -0.3059  0.0785
29943W        W72855   5.030  23.828  20.578 -0.0589 -0.2004  0.1486
29944W        W72856   4.648  25.358  19.340  0.1542 -0.0658 -0.2120
29945W        W72857   5.737  24.093  19.710  0.1090  0.0534  0.1493
29946W        W72858   6.467  22.955  16.475 -0.3763  0.2405 -0.0647
29947W        W72859   6.847  22.248  19.708 -0.1530 -0.1973  0.2668
29948W        W72860   4.633  22.162  17.204 -0.1844 -0.1036 -0.0025
29949W        W72861   6.115  24.846  17.709 -0.1316 -0.1092  0.0164
29950W        W72862   4.286  24.010  16.432 -0.0916 -0.0195  0.1283
29951W        W72863   5.714  21.752  18.856  0.1414  0.1202 -0.4849
29952W        W72864   4.884  24.546  19.503 -0.1697  0.5164 -0.2145
29953W        W72865   5.666  25.384  17.187 -0.2503 -0.0286  0.1904
29954W        W72866   6.456  24.554  19.119 -0.0628 -0.1671  0.1696
29955W        W72867   3.283  25.279  16.319 -0.1388 -0.4680  0.0416
29956W        W72868   6.933  20.790  20.845 -0.0858  0.0710  0.5573
29957W        W72869   4.737  25.141  17.379 -0.0421 -0.0101  0.1630
29958W        W72870   4.886  23.718  15.920  0.0708  0.3233  0.0576
29959W        W72871   3.286  23.938  15.657 -0.0055 -0.0181 -0.0682
29960W        W72872   7.135  21.906  17.111 -0.1826  0.0951  0.0005
29961W        W72873   7.684  22.544  16.926  0.2984  0.0578  0.0935
29962W        W72874   5.017  23.448  17.685  0.0135 -0.0018  0.1770
29963W        W72875   5.516  21.231  19.277  0.2443 -0.0429  0.1130
29964W        W72876   4.740  24.686  17.556  0.0159 -0.1026  0.2245
29965W        W72877   5.149  24.892  19.260  0.1937 -0.0746 -0.0548
29966W        W72878   6.403  22.459  16.463  0.0269 -0.0999 -0.2476
29967W        W72879   5.506  24.596  19.513 -0.0057  0.2087  0.4068
29968W        W72880   4.667  23.580  20.989 -0.0925 -0.2765 -0.2105
29969W        W72881   3.955  22.625  15.418 -0.0369 -0.0992  0.1556
29970W        W72882   6.008  22.081  18.684  0.2473 -0.4181 -0.2696
29971W        W72883   5.199  23.441  18.827 -0.2067  0.2668 -0.1883
29972W        W72884   3.807  26.124  17.740  0.3951 -0.1778  0.0066
29973W        W72885   6.219  25.472  18.573  0.3742  0.1470  0.2621
29974W        W72886   5.938  23.249  17.266  0.2094 -0.0314  0.3000
29975W        W72887   5.839  27.023  18.530  0.0584 -0.0274  0.0867
29976W        W72888   4.435  23.318  20.542  0.0782 -0.2280  0.1976
29977W        W72889   6.910  25.453  18.151 -0.0759 -0.2422  0.0384
29978W        W72890   6.256  22.309  19.047 -0.2238  0.2830  0.0432
29979W        W72891   4.537  23.726  17.310  0.1049 -0.1378 -0.3547
29980W        W72892   5.585  25.697  19.055  0.2678  0.0948 -0.1494
29981W        W72893   6.615  23.837  18.154 -0.2346 -0.0540  0.1108
29982W        W72894   5.974  21.924  19.590 -0.1254  0.1763  0.0365
29983W        W72895   4.517  24.384  21.335 -0.0157  0.0113  0.1405
29984W        W72896   6.517  22.296  17.950 -0.2652  0.1539  0.3682
29985W        W72897   6.918  25.470  16.846  0.1173  0.2703  0.0205
29986W        W72898   6.013  23.144  19.463  0.0879 -0.0300 -0.0075
29987W        W72899   5.171  23.886  17.408 -0.4838 -0.0036  0.0548
29988W        W72900   5.366  23.151  17.886 -0.0928  0.0743 -0.0023
29989W        W72901   6.097  23.396  16.847  0.0047 -0.4823 -0.2408
29990W        W72902   6.517  22.852  20.705 -0.0530  0.1911 -0.0246
29991W        W72903   4.683  24.594  18.181  0.0025  0.0956 -0.1325
29992W        W72904   4.752  24.189  17.308 -0.1222  0.0205 -0.0554
29993W        W72905   4.129  24.359  18.727 -0.3131  0.0869  0.1689
29994W        W72906   6.757  22.601  16.788 -0.1278  0.1001 -0.2901
29995W        W72907   5.681  25.066  16.790  0.0586  0.2572  0.0156
29996W        W72908   6.167  22.019  18.179  0.1859 -0.2410  0.2554
29997W        W72909   6.926  23.033  21.539 -0.1342  0.1537  0.3355
29998W        W72910   7.598  23.519  16.019 -0.1371  0.0249  0.4393
29999W        W72911   7.272  23.374  19.869 -0.0107  0.0411 -0.1470
30000W        W72912   5.229  22.951  19.197  0.1056  0.1867  0.0070
30001W        W72913   5.593  24.665  16.513 -0.1972  0.2759 -0.0880
30002W        W72914   3.492  21.986  19.527  0.0101  0.0301  0.3588
30003W        W72915   6.369  25.743  19.521 -0.1114  0.0125  0.2278
30004W        W72916   4.574  24.428  19.857  0.2937 -0.1655 -0.5539
30005W        W72917   6.325  22.157  17.495  0.0088 -0.1534  0.2068
30006W        W72918   3.321  22.718  16.719  0.0085  0.0269  0.0272
30007W        W72919   6.159  24.976  18.331 -0.0736 -0.3295 -0.1519
30008W        W72920   7.317  24.360  18.400 -0.0511  0.1540 -0.0037
30009W        W72921   6.085  24.189  15.764  0.3725  0.1600  0.0871
30010W        W72922   6.520  22.270  18.605 -0.0962  0.2447  0.1416
30011W        W72923   3.467  23.657  19.745  0.0445  0.0073 -0.0764
30012W        W72924   7.007  23.844  16.738 -0.0993 -0.1597  0.1558
30013W        W72925   6.466  23.054  17.014  0.0888 -0.0599  0.2522
30014W        W72926   5.448  23.950  16.801 -0.0527 -0.0564  0.0217
30015W        W72927   4.945  22.135  19.055 -0.1643  0.1656  0.3070
30016W        W72928   7.795  23.847  17.203  0.1836 -0.2112  0.0869
30017W        W72929   5.226  21.557  19.084  0.0285 -0.2125 -0.3174
30018W        W72930   7.029  22.171  19.286  0.0279 -0.0371  0.0955
30019W        W72931   5.495  23.915  19.281 -0.0801  0.0175  0.1981
30020W        W72932   4.253  22.957  20.185  0.1397 -0.1313 -0.3787
30021W        W72933   5.293  23.351  18.332 -0.2313  0.0160  0.0330
30022W        W72934   6.004  25.991  18.919 -0.2638  0.1742  0.0153
30023W        W72935   7.295  22.607  15.979  0.2029 -0.3483  0.2094
30024W        W72936   6.612  23.085  19.004  0.1448  0.1659  0.2258
30025W        W72937   7.808  24.752  17.077  0.2972  0.0913  0.0047
30026W        W72938   5.395  22.192  17.925 -0.0054  0.1417 -0.1309
30027W        W72939   4.545  23.461  17.824  0.2468 -0.2211 -0.0868
30028W        W72940   6.206  23.575  19.858 -0.2087 -0.1448 -0.1852
30029W        W72941   4.251  22.652  16.127 -0.3587  0.1042 -0.0936
30030W        W72942   6.632  22.384  20.596  0.3712 -0.1928  0.0863
30031W        W72943   5.151  24.350  16.552  0.0219  0.2219 -0.2531
30032W        W72944   6.517  24.673  18.105  0.2511 -0.1842  0.0747
30033W        W72945   7.587  21.374  19.142 -0.0357 -0.1387 -0.0863
30034W        W72946   3.745  23.843  18.085 -0.1126 -0.3650 -0.0679
30035W        W72947   3.933  25.105  17.691 -0.1114 -0.1750 -0.2126
30036W        W72948   4.653  22.639  17.472  0.4590 -0.0673  0.0532
30037W        W72949   5.682  24.071  18.822  0.0907  0.1833 -0.3041
30038W        W72950   6.915  25.122  20.116 -0.0732  0.2128 -0.1487
30039W        W72951   6.052  24.098  20.873  0.0524 -0.2544 -0.2116
30040W        W72952   5.151  22.141  16.078 -0.0388 -0.2650  0.0013
30041W        W72953   7.003  24.445  18.785 -0.0004  0.0059 -0.1164
30042W        W72954   3.830  23.830  17.245  0.1144  0.0048 -0.1157
30043W        W72955   4.680  21.008  18.362  0.0445 -0.0045  0.0391
30044W        W72956   4.871  25.606  18.328 -0.0315  0.2788  0.3215
30045W        W72957   3.312  23.471  18.622 -0.0286  0.1765 -0.1847
30046W        W72958   5.615  24.593  18.572  0.0391 -0.2928 -0.1027
30047W        W72959   7.115  22.891  18.933  0.1316  0.0955 -0.3572
30048W        W72960   6.995  22.387  18.710 -0.0478  0.3998 -0.2147
30049W        W72961   5.118  24.793  18.201 -0.0430  0.0335  0.1545
30050W        W72962   7.964  23.369  19.359 -0.0069  0.0282 -0.0102
30051W        W72963   5.718  23.386  19.879 -0.5476 -0.1923 -0.1900
30052W        W72964   4.593  24.248  18.538  0.1248 -0.3956 -0.2932
30053W        W72965   6.203  25.028  19.914  0.0308  0.0752 -0.4389
30054W        W72966   6.655  25.068  18.326  0.0964  0.0076  0.2618
30055W        W72967   5.237  25.266  18.055  0.2714  0.0241  0.0721
30056W        W72968   4.565  22.242  19.721 -0.0972  0.2302 -0.3327
30057W        W72969   6.112  21.837  19.115 -0.0241 -0.2394  0.0384
30058W        W72970   6.566  23.559  17.074 -0.1243  0.1476  0.1073
30059W        W72971   5.481  21.886  17.558 -0.1988 -0.0142  0.1294
30060W        W72972   5.052  25.583  16.075 -0.2845  0.0485  0.1597
30061W        W72973   4.689  25.120  20.905 -0.0413 -0.0145  0.3431
30062W        W72974   4.530  25.366  18.778  0.0888 -0.0905 -0.0412
30063W        W72975   4.183  24.330  18.209 -0.0754 -0.3153 -0.0348
30064W        W72976   6.995  23.712  17.265  0.0051  0.1300  0.0891
30065W        W72977   6.336  23.091  17.545 -0.0030 -0.1229  0.2384
30066W        W72978   5.879  25.413  17.632 -0.2914 -0.2311  0.1067
30067W        W72979   5.589  23.072  16.065  0.3416  0.0932 -0.0051
30068W        W72980   4.449  25.511  18.130 -0.0825  0.2341  0.2008
30069W        W72981   3.710  24.068  16.042 -0.0831  0.2054  0.1370
30070W        W72982   6.754  23.444  16.475 -0.2196 -0.0525  0.2034
30071W        W72983   5.672  24.996  17.779  0.2245 -0.0948 -0.3145
30072W        W72984   5.764  22.238  19.118 -0.0514 -0.0998  0.0554
30073W        W72985   5.588  22.078  16.300  0.1470 -0.1143 -0.0723
30074W        W72986   7.742  24.629  18.404 -0.2453  0.1425 -0.0676
30075W        W72987   6.483  22.662  17.328 -0.2650  0.2993  0.3047
30076W        W72988   5.227  24.907  20.829  0.2549 -0.1838 -0.0864
30077W        W72989   6.347  24.093  19.248 -0.1780  0.0107  0.2049
30078W        W72990   3.270  21.567  16.400 -0.2028  0.1074  0.0251
30079W        W72991   5.668  23.364  19.129 -0.0544  0.0410  0.1124
30080W        W72992   6.110  22.081  21.186 -0.3779 -0.0495  0.0529
30081W        W72993   3.149  23.595  20.135  0.2279  0.3542  0.2863
30082W        W72994   6.457  24.842  16.534 -0.2931 -0.3252  0.0915
30083W        W72995   5.268  23.881  16.360 -0.1431 -0.0385 -0.1154
30084W        W72996   6.002  24.203  17.892  0.0009  0.0883 -0.0144
30085W        W72997   8.076  21.936  19.506  0.3324  0.1919 -0.0185
30086W        W72998   5.393  23.530  15.962 -0.3067  0.2340  0.0616
30087W        W72999   5.337  22.029  18.743 -0.0480  0.0766  0.0092
30088W        W73000   4.400  24.540  17.183  0.3588  0.0853  0.0721
30089W        W73001   5.526  23.950  17.928  0.2515  0.1247  0.0219
30090W        W73002   6.168  27.355  18.430  0.0339  0.7556  0.3861
30091W        W73003   3.772  22.972  16.537 -0.0511  0.0686 -0.2187
30092W        W73004   5.637  22.674  17.749  0.0983  0.1546  0.1174
30093W        W73005   5.686  22.850  19.110  0.1486  0.1561 -0.1703
30094W        W73006   8.623  22.299  20.379 -0.1285 -0.1087 -0.3513
30095W        W73007   5.381  23.898  18.471  0.2651 -0.1252 -0.1912
30096W        W73008   6.926  21.975  17.546  0.0903 -0.1776  0.1480
30097W        W73009   6.124  22.937  19.885 -0.3090  0.2728 -0.2038
30098W        W73010   3.296  23.938  18.944 -0.1308 -0.2078 -0.0430
30099W        W73011   5.572  22.602  16.245  0.0140  0.2376  0.0575
30100W        W73012   6.370  24.388  19.646  0.0647  0.0094  0.0956
30101W        W73013   5.668  23.073  16.891 -0.0360  0.1518 -0.0221
30102W        W73014   6.422  25.422  20.140  0.1297  0.0268  0.0640
30103W        W73015   3.538  23.579  19.254  0.0772 -0.4260  0.0419
30104W        W73016   7.966  22.883  17.096  0.1264  0.2368 -0.0996
30105W        W73017   4.890  23.612  18.176  0.0404  0.1656  0.4743
30106W        W73018   6.044  24.434  18.675  0.0908 -0.0438  0.1140
30107W        W73019   6.343  25.838  21.136  0.2002 -0.2190 -0.2574
30108W        W73020   3.922  23.108  17.502  0.1368  0.0305  0.3658
30109W        W73021   5.627  24.606  15.950  0.1628 -0.0892  0.2535
30110W        W73022   7.310  23.972  19.082 -0.0217 -0.0037 -0.1456
30111W        W73023   6.062  25.530  16.766  0.0702  0.1267  0.0689
30112W        W73024   6.270  25.009  18.931 -0.3369  0.0108  0.1701
30113W        W73025   7.865  24.120  19.807 -0.0768 -0.0312  0.4255
30114W        W73026   4.356  23.123  18.928  0.1524  0.0686 -0.2030
30115W        W73027   5.675  25.507  18.538 -0.0135 -0.2379 -0.3900
30116W        W73028   6.898  24.575  20.343  0.0534 -0.0288  0.1680
30117W        W73029   6.068  21.224  16.290 -0.2808  0.1414  0.0135
30118W        W73030   4.516  22.682  18.928  0.0540  0.0508 -0.0083
30119W        W73031   3.508  24.915  16.586 -0.0080 -0.1332 -0.3137
30120W        W73032   6.053  23.709  19.352  0.1884  0.3104 -0.1055
30121W        W73033   4.695  21.753  19.891 -0.0280  0.0733 -0.0494
30122W        W73034   4.259  25.339  16.468 -0.1075 -0.5977  0.2383
30123W        W73035   5.864  21.784  21.511 -0.0467  0.4029 -0.0148
30124W        W73036   5.356  23.969  20.187 -0.0263  0.0243  0.2550
30125W        W73037   4.239  25.882  20.155 -0.1151 -0.1037 -0.1043
30126W        W73038   4.982  23.483  17.197 -0.1442  0.0001  0.0053
30127W        W73039   3.903  24.133  19.135  0.1818 -0.0125 -0.1391
30128W        W73040   5.259  25.225  16.497  0.1517  0.1272 -0.2844
30129W        W73041   7.146  23.633  16.262  0.1754 -0.1257  0.3144
30130W        W73042   6.178  23.577  18.296 -0.2619 -0.1425  0.0250
30131W        W73043   5.791  22.393  18.165  0.3705 -0.1457 -0.1141
30132W        W73044   6.818  26.118  18.780  0.0063  0.2042 -0.1531
30133W        W73045   4.558  23.281  18.379  0.1035 -0.0603 -0.1322
30134W        W73046   6.376  22.259  16.884  0.1635 -0.1401  0.3036
30135W        W73047   6.978  22.757  17.351  0.0908  0.3029  0.0641
30136W        W73048   4.338  24.552  19.158 -0.1222  0.0201 -0.1343
30137W        W73049   4.555  24.160  15.910 -0.0071 -0.0117 -0.0804
30138W        W73050   4.801  24.069  16.335  0.0619 -0.2222 -0.1851
30139W        W73051   4.729  23.558  19.088 -0.1122 -0.0947 -0.0830
30140W        W73052   5.521  21.629  20.377  0.0221  0.0801  0.0514
30141W        W73053   4.667  22.675  20.012 -0.2204  0.2039 -0.1948
30142W        W73054   4.938  23.927  16.899 -0.2530  0.2305  0.3459
30143W        W73055   4.724  23.763  18.603  0.0639 -0.1242 -0.2814
30144W        W73056   7.357  24.609  16.943 -0.1034 -0.0246 -0.2202
30145W        W73057   4.724  22.480  18.058 -0.0821 -0.1406  0.0504
30146W        W73058   2.616  23.393  18.428 -0.2781 -0.1136  0.3001
30147W        W73059   6.269  25.171  19.426 -0.1925 -0.1261 -0.2240
30148W        W73060   6.287  23.983  16.254  0.1433  0.1566  0.0996
30149W        W73061   5.939  22.227  16.616 -0.0465 -0.1541 -0.0362
30150W        W73062   5.762  24.307  20.304  0.3036 -0.2847  0.0540
30151W        W73063   4.230  24.076  16.983 -0.0102  0.0919 -0.0076
30152W        W73064   5.204  21.726  20.021  0.2460 -0.1026  0.0134
30153W        W73065   4.067  22.391  20.053  0.1587 -0.2462  0.2056
30154W        W73066   3.856  22.061  15.892  0.0505 -0.0136  0.3789
30155W        W73067   5.760  22.557  18.691 -0.2478 -0.1741 -0.0968
30156W        W73068   5.920  24.611  18.160  0.0107  0.2621  0.1858
30157W        W73069   6.214  25.507  16.188 -0.0295  0.0576 -0.0847
30158W        W73070   5.171  25.377  19.106  0.1527 -0.0503  0.1095
30159W        W73071   4.325  25.820  19.060 -0.1197  0.1893 -0.2634
30160W        W73072   5.324  22.426  19.247  0.1074  0.3157 -0.1938
30161W        W73073   6.664  22.719  17.798  0.1463  0.0023  0.1620
30162W        W73074   5.057  23.052  19.663 -0.1048  0.1877 -0.3087
30163W        W73075   8.329  24.534  17.569 -0.4054 -0.1925  0.1120
30164W        W73076   7.570  23.019  19.422 -0.2379 -0.0443 -0.0312
30165W        W73077   6.327  23.112  18.580 -0.0376  0.0414 -0.2643
30166W        W73078   4.428  21.001  19.256 -0.1502 -0.1757 -0.1994
30167W        W73079   4.932  23.705  20.031 -0.2539 -0.3108  0.1115
30168W        W73080   7.226  24.830  17.573 -0.1959  0.1774 -0.1080
30169W        W73081   4.562  23.058  16.961 -0.3493 -0.1211 -0.0388
30170W        W73082   6.036  21.747  17.408 -0.1055  0.0220  0.0081
30171W        W73083   5.854  23.251  16.486 -0.0473  0.1992 -0.1898
30172W        W73084   5.729  23.391  18.149 -0.1226  0.1271  0.0582
30173W        W73085   5.585  22.536  16.814 -0.2093  0.0206  0.2103
30174W        W73086   5.357  22.982  18.721 -0.2752  0.0635  0.2848
30175W        W73087   6.976  24.525  17.895 -0.1892  0.1271  0.0762
30176W        W73088   6.280  24.271  20.480 -0.0941  0.0335  0.0211
30177W        W73089   4.864  23.438  16.686  0.2790  0.1351  0.1906
30178W        W73090   7.585  22.984  16.124  0.1067  0.2800 -0.1585
30179W        W73091   5.237  25.397  19.626  0.2018  0.0649 -0.4824
30180W        W73092   7.338  24.772  20.210 -0.0987  0.0440 -0.1785
30181W        W73093   6.191  24.096  19.947  0.1837  0.4032  0.1293
30182W        W73094   6.553  24.178  18.735 -0.0496 -0.1156 -0.2732
30183W        W73095   4.693  21.221  18.852 -0.1046 -0.1541  0.2102
30184W        W73096   4.979  24.167  18.147  0.2026 -0.0158  0.0674
30185W        W73097   5.146  24.390  18.577 -0.2313 -0.1926  0.0564
30186W        W73098   6.962  23.212  19.351  0.0040 -0.1495  0.0923
30187W        W73099   5.539  22.745  17.271  0.1813  0.1603  0.1434
30188W        W73100   4.718  22.568  16.755  0.2147 -0.1424 -0.3216
30189W        W73101   5.775  25.087  18.784  0.1273  0.2079 -0.1554
30190W        W73102   6.711  24.155  17.180 -0.0619  0.0377  0.1801
30191W        W73103   6.349  24.849  21.358  0.1665 -0.0958 -0.3300
30192W        W73104   6.151  22.778  20.426 -0.2470  0.1194 -0.1281
30193W        W73105   7.197  23.099  20.542  0.0416  0.0315  0.0387
30194W        W73106   5.842  23.331  21.699  0.2727  0.2129 -0.2350
30195W        W73107   3.256  21.796  21.124  0.4682  0.0856 -0.1275
30196W        W73108   4.318  24.080  20.884 -0.0025 -0.1444 -0.0984
30197W        W73109   5.655  21.317  22.843 -0.3619 -0.0634 -0.0762
30198W        W73110   8.017  25.230  22.418 -0.0401  0.0456 -0.2527
30199W        W73111   7.107  25.760  23.156 -0.1429  0.0978  0.1908
30200W        W73112   4.802  24.151  20.941 -0.0528 -0.0648 -0.1182
30201W        W73113   5.027  24.288  22.394  0.1068  0.1667  0.0878
30202W        W73114   3.318  25.371  23.480  0.0035 -0.3746  0.2711
30203W        W73115   5.265  21.392  21.265 -0.0356 -0.3074  0.3858
30204W        W73116   4.296  21.848  22.151 -0.0253 -0.2177  0.1758
30205W        W73117   6.724  22.981  22.838  0.1821  0.1089  0.2121
30206W        W73118   4.900  21.798  20.415 -0.2890  0.0500  0.2325
30207W        W73119   4.556  23.579  22.558 -0.3352  0.1137 -0.0346
30208W        W73120   4.561  22.568  21.097 -0.0577 -0.1644  0.0920
30209W        W73121   4.985  25.492  21.573 -0.1026 -0.3540  0.1892
30210W        W73122   5.945  22.241  23.829  0.0402 -0.1378  0.0020
30211W        W73123   5.003  23.524  22.791  0.0810  0.0943 -0.0344
30212W        W73124   5.002  25.489  20.964 -0.1066 -0.1773  0.0839
30213W        W73125   4.258  22.442  20.483 -0.0771  0.0375 -0.0553
30214W        W73126   3.853  23.322  21.408 -0.1129 -0.2826 -0.0235
30215W        W73127   5.087  23.495  23.361  0.0133 -0.2995  0.2001
30216W        W73128   5.480  23.511  21.409 -0.1303 -0.3472  0.3678
30217W        W73129   5.834  22.714  22.974 -0.0048 -0.1191 -0.0432
30218W        W73130   4.560  24.131  22.773  0.0782 -0.0193 -0.3089
30219W        W73131   5.885  25.936  22.440  0.0585  0.0280 -0.0918
30220W        W73132   5.319  22.888  22.760  0.1111 -0.3203 -0.0930
30221W        W73133   5.169  25.892  21.270  0.0343  0.3611  0.0603
30222W        W73134   4.619  25.097  21.476 -0.2092 -0.3730  0.0948
30223W        W73135   5.214  25.433  22.029  0.1058 -0.0236  0.1276
30224W        W73136   7.513  24.726  22.856  0.1255 -0.0463 -0.4361
30225W        W73137   5.945  24.131  22.162 -0.0715  0.1592 -0.3119
30226W        W73138   2.882  25.086  23.365 -0.1815 -0.1052 -0.0119
30227W        W73139   3.228  24.540  20.284 -0.0629  0.2665 -0.1994
30228W        W73140   7.108  26.360  23.901  0.0744 -0.0171 -0.1987
30229W        W73141   3.220  23.915  23.568  0.0706 -0.2594 -0.0066
30230W        W73142   4.851  22.719  22.546 -0.1060  0.1007  0.4295
30231W        W73143   6.137  24.885  21.834  0.1800 -0.0803  0.0917
30232W        W73144   5.971  25.501  19.716 -0.0886 -0.0875  0.0835
30233W        W73145   6.499  24.681  20.691  0.0492  0.0429  0.0515
30234W        W73146   4.689  24.283  23.226 -0.0530  0.3181 -0.1153
30235W        W73147   4.103  23.387  22.756  0.1962  0.2276  0.0056
30236W        W73148   7.139  23.112  24.843 -0.0506  0.1215  0.1128
30237W        W73149   3.767  25.786  20.288 -0.0136 -0.0192  0.0171
30238W        W73150   6.203  23.198  20.838 -0.0401 -0.0717  0.0051
30239W        W73151   3.713  21.552  19.723  0.0724  0.2470  0.2786
30240W        W73152   5.907  24.118  22.693 -0.3286 -0.1384 -0.1457
30241W        W73153   5.495  21.126  20.561  0.1429  0.0868 -0.0545
30242W        W73154   5.829  25.184  22.199 -0.0823 -0.0216 -0.0899
30243W        W73155   4.472  22.284  22.479 -0.0173 -0.1221  0.0711
30244W        W73156   5.711  24.307  21.133 -0.1710  0.0136  0.1819
30245W        W73157   5.252  23.291  20.046 -0.1281  0.0566  0.0324
30246W        W73158   5.294  22.467  21.504 -0.0715 -0.4002 -0.1078
30247W        W73159   4.458  25.034  22.807  0.1589 -0.1814 -0.2770
30248W        W73160   4.160  22.884  20.711  0.0974  0.4751 -0.0320
30249W        W73161   6.481  25.555  20.668  0.1063  0.2090  0.3609
30250W        W73162   7.389  25.288  20.296  0.1364  0.0481  0.1033
30251W        W73163   5.814  25.089  21.005 -0.1163  0.1429 -0.1147
30252W        W73164   5.127  22.822  21.813  0.2044  0.0473  0.0656
30253W        W73165   3.846  23.979  22.066  0.2018  0.1042 -0.3020
30254W        W73166   3.785  22.460  21.522  0.3405 -0.2400  0.1130
30255W        W73167   6.925  22.097  20.881 -0.0828  0.2441  0.4942
30256W        W73168   7.588  25.280  24.874 -0.3529  0.0939  0.0672
30257W        W73169   2.119  25.436  22.224 -0.2926 -0.0810  0.1827
30258W        W73170   6.178  22.582  22.064 -0.2052  0.0648  0.2854
30259W        W73171   4.655  22.882  20.559 -0.1740 -0.2559  0.0196
30260W        W73172   7.544  24.396  22.444 -0.3527 -0.2992  0.1059
30261W        W73173   6.830  24.113  20.571 -0.4539  0.2248 -0.2382
30262W        W73174   6.562  20.677  21.606  0.1316 -0.1582 -0.2088
30263W        W73175   4.963  21.355  23.477  0.2181 -0.0402 -0.0178
30264W        W73176   4.041  24.520  19.605  0.0298 -0.0054 -0.1328
30265W        W73177   4.559  23.683  21.563  0.1277  0.1586  0.2072
30266W        W73178   6.803  23.462  21.986 -0.0336  0.1039 -0.0602
30267W        W73179   6.024  22.410  19.995 -0.0311 -0.2100 -0.0242
30268W        W73180   3.867  24.403  21.692  0.1851 -0.0102 -0.1456
30269W        W73181   5.140  22.013  23.134  0.4679  0.2276 -0.0975
30270W        W73182   4.174  25.079  23.279  0.0020  0.1174 -0.2904
30271W        W73183   4.095  26.475  19.968  0.0411 -0.1476 -0.0309
30272W        W73184   4.097  23.803  21.264  0.0260  0.1718  0.0295
30273W        W73185   4.900  22.885  21.394  0.1239 -0.1228  0.1677
30274W        W73186   4.836  22.445  21.705 -0.1196 -0.3743  0.2178
30275W        W73187   5.695  23.723  22.013 -0.2360 -0.0918 -0.3156
30276W        W73188   6.751  22.136  21.404  0.0402  0.2016 -0.2728
30277W        W73189   4.891  21.958  21.421 -0.1355 -0.2842  0.0701
30278W        W73190   7.489  22.609  22.193 -0.0844 -0.3311 -0.1921
30279W        W73191   3.477  25.515  21.219  0.1686 -0.0972 -0.2633
30280W        W73192   7.704  25.145  19.454  0.2810  0.1496 -0.0665
30281W        W73193   7.531  24.015  21.594 -0.0857 -0.1181 -0.1033
30282W        W73194   6.971  25.469  20.611 -0.0053  0.3146  0.0632
30283W        W73195   2.766  24.078  23.625  0.1302  0.3981 -0.4857
30284W        W73196   3.184  23.254  20.936 -0.0871  0.0056 -0.2930
30285W        W73197   4.049  21.944  23.533  0.0434 -0.0998 -0.1429
30286W        W73198   4.671  22.748  22.107 -0.0965 -0.3014 -0.2562
30287W        W73199   5.350  21.570  23.197 -0.0105  0.1899  0.1276
30288W        W73200   4.306  22.366  21.965  0.0886  0.0585 -0.1632
30289W        W73201   5.586  22.936  21.405  0.1428  0.5309  0.1866
30290W        W73202   5.543  23.661  23.448  0.0991 -0.3190  0.0227
30291W        W73203   2.816  23.454  21.456 -0.1743  0.1516  0.0980
30292W        W73204   6.130  22.186  23.100  0.1796  0.1867 -0.0021
30293W        W73205   5.227  25.965  20.316 -0.0613  0.1200  0.1834
30294W        W73206   6.600  24.718  22.633 -0.1823 -0.3180 -0.0607
30295W        W73207   6.947  24.549  20.846 -0.1007  0.3925  0.2960
30296W        W73208   4.888  21.391  21.591  0.0345 -0.0933  0.2280
30297W        W73209   4.552  22.100  20.199 -0.0022  0.2979  0.2852
30298W        W73210   3.247  25.580  22.055 -0.1482 -0.1339  0.0494
30299W        W73211   4.513  24.491  22.391 -0.0199  0.3703 -0.0787
30300W        W73212   4.097  22.377  21.021 -0.1513  0.3312 -0.2105
30301W        W73213   7.600  24.823  21.865 -0.1177  0.3407  0.1354
30302W        W73214   4.298  24.031  19.456 -0.1533 -0.0119  0.3534
30303W        W73215   4.112  23.486  22.281  0.1466  0.2357 -0.2373
30304W        W73216   5.570  21.265  23.526  0.1598  0.0572 -0.3599
30305W        W73217   7.029  23.018  22.347 -0.0275  0.1420  0.2803
30306W        W73218   5.114  22.918  20.881 -0.1546  0.0136  0.2008
30307W        W73219   3.823  20.330  19.565  0.1000  0.1006 -0.1252
30308W        W73220   6.149  25.861  21.620  0.0457 -0.0268  0.3477
30309W        W73221   4.071  25.827  20.682 -0.0183  0.3183 -0.2783
30310W        W73222   4.844  24.514  21.746 -0.0097  0.1971 -0.1055
30311W        W73223   4.917  24.110  21.441  0.0617 -0.2021  0.0116
30312W        W73224   7.325  22.617  23.155 -0.0788  0.0446  0.0227
30313W        W73225   3.080  24.364  24.424  0.0931  0.1272  0.1051
30314W        W73226   5.107  22.492  22.947 -0.5578 -0.0460 -0.0350
30315W        W73227   5.675  22.985  20.884  0.3186  0.3143  0.1319
30316W        W73228   3.228  24.156  23.152  0.2935 -0.0257  0.0798
30317W        W73229   5.801  21.092  21.257  0.0439 -0.0435  0.0584
30318W        W73230   6.966  24.099  21.765 -0.0890  0.4945  0.2300
30319W        W73231   7.866  25.816  23.726  0.0756 -0.0515 -0.4323
30320W        W73232   6.010  23.802  21.630  0.3270 -0.0284  0.0538
30321W        W73233   6.001  23.271  20.296 -0.1639 -0.0881 -0.3150
30322W        W73234   7.756  20.758  21.386 -0.2017  0.1007  0.0645
30323W        W73235   3.993  24.421  22.581 -0.1109  0.1082 -0.0355
30324W        W73236   4.570  23.074  20.998  0.2415 -0.4736  0.0076
30325W        W73237   6.368  23.436  21.590 -0.0498  0.0496 -0.0570
30326W        W73238   6.287  22.130  20.362  0.3313  0.2388  0.0677
30327W        W73239   7.790  24.528  21.374 -0.1462  0.0233 -0.0839
30328W        W73240   4.274  23.090  22.046 -0.1036 -0.2563  0.0846
30329W        W73241   6.819  23.550  22.505 -0.1784  0.0927  0.1020
30330W        W73242   7.767  24.810  22.314 -0.2227 -0.0526  0.1585
30331W        W73243   5.013  19.776  22.447 -0.2241  0.0090  0.1275
30332W        W73244   3.783  22.745  20.398 -0.2228  0.1437  0.0671
30333W        W73245   4.848  22.384  20.507  0.1307 -0.3308 -0.1087
30334W        W73246   3.504  25.383  20.184 -0.0127 -0.0340 -0.2278
30335W        W73247   5.948  20.862  22.600  0.2029 -0.0997 -0.1336
30336W        W73248   5.665  22.012  22.620  0.2427  0.0959  0.2277
30337W        W73249   5.468  22.610  23.828 -0.0651  0.3229  0.0515
30338W        W73250   6.536  23.517  23.702  0.1030 -0.0739  0.0324
30339W        W73251   6.487  22.435  21.085  0.0608 -0.2927  0.1128
30340W        W73252   5.469  22.977  22.254 -0.0551  0.1106  0.0336
30341W        W73253   5.412  23.073  20.452 -0.0503 -0.0152  0.0138
30342W        W73254   4.591  20.647  22.301 -0.2155  0.0494  0.2308
30343W        W73255   5.555  24.893  22.723  0.0902 -0.1619 -0.0765
30344W        W73256   2.854  24.717  22.066 -0.0773  0.1734  0.0024
30345W        W73257   6.319  24.281  22.454 -0.3003 -0.1393  0.3691
30346W        W73258   6.217  24.225  21.362 -0.2212 -0.0034  0.4275
30347W        W73259   5.361  23.248  23.055  0.1988  0.1318 -0.1132
30348W        W73260   5.082  22.766  20.259  0.1693 -0.0094 -0.0172
30349W        W73261   3.793  26.367  22.553  0.0843  0.3035  0.0660
30350W        W73262   4.551  23.801  20.493  0.2963  0.1453 -0.0286
30351W        W73263   5.600  22.673  21.814  0.0745 -0.1759  0.2562
30352W        W73264   4.652  24.908  22.188  0.0584  0.2213 -0.0305
30353W        W73265   5.251  24.385  20.482 -0.1915  0.0425  0.0207
30354W        W73266   7.778  24.916  23.354  0.0657 -0.1867  0.1880
30355W        W73267   3.923  25.439  20.918 -0.0707  0.0412  0.2664
30356W        W73268   6.740  21.257  22.969  0.1593 -0.0354 -0.1049
30357W        W73269   3.216  25.348  21.630  0.1292 -0.2054  0.0284
30358W        W73270   2.855  21.231  20.236  0.0948  0.1913 -0.5254
30359W        W73271   3.609  23.613  21.047 -0.0488 -0.0445 -0.2507
30360W        W73272   4.747  20.594  20.671 -0.0552 -0.0044 -0.4259
30361W        W73273   7.670  22.863  20.488  0.2323 -0.3168 -0.3129
30362W        W73274   4.450  24.017  22.263  0.1798  0.1061  0.0230
30363W        W73275   5.125  21.432  20.686  0.0214  0.1109 -0.0053
30364W        W73276   3.526  25.974  23.579 -0.1462  0.0914 -0.4814
30365W        W73277   4.520  22.663  22.915 -0.1379 -0.1220 -0.0137
30366W        W73278   7.778  22.336  20.750  0.0328 -0.0915  0.3505
30367W        W73279   6.932  26.076  23.514 -0.0223  0.1744 -0.2717
30368W        W73280   6.144  23.742  23.965  0.0046 -0.0816  0.2656
30369W        W73281   4.941  23.321  20.596 -0.1472 -0.0216  0.0108
30370W        W73282   7.496  23.777  23.111  0.2425  0.0188  0.0471
30371W        W73283   4.348  22.297  21.468  0.0384 -0.2759 -0.3199
30372W        W73284   4.003  23.677  20.635 -0.1019 -0.3860  0.0444
30373W        W73285   5.644  26.771  23.585 -0.1531 -0.1288 -0.0577
30374W        W73286   5.547  23.046  19.607 -0.1175 -0.0318 -0.1013
30375W        W73287   5.271  25.041  21.354 -0.0360 -0.1905 -0.1565
30376W        W73288   4.768  23.858  23.683 -0.0873 -0.0744  0.0408
30377W        W73289   5.943  25.010  23.058 -0.1104 -0.0189  0.0696
30378W        W73290   4.579  22.139  20.902 -0.2765  0.1187  0.1243
30379W        W73291   2.986  22.870  21.256 -0.0658 -0.0059 -0.0632
30380W        W73292   6.354  22.877  23.302  0.1618  0.0030 -0.2707
30381W        W73293   6.133  23.530  22.622 -0.2125 -0.0408 -0.1228
30382W        W73294   6.837  22.147  23.704 -0.0507 -0.1958  0.0266
30383W        W73295   6.083  23.975  23.201  0.2364  0.0787 -0.1384
30384W        W73296   5.596  22.429  21.093  0.0476  0.2593 -0.0081
30385W        W73297   7.230  24.781  22.233  0.1446 -0.2003  0.1736
30386W        W73298   5.833  23.301  22.304 -0.0535  0.1079  0.1130
30387W        W73299   4.035  24.589  20.453 -0.0694 -0.1446  0.0949
30388W        W73300   3.354  24.852  21.880 -0.0455  0.2568  0.0061
30389W        W73301   5.617  23.522  20.389 -0.1752 -0.0173 -0.1751
30390W        W73302   6.074  21.670  22.580  0.0269  0.2360  0.2016
30391W        W73303   5.305  24.544  21.559  0.1204  0.5554  0.3345
30392W        W73304   4.549  25.543  20.635  0.0991  0.1423  0.0665
30393W        W73305   4.272  24.603  21.964 -0.0758 -0.0791 -0.0030
30394W        W73306   7.182  21.429  21.381  0.1298 -0.0390  0.0328
30395W        W73307   5.351  24.408  19.089  0.1240 -0.2575 -0.0290
30396W        W73308   5.363  21.991  21.228  0.2222 -0.0296  0.0924
30397W        W73309   8.371  22.030  22.469  0.0199  0.3087  0.0319
30398W        W73310   5.315  23.712  19.708  0.1369 -0.0274  0.1271
30399W        W73311   7.758  23.227  24.524 -0.1044 -0.2734 -0.0269
30400W        W73312   3.761  21.160  22.458  0.0403 -0.1621 -0.2850
30401W        W73313   7.318  24.359  21.960 -0.3437 -0.0314  0.2786
30402W        W73314   4.855  23.237  22.330  0.0490 -0.3411 -0.0351
30403W        W73315   3.966  24.569  23.304  0.0681 -0.2827 -0.0001
30404W        W73316   4.041  24.981  22.373 -0.1092 -0.0408 -0.1649
30405W        W73317   5.553  22.161  19.654 -0.3260  0.4923 -0.0901
30406W        W73318   3.833  22.174  20.567  0.2055  0.1898  0.0137
30407W        W73319   6.253  24.228  23.583 -0.3389  0.0433  0.0095
30408W        W73320   7.057  24.035  23.270  0.0649 -0.2980  0.0947
30409W        W73321   5.776  23.609  18.595  0.1299 -0.1182 -0.0917
30410W        W73322   6.535  23.986  23.260  0.2258  0.0095  0.3133
30411W        W73323   4.851  25.335  22.445 -0.1389 -0.0438  0.0340
30412W        W73324   6.834  23.463  21.461 -0.0702 -0.3708  0.0688
30413W        W73325   5.530  22.088  21.720 -0.1507  0.2271  0.1925
30414W        W73326   3.760  23.885  20.144  0.0904 -0.0349  0.0083
30415W        W73327   4.843  23.035  23.065 -0.1186  0.3415  0.0588
30416W        W73328   5.761  24.598  22.182 -0.0492  0.0198  0.3211
30417W        W73329   5.927  22.469  21.530 -0.0138 -0.1707  0.4028
30418W        W73330   5.477  22.458  22.583  0.0286 -0.0556  0.1989
30419W        W73331   6.494  23.562  24.222  0.2415  0.3244  0.1782
30420W        W73332   5.114  24.024  23.327  0.1008 -0.1966 -0.2433
30421W        W73333   4.080  22.454  23.738  0.0397 -0.2466  0.0285
30422W        W73334   6.515  25.803  23.462 -0.1818 -0.3267 -0.1389
30423W        W73335   7.864  22.891  20.999  0.0337  0.1352  0.1548
30424W        W73336   7.317  22.222  23.606  0.1037 -0.0253 -0.0233
30425W        W73337   7.358  23.048  21.909  0.1710 -0.1444  0.0740
30426W        W73338   6.609  22.515  20.053 -0.0469 -0.0787 -0.0712
30427W        W73339   2.458  22.352  21.409 -0.1582 -0.2697  0.0020
30428W        W73340   7.006  22.527  24.702  0.0315 -0.0160  0.0892
30429W        W73341   3.201  22.361  21.204  0.1072  0.1507  0.4341
30430W        W73342   6.686  22.862  24.914 -0.0567 -0.3352  0.0145
30431W        W73343   5.983  24.783  20.419 -0.0884 -0.1321  0.1656
30432W        W73344   6.280  25.353  21.913 -0.0231  0.3885 -0.0629
30433W        W73345   5.642  22.746  20.151 -0.1980  0.1911 -0.0478
30434W        W73346   4.130  21.724  22.671  0.0295 -0.1700  0.0584
30435W        W73347   3.978  24.864  22.887 -0.1658 -0.1722 -0.3498
30436W        W73348   4.075  21.844  21.109 -0.3288  0.0520 -0.0393
30437W        W73349   4.779  24.659  20.651 -0.1932 -0.0007  0.2944
30438W        W73350   6.408  25.418  22.394  0.2491  0.1072 -0.1055
30439W        W73351   6.157  24.814  23.689 -0.2886 -0.0386  0.0715
30440W        W73352   6.013  21.090  20.785 -0.1132 -0.3447  0.1770
30441W        W73353   7.326  23.401  24.321 -0.1261 -0.2114  0.1125
30442W        W73354   4.028  22.804  21.265  0.0644  0.1645 -0.0389
30443W        W73355   5.678  22.020  20.841  0.0559  0.3783 -0.0271
30444W        W73356   4.187  25.657  23.220 -0.0042  0.0060  0.0286
30445W        W73357   1.685  25.489  21.670 -0.1180 -0.4332  0.1706
30446W        W73358   2.655  25.359  21.499 -0.2911 -0.1345  0.4920
30447W        W73359   4.920  20.808  21.537  0.1058 -0.3205 -0.4061
30448W        W73360   6.582  22.933  21.936 -0.2366  0.0959 -0.3846
30449W        W73361   5.681  24.794  21.359 -0.1880  0.2228  0.2177
30450W        W73362   7.440  24.220  22.915  0.1685  0.0467 -0.1449
30451W        W73363   6.776  24.492  23.462  0.0507  0.2075  0.1086
30452W        W73364   5.056  22.415  21.106 -0.0769  0.2091  0.0581
30453W        W73365   5.203  25.872  21.803  0.0854  0.1095  0.0230
30454W        W73366   6.212  23.628  22.063 -0.2341 -0.1799  0.2324
30455W        W73367   2.726  25.474  21.979 -0.0681 -0.2675 -0.1577
30456W        W73368   2.790  21.803  24.023  0.2174 -0.2665  0.2814
30457W        W73369   5.836  24.000  23.658 -0.2492 -0.1319  0.1982
30458W        W73370   7.034  22.864  24.349  0.0447 -0.1224  0.1024
30459W        W73371   2.924  22.001  21.435  0.2326 -0.0360 -0.1984
30460W        W73372   4.313  25.037  20.557  0.0493 -0.2225  0.2388
30461W        W73373   3.748  24.043  23.479  0.2193  0.0522  0.1839
30462W        W73374   4.125  23.536  21.756  0.1877 -0.1236 -0.0080
30463W        W73375   4.711  25.411  21.942 -0.0335  0.0472  0.0249
30464W        W73376   5.911  23.290  21.212 -0.1985 -0.0354 -0.1870
30465W        W73377   5.595  24.043  20.686 -0.1078 -0.0699 -0.0088
30466W        W73378   5.060  25.038  22.814  0.2778  0.0322 -0.2290
30467W        W73379   5.060  22.606  18.770  0.0261  0.0257 -0.5421
30468W        W73380   3.292  26.662  20.926  0.2952  0.0662 -0.1132
30469W        W73381   2.913  24.957  20.004  0.0009 -0.0860  0.0730
30470W        W73382   6.599  25.130  20.497  0.1728  0.2466  0.0311
30471W        W73383   3.928  25.351  20.454  0.1254 -0.0533 -0.0423
30472W        W73384   8.088  26.070  22.090 -0.1458 -0.4003  0.2745
30473W        W73385   6.813  21.910  22.315 -0.1728  0.3132 -0.0289
30474W        W73386   9.882  23.957  22.908  0.1198  0.1019 -0.0490
30475W        W73387   7.530  23.510  23.615  0.3005 -0.2576  0.1635
30476W        W73388   7.142  24.755  24.197 -0.1860  0.1433 -0.0438
30477W        W73389   4.720  23.175  21.790  0.2329 -0.0283 -0.1691
30478W        W73390   5.511  22.159  20.211  0.1530  0.2414 -0.1733
30479W        W73391   3.975  23.372  23.509  0.0358 -0.2263  0.1626
30480W        W73392   7.690  22.066  24.235  0.1149  0.2337 -0.1435
30481W        W73393   3.539  24.729  24.027 -0.0871  0.0638 -0.0454
30482W        W73394   6.861  24.636  21.343 -0.0105 -0.4620  0.1723
30483W        W73395   3.521  22.450  19.785 -0.1106 -0.0195  0.1282
30484W        W73396   4.923  23.807  22.325  0.2562 -0.4184 -0.3058
30485W        W73397   7.809  22.074  19.913  0.1305  0.1362 -0.1562
30486W        W73398   4.600  23.465  19.652  0.1222  0.3054 -0.0384
30487W        W73399   6.049  22.784  21.138  0.1605 -0.0727 -0.0467
30488W        W73400   4.736  26.098  21.236 -0.2200  0.2951 -0.3020
30489W        W73401   4.890  25.919  22.723 -0.3082 -0.1458 -0.1864
30490W        W73402   5.836  24.309  21.686  0.0065 -0.2018 -0.1052
30491W        W73403   3.679  22.123  21.172  0.1407  0.1424  0.1113
30492W        W73404   6.378  23.205  22.301  0.0369  0.1795 -0.2338
30493W        W73405   3.817  22.904  24.447 -0.0755  0.3475  0.1397
30494W        W73406   6.231  22.991  22.738 -0.0260  0.0382  0.0407
30495W        W73407   3.627  22.592  21.036 -0.1028  0.1965  0.0320
30496W        W73408   7.156  22.286  21.546  0.0251  0.1180  0.2280
30497W        W73409   5.240  24.426  21.030  0.0936 -0.1739 -0.1882
30498W        W73410   4.222  23.041  23.145  0.0714  0.0340 -0.0719
30499W        W73411   6.143  23.421  18.907 -0.0827  0.0091 -0.1220
30500W        W73412   7.313  23.907  24.024  0.2901  0.0295  0.1426
30501W        W73413   5.399  23.413  20.854 -0.1540  0.0049 -0.1006
30502W        W73414   5.702  25.654  22.922  0.0852 -0.2299  0.0022
30503W        W73415   3.896  23.234  20.419 -0.1824 -0.0422  0.2695
30504W        W73416   5.050  22.234  20.088 -0.2406  0.1476 -0.0392
30505W        W73417   3.422  24.210  21.158  0.1567 -0.1142 -0.0614
30506W        W73418   5.094  22.457  23.468  0.0291  0.1311  0.1400
30507W        W73419   6.381  26.295  23.746 -0.2345  0.0122 -0.2478
30508W        W73420   2.511  23.045  21.166 -0.0154 -0.1495 -0.0182
30509W        W73421   7.143  23.595  20.838 -0.4678 -0.0775  0.0912
30510W        W73422   8.473  24.007  22.044  0.4297  0.0017  0.2292
30511W        W73423   5.819  25.871  19.463  0.0406  0.2713 -0.4586
30512W        W73424   5.481  24.037  21.517 -0.3616  0.0081  0.2210
30513W        W73425   6.501  26.283  21.892  0.0026  0.1103  0.0952
30514W        W73426   5.368  21.926  22.184  0.0660 -0.3257  0.1195
30515W        W73427   6.160  25.584  23.010  0.0199 -0.4462 -0.1010
30516W        W73428   8.328  24.665  21.217  0.0530  0.0062 -0.0089
30517W        W73429   7.441  20.236  20.775  0.2711  0.1562  0.0226
30518W        W73430   2.732  23.995  21.277 -0.0257 -0.0222 -0.2932
30519W        W73431   3.714  25.486  21.708 -0.1871  0.0006  0.3794
30520W        W73432   7.032  23.579  23.660  0.2244  0.1745 -0.1706
30521W        W73433   5.953  22.774  23.814  0.0985 -0.1108 -0.2774
30522W        W73434   5.885  24.241  19.255 -0.1635 -0.1765 -0.0834
30523W        W73435   7.015  22.299  22.944 -0.0922  0.1771 -0.2115
30524W        W73436   4.363  24.569  23.017 -0.0735 -0.0662  0.0037
30525W        W73437   4.647  24.445  23.984 -0.2988 -0.0067 -0.0255
30526W        W73438   3.366  23.402  21.460 -0.0810 -0.3417 -0.0180
30527W        W73439   5.740  23.225  22.800  0.1317 -0.2443 -0.2751
30528W        W73440   5.469  22.481  20.615 -0.3745 -0.2075 -0.2198
30529W        W73441   4.991  26.128  19.826  0.0289  0.1614 -0.0617
30530W        W73442   6.113  25.190  20.652  0.2501 -0.0765  0.0353
30531W        W73443   6.521  23.045  21.250  0.0945 -0.1021  0.1748
30532W        W73444   7.218  23.622  21.749 -0.1188  0.1171  0.3937
30533W        W73445   5.949  23.355  23.765  0.1714 -0.0851  0.1384
30534W        W73446   7.204  22.166  22.055  0.0125 -0.2040  0.0151
30535W        W73447   7.877  22.349  21.225 -0.0937  0.0148 -0.1561
30536W        W73448   5.365  23.537  22.453 -0.1720 -0.1486 -0.1910
30537W        W73449   2.153  22.537  20.176 -0.2141 -0.0583 -0.0084
30538W        W73450   4.778  23.952  19.584 -0.2096  0.1681  0.0349
30539W        W73451   5.592  24.953  21.831  0.1490 -0.3266  0.2596
30540W        W73452   5.860  21.777  23.824 -0.2799  0.1796  0.0891
30541W        W73453   4.110  21.476  23.732  0.3505  0.0464  0.0624
30542W        W73454   2.704  22.600  20.957 -0.0965  0.1587 -0.3000
30543W        W73455   2.886  22.489  21.638 -0.1575 -0.1345 -0.1648
30544W        W73456   6.907  22.644  21.283 -0.0157 -0.1176 -0.1059
30545W        W73457   5.193  21.795  22.689 -0.2876  0.1045 -0.1354
30546W        W73458   2.572  22.982  22.232  0.0540  0.1286 -0.3838
30547W        W73459   5.222  23.943  21.074  0.0056 -0.1814 -0.0074
30548W        W73460   7.321  24.416  21.400  0.0196 -0.2799 -0.0938
30549W        W73461   5.132  22.084  20.813  0.1235 -0.0854 -0.3540
30550W        W73462   6.098  24.701  22.670 -0.0882  0.0353 -0.1592
30551W        W73463   3.341  23.902  20.451 -0.4617  0.0487  0.0509
30552W        W73464   5.381  24.260  21.983 -0.0925  0.1747  0.1151
30553W        W73465   4.715  22.191  22.973  0.1872 -0.0004 -0.0940
30554W        W73466   3.967  22.262  19.613  0.0686 -0.3103 -0.0989
30555W        W73467   3.750  23.099  22.486  0.0007 -0.2767  0.4370
30556W        W73468   6.100  24.630  21.001  0.0267 -0.4715  0.3450
30557W        W73469   5.396  24.449  20.021  0.0376 -0.2345 -0.1210
30558W        W73470   4.886  25.800  22.180 -0.0052 -0.2658 -0.0628
30559W        W73471   5.558  24.172  23.037  0.0604  0.0739 -0.0552
30560W        W73472   4.980  21.494  22.195  0.0215 -0.3026 -0.2879
30561W        W73473   6.337  24.339  21.924 -0.0273 -0.0823 -0.1379
30562W        W73474   5.495  24.318  23.520 -0.1220 -0.3494  0.2141
30563W        W73475   7.332  24.164  19.599  0.0510  0.0576 -0.1300
30564W        W73476   6.037  22.345  22.645  0.2170 -0.2539 -0.2407
30565W        W73477   6.491  23.898  21.710  0.1104 -0.3610  0.0100
30566W        W73478   4.412  21.829  23.809 -0.1550 -0.0603  0.0872
30567W        W73479   5.216  24.871  22.250  0.1868  0.2282  0.2836
30568W        W73480   7.619  23.779  24.475 -0.2046  0.0979  0.0208
30569W        W73481   5.364  21.044  21.587  0.1347 -0.1286  0.2278
30570W        W73482   5.813  22.221  22.212  0.0199  0.2073  0.2838
30571W        W73483   5.662  24.633  20.778  0.0689 -0.0867 -0.1033
30572W        W73484   5.353  23.299  21.896 -0.1394 -0.1261 -0.0226
30573W        W73485   6.604  22.924  19.498  0.2197  0.1472 -0.0615
30574W        W73486   5.532  23.682  22.935 -0.0184  0.0353 -0.0697
30575W        W73487   4.352  24.622  20.927 -0.1157 -0.1484  0.3661
30576W        W73488   5.904  24.477  23.268 -0.3636  0.0101  0.4285
30577W        W73489   4.396  22.780  21.627  0.0010 -0.0140  0.2190
30578W        W73490   7.424  24.800  21.003 -0.0578  0.2685 -0.0889
30579W        W73491   5.743  24.854  24.245 -0.0948  0.0645  0.1844
30580W        W73492   6.019  23.502  23.291 -0.2376  0.0232 -0.1002
30581W        W73493   4.668  25.339  23.408 -0.1273 -0.1034  0.1321
30582W        W73494   6.545  23.901  22.725  0.1802 -0.1799  0.0116
30583W        W73495   5.029  20.725  22.680 -0.0649 -0.2015 -0.0148
30584W        W73496   3.453  22.944  19.972  0.1620 -0.1338 -0.3214
30585W        W73497   4.945  23.409  21.373  0.1359  0.0471 -0.0385
30586W        W73498   6.471  22.524  22.903  0.1172 -0.2532  0.4412
30587W        W73499   3.017  22.111  19.927  0.1801 -0.2338  0.0575
30588W        W73500   6.725  21.674  21.203 -0.1828 -0.0923  0.1852
30589W        W73501   4.625  25.866  23.257 -0.2313  0.0644 -0.3621
30590W        W73502   4.321  23.208  21.395  0.2285 -0.3873  0.0044
30591W        W73503   3.892  23.715  24.810 -0.0803  0.5223  0.1381
30592W        W73504   4.519  23.402  22.986 -0.0283 -0.2627 -0.3670
30593W        W73505   7.100  23.864  22.772  0.1726  0.1899  0.0471
30594W        W73506   6.830  24.018  23.728  0.0413 -0.1053 -0.1676
30595W        W73507   3.290  22.013  24.713 -0.1719  0.0768 -0.0884
30596W        W73508   5.219  23.729  24.870 -0.0608 -0.1347 -0.3174
30597W        W73509   4.733  21.746  27.163 -0.1719  0.0663  0.0988
30598W        W73510   6.626  24.336  26.603  0.2541 -0.1072  0.1147
30599W        W73511   6.086  25.144  26.568 -0.1100  0.2676 -0.3202
30600W        W73512   6.520  23.792  24.722 -0.3378  0.0320  0.1677
30601W        W73513   6.610  22.710  26.191 -0.0500 -0.1381  0.0778
30602W        W73514   4.387  25.196  26.552 -0.2168  0.0055  0.2444
30603W        W73515   5.533  22.049  24.199  0.1447 -0.0300 -0.1687
30604W        W73516   4.310  20.729  26.489 -0.0895 -0.2045 -0.5385
30605W        W73517   6.769  23.687  27.001  0.3631  0.2093  0.0709
30606W        W73518   3.447  24.502  23.514  0.1845 -0.1973  0.1225
30607W        W73519   5.476  23.318  24.825 -0.1000 -0.1673  0.0656
30608W        W73520   5.256  22.374  25.286 -0.1092  0.1848  0.0402
30609W        W73521   7.227  25.124  25.403  0.0904 -0.3657  0.3126
30610W        W73522   4.760  23.581  25.163  0.1408 -0.0799 -0.0050
30611W        W73523   6.659  21.917  27.094  0.1615 -0.1817  0.1297
30612W        W73524   5.692  23.863  25.123 -0.1468 -0.0407 -0.2329
30613W        W73525   4.177  22.963  23.724  0.2715 -0.1590  0.1229
30614W        W73526   3.249  21.894  25.783 -0.0541  0.3376  0.2147
30615W        W73527   4.620  23.365  25.995  0.0573 -0.0791 -0.0100
30616W        W73528   5.316  22.728  27.742  0.3080 -0.0566 -0.2494
30617W        W73529   7.906  22.773  25.464 -0.3247 -0.0505  0.2829
30618W        W73530   4.588  25.752  25.991 -0.1191 -0.0038 -0.1200
30619W        W73531   5.700  24.879  26.086  0.1563 -0.0006  0.1586
30620W        W73532   6.343  22.934  26.587  0.1392 -0.0595  0.1591
30621W        W73533   2.812  25.050  23.873 -0.1338  0.1781 -0.0004
30622W        W73534   3.861  25.895  24.508  0.0089 -0.0230  0.1209
30623W        W73535   4.500  24.139  26.871 -0.0790 -0.0564 -0.0842
30624W        W73536   8.373  25.442  24.964 -0.0097  0.2704  0.4003
30625W        W73537   6.056  24.912  27.076 -0.1797 -0.0949  0.0889
30626W        W73538   5.542  25.110  26.638  0.0969  0.0484 -0.3619
30627W        W73539   2.508  26.354  22.559 -0.1875 -0.4072 -0.0232
30628W        W73540   6.783  23.729  26.398  0.3906  0.2546 -0.0594
30629W        W73541   5.279  24.137  25.653  0.1563 -0.3188  0.1598
30630W        W73542   5.013  23.030  23.655 -0.0679  0.1245  0.4152
30631W        W73543   5.843  24.469  23.882 -0.2106 -0.2904 -0.2287
30632W        W73544   5.605  24.385  25.023 -0.1813  0.0395  0.0442
30633W        W73545   5.073  24.625  24.911  0.1772 -0.0018 -0.3161
30634W        W73546   6.016  24.054  27.354  0.0250 -0.2713  0.0236
30635W        W73547   2.880  24.982  24.393 -0.1202  0.1124 -0.1015
30636W        W73548   6.320  21.019  26.716 -0.0892  0.1889  0.0292
30637W        W73549   4.766  24.140  24.811  0.1847  0.0735  0.2723
30638W        W73550   6.767  23.322  24.549 -0.2532  0.2690 -0.1818
30639W        W73551   5.962  22.146  24.494 -0.0651 -0.0615  0.0179
30640W        W73552   7.345  23.075  23.958 -0.2128  0.0568 -0.2328
30641W        W73553   5.373  21.358  24.500  0.3103  0.3030  0.2202
30642W        W73554   3.545  24.394  24.475  0.2106  0.0112 -0.0607
30643W        W73555   5.874  22.954  25.630  0.0405  0.2147  0.1735
30644W        W73556   7.378  23.125  25.718 -0.1755 -0.0316  0.0455
30645W        W73557   4.226  25.194  23.790 -0.2632 -0.2343 -0.2300
30646W        W73558   6.624  21.602  25.721 -0.2178 -0.1071  0.3718
30647W        W73559   4.401  24.837  25.572  0.1088  0.0267 -0.0657
30648W        W73560   3.953  24.689  24.737 -0.1098  0.2476 -0.1939
30649W        W73561   5.664  24.848  23.516 -0.1477 -0.0011  0.1157
30650W        W73562   6.515  25.498  25.071  0.5710 -0.0741 -0.1178
30651W        W73563   4.891  24.537  22.847 -0.0317 -0.1977 -0.1778
30652W        W73564   4.040  24.305  24.436 -0.1739  0.0102  0.0555
30653W        W73565   3.517  23.295  28.214 -0.2475 -0.0382  0.1500
30654W        W73566   2.609  23.920  27.172 -0.1344 -0.1921 -0.0791
30655W        W73567   5.722  22.858  24.669  0.2700 -0.1253  0.2698
30656W        W73568   7.188  23.313  26.638 -0.1352  0.1922  0.0287
30657W        W73569   2.628  24.159  25.408 -0.2264  0.2765 -0.0683
30658W        W73570   6.866  22.337  26.190 -0.2069 -0.2415 -0.2403
30659W        W73571   4.533  24.155  25.434 -0.1399  0.0506 -0.2894
30660W        W73572   6.023  25.689  25.278  0.0957  0.1112  0.0186
30661W        W73573   7.562  23.905  22.573  0.2529  0.2020 -0.0566
30662W        W73574   6.201  21.955  26.599 -0.1810 -0.0442  0.0138
30663W        W73575   5.543  22.255  26.906 -0.0832 -0.0310  0.1029
30664W        W73576   5.432  24.430  22.583  0.3458  0.1171 -0.0382
30665W        W73577   6.024  24.091  24.883 -0.0518 -0.1193 -0.3362
30666W        W73578   8.809  24.519  26.492 -0.0236  0.1814 -0.0932
30667W        W73579   7.063  22.697  23.790  0.0729 -0.1410 -0.1397
30668W        W73580   3.292  26.062  25.748  0.1245 -0.2225 -0.2874
30669W        W73581   5.298  24.640  25.911 -0.0798  0.1358  0.0906
30670W        W73582   4.829  23.871  28.003 -0.2202 -0.0131  0.2796
30671W        W73583   5.004  24.098  24.278  0.2156 -0.0816  0.1679
30672W        W73584   4.732  23.549  24.229 -0.1679 -0.1010 -0.0293
30673W        W73585   3.518  23.573  23.370 -0.0503  0.2214 -0.0571
30674W        W73586   4.596  21.471  25.476 -0.0534 -0.0516 -0.0111
30675W        W73587   4.734  22.884  24.495  0.0605 -0.3519 -0.1020
30676W        W73588   8.292  21.965  25.456 -0.2523  0.1294 -0.2201
30677W        W73589   4.968  22.511  25.674 -0.1450  0.1344  0.1076
30678W        W73590   8.336  22.517  25.312 -0.0666 -0.3076 -0.6333
30679W        W73591   3.403  24.883  24.499  0.2224  0.0449 -0.1124
30680W        W73592   8.153  25.764  24.553  0.1397 -0.1352  0.0834
30681W        W73593   7.572  23.008  25.150  0.4255  0.2396 -0.1777
30682W        W73594   5.857  23.036  23.372  0.0101 -0.0869  0.0180
30683W        W73595   3.974  22.554  26.043 -0.4878  0.1846  0.2622
30684W        W73596   5.559  21.775  24.696 -0.0670  0.0653 -0.0060
30685W        W73597   4.952  22.441  24.811  0.0019 -0.0054 -0.3484
30686W        W73598   4.306  23.027  26.149 -0.0085  0.2290  0.1265
30687W        W73599   5.585  23.148  26.400 -0.0497  0.2237 -0.1656
30688W        W73600   3.746  21.765  24.439  0.2184  0.3243  0.1032
30689W        W73601   7.500  21.729  25.867  0.0836 -0.0166  0.0203
30690W        W73602   4.083  23.771  24.330 -0.1637  0.2213  0.3303
30691W        W73603   2.530  24.704  23.594 -0.1124  0.1640 -0.0227
30692W        W73604   6.749  23.249  27.175  0.0267  0.1918  0.0252
30693W        W73605   5.614  25.662  24.326  0.1058  0.0768 -0.1537
30694W        W73606   5.952  24.536  26.443 -0.2473  0.0488 -0.0406
30695W        W73607   6.930  23.596  24.933  0.1139 -0.0086 -0.0328
30696W        W73608   4.218  22.126  26.180  0.1079 -0.1151  0.0646
30697W        W73609   4.975  22.221  22.496  0.0003  0.1707 -0.1502
30698W        W73610   4.783  25.871  25.550  0.0275 -0.4093 -0.0189
30699W        W73611   4.572  24.370  25.864 -0.0336  0.0117  0.1156
30700W        W73612   4.613  23.079  23.973  0.2904 -0.1023  0.0378
30701W        W73613   6.840  26.244  25.134 -0.2203 -0.3420 -0.2438
30702W        W73614   6.802  23.170  25.253  0.0790  0.1191  0.0008
30703W        W73615   4.168  22.234  25.130  0.4056 -0.0536  0.0803
30704W        W73616   6.735  21.928  26.571  0.1304 -0.0927  0.0401
30705W        W73617   6.639  25.094  26.094  0.0748 -0.1284 -0.0592
30706W        W73618   6.222  22.832  24.792 -0.0922 -0.3342  0.1935
30707W        W73619   2.820  22.398  25.016  0.0537  0.1319  0.3263
30708W        W73620   7.124  24.863  25.834  0.1428 -0.0345  0.2215
30709W        W73621   4.448  24.843  24.210  0.0584 -0.1012 -0.2582
30710W        W73622   4.058  23.865  22.629  0.1814  0.0010  0.0270
30711W        W73623   4.924  24.964  25.652  0.4619 -0.0072  0.3212
30712W        W73624   8.179  23.692  25.738  0.0183 -0.0330  0.1735
30713W        W73625   4.338  21.687  25.875 -0.0656 -0.1283 -0.0048
30714W        W73626   6.446  24.140  27.744 -0.0746 -0.0732 -0.1324
30715W        W73627   4.581  23.334  23.482  0.4610  0.0455  0.3420
30716W        W73628   3.271  24.887  26.669  0.1184  0.1162  0.1025
30717W        W73629   6.226  21.303  23.833 -0.1976  0.2073 -0.0588
30718W        W73630   8.005  22.502  24.305 -0.2416  0.1050  0.1202
30719W        W73631   6.273  23.361  26.991 -0.1061  0.0827  0.0146
30720W        W73632   7.468  23.460  24.849  0.2462  0.0907  0.0451
30721W        W73633   7.485  22.709  24.548 -0.0508 -0.2262  0.1427
30722W        W73634   4.427  22.279  23.399  0.0290  0.0312  0.0618
30723W        W73635   3.987  24.867  25.201  0.1860  0.0124  0.3238
30724W        W73636   5.820  24.272  25.507 -0.0239  0.1113  0.0104
30725W        W73637   5.208  24.205  26.190  0.2084  0.2090  0.0574
30726W        W73638   6.385  22.472  23.589  0.0359 -0.1257  0.0062
30727W        W73639   8.647  25.788  24.322 -0.3506  0.4240 -0.4701
30728W        W73640   3.971  22.817  25.093 -0.4126 -0.0540  0.2658
30729W        W73641   5.849  24.078  28.372 -0.1363 -0.3102 -0.1493
30730W        W73642   7.082  25.188  24.529 -0.3646  0.3623 -0.1651
30731W        W73643   5.333  21.556  26.075 -0.0832  0.0484 -0.0634
30732W        W73644   5.117  23.997  22.797 -0.0690 -0.0757 -0.1684
30733W        W73645   6.847  22.758  25.606  0.0725  0.0017  0.0501
30734W        W73646   2.165  25.199  24.379 -0.2533 -0.0112 -0.0562
30735W        W73647   6.320  22.297  26.185 -0.1049  0.0554 -0.1842
30736W        W73648   5.581  21.846  25.716 -0.0749 -0.0774 -0.1124
30737W        W73649   5.856  21.596  26.771  0.0361 -0.0207  0.0807
30738W        W73650   7.111  23.952  26.770 -0.2068  0.2528 -0.1282
30739W        W73651   8.116  22.740  23.719  0.2474  0.4268 -0.1173
30740W        W73652   4.871  23.364  24.687  0.2237 -0.0829  0.2538
30741W        W73653   3.587  23.077  23.525  0.4378  0.0971 -0.0638
30742W        W73654   4.502  23.164  26.735  0.0201  0.0571 -0.3408
30743W        W73655   2.993  23.497  26.035  0.2881  0.1985  0.0946
30744W        W73656   4.482  24.926  24.698 -0.1595 -0.0639  0.3471
30745W        W73657   5.789  24.559  27.414 -0.1490  0.2530 -0.0040
30746W        W73658   5.767  24.073  24.148  0.1131 -0.2501  0.1219
30747W        W73659   4.758  22.957  25.783 -0.2749 -0.0806  0.3506
30748W        W73660   4.424  21.789  23.172  0.1326 -0.1506 -0.1811
30749W        W73661   4.213  24.143  23.494 -0.2443  0.0447 -0.1561
30750W        W73662   5.286  23.931  23.804  0.2356 -0.2074  0.2372
30751W        W73663   4.928  21.685  24.661  0.3223  0.2695 -0.0254
30752W        W73664   5.855  24.798  25.598 -0.3120 -0.2297  0.0866
30753W        W73665   4.754  24.893  23.182  0.0797  0.0051  0.0574
30754W        W73666   6.277  22.184  28.171 -0.2500 -0.0154  0.0098
30755W        W73667   4.348  25.992  24.346  0.3625 -0.1660 -0.2104
30756W        W73668   6.794  21.840  24.304 -0.2217 -0.0166  0.2619
30757W        W73669   3.125  25.510  25.214 -0.0193 -0.2388  0.0449
30758W        W73670   5.102  23.451  23.891  0.0112  0.1437  0.1619
30759W        W73671   3.907  22.625  25.579 -0.1813 -0.1650 -0.2365
30760W        W73672   6.316  21.750  24.190 -0.2009 -0.0581  0.0682
30761W        W73673   7.775  24.758  24.862 -0.0815  0.1276 -0.2240
30762W        W73674   4.609  23.089  25.004 -0.1668 -0.4852 -0.1529
30763W        W73675   5.884  22.788  26.160 -0.1198  0.0540  0.2649
30764W        W73676   3.920  24.903  25.699  0.1244  0.2057  0.1169
30765W        W73677   6.369  24.076  28.205  0.0995 -0.4153 -0.1238
30766W        W73678   6.541  21.292  24.227  0.0172  0.1567  0.2834
30767W        W73679   6.802  24.504  27.593 -0.0658 -0.1031 -0.0933
30768W        W73680   5.193  23.513  27.216  0.3212 -0.1198 -0.2749
30769W        W73681   3.695  22.719  23.983 -0.1745  0.1407  0.3647
30770W        W73682   5.812  23.495  27.199  0.2315  0.0529  0.1119
30771W        W73683   4.432  23.554  24.652 -0.0499  0.0903  0.0281
30772W        W73684   3.207  25.024  25.006  0.1621 -0.0203 -0.1354
30773W        W73685   5.584  25.158  27.145 -0.0021 -0.0352 -0.0213
30774W        W73686   4.233  22.763  24.175 -0.2493 -0.1515  0.2365
30775W        W73687   3.257  25.304  24.079  0.2317 -0.0553 -0.0161
30776W        W73688   5.583  22.363  27.571 -0.0202  0.1935 -0.0030
30777W        W73689   7.181  24.735  27.814 -0.1550 -0.1725  0.5768
30778W        W73690   6.291  21.237  25.763  0.0455 -0.0702 -0.0668
30779W        W73691   5.424  22.617  24.337 -0.3681 -0.1514 -0.3381
30780W        W73692   5.589  23.271  25.911  0.1196 -0.0265  0.0510
30781W        W73693   5.488  22.539  25.704  0.1970 -0.2373  0.2914
30782W        W73694   6.745  23.934  25.872 -0.1804  0.1093 -0.2953
30783W        W73695   4.099  24.187  26.466 -0.0531 -0.2855  0.2693
30784W        W73696   4.783  22.215  25.271 -0.2364  0.2467  0.2692
30785W        W73697   6.988  25.657  24.283  0.2206  0.0812 -0.1241
30786W        W73698   7.950  24.054  25.468  0.3181  0.0377 -0.1113
30787W        W73699   5.917  24.518  24.573 -0.1096 -0.0274 -0.1408
30788W        W73700   1.562  23.150  24.826  0.2537  0.2527 -0.0039
30789W        W73701   3.956  24.444  23.834  0.0792  0.0879  0.2787
30790W        W73702   5.219  22.963  25.635  0.3201  0.1919  0.0164
30791W        W73703   3.850  23.772  23.874 -0.1379  0.1914  0.0979
30792W        W73704   4.589  24.513  25.086 -0.1446  0.0479 -0.1109
30793W        W73705   4.072  23.780  25.327  0.0931 -0.0781  0.0218
30794W        W73706   7.168  22.156  25.214 -0.0021  0.1089 -0.0354
30795W        W73707   6.345  25.235  23.350  0.2478 -0.0366 -0.4953
30796W        W73708   5.172  22.874  24.721 -0.2730 -0.3594 -0.2004
30797W        W73709   7.268  22.840  26.487  0.0790  0.1618  0.2306
30798W        W73710   6.608  22.739  23.941 -0.1673 -0.0356 -0.1419
30799W        W73711   7.057  24.144  26.238 -0.5781  0.0259 -0.1198
30800W        W73712   3.834  22.040  26.864  0.1029 -0.0783  0.2083
30801W        W73713   6.222  23.951  25.358 -0.0762  0.2936  0.0396
30802W        W73714   2.938  22.777  26.223 -0.1892 -0.1135 -0.2266
30803W        W73715   6.148  25.061  25.901 -0.0339 -0.0242 -0.0223
30804W        W73716   3.899  23.749  26.352 -0.0406 -0.0137  0.1339
30805W        W73717   5.423  22.796  23.350  0.2087 -0.0891  0.0190
30806W        W73718   4.284  23.623  23.801 -0.1111 -0.1561  0.1286
30807W        W73719   4.288  24.096  23.988  0.3450  0.1630 -0.0735
30808W        W73720   7.487  25.610  24.497  0.1309  0.0494 -0.2207
30809W        W73721   5.323  24.800  23.918 -0.3374 -0.0624  0.0133
30810W        W73722   7.399  24.338  25.056 -0.2280 -0.2044  0.1634
30811W        W73723   3.838  23.409  25.505 -0.1199  0.2928  0.0176
30812W        W73724   5.679  23.001  24.192 -0.4881  0.1111 -0.1226
30813W        W73725   5.235  23.644  24.366 -0.2719 -0.1572 -0.2262
30814W        W73726   4.130  24.515  26.104  0.1529  0.3648 -0.0584
30815W        W73727   4.635  22.408  27.906  0.0268 -0.1158  0.2437
30816W        W73728   7.246  23.623  26.262  0.0716  0.3315  0.0475
30817W        W73729   5.814  21.612  26.196  0.1643 -0.2565  0.0697
30818W        W73730   5.487  22.834  25.183 -0.1871 -0.0345 -0.1138
30819W        W73731   6.837  22.833  26.837  0.4203  0.1586  0.2791
30820W        W73732   5.397  24.638  26.440 -0.0667 -0.2396  0.2519
30821W        W73733   2.943  22.285  25.909 -0.0425  0.0898 -0.0106
30822W        W73734   7.622  26.069  27.385  0.1004  0.0542 -0.2011
30823W        W73735   7.118  24.534  22.634 -0.0771 -0.0750 -0.3042
30824W        W73736   7.203  22.635  25.996 -0.3243 -0.0295 -0.2728
30825W        W73737   6.619  24.790  25.734  0.1631  0.2416  0.1927
30826W        W73738   6.014  22.639  24.317 -0.3543 -0.0337 -0.2394
30827W        W73739   5.636  23.530  24.116  0.0112 -0.3952  0.1066
30828W        W73740   4.977  22.931  26.828 -0.0296 -0.0877  0.0611
30829W        W73741   4.607  22.440  23.824 -0.0387 -0.2620  0.2621
30830W        W73742   5.482  22.691  26.653 -0.1693 -0.1119 -0.0538
30831W        W73743   6.589  24.292  25.566 -0.1841 -0.2304  0.3159
30832W        W73744   7.808  23.546  25.329 -0.0516 -0.1809 -0.3097
30833W        W73745   6.409  23.055  25.806  0.0282 -0.2453  0.2884
30834W        W73746   3.527  23.686  25.249  0.2889  0.0761  0.1950
30835W        W73747   3.494  24.812  27.449 -0.0357 -0.0098 -0.4000
30836W        W73748   3.515  22.804  22.827 -0.0139  0.2046 -0.0131
30837W        W73749   5.489  23.977  22.422  0.0117 -0.0821  0.0702
30838W        W73750   5.561  24.179  26.523  0.2621  0.1108  0.0651
30839W        W73751   8.809  25.392  26.072 -0.2117 -0.2879  0.0018
30840W        W73752   5.893  23.105  25.066 -0.1324 -0.0306  0.0554
30841W        W73753   5.142  22.001  26.003 -0.2328 -0.3183  0.4716
30842W        W73754   3.728  25.224  23.982 -0.0970  0.1187  0.4924
30843W        W73755   7.147  21.643  25.420  0.0014  0.2595 -0.2877
30844W        W73756   4.259  24.614  26.662  0.1027  0.0594  0.0417
30845W        W73757   5.341  24.581  25.411  0.2071 -0.0368 -0.0343
30846W        W73758   5.081  25.890  25.094 -0.1127  0.2738 -0.1595
30847W        W73759   5.576  22.329  24.862  0.2190 -0.0456  0.0129
30848W        W73760   5.910  22.547  25.293 -0.2384 -0.2800 -0.2365
30849W        W73761   5.191  23.075  24.262 -0.0057  0.3197  0.3441
30850W        W73762   6.592  24.336  26.055 -0.1141 -0.1510  0.0688
30851W        W73763   6.110  24.340  26.851 -0.0448 -0.0573  0.0651
30852W        W73764   4.920  22.767  25.239  0.1158 -0.0893  0.4984
30853W        W73765   5.714  23.661  26.198  0.0260 -0.3371 -0.2517
30854W        W73766   8.550  24.427  23.569 -0.0487 -0.0795 -0.1218
30855W        W73767   4.885  23.872  25.721  0.0985 -0.0999  0.1434
30856W        W73768   4.202  22.693  27.745 -0.1241  0.0242 -0.0383
30857W        W73769   5.465  24.081  27.111  0.0454  0.0312  0.0669
30858W        W73770   6.034  23.588  24.874  0.2317 -0.0641  0.0449
30859W        W73771   4.151  21.657  24.201  0.2105 -0.0149  0.0095
30860W        W73772   5.219  24.655  23.216  0.0530  0.0457 -0.2600
30861W        W73773   4.313  25.789  27.212  0.0164 -0.3187  0.0762
30862W        W73774   3.205  22.841  23.701  0.1374  0.2746 -0.1360
30863W        W73775   7.000  25.189  24.060  0.0685  0.0670 -0.0702
30864W        W73776   6.462  24.153  24.053 -0.1777 -0.0018  0.1547
30865W        W73777   5.667  23.855  24.571  0.0169  0.0668  0.0221
30866W        W73778   7.666  24.438  27.214  0.0809 -0.2694  0.0552
30867W        W73779   4.400  23.009  22.523  0.0152 -0.1632  0.3020
30868W        W73780   4.489  23.647  25.558  0.5131 -0.0577 -0.1311
30869W        W73781   3.332  24.913  23.170 -0.1558 -0.1168  0.3880
30870W        W73782   6.890  23.334  24.039 -0.2860  0.0882 -0.2885
30871W        W73783   4.049  25.615  24.919 -0.2599  0.3739  0.2762
30872W        W73784   7.070  24.820  26.814 -0.0856  0.0897 -0.0292
30873W        W73785   8.167  23.112  25.218 -0.1696  0.1087 -0.0494
30874W        W73786   5.434  23.144  26.910 -0.1517 -0.3381  0.0138
30875W        W73787   9.353  23.321  24.206  0.2597  0.1464  0.0771
30876W        W73788   6.278  24.521  27.446 -0.0381 -0.0273  0.0056
30877W        W73789   3.830  21.601  26.056 -0.2560 -0.0788 -0.0661
30878W        W73790   5.241  22.379  22.109 -0.0726 -0.3438 -0.0394
30879W        W73791   4.802  23.503  26.517 -0.0163 -0.0172  0.0196
30880W        W73792   6.895  22.664  27.415  0.1120  0.0591  0.0365
30881W        W73793   3.333  25.282  27.133  0.1390 -0.0466 -0.2084
30882W        W73794   5.664  25.814  24.837 -0.1231 -0.0085  0.2442
30883W        W73795   4.303  23.252  24.329 -0.0908 -0.1490  0.0540
30884W        W73796   4.481  24.454  24.605 -0.2816  0.1511  0.2686
30885W        W73797   8.235  19.559  26.666 -0.3610  0.0061 -0.0222
30886W        W73798   6.312  24.916  22.268 -0.0815 -0.3478  0.1274
30887W        W73799   6.341  22.963  25.327  0.2424  0.3028 -0.0308
30888W        W73800   4.144  25.781  25.667 -0.0807  0.2916 -0.0790
30889W        W73801   4.275  25.168  26.007  0.0677  0.3035 -0.3742
30890W        W73802   5.037  25.568  25.815 -0.0850  0.0593 -0.1808
30891W        W73803   4.961  22.663  24.151 -0.4023  0.1275  0.1078
30892W        W73804   9.202  22.603  25.857  0.1196  0.1007 -0.3052
30893W        W73805   3.768  23.789  27.169  0.1164 -0.2545 -0.3253
30894W        W73806   6.398  21.516  26.864 -0.1604 -0.0593  0.0458
30895W        W73807   4.141  23.433  25.917 -0.0826  0.0645  0.1449
30896W        W73808   7.063  24.323  25.705 -0.1042  0.0973 -0.1601
30897W        W73809   5.126  24.180  25.181 -0.4193 -0.1364 -0.1471
30898W        W73810   3.634  23.478  26.035 -0.2578  0.0027  0.1065
30899W        W73811   5.491  23.179  23.708  0.0348 -0.1376 -0.0810
30900W        W73812   7.287  24.339  27.510 -0.1755  0.0545  0.2565
30901W        W73813   6.326  23.127  23.964  0.0318 -0.1779  0.2048
30902W        W73814   6.367  25.061  27.436  0.2039 -0.1452  0.0253
30903W        W73815   4.482  22.488  25.963 -0.0349 -0.0654 -0.1047
30904W        W73816   7.245  22.137  24.501 -0.0510  0.0134 -0.1673
30905W        W73817   4.106  25.233  24.512  0.2211 -0.0112  0.0361
30906W        W73818   6.115  24.054  26.351  0.0979  0.2998 -0.0071
30907W        W73819   6.095  23.792  27.869 -0.0313  0.0718  0.0439
30908W        W73820   3.028  22.919  25.104  0.1306 -0.0568 -0.1293
30909W        W73821   8.036  25.274  24.611  0.2375  0.2294  0.0616
30910W        W73822   7.714  22.810  25.969 -0.1173  0.3652 -0.0317
30911W        W73823   4.971  24.556  24.440 -0.2761 -0.3138 -0.2389
30912W        W73824   5.778  23.721  25.675  0.1858  0.1503 -0.1009
30913W        W73825   6.216  26.098  25.500  0.2185  0.1524  0.0898
30914W        W73826   2.330  22.036  25.309  0.3428 -0.1587 -0.2276
30915W        W73827   6.529  23.269  26.226 -0.0018 -0.0382 -0.3104
30916W        W73828   6.969  23.988  27.395 -0.1811 -0.4031  0.3284
30917W        W73829   6.179  22.491  25.702 -0.2294 -0.0519 -0.0096
30918W        W73830   3.984  22.492  24.712 -0.1752  0.0467 -0.1393
30919W        W73831   3.547  26.284  24.710 -0.0361  0.0117 -0.1775
30920W        W73832   7.495  23.185  26.178  0.2685  0.0185  0.0919
30921W        W73833   6.213  21.948  25.821  0.1956  0.0188 -0.2983
30922W        W73834   5.403  24.436  24.250  0.0800  0.1761  0.1919
30923W        W73835   5.369  22.627  27.196 -0.3292  0.3253  0.0107
30924W        W73836   4.468  22.560  25.462  0.1350 -0.3405  0.0671
30925W        W73837   4.712  25.492  27.917 -0.2400 -0.1222  0.1592
30926W        W73838   4.527  23.844  23.230 -0.0885 -0.2736 -0.1092
30927W        W73839   4.294  23.494  26.438  0.1441 -0.1120 -0.0673
30928W        W73840   4.613  25.332  25.696 -0.1273  0.0689  0.0062
30929W        W73841   5.606  25.276  24.577  0.0914 -0.1667  0.2550
30930W        W73842   5.305  24.207  24.685  0.2063 -0.0205  0.0014
30931W        W73843   6.062  23.439  25.401  0.5983  0.2306  0.1701
30932W        W73844   6.927  26.433  24.656  0.2683  0.3223 -0.1778
30933W        W73845   5.191  21.992  25.001 -0.0032  0.1357 -0.1299
30934W        W73846   7.794  20.828  23.062 -0.0155  0.0789 -0.0395
30935W        W73847   7.849  22.214  24.700  0.0667  0.1153 -0.0005
30936W        W73848   5.006  21.485  26.412 -0.0231 -0.1555 -0.0007
30937W        W73849   4.218  23.360  25.107 -0.2347  0.0649 -0.0377
30938W        W73850   4.040  22.627  22.804 -0.0160 -0.1513  0.1410
30939W        W73851   4.220  24.119  24.950  0.0012 -0.0290  0.1990
30940W        W73852   5.571  21.458  28.913 -0.4134 -0.2388  0.2283
30941W        W73853   3.650  24.071  26.749  0.1629  0.0571 -0.0075
30942W        W73854   2.506  23.490  25.914 -0.0069  0.2279  0.0492
30943W        W73855   3.263  22.529  24.844 -0.1446  0.1816 -0.1509
30944W        W73856   7.051  24.019  25.297  0.1378  0.0185  0.1626
30945W        W73857   3.538  22.816  25.371  0.0074 -0.3757  0.0649
30946W        W73858   2.509  22.853  24.800 -0.0689  0.1677 -0.1317
30947W        W73859   6.388  24.769  26.367  0.2875  0.1361  0.2809
30948W        W73860   6.379  24.819  24.904  0.5004 -0.1748  0.2133
30949W        W73861   7.078  22.683  25.181 -0.0198 -0.2017  0.1882
30950W        W73862   7.728  24.151  27.705 -0.3680  0.0801  0.1188
30951W        W73863   4.569  23.589  22.057  0.2621 -0.2982 -0.0925
30952W        W73864   5.230  23.783  27.722 -0.1021 -0.2149  0.1526
30953W        W73865   4.011  22.188  28.571 -0.2091  0.1383  0.1065
30954W        W73866   4.729  20.559  23.848 -0.3326  0.0271  0.3794
30955W        W73867   6.242  22.053  25.329  0.2990 -0.1586  0.0727
30956W        W73868   6.528  24.204  25.047 -0.1660  0.1849  0.2768
30957W        W73869   7.798  25.031  23.910 -0.0769 -0.2723  0.0446
30958W        W73870   6.161  24.441  25.837  0.1440 -0.1422 -0.1213
30959W        W73871   5.108  23.248  25.129 -0.0126  0.2972  0.2100
30960W        W73872   4.487  21.619  26.723 -0.0725 -0.1583  0.1751
30961W        W73873   7.280  24.502  23.335 -0.2314  0.1268 -0.0073
30962W        W73874   4.920  25.126  27.213 -0.0102 -0.1171 -0.2640
30963W        W73875   6.935  24.274  24.274 -0.2443 -0.1923  0.3891
30964W        W73876   7.990  22.019  26.000  0.1859  0.4527 -0.1278
30965W        W73877   6.118  23.922  24.424  0.2130 -0.0529  0.0348
30966W        W73878   5.012  21.863  26.771 -0.1349  0.4667  0.1906
30967W        W73879   4.105  24.326  27.537 -0.3096  0.0808 -0.0788
30968W        W73880   6.042  22.505  26.588  0.0319 -0.0239  0.1281
30969W        W73881   4.654  21.923  24.279  0.1862 -0.2469 -0.0406
30970W        W73882   6.735  21.571  23.388  0.0668 -0.1616  0.2824
30971W        W73883   5.020  24.436  23.667  0.1976  0.0659  0.3572
30972W        W73884   4.614  22.082  24.792 -0.1415  0.0296 -0.1102
30973W        W73885   7.405  23.936  25.786 -0.0320 -0.0918 -0.2802
30974W        W73886   6.529  24.660  27.024 -0.1132  0.2585 -0.0635
30975W        W73887   7.277  24.786  25.014 -0.1379  0.0264  0.1000
30976W        W73888   7.287  24.777  27.288  0.1680 -0.0243  0.1238
30977W        W73889   6.178  24.516  25.213 -0.0109  0.0876 -0.0608
30978W        W73890   6.657  24.999  23.633 -0.2324 -0.1613 -0.0211
30979W        W73891   6.269  25.430  26.198 -0.0289  0.3014 -0.0540
30980W        W73892   5.781  24.753  28.450  0.0161 -0.1194 -0.1752
30981W        W73893   5.200  26.186  25.586  0.1167 -0.2736  0.0033
30982W        W73894   8.198  22.449  25.815  0.2130  0.0002  0.0415
30983W        W73895   4.055  21.808  26.473 -0.1300 -0.0060 -0.3974
30984W        W73896   4.600  22.804  23.478  0.1207 -0.1602  0.0056
30985W        W73897   5.523  23.318  25.399 -0.0554  0.2647  0.1537
30986W        W73898   7.528  23.974  26.496 -0.1356 -0.0227  0.1488
30987W        W73899   3.319  21.466  26.087 -0.2177  0.0350 -0.1319
30988W        W73900   6.503  21.378  25.236  0.2607 -0.0108 -0.0224
30989W        W73901   4.985  24.882  26.379  0.3268 -0.0213  0.0036
30990W        W73902   6.065  23.391  26.543  0.1244  0.0942 -0.2747
30991W        W73903   5.152  24.948  31.899 -0.0774  0.2723  0.0305
30992W        W73904   5.262  22.655  28.781 -0.2689 -0.0867  0.0859
30993W        W73905   6.825  23.566  28.885  0.1129  0.3897  0.1759
30994W        W73906   8.322  22.906  27.588 -0.0893  0.1461 -0.1578
30995W        W73907   3.354  22.007  26.835  0.0251  0.1265  0.0817
30996W        W73908   5.764  26.077  28.955  0.0882  0.0151  0.0116
30997W        W73909   4.756  22.145  30.239  0.3595 -0.0176 -0.0270
30998W        W73910   6.277  24.921  29.427  0.1550  0.1019 -0.2070
30999W        W73911   6.175  25.907  29.342  0.3004 -0.0581 -0.1718
31000W        W73912   6.377  23.841  26.757 -0.0096  0.1884  0.0622
31001W        W73913   6.543  23.024  28.698  0.1582 -0.0985  0.2017
31002W        W73914   5.917  26.027  31.173  0.0468 -0.0662  0.1765
31003W        W73915   4.810  21.536  29.570  0.1134 -0.2346  0.1663
31004W        W73916   3.670  21.320  30.369 -0.0411  0.1694 -0.0577
31005W        W73917   6.779  23.572  30.468  0.1024  0.0232 -0.2676
31006W        W73918   4.422  22.744  28.253  0.1110 -0.2134 -0.0537
31007W        W73919   4.826  23.216  28.499 -0.1741 -0.3583  0.0626
31008W        W73920   5.470  23.213  27.580 -0.1215 -0.1877 -0.0944
31009W        W73921   5.362  25.709  28.949  0.0709 -0.3448 -0.0208
31010W        W73922   5.321  22.138  29.016  0.0934 -0.0296  0.1562
31011W        W73923   5.671  24.234  30.270 -0.2781 -0.2768  0.0580
31012W        W73924   5.496  24.282  27.612 -0.2381 -0.0389 -0.3825
31013W        W73925   3.603  23.528  26.658 -0.3157  0.0702  0.0034
31014W        W73926   3.725  22.952  28.617 -0.1619  0.0288 -0.1150
31015W        W73927   3.771  24.034  30.360  0.4236  0.0064 -0.0076
31016W        W73928   6.724  23.568  29.392 -0.1138  0.0704 -0.2614
31017W        W73929   7.708  23.405  29.796 -0.0477  0.1819 -0.1158
31018W        W73930   5.630  25.185  28.092 -0.0319 -0.3403 -0.0148
31019W        W73931   6.132  24.943  28.063 -0.0800 -0.1839  0.0122
31020W        W73932   6.128  23.842  31.692 -0.0635 -0.1807 -0.1225
31021W        W73933   5.217  24.656  27.532  0.2218  0.0460  0.3128
31022W        W73934   3.763  24.450  27.827 -0.5619 -0.0588  0.0397
31023W        W73935   4.562  24.135  27.667  0.2521  0.0237  0.1257
31024W        W73936   7.532  24.028  29.334 -0.3536 -0.0364 -0.1088
31025W        W73937   6.632  24.726  29.878  0.2924  0.1164  0.2377
31026W        W73938   4.792  24.904  30.376  0.1596  0.0310 -0.5826
31027W        W73939   5.068  24.297  26.751 -0.2544 -0.2010 -0.1182
31028W        W73940   7.105  25.012  30.828  0.0235  0.2847  0.2436
31029W        W73941   5.404  25.482   0.196 -0.2075 -0.2429  0.1830
31030W        W73942   4.939  22.690  28.267  0.2090 -0.1261  0.0743
31031W        W73943   6.483  23.697  27.406 -0.1594 -0.0863 -0.1048
31032W        W73944   5.680  24.505  26.900  0.0396 -0.2041 -0.0942
31033W        W73945   2.616  23.403  28.382  0.1089 -0.1064 -0.2652
31034W        W73946   4.556  24.666  30.920  0.0761 -0.0491 -0.2146
31035W        W73947   2.691  25.787  30.107 -0.2219  0.2327  0.0678
31036W        W73948   8.488  21.239  29.882 -0.1132  0.1322 -0.1764
31037W        W73949   3.122  25.141  27.684 -0.3380  0.0441 -0.3266
31038W        W73950   7.170  23.667  28.298 -0.0441 -0.1399 -0.0612
31039W        W73951   5.402  22.069  26.414  0.2778  0.1737  0.0880
31040W        W73952   5.746  22.073  28.107  0.2263  0.0829  0.2573
31041W        W73953   4.525  22.224  29.350  0.0974  0.0077 -0.1749
31042W        W73954   5.440  24.101  29.231 -0.1489 -0.1388  0.1548
31043W        W73955   4.359  22.665  29.178  0.2093 -0.1521  0.0593
31044W        W73956   5.931  25.065  29.806  0.1567 -0.1728 -0.2145
31045W        W73957   6.217  23.469  28.918  0.1666  0.0034 -0.3297
31046W        W73958   5.569  22.749  29.627  0.1885  0.2047 -0.1769
31047W        W73959   4.275  25.842  29.239 -0.2264 -0.0378  0.0517
31048W        W73960   4.268  23.792  30.842  0.0255 -0.0510 -0.1361
31049W        W73961   8.395  24.575  26.809  0.2549 -0.0809 -0.0142
31050W        W73962   6.214  24.813  28.756 -0.1310  0.1298  0.3247
31051W        W73963   5.216  24.764  26.930  0.1896 -0.1077 -0.1790
31052W        W73964   4.358  23.334  28.658 -0.2275  0.1625  0.0292
31053W        W73965   5.061  24.340  30.200 -0.1273 -0.0917 -0.2533
31054W        W73966   5.886  23.586  31.339  0.1458  0.1671  0.0193
31055W        W73967   5.663  22.274  28.676  0.0198  0.1786 -0.0985
31056W        W73968   7.903  24.615  30.960 -0.2354  0.0359  0.0647
31057W        W73969   3.371  26.486  30.624  0.1229  0.0954  0.0611
31058W        W73970   6.677  22.019  29.005  0.1022 -0.2256 -0.1398
31059W        W73971   4.495  25.872  30.146  0.1008  0.3040  0.1216
31060W        W73972   8.628  24.690  30.313  0.2699 -0.1229  0.2511
31061W        W73973   7.352  24.129  28.886 -0.0550 -0.1845  0.0345
31062W        W73974   5.416  21.840  28.671 -0.1412 -0.0034 -0.2736
31063W        W73975   6.715  22.618  30.403 -0.0427  0.2433  0.1927
31064W        W73976   5.343  23.634  26.491 -0.1968 -0.0983  0.0647
31065W        W73977   5.031  24.323  27.878  0.1593 -0.0265 -0.4071
31066W        W73978   6.771  24.631  30.856 -0.0860  0.1713 -0.2046
31067W        W73979   8.623  23.600  27.399  0.1992  0.2530 -0.0147
31068W        W73980   5.166  26.953  29.526  0.1113 -0.0359 -0.3265
31069W        W73981   5.642  24.866  30.182 -0.2465 -0.1304  0.0198
31070W        W73982   5.809  24.438   0.416 -0.0529  0.0184  0.2965
31071W        W73983   5.357  25.424  28.460 -0.0770 -0.2220 -0.0727
31072W        W73984   4.998  23.854  29.395 -0.1388 -0.0972  0.3137
31073W        W73985   1.782  23.792  27.557  0.0765  0.2709  0.0680
31074W        W73986   3.883  22.338  30.964 -0.2305 -0.1303 -0.0561
31075W        W73987   5.359  23.666  28.973 -0.1371 -0.0359  0.0184
31076W        W73988   6.624  22.407  27.730 -0.1388  0.1099 -0.0408
31077W        W73989   3.781  22.145  30.474 -0.1377 -0.3240 -0.3482
31078W        W73990   6.366  21.087  29.693 -0.0335 -0.0675  0.2024
31079W        W73991   5.508  24.584  28.802  0.1783  0.0296  0.0523
31080W        W73992   7.889  26.684  29.183  0.0285 -0.2658  0.0459
31081W        W73993   7.112  22.567  28.798 -0.0576 -0.1598 -0.2664
31082W        W73994   7.168  24.647  28.432  0.0067 -0.3808  0.0013
31083W        W73995   4.204  24.273  31.799 -0.0617 -0.1942  0.1374
31084W        W73996   5.623  23.060  28.393 -0.0503  0.2179 -0.0168
31085W        W73997   5.196  21.188  31.778 -0.0657 -0.0094 -0.2295
31086W        W73998   4.016  22.528  29.490 -0.2605  0.3650 -0.0512
31087W        W73999   6.515  23.151  30.563 -0.1277 -0.0693  0.1960
31088W        W74000   5.111  22.966  29.246  0.2926  0.0212  0.2235
31089W        W74001   6.305  22.757  29.733  0.0847 -0.0064 -0.1941
31090W        W74002   5.185  23.089  28.069 -0.2608 -0.1059 -0.4262
31091W        W74003   2.819  24.185  28.458  0.0043  0.0912  0.2216
31092W        W74004   6.022  21.369  30.196  0.1475 -0.4151  0.0324
31093W        W74005   5.666  25.725  28.212 -0.2937 -0.2208 -0.0271
31094W        W74006   6.090  25.534  30.185 -0.1560  0.0112  0.0718
31095W        W74007   7.211  25.032  29.782 -0.2848 -0.0328 -0.0790
31096W        W74008   4.422  23.287  30.968  0.1662 -0.1612  0.0569
31097W        W74009   5.011  23.018  27.335 -0.2496  0.2412  0.1103
31098W        W74010   4.063  25.229  28.364 -0.0708 -0.0654 -0.1833
31099W        W74011   6.403  24.394  29.082  0.1254  0.6535  0.0617
31100W        W74012   6.090  23.052  28.457  0.1862 -0.3016 -0.4909
31101W        W74013   7.914  24.292  30.041 -0.0714 -0.1118 -0.4986
31102W        W74014   5.679  23.757  27.570 -0.1584 -0.1168 -0.1517
31103W        W74015   4.428  24.913  31.285  0.1655  0.1205  0.1518
31104W        W74016   6.913  23.046  30.151  0.0233  0.0573  0.4484
31105W        W74017   6.618  24.883  29.061  0.0553 -0.1845  0.2898
31106W        W74018   7.056  23.904  30.208 -0.0635  0.2460  0.0974
31107W        W74019   3.268  23.215  26.418 -0.1742 -0.0309  0.2106
31108W        W74020   6.285  25.765  28.788 -0.1145  0.2236 -0.1767
31109W        W74021   4.062  24.856  27.615 -0.1990 -0.2842 -0.0373
31110W        W74022   3.920  23.584  28.440 -0.2457 -0.0353 -0.3516
31111W        W74023   4.587  24.359  28.756  0.0000  0.0167  0.1035
31112W        W74024   6.631  22.523  28.892  0.1073  0.1493  0.1399
31113W        W74025   5.332  23.481  30.631 -0.0093 -0.0956  0.3474
31114W        W74026   5.877  22.638   0.003  0.0540  0.0629  0.0073
31115W        W74027   5.711  23.527  28.080 -0.0456  0.1637  0.0274
31116W        W74028   4.581  25.718  31.785 -0.2194  0.1643 -0.3025
31117W        W74029   6.867  20.978  29.107  0.1433  0.5697 -0.1491
31118W        W74030   7.975  22.572  29.527 -0.1824 -0.4604  0.1230
31119W        W74031   5.046  23.035  30.356  0.0621  0.0956  0.2269
31120W        W74032   7.700  23.778  28.736  0.1068 -0.1489  0.1611
31121W        W74033   5.408  24.015  28.088 -0.1263 -0.1492 -0.4851
31122W        W74034   5.897  22.977  26.816 -0.0657 -0.3271 -0.0372
31123W        W74035   5.749  25.597  31.805 -0.0698  0.1807 -0.0103
31124W        W74036   4.761  23.775  27.400 -0.3282  0.0333  0.1744
31125W        W74037   5.054  24.214  28.952 -0.1239 -0.1574 -0.0290
31126W        W74038   5.719  22.957  27.929  0.2878 -0.3062 -0.2588
31127W        W74039   6.706  24.911  28.517 -0.0330 -0.3078 -0.0625
31128W        W74040   3.610  22.760  28.086  0.1246  0.2376  0.3267
31129W        W74041   5.003  25.235  29.421 -0.1122 -0.1905  0.2418
31130W        W74042   6.805  25.892  28.666 -0.0143 -0.0050 -0.1989
31131W        W74043   4.901  22.299  29.800 -0.0385  0.1475 -0.1765
31132W        W74044   4.951  23.394  25.589  0.1254  0.3801  0.2474
31133W        W74045   4.891  21.097  29.466  0.0508  0.2435  0.1472
31134W        W74046   2.889  25.289  26.790 -0.1440  0.2097  0.1022
31135W        W74047   3.744  21.917  30.041 -0.1283 -0.0022  0.0978
31136W        W74048   6.764  23.044  29.671  0.2499  0.0532  0.1244
31137W        W74049   4.022  22.376  28.107  0.1041  0.0351  0.1018
31138W        W74050   7.324  22.514  29.252  0.0263 -0.3888  0.0816
31139W        W74051   5.853  23.863  26.730 -0.0880  0.0513  0.1372
31140W        W74052   5.346  22.053  29.819 -0.0494 -0.2304  0.0279
31141W        W74053   4.898  24.506  25.542  0.0359  0.3088  0.2022
31142W        W74054   5.117  23.067   0.083  0.0294 -0.0954 -0.1344
31143W        W74055   4.286  24.724  30.428 -0.0800 -0.5158 -0.4097
31144W        W74056   3.267  25.785  29.535  0.1777  0.1935 -0.1251
31145W        W74057   4.902  23.532  30.323  0.1097  0.4248  0.1113
31146W        W74058   6.420  23.084  29.199 -0.0466  0.0332 -0.0414
31147W        W74059   5.565  22.545  31.486 -0.0696  0.2462 -0.2113
31148W        W74060   5.264  22.404  29.424 -0.1750 -0.2891  0.3048
31149W        W74061   5.358  26.006  26.826 -0.1219 -0.1626  0.1620
31150W        W74062   4.919  23.856  26.932 -0.1718  0.0332 -0.1620
31151W        W74063   3.629  21.829  29.528  0.2138  0.0572  0.1732
31152W        W74064   5.305  24.421  28.327 -0.0133 -0.0339 -0.2247
31153W        W74065   5.316  25.554  26.915  0.0895 -0.2533 -0.0531
31154W        W74066   6.760  23.477  29.919  0.3849 -0.0647 -0.0582
31155W        W74067   4.485  25.048  28.146  0.1028 -0.1641 -0.3334
31156W        W74068   6.456  22.183  31.265  0.0020 -0.0622  0.0349
31157W        W74069   5.288  25.725  29.916 -0.1607 -0.1047  0.1677
31158W        W74070   6.259  21.630  28.095 -0.0546 -0.4448  0.0458
31159W        W74071   4.396  23.182  27.713  0.2840  0.0731 -0.2785
31160W        W74072   5.494  21.568  30.188 -0.0368 -0.0433 -0.2133
31161W        W74073   7.307  24.257  28.008 -0.0094 -0.1297  0.0008
31162W        W74074   4.801  22.654  29.509 -0.0126  0.0835  0.0049
31163W        W74075   6.872  22.785  29.195  0.0371  0.0587 -0.0631
31164W        W74076   3.082  24.862  29.732 -0.2027  0.1407 -0.2458
31165W        W74077   4.408  23.570  28.228  0.3731 -0.1928 -0.0478
31166W        W74078   6.945  22.123  27.538 -0.1788  0.1121  0.3083
31167W        W74079   5.270  25.162  30.373  0.0176 -0.0860 -0.1382
31168W        W74080   5.530  25.212  31.635  0.2865  0.1089 -0.2898
31169W        W74081   3.238  24.008  27.089  0.0134  0.0724  0.0368
31170W        W74082   6.331  23.379  29.659  0.0585  0.3766  0.1002
31171W        W74083   4.680  22.321  28.511  0.1696 -0.0015  0.1833
31172W        W74084   4.038  23.530  29.525 -0.3773  0.1892 -0.1434
31173W        W74085   4.793  25.397  28.385 -0.0725  0.3014  0.0624
31174W        W74086   4.882  22.409  29.055  0.0427  0.1018 -0.0703
31175W        W74087   5.261  24.624  29.829 -0.0056 -0.3423 -0.4572
31176W        W74088   4.956  24.308  30.690  0.0534 -0.0897  0.1854
31177W        W74089   6.510  24.438  30.341  0.0635 -0.2088 -0.0326
31178W        W74090   5.512  24.090  28.708  0.0601 -0.2632  0.0601
31179W        W74091   5.946  22.466  27.169 -0.1409  0.2520  0.0381
31180W        W74092   4.438  24.560  27.258 -0.0948 -0.2588 -0.1901
31181W        W74093   6.339  23.540  30.150 -0.0964 -0.1470  0.1544
31182W        W74094   5.875  23.208  30.441 -0.3743  0.1360  0.1665
31183W        W74095   4.361  26.189  31.842  0.1164 -0.0372  0.1403
31184W        W74096   4.719  21.938  27.739 -0.0375 -0.1110  0.0071
31185W        W74097   7.673  25.175  27.307 -0.1361 -0.4677 -0.0584
31186W        W74098   7.091  23.815  29.256 -0.0827 -0.2918  0.1104
31187W        W74099   4.375  23.679  27.766 -0.0002  0.1996  0.0783
31188W        W74100   2.209  22.864  30.277  0.0648  0.3099 -0.0984
31189W        W74101   4.090  23.993  28.039 -0.1056 -0.1331 -0.1095
31190W        W74102   4.717  22.898  31.040  0.1828  0.2855  0.0843
31191W        W74103   4.552  23.453  29.599 -0.1083 -0.1658 -0.3084
31192W        W74104   3.188  23.840  28.541  0.4005 -0.0372 -0.0025
31193W        W74105   4.705  23.866  30.641 -0.0262 -0.2330 -0.3148
31194W        W74106   6.894  21.120  28.609 -0.2497 -0.0498 -0.0513
31195W        W74107   5.429  23.703  29.590 -0.0565 -0.0985  0.2187
31196W        W74108   2.881  22.764  29.486 -0.0930 -0.1515 -0.0162
31197W        W74109   7.170  22.778  31.929 -0.2320 -0.0441  0.2953
31198W        W74110   7.543  23.949  27.168 -0.1723 -0.1843  0.0491
31199W        W74111   5.861  22.374  29.120  0.1341 -0.2245  0.0945
31200W        W74112   4.312  21.606  29.571 -0.2013 -0.3631  0.2013
31201W        W74113   6.510  25.229  29.934  0.0195 -0.2676 -0.2041
31202W        W74114   4.213  22.690  31.087  0.2892 -0.3358 -0.2096
31203W        W74115   6.231  26.306  31.623  0.1410 -0.0833 -0.1541
31204W        W74116   5.278  23.470  31.656 -0.1024  0.0310  0.5014
31205W        W74117   5.838  21.851  29.916  0.1297 -0.1550  0.0880
31206W        W74118   4.032  23.334  27.002  0.1676 -0.1181 -0.0360
31207W        W74119   5.117  23.360  29.643  0.1438 -0.0333  0.4084
31208W        W74120   8.183  25.539  30.237  0.0747  0.0799 -0.1253
31209W        W74121   6.046  23.327  27.625 -0.2051 -0.2488  0.0361
31210W        W74122   6.875  22.335  29.369 -0.2394 -0.1678 -0.2572
31211W        W74123   4.151  23.966  28.665 -0.3064  0.1035 -0.1187
31212W        W74124   7.232  22.053  29.049  0.3310  0.0048  0.0617
31213W        W74125   7.034  25.187  28.072  0.0754  0.2521 -0.2371
31214W        W74126   3.146  23.647  27.987  0.4484 -0.2878  0.0362
31215W        W74127   5.137  23.930  30.893  0.1517  0.0279  0.2042
31216W        W74128   7.000  22.951  27.833 -0.0689  0.1175 -0.0115
31217W        W74129   5.962  22.331  29.627 -0.0822 -0.1375 -0.4254
31218W        W74130   5.732  23.140  30.954  0.3474  0.1054 -0.1154
31219W        W74131   4.355  22.994  29.675  0.0542 -0.2514 -0.0254
31220W        W74132   5.493  24.203  29.687  0.4169  0.0801  0.3503
31221W        W74133   4.380  23.104  31.437 -0.0890  0.0954  0.1272
31222W        W74134   6.161  25.300  28.962 -0.1486 -0.2490  0.2773
31223W        W74135   6.960  23.457  27.650 -0.0604  0.1532 -0.1016
31224W        W74136   8.047  23.064  29.555  0.3282 -0.1158 -0.0542
31225W        W74137   7.243  23.351  29.459  0.1120  0.2714  0.1845
31226W        W74138   4.825  23.416  27.728  0.2284 -0.0210 -0.1141
31227W        W74139   3.605  23.881  28.148 -0.0942  0.0447  0.0064
31228W        W74140   5.477  24.067  31.227  0.0640  0.0301 -0.2939
31229W        W74141   5.427  22.552  28.195 -0.1084  0.3603 -0.1211
31230W        W74142   6.032  22.195  31.575 -0.2129 -0.0055  0.1912
31231W        W74143   5.239  25.482  27.933 -0.1920 -0.1179 -0.0375
31232W        W74144   5.946  24.341  28.819  0.3879  0.0112  0.1718
31233W        W74145   6.719  23.212  28.238  0.0657 -0.2435  0.3019
31234W        W74146   4.235  22.800  28.699  0.0493  0.2570 -0.2986
31235W        W74147   4.597  24.575  29.989  0.2810 -0.0686 -0.2620
31236W        W74148   3.282  24.023  27.619 -0.2059 -0.0081  0.1667
31237W        W74149   4.635  24.364  26.379  0.0017  0.0851 -0.2418
31238W        W74150   5.505  23.243  29.324  0.0366  0.2101  0.0269
31239W        W74151   7.768  22.690  31.145 -0.4358  0.0569 -0.1264
31240W        W74152   5.380  21.515  29.689 -0.0844 -0.0090 -0.0454
31241W        W74153   6.041  21.636  31.498 -0.0533 -0.0350 -0.1726
31242W        W74154   3.877  23.892  25.849  0.2963 -0.1245 -0.0121
31243W        W74155   4.752  22.657  30.186  0.2329 -0.1493 -0.0428
31244W        W74156   5.140  24.759  30.920 -0.2583  0.0224  0.0804
31245W        W74157   4.371  23.514  30.417 -0.0107 -0.0182 -0.0151
31246W        W74158   5.946  24.382  27.865 -0.2804  0.0265 -0.1962
31247W        W74159   6.795  22.852  30.926  0.1448 -0.3698 -0.2539
31248W        W74160   6.726  22.542  29.945  0.2408  0.0510  0.2481
31249W        W74161   5.700  23.788  30.690  0.1653 -0.1357 -0.0701
31250W        W74162   6.526  23.823  31.271  0.0374  0.2227 -0.1956
31251W        W74163   6.067  25.357  29.438  0.2112 -0.0642  0.0313
31252W        W74164   4.532  24.056  28.362  0.1619  0.0591 -0.1035
31253W        W74165   5.874  24.632  29.627  0.1898 -0.2095 -0.3605
31254W        W74166   5.921  23.489  29.331  0.2086  0.1605 -0.1908
31255W        W74167   3.956  24.448  29.007  0.0181 -0.0189  0.1364
31256W        W74168   4.308  22.428  30.421 -0.1739 -0.2317  0.1465
31257W        W74169   6.017  23.991  31.003  0.1966 -0.2325 -0.1288
31258W        W74170   6.099  22.694  28.831 -0.2624  0.1158 -0.0773
31259W        W74171   4.809  22.917  27.798 -0.0368  0.3007  0.1680
31260W        W74172   6.435  23.478  27.923 -0.2922 -0.1525  0.0589
31261W        W74173   3.700  24.324  31.670  0.2054  0.3302  0.3195
31262W        W74174   3.338  24.349  30.590  0.0235  0.1339  0.0360
31263W        W74175   3.898  25.284  27.384 -0.2364 -0.2105  0.0435
31264W        W74176   6.545  25.371  28.205  0.0667 -0.3947 -0.2530
31265W        W74177   6.664  23.696  28.396 -0.1364  0.2325 -0.0729
31266W        W74178   4.885  25.458  30.402  0.0133  0.1801 -0.0270
31267W        W74179   4.836  22.288  26.424  0.1782 -0.0557 -0.0349
31268W        W74180   5.393  26.561  29.262 -0.1134  0.0244  0.1603
31269W        W74181   3.373  24.507  27.050 -0.3287 -0.0149 -0.0708
31270W        W74182   6.803  24.416  28.154 -0.0668  0.4377 -0.1396
31271W        W74183   4.445  26.889  27.344 -0.1365 -0.1291 -0.3312
31272W        W74184   6.318  23.993  30.532  0.2099  0.0223  0.1804
31273W        W74185   5.150  23.187  26.097 -0.2989 -0.2163 -0.0292
31274W        W74186   7.012  24.651  29.535  0.2406 -0.3088  0.3100
31275W        W74187   6.878  21.287  29.492  0.0292 -0.2028  0.1260
31276W        W74188   5.334  24.702  30.498  0.1890  0.2022 -0.1331
31277W        W74189   4.693  23.658  28.720  0.1262  0.1741  0.3691
31278W        W74190   4.824  22.879  26.242 -0.0472  0.0013 -0.2242
31279W        W74191   4.714  23.616  31.218 -0.1576 -0.4433 -0.0401
31280W        W74192   5.773  20.510  31.374 -0.0949  0.2860  0.1704
31281W        W74193   2.940  25.702  30.563  0.0024  0.0625  0.1660
31282W        W74194   6.057  25.232  28.456 -0.0226 -0.1704 -0.0158
31283W        W74195   5.187  22.220  28.456 -0.1608  0.2913  0.1445
31284W        W74196   6.179  23.599  28.397 -0.0524 -0.1782 -0.1585
31285W        W74197   6.509  21.315  30.247 -0.2344 -0.3164  0.3159
31286W        W74198   4.626  23.307  27.290 -0.0872  0.2240 -0.2171
31287W        W74199   4.531  24.841  27.669  0.0911  0.1338  0.1588
31288W        W74200   4.115  25.272  27.867  0.0745  0.2724 -0.0542
31289W        W74201   4.495  23.977  30.134  0.0606 -0.0087  0.0624
31290W        W74202   6.129  25.094  31.816 -0.0861 -0.1211 -0.0126
31291W        W74203   3.938  22.445  26.496 -0.1249  0.2125  0.2473
31292W        W74204   5.838  23.190  29.738 -0.0327 -0.1377  0.3036
31293W        W74205   5.247  23.164  28.713  0.0585 -0.2619 -0.0376
31294W        W74206   7.639  21.878  30.683 -0.3914 -0.1198 -0.1041
31295W        W74207   3.759  22.995  30.144  0.0640 -0.3101  0.2121
31296W        W74208   6.968  21.764  29.363  0.0569 -0.1251  0.0308
31297W        W74209   5.769  23.226  28.864  0.0727 -0.0582  0.0897
31298W        W74210   3.638  23.273  29.143  0.0044  0.1417 -0.0497
31299W        W74211   3.899  23.828  27.632  0.1868  0.1742 -0.0604
31300W        W74212   8.086  22.685  30.700 -0.4730  0.0221 -0.0653
31301W        W74213   5.678  24.239  26.021  0.0692  0.0374  0.0178
31302W        W74214   4.877  24.841  31.340  0.0671  0.2321 -0.1653
31303W        W74215   4.034  23.235  30.554 -0.0988  0.1797  0.1571
31304W        W74216   6.606  21.741  28.436  0.0694 -0.0117 -0.0262
31305W        W74217   1.916  24.335  28.321 -0.0563 -0.1595 -0.3715
31306W        W74218   5.993  22.820  29.353 -0.2165  0.0216 -0.1285
31307W        W74219   7.036  25.060  31.354 -0.0248 -0.1329 -0.0224
31308W        W74220   3.822  21.887  28.091 -0.1116  0.1732  0.0259
31309W        W74221   6.121  24.479  28.314 -0.1489  0.1985  0.1012
31310W        W74222   7.350  23.100  29.906  0.1628 -0.0319 -0.0259
31311W        W74223   6.245  25.100  25.363  0.1251 -0.1031 -0.1945
31312W        W74224   7.492  22.796  28.498 -0.2678 -0.2560  0.0540
31313W        W74225   6.506  26.440  29.171 -0.2036 -0.0644  0.1071
31314W        W74226   3.174  21.787  29.847  0.4371 -0.2209  0.0714
31315W        W74227   5.460  24.690  29.351  0.2467  0.0681 -0.0455
31316W        W74228   6.616  24.099  29.929  0.2297  0.1161 -0.1343
31317W        W74229   5.710  22.835  30.160  0.3856 -0.3088  0.1346
31318W        W74230   4.866  23.452  29.104 -0.2748 -0.0487  0.0699
31319W        W74231   4.254  24.723  28.504 -0.1662 -0.0724 -0.0581
31320W        W74232   7.051  22.130  29.849  0.0171 -0.1837  0.4894
31321W        W74233   7.054  23.155  30.617 -0.3495 -0.0441  0.1895
31322W        W74234   5.333  25.478  26.357  0.0755 -0.2647  0.0547
31323W        W74235   5.329  20.611  31.498 -0.0877 -0.0649  0.0780
31324W        W74236   5.876  24.800  29.114  0.3208  0.2615 -0.1505
31325W        W74237   5.679  25.042   0.054  0.0900  0.0808  0.0444
31326W        W74238   3.437  23.335  27.172 -0.0009 -0.2489  0.1453
31327W        W74239   4.071  24.341  30.108 -0.1352 -0.1571 -0.2023
31328W        W74240   4.959  24.201  27.358 -0.0603  0.2022  0.1478
31329W        W74241   6.544  24.159  27.168 -0.0749 -0.0459  0.0915
31330W        W74242   5.766  25.922  30.225  0.1502  0.0962 -0.0907
31331W        W74243   5.653  22.012  29.369 -0.1709 -0.2685  0.1014
31332W        W74244   7.433  22.954  29.016  0.0246  0.0506  0.0541
31333W        W74245   5.602  20.426  29.806 -0.4211 -0.2363 -0.3051
31334W        W74246   8.066  21.558  28.405  0.1323  0.1619 -0.1656
31335W        W74247   7.675  20.759  28.485 -0.0320  0.3541 -0.3442
31336W        W74248   5.401  25.232  30.865 -0.1081  0.0828  0.5069
31337W        W74249   3.542  23.019  27.646  0.1226  0.4110 -0.2052
31338W        W74250   3.292  23.838  26.365 -0.0808 -0.2018 -0.2120
31339W        W74251   4.700  26.126  28.321  0.0437  0.0168  0.1987
31340W        W74252   4.430  21.450  30.772  0.0577  0.1542 -0.0547
31341W        W74253   4.885  23.403  30.810 -0.1380 -0.0359  0.1757
31342W        W74254   3.547  23.430  28.667  0.2033 -0.2310 -0.0882
31343W        W74255   4.414  22.627  26.445 -0.0501  0.1636  0.1208
31344W        W74256   6.735  25.063  29.510 -0.0277  0.0708 -0.1263
31345W        W74257   3.567  22.621  29.808 -0.0409  0.2480 -0.2404
31346W        W74258   3.460  22.298  29.400 -0.2731  0.1261 -0.0044
31347W        W74259   5.714  23.646  28.578 -0.0172  0.0813 -0.0155
31348W        W74260   6.898  25.331  28.653  0.0143 -0.2220 -0.1096
31349W        W74261   4.927  21.966  28.789  0.1908 -0.1698  0.0850
31350W        W74262   6.407  25.309   0.391 -0.2139 -0.0003 -0.1893
31351W        W74263   4.123  24.391  25.470  0.1297 -0.0781 -0.2830
31352W        W74264   5.930  24.360  30.664 -0.1024  0.1167  0.0769
31353W        W74265   4.507  21.217  29.849  0.1031 -0.0654 -0.1713
31354W        W74266   4.423  22.088  28.827  0.2495 -0.0560  0.0828
31355W        W74267   6.513  23.017  27.592 -0.0248 -0.0232  0.1020
31356W        W74268   5.194  26.159  29.033  0.0316 -0.2390  0.3028
31357W        W74269   5.039  24.973  27.920  0.0466  0.0693  0.1972
31358W        W74270   5.899  23.861  28.985 -0.0304  0.2273  0.0859
31359W        W74271   5.881  23.922   0.644  0.1090 -0.1675  0.4266
31360W        W74272   4.194  22.953   0.465 -0.0478 -0.3385  0.1335
31361W        W74273   7.759  22.145  28.519  0.1460 -0.1434  0.2787
31362W        W74274   5.886  24.185  29.396  0.0537 -0.0351  0.0143
31363W        W74275   9.418  23.956  27.981  0.1875  0.3029  0.0073
31364W        W74276   8.248  23.242  29.170 -0.1650 -0.1022  0.1025
31365W        W74277   7.558  22.180  29.671  0.0945  0.0348 -0.2163
31366W        W74278   4.515  22.677  31.460  0.1416 -0.1331 -0.2667
31367W        W74279   5.220  23.609  28.238 -0.2885 -0.3797 -0.0481
31368W        W74280   6.325  23.908  29.249  0.2836 -0.2668  0.1690
31369W        W74281   4.109  23.360  30.022  0.0908  0.2361  0.1182
31370W        W74282   6.312  22.154  28.704  0.3546 -0.0054 -0.1030
31371W        W74283   5.624  24.705  27.999  0.0568  0.1842 -0.1492
31372W        W74284   5.054  23.958  28.510 -0.0581  0.1209  0.1354
31373W        W74285   5.900  22.588  28.292  0.1052 -0.0313 -0.1027
31374W        W74286   6.050  24.562  30.095  0.3523 -0.0959 -0.1463
31375W        W74287   5.775  25.621  29.156  0.1457 -0.1294  0.1300
31376W        W74288   6.310  24.397  29.683  0.0505 -0.2160  0.1408
31377W        W74289   6.299  23.966  28.726 -0.1610  0.1069  0.1358
31378W        W74290   7.538  24.283  28.457  0.0385 -0.1205  0.0463
31379W        W74291   5.826  25.287  30.566 -0.0104  0.1175 -0.0775
31380W        W74292   6.160  25.022  30.289 -0.2265  0.3889  0.0500
31381W        W74293   5.624  25.414  30.123 -0.1020  0.0923  0.3199
31382W        W74294   7.703  22.084  30.215 -0.0483  0.1832  0.2674
31383W        W74295   3.392  22.523  28.876 -0.0307  0.1375  0.0344
31384W        W74296   4.563  23.952  29.585 -0.4710  0.1368  0.1050
31385W        W74297   4.415  25.674  28.224 -0.0274 -0.2439 -0.0095
31386W        W74298   5.551  23.745  30.081  0.1121  0.0513  0.1198
31387W        W74299   4.028  23.065  28.199 -0.1966 -0.1379  0.0985
31388W        W74300   6.354  21.671  28.864  0.1793  0.0813 -0.3227
31389W        W74301   4.244  25.379  31.024 -0.2114  0.2430 -0.2266
31390W        W74302   6.303  22.496  29.264 -0.2727 -0.0476  0.1776
31391W        W74303   6.523  22.138  29.741  0.1022 -0.0615 -0.0958
31392W        W74304   6.760  24.212  31.515 -0.1640 -0.2698 -0.0900
31393W        W74305   5.014  23.930  29.931 -0.2123  0.0405 -0.0261
31394W        W74306   4.622  24.092  31.085 -0.0007 -0.1250 -0.1327
31395W        W74307   4.565  26.286   0.353  0.1698  0.0056  0.1838
31396W        W74308   3.557  26.177  30.991  0.0277  0.0687 -0.1760
31397W        W74309   6.523  23.347   0.415  0.3273 -0.2185 -0.0549
31398W        W74310   4.931  22.702  31.737  0.2078 -0.1434 -0.0001
31399W        W74311   6.754  21.586  29.908  0.4648  0.0403 -0.0008
31400W        W74312   7.240  25.465  31.527  0.3355  0.1548  0.0518
31401W        W74313   5.781  25.574  30.973 -0.1034  0.0724  0.0088
31402W        W74314   4.203  21.769  31.100 -0.4140 -0.1340 -0.1523
31403W        W74315   6.611  25.022  31.087  0.0798 -0.0927 -0.3109
31404W        W74316   5.886  23.011  31.593 -0.0066  0.4352  0.2209
31405W        W74317   6.409  24.285  30.972  0.2277 -0.1095 -0.1146
31406W        W74318   4.279  26.320  30.144 -0.0735  0.2698 -0.2813
31407W        W74319   3.646  25.436  31.497  0.1859  0.0709 -0.1902
31408W        W74320   7.076  25.121  31.869  0.1008  0.0339 -0.1055
31409W        W74321   4.514  22.975  31.898 -0.2502  0.0209  0.1230
31410W        W74322   4.921  23.611   0.929  0.0851  0.0924  0.2198
31411W        W74323   4.023  23.453  31.298 -0.2953  0.0787  0.1652
31412W        W74324   2.546  25.359  31.655 -0.0170  0.2006  0.0587
31413W        W74325   7.225  22.124  30.471 -0.2213  0.0827  0.0796
31414W        W74326   5.030  23.907  31.449 -0.1393  0.1473  0.2215
31415W        W74327   5.651  21.801  30.724 -0.0828  0.2194 -0.0393
31416W        W74328   6.237  22.618  31.671 -0.0893  0.1907 -0.2077
31417W        W74329   4.715  24.101  31.841  0.2563 -0.2824 -0.1343
31418W        W74330   3.290  25.312  30.579 -0.1354  0.0471 -0.1425
31419W        W74331   5.436  21.676   0.265 -0.3175 -0.1762 -0.1630
31420W        W74332   5.723  24.806  30.740 -0.3531  0.0107  0.3734
31421W        W74333   5.351  24.687  31.408  0.1372 -0.1476 -0.1682
31422W        W74334   6.052  22.596  31.223 -0.0384  0.0084  0.1013
31423W        W74335   5.565  24.387  31.870  0.0831  0.1829  0.1899
31424W        W74336   7.837  22.544   1.268  0.1987  0.0661  0.1932
31425W        W74337   5.072  22.635  31.263  0.0525  0.1528  0.1719
31426W        W74338   4.170  24.343  31.198 -0.1838 -0.1363 -0.0267
31427W        W74339   5.112  25.487  31.770 -0.0866 -0.0814  0.0266
31428W        W74340   7.205  24.079  31.444  0.0301 -0.1417  0.0035
31429W        W74341   6.240  24.268   0.733  0.0049 -0.3919 -0.0645
31430W        W74342   5.128  25.251  31.297  0.0778 -0.1419  0.0036
31431W        W74343   6.722  23.374  30.961  0.0283 -0.0702 -0.0018
31432W        W74344   4.732  23.697   1.424 -0.0417 -0.0536  0.0386
31433W        W74345   5.185  21.639  30.856 -0.0814 -0.1372  0.1181
31434W        W74346   6.029  24.052   0.184 -0.1394  0.0657  0.0444
31435W        W74347   3.841  22.705   0.240 -0.0152 -0.2214  0.2692
31436W        W74348   6.927  22.496  31.253  0.0014 -0.1094 -0.1178
31437W        W74349   6.340  22.311   0.091  0.0899  0.1011  0.1950
31438W        W74350   4.920  24.372   0.502  0.1819 -0.1199 -0.1179
31439W        W74351   6.181  24.755  31.181 -0.1849  0.0226 -0.1562
31440W        W74352   3.856  24.128  30.811  0.1684 -0.0550 -0.0677
31441W        W74353   6.752  24.469   0.377  0.0354 -0.1685  0.2251
31442W        W74354   7.812  20.848  31.893 -0.1975 -0.1208 -0.0066
31443W        W74355   5.443  22.198   0.471  0.0709 -0.0837  0.2642
31444W        W74356   5.002  24.351  31.242  0.2224  0.2843  0.2147
31445W        W74357   5.492  22.920  30.597 -0.0280 -0.1541  0.4643
31446W        W74358   6.284  23.013  30.155  0.0527  0.2135 -0.0246
31447W        W74359   7.474  24.225  30.244  0.3457  0.1637  0.0598
31448W        W74360   6.539  25.916   0.949  0.1944  0.2253  0.0587
31449W        W74361   5.845  24.691  31.573  0.3226 -0.0388  0.1185
31450W        W74362   4.212  22.832  30.139  0.1716  0.0201  0.0469
31451W        W74363   5.379  24.582   0.357 -0.1257  0.1183 -0.1111
31452W        W74364   6.660  24.959   0.134  0.0513  0.0684 -0.0653
31453W        W74365   3.345  23.993  31.583  0.0825 -0.0569  0.0473
31454W        W74366   4.590  22.408  30.852 -0.0820  0.3388 -0.0308
31455W        W74367   5.812  25.095  31.227  0.0186 -0.1832 -0.2352
31456W        W74368   6.987  23.702  31.727 -0.2879 -0.1579  0.2442
31457W        W74369   5.778  23.412  31.843 -0.2468 -0.3306  0.1689
31458W        W74370   4.817  28.653  18.769  0.1624  0.2862  0.3501
31459W        W74371   4.812  27.868  17.546 -0.1290  0.3237  0.0285
31460W        W74372   7.123  26.405  16.786  0.1516  0.4958  0.3899
31461W        W74373   7.082  27.349  18.952 -0.2088 -0.3123  0.1056
31462W        W74374   3.907  25.140  16.803  0.1330  0.1332  0.3470
31463W        W74375   8.175  29.098  17.617  0.2155  0.2954 -0.1987
31464W        W74376   3.800  24.900  19.935 -0.3014 -0.0673 -0.1032
31465W        W74377   5.548  29.072  18.519 -0.1718  0.0139  0.1443
31466W        W74378   6.764  28.751  18.893  0.0225 -0.1808 -0.1407
31467W        W74379   6.217  26.939  16.774 -0.0271 -0.3002  0.1320
31468W        W74380   5.370  27.796  19.484  0.2538 -0.0769  0.0817
31469W        W74381   5.309  28.685  19.299  0.1111  0.1566  0.1136
31470W        W74382   5.174  24.397  17.155 -0.4642  0.1222  0.1598
31471W        W74383   3.447  26.328  16.786 -0.0170  0.1463 -0.1182
31472W        W74384   7.717  26.074  19.020  0.2037  0.0903 -0.0063
31473W        W74385   2.797  26.731  15.909 -0.1467  0.1199  0.2100
31474W        W74386   5.572  27.262  19.024  0.3219  0.3464  0.1079
31475W        W74387   5.854  27.185  17.985  0.1481  0.1289  0.0577
31476W        W74388   5.150  29.007  16.651  0.1352  0.1218  0.0035
31477W        W74389   5.611  26.157  18.649  0.3924 -0.1466  0.2091
31478W        W74390   6.381  26.076  20.626 -0.0648 -0.3820 -0.0429
31479W        W74391   5.714  27.926  17.527  0.2029  0.0999  0.0906
31480W        W74392   4.721  26.462  16.321 -0.0563 -0.1667  0.3023
31481W        W74393   3.566  27.152  18.450 -0.1418 -0.1934  0.0949
31482W        W74394   4.652  27.685  19.032 -0.1040 -0.3329 -0.3371
31483W        W74395   6.834  27.416  18.202 -0.0478 -0.1512 -0.1761
31484W        W74396   6.949  27.526  19.440 -0.1245 -0.0604  0.1681
31485W        W74397   4.825  29.558  17.715  0.4331 -0.1878 -0.0062
31486W        W74398   7.520  28.505  17.113 -0.0054  0.2090  0.0945
31487W        W74399   4.416  25.655  19.687  0.0514  0.0153 -0.1275
31488W        W74400   4.188  26.770  16.589  0.0801  0.2144 -0.0656
31489W        W74401   4.346  29.162  17.925 -0.2008 -0.0870  0.0713
31490W        W74402   5.171  29.181  16.150  0.1655  0.3181 -0.1129
31491W        W74403   7.862  28.296  17.939  0.1272 -0.0062  0.2138
31492W        W74404   6.428  28.064  20.777 -0.2012 -0.0941 -0.3675
31493W        W74405   3.880  28.891  19.248  0.5405 -0.0918 -0.1818
31494W        W74406   5.713  28.444  17.088  0.5125  0.0775 -0.2869
31495W        W74407   5.772  28.588  19.226 -0.0673 -0.1283 -0.1057
31496W        W74408   3.884  29.233  18.868 -0.2912 -0.2885  0.0460
31497W        W74409   6.027  28.281  17.468  0.1249  0.1399 -0.2980
31498W        W74410   5.483  26.683  17.160  0.1712 -0.0587  0.0396
31499W        W74411   4.957  29.308  16.932  0.0775  0.1974  0.0284
31500W        W74412   5.123  28.201  18.611 -0.1496 -0.0602  0.2120
31501W        W74413   2.869  27.167  19.714  0.2678 -0.1663  0.2544
31502W        W74414   4.214  27.226  17.897 -0.0850  0.3105  0.1439
31503W        W74415   7.348  26.015  19.535 -0.3096  0.1700 -0.0539
31504W        W74416   4.490  27.269  16.652  0.1013  0.1692  0.1429
31505W        W74417   5.539  28.000  17.068 -0.0929 -0.2737  0.2096
31506W        W74418   5.393  26.234  17.057 -0.1164  0.2194 -0.0998
31507W        W74419   6.435  26.362  17.624 -0.2102 -0.3665 -0.0753
31508W        W74420   5.189  24.770  17.657 -0.0743  0.1309  0.0441
31509W        W74421   5.334  30.099  18.491  0.2272 -0.0842  0.1098
31510W        W74422   4.478  26.969  19.955 -0.2204 -0.0356  0.1555
31511W        W74423   6.890  28.847  17.960  0.1463  0.0829  0.0661
31512W        W74424   6.093  25.502  19.073  0.2332 -0.1432  0.0307
31513W        W74425   4.281  24.765  20.072 -0.1973 -0.2512  0.2428
31514W        W74426   3.470  28.922  18.965 -0.0411  0.0551 -0.0867
31515W        W74427   4.538  27.152  17.125 -0.0145  0.2220  0.2158
31516W        W74428   7.204  29.180  16.652 -0.0286  0.0251 -0.2792
31517W        W74429   7.129  28.648  16.779 -0.1567  0.0283  0.3266
31518W        W74430   5.988  29.078  16.800 -0.0950 -0.2257 -0.0836
31519W        W74431   4.480  26.268  16.670 -0.1901  0.1912 -0.1798
31520W        W74432   4.481  27.289  19.562 -0.3213 -0.1584 -0.0226
31521W        W74433   3.300  28.061  19.615 -0.1249  0.1016  0.0578
31522W        W74434   4.720  25.263  16.327  0.1249 -0.0150 -0.2299
31523W        W74435   7.460  26.988  19.117  0.1448  0.0325 -0.1405
31524W        W74436   3.461  28.914  20.283  0.1290  0.2640  0.2795
31525W        W74437   5.843  27.636  17.183 -0.0421  0.0610  0.1763
31526W        W74438   4.888  28.235  17.882  0.3249 -0.2103  0.1758
31527W        W74439   6.855  28.609  18.410  0.0586  0.1588 -0.1518
31528W        W74440   5.981  27.279  16.502  0.2531 -0.0290 -0.0535
31529W        W74441   6.583  26.474  18.405 -0.1456  0.0873 -0.2761
31530W        W74442   5.527  26.222  19.125  0.0547  0.1629  0.4354
31531W        W74443   5.817  28.484  15.900 -0.2673  0.1266  0.2364
31532W        W74444   4.940  27.456  16.543 -0.0336 -0.2580  0.0264
31533W        W74445   7.009  28.054  19.527  0.1608  0.2098  0.1439
31534W        W74446   6.203  26.203  16.741 -0.2047  0.0285  0.1020
31535W        W74447   3.227  28.078  18.632 -0.0156  0.0641 -0.3617
31536W        W74448   5.296  26.863  19.846  0.1727  0.2770  0.3013
31537W        W74449   4.497  27.936  20.426  0.0052  0.0157  0.2645
31538W        W74450   4.822  26.375  16.985  0.1701 -0.0262  0.0791
31539W        W74451   4.394  26.189  17.174 -0.1190  0.3591 -0.1074
31540W        W74452   3.829  26.771  17.011 -0.2398  0.1456  0.0693
31541W        W74453   2.856  25.570  16.883  0.1220  0.2058  0.0603
31542W        W74454   5.827  28.503  18.739  0.1064  0.0696  0.0341
31543W        W74455   7.210  25.427  16.428  0.0158 -0.4300  0.2323
31544W        W74456   3.340  26.369  17.683  0.0128  0.0879 -0.3211
31545W        W74457   7.629  25.725  17.284  0.1381  0.0742 -0.0240
31546W        W74458   4.812  27.292  18.483 -0.0286 -0.2736 -0.1186
31547W        W74459   6.843  29.045  17.476  0.1559 -0.0772  0.1916
31548W        W74460   5.891  26.728  17.514 -0.1492 -0.1471 -0.2945
31549W        W74461   5.258  27.959  16.667  0.1011 -0.2082  0.0375
31550W        W74462   5.208  27.626  19.963  0.1742  0.1202  0.0467
31551W        W74463   4.731  25.089  18.283 -0.1850 -0.1861  0.1666
31552W        W74464   5.953  26.572  18.996  0.1473  0.0395 -0.1608
31553W        W74465   3.034  25.084  16.830 -0.1879 -0.1845 -0.2314
31554W        W74466   8.006  27.636  17.806 -0.1517 -0.0577 -0.1361
31555W        W74467   3.355  26.177  16.336 -0.1074  0.1594 -0.0458
31556W        W74468   7.096  25.566  17.295 -0.0557 -0.2669  0.2475
31557W        W74469   6.112  27.262  18.916 -0.1932 -0.0336 -0.0843
31558W        W74470   3.646  26.400  15.966 -0.0185  0.1811  0.0251
31559W        W74471   5.936  25.256  21.465  0.2769 -0.0905 -0.1791
31560W        W74472   5.654  29.023  15.972 -0.4778  0.2825 -0.1076
31561W        W74473   5.989  29.574  19.572 -0.2562 -0.0887  0.2289
31562W        W74474   7.487  28.618  17.714 -0.1317  0.1898  0.4956
31563W        W74475   5.759  27.822  19.042 -0.0654  0.0964 -0.2339
31564W        W74476   3.356  25.468  16.782  0.0823 -0.2458  0.4144
31565W        W74477   2.913  29.445  17.344  0.2534 -0.0302  0.4129
31566W        W74478   4.838  28.873  19.293 -0.1741 -0.0642  0.1289
31567W        W74479   5.468  26.668  18.501  0.0423 -0.0339  0.3607
31568W        W74480   8.446  30.055  17.516 -0.2911  0.1151 -0.1150
31569W        W74481   4.921  26.812  17.210 -0.1705  0.1340 -0.2494
31570W        W74482   5.118  27.917  18.992  0.2822 -0.0060  0.1302
31571W        W74483   5.378  24.841  20.319  0.0707  0.0810  0.0986
31572W        W74484   8.146  27.110  19.856  0.0840  0.1873  0.2538
31573W        W74485   7.679  27.316  18.073  0.2206 -0.0309 -0.0081
31574W        W74486   3.284  26.658  16.365 -0.0011  0.0875  0.0864
31575W        W74487   6.962  29.842  17.667 -0.1494 -0.0723  0.1937
31576W        W74488   4.515  28.055  18.294 -0.0640  0.4520 -0.2269
31577W        W74489   3.354  29.590  17.621  0.2808 -0.2830  0.1230
31578W        W74490   3.898  28.955  18.159 -0.1080 -0.2304  0.2248
31579W        W74491   6.699  25.385  19.215  0.0031  0.0903 -0.4662
31580W        W74492   3.261  26.577  21.590  0.3049 -0.0666  0.1552
31581W        W74493   7.606  25.592  19.323 -0.1289 -0.1577 -0.1372
31582W        W74494   4.041  26.900  16.073 -0.2511 -0.0280 -0.0825
31583W        W74495   3.738  28.370  20.303  0.1179  0.1626 -0.1770
31584W        W74496   6.337  25.314  17.498 -0.0396  0.1455 -0.1899
31585W        W74497   7.717  25.513  16.529 -0.1736  0.2860  0.1491
31586W        W74498   7.161  27.908  19.009  0.0904 -0.2965  0.1260
31587W        W74499   6.330  27.748  17.266  0.0717  0.0104  0.0743
31588W        W74500   6.974  26.268  16.038 -0.2403  0.2492 -0.0415
31589W        W74501   5.313  25.665  16.817  0.0023 -0.3448  0.1505
31590W        W74502   4.084  27.639  20.246 -0.2759  0.4465  0.1516
31591W        W74503   6.344  27.694  18.774 -0.1191  0.2383 -0.2106
31592W        W74504   5.135  26.480  18.841  0.3974  0.1878  0.0622
31593W        W74505   5.208  26.595  16.690 -0.4781 -0.0512 -0.1829
31594W        W74506   6.303  30.166  16.752  0.1042 -0.3959  0.1868
31595W        W74507   6.093  28.075  18.534  0.2759 -0.3754  0.1703
31596W        W74508   7.574  27.657  17.388  0.4484  0.0422 -0.1608
31597W        W74509   7.145  28.139  20.039  0.0607  0.0008 -0.0452
31598W        W74510   6.017  24.722  19.346 -0.0863  0.1024 -0.2042
31599W        W74511   5.072  25.903  17.637 -0.0634  0.3076  0.1097
31600W        W74512   5.112  24.285  17.689  0.1267 -0.0375 -0.3052
31601W        W74513   3.710  28.794  16.003  0.1815  0.5127 -0.0019
31602W        W74514   8.756  25.876  18.728  0.0376  0.2990 -0.2153
31603W        W74515   5.937  26.519  18.488 -0.1068  0.1565 -0.1925
31604W        W74516   6.744  25.482  18.708 -0.1186  0.0042  0.0554
31605W        W74517   6.897  27.331  19.922 -0.1144 -0.0269  0.4827
31606W        W74518   7.324  27.592  18.446  0.1536  0.0424  0.1164
31607W        W74519   6.222  27.842  17.740 -0.0477 -0.0855 -0.0447
31608W        W74520   6.033  28.137  16.939 -0.1678 -0.3919  0.0480
31609W        W74521   5.219  24.865  19.772 -0.2106 -0.0195 -0.2688
31610W        W74522   4.642  26.764  19.144  0.0313  0.0492 -0.0541
31611W        W74523   3.098  29.968  18.872 -0.0388  0.0734 -0.1924
31612W        W74524   6.498  28.293  19.402  0.1012  0.4170  0.1496
31613W        W74525   5.616  26.733  17.993  0.3160  0.1065 -0.2984
31614W        W74526   4.801  26.612  19.791 -0.1063  0.0503 -0.0764
31615W        W74527   5.989  25.293  15.810  0.0063 -0.0327  0.1067
31616W        W74528   4.687  28.616  17.617 -0.0992  0.1136  0.4224
31617W        W74529   4.073  27.735  16.827  0.1221 -0.3379 -0.1258
31618W        W74530   4.598  26.455  17.993 -0.2986 -0.0866  0.0252
31619W        W74531   4.861  29.099  17.872  0.2540 -0.0228  0.0573
31620W        W74532   5.205  28.419  16.877  0.0288 -0.2538  0.4052
31621W        W74533   6.797  26.860  18.637 -0.0571 -0.1397  0.3728
31622W        W74534   5.272  27.690  17.386  0.1240 -0.1332 -0.1510
31623W        W74535   5.759  26.202  20.329  0.1788  0.0850 -0.0863
31624W        W74536   3.889  28.714  18.714 -0.3392  0.2179 -0.1573
31625W        W74537   5.087  26.071  16.582 -0.4325  0.0636  0.0890
31626W        W74538   4.169  27.529  17.269 -0.2016 -0.1918 -0.1918
31627W        W74539   6.669  25.862  18.031 -0.0922  0.4218  0.1087
31628W        W74540   6.618  28.161  17.457  0.3171  0.3174 -0.1389
31629W        W74541   5.334  25.837  18.255  0.0749  0.1702  0.3353
31630W        W74542   5.567  25.785  17.836  0.1285 -0.0137 -0.2648
31631W        W74543   3.495  28.387  19.016 -0.1602  0.0834  0.2631
31632W        W74544   6.115  26.996  19.358  0.2142  0.1145  0.0291
31633W        W74545   6.041  25.757  17.199 -0.2760  0.3062  0.2472
31634W        W74546   7.145  28.158  18.546  0.2037 -0.3269 -0.0295
31635W        W74547   4.568  26.765  18.645  0.0743  0.1824 -0.2600
31636W        W74548   3.229  27.338  16.541  0.0233 -0.1018 -0.0680
31637W        W74549   7.577  26.760  18.361  0.1660  0.1067  0.0127
31638W        W74550   4.786  26.317  17.474 -0.2041 -0.0430 -0.1037
31639W        W74551   4.814  27.702  19.510  0.3654  0.0279 -0.0426
31640W        W74552   6.157  28.526  19.783  0.1371  0.1086  0.2553
31641W        W74553   4.644  25.819  16.539 -0.2456 -0.0227  0.2508
31642W        W74554   4.419  28.478  17.071  0.1617  0.2340 -0.2857
31643W        W74555   5.459  25.867  19.880 -0.0024 -0.1866 -0.1214
31644W        W74556   7.317  28.643  18.683 -0.1680  0.1253 -0.0234
31645W        W74557   5.129  25.107  18.620  0.0821 -0.4441 -0.2368
31646W        W74558   3.295  26.165  18.340  0.1514  0.7216 -0.0249
31647W        W74559   5.323  26.328  17.554  0.2646 -0.0986 -0.1497
31648W        W74560   6.852  27.874  17.720 -0.0384 -0.2698 -0.1278
31649W        W74561   4.428  25.437  20.154  0.0465  0.2071  0.2322
31650W        W74562   3.097  28.676  18.779  0.0486 -0.0530  0.0053
31651W        W74563   6.165  26.644  18.035  0.0719 -0.0866  0.1951
31652W        W74564   5.694  28.195  16.592  0.1365 -0.1485 -0.1056
31653W        W74565   6.627  25.949  20.215  0.1619 -0.3222  0.0307
31654W        W74566   4.526  27.632  16.270 -0.2569 -0.0399 -0.1508
31655W        W74567   2.889  27.473  18.252  0.2238 -0.0012  0.0214
31656W        W74568   6.593  28.209  18.689  0.1261  0.1002 -0.0008
31657W        W74569   6.271  26.827  18.608 -0.0211  0.0335 -0.2909
31658W        W74570   4.091  27.958  18.962 -0.1702 -0.0167 -0.4363
31659W        W74571   3.523  27.719  17.839 -0.1372  0.1605  0.1226
31660W        W74572   3.837  28.509  17.946  0.1639 -0.0362 -0.0250
31661W        W74573   6.401  23.877  16.769  0.0946 -0.5557 -0.3146
31662W        W74574   6.748  27.635  16.790  0.1632 -0.1941  0.2957
31663W        W74575   5.912  25.331  18.099 -0.1058 -0.1630 -0.3419
31664W        W74576   7.469  26.605  18.841 -0.1667 -0.3408  0.1559
31665W        W74577   6.838  27.702  17.283  0.1441 -0.4270 -0.2425
31666W        W74578   4.947  24.684  21.304  0.1161  0.1526  0.0593
31667W        W74579   6.408  24.610  20.125 -0.1788 -0.1415 -0.0413
31668W        W74580   7.419  28.161  18.033 -0.0648 -0.2519  0.0365
31669W        W74581   3.579  26.163  17.221 -0.1757  0.1406 -0.0365
31670W        W74582   5.404  28.541  20.001  0.1615  0.0850  0.3122
31671W        W74583   3.632  27.631  20.808  0.1920 -0.2630  0.2661
31672W        W74584   6.384  25.418  18.086 -0.1276  0.1104  0.1795
31673W        W74585   4.645  25.345  16.858 -0.2250 -0.0868  0.2182
31674W        W74586   6.390  28.288  18.115 -0.1183  0.2473 -0.1158
31675W        W74587   7.681  28.369  18.392  0.0457 -0.1657 -0.1233
31676W        W74588   5.220  28.692  17.917 -0.0289  0.1380  0.1653
31677W        W74589   5.792  27.569  20.413  0.0130 -0.1098  0.2072
31678W        W74590   5.036  27.539  17.927 -0.0445 -0.3092 -0.0572
31679W        W74591   6.492  26.992  18.226 -0.1793  0.0669  0.0511
31680W        W74592   6.331  27.402  17.933  0.0883  0.3439  0.0640
31681W        W74593   5.403  27.561  18.277 -0.0988  0.2945 -0.0402
31682W        W74594   5.449  25.380  20.084 -0.0389 -0.1630 -0.0489
31683W        W74595   6.808  27.345  17.652  0.1286  0.3224 -0.3249
31684W        W74596   6.487  24.672  18.589  0.0989  0.3721  0.1669
31685W        W74597   6.181  26.630  19.667 -0.0530 -0.0179  0.0687
31686W        W74598   7.157  25.563  19.496 -0.0928  0.0030 -0.0247
31687W        W74599   5.967  27.145  19.812  0.1888  0.1077  0.0216
31688W        W74600   3.087  26.556  19.765 -0.1239  0.2415 -0.0765
31689W        W74601   7.096  30.202  20.317 -0.2970 -0.2157  0.0128
31690W        W74602   6.242  26.008  16.225 -0.1016 -0.2014  0.2844
31691W        W74603   7.595  27.647  18.958 -0.1921  0.1150  0.1566
31692W        W74604   7.622  26.999  17.026  0.0397 -0.1638 -0.2936
31693W        W74605   6.858  26.017  17.587 -0.1853  0.2286  0.0507
31694W        W74606   5.095  26.740  17.782  0.1495 -0.3529  0.2631
31695W        W74607   7.179  27.097  18.490 -0.0810 -0.2756 -0.2651
31696W        W74608   5.027  25.542  17.272  0.0350 -0.2210 -0.2016
31697W        W74609   6.150  25.811  20.135  0.0340 -0.1580  0.2766
31698W        W74610   5.557  28.786  16.763 -0.2781  0.1295 -0.1160
31699W        W74611   5.456  29.375  17.001  0.3075  0.1898 -0.1003
31700W        W74612   7.156  25.211  19.170  0.2140 -0.1519  0.1489
31701W        W74613   5.438  28.254  19.009 -0.0978  0.3876  0.1300
31702W        W74614   4.787  27.456  20.713  0.0294  0.1641 -0.0895
31703W        W74615   4.574  25.751  17.404  0.1110  0.0138 -0.1353
31704W        W74616   5.267  27.066  16.974  0.1371 -0.0368  0.1913
31705W        W74617   7.386  29.166  18.722  0.0988  0.0025  0.0309
31706W        W74618   7.386  27.348  19.419  0.3086  0.1670  0.0539
31707W        W74619   6.549  25.123  16.911  0.0618 -0.0527 -0.3295
31708W        W74620   6.963  26.990  19.286 -0.1792  0.0890  0.0302
31709W        W74621   3.634  28.603  17.443  0.0331  0.0001 -0.1273
31710W        W74622   6.769  25.117  17.404 -0.0821  0.2429  0.0169
31711W        W74623   3.421  30.332  18.651 -0.1163  0.0254  0.0353
31712W        W74624   3.358  28.076  20.119 -0.1030 -0.1141  0.2203
31713W        W74625   4.719  29.386  18.280 -0.2565  0.0641  0.0521
31714W        W74626   7.050  23.382  18.861  0.2343 -0.0814 -0.0885
31715W        W74627   7.684  26.497  19.324 -0.0640 -0.1427  0.0419
31716W        W74628   5.274  27.118  18.118  0.4288  0.1582  0.2946
31717W        W74629   8.524  28.107  19.268  0.1821  0.1061  0.2194
31718W        W74630   5.896  28.163  17.982  0.2676  0.0841 -0.0181
31719W        W74631   4.380  28.125  17.857 -0.1143  0.1805  0.1876
31720W        W74632   5.850  28.228  20.035  0.0654  0.0907  0.0328
31721W        W74633   7.305  27.557  17.857 -0.0032 -0.2767  0.0235
31722W        W74634   5.156  28.115  19.806 -0.3110  0.1682 -0.0133
31723W        W74635   4.451  25.786  18.569 -0.0159  0.1154 -0.0526
31724W        W74636   6.244  26.357  20.199 -0.0588 -0.1435 -0.0223
31725W        W74637   6.298  28.718  19.100 -0.2150 -0.4338 -0.1159
31726W        W74638   5.131  26.301  18.180 -0.0085  0.0635  0.0682
31727W        W74639   6.528  28.052  16.922  0.1108 -0.5979 -0.1933
31728W        W74640   4.427  29.335  20.472 -0.3012 -0.1422 -0.2208
31729W        W74641   4.211  28.362  20.307  0.2180 -0.0849 -0.0887
31730W        W74642   3.768  28.111  17.639 -0.1725 -0.1646 -0.1920
31731W        W74643   5.800  27.195  16.989 -0.0159  0.2798  0.0976
31732W        W74644   6.011  29.200  18.318 -0.2084  0.0757  0.0969
31733W        W74645   5.003  29.725  18.991 -0.0570 -0.0639  0.1311
31734W        W74646   6.004  28.644  18.241  0.1731  0.1111 -0.1491
31735W        W74647   3.826  26.700  18.643 -0.3949  0.0250  0.2067
31736W        W74648   3.902  28.536  16.957 -0.2370  0.2078  0.2937
31737W        W74649   6.386  28.870  16.506 -0.0035 -0.0958 -0.2000
31738W        W74650   5.062  28.935  18.331 -0.2164 -0.2240  0.0224
31739W        W74651   5.949  28.071  19.477  0.1883  0.1163 -0.0191
31740W        W74652   6.953  25.090  16.176 -0.1990  0.0941 -0.4434
31741W        W74653   5.763  26.676  20.015  0.0659 -0.0699 -0.0079
31742W        W74654   6.662  26.285  16.479 -0.0501  0.3017 -0.1393
31743W        W74655   5.690  28.785  19.681  0.1632  0.3093  0.2806
31744W        W74656   5.734  27.529  18.638  0.0386 -0.2970 -0.1528
31745W        W74657   5.257  25.237  17.608 -0.1050  0.0449  0.1669
31746W        W74658   6.145  26.230  19.344  0.1623 -0.0003  0.0803
31747W        W74659   8.176  24.558  20.402  0.1608  0.0372 -0.3297
31748W        W74660   2.751  29.020  18.836 -0.0484  0.0291 -0.0122
31749W        W74661   5.666  29.718  16.558  0.2688  0.1335  0.1642
31750W        W74662   4.370  25.755  16.913  0.0537 -0.1338  0.0487
31751W        W74663   5.438  27.184  17.411 -0.0595 -0.3035 -0.0394
31752W        W74664   7.116  25.000  20.577 -0.0130  0.1843  0.4945
31753W        W74665   6.176  27.678  16.795 -0.1763  0.4327  0.1303
31754W        W74666   5.973  26.281  17.681 -0.2878  0.1722  0.0248
31755W        W74667   6.178  29.625  16.594  0.0441  0.0250  0.2686
31756W        W74668   4.870  28.295  19.196  0.0501 -0.1537 -0.1955
31757W        W74669   4.628  29.282  19.597  0.0241 -0.1326 -0.1829
31758W        W74670   1.657  26.380  15.436  0.0935  0.1915 -0.1037
31759W        W74671   6.896  26.437  17.779  0.0395  0.2257  0.2149
31760W        W74672   6.415  27.841  19.606 -0.1517 -0.2074 -0.1912
31761W        W74673   4.952  27.216  19.748 -0.2004  0.2279 -0.1574
31762W        W74674   3.989  26.299  16.894  0.1206  0.0461 -0.2197
31763W        W74675   6.570  26.453  19.329  0.1680 -0.3429 -0.0809
31764W        W74676   6.869  28.321  17.999 -0.1318  0.1131  0.0068
31765W        W74677   3.354  26.612  18.554  0.1733 -0.1364  0.3608
31766W        W74678   5.466  25.801  17.374 -0.2924  0.0092  0.2734
31767W        W74679   8.624  28.130  18.648  0.1073 -0.2300 -0.0622
31768W        W74680   5.345  27.139  15.925 -0.3060 -0.0607 -0.0831
31769W        W74681   6.308  29.235  20.155 -0.2911 -0.1731  0.1297
31770W        W74682   3.770  26.440  16.438  0.0978  0.3700 -0.1740
31771W        W74683   6.496  25.576  17.107 -0.2766  0.0341  0.0738
31772W        W74684   5.174  28.186  17.486 -0.1383  0.2052  0.0770
31773W        W74685   5.694  25.025  19.801 -0.1626  0.0586 -0.2472
31774W        W74686   6.974  27.884  18.181  0.0417 -0.0409 -0.1478
31775W        W74687   4.010  26.446  17.351  0.1089  0.2150  0.0432
31776W        W74688   6.332  29.227  17.837  0.3867  0.1181  0.1350
31777W        W74689   6.625  27.317  18.670  0.2022 -0.0174  0.1840
31778W        W74690   4.206  28.947  16.117 -0.2390  0.0438 -0.2005
31779W        W74691   5.566  27.527  17.772  0.0540  0.2122 -0.0979
31780W        W74692   6.562  29.512  17.413  0.0001  0.0835 -0.0681
31781W        W74693   3.461  25.455  19.255 -0.2618 -0.0127 -0.2946
31782W        W74694   5.914  29.568  19.051 -0.1768  0.2088 -0.1443
31783W        W74695   7.349  29.628  18.326 -0.2788 -0.2808 -0.3028
31784W        W74696   5.895  26.277  17.193  0.1450  0.0067  0.0134
31785W        W74697   4.355  27.138  18.353  0.1181 -0.0386  0.0364
31786W        W74698   3.536  28.917  17.828 -0.0968  0.0278  0.1190
31787W        W74699   7.587  28.039  18.728  0.1905 -0.2375 -0.3116
31788W        W74700   5.937  25.289  20.180  0.1570 -0.0698 -0.4197
31789W        W74701   5.575  29.204  16.513 -0.2736  0.0902 -0.2837
31790W        W74702   7.336  25.753  20.808 -0.2666 -0.1269 -0.0418
31791W        W74703   3.687  28.285  18.500  0.1030  0.1382  0.0205
31792W        W74704   3.916  29.720  18.770 -0.2056 -0.1933  0.1170
31793W        W74705   4.419  27.998  17.222  0.0341  0.2563 -0.0980
31794W        W74706   6.485  28.556  17.695  0.2376  0.1270 -0.0082
31795W        W74707   5.516  27.183  16.484 -0.0431 -0.0549 -0.2877
31796W        W74708   5.513  28.134  16.133  0.0886  0.3257  0.1904
31797W        W74709   7.290  29.638  17.234  0.0141  0.2280  0.1312
31798W        W74710   5.268  27.504  18.705 -0.1924  0.1106  0.1086
31799W        W74711   8.506  27.177  17.997 -0.2535  0.0311 -0.2229
31800W        W74712   4.319  26.184  17.681 -0.1272  0.0255  0.2232
31801W        W74713   7.397  26.125  17.607  0.0836  0.3044  0.2690
31802W        W74714   7.210  25.090  17.123 -0.1207 -0.2257  0.1957
31803W        W74715   4.966  26.793  18.283  0.0719 -0.2508 -0.1603
31804W        W74716   3.673  27.599  16.609 -0.3617  0.0376  0.0233
31805W        W74717   4.892  27.352  16.077 -0.3037  0.3371  0.0769
31806W        W74718   4.042  27.203  16.896  0.0061  0.2118  0.2357
31807W        W74719   5.499  26.797  18.982  0.0249  0.2176 -0.0880
31808W        W74720   5.742  24.543  17.642  0.1711  0.1810  0.2670
31809W        W74721   4.974  27.792  18.403  0.0384 -0.2059  0.0881
31810W        W74722   6.379  27.024  17.628  0.0396  0.3007 -0.1904
31811W        W74723   7.361  27.816  16.880  0.1009 -0.3022 -0.0076
31812W        W74724   4.230  26.090  18.213  0.1189  0.0905 -0.4209
31813W        W74725   4.394  26.633  17.026 -0.0307 -0.4334  0.5223
31814W        W74726   7.288  28.122  17.524  0.0325 -0.4145 -0.1480
31815W        W74727   8.031  29.887  17.768  0.1781  0.1029  0.0742
31816W        W74728   5.504  24.938  17.247  0.1157 -0.0210  0.0692
31817W        W74729   7.697  26.773  20.062 -0.0928 -0.0215 -0.0375
31818W        W74730   2.637  27.351  16.500 -0.1218  0.1377  0.0452
31819W        W74731   6.441  27.297  19.766  0.1444  0.0643  0.0043
31820W        W74732   4.682  26.233  18.930 -0.1394  0.0631 -0.0777
31821W        W74733   4.919  26.079  16.060 -0.0406  0.0999  0.0927
31822W        W74734   5.459  27.311  19.541  0.3491 -0.2152  0.5304
31823W        W74735   6.277  28.627  18.633 -0.1202  0.2731 -0.0123
31824W        W74736   6.414  28.552  17.170  0.1994 -0.2865 -0.1496
31825W        W74737   5.350  28.676  18.803  0.0974 -0.0290 -0.0442
31826W        W74738   5.665  28.496  20.639  0.0131  0.2291 -0.1714
31827W        W74739   3.227  25.271  18.796 -0.0062 -0.0468 -0.1892
31828W        W74740   6.994  28.247  17.064  0.2143 -0.4464  0.2584
31829W        W74741   4.442  28.050  19.364  0.2555 -0.1275 -0.1118
31830W        W74742   7.798  28.162  16.855  0.1238  0.0139 -0.2584
31831W        W74743   6.641  27.908  19.116 -0.1184 -0.0510  0.0831
31832W        W74744   6.178  28.188  19.015  0.0014  0.0402  0.1495
31833W        W74745   5.131  26.025  18.696  0.0356 -0.0329  0.1440
31834W        W74746   4.985  27.823  20.392 -0.2123  0.2048  0.0370
31835W        W74747   7.781  28.885  18.499  0.2705  0.0283 -0.2725
31836W        W74748   4.603  27.445  17.551 -0.3409  0.4109  0.1626
31837W        W74749   5.751  25.941  16.841  0.1886 -0.0520 -0.2118
31838W        W74750   5.884  28.719  16.386 -0.1558 -0.0003 -0.1417
31839W        W74751   4.701  27.080  17.978  0.0919 -0.1350 -0.0494
31840W        W74752   6.431  26.120  17.230 -0.1565 -0.1845 -0.0928
31841W        W74753   5.692  27.751  19.920  0.0952 -0.0245  0.0842
31842W        W74754   4.539  28.181  18.771 -0.0438 -0.0279  0.0764
31843W        W74755   5.100  27.332  20.361  0.1618  0.1109 -0.0511
31844W        W74756   4.872  25.505  17.855  0.0032 -0.1296  0.1701
31845W        W74757   6.963  28.519  17.502 -0.0020 -0.3355 -0.2765
31846W        W74758   5.967  29.200  19.863 -0.1731 -0.2333 -0.2135
31847W        W74759   7.255  29.132  20.195 -0.1635 -0.0127  0.1991
31848W        W74760   3.826  28.383  19.536 -0.2266  0.0361 -0.1617
31849W        W74761   7.798  28.135  17.383  0.2450  0.4171  0.2813
31850W        W74762   3.793  25.991  18.575 -0.0375 -0.1260 -0.1071
31851W        W74763   4.582  27.733  16.793  0.0574 -0.0476 -0.4146
31852W        W74764   4.849  25.881  16.973 -0.2258  0.2878 -0.1603
31853W        W74765   5.046  26.322  19.299 -0.2452 -0.3160  0.3160
31854W        W74766   4.997  27.170  17.560 -0.2190 -0.1260 -0.2319
31855W        W74767   6.080  25.031  16.298  0.1259  0.1694 -0.0970
31856W        W74768   5.539  28.449  18.340 -0.2343  0.0882 -0.3023
31857W        W74769   6.517  27.396  19.200  0.1910 -0.0443  0.3690
31858W        W74770   4.351  28.521  23.499 -0.0994 -0.0104  0.0717
31859W        W74771   4.851  26.907  20.286  0.3499 -0.5139 -0.0787
31860W        W74772   7.868  27.442  19.454 -0.2766  0.0694  0.0236
31861W        W74773   6.320  28.985  19.604  0.2973 -0.3263  0.2015
31862W        W74774   4.214  25.313  21.707  0.3384 -0.0460 -0.1228
31863W        W74775   7.967  29.113  19.462  0.1964  0.1572  0.1486
31864W        W74776   5.038  24.991  21.786  0.1770  0.0886 -0.0100
31865W        W74777   5.881  28.092  22.167  0.3696  0.2564 -0.2822
31866W        W74778   5.940  28.912  22.503 -0.3000  0.0064 -0.3596
31867W        W74779   5.071  28.909  19.754 -0.3227  0.1562  0.1760
31868W        W74780   4.877  26.573  23.667 -0.3034 -0.1200  0.2934
31869W        W74781   5.061  27.152  22.840  0.3481 -0.0172  0.2522
31870W        W74782   3.213  26.993  20.060 -0.0032  0.2399 -0.0935
31871W        W74783   2.573  25.702  20.703 -0.0590  0.1170  0.2393
31872W        W74784   6.650  27.082  22.775  0.1789  0.2957  0.1932
31873W        W74785   3.835  25.662  18.937 -0.0215  0.0134 -0.0519
31874W        W74786   2.901  25.529  22.504  0.0535 -0.2195  0.0242
31875W        W74787   5.566  26.543  21.302  0.1721  0.3481  0.1145
31876W        W74788   5.238  29.037  22.419 -0.0329  0.1324 -0.1506
31877W        W74789   5.451  26.039  23.449  0.2923  0.2216  0.1550
31878W        W74790   6.430  25.050  24.115  0.0376  0.0203 -0.3738
31879W        W74791   4.261  28.232  21.513 -0.1912 -0.0275 -0.1716
31880W        W74792   3.431  27.059  21.450 -0.1475 -0.1515  0.0542
31881W        W74793   4.228  27.154  21.541 -0.1332  0.0030  0.4305
31882W        W74794   4.265  27.385  22.716  0.1316 -0.3345 -0.1896
31883W        W74795   7.166  25.437  23.571 -0.0875  0.1669 -0.1395
31884W        W74796   6.243  28.347  22.018 -0.1326  0.0896  0.0970
31885W        W74797   4.716  28.047  21.490  0.2303  0.0137 -0.2165
31886W        W74798   5.500  27.919  20.997 -0.1020 -0.0799 -0.1283
31887W        W74799   5.834  26.979  24.407  0.0493  0.0064 -0.0852
31888W        W74800   4.425  27.148  20.990 -0.1625  0.0706 -0.4100
31889W        W74801   4.031  29.305  20.852 -0.0831 -0.2052  0.3008
31890W        W74802   3.891  28.831  21.975  0.0312 -0.0569 -0.0601
31891W        W74803   6.835  27.643  21.428 -0.2328 -0.3037  0.0561
31892W        W74804   6.173  27.495  23.068 -0.2816 -0.1455  0.2415
31893W        W74805   4.446  26.897  23.581 -0.0342  0.0131  0.1215
31894W        W74806   4.577  28.428  20.630 -0.2816 -0.0710  0.2541
31895W        W74807   6.070  29.147  24.176  0.3285 -0.2981  0.1879
31896W        W74808   3.199  26.976  23.176 -0.4104 -0.1694 -0.1919
31897W        W74809   4.106  27.629  20.887 -0.1248  0.1646 -0.1979
31898W        W74810   5.438  27.543  21.425  0.0976  0.0318 -0.1644
31899W        W74811   4.745  28.039  20.017  0.2176  0.1085  0.1687
31900W        W74812   5.029  27.783  21.145 -0.1946  0.1930 -0.0565
31901W        W74813   4.853  27.211  23.873 -0.0211  0.0233 -0.2272
31902W        W74814   4.751  27.542  22.711  0.3372  0.1322 -0.1304
31903W        W74815   7.494  25.425  24.002 -0.1153  0.1730  0.0625
31904W        W74816   3.597  27.704  20.320  0.2419  0.0709  0.2818
31905W        W74817   6.018  25.659  20.779  0.0929  0.2058  0.0013
31906W        W74818   4.829  25.749  18.964  0.1213 -0.0124 -0.1783
31907W        W74819   6.442  27.828  21.200  0.1193  0.1066  0.0274
31908W        W74820   5.463  26.997  20.461 -0.0073  0.3349  0.1365
31909W        W74821   5.211  28.506  23.671  0.1631 -0.0479  0.1501
31910W        W74822   4.398  25.790  22.796 -0.1269  0.0133  0.0982
31911W        W74823   7.092  27.144  23.113 -0.0920 -0.0654  0.0094
31912W        W74824   3.649  26.463  21.201  0.0438 -0.0935 -0.1174
31913W        W74825   5.928  26.087  22.926  0.0401 -0.3442  0.3686
31914W        W74826   4.368  28.060  23.361  0.2424 -0.1244 -0.1759
31915W        W74827   4.307  26.146  21.505  0.5149 -0.1193  0.1531
31916W        W74828   5.647  29.032  21.084 -0.1075 -0.0347  0.1144
31917W        W74829   5.692  28.872  21.524  0.0116 -0.1337 -0.0822
31918W        W74830   6.214  27.920  20.253  0.2814  0.2709 -0.0611
31919W        W74831   4.842  29.198  20.088  0.1556 -0.0670  0.1537
31920W        W74832   3.628  26.368  23.101  0.1608  0.1301 -0.2402
31921W        W74833   3.163  25.681  23.007 -0.0574  0.2268 -0.1213
31922W        W74834   3.596  27.213  20.293 -0.0693 -0.1401 -0.1955
31923W        W74835   7.623  29.355  25.537 -0.0050  0.2803 -0.0930
31924W        W74836   5.197  28.524  22.604 -0.0985  0.1758  0.0043
31925W        W74837   7.281  26.101  22.147  0.0366 -0.0239 -0.1540
31926W        W74838   5.507  29.004  21.989  0.0876 -0.0098  0.2043
31927W        W74839   6.591  28.239  23.405 -0.1311  0.0229 -0.0703
31928W        W74840   6.649  28.296  19.923 -0.0287  0.4743 -0.3444
31929W        W74841   5.558  25.203  20.629 -0.0713  0.2023  0.1565
31930W        W74842   4.207  26.054  22.341  0.0688  0.0993 -0.1969
31931W        W74843   4.267  26.357  19.149 -0.2647 -0.2870 -0.0250
31932W        W74844   6.538  26.876  19.041 -0.1401  0.1158 -0.3008
31933W        W74845   6.119  27.253  22.594  0.4310 -0.1315  0.0192
31934W        W74846   6.159  26.625  20.653 -0.1483  0.1265  0.0658
31935W        W74847   4.106  28.413  22.691 -0.1716 -0.2291 -0.1018
31936W        W74848   5.409  27.241  23.467  0.0121  0.1824 -0.0485
31937W        W74849   3.848  27.641  22.854  0.1610  0.2987 -0.0741
31938W        W74850   4.894  28.866  20.472  0.0717  0.1892  0.0941
31939W        W74851   3.283  26.527  22.551  0.0789 -0.2297  0.1369
31940W        W74852   3.576  28.265  20.776 -0.1377  0.0533  0.0585
31941W        W74853   3.662  25.335  22.187  0.2746  0.2721  0.1660
31942W        W74854   4.931  27.079  23.383  0.2513  0.0305  0.1356
31943W        W74855   6.649  26.477  20.453 -0.0371 -0.1401  0.4845
31944W        W74856   2.895  26.138  22.325 -0.2103  0.0590 -0.0448
31945W        W74857   6.307  25.305  21.164 -0.0604 -0.2697  0.2751
31946W        W74858   3.251  28.321  22.596  0.1663  0.0557  0.0906
31947W        W74859   6.793  29.048  19.420 -0.1030 -0.2978 -0.1271
31948W        W74860   6.699  26.812  19.692 -0.0931 -0.0042 -0.0835
31949W        W74861   7.116  27.808  20.368 -0.0392 -0.2075  0.0841
31950W        W74862   4.652  26.605  23.222  0.2049 -0.3643  0.0555
31951W        W74863   4.072  26.220  21.073 -0.0936 -0.0409  0.0118
31952W        W74864   4.582  26.410  24.049 -0.2263 -0.2569  0.0583
31953W        W74865   4.130  25.805  21.881  0.2546  0.0913 -0.2007
31954W        W74866   5.380  25.859  22.412  0.2255  0.0712 -0.0446
31955W        W74867   3.692  25.198  18.886 -0.3030 -0.0669  0.1712
31956W        W74868   5.628  27.194  22.520  0.2640  0.1736  0.3369
31957W        W74869   4.417  27.564  21.813  0.0240  0.1322  0.4371
31958W        W74870   2.754  26.577  21.231  0.1989 -0.0142  0.0263
31959W        W74871   7.242  23.451  22.245 -0.0221  0.0129 -0.0023
31960W        W74872   4.786  29.173  22.277 -0.2472 -0.0024 -0.3032
31961W        W74873   5.667  29.298  22.724 -0.0995  0.2243 -0.0672
31962W        W74874   6.108  28.350  21.482 -0.3703  0.1823  0.1221
31963W        W74875   4.595  26.242  22.916 -0.0212 -0.0734  0.1456
31964W        W74876   3.956  27.170  20.775  0.1623  0.0702  0.0738
31965W        W74877   4.733  28.578  21.612  0.1471 -0.1675 -0.1445
31966W        W74878   6.568  27.147  21.393  0.0418  0.5041 -0.0198
31967W        W74879   4.298  26.669  20.681 -0.2478 -0.0338  0.1742
31968W        W74880   7.638  27.960  20.861  0.0512  0.0279 -0.3164
31969W        W74881   6.269  27.083  20.867  0.0634 -0.0385 -0.2306
31970W        W74882   4.425  28.210  22.402  0.0670 -0.2420 -0.2773
31971W        W74883   7.455  26.358  22.631 -0.0573 -0.1832 -0.0398
31972W        W74884   7.984  27.320  23.555 -0.0388 -0.2326  0.0499
31973W        W74885   5.855  26.784  22.596 -0.0369 -0.0693  0.0918
31974W        W74886   4.060  26.777  21.151 -0.0815 -0.0565  0.3615
31975W        W74887   6.577  28.601  21.624 -0.2786  0.0192 -0.0459
31976W        W74888   4.650  28.029  20.906 -0.1921 -0.0146 -0.3477
31977W        W74889   4.030  28.935  20.415 -0.0138 -0.1712 -0.0652
31978W        W74890   5.832  29.704  22.407  0.3412  0.1394 -0.0791
31979W        W74891   6.242  26.314  21.466 -0.1053  0.0818 -0.2038
31980W        W74892   2.807  27.230  22.146  0.0851 -0.1724  0.0128
31981W        W74893   4.051  25.589  24.178  0.0509  0.2641  0.4826
31982W        W74894   3.441  25.699  20.675  0.2205 -0.3801  0.0386
31983W        W74895   3.144  27.552  22.390  0.0649  0.3199  0.1255
31984W        W74896   7.278  26.915  20.707 -0.3483 -0.0084 -0.4362
31985W        W74897   5.416  25.937  20.830  0.2175 -0.1723  0.0567
31986W        W74898   7.067  27.972  23.654  0.1328  0.0682  0.0592
31987W        W74899   6.666  27.518  20.942 -0.0627  0.4009  0.2779
31988W        W74900   5.100  26.882  19.304 -0.1776  0.1730  0.1861
31989W        W74901   5.203  25.860  19.372  0.0139  0.0217 -0.1216
31990W        W74902   5.517  29.941  24.009  0.0412 -0.2825 -0.0600
31991W        W74903   6.765  26.606  21.418 -0.2493 -0.2378 -0.2569
31992W        W74904   5.038  28.640  22.145 -0.0361  0.0520  0.1917
31993W        W74905   4.723  25.933  19.433  0.0892  0.1961  0.1095
31994W        W74906   6.013  28.229  20.984  0.0751  0.0539 -0.3195
31995W        W74907   3.961  28.017  23.111 -0.2037 -0.2199  0.3174
31996W        W74908   5.671  27.459  24.216 -0.1980 -0.4615 -0.1338
31997W        W74909   6.108  28.705  23.934  0.4345  0.2963 -0.0400
31998W        W74910   4.831  25.793  24.192  0.1236  0.0161 -0.2564
31999W        W74911   3.883  24.860  20.820  0.2046 -0.0337  0.0381
32000W        W74912   5.546  27.036  21.093  0.1306 -0.2607  0.2986
32001W        W74913   3.371  28.771  22.380  0.0060  0.2878 -0.0904
32002W        W74914   7.505  25.301  22.563  0.1701  0.2546 -0.0781
32003W        W74915   5.222  26.241  22.170  0.3012 -0.3574 -0.2565
32004W        W74916   5.063  25.722  23.328 -0.0466  0.0613 -0.2232
32005W        W74917   7.476  28.029  24.756  0.1512 -0.1818  0.2432
32006W        W74918   7.676  28.298  20.559 -0.3815 -0.0910 -0.0744
32007W        W74919   6.627  27.414  23.284  0.1065 -0.0215  0.0084
32008W        W74920   4.236  26.804  19.544 -0.0519  0.1908 -0.0816
32009W        W74921   4.725  25.415  22.948 -0.1333  0.0858  0.1829
32010W        W74922   4.666  27.309  22.235  0.1869  0.4292  0.0855
32011W        W74923   3.678  28.293  22.819  0.0496 -0.2716  0.0214
32012W        W74924   5.298  27.983  22.967  0.1415 -0.2950 -0.1773
32013W        W74925   5.253  27.562  22.644 -0.1527 -0.0294 -0.2728
32014W        W74926   5.660  25.242  23.916 -0.1145  0.0590  0.0296
32015W        W74927   5.427  26.385  19.685 -0.3338 -0.3355  0.0229
32016W        W74928   6.889  26.447  19.984 -0.1701 -0.0734 -0.1972
32017W        W74929   5.795  28.032  20.562  0.0156  0.1148  0.2313
32018W        W74930   5.477  25.524  21.524 -0.1323 -0.3245 -0.0392
32019W        W74931   5.360  27.822  21.830 -0.0275 -0.0542 -0.1071
32020W        W74932   3.838  29.607  19.975  0.0377  0.1556  0.1496
32021W        W74933   5.683  27.624  22.989  0.1816  0.1787  0.1747
32022W        W74934   4.462  28.524  21.155 -0.3509  0.0248  0.5142
32023W        W74935   7.249  25.640  22.334  0.3205 -0.1455 -0.3674
32024W        W74936   4.807  27.891  23.141 -0.1617 -0.3438 -0.2963
32025W        W74937   3.922  25.756  21.342 -0.0749  0.1813 -0.2823
32026W        W74938   3.852  27.453  21.364  0.1914 -0.2585  0.3592
32027W        W74939   5.356  26.088  22.840 -0.2117  0.0375  0.2749
32028W        W74940   6.430  26.180  19.783 -0.1785 -0.0919 -0.0133
32029W        W74941   2.710  27.388  22.615 -0.4765 -0.2637 -0.2710
32030W        W74942   6.229  26.451  22.281 -0.4612 -0.0394 -0.0891
32031W        W74943   4.152  28.358  22.022 -0.3971 -0.0805 -0.0743
32032W        W74944   5.924  27.277  23.458 -0.4079 -0.0293 -0.2089
32033W        W74945   6.722  25.165  21.516 -0.3392  0.0171  0.0574
32034W        W74946   4.726  28.946  23.118 -0.0281 -0.2437  0.1611
32035W        W74947   4.618  27.114  24.259 -0.4626 -0.6731  0.0680
32036W        W74948   3.263  25.918  20.216  0.3442 -0.2470 -0.2691
32037W        W74949   5.908  25.839  23.381 -0.3028  0.2472  0.1172
32038W        W74950   4.689  26.654  21.588 -0.1046  0.1864  0.1758
32039W        W74951   4.845  27.149  21.673 -0.0534 -0.1301 -0.2328
32040W        W74952   6.424  29.114  22.712 -0.0828 -0.1991 -0.1147
32041W        W74953   4.706  25.958  20.216 -0.3683 -0.1363  0.0447
32042W        W74954   5.282  28.169  22.232 -0.0387  0.1755 -0.0325
32043W        W74955   5.302  25.916  23.965 -0.0076 -0.1436 -0.0876
32044W        W74956   6.792  27.606  23.730  0.0326  0.0523  0.3111
32045W        W74957   4.163  26.886  22.737 -0.0184 -0.0873  0.2107
32046W        W74958   4.789  26.100  21.744 -0.1712 -0.1319 -0.3008
32047W        W74959   5.041  26.651  21.955 -0.3827  0.1761  0.0097
32048W        W74960   6.576  28.043  21.758 -0.0771  0.0152  0.0971
32049W        W74961   5.309  26.378  23.802  0.3112 -0.1056 -0.0371
32050W        W74962   4.831  27.574  23.486  0.2140  0.0338  0.0663
32051W        W74963   5.141  26.345  21.556  0.0596 -0.0475  0.2909
32052W        W74964   7.735  30.264  19.482  0.0347  0.0067  0.0869
32053W        W74965   7.092  28.460  24.624 -0.1673 -0.3562 -0.4351
32054W        W74966   3.466  28.150  18.072  0.0591  0.2831  0.2119
32055W        W74967   3.599  25.909  21.983 -0.1769 -0.1029 -0.1724
32056W        W74968   3.200  28.444  20.482 -0.0584  0.0299 -0.2097
32057W        W74969   5.700  26.367  22.356 -0.1322 -0.0516  0.0349
32058W        W74970   3.872  27.538  22.340  0.0474 -0.1661 -0.1261
32059W        W74971   5.116  26.316  21.043 -0.0377  0.0986 -0.1353
32060W        W74972   3.736  28.438  21.738  0.0767  0.2602  0.0516
32061W        W74973   7.833  24.188  20.604  0.1492 -0.3545  0.0618
32062W        W74974   2.998  27.656  19.491  0.0821  0.1452 -0.1100
32063W        W74975   6.000  26.690  21.128  0.0113 -0.0831  0.0387
32064W        W74976   6.730  26.638  24.194  0.0523 -0.2819 -0.1010
32065W        W74977   6.461  26.854  20.104 -0.0638 -0.1926  0.3031
32066W        W74978   6.695  24.591  23.965 -0.0532  0.0040 -0.0761
32067W        W74979   4.130  25.385  22.788  0.3663 -0.0382 -0.2646
32068W        W74980   6.620  29.049  21.114  0.0826  0.1760 -0.1239
32069W        W74981   3.104  24.594  22.791 -0.0988 -0.0094 -0.0204
32070W        W74982   5.536  28.569  24.083  0.1809  0.2091 -0.0919
32071W        W74983   3.304  25.965  22.508 -0.2964 -0.0908 -0.3455
32072W        W74984   6.464  27.325  20.411  0.2786  0.0787 -0.1689
32073W        W74985   4.700  26.219  18.403 -0.1028 -0.1975  0.0797
32074W        W74986   4.436  26.150  20.704 -0.0049  0.1724  0.0358
32075W        W74987   6.187  29.145  23.606 -0.0924  0.0010  0.5425
32076W        W74988   5.543  27.267  20.041  0.0231 -0.1429  0.2418
32077W        W74989   6.040  27.168  21.563 -0.3231  0.1988  0.0850
32078W        W74990   4.338  27.725  22.296 -0.2372  0.0302  0.2443
32079W        W74991   7.626  28.172  21.322  0.0039 -0.1283 -0.2708
32080W        W74992   5.246  27.520  20.781  0.2422 -0.1416 -0.0369
32081W        W74993   5.813  27.436  22.024  0.0766  0.0490 -0.0488
32082W        W74994   4.098  24.164  23.034  0.2465  0.2341  0.1965
32083W        W74995   5.295  27.215  21.929  0.0147 -0.2668  0.0440
32084W        W74996   5.636  26.080  21.571  0.0359 -0.1244 -0.1700
32085W        W74997   6.470  25.859  22.690 -0.2301  0.3845  0.3625
32086W        W74998   6.319  26.877  24.094 -0.3403 -0.2090  0.0763
32087W        W74999   5.008  27.460  24.291 -0.0636 -0.1517  0.0919
32088W        W75000   2.415  26.982  22.468 -0.0510  0.0229 -0.1031
32089W        W75001   6.616  29.863  23.586 -0.2938 -0.4937 -0.2706
32090W        W75002   7.393  25.888  21.352  0.0295 -0.1567 -0.1770
32091W        W75003   6.242  26.347  23.265 -0.1866 -0.0678  0.1557
32092W        W75004   7.000  26.885  22.149  0.1401 -0.0016 -0.1655
32093W        W75005   7.113  27.296  21.173  0.0019 -0.2581 -0.0361
32094W        W75006   4.627  26.262  22.205 -0.1205  0.0802 -0.3815
32095W        W75007   7.571  26.592  23.302 -0.1262  0.1370 -0.1034
32096W        W75008   4.837  26.467  20.687  0.0362 -0.0448 -0.0102
32097W        W75009   6.951  24.863  23.103 -0.0375 -0.1414  0.0686
32098W        W75010   4.258  29.371  20.018  0.1219 -0.2489  0.2289
32099W        W75011   6.256  25.480  23.752  0.3449 -0.1765 -0.1125
32100W        W75012   5.576  26.992  21.610 -0.0937  0.3171 -0.0306
32101W        W75013   4.210  26.574  21.752  0.0531  0.2318 -0.1069
32102W        W75014   4.002  28.512  23.150 -0.0410  0.0405  0.1563
32103W        W75015   3.496  25.180  20.782  0.1201  0.2044  0.1548
32104W        W75016   4.005  26.919  20.316  0.0320  0.0262  0.0738
32105W        W75017   5.640  28.699  22.953 -0.1958 -0.0404 -0.2562
32106W        W75018   7.276  27.546  23.897  0.0612 -0.0164 -0.1318
32107W        W75019   5.908  26.198  19.830  0.4038 -0.1663  0.0883
32108W        W75020   7.105  26.646  23.423  0.0186 -0.1703  0.4575
32109W        W75021   5.561  28.592  22.261  0.1382  0.0432 -0.0465
32110W        W75022   5.921  26.198  21.028 -0.2903 -0.1391  0.1522
32111W        W75023   5.165  27.534  23.108  0.3574 -0.1006 -0.3143
32112W        W75024   3.200  28.129  23.705  0.2923  0.0294 -0.3688
32113W        W75025   5.197  28.194  20.694 -0.0854  0.0245 -0.1568
32114W        W75026   5.532  26.516  21.873  0.1567  0.0154 -0.0385
32115W        W75027   8.262  25.996  22.988  0.2102 -0.0665  0.1204
32116W        W75028   5.422  26.623  22.763  0.1554 -0.0149  0.1671
32117W        W75029   6.532  26.795  21.859  0.0144  0.3088 -0.3050
32118W        W75030   4.835  28.815  23.673 -0.0915  0.1180 -0.1005
32119W        W75031   5.976  26.190  21.940 -0.0781 -0.0951 -0.0183
32120W        W75032   6.183  28.112  24.766  0.0918 -0.1478 -0.0901
32121W        W75033   8.627  27.402  22.731 -0.0731  0.1222  0.0611
32122W        W75034   4.735  29.533  21.755 -0.1054 -0.2279  0.1728
32123W        W75035   1.411  25.912  22.549 -0.1937  0.0733 -0.1357
32124W        W75036   5.007  26.181  23.185 -0.3168 -0.2847 -0.2843
32125W        W75037   6.244  27.169  22.021 -0.2118 -0.0994 -0.3341
32126W        W75038   5.703  25.642  20.379  0.1310  0.0658 -0.1615
32127W        W75039   5.517  28.301  19.607  0.2985  0.0022 -0.2597
32128W        W75040   4.461  29.406  23.089 -0.1351  0.0548  0.1225
32129W        W75041   2.714  27.091  23.067  0.2951 -0.1183  0.0914
32130W        W75042   3.342  29.373  21.869 -0.0350 -0.0483  0.0625
32131W        W75043   5.684  28.434  21.261  0.1456 -0.2301  0.1733
32132W        W75044   5.707  27.471  20.902 -0.2439  0.0778  0.2012
32133W        W75045   5.970  28.812  21.978 -0.1234 -0.2979  0.2322
32134W        W75046   3.165  26.443  20.255  0.1622  0.0085 -0.0008
32135W        W75047   4.685  28.008  21.994 -0.0753 -0.0226 -0.1441
32136W        W75048   3.070  29.926  22.242  0.0096 -0.0322 -0.2424
32137W        W75049   6.167  28.370  20.421 -0.1972 -0.1974 -0.0317
32138W        W75050   5.228  28.670  21.443 -0.0430  0.1499 -0.1839
32139W        W75051   6.494  28.519  24.105  0.0630  0.0384 -0.0000
32140W        W75052   6.915  26.890  20.235  0.2370 -0.0162  0.2203
32141W        W75053   7.141  27.041  21.651  0.0019 -0.0319 -0.1598
32142W        W75054   7.200  25.421  21.418  0.2266 -0.1684  0.1307
32143W        W75055   5.637  29.342  24.341 -0.0946  0.2792  0.3581
32144W        W75056   4.023  28.035  20.616  0.0114  0.0230  0.4106
32145W        W75057   4.007  26.240  20.459 -0.0301  0.0122  0.4116
32146W        W75058   4.861  26.069  23.669 -0.0169  0.1037  0.0033
32147W        W75059   7.291  25.263  23.147  0.0464 -0.3426  0.2337
32148W        W75060   4.108  27.114  23.176  0.0702 -0.0632  0.0600
32149W        W75061   6.657  27.790  20.410  0.0281  0.1263 -0.3667
32150W        W75062   3.795  27.320  21.890  0.1723  0.1329 -0.0429
32151W        W75063   4.222  27.144  22.311 -0.0524  0.1334  0.2139
32152W        W75064   8.046  24.248  22.723 -0.3058  0.2511 -0.3027
32153W        W75065   6.018  27.524  19.392 -0.0769  0.1402  0.1896
32154W        W75066   5.066  26.975  22.341  0.2362  0.5646  0.0360
32155W        W75067   4.931  29.029  21.792  0.1153  0.0058  0.0898
32156W        W75068   5.218  27.669  23.759 -0.0658  0.1500 -0.3434
32157W        W75069   5.207  29.544  24.128  0.0955 -0.1593  0.1150
32158W        W75070   5.489  25.332  22.523 -0.0740 -0.1127 -0.2695
32159W        W75071   6.596  25.643  21.569  0.0530  0.1639 -0.3786
32160W        W75072   4.180  25.487  22.235  0.0285  0.2280  0.1667
32161W        W75073   6.564  25.134  22.868  0.0627 -0.0536 -0.1952
32162W        W75074   5.538  26.569  20.714 -0.2512 -0.1406  0.0512
32163W        W75075   7.416  27.127  20.291  0.0106 -0.1333  0.1341
32164W        W75076   5.944  28.167  23.047 -0.0009 -0.1934  0.0187
32165W        W75077   5.277  26.547  20.192 -0.1518 -0.0938 -0.1531
32166W        W75078   5.231  25.518  20.522  0.0989  0.2740  0.3220
32167W        W75079   5.648  28.267  23.620  0.0107 -0.0882 -0.0844
32168W        W75080   4.937  27.607  21.639 -0.0170  0.2743 -0.0108
32169W        W75081   5.272  28.136  23.951  0.1422  0.3058 -0.1222
32170W        W75082   4.465  26.509  21.172 -0.2177  0.3720 -0.0639
32171W        W75083   7.092  26.121  20.400 -0.0320  0.0006 -0.1443
32172W        W75084   3.449  27.167  20.907  0.0597  0.2629  0.0294
32173W        W75085   5.024  27.259  21.241 -0.1440  0.2096  0.2114
32174W        W75086   6.454  29.136  23.188  0.1470 -0.0553 -0.1188
32175W        W75087   4.173  24.800  21.432 -0.0299  0.2465 -0.5660
32176W        W75088   6.529  28.633  20.769 -0.1558  0.0443 -0.0253
32177W        W75089   7.919  27.061  22.281 -0.1263  0.0807 -0.0969
32178W        W75090   4.438  29.190  21.396  0.0144 -0.1200 -0.3782
32179W        W75091   6.630  28.257  22.470 -0.0959  0.0320 -0.0043
32180W        W75092   5.933  27.831  21.708  0.2920  0.1154  0.1396
32181W        W75093   3.320  26.828  22.056 -0.2842 -0.1829 -0.0245
32182W        W75094   6.285  27.882  23.413  0.2869  0.1724  0.1639
32183W        W75095   7.547  27.002  21.296 -0.3367  0.0367 -0.2367
32184W        W75096   4.241  25.152  21.110  0.2752 -0.0723 -0.1236
32185W        W75097   3.666  28.339  22.223 -0.2035  0.0606 -0.1273
32186W        W75098   4.371  27.918  22.797 -0.1272  0.0642  0.1753
32187W        W75099   7.118  25.030  22.681  0.3502  0.0685  0.1654
32188W        W75100   6.875  26.934  24.629  0.1918  0.3445 -0.1483
32189W        W75101   5.158  29.376  20.422  0.0671 -0.1519  0.2331
32190W        W75102   5.847  25.315  23.436 -0.2515  0.0702 -0.1492
32191W        W75103   5.544  28.851  24.475 -0.0478 -0.3924  0.0464
32192W        W75104   4.364  27.968  23.856  0.1838 -0.0807  0.2070
32193W        W75105   4.917  25.468  19.993 -0.0397  0.1311 -0.1553
32194W        W75106   4.624  26.781  22.659  0.2110  0.0182  0.0203
32195W        W75107   4.453  26.456  20.263 -0.0015  0.1322  0.5472
32196W        W75108   4.592  27.574  21.215 -0.0070 -0.0595  0.1799
32197W        W75109   5.303  29.285  21.548  0.0060  0.1361 -0.0343
32198W        W75110   6.348  27.553  21.663  0.0094 -0.1261  0.1558
32199W        W75111   7.362  27.726  21.328 -0.0698  0.2758  0.0252
32200W        W75112   5.141  26.799  21.397  0.0587 -0.0463 -0.3324
32201W        W75113   6.750  25.490  21.986  0.2017 -0.0936  0.0600
32202W        W75114   5.998  26.672  21.721 -0.1818  0.0356 -0.3847
32203W        W75115   4.026  26.068  23.402 -0.0589 -0.1398 -0.0961
32204W        W75116   3.126  28.398  19.296 -0.1269 -0.1009  0.0676
32205W        W75117   4.331  27.732  19.765 -0.0784  0.1798 -0.0075
32206W        W75118   4.174  27.794  21.384 -0.3115 -0.0224  0.1051
32207W        W75119   4.487  24.642  23.488  0.0484 -0.0927 -0.0762
32208W        W75120   3.509  27.261  22.468 -0.0621 -0.3503  0.1530
32209W        W75121   3.923  27.823  21.821  0.1884  0.2113 -0.1960
32210W        W75122   6.287  25.868  22.156  0.2504 -0.3656  0.2302
32211W        W75123   5.261  28.138  21.380 -0.0115 -0.1296 -0.1730
32212W        W75124   5.210  25.610  22.904 -0.1759 -0.0439 -0.0260
32213W        W75125   3.014  24.170  22.168  0.0220 -0.1770 -0.1333
32214W        W75126   5.973  27.710  21.245  0.1583 -0.1156 -0.0281
32215W        W75127   5.628  29.588  19.988  0.0143 -0.2402 -0.0372
32216W        W75128   6.799  25.882  22.269  0.0592  0.0776 -0.1143
32217W        W75129   5.914  29.994  23.766  0.1293  0.0838 -0.2949
32218W        W75130   4.022  27.238  19.908  0.0478  0.0219  0.0306
32219W        W75131   5.869  26.247  23.638 -0.0794 -0.1166  0.2318
32220W        W75132   5.806  25.711  23.868  0.0260 -0.0174 -0.1006
32221W        W75133   4.040  25.523  19.388 -0.0594  0.1384  0.0740
32222W        W75134   5.796  26.903  22.117 -0.1824 -0.2367 -0.1250
32223W        W75135   6.119  29.592  21.744  0.0066  0.1511  0.0596
32224W        W75136   7.845  29.362  18.966  0.4025  0.2141 -0.0390
32225W        W75137   4.080  26.626  23.290 -0.0548 -0.3539 -0.3126
32226W        W75138   4.302  28.923  22.836  0.0707 -0.0756 -0.0212
32227W        W75139   4.898  25.524  23.793 -0.3087  0.0470  0.3238
32228W        W75140   6.876  27.725  18.664  0.0398 -0.0743  0.1651
32229W        W75141   3.432  27.718  23.840  0.1132  0.2536 -0.3761
32230W        W75142   7.701  26.511  21.534  0.1463 -0.0666  0.2020
32231W        W75143   8.651  25.609  22.589  0.2731 -0.0102 -0.0088
32232W        W75144   5.810  25.750  21.209 -0.0997  0.4151 -0.1233
32233W        W75145   3.589  24.895  22.545 -0.1868 -0.1464 -0.0726
32234W        W75146   4.321  27.574  23.167 -0.3447 -0.2155  0.1131
32235W        W75147   5.576  27.744  22.354  0.0506  0.2536  0.0446
32236W        W75148   5.124  26.851  20.832  0.2813 -0.3235 -0.1355
32237W        W75149   6.853  25.495  22.663 -0.1285  0.1932 -0.0211
32238W        W75150   6.233  29.822  21.268  0.1631  0.1167 -0.1339
32239W        W75151   4.386  27.267  20.492 -0.1293 -0.1702  0.3286
32240W        W75152   6.019  27.083  20.340 -0.1660  0.0657 -0.0749
32241W        W75153   5.009  27.751  22.275 -0.2393  0.1348  0.1674
32242W        W75154   4.588  28.464  22.961  0.1673  0.3484 -0.1780
32243W        W75155   6.910  28.766  24.278  0.0642 -0.0839  0.2456
32244W        W75156   5.485  25.467  21.042 -0.0516 -0.0358  0.1708
32245W        W75157   6.972  27.344  20.460 -0.0048  0.3026  0.1150
32246W        W75158   6.464  28.768  22.275 -0.1368 -0.2420 -0.0492
32247W        W75159   6.461  28.055  22.959  0.2141 -0.2519 -0.0963
32248W        W75160   4.840  28.898  21.240  0.0629 -0.0849 -0.0140
32249W        W75161   6.382  26.629  22.723 -0.1450 -0.1490 -0.0458
32250W        W75162   2.727  24.966  22.490 -0.0970 -0.2461 -0.1217
32251W        W75163   3.814  26.561  20.743  0.1331  0.3050  0.1995
32252W        W75164   6.776  27.359  22.355  0.0762 -0.0409 -0.1239
32253W        W75165   6.760  25.428  23.212  0.1964 -0.1032 -0.1796
32254W        W75166   3.219  26.462  23.390 -0.1554  0.0716  0.0956
32255W        W75167   5.678  25.783  21.958 -0.0564  0.2942  0.0858
32256W        W75168   5.315  29.675  23.672 -0.2941 -0.2184 -0.0451
32257W        W75169   3.945  27.985  22.504  0.1134  0.1823 -0.1979
32258W        W75170   5.672  27.501  26.770 -0.1998  0.0106  0.0648
32259W        W75171   5.589  26.805  24.855  0.0555 -0.0903  0.5060
32260W        W75172   8.137  26.551  23.929 -0.1008 -0.1546 -0.2675
32261W        W75173   6.069  28.041  25.264 -0.0679  0.0804  0.1470
32262W        W75174   2.584  25.309  23.052  0.1136  0.3783  0.0013
32263W        W75175   5.947  29.133  24.694  0.3157  0.2442 -0.0101
32264W        W75176   3.765  24.985  26.758  0.0715 -0.0797  0.1082
32265W        W75177   6.515  29.089  25.753 -0.2708  0.1110  0.0895
32266W        W75178   7.118  28.614  27.153  0.3395  0.0699 -0.2203
32267W        W75179   4.798  28.203  23.554  0.0076 -0.2397 -0.0397
32268W        W75180   5.431  27.106  25.713  0.6330  0.2299 -0.0684
32269W        W75181   4.488  29.573  26.581 -0.0766 -0.1944 -0.0946
32270W        W75182   5.386  27.215  24.569 -0.0135  0.2464 -0.2479
32271W        W75183   3.921  24.830  24.302  0.2415 -0.0299  0.2283
32272W        W75184   7.625  27.624  27.106 -0.0232  0.4826  0.1604
32273W        W75185   4.058  26.643  23.864 -0.0727  0.0341  0.1515
32274W        W75186   4.032  27.107  26.296  0.4688  0.2269  0.3371
32275W        W75187   7.138  27.541  25.631 -0.1740 -0.0016 -0.0089
32276W        W75188   6.816  29.503  24.935 -0.1855 -0.0790 -0.2613
32277W        W75189   4.580  25.996  27.863  0.1670 -0.3865 -0.0411
32278W        W75190   6.840  25.128  26.537  0.0160 -0.0584  0.1912
32279W        W75191   6.269  28.181  26.258  0.0804  0.1579 -0.1543
32280W        W75192   3.183  25.102  22.313 -0.0020  0.0168 -0.3449
32281W        W75193   4.091  26.138  23.923 -0.4075  0.2488  0.0333
32282W        W75194   4.426  26.073  25.267 -0.7306 -0.0363 -0.3229
32283W        W75195   6.667  25.560  25.947 -0.1906  0.2020  0.1120
32284W        W75196   6.790  26.725  25.972  0.1815  0.0199 -0.1241
32285W        W75197   5.074  28.159  25.347  0.0003  0.0868  0.0217
32286W        W75198   6.504  28.107  25.743 -0.2713  0.1768  0.2160
32287W        W75199   8.418  26.400  27.364 -0.2770  0.0193 -0.0046
32288W        W75200   3.801  27.925  25.960  0.0430  0.1544 -0.0698
32289W        W75201   3.995  30.153  24.744  0.1633  0.1249  0.3095
32290W        W75202   4.430  28.618  24.907  0.0062  0.0679 -0.0323
32291W        W75203   7.792  28.873  25.695 -0.0548  0.2365 -0.1139
32292W        W75204   6.689  27.992  27.564  0.1258  0.3077 -0.4081
32293W        W75205   3.859  29.523  27.955  0.0258  0.1530  0.4667
32294W        W75206   4.077  28.459  23.969  0.0752  0.3168 -0.1183
32295W        W75207   7.077  27.741  27.276  0.2225  0.0060  0.0172
32296W        W75208   4.751  27.154  27.032  0.3077 -0.0416  0.0338
32297W        W75209   5.673  25.941  26.381  0.3481 -0.0029  0.0039
32298W        W75210   4.837  27.714  25.237 -0.1499  0.1147  0.0440
32299W        W75211   3.948  27.745  24.029 -0.0479  0.1338  0.0257
32300W        W75212   6.489  28.074  26.681 -0.2156  0.0914  0.0939
32301W        W75213   5.186  28.101  27.771  0.2327  0.1549 -0.1540
32302W        W75214   3.611  27.403  26.259 -0.0606 -0.0654 -0.2492
32303W        W75215   5.984  26.164  28.516 -0.0803 -0.0774  0.0535
32304W        W75216   3.783  28.972  23.129 -0.1301  0.0649 -0.2513
32305W        W75217   6.194  25.674  24.612  0.0894  0.0376 -0.1585
32306W        W75218   5.249  25.329  24.176 -0.1485 -0.2339  0.2336
32307W        W75219   5.459  26.669  24.342  0.1532  0.1521 -0.0679
32308W        W75220   5.440  24.746  24.636  0.1551  0.1806 -0.1201
32309W        W75221   4.512  28.687  25.847 -0.0435  0.0358 -0.1232
32310W        W75222   3.934  26.042  26.878  0.2367  0.0862 -0.1701
32311W        W75223   7.301  28.012  26.157 -0.1554  0.1355  0.0164
32312W        W75224   5.006  26.839  24.165  0.1732 -0.2026  0.0140
32313W        W75225   5.885  27.034  25.554  0.0876 -0.0253  0.1526
32314W        W75226   3.794  29.501  25.944 -0.0013 -0.2309 -0.1711
32315W        W75227   4.249  26.231  25.938 -0.1203 -0.0600  0.1340
32316W        W75228   7.134  30.425  24.290 -0.0615  0.0902 -0.0631
32317W        W75229   7.309  29.248  24.878 -0.0562  0.0011 -0.2405
32318W        W75230   4.953  29.326  22.708  0.0156  0.2340  0.1158
32319W        W75231   4.181  26.235  24.861  0.2863  0.2683  0.0764
32320W        W75232   4.066  27.867  27.707  0.0790  0.0862 -0.1696
32321W        W75233   4.039  27.162  27.245  0.0038  0.0309 -0.3014
32322W        W75234   4.533  23.982  24.397 -0.0474 -0.0035  0.0518
32323W        W75235   8.169  27.703  28.874  0.2741  0.1145 -0.0848
32324W        W75236   4.076  27.857  28.195 -0.0048  0.0931 -0.2058
32325W        W75237   6.939  26.015  25.982  0.1773 -0.3501 -0.2078
32326W        W75238   6.273  27.367  25.421  0.0364  0.3733  0.2652
32327W        W75239   7.015  28.912  28.165 -0.0450 -0.3855 -0.3731
32328W        W75240   5.728  26.569  23.160 -0.1049 -0.3124  0.2240
32329W        W75241   6.433  25.999  24.996 -0.0694  0.0420  0.1068
32330W        W75242   7.578  25.376  25.627 -0.2939  0.2512  0.4479
32331W        W75243   4.048  27.194  23.965  0.0851  0.2030 -0.0016
32332W        W75244   3.593  27.325  23.125  0.2009  0.0332 -0.1163
32333W        W75245   7.490  29.022  27.238  0.2604 -0.0891 -0.1604
32334W        W75246   7.739  27.284  24.005 -0.0433 -0.0317 -0.2071
32335W        W75247   2.976  28.619  25.297 -0.0500  0.0558 -0.1320
32336W        W75248   5.538  26.694  25.360 -0.1365 -0.0416  0.0622
32337W        W75249   6.098  27.611  27.031 -0.1607 -0.1347 -0.1695
32338W        W75250   4.298  29.544  23.833 -0.3220  0.1247 -0.0780
32339W        W75251   4.700  26.483  24.997 -0.0211 -0.2227 -0.1512
32340W        W75252   2.937  27.819  23.432  0.0752  0.3552  0.1149
32341W        W75253   4.815  25.326  26.211 -0.0719 -0.3383  0.0740
32342W        W75254   5.056  26.762  27.203  0.0160 -0.2612  0.0282
32343W        W75255   7.403  26.679  25.022  0.0798  0.0755  0.0068
32344W        W75256   4.066  26.147  26.405  0.2360 -0.2039  0.2682
32345W        W75257   6.707  25.273  25.499 -0.0688  0.1221  0.3471
32346W        W75258   3.214  26.416  23.888  0.1743 -0.0867 -0.1158
32347W        W75259   5.770  29.491  23.635  0.3035  0.2430 -0.1656
32348W        W75260   7.300  27.655  25.170  0.0095 -0.2858 -0.1378
32349W        W75261   6.606  28.086  25.222  0.3088 -0.0228  0.0435
32350W        W75262   3.823  26.940  25.264 -0.0671 -0.1129  0.1112
32351W        W75263   5.096  25.409  25.360  0.2878 -0.2499 -0.0268
32352W        W75264   4.988  26.617  25.463  0.1033 -0.0417 -0.0658
32353W        W75265   3.230  26.938  24.014 -0.0611 -0.3804  0.1256
32354W        W75266   7.778  26.764  27.228  0.0762 -0.1816  0.1401
32355W        W75267   3.819  25.523  23.585  0.2059 -0.2534 -0.1188
32356W        W75268   6.771  26.089  24.170 -0.0601 -0.2876  0.2023
32357W        W75269   4.240  27.339  25.473 -0.0202  0.1944 -0.1687
32358W        W75270   2.819  27.842  24.129  0.4334  0.0226  0.0722
32359W        W75271   7.782  26.212  26.929  0.1553  0.2207  0.0421
32360W        W75272   4.750  30.470  23.848  0.0143  0.0326 -0.2380
32361W        W75273   7.662  29.523  26.433 -0.3237 -0.0770  0.4032
32362W        W75274   7.368  29.508  24.364  0.1456  0.0857 -0.1251
32363W        W75275   3.759  26.309  25.181 -0.1415 -0.0126  0.0934
32364W        W75276   3.962  27.731  24.600  0.1467  0.0959 -0.2486
32365W        W75277   4.615  29.520  25.375 -0.1435  0.0142  0.0405
32366W        W75278   5.028  28.732  24.772 -0.0306 -0.1779  0.0071
32367W        W75279   5.490  26.286  24.710 -0.0395 -0.1372  0.0667
32368W        W75280   7.104  29.469  25.331 -0.2770  0.2462  0.1096
32369W        W75281   5.346  27.419  25.255 -0.0307  0.0270  0.1214
32370W        W75282   5.425  28.019  26.805 -0.1078 -0.0702  0.2878
32371W        W75283   6.407  25.248  26.922 -0.1199  0.0455  0.1087
32372W        W75284   7.026  29.129  25.740 -0.0054 -0.3717 -0.1503
32373W        W75285   3.967  26.394  24.437 -0.4689  0.1748 -0.0095
32374W        W75286   3.714  24.979  23.500 -0.1124 -0.1113 -0.0039
32375W        W75287   4.661  29.176  24.913 -0.2914  0.1840  0.2344
32376W        W75288   3.512  28.402  23.380 -0.2040  0.3260  0.1259
32377W        W75289   2.286  26.842  24.152  0.0446 -0.2221 -0.1624
32378W        W75290   5.891  28.517  24.862 -0.1599 -0.1847 -0.0431
32379W        W75291   6.616  25.814  25.499 -0.0713  0.2012  0.1571
32380W        W75292   2.825  27.383  27.460 -0.0578  0.3701 -0.1502
32381W        W75293   5.837  27.494  25.174 -0.1871 -0.1152 -0.2494
32382W        W75294   5.228  25.858  24.532  0.1445 -0.1902 -0.3265
32383W        W75295   5.005  27.281  26.152 -0.0951  0.1660  0.0042
32384W        W75296   6.409  25.976  25.927  0.0535  0.0086 -0.3015
32385W        W75297   6.470  26.352  24.500  0.0721  0.0497  0.0424
32386W        W75298   5.472  27.493  26.019 -0.0197 -0.1754  0.3127
32387W        W75299   7.212  29.847  24.884 -0.1512  0.0332  0.0143
32388W        W75300   7.518  27.575  24.736 -0.1840 -0.2104 -0.1314
32389W        W75301   6.015  26.949  23.058 -0.1898  0.1367 -0.2462
32390W        W75302   4.198  28.078  27.249 -0.2389 -0.0468  0.0120
32391W        W75303   5.079  28.053  24.864 -0.1788  0.2479 -0.2160
32392W        W75304   5.152  27.576  24.838 -0.2451 -0.2480  0.1172
32393W        W75305   6.160  27.616  24.017 -0.0459  0.0073  0.2616
32394W        W75306   6.869  27.792  25.983  0.0048 -0.4694 -0.1133
32395W        W75307   4.483  28.215  25.241 -0.1364  0.0555 -0.1316
32396W        W75308   5.494  27.188  26.410  0.3503  0.0688 -0.1133
32397W        W75309   5.003  28.430  25.776  0.1751 -0.3052  0.1840
32398W        W75310   6.106  23.412  25.967  0.0346 -0.4272  0.5354
32399W        W75311   4.981  26.456  22.558 -0.0148 -0.3894 -0.2105
32400W        W75312   5.805  24.830  24.981  0.1454  0.0714  0.0968
32401W        W75313   3.064  28.966  21.892 -0.1740  0.2758 -0.3470
32402W        W75314   4.755  26.268  25.819 -0.1325  0.1230 -0.5136
32403W        W75315   5.135  25.963  26.294 -0.3716 -0.2074  0.0717
32404W        W75316   5.357  25.394  27.454 -0.0744 -0.1510  0.5793
32405W        W75317   5.775  26.813  26.016  0.4047  0.5298  0.1071
32406W        W75318   6.357  26.814  24.628  0.2298 -0.1299  0.2109
32407W        W75319   5.156  27.711  25.627 -0.2429 -0.0701  0.2930
32408W        W75320   4.583  26.807  22.041 -0.0684 -0.2830 -0.2767
32409W        W75321   4.835  25.689  26.668 -0.1381  0.0013  0.0564
32410W        W75322   4.409  27.511  26.264  0.2421 -0.1275  0.2683
32411W        W75323   2.769  28.901  26.687  0.0423  0.1433 -0.2542
32412W        W75324   6.550  27.319  28.029  0.0565 -0.1046  0.0827
32413W        W75325   5.837  27.110  23.892  0.2582 -0.1075 -0.0218
32414W        W75326   5.390  26.385  26.048  0.0123  0.0037  0.1221
32415W        W75327   5.625  26.214  24.202  0.0878  0.3685  0.1198
32416W        W75328   5.083  28.466  24.308 -0.1490  0.0194  0.0837
32417W        W75329   5.723  27.798  23.474  0.1996  0.0067 -0.0554
32418W        W75330   5.402  25.084  25.548  0.1850  0.1055 -0.0446
32419W        W75331   5.135  27.587  26.918 -0.0857  0.0936  0.4644
32420W        W75332   5.707  28.883  25.100 -0.1540 -0.1942  0.1087
32421W        W75333   5.956  27.933  26.649  0.1333 -0.0946  0.1902
32422W        W75334   3.643  29.150  24.579  0.1963 -0.0954  0.0473
32423W        W75335   7.284  25.814  25.540  0.0193 -0.0442 -0.0506
32424W        W75336   3.627  30.103  26.512 -0.1286 -0.0377 -0.1064
32425W        W75337   3.572  26.862  22.797  0.0973 -0.1935  0.2278
32426W        W75338   3.492  26.188  24.238 -0.0564 -0.2253  0.1655
32427W        W75339   7.952  25.663  26.099  0.3567  0.0183  0.0958
32428W        W75340   7.426  26.775  22.895  0.2469  0.3220  0.0367
32429W        W75341   4.949  26.307  26.785 -0.3111  0.1342  0.0953
32430W        W75342   4.595  24.852  26.103  0.0162  0.2111 -0.3517
32431W        W75343   3.983  29.107  27.169  0.4724 -0.1687  0.0511
32432W        W75344   5.819  25.525  26.794 -0.1428  0.0639  0.2341
32433W        W75345   6.770  25.882  24.632  0.2045  0.0227 -0.0193
32434W        W75346   6.891  28.156  27.050  0.1984  0.1157 -0.0143
32435W        W75347   5.394  27.118  26.983 -0.0179  0.1967 -0.0378
32436W        W75348   2.402  27.672  24.347 -0.1880  0.0679  0.1525
32437W        W75349   7.291  25.968  27.767  0.0184 -0.1247 -0.0290
32438W        W75350   4.419  27.322  24.740  0.0881  0.0155 -0.0880
32439W        W75351   2.278  25.672  24.244 -0.0867 -0.0250  0.0487
32440W        W75352   5.453  29.001  26.956  0.1306 -0.0271  0.0079
32441W        W75353   3.663  26.819  24.255  0.0327 -0.1061  0.0054
32442W        W75354   4.052  27.465  25.946 -0.2904 -0.0664  0.1187
32443W        W75355   4.446  26.211  26.838 -0.0362 -0.0520  0.0337
32444W        W75356   6.575  27.699  27.054 -0.0993  0.0850 -0.0990
32445W        W75357   4.524  25.507  25.194  0.4438 -0.0106  0.1886
32446W        W75358   5.353  25.053  25.010 -0.0747  0.0051  0.0779
32447W        W75359   6.688  26.308  26.245  0.3842  0.0497  0.1809
32448W        W75360   5.806  28.789  25.669 -0.0796  0.4701  0.2986
32449W        W75361   5.958  26.474  24.508  0.3454  0.1440 -0.1222
32450W        W75362   4.706  28.402  27.305 -0.1782  0.1410 -0.0407
32451W        W75363   5.250  25.147  26.002 -0.0400 -0.4789 -0.2850
32452W        W75364   7.386  29.051  22.767  0.2928 -0.3314  0.1076
32453W        W75365   6.837  26.485  26.839  0.0950 -0.1186 -0.0354
32454W        W75366   3.331  28.079  24.204  0.2153  0.0531 -0.1091
32455W        W75367   4.212  26.548  25.319  0.1799  0.2580 -0.1673
32456W        W75368   4.344  27.757  25.087 -0.2402  0.0417 -0.0725
32457W        W75369   4.571  26.873  25.468  0.2323  0.4987 -0.4269
32458W        W75370   4.628  27.598  25.794  0.0516 -0.1708 -0.0474
32459W        W75371   3.549  28.536  23.964  0.0021 -0.1797  0.3635
32460W        W75372   4.952  27.155  25.592  0.4415 -0.0106 -0.0922
32461W        W75373   5.166  25.140  23.514  0.2394 -0.0775  0.1860
32462W        W75374   3.878  28.195  23.566  0.0312  0.3789  0.3525
32463W        W75375   6.966  25.732  25.131 -0.0970 -0.0891  0.2536
32464W        W75376   6.247  25.734  26.975 -0.3441 -0.1615 -0.0636
32465W        W75377   4.695  27.796  24.598  0.0675  0.0002  0.0825
32466W        W75378   5.109  25.971  28.099  0.1462 -0.0968 -0.0913
32467W        W75379   3.868  24.685  27.212  0.1848 -0.1713  0.4503
32468W        W75380   6.183  27.404  24.559 -0.1246 -0.2049 -0.0170
32469W        W75381   3.999  26.542  26.902 -0.0845  0.0490  0.1421
32470W        W75382   6.340  27.770  28.004  0.2295  0.0534 -0.1016
32471W        W75383   4.578  27.025  26.400  0.1067 -0.0902  0.0380
32472W        W75384   6.525  24.337  24.551 -0.0968  0.0543 -0.3347
32473W        W75385   3.609  25.439  24.469 -0.0056 -0.0675  0.0017
32474W        W75386   5.722  27.679  25.604 -0.3670  0.1258 -0.1564
32475W        W75387   6.575  28.630  27.050 -0.0226 -0.1327  0.2097
32476W        W75388   5.212  26.658  23.251  0.1540 -0.2133  0.3182
32477W        W75389   8.058  26.101  25.936 -0.0359 -0.0543 -0.2809
32478W        W75390   4.821  27.851  26.193 -0.3393 -0.3721 -0.1942
32479W        W75391   6.349  27.677  26.343  0.0617 -0.3212  0.0505
32480W        W75392   6.052  27.800  22.659  0.0047 -0.0714 -0.0239
32481W        W75393   4.239  27.995  26.085  0.1782 -0.0370 -0.0410
32482W        W75394   4.537  25.662  24.730 -0.2404  0.2571  0.1026
32483W        W75395   4.105  26.888  25.701 -0.0187  0.0847 -0.0069
32484W        W75396   6.550  25.267  24.614  0.4473 -0.0668  0.2212
32485W        W75397   5.767  25.231  25.265  0.0007  0.0452 -0.0778
32486W        W75398   6.291  26.523  25.894  0.0783 -0.0838 -0.1363
32487W        W75399   5.216  26.386  25.114 -0.1895  0.2261 -0.1027
32488W        W75400   4.083  25.418  26.954 -0.1161  0.0999 -0.1126
32489W        W75401   6.984  29.097  27.150 -0.2692 -0.0280 -0.1638
32490W        W75402   6.604  27.163  25.105 -0.1735  0.2167  0.0166
32491W        W75403   5.434  25.844  25.899 -0.0551 -0.4133 -0.1032
32492W        W75404   6.963  28.289  26.571 -0.0926 -0.0125  0.0939
32493W        W75405   6.020  27.022  25.030  0.2307 -0.1168 -0.0310
32494W        W75406   4.291  27.483  23.669  0.1482  0.2476 -0.0175
32495W        W75407   7.002  26.925  26.964 -0.0025 -0.1526 -0.0755
32496W        W75408   6.054  25.374  24.201 -0.0591 -0.0719 -0.0449
32497W        W75409   5.803  26.358  25.676 -0.1839  0.0596  0.0299
32498W        W75410   4.959  29.902  24.459 -0.0172  0.1346 -0.1434
32499W        W75411   6.960  28.298  25.981 -0.0009  0.0344  0.1162
32500W        W75412   4.633  26.609  24.537 -0.0498 -0.0358 -0.0132
32501W        W75413   4.235  26.813  24.348 -0.0527  0.0866 -0.1170
32502W        W75414   4.054  29.194  26.336  0.0809 -0.3396  0.0378
32503W        W75415   2.313  27.164  23.415  0.0990 -0.2406  0.0048
32504W        W75416   5.564  27.125  22.990  0.0138 -0.0431 -0.0722
32505W        W75417   4.421  29.825  27.486 -0.2259 -0.0856  0.0474
32506W        W75418   6.881  27.865  29.097 -0.1350 -0.4268  0.0290
32507W        W75419   5.451  25.145  23.134 -0.3332  0.5485  0.1390
32508W        W75420   7.670  26.577  26.584 -0.0181  0.0810 -0.2012
32509W        W75421   4.145  28.143  24.884 -0.0281  0.1925  0.1707
32510W        W75422   5.949  25.804  25.816 -0.0508 -0.3039  0.0154
32511W        W75423   5.704  29.284  26.608 -0.0905  0.0686  0.0366
32512W        W75424   3.761  28.593  27.210 -0.3445 -0.4135  0.1194
32513W        W75425   5.592  28.190  24.529 -0.1587 -0.1801  0.4392
32514W        W75426   6.750  27.201  25.570 -0.1858 -0.1460 -0.1780
32515W        W75427   6.193  27.138  27.143 -0.1720  0.1228 -0.0712
32516W        W75428   4.778  28.651  25.392 -0.1575  0.0652  0.2101
32517W        W75429   7.576  26.975  26.231  0.0319 -0.1059 -0.2497
32518W        W75430   4.724  27.267  25.189  0.0365 -0.2236  0.0108
32519W        W75431   3.405  26.748  24.961 -0.0473 -0.0818  0.2571
32520W        W75432   6.400  27.574  27.528 -0.2051  0.1881  0.1623
32521W        W75433   6.558  28.609  25.959 -0.1956 -0.0172 -0.0093
32522W        W75434   4.229  28.722  26.287 -0.1642 -0.3599 -0.0484
32523W        W75435   3.725  27.791  27.341 -0.1338 -0.2031  0.1135
32524W        W75436   5.790  25.358  26.256  0.0340  0.1776 -0.0923
32525W        W75437   6.674  26.823  26.450  0.0385  0.0272 -0.0509
32526W        W75438   6.921  24.676  25.293 -0.0368  0.1176 -0.1755
32527W        W75439   3.856  27.661  23.520  0.0153 -0.4762  0.0015
32528W        W75440   4.674  30.177  28.584  0.0029 -0.3536 -0.1697
32529W        W75441   3.827  27.357  26.737 -0.2214  0.1567 -0.1755
32530W        W75442   4.129  29.746  24.346  0.2707 -0.0691  0.4258
32531W        W75443   7.647  28.142  22.490  0.1898 -0.0463 -0.0801
32532W        W75444   5.164  27.934  24.374  0.1993 -0.0670 -0.2198
32533W        W75445   5.246  28.870  25.342  0.3156 -0.0500 -0.0588
32534W        W75446   4.973  25.431  24.888  0.0050  0.1060  0.0833
32535W        W75447   3.979  27.765  26.427  0.1377  0.1416  0.2262
32536W        W75448   4.747  28.754  22.616  0.1359 -0.0564  0.0398
32537W        W75449   6.350  27.691  24.981  0.2203 -0.1281  0.3303
32538W        W75450   4.189  28.353  25.682  0.1764 -0.1194  0.0283
32539W        W75451   6.607  26.801  27.824 -0.0216  0.0488  0.3218
32540W        W75452   6.678  26.712  23.639  0.1116 -0.2166  0.1170
32541W        W75453   7.387  29.022  25.293  0.2440 -0.1378  0.1622
32542W        W75454   6.177  26.095  24.143 -0.1995  0.1589  0.2471
32543W        W75455   5.922  29.380  27.608 -0.0438 -0.0213 -0.0717
32544W        W75456   4.824  26.610  26.410  0.0641  0.0137  0.3141
32545W        W75457   3.700  25.768  23.032 -0.0849 -0.0494  0.2601
32546W        W75458   6.051  25.973  27.346  0.3674 -0.0295 -0.0224
32547W        W75459   6.721  25.932  26.995 -0.0326  0.1000 -0.0081
32548W        W75460   2.982  29.409  25.823  0.1929  0.1452  0.4695
32549W        W75461   6.715  27.683  24.202 -0.0903  0.2765 -0.1133
32550W        W75462   6.029  25.285  24.854  0.1135  0.2339  0.2374
32551W        W75463   4.165  27.887  25.579 -0.3356  0.0211 -0.0065
32552W        W75464   6.626  25.797  26.405  0.2214  0.0562 -0.2017
32553W        W75465   5.420  25.517  23.556  0.0176  0.1136  0.0225
32554W        W75466   3.953  26.648  26.077  0.1246 -0.1447  0.1066
32555W        W75467   3.353  30.184  25.885 -0.1379  0.2831 -0.0487
32556W        W75468   4.670  28.079  25.668  0.3547 -0.1262  0.0631
32557W        W75469   5.671  28.259  25.506 -0.1400 -0.0633 -0.1389
32558W        W75470   4.304  25.673  23.741  0.0703  0.1906 -0.0018
32559W        W75471   6.008  26.506  25.288  0.1771  0.0760  0.2103
32560W        W75472   4.456  26.713  26.034 -0.1088  0.2485 -0.1848
32561W        W75473   6.068  26.215  26.221 -0.2188  0.5246 -0.1909
32562W        W75474   3.487  27.670  24.402 -0.1068 -0.1122  0.1745
32563W        W75475   6.460  26.833  25.500  0.1100  0.2154 -0.2469
32564W        W75476   5.234  27.719  26.436 -0.2150 -0.0974 -0.1545
32565W        W75477   3.325  25.798  26.187  0.1526 -0.1185 -0.1058
32566W        W75478   3.721  27.179  23.592  0.0745  0.3328 -0.1306
32567W        W75479   7.652  27.389  26.542 -0.2196 -0.0849 -0.2464
32568W        W75480   6.410  27.190  23.730 -0.0549 -0.2283  0.0524
32569W        W75481   5.811  27.548  27.732 -0.2024 -0.2115 -0.3987
32570W        W75482   5.059  26.287  24.184 -0.0338  0.2806 -0.0974
32571W        W75483   5.664  26.176  25.224  0.0483  0.3596 -0.0920
32572W        W75484   4.291  28.024  24.383 -0.2374  0.0574  0.1302
32573W        W75485   4.539  27.149  25.895 -0.0568 -0.0683 -0.3354
32574W        W75486   6.884  27.525  27.698 -0.2183 -0.4712 -0.2055
32575W        W75487   3.175  25.956  24.815  0.0801  0.0943 -0.1626
32576W        W75488   6.751  27.219  24.056  0.1858 -0.0378 -0.0565
32577W        W75489   6.559  27.311  26.093  0.0398 -0.0784  0.0828
32578W        W75490   4.714  29.355  24.206  0.1951  0.0702  0.0384
32579W        W75491   6.832  27.641  25.189  0.1638 -0.4655 -0.1259
32580W        W75492   6.282  29.403  26.247 -0.4851 -0.0915  0.2188
32581W        W75493   3.580  25.686  24.934  0.0091  0.4102  0.1564
32582W        W75494   6.059  28.617  26.141 -0.1303  0.2519  0.1766
32583W        W75495   7.306  28.666  25.668 -0.0260  0.1010  0.3285
32584W        W75496   5.659  25.415  25.788 -0.0507 -0.1153  0.0310
32585W        W75497   5.093  26.648  24.681 -0.2027 -0.1367  0.1910
32586W        W75498   3.812  28.237  25.241  0.2125  0.1243  0.3063
32587W        W75499   7.278  25.797  26.926  0.0381  0.2838  0.1106
32588W        W75500   6.119  25.762  26.496 -0.1981  0.1191  0.0139
32589W        W75501   5.738  27.968  24.101 -0.3853  0.1553 -0.0904
32590W        W75502   6.814  25.021  27.232 -0.0181  0.0516  0.0118
32591W        W75503   3.723  28.453  25.874  0.2055 -0.2731 -0.1572
32592W        W75504   5.134  28.870  26.580 -0.1138  0.2004  0.2106
32593W        W75505   4.720  24.975  23.800 -0.2701 -0.0625  0.1681
32594W        W75506   4.653  26.270  27.314  0.2115 -0.1736 -0.2017
32595W        W75507   4.911  27.104  24.740  0.1762 -0.2741  0.0919
32596W        W75508   6.084  29.158  25.409 -0.1634  0.4369 -0.0158
32597W        W75509   5.379  27.539  27.349 -0.4803  0.0952  0.1185
32598W        W75510   6.100  27.363  25.984 -0.1322 -0.0092  0.1067
32599W        W75511   6.869  28.906  24.739 -0.0684  0.1496 -0.1734
32600W        W75512   4.777  24.989  25.084 -0.2440 -0.2083  0.3712
32601W        W75513   7.670  25.303  26.265  0.0063  0.3586 -0.0603
32602W        W75514   7.231  23.966  24.739  0.2807 -0.0269 -0.0289
32603W        W75515   3.341  26.500  25.933 -0.0565 -0.1785 -0.0421
32604W        W75516   3.363  27.087  24.590 -0.1100  0.0324 -0.0956
32605W        W75517   4.119  26.227  22.908 -0.1302 -0.1137 -0.1314
32606W        W75518   3.877  28.279  26.325 -0.1402  0.0784  0.1835
32607W        W75519   5.586  25.797  27.260 -0.0144 -0.1607  0.2404
32608W        W75520   4.008  26.591  27.419 -0.1368 -0.1761  0.1752
32609W        W75521   3.873  28.026  26.828  0.1443  0.1117 -0.0832
32610W        W75522   4.942  25.023  24.501  0.0242  0.0319  0.0085
32611W        W75523   6.127  26.696  23.571 -0.3604 -0.3416  0.1603
32612W        W75524   4.336  26.891  24.947  0.0985 -0.2085 -0.0107
32613W        W75525   2.689  26.643  23.260 -0.0045 -0.0035  0.2333
32614W        W75526   5.958  28.028  25.841  0.1261  0.1632 -0.1623
32615W        W75527   6.709  28.982  25.236 -0.0675  0.1628 -0.1108
32616W        W75528   6.655  26.335  25.590  0.0559 -0.0887 -0.2072
32617W        W75529   8.514  27.757  27.772 -0.0078 -0.1515 -0.1246
32618W        W75530   2.424  29.155  24.254  0.1595 -0.0791  0.0554
32619W        W75531   5.726  26.412  26.573 -0.2041 -0.2574 -0.1215
32620W        W75532   5.705  26.324  27.394 -0.1935  0.0605  0.4169
32621W        W75533   2.467  25.778  23.401 -0.0969  0.1602  0.1048
32622W        W75534   5.470  25.744  25.373  0.0269 -0.1360 -0.2740
32623W        W75535   6.178  28.430  25.541 -0.0418 -0.0358  0.1665
32624W        W75536   6.552  29.096  24.019  0.0815 -0.1462 -0.0917
32625W        W75537   5.354  27.992  26.026  0.2882 -0.1577  0.1510
32626W        W75538   4.800  29.732  26.902  0.0423  0.2271  0.0769
32627W        W75539   3.698  25.781  26.491  0.1876  0.2224  0.1949
32628W        W75540   7.155  27.318  24.371 -0.2588 -0.0857  0.2657
32629W        W75541   4.741  27.495  26.633  0.1513 -0.4603  0.0604
32630W        W75542   6.077  28.547  24.421 -0.0095  0.1133 -0.0811
32631W        W75543   7.379  25.779  26.051  0.0204  0.0116  0.2302
32632W        W75544   5.134  26.941  25.126 -0.1981  0.0570  0.0458
32633W        W75545   3.976  24.829  28.109 -0.0921 -0.2914  0.1209
32634W        W75546   4.022  28.709  25.254  0.2363  0.1322  0.1973
32635W        W75547   8.074  28.639  26.693 -0.0778 -0.4390  0.2238
32636W        W75548   4.627  25.365  24.329  0.0992  0.1679  0.1803
32637W        W75549   6.274  24.588  24.199 -0.0931  0.1251 -0.2930
32638W        W75550   4.416  27.566  24.136 -0.1702  0.3392  0.0453
32639W        W75551   3.714  25.678  25.421  0.0596 -0.2268 -0.0919
32640W        W75552   6.443  26.521  25.039  0.2485  0.4209  0.1750
32641W        W75553   6.303  26.716  27.382 -0.1664  0.1302  0.3978
32642W        W75554   5.566  28.555  27.180  0.0297  0.2799  0.3163
32643W        W75555   5.827  27.010  26.806 -0.1818  0.0069 -0.1077
32644W        W75556   4.406  26.344  23.589  0.2502  0.2685  0.2053
32645W        W75557   6.908  29.228  22.994  0.1681 -0.1904  0.3540
32646W        W75558   6.568  29.139  26.652  0.2238  0.0242 -0.0478
32647W        W75559   7.877  27.884  28.513 -0.2719  0.0456  0.0607
32648W        W75560   5.553  28.501  26.714  0.1887  0.0440 -0.3730
32649W        W75561   7.260  26.560  25.907 -0.1077 -0.1369 -0.0525
32650W        W75562   4.418  25.345  27.484  0.1280 -0.2500 -0.0902
32651W        W75563   3.590  27.517  25.711 -0.0623 -0.1833  0.3019
32652W        W75564   5.325  27.186  24.021 -0.2960 -0.0697  0.1312
32653W        W75565   6.137  26.706  26.390 -0.0559  0.1805 -0.0143
32654W        W75566   4.322  25.744  26.692  0.0554 -0.0994  0.1342
32655W        W75567   6.136  24.953  24.536 -0.1704  0.2043 -0.0661
32656W        W75568   4.861  28.747  26.154 -0.0362  0.0355 -0.0062
32657W        W75569   6.196  28.506  26.707  0.1268 -0.1245 -0.1640
32658W        W75570   5.768  27.982  30.904  0.1787  0.2246  0.2076
32659W        W75571   4.155  27.363  28.082  0.1370 -0.4265  0.0853
32660W        W75572   7.411  26.724  27.751 -0.0016  0.2037  0.2110
32661W        W75573   6.870  28.472  27.984 -0.4471  0.0056  0.1867
32662W        W75574   3.954  26.750  30.184  0.3032  0.3171  0.2214
32663W        W75575   5.692  28.017  27.864 -0.1546  0.0194 -0.1369
32664W        W75576   4.625  24.397  29.310  0.1415  0.1553 -0.2219
32665W        W75577   5.756  27.696  29.741 -0.0818 -0.3585 -0.2399
32666W        W75578   7.837  28.725  31.160  0.1681 -0.3761  0.4498
32667W        W75579   6.112  27.226  26.485  0.1241 -0.1225 -0.0117
32668W        W75580   5.322  26.458  31.246  0.0270  0.0708 -0.1546
32669W        W75581   4.200  28.552  29.330  0.2935 -0.0434 -0.0044
32670W        W75582   5.302  24.942  28.374 -0.1644  0.0967 -0.0725
32671W        W75583   2.540  26.754  29.771 -0.0563 -0.0758 -0.0782
32672W        W75584   7.585  24.995  29.297 -0.0419  0.1323 -0.3243
32673W        W75585   3.698  28.377  28.634 -0.1268 -0.0229 -0.0837
32674W        W75586   4.602  26.610  31.035  0.1420 -0.0370  0.0366
32675W        W75587   5.683  26.944  28.992  0.2016 -0.1213 -0.1107
32676W        W75588   5.371  28.579  28.699 -0.2047 -0.1505 -0.0827
32677W        W75589   5.966  27.068  31.017 -0.2135 -0.1290 -0.0432
32678W        W75590   5.791  24.443  31.147  0.1670  0.1942  0.0794
32679W        W75591   5.398  28.570  27.844  0.2229  0.0592  0.1530
32680W        W75592   3.609  27.894  28.569  0.2887  0.0602  0.1120
32681W        W75593   4.500  25.807  28.786 -0.1655  0.4015  0.2091
32682W        W75594   5.924  27.209  29.943 -0.0321 -0.0222 -0.0573
32683W        W75595   6.741  26.726  29.739 -0.3714  0.2064 -0.0034
32684W        W75596   7.208  26.836  29.735  0.1736  0.0796  0.0201
32685W        W75597   5.140  27.725  29.047  0.0826 -0.0612 -0.4413
32686W        W75598   6.802  27.740  28.568  0.2858 -0.2608  0.3134
32687W        W75599   6.614  27.577  31.785 -0.2044  0.3024  0.3150
32688W        W75600   5.062  27.429  30.489 -0.1655  0.1007 -0.2889
32689W        W75601   2.092  26.927  28.891  0.2813  0.5099  0.0230
32690W        W75602   3.091  28.436  27.382 -0.0899  0.0216  0.0261
32691W        W75603   5.752  27.760  28.442  0.0357 -0.0361 -0.2368
32692W        W75604   6.316  29.494  31.328  0.1183  0.2310 -0.0609
32693W        W75605   4.603  29.172  31.689  0.1640 -0.2676 -0.0808
32694W        W75606   4.240  28.484  27.596 -0.0195  0.2158  0.3431
32695W        W75607   4.606  29.508  30.962 -0.0738  0.3195 -0.1245
32696W        W75608   4.007  27.492  31.352 -0.0981 -0.1041  0.0745
32697W        W75609   6.247  27.664  30.025 -0.0828  0.6612  0.0161
32698W        W75610   4.751  27.043  28.471 -0.3977  0.0125 -0.0922
32699W        W75611   3.913  27.489  28.601 -0.0616 -0.1796  0.1666
32700W        W75612   5.395  28.033  28.722  0.0190  0.1701 -0.0620
32701W        W75613   4.510  28.128  30.764  0.0755 -0.2097 -0.0801
32702W        W75614   4.621  26.751  30.018  0.1203 -0.1484 -0.1015
32703W        W75615   7.147  27.003  31.271 -0.0628 -0.2543  0.0699
32704W        W75616   2.992  28.575  28.965 -0.1874  0.1160 -0.0080
32705W        W75617   5.456  26.353  28.169  0.1384  0.1514  0.1887
32706W        W75618   5.082  26.814  25.981 -0.2553 -0.1728  0.1093
32707W        W75619   6.315  25.960  27.754 -0.2212  0.3117 -0.3737
32708W        W75620   5.635  25.090  28.826  0.1105  0.2015 -0.0989
32709W        W75621   3.021  29.251  29.365  0.2622 -0.0298 -0.2326
32710W        W75622   5.780  26.491  30.269  0.2624  0.3609 -0.2307
32711W        W75623   6.422  28.288  30.709  0.1430  0.1286 -0.1966
32712W        W75624   4.930  26.798  27.666 -0.0797  0.0123 -0.3366
32713W        W75625   5.740  26.066  30.692  0.3734  0.0298  0.4999
32714W        W75626   4.555  28.600  31.851  0.3849 -0.0712 -0.0406
32715W        W75627   4.230  27.077  29.856  0.1394 -0.0834 -0.1673
32716W        W75628   8.228  29.015  27.633 -0.3913 -0.0446  0.2581
32717W        W75629   6.950  28.800  28.679  0.2317  0.2101 -0.0039
32718W        W75630   6.215  27.161  27.698  0.4085  0.3986  0.0404
32719W        W75631   4.587  26.630  28.651 -0.2756 -0.0022  0.0273
32720W        W75632   4.430  27.785  31.175  0.3378  0.0762  0.1464
32721W        W75633   4.592  28.597  30.573  0.5091 -0.1085  0.0392
32722W        W75634   4.969  25.791  27.637  0.0546  0.1643 -0.2306
32723W        W75635   7.903  26.196  31.586  0.0672  0.0252 -0.1889
32724W        W75636   4.340  27.447  29.501 -0.2639  0.2171  0.1185
32725W        W75637   6.514  25.829  30.081 -0.0064 -0.1545 -0.0649
32726W        W75638   5.563  28.214  29.974 -0.0731 -0.1485 -0.0825
32727W        W75639   5.604  28.547  30.361  0.2798  0.1060 -0.0947
32728W        W75640   7.525  27.011  26.858  0.2728 -0.1079  0.0651
32729W        W75641   4.985  27.510  29.474 -0.0584 -0.1346  0.0178
32730W        W75642   5.780  25.594  28.680 -0.3509  0.1051 -0.1843
32731W        W75643   3.494  27.544  28.212 -0.1164  0.0856  0.0354
32732W        W75644   4.250  26.647  28.284 -0.0693 -0.3620 -0.2673
32733W        W75645   7.561  28.398  31.433 -0.1257 -0.3454  0.4082
32734W        W75646   7.005  26.580  27.337  0.1324 -0.0327  0.3359
32735W        W75647   4.752  27.976  29.538  0.0566 -0.0990 -0.0832
32736W        W75648   5.827  26.547  31.350  0.2137 -0.0157  0.3744
32737W        W75649   6.541  27.118   0.352  0.1269  0.0331  0.2757
32738W        W75650   4.309  28.259  28.019 -0.4140  0.2197 -0.0473
32739W        W75651   4.436  27.559  28.465  0.0484 -0.0766 -0.2538
32740W        W75652   3.763  26.713  29.660  0.3348 -0.1221  0.1861
32741W        W75653   4.078  26.408  30.974  0.0535 -0.1455 -0.1236
32742W        W75654   5.548  27.230  30.325  0.0608 -0.0289  0.1931
32743W        W75655   7.383  25.408  28.462  0.3972 -0.2883 -0.1596
32744W        W75656   4.120  24.931  30.866  0.1998 -0.0184  0.0353
32745W        W75657   6.299  26.531  30.048  0.1196 -0.1555  0.1620
32746W        W75658   3.131  27.926  28.459  0.0604  0.0385  0.3509
32747W        W75659   7.009  27.398  29.825  0.2405 -0.1715  0.2021
32748W        W75660   5.744  26.833  27.355  0.0145  0.2138  0.0145
32749W        W75661   6.101  29.195  28.034  0.1740 -0.1868 -0.0181
32750W        W75662   4.439  25.684  30.615 -0.1175  0.0197  0.1499
32751W        W75663   4.839  24.799  29.630  0.1277  0.1274 -0.3072
32752W        W75664   4.471  25.213  30.569 -0.0127  0.1091 -0.3000
32753W        W75665   3.751  25.754  29.707  0.0278  0.2916 -0.1877
32754W        W75666   7.332  25.027  30.334 -0.0097  0.1608  0.0286
32755W        W75667   4.736  25.644  29.712  0.2694  0.2896 -0.1804
32756W        W75668   5.850  27.469  29.255 -0.1978  0.1087  0.1281
32757W        W75669   6.723  26.320  27.650 -0.1537  0.0261  0.1456
32758W        W75670   3.456  26.761  29.243 -0.1389 -0.0706  0.0897
32759W        W75671   7.008  25.551  29.999  0.0697 -0.0326 -0.3010
32760W        W75672   5.586  28.050  27.373 -0.1972 -0.0553  0.0583
32761W        W75673   7.407  29.591  30.460  0.4857 -0.0976 -0.2245
32762W        W75674   6.994  28.007  28.099  0.3950 -0.0664  0.1494
32763W        W75675   4.949  25.845  31.469 -0.0796 -0.0134  0.0362
32764W        W75676   4.404  27.347  27.588  0.4152 -0.0650 -0.1264
32765W        W75677   3.510  27.564  29.887 -0.0947 -0.0581 -0.1853
32766W        W75678   4.818  27.228  27.496 -0.0266 -0.1556  0.0436
32767W        W75679   5.586  27.912  29.170  0.0131 -0.2147  0.0566
32768W        W75680   4.799  29.205  30.164  0.2041 -0.3219  0.0579
32769W        W75681   5.113  27.942  27.281 -0.1068  0.0732 -0.2432
32770W        W75682   4.508  28.226  29.011 -0.0701  0.0682 -0.1250
32771W        W75683   5.080  25.318  28.893  0.1279  0.1889  0.0651
32772W        W75684   6.539  25.685  29.617 -0.1277  0.0360  0.0521
32773W        W75685   5.862  26.494  29.225 -0.2469  0.0662  0.0234
32774W        W75686   5.780  27.000  27.890  0.5308  0.0835  0.0764
32775W        W75687   6.237  28.323  29.263  0.4568  0.0296 -0.1498
32776W        W75688   3.510  28.830  28.512  0.1373 -0.0358  0.1378
32777W        W75689   4.085  25.663  28.603 -0.0081  0.0046  0.1611
32778W        W75690   5.948  28.373  27.622 -0.0253  0.0576 -0.0925
32779W        W75691   5.729  25.601  29.690  0.1643 -0.0196 -0.1112
32780W        W75692   4.468  26.189  30.787  0.1442 -0.0005 -0.1506
32781W        W75693   7.306  27.483  31.266  0.1288  0.0121 -0.1731
32782W        W75694   4.261  27.059  28.665  0.0644  0.0053  0.1200
32783W        W75695   3.658  29.074  30.583  0.0195 -0.0620 -0.1024
32784W        W75696   5.454  26.009  28.539 -0.1798 -0.0100 -0.1554
32785W        W75697   7.796  25.706  27.057  0.0734 -0.1415  0.0281
32786W        W75698   6.434  28.559  31.584 -0.0561  0.2499  0.0787
32787W        W75699   7.294  28.353  28.392 -0.0697 -0.1302 -0.2869
32788W        W75700   6.301  26.323  28.175  0.3358 -0.1093 -0.1136
32789W        W75701   5.445  26.020  27.684 -0.2395  0.1620  0.2754
32790W        W75702   4.060  28.406  30.569 -0.1115  0.0317 -0.0078
32791W        W75703   5.426  27.334  28.202  0.4497  0.1278 -0.1337
32792W        W75704   4.714  27.801  30.400 -0.1787 -0.3397  0.0023
32793W        W75705   6.358  26.197  26.683  0.2308  0.2732  0.0623
32794W        W75706   5.951  28.258  28.681 -0.1594 -0.0302 -0.2081
32795W        W75707   5.255  27.871  30.345  0.1148  0.0123 -0.0624
32796W        W75708   6.619  25.796  31.449  0.0671  0.1099 -0.1069
32797W        W75709   6.451  28.577  28.847 -0.0335 -0.0773 -0.0048
32798W        W75710   5.887  26.496  29.760  0.2176 -0.3786  0.0953
32799W        W75711   6.410  26.275  27.240 -0.4569 -0.3563 -0.0207
32800W        W75712   6.620  25.437  29.116 -0.1121 -0.5140  0.1147
32801W        W75713   4.791  28.816  27.010  0.0057 -0.4169 -0.0200
32802W        W75714   6.522  25.379  30.415 -0.1619  0.0765 -0.0239
32803W        W75715   6.467  24.765  31.566  0.1696 -0.0443 -0.1305
32804W        W75716   7.311  25.892  31.314 -0.0094 -0.1521  0.0154
32805W        W75717   6.980  26.626  31.921 -0.0869 -0.1682 -0.1204
32806W        W75718   5.775  27.305  27.291 -0.0428 -0.0900  0.1838
32807W        W75719   6.558  26.189  29.587  0.0594 -0.0007  0.0341
32808W        W75720   4.993  26.306  27.744 -0.0770  0.3308 -0.0391
32809W        W75721   4.820  26.460  30.429 -0.0774  0.5743  0.1417
32810W        W75722   4.521  27.371  30.811 -0.0790  0.0298  0.0320
32811W        W75723   5.115  28.776  30.431  0.0064 -0.0589  0.2872
32812W        W75724   7.732  27.095  31.347  0.4767  0.0702 -0.4334
32813W        W75725   5.355  27.137  27.646 -0.0243  0.0860  0.0942
32814W        W75726   6.159  26.797  31.649 -0.0182 -0.1063  0.1143
32815W        W75727   4.782  25.842  29.242  0.1289 -0.1000  0.2790
32816W        W75728   4.232  29.271  27.579  0.0157  0.1349 -0.0523
32817W        W75729   4.327  28.666  27.101  0.1167  0.1612  0.1160
32818W        W75730   5.415  25.137  29.797 -0.1940 -0.4782 -0.1048
32819W        W75731   6.007  27.803  28.896  0.1724 -0.0918 -0.1056
32820W        W75732   5.094  28.219  26.457 -0.0966 -0.1569 -0.0782
32821W        W75733   5.815  28.562  31.311  0.0461 -0.1595  0.3025
32822W        W75734   4.296  28.682  28.805  0.0325  0.0417 -0.2288
32823W        W75735   6.075  25.469  31.415 -0.1688 -0.0567  0.0544
32824W        W75736   2.492  29.020  29.251  0.1642 -0.2928 -0.0609
32825W        W75737   5.990  26.537  26.997 -0.0234  0.0327 -0.1451
32826W        W75738   3.853  26.373  29.318 -0.2849 -0.2194 -0.1616
32827W        W75739   6.796  26.003  29.188  0.1391 -0.4028 -0.0788
32828W        W75740   6.523  28.626  28.340  0.1617 -0.1458 -0.2350
32829W        W75741   3.790  25.156  30.483  0.4233  0.1706 -0.1718
32830W        W75742   4.977  26.679  29.001 -0.1177 -0.1977  0.0519
32831W        W75743   3.969  28.118  29.035 -0.0318 -0.3640 -0.1912
32832W        W75744   5.518  27.408  28.762  0.1123 -0.2912  0.0531
32833W        W75745   5.779  25.073  27.638 -0.2830  0.1934  0.0444
32834W        W75746   5.793  27.849  31.908  0.1705  0.2348  0.1203
32835W        W75747   4.906  27.726  31.473  0.2854 -0.2563 -0.0461
32836W        W75748   3.574  26.414  27.255 -0.0593  0.1661  0.0089
32837W        W75749   6.235  25.288  30.877 -0.1147  0.2033  0.0326
32838W        W75750   6.187  25.822  30.750 -0.0468  0.2302 -0.1724
32839W        W75751   3.189  27.709  30.374 -0.2437  0.0572 -0.0727
32840W        W75752   4.904  28.072  29.963 -0.0517  0.0150 -0.2711
32841W        W75753   5.050  28.210  29.235 -0.1682  0.0585  0.0603
32842W        W75754   3.638  27.740  29.068  0.0033  0.1817 -0.1340
32843W        W75755   4.553  27.331  31.341  0.1580  0.2089 -0.2216
32844W        W75756   7.044  28.050  30.055  0.2221 -0.1696  0.0097
32845W        W75757   5.495  25.222  29.282  0.2769  0.0610  0.0812
32846W        W75758   4.700  26.221  28.902  0.1294  0.1445 -0.0489
32847W        W75759   5.720  27.008  28.500  0.2622  0.1318 -0.0758
32848W        W75760   6.226  27.799  30.627 -0.1329 -0.0746 -0.0211
32849W        W75761   7.034  26.689  30.735  0.0478  0.1235  0.0624
32850W        W75762   3.629  27.112  31.204  0.1077  0.0088 -0.0216
32851W        W75763   5.633  26.137  29.517 -0.0100  0.0588  0.1573
32852W        W75764   6.175  27.841  29.372 -0.0322  0.1388 -0.0915
32853W        W75765   7.988  28.085  31.390 -0.1918 -0.0457  0.2030
32854W        W75766   3.853  27.388  27.633  0.2352 -0.0847 -0.0372
32855W        W75767   4.661  27.325  30.222 -0.1031 -0.2259 -0.0931
32856W        W75768   4.665  27.622  27.146 -0.1423  0.1741 -0.3731
32857W        W75769   5.414  27.345  29.805  0.0344 -0.0177 -0.0426
32858W        W75770   4.807  28.585  30.024 -0.0914  0.2238 -0.1528
32859W        W75771   2.719  28.312  28.129  0.2390  0.0355 -0.3252
32860W        W75772   4.667  27.634  29.065 -0.0964 -0.1125  0.2480
32861W        W75773   7.017  24.542  28.916 -0.0314 -0.3383  0.0425
32862W        W75774   7.450  27.202  27.369  0.1945 -0.0900 -0.1411
32863W        W75775   5.499  26.853  29.925 -0.1064  0.0538  0.1483
32864W        W75776   8.329  27.698  31.545  0.3406 -0.0944  0.2835
32865W        W75777   5.163  27.581  27.787 -0.2340 -0.0463  0.0009
32866W        W75778   6.659  26.070  31.983 -0.1256  0.0956  0.0370
32867W        W75779   6.267  27.138  30.333  0.1352  0.1448  0.0298
32868W        W75780   5.824  29.162  29.626  0.1076  0.0091 -0.0973
32869W        W75781   4.698  27.147  29.688  0.0583 -0.0419 -0.1693
32870W        W75782   4.745  28.516   0.528  0.2037 -0.1662  0.1086
32871W        W75783   3.638  27.597  30.533 -0.0713 -0.0105  0.1179
32872W        W75784   6.311  27.602  28.506  0.0116  0.0080  0.0084
32873W        W75785   5.050  26.390  28.550 -0.0415 -0.0819 -0.3570
32874W        W75786   5.027  27.187  28.982  0.3079  0.0678 -0.0400
32875W        W75787   5.981  27.357  28.186 -0.1523 -0.0949  0.0819
32876W        W75788   5.027  27.028  26.616 -0.0355 -0.0374 -0.0550
32877W        W75789   6.950  26.443  29.382  0.2359 -0.0327  0.1818
32878W        W75790   5.113  27.099  30.123 -0.3780  0.2485  0.2968
32879W        W75791   6.347  27.503  29.012 -0.1905 -0.1111  0.0664
32880W        W75792   5.385  26.534  26.894 -0.1169  0.2124  0.2171
32881W        W75793   4.747  28.153  28.138  0.0981 -0.0844 -0.1173
32882W        W75794   5.329  26.447  31.828 -0.0072  0.0743 -0.1550
32883W        W75795   7.532  25.915  30.141 -0.0910 -0.1144 -0.1505
32884W        W75796   7.115  26.035  29.638 -0.1269  0.0661  0.3314
32885W        W75797   6.552  27.175  29.944 -0.0272  0.2836 -0.0986
32886W        W75798   7.219  26.469  31.307 -0.0380 -0.4864  0.0249
32887W        W75799   5.390  27.435  31.230 -0.3368  0.4285 -0.0990
32888W        W75800   4.828  26.317  31.783  0.1618  0.4806 -0.1085
32889W        W75801   5.177  29.258  30.763 -0.0064 -0.1013 -0.1184
32890W        W75802   6.708  26.588  28.377  0.2886  0.1549 -0.0465
32891W        W75803   7.392  24.505  31.604 -0.2124  0.0841  0.1566
32892W        W75804   6.618  27.046  29.353 -0.1530  0.0271 -0.3662
32893W        W75805   5.887  26.029  26.890 -0.2985  0.3250 -0.3650
32894W        W75806   5.056  25.598  30.960  0.1018 -0.2405 -0.0896
32895W        W75807   7.442  26.809  31.639  0.1182 -0.2387 -0.1608
32896W        W75808   3.663  26.934  27.465 -0.3034 -0.1533 -0.0198
32897W        W75809   6.632  27.570   0.264  0.0355  0.0606  0.1241
32898W        W75810   4.550  27.039  27.978 -0.0049  0.0190  0.0024
32899W        W75811   6.677  27.538  30.366  0.2366  0.1925  0.1700
32900W        W75812   7.740  24.682  28.695 -0.0640 -0.2645 -0.5022
32901W        W75813   4.475  25.312  30.101 -0.1318 -0.5682  0.0832
32902W        W75814   5.089  26.606  30.846  0.1676  0.1479  0.0119
32903W        W75815   4.608  26.182  26.347 -0.0076 -0.0093 -0.3567
32904W        W75816   6.465  26.769  26.911  0.0776  0.0919  0.2626
32905W        W75817   4.688  28.521  29.456 -0.1602  0.1578  0.2794
32906W        W75818   8.100  27.855  30.947 -0.1170  0.0543  0.2473
32907W        W75819   5.886  26.111  27.922  0.2686  0.2456 -0.0716
32908W        W75820   7.364  25.884  30.634  0.3456  0.1269 -0.1175
32909W        W75821   4.796  28.572  27.860 -0.1436  0.1780  0.0518
32910W        W75822   6.242  26.846  29.613  0.2442  0.2140  0.2960
32911W        W75823   4.130  29.723  29.710 -0.1042 -0.0218 -0.0545
32912W        W75824   3.514  28.292  31.092  0.0649  0.0740 -0.2244
32913W        W75825   4.683  27.628  27.925  0.1892  0.0583  0.0439
32914W        W75826   5.562  26.580  30.801  0.2552 -0.2603 -0.0776
32915W        W75827   7.020  26.850  29.046 -0.3922  0.2154 -0.0280
32916W        W75828   6.143  25.753  28.292  0.1716  0.0238 -0.4916
32917W        W75829   6.773  26.674  30.281 -0.1677  0.1159 -0.3751
32918W        W75830   6.700  26.940  31.071  0.0079 -0.1765 -0.0823
32919W        W75831   4.953  27.607  29.933 -0.2898 -0.1347  0.3574
32920W        W75832   7.134  27.089  31.906  0.1126 -0.2460  0.2294
32921W        W75833   6.694  27.582  29.442 -0.1254  0.0162  0.3330
32922W        W75834   4.465  27.074  29.151  0.1262 -0.0258  0.1228
32923W        W75835   4.620  25.788  31.057  0.0380  0.0471 -0.1688
32924W        W75836   5.736  27.783  30.246 -0.0485  0.0539 -0.4412
32925W        W75837   5.389  27.307  29.242 -0.1655  0.0889  0.4706
32926W        W75838   5.426  26.198  29.974 -0.1325  0.2666 -0.3926
32927W        W75839   4.333  28.132  26.634  0.3971 -0.0238 -0.0158
32928W        W75840   4.600  29.444   0.374 -0.0656 -0.0901 -0.1501
32929W        W75841   4.121  27.075   0.230  0.2515 -0.3051  0.7104
32930W        W75842   3.910  30.059  29.276  0.1627  0.1670 -0.1663
32931W        W75843   6.607  28.120  29.688  0.3734 -0.0492 -0.0710
32932W        W75844   5.008  27.190  28.061  0.0461  0.1293 -0.1295
32933W        W75845   4.949  28.270  30.480 -0.2404 -0.0150  0.1131
32934W        W75846   5.473  26.458  28.756  0.0503  0.0749 -0.1887
32935W        W75847   4.889  27.939  28.680  0.1016 -0.0979 -0.0134
32936W        W75848   3.204  27.790  27.415  0.2554  0.2974  0.0229
32937W        W75849   6.464  28.144  28.420  0.1621  0.0689 -0.0481
32938W        W75850   3.848  28.781  29.615 -0.1700 -0.2725  0.0393
32939W        W75851   6.136  27.680  31.590 -0.3120  0.5402  0.0055
32940W        W75852   6.521  25.510  27.394 -0.1219 -0.3024 -0.3328
32941W        W75853   7.712  25.138  29.765  0.0856  0.0230  0.2020
32942W        W75854   6.888  25.646  27.786  0.1541  0.0027  0.1335
32943W        W75855   6.645  28.285  31.172  0.1111 -0.4004 -0.0759
32944W        W75856   6.052  26.633  28.716  0.4568  0.0303 -0.1108
32945W        W75857   4.978  25.805  28.697  0.0338  0.1665 -0.0350
32946W        W75858   3.365  27.890  31.928  0.0750  0.3423 -0.2262
32947W        W75859   7.834  25.529  31.550 -0.0479  0.0678  0.1321
32948W        W75860   3.066  28.390  30.810 -0.0297  0.2304  0.2183
32949W        W75861   7.955  28.985  28.982  0.0896 -0.2859  0.4064
32950W        W75862   4.212  26.175  28.549 -0.0091  0.2242 -0.0002
32951W        W75863   4.781  26.650  29.461  0.1449  0.1385 -0.2720
32952W        W75864   7.249  23.613  30.715 -0.1767  0.3754 -0.2749
32953W        W75865   4.889  28.449  28.605 -0.2400 -0.0235 -0.1507
32954W        W75866   6.216  26.131  30.370 -0.1685  0.1027 -0.2925
32955W        W75867   5.915  29.144  28.768  0.1888 -0.1797 -0.1357
32956W        W75868   3.298  27.488  28.711 -0.0410  0.1921 -0.2295
32957W        W75869   4.401  28.938  29.643  0.0389 -0.0049 -0.2530
32958W        W75870   3.040  24.739  28.349  0.0547  0.0434  0.0177
32959W        W75871   6.443  26.229  28.678 -0.0776 -0.3352  0.1902
32960W        W75872   4.113  27.945  30.319 -0.0271  0.1068 -0.0205
32961W        W75873   8.186  24.977  30.746 -0.0550 -0.0145 -0.0195
32962W        W75874   4.244  26.623  29.706  0.1821  0.0171  0.0759
32963W        W75875   7.052  24.533  30.162  0.0620  0.0813  0.0618
32964W        W75876   6.966  27.103  30.181 -0.0982 -0.2944  0.1439
32965W        W75877   4.795  26.928  30.525 -0.0460  0.2534  0.1156
32966W        W75878   6.115  26.616  27.832  0.2052 -0.1687 -0.0449
32967W        W75879   6.606  27.812  30.903  0.1906  0.0892  0.1026
32968W        W75880   6.689  27.257  26.699 -0.1995 -0.1039 -0.0246
32969W        W75881   5.832  30.031  31.012  0.3259  0.1077 -0.0120
32970W        W75882   4.108  25.739  27.720 -0.0172 -0.0320  0.0079
32971W        W75883   5.987  25.429  27.317  0.1497 -0.1760 -0.1001
32972W        W75884   3.903  28.217  29.660  0.0407  0.1327 -0.1706
32973W        W75885   5.242  26.944  28.619 -0.0075  0.1792  0.2105
32974W        W75886   6.299  27.885   0.056  0.0009  0.1081  0.0549
32975W        W75887   4.908  25.776  27.169  0.1418 -0.1818 -0.2183
32976W        W75888   7.115  28.203  27.484 -0.0096 -0.0035  0.2589
32977W        W75889   6.999  25.511  29.453 -0.0054  0.1782  0.0937
32978W        W75890   5.093  28.676  27.415  0.3367  0.0534  0.3458
32979W        W75891   6.676  27.259  28.530  0.0554 -0.2459  0.1807
32980W        W75892   6.148  29.628  30.894  0.2296  0.1035 -0.1012
32981W        W75893   5.054  26.542  29.895 -0.2659 -0.0263 -0.1455
32982W        W75894   5.134  28.462  29.702 -0.3513  0.1708 -0.0403
32983W        W75895   6.713  28.671  29.566 -0.0921  0.2222 -0.0559
32984W        W75896   4.731  24.519  28.275 -0.1535  0.0404  0.1801
32985W        W75897   4.853  26.201  31.092 -0.2400 -0.0288 -0.0608
32986W        W75898   3.596  28.717  30.157  0.1992 -0.0253 -0.1662
32987W        W75899   6.562  26.883  28.843 -0.0984 -0.0831 -0.2587
32988W        W75900   7.704  25.058  30.745 -0.1408 -0.1527 -0.0570
32989W        W75901   5.124  28.395  26.953 -0.0579  0.5205 -0.1739
32990W        W75902   7.610  23.699  31.975 -0.0399  0.0147  0.0760
32991W        W75903   4.746  29.051  30.720 -0.0043  0.1017  0.0233
32992W        W75904   5.365  29.307  29.684 -0.0797  0.2001 -0.0572
32993W        W75905   2.760  27.858  29.268 -0.0475  0.2463 -0.1054
32994W        W75906   6.923  26.037  30.393 -0.2320 -0.1120  0.2185
32995W        W75907   5.896  28.717  29.033 -0.2794  0.0323 -0.1928
32996W        W75908   4.821  28.008  26.869  0.3141  0.1656  0.1009
32997W        W75909   5.202  28.908  29.967 -0.3261  0.1341  0.0178
32998W        W75910   4.865  26.606  28.179 -0.1562  0.0126 -0.0504
32999W        W75911   6.499  28.076  30.263 -0.1546 -0.1595  0.4612
33000W        W75912   5.289  26.168  30.574  0.0857  0.1049  0.0663
33001W        W75913   7.871  25.480  28.126 -0.4305 -0.3223  0.2658
33002W        W75914   8.023  24.948  29.042 -0.0119  0.0689 -0.1324
33003W        W75915   4.927  27.768  30.932  0.0311  0.0959 -0.0181
33004W        W75916   4.078  26.952  27.815  0.0964 -0.1160  0.0229
33005W        W75917   4.693  28.057  27.656 -0.1607 -0.1987  0.1580
33006W        W75918   5.328  27.939  29.636  0.2236 -0.0468 -0.0216
33007W        W75919   5.467  25.656  31.427 -0.2531  0.1688 -0.0692
33008W        W75920   5.295  26.687  30.373  0.4136 -0.0613 -0.2139
33009W        W75921   3.977  26.160  29.753  0.1821  0.3647  0.0177
33010W        W75922   4.091  26.101  28.068 -0.2232 -0.2292 -0.1186
33011W        W75923   7.477  27.968  28.120 -0.1025 -0.1476  0.0370
33012W        W75924   5.217  25.648  29.412 -0.0304  0.3375 -0.1869
33013W        W75925   3.913  25.250  29.724 -0.2868  0.0940  0.3195
33014W        W75926   6.051  28.815  28.438  0.1837  0.2079 -0.1213
33015W        W75927   6.214  29.483  28.466 -0.2620  0.2095  0.2234
33016W        W75928   6.085  25.964  29.810 -0.0376 -0.1794  0.2182
33017W        W75929   6.526  28.781   0.431  0.2971  0.0787  0.0591
33018W        W75930   3.556  27.837  27.825  0.0581  0.1934  0.1791
33019W        W75931   5.916  27.394  30.576  0.0483  0.1032 -0.0396
33020W        W75932   5.453  27.063  30.739 -0.0120 -0.0150 -0.0841
33021W        W75933   4.532  26.513  27.728  0.0552 -0.0178 -0.0448
33022W        W75934   4.826  25.947  30.591  0.0688  0.0120  0.0395
33023W        W75935   5.011  27.489  28.453 -0.1666  0.1450  0.1342
33024W        W75936   7.809  27.503  27.558 -0.1743 -0.1409  0.0496
33025W        W75937   5.888  26.901  30.580 -0.0648 -0.0814  0.1358
33026W        W75938   5.850  28.322   0.188  0.0048  0.3161  0.2210
33027W        W75939   2.662  25.114  29.769  0.4567 -0.1436 -0.0930
33028W        W75940   6.680  27.245  27.267 -0.1338  0.3169 -0.1468
33029W        W75941   5.450  28.388  30.830  0.0596 -0.2096 -0.0756
33030W        W75942   7.509  29.265  28.953  0.1085  0.2386  0.0929
33031W        W75943   7.043  25.409  30.582 -0.1710 -0.2700 -0.1789
33032W        W75944   5.873  26.578  28.266 -0.3614  0.2438  0.1805
33033W        W75945   4.867  25.145  30.911 -0.1195 -0.2742 -0.1924
33034W        W75946   3.857  27.752   0.008 -0.2538 -0.1291  0.0871
33035W        W75947   7.248  26.270  30.056  0.2115 -0.1507  0.0403
33036W        W75948   3.815  24.276  28.436 -0.0118  0.1859 -0.0905
33037W        W75949   6.222  25.449  27.788  0.0232  0.1136 -0.0475
33038W        W75950   6.982  27.035  27.558  0.1966 -0.0294  0.0494
33039W        W75951   4.073  26.585  28.829  0.3000  0.0859 -0.2141
33040W        W75952   5.414  26.609  27.627 -0.2394 -0.1323  0.1389
33041W        W75953   5.303  28.032  31.190 -0.0323  0.1123 -0.1204
33042W        W75954   5.453  29.098  29.041  0.1677  0.1897 -0.0485
33043W        W75955   8.306  26.950   0.153  0.2170  0.1032  0.0151
33044W        W75956   3.743  26.267  28.404 -0.0424 -0.1288  0.0772
33045W        W75957   7.743  25.949  27.962  0.3424 -0.0529 -0.1616
33046W        W75958   6.056  27.601  31.083 -0.2548 -0.0305  0.0198
33047W        W75959   4.976  29.074  31.261 -0.1849  0.1630  0.1178
33048W        W75960   6.753  27.421  31.236  0.1801 -0.1283  0.0738
33049W        W75961   6.449  28.020  28.953 -0.0251 -0.0789  0.1073
33050W        W75962   4.985  25.998  30.122 -0.1072  0.1145  0.0155
33051W        W75963   4.185  27.189  30.336  0.0593  0.1213 -0.0629
33052W        W75964   5.035  26.129  29.604  0.0589 -0.2883  0.2938
33053W        W75965   5.703  27.005  29.510 -0.0676  0.1234 -0.1504
33054W        W75966   4.375  26.445  29.217  0.3548 -0.0478 -0.2393
33055W        W75967   4.995  24.814  29.072 -0.0239 -0.0205 -0.1263
33056W        W75968   4.836  28.199  31.142  0.1362  0.0702 -0.3934
33057W        W75969   6.092  28.322  30.280  0.1413 -0.0512 -0.1765
33058W        W75970   5.626  26.106  31.529 -0.2758  0.1879 -0.0063
33059W        W75971   5.775  27.252   0.057 -0.0167 -0.1776  0.2536
33060W        W75972   4.321  27.095  31.771 -0.2735  0.1367  0.0338
33061W        W75973   3.677  27.294   0.141  0.0534 -0.0126  0.1100
33062W        W75974   2.868  28.202  31.563  0.0998 -0.0025 -0.0209
33063W        W75975   4.266  28.140  31.481  0.1142  0.2933  0.2405
33064W        W75976   6.854  26.653   0.481  0.1156  0.3232 -0.1688
33065W        W75977   6.858  24.611  31.828 -0.1442  0.3037 -0.1052
33066W        W75978   6.100  27.952   0.592  0.1129 -0.1920 -0.1500
33067W        W75979   5.369  27.606  31.709 -0.0563 -0.0272 -0.0683
33068W        W75980   5.611  27.918   1.146 -0.3825  0.3319 -0.1562
33069W        W75981   4.046  25.919  30.963 -0.4283  0.3070 -0.1184
33070W        W75982   7.751  26.801   0.906 -0.0110  0.0784 -0.0472
33071W        W75983   5.478  26.921  31.197 -0.3703  0.0399  0.1335
33072W        W75984   6.274  25.829   0.460  0.0259  0.2577 -0.2509
33073W        W75985   4.478  28.281  30.231 -0.1411 -0.1237  0.0681
33074W        W75986   3.527  26.660  31.909 -0.2216  0.0161 -0.0463
33075W        W75987   5.332  28.499  31.347 -0.0550 -0.0403  0.0564
33076W        W75988   3.861  24.952  31.280  0.0598 -0.0732  0.0684
33077W        W75989   1.799  27.228  31.742 -0.4192  0.0704 -0.2066
33078W        W75990   4.940  24.633   0.955 -0.0027  0.1637  0.0162
33079W        W75991   3.477  29.476   1.064 -0.3622 -0.0337 -0.1780
33080W        W75992   6.866  25.447  31.077  0.1694  0.0730 -0.2741
33081W        W75993   5.846  26.029   0.593 -0.2242 -0.0539  0.0858
33082W        W75994   6.603  26.217   0.476  0.1805 -0.1233 -0.0927
33083W        W75995   5.352  26.042  31.078  0.0777 -0.1690  0.0560
33084W        W75996   4.782  28.119  31.773  0.0630  0.3784 -0.0728
33085W        W75997   4.379  28.863  30.253 -0.2683  0.1453  0.1745
33086W        W75998   5.685  27.817  31.401  0.1513 -0.0446 -0.3439
33087W        W75999   6.377  27.329  30.826 -0.1625  0.0793  0.0268
33088W        W76000   5.778  28.687  31.846  0.2539  0.1379  0.2749
33089W        W76001   5.240  27.202   0.070  0.1308 -0.0621 -0.3534
33090W        W76002   6.138  27.408   0.397  0.3435  0.4148  0.3038
33091W        W76003   6.115  26.388  30.767 -0.1780 -0.0141  0.0127
33092W        W76004   4.239  26.613   0.432 -0.0993  0.0525 -0.1363
33093W        W76005   4.383  28.031   0.111 -0.0401 -0.1318 -0.5938
33094W        W76006   4.296  28.643   0.326  0.3129 -0.0903  0.0128
33095W        W76007   5.826  27.432   1.275 -0.2204 -0.2317 -0.2337
33096W        W76008   6.322  27.277  31.376 -0.1097  0.1075 -0.1131
33097W        W76009   5.015  27.219  31.007 -0.1428 -0.1221  0.0216
33098W        W76010   8.067  27.105  31.768  0.3354  0.0128  0.1465
33099W        W76011   5.934  26.522   1.178  0.0622 -0.0844 -0.0797
33100W        W76012   5.345  25.650  30.482 -0.3368  0.0789  0.0792
33101W        W76013   6.785  29.090   0.815  0.1385 -0.0009 -0.1132
33102W        W76014   4.455  27.712  31.708  0.2581  0.0631 -0.1087
33103W        W76015   4.979  26.789  31.797  0.0819  0.3904  0.1190
33104W        W76016   6.695  25.463   0.018  0.1576  0.0876  0.4585
33105W        W76017   5.983  29.006   0.981 -0.0185  0.1695 -0.1093
33106W        W76018   6.975  28.557   0.530 -0.3094 -0.0058 -0.0332
33107W        W76019   3.588  28.583  30.672 -0.2156 -0.1950 -0.1022
33108W        W76020   5.693  29.278  31.671  0.1620  0.1338  0.1428
33109W        W76021   6.665  26.501  31.521  0.3682  0.1679  0.0204
33110W        W76022   6.288  25.780  31.838 -0.3281 -0.2180 -0.1004
33111W        W76023   5.636  28.551   0.857 -0.2355 -0.2773  0.0475
33112W        W76024   6.323  26.563  31.148 -0.1889  0.1135 -0.2468
33113W        W76025   6.746  26.454   0.943 -0.0042  0.1543  0.1201
33114W        W76026   7.667  27.460   0.979  0.5181  0.0488  0.0636
33115W        W76027   3.737  28.782   0.173  0.2340  0.1077 -0.1812
33116W        W76028   5.298  27.966   0.110  0.1152  0.3495  0.0550
33117W        W76029   4.300  27.511   0.137  0.0560 -0.0006  0.0176
33118W        W76030   1.824  27.809   1.222 -0.1095 -0.3379 -0.3101
33119W        W76031   3.198  27.402  31.947  0.0723  0.2565  0.3661
33120W        W76032   3.066  27.829   0.836 -0.1166 -0.4303  0.2764
33121W        W76033   3.948  26.458  31.505 -0.0160  0.5220  0.2387
33122W        W76034   7.729  28.311  31.972  0.1534 -0.0061 -0.2358
33123W        W76035   6.270  27.496   1.473  0.0681  0.0969  0.2313
33124W        W76036   6.331  27.309   1.020  0.3523  0.0813  0.3500
33125W        W76037   4.423  31.714  17.233 -0.3612 -0.1933  0.3076
33126W        W76038   4.770  30.376  17.506  0.2346 -0.2372  0.0799
33127W        W76039   6.769  30.617  16.492  0.1190 -0.1396  0.0554
33128W        W76040   6.815  30.199  16.759  0.3210 -0.1113 -0.0396
33129W        W76041   4.390  28.862  16.695  0.0595 -0.1126  0.1872
33130W        W76042   7.645  33.363  16.654  0.1462 -0.1005  0.1032
33131W        W76043   3.888  28.776  19.948  0.0587  0.1834 -0.2898
33132W        W76044   7.973  32.515  17.155 -0.3380  0.3029  0.0752
33133W        W76045   6.754  32.603  18.908 -0.0336 -0.0445 -0.0162
33134W        W76046   6.700  31.132  15.788  0.1340 -0.0489  0.0412
33135W        W76047   5.623  29.865  17.424 -0.0437 -0.2621  0.1509
33136W        W76048   4.880  32.089  18.160 -0.2431  0.0345 -0.0667
33137W        W76049   5.291  28.723  17.347  0.1821  0.3875 -0.0055
33138W        W76050   3.442  29.834  17.164 -0.1624 -0.3285  0.0018
33139W        W76051   7.464  31.782  18.373 -0.0655 -0.2977 -0.0130
33140W        W76052   3.666  31.952  15.671  0.0045 -0.1024 -0.0098
33141W        W76053   5.147  29.902  17.955  0.1222  0.1123 -0.2045
33142W        W76054   5.446  30.074  16.297 -0.3794  0.0410 -0.2504
33143W        W76055   5.321  32.407  16.739  0.0848 -0.1912  0.0578
33144W        W76056   5.294  29.331  18.126 -0.1809  0.1058  0.1598
33145W        W76057   3.796  28.008  19.912 -0.1357  0.1874 -0.0469
33146W        W76058   4.985  31.012  16.495 -0.1243  0.0816 -0.2395
33147W        W76059   3.860  29.276  16.069  0.1056  0.1122 -0.1172
33148W        W76060   2.790  31.653  18.317  0.0079 -0.0542 -0.1045
33149W        W76061   3.746  30.769  18.610  0.0198  0.0617 -0.0292
33150W        W76062   6.344  29.815  17.045  0.1140 -0.2046 -0.2995
33151W        W76063   6.475  29.958  18.402  0.0834 -0.0393  0.1495
33152W        W76064   6.000  33.084  16.750  0.2167  0.3274 -0.0008
33153W        W76065   5.824  31.804  17.596 -0.1304 -0.2107 -0.0605
33154W        W76066   6.201  27.652  20.711 -0.0422 -0.0888  0.1103
33155W        W76067   2.849  31.822  17.356  0.0053  0.1132  0.4703
33156W        W76068   2.499  32.990  18.363  0.1000 -0.0553  0.2128
33157W        W76069   4.670  33.937  16.856  0.1122 -0.0348  0.1329
33158W        W76070   8.087  30.781  16.454 -0.0640  0.0786  0.0369
33159W        W76071   6.457  31.686  17.844  0.1393  0.0857 -0.0015
33160W        W76072   5.695  34.387  21.108  0.3557 -0.2031  0.6362
33161W        W76073   3.313  31.516  16.600 -0.0505  0.2593  0.2316
33162W        W76074   4.349  32.059  20.758  0.2469 -0.2263 -0.0659
33163W        W76075   4.556  32.971  18.515 -0.0231  0.2335 -0.2343
33164W        W76076   6.717  30.278  17.931  0.2574 -0.0958  0.0595
33165W        W76077   6.702  31.628  16.682  0.2147  0.0807 -0.2695
33166W        W76078   5.445  32.704  16.140 -0.1059 -0.0971 -0.2587
33167W        W76079   6.364  31.010  17.218 -0.1844 -0.0395  0.0134
33168W        W76080   4.708  31.703  20.271 -0.2258  0.0664 -0.0748
33169W        W76081   4.918  32.601  17.290 -0.0495  0.0803 -0.0240
33170W        W76082   8.238  29.537  19.825 -0.1612  0.0266 -0.0026
33171W        W76083   4.143  30.263  16.715 -0.2903  0.1331  0.1379
33172W        W76084   7.449  30.044  16.314 -0.0716  0.0985  0.0712
33173W        W76085   5.934  29.434  17.142  0.0777 -0.1235  0.1368
33174W        W76086   7.543  30.712  15.517 -0.1036 -0.0407 -0.0532
33175W        W76087   4.874  29.157  17.374 -0.1203  0.6774 -0.0762
33176W        W76088   5.371  33.008  17.050 -0.0017  0.0236 -0.0490
33177W        W76089   6.056  29.694  18.067  0.1465 -0.0254  0.0194
33178W        W76090   6.037  32.085  19.180  0.1161 -0.0254 -0.0518
33179W        W76091   5.943  30.752  17.334 -0.1124  0.2383 -0.0992
33180W        W76092   6.131  30.050  18.841 -0.1307  0.2532 -0.2083
33181W        W76093   4.422  32.281  17.358 -0.0511  0.0707  0.0003
33182W        W76094   4.374  32.718  17.633 -0.0265  0.0104  0.1342
33183W        W76095   7.539  31.570  16.823  0.2570  0.5784  0.0090
33184W        W76096   8.238  32.873  17.373  0.0902 -0.0921 -0.0418
33185W        W76097   4.827  32.925  16.440 -0.1788 -0.0565 -0.2672
33186W        W76098   3.998  31.061  17.825  0.1818  0.2443 -0.0804
33187W        W76099   3.708  31.760  18.574 -0.0701  0.1660  0.1404
33188W        W76100   5.260  31.205  19.359  0.0190  0.3081  0.2443
33189W        W76101   6.016  29.826  16.176 -0.1538 -0.0179  0.0010
33190W        W76102   6.323  30.834  19.197  0.0554  0.0288 -0.0540
33191W        W76103   4.553  32.603  19.393 -0.2153 -0.1301  0.1122
33192W        W76104   7.207  30.167  18.013  0.0877 -0.0933 -0.1972
33193W        W76105   4.244  29.893  17.162  0.0589  0.0901  0.1487
33194W        W76106   7.240  30.476  16.503 -0.0743  0.1153 -0.0487
33195W        W76107   5.153  29.775  15.918 -0.1064  0.0907 -0.0126
33196W        W76108   4.891  30.375  18.505  0.0736 -0.0221  0.0637
33197W        W76109   5.846  29.136  19.298  0.0708 -0.4120  0.1455
33198W        W76110   6.081  30.740  17.838  0.0837 -0.3164 -0.1348
33199W        W76111   5.166  31.364  17.115 -0.2570  0.1142  0.0813
33200W        W76112   6.192  31.788  20.355 -0.0140 -0.0357 -0.1506
33201W        W76113   7.028  31.341  16.888  0.2374  0.1579 -0.2027
33202W        W76114   5.092  32.405  16.307  0.0039  0.3640 -0.0777
33203W        W76115   6.163  29.701  20.070 -0.2437 -0.0557 -0.1239
33204W        W76116   4.938  32.158  19.037 -0.2161 -0.2328 -0.0260
33205W        W76117   3.220  32.458  16.713  0.1989 -0.0149  0.1725
33206W        W76118   4.438  31.147  17.530 -0.1444  0.0228  0.1056
33207W        W76119   5.263  30.732  16.922 -0.0608  0.0276  0.0787
33208W        W76120   4.762  28.526  19.769  0.0853 -0.1708 -0.2273
33209W        W76121   5.498  31.016  18.474  0.0764 -0.1864 -0.0573
33210W        W76122   7.372  30.992  17.029 -0.1939 -0.0259  0.2337
33211W        W76123   2.546  31.248  18.158 -0.2068  0.0580  0.0026
33212W        W76124   6.795  30.149  19.157  0.1737  0.3238  0.4074
33213W        W76125   4.168  32.825  16.363  0.3128  0.2231 -0.1817
33214W        W76126   7.195  31.478  16.438  0.0266  0.0785  0.1649
33215W        W76127   6.229  30.792  18.434  0.1840 -0.2321  0.3748
33216W        W76128   5.119  33.433  16.718 -0.2062  0.0697  0.1718
33217W        W76129   3.449  30.573  19.493  0.1192 -0.0411 -0.0599
33218W        W76130   4.187  30.219  18.016 -0.0280  0.3210  0.0513
33219W        W76131   4.172  29.738  19.613 -0.2647  0.1213  0.1831
33220W        W76132   3.916  27.997  18.151 -0.0718  0.2672 -0.1681
33221W        W76133   5.799  30.616  18.232  0.0843  0.0159 -0.3525
33222W        W76134   4.104  29.233  16.554 -0.3264 -0.0147  0.0356
33223W        W76135   6.165  30.171  18.077  0.1964  0.0865 -0.0862
33224W        W76136   4.688  30.127  17.982  0.1768  0.1412 -0.1115
33225W        W76137   3.904  30.391  16.206 -0.1036  0.1292  0.1090
33226W        W76138   9.188  30.342  19.384 -0.1239  0.1392  0.2002
33227W        W76139   5.121  32.829  15.483 -0.3444  0.0545  0.0195
33228W        W76140   5.771  31.641  19.042  0.1217  0.0816  0.3974
33229W        W76141   6.680  32.422  16.155  0.0926 -0.0805 -0.0660
33230W        W76142   5.464  29.224  19.581 -0.0691  0.0099 -0.0259
33231W        W76143   5.802  28.953  17.233  0.0219 -0.1728  0.0766
33232W        W76144   4.441  32.752  17.145  0.1326  0.1638  0.3047
33233W        W76145   5.767  33.188  16.284  0.1650 -0.0348  0.2891
33234W        W76146   4.718  29.721  16.175  0.0234  0.0314 -0.1445
33235W        W76147   8.721  31.568  18.738  0.2779  0.0240  0.2642
33236W        W76148   6.913  31.747  17.589 -0.2674  0.1689  0.1001
33237W        W76149   3.146  31.431  17.669 -0.0108 -0.1551 -0.2507
33238W        W76150   6.192  30.064  19.688 -0.2456  0.2351  0.1249
33239W        W76151   5.388  31.777  18.672  0.1158  0.1422  0.0936
33240W        W76152   6.912  30.435  18.393  0.1018 -0.1068 -0.1975
33241W        W76153   4.089  28.570  17.448 -0.0065 -0.3414  0.1552
33242W        W76154   7.118  32.107  18.018 -0.1380  0.0378 -0.1990
33243W        W76155   4.432  31.308  15.598 -0.0651  0.0921 -0.4653
33244W        W76156   4.708  31.598  16.441  0.0412 -0.1167  0.0714
33245W        W76157   6.647  32.739  17.632 -0.1037  0.1237  0.4214
33246W        W76158   7.093  29.317  17.826  0.0115  0.2264 -0.1955
33247W        W76159   4.449  30.989  19.503 -0.0735  0.0412 -0.3122
33248W        W76160   5.516  29.682  19.379  0.0934 -0.0472  0.2239
33249W        W76161   4.312  29.472  16.146 -0.2245  0.2370 -0.1328
33250W        W76162   3.605  32.275  17.438  0.1151  0.0387  0.1806
33251W        W76163   5.602  28.466  17.618 -0.0713 -0.3072  0.0791
33252W        W76164   7.843  30.814  17.498 -0.1502 -0.0159 -0.1399
33253W        W76165   5.845  30.214  18.503 -0.1714  0.2886 -0.2205
33254W        W76166   7.896  31.275  17.664 -0.2185 -0.1118  0.0522
33255W        W76167   6.237  30.688  15.741  0.1089  0.0408  0.4325
33256W        W76168   5.824  29.992  16.931 -0.0002  0.1985  0.0632
33257W        W76169   4.837  31.421  17.894  0.6139  0.1581 -0.0755
33258W        W76170   5.922  31.127  18.141 -0.2845 -0.0703 -0.0650
33259W        W76171   6.637  31.103  16.762  0.1574  0.0746 -0.2996
33260W        W76172   6.469  30.955  16.253  0.1072  0.0586  0.1509
33261W        W76173   7.676  32.687  16.293 -0.0614 -0.2295 -0.1372
33262W        W76174   3.494  31.209  18.494  0.1287 -0.2882 -0.1230
33263W        W76175   5.134  30.297  18.947 -0.2949 -0.1454  0.1702
33264W        W76176   5.842  32.133  17.106  0.1376 -0.4185  0.0683
33265W        W76177   4.750  29.178  18.889 -0.1065  0.0006 -0.0245
33266W        W76178   4.980  30.247  16.004  0.1550 -0.1101  0.4017
33267W        W76179   5.442  30.318  16.738 -0.3030  0.0513 -0.3304
33268W        W76180   2.780  32.322  16.547  0.1571 -0.1427  0.1960
33269W        W76181   7.987  30.205  18.549 -0.0361  0.2856  0.1147
33270W        W76182   5.563  30.197  18.059 -0.0244  0.0959 -0.1804
33271W        W76183   4.340  28.744  19.601  0.2273 -0.0724 -0.2056
33272W        W76184   5.218  29.941  20.004  0.1718 -0.2139 -0.1853
33273W        W76185   6.606  30.627  17.017  0.2751  0.2209 -0.0392
33274W        W76186   5.617  30.375  17.246  0.3446 -0.1958  0.0400
33275W        W76187   3.748  30.615  17.696 -0.1607  0.2378  0.1118
33276W        W76188   6.937  29.627  19.259 -0.0712 -0.0068  0.3211
33277W        W76189   4.762  31.168  16.903  0.1259 -0.0014 -0.1170
33278W        W76190   3.459  31.465  19.066  0.2097 -0.1012 -0.0484
33279W        W76191   7.503  32.118  17.021  0.0129 -0.0131  0.1320
33280W        W76192   5.925  30.263  17.653  0.2311  0.0878  0.4628
33281W        W76193   5.700  30.074  19.753 -0.1433 -0.2571  0.1394
33282W        W76194   4.938  30.104  16.539 -0.3041 -0.0151 -0.3014
33283W        W76195   5.630  33.677  17.528  0.0425  0.1682  0.2650
33284W        W76196   5.710  31.591  16.448  0.1080  0.2091  0.1551
33285W        W76197   5.279  30.180  17.566  0.0757 -0.1737  0.0099
33286W        W76198   4.431  31.097  18.076  0.1557  0.1479  0.0633
33287W        W76199   4.310  30.754  16.916 -0.1547 -0.0722  0.1507
33288W        W76200   6.170  31.390  18.706  0.2047  0.2260  0.0664
33289W        W76201   4.991  33.325  16.166 -0.1507  0.1090  0.2076
33290W        W76202   7.343  29.286  19.225  0.1794  0.0956  0.0166
33291W        W76203   4.324  33.097  16.770  0.1717 -0.0129 -0.0504
33292W        W76204   4.745  29.775  16.817  0.3150 -0.0819 -0.3373
33293W        W76205   3.346  30.213  17.618  0.1566 -0.0681  0.4733
33294W        W76206   5.399  27.977  17.950 -0.2087  0.1123 -0.0829
33295W        W76207   7.481  31.588  15.673  0.0804 -0.5529 -0.1148
33296W        W76208   4.334  28.897  18.968  0.2287 -0.1603 -0.1537
33297W        W76209   6.235  31.196  17.735  0.0921  0.3728  0.1714
33298W        W76210   2.463  32.017  18.675  0.0176 -0.0134  0.2411
33299W        W76211   5.237  32.356  18.022 -0.0080 -0.0671  0.3794
33300W        W76212   6.257  30.296  16.196 -0.1425 -0.0100  0.1439
33301W        W76213   6.404  33.118  17.879  0.1674 -0.0353  0.2672
33302W        W76214   5.285  32.541  18.955 -0.0025  0.1139 -0.3865
33303W        W76215   3.540  30.892  18.104 -0.0314 -0.1018 -0.2614
33304W        W76216   7.079  30.026  19.667 -0.1296  0.1027  0.1044
33305W        W76217   6.956  31.578  18.105  0.1317 -0.2224 -0.0907
33306W        W76218   3.558  31.067  17.553 -0.1093 -0.1558 -0.2275
33307W        W76219   4.947  33.263  18.310  0.1749  0.0682 -0.1929
33308W        W76220   3.756  29.458  17.325 -0.1983  0.2121 -0.0729
33309W        W76221   4.246  32.512  16.734  0.1953 -0.5806 -0.0931
33310W        W76222   4.948  28.387  20.299 -0.0871 -0.2745  0.1599
33311W        W76223   6.825  30.900  19.234  0.0436 -0.0714 -0.2705
33312W        W76224   5.286  29.150  17.647  0.0896  0.1293  0.1822
33313W        W76225   4.346  29.469  17.508 -0.0719 -0.0196 -0.0789
33314W        W76226   5.321  30.579  18.338 -0.0906 -0.3182  0.0870
33315W        W76227   7.161  30.668  17.952  0.1844  0.2274  0.0090
33316W        W76228   6.385  29.747  19.288 -0.0870  0.0345  0.2589
33317W        W76229   5.216  31.646  20.371 -0.2851  0.1134 -0.2380
33318W        W76230   5.655  29.662  18.499  0.2581  0.2127 -0.1887
33319W        W76231   7.542  33.160  15.942  0.0441  0.2011 -0.0129
33320W        W76232   5.974  30.561  19.614  0.3676  0.1281  0.0461
33321W        W76233   4.904  31.687  17.436  0.1922  0.1774 -0.0726
33322W        W76234   4.026  32.095  16.989  0.0264  0.0030 -0.2453
33323W        W76235   4.952  32.014  16.566  0.0299  0.1817  0.0630
33324W        W76236   5.438  28.980  20.554  0.0291 -0.2217  0.4232
33325W        W76237   4.034  30.722  18.160  0.3718  0.0469  0.0319
33326W        W76238   4.999  31.738  16.042  0.0080  0.0661 -0.0439
33327W        W76239   3.170  33.178  19.923  0.1333 -0.5186 -0.3142
33328W        W76240   6.617  31.506  17.229 -0.0891  0.0255 -0.1581
33329W        W76241   6.109  31.444  17.347 -0.2055 -0.1032  0.2011
33330W        W76242   6.501  30.609  17.552  0.2209 -0.1368  0.0287
33331W        W76243   7.767  30.435  18.899  0.1012  0.2591  0.0002
33332W        W76244   6.391  31.575  15.908 -0.1312  0.0180  0.0498
33333W        W76245   6.648  29.569  18.774 -0.0138  0.1830  0.1243
33334W        W76246   4.371  29.987  17.639 -0.1125  0.2562 -0.0524
33335W        W76247   8.158  32.735  16.324  0.2809  0.1946 -0.1092
33336W        W76248   3.934  30.136  19.996  0.2781 -0.2270 -0.0063
33337W        W76249   5.636  31.425  20.850  0.0003  0.1610  0.2576
33338W        W76250   4.082  32.335  17.719  0.0268 -0.0802 -0.2686
33339W        W76251   5.508  29.928  18.956  0.2024  0.1253 -0.0689
33340W        W76252   3.875  30.022  17.665 -0.2957  0.2749 -0.0686
33341W        W76253   4.320  29.842  20.126 -0.2975  0.0811  0.0800
33342W        W76254   7.563  31.248  19.889  0.3937  0.1497 -0.4216
33343W        W76255   5.757  31.242  17.643 -0.0022  0.1459  0.2404
33344W        W76256   7.604  32.019  17.935 -0.0625  0.1912  0.0357
33345W        W76257   5.061  30.781  19.519 -0.2063  0.2521  0.0282
33346W        W76258   5.158  30.653  17.422  0.2596 -0.4461  0.2500
33347W        W76259   7.146  30.964  16.614  0.4261 -0.1646  0.2051
33348W        W76260   5.351  31.784  16.788 -0.1391  0.0657  0.0960
33349W        W76261   4.206  29.279  19.372 -0.1987 -0.2213  0.3510
33350W        W76262   8.285  32.148  17.449  0.1211  0.1039  0.1457
33351W        W76263   6.911  30.462  17.408  0.1686  0.0119 -0.1950
33352W        W76264   6.344  29.009  17.394  0.0307  0.1202  0.2184
33353W        W76265   5.553  30.293  20.253 -0.0254  0.3255 -0.1415
33354W        W76266   6.660  29.859  20.263  0.1699 -0.1347  0.1902
33355W        W76267   4.385  29.535  18.952  0.1325  0.1818  0.1950
33356W        W76268   5.481  33.186  18.441 -0.2134  0.0948  0.2258
33357W        W76269   8.495  31.065  15.394 -0.0330  0.5851  0.2557
33358W        W76270   8.156  30.325  18.101  0.0893  0.1192 -0.3095
33359W        W76271   8.380  31.673  18.328 -0.2778 -0.0490 -0.0580
33360W        W76272   6.753  29.761  15.721  0.3472 -0.3292  0.2582
33361W        W76273   5.160  29.379  18.628  0.1257  0.4496  0.1306
33362W        W76274   4.951  31.107  20.360  0.0706  0.0807 -0.1588
33363W        W76275   4.357  28.531  16.265  0.1271 -0.0953  0.0556
33364W        W76276   6.267  30.002  20.679  0.1197  0.0140  0.2166
33365W        W76277   5.319  31.424  15.813 -0.1701 -0.1434  0.0273
33366W        W76278   6.228  32.126  17.869 -0.0043  0.0025 -0.2275
33367W        W76279   4.294  30.478  17.337  0.2020  0.2031  0.4658
33368W        W76280   4.159  29.398  18.533  0.1443 -0.2880 -0.0183
33369W        W76281   4.464  32.879  19.825  0.1093  0.0409  0.0493
33370W        W76282   3.830  29.679  16.892 -0.0184  0.2129  0.0522
33371W        W76283   5.884  31.159  17.024 -0.2539  0.1408 -0.1537
33372W        W76284   5.270  31.367  17.583  0.4535  0.4664  0.1958
33373W        W76285   6.473  31.262  21.200 -0.3268  0.1636 -0.2941
33374W        W76286   4.817  28.783  16.359 -0.0030 -0.0035  0.1776
33375W        W76287   5.876  30.066  19.259  0.4464 -0.1067  0.1511
33376W        W76288   4.852  33.075  16.909 -0.0199 -0.0030 -0.0336
33377W        W76289   6.420  29.273  19.170 -0.1360 -0.1122  0.0330
33378W        W76290   5.370  31.925  17.820 -0.1355 -0.0613 -0.1144
33379W        W76291   2.655  31.601  18.974  0.1974  0.1113 -0.5864
33380W        W76292   3.924  32.992  17.805  0.0147 -0.0787  0.0989
33381W        W76293   5.364  29.149  19.011  0.0984 -0.2914 -0.0245
33382W        W76294   6.460  31.307  18.193 -0.2909 -0.1979  0.2612
33383W        W76295   3.849  31.486  17.450 -0.3164 -0.0383 -0.3776
33384W        W76296   9.122  32.249  18.861  0.1798  0.2218  0.1691
33385W        W76297   6.752  32.259  17.670 -0.1892  0.0806 -0.1197
33386W        W76298   4.442  31.141  16.537 -0.0942  0.1504 -0.3121
33387W        W76299   6.933  33.224  17.788 -0.1851  0.2528 -0.1136
33388W        W76300   6.746  31.223  17.729 -0.1718 -0.0408  0.1059
33389W        W76301   5.290  32.967  16.580 -0.0120 -0.1832  0.0131
33390W        W76302   3.471  30.384  19.995  0.1623  0.5394 -0.1147
33391W        W76303   5.033  29.339  19.323 -0.0424 -0.0229  0.2627
33392W        W76304   5.722  31.449  18.510 -0.0332  0.2368  0.1821
33393W        W76305   5.608  27.964  18.483 -0.0492 -0.1582 -0.0616
33394W        W76306   5.242  31.480  16.446 -0.0648 -0.1334  0.3707
33395W        W76307   3.225  32.346  19.424 -0.1016 -0.2600  0.0092
33396W        W76308   5.032  31.224  18.441 -0.2350  0.1785 -0.1115
33397W        W76309   4.243  33.980  17.155  0.2830 -0.0119  0.0327
33398W        W76310   6.288  32.149  16.338  0.0361 -0.0760  0.0699
33399W        W76311   5.374  31.780  17.278 -0.3127 -0.0626  0.3439
33400W        W76312   5.909  32.971  18.703 -0.1666  0.0238  0.1626
33401W        W76313   5.066  30.289  17.060 -0.0735  0.0066 -0.0593
33402W        W76314   4.499  32.105  16.894  0.2076 -0.0557 -0.0567
33403W        W76315   2.989  31.992  16.242 -0.1223  0.1122 -0.1981
33404W        W76316   6.394  32.110  15.788  0.0393 -0.0133 -0.1367
33405W        W76317   5.372  32.272  17.454  0.0043 -0.1386 -0.3403
33406W        W76318   5.545  31.494  19.629 -0.3761  0.0707  0.3047
33407W        W76319   6.790  28.979  16.897  0.4575 -0.2211 -0.0093
33408W        W76320   7.114  31.303  19.274  0.0371  0.1608  0.2033
33409W        W76321   7.755  29.897  17.369 -0.1548 -0.1657 -0.0796
33410W        W76322   6.130  33.817  20.287  0.3334  0.1554 -0.0314
33411W        W76323   5.755  29.357  17.638  0.0869  0.2172  0.2759
33412W        W76324   5.175  29.582  16.454 -0.1580 -0.1317  0.0618
33413W        W76325   5.952  28.981  18.823 -0.1188  0.0538 -0.2488
33414W        W76326   8.526  28.567  19.789  0.1267 -0.0591 -0.0692
33415W        W76327   4.605  32.633  18.906  0.0444 -0.1681 -0.0405
33416W        W76328   6.230  31.560  16.364 -0.2993 -0.2041 -0.4117
33417W        W76329   3.848  29.667  16.425 -0.2393  0.0093  0.3506
33418W        W76330   5.570  30.608  17.751  0.1276 -0.1627 -0.0782
33419W        W76331   5.869  30.946  18.806  0.2503 -0.2148  0.1775
33420W        W76332   5.504  31.167  16.690  0.2382 -0.0017 -0.3227
33421W        W76333   6.963  29.989  18.630  0.0579 -0.1664  0.2202
33422W        W76334   5.654  32.771  17.967  0.0451 -0.3528  0.0757
33423W        W76335   4.841  32.473  16.835 -0.1306  0.0616 -0.0008
33424W        W76336   3.999  31.948  17.448 -0.0846 -0.0040  0.0500
33425W        W76337   3.788  30.181  17.160 -0.0306  0.1398 -0.1207
33426W        W76338   7.782  30.605  18.317  0.1664  0.1938  0.0371
33427W        W76339   3.245  31.617  18.163 -0.0220 -0.3531  0.1765
33428W        W76340   6.130  29.633  18.556  0.2781  0.0811  0.0833
33429W        W76341   5.266  29.839  16.922 -0.1979  0.1249  0.1219
33430W        W76342   8.609  30.973  16.549 -0.0812 -0.2666  0.1489
33431W        W76343   5.613  31.955  18.253 -0.0881 -0.0036  0.0569
33432W        W76344   3.130  30.401  19.072 -0.0939 -0.1317 -0.1697
33433W        W76345   6.017  31.136  16.525 -0.2554  0.1827  0.1575
33434W        W76346   5.519  31.480  18.056 -0.0836 -0.0541 -0.0813
33435W        W76347   6.909  31.659  15.719  0.1351 -0.1707  0.2752
33436W        W76348   6.965  31.031  17.335 -0.0909 -0.1004  0.1386
33437W        W76349   4.477  29.293  16.939 -0.0292 -0.1902 -0.1451
33438W        W76350   5.822  30.711  16.236 -0.1090  0.0173 -0.1808
33439W        W76351   4.077  30.885  16.025  0.0132 -0.3553  0.0821
33440W        W76352   6.075  29.786  17.563 -0.2114  0.1389  0.1825
33441W        W76353   6.707  31.634  18.540  0.0352  0.2717 -0.1053
33442W        W76354   4.354  29.674  18.022 -0.2818  0.0773  0.0018
33443W        W76355   7.167  31.350  15.936 -0.3788  0.1193 -0.0309
33444W        W76356   7.418  31.317  18.434 -0.0084 -0.0356  0.0165
33445W        W76357   4.451  32.031  16.341  0.2709  0.2539 -0.2621
33446W        W76358   6.757  31.351  16.286 -0.2828  0.1664 -0.3287
33447W        W76359   6.026  31.614  18.042  0.0594 -0.0043 -0.1030
33448W        W76360   3.490  29.903  18.542  0.2510  0.1910 -0.0087
33449W        W76361   5.523  32.120  19.199  0.2280 -0.3783  0.2670
33450W        W76362   6.248  31.840  18.837 -0.1060 -0.0995 -0.1359
33451W        W76363   5.665  28.980  18.013 -0.1534  0.2120  0.1928
33452W        W76364   4.185  31.503  17.808 -0.1080  0.0996 -0.4675
33453W        W76365   4.184  33.125  17.349 -0.1901 -0.0372 -0.1213
33454W        W76366   6.932  31.118  18.311 -0.0816 -0.1329  0.1437
33455W        W76367   7.264  29.621  18.832  0.0348 -0.0132 -0.0314
33456W        W76368   5.270  33.287  17.447 -0.0237 -0.0433  0.3058
33457W        W76369   6.790  29.324  20.259  0.0700 -0.0320 -0.2013
33458W        W76370   5.964  32.509  16.069 -0.0801 -0.0580 -0.5435
33459W        W76371   5.047  32.099  20.156  0.0705  0.3319  0.1168
33460W        W76372   4.689  30.790  17.279 -0.1053 -0.0960  0.1459
33461W        W76373   4.356  31.154  19.045  0.1699  0.1289 -0.0542
33462W        W76374   5.573  33.401  16.855  0.0664 -0.0489 -0.2193
33463W        W76375   6.959  32.635  17.150 -0.1206 -0.0229  0.0767
33464W        W76376   8.125  33.268  16.760  0.0367  0.1489  0.3140
33465W        W76377   4.188  28.427  18.369  0.2845  0.1411  0.1044
33466W        W76378   5.785  32.144  16.513 -0.2564  0.0632  0.2832
33467W        W76379   5.356  30.990  18.023  0.1954 -0.1063  0.1198
33468W        W76380   6.141  30.325  17.167 -0.0783  0.0049 -0.1152
33469W        W76381   6.383  29.321  16.949 -0.0548 -0.1415 -0.1595
33470W        W76382   4.163  31.019  18.511 -0.0661 -0.1664  0.2108
33471W        W76383   4.169  31.428  16.297  0.4442  0.2293 -0.0494
33472W        W76384   4.593  30.248  16.924 -0.1328  0.2330 -0.0543
33473W        W76385   4.135  30.939  20.045  0.0827  0.0484 -0.1084
33474W        W76386   6.470  28.900  18.234  0.1172  0.1403  0.1042
33475W        W76387   5.416  31.328  18.863 -0.2815  0.1113 -0.4587
33476W        W76388   3.668  31.192  17.005  0.2354 -0.3374  0.1415
33477W        W76389   3.873  29.529  17.809  0.2404  0.4363 -0.1129
33478W        W76390   6.877  32.263  15.662 -0.2146  0.0221 -0.4418
33479W        W76391   5.088  30.405  17.959  0.5623 -0.1512 -0.1686
33480W        W76392   4.378  29.868  18.514  0.1501 -0.1814  0.1257
33481W        W76393   7.317  31.505  17.249 -0.1569 -0.0354  0.1760
33482W        W76394   7.328  32.514  16.724  0.0803  0.0911  0.0490
33483W        W76395   5.995  27.270  17.513  0.1715  0.0235  0.1572
33484W        W76396   8.000  33.046  20.690 -0.3442  0.1279 -0.3081
33485W        W76397   4.409  30.679  16.335  0.3776 -0.3210  0.2927
33486W        W76398   4.624  29.838  19.260 -0.1137  0.2127 -0.1294
33487W        W76399   4.334  30.423  19.981  0.1604 -0.0491  0.1531
33488W        W76400   3.898  29.812  15.941  0.0480 -0.0353 -0.1061
33489W        W76401   4.801  30.339  19.744 -0.0783  0.0290 -0.0250
33490W        W76402   7.726  31.717  17.460  0.0579 -0.4577  0.3999
33491W        W76403   5.480  31.015  17.269  0.1111  0.2253  0.0802
33492W        W76404   5.195  32.851  18.225 -0.1848  0.3828  0.0042
33493W        W76405   4.695  33.127  17.406 -0.2142  0.1368 -0.2492
33494W        W76406   3.388  29.367  19.360  0.1085 -0.0371 -0.0535
33495W        W76407   6.057  31.121  16.007  0.2670 -0.0913  0.1334
33496W        W76408   4.963  32.071  17.108 -0.0226 -0.0904  0.1244
33497W        W76409   5.841  31.694  16.921 -0.0761 -0.1401  0.3282
33498W        W76410   5.991  30.502  19.037 -0.0193 -0.1068  0.0285
33499W        W76411   5.724  30.713  16.864  0.0602  0.2092 -0.0817
33500W        W76412   3.787  29.614  19.212  0.0818 -0.1928 -0.0163
33501W        W76413   4.939  31.697  18.727  0.0064 -0.0581 -0.0261
33502W        W76414   7.642  32.491  20.258 -0.0809 -0.1521  0.0693
33503W        W76415   4.409  28.970  17.281 -0.1751  0.0439 -0.1366
33504W        W76416   6.176  30.676  16.642  0.2729  0.1227 -0.2764
33505W        W76417   7.076  30.844  15.666  0.1340  0.0763  0.2217
33506W        W76418   4.211  30.619  18.873  0.2950  0.2679  0.1684
33507W        W76419   4.845  30.936  17.738 -0.3546  0.0257  0.2129
33508W        W76420   4.881  31.299  19.017 -0.2889  0.0547 -0.0361
33509W        W76421   5.128  31.667  18.241  0.0223  0.1826  0.2714
33510W        W76422   4.599  30.154  18.871 -0.2946 -0.0568  0.1235
33511W        W76423   5.395  32.022  16.246 -0.2409  0.4254 -0.2530
33512W        W76424   7.596  30.885  16.407 -0.0305  0.1232  0.1733
33513W        W76425   6.140  32.058  18.325  0.0634  0.0540  0.0518
33514W        W76426   6.380  32.867  18.636  0.0127 -0.1192  0.0561
33515W        W76427   5.531  32.675  18.533  0.2854 -0.2220  0.0499
33516W        W76428   7.201  32.143  17.445  0.2979  0.0002 -0.1145
33517W        W76429   4.185  28.449  19.236  0.0989 -0.1950 -0.0597
33518W        W76430   4.697  29.268  16.489 -0.0214  0.3330  0.2281
33519W        W76431   4.791  30.631  16.734 -0.0313  0.0923 -0.0726
33520W        W76432   6.949  30.561  19.957  0.2076  0.1634  0.1352
33521W        W76433   5.144  29.583  17.360 -0.2590 -0.2792  0.1522
33522W        W76434   5.872  30.249  16.493  0.3835  0.0448 -0.0094
33523W        W76435   3.195  32.945  18.736 -0.0207 -0.4001 -0.3610
33524W        W76436   6.405  31.910  17.454 -0.3219  0.0034  0.0765
33525W        W76437   4.218  31.456  22.198 -0.1385 -0.1614 -0.0783
33526W        W76438   2.842  29.450  21.883  0.1927 -0.2321 -0.1443
33527W        W76439   6.963  30.453  19.466 -0.1757  0.3558 -0.0334
33528W        W76440   5.546  31.025  21.760 -0.2574 -0.2521 -0.1013
33529W        W76441   2.159  29.955  22.356  0.2506 -0.1395 -0.0203
33530W        W76442   5.981  31.537  21.261 -0.0801  0.0905  0.1340
33531W        W76443   4.845  28.154  22.692  0.3921  0.0504  0.0656
33532W        W76444   6.853  31.406  23.217  0.3331 -0.1380 -0.0825
33533W        W76445   7.243  32.361  23.085  0.0161 -0.1906  0.0496
33534W        W76446   6.208  31.385  19.218  0.2964  0.1499 -0.3797
33535W        W76447   4.283  28.939  22.326 -0.0528 -0.0315  0.1875
33536W        W76448   4.795  33.286  22.677  0.0610  0.1667  0.0551
33537W        W76449   3.750  30.512  19.016 -0.0220 -0.0082  0.0045
33538W        W76450   5.243  28.003  23.430  0.1918  0.0757 -0.0851
33539W        W76451   7.315  30.374  22.848 -0.2950 -0.0628 -0.4201
33540W        W76452   2.638  28.916  21.017 -0.1286 -0.1326  0.2353
33541W        W76453   5.183  29.422  22.031 -0.0152  0.0885  0.1297
33542W        W76454   4.754  29.844  20.318 -0.0940  0.4313  0.1113
33543W        W76455   6.199  31.652  20.827 -0.2618  0.0233  0.5301
33544W        W76456   5.190  28.919  22.899 -0.0655  0.0336 -0.0051
33545W        W76457   5.528  30.116  23.437  0.0654 -0.0360  0.1025
33546W        W76458   5.350  32.359  20.904 -0.0293 -0.0159 -0.0794
33547W        W76459   4.337  30.237  19.539 -0.1122  0.2200  0.3928
33548W        W76460   3.962  29.970  21.912  0.1289 -0.0586  0.2445
33549W        W76461   4.084  30.426  21.744 -0.0421  0.1885 -0.0349
33550W        W76462   6.721  32.577  21.169 -0.1725  0.2150  0.4408
33551W        W76463   5.498  31.110  22.322 -0.3218 -0.1275  0.2526
33552W        W76464   5.166  31.323  21.787 -0.1151  0.0718 -0.0252
33553W        W76465   6.772  30.987  22.829  0.2307 -0.0599 -0.3752
33554W        W76466   5.653  31.145  23.491 -0.2704  0.2768 -0.0907
33555W        W76467   3.342  30.024  21.282  0.1014 -0.1628  0.1032
33556W        W76468   4.149  33.275  19.994 -0.2342  0.2635  0.1534
33557W        W76469   5.340  30.668  21.396  0.0892  0.0244  0.0122
33558W        W76470   6.350  32.163  22.251  0.4604 -0.1812  0.3113
33559W        W76471   6.026  33.581  23.012 -0.3523 -0.1691  0.0539
33560W        W76472   5.167  31.153  23.269 -0.2810  0.1052 -0.1733
33561W        W76473   4.522  31.344  18.618  0.1530 -0.1699  0.0064
33562W        W76474   6.461  32.591  22.525 -0.0464 -0.1340  0.0394
33563W        W76475   5.370  32.272  23.135  0.1367 -0.1133  0.0135
33564W        W76476   5.280  32.086  23.603  0.1210 -0.0498 -0.1134
33565W        W76477   5.328  30.691  22.053 -0.3458  0.0280  0.0577
33566W        W76478   4.995  31.733  19.853 -0.0324  0.1406 -0.2809
33567W        W76479   5.458  31.350  21.363  0.2988 -0.0173 -0.0353
33568W        W76480   3.147  32.059  23.393  0.0193 -0.0951  0.0662
33569W        W76481   4.430  31.831  19.814 -0.2193  0.4334 -0.3386
33570W        W76482   7.684  29.546  22.773 -0.1984 -0.0199  0.1720
33571W        W76483   4.971  33.481  20.513 -0.2179  0.2841  0.1739
33572W        W76484   6.057  30.226  20.140 -0.3360  0.0007 -0.1483
33573W        W76485   3.773  29.204  19.684  0.2147  0.2079  0.3706
33574W        W76486   6.072  31.161  20.942 -0.1487  0.0184 -0.0493
33575W        W76487   5.962  29.266  23.155  0.0801  0.1310 -0.1477
33576W        W76488   5.905  32.580  21.651  0.0552  0.1767  0.3161
33577W        W76489   4.077  28.877  21.145  0.2742 -0.2857  0.0213
33578W        W76490   5.175  32.083  22.511 -0.0609  0.1885 -0.2999
33579W        W76491   5.145  31.141  19.859 -0.0212 -0.0550 -0.0208
33580W        W76492   7.562  30.212  23.809  0.2465  0.3927  0.0089
33581W        W76493   4.135  33.178  21.531 -0.0927  0.3171 -0.1066
33582W        W76494   3.436  31.701  22.407 -0.0514 -0.0684 -0.0858
33583W        W76495   5.835  32.270  21.233 -0.1321 -0.2171  0.0638
33584W        W76496   6.283  32.502  20.560 -0.0536 -0.0723  0.0832
33585W        W76497   4.519  31.887  17.708 -0.1118  0.3193  0.0753
33586W        W76498   3.847  30.602  20.510  0.2795  0.0551  0.1370
33587W        W76499   4.511  31.016  22.979  0.1042 -0.0584 -0.2670
33588W        W76500   3.962  30.797  23.109  0.0457 -0.0018 -0.2316
33589W        W76501   5.407  28.051  20.259 -0.0359  0.1547  0.1985
33590W        W76502   9.244  33.646  22.705  0.0157  0.0082 -0.0745
33591W        W76503   3.941  30.962  23.667  0.2611  0.1200 -0.2925
33592W        W76504   7.648  29.121  20.460 -0.1198 -0.1862 -0.3508
33593W        W76505   3.722  32.917  22.599  0.2416  0.0682  0.4754
33594W        W76506   5.743  31.598  22.326  0.1385  0.0217  0.0740
33595W        W76507   6.302  31.707  19.541 -0.2753  0.1195  0.1016
33596W        W76508   6.624  30.447  21.506  0.0164 -0.0486  0.2024
33597W        W76509   6.139  29.308  22.277 -0.0025  0.2217 -0.1995
33598W        W76510   5.193  31.685  19.224 -0.0646  0.2672  0.0417
33599W        W76511   4.895  30.865  21.757  0.0755  0.0299 -0.0542
33600W        W76512   8.196  33.130  23.751 -0.1758  0.1116 -0.0842
33601W        W76513   7.369  30.437  19.777  0.0787  0.0241 -0.1547
33602W        W76514   4.947  32.642  20.782  0.0565  0.2592 -0.0546
33603W        W76515   6.621  30.899  22.333 -0.0316  0.2100  0.0377
33604W        W76516   5.010  32.271  24.413 -0.2254 -0.0103  0.0705
33605W        W76517   4.634  32.994  20.583  0.0497  0.2874 -0.1031
33606W        W76518   3.315  30.701  22.371 -0.1323  0.1524 -0.1206
33607W        W76519   2.985  30.403  21.146  0.3028  0.0632 -0.0810
33608W        W76520   4.451  29.322  22.611  0.1149 -0.2355 -0.0753
33609W        W76521   5.290  31.675  23.206 -0.0277 -0.2180 -0.1872
33610W        W76522   7.522  29.983  19.900 -0.1811 -0.0121 -0.1072
33611W        W76523   2.760  29.151  21.453  0.0395 -0.0083 -0.1470
33612W        W76524   7.761  30.946  22.345  0.1642 -0.0061 -0.1575
33613W        W76525   4.019  31.986  21.253 -0.0812 -0.1769  0.4462
33614W        W76526   7.020  33.767  21.280  0.1113  0.1692  0.0559
33615W        W76527   6.966  31.002  21.090  0.2387  0.1838  0.0958
33616W        W76528   6.733  30.802  18.675 -0.3108  0.0468 -0.1069
33617W        W76529   3.867  29.362  21.938  0.0623  0.0712 -0.1345
33618W        W76530   4.132  29.691  22.303 -0.0699 -0.0077  0.1094
33619W        W76531   4.159  31.056  22.546 -0.1397  0.0979 -0.1040
33620W        W76532   3.060  30.765  23.361  0.1618 -0.0602 -0.4236
33621W        W76533   6.775  30.461  23.100 -0.1954  0.0808  0.0161
33622W        W76534   5.306  28.726  20.944  0.1370 -0.0068  0.0360
33623W        W76535   6.056  31.085  21.518  0.0303 -0.0429  0.1661
33624W        W76536   4.993  30.278  21.694  0.1776  0.1056 -0.2358
33625W        W76537   2.896  31.597  21.208 -0.1315  0.1371  0.0289
33626W        W76538   7.855  29.123  22.501  0.3580  0.1472 -0.1940
33627W        W76539   5.720  31.205  19.253  0.0164 -0.0447 -0.0509
33628W        W76540   6.729  32.389  22.937  0.0948  0.2091 -0.0523
33629W        W76541   5.958  31.655  19.930  0.0796  0.1999 -0.0871
33630W        W76542   4.727  29.751  22.774  0.0473  0.0782  0.1051
33631W        W76543   4.346  29.621  21.123  0.1507 -0.2397 -0.0823
33632W        W76544   4.451  33.904  20.911  0.1970  0.0618  0.1344
33633W        W76545   3.943  32.925  22.000  0.1584 -0.2236 -0.1405
33634W        W76546   4.116  30.197  20.407  0.1771 -0.1499 -0.0711
33635W        W76547   6.719  34.133  21.221  0.1477 -0.0667  0.0271
33636W        W76548   4.824  30.774  20.756  0.2461  0.1004  0.1177
33637W        W76549   3.310  32.425  23.082  0.3738  0.0885 -0.0525
33638W        W76550   6.498  30.042  22.758  0.0886 -0.1743  0.1729
33639W        W76551   5.936  30.841  22.073  0.0357 -0.0046 -0.2000
33640W        W76552   6.704  30.269  22.056  0.1270 -0.2442 -0.0724
33641W        W76553   3.588  29.227  21.166 -0.2617 -0.3957 -0.0970
33642W        W76554   6.106  33.688  22.556 -0.1720  0.0554  0.0597
33643W        W76555   4.136  31.616  20.232  0.1199  0.2189  0.0228
33644W        W76556   3.619  32.146  22.767 -0.1813 -0.2124  0.1520
33645W        W76557   5.031  31.622  21.231 -0.0531  0.0820  0.1894
33646W        W76558   9.045  30.078  21.192  0.0896  0.2657 -0.0030
33647W        W76559   3.742  30.256  22.984 -0.0196  0.0322 -0.0597
33648W        W76560   3.691  30.350  22.153 -0.1913 -0.0166 -0.1158
33649W        W76561   3.402  29.782  20.253  0.1823 -0.0215  0.4145
33650W        W76562   5.543  30.799  22.982 -0.1353  0.1941 -0.1029
33651W        W76563   6.191  30.863  20.510 -0.1138 -0.1083  0.0035
33652W        W76564   7.404  30.567  19.287 -0.3021 -0.2367  0.0109
33653W        W76565   5.590  32.016  24.008  0.2865 -0.0672 -0.1954
33654W        W76566   6.142  31.081  19.617 -0.6031 -0.0223 -0.1859
33655W        W76567   5.163  30.816  18.853 -0.1444 -0.2959 -0.1142
33656W        W76568   5.825  28.755  20.219 -0.1048  0.0151 -0.0093
33657W        W76569   4.362  32.318  22.860  0.1505 -0.0750 -0.0552
33658W        W76570   4.582  30.479  21.746 -0.2706  0.0738  0.0619
33659W        W76571   6.366  31.386  23.018  0.0392 -0.1603  0.1122
33660W        W76572   4.470  29.064  20.860 -0.2450  0.2595  0.1523
33661W        W76573   7.481  31.993  21.479  0.1361  0.2306  0.2119
33662W        W76574   4.585  31.556  23.497  0.0328 -0.1870  0.1360
33663W        W76575   5.367  32.981  23.331 -0.0847 -0.1540 -0.1070
33664W        W76576   5.469  31.957  22.086 -0.1785  0.2127 -0.0855
33665W        W76577   5.579  29.083  23.821 -0.2321  0.1193 -0.2711
33666W        W76578   4.706  29.815  19.782  0.3916 -0.1402 -0.2683
33667W        W76579   5.616  29.543  21.831 -0.1443 -0.1403  0.0097
33668W        W76580   3.634  33.514  19.095  0.1614 -0.4351 -0.0691
33669W        W76581   6.594  29.480  21.424 -0.4207  0.0771 -0.0048
33670W        W76582   6.624  30.468  22.524 -0.1932 -0.2424  0.1011
33671W        W76583   4.229  29.810  23.379  0.1563  0.0555 -0.3795
33672W        W76584   5.779  32.142  23.570 -0.2513 -0.0772  0.1598
33673W        W76585   5.781  29.881  20.941  0.3281 -0.0722  0.2928
33674W        W76586   5.019  30.941  22.787 -0.1336  0.0297  0.2145
33675W        W76587   4.412  30.548  18.409  0.2115  0.2852 -0.1131
33676W        W76588   5.616  30.217  22.778  0.1320 -0.0598  0.1513
33677W        W76589   5.872  30.660  22.573  0.1524  0.0359  0.0423
33678W        W76590   4.399  33.171  23.483  0.2169 -0.1134  0.0503
33679W        W76591   5.199  31.044  23.795  0.0440  0.0606 -0.1081
33680W        W76592   5.029  31.049  21.312 -0.2845 -0.0721  0.1695
33681W        W76593   4.681  30.316  24.342 -0.3448 -0.3296 -0.0022
33682W        W76594   4.391  29.870  20.685  0.3439  0.0497 -0.1378
33683W        W76595   4.745  33.808  20.077 -0.2469 -0.0071  0.0785
33684W        W76596   3.532  31.594  20.516 -0.2455  0.1227  0.0961
33685W        W76597   5.315  29.666  22.632  0.3724  0.1183  0.1070
33686W        W76598   5.631  33.324  21.266  0.1287  0.1353  0.0965
33687W        W76599   4.481  31.753  18.994  0.0669 -0.1757  0.1094
33688W        W76600   7.061  29.643  23.328  0.0477 -0.1434 -0.1183
33689W        W76601   4.158  32.731  18.789 -0.0906 -0.0053  0.1011
33690W        W76602   6.199  29.598  22.775 -0.0889  0.1553 -0.2548
33691W        W76603   3.087  32.668  24.142 -0.2022 -0.2272 -0.0129
33692W        W76604   4.371  30.659  20.508  0.2885 -0.2470  0.1529
33693W        W76605   2.749  31.270  20.759  0.5086  0.2404 -0.2523
33694W        W76606   6.045  30.471  20.792  0.0337  0.1084  0.0598
33695W        W76607   5.052  29.944  19.416 -0.4093  0.0460 -0.0676
33696W        W76608   4.133  30.680  22.245  0.3768 -0.0282  0.0056
33697W        W76609   4.817  29.971  21.238 -0.1945 -0.3581  0.0611
33698W        W76610   4.333  33.226  22.473 -0.1768 -0.2024  0.2731
33699W        W76611   7.763  31.436  22.291 -0.1592  0.4224  0.1148
33700W        W76612   5.201  30.506  20.694  0.0030  0.4570 -0.2886
33701W        W76613   6.247  32.132  22.813  0.3003 -0.1820 -0.0225
33702W        W76614   5.856  30.381  23.188  0.0927 -0.1343  0.4819
33703W        W76615   4.902  29.862  18.383  0.1702 -0.5389  0.0437
33704W        W76616   6.585  31.914  21.859 -0.1236 -0.0049  0.0899
33705W        W76617   5.806  29.441  21.353 -0.1121  0.1461  0.0523
33706W        W76618   3.295  31.728  20.950  0.1196 -0.1899  0.0701
33707W        W76619   7.226  33.098  21.865 -0.2996 -0.2944  0.0318
33708W        W76620   3.898  29.769  20.482 -0.0775  0.2589  0.0190
33709W        W76621   4.290  31.568  20.751 -0.0326  0.1070  0.0355
33710W        W76622   5.090  30.260  23.510 -0.0139  0.1329  0.3731
33711W        W76623   7.000  29.720  23.879  0.0251  0.1428 -0.1418
33712W        W76624   4.264  29.612  21.652 -0.2401  0.2340 -0.1385
33713W        W76625   5.301  30.232  21.224  0.0019  0.2962  0.4911
33714W        W76626   7.068  31.233  22.342 -0.1702  0.0446  0.0556
33715W        W76627   5.668  31.652  23.542  0.1209 -0.0424 -0.1703
33716W        W76628   5.387  29.950  22.157  0.0435  0.0465 -0.0230
33717W        W76629   5.014  30.069  23.983 -0.3077  0.0853 -0.0866
33718W        W76630   5.595  28.411  21.805  0.1906  0.0910 -0.1144
33719W        W76631   6.712  31.939  20.151 -0.2817 -0.3197  0.1439
33720W        W76632   6.053  31.671  22.741 -0.2984 -0.0467  0.0818
33721W        W76633   3.557  30.892  20.869  0.0678  0.1475  0.1258
33722W        W76634   3.113  31.376  22.618 -0.1508  0.0120  0.0641
33723W        W76635   3.824  30.646  21.316 -0.1287  0.0820 -0.2046
33724W        W76636   6.487  29.905  21.710 -0.4085 -0.0814 -0.0945
33725W        W76637   4.075  32.776  22.876 -0.1631 -0.2323 -0.1599
33726W        W76638   3.656  31.400  20.954  0.0314  0.5054  0.0822
33727W        W76639   2.867  32.076  21.044 -0.3028  0.1121 -0.0952
33728W        W76640   6.951  30.493  21.194  0.2990  0.1598  0.3165
33729W        W76641   5.144  32.181  19.678 -0.0560  0.4463  0.1524
33730W        W76642   6.226  30.501  22.888 -0.3121  0.1189 -0.2736
33731W        W76643   6.596  28.560  22.867  0.1792  0.0577  0.0032
33732W        W76644   5.594  30.901  21.048 -0.1498  0.0644  0.2475
33733W        W76645   8.221  29.935  22.618 -0.2789 -0.0439 -0.0379
33734W        W76646   3.499  27.917  23.292 -0.1488 -0.1551  0.4085
33735W        W76647   4.826  31.610  20.741 -0.2258  0.0309 -0.2749
33736W        W76648   4.479  29.994  21.870  0.1512 -0.0686 -0.0086
33737W        W76649   6.232  32.717  22.985  0.3508  0.0968 -0.1649
33738W        W76650   4.675  30.065  23.235  0.1515 -0.1489  0.1488
33739W        W76651   5.805  29.260  20.368  0.2772  0.1537 -0.0112
33740W        W76652   4.392  30.167  21.375  0.0175 -0.1998  0.1221
33741W        W76653   4.424  30.907  21.459 -0.2103  0.1910  0.1714
33742W        W76654   6.791  31.512  22.726  0.1491  0.0752 -0.3553
33743W        W76655   4.645  31.348  19.976  0.1489  0.0513 -0.4343
33744W        W76656   7.115  29.759  20.643 -0.2454 -0.1330 -0.2243
33745W        W76657   4.635  31.354  22.601  0.0866 -0.2179  0.1720
33746W        W76658   7.094  30.467  22.325 -0.0041  0.1021  0.3319
33747W        W76659   4.743  30.323  20.297  0.1225  0.0038 -0.3333
33748W        W76660   4.084  31.488  21.694  0.2228 -0.0633  0.1256
33749W        W76661   3.386  29.145  22.765 -0.1920 -0.2663 -0.3167
33750W        W76662   4.766  29.689  22.255  0.3017 -0.0922 -0.1108
33751W        W76663   5.408  29.028  23.339 -0.0987 -0.0960  0.5992
33752W        W76664   6.198  30.415  22.248  0.0228 -0.0605  0.0550
33753W        W76665   7.136  29.538  22.228 -0.0386  0.1659 -0.1857
33754W        W76666   3.631  29.772  22.773  0.2812 -0.0953 -0.0494
33755W        W76667   4.140  31.364  22.920 -0.1445  0.1326  0.1704
33756W        W76668   6.356  32.300  21.593  0.1317  0.1390 -0.1821
33757W        W76669   6.568  30.406  20.323 -0.1226 -0.2759 -0.0270
33758W        W76670   7.061  28.812  21.809  0.0678 -0.2269  0.1869
33759W        W76671   7.072  30.974  21.933 -0.2561  0.0753 -0.0543
33760W        W76672   5.165  29.513  19.769 -0.1611  0.2141 -0.0907
33761W        W76673   5.707  30.383  22.218  0.0907 -0.2746  0.1892
33762W        W76674   6.938  29.990  22.947 -0.2074 -0.0365  0.0420
33763W        W76675   3.647  29.351  20.361  0.0446  0.2322 -0.2143
33764W        W76676   6.239  29.649  23.391 -0.3415  0.2405 -0.1322
33765W        W76677   5.144  30.684  20.207  0.2308  0.0689 -0.1913
33766W        W76678   5.824  29.837  20.397 -0.0402 -0.2506  0.2237
33767W        W76679   6.111  29.573  20.641  0.1063  0.2406  0.1728
33768W        W76680   3.374  30.465  21.557  0.1160 -0.3672  0.2352
33769W        W76681   3.808  33.371  22.346 -0.1198  0.0298  0.0421
33770W        W76682   3.773  30.175  21.467  0.1596 -0.2890 -0.1050
33771W        W76683   4.372  31.201  20.411 -0.2670 -0.0628  0.0539
33772W        W76684   4.696  31.485  22.069 -0.3682 -0.1497  0.1184
33773W        W76685   6.077  30.543  24.645 -0.0960  0.2249 -0.2001
33774W        W76686   6.114  28.733  21.121  0.0199 -0.3535 -0.2621
33775W        W76687   5.181  30.529  22.488 -0.1082  0.2634 -0.2017
33776W        W76688   4.674  32.008  19.438 -0.0425  0.1686 -0.1331
33777W        W76689   5.271  29.734  21.139 -0.1172  0.1952 -0.0250
33778W        W76690   5.510  32.503  22.177 -0.0275 -0.3198  0.0615
33779W        W76691   4.026  30.779  24.304 -0.2493 -0.1125 -0.1722
33780W        W76692   4.618  31.328  21.654 -0.2640  0.1339 -0.0364
33781W        W76693   5.161  28.456  23.175  0.3184  0.0675 -0.0985
33782W        W76694   5.882  29.967  21.941 -0.0458  0.0438 -0.1553
33783W        W76695   4.062  32.369  22.033  0.1854  0.1023  0.0564
33784W        W76696   7.534  31.413  23.355 -0.0989  0.1548  0.0676
33785W        W76697   6.279  30.283  23.431 -0.2126  0.1264 -0.2120
33786W        W76698   3.178  31.362  22.139 -0.4675  0.1123 -0.0783
33787W        W76699   5.977  32.679  22.497 -0.0130  0.0855  0.2167
33788W        W76700   5.479  31.838  20.012 -0.2550 -0.1001  0.3115
33789W        W76701   3.248  32.640  22.560 -0.0912 -0.2009  0.2222
33790W        W76702   2.883  31.213  23.610  0.0587  0.0004 -0.0235
33791W        W76703   4.852  32.367  22.848  0.0825 -0.0337 -0.0474
33792W        W76704   4.961  30.178  22.188  0.0083 -0.0059  0.0325
33793W        W76705   4.566  30.250  20.848 -0.0969  0.1147 -0.0537
33794W        W76706   5.485  30.567  19.788 -0.0128  0.1086 -0.3051
33795W        W76707   2.935  32.817  23.202  0.3163  0.3491  0.3752
33796W        W76708   2.905  30.400  22.481  0.0860 -0.1186 -0.2293
33797W        W76709   4.765  32.578  20.229 -0.0731 -0.0361  0.0418
33798W        W76710   6.678  33.491  21.098  0.2089  0.4225  0.0760
33799W        W76711   6.718  33.121  19.015  0.1651  0.0605  0.0427
33800W        W76712   7.193  33.983  22.154  0.2889  0.0073 -0.1672
33801W        W76713   3.875  31.170  20.485 -0.0846  0.1236 -0.0190
33802W        W76714   3.840  31.864  20.825  0.3036  0.2636 -0.1445
33803W        W76715   2.569  32.231  19.779 -0.1554  0.0520 -0.1433
33804W        W76716   5.326  31.857  20.930 -0.3583  0.3837  0.2623
33805W        W76717   4.895  32.132  20.662 -0.0673 -0.0798  0.0123
33806W        W76718   6.146  31.938  23.224 -0.0808 -0.2935  0.0022
33807W        W76719   6.795  28.960  19.930 -0.0163  0.4512 -0.1769
33808W        W76720   6.369  31.500  21.625 -0.2327  0.2777  0.1200
33809W        W76721   7.134  29.681  20.080  0.1402  0.0777  0.1375
33810W        W76722   6.598  31.861  23.052 -0.1108  0.1163  0.2241
33811W        W76723   4.500  30.985  22.038  0.0116 -0.1073 -0.0127
33812W        W76724   5.017  29.174  20.848 -0.0393 -0.3120 -0.2595
33813W        W76725   4.891  31.446  23.006  0.1373 -0.2557 -0.0308
33814W        W76726   8.211  29.285  23.813 -0.2249  0.2011  0.0325
33815W        W76727   2.898  32.210  23.834 -0.0660  0.0610 -0.0435
33816W        W76728   5.764  32.108  19.676 -0.0964  0.0813 -0.2292
33817W        W76729   3.739  29.675  21.520  0.3267  0.2728 -0.1771
33818W        W76730   3.778  31.156  21.461  0.1699  0.0162 -0.0922
33819W        W76731   6.946  29.849  21.900  0.1239 -0.1706  0.1425
33820W        W76732   5.075  33.646  18.684  0.0072  0.0216  0.0081
33821W        W76733   5.546  30.291  21.761 -0.1718 -0.0671 -0.0916
33822W        W76734   3.641  31.639  21.428  0.0617  0.0421 -0.1078
33823W        W76735   4.587  31.820  21.198  0.1009 -0.1292 -0.1423
33824W        W76736   4.914  32.649  21.913  0.0318  0.0924  0.2182
33825W        W76737   2.419  29.544  19.653 -0.1494 -0.2423 -0.0120
33826W        W76738   7.119  29.338  19.672 -0.2527 -0.1603 -0.0525
33827W        W76739   4.991  30.716  23.279  0.0668  0.0771  0.0697
33828W        W76740   6.859  28.847  20.429  0.0018  0.0650 -0.1231
33829W        W76741   4.296  30.561  21.096 -0.1560 -0.2385 -0.0540
33830W        W76742   6.407  30.266  21.099  0.1492  0.2604 -0.0156
33831W        W76743   5.560  31.888  21.447 -0.2836 -0.1207 -0.0588
33832W        W76744   5.114  30.074  22.660  0.0467 -0.0418 -0.0609
33833W        W76745   5.279  29.824  20.590 -0.2165  0.2088  0.3561
33834W        W76746   7.365  32.607  22.224 -0.3256 -0.3404  0.0280
33835W        W76747   6.639  30.169  19.786 -0.1615 -0.1703  0.3917
33836W        W76748   6.416  32.365  23.316  0.2449  0.0576  0.2223
33837W        W76749   3.236  29.546  21.362 -0.2403 -0.1047  0.1217
33838W        W76750   5.864  30.651  21.619  0.1012  0.0546 -0.0062
33839W        W76751   3.676  31.434  21.970  0.0211  0.0982 -0.1130
33840W        W76752   6.026  30.126  22.566 -0.2157 -0.0657 -0.1598
33841W        W76753   6.024  30.974  23.162 -0.1142  0.0201 -0.1763
33842W        W76754   2.982  28.849  22.705 -0.0135 -0.0846  0.2050
33843W        W76755   5.517  30.786  19.281  0.1442  0.1667 -0.0967
33844W        W76756   7.283  32.167  22.627  0.1545 -0.1469 -0.0455
33845W        W76757   6.766  32.759  20.504 -0.1044  0.1680  0.2716
33846W        W76758   6.907  31.428  21.422 -0.1118  0.2601  0.1001
33847W        W76759   6.802  32.887  22.205 -0.0047 -0.1044 -0.0072
33848W        W76760   3.419  29.970  21.806 -0.3546 -0.0561 -0.0893
33849W        W76761   6.533  34.215  23.255 -0.0917 -0.1247 -0.0884
33850W        W76762   6.902  32.159  22.169  0.1980 -0.2178  0.0552
33851W        W76763   5.578  29.447  20.767  0.2740 -0.2458 -0.3153
33852W        W76764   5.010  31.085  22.267  0.1127 -0.2605  0.0909
33853W        W76765   3.846  31.852  19.764 -0.1052 -0.0117  0.1151
33854W        W76766   6.559  30.669  20.747 -0.3828 -0.2645  0.3257
33855W        W76767   8.857  31.346  22.573 -0.1544  0.0914  0.1805
33856W        W76768   4.607  32.111  18.609  0.3393 -0.3756 -0.0133
33857W        W76769   6.332  28.041  24.289 -0.0100 -0.4879 -0.0381
33858W        W76770   4.873  31.967  23.119 -0.1746  0.1993  0.2439
33859W        W76771   5.805  33.050  22.241  0.2860 -0.3669 -0.3000
33860W        W76772   4.675  30.564  19.250  0.0945  0.0828  0.0891
33861W        W76773   5.236  30.381  23.038  0.1432 -0.1565 -0.2341
33862W        W76774   3.784  32.034  22.215 -0.2058  0.0953 -0.2266
33863W        W76775   5.842  32.138  20.194  0.1331 -0.0433  0.4760
33864W        W76776   5.924  32.171  21.954  0.3297  0.0251 -0.0465
33865W        W76777   6.340  30.772  21.180 -0.2104 -0.1539  0.0817
33866W        W76778   7.131  31.832  23.014 -0.2123 -0.0377  0.1478
33867W        W76779   5.780  30.319  21.237  0.1136  0.1597  0.0101
33868W        W76780   7.627  29.881  21.705 -0.0333 -0.2508  0.1213
33869W        W76781   6.154  29.073  21.580 -0.1024  0.3160  0.2615
33870W        W76782   4.675  30.761  22.505 -0.0984 -0.0805  0.1623
33871W        W76783   3.664  30.800  20.101  0.4438  0.0296 -0.0396
33872W        W76784   3.020  30.058  20.025 -0.0398  0.0098 -0.0603
33873W        W76785   4.223  31.066  20.905  0.1435 -0.2017  0.0598
33874W        W76786   5.401  28.456  24.979 -0.1390  0.0359  0.1465
33875W        W76787   4.236  28.713  21.644 -0.0425  0.1522  0.4551
33876W        W76788   4.120  31.456  21.222 -0.0131 -0.0682  0.1157
33877W        W76789   4.073  30.920  21.809 -0.3136  0.1156  0.0112
33878W        W76790   5.463  32.559  19.434 -0.0905 -0.0729  0.0099
33879W        W76791   4.588  28.619  22.108  0.1253 -0.1207 -0.1982
33880W        W76792   2.981  29.262  22.365 -0.2360  0.0131  0.0077
33881W        W76793   5.635  30.667  20.619 -0.2117  0.1272  0.1214
33882W        W76794   6.885  32.315  20.732 -0.0188 -0.3065 -0.0870
33883W        W76795   5.439  29.095  20.067 -0.2227  0.0666  0.4604
33884W        W76796   6.864  31.640  22.243  0.2858 -0.1575  0.0121
33885W        W76797   3.937  30.931  19.187 -0.0576 -0.0284 -0.0035
33886W        W76798   4.429  30.121  22.438  0.2592  0.0458  0.4565
33887W        W76799   5.785  30.243  24.314  0.0971  0.0260  0.0531
33888W        W76800   3.600  30.150  20.505 -0.2910  0.2352  0.0673
33889W        W76801   5.182  29.786  21.658  0.1975  0.1171  0.2146
33890W        W76802   4.951  32.239  21.390  0.0899 -0.0466  0.1208
33891W        W76803   4.802  33.729  18.079  0.1409 -0.1864 -0.2328
33892W        W76804   5.808  31.400  23.097 -0.0089 -0.2327 -0.0652
33893W        W76805   6.163  31.748  22.080  0.1033  0.2462  0.1269
33894W        W76806   4.150  29.156  23.458 -0.1742 -0.3802 -0.1550
33895W        W76807   5.727  31.634  20.398  0.3627 -0.1418 -0.0287
33896W        W76808   4.794  32.037  23.656  0.1105 -0.2088 -0.0707
33897W        W76809   5.841  32.473  18.959  0.1295  0.0531  0.1925
33898W        W76810   7.071  28.046  21.628  0.1033 -0.4015  0.0764
33899W        W76811   7.082  31.875  21.184  0.0101 -0.2076  0.1699
33900W        W76812   4.567  29.553  24.634  0.0624 -0.0843  0.0678
33901W        W76813   4.663  31.895  22.620 -0.2933 -0.1081 -0.2518
33902W        W76814   7.150  32.839  22.988 -0.0470 -0.2230  0.0423
33903W        W76815   4.393  29.188  21.893  0.0386  0.3923  0.0095
33904W        W76816   4.779  29.638  20.806  0.1335  0.5504 -0.0253
33905W        W76817   4.603  31.271  21.163 -0.1577 -0.3895 -0.2719
33906W        W76818   3.835  31.438  22.554  0.3605  0.0252  0.0371
33907W        W76819   6.901  30.955  20.471  0.0531  0.2838 -0.1415
33908W        W76820   5.683  29.752  23.150  0.0960  0.1480 -0.0114
33909W        W76821   3.733  31.041  22.271  0.0659  0.1582  0.1427
33910W        W76822   7.381  30.792  22.622 -0.0873 -0.0433 -0.1119
33911W        W76823   3.106  29.629  18.440 -0.2202  0.1576  0.1578
33912W        W76824   7.753  31.252  20.632 -0.0243  0.0207 -0.0762
33913W        W76825   6.185   0.198  22.283  0.0447 -0.2517 -0.2570
33914W        W76826   8.136  32.618  23.629  0.3092  0.2682 -0.2710
33915W        W76827   6.688  32.012  22.612 -0.0774  0.0155 -0.0132
33916W        W76828   7.495  30.960  23.107  0.1163  0.1959 -0.0132
33917W        W76829   3.916  29.365  22.591 -0.1339 -0.3393 -0.1555
33918W        W76830   5.161  31.254  20.849  0.1150  0.0560  0.2430
33919W        W76831   4.829  30.499  21.201 -0.1217 -0.0620  0.3543
33920W        W76832   6.281  29.795  22.318 -0.0765  0.0174  0.1060
33921W        W76833   4.869  29.447  21.284  0.4131 -0.0840 -0.4558
33922W        W76834   6.761  30.111  20.735  0.0497 -0.1068  0.0416
33923W        W76835   4.602  32.397  21.075 -0.3000 -0.0758 -0.0397
33924W        W76836   5.419  31.319  22.799  0.2401  0.2675  0.3357
33925W        W76837   3.623  30.310  28.402 -0.0673  0.1778  0.0673
33926W        W76838   4.410  28.969  25.304  0.2265 -0.3128 -0.2788
33927W        W76839   6.470  29.831  25.042  0.0766 -0.0952  0.0915
33928W        W76840   5.810  29.617  26.189 -0.2116  0.2260  0.0753
33929W        W76841   2.990  29.387  23.677  0.2403  0.3898 -0.1469
33930W        W76842   5.708  33.028  23.974 -0.1335  0.1265  0.0213
33931W        W76843   3.080  28.630  24.821  0.0326  0.1663 -0.0971
33932W        W76844   4.901  32.419  25.534 -0.1751  0.0377  0.1048
33933W        W76845   5.505  33.063  24.774 -0.0801  0.2272  0.0573
33934W        W76846   6.023  30.744  23.696 -0.1699 -0.1205 -0.0445
33935W        W76847   5.100  29.791  25.396  0.0990 -0.0225 -0.5255
33936W        W76848   6.107  31.549  25.129  0.3455  0.0182  0.4434
33937W        W76849   5.052  28.943  24.111  0.1683 -0.0138  0.3261
33938W        W76850   3.678  26.727  26.583  0.0849  0.0246 -0.2917
33939W        W76851   6.334  31.534  26.586 -0.2296 -0.1761  0.1568
33940W        W76852   3.916  29.986  23.802  0.0169 -0.1341  0.0281
33941W        W76853   3.040  30.139  26.330 -0.0225  0.3449  0.3282
33942W        W76854   5.744  30.586  25.651  0.2668  0.0497 -0.4382
33943W        W76855   5.333  32.239  25.270  0.3383  0.2635  0.0020
33944W        W76856   4.643  30.548  26.113 -0.1475  0.0880 -0.0383
33945W        W76857   5.914  28.815  26.920 -0.2038 -0.1991 -0.1081
33946W        W76858   4.292  33.325  23.954 -0.2501  0.2007  0.2035
33947W        W76859   4.527  30.410  25.066  0.2074 -0.0435  0.2956
33948W        W76860   3.749  30.529  26.000 -0.0186 -0.2453  0.0640
33949W        W76861   3.888  29.974  26.076 -0.0117  0.0455  0.1856
33950W        W76862   6.953  28.514  25.128  0.1147 -0.0993 -0.1177
33951W        W76863   6.090  30.389  26.210  0.0035  0.2287 -0.3388
33952W        W76864   5.183  32.557  24.720 -0.0704  0.3528 -0.1090
33953W        W76865   5.197  34.567  24.723 -0.0819 -0.2964 -0.1797
33954W        W76866   5.634  30.013  26.917 -0.0629  0.2564 -0.0528
33955W        W76867   4.196  31.927  23.727  0.0502 -0.2375  0.0991
33956W        W76868   4.298  32.930  25.631 -0.3442  0.2767  0.3056
33957W        W76869   4.471  33.306  24.462  0.1727  0.1330 -0.1401
33958W        W76870   6.291  32.667  24.790  0.1088 -0.3201 -0.0276
33959W        W76871   8.374  32.432  26.651 -0.3103 -0.0690  0.0870
33960W        W76872   5.120  32.482  26.866 -0.1959  0.1775 -0.3992
33961W        W76873   4.981  32.434  23.353 -0.2128 -0.0664  0.1650
33962W        W76874   4.797  31.924  26.896  0.0078  0.0924 -0.0958
33963W        W76875   4.980  31.639  27.314  0.0414  0.0845 -0.0571
33964W        W76876   6.110  29.602  25.716  0.3049 -0.0201 -0.0753
33965W        W76877   5.155  31.832  26.071  0.0286  0.0428 -0.1115
33966W        W76878   5.479  31.502  24.044  0.0093 -0.1495  0.0591
33967W        W76879   5.066  31.151  25.516  0.0915 -0.1691  0.1328
33968W        W76880   4.023  31.253  27.026  0.0732  0.1428 -0.1986
33969W        W76881   2.921  31.430  26.573  0.1716 -0.1509 -0.0059
33970W        W76882   8.510  29.213  25.365 -0.2190  0.0678 -0.1602
33971W        W76883   4.576  32.844  22.640  0.1236  0.1084  0.1374
33972W        W76884   6.152  31.385  23.516 -0.0453  0.0653 -0.1860
33973W        W76885   4.738  29.705  23.724 -0.3045  0.0215  0.0783
33974W        W76886   6.141  30.179  24.944  0.1414  0.2174  0.0977
33975W        W76887   5.036  29.289  25.234  0.2817 -0.1413 -0.1055
33976W        W76888   4.239  32.907  26.210  0.0581 -0.0762  0.0940
33977W        W76889   5.654  28.838  26.370 -0.0911  0.1452  0.0066
33978W        W76890   6.827  30.950  27.051 -0.1195 -0.1233  0.2671
33979W        W76891   4.227  29.625  26.147  0.0385 -0.2542 -0.3280
33980W        W76892   5.386  29.845  26.470  0.1525 -0.2112 -0.2500
33981W        W76893   3.271  33.108  26.700  0.0426 -0.1758  0.0421
33982W        W76894   3.337  30.955  25.195  0.0527  0.3560  0.2323
33983W        W76895   6.823  31.276  23.701  0.0923  0.3997  0.1704
33984W        W76896   6.910  30.725  26.447  0.2136 -0.0983  0.0535
33985W        W76897   5.557  31.831  22.729  0.1920  0.2359 -0.1086
33986W        W76898   3.861  30.641  24.902 -0.0425  0.1441 -0.0921
33987W        W76899   3.698  30.902  26.788 -0.4580  0.0162 -0.1992
33988W        W76900   4.045  30.668  25.600 -0.0361  0.3427 -0.0719
33989W        W76901   4.697  28.282  24.599 -0.0648  0.0300 -0.0709
33990W        W76902   6.272  31.777  28.058  0.0249 -0.3049 -0.0770
33991W        W76903   2.282  31.908  27.637 -0.0559 -0.1371 -0.0123
33992W        W76904   6.859  30.409  25.550 -0.1726  0.3379  0.2227
33993W        W76905   4.899  30.835  27.106  0.4851 -0.0235  0.1880
33994W        W76906   5.443  31.589  28.139  0.1784 -0.0407 -0.0923
33995W        W76907   4.208  30.326  26.034 -0.2434 -0.0398  0.2345
33996W        W76908   7.210  29.452  26.089  0.5244  0.0479  0.4079
33997W        W76909   5.960  29.136  25.993  0.0971  0.2294 -0.2160
33998W        W76910   4.486  30.598  23.309  0.0142  0.0862 -0.3074
33999W        W76911   4.500  31.393  25.378 -0.1252  0.1016 -0.0262
34000W        W76912   7.036  32.267  27.031  0.0502  0.0985  0.4077
34001W        W76913   6.271  30.071  24.443  0.0120  0.0583  0.3920
34002W        W76914   4.377  32.926  24.844 -0.2276  0.0483 -0.0818
34003W        W76915   2.813  30.232  27.334 -0.0816  0.1055  0.1013
34004W        W76916   5.629  31.639  27.427  0.1379  0.2378  0.1649
34005W        W76917   3.634  33.494  24.373  0.1344  0.0812 -0.0289
34006W        W76918   3.828  31.099  25.161 -0.4619 -0.1755 -0.2175
34007W        W76919   3.774  29.613  24.653  0.1661  0.5892  0.0011
34008W        W76920   4.894  29.082  25.652  0.2471  0.0329  0.1248
34009W        W76921   4.233  31.741  25.813  0.0847 -0.0541  0.3785
34010W        W76922   6.279  29.558  23.921  0.0791 -0.1456  0.2319
34011W        W76923   4.847  30.135  27.188  0.4241 -0.0717  0.0832
34012W        W76924   7.966  28.703  23.962  0.1628 -0.0926  0.0621
34013W        W76925   4.855  31.113  24.633 -0.2383 -0.0020 -0.0640
34014W        W76926   6.501  33.177  24.714 -0.1561 -0.0543  0.2498
34015W        W76927   6.691  30.611  23.613 -0.2475 -0.1116  0.0391
34016W        W76928   6.239  32.102  23.762 -0.0746  0.1405  0.0265
34017W        W76929   2.175  30.085  26.264 -0.2188  0.2305  0.0233
34018W        W76930   4.909  30.290  24.792 -0.0881  0.2528  0.0608
34019W        W76931   3.988  30.379  26.975 -0.0112 -0.1332  0.4083
34020W        W76932   5.340  29.751  24.998  0.0747 -0.1264 -0.2357
34021W        W76933   5.932  30.493  26.697  0.2337  0.0048 -0.0375
34022W        W76934   3.992  28.875  25.818 -0.1171 -0.1781  0.2456
34023W        W76935   5.586  29.437  25.239  0.1712  0.1211 -0.0646
34024W        W76936   4.352  31.274  26.060  0.1679 -0.0741 -0.3398
34025W        W76937   4.661  31.067  23.726 -0.2101 -0.2152 -0.2334
34026W        W76938   7.532  28.570  27.439  0.0107 -0.0412  0.2426
34027W        W76939   5.794  33.756  24.139  0.2296 -0.0115 -0.2566
34028W        W76940   7.225  32.748  27.289  0.1174  0.1316 -0.2739
34029W        W76941   6.947  31.188  25.676  0.1344  0.2634 -0.0430
34030W        W76942   5.344  28.498  26.162 -0.3853 -0.0986 -0.2825
34031W        W76943   4.253  29.410  25.023  0.0662 -0.1716  0.1156
34032W        W76944   4.507  30.988  25.600  0.1964 -0.1432 -0.0338
34033W        W76945   4.453  31.938  25.351 -0.1178 -0.1834  0.3303
34034W        W76946   4.929  30.630  25.695 -0.0211 -0.1461 -0.1969
34035W        W76947   6.290  32.077  25.807 -0.0095 -0.0975  0.3471
34036W        W76948   4.650  31.954  24.532  0.0240  0.0415  0.0098
34037W        W76949   4.552  29.997  26.182 -0.2855  0.1547 -0.2166
34038W        W76950   6.579  28.617  26.459 -0.1353 -0.2056  0.2615
34039W        W76951   7.102  31.689  27.720 -0.0741  0.1949  0.1066
34040W        W76952   4.723  31.515  25.842 -0.2519  0.0141  0.0655
34041W        W76953   3.734  29.890  23.280  0.3307 -0.1438 -0.2671
34042W        W76954   6.703  31.217  26.193  0.3457  0.0403  0.0835
34043W        W76955   4.748  33.155  23.949  0.1071 -0.0241  0.1771
34044W        W76956   2.836  30.983  25.196 -0.1276  0.0986 -0.0383
34045W        W76957   5.341  33.646  25.419 -0.2104 -0.0223 -0.0382
34046W        W76958   7.584  28.363  24.402 -0.0287  0.2443 -0.0185
34047W        W76959   1.926  29.855  27.698  0.4145  0.0889 -0.1231
34048W        W76960   5.483  29.478  27.577 -0.1748  0.0075 -0.1685
34049W        W76961   4.428  30.649  24.653 -0.0555 -0.0493  0.4081
34050W        W76962   4.614  33.098  26.816  0.0406  0.0404 -0.2590
34051W        W76963   6.341  29.491  24.479 -0.1435 -0.0164  0.0824
34052W        W76964   5.606  31.007  24.048  0.0811  0.1691  0.2148
34053W        W76965   5.436  31.359  26.968  0.3634 -0.2994  0.1623
34054W        W76966   5.724  31.966  24.998  0.6038  0.3086  0.1517
34055W        W76967   6.380  30.402  23.933 -0.0145  0.1513 -0.1829
34056W        W76968   5.878  28.761  23.550 -0.0319  0.0569 -0.0296
34057W        W76969   4.158  30.089  26.552 -0.3400  0.1030  0.2806
34058W        W76970   4.731  33.370  24.894 -0.0038 -0.1053 -0.2571
34059W        W76971   5.266  29.749  25.987 -0.1312  0.0565  0.0290
34060W        W76972   7.421  29.889  23.091  0.3266 -0.3400  0.0552
34061W        W76973   8.044  31.563  23.649  0.4746 -0.0474 -0.0698
34062W        W76974   2.559  28.616  24.915  0.5602 -0.0071  0.0448
34063W        W76975   6.325  30.995  27.406 -0.2565  0.1637  0.0695
34064W        W76976   5.360  33.662  24.805 -0.2634  0.2454 -0.1283
34065W        W76977   4.282  29.988  27.041 -0.0273  0.1809 -0.0935
34066W        W76978   5.972  31.686  23.892  0.0201 -0.0755  0.1193
34067W        W76979   5.219  30.367  24.436 -0.2943 -0.1438 -0.0725
34068W        W76980   2.980  32.156  24.388 -0.1211  0.0289  0.0527
34069W        W76981   6.492  29.479  25.404  0.1883 -0.0939 -0.1495
34070W        W76982   6.678  29.063  26.201  0.2607  0.1243 -0.2788
34071W        W76983   3.897  30.506  26.475 -0.2088 -0.1018 -0.1336
34072W        W76984   6.494  29.937  27.714  0.0011  0.0349 -0.0859
34073W        W76985   5.787  31.421  24.772 -0.2662 -0.1334 -0.2831
34074W        W76986   6.418  30.835  26.318 -0.0264 -0.1572  0.0638
34075W        W76987   4.285  28.895  23.877  0.2444 -0.0072 -0.1730
34076W        W76988   5.110  29.164  27.311 -0.1923 -0.0403 -0.5563
34077W        W76989   4.919  29.668  26.380 -0.0784 -0.1855 -0.1325
34078W        W76990   2.907  30.698  26.441  0.1563  0.1441 -0.1250
34079W        W76991   5.351  32.942  26.725 -0.2796 -0.0219  0.1122
34080W        W76992   5.514  31.038  25.128 -0.0327  0.3002  0.3620
34081W        W76993   4.443  29.531  27.953 -0.1591 -0.1710 -0.2430
34082W        W76994   3.945  29.476  23.098 -0.1513  0.0985 -0.1365
34083W        W76995   4.243  32.836  23.797 -0.0008 -0.0235  0.2803
34084W        W76996   5.520  32.472  22.705  0.2226 -0.0472  0.0552
34085W        W76997   5.485  27.893  25.192 -0.0629  0.2278 -0.0749
34086W        W76998   4.803  32.683  25.124 -0.1250 -0.1349  0.1393
34087W        W76999   5.144  31.607  22.285  0.2183 -0.2753  0.2314
34088W        W77000   4.670  31.025  26.439 -0.6236 -0.0571 -0.2527
34089W        W77001   4.504  32.696  23.124 -0.0621 -0.1337  0.3794
34090W        W77002   7.267  29.807  26.708  0.1023  0.1517  0.3150
34091W        W77003   4.783  32.197  25.062  0.0502 -0.2940 -0.4169
34092W        W77004   4.252  30.805  25.201 -0.0492  0.3906 -0.0796
34093W        W77005   3.294  29.943  23.082  0.0842 -0.1843  0.1103
34094W        W77006   7.294  29.733  25.680 -0.3026  0.2303  0.0122
34095W        W77007   5.991  31.270  24.239  0.0571  0.1025  0.0465
34096W        W77008   4.598  29.140  26.272  0.0584  0.0615 -0.2623
34097W        W77009   5.395  28.895  25.859  0.3296 -0.1994 -0.1527
34098W        W77010   2.912  32.236  26.159 -0.3105  0.2675  0.0430
34099W        W77011   6.140  30.905  25.865 -0.1489 -0.1674  0.0150
34100W        W77012   5.933  29.729  24.743 -0.1804 -0.1237 -0.1211
34101W        W77013   5.385  30.464  26.965 -0.1631 -0.0247  0.2363
34102W        W77014   5.844  31.526  27.908  0.1173 -0.0497 -0.1544
34103W        W77015   3.796  28.752  24.314 -0.1024 -0.1722  0.2550
34104W        W77016   5.796  29.866  27.444  0.3512  0.0406 -0.0194
34105W        W77017   4.166  29.633  25.638 -0.1202  0.0777 -0.0786
34106W        W77018   4.079  32.152  24.470 -0.1778 -0.0142  0.1493
34107W        W77019   4.949  32.989  24.757 -0.1124  0.1851  0.0369
34108W        W77020   3.153  29.577  22.702 -0.1789  0.3568 -0.3223
34109W        W77021   3.463  32.887  25.608  0.3318 -0.1118  0.1160
34110W        W77022   3.465  30.404  26.963 -0.2992  0.0429 -0.1244
34111W        W77023   6.906  31.847  27.246  0.1376  0.1737  0.0168
34112W        W77024   5.763  28.240  26.328  0.0163  0.1580  0.3864
34113W        W77025   4.561  29.878  24.138  0.1806 -0.2350  0.0075
34114W        W77026   5.010  30.207  26.288 -0.2706 -0.2972  0.0381
34115W        W77027   5.926  31.443  26.951 -0.1436  0.0948  0.1291
34116W        W77028   4.998  29.460  28.021 -0.1414  0.0738  0.1451
34117W        W77029   4.171  33.360  25.853  0.2167  0.0012 -0.1867
34118W        W77030   5.423  29.360  25.719 -0.0610  0.3437  0.0516
34119W        W77031   7.520  32.635  25.485  0.1040 -0.1166  0.2735
34120W        W77032   5.247  29.851  27.183  0.1595 -0.1109 -0.1291
34121W        W77033   4.257  30.667  23.858  0.1123  0.1679  0.0890
34122W        W77034   3.136  30.640  25.973 -0.2636 -0.4353  0.2236
34123W        W77035   4.285  31.564  24.890  0.1476 -0.0605 -0.0733
34124W        W77036   5.843  27.714  26.252  0.1487  0.2209 -0.1421
34125W        W77037   3.544  31.895  26.306 -0.3497  0.3230  0.0221
34126W        W77038   5.123  31.593  23.701  0.3108 -0.1242  0.1755
34127W        W77039   4.538  30.941  27.430 -0.1423 -0.0599 -0.0106
34128W        W77040   6.929  28.781  22.588  0.3229 -0.1074 -0.2273
34129W        W77041   5.533  32.290  24.477  0.0523 -0.1570 -0.0295
34130W        W77042   5.442  29.794  24.506 -0.0051 -0.1889 -0.0317
34131W        W77043   7.374  28.099  27.013 -0.1026  0.0411  0.0697
34132W        W77044   5.441  29.195  24.809  0.1074 -0.2512  0.0423
34133W        W77045   5.868  28.232  27.033 -0.2127 -0.0341  0.0525
34134W        W77046   6.384  28.166  27.171  0.2153 -0.1201  0.3455
34135W        W77047   5.827  32.871  25.334  0.0225  0.5427 -0.1285
34136W        W77048   3.779  31.185  27.505  0.0347 -0.0021  0.2511
34137W        W77049   7.402  32.140  27.520 -0.1899 -0.1561  0.1782
34138W        W77050   3.932  30.685  27.706  0.0570 -0.0502 -0.3050
34139W        W77051   5.497  30.666  23.518 -0.1605  0.1777 -0.0583
34140W        W77052   5.075  29.444  24.611 -0.1324  0.1725 -0.1184
34141W        W77053   5.365  31.891  27.074 -0.2811  0.1309 -0.1330
34142W        W77054   7.316  30.729  26.700 -0.0062 -0.4920 -0.2830
34143W        W77055   4.833  29.798  24.969  0.1115 -0.0687  0.1555
34144W        W77056   5.972  29.997  26.533 -0.0633 -0.1031 -0.0684
34145W        W77057   4.928  31.323  26.901 -0.1674  0.0168  0.2574
34146W        W77058   5.319  30.339  25.782  0.2173  0.3197  0.0846
34147W        W77059   4.390  30.197  23.711  0.1251 -0.2311  0.1265
34148W        W77060   4.612  32.092  25.832  0.0013 -0.0666 -0.1074
34149W        W77061   4.644  28.575  26.585 -0.2428  0.0559 -0.0792
34150W        W77062   5.877  31.741  24.385 -0.1566 -0.0362  0.4246
34151W        W77063   5.300  29.268  26.271 -0.1952 -0.0155  0.2099
34152W        W77064   5.217  30.390  27.456  0.0869 -0.2175  0.1576
34153W        W77065   7.367  30.172  27.669 -0.0048  0.0914 -0.0404
34154W        W77066   4.555  30.215  27.971  0.0912 -0.0712 -0.0943
34155W        W77067   3.257  29.824  26.686 -0.0756  0.2386  0.0549
34156W        W77068   5.665  32.648  26.427  0.1911 -0.2947  0.0660
34157W        W77069   7.030  30.944  23.363  0.1776  0.3119 -0.1207
34158W        W77070   5.706  30.092  26.084  0.1883 -0.2706  0.1367
34159W        W77071   6.880  29.975  25.848  0.2523  0.1825 -0.2389
34160W        W77072   6.083  30.752  24.185 -0.3797 -0.1074 -0.0093
34161W        W77073   3.577  30.466  24.519  0.1606 -0.0843  0.1041
34162W        W77074   5.811  29.512  27.146  0.2342  0.0416 -0.1438
34163W        W77075   5.026  29.375  23.220  0.3109  0.4179 -0.1325
34164W        W77076   6.716  28.540  27.516  0.1236  0.0347 -0.0969
34165W        W77077   5.332  32.896  24.338 -0.1624  0.3976 -0.0809
34166W        W77078   4.499  32.145  24.083 -0.0721 -0.0673  0.0792
34167W        W77079   6.478  29.995  25.478  0.0977 -0.1730  0.2055
34168W        W77080   3.121  30.575  25.389 -0.0385 -0.2285  0.1205
34169W        W77081   4.137  32.405  25.873 -0.4677  0.2330 -0.3020
34170W        W77082   4.591  29.261  23.562  0.1653  0.0321  0.2028
34171W        W77083   3.931  30.429  23.497 -0.1138 -0.0956 -0.0751
34172W        W77084   5.860  31.347  26.052 -0.1527  0.0045 -0.2713
34173W        W77085   7.147  31.172  27.861 -0.1263 -0.3850 -0.0476
34174W        W77086   5.177  29.804  23.170 -0.0576 -0.2168 -0.0492
34175W        W77087   7.334  29.316  26.874  0.4217 -0.0864  0.3453
34176W        W77088   4.457  32.193  23.343 -0.0569  0.0598 -0.0370
34177W        W77089   6.005  29.767  25.247  0.2271  0.5410  0.3687
34178W        W77090   2.811  33.369  25.625  0.1724 -0.1502  0.1348
34179W        W77091   4.374  30.666  26.567 -0.3352 -0.0462 -0.0051
34180W        W77092   3.329  30.456  24.980 -0.0546 -0.1915 -0.2106
34181W        W77093   6.122  28.995  26.528 -0.0094 -0.0012  0.2035
34182W        W77094   4.844  30.105  25.824 -0.0012  0.1985 -0.5567
34183W        W77095   5.084  30.699  26.262  0.1561 -0.0708  0.1006
34184W        W77096   6.477  31.726  28.682  0.0400 -0.1337  0.0427
34185W        W77097   4.974  32.264  27.408 -0.0926  0.5506  0.1409
34186W        W77098   4.808  30.826  25.226  0.3953 -0.1401  0.0138
34187W        W77099   6.599  32.775  26.552  0.1201 -0.1571 -0.0837
34188W        W77100   6.416  30.410  25.818  0.0609  0.0080  0.0093
34189W        W77101   3.587  30.483  25.487 -0.0365  0.1116  0.3673
34190W        W77102   3.402  30.629  26.489 -0.0570 -0.0496  0.0344
34191W        W77103   4.299  31.492  28.124  0.3124 -0.0553 -0.0819
34192W        W77104   5.678  31.773  26.655  0.1112 -0.2894  0.1798
34193W        W77105   5.044  29.247  23.722  0.0155 -0.0829 -0.2561
34194W        W77106   5.079  32.411  23.881  0.0543 -0.1527  0.0926
34195W        W77107   3.749  31.576  27.905  0.0411  0.4097  0.3371
34196W        W77108   3.928  32.457  26.319 -0.0369  0.0465 -0.0756
34197W        W77109   4.058  32.476  24.076 -0.1411 -0.0344  0.1021
34198W        W77110   5.184  31.985  24.840 -0.2530 -0.1360  0.1999
34199W        W77111   5.264  30.742  25.341  0.2884 -0.3051 -0.2889
34200W        W77112   6.189  34.019  25.254 -0.4177  0.2039  0.1143
34201W        W77113   4.751  30.442  22.863 -0.1902  0.0549 -0.1255
34202W        W77114   4.054  31.281  25.620  0.1493 -0.0846  0.1815
34203W        W77115   3.992  32.042  23.132  0.1656  0.0864  0.0981
34204W        W77116   4.574  32.447  24.643  0.0171 -0.0931  0.2822
34205W        W77117   3.450  32.734  24.497  0.2005  0.0974  0.1847
34206W        W77118   7.791  32.408  27.562 -0.4000  0.4290 -0.0720
34207W        W77119   8.266  29.398  23.306 -0.0111  0.2042  0.2940
34208W        W77120   5.132  31.278  25.054  0.0298  0.0258  0.0733
34209W        W77121   6.568  31.886  24.412  0.2617 -0.0741 -0.1800
34210W        W77122   5.857  32.313  26.078 -0.1575 -0.2668 -0.0117
34211W        W77123   4.880  30.580  26.662 -0.1873  0.0318 -0.1217
34212W        W77124   4.813  27.843  23.981  0.3277 -0.0195 -0.0985
34213W        W77125   3.174  30.750  27.710 -0.1019 -0.3445  0.0102
34214W        W77126   6.642  29.741  28.205  0.0008 -0.0793 -0.1231
34215W        W77127   2.768  32.058  27.598 -0.6388  0.1008 -0.1999
34216W        W77128   6.216  32.059  24.940 -0.2760  0.1397 -0.0009
34217W        W77129   3.109  29.244  24.292 -0.1428  0.3200 -0.1353
34218W        W77130   5.465  30.345  26.482  0.1326 -0.0477  0.0819
34219W        W77131   6.276  29.350  24.998 -0.0937 -0.0237 -0.0426
34220W        W77132   5.326  33.093  22.352 -0.1860  0.0326  0.1213
34221W        W77133   5.993  32.217  24.210  0.0835  0.0613 -0.3530
34222W        W77134   4.589  33.711  24.118 -0.2605 -0.1211 -0.0084
34223W        W77135   5.698  30.337  27.362 -0.2443 -0.3143 -0.3090
34224W        W77136   4.647  33.111  25.331 -0.1348  0.0861  0.1206
34225W        W77137   3.692  30.001  25.535 -0.2218 -0.2439  0.0926
34226W        W77138   6.394  28.968  24.481  0.1231  0.2501 -0.2586
34227W        W77139   2.631  30.623  27.080  0.1612  0.1102 -0.1437
34228W        W77140   6.265  29.736  27.257  0.0745  0.2387 -0.1312
34229W        W77141   4.431  29.207  25.753  0.3635 -0.2375 -0.0777
34230W        W77142   4.801  31.002  25.974  0.3002 -0.2201 -0.0980
34231W        W77143   6.637  30.876  25.443  0.0949  0.1987  0.0845
34232W        W77144   3.761  29.914  26.937 -0.1504  0.0898  0.1304
34233W        W77145   5.612  30.176  24.811  0.0828  0.0982  0.0666
34234W        W77146   7.327  29.949  27.211  0.0556 -0.1895 -0.1428
34235W        W77147   5.419  31.218  24.485 -0.3224 -0.1356 -0.0002
34236W        W77148   6.165  31.514  27.471  0.1475  0.0088  0.2510
34237W        W77149   4.646  28.364  24.067  0.0975  0.0213 -0.2285
34238W        W77150   5.619  30.533  23.969  0.3449 -0.0225 -0.0064
34239W        W77151   3.936  29.789  25.108  0.3134 -0.0323  0.3082
34240W        W77152   5.495  30.080  27.744 -0.0450  0.0892 -0.1832
34241W        W77153   6.163  32.015  26.678 -0.0270  0.2109  0.3400
34242W        W77154   3.856  28.534  24.782 -0.0593 -0.1266  0.2176
34243W        W77155   6.758  32.692  23.348 -0.1334 -0.1221 -0.0662
34244W        W77156   6.004  30.136  25.670  0.3551  0.0930  0.0454
34245W        W77157   5.919  32.895  23.314  0.1024 -0.2633 -0.2232
34246W        W77158   6.304  31.471  24.620 -0.1357  0.0540  0.0590
34247W        W77159   5.068  32.875  25.541  0.0700 -0.0019 -0.0671
34248W        W77160   3.740  29.525  26.577  0.1576 -0.0253  0.2862
34249W        W77161   4.902  32.144  26.432  0.0720  0.2482 -0.0523
34250W        W77162   6.702  31.396  25.254  0.0846 -0.2366  0.0041
34251W        W77163   5.918  29.765  24.250  0.2383  0.1864 -0.1574
34252W        W77164   4.101  30.864  26.117  0.1106 -0.2035  0.0327
34253W        W77165   4.612  32.510  23.761  0.2446 -0.2882 -0.2690
34254W        W77166   7.425  30.207  25.833  0.1706  0.0194 -0.0338
34255W        W77167   5.107  30.175  26.756  0.1086  0.0938 -0.0802
34256W        W77168   5.531  32.572  23.472  0.2490  0.0345  0.1295
34257W        W77169   7.000  29.432  26.506 -0.1055  0.0126  0.1543
34258W        W77170   5.193  30.979  26.678  0.1944  0.0528 -0.1518
34259W        W77171   6.410  32.058  27.168  0.2323 -0.0281  0.0477
34260W        W77172   3.406  30.327  23.373  0.1399 -0.0873  0.2915
34261W        W77173   4.059  31.186  26.503  0.0929  0.0058  0.1531
34262W        W77174   3.954  32.583  24.620  0.0763  0.2032 -0.1201
34263W        W77175   5.197  32.886  23.835 -0.0458  0.0409  0.0148
34264W        W77176   6.487  31.556  27.133 -0.0325 -0.0397  0.1609
34265W        W77177   5.593  29.851  25.598 -0.1549 -0.1758 -0.0863
34266W        W77178   5.973  31.654  25.638 -0.0623 -0.1685 -0.2183
34267W        W77179   4.648  28.890  24.389 -0.3384  0.1797  0.0486
34268W        W77180   7.457  30.004  24.279 -0.0337 -0.1256 -0.0700
34269W        W77181   6.990  30.375  26.027 -0.0278  0.0080 -0.5639
34270W        W77182   5.297  31.020  25.970  0.0576  0.2493  0.0921
34271W        W77183   2.088  29.977  23.231  0.5118 -0.0291  0.0910
34272W        W77184   4.092  31.109  24.726  0.0427 -0.5838 -0.3012
34273W        W77185   4.569  31.646  23.987  0.1574 -0.0492 -0.0700
34274W        W77186   6.062  27.930  27.495 -0.1776  0.0586 -0.0250
34275W        W77187   3.577  30.419  27.914  0.0525 -0.2324 -0.2641
34276W        W77188   4.695  30.855  24.208 -0.1162  0.1848  0.1200
34277W        W77189   4.488  30.469  25.554  0.1319 -0.3264 -0.3133
34278W        W77190   6.930  32.622  23.944 -0.1301  0.2140  0.0005
34279W        W77191   4.665  28.322  26.159 -0.1905 -0.3500  0.0064
34280W        W77192   3.494  29.577  25.107  0.2874 -0.1000  0.1225
34281W        W77193   5.101  31.950  24.061 -0.4245  0.2231 -0.1586
34282W        W77194   5.568  33.395  24.361  0.2130  0.0653  0.1172
34283W        W77195   4.955  30.250  25.325 -0.3182 -0.3719 -0.1017
34284W        W77196   7.362  32.554  27.766  0.1225  0.2437 -0.0434
34285W        W77197   3.766  32.008  23.981  0.2623 -0.1770  0.1804
34286W        W77198   5.353  29.458  26.845 -0.1531 -0.2259  0.1185
34287W        W77199   5.437  29.100  28.525 -0.1386  0.1254 -0.0735
34288W        W77200   4.024  29.206  24.273  0.0134  0.0785 -0.0087
34289W        W77201   6.459  29.781  26.527  0.1735  0.3414 -0.0526
34290W        W77202   5.686  31.114  25.577  0.0851 -0.1453 -0.2923
34291W        W77203   6.576  33.031  22.882  0.3081 -0.0173 -0.1735
34292W        W77204   6.354  30.816  28.197 -0.1405  0.1429  0.0544
34293W        W77205   5.977  30.668  27.920  0.0284  0.2241  0.2182
34294W        W77206   4.502  29.978  25.323 -0.0605  0.0862  0.2412
34295W        W77207   5.684  32.490  24.942  0.0331  0.1250 -0.0775
34296W        W77208   4.227  31.737  26.981  0.0491  0.1495  0.0122
34297W        W77209   7.406  32.425  24.491  0.1257 -0.0989  0.0354
34298W        W77210   8.697  30.407  25.780  0.1222 -0.1757 -0.0776
34299W        W77211   5.606  30.719  24.561  0.0271  0.1053  0.0599
34300W        W77212   4.613  28.883  27.510 -0.1376 -0.1062 -0.2615
34301W        W77213   4.664  32.749  25.898 -0.1726 -0.1890 -0.0583
34302W        W77214   5.921  32.254  25.371  0.1571  0.1684 -0.1904
34303W        W77215   4.128  28.975  24.773  0.1598 -0.2647  0.2783
34304W        W77216   5.760  30.604  25.073 -0.2000 -0.0604  0.1917
34305W        W77217   5.512  32.595  23.999  0.1188  0.0936 -0.0655
34306W        W77218   3.341  29.662  26.222  0.0543  0.2504 -0.0517
34307W        W77219   5.147  30.754  24.868  0.4409  0.1941 -0.1219
34308W        W77220   4.466  31.030  26.921  0.0113 -0.1471 -0.1425
34309W        W77221   4.997  31.850  25.559  0.1277  0.2697  0.3559
34310W        W77222   6.547  31.885  27.651 -0.0118  0.1527 -0.1418
34311W        W77223   5.044  31.597  24.541 -0.1103 -0.1045 -0.3567
34312W        W77224   6.574  32.432  24.260  0.0911 -0.0919 -0.0740
34313W        W77225   5.474  32.147  26.328  0.1537  0.0157 -0.1686
34314W        W77226   6.600  32.784  27.647  0.0764 -0.0744 -0.1989
34315W        W77227   5.428  31.502  25.799 -0.0159  0.1246 -0.0701
34316W        W77228   5.503  31.220  26.402  0.0939  0.1245  0.0618
34317W        W77229   4.338  29.103  26.709  0.1696  0.0261  0.4466
34318W        W77230   4.621  30.138  26.641 -0.1068  0.3099  0.1258
34319W        W77231   5.201  30.812  24.229  0.0950 -0.0716 -0.1956
34320W        W77232   6.808  30.014  27.343 -0.0172 -0.0668  0.0587
34321W        W77233   4.932  29.283  26.748  0.1608 -0.1472 -0.0984
34322W        W77234   5.774  27.717  24.722 -0.0637  0.0129  0.0644
34323W        W77235   3.579  30.959  26.126 -0.0319 -0.3273 -0.0815
34324W        W77236   5.641  30.699  26.138 -0.0300 -0.3056 -0.0048
34325W        W77237   4.504  31.588  31.276 -0.1130 -0.0586 -0.2126
34326W        W77238   2.618  30.747  27.949  0.0367  0.1838  0.1148
34327W        W77239   6.320  30.130  28.163  0.0153 -0.1900  0.2249
34328W        W77240   8.221  30.495  28.705  0.0642 -0.1678 -0.1087
34329W        W77241   4.612  30.686  28.423  0.2504 -0.0635  0.2003
34330W        W77242   6.872  32.139  29.923 -0.1266  0.3070 -0.3119
34331W        W77243   4.649  29.934  29.761  0.1838  0.0404 -0.2555
34332W        W77244   7.048  31.324  30.332  0.1280 -0.0563 -0.3550
34333W        W77245   6.748  30.859  31.771  0.2145  0.0746 -0.1150
34334W        W77246   5.835  31.134  27.309 -0.0440  0.0848  0.0075
34335W        W77247   4.528  30.823  29.230 -0.0128  0.1559 -0.0941
34336W        W77248   5.349  32.375  31.154 -0.2493 -0.0556  0.1622
34337W        W77249   5.407  30.526  27.932  0.2169 -0.1063  0.2857
34338W        W77250   1.953  29.070  29.225  0.0930 -0.0952  0.0878
34339W        W77251   7.485  29.932  29.158 -0.2338 -0.2610 -0.1517
34340W        W77252   3.304  30.295  27.501 -0.0967  0.1800 -0.2892
34341W        W77253   5.251  29.648  28.988 -0.0755  0.0478 -0.0719
34342W        W77254   4.524  28.599  28.301  0.1136 -0.0181  0.0003
34343W        W77255   5.516  32.001  27.842 -0.2642 -0.0214 -0.2083
34344W        W77256   4.654  29.686  28.887 -0.2617  0.0793 -0.0645
34345W        W77257   5.081  28.733  30.988  0.1395 -0.1304  0.2043
34346W        W77258   6.114  32.177  29.181 -0.0899  0.2278  0.0040
34347W        W77259   2.633  30.445  26.114  0.1064  0.0905 -0.1897
34348W        W77260   4.838  30.386  29.886  0.1466  0.0945 -0.4141
34349W        W77261   5.068  30.092  29.586  0.2393  0.1398 -0.1484
34350W        W77262   5.258  28.339  28.239  0.0651  0.0565 -0.1249
34351W        W77263   7.032  30.945  29.947 -0.1370  0.3347  0.0919
34352W        W77264   6.172  31.394  29.411  0.1279 -0.2141  0.0714
34353W        W77265   6.041  30.969  28.709 -0.1837  0.1526  0.1623
34354W        W77266   7.442  28.675  30.862  0.0383 -0.0628 -0.1861
34355W        W77267   4.172  29.348  28.371  0.0241  0.4788 -0.1030
34356W        W77268   4.234  33.077  27.644  0.1633 -0.1493  0.0239
34357W        W77269   5.085  32.035  28.298 -0.1310 -0.1262  0.4849
34358W        W77270   7.552  31.014  29.320  0.6005  0.2392 -0.1802
34359W        W77271   7.079  32.346  30.346  0.2030 -0.0820  0.1250
34360W        W77272   4.681  31.939  29.449  0.1001 -0.1443 -0.0906
34361W        W77273   3.865  31.327  28.435  0.2070 -0.1476 -0.2368
34362W        W77274   5.554  31.412  28.593 -0.0687  0.2074  0.0308
34363W        W77275   5.470  31.281  31.097  0.1521  0.2072 -0.1017
34364W        W77276   5.795  29.528  30.009 -0.3073  0.0432 -0.5016
34365W        W77277   6.486  29.925  29.633  0.1287 -0.0496  0.2599
34366W        W77278   6.585  31.652  29.164 -0.1354 -0.1345  0.2537
34367W        W77279   6.045  29.637  28.936  0.1575  0.4597 -0.2534
34368W        W77280   4.774  31.923  28.766 -0.0953  0.0303 -0.2222
34369W        W77281   4.311  31.099  28.584  0.1407 -0.2742  0.1890
34370W        W77282   5.696  29.493  30.604 -0.2389 -0.0372 -0.2492
34371W        W77283   3.311  31.760  26.711  0.0031 -0.1170  0.0917
34372W        W77284   6.350  29.978  28.628 -0.1897  0.1719 -0.0410
34373W        W77285   4.970  29.914  27.677 -0.0882  0.1933 -0.0778
34374W        W77286   6.398  28.779  27.859 -0.1556 -0.1330 -0.1861
34375W        W77287   5.296  27.834  28.239  0.2126  0.1105  0.0361
34376W        W77288   3.851  32.696  27.689 -0.2402 -0.2708  0.1634
34377W        W77289   4.099  29.036  29.214 -0.1611  0.1457  0.0432
34378W        W77290   7.310  32.230  29.627 -0.0871  0.1553 -0.0097
34379W        W77291   4.605  31.108  28.109 -0.1818 -0.0312  0.2083
34380W        W77292   4.876  29.614  29.377 -0.0253  0.2048 -0.0164
34381W        W77293   5.165  31.542  29.367 -0.0644  0.1307 -0.1537
34382W        W77294   4.978  31.163  29.158  0.0291 -0.0657  0.1463
34383W        W77295   6.588  32.282  27.925 -0.1145 -0.0527  0.1315
34384W        W77296   8.204  31.583  29.369  0.2977  0.0718 -0.0138
34385W        W77297   5.940  31.938  27.629  0.0649 -0.0655 -0.1610
34386W        W77298   3.554  31.026  27.950 -0.3587  0.0379 -0.1019
34387W        W77299   3.826  31.142  29.792  0.0846 -0.1071  0.0421
34388W        W77300   4.814  31.607  29.921  0.1031  0.1503  0.1918
34389W        W77301   3.935  29.644  27.398  0.2405 -0.0764 -0.3510
34390W        W77302   8.654  31.009  30.155 -0.2404  0.2172 -0.1891
34391W        W77303   3.843  32.347   0.194  0.1456  0.1177 -0.0332
34392W        W77304   7.191  30.364  29.194 -0.0988  0.3207 -0.0175
34393W        W77305   5.712  30.042  30.059 -0.1740 -0.0848 -0.1315
34394W        W77306   8.119  30.918  30.615 -0.0461 -0.0877  0.1390
34395W        W77307   6.681  31.422  27.879 -0.2612 -0.0393 -0.1183
34396W        W77308   5.431  30.095  29.191 -0.1667 -0.4131 -0.0568
34397W        W77309   5.867  29.967  29.389  0.2007 -0.1148 -0.1430
34398W        W77310   5.399  29.806  29.774 -0.3559  0.1077  0.1156
34399W        W77311   3.995  31.850  28.238  0.0641  0.1774 -0.2213
34400W        W77312   8.134  32.354  29.972  0.0280 -0.0081  0.0102
34401W        W77313   7.691  30.433  29.303 -0.2661 -0.1805 -0.4404
34402W        W77314   4.678  32.323  29.780  0.0802 -0.0857  0.0722
34403W        W77315   4.371  29.438  29.292  0.1470  0.3439 -0.0191
34404W        W77316   6.190  33.028  30.365  0.0968  0.1646 -0.0588
34405W        W77317   3.387  32.440  26.225  0.3284  0.1993 -0.0772
34406W        W77318   1.224  31.183  28.835 -0.0766  0.0153  0.1724
34407W        W77319   2.752  30.952  27.491 -0.0435 -0.2374 -0.1490
34408W        W77320   3.535  29.233  29.543  0.1670 -0.7558 -0.3702
34409W        W77321   5.072  31.534  28.854  0.0650 -0.0174  0.0792
34410W        W77322   7.399  29.705  28.674  0.0882  0.0130 -0.0791
34411W        W77323   2.538  29.767  30.052  0.0486 -0.1735 -0.1420
34412W        W77324   7.086  29.515  29.816 -0.0293 -0.2575 -0.3843
34413W        W77325   3.622  32.073  29.168 -0.0609 -0.0043  0.3319
34414W        W77326   7.705  31.790  29.378  0.0641  0.3132  0.0226
34415W        W77327   5.962  29.738  28.043 -0.3053  0.3150 -0.1344
34416W        W77328   6.080  32.235  28.004  0.2709  0.1660  0.1463
34417W        W77329   3.312  29.920  30.029  0.3517 -0.0182 -0.0547
34418W        W77330   4.980  30.533  28.785  0.3658 -0.1849  0.0106
34419W        W77331   4.250  29.794  30.175  0.1461  0.0393 -0.1301
34420W        W77332   2.592  30.323  29.467 -0.2257  0.1123  0.1813
34421W        W77333   8.063  30.374  30.613 -0.3190  0.1834 -0.0028
34422W        W77334   4.137  29.845  28.374 -0.2046 -0.2644  0.0486
34423W        W77335   5.696  29.511  28.465 -0.1041 -0.3395 -0.1965
34424W        W77336   5.161  31.138  29.703 -0.2621 -0.0919 -0.0965
34425W        W77337   3.751  30.186  27.365 -0.0248  0.2748 -0.1704
34426W        W77338   5.672  29.548  31.150 -0.0429  0.2142 -0.3755
34427W        W77339   5.985  31.502  28.393  0.2793  0.3171 -0.1475
34428W        W77340   8.199  33.159  30.179  0.1918  0.0712 -0.2175
34429W        W77341   7.021  31.320  29.279 -0.4450  0.0506 -0.0700
34430W        W77342   3.239  30.094  29.042  0.0487 -0.4040 -0.2550
34431W        W77343   3.354  30.765  28.271 -0.3311  0.3408 -0.1090
34432W        W77344   5.181  32.802  30.304  0.1503  0.2702 -0.4179
34433W        W77345   5.499  30.297  29.637  0.1669 -0.0724 -0.1688
34434W        W77346   4.016  30.005  27.917 -0.2364  0.1453  0.1568
34435W        W77347   7.859  31.912  29.983  0.0030  0.0618  0.0746
34436W        W77348   6.395  30.498  27.753 -0.1217 -0.3380 -0.2674
34437W        W77349   5.081  32.266  31.781 -0.0668 -0.1821 -0.0781
34438W        W77350   6.216  29.387  30.392 -0.0352 -0.0118  0.1501
34439W        W77351   7.641  30.538  30.292  0.0099  0.0360 -0.0493
34440W        W77352   7.061  30.479  30.165 -0.1295 -0.3496  0.1831
34441W        W77353   4.540  29.255  27.124  0.1169 -0.2684 -0.2256
34442W        W77354   5.518  32.788  29.663 -0.1493  0.0024  0.0382
34443W        W77355   3.007  31.867  28.406  0.0028  0.3324 -0.3035
34444W        W77356   4.391  31.604  28.590  0.0551  0.3875 -0.2491
34445W        W77357   4.990  30.695  29.509  0.3212 -0.1721  0.0077
34446W        W77358   5.704  28.708  29.927 -0.4959  0.2046  0.0857
34447W        W77359   3.338  30.260  31.305  0.0840  0.0460 -0.1735
34448W        W77360   6.642  30.337  30.410  0.1370  0.1219 -0.1391
34449W        W77361   3.516  29.379  27.082 -0.0011  0.0291 -0.2758
34450W        W77362   5.989  31.609  30.255 -0.1158  0.0779 -0.3656
34451W        W77363   5.057  29.405  28.550  0.1444 -0.0317  0.0174
34452W        W77364   7.369  29.258  28.388 -0.3780 -0.1215  0.0293
34453W        W77365   5.658  31.080  30.037  0.1084  0.0334  0.0109
34454W        W77366   6.503  29.866  29.148 -0.1116 -0.0688  0.0495
34455W        W77367   5.308  29.813  28.167  0.1131 -0.1466  0.1271
34456W        W77368   5.588  29.296  28.028 -0.1495 -0.3102 -0.2599
34457W        W77369   3.717  32.406  31.617 -0.0699  0.0993 -0.5596
34458W        W77370   6.280  30.635  28.969 -0.1308 -0.5016 -0.2402
34459W        W77371   6.176  30.307  29.779 -0.1067  0.0782 -0.2651
34460W        W77372   5.033  30.210  28.109 -0.3041 -0.1231 -0.0353
34461W        W77373   6.871  30.857  28.286  0.3583 -0.3023 -0.0289
34462W        W77374   3.531  31.602  29.793 -0.0819  0.1278  0.1586
34463W        W77375   5.152  31.030  30.376 -0.2598 -0.1531  0.1081
34464W        W77376   6.616  31.214  29.575 -0.5175 -0.0224  0.1603
34465W        W77377   5.522  28.864  30.763 -0.3489 -0.3006  0.0087
34466W        W77378   4.064  31.162  27.899  0.0825 -0.1164  0.1714
34467W        W77379   4.298  27.938  29.320  0.1667  0.2193  0.0389
34468W        W77380   3.039  32.164  27.992 -0.1550 -0.1810 -0.1638
34469W        W77381   7.156  28.357  29.651 -0.1106  0.1692 -0.0986
34470W        W77382   3.985  29.226  29.683 -0.3604 -0.0599  0.2429
34471W        W77383   5.540  28.234  31.731 -0.0641  0.0030 -0.2103
34472W        W77384   7.195  29.506   0.368 -0.2207  0.0743 -0.2738
34473W        W77385   7.599  31.527  27.999  0.0237 -0.1222  0.0202
34474W        W77386   5.708  29.496  29.246  0.0157 -0.1574  0.1751
34475W        W77387   3.835  31.610  26.616  0.0099 -0.1254 -0.2898
34476W        W77388   5.367  29.726  30.365  0.0391  0.0873 -0.1248
34477W        W77389   3.728  30.807  29.448 -0.1769 -0.2854  0.2972
34478W        W77390   4.375  31.809  29.953 -0.0511  0.3416 -0.0425
34479W        W77391   6.169  32.408  30.583 -0.0620  0.1157  0.0589
34480W        W77392   7.067  29.276  30.849 -0.2461  0.1217 -0.0008
34481W        W77393   6.759  29.233  31.264 -0.1168 -0.3144 -0.2919
34482W        W77394   5.656  30.423  28.795 -0.0429  0.2616 -0.0733
34483W        W77395   4.310  32.400  27.657 -0.0063  0.2120  0.1473
34484W        W77396   4.568  31.995  28.215 -0.3630 -0.1600 -0.3347
34485W        W77397   4.885  29.047  29.544  0.1396 -0.4029  0.0918
34486W        W77398   6.049  32.620  28.461  0.0865  0.2007  0.2175
34487W        W77399   5.733  32.704  26.946 -0.0581  0.0914  0.1229
34488W        W77400   7.273  30.847  30.419  0.3831 -0.0254  0.1164
34489W        W77401   3.516  31.388  28.838 -0.0383 -0.0053  0.2547
34490W        W77402   5.872  29.007  30.440  0.2333 -0.1245 -0.2297
34491W        W77403   4.664  33.069  27.910  0.0395  0.0276  0.1100
34492W        W77404   3.844  28.556  27.904 -0.0847 -0.2434  0.0984
34493W        W77405   2.701  30.053  29.020 -0.0217 -0.2792 -0.2362
34494W        W77406   6.451  29.028  28.669 -0.1009  0.1449 -0.1217
34495W        W77407   6.919  30.716  28.841 -0.0147  0.2372  0.2209
34496W        W77408   4.493  29.417  29.807  0.0259 -0.0218 -0.1456
34497W        W77409   5.513  28.406  29.297 -0.1502 -0.1491  0.0380
34498W        W77410   3.303  31.934  28.776 -0.2787  0.0375  0.0107
34499W        W77411   5.304  30.689  29.996  0.1537 -0.1309 -0.2251
34500W        W77412   6.897  28.296  28.683  0.5698 -0.1384 -0.0191
34501W        W77413   6.613  32.132  30.460 -0.0039 -0.0057  0.0161
34502W        W77414   4.452  32.369   0.092 -0.0776 -0.0074  0.3193
34503W        W77415   3.540  29.838  28.284 -0.1793  0.0467  0.2366
34504W        W77416   7.793  29.664  30.820  0.0157 -0.0754  0.0500
34505W        W77417   3.936  29.030  28.699 -0.1022  0.0469  0.0292
34506W        W77418   3.507  31.870  28.319  0.1996  0.0907 -0.1333
34507W        W77419   6.949  31.538  29.895 -0.1984 -0.2710  0.1925
34508W        W77420   3.610  30.876  28.715 -0.0538 -0.0000  0.2931
34509W        W77421   3.759  31.981  27.678  0.0685  0.1151  0.0106
34510W        W77422   4.143  29.472  31.805 -0.3048 -0.1747 -0.0762
34511W        W77423   6.730  30.756  31.102  0.1111 -0.0535 -0.1747
34512W        W77424   3.864  29.538  29.311  0.1639 -0.2974 -0.0801
34513W        W77425   3.076  29.077  28.884  0.1639  0.0231  0.0815
34514W        W77426   5.091  31.068  28.160 -0.0405 -0.0543  0.0543
34515W        W77427   5.807  30.569  30.000  0.0216  0.1176 -0.2054
34516W        W77428   6.239  31.169  30.389  0.1669 -0.0501 -0.0687
34517W        W77429   4.755  31.297  30.915 -0.1812 -0.0048 -0.2784
34518W        W77430   4.709  29.681  28.400  0.1766  0.0847  0.2496
34519W        W77431   7.978  31.669  28.885 -0.0309  0.2039  0.0237
34520W        W77432   5.013  30.439  31.093 -0.2025 -0.0247 -0.2074
34521W        W77433   3.859  31.825  28.751 -0.1263 -0.0680  0.0845
34522W        W77434   3.851  31.420  31.192 -0.0563  0.2049 -0.2151
34523W        W77435   3.101  30.647  27.172 -0.0862 -0.3341 -0.1051
34524W        W77436   5.998  29.855  30.456  0.0466  0.1833  0.0791
34525W        W77437   5.499  32.420  30.097 -0.6222 -0.0962  0.4944
34526W        W77438   5.225  31.454  27.753  0.0371 -0.2699 -0.1584
34527W        W77439   4.681  31.283  29.500  0.1375  0.1804  0.0711
34528W        W77440   7.828  28.783  27.821  0.0523 -0.0011  0.2958
34529W        W77441   6.626  32.612  28.459 -0.0629  0.4771  0.0772
34530W        W77442   5.433  30.775  29.102 -0.4443  0.0430 -0.0091
34531W        W77443   6.589  29.413  30.748 -0.0666 -0.3242  0.0318
34532W        W77444   6.134  30.171  29.017  0.0107  0.1090  0.1877
34533W        W77445   5.231  30.121  30.681  0.2181 -0.0449  0.1276
34534W        W77446   4.271  30.207  29.920 -0.1044  0.0639 -0.1379
34535W        W77447   6.493  31.621  30.429 -0.0532  0.0390 -0.1569
34536W        W77448   3.325  29.384  30.246 -0.2117 -0.1064  0.1646
34537W        W77449   5.222  31.786  31.758  0.0378  0.3246 -0.1899
34538W        W77450   3.962  31.462  31.698 -0.0269 -0.0194  0.1894
34539W        W77451   4.631  30.373  29.422 -0.0099  0.1095 -0.3556
34540W        W77452   5.216  29.031  27.821 -0.0332  0.0954  0.1049
34541W        W77453   5.598  30.795  29.579 -0.1345 -0.1490 -0.0935
34542W        W77454   8.266  30.638  30.224 -0.1845  0.3149 -0.0814
34543W        W77455   5.260  30.600  28.371  0.0421 -0.2463  0.0792
34544W        W77456   6.719  30.259  28.902  0.2806 -0.0461 -0.1435
34545W        W77457   3.343  31.144  30.090 -0.0919 -0.3122 -0.0558
34546W        W77458   7.007  29.816  29.176 -0.1250  0.0064 -0.1012
34547W        W77459   5.206  30.996  28.660 -0.0725  0.4300  0.0553
34548W        W77460   5.249  30.108  28.632 -0.2418  0.0383 -0.2023
34549W        W77461   4.350  29.355  30.529 -0.0374  0.2526 -0.0577
34550W        W77462   7.149  30.451  30.648  0.2968  0.1942 -0.2775
34551W        W77463   5.107  28.799  28.301 -0.2196 -0.1351 -0.1527
34552W        W77464   5.727  29.968  28.800 -0.0623 -0.0471  0.4058
34553W        W77465   6.627  29.526  29.999  0.2422  0.1151  0.1982
34554W        W77466   4.641  30.796  31.098 -0.0024 -0.2723 -0.0012
34555W        W77467   4.476  29.051  31.202  0.2615  0.1566 -0.0308
34556W        W77468   7.351  32.066  30.631 -0.1208 -0.0039  0.3447
34557W        W77469   6.392  31.251  28.443  0.0908  0.0941  0.1300
34558W        W77470   5.945  29.079  30.990  0.2120 -0.0948  0.0074
34559W        W77471   7.112  31.176  28.800  0.0639 -0.4264 -0.0542
34560W        W77472   6.881  29.815  28.702  0.0887  0.1398 -0.1405
34561W        W77473   3.436  30.445  29.302  0.1245 -0.1389 -0.0672
34562W        W77474   6.343  30.601  30.725  0.0377 -0.2600  0.1912
34563W        W77475   5.064  28.762  29.074  0.0638 -0.3941  0.0699
34564W        W77476   6.929  28.612  31.485  0.3029 -0.0386  0.2280
34565W        W77477   4.458  31.426  27.253  0.1648 -0.1039 -0.0321
34566W        W77478   6.524  31.713  29.696  0.0038 -0.3122 -0.4002
34567W        W77479   5.610  28.697  28.294 -0.2144 -0.0195 -0.3046
34568W        W77480   3.100  29.486  28.405  0.0317 -0.2323  0.0784
34569W        W77481   5.470  31.701  30.491 -0.0120  0.0217  0.1167
34570W        W77482   3.171  30.444  28.649 -0.1179  0.2277  0.1929
34571W        W77483   4.216  30.285  27.463 -0.3834  0.3629 -0.0861
34572W        W77484   6.389  30.684  30.130 -0.1279  0.0245 -0.2817
34573W        W77485   6.053  31.267  31.335  0.3084  0.2843  0.0670
34574W        W77486   4.279  28.890  27.893 -0.2263 -0.3177  0.0330
34575W        W77487   7.805  29.673  30.130  0.0647  0.0356 -0.2679
34576W        W77488   4.973  31.966  27.817  0.0007  0.0405 -0.0012
34577W        W77489   4.930  29.262  29.015 -0.1371  0.1933  0.0165
34578W        W77490   4.265  32.119  28.616 -0.3316  0.1197 -0.2187
34579W        W77491   3.504  32.483  28.897 -0.0799 -0.0406 -0.0839
34580W        W77492   6.122  31.443  28.909 -0.0975  0.0824 -0.2443
34581W        W77493   6.174  28.053  31.173 -0.0104 -0.1456 -0.0105
34582W        W77494   6.149  29.571  29.581 -0.2022  0.1654  0.1618
34583W        W77495   6.483  29.849  30.457 -0.1152 -0.1439  0.3150
34584W        W77496   8.264  29.942   0.076 -0.0662 -0.2756 -0.1061
34585W        W77497   6.036  31.791  29.721  0.1237  0.3744 -0.0783
34586W        W77498   5.200  30.168  30.156 -0.0174  0.1200 -0.2479
34587W        W77499   5.949  30.982  29.204 -0.1819 -0.1729  0.2074
34588W        W77500   7.499  31.628  30.415  0.3094 -0.1640  0.0867
34589W        W77501   4.416  31.475  30.350  0.2471 -0.3125  0.1563
34590W        W77502   3.353  29.735  31.377 -0.3216 -0.1866 -0.0018
34591W        W77503   5.999  30.655  31.748 -0.0451 -0.1558 -0.0621
34592W        W77504   6.812  29.980  30.034 -0.0243  0.0265 -0.1248
34593W        W77505   3.582  29.138  29.035  0.0318  0.3382  0.0231
34594W        W77506   5.412  30.912  27.188 -0.4291  0.2293  0.0585
34595W        W77507   3.804  30.878  31.458 -0.2348 -0.3175  0.1710
34596W        W77508   3.004  32.562  31.157 -0.0273 -0.1355  0.1988
34597W        W77509   5.292  32.437  27.842 -0.0163  0.1657  0.1759
34598W        W77510   7.632  30.493  28.416  0.0047  0.0842  0.0774
34599W        W77511   6.835  30.769  29.383 -0.4446  0.4210 -0.3227
34600W        W77512   5.608  31.872  29.354  0.1005 -0.3550  0.0269
34601W        W77513   4.430  30.524  27.092 -0.1922  0.2331  0.0569
34602W        W77514   3.413  31.590  30.264  0.4247 -0.2356  0.0283
34603W        W77515   2.940  32.225  27.173  0.2896 -0.1336 -0.0734
34604W        W77516   5.406  31.878  28.730  0.2834 -0.0580  0.2196
34605W        W77517   3.649  34.226  28.223 -0.0674  0.3086  0.2570
34606W        W77518   7.012  31.805  30.399  0.0285 -0.0963 -0.0368
34607W        W77519   6.158  28.757  27.344  0.0187 -0.0844 -0.0251
34608W        W77520   6.776  31.823  28.204 -0.1746  0.0126  0.0100
34609W        W77521   6.977  29.915  27.833 -0.0365  0.1348  0.1849
34610W        W77522   5.870  31.947  28.821  0.1059  0.1894 -0.0193
34611W        W77523   4.415  30.604  30.342  0.1613  0.0614  0.0270
34612W        W77524   4.691  30.497  27.519 -0.1295 -0.1434  0.0519
34613W        W77525   4.635  30.951  30.569 -0.2227 -0.0582  0.2361
34614W        W77526   7.232  29.421  31.317  0.1654 -0.0518 -0.0345
34615W        W77527   4.565  32.393  31.560  0.1414  0.1372 -0.1572
34616W        W77528   7.999  31.511  30.447  0.1026 -0.1000 -0.0486
34617W        W77529   3.558  30.790  27.291 -0.1089  0.1621  0.2301
34618W        W77530   4.997  29.714  30.029  0.0178 -0.2607  0.0063
34619W        W77531   7.922  29.241  31.285  0.3268 -0.1791 -0.0169
34620W        W77532   6.234  32.137  28.480  0.0314  0.0783  0.0529
34621W        W77533   6.025  28.468  28.103 -0.2522  0.0202 -0.0234
34622W        W77534   5.450  32.940  27.781 -0.1067 -0.3043 -0.1439
34623W        W77535   6.052  32.587  29.465  0.0536 -0.0725 -0.1261
34624W        W77536   5.438  32.348  29.312 -0.0072  0.2535  0.2930
34625W        W77537   3.702  29.968  28.799  0.0198  0.0957 -0.0896
34626W        W77538   6.843  30.337  27.807  0.0857 -0.0427  0.0132
34627W        W77539   3.829  30.636  30.459 -0.1630 -0.1170 -0.0050
34628W        W77540   6.884  28.498  30.028  0.3064  0.1133 -0.1806
34629W        W77541   3.815  32.315  28.542 -0.1357  0.0385 -0.0186
34630W        W77542   6.681  28.951  29.143 -0.0235  0.2292  0.0691
34631W        W77543   5.058  31.522  31.294  0.1422  0.0856  0.0420
34632W        W77544   4.947  30.612  30.362 -0.1723  0.2642 -0.0576
34633W        W77545   5.959  30.221  27.825  0.3645  0.0765  0.0823
34634W        W77546   6.888  31.476  31.204 -0.2122 -0.2041 -0.1562
34635W        W77547   6.264  31.180  27.857  0.2776 -0.0185 -0.1755
34636W        W77548   6.599  32.639  30.743 -0.1961 -0.2373 -0.1931
34637W        W77549   4.032  28.503  30.080  0.0951 -0.1304 -0.3915
34638W        W77550   4.633  29.149  28.250  0.0866  0.0765 -0.0933
34639W        W77551   4.965  30.056  29.045  0.0604  0.1332 -0.1821
34640W        W77552   4.724  30.102  30.328  0.1884 -0.4037 -0.2983
34641W        W77553   7.208  31.911  31.224  0.0668 -0.4036  0.2679
34642W        W77554   3.440  28.413  29.821  0.0208 -0.1098  0.1640
34643W        W77555   7.636  31.439  28.569 -0.1980 -0.0279  0.0668
34644W        W77556   7.016  29.116  29.513 -0.1812 -0.1161 -0.0254
34645W        W77557   5.223  32.685  27.407 -0.3908  0.0599  0.1811
34646W        W77558   7.107  30.010  29.604 -0.1820  0.1659  0.0613
34647W        W77559   7.170  31.750  29.491  0.0521 -0.0532 -0.0881
34648W        W77560   3.151  31.014  28.675 -0.1657  0.1069  0.0829
34649W        W77561   6.566  31.143  29.003 -0.2541  0.0062  0.2394
34650W        W77562   7.864  32.058  30.420 -0.0485  0.1391 -0.1018
34651W        W77563   6.460  29.106  29.661  0.3655 -0.2316 -0.1616
34652W        W77564   4.477  30.753  29.810  0.3897 -0.2162  0.0694
34653W        W77565   3.736  31.719  27.120 -0.0537 -0.1146 -0.0037
34654W        W77566   7.954  30.018  29.272  0.3747 -0.3280  0.0155
34655W        W77567   7.629  30.975  31.322 -0.0483  0.0770  0.3094
34656W        W77568   5.216  32.854  28.812 -0.3293 -0.1813  0.0528
34657W        W77569   6.348  28.561  29.894  0.0044  0.2311 -0.1307
34658W        W77570   5.429  30.617  30.487  0.0167  0.1986 -0.0944
34659W        W77571   2.622  32.381   0.324 -0.1579  0.0923  0.0903
34660W        W77572   3.483  31.258  27.045  0.1823  0.0702  0.0176
34661W        W77573   6.319  30.120  30.805  0.1322 -0.3069  0.2249
34662W        W77574   5.595  30.963  28.237  0.2615 -0.0648  0.0568
34663W        W77575   5.505  33.134  27.295 -0.0060  0.2897  0.4249
34664W        W77576   6.560  32.544  30.223 -0.0138 -0.1264 -0.1296
34665W        W77577   4.786  31.279  28.567 -0.0772  0.1800  0.2835
34666W        W77578   8.431  30.734  29.743  0.0572  0.2001  0.2786
34667W        W77579   4.540  28.896  29.160  0.0240  0.1833 -0.1132
34668W        W77580   7.116  29.665  28.243 -0.1390 -0.5887 -0.0587
34669W        W77581   7.423  29.190  27.864  0.2866 -0.1453  0.2995
34670W        W77582   4.647  31.956  30.366 -0.0316  0.1817  0.2136
34671W        W77583   2.982  29.796  27.484 -0.1205 -0.0023  0.1116
34672W        W77584   4.878  31.588  28.148  0.1947  0.0665  0.1092
34673W        W77585   5.902  30.471  29.367  0.0012  0.2258  0.1243
34674W        W77586   4.891  29.657  30.532  0.1766  0.1514 -0.0267
34675W        W77587   3.784  31.690  30.765 -0.1732  0.0640  0.0276
34676W        W77588   5.188  32.354  28.748 -0.2463  0.0275  0.0470
34677W        W77589   3.861  28.660  29.007  0.0204 -0.3256 -0.2271
34678W        W77590   7.448  31.519  29.009 -0.0940 -0.0545 -0.2505
34679W        W77591   4.401  29.210  28.820  0.1626  0.2726  0.1018
34680W        W77592   4.581  31.466  29.042 -0.2691  0.0605  0.1208
34681W        W77593   6.004  30.539  28.447  0.2283 -0.0674  0.0872
34682W        W77594   8.152  31.085  29.584  0.1034 -0.0581  0.0461
34683W        W77595   3.946  30.678  28.215  0.0478 -0.1539  0.3103
34684W        W77596   6.468  32.429   1.740 -0.1363  0.1108  0.0249
34685W        W77597   2.899  31.250  27.057  0.0633 -0.0839 -0.0848
34686W        W77598   4.250  30.657  31.321 -0.1527 -0.2556 -0.0956
34687W        W77599   4.152  30.226  30.442 -0.0269 -0.1480  0.2681
34688W        W77600   4.013  28.653  28.357 -0.1173  0.0287 -0.0999
34689W        W77601   6.473  30.342  29.363  0.1029 -0.0125 -0.0717
34690W        W77602   5.581  31.352  29.141  0.1297  0.1102 -0.3594
34691W        W77603   6.600  33.459  28.432  0.0134  0.0381 -0.1030
34692W        W77604   6.268  30.786  29.531  0.3132  0.0422  0.1154
34693W        W77605   5.561  31.842  30.021  0.0686  0.1394  0.1895
34694W        W77606   3.963  29.036  31.583  0.4097  0.0715  0.0671
34695W        W77607   8.824  30.572  30.123  0.0430 -0.0656  0.2799
34696W        W77608   6.426  31.611  31.015  0.0523 -0.0644  0.0213
34697W        W77609   7.438  32.286  28.315  0.0141  0.1429 -0.3127
34698W        W77610   7.020  29.344  29.040  0.0385 -0.2664 -0.0085
34699W        W77611   6.121  28.752  29.502 -0.0668 -0.0162  0.0997
34700W        W77612   4.387  28.277  29.766 -0.0116 -0.2606  0.1246
34701W        W77613   4.296  31.284  30.766 -0.1375 -0.3623 -0.3363
34702W        W77614   6.802  31.265  30.769  0.0185 -0.1975 -0.3129
34703W        W77615   4.381  29.941  29.277  0.0908  0.1419  0.0275
34704W        W77616   6.170  29.171  29.148 -0.0132 -0.4013 -0.4043
34705W        W77617   5.728  31.953  28.324  0.0622 -0.0069  0.1571
34706W        W77618   4.185  30.760  30.772 -0.2494 -0.0539  0.3996
34707W        W77619   5.538  31.092  27.731  0.2671 -0.0571  0.2445
34708W        W77620   6.148  30.334  30.300 -0.0305  0.2894 -0.2212
34709W        W77621   6.595  31.198  30.065  0.0746 -0.0513  0.0014
34710W        W77622   5.791  30.928  30.908 -0.3211  0.0085  0.3481
34711W        W77623   4.866  30.660  27.989 -0.1542  0.0962 -0.0436
34712W        W77624   6.873  30.827  27.621 -0.1118 -0.0325  0.1421
34713W        W77625   4.490  32.574  28.124 -0.3179  0.0256  0.0953
34714W        W77626   7.739  32.257  31.814 -0.2524 -0.0280 -0.2553
34715W        W77627   4.198  31.439  29.430 -0.0914 -0.1825 -0.2006
34716W        W77628   7.983  30.519  29.748 -0.1658  0.2572 -0.2130
34717W        W77629   3.250  28.938  29.870 -0.0152 -0.0536  0.1087
34718W        W77630   5.087  30.874  27.571  0.0449  0.0884 -0.1622
34719W        W77631   6.511  30.468  28.548  0.0375  0.2521  0.1921
34720W        W77632   5.429  28.857  29.546  0.0055 -0.2455  0.0414
34721W        W77633   4.246  30.078  28.826 -0.0780  0.3509  0.1471
34722W        W77634   4.790  28.909  28.664 -0.0354  0.1599 -0.2636
34723W        W77635   4.401  33.080  30.598 -0.0499 -0.2732 -0.1025
34724W        W77636   7.209  31.590  30.831  0.0343 -0.1083 -0.1584
34725W        W77637   5.784  29.847  31.528 -0.1749 -0.0297  0.1645
34726W        W77638   5.386  29.548   0.156  0.1708 -0.0174  0.1753
34727W        W77639   4.565  30.399  30.792  0.1463  0.1959  0.1116
34728W        W77640   3.527  32.031  31.921  0.0239  0.1031 -0.0041
34729W        W77641   5.772  32.111  30.539  0.0307  0.1855 -0.2146
34730W        W77642   5.279  32.261  30.532  0.1431  0.0215 -0.3152
34731W        W77643   6.330  31.122  30.928  0.1572  0.0161 -0.0938
34732W        W77644   4.773  30.002  30.956 -0.2596  0.0809  0.2917
34733W        W77645   7.306  28.893  31.348 -0.2104 -0.2034  0.1331
34734W        W77646   6.758  30.414  31.454 -0.2740  0.2651 -0.1993
34735W        W77647   5.357  31.246  31.595  0.4073 -0.0744 -0.1608
34736W        W77648   4.407  29.847  30.653  0.0813 -0.0527 -0.1637
34737W        W77649   6.960  30.335  31.890  0.0781 -0.1003  0.1528
34738W        W77650   4.179  31.051  30.264  0.0353  0.0388  0.1341
34739W        W77651   5.810  32.256  31.009 -0.1232 -0.2313 -0.0512
34740W        W77652   4.428  33.022  31.922 -0.1015 -0.2754 -0.1139
34741W        W77653   4.955  31.387   0.104  0.1772 -0.3798 -0.0273
34742W        W77654   6.777  31.905  30.860 -0.2549  0.1273 -0.1638
34743W        W77655   3.824  29.270   0.198 -0.0554  0.0198 -0.0417
34744W        W77656   3.484  28.821  31.585 -0.0731 -0.1012 -0.2672
34745W        W77657   4.073  29.342  30.128  0.0682 -0.2233  0.2313
34746W        W77658   3.850  32.180  30.810  0.3455  0.0484 -0.0866
34747W        W77659   7.195  28.935  30.506  0.1297  0.2831  0.0357
34748W        W77660   6.891  29.394  30.377 -0.2057 -0.2899 -0.0158
34749W        W77661   5.559  30.114   0.089  0.3185 -0.0355 -0.0792
34750W        W77662   3.536  30.753  30.860  0.1239  0.1863  0.0930
34751W        W77663   4.755  31.338  31.659  0.0401 -0.1582  0.2543
34752W        W77664   5.630  32.620  30.507  0.2196 -0.0753  0.0678
34753W        W77665   5.124  31.920  30.182  0.1265 -0.1155  0.4000
34754W        W77666   5.033  30.987  31.321 -0.1518  0.0088 -0.1327
34755W        W77667   5.212  30.908  30.852 -0.0361  0.3336 -0.1663
34756W        W77668   3.997  30.681  29.994 -0.1407 -0.1247  0.1304
34757W        W77669   7.729  30.500  31.359  0.1249  0.2961  0.1806
34758W        W77670   6.981  29.958  31.551 -0.0330 -0.2651 -0.1487
34759W        W77671   2.850  29.161  31.700  0.0622 -0.1779  0.3285
34760W        W77672   6.310  31.108  31.843  0.0084 -0.0917 -0.0316
34761W        W77673   4.885  29.810  31.435  0.3265 -0.5397  0.0733
34762W        W77674   6.739  30.215   0.487 -0.0770  0.1016  0.1383
34763W        W77675   5.716  30.341  31.460  0.2567  0.3150  0.1152
34764W        W77676   7.072  31.078  31.395  0.0830 -0.4549 -0.1196
34765W        W77677   7.144  29.557  31.867  0.1436 -0.1817  0.0655
34766W        W77678   7.444  30.104  31.532  0.0222 -0.1246 -0.5807
34767W        W77679   4.466  29.596  31.451 -0.0748  0.2849 -0.1564
34768W        W77680   5.549  31.532   0.183 -0.0283 -0.1423  0.0550
34769W        W77681   3.723  30.081  30.290 -0.1342 -0.0001  0.1731
34770W        W77682   5.595  30.855  31.367 -0.2127  0.2185 -0.0735
34771W        W77683   5.464  29.009  31.236  0.2695  0.1910 -0.2190
34772W        W77684   6.203  31.904  30.682 -0.0798  0.1918  0.0543
34773W        W77685   6.281  30.790  31.350  0.2306 -0.1845 -0.2320
34774W        W77686   4.258  32.201   1.226  0.1014  0.3227  0.4155
34775W        W77687   6.692  31.874  31.438 -0.0280 -0.3471 -0.0705
34776W        W77688   5.506  27.592  30.735 -0.0635 -0.0192 -0.2628
34777W        W77689   3.986  30.334  30.917  0.0797 -0.1506  0.1027
34778W        W77690   6.187  29.856  30.018  0.0543  0.1557  0.2564
34779W        W77691   5.237  29.486  31.447  0.1663 -0.1178 -0.0004
34780W        W77692   6.714  30.415  29.797  0.0408 -0.0449  0.0507
34781W        W77693   8.507  31.841   0.092 -0.3182 -0.1774 -0.0422
34782W        W77694   5.062  32.608  29.807 -0.0941  0.1372 -0.1952
34783W        W77695   4.640  31.898  31.782  0.0598 -0.1233  0.1814
34784W        W77696   3.808  30.302  31.428  0.0110 -0.2188 -0.1507
34785W        W77697   3.985  28.305  31.941 -0.2410  0.3126  0.0295
34786W        W77698   6.025  31.891  31.237  0.0327  0.3913 -0.0977
34787W        W77699   3.426  31.574  31.710  0.2950  0.3290  0.0453
34788W        W77700   4.101  29.327  31.146  0.2144  0.1878  0.1548
34789W        W77701   6.245  31.683   1.268 -0.2388 -0.1391  0.4690
34790W        W77702   7.641  31.319  30.785 -0.1780  0.0912 -0.2407
34791W        W77703   8.540  30.221   0.467  0.3224 -0.0483  0.0220
34792W        W77704   3.942  34.221  16.679 -0.0899  0.0260  0.2582
34793W        W77705   8.157  33.899  15.798  0.0137  0.0957  0.3199
34794W        W77706   7.282   0.740  16.766 -0.1214 -0.0754  0.2236
34795W        W77707   3.196  34.001  18.448 -0.1726  0.2983  0.1259
34796W        W77708   4.917  32.912  19.146 -0.0269 -0.2182  0.2973
34797W        W77709   7.134  34.539  15.669 -0.1740  0.1859  0.0974
34798W        W77710   5.567  32.975  20.053  0.0307 -0.2182  0.0685
34799W        W77711   5.694  32.673  16.584 -0.2129  0.2762 -0.0242
34800W        W77712   3.886  32.673  17.386  0.0748 -0.2386 -0.0353
34801W        W77713   5.945   0.231  17.391 -0.1763  0.2195 -0.4351
34802W        W77714   4.439   0.194  15.992  0.1461  0.1368  0.0508
34803W        W77715   4.723  32.840  17.996  0.3372 -0.0283  0.0441
34804W        W77716   4.656  34.235  17.303 -0.0373  0.3011  0.2057
34805W        W77717   6.385  32.779  19.792 -0.2629 -0.0794 -0.3482
34806W        W77718   7.581  32.743  18.711  0.1682  0.0306  0.0815
34807W        W77719   4.140  33.647  16.687  0.0876  0.1199 -0.1075
34808W        W77720   3.600  34.288  18.234 -0.1503  0.0994 -0.0664
34809W        W77721   4.123   0.138  17.907 -0.5348 -0.1881 -0.3662
34810W        W77722   6.692  33.695  16.801  0.1952  0.0131 -0.0101
34811W        W77723   7.201  34.568  16.518  0.1443  0.3404  0.0794
34812W        W77724   5.275  33.229  18.974  0.1533  0.1798  0.0111
34813W        W77725   6.713   1.594  18.382  0.2625  0.0796  0.1675
34814W        W77726   6.155  33.592  17.892 -0.2697 -0.2048  0.3854
34815W        W77727   7.150  33.336  18.243 -0.2615  0.2772 -0.0050
34816W        W77728   7.508  33.996  16.457  0.1805 -0.0136 -0.0395
34817W        W77729   5.434  33.160  15.919  0.0394  0.1293  0.0973
34818W        W77730   6.412  33.286  15.618 -0.0688 -0.0135 -0.2267
34819W        W77731   5.102  32.800  17.688 -0.2314  0.0538  0.0955
34820W        W77732   5.924  33.191  17.699 -0.1943 -0.1338 -0.0543
34821W        W77733   4.644   0.060  18.212 -0.2398 -0.0993  0.3611
34822W        W77734   4.903   0.547  18.255 -0.1639  0.0472 -0.1718
34823W        W77735   3.394   0.269  18.717  0.0957  0.3931 -0.0698
34824W        W77736   2.923  34.386  17.309 -0.2859  0.0645  0.0840
34825W        W77737   5.100   0.553  19.170 -0.2279 -0.2202  0.2018
34826W        W77738   5.098  34.307  19.143 -0.1035 -0.1773  0.0132
34827W        W77739   3.718  32.551  16.867  0.0034  0.0386 -0.3146
34828W        W77740   7.042  33.527  17.190  0.1516 -0.2864  0.3188
34829W        W77741   5.772  32.719  17.072  0.0819 -0.1391  0.0323
34830W        W77742   6.016  33.133  18.256 -0.0336 -0.1439 -0.3443
34831W        W77743   8.103  34.497  15.658  0.2265 -0.2715  0.0832
34832W        W77744   5.271  33.813  19.111  0.0599 -0.1457 -0.3279
34833W        W77745   3.696  32.774  18.534  0.0124  0.1083 -0.0371
34834W        W77746   7.471  32.521  15.716  0.2612  0.0797  0.3528
34835W        W77747   3.185  33.391  17.658  0.1590  0.0291 -0.1345
34836W        W77748   7.819  32.997  17.142 -0.3410  0.1365  0.0033
34837W        W77749   6.854  32.850  16.473 -0.0571  0.1002  0.3702
34838W        W77750   4.433   0.447  19.446 -0.0946 -0.0680  0.1084
34839W        W77751   3.786  33.996  17.401  0.0368 -0.0412  0.1698
34840W        W77752   5.501  32.514  19.932 -0.3320  0.1369  0.2325
34841W        W77753   3.664  32.958  19.027 -0.0241  0.1296  0.2294
34842W        W77754   6.411  33.355  18.510 -0.0816  0.0408 -0.0640
34843W        W77755   2.888  32.734  16.356 -0.0603 -0.4116 -0.2283
34844W        W77756   6.315  33.313  16.052 -0.0304 -0.1130  0.0610
34845W        W77757   5.183   0.042  16.659 -0.3521  0.1348 -0.3150
34846W        W77758   7.018  32.240  19.225  0.0078 -0.1484  0.3213
34847W        W77759   3.410  32.468  18.844 -0.0457 -0.1576 -0.1778
34848W        W77760   5.388  33.543  16.315 -0.1089 -0.1443 -0.3316
34849W        W77761   5.866  33.554  15.851 -0.0981 -0.0182  0.1026
34850W        W77762   7.573  33.217  17.991 -0.2725  0.1935 -0.4138
34851W        W77763   6.041  34.058  18.105  0.2933  0.2425  0.2237
34852W        W77764   4.275  33.308  15.733 -0.0634 -0.1369  0.0979
34853W        W77765   3.634  34.461  17.695 -0.2017  0.1817 -0.0853
34854W        W77766   6.156  33.540  17.370 -0.2282  0.1632 -0.3649
34855W        W77767   5.286   0.047  19.397  0.1898 -0.1898 -0.1264
34856W        W77768   5.933  34.392  19.556 -0.0274  0.2082 -0.3715
34857W        W77769   4.703   0.089  16.609 -0.1028 -0.0479  0.2087
34858W        W77770   7.275  33.008  16.440 -0.1371  0.0153 -0.1767
34859W        W77771   7.723  33.844  17.009 -0.3740  0.1632  0.1316
34860W        W77772   6.143  32.467  16.707 -0.2746 -0.0367 -0.0806
34861W        W77773   6.753  31.931  16.127  0.2737  0.1887  0.1050
34862W        W77774   6.684  32.938  16.014 -0.0310 -0.4380  0.2696
34863W        W77775   4.238  32.773  18.148  0.3815  0.2552 -0.2815
34864W        W77776   4.755  34.608  15.752 -0.0045  0.1388 -0.0409
34865W        W77777   5.560  32.878  17.482  0.0398 -0.2041 -0.1367
34866W        W77778   6.458  32.494  18.189 -0.3259  0.1701  0.1154
34867W        W77779   5.971  32.458  17.517 -0.0779  0.2815 -0.2021
34868W        W77780   5.274  33.634  18.248  0.1304 -0.0304  0.1946
34869W        W77781   7.210  34.233  19.781 -0.3941 -0.0315 -0.1723
34870W        W77782   6.377  33.750  16.339  0.2093 -0.2704 -0.1623
34871W        W77783   6.338   0.682  19.446 -0.2694  0.0468 -0.2562
34872W        W77784   5.895  33.625  16.440 -0.0850  0.3585 -0.1527
34873W        W77785   4.973  32.731  19.807  0.0735 -0.0784 -0.3851
34874W        W77786   4.892  33.462  19.372 -0.3628  0.1677 -0.2166
34875W        W77787   5.821  33.185  17.211 -0.2157  0.1257 -0.1542
34876W        W77788   5.120  32.172  18.578 -0.1641  0.2001  0.1449
34877W        W77789   6.632  33.552  17.575 -0.3079 -0.0675 -0.1472
34878W        W77790   5.259  34.362  17.363 -0.2138 -0.1814  0.0540
34879W        W77791   4.331  34.404  15.750 -0.0392  0.2947 -0.1989
34880W        W77792   5.592  32.556  15.683 -0.0140  0.3256  0.1314
34881W        W77793   3.404  32.935  17.614 -0.1035 -0.0633  0.1308
34882W        W77794   4.903  33.268  17.815 -0.1695  0.1855 -0.0426
34883W        W77795   5.990  33.709  18.483  0.0667  0.0128 -0.1995
34884W        W77796   6.842  32.080  17.134  0.1018 -0.0961 -0.1695
34885W        W77797   5.354   1.029  19.074 -0.1527 -0.0982  0.1808
34886W        W77798   4.931  33.888  16.340  0.2864  0.0076  0.0373
34887W        W77799   6.700   0.128  18.814 -0.0942  0.1820  0.0492
34888W        W77800   4.022  34.029  18.431 -0.0128  0.1944  0.0495
34889W        W77801   5.115  34.195  15.907  0.0291  0.2582  0.2780
34890W        W77802   5.453  33.438  20.271  0.1773  0.0476 -0.0328
34891W        W77803   5.210  33.864  17.740  0.0429 -0.0736 -0.1604
34892W        W77804   5.038  34.576  18.464  0.4837 -0.1404  0.4879
34893W        W77805   6.396  32.403  17.160 -0.2804  0.1105  0.0518
34894W        W77806   4.853  34.090  18.677 -0.0573  0.1552 -0.0973
34895W        W77807   5.758  32.243  17.882  0.0319  0.1185 -0.0845
34896W        W77808   5.692  33.971  19.490  0.1086 -0.1718  0.0491
34897W        W77809   4.886  32.251  17.641  0.2403  0.1870 -0.2024
34898W        W77810   7.145  32.721  15.982  0.1566  0.1842  0.1091
34899W        W77811   6.019  32.562  18.429 -0.1543  0.1183  0.0191
34900W        W77812   7.612  33.186  18.492 -0.0354 -0.0380  0.0613
34901W        W77813   7.376  34.202  16.006 -0.3347  0.0535 -0.1103
34902W        W77814   5.418  32.078  20.455  0.0166 -0.0313  0.2864
34903W        W77815   3.498  33.054  18.140 -0.4196 -0.0128  0.3560
34904W        W77816   3.139  34.391  19.149 -0.1719  0.0819  0.1632
34905W        W77817   4.308   0.308  20.382 -0.1262  0.1210 -0.2660
34906W        W77818   6.130  32.693  17.878 -0.0278  0.0140  0.0223
34907W        W77819   4.553  33.113  16.085  0.0785 -0.1567  0.2047
34908W        W77820   3.680  34.477  18.684 -0.0617 -0.0532  0.3494
34909W        W77821   6.977  34.093  16.961  0.0091  0.0622  0.0474
34910W        W77822   3.796  34.296  19.832 -0.2825 -0.1709  0.3940
34911W        W77823   5.100   0.174  18.047  0.1698 -0.0500 -0.1402
34912W        W77824   4.450  32.149  20.277  0.1339 -0.0343  0.0477
34913W        W77825   6.340  33.262  17.050  0.1915  0.0787 -0.0955
34914W        W77826   6.555  33.609  19.208  0.0018 -0.1289 -0.0456
34915W        W77827   6.018   0.184  17.943 -0.3786 -0.2711 -0.4736
34916W        W77828   5.216   0.041  18.894 -0.1054  0.0396 -0.1026
34917W        W77829   5.007  33.337  19.850 -0.1536 -0.2201 -0.0441
34918W        W77830   7.492  34.523  15.252 -0.0766  0.3617 -0.1354
34919W        W77831   6.800  33.120  17.283  0.3411 -0.2512  0.0542
34920W        W77832   7.955  34.210  16.794 -0.4514 -0.1578 -0.0455
34921W        W77833   6.498  32.828  16.872 -0.1272  0.0821 -0.1626
34922W        W77834   4.309  33.829  18.008 -0.0306  0.1692  0.4268
34923W        W77835   6.415  34.483  19.566  0.0601 -0.2409  0.0590
34924W        W77836   3.834  31.507  16.621  0.1721 -0.3204 -0.0958
34925W        W77837   5.907  33.065  19.684 -0.2294 -0.1664 -0.2021
34926W        W77838   5.875  34.136  16.543 -0.3352  0.0889 -0.3002
34927W        W77839   2.866  33.831  16.427 -0.0783  0.0728  0.2390
34928W        W77840   4.202  32.787  15.864 -0.1874 -0.0994 -0.2370
34929W        W77841   5.044   0.414  16.347 -0.3295 -0.3451  0.1575
34930W        W77842   6.341  32.824  16.402 -0.2015  0.1360 -0.2170
34931W        W77843   5.655  32.931  19.140 -0.4080  0.1090  0.0767
34932W        W77844   6.296  32.426  18.832 -0.1274 -0.1589 -0.3344
34933W        W77845   5.442  33.237  17.953 -0.2106  0.2644  0.0404
34934W        W77846   7.632  34.059  17.691  0.2548  0.3416  0.3774
34935W        W77847   6.498  34.081  18.419  0.1610 -0.1417  0.0240
34936W        W77848   6.278  34.199  19.938  0.3923 -0.2787 -0.0949
34937W        W77849   4.199   1.101  18.306  0.1041 -0.2290  0.0765
34938W        W77850   3.729  33.893  20.096  0.1278  0.0180 -0.1058
34939W        W77851   7.453  32.609  17.270  0.2910 -0.1231 -0.1391
34940W        W77852   3.646  33.903  16.879 -0.0407  0.0419  0.0994
34941W        W77853   7.434  32.587  15.247  0.0257  0.2052  0.3777
34942W        W77854   6.443  34.502  18.011 -0.3168  0.0570  0.0656
34943W        W77855   7.296  33.012  16.993 -0.2205  0.1248 -0.0669
34944W        W77856   4.715  33.345  18.864 -0.0032 -0.1449  0.1021
34945W        W77857   4.616  32.505  16.297  0.1123 -0.1232 -0.1210
34946W        W77858   4.795  33.848  19.108  0.0150  0.0136 -0.2027
34947W        W77859   7.084  32.602  17.768 -0.0516 -0.4403 -0.1893
34948W        W77860   4.701  34.236  17.916 -0.1829  0.3229 -0.3265
34949W        W77861   5.044   0.916  17.278 -0.2161  0.1231 -0.0103
34950W        W77862   7.294  32.850  18.216  0.2709  0.1883 -0.1994
34951W        W77863   5.599  34.622  18.232  0.0040  0.2383  0.0500
34952W        W77864   3.832  33.124  16.627  0.0856  0.0482 -0.0574
34953W        W77865   7.470  34.327  16.842 -0.3737  0.0356  0.0858
34954W        W77866   4.506  33.569  18.479  0.2194  0.0174  0.0094
34955W        W77867   5.768  32.052  18.718  0.2176  0.1670 -0.1524
34956W        W77868   3.777   0.121  18.291 -0.1507  0.1031 -0.2465
34957W        W77869   7.459  33.712  15.700  0.0622  0.1232  0.1527
34958W        W77870   5.534  34.093  18.202  0.2811  0.0885  0.1149
34959W        W77871   5.082  33.906  17.147  0.1517 -0.1890  0.1783
34960W        W77872   5.947  34.224  18.652 -0.0980 -0.2850  0.0794
34961W        W77873   6.772  33.337  15.216 -0.1914  0.1120 -0.0755
34962W        W77874   3.891  33.554  17.161 -0.1336 -0.0202 -0.3090
34963W        W77875   4.912  34.369  16.711  0.2664 -0.1291  0.1114
34964W        W77876   4.378   0.440  18.277  0.0564 -0.0156  0.1496
34965W        W77877   5.975   0.163  18.433  0.2426 -0.1287  0.2487
34966W        W77878   5.289  33.919  16.676 -0.1040  0.1228 -0.0616
34967W        W77879   6.776  34.025  16.420  0.3062  0.1166 -0.5955
34968W        W77880   7.645   0.121  15.652  0.2268  0.2757 -0.1141
34969W        W77881   4.374  33.965  18.872 -0.6252  0.0342 -0.2067
34970W        W77882   7.145  31.874  16.754 -0.0414  0.1105 -0.2787
34971W        W77883   4.772  33.685  17.561  0.1464 -0.0221  0.3108
34972W        W77884   7.363  34.033  17.252  0.0219 -0.2715  0.0741
34973W        W77885   6.792   0.486  19.594  0.1806 -0.0034  0.0488
34974W        W77886   6.386  33.221  19.406  0.1435 -0.0862 -0.0769
34975W        W77887   6.434  34.013  17.750 -0.1905  0.3886  0.1381
34976W        W77888   4.434  34.451  16.841 -0.0495 -0.2707  0.0473
34977W        W77889   7.303  33.650  16.196 -0.2399 -0.0520 -0.1129
34978W        W77890   6.796  32.307  16.674  0.2505  0.0431 -0.1168
34979W        W77891   5.617  34.379  19.150  0.1882 -0.0190  0.1850
34980W        W77892   3.926  33.982  16.196 -0.1135  0.1751 -0.2012
34981W        W77893   5.369  33.145  19.520  0.0968  0.0504  0.0415
34982W        W77894   4.185  34.400  18.877  0.1717 -0.1601  0.2913
34983W        W77895   4.217  34.668  18.450  0.0922  0.0282  0.0700
34984W        W77896   4.645  33.447  16.586 -0.3843  0.1695 -0.1081
34985W        W77897   4.801  32.514  18.400  0.1608 -0.0344 -0.3959
34986W        W77898   3.271  32.572  18.315 -0.1644  0.1680 -0.0791
34987W        W77899   5.479  34.363  16.811 -0.1056  0.4566  0.1393
34988W        W77900   4.939   0.351  19.607  0.3453 -0.0032 -0.0069
34989W        W77901   5.445  33.600  19.704 -0.2154 -0.2090 -0.0442
34990W        W77902   3.434  31.989  16.600 -0.0375  0.0689 -0.2337
34991W        W77903   5.066  32.884  18.693 -0.1523  0.1643 -0.0349
34992W        W77904   4.183  31.860  18.587  0.1115 -0.0964  0.0987
34993W        W77905   7.069  32.009  18.468  0.1739 -0.0458  0.1934
34994W        W77906   6.189  33.685  16.891  0.3522 -0.0066  0.2519
34995W        W77907   4.215  32.341  18.416 -0.2387 -0.0098 -0.1149
34996W        W77908   4.183  33.607  17.582  0.1405 -0.0239  0.1365
34997W        W77909   7.142  32.296  16.303  0.0216 -0.0039 -0.0809
34998W        W77910   4.479  34.132  18.377 -0.0937 -0.1302  0.0914
34999W        W77911   6.181  33.299  18.950  0.3400  0.1228  0.0496
35000W        W77912   6.165  34.524  20.512  0.2343 -0.2385 -0.1748
35001W        W77913   6.189  32.902  17.350  0.0088 -0.1929 -0.3416
35002W        W77914   8.472  34.196  16.670  0.0703  0.0301  0.0798
35003W        W77915   3.869  33.992  17.907  0.1910 -0.3025  0.0467
35004W        W77916   3.566   0.385  17.711 -0.3830  0.0554 -0.0790
35005W        W77917   4.909   0.827  17.777 -0.0824 -0.1266  0.0804
35006W        W77918   5.775  34.410  17.830 -0.0021 -0.3426 -0.1054
35007W        W77919   5.712  33.929  17.062 -0.0387  0.1989  0.1277
35008W        W77920   6.944  33.253  16.776  0.0043  0.2481 -0.0208
35009W        W77921   4.251  33.897  19.959  0.0315 -0.1900  0.0999
35010W        W77922   6.255  34.005  19.456 -0.0642  0.1766  0.1286
35011W        W77923   6.206   0.500  21.111 -0.1038  0.1694 -0.1810
35012W        W77924   3.598  33.427  21.357 -0.1468 -0.1195  0.1589
35013W        W77925   4.442  34.524  21.916  0.2320  0.0428 -0.3974
35014W        W77926   5.928   0.384  20.685  0.0079 -0.1373  0.0133
35015W        W77927   5.144  34.277  22.409  0.0671 -0.0527 -0.2239
35016W        W77928   4.932  34.253  20.109  0.1372 -0.1327 -0.0906
35017W        W77929   3.634  32.656  21.736  0.0066  0.2154  0.4040
35018W        W77930   6.352  33.860  24.160 -0.3323 -0.1973  0.3138
35019W        W77931   5.587   0.707  20.363  0.3802 -0.1359  0.0620
35020W        W77932   4.418   0.333  21.543 -0.1286 -0.2215 -0.1323
35021W        W77933   5.314   0.261  20.347  0.1627 -0.1650 -0.0538
35022W        W77934   4.793  34.152  22.105 -0.1425 -0.2039 -0.2216
35023W        W77935   6.984  32.594  22.568 -0.2184  0.2581  0.0553
35024W        W77936   4.919  34.557  20.597 -0.0851 -0.0555  0.0605
35025W        W77937   2.656   0.724  20.913  0.0124 -0.0851  0.1240
35026W        W77938   3.485  34.618  20.777 -0.2749  0.0607 -0.0338
35027W        W77939   6.786   0.560  23.482  0.1864  0.0118 -0.0342
35028W        W77940   5.829  31.984  20.858 -0.2768  0.0544 -0.1798
35029W        W77941   6.988  34.055  23.527  0.0494 -0.0689 -0.0832
35030W        W77942   5.840  34.692  23.170  0.0263 -0.0504  0.2045
35031W        W77943   5.388  33.641  21.567  0.0326 -0.0506 -0.0745
35032W        W77944   8.012  32.516  23.071 -0.0101  0.0758 -0.2425
35033W        W77945   6.829  34.317  20.107 -0.1074  0.2656 -0.1569
35034W        W77946   4.610  33.354  20.233  0.0309  0.1102  0.2113
35035W        W77947   7.093  33.009  18.671  0.1165  0.0698  0.0661
35036W        W77948   6.745  31.666  20.880  0.0830  0.2066 -0.3045
35037W        W77949   5.015  33.525  21.871 -0.0743 -0.1519 -0.4596
35038W        W77950   6.435  33.815  20.822  0.1074  0.0096  0.1188
35039W        W77951   6.951   0.082  22.218 -0.0549  0.0666 -0.1542
35040W        W77952   3.610   0.627  22.714  0.1719  0.0334  0.0240
35041W        W77953   5.745  34.212  21.584 -0.0994 -0.1827 -0.2539
35042W        W77954   2.959   0.171  23.241  0.0511  0.1797  0.3347
35043W        W77955   4.161  34.071  22.881  0.4011  0.0006 -0.1235
35044W        W77956   5.947  32.655  20.067  0.2257  0.0390  0.0531
35045W        W77957   6.603  33.596  20.368 -0.1139  0.0603 -0.0138
35046W        W77958   6.058  31.906  21.553 -0.1358 -0.0212  0.0276
35047W        W77959   7.037  33.520  22.115  0.0522 -0.1389  0.0531
35048W        W77960   5.952   0.394  19.219  0.0600  0.1418 -0.4108
35049W        W77961   4.956  32.174  21.989  0.1404 -0.0152  0.2537
35050W        W77962   4.396  34.247  22.428 -0.0599 -0.0048 -0.0451
35051W        W77963   5.877  32.948  20.896 -0.1018  0.2915 -0.0583
35052W        W77964   3.745  33.286  22.901  0.0126 -0.0672 -0.1153
35053W        W77965   5.376  32.419  21.707  0.0432 -0.3245 -0.2940
35054W        W77966   5.709  33.860  21.244 -0.1235 -0.3827 -0.0879
35055W        W77967   3.649  33.755  22.025 -0.2879  0.1488  0.0926
35056W        W77968   5.275  33.759  20.996  0.0474  0.0539 -0.0911
35057W        W77969   4.679  33.559  22.288 -0.1402 -0.1636  0.0104
35058W        W77970   3.875  34.386  22.664  0.0219 -0.2692  0.0604
35059W        W77971   8.193  32.949  23.250  0.0046 -0.0204  0.1754
35060W        W77972   4.693  33.077  21.736 -0.1815  0.0400  0.2166
35061W        W77973   5.056   0.227  21.392 -0.2681  0.2787 -0.1655
35062W        W77974   4.520   0.985  21.313 -0.2085  0.2703  0.0944
35063W        W77975   6.789  32.575  21.778  0.0314  0.3186  0.0185
35064W        W77976   4.497  33.787  21.817  0.1976 -0.1916  0.0383
35065W        W77977   5.535  34.700  21.483  0.0112  0.0113  0.0148
35066W        W77978   4.541  33.425  19.721  0.0025 -0.2131 -0.1268
35067W        W77979   6.792   0.183  23.102 -0.1083  0.0373 -0.2562
35068W        W77980   6.495   1.125  22.737  0.0706 -0.1128  0.0467
35069W        W77981   3.484  31.901  19.433  0.2056  0.1139 -0.1364
35070W        W77982   4.948  33.899  21.582  0.1137  0.0332 -0.0811
35071W        W77983   5.934  34.053  20.753  0.0615  0.2850  0.3855
35072W        W77984   2.721   0.977  21.918 -0.1860  0.2200 -0.2456
35073W        W77985   6.904  33.783  22.559  0.2948  0.0282 -0.1828
35074W        W77986   2.737   0.200  20.328 -0.1157 -0.2203  0.3397
35075W        W77987   6.613  32.993  21.480 -0.1302 -0.1850  0.1440
35076W        W77988   6.458  32.411  19.382 -0.0766  0.3144  0.1035
35077W        W77989   4.520  31.703  18.246  0.0977 -0.0697  0.1793
35078W        W77990   6.207  32.839  19.149 -0.1481  0.0499  0.1792
35079W        W77991   5.504  32.912  20.568 -0.1134 -0.0012 -0.4098
35080W        W77992   4.620  31.807  21.722 -0.2546  0.2331  0.1326
35081W        W77993   5.760  33.395  19.313  0.2043 -0.1858 -0.0105
35082W        W77994   6.364  32.173  20.978  0.0194  0.0907 -0.0839
35083W        W77995   7.369  33.647  22.512  0.1958  0.2000 -0.2555
35084W        W77996   6.277  34.099  21.860 -0.3252 -0.0630 -0.0840
35085W        W77997   5.069  32.637  22.450  0.2714  0.1195  0.0797
35086W        W77998   6.279  34.517  23.668  0.1461 -0.0861  0.2001
35087W        W77999   5.927   1.288  20.665 -0.1724  0.0403  0.2815
35088W        W78000   5.036   0.909  22.961  0.1431 -0.0630 -0.0611
35089W        W78001   4.998   0.068  19.998 -0.3363  0.1720 -0.4270
35090W        W78002   6.527  33.520  22.795  0.2017 -0.0433 -0.0852
35091W        W78003   7.053  33.546  23.577  0.0427 -0.0041  0.2730
35092W        W78004   5.692  33.817  22.002 -0.2499  0.1285  0.2309
35093W        W78005   4.616  32.398  22.376  0.0306 -0.0187 -0.3836
35094W        W78006   6.644  31.222  19.560 -0.0261 -0.0888  0.1371
35095W        W78007   5.112  33.905  19.584 -0.0844 -0.0724 -0.0776
35096W        W78008   5.157   0.828  20.557 -0.2327  0.0314  0.0796
35097W        W78009   6.902  33.917  20.750  0.0921 -0.3677 -0.0985
35098W        W78010   4.117  33.621  23.312  0.2014  0.0112 -0.1771
35099W        W78011   5.746  33.029  21.743  0.1038 -0.0189 -0.2122
35100W        W78012   7.364   0.838  23.446  0.0770  0.2257  0.0092
35101W        W78013   5.647  31.058  19.848  0.1486  0.0303  0.1937
35102W        W78014   6.486   0.264  23.767 -0.3516  0.3202  0.0957
35103W        W78015   3.704  32.279  18.510 -0.3875  0.2107  0.1435
35104W        W78016   7.495  34.068  21.414  0.0200 -0.2006 -0.0054
35105W        W78017   4.623  33.482  21.471 -0.0980 -0.1630 -0.1807
35106W        W78018   4.163   1.198  21.002  0.0801  0.2537 -0.0874
35107W        W78019   4.609  33.601  23.079  0.2699 -0.2972  0.3077
35108W        W78020   5.793   0.477  22.381 -0.3157 -0.0679  0.2440
35109W        W78021   4.805  33.981  20.577 -0.1091  0.1294 -0.1632
35110W        W78022   4.806   0.038  22.370  0.1532 -0.0607  0.1108
35111W        W78023   5.622  33.411  23.363  0.1107  0.1989 -0.1682
35112W        W78024   4.399  32.709  21.867 -0.2961 -0.1447  0.1126
35113W        W78025   5.923   0.967  23.762 -0.0103  0.1246 -0.0086
35114W        W78026   5.240  34.008  21.964  0.2042  0.1743  0.0672
35115W        W78027   6.632  31.930  19.204 -0.1101  0.0424 -0.1287
35116W        W78028   6.559  32.994  21.012  0.1922  0.1573 -0.1914
35117W        W78029   8.382  34.380  22.554  0.1208  0.2796  0.0906
35118W        W78030   7.008   1.802  20.615 -0.1134  0.0050  0.3230
35119W        W78031   5.857  32.115  22.475 -0.3710 -0.0920 -0.1194
35120W        W78032   4.164  32.629  21.266  0.1928 -0.0470 -0.0918
35121W        W78033   3.378  33.185  23.641 -0.0078  0.1280  0.1074
35122W        W78034   5.166  33.575  22.470 -0.2682  0.0985 -0.0909
35123W        W78035   5.787  32.496  20.714 -0.3079 -0.1669  0.0889
35124W        W78036   3.578  32.741  19.466  0.2869 -0.0966  0.1052
35125W        W78037   5.001   1.564  23.065 -0.1640 -0.2331  0.0944
35126W        W78038   6.201  33.156  21.713  0.0440 -0.2078 -0.0325
35127W        W78039   3.646   0.621  21.911  0.0598 -0.0621 -0.3360
35128W        W78040   6.121  34.234  22.397 -0.0176  0.2513  0.4345
35129W        W78041   5.551  32.763  21.315 -0.0125 -0.2139 -0.0545
35130W        W78042   6.252  33.318  20.704 -0.1550 -0.2621 -0.2285
35131W        W78043   6.768   1.125  21.390 -0.0770 -0.2874 -0.0877
35132W        W78044   6.805  33.197  23.301  0.3640  0.1442 -0.0746
35133W        W78045   5.585  33.765  22.923  0.0897  0.1283 -0.0149
35134W        W78046   2.886  33.154  23.790 -0.0367 -0.2586 -0.4470
35135W        W78047   6.460  33.545  21.561 -0.3905 -0.0857 -0.0509
35136W        W78048   7.035  34.398  23.098 -0.3712  0.0435  0.1922
35137W        W78049   5.475   0.483  20.943  0.1186 -0.2144 -0.0764
35138W        W78050   6.141  33.303  21.179 -0.2023  0.1766 -0.4796
35139W        W78051   4.021  32.804  20.793  0.0232 -0.0024 -0.4251
35140W        W78052   6.578   0.311  25.255  0.1497  0.0029 -0.1094
35141W        W78053   5.011  33.001  20.237 -0.0012 -0.0410  0.1973
35142W        W78054   7.748  33.064  23.602  0.1699 -0.1942 -0.3607
35143W        W78055   5.892  34.665  22.542 -0.0098  0.2248 -0.2531
35144W        W78056   4.168  33.335  21.004 -0.0282  0.0416 -0.1025
35145W        W78057   4.161  33.444  19.025  0.1152  0.2881 -0.0180
35146W        W78058   4.637   1.133  18.947  0.3578 -0.0231 -0.0734
35147W        W78059   6.154  32.962  20.368  0.1189  0.0952 -0.1846
35148W        W78060   7.751  33.759  22.799 -0.3741  0.0721 -0.0810
35149W        W78061   6.339  33.115  22.383 -0.0054  0.0041  0.1211
35150W        W78062   5.684  33.473  22.428  0.2542  0.1106  0.1766
35151W        W78063   6.582   0.976  22.101  0.1525  0.0187 -0.1836
35152W        W78064   4.229  34.678  21.047  0.2094 -0.0451 -0.0775
35153W        W78065   7.875  33.365  23.178 -0.0681  0.2695 -0.2252
35154W        W78066   5.298   0.304  21.792  0.0774 -0.1169  0.1586
35155W        W78067   2.557  33.986  22.292  0.2108 -0.5169 -0.3938
35156W        W78068   4.823  31.359  19.500  0.1865  0.1083 -0.0793
35157W        W78069   5.715  34.644  20.649 -0.0523  0.1883 -0.1850
35158W        W78070   6.391  34.491  18.686  0.0944  0.0716 -0.2565
35159W        W78071   5.196   1.623  22.447  0.1171  0.0572 -0.2216
35160W        W78072   5.136   0.652  20.016 -0.0219 -0.1923 -0.1831
35161W        W78073   5.557   0.271  22.813  0.1077 -0.0828 -0.0940
35162W        W78074   5.472  34.362  19.778 -0.1655  0.1925  0.0328
35163W        W78075   4.552   0.833  22.723 -0.2211 -0.1318 -0.0539
35164W        W78076   8.459  33.545  22.351  0.3116  0.0012  0.0516
35165W        W78077   3.882  33.669  20.712 -0.1161  0.0970  0.0137
35166W        W78078   4.816   0.693  21.634 -0.2432  0.1912  0.1598
35167W        W78079   7.304  33.076  22.379 -0.0446 -0.3398  0.2661
35168W        W78080   6.056  34.594  21.642 -0.1141  0.1083  0.1690
35169W        W78081   5.040  32.747  21.278 -0.0871 -0.1407 -0.0337
35170W        W78082   6.273  34.651  21.001  0.2311 -0.1472 -0.1523
35171W        W78083   4.961   0.476  23.095 -0.1469 -0.0494  0.2085
35172W        W78084   7.532  32.671  22.717 -0.2995  0.1254  0.2426
35173W        W78085   5.764  34.394  22.096 -0.0084 -0.0098  0.1041
35174W        W78086   7.104  32.906  21.423 -0.1223 -0.0130  0.1842
35175W        W78087   5.369  34.691  20.964  0.0752 -0.1454  0.0232
35176W        W78088   7.730   1.032  20.621  0.2655  0.0089  0.0727
35177W        W78089   6.682   1.192  23.169  0.0855  0.0137  0.0154
35178W        W78090   6.020  33.589  19.673 -0.0668  0.3663  0.1882
35179W        W78091   3.776  31.979  20.331 -0.3061  0.0099  0.0660
35180W        W78092   5.796  34.067  19.991 -0.0849 -0.1968  0.2352
35181W        W78093   4.818   0.228  21.895  0.2133 -0.0091  0.2865
35182W        W78094   5.449  34.576  23.685  0.1853  0.0966 -0.1154
35183W        W78095   3.531  32.436  20.294 -0.1631  0.0956  0.0314
35184W        W78096   6.269   0.256  23.308 -0.1257 -0.0937  0.0403
35185W        W78097   6.271   1.603  21.604  0.3758 -0.1223  0.0682
35186W        W78098   2.559  32.036  22.711  0.0999  0.1567  0.0573
35187W        W78099   5.275  34.487  21.967  0.0272  0.0894  0.1469
35188W        W78100   5.356  34.154  20.662  0.1348 -0.0537 -0.0440
35189W        W78101   6.561  33.895  22.221 -0.0408 -0.1182  0.2352
35190W        W78102   6.479  32.627  23.753  0.1255  0.0160 -0.1961
35191W        W78103   7.065  33.509  22.931 -0.0566  0.1841  0.2622
35192W        W78104   4.859   0.583  21.091  0.1455  0.0448 -0.0785
35193W        W78105   5.214  32.988  21.754 -0.1902 -0.1916 -0.0109
35194W        W78106   6.641  32.442  20.063 -0.3932 -0.3079 -0.2532
35195W        W78107   6.611  33.326  22.013  0.1797  0.0497 -0.2368
35196W        W78108   5.732   0.581  23.271  0.1925  0.1808  0.0058
35197W        W78109   3.141  34.544  20.309 -0.0308  0.1830 -0.1305
35198W        W78110   5.996  31.154  22.552  0.0374 -0.2799 -0.1060
35199W        W78111   4.245  33.218  23.028 -0.2164  0.2942  0.2849
35200W        W78112   4.197   0.540  21.057  0.0692  0.0324 -0.0595
35201W        W78113   5.938  33.342  20.124 -0.0177 -0.0488  0.2727
35202W        W78114   4.054  32.413  22.528  0.0671  0.1979  0.0532
35203W        W78115   3.905   0.047  20.533 -0.1891 -0.3969  0.1551
35204W        W78116   4.815  33.068  22.243 -0.1292  0.0556 -0.0901
35205W        W78117   6.547  34.080  23.734 -0.0342  0.1246  0.0225
35206W        W78118   4.880  33.027  23.055 -0.2486  0.0953  0.2668
35207W        W78119   5.178  33.070  20.838  0.2272  0.2095 -0.1266
35208W        W78120   6.306  34.525  22.948 -0.2021  0.2682 -0.0499
35209W        W78121   4.002  33.629  21.602  0.1657  0.1568  0.0636
35210W        W78122   7.176  34.269  21.070  0.0662 -0.0643  0.0498
35211W        W78123   5.807   0.897  21.033 -0.2545 -0.0520  0.0204
35212W        W78124   4.393  32.008  22.159  0.5726 -0.3447 -0.0494
35213W        W78125   5.258  32.562  20.387  0.2247 -0.1987 -0.3831
35214W        W78126   6.909  33.376  21.611 -0.0741  0.2237  0.1902
35215W        W78127   4.319  33.769  20.469 -0.1158  0.0635  0.2688
35216W        W78128   5.818   0.199  21.126  0.1608  0.0971  0.1202
35217W        W78129   6.521  34.052  22.750  0.1486 -0.1413  0.0194
35218W        W78130   4.946  34.408  21.608 -0.0964 -0.2131  0.0163
35219W        W78131   7.007   1.316  18.783 -0.0721  0.4034 -0.0203
35220W        W78132   3.268  32.569  23.595 -0.1158 -0.2090 -0.0984
35221W        W78133   5.301  34.159  21.343 -0.0473 -0.5707 -0.3863
35222W        W78134   5.043   1.193  21.401 -0.0251 -0.0341 -0.1527
35223W        W78135   7.610  34.276  23.275  0.1069  0.1449  0.0373
35224W        W78136   4.279  32.774  22.286  0.0913 -0.2998  0.4026
35225W        W78137   5.947  32.566  19.523 -0.1261  0.0932  0.1254
35226W        W78138   3.534  34.337  24.321 -0.1080  0.0409  0.0881
35227W        W78139   7.464  34.562  23.965  0.0072  0.1424  0.1323
35228W        W78140   7.041  33.803  25.744 -0.1174 -0.1845 -0.0903
35229W        W78141   5.055   0.441  24.915  0.0559  0.0643 -0.0298
35230W        W78142   4.417  31.474  26.625 -0.0389 -0.0569  0.1166
35231W        W78143   5.983  34.167  24.421  0.2935  0.3391 -0.1950
35232W        W78144   3.829  33.644  26.728 -0.2560 -0.0282 -0.2432
35233W        W78145   4.518  33.645  23.641 -0.2533 -0.2268 -0.0674
35234W        W78146   3.853  33.914  25.075 -0.0365  0.1193 -0.2896
35235W        W78147   6.121  33.979  26.531  0.0264  0.0387  0.2866
35236W        W78148   4.781   0.858  24.002  0.2717  0.0704  0.0783
35237W        W78149   4.217  34.308  25.785  0.1743 -0.1502 -0.0591
35238W        W78150   3.700  33.707  23.551  0.3312  0.0311 -0.1577
35239W        W78151   5.473  33.337  26.398 -0.4602 -0.0825 -0.2056
35240W        W78152   6.133  32.446  27.009  0.1343 -0.1256  0.0188
35241W        W78153   4.457  34.232  21.511 -0.0447 -0.1695 -0.0276
35242W        W78154   3.233  33.796  25.946  0.0523 -0.0906 -0.2998
35243W        W78155   3.729  32.095  26.711  0.0679  0.1925 -0.1154
35244W        W78156   5.140  33.052  26.031 -0.3927 -0.0268  0.2746
35245W        W78157   5.517   0.527  26.350 -0.0346  0.2736 -0.2403
35246W        W78158   6.674  32.305  26.732 -0.1468 -0.0630  0.1736
35247W        W78159   4.911  34.228  27.435 -0.1338 -0.0811 -0.1066
35248W        W78160   4.142   0.322  23.901  0.0588 -0.0596 -0.0348
35249W        W78161   7.498  33.860  26.930  0.0253  0.0754 -0.2054
35250W        W78162   7.330  33.259  23.291  0.1310  0.0239 -0.0083
35251W        W78163   5.485  34.406  22.776 -0.0409 -0.3851 -0.0652
35252W        W78164   6.791  34.634  23.525  0.0060  0.2333  0.0721
35253W        W78165   5.951  33.515  23.721  0.4665 -0.1983 -0.1281
35254W        W78166   3.847  33.073  25.351  0.4613 -0.0596 -0.0731
35255W        W78167   5.282   0.857  24.864  0.0940 -0.2746  0.1256
35256W        W78168   5.145  33.751  26.576  0.1044  0.0478 -0.1567
35257W        W78169   5.715  34.625  24.530  0.4387  0.0045 -0.0307
35258W        W78170   4.542  34.668  23.875  0.1771  0.2509  0.2195
35259W        W78171   4.651  34.415  24.806  0.1057  0.3538 -0.1385
35260W        W78172   3.178  33.204  25.884 -0.2143 -0.0944  0.3887
35261W        W78173   7.220  32.804  23.492 -0.0249  0.1660  0.0056
35262W        W78174   6.456  32.933  24.223 -0.0659  0.0572  0.0744
35263W        W78175   6.242  33.566  25.015  0.3847 -0.1364 -0.1444
35264W        W78176   6.407  32.485  25.303  0.0385  0.0525  0.1629
35265W        W78177   7.542   0.005  25.946 -0.1845 -0.0459 -0.0331
35266W        W78178   5.894  31.952  27.091 -0.4058 -0.2297 -0.0741
35267W        W78179   3.412  33.506  27.023  0.0808 -0.2071 -0.3716
35268W        W78180   5.793  33.343  25.183 -0.0391 -0.3849  0.1242
35269W        W78181   4.071  32.640  25.085  0.1994  0.0331  0.0635
35270W        W78182   7.135  32.448  25.085 -0.3204 -0.3623  0.0934
35271W        W78183   6.473  34.342  24.246  0.0848 -0.3347  0.1021
35272W        W78184   1.876  34.141  26.218 -0.2360  0.1851  0.1872
35273W        W78185   3.535  33.906  24.648 -0.0459  0.3111  0.0150
35274W        W78186   4.399  32.016  26.622 -0.3033  0.2147  0.0040
35275W        W78187   3.554  32.384  25.610  0.1258 -0.0306  0.1197
35276W        W78188   6.661  33.334  27.683  0.1008 -0.2937 -0.4574
35277W        W78189   4.883  32.732  24.209  0.1177  0.0786 -0.3372
35278W        W78190   4.479  34.183  23.882 -0.0623  0.1039 -0.1046
35279W        W78191   3.667  34.375  23.175  0.0718  0.3946  0.1697
35280W        W78192   5.582  32.234  26.793 -0.0330  0.0097 -0.1379
35281W        W78193   4.360  33.892  24.871  0.2233 -0.0900  0.1240
35282W        W78194   3.761  33.347  23.913 -0.0636  0.0561  0.3881
35283W        W78195   4.502  32.336  21.580  0.1027  0.2227  0.0932
35284W        W78196   6.450  30.611  26.738 -0.0575  0.1257 -0.0928
35285W        W78197   5.275  33.538  25.972  0.2611  0.1311  0.0231
35286W        W78198   3.639  32.740  23.225  0.0958 -0.0622  0.2178
35287W        W78199   5.060   1.096  24.385  0.1528  0.1642  0.2416
35288W        W78200   5.146   0.513  26.024  0.1991 -0.1860 -0.5463
35289W        W78201   2.968  34.674  26.843  0.1556  0.0463  0.0168
35290W        W78202   6.042  32.962  26.307  0.1555 -0.1546 -0.0507
35291W        W78203   3.862  33.155  23.381  0.1913  0.3563  0.0781
35292W        W78204   6.017  33.128  24.704  0.2983 -0.0333 -0.3024
35293W        W78205   7.078  34.022  24.874  0.0135  0.2735 -0.2106
35294W        W78206   6.972  33.107  24.233  0.3535  0.1164  0.0480
35295W        W78207   6.016  33.098  22.825  0.2962  0.1175  0.1392
35296W        W78208   6.909   0.065  24.156  0.0875 -0.2993 -0.1175
35297W        W78209   4.524  31.798  26.198  0.0817  0.0719  0.5705
35298W        W78210   5.500  34.093  23.762  0.0099 -0.1394  0.2890
35299W        W78211   5.000  33.399  23.488 -0.1933 -0.3123 -0.0116
35300W        W78212   5.566  32.291  27.313 -0.3393  0.1814 -0.1962
35301W        W78213   4.980   0.392  25.576  0.0256 -0.0489  0.0238
35302W        W78214   4.059  31.878  26.289  0.1895  0.0099 -0.3234
35303W        W78215   8.068   0.285  29.248  0.1844  0.0848 -0.1538
35304W        W78216   4.748  33.796  24.595  0.2097  0.3452  0.4067
35305W        W78217   4.320  34.025  25.351  0.1648  0.0136  0.1235
35306W        W78218   5.997  34.099  22.902  0.0146 -0.1050 -0.1125
35307W        W78219   4.808  32.779  26.392  0.2138 -0.1277  0.2885
35308W        W78220   5.956  33.913  28.303 -0.0494 -0.0129  0.0463
35309W        W78221   5.931  32.399  23.183 -0.0527 -0.1299  0.2891
35310W        W78222   4.360  32.821  24.271  0.1825  0.1351 -0.0995
35311W        W78223   5.516  31.544  25.280 -0.0240 -0.2862 -0.0710
35312W        W78224   4.053  34.122  23.362 -0.2164  0.1029 -0.1584
35313W        W78225   4.460   1.219  23.969 -0.2829 -0.3223 -0.0352
35314W        W78226   6.823  32.024  25.264  0.0555 -0.1159 -0.4939
35315W        W78227   4.163  34.521  25.060 -0.0175 -0.3081 -0.0187
35316W        W78228   5.531  32.506  25.637 -0.1976 -0.2600 -0.1033
35317W        W78229   6.754  33.462  27.131  0.0345  0.0677  0.2604
35318W        W78230   5.959  32.806  24.381 -0.0337  0.0026  0.0039
35319W        W78231   5.445  34.031  26.793 -0.0665  0.0229  0.2527
35320W        W78232   3.697  34.340  23.735 -0.0158 -0.1661  0.1803
35321W        W78233   7.261  34.333  25.837 -0.3185 -0.3923 -0.0243
35322W        W78234   5.783  33.782  25.054  0.2269 -0.1350 -0.1940
35323W        W78235   5.031   0.207  23.754  0.0048 -0.2522 -0.2317
35324W        W78236   5.653  32.896  25.993  0.1896  0.2798 -0.0741
35325W        W78237   5.315  32.720  25.155 -0.2947 -0.0661  0.0284
35326W        W78238   4.949  33.834  23.833  0.1275 -0.0727 -0.0159
35327W        W78239   5.525  33.187  25.549 -0.1130  0.1673 -0.1976
35328W        W78240   5.772  33.173  26.867  0.0296 -0.1935 -0.0668
35329W        W78241   4.378  32.443  25.424 -0.0403 -0.0689 -0.1339
35330W        W78242   5.231   0.216  28.075 -0.2712  0.3582  0.0336
35331W        W78243   5.039  31.401  26.204 -0.1418 -0.1890  0.1571
35332W        W78244   6.770  33.030  23.782 -0.0405 -0.0540  0.1907
35333W        W78245   5.402  34.340  24.188  0.1122 -0.0110  0.3032
35334W        W78246   7.634  32.957  27.429  0.1752 -0.0877 -0.1144
35335W        W78247   6.470  33.521  23.780  0.0851 -0.1705  0.0007
35336W        W78248   6.348  32.683  28.074 -0.0027 -0.0538 -0.0276
35337W        W78249   5.127  32.284  25.989 -0.1066  0.1729 -0.0823
35338W        W78250   3.772  33.712  28.244 -0.0543 -0.1041  0.0616
35339W        W78251   4.486  33.424  26.415 -0.0006 -0.0820  0.1196
35340W        W78252   6.120  33.303  24.224 -0.0599  0.1478  0.3409
35341W        W78253   5.674  34.028  22.505  0.2773  0.2652 -0.2404
35342W        W78254   5.968   0.407  25.435  0.2055 -0.3632 -0.0988
35343W        W78255   6.617  34.185  25.684 -0.3486  0.0643 -0.2621
35344W        W78256   3.984  34.324  24.637 -0.4575  0.0539 -0.1963
35345W        W78257   5.210  33.241  25.141  0.1095 -0.0940 -0.2948
35346W        W78258   2.718  32.869  25.498 -0.1622  0.0116 -0.2165
35347W        W78259   5.565  34.101  24.683  0.4160  0.2695 -0.0653
35348W        W78260   5.528  32.004  25.767 -0.2314 -0.1550  0.0839
35349W        W78261   6.491  33.883  26.905 -0.0642  0.2173  0.0074
35350W        W78262   4.255  33.983  26.779  0.3616  0.1489 -0.0708
35351W        W78263   2.434  33.132  25.799  0.0370  0.0298  0.2841
35352W        W78264   7.886  32.940  24.057 -0.3560  0.1617 -0.3337
35353W        W78265   5.769  33.354  26.049  0.3631  0.1209  0.1193
35354W        W78266   7.117  34.214  25.365 -0.0566 -0.3319  0.2784
35355W        W78267   7.297  33.624  24.462  0.0478 -0.2603  0.1734
35356W        W78268   3.731  33.850  27.328 -0.0447  0.1085 -0.0845
35357W        W78269   6.786  33.788  27.989  0.0156  0.3035 -0.2815
35358W        W78270   3.599  33.928  24.014  0.0822 -0.1798  0.1432
35359W        W78271   6.277  32.387  27.542  0.0196 -0.1840 -0.2497
35360W        W78272   6.307  33.244  23.308  0.1014  0.1639 -0.2537
35361W        W78273   4.228  32.113  24.939  0.0824  0.2137  0.0504
35362W        W78274   3.264  34.103  23.103 -0.1468 -0.2687 -0.1451
35363W        W78275   4.763  33.880  22.616 -0.0307  0.3124 -0.1140
35364W        W78276   5.441  33.394  21.988 -0.1056 -0.0166 -0.0952
35365W        W78277   5.456  34.119  25.747  0.2529 -0.5232 -0.1639
35366W        W78278   5.441  33.516  23.884 -0.0788  0.1792  0.3651
35367W        W78279   6.074  33.118  25.709  0.2083 -0.0451  0.0072
35368W        W78280   4.981  33.906  25.657 -0.1775 -0.1449  0.0578
35369W        W78281   6.547  34.430  26.779 -0.0601  0.3440  0.0483
35370W        W78282   6.599  33.756  26.439 -0.2333 -0.0947  0.0070
35371W        W78283   2.252   0.239  24.491  0.2433  0.0176 -0.4298
35372W        W78284   3.889  34.259  26.951  0.2558  0.2407 -0.2194
35373W        W78285   2.335  33.109  23.915  0.0476 -0.0868 -0.2294
35374W        W78286   8.061  34.004  24.471 -0.2151  0.1037  0.1205
35375W        W78287   7.956  33.436  22.479  0.0440 -0.3500 -0.0534
35376W        W78288   5.818  34.295  26.259  0.0449 -0.0068 -0.3032
35377W        W78289   6.307  33.475  25.475  0.0900 -0.2378 -0.1452
35378W        W78290   5.179   0.078  25.291 -0.0258  0.0450 -0.1146
35379W        W78291   6.014  34.151  23.908 -0.0475 -0.2142 -0.0380
35380W        W78292   3.438  32.976  26.247 -0.0262 -0.3930  0.2263
35381W        W78293   8.620  33.294  27.527 -0.0159  0.2608  0.1313
35382W        W78294   3.639   0.112  23.444 -0.0041 -0.0350 -0.0428
35383W        W78295   4.617   0.200  23.353 -0.2317  0.2211 -0.1119
35384W        W78296   6.111  33.013  27.688 -0.0413 -0.3676 -0.2597
35385W        W78297   6.666  33.849  25.197  0.1950  0.0107 -0.1176
35386W        W78298   3.752   0.767  24.177  0.2231 -0.1405  0.0601
35387W        W78299   5.483   0.298  25.633  0.0971  0.0236 -0.1829
35388W        W78300   4.874  34.247  25.312  0.0692 -0.0012  0.1683
35389W        W78301   6.428  32.540  26.094  0.2698 -0.0710 -0.2883
35390W        W78302   4.559  34.392  23.355  0.2474  0.0657 -0.2125
35391W        W78303   5.804  33.640  25.603  0.1465 -0.1084 -0.2980
35392W        W78304   3.487  33.745  25.456  0.2682 -0.0225  0.3057
35393W        W78305   5.321  33.796  23.381  0.0035 -0.2343  0.1506
35394W        W78306   6.064  33.783  26.092 -0.0311 -0.1364  0.0915
35395W        W78307   5.859  33.880  23.360  0.0433 -0.3066  0.0583
35396W        W78308   4.434  34.174  24.401  0.1352 -0.0308  0.0917
35397W        W78309   5.956  32.578  23.699  0.1332  0.0724  0.0001
35398W        W78310   4.310   0.233  24.842 -0.0437 -0.0079 -0.1115
35399W        W78311   4.649  33.245  25.979  0.0172  0.1951 -0.1117
35400W        W78312   4.006  33.392  24.663 -0.0323  0.0091 -0.1196
35401W        W78313   4.440  33.872  25.933  0.1332 -0.1194 -0.0412
35402W        W78314   7.228  34.564  24.975  0.3279 -0.2718  0.0107
35403W        W78315   2.592  33.600  26.020  0.3660  0.3983 -0.1683
35404W        W78316   4.779  32.896  23.505  0.2558 -0.0142  0.0012
35405W        W78317   4.018  34.270  24.099 -0.1483 -0.2514 -0.1229
35406W        W78318   5.277   0.087  26.178 -0.0101 -0.0133  0.4350
35407W        W78319   6.620  32.542  27.175 -0.0447  0.2142  0.0207
35408W        W78320   6.933  32.408  26.339 -0.0772  0.0422 -0.0784
35409W        W78321   4.109  33.787  23.922 -0.0117  0.0168  0.1368
35410W        W78322   5.062  34.071  24.824  0.3273  0.1192  0.1833
35411W        W78323   5.951  31.003  26.406  0.2497 -0.0267 -0.2409
35412W        W78324   4.853  31.693  25.051  0.0287  0.0041  0.2360
35413W        W78325   4.234  34.200  26.245  0.0869  0.0215  0.3154
35414W        W78326   4.545   0.575  23.657 -0.1949 -0.1470 -0.0950
35415W        W78327   6.859  32.948  26.130 -0.1406 -0.1921  0.0918
35416W        W78328   4.978  33.389  25.602  0.1476  0.1110  0.1240
35417W        W78329   4.934  34.185  24.339  0.3441 -0.0710 -0.2121
35418W        W78330   4.116  34.569  23.604  0.1189  0.1470  0.1302
35419W        W78331   3.914  34.346  25.432  0.0088  0.1317 -0.1378
35420W        W78332   4.754   0.184  24.638 -0.0329  0.1500  0.1516
35421W        W78333   4.806  33.970  23.347 -0.0722 -0.0333  0.1327
35422W        W78334   4.479  33.564  25.499  0.2335  0.1709  0.0469
35423W        W78335   6.047  33.373  27.299  0.0103  0.4212 -0.2402
35424W        W78336   4.109   0.315  23.272  0.0692 -0.2106 -0.0927
35425W        W78337   6.006  34.102  25.732 -0.0194  0.1129  0.1192
35426W        W78338   3.585  31.001  25.636 -0.3217 -0.2028 -0.1838
35427W        W78339   6.336  33.319  26.055 -0.1449  0.0623 -0.0429
35428W        W78340   4.955  34.313  23.809 -0.0252  0.0438 -0.1133
35429W        W78341   4.616  32.477  26.829 -0.1220 -0.3538  0.0581
35430W        W78342   5.027  33.393  24.295 -0.0539  0.2712  0.1433
35431W        W78343   7.433  32.730  24.079 -0.0759 -0.0315 -0.2059
35432W        W78344   5.257  33.799  24.260 -0.3746 -0.2209  0.3399
35433W        W78345   7.271  34.033  22.836  0.3072 -0.0441  0.0735
35434W        W78346   5.625  33.786  26.381 -0.0825  0.4804 -0.1291
35435W        W78347   5.730  34.511  25.544 -0.2015 -0.3815  0.1952
35436W        W78348   6.498   1.111  23.885 -0.0572  0.0117 -0.1896
35437W        W78349   3.874  31.467  26.151 -0.1040 -0.2296 -0.2138
35438W        W78350   3.392   0.455  23.169 -0.0510  0.1095 -0.1327
35439W        W78351   5.404  34.165  25.290 -0.0189  0.2231  0.1619
35440W        W78352   6.081  32.603  25.689 -0.1332  0.0444  0.0099
35441W        W78353   2.455  33.278  26.374 -0.0754  0.1052  0.0263
35442W        W78354   5.463  33.036  22.849 -0.0912  0.1624  0.4098
35443W        W78355   4.329  34.485  26.686 -0.0076 -0.0273 -0.3278
35444W        W78356   6.971  32.938  28.605  0.1119 -0.1827  0.0207
35445W        W78357   6.566  34.223  27.304 -0.2305 -0.1631  0.0511
35446W        W78358   3.233  33.900  29.144 -0.3062 -0.1006  0.0528
35447W        W78359   5.071  32.027  29.145 -0.1816 -0.0205 -0.4084
35448W        W78360   5.094  34.425  26.564  0.1155  0.0629 -0.2622
35449W        W78361   6.120  34.005  30.056 -0.1567 -0.1194 -0.2655
35450W        W78362   4.958  33.521  29.393  0.1843 -0.4299 -0.2369
35451W        W78363   3.489  32.522  27.998  0.1689  0.0886 -0.0436
35452W        W78364   7.383  33.546  29.768  0.0480  0.0117  0.1645
35453W        W78365   4.738   0.035  26.467  0.0761 -0.0190  0.1635
35454W        W78366   6.334  33.304  29.056 -0.0083  0.2481  0.2619
35455W        W78367   3.101  33.802  26.470  0.2026  0.0656 -0.1559
35456W        W78368   5.851  33.586  30.830 -0.1395  0.1043 -0.0182
35457W        W78369   6.381  33.519  31.063 -0.1759  0.0385 -0.0692
35458W        W78370   4.414  34.294  27.267 -0.1734 -0.1503 -0.1117
35459W        W78371   3.642  34.495  29.539 -0.2483  0.1376 -0.0332
35460W        W78372   4.826  33.901  30.188  0.1787  0.0555  0.2138
35461W        W78373   7.163  33.171  29.501  0.1488 -0.2106  0.0185
35462W        W78374   6.236  34.543  27.672  0.0528 -0.0115 -0.2367
35463W        W78375   4.806  33.467  28.766  0.1003  0.3566 -0.1185
35464W        W78376   5.308   0.552  28.412 -0.1423  0.0671  0.0434
35465W        W78377   4.430   0.585  28.870  0.2887 -0.2049 -0.2738
35466W        W78378   7.522  32.375  30.047 -0.0550 -0.2076  0.0094
35467W        W78379   6.829  32.610  28.959  0.0034 -0.0218 -0.0145
35468W        W78380   4.982  33.270  26.485 -0.2184 -0.5062  0.3089
35469W        W78381   6.847  33.231  29.053  0.2005 -0.2993 -0.1854
35470W        W78382   4.916  32.512  29.328 -0.0661  0.3363 -0.0194
35471W        W78383   5.304  33.419  31.114 -0.2307  0.1465  0.0437
35472W        W78384   5.052  33.130  27.578  0.0344  0.0906 -0.2182
35473W        W78385   4.966  34.458  29.146 -0.0613 -0.0818 -0.0998
35474W        W78386   4.349   0.174  28.491  0.0743  0.2210 -0.0062
35475W        W78387   3.660   0.355  27.325  0.0785  0.1556  0.1487
35476W        W78388   4.302  33.567  30.802  0.0677 -0.1260 -0.0024
35477W        W78389   4.098   0.079  30.404 -0.0083  0.1681 -0.1066
35478W        W78390   4.556  31.997  27.360 -0.0353  0.4129  0.1040
35479W        W78391   6.720  33.544  29.406  0.0681 -0.0416 -0.1921
35480W        W78392   5.322  31.405  30.095 -0.3201 -0.1565 -0.1929
35481W        W78393   7.187  32.091  29.142  0.3858  0.0862 -0.2694
35482W        W78394   4.867   0.204  28.493 -0.2446 -0.1593 -0.1349
35483W        W78395   5.384  33.950  31.078 -0.0793  0.0010 -0.0156
35484W        W78396   4.275  31.954  29.098 -0.4049 -0.1400  0.2208
35485W        W78397   6.505  33.015  27.217 -0.0314  0.0706 -0.0564
35486W        W78398   5.469  34.325  28.958  0.1085 -0.0617 -0.1156
35487W        W78399   7.352  31.877  29.995 -0.2026 -0.1634  0.0721
35488W        W78400   6.406  34.049  27.786  0.0674  0.4451  0.0283
35489W        W78401   4.437  33.460  29.282 -0.0400 -0.2933 -0.0158
35490W        W78402   4.853  34.071  28.116 -0.0612  0.1102 -0.0679
35491W        W78403   3.984  33.622  31.449 -0.3393  0.2739  0.1528
35492W        W78404   4.893  31.527  30.385 -0.1176 -0.1835  0.2108
35493W        W78405   6.682  33.412  30.276  0.0646  0.0555 -0.0735
35494W        W78406   4.332  33.713  27.268  0.0531  0.1201 -0.2101
35495W        W78407   7.167  33.595  29.224  0.2452  0.0571 -0.1387
35496W        W78408   4.799  32.817  27.185  0.0401 -0.0213  0.1377
35497W        W78409   6.572  33.193  30.711  0.0537 -0.1025  0.0108
35498W        W78410   4.456  33.686  31.263  0.1693  0.1386  0.2671
35499W        W78411   3.981  33.639  25.465  0.2809 -0.3347 -0.4262
35500W        W78412   4.849  32.607  27.753 -0.3086  0.3066  0.1783
35501W        W78413   6.609  33.730  28.808 -0.0366 -0.2553 -0.0396
35502W        W78414   5.488   1.463  29.024  0.0982  0.3239  0.2480
35503W        W78415   5.032  33.293  27.031 -0.1147 -0.3053  0.2358
35504W        W78416   3.101   0.208  28.786 -0.3252  0.0439  0.1099
35505W        W78417   8.098  32.598  29.025 -0.3622 -0.1420  0.0257
35506W        W78418   4.540   1.590  29.800 -0.2215 -0.0404 -0.0857
35507W        W78419   6.593  33.345  31.861  0.1590 -0.0114  0.0023
35508W        W78420   4.600  33.804  27.774 -0.0485  0.0509  0.0614
35509W        W78421   6.976  31.708  28.816 -0.0753  0.2549 -0.0850
35510W        W78422   5.935  33.735  26.968 -0.0255 -0.1761 -0.2004
35511W        W78423   5.420  33.550  27.571  0.2789 -0.0259 -0.0010
35512W        W78424   5.612  34.007  27.296  0.0857  0.0566 -0.0055
35513W        W78425   5.911  33.173  28.749 -0.1965 -0.0886  0.0937
35514W        W78426   6.297  33.765  29.197 -0.2177 -0.1497  0.0417
35515W        W78427   4.227  33.385  25.112 -0.0972 -0.1450 -0.0922
35516W        W78428   4.780  32.396  28.491 -0.3088 -0.1060  0.0488
35517W        W78429   8.566  32.088  29.248  0.5099 -0.1599  0.1432
35518W        W78430   5.275  34.072  30.243  0.1696  0.0577  0.0083
35519W        W78431   4.282  32.672  28.587 -0.4196  0.2183  0.1064
35520W        W78432   6.855  34.517  31.184 -0.2004  0.1949 -0.0441
35521W        W78433   5.758  33.322  27.927 -0.1578 -0.0090  0.0421
35522W        W78434   5.763   0.253  28.647  0.0689  0.1218 -0.0170
35523W        W78435   3.872  33.296  26.349  0.0906  0.1020  0.0116
35524W        W78436   5.610  33.150  30.684 -0.0325  0.2376  0.0197
35525W        W78437   6.845  32.878  31.974  0.3760  0.0651  0.0223
35526W        W78438   5.772  32.651  27.989  0.0333 -0.1488  0.0874
35527W        W78439   6.009  33.111  29.832 -0.1712  0.0396  0.3728
35528W        W78440   5.677  32.240  29.713 -0.1308  0.0028 -0.0304
35529W        W78441   3.869  32.858  25.860 -0.2395  0.0795 -0.0173
35530W        W78442   3.933  33.679  27.744  0.0340 -0.2417  0.0970
35531W        W78443   6.106  32.624  30.002  0.0501  0.3971 -0.2061
35532W        W78444   5.836  33.542  29.698 -0.2772 -0.4493  0.0161
35533W        W78445   6.284  33.370  29.503 -0.0013 -0.0577  0.2321
35534W        W78446   6.112   0.702  29.338 -0.2565 -0.0679 -0.5577
35535W        W78447   5.594  32.884  28.472 -0.1485 -0.0750  0.1435
35536W        W78448   4.903  34.403  31.555 -0.0316 -0.0961 -0.2401
35537W        W78449   3.429  34.024  26.837  0.1466  0.0245 -0.1665
35538W        W78450   7.488   0.443  31.396  0.1930 -0.0434 -0.0419
35539W        W78451   5.064  33.852  27.748  0.0101  0.2178  0.3926
35540W        W78452   4.130  33.726  26.315  0.2373 -0.3473 -0.0099
35541W        W78453   3.880  33.783  30.989  0.1025  0.0058  0.2138
35542W        W78454   4.831  33.498  28.134  0.0725  0.1195  0.0163
35543W        W78455   5.170  33.713  28.951  0.0514 -0.2362 -0.1126
35544W        W78456   5.588  33.902  28.713  0.0846 -0.2061 -0.2120
35545W        W78457   4.320  32.374  30.193 -0.1728  0.0902 -0.3144
35546W        W78458   5.646  31.315  29.618 -0.2804 -0.2925 -0.0247
35547W        W78459   6.871  33.996  29.187 -0.0559 -0.3982  0.0935
35548W        W78460   5.697  33.487  30.293  0.1731 -0.3326  0.1848
35549W        W78461   8.534  31.857  28.584 -0.0219 -0.0035  0.2381
35550W        W78462   4.910  34.474  30.196  0.2613 -0.1702  0.0873
35551W        W78463   8.825  31.791  29.844 -0.1235 -0.0010 -0.1289
35552W        W78464   5.112   0.803  26.629 -0.2348  0.2157 -0.0435
35553W        W78465   6.825  32.916  30.401 -0.4519 -0.3773 -0.1403
35554W        W78466   4.751  31.046  30.071 -0.3589  0.2096 -0.3044
35555W        W78467   4.739  32.900  29.626  0.0304  0.1529 -0.3434
35556W        W78468   3.717  33.309  30.942  0.1681  0.0258  0.1219
35557W        W78469   5.830  33.131  29.292 -0.0293 -0.2225  0.0692
35558W        W78470   4.230  31.944  27.808  0.1422 -0.2399  0.1442
35559W        W78471   2.610   1.300  28.516 -0.0419  0.3175  0.1539
35560W        W78472   5.698  32.519  28.904 -0.0542  0.2334 -0.1556
35561W        W78473   5.153  34.389  31.138  0.5025  0.1699  0.3885
35562W        W78474   7.631  33.846  29.444  0.1808  0.1475 -0.1236
35563W        W78475   4.267  32.291  29.485  0.1174  0.3942 -0.0684
35564W        W78476   6.006   0.115  29.152  0.0130 -0.0454  0.0515
35565W        W78477   6.455  34.392  30.947  0.2590 -0.1214  0.0525
35566W        W78478   6.342  34.390  29.753  0.2468  0.1838 -0.3137
35567W        W78479   4.632  33.489  30.416  0.0634 -0.0331  0.1269
35568W        W78480   5.258  33.732  30.615 -0.2927 -0.0264 -0.2218
35569W        W78481   6.984  34.134  27.658  0.2048 -0.0223  0.1341
35570W        W78482   6.385  32.218  29.696 -0.2798 -0.3103  0.1931
35571W        W78483   7.284  32.525  28.739  0.0413  0.1572  0.1039
35572W        W78484   7.203  33.222  27.100 -0.0415  0.0862  0.1482
35573W        W78485   5.783  32.687  27.477  0.0103  0.0117 -0.1813
35574W        W78486   6.870  33.877  31.298 -0.0449 -0.0023 -0.2795
35575W        W78487   4.809  34.201  26.959  0.0155  0.1534 -0.0628
35576W        W78488   6.833  34.325  30.576  0.0079  0.3206 -0.1510
35577W        W78489   4.643   0.682  28.384  0.0666  0.1392  0.1258
35578W        W78490   3.041  34.028  31.235 -0.5096  0.1366 -0.2952
35579W        W78491   4.198  33.209  27.188  0.0321  0.2123  0.0413
35580W        W78492   4.842  33.709  26.188 -0.0170 -0.1412 -0.2734
35581W        W78493   6.293  32.814  29.076  0.0768  0.4028 -0.1188
35582W        W78494   6.704  33.891  31.822 -0.4364  0.1353  0.0374
35583W        W78495   5.368  33.954  29.344 -0.1486 -0.0958 -0.2827
35584W        W78496   4.762  33.310  29.908  0.2012 -0.0209  0.2231
35585W        W78497   7.084  34.106  30.077 -0.4822  0.0625 -0.2406
35586W        W78498   6.162  34.612  28.730  0.0384  0.1437  0.1628
35587W        W78499   8.253  34.342  30.029 -0.0870 -0.0201  0.0155
35588W        W78500   4.477  34.526  29.327  0.0302 -0.2006 -0.0764
35589W        W78501   2.775  34.429  31.226  0.0501 -0.3620  0.0456
35590W        W78502   3.986  32.390  28.013 -0.0673 -0.0187 -0.2287
35591W        W78503   5.088  32.788  28.199  0.3101 -0.0787  0.3637
35592W        W78504   6.718  33.037  28.178  0.0062  0.0414 -0.1579
35593W        W78505   7.625  33.276  30.144  0.1307  0.2067 -0.0500
35594W        W78506   6.929   0.565  28.452  0.1178 -0.2774 -0.1047
35595W        W78507   5.085   0.391  31.636  0.0804  0.3653  0.0387
35596W        W78508   5.812  33.715  29.183  0.0251 -0.1936 -0.0666
35597W        W78509   4.374  33.118  28.880 -0.2532 -0.1722  0.1485
35598W        W78510   7.467  32.958   0.434  0.1390 -0.2205  0.0204
35599W        W78511   4.169  32.852  26.774  0.0506 -0.1806 -0.4504
35600W        W78512   6.126  33.555  28.596 -0.0255  0.1699  0.3418
35601W        W78513   8.328  32.420  29.507  0.1036  0.4868  0.0858
35602W        W78514   5.858   0.749  28.608 -0.1057  0.0271  0.2515
35603W        W78515   3.855  32.794  27.187 -0.2130 -0.0410 -0.1297
35604W        W78516   7.792  32.349  29.566 -0.3019 -0.1708  0.0813
35605W        W78517   3.865  32.848  31.083  0.0937  0.1983  0.0185
35606W        W78518   7.090  33.130  29.977 -0.3214  0.0215 -0.1878
35607W        W78519   4.472  34.335  27.756  0.2296  0.1957 -0.3538
35608W        W78520   6.467  33.950  28.400 -0.0574  0.2691  0.3340
35609W        W78521   5.130  33.695  29.823 -0.2173  0.0618 -0.0060
35610W        W78522   6.181  32.895  26.796 -0.0001 -0.6238 -0.0287
35611W        W78523   9.095  34.408  29.658  0.1534 -0.0503 -0.0078
35612W        W78524   5.387  33.635  27.026  0.0294  0.2781 -0.0900
35613W        W78525   3.933  33.046  29.350  0.1303  0.1122  0.1130
35614W        W78526   6.199  34.091  28.855 -0.0503  0.1328 -0.1700
35615W        W78527   4.724  33.856  28.547 -0.1596  0.2040 -0.0719
35616W        W78528   5.390  34.478  29.446  0.2195  0.0454 -0.0417
35617W        W78529   4.115  32.365  26.975  0.0330 -0.0048  0.2589
35618W        W78530   6.897  33.629  29.872  0.1267  0.0014 -0.0098
35619W        W78531   5.410   0.971  28.886  0.1063  0.1947  0.0542
35620W        W78532   4.590  34.249  29.754 -0.1747  0.0562  0.3696
35621W        W78533   4.058  32.422  29.023  0.0589 -0.2513 -0.2360
35622W        W78534   5.566  33.796  28.025 -0.0232  0.0950  0.3074
35623W        W78535   6.608   0.142  28.753  0.0847  0.2229  0.0633
35624W        W78536   6.066  33.972  29.595  0.0706 -0.1772  0.2133
35625W        W78537   7.981  33.173  30.940 -0.2392 -0.0585  0.1108
35626W        W78538   6.069  34.169  27.433 -0.2019 -0.1318  0.2411
35627W        W78539   5.446  33.276  28.909  0.2173 -0.0382 -0.1671
35628W        W78540   6.974  32.629  28.036  0.3535  0.0538  0.1343
35629W        W78541   6.433  33.029  28.652  0.0619 -0.4148  0.0405
35630W        W78542   3.470  34.359  30.614  0.2613  0.0552 -0.0428
35631W        W78543   4.047  34.527  28.146  0.1474 -0.0172 -0.1421
35632W        W78544   6.054  33.093  30.874 -0.0586  0.4080  0.0894
35633W        W78545   5.203  33.145  29.903 -0.3750 -0.4235  0.0355
35634W        W78546   4.482  34.015  30.559  0.0940 -0.0854 -0.0502
35635W        W78547   3.189  32.734  27.048  0.1152 -0.0877  0.2245
35636W        W78548   4.659  33.011  28.388  0.3395  0.1196 -0.4186
35637W        W78549   3.962  33.291  28.505  0.0549  0.0483  0.1315
35638W        W78550   5.431  33.426  29.422  0.0087  0.0335  0.0993
35639W        W78551   7.366  32.977  31.925 -0.3041 -0.2081  0.0354
35640W        W78552   6.226  32.614  31.099 -0.0857 -0.1093  0.0025
35641W        W78553   2.616  33.774  26.469  0.1495  0.2645  0.0510
35642W        W78554   5.394  34.665  31.507  0.0410  0.0313  0.2964
35643W        W78555   4.641  32.669  30.583  0.0679 -0.2275  0.1910
35644W        W78556   8.113  32.127  28.731 -0.1189 -0.0641  0.1316
35645W        W78557   5.893  34.359  29.230  0.1524 -0.2171  0.1402
35646W        W78558   4.598  32.052  31.199  0.0943 -0.1293  0.0646
35647W        W78559   4.531  32.354  28.934  0.0981 -0.1040 -0.0456
35648W        W78560   7.181  33.497  28.725 -0.5204 -0.0029  0.3798
35649W        W78561   5.133  33.292  30.396 -0.5207  0.3026  0.0564
35650W        W78562   5.351  34.651  28.481  0.4123 -0.3809 -0.5104
35651W        W78563   5.625  33.936  29.933 -0.3203 -0.3668 -0.2569
35652W        W78564   4.598  34.460  28.293  0.0139  0.1264  0.1952
35653W        W78565   6.340  33.733  27.391 -0.1257  0.0127  0.0698
35654W        W78566   4.141  32.919  30.166  0.1533 -0.1223 -0.2469
35655W        W78567   3.868  34.597  30.015  0.0897  0.1076  0.0922
35656W        W78568   4.551  34.212  28.860  0.2398  0.0088  0.2886
35657W        W78569   7.448  34.195  30.545 -0.0944 -0.0876 -0.3854
35658W        W78570   3.825  32.567  29.473  0.0588  0.3182 -0.0188
35659W        W78571   5.401  32.428  28.336  0.0377  0.1705  0.1041
35660W        W78572   7.565  33.741  30.301  0.2303 -0.2574 -0.0549
35661W        W78573   5.959  33.954   1.827  0.0043 -0.2418 -0.0632
35662W        W78574   3.499  33.580  31.871 -0.0280 -0.0275  0.2376
35663W        W78575   6.764  33.343  31.316 -0.1820  0.0325  0.1449
35664W        W78576   5.698  32.729  31.029 -0.0102 -0.1223  0.2320
35665W        W78577   7.726   0.926  30.825  0.0315 -0.3655  0.3425
35666W        W78578   5.570  32.177  31.571 -0.3410 -0.0017 -0.0121
35667W        W78579   7.948  34.686  30.310  0.0922  0.1776  0.1543
35668W        W78580   4.474  32.789  31.062  0.0404  0.2143 -0.2761
35669W        W78581   4.948  33.794  31.837  0.2376  0.2430 -0.0161
35670W        W78582   5.295  33.042  31.359 -0.3676  0.3064 -0.4532
35671W        W78583   6.919  33.489  30.878 -0.2095  0.1131  0.0780
35672W        W78584   7.111  31.584  31.639  0.0854 -0.0812 -0.0612
35673W        W78585   5.666  32.896  30.102  0.1394 -0.0825 -0.0783
35674W        W78586   6.871  32.297  31.516 -0.0063  0.4638  0.1563
35675W        W78587   5.166  32.131  29.724 -0.1014  0.1816  0.0004
35676W        W78588   6.536  33.062   0.334 -0.2901  0.2570  0.1669
35677W        W78589   6.761  32.871  29.443 -0.0374  0.1050  0.0837
35678W        W78590   7.119  34.227  31.740 -0.1655 -0.2187 -0.1120
35679W        W78591   3.820  33.016  30.540  0.1203 -0.1074 -0.0485
35680W        W78592   7.077  33.804  30.530  0.2169 -0.1378  0.0234
35681W        W78593   7.545  32.931  31.134 -0.3952 -0.0299  0.1384
35682W        W78594   6.914   0.125  30.341  0.0923 -0.1383  0.0670
35683W        W78595   4.824  33.676  30.848  0.1080  0.0819  0.2466
35684W        W78596   6.992  32.627  29.865  0.1353 -0.0938 -0.1060
35685W        W78597   3.985  34.598  31.470  0.3815  0.2275  0.0577
35686W        W78598   6.498  33.078  29.871  0.0279  0.1968  0.0222
35687W        W78599   8.298  32.131  31.363 -0.0129 -0.1524  0.3316
35688W        W78600   5.204  32.825  30.823 -0.0042  0.0212  0.0464
35689W        W78601   6.766  33.539   0.306 -0.2031 -0.1442  0.3034
35690W        W78602   5.820  33.158  31.318  0.3233  0.2058 -0.1040
35691W        W78603   3.928  34.225  30.411  0.3414  0.0427 -0.1282
35692W        W78604   3.975  34.100  31.485  0.1473  0.0695  0.2132
35693W        W78605   7.060  33.958   0.167 -0.1381 -0.1167  0.0491
35694W        W78606   9.846   3.278  20.343  0.0901  0.0497 -0.2723
35695W        W78607   7.564   1.541  16.253 -0.1556  0.2552 -0.1460
35696W        W78608   9.721   0.341  15.426  0.1068  0.4219  0.0374
35697W        W78609  11.590   2.051  17.513 -0.0773 -0.1139  0.1511
35698W        W78610   8.219   1.750  16.983 -0.2316  0.1532  0.2669
35699W        W78611   9.421   3.174  16.881 -0.1507 -0.0453 -0.2098
35700W        W78612   8.060  34.197  18.005  0.1663  0.1488 -0.4676
35701W        W78613  10.454   4.420  19.443  0.1353  0.3464 -0.2604
35702W        W78614   9.676   3.530  18.515  0.1499 -0.0290 -0.0565
35703W        W78615   8.909   1.816  15.505 -0.2078 -0.1001 -0.0591
35704W        W78616   8.903   0.204  17.589 -0.4046  0.0422  0.1124
35705W        W78617   8.305   4.116  19.033 -0.0079  0.0398  0.1269
35706W        W78618  10.050  34.422  16.293 -0.1232  0.0621 -0.1302
35707W        W78619   8.563   1.568  17.336 -0.0889 -0.0272 -0.3184
35708W        W78620  10.672   1.826  16.323  0.1368 -0.0970  0.3175
35709W        W78621   6.239   0.915  16.722 -0.1072  0.0351 -0.0324
35710W        W78622   9.252   1.937  17.805  0.0293 -0.0653 -0.2519
35711W        W78623   8.778   0.971  16.836  0.1177 -0.4993 -0.0625
35712W        W78624  10.267   2.964  17.165 -0.1391 -0.1240 -0.4670
35713W        W78625   7.977   1.336  19.007 -0.2903  0.4094 -0.1265
35714W        W78626   8.323   1.443  18.461  0.2728 -0.0528 -0.1651
35715W        W78627   8.426   2.986  17.430  0.0726  0.0650  0.2965
35716W        W78628   7.779   1.513  17.120  0.5365 -0.1142 -0.2248
35717W        W78629   8.055   0.894  18.856 -0.0192  0.1558  0.1185
35718W        W78630   9.134   1.097  17.929 -0.1721  0.0916 -0.1486
35719W        W78631   9.492  34.690  17.466 -0.0257 -0.0758  0.1166
35720W        W78632  11.177   1.924  16.447  0.5454  0.0610 -0.2632
35721W        W78633   7.298   3.169  16.547 -0.0388 -0.1053 -0.0234
35722W        W78634   9.568   2.056  16.750  0.1770 -0.1875  0.1189
35723W        W78635   8.070  34.159  19.536  0.1317  0.0680 -0.2598
35724W        W78636   8.299   3.437  18.263  0.0763 -0.2172  0.2023
35725W        W78637   6.046   3.305  17.895 -0.0979 -0.1109  0.2602
35726W        W78638   8.799   3.074  16.984  0.1069  0.1566  0.1988
35727W        W78639  10.276   2.169  16.118 -0.2307 -0.1642 -0.0100
35728W        W78640  11.391   3.353  18.923 -0.0288  0.0654  0.0673
35729W        W78641   7.430   4.092  19.553 -0.3023 -0.1542 -0.2702
35730W        W78642   8.202   3.369  15.888 -0.1019 -0.0510  0.0516
35731W        W78643  10.300   3.444  20.149 -0.1752 -0.3578 -0.2434
35732W        W78644   8.691   2.239  20.407  0.0672  0.0513 -0.0647
35733W        W78645   9.178   2.803  19.075 -0.0166  0.0900  0.1107
35734W        W78646   9.972   1.706  17.985  0.0698 -0.1540  0.2191
35735W        W78647   8.736   3.000  16.453 -0.2590  0.0275  0.1366
35736W        W78648   9.680   2.532  17.735  0.2140  0.0271  0.1908
35737W        W78649   8.954   2.771  18.514  0.0161  0.0593 -0.1172
35738W        W78650   8.173   1.766  17.705  0.2051  0.3146  0.2300
35739W        W78651   8.722   0.003  20.333  0.2372 -0.5851 -0.0422
35740W        W78652   8.513   3.762  15.803 -0.0079  0.1352  0.0953
35741W        W78653  11.184   2.440  16.307 -0.4153  0.0636 -0.3275
35742W        W78654   8.896   0.958  17.420 -0.0243 -0.3783  0.3761
35743W        W78655  11.068   2.025  15.961 -0.1794  0.1382 -0.1797
35744W        W78656   8.656   0.639  17.668 -0.2491 -0.1942 -0.1140
35745W        W78657   6.592   4.129  18.192  0.0930 -0.1267  0.2015
35746W        W78658   7.697   0.499  16.917 -0.5230 -0.0692  0.0211
35747W        W78659  10.660   3.385  19.390 -0.0225 -0.0214  0.1631
35748W        W78660   9.869   0.523  16.376 -0.1874 -0.0925  0.0750
35749W        W78661   9.051   0.212  18.470  0.1290 -0.3303  0.0119
35750W        W78662   8.018   4.451  17.912  0.1641 -0.0516 -0.0294
35751W        W78663   9.094   1.732  18.447 -0.1701 -0.0468 -0.4067
35752W        W78664   9.822   2.614  15.967 -0.1455  0.2651 -0.0405
35753W        W78665   9.770   2.047  17.745  0.0822  0.1334  0.1209
35754W        W78666   9.472   3.539  16.343 -0.0074 -0.1390  0.2509
35755W        W78667   6.310   3.431  17.303  0.0958  0.1669 -0.0562
35756W        W78668   6.950   2.951  18.873  0.1488 -0.0423 -0.1126
35757W        W78669   6.509   0.193  19.292  0.1520  0.0572 -0.1532
35758W        W78670   8.619  34.031  15.782 -0.1742  0.0025 -0.1207
35759W        W78671  10.404   1.808  18.766  0.0632 -0.3770 -0.0796
35760W        W78672   7.279   3.610  18.691 -0.1173  0.0771  0.0641
35761W        W78673  10.143   0.143  18.249  0.0539 -0.2035 -0.0072
35762W        W78674   8.003   2.070  19.206 -0.2835 -0.2071 -0.2139
35763W        W78675   9.944   2.464  18.351 -0.0226  0.1996  0.0022
35764W        W78676  10.648   1.838  15.859  0.0918 -0.2577  0.1280
35765W        W78677   9.643  34.693  16.420 -0.0370 -0.0269 -0.1157
35766W        W78678   8.715   0.901  18.103 -0.1918  0.0832 -0.2343
35767W        W78679   8.390   2.196  16.121  0.0183  0.5053  0.1616
35768W        W78680   7.989   1.279  16.616  0.1026  0.1254 -0.2566
35769W        W78681  11.911   4.323  19.538 -0.1897 -0.1851  0.0405
35770W        W78682  10.211   1.987  15.622  0.1696  0.1279  0.0211
35771W        W78683   6.730   2.501  17.257 -0.2240 -0.0360 -0.1634
35772W        W78684   8.155   1.897  18.706 -0.0912  0.0173  0.1605
35773W        W78685   9.989   2.845  17.960 -0.0227  0.0872  0.4326
35774W        W78686   8.229   3.084  16.385 -0.0397  0.1942 -0.1529
35775W        W78687   7.706   3.434  18.466  0.3611  0.0834  0.1288
35776W        W78688   8.540   2.664  16.769 -0.0615 -0.1181 -0.0843
35777W        W78689   6.888  34.461  18.440 -0.0500 -0.1627  0.0513
35778W        W78690   8.618   3.271  17.819  0.0125  0.1113 -0.2638
35779W        W78691  11.258   0.498  17.006  0.1119  0.0756 -0.2993
35780W        W78692   7.330   0.926  20.985  0.0899 -0.0135 -0.0760
35781W        W78693  11.454   0.952  18.478 -0.1949 -0.1916 -0.0607
35782W        W78694   7.058   1.623  16.426 -0.0649 -0.0673  0.1276
35783W        W78695  10.854   3.287  18.699 -0.2713 -0.2328 -0.2434
35784W        W78696  10.664   2.346  16.506 -0.1753  0.3510  0.0242
35785W        W78697   9.664   3.131  15.974  0.1160 -0.0557 -0.1234
35786W        W78698   7.854  34.539  18.359  0.1658 -0.0708 -0.2022
35787W        W78699   7.413   1.439  16.779  0.0922 -0.3477 -0.1664
35788W        W78700   8.879   0.687  19.684  0.3795 -0.1647 -0.0213
35789W        W78701   7.779   0.794  18.206  0.1527 -0.0310 -0.2452
35790W        W78702  11.175   1.825  18.323 -0.3687 -0.2241 -0.0060
35791W        W78703   8.266  34.074  15.336 -0.0204  0.0921  0.5417
35792W        W78704  10.630   0.102  18.022  0.1017  0.0422 -0.0391
35793W        W78705   9.032   1.930  17.251  0.1448  0.1887 -0.1650
35794W        W78706   6.459  34.584  17.117 -0.0515 -0.0364 -0.0903
35795W        W78707  10.447   1.522  19.202  0.2060 -0.0221 -0.5326
35796W        W78708   9.417   2.941  15.627 -0.0223 -0.1376 -0.1606
35797W        W78709  10.450   3.541  18.828  0.0884 -0.0388 -0.0004
35798W        W78710   9.171   3.877  17.419  0.0323 -0.1529  0.3300
35799W        W78711   7.200   2.304  19.168 -0.1073  0.1828 -0.0819
35800W        W78712   9.647   0.861  16.676  0.1287 -0.0457  0.4339
35801W        W78713   8.376   2.216  17.460  0.2887  0.1752  0.1790
35802W        W78714   8.962   2.937  17.493  0.1811  0.3205  0.0641
35803W        W78715   8.651   0.466  16.615  0.2094 -0.2191  0.2563
35804W        W78716   9.126   3.527  18.668 -0.2959  0.0487  0.0816
35805W        W78717   9.439   1.707  16.412  0.1381  0.2397  0.1580
35806W        W78718   7.657   3.323  18.997  0.0879 -0.2675  0.0872
35807W        W78719   9.656   1.123  18.666  0.0995  0.0928  0.1409
35808W        W78720  10.494   1.418  17.381 -0.3050 -0.0597  0.2272
35809W        W78721  10.200   1.018  16.079  0.2554 -0.2092 -0.1291
35810W        W78722   6.949   0.253  16.235  0.0305 -0.0555  0.0969
35811W        W78723  10.090   4.795  18.500  0.0431  0.0875  0.3345
35812W        W78724   7.662   3.377  16.092  0.2096  0.1668 -0.0070
35813W        W78725   7.604   1.486  17.778 -0.0729  0.0709 -0.3221
35814W        W78726   7.800   3.190  16.619  0.4749  0.1026  0.0683
35815W        W78727  11.804   2.461  17.638 -0.1611 -0.2946 -0.1784
35816W        W78728   8.896   3.033  19.476  0.0871  0.0513 -0.2333
35817W        W78729  10.220   0.970  18.733 -0.0215  0.0620  0.1712
35818W        W78730   7.411   1.371  15.796 -0.0979  0.2918 -0.1521
35819W        W78731   8.088   3.084  19.553  0.2415  0.1366  0.0349
35820W        W78732   9.773  34.425  18.044  0.0910 -0.0419 -0.0504
35821W        W78733  11.083   0.756  16.611 -0.0834  0.2314  0.1268
35822W        W78734   9.513   3.042  20.003  0.0236  0.1647 -0.1331
35823W        W78735  10.541   1.738  16.816 -0.0202  0.3427 -0.0559
35824W        W78736   8.875   0.424  15.487  0.1388 -0.1000  0.1555
35825W        W78737   9.232   0.665  17.662 -0.0437 -0.0726 -0.0039
35826W        W78738   8.368   4.091  18.505 -0.0206  0.3435  0.2243
35827W        W78739   9.399   1.180  17.456  0.1622 -0.0904  0.3315
35828W        W78740   9.805   3.870  17.644  0.1217  0.1153 -0.1137
35829W        W78741   9.271  34.592  16.064  0.2522  0.2458 -0.1900
35830W        W78742   9.693   3.938  17.172 -0.0561  0.0075 -0.0252
35831W        W78743   7.822   3.790  18.834  0.0707 -0.1229  0.0815
35832W        W78744  10.402   3.935  20.107  0.0950 -0.0283 -0.2330
35833W        W78745  11.071   3.602  19.143  0.2424 -0.0702  0.1361
35834W        W78746   7.802   0.313  18.217  0.0302  0.2213 -0.4105
35835W        W78747   8.715   1.485  16.861 -0.0959 -0.2096  0.0514
35836W        W78748  10.391   0.387  17.611  0.1141  0.1400  0.1933
35837W        W78749   7.500   3.828  17.025 -0.1436 -0.1473 -0.2576
35838W        W78750  11.473   1.889  18.835 -0.1005  0.0781  0.1128
35839W        W78751   8.793   0.636  18.514 -0.0265  0.2050  0.2441
35840W        W78752   8.492   1.118  17.652  0.0855  0.3444 -0.3600
35841W        W78753   9.688   0.850  19.046  0.0529  0.3991 -0.2050
35842W        W78754  10.076   0.989  15.442  0.4255  0.0150  0.1970
35843W        W78755   8.431   2.233  18.026 -0.2094  0.0426 -0.1349
35844W        W78756   6.722   1.546  15.989 -0.0827  0.2671  0.0693
35845W        W78757   8.114   0.490  18.575  0.1527  0.2856 -0.2532
35846W        W78758   8.455   2.902  18.627  0.0280  0.1342 -0.1824
35847W        W78759   9.223   3.396  19.775  0.0030  0.0238  0.1994
35848W        W78760   9.768   3.041  18.388  0.0843 -0.0461 -0.1647
35849W        W78761  10.718   2.209  18.165  0.0895  0.2492 -0.0258
35850W        W78762   9.496  34.136  19.100 -0.1458 -0.0144 -0.2773
35851W        W78763   9.245   1.345  15.443 -0.1209  0.0923 -0.0514
35852W        W78764   8.490   4.464  16.412 -0.0144  0.0171  0.1780
35853W        W78765   9.173   2.211  16.373 -0.0796  0.0917  0.3535
35854W        W78766   7.964   0.775  19.465  0.1429  0.0543 -0.2450
35855W        W78767  10.449   4.039  18.511  0.1209  0.0752 -0.2271
35856W        W78768   8.387   2.926  15.943  0.3581 -0.0202  0.0874
35857W        W78769  10.045   3.367  18.077  0.2313  0.0270  0.1292
35858W        W78770   8.184   2.198  16.704 -0.0511 -0.0655 -0.3744
35859W        W78771   9.745   1.012  18.221  0.6438  0.1938 -0.0133
35860W        W78772   7.962   3.475  17.095 -0.2180 -0.1552 -0.2056
35861W        W78773   8.125   1.321  16.134 -0.0782 -0.1414  0.1993
35862W        W78774   7.223   0.657  16.270  0.1842 -0.0548 -0.0781
35863W        W78775   9.279  33.801  18.266  0.0161  0.0763  0.1191
35864W        W78776  10.139   3.008  15.954 -0.0426  0.0113 -0.0912
35865W        W78777   7.797   1.199  18.550 -0.3234  0.0106  0.1861
35866W        W78778   9.069   1.828  16.683 -0.2207 -0.2239  0.1099
35867W        W78779   6.918   3.557  17.863  0.2350  0.1717  0.3151
35868W        W78780   9.876   0.905  17.296 -0.2646  0.1565 -0.0851
35869W        W78781   9.741   1.501  15.341 -0.3617  0.1556 -0.1536
35870W        W78782  10.546   3.152  17.933 -0.2278 -0.0038 -0.0636
35871W        W78783   8.995   1.641  19.311  0.1581  0.1657  0.1480
35872W        W78784   8.712   1.965  17.692  0.0715 -0.0324  0.0023
35873W        W78785  10.035   1.393  18.870 -0.1490 -0.1628 -0.1021
35874W        W78786   8.293   0.333  16.916  0.1134 -0.0102 -0.1006
35875W        W78787   8.316   2.597  16.364  0.1038  0.0510 -0.0737
35876W        W78788  10.923   5.147  18.847 -0.1319 -0.1837 -0.0672
35877W        W78789   6.447   1.527  16.981  0.0176 -0.2025 -0.1997
35878W        W78790   7.539   2.041  16.064 -0.1084 -0.3785  0.2879
35879W        W78791   7.596   1.110  19.534  0.0382 -0.0566 -0.2673
35880W        W78792  10.973   0.642  18.237  0.0813  0.0967 -0.1568
35881W        W78793   8.341   1.203  17.070  0.1736  0.3998 -0.1411
35882W        W78794   8.938   0.432  15.987 -0.1734  0.0547 -0.0029
35883W        W78795   9.217   0.821  18.785  0.1038 -0.4856 -0.0359
35884W        W78796  10.199   2.183  16.737 -0.0505 -0.2504  0.1445
35885W        W78797   8.359   0.315  17.529  0.3713  0.1190 -0.0559
35886W        W78798   8.722   2.566  19.033 -0.4335 -0.0392  0.1652
35887W        W78799   9.093  34.617  17.141  0.3117  0.0061 -0.1419
35888W        W78800  10.300   4.110  16.339  0.2549 -0.1674  0.0660
35889W        W78801   9.886   1.898  19.078  0.0446  0.2755  0.0160
35890W        W78802   7.882   1.773  16.585  0.0170  0.0923  0.2450
35891W        W78803   7.102   0.784  18.941  0.1008 -0.1011  0.0598
35892W        W78804   6.291   2.800  16.703  0.0271  0.1790 -0.0727
35893W        W78805   9.582   1.444  17.894  0.1534  0.1601  0.3713
35894W        W78806   8.743   2.525  17.262  0.1592 -0.1361  0.1677
35895W        W78807   8.611   2.101  17.007  0.3141 -0.0822  0.0329
35896W        W78808   5.813   3.804  16.880  0.3387 -0.0580  0.2296
35897W        W78809   9.443   0.437  16.168  0.1471  0.1462 -0.3749
35898W        W78810   9.211   1.225  16.693  0.0913  0.1578  0.3171
35899W        W78811   9.724   1.321  16.404  0.2233  0.3121 -0.0264
35900W        W78812   9.308   0.068  19.339 -0.0033 -0.1756 -0.2573
35901W        W78813   8.825   1.507  16.336  0.1528 -0.0020  0.0567
35902W        W78814   9.256   0.694  18.301  0.0084 -0.1927 -0.1952
35903W        W78815   7.493   0.641  19.327 -0.0346 -0.2899 -0.1814
35904W        W78816  11.806   2.694  16.958 -0.1674 -0.0837 -0.1203
35905W        W78817   7.772  34.004  18.376 -0.1156 -0.0279 -0.1146
35906W        W78818  11.001   3.261  20.392  0.0385 -0.2442  0.1017
35907W        W78819   6.823   2.296  20.874 -0.0899 -0.0061 -0.0516
35908W        W78820  10.379   0.629  16.324  0.1276  0.1651  0.0911
35909W        W78821   7.687  34.499  16.385 -0.1888  0.4001  0.2734
35910W        W78822   8.081   3.078  17.834  0.2603  0.0693  0.1409
35911W        W78823  10.599   2.986  19.087 -0.1339 -0.1207 -0.4370
35912W        W78824   9.124   2.364  15.753 -0.2458  0.0393  0.0039
35913W        W78825  10.609   1.824  17.694 -0.0412  0.1130 -0.2830
35914W        W78826   8.859   3.097  18.872  0.2427 -0.0901  0.1758
35915W        W78827  10.519   1.307  16.305 -0.1992 -0.0832 -0.1778
35916W        W78828   9.265   1.429  16.042 -0.2323  0.2839 -0.0811
35917W        W78829   7.383   2.452  16.656  0.1803  0.0523  0.1000
35918W        W78830   8.961   1.309  20.081  0.1198 -0.0621 -0.0665
35919W        W78831  10.174   3.483  17.552 -0.4710 -0.0711  0.0093
35920W        W78832  10.899   1.421  17.747 -0.2176 -0.2094  0.3211
35921W        W78833   9.604   0.015  18.474  0.0887  0.1152 -0.1054
35922W        W78834   9.859   0.174  17.821 -0.3681  0.3246 -0.0845
35923W        W78835   8.492   2.124  19.011  0.0710  0.1290 -0.0196
35924W        W78836   7.174   1.339  19.327 -0.0922  0.0463  0.1195
35925W        W78837   9.417   3.678  19.422 -0.2084  0.2046 -0.2982
35926W        W78838  10.928   2.650  17.397  0.0667 -0.2389 -0.1528
35927W        W78839  10.795   0.620  17.358  0.0515  0.2580  0.0561
35928W        W78840  11.607   1.529  18.426 -0.1345  0.1082  0.1483
35929W        W78841   9.890   1.982  16.313  0.1113 -0.0822  0.3534
35930W        W78842   8.452   0.786  17.251 -0.0734  0.0679  0.0098
35931W        W78843   9.566   2.153  18.791  0.0488 -0.0962 -0.1764
35932W        W78844   8.357   1.720  16.515  0.0136 -0.0528  0.0311
35933W        W78845   8.483   1.706  19.314  0.4141 -0.0141 -0.0606
35934W        W78846  11.203   2.661  16.819  0.1502  0.0202 -0.2353
35935W        W78847   9.867   2.977  17.458 -0.1564 -0.0256 -0.0283
35936W        W78848  10.143   1.403  15.663  0.0566 -0.2588 -0.3823
35937W        W78849   7.457   0.652  17.326  0.2462 -0.1467  0.1552
35938W        W78850   7.906   4.887  18.749  0.0494 -0.1767  0.2623
35939W        W78851   7.639   1.047  16.065 -0.0971 -0.0352 -0.2272
35940W        W78852   9.929   1.894  18.553  0.0445 -0.0059  0.1805
35941W        W78853  10.161   2.349  17.907 -0.0049 -0.0912  0.3063
35942W        W78854   9.841   2.221  19.559 -0.0711  0.0630 -0.3273
35943W        W78855   8.593   0.780  15.764  0.0302 -0.0693 -0.1089
35944W        W78856  10.644   0.793  21.129  0.1306  0.1881  0.3079
35945W        W78857   8.081   3.586  16.326 -0.1037 -0.0024 -0.1950
35946W        W78858   9.616   0.345  16.856 -0.5867 -0.1863 -0.1822
35947W        W78859   7.562   3.487  17.474 -0.0574  0.1298  0.3171
35948W        W78860   7.596   3.025  18.127  0.1731  0.0653  0.3688
35949W        W78861  10.388   3.875  17.979  0.2320  0.1789 -0.0979
35950W        W78862   9.378   0.073  17.923 -0.0919  0.0506 -0.1471
35951W        W78863   9.568   2.135  18.238 -0.1413  0.1279  0.1050
35952W        W78864   9.445   2.665  18.233 -0.1499 -0.0879  0.2577
35953W        W78865  11.166   2.282  19.079 -0.1852 -0.0325 -0.2551
35954W        W78866   9.443   3.005  17.801  0.1357 -0.1095 -0.0334
35955W        W78867   8.177   2.519  17.091  0.0316 -0.2185 -0.0458
35956W        W78868   9.023   4.248  18.157 -0.0825 -0.0100  0.1214
35957W        W78869  10.819   2.982  17.001  0.0821  0.2113  0.2262
35958W        W78870   8.508   2.870  18.116 -0.2866 -0.1428 -0.2298
35959W        W78871   7.066   0.266  19.210  0.0928 -0.0607 -0.3486
35960W        W78872   8.534   0.201  18.478  0.3576  0.2983 -0.0980
35961W        W78873   9.471   1.747  17.389  0.2654  0.0810 -0.1418
35962W        W78874   8.152   0.788  16.057  0.1592  0.0894  0.0178
35963W        W78875   8.862   2.546  16.207  0.1854 -0.3430  0.1038
35964W        W78876   6.441   3.174  18.531 -0.1112 -0.2164 -0.2645
35965W        W78877   8.090   1.831  19.664  0.0627  0.2356  0.5435
35966W        W78878   9.158   2.778  16.606 -0.3066  0.2123  0.3416
35967W        W78879  10.331   2.500  15.732  0.1561 -0.1936  0.2045
35968W        W78880   9.942   1.855  17.005 -0.1564  0.0825 -0.0658
35969W        W78881  10.595   2.430  20.151 -0.1975 -0.1283  0.1998
35970W        W78882   9.174   0.728  16.480  0.0128 -0.2537  0.0541
35971W        W78883   9.155   2.324  16.880  0.1954 -0.0199  0.2257
35972W        W78884   7.546   3.782  15.448 -0.1082 -0.0429 -0.3685
35973W        W78885   9.861   2.780  15.421  0.0096 -0.0256 -0.2033
35974W        W78886   8.622   4.649  17.471  0.1517 -0.0753 -0.0829
35975W        W78887  10.817   2.057  18.672  0.1588 -0.0788  0.2181
35976W        W78888  12.282   0.432  16.987 -0.1078 -0.0385  0.2183
35977W        W78889  10.451   1.424  17.949  0.2176  0.0310  0.0055
35978W        W78890  11.017   1.479  16.109  0.2751  0.1068  0.1382
35979W        W78891   9.858   2.742  19.653  0.2261 -0.1489 -0.0116
35980W        W78892   8.975   2.877  17.982 -0.5239 -0.2787 -0.0401
35981W        W78893   8.899   0.912  15.384  0.2722 -0.0151  0.4781
35982W        W78894   8.777   3.569  19.528 -0.2639 -0.4272 -0.0406
35983W        W78895  11.006   0.016  19.332 -0.0228 -0.0666 -0.1066
35984W        W78896   5.725   4.517  19.242  0.2072  0.1102  0.0167
35985W        W78897  10.956   3.106  15.482  0.0397  0.0311 -0.0119
35986W        W78898   6.753   0.667  16.513  0.0322  0.0794 -0.1068
35987W        W78899   9.562   2.652  18.699 -0.3568 -0.0435  0.1280
35988W        W78900   9.755  34.584  19.037 -0.1744  0.1841  0.0007
35989W        W78901   8.694   2.233  16.550 -0.0764  0.0685 -0.2503
35990W        W78902  10.129   1.607  16.591  0.2650  0.1306  0.0299
35991W        W78903   8.701   3.418  17.343  0.0235  0.0613  0.0609
35992W        W78904   8.498   2.353  18.530 -0.1929  0.2228  0.0022
35993W        W78905   8.373   5.574  17.998  0.0026  0.1864  0.1547
35994W        W78906   8.428   0.384  16.131 -0.2331 -0.0137  0.0535
35995W        W78907  12.182   1.396  17.933  0.2311  0.1657  0.1675
35996W        W78908   7.603   1.582  18.274  0.0088 -0.0605 -0.0084
35997W        W78909   8.518   1.197  18.958  0.3813 -0.1764  0.1136
35998W        W78910   7.876   0.168  17.324 -0.1138 -0.0558 -0.3448
35999W        W78911  10.919  34.683  16.972 -0.0323 -0.3345 -0.2953
36000W        W78912   9.872   1.471  17.418 -0.1059  0.1206 -0.3246
36001W        W78913   8.727   1.706  18.820  0.4474  0.0506  0.1458
36002W        W78914   9.647   1.147  15.732 -0.3950  0.1583 -0.4762
36003W        W78915  10.923   4.176  19.191  0.0753 -0.1466 -0.0577
36004W        W78916   9.497   2.058  15.963  0.1793 -0.1545 -0.0049
36005W        W78917   9.648   4.228  19.652  0.0680 -0.1838 -0.0009
36006W        W78918   7.322  34.652  18.388 -0.0536 -0.1820  0.0349
36007W        W78919  11.407   1.359  16.521 -0.2251  0.0688  0.0020
36008W        W78920   8.702   2.551  17.737  0.1322 -0.3294  0.0162
36009W        W78921   9.265   3.161  18.255 -0.2138 -0.3414  0.0253
36010W        W78922  10.578   2.521  20.674 -0.1872  0.2675 -0.4275
36011W        W78923   6.963   0.307  17.381  0.0765 -0.5283  0.0228
36012W        W78924  11.525   2.274  15.414  0.3766  0.0104  0.0543
36013W        W78925  12.490   2.654  19.586  0.1181 -0.1580 -0.3464
36014W        W78926   9.289   3.562  15.828  0.0462  0.1363 -0.0961
36015W        W78927  10.645   3.218  17.429 -0.0462  0.3671 -0.2461
36016W        W78928  10.839   4.593  17.047 -0.0546  0.0131  0.4356
36017W        W78929   8.070   0.848  17.807  0.0828 -0.0935  0.1580
36018W        W78930  10.785   3.484  19.891 -0.1083  0.0467  0.0002
36019W        W78931  11.720   3.030  17.660 -0.0300  0.0138 -0.0271
36020W        W78932   9.566  33.893  15.490 -0.2374  0.0192 -0.0162
36021W        W78933   7.430  33.561  18.737 -0.1743 -0.0382  0.2581
36022W        W78934   8.635   3.864  16.482  0.4322 -0.0854  0.2764
36023W        W78935  10.830  33.829  17.330 -0.0613 -0.1332  0.3193
36024W        W78936  10.344   2.308  18.727 -0.3153 -0.1327  0.2169
36025W        W78937   9.202   4.352  15.755  0.0854 -0.1057  0.3086
36026W        W78938   8.937   0.428  18.059 -0.0068  0.0119  0.1149
36027W        W78939   9.034   3.476  19.153  0.0208 -0.3837  0.3016
36028W        W78940   8.356   3.713  19.331  0.2250  0.2301 -0.1453
36029W        W78941   8.885   1.996  16.017 -0.2880  0.2227 -0.0009
36030W        W78942   8.997   2.180  19.171  0.0862 -0.3033  0.0205
36031W        W78943   9.580   2.213  17.305 -0.1499  0.0634 -0.0338
36032W        W78944   8.916   2.893  15.822  0.0243  0.0483  0.1297
36033W        W78945  10.070   1.408  18.358  0.1211 -0.0099 -0.1173
36034W        W78946   9.101   0.272  16.721  0.2582  0.0692  0.1951
36035W        W78947  10.007   3.903  18.878 -0.0400 -0.2904 -0.1460
36036W        W78948   8.576   1.563  17.971  0.2190  0.1057  0.0214
36037W        W78949  10.904   0.094  16.183  0.3695  0.4071 -0.1393
36038W        W78950  10.213   0.601  18.085  0.0178  0.2662  0.0999
36039W        W78951   8.033   2.347  18.571  0.0328 -0.1544 -0.1135
36040W        W78952   7.980   0.159  16.000 -0.0293  0.3946 -0.2163
36041W        W78953   8.130   3.014  15.471 -0.0752  0.0414  0.0226
36042W        W78954   8.312   0.893  18.418 -0.1854 -0.0660  0.0362
36043W        W78955   8.458  34.481  19.297 -0.1046 -0.1287 -0.0020
36044W        W78956   7.152   0.328  18.625  0.2647  0.0180  0.0200
36045W        W78957   8.013   1.408  18.074  0.2119  0.0324  0.1116
36046W        W78958   8.770   0.460  17.186  0.0863 -0.1515 -0.2225
36047W        W78959  10.138   2.729  16.732 -0.0990 -0.2212 -0.0983
36048W        W78960   6.162  34.510  17.527  0.2306 -0.1227  0.0062
36049W        W78961   7.882   0.396  17.735  0.0898  0.0996  0.2813
36050W        W78962  11.372   1.614  17.597  0.1918 -0.3711  0.1785
36051W        W78963   9.633   2.435  16.418 -0.0916  0.1030  0.2163
36052W        W78964   8.449  34.383  18.271 -0.0482 -0.0638  0.1843
36053W        W78965  10.590   4.845  18.674  0.0736  0.1268 -0.2901
36054W        W78966   7.471   2.833  16.934  0.2116  0.0236  0.2819
36055W        W78967   8.442   0.868  19.448  0.0152  0.1352  0.2839
36056W        W78968   9.477   1.296  19.133 -0.1621 -0.1021  0.0136
36057W        W78969   7.117   1.150  16.421  0.0384 -0.0501 -0.0702
36058W        W78970   8.979   2.190  18.659  0.0826 -0.4212  0.1385
36059W        W78971   9.669   2.581  16.889 -0.1122  0.3040 -0.1303
36060W        W78972  10.748   2.420  15.991 -0.2750 -0.0697  0.0689
36061W        W78973   9.375   3.145  18.767  0.0335  0.0736  0.2427
36062W        W78974  10.804   4.703  20.329 -0.1960  0.1501  0.5223
36063W        W78975   7.577   1.112  17.494  0.1377  0.3760 -0.0236
36064W        W78976  11.723   1.805  16.495 -0.1036  0.1790 -0.1060
36065W        W78977   9.806   4.034  20.164  0.3219  0.2527 -0.3489
36066W        W78978  10.122   1.097  16.580  0.0391  0.1713  0.2668
36067W        W78979   9.542   1.652  18.495 -0.0522  0.1799 -0.0209
36068W        W78980  10.497   2.465  17.030 -0.2073 -0.2075 -0.2364
36069W        W78981   6.840   0.352  20.134 -0.2893  0.2327  0.0224
36070W        W78982   7.492   4.392  18.132  0.2208  0.0492  0.0081
36071W        W78983   8.768   1.283  18.484 -0.2297 -0.1417  0.1920
36072W        W78984   8.394   0.510  18.022 -0.0309  0.0435  0.1396
36073W        W78985  10.613   0.920  17.792  0.1563  0.1691  0.2290
36074W        W78986  11.634   2.504  16.500 -0.0869  0.0857 -0.0168
36075W        W78987   9.013   1.527  17.655 -0.0112  0.0823 -0.0486
36076W        W78988   9.282   0.826  17.022 -0.2079 -0.1150 -0.0621
36077W        W78989  10.045   2.431  17.388 -0.0780 -0.2985 -0.0085
36078W        W78990   9.484   0.935  16.154  0.0086 -0.1515  0.0061
36079W        W78991  10.702   1.663  18.339 -0.3065  0.0202 -0.0702
36080W        W78992   9.125   1.452  17.137 -0.2635  0.0526 -0.0524
36081W        W78993  12.349   2.926  16.090 -0.0292  0.1684 -0.1056
36082W        W78994  10.289   3.216  20.615 -0.3152 -0.2098  0.3455
36083W        W78995  11.667   4.106  20.443  0.1478  0.2584 -0.1144
36084W        W78996   8.758   3.231  18.363 -0.1248  0.4054 -0.1755
36085W        W78997  10.445   2.007  17.276 -0.0148 -0.0235  0.2907
36086W        W78998   7.810   0.019  16.789  0.1196  0.1346 -0.3620
36087W        W78999   8.615   1.910  18.378 -0.0256  0.3385 -0.1555
36088W        W79000   9.187   2.483  17.568  0.0271  0.2901 -0.0851
36089W        W79001   9.660   1.533  16.865  0.1999 -0.0561 -0.0012
36090W        W79002   8.070   1.259  17.519 -0.2839 -0.0545  0.0963
36091W        W79003   9.375   1.766  15.631 -0.2983 -0.0419 -0.2249
36092W        W79004   8.644   3.642  18.798  0.0332 -0.3659  0.0683
36093W        W79005   9.264   1.826  18.940  0.1282 -0.0924 -0.0369
36094W        W79006   8.824   2.962  23.243  0.0311 -0.0677  0.1738
36095W        W79007   7.182   1.177  20.515  0.3924  0.2675 -0.0704
36096W        W79008   8.788   0.177  19.416 -0.0996  0.4291 -0.0296
36097W        W79009  10.289   1.779  19.657  0.0861 -0.0341 -0.2536
36098W        W79010   6.522   1.662  21.085 -0.2849  0.3043  0.1281
36099W        W79011   9.893   3.510  21.040  0.0761  0.1445  0.0408
36100W        W79012   7.125   0.572  23.099  0.0336 -0.0237 -0.0371
36101W        W79013   9.810   3.957  22.052 -0.2204  0.2592 -0.1061
36102W        W79014  11.571   4.049  22.525 -0.0574  0.1835 -0.1064
36103W        W79015   9.355   2.742  19.655  0.2888 -0.1830  0.2124
36104W        W79016  10.251   1.904  21.327 -0.2358 -0.2400 -0.0163
36105W        W79017   8.631   3.305  22.325  0.0614 -0.1275  0.1375
36106W        W79018   8.668  33.464  21.313 -0.6404 -0.0470  0.0583
36107W        W79019   5.907   1.213  22.760  0.0628  0.1867  0.0784
36108W        W79020   9.193   1.451  21.599 -0.0398  0.1817 -0.0729
36109W        W79021   7.758   2.885  21.907 -0.1965  0.1631  0.1470
36110W        W79022   8.659   1.023  23.025 -0.2062 -0.2032  0.1463
36111W        W79023   8.468   0.263  19.923  0.0075 -0.2675 -0.0972
36112W        W79024   9.615   4.924  23.379 -0.4829 -0.0474  0.4324
36113W        W79025  10.475   0.314  23.022  0.0766 -0.0070 -0.1187
36114W        W79026   9.202   0.897  22.853  0.0473 -0.2309 -0.1592
36115W        W79027   7.112   2.210  19.817 -0.3215 -0.0264 -0.2892
36116W        W79028   7.634   2.021  18.765  0.0232  0.1832 -0.0042
36117W        W79029   7.251   0.467  22.186  0.1831 -0.0093  0.1391
36118W        W79030   8.231   2.047  22.006  0.0809  0.3286  0.1221
36119W        W79031   7.151   0.507  20.843 -0.0503 -0.1926  0.1051
36120W        W79032  10.268   1.400  21.968  0.0567  0.1523 -0.2263
36121W        W79033   8.299   3.554  21.207 -0.1451  0.2060 -0.2455
36122W        W79034   9.470   3.020  21.554 -0.0652 -0.0091 -0.2127
36123W        W79035   9.816   0.964  22.929  0.0410 -0.0625  0.3578
36124W        W79036   5.433   1.917  22.779  0.5045 -0.2925  0.0957
36125W        W79037   7.467   3.836  21.665 -0.0218  0.2200 -0.1227
36126W        W79038   8.972   2.348  18.108 -0.0240  0.0082  0.0543
36127W        W79039  11.196   2.826  21.202 -0.3754  0.1620 -0.0325
36128W        W79040  10.777   3.714  23.115 -0.0255 -0.0608 -0.0825
36129W        W79041   8.971   4.012  21.761 -0.2419 -0.2807 -0.1381
36130W        W79042   8.151   3.389  18.736 -0.0852  0.2436 -0.4806
36131W        W79043   9.002   3.457  22.628  0.0225  0.1353 -0.3571
36132W        W79044   8.434   4.827  22.386  0.0337 -0.4736  0.1067
36133W        W79045   9.394   2.270  23.654  0.0575  0.2035  0.1180
36134W        W79046   8.596   1.729  21.474 -0.1118 -0.1865 -0.3979
36135W        W79047   7.815   3.546  19.425 -0.0072  0.1952  0.1578
36136W        W79048   8.798   1.789  20.108  0.1056  0.0834  0.0712
36137W        W79049   9.413   2.658  24.005 -0.0533 -0.1826  0.2216
36138W        W79050   7.646   1.981  22.111 -0.0705 -0.2265  0.0316
36139W        W79051   9.851   1.497  22.274  0.0185  0.0331  0.2302
36140W        W79052   6.537   2.761  21.200 -0.1134  0.2529  0.0908
36141W        W79053   8.329   0.284  19.462 -0.1248  0.0851 -0.1760
36142W        W79054   9.212   1.095  19.477 -0.1186 -0.3542 -0.1411
36143W        W79055   9.632   2.541  20.120  0.0076 -0.0813  0.1970
36144W        W79056   7.622   0.346  22.798 -0.0829 -0.0655  0.0758
36145W        W79057   8.611   2.311  22.637 -0.1185  0.1266 -0.0259
36146W        W79058   8.003  34.669  22.579 -0.0546 -0.3064  0.1762
36147W        W79059  11.163   3.091  22.580  0.2601  0.2060  0.3273
36148W        W79060   9.489   1.794  19.385 -0.1474 -0.1286 -0.2402
36149W        W79061  10.914   1.445  22.736  0.0325 -0.0275  0.1611
36150W        W79062   7.938   3.066  22.388  0.4096  0.2026  0.0688
36151W        W79063   7.385   1.940  21.475  0.1759 -0.0692 -0.0757
36152W        W79064  10.305   4.147  20.612  0.1328 -0.2933 -0.1110
36153W        W79065   9.532   3.258  20.754  0.0150 -0.1910  0.0390
36154W        W79066   9.423   2.842  20.538  0.1261  0.1728 -0.1695
36155W        W79067   8.443   2.781  19.435 -0.0284 -0.2100  0.2423
36156W        W79068   6.188   1.390  23.143  0.1477 -0.0914 -0.0759
36157W        W79069   9.122   2.352  22.793 -0.1965 -0.0449  0.1163
36158W        W79070   7.690  34.517  20.285 -0.0647  0.0654 -0.1135
36159W        W79071  10.715   3.369  25.764 -0.3223 -0.1357 -0.0294
36160W        W79072   8.144   3.943  22.040 -0.2244 -0.4613 -0.2198
36161W        W79073   9.031   0.304  18.985  0.1173  0.0297  0.1382
36162W        W79074   8.513   2.238  19.469  0.2154 -0.0878 -0.3813
36163W        W79075   9.670   2.707  21.919 -0.2651  0.2701  0.0483
36164W        W79076   9.722   2.077  20.300 -0.3244 -0.2295 -0.0624
36165W        W79077   9.740   1.602  20.323 -0.1353 -0.0447 -0.4925
36166W        W79078   8.699   0.663  21.018 -0.1939 -0.0772 -0.1089
36167W        W79079   6.612   1.054  19.979 -0.0358  0.0653 -0.3142
36168W        W79080   9.000   3.095  20.445  0.0401 -0.0822  0.0845
36169W        W79081  10.792   2.571  22.673 -0.1572 -0.1114  0.0361
36170W        W79082   9.894   2.379  19.047 -0.3268  0.0010  0.0589
36171W        W79083   8.142   2.703  20.588 -0.1001 -0.2487  0.2037
36172W        W79084   8.457   1.013  23.464 -0.2132  0.3348  0.1516
36173W        W79085   9.578   2.961  25.103  0.2932 -0.1410 -0.0710
36174W        W79086   7.788   3.295  19.945 -0.2004  0.2510  0.1576
36175W        W79087   6.385   2.291  21.094 -0.2750  0.0748  0.0079
36176W        W79088   7.431   2.844  19.088 -0.0680  0.1710  0.1342
36177W        W79089   8.442   1.878  22.529  0.0977 -0.0222 -0.1382
36178W        W79090   9.161   2.232  24.240 -0.2138 -0.0308  0.0899
36179W        W79091   9.270  34.522  20.867  0.1150  0.1303 -0.1909
36180W        W79092   6.949   2.018  22.416 -0.2487  0.3108  0.0574
36181W        W79093  10.388   0.952  22.115 -0.0032 -0.0052 -0.0555
36182W        W79094   7.524   1.501  20.708 -0.1105  0.0383 -0.1233
36183W        W79095  12.036   3.596  19.668  0.0697  0.4602 -0.2297
36184W        W79096   9.695   0.977  19.535  0.3624  0.2464  0.1463
36185W        W79097  10.090   2.791  20.511 -0.0652 -0.2962  0.1823
36186W        W79098   8.085   0.668  22.682  0.1917 -0.1406  0.0460
36187W        W79099   7.554   1.526  21.695 -0.0645 -0.0173  0.1104
36188W        W79100   7.362   1.339  22.621 -0.0889 -0.3029  0.0455
36189W        W79101   7.581   0.147  22.335  0.1609 -0.0007 -0.1839
36190W        W79102   8.783   0.650  22.744 -0.0824  0.0299  0.0012
36191W        W79103   7.556   0.681  19.843 -0.1520  0.0970 -0.3113
36192W        W79104   8.365   2.899  22.442  0.0280  0.2634  0.0954
36193W        W79105   7.845   2.616  19.339 -0.3065 -0.0248 -0.0181
36194W        W79106   6.310   2.578  21.720  0.0475  0.0414  0.1095
36195W        W79107  10.952   0.854  23.070  0.1040 -0.0629  0.3514
36196W        W79108   8.942   2.535  19.544  0.2183  0.1464  0.3150
36197W        W79109  10.409   3.450  23.508 -0.0848 -0.0942  0.3602
36198W        W79110  10.358   1.943  20.136  0.1494 -0.2676  0.0628
36199W        W79111   8.525   2.096  23.513  0.2002 -0.0573 -0.1791
36200W        W79112   6.954   1.637  21.511 -0.2803  0.3759 -0.0312
36201W        W79113   9.294   4.226  22.247 -0.2586  0.1890  0.3030
36202W        W79114   8.586   1.258  20.964 -0.3259 -0.2201  0.2777
36203W        W79115   6.586   1.886  21.895  0.2179  0.1995  0.0084
36204W        W79116  12.099   3.008  21.422  0.1174 -0.0685  0.0449
36205W        W79117   8.283   1.771  20.513  0.2541  0.0687 -0.3640
36206W        W79118   9.142   1.714  24.155  0.1404  0.4097 -0.2027
36207W        W79119  10.323   0.541  21.816  0.0266  0.2671  0.0659
36208W        W79120   9.621   1.993  21.660  0.0152  0.1720 -0.2696
36209W        W79121   8.312   0.863  21.283 -0.0062 -0.1541  0.0378
36210W        W79122   7.257  34.432  19.344  0.2005 -0.3022  0.0130
36211W        W79123   9.919   4.034  20.943  0.0372 -0.0310 -0.0634
36212W        W79124   7.576   3.092  19.516 -0.0130 -0.0286 -0.2798
36213W        W79125   7.968   1.667  22.616  0.0517 -0.1640  0.3029
36214W        W79126   8.094   2.371  19.699  0.3294  0.2171 -0.0951
36215W        W79127   8.086   1.351  20.803  0.2738 -0.0767  0.2485
36216W        W79128   7.651   3.595  22.531  0.0325 -0.1826  0.1544
36217W        W79129   9.717   1.865  24.279 -0.4028  0.0288 -0.1372
36218W        W79130   8.048   2.979  19.008  0.3820 -0.1125 -0.0171
36219W        W79131   8.636   3.827  23.549 -0.1549  0.0878 -0.1567
36220W        W79132   8.305   0.951  20.613  0.4763  0.2013 -0.2163
36221W        W79133   9.889   0.077  20.154  0.1931  0.0749 -0.1207
36222W        W79134   7.521   2.750  22.339  0.0943  0.2837 -0.2222
36223W        W79135  10.384   1.053  20.450 -0.2816 -0.1315 -0.0959
36224W        W79136  10.007   0.504  18.972 -0.0481  0.0569  0.2232
36225W        W79137   9.897   1.092  20.396 -0.1113 -0.3210  0.0199
36226W        W79138   8.086   3.245  23.039 -0.1246  0.2268 -0.1146
36227W        W79139   8.606   3.962  20.326  0.0721  0.2570  0.0323
36228W        W79140   8.047   1.547  21.820  0.1107  0.3231 -0.1929
36229W        W79141   9.036  34.068  18.834  0.2952 -0.0473  0.0397
36230W        W79142  11.075   3.370  21.320  0.0942 -0.2524  0.1414
36231W        W79143   7.562   2.832  21.428  0.1156 -0.3252  0.5230
36232W        W79144   8.654   2.668  24.127 -0.2795  0.1383  0.6018
36233W        W79145   9.985   2.527  20.947 -0.1002  0.2546  0.2314
36234W        W79146   8.381   1.492  22.252  0.0599 -0.1876  0.0884
36235W        W79147   7.092   1.259  19.815 -0.0014  0.3404  0.0756
36236W        W79148   7.472   0.715  21.498 -0.0091 -0.0034 -0.2638
36237W        W79149   8.021   5.111  19.792  0.0493  0.2819  0.2689
36238W        W79150   9.325   1.249  20.957  0.1694 -0.1541  0.1779
36239W        W79151   9.185   0.714  20.623 -0.4018  0.1672 -0.1316
36240W        W79152   8.065   0.315  22.167 -0.0200  0.2609  0.2153
36241W        W79153  11.469   1.794  23.432  0.1644  0.0026  0.1042
36242W        W79154   8.837   0.548  20.162  0.3696 -0.3911  0.0407
36243W        W79155   9.410   1.222  22.044 -0.0554  0.3340  0.0324
36244W        W79156   7.431   1.584  18.872 -0.0589 -0.1349  0.0653
36245W        W79157   9.540   1.801  23.809 -0.0211 -0.0691 -0.1809
36246W        W79158   8.308   4.261  22.406 -0.2577  0.1706  0.3047
36247W        W79159   8.808   3.467  23.133 -0.3396  0.1840  0.0558
36248W        W79160   8.666   2.480  21.698  0.0449  0.1621  0.3558
36249W        W79161   9.797   1.642  21.203  0.0438 -0.1179  0.3065
36250W        W79162   8.473   0.326  21.340 -0.3136  0.2319 -0.4034
36251W        W79163   9.010   1.665  21.155 -0.3382 -0.1466  0.0600
36252W        W79164   7.091   3.150  19.819  0.1239 -0.0147 -0.1290
36253W        W79165   9.465   2.335  19.246  0.0408 -0.0084  0.0396
36254W        W79166   9.023  33.649  22.191  0.0542 -0.2803 -0.0693
36255W        W79167   8.616   4.532  20.434  0.0915 -0.1653  0.1200
36256W        W79168   9.403   3.173  19.343  0.1208 -0.0495  0.0056
36257W        W79169  10.042   1.797  23.582 -0.2395  0.0237  0.0257
36258W        W79170   7.678   2.701  20.940  0.2023 -0.2642 -0.0767
36259W        W79171   9.568   0.237  20.804 -0.2070  0.0699 -0.1117
36260W        W79172   7.234   3.135  22.519 -0.0784 -0.0768  0.3786
36261W        W79173   6.527   2.512  19.536  0.2445 -0.0245 -0.2846
36262W        W79174   6.808   0.913  20.903 -0.1031 -0.0475  0.0927
36263W        W79175   7.161  34.364  20.563  0.1375 -0.0202  0.0186
36264W        W79176  10.549   1.096  18.351  0.1967  0.0998 -0.1342
36265W        W79177   7.382   0.739  22.676 -0.1941  0.3201  0.0377
36266W        W79178   7.971   0.469  21.456 -0.0971 -0.1704  0.2068
36267W        W79179   8.097   3.545  20.744  0.2805  0.0589 -0.2020
36268W        W79180   8.949   1.423  22.899 -0.0517  0.1888 -0.1736
36269W        W79181   9.002   1.312  18.963  0.0626 -0.0251  0.1333
36270W        W79182  10.744   2.851  23.096 -0.3913 -0.0063  0.1157
36271W        W79183   8.177   1.850  23.099  0.0894 -0.0945 -0.0891
36272W        W79184   7.383   2.632  18.336 -0.0725  0.1355  0.2100
36273W        W79185   8.901   1.009  22.434 -0.0865 -0.0601 -0.0254
36274W        W79186   7.920   0.111  20.762 -0.1083 -0.0663  0.1200
36275W        W79187   7.147   3.616  19.593 -0.3522 -0.1624  0.2432
36276W        W79188  10.300   3.121  22.923 -0.2757 -0.0413  0.0742
36277W        W79189   7.902   2.918  18.517  0.0382 -0.0644  0.1434
36278W        W79190   7.704   3.376  22.029 -0.1514  0.2082 -0.1948
36279W        W79191   6.836   1.523  23.663 -0.2768  0.1303  0.1775
36280W        W79192  10.304   2.444  22.558 -0.2822  0.0889 -0.1961
36281W        W79193   8.506   1.227  21.705 -0.0885 -0.0097  0.0984
36282W        W79194   8.884   0.044  21.205 -0.2778  0.0366  0.0697
36283W        W79195   7.740   2.342  21.344  0.3565 -0.3327 -0.1649
36284W        W79196   9.753   1.378  20.767  0.2253 -0.1564 -0.1330
36285W        W79197   9.078   2.124  23.244  0.2776 -0.0162 -0.0096
36286W        W79198   6.876   3.751  24.370  0.0897 -0.0061  0.1377
36287W        W79199   8.196  33.298  21.538  0.0499  0.1099  0.0739
36288W        W79200  11.936   2.964  20.398 -0.1314  0.0566  0.0536
36289W        W79201   9.233   2.050  22.419  0.1260 -0.1342 -0.1021
36290W        W79202   8.072   1.900  21.024  0.2857  0.4656  0.2146
36291W        W79203   6.698   2.987  22.779 -0.0036 -0.2294  0.0571
36292W        W79204   7.802   2.289  20.705  0.0793 -0.0396  0.3435
36293W        W79205   8.569   0.290  21.896  0.0464 -0.0379 -0.1067
36294W        W79206   8.737   2.963  22.789 -0.2936 -0.0943  0.1243
36295W        W79207   8.120   2.732  21.577 -0.1486 -0.1804  0.0391
36296W        W79208   8.450   2.196  20.833 -0.0539 -0.1677 -0.0022
36297W        W79209   9.265   0.560  19.371 -0.0502  0.0858 -0.4246
36298W        W79210  10.093   2.990  19.973  0.3303  0.1138  0.2845
36299W        W79211  10.353   1.472  22.497  0.1738 -0.2317 -0.0417
36300W        W79212   9.819   0.907  22.009  0.2068 -0.1556  0.3036
36301W        W79213   8.951   1.995  19.670 -0.2877  0.0176  0.0531
36302W        W79214   9.637   0.080  22.955  0.1057 -0.0545  0.0999
36303W        W79215   8.506   0.551  22.330  0.1416  0.2347 -0.2309
36304W        W79216   9.979   2.329  21.813  0.1869  0.1213  0.1716
36305W        W79217   6.570   0.629  23.006 -0.1854  0.1726 -0.1861
36306W        W79218  10.148   3.185  24.381 -0.1260 -0.0707  0.4623
36307W        W79219   8.032   3.309  23.949 -0.0496  0.0497  0.4482
36308W        W79220   7.957   1.022  19.928  0.0458 -0.1304  0.0649
36309W        W79221   7.300   0.695  20.405 -0.0522 -0.1271 -0.0269
36310W        W79222   9.227   1.835  22.887 -0.0620 -0.0017  0.1729
36311W        W79223  10.385   2.314  21.068  0.0416  0.0480  0.1860
36312W        W79224  10.036   3.269  18.708 -0.0576 -0.3925  0.0304
36313W        W79225   9.755   0.557  20.265  0.2564  0.1442  0.0278
36314W        W79226   9.112   2.953  23.701 -0.1695 -0.0270  0.0028
36315W        W79227   8.255   0.660  21.790 -0.2934 -0.0393 -0.0758
36316W        W79228   8.863   0.842  19.179 -0.0031  0.1231 -0.1065
36317W        W79229   6.898   2.654  21.592 -0.1584  0.2067  0.1690
36318W        W79230   7.815   1.121  23.476 -0.1024 -0.0464 -0.1186
36319W        W79231   9.307   2.276  21.925 -0.0340 -0.2091 -0.0403
36320W        W79232   8.943   2.074  20.793 -0.2744  0.1202  0.0890
36321W        W79233   8.901   1.460  23.417  0.1874 -0.1241  0.0352
36322W        W79234  10.322   2.575  23.027 -0.0476  0.0934  0.0803
36323W        W79235   8.290   2.436  24.570  0.1603 -0.4290  0.0270
36324W        W79236   7.842   1.104  22.623 -0.2721  0.0171  0.2413
36325W        W79237  10.515   4.106  22.268  0.0093  0.1875  0.1203
36326W        W79238   8.609  34.536  19.754 -0.0122 -0.3561  0.1703
36327W        W79239   9.646   0.907  20.770 -0.2192  0.1553  0.3837
36328W        W79240  11.016   2.011  21.823 -0.0565 -0.2634  0.2627
36329W        W79241  10.095   1.043  19.245  0.2901 -0.1553  0.3217
36330W        W79242   7.098   1.383  21.001  0.0064  0.0141 -0.2308
36331W        W79243   9.819   2.881  25.569 -0.1983 -0.0641  0.2919
36332W        W79244   8.477   1.345  20.353 -0.0936  0.0294 -0.3431
36333W        W79245   9.852   0.933  23.448  0.0099  0.3207  0.1292
36334W        W79246   9.022   4.021  19.588 -0.0194 -0.1258  0.0376
36335W        W79247   9.229   2.187  20.352  0.1993  0.2321  0.0117
36336W        W79248   8.784   2.158  22.221 -0.1848  0.0529 -0.1015
36337W        W79249   7.519   0.986  21.931  0.0721  0.3211  0.0509
36338W        W79250   8.643   3.784  22.636  0.0476  0.0137 -0.0817
36339W        W79251   7.238   1.733  19.645  0.0848 -0.1325 -0.0991
36340W        W79252   7.589   2.530  18.765 -0.0917  0.2636 -0.0640
36341W        W79253   9.637   2.560  22.724  0.0439 -0.1033  0.2638
36342W        W79254  10.833   1.930  25.875  0.3726  0.3375 -0.3200
36343W        W79255   7.919   0.708  20.333  0.0703  0.1328  0.0381
36344W        W79256  10.246   2.068  22.205 -0.2107  0.1693 -0.1005
36345W        W79257   6.990   2.806  19.434  0.0793  0.3193 -0.0865
36346W        W79258   8.193   0.575  20.908 -0.1282 -0.0528 -0.1755
36347W        W79259   9.714   4.187  22.538  0.0130  0.0351 -0.1227
36348W        W79260   9.376   4.241  21.511 -0.0267 -0.0877 -0.0113
36349W        W79261   7.521   3.212  21.016  0.0404 -0.1969  0.2994
36350W        W79262  10.084  34.132  21.316  0.3442  0.0351 -0.1121
36351W        W79263  10.483  34.585  21.968  0.0297 -0.1442 -0.0926
36352W        W79264   8.989   1.907  23.702 -0.1177 -0.3857  0.0271
36353W        W79265   9.398   1.928  21.187  0.0319  0.1613 -0.1839
36354W        W79266   9.955   3.426  23.203 -0.1374  0.1468 -0.1908
36355W        W79267   7.499   1.179  20.128  0.0498  0.0753 -0.1946
36356W        W79268  10.111   4.483  22.631  0.2656 -0.3948  0.0177
36357W        W79269  10.510   0.356  20.975 -0.1591 -0.0132 -0.1580
36358W        W79270   8.637   2.767  20.331  0.2161 -0.2875  0.0109
36359W        W79271   8.133   2.467  23.302  0.1007 -0.1844  0.0031
36360W        W79272   8.670   2.415  23.167  0.1668 -0.0375 -0.0087
36361W        W79273   9.208   3.105  22.365  0.3342 -0.0362 -0.3090
36362W        W79274   7.793  33.583  21.168 -0.0098 -0.1990 -0.0409
36363W        W79275  10.290   3.567  19.656 -0.2562 -0.3764  0.3212
36364W        W79276   7.277   3.857  23.026  0.0330  0.2180  0.1631
36365W        W79277   7.771   2.733  22.743 -0.4059  0.3312 -0.3615
36366W        W79278   8.482   2.586  19.895  0.2302  0.0964 -0.0295
36367W        W79279   9.329   2.285  19.848  0.3295 -0.3130  0.4814
36368W        W79280  10.510   1.993  20.677  0.2693  0.0299 -0.2392
36369W        W79281   9.414   3.797  21.817 -0.1044 -0.0874 -0.2191
36370W        W79282   8.422   2.069  19.946  0.5196  0.2644 -0.0617
36371W        W79283   8.542   1.748  20.987  0.1826 -0.2287 -0.0501
36372W        W79284   7.352   4.480  19.914  0.0225  0.2722  0.0493
36373W        W79285  10.095   2.415  19.941 -0.4396  0.1534 -0.0253
36374W        W79286   8.251   3.508  20.213  0.0471 -0.2025  0.0994
36375W        W79287   9.712   2.772  23.604  0.0999 -0.3113  0.1716
36376W        W79288   9.072  34.463  19.667 -0.0633 -0.1198 -0.0409
36377W        W79289   9.826   1.840  19.862  0.5583  0.1232  0.3054
36378W        W79290  10.258   1.415  21.419 -0.2805 -0.0183 -0.0315
36379W        W79291   9.548   3.254  22.044  0.3736  0.1378  0.0331
36380W        W79292   9.120   3.330  21.780  0.1121 -0.0663  0.0046
36381W        W79293   7.668   1.584  19.845 -0.1457  0.2375 -0.1146
36382W        W79294   8.158   2.355  22.798  0.0116  0.1528  0.0170
36383W        W79295  12.063   0.293  22.745  0.2681  0.2098  0.2422
36384W        W79296   9.740   4.426  21.786  0.0449 -0.1147  0.0703
36385W        W79297   9.886   2.997  21.031  0.0904 -0.1287 -0.2649
36386W        W79298   7.039   0.660  21.277 -0.0211 -0.3222  0.2705
36387W        W79299   7.580   2.075  19.987 -0.0707 -0.1259  0.1540
36388W        W79300   9.174   0.816  21.150  0.1505 -0.1321 -0.1496
36389W        W79301  11.096   2.828  20.127 -0.1151 -0.1942  0.0098
36390W        W79302   8.277   2.206  21.477 -0.2813  0.0810 -0.3094
36391W        W79303   8.614   3.212  21.048 -0.2104  0.1229 -0.1088
36392W        W79304   8.243   3.149  21.997 -0.1830  0.1100 -0.1504
36393W        W79305   8.875   3.516  21.347  0.1164  0.0670 -0.0087
36394W        W79306   6.655   2.539  18.986  0.1531 -0.2970  0.1092
36395W        W79307  11.065   2.342  20.974 -0.2327  0.3467  0.0771
36396W        W79308   7.906   1.093  21.554 -0.1061  0.0682  0.0851
36397W        W79309  10.996   0.524  22.664 -0.0910  0.1174  0.1403
36398W        W79310   7.257   1.161  21.519  0.1726  0.2561  0.0621
36399W        W79311  10.481   0.074  20.208 -0.0613 -0.1261  0.0047
36400W        W79312   9.258   2.695  23.287  0.2395 -0.2365  0.4110
36401W        W79313   7.451   1.813  22.555 -0.0055 -0.0538 -0.0579
36402W        W79314   8.569  34.186  18.774 -0.0346  0.2446  0.3055
36403W        W79315  10.593   1.693  21.692 -0.1690  0.1176  0.0540
36404W        W79316   8.718   3.152  20.017  0.0164  0.2655  0.1017
36405W        W79317  10.419   2.910  22.517  0.4786 -0.0765 -0.2024
36406W        W79318   6.324   0.316  21.633  0.1473  0.1468  0.1828
36407W        W79319   9.412   1.251  20.399 -0.2534 -0.3247  0.7388
36408W        W79320   7.342   2.155  20.381 -0.2833  0.0302 -0.2842
36409W        W79321   6.991   0.805  21.741  0.0267 -0.1986 -0.0642
36410W        W79322  10.420   2.090  23.400 -0.0119  0.0919 -0.0980
36411W        W79323   8.205  34.586  21.212  0.0217  0.0818 -0.1515
36412W        W79324   9.743   2.906  19.114 -0.4333  0.0408  0.2497
36413W        W79325   9.396   0.917  19.987 -0.1066 -0.2069  0.0417
36414W        W79326   8.992   4.222  20.076  0.0890  0.2870 -0.3200
36415W        W79327   8.947   1.560  20.569  0.0581  0.1284 -0.0475
36416W        W79328  10.496   3.811  21.442  0.1501  0.0368  0.0719
36417W        W79329   7.680   1.488  22.230  0.0871  0.2468  0.0747
36418W        W79330  10.427   4.142  22.798  0.0875  0.1510  0.0362
36419W        W79331  10.274   2.633  22.075 -0.1132  0.0118 -0.1461
36420W        W79332   7.921   1.381  20.336 -0.0245  0.0852 -0.0466
36421W        W79333   8.126   1.061  22.086  0.2840 -0.2450 -0.0248
36422W        W79334   7.277   2.994  20.639  0.2198  0.0693 -0.1894
36423W        W79335  10.693   1.738  22.204  0.2020 -0.1530  0.1024
36424W        W79336   9.573   1.036  22.531 -0.0953  0.0351 -0.0990
36425W        W79337   8.995   4.554  19.248 -0.0363  0.1961  0.1473
36426W        W79338  10.480   1.279  22.958  0.2039 -0.0692 -0.0860
36427W        W79339   9.018   1.969  21.583 -0.2410  0.0892 -0.1987
36428W        W79340   8.679   3.109  23.868  0.4186 -0.0186  0.1334
36429W        W79341   7.337   2.318  20.881  0.1451  0.0022  0.0743
36430W        W79342   9.088   2.851  24.977 -0.1136  0.0427  0.2292
36431W        W79343   7.255   1.631  20.165 -0.0122 -0.1933  0.0903
36432W        W79344   8.162   2.485  21.101 -0.2611 -0.0123 -0.4297
36433W        W79345  10.773   3.435  21.693  0.0355 -0.0377 -0.0125
36434W        W79346   9.017   2.610  20.059 -0.0511 -0.1671 -0.0912
36435W        W79347  10.595   3.004  21.546 -0.4862 -0.2931 -0.1901
36436W        W79348   6.505  34.681  21.900 -0.0160  0.0233  0.4169
36437W        W79349   8.397   0.511  20.409 -0.2030 -0.2196  0.1024
36438W        W79350   8.059  32.636  21.229 -0.5485  0.0308  0.2295
36439W        W79351   8.499   3.536  24.007 -0.1577  0.2302 -0.0039
36440W        W79352   6.503   2.130  19.214  0.0135 -0.0159  0.2635
36441W        W79353   7.453   2.573  19.592 -0.0595 -0.3361  0.1352
36442W        W79354   7.830   0.861  21.100 -0.0516  0.1277 -0.1203
36443W        W79355   9.665   0.575  23.154  0.4645  0.2489  0.1075
36444W        W79356   8.451   3.383  23.449 -0.0524  0.2992 -0.1318
36445W        W79357   8.065   2.314  20.232  0.1077 -0.0535 -0.3852
36446W        W79358   7.276   2.377  22.555  0.2105 -0.0816 -0.1594
36447W        W79359  10.538   2.990  19.615  0.2139 -0.3247 -0.1155
36448W        W79360   7.305  34.494  22.058 -0.0891 -0.1260  0.1381
36449W        W79361   6.239   2.079  21.538 -0.0483  0.0423 -0.1306
36450W        W79362   9.983   3.704  20.477  0.1189 -0.1445 -0.1981
36451W        W79363  10.987   2.329  20.449 -0.3008 -0.0739  0.0628
36452W        W79364   8.818   1.018  20.581  0.2537 -0.0142  0.1039
36453W        W79365  12.242   3.700  24.146  0.1667  0.1361  0.0996
36454W        W79366   6.508   3.006  19.159 -0.1279 -0.0579  0.0435
36455W        W79367   7.973   1.647  23.547  0.1935 -0.1427 -0.3436
36456W        W79368   8.376   1.056  22.517 -0.2464 -0.2939 -0.1135
36457W        W79369   6.729   1.951  18.802  0.1650  0.2043 -0.2602
36458W        W79370   8.899   1.674  22.416 -0.0369  0.1993  0.0030
36459W        W79371   8.166   3.011  21.046  0.0258 -0.0955 -0.1602
36460W        W79372  11.601   3.818  19.934 -0.1366  0.1083  0.0945
36461W        W79373   9.395   3.451  21.204  0.3818 -0.1044 -0.0449
36462W        W79374   9.083   2.890  24.332 -0.1992  0.1783  0.1444
36463W        W79375   6.825  34.275  22.001 -0.0657 -0.1074  0.3025
36464W        W79376  10.636   1.365  20.026 -0.1230  0.1012 -0.0305
36465W        W79377   9.438   1.389  22.947  0.2866 -0.0870  0.0975
36466W        W79378  10.240   2.692  19.357 -0.2827 -0.2970 -0.2956
36467W        W79379   9.678   1.150  21.226  0.2380 -0.3577  0.1133
36468W        W79380   7.772   2.382  21.820 -0.0584 -0.2819 -0.1961
36469W        W79381   8.794   0.114  22.556  0.0436 -0.2689 -0.1060
36470W        W79382   7.779   3.953  24.507  0.2275 -0.0987  0.1253
36471W        W79383   9.261   1.740  21.971  0.2721  0.1686  0.3231
36472W        W79384   7.620   0.539  20.724  0.1342  0.1513 -0.0578
36473W        W79385  10.642   1.372  18.806 -0.3416 -0.0377 -0.0679
36474W        W79386   9.554   1.383  19.796 -0.4005 -0.0197  0.1190
36475W        W79387   8.232   2.596  22.046  0.1856 -0.1238  0.1847
36476W        W79388   7.598   2.111  19.470 -0.2080 -0.2616  0.1616
36477W        W79389   9.396   1.554  22.483 -0.0703  0.2147  0.1090
36478W        W79390   9.321   1.798  20.031 -0.1321  0.0381 -0.2131
36479W        W79391   8.801   2.091  24.584  0.0806 -0.0628 -0.1656
36480W        W79392   8.260   1.484  19.961 -0.3028  0.3286  0.1580
36481W        W79393  10.810   1.870  20.019  0.1685 -0.0992  0.1796
36482W        W79394   9.748   2.923  22.389  0.2680 -0.0460 -0.3072
36483W        W79395  10.957   2.835  24.368  0.1971 -0.0326 -0.1637
36484W        W79396   9.934   2.353  23.463 -0.0225 -0.2991 -0.1291
36485W        W79397   8.982   2.607  20.645 -0.1089 -0.1813 -0.0041
36486W        W79398   8.715  34.532  22.159 -0.0753 -0.0281 -0.1936
36487W        W79399   8.231   1.399  21.321 -0.0399  0.0987 -0.0506
36488W        W79400   7.684   2.759  20.335 -0.3510  0.0097 -0.1148
36489W        W79401   9.377   2.376  21.422 -0.1636  0.1186 -0.1225
36490W        W79402   7.549   0.355  21.183  0.1217 -0.0228 -0.1311
36491W        W79403   7.429   0.052  20.701 -0.0005 -0.1505  0.1751
36492W        W79404  10.051   3.275  22.229  0.0461 -0.2648 -0.1819
36493W        W79405   8.903   1.383  22.013  0.2456  0.1772 -0.0916
36494W        W79406   7.301   2.727  26.533  0.1327 -0.0158  0.2585
36495W        W79407   7.005   2.050  24.612 -0.2104 -0.0748 -0.0739
36496W        W79408  10.586   0.164  23.453  0.0838 -0.3006  0.1955
36497W        W79409  10.482   2.006  23.898 -0.0562  0.0080  0.2203
36498W        W79410   8.105   0.908  23.870  0.0990  0.3472 -0.1046
36499W        W79411   8.927   3.355  25.237 -0.3234  0.1193 -0.0885
36500W        W79412   8.699   0.587  26.904 -0.1207  0.0686 -0.1787
36501W        W79413  10.068   2.457  25.635 -0.3410  0.2112 -0.2271
36502W        W79414   9.610   4.076  25.116 -0.0022 -0.0943  0.2398
36503W        W79415   8.641   0.462  23.685  0.0023  0.0453 -0.3018
36504W        W79416   8.999   1.827  26.189 -0.0050 -0.1690  0.1181
36505W        W79417   8.761   4.306  26.177 -0.1707 -0.0117 -0.0010
36506W        W79418   6.996   1.054  23.677 -0.1483 -0.4080 -0.1949
36507W        W79419   7.786   0.401  26.170  0.1019 -0.1278  0.0293
36508W        W79420   9.155   1.319  26.273 -0.1876  0.2143 -0.3445
36509W        W79421   6.913   2.295  23.778 -0.2099 -0.0367  0.0600
36510W        W79422   7.855   1.577  25.550  0.0298 -0.0575  0.2229
36511W        W79423   7.574   0.997  24.792 -0.4809  0.0228 -0.1187
36512W        W79424   8.077   3.495  24.492 -0.1578 -0.0199 -0.0430
36513W        W79425   6.813   0.586  26.246  0.1932 -0.0732 -0.0025
36514W        W79426   9.091  34.502  24.138  0.0492  0.2711 -0.0417
36515W        W79427   8.447   3.184  24.363  0.3415 -0.1079  0.1174
36516W        W79428   7.125   0.233  23.677 -0.2167 -0.0276 -0.2610
36517W        W79429   6.227   1.833  26.018  0.1701  0.1216 -0.0457
36518W        W79430   8.488   2.663  25.612 -0.0224  0.1620  0.1145
36519W        W79431  11.172   0.709  26.191  0.1530  0.1747  0.4164
36520W        W79432   8.859   0.473  24.952  0.3083 -0.0267  0.1208
36521W        W79433  10.163   3.854  25.765 -0.0410 -0.1421  0.1662
36522W        W79434  10.192   4.082  26.660  0.1747  0.1928 -0.1438
36523W        W79435  10.186   1.120  26.194  0.0453 -0.0777  0.1270
36524W        W79436   7.409   3.329  23.608  0.0409  0.1479  0.1900
36525W        W79437   8.227   3.836  24.843 -0.3497 -0.0204  0.3389
36526W        W79438   8.887   4.082  25.272  0.3701 -0.0019  0.0364
36527W        W79439  10.348   2.975  23.402 -0.1161  0.1452 -0.0095
36528W        W79440  10.557   2.466  25.930  0.1801  0.2209  0.0896
36529W        W79441   8.589   3.697  27.133  0.0242  0.0798 -0.1841
36530W        W79442   7.359   2.719  23.695 -0.1360 -0.4618  0.0275
36531W        W79443   9.852   4.435  26.909  0.1238 -0.1802 -0.2837
36532W        W79444   7.642   2.971  27.172 -0.0473  0.0161 -0.0948
36533W        W79445   9.694   1.086  26.291  0.0700  0.0948 -0.2731
36534W        W79446   9.192   2.290  25.657 -0.0166  0.1865  0.0614
36535W        W79447   8.724   2.195  24.056  0.1628  0.0636  0.1635
36536W        W79448   9.775   2.934  23.116  0.0783  0.1935  0.1975
36537W        W79449   8.556   2.155  27.780 -0.0700 -0.1137  0.2415
36538W        W79450   7.320   2.524  25.049  0.0069 -0.1854  0.0120
36539W        W79451  10.249   1.406  27.822 -0.0109 -0.3067 -0.2104
36540W        W79452   9.256   4.321  23.919 -0.0125 -0.1191 -0.0693
36541W        W79453   8.181   1.027  23.009  0.1612  0.2642 -0.3116
36542W        W79454   9.150   0.938  24.117  0.1021 -0.1450  0.3755
36543W        W79455   9.275   1.353  23.799  0.0438 -0.0576 -0.1104
36544W        W79456   8.877  32.886  25.041 -0.0361 -0.0909  0.0782
36545W        W79457   9.388   4.315  25.453 -0.2700 -0.0957 -0.2079
36546W        W79458   8.683   1.171  25.401 -0.1647  0.2746 -0.0348
36547W        W79459  10.975   1.004  27.507 -0.0735  0.2464 -0.1224
36548W        W79460   8.520   0.839  24.165 -0.0132 -0.2191  0.1851
36549W        W79461   9.962   1.690  27.502  0.1337  0.1045 -0.3023
36550W        W79462   8.097   1.420  26.516 -0.1597 -0.3086  0.2857
36551W        W79463   8.045   1.665  25.000  0.3563 -0.3677  0.1024
36552W        W79464  10.690   2.292  23.075 -0.0368 -0.1353 -0.0531
36553W        W79465  11.033   2.739  25.245  0.0734 -0.1059  0.1429
36554W        W79466   9.721   3.486  25.248 -0.0070  0.1078  0.0397
36555W        W79467   7.841   1.330  23.982  0.2217  0.0126  0.2864
36556W        W79468   8.772   3.108  25.622 -0.1596  0.1061  0.1855
36557W        W79469   8.107   0.837  26.409 -0.0230 -0.2416  0.1695
36558W        W79470   8.506  34.305  24.168  0.0019 -0.3600 -0.0021
36559W        W79471  10.356   1.878  27.709 -0.1032  0.0329  0.3776
36560W        W79472   9.045   3.675  26.940 -0.4241  0.0167 -0.0347
36561W        W79473  11.830   0.846  24.535 -0.0998  0.1819  0.1760
36562W        W79474   8.501   3.542  25.460  0.0931  0.0657 -0.1412
36563W        W79475  10.411   2.574  26.587 -0.1776  0.1432 -0.0922
36564W        W79476   8.347   2.779  23.001  0.2269  0.3220 -0.1496
36565W        W79477   9.856   1.062  24.851 -0.1377 -0.1102  0.1285
36566W        W79478   9.730  34.503  26.001  0.0498  0.1386  0.1870
36567W        W79479   7.417   1.907  23.819  0.2357 -0.2486  0.0370
36568W        W79480   8.251   2.100  24.918  0.2574  0.2284  0.1667
36569W        W79481  10.085   2.266  26.110  0.3773  0.3241  0.0062
36570W        W79482   9.939   1.933  24.780  0.1907  0.0793 -0.1270
36571W        W79483   7.611   2.624  26.180 -0.2526 -0.0497 -0.1037
36572W        W79484   9.027   0.797  26.197  0.0311  0.1581 -0.0407
36573W        W79485   8.667   2.754  26.845  0.2669  0.1261  0.4014
36574W        W79486   8.606   4.381  24.358  0.0678 -0.2217 -0.1379
36575W        W79487   7.015   1.958  25.135 -0.5178  0.1718 -0.3197
36576W        W79488   9.651   3.623  23.659 -0.0530 -0.2633 -0.1096
36577W        W79489   7.089   0.906  26.444 -0.0567 -0.1966 -0.2403
36578W        W79490   8.822   2.221  26.457 -0.2935 -0.0648  0.0336
36579W        W79491  11.132   1.137  23.623 -0.3603  0.1340 -0.2357
36580W        W79492   7.719  34.000  28.066 -0.3192  0.0555  0.0757
36581W        W79493  10.047   0.135  24.776 -0.0079  0.1807  0.0838
36582W        W79494   8.720   1.582  24.571 -0.0685 -0.1990 -0.1738
36583W        W79495  11.622   3.286  24.631 -0.0020  0.1519  0.3294
36584W        W79496   9.553   1.457  24.897  0.1362  0.2079 -0.1732
36585W        W79497  10.842   2.866  22.176  0.3776 -0.1891 -0.3464
36586W        W79498   7.885   2.620  25.475  0.0779  0.0311  0.1103
36587W        W79499   8.075   0.659  25.138  0.1264  0.2796  0.2053
36588W        W79500   7.080   0.152  26.087  0.0281 -0.2378  0.0410
36589W        W79501   8.152   0.162  26.447 -0.2383 -0.0692 -0.1265
36590W        W79502  11.178   1.384  27.299  0.2063  0.2128  0.0445
36591W        W79503   7.721   0.815  23.034 -0.1312  0.2982 -0.2113
36592W        W79504  10.667   2.035  25.394 -0.0728 -0.0975  0.1287
36593W        W79505   7.480   1.830  25.300  0.2196  0.1089  0.2238
36594W        W79506   6.713   2.443  24.943  0.0319  0.0234 -0.1285
36595W        W79507  10.957   0.431  27.010  0.1613  0.1916  0.0474
36596W        W79508   8.289   3.334  25.008  0.2017  0.0507 -0.0034
36597W        W79509  10.071   3.426  26.807 -0.0629 -0.0980  0.1493
36598W        W79510  10.010   3.280  24.886  0.2628 -0.1634  0.0413
36599W        W79511   8.546   0.936  26.086  0.4273 -0.0760  0.1573
36600W        W79512   6.836   2.408  22.747  0.4189 -0.1867 -0.2287
36601W        W79513   5.769   2.393  25.527 -0.2088  0.1923 -0.0288
36602W        W79514   8.239   2.589  25.114  0.1707 -0.1779 -0.4128
36603W        W79515   9.043   0.884  25.189 -0.1854 -0.0347  0.0720
36604W        W79516  10.455   5.077  26.510  0.3167  0.4306 -0.1288
36605W        W79517   9.384   3.247  23.945  0.1218  0.1502 -0.1950
36606W        W79518   8.190   0.607  26.876  0.0089  0.1330 -0.2160
36607W        W79519   8.899   0.848  25.674  0.1242 -0.1327 -0.1235
36608W        W79520   9.956   1.404  26.570 -0.2632  0.1985  0.0192
36609W        W79521   9.376   0.860  26.632 -0.1599 -0.0540 -0.1980
36610W        W79522   7.619  33.973  24.638 -0.0308  0.1113 -0.1633
36611W        W79523   9.668   2.079  25.815 -0.0821  0.0106  0.2574
36612W        W79524   7.053   2.825  24.081  0.4455  0.1199 -0.0434
36613W        W79525   7.386   1.549  24.846  0.2181  0.1154 -0.2566
36614W        W79526   7.824   2.179  25.191  0.2771  0.2153  0.0605
36615W        W79527   8.897   0.439  24.260 -0.1323 -0.0708 -0.3080
36616W        W79528   7.980   1.627  27.507 -0.4267  0.4049  0.0465
36617W        W79529   9.751  34.231  25.569 -0.2149 -0.0934 -0.3233
36618W        W79530   6.362   2.452  24.450 -0.2134 -0.1040 -0.2220
36619W        W79531   7.512   1.845  26.346 -0.0127  0.1832  0.3128
36620W        W79532   7.531  32.893  26.021  0.2093  0.1225 -0.1720
36621W        W79533  10.208   0.045  23.839  0.3061 -0.0153  0.1075
36622W        W79534   8.982   1.948  27.415  0.1680  0.2576  0.0923
36623W        W79535  11.162   2.210  25.112 -0.1137  0.3502  0.1808
36624W        W79536   8.667   1.922  23.039  0.1254 -0.0052 -0.0641
36625W        W79537   9.642  34.449  24.659  0.0133 -0.2782 -0.1166
36626W        W79538   7.445   2.926  27.630 -0.0692  0.5590 -0.1377
36627W        W79539   8.965   1.870  25.626 -0.2062 -0.1950  0.1202
36628W        W79540   9.120   3.137  26.019  0.3325 -0.1168  0.2430
36629W        W79541   9.680   1.362  24.158 -0.0366 -0.2987 -0.0578
36630W        W79542   9.803   2.943  24.164 -0.1961  0.3252  0.1350
36631W        W79543   6.280   2.809  24.857  0.1996  0.1361 -0.0704
36632W        W79544  10.372   3.105  27.173 -0.0747 -0.1882  0.3390
36633W        W79545  10.479   2.421  24.748 -0.4696  0.0540 -0.0252
36634W        W79546   9.127   1.447  25.385  0.0025  0.1308  0.1074
36635W        W79547   8.637   0.920  22.049  0.1518 -0.2980 -0.0073
36636W        W79548   8.092  34.608  25.365 -0.0882  0.3331 -0.0197
36637W        W79549   7.668   4.871  22.331 -0.1247 -0.0035 -0.1638
36638W        W79550  10.772   1.457  24.537 -0.0111  0.0272 -0.0875
36639W        W79551   9.387   1.636  25.880  0.1604 -0.2082 -0.0660
36640W        W79552   9.175   0.560  27.212 -0.1171  0.2805  0.0911
36641W        W79553  10.302   1.767  26.588 -0.1016 -0.1442 -0.1184
36642W        W79554  10.530   1.632  23.512 -0.0633  0.1702  0.1331
36643W        W79555   8.474   1.629  25.465 -0.1353 -0.1517  0.2779
36644W        W79556   8.097   0.968  24.667 -0.0930 -0.0777 -0.3012
36645W        W79557  10.374   0.971  26.732  0.2058 -0.0864  0.1852
36646W        W79558   8.168   2.086  27.164  0.0721  0.1497 -0.3542
36647W        W79559   7.952   2.981  25.830  0.4692 -0.0512  0.2773
36648W        W79560  10.627   2.170  26.920  0.0883  0.1783  0.1181
36649W        W79561   9.529   2.504  25.332  0.1352  0.0409 -0.2359
36650W        W79562   9.614   0.458  26.897 -0.1126 -0.0335 -0.2092
36651W        W79563   9.421  34.194  23.869  0.0521  0.0535  0.2038
36652W        W79564   8.745   4.698  24.656  0.0599  0.3855  0.2574
36653W        W79565   8.389   1.946  24.406  0.2014 -0.1544 -0.0519
36654W        W79566   9.259   0.077  25.566  0.0759 -0.2286  0.0782
36655W        W79567   8.812   3.219  26.411 -0.3125  0.2781  0.2469
36656W        W79568   7.845   3.436  23.424 -0.2128  0.0917 -0.1565
36657W        W79569   9.471   3.189  27.347 -0.0414  0.1144 -0.1585
36658W        W79570   7.811   3.575  24.954 -0.0075 -0.2258  0.1516
36659W        W79571   9.294   0.081  24.514  0.0396  0.1092 -0.0902
36660W        W79572   6.540   3.822  24.814  0.1373 -0.0154  0.0622
36661W        W79573   8.391   1.452  22.858 -0.2433  0.0598  0.1108
36662W        W79574   7.846   1.438  24.635  0.3418 -0.0896 -0.1261
36663W        W79575   9.603   1.380  25.439  0.1128  0.3372  0.4747
36664W        W79576  10.893   2.180  23.595  0.1623 -0.1287 -0.0050
36665W        W79577   8.084   2.686  26.197  0.0932  0.0543 -0.1578
36666W        W79578   9.543   0.874  25.362 -0.1289  0.1920  0.0367
36667W        W79579   7.392   1.588  25.730 -0.1565  0.1965 -0.0008
36668W        W79580   9.815   2.347  27.481 -0.1743  0.0204 -0.1190
36669W        W79581   9.377   1.059  23.313  0.1566 -0.4842  0.1278
36670W        W79582  10.919   1.630  27.632  0.2459  0.0984 -0.3656
36671W        W79583   8.833   1.546  26.668 -0.2176 -0.1303  0.0767
36672W        W79584   6.068   1.547  23.778 -0.1443  0.1127  0.0010
36673W        W79585  11.014  33.823  26.706 -0.1993 -0.3216  0.1060
36674W        W79586   7.154   1.200  24.611  0.2530 -0.1901 -0.1438
36675W        W79587   6.972   1.480  25.181  0.2450 -0.0205  0.1300
36676W        W79588   7.290   3.160  26.228 -0.1696  0.0266 -0.4115
36677W        W79589   8.218   1.460  24.321 -0.2873 -0.2010  0.1696
36678W        W79590   7.884   2.008  24.627  0.0883 -0.1001 -0.2312
36679W        W79591   8.204   0.067  28.336  0.0786 -0.3227  0.0091
36680W        W79592  10.010   1.711  26.177 -0.1737 -0.0654  0.2237
36681W        W79593   9.139   2.233  25.129 -0.0778  0.2186 -0.1459
36682W        W79594   7.529   0.698  25.262 -0.0303 -0.1609  0.2608
36683W        W79595   8.166   1.988  25.522  0.2025 -0.1479 -0.0375
36684W        W79596   9.258   2.461  24.684 -0.3434 -0.0523 -0.3641
36685W        W79597   9.684   1.948  27.844 -0.0102 -0.1831  0.0702
36686W        W79598   7.364   2.396  25.614  0.1849  0.0839 -0.1510
36687W        W79599   7.921   0.462  25.643 -0.4070  0.0734 -0.1938
36688W        W79600  10.418   4.124  24.030 -0.0682 -0.3198 -0.1808
36689W        W79601  10.098   2.747  26.073 -0.1271  0.1145  0.3260
36690W        W79602   7.929   2.140  23.636 -0.1047  0.3340 -0.0612
36691W        W79603   6.011   1.689  24.974  0.4291  0.2136  0.0282
36692W        W79604   9.427   3.283  25.646 -0.0972 -0.2221  0.0517
36693W        W79605   9.789   1.050  26.941 -0.0631 -0.1627  0.1181
36694W        W79606   8.856   3.731  26.236 -0.2662 -0.0641  0.1828
36695W        W79607   7.766   3.746  23.054 -0.0909 -0.0086 -0.0934
36696W        W79608   7.124   2.711  26.019 -0.2817  0.3327  0.1153
36697W        W79609   9.612  34.626  25.143  0.0909  0.2181 -0.1224
36698W        W79610  11.112   4.854  22.498 -0.1765 -0.0213 -0.1852
36699W        W79611   8.904  34.026  25.655 -0.5800 -0.2597 -0.3023
36700W        W79612  10.560   0.320  27.624  0.2346  0.2402 -0.0830
36701W        W79613   8.844   1.776  25.095 -0.0131 -0.4325  0.0078
36702W        W79614   9.297   0.497  25.821  0.0357 -0.1082  0.0369
36703W        W79615   8.047  34.249  26.261 -0.1116  0.2794 -0.0732
36704W        W79616  10.379   2.971  25.723 -0.1000  0.1779 -0.1279
36705W        W79617   7.015   0.083  26.704 -0.3496  0.0001 -0.1097
36706W        W79618  10.311   4.000  27.392  0.1045 -0.1162 -0.1171
36707W        W79619   8.450   1.018  26.817 -0.0278 -0.0695  0.0261
36708W        W79620   9.262   0.386  22.713 -0.2798 -0.2558 -0.3208
36709W        W79621   8.442   1.293  23.858  0.0796 -0.3409  0.1358
36710W        W79622   9.122   2.627  26.012  0.0181  0.2044  0.0027
36711W        W79623  10.209   2.297  25.199 -0.0353  0.1264 -0.0315
36712W        W79624   9.738   2.411  24.884  0.3046 -0.2964 -0.0989
36713W        W79625  11.640   1.819  26.064 -0.0220 -0.0927 -0.0442
36714W        W79626   7.340   3.728  24.750 -0.0311 -0.3663  0.0950
36715W        W79627  10.938   1.598  25.480 -0.1680  0.1722  0.1091
36716W        W79628   8.941   3.345  24.300 -0.3209  0.1828 -0.0535
36717W        W79629   8.979   1.285  24.949  0.1421 -0.2454  0.0987
36718W        W79630   7.715   0.528  26.721  0.0917 -0.1018  0.0136
36719W        W79631   9.596   2.979  24.627  0.1136  0.1592 -0.0334
36720W        W79632  10.124   1.423  25.028  0.0787 -0.2081 -0.0243
36721W        W79633   9.291   1.115  27.143  0.3068  0.1843  0.0511
36722W        W79634  10.373   0.299  28.499  0.3111 -0.4244  0.3030
36723W        W79635   7.698   1.692  27.094  0.2157 -0.0166 -0.0523
36724W        W79636   6.716   1.103  24.888 -0.1095 -0.1459  0.1653
36725W        W79637  12.209   2.612  27.915  0.0301 -0.0811 -0.2381
36726W        W79638  10.623   0.965  23.832 -0.1728  0.0665 -0.0257
36727W        W79639   9.708   0.445  26.190  0.2678  0.2573  0.2912
36728W        W79640  10.071   0.871  25.266 -0.2143 -0.1114 -0.0483
36729W        W79641   8.646   1.078  24.585 -0.2322  0.3348  0.2171
36730W        W79642   8.210   1.215  25.798  0.0152 -0.0320 -0.4555
36731W        W79643  10.592   0.767  27.162  0.0220 -0.1629 -0.1146
36732W        W79644   7.834   0.180  24.183  0.3321  0.1483  0.4798
36733W        W79645   9.284   0.053  26.130  0.0893 -0.0221  0.1948
36734W        W79646   9.530   3.914  24.260  0.0271 -0.0179 -0.3338
36735W        W79647  11.507   2.437  24.890 -0.1448  0.1277 -0.0783
36736W        W79648   9.767   1.380  23.632  0.0567  0.1911  0.0597
36737W        W79649   8.029   0.300  24.692  0.1590  0.1130 -0.0178
36738W        W79650   8.157   0.939  27.319 -0.1220  0.1195 -0.0912
36739W        W79651   7.877  34.698  23.055  0.2489 -0.2608 -0.2374
36740W        W79652   8.821   1.312  24.132  0.2911  0.2756 -0.5456
36741W        W79653   9.688   1.823  26.811 -0.2397 -0.1023  0.1644
36742W        W79654  10.551   1.385  26.422  0.1567 -0.2053 -0.1240
36743W        W79655   8.516   0.554  24.576  0.1113  0.0941 -0.1419
36744W        W79656   9.987   0.032  26.946  0.2834  0.3390  0.3203
36745W        W79657   8.607   2.921  25.156 -0.0865 -0.0324 -0.0666
36746W        W79658   7.847  34.310  25.802 -0.2184 -0.0088  0.2294
36747W        W79659   8.209   3.065  25.436 -0.1623 -0.0860  0.1680
36748W        W79660   7.559   1.369  26.632  0.0321 -0.1523 -0.0105
36749W        W79661   8.698   2.706  26.289 -0.4778 -0.1529 -0.0774
36750W        W79662   7.921   1.145  25.200  0.1316 -0.2381 -0.0493
36751W        W79663   9.765   3.526  25.854  0.1073  0.3133 -0.1199
36752W        W79664   9.454   1.820  25.349 -0.0243 -0.0756  0.0970
36753W        W79665  11.334   0.208  27.249 -0.0370 -0.1316  0.2201
36754W        W79666   9.882   3.055  27.135  0.1709  0.2155 -0.1155
36755W        W79667   8.539   2.407  27.182 -0.4976  0.2123 -0.2079
36756W        W79668  10.541   2.070  26.274  0.2104 -0.0409 -0.1858
36757W        W79669  10.063   2.758  24.640 -0.0040 -0.1842 -0.1038
36758W        W79670   8.041   3.284  26.856 -0.0684  0.0191  0.2625
36759W        W79671   7.945   0.852  25.938 -0.2882 -0.1974 -0.4799
36760W        W79672   8.933   2.404  27.646 -0.2441  0.1429  0.0285
36761W        W79673  10.367   1.756  24.459 -0.2869  0.2293  0.0637
36762W        W79674   8.277  34.195  24.941 -0.1640  0.2030  0.1903
36763W        W79675   9.992   3.148  23.709 -0.1136  0.1479  0.1089
36764W        W79676   8.058   3.138  27.426  0.3381  0.0463  0.1586
36765W        W79677   7.301   0.740  25.963  0.0304  0.1171 -0.0167
36766W        W79678   9.096   4.121  25.884 -0.2699 -0.1699 -0.2232
36767W        W79679  10.917   3.062  23.540 -0.2530 -0.3137 -0.0386
36768W        W79680   9.623   2.552  25.868  0.3023 -0.2480  0.0557
36769W        W79681  10.018   4.862  25.441  0.1611 -0.0469  0.2137
36770W        W79682   8.028   0.635  24.357 -0.3054 -0.0574 -0.2287
36771W        W79683   8.649   2.261  25.441 -0.2341 -0.2971  0.0431
36772W        W79684   7.212   2.769  22.862  0.2989  0.0621 -0.0220
36773W        W79685   9.243   2.921  22.804 -0.3123  0.2371 -0.3512
36774W        W79686   7.575   3.530  24.204 -0.1027 -0.2256  0.0707
36775W        W79687  11.084   1.929  27.068  0.1939  0.0513  0.0993
36776W        W79688  10.066   1.058  22.484 -0.3759  0.2071 -0.2321
36777W        W79689  11.446   0.973  26.546  0.2270 -0.1747  0.0436
36778W        W79690  11.851   1.766  23.856 -0.0039  0.0503  0.4732
36779W        W79691   9.999   2.934  26.666 -0.3379 -0.0135  0.0348
36780W        W79692   9.253   2.848  25.510 -0.0480 -0.0081 -0.2041
36781W        W79693   7.813  34.388  24.288  0.0557 -0.1118 -0.3021
36782W        W79694   7.716   0.045  26.581 -0.1870  0.2205 -0.0818
36783W        W79695  10.520   0.870  27.670 -0.3101  0.1025 -0.1000
36784W        W79696   6.620   3.076  26.612 -0.3029  0.0398  0.2007
36785W        W79697  10.688   3.091  25.283  0.2355 -0.1621 -0.3081
36786W        W79698   7.440   2.028  24.328 -0.1540 -0.1644 -0.2696
36787W        W79699   7.436   1.258  25.234 -0.2024 -0.5679  0.0901
36788W        W79700  10.364  33.937  24.466 -0.1562 -0.0474  0.3624
36789W        W79701   9.309   1.654  23.344  0.2458  0.0271 -0.0819
36790W        W79702  10.140   1.636  24.033 -0.2450 -0.0012 -0.1369
36791W        W79703   9.620   4.604  24.191 -0.1103  0.0898 -0.3217
36792W        W79704   9.745   2.611  26.402  0.2056  0.2117  0.0731
36793W        W79705   8.211   4.168  26.431  0.0172 -0.0983 -0.1310
36794W        W79706   6.507   1.488  24.271 -0.3361  0.1800  0.0405
36795W        W79707  10.559   2.524  23.625 -0.2360 -0.1789  0.0548
36796W        W79708   9.349   2.315  26.329  0.3965  0.0284  0.1278
36797W        W79709  10.314  34.420  26.327  0.0738  0.0973 -0.0380
36798W        W79710   8.090   1.677  26.049 -0.3868  0.3339 -0.0485
36799W        W79711  10.086   1.089  23.960 -0.0167 -0.0485 -0.0821
36800W        W79712   8.600   1.350  26.324  0.0566  0.4079 -0.0875
36801W        W79713   9.213   0.408  26.488  0.2048  0.1902 -0.2095
36802W        W79714   8.730   2.453  24.975 -0.0613 -0.0182 -0.0945
36803W        W79715  10.187   1.990  27.106  0.1507  0.0145  0.0077
36804W        W79716  10.518   1.920  24.901 -0.0046 -0.0932 -0.1155
36805W        W79717  10.979   2.728  26.603  0.0488  0.2453 -0.0186
36806W        W79718   8.648   0.537  26.440  0.5028 -0.0448 -0.0619
36807W        W79719   9.378   0.484  24.186 -0.1741  0.2126  0.1544
36808W        W79720   7.429   2.080  24.872  0.0395  0.0778  0.1660
36809W        W79721   8.504   3.044  26.008 -0.3518  0.1050  0.0547
36810W        W79722  11.938   2.636  26.640 -0.2405 -0.0967 -0.2789
36811W        W79723   6.680  33.359  25.176  0.0835 -0.4449 -0.0704
36812W        W79724   9.784   2.334  24.419  0.0697  0.2310  0.0232
36813W        W79725   9.031   2.362  26.912  0.3806 -0.0983  0.0435
36814W        W79726   8.642   3.689  24.971 -0.1480  0.0367  0.2544
36815W        W79727   9.544   2.311  23.183  0.3812 -0.0139  0.1933
36816W        W79728   8.852   1.346  25.866  0.2253  0.0574  0.0189
36817W        W79729   7.745   1.039  24.318  0.1761  0.1214 -0.1628
36818W        W79730   8.695   2.308  26.002 -0.1156 -0.0878 -0.0170
36819W        W79731   9.531   2.310  26.809  0.1079  0.3925  0.2183
36820W        W79732  10.183   0.730  24.565 -0.1837 -0.2296  0.1202
36821W        W79733   8.190   2.365  25.861 -0.0303  0.1079 -0.2362
36822W        W79734   8.166   2.835  24.194  0.2166  0.0933  0.0268
36823W        W79735  10.198   2.822  25.131  0.0515 -0.1810  0.0920
36824W        W79736   9.795   0.797  25.802  0.0744  0.2688 -0.1001
36825W        W79737   9.202   3.874  24.833 -0.0861 -0.0695  0.2687
36826W        W79738  11.583   0.026  26.795 -0.3309 -0.1310 -0.0988
36827W        W79739   8.358   1.867  26.516 -0.0462  0.1497 -0.3863
36828W        W79740   8.486   3.553  28.565 -0.2801 -0.1510  0.1908
36829W        W79741   8.061   2.297  24.130 -0.0465  0.2118  0.1918
36830W        W79742  10.330   1.974  25.748 -0.0819  0.1062  0.2406
36831W        W79743   8.691   2.795  24.587 -0.0112 -0.0617 -0.0843
36832W        W79744   9.092   4.182  24.385  0.3227 -0.0250 -0.1737
36833W        W79745  10.754   3.918  24.864 -0.0613 -0.0834  0.1971
36834W        W79746   9.712   0.908  24.376 -0.1920 -0.1562  0.2815
36835W        W79747  11.061   4.027  26.285 -0.2744  0.0227 -0.2124
36836W        W79748   8.525  33.775  25.516  0.2354 -0.0194  0.2491
36837W        W79749   9.750  34.588  23.595 -0.2806  0.0650 -0.0181
36838W        W79750   9.861   0.353  24.307  0.0068  0.2097  0.0490
36839W        W79751   8.349   2.376  26.620  0.2822  0.0021  0.1801
36840W        W79752   7.091   1.965  23.458 -0.0457 -0.0227 -0.1133
36841W        W79753   9.324   2.581  22.350  0.4152 -0.0451  0.0320
36842W        W79754   6.378   2.241  25.664 -0.3161  0.1611 -0.0985
36843W        W79755   9.744  34.493  27.642 -0.2652  0.3106  0.0851
36844W        W79756   6.572   0.974  25.730  0.4679  0.1354  0.0081
36845W        W79757   6.496   1.938  24.967  0.0434 -0.2759 -0.1406
36846W        W79758   7.693   0.053  23.596 -0.0099 -0.1113 -0.1334
36847W        W79759  10.047   2.182  22.889  0.1186  0.0304 -0.2412
36848W        W79760   7.500   0.430  24.825 -0.0746 -0.0628 -0.3521
36849W        W79761   8.389   0.218  25.012 -0.3787 -0.2415  0.0388
36850W        W79762  10.657   3.445  26.269 -0.0496 -0.0061  0.0952
36851W        W79763  10.685   3.576  25.304 -0.2123 -0.1085 -0.2612
36852W        W79764   8.364   1.795  23.896  0.0215 -0.1505  0.1246
36853W        W79765  11.869   2.539  28.344  0.2881 -0.1319 -0.0060
36854W        W79766   8.337   2.473  23.793  0.0792  0.1601  0.2303
36855W        W79767  10.142   0.620  27.509 -0.0674  0.3501 -0.1330
36856W        W79768   8.987   0.176  26.934  0.1496 -0.4403  0.2437
36857W        W79769   7.476   2.364  24.011 -0.3504 -0.2877  0.2450
36858W        W79770   9.225   1.329  24.529  0.2668  0.0563 -0.0070
36859W        W79771   9.569   4.921  24.625  0.2272 -0.0537  0.4545
36860W        W79772  11.082   3.242  23.076 -0.0122 -0.1902 -0.0761
36861W        W79773   9.142   3.206  26.896  0.1051 -0.0632 -0.2265
36862W        W79774   8.086   3.585  25.837 -0.1270  0.1360 -0.0096
36863W        W79775   6.378  34.268  26.213 -0.0664  0.0256 -0.2523
36864W        W79776  10.278   2.232  24.298 -0.0983 -0.0308  0.1668
36865W        W79777   9.910   3.867  27.022 -0.2114 -0.3304 -0.1488
36866W        W79778  10.171   2.615  23.925 -0.1548  0.1699 -0.4351
36867W        W79779  11.108   0.652  23.849  0.1500  0.2626 -0.0374
36868W        W79780   9.316   1.937  24.643 -0.1333  0.3659  0.1300
36869W        W79781   6.218   0.410  27.063 -0.1824 -0.1678 -0.2309
36870W        W79782   7.832   2.519  28.043 -0.0139  0.0532  0.1132
36871W        W79783   9.538   1.796  26.332  0.1663 -0.0645  0.0459
36872W        W79784   7.557  34.192  25.143  0.0299  0.0051  0.3826
36873W        W79785  10.744   0.674  23.443  0.0657 -0.0542 -0.3921
36874W        W79786  11.285   2.420  24.302 -0.2792  0.0535  0.1132
36875W        W79787   7.149   0.906  25.004  0.3254 -0.1497  0.0375
36876W        W79788   8.429   1.511  23.399 -0.1050 -0.0783 -0.0980
36877W        W79789   7.845   0.741  27.685 -0.2378 -0.2083  0.2162
36878W        W79790   8.476   1.398  24.928  0.2676 -0.1108  0.1636
36879W        W79791   9.629   1.467  27.197 -0.1276  0.2668 -0.0091
36880W        W79792   7.892   2.657  23.820 -0.2618  0.0172  0.2423
36881W        W79793  11.226   2.101  26.169  0.2890  0.3410  0.4394
36882W        W79794   9.544   3.092  26.552 -0.0886 -0.2256 -0.2249
36883W        W79795  10.738   1.613  26.927  0.1244  0.1115 -0.0961
36884W        W79796   8.494   4.154  26.875  0.0419 -0.0411  0.1029
36885W        W79797  10.803   2.023  24.520 -0.0020 -0.5037 -0.1486
36886W        W79798   7.673  34.233  26.654  0.0733  0.2551 -0.1182
36887W        W79799   7.853   1.795  24.054 -0.0145 -0.2767  0.2030
36888W        W79800   8.732   3.251  24.780 -0.1382 -0.3948 -0.2063
36889W        W79801  10.869   0.365  26.379 -0.2452  0.2380  0.0970
36890W        W79802   7.731   1.339  26.063  0.4224  0.1481  0.1101
36891W        W79803   9.702  33.648  24.240 -0.1354  0.3247 -0.0197
36892W        W79804   7.659   1.979  25.879 -0.1708  0.0378 -0.1933
36893W        W79805   9.426   1.403  26.687 -0.0523  0.1131 -0.1369
36894W        W79806   7.968   2.461  30.065 -0.3939 -0.2061  0.1298
36895W        W79807   8.910  34.542  29.097 -0.1989 -0.1085 -0.0487
36896W        W79808   9.585   0.041  26.530  0.2496  0.0790  0.1835
36897W        W79809  11.595   1.171  27.472 -0.2346  0.1361 -0.0136
36898W        W79810   7.227  34.683  27.598 -0.1942  0.0796  0.0156
36899W        W79811   9.942   3.134  28.612  0.1145 -0.1277 -0.1171
36900W        W79812   8.736   0.048  29.605 -0.0628 -0.1332 -0.0034
36901W        W79813   9.300   0.973  29.805 -0.1383  0.1100  0.2086
36902W        W79814   9.693   3.006  29.960  0.0028 -0.3956 -0.2130
36903W        W79815   8.934   1.746  28.332  0.0238 -0.0755  0.1250
36904W        W79816   9.651   1.059  29.446 -0.1188  0.2395  0.0640
36905W        W79817   8.948   2.288  31.265 -0.0372 -0.0628  0.0562
36906W        W79818   8.752   0.154  28.670  0.0993 -0.0547 -0.4835
36907W        W79819   6.256   0.444  28.434 -0.0604 -0.2114  0.1990
36908W        W79820   9.375   2.363  29.659  0.1221  0.2534 -0.0849
36909W        W79821   6.976   1.359  29.111  0.1426  0.0832 -0.0569
36910W        W79822   8.453   0.968  29.440 -0.1060 -0.0847 -0.0243
36911W        W79823   9.739   0.255  27.382 -0.1239  0.0323 -0.2479
36912W        W79824   9.015   3.350  27.855 -0.0643  0.0168  0.0567
36913W        W79825   9.445   0.576  29.465 -0.2284 -0.2392 -0.2149
36914W        W79826   9.151  34.507  30.542 -0.0637 -0.1657 -0.0293
36915W        W79827   8.474   3.365  27.643  0.2855  0.0186  0.1723
36916W        W79828   7.227   1.425  27.127 -0.1962 -0.0433 -0.0402
36917W        W79829   7.220   1.716  28.852  0.0355 -0.3178  0.1565
36918W        W79830   7.970   0.744  29.450 -0.2681 -0.1432 -0.1465
36919W        W79831   9.624   0.728  29.042 -0.1620 -0.1272 -0.0114
36920W        W79832   9.349   1.668  27.601 -0.0129  0.1532 -0.2082
36921W        W79833   8.334   3.456  29.077 -0.0867 -0.1154  0.1653
36922W        W79834   9.343   2.790  28.163  0.1421  0.0000  0.5530
36923W        W79835  10.286   0.947  30.916 -0.1241 -0.3994  0.0803
36924W        W79836   8.177   4.190  28.688  0.1167 -0.3437  0.2066
36925W        W79837   7.259   4.142  28.502 -0.1090 -0.1752  0.0119
36926W        W79838   7.400   1.802  28.430  0.0120 -0.0932 -0.0243
36927W        W79839  10.204   2.499  29.438 -0.0244 -0.1103  0.1645
36928W        W79840  10.865   3.545  30.214  0.0377  0.3353 -0.3935
36929W        W79841   8.117   2.898  31.105  0.4750  0.3750  0.1034
36930W        W79842   8.516   1.770  27.380 -0.2484 -0.1084  0.0557
36931W        W79843  10.122   4.234   0.058 -0.2444 -0.0036  0.2156
36932W        W79844   8.428   2.103  29.927 -0.0867  0.2100  0.1943
36933W        W79845   8.239   2.435  29.582 -0.2619  0.1133 -0.1005
36934W        W79846   8.679   1.936  26.968  0.2562  0.2448 -0.5163
36935W        W79847   8.101   3.630  27.369 -0.2051 -0.0902  0.0409
36936W        W79848   8.640   2.177  28.331  0.0560 -0.3862 -0.0691
36937W        W79849   8.776   1.842  31.479  0.2454 -0.0531  0.0543
36938W        W79850   7.448   3.359  29.255 -0.0376 -0.0541 -0.0771
36939W        W79851  10.440  34.252  31.627 -0.1997 -0.3979  0.1144
36940W        W79852   8.326   2.989  26.594 -0.2257 -0.0950 -0.2166
36941W        W79853   9.957   0.729  26.523 -0.0426 -0.2302 -0.0076
36942W        W79854   8.315   0.489  26.098  0.0381 -0.1552  0.1634
36943W        W79855   9.630   0.086  27.991  0.2397 -0.2212  0.1973
36944W        W79856   8.621  34.048  28.489  0.3306 -0.0467 -0.0283
36945W        W79857   7.793   4.211  28.289 -0.1379  0.0364  0.0068
36946W        W79858   8.852   0.696  29.545 -0.0338  0.1624 -0.1226
36947W        W79859  10.474   1.781  30.178  0.1147 -0.1227  0.1377
36948W        W79860   8.725   1.686  27.863 -0.1084  0.2550 -0.3015
36949W        W79861   9.255   0.569  30.097  0.0999  0.4710 -0.1406
36950W        W79862   7.811   3.018  29.364 -0.3043 -0.2476 -0.0879
36951W        W79863   8.155   2.098  28.240 -0.2499 -0.1539 -0.1047
36952W        W79864   9.210   1.938  26.678 -0.0138 -0.2043  0.1738
36953W        W79865   9.955   2.158  29.092 -0.1017 -0.3004  0.1855
36954W        W79866   9.511   1.847  28.281 -0.1393 -0.1391 -0.3609
36955W        W79867   7.144   0.905  27.312  0.2995 -0.0119 -0.6381
36956W        W79868   7.594   1.756  29.396  0.3600 -0.0608 -0.2918
36957W        W79869   7.891   0.598  30.410 -0.0701 -0.0262  0.0760
36958W        W79870   7.128   0.145  28.100 -0.0179  0.2865  0.0823
36959W        W79871   9.434   1.906  29.177  0.0758 -0.1660 -0.0939
36960W        W79872   6.401   3.138  30.290  0.2838 -0.1018  0.1478
36961W        W79873  11.029  34.339  29.718 -0.2327 -0.0272  0.4524
36962W        W79874   9.676   2.555  29.337  0.2070 -0.0534 -0.0717
36963W        W79875  10.820   3.115  29.606  0.1445  0.0815  0.0008
36964W        W79876  10.122   1.473  27.012  0.2562  0.0914  0.2549
36965W        W79877   9.720  33.947  30.140  0.0256  0.2081  0.1390
36966W        W79878   9.571  33.145  31.386 -0.1935 -0.1138 -0.1651
36967W        W79879   8.452   3.839  27.655  0.0447  0.0023  0.0822
36968W        W79880   8.820   1.312  28.518  0.2527 -0.0942  0.1558
36969W        W79881   9.966   1.835  30.437 -0.0775  0.2516 -0.0235
36970W        W79882  11.036   1.233  26.357  0.2037 -0.0824  0.0809
36971W        W79883   9.188   2.686  29.159 -0.1650  0.1317  0.1608
36972W        W79884   9.310   1.482  30.136 -0.1970 -0.3125 -0.2528
36973W        W79885   8.700   2.472  30.791 -0.2236  0.1005 -0.2461
36974W        W79886   8.628   3.657  28.061 -0.1759 -0.0720 -0.1661
36975W        W79887   7.352   2.192  28.111 -0.2882 -0.0855 -0.3095
36976W        W79888   7.706   1.890  27.980 -0.2310  0.3523  0.0996
36977W        W79889   8.237   0.279  30.654 -0.3189  0.0349 -0.2524
36978W        W79890   7.844   1.239  30.321 -0.4531  0.1961 -0.0550
36979W        W79891  10.864   1.232  27.937 -0.0693  0.1276 -0.0981
36980W        W79892   7.872  34.474  31.380 -0.4678  0.1950  0.2356
36981W        W79893   9.989  34.234  30.626 -0.1459 -0.1272  0.2140
36982W        W79894   7.031   1.432  28.409 -0.0517  0.3482 -0.0410
36983W        W79895  10.465   1.096  28.749  0.1787  0.0397 -0.3499
36984W        W79896  11.428   1.473  29.191 -0.0917  0.1514 -0.5773
36985W        W79897  10.925   1.369  28.572  0.1647 -0.0024  0.0974
36986W        W79898   7.539   1.253  29.898 -0.1101  0.0873 -0.0008
36987W        W79899   6.964   1.009  28.741 -0.2124 -0.2933 -0.0295
36988W        W79900   9.149   1.556  31.608  0.2670 -0.3190  0.1997
36989W        W79901   7.853   1.914  30.717  0.2568 -0.2291  0.0411
36990W        W79902   8.958   1.261  29.610 -0.1609  0.1094 -0.0530
36991W        W79903   7.143   0.225  28.801  0.1593 -0.2323 -0.0444
36992W        W79904   9.650  34.439  28.345 -0.0937 -0.0009  0.1425
36993W        W79905   8.332   1.199  28.105 -0.0827 -0.0907  0.3275
36994W        W79906   6.586   1.570  28.314  0.2528 -0.0338 -0.1361
36995W        W79907   9.219  34.168  31.035 -0.0864  0.4732  0.4017
36996W        W79908  10.013   3.239  27.834  0.1552  0.0391 -0.1111
36997W        W79909  10.919   3.199  29.128  0.2361 -0.0622 -0.2242
36998W        W79910   9.213   3.560  29.368 -0.0931 -0.3318  0.2473
36999W        W79911   9.453   1.188  31.974 -0.0088 -0.1511  0.3732
37000W        W79912   7.961   2.635  27.518  0.0065  0.0922 -0.2106
37001W        W79913   7.710   3.049  27.991  0.0977 -0.1886 -0.1228
37002W        W79914   9.117   2.165  28.570  0.0631  0.3226  0.0460
37003W        W79915   8.748  33.620  27.173  0.0730 -0.0486 -0.3133
37004W        W79916  10.585   3.017  28.613  0.1234  0.2729 -0.0279
37005W        W79917   9.159   2.737  26.526  0.2722  0.1882  0.1570
37006W        W79918   7.864   3.338  28.345  0.2009  0.3144  0.2150
37007W        W79919   9.566  34.687  30.767 -0.2775 -0.2633 -0.2481
37008W        W79920  10.036  34.580  30.063  0.1690 -0.0364  0.2834
37009W        W79921   8.716   2.533  29.332  0.0780 -0.1603  0.3279
37010W        W79922   7.631  33.949  27.569 -0.1350 -0.0423  0.3592
37011W        W79923   9.602   3.255  29.543 -0.3016 -0.0765 -0.1389
37012W        W79924   7.298   2.803  29.345 -0.0013 -0.0027 -0.1548
37013W        W79925   6.044   2.388  28.891 -0.3900 -0.2005 -0.0351
37014W        W79926   8.439   2.866  29.031  0.0001 -0.0845  0.3418
37015W        W79927   9.978   0.537  28.265 -0.2982  0.0565 -0.1196
37016W        W79928   6.690   2.727  30.311 -0.1097  0.5334  0.2161
37017W        W79929   9.720   0.206  29.766 -0.1430  0.0661  0.1789
37018W        W79930   7.502   1.403  28.098 -0.2343 -0.1574  0.0833
37019W        W79931   6.608   2.470  28.609 -0.0011  0.0017 -0.1224
37020W        W79932   9.209  34.682  27.509  0.1666  0.0348  0.1436
37021W        W79933   9.954  33.613  28.434  0.1044  0.3566 -0.1529
37022W        W79934   9.605   2.859  30.439  0.0310 -0.1243 -0.1165
37023W        W79935  10.474   1.984  29.251  0.3318 -0.2815 -0.0098
37024W        W79936  10.135  34.566  28.319  0.1967 -0.1106 -0.3217
37025W        W79937   9.037  34.357  27.062  0.2565 -0.0119  0.1014
37026W        W79938   7.437   1.907  30.419 -0.1317 -0.3762  0.2486
37027W        W79939  11.304   1.365  27.831 -0.2593 -0.2100 -0.2143
37028W        W79940   9.370   1.900  29.854  0.0018 -0.0059 -0.7046
37029W        W79941   8.378   0.758  25.612  0.1358  0.0177  0.1900
37030W        W79942  10.990   2.244  29.040 -0.0409  0.3949  0.2532
37031W        W79943   5.821   1.297  28.669 -0.2548 -0.2360  0.1569
37032W        W79944   9.504   3.067  31.370 -0.0479 -0.1567 -0.0867
37033W        W79945  10.257   2.694  28.421 -0.0995  0.2167 -0.0762
37034W        W79946   9.865  34.009  29.349  0.3557  0.1381 -0.4186
37035W        W79947  10.006  33.979  26.441  0.2524  0.2764  0.0794
37036W        W79948   8.170   0.405  27.353 -0.2919  0.2390  0.1492
37037W        W79949   7.563   2.315  26.600  0.0306  0.0703  0.2036
37038W        W79950   9.786   0.286  29.215  0.1723 -0.1496 -0.1904
37039W        W79951   9.943   0.368  28.748 -0.1019 -0.1156 -0.0439
37040W        W79952   9.007  33.978  30.622  0.1090  0.1285 -0.2185
37041W        W79953  12.061   2.099  30.579  0.2109  0.4543  0.0407
37042W        W79954   7.855   2.699  26.657  0.3612  0.1365  0.0118
37043W        W79955   9.364   1.501  29.484  0.0967 -0.2374  0.1119
37044W        W79956   8.792   1.175  27.944  0.5657  0.0526 -0.1432
37045W        W79957   9.721   0.700  29.931 -0.1149 -0.2931  0.1954
37046W        W79958   7.697   1.441  31.261  0.3021  0.0179  0.3817
37047W        W79959   7.793   4.690  29.715  0.1640 -0.0755  0.1858
37048W        W79960   9.578   3.389  30.356 -0.1504  0.0749  0.0585
37049W        W79961  10.201   0.215  29.571  0.2224 -0.1983 -0.0353
37050W        W79962  10.243   0.883  30.050  0.0078  0.1606 -0.1643
37051W        W79963   9.154  34.202  27.547  0.0046 -0.0224 -0.0076
37052W        W79964   7.465   2.762  28.396 -0.1867  0.0295 -0.2878
37053W        W79965   9.630   1.362  28.479 -0.3661 -0.0906  0.0516
37054W        W79966   8.674   0.938  28.812  0.1099 -0.0543 -0.1262
37055W        W79967   9.839   2.066  29.564 -0.0697 -0.3113  0.2306
37056W        W79968   9.854   3.478  28.239 -0.0957  0.1500  0.0171
37057W        W79969   9.174   1.824  31.124  0.0882  0.1239 -0.0911
37058W        W79970   6.891   1.835  27.473  0.0719 -0.0180  0.1139
37059W        W79971   8.774   0.433  29.937 -0.0528  0.0702 -0.2257
37060W        W79972   6.523   3.800  28.474 -0.1750  0.0585 -0.2233
37061W        W79973   7.848   1.058  28.302  0.2181  0.3430 -0.1379
37062W        W79974   7.830   2.223  28.582 -0.5286 -0.1501  0.0233
37063W        W79975  11.716  33.409  28.500  0.2468 -0.0948  0.1789
37064W        W79976   9.409   1.061  27.683  0.2163 -0.2679 -0.0251
37065W        W79977   7.267   1.245  31.017 -0.0343 -0.0439 -0.2450
37066W        W79978   8.864   1.717  29.439 -0.2490 -0.0530 -0.2417
37067W        W79979   5.265   3.003  29.499 -0.0552  0.2179  0.0428
37068W        W79980   9.279   1.342  30.860  0.2325 -0.1197 -0.3647
37069W        W79981  10.884  34.689  27.368  0.1300 -0.0780  0.1272
37070W        W79982   8.876   1.773  29.950 -0.1550 -0.3651 -0.2040
37071W        W79983  10.754   2.422  31.553  0.3676  0.1687  0.2519
37072W        W79984   6.312   1.050  27.117 -0.0280 -0.2266 -0.3644
37073W        W79985  10.525   0.505  29.879  0.1647 -0.0233  0.1491
37074W        W79986   9.109   1.973  27.911 -0.1043 -0.1402 -0.1343
37075W        W79987   8.767   4.625  29.293  0.0951 -0.2784  0.0231
37076W        W79988   8.539   2.085  29.437  0.1415 -0.0233  0.3055
37077W        W79989   7.947   1.213  27.810  0.1963  0.0685  0.0492
37078W        W79990   8.234   2.399  29.085 -0.3069 -0.0653 -0.2475
37079W        W79991   8.075   1.606  29.912  0.1379  0.0519 -0.0579
37080W        W79992   9.702   2.198  30.617 -0.0767 -0.0166 -0.3831
37081W        W79993   7.717   1.709  28.886 -0.2804  0.0344 -0.0996
37082W        W79994   8.252   1.042  28.588  0.0572  0.2207  0.2324
37083W        W79995   7.983   1.284  28.989 -0.1446  0.0749  0.2558
37084W        W79996  10.706   2.017  29.708 -0.1945 -0.6587 -0.2175
37085W        W79997   8.682   1.974  30.926 -0.0127  0.3034  0.2982
37086W        W79998   7.066   0.773  29.572 -0.0265  0.3699 -0.1607
37087W        W79999   9.517   1.373  29.023 -0.0769 -0.0653 -0.0868
37088W        W80000  11.800   2.786  27.699  0.0259 -0.2908  0.0880
37089W        W80001   9.837   0.882  30.413  0.1489  0.0616  0.0856
37090W        W80002   7.918   1.579  28.384 -0.0500  0.0883  0.0721
37091W        W80003   7.190   1.368  29.557 -0.0875 -0.1324 -0.1164
37092W        W80004   8.469   2.683  28.521  0.0188  0.0545 -0.0593
37093W        W80005   8.423   1.462  29.544  0.1728  0.0362  0.2984
37094W        W80006   8.373   2.920  29.505 -0.5482  0.2787  0.2874
37095W        W80007   6.002   2.273  27.774 -0.1413 -0.1679  0.0348
37096W        W80008   6.831   2.784  27.634 -0.1821  0.1047 -0.0097
37097W        W80009  10.339   0.606  28.860 -0.3344 -0.2108  0.2109
37098W        W80010  10.569   1.314  27.323 -0.0176 -0.2599  0.1496
37099W        W80011   9.040   0.612  28.593 -0.0746  0.1098  0.0906
37100W        W80012  10.535   0.008  29.867  0.1407 -0.1290 -0.1707
37101W        W80013   8.671   0.188  27.319 -0.1087 -0.0187 -0.2117
37102W        W80014   9.476   0.411  30.993  0.3204 -0.2111  0.0090
37103W        W80015   6.653   0.083  28.222 -0.1610 -0.0282  0.2536
37104W        W80016  10.470   2.191  28.278  0.2470  0.2079 -0.2245
37105W        W80017   6.699   0.243  31.438  0.2770 -0.1762 -0.0736
37106W        W80018   9.918   3.961  30.186 -0.1760  0.0124 -0.2006
37107W        W80019   6.372   2.901  29.833 -0.1100  0.2426  0.1944
37108W        W80020   9.043   0.285  27.861 -0.1252 -0.0746 -0.2122
37109W        W80021   7.698   0.062  28.052  0.0259  0.1471 -0.1297
37110W        W80022   8.484   1.711  30.234 -0.0917 -0.0783  0.0746
37111W        W80023   9.554   2.343  28.233 -0.0760  0.1639 -0.4692
37112W        W80024   8.630   2.397  28.848 -0.0238 -0.0495 -0.1477
37113W        W80025  10.927   0.767  28.030  0.1100 -0.1331  0.0050
37114W        W80026   7.936   1.927  30.208 -0.0949 -0.2198 -0.0593
37115W        W80027   9.674   0.765  27.315 -0.0161 -0.1354  0.1389
37116W        W80028   9.422   2.334  27.769  0.0361 -0.1522 -0.1363
37117W        W80029   7.769   2.537  29.341 -0.0517  0.5602 -0.0510
37118W        W80030   8.349  34.202  31.400 -0.1408 -0.0302 -0.2453
37119W        W80031   9.259   1.592  28.691  0.2850  0.1345  0.1696
37120W        W80032   9.072  33.549  29.270 -0.1478 -0.0698 -0.0393
37121W        W80033   9.335   1.872  30.346  0.0567  0.0131 -0.2292
37122W        W80034  10.824   0.432  31.091 -0.3172  0.3362 -0.0379
37123W        W80035   9.176   2.158  30.768  0.4692 -0.0315 -0.0082
37124W        W80036   7.107   0.244  31.139 -0.0995  0.1445  0.1273
37125W        W80037  11.243   4.446  30.530  0.0131 -0.1398 -0.2465
37126W        W80038  11.002   1.146  26.905  0.0862 -0.4383 -0.1476
37127W        W80039  10.138  33.589  30.200  0.1732 -0.1237  0.2713
37128W        W80040  10.507   1.066  28.224  0.2520 -0.2754 -0.0048
37129W        W80041  10.052   2.260  28.595 -0.0843  0.0789 -0.3498
37130W        W80042   7.926   0.475  29.903  0.2089 -0.2051  0.0299
37131W        W80043  11.033   1.876  31.495 -0.0471  0.0495  0.2569
37132W        W80044   7.721   0.887  29.028  0.3271  0.0061  0.2434
37133W        W80045  10.088   0.336  30.051  0.1746  0.0855 -0.2131
37134W        W80046   9.069   2.761  27.176 -0.1413 -0.3308 -0.2563
37135W        W80047   9.250   1.440  28.064  0.0468  0.0171 -0.1085
37136W        W80048  10.019   0.988  27.892 -0.0101  0.0368  0.2146
37137W        W80049   6.940   0.360  27.450 -0.1219  0.1043 -0.1800
37138W        W80050   7.083   2.073  29.861 -0.0166  0.0843 -0.2635
37139W        W80051   6.723  34.598  26.308  0.0621  0.0781 -0.0828
37140W        W80052   8.524   1.863  25.944 -0.0546  0.2981  0.0535
37141W        W80053   7.979   2.062  29.743 -0.0379 -0.2343 -0.0459
37142W        W80054  11.363   1.878  30.458  0.0724 -0.1505 -0.1246
37143W        W80055   9.440   0.532  27.706 -0.2382  0.0327 -0.1621
37144W        W80056  10.072   0.066  30.562 -0.0355  0.2708 -0.0424
37145W        W80057   7.305   2.227  28.616  0.2570 -0.2446 -0.3337
37146W        W80058   8.869  32.006  28.251  0.0277 -0.2458 -0.2589
37147W        W80059   8.387   3.085  30.170 -0.2435  0.0030 -0.1869
37148W        W80060   7.019   3.746  28.718 -0.2425 -0.0962 -0.0882
37149W        W80061   6.920   1.961  28.525 -0.0988  0.2031 -0.1803
37150W        W80062   9.383   0.066  29.430 -0.1223 -0.0236  0.0303
37151W        W80063   9.776   1.447  27.910 -0.0103 -0.0315  0.1806
37152W        W80064   8.880   2.241  29.740 -0.2491  0.0100 -0.2359
37153W        W80065  10.731   0.727  30.569 -0.2665 -0.1170  0.1229
37154W        W80066   8.242   1.771  31.029 -0.1972  0.0483 -0.2152
37155W        W80067   6.988   2.267  29.011 -0.3509  0.0494 -0.0555
37156W        W80068   9.298   2.594  31.373 -0.2384 -0.2496 -0.2593
37157W        W80069  11.106   0.610  29.450  0.3350  0.2986  0.0379
37158W        W80070   7.232   2.663  28.818  0.1038  0.0560 -0.1965
37159W        W80071   8.145   1.168  31.062  0.1512  0.1225 -0.0822
37160W        W80072   9.688   1.168  30.035  0.1256 -0.0107 -0.0462
37161W        W80073  10.426   1.471  29.132  0.1003  0.0617  0.2620
37162W        W80074   7.501   1.198  28.649  0.1379  0.0743 -0.3244
37163W        W80075   7.983   2.134  26.271  0.0842  0.0665  0.2387
37164W        W80076   7.899   3.229  30.487 -0.0569  0.3179  0.0374
37165W        W80077   6.719   1.805  30.048 -0.0527  0.0860 -0.0120
37166W        W80078   7.209   3.276  28.865  0.1002  0.1969 -0.0250
37167W        W80079  10.315   1.727  28.649  0.1430 -0.1189  0.1047
37168W        W80080   8.644   0.792  28.264  0.0328  0.1194  0.2240
37169W        W80081   8.348   2.040  30.559 -0.2035 -0.0243 -0.1096
37170W        W80082   8.861   0.684  27.623  0.0873  0.1219  0.0007
37171W        W80083   8.038   3.674  28.714 -0.1638 -0.0540 -0.2008
37172W        W80084   7.498   2.436  27.633  0.1585  0.2719 -0.0020
37173W        W80085  10.020   2.318  27.965 -0.2449 -0.1026  0.2373
37174W        W80086   8.124   3.854  29.532 -0.0444 -0.0810 -0.0745
37175W        W80087  11.208   2.283  31.222 -0.0994  0.2060 -0.1071
37176W        W80088  10.522   0.024  28.111 -0.2500 -0.0450 -0.1100
37177W        W80089  10.076   0.988  29.141  0.2913 -0.0740  0.1334
37178W        W80090  11.952  34.582  27.968 -0.1379 -0.0303  0.0510
37179W        W80091   8.465   2.604  31.289  0.0019  0.2357  0.0170
37180W        W80092   8.437   1.425  28.885  0.2341 -0.0069 -0.1792
37181W        W80093   7.990   0.023  26.979 -0.1675 -0.1658 -0.2022
37182W        W80094   7.451   1.741  30.918  0.1243 -0.2136  0.0435
37183W        W80095   9.586   0.677  31.935 -0.1294 -0.0058  0.1673
37184W        W80096   6.277   2.423  29.672  0.2943  0.1583  0.0477
37185W        W80097   9.149   2.891  27.674  0.2225 -0.2600 -0.2071
37186W        W80098   6.890   1.096  26.920 -0.1631 -0.1990  0.0417
37187W        W80099   8.453   1.629  28.340  0.2338  0.1815 -0.0729
37188W        W80100  10.649  34.124  29.898  0.0325  0.0794 -0.2187
37189W        W80101   8.399   2.565  28.063 -0.3805  0.1076  0.0363
37190W        W80102   9.619   0.896  28.141 -0.0201 -0.1792 -0.0356
37191W        W80103   8.211   3.168  28.690  0.0676  0.2902  0.2305
37192W        W80104   8.791   3.137  29.853  0.0349  0.1195 -0.2110
37193W        W80105   8.934   2.237  30.235 -0.3874  0.2356  0.1468
37194W        W80106   5.913   0.258  27.676 -0.1297  0.0423 -0.1394
37195W        W80107  11.072   0.097  27.915  0.0322  0.3508  0.0840
37196W        W80108   8.266   1.498  30.622 -0.2816 -0.0231  0.2471
37197W        W80109   9.997  33.992  31.530 -0.0117 -0.3107  0.2405
37198W        W80110   8.234   1.738  27.915 -0.2881  0.1007  0.1790
37199W        W80111  11.362   1.443  29.692 -0.0889  0.1308 -0.0397
37200W        W80112   9.907   2.574  29.827 -0.0425  0.3106 -0.0693
37201W        W80113   8.648   0.402  29.136 -0.0999  0.2457  0.1673
37202W        W80114   8.981   1.355  27.515  0.0373  0.1427  0.1038
37203W        W80115  10.544   1.754  30.727 -0.0367 -0.2126  0.1940
37204W        W80116   7.677   1.225  27.376 -0.1550 -0.2030 -0.1049
37205W        W80117  10.365   2.894  31.536  0.0230  0.0925 -0.0971
37206W        W80118   6.172   1.035  28.981 -0.3507  0.2095 -0.0580
37207W        W80119   8.421   0.598  27.782  0.1120  0.1264  0.4464
37208W        W80120   7.444   0.995  27.795  0.1509 -0.0335 -0.1213
37209W        W80121   8.875   1.373  29.043 -0.4938 -0.0095 -0.1921
37210W        W80122  10.388   3.480   0.475 -0.0109 -0.1118  0.1698
37211W        W80123   6.670  34.310  28.793 -0.1021  0.1740 -0.0794
37212W        W80124  10.589   1.598  28.197 -0.1559  0.0181 -0.1266
37213W        W80125   9.830   1.671  29.899 -0.1573 -0.1591 -0.1816
37214W        W80126   7.732   4.028  26.593  0.0262 -0.0320  0.0096
37215W        W80127  10.065   1.158  27.403  0.1893 -0.1453  0.1242
37216W        W80128   9.967   2.923  29.395 -0.2903  0.1989  0.0899
37217W        W80129   7.964   0.939  29.896  0.2766  0.2070 -0.0697
37218W        W80130   9.317   3.347  29.958  0.0182  0.1925  0.1915
37219W        W80131  10.030   2.657  28.946  0.2384 -0.1011 -0.0021
37220W        W80132   9.219  34.508  27.979  0.0660  0.2394 -0.1349
37221W        W80133   8.325   0.447  28.674 -0.1247 -0.2271 -0.0262
37222W        W80134   7.370   3.318  28.384 -0.1062 -0.0853 -0.3544
37223W        W80135  11.346   0.937  29.925  0.2410 -0.0392 -0.2110
37224W        W80136  10.641  34.051  31.128 -0.0519  0.1917 -0.3430
37225W        W80137   9.932   3.523  27.390  0.1179 -0.0128 -0.0246
37226W        W80138  10.051  34.280   0.023  0.2381 -0.4051 -0.1215
37227W        W80139  10.158   1.226  29.589  0.0254 -0.0241 -0.0907
37228W        W80140   8.647   2.673   0.171  0.0851 -0.0230 -0.2150
37229W        W80141   7.400   0.889  26.847  0.0497 -0.0090  0.1789
37230W        W80142   9.492  34.612  30.242  0.1295 -0.1906 -0.0878
37231W        W80143   9.039   2.402  28.107  0.0880  0.0633 -0.1680
37232W        W80144   8.845   4.017  29.236  0.0780 -0.1122  0.1268
37233W        W80145  11.472   2.845  29.901  0.1930  0.2177  0.3437
37234W        W80146   8.611   0.331  28.187 -0.0859 -0.0743  0.1687
37235W        W80147  11.198   2.811  29.389  0.4951  0.1030 -0.0926
37236W        W80148   9.394   0.153  28.900 -0.0822 -0.0328  0.0355
37237W        W80149  11.468  34.107  28.562  0.0877 -0.2251 -0.1968
37238W        W80150   9.528  33.946  28.390 -0.0464 -0.1923  0.1825
37239W        W80151   7.410   2.309  29.548 -0.2084  0.3123 -0.0036
37240W        W80152   7.399   1.568  27.586  0.2737  0.0983  0.0820
37241W        W80153   8.083   2.177  27.704  0.2210  0.3664 -0.0397
37242W        W80154   8.333   2.003  28.748  0.0561  0.1163 -0.1645
37243W        W80155   9.932   0.545  30.855 -0.2114  0.2071 -0.1352
37244W        W80156   8.050   3.262  31.623 -0.0061 -0.0367 -0.0134
37245W        W80157   8.930   1.680  30.630 -0.1754  0.4710  0.0927
37246W        W80158   6.721   1.321  27.357 -0.2228 -0.5168 -0.2558
37247W        W80159  11.149   1.720  28.261 -0.0780  0.0532  0.2362
37248W        W80160   6.603  33.976  29.764 -0.2315  0.0074  0.0971
37249W        W80161   7.230  33.955  28.052 -0.2532  0.1420  0.1838
37250W        W80162  10.025   1.389  28.817  0.1257 -0.1397  0.1834
37251W        W80163  10.992   2.726  28.922 -0.3548  0.0920  0.3472
37252W        W80164   7.894   0.653  28.584  0.1011  0.1414  0.3396
37253W        W80165  10.426   2.781  30.686 -0.1381 -0.2310  0.1189
37254W        W80166   7.248   1.253  26.070  0.0948  0.0616  0.0781
37255W        W80167  10.011   0.455  31.693  0.1671 -0.1311 -0.0420
37256W        W80168   9.382  33.922  29.528 -0.0002 -0.3087  0.0957
37257W        W80169   7.930   1.054  26.812 -0.2600 -0.1356  0.1108
37258W        W80170   7.516   1.321  29.164  0.0775  0.1386  0.0172
37259W        W80171   9.168   2.681  28.634 -0.1929  0.1581  0.0775
37260W        W80172  10.949   2.219  28.343  0.0266 -0.0057  0.1132
37261W        W80173   8.466   2.895  30.778 -0.0782  0.2063 -0.2518
37262W        W80174   8.850   3.129  30.374  0.4599  0.3469  0.0901
37263W        W80175   7.788  34.671  30.807 -0.2457  0.0865 -0.2241
37264W        W80176  10.264   1.718  29.669  0.1803  0.0263  0.3684
37265W        W80177   7.564   1.790  29.925 -0.1332 -0.1615  0.3950
37266W        W80178  11.692   1.695  27.847  0.0192  0.0631  0.0465
37267W        W80179  11.249  34.671  28.622 -0.1224  0.1508  0.1316
37268W        W80180   9.752   1.792  28.742  0.1736 -0.0552 -0.0469
37269W        W80181   8.347   0.458  29.648  0.0867  0.1440 -0.1298
37270W        W80182   8.087   1.913  29.245  0.0867  0.1627  0.1381
37271W        W80183  10.518   2.372  28.727  0.1648 -0.1661  0.1319
37272W        W80184   6.972  33.817  28.460  0.0004 -0.2855  0.0660
37273W        W80185   9.111   0.734  28.095 -0.0154 -0.0605  0.0858
37274W        W80186   9.508   2.035  27.247 -0.1484 -0.3958 -0.1804
37275W        W80187   6.750   1.455  29.607  0.3122  0.0213 -0.2059
37276W        W80188   9.183   1.069  28.729 -0.2604 -0.0267 -0.1686
37277W        W80189   9.740   1.692  30.905 -0.1090  0.0388  0.0353
37278W        W80190  10.444   2.956  29.155  0.1751  0.1891 -0.0472
37279W        W80191  10.303   0.964  31.948 -0.1937 -0.0017 -0.0411
37280W        W80192   8.417   1.355  27.611 -0.0203 -0.0641 -0.2264
37281W        W80193  10.968   1.639  29.016 -0.2482 -0.1271 -0.2431
37282W        W80194  10.061   2.982  30.216  0.1853 -0.0958  0.3690
37283W        W80195  10.183   3.698  31.937  0.0166 -0.1164 -0.0118
37284W        W80196  10.329   2.832  29.784 -0.0437  0.0569  0.0874
37285W        W80197  10.731   1.538  29.507  0.2058  0.3532  0.0465
37286W        W80198   7.898  34.129  28.887  0.3208  0.0474 -0.2099
37287W        W80199   8.190   0.600  28.219 -0.4648  0.2807 -0.0550
37288W        W80200   9.007   2.196  29.100 -0.0224  0.0113 -0.1997
37289W        W80201  11.034   1.089  29.482 -0.2624 -0.0722  0.2924
37290W        W80202   7.594   0.370  28.970  0.1790 -0.0916  0.2775
37291W        W80203  10.083   0.591  26.995  0.1634  0.1034 -0.0959
37292W        W80204   8.471   2.475  30.301  0.2087 -0.0530 -0.2350
37293W        W80205  11.692   2.414  30.444  0.1287 -0.1529 -0.4392
37294W        W80206   9.673   0.378  30.433  0.1179  0.0182 -0.2725
37295W        W80207  10.877   1.428  30.276  0.2537 -0.2773  0.1761
37296W        W80208   6.586   1.305  28.795 -0.0378 -0.0510  0.0411
37297W        W80209   7.779   2.376  30.578 -0.3381 -0.1028  0.1736
37298W        W80210   9.590   2.885   0.299  0.2258 -0.1629 -0.2087
37299W        W80211   9.066   2.270  31.734  0.0843  0.0083 -0.0800
37300W        W80212  10.133   1.443  30.748 -0.2307  0.2841  0.1058
37301W        W80213   8.346   1.165  30.137 -0.4017 -0.2953 -0.1254
37302W        W80214  10.712   1.794   0.416  0.3537 -0.3554 -0.0968
37303W        W80215  10.736   3.422  30.969 -0.0157  0.0225  0.0873
37304W        W80216   8.724   1.369  30.971  0.0333  0.0980  0.2865
37305W        W80217   8.188  34.690  31.706  0.1376  0.1388  0.2314
37306W        W80218  11.695   2.165  31.409  0.0398  0.0558 -0.1215
37307W        W80219   9.886   1.072  31.652  0.1515  0.3280 -0.3756
37308W        W80220  11.772   0.021  31.396 -0.1642 -0.1195 -0.0083
37309W        W80221   8.615   3.160  31.394 -0.1135  0.1693  0.1187
37310W        W80222   8.082   0.796   1.241  0.1909  0.3522  0.1911
37311W        W80223  10.111   1.979  30.940 -0.1496 -0.0406 -0.0410
37312W        W80224   9.103   0.387  30.683  0.0955  0.2190 -0.1413
37313W        W80225   7.659   0.616   0.600 -0.0483  0.1335  0.3362
37314W        W80226   8.225   0.939  30.608 -0.1407  0.4316 -0.0680
37315W        W80227   7.613   2.778  30.308 -0.0675 -0.1985 -0.1104
37316W        W80228  11.033   0.399  30.471  0.1025 -0.0013 -0.1202
37317W        W80229  11.038   1.933  30.891  0.2677  0.3610 -0.2879
37318W        W80230   9.353   0.896  30.495 -0.2408 -0.1204 -0.1842
37319W        W80231   8.659  34.414  30.542  0.1670  0.1996 -0.3288
37320W        W80232   8.905   1.194  30.357 -0.1376 -0.0611 -0.4330
37321W        W80233   6.754   2.833  29.052  0.1298  0.0266 -0.3831
37322W        W80234   8.391   2.106  31.357 -0.2373 -0.1225  0.2551
37323W        W80235   9.750   2.422   0.304 -0.1899  0.0777 -0.0540
37324W        W80236   8.531   2.342  31.804 -0.0835 -0.1364 -0.0161
37325W        W80237   8.798  34.586  30.066 -0.1979  0.2358  0.0176
37326W        W80238  11.525   0.300  31.856  0.1301  0.0724  0.1165
37327W        W80239  10.797   0.959  31.103 -0.1975 -0.0631 -0.0108
37328W        W80240   7.640   1.219  31.925  0.2126  0.0165 -0.0595
37329W        W80241   9.506   1.730   0.811 -0.0820 -0.3316 -0.0866
37330W        W80242  10.008   1.870  31.453  0.3706 -0.0188  0.1009
37331W        W80243  11.161   1.397  31.554  0.1934  0.0519 -0.0309
37332W        W80244  10.165   1.001   0.576 -0.2605  0.0267 -0.1204
37333W        W80245   9.695   1.277   0.820  0.0349 -0.1401 -0.0312
37334W        W80246  10.483   1.176  30.453 -0.2186  0.2018 -0.1321
37335W        W80247  10.881   1.539  31.165 -0.1510 -0.1935  0.2056
37336W        W80248   8.753   0.952  29.972 -0.0291  0.0365  0.2032
37337W        W80249  10.513   3.993   0.128 -0.4638 -0.3281  0.0003
37338W        W80250   7.114   1.568  30.141 -0.0389 -0.0891  0.1426
37339W        W80251   8.395   1.471  31.430  0.1620 -0.2244 -0.0721
37340W        W80252   8.509   0.466  31.507  0.0445  0.2032 -0.0980
37341W        W80253  10.148   3.794  29.716 -0.2010 -0.0943 -0.0716
37342W        W80254  10.547   3.062   0.851 -0.1328 -0.0161  0.2891
37343W        W80255   7.291   2.060  31.258  0.1634 -0.1479 -0.0295
37344W        W80256   9.986   3.406  31.506  0.0507  0.0762  0.2481
37345W        W80257  10.165  34.340  31.118  0.2818  0.2050  0.1825
37346W        W80258   8.120  34.041  31.858  0.1712 -0.1888 -0.0294
37347W        W80259   9.682   2.226  31.111 -0.0090  0.0747  0.0648
37348W        W80260  10.060   1.414  30.251  0.0589 -0.2064  0.2090
37349W        W80261  10.575   1.960  31.173  0.1512  0.1966  0.0010
37350W        W80262   9.422   2.403  30.256 -0.0606 -0.2784  0.1994
37351W        W80263   9.349   3.312   0.426  0.2801  0.0198  0.0044
37352W        W80264   9.758   3.209  30.890  0.1488 -0.1742 -0.1699
37353W        W80265   7.862   1.982  31.412 -0.0514 -0.0723 -0.1291
37354W        W80266   6.996   1.592  31.170 -0.2724  0.1485 -0.2835
37355W        W80267   6.934   2.707  30.862  0.0190  0.1475 -0.0539
37356W        W80268   6.090   1.677  30.326  0.1732 -0.1157  0.1081
37357W        W80269   7.179  34.586  30.753 -0.1619 -0.1109 -0.1083
37358W        W80270  10.408   3.834  31.497 -0.2450 -0.0788  0.0613
37359W        W80271  10.781   2.142  30.369 -0.1812 -0.0868  0.2040
37360W        W80272  11.056   0.544  29.940 -0.0796  0.3427  0.2142
37361W        W80273   6.353   7.418  20.052 -0.0907 -0.1864  0.0781
37362W        W80274   8.465   5.028  16.518 -0.3205  0.1283  0.2673
37363W        W80275  11.135   5.156  15.754 -0.0796  0.4227 -0.2478
37364W        W80276  10.824   6.361  15.743 -0.1359 -0.2381 -0.2034
37365W        W80277   9.517   4.821  17.373  0.0699 -0.0157  0.0847
37366W        W80278   9.459   6.279  17.308 -0.1584 -0.1665 -0.1156
37367W        W80279   8.145   4.602  18.379  0.0171  0.4487 -0.0668
37368W        W80280   9.972   7.254  18.252 -0.2383 -0.3576 -0.0882
37369W        W80281  10.465   7.570  16.794  0.0343 -0.0693  0.0737
37370W        W80282   9.820   4.431  16.239 -0.1731 -0.2688  0.1381
37371W        W80283   9.734   5.259  18.962 -0.2243  0.3465 -0.1290
37372W        W80284   8.858   6.251  19.039 -0.0673  0.1743  0.2145
37373W        W80285   9.683   4.293  16.699  0.0696 -0.2571  0.0921
37374W        W80286   7.199   5.486  18.076 -0.0868  0.3709  0.2648
37375W        W80287  10.114   5.179  18.048 -0.0204 -0.0918  0.1585
37376W        W80288   7.128   6.218  17.375 -0.0685  0.1682 -0.0592
37377W        W80289   6.748   5.418  18.233 -0.2405  0.2380 -0.1300
37378W        W80290   8.843   4.687  17.965 -0.1152  0.2507  0.0074
37379W        W80291   9.424   6.970  16.501 -0.1637  0.1554 -0.0645
37380W        W80292   9.327   5.036  18.703  0.0179 -0.1795 -0.1746
37381W        W80293  10.137   3.195  19.277  0.1553 -0.0841  0.0418
37382W        W80294   9.236   7.320  15.479  0.0014 -0.2718  0.2775
37383W        W80295   7.309   5.026  16.783  0.2340 -0.0659 -0.1025
37384W        W80296   8.305   4.152  17.534  0.0474  0.1861 -0.1183
37385W        W80297   8.828   4.692  18.809 -0.1342 -0.0556 -0.2246
37386W        W80298  11.266   3.598  17.605  0.3235 -0.1310 -0.0279
37387W        W80299  10.719   5.672  17.500 -0.3602  0.1455  0.3157
37388W        W80300   8.463   6.467  18.184 -0.1504  0.2863  0.3234
37389W        W80301   8.593   5.967  18.241 -0.2562  0.0815 -0.2399
37390W        W80302  10.625   4.360  19.944 -0.0931  0.0204  0.1374
37391W        W80303   8.601   5.719  17.602 -0.0429 -0.0067  0.3605
37392W        W80304   6.267   7.983  19.371 -0.4630 -0.2802 -0.0326
37393W        W80305   8.696   7.975  17.870  0.1994  0.0850  0.0930
37394W        W80306  11.622   5.967  17.442  0.2610  0.2964  0.1651
37395W        W80307   9.289   8.048  18.294 -0.2429  0.4089  0.3501
37396W        W80308   8.913   7.165  18.862 -0.1213 -0.1179  0.1659
37397W        W80309   7.707   7.879  16.681 -0.0790  0.1672 -0.3026
37398W        W80310  10.302   7.507  17.271 -0.1166  0.1177 -0.0397
37399W        W80311   9.544   6.916  18.668  0.2948 -0.0720 -0.0760
37400W        W80312   9.406   3.800  18.948 -0.1412 -0.1671 -0.0044
37401W        W80313  10.123   4.912  16.388  0.0649  0.1938  0.1942
37402W        W80314   9.446   8.117  15.311  0.1601  0.2654  0.2946
37403W        W80315  10.400   5.846  18.937 -0.0776  0.1959  0.3585
37404W        W80316   7.709   6.107  20.372 -0.0717  0.1916  0.1925
37405W        W80317   7.280   6.936  18.477  0.1476 -0.0975 -0.1650
37406W        W80318  11.787   4.425  20.807  0.0221  0.0737 -0.3330
37407W        W80319   6.980   7.139  17.007 -0.0175  0.0346 -0.0891
37408W        W80320   9.761   7.186  15.530 -0.1826  0.2613 -0.2285
37409W        W80321   9.198   5.104  16.268 -0.0907 -0.1189  0.0432
37410W        W80322  10.535   4.408  16.700 -0.0972  0.0671  0.0315
37411W        W80323   7.768   4.013  17.823  0.2021  0.0075  0.2237
37412W        W80324   7.424   8.652  17.983  0.4147 -0.1337 -0.1131
37413W        W80325   9.094   5.510  18.327 -0.1571  0.1614 -0.0063
37414W        W80326  10.050   7.495  17.692 -0.0507 -0.4285  0.0294
37415W        W80327   8.687   6.188  17.784 -0.1429  0.1655  0.1499
37416W        W80328  10.053   5.677  19.280 -0.2328  0.1053  0.0299
37417W        W80329   9.263   6.396  19.298 -0.0190  0.0082 -0.0677
37418W        W80330   7.845   6.436  18.137  0.0373 -0.1605 -0.0031
37419W        W80331   9.923   6.856  16.924 -0.2622 -0.0828 -0.3786
37420W        W80332  10.926   7.470  17.225  0.1718 -0.0858  0.0639
37421W        W80333   8.841   7.645  15.796 -0.1079  0.0204  0.1182
37422W        W80334   8.622   5.993  16.876 -0.0027  0.0811 -0.2455
37423W        W80335   7.710   4.821  19.985  0.1789  0.0317  0.1954
37424W        W80336   8.262   4.693  19.600  0.0235 -0.0765  0.1188
37425W        W80337   8.278   4.009  16.146  0.0696 -0.0170 -0.0759
37426W        W80338  11.618   4.328  19.978  0.0571  0.1323 -0.2753
37427W        W80339   8.243   6.876  20.076 -0.2456  0.3566 -0.0352
37428W        W80340  10.658   3.493  17.004  0.0083  0.0258 -0.2130
37429W        W80341   8.535   7.029  18.412  0.1186  0.4051 -0.2888
37430W        W80342  10.347   7.504  18.642  0.0305  0.0390 -0.0676
37431W        W80343   9.664   6.262  15.777  0.2258 -0.1540  0.2734
37432W        W80344   9.464   4.272  17.400  0.2238 -0.0041  0.2221
37433W        W80345  11.107   4.477  17.957  0.4098 -0.1415 -0.0305
37434W        W80346   8.807   5.338  16.733 -0.2390  0.2683 -0.1135
37435W        W80347   8.890   6.037  16.077  0.1386 -0.3133  0.1706
37436W        W80348  10.411   6.961  17.995 -0.0929 -0.3908  0.3666
37437W        W80349  11.333   4.994  16.601 -0.0899 -0.0429 -0.0129
37438W        W80350   6.857   7.219  18.263  0.0118  0.1409 -0.2654
37439W        W80351  10.047   4.657  19.561  0.2942  0.2402  0.0933
37440W        W80352   7.963   6.091  19.917  0.2273  0.2030  0.1938
37441W        W80353   8.548   6.792  16.642 -0.0493 -0.2293 -0.0508
37442W        W80354   8.205   4.499  17.190  0.1822  0.0977  0.0873
37443W        W80355   8.105   7.095  17.522  0.1535 -0.0382 -0.0889
37444W        W80356   8.008   5.444  18.845 -0.0780  0.0808  0.1100
37445W        W80357   8.729   6.672  19.250 -0.1332 -0.1807  0.2066
37446W        W80358   9.454   4.691  16.877 -0.0384 -0.1396 -0.1980
37447W        W80359   9.332   4.218  19.206  0.0962  0.1295  0.0823
37448W        W80360  10.712   4.150  15.979 -0.2409  0.0204 -0.1176
37449W        W80361   8.649   7.331  16.723  0.1267  0.2574 -0.0232
37450W        W80362   9.235   9.372  16.665  0.2926  0.2328 -0.3168
37451W        W80363  10.069   5.558  16.246 -0.3284  0.3196 -0.3818
37452W        W80364  10.600   7.133  17.547  0.1994  0.1137 -0.1989
37453W        W80365   8.047   4.822  17.573  0.2719 -0.0920 -0.1429
37454W        W80366   8.343   4.145  16.795 -0.2505 -0.1688 -0.0147
37455W        W80367   9.703   3.416  19.041  0.2103  0.0337  0.1850
37456W        W80368   7.859   4.020  19.282  0.2709  0.2826  0.1396
37457W        W80369  10.673   5.222  18.298 -0.2090 -0.0817  0.3871
37458W        W80370   9.221   3.910  16.525  0.0139  0.0927  0.0153
37459W        W80371   9.234   6.236  17.734 -0.0674 -0.0086 -0.0562
37460W        W80372   8.762   4.114  17.269  0.2609  0.1440  0.1202
37461W        W80373   8.162   6.267  17.758 -0.1482 -0.3348  0.0223
37462W        W80374  10.454   6.016  19.529 -0.4503 -0.3218  0.1173
37463W        W80375   9.003   8.005  16.846 -0.2828  0.2491 -0.1419
37464W        W80376  10.586   6.766  19.332 -0.1614 -0.0329  0.1445
37465W        W80377   9.409   6.719  17.037  0.2792  0.2611  0.3144
37466W        W80378   9.514   4.639  19.282  0.1053  0.0649 -0.2104
37467W        W80379   9.190   4.108  16.980  0.1001 -0.0683  0.0806
37468W        W80380   8.372   8.031  17.452  0.0565 -0.1261 -0.1264
37469W        W80381   9.233   5.104  17.025 -0.3103  0.1251  0.3113
37470W        W80382   8.816   3.715  16.924 -0.3127 -0.0416 -0.0033
37471W        W80383   9.119   8.284  17.696 -0.1790  0.2403 -0.2580
37472W        W80384   9.431   6.693  17.579  0.1600 -0.1822  0.0660
37473W        W80385   9.295   4.412  18.766  0.0959  0.2784 -0.1721
37474W        W80386  11.512   3.992  17.879 -0.0308 -0.0145  0.1650
37475W        W80387  11.133   5.353  18.441 -0.0392  0.2134  0.1054
37476W        W80388  10.273   5.820  18.422  0.0079 -0.1845  0.0839
37477W        W80389   7.436   4.271  15.686  0.0669  0.4386  0.0662
37478W        W80390   8.609   8.434  17.657 -0.0914 -0.0469  0.0353
37479W        W80391   6.914   6.889  16.449 -0.0660  0.0676 -0.0513
37480W        W80392   7.844   4.266  16.940  0.2724 -0.0938  0.1776
37481W        W80393  10.014   7.356  16.908 -0.0706  0.3011  0.2470
37482W        W80394   9.189   4.684  18.374  0.2831 -0.0969  0.2746
37483W        W80395   7.715   5.290  19.293 -0.1164  0.0262  0.0153
37484W        W80396  10.671   3.923  19.650  0.2952 -0.0759 -0.2835
37485W        W80397   8.344   6.388  16.835 -0.1185  0.0887  0.1139
37486W        W80398   7.852   6.727  19.163 -0.0175  0.0842  0.1286
37487W        W80399   9.649   2.975  16.465 -0.0960  0.2736 -0.2552
37488W        W80400  11.391   5.429  16.377  0.3584 -0.3206  0.1890
37489W        W80401   8.419   6.135  18.718 -0.2553 -0.2222  0.0620
37490W        W80402  10.364   6.134  16.932  0.1133  0.0628  0.3752
37491W        W80403  10.124   5.704  16.946 -0.1498 -0.1447  0.2959
37492W        W80404   9.012   3.883  15.575 -0.1099  0.0639  0.4319
37493W        W80405   7.790   6.144  18.609 -0.0345 -0.2044  0.1288
37494W        W80406   9.610   5.528  17.078  0.0149 -0.1827 -0.1959
37495W        W80407   9.241   5.090  17.990  0.1304  0.3427 -0.4033
37496W        W80408   9.050   4.873  17.508  0.1393  0.0590 -0.1394
37497W        W80409  11.557   6.582  16.407  0.0359 -0.0217 -0.0540
37498W        W80410   7.260   6.097  18.668 -0.0293  0.5283  0.1322
37499W        W80411   9.454   6.310  20.178  0.4042  0.1186 -0.2040
37500W        W80412   9.694   6.373  17.903 -0.0117 -0.0165 -0.1242
37501W        W80413   7.783   4.605  19.476 -0.1248  0.4623 -0.1864
37502W        W80414   7.530   5.396  16.369 -0.2658  0.0040 -0.2166
37503W        W80415   9.735   3.459  17.295 -0.1462  0.5239  0.0415
37504W        W80416   7.680   7.367  16.714  0.1272 -0.1071 -0.1195
37505W        W80417   9.849   5.332  16.638  0.3043 -0.1608  0.3080
37506W        W80418  11.006   3.850  17.919 -0.1023  0.1231 -0.3514
37507W        W80419   7.269   4.085  18.519  0.1279  0.1358 -0.2143
37508W        W80420  11.705   5.693  19.564 -0.0817  0.1052  0.1459
37509W        W80421   9.860   6.099  17.478 -0.0405  0.3557 -0.0310
37510W        W80422   9.941   4.381  17.717 -0.0123  0.0338 -0.1800
37511W        W80423   6.925   4.664  17.020  0.1252  0.1469 -0.3027
37512W        W80424  10.426   3.962  19.170 -0.1187  0.1767  0.0762
37513W        W80425   8.098   5.881  19.019 -0.2307  0.3317  0.3115
37514W        W80426   8.259   7.542  17.577 -0.0933  0.0650 -0.1791
37515W        W80427   9.517   6.850  18.147  0.0639  0.0188 -0.0597
37516W        W80428   8.067   6.602  18.528  0.0364  0.0613  0.0071
37517W        W80429  10.392   4.813  19.820  0.0995  0.0061 -0.1034
37518W        W80430  10.355   3.622  16.578 -0.1172 -0.2779 -0.1401
37519W        W80431   9.467   5.986  16.924  0.1652 -0.0057  0.2793
37520W        W80432   9.570   4.844  16.402 -0.1664  0.0624  0.0623
37521W        W80433   9.535   4.063  18.481 -0.1867 -0.0933  0.2743
37522W        W80434   9.099   6.975  18.415 -0.2237  0.0005 -0.0726
37523W        W80435   9.357   6.174  16.146  0.0527  0.0389 -0.1094
37524W        W80436   9.260   6.097  18.702  0.0256  0.0328  0.0843
37525W        W80437   8.555   7.156  15.754  0.0864 -0.0456  0.0677
37526W        W80438  10.209   4.431  18.171  0.3186  0.1850  0.1050
37527W        W80439   6.949   6.529  18.498  0.2729 -0.2259 -0.1880
37528W        W80440   7.809   4.409  17.452 -0.1920 -0.3006  0.1022
37529W        W80441   8.110   5.789  17.586  0.0940 -0.2307 -0.0756
37530W        W80442   8.620   4.664  16.848 -0.1230 -0.1028 -0.1783
37531W        W80443  10.004   7.173  16.419  0.0342 -0.1633 -0.2860
37532W        W80444   7.589   5.678  18.494  0.1168  0.1490  0.2698
37533W        W80445   9.390   2.865  17.277 -0.2311  0.2952 -0.0354
37534W        W80446   7.505   5.712  19.019 -0.1261  0.1337 -0.4158
37535W        W80447  10.359   5.383  17.264 -0.2152 -0.3375 -0.0575
37536W        W80448   9.895   3.863  16.127  0.0899 -0.0108  0.0960
37537W        W80449   9.737   7.895  18.542  0.0782 -0.0545  0.0576
37538W        W80450   7.422   5.244  20.073 -0.1465  0.1437  0.2686
37539W        W80451   6.537   5.054  16.901  0.0586 -0.0235 -0.3075
37540W        W80452  11.766   4.562  17.476  0.2576 -0.1651 -0.1565
37541W        W80453   7.875   5.324  17.408  0.0916  0.0072  0.1217
37542W        W80454   6.826   7.833  17.885 -0.0348  0.1111 -0.1632
37543W        W80455  10.463   7.532  18.088 -0.4723 -0.2242 -0.0594
37544W        W80456   9.575   5.779  16.492  0.2902 -0.0657  0.1253
37545W        W80457   8.595   7.160  17.748 -0.0586 -0.4466  0.1282
37546W        W80458  10.070   6.894  19.522  0.0405 -0.1792  0.2007
37547W        W80459  10.401   5.353  18.970 -0.3602 -0.2370 -0.4629
37548W        W80460   8.360   3.787  17.163 -0.0666  0.1727 -0.1848
37549W        W80461   9.367   3.629  16.943  0.0050 -0.1311 -0.0351
37550W        W80462   8.164   6.868  18.039  0.0803 -0.2063  0.0302
37551W        W80463   9.845   4.868  17.742  0.0903  0.1761  0.2381
37552W        W80464  10.351   6.536  19.701 -0.0370  0.0079  0.0316
37553W        W80465   8.306   6.958  19.291  0.0674  0.0808  0.1048
37554W        W80466   7.458   3.337  16.982  0.2168  0.3327  0.0955
37555W        W80467  12.013   7.151  16.611 -0.0978  0.2772  0.5769
37556W        W80468   7.763   6.698  20.074  0.1279  0.0234  0.2233
37557W        W80469   9.083   6.304  16.962 -0.0906 -0.0272  0.1333
37558W        W80470   7.853   5.417  16.920 -0.0105  0.0591 -0.1863
37559W        W80471   8.680   5.074  17.167 -0.0037 -0.0085  0.0594
37560W        W80472   9.212   3.364  17.364  0.1483 -0.1252 -0.1665
37561W        W80473   9.022   5.443  17.447  0.2186  0.3235 -0.0240
37562W        W80474   9.073   6.485  16.454 -0.0138  0.1971 -0.1113
37563W        W80475   7.387   6.604  18.161  0.0152  0.1003  0.2084
37564W        W80476  11.190   3.546  15.620  0.3844 -0.2560 -0.1406
37565W        W80477   9.242   5.864  15.805 -0.0230 -0.1234  0.4085
37566W        W80478  10.357   5.306  16.733  0.1078  0.1381 -0.0274
37567W        W80479  12.010   4.189  17.927 -0.0855  0.0046 -0.0182
37568W        W80480  10.292   5.875  17.402  0.0703 -0.2690 -0.0784
37569W        W80481   9.805   3.227  19.608  0.0157  0.1135 -0.2833
37570W        W80482   8.345   4.884  17.976 -0.2428 -0.0550  0.0391
37571W        W80483   9.561   7.341  17.929 -0.0700 -0.0588 -0.3157
37572W        W80484   5.887   5.716  20.175  0.2308 -0.2528 -0.0985
37573W        W80485   8.917   6.756  20.668 -0.1764 -0.2397  0.0546
37574W        W80486   8.200   4.177  19.553  0.0513 -0.1269  0.1302
37575W        W80487   9.880   3.261  16.823 -0.0378 -0.2930 -0.2561
37576W        W80488   7.903   2.580  15.373 -0.3325  0.3319  0.0620
37577W        W80489   9.398   5.835  17.426 -0.1580 -0.1062  0.0337
37578W        W80490   9.228   6.041  18.222  0.0783 -0.0789 -0.0113
37579W        W80491  10.841   6.152  17.664  0.4883  0.0388  0.1818
37580W        W80492  10.260   6.511  16.556 -0.0441 -0.0382 -0.0425
37581W        W80493   8.829   5.853  18.708  0.0409  0.2131 -0.1849
37582W        W80494   9.019   6.922  17.880  0.1093  0.1354  0.0376
37583W        W80495   9.794   6.221  16.293  0.1922  0.1288 -0.0028
37584W        W80496   8.113   5.889  17.017 -0.1772 -0.0297  0.1698
37585W        W80497   6.937   3.937  18.862  0.0494  0.0957  0.3096
37586W        W80498   9.668   5.754  17.844 -0.0242  0.4070  0.1595
37587W        W80499  10.017   4.643  16.763 -0.0515 -0.0222 -0.0352
37588W        W80500  10.126   5.356  18.520  0.0896  0.0760 -0.1814
37589W        W80501  11.282   5.819  18.272 -0.0268 -0.3688 -0.0426
37590W        W80502   8.432   4.972  18.760  0.2111  0.0714 -0.0558
37591W        W80503   9.494   5.098  19.718 -0.1089 -0.1797 -0.2924
37592W        W80504   9.782   7.204  19.829  0.0850 -0.0249 -0.1424
37593W        W80505  10.924   5.427  16.134  0.1409 -0.0142  0.2408
37594W        W80506  11.266   3.682  18.604 -0.1352 -0.1738  0.1818
37595W        W80507  10.298   4.702  17.621 -0.1044  0.1424 -0.3136
37596W        W80508   9.404   4.042  16.063 -0.1836 -0.1864  0.0687
37597W        W80509   7.449   5.270  17.636 -0.1256 -0.1677 -0.2005
37598W        W80510   9.302   5.097  19.182 -0.0445  0.0201  0.2705
37599W        W80511   8.356   4.511  15.939  0.3373  0.3193 -0.0095
37600W        W80512  10.978   5.516  17.999 -0.1813 -0.0905 -0.0568
37601W        W80513   8.563   8.006  15.664  0.0276  0.1787 -0.2068
37602W        W80514   8.933   6.042  17.358  0.0220 -0.1916  0.1102
37603W        W80515  10.550   5.646  16.479  0.2913  0.3198 -0.1312
37604W        W80516   6.388   4.613  18.364  0.6216  0.1909 -0.3963
37605W        W80517   7.205   5.939  21.131  0.2247  0.0247 -0.0467
37606W        W80518   8.299   5.484  16.634 -0.1500 -0.0839 -0.0309
37607W        W80519   9.767   6.730  16.263 -0.1855  0.2575 -0.0418
37608W        W80520  10.627   6.182  18.597  0.2003 -0.3381 -0.1750
37609W        W80521  10.723   6.267  19.097  0.0566  0.0385 -0.0455
37610W        W80522   9.914   3.742  15.215 -0.0039 -0.0384  0.0126
37611W        W80523  10.716   4.939  16.538  0.3444 -0.0628 -0.0542
37612W        W80524   7.603   6.187  17.589  0.0221 -0.2058 -0.0301
37613W        W80525   9.998   4.285  19.204 -0.1928  0.0337  0.0794
37614W        W80526   9.038   7.431  18.094  0.0474 -0.1618  0.3459
37615W        W80527   7.347   5.594  19.589  0.1521 -0.0439 -0.2287
37616W        W80528   9.714   7.144  17.415  0.1028  0.0573  0.0232
37617W        W80529  10.854   3.890  18.760  0.3157  0.0187 -0.0811
37618W        W80530   8.813   3.840  17.725  0.1591 -0.1522  0.3414
37619W        W80531   9.472   4.149  17.943 -0.2494  0.2152 -0.2370
37620W        W80532  11.719   4.342  18.507 -0.4515 -0.0965 -0.3361
37621W        W80533  10.180   6.928  20.019  0.1083 -0.0332 -0.1327
37622W        W80534   8.005   7.372  18.472  0.0547  0.1481 -0.3366
37623W        W80535   9.499   7.803  16.896  0.0053 -0.0074  0.1977
37624W        W80536  10.902   5.080  17.111 -0.0196  0.0147 -0.2398
37625W        W80537   9.341   7.800  17.855 -0.3116  0.0228  0.0995
37626W        W80538   7.885   3.179  20.510  0.2885 -0.1634 -0.0395
37627W        W80539   7.463   5.597  20.873  0.1636  0.1503  0.3668
37628W        W80540   9.293   5.593  18.930  0.0785  0.1084  0.0435
37629W        W80541   9.598   3.463  17.878  0.0060 -0.3054 -0.0164
37630W        W80542  10.130   6.452  16.023  0.1053  0.0027  0.0113
37631W        W80543   7.472   7.448  21.389 -0.2581  0.2063 -0.1635
37632W        W80544   6.156   5.030  18.979 -0.3142  0.0560  0.7011
37633W        W80545   9.113   7.030  17.305  0.3546  0.0596 -0.0961
37634W        W80546  10.044   5.543  15.678 -0.1246 -0.1441  0.0408
37635W        W80547  11.129   5.763  17.149  0.0238  0.2374  0.1046
37636W        W80548   8.917   8.520  16.745 -0.2692 -0.1451  0.4055
37637W        W80549   9.211   5.653  16.220  0.1452  0.2808  0.2530
37638W        W80550   7.037   8.595  18.345  0.0243  0.0768 -0.0702
37639W        W80551   6.412   5.484  17.480  0.0142 -0.1646 -0.0594
37640W        W80552   9.533   6.429  16.632  0.1439 -0.1995 -0.4182
37641W        W80553   9.302   7.375  17.566  0.1129 -0.1068  0.0967
37642W        W80554  10.523   7.600  20.386  0.3017 -0.1174  0.0560
37643W        W80555  10.463   3.306  15.651  0.2217  0.4410 -0.2420
37644W        W80556   9.849   6.556  17.423  0.1658 -0.1199  0.2039
37645W        W80557  11.422   4.895  17.075 -0.1796  0.3684  0.1629
37646W        W80558   8.830   8.414  18.372 -0.2981  0.1081 -0.0137
37647W        W80559   8.790   5.280  17.889 -0.2135 -0.2971  0.0152
37648W        W80560   9.020   4.562  17.148 -0.2222  0.0902 -0.1473
37649W        W80561   8.145   5.754  18.506 -0.0695  0.0473 -0.1746
37650W        W80562  10.364   3.673  20.871  0.2004  0.1104 -0.1649
37651W        W80563   6.891   6.255  19.546 -0.1138  0.1314 -0.0476
37652W        W80564  10.106   7.691  16.404 -0.3080  0.0162 -0.0588
37653W        W80565   8.893   4.279  16.618  0.1555  0.3144 -0.1797
37654W        W80566   9.095   5.681  16.998 -0.2656  0.0033  0.1193
37655W        W80567  10.825   4.370  18.542  0.1833  0.2562  0.1065
37656W        W80568  10.493   4.605  16.215  0.1871  0.0732 -0.0343
37657W        W80569   9.997   4.282  18.598 -0.5486  0.0721  0.1463
37658W        W80570   8.152   7.540  16.601  0.0046 -0.0552 -0.2155
37659W        W80571   7.976   7.392  17.955 -0.0909 -0.1697  0.1464
37660W        W80572   8.804   7.944  18.420 -0.3334 -0.0616 -0.0210
37661W        W80573   6.676   3.658  16.449 -0.0778  0.0518  0.0876
37662W        W80574  10.481   6.062  16.103  0.2291 -0.0401 -0.0594
37663W        W80575   9.855   3.620  19.928 -0.0387  0.2576 -0.0870
37664W        W80576  10.698   4.214  18.083  0.1591  0.1005  0.1145
37665W        W80577   8.339   5.264  17.562  0.0689 -0.1400  0.1481
37666W        W80578   9.518   5.268  17.544 -0.3784 -0.1879 -0.1619
37667W        W80579   9.692   4.548  18.208  0.0905  0.2287 -0.0659
37668W        W80580   8.600   5.846  19.214 -0.3929 -0.2065 -0.0940
37669W        W80581  10.988   4.673  16.122  0.0008 -0.0098  0.1747
37670W        W80582  10.157   6.196  18.109 -0.1983 -0.1892 -0.1945
37671W        W80583  10.075   4.421  15.418  0.0367  0.1690  0.1315
37672W        W80584   9.777   7.620  17.264  0.0112  0.1104 -0.2553
37673W        W80585   6.851   3.113  17.540 -0.1355 -0.3109 -0.1113
37674W        W80586  10.490   3.309  16.172  0.1694  0.0083 -0.3422
37675W        W80587   7.663   5.715  17.781 -0.4278  0.1821 -0.0311
37676W        W80588   8.583   5.449  18.479 -0.1016  0.2091  0.0198
37677W        W80589   8.962   8.797  17.480  0.1020 -0.2210 -0.2224
37678W        W80590   8.230   3.841  17.993  0.0357  0.1755 -0.3730
37679W        W80591  11.282   4.418  16.843 -0.0666 -0.0767 -0.1349
37680W        W80592   9.949   5.421  17.515 -0.0264 -0.0899 -0.1004
37681W        W80593   8.090   6.911  16.521  0.4361 -0.0355  0.3294
37682W        W80594  10.141   5.990  16.503  0.1030  0.1130 -0.1029
37683W        W80595  10.180   6.974  17.366  0.0472  0.2165  0.0615
37684W        W80596   8.107   4.457  20.477 -0.0221  0.1154  0.0936
37685W        W80597  11.756   8.182  18.217 -0.0750 -0.0554 -0.1081
37686W        W80598  11.147   7.576  18.187 -0.0372  0.1513 -0.0397
37687W        W80599   7.943   3.781  16.760  0.4898  0.2921  0.2537
37688W        W80600   8.116   4.630  16.654 -0.2673  0.3211 -0.2178
37689W        W80601   6.714   7.091  19.143  0.2671 -0.1205 -0.1123
37690W        W80602   9.373   4.666  17.821 -0.1735  0.1361  0.2823
37691W        W80603   9.655   5.540  18.388 -0.2451 -0.4155  0.1508
37692W        W80604   8.559   6.310  16.425 -0.1384  0.1013  0.1449
37693W        W80605  12.984   3.604  19.681 -0.0439 -0.0506  0.2005
37694W        W80606   9.014   6.590  18.731  0.3842  0.0742  0.2223
37695W        W80607   8.731   7.105  20.183 -0.2285 -0.2914 -0.0245
37696W        W80608   6.437   6.732  16.763  0.0508  0.0386  0.2108
37697W        W80609   7.399   6.572  19.342 -0.0923 -0.0455 -0.0144
37698W        W80610   8.998   5.792  17.838  0.1763  0.0835  0.0147
37699W        W80611   8.622   6.695  16.040  0.0357  0.1645  0.0433
37700W        W80612   9.010   6.565  17.449 -0.0573 -0.1063 -0.0235
37701W        W80613   9.019   4.784  16.579 -0.2069 -0.4342  0.1847
37702W        W80614  10.500   6.573  18.301  0.1009  0.4036 -0.1259
37703W        W80615   9.088   3.390  17.833  0.0251 -0.1352  0.0461
37704W        W80616  10.151   4.114  16.888 -0.1231  0.2887  0.2147
37705W        W80617   9.169   3.156  16.121  0.2401 -0.0591 -0.2691
37706W        W80618   7.571   4.718  17.747 -0.2032  0.2675 -0.2928
37707W        W80619   6.892   5.085  16.514 -0.0775 -0.1316  0.0123
37708W        W80620   8.469   6.260  17.338 -0.1580 -0.0494 -0.1032
37709W        W80621   7.741   6.959  18.329  0.1757 -0.1143 -0.2927
37710W        W80622   8.560   3.931  19.843 -0.0216  0.0581 -0.3055
37711W        W80623   8.334   4.356  20.026  0.1982 -0.0527  0.2487
37712W        W80624   7.849   6.478  19.657 -0.2702  0.1094 -0.2708
37713W        W80625   9.058   3.416  16.603  0.0746  0.0366  0.0302
37714W        W80626  10.911   6.193  17.008 -0.3571 -0.3018 -0.1160
37715W        W80627   9.243   3.753  18.230  0.1990  0.1054  0.1280
37716W        W80628   7.487   3.825  16.461  0.3591  0.5123 -0.0010
37717W        W80629   9.077   6.000  16.546  0.2434  0.5395 -0.0684
37718W        W80630  10.342   6.395  17.628  0.1307 -0.2642  0.0647
37719W        W80631   9.756   3.758  16.647  0.2494 -0.2166  0.3067
37720W        W80632  10.315   6.965  18.469  0.2152 -0.1208 -0.2865
37721W        W80633   7.783   6.436  16.624  0.4586  0.2154  0.1090
37722W        W80634  10.578   4.993  20.720 -0.2344  0.2241  0.0616
37723W        W80635   8.867   3.977  19.116  0.0275 -0.0264  0.2007
37724W        W80636   7.125   3.714  17.395  0.3035  0.0393  0.2655
37725W        W80637   9.911   3.968  18.177  0.3326  0.0186  0.1585
37726W        W80638   9.059   6.525  18.222 -0.0006  0.3453  0.0837
37727W        W80639   9.629   7.506  16.466  0.1263  0.1714  0.1808
37728W        W80640   8.925   5.238  18.803  0.0512 -0.2332  0.2899
37729W        W80641   8.077   8.348  17.732  0.0910 -0.3334  0.0690
37730W        W80642   7.517   3.747  19.936 -0.1077  0.2402 -0.1011
37731W        W80643   9.876   6.309  17.003 -0.2744  0.1993  0.1370
37732W        W80644   9.117   5.907  19.306  0.0115 -0.1222  0.1288
37733W        W80645  10.993   5.956  16.219 -0.1236 -0.2676 -0.2283
37734W        W80646  10.266   3.962  17.403  0.0797 -0.1209  0.1420
37735W        W80647   9.011   4.367  17.625  0.1306  0.0128  0.0944
37736W        W80648   8.500   3.250  19.152  0.1728 -0.1245 -0.1894
37737W        W80649   7.538   6.624  18.714 -0.1472 -0.0482 -0.0014
37738W        W80650  10.164   6.238  18.692 -0.2752  0.0288  0.1324
37739W        W80651   7.339   4.169  17.474  0.0802 -0.2238  0.1229
37740W        W80652  10.001   3.359  16.315 -0.3346  0.1748 -0.0622
37741W        W80653  10.411   7.099  16.907 -0.4099 -0.3011 -0.2569
37742W        W80654   8.792   5.022  18.325  0.0328 -0.0945  0.0418
37743W        W80655   9.281   4.504  16.259 -0.0547 -0.2384  0.0209
37744W        W80656   8.287   6.357  19.181  0.1582 -0.2180  0.1288
37745W        W80657   9.698   5.032  18.303  0.0650  0.1802 -0.1458
37746W        W80658  11.245   5.434  19.740  0.1626  0.3002  0.2573
37747W        W80659   9.361   5.371  16.639  0.0319  0.1299 -0.2119
37748W        W80660  11.698   6.332  15.958 -0.2451 -0.1002  0.0671
37749W        W80661   9.352   8.087  18.810  0.2365  0.2725 -0.1046
37750W        W80662  11.324   7.425  19.484 -0.0418 -0.0740  0.0185
37751W        W80663   8.456   8.793  18.395 -0.0885 -0.2786  0.4123
37752W        W80664  10.168   5.693  17.966 -0.2062 -0.3108  0.0049
37753W        W80665   8.497   4.344  17.946 -0.1016 -0.2755 -0.2940
37754W        W80666   7.922   5.062  16.563 -0.1513  0.3172  0.4432
37755W        W80667   8.530   5.575  17.089  0.1530  0.1887 -0.0015
37756W        W80668   9.755   6.010  18.324 -0.2312  0.0144  0.0084
37757W        W80669   7.994   5.965  18.100 -0.1444  0.2518  0.1627
37758W        W80670   9.325   2.684  16.068 -0.0634 -0.0464 -0.1793
37759W        W80671   8.272   7.423  19.614  0.0393  0.0620 -0.1063
37760W        W80672  10.584   6.647  18.831  0.1750 -0.0723 -0.1478
37761W        W80673   7.912   6.571  22.415 -0.1008 -0.3852  0.4014
37762W        W80674   9.100   5.030  21.111  0.0929  0.1051  0.1801
37763W        W80675  10.437   4.410  18.920  0.1375 -0.3004  0.1895
37764W        W80676  10.234   5.323  20.968 -0.0998  0.0451  0.0048
37765W        W80677   8.167   3.020  20.127 -0.0766 -0.2899 -0.2223
37766W        W80678   9.405   6.643  20.679 -0.2566  0.0623  0.0232
37767W        W80679   9.138   3.734  24.030 -0.1761 -0.0916 -0.0388
37768W        W80680  11.334   6.693  22.594  0.2379 -0.3897 -0.2346
37769W        W80681  11.231   7.894  22.817  0.3392  0.1638  0.1092
37770W        W80682   8.504   6.079  20.038 -0.3710 -0.1468 -0.1653
37771W        W80683  10.100   4.311  22.124 -0.1454  0.0178  0.1430
37772W        W80684   9.192   7.603  23.302  0.2744 -0.1165 -0.0887
37773W        W80685   8.390   3.144  20.596  0.0279  0.0932  0.1395
37774W        W80686   7.093   4.083  22.028  0.1391  0.3004  0.4000
37775W        W80687  10.121   5.179  23.383 -0.3346  0.1799  0.2739
37776W        W80688   8.963   4.232  20.792  0.1552 -0.0355  0.0122
37777W        W80689   9.266   3.973  23.562  0.4169  0.1098 -0.0644
37778W        W80690  10.288   5.945  22.210 -0.2403  0.1639 -0.3104
37779W        W80691  11.274   7.165  21.307  0.1707 -0.0747  0.0483
37780W        W80692   9.126   5.460  22.226 -0.3190  0.0230  0.1492
37781W        W80693   9.736   1.829  23.184 -0.0074 -0.1048  0.4307
37782W        W80694   8.157   6.781  20.975  0.0728  0.0227  0.1081
37783W        W80695   8.442   5.413  19.029  0.1987  0.0688 -0.4773
37784W        W80696   8.438   4.361  20.861 -0.2263 -0.2802 -0.1518
37785W        W80697   8.604   5.201  23.771 -0.1599  0.0665  0.1505
37786W        W80698  10.642   5.598  21.095  0.1331 -0.1479 -0.1967
37787W        W80699   9.899   5.942  20.228  0.0379  0.3686 -0.3346
37788W        W80700   8.897   6.067  20.950 -0.0787  0.0460 -0.2306
37789W        W80701   8.323   6.069  21.426 -0.0657  0.2886  0.2772
37790W        W80702  10.895   4.574  23.674 -0.1181 -0.0026 -0.0008
37791W        W80703   7.661   4.779  21.281 -0.1194  0.1368 -0.0986
37792W        W80704   7.184   8.333  23.287 -0.2057  0.4773 -0.1783
37793W        W80705   9.463   6.915  19.528 -0.0325  0.1084  0.1722
37794W        W80706  11.505   8.172  19.955 -0.0031  0.2244  0.0611
37795W        W80707  11.944   7.156  22.386  0.1302  0.0559 -0.2231
37796W        W80708   9.437   7.123  23.308 -0.6051 -0.1196 -0.1348
37797W        W80709   7.306   6.420  20.387 -0.0166 -0.1159 -0.0018
37798W        W80710  10.814   7.250  22.282 -0.1969 -0.2700  0.3218
37799W        W80711  10.067   6.744  23.968 -0.2124  0.2955 -0.2724
37800W        W80712  10.005   5.817  24.843 -0.0973  0.2392  0.1849
37801W        W80713   8.284   6.036  19.573 -0.1629  0.2580  0.2274
37802W        W80714   9.213   6.424  21.087 -0.1485  0.0274 -0.1800
37803W        W80715   8.641   6.467  21.007  0.4798  0.1403  0.2343
37804W        W80716   9.472   6.440  23.679  0.0350  0.0371 -0.1841
37805W        W80717   7.413   6.183  22.365 -0.1399  0.1539 -0.0677
37806W        W80718  11.625   5.906  22.840  0.0101 -0.1478  0.1440
37807W        W80719   7.748   7.612  20.942 -0.1258  0.2457  0.1792
37808W        W80720   9.744   4.712  18.846  0.0505  0.1587 -0.0550
37809W        W80721  10.081   5.188  19.473 -0.0711  0.2309 -0.2236
37810W        W80722  11.044   5.107  19.369 -0.2780 -0.0716  0.0028
37811W        W80723   9.389   3.752  20.832 -0.0223  0.2306  0.2311
37812W        W80724   7.924   6.164  22.171  0.0121 -0.1283 -0.0142
37813W        W80725   9.068   5.694  24.446 -0.0480 -0.1999 -0.0946
37814W        W80726  11.107   7.347  22.702  0.0748 -0.1339  0.1818
37815W        W80727   9.459   5.542  19.381 -0.1412 -0.0658  0.1579
37816W        W80728   9.482   3.555  22.468 -0.3039  0.5364  0.2057
37817W        W80729   9.360   7.701  22.324  0.2157  0.0264  0.2526
37818W        W80730   8.712   5.135  21.423 -0.1297 -0.0916 -0.0918
37819W        W80731   9.017   8.634  19.293 -0.0748  0.5206  0.2229
37820W        W80732  10.123   7.239  21.595 -0.0991  0.1580  0.2954
37821W        W80733   8.070   7.516  20.480  0.1727  0.0186 -0.2098
37822W        W80734   8.800   5.088  20.350  0.0341  0.0365 -0.1054
37823W        W80735   8.295   5.590  22.982  0.0534 -0.0295  0.1004
37824W        W80736   8.143   5.213  23.569  0.0328 -0.1769  0.0005
37825W        W80737   8.934   4.036  18.606 -0.0121 -0.0588  0.3856
37826W        W80738  11.792   5.403  24.569  0.0732  0.0017  0.1148
37827W        W80739   9.368   6.433  22.565  0.0918 -0.1335  0.0681
37828W        W80740  11.115   3.643  20.855  0.1307 -0.3329  0.0895
37829W        W80741  10.856   6.407  23.030  0.1986 -0.4147 -0.1124
37830W        W80742  11.696   6.694  22.211 -0.1176 -0.3479  0.0809
37831W        W80743   8.543   7.888  18.913 -0.1644  0.2490 -0.3342
37832W        W80744  10.254   4.726  21.696  0.0118  0.2181 -0.0050
37833W        W80745   9.798   3.556  21.683 -0.0752  0.2394  0.0859
37834W        W80746   9.367   5.847  19.772  0.4633  0.3689 -0.0350
37835W        W80747   8.712   5.699  21.272 -0.0158  0.2095 -0.1737
37836W        W80748  10.668   5.855  23.123  0.2878 -0.0704  0.0740
37837W        W80749  10.911   5.602  20.215  0.2636 -0.2130  0.0832
37838W        W80750   7.697   5.999  21.361  0.1138  0.0935 -0.0315
37839W        W80751   9.896   4.763  23.767 -0.1938 -0.0508  0.3289
37840W        W80752   9.790   8.301  23.982  0.1299 -0.1990  0.4347
37841W        W80753   8.554   7.426  19.191  0.1552 -0.3454 -0.2504
37842W        W80754   7.998   5.799  21.700 -0.0264 -0.2707 -0.1773
37843W        W80755   7.174   5.220  20.539  0.3185 -0.1094  0.0527
37844W        W80756   9.191   4.574  21.945  0.2422 -0.2608 -0.0772
37845W        W80757   9.808   6.733  22.722 -0.0846  0.2236 -0.3457
37846W        W80758  10.935   4.669  19.629  0.0085  0.3097  0.1234
37847W        W80759   8.259   3.725  23.128  0.0866 -0.1650 -0.4708
37848W        W80760  10.939   3.371  22.184  0.1981  0.2989 -0.0602
37849W        W80761   8.316   6.248  20.683  0.0579 -0.1987 -0.0756
37850W        W80762  10.147   7.263  20.584  0.1128  0.1026 -0.2751
37851W        W80763  11.475   5.390  19.238 -0.1306  0.1195  0.3143
37852W        W80764  10.105   6.717  18.978 -0.0643 -0.1053  0.0009
37853W        W80765   9.537   5.163  22.330 -0.1076  0.0025  0.0718
37854W        W80766   8.296   5.638  19.971 -0.0330  0.1204  0.2216
37855W        W80767   8.148   4.540  23.345 -0.1957 -0.2233  0.0177
37856W        W80768   9.079   4.709  23.176 -0.0697 -0.4582 -0.1844
37857W        W80769  10.157   4.869  22.930 -0.1419 -0.1024 -0.1373
37858W        W80770   7.369   5.089  19.609  0.0989  0.0041  0.1879
37859W        W80771  10.131   4.677  20.782  0.4042 -0.0463  0.2091
37860W        W80772   9.040   4.953  19.613 -0.0773 -0.0615  0.1301
37861W        W80773   6.956   5.591  20.775 -0.2257  0.1869  0.1116
37862W        W80774  10.477   3.183  22.025  0.3222  0.1870  0.3280
37863W        W80775   9.627   6.809  20.020 -0.0691 -0.3000  0.2808
37864W        W80776  11.990   7.445  23.459  0.3786  0.0905  0.2440
37865W        W80777  10.892   6.707  21.831  0.1241  0.1121  0.1525
37866W        W80778   8.892   4.059  23.036 -0.3141  0.0364  0.2230
37867W        W80779   9.636   4.765  20.877  0.0085 -0.0306  0.7314
37868W        W80780   7.249   7.585  22.212  0.2688  0.1655 -0.1254
37869W        W80781   9.977   7.486  21.132  0.1537 -0.3064 -0.0073
37870W        W80782   9.391   3.478  20.307 -0.2662  0.0253  0.1439
37871W        W80783   9.729   6.594  21.045  0.2444  0.0252  0.1631
37872W        W80784   8.774   5.711  20.221  0.1058 -0.2365 -0.0631
37873W        W80785   9.661   5.972  22.682 -0.1479  0.0060  0.2583
37874W        W80786  11.010   4.203  24.591 -0.4187 -0.1634  0.0388
37875W        W80787  13.157   5.536  21.932  0.0426 -0.2681  0.1077
37876W        W80788  10.483   5.808  21.638 -0.1122  0.1268 -0.0127
37877W        W80789   8.255   4.842  20.164 -0.1750 -0.3754 -0.1157
37878W        W80790  11.414   6.858  21.757 -0.5447 -0.2839 -0.2117
37879W        W80791   7.044   6.734  21.366 -0.1688 -0.2792  0.1064
37880W        W80792   9.182   5.953  21.401 -0.1452  0.2636 -0.0076
37881W        W80793   9.015   6.179  19.935 -0.1104  0.0091 -0.0584
37882W        W80794  11.442   5.014  20.986  0.3328  0.0009  0.2377
37883W        W80795   8.143   3.877  22.676 -0.4928 -0.0073 -0.4511
37884W        W80796  10.914   5.181  22.930  0.1459  0.1210  0.0428
37885W        W80797   7.961   6.323  21.134  0.1176 -0.0167 -0.0252
37886W        W80798   7.514   6.276  21.899  0.0031 -0.4664 -0.2120
37887W        W80799   8.685   3.459  21.848  0.3403  0.2009  0.4931
37888W        W80800  10.202   4.840  18.992  0.0377 -0.2108  0.0563
37889W        W80801  10.310   5.932  24.233 -0.3890  0.1988 -0.1476
37890W        W80802  10.822   6.665  20.533 -0.4021 -0.1440  0.3515
37891W        W80803  10.815   4.681  17.509 -0.3088 -0.4596 -0.2973
37892W        W80804  10.418   2.809  21.082  0.0002  0.0302  0.3306
37893W        W80805   8.087   6.817  22.982  0.1588  0.1395  0.1935
37894W        W80806   9.384   6.744  21.512 -0.3837  0.0869 -0.2129
37895W        W80807   7.958   5.958  20.781 -0.0890 -0.0482 -0.0381
37896W        W80808   8.727   5.803  19.705 -0.2681 -0.0005 -0.4143
37897W        W80809  10.971   6.361  19.853  0.2103  0.3658  0.0627
37898W        W80810   7.857   4.202  21.711  0.1140  0.0079  0.2174
37899W        W80811   9.690   5.639  25.259  0.1779 -0.1804 -0.4894
37900W        W80812   9.204   5.640  20.753  0.0271 -0.2520  0.2127
37901W        W80813   9.519   4.686  22.315 -0.2806 -0.0836  0.0795
37902W        W80814   7.984   5.308  20.263 -0.0303  0.2580 -0.0520
37903W        W80815   9.607   3.864  21.293 -0.0893  0.1239  0.1096
37904W        W80816   6.313   7.109  18.348 -0.0686 -0.0387  0.2805
37905W        W80817  11.161   6.012  21.665  0.1952 -0.0052 -0.0837
37906W        W80818   7.230   3.633  22.095  0.1797  0.1029 -0.0293
37907W        W80819   9.900   3.304  22.711  0.0839 -0.0005  0.1660
37908W        W80820  10.302   5.866  22.809 -0.1939 -0.0439 -0.2138
37909W        W80821  11.188   4.232  19.666  0.3106  0.0045 -0.0832
37910W        W80822  10.081   5.688  21.326  0.3279 -0.1174  0.2698
37911W        W80823   8.724   4.987  19.209 -0.0502  0.1941 -0.0644
37912W        W80824   9.917   4.420  23.104 -0.1620 -0.0091  0.0481
37913W        W80825   9.161   6.136  22.956 -0.1793  0.2824  0.0632
37914W        W80826   8.464   6.676  22.595 -0.3167  0.1671  0.0376
37915W        W80827  10.794   6.967  22.795  0.0118  0.1851  0.2585
37916W        W80828   8.846   6.291  20.465 -0.2034  0.1572  0.0577
37917W        W80829  10.396   4.767  23.697  0.4376  0.2631 -0.0311
37918W        W80830   8.865   2.831  21.378 -0.1108  0.1388  0.0043
37919W        W80831   7.330   7.782  20.218  0.0706  0.2190  0.1472
37920W        W80832   9.327   5.751  20.297 -0.2422 -0.1760  0.1758
37921W        W80833  10.308   3.612  22.874 -0.1525  0.0133 -0.4070
37922W        W80834  10.024   6.978  20.954 -0.1331 -0.1404 -0.2076
37923W        W80835   8.407   6.765  20.552  0.0045  0.3575  0.2321
37924W        W80836   9.884   6.343  22.411  0.1713 -0.0399  0.0993
37925W        W80837   7.364   6.414  21.463  0.0727  0.1949 -0.2347
37926W        W80838   9.726   4.356  20.531 -0.0333  0.1491  0.0253
37927W        W80839   6.055   7.507  21.922  0.0639  0.4148 -0.3147
37928W        W80840   9.974   5.036  19.988  0.0172 -0.2902  0.3195
37929W        W80841   6.701   4.910  20.890 -0.0525 -0.2106  0.0398
37930W        W80842  10.906   4.329  22.045  0.0231  0.2029 -0.1579
37931W        W80843  11.206   5.054  20.212  0.4269 -0.0236  0.0781
37932W        W80844   8.514   4.535  22.843  0.1435 -0.0237  0.1524
37933W        W80845   9.555   4.421  23.533 -0.3340  0.1105  0.0714
37934W        W80846   7.555   7.362  23.589 -0.2194  0.1226  0.0879
37935W        W80847  10.313   4.824  21.197  0.1924 -0.2126  0.0033
37936W        W80848   8.648   4.368  19.545  0.0571  0.2312 -0.2338
37937W        W80849  11.545   6.230  20.967 -0.1433  0.1403 -0.1638
37938W        W80850   8.835   6.266  23.332 -0.0706 -0.1378 -0.0978
37939W        W80851   8.076   4.565  21.485 -0.1511 -0.3898 -0.1316
37940W        W80852  11.377   4.454  22.164 -0.4927 -0.0196  0.1326
37941W        W80853   9.868   4.562  21.327  0.2391  0.0335 -0.0562
37942W        W80854   6.808   5.322  21.198 -0.1953 -0.0974 -0.0407
37943W        W80855  11.529   5.895  21.308  0.0146  0.1214 -0.2653
37944W        W80856   9.507   4.453  20.051  0.0226  0.1049  0.0707
37945W        W80857   8.473   5.892  21.907  0.0101 -0.1244  0.1857
37946W        W80858   9.872   5.013  24.258  0.0323 -0.5322 -0.1670
37947W        W80859  10.084   5.665  21.851  0.1444  0.2228  0.0298
37948W        W80860   9.433   6.397  22.061  0.1315 -0.0334 -0.0512
37949W        W80861   8.181   5.130  21.261 -0.2056  0.1273  0.3010
37950W        W80862  10.227   6.400  21.960  0.0871 -0.0690  0.0889
37951W        W80863  10.647   5.682  22.531 -0.0702  0.0881 -0.1168
37952W        W80864   9.742   3.817  22.872 -0.0306 -0.0850 -0.0369
37953W        W80865   8.674   7.289  23.444 -0.0063  0.0522 -0.3138
37954W        W80866   9.149   2.778  21.861  0.2008 -0.1201  0.0389
37955W        W80867  10.501   6.057  21.175  0.1292  0.1544 -0.1098
37956W        W80868   8.965   3.472  23.622  0.1349 -0.1073  0.2919
37957W        W80869   7.803   6.549  20.574  0.3365 -0.0515  0.2913
37958W        W80870   8.689   5.294  23.261  0.2814  0.2343 -0.3270
37959W        W80871   8.759   6.312  19.548  0.2495 -0.2558  0.3281
37960W        W80872  10.524   4.686  22.118  0.0501 -0.0250  0.3499
37961W        W80873  10.480   7.020  21.894 -0.0475 -0.1902 -0.1165
37962W        W80874   6.940   6.156  20.073 -0.1067 -0.1367  0.0064
37963W        W80875   8.429   6.242  22.243 -0.2955 -0.0542 -0.6244
37964W        W80876  11.298   3.683  20.365 -0.1066  0.1638 -0.1930
37965W        W80877   9.723   6.583  19.248  0.0886 -0.0924  0.0343
37966W        W80878   9.888   5.137  21.394 -0.0555 -0.1793 -0.1054
37967W        W80879  12.124   5.801  22.940 -0.1229  0.1814  0.4315
37968W        W80880  10.149   5.539  20.472 -0.0870  0.0155  0.0926
37969W        W80881  10.756   3.887  23.658 -0.3606  0.1405 -0.2721
37970W        W80882   9.423   4.216  23.064 -0.1592 -0.5334  0.1929
37971W        W80883  11.146   6.953  20.265 -0.1687  0.0052 -0.3413
37972W        W80884   7.585   4.325  23.246  0.1188 -0.1671  0.0234
37973W        W80885   9.532   7.895  24.005  0.1668  0.2800  0.0497
37974W        W80886   9.872   5.515  22.791  0.2074 -0.1585  0.1707
37975W        W80887   9.465   2.768  21.086  0.0512 -0.0110  0.0121
37976W        W80888   8.377   4.617  19.047 -0.0091 -0.1397  0.2997
37977W        W80889   9.125   6.138  23.730 -0.1317 -0.0253 -0.0558
37978W        W80890  11.304   5.352  21.990 -0.1684 -0.0505 -0.0607
37979W        W80891   8.537   5.769  20.767  0.0403  0.0858  0.2920
37980W        W80892  10.305   5.118  22.007  0.2240  0.1390 -0.0543
37981W        W80893  10.546   6.395  22.402 -0.0372 -0.4608  0.1110
37982W        W80894   9.702   4.839  20.341  0.0931  0.0215  0.2088
37983W        W80895   8.547   5.172  19.759 -0.1357 -0.3697 -0.2227
37984W        W80896   8.127   5.855  20.350  0.0744 -0.0766 -0.1361
37985W        W80897   7.706   4.498  23.869 -0.2853  0.0003 -0.3480
37986W        W80898  10.583   5.779  20.547 -0.0035 -0.1194 -0.0912
37987W        W80899  10.217   5.494  22.415 -0.1853  0.3866 -0.0053
37988W        W80900  10.922   4.598  23.040 -0.2409  0.1477  0.0742
37989W        W80901  10.737   3.381  22.733  0.0894  0.4808  0.0291
37990W        W80902  10.094   5.478  24.157 -0.0139 -0.1556 -0.1679
37991W        W80903   7.378   4.717  23.498 -0.1488 -0.1025  0.0554
37992W        W80904  10.400   7.120  23.074  0.0721 -0.2968  0.0254
37993W        W80905  10.075   3.042  21.622 -0.0753  0.0199  0.1208
37994W        W80906   9.761   5.628  22.239 -0.2745 -0.2890 -0.1788
37995W        W80907  10.065   6.235  19.237 -0.0551 -0.0506  0.2553
37996W        W80908   9.277   5.101  20.628  0.1244 -0.2579 -0.0100
37997W        W80909   8.491   4.370  21.840 -0.1726  0.0357 -0.1053
37998W        W80910  10.776   7.678  22.886  0.2689 -0.1163  0.0001
37999W        W80911   8.145   6.414  20.259  0.1711 -0.2890  0.2246
38000W        W80912  10.636   5.839  23.748  0.2138  0.0030  0.0675
38001W        W80913   9.095   6.655  19.768 -0.0969 -0.0672  0.2804
38002W        W80914   9.705   5.661  20.676  0.3158 -0.3392 -0.2707
38003W        W80915   9.294   4.016  20.436 -0.2878 -0.2039 -0.0110
38004W        W80916   7.075   3.564  22.633 -0.1992 -0.0355  0.0437
38005W        W80917   9.273   8.273  23.833 -0.1615 -0.0795 -0.1793
38006W        W80918   9.110   4.507  19.734  0.1774 -0.0978  0.2566
38007W        W80919   9.608   5.653  21.465 -0.6580 -0.2081  0.2058
38008W        W80920   9.559   6.252  21.528  0.1527  0.0822  0.0839
38009W        W80921  11.139   5.620  22.907  0.1375 -0.1120  0.2439
38010W        W80922   7.896   3.243  21.439  0.0123 -0.0929  0.2002
38011W        W80923   9.162   5.434  23.158  0.0498  0.2943  0.0522
38012W        W80924   6.866   7.290  21.345 -0.0413 -0.0062 -0.0576
38013W        W80925   9.370   3.846  19.900 -0.0559  0.1475 -0.2211
38014W        W80926   9.312   5.881  23.388 -0.1080 -0.0355  0.0683
38015W        W80927   8.926   5.658  21.763 -0.2488  0.0103 -0.0305
38016W        W80928   9.081   6.172  21.859 -0.2735 -0.0253  0.2051
38017W        W80929   9.081   3.663  22.178  0.3620 -0.0640  0.1067
38018W        W80930  10.059   6.118  21.519 -0.0531  0.0850  0.1414
38019W        W80931   9.274   5.081  22.804  0.2411  0.3398 -0.2146
38020W        W80932  10.648   5.108  22.494 -0.4953 -0.0700 -0.3157
38021W        W80933  11.418   7.492  23.130 -0.2366 -0.0847 -0.1050
38022W        W80934   9.082   6.715  23.458  0.0774  0.2076  0.0442
38023W        W80935  12.817   5.075  21.592  0.0015 -0.1719 -0.1657
38024W        W80936  12.128   6.962  20.993  0.0527  0.2941  0.1051
38025W        W80937   8.994   6.591  22.052 -0.3247  0.2056  0.0671
38026W        W80938   7.683   5.079  23.675 -0.0741 -0.1616 -0.2430
38027W        W80939   9.174   5.487  23.720  0.2574 -0.2890  0.0193
38028W        W80940  10.745   6.127  22.013 -0.0633  0.2835 -0.1563
38029W        W80941   8.956   3.555  20.686 -0.0875  0.1615 -0.0152
38030W        W80942   8.627   7.530  18.608 -0.2423 -0.1047  0.0051
38031W        W80943   9.345   6.816  22.915  0.0206 -0.0480  0.0174
38032W        W80944   7.613   5.801  22.062 -0.4380  0.1246 -0.0457
38033W        W80945   7.342   6.486  19.816  0.2086 -0.1520 -0.1879
38034W        W80946   9.591   5.980  19.155 -0.3683 -0.0302  0.0234
38035W        W80947   8.661   6.588  20.083  0.0114 -0.4734 -0.1473
38036W        W80948   9.617   7.262  21.966 -0.0361  0.1012 -0.0277
38037W        W80949   9.966   3.728  19.371  0.2512  0.0124 -0.1892
38038W        W80950   7.110   5.954  21.817 -0.1494 -0.2923 -0.1824
38039W        W80951   5.681   7.358  19.686  0.0877  0.1924  0.3120
38040W        W80952   9.826   5.478  19.797 -0.2879  0.0070  0.0736
38041W        W80953   9.979   7.921  22.231  0.3559  0.0610  0.1099
38042W        W80954  11.316   7.095  22.256  0.1161 -0.1207 -0.1200
38043W        W80955  10.742   5.629  18.597  0.0472  0.0445 -0.3803
38044W        W80956   9.637   5.378  20.258 -0.0854 -0.2742 -0.1147
38045W        W80957  10.523   4.999  19.382 -0.0463  0.1916  0.3158
38046W        W80958  10.615   6.727  24.043  0.1637 -0.0603 -0.1122
38047W        W80959   9.276   5.963  22.372 -0.1028  0.1074  0.4371
38048W        W80960   8.920   3.585  20.155 -0.1940  0.0774 -0.0760
38049W        W80961   8.863   6.320  22.507  0.0397  0.3415 -0.4900
38050W        W80962  11.765   3.874  23.899  0.0075 -0.0120  0.1282
38051W        W80963   8.177   7.458  23.421  0.0081 -0.1346 -0.0464
38052W        W80964  10.202   6.452  20.999 -0.1527  0.0215  0.2861
38053W        W80965   9.983   4.805  22.107  0.0752  0.1402 -0.2125
38054W        W80966   9.455   4.226  20.939 -0.0243 -0.0146 -0.1665
38055W        W80967  10.497   1.969  22.662  0.1657 -0.0209  0.0122
38056W        W80968   9.762   6.297  20.574  0.0206 -0.1101 -0.0418
38057W        W80969  10.803   5.169  21.168  0.2562  0.2789 -0.1780
38058W        W80970   7.503   6.196  20.793 -0.0514  0.1501 -0.0558
38059W        W80971   7.226   5.568  21.429  0.1033  0.0626  0.1380
38060W        W80972   8.318   6.612  21.376 -0.1708  0.0655 -0.0335
38061W        W80973   7.560   4.550  21.881  0.4288  0.0250  0.1978
38062W        W80974  11.182   5.478  21.107  0.3262  0.2024  0.0901
38063W        W80975  10.355   4.638  24.148 -0.2133  0.1152  0.1068
38064W        W80976  11.355   5.364  23.259  0.4432 -0.1362  0.1697
38065W        W80977   8.511   4.729  21.230 -0.1808 -0.1228 -0.2459
38066W        W80978   9.921   5.122  20.667  0.1441  0.0511 -0.1551
38067W        W80979   9.943   7.654  23.703 -0.0548  0.0810  0.1643
38068W        W80980   8.165   6.101  22.595 -0.0506 -0.0806  0.1454
38069W        W80981  10.476   5.518  19.599  0.1304 -0.0826  0.1068
38070W        W80982  11.553   5.374  22.742 -0.5380  0.0508  0.0024
38071W        W80983   9.138   4.534  20.434  0.1261  0.3869 -0.1494
38072W        W80984  11.225   6.479  22.106 -0.0200  0.0047  0.0870
38073W        W80985   7.609   3.927  22.126  0.0866  0.0645 -0.1980
38074W        W80986  10.271   4.867  20.358 -0.0081  0.2364  0.0300
38075W        W80987   8.053   4.672  20.959  0.3000  0.0974 -0.2236
38076W        W80988   9.978   5.079  22.524  0.3371  0.1207  0.1256
38077W        W80989  10.882   7.651  23.641  0.2274  0.2478  0.2084
38078W        W80990   8.509   3.812  20.799 -0.1260 -0.0551 -0.0218
38079W        W80991  11.735   5.184  18.870 -0.2731  0.0257 -0.0572
38080W        W80992  13.244   4.787  21.489 -0.1368  0.0649 -0.1291
38081W        W80993   7.757   7.291  20.076  0.1605  0.0514 -0.1448
38082W        W80994  11.003   4.719  21.131 -0.0843 -0.1304 -0.0487
38083W        W80995  10.671   7.474  21.721 -0.2370 -0.0767 -0.0080
38084W        W80996   9.438   5.812  21.923  0.3933  0.3422  0.2622
38085W        W80997   8.748   6.834  21.627  0.0164  0.2598 -0.0415
38086W        W80998  10.770   6.731  21.067  0.1548  0.0681  0.0055
38087W        W80999   8.643   4.722  19.902  0.0868 -0.0793 -0.1063
38088W        W81000  10.344   5.286  21.491  0.0769 -0.0206 -0.1659
38089W        W81001   8.062   7.027  22.216  0.1902 -0.1281 -0.0210
38090W        W81002  11.369   4.205  18.845 -0.0459 -0.0437  0.3489
38091W        W81003  10.732   4.954  21.651  0.0606  0.0950 -0.0009
38092W        W81004   9.280   6.838  19.064 -0.1862  0.1107  0.0759
38093W        W81005  11.268   4.175  23.823 -0.1592 -0.1835  0.0241
38094W        W81006  10.366   5.606  23.376  0.0448 -0.0575  0.3151
38095W        W81007   8.628   8.526  24.497 -0.0614  0.3905  0.2215
38096W        W81008   8.382   5.486  21.611 -0.2577  0.3136 -0.1380
38097W        W81009   9.315   4.990  23.777  0.4479  0.1109  0.0062
38098W        W81010   7.546   5.565  20.405  0.1783  0.1463  0.0241
38099W        W81011   7.789   7.903  20.096  0.0171 -0.2234 -0.1257
38100W        W81012  11.702   5.513  20.998  0.0077 -0.1594  0.0575
38101W        W81013   9.277   6.123  20.609 -0.0770  0.0754  0.0510
38102W        W81014  11.522   6.496  20.171 -0.1115 -0.0122 -0.0775
38103W        W81015  10.022   4.548  20.094 -0.1136  0.0270 -0.0253
38104W        W81016  11.526   4.683  21.298  0.1563  0.0305  0.2452
38105W        W81017   9.873   2.202  21.288  0.1458 -0.4847  0.3210
38106W        W81018   9.591   6.232  23.264 -0.0675  0.2925  0.0209
38107W        W81019   8.220   5.494  19.525 -0.0227  0.1014 -0.1609
38108W        W81020   7.842   7.059  20.487  0.0535 -0.2598 -0.0244
38109W        W81021   8.168   5.650  21.221  0.0635  0.2826 -0.2398
38110W        W81022   9.404   3.231  23.419 -0.3054 -0.1141 -0.0207
38111W        W81023   8.464   4.884  24.270  0.1896 -0.0196  0.0516
38112W        W81024   9.913   6.764  22.158  0.0730 -0.0215 -0.2256
38113W        W81025   8.707   4.262  21.258 -0.0539  0.1996 -0.1045
38114W        W81026  10.952   5.861  19.791 -0.0454 -0.2085 -0.1141
38115W        W81027   9.291   5.523  22.654  0.0023 -0.0109 -0.0771
38116W        W81028   7.297   4.281  21.557  0.3105 -0.3642 -0.2454
38117W        W81029  10.282   6.211  20.501 -0.1777  0.0960 -0.1809
38118W        W81030  10.729   6.200  20.756 -0.0880 -0.1232 -0.0566
38119W        W81031   9.804   6.144  21.967  0.1703 -0.1335 -0.0418
38120W        W81032  10.690   7.231  23.652  0.0946  0.1316 -0.2235
38121W        W81033   7.475   5.209  18.726 -0.2587 -0.1431  0.0172
38122W        W81034  10.371   3.549  24.064 -0.0544 -0.0109 -0.2056
38123W        W81035   8.813   4.117  23.975  0.0349  0.0164 -0.0980
38124W        W81036   7.555   4.349  19.060  0.4541 -0.2491  0.0728
38125W        W81037  10.757   5.392  22.053 -0.0148 -0.1223 -0.0147
38126W        W81038   9.436   7.416  18.384  0.0341  0.0147 -0.0863
38127W        W81039   7.932   8.365  18.350 -0.1741 -0.0970 -0.0863
38128W        W81040   8.001   7.004  23.696 -0.0269 -0.3162 -0.3112
38129W        W81041   9.824   6.774  23.299 -0.2077  0.2236 -0.0124
38130W        W81042   8.414   3.342  22.719 -0.4721  0.1319 -0.0096
38131W        W81043   9.562   5.302  21.076 -0.0481 -0.0842  0.3849
38132W        W81044  11.199   7.093  24.442  0.1047  0.2751 -0.0769
38133W        W81045  11.803   5.720  19.048  0.0041 -0.1507 -0.3215
38134W        W81046  11.572   3.388  23.137 -0.2960 -0.2325 -0.2817
38135W        W81047   9.608   6.425  19.714 -0.0289 -0.2076 -0.3596
38136W        W81048   7.628   5.130  22.732  0.1223 -0.0947  0.0070
38137W        W81049   8.892   6.624  22.971  0.0639 -0.1361 -0.0149
38138W        W81050  11.012   6.196  21.128 -0.1131  0.3660  0.0907
38139W        W81051   8.608   5.289  22.328 -0.2833  0.0072 -0.2611
38140W        W81052   9.085   3.948  21.266  0.4636  0.0548 -0.1635
38141W        W81053   8.378   7.395  20.127  0.2016  0.0968 -0.2150
38142W        W81054   9.477   6.993  22.433  0.4342  0.0515  0.2010
38143W        W81055   8.942   5.420  19.288  0.2142  0.0783 -0.0133
38144W        W81056   8.928   5.185  24.168 -0.2156 -0.1074 -0.2351
38145W        W81057   9.335   5.293  21.600 -0.4060  0.1595 -0.1657
38146W        W81058  11.349   5.246  23.789 -0.3292  0.0584 -0.2959
38147W        W81059   9.076   5.451  19.923 -0.0108  0.1465  0.3091
38148W        W81060  11.114   3.712  19.606 -0.3592  0.0216  0.2388
38149W        W81061  11.544   6.153  22.317 -0.2130 -0.1565  0.1175
38150W        W81062  10.876   6.315  24.751 -0.3788 -0.0154  0.2222
38151W        W81063  10.864   7.336  23.189  0.2506 -0.1380 -0.0745
38152W        W81064  11.997   4.708  21.105 -0.3477  0.2984  0.1107
38153W        W81065   8.701   4.996  22.828  0.0718 -0.1935  0.0993
38154W        W81066   9.201   6.767  20.228  0.0078  0.0216 -0.0753
38155W        W81067   9.439   4.763  21.524  0.0670  0.2488  0.0623
38156W        W81068  10.931   5.463  21.595 -0.1749  0.3522 -0.4747
38157W        W81069   9.241   4.954  20.117  0.0907  0.0982 -0.2169
38158W        W81070   8.544   2.691  20.879  0.3742 -0.2768 -0.1841
38159W        W81071   8.840   6.354  21.438  0.1174 -0.0537  0.1099
38160W        W81072  11.068   5.783  22.156 -0.0198  0.4406  0.1594
38161W        W81073   9.595   6.025  26.321  0.0860 -0.2004 -0.1042
38162W        W81074   8.561   4.603  25.144  0.2860 -0.0008 -0.1659
38163W        W81075  11.896   5.238  23.101 -0.2752 -0.1607  0.3827
38164W        W81076  11.200   5.548  24.472  0.1315  0.1183 -0.0827
38165W        W81077   7.645   2.765  24.378  0.0135 -0.0344 -0.0918
38166W        W81078   9.967   8.242  24.890  0.1477  0.1064  0.1573
38167W        W81079   8.278   4.594  25.964  0.4629  0.4158  0.0177
38168W        W81080   9.408   7.674  24.432  0.0249 -0.0807 -0.2002
38169W        W81081   9.272   6.977  26.039  0.0287  0.2081 -0.0121
38170W        W81082   9.976   6.293  23.609  0.0678 -0.3420  0.0361
38171W        W81083   7.693   4.921  27.660  0.2450 -0.1941 -0.0658
38172W        W81084   8.620   6.112  26.513  0.5293  0.1427 -0.0286
38173W        W81085   9.341   3.334  24.926  0.0078  0.2422  0.3956
38174W        W81086   8.124   4.422  24.169 -0.1500  0.3938 -0.2049
38175W        W81087  10.842   6.257  28.443 -0.3331 -0.0237 -0.1040
38176W        W81088   8.677   6.674  24.829 -0.2122  0.1050  0.0102
38177W        W81089   8.259   4.113  27.315  0.0531 -0.1019  0.1727
38178W        W81090   9.150   5.111  25.504 -0.2553 -0.1602  0.1012
38179W        W81091   9.360   8.274  24.351  0.1606 -0.1765  0.0156
38180W        W81092   8.134   3.832  26.865  0.0695  0.1782 -0.0334
38181W        W81093  10.469   3.598  27.072 -0.1300  0.2963 -0.1160
38182W        W81094   9.293   7.150  24.372  0.0848  0.0362 -0.0668
38183W        W81095   8.515   6.567  24.369  0.0966  0.0041  0.0809
38184W        W81096   7.344   4.035  26.972 -0.0065 -0.2620  0.0474
38185W        W81097   9.096   5.922  26.839  0.3779  0.0124  0.1407
38186W        W81098  11.117   5.027  27.268  0.1099 -0.1732 -0.0860
38187W        W81099  11.447   4.644  25.102 -0.1595 -0.2094 -0.0216
38188W        W81100   9.135   7.544  24.929  0.1209 -0.3428 -0.0520
38189W        W81101   9.539   6.166  24.779 -0.0440  0.0564 -0.1028
38190W        W81102   9.984   4.145  27.921  0.0236  0.0616  0.0187
38191W        W81103   7.377   7.010  25.107 -0.2487 -0.0902  0.1961
38192W        W81104   8.166   9.019  25.022  0.1951  0.0074 -0.2871
38193W        W81105   7.593   7.085  24.126  0.0198 -0.0605 -0.0939
38194W        W81106  11.675   5.877  26.318  0.2128  0.1029  0.2444
38195W        W81107  10.103   6.571  26.829  0.0525 -0.1026  0.2346
38196W        W81108   8.066   7.170  26.521 -0.0907  0.0284 -0.1756
38197W        W81109   7.025   6.344  24.632  0.0303  0.0985 -0.0629
38198W        W81110   9.788   8.066  24.400  0.2721 -0.0674 -0.1162
38199W        W81111   7.251   7.018  25.590  0.0881  0.3079 -0.2277
38200W        W81112   8.275   6.322  25.051  0.0247 -0.0384  0.1198
38201W        W81113   9.807   6.219  24.052  0.2952  0.0404  0.2225
38202W        W81114  10.114   8.528  23.568 -0.0823  0.2685  0.5143
38203W        W81115   9.650   4.816  26.357 -0.0817  0.0552 -0.0006
38204W        W81116  10.131   5.257  27.407  0.3447  0.4497  0.1567
38205W        W81117   7.263   6.532  25.866  0.1643 -0.3718 -0.2272
38206W        W81118  10.169   4.509  28.425 -0.0812 -0.0335 -0.3566
38207W        W81119   8.745   7.001  24.481  0.0331  0.0283 -0.0599
38208W        W81120  12.077   5.742  22.058 -0.2016 -0.2020 -0.1111
38209W        W81121   8.833   4.333  23.450  0.3152 -0.3585 -0.1326
38210W        W81122  10.095   4.349  23.579  0.1611  0.0336  0.0443
38211W        W81123   9.294   4.885  25.060  0.0329  0.2846 -0.0986
38212W        W81124   7.400   8.034  23.629  0.0985 -0.1249 -0.2564
38213W        W81125   9.108   4.037  26.569 -0.3183  0.2152  0.0461
38214W        W81126  10.734   5.744  28.069 -0.0125  0.1258 -0.0914
38215W        W81127   8.241   6.508  23.890 -0.0629 -0.0959 -0.0904
38216W        W81128   9.607   5.336  25.701 -0.2922 -0.0596  0.0843
38217W        W81129   8.235   7.634  26.528 -0.0924  0.0836 -0.3484
38218W        W81130   8.165   5.168  26.553 -0.2146 -0.2423  0.3323
38219W        W81131  10.385   6.291  23.926  0.1104  0.2977  0.1713
38220W        W81132  10.923   6.783  25.687  0.1170 -0.1518  0.0254
38221W        W81133  10.629   5.203  24.891  0.0087 -0.0809 -0.1297
38222W        W81134   6.975   5.767  25.307  0.0892 -0.0386  0.2895
38223W        W81135   8.956   5.335  27.708 -0.2564  0.3212  0.1507
38224W        W81136   7.939   6.031  26.321 -0.0621  0.1832  0.0672
38225W        W81137   9.750   3.678  24.669  0.3857 -0.1178  0.0290
38226W        W81138  10.598   6.978  26.071  0.1236 -0.3886 -0.0169
38227W        W81139   7.949   6.365  25.903 -0.1580 -0.2049 -0.3058
38228W        W81140  10.724   2.875  24.822 -0.2243 -0.1852 -0.1012
38229W        W81141   9.109   6.699  24.512  0.0903  0.4073 -0.0634
38230W        W81142   9.709   5.854  25.755  0.0822 -0.0682 -0.1001
38231W        W81143  10.412   6.265  23.331  0.0074  0.3973 -0.0673
38232W        W81144   9.389   4.489  26.667 -0.1200  0.0505  0.1782
38233W        W81145   8.770   5.230  26.371 -0.0432  0.4919 -0.3107
38234W        W81146   7.073   7.144  24.248 -0.0162  0.0482  0.1173
38235W        W81147   9.499   7.366  23.953 -0.2003  0.0751 -0.1991
38236W        W81148  10.355   6.607  27.863  0.1815  0.1799  0.0551
38237W        W81149  10.734   6.773  23.369 -0.0536 -0.1048  0.3201
38238W        W81150   8.401   6.465  25.507  0.3576 -0.3261 -0.0963
38239W        W81151   9.813   5.783  26.701  0.1080 -0.3302 -0.1388
38240W        W81152   9.791   7.307  27.455  0.1305  0.0425 -0.1224
38241W        W81153  10.286   6.904  23.511 -0.1390 -0.0832  0.0100
38242W        W81154   8.267   4.498  25.448  0.0549 -0.2539 -0.1632
38243W        W81155   7.847   5.697  25.770 -0.1316 -0.4394 -0.3725
38244W        W81156   6.164   3.693  25.146  0.0344 -0.0096 -0.0081
38245W        W81157   8.475   6.416  26.100  0.2530 -0.1493  0.1299
38246W        W81158  11.119   3.811  25.397 -0.3428  0.1476  0.0204
38247W        W81159   8.059   3.731  26.307  0.0037  0.0432 -0.2600
38248W        W81160  12.327   5.244  24.928  0.3249  0.2056  0.0532
38249W        W81161   9.214   5.963  25.167 -0.1160 -0.0474  0.3487
38250W        W81162   9.310   7.140  25.275  0.0590 -0.1667  0.2007
38251W        W81163  11.768   6.228  24.065 -0.1632  0.0130  0.3463
38252W        W81164   9.957   7.249  25.276 -0.0901  0.0519 -0.1968
38253W        W81165   6.817   4.522  26.456 -0.1093 -0.0971 -0.0787
38254W        W81166   8.278   4.293  24.731 -0.0747 -0.1306 -0.1115
38255W        W81167   8.001   4.343  26.963  0.1058  0.0997 -0.0139
38256W        W81168   7.282   5.043  24.709 -0.1990  0.2293 -0.2266
38257W        W81169  12.411   4.607  27.706 -0.0085 -0.0095 -0.0108
38258W        W81170   6.833   2.740  23.617  0.2018 -0.1643  0.4232
38259W        W81171   9.968   4.558  24.586 -0.2428  0.1741 -0.1353
38260W        W81172   8.583   4.911  25.569  0.0018  0.0520 -0.3363
38261W        W81173   8.239   5.102  25.040  0.0799  0.0551 -0.5525
38262W        W81174  10.658   5.539  26.597  0.0947  0.1663 -0.0255
38263W        W81175   9.398   8.339  24.905  0.1037  0.1265  0.1882
38264W        W81176  10.459   7.786  26.157  0.1563  0.1544 -0.1575
38265W        W81177   9.911   7.690  25.912 -0.0650 -0.0152  0.1313
38266W        W81178   9.077   4.454  27.685 -0.0031 -0.1687  0.0135
38267W        W81179   8.544   5.656  24.334  0.1794  0.1180 -0.0770
38268W        W81180   8.777   7.327  25.215 -0.1131  0.2005 -0.1569
38269W        W81181   9.936   6.267  25.745 -0.1533  0.0584  0.0591
38270W        W81182   8.551   4.828  23.380 -0.1709  0.1188 -0.0855
38271W        W81183  10.857   6.051  26.610 -0.0222 -0.0246  0.1447
38272W        W81184   9.677   6.301  25.280  0.1593 -0.2197 -0.2115
38273W        W81185   8.894   5.757  26.333  0.1112 -0.3179  0.0770
38274W        W81186   9.724   4.561  25.107 -0.0905 -0.3198 -0.0475
38275W        W81187  10.270   5.917  26.646  0.3414  0.0828  0.0565
38276W        W81188  10.895   5.612  24.941  0.1554 -0.0860 -0.0069
38277W        W81189   7.648   3.252  24.591 -0.0681 -0.1265 -0.3727
38278W        W81190   9.350   7.549  26.020  0.0334  0.0024  0.1489
38279W        W81191   8.258   7.385  25.430 -0.3440 -0.2384 -0.2130
38280W        W81192   7.308   5.283  25.187 -0.0013 -0.1428  0.0080
38281W        W81193   9.794   6.858  25.800  0.1690  0.0233 -0.0908
38282W        W81194   9.408   3.774  26.076  0.3816 -0.1869 -0.1148
38283W        W81195   6.478   4.134  25.663  0.1490  0.2324 -0.2000
38284W        W81196   8.779   4.117  27.896 -0.0594  0.4643 -0.2206
38285W        W81197   7.396   5.022  24.153  0.0060  0.1491 -0.0909
38286W        W81198   9.036   8.456  26.119  0.0002  0.5092  0.0122
38287W        W81199   9.740   4.128  23.875  0.1237  0.1190 -0.0982
38288W        W81200  11.356   4.747  23.892 -0.2026 -0.0287 -0.0279
38289W        W81201   8.845   6.831  27.763  0.0760 -0.1284 -0.0085
38290W        W81202  10.956   4.807  25.559 -0.2559  0.1797 -0.0522
38291W        W81203   9.656   4.779  22.880  0.2257 -0.2937  0.0653
38292W        W81204   9.326   3.525  24.436 -0.1620  0.0493 -0.0568
38293W        W81205   8.277   5.693  26.550 -0.0583  0.1767  0.0508
38294W        W81206  10.185   6.817  24.449 -0.1190 -0.0631  0.2589
38295W        W81207   8.165   5.434  26.979 -0.2379  0.0530 -0.2100
38296W        W81208  10.493   3.406  24.910  0.3519 -0.0065 -0.1065
38297W        W81209  11.149   7.074  26.142 -0.1385 -0.3713 -0.1196
38298W        W81210   8.028   4.829  27.050  0.2322 -0.2878  0.1485
38299W        W81211   8.851   6.856  27.020  0.1851  0.0177  0.1000
38300W        W81212   9.987   6.306  26.385  0.0423  0.0461  0.0736
38301W        W81213   8.024   4.670  26.580  0.2548  0.1879 -0.1084
38302W        W81214   8.694   5.589  25.500  0.0745 -0.2727 -0.1111
38303W        W81215   8.912   3.678  25.738  0.2246  0.1620 -0.0659
38304W        W81216   6.890   8.321  24.130  0.0072 -0.1401 -0.1985
38305W        W81217   8.893   4.559  26.823 -0.2379 -0.3651  0.3615
38306W        W81218  10.221   4.886  26.957 -0.1995 -0.0002 -0.1605
38307W        W81219   8.079   3.691  25.346  0.3205  0.0009 -0.1838
38308W        W81220   9.727   4.753  28.182  0.1858  0.0233 -0.1684
38309W        W81221  10.757   5.853  24.442  0.3551  0.1223 -0.1532
38310W        W81222   9.953   4.991  25.990 -0.1140  0.1432 -0.0634
38311W        W81223   7.800   5.139  25.269  0.1485  0.1674  0.2883
38312W        W81224   9.464   4.605  27.237  0.1135  0.3201  0.0657
38313W        W81225   9.176   4.957  27.066  0.4081  0.2302  0.1844
38314W        W81226   7.950   8.259  25.517 -0.3075 -0.5403  0.1087
38315W        W81227  10.957   6.217  27.061 -0.4008 -0.3477  0.1356
38316W        W81228  11.339   4.539  24.595 -0.2269 -0.1064  0.0487
38317W        W81229   9.880   4.854  27.353 -0.2378  0.0560 -0.0523
38318W        W81230   9.434   5.385  24.210  0.0358 -0.2627  0.1349
38319W        W81231   7.991   8.310  24.439 -0.0764  0.2073  0.1600
38320W        W81232   9.905   5.350  24.643  0.1617  0.0192  0.0306
38321W        W81233   9.210   4.624  25.808 -0.2356  0.0806  0.1898
38322W        W81234   9.295   6.699  25.544  0.1257  0.0514 -0.0272
38323W        W81235   9.660   6.974  23.707  0.0599  0.1492  0.0924
38324W        W81236   8.483   7.803  26.147 -0.1054  0.2973  0.2004
38325W        W81237   8.863   6.149  24.212  0.0197  0.0127 -0.1920
38326W        W81238  10.168   3.303  26.068  0.1871 -0.1729  0.2751
38327W        W81239   7.225   6.580  25.377 -0.0856  0.0110  0.1595
38328W        W81240   8.156   5.253  22.620  0.1595 -0.1540 -0.1443
38329W        W81241   7.601   5.413  24.757  0.1795 -0.1996  0.0924
38330W        W81242  10.916   4.666  25.053  0.0185  0.0374  0.1692
38331W        W81243  10.863   5.486  23.494 -0.2428 -0.0691 -0.0918
38332W        W81244   8.794   4.185  27.254 -0.0140  0.1794 -0.0326
38333W        W81245   9.227   4.374  24.977 -0.1470  0.3600 -0.2459
38334W        W81246   7.579   6.783  26.274 -0.0466 -0.1634 -0.0827
38335W        W81247  10.871   5.384  27.569  0.1045 -0.0102  0.0442
38336W        W81248  10.137   3.760  25.204 -0.2905 -0.0932  0.3136
38337W        W81249  10.468   6.138  26.284 -0.0801 -0.1682  0.1819
38338W        W81250   8.858   5.440  26.800  0.3502 -0.3187 -0.1949
38339W        W81251   7.750   4.860  23.193  0.1921 -0.1867 -0.2925
38340W        W81252  10.878   4.871  26.826  0.0442  0.1323 -0.0402
38341W        W81253   8.036   5.306  24.566  0.0391  0.1133 -0.1195
38342W        W81254   7.461   7.252  24.659 -0.0651  0.0393 -0.0038
38343W        W81255   8.523   6.632  26.620  0.2055 -0.1175  0.2896
38344W        W81256   8.753   5.588  24.867  0.0865  0.0898  0.0425
38345W        W81257   9.959   6.306  24.602 -0.1118 -0.1073  0.0583
38346W        W81258   7.655   5.231  28.371 -0.2005  0.1036 -0.1613
38347W        W81259   9.509   5.882  27.149  0.0979 -0.2905 -0.4217
38348W        W81260   8.905   5.408  25.955  0.0580 -0.0053  0.0637
38349W        W81261   7.980   4.590  25.088  0.1566  0.2167 -0.1045
38350W        W81262   8.295   4.191  23.765  0.2436 -0.1740  0.1598
38351W        W81263   9.111   4.661  26.268 -0.0766  0.2954 -0.2379
38352W        W81264  10.262   4.487  27.272  0.0282  0.0511  0.0057
38353W        W81265   8.977   6.363  28.093 -0.1012  0.0332 -0.1620
38354W        W81266   8.484   4.703  26.426 -0.1505 -0.1293  0.0858
38355W        W81267  13.036   7.775  25.430  0.0341 -0.0897 -0.0684
38356W        W81268   8.404   6.918  27.894 -0.0155 -0.0971 -0.0187
38357W        W81269   9.770   5.412  23.799 -0.0643  0.2820  0.1596
38358W        W81270   8.863   6.309  25.467 -0.3836  0.0770  0.0073
38359W        W81271   9.172   6.472  25.108  0.2201 -0.1793 -0.1613
38360W        W81272   8.445   3.877  25.880 -0.1019 -0.1945 -0.2310
38361W        W81273   7.515   6.118  25.599  0.0764  0.1370 -0.2481
38362W        W81274   7.636   5.675  25.263  0.0045  0.0666  0.0761
38363W        W81275   7.502   6.257  26.198 -0.3759 -0.2074 -0.2497
38364W        W81276  10.498   4.241  24.504 -0.2463  0.1974  0.0437
38365W        W81277   9.350   6.172  24.267 -0.0890 -0.0156  0.1240
38366W        W81278  10.218   4.982  24.917 -0.0714  0.0624  0.2398
38367W        W81279  11.528   5.234  26.021 -0.1326  0.0738  0.0030
38368W        W81280  10.770   5.426  24.205  0.2968 -0.1634  0.3395
38369W        W81281  10.990   3.041  27.067 -0.3057  0.0454 -0.0637
38370W        W81282   6.955   2.902  25.559  0.1142  0.4379 -0.1099
38371W        W81283   9.496   5.662  24.760  0.1943 -0.0024  0.1773
38372W        W81284   8.758   4.185  24.817 -0.2820 -0.0270  0.0168
38373W        W81285  10.275   6.932  25.633 -0.0828 -0.3313 -0.0636
38374W        W81286   7.622   3.537  26.416 -0.1270  0.1259 -0.2239
38375W        W81287   9.695   3.090  26.075  0.0193 -0.2802 -0.1279
38376W        W81288   8.322   3.949  24.346  0.2414  0.1883 -0.0417
38377W        W81289   9.597   6.309  26.845  0.1106  0.1998 -0.0220
38378W        W81290   9.534   6.493  26.026 -0.1026  0.1638 -0.3533
38379W        W81291  10.095   5.791  23.702  0.0323 -0.3201 -0.5017
38380W        W81292   9.559   4.857  25.538 -0.2361 -0.0510  0.3128
38381W        W81293   8.378   5.972  25.449  0.0853 -0.0449  0.1675
38382W        W81294   9.759   5.068  25.093  0.0557 -0.2922 -0.3935
38383W        W81295  10.475   5.338  23.796 -0.1171  0.0377 -0.2032
38384W        W81296   8.410   5.224  25.983 -0.2243  0.2278  0.1953
38385W        W81297   7.114   3.166  26.716 -0.0857 -0.3984  0.1424
38386W        W81298   9.601   6.647  24.362  0.1108  0.1356 -0.0279
38387W        W81299  10.743   4.756  24.488 -0.0420  0.2126  0.2076
38388W        W81300   9.496   4.356  26.131 -0.0176  0.1903 -0.1470
38389W        W81301   8.917   5.938  25.850  0.0236 -0.0789  0.3946
38390W        W81302   9.402   4.104  27.619  0.0625 -0.3515 -0.0434
38391W        W81303   7.217   3.756  26.145  0.0641  0.0200  0.1893
38392W        W81304   9.626   7.338  25.729 -0.0979 -0.0938  0.2105
38393W        W81305  11.409   5.720  23.610 -0.0428  0.4110 -0.0366
38394W        W81306  11.648   4.148  27.734  0.0342 -0.0327  0.0429
38395W        W81307   9.792   3.462  24.190  0.1992 -0.3714 -0.0770
38396W        W81308  10.373   5.098  24.362 -0.1304 -0.3583 -0.2036
38397W        W81309   9.323   5.565  26.580  0.0342 -0.2628  0.0221
38398W        W81310  11.222   3.845  27.904  0.1769  0.1018  0.0973
38399W        W81311   7.101   3.621  23.914  0.0953  0.3003  0.0319
38400W        W81312   9.888   5.123  27.869 -0.0709  0.0887  0.1591
38401W        W81313   9.786   7.054  24.218  0.0960 -0.0080  0.0403
38402W        W81314  10.349   5.880  25.820  0.1311 -0.4200 -0.1354
38403W        W81315   7.908   4.920  24.197  0.0795 -0.0336  0.0653
38404W        W81316   8.005   4.528  27.507  0.0299  0.1109 -0.0794
38405W        W81317   8.925   7.186  27.373  0.3486 -0.3135 -0.3950
38406W        W81318   8.707   5.868  23.821 -0.1654  0.0079  0.0491
38407W        W81319   9.759   8.083  23.446  0.3616  0.0247 -0.0319
38408W        W81320   9.721   6.866  25.348 -0.1362  0.0809  0.0892
38409W        W81321  11.909   4.633  26.992 -0.0978  0.0224 -0.3140
38410W        W81322   9.272   3.723  23.151 -0.2607 -0.1311  0.1095
38411W        W81323  10.984   3.276  27.505  0.3606 -0.3509 -0.1703
38412W        W81324   7.243   6.356  23.697 -0.2670 -0.1742 -0.2041
38413W        W81325   9.635   3.890  25.560 -0.6141  0.1935 -0.2184
38414W        W81326   7.676   6.790  25.785  0.1407 -0.3520  0.0726
38415W        W81327   7.676   5.413  27.011 -0.1965 -0.3560 -0.3619
38416W        W81328   8.370   7.384  24.341 -0.0033 -0.1582  0.1166
38417W        W81329   9.806   3.548  26.360 -0.1152  0.1873  0.2439
38418W        W81330   9.711   5.413  26.251 -0.2843  0.2084 -0.4185
38419W        W81331  10.893   5.730  27.137 -0.2087 -0.0945  0.2058
38420W        W81332  10.488   4.973  25.838 -0.0177  0.0515  0.1965
38421W        W81333   9.339   5.712  26.058 -0.1658  0.1416  0.1183
38422W        W81334   8.372   5.872  26.011 -0.4172 -0.1359 -0.0210
38423W        W81335   9.870   7.089  26.711  0.1740  0.0722  0.1449
38424W        W81336  10.809   5.228  26.140  0.0072  0.0537  0.1168
38425W        W81337   8.387   6.952  25.677  0.2213 -0.3228 -0.1941
38426W        W81338   6.328   4.360  26.426 -0.0722 -0.0790 -0.0792
38427W        W81339   8.241   5.496  28.298  0.1953 -0.1079  0.3178
38428W        W81340  10.806   5.813  26.158 -0.0210  0.0122  0.1250
38429W        W81341   9.092   5.102  24.624 -0.0767  0.0914  0.2864
38430W        W81342  10.243   7.270  23.981  0.1545 -0.1477  0.1307
38431W        W81343   7.912   5.896  27.037 -0.4538 -0.1632  0.0559
38432W        W81344   8.169   6.865  26.132  0.0518 -0.0329  0.1003
38433W        W81345   8.552   9.075  24.442  0.0907  0.2294 -0.2485
38434W        W81346  10.935   5.267  25.341  0.0562 -0.0354  0.0960
38435W        W81347  10.493   4.963  25.297 -0.2265  0.0586  0.0461
38436W        W81348   9.912   6.916  27.155 -0.2817 -0.1027 -0.0096
38437W        W81349   8.325   6.009  24.644  0.0149 -0.3596  0.3189
38438W        W81350   8.159   6.814  24.721 -0.3116  0.1807 -0.0635
38439W        W81351   7.198   7.643  24.386  0.0866  0.2771  0.0069
38440W        W81352   8.924   7.366  24.117 -0.0131 -0.0331 -0.0490
38441W        W81353   9.643   7.304  24.789 -0.0918  0.1723  0.2080
38442W        W81354  10.748   6.680  26.966 -0.4342 -0.1000  0.1336
38443W        W81355  11.106   5.803  24.010 -0.1911  0.0841  0.0528
38444W        W81356  11.035   5.331  26.847 -0.0179 -0.2272  0.2078
38445W        W81357  11.038   4.273  25.401 -0.0706 -0.2878 -0.2965
38446W        W81358  10.355   6.845  27.309  0.1809  0.2236 -0.3839
38447W        W81359   8.806   6.780  25.407 -0.0365 -0.0269  0.2571
38448W        W81360  10.342   4.052  23.280  0.0666  0.1059 -0.0263
38449W        W81361   9.623   5.317  27.180 -0.1778  0.0313 -0.0515
38450W        W81362  10.712   3.033  28.123  0.0001 -0.3780  0.3530
38451W        W81363   8.379   7.990  25.417 -0.0395 -0.3458 -0.0731
38452W        W81364  10.713   7.167  24.786  0.0669  0.0531 -0.0403
38453W        W81365   7.235   4.128  24.519  0.0465  0.0350 -0.1053
38454W        W81366   8.822   5.069  25.058 -0.5148  0.0153  0.1142
38455W        W81367  10.688   3.875  25.910 -0.2150 -0.0731 -0.0932
38456W        W81368   9.198   4.685  24.384  0.2581 -0.2175  0.0094
38457W        W81369   8.478   4.584  27.145 -0.3553  0.2257 -0.1823
38458W        W81370   9.567   5.836  23.921 -0.0329 -0.2365 -0.0420
38459W        W81371   8.989   7.195  25.662 -0.1750 -0.0861 -0.1269
38460W        W81372   8.855   7.464  26.081  0.0574  0.4946 -0.0433
38461W        W81373   6.586   5.085  24.144  0.1320 -0.1203 -0.3243
38462W        W81374   9.928   4.072  26.175 -0.0738  0.0231  0.0761
38463W        W81375   8.826   4.863  27.402 -0.1515  0.2126  0.1023
38464W        W81376  10.535   4.102  26.980  0.0259  0.0220 -0.0187
38465W        W81377   7.551   3.984  25.801 -0.0752  0.0927 -0.1753
38466W        W81378  10.073   4.149  24.861  0.0306 -0.0576 -0.0561
38467W        W81379   8.884   5.828  27.394  0.0005 -0.0173 -0.2053
38468W        W81380   7.767   2.890  25.078  0.3000 -0.0692 -0.1812
38469W        W81381   9.969   4.117  24.361  0.0153  0.0198  0.3560
38470W        W81382  12.019   5.512  26.180 -0.3546 -0.0695 -0.2757
38471W        W81383   9.675   5.441  23.313  0.0266 -0.2731 -0.0981
38472W        W81384   9.433   7.557  27.211 -0.3768  0.1076 -0.2189
38473W        W81385   6.666   3.865  23.901 -0.3563 -0.0302 -0.1047
38474W        W81386  11.081   5.105  24.784  0.2478 -0.1224 -0.2003
38475W        W81387   8.686   4.379  25.694 -0.0723  0.0655  0.0072
38476W        W81388   9.974   5.271  26.673 -0.0772  0.1599 -0.0640
38477W        W81389  10.718   7.128  27.449  0.0192 -0.1284 -0.0870
38478W        W81390   8.021   3.814  23.845  0.0382  0.1113 -0.4617
38479W        W81391  10.571   6.359  25.305  0.0467  0.0680 -0.0492
38480W        W81392  10.596   4.165  26.379 -0.0984  0.0773  0.3286
38481W        W81393   8.197   7.879  24.250  0.1362  0.0460  0.0869
38482W        W81394  10.720   5.901  25.478 -0.0894  0.1930 -0.2666
38483W        W81395  10.036   5.841  26.194  0.0133  0.0574  0.1731
38484W        W81396   9.010   4.658  25.385  0.1057 -0.1161 -0.1296
38485W        W81397  10.805   6.992  26.600 -0.6001 -0.0298  0.1341
38486W        W81398  10.005   6.033  27.087  0.3729 -0.0983  0.2899
38487W        W81399  10.135   3.786  23.680  0.2469 -0.0754 -0.0165
38488W        W81400   7.812   4.148  25.417  0.1660  0.4351  0.3020
38489W        W81401   7.823   6.574  25.366 -0.2291 -0.0980  0.0582
38490W        W81402   9.900   4.518  25.814  0.3671 -0.0071 -0.5435
38491W        W81403   9.683   4.916  26.848  0.0294 -0.1798 -0.3369
38492W        W81404   9.965   5.863  23.247 -0.0115 -0.1760 -0.0406
38493W        W81405  10.959   2.142  27.470  0.6275  0.2615 -0.1786
38494W        W81406   8.649   6.314  26.997 -0.0075  0.0159  0.2784
38495W        W81407   8.292   7.439  28.127  0.0132  0.0082 -0.2387
38496W        W81408   8.138   6.910  24.230  0.0809 -0.0151 -0.1973
38497W        W81409  10.599   5.225  27.116  0.1505 -0.1318 -0.1344
38498W        W81410   8.627   7.601  25.684  0.2102 -0.0130  0.2944
38499W        W81411   8.406   8.542  25.342  0.0107  0.0985 -0.0892
38500W        W81412  10.094   6.658  25.135 -0.0303  0.2028 -0.0165
38501W        W81413  10.396   5.521  25.230  0.4187 -0.0797 -0.2253
38502W        W81414  11.614   5.343  26.516  0.0567 -0.1092  0.2804
38503W        W81415   8.806   3.803  24.424 -0.0526  0.0986 -0.2471
38504W        W81416  11.844   4.528  23.828 -0.0179  0.0768  0.1564
38505W        W81417   9.565   4.188  24.651  0.0313  0.2233 -0.1100
38506W        W81418   7.914   5.483  28.706 -0.6189 -0.2046  0.0222
38507W        W81419   7.258   4.537  24.823 -0.0209 -0.1328 -0.0728
38508W        W81420   7.366   5.596  25.651  0.3176 -0.0278  0.2114
38509W        W81421   9.084   7.054  24.828 -0.0311  0.0902 -0.2650
38510W        W81422   9.225   3.501  26.469  0.1558  0.2226  0.1128
38511W        W81423   8.623   5.013  26.936  0.0590 -0.3668 -0.3575
38512W        W81424   8.063   4.925  25.660  0.2846  0.1737 -0.0920
38513W        W81425   7.767   4.468  24.531  0.4896 -0.2142 -0.1036
38514W        W81426  11.204   5.688  25.414 -0.1880 -0.1469 -0.1923
38515W        W81427   8.039   4.152  25.877 -0.3112 -0.3974  0.0211
38516W        W81428   5.849   4.466  25.501 -0.0323 -0.0559 -0.1270
38517W        W81429  10.141   7.152  24.845  0.1798 -0.1767  0.0859
38518W        W81430  10.236   8.540  24.365 -0.2153 -0.3907  0.0994
38519W        W81431   9.791   5.797  24.398 -0.3023  0.0130  0.2132
38520W        W81432  12.081   7.409  26.725  0.2495 -0.0350  0.0715
38521W        W81433   7.558   6.499  24.961  0.2329 -0.1265 -0.4576
38522W        W81434   8.582   4.497  27.633 -0.3878  0.0338 -0.2723
38523W        W81435   8.726   4.556  28.201 -0.2478 -0.0981 -0.2131
38524W        W81436   6.132   4.182  25.182  0.0219  0.3309 -0.1272
38525W        W81437   9.264   5.095  26.575 -0.4759 -0.1725  0.1298
38526W        W81438   9.109   8.021  24.697 -0.0424 -0.2415  0.2619
38527W        W81439  10.322   8.054  24.280  0.1391  0.1921 -0.0109
38528W        W81440   9.319   6.146  25.675  0.1473  0.0282  0.2593
38529W        W81441   8.580   7.199  26.508 -0.0426  0.0675  0.1603
38530W        W81442   7.071   4.428  25.980  0.2039 -0.2113  0.3777
38531W        W81443  11.247   6.114  24.456 -0.1002  0.0513  0.0271
38532W        W81444   8.669   6.872  26.087 -0.2466  0.0010  0.1763
38533W        W81445  10.611   5.479  25.727  0.0804  0.0300  0.0138
38534W        W81446  10.354   4.300  25.961  0.0812  0.5107  0.0261
38535W        W81447   8.558   5.196  24.640 -0.0252  0.0961 -0.0349
38536W        W81448   7.287   2.219  26.093 -0.0664  0.1457  0.2083
38537W        W81449   8.809   6.282  27.555  0.1900 -0.2379  0.0720
38538W        W81450  10.622   4.675  26.230 -0.1616  0.4218 -0.1527
38539W        W81451   8.207   4.783  24.659  0.1619  0.2335 -0.0365
38540W        W81452  10.571   2.904  26.200  0.2146  0.0309 -0.1818
38541W        W81453  10.841   7.411  25.264  0.0360  0.0676  0.1165
38542W        W81454   9.269   5.100  26.030  0.1380  0.1605 -0.0488
38543W        W81455   9.161   5.476  25.120  0.0846 -0.0270 -0.2005
38544W        W81456   9.138   5.422  27.227  0.3900  0.0896 -0.0806
38545W        W81457   9.255   6.766  24.036  0.3800 -0.1853  0.0689
38546W        W81458  11.252   5.580  27.814  0.0705 -0.2204  0.0624
38547W        W81459   8.809   4.663  23.975 -0.0425 -0.1175 -0.0928
38548W        W81460  11.956   5.620  24.989 -0.0129 -0.0106 -0.2832
38549W        W81461  10.286   7.147  26.469  0.0462 -0.0814 -0.0850
38550W        W81462  11.451   6.505  27.758  0.1446 -0.1824  0.0341
38551W        W81463   9.010   6.429  25.946 -0.0189  0.1129 -0.2043
38552W        W81464  11.107   5.373  25.807 -0.2336  0.1575 -0.1481
38553W        W81465   7.753   4.379  26.246  0.2546 -0.2138 -0.0136
38554W        W81466   9.241   5.649  25.573  0.0895 -0.1724  0.0437
38555W        W81467   8.229   5.433  25.530 -0.1455 -0.1613 -0.1123
38556W        W81468  10.334   5.663  27.079  0.0657 -0.2480  0.0890
38557W        W81469   8.392   4.039  25.250  0.0259 -0.0357 -0.1872
38558W        W81470   9.490   3.381  22.944  0.0491  0.0612 -0.0595
38559W        W81471   9.157   6.192  26.338 -0.1886 -0.1988 -0.0616
38560W        W81472   9.045   6.237  24.715  0.0964 -0.1341  0.3977
38561W        W81473   8.463   5.439  30.583  0.1038 -0.5474 -0.1138
38562W        W81474   7.571   3.708  28.170  0.2360  0.0525  0.0955
38563W        W81475  10.235   3.688  27.959  0.3192 -0.1388  0.2082
38564W        W81476  10.909   4.407  27.987 -0.1161 -0.0549 -0.0890
38565W        W81477   6.526   6.385  27.539 -0.1296  0.2967 -0.2188
38566W        W81478  10.405   8.452  27.663  0.2730 -0.0629  0.0321
38567W        W81479   8.146   3.325  29.595  0.1234 -0.0261 -0.1272
38568W        W81480   8.773   6.077  29.265  0.1571 -0.0707  0.0810
38569W        W81481  10.442   7.934  29.682  0.0484  0.1271 -0.0929
38570W        W81482   9.584   6.717  26.479  0.0407 -0.0012  0.1032
38571W        W81483  10.905   4.006  29.535  0.0431 -0.0969  0.0538
38572W        W81484   8.846   5.425  29.876 -0.2847 -0.0669  0.1410
38573W        W81485   8.761   2.910  28.061  0.0735  0.3054 -0.2677
38574W        W81486   8.452   3.995  29.902 -0.1545 -0.1089 -0.2471
38575W        W81487   9.036   6.109  30.398 -0.0679  0.0691 -0.3837
38576W        W81488   7.240   4.697  27.632  0.0597  0.0452 -0.0176
38577W        W81489   8.080   5.024  28.534  0.0888 -0.2497 -0.1776
38578W        W81490   9.653   4.568  27.736 -0.1168 -0.2564 -0.1079
38579W        W81491  10.104   6.816  29.871  0.0707 -0.1326 -0.3156
38580W        W81492   9.149   4.526  31.140 -0.2902 -0.4288 -0.0760
38581W        W81493   9.572   4.307  30.993 -0.1755 -0.0155  0.1756
38582W        W81494   9.525   7.150  29.036  0.0573  0.2071 -0.1640
38583W        W81495   8.619   5.364  27.316 -0.0144 -0.0111 -0.2290
38584W        W81496   7.996   4.134  29.147 -0.0673 -0.0204  0.0245
38585W        W81497   9.046   3.970  29.750  0.0649 -0.0011 -0.0245
38586W        W81498  10.574   3.477  28.859 -0.2521  0.2709  0.0486
38587W        W81499   9.631   3.788  29.729 -0.3945  0.1123 -0.0309
38588W        W81500   9.391   7.178  30.015  0.0578  0.0860  0.1435
38589W        W81501   8.177   6.767  29.133  0.4615  0.3787  0.2659
38590W        W81502   9.952   5.158  31.472  0.0481 -0.2195 -0.1818
38591W        W81503   8.618   5.883  28.473  0.2280 -0.0213  0.0585
38592W        W81504   7.053   7.518  27.923 -0.0176  0.0865 -0.1458
38593W        W81505   8.317   6.404  27.849  0.1061 -0.1941 -0.2116
38594W        W81506  10.722   5.664  28.642  0.0461 -0.3110  0.1206
38595W        W81507   9.341   5.926  31.228  0.0801  0.0942 -0.0946
38596W        W81508   7.538   5.693  30.229 -0.3451 -0.1441 -0.0572
38597W        W81509   8.342   5.796  27.528  0.0516 -0.0850 -0.0242
38598W        W81510   8.024   7.287  30.970  0.0449  0.0404 -0.0412
38599W        W81511   8.656   6.248  31.759 -0.0276  0.0230  0.0452
38600W        W81512   9.041   5.785  28.918  0.1101  0.1064  0.0586
38601W        W81513  10.368   6.022  29.152 -0.1978 -0.2658  0.1534
38602W        W81514   7.444   6.299  28.238 -0.0290  0.0690 -0.0249
38603W        W81515  10.611   5.661  29.392 -0.0297  0.3050 -0.3550
38604W        W81516   8.248   4.939  31.127 -0.1028  0.3359  0.1581
38605W        W81517   7.965   5.370  27.427  0.0584  0.1452  0.1406
38606W        W81518  10.497   3.924  30.115  0.2522 -0.1612  0.4013
38607W        W81519   7.430   7.468  28.317 -0.1653 -0.1847 -0.0314
38608W        W81520  10.725   4.241  28.394 -0.3521  0.0972  0.2607
38609W        W81521   8.909   3.779  27.566  0.2982  0.0815 -0.1863
38610W        W81522  10.801   1.991  27.933 -0.0424 -0.1931  0.0286
38611W        W81523   9.383   4.086  29.393  0.0706 -0.1412  0.0246
38612W        W81524   9.426   7.350  30.557  0.5791 -0.2551  0.2435
38613W        W81525   8.684   3.760  30.854  0.2510  0.0169  0.3600
38614W        W81526  10.183   4.758  29.467 -0.0644 -0.0971 -0.3184
38615W        W81527  10.277   3.813  29.216  0.2521 -0.3350  0.1985
38616W        W81528  10.004   7.044  28.701 -0.0782  0.0695 -0.0559
38617W        W81529   7.698   5.221  31.018  0.0643  0.3778  0.1283
38618W        W81530   7.641   5.707  28.331 -0.0304  0.1340  0.0407
38619W        W81531  10.683   7.310  28.142  0.2241  0.1560 -0.0283
38620W        W81532   9.757   7.559  29.933 -0.1070 -0.2166  0.2604
38621W        W81533   9.704   7.162  26.250  0.0687 -0.0379 -0.0812
38622W        W81534   7.099   4.671  28.316  0.2266 -0.0826  0.2294
38623W        W81535   7.637   4.898  30.566  0.0352 -0.1588  0.1832
38624W        W81536   7.865   4.634  28.785  0.0360  0.3953  0.2976
38625W        W81537   9.558   4.114  28.134  0.1728  0.2293 -0.2086
38626W        W81538  10.175   5.506  30.414  0.1515 -0.5275 -0.0830
38627W        W81539   7.339   5.993  29.823 -0.1049  0.0763  0.0830
38628W        W81540  11.292   4.131  28.907  0.2879  0.1099  0.0820
38629W        W81541   8.549   5.004  28.375 -0.0291 -0.0484  0.0794
38630W        W81542  10.243   5.929  31.257 -0.1853 -0.1761  0.1455
38631W        W81543   8.992   7.353  26.905  0.1341 -0.0588 -0.0228
38632W        W81544   9.072   2.752  29.650 -0.2119  0.0732  0.0009
38633W        W81545  11.450   3.882  30.416 -0.1633 -0.3056 -0.2251
38634W        W81546   5.896   5.701  26.942  0.2034  0.2748 -0.2336
38635W        W81547   7.935   6.340  28.253 -0.1362 -0.0329 -0.0640
38636W        W81548  11.348   6.791  30.458 -0.0473  0.0791  0.0327
38637W        W81549  11.041   3.842  28.367  0.0106  0.0241 -0.0257
38638W        W81550   9.823   5.770  28.513  0.0660 -0.0787 -0.1889
38639W        W81551   9.490   2.720  30.922  0.1994 -0.2364  0.1767
38640W        W81552   8.847   4.933  29.976  0.0334 -0.0717  0.0148
38641W        W81553   7.470   6.780  27.015  0.1900 -0.2443 -0.0039
38642W        W81554   7.188   5.924  28.455  0.0738  0.1801 -0.1533
38643W        W81555   8.301   5.968  28.080  0.3629  0.0256  0.3276
38644W        W81556   7.065   3.629  29.444 -0.2906 -0.0204  0.0945
38645W        W81557   8.420   5.663  29.591  0.0395 -0.2580 -0.2369
38646W        W81558  10.126   3.344  29.059 -0.0417  0.0893 -0.1926
38647W        W81559   7.951   3.699  30.714  0.0757  0.1973 -0.1413
38648W        W81560  10.830   3.395  28.409 -0.1603  0.1878  0.1798
38649W        W81561   8.263   6.241  27.277  0.0435 -0.2043  0.1778
38650W        W81562   9.552   7.078  28.475  0.1226 -0.2358 -0.3352
38651W        W81563  10.995   5.104  28.621 -0.1646  0.1450 -0.0398
38652W        W81564  10.245   4.987  28.163  0.0326 -0.0284  0.3261
38653W        W81565   7.547   4.657  29.154 -0.2297 -0.0934  0.0531
38654W        W81566   9.092   5.761  28.059  0.0586  0.2182  0.1415
38655W        W81567   7.329   3.115  30.558 -0.1608  0.2512  0.1937
38656W        W81568   8.844   3.605  28.990 -0.0449  0.2327  0.2661
38657W        W81569  10.753   5.617  29.920  0.2369  0.4855 -0.1841
38658W        W81570   6.427   2.058  27.623 -0.1383 -0.1960 -0.1759
38659W        W81571   9.509   3.768  28.445  0.0667  0.1921 -0.1118
38660W        W81572  10.695   4.820  27.332 -0.0538 -0.2505  0.0867
38661W        W81573   7.231   5.079  28.028  0.1431 -0.2561  0.1804
38662W        W81574  11.029   3.994  30.135  0.1134 -0.0731 -0.0308
38663W        W81575  10.377   7.115  27.852  0.0168  0.2548  0.0338
38664W        W81576  11.208   6.050  29.196  0.1793  0.2696 -0.0695
38665W        W81577  10.737   6.749  28.120  0.2858 -0.0647 -0.2177
38666W        W81578   7.884   3.082  29.923 -0.0558 -0.1349 -0.2016
38667W        W81579   8.781   5.008  28.895 -0.0956 -0.1394 -0.2832
38668W        W81580   8.404   7.189  30.172  0.1050 -0.1312  0.0335
38669W        W81581  10.141   6.555  28.972  0.4254 -0.2445  0.1580
38670W        W81582   8.873   3.242  27.401 -0.0463 -0.2698 -0.1615
38671W        W81583  11.290   8.391  29.822 -0.1188 -0.0764 -0.2510
38672W        W81584   9.525   5.527  27.632  0.2340  0.1078  0.1677
38673W        W81585   7.946   5.803  29.924 -0.3075  0.1020  0.1370
38674W        W81586  10.749   2.258   0.053 -0.0999  0.4733  0.0929
38675W        W81587  10.875   4.946  29.974  0.1454  0.1040 -0.0447
38676W        W81588  11.180   5.801  29.674  0.6315  0.2805 -0.2371
38677W        W81589   8.158   3.788  28.212  0.2698  0.2814  0.0734
38678W        W81590  11.197   6.479  28.187  0.1175  0.0498  0.2054
38679W        W81591   7.898   6.779  27.700 -0.0959 -0.0610 -0.2314
38680W        W81592   7.026   3.806  28.116 -0.0863 -0.1478 -0.1103
38681W        W81593   9.317   5.806  30.054  0.0252 -0.2493 -0.2979
38682W        W81594   9.104   4.963  29.378  0.0042  0.2322  0.1684
38683W        W81595   6.763   4.872  30.762 -0.2847 -0.2093 -0.5360
38684W        W81596  10.874   6.091  29.958  0.0154 -0.1365  0.1914
38685W        W81597   7.085   5.713  27.427  0.0371 -0.1560  0.0436
38686W        W81598   7.649   3.589  30.112 -0.2914 -0.1984 -0.2921
38687W        W81599   9.556   2.283  28.791 -0.1624  0.1467  0.1348
38688W        W81600  11.099   4.456  29.389 -0.0181 -0.2564  0.2208
38689W        W81601   8.767   6.674  31.467 -0.1279 -0.0636  0.0964
38690W        W81602  10.462   6.920  29.010 -0.3143 -0.2200  0.0909
38691W        W81603  10.809   3.498  27.936 -0.3936 -0.2600 -0.2037
38692W        W81604  10.605   4.009  27.967 -0.4329  0.0094  0.3735
38693W        W81605   8.621   5.680   0.345  0.0398  0.0248 -0.2690
38694W        W81606   9.929   6.269  28.377 -0.1399  0.1613  0.1806
38695W        W81607   9.554   5.662  29.192 -0.0502  0.0267  0.0058
38696W        W81608   9.469   5.031  28.583  0.0819  0.3208  0.0134
38697W        W81609  11.247   5.991  28.131 -0.2631  0.1499  0.0131
38698W        W81610   7.562   5.098  28.809  0.1028 -0.0270  0.2290
38699W        W81611   8.887   7.230   0.075  0.0939  0.0939  0.0527
38700W        W81612  10.087   7.528  27.804 -0.0464  0.1551  0.3440
38701W        W81613  10.825   4.724  30.819  0.2585 -0.0451  0.3368
38702W        W81614   9.076   4.138  28.394 -0.1787 -0.0485  0.0759
38703W        W81615   9.236   3.742  27.985 -0.0268 -0.4203 -0.1915
38704W        W81616   7.501   7.440  27.041  0.2248 -0.0510  0.1017
38705W        W81617  10.453   3.276  30.504 -0.1183 -0.1498 -0.2566
38706W        W81618   8.902   5.551  29.345 -0.1973 -0.0863  0.0273
38707W        W81619   9.268   3.191  30.723 -0.0257  0.1359 -0.0245
38708W        W81620  10.922   4.134  31.726 -0.2532 -0.3536 -0.3416
38709W        W81621  10.310   3.286  28.287  0.0137 -0.2724 -0.3489
38710W        W81622   9.847   5.166  29.636 -0.0096 -0.0591 -0.2023
38711W        W81623   7.013   5.130  27.532  0.0171  0.1410  0.1823
38712W        W81624  10.026   4.303  31.233 -0.1898  0.0338  0.1074
38713W        W81625   8.405   4.741  29.775 -0.1850  0.0754 -0.0764
38714W        W81626   8.655   5.245  31.028  0.1944 -0.1736 -0.0204
38715W        W81627  10.961   6.063  30.512  0.0774 -0.2265 -0.1268
38716W        W81628  10.417   6.556  28.498 -0.1824 -0.2181  0.0737
38717W        W81629   9.396   4.882  30.233  0.3085 -0.3057 -0.0561
38718W        W81630   9.882   4.229  27.416  0.0833 -0.0741 -0.0620
38719W        W81631   7.729   7.131  28.013 -0.3180 -0.0553 -0.1157
38720W        W81632   8.228   4.305  27.967  0.0938 -0.0959  0.1853
38721W        W81633   8.611   3.575  29.511 -0.0357 -0.1098 -0.2552
38722W        W81634   9.875   6.401  30.509 -0.3935 -0.0672  0.0244
38723W        W81635   7.585   7.054  26.666 -0.1042  0.1409  0.1626
38724W        W81636   9.294   4.601  29.040 -0.1927  0.0324 -0.0298
38725W        W81637   8.579   6.675  28.743 -0.2474 -0.1837  0.0587
38726W        W81638   9.140   3.192  28.951  0.0890  0.0900 -0.3026
38727W        W81639   7.548   8.046  29.338 -0.3448 -0.1133 -0.1015
38728W        W81640   7.533   4.390  27.292 -0.1016  0.1526 -0.1058
38729W        W81641   7.393   5.848  27.014  0.1466 -0.3606 -0.0686
38730W        W81642  11.450   2.169  28.216  0.1340 -0.0618 -0.4256
38731W        W81643  10.439   4.495  28.001  0.1833 -0.0568  0.2390
38732W        W81644   9.938   3.448  29.975 -0.0957  0.0436 -0.2227
38733W        W81645   9.650   4.985  29.153  0.1112  0.1011 -0.1065
38734W        W81646   7.518   7.280  29.894 -0.0240  0.1287  0.0360
38735W        W81647   9.641   5.513  30.683 -0.4482 -0.1091  0.1045
38736W        W81648   9.839   2.785  27.999  0.1056 -0.2461  0.0748
38737W        W81649   9.486   6.265  30.166  0.1233 -0.1451 -0.2717
38738W        W81650   7.237   5.020  30.975 -0.0459  0.1961  0.0524
38739W        W81651   7.873   3.925  27.802 -0.0437 -0.2573  0.2208
38740W        W81652  10.624   4.356  29.779  0.1757 -0.4285  0.3523
38741W        W81653   9.439   5.292  28.173 -0.0144 -0.0658 -0.0841
38742W        W81654   6.743   5.090  28.289 -0.0049  0.1689 -0.1326
38743W        W81655  11.476   4.927   0.003  0.2381  0.0227  0.0821
38744W        W81656   7.811   5.533  27.906 -0.0493  0.1563  0.1586
38745W        W81657   8.521   5.394  28.701  0.2862 -0.1572 -0.1575
38746W        W81658   8.427   4.220  29.366  0.0608  0.1655 -0.0332
38747W        W81659   9.045   4.963  30.963 -0.1612 -0.2099  0.2262
38748W        W81660   8.709   5.470  28.140  0.2824 -0.0210  0.1532
38749W        W81661   9.144   4.676  28.580  0.0885 -0.1073 -0.0041
38750W        W81662   9.974   3.654  28.689  0.1541 -0.0557  0.0760
38751W        W81663  11.292   7.446  28.958  0.3007  0.0872 -0.2369
38752W        W81664   9.094   2.715  30.601 -0.0822  0.2188 -0.0729
38753W        W81665   8.356   4.891   0.203  0.0263  0.1449 -0.1814
38754W        W81666   8.208   2.995  27.925  0.0012  0.0370  0.3327
38755W        W81667  11.363   7.940  28.848 -0.0552  0.2541  0.1464
38756W        W81668  10.434   4.279  29.340  0.4741 -0.1823  0.1000
38757W        W81669   7.937   6.045  27.773  0.0292 -0.0035  0.0939
38758W        W81670   7.162   5.316  28.542 -0.0800 -0.0441 -0.1040
38759W        W81671   7.413   6.141  27.752 -0.1607  0.1994  0.1327
38760W        W81672   8.927   2.818  31.105 -0.1005  0.1272  0.1917
38761W        W81673   9.281   5.395  30.359 -0.1781 -0.5573  0.0056
38762W        W81674   8.140   6.413  28.722  0.0131 -0.2083  0.0213
38763W        W81675   9.355   6.139  29.357  0.3636 -0.3217  0.1622
38764W        W81676   9.478   2.764  26.918 -0.0612  0.1717  0.1167
38765W        W81677   9.390   6.973  27.440 -0.2571  0.2346 -0.2876
38766W        W81678   9.684   4.006  28.896  0.3147 -0.2851  0.0307
38767W        W81679   9.209   2.834  30.096 -0.0932 -0.1062 -0.0476
38768W        W81680  10.789   3.768  27.448  0.1974 -0.0931 -0.1351
38769W        W81681  10.642   4.221  30.668 -0.0411  0.1666 -0.1736
38770W        W81682   9.060   3.584  30.488  0.3337  0.1131  0.3808
38771W        W81683   9.304   4.573  28.103 -0.0712  0.3225  0.1846
38772W        W81684   7.517   4.223  29.928  0.3435 -0.0369 -0.1407
38773W        W81685   9.541   6.081   0.174 -0.1345 -0.1356  0.0709
38774W        W81686   8.476   4.755  30.681  0.0654  0.1219 -0.1684
38775W        W81687  10.336   2.728  27.912 -0.1315 -0.3031 -0.0155
38776W        W81688   8.596   3.671  26.645 -0.3537 -0.0256 -0.0016
38777W        W81689   9.009   5.231  28.480 -0.0243  0.3692 -0.1501
38778W        W81690  10.397   7.415  28.818  0.2228 -0.0128  0.1283
38779W        W81691  10.226   5.622  28.816  0.2525  0.2422  0.1043
38780W        W81692  10.544   5.164  30.776 -0.0472  0.2721 -0.0277
38781W        W81693   7.726   5.091  29.369 -0.1501  0.3663 -0.1246
38782W        W81694   9.356   5.626  28.540 -0.2422  0.0807  0.2013
38783W        W81695   8.052   5.940  28.538 -0.1152 -0.2498  0.1223
38784W        W81696   9.091   6.955  29.668  0.0753  0.1730  0.0507
38785W        W81697   8.622   4.435  30.213  0.0126  0.2502  0.1247
38786W        W81698   9.939   4.902  28.643 -0.0940 -0.1433  0.0101
38787W        W81699  10.188   3.317  29.552  0.3682  0.1333  0.2827
38788W        W81700  10.398   3.349  29.978 -0.0799 -0.1910  0.1652
38789W        W81701   8.365   5.269  30.037 -0.0763 -0.4553  0.3024
38790W        W81702   9.905   4.911  30.493  0.1865 -0.2146  0.1572
38791W        W81703   9.055   3.353  31.636  0.1115 -0.1780 -0.0513
38792W        W81704   9.290   6.731  30.568  0.1704  0.0192  0.3931
38793W        W81705  11.355   4.271  28.181  0.1375  0.0388  0.0148
38794W        W81706   9.875   4.766  29.946 -0.0614 -0.0429 -0.4799
38795W        W81707   9.870   5.766  28.001  0.0244  0.1616 -0.2773
38796W        W81708   8.490   2.796  27.515  0.2132 -0.1359 -0.0635
38797W        W81709   8.104   4.367  29.834 -0.1228 -0.0805  0.1143
38798W        W81710  10.395   6.393  30.485  0.0664  0.0711  0.1183
38799W        W81711   9.410   3.669  27.395  0.3796  0.2737 -0.0377
38800W        W81712  11.740   3.625   0.037 -0.0127  0.0241 -0.1264
38801W        W81713   9.468   7.427  26.648  0.3984  0.0261  0.2821
38802W        W81714  10.679   6.403  28.966  0.0192  0.0168 -0.3205
38803W        W81715  10.663   4.337  27.516  0.1226  0.2499  0.0380
38804W        W81716   7.554   3.773  29.639 -0.4162  0.1023 -0.2417
38805W        W81717   8.783   6.541  30.960  0.1290 -0.2012 -0.2019
38806W        W81718   8.010   5.111  28.016  0.1080 -0.0283  0.1687
38807W        W81719  10.179   6.413  27.351  0.3333 -0.1213 -0.3526
38808W        W81720   8.768   6.527  30.485 -0.1469  0.2088  0.2579
38809W        W81721  10.774   5.942  31.304 -0.2059 -0.1232  0.0620
38810W        W81722   8.501   3.244  27.022  0.0640  0.0315 -0.0384
38811W        W81723   9.667   4.340  30.492 -0.0175  0.4761 -0.1317
38812W        W81724   7.393   6.534  29.389 -0.1888 -0.0939 -0.2700
38813W        W81725   8.648   3.526  30.114 -0.4492  0.1221  0.2523
38814W        W81726   9.081   6.661  30.099 -0.0231  0.1958 -0.1727
38815W        W81727   7.809   5.592  29.279  0.2843 -0.1562 -0.1267
38816W        W81728   8.696   5.877  27.866  0.1672  0.1938  0.0190
38817W        W81729   8.609   2.623  29.864 -0.1565 -0.1409 -0.0892
38818W        W81730   9.491   6.096  28.753  0.0416  0.2021  0.1048
38819W        W81731   9.079   6.065  28.465  0.1272 -0.2190 -0.1145
38820W        W81732  11.961   3.921  31.094  0.0792 -0.2805 -0.0983
38821W        W81733   9.975   6.340  29.977  0.2517  0.0835  0.1195
38822W        W81734   9.578   4.397  28.572  0.0010 -0.0171 -0.2302
38823W        W81735  10.386   7.313  29.882 -0.0861  0.0701  0.1479
38824W        W81736  10.664   5.277  29.051 -0.0923  0.2072 -0.0048
38825W        W81737   8.440   5.333  27.787 -0.0465  0.1510  0.1540
38826W        W81738   7.435   5.379  30.602 -0.4335 -0.2533 -0.0765
38827W        W81739   8.273   3.395  31.029 -0.0262  0.1845 -0.1468
38828W        W81740  11.535   6.594  29.263  0.0583  0.1810 -0.0618
38829W        W81741   7.066   1.829  28.035 -0.2489  0.1236 -0.0301
38830W        W81742   9.965   6.240  27.748  0.2664 -0.3309 -0.0547
38831W        W81743   8.441   7.254  31.671 -0.0900  0.1225 -0.3637
38832W        W81744   6.914   4.899  30.032  0.0079  0.2578 -0.2141
38833W        W81745   8.314   6.862  27.033  0.2725 -0.0029  0.0182
38834W        W81746  10.360   5.464  27.865 -0.1018 -0.0227  0.1177
38835W        W81747   9.983   5.750  27.519 -0.0810  0.1798  0.1500
38836W        W81748  10.460   8.122  30.155 -0.0278  0.0724  0.0307
38837W        W81749   8.964   4.956  27.994  0.0668 -0.1414 -0.1310
38838W        W81750   7.800   6.490  29.102 -0.1957 -0.0528  0.2229
38839W        W81751   6.980   7.680  27.048 -0.0982  0.2826  0.2952
38840W        W81752   9.641   6.682  28.883 -0.2259  0.0960 -0.1846
38841W        W81753   8.957   6.425  29.573  0.0358 -0.2750  0.5138
38842W        W81754  10.044   5.553  29.345 -0.0608 -0.0914  0.0822
38843W        W81755  11.186   3.109  28.644  0.0491 -0.2822 -0.0964
38844W        W81756  11.436   5.318  29.285 -0.2615  0.1138 -0.2305
38845W        W81757  11.663   3.702  28.074 -0.2993 -0.0741 -0.3169
38846W        W81758   8.871   5.689  30.310 -0.1084 -0.0846  0.0402
38847W        W81759   9.231   4.615  29.771 -0.1362 -0.0497 -0.2396
38848W        W81760   9.536   3.582  26.921  0.1219  0.1030  0.2261
38849W        W81761   8.129   6.279  30.045 -0.1009  0.0516  0.1062
38850W        W81762  10.061   3.558  30.488  0.1325 -0.0101 -0.2310
38851W        W81763   8.089   5.078  30.641 -0.1189 -0.1101 -0.0399
38852W        W81764  11.171   6.941  28.386 -0.0469  0.1776 -0.1267
38853W        W81765   8.559   4.162  28.373  0.1542 -0.2206  0.0355
38854W        W81766  10.271   4.822  27.636 -0.0019 -0.1186 -0.0195
38855W        W81767  10.803   3.887  29.009 -0.2124  0.6432 -0.0072
38856W        W81768   9.675   6.457  27.333  0.2408  0.0853  0.1596
38857W        W81769  12.028   3.387  29.347 -0.1062  0.0033 -0.0444
38858W        W81770   8.337   6.333  29.210  0.0704 -0.0350 -0.1778
38859W        W81771   8.477   6.137  29.677  0.0524  0.2161 -0.1399
38860W        W81772   9.446   5.904  30.572 -0.1248 -0.0262 -0.2092
38861W        W81773   8.833   4.367  28.791 -0.2852  0.1886  0.0495
38862W        W81774  10.425   3.439  27.591  0.1213 -0.1618  0.1146
38863W        W81775   8.233   4.101  30.954 -0.0403  0.3167  0.1856
38864W        W81776  10.267   3.298  30.978  0.1270  0.5406  0.0329
38865W        W81777   7.642   4.405  27.787 -0.4482 -0.3455 -0.0886
38866W        W81778   9.869   4.183  29.438 -0.0225  0.1931 -0.0406
38867W        W81779   8.869   3.979  30.217 -0.0175  0.1587 -0.0005
38868W        W81780   7.145   5.155  29.622 -0.0511  0.1114 -0.0682
38869W        W81781   9.269   6.039  27.674  0.1026  0.3219  0.1569
38870W        W81782  11.951   5.596  31.110  0.0408  0.0332  0.0552
38871W        W81783   9.909   5.317  28.315 -0.0863 -0.3652 -0.3563
38872W        W81784  10.483   7.371  30.478 -0.1311 -0.1665 -0.1541
38873W        W81785   8.391   4.816  27.936 -0.2003  0.1737  0.0647
38874W        W81786   9.763   3.717  27.818 -0.0723  0.1972  0.3196
38875W        W81787   8.384   4.674  28.866 -0.1516 -0.2081 -0.0475
38876W        W81788   8.140   4.365  30.537  0.0839 -0.0221  0.2267
38877W        W81789  10.203   6.437  30.974  0.0394 -0.3652 -0.1428
38878W        W81790   9.431   3.222  28.414 -0.1256  0.3563  0.1410
38879W        W81791  11.659   6.265  26.618 -0.0402 -0.2939 -0.0152
38880W        W81792  10.931   5.416  30.343 -0.4016 -0.3180  0.1167
38881W        W81793   8.778   8.393  28.269  0.0001  0.1130 -0.2123
38882W        W81794   9.378   5.035  27.607  0.0994  0.0092  0.2357
38883W        W81795   9.439   6.567  29.754  0.0274 -0.1275  0.2838
38884W        W81796   6.616   3.916  29.537  0.1978 -0.0520 -0.2876
38885W        W81797  10.287   6.531  29.449  0.0198 -0.0398 -0.0021
38886W        W81798   9.887   5.987  28.998  0.0928  0.0416 -0.1993
38887W        W81799   9.791   3.656  29.243  0.0304 -0.0317 -0.2527
38888W        W81800   9.613   4.344  29.957  0.2677  0.0790  0.1324
38889W        W81801   7.453   6.058  29.187 -0.2445  0.0178  0.0364
38890W        W81802  10.648   3.524  29.402 -0.0875  0.1758 -0.1300
38891W        W81803  10.434   4.806  30.486  0.0332 -0.1276  0.0433
38892W        W81804   9.079   6.529  26.719 -0.0167  0.1006 -0.0536
38893W        W81805  10.696   2.405  30.934  0.2289 -0.0382  0.1553
38894W        W81806   9.199   4.586  30.634 -0.0176 -0.0778 -0.0527
38895W        W81807   7.178   6.516  29.906  0.2031  0.0060  0.3234
38896W        W81808   6.550   5.741  27.433  0.0626 -0.2088  0.0871
38897W        W81809  10.178   4.342  30.322  0.2879 -0.1203 -0.2068
38898W        W81810   9.686   6.553  27.977  0.3633 -0.1032  0.1601
38899W        W81811   8.798   6.680  29.191  0.1112 -0.1100  0.3754
38900W        W81812  12.369   5.681  27.743 -0.2377 -0.1086 -0.1123
38901W        W81813   9.778   5.382  28.842  0.2761 -0.0320 -0.1101
38902W        W81814  11.873   6.405  30.640  0.3009  0.4079  0.3786
38903W        W81815   8.748   3.160  29.307  0.2761  0.1726 -0.0357
38904W        W81816  11.830   3.171  27.303 -0.1171 -0.0739 -0.2092
38905W        W81817   7.583   2.130  29.000  0.1539 -0.1879  0.3346
38906W        W81818   7.853   5.246  30.123 -0.1170  0.3193  0.2279
38907W        W81819   6.250   3.954  27.599 -0.1025 -0.0251  0.1629
38908W        W81820   9.157   6.261  27.205  0.1561  0.2358  0.1939
38909W        W81821   8.175   5.164  29.032 -0.0406 -0.1611  0.0639
38910W        W81822  10.105   4.018  30.691  0.1936  0.0097 -0.0622
38911W        W81823   9.189   4.094  30.648  0.0540 -0.1037 -0.1669
38912W        W81824   9.144   4.370  30.153 -0.2819 -0.0038 -0.0064
38913W        W81825   6.844   3.376  28.241 -0.1838 -0.1599 -0.2340
38914W        W81826  11.025   6.707  27.692 -0.0020 -0.0009  0.1322
38915W        W81827   8.560   5.171  29.429 -0.0664  0.1148  0.1160
38916W        W81828   7.111   2.981  28.016  0.0531 -0.2901 -0.0144
38917W        W81829  10.853   6.843  28.746  0.2591  0.0724 -0.1794
38918W        W81830  10.698   5.198  28.209  0.3087  0.1876 -0.2818
38919W        W81831   8.995   3.558  28.375  0.1372  0.0493 -0.1851
38920W        W81832  10.328   6.000  30.188 -0.1458  0.0640 -0.4761
38921W        W81833   6.936   6.754  29.256 -0.1738 -0.1364  0.1915
38922W        W81834  10.123   4.329  29.825  0.2081 -0.0013  0.0199
38923W        W81835   8.135   3.575  30.166 -0.0177  0.0967  0.3142
38924W        W81836   7.538   3.429  25.838  0.2177 -0.0117 -0.3005
38925W        W81837   9.258   5.254  28.933  0.0790 -0.0908 -0.1210
38926W        W81838   9.326   6.752  29.280  0.0925  0.0907  0.0786
38927W        W81839   9.624   7.786  27.773  0.3875  0.1366 -0.0467
38928W        W81840   8.664   4.643  31.237 -0.0691 -0.0043  0.0197
38929W        W81841   9.078   7.859  31.310  0.0784  0.0399  0.0890
38930W        W81842   8.442   3.921  29.010 -0.0265 -0.0233  0.1515
38931W        W81843  10.378   5.136  28.625 -0.3762  0.2238  0.2527
38932W        W81844   8.612   6.137  30.154 -0.0527  0.0360 -0.1109
38933W        W81845  10.801   4.886  27.825  0.1685  0.1101  0.1352
38934W        W81846   9.690   2.702  28.529 -0.0754  0.1959 -0.0638
38935W        W81847  11.244   4.647  28.619 -0.2854 -0.1112  0.1384
38936W        W81848   9.460   2.148   0.008  0.1007 -0.2327 -0.2828
38937W        W81849   8.581   6.807   0.470 -0.0699  0.1652 -0.0559
38938W        W81850   9.771   5.742  29.728  0.1385 -0.1368 -0.3685
38939W        W81851   7.252   3.475  27.854 -0.0310  0.2961  0.2402
38940W        W81852   9.531   3.258  27.894 -0.0179 -0.2499  0.0315
38941W        W81853  10.377   6.083  28.666  0.0905  0.4272  0.3194
38942W        W81854   9.163   3.992  28.863 -0.0008 -0.0692  0.3854
38943W        W81855   9.993   4.015  28.426 -0.1171 -0.0335 -0.3132
38944W        W81856   9.315   5.566  29.608  0.1568  0.1690  0.0833
38945W        W81857   9.774   5.285  30.127  0.0471 -0.0165  0.0809
38946W        W81858   9.836   4.548  29.092 -0.0919 -0.3011 -0.1004
38947W        W81859   9.553   3.485  28.832 -0.2235 -0.0647  0.0758
38948W        W81860  11.455   5.140  27.689 -0.1452  0.1191  0.1362
38949W        W81861  10.338   7.845  31.434 -0.3007  0.2265 -0.1080
38950W        W81862  10.720   7.466  31.722 -0.2277  0.1400  0.0183
38951W        W81863   9.505   6.384  31.305 -0.2486 -0.0307 -0.1088
38952W        W81864  10.813   4.487  28.873  0.0020 -0.1371 -0.1500
38953W        W81865   8.091   4.655  29.260  0.0249 -0.4165 -0.2020
38954W        W81866   7.467   5.319  27.443  0.0830  0.0210 -0.1093
38955W        W81867   8.281   4.933  27.480  0.0900 -0.1555  0.0524
38956W        W81868   9.782   6.501  29.379 -0.2801 -0.1806  0.1598
38957W        W81869   8.773   3.120  28.573 -0.4443 -0.1255 -0.2302
38958W        W81870   9.599   3.009  29.118 -0.0239 -0.1450  0.2628
38959W        W81871   9.759   6.105  30.998 -0.0968  0.0467  0.2420
38960W        W81872   9.069   6.323  28.960  0.3106  0.3917 -0.2913
38961W        W81873  10.946   3.651  31.457  0.0020 -0.0347  0.1106
38962W        W81874   9.329   5.400  31.072 -0.1776 -0.1450  0.3912
38963W        W81875   7.657   4.510  30.298 -0.0586  0.1595  0.0822
38964W        W81876   7.851   7.171  31.444  0.1001 -0.1731 -0.3994
38965W        W81877   8.334   7.254   0.193  0.1609 -0.1768  0.1085
38966W        W81878   7.835   8.381  30.771  0.0163  0.0136  0.1862
38967W        W81879  11.566   4.349  31.285  0.0639 -0.2626  0.1471
38968W        W81880   9.299   3.788  31.623  0.1125 -0.3459 -0.0240
38969W        W81881  10.552   5.948   0.204  0.3870  0.2709  0.1796
38970W        W81882  10.080   5.871   0.235  0.0482 -0.3580 -0.2875
38971W        W81883  10.464   6.885  31.625  0.0549  0.1613  0.0574
38972W        W81884   8.327   2.896  31.826 -0.1170 -0.0788 -0.0459
38973W        W81885  10.482   6.436  29.938  0.1172 -0.1219  0.0670
38974W        W81886   9.463   5.010  31.561  0.0877  0.0714 -0.0293
38975W        W81887   9.967   6.927  31.152  0.0895  0.0425 -0.1264
38976W        W81888   7.465   7.573   0.091  0.4741  0.1494  0.0574
38977W        W81889   8.856   3.862  31.793 -0.0602  0.1048  0.0721
38978W        W81890  10.059   6.653   0.416  0.0831  0.2310  0.1027
38979W        W81891   7.041   3.394  31.028 -0.0085  0.0863  0.2732
38980W        W81892   6.533   3.183  31.878 -0.0879 -0.0944  0.2390
38981W        W81893   7.848   3.805  31.663  0.1072  0.0912  0.1119
38982W        W81894   7.560   6.360  30.815 -0.2827  0.0962 -0.1762
38983W        W81895  12.074   5.278  30.557 -0.1414  0.0454 -0.1017
38984W        W81896  11.763   4.606  31.686 -0.1695  0.0420  0.1785
38985W        W81897   9.866   2.603   0.737 -0.0516 -0.1506  0.0198
38986W        W81898   9.543   4.359  31.489 -0.1581 -0.0550  0.4471
38987W        W81899  10.007   2.895  31.259  0.0330 -0.1038  0.0026
38988W        W81900   7.346   6.401  30.353 -0.0058 -0.3382  0.1695
38989W        W81901   8.368   3.928  30.420 -0.2854  0.1073 -0.2063
38990W        W81902   9.503   5.491  31.671  0.0424  0.1389 -0.1486
38991W        W81903   8.589   6.815  31.892 -0.0502 -0.3307 -0.1521
38992W        W81904   8.104   2.780  30.452  0.4127 -0.3351 -0.0835
38993W        W81905   8.990   6.238  31.340 -0.0653 -0.0505  0.2214
38994W        W81906  10.530   5.083  31.688 -0.1421 -0.0896 -0.1352
38995W        W81907   7.151   2.678   0.475 -0.1654  0.1304  0.0458
38996W        W81908   8.944   5.050   0.392 -0.6237 -0.0970  0.2279
38997W        W81909   7.064   5.824  30.252  0.2442 -0.2135 -0.0896
38998W        W81910  10.328   6.050  31.743  0.1009 -0.0278 -0.4632
38999W        W81911   9.008   5.422  31.516  0.1151 -0.0223  0.0692
39000W        W81912   9.698   5.985  31.620  0.0410  0.1740 -0.0506
39001W        W81913  11.425   4.100   0.452  0.2415 -0.0111  0.3205
39002W        W81914   9.870   4.007  31.636  0.2768 -0.1304  0.0722
39003W        W81915   8.358   3.899  31.852  0.3760  0.0231  0.0604
39004W        W81916   9.680   4.637  29.511  0.2624 -0.0288 -0.1143
39005W        W81917   9.984   4.618  31.646 -0.0194  0.2919  0.1841
39006W        W81918  10.071   4.859   0.359 -0.0715  0.0612  0.2810
39007W        W81919   8.651   4.175  31.293 -0.0599  0.0174  0.0885
39008W        W81920   7.663   4.200  30.731 -0.1763  0.2867  0.2536
39009W        W81921  11.129   6.807  31.176 -0.3373  0.2734 -0.3857
39010W        W81922   7.745   6.588  31.471 -0.0762  0.0201 -0.0632
39011W        W81923   8.730   4.310  30.709  0.3190 -0.3023 -0.0049
39012W        W81924  12.797   2.821  30.635 -0.5718 -0.2606 -0.2277
39013W        W81925   7.820   3.863  31.163 -0.3554 -0.0282 -0.4849
39014W        W81926   8.905   5.090  30.498  0.0913 -0.1487  0.1789
39015W        W81927   9.231   5.148  31.976 -0.1918 -0.3405  0.0008
39016W        W81928   9.349   4.171  31.951  0.2802 -0.1323 -0.1660
39017W        W81929  10.531   5.808  30.845 -0.1928 -0.1695 -0.1082
39018W        W81930   8.602   8.259  31.261 -0.0848  0.0521  0.1614
39019W        W81931   9.638   6.653  30.927  0.4074 -0.2718 -0.1700
39020W        W81932   9.192   3.446  31.159  0.0382  0.4322  0.0556
39021W        W81933   9.721   4.501   0.067  0.3198  0.1822  0.1604
39022W        W81934   8.483   5.256  31.550 -0.2911 -0.2062  0.3071
39023W        W81935   8.518   4.737   0.655 -0.1030 -0.0878  0.2228
39024W        W81936   6.654   3.750  31.923  0.1302  0.0137 -0.1219
39025W        W81937  10.152   5.144  29.080 -0.2570  0.0335  0.1866
39026W        W81938  10.392   4.849  31.114 -0.1916  0.0077 -0.4889
39027W        W81939  10.749   6.348  30.880 -0.3000  0.1729  0.0420
39028W        W81940   7.925  10.380  19.130  0.1973  0.2442  0.0454
39029W        W81941   7.808   9.674  16.898 -0.0463 -0.2432  0.4311
39030W        W81942   8.598   7.876  16.569  0.0444 -0.3089 -0.1202
39031W        W81943  11.154   9.689  15.967  0.1729  0.0446  0.0570
39032W        W81944   7.688   8.760  17.110  0.1421  0.2713  0.1353
39033W        W81945   9.548   8.487  17.488  0.0476  0.0908  0.0340
39034W        W81946   8.548   6.674  18.776  0.1957 -0.0499 -0.0408
39035W        W81947  10.443   9.332  17.080 -0.0099  0.0584  0.5040
39036W        W81948   9.033  10.470  18.124  0.2834 -0.1220  0.1635
39037W        W81949   8.532   8.781  16.466  0.0817 -0.0016  0.0448
39038W        W81950   7.077   8.330  17.752 -0.3031  0.2825 -0.0989
39039W        W81951   7.574  11.768  18.997 -0.0362 -0.1919 -0.0541
39040W        W81952   9.684   8.225  17.100 -0.0155  0.1998 -0.0372
39041W        W81953   7.119   7.437  17.697  0.1872  0.0509 -0.1378
39042W        W81954   8.022   9.842  18.495  0.0921 -0.0289 -0.1424
39043W        W81955   8.083   8.386  17.242  0.0619 -0.0217  0.0540
39044W        W81956   8.375   8.813  18.950 -0.2123  0.0410 -0.0646
39045W        W81957   8.852   7.564  17.602  0.1854 -0.2052  0.3209
39046W        W81958   8.931  11.111  17.654  0.0117  0.1035 -0.1435
39047W        W81959   7.819   8.702  19.826  0.1197 -0.0715  0.2696
39048W        W81960   8.536   9.268  18.713 -0.1255  0.3501  0.0448
39049W        W81961   8.446   9.938  15.587  0.0609  0.1948 -0.1552
39050W        W81962   7.882   9.300  15.827  0.3682  0.1033 -0.3166
39051W        W81963   7.329   8.478  18.930  0.0579 -0.0369  0.0076
39052W        W81964   9.084   8.502  18.827  0.0390  0.1130  0.0710
39053W        W81965   9.016   6.938  16.769 -0.1641  0.2928  0.0180
39054W        W81966  10.768   9.214  17.805 -0.0801 -0.2864 -0.3930
39055W        W81967   8.322  10.455  17.701 -0.0444 -0.1751  0.5138
39056W        W81968   8.685  11.119  16.345  0.1791 -0.0524  0.1376
39057W        W81969   9.279   9.044  18.428  0.1058 -0.2081 -0.1781
39058W        W81970   7.012   9.259  16.698  0.0254  0.0797 -0.0904
39059W        W81971   6.855   9.597  20.361 -0.0164  0.0951  0.1951
39060W        W81972   9.331  11.859  17.183 -0.4011  0.1885  0.0002
39061W        W81973  10.750   9.705  17.834  0.0330 -0.1341  0.0899
39062W        W81974  10.242   9.383  18.650  0.0886 -0.0945 -0.2691
39063W        W81975   9.326  10.838  18.987  0.3457 -0.1070 -0.3696
39064W        W81976   7.355   9.854  16.112  0.1839 -0.3084  0.2096
39065W        W81977   8.067  10.145  19.919  0.0894 -0.2585  0.2954
39066W        W81978   7.599  11.474  20.485 -0.0745 -0.2092 -0.1928
39067W        W81979   9.048  10.028  18.353  0.2133  0.2088  0.1044
39068W        W81980   7.080   9.032  18.061  0.1783  0.0699  0.1271
39069W        W81981   9.197  10.601  17.204  0.0242 -0.3512 -0.0337
39070W        W81982   9.041  10.071  17.025 -0.2168  0.0498  0.1349
39071W        W81983   6.883  10.625  18.812  0.0988 -0.0676 -0.0302
39072W        W81984   7.644   9.219  19.499 -0.1683  0.0225  0.2230
39073W        W81985  10.575   8.113  19.602 -0.1551 -0.3616  0.0262
39074W        W81986   7.871  10.071  16.355  0.0054 -0.1507  0.2125
39075W        W81987   9.468   9.655  15.835  0.0658  0.1220  0.3881
39076W        W81988   8.453   8.631  16.013 -0.1107 -0.0559  0.1079
39077W        W81989   9.667   9.529  16.316  0.2075  0.1840  0.0455
39078W        W81990   9.666   7.232  16.022  0.0232  0.2121  0.0202
39079W        W81991   8.165  10.519  19.600 -0.3278  0.0907  0.2366
39080W        W81992   7.804   7.852  18.379 -0.0328  0.2525  0.1754
39081W        W81993   9.951   8.901  18.677 -0.0634 -0.0321  0.0258
39082W        W81994   8.490   7.569  18.083  0.0503 -0.0543  0.0227
39083W        W81995   8.868   9.599  18.572  0.0614 -0.0260  0.2152
39084W        W81996   9.471  12.205  18.431  0.0030  0.1747 -0.0061
39085W        W81997   8.142   8.841  16.922 -0.0229  0.2991  0.3379
39086W        W81998  10.979   9.990  16.277  0.2269 -0.3619  0.0688
39087W        W81999  10.871  11.045  17.317 -0.0261  0.3076 -0.0282
39088W        W82000  10.599  11.311  16.119  0.3179 -0.0745  0.1352
39089W        W82001   6.936   8.839  17.655  0.1401  0.0053  0.1272
39090W        W82002   6.509   9.243  20.214  0.1971  0.3416 -0.4078
39091W        W82003   7.502   9.546  21.021 -0.0929  0.0886  0.1635
39092W        W82004   7.846   7.212  16.231 -0.0465  0.3392 -0.2503
39093W        W82005  10.042   8.245  20.301 -0.1688 -0.0605 -0.0694
39094W        W82006   7.117   9.657  18.852  0.2893 -0.1393 -0.1101
39095W        W82007  10.149   8.360  16.884 -0.1752  0.3124  0.2725
39096W        W82008   8.772   8.863  19.663 -0.2683  0.1415  0.2454
39097W        W82009  10.054   9.736  18.252 -0.1891  0.4454 -0.0794
39098W        W82010   8.865   9.564  15.678  0.1683 -0.0257 -0.0234
39099W        W82011   9.241   7.449  16.044 -0.2724 -0.3803 -0.6912
39100W        W82012   9.417   9.361  17.111 -0.0555 -0.3353 -0.4203
39101W        W82013   8.700   8.718  15.099  0.1017  0.0360  0.0859
39102W        W82014   9.504   8.972  17.480  0.1087  0.1550  0.3013
39103W        W82015   9.647  10.010  18.443  0.0871 -0.2092  0.1629
39104W        W82016  10.536   8.774  15.470  0.1978 -0.2462 -0.0210
39105W        W82017   7.855  12.745  18.183  0.1024  0.2616 -0.1639
39106W        W82018   8.222   9.465  18.083  0.4128  0.3327  0.3317
39107W        W82019   8.066   9.393  18.581 -0.2094 -0.0420 -0.1035
39108W        W82020   7.010  11.484  15.872  0.0166  0.0802  0.0614
39109W        W82021   7.461   9.973  17.586 -0.0929 -0.1771 -0.1553
39110W        W82022   7.334  10.508  15.908  0.0733  0.0558 -0.0631
39111W        W82023   5.540   7.543  19.195  0.1496  0.2591 -0.1109
39112W        W82024   8.170  11.368  17.860 -0.4980  0.0157 -0.0786
39113W        W82025   9.972   9.889  16.227  0.1084  0.0481 -0.0412
39114W        W82026   7.878   8.236  19.694  0.2683  0.0203  0.1552
39115W        W82027   8.555   8.259  17.022 -0.2369  0.0880  0.0356
39116W        W82028   8.692  10.416  17.231 -0.0468  0.0918 -0.0496
39117W        W82029  10.324  10.701  16.457 -0.0910  0.2382  0.0076
39118W        W82030  10.854   8.665  16.333 -0.2014  0.0718  0.3600
39119W        W82031   9.802   8.565  16.560  0.0581 -0.2038 -0.2645
39120W        W82032   6.026   8.471  18.759  0.2553 -0.0549  0.0668
39121W        W82033   7.742   9.703  17.960  0.4159 -0.4171 -0.0097
39122W        W82034   7.512   8.571  19.402 -0.1549  0.0841 -0.4060
39123W        W82035   6.267   6.892  20.229 -0.0714  0.3211  0.0129
39124W        W82036   9.732   7.985  17.622  0.0377  0.1595 -0.0985
39125W        W82037   7.653   7.382  17.530 -0.1106  0.0595 -0.3043
39126W        W82038  10.735   8.520  16.849 -0.0121 -0.2653 -0.2350
39127W        W82039   7.817   8.423  16.732 -0.0942  0.0731  0.4211
39128W        W82040   7.915   9.222  17.751 -0.0736 -0.2100  0.0309
39129W        W82041   8.365   8.322  18.651 -0.0280 -0.0868 -0.1714
39130W        W82042   9.115   9.953  16.000  0.0094  0.0542  0.1748
39131W        W82043  10.239   9.967  18.758 -0.1553  0.0149  0.2103
39132W        W82044   9.984  10.603  16.857 -0.0238 -0.1158  0.2062
39133W        W82045   6.472   7.545  18.457 -0.0814 -0.0781 -0.0231
39134W        W82046   7.575   9.095  16.168  0.1640 -0.0053 -0.0138
39135W        W82047   8.762  10.936  17.073  0.4354  0.0429  0.0998
39136W        W82048   8.077  10.825  17.991 -0.0721  0.2624 -0.3752
39137W        W82049   7.984   8.419  16.162  0.0379 -0.0816 -0.1932
39138W        W82050  10.002   9.840  17.706 -0.1241  0.1750  0.3430
39139W        W82051   9.502  10.091  17.322 -0.2706  0.1160  0.2151
39140W        W82052   7.298  10.398  17.830 -0.0351  0.0666 -0.0797
39141W        W82053  10.316   8.001  18.536  0.1043  0.1617 -0.2450
39142W        W82054  10.681  10.337  18.989 -0.3019  0.1880  0.0563
39143W        W82055   9.968   9.067  17.599  0.0581 -0.0762  0.0124
39144W        W82056   8.360   7.564  16.005 -0.1886 -0.0572  0.1630
39145W        W82057   8.005  11.975  17.022 -0.1440 -0.0518  0.1259
39146W        W82058   8.377  10.110  16.134  0.0693  0.0437  0.0856
39147W        W82059   7.862   8.846  16.458 -0.0800  0.1531  0.1227
39148W        W82060   9.585  11.003  16.920  0.1697 -0.0313 -0.2600
39149W        W82061   9.982   8.636  17.347 -0.1579  0.0175 -0.0371
39150W        W82062   6.835   8.121  20.409 -0.1226  0.3090  0.2134
39151W        W82063   7.577   9.187  18.131 -0.1901 -0.2030 -0.2061
39152W        W82064   6.642   8.511  16.296  0.2140  0.1657 -0.2907
39153W        W82065   7.574   9.741  18.410 -0.4026  0.0332  0.2738
39154W        W82066   9.522   6.750  15.856 -0.0318  0.1583  0.1873
39155W        W82067  10.170   9.093  16.611 -0.1281  0.1125 -0.0907
39156W        W82068   9.917  10.594  20.015  0.2577  0.2936  0.0036
39157W        W82069  11.273   9.279  17.075 -0.1050 -0.2065 -0.0344
39158W        W82070   8.397   8.119  16.133  0.0211  0.0895  0.0042
39159W        W82071  10.504   7.388  16.315  0.3635  0.0755 -0.0878
39160W        W82072   7.715   8.663  20.733 -0.1357 -0.2496 -0.0485
39161W        W82073   9.643  10.144  15.863 -0.1715 -0.1299 -0.0381
39162W        W82074   7.840  10.236  17.796  0.2403 -0.2616 -0.1489
39163W        W82075   9.706   7.733  16.004 -0.1678  0.0714 -0.0362
39164W        W82076  11.155   9.725  15.433  0.2244 -0.0882  0.0572
39165W        W82077   7.286  10.074  19.616 -0.2589 -0.6210  0.0843
39166W        W82078   9.490   8.895  18.914  0.0073  0.0980  0.0279
39167W        W82079   9.746  10.275  17.730 -0.1175 -0.0494 -0.1302
39168W        W82080   7.675   7.110  18.784 -0.0913 -0.1829  0.4073
39169W        W82081   8.995   8.718  16.073  0.2871  0.1383  0.2108
39170W        W82082   9.266   8.781  16.525 -0.4179 -0.1061  0.3829
39171W        W82083   6.905  10.342  16.154  0.0811 -0.2705  0.2110
39172W        W82084  10.400   8.918  17.934 -0.1328 -0.3840  0.0421
39173W        W82085   7.907   8.795  18.083  0.3085 -0.1042 -0.0906
39174W        W82086   8.137   7.901  17.987  0.1059 -0.2330 -0.2804
39175W        W82087   9.996   9.152  18.209  0.0336 -0.2603 -0.0013
39176W        W82088   9.316   9.173  17.895 -0.2045 -0.1435 -0.0639
39177W        W82089   9.384   9.505  19.571 -0.4395  0.3933  0.1701
39178W        W82090   9.318   7.767  15.667  0.2466  0.1596 -0.0654
39179W        W82091   7.294   8.301  20.537  0.0290  0.0208 -0.0398
39180W        W82092   7.613   8.894  18.986  0.0762 -0.0931  0.0947
39181W        W82093   7.545  10.844  19.395  0.4166  0.1519 -0.2389
39182W        W82094   8.354   8.629  19.508 -0.1811  0.1222 -0.2199
39183W        W82095   9.946   9.198  17.085 -0.0014 -0.2066 -0.1682
39184W        W82096   8.291   7.890  18.426 -0.2013  0.2749  0.1527
39185W        W82097   9.369   8.394  16.205  0.0529  0.2475  0.1355
39186W        W82098   7.658  10.859  17.123  0.1352  0.1996 -0.2372
39187W        W82099   8.300   9.535  17.035  0.0623 -0.2398 -0.1497
39188W        W82100   7.995   7.516  17.135  0.0590 -0.1013 -0.0266
39189W        W82101   7.557  10.891  18.116 -0.0834 -0.0468  0.0858
39190W        W82102   8.542  10.655  16.144 -0.0425  0.2127 -0.1847
39191W        W82103   8.637   8.320  19.772  0.4522 -0.1644 -0.2302
39192W        W82104   7.378  10.954  18.577 -0.4945  0.1640  0.0365
39193W        W82105  10.779   7.440  18.482 -0.2384 -0.0787 -0.1967
39194W        W82106   7.027  10.120  17.326 -0.2707  0.1006  0.1854
39195W        W82107   8.337   9.870  16.576 -0.0968  0.0546  0.2463
39196W        W82108   6.782   9.182  16.198  0.2753 -0.0975  0.2885
39197W        W82109   9.050   7.486  17.108 -0.0458  0.1117  0.4490
39198W        W82110  11.230   8.581  15.937  0.0597  0.0101 -0.1458
39199W        W82111   7.105   7.624  18.309  0.0989  0.1165  0.0607
39200W        W82112   8.500   6.663  17.625  0.1217  0.4389 -0.0571
39201W        W82113   6.850   9.179  18.915 -0.3913 -0.2591 -0.4445
39202W        W82114   8.060   9.346  20.437  0.0836 -0.3130  0.0607
39203W        W82115  10.043   8.353  16.231  0.2121 -0.2750 -0.0561
39204W        W82116   9.335   9.636  17.561 -0.0401 -0.0074 -0.1650
39205W        W82117   8.013  11.151  20.159 -0.1383  0.0147  0.0273
39206W        W82118   6.637   7.247  16.074 -0.0346 -0.1107 -0.1241
39207W        W82119   9.695   8.299  18.077  0.1268 -0.0691  0.0870
39208W        W82120   7.860   7.843  17.556  0.0264  0.2513 -0.3054
39209W        W82121   8.697   9.702  17.526 -0.0092 -0.1686 -0.1059
39210W        W82122   9.375  10.628  17.747  0.1442 -0.1072  0.0791
39211W        W82123   8.872   9.123  16.485  0.0322  0.2609 -0.1286
39212W        W82124   7.695  10.435  16.775 -0.0846  0.1215 -0.1465
39213W        W82125   7.546   7.486  20.545  0.3102  0.0918 -0.1445
39214W        W82126  10.513  10.824  18.112  0.1541 -0.1473 -0.2919
39215W        W82127   8.067   8.836  17.497 -0.3410 -0.1108  0.3069
39216W        W82128   7.626   9.426  18.805  0.0162 -0.2225 -0.0064
39217W        W82129   9.319   9.602  18.352 -0.0233  0.0613 -0.0160
39218W        W82130   9.643   9.523  18.038  0.0692 -0.1223 -0.1477
39219W        W82131   7.168   8.724  19.743 -0.2305 -0.2896  0.0383
39220W        W82132   7.706   9.159  20.767  0.0203  0.0671  0.2659
39221W        W82133   8.443   8.360  18.130 -0.1618  0.0748 -0.0460
39222W        W82134  10.693   9.931  16.756 -0.1773 -0.0315 -0.2375
39223W        W82135   8.878   9.224  18.217 -0.1063 -0.1076  0.0560
39224W        W82136   8.662   9.725  16.136 -0.1700 -0.1287  0.1584
39225W        W82137   6.813   8.993  17.166 -0.2435 -0.0125 -0.0811
39226W        W82138   8.142  10.287  18.201 -0.1278  0.5181 -0.2379
39227W        W82139   8.180   9.096  19.605  0.0896  0.2180  0.2442
39228W        W82140   8.902  10.592  17.646  0.2114 -0.2167 -0.1235
39229W        W82141   9.475   9.097  16.162 -0.1056 -0.1410  0.0908
39230W        W82142   6.435   9.864  19.704  0.0219  0.2687  0.1415
39231W        W82143  10.303   6.613  17.042  0.2571 -0.3465 -0.0772
39232W        W82144   8.564   9.120  16.906  0.0856  0.0361 -0.0872
39233W        W82145   8.489   8.735  17.233  0.1600  0.0043 -0.2486
39234W        W82146  10.073   8.593  18.260  0.1114 -0.1389 -0.0792
39235W        W82147   9.894  10.533  16.224 -0.0164  0.1973  0.1504
39236W        W82148   8.655   8.900  17.861  0.0713  0.0848  0.0918
39237W        W82149   7.620   7.597  18.845 -0.1566  0.1726 -0.0598
39238W        W82150  11.224   9.509  19.678 -0.0447 -0.0878  0.0208
39239W        W82151   6.048   7.618  19.140 -0.2095 -0.1477  0.0266
39240W        W82152   7.682  10.545  20.311  0.0036 -0.1417  0.1032
39241W        W82153   7.523   9.730  19.292 -0.1766  0.1164  0.1202
39242W        W82154   8.845   8.009  17.403 -0.0147  0.3611  0.2503
39243W        W82155   7.179   7.486  15.989  0.1141  0.0607  0.1124
39244W        W82156   9.335  10.069  17.941 -0.0874 -0.2170 -0.0599
39245W        W82157   9.659   9.078  16.604  0.2630  0.0538  0.0384
39246W        W82158   8.194   9.245  16.514  0.1571 -0.2081  0.0675
39247W        W82159  10.058   7.866  16.845  0.0658 -0.0588 -0.1449
39248W        W82160   7.449   8.976  17.624 -0.0105 -0.0056 -0.0983
39249W        W82161  10.474   9.015  17.431 -0.2764  0.0260  0.0712
39250W        W82162   8.818  10.270  16.257  0.3780 -0.2360 -0.4367
39251W        W82163   8.163  10.257  16.835 -0.0078 -0.0231  0.1758
39252W        W82164   7.889   7.247  19.235 -0.2276 -0.2558 -0.4355
39253W        W82165   9.468  10.040  16.371 -0.3839 -0.0514 -0.0395
39254W        W82166   9.483   8.772  15.800 -0.0031 -0.1604  0.0288
39255W        W82167   9.900   7.729  18.058 -0.1889 -0.0377 -0.3267
39256W        W82168   9.601   9.474  19.127  0.0346  0.2246  0.0613
39257W        W82169   6.924   8.697  20.697  0.0867 -0.0407 -0.0489
39258W        W82170   7.934   7.813  19.447 -0.0908 -0.1895 -0.1140
39259W        W82171   9.776  11.172  18.910 -0.4222  0.4668  0.1723
39260W        W82172   9.653   8.679  15.316  0.4613  0.1987  0.2182
39261W        W82173   9.394   8.308  16.726  0.0441  0.0394 -0.2156
39262W        W82174  11.449   7.044  16.692  0.0038  0.2728  0.2568
39263W        W82175   9.156   9.157  15.813  0.0604 -0.1526  0.3161
39264W        W82176   7.308   7.736  16.987  0.1746  0.0178 -0.2817
39265W        W82177   8.248   8.459  20.051 -0.1603  0.1233  0.1016
39266W        W82178   9.479   8.736  16.987 -0.1920  0.0817 -0.3095
39267W        W82179   8.698   7.874  20.046 -0.3988 -0.1297  0.0937
39268W        W82180   8.998  10.625  16.704  0.3640 -0.1543  0.0441
39269W        W82181  10.283   9.801  16.951 -0.1609  0.1561 -0.1884
39270W        W82182  10.919   9.481  16.816  0.1696 -0.2210  0.2916
39271W        W82183   7.215   8.959  19.220  0.1752 -0.1651  0.0470
39272W        W82184   9.418  10.344  18.747 -0.1533  0.0512  0.0427
39273W        W82185   6.758   7.651  16.314  0.3451 -0.1963  0.1909
39274W        W82186   9.146   8.695  15.402  0.0776 -0.0867 -0.1751
39275W        W82187   8.379   9.980  17.261  0.1189  0.0162  0.2520
39276W        W82188   8.218   7.856  19.870  0.1291 -0.0126  0.1493
39277W        W82189   9.135   7.407  16.531 -0.0470 -0.5474  0.0487
39278W        W82190  10.505   8.106  19.098  0.1262 -0.1237  0.0414
39279W        W82191   8.174  10.847  17.148  0.0066  0.2267  0.0196
39280W        W82192  10.907   7.202  16.660  0.0941 -0.0596  0.0842
39281W        W82193   9.112  11.509  17.972 -0.0176  0.0134 -0.0129
39282W        W82194   6.978   9.068  20.214  0.0017 -0.0770  0.3412
39283W        W82195  10.088  11.229  17.922  0.0566 -0.2997  0.1727
39284W        W82196   8.197   7.035  18.785 -0.2157 -0.1163  0.0614
39285W        W82197  10.037   9.234  19.117 -0.1344 -0.0301  0.0414
39286W        W82198   7.922   9.880  17.380  0.0467  0.2433 -0.0222
39287W        W82199   8.940   9.588  19.182  0.1288 -0.1522  0.2276
39288W        W82200   8.964  10.895  18.361 -0.2095 -0.0031  0.1663
39289W        W82201   7.982  10.373  17.284  0.1338 -0.2633  0.0509
39290W        W82202   9.768  10.894  17.781 -0.1606 -0.0553  0.1129
39291W        W82203  10.709   9.030  16.716 -0.3169  0.3541 -0.0672
39292W        W82204   6.630  10.350  16.756  0.1478  0.0270  0.0545
39293W        W82205   7.420   7.850  19.711 -0.1557  0.2887  0.0328
39294W        W82206   8.589   9.252  19.236  0.1645 -0.2898  0.0909
39295W        W82207   8.935   9.595  17.073  0.0912 -0.3592  0.0999
39296W        W82208   8.154   7.968  16.931 -0.0125  0.0929 -0.0047
39297W        W82209   8.200   9.506  15.441 -0.0416  0.0088  0.0689
39298W        W82210   6.349  10.540  19.919 -0.3069 -0.0930  0.0362
39299W        W82211   7.975   8.720  19.259  0.2543  0.3404  0.0914
39300W        W82212   7.980  10.904  16.700  0.1339  0.0365 -0.1716
39301W        W82213  10.732  10.501  15.582  0.0964  0.2601 -0.2519
39302W        W82214   9.848   9.704  17.200  0.1297  0.1486  0.1789
39303W        W82215   9.975  10.731  18.242 -0.2445 -0.2393  0.1206
39304W        W82216   8.791   7.523  16.260  0.0641 -0.0663 -0.1286
39305W        W82217   7.355  10.237  16.426  0.0430 -0.1170 -0.0094
39306W        W82218   7.476  10.280  17.219 -0.2103  0.1812 -0.2779
39307W        W82219   9.401  10.473  16.091  0.2809  0.2849  0.0076
39308W        W82220   7.812  12.202  16.592 -0.2205  0.0224 -0.1263
39309W        W82221   9.115   9.137  19.287  0.0859  0.0141 -0.2139
39310W        W82222  10.142   7.436  15.885 -0.1054 -0.1181 -0.1631
39311W        W82223  10.798   7.927  18.200  0.3510  0.0537 -0.1503
39312W        W82224  10.382   8.627  16.491  0.0333 -0.0460 -0.0114
39313W        W82225  10.379   8.941  18.425  0.0013 -0.2386 -0.0310
39314W        W82226   7.639   8.472  17.537 -0.2313  0.4531 -0.0573
39315W        W82227   8.618   7.216  17.242  0.0721 -0.2411 -0.3025
39316W        W82228   7.559   9.366  20.321 -0.0640  0.1715  0.2328
39317W        W82229   9.411   7.354  18.887  0.0528 -0.0604 -0.1969
39318W        W82230   7.358  10.276  20.503  0.0549 -0.0396  0.1441
39319W        W82231   9.554  10.971  16.102  0.1053 -0.1297 -0.1611
39320W        W82232   6.316   8.462  16.706  0.0392  0.1383  0.1936
39321W        W82233   9.025   9.646  17.973 -0.0430  0.0409 -0.4660
39322W        W82234  10.692   7.656  19.004  0.3121 -0.3200  0.0255
39323W        W82235   9.015   9.554  15.165 -0.1714  0.0219 -0.0520
39324W        W82236   9.092   9.478  16.197  0.2854 -0.0126  0.1787
39325W        W82237   8.371  11.292  16.693 -0.3075  0.5486 -0.0960
39326W        W82238   9.855  11.287  18.360 -0.0943 -0.2945  0.2359
39327W        W82239   8.488  11.136  18.260  0.2471  0.3628 -0.1498
39328W        W82240   7.495   7.632  16.315  0.0099 -0.0528 -0.2634
39329W        W82241  10.378   9.696  17.408 -0.2619  0.1262 -0.2461
39330W        W82242   8.039   9.216  19.013 -0.1190  0.2903  0.0352
39331W        W82243  10.531   6.520  20.150  0.1217 -0.1800  0.3914
39332W        W82244   8.923   9.285  17.636  0.0136  0.2409  0.0268
39333W        W82245  10.086  10.059  15.765  0.3431 -0.1527 -0.0155
39334W        W82246   9.306  10.061  19.271 -0.0631 -0.0680  0.1547
39335W        W82247   7.208   8.615  17.343  0.1205  0.1382 -0.2166
39336W        W82248   8.421   7.090  16.216  0.0709  0.3375 -0.3154
39337W        W82249   8.376   9.975  20.294  0.0027 -0.0902  0.2439
39338W        W82250   9.716   8.006  16.471 -0.3253  0.0329  0.1947
39339W        W82251  10.639  10.823  19.769  0.1105  0.0416  0.0122
39340W        W82252   7.258   8.291  16.907 -0.1712 -0.1966  0.2012
39341W        W82253   9.115   7.868  16.358  0.1079  0.1264  0.0673
39342W        W82254   8.420   9.777  18.818 -0.1272 -0.2089 -0.2340
39343W        W82255   7.767  10.327  18.626 -0.1120 -0.2103  0.1297
39344W        W82256   7.929   9.639  20.826 -0.1512 -0.1750  0.3341
39345W        W82257   7.933   7.901  16.223 -0.3865  0.3833 -0.2982
39346W        W82258  10.514  10.137  17.215  0.0750  0.1013 -0.1589
39347W        W82259  10.046   8.364  17.743  0.3764 -0.3105 -0.2191
39348W        W82260   9.194  11.284  17.090  0.2670 -0.2700 -0.1528
39349W        W82261  10.421   9.674  16.058 -0.3223  0.0243 -0.2371
39350W        W82262  11.237  10.524  18.037 -0.0360  0.0009  0.2140
39351W        W82263   6.810   8.667  19.321 -0.0686 -0.0377  0.0854
39352W        W82264   8.674  10.457  20.231  0.2033  0.0306  0.2957
39353W        W82265  11.155  10.934  19.523  0.0530  0.0351  0.0232
39354W        W82266   8.837   8.253  16.309 -0.0939  0.1230 -0.2485
39355W        W82267   7.861   8.469  18.873  0.0333  0.0149  0.0056
39356W        W82268   7.425  10.745  16.397  0.2988 -0.0067  0.1877
39357W        W82269  10.138   8.007  17.335 -0.0441 -0.0687 -0.0186
39358W        W82270   9.287   9.855  18.849  0.2911  0.0590  0.1914
39359W        W82271   9.065  10.805  16.279 -0.1482  0.1906  0.1965
39360W        W82272   9.168   8.387  17.213  0.0439  0.0527 -0.1453
39361W        W82273   9.501  10.463  18.213 -0.2105  0.1060 -0.3227
39362W        W82274   7.994  10.841  19.049  0.2574 -0.0416  0.1251
39363W        W82275   6.622   9.493  16.533  0.1990  0.1456  0.0819
39364W        W82276   8.496   9.709  19.485  0.0557  0.1506  0.1380
39365W        W82277   9.414  11.018  17.388 -0.0138  0.1256 -0.0812
39366W        W82278   9.489  11.619  16.232 -0.1295  0.0340  0.0216
39367W        W82279  10.436  10.297  20.102 -0.1424  0.3486 -0.4158
39368W        W82280   8.851   9.832  16.595 -0.0174  0.0599  0.3031
39369W        W82281  11.639   9.072  19.024  0.0143 -0.2632  0.4350
39370W        W82282   8.228   6.704  17.256 -0.3398  0.2506 -0.3701
39371W        W82283  10.862   7.204  18.004 -0.0583  0.1975  0.3039
39372W        W82284  11.277   7.731  16.957  0.1243  0.3900  0.0195
39373W        W82285   7.447   8.887  20.283  0.2257  0.0932 -0.1446
39374W        W82286   5.735   8.328  15.757  0.0098  0.1127  0.0867
39375W        W82287   8.671   9.114  16.032 -0.1213 -0.2504 -0.0470
39376W        W82288   6.815  10.309  19.742 -0.0440  0.3877  0.3567
39377W        W82289   7.584   8.130  19.182  0.0791 -0.0166  0.0507
39378W        W82290   9.230   9.354  18.790  0.0965 -0.1156 -0.0636
39379W        W82291   7.218   8.959  18.661 -0.1189  0.0591  0.2224
39380W        W82292   7.653   9.246  16.656 -0.2292 -0.0740 -0.1382
39381W        W82293  10.410   9.537  16.524 -0.1510  0.0321  0.1587
39382W        W82294   7.495   8.523  18.478  0.0484  0.0359  0.2024
39383W        W82295   6.519   8.479  18.588 -0.0163  0.1243 -0.0904
39384W        W82296  10.417  11.028  17.624 -0.1512 -0.2185  0.1206
39385W        W82297  10.796  10.408  16.525  0.3251  0.0915  0.2075
39386W        W82298   8.599   7.697  17.073  0.0096  0.0500 -0.4984
39387W        W82299   9.743  10.075  20.796 -0.0239  0.0290 -0.2770
39388W        W82300   7.843   8.787  15.755 -0.2876  0.1957  0.0631
39389W        W82301   8.544  10.583  19.236  0.1357 -0.3362  0.1131
39390W        W82302   7.950   8.878  18.588 -0.1254 -0.1074  0.1166
39391W        W82303   7.446   8.053  18.678 -0.1291  0.0112 -0.1935
39392W        W82304   7.911   9.820  18.997  0.0591  0.0513 -0.4177
39393W        W82305   8.631  10.287  16.750  0.1107  0.2532 -0.1666
39394W        W82306  10.281  10.564  15.860  0.3297  0.1148 -0.0196
39395W        W82307   7.874  11.097  17.547 -0.0799  0.0367  0.1720
39396W        W82308   8.731  10.079  17.922  0.0699 -0.1107  0.1324
39397W        W82309   5.692   8.125  20.839 -0.2791 -0.1552  0.3362
39398W        W82310  11.394   7.588  15.841 -0.3398 -0.2765  0.1646
39399W        W82311   7.499  10.574  18.989 -0.0468  0.2054 -0.0111
39400W        W82312   9.912   9.549  16.745 -0.1826  0.1639 -0.0100
39401W        W82313   9.333   7.872  17.327 -0.2388 -0.0404  0.1897
39402W        W82314   9.054   8.981  16.982  0.0075 -0.0959  0.1013
39403W        W82315   7.921   7.001  19.698  0.3030 -0.3158  0.0252
39404W        W82316   6.183   8.733  19.548 -0.4014 -0.3717  0.1638
39405W        W82317   9.768   8.782  17.930 -0.1866 -0.5976  0.3024
39406W        W82318   8.707   6.680  17.110 -0.0068  0.1059 -0.3190
39407W        W82319  10.484   6.909  16.315  0.1968 -0.1497  0.0584
39408W        W82320   9.494   9.842  16.860 -0.0480  0.1882  0.1191
39409W        W82321   7.210   8.116  18.218  0.3519 -0.1310 -0.0995
39410W        W82322   8.310   8.347  16.568 -0.0102  0.1364  0.0656
39411W        W82323   7.941  11.044  19.595  0.0735 -0.1321 -0.3116
39412W        W82324   9.513  10.352  16.866 -0.0970 -0.1020 -0.1499
39413W        W82325   9.681   9.661  19.971  0.0694 -0.2880  0.0567
39414W        W82326   7.590   8.230  16.341 -0.0695  0.3064 -0.0712
39415W        W82327  10.094   9.320  16.180  0.0619 -0.0352 -0.1369
39416W        W82328  10.736  10.416  17.954 -0.0441  0.2202 -0.0453
39417W        W82329   8.909  10.903  20.543 -0.3748  0.3521  0.1533
39418W        W82330   8.518   9.833  18.297  0.1540 -0.0202 -0.2355
39419W        W82331   9.759   9.501  18.542  0.2560 -0.0488  0.4136
39420W        W82332   7.333   7.262  19.158  0.4018  0.2426  0.0061
39421W        W82333   7.501   7.385  18.377 -0.1218  0.1806 -0.1877
39422W        W82334   8.815  10.111  19.257  0.1959 -0.4677 -0.0958
39423W        W82335   9.183   8.705  17.957  0.0040 -0.3307 -0.3036
39424W        W82336   7.889   9.184  17.211  0.0161 -0.1013  0.2924
39425W        W82337   9.713   8.262  15.798 -0.0423 -0.0633  0.0161
39426W        W82338   8.495  10.794  18.811  0.1876  0.1262  0.2956
39427W        W82339   7.574  10.144  18.185 -0.1755 -0.1129  0.0333
39428W        W82340   7.638   7.702  21.794  0.1970  0.1892 -0.0935
39429W        W82341   8.984   6.795  22.547 -0.0438 -0.0709 -0.0857
39430W        W82342  10.405   7.623  20.855  0.1735 -0.1498 -0.1818
39431W        W82343   9.259   7.223  19.913  0.2141 -0.2693 -0.0359
39432W        W82344   7.628   8.768  22.395 -0.2595 -0.1781 -0.1744
39433W        W82345   9.236   9.135  22.105  0.2288 -0.3543  0.3654
39434W        W82346   9.946   7.227  22.382 -0.0401 -0.2685 -0.0917
39435W        W82347   9.578   9.539  21.472 -0.1373 -0.2114  0.2233
39436W        W82348   9.145   9.421  21.697 -0.0046 -0.2345 -0.0939
39437W        W82349   8.895   8.960  18.859  0.1696  0.1307 -0.3979
39438W        W82350   9.576   8.214  22.901 -0.4810 -0.0605 -0.1864
39439W        W82351   7.755  10.831  22.287 -0.2139  0.0616  0.2330
39440W        W82352   7.676   8.125  21.174 -0.2116  0.1399 -0.1301
39441W        W82353   7.584   7.663  23.163  0.0310  0.1454 -0.1299
39442W        W82354  10.085   8.786  22.961 -0.0871  0.1101  0.2674
39443W        W82355   7.168  10.234  21.830  0.0392  0.0492  0.1666
39444W        W82356   8.106   7.794  23.127 -0.0305  0.2319  0.1472
39445W        W82357   8.561   7.050  19.709 -0.0726  0.0815 -0.0665
39446W        W82358   8.901   9.820  21.219  0.1864  0.0505  0.0578
39447W        W82359   8.767   8.079  22.960 -0.0289 -0.2078  0.2119
39448W        W82360   9.564   8.552  23.425 -0.0225 -0.0285  0.0172
39449W        W82361   9.474   9.486  23.182  0.0897 -0.1383 -0.0715
39450W        W82362   8.658   9.716  19.951 -0.2866 -0.2301  0.0721
39451W        W82363   7.446   8.277  22.680 -0.0540 -0.0102 -0.3564
39452W        W82364   8.974   7.934  24.186 -0.0007  0.1520 -0.3593
39453W        W82365  11.693   7.244  20.899  0.1414  0.0642 -0.1190
39454W        W82366  10.305   8.862  21.367  0.0811  0.0064 -0.1764
39455W        W82367   9.392   9.747  21.069  0.1005  0.1380  0.0334
39456W        W82368   9.173   8.869  22.645 -0.4213  0.0345  0.1116
39457W        W82369  10.017   9.484  24.327  0.0849  0.3144  0.1824
39458W        W82370   7.755   8.039  20.617 -0.2427 -0.0351  0.0707
39459W        W82371   7.532  10.583  21.925  0.1507  0.1516  0.0985
39460W        W82372   8.202   9.158  20.905  0.1044 -0.2401 -0.0280
39461W        W82373  10.021   9.319  20.026  0.0292  0.3077 -0.4235
39462W        W82374  10.265   9.792  23.027  0.3628  0.2966 -0.1028
39463W        W82375   8.477  11.873  23.520 -0.1712  0.0314 -0.0088
39464W        W82376   6.786   8.359  21.517 -0.2787  0.1763  0.0214
39465W        W82377   8.417   9.130  21.370  0.0996 -0.2792  0.1075
39466W        W82378   9.110   8.330  22.560  0.1818  0.0197  0.2253
39467W        W82379   8.904   7.765  22.533  0.2734  0.2668  0.1440
39468W        W82380   8.397   7.777  22.716  0.0151 -0.1332 -0.0535
39469W        W82381   8.625   8.739  21.030  0.0907 -0.1696 -0.2251
39470W        W82382   9.206   8.016  19.824 -0.0469 -0.1203  0.0732
39471W        W82383   8.703   9.298  22.163 -0.0897 -0.1546  0.0612
39472W        W82384   6.906   9.947  22.875 -0.1513  0.1779  0.0413
39473W        W82385  11.945   7.873  24.717  0.0957 -0.1158  0.2405
39474W        W82386   7.171  10.632  20.054  0.0496 -0.1534  0.0070
39475W        W82387   9.221   9.155  19.859 -0.1982 -0.0939  0.2295
39476W        W82388   8.345   7.327  20.854 -0.0356 -0.0229  0.3410
39477W        W82389   9.981   7.804  20.575 -0.1926 -0.1540  0.0602
39478W        W82390  10.906   6.798  22.363 -0.0574 -0.1557  0.0168
39479W        W82391   7.922   9.699  22.151 -0.2746 -0.1740 -0.0711
39480W        W82392   9.264   7.882  22.811 -0.0480 -0.3161 -0.2014
39481W        W82393   8.936   9.804  23.303  0.1264  0.0291 -0.0182
39482W        W82394   8.267   7.029  21.639  0.1575  0.3584  0.0023
39483W        W82395   9.752   8.568  21.182 -0.2780  0.1579  0.3735
39484W        W82396   7.256  10.626  22.419  0.1801 -0.4019  0.1201
39485W        W82397   8.016   7.764  21.367 -0.3401 -0.0459 -0.0343
39486W        W82398   7.630   9.671  19.807  0.1834  0.0467 -0.2186
39487W        W82399   9.991   8.991  20.990  0.1777  0.1864 -0.1749
39488W        W82400   9.766  10.563  19.086 -0.0796 -0.0535 -0.1372
39489W        W82401   6.749   8.046  20.888 -0.1553 -0.2204 -0.1787
39490W        W82402   7.065   9.581  23.230  0.3092 -0.0866 -0.1018
39491W        W82403   6.723   8.497  23.587 -0.1764 -0.2155 -0.0124
39492W        W82404   6.669   7.794  19.636 -0.1174 -0.1068 -0.4072
39493W        W82405  10.495   9.941  21.163 -0.2621  0.1109 -0.2128
39494W        W82406   7.195   8.961  22.202 -0.1054 -0.3583 -0.1775
39495W        W82407   9.529   7.129  20.870 -0.0860 -0.1494 -0.0483
39496W        W82408   8.272   8.386  22.009 -0.1743 -0.3876 -0.0526
39497W        W82409   9.841   9.434  21.948 -0.2373  0.1749 -0.3135
39498W        W82410  10.000   8.742  19.233  0.1162 -0.4172 -0.2997
39499W        W82411  10.938   7.917  21.494  0.0968  0.1412  0.0883
39500W        W82412  10.243   7.483  22.024 -0.0980 -0.1415 -0.3514
39501W        W82413   7.666   9.606  23.333  0.2364  0.1032  0.0354
39502W        W82414   9.233   9.372  22.566  0.3559  0.1254 -0.0785
39503W        W82415   8.684   8.920  23.075  0.0001 -0.0349  0.0136
39504W        W82416  10.765   8.225  18.647 -0.2921  0.2124  0.0630
39505W        W82417   6.804  11.116  21.675 -0.1148 -0.0808 -0.1077
39506W        W82418   8.499   7.194  23.872 -0.1450  0.1829 -0.2349
39507W        W82419   8.611  10.185  23.219  0.2801 -0.0101 -0.2408
39508W        W82420   7.122  10.552  19.394  0.0726  0.1797 -0.0669
39509W        W82421   7.220   8.432  21.052 -0.0338  0.1766 -0.1943
39510W        W82422   7.362   9.290  21.530  0.0086  0.1658  0.0769
39511W        W82423   7.694   7.101  22.611  0.0312  0.1704  0.0435
39512W        W82424   6.404   9.242  22.878 -0.0644  0.1406  0.2030
39513W        W82425  10.393   5.310  20.037  0.0927 -0.1974  0.0929
39514W        W82426   6.826   6.620  23.749  0.1688  0.1222  0.0612
39515W        W82427  11.532   6.341  21.642 -0.0670 -0.3729 -0.4166
39516W        W82428   8.394   8.243  21.143 -0.2274 -0.3589  0.1155
39517W        W82429  10.693   9.771  21.594  0.0793  0.4145 -0.0628
39518W        W82430   9.652   8.378  19.722  0.1930 -0.1157  0.1040
39519W        W82431  10.519   8.760  19.631  0.3247 -0.1590  0.0400
39520W        W82432   5.349   8.827  22.046 -0.0245  0.2799  0.3391
39521W        W82433   7.418   7.467  22.686 -0.0866 -0.1831 -0.1180
39522W        W82434   6.573   7.916  22.762 -0.3018 -0.1070 -0.0617
39523W        W82435   7.098   7.457  21.762 -0.1521  0.2422  0.0544
39524W        W82436  10.573   8.444  23.847 -0.1069 -0.2131 -0.0614
39525W        W82437   8.610   6.961  22.133 -0.1766 -0.0617  0.0970
39526W        W82438  10.927   8.337  22.968  0.0820 -0.1616  0.0908
39527W        W82439   8.421   7.501  21.354 -0.2157 -0.1195 -0.2054
39528W        W82440   7.264   9.262  19.874 -0.2732 -0.0308  0.1534
39529W        W82441  10.411   6.609  22.910 -0.0739 -0.0989 -0.1557
39530W        W82442   8.377   9.947  20.865  0.0724  0.0470 -0.3186
39531W        W82443  11.067   9.735  22.455  0.1812  0.1642 -0.2452
39532W        W82444   9.050   8.092  20.987 -0.3926  0.0599 -0.0543
39533W        W82445   8.543   7.767  23.359 -0.3770 -0.1285 -0.0526
39534W        W82446   7.754   6.702  21.979  0.0243 -0.3779  0.2395
39535W        W82447   7.575  11.533  21.965  0.1390 -0.1276  0.0745
39536W        W82448   8.439   8.593  23.723  0.0047  0.0938 -0.2146
39537W        W82449   7.169   7.950  21.313 -0.1581  0.2743 -0.1406
39538W        W82450   9.294   9.870  22.572 -0.0678 -0.0492  0.0708
39539W        W82451   7.973   8.295  21.598  0.1094 -0.1580  0.5205
39540W        W82452   7.677   8.154  23.144 -0.1993  0.1631  0.2303
39541W        W82453  10.366   6.746  21.464 -0.1773 -0.2687  0.1571
39542W        W82454   9.113   9.679  22.162  0.1417 -0.0271 -0.0813
39543W        W82455   9.708   9.054  22.277  0.1545 -0.1718 -0.0153
39544W        W82456   6.680   7.795  21.398 -0.0078 -0.2541  0.0364
39545W        W82457   7.996   8.849  21.883 -0.0421  0.0742  0.2514
39546W        W82458   7.483  10.021  18.902  0.2210  0.0817  0.1118
39547W        W82459   8.327   9.366  23.229  0.2470  0.2474  0.2730
39548W        W82460   8.747   8.451  21.883  0.0437 -0.0637  0.1447
39549W        W82461  10.658   7.724  22.194 -0.1637 -0.1086  0.1510
39550W        W82462   6.969   8.309  22.821  0.4013 -0.2212 -0.1077
39551W        W82463  10.335   6.901  22.459  0.0317 -0.2913 -0.3399
39552W        W82464   6.485   8.506  21.020  0.0184 -0.2130 -0.1707
39553W        W82465   6.504   9.114  23.372  0.0349 -0.3136  0.3331
39554W        W82466  10.475   7.369  22.565 -0.1730  0.1123 -0.3480
39555W        W82467   9.764   7.054  19.163  0.0346 -0.1048  0.0391
39556W        W82468   8.189   8.258  22.938 -0.1195 -0.0909 -0.0755
39557W        W82469   9.528   9.026  21.208  0.0810  0.1193 -0.0390
39558W        W82470   7.596   8.169  17.894 -0.0596  0.2621 -0.5940
39559W        W82471  10.835   6.155  20.291  0.1580 -0.0414 -0.1861
39560W        W82472   8.335  10.791  23.683  0.1282 -0.0358  0.2139
39561W        W82473  10.748   9.777  19.763 -0.1918 -0.3690  0.0057
39562W        W82474   7.894   9.796  20.384  0.0032  0.0729  0.0055
39563W        W82475   9.652   7.416  20.343 -0.0907 -0.2714  0.0067
39564W        W82476   9.690  10.429  21.176  0.0149 -0.0716 -0.1447
39565W        W82477   7.021   7.949  21.857 -0.0192 -0.3544  0.0307
39566W        W82478   8.384   9.049  23.624  0.2420 -0.2836  0.1317
39567W        W82479   8.975   7.927  21.488  0.0815 -0.1399  0.2518
39568W        W82480   9.324   7.325  22.806 -0.0756  0.1755 -0.1730
39569W        W82481   8.386   9.021  20.089  0.0936 -0.1221 -0.0509
39570W        W82482   8.171   7.513  21.803  0.0751 -0.0457 -0.2635
39571W        W82483   6.768  12.465  19.541 -0.0922 -0.3334 -0.1550
39572W        W82484  11.689   7.961  22.836 -0.0156 -0.0584 -0.0745
39573W        W82485  10.481   7.976  23.179 -0.2157  0.5675  0.2239
39574W        W82486  11.640   7.074  23.380 -0.0382 -0.2854  0.3267
39575W        W82487   9.574   9.077  21.740  0.0478  0.1379  0.2830
39576W        W82488   9.487   8.838  20.720 -0.0825  0.2768  0.2667
39577W        W82489   8.256   8.524  20.669 -0.0368 -0.0095  0.0105
39578W        W82490   6.429   8.931  20.589  0.1690  0.1300  0.1583
39579W        W82491   9.839   7.250  22.863  0.1505  0.0130  0.1160
39580W        W82492   6.462   8.425  20.438  0.2569  0.2473 -0.0704
39581W        W82493   7.292  10.184  22.567  0.0073 -0.1508 -0.0720
39582W        W82494   9.994   9.905  23.428 -0.0000  0.1264  0.0430
39583W        W82495   8.747   8.664  20.189  0.1488 -0.2131  0.2570
39584W        W82496  10.383   8.019  24.762 -0.1798  0.1630  0.0701
39585W        W82497   8.680   7.608  20.483  0.1943 -0.0060 -0.0252
39586W        W82498   8.327  10.145  19.297  0.0271 -0.3173  0.1669
39587W        W82499   7.989   9.986  21.243 -0.2608 -0.2310  0.0592
39588W        W82500   7.960   6.312  21.713  0.0969 -0.0881  0.1617
39589W        W82501   9.138   8.123  23.347 -0.1207 -0.1287  0.1598
39590W        W82502   8.302  10.265  18.815  0.1696  0.1266  0.2377
39591W        W82503   7.721   8.666  22.869  0.0122  0.0067  0.1262
39592W        W82504   7.680   9.358  21.970  0.2149 -0.1936  0.0819
39593W        W82505  11.248   8.039  21.967  0.0133  0.0068 -0.2396
39594W        W82506   7.791  10.915  21.368  0.2230 -0.0526  0.0095
39595W        W82507   8.044   7.967  22.159 -0.1764  0.2504  0.0054
39596W        W82508   6.161   8.037  20.553  0.0006 -0.2037 -0.1967
39597W        W82509  11.709   6.705  20.874  0.1504  0.0371  0.0528
39598W        W82510  10.232   8.363  19.810  0.3790 -0.0001  0.2612
39599W        W82511   8.457   7.088  23.069  0.1005 -0.1837 -0.2772
39600W        W82512   9.563   7.167  21.383 -0.2013  0.0463  0.1798
39601W        W82513   5.941   9.937  22.418 -0.2225 -0.1538  0.3563
39602W        W82514   9.033   8.632  20.652  0.0362  0.0807 -0.0508
39603W        W82515   9.109   6.891  21.149  0.0754 -0.1725 -0.0220
39604W        W82516   8.422   9.757  22.911  0.2531 -0.3937 -0.2105
39605W        W82517   8.477   7.711  23.860 -0.1109  0.0561  0.2334
39606W        W82518   5.975   7.151  19.296  0.0994 -0.1302 -0.2970
39607W        W82519   9.319   8.617  22.188  0.0643 -0.0827  0.2118
39608W        W82520   7.453   8.198  21.611 -0.2170  0.3200  0.0148
39609W        W82521   8.695   9.467  20.951 -0.4935  0.1929 -0.4289
39610W        W82522   7.889   8.326  22.452  0.0310  0.1086  0.4273
39611W        W82523   7.350   9.000  21.077  0.0211 -0.5390 -0.1516
39612W        W82524   7.493  10.981  19.908  0.1668 -0.1330 -0.0478
39613W        W82525   6.977   8.125  24.568 -0.0954 -0.0796  0.0923
39614W        W82526   8.881   8.394  21.381  0.3455  0.1944 -0.5026
39615W        W82527   8.438   8.005  21.643  0.0217 -0.1290 -0.0280
39616W        W82528   8.766   7.715  21.001 -0.1203  0.2265 -0.1970
39617W        W82529   9.969   8.280  22.572 -0.2713 -0.1124  0.1610
39618W        W82530   9.084   8.521  23.038  0.1112  0.2190 -0.0073
39619W        W82531   9.597   8.165  21.796  0.1839  0.0789 -0.0907
39620W        W82532   8.873   9.070  23.544  0.2401 -0.0975 -0.1439
39621W        W82533   9.560   6.063  21.064 -0.0018 -0.1206  0.0589
39622W        W82534  10.494  10.709  21.958 -0.0851  0.0318  0.0233
39623W        W82535  10.899   8.000  24.021 -0.1537  0.2608  0.0696
39624W        W82536   8.240   8.085  20.375 -0.0512 -0.1569 -0.1830
39625W        W82537   7.147   9.257  20.665  0.0856 -0.1801 -0.0739
39626W        W82538   9.181   8.082  22.082 -0.1287  0.0051 -0.1789
39627W        W82539   9.901   6.653  21.624  0.3536 -0.0719 -0.3729
39628W        W82540   7.357   9.745  21.854 -0.1259  0.1734  0.0121
39629W        W82541   6.865  10.143  20.237 -0.2110 -0.2753  0.1724
39630W        W82542   7.688   8.975  23.289 -0.2520 -0.0586 -0.2819
39631W        W82543  10.886   7.833  20.772  0.0193  0.0827 -0.3608
39632W        W82544   8.112   9.643  19.939  0.0006 -0.0405  0.0542
39633W        W82545   9.312   8.550  21.626  0.1387 -0.1772  0.0396
39634W        W82546  12.255   7.978  22.890  0.1418 -0.1716  0.0998
39635W        W82547   9.658   7.981  20.254  0.2774  0.0201 -0.3178
39636W        W82548  10.837   8.446  24.324 -0.1965  0.2264 -0.0719
39637W        W82549   8.654   7.167  22.609 -0.3390 -0.3003 -0.2824
39638W        W82550  10.477   8.532  22.709 -0.0631 -0.0029  0.0865
39639W        W82551   6.684   8.607  24.572  0.0383  0.1529  0.2915
39640W        W82552   8.683  11.425  22.925 -0.1535  0.1197  0.0224
39641W        W82553   8.230   9.461  25.295  0.3584  0.0478 -0.0311
39642W        W82554   8.244   7.838  20.849 -0.0395  0.0482  0.0889
39643W        W82555   7.316   6.911  21.778 -0.0035  0.1028 -0.1324
39644W        W82556   8.590   8.457  23.250 -0.3423  0.2055  0.0955
39645W        W82557  12.192   9.556  21.556  0.2159  0.0634  0.1127
39646W        W82558   7.559  10.522  21.358 -0.4230  0.0544  0.3375
39647W        W82559  10.321   7.707  21.417 -0.3572 -0.0491  0.0986
39648W        W82560   7.396   9.220  23.027 -0.0044  0.0876  0.2129
39649W        W82561   9.226   7.691  20.699 -0.0269  0.0364 -0.0345
39650W        W82562   8.663  10.278  21.121 -0.1998 -0.4317 -0.1645
39651W        W82563   8.041   9.077  22.810 -0.0464  0.1181  0.1660
39652W        W82564   7.044   8.913  23.600  0.0331  0.2801  0.3036
39653W        W82565   9.667   9.133  22.804  0.3530 -0.2937  0.0746
39654W        W82566   9.219   7.201  20.452  0.1524 -0.4020  0.2677
39655W        W82567  10.122   7.676  23.043  0.1021 -0.0312  0.1285
39656W        W82568   9.746   7.758  22.650  0.1158  0.2240  0.0911
39657W        W82569   9.440   9.897  25.588 -0.2410  0.3531  0.2844
39658W        W82570   7.628   8.528  24.225  0.1334 -0.2084 -0.1632
39659W        W82571   9.242  10.718  21.945 -0.1290  0.0571  0.2985
39660W        W82572   9.437   8.555  18.416  0.1682  0.1816  0.0597
39661W        W82573  11.398   8.285  23.126  0.0811 -0.3445  0.0558
39662W        W82574   9.879   8.684  21.633  0.1647 -0.0757 -0.1327
39663W        W82575   9.815   8.466  22.131 -0.0919 -0.1259  0.0787
39664W        W82576   7.024   6.982  22.791 -0.1358 -0.2307 -0.1511
39665W        W82577   9.657   8.660  22.658  0.0905  0.0934  0.0295
39666W        W82578   6.968   6.728  19.409 -0.1162 -0.0263  0.0059
39667W        W82579  10.032   6.310  22.995 -0.2290  0.1724 -0.0854
39668W        W82580   9.545   9.348  20.743  0.1124 -0.4150 -0.0796
39669W        W82581   9.046   9.506  20.639  0.0864 -0.0065  0.0908
39670W        W82582   8.973   7.326  21.317  0.0142  0.1402 -0.0260
39671W        W82583   7.809   7.420  22.238  0.0332 -0.1392  0.0014
39672W        W82584   7.187  10.067  23.311  0.0988  0.3230  0.1460
39673W        W82585   8.680   7.303  21.798 -0.0577 -0.1789  0.1354
39674W        W82586   7.868   9.139  19.990  0.2077 -0.1433 -0.0364
39675W        W82587   8.538   9.190  22.733  0.3014  0.0107 -0.1009
39676W        W82588  11.030   8.940  24.210  0.3519  0.1130  0.2402
39677W        W82589   8.138   8.216  19.182  0.2211  0.2577 -0.1273
39678W        W82590  12.152   7.962  23.376 -0.1867  0.0900 -0.1331
39679W        W82591   7.461   8.345  19.928 -0.1976  0.2796  0.1011
39680W        W82592  10.692   6.348  21.581 -0.0321  0.1109 -0.0533
39681W        W82593   6.009  10.242  23.058  0.1988 -0.3728 -0.0557
39682W        W82594   5.836   8.961  22.148  0.2258 -0.0132 -0.2412
39683W        W82595   8.069  10.258  20.560  0.2076 -0.0614 -0.1772
39684W        W82596   9.817   7.732  21.540 -0.1205 -0.2633 -0.0512
39685W        W82597  10.192   9.701  21.568 -0.2443  0.0403 -0.0607
39686W        W82598   9.290   8.546  21.087  0.3647 -0.0057 -0.1595
39687W        W82599   8.897   9.361  23.108  0.1439 -0.0881  0.0414
39688W        W82600   9.012   8.606  23.560  0.2461  0.0474 -0.2053
39689W        W82601   8.505   8.206  24.089 -0.0128  0.0201  0.1129
39690W        W82602   8.143   8.825  23.260 -0.0439  0.0197 -0.1058
39691W        W82603  10.498   9.460  21.021 -0.0873  0.3950  0.2071
39692W        W82604   8.035  10.548  21.048  0.0336 -0.0974 -0.0671
39693W        W82605   7.436   9.279  23.620 -0.1749  0.0083  0.0276
39694W        W82606   7.791   8.808  23.780 -0.0431  0.0997 -0.3019
39695W        W82607   8.852  10.072  18.800 -0.2613  0.2097  0.0510
39696W        W82608   7.500   7.094  22.148 -0.0631 -0.3145 -0.1000
39697W        W82609   8.043   8.834  20.360 -0.0920 -0.1128 -0.1181
39698W        W82610   6.947   9.930  23.969  0.1692  0.0433 -0.2000
39699W        W82611   7.630   9.214  22.518 -0.0844 -0.1719  0.2821
39700W        W82612   8.223   9.562  21.250 -0.1803  0.2189 -0.2222
39701W        W82613   9.097   9.351  21.209  0.1288 -0.0820  0.1960
39702W        W82614   7.985   9.578  19.449 -0.1120  0.0377  0.0402
39703W        W82615   8.379  10.526  21.476 -0.3029  0.3834 -0.0615
39704W        W82616   7.985   7.963  18.793 -0.0845 -0.1270 -0.0516
39705W        W82617   6.990  11.424  22.043 -0.1288 -0.1595  0.2295
39706W        W82618   6.549   8.332  19.680  0.4226  0.3266  0.0678
39707W        W82619   9.782  10.103  18.986  0.2194 -0.0350  0.0664
39708W        W82620   7.625  10.107  21.610  0.0471  0.1967  0.1692
39709W        W82621   9.697   9.654  22.393  0.2898  0.2655 -0.0087
39710W        W82622   9.550   7.684  19.838  0.0170 -0.1805 -0.0173
39711W        W82623   9.620   8.962  19.453  0.3365 -0.0124  0.0599
39712W        W82624  11.006   7.377  19.899  0.0975  0.0997 -0.1808
39713W        W82625  10.056  10.491  23.922  0.4667  0.0562 -0.0654
39714W        W82626   7.843   7.800  22.653  0.1187  0.1334  0.0818
39715W        W82627  10.098   7.442  20.127 -0.0907  0.1253  0.1256
39716W        W82628   7.328   9.570  24.180  0.1486 -0.0947  0.0006
39717W        W82629  11.077   6.103  22.538  0.1058  0.0049  0.1874
39718W        W82630   8.210  10.331  23.570 -0.1441 -0.1909  0.1155
39719W        W82631  10.367  10.790  21.408  0.2764 -0.1889  0.0038
39720W        W82632   5.956   7.716  21.323  0.0667  0.3044 -0.0576
39721W        W82633   8.836   8.788  22.332  0.0142  0.0419 -0.1171
39722W        W82634  12.399   7.026  21.433 -0.0476  0.0952  0.3483
39723W        W82635   7.764   7.182  21.738 -0.1961  0.0742  0.1473
39724W        W82636   8.561   8.132  22.380 -0.4466 -0.0629  0.1383
39725W        W82637   9.011  11.188  22.017 -0.3692  0.1844  0.2578
39726W        W82638   7.649  10.181  22.255  0.1716  0.3139  0.0395
39727W        W82639   7.908   9.554  22.902  0.0538 -0.1200 -0.0099
39728W        W82640   6.115   6.219  22.059 -0.0220 -0.0964  0.0806
39729W        W82641   9.465   8.453  20.221  0.0234  0.1525 -0.1984
39730W        W82642   7.868   9.776  24.229  0.0219  0.0099  0.0892
39731W        W82643   9.961   7.563  24.262  0.0566 -0.2940  0.1340
39732W        W82644   8.020   7.370  23.974 -0.0142  0.0464  0.1864
39733W        W82645  10.015   8.702  20.141  0.1696  0.1464 -0.2276
39734W        W82646   8.688   8.946  23.987  0.1388 -0.1043 -0.1534
39735W        W82647   8.737   8.164  23.619 -0.2251 -0.0594  0.0504
39736W        W82648   8.616   8.347  19.109 -0.2833  0.2016  0.2481
39737W        W82649   8.690   9.673  22.472  0.1062  0.1856 -0.1753
39738W        W82650   7.940   7.234  21.201 -0.2352  0.1880 -0.2471
39739W        W82651   9.684  10.209  22.744  0.1387  0.3521  0.1607
39740W        W82652   8.748   7.524  22.946 -0.0169  0.2549  0.1325
39741W        W82653   8.981   8.167  19.411  0.1876 -0.0886  0.0357
39742W        W82654   8.150   9.253  22.252  0.0854 -0.1572  0.0746
39743W        W82655   9.626   7.670  23.089  0.2096 -0.1936  0.0307
39744W        W82656  10.178   9.834  23.983 -0.3029 -0.1270  0.0770
39745W        W82657   7.778   6.748  21.448  0.0373 -0.0979  0.0682
39746W        W82658  10.278  10.377  20.640  0.1303 -0.2333 -0.0908
39747W        W82659   9.802   9.645  22.891  0.0506 -0.1909  0.3892
39748W        W82660   8.617  10.218  19.711 -0.1627 -0.2156  0.0168
39749W        W82661   8.986   8.243  20.247 -0.0153 -0.0834  0.2271
39750W        W82662   8.943   9.996  20.750 -0.0110  0.2737 -0.2780
39751W        W82663   6.536   8.239  22.030  0.0617  0.3906  0.3953
39752W        W82664   8.430   8.680  21.516  0.3332 -0.0736  0.1105
39753W        W82665   8.846  10.019  22.830 -0.0783 -0.2070 -0.2089
39754W        W82666   9.791   6.920  20.476  0.3314 -0.1705 -0.1282
39755W        W82667   7.485   6.724  22.902 -0.0505 -0.1920  0.0193
39756W        W82668   6.209   9.721  21.004  0.2278 -0.0038 -0.0259
39757W        W82669  10.288   8.297  22.230 -0.3626 -0.2920  0.0791
39758W        W82670  11.151   7.888  23.293 -0.2993  0.0506 -0.1088
39759W        W82671   8.048  10.690  18.559  0.2035 -0.0015  0.2708
39760W        W82672  11.147   7.124  23.575  0.0110  0.5084  0.2403
39761W        W82673   8.302   9.918  23.908 -0.1905 -0.2270  0.2997
39762W        W82674   8.386   9.784  23.421  0.1469  0.1238 -0.1782
39763W        W82675   6.719   8.895  22.107  0.0246 -0.3015  0.2171
39764W        W82676   7.940   9.275  23.656  0.2188 -0.1638  0.2150
39765W        W82677   8.976   7.575  19.655  0.1835 -0.0844 -0.0141
39766W        W82678   8.025  10.656  21.915  0.1292  0.2348  0.1251
39767W        W82679   9.192   8.909  20.271 -0.2126 -0.0695  0.1888
39768W        W82680   7.815   8.400  20.295  0.1990 -0.4021  0.1463
39769W        W82681   9.267   9.928  21.634 -0.3559  0.0951 -0.1672
39770W        W82682   8.368   7.519  22.326  0.2250 -0.2042 -0.2098
39771W        W82683  10.535   7.131  20.289 -0.0896  0.0744 -0.1192
39772W        W82684  11.163   6.677  21.350  0.2351  0.1037  0.1758
39773W        W82685   8.237   8.742  22.398  0.2455 -0.1888  0.2538
39774W        W82686   7.039   7.482  20.505  0.0521  0.0131  0.3770
39775W        W82687   7.781  10.064  19.538 -0.1428  0.3719  0.1328
39776W        W82688   7.165   9.872  21.278  0.2475  0.0502  0.2662
39777W        W82689   8.993   7.751  23.715  0.5102  0.3334 -0.1148
39778W        W82690   7.988   8.193  23.939  0.1037 -0.1250 -0.0689
39779W        W82691   7.067   9.500  22.610  0.0887  0.2290  0.1034
39780W        W82692   8.149   7.521  18.917  0.3202  0.0471 -0.4328
39781W        W82693   8.824   9.344  19.648 -0.1616 -0.2979 -0.1450
39782W        W82694   8.984   7.078  23.110  0.2340  0.2235  0.2487
39783W        W82695   6.876   7.495  22.527 -0.3294  0.2420  0.2042
39784W        W82696   9.594   8.878  19.946 -0.2130  0.2610  0.0846
39785W        W82697   9.815   9.989  21.328 -0.1538 -0.1726 -0.3861
39786W        W82698   8.966   7.331  22.267  0.3336 -0.2903  0.1841
39787W        W82699   9.485  10.036  24.885 -0.0121 -0.1896 -0.1635
39788W        W82700   5.909   8.442  21.206  0.1294 -0.1702  0.2226
39789W        W82701  10.240   8.059  23.679 -0.1746 -0.0117  0.0229
39790W        W82702   8.127   5.741  23.495 -0.1275  0.1647 -0.1007
39791W        W82703   6.477   7.011  21.322  0.0960 -0.1517  0.3992
39792W        W82704   9.224   7.668  21.806  0.0264  0.2558  0.0197
39793W        W82705   8.713  10.791  21.133  0.2549  0.1090 -0.2080
39794W        W82706   8.412  10.932  20.364 -0.2026 -0.0778  0.0631
39795W        W82707   8.048   8.380  23.468  0.2018 -0.2956 -0.0030
39796W        W82708   8.735  10.582  23.455 -0.0274  0.0315  0.3632
39797W        W82709   6.308   7.356  22.852 -0.2154 -0.0037  0.2486
39798W        W82710   8.501   9.531  20.514  0.0164  0.0426 -0.2578
39799W        W82711   8.558  10.457  21.920  0.1095  0.0073 -0.1640
39800W        W82712  10.059   8.986  19.678 -0.2199 -0.0910 -0.0795
39801W        W82713  10.660   8.936  21.769  0.1095 -0.1965  0.0565
39802W        W82714   9.118   7.618  20.174 -0.0196  0.1377  0.0396
39803W        W82715   6.664   6.716  22.358 -0.0060  0.2923 -0.1392
39804W        W82716   6.012   9.422  21.893  0.0217 -0.0027 -0.2493
39805W        W82717  11.281  10.063  20.942 -0.1496 -0.0348 -0.1115
39806W        W82718   9.096   7.041  21.887  0.3122 -0.4467 -0.0739
39807W        W82719   8.879   7.235  20.808 -0.3466 -0.1891  0.1604
39808W        W82720   8.651   8.147  20.661  0.0194 -0.3158 -0.2310
39809W        W82721   7.269   7.857  20.818 -0.0829 -0.4083  0.1751
39810W        W82722   8.953   7.131  19.354  0.2927  0.2874 -0.1791
39811W        W82723   7.203   7.893  22.947  0.0896 -0.3143 -0.0810
39812W        W82724   8.507   8.932  21.970  0.1391  0.5282  0.1320
39813W        W82725   9.399   8.759  23.844 -0.0874 -0.1639  0.0050
39814W        W82726   9.477   8.161  21.344 -0.0365 -0.1299  0.5658
39815W        W82727   9.530   8.412  19.254  0.0862  0.0918 -0.2045
39816W        W82728   9.778  10.172  22.227 -0.0439 -0.2866  0.0294
39817W        W82729  12.214  11.201  25.178  0.0279 -0.0854 -0.2000
39818W        W82730   8.351  10.734  22.340  0.1126  0.0751 -0.0989
39819W        W82731  10.947   8.663  22.514 -0.1648 -0.2785 -0.1457
39820W        W82732   8.509   6.428  21.808  0.3108  0.0993 -0.0561
39821W        W82733   7.643   8.653  21.346  0.0480  0.0580 -0.0132
39822W        W82734   7.669   8.452  21.986  0.1171 -0.2388 -0.0612
39823W        W82735  10.889   8.153  22.506  0.1224 -0.1422 -0.2204
39824W        W82736   8.752   7.719  22.038 -0.2303  0.2765  0.1343
39825W        W82737  10.003   6.463  20.094  0.4053 -0.1173  0.3500
39826W        W82738   8.388  10.848  22.813 -0.0374 -0.1079 -0.4662
39827W        W82739   8.618   8.528  22.721 -0.0226  0.1655 -0.1513
39828W        W82740   9.043   8.937  26.442 -0.1217  0.1010 -0.0132
39829W        W82741   7.190   8.588  24.453  0.1072 -0.0327  0.0674
39830W        W82742   9.947   7.302  23.338 -0.2093 -0.0648 -0.1167
39831W        W82743  11.325   9.141  24.991  0.1738 -0.0372 -0.2844
39832W        W82744   7.753   9.250  24.230  0.1229 -0.0165 -0.3150
39833W        W82745  11.135  10.659  24.779  0.0752 -0.2129 -0.1270
39834W        W82746   8.599   7.830  26.942 -0.2288  0.2192  0.1767
39835W        W82747  10.425  10.333  24.824  0.3528 -0.2296 -0.0558
39836W        W82748  10.970  10.543  26.487  0.2937  0.2973 -0.2556
39837W        W82749   9.297   8.932  24.278  0.0006  0.0400  0.2403
39838W        W82750   7.878   8.581  25.097 -0.0028 -0.1568 -0.1376
39839W        W82751   9.775  10.656  25.794 -0.4245 -0.1346 -0.1058
39840W        W82752   7.930   8.825  25.537  0.0346  0.1431 -0.2162
39841W        W82753   7.650   7.979  27.112 -0.0555 -0.2705 -0.0733
39842W        W82754  10.851   8.766  25.918 -0.1793  0.0384  0.4007
39843W        W82755   7.290  10.497  25.448 -0.1938  0.0971 -0.1607
39844W        W82756   7.665   8.790  24.630 -0.1693 -0.1151 -0.0831
39845W        W82757   8.299  10.193  24.359 -0.1224  0.0277  0.1850
39846W        W82758  10.136   9.378  26.228 -0.0406  0.1150 -0.2848
39847W        W82759   9.098   7.730  25.589  0.0893  0.0655  0.3216
39848W        W82760   9.170   8.400  26.588  0.1906  0.2672 -0.1378
39849W        W82761  10.350   8.988  23.382  0.6168 -0.0487  0.6786
39850W        W82762   6.278   8.259  23.452 -0.2655 -0.1794 -0.0674
39851W        W82763   7.202   8.753  26.633 -0.1123 -0.2260 -0.1369
39852W        W82764   8.125   8.197  26.209  0.2474  0.2046 -0.3597
39853W        W82765  10.842   8.583  25.258  0.0461  0.1913 -0.1545
39854W        W82766  10.350   8.589  25.911 -0.4610 -0.2590  0.0729
39855W        W82767   8.434   9.060  25.464 -0.4789  0.0001  0.1765
39856W        W82768  10.541  10.757  26.284  0.0482 -0.4169 -0.3550
39857W        W82769   9.968   7.480  27.010 -0.1851 -0.3924  0.3817
39858W        W82770   7.631  11.051  24.361  0.0125  0.2941 -0.1571
39859W        W82771   7.605  10.110  25.401 -0.0028 -0.1741 -0.0554
39860W        W82772   9.276  11.113  24.092 -0.2352 -0.1106 -0.0878
39861W        W82773  10.228   9.388  24.782  0.0014 -0.1136  0.0867
39862W        W82774  10.698  10.764  26.789  0.0935 -0.1405 -0.1414
39863W        W82775   9.380  10.877  28.245 -0.2545  0.1301  0.0567
39864W        W82776   6.859  10.991  23.794  0.0924  0.3201  0.0663
39865W        W82777  10.366  11.242  27.719 -0.2526 -0.0055  0.0288
39866W        W82778   9.204  10.898  27.407  0.0009 -0.0147  0.0464
39867W        W82779   9.732  10.075  23.959 -0.0332 -0.2639 -0.1467
39868W        W82780   9.927   9.424  27.034 -0.0582 -0.0771 -0.1832
39869W        W82781   9.812  11.526  26.044 -0.1099 -0.1755 -0.0924
39870W        W82782   9.784   9.411  25.859  0.1516 -0.1193  0.1631
39871W        W82783   8.961   8.569  28.738  0.1542  0.2024  0.4953
39872W        W82784   7.556  11.131  25.320  0.2368 -0.1275  0.2919
39873W        W82785  10.970   8.836  26.439  0.2306  0.3358  0.0658
39874W        W82786   7.888  10.331  23.950  0.0522 -0.3392 -0.0896
39875W        W82787  10.464   8.478  23.186 -0.1689  0.0339 -0.1535
39876W        W82788   7.274   8.487  23.861 -0.0042  0.1690 -0.0229
39877W        W82789  10.898   8.179  23.562 -0.0651 -0.0378  0.0533
39878W        W82790   8.537   9.544  25.682 -0.1790 -0.0125  0.1345
39879W        W82791   9.914  10.602  24.815 -0.3113  0.2725 -0.1527
39880W        W82792   8.557   8.604  26.239 -0.2133 -0.0130  0.2504
39881W        W82793  10.182   8.415  25.379 -0.2079  0.0410  0.0221
39882W        W82794   8.760   9.658  25.231  0.1364  0.1014 -0.0135
39883W        W82795   9.020   7.669  26.501 -0.1405 -0.2917 -0.2225
39884W        W82796   7.933  11.761  25.964  0.4801  0.0802  0.1788
39885W        W82797   7.019   8.117  25.828  0.3027  0.1595 -0.1635
39886W        W82798  10.335  10.237  21.580  0.0631 -0.3218 -0.0611
39887W        W82799   9.834  10.133  25.622 -0.1985 -0.3856 -0.2120
39888W        W82800   9.222  10.433  23.199 -0.2569  0.0739  0.0770
39889W        W82801   7.786  10.227  24.449 -0.1226 -0.1670 -0.0494
39890W        W82802   8.861   9.554  26.191  0.1720  0.3959  0.2056
39891W        W82803   8.166   8.658  26.990 -0.2074  0.3644  0.1956
39892W        W82804   8.774   6.785  23.951  0.0195  0.0918 -0.0753
39893W        W82805  11.510   9.181  25.775 -0.2260  0.3930  0.1051
39894W        W82806   8.621   9.814  26.629  0.0694 -0.2327  0.0739
39895W        W82807  11.887   6.720  25.950  0.0063 -0.0018 -0.0585
39896W        W82808  10.287  10.307  25.523 -0.0212 -0.0764 -0.1615
39897W        W82809  10.635  10.647  25.731  0.3561  0.0487 -0.0011
39898W        W82810  10.114   9.977  22.525 -0.2724 -0.2319 -0.1002
39899W        W82811  10.586   8.162  26.772 -0.1419  0.0139 -0.2395
39900W        W82812  10.155   9.738  27.701 -0.4110 -0.2292 -0.1043
39901W        W82813   8.578  10.944  24.111 -0.1127 -0.3923  0.0513
39902W        W82814   8.796  10.109  24.212 -0.2896  0.2288 -0.1226
39903W        W82815  12.623   9.504  25.472  0.4011  0.1857  0.1875
39904W        W82816  10.532   7.659  24.037 -0.1469 -0.3025 -0.0391
39905W        W82817   7.844  11.210  26.375  0.1056 -0.0857  0.0023
39906W        W82818  11.190   8.256  25.323  0.1217  0.1670 -0.0210
39907W        W82819  10.390  10.018  28.086 -0.2120  0.1067 -0.0645
39908W        W82820   7.558  10.204  23.009  0.1085  0.0566 -0.1834
39909W        W82821   6.692   9.388  24.932 -0.0132  0.0117  0.0209
39910W        W82822   6.972   9.894  22.304  0.0703 -0.1217 -0.1107
39911W        W82823   7.443   8.892  27.063 -0.0151  0.0289  0.1726
39912W        W82824   7.610   9.009  25.078 -0.0961  0.1562  0.0267
39913W        W82825   9.114   7.174  23.695  0.0386 -0.2954 -0.1256
39914W        W82826   7.668   7.734  23.951 -0.2348 -0.1568  0.3706
39915W        W82827  12.231   8.264  26.080  0.2472  0.0506 -0.1838
39916W        W82828   8.886  11.039  23.661 -0.0734  0.3708 -0.1676
39917W        W82829  10.512   9.918  23.420 -0.1027  0.1077  0.0238
39918W        W82830  11.015   7.801  24.972 -0.0483  0.0903 -0.0786
39919W        W82831   7.696  10.415  23.426  0.1051 -0.2524  0.2277
39920W        W82832   7.879   8.040  24.922  0.0857 -0.4520 -0.3712
39921W        W82833   8.582   7.994  24.556  0.2529 -0.2987 -0.1931
39922W        W82834   8.955   7.775  28.625 -0.0970  0.1125  0.0706
39923W        W82835   7.605   7.913  25.294  0.0673 -0.1530 -0.2660
39924W        W82836  10.819   9.935  27.208 -0.0538  0.0273 -0.1504
39925W        W82837   6.622   7.716  24.696 -0.0131  0.3534 -0.0944
39926W        W82838  10.039   9.022  24.467  0.3496 -0.0294  0.0102
39927W        W82839   7.787   9.734  25.066 -0.0376 -0.1631 -0.1362
39928W        W82840   6.839  10.476  23.632 -0.1213 -0.3141  0.0794
39929W        W82841  11.078   8.395  26.691 -0.1946 -0.2074 -0.1436
39930W        W82842   8.814  11.060  24.581  0.2205 -0.2077  0.1167
39931W        W82843  11.956  10.407  26.297  0.1432 -0.1548  0.0554
39932W        W82844  11.351   8.669  25.739 -0.1403  0.1348  0.1095
39933W        W82845   8.374   9.532  26.271  0.1428 -0.4018 -0.1341
39934W        W82846   8.999   9.329  24.266  0.1400 -0.0547  0.0097
39935W        W82847   8.030  11.261  24.057 -0.3251 -0.0292  0.4251
39936W        W82848   9.394   9.399  25.516  0.0514 -0.2744  0.3156
39937W        W82849   6.539   9.159  23.884 -0.1052  0.3661  0.2285
39938W        W82850  11.026  10.943  25.541 -0.3934  0.1475 -0.2483
39939W        W82851  10.402   8.902  24.047  0.2083 -0.0040  0.1702
39940W        W82852   8.686   9.232  26.569  0.0354 -0.0171 -0.2712
39941W        W82853   9.796   8.624  25.808 -0.1492 -0.1048 -0.0268
39942W        W82854  11.553   8.917  25.363 -0.2110 -0.0052 -0.3387
39943W        W82855   8.985   9.201  24.867  0.0462  0.0550 -0.0439
39944W        W82856   7.764   6.364  22.869 -0.2545  0.2880 -0.0616
39945W        W82857  10.572   9.537  26.089  0.1869 -0.2054 -0.1392
39946W        W82858   8.806  11.482  23.405 -0.2063 -0.1987 -0.1832
39947W        W82859   7.003   9.274  23.912 -0.1783  0.0282 -0.1902
39948W        W82860  10.901  10.061  24.785 -0.0331  0.2083 -0.0038
39949W        W82861  11.747   7.881  26.081 -0.1113  0.3221  0.0142
39950W        W82862   7.112   9.235  26.791  0.3599  0.0176 -0.0870
39951W        W82863   9.216  10.616  26.396  0.0502 -0.1540 -0.0616
39952W        W82864   7.392   9.830  23.697 -0.3881  0.1699  0.0200
39953W        W82865   9.196  10.184  28.222  0.0073 -0.0307 -0.0652
39954W        W82866  10.483   6.657  24.836  0.1100  0.1938 -0.1411
39955W        W82867  10.461   6.982  25.194 -0.2706  0.0729  0.1783
39956W        W82868   9.510   9.052  26.143 -0.0274 -0.2941  0.3133
39957W        W82869  13.039   9.686  25.744  0.4875  0.0677 -0.1978
39958W        W82870  11.771   8.868  23.651  0.1581  0.0506  0.0146
39959W        W82871   8.442   9.456  24.804  0.1778  0.2352 -0.4628
39960W        W82872   8.072   9.931  27.595  0.3199  0.2341  0.0091
39961W        W82873   9.266  11.147  25.959 -0.0576 -0.3246 -0.0055
39962W        W82874  10.834   9.991  25.653  0.2506 -0.0919 -0.5599
39963W        W82875   9.404  10.055  24.302  0.0828 -0.1507 -0.3632
39964W        W82876  11.102   9.383  23.939 -0.1388  0.0309 -0.3924
39965W        W82877   7.931   9.840  25.686 -0.0168 -0.1037 -0.2850
39966W        W82878  10.352  10.835  27.213 -0.3543  0.0274 -0.2315
39967W        W82879  11.162  10.148  25.211  0.3087  0.0290  0.4546
39968W        W82880   8.358   8.230  26.715  0.1343  0.0005  0.0623
39969W        W82881   7.400   8.977  24.079 -0.0195  0.0099  0.3269
39970W        W82882  10.762   7.226  24.168  0.0014  0.1623  0.0235
39971W        W82883   6.615  11.331  23.456 -0.0661 -0.1139 -0.0450
39972W        W82884  11.583   7.378  24.455  0.3033  0.1636 -0.0221
39973W        W82885   8.039   8.631  26.480 -0.1360 -0.1971 -0.1471
39974W        W82886   8.444   7.376  26.998  0.1423 -0.3493  0.1471
39975W        W82887   9.373   7.592  28.183  0.1567  0.0426  0.3066
39976W        W82888   9.869   9.738  24.748 -0.2807  0.3789 -0.0153
39977W        W82889  10.870  10.325  26.073  0.3170  0.1162  0.0886
39978W        W82890   5.927   9.310  23.107  0.0830  0.0006 -0.3555
39979W        W82891   9.056   7.979  26.876 -0.0849 -0.4238 -0.1901
39980W        W82892   8.468   8.269  25.859  0.0210  0.1999  0.1458
39981W        W82893   8.945  10.053  27.001 -0.0414  0.0347  0.0668
39982W        W82894  12.058   9.677  26.206  0.0388 -0.1324  0.1641
39983W        W82895  11.519  11.007  24.991 -0.2832 -0.0426  0.4284
39984W        W82896   9.970   8.825  27.573  0.0131 -0.1031  0.3851
39985W        W82897   8.584   8.824  24.897 -0.0618 -0.3230 -0.1635
39986W        W82898   9.300   9.598  25.105 -0.0866 -0.1106  0.3904
39987W        W82899   9.050  10.089  25.257 -0.2449 -0.1516  0.0764
39988W        W82900   7.832   8.785  26.014  0.1584  0.0928  0.0035
39989W        W82901   9.094  10.051  25.964 -0.1075 -0.1055 -0.0925
39990W        W82902   6.876   8.995  23.090  0.3042  0.1710 -0.1147
39991W        W82903  10.642   9.327  27.955 -0.0637 -0.0928  0.0572
39992W        W82904   9.633  10.303  26.296  0.2406 -0.1806  0.1647
39993W        W82905  10.096   6.021  25.310 -0.0534  0.1744  0.3797
39994W        W82906   7.495   9.860  25.977  0.2484 -0.1832 -0.0622
39995W        W82907   8.967   8.556  24.124 -0.1781  0.1586 -0.1556
39996W        W82908   7.407   9.032  25.748 -0.0446  0.0999  0.1759
39997W        W82909  11.091   9.140  25.478 -0.0261 -0.0128 -0.1359
39998W        W82910  11.716   8.267  24.032 -0.1104  0.1740 -0.1759
39999W        W82911   8.790   8.292  24.956  0.5697 -0.2285  0.0773
40000W        W82912  10.320   8.547  26.433 -0.1209 -0.3690  0.1486
40001W        W82913   7.310   9.494  27.137  0.1385  0.1643 -0.1137
40002W        W82914  10.640   9.262  26.914 -0.1558  0.3735  0.0652
40003W        W82915  12.090   7.822  23.830 -0.2262  0.2401  0.2301
40004W        W82916  10.222  11.400  25.618 -0.1905  0.0518  0.0175
40005W        W82917   9.442   8.397  27.858  0.2981 -0.1547 -0.0235
40006W        W82918   5.898   9.012  25.967 -0.2935  0.0587  0.4069
40007W        W82919  10.411   7.438  24.469  0.2401 -0.1562  0.1558
40008W        W82920   7.875   8.081  26.694 -0.0918 -0.0193 -0.0781
40009W        W82921   8.686  10.373  25.033 -0.1433  0.0319  0.3763
40010W        W82922   9.887   9.893  27.222 -0.0977  0.2238  0.2272
40011W        W82923   7.423  10.584  24.322  0.1905  0.1718 -0.2730
40012W        W82924   8.081  10.332  25.398  0.0741 -0.1735 -0.0101
40013W        W82925   9.783   8.860  28.027  0.0584  0.2250 -0.0402
40014W        W82926  10.644   8.315  27.249 -0.0682 -0.4045  0.0175
40015W        W82927   9.501   8.539  26.180 -0.1027  0.1208 -0.1793
40016W        W82928   6.777   6.645  24.331 -0.0530 -0.0644 -0.0358
40017W        W82929   9.652   8.663  24.513 -0.2074  0.1528  0.0576
40018W        W82930  11.234   9.572  25.662  0.1194  0.3748  0.1141
40019W        W82931   9.905   8.329  27.500 -0.1229 -0.0632 -0.2947
40020W        W82932   8.474   9.752  28.041  0.0061  0.1881  0.0460
40021W        W82933   9.322   8.083  25.312 -0.0660 -0.1004  0.3241
40022W        W82934   9.455  10.929  24.644  0.0937 -0.1194  0.1460
40023W        W82935  11.099   8.862  28.667  0.0698  0.1927 -0.2294
40024W        W82936   7.891   9.948  23.530  0.2406 -0.0542  0.0061
40025W        W82937   7.220   9.437  25.911 -0.1274  0.2250  0.1698
40026W        W82938   8.485  10.392  23.930 -0.0371  0.0011 -0.2309
40027W        W82939   9.694   8.438  25.292 -0.2013 -0.1743 -0.0181
40028W        W82940   8.561  10.576  24.566  0.0017 -0.2586  0.1288
40029W        W82941   9.108   9.784  23.838  0.0260  0.1204 -0.1577
40030W        W82942   9.063  11.306  27.109 -0.2841 -0.0843 -0.0785
40031W        W82943  11.574   7.792  24.145  0.1126 -0.0739  0.0066
40032W        W82944   9.755   9.370  25.140 -0.2024 -0.0940 -0.0818
40033W        W82945   9.820   8.826  24.948  0.0959  0.0209  0.1081
40034W        W82946  11.564   7.583  24.946 -0.0970 -0.0834  0.1026
40035W        W82947  11.134   8.624  23.363  0.1497 -0.1167  0.2045
40036W        W82948   8.895   7.679  27.315 -0.1078  0.0371 -0.0559
40037W        W82949   8.936   8.286  25.609 -0.0378 -0.1748  0.0220
40038W        W82950  12.394  10.053  26.293  0.2227  0.0063  0.1441
40039W        W82951   7.318   7.881  26.203  0.0641  0.1899  0.1349
40040W        W82952  10.177  10.297  28.457 -0.0764  0.1632 -0.0177
40041W        W82953   9.058   9.815  27.950  0.0066  0.0964 -0.1132
40042W        W82954   8.665   7.815  25.015 -0.4479 -0.0125 -0.3743
40043W        W82955   7.861   7.939  23.520  0.0327 -0.0773  0.0902
40044W        W82956   8.904  10.570  25.452 -0.0039  0.1362 -0.2005
40045W        W82957  10.244   7.984  25.643  0.0555 -0.0913  0.0108
40046W        W82958  10.419   9.821  24.759 -0.1258 -0.1073 -0.3587
40047W        W82959  11.647   7.227  25.257  0.1411  0.3301 -0.0038
40048W        W82960   7.863  10.767  25.602 -0.1615  0.0800 -0.0467
40049W        W82961   9.477   9.288  24.612  0.0320 -0.2448  0.0256
40050W        W82962   8.516   9.709  24.324  0.1749  0.2164 -0.3726
40051W        W82963   7.685  10.716  25.143 -0.0996  0.2107  0.0500
40052W        W82964  10.016   8.144  26.774  0.3883  0.0157 -0.1517
40053W        W82965  10.827   8.355  25.729  0.2223 -0.0165 -0.0804
40054W        W82966  11.358   7.670  25.435 -0.0431 -0.1491  0.0842
40055W        W82967   9.563   9.097  28.410  0.3189 -0.0115  0.2161
40056W        W82968   9.542   7.587  25.294  0.1340  0.0109  0.3083
40057W        W82969   8.959   9.059  26.986  0.1174 -0.1750  0.1324
40058W        W82970   6.582   9.166  26.569 -0.0203 -0.1600 -0.3989
40059W        W82971  11.068   9.820  26.078 -0.0219  0.1865  0.1594
40060W        W82972  11.511   7.497  23.715  0.3271  0.0442 -0.3201
40061W        W82973   9.436   7.953  26.356 -0.3637 -0.0122  0.1891
40062W        W82974  10.768   9.187  25.060 -0.1538 -0.0984  0.1731
40063W        W82975   8.229   8.623  24.147 -0.2607 -0.0736  0.1512
40064W        W82976   9.079  10.464  24.469 -0.0540 -0.1407  0.1598
40065W        W82977  11.310  10.733  27.099 -0.0180 -0.1353  0.0958
40066W        W82978   6.710   8.120  23.202  0.0643  0.1933 -0.2078
40067W        W82979   9.499   7.746  28.623 -0.1351  0.3751 -0.3561
40068W        W82980   9.493  10.520  24.059  0.1093  0.1937 -0.0366
40069W        W82981  10.065   7.770  25.186  0.0486  0.5087 -0.1942
40070W        W82982   9.903   8.844  24.005  0.3771  0.0634 -0.0141
40071W        W82983   7.566   8.107  25.791 -0.1485  0.1275 -0.3761
40072W        W82984   7.893  10.725  27.109 -0.1209  0.3839 -0.2220
40073W        W82985   6.409   8.596  24.160 -0.1138  0.1453 -0.1681
40074W        W82986  10.862   9.437  24.612  0.1928 -0.1028 -0.0760
40075W        W82987  10.212   9.681  25.723  0.2333  0.1905  0.0715
40076W        W82988  11.625   8.998  27.961  0.0580  0.0703  0.1268
40077W        W82989   9.053   9.159  25.893  0.3102  0.0906  0.1774
40078W        W82990  11.725   8.373  25.937 -0.1080 -0.0592  0.1352
40079W        W82991   6.268  10.510  23.505 -0.2587 -0.0590 -0.0282
40080W        W82992   9.045   8.648  24.713  0.0368 -0.0923  0.0317
40081W        W82993   9.315  11.499  26.286  0.2913 -0.1311  0.1945
40082W        W82994   7.995   9.949  26.729 -0.0341 -0.1571  0.1549
40083W        W82995   9.503  11.506  24.521  0.0181  0.0545 -0.2431
40084W        W82996   8.919   9.203  25.376  0.1038  0.1385 -0.1093
40085W        W82997   9.756   7.978  25.535  0.0702  0.0477  0.0423
40086W        W82998   9.886   8.914  27.114 -0.0610 -0.0387 -0.0733
40087W        W82999  11.590   9.607  26.070  0.3457  0.2697 -0.0600
40088W        W83000   9.468  10.372  25.321  0.3363 -0.1404 -0.2547
40089W        W83001   9.195   9.918  26.563 -0.0209  0.1701  0.1583
40090W        W83002  10.286  11.487  26.658 -0.1095  0.0145  0.1850
40091W        W83003  10.755   7.836  25.607  0.0470 -0.0551  0.1450
40092W        W83004   8.382  10.703  25.550 -0.1120  0.0932 -0.0656
40093W        W83005   7.314   9.079  26.239 -0.1008 -0.0851  0.1034
40094W        W83006   9.388   9.708  27.193 -0.1732  0.0451  0.1226
40095W        W83007  10.057   9.882  26.161 -0.4603 -0.0266  0.1190
40096W        W83008   7.825   9.355  24.761  0.1794  0.2469 -0.0402
40097W        W83009   8.757  10.073  23.699  0.1018  0.2111 -0.0406
40098W        W83010   8.300   9.531  26.819 -0.2598 -0.0590 -0.3044
40099W        W83011   7.321   8.059  26.761  0.0732 -0.1233 -0.1140
40100W        W83012   9.289  10.752  23.568 -0.1473  0.0857  0.0403
40101W        W83013   9.923   9.332  23.762  0.1212 -0.0602 -0.1051
40102W        W83014   9.598   7.875  24.868  0.0187  0.2094 -0.0297
40103W        W83015   8.680  10.717  26.344 -0.1522  0.3563  0.1762
40104W        W83016   9.351   9.306  23.686  0.1905  0.0481  0.0758
40105W        W83017   8.163  10.687  24.211  0.0160 -0.1093 -0.0043
40106W        W83018   6.574   8.621  23.078  0.0818 -0.1847 -0.0165
40107W        W83019  10.234   9.482  23.446 -0.1210  0.0473 -0.0682
40108W        W83020  10.415  10.264  26.550 -0.0003 -0.2081  0.1222
40109W        W83021  10.374  10.613  27.646  0.0300  0.2657 -0.2334
40110W        W83022  11.334   8.607  24.428  0.1328  0.2007  0.0313
40111W        W83023  10.703   8.673  26.810 -0.3763  0.5022 -0.0656
40112W        W83024  11.662   7.172  26.265 -0.0444  0.2319  0.1437
40113W        W83025   9.236   9.439  26.790  0.0317 -0.0776  0.0516
40114W        W83026   8.240   9.156  24.064  0.1712 -0.1809 -0.2327
40115W        W83027   7.478   8.194  24.648  0.0733  0.0008 -0.1769
40116W        W83028   8.980   7.964  26.066 -0.1854 -0.1010  0.1692
40117W        W83029  10.275   8.016  27.218  0.0573 -0.1388  0.0002
40118W        W83030   8.145   9.057  28.222  0.1037 -0.0234 -0.1069
40119W        W83031  10.643   9.742  23.841  0.2738  0.1124  0.2661
40120W        W83032   7.335   7.737  24.886  0.0018  0.0010 -0.0847
40121W        W83033   7.030   9.650  24.648 -0.0814  0.1000  0.2758
40122W        W83034  10.762   7.365  26.306 -0.0161  0.2809  0.0295
40123W        W83035   8.937  10.615  23.925  0.0438 -0.1050  0.2822
40124W        W83036   9.394   8.082  25.867  0.1247 -0.1472  0.2168
40125W        W83037  10.243  10.925  25.657 -0.1525 -0.2653  0.0761
40126W        W83038   8.572   9.952  26.113  0.3473 -0.1190  0.1139
40127W        W83039   9.011   9.669  25.684  0.0384  0.2455 -0.0588
40128W        W83040   6.337   7.795  25.312 -0.0357 -0.0593  0.0740
40129W        W83041  11.417   6.708  25.341  0.0393  0.0226  0.2342
40130W        W83042   8.702   8.620  26.751 -0.0317  0.0028 -0.1814
40131W        W83043  10.295   7.537  27.331 -0.1945 -0.1608  0.1150
40132W        W83044   6.234   9.239  24.932 -0.0305 -0.0561 -0.1498
40133W        W83045  10.863   7.846  26.536 -0.0621  0.1395 -0.0301
40134W        W83046  11.030  10.357  26.939  0.0967  0.0294 -0.0105
40135W        W83047   8.523   9.088  26.135 -0.0166  0.2997 -0.0830
40136W        W83048  11.341   7.935  23.726  0.1109 -0.0438  0.2154
40137W        W83049  10.700   9.474  25.552  0.0478 -0.0196  0.0495
40138W        W83050  10.192   8.888  22.504  0.5712  0.0921  0.2102
40139W        W83051   9.474  10.201  26.896  0.0383  0.0122  0.1061
40140W        W83052   8.147   8.779  24.597 -0.0309 -0.2931  0.0019
40141W        W83053  11.285   8.173  24.254  0.2540 -0.0384 -0.0268
40142W        W83054   7.085  10.003  25.541  0.3387 -0.0747 -0.4355
40143W        W83055   9.971   8.870  26.241  0.0020 -0.1352  0.2863
40144W        W83056   9.964  10.436  27.235  0.0497  0.2746  0.2918
40145W        W83057   6.316   6.557  23.978 -0.2297  0.3901  0.1237
40146W        W83058  10.955   9.670  25.176  0.3146  0.0178 -0.0249
40147W        W83059  11.435   7.408  26.921 -0.0261 -0.2756 -0.3055
40148W        W83060   8.044  10.074  23.100  0.1739  0.2763  0.2283
40149W        W83061  10.608   8.907  25.544  0.0619  0.2763 -0.2793
40150W        W83062   9.454  11.935  26.120  0.1356  0.1800 -0.0669
40151W        W83063   7.641   9.089  26.600 -0.1932  0.1098  0.0899
40152W        W83064  11.314  10.179  27.308  0.4047  0.0740 -0.1173
40153W        W83065  11.468  10.034  25.564 -0.1834  0.1365  0.2788
40154W        W83066  10.791   7.872  24.548 -0.2327 -0.0277 -0.3374
40155W        W83067   8.171   9.303  25.838 -0.1178  0.0087 -0.2190
40156W        W83068   9.301  11.109  25.486  0.0581 -0.0433 -0.0671
40157W        W83069  11.626   8.172  26.857  0.1466  0.1849 -0.0870
40158W        W83070  10.199   8.548  27.109  0.2939  0.0264 -0.1164
40159W        W83071   9.571   9.748  23.641 -0.1418  0.0217 -0.1864
40160W        W83072   9.821   7.867  27.332 -0.2687  0.1244  0.0037
40161W        W83073   9.074  10.509  26.910  0.1825  0.1418  0.1544
40162W        W83074   9.378   9.646  26.210 -0.1709  0.3500  0.1569
40163W        W83075   7.185  10.506  23.147 -0.1374 -0.1921 -0.1662
40164W        W83076   8.948   8.744  25.217  0.0502 -0.2676 -0.1286
40165W        W83077   9.342   8.812  26.829  0.0473 -0.0891  0.3720
40166W        W83078   9.371  11.131  22.817  0.0380 -0.0851 -0.0975
40167W        W83079  10.505  11.034  24.663  0.2393  0.0830  0.1345
40168W        W83080  10.904   9.512  26.510  0.1633  0.1806 -0.1920
40169W        W83081  11.024   9.278  26.018  0.1059 -0.3503 -0.2826
40170W        W83082  10.603   8.500  24.809 -0.0979 -0.0992  0.0802
40171W        W83083  11.717   6.931  24.426 -0.3284  0.1985  0.0999
40172W        W83084  10.079   8.198  23.084  0.0446 -0.0207 -0.1347
40173W        W83085   8.030   9.633  27.986  0.1797  0.0694  0.1361
40174W        W83086   6.727   9.790  25.266  0.1631 -0.0374 -0.3035
40175W        W83087   8.602  11.032  23.257  0.1325  0.1746  0.1453
40176W        W83088   6.617   9.096  25.356 -0.4882 -0.1681 -0.2100
40177W        W83089  10.052   6.791  28.218  0.0193 -0.3697  0.0794
40178W        W83090   7.910   9.716  27.183  0.0598 -0.0785  0.2967
40179W        W83091   6.880   9.109  24.483 -0.1380  0.2519  0.0079
40180W        W83092   8.132   9.824  24.639  0.1855 -0.0856  0.0056
40181W        W83093  11.295   9.012  23.689  0.0607  0.1945  0.0399
40182W        W83094   7.844   7.762  26.144 -0.0229 -0.0139  0.1962
40183W        W83095   8.334   6.844  25.198  0.0624  0.0548 -0.0610
40184W        W83096  10.052  10.288  23.043 -0.0212 -0.1776 -0.3057
40185W        W83097  10.559   9.392  24.139 -0.0318  0.1177  0.0324
40186W        W83098   9.156   9.691  24.613 -0.0109  0.1147  0.0507
40187W        W83099  11.411  10.248  26.615  0.3153  0.0049  0.2582
40188W        W83100   6.497   9.657  23.201 -0.0417 -0.0421  0.0890
40189W        W83101   9.582   8.243  27.008 -0.0273 -0.2690 -0.1769
40190W        W83102   8.754   8.784  25.697  0.3060  0.0779  0.0481
40191W        W83103   6.775   8.301  24.983 -0.1717 -0.1140 -0.0398
40192W        W83104   9.254   9.450  27.641 -0.0526  0.0806 -0.0609
40193W        W83105   8.713   9.547  23.717 -0.2038 -0.1607  0.3457
40194W        W83106   9.830   9.018  23.406 -0.1081  0.3044  0.0634
40195W        W83107  10.341   8.917  24.928 -0.2290  0.0064  0.0036
40196W        W83108  10.539  10.393  27.072  0.3750  0.1301  0.1900
40197W        W83109   8.224   7.377  26.038 -0.1254  0.1046  0.0430
40198W        W83110  11.338   9.608  24.908 -0.0130  0.0604  0.0897
40199W        W83111  10.299   9.288  25.319 -0.0820 -0.0982  0.0519
40200W        W83112  11.846   9.416  24.814  0.0559 -0.0232 -0.2866
40201W        W83113  11.459   6.907  26.742  0.2478  0.0972  0.2714
40202W        W83114  11.403   9.257  24.522  0.2612  0.0326  0.1839
40203W        W83115   8.492   8.125  27.780  0.1835 -0.1450  0.0440
40204W        W83116  10.185   9.529  26.672  0.0699  0.0737 -0.0192
40205W        W83117  11.842   9.407  26.726 -0.1204 -0.0876 -0.1273
40206W        W83118   8.804   7.504  24.603 -0.2033  0.0355 -0.2145
40207W        W83119  10.613   8.129  25.175  0.1259  0.2724  0.2198
40208W        W83120  11.218   9.717  24.320 -0.0459  0.0749 -0.2771
40209W        W83121   7.903   9.559  26.505  0.1297  0.2637 -0.3604
40210W        W83122   9.338   8.957  23.224  0.0353  0.4287 -0.0127
40211W        W83123  10.587   9.831  26.802  0.1584 -0.1261 -0.2086
40212W        W83124   9.643   9.695  26.667  0.0782  0.1726  0.2595
40213W        W83125   9.414  10.192  27.425  0.0922  0.1640 -0.2075
40214W        W83126   8.655   9.906  24.736 -0.2997  0.0296 -0.4477
40215W        W83127  10.741   8.885  22.942 -0.3304  0.1141  0.1258
40216W        W83128   9.458  11.041  28.761  0.0206 -0.3646  0.2201
40217W        W83129  12.108  12.266  28.005  0.0008  0.1482 -0.0713
40218W        W83130  10.307  11.347  27.155  0.1688 -0.2880  0.0249
40219W        W83131  12.123   9.344  25.223 -0.2668  0.1318 -0.2837
40220W        W83132   7.815   5.621  26.607 -0.1066 -0.0985 -0.0045
40221W        W83133   9.390   9.008  25.074  0.1490  0.0122 -0.0894
40222W        W83134   8.334   9.938  25.165 -0.1879  0.3995 -0.1587
40223W        W83135  10.553   8.999  26.262  0.0239  0.1507 -0.0575
40224W        W83136   8.187  10.334  24.832  0.0729  0.0694  0.0853
40225W        W83137   7.242   6.500  24.176 -0.0831 -0.0446  0.0987
40226W        W83138   8.782  11.832  26.212  0.0355 -0.0900  0.1087
40227W        W83139  10.308   9.116  25.825 -0.0519 -0.2029 -0.0241
40228W        W83140   7.553  10.013  29.324  0.5379  0.0299  0.0785
40229W        W83141   9.933   8.399  28.009 -0.0254  0.2855  0.1003
40230W        W83142   9.522   8.056  28.210  0.0059  0.0307 -0.0331
40231W        W83143  11.383   8.673  27.646 -0.0534 -0.0091 -0.2019
40232W        W83144   8.075   6.828  28.290  0.3073  0.0307  0.1334
40233W        W83145  10.001  10.662  27.975  0.2853 -0.1268 -0.0659
40234W        W83146   7.535   8.114  31.168 -0.1640  0.0459  0.1351
40235W        W83147  10.094  10.928  30.110 -0.0334  0.0384 -0.1579
40236W        W83148  11.164  11.745  28.172 -0.1258 -0.1083  0.0191
40237W        W83149   9.988  10.109  26.748  0.2097  0.2199 -0.2612
40238W        W83150  10.167   7.670  30.201 -0.2737  0.1148  0.2198
40239W        W83151   8.630  10.814  30.746  0.1657  0.0651  0.0128
40240W        W83152   9.094   7.163  26.447  0.2197  0.2059  0.0674
40241W        W83153   6.449   6.942  28.980 -0.3054  0.2233  0.1812
40242W        W83154   9.304   7.638  30.134 -0.2303 -0.0956  0.2202
40243W        W83155   8.048   8.639  28.522  0.1808 -0.0209  0.2590
40244W        W83156   8.897   7.871  29.227  0.2087  0.0920 -0.1120
40245W        W83157   8.275   8.156  28.341 -0.2838 -0.2813 -0.2323
40246W        W83158   9.507  10.073  29.251  0.0330 -0.0693  0.0185
40247W        W83159   8.266   8.724  30.446 -0.1244 -0.0886 -0.0285
40248W        W83160   9.153   6.834  31.073  0.1693 -0.1549 -0.0096
40249W        W83161   9.857  10.989  26.993 -0.2608  0.1635 -0.0463
40250W        W83162   9.062   8.510  27.170 -0.1375 -0.2385  0.1248
40251W        W83163   6.111   9.474  29.196 -0.3351 -0.1986 -0.1063
40252W        W83164   8.933   7.082  30.645 -0.0058 -0.3735  0.0311
40253W        W83165  10.805   7.573  29.586  0.2250  0.0502  0.0642
40254W        W83166   9.593   9.462  30.314  0.0182 -0.0888  0.1720
40255W        W83167  10.499  10.258  28.965  0.0777 -0.1380 -0.1360
40256W        W83168  10.655   9.977  28.530 -0.3231  0.1774 -0.1920
40257W        W83169  12.048   9.844  30.075  0.2258 -0.1304  0.1493
40258W        W83170   8.481  11.232  28.563 -0.0979 -0.0019  0.2029
40259W        W83171   7.357  10.513  29.375  0.0998 -0.0061  0.2295
40260W        W83172   7.133  10.175  29.032 -0.1141  0.2841  0.1551
40261W        W83173  11.031   9.595  28.067  0.1182 -0.2831  0.0852
40262W        W83174   9.093   9.499  30.777  0.0012  0.2680  0.0451
40263W        W83175   7.346  10.347  29.859 -0.2960 -0.1035  0.2038
40264W        W83176   8.698   8.754  27.287 -0.1660 -0.0241  0.0782
40265W        W83177   9.411   9.450  31.757 -0.0069 -0.0404 -0.2137
40266W        W83178   7.400   9.486  29.369 -0.2521 -0.0940  0.1688
40267W        W83179   8.580   8.099  28.735 -0.1144  0.1235 -0.1621
40268W        W83180  10.211   9.906  29.845 -0.1308 -0.0183  0.0700
40269W        W83181   9.444   9.140  27.237 -0.0176  0.2616 -0.0976
40270W        W83182   8.384   9.378  29.283 -0.1304  0.0370 -0.0075
40271W        W83183   9.776  10.222  30.612  0.1551  0.3165  0.1932
40272W        W83184   8.570  11.045  30.275  0.2625 -0.2974 -0.2684
40273W        W83185  11.929   6.601  31.547 -0.1379 -0.1337 -0.0984
40274W        W83186   9.010  10.908  27.874 -0.3123 -0.3908 -0.0550
40275W        W83187  11.227   9.843  26.824 -0.0286 -0.1367 -0.0358
40276W        W83188   8.180   7.252  29.495 -0.0060 -0.0629  0.1632
40277W        W83189  11.437   8.492  28.429  0.0947  0.1896 -0.1109
40278W        W83190   9.676   6.794  30.143 -0.2074  0.3141 -0.0117
40279W        W83191   9.004   9.872  29.273  0.1114 -0.2343 -0.3300
40280W        W83192   9.099   7.944  27.879  0.2350  0.1100  0.2695
40281W        W83193   9.931   9.853  31.066 -0.0293 -0.0780 -0.3201
40282W        W83194   8.738   8.324  29.181  0.0375  0.0234  0.3114
40283W        W83195   9.178   8.208  29.459 -0.0118 -0.2956 -0.0891
40284W        W83196   7.235  11.309  29.647 -0.3206  0.0818  0.3299
40285W        W83197   8.804   9.595  28.879 -0.0978 -0.0515 -0.1616
40286W        W83198   9.691  10.365  28.234  0.0861 -0.0776 -0.2577
40287W        W83199  11.104   9.306  28.459 -0.2582  0.1366 -0.0104
40288W        W83200  10.376  10.698  28.746 -0.1789  0.0516  0.1134
40289W        W83201   8.501   7.147  29.086 -0.1357  0.0710  0.0731
40290W        W83202   9.371  10.269  30.321 -0.2503  0.1541 -0.0920
40291W        W83203   8.335   9.616  31.122  0.1181 -0.0515  0.2230
40292W        W83204   8.015   6.689  26.605 -0.3205  0.1380  0.1356
40293W        W83205  11.873  10.387  30.812  0.0609  0.0003  0.0398
40294W        W83206   6.861  10.543  30.815  0.1112  0.0129  0.0415
40295W        W83207  11.964   7.198  28.655 -0.0040 -0.1792 -0.1668
40296W        W83208   9.695  10.334  29.643  0.2522  0.2456  0.4747
40297W        W83209  11.467  11.479  28.905 -0.1655  0.3173 -0.2720
40298W        W83210  10.758   8.459  28.075  0.3687  0.0098 -0.2635
40299W        W83211  10.346   8.211  28.241  0.2390  0.0290 -0.2972
40300W        W83212   9.838   8.632  29.784 -0.1188 -0.0822 -0.2453
40301W        W83213   7.936   9.230  26.966  0.1543  0.0634  0.2281
40302W        W83214   9.067   9.323  28.157  0.4199  0.1385  0.2460
40303W        W83215  10.666  11.088  30.601  0.1003  0.0671  0.2029
40304W        W83216  10.671   9.417  27.392 -0.0045  0.0612  0.1579
40305W        W83217   7.238   9.450  30.084  0.0613 -0.1200 -0.0403
40306W        W83218   9.473   7.649  30.956  0.1355 -0.1250  0.0689
40307W        W83219   8.395  11.793  31.436 -0.3131 -0.1417 -0.0118
40308W        W83220   8.861   9.788  28.430 -0.1062  0.3253  0.1037
40309W        W83221   7.775   9.172  28.647 -0.1853 -0.2864 -0.4574
40310W        W83222   7.216   9.030  27.919 -0.1255 -0.0532  0.0556
40311W        W83223   6.971   7.652  31.721 -0.0499  0.0281 -0.0647
40312W        W83224   9.253  10.377  30.836 -0.2030 -0.1561  0.0274
40313W        W83225   9.712   7.755  29.410  0.0484 -0.2436 -0.1909
40314W        W83226   8.797   8.134  30.562  0.2086  0.0306 -0.2596
40315W        W83227  11.669   7.195  29.094 -0.2489 -0.0052 -0.1389
40316W        W83228   7.302   8.632  28.208 -0.1959 -0.3598  0.0981
40317W        W83229  10.265   9.504  28.247 -0.2677 -0.2806  0.1843
40318W        W83230  10.239   8.409  28.989 -0.3121 -0.2757 -0.1069
40319W        W83231  10.293   8.721  28.120  0.1816  0.1028 -0.0502
40320W        W83232   6.290   9.680  29.970 -0.1174 -0.3676  0.0349
40321W        W83233   9.178   7.331  28.659 -0.1379  0.1202 -0.1702
40322W        W83234   8.271   9.129  30.866 -0.0381  0.2231  0.2637
40323W        W83235   8.309   7.619  29.775 -0.4317 -0.0130 -0.0816
40324W        W83236   9.987   8.216  30.565 -0.0072  0.2152 -0.1385
40325W        W83237   9.232   7.443  27.667  0.0845  0.0473  0.2947
40326W        W83238   9.337   9.065  29.524  0.0333  0.0602 -0.1330
40327W        W83239   9.976   8.066  29.829  0.0359  0.0610 -0.0641
40328W        W83240   8.966   9.257  29.202  0.0812  0.0917 -0.4071
40329W        W83241  10.518   8.243  30.831 -0.1808  0.0680  0.3247
40330W        W83242   9.294  11.086  29.305  0.2164 -0.0953 -0.2550
40331W        W83243  10.818  12.142  31.369 -0.1892  0.0482 -0.2682
40332W        W83244  11.693  10.444  28.704  0.1987 -0.2095  0.0905
40333W        W83245   9.971   9.128   0.211 -0.1794 -0.1402  0.0386
40334W        W83246   8.257   8.976  27.487  0.0117 -0.2072 -0.2377
40335W        W83247   6.183  11.145  29.730 -0.1354 -0.2395  0.0895
40336W        W83248  10.111   9.093  28.447 -0.0135  0.0288 -0.1498
40337W        W83249   8.015   7.407  29.042  0.0805  0.1837 -0.0673
40338W        W83250  10.765  10.745  29.048  0.0708 -0.3077  0.3562
40339W        W83251   9.954   9.815  29.384  0.1126 -0.1572 -0.0145
40340W        W83252   8.519  10.438  29.659  0.0604 -0.2760 -0.0293
40341W        W83253  10.468   6.794  31.153  0.3038 -0.0940  0.0272
40342W        W83254  10.461   9.046  30.354  0.3277 -0.4238  0.0504
40343W        W83255   8.779   6.784  28.296 -0.1779  0.1354 -0.0923
40344W        W83256   9.305   8.681  25.715  0.1629  0.0683 -0.0327
40345W        W83257  10.659  11.682  27.654 -0.3594 -0.1284  0.2425
40346W        W83258   8.952  10.671  28.334 -0.3553 -0.1878  0.2157
40347W        W83259   8.795   7.746  29.823  0.1257 -0.2801 -0.3155
40348W        W83260   9.983  10.176  27.794  0.1993 -0.2159 -0.1843
40349W        W83261  10.746   8.310  29.797 -0.0643  0.1423  0.0798
40350W        W83262   8.770   8.603  31.793 -0.0378  0.1479 -0.0735
40351W        W83263   9.948   7.553  28.940 -0.1631 -0.3152  0.2461
40352W        W83264   8.577   8.866  28.481 -0.0995  0.0087 -0.1326
40353W        W83265   6.423  10.559  31.089  0.1056 -0.0189  0.1271
40354W        W83266   9.191   7.143  28.084  0.2657  0.0574 -0.1968
40355W        W83267  10.663   8.267  26.211 -0.1266  0.0466  0.1404
40356W        W83268   9.731   9.253  30.877 -0.0480 -0.0948  0.0194
40357W        W83269  10.686   8.545  28.558 -0.1800 -0.1274 -0.0239
40358W        W83270  10.999   8.163  28.396 -0.0064  0.0210 -0.1804
40359W        W83271   9.252   6.526  27.661 -0.3403  0.1782  0.0840
40360W        W83272   7.402  10.629  30.757  0.1529  0.0008  0.0861
40361W        W83273  10.251  11.117  28.980  0.1970  0.0531 -0.0600
40362W        W83274   9.693   9.735  28.940 -0.0059 -0.1068 -0.0063
40363W        W83275   9.958   7.922  28.232 -0.1718 -0.0754  0.1037
40364W        W83276  10.104   9.173  27.919 -0.4902  0.1496 -0.0813
40365W        W83277   8.276   9.181  28.778  0.1301 -0.4870 -0.2313
40366W        W83278  10.428   9.270  31.870  0.1946  0.2133  0.1296
40367W        W83279  10.261  12.244  29.143  0.1459  0.1958 -0.0063
40368W        W83280   9.192   7.615  29.598 -0.2150  0.0578  0.1720
40369W        W83281   8.423   7.728  27.453  0.0050  0.0503 -0.0347
40370W        W83282  10.143   7.980  29.244 -0.0228  0.1212 -0.0733
40371W        W83283   8.444   9.951  27.108  0.2695  0.0229 -0.1476
40372W        W83284  10.314   8.434  29.617  0.1189  0.1547 -0.0223
40373W        W83285   9.242   6.289  30.879 -0.1205 -0.1818  0.1836
40374W        W83286   9.984   7.183  30.202 -0.0545 -0.1409 -0.2511
40375W        W83287  10.129   8.296  31.175 -0.0327  0.1463  0.3443
40376W        W83288   9.346   8.834  28.862  0.1571  0.1602 -0.1640
40377W        W83289   9.899   7.462  28.364  0.1684  0.0714  0.0279
40378W        W83290   8.353   8.498  28.898  0.1851 -0.2265  0.0377
40379W        W83291  10.676   8.231  31.290 -0.3537  0.3547 -0.0490
40380W        W83292   8.531   9.345  29.762 -0.1643 -0.2215 -0.0003
40381W        W83293   6.893  11.747  29.769  0.4515  0.1543 -0.2229
40382W        W83294  11.123  10.292  30.294 -0.1050  0.1709  0.4129
40383W        W83295  11.248  10.760  29.132  0.1825  0.1435 -0.3055
40384W        W83296   9.191   7.884   0.466 -0.0120 -0.1907 -0.0571
40385W        W83297  10.071   7.117  29.197 -0.1282 -0.3386 -0.0989
40386W        W83298   8.448  10.659  28.537  0.1067 -0.0658 -0.2612
40387W        W83299   9.147   8.831  27.502  0.0549  0.0264  0.2871
40388W        W83300   9.117   7.770  30.595  0.0817 -0.0983 -0.2346
40389W        W83301   8.475  10.926  31.221 -0.0499 -0.1268 -0.0759
40390W        W83302   9.111  10.462  27.800  0.3135  0.0318  0.0314
40391W        W83303  11.132   9.975  29.752  0.0503  0.1195  0.2272
40392W        W83304   9.785   9.516  28.516 -0.0319  0.2084 -0.0879
40393W        W83305  10.654   8.658  29.171 -0.0737 -0.0217 -0.0462
40394W        W83306   6.478  11.574  31.661 -0.0495  0.0739  0.2396
40395W        W83307   8.798   8.956  27.849 -0.0254  0.0298 -0.3795
40396W        W83308   7.306   7.063  29.173 -0.0681  0.0028 -0.0602
40397W        W83309  11.593   7.504  27.747 -0.1583 -0.0742 -0.1649
40398W        W83310   9.634   9.538  27.981  0.0626  0.0271 -0.2157
40399W        W83311   9.901   7.452  30.751  0.1002  0.3392 -0.1152
40400W        W83312  10.568   7.712  31.022  0.1178 -0.3372  0.0569
40401W        W83313   7.074  10.536  30.284  0.1263  0.2349 -0.3901
40402W        W83314  10.652   9.317  30.016 -0.2170 -0.0650  0.1569
40403W        W83315   9.311   7.021  26.897  0.0928 -0.1868  0.1137
40404W        W83316  10.555  10.930  29.839 -0.0267 -0.2116  0.0836
40405W        W83317   8.843   8.969  29.667 -0.1634 -0.0184 -0.1553
40406W        W83318   8.287   8.746  25.871  0.0759 -0.0031  0.1353
40407W        W83319  10.856  11.308  29.852 -0.0489  0.1139  0.2024
40408W        W83320   9.040   6.856  28.736 -0.0005 -0.1926  0.1136
40409W        W83321   6.550  10.301  27.468 -0.2992  0.0172  0.0767
40410W        W83322  10.220   8.945  29.842  0.2517  0.1872  0.0093
40411W        W83323   8.544   9.407  28.426  0.0531 -0.2411 -0.1647
40412W        W83324   9.343   9.433  28.828 -0.1203  0.0257  0.1151
40413W        W83325   8.392   7.689  31.957  0.4449  0.2134 -0.3197
40414W        W83326  11.138   8.055  31.004 -0.0459 -0.1114  0.3985
40415W        W83327   9.208   8.121  28.870 -0.3656 -0.0196 -0.2350
40416W        W83328   8.748   7.571  27.831  0.1077  0.1966 -0.0038
40417W        W83329   9.057   7.260  29.240 -0.0092  0.2087 -0.3293
40418W        W83330  10.114  10.538  29.733  0.0973  0.1385 -0.1638
40419W        W83331   9.744   9.079  29.898  0.1923  0.1244 -0.1792
40420W        W83332   8.130  12.121  31.151 -0.4030 -0.1104 -0.0662
40421W        W83333  11.093   8.394  28.894  0.0204 -0.0750  0.2177
40422W        W83334  10.718   9.808  27.708  0.1372  0.2203  0.0307
40423W        W83335  10.570   9.671  29.252 -0.0238  0.1964 -0.1905
40424W        W83336   9.227   9.998  28.797  0.1421  0.0358 -0.3314
40425W        W83337   8.732   7.669  30.378 -0.1561 -0.2375  0.1763
40426W        W83338   7.870   9.263  29.195 -0.0341  0.0313 -0.0177
40427W        W83339  10.062   8.115  31.863  0.0096  0.1386 -0.2133
40428W        W83340  10.077   9.051  31.619  0.0630  0.2679 -0.0562
40429W        W83341   8.957   9.900  27.464 -0.0284  0.0995 -0.4766
40430W        W83342   6.849  10.935  30.542 -0.0527 -0.0320  0.3835
40431W        W83343  10.220   8.932  26.719  0.0045 -0.0629  0.0211
40432W        W83344  11.893  11.029  28.406  0.2598 -0.0988  0.1659
40433W        W83345  10.842   7.733  28.934  0.1919 -0.1684 -0.1198
40434W        W83346  11.509   9.949  30.110  0.0044  0.0248  0.2914
40435W        W83347  10.317  10.062  27.415 -0.1388 -0.0549  0.1901
40436W        W83348  10.494   6.942  30.228 -0.1658  0.1400  0.1069
40437W        W83349   7.415   6.894  30.188  0.0821  0.0690 -0.0950
40438W        W83350  10.709   9.031  28.332  0.0467  0.2179 -0.0160
40439W        W83351   7.791   8.523  31.339 -0.0126 -0.1337 -0.0678
40440W        W83352  11.465  12.366  31.548  0.1027  0.1966  0.0666
40441W        W83353   8.995   9.736  31.806 -0.1161 -0.2234 -0.2261
40442W        W83354   9.694   7.180  27.957  0.2001  0.0546 -0.1054
40443W        W83355   7.906   6.585  27.060  0.2894 -0.0864  0.1620
40444W        W83356   9.026   8.686  29.288  0.1453 -0.2747 -0.1498
40445W        W83357  12.257  11.350  29.008  0.4269  0.1457 -0.0542
40446W        W83358   9.659   8.416  28.893  0.3530 -0.0929  0.0328
40447W        W83359  10.960   9.654  28.911  0.0441  0.0786 -0.1876
40448W        W83360   8.452   8.826  29.890  0.1447 -0.2150 -0.1129
40449W        W83361  11.273   9.626  29.289  0.2321 -0.3086  0.0737
40450W        W83362   8.805   9.572  27.053 -0.1337 -0.0253 -0.0295
40451W        W83363   8.101   9.568  28.578 -0.0573 -0.0554  0.0676
40452W        W83364   8.332   8.470  31.613  0.1535 -0.2226 -0.2219
40453W        W83365   9.221   8.643  29.722  0.2841  0.1216 -0.0240
40454W        W83366  10.873   7.239  29.170 -0.0316 -0.0333  0.1238
40455W        W83367   9.526   8.759  30.272 -0.1638 -0.1738 -0.0578
40456W        W83368  10.118   9.478  30.124  0.1171 -0.0876 -0.2522
40457W        W83369   8.827   9.869  29.837 -0.1748  0.1753 -0.0734
40458W        W83370   9.021   9.438  29.685  0.2194 -0.0338 -0.4097
40459W        W83371   9.977  11.625  30.423 -0.2991  0.0379  0.0314
40460W        W83372  11.217   8.442  26.198 -0.1470 -0.2367 -0.4647
40461W        W83373  11.230   7.660  29.990 -0.0020  0.2497  0.0143
40462W        W83374  10.521   8.066  28.740 -0.0648 -0.1801 -0.2095
40463W        W83375   9.527   8.602  28.400  0.0083  0.2130  0.1600
40464W        W83376   9.471   8.135  30.756  0.1032 -0.1361 -0.1292
40465W        W83377  10.751  10.602  30.389 -0.2706  0.0119 -0.0102
40466W        W83378   8.868   8.447  27.746  0.0463  0.4282 -0.0283
40467W        W83379   8.211   8.521  31.063  0.1126 -0.0946  0.1235
40468W        W83380  10.558  12.244  27.513 -0.4230  0.3362 -0.0057
40469W        W83381   9.365   9.743  28.382  0.1446  0.1619 -0.1550
40470W        W83382  10.046   8.534  28.534  0.0687  0.3786 -0.5644
40471W        W83383   7.969   7.441  30.091  0.1697 -0.0379  0.0536
40472W        W83384   7.432  11.927  30.498 -0.1054 -0.0564  0.0175
40473W        W83385   7.602   8.497  26.795 -0.0264  0.0986  0.1655
40474W        W83386   8.679   8.174  27.245  0.1365 -0.0945  0.2600
40475W        W83387   9.945  10.249  29.042 -0.1306  0.0726 -0.0538
40476W        W83388  11.551  10.505  30.436 -0.1041  0.3199 -0.0493
40477W        W83389   8.103   8.070  27.270 -0.1390 -0.0838  0.0809
40478W        W83390  10.457   8.656  31.509  0.4303 -0.3846 -0.2313
40479W        W83391   9.004   8.128  30.112 -0.2256  0.3020  0.0683
40480W        W83392  11.282   6.975  28.889 -0.2266 -0.1212  0.0733
40481W        W83393   7.002  11.190  30.125 -0.1025 -0.1346 -0.2328
40482W        W83394   7.237  10.217  30.610 -0.3128 -0.0667  0.0416
40483W        W83395   9.930   9.913  28.217 -0.4309  0.1032  0.0116
40484W        W83396   9.805   8.746  30.753 -0.1965  0.1247 -0.2522
40485W        W83397  11.074   7.980  29.641  0.1002  0.0493 -0.1379
40486W        W83398   9.259  10.084  29.711  0.3208  0.2476 -0.5695
40487W        W83399  10.670   9.779  29.770 -0.2238  0.1999  0.2612
40488W        W83400   8.960  10.214   0.060  0.1183  0.2758 -0.0525
40489W        W83401   7.894   9.768  29.561 -0.3991  0.2045 -0.0964
40490W        W83402   9.104  10.649  31.687 -0.0069  0.2228  0.3233
40491W        W83403   9.996   8.752  29.323  0.0070 -0.0560  0.0405
40492W        W83404   8.075  10.636  29.945 -0.1703 -0.1317  0.0161
40493W        W83405   8.272   7.615  31.421  0.2643  0.1470  0.1750
40494W        W83406  10.265   9.548  31.482  0.2903 -0.1274 -0.0262
40495W        W83407   9.348   7.660  29.106 -0.1685  0.2483  0.2639
40496W        W83408  10.367   6.150  28.122  0.0697 -0.0878 -0.0792
40497W        W83409   9.726  11.144  28.037 -0.1770  0.0588  0.0491
40498W        W83410   6.787  11.361   0.001  0.2817  0.3851  0.0972
40499W        W83411   7.396   9.088  29.016  0.1251 -0.0770  0.1648
40500W        W83412   8.554  10.521  26.800  0.0654 -0.0305 -0.1391
40501W        W83413   9.903  11.124  28.532  0.0665 -0.0936  0.2048
40502W        W83414  10.361   9.129  29.210  0.0781 -0.2610  0.1286
40503W        W83415   9.729   9.601  29.760 -0.1396  0.3877  0.0890
40504W        W83416  10.421   7.049  28.462 -0.1195 -0.3356 -0.1835
40505W        W83417   7.983   9.932  29.100 -0.4431  0.0192  0.2674
40506W        W83418   7.919   8.461  29.361  0.1649 -0.0620 -0.2321
40507W        W83419  11.414   9.866  27.970 -0.1643 -0.0642  0.1569
40508W        W83420   8.415   9.305  27.901 -0.1521 -0.1314 -0.3056
40509W        W83421  11.838   9.897  30.555 -0.2689  0.1574 -0.2403
40510W        W83422  10.234   7.980  27.747 -0.0773  0.2787 -0.1558
40511W        W83423  11.166   8.941  29.664 -0.0769  0.0086 -0.0660
40512W        W83424  11.862   7.555  28.236 -0.3297  0.0063 -0.2664
40513W        W83425  10.008   9.636  30.602 -0.0356  0.1654  0.0126
40514W        W83426   8.640   8.893  29.046 -0.1526 -0.5271  0.0535
40515W        W83427   9.919   6.860  27.654  0.1693  0.1991  0.1551
40516W        W83428   8.841   9.497  30.233  0.1071 -0.0340  0.0154
40517W        W83429  11.225   7.786  30.555 -0.0214 -0.2136 -0.1565
40518W        W83430   7.907  10.778  30.525 -0.1650  0.1189 -0.0565
40519W        W83431  10.744  10.921  27.851  0.0187 -0.1217  0.0245
40520W        W83432   8.657   7.881  28.230 -0.2256 -0.0354  0.3153
40521W        W83433   9.274  10.635  29.593 -0.5512 -0.0256  0.0085
40522W        W83434  10.716   7.643  30.132  0.0430  0.3187  0.0685
40523W        W83435   9.870   8.975  25.443 -0.1302 -0.1456  0.0367
40524W        W83436  11.341   8.348  30.636  0.0830 -0.3510  0.1402
40525W        W83437   9.380  11.499  29.043  0.2442 -0.1225 -0.4561
40526W        W83438   8.798  11.479  29.841  0.4551  0.2595 -0.0162
40527W        W83439   9.487   9.571  29.346  0.1464 -0.0564 -0.1352
40528W        W83440   7.959   6.934  29.915 -0.2266  0.0395  0.2268
40529W        W83441  10.021   8.027  28.775 -0.0622 -0.1673 -0.1683
40530W        W83442   9.266   9.163  29.993 -0.1315 -0.2058 -0.1345
40531W        W83443  11.883   8.780  30.177  0.1246 -0.1136  0.4140
40532W        W83444   7.407   8.686  28.711  0.1141  0.0546  0.1686
40533W        W83445  11.217   8.278  27.933 -0.1929 -0.0312 -0.3695
40534W        W83446  10.996   9.038  30.665 -0.2180 -0.0137  0.1344
40535W        W83447  10.305   7.830  30.621  0.0555 -0.0892 -0.2175
40536W        W83448   8.704   7.302  28.417  0.0074 -0.0806 -0.2869
40537W        W83449  10.291  10.659  29.246  0.0440  0.1556  0.0173
40538W        W83450   9.536   8.616  27.317 -0.1992 -0.0793 -0.3932
40539W        W83451   9.614  11.579  31.233  0.0521  0.3233  0.0468
40540W        W83452   7.689   6.910  29.366  0.0846  0.2262  0.0714
40541W        W83453   9.771   8.565  26.588  0.0005  0.0066  0.0339
40542W        W83454   9.434   8.028  29.825  0.0363 -0.0487 -0.0447
40543W        W83455   8.475   9.985  29.203  0.1369  0.0211 -0.1145
40544W        W83456  11.628  11.886  30.876 -0.1108 -0.2007  0.2128
40545W        W83457   7.452   5.612  28.827 -0.2155  0.2842  0.1259
40546W        W83458   9.756   9.455  27.512  0.0487  0.1502  0.1751
40547W        W83459  11.021   8.267  30.236  0.0125 -0.5551  0.0832
40548W        W83460   8.435   8.651  28.000 -0.1761 -0.0379  0.1922
40549W        W83461  10.592   8.852  27.409 -0.1125 -0.2438 -0.1606
40550W        W83462   9.729  10.700  29.227 -0.0607 -0.2137  0.0892
40551W        W83463   8.304   8.221  30.647  0.0035 -0.0134 -0.0003
40552W        W83464  10.951  11.231  28.172 -0.3176 -0.1017  0.0430
40553W        W83465  11.714  11.747  29.765 -0.0902  0.3314  0.1782
40554W        W83466   8.657   6.187  28.802  0.0240  0.1484  0.1850
40555W        W83467   8.422   8.639  29.389 -0.2915 -0.0738  0.0197
40556W        W83468   8.398  10.005  28.447 -0.1583 -0.3651  0.2622
40557W        W83469  11.512   6.946  27.926  0.3557 -0.0135 -0.0553
40558W        W83470  10.928   9.572  30.853  0.0704  0.0252 -0.0214
40559W        W83471   9.680  10.091  28.645 -0.0414 -0.1952 -0.0036
40560W        W83472   9.112   7.388  30.994 -0.2308  0.1146  0.0811
40561W        W83473   9.535  10.115  31.190 -0.1166 -0.3236 -0.0194
40562W        W83474   8.378  10.545   0.930 -0.2551 -0.0679  0.2581
40563W        W83475   9.768   9.079  26.637 -0.6323 -0.0494  0.2609
40564W        W83476   8.354   9.914  29.680 -0.1913  0.1668 -0.4004
40565W        W83477   9.420   9.088  27.926  0.3811  0.1251 -0.0903
40566W        W83478   9.801  11.878  29.184  0.0597  0.2721  0.1431
40567W        W83479  10.841  11.619  29.302  0.2236  0.0782 -0.1619
40568W        W83480  10.230   9.879  28.741 -0.2637  0.0059 -0.1084
40569W        W83481  10.368  10.472  30.139  0.3311  0.0992  0.0605
40570W        W83482   9.653   7.255  29.506  0.1239  0.2891 -0.2738
40571W        W83483  10.780   6.318  27.898 -0.2479  0.5021  0.1862
40572W        W83484  10.405   7.525  29.289  0.5129  0.0578 -0.1631
40573W        W83485   8.773   9.164  31.090 -0.1722 -0.2675  0.0670
40574W        W83486   9.088   8.874  28.301 -0.0030  0.0436 -0.1883
40575W        W83487   8.765   9.241  27.417 -0.0409 -0.0215 -0.1753
40576W        W83488   7.489   9.844  29.832  0.2635  0.1673 -0.3085
40577W        W83489   8.632   8.674   0.319 -0.0775 -0.1147 -0.2382
40578W        W83490   9.524   8.842  31.609 -0.5102 -0.2101  0.4485
40579W        W83491   9.379   9.892  30.725  0.2565  0.0198 -0.1241
40580W        W83492   8.925   7.284  30.036 -0.2636 -0.3291 -0.1389
40581W        W83493  12.630   9.561  27.749 -0.0669 -0.1418  0.0211
40582W        W83494   8.917   5.895  29.687  0.0275 -0.1175 -0.1411
40583W        W83495   7.034   6.440  28.439 -0.0029 -0.0875  0.0501
40584W        W83496  10.603  11.138  29.376 -0.2619 -0.0023 -0.4554
40585W        W83497  10.264   9.431  29.620 -0.2792 -0.0449 -0.2206
40586W        W83498   8.429   7.669  28.564  0.1646 -0.1058 -0.2675
40587W        W83499  10.725  11.501  31.173  0.0408  0.0528  0.0133
40588W        W83500   6.377  10.131  26.135 -0.2334  0.2390 -0.1020
40589W        W83501   9.010   9.070  31.552 -0.0433 -0.0644 -0.2511
40590W        W83502   8.757   7.539  31.421 -0.1503  0.1467  0.1263
40591W        W83503   6.693   7.201  27.207 -0.1108 -0.1208 -0.0914
40592W        W83504   9.574   8.219  30.249 -0.1905  0.0633  0.0418
40593W        W83505  10.442  10.143  29.489  0.2318 -0.2869  0.2090
40594W        W83506  10.995  11.712  28.747 -0.4426 -0.1108 -0.0322
40595W        W83507   9.766  11.258  29.061  0.0057  0.3663  0.1554
40596W        W83508  10.114  10.270  31.471 -0.0931 -0.2214  0.1865
40597W        W83509   7.495   7.256  31.071  0.0225 -0.0268  0.1886
40598W        W83510   9.841   8.274  29.415 -0.1322  0.1294  0.1324
40599W        W83511   9.259  10.141  31.632 -0.2360  0.3798  0.0391
40600W        W83512  10.774   8.871  27.868  0.2259  0.0240  0.1046
40601W        W83513  13.067   6.616  29.395  0.2783 -0.0268 -0.1637
40602W        W83514   9.997   8.682  30.251  0.0410  0.1760 -0.0111
40603W        W83515   7.177   7.721  30.314 -0.1028  0.2646 -0.1210
40604W        W83516   9.779  10.027  30.077 -0.1845  0.1301  0.2814
40605W        W83517  11.117  11.317  30.395 -0.0276  0.1607 -0.1653
40606W        W83518   8.668   7.199  29.644  0.2949 -0.1394  0.3516
40607W        W83519  10.370   7.675  28.439  0.0596 -0.1062  0.0344
40608W        W83520  10.140   9.393  28.876  0.2223 -0.0612  0.1371
40609W        W83521   9.138   8.461  30.524  0.1356 -0.2389  0.2806
40610W        W83522   8.333   8.133  29.419 -0.2587 -0.2398  0.3060
40611W        W83523  10.847   8.551  30.593 -0.1540  0.1329  0.0783
40612W        W83524  11.121  10.794  30.021 -0.0965  0.2167  0.2206
40613W        W83525  10.646   9.298  28.756  0.1104 -0.2752 -0.0210
40614W        W83526   8.976   9.133  28.722  0.0818 -0.0852  0.1390
40615W        W83527  11.969   9.117  28.976 -0.0145  0.2598 -0.0508
40616W        W83528  10.161  10.668  30.543 -0.0375 -0.4474 -0.0572
40617W        W83529  11.099  10.907  31.605 -0.2814  0.2602 -0.0025
40618W        W83530   8.270  11.184  30.881  0.2849 -0.0011 -0.0541
40619W        W83531  10.387   8.849  28.766  0.0652 -0.0491  0.1025
40620W        W83532   9.536   6.127  28.118  0.1073  0.2693 -0.3746
40621W        W83533   7.454   8.564  29.253 -0.0069  0.0944 -0.1961
40622W        W83534   8.469   7.677  29.175  0.1033  0.0547  0.2248
40623W        W83535   9.737   7.778  30.413  0.2897 -0.0490 -0.1309
40624W        W83536   9.851   9.241  29.431  0.0550  0.2766  0.0713
40625W        W83537   9.240   8.093  27.360  0.4035 -0.4169 -0.2458
40626W        W83538   5.264  11.518  30.052 -0.1282  0.1317 -0.3498
40627W        W83539  11.078   9.510  29.798  0.1958  0.2117  0.0243
40628W        W83540  12.466   8.648  30.665 -0.0853 -0.0125  0.2015
40629W        W83541  10.396   9.913  31.803 -0.2296  0.0541  0.1292
40630W        W83542   9.073   8.252  30.986  0.3332 -0.0606 -0.0291
40631W        W83543   8.961   9.983  30.377  0.1846 -0.1096  0.0705
40632W        W83544   9.758   9.428   0.508 -0.0932  0.0394 -0.1094
40633W        W83545   8.482  10.728   0.443 -0.0428  0.0573 -0.0495
40634W        W83546  10.473   9.856  31.009  0.0549 -0.1613 -0.1390
40635W        W83547   9.024   8.205   0.050  0.2661  0.1804  0.0581
40636W        W83548  11.974   8.663  30.741  0.2325  0.2175  0.3587
40637W        W83549  10.520  11.576   0.756  0.5227  0.0467  0.0802
40638W        W83550   8.022  11.238   0.286 -0.3110  0.2615 -0.1071
40639W        W83551   9.119   6.898   0.375 -0.0061 -0.0789  0.2034
40640W        W83552   9.893  10.467  31.032 -0.0993 -0.1066 -0.1064
40641W        W83553   8.286   9.406   0.222  0.2292  0.3805 -0.1998
40642W        W83554  11.018  10.014  31.165  0.0213  0.0928  0.1114
40643W        W83555   8.492  12.302  31.480  0.1970 -0.1033 -0.2405
40644W        W83556  10.033   9.593  31.924 -0.1949  0.4322  0.1319
40645W        W83557  10.752  10.258  29.910  0.2526  0.1551 -0.0063
40646W        W83558   8.354   8.923  31.328 -0.1891 -0.2037 -0.1952
40647W        W83559   9.435   8.888   0.917  0.3099  0.1089 -0.0614
40648W        W83560   9.807   8.319  31.512 -0.4565 -0.0168  0.2342
40649W        W83561   6.221  10.036   0.668 -0.0947  0.3259  0.3023
40650W        W83562  10.912   8.696  31.716  0.2313 -0.0593  0.2675
40651W        W83563   9.765   6.980  30.594 -0.0138  0.0628 -0.1413
40652W        W83564  10.316   7.332  31.444 -0.1077 -0.0963 -0.3367
40653W        W83565   9.969   9.129  30.453  0.0054  0.2818  0.1080
40654W        W83566   8.514   7.816  30.919 -0.0812  0.2880  0.1210
40655W        W83567   5.640   9.517  31.603 -0.0790  0.3942 -0.0027
40656W        W83568   8.800   9.403   0.181 -0.0527 -0.0293 -0.1251
40657W        W83569  10.776  10.358  31.899 -0.0090 -0.1422  0.4468
40658W        W83570   8.075   9.831  30.649  0.1977  0.0535 -0.0782
40659W        W83571   7.474  10.135  31.533  0.3335  0.0712 -0.1405
40660W        W83572  10.999  10.498   0.512 -0.3132  0.0942 -0.0199
40661W        W83573   8.683   7.137  31.127 -0.0434  0.0914  0.4964
40662W        W83574   8.683   8.528  30.830  0.2942 -0.2911  0.1133
40663W        W83575   9.506   8.497  31.143  0.1586  0.3423  0.2198
40664W        W83576   7.440  12.398  30.528 -0.3066  0.2727 -0.0956
40665W        W83577  10.506  10.456   0.336 -0.0599  0.1754  0.1271
40666W        W83578  10.148  10.828  31.501 -0.1436  0.1313 -0.1958
40667W        W83579   9.215   9.108  30.489  0.0657  0.3203 -0.1185
40668W        W83580  11.366   7.591  31.065  0.3390 -0.1979 -0.0947
40669W        W83581  10.631  11.215  31.604  0.2132  0.0985  0.2257
40670W        W83582   9.586   7.879  31.362  0.1004  0.0268 -0.0719
40671W        W83583  11.107   9.952  31.857  0.1464 -0.2251 -0.0700
40672W        W83584   8.449   6.666  29.848 -0.2181 -0.3009 -0.0579
40673W        W83585   9.381   9.377   0.987  0.0662  0.2119  0.1716
40674W        W83586   9.399   7.055  31.915  0.1318 -0.0312  0.0107
40675W        W83587   7.701  11.153  31.725 -0.1753  0.1125 -0.1194
40676W        W83588  11.921  11.454  30.643 -0.0991 -0.0660 -0.0819
40677W        W83589   7.609  11.935  30.978  0.0557  0.1060  0.2439
40678W        W83590   9.522  10.279   0.876  0.0948  0.0212  0.2324
40679W        W83591  10.814   6.790  31.981  0.1115 -0.0176  0.1085
40680W        W83592   9.761   7.817   0.422 -0.1297  0.2607 -0.1484
40681W        W83593   7.250  11.220   0.147 -0.1160  0.1675 -0.0650
40682W        W83594   9.774   9.400  31.405 -0.2906 -0.0478 -0.2870
40683W        W83595   9.707  10.621  30.044  0.0642  0.1246 -0.2022
40684W        W83596  11.748   8.020  30.838 -0.0227 -0.1992  0.1678
40685W        W83597   7.871  11.328   0.988 -0.0254  0.0156 -0.3244
40686W        W83598   7.948  10.889  31.335  0.1061  0.2473 -0.0365
40687W        W83599   8.520  10.489  30.139 -0.0728  0.2197  0.0305
40688W        W83600   7.021   8.966  30.101  0.1694  0.0290  0.0777
40689W        W83601   8.061  10.095  31.076  0.2582  0.0658  0.0617
40690W        W83602   8.566  10.267  30.639  0.1893  0.0876  0.2774
40691W        W83603   8.101   8.064  31.289  0.0611 -0.2796 -0.1538
40692W        W83604  10.246  11.918  29.582 -0.0366  0.1131  0.1299
40693W        W83605  12.264   7.507  30.240 -0.2534  0.0277  0.1163
40694W        W83606  11.368   8.946  31.058 -0.0305  0.2688 -0.1044
40695W        W83607   8.226  13.686  19.855 -0.2389  0.1470 -0.1098
40696W        W83608   8.376  12.351  17.097  0.2108  0.2135 -0.1597
40697W        W83609  11.088  12.058  15.693 -0.2839  0.0046  0.0322
40698W        W83610  10.147  14.031  17.639 -0.0592  0.0819 -0.0407
40699W        W83611   6.069  11.530  17.531  0.1760 -0.4102 -0.1261
40700W        W83612   8.932  14.982  18.172 -0.3424 -0.0664 -0.0598
40701W        W83613   8.441  11.445  20.120 -0.1318 -0.1385 -0.1312
40702W        W83614   9.621  14.209  18.449  0.2810 -0.1466 -0.0599
40703W        W83615  10.041  14.763  18.081 -0.0933  0.1567 -0.0581
40704W        W83616   9.115  12.893  16.458 -0.0232 -0.0022 -0.3894
40705W        W83617   7.220  12.214  17.870 -0.2725  0.0013 -0.2665
40706W        W83618   8.789  14.006  19.442  0.0352  0.1840  0.1109
40707W        W83619   9.915  10.083  16.666  0.2156 -0.0427 -0.0077
40708W        W83620   6.984   9.890  18.367 -0.0505 -0.0177  0.0078
40709W        W83621  10.692  11.843  18.436  0.0836 -0.5225  0.2473
40710W        W83622   8.072  12.138  16.185 -0.3066 -0.1178  0.2687
40711W        W83623   7.279  13.328  17.462 -0.1843  0.1973  0.1628
40712W        W83624   8.400  10.938  17.613 -0.0926  0.0364 -0.1235
40713W        W83625   9.039  15.794  17.615 -0.0769 -0.5142  0.3616
40714W        W83626   9.686  12.340  17.932 -0.1894  0.2672  0.4097
40715W        W83627   8.942  10.558  18.883 -0.1602 -0.0701 -0.0236
40716W        W83628   7.848  13.188  17.710 -0.1663 -0.1873 -0.1787
40717W        W83629   8.068  11.716  16.498 -0.0894  0.4039  0.0743
40718W        W83630   5.445  12.606  17.326  0.0348  0.2410  0.0626
40719W        W83631   8.223  12.674  18.906 -0.2723 -0.0015  0.4763
40720W        W83632   8.846  12.086  17.458  0.2271  0.1346 -0.1042
40721W        W83633  10.193  12.221  19.288 -0.0770 -0.0304 -0.2087
40722W        W83634   8.672  14.641  18.847 -0.2872  0.1485 -0.0820
40723W        W83635   6.859  13.798  17.419  0.0367 -0.2207  0.0921
40724W        W83636  10.320  11.143  18.524  0.1424 -0.0220 -0.0861
40725W        W83637   6.856  11.938  17.738  0.2848 -0.0051 -0.1414
40726W        W83638   7.332  13.867  17.543  0.0192 -0.2891  0.6508
40727W        W83639   7.568  13.186  16.963  0.1600  0.0628  0.1625
40728W        W83640  11.206  14.477  16.806 -0.0988  0.0990  0.0080
40729W        W83641  10.023  12.426  19.770 -0.0622 -0.2615  0.2227
40730W        W83642   8.482  13.508  20.246 -0.1722  0.2454  0.5671
40731W        W83643   6.055  13.307  16.795 -0.0781 -0.0714 -0.0789
40732W        W83644   9.348  14.834  19.222 -0.2247  0.0048  0.0302
40733W        W83645   8.059  14.107  20.731  0.3192 -0.1435  0.1976
40734W        W83646   9.068  12.990  17.408 -0.2309  0.0327  0.1405
40735W        W83647   9.370  13.263  16.757  0.0972 -0.0248  0.0205
40736W        W83648   8.699  14.171  17.301  0.0888  0.1471  0.1796
40737W        W83649   8.221  14.177  17.590  0.1825 -0.0580  0.1615
40738W        W83650   9.225  15.328  18.444  0.1830 -0.0207  0.2217
40739W        W83651   6.005  13.232  19.036  0.1441  0.0004  0.0281
40740W        W83652   9.743  11.017  19.831 -0.2298  0.1460  0.0744
40741W        W83653   7.549  14.412  17.403 -0.1851 -0.0082  0.3867
40742W        W83654   9.983  12.555  16.308 -0.1632  0.0023  0.1759
40743W        W83655   7.990  11.800  15.516 -0.0144  0.1397 -0.4063
40744W        W83656  10.179  12.124  16.650 -0.0257  0.0063  0.0476
40745W        W83657   8.881  11.640  17.245 -0.0609 -0.0312  0.0370
40746W        W83658   8.394  13.328  18.672  0.2602  0.0247 -0.1368
40747W        W83659   8.967  12.069  18.279 -0.1469 -0.2374 -0.2926
40748W        W83660  10.763  14.063  16.799  0.1934  0.3435  0.0964
40749W        W83661   8.890  13.383  18.917 -0.2498  0.0977 -0.0531
40750W        W83662  10.177  10.528  17.726 -0.2010  0.0660 -0.1084
40751W        W83663   7.391  14.483  18.695  0.1627 -0.1217  0.1099
40752W        W83664   7.334  11.732  18.193 -0.0221 -0.1527 -0.2720
40753W        W83665  10.260  13.439  15.656 -0.2645 -0.1318  0.0281
40754W        W83666  10.117  14.041  18.696  0.1030  0.2535 -0.0891
40755W        W83667   9.086  14.584  15.549 -0.1979 -0.0417 -0.3245
40756W        W83668   7.673  12.719  16.479 -0.3477 -0.2709  0.0535
40757W        W83669   8.024  13.099  20.821 -0.0459  0.2144 -0.2474
40758W        W83670   8.051  13.268  18.249 -0.2302 -0.0368 -0.2992
40759W        W83671   7.780  11.327  16.365  0.3066 -0.2584 -0.2269
40760W        W83672  10.019  14.949  19.046 -0.3225  0.0308 -0.2196
40761W        W83673   7.630  14.233  19.101 -0.2455  0.1482  0.0554
40762W        W83674  11.159  11.913  17.536  0.4073 -0.2822 -0.1688
40763W        W83675   8.835  13.659  19.810  0.0830 -0.2509  0.0336
40764W        W83676  10.170  14.541  18.509 -0.2415 -0.2240  0.1206
40765W        W83677   9.739  15.309  15.400  0.0054 -0.0336  0.0293
40766W        W83678   9.285  11.841  16.668  0.0074 -0.2176 -0.2174
40767W        W83679   9.729  11.921  16.871 -0.0885 -0.0997  0.2427
40768W        W83680   7.356  12.522  15.870 -0.1922 -0.1265 -0.3411
40769W        W83681   8.239  12.643  16.525  0.0638 -0.0650 -0.0013
40770W        W83682  12.304  12.542  18.521 -0.1095  0.2166 -0.0632
40771W        W83683  10.836  12.276  16.031 -0.4913 -0.1758 -0.1411
40772W        W83684   6.651  14.383  18.609  0.0420  0.2400 -0.0513
40773W        W83685   9.225  12.447  17.569  0.1881 -0.0608 -0.1408
40774W        W83686   9.169  12.537  19.296 -0.0309  0.2821  0.0482
40775W        W83687   8.723  14.843  15.836  0.2845  0.4268 -0.0836
40776W        W83688   5.513  13.965  17.746 -0.2228 -0.2213 -0.0849
40777W        W83689   7.146  13.380  16.641 -0.1390 -0.1664 -0.1469
40778W        W83690   6.495  10.793  18.384 -0.0067  0.1908 -0.2592
40779W        W83691   9.779  14.170  19.716  0.0736  0.0558  0.1794
40780W        W83692  10.860  11.206  18.386  0.0983 -0.0271 -0.1831
40781W        W83693   8.927  11.719  18.625  0.0846 -0.0527  0.2705
40782W        W83694   9.021  10.109  17.523  0.4004  0.0779 -0.0531
40783W        W83695   7.117  13.008  17.105  0.1262  0.0291 -0.0786
40784W        W83696   9.631  14.583  16.889  0.0492 -0.0342 -0.0176
40785W        W83697  10.053  12.865  16.715 -0.3487  0.0627 -0.1011
40786W        W83698  10.218  13.003  15.956 -0.5349  0.1678 -0.0070
40787W        W83699   8.103  12.412  18.504  0.1799 -0.0740 -0.0833
40788W        W83700   7.909  11.321  17.035 -0.0078 -0.4451 -0.1455
40789W        W83701   6.396  12.454  20.538 -0.2913  0.2829  0.1710
40790W        W83702   6.212  13.162  18.598  0.0909  0.2819 -0.0322
40791W        W83703  10.647  12.372  18.462  0.0287  0.0533 -0.0148
40792W        W83704   7.144  11.096  17.157 -0.0167 -0.0832  0.2592
40793W        W83705   9.414  12.332  17.038  0.1198 -0.1497  0.0943
40794W        W83706   8.625  11.585  17.660  0.0199 -0.1431 -0.1585
40795W        W83707   7.073  12.426  16.782  0.4537  0.0174 -0.0398
40796W        W83708  10.559  10.769  19.240 -0.1253 -0.0022  0.1306
40797W        W83709   9.656  14.431  16.404  0.0728  0.1186 -0.1140
40798W        W83710  10.513  13.775  19.092 -0.1974 -0.2477  0.0854
40799W        W83711   9.545  14.139  17.561 -0.1810 -0.1080 -0.1311
40800W        W83712   6.674  11.038  19.220  0.1807  0.0850  0.2310
40801W        W83713   8.493  10.789  16.678 -0.1597  0.0454 -0.1030
40802W        W83714   7.985  14.652  17.884 -0.1795  0.0362  0.1321
40803W        W83715   6.479  13.694  17.906  0.0053  0.0240 -0.3058
40804W        W83716   8.768  11.541  15.830  0.1593  0.0705 -0.0422
40805W        W83717  11.090  15.496  17.041  0.2519 -0.4587  0.0139
40806W        W83718  10.060  13.741  17.282  0.0754  0.0364 -0.1337
40807W        W83719   6.156  14.511  18.883  0.0858 -0.1197  0.1404
40808W        W83720   8.400  11.066  19.284  0.0560  0.0697 -0.3016
40809W        W83721  10.106  12.224  17.646  0.2079 -0.0552 -0.4818
40810W        W83722  10.547  12.578  17.897 -0.0347 -0.3699  0.2669
40811W        W83723   8.318  11.378  17.359  0.0804  0.1084  0.0886
40812W        W83724   9.225  13.987  19.187 -0.1509 -0.2000 -0.1841
40813W        W83725   6.766  15.030  17.278 -0.2229 -0.0274 -0.4265
40814W        W83726   7.635  11.659  16.732 -0.0760  0.0469  0.1061
40815W        W83727   8.784  13.895  18.352 -0.3977  0.4362  0.0210
40816W        W83728   9.986  11.748  17.883  0.2099  0.1083  0.0253
40817W        W83729   7.276  12.599  20.571  0.2693 -0.3160 -0.0597
40818W        W83730   8.672  12.571  19.264 -0.1425  0.0408 -0.0809
40819W        W83731   8.415  11.903  17.396 -0.1885  0.0433  0.0531
40820W        W83732   9.641  12.645  18.325  0.0267  0.0940  0.0345
40821W        W83733   9.515  10.734  16.495 -0.1710  0.0784 -0.1371
40822W        W83734  10.467  12.553  16.548 -0.2528  0.0039 -0.3553
40823W        W83735   8.927  12.042  19.289  0.0508 -0.1061  0.0306
40824W        W83736   9.974  14.982  15.772  0.2722 -0.0037  0.0468
40825W        W83737   9.079  12.325  16.454 -0.2249  0.1265 -0.0564
40826W        W83738   9.787  11.438  15.818  0.1169  0.1424 -0.3659
40827W        W83739   7.965  12.312  19.186  0.1277  0.1489 -0.0737
40828W        W83740   9.551  13.664  17.247  0.1803 -0.2176  0.0517
40829W        W83741   9.041  13.432  18.444  0.3660 -0.0378 -0.0030
40830W        W83742   9.587  11.083  15.537  0.0223 -0.1931 -0.1148
40831W        W83743  11.606  14.132  16.715 -0.1157 -0.1478 -0.0859
40832W        W83744   6.226  13.617  18.330  0.2455  0.0021 -0.1288
40833W        W83745   9.577  12.638  18.877  0.0737 -0.1820  0.2121
40834W        W83746   8.953  15.270  17.326  0.1485 -0.2047  0.0164
40835W        W83747  10.114  10.258  18.188 -0.1327 -0.2032  0.0795
40836W        W83748   7.875  12.573  15.993 -0.0162  0.2294 -0.2276
40837W        W83749   8.493  13.555  19.347  0.1294  0.3273 -0.0675
40838W        W83750   7.909  13.592  16.833  0.1044  0.1635  0.1620
40839W        W83751   9.280  11.433  19.126  0.2952 -0.0348  0.1382
40840W        W83752   7.618  12.585  17.768 -0.1179 -0.0150 -0.0386
40841W        W83753   9.175  11.683  19.554  0.1093 -0.3285 -0.5617
40842W        W83754   9.794  12.177  18.876 -0.0227 -0.3327  0.2963
40843W        W83755  10.076  11.992  17.268 -0.0193 -0.3742 -0.1858
40844W        W83756  10.464  11.860  17.618 -0.3094  0.1671  0.3696
40845W        W83757   7.726  12.117  15.847 -0.2991 -0.1892  0.0499
40846W        W83758   8.295  11.903  17.901  0.0730  0.1835  0.0008
40847W        W83759   6.568  12.792  18.482  0.0639 -0.3621 -0.1235
40848W        W83760   7.100  14.339  19.112  0.3557 -0.2221 -0.1707
40849W        W83761  10.230  12.607  18.257  0.3330 -0.0546 -0.0878
40850W        W83762   9.749  12.500  17.427 -0.1687 -0.0542 -0.1896
40851W        W83763   8.747  11.273  19.622 -0.0988 -0.0811 -0.2130
40852W        W83764   8.430  11.955  15.918  0.0967 -0.0631  0.0908
40853W        W83765   8.615  15.063  16.280  0.1872  0.0904  0.2801
40854W        W83766   8.312  13.801  16.044  0.0036 -0.1054 -0.0349
40855W        W83767   9.563  11.684  18.132  0.0682 -0.0390 -0.3376
40856W        W83768   8.684  13.666  17.386  0.0480  0.2324  0.1056
40857W        W83769   8.221  15.327  16.208  0.1151 -0.0495 -0.0042
40858W        W83770   9.842  15.255  18.179 -0.2809  0.0861 -0.0799
40859W        W83771   8.380  15.259  18.163 -0.0649 -0.1716 -0.2366
40860W        W83772   9.968  10.384  18.649 -0.1253  0.1840  0.0088
40861W        W83773   8.279  14.877  19.011  0.0766 -0.1000  0.1883
40862W        W83774   9.018  11.649  16.303 -0.0832 -0.1098 -0.0268
40863W        W83775   6.677  12.657  16.552 -0.2321  0.2435  0.0475
40864W        W83776  11.064  11.167  16.258  0.0401 -0.1126  0.3621
40865W        W83777  11.220  13.491  16.815  0.3971 -0.1977 -0.0272
40866W        W83778   7.090  11.472  19.155 -0.0471  0.2470  0.0249
40867W        W83779   8.606  10.717  18.022 -0.2136 -0.2062 -0.1868
40868W        W83780   5.499  13.931  19.152  0.1488 -0.2568  0.0612
40869W        W83781   9.723  13.217  18.023  0.0670  0.0223 -0.0155
40870W        W83782  12.189  11.380  15.690  0.1581 -0.0255  0.2454
40871W        W83783  11.831  12.104  16.604 -0.1843  0.2743 -0.0938
40872W        W83784   9.231  12.321  20.770 -0.0793 -0.3840  0.0739
40873W        W83785   7.149  11.500  16.845  0.2022 -0.2329 -0.0019
40874W        W83786   9.441  12.082  19.264 -0.1575 -0.0824 -0.4674
40875W        W83787   8.302  12.131  16.633 -0.0657 -0.1059  0.1132
40876W        W83788   7.152  13.369  18.269 -0.0187 -0.0908  0.3240
40877W        W83789  10.969  13.954  18.199 -0.0568 -0.3230 -0.2254
40878W        W83790   8.045  13.249  17.183 -0.1322  0.1416  0.1183
40879W        W83791   8.707  13.605  15.851  0.1165 -0.1277 -0.2118
40880W        W83792   7.379  11.955  20.642 -0.1566 -0.2698  0.2254
40881W        W83793  10.827  12.814  17.470 -0.1294 -0.1955  0.1105
40882W        W83794   8.674  12.267  17.915  0.1823 -0.0626 -0.0946
40883W        W83795   8.465  11.708  16.892  0.1296  0.0880 -0.2938
40884W        W83796  10.080  12.747  17.781 -0.0544  0.2252  0.2337
40885W        W83797  10.843  13.662  17.027  0.1940  0.0959  0.2506
40886W        W83798   8.909  13.400  17.890  0.1833  0.1603  0.0306
40887W        W83799   7.800  12.965  19.881  0.2572  0.2270 -0.0791
40888W        W83800  10.818  11.556  17.479  0.2729 -0.0148  0.1129
40889W        W83801  11.545  15.221  16.115  0.0659 -0.1896  0.0310
40890W        W83802  10.031  12.700  18.741 -0.1975  0.1885  0.4288
40891W        W83803   8.089  12.992  16.177 -0.0755 -0.0209  0.1974
40892W        W83804   7.802  11.823  17.882  0.1276 -0.1016 -0.1408
40893W        W83805   8.532  13.179  17.482 -0.1293  0.0764 -0.0414
40894W        W83806   8.690  11.668  18.197 -0.1549 -0.1582 -0.1623
40895W        W83807   7.302  14.000  18.544 -0.2190  0.1781 -0.2919
40896W        W83808   6.550  12.976  17.573  0.1814 -0.0356  0.3842
40897W        W83809   8.331  13.039  17.918  0.0267 -0.1404 -0.0869
40898W        W83810  11.694  10.597  17.859 -0.1908  0.0456 -0.0955
40899W        W83811  11.440  13.874  15.962  0.4595  0.2313 -0.2938
40900W        W83812   9.281  12.021  17.891  0.0220  0.2199 -0.0305
40901W        W83813   9.620  11.496  19.619 -0.0424 -0.3402  0.2688
40902W        W83814   8.689  13.890  16.346  0.0167  0.2703  0.1249
40903W        W83815   8.174  10.597  20.119  0.1889  0.1697 -0.1017
40904W        W83816   9.165  12.541  18.046 -0.0763  0.1946 -0.1114
40905W        W83817  10.066  14.423  16.719 -0.0929 -0.2017 -0.1563
40906W        W83818   8.420  12.145  19.403 -0.3046  0.2063  0.2622
40907W        W83819   9.633  13.786  20.003 -0.0106  0.3184  0.1783
40908W        W83820   8.203  12.729  20.414 -0.0202  0.0196 -0.1870
40909W        W83821  10.516  10.708  17.020  0.0471 -0.0236 -0.2318
40910W        W83822   9.294  11.206  16.544 -0.3985  0.2096  0.1888
40911W        W83823   7.979  12.248  17.664 -0.2276 -0.0245  0.1852
40912W        W83824   9.862  13.109  18.517  0.1551 -0.2029 -0.1431
40913W        W83825   8.958  13.102  16.024 -0.0280  0.1591  0.3134
40914W        W83826  10.120  10.777  19.556 -0.0681  0.2387 -0.2558
40915W        W83827   6.406  13.190  18.056 -0.5186 -0.0219  0.0950
40916W        W83828  10.040  13.797  16.011  0.0127 -0.0349 -0.0931
40917W        W83829   9.193  12.813  16.944  0.1458  0.3044 -0.0448
40918W        W83830   8.897  13.452  16.416  0.1103 -0.1996  0.0591
40919W        W83831   8.188  11.572  18.322  0.0930  0.1091 -0.0579
40920W        W83832  10.829  13.020  17.968  0.3898  0.1870  0.0796
40921W        W83833  10.424  10.127  16.339  0.1038 -0.0073 -0.1221
40922W        W83834  10.697  10.872  18.704  0.2481 -0.0454 -0.3094
40923W        W83835   9.948  12.155  18.364  0.1771 -0.1331  0.0560
40924W        W83836   8.501  13.074  19.103 -0.0037 -0.1207 -0.0632
40925W        W83837   6.809  11.236  20.718  0.0555  0.5189  0.0475
40926W        W83838   9.931  14.470  18.917 -0.0625 -0.0880  0.3653
40927W        W83839   9.908  12.400  16.920  0.1332 -0.0813  0.0517
40928W        W83840   9.640  10.967  19.362  0.3877 -0.1255 -0.1756
40929W        W83841   9.751  11.560  17.189  0.1772 -0.1864  0.0969
40930W        W83842   8.457  12.838  17.058 -0.1528 -0.0621 -0.0380
40931W        W83843   8.902  12.109  16.919 -0.3503  0.3950  0.0629
40932W        W83844   8.473  12.089  18.382  0.1538  0.1667  0.0034
40933W        W83845   7.503  10.697  15.448  0.1538 -0.0916 -0.2203
40934W        W83846  10.522  12.714  20.040 -0.1467 -0.3596 -0.0529
40935W        W83847   9.364  13.297  15.755 -0.2036 -0.0644  0.0903
40936W        W83848  10.580  15.727  16.679  0.2274  0.2996 -0.0245
40937W        W83849   8.045  12.790  17.539  0.2495  0.3013  0.1298
40938W        W83850   6.871  11.606  18.211 -0.0331 -0.2018  0.2230
40939W        W83851   8.548  13.106  20.579  0.1966  0.1331  0.0936
40940W        W83852   7.219  11.945  16.567  0.0982  0.1108  0.0271
40941W        W83853   7.404  12.312  16.313 -0.0630  0.1717 -0.1859
40942W        W83854   8.754  13.870  18.990 -0.3978  0.0825  0.0761
40943W        W83855  10.854  13.297  20.961  0.2485  0.0902 -0.0388
40944W        W83856   7.168   9.608  17.070  0.0815  0.1536 -0.0828
40945W        W83857  10.918  12.719  18.690 -0.0783  0.0424  0.0830
40946W        W83858   7.216  12.889  16.535  0.0769  0.1567 -0.3701
40947W        W83859   9.712  11.448  16.689 -0.1602  0.1441  0.0947
40948W        W83860   8.470  14.722  20.056  0.0758 -0.0425 -0.1568
40949W        W83861   7.574  13.522  18.419 -0.1320  0.0382  0.1515
40950W        W83862   8.222  12.866  18.479  0.3857 -0.0483  0.0123
40951W        W83863   8.825  10.792  19.663  0.1526 -0.0265 -0.2751
40952W        W83864  10.168  11.649  18.316 -0.1038 -0.0974 -0.0984
40953W        W83865   9.112  14.205  18.678  0.1998 -0.0351  0.0406
40954W        W83866   9.651  12.024  19.693 -0.4888  0.0466 -0.1688
40955W        W83867   7.745  11.772  18.411  0.0401 -0.2268  0.0818
40956W        W83868   8.497  12.525  17.559  0.0221  0.0264  0.0145
40957W        W83869   9.130  14.582  17.868  0.1068  0.0911  0.0653
40958W        W83870  10.332  13.823  16.788  0.1834  0.0426 -0.1516
40959W        W83871   7.050  12.895  17.594  0.0482 -0.0258  0.2198
40960W        W83872   6.959  11.864  19.435  0.0962 -0.2243 -0.0531
40961W        W83873   7.866  13.337  18.736 -0.0117  0.1699 -0.0624
40962W        W83874  10.229  12.517  17.274 -0.3373 -0.0948 -0.1162
40963W        W83875   7.899  11.694  17.427 -0.0025 -0.0152 -0.1527
40964W        W83876   9.169  13.846  16.704  0.2150  0.0263  0.0642
40965W        W83877   6.695  13.280  18.555  0.1151  0.1722  0.3669
40966W        W83878   7.248  13.457  18.827  0.0182  0.0994  0.0908
40967W        W83879   7.685  14.056  16.967  0.1471 -0.0008  0.0743
40968W        W83880  10.235  13.524  16.376  0.2567  0.1769  0.1473
40969W        W83881   9.684  13.588  16.546 -0.2087  0.0304 -0.1323
40970W        W83882   9.295  13.845  18.469  0.3084 -0.0326 -0.1679
40971W        W83883   9.555  11.441  17.627  0.3225  0.2866  0.2119
40972W        W83884   8.244  13.512  17.613 -0.1677 -0.1268 -0.1220
40973W        W83885   7.512  13.739  16.525 -0.2596 -0.0080 -0.0509
40974W        W83886   9.199  14.525  16.577 -0.0555  0.0666  0.0894
40975W        W83887   8.567  13.837  17.835  0.2418  0.0812 -0.0062
40976W        W83888  10.062  14.186  19.297 -0.3166 -0.3055 -0.2349
40977W        W83889  10.930  11.719  16.229 -0.0051 -0.0779 -0.1989
40978W        W83890  11.028  12.094  17.036 -0.0921 -0.3154 -0.1830
40979W        W83891  11.526  10.352  18.403  0.2050  0.1934  0.0601
40980W        W83892   9.390  13.433  19.761  0.0885 -0.1236 -0.1002
40981W        W83893   9.707  12.908  17.112 -0.0971  0.2066 -0.0629
40982W        W83894   9.125  11.227  15.983 -0.4065 -0.1799  0.2982
40983W        W83895   7.791  12.936  19.011 -0.1869  0.0734  0.0032
40984W        W83896  11.631   9.431  18.541 -0.1597  0.1097 -0.0520
40985W        W83897   6.277  13.884  19.599 -0.0113  0.0387  0.1200
40986W        W83898  10.319  15.165  16.169 -0.1221 -0.2871 -0.2094
40987W        W83899   8.070  10.582  16.320  0.1009  0.0084  0.3461
40988W        W83900   8.679  13.847  16.940 -0.3413 -0.0742  0.1282
40989W        W83901  11.787   9.886  18.624 -0.0170 -0.1920  0.0278
40990W        W83902   7.529  11.660  15.802 -0.1192  0.3884  0.0082
40991W        W83903   9.453  12.845  17.690 -0.3127  0.0299 -0.0904
40992W        W83904   8.309  13.635  16.584  0.0549 -0.2401 -0.0578
40993W        W83905   7.755  13.685  17.932  0.0274  0.0599 -0.1120
40994W        W83906   9.450  14.539  18.870  0.3365  0.0875 -0.3292
40995W        W83907   7.489  11.147  16.715 -0.1219  0.0994  0.3124
40996W        W83908  11.191  11.757  16.616  0.0059  0.0314  0.3074
40997W        W83909   7.696  12.506  18.768 -0.0280 -0.1166 -0.0196
40998W        W83910  11.082  10.674  19.002 -0.2166 -0.0470  0.0265
40999W        W83911   7.961  12.788  16.898 -0.1386  0.2225 -0.0684
41000W        W83912  11.574  10.995  19.058 -0.0912 -0.1277  0.1214
41001W        W83913   9.393  13.706  17.999 -0.1010 -0.1496  0.4382
41002W        W83914   8.195  12.582  19.901  0.2834 -0.2451 -0.0515
41003W        W83915   8.863  11.474  16.753 -0.1065 -0.1811 -0.2145
41004W        W83916   9.842  11.802  19.217 -0.2911 -0.3293 -0.2987
41005W        W83917   8.516  12.931  15.851  0.1216 -0.1163 -0.0409
41006W        W83918   9.562  14.302  19.283  0.0279  0.1854 -0.1187
41007W        W83919   7.733  10.976  15.969  0.0229  0.3285 -0.3918
41008W        W83920   9.684  11.968  17.562  0.2814  0.0036  0.1431
41009W        W83921   7.228  12.453  17.376  0.2056 -0.0015  0.0284
41010W        W83922   8.788  14.443  18.316  0.0507  0.1795 -0.1012
41011W        W83923   9.412  13.134  18.748 -0.1403 -0.2612 -0.1470
41012W        W83924   6.714  10.890  17.266 -0.0790  0.1968 -0.2221
41013W        W83925   9.807  13.057  16.326 -0.0566  0.2083  0.3608
41014W        W83926  11.199  10.764  18.480 -0.0472 -0.1924  0.0072
41015W        W83927   8.756  14.679  17.484 -0.3094 -0.2289 -0.2767
41016W        W83928   9.228  14.232  17.063  0.0330 -0.0967  0.0446
41017W        W83929  10.430  14.811  17.783 -0.4826 -0.0891  0.0634
41018W        W83930   7.606  11.150  18.988  0.2747 -0.0562  0.3615
41019W        W83931  10.033  13.576  18.922  0.0233  0.1489  0.0268
41020W        W83932  10.548  13.951  17.285  0.0706 -0.0937 -0.1822
41021W        W83933   9.933  11.011  16.498  0.1027  0.0233 -0.1585
41022W        W83934   7.247  10.963  17.682 -0.0305 -0.2754  0.3106
41023W        W83935   8.658  14.328  17.818 -0.1325 -0.1725  0.0295
41024W        W83936  11.204  11.175  18.790  0.0980  0.0707  0.1193
41025W        W83937  10.797  12.356  20.349  0.1023 -0.2803  0.1256
41026W        W83938   7.426  13.967  16.088 -0.0591 -0.1693  0.0359
41027W        W83939   9.404   9.867  20.467 -0.1076 -0.0714 -0.1918
41028W        W83940   9.652  13.781  19.431  0.0160 -0.2261  0.0759
41029W        W83941   9.329  12.979  19.188  0.0952 -0.0092 -0.1543
41030W        W83942   6.190  12.791  16.690  0.1711  0.1250  0.3577
41031W        W83943   8.735  12.549  18.448 -0.1371  0.1596 -0.0360
41032W        W83944   9.693  13.979  18.944 -0.0149 -0.1110  0.0466
41033W        W83945   9.582  14.602  17.353  0.0555 -0.1419 -0.2924
41034W        W83946   9.771  13.657  17.694 -0.1509  0.0336 -0.0057
41035W        W83947   9.603  12.720  16.624  0.0614 -0.2060  0.1373
41036W        W83948   9.793  14.018  18.022 -0.0091 -0.0358  0.3046
41037W        W83949   7.987  11.992  18.781 -0.4622  0.0378 -0.1097
41038W        W83950  11.098  10.058  18.069  0.0523  0.2392 -0.0713
41039W        W83951  10.313  12.135  16.120 -0.2867 -0.0763 -0.0960
41040W        W83952   8.293  12.510  18.055  0.0160 -0.0465 -0.2863
41041W        W83953   7.699  13.264  16.493  0.0635 -0.1507 -0.1262
41042W        W83954   8.177  13.156  16.602  0.1281 -0.1887  0.2544
41043W        W83955   7.441  12.086  16.993 -0.0696 -0.2738  0.3217
41044W        W83956   9.390  11.743  18.746 -0.1900  0.2268  0.0932
41045W        W83957   8.477  11.644  19.283 -0.1135 -0.2722  0.0830
41046W        W83958   6.899  11.068  16.751  0.1013  0.1292  0.1466
41047W        W83959   8.456  11.534  16.203  0.0100  0.0636 -0.0163
41048W        W83960  10.899  14.366  16.430 -0.1940  0.0195  0.1454
41049W        W83961   7.805  13.736  17.383  0.2220 -0.1393 -0.0767
41050W        W83962   7.559  11.365  17.889  0.1880 -0.1045  0.3164
41051W        W83963   9.600  14.511  17.971  0.5865 -0.3983  0.0579
41052W        W83964  10.190  15.221  17.462 -0.1843 -0.1435  0.1543
41053W        W83965   9.325  11.069  18.038  0.0467 -0.2659  0.0295
41054W        W83966  10.466  12.146  20.053  0.0818  0.2742 -0.0084
41055W        W83967   6.558  13.190  16.781  0.1315  0.4516 -0.2362
41056W        W83968   9.493  11.705  20.045 -0.2586 -0.2971 -0.0056
41057W        W83969   7.238  10.915  20.893  0.3111 -0.2526 -0.3786
41058W        W83970   6.602  10.698  15.940 -0.0627  0.1169 -0.0429
41059W        W83971   9.079  13.504  17.106 -0.0785  0.2841 -0.1945
41060W        W83972   9.420  16.083  16.879  0.2711  0.0318  0.1354
41061W        W83973   8.977  15.339  16.589 -0.1342 -0.3010 -0.0727
41062W        W83974   8.470  13.524  18.188  0.0366 -0.0887 -0.3377
41063W        W83975   8.246  14.175  18.130  0.0856 -0.1802 -0.3315
41064W        W83976   8.601  10.442  18.442 -0.4517 -0.1246 -0.2045
41065W        W83977  10.971  12.522  16.600 -0.0138 -0.3401  0.2122
41066W        W83978   8.795  12.780  17.907 -0.0708 -0.2697  0.1241
41067W        W83979  11.787  14.158  15.735 -0.1987  0.0458  0.0253
41068W        W83980  10.546  11.501  19.514  0.1749 -0.3161  0.1745
41069W        W83981   8.717  12.599  16.691 -0.0809  0.1116  0.1659
41070W        W83982   8.209  11.238  18.815 -0.0101 -0.1127  0.4385
41071W        W83983   8.036  13.283  19.252 -0.0895 -0.0689  0.0661
41072W        W83984  10.743  12.292  17.476 -0.1328 -0.0460  0.0899
41073W        W83985   7.834  12.450  17.242  0.0770  0.1692 -0.0558
41074W        W83986  11.785  11.634  16.775 -0.0167 -0.3382  0.0916
41075W        W83987   9.145  13.697  16.035  0.0032  0.4329  0.1846
41076W        W83988   7.500  12.042  17.485  0.0145  0.2317  0.3067
41077W        W83989   8.861  12.598  17.264 -0.0547 -0.0462 -0.0793
41078W        W83990   9.265  11.225  18.689  0.0882 -0.2014  0.2291
41079W        W83991   8.812  14.216  16.674 -0.1089 -0.0382  0.1695
41080W        W83992   8.213  12.794  19.459  0.0848 -0.0973 -0.0920
41081W        W83993   8.699  12.067  16.318  0.2741 -0.0018 -0.1309
41082W        W83994   9.936  14.229  17.167 -0.2732  0.0379  0.0398
41083W        W83995   8.456  16.095  19.045 -0.1898 -0.0457  0.1285
41084W        W83996  10.215  13.820  19.586  0.2516 -0.0255  0.1527
41085W        W83997  10.475  15.519  18.394  0.0495  0.1775  0.3354
41086W        W83998  10.110  12.816  20.651 -0.2609 -0.0847  0.0093
41087W        W83999   8.718  11.278  18.711  0.2521  0.2051  0.1232
41088W        W84000   7.453  12.675  16.936  0.4201 -0.1008  0.1074
41089W        W84001   7.524  12.894  17.371  0.0207 -0.0643 -0.4196
41090W        W84002  11.253  11.619  19.937 -0.3256 -0.1672  0.0451
41091W        W84003   6.754  12.332  18.650 -0.3405  0.2638 -0.2187
41092W        W84004   9.625  12.250  16.527  0.0780 -0.1937  0.0251
41093W        W84005   7.850  13.734  20.254 -0.3931 -0.1312  0.2957
41094W        W84006   9.838  13.154  17.544  0.0238 -0.3510 -0.0399
41095W        W84007   7.821  12.377  21.666 -0.4353 -0.1127 -0.0051
41096W        W84008   7.967  11.526  19.157  0.1004 -0.0987 -0.1301
41097W        W84009   9.569  10.164  20.044  0.1603 -0.1740  0.1823
41098W        W84010   7.777  11.480  21.473  0.1191 -0.2147 -0.6659
41099W        W84011   8.927  12.363  22.784 -0.1191  0.3159 -0.0129
41100W        W84012   9.619  15.875  21.021 -0.0211 -0.1040 -0.1326
41101W        W84013   6.405  10.612  22.415 -0.1581  0.0750 -0.3893
41102W        W84014   8.875  13.262  21.506  0.0401 -0.4816  0.4024
41103W        W84015  10.939  12.876  21.280  0.3389  0.3493 -0.4970
41104W        W84016  10.274  11.429  20.442 -0.1352  0.0543  0.1175
41105W        W84017   7.133  12.210  22.470 -0.0237 -0.0760 -0.1897
41106W        W84018   7.116  14.372  23.428  0.0377  0.0558  0.1313
41107W        W84019   7.927  11.171  21.842 -0.0444  0.0315  0.1831
41108W        W84020   7.477   9.707  22.344  0.0550 -0.2749 -0.3278
41109W        W84021   9.001  12.513  22.232  0.0966  0.5039 -0.0579
41110W        W84022   6.010  12.144  19.972 -0.0638  0.0717  0.0130
41111W        W84023   7.501  13.300  21.658  0.1186  0.1636  0.1380
41112W        W84024   9.971  12.753  21.631 -0.0302 -0.0421  0.1572
41113W        W84025  10.113  12.504  20.278 -0.1682 -0.0208 -0.0080
41114W        W84026   7.713  11.943  22.480  0.0142  0.4094  0.1928
41115W        W84027   8.367  10.321  22.781 -0.2518 -0.2430  0.1497
41116W        W84028   9.291  12.711  21.137  0.0462 -0.2629 -0.0006
41117W        W84029   7.130  11.137  19.587  0.2142 -0.0937  0.1169
41118W        W84030   7.703  12.107  21.034 -0.1950  0.3766 -0.2580
41119W        W84031   7.634  12.480  23.131 -0.0774 -0.0754  0.2486
41120W        W84032   8.181  11.093  20.990  0.0606  0.2714 -0.1254
41121W        W84033   9.922  11.950  21.172  0.0883 -0.3792 -0.0136
41122W        W84034   7.890  12.608  21.120 -0.0668  0.1378 -0.0405
41123W        W84035   8.394  12.657  20.922  0.0350  0.0858  0.0526
41124W        W84036   8.042  12.218  23.393  0.1662 -0.0158  0.0820
41125W        W84037   6.940  13.244  21.486 -0.1140  0.0256  0.1446
41126W        W84038   7.452  14.052  20.386  0.0705 -0.0840 -0.3542
41127W        W84039  10.256  13.277  20.826 -0.0871 -0.0323 -0.2225
41128W        W84040  10.118  11.851  19.616 -0.2310  0.1079 -0.0282
41129W        W84041  10.252  14.655  21.814  0.3272  0.4411 -0.2524
41130W        W84042   8.505  13.695  23.177  0.2166  0.1583 -0.0347
41131W        W84043   6.301  14.056  20.330  0.1922 -0.3389  0.2579
41132W        W84044   8.456  14.739  23.465  0.3773  0.1193  0.2144
41133W        W84045   6.628  14.431  23.222 -0.1222 -0.0379  0.1047
41134W        W84046   6.536  11.995  21.269 -0.2401 -0.0429 -0.0767
41135W        W84047   8.888  12.889  20.882  0.0125  0.2414 -0.1036
41136W        W84048   8.874  12.832  18.839  0.0064  0.3059  0.0597
41137W        W84049  11.626  11.878  22.082  0.2869 -0.4933  0.0371
41138W        W84050   6.291  14.954  24.000  0.0677 -0.1266  0.3481
41139W        W84051   8.557  13.579  21.676  0.0121 -0.2248  0.0526
41140W        W84052   9.605  10.710  22.632 -0.1778  0.0518 -0.0021
41141W        W84053   7.789  13.449  19.738  0.2451 -0.0508 -0.3093
41142W        W84054   9.018  13.011  20.411 -0.2225 -0.0297 -0.2727
41143W        W84055   8.429  11.720  18.727  0.2287 -0.0324 -0.2929
41144W        W84056  10.540  11.992  21.075  0.0055  0.1178  0.0683
41145W        W84057   9.270  10.227  21.149 -0.3793  0.0601 -0.1884
41146W        W84058   6.587  14.716  22.547  0.0790  0.2469  0.5332
41147W        W84059   9.563  11.125  21.797 -0.3794  0.2610  0.0371
41148W        W84060  10.210  13.646  22.608  0.0359 -0.0840 -0.1831
41149W        W84061  10.284  12.175  18.790 -0.0939  0.2599  0.1123
41150W        W84062   9.273  10.709  21.317  0.1596 -0.1969 -0.0676
41151W        W84063   8.885  14.333  22.041  0.0187  0.0074  0.2847
41152W        W84064   8.027  11.938  21.455 -0.5286  0.2628 -0.0974
41153W        W84065   9.625  12.337  20.186 -0.1806  0.2521 -0.0667
41154W        W84066  10.534  14.781  20.237  0.0136  0.1286  0.3612
41155W        W84067   9.618  13.031  19.593 -0.0577  0.1033  0.0978
41156W        W84068   7.613  11.408  19.976  0.0917  0.0855 -0.2252
41157W        W84069   7.882  12.886  21.596 -0.1188  0.0096  0.3186
41158W        W84070   6.864  11.885  22.736  0.2168  0.1891  0.0223
41159W        W84071   6.731  10.810  19.667 -0.1964 -0.0318 -0.2458
41160W        W84072  11.128  13.526  23.115 -0.0777 -0.1091 -0.2183
41161W        W84073   6.210  13.508  24.133 -0.2689  0.2675  0.0299
41162W        W84074   9.621  11.510  21.451  0.1167 -0.1040  0.1683
41163W        W84075   9.201  13.061  22.268  0.1443  0.1437  0.3210
41164W        W84076   9.872  13.607  21.801 -0.0854 -0.3770 -0.1460
41165W        W84077   9.063  11.414  20.606  0.0059  0.1539 -0.1227
41166W        W84078   9.475  11.499  20.997  0.0248 -0.2439  0.1097
41167W        W84079   9.010  10.361  21.662 -0.1143 -0.3584 -0.2260
41168W        W84080   6.561  12.798  19.940  0.1264  0.2012 -0.0299
41169W        W84081   7.758  12.387  20.629  0.0539  0.0040  0.0471
41170W        W84082  11.156  12.450  22.109 -0.0068  0.0407 -0.0666
41171W        W84083   9.873  11.622  18.720 -0.0813 -0.1979 -0.1153
41172W        W84084   7.660  13.610  22.163 -0.0245 -0.2626 -0.0386
41173W        W84085   6.975  11.555  23.639  0.0807 -0.1792 -0.0042
41174W        W84086   9.176  12.738  24.140 -0.0230 -0.0547  0.2223
41175W        W84087   8.262  13.201  19.772  0.1819  0.0811  0.0172
41176W        W84088   6.831  12.155  20.543  0.2650  0.1507 -0.0518
41177W        W84089   6.901  13.325  20.771 -0.0006 -0.0344  0.2926
41178W        W84090   5.825  11.070  22.490  0.1750  0.3091  0.2991
41179W        W84091   8.348  13.010  22.754 -0.0268  0.3829 -0.1407
41180W        W84092  10.453  11.185  22.232  0.3687 -0.1574 -0.0175
41181W        W84093   7.557  10.699  22.823 -0.0969 -0.1785 -0.1957
41182W        W84094  10.270   9.864  20.741  0.0229  0.1656  0.1226
41183W        W84095   7.913  13.215  22.017 -0.1010  0.3913 -0.2111
41184W        W84096  10.127  12.941  19.719  0.0847  0.0212  0.0470
41185W        W84097  11.304  11.286  20.392 -0.2047  0.2216  0.1865
41186W        W84098   8.970  12.356  21.265  0.1847  0.1307 -0.1929
41187W        W84099   6.308  11.062  22.589 -0.1791  0.1632 -0.2449
41188W        W84100   6.130  11.798  21.621 -0.2924  0.1150  0.1022
41189W        W84101   6.952  10.530  24.147 -0.1231  0.5419  0.0601
41190W        W84102   8.190  11.175  22.321  0.2256  0.5359  0.0825
41191W        W84103   9.304  14.506  22.272 -0.1747  0.1622  0.1164
41192W        W84104   5.946  12.208  21.792 -0.1894 -0.4142 -0.4861
41193W        W84105   9.038  11.625  21.752  0.4026  0.0673  0.2039
41194W        W84106   7.732  11.078  20.875 -0.0335 -0.1494 -0.0224
41195W        W84107   6.940  12.590  20.178  0.1521 -0.0445  0.1651
41196W        W84108   9.125  11.595  22.265  0.0473 -0.1573  0.0756
41197W        W84109   8.876  13.950  20.255 -0.1281  0.1514  0.2096
41198W        W84110  10.685  14.584  22.952 -0.0402 -0.0397 -0.2873
41199W        W84111  10.280  14.224  20.849 -0.1612 -0.4276  0.1876
41200W        W84112   7.802  11.584  22.943 -0.0274 -0.0854  0.0269
41201W        W84113   6.585  11.516  21.344 -0.0497  0.2211  0.1186
41202W        W84114   7.546  13.756  21.445 -0.0874 -0.2002  0.1106
41203W        W84115   9.778  12.236  21.813  0.0854  0.2735  0.0458
41204W        W84116   8.766  11.997  20.468  0.3226 -0.0218  0.0088
41205W        W84117  11.307  13.142  21.514 -0.0999  0.0876 -0.0519
41206W        W84118   8.703  12.536  19.732  0.0587  0.0751 -0.0744
41207W        W84119   9.362  14.172  22.599  0.2177  0.2444  0.3690
41208W        W84120   9.824  10.409  23.456 -0.1751 -0.1499 -0.1599
41209W        W84121  10.099  11.550  22.588 -0.0471 -0.3813  0.1081
41210W        W84122   9.115  11.089  21.008  0.2834  0.0000 -0.0941
41211W        W84123   6.680  11.810  21.772  0.2823  0.1148 -0.1394
41212W        W84124   9.472  13.755  21.500 -0.1396  0.0574 -0.2307
41213W        W84125   7.596  13.838  20.826  0.3169 -0.2341  0.2111
41214W        W84126   8.309  13.098  21.761  0.0190  0.1699  0.0648
41215W        W84127  10.439  12.917  21.111 -0.0568 -0.1968 -0.2557
41216W        W84128   9.992  11.801  21.663 -0.3158  0.1120 -0.0511
41217W        W84129   7.186  12.427  22.918 -0.0714  0.0008  0.1214
41218W        W84130   9.237  12.066  22.413 -0.0396 -0.0165 -0.2745
41219W        W84131   8.155  11.538  19.706 -0.0622  0.1994  0.3949
41220W        W84132   7.254  13.950  22.686  0.1120  0.0792 -0.0379
41221W        W84133   7.996  10.771  20.602 -0.0764 -0.0241 -0.0014
41222W        W84134   8.120  10.063  21.807 -0.0618  0.2366  0.1398
41223W        W84135   9.114  12.849  23.669  0.3472 -0.2563 -0.4116
41224W        W84136   9.841  12.273  20.698 -0.0245 -0.1203  0.1068
41225W        W84137   9.142  13.027  19.673 -0.1358 -0.0837  0.2983
41226W        W84138   9.285  11.069  19.660  0.3281  0.0170  0.0199
41227W        W84139   7.662  13.017  25.494 -0.0083  0.1036 -0.0877
41228W        W84140   8.449  12.348  21.351  0.0109 -0.2217 -0.1247
41229W        W84141   9.517  13.303  23.177 -0.1783 -0.0355 -0.1792
41230W        W84142   8.700  11.834  19.882  0.0109 -0.1045 -0.1165
41231W        W84143  10.757  13.409  20.493  0.0051  0.0107  0.1052
41232W        W84144   7.571  12.458  22.590  0.2627  0.0497 -0.0216
41233W        W84145   7.944  13.882  23.844 -0.2273 -0.0692 -0.0706
41234W        W84146  10.171  12.419  21.094 -0.1892 -0.1243  0.0050
41235W        W84147   8.171   9.370  21.774  0.1121 -0.0950 -0.2916
41236W        W84148   8.641  12.168  20.921  0.1912 -0.0477 -0.0122
41237W        W84149   6.998  10.302  20.793  0.0353  0.3229 -0.0914
41238W        W84150   7.442  14.250  21.080 -0.2827 -0.0654  0.2552
41239W        W84151  10.066  10.574  22.392 -0.0430 -0.2318 -0.0339
41240W        W84152   8.459   9.968  21.420 -0.0011 -0.2141  0.0875
41241W        W84153   8.403   9.754  22.047  0.1370 -0.1941  0.1785
41242W        W84154   9.766  12.948  22.389  0.0947  0.1502 -0.0531
41243W        W84155   9.335  11.247  20.138 -0.0121  0.2184  0.0871
41244W        W84156   9.515  13.336  22.621  0.0417 -0.0499 -0.0014
41245W        W84157   8.198  11.991  19.821 -0.2225  0.0270  0.2437
41246W        W84158   8.308  10.198  22.312  0.1969  0.0146 -0.0868
41247W        W84159   6.821  13.950  23.707 -0.0852 -0.1551 -0.0285
41248W        W84160   8.253  13.929  24.309 -0.2197 -0.4571 -0.1900
41249W        W84161  10.268  13.948  21.857  0.0470 -0.1989 -0.0780
41250W        W84162  10.908  12.343  21.281 -0.1220 -0.3570  0.0686
41251W        W84163   7.090  11.886  23.268 -0.2321 -0.4094  0.0457
41252W        W84164   7.095  11.525  20.377  0.0496 -0.1760  0.0388
41253W        W84165   7.634  13.540  19.303  0.1303  0.0078  0.0638
41254W        W84166   7.564  13.974  19.571 -0.2432  0.1580  0.1955
41255W        W84167   7.805  10.815  23.792 -0.1891  0.1582 -0.2643
41256W        W84168   7.756  14.900  21.857 -0.0513  0.0209 -0.1798
41257W        W84169  10.315  13.137  18.858 -0.0570 -0.0488 -0.1112
41258W        W84170   8.523  12.476  22.458  0.0472 -0.1627  0.0564
41259W        W84171   6.849  13.891  18.862 -0.0186 -0.1695  0.4032
41260W        W84172   9.303  10.177  22.095 -0.2237 -0.1249  0.0878
41261W        W84173   8.811  14.132  21.058 -0.0391 -0.0756 -0.1450
41262W        W84174   7.168  12.488  18.858  0.1175 -0.3722 -0.0268
41263W        W84175   7.402  12.783  21.634 -0.1856 -0.0307 -0.1643
41264W        W84176   8.808   9.958  21.801 -0.2893  0.1398  0.2827
41265W        W84177  10.648  13.844  20.031 -0.0580 -0.1379  0.0879
41266W        W84178   8.189  11.531  22.637  0.1254  0.0129 -0.2486
41267W        W84179   9.626  11.554  22.438  0.0401 -0.1279  0.2906
41268W        W84180   7.534  14.631  21.415  0.2893  0.1463  0.1165
41269W        W84181   8.941  10.833  22.913  0.0255 -0.0403 -0.0731
41270W        W84182   8.269  11.587  21.158 -0.0096 -0.0305 -0.0771
41271W        W84183   9.082  13.542  22.458 -0.1304 -0.0026  0.2056
41272W        W84184   8.253  12.932  22.263  0.3140  0.1224 -0.1539
41273W        W84185   7.109  10.760  21.525 -0.1807  0.1683 -0.1122
41274W        W84186   9.396  12.326  23.018 -0.3368  0.0296 -0.1540
41275W        W84187   8.654  11.610  22.060 -0.1966 -0.2228 -0.2513
41276W        W84188   7.247  13.770  20.084  0.0204 -0.1244 -0.0036
41277W        W84189   8.517  14.834  22.319 -0.0402 -0.0222 -0.2321
41278W        W84190   8.613  11.656  20.787 -0.0760  0.1402  0.3281
41279W        W84191   7.101  13.593  22.382 -0.0723 -0.0528 -0.0303
41280W        W84192   6.932  12.177  23.660  0.0059  0.4939  0.2063
41281W        W84193   9.071  13.906  21.766 -0.1094 -0.1712  0.1319
41282W        W84194   7.189  11.760  22.392 -0.1866  0.0916  0.4980
41283W        W84195   8.737  12.516  20.513  0.1028 -0.0132  0.0677
41284W        W84196   9.397  11.089  22.337  0.3484  0.0611  0.0688
41285W        W84197  10.518  11.774  21.556 -0.0730 -0.1570  0.2092
41286W        W84198   8.445  12.341  22.941 -0.0898 -0.0444 -0.2532
41287W        W84199   8.120  13.508  23.495  0.0244  0.0815  0.1737
41288W        W84200   8.938  11.005  19.233  0.0084  0.0389 -0.1179
41289W        W84201   8.931  15.654  20.423  0.0832 -0.0557 -0.1421
41290W        W84202   8.734  11.208  22.413  0.4442  0.0314 -0.0036
41291W        W84203   8.559  13.835  20.706 -0.0993  0.2399  0.0506
41292W        W84204   5.962  13.299  21.741 -0.3785 -0.2026 -0.1796
41293W        W84205   8.619  13.330  21.040  0.0961  0.1314 -0.0991
41294W        W84206   8.819  12.418  21.788  0.2075  0.2768  0.0753
41295W        W84207   8.304  13.813  22.604  0.1727  0.1062  0.2046
41296W        W84208   8.834  13.186  19.995  0.0993 -0.2856 -0.3585
41297W        W84209   7.203  13.104  22.049 -0.0712  0.0933  0.3939
41298W        W84210   8.829   9.249  20.143  0.1261 -0.1309  0.2097
41299W        W84211   7.558  10.559  20.842 -0.4106 -0.1861 -0.1031
41300W        W84212   9.227  12.034  21.895 -0.0395  0.0426  0.0411
41301W        W84213   9.858  11.199  22.921  0.2781 -0.4109  0.1819
41302W        W84214   9.861  13.113  19.074  0.0816  0.2888 -0.3394
41303W        W84215   9.647  10.815  23.146 -0.3490 -0.1690  0.2267
41304W        W84216   7.912   9.962  22.620 -0.2784  0.2237 -0.0003
41305W        W84217  11.625  12.790  21.352  0.2086  0.1312 -0.0740
41306W        W84218   7.361  11.141  22.201 -0.3012 -0.0125 -0.2037
41307W        W84219  10.685  13.573  22.701  0.3488 -0.0103  0.1184
41308W        W84220   7.580  12.018  23.276 -0.2315  0.3222 -0.1941
41309W        W84221   6.986  11.975  20.995  0.2182  0.1454 -0.0610
41310W        W84222   7.709  10.537  19.759 -0.1445 -0.2709 -0.2069
41311W        W84223   8.514  12.802  23.683 -0.4166 -0.1248  0.0235
41312W        W84224  11.495  11.945  20.671  0.3861  0.1514 -0.0277
41313W        W84225  11.103  12.743  20.842 -0.0814  0.2269 -0.0684
41314W        W84226   9.996  10.793  20.876  0.3334 -0.0537 -0.4150
41315W        W84227   7.427  14.276  22.983  0.1162  0.0158 -0.1460
41316W        W84228   8.439  11.085  21.412 -0.2267 -0.1920  0.0788
41317W        W84229   8.343  11.509  21.695 -0.3141 -0.0120  0.2376
41318W        W84230   8.083  11.647  22.146 -0.0511  0.0548  0.1444
41319W        W84231   7.409  11.154  23.799  0.1758 -0.2970 -0.1153
41320W        W84232  10.866  11.497  20.273  0.1130  0.2277  0.1295
41321W        W84233   9.899  11.277  20.847 -0.2777 -0.1498 -0.2141
41322W        W84234   7.831  11.095  22.749 -0.0103 -0.0031  0.0202
41323W        W84235   9.110  11.696  22.761 -0.1020  0.0119  0.0868
41324W        W84236   7.711  11.472  22.448  0.1342 -0.0261  0.0048
41325W        W84237   8.317  11.804  23.028 -0.0409  0.0718  0.0660
41326W        W84238  10.370  13.477  22.076 -0.2471 -0.1160  0.1339
41327W        W84239  10.108  11.879  20.713 -0.0556  0.1051 -0.0358
41328W        W84240   9.801  10.760  21.537 -0.0349 -0.2664  0.0577
41329W        W84241  10.088  10.946  21.945  0.0053 -0.2018  0.0559
41330W        W84242   8.968   9.977  20.232  0.0656  0.0901 -0.0956
41331W        W84243   7.383  11.943  22.826  0.2017  0.0359  0.1421
41332W        W84244   9.682  13.788  22.735  0.0570 -0.2682 -0.1909
41333W        W84245   7.388  11.781  19.654  0.4361  0.5709 -0.0592
41334W        W84246  10.928  11.138  23.253 -0.2075  0.0998  0.2521
41335W        W84247   9.549  13.153  20.737 -0.0240  0.1021  0.1229
41336W        W84248  11.499  12.863  20.497  0.0160 -0.2103  0.0882
41337W        W84249   9.500  12.690  20.518 -0.1031 -0.1870 -0.1488
41338W        W84250   7.316  11.465  22.865  0.0384 -0.0261 -0.1383
41339W        W84251   7.588  14.224  22.349 -0.0649 -0.2416 -0.0819
41340W        W84252   8.035  13.255  20.240 -0.0727  0.3987  0.4683
41341W        W84253  10.307  11.164  19.084 -0.1226 -0.0677  0.2379
41342W        W84254   8.036  14.667  22.281  0.2007  0.0375  0.0097
41343W        W84255  10.305  12.504  22.499 -0.3137  0.1096 -0.2276
41344W        W84256   8.005  11.890  20.676 -0.1958  0.2193  0.0338
41345W        W84257  10.048  10.435  21.908  0.1775  0.1042  0.4778
41346W        W84258   6.868  14.418  21.650  0.0929 -0.0198 -0.2227
41347W        W84259   9.216  10.353  22.649 -0.2400 -0.2500  0.0849
41348W        W84260   8.082  14.173  22.158 -0.0021 -0.0097 -0.1645
41349W        W84261   6.860  13.927  23.192 -0.0546 -0.2045  0.2755
41350W        W84262   9.133  13.345  20.822 -0.1494  0.1163 -0.0650
41351W        W84263   9.451  10.649  20.757 -0.2841  0.1140  0.0123
41352W        W84264   9.514  10.348  21.658 -0.2732 -0.1580  0.1604
41353W        W84265   9.221  11.182  21.458 -0.0483  0.0674  0.0791
41354W        W84266  10.482  12.526  22.054 -0.3011 -0.1100 -0.0817
41355W        W84267   8.101  14.249  22.680  0.3366  0.2435 -0.0275
41356W        W84268   8.318  12.577  21.858 -0.1738 -0.1572 -0.0346
41357W        W84269   8.845  14.428  23.472  0.2819  0.0604 -0.0850
41358W        W84270   9.963  11.981  20.174  0.0531 -0.1962 -0.1391
41359W        W84271   8.695  12.830  21.394  0.0923  0.3115  0.0490
41360W        W84272   6.252  11.080  23.197  0.4373 -0.0990  0.2875
41361W        W84273   7.392  12.907  24.627 -0.4178 -0.0932  0.0749
41362W        W84274   8.996  11.631  20.170 -0.0483 -0.1510  0.0953
41363W        W84275   8.975  10.738  22.340  0.1847  0.0193 -0.0741
41364W        W84276   8.623  12.253  18.892 -0.0081 -0.1084  0.1262
41365W        W84277   6.269  14.530  23.725  0.2049 -0.2089  0.0514
41366W        W84278   5.867  12.468  22.343  0.3488  0.0040 -0.1436
41367W        W84279   7.216  14.012  22.113 -0.0888 -0.2116 -0.2189
41368W        W84280  10.378  13.109  21.670  0.1429  0.1463 -0.1728
41369W        W84281   8.752  11.421  21.276 -0.1435 -0.2252 -0.0281
41370W        W84282  10.299  14.369  22.243 -0.4387 -0.0803  0.1957
41371W        W84283   8.684  13.084  18.367  0.0207  0.0585  0.0065
41372W        W84284   7.665  13.965  21.847 -0.1062  0.0357  0.1648
41373W        W84285   6.907  14.589  21.129  0.1664  0.0426  0.1412
41374W        W84286   9.996  13.239  21.385  0.0988  0.0281 -0.0638
41375W        W84287   8.926  13.722  21.315 -0.0230  0.0389  0.2159
41376W        W84288  10.835  14.342  22.529 -0.1847 -0.1322  0.1645
41377W        W84289   8.830  11.129  20.093 -0.1560 -0.1553  0.1026
41378W        W84290  10.583  12.616  21.566 -0.1953  0.1935 -0.2633
41379W        W84291  10.759  11.522  20.800  0.2152  0.0506  0.0450
41380W        W84292   9.882  13.418  22.304  0.0631 -0.1111  0.3226
41381W        W84293   9.652  13.074  21.920  0.2753  0.0295 -0.4404
41382W        W84294   9.147  12.158  19.775 -0.2926 -0.0754 -0.0546
41383W        W84295   6.993  13.400  22.836 -0.2928  0.0255 -0.2050
41384W        W84296  10.537  10.382  23.888 -0.3364 -0.0358 -0.0896
41385W        W84297   6.851  15.124  23.226  0.3276 -0.0761 -0.1706
41386W        W84298   9.620  14.430  20.569 -0.3738 -0.1560 -0.0075
41387W        W84299   8.171  11.341  20.592 -0.2121 -0.6062  0.0667
41388W        W84300   8.963  13.425  21.978  0.1716 -0.1587 -0.2347
41389W        W84301  10.846  10.357  21.322 -0.1619  0.0650 -0.0456
41390W        W84302   8.005  11.654  20.224 -0.1370 -0.0281  0.2560
41391W        W84303  10.405  11.169  20.961 -0.1153  0.1540  0.3997
41392W        W84304   7.170  13.644  21.823  0.0746  0.1480 -0.1513
41393W        W84305   8.100  14.018  23.143  0.0473  0.0677 -0.3918
41394W        W84306   7.861  14.846  23.566  0.1152 -0.0569  0.2146
41395W        W84307   6.312  11.275  21.676 -0.1085  0.1427  0.1477
41396W        W84308  10.756  11.329  21.277 -0.1052 -0.0362  0.0415
41397W        W84309   8.256  12.078  22.466 -0.1093 -0.0113  0.0838
41398W        W84310  11.032  10.317  22.785 -0.0056  0.0026  0.0283
41399W        W84311   8.774  11.964  21.461 -0.3471 -0.2685 -0.0259
41400W        W84312  12.008  11.839  21.124  0.2332 -0.0829  0.1330
41401W        W84313   9.289  12.672  22.610  0.0255 -0.1006 -0.2893
41402W        W84314   7.314  13.418  21.115  0.0418 -0.3484  0.0550
41403W        W84315   8.871  10.859  21.607  0.0857  0.2725  0.0669
41404W        W84316   9.824  14.464  22.218  0.1120 -0.1041  0.0391
41405W        W84317   8.585  12.805  20.126  0.0708  0.1615  0.1110
41406W        W84318   8.846  15.102  22.749 -0.3445 -0.1524 -0.0647
41407W        W84319   8.086  12.564  22.621 -0.0950  0.0898 -0.0316
41408W        W84320   6.709   9.017  21.033 -0.0675  0.3144  0.0839
41409W        W84321   8.341  13.823  21.184  0.0671  0.3586  0.0366
41410W        W84322   7.687  12.893  22.312 -0.0443  0.3088  0.0887
41411W        W84323  10.511  14.104  22.860  0.1314 -0.0325  0.0701
41412W        W84324   7.570  10.092  20.925  0.3291  0.1419 -0.2005
41413W        W84325  10.691  14.080  19.449  0.0266 -0.0983  0.2551
41414W        W84326  11.075  11.784  22.766 -0.1327 -0.0478 -0.1420
41415W        W84327   9.243  13.448  20.326  0.1852 -0.0800 -0.0626
41416W        W84328   9.659  12.374  21.311  0.0976  0.0136  0.0958
41417W        W84329   9.363  14.696  21.125 -0.1510 -0.0031 -0.1510
41418W        W84330   7.112  11.532  21.438 -0.0552 -0.3746  0.0575
41419W        W84331   8.565  14.252  22.444  0.1081 -0.0184 -0.1071
41420W        W84332  10.197  13.006  22.139  0.1927  0.3888 -0.1355
41421W        W84333   8.065   8.767  21.167 -0.2199 -0.2168 -0.0115
41422W        W84334   7.341  12.468  21.090 -0.0083  0.0096  0.1253
41423W        W84335   7.607  15.014  20.429  0.1390  0.0928  0.2917
41424W        W84336  11.413  11.149  23.471  0.0417  0.2415  0.0875
41425W        W84337   9.689  10.688  22.114 -0.1169  0.1950 -0.2443
41426W        W84338   9.397  13.550  19.042 -0.0633  0.1144 -0.1284
41427W        W84339  10.810   8.850  23.757 -0.0388  0.2632 -0.0357
41428W        W84340   9.213  13.661  22.968 -0.2799 -0.1967  0.2637
41429W        W84341   8.371  14.027  23.611  0.2544  0.0240 -0.1943
41430W        W84342   7.352  11.062  20.379  0.1492  0.2655 -0.1255
41431W        W84343   7.446  13.031  23.633  0.0763  0.0227 -0.3334
41432W        W84344   8.838  13.912  22.698  0.2756  0.2345  0.1639
41433W        W84345   9.351  13.966  21.054 -0.2933 -0.3954 -0.1237
41434W        W84346  10.354  13.567  21.516  0.0737 -0.1149  0.2616
41435W        W84347   8.669  11.169  20.858 -0.1379 -0.1120  0.3968
41436W        W84348  10.271  13.786  20.589 -0.0487 -0.0586 -0.1552
41437W        W84349   8.842  11.972  23.154 -0.2345  0.1183 -0.2957
41438W        W84350  11.108   9.744  20.572 -0.2050  0.4526  0.1581
41439W        W84351   9.798  10.426  20.477  0.0684  0.0085 -0.1136
41440W        W84352   8.008  13.391  22.452 -0.2716 -0.0521 -0.4005
41441W        W84353   6.526  12.266  20.076  0.2716  0.0128 -0.3542
41442W        W84354   7.459  12.289  20.231  0.0548  0.3302  0.1136
41443W        W84355   8.521  12.282  20.125 -0.2542  0.0738  0.0334
41444W        W84356   9.562  11.927  22.816 -0.1449  0.0034 -0.1110
41445W        W84357   8.257  11.356  23.139  0.2461 -0.1691 -0.2568
41446W        W84358   9.218  12.111  20.283 -0.0407  0.1257 -0.0609
41447W        W84359   6.559  10.611  21.854  0.2671  0.1407  0.0107
41448W        W84360  10.139  14.676  20.436 -0.0118  0.2899 -0.0088
41449W        W84361   7.030  10.978  22.812  0.1863  0.1405  0.1033
41450W        W84362   6.258  12.016  22.622 -0.0874  0.1791  0.0817
41451W        W84363  11.121  13.747  20.863 -0.2556 -0.1664  0.0313
41452W        W84364   9.833  12.808  21.027  0.1482 -0.1711  0.4565
41453W        W84365   8.460  10.557  20.712 -0.0222  0.2469  0.1014
41454W        W84366   9.448  15.180  22.132 -0.0061 -0.0416 -0.1952
41455W        W84367   7.653  13.112  21.205  0.0270  0.0346 -0.0442
41456W        W84368   7.822  11.205  23.566  0.2711 -0.0090  0.2284
41457W        W84369   8.406  12.032  21.782 -0.1310  0.0652 -0.1233
41458W        W84370   6.778  11.029  20.154 -0.0169  0.2818  0.0789
41459W        W84371   8.865  13.894  23.457 -0.1716  0.2767  0.1666
41460W        W84372   8.755  14.898  21.631 -0.1010  0.0465 -0.1006
41461W        W84373   9.334  14.247  20.130  0.1519 -0.0932  0.1665
41462W        W84374   7.812  12.973  22.844  0.0045  0.3109  0.1168
41463W        W84375   8.828  12.424  23.872  0.2392 -0.1137  0.1077
41464W        W84376   6.226  10.959  22.082  0.1156 -0.1309  0.1009
41465W        W84377   9.036  11.835  21.014  0.1418  0.0132  0.0913
41466W        W84378   8.095  14.509  23.167 -0.3464  0.2576 -0.0634
41467W        W84379  10.335  14.263  19.882  0.0046 -0.2037  0.1900
41468W        W84380  10.556  11.714  22.039  0.1110 -0.1205 -0.3391
41469W        W84381   9.077  12.592  20.094 -0.2125 -0.0472  0.1493
41470W        W84382   7.337  10.426  23.765 -0.1702  0.1549 -0.1844
41471W        W84383   6.840  14.094  24.173  0.0708 -0.0617 -0.0175
41472W        W84384   9.640  14.247  23.014  0.1617 -0.1282  0.2154
41473W        W84385   7.459  11.069  21.693 -0.1493 -0.0693 -0.2954
41474W        W84386  10.299  10.750  20.324  0.2890  0.3627 -0.0468
41475W        W84387  10.490  13.476  19.723  0.0681 -0.3200 -0.1544
41476W        W84388   6.982  11.327  22.521 -0.2455  0.0161  0.1914
41477W        W84389   8.296  12.258  20.576  0.2122 -0.4178  0.2178
41478W        W84390   9.963  12.580  22.093 -0.1085  0.1198 -0.2227
41479W        W84391   8.546  13.386  22.310 -0.3288  0.0670 -0.2769
41480W        W84392   7.843  13.176  23.255  0.2485 -0.2729 -0.3218
41481W        W84393   9.657  13.572  21.054  0.0095 -0.1472  0.4787
41482W        W84394  11.406  12.791  18.760  0.0742  0.1415  0.3873
41483W        W84395   9.607  14.318  21.314  0.0622  0.1150 -0.0469
41484W        W84396   9.910  13.923  23.306  0.0440 -0.0243  0.2387
41485W        W84397   8.557  14.205  23.114  0.0997 -0.4556  0.0690
41486W        W84398   9.240  12.679  21.771  0.2331  0.0309 -0.1874
41487W        W84399   5.920  10.408  22.480 -0.2538 -0.1380  0.0212
41488W        W84400   8.647  12.985  19.554  0.2094  0.0199 -0.2736
41489W        W84401   6.711  12.468  20.950 -0.0896 -0.1131  0.1503
41490W        W84402   9.488  12.470  22.199  0.2142 -0.0735 -0.0292
41491W        W84403   7.197  11.905  21.876  0.0657  0.0349  0.0173
41492W        W84404   8.670   9.506  21.639  0.1555 -0.3280 -0.0939
41493W        W84405   7.564  14.730  23.222  0.0828 -0.0593 -0.0943
41494W        W84406   9.644  10.992  21.122  0.1417 -0.0565  0.1579
41495W        W84407   7.187  13.450  27.810  0.0379  0.0838  0.2627
41496W        W84408   9.248  12.190  24.061 -0.0827 -0.2711  0.0827
41497W        W84409   8.761  12.098  22.160 -0.2143  0.2163  0.4280
41498W        W84410   8.855  13.311  23.283 -0.0434  0.1430 -0.1654
41499W        W84411   7.196  10.303  25.973  0.0858 -0.1658 -0.2916
41500W        W84412   9.235  13.463  23.602 -0.0601  0.1182 -0.1741
41501W        W84413   8.181  10.388  25.877 -0.0435  0.0096  0.2633
41502W        W84414  10.556  13.942  26.675  0.2476  0.0206  0.4120
41503W        W84415  11.102  14.362  26.233 -0.3057 -0.2020  0.2631
41504W        W84416   8.914  13.242  23.932 -0.2493 -0.0980 -0.0359
41505W        W84417   9.822  11.563  25.384  0.1257  0.0096 -0.2463
41506W        W84418   9.089  14.019  25.917 -0.0075  0.0892 -0.1601
41507W        W84419   9.269  11.489  23.683 -0.1848 -0.2648 -0.2176
41508W        W84420   7.540   9.898  26.900 -0.1449  0.1517 -0.1033
41509W        W84421   9.334  12.327  24.916 -0.3422 -0.1231 -0.0600
41510W        W84422   8.027  12.936  23.668  0.0013  0.1185 -0.1839
41511W        W84423   7.387  11.647  25.584  0.0015  0.2318  0.0523
41512W        W84424   7.840  12.690  26.800 -0.0602 -0.1865 -0.2072
41513W        W84425   9.300  15.863  24.745  0.0877 -0.0371 -0.1169
41514W        W84426   8.897  12.896  26.246 -0.2700  0.0472  0.3928
41515W        W84427   9.000  11.375  27.582 -0.4164 -0.1783 -0.0270
41516W        W84428   9.636  15.383  23.946  0.0762  0.1341  0.2691
41517W        W84429   7.085  12.659  22.331  0.1113  0.0733  0.0532
41518W        W84430   8.539  12.332  24.267  0.3259  0.1762  0.1522
41519W        W84431   7.267  12.394  26.283  0.1190 -0.2637  0.1769
41520W        W84432   9.224  10.641  25.812  0.0386 -0.2185 -0.1163
41521W        W84433   9.599  12.204  25.658 -0.2386 -0.0577 -0.1511
41522W        W84434   9.685  13.932  24.602  0.0420 -0.2337  0.0595
41523W        W84435  10.053  14.311  24.631 -0.2696  0.1482  0.1627
41524W        W84436   9.768  11.963  27.512  0.2597 -0.3792  0.2150
41525W        W84437   7.201  13.152  25.664  0.1744  0.1668 -0.1347
41526W        W84438   6.588  14.285  25.213  0.1648 -0.1054 -0.1083
41527W        W84439   9.483  15.309  25.021 -0.1902  0.1674 -0.0024
41528W        W84440  10.775  14.854  24.394 -0.1750  0.3536 -0.3112
41529W        W84441  11.048  13.409  25.823  0.2984  0.1417 -0.1352
41530W        W84442   7.628  13.620  27.285  0.0005 -0.0189 -0.1318
41531W        W84443   7.389  14.120  25.099 -0.3353  0.1330  0.2261
41532W        W84444  10.151  14.224  26.457 -0.1010 -0.2148 -0.3389
41533W        W84445   7.954  13.803  28.564 -0.0684  0.1787  0.0145
41534W        W84446   8.589  12.728  25.422 -0.1530  0.0093  0.0969
41535W        W84447   8.666  13.517  24.254 -0.0548  0.2947  0.1651
41536W        W84448   7.346  15.189  23.325  0.1421  0.0403 -0.2592
41537W        W84449   7.969  13.047  26.242 -0.0541  0.0674  0.2489
41538W        W84450   8.562  13.861  26.802 -0.1202  0.2020  0.2332
41539W        W84451   6.941  13.949  25.197 -0.1798  0.0796 -0.3894
41540W        W84452  11.563  11.238  26.354 -0.6821  0.1835  0.0429
41541W        W84453   7.603  13.709  24.907  0.0020 -0.0632  0.0062
41542W        W84454  10.056  11.459  22.065  0.2752 -0.0321 -0.1350
41543W        W84455   8.196  11.718  24.940  0.1567  0.1985  0.1699
41544W        W84456   9.742  12.307  23.859 -0.0066  0.1999 -0.0794
41545W        W84457  11.158  10.794  25.986 -0.3467  0.0119  0.0097
41546W        W84458   7.657  14.076  27.019  0.2414  0.0585  0.0575
41547W        W84459   7.696  10.654  26.185  0.4752  0.1487  0.2542
41548W        W84460  10.544  13.726  25.352  0.2984  0.0798 -0.3407
41549W        W84461   8.842  12.978  25.112  0.2283  0.0564 -0.0297
41550W        W84462   9.189  12.338  26.234 -0.0217  0.0061 -0.3571
41551W        W84463   8.201  13.915  26.017  0.0499 -0.1327  0.1652
41552W        W84464   8.249  12.318  25.341  0.2140 -0.1506  0.1841
41553W        W84465  11.342  13.485  24.098 -0.0335 -0.1453  0.0896
41554W        W84466  10.588  12.550  23.928  0.0761  0.0843 -0.0343
41555W        W84467   9.664  14.973  23.199 -0.5236 -0.3774  0.2159
41556W        W84468   8.282  12.760  24.563 -0.3869 -0.3197  0.0302
41557W        W84469   5.658  13.194  27.476  0.1534  0.0091  0.0471
41558W        W84470   6.300  11.903  26.020  0.0155  0.0036 -0.0859
41559W        W84471   8.116  10.676  23.182  0.2159  0.3258 -0.1419
41560W        W84472  10.081  12.338  27.380  0.3752  0.1156  0.2039
41561W        W84473   7.965  14.114  26.630 -0.2148 -0.2329  0.0614
41562W        W84474  10.147  11.618  24.148  0.0489  0.1603  0.1939
41563W        W84475   8.479  12.681  26.644  0.0798 -0.0909 -0.1315
41564W        W84476   9.905  13.224  24.941 -0.2428  0.2987  0.0537
41565W        W84477  10.298  15.273  23.756 -0.0398 -0.2729  0.2869
41566W        W84478   9.125  11.132  24.954  0.0048  0.1186  0.2133
41567W        W84479  11.397  10.413  26.142 -0.3459  0.3542 -0.0730
41568W        W84480   7.289  13.927  23.453  0.0686  0.2060  0.1615
41569W        W84481   9.426  13.853  23.379 -0.2870  0.3463  0.0131
41570W        W84482  10.483  14.067  24.956  0.2940 -0.5238  0.1135
41571W        W84483  10.122  12.685  23.693  0.0205  0.0908  0.1525
41572W        W84484   9.445  14.181  26.287  0.1291 -0.0894  0.1696
41573W        W84485   8.073  11.692  26.499 -0.0021  0.1927 -0.0377
41574W        W84486   7.849  14.295  28.276  0.0373  0.1161 -0.2458
41575W        W84487   8.821  13.378  24.795 -0.1956 -0.2142  0.0301
41576W        W84488   7.528  13.140  26.017  0.2625 -0.0493 -0.0569
41577W        W84489   7.830  13.035  24.282 -0.0481  0.4209 -0.1707
41578W        W84490   8.730  10.396  25.935 -0.2465  0.1232  0.0701
41579W        W84491   7.669  12.645  25.917 -0.2607 -0.0912  0.1420
41580W        W84492  10.924  10.335  24.292  0.0375  0.3606  0.0805
41581W        W84493   8.800  10.943  25.800  0.0046 -0.0435 -0.1367
41582W        W84494   9.552  10.650  27.175  0.0040  0.0954  0.0579
41583W        W84495   6.765  12.589  26.284  0.0360 -0.1854  0.0782
41584W        W84496  10.522  15.262  25.919  0.4013 -0.0916 -0.2029
41585W        W84497   9.223  12.780  23.147  0.2354 -0.1035  0.0730
41586W        W84498  10.433  13.158  23.167  0.3078  0.2075 -0.2518
41587W        W84499   7.166  11.396  25.144 -0.0144 -0.0748  0.0942
41588W        W84500   7.939  12.130  22.925  0.0783 -0.1538 -0.1480
41589W        W84501   8.135  11.020  27.921 -0.0061  0.0867  0.0788
41590W        W84502   8.374  11.293  25.725  0.0266  0.0138 -0.2490
41591W        W84503   9.383  13.311  26.952 -0.0329  0.0448  0.1483
41592W        W84504   9.219  10.237  23.718 -0.1085  0.0637  0.0586
41593W        W84505   8.850  11.527  25.816  0.0154 -0.1317 -0.1436
41594W        W84506   8.072  13.380  24.043  0.1713 -0.3962  0.1201
41595W        W84507   7.813  12.120  25.599 -0.2526  0.2800 -0.2318
41596W        W84508   9.896  13.290  26.846 -0.0812  0.0208  0.1907
41597W        W84509   9.261  15.590  24.239  0.1683  0.3361 -0.2349
41598W        W84510  10.831  12.989  26.983 -0.1714  0.0236  0.0177
41599W        W84511  10.733  14.351  25.276  0.3297  0.2176 -0.1258
41600W        W84512   8.485  12.296  27.056  0.2114 -0.0865  0.0411
41601W        W84513   8.329  11.661  23.906 -0.2102 -0.2658 -0.1837
41602W        W84514   6.660  13.916  24.678  0.0173 -0.0099 -0.1468
41603W        W84515   8.210  13.630  26.512 -0.1089  0.1509  0.2159
41604W        W84516   8.451  11.252  23.673 -0.0026 -0.2387  0.0707
41605W        W84517   9.581  13.724  25.044 -0.3218 -0.2694 -0.0354
41606W        W84518   9.609  12.380  24.444  0.0645  0.0902  0.0054
41607W        W84519   9.408  13.649  25.872  0.2155 -0.2481 -0.1478
41608W        W84520  10.246  11.713  26.188 -0.1380 -0.3164  0.2639
41609W        W84521  10.548  12.605  25.440  0.2708 -0.1019  0.3704
41610W        W84522  10.031  11.695  23.066  0.0638  0.2011  0.0835
41611W        W84523   7.339  11.911  23.793  0.0392  0.5757 -0.0007
41612W        W84524  10.101  14.022  24.092 -0.0436  0.1679 -0.0188
41613W        W84525   6.763  13.449  25.131  0.0004  0.2051  0.2535
41614W        W84526   7.721  12.528  25.311 -0.0060 -0.0166  0.0721
41615W        W84527  10.217  13.832  24.607  0.0736  0.2009 -0.1923
41616W        W84528  10.544   9.999  25.193  0.0495  0.0286  0.2299
41617W        W84529   7.811  12.343  27.680 -0.2527  0.0742 -0.0544
41618W        W84530  10.467  10.088  25.942 -0.1704  0.1722  0.1782
41619W        W84531   6.879  12.282  25.218  0.1322  0.1579 -0.0954
41620W        W84532   7.403  15.110  26.462  0.2673  0.2404  0.0556
41621W        W84533   9.503   9.977  23.196 -0.1578 -0.1350  0.3344
41622W        W84534   8.695  11.810  25.185 -0.1289 -0.0705 -0.0758
41623W        W84535   8.385  11.603  26.085  0.1018  0.1385 -0.0940
41624W        W84536  10.328  12.354  23.332  0.4565 -0.0838 -0.0948
41625W        W84537   9.778  12.571  23.271  0.2342  0.0567 -0.3974
41626W        W84538   9.805  10.966  24.121  0.0635  0.2146  0.0109
41627W        W84539   7.448  11.851  27.772 -0.2295 -0.2041  0.1755
41628W        W84540   9.725  14.100  23.748 -0.2834  0.0641  0.0728
41629W        W84541   8.025  13.200  26.743  0.0295 -0.0774 -0.2903
41630W        W84542   8.750  12.886  22.492  0.1116 -0.0589 -0.0864
41631W        W84543  10.571  13.552  24.824 -0.0090 -0.2231 -0.2266
41632W        W84544   7.381  12.149  27.360  0.2392  0.1143 -0.0043
41633W        W84545   9.959  12.638  25.634  0.2345  0.2381 -0.0501
41634W        W84546   9.783  13.938  26.019 -0.0564  0.2088 -0.1630
41635W        W84547   8.842  10.244  26.474  0.1181 -0.0296  0.1917
41636W        W84548   8.692  12.867  23.042  0.1916 -0.1413 -0.2001
41637W        W84549   8.997  11.900  23.624 -0.0854 -0.1279 -0.0351
41638W        W84550   7.445  15.657  23.596 -0.1895  0.1849  0.4125
41639W        W84551  10.289  11.405  25.135  0.1206  0.1213 -0.1890
41640W        W84552   8.900  11.356  25.313 -0.1721 -0.1264 -0.1810
41641W        W84553   9.506  11.419  26.822  0.0359  0.0222  0.0131
41642W        W84554  10.089  12.426  28.204  0.1353  0.0092  0.2457
41643W        W84555   9.703  11.918  24.204  0.1589 -0.0743 -0.1737
41644W        W84556   9.032  11.993  25.823 -0.0761 -0.0676 -0.0538
41645W        W84557   7.758  13.769  24.286 -0.1396 -0.0055 -0.1883
41646W        W84558  10.142  11.087  26.099  0.1057 -0.0439  0.0390
41647W        W84559   8.095  12.707  25.599 -0.1604 -0.0942 -0.1423
41648W        W84560   6.911  13.769  27.343 -0.0025  0.1977  0.0797
41649W        W84561  10.012  12.747  26.150 -0.2110 -0.0135 -0.0776
41650W        W84562   9.183  11.978  25.345 -0.2094 -0.2536 -0.1782
41651W        W84563   9.897  11.711  27.069  0.0845  0.0038  0.2592
41652W        W84564   9.639  12.850  23.789 -0.1841 -0.1111  0.1254
41653W        W84565   7.189  14.993  24.168  0.3554  0.2355 -0.0381
41654W        W84566   8.976  13.750  23.947 -0.3778  0.0259  0.0498
41655W        W84567   8.623  12.427  26.142  0.0192  0.1190  0.0564
41656W        W84568   9.482  13.819  24.036 -0.1249 -0.0824 -0.1935
41657W        W84569   7.957  11.680  23.501 -0.0638  0.0711  0.1039
41658W        W84570   9.797  13.451  26.230 -0.0958 -0.0460 -0.4119
41659W        W84571   7.934  14.071  24.756  0.2355 -0.0862  0.1298
41660W        W84572  11.967  10.797  25.184 -0.1663 -0.2396 -0.4186
41661W        W84573   7.754  14.134  26.115 -0.2584 -0.0181  0.3296
41662W        W84574   7.608  11.967  24.473  0.2868 -0.0585  0.0868
41663W        W84575   7.621  13.478  23.730  0.2872 -0.0355  0.1212
41664W        W84576   9.949  11.606  24.726 -0.0961  0.0174 -0.0721
41665W        W84577  10.286  13.687  23.122  0.0843 -0.1301 -0.0267
41666W        W84578   7.700  12.196  26.138 -0.0527 -0.3383  0.1368
41667W        W84579   8.692  10.860  25.051 -0.0821  0.1068 -0.1500
41668W        W84580   6.964  13.534  25.939  0.1260 -0.2069  0.1799
41669W        W84581   9.644  12.516  27.121 -0.0483  0.0448 -0.2567
41670W        W84582   8.981  11.564  24.548  0.1181 -0.1295  0.0589
41671W        W84583   9.948  14.482  26.864  0.1275 -0.3350  0.1221
41672W        W84584   8.240  12.760  27.155  0.1527 -0.1299 -0.0728
41673W        W84585   7.268  12.458  23.947  0.2070 -0.0557  0.0383
41674W        W84586   9.333  11.002  26.694  0.0834 -0.0641  0.2119
41675W        W84587   9.637  11.043  23.681 -0.4194  0.1885 -0.3745
41676W        W84588   7.341  12.508  26.991 -0.3429  0.0821  0.0250
41677W        W84589   9.580  12.635  25.907  0.1439 -0.0385 -0.1527
41678W        W84590   7.515  13.389  24.410  0.1632 -0.4297 -0.2073
41679W        W84591   7.168  13.486  24.800  0.3159  0.2123 -0.0895
41680W        W84592   9.584  11.376  27.350  0.0263 -0.2441 -0.1411
41681W        W84593   9.215  12.592  26.809  0.0888  0.3628  0.0640
41682W        W84594   8.438  11.848  25.606 -0.0146 -0.0414  0.0491
41683W        W84595   8.505  11.811  26.803  0.1242 -0.0650 -0.2452
41684W        W84596   8.766  11.896  24.183 -0.0909 -0.0248  0.1833
41685W        W84597   9.354  13.250  25.030 -0.0278  0.1617 -0.1400
41686W        W84598  10.128  10.495  26.118  0.0259  0.1033  0.0954
41687W        W84599   9.156  13.807  26.972  0.0346  0.1022  0.2932
41688W        W84600   9.354  10.496  28.631  0.0544 -0.3660  0.0161
41689W        W84601   9.997  14.875  23.722 -0.0303  0.0273  0.0566
41690W        W84602   9.651  12.790  25.128  0.0489  0.1855  0.2694
41691W        W84603   6.506  14.844  22.987 -0.2269  0.2813 -0.1797
41692W        W84604   7.578  11.636  26.429  0.0988 -0.0945  0.0674
41693W        W84605   7.396  13.118  25.085 -0.0010 -0.2018 -0.2111
41694W        W84606   8.729  12.263  25.575  0.0298 -0.1075  0.1128
41695W        W84607   8.706  13.742  26.211  0.0170  0.1385  0.2044
41696W        W84608   6.817  12.152  25.898  0.0800 -0.0659  0.1365
41697W        W84609   6.465  13.098  27.156  0.0095  0.3180  0.3163
41698W        W84610  10.560  10.394  23.324  0.0494  0.0670 -0.0062
41699W        W84611   7.679  12.531  23.655 -0.0352  0.0937  0.0208
41700W        W84612   9.327  12.397  23.502 -0.2275  0.2652 -0.1306
41701W        W84613  11.849  10.224  27.993 -0.2416  0.2192  0.0619
41702W        W84614  10.176  12.120  23.912  0.2396  0.0900  0.0892
41703W        W84615  10.028  11.563  27.718 -0.1397 -0.0595  0.3773
41704W        W84616   8.111   9.946  26.201  0.0612 -0.1349 -0.0048
41705W        W84617   9.831  13.536  24.112 -0.1186  0.0066  0.2732
41706W        W84618   7.597  11.471  27.183 -0.1361  0.1681  0.3959
41707W        W84619   8.242  13.611  25.583  0.2669  0.0049  0.3574
41708W        W84620   7.842  11.907  27.396  0.1748 -0.0334  0.2073
41709W        W84621   9.243  11.674  24.120 -0.1113  0.2125  0.2023
41710W        W84622   7.494  10.851  23.395 -0.0277 -0.0396 -0.1367
41711W        W84623   8.630  13.566  25.212 -0.0469 -0.0313 -0.0007
41712W        W84624   9.608  13.377  24.583 -0.2902 -0.1765  0.0435
41713W        W84625   9.362  12.842  24.728 -0.3899  0.0507 -0.2762
41714W        W84626   9.119  12.099  24.538  0.2336  0.2047  0.1092
41715W        W84627   7.607  11.947  26.968 -0.2306  0.1727  0.1030
41716W        W84628   9.342  11.545  25.086  0.1448 -0.2520 -0.0960
41717W        W84629   8.660  11.929  24.685  0.1644  0.1042 -0.0253
41718W        W84630   7.642  11.665  25.045  0.1546 -0.1908  0.2320
41719W        W84631   8.050  12.164  26.662 -0.1818  0.1446 -0.1729
41720W        W84632  10.125  13.139  25.413 -0.1884  0.0259  0.2410
41721W        W84633  10.373  11.892  24.857 -0.2562 -0.4991 -0.0382
41722W        W84634  11.391  10.262  28.329  0.1873 -0.0238  0.2112
41723W        W84635   9.389  13.663  26.439  0.2308  0.0406  0.1788
41724W        W84636   8.275  13.202  25.296 -0.0881  0.1007 -0.0540
41725W        W84637   7.690  10.897  28.080 -0.1643  0.1951  0.2126
41726W        W84638   9.146  13.866  24.894  0.1467  0.3432  0.1342
41727W        W84639  10.911  13.134  22.782  0.0167 -0.2088  0.1847
41728W        W84640  11.478  11.192  27.403  0.2112 -0.1451 -0.1515
41729W        W84641   9.768  12.430  22.639  0.0902  0.5494  0.1504
41730W        W84642  10.518  11.200  22.759  0.1124  0.3533  0.0442
41731W        W84643   8.386  12.036  26.346  0.1615 -0.0373  0.0310
41732W        W84644   7.983  11.379  27.509 -0.1212  0.0074  0.2505
41733W        W84645   9.529  11.914  23.753 -0.1370  0.1035 -0.1129
41734W        W84646   9.796  11.255  26.464  0.0007  0.1572 -0.4061
41735W        W84647   8.795  14.710  23.066 -0.0066 -0.1982  0.1378
41736W        W84648  10.622  13.670  23.958  0.3203  0.2859  0.0853
41737W        W84649  10.651  12.605  24.812  0.0616 -0.2200 -0.4918
41738W        W84650   6.008  11.583  26.254  0.0336  0.0159  0.2076
41739W        W84651   7.533  13.898  28.210  0.0614  0.4596 -0.1523
41740W        W84652   9.712  11.500  23.414  0.1124  0.3516 -0.2490
41741W        W84653   8.336  12.315  24.845  0.2724  0.2009  0.0921
41742W        W84654   8.460  12.894  26.036  0.0766  0.0239 -0.3005
41743W        W84655  10.782  12.355  26.614 -0.0887  0.3903 -0.0218
41744W        W84656   8.637  11.823  22.578  0.0281  0.1420 -0.2131
41745W        W84657  11.158  11.470  25.517  0.2130  0.0088  0.1341
41746W        W84658   8.116  12.676  25.073 -0.1858 -0.2001  0.2048
41747W        W84659   9.906  10.164  24.497 -0.0319 -0.2286  0.1286
41748W        W84660   9.404  14.369  24.685  0.2068  0.0060  0.0218
41749W        W84661   6.874  12.284  26.759 -0.0918 -0.1410  0.1379
41750W        W84662   8.881  14.000  24.456 -0.0308  0.3160  0.4191
41751W        W84663   9.716  11.166  25.715  0.1543  0.2213  0.0277
41752W        W84664  10.074  12.510  24.211  0.1672  0.2879  0.0357
41753W        W84665   8.751  12.499  24.648 -0.2059  0.1935  0.2397
41754W        W84666  10.117  12.010  24.426 -0.0912 -0.2451 -0.1564
41755W        W84667   8.948  12.725  25.808 -0.1868  0.2390  0.0376
41756W        W84668   7.870  13.206  24.953  0.2907 -0.2469  0.1971
41757W        W84669   9.822  13.552  27.897  0.1258 -0.2141 -0.0767
41758W        W84670  10.800  13.818  24.457  0.0483  0.2286 -0.2625
41759W        W84671   7.285  13.604  25.336  0.0455  0.3832 -0.1515
41760W        W84672   7.641  11.788  29.028  0.1093 -0.1032 -0.0075
41761W        W84673   9.244  13.037  25.486 -0.3400  0.0637 -0.0124
41762W        W84674  10.433  14.661  25.659 -0.0603 -0.0595  0.0222
41763W        W84675   9.717  10.791  25.284  0.2119  0.0880  0.2427
41764W        W84676   9.125  14.176  23.047  0.1382 -0.1627 -0.0928
41765W        W84677   6.216  14.602  27.159 -0.1393 -0.0491  0.0561
41766W        W84678   7.387  12.141  25.292  0.1625  0.0626  0.0830
41767W        W84679   6.745  14.765  24.237  0.5022  0.3542 -0.0732
41768W        W84680   8.781  12.983  24.488  0.0897  0.0226  0.0758
41769W        W84681   9.150  13.453  24.452  0.3564 -0.3915 -0.2208
41770W        W84682  10.846  13.662  26.322  0.3883 -0.0608  0.0161
41771W        W84683   8.116  12.675  23.104  0.1730 -0.0328 -0.1610
41772W        W84684   8.095  13.489  24.547  0.1479  0.0710 -0.1879
41773W        W84685   5.723  14.172  24.697  0.0838  0.0981 -0.0521
41774W        W84686  10.492  15.174  22.412  0.1887 -0.0549  0.0265
41775W        W84687   8.382  13.184  24.794  0.2130  0.3251 -0.1022
41776W        W84688  10.994  14.660  26.955  0.0897  0.0155  0.0496
41777W        W84689  10.218  10.821  23.384  0.0423 -0.2903  0.0497
41778W        W84690  10.476  12.710  26.357  0.2013  0.0039 -0.0448
41779W        W84691   8.516  11.407  24.363  0.0777 -0.0016  0.1857
41780W        W84692  10.187  13.605  27.059 -0.0371  0.3774 -0.4114
41781W        W84693   8.301  11.258  25.230  0.0703  0.1591 -0.2306
41782W        W84694   9.772  12.019  22.319 -0.3197 -0.2604 -0.1072
41783W        W84695   8.001  12.292  27.110  0.2156  0.1107 -0.1985
41784W        W84696  10.830  10.722  27.242 -0.1537  0.3568 -0.1098
41785W        W84697   8.155  13.748  27.512  0.0815 -0.0782  0.0942
41786W        W84698   9.938  14.099  25.105  0.0553  0.0799 -0.1158
41787W        W84699   8.598  11.456  24.847  0.3368  0.1194 -0.1464
41788W        W84700   8.808  11.480  23.905  0.1811  0.0964 -0.1584
41789W        W84701  11.975  10.062  25.874 -0.2129  0.1746  0.2597
41790W        W84702   8.186  12.627  24.087 -0.0257  0.2003 -0.1048
41791W        W84703   9.347  11.595  25.704 -0.1913  0.1420 -0.1214
41792W        W84704   8.897  14.317  24.853 -0.2276  0.1056 -0.2348
41793W        W84705   8.155  13.674  25.051 -0.0499  0.2262 -0.2629
41794W        W84706   9.885  14.619  26.342 -0.0395 -0.0386 -0.4446
41795W        W84707   6.549  11.426  23.978 -0.2018 -0.2220 -0.0354
41796W        W84708  11.287  13.044  24.331  0.2902  0.2453 -0.1817
41797W        W84709   7.311  11.432  26.808 -0.1010  0.1196 -0.2912
41798W        W84710  11.517  10.494  25.156 -0.0564 -0.0613  0.0046
41799W        W84711   8.088  13.487  22.943 -0.0816 -0.1872 -0.0879
41800W        W84712   8.810  12.270  25.089  0.2161  0.1260  0.1191
41801W        W84713   9.696  13.708  27.091 -0.0371 -0.1708 -0.3054
41802W        W84714   7.199  11.918  26.622  0.0736  0.0230 -0.3529
41803W        W84715   9.358  13.096  21.500  0.1093 -0.0119 -0.1054
41804W        W84716  11.662  12.141  26.513  0.2684 -0.0186  0.2603
41805W        W84717   7.600  12.632  24.241 -0.2292 -0.0751 -0.1046
41806W        W84718  10.199  15.762  27.677  0.0712  0.0032 -0.2102
41807W        W84719   7.855  10.720  24.643 -0.0279  0.0179 -0.0587
41808W        W84720   8.846  12.426  23.343 -0.1167  0.0651  0.1252
41809W        W84721   6.539  13.106  24.088 -0.1840 -0.0543 -0.0751
41810W        W84722   8.114  13.661  27.004 -0.1313 -0.1094  0.0295
41811W        W84723  11.248  15.029  27.790 -0.2428  0.4096  0.2105
41812W        W84724   9.313  11.769  23.245 -0.0912 -0.1864  0.0227
41813W        W84725  11.050  13.769  22.336 -0.2472 -0.1562 -0.0622
41814W        W84726  10.214  10.927  25.079  0.1319  0.3972  0.1344
41815W        W84727   5.786  14.521  24.006 -0.2641  0.3498  0.1028
41816W        W84728   9.756  12.993  24.303 -0.1803  0.2905 -0.2658
41817W        W84729  11.199  14.702  25.722 -0.0425 -0.1755  0.0703
41818W        W84730   6.364  11.050  27.252  0.0601 -0.0874  0.0455
41819W        W84731   9.606  14.069  26.761 -0.2633  0.4093  0.0380
41820W        W84732  10.856  13.063  24.779  0.0335  0.4399  0.0877
41821W        W84733   9.259  10.659  24.987  0.2114  0.1114 -0.0102
41822W        W84734   7.968  11.666  25.391  0.0464 -0.3749  0.0460
41823W        W84735   7.714  14.726  24.568  0.0370 -0.0708 -0.0230
41824W        W84736  10.686  11.112  25.957  0.3339 -0.2162 -0.1085
41825W        W84737   9.768  12.077  25.187  0.0086  0.1424 -0.1490
41826W        W84738   8.128  14.805  24.190 -0.3171 -0.1952 -0.0881
41827W        W84739  12.528  11.909  26.741 -0.4904  0.0888 -0.3150
41828W        W84740   8.954  14.560  26.279  0.2490  0.0255  0.2424
41829W        W84741   8.915  13.481  26.577  0.0313 -0.0539  0.0284
41830W        W84742   6.944  13.162  23.836  0.2005 -0.0084  0.1700
41831W        W84743   8.772  13.721  25.706  0.1882  0.3045  0.1544
41832W        W84744   7.885  12.150  24.990  0.0726  0.1771 -0.3705
41833W        W84745   9.620  14.595  23.941 -0.4808 -0.0654 -0.3389
41834W        W84746  10.547  14.274  24.224 -0.0628 -0.0067  0.1160
41835W        W84747   7.115  12.757  25.973 -0.0278  0.0304  0.2988
41836W        W84748  10.966  12.831  26.524 -0.2959  0.0111  0.0721
41837W        W84749   8.637  10.066  25.602 -0.0520 -0.2784  0.0676
41838W        W84750  11.074  11.685  24.142 -0.3149  0.0953  0.2624
41839W        W84751  10.569   9.019  24.477 -0.0484  0.0279  0.0971
41840W        W84752   8.067  11.663  26.981 -0.2418 -0.1938 -0.1130
41841W        W84753   6.503  11.971  23.326  0.0327  0.3536 -0.4992
41842W        W84754   6.321  14.191  24.128 -0.1468 -0.0485 -0.0701
41843W        W84755   7.295  13.299  27.201 -0.0764 -0.1170  0.2400
41844W        W84756   9.131  11.740  28.425 -0.0211  0.1834 -0.1673
41845W        W84757   8.727  11.021  27.451 -0.1499 -0.1414 -0.2054
41846W        W84758   7.084  11.994  24.829 -0.0563  0.3413 -0.0420
41847W        W84759   7.745  11.599  23.923 -0.2326 -0.3339  0.0487
41848W        W84760  11.333  13.452  22.606  0.1442 -0.1710 -0.1045
41849W        W84761   9.710  10.641  26.678 -0.0399 -0.0746  0.0205
41850W        W84762   6.281  11.599  25.128  0.0341  0.3027  0.1358
41851W        W84763   9.637  12.924  22.936 -0.0502 -0.0512  0.2655
41852W        W84764  10.220  13.333  23.777 -0.0904 -0.0783 -0.0479
41853W        W84765   9.878  12.044  23.379  0.1841 -0.5194  0.0166
41854W        W84766  10.971  12.918  26.012  0.1254  0.2866 -0.0219
41855W        W84767   7.721  13.700  23.240  0.0476  0.0803  0.0109
41856W        W84768   9.688  12.412  27.684 -0.2072 -0.0362  0.1125
41857W        W84769   9.228  12.123  28.128  0.2010 -0.0152  0.1481
41858W        W84770   6.627  10.282  23.220  0.2365 -0.2269 -0.2993
41859W        W84771   9.300  13.150  26.417  0.1180  0.0635 -0.0535
41860W        W84772   9.323  14.451  25.162  0.1648  0.0073  0.4013
41861W        W84773   9.163  14.807  21.911 -0.1964  0.1985 -0.0459
41862W        W84774   9.464  13.146  25.959 -0.1692 -0.0179 -0.0772
41863W        W84775   9.189  14.464  27.199  0.0092 -0.1595 -0.0346
41864W        W84776   8.040  11.191  26.921 -0.2440 -0.0583  0.1954
41865W        W84777  10.568  12.367  24.360  0.0913  0.0176 -0.0101
41866W        W84778   7.991  13.258  27.235 -0.4116  0.0689  0.0539
41867W        W84779  10.297  13.789  23.649 -0.1591 -0.1631  0.1663
41868W        W84780  10.250  11.928  25.741 -0.1727 -0.1739 -0.0228
41869W        W84781  10.399  10.432  24.347  0.2932  0.1031 -0.3623
41870W        W84782   8.350  10.395  26.344  0.1116  0.2254 -0.0998
41871W        W84783   8.450  11.372  26.579  0.0786  0.2987  0.0443
41872W        W84784   9.934  13.134  25.852 -0.1014 -0.0413  0.0191
41873W        W84785   8.217  11.923  24.451  0.1781  0.0744 -0.0984
41874W        W84786  10.700  10.721  23.005  0.1084 -0.1284 -0.0307
41875W        W84787   9.947  13.061  23.321 -0.2629 -0.1571 -0.0439
41876W        W84788   8.030  12.534  26.303 -0.0447  0.0834  0.1503
41877W        W84789   8.398  12.316  23.715 -0.2921  0.1708 -0.1684
41878W        W84790   8.174  12.279  25.918  0.1144  0.0016  0.1943
41879W        W84791   9.648  13.281  25.437  0.2186  0.1100 -0.1035
41880W        W84792  10.463  13.591  27.574  0.2152  0.1647 -0.0547
41881W        W84793   8.437  13.088  24.103 -0.0991  0.0990  0.2792
41882W        W84794  10.314  12.979  24.194 -0.1520 -0.0516 -0.1762
41883W        W84795   9.396  14.913  26.426  0.0029 -0.0857 -0.0431
41884W        W84796  10.973  15.979  27.616 -0.1004  0.0210  0.0741
41885W        W84797  10.145  13.354  24.419 -0.0512 -0.0406 -0.2576
41886W        W84798   9.983  12.761  24.632 -0.1582  0.0558 -0.0583
41887W        W84799   7.710  10.307  25.866  0.4925 -0.0760  0.1915
41888W        W84800   8.028  13.166  25.755  0.0379 -0.0800 -0.2376
41889W        W84801   8.922  12.196  26.715  0.0908 -0.0463 -0.1309
41890W        W84802  10.712  11.595  25.856  0.0670  0.1476  0.1257
41891W        W84803   9.615  10.848  26.251  0.0239 -0.1471 -0.1425
41892W        W84804  10.580  11.695  22.645  0.1216  0.0396 -0.0581
41893W        W84805   8.055  14.687  27.833 -0.1486 -0.1966  0.3662
41894W        W84806   8.645  13.218  25.608 -0.1074  0.0690  0.5211
41895W        W84807   8.137  14.583  30.220 -0.0801  0.0066 -0.1475
41896W        W84808   8.004  11.415  29.252  0.0342 -0.0902 -0.0537
41897W        W84809  10.255  10.929  26.652 -0.2277 -0.0607 -0.3497
41898W        W84810  10.483  12.758  27.328 -0.0617  0.0383  0.1513
41899W        W84811   6.130  10.878  29.265  0.3166 -0.1961 -0.2687
41900W        W84812  11.546  14.396  29.052  0.1164 -0.0748  0.0659
41901W        W84813   7.228  11.342  31.619  0.2749 -0.1722 -0.1276
41902W        W84814   9.561  15.105  30.407 -0.0820 -0.1435 -0.0788
41903W        W84815  10.402  14.629  29.508 -0.2167  0.2066 -0.1744
41904W        W84816   8.763  12.731  27.211 -0.3414 -0.0641  0.0151
41905W        W84817   8.353  12.734  31.190  0.1322 -0.1385  0.2721
41906W        W84818   8.440  12.860  29.820 -0.0640 -0.3062 -0.2528
41907W        W84819   8.978  10.869  28.778  0.2400 -0.1470 -0.0519
41908W        W84820   7.200  10.422  28.531  0.1274  0.0650 -0.1196
41909W        W84821   9.862  13.045  29.813 -0.3127 -0.2251 -0.0649
41910W        W84822   6.377  12.824  28.848 -0.1077  0.0308 -0.1212
41911W        W84823   8.456  12.159  29.184 -0.3723  0.0800 -0.1048
41912W        W84824   9.574  12.550  28.150 -0.2204  0.1623 -0.0448
41913W        W84825   9.556  16.006  28.225 -0.2097  0.0960 -0.3200
41914W        W84826   8.411  11.917  30.650  0.1374 -0.1023  0.0918
41915W        W84827  10.374  11.442  29.731  0.2540 -0.1611 -0.2163
41916W        W84828  10.380  13.915  27.919  0.0405  0.4119 -0.1590
41917W        W84829   6.930  12.661  27.964  0.2884 -0.2267 -0.2082
41918W        W84830   8.163  12.874  28.605  0.0745  0.0414 -0.0583
41919W        W84831   6.839  11.733  30.269 -0.2185  0.0781  0.3488
41920W        W84832   9.208  10.880  30.112 -0.2772  0.0959  0.1564
41921W        W84833   9.290  12.993  29.186  0.0031 -0.2822  0.1011
41922W        W84834   8.700  14.197  29.542 -0.0435 -0.3672  0.1654
41923W        W84835  10.099  14.189  29.608  0.0573 -0.1729 -0.1868
41924W        W84836  10.038  12.416   0.121  0.0872 -0.0089 -0.1183
41925W        W84837   7.971  13.306  28.345 -0.1631  0.0403 -0.1241
41926W        W84838   6.036  14.627  28.636 -0.0269 -0.1249  0.2684
41927W        W84839  10.049  13.208  27.567  0.0043  0.0079  0.0686
41928W        W84840  10.822  14.045  28.406 -0.1908 -0.0597  0.0430
41929W        W84841  10.809  12.201  28.818  0.0228 -0.2417  0.4353
41930W        W84842   9.341  14.239  30.856  0.5514  0.0503 -0.0637
41931W        W84843   8.480  13.206  26.510  0.2249  0.0000 -0.0886
41932W        W84844  10.438  13.839   0.247 -0.0224 -0.3779  0.1202
41933W        W84845   7.126  13.195  30.006 -0.2238  0.1818 -0.0358
41934W        W84846   9.066  11.367  30.257  0.0907 -0.4696 -0.2239
41935W        W84847   8.061  13.307  28.842 -0.0082  0.2593 -0.0182
41936W        W84848   9.284  14.526  26.725  0.0625 -0.0274  0.0801
41937W        W84849   9.211  13.369  29.633  0.1654  0.3176 -0.1546
41938W        W84850   8.284  11.429  30.414 -0.2808  0.1195 -0.1209
41939W        W84851   6.345  13.415  28.722 -0.1049  0.1116  0.1717
41940W        W84852  11.901  11.870   0.366 -0.0062 -0.3290  0.0487
41941W        W84853   7.962  12.854  28.117  0.0254 -0.2214 -0.0742
41942W        W84854  11.509  12.603  27.229 -0.3443  0.0236 -0.0564
41943W        W84855   8.819  11.223  26.301  0.2529  0.1390  0.1205
41944W        W84856   9.602  11.488  28.504 -0.2813  0.1369 -0.1287
41945W        W84857   7.788  10.438  29.611 -0.1682  0.0243 -0.0215
41946W        W84858   7.996  13.621  29.567 -0.1331  0.2101 -0.1314
41947W        W84859   7.636  11.034  29.216  0.0356  0.2097  0.1066
41948W        W84860  10.425  13.158  29.625  0.2401 -0.0064  0.1321
41949W        W84861   8.450  13.087  27.464  0.0109  0.1543 -0.1163
41950W        W84862  10.140  11.992  30.046 -0.3831  0.0650  0.4453
41951W        W84863   8.458  13.562  28.880 -0.1799 -0.0560  0.2360
41952W        W84864   5.921  12.185  29.053  0.5390 -0.0689 -0.1522
41953W        W84865  12.019  14.826  28.224 -0.2767  0.0161 -0.1511
41954W        W84866  10.952  14.390  29.282 -0.4137  0.0310  0.1676
41955W        W84867   8.329  14.856  28.739 -0.0186 -0.1258 -0.0289
41956W        W84868   7.416  12.572  28.765  0.0894  0.4079  0.4608
41957W        W84869   9.341  11.948  31.619  0.0759 -0.0202 -0.0726
41958W        W84870   7.925  12.552  31.002 -0.0498 -0.1038  0.2151
41959W        W84871   8.862  10.493  27.358  0.2983  0.1463  0.0071
41960W        W84872  10.158  13.959  31.278 -0.2003 -0.1531 -0.0088
41961W        W84873   8.028  12.590  29.980 -0.0862 -0.3622  0.0477
41962W        W84874  11.881  10.694  26.857  0.1738 -0.3448  0.1131
41963W        W84875   8.646  14.034  28.960 -0.0942  0.2391  0.0640
41964W        W84876  10.119  13.393  30.060  0.0067 -0.0310 -0.0110
41965W        W84877  10.240  12.652  27.799  0.2051  0.0618  0.3359
41966W        W84878  10.498  11.338  28.622  0.1431  0.1372  0.0780
41967W        W84879   8.703  12.066  29.882  0.2686  0.2328  0.0464
41968W        W84880   8.060  11.850  28.333 -0.0243 -0.0553 -0.0946
41969W        W84881   8.877  11.322  28.922  0.0971 -0.1086  0.2224
41970W        W84882  11.151  13.990  28.875 -0.1975 -0.0240 -0.0852
41971W        W84883   8.329  13.416  26.092  0.3288 -0.0386 -0.1202
41972W        W84884   8.299  14.365  29.175 -0.1394 -0.1861 -0.1110
41973W        W84885   9.730  12.377  29.415  0.0559 -0.0385  0.0920
41974W        W84886   8.371  14.273  31.065 -0.1505 -0.2162 -0.1248
41975W        W84887   7.439  14.460  27.937  0.2342  0.2062  0.2357
41976W        W84888   5.988  13.573  28.447  0.1408 -0.1898  0.0551
41977W        W84889   6.866  14.237  27.398 -0.0769  0.1172 -0.0120
41978W        W84890   6.528  10.273  30.598  0.0855 -0.0357 -0.1429
41979W        W84891   8.907  12.193  29.437 -0.0164  0.3082  0.2394
41980W        W84892  10.433  13.232  27.248  0.2991  0.0623 -0.1293
41981W        W84893   6.833  11.531  29.312  0.0355 -0.0779  0.2102
41982W        W84894   9.623  11.328  30.719  0.2422  0.0871  0.0649
41983W        W84895   8.068  13.288  27.861  0.1221 -0.1428 -0.1477
41984W        W84896  11.963  15.142  28.783  0.0915 -0.1732 -0.0594
41985W        W84897  11.157  12.815  28.467 -0.2564  0.0708  0.1503
41986W        W84898  10.052  13.867  27.503  0.1743 -0.0841 -0.0372
41987W        W84899   7.896  12.711  30.472  0.0495  0.0416 -0.0384
41988W        W84900   7.517  12.106  29.545 -0.0555  0.0699  0.1927
41989W        W84901   9.605  11.870  30.829  0.2806  0.1290 -0.1173
41990W        W84902   7.371  11.035  30.446  0.1969 -0.1139  0.1082
41991W        W84903  10.915  14.800  30.450  0.0032  0.1979  0.2622
41992W        W84904   7.589  10.107  28.731  0.2241  0.3253  0.0790
41993W        W84905   8.148  12.515  29.003  0.1556 -0.3390 -0.1806
41994W        W84906   9.204  11.238  29.747 -0.5332 -0.0122 -0.1277
41995W        W84907   5.973  12.507  28.640 -0.0696 -0.0318 -0.1997
41996W        W84908  11.441  11.884   0.820  0.1075  0.1497 -0.0971
41997W        W84909   8.326  14.195  28.175  0.0606  0.2853  0.1131
41998W        W84910  10.371  14.745  30.683 -0.1455 -0.4049 -0.1421
41999W        W84911  10.539  16.194  28.649  0.0758 -0.0726 -0.2850
42000W        W84912   7.394  11.854  29.947 -0.1963 -0.0593  0.2642
42001W        W84913   7.666  12.276  29.096  0.1073  0.1652 -0.1773
42002W        W84914   7.615  11.690  28.524  0.0534  0.2107 -0.2906
42003W        W84915   9.266  12.828  27.226 -0.1787 -0.4242  0.1990
42004W        W84916   8.921  11.597  26.743  0.0168 -0.0106 -0.4129
42005W        W84917  10.085  13.930  30.019  0.1488  0.2020  0.0220
42006W        W84918   8.482  13.226  28.381  0.0331  0.1431  0.0523
42007W        W84919   7.576  12.730  29.845 -0.0138  0.3431  0.2045
42008W        W84920   8.266  11.304  29.736 -0.0064 -0.1950 -0.2592
42009W        W84921  12.156  12.105  29.306 -0.4217  0.0983  0.2295
42010W        W84922   9.600  13.756  29.064  0.0339 -0.2921  0.0798
42011W        W84923   7.559   9.877  27.578 -0.0414 -0.1775  0.2211
42012W        W84924   9.809  14.241  28.733 -0.1807 -0.0294  0.0251
42013W        W84925   7.976  13.729  29.064 -0.0860  0.2393  0.0678
42014W        W84926   7.308  11.333  29.126 -0.4163 -0.3202  0.2792
42015W        W84927   9.884  14.233  27.792 -0.2308 -0.0427  0.3384
42016W        W84928   9.460  12.527  28.638  0.1165 -0.0568 -0.1236
42017W        W84929   7.025  12.822  29.703  0.1626 -0.0304 -0.0982
42018W        W84930   9.572  11.508  29.547  0.2400 -0.4022  0.2301
42019W        W84931   9.349  11.804  27.211 -0.0584 -0.1458 -0.0406
42020W        W84932   7.664  12.296  30.064  0.1003  0.0114 -0.1129
42021W        W84933   8.969  11.986  29.000  0.1972  0.0305  0.2014
42022W        W84934  11.253  12.340  27.931  0.1720 -0.2180 -0.0459
42023W        W84935   9.989  11.695  31.538 -0.0811  0.0944 -0.0794
42024W        W84936  10.244  13.193  28.693  0.1720 -0.0722  0.2535
42025W        W84937   9.474  12.704  26.386 -0.3148 -0.4383 -0.0570
42026W        W84938  10.582  11.545  28.096  0.0779  0.3664  0.1553
42027W        W84939   9.164  13.205  30.918  0.1320 -0.0105 -0.0267
42028W        W84940  10.285  12.497  28.696  0.1279  0.1471  0.0622
42029W        W84941   8.367  11.798  29.579 -0.1201 -0.2192  0.0708
42030W        W84942   9.916  10.966  27.525 -0.0553 -0.1665 -0.0701
42031W        W84943   9.997  12.673  26.665  0.0872  0.0342 -0.0385
42032W        W84944   7.009  13.572  29.711 -0.1171 -0.0329 -0.0511
42033W        W84945   9.797  12.997  30.350 -0.2715 -0.0817  0.0466
42034W        W84946  10.833  14.229  27.966  0.1986  0.0986  0.0007
42035W        W84947   9.266  11.743  30.501  0.2318 -0.3368 -0.1136
42036W        W84948   8.820  11.786  27.251 -0.1157 -0.0028 -0.0528
42037W        W84949  10.785  10.954  28.509 -0.1413  0.0033  0.1053
42038W        W84950   6.984  12.875  27.132 -0.0127  0.0922  0.3623
42039W        W84951   9.621  10.972  29.724  0.2660 -0.5728 -0.1191
42040W        W84952   8.943  10.506  30.408  0.1651  0.0527  0.0443
42041W        W84953   8.547  11.791  31.948 -0.2314 -0.0119 -0.2773
42042W        W84954  10.202  12.155  31.648  0.0559 -0.3632  0.1126
42043W        W84955   9.067  12.823  28.763 -0.2592  0.1033 -0.2400
42044W        W84956   8.890  12.716  29.470  0.1801  0.0374 -0.0567
42045W        W84957   9.252  11.969  27.642  0.0117  0.1103 -0.0517
42046W        W84958   8.056  10.869  29.445  0.3806  0.2239 -0.0309
42047W        W84959   8.044  12.028  29.878  0.1316  0.0275  0.0148
42048W        W84960   8.235  13.286  29.267  0.0408  0.1758  0.1046
42049W        W84961  11.003  14.271  30.257  0.0408  0.0693 -0.0828
42050W        W84962   9.013  13.493  27.737 -0.0899 -0.0584  0.0871
42051W        W84963  10.345  11.396   1.173  0.0403 -0.4716 -0.2789
42052W        W84964   7.874  11.352  28.281 -0.1237 -0.2651  0.1617
42053W        W84965   8.481  14.640  27.225 -0.0502  0.0102 -0.4085
42054W        W84966   8.789  12.449  28.042  0.1266  0.3780  0.2820
42055W        W84967   9.154  11.439  30.983 -0.1514 -0.1377  0.1638
42056W        W84968   9.679  13.692  29.732  0.3229  0.1059  0.1336
42057W        W84969   8.508  13.795  24.748  0.0218  0.0029 -0.0471
42058W        W84970  10.623  12.239  29.823  0.0453 -0.0087  0.1962
42059W        W84971   7.586  11.333  27.841 -0.0123 -0.1608  0.1678
42060W        W84972   9.584  10.732  30.502  0.0372  0.1964  0.3434
42061W        W84973   5.943  13.553  28.988 -0.0676  0.1808 -0.1381
42062W        W84974   7.854  12.349  28.585 -0.3735  0.0517 -0.2193
42063W        W84975   6.862  12.410  28.990  0.2048  0.1788  0.2080
42064W        W84976  11.718  11.763  27.656 -0.1128  0.1630 -0.0220
42065W        W84977  11.212  12.878  27.946 -0.0446  0.1211  0.0208
42066W        W84978   7.567  10.901  29.772 -0.0213  0.0934 -0.2094
42067W        W84979   9.948  11.424  29.946  0.0851 -0.0347  0.1351
42068W        W84980   6.710  14.428  29.696 -0.1553 -0.4657  0.0217
42069W        W84981   9.180  11.861  29.719  0.1965  0.0128 -0.1838
42070W        W84982   9.428  12.077  26.760  0.2320 -0.1586 -0.0357
42071W        W84983   9.506  12.886  30.771  0.1527  0.1211  0.2093
42072W        W84984   8.846  12.774  31.287 -0.2373  0.4802 -0.0987
42073W        W84985   6.800  10.744  28.534  0.1711  0.3025  0.1026
42074W        W84986  10.516  11.745  28.914  0.1236  0.0521  0.1401
42075W        W84987   8.422  12.342  28.539 -0.0189  0.0597 -0.3792
42076W        W84988   7.484  12.844  27.889 -0.1398  0.1035  0.1265
42077W        W84989  10.187  14.038  29.031 -0.1433 -0.1676  0.1442
42078W        W84990   7.358  12.075  28.619  0.0204  0.3557 -0.3258
42079W        W84991   7.014  13.350  28.738  0.1565  0.1921 -0.0696
42080W        W84992   8.059  11.612  30.873 -0.2603  0.2357  0.1377
42081W        W84993   9.995  12.930  30.781 -0.0783  0.2839  0.2778
42082W        W84994   8.156  10.286  28.729 -0.2922  0.1141  0.0443
42083W        W84995   9.316  11.052  31.534 -0.2557 -0.0652 -0.3189
42084W        W84996   8.479  10.483  29.020 -0.1097 -0.0053  0.2230
42085W        W84997   9.715  11.970  29.726  0.1700  0.1333 -0.5325
42086W        W84998   8.833  12.484  29.918  0.1425  0.0129  0.3364
42087W        W84999   8.417  13.181  30.263 -0.2523 -0.0162  0.0238
42088W        W85000   9.848  10.295  31.939  0.1854 -0.4023 -0.2749
42089W        W85001  10.779  12.975  28.172 -0.1354  0.0071 -0.0938
42090W        W85002   9.164  12.208  30.203 -0.2300  0.3655 -0.0759
42091W        W85003   7.542  12.690  27.406 -0.1020  0.6121 -0.1251
42092W        W85004   7.933  13.083  29.580  0.0292  0.1621 -0.1803
42093W        W85005   7.673  13.527  26.818  0.1408  0.1746 -0.1393
42094W        W85006  10.517  12.656  29.554  0.1718 -0.0010  0.4183
42095W        W85007   8.999  13.311  28.705  0.1953  0.0724 -0.4307
42096W        W85008   9.512  13.837  27.633 -0.2496  0.1223  0.2373
42097W        W85009   7.610  13.403  29.875 -0.0081 -0.0742  0.1166
42098W        W85010   9.914  12.193  26.915  0.5678 -0.1262  0.0042
42099W        W85011  11.330  13.788  26.964 -0.2127  0.3130 -0.1853
42100W        W85012  10.355  11.054  28.228 -0.0903 -0.1309  0.1130
42101W        W85013  11.070  12.766  30.359 -0.1442  0.0466 -0.0860
42102W        W85014   8.938  13.070  26.880  0.0482 -0.1707 -0.2427
42103W        W85015  10.075  10.856   0.221 -0.0233 -0.1722 -0.0426
42104W        W85016   7.367  11.464  30.667  0.0123  0.0265  0.1936
42105W        W85017   9.649  13.309  29.381  0.0481  0.3131 -0.3131
42106W        W85018   6.084  12.517  29.534  0.0606  0.2225  0.1140
42107W        W85019   8.807  14.245  30.056  0.2921 -0.0142  0.3474
42108W        W85020   8.301  13.455  30.704  0.0355 -0.2135  0.1901
42109W        W85021   9.432  12.055  28.779  0.0442  0.5044 -0.2217
42110W        W85022   9.018  11.188  28.308 -0.1367  0.2427 -0.2558
42111W        W85023   8.560  13.695  30.158  0.1278 -0.0799 -0.0754
42112W        W85024   9.139  13.720  30.749 -0.0821 -0.2796 -0.1130
42113W        W85025   9.551  14.144  28.226  0.1638  0.1512  0.4029
42114W        W85026   9.738  12.752  29.013 -0.5458 -0.1572 -0.2408
42115W        W85027   7.063  14.169  29.340 -0.0890  0.1372  0.0728
42116W        W85028  10.293  12.851  28.317  0.1919  0.0591 -0.2640
42117W        W85029   9.511  13.347  27.511 -0.1325 -0.3094  0.0749
42118W        W85030   8.965  13.203  27.354 -0.3506 -0.1869 -0.0845
42119W        W85031   7.716  13.090  31.755  0.0446 -0.1457 -0.3073
42120W        W85032   8.725  12.523  29.009 -0.2036  0.0223  0.0093
42121W        W85033   8.414  11.569  28.145  0.0148  0.3764  0.0453
42122W        W85034  10.859  10.623  29.540  0.1501  0.2037  0.3784
42123W        W85035  11.538  13.036  30.138 -0.1366  0.1056  0.0813
42124W        W85036   8.530  13.258  31.179  0.2274 -0.4726 -0.1884
42125W        W85037   8.736  12.738  31.845 -0.2033 -0.2739 -0.1919
42126W        W85038   9.843  14.860  31.596 -0.1481 -0.0731  0.1468
42127W        W85039  10.316  11.846  27.317  0.2940 -0.1192 -0.0529
42128W        W85040  11.506  11.905  31.311 -0.0014  0.2292 -0.4493
42129W        W85041  11.805  11.070  27.792 -0.2250  0.3354 -0.1473
42130W        W85042   7.627  12.040  28.157 -0.1944 -0.0553  0.2814
42131W        W85043   6.306  10.356  29.202 -0.3771 -0.0331 -0.1700
42132W        W85044  10.173  12.486  29.855 -0.0458  0.0893  0.2062
42133W        W85045   8.244  10.926  27.465 -0.2149  0.0044  0.2341
42134W        W85046   7.618  11.440   0.530 -0.0259 -0.1956 -0.3517
42135W        W85047   9.111  14.004  27.444  0.1877 -0.0411 -0.2587
42136W        W85048   8.582  13.065  28.873 -0.4070 -0.3681  0.0594
42137W        W85049   9.887  12.271  28.806  0.1007  0.1417 -0.2183
42138W        W85050   6.845  11.967  28.670  0.0154  0.0449  0.2710
42139W        W85051   8.078  13.603  30.057 -0.0276 -0.0243  0.0049
42140W        W85052   7.973  11.725  27.864  0.4674  0.1713  0.0933
42141W        W85053   7.986  12.911  27.585  0.0904  0.0837 -0.1888
42142W        W85054  10.641  12.885  31.194  0.0571 -0.0164 -0.3220
42143W        W85055  10.463  12.535  31.494  0.2640 -0.0860 -0.0709
42144W        W85056   9.848  10.643  28.716  0.0832 -0.2010 -0.1987
42145W        W85057   9.660  12.092  31.314  0.0798 -0.2768  0.0517
42146W        W85058   6.831  13.296  27.433 -0.0918 -0.4025 -0.1680
42147W        W85059   9.736  11.854  27.966 -0.0382  0.0304  0.2377
42148W        W85060   7.836  14.402  29.860  0.0516  0.0664  0.0204
42149W        W85061   7.735  13.931  29.929 -0.3052  0.1470  0.2031
42150W        W85062   7.660  14.527  29.340  0.0867 -0.1133  0.1584
42151W        W85063   8.934  10.434  29.887 -0.0655 -0.0529  0.0179
42152W        W85064   8.726  12.270  30.433  0.2062  0.1929 -0.1358
42153W        W85065   9.280  12.380  29.705 -0.0534  0.2531  0.0265
42154W        W85066  10.754  14.018  31.203  0.2798 -0.2198 -0.0321
42155W        W85067   8.428  13.364  29.774  0.1669  0.0169 -0.3104
42156W        W85068   6.990  12.414  28.396 -0.2680 -0.0277 -0.0623
42157W        W85069  10.395  13.629  29.762  0.0895  0.2793  0.0852
42158W        W85070   8.863  13.254  30.094  0.0408 -0.1834 -0.2599
42159W        W85071   8.835  11.774  27.872 -0.0838 -0.3207  0.0238
42160W        W85072   7.559  13.215  31.218 -0.3320  0.2832  0.2159
42161W        W85073   8.464  12.455  30.792  0.2284  0.2126 -0.3752
42162W        W85074   8.392  12.885  28.005 -0.0121 -0.2984 -0.0554
42163W        W85075   8.553  10.175  27.569 -0.4858  0.0008 -0.1921
42164W        W85076  10.116  13.175  26.397 -0.1961 -0.0699 -0.0203
42165W        W85077   8.080  13.902  30.668  0.2609 -0.0201  0.3820
42166W        W85078   7.905  13.109  30.128  0.1403 -0.3085  0.1997
42167W        W85079   7.611  13.191  27.582  0.0256  0.1877  0.1733
42168W        W85080  10.803  12.475  25.992  0.3050 -0.0080  0.0257
42169W        W85081   9.864  12.857  28.523  0.5267  0.0096 -0.1608
42170W        W85082   8.805  14.350  30.593 -0.1454 -0.1765 -0.0982
42171W        W85083   8.583  10.997  28.139 -0.0320  0.1441 -0.1067
42172W        W85084   6.525  13.818  28.432 -0.3278  0.1593 -0.0008
42173W        W85085   6.306  13.497  28.092  0.1280 -0.2408  0.2344
42174W        W85086   8.776  13.638  27.308 -0.4338 -0.0785  0.0988
42175W        W85087   8.534  14.889  29.288 -0.0047  0.0500 -0.0682
42176W        W85088  10.905  13.547  29.668  0.6147  0.1664 -0.1335
42177W        W85089   9.672  12.875  27.500  0.2189 -0.0821  0.2697
42178W        W85090  10.437  13.621  28.586  0.0738  0.1171  0.0899
42179W        W85091  11.000  10.586  28.157  0.1895  0.1140  0.1723
42180W        W85092   9.027  12.714  30.768  0.1295  0.0763  0.0182
42181W        W85093   8.969  13.184  28.128  0.0847  0.2876 -0.2130
42182W        W85094   9.298  11.578  27.963  0.0869 -0.2165 -0.1321
42183W        W85095   9.404  12.582  30.396  0.0434 -0.0407  0.3094
42184W        W85096  10.191  11.262  30.697 -0.2292  0.1818  0.1271
42185W        W85097   7.749  14.068  31.702  0.0066 -0.2206 -0.0134
42186W        W85098   9.784  13.328  28.348 -0.1478  0.2865 -0.2110
42187W        W85099   8.607  10.597  27.779  0.2284 -0.0096 -0.0238
42188W        W85100   8.831  12.912  27.742 -0.2625 -0.3733 -0.3451
42189W        W85101  10.767  12.141  30.443  0.0498 -0.0188 -0.2241
42190W        W85102  10.501  13.968  27.246  0.1355  0.0957 -0.0733
42191W        W85103   8.849  10.835  29.276 -0.1616 -0.2462  0.1780
42192W        W85104   9.610  13.261  28.865  0.0158  0.2943  0.0279
42193W        W85105   8.138  13.765  28.033  0.0851  0.0753 -0.2536
42194W        W85106   8.488  13.755  28.415 -0.3052  0.0859  0.1213
42195W        W85107   7.599  11.156  28.712 -0.1367 -0.1621  0.1727
42196W        W85108  11.371  11.329  27.841 -0.0418 -0.2981 -0.0616
42197W        W85109   8.375  11.655  28.995  0.1372  0.2900  0.1510
42198W        W85110   9.731  12.456  30.846  0.0628  0.0259 -0.0571
42199W        W85111   8.492  11.217  29.241  0.2323  0.1256  0.2037
42200W        W85112  10.262  12.044  28.543 -0.3917  0.0885 -0.2687
42201W        W85113   9.156  10.923  30.658  0.3290 -0.1978  0.1292
42202W        W85114   6.427  11.915  29.515  0.2619 -0.0748  0.1437
42203W        W85115   9.609  12.882  26.850  0.0808  0.0433  0.1206
42204W        W85116  11.721  13.786  30.421 -0.1272 -0.3250  0.2338
42205W        W85117   8.062  12.315  28.094  0.2368 -0.1793  0.0121
42206W        W85118   9.152  13.617  30.196 -0.0128 -0.1174 -0.1520
42207W        W85119   8.040  11.076  30.126 -0.0186 -0.0209  0.0558
42208W        W85120  10.280  12.013  27.854 -0.3862 -0.1728  0.1989
42209W        W85121   8.543  13.380  27.912 -0.0021  0.1861 -0.1084
42210W        W85122   8.758  10.953  29.827 -0.3252 -0.0052 -0.1668
42211W        W85123   9.352  12.554  31.126 -0.0098 -0.2891 -0.0603
42212W        W85124   7.291  10.891  28.455 -0.0073  0.2580 -0.0628
42213W        W85125  10.182  12.717  25.124  0.0804  0.2676 -0.1513
42214W        W85126   9.618  11.199  30.210  0.1943  0.0374 -0.2437
42215W        W85127   8.588  13.828  27.787 -0.0376 -0.1133  0.1549
42216W        W85128  10.512  13.424  29.058 -0.2193 -0.2429 -0.1174
42217W        W85129   8.856  14.644  29.644  0.1474  0.2698 -0.2009
42218W        W85130   7.605  11.640  29.476 -0.0333 -0.1588  0.0238
42219W        W85131   9.668  14.271  29.950  0.2736 -0.2139  0.2502
42220W        W85132  11.131  13.733  27.997 -0.0010 -0.2984  0.2241
42221W        W85133   8.061  11.973  28.849  0.0352 -0.0470 -0.3261
42222W        W85134   8.705  12.776  28.434  0.2863  0.0088  0.3627
42223W        W85135   6.161  14.015  28.087  0.2234  0.3196 -0.1161
42224W        W85136  10.407  11.428  30.275  0.0825  0.4080  0.2348
42225W        W85137  10.589  12.971  30.550 -0.1482 -0.2564 -0.1886
42226W        W85138  11.543  13.563  25.837 -0.2093 -0.0998  0.2057
42227W        W85139  10.787  11.808   0.307  0.1177 -0.0952  0.2207
42228W        W85140   9.631  14.103  29.464 -0.0486 -0.0977  0.2368
42229W        W85141   8.592  13.905  30.605 -0.0711  0.1825 -0.1007
42230W        W85142   8.740  11.007  26.799 -0.0776 -0.0103  0.0661
42231W        W85143   9.088  12.389  31.521 -0.0124 -0.2682  0.1930
42232W        W85144   8.967  13.673  28.300  0.1940 -0.1913  0.1902
42233W        W85145  10.011  13.631  28.805  0.1201  0.0910  0.0575
42234W        W85146  10.822  14.408  28.814 -0.2832 -0.1586 -0.1321
42235W        W85147   8.755  12.185  27.600  0.1827  0.1328  0.2342
42236W        W85148   9.350  13.477  28.112  0.4816  0.0388  0.0997
42237W        W85149   9.429  10.874  31.091 -0.0448 -0.2333 -0.3695
42238W        W85150  11.211  10.872  27.567 -0.0765 -0.1656  0.2421
42239W        W85151   9.995  11.623  28.761 -0.1578 -0.1343  0.2246
42240W        W85152   8.770  13.390  30.607 -0.2619 -0.2669  0.1530
42241W        W85153   6.572  13.255  29.139  0.2388 -0.1627  0.0402
42242W        W85154   8.368  11.906  27.513 -0.3603  0.0304  0.1186
42243W        W85155   7.877  12.521  29.478 -0.1251 -0.2779 -0.0869
42244W        W85156   7.617  10.898   0.259 -0.0022 -0.2472 -0.4629
42245W        W85157   7.940  12.195  30.651  0.0130  0.0947 -0.1572
42246W        W85158   7.737  12.774  29.114  0.0353 -0.0422  0.3424
42247W        W85159   7.603  10.669  28.797 -0.4131  0.0213  0.0217
42248W        W85160   9.386  13.078  28.454  0.2755  0.1324  0.0241
42249W        W85161   8.965  11.613  29.325  0.1784 -0.1590  0.0310
42250W        W85162   8.176  10.857  28.991 -0.0254 -0.2601  0.2478
42251W        W85163  10.694  13.452  28.070  0.1443  0.2602  0.2619
42252W        W85164  10.897  14.711  29.858 -0.1264 -0.0664  0.2846
42253W        W85165   8.873   9.944  30.929 -0.0885 -0.1211  0.0761
42254W        W85166  10.286  15.124  31.034  0.1401 -0.1452 -0.2501
42255W        W85167   7.127  12.939  27.557 -0.1335  0.0644 -0.0830
42256W        W85168  10.089  11.749  30.923 -0.0862  0.1956 -0.0248
42257W        W85169   8.097  10.648   0.097 -0.1559  0.1523  0.3317
42258W        W85170   8.089  10.484  27.637  0.1035  0.1544 -0.3195
42259W        W85171   8.567  11.835  28.561 -0.0504  0.1336 -0.3462
42260W        W85172  10.423  14.857  27.555 -0.0280  0.0686  0.1110
42261W        W85173  11.211  14.447  27.722  0.0168  0.1450 -0.0065
42262W        W85174   8.977  12.308  28.586 -0.0584 -0.1375  0.3359
42263W        W85175  10.017  12.730  29.423  0.0622 -0.0213  0.1720
42264W        W85176   7.011   9.272  29.629 -0.0887  0.1617  0.1703
42265W        W85177   9.779  12.092  28.375 -0.0318 -0.0995 -0.1045
42266W        W85178   8.384  12.357  29.667 -0.0430 -0.0937 -0.2866
42267W        W85179   9.113  13.743  28.871 -0.1195  0.1329 -0.0750
42268W        W85180  10.987  11.187  28.923  0.1071 -0.1446 -0.0249
42269W        W85181   9.159  12.503  27.728  0.2667 -0.1825  0.3387
42270W        W85182   7.012  12.493  30.711 -0.2500  0.1614  0.0320
42271W        W85183   7.912  12.639   0.182 -0.1758  0.0403 -0.1398
42272W        W85184  11.839  13.966  29.942  0.1373 -0.1804 -0.3198
42273W        W85185   9.262  10.585  29.088 -0.0987 -0.1644 -0.2916
42274W        W85186  10.117  11.659  28.248 -0.0054 -0.0830 -0.0324
42275W        W85187   9.337  13.013  27.868  0.0769  0.1571  0.0801
42276W        W85188   8.234  12.268  30.249 -0.1271  0.1000  0.2200
42277W        W85189   8.474  11.345  27.079  0.0742 -0.1073  0.2262
42278W        W85190  10.145  12.133  30.627 -0.0755  0.1715 -0.1173
42279W        W85191  10.641  13.862  29.366 -0.1013 -0.0259  0.0588
42280W        W85192   9.528  12.821  29.568  0.1291 -0.2823 -0.1656
42281W        W85193   8.337  12.463  27.598  0.1288 -0.2520  0.1609
42282W        W85194  10.669  13.929  28.908  0.0759 -0.1435  0.0138
42283W        W85195   9.718  14.716  30.161 -0.2273  0.1238  0.1380
42284W        W85196   9.874  15.260  30.779 -0.4256  0.0943 -0.1373
42285W        W85197   8.286  14.104  29.876  0.1714  0.1620 -0.2968
42286W        W85198   9.317  12.468  29.165 -0.1566 -0.0385 -0.1162
42287W        W85199   7.353  10.523  28.082  0.1263  0.1512 -0.0543
42288W        W85200   7.725  13.647  27.772  0.1470 -0.5949 -0.0447
42289W        W85201   8.775  14.576  29.024  0.0952 -0.1437 -0.3047
42290W        W85202  10.068  11.014  29.558 -0.1981 -0.0980  0.2844
42291W        W85203   7.910  11.607  29.985 -0.1412 -0.0318 -0.1310
42292W        W85204  10.728  11.917  28.424  0.0770  0.2759 -0.3435
42293W        W85205   8.447  12.827  29.292  0.1646  0.0631 -0.1446
42294W        W85206   8.458  13.774  29.330  0.2806  0.1289  0.2360
42295W        W85207  10.886  12.611  29.128 -0.1620 -0.0102 -0.0621
42296W        W85208  10.302  12.907  30.072 -0.0260 -0.0860 -0.3069
42297W        W85209   7.331  12.515   1.002  0.0659  0.1261  0.0606
42298W        W85210   7.513  13.926  30.624  0.0858  0.1261 -0.1040
42299W        W85211   7.991  14.532  31.299 -0.1747 -0.0229 -0.0008
42300W        W85212   6.935  14.245   0.085  0.1069 -0.0185  0.3834
42301W        W85213   9.711  12.089  30.287  0.4449  0.1954 -0.1948
42302W        W85214   8.393  11.702  30.049  0.2210  0.3406  0.1538
42303W        W85215  10.302  11.216  31.232  0.1386  0.0194  0.2244
42304W        W85216   8.538  15.423  30.662  0.0621 -0.1060 -0.0830
42305W        W85217   9.676  12.423  29.968  0.2146 -0.0709  0.0176
42306W        W85218   7.760  11.022  30.921 -0.0045 -0.1234  0.1749
42307W        W85219  10.874  13.070  29.426  0.0922 -0.0067 -0.0106
42308W        W85220   9.990  12.601  31.572  0.0261  0.0193 -0.2343
42309W        W85221  11.751  12.829  31.389 -0.2380  0.3166  0.0664
42310W        W85222   8.340  13.954   0.085 -0.1292 -0.1859  0.2115
42311W        W85223   7.694  13.463   0.145  0.0515 -0.0784  0.1150
42312W        W85224  10.728  14.317  30.778 -0.0091  0.3195  0.0596
42313W        W85225   5.545  10.219   0.757 -0.2569  0.0652 -0.1012
42314W        W85226   7.755  12.235   1.130 -0.3429 -0.0547 -0.2182
42315W        W85227   9.189  11.029   0.025  0.0343  0.0690  0.2308
42316W        W85228   6.894  15.053   0.718  0.1831 -0.3451 -0.0119
42317W        W85229  10.456  11.818  31.374  0.1805  0.2210 -0.1417
42318W        W85230   9.727  10.756  31.846  0.0051 -0.1069 -0.1201
42319W        W85231   8.801  11.767  30.317 -0.0455 -0.0788 -0.0087
42320W        W85232  10.008  12.511  30.358 -0.3764  0.0522  0.1814
42321W        W85233   9.001  12.580   0.262  0.0276 -0.3375 -0.1876
42322W        W85234   6.685  14.944  30.400 -0.0734 -0.0739 -0.0453
42323W        W85235   7.615  12.570   0.573 -0.3750 -0.0610 -0.0354
42324W        W85236  10.348  12.738  31.932 -0.1060  0.1997 -0.1694
42325W        W85237   6.987  14.025  29.931  0.0952 -0.1335  0.0304
42326W        W85238   9.441  13.702   1.863  0.2763 -0.2085 -0.1305
42327W        W85239  12.435  12.379   0.687  0.1189 -0.0331  0.2610
42328W        W85240  10.801  12.573   0.824 -0.0880  0.0552  0.0547
42329W        W85241   8.052  11.650  31.984  0.0861  0.3377 -0.0345
42330W        W85242   6.669  14.483  31.646  0.1809  0.1833 -0.0491
42331W        W85243   9.211  13.135  30.388 -0.3350 -0.3251 -0.1924
42332W        W85244  10.222  14.018   0.830 -0.4406  0.0833 -0.1318
42333W        W85245   9.701  12.926  31.255 -0.1720 -0.2333  0.1189
42334W        W85246   9.316  12.835  31.591 -0.1129  0.0969 -0.1840
42335W        W85247  11.939  12.798  30.164  0.0058 -0.3380 -0.2011
42336W        W85248   9.854  12.971  31.907 -0.1101  0.2767  0.0556
42337W        W85249   7.997  11.704   1.276  0.1550  0.1206  0.0487
42338W        W85250   7.936  14.151  30.295 -0.1613  0.0015  0.1480
42339W        W85251   8.403  12.982  30.738  0.0048  0.0170 -0.1318
42340W        W85252  10.624  12.291  31.950 -0.4139 -0.0392  0.1564
42341W        W85253   9.565  10.539  31.424 -0.1806 -0.2007 -0.0412
42342W        W85254   8.736  13.319  29.322 -0.0900  0.2789  0.0478
42343W        W85255  11.430  13.521  31.464 -0.0703 -0.0419 -0.5163
42344W        W85256   7.321  15.321  31.510  0.1084  0.0970  0.0406
42345W        W85257   9.653  13.839  31.159  0.0333  0.0335  0.1622
42346W        W85258  11.176  13.195  29.883  0.0833 -0.0296 -0.1055
42347W        W85259   8.884  11.828  30.843 -0.0062  0.1936 -0.0320
42348W        W85260  10.034  13.659  29.314  0.0129  0.0746 -0.4389
42349W        W85261  10.330  13.468  31.357  0.1155  0.2437  0.2213
42350W        W85262   9.470  11.461  31.789 -0.3079 -0.3666 -0.0614
42351W        W85263  10.325  13.235  31.882  0.0288 -0.0626  0.0491
42352W        W85264   7.517  14.209   0.755 -0.1494  0.3008 -0.2461
42353W        W85265   8.369  14.541  30.648  0.2194  0.1341  0.5141
42354W        W85266   8.028  13.482  31.332  0.3854  0.3412  0.3726
42355W        W85267   7.225  12.055   0.799  0.2280 -0.0943  0.2198
42356W        W85268   8.754  12.827  30.264  0.0473 -0.0963 -0.2644
42357W        W85269   7.817  13.534  30.450  0.0333  0.1752  0.0218
42358W        W85270   7.969  11.803  30.406  0.2396 -0.1605 -0.0896
42359W        W85271   9.115  14.570   0.220 -0.1003  0.2929  0.1530
42360W        W85272  11.664  14.938  30.997  0.1203  0.0680 -0.0082
42361W        W85273  11.531  14.255  29.591  0.1127  0.1909  0.0287
42362W        W85274   7.307  17.172  20.343 -0.2490 -0.1153  0.0871
42363W        W85275   7.778  17.111  17.080 -0.1068 -0.1647 -0.3369
42364W        W85276  11.679  16.063  16.631  0.0903  0.0675 -0.1481
42365W        W85277  10.074  16.019  16.039 -0.2639 -0.2723 -0.0677
42366W        W85278   8.257  14.653  17.498 -0.1580 -0.0688 -0.0056
42367W        W85279  10.071  17.199  18.062  0.0353  0.1902 -0.3406
42368W        W85280   6.844  14.689  19.625 -0.3115  0.1902 -0.1262
42369W        W85281   8.995  18.296  17.606  0.0638  0.1358 -0.2179
42370W        W85282   9.371  17.622  18.279 -0.2007 -0.3281 -0.1409
42371W        W85283  10.128  18.313  16.145  0.0474 -0.1036 -0.2279
42372W        W85284   7.958  16.034  19.183 -0.1955  0.2403 -0.0839
42373W        W85285   8.628  17.428  18.280  0.0918  0.1782 -0.0317
42374W        W85286   7.540  16.396  16.914 -0.3410 -0.1602 -0.3269
42375W        W85287   8.212  14.612  18.384 -0.1931 -0.2692  0.0989
42376W        W85288  10.714  15.310  16.413 -0.0569 -0.0474  0.0478
42377W        W85289   6.981  16.788  17.438  0.0189  0.0129  0.1370
42378W        W85290   8.457  14.248  19.153  0.4509 -0.1951 -0.0128
42379W        W85291   8.289  15.593  17.682  0.3777  0.4908  0.1049
42380W        W85292   8.430  18.370  17.661  0.3068  0.2732 -0.1840
42381W        W85293   8.759  14.964  19.208 -0.1950  0.0811  0.1710
42382W        W85294  10.446  14.271  18.938 -0.2199  0.0043  0.0679
42383W        W85295   9.565  18.010  16.936  0.2764  0.1287  0.2909
42384W        W85296   7.211  14.875  17.397 -0.0696 -0.1373  0.4591
42385W        W85297   7.709  15.468  18.534  0.3044 -0.2150 -0.0078
42386W        W85298   8.088  16.461  18.969 -0.1627  0.0407  0.0055
42387W        W85299   9.120  15.782  18.262 -0.2971 -0.2512  0.0946
42388W        W85300  12.018  16.576  16.058 -0.0508 -0.2074  0.1089
42389W        W85301   7.961  16.886  18.015 -0.1697 -0.4050  0.0201
42390W        W85302   9.275  17.668  16.646 -0.3481 -0.0433 -0.3228
42391W        W85303  10.453  16.128  19.067 -0.2591  0.1708  0.1763
42392W        W85304   7.543  17.310  17.503  0.1080 -0.0557  0.1378
42393W        W85305   5.968  17.291  17.503 -0.0986  0.0759  0.0191
42394W        W85306   8.352  17.027  18.228  0.0437 -0.0835 -0.1683
42395W        W85307  11.129  16.982  16.343 -0.1248  0.3349  0.2501
42396W        W85308   9.290  16.162  17.885 -0.0537 -0.3195  0.3991
42397W        W85309   7.471  18.602  21.151  0.0827  0.1942  0.0206
42398W        W85310   6.812  18.247  16.261 -0.0594 -0.0170 -0.1080
42399W        W85311   7.816  17.847  18.875 -0.1124 -0.2483 -0.2385
42400W        W85312   9.771  17.138  18.493  0.1124  0.4099  0.0992
42401W        W85313   8.796  17.658  19.371 -0.1219  0.0918 -0.1361
42402W        W85314   9.716  17.688  17.894  0.2590  0.2468  0.2239
42403W        W85315   9.800  18.097  16.434 -0.1242  0.3869 -0.2007
42404W        W85316   8.722  16.880  17.984 -0.1172  0.1401  0.4115
42405W        W85317   8.245  18.418  19.733 -0.1459 -0.1261 -0.2122
42406W        W85318   7.359  17.589  18.840 -0.1228  0.0647  0.2935
42407W        W85319   9.932  16.145  18.462 -0.3242 -0.1300 -0.2524
42408W        W85320   8.965  16.992  17.524  0.0344  0.0097 -0.0118
42409W        W85321  11.009  15.831  16.068  0.1502 -0.2151 -0.1344
42410W        W85322   8.320  16.087  17.094  0.1463 -0.1288  0.2366
42411W        W85323  10.439  14.528  16.345  0.3408  0.0203  0.1640
42412W        W85324   8.595  15.677  18.362 -0.0035  0.3038  0.2597
42413W        W85325   7.992  19.490  19.107 -0.2389 -0.0219  0.0738
42414W        W85326   9.083  15.307  19.466  0.2248  0.1983  0.2866
42415W        W85327   9.843  16.908  17.489  0.1486  0.0763 -0.2943
42416W        W85328   8.705  16.495  17.170 -0.1266 -0.0312 -0.1881
42417W        W85329   9.069  16.212  19.161 -0.2852 -0.0657  0.3028
42418W        W85330   6.777  17.232  18.543  0.1684 -0.0634  0.0552
42419W        W85331   7.731  17.251  18.871 -0.0843  0.1267  0.2302
42420W        W85332   9.696  17.333  15.765  0.1918  0.4267  0.0106
42421W        W85333  11.456  17.530  16.818 -0.1875  0.3896  0.0234
42422W        W85334   9.638  18.253  15.927  0.2224  0.1482  0.1244
42423W        W85335   6.877  15.818  17.345  0.0948 -0.0347  0.2356
42424W        W85336   6.266  17.464  20.178 -0.1407  0.0604 -0.3870
42425W        W85337   6.992  16.637  19.606 -0.2380 -0.1035  0.2794
42426W        W85338   7.684  14.403  16.026  0.0100  0.1547 -0.0856
42427W        W85339  10.545  18.224  17.765  0.0962  0.0695  0.0341
42428W        W85340   5.519  17.904  19.328  0.2187  0.1837  0.0888
42429W        W85341   9.936  14.932  16.686  0.0147  0.2494  0.5625
42430W        W85342   8.581  17.320  17.795  0.0505  0.2340  0.3417
42431W        W85343   8.084  17.552  17.967 -0.2772 -0.0426 -0.0372
42432W        W85344   9.063  16.876  16.373 -0.0389 -0.0951  0.1822
42433W        W85345  10.834  16.425  17.532  0.0292  0.3250 -0.1853
42434W        W85346  10.094  15.127  18.594 -0.1111  0.0841  0.1297
42435W        W85347   9.449  19.103  16.294  0.2323  0.1476 -0.0854
42436W        W85348   7.466  16.749  17.261 -0.0219  0.0370  0.0349
42437W        W85349   8.201  16.049  17.926  0.0089 -0.1185  0.1492
42438W        W85350   9.399  15.375  16.192 -0.0616  0.2183  0.0038
42439W        W85351   6.732  17.757  18.423  0.4637 -0.1603  0.0073
42440W        W85352   9.390  15.766  20.609 -0.4732  0.1094 -0.0241
42441W        W85353   7.340  18.375  19.451  0.3792  0.0121  0.0894
42442W        W85354   7.428  18.816  16.194 -0.2288 -0.2411  0.1737
42443W        W85355   7.401  16.501  18.111  0.0294  0.3220  0.2899
42444W        W85356   7.311  17.830  17.630  0.2711 -0.1859 -0.0211
42445W        W85357   7.140  15.035  19.203  0.0285  0.1783  0.4125
42446W        W85358   7.069  19.188  18.155  0.2159  0.0730 -0.0428
42447W        W85359   9.304  16.441  17.238 -0.3600  0.0396  0.2592
42448W        W85360   6.705  13.736  18.341 -0.2359  0.1729 -0.0932
42449W        W85361   8.535  15.630  17.180  0.2031  0.1020  0.1306
42450W        W85362   8.279  17.350  16.866 -0.1132  0.1405  0.0513
42451W        W85363  10.572  18.391  16.315 -0.2765 -0.2692  0.3227
42452W        W85364  11.552  16.235  16.185  0.1147  0.0484 -0.1773
42453W        W85365   9.305  17.345  16.298  0.0457 -0.2652  0.2258
42454W        W85366   7.426  16.922  17.821  0.0851 -0.0863 -0.0606
42455W        W85367   7.879  16.854  19.163 -0.2795  0.1052 -0.0662
42456W        W85368   8.003  14.237  18.804 -0.0177  0.0089  0.1136
42457W        W85369   7.789  15.049  20.909 -0.0255 -0.1706 -0.3285
42458W        W85370   9.125  16.916  19.798 -0.1466 -0.0334  0.0051
42459W        W85371   6.503  14.818  16.876  0.3056 -0.0343 -0.1565
42460W        W85372  10.684  16.847  17.221  0.2326 -0.3165  0.1772
42461W        W85373   9.754  15.016  17.634 -0.0026  0.0775 -0.1806
42462W        W85374   8.237  17.827  16.723 -0.1149 -0.0693  0.0314
42463W        W85375  10.533  16.010  20.974 -0.2103  0.2925  0.2636
42464W        W85376   9.063  17.322  17.960 -0.0951  0.0296 -0.0416
42465W        W85377  10.654  18.512  18.571  0.1743  0.1915 -0.0014
42466W        W85378  11.311  18.330  17.157 -0.0720  0.1153 -0.3580
42467W        W85379   8.411  14.140  19.788  0.3718  0.0899 -0.0716
42468W        W85380   7.143  14.050  16.869  0.0588  0.2635  0.0315
42469W        W85381   6.597  19.098  18.071 -0.3284 -0.0918  0.2448
42470W        W85382   8.800  17.837  17.475  0.3340 -0.0627 -0.0059
42471W        W85383   8.041  15.087  17.071  0.4846  0.0634  0.1270
42472W        W85384   8.467  18.245  18.448  0.0267  0.2206 -0.1459
42473W        W85385   9.861  17.207  17.077 -0.1107 -0.0564  0.0136
42474W        W85386   7.876  15.519  19.200 -0.1122  0.3179  0.0047
42475W        W85387  10.285  15.304  17.974  0.2052  0.0951 -0.2506
42476W        W85388  10.666  16.443  18.024  0.2453 -0.2716 -0.3577
42477W        W85389  10.034  14.631  17.545 -0.1949  0.0313  0.2068
42478W        W85390   7.812  14.571  16.559 -0.1693 -0.0798  0.1323
42479W        W85391   9.097  17.920  17.112  0.0774  0.0227 -0.0528
42480W        W85392   7.483  17.677  17.138 -0.1819  0.1524  0.0085
42481W        W85393   7.829  15.825  17.660  0.1989  0.1237 -0.1104
42482W        W85394   8.320  18.331  16.781 -0.0102 -0.0566 -0.1548
42483W        W85395  11.139  15.789  16.604 -0.2158  0.2101  0.0513
42484W        W85396   7.895  16.387  18.177 -0.0042  0.1166 -0.1365
42485W        W85397   8.206  15.717  18.827  0.6075 -0.2235  0.0212
42486W        W85398   8.400  15.070  17.623 -0.1336  0.2436 -0.1054
42487W        W85399   6.997  17.048  19.405 -0.0553 -0.1363 -0.1789
42488W        W85400   9.275  14.948  17.570 -0.0112  0.1160  0.0212
42489W        W85401  11.070  15.342  16.123 -0.2725  0.0673 -0.0815
42490W        W85402   9.186  17.306  19.529  0.1000 -0.0951 -0.2589
42491W        W85403  10.969  16.371  17.034  0.2416 -0.3247  0.2755
42492W        W85404   9.403  14.614  15.970 -0.0450 -0.2323  0.1021
42493W        W85405  10.134  15.664  16.386  0.1200  0.1466  0.3648
42494W        W85406   7.116  17.619  19.381  0.2078  0.3140  0.1273
42495W        W85407   8.961  17.685  16.203  0.0026  0.1949 -0.1358
42496W        W85408   7.518  18.271  17.345 -0.0277  0.2216 -0.2038
42497W        W85409   9.180  16.241  15.781 -0.0215  0.2300 -0.2116
42498W        W85410  11.394  18.065  16.113  0.0719  0.0966 -0.2116
42499W        W85411   7.861  17.250  19.619 -0.1051  0.1058  0.0271
42500W        W85412   8.964  18.340  18.729  0.4358  0.0983 -0.2054
42501W        W85413   9.922  17.686  17.060  0.0249 -0.0988 -0.0716
42502W        W85414   8.976  13.383  19.392 -0.1178  0.3198 -0.0969
42503W        W85415   6.956  14.526  16.819  0.1394 -0.0689 -0.1120
42504W        W85416   9.510  16.035  17.433  0.0968 -0.0807  0.0859
42505W        W85417   7.045  18.398  16.723  0.1191 -0.0193 -0.0614
42506W        W85418  10.376  15.260  19.030  0.0475 -0.2617 -0.1388
42507W        W85419  10.295  16.589  17.648 -0.0380 -0.0649  0.1679
42508W        W85420   9.131  14.300  20.649  0.1196 -0.0626  0.0387
42509W        W85421   9.783  15.797  19.058  0.0425  0.0924 -0.1977
42510W        W85422  10.599  16.035  16.212  0.1860 -0.0463 -0.0089
42511W        W85423   8.777  16.100  18.618 -0.3490  0.0715 -0.1872
42512W        W85424   7.603  15.466  16.896  0.1364  0.2478 -0.1768
42513W        W85425   9.075  14.913  18.823 -0.0093 -0.0965  0.0614
42514W        W85426   7.529  15.855  19.385  0.0417 -0.3196 -0.3937
42515W        W85427   6.362  18.081  18.890 -0.3236 -0.0329  0.2061
42516W        W85428   9.523  16.871  19.418  0.0700 -0.1391  0.0430
42517W        W85429   9.091  17.344  18.552  0.1496  0.1004 -0.0168
42518W        W85430   9.159  16.087  19.611 -0.0733 -0.1376  0.0199
42519W        W85431   7.834  15.918  16.916  0.1380  0.0531 -0.1904
42520W        W85432   8.374  19.679  16.221 -0.1381  0.1883 -0.0018
42521W        W85433   9.475  17.531  17.117  0.1327 -0.1690 -0.0136
42522W        W85434   8.185  13.752  18.993  0.1949  0.3116 -0.0732
42523W        W85435   8.325  17.863  19.203 -0.1141  0.1870 -0.1435
42524W        W85436   8.661  17.668  16.867 -0.0562 -0.1713  0.1300
42525W        W85437   8.818  15.780  19.293  0.0975  0.0813 -0.3321
42526W        W85438   8.289  19.197  17.117 -0.2011  0.0508 -0.0995
42527W        W85439  11.549  16.074  17.900  0.3954 -0.1364  0.2973
42528W        W85440   7.250  19.136  17.180 -0.1355 -0.3381  0.1964
42529W        W85441   8.547  14.982  17.087  0.1606 -0.1143 -0.0673
42530W        W85442   7.092  15.767  16.849  0.1702 -0.1438  0.1515
42531W        W85443   9.782  13.614  18.501 -0.0426 -0.1357  0.0876
42532W        W85444   9.141  18.145  15.982  0.0041  0.0147  0.2421
42533W        W85445   8.019  14.538  19.292  0.1033  0.0623  0.0885
42534W        W85446  10.433  15.616  17.548 -0.0434  0.0198 -0.1091
42535W        W85447   7.063  17.939  18.069 -0.3678 -0.1475  0.2730
42536W        W85448   8.944  14.618  19.849  0.5686 -0.4679  0.0944
42537W        W85449   8.788  16.220  16.206 -0.3140  0.2090 -0.2424
42538W        W85450   9.016  17.811  18.827 -0.2226  0.0541  0.0956
42539W        W85451   8.099  17.383  19.169 -0.3552 -0.1428  0.1074
42540W        W85452   7.306  13.656  17.125 -0.2089  0.0534  0.0467
42541W        W85453   8.597  16.516  18.792  0.4594  0.1575  0.3382
42542W        W85454   6.464  15.029  17.807 -0.2139  0.4173 -0.0985
42543W        W85455   5.552  17.255  17.218  0.2564  0.0924  0.0301
42544W        W85456   8.034  18.196  17.929 -0.0628 -0.0776  0.2649
42545W        W85457   8.156  13.755  18.474 -0.2154  0.2190 -0.0262
42546W        W85458   8.476  17.547  16.391  0.0624  0.3030 -0.3079
42547W        W85459   7.454  16.607  19.199 -0.1549  0.2394 -0.0154
42548W        W85460   9.374  16.182  18.425  0.1246  0.0526  0.0861
42549W        W85461   9.130  13.883  17.455  0.0342 -0.0624  0.1189
42550W        W85462   8.227  15.229  18.627  0.1779 -0.0064 -0.1777
42551W        W85463   9.307  15.437  16.968  0.0278 -0.3610  0.0612
42552W        W85464  11.390  19.770  17.906 -0.0503 -0.0691  0.0942
42553W        W85465   9.189  15.859  18.769  0.0884  0.1689 -0.0092
42554W        W85466   8.315  18.129  20.152 -0.0813 -0.0645 -0.1895
42555W        W85467   7.600  13.044  18.477  0.0524  0.1004  0.1207
42556W        W85468  11.098  18.853  16.409 -0.1232 -0.1085  0.3670
42557W        W85469   9.402  17.070  18.899 -0.0834  0.0642 -0.2057
42558W        W85470   8.837  16.447  17.650 -0.2207  0.0519  0.0327
42559W        W85471   6.326  17.360  18.273  0.0868 -0.2219 -0.1488
42560W        W85472   8.090  17.239  17.569  0.0271 -0.1384  0.3778
42561W        W85473   7.878  14.709  18.756  0.5112  0.0614  0.1213
42562W        W85474   8.162  17.238  20.112 -0.0585  0.2226 -0.0034
42563W        W85475   9.205  18.684  16.680 -0.0095 -0.2333  0.1232
42564W        W85476   7.454  17.150  19.315  0.1417  0.0823  0.1816
42565W        W85477   9.901  15.596  17.694 -0.0971  0.1061 -0.2383
42566W        W85478   8.830  17.223  16.119 -0.2009  0.0164 -0.0151
42567W        W85479   8.615  16.043  17.503  0.1292 -0.0313  0.0969
42568W        W85480  11.061  13.716  19.611  0.4938 -0.3630  0.0520
42569W        W85481   9.434  16.668  17.628  0.0479 -0.1086  0.2678
42570W        W85482  10.465  16.128  17.694  0.0451 -0.1695  0.0398
42571W        W85483   7.757  14.946  19.644 -0.2700  0.1047  0.2376
42572W        W85484  11.147  17.882  16.747 -0.2227  0.0400  0.2011
42573W        W85485   6.911  15.162  19.772  0.2137 -0.3796 -0.0278
42574W        W85486   8.587  17.686  20.756 -0.0993  0.0241  0.5198
42575W        W85487   6.779  16.033  20.904  0.0564  0.4514  0.0851
42576W        W85488   7.928  15.034  18.273 -0.0249  0.1943 -0.0299
42577W        W85489   8.646  15.584  16.299  0.2393  0.2810  0.1828
42578W        W85490   7.684  18.799  17.355 -0.0483 -0.3356 -0.1270
42579W        W85491  10.364  17.564  17.378 -0.0616  0.0807  0.1590
42580W        W85492   8.981  17.420  17.239 -0.1605 -0.2172  0.1682
42581W        W85493  12.112  16.637  17.099  0.0203 -0.2759 -0.3151
42582W        W85494   8.938  16.898  18.979  0.1236 -0.1222  0.3872
42583W        W85495  11.913  16.594  16.586 -0.1166  0.1252 -0.2330
42584W        W85496   9.068  15.786  16.029 -0.1538  0.2142  0.4345
42585W        W85497   7.770  17.821  17.581  0.0269 -0.0622  0.1240
42586W        W85498   8.124  13.577  20.613  0.2183  0.0480  0.1451
42587W        W85499  10.358  17.647  18.110 -0.2537 -0.0261 -0.0480
42588W        W85500  11.068  16.060  17.867 -0.0538 -0.0159 -0.1297
42589W        W85501   9.558  15.028  18.792 -0.2458 -0.0960 -0.0047
42590W        W85502   9.512  16.241  19.910 -0.1579 -0.0108 -0.2094
42591W        W85503   8.914  17.821  18.357 -0.2516 -0.1443  0.1812
42592W        W85504   7.678  13.824  18.846 -0.0381 -0.3059 -0.3117
42593W        W85505   8.659  18.125  19.002 -0.0466  0.0492  0.0846
42594W        W85506  11.615  16.911  15.702  0.0800  0.1859  0.0357
42595W        W85507  10.658  14.975  17.203 -0.1977  0.1000 -0.0168
42596W        W85508  11.554  16.579  17.146  0.1109 -0.1325 -0.0281
42597W        W85509   8.287  16.708  17.015 -0.1702 -0.1317 -0.0586
42598W        W85510   8.554  17.491  18.938 -0.1790 -0.0538  0.2107
42599W        W85511   9.109  16.537  18.633  0.1722  0.2039  0.4425
42600W        W85512   8.456  14.417  16.947 -0.1446 -0.0940 -0.0560
42601W        W85513   9.497  16.294  20.444  0.2713  0.0145 -0.2851
42602W        W85514   9.778  18.415  17.385 -0.1412 -0.1473  0.1098
42603W        W85515   9.642  18.487  16.881 -0.1224 -0.0205  0.0043
42604W        W85516  10.138  16.263  16.452 -0.0105 -0.1229 -0.3655
42605W        W85517   8.475  14.782  18.001 -0.1695  0.0486 -0.0131
42606W        W85518   5.951  17.699  19.184  0.1321 -0.0386 -0.2117
42607W        W85519   7.552  14.998  17.051 -0.2065  0.3495 -0.1119
42608W        W85520   7.669  16.355  17.716  0.0541  0.1502  0.2148
42609W        W85521   9.851  16.372  17.436 -0.0856 -0.0424  0.1025
42610W        W85522   9.313  17.857  20.692 -0.0316  0.4945 -0.1621
42611W        W85523   8.513  15.306  16.705  0.0104  0.0815  0.1253
42612W        W85524   9.630  15.868  18.098  0.1850  0.1315 -0.0759
42613W        W85525   7.605  17.347  17.971 -0.0856 -0.1925  0.0339
42614W        W85526   9.718  14.740  18.429 -0.1870  0.0689  0.1241
42615W        W85527   6.673  18.669  17.766 -0.1638  0.2917 -0.0366
42616W        W85528   6.167  17.177  19.348  0.0989 -0.2193  0.0974
42617W        W85529   8.006  17.593  17.251  0.1094  0.0373  0.2268
42618W        W85530   9.250  14.607  18.393 -0.1288 -0.2224 -0.0313
42619W        W85531  11.963  15.875  17.539  0.0689 -0.1923  0.0102
42620W        W85532   8.686  15.663  18.844  0.0176 -0.2453 -0.5407
42621W        W85533  11.723  17.835  17.153 -0.0335  0.0016  0.0704
42622W        W85534   6.886  18.306  19.142  0.0952 -0.3505  0.0145
42623W        W85535   8.116  16.671  18.510  0.1024  0.0664 -0.0710
42624W        W85536   9.007  18.860  18.009 -0.0121 -0.0625  0.1155
42625W        W85537   9.633  16.732  17.061  0.1102  0.0484 -0.2205
42626W        W85538   8.910  17.238  16.699  0.2490  0.0178 -0.1291
42627W        W85539   6.483  16.062  19.198  0.0849 -0.0337 -0.3022
42628W        W85540   7.995  16.468  19.502 -0.1307  0.2798 -0.1264
42629W        W85541   8.725  16.018  18.016 -0.1099  0.2530  0.1734
42630W        W85542   7.409  14.815  16.468 -0.1147 -0.1891 -0.0678
42631W        W85543   9.313  18.243  16.463  0.2366  0.2677 -0.0507
42632W        W85544   7.679  18.202  19.769  0.3092  0.1335 -0.2691
42633W        W85545   7.276  17.455  18.343  0.1876  0.0472 -0.4073
42634W        W85546   8.258  17.893  17.588  0.2155 -0.1283 -0.3476
42635W        W85547  10.212  17.793  16.417 -0.0618 -0.1011 -0.0610
42636W        W85548   9.103  16.843  16.956 -0.0507 -0.3156  0.0035
42637W        W85549   8.969  17.898  20.319 -0.2225 -0.1655 -0.0765
42638W        W85550   8.620  17.062  17.083  0.0276 -0.0489 -0.0863
42639W        W85551   6.772  17.607  17.877  0.3118 -0.0335  0.1010
42640W        W85552   6.136  16.007  16.735 -0.4332  0.1026 -0.2105
42641W        W85553   9.763  17.518  16.650 -0.1610 -0.0587  0.0086
42642W        W85554   9.185  19.204  16.683 -0.0034  0.0133  0.0823
42643W        W85555   8.571  17.961  19.756 -0.1425 -0.1851 -0.0980
42644W        W85556   9.756  15.977  16.490 -0.0191  0.2330 -0.1858
42645W        W85557  10.755  15.911  17.131  0.0884 -0.2823 -0.1117
42646W        W85558   8.994  16.076  17.200 -0.4296  0.3444 -0.2384
42647W        W85559   7.412  16.353  21.657  0.0749 -0.2127  0.0871
42648W        W85560   8.305  16.150  18.378  0.1608 -0.2283  0.1797
42649W        W85561   9.843  13.368  15.987 -0.1860 -0.2712 -0.0390
42650W        W85562   7.770  17.201  20.578  0.2536  0.1348 -0.0869
42651W        W85563  10.194  15.726  19.344  0.0573 -0.0172  0.2362
42652W        W85564   7.013  17.307  19.009 -0.0820 -0.2313  0.1889
42653W        W85565  10.864  19.517  15.942 -0.1002  0.0458  0.0447
42654W        W85566   7.505  15.021  18.647 -0.2192 -0.2152 -0.2762
42655W        W85567   9.259  16.789  18.096  0.0565  0.2768  0.0267
42656W        W85568   9.099  14.100  17.985  0.2963  0.2821 -0.3532
42657W        W85569   7.943  16.968  16.587  0.4218  0.2416  0.2026
42658W        W85570   9.566  17.193  17.941 -0.1731  0.0251 -0.3807
42659W        W85571   8.156  18.803  16.728 -0.2443  0.5071 -0.3370
42660W        W85572   7.450  18.842  18.237 -0.1572  0.1247  0.2829
42661W        W85573   6.926  18.074  19.584 -0.1470 -0.0907 -0.1255
42662W        W85574   6.503  14.596  17.295  0.1929 -0.0590  0.0798
42663W        W85575   9.872  15.542  17.169 -0.0980  0.5696 -0.2280
42664W        W85576   6.759  14.139  19.458  0.0094 -0.2755 -0.1972
42665W        W85577   8.759  15.006  20.504  0.3230 -0.0800 -0.0386
42666W        W85578   8.357  16.558  18.027 -0.1333 -0.2401  0.0304
42667W        W85579   9.806  15.094  16.171 -0.0801 -0.0351 -0.1481
42668W        W85580   8.758  17.115  19.372  0.0928  0.0988  0.1076
42669W        W85581   8.035  13.984  19.444 -0.1337 -0.2752 -0.3389
42670W        W85582   8.879  15.864  16.751 -0.1389 -0.1538 -0.0714
42671W        W85583   9.954  17.833  18.312  0.1100 -0.1239 -0.0503
42672W        W85584   8.723  14.719  16.627 -0.0290  0.1464 -0.2498
42673W        W85585   8.547  17.652  21.295  0.1787  0.0772  0.2103
42674W        W85586   8.710  15.167  18.570  0.0460  0.0394  0.1486
42675W        W85587   8.512  16.286  16.653 -0.2649  0.0442  0.0917
42676W        W85588   7.185  16.316  17.314  0.3064 -0.0598  0.0107
42677W        W85589   7.718  16.991  20.044  0.1551 -0.0121 -0.1907
42678W        W85590   9.950  17.973  18.850 -0.0164 -0.0834 -0.2757
42679W        W85591   6.512  14.206  18.185 -0.2233  0.1791  0.0340
42680W        W85592  10.861  18.005  16.088 -0.0808  0.3208 -0.1318
42681W        W85593   9.698  15.423  16.702  0.1201  0.2102 -0.0236
42682W        W85594   8.683  18.825  16.708  0.1475 -0.1388 -0.1589
42683W        W85595   9.313  16.177  16.306  0.0201  0.1741 -0.0776
42684W        W85596  10.184  18.112  17.344  0.1048  0.0766 -0.0417
42685W        W85597   7.870  14.945  17.507 -0.1935 -0.1157 -0.1727
42686W        W85598  10.309  19.095  18.440  0.1445  0.1189 -0.2917
42687W        W85599   8.672  18.072  17.896  0.1981  0.1691  0.1708
42688W        W85600   9.106  14.746  17.018 -0.2904  0.0807  0.0517
42689W        W85601   7.525  16.017  18.296 -0.0037  0.0949 -0.4034
42690W        W85602   7.938  18.056  17.049 -0.0864  0.0599  0.0554
42691W        W85603  10.939  16.086  18.873  0.0365  0.2950  0.0322
42692W        W85604  10.159  15.886  16.866 -0.1972 -0.0968 -0.0870
42693W        W85605   8.200  18.902  16.004  0.0239 -0.1569  0.2046
42694W        W85606  10.212  14.748  19.789  0.1167  0.0923  0.4156
42695W        W85607   8.308  17.714  18.497 -0.0480 -0.2619  0.0792
42696W        W85608   6.844  17.123  21.822  0.1950  0.1259  0.0034
42697W        W85609   7.464  17.302  16.541 -0.2688  0.1175 -0.2150
42698W        W85610   6.301  16.588  19.074 -0.1939  0.0373 -0.1439
42699W        W85611   8.457  18.005  17.098 -0.0951 -0.1423 -0.3530
42700W        W85612   8.709  19.464  16.572 -0.4149 -0.1744 -0.1047
42701W        W85613  10.088  17.954  17.797 -0.0130  0.0425  0.0547
42702W        W85614   9.467  15.457  17.427  0.0110 -0.1580  0.0634
42703W        W85615  10.144  17.276  16.632 -0.1603  0.0657 -0.2642
42704W        W85616   8.390  15.373  19.136  0.1522  0.3573 -0.1239
42705W        W85617  11.050  13.926  16.365  0.0555 -0.1613  0.2028
42706W        W85618  10.773  15.233  17.766  0.0655  0.1699 -0.1876
42707W        W85619   7.668  17.633  19.310  0.0318  0.0470 -0.2389
42708W        W85620   7.896  15.696  16.238  0.1102 -0.1433  0.3053
42709W        W85621   8.830  18.402  16.927 -0.1865  0.0617 -0.3523
42710W        W85622   7.647  15.831  18.875 -0.3398  0.0612  0.1942
42711W        W85623   9.407  14.527  19.683  0.0862 -0.1006  0.1701
42712W        W85624   7.575  14.786  19.205 -0.2005  0.0047 -0.1443
42713W        W85625   7.769  17.647  16.730  0.3018  0.1124  0.1249
42714W        W85626   8.162  14.031  17.058 -0.2068  0.1001  0.0413
42715W        W85627  10.274  17.205  15.646 -0.2340 -0.0421 -0.3479
42716W        W85628   9.301  13.982  19.690  0.3593 -0.2764 -0.0435
42717W        W85629   7.763  13.988  18.320 -0.0337  0.0241 -0.0023
42718W        W85630  10.853  17.245  17.426 -0.1456  0.0168 -0.0845
42719W        W85631  10.691  19.236  16.420  0.2651 -0.0665 -0.2386
42720W        W85632   7.437  15.875  17.320  0.1083  0.0805 -0.2062
42721W        W85633   8.438  18.712  18.107  0.1739 -0.3315 -0.0191
42722W        W85634   7.547  15.490  18.099  0.0070 -0.0772 -0.1940
42723W        W85635   8.037  15.665  18.220  0.1031  0.1111  0.2137
42724W        W85636   9.424  12.985  20.074 -0.0659 -0.0694 -0.3813
42725W        W85637   8.761  15.514  17.873 -0.0303  0.2622  0.0784
42726W        W85638  10.150  15.976  17.367  0.0779  0.0893 -0.2488
42727W        W85639   7.895  16.448  17.226 -0.1661  0.0175 -0.1453
42728W        W85640  10.663  18.332  15.792  0.2766 -0.0097 -0.1777
42729W        W85641   7.439  18.855  19.246 -0.0168 -0.1710  0.1631
42730W        W85642   7.794  18.573  19.455  0.0003  0.1009 -0.1668
42731W        W85643   6.990  14.766  18.662  0.2332  0.0509  0.0981
42732W        W85644   9.525  17.104  16.756  0.0833  0.0921  0.1261
42733W        W85645   6.062  16.544  20.370 -0.1341  0.0488  0.3828
42734W        W85646  10.846  16.256  15.808 -0.0692 -0.2046  0.3793
42735W        W85647  10.552  15.461  17.102 -0.1830 -0.0177  0.0882
42736W        W85648   9.385  17.074  17.301 -0.1314  0.2050 -0.2463
42737W        W85649   7.116  14.144  20.761 -0.0869  0.1047  0.3306
42738W        W85650   7.550  16.780  19.653  0.0207 -0.2563  0.1116
42739W        W85651   9.876  17.416  17.533  0.0233  0.2990  0.1931
42740W        W85652   8.026  15.582  17.205 -0.2754 -0.2452 -0.2478
42741W        W85653   9.041  16.398  16.733 -0.1275 -0.1114  0.0298
42742W        W85654  10.716  18.145  16.760  0.2599  0.0738  0.1295
42743W        W85655   8.394  16.938  18.933  0.2477  0.0483 -0.0032
42744W        W85656   9.315  15.735  16.513  0.0608  0.1874  0.1824
42745W        W85657   8.761  16.492  18.273  0.2161 -0.0026  0.0592
42746W        W85658   7.702  18.386  19.012  0.2458  0.1810  0.3930
42747W        W85659   8.204  16.203  20.129  0.2140  0.3199 -0.0230
42748W        W85660   9.294  15.379  17.940  0.1499  0.1023 -0.2196
42749W        W85661  11.121  16.513  15.364  0.0543 -0.0026 -0.2755
42750W        W85662   9.161  17.874  17.848  0.3803  0.0062 -0.2136
42751W        W85663   9.505  18.094  19.096  0.2083  0.2050 -0.2542
42752W        W85664   7.756  17.570  18.448  0.1733 -0.1620  0.1932
42753W        W85665   8.776  16.968  18.471  0.1125  0.1838  0.2745
42754W        W85666   8.419  14.169  18.633 -0.1220  0.0221 -0.1786
42755W        W85667   8.490  16.882  17.537 -0.2713  0.3093 -0.0027
42756W        W85668   7.914  18.603  18.200  0.1005  0.1268  0.0422
42757W        W85669   9.868  16.277  16.955 -0.1322  0.0786  0.2017
42758W        W85670   7.617  15.326  17.440 -0.0211  0.2700 -0.3253
42759W        W85671   9.103  14.934  16.228 -0.0980 -0.1468  0.1141
42760W        W85672   7.547  17.971  18.089  0.1532  0.0230  0.1550
42761W        W85673   9.621  17.912  17.443 -0.4652 -0.0537 -0.3285
42762W        W85674   8.222  16.585  23.390  0.2745 -0.2999 -0.0060
42763W        W85675   8.244  14.994  19.556 -0.2456 -0.0854 -0.1612
42764W        W85676  10.159  16.464  18.798  0.0778 -0.0328  0.0876
42765W        W85677   9.557  16.243  19.352  0.1279  0.0345 -0.0427
42766W        W85678   7.442  13.126  19.488  0.0884 -0.2698  0.1106
42767W        W85679  10.210  17.472  20.442 -0.0477 -0.1708 -0.0048
42768W        W85680   8.692  13.432  22.789  0.0491  0.0987  0.0075
42769W        W85681   7.737  16.714  22.075  0.2270  0.1676  0.0471
42770W        W85682   9.306  16.353  22.618 -0.1419 -0.0069  0.2252
42771W        W85683   8.741  16.100  19.989  0.2331  0.0785  0.3109
42772W        W85684   7.854  15.128  22.333 -0.0761 -0.3376  0.4105
42773W        W85685   8.353  17.854  22.876 -0.2335  0.3037  0.1378
42774W        W85686   6.783  13.842  19.835 -0.0484  0.0374 -0.0403
42775W        W85687   7.317  13.055  20.699  0.2312  0.0123  0.0599
42776W        W85688   9.918  16.354  20.731 -0.2424  0.0721  0.0516
42777W        W85689   7.018  16.632  20.906  0.1942  0.2054 -0.0328
42778W        W85690   8.348  15.374  22.364  0.1135  0.0081  0.0525
42779W        W85691   7.919  14.169  21.256  0.2401  0.2011 -0.0112
42780W        W85692   7.810  17.686  21.636 -0.1489 -0.0537 -0.1958
42781W        W85693   8.435  14.607  22.750  0.1329 -0.0581 -0.0743
42782W        W85694   7.671  14.285  23.436  0.0188  0.3290 -0.0083
42783W        W85695   8.476  17.678  20.198  0.0840  0.1176  0.4785
42784W        W85696   7.832  16.049  19.763 -0.1111  0.1641  0.0286
42785W        W85697   6.695  16.555  23.535  0.1759  0.4129  0.3305
42786W        W85698   8.118  15.183  22.715  0.0646 -0.2971  0.1523
42787W        W85699   9.650  14.961  20.746  0.0451  0.1363  0.1356
42788W        W85700   9.683  14.619  21.718 -0.0760 -0.0657  0.0018
42789W        W85701   8.026  17.546  23.092 -0.3499  0.1752  0.2692
42790W        W85702   6.745  16.048  21.533 -0.1029 -0.3678 -0.2435
42791W        W85703   8.829  15.606  23.175  0.2463  0.2359 -0.1624
42792W        W85704   7.070  16.240  21.252  0.3174 -0.0022 -0.2404
42793W        W85705   7.578  17.893  20.407  0.1918  0.2187  0.2653
42794W        W85706   7.015  17.551  20.934  0.0356 -0.0630  0.1380
42795W        W85707   9.722  17.129  21.312 -0.0060  0.0129  0.0125
42796W        W85708   9.320  15.637  23.130 -0.1739 -0.0014  0.0692
42797W        W85709   8.016  18.418  24.017  0.1711 -0.0677  0.0241
42798W        W85710   6.563  18.203  21.166  0.0439  0.5449 -0.0489
42799W        W85711   9.748  17.840  24.281 -0.1879  0.0670 -0.1343
42800W        W85712   8.336  18.109  23.805  0.1328  0.1500  0.0508
42801W        W85713   8.619  16.778  22.334 -0.1800 -0.3594  0.1119
42802W        W85714   9.175  15.334  20.806 -0.1449 -0.1481  0.3243
42803W        W85715   7.366  16.990  21.046 -0.2729 -0.1044  0.0596
42804W        W85716   8.734  16.288  20.938  0.0580  0.0698  0.1335
42805W        W85717   7.716  16.496  23.301  0.0539 -0.0594  0.4699
42806W        W85718   7.984  17.795  21.071  0.2921  0.5251 -0.1224
42807W        W85719  10.358  14.763  23.390  0.2596  0.1060  0.1888
42808W        W85720   6.956  17.019  20.647 -0.0925 -0.2220  0.3803
42809W        W85721   9.507  15.033  19.711  0.0160 -0.0434 -0.2698
42810W        W85722   7.054  15.260  20.373 -0.1857  0.0123 -0.0714
42811W        W85723   9.960  17.090  18.997 -0.0244 -0.1261 -0.0333
42812W        W85724   9.817  14.064  21.708 -0.0870 -0.4283  0.1019
42813W        W85725   9.056  17.832  23.419 -0.0294 -0.2346  0.0656
42814W        W85726   7.912  15.667  21.419  0.3377 -0.0710 -0.1324
42815W        W85727   9.648  18.066  22.857 -0.1026 -0.1917 -0.2735
42816W        W85728   6.808  15.064  20.996  0.0422 -0.1505  0.1036
42817W        W85729   9.630  15.510  21.395 -0.0989  0.0555  0.0279
42818W        W85730   8.427  17.277  22.688  0.1142  0.0743 -0.0054
42819W        W85731   7.083  16.197  22.010  0.0245 -0.0820 -0.3117
42820W        W85732   9.533  18.196  17.857  0.1663 -0.1247 -0.1645
42821W        W85733  10.044  16.768  21.154 -0.0568 -0.2176  0.0515
42822W        W85734   8.513  18.319  20.567  0.1364 -0.1381  0.1533
42823W        W85735   7.284  16.135  20.760  0.0639 -0.1162 -0.0691
42824W        W85736   6.587  16.036  22.493 -0.0712  0.0348  0.1687
42825W        W85737   7.295  16.941  24.247  0.1320 -0.1456  0.1729
42826W        W85738  10.489  14.067  21.397  0.0976 -0.0533 -0.1669
42827W        W85739  10.543  18.495  22.929 -0.1796  0.0043 -0.1670
42828W        W85740   7.652  16.519  24.618 -0.1286 -0.1453 -0.0166
42829W        W85741   9.802  14.570  19.988 -0.1531 -0.0803 -0.1026
42830W        W85742   7.218  16.748  22.006 -0.0133 -0.0082 -0.2290
42831W        W85743   8.852  16.182  20.452  0.0944  0.1271 -0.4880
42832W        W85744   8.010  17.676  19.779 -0.0634  0.2245 -0.2968
42833W        W85745  10.602  14.318  21.848 -0.0530 -0.2451 -0.2482
42834W        W85746   9.348  14.301  21.792  0.0772 -0.1831  0.2725
42835W        W85747   9.232  16.976  21.132  0.2172  0.0264 -0.2740
42836W        W85748   6.511  16.717  20.676  0.3246  0.0676  0.1367
42837W        W85749   9.840  17.215  22.483  0.2587 -0.0925 -0.0521
42838W        W85750   9.530  17.617  18.791 -0.0116  0.3878 -0.0003
42839W        W85751   7.819  16.741  21.514 -0.5805  0.2584  0.0764
42840W        W85752   9.446  15.842  22.607  0.0021 -0.2229 -0.0745
42841W        W85753   8.318  17.250  23.343  0.0013 -0.0108 -0.1070
42842W        W85754   7.720  18.671  20.700  0.0684  0.1809 -0.6066
42843W        W85755   7.968  16.877  22.889  0.0103  0.3471  0.0963
42844W        W85756   5.953  16.367  21.989  0.0976 -0.2367 -0.0989
42845W        W85757   6.353  16.173  23.484 -0.1559 -0.0200 -0.0886
42846W        W85758   8.504  15.906  22.357 -0.3867  0.0191  0.1211
42847W        W85759  10.800  15.739  22.068  0.4191 -0.1059 -0.2473
42848W        W85760   7.728  15.615  22.350 -0.0358  0.2203  0.2217
42849W        W85761  10.793  15.480  23.027 -0.0773 -0.0853 -0.1290
42850W        W85762   5.863  15.610  19.957 -0.3023  0.2621 -0.2777
42851W        W85763   9.897  18.973  20.744  0.0441 -0.2157  0.2944
42852W        W85764  10.223  15.686  20.165 -0.0860 -0.1422  0.2057
42853W        W85765   8.790  17.039  20.743  0.1574 -0.2221  0.1585
42854W        W85766   6.437  15.157  22.207 -0.1616 -0.0894 -0.1395
42855W        W85767   7.585  15.644  20.659  0.1553 -0.0213 -0.1960
42856W        W85768   7.520  14.118  23.964 -0.4452  0.3152 -0.2057
42857W        W85769   8.037  14.766  21.467 -0.0620  0.0493  0.3982
42858W        W85770   9.960  15.368  22.402 -0.0217  0.0457 -0.1402
42859W        W85771   6.149  15.120  20.273  0.2589 -0.1004 -0.1294
42860W        W85772   8.778  15.647  19.784  0.1626 -0.3305  0.2061
42861W        W85773   6.487  17.273  20.725  0.1061  0.1085 -0.1322
42862W        W85774   5.906  17.195  20.379  0.0282 -0.1072  0.0355
42863W        W85775   9.067  15.508  22.749 -0.1604 -0.3487  0.0168
42864W        W85776   7.631  17.547  20.034 -0.0210 -0.1158  0.0395
42865W        W85777  10.903  17.532  22.688 -0.1969  0.2280 -0.0934
42866W        W85778   9.552  16.494  21.056  0.2482 -0.0168 -0.2157
42867W        W85779   9.757  15.388  23.461  0.0331  0.2204  0.2293
42868W        W85780   7.825  14.188  20.042 -0.0268  0.1347 -0.0200
42869W        W85781   7.702  17.234  21.397 -0.0205  0.1244  0.2523
42870W        W85782   7.498  16.532  21.163 -0.0494 -0.1553 -0.2582
42871W        W85783   6.636  14.340  20.592 -0.0373 -0.5440 -0.0310
42872W        W85784   9.262  18.799  20.664  0.1242  0.1853 -0.0938
42873W        W85785   6.935  16.371  20.481 -0.1298 -0.2382 -0.0188
42874W        W85786   6.166  16.633  23.614 -0.0508  0.1587 -0.0313
42875W        W85787  10.080  15.042  22.764  0.0532 -0.0665 -0.1857
42876W        W85788  10.064  15.892  20.716 -0.2731 -0.3491 -0.2602
42877W        W85789   9.189  16.072  20.945  0.2112 -0.2437  0.1517
42878W        W85790   7.278  14.912  21.756  0.1239 -0.1527  0.0072
42879W        W85791   8.723  18.124  21.407  0.0864 -0.0797 -0.1906
42880W        W85792   7.336  18.915  21.813 -0.1255 -0.2220  0.4295
42881W        W85793   6.668  15.818  20.422  0.0286 -0.0912 -0.1046
42882W        W85794   9.249  15.974  21.697 -0.2285 -0.0488  0.0054
42883W        W85795  10.899  15.457  22.533  0.4450 -0.0999  0.2130
42884W        W85796   6.714  16.808  22.192 -0.0111 -0.0141  0.0532
42885W        W85797   7.273  15.903  23.111 -0.0854 -0.0233 -0.1863
42886W        W85798   6.189  15.239  19.783  0.0967 -0.0036 -0.0189
42887W        W85799   7.668  17.350  24.216 -0.3462 -0.0700 -0.0410
42888W        W85800   8.154  13.998  21.652  0.1797  0.2187 -0.0252
42889W        W85801   8.403  16.098  19.601 -0.0459 -0.1452  0.5324
42890W        W85802   9.742  16.954  23.779  0.1611  0.1995 -0.0079
42891W        W85803   9.704  17.297  20.295  0.0715 -0.2382  0.1415
42892W        W85804   8.362  15.870  20.502  0.1626  0.0217 -0.0106
42893W        W85805   8.336  14.095  20.319 -0.4269  0.1912 -0.3931
42894W        W85806   7.786  16.846  24.266  0.3233 -0.1802  0.1072
42895W        W85807   7.856  16.182  18.622 -0.0372 -0.0961  0.1034
42896W        W85808   8.508  17.350  23.978 -0.1036  0.2029  0.3128
42897W        W85809   7.804  15.511  19.839  0.1644  0.1219 -0.0307
42898W        W85810  10.010  17.551  19.951 -0.0307 -0.3720 -0.2911
42899W        W85811   8.371  16.413  21.978  0.1265 -0.2093 -0.1797
42900W        W85812  10.071  17.257  22.993  0.2827  0.0262 -0.1140
42901W        W85813   8.187  17.293  21.514  0.0894 -0.4901  0.2082
42902W        W85814   8.354  13.144  23.307 -0.2013  0.1341 -0.2830
42903W        W85815   7.418  15.402  18.991  0.0768 -0.0120 -0.0576
42904W        W85816   7.307  14.177  21.619 -0.3838  0.1663 -0.1077
42905W        W85817   7.261  18.478  20.684  0.1838 -0.2725  0.2059
42906W        W85818   9.834  15.183  21.805  0.1805 -0.1358 -0.0466
42907W        W85819   8.841  16.030  21.433 -0.0830  0.2244 -0.0199
42908W        W85820   8.350  15.421  20.930 -0.1808 -0.0561 -0.0294
42909W        W85821   8.325  15.581  23.303 -0.2632 -0.0768 -0.1343
42910W        W85822   7.976  15.403  20.463  0.2187  0.1352  0.0810
42911W        W85823   9.446  15.259  20.296 -0.1219 -0.0794  0.1939
42912W        W85824   8.041  16.848  20.425 -0.0895  0.2171 -0.0367
42913W        W85825   7.559  14.604  23.985 -0.1017 -0.0835 -0.1883
42914W        W85826   7.888  15.916  23.408 -0.3556  0.1465  0.2597
42915W        W85827   7.119  17.518  23.807  0.0725 -0.0259 -0.0356
42916W        W85828   8.830  16.005  23.478  0.0691 -0.0809  0.0654
42917W        W85829   9.617  17.197  19.781 -0.1537 -0.1407  0.2596
42918W        W85830   9.172  16.387  23.476 -0.1187  0.1031  0.1623
42919W        W85831  10.086  14.444  21.385  0.1849  0.3051 -0.1430
42920W        W85832   7.365  19.110  21.192  0.0989 -0.2359  0.3669
42921W        W85833   8.288  16.825  21.362 -0.2753 -0.1871  0.2683
42922W        W85834   9.130  15.505  21.776 -0.1066 -0.1802 -0.1438
42923W        W85835   8.800  17.022  23.268 -0.0459  0.1213  0.0732
42924W        W85836   7.276  17.849  19.872 -0.3291 -0.1894 -0.2324
42925W        W85837   9.157  15.597  22.269  0.1782  0.4555  0.1448
42926W        W85838   7.652  18.448  21.736 -0.0945  0.0773  0.1147
42927W        W85839  10.395  15.147  21.857 -0.0319 -0.0516  0.1381
42928W        W85840   7.019  17.899  21.314 -0.1578 -0.2475  0.1611
42929W        W85841   7.406  16.215  20.222  0.1211 -0.1025  0.0689
42930W        W85842   6.263  15.516  18.977 -0.1815 -0.1613  0.0296
42931W        W85843   9.378  15.101  21.478  0.1094  0.1660 -0.2206
42932W        W85844   8.910  17.415  20.377 -0.0018 -0.2086  0.2705
42933W        W85845   7.738  16.474  22.749  0.2894 -0.3592  0.1589
42934W        W85846   8.634  14.146  21.618  0.0501 -0.3368 -0.4404
42935W        W85847   6.903  18.208  23.284 -0.1360 -0.0508 -0.0920
42936W        W85848   8.770  15.856  21.933  0.2554  0.2979 -0.0128
42937W        W85849   9.328  15.733  19.286 -0.2637 -0.2076  0.0461
42938W        W85850   9.098  16.137  23.014  0.1207 -0.2001  0.1324
42939W        W85851   8.132  16.745  24.686  0.1348 -0.0918 -0.0641
42940W        W85852   6.650  13.874  20.690  0.2440 -0.1733 -0.1146
42941W        W85853  10.089  14.869  22.254 -0.2693 -0.1558  0.1866
42942W        W85854   8.050  14.514  20.369 -0.1783 -0.1575 -0.1254
42943W        W85855   5.812  16.871  21.877 -0.0922 -0.0681  0.0061
42944W        W85856   8.205  16.908  21.922 -0.2159  0.1594 -0.2378
42945W        W85857   7.558  14.496  19.609  0.1321 -0.1535  0.0771
42946W        W85858   6.773  17.247  20.235 -0.1890  0.2352 -0.1314
42947W        W85859   6.732  16.124  23.146  0.1622 -0.0656 -0.2074
42948W        W85860   9.800  15.720  23.081  0.0890  0.1084  0.0749
42949W        W85861   8.251  15.242  21.440 -0.0108 -0.3213  0.3227
42950W        W85862   7.340  14.779  21.002 -0.0519 -0.2104 -0.0097
42951W        W85863   8.238  14.974  21.902 -0.0277  0.1095  0.1079
42952W        W85864   8.735  15.737  20.872 -0.3070 -0.0531  0.0462
42953W        W85865   8.359  16.054  24.146  0.1142  0.0494 -0.0597
42954W        W85866   7.605  17.632  24.622  0.2024 -0.1422 -0.2900
42955W        W85867   8.079  13.458  21.537  0.0349 -0.0305 -0.0079
42956W        W85868   9.471  18.077  20.231  0.2974 -0.0182  0.1230
42957W        W85869   9.615  15.336  22.793  0.2351  0.0247  0.1073
42958W        W85870   6.579  17.643  21.170  0.3172  0.1341  0.2627
42959W        W85871   7.268  18.045  22.507  0.1358  0.1340 -0.1931
42960W        W85872   8.991  17.542  21.605  0.2338  0.1009 -0.0881
42961W        W85873   8.533  15.557  22.784  0.0933 -0.0043  0.0393
42962W        W85874   9.375  18.804  23.869  0.1130 -0.3535 -0.1339
42963W        W85875   6.930  16.305  19.972 -0.0235  0.3664  0.0119
42964W        W85876   8.118  16.696  22.405  0.4507 -0.0285 -0.1102
42965W        W85877   9.199  14.796  20.656 -0.0792 -0.0442 -0.0812
42966W        W85878   7.864  16.890  21.072 -0.2871  0.1982 -0.0962
42967W        W85879   8.333  14.511  21.874  0.1315 -0.1886  0.1851
42968W        W85880   9.456  15.992  23.946  0.4081  0.0394  0.0437
42969W        W85881   7.808  15.921  20.230 -0.2170  0.1426 -0.0606
42970W        W85882   9.651  14.668  22.605 -0.0039 -0.0653 -0.0084
42971W        W85883   8.065  15.759  22.740 -0.0101  0.0182 -0.0974
42972W        W85884   9.098  16.456  20.027 -0.0339 -0.1822  0.0793
42973W        W85885   6.350  15.575  22.571  0.2727 -0.3265  0.1856
42974W        W85886   8.820  18.747  24.768  0.2424  0.3616 -0.1284
42975W        W85887   8.737  17.274  24.470 -0.1414 -0.3327  0.2340
42976W        W85888   8.820  14.417  20.307  0.1365 -0.1068 -0.3707
42977W        W85889   7.286  13.121  22.545  0.0449  0.2644 -0.1741
42978W        W85890   8.774  16.497  23.218  0.3391  0.2621  0.2776
42979W        W85891   8.786  16.772  21.284  0.1851 -0.1287  0.1290
42980W        W85892   8.316  16.356  20.629 -0.4144 -0.0080 -0.0440
42981W        W85893   9.950  15.393  20.962 -0.1200  0.0784  0.0360
42982W        W85894   9.393  17.559  23.702  0.0480  0.1019 -0.1887
42983W        W85895   8.047  16.410  21.048 -0.1262  0.1098  0.1123
42984W        W85896   7.114  15.774  20.268  0.0449 -0.0130 -0.0883
42985W        W85897   8.415  17.859  23.359 -0.0628 -0.2020  0.1464
42986W        W85898   8.587  14.715  23.957  0.0674 -0.2120 -0.1715
42987W        W85899   8.427  15.790  21.251 -0.1213 -0.1120 -0.3018
42988W        W85900   9.875  13.502  20.564  0.2198  0.3906 -0.0080
42989W        W85901  10.205  15.436  21.437  0.1091  0.0688  0.0488
42990W        W85902   8.039  16.201  22.481  0.4252 -0.0795 -0.1664
42991W        W85903   8.706  15.879  24.912 -0.0495  0.3695  0.1204
42992W        W85904   7.268  14.823  23.676  0.2321  0.3604  0.1579
42993W        W85905   8.946  18.544  23.170 -0.1389 -0.0169  0.2551
42994W        W85906  10.315  17.066  17.526 -0.0559 -0.0644  0.4528
42995W        W85907   8.386  14.379  21.231 -0.1036 -0.0779 -0.1069
42996W        W85908  11.105  15.913  19.416 -0.2658  0.1362  0.0141
42997W        W85909   7.920  16.223  21.487 -0.0838 -0.1688  0.1552
42998W        W85910   7.052  16.084  22.599  0.0916 -0.0087 -0.2516
42999W        W85911   8.825  16.577  23.760 -0.4140 -0.1714  0.2332
43000W        W85912   8.207  14.893  20.604 -0.1828  0.1381 -0.0937
43001W        W85913   8.970  14.440  22.685  0.2823 -0.2816 -0.2431
43002W        W85914   7.992  18.231  20.517  0.0309 -0.1706 -0.0986
43003W        W85915   9.137  16.935  20.372 -0.0684 -0.1722  0.1320
43004W        W85916   8.929  17.607  19.892 -0.3587  0.0135 -0.1602
43005W        W85917   7.053  15.543  20.987  0.1004 -0.1341  0.1552
43006W        W85918   6.547  17.775  23.142 -0.0505 -0.2727 -0.0705
43007W        W85919   6.412  14.804  20.846  0.2228 -0.0647 -0.0466
43008W        W85920   7.796  16.201  20.655 -0.1160 -0.1404  0.1644
43009W        W85921   7.768  15.904  21.824  0.2016 -0.1924  0.1669
43010W        W85922   9.282  16.667  23.045  0.1222 -0.3063  0.0660
43011W        W85923   9.799  13.994  20.771 -0.1245  0.1121  0.0359
43012W        W85924   8.111  16.272  23.047 -0.1874 -0.0535  0.0298
43013W        W85925   6.846  18.061  20.115 -0.0464  0.6276  0.1213
43014W        W85926   9.012  14.910  22.373 -0.1234  0.2504 -0.2019
43015W        W85927   8.215  17.719  22.410 -0.0294 -0.1643 -0.0974
43016W        W85928   7.426  18.196  23.107  0.0867  0.1896  0.1404
43017W        W85929   8.475  18.239  22.516 -0.0551 -0.3609  0.1851
43018W        W85930   7.844  14.421  21.853  0.1640  0.0064  0.2628
43019W        W85931   8.983  16.004  22.550  0.0055  0.0021 -0.1769
43020W        W85932   8.677  15.458  21.605 -0.1171 -0.0939 -0.1482
43021W        W85933   9.633  15.600  21.950  0.1619 -0.0220 -0.0634
43022W        W85934   8.544  16.028  23.038 -0.1396 -0.0188  0.4050
43023W        W85935   7.624  16.718  20.635  0.0773  0.1064 -0.3701
43024W        W85936   8.477  16.861  22.931  0.1181  0.2154 -0.3510
43025W        W85937   9.021  16.574  19.448 -0.2189  0.0291  0.0951
43026W        W85938   8.223  16.721  19.978 -0.0203 -0.0666  0.1636
43027W        W85939   6.560  16.355  23.969  0.0860  0.1660 -0.1251
43028W        W85940   8.914  15.899  23.980 -0.0445 -0.0924 -0.0661
43029W        W85941   8.595  16.553  19.778  0.2786  0.1602 -0.2007
43030W        W85942   8.846  14.616  21.000 -0.0933 -0.0038  0.0721
43031W        W85943   6.686  16.959  21.103  0.0534  0.1020  0.3109
43032W        W85944   6.901  17.928  24.223  0.0840  0.1278  0.3236
43033W        W85945   6.824  15.708  23.929  0.0549  0.0254 -0.0687
43034W        W85946   7.940  18.456  21.227 -0.0700 -0.1357 -0.1152
43035W        W85947   8.313  16.987  19.509  0.4096  0.4412 -0.2712
43036W        W85948   9.750  15.760  20.265 -0.1383  0.0582 -0.4577
43037W        W85949   8.568  17.222  21.169  0.0893 -0.0640 -0.0677
43038W        W85950   7.927  13.533  21.054 -0.1055 -0.1713  0.0057
43039W        W85951   6.731  17.457  22.625  0.3685 -0.0209 -0.1989
43040W        W85952   7.046  19.004  20.794 -0.0776 -0.0670 -0.1116
43041W        W85953   9.605  16.817  20.642 -0.1286  0.1847  0.3258
43042W        W85954   6.699  17.645  21.702 -0.0797 -0.0162  0.0864
43043W        W85955  10.840  17.997  22.533 -0.2428  0.3342  0.0367
43044W        W85956   8.993  15.183  20.121 -0.0144 -0.1281 -0.1642
43045W        W85957   9.821  15.400  19.867  0.3642  0.1670  0.3498
43046W        W85958  10.200  16.442  21.495 -0.2141 -0.0876  0.0629
43047W        W85959   9.040  17.428  25.008  0.2027  0.0340 -0.0054
43048W        W85960   8.036  15.413  21.898  0.2641  0.0134 -0.0232
43049W        W85961   7.361  15.765  19.883 -0.0572  0.2237 -0.0230
43050W        W85962   8.084  15.226  24.467  0.0248 -0.0363  0.0707
43051W        W85963  10.649  14.772  22.094 -0.0255 -0.2609  0.0908
43052W        W85964   6.695  17.517  24.058 -0.2980  0.2126  0.1217
43053W        W85965   9.450  17.644  19.975 -0.3084 -0.2102 -0.0556
43054W        W85966   6.192  14.988  21.789  0.0828  0.2163 -0.2391
43055W        W85967   7.309  16.825  21.566  0.0502  0.0242  0.3151
43056W        W85968   9.148  15.669  21.311  0.1428 -0.0309  0.1050
43057W        W85969   8.334  17.284  20.559  0.3310 -0.0891 -0.2545
43058W        W85970   8.464  14.446  20.668  0.2432  0.0055 -0.0916
43059W        W85971   8.765  17.853  22.096 -0.1660 -0.0645 -0.2300
43060W        W85972   7.825  17.019  23.426 -0.1267  0.0572 -0.0790
43061W        W85973   8.714  17.526  23.061  0.1002  0.0937 -0.1471
43062W        W85974   6.729  15.065  21.463 -0.2759 -0.0180 -0.0582
43063W        W85975  10.000  14.106  20.221  0.0109 -0.0522  0.0069
43064W        W85976   8.327  16.477  23.886 -0.0894 -0.0275 -0.0463
43065W        W85977  12.350  14.934  22.610 -0.2267  0.2078 -0.4099
43066W        W85978   7.541  17.530  20.973  0.2719  0.0205  0.1143
43067W        W85979   9.388  13.888  20.517  0.3707 -0.1573  0.0310
43068W        W85980  10.170  15.246  23.224  0.2178  0.2433 -0.0213
43069W        W85981   9.124  15.198  23.188 -0.0010  0.0639 -0.4678
43070W        W85982   8.255  15.690  20.024  0.0172  0.0396 -0.3318
43071W        W85983  10.011  16.043  22.778 -0.2823  0.1044  0.1964
43072W        W85984   8.244  15.643  19.518 -0.2197 -0.1763  0.0878
43073W        W85985  10.446  18.145  23.311  0.2409 -0.0312 -0.1997
43074W        W85986   6.700  14.933  20.424 -0.1100 -0.1744  0.0344
43075W        W85987   8.434  15.271  20.289  0.3121  0.0062  0.0580
43076W        W85988   6.844  15.583  21.445 -0.3325 -0.1897 -0.0711
43077W        W85989   8.472  16.354  21.391  0.2043  0.0106  0.1856
43078W        W85990   9.605  18.012  22.357 -0.0793 -0.2496 -0.3907
43079W        W85991   7.120  14.313  19.895  0.2058 -0.3914 -0.0765
43080W        W85992   9.442  18.071  18.486 -0.2742  0.2215 -0.0133
43081W        W85993   9.657  16.158  21.406  0.0473 -0.2866 -0.2272
43082W        W85994   8.128  17.323  21.004  0.2229 -0.1996 -0.2812
43083W        W85995   8.653  16.681  20.365 -0.1825 -0.0576 -0.0040
43084W        W85996   9.590  19.173  20.372  0.0641  0.0943 -0.3083
43085W        W85997   6.822  15.649  23.464  0.0478 -0.0737  0.1572
43086W        W85998   8.310  16.895  20.885 -0.0719  0.3613  0.0572
43087W        W85999   9.318  18.214  23.155  0.1168 -0.1488 -0.1695
43088W        W86000   7.460  13.338  20.155 -0.1941  0.0965  0.0770
43089W        W86001   7.064  14.618  20.608  0.0185 -0.1047 -0.2582
43090W        W86002   7.130  17.448  21.496  0.0791  0.1669 -0.0146
43091W        W86003  10.721  15.077  20.918 -0.2072 -0.1572 -0.1619
43092W        W86004   8.914  14.935  23.602  0.0835  0.0991  0.4146
43093W        W86005   7.606  18.108  20.882 -0.0260  0.2365  0.2465
43094W        W86006  10.889  14.884  22.590 -0.1750  0.2073 -0.1431
43095W        W86007   9.181  17.757  22.926  0.3751  0.2820 -0.1946
43096W        W86008   8.807  17.904  23.811 -0.0704  0.0407  0.2429
43097W        W86009   8.080  14.519  19.781 -0.0266  0.3323  0.0687
43098W        W86010   8.433  16.819  24.248 -0.2582 -0.0112 -0.1013
43099W        W86011   7.840  17.524  22.095 -0.1749 -0.2147  0.0729
43100W        W86012   8.524  18.868  21.441 -0.2658  0.1949  0.2314
43101W        W86013   9.047  18.285  21.794  0.0811 -0.4191  0.1098
43102W        W86014   7.161  15.540  19.507 -0.0379 -0.4465 -0.0890
43103W        W86015   9.267  17.982  21.532  0.0251  0.3097 -0.2184
43104W        W86016   8.813  12.912  21.969 -0.0376 -0.2247  0.1116
43105W        W86017  11.478  14.594  20.429  0.1747  0.0913  0.0654
43106W        W86018   9.914  14.551  20.911  0.0959  0.2297 -0.3021
43107W        W86019   7.048  15.452  24.281 -0.1975 -0.0818  0.2034
43108W        W86020   5.261  16.742  20.152  0.1318  0.2092 -0.1668
43109W        W86021   8.765  17.325  22.238  0.3038  0.0471 -0.3542
43110W        W86022   6.653  15.917  22.000  0.2132 -0.1723 -0.1180
43111W        W86023   8.203  13.628  22.029 -0.0252  0.1763 -0.1230
43112W        W86024   7.805  15.958  23.940  0.2592  0.0174  0.3104
43113W        W86025   6.207  15.970  21.720  0.1286  0.0299 -0.0034
43114W        W86026   8.003  14.605  20.995  0.2076 -0.0341  0.0232
43115W        W86027   8.177  18.201  18.827  0.0256  0.1146  0.2377
43116W        W86028   7.566  14.748  22.350  0.1236  0.3382 -0.1649
43117W        W86029   7.338  15.229  20.799 -0.1743 -0.2708 -0.1946
43118W        W86030   7.383  17.262  21.944 -0.0052  0.1912  0.2632
43119W        W86031   9.560  16.773  20.125 -0.0921 -0.1097  0.0313
43120W        W86032   9.074  14.357  21.414 -0.0543  0.0814 -0.1041
43121W        W86033  10.658  18.949  23.092  0.1235  0.1889 -0.0491
43122W        W86034   7.144  18.039  20.657 -0.2611 -0.2324  0.1411
43123W        W86035   7.497  15.237  24.526  0.0782  0.0221 -0.0074
43124W        W86036   8.487  13.519  23.789 -0.0627 -0.1920  0.3371
43125W        W86037   6.527  15.489  21.089  0.2879  0.0808 -0.3578
43126W        W86038   8.910  16.567  22.726  0.1442 -0.2326  0.1934
43127W        W86039   8.421  17.754  21.758 -0.1878  0.2828 -0.1434
43128W        W86040   9.045  19.088  20.045 -0.0957 -0.1745 -0.0300
43129W        W86041   9.205  17.409  23.237  0.0634  0.1795  0.0641
43130W        W86042   8.998  17.225  24.020  0.2727 -0.0440 -0.0359
43131W        W86043   7.807  13.849  22.643  0.1845 -0.2362 -0.3936
43132W        W86044  10.047  16.991  20.028  0.0901  0.1155  0.0997
43133W        W86045   8.791  18.080  22.918 -0.0257  0.0237 -0.1940
43134W        W86046   9.306  17.288  20.716  0.3036 -0.1311  0.0542
43135W        W86047  10.397  16.007  23.779  0.0298 -0.0578 -0.1454
43136W        W86048   8.534  16.573  19.294  0.0811 -0.0934 -0.0546
43137W        W86049   7.140  15.273  23.760 -0.2294  0.1943 -0.1321
43138W        W86050   8.156  17.267  24.351 -0.1065  0.3204 -0.0962
43139W        W86051   9.171  16.406  21.353 -0.0357  0.2064  0.2932
43140W        W86052   8.681  13.822  22.105  0.0799 -0.2149 -0.0227
43141W        W86053   7.556  14.528  20.670 -0.0976  0.0754 -0.2317
43142W        W86054   8.627  17.137  20.005  0.0633 -0.1967 -0.0845
43143W        W86055   8.458  16.355  22.587 -0.2496  0.1782 -0.1912
43144W        W86056   8.725  15.118  19.703 -0.0315 -0.3859 -0.2973
43145W        W86057   8.898  16.451  21.766 -0.1322  0.2375  0.0932
43146W        W86058   9.713  17.290  23.375 -0.1178  0.1110 -0.1141
43147W        W86059   9.625  16.248  23.046 -0.1236 -0.0487  0.1690
43148W        W86060   7.565  15.470  20.232 -0.0269 -0.3279 -0.1859
43149W        W86061  10.483  17.049  18.678  0.2521 -0.2883 -0.4080
43150W        W86062  10.097  16.977  21.688 -0.1534  0.0415 -0.0449
43151W        W86063  10.295  16.933  22.683 -0.0146 -0.1066 -0.0564
43152W        W86064   9.761  16.755  22.757  0.0408 -0.0777 -0.1408
43153W        W86065   7.997  15.857  20.938 -0.0498 -0.2390  0.0832
43154W        W86066   7.892  14.730  22.748 -0.4297 -0.2312  0.1233
43155W        W86067   7.803  16.464  20.135  0.1990  0.3248  0.3242
43156W        W86068   7.577  16.216  22.206 -0.1360 -0.2211  0.0730
43157W        W86069   7.984  15.016  20.081  0.1868  0.2255 -0.1722
43158W        W86070   9.138  13.139  22.808  0.0111  0.3139  0.1352
43159W        W86071   9.932  13.436  19.773 -0.3013 -0.2283  0.0857
43160W        W86072   8.982  17.651  24.228 -0.2025 -0.0984 -0.0147
43161W        W86073   8.465  14.916  21.137 -0.1849 -0.1692 -0.2368
43162W        W86074   7.652  17.627  26.943  0.2129 -0.3369  0.0770
43163W        W86075   8.632  14.785  24.921  0.1955 -0.0692  0.0781
43164W        W86076  11.129  16.128  24.905  0.1035 -0.2021 -0.2212
43165W        W86077  10.523  15.970  25.996 -0.0293 -0.1384 -0.0998
43166W        W86078   6.324  15.522  27.268 -0.2016 -0.0546 -0.0878
43167W        W86079   8.487  17.417  25.693  0.0292 -0.2061 -0.1593
43168W        W86080   8.523  14.821  25.801  0.2068 -0.2706 -0.1986
43169W        W86081  10.301  17.033  25.724  0.1277 -0.0096  0.3458
43170W        W86082  10.889  17.517  25.973 -0.0595  0.0004  0.1086
43171W        W86083   8.489  16.378  24.598 -0.0347 -0.1476 -0.0708
43172W        W86084   9.778  14.995  26.758  0.0915  0.0837  0.0077
43173W        W86085   8.612  17.073  26.261  0.0437  0.3399 -0.1629
43174W        W86086   9.743  14.534  23.446  0.0152  0.2244 -0.0387
43175W        W86087   7.514  15.438  26.105  0.3384 -0.4233  0.2422
43176W        W86088   9.840  15.896  25.677  0.0676  0.1483  0.2819
43177W        W86089   8.582  14.990  24.423 -0.1809 -0.1986  0.4275
43178W        W86090   7.866  15.557  26.483  0.2732  0.0740  0.0995
43179W        W86091   8.348  14.882  25.287 -0.2263  0.0549 -0.3695
43180W        W86092   8.334  18.518  24.801 -0.0393 -0.0304  0.3663
43181W        W86093   8.424  14.395  26.727 -0.2479  0.0304  0.3721
43182W        W86094   8.881  15.038  28.045 -0.1262 -0.2529  0.2646
43183W        W86095   8.396  16.780  25.176  0.0646 -0.0575  0.1908
43184W        W86096   7.467  16.116  23.593  0.1385 -0.0978  0.4393
43185W        W86097   8.503  14.804  27.704 -0.0516  0.1977  0.2425
43186W        W86098   7.946  14.491  25.529  0.0713  0.0559  0.0634
43187W        W86099  10.999  15.220  25.011 -0.1454 -0.1784  0.1084
43188W        W86100   9.885  18.331  24.207 -0.3203  0.0654 -0.0930
43189W        W86101   8.848  17.079  25.791  0.0526  0.2669  0.1538
43190W        W86102  10.023  17.561  25.370  0.0616 -0.0079 -0.0976
43191W        W86103   8.998  14.071  26.495  0.0884  0.1926  0.1191
43192W        W86104   5.001  17.355  24.811 -0.1351  0.1372  0.3036
43193W        W86105   6.448  17.367  25.686 -0.1563  0.0667 -0.0209
43194W        W86106   7.984  17.586  25.156  0.0673  0.1159  0.1473
43195W        W86107  10.826  18.904  25.235  0.2327 -0.0291 -0.2204
43196W        W86108  10.386  18.237  27.216 -0.1308  0.1127  0.1866
43197W        W86109   9.532  19.378  27.509  0.2651  0.0418 -0.2016
43198W        W86110   7.279  18.371  24.968 -0.1785  0.3412  0.0420
43199W        W86111   9.073  18.718  25.749 -0.4707 -0.1165  0.1868
43200W        W86112   7.967  15.267  25.377 -0.2483  0.0965 -0.1680
43201W        W86113  10.006  15.097  26.341  0.0352  0.2194  0.3381
43202W        W86114   9.394  15.697  25.247  0.1568 -0.0366  0.1769
43203W        W86115  10.013  17.758  22.453 -0.3092 -0.0684 -0.0358
43204W        W86116   8.301  15.286  24.948  0.2909 -0.5946 -0.0529
43205W        W86117   7.511  17.394  27.465 -0.0671 -0.0005  0.0796
43206W        W86118   7.754  17.367  26.317 -0.1139  0.0386 -0.0163
43207W        W86119  10.770  14.617  28.412  0.3044 -0.2683  0.1654
43208W        W86120   8.724  17.199  25.289 -0.0390 -0.2985  0.1061
43209W        W86121   7.927  15.415  23.601 -0.3195  0.2606  0.0271
43210W        W86122   7.494  15.584  24.063  0.3446  0.1424 -0.0473
43211W        W86123  10.888  17.207  23.596 -0.4285 -0.1914 -0.2998
43212W        W86124   9.793  14.476  25.568 -0.0767 -0.0275  0.0630
43213W        W86125   8.644  18.013  25.935 -0.1640  0.1007 -0.2213
43214W        W86126   7.811  13.995  25.235  0.1702 -0.3337  0.0788
43215W        W86127  10.020  16.715  26.715  0.0901  0.1494  0.1530
43216W        W86128   8.720  16.359  24.158 -0.0528 -0.0738  0.0308
43217W        W86129   8.898  14.456  27.617  0.2010 -0.2556  0.2463
43218W        W86130   8.676  17.471  26.594 -0.1041 -0.0203 -0.3833
43219W        W86131   8.210  14.110  27.175  0.3426  0.2964  0.3661
43220W        W86132  10.792  17.952  23.009  0.0131 -0.2837  0.0330
43221W        W86133   9.641  18.287  26.255  0.2590 -0.2167  0.0157
43222W        W86134   8.155  17.649  24.677 -0.0191  0.1938  0.1988
43223W        W86135   7.665  16.075  24.865  0.0079  0.0905  0.2959
43224W        W86136   8.133  16.998  26.354  0.0607  0.1074 -0.0381
43225W        W86137   7.303  15.096  27.479 -0.0035  0.2929  0.0455
43226W        W86138   8.379  14.398  24.461  0.1843  0.0497  0.2329
43227W        W86139  11.030  15.524  26.725  0.1086 -0.1684 -0.1549
43228W        W86140   6.782  17.606  26.742 -0.1204 -0.0893 -0.1309
43229W        W86141   9.730  13.553  23.611 -0.0839  0.3703  0.2249
43230W        W86142   8.902  15.972  26.037 -0.0770  0.0134  0.0120
43231W        W86143   9.551  17.655  25.543  0.0884 -0.0498 -0.0777
43232W        W86144  10.249  17.082  24.006  0.0768  0.1362 -0.0098
43233W        W86145   9.158  13.574  25.369  0.1385 -0.1419 -0.0177
43234W        W86146   9.605  14.857  25.843 -0.4214 -0.0947  0.0381
43235W        W86147   7.506  16.020  24.362 -0.0864  0.1968  0.2757
43236W        W86148   9.037  17.554  25.551 -0.1234  0.2110 -0.1931
43237W        W86149   8.051  15.568  26.002 -0.1492  0.0273  0.0621
43238W        W86150   9.264  16.286  24.286 -0.2750 -0.0902 -0.3176
43239W        W86151   6.524  16.162  24.804 -0.1375  0.0923  0.1463
43240W        W86152   8.456  15.495  25.380  0.0126 -0.0874  0.3079
43241W        W86153   9.566  17.613  26.631  0.2577 -0.1021 -0.0540
43242W        W86154   6.306  17.786  24.290 -0.2115  0.4077  0.3059
43243W        W86155   5.767  17.551  25.221 -0.0122 -0.1545  0.5296
43244W        W86156   6.883  16.636  24.941 -0.2104 -0.3510 -0.0959
43245W        W86157   7.208  13.782  26.921 -0.1776  0.1630 -0.1147
43246W        W86158   9.272  15.994  25.697 -0.2121 -0.0743 -0.3116
43247W        W86159  10.175  16.170  24.814 -0.1800 -0.3122  0.0969
43248W        W86160   8.024  15.313  26.888  0.0376 -0.1917  0.3444
43249W        W86161  10.227  13.729  26.183  0.0835 -0.2369  0.1274
43250W        W86162   7.118  16.749  25.949 -0.0834 -0.0157 -0.0862
43251W        W86163   9.521  18.207  24.936 -0.0070 -0.0750  0.3055
43252W        W86164  10.651  15.722  24.213  0.0669 -0.2329  0.3578
43253W        W86165  11.054  18.489  23.184 -0.0716 -0.2688 -0.2460
43254W        W86166   8.486  15.589  26.701  0.0430  0.0551  0.3803
43255W        W86167   7.325  14.942  24.977  0.0676  0.0186  0.1476
43256W        W86168   7.507  14.610  27.377  0.0391  0.1586 -0.2419
43257W        W86169   7.558  15.671  25.654 -0.2322 -0.0972  0.2016
43258W        W86170  10.112  14.053  26.972  0.0306  0.2822  0.0246
43259W        W86171   7.029  14.224  24.736  0.2124 -0.0410 -0.0136
43260W        W86172  11.862  15.715  25.413  0.2970  0.0261  0.2934
43261W        W86173   8.869  15.434  25.072 -0.2766 -0.0410 -0.2944
43262W        W86174   5.808  15.303  25.182  0.1157  0.0355  0.1457
43263W        W86175  10.153  14.292  25.905 -0.2938 -0.1495 -0.2197
43264W        W86176   8.483  18.638  24.272 -0.0838  0.0012  0.1080
43265W        W86177  10.460  17.528  25.586  0.1396 -0.0650  0.2809
43266W        W86178   9.535  17.816  23.306  0.0349  0.2612  0.3367
43267W        W86179   8.481  14.779  26.289  0.0124 -0.1234 -0.2199
43268W        W86180   9.181  14.859  24.960  0.0947 -0.2013  0.1775
43269W        W86181   6.236  16.761  24.304 -0.1189 -0.1321 -0.0151
43270W        W86182   8.482  16.970  26.779 -0.0187  0.2171  0.2085
43271W        W86183   8.560  15.624  23.747  0.1649  0.1750  0.3418
43272W        W86184  11.356  16.840  24.259 -0.3115  0.0313 -0.0722
43273W        W86185   8.751  16.432  25.100  0.1039 -0.0878 -0.2731
43274W        W86186   8.179  15.804  27.186 -0.0664 -0.0442  0.0302
43275W        W86187  10.163  14.807  27.152  0.0718  0.2564  0.0897
43276W        W86188   8.957  17.023  26.617  0.3054 -0.1708  0.0555
43277W        W86189   9.405  16.674  26.385 -0.1854  0.1939  0.3811
43278W        W86190   7.857  15.672  24.650 -0.0219 -0.1538  0.0017
43279W        W86191  10.638  17.670  25.154 -0.2345 -0.0314 -0.1303
43280W        W86192   7.475  17.005  24.758 -0.1436  0.1059 -0.0639
43281W        W86193   7.016  16.791  26.493 -0.1134  0.1113  0.5226
43282W        W86194   8.182  18.043  24.964  0.0604  0.3029  0.1042
43283W        W86195  10.018  13.740  26.597  0.0111 -0.0240  0.0998
43284W        W86196   7.246  14.890  28.010 -0.1275  0.0736 -0.2015
43285W        W86197   9.106  15.372  27.509 -0.1648 -0.0461 -0.0622
43286W        W86198   7.233  15.586  22.640  0.0225 -0.1548  0.1783
43287W        W86199   8.172  17.366  26.653  0.2396  0.0395  0.1284
43288W        W86200   9.982  13.319  22.881  0.0201 -0.0958 -0.3901
43289W        W86201  10.703  15.310  24.509 -0.1475  0.0064  0.1682
43290W        W86202  10.282  17.480  26.081  0.1109  0.2197  0.0150
43291W        W86203   9.911  17.483  23.877  0.1141 -0.1750  0.0069
43292W        W86204   8.513  16.955  23.681  0.1018  0.2273  0.0987
43293W        W86205   9.501  15.985  23.427  0.1246 -0.4111 -0.1433
43294W        W86206   7.145  17.541  27.085 -0.4183  0.1421  0.0721
43295W        W86207   8.672  16.833  24.729  0.1294 -0.2762  0.1425
43296W        W86208   8.020  16.090  25.913  0.1382 -0.2483 -0.1852
43297W        W86209   9.289  14.913  22.859  0.0282  0.4019  0.3194
43298W        W86210   9.509  17.173  22.885  0.0791 -0.1574  0.0605
43299W        W86211   6.699  15.143  25.115 -0.1170  0.0312  0.2021
43300W        W86212  10.806  15.160  26.486 -0.0623  0.0799  0.1039
43301W        W86213   9.060  18.180  25.648  0.0365 -0.2466 -0.2063
43302W        W86214   9.303  15.330  26.095 -0.3022  0.1205  0.2062
43303W        W86215   7.191  16.586  23.493 -0.3573 -0.0104 -0.3518
43304W        W86216   8.535  14.263  26.237 -0.0327  0.2946  0.2622
43305W        W86217   6.815  17.174  24.322 -0.2296 -0.1208 -0.3084
43306W        W86218  11.458  15.891  25.648  0.0082 -0.1903  0.0045
43307W        W86219   8.538  15.393  24.188  0.0510  0.5419  0.0079
43308W        W86220   8.928  15.135  26.356 -0.0370 -0.1396 -0.0938
43309W        W86221  10.797  15.672  27.207  0.2248  0.2541  0.0166
43310W        W86222   9.384  16.664  23.912  0.0802  0.0783  0.2771
43311W        W86223   9.642  13.957  25.499 -0.1180  0.1105 -0.4219
43312W        W86224   7.759  15.515  23.074 -0.1854  0.0361  0.1102
43313W        W86225   7.621  15.044  27.020 -0.0827 -0.2120 -0.0885
43314W        W86226   7.988  16.725  26.807 -0.4121 -0.0971 -0.0957
43315W        W86227   7.566  16.416  25.991 -0.2661 -0.0473 -0.0699
43316W        W86228  11.556  17.733  26.738  0.2120  0.0700  0.2122
43317W        W86229   9.732  16.420  23.607  0.0349 -0.1306  0.3917
43318W        W86230   8.890  15.572  28.077  0.0640 -0.2650  0.0564
43319W        W86231   9.406  13.949  22.138  0.1273 -0.1817  0.0141
43320W        W86232   7.993  18.117  22.634  0.1754  0.0566  0.2723
43321W        W86233   7.845  16.757  25.171  0.1856  0.0896  0.0271
43322W        W86234   9.024  14.957  25.869  0.3275  0.1080 -0.0684
43323W        W86235   9.982  16.739  26.219 -0.1421 -0.1949 -0.1387
43324W        W86236   8.248  18.172  24.410 -0.1868 -0.2715 -0.3449
43325W        W86237  10.370  15.171  25.425  0.2877 -0.2000 -0.0699
43326W        W86238   7.569  17.199  25.283 -0.0272  0.3241 -0.2200
43327W        W86239  10.647  14.188  26.285  0.1302 -0.0049  0.0459
43328W        W86240   8.761  17.545  26.111 -0.4572  0.0325 -0.1208
43329W        W86241   6.765  16.034  24.369 -0.0687  0.0309 -0.1880
43330W        W86242   6.863  15.118  25.970  0.2451  0.3213 -0.0850
43331W        W86243   9.907  15.621  25.240 -0.3457 -0.2628  0.0161
43332W        W86244   9.534  16.892  24.364 -0.0558 -0.2562  0.3424
43333W        W86245   7.310  14.666  26.728 -0.1738  0.0765  0.1116
43334W        W86246   9.898  15.099  25.306 -0.0164  0.0564 -0.0773
43335W        W86247   6.703  18.261  26.036  0.0780  0.1483  0.3872
43336W        W86248   9.966  16.549  25.096  0.2009 -0.6421 -0.2805
43337W        W86249   9.857  15.063  24.218  0.0082  0.1025 -0.0113
43338W        W86250  10.386  15.993  26.657  0.1613 -0.3075 -0.0318
43339W        W86251   8.485  16.458  26.975  0.2637  0.3786 -0.0755
43340W        W86252   6.784  16.507  22.585  0.1445  0.2105 -0.0249
43341W        W86253  10.560  15.525  26.821 -0.1047 -0.1892  0.0092
43342W        W86254   8.032  17.135  23.831 -0.3488 -0.1725  0.0765
43343W        W86255   6.538  16.990  24.712 -0.2150 -0.1774 -0.0906
43344W        W86256  10.185  16.978  24.969 -0.0182  0.0400  0.2251
43345W        W86257   7.325  15.442  25.249 -0.1580 -0.4088 -0.3732
43346W        W86258   8.064  16.359  25.020  0.2857 -0.1552 -0.0849
43347W        W86259   8.266  15.903  26.376  0.0280  0.1771  0.1822
43348W        W86260   9.638  14.669  27.156 -0.1956 -0.0227  0.4379
43349W        W86261   8.311  14.253  24.946  0.0105  0.3625 -0.0331
43350W        W86262   8.966  14.180  25.414 -0.0500 -0.1260  0.0089
43351W        W86263   8.803  15.935  24.450 -0.1841  0.2873  0.2327
43352W        W86264  10.068  16.167  26.038 -0.2092 -0.0980  0.1925
43353W        W86265   8.911  15.571  25.721  0.5735  0.4786 -0.3698
43354W        W86266   7.379  17.358  29.204 -0.0718  0.4346 -0.0596
43355W        W86267   9.201  12.471  25.391  0.1821  0.1085  0.2704
43356W        W86268  10.561  18.884  23.944 -0.0805 -0.1170 -0.0867
43357W        W86269   9.187  16.317  25.320  0.1980 -0.2059  0.1121
43358W        W86270   8.196  17.173  25.382  0.0252 -0.0216 -0.0545
43359W        W86271   7.637  16.251  27.076  0.0847  0.2344 -0.0102
43360W        W86272   8.712  15.531  26.167 -0.1837 -0.1208 -0.0945
43361W        W86273   9.241  14.497  25.644 -0.2597  0.2771  0.2292
43362W        W86274   8.462  15.820  25.884  0.0103 -0.0631  0.4141
43363W        W86275   7.165  16.380  24.439  0.1273  0.1411 -0.1052
43364W        W86276   6.700  17.137  27.280 -0.4511  0.1738  0.3148
43365W        W86277  10.101  15.522  24.170  0.1590 -0.3185  0.1583
43366W        W86278   9.894  16.982  25.395  0.0500 -0.2371 -0.0534
43367W        W86279   9.406  13.258  24.062 -0.1458 -0.0541  0.3357
43368W        W86280  11.313  16.853  28.052 -0.0616 -0.0105  0.0036
43369W        W86281  10.229  17.221  23.518 -0.1858  0.1352 -0.1094
43370W        W86282   9.646  14.172  27.263  0.0625 -0.1316  0.1786
43371W        W86283   7.737  14.550  26.930  0.0335 -0.1742  0.1639
43372W        W86284  10.177  17.958  25.066 -0.4040  0.1405  0.0491
43373W        W86285   9.419  15.884  28.706  0.2418  0.0515  0.1845
43374W        W86286   9.974  17.303  27.982  0.0598 -0.0365  0.0580
43375W        W86287   7.520  16.142  26.594 -0.2582 -0.1910 -0.2812
43376W        W86288   9.412  14.985  23.666 -0.1650 -0.3076 -0.2343
43377W        W86289   7.809  14.504  25.020  0.1108  0.0499 -0.1875
43378W        W86290   7.729  15.720  27.022 -0.2254  0.0625  0.0871
43379W        W86291  10.202  16.669  23.659 -0.0710  0.1186 -0.1379
43380W        W86292   7.621  17.549  23.705  0.0399 -0.1905  0.0993
43381W        W86293  12.221  16.022  25.080 -0.1262 -0.3027  0.0208
43382W        W86294   8.400  16.538  26.493 -0.4164 -0.1772  0.1471
43383W        W86295   9.666  15.537  24.536  0.3933  0.1553  0.3224
43384W        W86296   7.784  15.638  25.133  0.2253 -0.0611 -0.1353
43385W        W86297   7.020  16.076  24.799 -0.1564  0.0405 -0.1356
43386W        W86298   8.352  14.279  27.693 -0.1713 -0.0549  0.0190
43387W        W86299  10.448  17.094  24.550  0.1424  0.1376  0.0796
43388W        W86300   9.014  16.416  24.704 -0.0190  0.0148  0.0175
43389W        W86301   8.798  14.745  26.723  0.2006  0.0068 -0.3570
43390W        W86302  10.336  16.468  26.437  0.0529 -0.1459  0.2562
43391W        W86303   7.561  16.179  28.101 -0.1400 -0.2071 -0.0463
43392W        W86304   5.865  14.769  27.491 -0.0958  0.1774  0.2626
43393W        W86305   9.141  18.525  27.568  0.0763  0.0292  0.0601
43394W        W86306   9.808  16.787  23.268 -0.1087  0.0974  0.0003
43395W        W86307  10.706  14.454  27.451  0.1220  0.0620  0.0329
43396W        W86308  10.127  15.365  24.678 -0.0061  0.0548 -0.1590
43397W        W86309  10.321  16.834  23.218  0.0266  0.2583 -0.2519
43398W        W86310   7.475  14.262  25.622 -0.1862  0.2427  0.0851
43399W        W86311   9.290  14.822  27.505  0.2505  0.2968 -0.1231
43400W        W86312   8.278  15.094  23.829 -0.2550  0.1997 -0.1501
43401W        W86313   9.650  16.211  25.069 -0.0185  0.1209 -0.1283
43402W        W86314   9.307  17.932  24.507 -0.0484  0.3368  0.2938
43403W        W86315   8.905  15.898  25.368  0.0728 -0.2066  0.2528
43404W        W86316  11.190  16.488  23.521 -0.0151 -0.1315  0.1324
43405W        W86317   6.965  15.454  25.567 -0.4124  0.0319 -0.0952
43406W        W86318   7.957  17.206  27.044 -0.2033  0.3231 -0.0204
43407W        W86319   6.528  15.345  24.261  0.1542  0.0352 -0.0922
43408W        W86320   7.090  16.178  23.980  0.3342  0.1842  0.1681
43409W        W86321   8.064  16.154  26.851 -0.3355  0.5361 -0.0029
43410W        W86322  11.163  17.667  26.397 -0.0377 -0.2335 -0.1062
43411W        W86323   9.207  14.159  23.681  0.0892 -0.0063 -0.0261
43412W        W86324   8.758  14.222  27.082 -0.0197  0.0813 -0.0376
43413W        W86325   6.689  17.631  24.686  0.0435 -0.2197  0.1391
43414W        W86326   9.762  14.554  25.030 -0.0999 -0.2286  0.1796
43415W        W86327   8.224  17.476  26.178 -0.2417  0.2462  0.2376
43416W        W86328   7.039  16.199  26.241 -0.2394 -0.2827 -0.2333
43417W        W86329   9.596  16.747  25.839 -0.2113  0.0871  0.2063
43418W        W86330  10.835  14.857  25.405  0.0465  0.1630  0.3341
43419W        W86331   9.581  14.906  24.685 -0.1006  0.1348  0.1621
43420W        W86332   7.880  16.353  24.209 -0.0045  0.1463  0.0634
43421W        W86333  12.471  15.554  26.264 -0.2956 -0.0774  0.1591
43422W        W86334   8.849  15.261  26.829 -0.0160 -0.0199 -0.0566
43423W        W86335   9.191  16.480  25.866 -0.0239 -0.1923 -0.0372
43424W        W86336  10.007  17.886  27.109 -0.0521  0.2179  0.1540
43425W        W86337   9.600  18.594  24.609  0.1917 -0.2955  0.0672
43426W        W86338   8.415  16.803  25.894  0.2023  0.0955  0.0464
43427W        W86339   6.880  14.744  27.221  0.0525 -0.5405 -0.0265
43428W        W86340   8.664  15.535  27.277  0.3644  0.0247  0.3585
43429W        W86341   9.538  15.432  25.592 -0.1410  0.0116 -0.1123
43430W        W86342   8.788  15.135  25.456  0.0674  0.0691 -0.3130
43431W        W86343   9.483  17.999  23.914  0.1453  0.1744 -0.0510
43432W        W86344   7.033  17.224  28.461  0.1344 -0.3393 -0.0857
43433W        W86345   7.568  15.923  26.123  0.1099 -0.1432  0.1715
43434W        W86346   7.916  16.837  25.904 -0.1570 -0.3451  0.0938
43435W        W86347   9.180  16.871  24.827  0.0075  0.1971 -0.0902
43436W        W86348   9.452  16.759  25.247 -0.1537  0.0979 -0.0753
43437W        W86349   9.126  17.948  25.118  0.1736 -0.0093  0.2391
43438W        W86350   8.176  15.881  24.992 -0.4872  0.1079  0.1015
43439W        W86351   7.220  16.404  25.514 -0.0308 -0.0272  0.0985
43440W        W86352   6.387  17.410  25.032 -0.1096  0.2076 -0.0868
43441W        W86353   9.395  17.325  24.644 -0.0716 -0.0771 -0.1047
43442W        W86354   7.528  16.780  25.630 -0.2833 -0.2853 -0.0774
43443W        W86355  11.385  17.176  27.383 -0.1684 -0.3118  0.0345
43444W        W86356   9.379  14.940  24.223  0.1034  0.0796  0.1817
43445W        W86357  10.857  17.515  23.984  0.0444  0.2724  0.0203
43446W        W86358  10.129  13.639  25.108 -0.1419 -0.0104  0.1509
43447W        W86359   9.772  17.380  27.040  0.0426  0.0537 -0.1200
43448W        W86360   8.259  15.299  26.377 -0.0134  0.0322 -0.0707
43449W        W86361   8.985  15.165  24.054  0.0891  0.0526  0.3115
43450W        W86362   7.401  15.903  27.413  0.1925 -0.0250  0.1153
43451W        W86363   9.847  15.654  27.307  0.0443  0.0934 -0.2273
43452W        W86364   7.078  16.569  27.933  0.0793  0.2039 -0.1181
43453W        W86365  10.397  18.093  22.691 -0.0725  0.0228 -0.2006
43454W        W86366   7.106  14.583  25.717 -0.2022 -0.0657 -0.1392
43455W        W86367   9.039  15.648  26.479  0.3663 -0.1732 -0.2254
43456W        W86368   8.837  14.989  27.283 -0.1561 -0.0876  0.3768
43457W        W86369   8.984  16.815  25.398 -0.1651 -0.2099  0.1575
43458W        W86370   9.192  15.503  23.674 -0.0206  0.1322 -0.1407
43459W        W86371   7.605  17.983  24.969  0.2347  0.4211 -0.0313
43460W        W86372   8.461  16.095  25.427 -0.1085  0.0155 -0.0233
43461W        W86373   7.831  17.887  25.997  0.0073  0.0463 -0.0459
43462W        W86374   8.108  14.434  23.665 -0.1914 -0.1048 -0.2066
43463W        W86375  10.886  16.561  25.113  0.1081 -0.0916 -0.2796
43464W        W86376   8.447  15.329  25.839 -0.0481 -0.1686 -0.0238
43465W        W86377  10.402  15.579  26.274  0.0988 -0.1120  0.1942
43466W        W86378   6.787  16.741  25.497 -0.0883  0.0397 -0.0858
43467W        W86379  11.069  15.988  24.244  0.1371 -0.3478 -0.2006
43468W        W86380   9.566  15.396  26.497 -0.4511  0.4737  0.0844
43469W        W86381   8.039  14.777  26.585 -0.0553  0.3246  0.3497
43470W        W86382   8.346  16.095  23.496 -0.1294  0.3267 -0.2533
43471W        W86383  12.166  16.980  27.065 -0.0732 -0.3618 -0.2132
43472W        W86384   8.964  15.092  21.164  0.2277  0.3542  0.1262
43473W        W86385  10.065  16.828  27.930 -0.0734 -0.1111 -0.1461
43474W        W86386   7.040  14.046  25.703  0.0003 -0.2047  0.1477
43475W        W86387  10.082  14.583  22.999  0.2899  0.2588  0.1278
43476W        W86388   7.370  16.447  25.027  0.1218  0.0062 -0.1167
43477W        W86389   9.116  16.888  27.053 -0.1861  0.0485 -0.3072
43478W        W86390   9.171  17.377  26.925  0.0151 -0.0629 -0.0274
43479W        W86391   6.951  15.141  24.617  0.0414  0.0091 -0.4020
43480W        W86392   9.927  18.225  23.294 -0.2417  0.2096  0.0467
43481W        W86393  10.329  15.096  26.708 -0.0175 -0.1972 -0.0036
43482W        W86394   8.872  18.929  23.587 -0.0188 -0.1560 -0.1670
43483W        W86395  10.871  16.243  23.870 -0.1142 -0.1873  0.0544
43484W        W86396   9.761  17.757  26.230  0.1293 -0.1961  0.0760
43485W        W86397   8.002  14.793  27.347 -0.2292  0.1216 -0.0136
43486W        W86398   9.875  17.325  25.773  0.1936 -0.1102 -0.4147
43487W        W86399  10.509  15.813  25.399 -0.2025 -0.0217 -0.1960
43488W        W86400   9.113  14.605  23.893  0.2856 -0.2324  0.0105
43489W        W86401   7.793  15.029  24.989  0.0240 -0.0078 -0.2363
43490W        W86402   7.131  17.525  24.365 -0.3520 -0.2293 -0.0408
43491W        W86403  11.620  15.597  27.155 -0.0001 -0.2230  0.0190
43492W        W86404  11.870  14.548  27.186  0.0854 -0.4088  0.3367
43493W        W86405   8.655  18.059  24.696  0.0266 -0.0496 -0.1672
43494W        W86406   9.252  14.941  26.956  0.0412  0.2519 -0.0873
43495W        W86407   9.143  17.398  26.427  0.1809 -0.1406 -0.0624
43496W        W86408   8.791  16.568  26.172 -0.0359  0.0808  0.1671
43497W        W86409   6.302  15.753  24.501 -0.1375 -0.1528  0.0021
43498W        W86410   8.360  16.896  27.240 -0.1471 -0.1718  0.0742
43499W        W86411   8.975  16.804  24.277 -0.3869  0.2738 -0.0335
43500W        W86412   8.410  17.202  24.825 -0.0499  0.0969 -0.0556
43501W        W86413   9.535  16.488  24.671  0.1960  0.3467  0.2200
43502W        W86414   8.900  14.599  24.446 -0.1773  0.1351 -0.0668
43503W        W86415  11.239  17.399  24.392 -0.0378  0.1166 -0.0701
43504W        W86416   8.804  14.387  25.829 -0.2054 -0.2854 -0.0364
43505W        W86417  10.181  16.015  24.236  0.1200  0.0522 -0.0531
43506W        W86418  10.067  14.780  24.710 -0.1553  0.2040  0.1087
43507W        W86419   7.893  15.779  28.090 -0.3315  0.0641 -0.0408
43508W        W86420   6.308  14.915  24.572  0.0519  0.6272  0.0880
43509W        W86421   7.475  16.798  22.956  0.1238 -0.0790  0.2940
43510W        W86422   7.905  16.012  27.576  0.0134 -0.1618  0.1666
43511W        W86423   9.975  13.819  28.331  0.0269 -0.1038  0.0241
43512W        W86424   8.098  15.376  28.310  0.1452 -0.0336 -0.3347
43513W        W86425   7.746  16.138  25.435 -0.3317 -0.1943 -0.3182
43514W        W86426   8.397  15.679  24.598  0.1949  0.3398  0.2352
43515W        W86427   9.690  18.810  22.499  0.1107 -0.1057  0.1759
43516W        W86428   7.625  14.441  26.448 -0.0846  0.1693 -0.3354
43517W        W86429   7.356  13.279  26.536 -0.2313  0.2669  0.3703
43518W        W86430   8.050  16.094  24.559  0.0654 -0.4028  0.1456
43519W        W86431  10.562  18.189  23.794  0.1323 -0.1748  0.0711
43520W        W86432   8.069  15.127  23.208 -0.2376  0.1422 -0.1058
43521W        W86433  10.141  19.543  26.824 -0.0113  0.0825  0.2792
43522W        W86434   6.915  16.820  23.039  0.5754  0.1975  0.1632
43523W        W86435  10.193  17.045  27.102  0.1348  0.0104  0.2324
43524W        W86436   7.790  14.176  27.765  0.2200 -0.0308  0.0525
43525W        W86437   6.737  15.668  24.771 -0.0348 -0.0323 -0.3255
43526W        W86438   8.871  14.671  25.337  0.2019  0.2424  0.3930
43527W        W86439   8.508  17.769  24.279 -0.0761  0.0686  0.1933
43528W        W86440  10.316  19.072  23.530 -0.2511  0.0970 -0.1508
43529W        W86441   8.841  15.832  27.591  0.0822 -0.0292 -0.2811
43530W        W86442   7.136  17.223  26.225 -0.1390 -0.0655 -0.2840
43531W        W86443   6.513  14.021  26.613 -0.0186 -0.0502  0.1459
43532W        W86444  10.099  16.569  24.521  0.0759  0.0829  0.3454
43533W        W86445   9.581  15.865  26.126  0.3697  0.2530  0.0240
43534W        W86446  10.421  17.613  22.801 -0.3086  0.0407 -0.0072
43535W        W86447  10.415  14.748  26.136 -0.3702  0.0475 -0.3230
43536W        W86448   9.725  16.941  24.885 -0.3839 -0.4246  0.2254
43537W        W86449   7.229  14.316  27.045  0.3316 -0.1321 -0.3154
43538W        W86450   7.673  16.725  27.193 -0.0846  0.1084 -0.4016
43539W        W86451  10.027  15.511  26.898 -0.1323 -0.1950  0.0252
43540W        W86452   7.416  15.106  25.727 -0.2797 -0.1985  0.1378
43541W        W86453  10.494  15.773  24.668  0.2377 -0.1595  0.0590
43542W        W86454   9.337  18.425  24.227 -0.0078  0.3868  0.2159
43543W        W86455   8.297  15.705  27.774  0.1158  0.2392  0.0148
43544W        W86456   9.282  14.236  24.209  0.0926  0.0190 -0.5108
43545W        W86457   8.741  16.077  26.577 -0.0277  0.0481 -0.2595
43546W        W86458   9.634  16.287  25.525 -0.2367 -0.1985 -0.1206
43547W        W86459  10.843  16.678  26.354 -0.1186 -0.0571 -0.0679
43548W        W86460   8.120  14.542  25.983 -0.1969 -0.2249 -0.0875
43549W        W86461  11.263  16.891  23.789 -0.0882  0.2155 -0.1327
43550W        W86462  11.348  17.178  25.678  0.1509  0.3652 -0.1959
43551W        W86463  11.764  17.749  26.262  0.0288  0.1509  0.0754
43552W        W86464   9.299  17.635  26.000  0.0423 -0.0030 -0.1455
43553W        W86465   9.544  18.093  25.713 -0.0118 -0.1217 -0.1943
43554W        W86466   7.820  13.515  26.164  0.2058 -0.1051 -0.0491
43555W        W86467   8.002  15.523  24.056  0.0824 -0.0055 -0.1801
43556W        W86468   8.154  16.464  25.604 -0.1546  0.2697 -0.1301
43557W        W86469   9.294  15.012  25.414 -0.2142  0.3777  0.1585
43558W        W86470   7.307  15.965  25.185 -0.4866  0.2130  0.0089
43559W        W86471   9.163  15.228  24.609  0.0246 -0.2289 -0.2176
43560W        W86472   9.380  17.202  27.377  0.4996  0.1972  0.0002
43561W        W86473   9.796  15.421  25.987  0.3506 -0.1563  0.0179
43562W        W86474   8.163  17.829  29.558 -0.3703  0.1167 -0.0369
43563W        W86475   8.771  15.095  28.867 -0.0157  0.2165  0.1147
43564W        W86476  10.982  14.154  27.084 -0.0533 -0.0247  0.1415
43565W        W86477  10.294  15.825  28.954 -0.2758  0.1513 -0.0607
43566W        W86478   7.491  15.006  29.072 -0.2571  0.1904 -0.0753
43567W        W86479  11.190  18.725  27.693 -0.1814 -0.2725 -0.0359
43568W        W86480   7.427  14.306  30.212 -0.1195  0.1596  0.1528
43569W        W86481   9.991  16.983  29.513  0.1278  0.2089  0.2823
43570W        W86482  10.697  16.686  29.421  0.1509 -0.2213  0.2447
43571W        W86483  10.445  16.554  25.969 -0.2079  0.1537 -0.0128
43572W        W86484   8.511  16.578  30.411  0.0767 -0.4938 -0.0343
43573W        W86485  10.721  17.739  29.406  0.1657  0.0240 -0.0988
43574W        W86486   7.988  14.898  29.261 -0.0967  0.0536 -0.1022
43575W        W86487   6.062  15.096  28.817  0.2010  0.5137  0.2636
43576W        W86488   9.757  14.475  29.206  0.1053 -0.1206  0.2065
43577W        W86489   7.670  17.134  30.038  0.1610  0.0805  0.1546
43578W        W86490   7.799  16.103  30.057 -0.0163  0.0309 -0.4217
43579W        W86491   7.871  15.172  28.728 -0.0854  0.1647  0.1120
43580W        W86492   9.761  18.751  28.803 -0.1169 -0.1133  0.1839
43581W        W86493   8.818  13.718  29.742 -0.2642 -0.0899  0.1613
43582W        W86494   9.496  13.323  30.031 -0.2461  0.1855 -0.2243
43583W        W86495   9.544  15.190  27.713  0.1371 -0.4598 -0.4141
43584W        W86496   7.185  15.991  27.834 -0.0506 -0.1611  0.2596
43585W        W86497   7.733  15.570  29.924  0.2806 -0.1160  0.0542
43586W        W86498   7.730  16.609  29.048 -0.1237  0.2184 -0.2499
43587W        W86499  10.238  15.327  28.333 -0.1474  0.1874  0.3313
43588W        W86500  10.836  15.834  28.835 -0.3616  0.1298  0.4109
43589W        W86501   9.806  17.720  29.663  0.3017  0.2926  0.1217
43590W        W86502  11.214  18.563  26.597  0.3526 -0.0403 -0.0349
43591W        W86503  10.167  14.245  30.391  0.0173  0.2425 -0.0537
43592W        W86504   9.183  17.943  28.068  0.0684 -0.0699 -0.0273
43593W        W86505   6.894  18.109  29.016 -0.0025  0.2271 -0.0414
43594W        W86506   8.447  18.716  28.954 -0.1355  0.1322  0.2507
43595W        W86507  12.856  18.008  28.380 -0.2170  0.0038 -0.3581
43596W        W86508  11.306  18.985  30.867 -0.1750 -0.0335  0.1634
43597W        W86509  10.119  18.876  30.119 -0.0976 -0.1601  0.0082
43598W        W86510   8.058  16.378  27.312  0.2128 -0.0534  0.0221
43599W        W86511  10.449  17.578  29.810 -0.2452  0.0248 -0.2127
43600W        W86512   9.315  18.351  29.638 -0.0896 -0.0750  0.0772
43601W        W86513   8.605  15.754  29.158  0.0371  0.3400  0.0137
43602W        W86514  11.086  15.363  28.143 -0.1667 -0.0712 -0.0441
43603W        W86515   8.892  17.245  27.316  0.1429 -0.0662  0.0025
43604W        W86516  10.066  16.570  28.746  0.1124 -0.1184  0.1841
43605W        W86517   9.536  16.512  30.319  0.2461 -0.1084 -0.0791
43606W        W86518   7.374  17.396  29.738 -0.1175 -0.1569 -0.0700
43607W        W86519  11.957  15.438  30.705  0.1501 -0.0181 -0.1976
43608W        W86520   8.209  16.690  27.728  0.1482 -0.0510  0.2561
43609W        W86521  10.980  16.173  28.387 -0.2610  0.1378 -0.2137
43610W        W86522   8.296  15.175  27.292  0.1248 -0.1519 -0.1576
43611W        W86523   9.906  14.787  27.634 -0.2294 -0.0314 -0.0770
43612W        W86524   8.646  16.640  29.392  0.2441 -0.3078 -0.0690
43613W        W86525   8.489  17.074  29.214 -0.1207  0.1138  0.0662
43614W        W86526   9.147  12.669  28.265 -0.0940 -0.0365  0.0585
43615W        W86527   9.260  17.306  30.526 -0.0300 -0.2152  0.2373
43616W        W86528   9.945  15.734  26.463 -0.2597 -0.0477 -0.2140
43617W        W86529  10.182  15.848  30.623 -0.1888  0.1400  0.0972
43618W        W86530   8.551  17.116  29.703 -0.0431  0.1447  0.0337
43619W        W86531   6.888  15.678  29.045  0.1805 -0.0241 -0.1216
43620W        W86532  11.014  18.308  27.898  0.0599  0.1425 -0.1447
43621W        W86533  10.695  17.240  29.265 -0.2785 -0.5537 -0.1219
43622W        W86534  10.455  18.023  26.773 -0.0480 -0.2073 -0.4375
43623W        W86535   8.600  15.262  28.423 -0.2158 -0.2173 -0.3781
43624W        W86536   6.934  17.557  30.537 -0.2950 -0.0461 -0.1664
43625W        W86537   7.646  14.919  31.302  0.0929 -0.0497  0.2865
43626W        W86538   9.226  13.820  29.361  0.1623  0.0621 -0.1042
43627W        W86539  10.287  17.206  30.737  0.2726  0.2293  0.0180
43628W        W86540   6.792  16.631  31.005 -0.0999 -0.1750  0.0704
43629W        W86541  11.566  16.077  29.408  0.2236 -0.2370 -0.0925
43630W        W86542   8.879  16.978  28.725 -0.1051 -0.2639 -0.1398
43631W        W86543  10.293  15.540  29.803 -0.0782  0.0118  0.1636
43632W        W86544  10.210  16.699  27.467  0.0251 -0.3509  0.2553
43633W        W86545  10.165  14.584  29.994  0.3015 -0.0206 -0.1263
43634W        W86546  10.245  14.345  30.939  0.2088 -0.2311  0.1116
43635W        W86547   8.467  15.735  28.307  0.0485  0.1344  0.0243
43636W        W86548   8.899  16.635  28.354 -0.0417  0.0521  0.1014
43637W        W86549  10.080  17.818  30.107 -0.2031  0.0401 -0.2683
43638W        W86550   9.791  15.153  27.280  0.1040 -0.0910  0.3605
43639W        W86551   7.917  18.625  30.533 -0.5066 -0.1057 -0.1407
43640W        W86552   7.378  14.727  29.850 -0.0547 -0.0220 -0.3895
43641W        W86553   8.432  17.940  31.163 -0.0548 -0.1194 -0.1120
43642W        W86554   6.568  16.924  28.687 -0.2268  0.2227  0.0438
43643W        W86555   8.867  16.238  30.180  0.3306  0.0349  0.0716
43644W        W86556   8.237  17.248  28.483 -0.0325 -0.2703  0.1654
43645W        W86557   6.199  13.440  29.468  0.1695  0.2426  0.0094
43646W        W86558   9.107  16.416  29.314 -0.0227  0.0205  0.1673
43647W        W86559  12.443  14.552  29.138 -0.0319  0.3349 -0.1970
43648W        W86560   8.106  15.314  29.529 -0.1395  0.0025  0.1365
43649W        W86561  11.656  14.715  28.686  0.0822 -0.0079 -0.0777
43650W        W86562   8.566  16.253  28.504  0.2385 -0.1969 -0.1688
43651W        W86563  10.477  17.138  27.545 -0.0184 -0.0374  0.0321
43652W        W86564  11.034  16.924  27.648 -0.2419  0.0312  0.0674
43653W        W86565   8.186  17.842  26.822  0.0177 -0.2189  0.2933
43654W        W86566   7.379  13.960  29.015 -0.0023 -0.0061 -0.1881
43655W        W86567   7.756  15.507  29.166 -0.1323  0.0268  0.0442
43656W        W86568   7.639  14.692  30.422 -0.0651 -0.1869 -0.2034
43657W        W86569   7.538  15.308  29.505  0.2391  0.1309 -0.2120
43658W        W86570  10.078  16.659  31.487 -0.0227 -0.0057 -0.0757
43659W        W86571   6.961  14.529  27.770  0.3049  0.2594 -0.2245
43660W        W86572   9.636  14.840  28.828 -0.3650  0.0333 -0.1506
43661W        W86573   8.999  15.096  29.391 -0.2841  0.0129  0.1940
43662W        W86574   8.146  16.164  30.460  0.1108  0.2246  0.1746
43663W        W86575  11.544  15.427  29.832  0.0932  0.0071  0.0702
43664W        W86576  10.629  17.643  26.374  0.2378  0.0117  0.0640
43665W        W86577  11.379  18.406  30.807  0.0257 -0.0083  0.1988
43666W        W86578  10.037  16.245  27.397  0.4925  0.1303 -0.0614
43667W        W86579   8.205  15.003  30.457  0.0265  0.0169 -0.0576
43668W        W86580   8.791  15.627  28.684 -0.1445 -0.1405 -0.0402
43669W        W86581   8.977  17.974  29.505 -0.2735  0.0523 -0.0472
43670W        W86582   9.503  18.061  29.323  0.0748 -0.0548  0.1804
43671W        W86583   9.678  14.617  28.104  0.2822 -0.2172  0.1408
43672W        W86584  10.442  18.147  28.617  0.0729  0.0985 -0.3612
43673W        W86585   9.498  17.035  26.708  0.0008  0.2185  0.0121
43674W        W86586   7.731  16.356  31.221 -0.2377 -0.0428 -0.0767
43675W        W86587   9.622  15.611  30.508  0.0684  0.1002  0.0589
43676W        W86588   9.854  16.282  29.820 -0.3526  0.0159  0.4644
43677W        W86589   9.401  15.267  28.894 -0.0951  0.1676  0.2056
43678W        W86590   8.198  15.806  29.466 -0.3089 -0.0087  0.2086
43679W        W86591  10.941  17.719  28.051 -0.0996 -0.0489 -0.1862
43680W        W86592   9.201  17.109  28.294  0.1772 -0.0676 -0.1722
43681W        W86593   8.137  16.853  29.567 -0.2545  0.1628 -0.2166
43682W        W86594   8.981  16.111  28.829  0.2740  0.1655 -0.3312
43683W        W86595  10.135  15.356  28.813  0.0527  0.2812 -0.1988
43684W        W86596   7.211  14.743  29.412  0.1244 -0.0353 -0.4490
43685W        W86597  10.076  14.903  29.059 -0.3404  0.3191  0.1461
43686W        W86598   7.823  15.693  28.706  0.1072 -0.1809  0.1634
43687W        W86599   7.685  18.211  30.766 -0.0796  0.1188 -0.0694
43688W        W86600   8.870  14.112  28.497  0.0965  0.3152  0.1389
43689W        W86601   9.524  16.264  27.333  0.0379 -0.3361  0.0084
43690W        W86602   8.992  15.409  29.987  0.0661  0.0889 -0.2079
43691W        W86603  10.744  17.193  27.070  0.1094 -0.1715 -0.0785
43692W        W86604   8.974  15.816  26.940 -0.1659 -0.0813 -0.2628
43693W        W86605   9.373  15.413  26.937  0.0477 -0.1261  0.0407
43694W        W86606   8.048  16.839  31.205  0.0412  0.0612 -0.4374
43695W        W86607  10.990  16.298  28.916  0.1607 -0.0754  0.2263
43696W        W86608   8.276  16.925  30.066  0.2057 -0.2993  0.4262
43697W        W86609  10.368  14.469  27.866  0.0491 -0.0272 -0.3144
43698W        W86610  12.044  17.764  27.035  0.1823  0.0658  0.4218
43699W        W86611   8.684  16.594  28.869 -0.1268  0.0326  0.0819
43700W        W86612  10.864  17.362  29.738 -0.3282  0.1346  0.3173
43701W        W86613   9.763  15.657  29.089  0.0905 -0.1832  0.0512
43702W        W86614   9.265  14.051  29.800 -0.1109 -0.0252  0.2238
43703W        W86615   9.339  15.486  28.309  0.3235  0.2643 -0.0939
43704W        W86616   9.279  14.567  28.570 -0.0219 -0.3330 -0.1804
43705W        W86617   6.870  17.556  27.586  0.0609 -0.1945 -0.0490
43706W        W86618  10.574  14.391  30.085 -0.2020  0.2177  0.0109
43707W        W86619   8.453  14.421  28.568  0.1105 -0.1283  0.1755
43708W        W86620   7.870  14.069  29.392  0.0946 -0.0014 -0.2462
43709W        W86621  10.458  15.646  31.547 -0.1218  0.1250 -0.1554
43710W        W86622  10.511  16.241  27.542 -0.1509 -0.2296  0.0788
43711W        W86623   9.688  15.099  28.393  0.1944 -0.1456 -0.2636
43712W        W86624   8.299  15.388  29.006  0.3344 -0.0257  0.1198
43713W        W86625   8.843  14.923  30.705 -0.0502 -0.2152  0.0202
43714W        W86626   8.702  16.679  29.991 -0.0587 -0.0668 -0.2877
43715W        W86627   8.698  18.244  30.193  0.1846 -0.0991  0.1739
43716W        W86628  11.462  16.859  29.849  0.1395  0.2572  0.2509
43717W        W86629  11.269  16.355  30.040  0.1182  0.3515 -0.2247
43718W        W86630   8.814  14.031  31.044  0.0244  0.1878  0.2297
43719W        W86631   8.981  14.111  28.038 -0.0733  0.3580 -0.1102
43720W        W86632   8.828  17.738  27.016  0.3295 -0.2382 -0.1021
43721W        W86633   9.142  15.123  28.506  0.1796  0.0862 -0.0307
43722W        W86634   9.459  13.683  28.529  0.0232  0.0342  0.0136
43723W        W86635  10.408  18.621  30.420  0.1320  0.2170  0.0678
43724W        W86636   8.194  17.906  27.735 -0.0553  0.2736  0.0271
43725W        W86637   9.505  15.978  29.448 -0.0985  0.1689  0.0109
43726W        W86638   9.592  17.937  28.367 -0.0127  0.3473 -0.1735
43727W        W86639  10.371  14.472  28.890  0.3929  0.2367 -0.2270
43728W        W86640   5.984  19.169  29.798  0.1136 -0.1585 -0.1357
43729W        W86641   7.725  15.042  27.732 -0.1600  0.0870  0.4050
43730W        W86642   8.010  16.092  29.008  0.4051 -0.0042 -0.1513
43731W        W86643   9.042  15.937  29.519  0.0072  0.0548 -0.2307
43732W        W86644  11.335  15.886  28.955  0.1220 -0.0667  0.1768
43733W        W86645   8.302  14.577  29.672 -0.0512 -0.2572  0.0201
43734W        W86646   7.653  16.667  29.862 -0.1061  0.0103  0.2221
43735W        W86647   7.288  17.405  31.570 -0.4642  0.0546  0.1570
43736W        W86648  10.065  16.270  30.447  0.0607 -0.1046 -0.1268
43737W        W86649  10.330  15.357  27.346 -0.0411  0.3910  0.1683
43738W        W86650   9.765  15.890  30.164 -0.4297 -0.1985 -0.0963
43739W        W86651   9.847  15.679  31.028  0.1527  0.0168  0.1854
43740W        W86652   7.832  14.821  28.308  0.0152  0.1783  0.3098
43741W        W86653  11.760  15.598  30.287  0.0572 -0.0299 -0.3178
43742W        W86654   7.387  15.958  28.511 -0.1964 -0.1052 -0.2464
43743W        W86655   7.687  17.738  29.776  0.2041 -0.0842 -0.2949
43744W        W86656   9.041  17.427  29.359 -0.0656  0.1687  0.1046
43745W        W86657   7.347  14.817  28.514 -0.0532  0.0439 -0.1667
43746W        W86658   8.462  16.575  28.087 -0.0704  0.1022  0.0803
43747W        W86659   8.337  15.978  29.975  0.0490  0.1241  0.0371
43748W        W86660   9.962  16.879  30.485 -0.2371  0.2048  0.1415
43749W        W86661   9.341  14.214  29.037 -0.1047  0.0997  0.1114
43750W        W86662   6.453  14.918  28.981 -0.2277  0.4018  0.2334
43751W        W86663   8.374  16.784  28.561  0.0935  0.2572  0.1712
43752W        W86664  10.017  17.304  29.934 -0.2502 -0.0918 -0.0715
43753W        W86665   9.440  14.993  29.730 -0.1357 -0.3072 -0.1623
43754W        W86666   9.292  17.972  30.481  0.3553  0.0706  0.1287
43755W        W86667   9.799  14.638  29.668  0.1221  0.1060 -0.0294
43756W        W86668  12.142  20.350  27.394 -0.0002 -0.2698 -0.0008
43757W        W86669   9.524  16.861  30.678 -0.0604  0.0155  0.2380
43758W        W86670   8.547  17.579  29.362 -0.1409 -0.0267 -0.1179
43759W        W86671   7.162  16.123  30.501 -0.2982 -0.2434 -0.0096
43760W        W86672   9.454  17.521  28.062 -0.1004 -0.3838 -0.2568
43761W        W86673   8.116  16.318  29.486 -0.3306  0.2830  0.1841
43762W        W86674   8.185  18.154  30.633  0.1059 -0.2976  0.1309
43763W        W86675   8.642  17.094  28.237 -0.1226  0.0198 -0.0938
43764W        W86676   7.859  17.492  29.349  0.2509  0.3520  0.0810
43765W        W86677  11.395  14.150  28.162 -0.0871  0.0238 -0.1919
43766W        W86678  10.781  17.951  27.569  0.0151 -0.0262 -0.2563
43767W        W86679  10.175  15.181  27.847  0.2164  0.1044  0.1888
43768W        W86680  11.128  14.979  31.357 -0.3144  0.0847 -0.1612
43769W        W86681   9.314  15.733  27.866 -0.1671  0.2360 -0.0115
43770W        W86682   9.892  15.734  31.540  0.1242  0.2563 -0.0333
43771W        W86683   6.709  13.706  29.311  0.0263 -0.1154 -0.0191
43772W        W86684  11.187  17.305  28.960 -0.1930  0.2352  0.1020
43773W        W86685   7.771  15.123  30.214  0.3015  0.1034 -0.0440
43774W        W86686  10.770  17.204  30.898 -0.0059  0.0674 -0.4625
43775W        W86687   9.300  15.852  29.975 -0.0470 -0.4139 -0.0682
43776W        W86688   8.517  13.391  26.981  0.0025  0.0506  0.0595
43777W        W86689   7.289  14.515  28.963 -0.1388 -0.1094 -0.1885
43778W        W86690   9.587  16.683  29.663  0.1369  0.0191  0.0250
43779W        W86691  11.585  17.454  28.651 -0.4734 -0.2108  0.2190
43780W        W86692   9.563  16.954  27.951  0.1060  0.0242  0.1432
43781W        W86693   9.628  15.016  29.288  0.1837  0.0708  0.0519
43782W        W86694   8.235  17.014  30.674  0.2242 -0.0199  0.1919
43783W        W86695   9.762  15.521  28.027 -0.1328 -0.1313 -0.2474
43784W        W86696  10.260  16.380  26.966  0.0238 -0.2357 -0.1940
43785W        W86697   9.356  17.517  29.764 -0.0684 -0.6470 -0.0021
43786W        W86698   7.785  14.923  29.712 -0.3039  0.1486  0.0657
43787W        W86699   9.143  15.669  29.106 -0.1795  0.2271  0.1286
43788W        W86700   9.188  14.813  28.992  0.0562 -0.2230  0.2251
43789W        W86701  10.508  15.053  30.005  0.3557 -0.1988  0.1602
43790W        W86702   9.264  14.608  30.496 -0.1114 -0.6174  0.2049
43791W        W86703   9.097  14.987  30.208  0.0342  0.1196 -0.0240
43792W        W86704   8.113  15.467  30.254 -0.0622 -0.0266  0.0342
43793W        W86705   9.330  17.255  28.986  0.1147 -0.0729 -0.2301
43794W        W86706  10.610  15.119  28.051 -0.0011 -0.1492 -0.0209
43795W        W86707   9.171  14.098  30.365 -0.3704 -0.2103  0.1425
43796W        W86708  10.594  16.641  28.817  0.2159  0.1740  0.0438
43797W        W86709   8.977  13.344  25.984  0.0568 -0.3967  0.1222
43798W        W86710   9.322  14.485  29.464 -0.1524  0.0980  0.1069
43799W        W86711   8.916  16.908  31.911  0.3172  0.1181 -0.1489
43800W        W86712   8.800  14.778  28.472  0.0557  0.0516 -0.2471
43801W        W86713  10.029  15.458  30.224  0.0217  0.1280 -0.1856
43802W        W86714   9.339  16.557  28.191 -0.4831  0.3463  0.2000
43803W        W86715  10.606  16.699  27.776  0.0675 -0.0703 -0.3679
43804W        W86716  10.610  15.553  27.812 -0.0553 -0.1143  0.0400
43805W        W86717   8.248  16.433  30.009  0.1957  0.2315 -0.0237
43806W        W86718   7.295  16.488  30.916  0.0299 -0.3771  0.1454
43807W        W86719   8.670  15.345  27.713 -0.0940 -0.1494  0.1370
43808W        W86720  10.655  15.093  27.104  0.1780  0.0782 -0.1603
43809W        W86721  10.806  17.140  28.688  0.0926  0.1996  0.2719
43810W        W86722  13.027  15.800  30.476 -0.2102 -0.0664  0.1872
43811W        W86723   7.390  14.070  27.495 -0.0141  0.1072 -0.1099
43812W        W86724   9.385  15.466  30.928 -0.0878  0.0165 -0.2443
43813W        W86725   7.971  18.233  27.447  0.0820 -0.0721  0.0008
43814W        W86726  10.576  15.372  29.043  0.3488  0.0846  0.4129
43815W        W86727   9.118  17.635  28.477  0.0444  0.1517 -0.1171
43816W        W86728   8.396  17.223  31.145  0.0769 -0.3203 -0.1184
43817W        W86729   9.817  16.490  28.286  0.0790  0.0449 -0.0341
43818W        W86730   8.250  15.064  29.931 -0.1098 -0.3274  0.1550
43819W        W86731  10.251  16.161  30.023 -0.1290  0.2118 -0.0078
43820W        W86732   8.586  15.333  29.646  0.1177 -0.1023  0.1945
43821W        W86733   9.522  15.381  30.029  0.0453  0.1029 -0.1331
43822W        W86734   9.291  15.510  29.608 -0.0966  0.2260 -0.0556
43823W        W86735   8.507  16.208  29.088 -0.0297  0.0666  0.0262
43824W        W86736  10.190  18.299  30.007  0.0290  0.1949 -0.1551
43825W        W86737  10.919  17.168  26.554  0.2224  0.0388 -0.0617
43826W        W86738   8.974  17.197  30.084 -0.1258  0.0150  0.0113
43827W        W86739   7.950  15.987  30.870 -0.0875  0.0304 -0.0355
43828W        W86740   7.529  15.488  31.058 -0.1953 -0.3170 -0.0476
43829W        W86741  10.423  16.491  28.265  0.0855 -0.0622 -0.1376
43830W        W86742   7.001  13.672  28.322 -0.1607 -0.1399  0.1047
43831W        W86743   9.799  16.647  27.138 -0.0479 -0.4151 -0.0895
43832W        W86744   7.503  17.833  31.174 -0.0608  0.0071 -0.0195
43833W        W86745   9.567  16.746  29.188 -0.0921  0.0246 -0.2798
43834W        W86746   9.831  17.071  27.496  0.3425 -0.0391 -0.0080
43835W        W86747   9.719  16.303  26.513  0.0448  0.1657 -0.0679
43836W        W86748   9.559  17.300  26.217 -0.0447 -0.0492 -0.1406
43837W        W86749   9.714  18.547  30.081  0.0473 -0.1356 -0.3924
43838W        W86750   8.927  16.514  26.705  0.0282 -0.5137  0.0660
43839W        W86751   8.637  17.998  28.291 -0.1972 -0.1455  0.2587
43840W        W86752   7.298  18.859  28.697  0.1551  0.0888 -0.1439
43841W        W86753  10.830  18.324  26.933  0.3902 -0.0242  0.1679
43842W        W86754   9.728  16.523  27.738 -0.0439 -0.1495 -0.2890
43843W        W86755  11.001  18.006  30.373 -0.0902  0.0847 -0.0707
43844W        W86756  11.063  14.809  27.369  0.1625  0.3152  0.1568
43845W        W86757  10.611  16.064  28.067  0.2940 -0.2722  0.2602
43846W        W86758  10.385  14.936  28.634 -0.1089  0.1788 -0.1536
43847W        W86759  11.156  17.580  30.725 -0.1039  0.2044  0.2247
43848W        W86760   7.751  15.973  29.430 -0.3636 -0.1685  0.0363
43849W        W86761   7.855  14.216  28.901  0.0442  0.2328  0.1196
43850W        W86762   7.935  16.710  30.355  0.2156  0.0239  0.1054
43851W        W86763  11.618  14.054  31.684 -0.0062  0.2170  0.1530
43852W        W86764   6.852  16.110  30.886  0.3764  0.1226  0.0801
43853W        W86765   9.347  18.582  28.552 -0.2702 -0.0609  0.0322
43854W        W86766   7.318  15.312  28.685  0.1180 -0.0433  0.1045
43855W        W86767   9.912  16.838  29.973 -0.1035  0.2854  0.1825
43856W        W86768  11.011  15.209  29.939 -0.0289 -0.0065  0.2266
43857W        W86769  10.417  17.065  26.457 -0.0900 -0.1688  0.0875
43858W        W86770  10.066  17.492  27.452  0.0144 -0.1409  0.2429
43859W        W86771   8.155  18.371  28.764 -0.2076 -0.1405 -0.2121
43860W        W86772   7.442  18.249  29.899 -0.1152  0.1571  0.2191
43861W        W86773   8.388  17.854  28.740 -0.0998  0.2315  0.0456
43862W        W86774   7.479  13.335  28.191 -0.1123  0.0786 -0.0815
43863W        W86775  12.445  15.460  28.823 -0.1027 -0.2986  0.1552
43864W        W86776   9.578  16.273  28.912 -0.0283 -0.0580 -0.1174
43865W        W86777   9.928  13.454  31.024 -0.2833 -0.2064 -0.0970
43866W        W86778  10.032  16.114  28.609  0.1150 -0.2214  0.2456
43867W        W86779  10.852  14.755  27.849  0.1015 -0.4011 -0.0510
43868W        W86780   9.777  15.551  29.661 -0.2952 -0.0173  0.1377
43869W        W86781   9.180  16.405  29.874  0.3161  0.2604  0.1400
43870W        W86782   9.377  15.791  27.270  0.0551  0.0178 -0.0154
43871W        W86783   9.262  18.409  30.175  0.0576  0.2162 -0.0142
43872W        W86784   8.698  14.485  28.106 -0.1141  0.1090  0.4513
43873W        W86785   9.524  17.159  30.076  0.4942 -0.0529 -0.0146
43874W        W86786   8.309  15.839  28.738 -0.1248 -0.0934 -0.3274
43875W        W86787   9.344  14.943  28.113 -0.0279  0.3153  0.1114
43876W        W86788   8.686  17.436  28.782 -0.0390 -0.1140 -0.0408
43877W        W86789   9.079  16.745  30.370 -0.2336  0.1521  0.0990
43878W        W86790  11.057  18.105   0.358 -0.3397 -0.3252  0.3692
43879W        W86791   7.123  14.024  27.906  0.1124 -0.1464  0.0947
43880W        W86792  11.138  16.812  28.983 -0.0119 -0.0722 -0.1560
43881W        W86793  10.475  15.265  30.439 -0.0606 -0.1251 -0.4466
43882W        W86794   7.463  16.633  26.765  0.2248 -0.0652  0.2082
43883W        W86795  10.152  16.280  27.870 -0.1080 -0.2629 -0.1772
43884W        W86796   9.044  16.906  29.224 -0.1423  0.1328  0.1484
43885W        W86797   6.899  15.351  30.210 -0.1594  0.0640 -0.0235
43886W        W86798   9.951  17.458  31.022 -0.2977 -0.0640  0.0513
43887W        W86799  10.178  17.820  28.366  0.0272 -0.1437 -0.1269
43888W        W86800  10.055  14.536  28.400 -0.2590 -0.1458  0.4675
43889W        W86801   7.478  16.437  28.633  0.1778 -0.0769  0.2543
43890W        W86802   8.434  18.273  29.313  0.0016 -0.3393 -0.1487
43891W        W86803  10.771  15.565  29.688  0.3106  0.0326 -0.1395
43892W        W86804  10.381  16.122  30.978  0.2766 -0.2310  0.0700
43893W        W86805   9.198  16.188  26.370 -0.1690  0.0753 -0.1030
43894W        W86806   9.106  15.409  30.454  0.0478 -0.3085 -0.0178
43895W        W86807   9.576  18.076  29.963  0.0512  0.3445 -0.1787
43896W        W86808   9.245  19.484  30.917 -0.0440 -0.0435 -0.0306
43897W        W86809   8.030  16.339  28.529 -0.0447 -0.1474  0.2739
43898W        W86810   8.672  16.234  29.718  0.2467 -0.0073  0.1360
43899W        W86811   9.087  16.893  29.729 -0.0698 -0.1321 -0.1955
43900W        W86812   9.198  16.579  28.853 -0.1608 -0.0795 -0.2285
43901W        W86813  11.744  16.415  29.800  0.1639  0.0068 -0.0590
43902W        W86814   8.339  14.901  28.246 -0.0520 -0.3265  0.1035
43903W        W86815  11.177  16.503  29.438  0.0067 -0.1903  0.2521
43904W        W86816   7.368  15.781  29.118 -0.0791  0.0877  0.4481
43905W        W86817  11.343  14.889  29.082 -0.0706 -0.2870  0.3206
43906W        W86818  11.003  15.327  28.861 -0.2782  0.3778  0.0228
43907W        W86819   7.689  15.818  30.449  0.1993 -0.2664  0.1926
43908W        W86820   7.770  16.658  28.160 -0.2053  0.1505 -0.0618
43909W        W86821   8.659  16.130  27.987 -0.0965  0.0225 -0.0367
43910W        W86822   8.167  16.974  28.112 -0.1753  0.1112 -0.1268
43911W        W86823   8.430  14.850  31.041  0.2598 -0.3022 -0.0387
43912W        W86824   8.074  16.356   0.086  0.3794  0.3120  0.1932
43913W        W86825   7.214  16.352  29.951 -0.0327  0.1434  0.1672
43914W        W86826   7.177  14.129  28.454  0.1030 -0.1153 -0.0187
43915W        W86827  11.091  17.997  25.968 -0.0953 -0.0549  0.2141
43916W        W86828   8.670  14.732  30.094  0.0081 -0.0939  0.0320
43917W        W86829   6.667  14.404  28.123  0.2916  0.3550 -0.1733
43918W        W86830   9.990  16.283  29.179  0.2510 -0.2311 -0.2349
43919W        W86831  12.030  17.699  25.847  0.0168  0.0705 -0.0532
43920W        W86832   7.416  13.785  29.600 -0.1255 -0.1675  0.4172
43921W        W86833  11.534  16.767  29.349  0.0356 -0.0401  0.2029
43922W        W86834   7.332  15.892  29.636  0.0832  0.1134 -0.1211
43923W        W86835   8.709  15.752  30.244 -0.0945  0.3021  0.1091
43924W        W86836   7.911  15.438  30.723 -0.0674 -0.6540  0.1250
43925W        W86837   7.835  14.716  28.808  0.0209  0.0927 -0.1625
43926W        W86838   9.553  17.651  30.208  0.0614  0.1168  0.1263
43927W        W86839   9.025  16.000  28.364  0.1337  0.1384  0.1851
43928W        W86840  10.343  18.604  26.951  0.1526 -0.0231 -0.3054
43929W        W86841   9.055  16.336  30.743 -0.1896  0.0524  0.5013
43930W        W86842   8.535  18.383  30.899 -0.3577 -0.1775  0.3605
43931W        W86843   6.454  14.661  30.056 -0.0711  0.1418 -0.0451
43932W        W86844  10.717  16.687  27.324  0.3239 -0.1307  0.1769
43933W        W86845  10.647  18.018  29.863  0.1498  0.3048 -0.1469
43934W        W86846  11.180  16.450  27.385  0.1425 -0.0411 -0.1336
43935W        W86847  10.522  13.756  30.283 -0.1535 -0.0976  0.0820
43936W        W86848   9.813  15.586  28.508  0.1953 -0.1272 -0.3265
43937W        W86849   7.655  13.422  29.246  0.0472  0.1046 -0.1148
43938W        W86850   8.250  17.072  31.598 -0.0231  0.2279  0.1234
43939W        W86851  10.345  17.068  30.243  0.1568  0.1199 -0.1343
43940W        W86852   6.841  15.717  27.402 -0.0755  0.0940 -0.0786
43941W        W86853  10.493  15.167  29.511  0.0555  0.1472 -0.1617
43942W        W86854   9.516  16.858  28.602  0.0437  0.2832  0.0173
43943W        W86855   8.120  16.211  28.033 -0.0914 -0.1747  0.1003
43944W        W86856   8.511  17.052  27.701  0.0968  0.4288 -0.0601
43945W        W86857   9.645  15.211  31.285 -0.3560  0.1783  0.2075
43946W        W86858  10.553  16.274  29.181  0.0993 -0.1290 -0.0424
43947W        W86859  10.673  17.236   0.074  0.0384  0.1962 -0.2116
43948W        W86860   8.998  16.229  27.201  0.0417  0.0245 -0.0120
43949W        W86861  10.975  16.288  25.981  0.0468 -0.1945  0.0135
43950W        W86862  11.517  19.185  28.762  0.0381  0.2014  0.1412
43951W        W86863  10.149  17.609   0.943 -0.3614  0.2791  0.0817
43952W        W86864  10.410  17.532  30.374  0.0878  0.1498  0.0926
43953W        W86865   9.675  16.066  30.745  0.2292  0.0378  0.2517
43954W        W86866   6.880  13.864  28.861  0.0155 -0.0503  0.1166
43955W        W86867   9.222  16.221  27.826 -0.1882 -0.1972 -0.0974
43956W        W86868   8.234  17.441  28.990 -0.0082  0.2526 -0.0907
43957W        W86869  10.084  15.369  29.306 -0.1099 -0.0095 -0.0986
43958W        W86870   8.545  16.260  27.430 -0.2131  0.3421 -0.2406
43959W        W86871   9.376  14.291  27.761  0.1844 -0.0802 -0.0748
43960W        W86872   8.585  19.125  30.756  0.2508  0.1961 -0.0832
43961W        W86873  10.136  15.827  29.443 -0.1080 -0.3980  0.1712
43962W        W86874  11.599  16.969  31.664 -0.2710 -0.0170  0.2959
43963W        W86875   9.793  17.321  30.517 -0.1252  0.0142  0.0983
43964W        W86876   9.255  15.917  30.470  0.0696 -0.0264 -0.0264
43965W        W86877   7.634  16.826  30.803 -0.1014 -0.0912  0.0918
43966W        W86878   8.841  17.294  31.355 -0.2170 -0.0690  0.2629
43967W        W86879   7.886  17.344  31.246 -0.1164  0.0390 -0.0678
43968W        W86880  12.012  16.210  30.164  0.1031  0.0796  0.2035
43969W        W86881   6.943  14.365  31.103  0.0251  0.1939 -0.0995
43970W        W86882  10.799  15.791  31.210  0.1117  0.0349 -0.0805
43971W        W86883  10.963  16.776  29.900 -0.2215  0.2303 -0.0904
43972W        W86884   8.929  16.974  30.947 -0.2133 -0.0329  0.1211
43973W        W86885   7.087  13.180  31.029  0.3348 -0.1831 -0.0010
43974W        W86886   8.955  15.846  30.871 -0.0045  0.0529  0.1000
43975W        W86887   8.603  16.159  30.712 -0.0745 -0.1326 -0.3453
43976W        W86888  10.801  16.728   0.057 -0.0355  0.1937 -0.0439
43977W        W86889  10.497  18.092  30.374 -0.4149 -0.0489 -0.0239
43978W        W86890   6.937  17.770  31.858 -0.2237 -0.0975  0.0648
43979W        W86891  11.407  17.334  29.825  0.2701 -0.2657 -0.1853
43980W        W86892   8.849  15.053   0.097  0.0421  0.0548 -0.2273
43981W        W86893   8.837  15.369  31.039  0.0704  0.1172 -0.1770
43982W        W86894   7.822  15.823  31.336 -0.1172  0.2938  0.5191
43983W        W86895   6.454  17.013  31.793 -0.1289  0.1549  0.0276
43984W        W86896  11.132  14.583   0.250 -0.0895  0.1856 -0.0570
43985W        W86897  10.977  15.354  30.470  0.2248  0.1987 -0.0717
43986W        W86898   7.856  14.314  30.823  0.2229 -0.0663  0.0100
43987W        W86899   9.588  16.584  31.464 -0.1882 -0.0427  0.1032
43988W        W86900   9.888  17.580  31.460  0.0343  0.2064  0.1896
43989W        W86901   6.321  18.725  31.339  0.2127  0.3297  0.2947
43990W        W86902   7.454  15.335  30.474 -0.2080  0.0928 -0.0823
43991W        W86903  10.538  17.858  31.728 -0.1792 -0.1215  0.2353
43992W        W86904   9.427  17.287  31.049 -0.0826 -0.0777  0.0037
43993W        W86905   8.407  16.723  31.953 -0.4751 -0.0783 -0.0238
43994W        W86906  11.200  17.828  31.454 -0.1052 -0.0405  0.4313
43995W        W86907   9.955  16.567  30.880  0.1540 -0.3612 -0.1983
43996W        W86908   8.657  15.030  31.569  0.0083  0.0459 -0.0442
43997W        W86909   6.479  16.966  31.296 -0.2308  0.1624  0.1965
43998W        W86910   8.550  16.647  30.937  0.1705  0.1106  0.1335
43999W        W86911   7.533  16.828   0.278 -0.1390  0.0268  0.0139
44000W        W86912  10.671  17.577   0.674 -0.1013  0.4362 -0.0139
44001W        W86913  11.160  17.175  31.979 -0.2407  0.3387 -0.1314
44002W        W86914  11.202  15.451  31.076 -0.2108  0.0824 -0.0132
44003W        W86915  10.389  16.427  31.908  0.0703  0.0199  0.1134
44004W        W86916   8.347  15.409  31.085  0.0987  0.2046 -0.2945
44005W        W86917   9.547  18.504  31.298 -0.2646 -0.2713 -0.2808
44006W        W86918   8.008  13.909  31.132 -0.0720  0.1573 -0.1502
44007W        W86919   9.352  16.076  31.150  0.2430  0.0564 -0.3743
44008W        W86920   8.094  14.848   0.315 -0.0317 -0.1078  0.2630
44009W        W86921   8.076  16.539  30.791  0.1066  0.0699 -0.1626
44010W        W86922  10.752  17.056  30.479 -0.1412 -0.2428 -0.0189
44011W        W86923   6.814  17.321  31.633 -0.0973  0.2644 -0.0926
44012W        W86924  10.125  17.838  30.691 -0.1194  0.0472 -0.0195
44013W        W86925   8.609  14.540  31.434 -0.0173 -0.3655  0.2021
44014W        W86926   9.386  15.636  31.368  0.1053  0.0138  0.1435
44015W        W86927   7.743  16.131  31.716 -0.0876 -0.1478 -0.0220
44016W        W86928   8.633  15.189  30.260  0.0033  0.0064 -0.0937
44017W        W86929   9.247  14.563  30.006 -0.1483 -0.2307 -0.0026
44018W        W86930  11.801  18.517  30.011  0.1359 -0.4473  0.0913
44019W        W86931   8.930  17.831  31.397  0.1308 -0.1356 -0.4625
44020W        W86932   8.678  17.053  30.479 -0.1816  0.3134  0.3036
44021W        W86933   6.582  16.298  31.328 -0.0175 -0.2217 -0.0163
44022W        W86934   8.621  15.640  31.474 -0.3547  0.0554  0.0320
44023W        W86935   9.790  18.149  30.419 -0.0420 -0.3863 -0.1408
44024W        W86936   8.484  16.246  31.672 -0.0885  0.1707  0.1857
44025W        W86937   7.161  13.518  29.186  0.0416 -0.0064 -0.0119
44026W        W86938  10.133  18.333  30.731 -0.0142  0.0154  0.3316
44027W        W86939  10.495  16.616  30.088  0.3300 -0.0874  0.1546
44028W        W86940  11.903  17.734   0.137 -0.2295  0.0836 -0.2653
44029W        W86941   7.773  20.475  20.397  0.0077 -0.4032  0.1234
44030W        W86942   8.400  19.862  17.660 -0.0049 -0.2194 -0.2866
44031W        W86943   8.916  20.690  15.379 -0.1147 -0.2555  0.1294
44032W        W86944  11.660  20.787  16.843 -0.1170  0.1065  0.0465
44033W        W86945   7.639  19.724  17.650  0.1848  0.0517 -0.2963
44034W        W86946   9.799  21.678  17.635 -0.1316  0.2205  0.2565
44035W        W86947   7.691  18.558  20.149 -0.0069  0.1658  0.1007
44036W        W86948   9.158  21.820  18.265 -0.2964  0.0786 -0.0045
44037W        W86949  10.016  21.135  17.775 -0.1337  0.0491  0.0456
44038W        W86950   9.045  21.249  16.160 -0.2490 -0.1165  0.3039
44039W        W86951   8.836  19.589  18.790  0.3446  0.2678  0.0025
44040W        W86952   8.879  21.372  18.554 -0.1735  0.4119  0.1545
44041W        W86953   7.045  20.007  16.968  0.0086 -0.1904  0.1623
44042W        W86954   6.971  18.855  18.965 -0.1110 -0.0445 -0.2805
44043W        W86955  10.204  19.659  17.556 -0.0421 -0.1099  0.3058
44044W        W86956   7.193  22.213  16.212  0.3226 -0.4096  0.1862
44045W        W86957   6.427  18.990  18.977  0.3083  0.0809  0.0514
44046W        W86958   8.265  20.135  16.250 -0.1767  0.0540 -0.1263
44047W        W86959   8.791  21.825  16.844 -0.0610 -0.0715 -0.0177
44048W        W86960   7.879  19.077  18.426  0.0580 -0.2564 -0.2200
44049W        W86961   8.827  19.015  19.288  0.2831 -0.3750  0.1741
44050W        W86962   8.446  21.967  16.072 -0.0575 -0.3636  0.1671
44051W        W86963   6.906  18.665  17.264 -0.1472  0.0450  0.1656
44052W        W86964   8.674  20.485  19.341  0.0545  0.1087  0.3188
44053W        W86965   9.983  20.176  19.523  0.0733 -0.1009  0.1150
44054W        W86966   9.987  20.632  17.484 -0.1299  0.2204 -0.0830
44055W        W86967  10.402  19.904  19.600 -0.2324  0.2116 -0.2332
44056W        W86968   7.760  21.046  17.608 -0.0360 -0.1040 -0.0953
44057W        W86969   8.687  20.744  17.371 -0.0558 -0.1235  0.1255
44058W        W86970  10.075  20.764  19.268 -0.1013 -0.3286  0.1195
44059W        W86971   7.139  20.621  17.377  0.0364  0.2514 -0.0146
44060W        W86972   7.053  21.350  18.276 -0.0744 -0.0583  0.0120
44061W        W86973   8.599  21.086  16.391 -0.1414  0.1061 -0.3529
44062W        W86974  11.996  20.836  17.232 -0.1830 -0.0700 -0.1676
44063W        W86975  10.451  22.389  18.423  0.0116 -0.0708 -0.0067
44064W        W86976   9.341  22.222  19.104  0.2394 -0.2252  0.1212
44065W        W86977   7.869  21.533  16.733 -0.1257 -0.3547  0.2721
44066W        W86978  10.900  22.470  19.645 -0.0671  0.2066 -0.0296
44067W        W86979   7.341  20.910  19.157  0.1049 -0.4127  0.1091
44068W        W86980   8.213  20.159  19.511  0.0548  0.3689 -0.0417
44069W        W86981   7.588  19.911  16.925  0.0282  0.3473  0.0918
44070W        W86982   9.045  23.201  16.804  0.0342  0.1833 -0.0529
44071W        W86983   9.650  19.930  17.570 -0.1044 -0.0354 -0.2893
44072W        W86984   6.949  20.452  20.017  0.1186  0.3574  0.1480
44073W        W86985   6.416  19.924  17.766 -0.3792  0.1647  0.1809
44074W        W86986  10.345  19.465  18.750  0.4203  0.2837 -0.0229
44075W        W86987   7.824  22.163  16.701 -0.1729 -0.2456  0.0776
44076W        W86988  10.138  20.041  15.512  0.1708  0.1294  0.3607
44077W        W86989   8.732  19.550  17.864 -0.1532 -0.0208  0.0803
44078W        W86990   9.832  20.235  15.921 -0.0132  0.1125  0.0448
44079W        W86991   7.997  18.396  17.420 -0.0962  0.0577  0.1367
44080W        W86992   6.127  21.830  16.891  0.1111 -0.2439 -0.1220
44081W        W86993   8.580  19.296  17.496 -0.2386 -0.0782 -0.1164
44082W        W86994  10.929  23.163  19.665  0.1458 -0.1051  0.0999
44083W        W86995   8.588  20.435  16.540  0.1941  0.1655 -0.3725
44084W        W86996   9.338  19.576  17.765  0.0088  0.1066 -0.1856
44085W        W86997   7.253  20.623  19.579 -0.0120  0.1071  0.1640
44086W        W86998   7.444  19.430  18.441 -0.2236 -0.0352 -0.0499
44087W        W86999  10.332  22.383  16.600 -0.0646  0.3209 -0.1545
44088W        W87000  10.309  22.071  16.205 -0.0251  0.0997 -0.2988
44089W        W87001  10.535  21.949  16.746  0.0264 -0.1579  0.1017
44090W        W87002   8.162  19.560  16.786 -0.1227  0.2870  0.0399
44091W        W87003   8.048  21.130  19.043 -0.1832 -0.1406 -0.0113
44092W        W87004   6.629  19.816  19.749  0.0447  0.0222 -0.0098
44093W        W87005   8.717  19.597  15.863  0.0950  0.1144 -0.0431
44094W        W87006  11.084  20.505  19.638  0.2700 -0.0666 -0.1822
44095W        W87007   7.303  21.341  19.619 -0.3463 -0.0077  0.0023
44096W        W87008  10.903  20.854  17.266  0.0822  0.0526  0.2643
44097W        W87009   9.145  20.717  17.984 -0.0241 -0.0254  0.4811
44098W        W87010  10.061  21.561  18.038  0.0942 -0.0526 -0.1770
44099W        W87011   8.893  20.837  15.853 -0.0295 -0.0024  0.1963
44100W        W87012   8.923  19.675  17.438 -0.4685  0.0430  0.1228
44101W        W87013   8.832  18.713  20.416  0.0013  0.0045 -0.2775
44102W        W87014   7.446  19.882  15.991 -0.2131 -0.1323  0.2805
44103W        W87015   8.535  21.311  15.948  0.2299 -0.1938 -0.0610
44104W        W87016  11.349  22.238  18.702  0.0645 -0.1511  0.2315
44105W        W87017   9.626  20.360  16.334  0.1390  0.0177  0.2507
44106W        W87018   6.819  22.276  17.149 -0.1373 -0.0019 -0.2586
44107W        W87019   7.486  19.623  19.232 -0.1307  0.2058 -0.2772
44108W        W87020   8.407  19.881  20.479 -0.1769 -0.3219  0.0114
44109W        W87021   9.139  22.685  16.938 -0.0264 -0.1159  0.0669
44110W        W87022   7.837  20.140  18.713  0.1005  0.2276 -0.0905
44111W        W87023   7.160  20.042  18.586 -0.2645 -0.3676 -0.2729
44112W        W87024   7.447  18.775  19.767 -0.0143 -0.2880  0.0648
44113W        W87025   8.660  20.713  17.894 -0.0156  0.0918  0.0790
44114W        W87026  10.017  18.910  18.077 -0.2796 -0.0338  0.0903
44115W        W87027   7.591  18.809  18.693 -0.1396 -0.3459 -0.1898
44116W        W87028   8.477  19.340  19.152  0.0398  0.0940  0.1298
44117W        W87029   9.056  19.783  16.711 -0.0050  0.1286  0.0494
44118W        W87030  10.809  21.684  15.662  0.1386 -0.2189 -0.3378
44119W        W87031   9.841  19.409  16.929 -0.0509 -0.2220  0.0625
44120W        W87032   9.668  21.290  16.148  0.0248 -0.0571  0.0767
44121W        W87033   7.534  20.123  19.547 -0.0161 -0.0704 -0.1932
44122W        W87034   7.354  18.655  17.029 -0.1770  0.1105 -0.3224
44123W        W87035   8.176  18.688  20.322  0.0102  0.1585  0.1389
44124W        W87036   6.721  19.106  18.561 -0.1475 -0.0383  0.1987
44125W        W87037   9.322  21.200  18.419  0.0786  0.0387 -0.0128
44126W        W87038   8.154  19.917  15.801 -0.3767  0.1378  0.0544
44127W        W87039   8.949  19.073  18.775  0.2351  0.0986  0.1557
44128W        W87040   7.718  20.263  16.507 -0.0983  0.1683  0.1032
44129W        W87041   7.220  21.295  16.187  0.0147 -0.1071 -0.1487
44130W        W87042   8.533  18.986  20.087 -0.1451 -0.0081  0.1376
44131W        W87043   8.894  21.638  17.332  0.1083 -0.3447 -0.2266
44132W        W87044  10.775  21.381  18.177 -0.0463 -0.0217  0.4273
44133W        W87045  10.943  21.969  17.056  0.1275 -0.3037 -0.3393
44134W        W87046   8.230  19.368  19.862  0.1424  0.1816  0.1553
44135W        W87047   7.830  18.528  16.997  0.3451  0.0014 -0.2612
44136W        W87048   7.573  20.959  18.703 -0.0918 -0.0107  0.0227
44137W        W87049   9.166  20.359  18.293  0.2215  0.1070 -0.3105
44138W        W87050   7.778  19.109  16.932  0.3030 -0.1940 -0.1722
44139W        W87051  11.296  22.129  17.954  0.1747  0.0275  0.0555
44140W        W87052   8.410  20.306  17.066  0.0986 -0.0153 -0.0411
44141W        W87053   7.722  21.557  19.615 -0.1037  0.2323  0.0878
44142W        W87054  10.060  18.828  19.426  0.0179  0.3981 -0.2333
44143W        W87055  10.497  21.822  19.673 -0.1501 -0.0086  0.0308
44144W        W87056   9.580  20.818  18.236  0.2402  0.0510  0.0621
44145W        W87057   7.336  19.437  16.804  0.0115 -0.2239 -0.0775
44146W        W87058  10.688  21.007  17.821  0.3287  0.1664  0.2545
44147W        W87059   8.077  22.827  17.568  0.1740  0.3602  0.1944
44148W        W87060   7.588  19.749  18.772 -0.1544  0.0163 -0.1342
44149W        W87061   7.723  20.729  16.651 -0.2839  0.1288 -0.3585
44150W        W87062  10.019  19.896  17.078  0.1673  0.2890  0.4015
44151W        W87063   9.225  21.662  19.901  0.1436 -0.1329 -0.3144
44152W        W87064   8.639  18.510  19.451  0.0567 -0.2163  0.2263
44153W        W87065   6.826  21.791  16.225  0.1279 -0.1184  0.0274
44154W        W87066   8.139  20.662  19.271  0.1756 -0.1589  0.0026
44155W        W87067  10.263  19.679  16.640 -0.1962  0.0633 -0.2130
44156W        W87068  10.942  19.162  16.876 -0.1482 -0.0901 -0.1383
44157W        W87069   8.657  21.300  19.675 -0.0674  0.0484  0.3529
44158W        W87070  10.566  21.095  16.915 -0.0597 -0.2187 -0.1094
44159W        W87071  11.390  19.274  16.494 -0.0693 -0.1493 -0.0940
44160W        W87072  10.328  19.349  16.074 -0.1195 -0.0740 -0.2018
44161W        W87073   7.556  21.030  20.134  0.0654  0.3882 -0.0604
44162W        W87074   9.168  20.070  17.665  0.2977  0.1193 -0.0285
44163W        W87075   8.197  21.115  17.892  0.0138 -0.1818 -0.0323
44164W        W87076   9.749  18.994  16.663 -0.2993  0.1833  0.2455
44165W        W87077  11.213  21.780  17.521 -0.0082  0.0001  0.1593
44166W        W87078   6.911  21.134  19.397  0.0527 -0.1138 -0.0742
44167W        W87079  11.059  22.634  17.930 -0.1931 -0.1022 -0.1987
44168W        W87080   9.525  21.177  17.848  0.1711 -0.0169 -0.1254
44169W        W87081   7.979  19.610  18.454 -0.0922 -0.0676 -0.1463
44170W        W87082   7.850  20.381  17.063  0.2497  0.0199  0.0059
44171W        W87083   9.545  19.115  18.004 -0.1416 -0.2260 -0.4089
44172W        W87084   6.018  22.312  16.118  0.1101  0.0177 -0.3886
44173W        W87085   9.791  19.440  18.361  0.0962  0.2832  0.1857
44174W        W87086   8.356  18.913  19.465  0.3109  0.1557  0.1536
44175W        W87087   7.918  18.055  19.411 -0.4307 -0.1234  0.2067
44176W        W87088   9.466  19.648  19.502  0.0716 -0.4172 -0.1071
44177W        W87089   9.160  20.546  17.497 -0.0166 -0.0022 -0.0127
44178W        W87090  11.029  21.880  18.356  0.0117  0.0772  0.0159
44179W        W87091   6.868  19.527  16.645 -0.1404  0.2098 -0.0775
44180W        W87092   7.597  18.420  17.835 -0.1008 -0.1264  0.2686
44181W        W87093   9.024  20.699  19.771 -0.2566  0.0780 -0.1010
44182W        W87094   7.354  22.275  18.283 -0.0132  0.3027 -0.0364
44183W        W87095   9.520  22.869  19.351 -0.2186  0.3225 -0.0243
44184W        W87096  10.388  20.561  17.189  0.0104  0.0332  0.1124
44185W        W87097   7.834  19.692  19.740  0.0447  0.1577 -0.1097
44186W        W87098  10.485  18.466  17.133  0.1502  0.2644  0.1580
44187W        W87099   9.292  22.226  16.257 -0.2382  0.0276  0.2925
44188W        W87100   8.492  19.779  17.194  0.0164  0.2137 -0.0463
44189W        W87101   7.765  18.908  17.840 -0.5259  0.1356  0.0568
44190W        W87102   7.407  21.727  17.491  0.0608  0.1635 -0.0472
44191W        W87103   9.314  21.673  16.968  0.2731 -0.1541  0.0598
44192W        W87104   8.090  22.406  19.020 -0.0283  0.3059  0.1244
44193W        W87105   8.624  21.561  16.421  0.0173 -0.1311 -0.0522
44194W        W87106   9.749  18.991  18.528  0.1261  0.0605  0.1023
44195W        W87107   7.472  22.348  19.016  0.1089  0.2395 -0.2221
44196W        W87108   6.041  20.934  18.138 -0.1074  0.0824  0.2986
44197W        W87109   6.665  20.949  16.282  0.2062 -0.1825  0.1230
44198W        W87110   9.989  18.462  17.829  0.0088  0.0344  0.0249
44199W        W87111  10.231  21.282  16.101  0.3242  0.1723 -0.2353
44200W        W87112   6.484  20.350  19.805  0.1030 -0.0785  0.1698
44201W        W87113   9.450  20.037  18.068 -0.3366 -0.0937  0.0940
44202W        W87114   7.941  21.589  18.747  0.1032  0.0421 -0.1518
44203W        W87115  10.116  20.483  17.919 -0.0259 -0.0120 -0.3526
44204W        W87116  10.634  18.778  16.606  0.1275  0.1341 -0.1770
44205W        W87117   9.072  20.897  16.900 -0.2420  0.1322  0.3164
44206W        W87118   9.473  20.341  18.750  0.4245  0.2492  0.3233
44207W        W87119   6.088  18.979  16.806  0.0566  0.1130 -0.1078
44208W        W87120  10.551  20.600  18.830 -0.1222 -0.0978  0.1594
44209W        W87121   7.261  20.391  18.269 -0.0617 -0.0587  0.0787
44210W        W87122   7.622  20.877  17.158  0.0133 -0.1921  0.1398
44211W        W87123   9.026  19.708  18.301  0.1975 -0.1454 -0.0397
44212W        W87124   7.369  22.329  17.296 -0.1471  0.2540  0.1718
44213W        W87125   7.686  21.879  17.071 -0.1126  0.4564  0.3159
44214W        W87126   9.170  18.657  19.073  0.0997  0.1092 -0.1207
44215W        W87127  10.571  20.534  17.697  0.0235  0.1321 -0.2171
44216W        W87128   9.206  19.931  18.973  0.1092  0.0348 -0.1216
44217W        W87129   6.176  20.711  17.160  0.2848 -0.0685  0.1677
44218W        W87130   9.308  19.371  18.557  0.2787 -0.0735  0.0471
44219W        W87131  10.085  21.133  18.905  0.1749  0.3102  0.2361
44220W        W87132   7.944  20.676  17.917  0.2401 -0.1773  0.2565
44221W        W87133   8.770  22.245  19.253  0.0321 -0.0246 -0.3801
44222W        W87134   8.157  17.209  18.629  0.2025 -0.0696  0.1938
44223W        W87135  11.119  21.348  16.412  0.2213  0.0588 -0.0086
44224W        W87136   9.648  21.264  18.816 -0.2626 -0.0547 -0.0966
44225W        W87137   6.456  20.289  16.260 -0.0298  0.1429  0.4013
44226W        W87138   6.853  19.629  18.455  0.2372 -0.2401 -0.1453
44227W        W87139   8.141  21.658  16.225 -0.1618 -0.1233  0.2009
44228W        W87140   8.198  18.484  19.213  0.0289 -0.0375  0.2586
44229W        W87141   7.708  20.411  19.203 -0.0110  0.2643  0.1014
44230W        W87142   7.669  21.413  16.274 -0.1288 -0.0821  0.0788
44231W        W87143   6.905  20.965  18.748  0.1408  0.1887 -0.1336
44232W        W87144  10.677  18.826  16.070  0.0018 -0.0168  0.3037
44233W        W87145   9.552  21.940  16.560 -0.5226  0.2142 -0.0925
44234W        W87146   9.553  19.812  16.971  0.2880 -0.2493  0.1491
44235W        W87147   9.991  19.185  18.904  0.2767 -0.0047 -0.0187
44236W        W87148   9.350  21.127  16.480 -0.0046  0.1787  0.1639
44237W        W87149   9.123  18.673  19.600 -0.2024  0.2990  0.1205
44238W        W87150   7.979  18.916  19.842 -0.0129 -0.3046 -0.1164
44239W        W87151  10.262  21.512  17.593 -0.1466 -0.0815  0.3742
44240W        W87152   7.101  19.742  19.650  0.0874  0.1994  0.0914
44241W        W87153   9.494  22.350  20.043  0.0373 -0.1094  0.1653
44242W        W87154   6.743  20.715  19.552  0.1396 -0.1084  0.2974
44243W        W87155   7.362  18.992  16.642  0.0019  0.0586  0.1279
44244W        W87156   6.916  20.044  16.218  0.0910  0.2416 -0.0002
44245W        W87157   7.387  20.724  17.827  0.0646  0.1492 -0.0588
44246W        W87158  10.347  20.641  16.718 -0.0441 -0.2071 -0.0681
44247W        W87159   9.940  20.897  17.058  0.1409  0.3894 -0.1632
44248W        W87160   9.143  20.053  17.155  0.0551 -0.2459 -0.0766
44249W        W87161   7.388  20.147  17.313  0.1179  0.0802 -0.1565
44250W        W87162  10.276  19.162  16.783  0.2305 -0.0313  0.2229
44251W        W87163   9.544  20.737  16.676  0.2102 -0.1477  0.1063
44252W        W87164   8.916  20.435  16.910 -0.1338  0.2597  0.0609
44253W        W87165   7.295  18.037  19.031 -0.0744  0.1081 -0.0145
44254W        W87166  10.385  21.111  18.312  0.1228 -0.1800  0.1473
44255W        W87167   8.751  18.723  18.487  0.2229 -0.3778  0.0943
44256W        W87168   8.717  18.438  19.994  0.1952  0.1451  0.0526
44257W        W87169   9.349  18.662  17.672  0.1722  0.0068 -0.1236
44258W        W87170   8.066  19.706  18.004 -0.0770 -0.0053  0.3457
44259W        W87171   6.740  19.303  19.709  0.0395  0.1277  0.2223
44260W        W87172  10.353  22.454  19.096  0.1429 -0.1816 -0.2165
44261W        W87173  11.826  19.640  16.163 -0.3544  0.0852  0.0831
44262W        W87174  11.028  19.102  18.587  0.3905  0.0524 -0.1939
44263W        W87175   9.590  18.614  18.189  0.1317  0.0819 -0.0073
44264W        W87176  10.204  20.512  15.817 -0.0448  0.0791  0.1035
44265W        W87177   8.026  18.932  19.094 -0.1075 -0.0957 -0.1781
44266W        W87178   9.601  21.605  18.405  0.0156  0.1991  0.1165
44267W        W87179   8.295  19.167  16.421 -0.1729 -0.1059 -0.2778
44268W        W87180   9.275  19.172  19.478 -0.0935 -0.2583 -0.3350
44269W        W87181   8.446  22.443  16.292  0.1577  0.1382  0.3102
44270W        W87182  10.091  20.170  17.508 -0.1974  0.1808 -0.2173
44271W        W87183   8.324  20.383  17.636  0.0405 -0.1855  0.0769
44272W        W87184   6.459  19.453  17.645 -0.0548  0.1578 -0.1411
44273W        W87185   9.113  22.116  20.299  0.3287 -0.2951 -0.0508
44274W        W87186   8.582  19.951  16.603  0.3247 -0.0728  0.1381
44275W        W87187   8.430  20.635  16.064 -0.0985  0.1255  0.0014
44276W        W87188   8.481  21.170  18.296  0.0432  0.0461  0.0561
44277W        W87189   9.887  21.200  18.386 -0.1072 -0.2465 -0.0883
44278W        W87190  10.618  18.937  17.190  0.4793 -0.2137  0.1101
44279W        W87191   9.277  18.759  18.594  0.1668 -0.0999 -0.0567
44280W        W87192   7.656  22.313  17.704 -0.0526 -0.0121 -0.1535
44281W        W87193   8.828  19.090  17.099 -0.1810 -0.0567  0.3023
44282W        W87194   7.406  22.965  16.975 -0.0232  0.0561  0.0934
44283W        W87195   8.489  20.436  20.708 -0.0563  0.1510 -0.1184
44284W        W87196   8.364  21.470  16.862  0.1116  0.3776 -0.4465
44285W        W87197   8.602  18.732  18.965 -0.0802  0.3804 -0.3771
44286W        W87198   9.814  19.503  17.853  0.2894 -0.1727  0.0005
44287W        W87199   8.725  20.235  17.423 -0.1176  0.0309 -0.0051
44288W        W87200  10.689  19.632  19.189  0.0541 -0.0366 -0.2314
44289W        W87201   9.502  20.442  19.742  0.0292 -0.4354 -0.2052
44290W        W87202   6.858  20.182  17.567  0.0797  0.1074  0.1210
44291W        W87203   8.552  20.973  19.318 -0.0518  0.0073 -0.0317
44292W        W87204  10.197  20.365  16.279  0.1915 -0.2085  0.1461
44293W        W87205   8.108  20.066  16.747  0.1172 -0.1605 -0.0516
44294W        W87206   6.983  20.182  19.559 -0.2092  0.2758  0.2764
44295W        W87207   9.987  20.319  18.898  0.0235 -0.3433  0.1684
44296W        W87208  10.318  19.293  17.971  0.3247 -0.2455  0.1106
44297W        W87209   7.844  19.506  17.204  0.3428  0.0084 -0.4170
44298W        W87210   9.376  20.268  16.767  0.0298  0.0672 -0.0636
44299W        W87211   8.066  22.185  20.336  0.1735 -0.1295 -0.1708
44300W        W87212   9.210  20.116  19.484 -0.1779 -0.1388 -0.0447
44301W        W87213   8.083  23.779  16.653 -0.3440 -0.1470  0.3885
44302W        W87214  10.715  21.367  17.288 -0.1793 -0.0836 -0.1656
44303W        W87215   9.437  21.194  17.025  0.1845  0.1350 -0.0194
44304W        W87216   8.994  20.629  16.329 -0.2000 -0.0550  0.1339
44305W        W87217   9.257  19.466  17.107 -0.0488  0.0197 -0.1838
44306W        W87218   7.753  20.522  18.361  0.3805  0.0204 -0.0682
44307W        W87219   7.739  22.393  15.869  0.0988  0.0900  0.0317
44308W        W87220  10.344  21.712  15.901 -0.1023 -0.1918  0.0776
44309W        W87221   8.335  21.978  16.577  0.2953 -0.0724  0.1886
44310W        W87222  10.287  22.016  20.100  0.1384  0.0747 -0.0641
44311W        W87223   9.359  17.486  17.610  0.3218 -0.5631 -0.2142
44312W        W87224   9.651  19.324  17.429 -0.0928  0.0192  0.1044
44313W        W87225  10.188  19.156  17.302  0.0380  0.1326 -0.1228
44314W        W87226   9.704  21.862  19.205 -0.0185 -0.2551 -0.1727
44315W        W87227   7.286  20.161  17.815  0.2286  0.3059 -0.1091
44316W        W87228  10.183  18.897  16.236 -0.1018 -0.0369  0.0551
44317W        W87229   8.651  20.266  19.792  0.1157 -0.3383  0.0449
44318W        W87230   9.555  18.301  19.692 -0.0582 -0.1934 -0.2898
44319W        W87231   8.289  21.458  19.344 -0.1048 -0.0540  0.4840
44320W        W87232  11.166  21.386  17.085 -0.5256 -0.1354  0.1180
44321W        W87233   6.927  20.536  16.926  0.5583  0.2717 -0.0215
44322W        W87234   7.670  20.534  17.499 -0.1625  0.2011  0.1589
44323W        W87235  10.094  18.188  16.851  0.4959 -0.1378 -0.0266
44324W        W87236   9.151  21.649  16.514 -0.0701  0.2304  0.2003
44325W        W87237   9.288  17.821  19.463  0.2433 -0.1305 -0.0524
44326W        W87238   8.162  20.790  17.359 -0.1924  0.6459  0.1451
44327W        W87239   8.157  20.616  16.789  0.3402 -0.1403 -0.0347
44328W        W87240   7.916  21.549  17.817  0.1329  0.0631 -0.0479
44329W        W87241   7.466  19.235  17.613  0.2098 -0.0201  0.2767
44330W        W87242  11.029  19.905  17.054 -0.0598  0.0829  0.0970
44331W        W87243   8.709  19.969  19.065 -0.0973  0.1528  0.0887
44332W        W87244  10.804  18.508  17.474 -0.0167  0.2168 -0.3680
44333W        W87245   7.422  20.478  16.162 -0.1507  0.1049 -0.1901
44334W        W87246  10.557  20.107  16.749 -0.1479 -0.2563  0.1569
44335W        W87247   9.192  20.711  18.630 -0.2928  0.3380 -0.2722
44336W        W87248   7.663  20.025  18.278 -0.1506 -0.0813 -0.0656
44337W        W87249   9.604  20.261  17.223  0.1515 -0.2363  0.1591
44338W        W87250  10.580  21.848  18.334 -0.2075  0.0842 -0.0722
44339W        W87251  10.023  19.459  15.736  0.1294  0.1125  0.0021
44340W        W87252  10.116  22.269  20.478 -0.1215 -0.3367 -0.2549
44341W        W87253   7.338  19.629  17.248 -0.2123  0.0925  0.0593
44342W        W87254   9.516  19.531  16.552 -0.0598 -0.0112  0.0831
44343W        W87255   8.259  19.240  18.138  0.2756 -0.1654 -0.1001
44344W        W87256   8.736  19.487  20.131 -0.0934 -0.0366 -0.0149
44345W        W87257  10.126  21.521  19.206  0.0064 -0.1455  0.1952
44346W        W87258   6.797  17.811  18.991 -0.3085  0.1161  0.1947
44347W        W87259   9.765  21.461  16.727  0.0825 -0.1889  0.0067
44348W        W87260  10.395  20.071  19.099 -0.0344 -0.4991 -0.0343
44349W        W87261   8.867  21.948  17.793  0.0236 -0.1695  0.1611
44350W        W87262   9.907  20.799  16.307 -0.2969 -0.0918 -0.0975
44351W        W87263   9.549  20.911  17.449 -0.2668 -0.0484  0.3674
44352W        W87264   8.230  18.685  18.597 -0.2059  0.3113  0.3554
44353W        W87265   9.925  22.213  17.643  0.2206  0.3038  0.3632
44354W        W87266  11.286  21.157  18.207  0.3498 -0.1030  0.0755
44355W        W87267   8.779  18.833  17.540 -0.0963  0.2211 -0.1252
44356W        W87268   8.307  19.710  18.854 -0.0654 -0.0263 -0.0192
44357W        W87269   7.696  22.482  16.339  0.1657 -0.1031  0.1416
44358W        W87270   9.271  18.445  17.215  0.1358  0.0470 -0.1446
44359W        W87271   8.917  20.402  18.902  0.1452 -0.0557  0.1543
44360W        W87272   9.405  21.722  16.125  0.2531  0.0139  0.2011
44361W        W87273   9.071  18.304  18.171 -0.1730 -0.0697  0.0244
44362W        W87274   8.403  21.401  18.796 -0.1166 -0.3873 -0.1914
44363W        W87275   8.920  21.936  18.915 -0.0111  0.1980  0.0155
44364W        W87276   7.212  20.849  16.492  0.1856  0.1977 -0.3273
44365W        W87277   9.586  20.491  17.757 -0.2317  0.4154 -0.0315
44366W        W87278   8.882  21.729  16.038  0.0392  0.0222  0.1688
44367W        W87279   9.094  21.164  17.520  0.0537  0.2121  0.2588
44368W        W87280  10.959  22.819  16.341  0.4481 -0.0844  0.1609
44369W        W87281   8.666  20.018  18.580 -0.0635  0.0998 -0.0602
44370W        W87282  10.864  21.802  17.877  0.1002 -0.2243 -0.1840
44371W        W87283   8.077  19.318  17.663 -0.0465 -0.3425  0.2175
44372W        W87284  10.921  17.504  17.017  0.0876 -0.1045  0.0395
44373W        W87285  10.167  18.582  16.631 -0.1351 -0.2823  0.2712
44374W        W87286   8.488  21.186  20.169  0.1072  0.0753 -0.2974
44375W        W87287   5.944  20.440  17.996  0.2436 -0.0303 -0.3278
44376W        W87288   8.069  21.128  16.440 -0.2572  0.0308  0.4409
44377W        W87289   8.529  21.276  17.334  0.1457 -0.1245  0.0652
44378W        W87290   8.712  19.267  19.701  0.0766 -0.1623 -0.1498
44379W        W87291   6.651  21.204  19.836  0.0632  0.1331  0.1003
44380W        W87292   8.307  20.228  18.955 -0.3237 -0.2232  0.3689
44381W        W87293   6.926  19.683  17.696  0.1322 -0.0065  0.1241
44382W        W87294  10.830  20.545  16.820  0.2753 -0.0999 -0.2471
44383W        W87295   7.744  19.367  18.038 -0.1324  0.1057  0.1880
44384W        W87296   7.284  18.782  17.680 -0.0481  0.2522 -0.0553
44385W        W87297   9.865  21.333  17.226  0.0200 -0.1578 -0.2531
44386W        W87298  11.457  21.903  17.022  0.1651  0.1104 -0.0486
44387W        W87299   9.172  19.171  17.562  0.3180 -0.1335  0.1809
44388W        W87300  10.754  22.816  19.345  0.0523 -0.1454  0.0538
44389W        W87301   5.752  21.030  17.150 -0.1431  0.1909 -0.0726
44390W        W87302   8.401  19.129  18.700  0.0745 -0.2265  0.2605
44391W        W87303   7.901  18.187  18.424 -0.4296 -0.0702  0.1162
44392W        W87304   7.838  19.798  16.436  0.1195 -0.0635  0.2946
44393W        W87305   9.822  18.903  17.550 -0.1540  0.1123  0.3630
44394W        W87306  10.382  21.014  17.361 -0.3253 -0.1207 -0.2555
44395W        W87307   9.699  21.935  17.205  0.2452 -0.0274 -0.1068
44396W        W87308   8.499  19.644  18.340  0.3824  0.1901  0.2942
44397W        W87309   8.753  21.489  19.138  0.3554 -0.1714 -0.2611
44398W        W87310   7.130  19.288  18.816 -0.2154  0.0991 -0.2075
44399W        W87311  11.434  20.787  17.306 -0.0232  0.0371  0.2148
44400W        W87312   8.501  20.724  19.902 -0.0841  0.1586 -0.1727
44401W        W87313  10.821  21.530  16.790  0.0518 -0.1556  0.0429
44402W        W87314   9.674  18.496  18.822  0.1714  0.0098 -0.1353
44403W        W87315   9.984  20.357  16.805  0.0204  0.1403  0.2580
44404W        W87316   6.900  18.675  20.259  0.1795  0.1890  0.1737
44405W        W87317   8.195  21.476  19.801  0.4020  0.1715 -0.1651
44406W        W87318  11.210  21.805  18.957 -0.0418 -0.1810  0.0219
44407W        W87319   8.351  18.623  17.188 -0.0502  0.2718  0.1170
44408W        W87320   9.774  19.960  16.546  0.3922 -0.1603  0.0848
44409W        W87321  10.533  22.321  17.119  0.2636  0.0029  0.0446
44410W        W87322   7.955  20.640  18.802  0.1371 -0.3279 -0.1625
44411W        W87323   8.042  19.947  17.290  0.0895  0.2081  0.0917
44412W        W87324   9.588  19.480  18.930 -0.1586  0.3424 -0.3007
44413W        W87325   8.764  20.682  18.364 -0.0995 -0.2927 -0.3153
44414W        W87326  10.049  20.720  18.578 -0.2405 -0.1872 -0.0416
44415W        W87327   7.553  19.339  16.293  0.1274  0.0968  0.0881
44416W        W87328  10.629  20.279  15.702  0.0951  0.1083 -0.0228
44417W        W87329   9.112  20.713  19.263 -0.2271  0.1071  0.0696
44418W        W87330  10.594  20.867  19.281  0.1929 -0.0013  0.0308
44419W        W87331   8.464  20.860  18.708 -0.2686 -0.0121 -0.1276
44420W        W87332  10.325  21.497  18.629 -0.2428 -0.0908 -0.1079
44421W        W87333   6.420  17.936  19.430  0.2699 -0.1097  0.0300
44422W        W87334   7.438  21.205  16.720 -0.3280 -0.3808  0.0293
44423W        W87335   8.557  20.941  16.933  0.0330 -0.1628  0.0261
44424W        W87336   9.929  19.666  19.738  0.0803 -0.0918  0.3042
44425W        W87337   7.942  19.977  19.175  0.1563 -0.0515  0.1141
44426W        W87338  10.429  17.779  16.948 -0.0835  0.0205 -0.1923
44427W        W87339   9.716  21.983  18.114  0.1441 -0.1847  0.0924
44428W        W87340   8.691  20.209  17.944 -0.0331 -0.0344  0.0881
44429W        W87341   8.036  21.048  21.821 -0.0210  0.0057  0.0819
44430W        W87342   7.545  19.733  22.001  0.2184  0.4683  0.2284
44431W        W87343   9.021  19.503  19.226 -0.3399  0.3581 -0.2923
44432W        W87344  10.460  20.423  20.626  0.2840 -0.0913 -0.0124
44433W        W87345   8.017  19.503  21.983  0.4131  0.0265 -0.0741
44434W        W87346   9.484  21.172  21.939 -0.0110 -0.0458  0.0297
44435W        W87347   6.942  17.092  23.636 -0.0236  0.2119  0.0784
44436W        W87348   9.798  22.579  21.340  0.4664  0.1123  0.1129
44437W        W87349   9.687  24.433  22.654 -0.1605 -0.3240  0.2506
44438W        W87350   9.728  19.917  19.077  0.1093  0.1625  0.0242
44439W        W87351   9.122  17.994  22.442 -0.4114 -0.3504 -0.0034
44440W        W87352   8.692  20.856  23.033 -0.1077  0.0263 -0.0840
44441W        W87353   6.855  19.228  21.290 -0.2156 -0.2714 -0.0495
44442W        W87354   7.794  18.069  23.739 -0.3423  0.2486 -0.1034
44443W        W87355   9.074  19.761  22.723  0.1773 -0.0620  0.4316
44444W        W87356   6.875  18.751  21.484  0.1544  0.1586 -0.0563
44445W        W87357   7.876  20.298  22.891  0.0426  0.3729 -0.0200
44446W        W87358   8.183  18.126  21.467 -0.1446 -0.0403 -0.0101
44447W        W87359  10.226  22.004  21.062 -0.0255  0.1868  0.1590
44448W        W87360   9.835  19.357  23.240  0.0877 -0.0755  0.4457
44449W        W87361   9.153  18.796  22.303  0.2250 -0.1002 -0.0741
44450W        W87362   8.852  21.007  21.200  0.0988 -0.0422  0.0744
44451W        W87363   7.353  18.918  20.399 -0.1375  0.0865 -0.0401
44452W        W87364   6.574  18.822  21.065  0.4641  0.1540  0.1523
44453W        W87365   8.195  19.103  22.444 -0.3392 -0.5318 -0.1023
44454W        W87366   9.571  20.657  21.721  0.2510  0.0919  0.1557
44455W        W87367   9.710  19.661  20.299  0.0401  0.2257 -0.0145
44456W        W87368  10.205  22.440  22.993 -0.1665 -0.5395  0.1539
44457W        W87369  10.795  22.410  22.980 -0.1491 -0.1704 -0.0465
44458W        W87370  10.040  19.240  22.251 -0.0889  0.0224 -0.5410
44459W        W87371   6.050  20.642  21.433  0.0171  0.0707  0.0828
44460W        W87372   8.100  22.161  21.890  0.0948 -0.1403 -0.0778
44461W        W87373   7.934  21.118  21.125 -0.0784 -0.0302  0.0298
44462W        W87374  11.499  21.070  21.238 -0.1400  0.0245  0.3411
44463W        W87375   9.895  22.164  22.660 -0.1959  0.2216  0.2005
44464W        W87376   9.039  21.598  24.931  0.1009  0.1160  0.0650
44465W        W87377   8.026  21.645  20.284 -0.4055  0.0294 -0.1347
44466W        W87378   9.714  20.567  23.862  0.0296  0.0435  0.0795
44467W        W87379   8.282  21.838  23.086  0.1344  0.0884  0.1111
44468W        W87380   8.702  19.020  22.330 -0.0208 -0.2018  0.2487
44469W        W87381   8.403  19.157  20.615 -0.1854 -0.2765 -0.0614
44470W        W87382   8.413  20.840  20.977 -0.2206  0.1211  0.3456
44471W        W87383   9.921  20.524  20.681 -0.3101 -0.0439  0.0645
44472W        W87384   8.705  20.924  23.573 -0.1559 -0.1429  0.0161
44473W        W87385   7.199  20.385  22.205  0.1312  0.1129  0.1675
44474W        W87386  11.061  18.270  23.649 -0.0678 -0.1900  0.0954
44475W        W87387   9.952  22.261  19.805 -0.1069 -0.0428  0.1637
44476W        W87388  10.116  19.692  19.233 -0.0828 -0.0640 -0.1917
44477W        W87389   8.294  19.665  19.471  0.1981 -0.1735 -0.0776
44478W        W87390   9.283  20.092  20.432 -0.0115  0.0302  0.3717
44479W        W87391   8.841  18.427  22.234  0.2218  0.1349 -0.2035
44480W        W87392   7.787  20.349  22.363 -0.2944  0.2243  0.1123
44481W        W87393   8.344  19.955  22.127  0.2467  0.0852  0.2580
44482W        W87394   9.773  21.378  23.165  0.2300  0.0607 -0.1093
44483W        W87395   9.454  20.442  20.767  0.0128  0.5314  0.0602
44484W        W87396   8.596  19.334  22.737 -0.1424  0.0028 -0.4356
44485W        W87397   9.073  22.032  21.702 -0.2319 -0.0280 -0.1223
44486W        W87398   6.208  19.506  21.412  0.0710 -0.2661 -0.3071
44487W        W87399  10.597  22.001  20.458  0.0107  0.0712  0.0537
44488W        W87400  11.128  22.388  20.232  0.0014  0.0854  0.0727
44489W        W87401   9.507  21.330  20.283  0.1720 -0.2234 -0.1263
44490W        W87402   6.860  20.327  20.507  0.1592  0.1666  0.0165
44491W        W87403   6.247  19.813  23.905 -0.0587 -0.1338 -0.1522
44492W        W87404   7.894  19.864  23.443  0.1906 -0.1200  0.0937
44493W        W87405   7.875  19.185  20.990  0.1002  0.4002  0.0954
44494W        W87406  11.021  20.930  22.417 -0.0845  0.1282  0.3870
44495W        W87407   7.374  21.102  22.948 -0.2431 -0.0383 -0.1864
44496W        W87408  10.092  19.897  21.356 -0.0535  0.2290  0.0155
44497W        W87409   8.415  19.184  21.890 -0.1814  0.1917 -0.1137
44498W        W87410   9.195  20.851  23.152  0.0129  0.1875 -0.0722
44499W        W87411  11.157  22.200  19.295  0.3348  0.0750  0.1493
44500W        W87412   9.011  19.168  21.962  0.0563 -0.2979  0.2008
44501W        W87413   9.339  18.377  22.612  0.0182 -0.2294 -0.1159
44502W        W87414   9.426  20.822  20.037  0.1335  0.1176 -0.0562
44503W        W87415   7.616  19.733  21.499 -0.2295  0.0635  0.2246
44504W        W87416   9.133  22.632  23.027 -0.2302 -0.1104 -0.3500
44505W        W87417   9.776  20.379  18.334  0.0527  0.2888  0.3046
44506W        W87418   6.952  19.994  22.400 -0.1176  0.0524  0.2921
44507W        W87419   8.635  18.525  23.829 -0.1714  0.0447 -0.1363
44508W        W87420   9.323  22.064  24.110  0.1937 -0.3074  0.1776
44509W        W87421   9.613  22.178  20.502  0.2977 -0.3259  0.4803
44510W        W87422   6.665  21.163  21.724 -0.0733  0.1829 -0.1300
44511W        W87423   8.917  20.670  20.856  0.1490  0.2193  0.2773
44512W        W87424   5.925  17.076  23.454 -0.0694  0.0883  0.0382
44513W        W87425   8.531  21.264  21.811  0.0322 -0.2753  0.0808
44514W        W87426   8.867  19.746  20.533 -0.1438 -0.1829  0.2079
44515W        W87427   6.571  18.202  25.305  0.4412 -0.4541  0.2578
44516W        W87428   8.787  17.688  22.565  0.0487 -0.1134 -0.0701
44517W        W87429   8.741  21.146  20.751 -0.0212 -0.1204 -0.3937
44518W        W87430  10.176  22.872  21.169  0.1094  0.2032 -0.0116
44519W        W87431  10.110  19.314  20.271 -0.0145  0.1292  0.1035
44520W        W87432   9.073  21.483  20.946 -0.0849  0.1777  0.1233
44521W        W87433   6.557  19.832  22.069 -0.3190 -0.3287  0.1658
44522W        W87434   7.554  20.769  21.893 -0.1750 -0.0559 -0.1952
44523W        W87435   7.759  18.140  24.460  0.0166 -0.1002  0.0506
44524W        W87436   6.447  20.014  22.539  0.0061  0.1668 -0.1269
44525W        W87437   9.907  21.831  23.019  0.4393 -0.1376  0.0015
44526W        W87438   5.929  18.355  21.931  0.2650  0.1688  0.2313
44527W        W87439   9.159  20.572  20.351  0.1957 -0.1610  0.1101
44528W        W87440   8.887  19.931  21.304  0.1678 -0.1949  0.0413
44529W        W87441   7.211  20.645  20.460 -0.0298 -0.2852  0.2521
44530W        W87442  10.061  18.439  22.840  0.0450  0.0655 -0.0884
44531W        W87443   9.973  21.687  19.671  0.2557  0.1410 -0.0745
44532W        W87444   9.272  21.328  22.844 -0.2920 -0.0913 -0.2470
44533W        W87445   9.605  23.559  21.408  0.4048 -0.1008  0.1165
44534W        W87446   8.701  18.227  23.379 -0.1481 -0.1577  0.0602
44535W        W87447   6.537  19.786  20.514 -0.0397 -0.3201  0.0105
44536W        W87448   7.861  22.914  22.089  0.2430 -0.0562 -0.1630
44537W        W87449   8.547  21.717  22.118 -0.3596 -0.2341  0.0678
44538W        W87450   6.125  17.910  20.386  0.2736  0.0321  0.0514
44539W        W87451   9.997  22.924  23.567  0.1000  0.4000  0.2349
44540W        W87452  10.524  21.028  19.882 -0.1738  0.0876  0.0295
44541W        W87453   7.658  20.039  24.665 -0.2179 -0.1973  0.2371
44542W        W87454   9.720  18.493  23.688  0.1549 -0.1059  0.0631
44543W        W87455   9.158  20.892  22.543 -0.0609  0.1236  0.4218
44544W        W87456  10.110  18.138  20.567  0.0929 -0.0404 -0.1724
44545W        W87457   4.684  18.086  19.205 -0.1336 -0.0224 -0.0349
44546W        W87458  11.464  22.321  22.163  0.0940  0.0742 -0.5414
44547W        W87459   7.633  21.466  20.633  0.1078  0.1574 -0.0650
44548W        W87460   8.283  19.590  22.447  0.3139  0.0085  0.1507
44549W        W87461   9.585  20.390  19.241 -0.2348 -0.1531 -0.4438
44550W        W87462  10.387  19.409  21.185 -0.0701  0.0772  0.1134
44551W        W87463   7.171  19.492  22.979 -0.0782  0.2758 -0.1543
44552W        W87464   8.972  18.760  24.269  0.0512  0.1902  0.1454
44553W        W87465   6.799  20.941  20.376  0.2040  0.0299 -0.1021
44554W        W87466   6.743  20.341  22.783 -0.2116  0.1875 -0.3416
44555W        W87467   9.178  18.574  20.133  0.2846 -0.0222  0.2032
44556W        W87468   9.115  19.598  19.805  0.3510 -0.0483 -0.0282
44557W        W87469   8.853  20.482  23.945  0.2645  0.4345 -0.0306
44558W        W87470   9.010  22.526  21.598 -0.5138  0.0045 -0.1432
44559W        W87471   9.570  18.731  19.384 -0.1758  0.3703  0.4891
44560W        W87472  10.155  20.236  20.032 -0.0834  0.1193  0.2564
44561W        W87473   7.830  20.814  23.664 -0.0236  0.0749  0.0562
44562W        W87474   9.582  21.198  21.426 -0.1488 -0.0514 -0.5010
44563W        W87475   9.732  21.656  22.189  0.1280  0.1319  0.0811
44564W        W87476   7.940  19.102  20.402  0.0490  0.1862 -0.0926
44565W        W87477  11.593  21.967  20.535  0.3603 -0.0094  0.2969
44566W        W87478   8.010  20.850  22.292 -0.2364 -0.1805  0.0714
44567W        W87479   9.860  20.225  23.478 -0.0616 -0.4199 -0.1750
44568W        W87480  10.161  22.474  23.605  0.0259 -0.0821  0.3323
44569W        W87481   8.507  18.741  23.393 -0.0659  0.0696  0.1217
44570W        W87482   7.632  19.834  20.494 -0.2326  0.0957 -0.1135
44571W        W87483   9.043  20.355  21.577 -0.1334 -0.2771  0.1332
44572W        W87484   7.786  21.584  21.231  0.0003 -0.0622  0.0811
44573W        W87485   9.286  18.861  23.332  0.0437 -0.0695 -0.4201
44574W        W87486   9.028  18.769  21.458  0.1942 -0.1947 -0.0106
44575W        W87487   8.310  18.353  23.025  0.0445  0.1669 -0.0725
44576W        W87488  10.212  20.124  22.323 -0.0716  0.1866  0.0442
44577W        W87489   9.998  20.686  19.814 -0.1344  0.1381  0.3344
44578W        W87490   8.710  21.235  22.567  0.0623  0.0780 -0.2472
44579W        W87491   7.656  19.265  21.551 -0.1462 -0.2639 -0.1954
44580W        W87492   9.669  18.619  23.044  0.0498 -0.3116 -0.1386
44581W        W87493   8.973  21.086  22.129  0.0882 -0.2469 -0.1807
44582W        W87494   7.186  21.471  23.210  0.2864  0.3107  0.0309
44583W        W87495   9.971  21.255  24.337  0.2560  0.0788 -0.0376
44584W        W87496  10.293  21.494  20.875  0.1264  0.1435 -0.0323
44585W        W87497   8.213  19.320  24.156 -0.2244 -0.3683  0.0882
44586W        W87498   8.007  18.902  21.368  0.1169 -0.2910  0.1250
44587W        W87499   9.082  21.541  21.845  0.2879  0.0495  0.0736
44588W        W87500   8.753  19.823  19.548 -0.0037  0.2385  0.0932
44589W        W87501   8.530  18.265  21.844  0.3339  0.5728  0.0648
44590W        W87502   8.360  22.311  22.930  0.1966  0.0131  0.0650
44591W        W87503   8.619  20.768  20.372 -0.2511 -0.0339  0.2340
44592W        W87504   9.703  20.045  22.564  0.0597  0.2660 -0.1120
44593W        W87505   8.281  20.769  21.445 -0.2089 -0.0041  0.1580
44594W        W87506   8.947  17.168  22.795  0.1754 -0.2986  0.1557
44595W        W87507   7.949  20.534  21.763 -0.1923  0.0201 -0.1247
44596W        W87508   8.085  19.629  20.764  0.1326 -0.1576  0.2988
44597W        W87509   6.293  20.244  20.668 -0.0636  0.0893  0.2557
44598W        W87510   9.394  17.288  21.944  0.1310 -0.0823  0.1338
44599W        W87511   9.551  20.884  19.495  0.3396 -0.2227 -0.0988
44600W        W87512   6.538  17.281  22.172 -0.0795 -0.0726  0.0865
44601W        W87513   8.699  18.759  21.891 -0.1208  0.1700 -0.2406
44602W        W87514   7.414  21.907  20.907 -0.0981  0.1170  0.1319
44603W        W87515   9.148  20.234  22.608 -0.1835 -0.0067 -0.0342
44604W        W87516   7.820  20.092  20.111 -0.0253 -0.0618 -0.2014
44605W        W87517   9.319  21.691  23.175 -0.2407  0.2340 -0.1936
44606W        W87518   7.107  20.525  24.642 -0.0048 -0.1275 -0.1144
44607W        W87519   7.356  19.283  19.599  0.1750  0.0232  0.1814
44608W        W87520   9.389  18.756  21.771  0.0198  0.0569 -0.0333
44609W        W87521   9.053  18.309  20.626 -0.0163  0.0806  0.2522
44610W        W87522   7.921  20.590  20.945  0.0115  0.2105 -0.1936
44611W        W87523  10.611  21.866  22.358 -0.0172  0.4316  0.0870
44612W        W87524   7.368  19.702  22.511 -0.0246 -0.0290 -0.0965
44613W        W87525   9.356  21.073  20.987 -0.0213 -0.0968 -0.0363
44614W        W87526   7.949  18.664  24.501  0.0637 -0.1390 -0.4006
44615W        W87527  10.581  21.720  23.411 -0.0707  0.0125 -0.1050
44616W        W87528   9.043  18.823  22.738 -0.1093 -0.1228  0.2028
44617W        W87529   7.558  20.222  21.872 -0.0988 -0.4235 -0.4091
44618W        W87530   9.748  19.968  20.856  0.3158 -0.0887 -0.0156
44619W        W87531  10.134  21.654  22.545 -0.1788  0.2664  0.1323
44620W        W87532   8.637  19.735  23.586  0.1506  0.0208  0.1025
44621W        W87533   7.526  21.756  22.920 -0.2687 -0.1286 -0.0339
44622W        W87534   8.378  19.201  21.099  0.0498 -0.1089 -0.0918
44623W        W87535  10.056  21.634  20.453  0.1500  0.1776 -0.0171
44624W        W87536   9.640  19.513  22.642 -0.1040 -0.0765  0.0897
44625W        W87537   7.860  19.879  22.379 -0.0440  0.1644  0.4648
44626W        W87538   7.380  20.291  22.637 -0.1413 -0.1075  0.0231
44627W        W87539   8.775  19.282  21.518 -0.2718 -0.1128 -0.2390
44628W        W87540   8.666  19.250  23.216 -0.1942  0.2943  0.1573
44629W        W87541   6.921  20.261  23.323 -0.4632  0.0675  0.1385
44630W        W87542   8.155  20.882  20.509 -0.0889 -0.3100 -0.1471
44631W        W87543   7.154  21.733  20.539  0.1778 -0.0230 -0.2400
44632W        W87544   9.651  18.545  20.373  0.2244  0.0073 -0.0435
44633W        W87545   9.910  21.148  20.119 -0.1849  0.2697  0.0305
44634W        W87546   9.036  19.083  21.034  0.1659  0.1571 -0.1905
44635W        W87547   9.350  19.210  21.541  0.1162  0.0873  0.1444
44636W        W87548  10.635  20.547  20.027  0.1382  0.2847 -0.1960
44637W        W87549   8.838  18.223  24.217  0.0237  0.2895  0.3886
44638W        W87550   7.991  17.851  24.125 -0.2361  0.0630 -0.0656
44639W        W87551   9.610  21.377  19.373 -0.0293 -0.1955 -0.2682
44640W        W87552   7.014  19.529  22.170 -0.0900 -0.0281  0.0395
44641W        W87553  10.249  21.007  24.020  0.0267 -0.0399  0.3421
44642W        W87554   8.691  21.472  24.207  0.1711 -0.2826 -0.0978
44643W        W87555   7.214  18.361  21.536  0.2051  0.0977  0.0302
44644W        W87556   8.946  20.153  20.800 -0.1615  0.3682 -0.1479
44645W        W87557   8.069  19.819  22.838 -0.2359  0.1870  0.0854
44646W        W87558  10.077  21.266  22.186 -0.2173 -0.2793  0.1226
44647W        W87559   9.311  20.114  21.159 -0.0383  0.0001 -0.0594
44648W        W87560  10.650  19.372  20.303  0.1020  0.1487  0.2359
44649W        W87561   7.094  20.663  22.828 -0.3016  0.0300 -0.1440
44650W        W87562  10.967  19.674  20.105 -0.0072 -0.0786  0.0926
44651W        W87563  10.099  20.074  20.503 -0.1952 -0.1392 -0.0435
44652W        W87564   8.282  20.466  22.099  0.3612 -0.1552  0.2168
44653W        W87565   7.559  17.663  23.243  0.2663 -0.0770 -0.0531
44654W        W87566   9.661  21.400  20.734  0.0271 -0.3075  0.1182
44655W        W87567   9.290  19.717  20.780  0.3457 -0.0026  0.3850
44656W        W87568   8.310  18.652  22.182  0.2481 -0.2266  0.1614
44657W        W87569   9.366  20.345  23.394  0.1595  0.0552 -0.2922
44658W        W87570   8.003  19.138  22.942  0.0730  0.1050  0.0762
44659W        W87571   4.894  16.365  21.609  0.1996  0.1160 -0.1196
44660W        W87572   8.813  22.318  22.653 -0.1730 -0.1441 -0.2549
44661W        W87573   8.733  19.195  18.308 -0.1946  0.2369 -0.0901
44662W        W87574   9.601  18.454  22.115 -0.1270  0.0901  0.1933
44663W        W87575   9.010  18.204  19.362  0.0803 -0.1360  0.1916
44664W        W87576   9.523  18.972  18.988  0.2599 -0.1465 -0.1216
44665W        W87577   7.142  19.424  21.686  0.3821  0.2282 -0.2032
44666W        W87578   9.334  20.236  23.912 -0.0848 -0.0438 -0.0193
44667W        W87579   7.075  19.909  20.656  0.0483  0.0341  0.1207
44668W        W87580  10.110  19.046  22.888 -0.1747  0.1130  0.0371
44669W        W87581   9.769  20.797  21.092 -0.1088 -0.0593  0.1442
44670W        W87582   9.299  21.596  21.418  0.0114  0.1814  0.0409
44671W        W87583   8.775  20.247  20.303 -0.1100 -0.0920  0.2621
44672W        W87584   6.781  19.074  21.858  0.0259 -0.2107 -0.3538
44673W        W87585   7.628  23.425  22.773 -0.0613  0.2052  0.1006
44674W        W87586   7.527  19.205  20.065 -0.0381  0.1532  0.0096
44675W        W87587   7.777  20.505  19.727 -0.0551 -0.1548  0.0236
44676W        W87588  10.537  21.951  22.876 -0.0149 -0.3002 -0.1456
44677W        W87589   9.757  20.383  22.963  0.1242 -0.1931  0.0058
44678W        W87590   8.731  17.122  21.668 -0.0641 -0.0342 -0.0369
44679W        W87591  10.521  18.170  22.176  0.3189  0.0882 -0.2188
44680W        W87592   6.844  19.908  20.193 -0.1249  0.0250  0.4552
44681W        W87593   8.658  18.753  20.895 -0.0588 -0.2164  0.1088
44682W        W87594   8.268  20.544  23.009  0.0372 -0.1116 -0.0689
44683W        W87595   7.647  21.731  22.456  0.1615  0.0156  0.1642
44684W        W87596   7.795  21.335  23.059 -0.0595 -0.1451 -0.1015
44685W        W87597   8.146  18.562  21.748  0.0048  0.0691 -0.0291
44686W        W87598   9.195  19.254  22.511  0.1223  0.1949  0.3986
44687W        W87599   8.518  20.894  22.191  0.0457  0.0329 -0.0599
44688W        W87600   8.875  19.978  22.022  0.0915 -0.2721 -0.1303
44689W        W87601   7.940  20.367  23.368  0.2264 -0.1654 -0.0082
44690W        W87602   6.294  20.729  22.951  0.0965  0.2804 -0.0289
44691W        W87603   9.424  22.418  22.627 -0.0674  0.4090 -0.0889
44692W        W87604   9.604  21.905  21.778  0.5461 -0.2318  0.0873
44693W        W87605   7.728  21.257  22.569  0.2004 -0.0250 -0.0571
44694W        W87606   7.790  19.468  22.638 -0.2548  0.0748  0.0260
44695W        W87607   8.065  20.184  24.395  0.0524 -0.1657 -0.0573
44696W        W87608  10.128  22.021  22.191 -0.2106 -0.2875 -0.0109
44697W        W87609   7.511  19.005  22.692  0.2437  0.2568  0.0181
44698W        W87610   8.728  20.414  21.204  0.1039 -0.1005 -0.0098
44699W        W87611   7.119  21.911  23.340 -0.0100  0.0671  0.0857
44700W        W87612   7.567  19.344  24.262  0.0518  0.1936 -0.1394
44701W        W87613   9.314  22.512  21.145  0.0587 -0.1002 -0.2537
44702W        W87614  11.702  20.819  20.828 -0.0939  0.2512 -0.0697
44703W        W87615  10.290  19.754  20.190  0.0906  0.0220  0.0190
44704W        W87616  10.276  22.379  21.340 -0.5668  0.1141 -0.2523
44705W        W87617   8.195  18.756  20.927  0.1606 -0.2052 -0.4274
44706W        W87618   6.874  22.404  22.462  0.0076 -0.0875  0.3094
44707W        W87619   7.027  22.662  21.904 -0.0354 -0.3062 -0.1020
44708W        W87620   9.516  21.266  19.823  0.3809 -0.0594 -0.2819
44709W        W87621   9.380  21.725  20.543  0.1490  0.0123 -0.0698
44710W        W87622  10.282  20.811  22.145 -0.2071 -0.1344 -0.1317
44711W        W87623   8.879  19.219  20.544 -0.2276  0.0993 -0.1351
44712W        W87624  10.234  20.835  20.885 -0.1304 -0.1574 -0.0302
44713W        W87625  10.867  20.072  20.493  0.2096 -0.1781 -0.0395
44714W        W87626   8.824  21.769  22.693  0.1114 -0.3190  0.0778
44715W        W87627   9.297  19.733  22.222  0.0857  0.4286  0.4267
44716W        W87628   7.083  19.082  19.964  0.4468 -0.0199  0.3147
44717W        W87629   7.890  18.940  23.502 -0.1618 -0.0839 -0.1083
44718W        W87630  10.761  18.638  23.568  0.2574  0.3393 -0.1549
44719W        W87631   7.943  22.072  22.762 -0.2379 -0.1765 -0.1314
44720W        W87632   9.555  19.953  19.939 -0.2358  0.1125  0.0099
44721W        W87633   7.174  19.897  21.283  0.0933  0.0738  0.1073
44722W        W87634   8.122  18.156  22.109  0.3750 -0.1415 -0.1316
44723W        W87635   8.709  19.551  21.028 -0.0584 -0.0659  0.1054
44724W        W87636   9.585  20.839  18.982 -0.1834  0.0254  0.0363
44725W        W87637   9.056  21.162  19.993 -0.0275  0.1290  0.0017
44726W        W87638   8.300  21.008  23.303  0.0334 -0.1462 -0.0224
44727W        W87639   8.028  20.020  21.709  0.1532  0.0990 -0.1829
44728W        W87640   8.055  21.680  21.732  0.1104  0.1177  0.1587
44729W        W87641   6.402  19.070  21.480 -0.0217  0.4172 -0.1470
44730W        W87642   9.549  19.306  19.898 -0.1270  0.0340 -0.0448
44731W        W87643   7.909  19.350  23.776 -0.0432  0.0534 -0.0295
44732W        W87644   9.999  18.248  22.395 -0.0442  0.0590 -0.1504
44733W        W87645   7.402  20.593  21.122  0.1860 -0.1912 -0.2229
44734W        W87646   9.518  19.639  21.248  0.0899 -0.0355  0.4201
44735W        W87647   8.387  19.317  23.618  0.1810  0.0129  0.1291
44736W        W87648   8.221  19.530  23.211  0.4092 -0.1819  0.1981
44737W        W87649   7.534  19.351  20.561 -0.3736  0.1459 -0.2161
44738W        W87650  11.224  19.868  22.674 -0.0489  0.0626  0.2372
44739W        W87651   9.090  20.094  19.951  0.1576  0.0098 -0.1884
44740W        W87652  10.975  22.238  25.006  0.3272  0.2868 -0.0780
44741W        W87653   8.509  18.781  22.729  0.0475  0.0899 -0.0027
44742W        W87654   9.254  19.657  21.717  0.1198  0.1274  0.0288
44743W        W87655   7.450  20.459  23.163 -0.2471 -0.3193 -0.0335
44744W        W87656   7.517  20.425  23.681 -0.0679  0.0578 -0.0586
44745W        W87657   9.845  21.140  23.762  0.0653 -0.0639  0.0007
44746W        W87658   6.315  19.358  20.378  0.4549 -0.2100 -0.1375
44747W        W87659  10.655  22.081  19.243 -0.1531  0.2397 -0.0997
44748W        W87660   9.549  19.092  22.853 -0.1283  0.3800 -0.1232
44749W        W87661   9.051  21.761  19.402 -0.2441  0.0793 -0.1653
44750W        W87662  11.098  22.090  21.863  0.0722 -0.0539  0.2037
44751W        W87663  10.021  23.100  20.421 -0.0099 -0.1703 -0.0054
44752W        W87664   7.990  18.656  22.691 -0.1731 -0.1551  0.0256
44753W        W87665   8.212  23.022  23.314 -0.1996 -0.0012  0.1364
44754W        W87666  10.518  22.317  22.515 -0.0213  0.1749  0.0546
44755W        W87667   8.987  17.461  21.071  0.2170 -0.2355  0.2100
44756W        W87668   8.086  18.430  23.487  0.1445 -0.3270  0.4325
44757W        W87669   8.967  21.447  20.419  0.0948  0.0286  0.1545
44758W        W87670   9.821  19.551  21.668  0.2391 -0.3214 -0.0758
44759W        W87671   9.530  19.123  22.064 -0.0744 -0.0697 -0.0906
44760W        W87672   9.895  21.705  18.758 -0.0311  0.1396 -0.1567
44761W        W87673  10.181  18.178  21.572 -0.0334 -0.2240 -0.1416
44762W        W87674  10.185  22.077  23.330  0.3439  0.4300 -0.0228
44763W        W87675   8.472  21.399  23.017 -0.2147 -0.0962  0.0507
44764W        W87676   8.040  19.821  21.244  0.0975  0.0840  0.1883
44765W        W87677   7.919  20.605  24.187  0.1266  0.3758 -0.1303
44766W        W87678   9.277  21.580  22.387  0.3749 -0.1771 -0.0351
44767W        W87679   9.790  21.832  20.130 -0.3963  0.0393 -0.0625
44768W        W87680  10.158  22.979  22.257 -0.1700  0.1615 -0.0308
44769W        W87681   7.811  18.552  22.242 -0.1757 -0.0911  0.1378
44770W        W87682  10.434  21.207  21.801 -0.2968  0.2053  0.3564
44771W        W87683   8.783  19.518  22.282  0.0457 -0.3769  0.2039
44772W        W87684   9.870  17.772  20.965 -0.0053  0.1133  0.1984
44773W        W87685   8.452  17.443  19.665  0.0006  0.0985  0.0107
44774W        W87686   8.371  20.088  23.251  0.0714  0.0045 -0.0250
44775W        W87687   7.331  20.170  20.282  0.0359  0.0727 -0.0499
44776W        W87688   8.044  20.820  20.022  0.1788 -0.2495  0.1150
44777W        W87689   8.271  20.225  22.587 -0.1333 -0.0415  0.1208
44778W        W87690   9.842  18.926  23.505 -0.1457 -0.1211 -0.1423
44779W        W87691   7.794  18.910  24.114 -0.0943 -0.0909  0.0819
44780W        W87692   7.175  19.808  23.384  0.0309  0.0152  0.0400
44781W        W87693   7.093  19.944  21.838  0.1413  0.2742  0.1242
44782W        W87694   9.694  20.466  20.249  0.0208  0.4006 -0.0450
44783W        W87695   7.690  18.016  22.209  0.2271  0.1329 -0.1462
44784W        W87696   7.246  17.609  22.867 -0.1264  0.1727 -0.3450
44785W        W87697  11.523  23.286  22.235 -0.0654 -0.1480 -0.1235
44786W        W87698  11.020  23.242  20.436 -0.1420  0.0720 -0.2710
44787W        W87699   7.231  18.313  22.062 -0.0378 -0.2259  0.0722
44788W        W87700  11.136  21.137  23.387 -0.2784 -0.2822  0.2009
44789W        W87701   6.768  22.945  20.246 -0.2453 -0.0799 -0.2243
44790W        W87702   9.287  19.408  23.188  0.1195  0.0825  0.2312
44791W        W87703   9.176  18.409  23.628 -0.1864  0.1669 -0.2978
44792W        W87704   7.233  18.318  19.951  0.2748 -0.3049  0.3526
44793W        W87705   9.252  20.648  21.191 -0.0543 -0.2316 -0.0993
44794W        W87706   8.720  22.854  21.273 -0.1116 -0.0558 -0.5142
44795W        W87707  10.763  22.787  21.147 -0.3011  0.1114  0.2948
44796W        W87708   8.695  20.485  22.367  0.3567  0.0353 -0.1421
44797W        W87709   8.923  21.380  23.313  0.0047 -0.2258 -0.4481
44798W        W87710   7.443  17.858  24.095 -0.0428  0.0085 -0.2733
44799W        W87711   9.435  19.263  20.910 -0.0065  0.0304 -0.2771
44800W        W87712   8.706  22.294  23.478 -0.0577  0.2088  0.1178
44801W        W87713  10.436  20.395  19.451  0.1985  0.0203 -0.1027
44802W        W87714  10.111  18.774  20.200 -0.1830  0.0417 -0.2540
44803W        W87715   9.703  20.931  20.513  0.0782 -0.1254  0.2795
44804W        W87716   7.911  17.202  24.858 -0.1560  0.0481  0.0249
44805W        W87717   7.511  19.890  23.746  0.0134  0.2600 -0.0444
44806W        W87718   9.950  21.524  21.744 -0.0277  0.3214 -0.2674
44807W        W87719   7.837  19.003  21.928  0.0664 -0.0202  0.2035
44808W        W87720   9.254  19.577  20.291 -0.1450 -0.2984 -0.2307
44809W        W87721  10.281  21.471  19.960 -0.1691  0.0892  0.3177
44810W        W87722   6.718  19.574  22.569  0.1103 -0.2827 -0.0446
44811W        W87723   8.012  19.617  20.226 -0.2108  0.1516  0.1139
44812W        W87724   9.414  21.191  23.480 -0.0368 -0.1202  0.1541
44813W        W87725   8.485  19.665  21.760 -0.2591  0.0448 -0.0060
44814W        W87726  10.849  20.824  21.930 -0.0894 -0.3134  0.1149
44815W        W87727   8.167  19.390  21.526 -0.1199 -0.1363  0.1999
44816W        W87728  11.157  20.293  20.153 -0.1123  0.2622  0.1962
44817W        W87729   8.631  22.443  24.394  0.1270  0.2133  0.1136
44818W        W87730  10.937  20.806  24.654 -0.2344  0.2280  0.0446
44819W        W87731   8.152  21.532  22.616  0.1106 -0.0094  0.1521
44820W        W87732   9.101  21.038  21.609  0.1267 -0.0556 -0.1015
44821W        W87733   7.894  18.027  23.094 -0.4277  0.0689 -0.1315
44822W        W87734   8.136  20.296  21.329 -0.1914 -0.2734  0.0207
44823W        W87735   8.570  20.193  21.665  0.3054 -0.0840 -0.3408
44824W        W87736   9.612  20.121  21.617  0.0197 -0.0221 -0.3547
44825W        W87737   7.459  19.269  22.168  0.0360  0.1675 -0.0345
44826W        W87738   8.390  18.168  21.013  0.1454  0.2685  0.0893
44827W        W87739   9.344  23.064  23.375  0.1040 -0.1361  0.0645
44828W        W87740   8.711  20.684  21.733 -0.0372 -0.2014  0.1650
44829W        W87741   8.531  19.234  26.443  0.0126  0.0461  0.0637
44830W        W87742   7.506  19.476  24.926 -0.2876 -0.0320  0.6625
44831W        W87743   8.959  19.286  24.800  0.2337  0.3444  0.2797
44832W        W87744   9.264  19.943  24.736  0.0684 -0.0440  0.1125
44833W        W87745   5.839  17.259  26.234 -0.2119  0.1362 -0.0406
44834W        W87746  10.717  20.763  24.166  0.0689  0.0465  0.1390
44835W        W87747   7.813  17.832  26.522 -0.4060  0.0339 -0.0836
44836W        W87748  10.664  20.340  25.921  0.1298 -0.3128  0.1062
44837W        W87749  11.010  21.265  25.545  0.0747  0.1098  0.1167
44838W        W87750   8.480  20.223  23.761 -0.0307 -0.0105 -0.0459
44839W        W87751   9.190  19.290  26.736 -0.0697 -0.0083  0.0134
44840W        W87752   7.807  22.275  27.215 -0.0808 -0.0742 -0.1764
44841W        W87753   8.038  19.436  25.124 -0.1222  0.1362 -0.0492
44842W        W87754   7.168  18.906  26.280 -0.2522 -0.2679  0.2134
44843W        W87755  11.140  20.104  25.623 -0.0638  0.3593  0.0672
44844W        W87756   7.025  20.106  23.804  0.1478  0.0505  0.2393
44845W        W87757   8.416  18.225  27.113  0.2649  0.3458 -0.1159
44846W        W87758   7.693  19.070  24.659  0.1508 -0.1195  0.0549
44847W        W87759   9.020  20.080  26.147 -0.0447  0.2519  0.1416
44848W        W87760   8.157  19.157  27.013  0.0525 -0.0515  0.2034
44849W        W87761   9.042  17.316  27.832  0.1282  0.0617 -0.2882
44850W        W87762  11.888  21.652  24.626  0.2490 -0.1083  0.1466
44851W        W87763   7.569  19.909  22.911  0.2576 -0.3231 -0.1624
44852W        W87764   7.341  18.960  23.647 -0.1549 -0.2347  0.2428
44853W        W87765   7.962  17.466  25.731 -0.0236  0.2339  0.1741
44854W        W87766   9.915  18.338  26.750 -0.0886  0.1017  0.0466
44855W        W87767   8.976  18.460  25.208 -0.0583 -0.2083  0.2120
44856W        W87768   8.836  22.789  27.515 -0.2917 -0.0224 -0.0250
44857W        W87769  10.911  20.693  25.646  0.1130 -0.2097  0.3086
44858W        W87770   8.965  18.158  27.270  0.0777  0.1412 -0.1812
44859W        W87771   7.155  20.616  25.293 -0.1498  0.0783  0.0156
44860W        W87772   6.955  23.075  26.167 -0.0484  0.0407  0.0234
44861W        W87773   8.117  20.694  25.200 -0.1922  0.0182  0.1220
44862W        W87774  10.158  18.846  24.275  0.0129 -0.0307  0.3429
44863W        W87775  10.743  20.861  26.719 -0.2306  0.2460  0.2035
44864W        W87776   7.319  22.248  27.160  0.0464 -0.0835 -0.1746
44865W        W87777   7.553  21.817  24.913  0.3160  0.2501 -0.0023
44866W        W87778   9.349  20.179  26.959  0.0350  0.0035  0.1671
44867W        W87779   8.755  20.993  27.183  0.2760 -0.0088 -0.0253
44868W        W87780   8.049  18.881  25.120  0.0403 -0.1903  0.1247
44869W        W87781   9.704  19.199  25.928 -0.2184 -0.0527  0.1442
44870W        W87782   7.971  20.319  24.954  0.0393  0.1011 -0.0438
44871W        W87783  10.014  18.807  25.667  0.2826 -0.2945 -0.1595
44872W        W87784   8.904  20.491  28.243  0.0827 -0.0182 -0.0755
44873W        W87785   8.165  20.535  26.693  0.0771 -0.0368 -0.0159
44874W        W87786  11.577  19.420  25.203  0.0449  0.2148 -0.1059
44875W        W87787   8.502  21.054  24.437 -0.1066  0.1211  0.0663
44876W        W87788  10.864  19.888  22.242  0.1378  0.1535 -0.0687
44877W        W87789   8.742  19.783  24.903 -0.2160 -0.3478 -0.0273
44878W        W87790   9.593  19.358  23.756  0.0497  0.0284 -0.1778
44879W        W87791  10.003  17.821  26.650 -0.2399 -0.1533 -0.0652
44880W        W87792   8.742  22.966  26.458 -0.0800  0.0739  0.0011
44881W        W87793   8.159  18.268  25.862  0.0588 -0.0248 -0.2007
44882W        W87794  10.653  21.165  27.308  0.2801 -0.0080 -0.2542
44883W        W87795   7.951  21.302  24.849 -0.3228 -0.1990  0.3340
44884W        W87796  10.123  21.562  26.545 -0.1716  0.0624 -0.1785
44885W        W87797   8.310  21.200  26.195  0.3925  0.2172  0.0365
44886W        W87798   7.254  17.562  25.564  0.0245  0.2648 -0.0310
44887W        W87799  10.649  21.239  23.181 -0.2511 -0.0639 -0.0626
44888W        W87800  10.803  20.961  25.210  0.0693  0.1106 -0.2990
44889W        W87801   7.749  21.297  24.029  0.0008 -0.1976  0.2439
44890W        W87802   8.182  19.198  25.570  0.1774  0.3771 -0.1560
44891W        W87803   7.152  19.440  27.797 -0.1371 -0.0431 -0.2216
44892W        W87804   7.119  20.654  27.758 -0.2301  0.0899  0.2061
44893W        W87805   7.169  18.529  24.011  0.2566  0.1385  0.2044
44894W        W87806  11.532  20.945  26.847  0.3350  0.1508  0.0669
44895W        W87807   6.901  21.103  27.596  0.0167  0.0594 -0.1787
44896W        W87808  10.246  18.620  23.338  0.0932  0.1202 -0.2638
44897W        W87809   8.763  20.075  25.458  0.2833  0.1676 -0.1103
44898W        W87810  11.872  21.843  25.244 -0.0924 -0.4260 -0.2164
44899W        W87811   9.662  20.766  23.367 -0.2724 -0.2747 -0.2012
44900W        W87812  10.554  17.980  25.983 -0.1817  0.1190  0.0429
44901W        W87813  10.179  18.192  26.355 -0.1098  0.0701  0.0761
44902W        W87814   7.464  20.787  24.115 -0.0197 -0.2195 -0.1574
44903W        W87815   7.761  19.941  25.212 -0.1638 -0.0391  0.0895
44904W        W87816  10.242  19.993  25.430  0.1324 -0.0439  0.1744
44905W        W87817   9.620  20.919  22.822  0.1577 -0.1277  0.1268
44906W        W87818   8.016  21.778  27.016 -0.4835 -0.1360 -0.0855
44907W        W87819   9.484  17.792  27.118  0.3003 -0.2267 -0.2151
44908W        W87820   7.950  21.000  26.610 -0.2361  0.1316 -0.0348
44909W        W87821   7.579  21.217  23.588 -0.2860 -0.2055  0.2719
44910W        W87822   7.340  21.016  26.695 -0.0250 -0.0485  0.0810
44911W        W87823   7.470  20.310  24.220  0.0186 -0.1769 -0.0657
44912W        W87824   6.510  17.532  26.165  0.0784 -0.2862 -0.0167
44913W        W87825   7.927  19.719  26.159  0.1815 -0.1264  0.0114
44914W        W87826  10.638  18.794  24.434 -0.0369 -0.1191  0.1780
44915W        W87827   8.426  17.902  26.410 -0.1440  0.1579 -0.2417
44916W        W87828  10.179  17.930  24.517 -0.1746 -0.0344  0.2306
44917W        W87829   7.310  19.826  24.199 -0.0600  0.3702  0.3215
44918W        W87830  10.822  22.328  25.615 -0.0300 -0.1078  0.0076
44919W        W87831  10.298  19.838  24.417  0.0668  0.3891 -0.0230
44920W        W87832   8.204  21.062  23.982  0.0603 -0.1214  0.0923
44921W        W87833   6.910  19.056  27.573  0.1835 -0.0077  0.0549
44922W        W87834   7.271  18.813  25.601  0.1339 -0.0629 -0.3233
44923W        W87835   8.611  17.515  27.938  0.0692 -0.0541  0.1392
44924W        W87836   7.323  17.554  26.571 -0.1375  0.1573  0.0049
44925W        W87837  10.335  19.192  27.206  0.2066  0.0139  0.1446
44926W        W87838   5.707  17.277  25.713 -0.3750  0.1341 -0.2697
44927W        W87839   8.614  18.433  25.672 -0.0608 -0.1647  0.4391
44928W        W87840   8.199  18.784  25.991  0.1404  0.0269  0.5591
44929W        W87841   8.691  20.840  24.868 -0.1054  0.2965 -0.1122
44930W        W87842  10.762  19.421  25.964 -0.1398  0.0662  0.1495
44931W        W87843  10.410  20.779  24.599  0.2252  0.1326  0.0740
44932W        W87844   9.309  21.789  27.387  0.1679  0.1113  0.1588
44933W        W87845  11.162  22.190  24.560  0.2053  0.0421 -0.4735
44934W        W87846   7.452  18.763  27.403  0.0030 -0.0669 -0.1456
44935W        W87847   7.619  18.558  23.789  0.1286 -0.0302  0.1208
44936W        W87848   8.599  22.495  26.623 -0.0302  0.2167 -0.1800
44937W        W87849  10.319  20.463  25.542 -0.0724 -0.1841  0.5958
44938W        W87850   7.097  17.661  24.943 -0.0527  0.2400  0.1097
44939W        W87851  10.805  21.856  26.171  0.0505 -0.2179  0.0892
44940W        W87852   8.724  20.793  25.471  0.0588  0.1535 -0.1503
44941W        W87853   8.672  19.056  27.441 -0.1848  0.1868 -0.0350
44942W        W87854  10.937  18.162  26.462 -0.1112 -0.0847 -0.1539
44943W        W87855   9.868  20.523  26.295 -0.0931  0.1164  0.1089
44944W        W87856   9.732  19.333  27.046  0.0126 -0.4609 -0.0352
44945W        W87857   7.095  17.745  23.319  0.2006  0.0108 -0.1715
44946W        W87858   9.147  20.532  25.322 -0.3022  0.1357  0.0640
44947W        W87859   8.109  20.735  26.173 -0.1339  0.1195 -0.0509
44948W        W87860   7.206  18.061  25.342  0.0745  0.0145  0.0519
44949W        W87861   9.382  20.348  25.848  0.3104 -0.1501  0.5098
44950W        W87862   8.488  18.375  26.317  0.2723  0.1594 -0.1658
44951W        W87863   7.205  19.784  28.167 -0.3396 -0.0711 -0.3532
44952W        W87864   9.850  19.187  28.307  0.0246  0.4433  0.1685
44953W        W87865   6.037  18.668  24.978 -0.1070  0.1996  0.2435
44954W        W87866   7.169  20.306  27.284 -0.2075  0.0200 -0.0169
44955W        W87867   8.508  17.616  25.131  0.1082 -0.0600  0.1760
44956W        W87868  10.012  19.058  24.709  0.0378 -0.2718 -0.2726
44957W        W87869   9.304  19.826  26.642  0.1945  0.2061  0.1115
44958W        W87870  11.210  19.747  24.739  0.1146  0.3700  0.2436
44959W        W87871  10.342  19.430  23.064  0.0349  0.0343 -0.2055
44960W        W87872   8.800  20.467  23.364  0.0739 -0.2114 -0.2350
44961W        W87873   8.811  19.217  27.909  0.0300  0.1975  0.0194
44962W        W87874   8.294  20.626  23.673  0.2288 -0.1141  0.1667
44963W        W87875   8.598  20.499  26.928  0.2130  0.1448  0.1547
44964W        W87876   9.326  20.637  24.233  0.1055 -0.1224  0.3907
44965W        W87877  10.716  19.617  24.721 -0.2102  0.1284 -0.0512
44966W        W87878   7.388  20.308  26.135  0.0545 -0.0247  0.1101
44967W        W87879   9.112  20.737  26.689  0.0171  0.5356 -0.1362
44968W        W87880  11.099  20.440  26.941 -0.1807 -0.0509 -0.2292
44969W        W87881   9.570  18.624  25.851  0.2330 -0.1066  0.1908
44970W        W87882   7.916  19.530  24.575 -0.0227  0.2136 -0.3007
44971W        W87883   9.168  17.022  26.143 -0.2023 -0.0285 -0.2551
44972W        W87884   7.914  22.251  25.211  0.2836  0.0456 -0.0898
44973W        W87885   9.541  19.895  26.025 -0.0418  0.3521 -0.0628
44974W        W87886   9.419  18.128  26.668 -0.1071  0.2202 -0.1037
44975W        W87887  10.430  17.603  27.943 -0.2472 -0.4052 -0.1420
44976W        W87888  12.326  19.703  27.941  0.2742 -0.2063 -0.1910
44977W        W87889   8.711  19.456  24.027  0.0092 -0.1504 -0.1334
44978W        W87890  10.667  17.505  28.377 -0.2112  0.1083 -0.1688
44979W        W87891   7.705  20.423  25.336  0.1785  0.1519  0.3310
44980W        W87892  10.841  18.488  27.405 -0.0156 -0.2081 -0.4471
44981W        W87893   9.007  19.350  27.232  0.0604 -0.4104  0.1269
44982W        W87894   7.042  22.409  27.956  0.0608  0.0044 -0.0826
44983W        W87895   9.814  20.632  25.545 -0.0186  0.0891  0.0246
44984W        W87896  10.582  20.547  25.007  0.0810  0.1643  0.2200
44985W        W87897  10.222  17.991  27.632 -0.1060 -0.2724 -0.0405
44986W        W87898   9.521  19.909  23.161  0.0576 -0.1398 -0.1575
44987W        W87899   8.250  22.736  26.200  0.1921  0.1749  0.1191
44988W        W87900   8.667  21.814  23.499 -0.1578 -0.1842  0.2459
44989W        W87901   8.421  16.308  26.041  0.0643 -0.2207 -0.1630
44990W        W87902  10.124  21.247  26.191 -0.1064  0.0209  0.0165
44991W        W87903   8.159  21.872  24.012 -0.0614  0.0041 -0.2207
44992W        W87904   8.459  20.005  26.805  0.1165 -0.2208 -0.2219
44993W        W87905   8.982  21.134  25.136 -0.1442  0.3074 -0.1000
44994W        W87906   9.162  18.476  26.170 -0.4150 -0.1809  0.1440
44995W        W87907   7.634  19.215  25.425  0.4351  0.0715  0.0783
44996W        W87908   7.854  18.417  24.921  0.0692  0.1991 -0.1573
44997W        W87909   7.184  18.992  23.062 -0.1802  0.1235  0.2047
44998W        W87910   9.528  17.300  25.171  0.4327 -0.0301 -0.0183
44999W        W87911   9.703  20.743  24.862 -0.3723  0.0376  0.0113
45000W        W87912   6.794  17.839  25.635  0.0612  0.0050  0.2514
45001W        W87913   9.056  18.652  26.869  0.1024  0.3386  0.0306
45002W        W87914   6.612  21.409  27.310  0.0756  0.1327  0.4052
45003W        W87915   9.063  20.536  27.233  0.1011 -0.0228  0.1439
45004W        W87916   9.138  18.370  24.645  0.0299  0.1627 -0.1233
45005W        W87917   7.956  20.235  26.274 -0.0205  0.1174 -0.0765
45006W        W87918   8.421  20.988  27.648 -0.1440 -0.0297  0.1236
45007W        W87919   7.582  18.334  25.397  0.1396  0.0695  0.0918
45008W        W87920   9.905  19.153  26.413  0.1145 -0.2956  0.2477
45009W        W87921   8.922  19.510  25.380 -0.0972 -0.1425  0.2082
45010W        W87922   8.568  19.685  25.841  0.2300  0.1806  0.1549
45011W        W87923  11.258  21.267  24.625  0.2579  0.3336 -0.0995
45012W        W87924   6.787  20.306  24.978 -0.1609  0.1918 -0.0568
45013W        W87925   8.973  21.187  24.588  0.1107 -0.1357 -0.5993
45014W        W87926   8.422  19.927  26.271  0.0770  0.0025 -0.0765
45015W        W87927   9.573  20.596  26.675 -0.0774 -0.0149  0.4644
45016W        W87928   8.412  20.221  25.833 -0.1507  0.1362  0.1006
45017W        W87929   7.663  18.978  25.932  0.0416  0.3321 -0.1678
45018W        W87930   8.910  19.595  26.346 -0.2140 -0.2036  0.1867
45019W        W87931   9.673  20.167  25.530 -0.1073  0.0151 -0.0660
45020W        W87932   8.266  18.839  26.487 -0.0222  0.2136  0.0155
45021W        W87933   8.344  21.345  28.795  0.1725 -0.0031 -0.1631
45022W        W87934  10.268  17.516  24.797  0.3556 -0.0568  0.1972
45023W        W87935  10.343  22.037  23.823  0.0410  0.1698  0.0453
45024W        W87936   9.393  19.323  28.042  0.0508  0.2113  0.0799
45025W        W87937   8.046  21.809  24.953  0.3606  0.0960 -0.1289
45026W        W87938   6.067  19.195  25.249 -0.1368 -0.1515  0.1264
45027W        W87939   8.614  21.663  26.370 -0.2130 -0.1641  0.1650
45028W        W87940   8.196  18.363  25.354  0.3943 -0.0035 -0.1824
45029W        W87941   7.961  20.077  26.789  0.0838  0.0875 -0.0367
45030W        W87942   6.821  20.820  24.946  0.1303 -0.0524 -0.2435
45031W        W87943   7.900  20.085  25.806 -0.2226  0.2252 -0.3281
45032W        W87944   8.914  19.696  24.450  0.0216  0.1096 -0.1826
45033W        W87945   8.005  21.609  24.410 -0.2650 -0.0819 -0.1526
45034W        W87946   8.645  18.925  26.018  0.1322 -0.1227 -0.4316
45035W        W87947   9.959  17.298  26.479 -0.0558 -0.1269 -0.1815
45036W        W87948   8.679  19.700  23.057 -0.2438 -0.3307 -0.0102
45037W        W87949  10.569  18.047  28.101 -0.1735 -0.0132 -0.0217
45038W        W87950   8.560  18.556  26.748  0.1956  0.0320  0.0233
45039W        W87951   9.443  21.185  24.082  0.2712  0.0700 -0.3361
45040W        W87952   8.014  18.555  26.803 -0.1465  0.0543  0.0668
45041W        W87953   9.112  21.665  28.595  0.1032 -0.2081 -0.0646
45042W        W87954   7.600  20.385  27.025  0.2017  0.0298  0.0825
45043W        W87955   8.445  19.592  24.535 -0.2269  0.1152 -0.1048
45044W        W87956   6.981  18.490  24.509  0.1236  0.0200  0.0076
45045W        W87957   9.785  18.885  27.397 -0.2899  0.0974 -0.1207
45046W        W87958   9.432  20.243  26.350  0.1291 -0.1586 -0.0841
45047W        W87959   8.973  20.969  24.108 -0.0154  0.2126  0.2357
45048W        W87960   9.823  18.813  26.894  0.0919 -0.0974  0.2536
45049W        W87961   7.348  18.473  26.778  0.0961  0.3434 -0.1840
45050W        W87962   8.527  19.230  25.052 -0.0169  0.1640  0.1746
45051W        W87963   8.437  20.654  24.116 -0.3341  0.2548 -0.0997
45052W        W87964   7.376  20.263  24.985  0.0387 -0.2235  0.0431
45053W        W87965   7.511  17.162  26.767 -0.0626 -0.0060 -0.0846
45054W        W87966   9.915  19.594  26.108  0.2439  0.4091  0.0377
45055W        W87967   9.351  17.168  25.666  0.1764  0.0217 -0.0122
45056W        W87968   8.711  19.039  26.915  0.1395  0.0975  0.3033
45057W        W87969  10.511  21.235  26.863 -0.0021 -0.0755  0.1044
45058W        W87970   7.493  19.888  27.063 -0.0958 -0.1006 -0.3181
45059W        W87971   9.073  17.687  27.450  0.1191 -0.1017  0.0501
45060W        W87972   7.953  20.857  27.585 -0.3646  0.3198  0.2234
45061W        W87973  10.732  20.252  25.367 -0.4332  0.1164 -0.0074
45062W        W87974   9.908  18.429  27.291 -0.1770 -0.3829 -0.0544
45063W        W87975   9.351  19.661  24.139 -0.1851  0.2082 -0.0872
45064W        W87976   8.953  20.168  24.356  0.0761  0.2855 -0.2682
45065W        W87977   6.606  18.817  26.051 -0.0268  0.1844 -0.0956
45066W        W87978  10.175  20.432  27.436  0.2541  0.1145  0.2278
45067W        W87979   9.274  18.753  25.005  0.0245  0.0301 -0.2940
45068W        W87980   9.434  18.445  27.145 -0.0220 -0.1295  0.1036
45069W        W87981   9.791  22.618  25.389 -0.0496  0.2194 -0.2561
45070W        W87982   8.550  20.449  25.150  0.2343  0.3370  0.1119
45071W        W87983   8.510  20.027  24.181 -0.0752 -0.0444 -0.0262
45072W        W87984   7.279  18.150  25.828 -0.1098  0.0139  0.1411
45073W        W87985   7.518  21.794  27.244 -0.3152 -0.2258 -0.1256
45074W        W87986   6.796  18.727  23.203 -0.2215  0.3438 -0.0372
45075W        W87987   7.394  21.099  24.489 -0.2064 -0.1094  0.0779
45076W        W87988  10.356  19.836  26.047  0.0434 -0.4545  0.2320
45077W        W87989  11.628  21.427  26.736 -0.1236 -0.0803  0.2344
45078W        W87990   9.624  19.017  24.332 -0.0408  0.2689 -0.0216
45079W        W87991   9.501  18.708  26.604 -0.0179 -0.1706  0.1929
45080W        W87992   7.509  19.361  26.208  0.1840 -0.1558  0.1647
45081W        W87993   8.646  18.070  25.317  0.0190 -0.2084 -0.1603
45082W        W87994   9.206  22.491  26.598 -0.0277 -0.3624  0.1948
45083W        W87995   6.008  19.920  26.623 -0.1087  0.0285  0.3016
45084W        W87996   9.710  21.196  25.866 -0.1852  0.0275  0.0624
45085W        W87997   9.574  17.584  27.588 -0.0964  0.2147 -0.0293
45086W        W87998  10.018  17.850  25.811 -0.0664 -0.1877  0.1099
45087W        W87999   9.362  18.940  27.162 -0.1055 -0.1004 -0.2520
45088W        W88000  11.124  19.462  25.519  0.0002  0.0074 -0.0018
45089W        W88001   7.801  21.347  27.333 -0.1635 -0.0289  0.0771
45090W        W88002   7.879  19.124  26.517 -0.1896  0.0337  0.1219
45091W        W88003  10.552  20.836  25.931  0.1018  0.1142 -0.0590
45092W        W88004  10.179  18.553  23.859 -0.1199  0.0360  0.3865
45093W        W88005   7.269  19.772  25.284  0.2731  0.0232  0.1496
45094W        W88006   5.828  18.977  26.196  0.6838 -0.2241 -0.0479
45095W        W88007   8.419  19.397  27.697 -0.0809 -0.0196 -0.4037
45096W        W88008  10.033  20.354  25.098 -0.0289 -0.1427 -0.2915
45097W        W88009   6.331  17.847  25.748 -0.2068 -0.1358  0.0635
45098W        W88010   8.798  20.649  24.460 -0.2050  0.1852  0.0563
45099W        W88011   6.336  22.879  27.103 -0.0060  0.1377 -0.1381
45100W        W88012   7.590  18.672  26.362 -0.1411  0.1457 -0.0560
45101W        W88013   7.653  23.229  26.938 -0.0762  0.0657  0.2614
45102W        W88014   9.668  20.214  24.508 -0.0771 -0.1415 -0.0415
45103W        W88015   8.774  20.314  22.861 -0.1283  0.0765 -0.0183
45104W        W88016   9.097  20.664  26.228 -0.2143  0.0292 -0.0365
45105W        W88017   8.224  18.848  23.856  0.1045 -0.0099 -0.0005
45106W        W88018   8.319  21.349  26.718  0.2276 -0.1763  0.0112
45107W        W88019   7.190  21.620  23.706 -0.1342  0.2897 -0.0591
45108W        W88020   9.831  20.738  24.304 -0.2054  0.4765 -0.0077
45109W        W88021   6.971  21.914  24.801 -0.0684 -0.0361  0.0298
45110W        W88022   9.843  19.912  26.953  0.0800 -0.1350 -0.0434
45111W        W88023  10.968  18.461  22.383 -0.0594 -0.2015 -0.1050
45112W        W88024   9.422  19.013  25.532  0.2115 -0.4211  0.1163
45113W        W88025   9.533  19.853  23.665  0.0155 -0.0536 -0.0251
45114W        W88026  10.031  20.198  25.900 -0.0435  0.1057  0.0525
45115W        W88027   9.178  19.003  27.637  0.1060 -0.1184 -0.2953
45116W        W88028   8.069  17.634  23.642  0.1672  0.0980  0.2178
45117W        W88029   8.994  19.267  25.783  0.0047  0.0475 -0.2405
45118W        W88030   9.931  18.305  25.364  0.2221 -0.0955  0.2942
45119W        W88031   6.525  22.392  26.593 -0.0977 -0.4198 -0.2010
45120W        W88032   9.663  21.870  23.495 -0.0873  0.0609 -0.2383
45121W        W88033   6.915  18.677  25.118 -0.0635 -0.2812  0.1617
45122W        W88034   8.167  19.103  24.619 -0.0459  0.2687 -0.1457
45123W        W88035  10.402  18.609  25.397 -0.2972 -0.1815 -0.1093
45124W        W88036   8.519  20.251  24.590 -0.1719  0.0529  0.0431
45125W        W88037   8.887  18.810  26.445  0.1095 -0.0141  0.1154
45126W        W88038   8.708  21.263  25.691 -0.1099 -0.4418 -0.0858
45127W        W88039   6.828  20.901  26.808 -0.0764  0.1019  0.1103
45128W        W88040   8.861  21.671  25.920 -0.0182 -0.0720  0.3777
45129W        W88041   6.379  18.938  23.408 -0.0844 -0.0042 -0.0644
45130W        W88042   9.667  19.821  25.117 -0.1952 -0.1316 -0.1081
45131W        W88043   7.319  19.183  26.656 -0.1243 -0.1418 -0.1446
45132W        W88044  12.003  18.300  25.596  0.2177  0.1296  0.2890
45133W        W88045   7.153  19.166  25.255  0.0682  0.1560  0.2722
45134W        W88046  10.124  19.596  25.097 -0.4783  0.2259  0.0700
45135W        W88047   8.881  19.952  27.249  0.1101 -0.0415  0.0121
45136W        W88048   7.159  18.963  27.048 -0.0138  0.2262 -0.2566
45137W        W88049   8.657  19.939  22.501  0.3119 -0.0773 -0.1815
45138W        W88050   9.730  19.562  26.573  0.0887 -0.1567 -0.3373
45139W        W88051   9.449  19.477  24.577  0.0238  0.1544  0.0829
45140W        W88052  10.864  21.030  28.137  0.1909 -0.3693 -0.3034
45141W        W88053   8.232  17.902  25.602  0.1866 -0.1518  0.3508
45142W        W88054   9.866  20.015  24.082 -0.0105  0.0521  0.0003
45143W        W88055   7.697  18.904  26.923 -0.2187  0.0831  0.0317
45144W        W88056   8.818  19.640  26.866 -0.0600  0.3986  0.0639
45145W        W88057   9.946  22.034  26.483  0.1248 -0.3050  0.0423
45146W        W88058   5.537  18.558  25.017 -0.3962 -0.2029  0.0822
45147W        W88059   9.037  19.934  23.310  0.1550  0.3660 -0.2111
45148W        W88060   9.238  18.992  26.146  0.1241  0.0619 -0.3189
45149W        W88061   8.314  22.042  24.507 -0.0543  0.1007 -0.0370
45150W        W88062   8.566  18.744  25.247 -0.2074 -0.2474 -0.3332
45151W        W88063  12.624  19.709  25.268  0.0078 -0.0415  0.2170
45152W        W88064   5.755  20.755  26.701 -0.4156  0.2620  0.3381
45153W        W88065   9.856  21.082  26.637 -0.0611  0.0458 -0.0277
45154W        W88066  10.046  21.516  25.685  0.0578  0.4767 -0.0978
45155W        W88067   9.160  19.217  24.164 -0.1945 -0.2531 -0.0200
45156W        W88068   7.915  18.700  25.570  0.1557 -0.3714  0.1534
45157W        W88069   7.411  21.651  24.363  0.3698  0.3230  0.0017
45158W        W88070   9.512  18.390  28.049 -0.1193  0.2241 -0.0499
45159W        W88071   9.774  20.408  27.053  0.1592  0.1686 -0.3042
45160W        W88072   8.043  21.425  23.606  0.5927  0.1306 -0.1121
45161W        W88073  10.778  17.033  25.983 -0.4008  0.2160 -0.2474
45162W        W88074   8.963  20.301  24.839 -0.1351 -0.0502 -0.0728
45163W        W88075   8.085  20.543  27.222  0.1965  0.0004 -0.2668
45164W        W88076   8.187  19.861  24.855  0.0362  0.0343  0.3118
45165W        W88077   7.470  21.065  27.583 -0.0440 -0.3167  0.1503
45166W        W88078   8.891  20.416  25.784 -0.0444  0.2659 -0.0202
45167W        W88079   9.571  21.203  24.635  0.1824  0.2568  0.0649
45168W        W88080  12.515  21.138  25.979 -0.0459  0.2228 -0.0581
45169W        W88081   8.246  20.697  24.630  0.2206  0.0160 -0.1342
45170W        W88082  11.571  20.207  24.882  0.3661  0.1075  0.2728
45171W        W88083   8.608  19.087  24.363  0.2045 -0.2493  0.2609
45172W        W88084  11.057  18.940  24.075  0.3410  0.0155  0.1734
45173W        W88085   9.189  19.926  25.223  0.2289 -0.2450 -0.0145
45174W        W88086   7.936  19.609  25.633  0.0332  0.3005 -0.0000
45175W        W88087   6.796  18.126  24.826  0.0736 -0.0026  0.0416
45176W        W88088   6.984  21.345  24.502  0.0614  0.1350 -0.0162
45177W        W88089   7.883  20.689  25.719 -0.1706 -0.0441  0.0296
45178W        W88090   9.983  17.013  28.390 -0.0846 -0.0426 -0.0349
45179W        W88091   8.763  18.729  27.896 -0.4606 -0.0014 -0.0621
45180W        W88092   7.686  19.644  26.604 -0.0892 -0.1973 -0.1333
45181W        W88093   7.268  18.007  24.572  0.1937  0.2143  0.0779
45182W        W88094  10.840  21.560  23.841 -0.0007 -0.0951 -0.4535
45183W        W88095   7.939  18.283  26.406  0.2475 -0.1497 -0.2920
45184W        W88096   6.727  16.386  25.852  0.3131  0.1925  0.2856
45185W        W88097   9.529  20.324  25.088 -0.2312  0.1261  0.5042
45186W        W88098  10.225  20.311  24.608 -0.1300  0.1605  0.1297
45187W        W88099   7.501  18.776  25.151  0.1848 -0.1423 -0.0276
45188W        W88100   8.562  22.411  27.672  0.1495  0.0539  0.1904
45189W        W88101   6.012  20.860  23.695  0.1131 -0.1004 -0.4650
45190W        W88102   9.465  19.825  27.998  0.3914  0.1951  0.2407
45191W        W88103   7.745  18.111  26.998 -0.0203 -0.2084 -0.0010
45192W        W88104   6.810  17.343  25.290  0.0967 -0.2411 -0.2155
45193W        W88105   6.985  20.019  26.311  0.3039  0.0371  0.0897
45194W        W88106   9.094  21.931  25.318 -0.2401  0.0914  0.3357
45195W        W88107   9.999  21.893  24.293 -0.0740  0.2935  0.0936
45196W        W88108   9.148  21.113  25.776 -0.1148 -0.0565  0.0031
45197W        W88109   8.795  21.379  26.797 -0.0436 -0.2741  0.2949
45198W        W88110   7.619  16.849  26.310  0.1520 -0.2321 -0.2325
45199W        W88111   7.979  20.199  23.841  0.2007  0.0207  0.1292
45200W        W88112   8.562  20.867  25.966  0.0825 -0.1727 -0.2693
45201W        W88113  11.015  20.264  24.878  0.0235 -0.2388  0.1137
45202W        W88114  10.275  19.074  25.295  0.0709 -0.0239  0.0793
45203W        W88115   9.026  19.027  25.315 -0.2233  0.0868 -0.1999
45204W        W88116   8.562  17.661  27.468  0.3043  0.1241 -0.0514
45205W        W88117   8.290  22.224  26.937  0.0652 -0.1732  0.1767
45206W        W88118  10.294  20.718  26.971  0.1008 -0.0766 -0.3427
45207W        W88119   7.681  18.414  25.942 -0.0259 -0.1682 -0.0467
45208W        W88120   9.812  17.790  24.788  0.0434  0.0958 -0.0802
45209W        W88121   8.442  21.462  24.700 -0.0459  0.0049  0.1513
45210W        W88122   7.108  19.475  27.205  0.0260 -0.3582  0.0040
45211W        W88123   8.229  19.732  23.821 -0.1466 -0.0324 -0.1588
45212W        W88124  10.914  19.021  27.369  0.1801  0.0264  0.2306
45213W        W88125  11.624  20.828  26.186 -0.1100  0.0558 -0.2394
45214W        W88126  10.118  20.323  26.713  0.2588  0.1063 -0.1925
45215W        W88127   7.188  19.022  24.763 -0.1864 -0.1034 -0.1078
45216W        W88128   9.876  19.749  24.679 -0.0331 -0.0092  0.0065
45217W        W88129  10.932  22.215  26.476  0.1944 -0.2057 -0.2797
45218W        W88130  11.339  21.143  26.426 -0.3383 -0.1376 -0.3383
45219W        W88131   9.490  21.709  25.028  0.4002  0.1242 -0.0307
45220W        W88132   9.890  19.747  25.644  0.1898 -0.0273  0.1998
45221W        W88133   7.693  17.852  25.465  0.1178  0.0915 -0.0299
45222W        W88134   8.228  20.144  25.400 -0.1803 -0.1715 -0.2027
45223W        W88135   8.457  19.675  25.356 -0.4797 -0.1762  0.0506
45224W        W88136   9.062  17.994  26.222  0.1343  0.1377  0.1683
45225W        W88137   7.358  17.683  26.059 -0.0765 -0.1365 -0.0843
45226W        W88138   9.852  19.467  24.246  0.0278 -0.1247  0.1871
45227W        W88139   7.173  22.343  26.636 -0.0281  0.1531 -0.1518
45228W        W88140  10.326  19.902  26.599 -0.0340  0.4239  0.1780
45229W        W88141   8.473  20.493  30.260  0.0865 -0.1262 -0.0332
45230W        W88142  10.866  20.056  28.675  0.0979  0.0732  0.0740
45231W        W88143  11.152  18.668  27.104 -0.0311 -0.0844  0.1940
45232W        W88144  12.051  20.162  27.891 -0.1036 -0.0347 -0.3393
45233W        W88145   8.309  18.907  27.803 -0.4555 -0.2754 -0.2074
45234W        W88146  11.273  21.809  29.282  0.1149 -0.0236  0.1337
45235W        W88147   7.604  18.322  31.318  0.1392 -0.0503 -0.4131
45236W        W88148   8.733  22.039  28.097 -0.0598  0.1008  0.2430
45237W        W88149  11.828  21.469  30.006  0.0749  0.3018 -0.0055
45238W        W88150   8.923  21.441  27.298  0.1573 -0.1144  0.2895
45239W        W88151   9.554  19.807  29.481  0.0658 -0.3705 -0.2086
45240W        W88152   9.162  19.656  30.034  0.1282 -0.2636 -0.1280
45241W        W88153   9.704  16.034  27.716  0.1421 -0.3240 -0.0819
45242W        W88154   8.480  18.645  29.935 -0.0135 -0.1612  0.0729
45243W        W88155  11.398  19.971  29.045 -0.2037  0.1164  0.2290
45244W        W88156   8.328  19.374  28.591  0.0640 -0.0211  0.3752
45245W        W88157   8.816  18.014  30.626  0.0249 -0.3168 -0.0768
45246W        W88158   9.910  19.643  28.041 -0.1506 -0.2162 -0.1389
45247W        W88159   9.639  22.157  29.720  0.0009 -0.1782 -0.1804
45248W        W88160   8.318  19.511  30.624  0.0400  0.0255 -0.2245
45249W        W88161  10.156  19.813  30.132 -0.1269 -0.0877  0.1316
45250W        W88162   9.126  20.582  27.715  0.2183 -0.1069  0.1486
45251W        W88163   7.991  19.218  27.474 -0.1901 -0.0393  0.1924
45252W        W88164   7.225  18.609  30.524  0.1811 -0.0560 -0.1570
45253W        W88165   8.386  19.276  29.867  0.1834 -0.3784  0.1278
45254W        W88166  10.072  19.699  29.666 -0.2657 -0.3797  0.1560
45255W        W88167   9.623  20.589  27.529  0.0029  0.0436 -0.1072
45256W        W88168   8.004  20.512  30.096  0.0161 -0.2154  0.1459
45257W        W88169   8.571  21.457  29.349 -0.1698  0.0610  0.2033
45258W        W88170  12.575  19.140  29.873 -0.1185  0.0300  0.2038
45259W        W88171   7.834  20.074  30.234  0.0610 -0.0424  0.3007
45260W        W88172   7.152  21.162  29.956  0.5911  0.1952 -0.0678
45261W        W88173   9.873  20.202  27.987  0.1170  0.1199 -0.0359
45262W        W88174  10.643  20.178  27.548  0.0521 -0.2486  0.1380
45263W        W88175  11.178  20.272  30.357 -0.0257  0.3941  0.2359
45264W        W88176   9.347  21.079   0.634 -0.1512 -0.1743  0.2231
45265W        W88177   6.657  20.859  28.017 -0.2536  0.1698 -0.0525
45266W        W88178   9.984  22.622  31.445  0.2153  0.1791  0.0403
45267W        W88179   7.933  18.438  29.203 -0.0278  0.0311 -0.1196
45268W        W88180   9.570  19.841  28.926  0.2485  0.0722 -0.0820
45269W        W88181   9.884  20.720  29.221 -0.2049 -0.2925 -0.0384
45270W        W88182   8.931  20.131  26.697  0.2095  0.0649  0.2375
45271W        W88183   8.757  20.293  28.862  0.2347  0.4756  0.0408
45272W        W88184   8.985  19.728  31.317 -0.0624  0.2685  0.0028
45273W        W88185   9.118  20.498  29.223 -0.1040 -0.0079 -0.1676
45274W        W88186  11.765  17.751  31.572  0.0788 -0.0502 -0.0042
45275W        W88187   7.752  21.219  28.232  0.0674  0.2712 -0.2994
45276W        W88188  11.540  19.070  26.894  0.0301 -0.0402  0.1312
45277W        W88189  10.552  18.475  27.830  0.3100 -0.1315  0.0877
45278W        W88190  10.415  19.431  26.383 -0.0533  0.1099 -0.4554
45279W        W88191   8.754  19.043  28.371  0.5871 -0.2877 -0.0535
45280W        W88192   8.524  21.739  29.748 -0.2509 -0.3354  0.4334
45281W        W88193  10.391  19.554  28.355 -0.0374  0.0645  0.0282
45282W        W88194  11.223  20.568  29.959  0.1701  0.0688 -0.0060
45283W        W88195  10.363  19.077  28.092 -0.2468  0.1120  0.1476
45284W        W88196  11.076  19.432  28.875 -0.0294  0.0798 -0.1606
45285W        W88197   8.710  20.284  29.404  0.1067 -0.3525  0.3542
45286W        W88198   8.533  18.078  29.783 -0.1771  0.1765 -0.1321
45287W        W88199  10.456  21.807  28.275 -0.2873  0.1715 -0.0833
45288W        W88200   8.993  21.050  29.082  0.1590  0.2550 -0.1399
45289W        W88201   9.331  21.087  26.296  0.1594 -0.0264  0.1752
45290W        W88202   8.967  18.437  28.221  0.1886  0.0229 -0.0045
45291W        W88203   7.993  20.017  31.682  0.0591 -0.0552 -0.0247
45292W        W88204   7.782  20.303  31.286 -0.1859  0.1845  0.1348
45293W        W88205   8.908  18.202  26.774  0.0721  0.0032 -0.0573
45294W        W88206  12.027  19.055  29.956  0.0813  0.3218  0.1171
45295W        W88207   6.971  21.384  31.334  0.1563  0.1486  0.2161
45296W        W88208  10.010  20.998  28.289 -0.2666  0.0087 -0.0374
45297W        W88209   8.572  19.784  28.992  0.0969 -0.2000 -0.0259
45298W        W88210  10.282  21.134  29.422  0.0152  0.0434 -0.1559
45299W        W88211  10.050  21.495  27.038 -0.1879 -0.2480  0.1016
45300W        W88212   9.498  17.163  29.453  0.1871 -0.2408  0.3426
45301W        W88213  10.870  18.551  28.615  0.1618  0.1608  0.0707
45302W        W88214   8.266  21.844  27.915 -0.0269 -0.1636 -0.2661
45303W        W88215   8.407  20.344  28.051  0.3600 -0.1417  0.1593
45304W        W88216  11.333  21.306  29.274  0.0262  0.0956 -0.0504
45305W        W88217  10.860  19.951  27.089 -0.1878  0.0182  0.1088
45306W        W88218   8.413  21.144  30.682  0.2315 -0.0017  0.2300
45307W        W88219   9.314  18.876  28.925 -0.0079 -0.0715  0.3500
45308W        W88220   8.267  20.002  30.453  0.0807  0.2662 -0.1832
45309W        W88221   7.193  21.202  28.141  0.0394  0.1760 -0.0991
45310W        W88222   5.965  20.632  29.575 -0.0777  0.0135  0.0861
45311W        W88223   7.817  19.166  28.514 -0.0675 -0.1343 -0.0067
45312W        W88224   8.824  18.446  29.585 -0.1597  0.1587  0.2425
45313W        W88225   9.467  20.446  28.802 -0.0036  0.1466  0.1154
45314W        W88226  11.764  18.184  27.246 -0.3695  0.1541  0.0742
45315W        W88227   8.848  18.664  30.521 -0.2054 -0.1022  0.1862
45316W        W88228  11.227  18.185  27.455  0.1557 -0.1262  0.0883
45317W        W88229   8.316  20.297  29.015 -0.3637 -0.1766 -0.2064
45318W        W88230  10.734  21.687  29.096 -0.0083  0.1310 -0.1387
45319W        W88231  10.053  19.661  27.498 -0.1362 -0.1503 -0.0934
45320W        W88232   7.890  21.827  27.538  0.0425 -0.0793 -0.0539
45321W        W88233   7.682  18.630  30.101 -0.0891  0.0354  0.1104
45322W        W88234   7.263  18.137  30.488 -0.0706 -0.0064 -0.4080
45323W        W88235   8.612  19.907  31.018 -0.1762 -0.0105 -0.1170
45324W        W88236  10.229  17.994  29.609  0.0040 -0.1808  0.0055
45325W        W88237  10.214  18.571  29.444 -0.0823 -0.0847  0.3255
45326W        W88238   7.994  17.656  27.345  0.0707 -0.3225  0.0317
45327W        W88239  11.426  19.018  27.350 -0.2602 -0.1898  0.1630
45328W        W88240   8.505  19.603  28.152 -0.0903  0.1920  0.2973
45329W        W88241   8.030  20.373  28.467 -0.0428  0.2812 -0.2314
45330W        W88242  10.227  19.014  30.753  0.1019 -0.0636  0.1993
45331W        W88243   8.237  20.953  26.993  0.1513  0.1423 -0.3166
45332W        W88244  11.514  20.719  30.431  0.0382  0.0413 -0.0803
45333W        W88245   8.791  21.129  28.493 -0.1865 -0.0294  0.1126
45334W        W88246   7.648  19.846  28.474 -0.1765 -0.2868  0.2692
45335W        W88247  10.021  19.504  29.174 -0.0003  0.0063 -0.0448
45336W        W88248   7.415  21.657  29.537 -0.1455 -0.2666 -0.0220
45337W        W88249   9.091  20.738  28.658  0.0494  0.0324 -0.0165
45338W        W88250  10.369  18.613  28.910 -0.0372 -0.1358 -0.1572
45339W        W88251  10.367  22.647  29.495  0.0399  0.0084 -0.0918
45340W        W88252   8.704  19.425  29.297 -0.3747  0.2268  0.0551
45341W        W88253   8.147  21.738  30.611 -0.0946 -0.1943 -0.2925
45342W        W88254   9.874  18.290  29.636 -0.0088 -0.1225 -0.4393
45343W        W88255  10.238  20.350  30.272 -0.0600  0.3745 -0.0633
45344W        W88256  11.732  20.617  27.148 -0.1506  0.0646 -0.0271
45345W        W88257   6.923  20.529  28.927  0.1480  0.3058  0.0157
45346W        W88258   9.473  21.451  29.041 -0.3914  0.1348  0.1432
45347W        W88259   8.048  21.362  27.765 -0.0816 -0.1444  0.0297
45348W        W88260   7.982  19.497  28.936  0.1687  0.0197  0.2317
45349W        W88261   8.956  21.601  29.041 -0.1013  0.0010 -0.0129
45350W        W88262  12.090  17.919  28.018 -0.1097 -0.0920 -0.1092
45351W        W88263   7.787  19.713   0.546  0.0938  0.4174  0.0331
45352W        W88264   9.733  17.610  29.195  0.0381 -0.0022  0.0405
45353W        W88265   8.033  18.840  28.191 -0.0566  0.0636 -0.0583
45354W        W88266   7.768  20.946  31.325 -0.1377  0.1028  0.0222
45355W        W88267   9.830  17.115  28.989  0.2731 -0.2893  0.2860
45356W        W88268  11.299  18.521  28.286 -0.0094 -0.1054  0.1600
45357W        W88269   8.979  21.052  29.709 -0.1659  0.0191  0.0148
45358W        W88270  11.072  20.041  28.229 -0.2729  0.2045  0.2821
45359W        W88271   9.267  16.704  27.494  0.0314 -0.0200 -0.1280
45360W        W88272  10.534  17.731  27.220 -0.0953 -0.2247  0.0809
45361W        W88273   8.056  20.648  30.603 -0.1473 -0.1666  0.0513
45362W        W88274   9.940  20.179  29.895  0.1212  0.0988  0.3029
45363W        W88275  10.424  21.261  28.456  0.2048 -0.3137 -0.2290
45364W        W88276   9.653  20.908  27.117 -0.0232 -0.1477  0.0502
45365W        W88277   9.772  21.283  28.636  0.1776 -0.4569 -0.1015
45366W        W88278   6.906  19.301  30.066 -0.4347 -0.1110 -0.0154
45367W        W88279   9.582  20.695  30.636 -0.1966 -0.0960 -0.3563
45368W        W88280   9.501  21.525  29.750 -0.1458 -0.1485  0.1546
45369W        W88281   9.784  18.813  29.670 -0.0627 -0.2411  0.4328
45370W        W88282   9.014  19.636  28.230  0.1260 -0.3387  0.1285
45371W        W88283   9.676  20.096  28.431  0.0192 -0.1525 -0.0760
45372W        W88284   7.843  21.526  29.254  0.0018 -0.0692  0.1961
45373W        W88285  10.905  17.105  28.143 -0.3489 -0.2258 -0.0377
45374W        W88286   8.922  18.772  28.716 -0.0145  0.0381 -0.0680
45375W        W88287  10.030  18.983  29.169 -0.0441 -0.1379  0.1128
45376W        W88288   9.966  18.156  29.114  0.0041 -0.1566  0.1911
45377W        W88289  11.710  18.412  27.957  0.0513 -0.0802 -0.1157
45378W        W88290  10.284  20.802  30.007 -0.0791  0.0870 -0.1073
45379W        W88291   9.761  20.098  27.461  0.0422 -0.1391  0.2556
45380W        W88292  10.358  17.803  29.060 -0.2107 -0.1167 -0.1835
45381W        W88293   8.126  19.857  31.061  0.0682  0.1717 -0.0360
45382W        W88294   7.357  21.426  30.972 -0.0814  0.0721 -0.1106
45383W        W88295  10.952  20.750  30.545 -0.1492  0.1239  0.0156
45384W        W88296   9.828  21.252  29.330  0.0306  0.0170 -0.2204
45385W        W88297   9.079  19.617  29.510  0.1362 -0.1518  0.0568
45386W        W88298  10.813  18.814  28.201  0.2577 -0.1185 -0.1318
45387W        W88299   8.810  21.929  27.591 -0.1878 -0.1543  0.2529
45388W        W88300   8.440  21.410  27.263 -0.0654 -0.1108 -0.0758
45389W        W88301   8.520  18.990  29.416 -0.0773  0.1127 -0.6525
45390W        W88302  10.029  20.836  30.418  0.0045 -0.2445  0.1725
45391W        W88303   8.500  19.553  27.225 -0.0177 -0.0987  0.0334
45392W        W88304  11.415  21.479  30.299 -0.0769  0.5650 -0.2719
45393W        W88305   8.171  20.814  28.059  0.1283  0.2789  0.2862
45394W        W88306   9.986  17.538  28.747  0.1079  0.0037  0.0498
45395W        W88307   6.226  20.741  31.176 -0.1352  0.1436  0.2096
45396W        W88308   9.197  18.878  28.186 -0.5129 -0.2942  0.1115
45397W        W88309   7.592  19.393  26.995  0.1402  0.1138  0.1963
45398W        W88310  11.215  19.555  28.063 -0.2012 -0.0363  0.2779
45399W        W88311  10.680  20.827  28.660 -0.1609 -0.1340 -0.0501
45400W        W88312   9.097  18.796  29.927 -0.0603  0.5855 -0.0783
45401W        W88313   8.630  18.260  28.798  0.0440 -0.0339 -0.0609
45402W        W88314   7.621  20.615  29.786 -0.1729 -0.4936 -0.1460
45403W        W88315   9.864  20.976  29.882 -0.2400 -0.0323 -0.2749
45404W        W88316  11.592  17.694  27.248 -0.2398  0.0498  0.1522
45405W        W88317  10.145  20.505  30.750  0.0419 -0.3619  0.0529
45406W        W88318   8.443  19.693  31.605  0.0640  0.3438  0.1308
45407W        W88319   7.418  19.331  28.930 -0.2922  0.0292 -0.1718
45408W        W88320  10.895  18.589  29.077 -0.4292  0.0316  0.0755
45409W        W88321   9.562  18.217  28.795 -0.0159  0.2572  0.1605
45410W        W88322   5.911  21.891  28.900  0.0612 -0.2762  0.2675
45411W        W88323  11.174  20.762  28.679 -0.0233  0.0922 -0.0340
45412W        W88324   8.623  19.860  27.726  0.2216 -0.0052 -0.0351
45413W        W88325   7.845  21.218  28.881  0.4121  0.0903  0.1299
45414W        W88326  10.294  17.851  31.284 -0.0460 -0.2418  0.2642
45415W        W88327  10.460  20.309  29.153  0.0747  0.0757  0.2480
45416W        W88328  10.930  19.916  29.413 -0.1525 -0.2983 -0.1749
45417W        W88329   8.136  20.378  27.645 -0.0621  0.4701 -0.1403
45418W        W88330  10.135  20.006  28.444  0.1084  0.2054  0.1130
45419W        W88331  10.347  21.608  29.540 -0.0296  0.0893  0.4831
45420W        W88332  10.863  19.461  28.381 -0.1302 -0.0677 -0.2701
45421W        W88333   9.090  19.997  29.086 -0.0488  0.0846  0.1598
45422W        W88334  10.209  17.469  29.369 -0.0453 -0.0002  0.0458
45423W        W88335  11.755  21.875  28.530  0.1658 -0.0610  0.1256
45424W        W88336   9.797  20.231  30.394 -0.3104 -0.1083 -0.0333
45425W        W88337   8.371  20.089  27.323 -0.3111  0.0377  0.1539
45426W        W88338   7.128  19.317   0.116  0.2435 -0.0660 -0.1291
45427W        W88339   9.135  20.051  28.525  0.2332 -0.2128 -0.0184
45428W        W88340  10.461  19.779  29.337 -0.0445  0.1351 -0.0659
45429W        W88341   8.099  19.969  28.716  0.1130  0.2771 -0.2967
45430W        W88342   9.462  20.935  28.966  0.3544  0.1857 -0.0262
45431W        W88343   7.684  19.469  29.338  0.2539 -0.1266 -0.0189
45432W        W88344  10.917  17.810  26.818 -0.1163 -0.1850  0.1960
45433W        W88345   8.590  20.437  26.346 -0.3430  0.0136 -0.2155
45434W        W88346  10.154  18.987  28.632  0.0571 -0.1707 -0.1385
45435W        W88347  11.621  18.966  30.311  0.2040  0.0482  0.2082
45436W        W88348  10.633  20.664  27.296  0.1424 -0.0750 -0.1831
45437W        W88349   9.864  18.723  30.534  0.0553  0.0553  0.0418
45438W        W88350  10.692  19.037  28.622  0.2507  0.0142 -0.3090
45439W        W88351   9.573  20.792  28.476 -0.1341  0.1269  0.0591
45440W        W88352   7.645  18.680  30.993 -0.0964 -0.0332  0.1563
45441W        W88353  10.576  20.675  31.101 -0.0182 -0.0561 -0.3739
45442W        W88354   7.997  19.078   0.886 -0.0838  0.1841  0.1023
45443W        W88355  10.764  19.560  27.424  0.0004 -0.1260  0.0840
45444W        W88356   8.728  18.107  27.828  0.2849 -0.1620  0.0933
45445W        W88357   9.005  20.586  29.735 -0.0583  0.2778  0.1576
45446W        W88358  11.215  21.050  29.662 -0.4424 -0.0800 -0.1167
45447W        W88359   9.657  21.892  27.871 -0.1538 -0.1095 -0.0680
45448W        W88360  10.959  18.102  28.437  0.2608  0.0428  0.1541
45449W        W88361   7.155  19.698  31.066  0.1047  0.0555  0.1443
45450W        W88362  11.293  19.431  27.618  0.1450 -0.0193 -0.4138
45451W        W88363   8.667  21.456  27.724  0.0081 -0.3052 -0.3111
45452W        W88364   9.186  19.451  29.082  0.1523  0.3287  0.1838
45453W        W88365   7.745  19.682  30.680  0.0674 -0.0074  0.1517
45454W        W88366  10.480  21.187  28.955  0.0510 -0.1920  0.1162
45455W        W88367  10.436  19.915  28.877  0.0492 -0.1429  0.1466
45456W        W88368  11.782  19.228  29.249  0.0682  0.2824  0.3643
45457W        W88369  11.314  19.741  28.553 -0.0846 -0.0625 -0.1504
45458W        W88370   9.138  18.394  29.171  0.0335 -0.2467 -0.0530
45459W        W88371   9.047  19.753  30.500  0.2133  0.1646  0.1474
45460W        W88372  10.421  21.359  28.009  0.0914 -0.1320  0.4722
45461W        W88373  12.179  19.555  26.318  0.1322  0.2424 -0.1044
45462W        W88374  10.850  19.071  29.897  0.0913  0.1226 -0.0807
45463W        W88375  11.763  19.647  27.874  0.2331 -0.1481 -0.2541
45464W        W88376  10.867  19.234  27.893 -0.2238  0.2894  0.0364
45465W        W88377   8.358  18.451  28.177 -0.0038  0.4957  0.2949
45466W        W88378  11.191  21.014  30.164  0.2617  0.0761  0.1256
45467W        W88379   8.689  18.591  27.294  0.0847  0.0571 -0.0172
45468W        W88380   9.276  20.261  30.660  0.0367 -0.3155  0.1243
45469W        W88381   9.421  20.452  28.117 -0.2495 -0.0174 -0.0264
45470W        W88382   8.401  21.291  28.164 -0.0210  0.0988 -0.1147
45471W        W88383   9.822  17.818  27.941 -0.2174  0.0619  0.0001
45472W        W88384   7.835  19.158  30.006 -0.2374 -0.2857  0.3198
45473W        W88385   8.678  21.144  31.078  0.2293 -0.0713  0.2158
45474W        W88386   7.527  18.327  27.663 -0.2179 -0.0887  0.4820
45475W        W88387  10.464  20.354  28.629  0.1849  0.0340  0.1445
45476W        W88388   9.595  21.344  27.405 -0.0785 -0.0639 -0.0602
45477W        W88389  10.737  20.542  30.111  0.2196  0.2780 -0.0044
45478W        W88390   8.981  16.839  27.871  0.1063 -0.0460 -0.0904
45479W        W88391  10.559  18.681  29.771  0.1426  0.1187  0.1915
45480W        W88392   7.624  21.211  29.734 -0.0021 -0.1127 -0.3008
45481W        W88393  10.430  17.087  28.189 -0.3449 -0.2222 -0.0821
45482W        W88394   7.614  21.401  30.468 -0.0316 -0.1399  0.0969
45483W        W88395   7.387  20.201  29.984 -0.2852  0.1434 -0.2406
45484W        W88396   8.805  20.073  30.070 -0.3018 -0.2368  0.0540
45485W        W88397   9.065  18.136  28.608  0.1307 -0.3252  0.2272
45486W        W88398  10.359  19.880  27.157 -0.1451 -0.0845 -0.2159
45487W        W88399   9.426  21.002  29.476 -0.0408  0.0056 -0.2839
45488W        W88400  11.229  20.455  29.427  0.0165  0.0137  0.2060
45489W        W88401   8.786  20.192  30.605 -0.2061 -0.0757 -0.1362
45490W        W88402   9.618  19.301  28.847  0.1218  0.2409 -0.1271
45491W        W88403  10.565  21.709  30.028  0.0899  0.1100  0.1960
45492W        W88404  11.350  19.949  27.743 -0.1604  0.2959 -0.2753
45493W        W88405   9.195  20.154  29.588  0.1135 -0.2530  0.1076
45494W        W88406   8.182  18.860  31.535  0.2131  0.0373 -0.1143
45495W        W88407   9.566  19.169  29.330 -0.3055 -0.2089 -0.0351
45496W        W88408   6.832  20.286  28.177  0.0337 -0.1146  0.1365
45497W        W88409   7.719  17.167  28.266  0.3561 -0.1045  0.2019
45498W        W88410   8.544  20.917  26.610 -0.1274 -0.0030  0.0689
45499W        W88411   8.237  21.342  31.243 -0.0430 -0.0259 -0.0299
45500W        W88412   7.532  19.375  31.041 -0.1634  0.0236  0.2212
45501W        W88413   7.938  22.484  27.633 -0.2692 -0.2679  0.2036
45502W        W88414  10.237  20.601  29.577 -0.0086  0.2522  0.3199
45503W        W88415  10.960  20.411  29.012  0.4424  0.3105 -0.2766
45504W        W88416   7.950  23.163  31.059  0.1303  0.0914 -0.1889
45505W        W88417   9.981  18.277  28.490  0.0015  0.1221  0.3100
45506W        W88418   7.400  21.254  29.142  0.1945 -0.3074 -0.2594
45507W        W88419   6.487  20.675  28.766 -0.0136  0.1026 -0.4255
45508W        W88420  10.960  21.207  28.786  0.0249  0.2336  0.1563
45509W        W88421   9.039  21.558  29.558  0.0335 -0.2267 -0.0362
45510W        W88422  11.631  20.858  29.448 -0.0074 -0.1012 -0.2576
45511W        W88423   9.912  18.419  27.789 -0.1314 -0.0817 -0.2563
45512W        W88424  11.716  18.900  28.356 -0.1318  0.3852 -0.1738
45513W        W88425  12.779  19.539  27.674  0.2882 -0.0240  0.0489
45514W        W88426  10.097  21.812  31.978  0.1235 -0.0393  0.0302
45515W        W88427   8.626  19.697  29.711  0.0217  0.2386 -0.1680
45516W        W88428   9.987  18.727  28.267 -0.1451  0.3589  0.0879
45517W        W88429   8.905  19.265  29.832  0.2524  0.0370  0.0365
45518W        W88430  13.062  19.036  29.450  0.1384  0.1342 -0.2312
45519W        W88431   6.433  21.912  30.759  0.3285 -0.0678 -0.0051
45520W        W88432   8.947  21.395  28.163  0.3772  0.3030  0.0729
45521W        W88433   8.056  19.034  29.071  0.1004  0.2194  0.0157
45522W        W88434  10.473  20.754  28.204  0.0339 -0.2376 -0.0360
45523W        W88435  10.646  19.677  29.793  0.2481  0.0673 -0.2963
45524W        W88436   9.289  20.974  27.458 -0.1690 -0.0919 -0.0777
45525W        W88437  11.190  19.103  28.366 -0.1562 -0.0284  0.3526
45526W        W88438   8.522  20.774  29.701  0.0697 -0.2227  0.0476
45527W        W88439   9.714  19.718  29.983  0.4442 -0.0008  0.0089
45528W        W88440   8.176  20.768  31.132  0.1821 -0.0257  0.1957
45529W        W88441   6.268  19.370  28.290 -0.0922  0.1831 -0.1195
45530W        W88442  12.386  18.978  28.447 -0.0552 -0.0997  0.1905
45531W        W88443   8.965  20.163  31.581  0.2294  0.0633 -0.0126
45532W        W88444  11.742  18.734  29.522 -0.2033  0.0162 -0.1488
45533W        W88445   6.517  20.128  29.565  0.1527  0.0319 -0.3555
45534W        W88446  12.004  19.760  28.289  0.0160 -0.2608 -0.1222
45535W        W88447   9.044  21.338  30.672  0.1670 -0.1755 -0.1119
45536W        W88448   7.235  19.026  30.822 -0.1048 -0.3045 -0.2305
45537W        W88449   8.986  20.083  27.975  0.2784  0.0297 -0.3304
45538W        W88450  12.144  21.987  29.002  0.2750  0.2065 -0.0073
45539W        W88451   9.320  19.700  27.105  0.1581  0.1908 -0.0628
45540W        W88452  10.221  21.304  30.101 -0.0440  0.3991 -0.0655
45541W        W88453   8.384  18.404  27.650  0.1755 -0.1026 -0.1197
45542W        W88454  10.645  19.576  26.879  0.2443 -0.0282 -0.2837
45543W        W88455   9.976  19.568  28.694 -0.0176  0.0510  0.0827
45544W        W88456   7.766  20.936  30.306 -0.3977  0.1344 -0.2126
45545W        W88457   9.669  21.993   0.155 -0.0292 -0.0953  0.1799
45546W        W88458   8.043  17.174  27.537  0.2377  0.0178  0.1331
45547W        W88459  11.595  21.957  27.866  0.1048 -0.2884 -0.0063
45548W        W88460  10.561  20.786  29.227  0.0650  0.1909  0.3400
45549W        W88461   8.748  20.873  27.997 -0.2111  0.0544 -0.0700
45550W        W88462  11.529  21.104  28.864 -0.1494 -0.3930  0.0876
45551W        W88463   9.495  21.570  28.264 -0.2530  0.0699 -0.0211
45552W        W88464   8.678  19.165  28.877  0.1626  0.1016 -0.0246
45553W        W88465   9.413  21.074  30.026 -0.1148 -0.0873  0.0866
45554W        W88466  13.151  20.744  29.620 -0.3072 -0.2272  0.1701
45555W        W88467   9.546  17.406  28.566 -0.4498 -0.0293  0.2500
45556W        W88468   8.908  18.825  29.184 -0.2324  0.1491  0.0078
45557W        W88469   8.285  19.976  29.383  0.0844 -0.0321  0.1970
45558W        W88470  10.711  19.693  27.981  0.1652 -0.1204  0.0299
45559W        W88471  11.193  18.699  30.010  0.0275 -0.4774  0.2302
45560W        W88472   8.326  21.940  27.398  0.1839 -0.1687 -0.0437
45561W        W88473  11.138  17.031  29.454  0.0967 -0.1295 -0.2471
45562W        W88474   8.543  22.483  31.410  0.0091  0.2111  0.1189
45563W        W88475   9.241  20.519  31.828 -0.0338  0.0644  0.0349
45564W        W88476   9.117  19.649  27.646  0.3072 -0.3359 -0.0241
45565W        W88477  10.007  19.288  30.420 -0.1069 -0.0021 -0.3705
45566W        W88478   8.034  20.952  29.807 -0.1065 -0.1099  0.1676
45567W        W88479   9.387  21.855  29.394 -0.1080 -0.3341 -0.0945
45568W        W88480  11.123  22.054  28.869  0.0498  0.0697  0.3482
45569W        W88481   9.950  19.216  27.750  0.2055 -0.2280 -0.1451
45570W        W88482  11.341  20.307  28.582 -0.3333 -0.2234  0.1691
45571W        W88483  10.594  20.175  28.131 -0.2273  0.1518 -0.0547
45572W        W88484  11.311  17.069  28.492  0.1050 -0.2052 -0.0777
45573W        W88485  11.337  18.143  26.932  0.2492 -0.1041 -0.1533
45574W        W88486  10.489  20.959  30.654 -0.3346  0.0584  0.0559
45575W        W88487   8.620  20.018  28.438  0.2185 -0.0377  0.2352
45576W        W88488   7.727  20.921  27.047 -0.2236 -0.1278 -0.0734
45577W        W88489   8.924  19.610  28.710  0.4190 -0.1631  0.5331
45578W        W88490   7.926  17.868  31.482 -0.1400  0.1127 -0.1029
45579W        W88491   8.636  19.611  30.225  0.1415 -0.0934 -0.2290
45580W        W88492   6.480  20.392  31.431 -0.2657  0.3237 -0.2556
45581W        W88493   8.051  19.313  28.054 -0.2107  0.0304  0.0487
45582W        W88494  11.281  21.925  28.348 -0.3293 -0.1729  0.1798
45583W        W88495   8.772  17.582  29.848  0.1485 -0.0433 -0.0579
45584W        W88496   9.502  18.096  27.560  0.0672 -0.0201 -0.4568
45585W        W88497  10.466  20.933  27.715 -0.0804  0.1498 -0.0442
45586W        W88498   9.184  21.865  27.993  0.0928  0.1295 -0.2835
45587W        W88499   9.382  16.505  26.907  0.1144  0.0436 -0.1912
45588W        W88500  11.665  20.355  30.151 -0.0248  0.1057  0.3227
45589W        W88501   8.636  20.470  27.454  0.0777 -0.0938  0.1966
45590W        W88502   8.689  19.023  30.277 -0.0953  0.0094  0.1866
45591W        W88503   9.101  18.939  30.940  0.1221 -0.1350  0.3129
45592W        W88504   7.265  19.048  28.254 -0.0338 -0.2119  0.1384
45593W        W88505  10.030  20.393  28.864 -0.0622  0.3349 -0.1515
45594W        W88506   8.615  21.625  28.462  0.0894  0.0054 -0.3130
45595W        W88507   9.261  21.205  28.543 -0.0586 -0.0130  0.0225
45596W        W88508   8.592  20.793  29.018  0.0743  0.2802 -0.2551
45597W        W88509   9.211  21.811   0.266  0.0281 -0.1272 -0.0234
45598W        W88510   8.399  18.578  30.418  0.2085  0.1599  0.0430
45599W        W88511  11.906  21.270  28.510  0.1320 -0.1041  0.0306
45600W        W88512   9.406  20.173  30.035  0.1866 -0.2798 -0.2358
45601W        W88513  12.683  21.698  28.273 -0.1916 -0.0316  0.1337
45602W        W88514  10.990  16.387  27.943 -0.1745 -0.2136 -0.0209
45603W        W88515  10.249  19.914  27.837 -0.3036  0.0032  0.1060
45604W        W88516   9.539  18.985  31.150  0.3309  0.0373  0.1360
45605W        W88517   6.795  18.775  31.591  0.0688 -0.0141  0.0879
45606W        W88518  11.782  20.308  29.642 -0.2569 -0.2023 -0.1937
45607W        W88519   9.247  19.233  28.540 -0.0961  0.1343 -0.0123
45608W        W88520  10.272  18.863  27.638 -0.1646  0.0640  0.0334
45609W        W88521  10.578  20.319  26.980 -0.1203  0.2705  0.5315
45610W        W88522   8.077  18.313  29.718  0.2165 -0.0787 -0.2505
45611W        W88523   9.273  20.142  27.497 -0.2544 -0.2403  0.1537
45612W        W88524  10.711  20.924  29.738  0.0965 -0.0532  0.0181
45613W        W88525   8.106  21.437  29.702  0.1717 -0.0634  0.0749
45614W        W88526  10.643  21.031  30.238 -0.3528  0.0137  0.1336
45615W        W88527   9.496  19.665  28.423  0.4086 -0.0120 -0.1745
45616W        W88528  10.287  20.828  26.488 -0.0412 -0.1635  0.1819
45617W        W88529   8.950  21.450  30.041  0.0463 -0.3228  0.0999
45618W        W88530  10.232  22.111  30.725 -0.0156  0.0265  0.0472
45619W        W88531   8.643  20.639  30.741 -0.1427 -0.3326 -0.0232
45620W        W88532  10.790  21.283  29.399 -0.1666 -0.2339  0.0142
45621W        W88533   7.943  17.782  30.998 -0.0738 -0.0612 -0.1255
45622W        W88534   9.087  17.917  30.026 -0.0158 -0.1383 -0.1394
45623W        W88535   9.282  18.794  29.454 -0.0895  0.0506 -0.0127
45624W        W88536   9.631  18.555  29.227 -0.1435  0.0160 -0.3393
45625W        W88537  10.132  20.870  28.824 -0.1332  0.1014  0.1680
45626W        W88538  11.129  17.606  28.476 -0.3586 -0.3905 -0.1779
45627W        W88539   9.075  20.863  30.487  0.0138  0.0591  0.0379
45628W        W88540   9.984  20.522  28.364  0.1731 -0.2368  0.2195
45629W        W88541  11.403  18.339  30.345 -0.0982 -0.1071  0.1473
45630W        W88542  10.684  20.099  30.278 -0.0345 -0.4168  0.1131
45631W        W88543   7.861  20.181  30.705  0.2139 -0.2914 -0.0483
45632W        W88544   7.550  20.457  30.394  0.0715 -0.3094  0.3111
45633W        W88545   8.985  22.176   0.755  0.0826 -0.1899  0.3006
45634W        W88546   9.003  21.311   0.293  0.0592  0.2295  0.1026
45635W        W88547   9.802  20.156  30.860  0.1538 -0.1980  0.0173
45636W        W88548   9.802  20.219  31.694 -0.2668  0.6123 -0.0141
45637W        W88549  10.563  18.252  29.253  0.1301  0.2772  0.2773
45638W        W88550  12.077  20.773  31.844 -0.2268  0.0961  0.0756
45639W        W88551   9.418  20.346  31.396 -0.3057 -0.3223  0.1126
45640W        W88552   9.649  19.014  30.216 -0.0877  0.5246 -0.0203
45641W        W88553   9.486  21.453   0.108  0.1946  0.3300  0.1696
45642W        W88554   8.451  21.020  31.544  0.2494  0.0163 -0.2058
45643W        W88555  11.567  19.628  31.380  0.1384  0.1694 -0.1565
45644W        W88556   8.667  21.817   0.572  0.0996  0.0906  0.2814
45645W        W88557   7.867  19.580  31.519  0.0069  0.0977  0.1588
45646W        W88558  11.031  20.112  29.854  0.1706 -0.2193 -0.2145
45647W        W88559  10.385  18.380  31.569  0.2319 -0.1559 -0.2120
45648W        W88560   7.467  18.299   0.562 -0.1613  0.1077 -0.0963
45649W        W88561   8.357  17.255   0.048 -0.1266 -0.5062 -0.0753
45650W        W88562   8.837  20.203   0.812 -0.0838  0.1126 -0.2401
45651W        W88563  11.995  18.180  29.718 -0.2253 -0.1642 -0.0772
45652W        W88564  10.005  20.067  29.314 -0.2149 -0.1322  0.1605
45653W        W88565  10.085  18.795  31.586  0.1582 -0.1001 -0.0440
45654W        W88566  10.284  19.096  31.226 -0.0692  0.1901  0.1941
45655W        W88567  10.081  19.766  31.754 -0.1681  0.0802  0.3845
45656W        W88568   7.923  22.286  31.513  0.3441  0.1345  0.0917
45657W        W88569   9.096  18.356  30.908  0.0905 -0.0086  0.4537
45658W        W88570   8.603  18.846  31.224  0.2264 -0.0095 -0.0647
45659W        W88571   8.871  20.855   0.224  0.0096  0.0257 -0.1524
45660W        W88572  10.723  19.117  30.986 -0.0500  0.0378 -0.0308
45661W        W88573  10.854  21.434  30.469 -0.0817 -0.3399  0.1617
45662W        W88574  11.103  17.987  31.004  0.2178  0.1432 -0.2817
45663W        W88575   9.155  18.789  31.462  0.0478 -0.2337  0.2178
45664W        W88576   9.590  20.724  31.159  0.1499  0.0881 -0.0720
45665W        W88577   8.554  19.501   0.088  0.3489  0.0721 -0.0043
45666W        W88578  10.676  20.388  30.688 -0.0730 -0.2169  0.1418
45667W        W88579  12.033  20.679  30.409  0.2242  0.2725 -0.2252
45668W        W88580   9.619  20.521  29.658 -0.0315  0.0077  0.3921
45669W        W88581  12.414  18.626  31.621  0.2817 -0.0413 -0.2736
45670W        W88582   9.396  19.236  29.831 -0.2101  0.2116  0.3264
45671W        W88583   9.492  19.860  30.550 -0.0183 -0.0755  0.0316
45672W        W88584   8.685  21.783   0.069  0.0511  0.2829 -0.0759
45673W        W88585   7.657  19.403   0.162 -0.2572  0.1879 -0.2086
45674W        W88586  10.348  19.327  31.666  0.0968 -0.1707 -0.3865
45675W        W88587  10.978  17.724  31.907 -0.3477 -0.2944  0.2346
45676W        W88588   9.364  20.945   0.046  0.2754  0.0374  0.0195
45677W        W88589  13.699  20.063  31.061  0.0690  0.0520 -0.0490
45678W        W88590   8.521  20.055   0.042  0.4740  0.3390 -0.0758
45679W        W88591  11.879  20.983  31.415  0.1928  0.1242  0.0894
45680W        W88592  10.896  18.348  30.743 -0.2088  0.0369  0.0024
45681W        W88593   9.900  19.263  29.886  0.3628  0.2595  0.2319
45682W        W88594   9.119  20.711  30.937 -0.2046 -0.1129  0.4280
45683W        W88595   9.203  19.300  30.367 -0.1967  0.0643 -0.0946
45684W        W88596  10.477  19.336  28.925  0.2606  0.1890  0.1904
45685W        W88597  10.609  20.540  31.577  0.2107 -0.0819  0.2225
45686W        W88598   9.382  22.594  30.699 -0.3498 -0.1580  0.2651
45687W        W88599   9.817  21.501  31.215 -0.3516 -0.0693  0.1592
45688W        W88600   7.835  18.495   0.249  0.0458  0.3034  0.0744
45689W        W88601   6.998  18.257  31.740  0.0455 -0.1155  0.1484
45690W        W88602   8.081  19.677  29.729  0.0352  0.0258 -0.5801
45691W        W88603   8.257  20.773   0.156  0.1231  0.2112 -0.1955
45692W        W88604   8.381  17.774   0.888  0.2691 -0.1211 -0.0683
45693W        W88605  10.906  21.530   0.826 -0.0257 -0.1210 -0.2918
45694W        W88606  11.208  21.655  31.876 -0.0290 -0.2181 -0.0426
45695W        W88607  11.425  19.841  30.509 -0.3391  0.0115  0.1380
45696W        W88608   7.449  25.535  18.245 -0.1492 -0.1491 -0.1434
45697W        W88609   8.210  23.789  18.074  0.2937  0.0546 -0.3343
45698W        W88610   8.944  22.569  16.486  0.0403  0.0876  0.1612
45699W        W88611  10.498  24.088  17.202 -0.0274 -0.0657 -0.1525
45700W        W88612   6.802  23.209  17.441 -0.0214 -0.1127 -0.0029
45701W        W88613   9.433  26.400  16.582 -0.0213  0.0363  0.0527
45702W        W88614   8.567  21.838  19.589 -0.1733 -0.2062 -0.0774
45703W        W88615   9.663  25.101  17.754  0.0260 -0.0780  0.0316
45704W        W88616  10.051  25.354  19.142  0.1771  0.1869  0.3548
45705W        W88617   9.780  23.358  15.881 -0.2157 -0.0884 -0.1105
45706W        W88618   9.656  23.383  18.978  0.0250 -0.3403  0.0737
45707W        W88619   8.370  23.979  20.458 -0.1096 -0.0833 -0.2986
45708W        W88620   8.851  22.024  16.417  0.1547  0.0603  0.5031
45709W        W88621   7.701  22.782  18.993 -0.2979 -0.1530  0.0610
45710W        W88622  10.038  22.953  18.079  0.0261  0.1939  0.0209
45711W        W88623   6.775  23.993  16.344 -0.0677 -0.1026 -0.0824
45712W        W88624   8.771  22.848  18.767  0.2545  0.0347 -0.0360
45713W        W88625   9.535  22.132  18.561  0.1988  0.0963  0.0754
45714W        W88626   8.772  26.849  17.688 -0.3013 -0.1824  0.0722
45715W        W88627   8.351  23.623  18.791  0.1229  0.2724 -0.1304
45716W        W88628   9.187  22.315  18.029  0.0945 -0.2214 -0.2175
45717W        W88629   9.438  24.954  17.326 -0.2026  0.2420  0.2168
45718W        W88630   8.254  22.330  17.645  0.2661 -0.1432  0.1598
45719W        W88631   7.298  23.892  18.266  0.0274 -0.0567  0.1582
45720W        W88632   7.858  22.951  18.446  0.1399 -0.1262  0.3142
45721W        W88633   8.774  23.176  17.850 -0.1321 -0.0734 -0.1360
45722W        W88634  10.382  24.531  17.741 -0.1361  0.0481 -0.2290
45723W        W88635   8.499  23.074  18.421  0.3059 -0.3562  0.0698
45724W        W88636   7.983  25.123  18.530  0.1083 -0.0296 -0.2115
45725W        W88637   9.522  23.260  20.575  0.2577 -0.0720  0.0932
45726W        W88638   6.978  23.439  18.104 -0.1316  0.0227  0.0926
45727W        W88639   8.358  26.004  17.002  0.0900 -0.0855  0.1272
45728W        W88640   8.449  24.550  19.023 -0.1709 -0.3002  0.4522
45729W        W88641   9.857  25.385  15.899  0.1625 -0.0935  0.2800
45730W        W88642  10.331  25.424  19.963  0.3214  0.0814  0.1697
45731W        W88643   8.666  26.422  20.533 -0.0554 -0.0429 -0.0458
45732W        W88644   8.507  24.055  16.812  0.3644  0.2509 -0.0094
45733W        W88645   9.510  25.902  18.696 -0.3693 -0.1129 -0.2495
45734W        W88646   8.123  25.308  19.615  0.1023  0.1558 -0.0479
45735W        W88647   9.789  23.005  18.604 -0.2845  0.2867 -0.0421
45736W        W88648   9.388  22.630  18.379 -0.0444 -0.2318 -0.1394
45737W        W88649   9.330  25.439  17.347 -0.1502 -0.1988 -0.0782
45738W        W88650   8.284  24.700  18.325 -0.0189  0.1515 -0.0542
45739W        W88651   7.792  23.352  19.983  0.2627 -0.0063  0.0581
45740W        W88652   8.176  25.058  17.773 -0.1098 -0.0368 -0.1481
45741W        W88653  11.406  23.198  19.992  0.1233 -0.0774  0.1661
45742W        W88654   8.003  25.054  16.710 -0.3250  0.2050  0.1366
45743W        W88655  10.278  22.874  17.060 -0.0785 -0.2972  0.0497
45744W        W88656   8.189  22.489  16.760  0.1114  0.1077 -0.0750
45745W        W88657   9.890  24.106  17.212 -0.0658  0.3681 -0.1007
45746W        W88658   7.854  22.439  18.526  0.2659  0.0428 -0.0481
45747W        W88659   8.006  25.545  18.221 -0.2554  0.1499  0.3585
45748W        W88660   7.570  21.881  17.978 -0.3250  0.0830 -0.1423
45749W        W88661   9.158  25.087  18.911 -0.3733  0.2320 -0.0510
45750W        W88662   8.515  23.815  17.703 -0.0658  0.2482 -0.2403
45751W        W88663   8.593  22.330  18.766 -0.0003  0.2072  0.1331
45752W        W88664   8.519  25.888  19.777 -0.3248 -0.1048 -0.3923
45753W        W88665   8.795  23.749  16.549  0.0596 -0.2676 -0.1128
45754W        W88666   9.750  23.416  16.418 -0.0615  0.1087 -0.3688
45755W        W88667  10.224  25.397  17.371 -0.0316  0.2241 -0.0307
45756W        W88668   8.887  25.308  17.139  0.0775 -0.0456 -0.1584
45757W        W88669   8.600  23.315  16.482 -0.1587 -0.0066 -0.0679
45758W        W88670   8.118  24.213  17.121  0.1317  0.0387 -0.1512
45759W        W88671   7.386  22.691  18.581  0.1079 -0.1546 -0.1932
45760W        W88672   7.987  22.389  17.238 -0.0146 -0.0231  0.0085
45761W        W88673  10.213  25.063  18.754 -0.0684  0.0368  0.1582
45762W        W88674   6.661  24.217  20.028  0.0168  0.0152  0.1781
45763W        W88675  10.101  22.054  18.445 -0.1105  0.0350  0.1325
45764W        W88676   9.050  23.310  18.256 -0.2722 -0.2889 -0.1410
45765W        W88677  10.541  24.937  18.115  0.1223  0.1843  0.2689
45766W        W88678   9.980  25.198  16.435  0.1671 -0.2543 -0.2257
45767W        W88679  10.793  22.075  18.751  0.0729 -0.1717  0.0842
45768W        W88680   9.135  22.434  18.711 -0.1172  0.2967 -0.0019
45769W        W88681   8.728  22.913  16.176 -0.2820  0.0580 -0.2287
45770W        W88682   9.892  22.779  16.700 -0.2171 -0.0762  0.1845
45771W        W88683  10.602  25.430  17.895  0.2747 -0.0129  0.6250
45772W        W88684   9.930  24.977  17.286  0.2597  0.2712 -0.0783
45773W        W88685   8.337  24.851  19.403  0.3246 -0.0305  0.0116
45774W        W88686   8.161  23.753  19.883  0.1198  0.2464 -0.2402
45775W        W88687   8.280  24.745  19.876 -0.1007 -0.0783  0.1085
45776W        W88688   8.352  24.641  17.033 -0.3246  0.3506 -0.1477
45777W        W88689   6.530  24.235  17.835  0.1550 -0.2297  0.0316
45778W        W88690   9.236  24.840  15.940  0.0994 -0.2351  0.0910
45779W        W88691   7.317  21.895  18.925 -0.1040 -0.1442  0.0864
45780W        W88692   9.260  23.743  18.352  0.4259 -0.0467  0.1094
45781W        W88693  10.428  23.644  17.582  0.0813 -0.0551  0.0156
45782W        W88694   8.117  21.559  18.298 -0.2179 -0.0550  0.0757
45783W        W88695   9.542  23.055  18.163 -0.0948 -0.0575  0.0604
45784W        W88696   7.440  24.701  17.956  0.1179  0.0658 -0.0730
45785W        W88697   9.689  25.633  16.442  0.1231  0.2375  0.0661
45786W        W88698  11.613  24.317  17.414  0.2781  0.2266 -0.0980
45787W        W88699  10.200  24.160  16.242  0.0091 -0.1269  0.3223
45788W        W88700   7.784  22.322  19.424  0.0319  0.2248  0.0502
45789W        W88701   7.716  23.698  18.011 -0.2449  0.0510  0.2395
45790W        W88702   8.547  23.138  20.551 -0.0477 -0.1160 -0.2086
45791W        W88703   6.777  21.918  18.864 -0.1313 -0.3583 -0.3144
45792W        W88704  10.743  24.737  18.823  0.3932 -0.0098  0.1583
45793W        W88705   8.330  21.968  18.548  0.1641 -0.1065 -0.2646
45794W        W88706   9.711  23.288  17.244  0.1065 -0.0328 -0.1357
45795W        W88707   8.700  22.362  16.883  0.0869  0.0702  0.4294
45796W        W88708   6.872  24.558  16.318  0.2410 -0.2700  0.1190
45797W        W88709  10.740  23.647  20.123  0.0380  0.1111  0.2735
45798W        W88710  10.128  25.963  17.150  0.3958  0.1428  0.0839
45799W        W88711  11.466  25.728  19.364  0.2663 -0.1305 -0.0112
45800W        W88712  10.368  25.822  18.035 -0.0245  0.2622  0.0233
45801W        W88713   8.337  22.365  19.513 -0.3372 -0.0203 -0.1279
45802W        W88714   8.445  22.632  17.225 -0.0282 -0.0861 -0.0297
45803W        W88715   7.207  26.025  18.122 -0.1909 -0.2655 -0.1153
45804W        W88716   9.169  24.825  19.980  0.3383 -0.4427 -0.1966
45805W        W88717   8.882  22.628  17.426 -0.2092  0.2344  0.2694
45806W        W88718   9.625  25.878  17.009 -0.1326 -0.3907 -0.0703
45807W        W88719   8.015  23.368  18.262 -0.1345  0.1069  0.1047
45808W        W88720   7.062  24.805  18.351  0.0084  0.0913 -0.0294
45809W        W88721   9.819  22.455  19.351 -0.0133  0.2688 -0.1266
45810W        W88722  10.173  24.105  18.390 -0.3083 -0.1876 -0.0749
45811W        W88723  11.186  24.559  17.593 -0.2752 -0.1218 -0.1367
45812W        W88724   8.640  23.553  16.967 -0.0639 -0.0527 -0.4644
45813W        W88725   9.164  25.886  18.086  0.1872 -0.0531  0.1088
45814W        W88726   8.863  24.764  17.308 -0.0202 -0.1588 -0.3789
45815W        W88727   7.474  23.552  16.982 -0.1213 -0.4318  0.1158
45816W        W88728   8.680  24.655  17.911 -0.2144  0.3239  0.0710
45817W        W88729  10.830  23.666  17.285 -0.0090 -0.1377 -0.2319
45818W        W88730   8.306  23.478  20.254  0.1881  0.3883 -0.0798
45819W        W88731   9.141  23.704  19.360  0.2880 -0.3738  0.0692
45820W        W88732   8.375  23.207  17.301 -0.0582  0.0389  0.2632
45821W        W88733   8.452  24.980  18.772 -0.1249  0.4495 -0.2540
45822W        W88734   9.136  21.521  17.901  0.1340 -0.2662  0.0286
45823W        W88735  11.010  24.142  17.133 -0.2081  0.1774 -0.3812
45824W        W88736   9.717  24.432  20.055  0.0783  0.0795 -0.0055
45825W        W88737  10.594  23.790  18.441 -0.0838  0.1723 -0.0131
45826W        W88738   9.561  23.111  16.790  0.1833  0.0378 -0.1258
45827W        W88739  11.328  22.278  16.392 -0.1364 -0.1026  0.0717
45828W        W88740   7.298  25.133  19.769 -0.1562  0.1417  0.0128
45829W        W88741   9.857  24.565  17.569  0.0535 -0.0563  0.0264
45830W        W88742   8.862  24.941  18.480  0.0654  0.3699  0.1505
45831W        W88743  10.167  23.693  17.082  0.3105 -0.1327  0.1038
45832W        W88744   9.241  25.467  16.849 -0.2484 -0.0786  0.1452
45833W        W88745   7.070  25.773  18.511  0.0645  0.2984  0.1908
45834W        W88746  10.501  25.446  19.515 -0.1862 -0.2802  0.2082
45835W        W88747   7.654  24.091  18.750 -0.0101 -0.1269 -0.1429
45836W        W88748   8.480  22.720  20.232  0.1108  0.0946 -0.0566
45837W        W88749   9.388  21.537  17.418 -0.0928  0.1512  0.0626
45838W        W88750   8.630  21.671  18.242  0.2496  0.1901 -0.1767
45839W        W88751   8.376  25.157  18.217 -0.0932 -0.1192  0.0469
45840W        W88752  10.186  21.882  17.230  0.1325 -0.1654 -0.2129
45841W        W88753   8.032  21.071  16.969  0.2331 -0.3171  0.1743
45842W        W88754   8.777  23.360  18.735 -0.3015  0.1293 -0.0783
45843W        W88755  10.510  24.495  19.644 -0.1375  0.2285 -0.0950
45844W        W88756  10.162  24.257  16.736  0.1271  0.3454 -0.3696
45845W        W88757   9.953  23.433  17.849  0.0477  0.0298 -0.1342
45846W        W88758   9.037  23.929  16.123 -0.0084 -0.3837  0.0599
45847W        W88759   8.847  22.149  18.375  0.1492  0.1154 -0.1456
45848W        W88760   7.516  23.205  18.809 -0.1543  0.2253  0.2268
45849W        W88761   8.273  26.223  19.492  0.3633 -0.1106  0.2690
45850W        W88762   8.795  23.834  18.662  0.0800  0.0180 -0.2204
45851W        W88763   9.249  24.402  17.267  0.0083 -0.2465 -0.1706
45852W        W88764   9.190  23.595  18.852  0.0392  0.1127 -0.2039
45853W        W88765   9.745  23.739  17.522  0.0845  0.2242  0.2698
45854W        W88766   9.909  24.654  16.431 -0.0702  0.3111 -0.3207
45855W        W88767  10.109  23.779  16.628 -0.0260 -0.2099  0.0461
45856W        W88768   8.296  20.543  18.297 -0.0765 -0.3128 -0.0999
45857W        W88769  10.306  26.720  18.831  0.1069 -0.0518  0.0282
45858W        W88770   9.410  24.391  16.167  0.1871 -0.0458  0.0881
45859W        W88771  10.012  25.447  17.873 -0.1132  0.0425 -0.1029
45860W        W88772   7.300  24.051  17.066 -0.3794  0.0880  0.0253
45861W        W88773  10.620  21.869  17.441  0.0205 -0.1803 -0.2751
45862W        W88774   8.377  25.562  18.549 -0.0443  0.2121 -0.1449
45863W        W88775   8.593  22.863  16.743 -0.1259 -0.1894 -0.2327
45864W        W88776   7.182  21.820  18.450 -0.0315  0.1739  0.0749
45865W        W88777   9.912  22.281  18.853  0.0516  0.0523 -0.2077
45866W        W88778  11.057  24.046  16.497 -0.2287  0.0081 -0.2207
45867W        W88779   7.171  23.006  17.892  0.5117  0.1163 -0.0135
45868W        W88780   8.018  21.132  18.540 -0.3795 -0.0108  0.2016
45869W        W88781   8.801  25.382  18.787  0.0625 -0.1989 -0.1940
45870W        W88782  10.158  24.034  17.658 -0.0851  0.0416 -0.1874
45871W        W88783  10.053  22.420  15.946 -0.0049 -0.3451 -0.3350
45872W        W88784   9.009  24.556  19.008 -0.0924  0.0121  0.0087
45873W        W88785   8.602  24.014  19.682  0.2665  0.1487 -0.0480
45874W        W88786   9.241  23.627  16.685 -0.1076 -0.1664 -0.0823
45875W        W88787  11.315  23.763  20.284  0.0110 -0.0153 -0.1811
45876W        W88788   8.858  22.664  18.293 -0.2623 -0.2669  0.0822
45877W        W88789   7.724  25.235  17.957 -0.3515 -0.2958  0.1986
45878W        W88790   9.716  24.422  18.444 -0.1732  0.0110 -0.1159
45879W        W88791   9.252  23.908  17.559 -0.0712 -0.1494  0.1885
45880W        W88792   7.563  25.161  18.921  0.2353 -0.1854 -0.0482
45881W        W88793   9.068  22.615  19.207  0.0405  0.3727 -0.0835
45882W        W88794  10.508  24.150  18.006  0.1899  0.2250  0.0131
45883W        W88795   8.505  22.684  19.180  0.0754  0.0359 -0.0440
45884W        W88796   8.409  22.471  18.279 -0.0829 -0.1667  0.0479
45885W        W88797   9.505  24.295  17.744 -0.0371  0.3564  0.0633
45886W        W88798   9.986  24.352  17.996 -0.1074  0.2208 -0.0586
45887W        W88799   9.217  23.031  18.658 -0.0163 -0.0209  0.1647
45888W        W88800   6.626  24.810  21.863  0.1296 -0.3184 -0.1645
45889W        W88801   8.198  21.946  17.082 -0.0570  0.3675 -0.1446
45890W        W88802  11.276  25.548  16.354  0.0811 -0.2460  0.3498
45891W        W88803   8.705  23.620  19.192 -0.0962  0.1653  0.1310
45892W        W88804   7.446  25.300  17.516 -0.0356 -0.0639 -0.3639
45893W        W88805   7.439  24.715  18.796 -0.2408 -0.0169 -0.0305
45894W        W88806   7.776  24.193  16.739 -0.4536  0.2329  0.1783
45895W        W88807   8.690  21.355  17.795 -0.0430  0.0771  0.4049
45896W        W88808   9.478  24.536  19.647  0.0891 -0.1859  0.4316
45897W        W88809   8.337  24.313  18.040  0.1619  0.2526  0.4456
45898W        W88810   7.755  23.721  20.863  0.2118 -0.1706  0.1722
45899W        W88811  10.004  21.983  16.795  0.1377 -0.4643  0.0332
45900W        W88812  10.637  25.440  15.616 -0.1111 -0.1862  0.0476
45901W        W88813   9.951  23.211  19.500  0.0743 -0.1061 -0.0998
45902W        W88814  10.385  24.644  19.185  0.1241 -0.0821 -0.2753
45903W        W88815  10.108  23.216  16.736  0.1412 -0.3600  0.2795
45904W        W88816   9.474  23.470  20.052  0.0316  0.0316 -0.1704
45905W        W88817   6.154  21.519  18.714 -0.4627 -0.0420 -0.0598
45906W        W88818  10.079  24.563  18.817  0.1719  0.1341 -0.1188
45907W        W88819   8.711  21.712  20.045 -0.2712  0.1617 -0.3127
45908W        W88820  10.107  26.593  20.013  0.1513  0.1031  0.2400
45909W        W88821   6.923  23.971  21.162  0.0634 -0.0721 -0.2654
45910W        W88822   9.211  23.010  17.295 -0.2357  0.2898 -0.1698
45911W        W88823   8.363  21.701  17.470  0.1693 -0.0213  0.1295
45912W        W88824   7.470  22.798  17.473 -0.0224  0.1956 -0.0834
45913W        W88825  11.190  24.257  18.076 -0.1310  0.1503  0.4237
45914W        W88826   7.694  24.373  17.371  0.1163  0.3936 -0.0070
45915W        W88827  10.813  24.169  17.615  0.0516 -0.1711  0.0584
45916W        W88828   6.799  24.306  18.303 -0.1585  0.2656  0.0855
45917W        W88829   8.602  24.148  17.305  0.0644 -0.3640 -0.2007
45918W        W88830   9.269  23.516  17.205 -0.0809  0.1288 -0.1139
45919W        W88831   7.519  25.064  18.386 -0.0598  0.1567  0.1600
45920W        W88832   8.357  21.870  17.916  0.3400 -0.1044  0.0075
45921W        W88833  10.152  24.991  17.774  0.0124  0.3921  0.2267
45922W        W88834   9.111  22.082  17.268  0.1666  0.0109  0.1043
45923W        W88835   8.419  21.869  19.046  0.1357 -0.1046 -0.1369
45924W        W88836   9.839  24.720  19.264 -0.2161 -0.1822 -0.3821
45925W        W88837   7.746  24.165  19.304 -0.0526  0.1686  0.0715
45926W        W88838   8.986  22.608  20.166  0.1064  0.1196  0.1333
45927W        W88839  10.019  25.555  20.584  0.0511 -0.0549  0.3302
45928W        W88840  10.247  22.778  16.320 -0.0285 -0.1364 -0.3430
45929W        W88841  10.136  22.626  20.152 -0.1463  0.3949 -0.1629
45930W        W88842   8.754  23.998  18.182 -0.0449 -0.1885 -0.1014
45931W        W88843   9.696  23.628  16.879 -0.2961  0.1983 -0.0095
45932W        W88844   7.454  23.308  18.330  0.1427 -0.1691 -0.0096
45933W        W88845   9.875  23.672  19.831 -0.1108 -0.1827  0.0304
45934W        W88846   8.326  23.908  15.709 -0.0386 -0.1061  0.0193
45935W        W88847  10.419  25.625  18.902 -0.0069 -0.3126 -0.0714
45936W        W88848   8.331  25.325  16.341  0.2929 -0.2427 -0.3723
45937W        W88849  10.313  23.669  18.062  0.0343  0.2714  0.2562
45938W        W88850  10.400  23.207  17.801  0.2034  0.2260 -0.0251
45939W        W88851   7.249  23.181  16.540 -0.0099 -0.1998 -0.2395
45940W        W88852   8.349  24.301  20.015 -0.1887  0.0460 -0.0927
45941W        W88853   7.466  23.858  16.583 -0.2958 -0.1050  0.1088
45942W        W88854   9.765  24.566  17.057  0.1120 -0.0825 -0.1075
45943W        W88855   9.096  24.347  18.168 -0.0582 -0.0846  0.3003
45944W        W88856   9.619  25.161  19.216  0.1187 -0.0266  0.1106
45945W        W88857  10.037  22.382  17.068 -0.2798  0.0198  0.0418
45946W        W88858   9.997  22.922  19.106  0.1434 -0.1458 -0.2418
45947W        W88859   6.144  23.912  18.765 -0.0489 -0.2635  0.2266
45948W        W88860   9.435  22.000  17.693  0.2634 -0.1354  0.0528
45949W        W88861   8.452  26.924  17.272 -0.1269  0.1235 -0.0699
45950W        W88862   7.215  24.636  19.303 -0.0096 -0.1166 -0.2028
45951W        W88863   7.162  25.262  18.621  0.2615 -0.0403 -0.3380
45952W        W88864   9.045  21.076  18.946 -0.0460 -0.1164  0.1103
45953W        W88865   8.954  21.122  18.131  0.1009  0.2308 -0.3681
45954W        W88866   8.162  23.853  19.410 -0.4961  0.0650  0.0650
45955W        W88867   9.099  24.246  19.377  0.2053 -0.3422 -0.0344
45956W        W88868   8.336  26.274  19.984 -0.0200  0.0842 -0.1170
45957W        W88869   6.912  23.908  18.599 -0.1894  0.1618  0.3383
45958W        W88870   9.255  24.651  18.574 -0.0393 -0.0995 -0.1620
45959W        W88871  11.439  24.987  18.635 -0.0995 -0.1251  0.3092
45960W        W88872   8.738  24.941  19.180 -0.0282  0.1078  0.2583
45961W        W88873   6.618  23.475  21.017  0.0912  0.2132 -0.2544
45962W        W88874   7.469  23.822  20.089 -0.1499  0.1220  0.1085
45963W        W88875   9.370  23.396  17.682 -0.3499 -0.1281  0.0990
45964W        W88876   7.168  22.498  17.793  0.1579 -0.0626 -0.0502
45965W        W88877   9.620  24.715  18.080  0.4169 -0.3449  0.0923
45966W        W88878   6.453  23.776  20.646 -0.0682  0.1636 -0.0568
45967W        W88879   6.899  22.604  18.214 -0.1665  0.2068  0.3773
45968W        W88880   8.151  26.413  16.770  0.0417 -0.0664  0.0683
45969W        W88881  10.235  25.061  16.863  0.0844 -0.2627 -0.0007
45970W        W88882   9.940  25.483  16.857 -0.1410  0.3338 -0.2700
45971W        W88883   9.125  25.618  18.504 -0.0335  0.1378  0.0189
45972W        W88884   8.883  22.474  15.959 -0.2315  0.0301 -0.1284
45973W        W88885   7.733  25.759  17.824  0.1980 -0.0216 -0.2117
45974W        W88886   7.506  25.070  16.647  0.2104  0.0893  0.4225
45975W        W88887   9.487  25.579  17.861 -0.1813 -0.3870 -0.1395
45976W        W88888   7.206  25.711  17.749  0.0605 -0.2564 -0.2929
45977W        W88889  10.652  25.102  19.149 -0.0235  0.0303 -0.1142
45978W        W88890  10.577  22.181  15.685 -0.1998 -0.0390  0.4117
45979W        W88891  12.197  23.251  17.108  0.0766  0.1574  0.1959
45980W        W88892  11.437  23.770  17.067 -0.1185 -0.1851 -0.0679
45981W        W88893  10.008  26.016  18.898  0.2255  0.0383  0.0031
45982W        W88894   8.152  23.054  19.755 -0.1412  0.0969  0.0670
45983W        W88895   9.130  22.176  16.769  0.1488 -0.1475  0.1094
45984W        W88896   6.940  23.737  19.318 -0.0480  0.1275 -0.0035
45985W        W88897  10.245  22.741  20.689 -0.0090 -0.2645  0.0780
45986W        W88898   7.560  25.806  20.300  0.0201  0.0041 -0.0208
45987W        W88899  10.286  25.661  16.483  0.2839  0.2144  0.1106
45988W        W88900   7.698  22.688  18.062  0.1022 -0.1669  0.1667
45989W        W88901   8.363  24.028  18.484 -0.2478  0.0346 -0.2497
45990W        W88902   9.690  22.756  19.856  0.0375 -0.0266 -0.0698
45991W        W88903   9.478  24.062  16.959  0.2452  0.0674  0.0882
45992W        W88904   9.626  22.553  17.963  0.1936  0.0568  0.2313
45993W        W88905   8.250  25.167  17.287 -0.1019 -0.2433 -0.2179
45994W        W88906   8.401  25.537  17.921  0.1035  0.0246 -0.0907
45995W        W88907   9.490  26.544  19.411 -0.1314 -0.2129  0.1765
45996W        W88908   6.732  22.758  16.018  0.0464 -0.0695 -0.5606
45997W        W88909  10.703  23.167  17.276 -0.1467 -0.0734 -0.1136
45998W        W88910   7.437  23.656  18.702 -0.2842  0.5011 -0.1335
45999W        W88911  11.245  22.792  19.500  0.2025  0.0216  0.0488
46000W        W88912   8.270  23.334  17.835  0.2453  0.0008  0.0256
46001W        W88913   9.652  22.796  17.144  0.0361 -0.0760  0.1687
46002W        W88914   9.759  24.944  18.707  0.3398 -0.1839 -0.0856
46003W        W88915   6.678  23.465  18.485 -0.0408  0.0091  0.1844
46004W        W88916   9.805  22.323  16.392 -0.1254  0.0239 -0.1939
46005W        W88917  11.472  25.276  19.480 -0.0027 -0.3792 -0.0449
46006W        W88918  10.698  24.458  16.829  0.3335  0.1523 -0.1531
46007W        W88919   9.254  25.110  21.085  0.0962  0.1136  0.0183
46008W        W88920   7.030  21.613  17.886 -0.1089  0.0323 -0.0563
46009W        W88921  10.206  23.275  17.342 -0.3522  0.0736  0.1258
46010W        W88922   8.678  24.399  18.610 -0.0826 -0.0616  0.0108
46011W        W88923   9.866  23.844  18.088 -0.0659  0.1510  0.0963
46012W        W88924  10.711  26.046  21.098  0.3358 -0.0823 -0.0950
46013W        W88925   7.586  21.501  18.345  0.0228 -0.1311  0.1395
46014W        W88926  10.722  24.940  16.901  0.1147 -0.1272 -0.0418
46015W        W88927  10.934  23.358  17.708 -0.0955 -0.0870  0.1135
46016W        W88928   8.501  24.887  16.588  0.2519  0.0632 -0.0968
46017W        W88929   9.866  24.404  15.911  0.1499  0.3227 -0.3621
46018W        W88930   9.803  25.322  18.301 -0.0854  0.2308  0.1756
46019W        W88931   7.659  21.983  18.538  0.1324  0.3285 -0.0184
46020W        W88932  10.268  25.964  18.492  0.2177 -0.3264  0.0615
46021W        W88933  11.163  26.047  18.446 -0.1400 -0.0262 -0.1041
46022W        W88934   9.096  22.759  17.895  0.0352 -0.3390  0.3091
46023W        W88935   7.870  24.149  18.243 -0.2225  0.0843  0.0956
46024W        W88936   8.695  25.168  17.679  0.1045 -0.2059  0.1239
46025W        W88937  12.331  21.951  18.341  0.3116 -0.3169  0.2120
46026W        W88938  10.158  23.297  18.908  0.0493 -0.0239  0.0043
46027W        W88939   8.602  23.656  16.045  0.3314  0.0393  0.0832
46028W        W88940   9.561  22.610  18.874 -0.1471  0.1179  0.1396
46029W        W88941   9.214  24.971  19.492 -0.0549  0.0679  0.0865
46030W        W88942   9.348  25.410  19.549 -0.1028 -0.1739 -0.3003
46031W        W88943   9.121  24.214  16.629  0.0582 -0.3334  0.1066
46032W        W88944   7.919  23.743  18.559 -0.0215  0.1885  0.0939
46033W        W88945   7.915  24.517  17.895 -0.0380  0.0817  0.1495
46034W        W88946   9.654  26.312  18.480  0.3053  0.1891  0.0362
46035W        W88947  10.083  26.250  18.125  0.0910  0.0990 -0.1390
46036W        W88948   9.001  23.955  17.059  0.1511  0.0435 -0.3008
46037W        W88949  12.553  23.506  16.940 -0.1204  0.1293  0.2867
46038W        W88950   8.704  23.678  19.997  0.2563  0.0185  0.2060
46039W        W88951  11.912  21.649  17.085  0.3288 -0.1464 -0.2385
46040W        W88952  10.667  22.574  15.968  0.2271 -0.1281  0.0227
46041W        W88953   8.987  23.650  17.897 -0.0981 -0.2428  0.0742
46042W        W88954   8.173  23.268  16.663 -0.0836 -0.1711  0.0401
46043W        W88955   8.407  24.074  16.275 -0.0287 -0.0315 -0.1302
46044W        W88956   8.889  24.254  17.709 -0.1451  0.0545 -0.2096
46045W        W88957   8.727  22.556  19.739  0.2265 -0.0623  0.0204
46046W        W88958   7.709  23.717  19.603  0.5613  0.0096 -0.0222
46047W        W88959   6.724  25.067  17.867 -0.0600  0.1575 -0.3986
46048W        W88960   7.497  24.233  17.882  0.2406  0.1683 -0.0081
46049W        W88961  11.291  25.066  16.753 -0.2316 -0.0741 -0.1170
46050W        W88962   7.283  21.417  18.746 -0.0634  0.0177 -0.1431
46051W        W88963   5.970  21.319  19.213 -0.0773  0.0574  0.2671
46052W        W88964   9.779  25.500  17.435  0.0640 -0.2581  0.3871
46053W        W88965  10.414  24.970  17.301 -0.2237  0.0896 -0.0700
46054W        W88966   8.693  22.405  17.870 -0.3436  0.2973  0.3424
46055W        W88967  11.879  24.982  19.163 -0.0939  0.4123  0.3995
46056W        W88968   7.705  24.642  16.593  0.2590 -0.1580  0.2085
46057W        W88969   9.016  23.147  19.124 -0.0176  0.1199  0.2541
46058W        W88970   9.267  21.588  18.915  0.0406  0.1457  0.0703
46059W        W88971   8.619  22.101  17.348  0.1764  0.3900  0.0972
46060W        W88972   7.937  22.172  18.138  0.1012  0.0433 -0.4245
46061W        W88973   9.143  24.913  16.941  0.0504 -0.5925 -0.0062
46062W        W88974   8.044  25.627  17.028  0.1986  0.1541 -0.0398
46063W        W88975   8.397  25.464  19.057 -0.1468  0.1881  0.1383
46064W        W88976   9.708  25.685  19.084 -0.0460 -0.3809 -0.1349
46065W        W88977   8.039  22.782  19.341 -0.1030  0.1274 -0.2583
46066W        W88978  10.240  24.508  17.153 -0.0924 -0.0863  0.1179
46067W        W88979   8.242  24.364  19.501 -0.0701  0.2022  0.0110
46068W        W88980  11.577  24.680  16.499  0.1532 -0.0834  0.1597
46069W        W88981  10.675  22.269  18.008  0.1925 -0.1591  0.1534
46070W        W88982   8.807  24.418  16.946 -0.1233  0.2832  0.0899
46071W        W88983   8.353  22.064  19.957  0.0703 -0.0996  0.1636
46072W        W88984   7.039  24.691  19.818  0.1621  0.1147 -0.1046
46073W        W88985  10.422  24.542  18.455  0.0434  0.0387  0.0510
46074W        W88986   8.273  23.728  17.270 -0.1797  0.1092  0.1335
46075W        W88987   9.503  22.409  17.489 -0.1386 -0.2034  0.1018
46076W        W88988  10.049  24.887  18.316 -0.0060  0.2538 -0.0801
46077W        W88989   7.659  23.145  17.910 -0.2332 -0.2324 -0.3714
46078W        W88990   7.946  24.006  17.659 -0.2683  0.0635 -0.1393
46079W        W88991   8.640  24.110  19.139  0.1324  0.2534  0.0191
46080W        W88992   8.561  23.523  18.232 -0.2113 -0.0201 -0.0969
46081W        W88993   9.166  25.693  19.020  0.1516  0.0584 -0.2567
46082W        W88994   8.829  23.515  17.415  0.0957 -0.1140  0.0186
46083W        W88995  11.652  22.613  15.795 -0.0160 -0.0733 -0.1789
46084W        W88996   9.496  25.372  18.748  0.1550  0.2829  0.1749
46085W        W88997  10.654  25.898  19.263 -0.2331 -0.0212 -0.1468
46086W        W88998   7.498  25.647  18.770 -0.0334  0.4605  0.0248
46087W        W88999  10.783  23.732  17.951  0.0705  0.2195  0.0902
46088W        W89000   6.367  21.597  19.574 -0.0770  0.4257  0.0566
46089W        W89001   7.477  23.790  17.497  0.2489 -0.3556 -0.2137
46090W        W89002   5.806  23.120  18.591  0.0301 -0.1204  0.0464
46091W        W89003   9.171  22.879  19.767  0.2054  0.1861  0.1350
46092W        W89004   8.196  22.834  18.061  0.1788  0.2407 -0.1685
46093W        W89005   9.555  22.356  16.942  0.1012 -0.0924 -0.3850
46094W        W89006   7.818  24.673  19.289  0.0834  0.4769 -0.2269
46095W        W89007   8.122  24.132  18.954  0.1450 -0.0571  0.1542
46096W        W89008   9.242  26.685  23.270  0.4044  0.0307 -0.3586
46097W        W89009   9.366  22.926  20.234 -0.1393 -0.0534  0.2004
46098W        W89010  10.067  24.037  20.695  0.0572 -0.0309 -0.2152
46099W        W89011  11.122  23.655  19.796  0.1232  0.2195  0.2633
46100W        W89012   8.437  23.280  21.463 -0.0298  0.3364 -0.0026
46101W        W89013   9.941  26.031  22.231 -0.0379  0.0843 -0.2971
46102W        W89014   8.549  21.345  23.726  0.0840 -0.6429 -0.1352
46103W        W89015   9.568  25.656  21.621 -0.1402 -0.2604  0.4977
46104W        W89016  10.458  26.018  23.864  0.1157  0.4045  0.0775
46105W        W89017   8.681  23.596  20.566 -0.0110 -0.0540  0.1157
46106W        W89018   9.206  22.422  24.453 -0.0460 -0.0141 -0.0609
46107W        W89019  10.030  24.096  22.125  0.4401  0.1695  0.3273
46108W        W89020  10.638  22.505  20.266  0.0381 -0.2020 -0.0092
46109W        W89021   7.698  22.397  21.658 -0.2276 -0.2596  0.1214
46110W        W89022   9.293  24.651  22.929  0.1309 -0.0997  0.0973
46111W        W89023   7.360  23.196  21.483  0.3839 -0.1570  0.2509
46112W        W89024   8.098  23.262  22.827  0.0625 -0.0078 -0.1172
46113W        W89025  10.342  24.742  20.771 -0.4614 -0.0722 -0.1389
46114W        W89026   8.849  25.302  20.789 -0.0838 -0.0855 -0.3780
46115W        W89027   9.324  22.042  22.224  0.2707 -0.0428  0.2000
46116W        W89028  11.464  21.825  24.355 -0.1124  0.0607 -0.0885
46117W        W89029   8.520  24.428  20.780  0.2441 -0.1028  0.1431
46118W        W89030   7.645  22.444  20.198 -0.0159 -0.2236 -0.0424
46119W        W89031   7.845  22.565  22.559 -0.1315 -0.0774  0.1774
46120W        W89032   9.514  24.844  21.865  0.2005 -0.0105 -0.0130
46121W        W89033   9.745  22.330  22.102 -0.0859 -0.0826  0.1361
46122W        W89034  10.030  23.315  21.721 -0.2641 -0.3521 -0.1542
46123W        W89035   8.563  24.895  20.666 -0.2006 -0.1681 -0.3040
46124W        W89036  10.445  24.299  20.935 -0.2091  0.0769 -0.3358
46125W        W89037  10.649  22.440  23.899  0.2469 -0.2165  0.1811
46126W        W89038   7.186  23.141  22.841 -0.1435  0.0602 -0.2418
46127W        W89039   6.031  25.202  22.644 -0.2009  0.0600  0.1933
46128W        W89040   7.628  24.333  20.174  0.0662 -0.0595 -0.0583
46129W        W89041  12.194  25.215  19.899 -0.0519 -0.0283  0.2192
46130W        W89042   8.582  25.413  21.652  0.0014  0.2165  0.2291
46131W        W89043   9.302  27.730  23.431  0.0227 -0.0163  0.2141
46132W        W89044   8.015  24.585  18.795  0.1347 -0.2572  0.0821
46133W        W89045  10.309  25.220  22.729  0.3283  0.3745 -0.0027
46134W        W89046   7.477  25.963  23.479  0.0998  0.2789 -0.1433
46135W        W89047  10.597  24.502  22.740  0.0335  0.1619  0.0076
46136W        W89048  10.797  24.668  21.197 -0.1959 -0.1727 -0.2011
46137W        W89049   9.053  25.901  19.998 -0.1093 -0.1831 -0.3409
46138W        W89050   8.454  23.848  21.465 -0.0054  0.0194  0.0264
46139W        W89051   9.612  24.124  24.549  0.0625 -0.0882 -0.1981
46140W        W89052   8.906  24.235  23.106  0.0983  0.3752 -0.0225
46141W        W89053  11.547  23.050  24.059 -0.1670 -0.1657  0.2152
46142W        W89054   7.037  25.660  20.194 -0.4515  0.0773  0.3338
46143W        W89055   9.563  23.976  19.591 -0.2703  0.1501  0.0809
46144W        W89056   8.041  21.895  20.791  0.0339  0.0188  0.1051
46145W        W89057  10.145  22.027  19.357 -0.0391 -0.0255 -0.0927
46146W        W89058   9.515  21.864  22.704  0.2534  0.0177 -0.0048
46147W        W89059   8.989  24.036  22.059 -0.0335 -0.0273  0.0160
46148W        W89060   8.062  24.222  23.606 -0.3348 -0.1501  0.0693
46149W        W89061  10.119  25.597  22.063  0.2421 -0.2587  0.0566
46150W        W89062   8.929  24.039  20.254  0.0996 -0.0843 -0.0166
46151W        W89063   9.376  24.029  23.067  0.2501  0.2482  0.1864
46152W        W89064   7.196  26.232  23.074  0.2093 -0.0297  0.0503
46153W        W89065   9.630  23.916  22.381  0.2576 -0.0616  0.0224
46154W        W89066   8.501  25.479  20.484  0.0808  0.0447 -0.1549
46155W        W89067  10.483  25.893  22.277  0.2350 -0.0514  0.3354
46156W        W89068   9.464  23.955  19.104 -0.1236 -0.1535  0.0334
46157W        W89069   9.276  22.509  20.611  0.0740  0.0503 -0.1215
46158W        W89070   8.747  24.702  23.187 -0.3340  0.1485 -0.1131
46159W        W89071   7.853  23.433  23.227  0.1533 -0.0162 -0.0303
46160W        W89072   8.965  22.112  19.732 -0.4094 -0.1173 -0.2366
46161W        W89073  11.885  22.884  23.647  0.3709  0.3693 -0.1247
46162W        W89074   7.258  25.961  24.842  0.0830 -0.1649  0.0627
46163W        W89075  10.256  23.347  21.266 -0.0763  0.0366 -0.0693
46164W        W89076   7.968  23.839  21.334  0.1554  0.2902  0.3106
46165W        W89077   9.685  25.285  23.306 -0.0952 -0.0664 -0.0383
46166W        W89078   8.993  24.265  20.737 -0.2548 -0.0851 -0.1504
46167W        W89079  11.398  23.798  21.513 -0.0912 -0.0960  0.1789
46168W        W89080   9.468  21.607  23.907 -0.0176 -0.0173  0.2380
46169W        W89081   8.270  23.643  20.970 -0.2558  0.2079  0.1804
46170W        W89082   9.187  23.847  19.885  0.0329  0.1311  0.0260
46171W        W89083   9.936  25.139  21.973  0.2680 -0.0149 -0.5301
46172W        W89084  10.965  24.599  19.862  0.0720 -0.1602  0.1095
46173W        W89085   6.729  24.468  22.257  0.1295  0.1652 -0.1143
46174W        W89086   8.378  23.533  23.264 -0.1451  0.3323  0.1210
46175W        W89087  10.103  24.667  23.846 -0.2668  0.1480 -0.1504
46176W        W89088   7.477  24.135  21.045  0.2180 -0.0335  0.2747
46177W        W89089   6.142  22.951  21.708  0.0497  0.0685  0.2530
46178W        W89090   6.985  23.814  19.879 -0.1065  0.2234 -0.2494
46179W        W89091   7.530  23.069  22.445  0.1790  0.0823 -0.2053
46180W        W89092   9.179  24.053  22.585  0.1719  0.1243 -0.1463
46181W        W89093  10.881  23.663  20.711  0.0205  0.4245 -0.1811
46182W        W89094   8.049  23.664  23.679  0.0526 -0.0907  0.0000
46183W        W89095  10.666  21.992  21.446  0.0121 -0.1556 -0.1249
46184W        W89096   7.259  25.274  20.965 -0.2850 -0.1796  0.0101
46185W        W89097  10.610  25.587  21.336 -0.3847 -0.0326 -0.0489
46186W        W89098   9.960  23.660  19.296  0.1093  0.0333 -0.1345
46187W        W89099  10.104  24.937  20.323 -0.0826 -0.1765  0.1422
46188W        W89100   7.607  23.001  23.061 -0.1685  0.0171 -0.1128
46189W        W89101   8.185  23.234  21.907  0.1420  0.0215  0.1495
46190W        W89102   8.459  22.587  22.495 -0.1508 -0.1681 -0.0397
46191W        W89103   7.989  23.997  22.286  0.0047  0.3989 -0.1382
46192W        W89104  12.110  24.106  22.423  0.2082 -0.2137  0.2436
46193W        W89105   9.284  22.026  20.938 -0.2632  0.0772  0.1658
46194W        W89106  10.325  23.693  19.699  0.0129  0.0055 -0.0212
46195W        W89107   9.587  24.168  20.729  0.3233 -0.2031 -0.0894
46196W        W89108   6.692  23.398  19.878  0.0938 -0.2727 -0.1758
46197W        W89109  11.938  22.393  22.860  0.2298 -0.0852  0.0664
46198W        W89110   9.464  25.364  20.635  0.3570 -0.0881  0.1036
46199W        W89111  10.626  25.642  22.822 -0.1065 -0.0963 -0.3055
46200W        W89112  10.356  27.105  21.684  0.0547 -0.3832 -0.0336
46201W        W89113   9.289  22.963  25.473  0.1733 -0.1980  0.0434
46202W        W89114   8.126  22.660  20.591 -0.1405  0.0105 -0.0174
46203W        W89115   8.022  24.758  22.814 -0.2130  0.3077  0.2219
46204W        W89116   8.649  23.600  21.817 -0.3490  0.1876 -0.0032
46205W        W89117   8.606  23.145  19.977  0.1539 -0.2038  0.0303
46206W        W89118   9.623  26.493  20.627 -0.0260 -0.0004 -0.1331
46207W        W89119   8.614  23.979  20.958  0.2609 -0.5464  0.1888
46208W        W89120   8.391  22.823  24.222 -0.3964  0.2835  0.2035
46209W        W89121   9.371  21.624  24.489  0.0548  0.2167  0.0044
46210W        W89122  10.341  25.051  22.245 -0.0107  0.1656  0.2372
46211W        W89123  10.250  24.069  22.591 -0.1254  0.0897  0.1112
46212W        W89124   7.827  21.926  19.087  0.1238 -0.2300  0.1835
46213W        W89125   9.747  25.987  21.218  0.3513  0.0604 -0.0551
46214W        W89126   7.788  25.091  20.955 -0.4214  0.0991 -0.1852
46215W        W89127   6.943  23.132  20.991  0.0551 -0.0584  0.1415
46216W        W89128   8.742  25.002  19.716 -0.1979  0.0862  0.2224
46217W        W89129  11.238  23.709  22.565  0.4172  0.1964  0.0335
46218W        W89130   7.534  24.072  23.548  0.1011 -0.0507 -0.0134
46219W        W89131   9.608  22.864  22.911  0.1998  0.1915  0.2443
46220W        W89132   8.051  22.547  19.961  0.2143 -0.0654  0.1719
46221W        W89133   9.042  26.060  24.465 -0.0724 -0.0796 -0.2541
46222W        W89134  10.583  23.701  22.355 -0.0182  0.1506  0.2486
46223W        W89135  11.424  22.900  20.410  0.0248 -0.0782 -0.4010
46224W        W89136   9.171  23.634  23.363 -0.0708  0.3371 -0.2088
46225W        W89137  11.022  24.268  20.212  0.0130  0.0435  0.2611
46226W        W89138   9.510  24.000  20.209  0.0196 -0.1140 -0.3409
46227W        W89139  10.256  23.542  20.391  0.1561  0.1690 -0.2249
46228W        W89140   8.645  23.886  22.485 -0.1195  0.2571  0.1340
46229W        W89141   8.785  25.442  19.371  0.0517  0.0868  0.1411
46230W        W89142   8.717  25.058  20.219  0.0452 -0.0479 -0.0711
46231W        W89143   9.024  23.360  19.713  0.0205  0.0281 -0.1015
46232W        W89144   9.809  25.029  20.689  0.1416 -0.1702 -0.1616
46233W        W89145   6.421  24.782  23.190 -0.0734  0.0345  0.0047
46234W        W89146  10.082  23.279  23.914 -0.0952 -0.2008 -0.0691
46235W        W89147   9.865  26.020  21.736  0.0112  0.0851  0.0275
46236W        W89148  10.351  21.535  23.954  0.0530  0.1277  0.2020
46237W        W89149   7.549  23.456  20.422  0.0105  0.2143  0.0754
46238W        W89150   9.728  22.040  21.342 -0.0431  0.0785  0.1838
46239W        W89151   6.825  25.094  22.319  0.0368  0.1047 -0.1123
46240W        W89152   9.906  22.682  24.011 -0.2227  0.2716  0.0213
46241W        W89153   9.517  23.442  22.392 -0.3607  0.0822 -0.0865
46242W        W89154   8.713  22.773  23.389  0.2213 -0.3372  0.2387
46243W        W89155  10.570  24.037  24.256 -0.0306 -0.0259  0.4354
46244W        W89156   9.352  24.453  20.372 -0.0068 -0.3257 -0.3780
46245W        W89157   9.082  23.104  22.736 -0.0550  0.0655  0.0847
46246W        W89158   8.295  22.748  18.721 -0.1455 -0.2785 -0.0265
46247W        W89159   9.464  22.849  24.350  0.4264 -0.1209 -0.1731
46248W        W89160   8.603  23.351  22.714 -0.0020  0.0156 -0.1382
46249W        W89161   9.696  24.798  23.497  0.0325  0.0128 -0.3543
46250W        W89162   8.883  23.723  22.982  0.3179  0.0524 -0.4798
46251W        W89163   8.169  24.189  21.029 -0.2085  0.0535 -0.1403
46252W        W89164   8.553  22.858  24.857  0.1275  0.0583  0.2852
46253W        W89165   9.981  23.866  21.130 -0.2541  0.0196 -0.2633
46254W        W89166   8.679  24.525  20.316 -0.0395 -0.2878 -0.0009
46255W        W89167   9.150  25.899  19.529  0.1188  0.1257  0.1419
46256W        W89168   8.865  21.910  21.216  0.1387  0.2317  0.1741
46257W        W89169   8.244  24.507  22.088 -0.0448 -0.1930 -0.0207
46258W        W89170   6.837  25.951  19.431  0.1542 -0.2568 -0.3150
46259W        W89171  10.416  22.907  23.839  0.0227 -0.3689 -0.0764
46260W        W89172   7.684  23.419  21.740 -0.1852  0.1422  0.2878
46261W        W89173   9.833  23.302  23.166  0.0165 -0.3795 -0.0046
46262W        W89174   8.575  24.842  21.659  0.1462 -0.2936  0.1622
46263W        W89175   8.429  23.182  19.066 -0.0159  0.0821 -0.3235
46264W        W89176   6.069  22.404  20.787  0.0932 -0.0130  0.0038
46265W        W89177  10.496  23.963  21.928  0.2562  0.3826 -0.0894
46266W        W89178   9.955  24.153  19.092  0.2936 -0.0854 -0.1703
46267W        W89179   8.657  22.686  21.969 -0.1845  0.2633 -0.0869
46268W        W89180   9.151  23.532  21.981 -0.2018  0.2289  0.0174
46269W        W89181   9.462  25.286  22.808  0.2935  0.1806  0.2279
46270W        W89182  10.104  24.119  23.413 -0.0249 -0.3063 -0.2468
46271W        W89183   9.328  24.318  21.795 -0.1233  0.2233  0.0996
46272W        W89184  10.728  24.953  22.628 -0.1396 -0.1409 -0.0089
46273W        W89185   9.699  23.858  23.397  0.0834  0.0851  0.0332
46274W        W89186   7.136  24.030  22.275  0.1951 -0.2792 -0.0855
46275W        W89187  10.467  22.776  22.659  0.1988 -0.3083  0.1527
46276W        W89188   8.831  23.281  20.962  0.2990  0.0421 -0.0675
46277W        W89189   7.810  24.325  21.880 -0.3666  0.1400 -0.0984
46278W        W89190   8.290  25.011  22.000  0.2689 -0.1627  0.2080
46279W        W89191   9.637  22.823  20.874 -0.1104  0.0540 -0.3556
46280W        W89192   9.466  24.081  21.245 -0.2780  0.3087  0.2245
46281W        W89193   7.756  23.105  23.663  0.1213  0.0166 -0.0364
46282W        W89194  10.867  24.227  23.808 -0.0765 -0.1418  0.0745
46283W        W89195   9.383  23.509  22.937 -0.0045 -0.0779  0.2635
46284W        W89196   9.735  22.681  20.449 -0.1988  0.1609  0.1018
46285W        W89197   9.732  23.026  21.472 -0.1273  0.0105 -0.1750
46286W        W89198  10.286  24.702  21.412  0.0638  0.3383 -0.2333
46287W        W89199   8.864  22.770  22.421 -0.0505 -0.0591  0.0981
46288W        W89200   8.467  25.041  22.590 -0.1143  0.0849 -0.1290
46289W        W89201   9.634  22.240  23.103  0.0703  0.0094  0.0459
46290W        W89202  10.254  26.137  21.345  0.0033  0.0832  0.1837
46291W        W89203  11.087  23.820  23.149 -0.0475  0.1191  0.0050
46292W        W89204   7.481  23.640  21.269  0.1492 -0.1643 -0.2055
46293W        W89205   7.576  23.833  22.073 -0.0020 -0.1057  0.1271
46294W        W89206   7.893  23.808  20.282  0.2738  0.0977  0.3954
46295W        W89207   9.076  23.011  21.964  0.0512  0.0431  0.0213
46296W        W89208   8.065  23.707  21.897  0.2249  0.0624 -0.1645
46297W        W89209   7.171  24.206  20.151  0.2415  0.2998 -0.1847
46298W        W89210   8.315  25.013  23.201 -0.5193  0.2072 -0.0321
46299W        W89211  10.677  22.919  22.135 -0.0132  0.0253  0.2381
46300W        W89212  10.440  23.742  20.912 -0.2025  0.4080 -0.1243
46301W        W89213   9.026  23.247  20.433  0.1249  0.2114  0.0651
46302W        W89214   9.435  22.893  22.420  0.3025  0.0868  0.0595
46303W        W89215   9.812  23.717  20.451  0.1750  0.3199 -0.1168
46304W        W89216  10.126  22.958  23.059 -0.2806 -0.0426 -0.2582
46305W        W89217   9.120  22.123  22.998  0.1659 -0.1948 -0.0701
46306W        W89218  11.085  25.385  20.843 -0.0670 -0.0982  0.0976
46307W        W89219   8.488  22.862  22.930  0.2908  0.3530  0.0031
46308W        W89220   9.522  25.797  24.347 -0.0377  0.1719 -0.0129
46309W        W89221   9.106  24.663  23.856  0.0250  0.2237  0.1294
46310W        W89222  10.561  22.876  18.890  0.0820  0.0271 -0.2217
46311W        W89223   9.135  21.246  19.472  0.2244  0.1470  0.1566
46312W        W89224   9.717  24.490  22.101  0.4294 -0.1732 -0.2580
46313W        W89225  10.189  24.651  21.953  0.2924 -0.2875 -0.1297
46314W        W89226   8.697  24.551  19.572  0.2749 -0.0736  0.1188
46315W        W89227   9.878  23.144  22.635  0.0440 -0.3030 -0.1099
46316W        W89228   8.004  23.915  23.214 -0.0730  0.1773  0.2630
46317W        W89229  10.751  23.649  21.645 -0.3244  0.2617  0.0197
46318W        W89230  10.057  24.095  20.189 -0.1657 -0.1577  0.0039
46319W        W89231   9.009  24.270  21.363  0.0676  0.0049 -0.1386
46320W        W89232   7.734  22.183  22.260 -0.1290 -0.0648  0.0689
46321W        W89233  10.272  23.761  21.551  0.1754  0.0122  0.0072
46322W        W89234  10.204  22.512  21.926  0.4254 -0.1967  0.0851
46323W        W89235   9.404  22.553  23.928  0.1002  0.0299 -0.3390
46324W        W89236  10.458  23.699  23.862 -0.0038  0.1033 -0.0673
46325W        W89237   9.470  23.725  25.307  0.3217 -0.1335  0.1560
46326W        W89238   8.759  22.768  25.481  0.0240  0.0015 -0.1030
46327W        W89239  10.066  25.165  21.454  0.0019 -0.1499 -0.3641
46328W        W89240   9.884  22.534  18.401 -0.0212 -0.1598 -0.0592
46329W        W89241  11.101  22.374  24.005  0.1378  0.1126 -0.0193
46330W        W89242  10.057  23.556  22.249  0.0994  0.0835 -0.3508
46331W        W89243   8.588  22.644  20.714  0.2113 -0.0858  0.0292
46332W        W89244   9.382  23.205  21.063  0.1018  0.1968 -0.0428
46333W        W89245   9.689  24.334  23.733 -0.0379 -0.1285 -0.0827
46334W        W89246   8.149  21.357  20.748  0.1975  0.0082  0.2852
46335W        W89247   9.927  21.715  24.724 -0.0790  0.0335 -0.2490
46336W        W89248   8.897  25.439  19.853 -0.1559  0.1785 -0.1086
46337W        W89249   9.538  25.199  21.579  0.0480  0.2407 -0.0585
46338W        W89250  11.224  24.987  21.124 -0.3566 -0.3669  0.1922
46339W        W89251   5.601  22.284  23.015  0.0547 -0.1365 -0.0495
46340W        W89252   8.100  25.529  24.084 -0.1473 -0.3075 -0.1454
46341W        W89253   8.056  23.003  20.245 -0.0391  0.0519  0.2810
46342W        W89254   7.925  24.597  20.854 -0.0288  0.0407  0.0350
46343W        W89255  10.817  24.971  20.771 -0.0177 -0.2779  0.0325
46344W        W89256   9.886  24.362  24.223  0.1833 -0.2974  0.1753
46345W        W89257   9.542  21.980  19.697 -0.0753 -0.0507  0.0279
46346W        W89258   9.879  25.275  22.444 -0.0588 -0.1406 -0.2231
46347W        W89259   6.534  24.241  21.007 -0.0904 -0.0644  0.0997
46348W        W89260   9.826  22.341  20.920  0.1196  0.2370 -0.1735
46349W        W89261   7.450  26.815  21.897  0.0315 -0.0222  0.3789
46350W        W89262   8.267  24.434  23.158  0.1194 -0.3692  0.0384
46351W        W89263   9.379  26.141  21.559 -0.1151  0.0969 -0.3888
46352W        W89264  10.207  23.566  22.942 -0.2701  0.0004  0.2345
46353W        W89265   8.925  23.050  23.937  0.1652  0.3073 -0.0035
46354W        W89266   9.353  24.655  21.408 -0.0598  0.4865 -0.0959
46355W        W89267  11.670  23.135  23.243 -0.1118 -0.0434 -0.1624
46356W        W89268   9.171  24.510  22.285 -0.1845 -0.0281 -0.1893
46357W        W89269   9.030  25.040  21.643  0.0984 -0.1714 -0.1761
46358W        W89270   9.548  24.861  22.476  0.2648  0.0597 -0.1400
46359W        W89271  10.450  25.285  21.784  0.0124  0.3157 -0.3460
46360W        W89272   9.759  24.912  21.219 -0.2316  0.0663  0.0248
46361W        W89273   6.970  23.480  23.158 -0.1614 -0.1913  0.0583
46362W        W89274  10.130  24.592  22.942 -0.0297  0.1222 -0.1612
46363W        W89275   8.826  24.478  21.780 -0.2354  0.0591 -0.2504
46364W        W89276   8.810  21.475  21.423  0.0413 -0.0459  0.1218
46365W        W89277   9.063  24.342  19.873  0.3051 -0.0111 -0.1327
46366W        W89278   8.547  24.292  24.749 -0.2491 -0.0111 -0.0823
46367W        W89279   6.637  23.939  22.231  0.2270 -0.0718  0.0451
46368W        W89280   7.138  24.858  21.688 -0.1126 -0.1335 -0.2105
46369W        W89281  10.334  24.384  20.460 -0.0054  0.0302 -0.0755
46370W        W89282   8.456  23.437  19.586 -0.0729  0.0723 -0.0048
46371W        W89283   9.171  27.104  21.550  0.1304  0.0884  0.3908
46372W        W89284   8.715  23.007  19.507 -0.1067 -0.4141 -0.0381
46373W        W89285   8.029  23.720  22.690  0.1002  0.1681 -0.1220
46374W        W89286   7.442  24.479  20.613 -0.0851  0.4085 -0.0916
46375W        W89287  10.288  26.043  20.624  0.4141 -0.0931 -0.0232
46376W        W89288   7.716  25.020  21.439  0.0810  0.3170  0.1366
46377W        W89289  10.714  24.773  23.129  0.0304 -0.2521 -0.1499
46378W        W89290  12.379  21.552  19.583 -0.0061  0.1407 -0.3165
46379W        W89291   8.614  25.658  21.169 -0.2555  0.3323  0.3673
46380W        W89292  11.031  22.849  20.013  0.4002  0.1310 -0.0511
46381W        W89293   9.708  25.945  23.418 -0.2690  0.2317  0.1029
46382W        W89294   9.464  23.506  23.734 -0.2318 -0.0022  0.0710
46383W        W89295   9.341  22.421  19.555  0.0747  0.0312  0.1920
46384W        W89296   8.304  23.223  23.766  0.3422  0.0449  0.2305
46385W        W89297  11.031  22.003  23.145  0.0397 -0.2254  0.0214
46386W        W89298   7.824  25.683  23.129  0.2004  0.0082 -0.1593
46387W        W89299  10.255  24.991  19.476 -0.2181 -0.1733 -0.0481
46388W        W89300   7.432  23.922  20.539  0.0956  0.1255  0.0303
46389W        W89301   9.720  22.921  21.987  0.3387  0.0341 -0.0551
46390W        W89302  11.115  23.306  22.998  0.5510 -0.4303 -0.0117
46391W        W89303   8.596  25.137  21.249  0.3149 -0.1147 -0.1109
46392W        W89304  10.993  23.434  22.065  0.1584  0.3093  0.0300
46393W        W89305   6.820  25.088  20.978  0.2207  0.1049  0.3470
46394W        W89306   8.525  24.521  22.581 -0.0272  0.1293  0.1245
46395W        W89307  10.588  25.101  21.327 -0.0261  0.3874 -0.2518
46396W        W89308   7.391  22.369  21.058 -0.0103  0.0856  0.1694
46397W        W89309  12.069  26.059  21.271 -0.0839 -0.2303 -0.2208
46398W        W89310   6.908  23.811  24.376  0.2639  0.0508 -0.3068
46399W        W89311  10.905  22.394  22.197  0.0304 -0.0146 -0.1951
46400W        W89312   8.356  23.056  20.991  0.0555  0.2913 -0.3445
46401W        W89313  10.847  23.154  21.604  0.1110  0.2500 -0.0154
46402W        W89314  10.069  24.663  22.469  0.0070 -0.2034 -0.2523
46403W        W89315   8.982  23.401  21.477 -0.0555  0.2615 -0.0294
46404W        W89316   8.061  23.301  20.649  0.0475 -0.1292  0.1663
46405W        W89317  10.948  23.321  24.017  0.2237  0.0032  0.2026
46406W        W89318   9.032  23.773  21.102 -0.0120 -0.1135  0.0042
46407W        W89319   8.395  26.725  24.289 -0.2506 -0.2869  0.1549
46408W        W89320   8.478  22.337  21.631  0.1354  0.0053 -0.2237
46409W        W89321   9.575  23.651  20.903  0.3231 -0.0517  0.2764
46410W        W89322   7.894  23.320  21.248  0.2704 -0.3128 -0.0616
46411W        W89323   9.162  22.495  22.069  0.1531 -0.2119 -0.0799
46412W        W89324  10.746  25.414  22.309  0.2159 -0.0590  0.2078
46413W        W89325   8.095  21.370  22.170  0.5469  0.0617  0.1635
46414W        W89326  10.678  25.050  19.818 -0.0330 -0.0232 -0.1466
46415W        W89327  11.082  24.587  22.509  0.1234 -0.2566 -0.0923
46416W        W89328   9.801  24.896  19.800 -0.0818 -0.2546  0.1628
46417W        W89329  11.231  24.499  20.973 -0.0375 -0.1188 -0.0201
46418W        W89330  11.573  25.130  21.431  0.0562 -0.2070  0.3111
46419W        W89331   6.516  22.737  22.397 -0.0538 -0.1292  0.1713
46420W        W89332   9.162  24.993  22.138 -0.2091  0.0054  0.3085
46421W        W89333  11.245  25.407  22.161  0.1175  0.0517  0.2193
46422W        W89334  10.791  21.768  20.951  0.0131 -0.2589 -0.1104
46423W        W89335   9.061  22.864  20.873  0.1762 -0.3128 -0.1842
46424W        W89336   7.739  25.556  21.169  0.0830 -0.1562  0.0563
46425W        W89337   8.729  23.484  23.647  0.0177  0.0964  0.0643
46426W        W89338  10.494  24.472  23.537 -0.2944  0.2055 -0.0097
46427W        W89339   9.473  26.116  19.132  0.3368  0.1081  0.2084
46428W        W89340  11.205  21.835  24.908 -0.0799 -0.0642  0.1800
46429W        W89341   9.030  25.468  21.958  0.1822  0.3504 -0.0646
46430W        W89342   9.999  26.586  23.993  0.3389  0.1042 -0.1515
46431W        W89343   7.554  23.257  20.885  0.0559 -0.3102 -0.1237
46432W        W89344   9.707  23.458  24.518  0.1814  0.1877 -0.0302
46433W        W89345   9.790  25.403  21.102  0.1400 -0.0362 -0.0339
46434W        W89346   8.020  25.745  19.930 -0.0852 -0.0242  0.0549
46435W        W89347   9.788  23.956  21.635 -0.0127 -0.0161 -0.1003
46436W        W89348   9.626  23.565  21.908 -0.1627  0.1553 -0.1617
46437W        W89349  12.347  25.110  21.406 -0.1313  0.2566 -0.2733
46438W        W89350   9.529  22.422  21.688  0.0375 -0.1742  0.0475
46439W        W89351  10.225  21.183  20.509 -0.2289  0.1778 -0.0001
46440W        W89352  10.921  22.807  20.657 -0.3100  0.1670  0.3463
46441W        W89353   8.330  23.556  22.286 -0.0827 -0.3335  0.0095
46442W        W89354   6.259  23.753  21.193 -0.0763  0.2673 -0.0016
46443W        W89355   7.636  24.601  19.722 -0.1130  0.0493  0.3731
46444W        W89356   8.714  24.805  22.203 -0.3084  0.0218  0.0375
46445W        W89357   7.932  21.056  24.438 -0.1686 -0.0251 -0.1469
46446W        W89358   8.891  23.211  23.176  0.3807  0.1152 -0.1315
46447W        W89359   8.213  25.061  20.345  0.0777  0.0588 -0.1702
46448W        W89360   8.872  22.357  21.011 -0.1530  0.0013  0.0579
46449W        W89361  10.214  24.609  19.976  0.1625 -0.3126  0.2712
46450W        W89362   7.216  22.701  22.649  0.1410  0.2224 -0.1072
46451W        W89363   8.155  21.944  21.307 -0.0834  0.1913  0.2639
46452W        W89364  10.217  25.739  21.043  0.1070  0.0320  0.3316
46453W        W89365   9.540  24.918  20.302  0.2892 -0.0106 -0.1691
46454W        W89366   8.887  21.871  20.670 -0.1112  0.2203  0.1710
46455W        W89367  10.163  25.687  23.614  0.2694 -0.0366 -0.3037
46456W        W89368   7.034  23.540  20.294 -0.1293 -0.1431 -0.0541
46457W        W89369   9.048  23.560  25.130  0.0696 -0.2958  0.2240
46458W        W89370   9.068  23.585  22.467  0.0111 -0.1265  0.2151
46459W        W89371   8.301  22.559  21.121 -0.2252  0.0010 -0.0571
46460W        W89372   8.222  23.020  22.392  0.1833 -0.1092 -0.0326
46461W        W89373   9.468  24.714  20.780 -0.0479 -0.1375  0.0093
46462W        W89374  10.173  25.809  19.344 -0.0527  0.4854 -0.1639
46463W        W89375   9.607  23.794  24.200 -0.0194  0.3898  0.0223
46464W        W89376   9.847  25.019  22.926 -0.1182  0.2813 -0.0102
46465W        W89377   8.180  21.022  22.758 -0.0789 -0.0067 -0.0755
46466W        W89378   9.592  23.439  18.519 -0.1181  0.0290 -0.1970
46467W        W89379  10.410  25.027  23.692 -0.0152  0.0008 -0.1343
46468W        W89380  10.658  24.750  20.272  0.3186 -0.0724 -0.0561
46469W        W89381  11.656  22.821  22.037 -0.2406 -0.3907  0.1688
46470W        W89382  10.464  23.384  21.998  0.0267  0.1436 -0.0342
46471W        W89383   7.809  22.219  23.701  0.0397  0.2171  0.0766
46472W        W89384   9.233  25.509  23.366  0.1013 -0.0350  0.0695
46473W        W89385   9.691  24.436  23.174  0.1320  0.0180  0.3687
46474W        W89386   9.893  22.674  22.492  0.0864  0.0063 -0.1108
46475W        W89387  10.707  21.478  20.558  0.0126  0.0681  0.0405
46476W        W89388   9.243  26.207  20.421 -0.1132 -0.2873  0.0278
46477W        W89389   9.166  23.861  21.574  0.0529  0.2935 -0.1245
46478W        W89390   9.159  23.708  20.610  0.1765  0.1254 -0.0346
46479W        W89391   9.214  22.431  23.433  0.3797  0.0038  0.1162
46480W        W89392  10.830  24.459  20.684  0.3046 -0.1437  0.1153
46481W        W89393  10.204  23.988  25.038  0.2657 -0.1448 -0.0981
46482W        W89394   9.902  23.267  20.964 -0.1638 -0.3165  0.3438
46483W        W89395  10.842  23.995  21.092  0.1962 -0.0182  0.3135
46484W        W89396   9.872  24.520  20.519 -0.1868 -0.1033  0.1862
46485W        W89397   9.429  25.195  23.790 -0.0869 -0.1610  0.0023
46486W        W89398   8.430  26.091  22.443 -0.0747  0.2267 -0.0603
46487W        W89399  10.830  24.150  22.507  0.3174  0.1850  0.3196
46488W        W89400   7.795  23.446  22.286 -0.0531  0.2132  0.0399
46489W        W89401   8.250  24.304  21.655 -0.2552  0.3039 -0.1086
46490W        W89402   8.952  24.678  21.000  0.0898  0.3341 -0.1058
46491W        W89403  10.731  23.591  22.798 -0.2921 -0.0691 -0.1714
46492W        W89404   8.684  23.162  22.214  0.2444 -0.1928 -0.1212
46493W        W89405   9.207  22.956  21.444  0.2572 -0.0215  0.1641
46494W        W89406   9.151  25.451  22.454 -0.1122  0.0636  0.1153
46495W        W89407   9.219  25.350  20.178  0.3742  0.0374  0.2809
46496W        W89408   9.140  24.343  27.800 -0.0331 -0.0081 -0.1332
46497W        W89409   9.150  22.088  24.861  0.0120  0.3000 -0.0146
46498W        W89410  10.442  22.145  24.522 -0.2079  0.3220 -0.2684
46499W        W89411  10.976  24.845  25.027  0.0758 -0.1987 -0.0164
46500W        W89412   8.617  23.789  25.447 -0.0256 -0.0452  0.0091
46501W        W89413  10.359  26.554  25.796 -0.2819 -0.0042 -0.0270
46502W        W89414   7.757  22.039  27.984 -0.0167  0.0882 -0.2701
46503W        W89415   9.343  24.644  25.472 -0.1178  0.1790 -0.0297
46504W        W89416   9.543  26.291  25.716 -0.4012 -0.2568 -0.2392
46505W        W89417   8.479  23.796  23.917 -0.0611 -0.1197 -0.0113
46506W        W89418  10.063  21.975  26.961 -0.0435 -0.1154 -0.4003
46507W        W89419   7.226  25.063  26.223  0.0816 -0.0317  0.2566
46508W        W89420   7.302  20.875  25.767  0.3288 -0.0685  0.1142
46509W        W89421   7.687  21.509  26.799  0.2875 -0.0557 -0.1331
46510W        W89422  10.278  24.078  26.231  0.0679 -0.0620  0.2362
46511W        W89423   6.467  23.287  23.114  0.0261 -0.2385 -0.1094
46512W        W89424   9.005  24.346  25.954  0.0702  0.3308 -0.1113
46513W        W89425   7.840  23.020  26.544  0.0251  0.1549 -0.3371
46514W        W89426  10.441  25.712  25.728 -0.2327 -0.1683  0.1753
46515W        W89427   9.265  23.794  26.683 -0.3372 -0.2503 -0.0125
46516W        W89428  10.167  21.867  27.848 -0.1301 -0.0708 -0.0993
46517W        W89429   9.572  25.315  24.638  0.0773 -0.0980 -0.1730
46518W        W89430   7.438  24.336  24.181 -0.1435  0.1432  0.0062
46519W        W89431   7.519  22.501  25.012  0.1403  0.2124  0.2203
46520W        W89432   7.772  23.736  26.098 -0.0114 -0.1080  0.4043
46521W        W89433  10.033  22.664  26.327 -0.4513  0.1705 -0.1865
46522W        W89434  10.653  22.621  26.579  0.0014 -0.1792  0.0872
46523W        W89435   8.403  25.605  25.761  0.1989  0.0326  0.0443
46524W        W89436  10.307  25.264  25.385 -0.0452  0.1461  0.0041
46525W        W89437   9.934  23.501  27.401 -0.1034  0.2458  0.0675
46526W        W89438   7.708  23.465  24.078  0.1122  0.1894 -0.1444
46527W        W89439   8.305  25.309  26.204 -0.1786  0.1292 -0.2564
46528W        W89440   9.274  25.929  23.671 -0.1661 -0.0062 -0.3820
46529W        W89441  10.587  24.421  24.992  0.1547  0.1300  0.0955
46530W        W89442  10.904  23.972  27.036 -0.0549  0.0729  0.0394
46531W        W89443   9.832  25.381  28.137 -0.0548 -0.2077  0.1629
46532W        W89444   7.566  24.995  24.440 -0.0648 -0.4648  0.0998
46533W        W89445  10.503  23.643  26.619  0.1787 -0.1720 -0.2416
46534W        W89446   8.464  25.043  26.954  0.2224 -0.2669 -0.1454
46535W        W89447   9.762  23.805  24.913  0.0548  0.1679  0.2733
46536W        W89448   7.662  24.236  24.644 -0.2033 -0.1960 -0.3106
46537W        W89449   8.775  24.177  23.967  0.0017  0.0112  0.1126
46538W        W89450   9.354  25.447  25.092 -0.0779 -0.2262 -0.3843
46539W        W89451   8.270  23.796  26.227 -0.1907  0.1798  0.0167
46540W        W89452   7.871  24.439  25.189 -0.1397  0.1976 -0.0682
46541W        W89453  10.546  21.986  28.731 -0.1446  0.0293  0.3536
46542W        W89454   8.559  25.543  23.868  0.2325 -0.2086 -0.1974
46543W        W89455  10.184  23.598  26.211 -0.0508  0.0421  0.1092
46544W        W89456   7.299  23.107  23.443 -0.1844 -0.1123  0.4006
46545W        W89457   8.934  22.904  24.397 -0.2872  0.0890 -0.1222
46546W        W89458   8.866  21.843  24.500 -0.1540 -0.0154  0.1703
46547W        W89459   8.161  24.912  26.530 -0.0564  0.0868 -0.1231
46548W        W89460   8.587  21.822  26.998 -0.1842  0.0446  0.1008
46549W        W89461  11.408  23.665  26.151 -0.1774 -0.0710 -0.1594
46550W        W89462  10.567  22.734  24.755 -0.0121 -0.1005 -0.1535
46551W        W89463  10.240  22.946  26.673  0.0579  0.3639 -0.2159
46552W        W89464   6.883  25.171  24.969 -0.1797 -0.0822 -0.2694
46553W        W89465   8.461  22.137  26.188 -0.1643  0.0621 -0.0976
46554W        W89466   9.095  24.948  20.518 -0.1932  0.3163  0.0232
46555W        W89467  11.395  24.700  25.502  0.1948 -0.4927  0.0133
46556W        W89468   8.597  24.636  24.084 -0.2427 -0.2751  0.0462
46557W        W89469   8.888  22.503  23.916 -0.0987  0.0518  0.2144
46558W        W89470   8.107  23.947  26.679 -0.0809 -0.0018 -0.0913
46559W        W89471   6.390  22.364  27.276  0.0007 -0.3752 -0.0427
46560W        W89472   7.699  22.256  23.153  0.3492 -0.0960 -0.1697
46561W        W89473  11.443  24.767  26.869 -0.0037 -0.2616 -0.2237
46562W        W89474   8.218  24.222  25.874 -0.0034  0.3225 -0.0794
46563W        W89475  11.394  23.316  25.740  0.0791 -0.0739 -0.1200
46564W        W89476   8.525  25.071  25.761  0.1740 -0.2000 -0.1634
46565W        W89477  10.776  25.286  25.165  0.2803  0.0470  0.4421
46566W        W89478   9.457  25.899  24.839 -0.1999  0.1471  0.2103
46567W        W89479   9.721  21.891  26.073  0.1859 -0.2851 -0.0912
46568W        W89480   9.394  22.189  27.023 -0.0565  0.0467 -0.2988
46569W        W89481   8.765  23.882  24.373 -0.1414  0.4203 -0.1628
46570W        W89482  10.386  23.787  25.800  0.1539 -0.1295  0.1267
46571W        W89483   9.235  23.858  26.175 -0.2948  0.0662  0.2249
46572W        W89484   9.573  24.736  24.035  0.0963  0.2757 -0.1229
46573W        W89485   6.258  25.517  25.642 -0.1339  0.4898 -0.1011
46574W        W89486   8.923  22.839  26.909 -0.1580 -0.0484  0.1687
46575W        W89487  10.221  24.039  27.483  0.0281 -0.1984 -0.1299
46576W        W89488   8.299  24.178  24.258  0.2031  0.1597 -0.2280
46577W        W89489   7.897  23.263  25.823 -0.1101  0.1043 -0.0634
46578W        W89490   7.599  25.677  25.169 -0.0549 -0.2441  0.1640
46579W        W89491   8.124  23.303  26.230  0.1515 -0.2001  0.2690
46580W        W89492   6.417  23.298  24.905 -0.1008  0.1021 -0.2038
46581W        W89493  11.460  23.330  25.155 -0.0278  0.0144  0.1352
46582W        W89494   7.429  22.172  27.640  0.3044  0.0447 -0.0279
46583W        W89495  10.431  21.289  25.271  0.0111 -0.1311  0.1195
46584W        W89496   8.623  23.370  24.202 -0.1764  0.2228 -0.0095
46585W        W89497   9.869  26.634  25.477  0.0376  0.2577  0.2221
46586W        W89498   9.975  22.971  25.029 -0.3365  0.2203 -0.2373
46587W        W89499  10.563  25.287  23.199 -0.5250 -0.1073 -0.1296
46588W        W89500   6.697  23.312  26.692 -0.2266  0.3461  0.5553
46589W        W89501   8.845  22.250  25.729  0.1551  0.1005  0.0992
46590W        W89502   8.519  23.235  27.072  0.0604 -0.0667 -0.1866
46591W        W89503   8.024  22.352  26.439  0.2907  0.0046  0.1899
46592W        W89504  10.488  24.592  26.773 -0.3268  0.1717  0.1921
46593W        W89505   7.507  22.570  24.078  0.0372 -0.0020  0.1477
46594W        W89506  10.283  24.353  24.514  0.0756 -0.4295 -0.2806
46595W        W89507   9.562  24.821  24.505  0.0228 -0.1587  0.0641
46596W        W89508   7.795  24.414  23.154 -0.4081 -0.0165 -0.0334
46597W        W89509   9.903  21.490  27.788  0.0453  0.0396 -0.0708
46598W        W89510   8.700  25.240  24.350  0.0201 -0.0219 -0.2190
46599W        W89511  10.979  24.444  25.291 -0.0976  0.2347  0.0658
46600W        W89512   9.323  23.692  24.626 -0.3214 -0.0897 -0.1656
46601W        W89513   7.384  22.684  27.634  0.0972  0.0919 -0.0918
46602W        W89514   7.876  22.951  24.120 -0.0358 -0.0971 -0.1217
46603W        W89515   8.722  26.630  25.932  0.1106 -0.3925  0.1009
46604W        W89516   7.601  26.238  25.192  0.2922  0.3476  0.0742
46605W        W89517   9.107  22.085  26.160 -0.0456 -0.2564  0.1834
46606W        W89518   9.197  26.870  24.808 -0.4413 -0.0207 -0.1053
46607W        W89519   9.506  24.943  25.100 -0.3180  0.2093 -0.3873
46608W        W89520   7.876  24.250  26.240  0.0283  0.0380  0.3085
46609W        W89521  10.090  21.115  27.413 -0.1602  0.0916  0.0417
46610W        W89522  10.971  23.569  26.546 -0.3884 -0.4033  0.1126
46611W        W89523  10.251  25.465  27.734 -0.2946 -0.3490 -0.1090
46612W        W89524   7.991  22.639  23.041 -0.2428  0.2179  0.2326
46613W        W89525  10.931  25.394  24.568  0.1499  0.2052  0.2395
46614W        W89526   8.087  26.304  25.413  0.1115  0.2314 -0.2258
46615W        W89527   7.292  23.506  25.363  0.2169  0.1874 -0.0500
46616W        W89528   7.655  24.565  23.713  0.1274  0.0862 -0.3665
46617W        W89529  11.214  21.789  25.711 -0.3854 -0.2857 -0.0246
46618W        W89530   7.957  23.638  27.695 -0.2724 -0.1477 -0.1839
46619W        W89531  10.432  22.135  26.545  0.1189 -0.0888 -0.1176
46620W        W89532   8.160  23.754  25.116  0.0652  0.1748  0.1022
46621W        W89533   7.666  24.898  25.877  0.0819  0.0074  0.2698
46622W        W89534  11.563  22.964  24.773 -0.1265 -0.1232 -0.1558
46623W        W89535  10.824  22.670  25.204  0.2131 -0.4431 -0.2215
46624W        W89536  10.211  24.956  27.886  0.1378 -0.3549  0.0660
46625W        W89537  10.723  23.164  24.885 -0.1456  0.0397  0.1958
46626W        W89538   9.559  23.046  23.806 -0.1700  0.3010 -0.0564
46627W        W89539  12.119  22.064  24.326 -0.1325 -0.1022 -0.0605
46628W        W89540   8.202  25.694  26.594  0.0212  0.0107  0.2680
46629W        W89541   9.272  25.112  24.216 -0.0007 -0.0650  0.4341
46630W        W89542   9.594  24.307  25.164 -0.0166 -0.4422 -0.1373
46631W        W89543   9.595  22.100  24.665  0.3748  0.1948 -0.2621
46632W        W89544  10.385  24.819  25.895 -0.1618 -0.2321  0.0104
46633W        W89545   6.515  22.940  24.358 -0.0835  0.1254  0.2909
46634W        W89546   9.006  24.908  25.939  0.1919 -0.0664 -0.0134
46635W        W89547  11.223  25.889  25.972 -0.1042  0.1817  0.0247
46636W        W89548  10.889  22.748  25.831  0.0851 -0.0613  0.0858
46637W        W89549   8.940  24.559  24.410  0.1421 -0.0179  0.0415
46638W        W89550   9.970  23.505  25.333 -0.0388  0.0098 -0.0607
46639W        W89551   7.644  26.323  23.788 -0.0429 -0.4281  0.1545
46640W        W89552  10.653  21.192  24.650  0.0995  0.2780  0.0576
46641W        W89553   9.713  22.495  26.692 -0.0877 -0.1714  0.0927
46642W        W89554  10.672  21.833  27.793 -0.0653  0.1655  0.4187
46643W        W89555  10.847  22.591  28.157  0.3860 -0.2482 -0.1111
46644W        W89556  10.172  24.156  23.893 -0.0656 -0.0421 -0.2033
46645W        W89557  10.036  24.363  27.053  0.1712 -0.0712 -0.0317
46646W        W89558   8.273  24.833  23.757  0.1550 -0.0560  0.2079
46647W        W89559   8.026  21.784  26.496 -0.0238 -0.0197 -0.1642
46648W        W89560   8.085  23.425  26.831  0.2207 -0.2418 -0.1060
46649W        W89561   6.188  23.914  25.883  0.0852 -0.1484 -0.3188
46650W        W89562   9.487  26.175  26.868  0.3858 -0.1899  0.2246
46651W        W89563   9.940  23.019  24.468 -0.0796  0.0992  0.4088
46652W        W89564  10.020  22.320  27.740  0.1411  0.0401 -0.2776
46653W        W89565   9.151  21.488  25.450 -0.0183  0.1963 -0.0051
46654W        W89566   9.308  25.484  25.864 -0.0499 -0.1921 -0.0584
46655W        W89567   8.067  25.888  25.108  0.1178  0.2695 -0.0277
46656W        W89568   9.490  21.057  25.428 -0.3818  0.2679 -0.0559
46657W        W89569   8.373  24.268  26.379 -0.1050  0.2921  0.0877
46658W        W89570  10.172  24.938  23.262  0.0238 -0.0809 -0.0188
46659W        W89571   9.873  23.891  26.439 -0.2202 -0.0904 -0.2063
46660W        W89572   9.102  25.553  24.537  0.1214  0.1734  0.1224
46661W        W89573  10.229  20.804  25.211  0.0363  0.2368 -0.0493
46662W        W89574   8.066  25.256  25.767  0.1290 -0.0413 -0.0386
46663W        W89575   6.783  23.059  23.589  0.2681  0.0486 -0.1469
46664W        W89576   7.672  23.959  25.036  0.0633  0.2055 -0.1496
46665W        W89577  10.151  21.264  24.846 -0.1428  0.0205 -0.1399
46666W        W89578   9.894  25.791  25.280 -0.0266  0.0017 -0.0599
46667W        W89579   7.586  23.353  27.492  0.0731  0.1242  0.0173
46668W        W89580  10.622  22.354  26.069  0.0149  0.0605 -0.0285
46669W        W89581   7.080  25.390  25.818 -0.0622  0.1830  0.0618
46670W        W89582   9.992  23.085  25.622 -0.1452  0.1608  0.2614
46671W        W89583   9.673  22.709  25.874 -0.2919  0.0148  0.2114
46672W        W89584   9.542  24.397  26.102  0.0769  0.0644 -0.0409
46673W        W89585   8.061  23.253  27.346 -0.1815 -0.1350 -0.1170
46674W        W89586   7.807  24.053  24.047  0.0981  0.0142 -0.4568
46675W        W89587  10.378  22.112  25.476  0.3456 -0.0005 -0.0272
46676W        W89588   8.620  23.775  24.837 -0.0936  0.1282 -0.0220
46677W        W89589   7.846  25.810  25.575  0.0036  0.1800  0.5051
46678W        W89590   8.553  25.753  26.221 -0.0548  0.0600 -0.1958
46679W        W89591   8.831  23.307  24.651 -0.2027 -0.4725  0.1569
46680W        W89592   7.927  24.588  24.103 -0.0126 -0.2024 -0.1554
46681W        W89593   8.293  22.919  26.664  0.1893  0.2198 -0.1635
46682W        W89594   9.523  23.143  27.442  0.4319  0.1108  0.0422
46683W        W89595   9.562  22.344  26.213 -0.1005  0.1511 -0.1102
46684W        W89596   9.100  21.535  26.432 -0.0826  0.1047  0.2618
46685W        W89597  10.255  22.607  25.630 -0.2986  0.1086  0.1145
46686W        W89598   9.684  23.593  25.748  0.1666 -0.0152 -0.2794
46687W        W89599  10.085  24.472  25.290 -0.1768 -0.4019 -0.3668
46688W        W89600   7.716  23.547  26.555 -0.0179 -0.0231  0.0463
46689W        W89601   8.640  21.617  25.234 -0.3287 -0.1064 -0.0742
46690W        W89602  11.850  26.122  25.513 -0.1518  0.2335 -0.2542
46691W        W89603   9.885  24.065  25.939  0.0215  0.0302  0.3918
46692W        W89604   7.292  24.534  24.594  0.0537 -0.0440 -0.1029
46693W        W89605   7.457  24.597  25.453 -0.3086 -0.0100 -0.2617
46694W        W89606   8.984  23.651  24.022  0.0297 -0.0111  0.0649
46695W        W89607   7.690  22.865  27.305 -0.1726 -0.0001  0.1334
46696W        W89608   6.719  23.686  25.354  0.1756 -0.0934 -0.1008
46697W        W89609   8.195  24.670  25.578  0.5336  0.4064  0.0477
46698W        W89610   6.721  24.799  24.482  0.3501 -0.0067 -0.0853
46699W        W89611  10.207  20.414  24.080  0.0190 -0.0549  0.2382
46700W        W89612   9.294  23.237  24.766 -0.3190 -0.0052  0.5902
46701W        W89613   8.459  24.233  25.309 -0.1804  0.2944  0.0480
46702W        W89614   9.675  22.871  27.961 -0.0453 -0.0461 -0.1569
46703W        W89615   9.107  24.946  24.728  0.0042 -0.0691  0.3529
46704W        W89616  10.735  22.563  27.604 -0.1525 -0.0687 -0.0758
46705W        W89617   9.220  23.220  26.731 -0.1655 -0.0326  0.0567
46706W        W89618  10.744  26.285  24.998  0.5393  0.0356  0.0858
46707W        W89619   7.359  24.402  26.660 -0.1077  0.1837 -0.2667
46708W        W89620   8.786  26.415  27.959 -0.4692 -0.0408  0.3227
46709W        W89621   8.618  23.504  26.620 -0.0404  0.1873 -0.0185
46710W        W89622   9.270  22.446  25.379  0.2078  0.1383  0.0184
46711W        W89623   9.060  21.364  23.813 -0.0110  0.1240  0.3669
46712W        W89624   8.640  24.007  25.932 -0.0808 -0.1597 -0.0835
46713W        W89625  10.776  25.038  26.204 -0.0962 -0.0712 -0.0150
46714W        W89626   8.678  23.987  23.475 -0.1075 -0.0108  0.2864
46715W        W89627  10.418  24.351  25.781 -0.0417  0.1668  0.0131
46716W        W89628   7.013  23.527  25.826  0.1167  0.0595  0.2567
46717W        W89629  10.747  25.199  25.705  0.2432 -0.0558  0.0372
46718W        W89630   8.773  22.363  25.222 -0.0116 -0.1546 -0.3578
46719W        W89631   8.945  24.163  25.281 -0.0881  0.1599 -0.2368
46720W        W89632   9.067  22.348  27.455 -0.1250 -0.1637 -0.0307
46721W        W89633  10.731  25.004  24.098  0.3096 -0.0788  0.1042
46722W        W89634   9.833  21.404  25.178  0.3870  0.0042  0.3089
46723W        W89635  11.051  22.991  27.213  0.2549 -0.0374 -0.3775
46724W        W89636  11.303  24.032  26.723  0.3227 -0.3549  0.2958
46725W        W89637   9.043  23.220  27.276  0.0551  0.0598  0.1226
46726W        W89638   7.253  21.910  28.030  0.0755  0.0484  0.1431
46727W        W89639   9.546  24.884  25.861  0.0378  0.0460 -0.0151
46728W        W89640  10.314  22.672  24.317  0.1624 -0.0326 -0.1014
46729W        W89641   9.190  23.090  27.867  0.0421  0.0156  0.0646
46730W        W89642  10.059  25.236  24.645  0.0628  0.2814 -0.0512
46731W        W89643   9.658  22.552  23.498  0.1012  0.2633  0.2712
46732W        W89644   8.543  23.413  25.128 -0.1130  0.0615  0.1007
46733W        W89645  10.896  24.580  27.065 -0.2017  0.3386  0.1157
46734W        W89646   7.559  22.639  23.582 -0.0023 -0.0287  0.0011
46735W        W89647   9.539  23.467  27.856  0.4207  0.2727 -0.0419
46736W        W89648   8.734  25.106  23.830 -0.3296 -0.1582  0.3586
46737W        W89649   9.081  25.058  25.502  0.1306  0.0448 -0.1235
46738W        W89650  10.488  24.919  24.791  0.2258  0.0551 -0.1226
46739W        W89651   8.284  22.385  24.849 -0.0714 -0.0817 -0.1944
46740W        W89652   9.403  24.965  27.284 -0.1842  0.0820  0.0152
46741W        W89653   7.875  21.822  23.344  0.1826 -0.3995  0.0060
46742W        W89654   9.303  24.241  24.163 -0.0414 -0.3615 -0.3326
46743W        W89655   8.981  23.361  26.267  0.0474  0.0728 -0.0572
46744W        W89656  10.689  23.950  27.553 -0.0387  0.0863  0.2817
46745W        W89657   9.167  20.744  24.786 -0.1467  0.5130 -0.0353
46746W        W89658  10.187  22.859  28.678  0.0088  0.1354 -0.1760
46747W        W89659   8.800  24.603  25.011  0.0883  0.1733  0.2840
46748W        W89660  10.176  21.017  25.715 -0.1193  0.2248  0.0676
46749W        W89661   7.099  25.576  26.377 -0.0769  0.0290 -0.0650
46750W        W89662   7.941  25.283  26.794  0.1177 -0.2549 -0.1689
46751W        W89663   8.541  24.536  25.968 -0.1027 -0.3190 -0.1235
46752W        W89664   9.678  21.473  26.410 -0.0327 -0.1192  0.1361
46753W        W89665  11.259  22.569  25.366  0.0074  0.0672  0.1036
46754W        W89666   9.961  24.942  25.471 -0.3139 -0.1331 -0.1204
46755W        W89667  11.655  23.763  27.117 -0.2147 -0.0225  0.0971
46756W        W89668  10.490  23.652  27.147 -0.1165  0.0785  0.1347
46757W        W89669   9.915  24.003  25.464  0.1922 -0.1791 -0.1128
46758W        W89670   8.929  24.778  26.904 -0.0876 -0.4011 -0.0696
46759W        W89671  10.882  25.712  25.459 -0.0470  0.0020  0.1296
46760W        W89672   7.996  25.401  25.297 -0.0564  0.2730 -0.1657
46761W        W89673   6.444  21.772  27.572  0.5505 -0.0738  0.0456
46762W        W89674   8.406  23.648  27.968  0.3154  0.1570 -0.1718
46763W        W89675   9.995  26.227  25.001  0.1291  0.3409 -0.0537
46764W        W89676   7.581  21.960  25.402  0.0651  0.2530  0.2312
46765W        W89677   8.540  24.967  24.714 -0.0673 -0.0526  0.2658
46766W        W89678   8.531  23.779  28.480 -0.0749 -0.1736  0.3770
46767W        W89679   6.910  24.645  26.313 -0.0076 -0.0187  0.1554
46768W        W89680   9.179  26.302  24.056  0.0097  0.1928 -0.0964
46769W        W89681  10.040  26.339  23.566  0.0813  0.1177  0.0254
46770W        W89682  10.315  25.493  24.973  0.0662  0.1176  0.2481
46771W        W89683   8.646  26.259  25.262  0.0723  0.0127 -0.1589
46772W        W89684   8.401  22.387  23.951  0.3473  0.1177  0.0778
46773W        W89685   7.387  24.471  26.078  0.2839  0.0609  0.1040
46774W        W89686   9.284  23.974  23.728  0.1713  0.2569 -0.3674
46775W        W89687   9.905  25.729  24.741 -0.0466 -0.1539  0.1909
46776W        W89688   7.806  24.953  25.376  0.1421 -0.1865  0.0450
46777W        W89689  10.874  25.078  27.146 -0.0804  0.0338  0.1172
46778W        W89690  10.517  21.738  24.878  0.1377  0.1572 -0.1136
46779W        W89691  10.050  24.500  26.086 -0.1408 -0.0365  0.2663
46780W        W89692   9.894  22.477  24.443 -0.2143 -0.1558 -0.2150
46781W        W89693   8.758  23.957  26.637 -0.2789  0.1044  0.0245
46782W        W89694   8.348  23.035  25.759  0.1244  0.1793  0.1309
46783W        W89695   8.809  22.109  22.203  0.1765 -0.1440 -0.0770
46784W        W89696   9.790  23.141  26.039 -0.0052  0.0264  0.1599
46785W        W89697  11.046  21.315  26.795  0.1133  0.1806 -0.2413
46786W        W89698   8.167  25.116  27.571 -0.4695 -0.0474 -0.0122
46787W        W89699  10.460  27.092  25.558  0.0752 -0.1674 -0.1577
46788W        W89700   8.170  23.786  24.642  0.1646  0.0765  0.0635
46789W        W89701   9.366  22.140  25.708 -0.2554  0.0690  0.0487
46790W        W89702   9.887  21.849  27.422  0.0510 -0.0343  0.1068
46791W        W89703   9.207  24.420  23.399 -0.0436 -0.2406 -0.3993
46792W        W89704  11.359  22.822  25.884 -0.0722 -0.0714  0.2023
46793W        W89705   9.381  24.136  25.623  0.0687  0.2084  0.1408
46794W        W89706   7.766  24.399  25.784 -0.0692 -0.0864  0.1011
46795W        W89707   9.260  24.744  26.352  0.2012 -0.1834  0.1894
46796W        W89708   8.247  22.175  23.435  0.0869  0.2005  0.0098
46797W        W89709  11.813  24.136  24.790 -0.2533 -0.1043  0.1219
46798W        W89710   7.144  21.870  26.798 -0.0291 -0.0774  0.2740
46799W        W89711   9.382  22.718  27.036 -0.1309 -0.0659 -0.0397
46800W        W89712   8.886  22.998  25.979 -0.1314 -0.2042  0.5099
46801W        W89713  10.585  23.166  26.363  0.1102 -0.1559  0.1048
46802W        W89714   9.734  23.528  26.763  0.2740 -0.0350 -0.0208
46803W        W89715   7.795  22.595  26.797  0.2867  0.1402  0.3545
46804W        W89716  10.573  24.051  22.948  0.1906 -0.1588 -0.0438
46805W        W89717  10.348  24.808  27.308  0.1836  0.2226 -0.1308
46806W        W89718  10.057  23.920  24.545  0.2161  0.1561  0.1102
46807W        W89719   9.060  25.167  26.389  0.1546  0.0012  0.0897
46808W        W89720   9.595  22.127  25.146  0.1827  0.4426 -0.2067
46809W        W89721   9.104  22.608  24.915 -0.1542 -0.3540 -0.0488
46810W        W89722   8.154  23.516  24.194  0.0928  0.1850 -0.2066
46811W        W89723  10.672  23.260  26.906 -0.1179  0.0779  0.1117
46812W        W89724   9.664  25.342  27.045  0.2641 -0.2162  0.0927
46813W        W89725   8.177  21.079  25.717  0.1342  0.1532  0.3206
46814W        W89726   8.965  26.634  22.827 -0.1106 -0.0136  0.0873
46815W        W89727  10.972  23.252  25.394 -0.1220  0.1354  0.0958
46816W        W89728   8.346  25.758  23.396 -0.1170  0.4057 -0.2370
46817W        W89729   9.877  25.330  25.065  0.4942  0.2668 -0.3523
46818W        W89730   8.570  24.920  26.271  0.2352  0.0725 -0.0590
46819W        W89731   9.393  22.844  26.247 -0.0515  0.0583 -0.0792
46820W        W89732   9.278  24.275  26.496 -0.0224 -0.3922 -0.0480
46821W        W89733  11.611  24.378  26.520  0.3137  0.0143 -0.3725
46822W        W89734   8.772  21.983  23.925 -0.5640  0.0988  0.0046
46823W        W89735   8.900  23.613  27.005 -0.1021  0.1061 -0.0769
46824W        W89736   6.904  24.450  24.842 -0.0827  0.0313 -0.0285
46825W        W89737   9.572  21.717  25.553 -0.1080  0.0698 -0.2590
46826W        W89738  10.084  22.266  26.047  0.1988  0.2235  0.0218
46827W        W89739   8.785  25.755  23.095  0.1232 -0.1915 -0.1284
46828W        W89740   9.945  21.717  29.932  0.3565 -0.2002  0.1023
46829W        W89741   9.554  26.221  25.216  0.2061 -0.0733  0.0267
46830W        W89742   8.360  23.069  28.069 -0.0709 -0.2122  0.0634
46831W        W89743   7.150  24.424  23.793 -0.0256 -0.0626  0.2847
46832W        W89744   8.563  23.447  25.993 -0.0113 -0.2149  0.0075
46833W        W89745   9.603  23.273  25.148 -0.1023  0.3547 -0.0663
46834W        W89746   9.055  27.780  24.451 -0.0116  0.1437  0.0264
46835W        W89747  10.002  24.423  26.576  0.2312 -0.2066 -0.0928
46836W        W89748   8.619  25.049  25.215  0.1769  0.2231  0.1447
46837W        W89749  11.604  25.733  24.768  0.3263  0.0296 -0.1816
46838W        W89750   8.890  22.346  26.990  0.1342  0.0742 -0.0272
46839W        W89751  11.538  20.423  25.626 -0.1900 -0.2385  0.0918
46840W        W89752  10.389  21.601  24.454 -0.1410  0.0864 -0.1764
46841W        W89753   9.046  24.068  24.808  0.0051 -0.2574 -0.0976
46842W        W89754   6.703  24.333  22.898 -0.1005 -0.0518  0.1069
46843W        W89755   8.455  23.948  22.938 -0.0290 -0.3063  0.0076
46844W        W89756   8.840  23.263  25.540 -0.0563 -0.1049  0.1036
46845W        W89757   9.327  21.327  26.907  0.1965 -0.2850 -0.0888
46846W        W89758   7.831  23.050  27.835  0.2672 -0.0117 -0.2003
46847W        W89759   7.933  22.757  24.755  0.0135  0.0586 -0.0126
46848W        W89760   8.661  22.019  24.918  0.2481  0.4560 -0.1565
46849W        W89761   9.815  25.171  24.166 -0.2253  0.1052  0.1520
46850W        W89762   8.843  21.171  26.219 -0.2897  0.1624  0.2130
46851W        W89763   8.356  21.549  25.851 -0.0675  0.0685  0.3977
46852W        W89764  10.550  24.787  25.418 -0.4089 -0.3617 -0.1181
46853W        W89765  10.105  25.465  23.134 -0.1693 -0.2317  0.0289
46854W        W89766   9.735  23.025  26.558 -0.0472 -0.1558 -0.4541
46855W        W89767  10.510  24.248  27.155 -0.1122 -0.2033 -0.0977
46856W        W89768   7.232  24.907  23.657  0.0857 -0.2186  0.0988
46857W        W89769  10.382  23.514  27.647  0.2096  0.1428 -0.0673
46858W        W89770  11.066  22.760  26.339 -0.0182  0.1968  0.4400
46859W        W89771   8.297  23.293  24.681 -0.0441  0.1798 -0.0889
46860W        W89772   9.977  24.749  24.818 -0.1972 -0.3315 -0.3331
46861W        W89773   8.946  25.922  25.987  0.3604 -0.0279 -0.2225
46862W        W89774  11.087  27.210  22.879 -0.3007  0.0737  0.2511
46863W        W89775   8.814  24.301  26.978 -0.0893  0.1585  0.0806
46864W        W89776   8.671  24.675  27.309  0.1605  0.1363 -0.0295
46865W        W89777   5.770  22.932  27.354 -0.1403  0.0877 -0.0634
46866W        W89778  10.897  24.844  24.575 -0.1032 -0.1732 -0.0858
46867W        W89779   9.328  23.260  25.875 -0.0259 -0.1034  0.1101
46868W        W89780  10.912  27.138  23.865  0.1786 -0.1031  0.1521
46869W        W89781  11.816  22.361  25.324  0.1160  0.0313 -0.2060
46870W        W89782   9.918  23.712  23.814  0.1769 -0.1088  0.2219
46871W        W89783   7.402  21.266  28.586  0.3624  0.0649 -0.0176
46872W        W89784   8.510  23.927  27.071 -0.0575 -0.0593  0.1587
46873W        W89785  10.953  23.697  25.935  0.2284  0.1400  0.1662
46874W        W89786   9.370  21.508  26.015 -0.0588 -0.0809 -0.0508
46875W        W89787   9.856  22.104  25.654  0.2090  0.0384  0.2039
46876W        W89788   8.250  24.744  25.023 -0.0026 -0.0326  0.3168
46877W        W89789   8.692  22.592  26.113 -0.0177 -0.4519 -0.2628
46878W        W89790   8.934  23.079  25.094 -0.1285  0.1101  0.1978
46879W        W89791  10.086  24.563  27.650 -0.2630  0.2232 -0.0043
46880W        W89792   8.076  24.686  26.111 -0.1358 -0.0671  0.0272
46881W        W89793  10.219  25.325  27.168  0.1498 -0.2082 -0.4058
46882W        W89794  10.216  23.513  23.430  0.0509 -0.2148 -0.0138
46883W        W89795  10.234  23.393  24.850  0.2167 -0.1993  0.1927
46884W        W89796  10.410  25.728  26.502  0.1155 -0.2160 -0.2886
46885W        W89797   9.409  25.928  27.981 -0.0403  0.1641  0.0972
46886W        W89798   9.754  25.763  25.743  0.4671  0.1669 -0.2265
46887W        W89799  10.536  24.509  26.223 -0.0345 -0.1764  0.0113
46888W        W89800   6.893  21.398  26.674  0.1605 -0.2954  0.0656
46889W        W89801   8.845  24.606  25.544 -0.1591  0.0147  0.0362
46890W        W89802   9.305  24.497  24.800 -0.1266 -0.2543 -0.0373
46891W        W89803  10.327  22.971  26.003 -0.0983  0.3473  0.0710
46892W        W89804   9.615  22.729  24.796 -0.1326 -0.1078 -0.1892
46893W        W89805  10.028  21.839  25.232  0.1397 -0.1008 -0.0209
46894W        W89806   8.605  25.343  26.554  0.1554  0.0717  0.0882
46895W        W89807   9.332  25.803  25.424 -0.1693 -0.2369 -0.2420
46896W        W89808   8.067  24.793  29.542 -0.0414 -0.0692 -0.1400
46897W        W89809   8.515  22.279  29.626  0.0231 -0.0233  0.0504
46898W        W89810  10.372  21.542  27.462 -0.1864  0.0081 -0.1452
46899W        W89811   9.588  22.394  28.108  0.1166  0.3293  0.0779
46900W        W89812   8.296  20.956  30.218  0.1324  0.1086 -0.1327
46901W        W89813  10.377  24.263  27.917 -0.0290  0.0882  0.1722
46902W        W89814   6.954  21.285  30.457  0.1151  0.1085 -0.1270
46903W        W89815   8.941  23.425  30.377  0.0032  0.1227 -0.0478
46904W        W89816   9.369  23.188  30.759 -0.2180  0.3279 -0.1507
46905W        W89817  10.082  23.846  27.040  0.0959  0.2208 -0.0057
46906W        W89818   9.165  22.224  30.855 -0.0592 -0.1277 -0.0923
46907W        W89819   9.283  25.547  30.316  0.2766 -0.0225  0.0777
46908W        W89820   9.647  21.131  27.985 -0.2672  0.1526 -0.1203
46909W        W89821   6.228  21.992  29.318 -0.1830  0.3131  0.0264
46910W        W89822  10.390  22.667  30.524 -0.0464  0.2339 -0.1199
46911W        W89823   6.793  24.065  28.962  0.2273 -0.1116  0.1695
46912W        W89824   9.090  22.453  31.299 -0.0103  0.0542  0.1047
46913W        W89825   9.958  22.621  28.286 -0.0754  0.0126  0.1733
46914W        W89826   9.249  24.335  28.998  0.3874 -0.3717  0.0010
46915W        W89827   9.719  22.115  30.720  0.1147  0.0393  0.0283
46916W        W89828   9.671  21.702  31.651  0.2487 -0.0478 -0.2660
46917W        W89829   9.850  22.958  27.063 -0.2887  0.2473 -0.4184
46918W        W89830   9.048  24.114  28.389  0.2911 -0.1470  0.0513
46919W        W89831   9.032  22.924  29.324 -0.0745 -0.1640  0.2245
46920W        W89832   9.518  23.205  29.705  0.0297  0.1000 -0.3656
46921W        W89833  10.822  23.062  29.736 -0.2743 -0.2792  0.1033
46922W        W89834  11.319  24.329  30.221  0.0002 -0.1697  0.2395
46923W        W89835   7.969  23.919  29.252 -0.0749  0.4598 -0.2788
46924W        W89836   9.161  24.893  30.087  0.1967  0.1216 -0.1332
46925W        W89837   7.917  22.749  31.765  0.1224  0.2001 -0.0454
46926W        W89838   7.603  23.858  28.111  0.0829  0.0519  0.0687
46927W        W89839   7.045  25.089  29.149 -0.2315 -0.1426  0.0568
46928W        W89840   8.536  24.332  28.566 -0.3156  0.1228 -0.1174
46929W        W89841  13.062  24.454  27.780 -0.0794 -0.1943  0.0633
46930W        W89842  10.193  24.500  30.648  0.0046 -0.1802 -0.2958
46931W        W89843   7.562  24.844   0.121 -0.1347 -0.1046 -0.0201
46932W        W89844   7.012  24.388  27.072 -0.1288  0.0660 -0.0798
46933W        W89845   8.957  23.875  30.224 -0.0212 -0.0626  0.3017
46934W        W89846  10.068  24.347  30.079 -0.1238  0.2990  0.2000
46935W        W89847   8.217  22.395  31.067 -0.0354  0.3327 -0.1146
46936W        W89848   9.111  23.550  29.823  0.1321  0.3974 -0.0049
46937W        W89849   8.791  24.107  27.451  0.1200 -0.0789 -0.0411
46938W        W89850  10.332  24.048  30.353 -0.3110 -0.3045  0.1251
46939W        W89851   8.864  25.292  29.988 -0.1881  0.1319  0.1261
46940W        W89852   9.239  23.393  29.346  0.2104 -0.3239 -0.0913
46941W        W89853  10.758  21.832  30.875 -0.2775 -0.2444 -0.0355
46942W        W89854   8.309  24.075  27.639  0.0227 -0.1438  0.1020
46943W        W89855  10.356  24.100  26.708 -0.0656 -0.2301 -0.4591
46944W        W89856   9.098  22.101  28.410 -0.2355  0.2477 -0.1323
46945W        W89857  10.163  23.340  26.951 -0.0336 -0.1342  0.3380
46946W        W89858   9.111  21.987  29.988 -0.2055  0.1919 -0.2557
46947W        W89859   7.944  27.185  29.125  0.1507  0.3577 -0.1833
46948W        W89860   7.619  20.400  31.832 -0.1366  0.0880  0.2635
46949W        W89861   9.847  23.364  30.075 -0.0498 -0.0537  0.0454
46950W        W89862   8.850  22.635  28.579  0.0450 -0.0394 -0.4578
46951W        W89863   8.838  23.506   0.222 -0.2809  0.0559  0.1085
46952W        W89864   7.457  24.339  29.740  0.0091 -0.2914 -0.0040
46953W        W89865   7.734  22.167  29.160  0.1307 -0.1155 -0.0372
46954W        W89866  10.168  25.722  28.398  0.1779  0.2464  0.1270
46955W        W89867  11.213  24.505  28.522  0.3077 -0.1766  0.3958
46956W        W89868   9.880  25.168  27.532 -0.0939  0.2607 -0.2880
46957W        W89869   8.431  22.990  28.603  0.1775  0.0447 -0.0132
46958W        W89870   8.709  23.856  29.674 -0.1661 -0.4589 -0.0961
46959W        W89871   8.135  22.226  30.446  0.0568  0.0446  0.0532
46960W        W89872   7.642  20.781  27.983  0.0396  0.0424  0.0428
46961W        W89873  10.977  23.781  30.940 -0.1699  0.0388  0.2096
46962W        W89874   8.353  23.995  30.036 -0.1911  0.3115  0.1996
46963W        W89875  10.000  21.539  28.281  0.0610  0.1271  0.0285
46964W        W89876  10.429  23.680  29.720  0.1258 -0.4267  0.1460
46965W        W89877   9.829  24.276  28.955 -0.0294  0.0018  0.1347
46966W        W89878   9.591  25.300  25.511 -0.1434  0.1338 -0.0504
46967W        W89879  10.270  22.288  30.213 -0.1433 -0.1784  0.0854
46968W        W89880   9.993  22.560  30.835 -0.2517 -0.0799  0.1386
46969W        W89881   9.153  23.680  27.517  0.1270 -0.1034  0.0608
46970W        W89882   8.200  24.327  27.183 -0.0226 -0.1065 -0.2451
46971W        W89883  11.880  24.155  31.453 -0.2051  0.0891  0.0928
46972W        W89884  10.812  22.509  28.706 -0.0834 -0.0712 -0.1687
46973W        W89885   8.068  24.253  28.551  0.0710  0.0120 -0.1203
46974W        W89886   8.487  22.904  30.951  0.1624  0.1486 -0.0978
46975W        W89887  10.490  24.340  31.311  0.0942  0.0747  0.0218
46976W        W89888   9.080  25.281  27.057 -0.0947  0.2047  0.2852
46977W        W89889   8.962  23.136  28.378  0.3415 -0.4419  0.0077
46978W        W89890   9.835  24.207  27.868  0.0797  0.3509 -0.2445
46979W        W89891   6.301  21.757  30.035  0.0330 -0.2161  0.2844
46980W        W89892   9.557  24.607  28.643 -0.0766 -0.1031  0.0885
46981W        W89893  10.260  23.023  27.330 -0.1384  0.3576 -0.1411
46982W        W89894   6.748  20.960  29.969 -0.3077  0.1231 -0.0704
46983W        W89895  10.827  22.126  28.358 -0.2088  0.3752  0.0712
46984W        W89896   7.903  24.405  26.736 -0.2063  0.3811  0.0733
46985W        W89897  10.850  24.854  28.541 -0.2738  0.0829 -0.1945
46986W        W89898   9.903  23.758  28.045  0.0241  0.0036 -0.2117
46987W        W89899  10.619  25.507  28.079  0.2197 -0.2262 -0.1890
46988W        W89900   8.226  23.120  29.966 -0.0625 -0.0523  0.1101
46989W        W89901   8.815  21.988  29.395  0.1021  0.1445  0.0228
46990W        W89902   7.701  21.680  29.911 -0.1456  0.2363  0.0823
46991W        W89903   9.284  22.048  31.525  0.0139 -0.0294  0.1303
46992W        W89904   8.390  23.413  30.879  0.0543  0.3411  0.3111
46993W        W89905   8.239  22.340  29.150  0.3350  0.1552  0.1718
46994W        W89906   9.355  22.737  27.583 -0.1096 -0.1661  0.4476
46995W        W89907   7.730  23.460  29.275 -0.2940 -0.2000 -0.1603
46996W        W89908   8.160  23.619  28.876 -0.0902 -0.0600  0.0060
46997W        W89909  10.439  21.180  31.168  0.1072  0.0675 -0.1459
46998W        W89910   8.711  25.568  28.490  0.0137  0.1914  0.0297
46999W        W89911  11.559  24.359  30.760  0.1050 -0.0284  0.2134
47000W        W89912  10.698  24.537  29.281  0.0793  0.0146 -0.2328
47001W        W89913   6.791  21.884  30.289 -0.1636 -0.1958  0.2028
47002W        W89914   8.742  23.261  27.792  0.1642  0.0630 -0.4779
47003W        W89915   7.969  25.277  28.616  0.4098  0.0132 -0.0414
47004W        W89916   7.886  25.799  29.182 -0.1274  0.0623  0.3578
47005W        W89917   8.031  21.951  29.487  0.1236 -0.2473  0.0246
47006W        W89918  10.206  25.366  31.043 -0.1289 -0.0134  0.0634
47007W        W89919   8.010  22.308  29.918 -0.1228  0.0618  0.2993
47008W        W89920   8.512  23.882  29.260  0.0555 -0.3142  0.1224
47009W        W89921   9.513  21.170  30.506  0.1039  0.1371  0.1073
47010W        W89922  10.772  23.879  30.032 -0.2248 -0.1857  0.1587
47011W        W89923   9.415  22.616  29.983  0.0970  0.0514 -0.0466
47012W        W89924   8.124  22.509  28.575 -0.0677 -0.3858  0.0085
47013W        W89925   9.666  25.652  27.571 -0.0766 -0.2401 -0.1453
47014W        W89926   8.176  24.620  27.659  0.1067  0.0081  0.1334
47015W        W89927   6.896  23.917  27.913  0.0970 -0.0166 -0.2197
47016W        W89928   9.533  25.055  29.007 -0.2205  0.0145  0.3192
47017W        W89929   9.199  20.930  28.144  0.2222  0.1918  0.0207
47018W        W89930   7.791  23.470  30.698 -0.2121  0.2450 -0.0025
47019W        W89931   9.448  21.291  30.994 -0.1109 -0.3019 -0.1562
47020W        W89932   7.559  21.703  28.836  0.3372  0.1968 -0.5870
47021W        W89933   8.168  24.700  30.048  0.3538  0.1568  0.0290
47022W        W89934   9.544  22.760  29.482 -0.0660 -0.0318 -0.0043
47023W        W89935   9.868  22.741  27.514 -0.3994  0.0656 -0.0528
47024W        W89936   8.045  23.537  30.155 -0.3943  0.0959 -0.1296
47025W        W89937  11.732  24.700  27.272  0.0948  0.3532 -0.3533
47026W        W89938  10.289  22.551  27.383 -0.0855  0.0887 -0.1354
47027W        W89939  10.201  21.739  26.098  0.1338  0.1361  0.0109
47028W        W89940   8.667  23.828  31.262 -0.0414 -0.0220 -0.0939
47029W        W89941   9.435  24.399  28.211  0.1724 -0.3138 -0.1478
47030W        W89942   9.651  24.268  29.785  0.0837 -0.0441  0.2036
47031W        W89943   9.574  22.252  27.554 -0.0302 -0.0032 -0.1733
47032W        W89944  11.534  25.302  27.952 -0.2875 -0.2394  0.3082
47033W        W89945   8.593  22.897  29.071  0.1613  0.1152 -0.2689
47034W        W89946   9.689  23.395  31.099  0.0258  0.0693 -0.1264
47035W        W89947   9.313  23.796  28.914  0.2397 -0.0216  0.0974
47036W        W89948   9.194  20.840  31.405 -0.1913 -0.1097  0.0555
47037W        W89949   9.744  23.957  27.386 -0.0230 -0.0477  0.0935
47038W        W89950   9.606  22.118  30.256  0.0388 -0.2803 -0.0015
47039W        W89951   9.044  24.868  27.702 -0.2575  0.1550 -0.2598
47040W        W89952  10.858  21.758  29.574  0.2218  0.3535  0.1055
47041W        W89953   9.478  23.714  30.101 -0.1161  0.3221 -0.2147
47042W        W89954   7.981  21.299  31.627  0.0526  0.1184 -0.0308
47043W        W89955  11.659  22.442  29.546  0.0945  0.0280 -0.1123
47044W        W89956   9.863  22.347  27.188 -0.3046  0.1644  0.0646
47045W        W89957   9.799  24.055  30.523 -0.0740  0.0474  0.2721
47046W        W89958   8.284  22.529  28.083 -0.1251  0.1149  0.1415
47047W        W89959   9.311  23.664  30.580 -0.1313  0.0452 -0.0938
47048W        W89960   7.670  23.193  30.288 -0.2664  0.0527  0.1005
47049W        W89961   8.427  25.357  30.989  0.2699 -0.0429 -0.3478
47050W        W89962   9.673  23.903  30.980 -0.1364 -0.0168 -0.3039
47051W        W89963   9.920  24.270  28.357 -0.0865 -0.2038 -0.0559
47052W        W89964  10.414  21.440  30.609 -0.0215 -0.0745 -0.0081
47053W        W89965   8.015  21.854  28.919 -0.3760  0.1643 -0.2958
47054W        W89966   9.070  24.674  28.612  0.0230  0.0531 -0.0590
47055W        W89967   8.059  23.823  27.240  0.0515  0.2904  0.0571
47056W        W89968   9.076  20.453  30.240 -0.1146 -0.2303 -0.0547
47057W        W89969   9.018  23.855  29.319  0.0084  0.2088  0.0737
47058W        W89970   8.977  23.637  25.804 -0.0223 -0.2469 -0.2162
47059W        W89971   9.021  22.867  30.493  0.0388  0.0987 -0.1807
47060W        W89972   9.040  23.210  28.925 -0.1067 -0.0669  0.1336
47061W        W89973  10.045  22.131  28.300 -0.1432  0.2163  0.1990
47062W        W89974   7.813  24.364  29.079 -0.1796  0.2274  0.0004
47063W        W89975   9.076  22.442  27.974  0.0375  0.1397 -0.0545
47064W        W89976   7.522  23.309  28.433 -0.2220  0.1649  0.2231
47065W        W89977  10.930  23.047  28.457  0.0753  0.0863  0.2693
47066W        W89978  10.628  23.069  27.721  0.2011  0.0206  0.0646
47067W        W89979   7.745  22.163  31.083  0.1182 -0.2470  0.1970
47068W        W89980   9.872  21.449  30.607  0.1950  0.0652  0.0537
47069W        W89981   6.837  24.152  30.739 -0.1625  0.0324  0.0918
47070W        W89982   9.295  23.577  31.908  0.0110  0.0299 -0.0561
47071W        W89983   9.502  22.302  28.619  0.3964 -0.3126  0.0928
47072W        W89984  10.390  24.340  29.604  0.2204  0.0387 -0.2375
47073W        W89985   7.555  24.149   0.261  0.3384 -0.0553  0.3674
47074W        W89986   7.443  23.387  27.951 -0.0958 -0.1359  0.0771
47075W        W89987  10.184  23.775  30.767  0.0614 -0.2455 -0.1006
47076W        W89988   8.482  22.784  29.589  0.1012  0.1566  0.2071
47077W        W89989   5.978  23.762  29.721 -0.1749  0.4099  0.0859
47078W        W89990  10.573  23.536  29.199  0.2741  0.1286 -0.0756
47079W        W89991   7.333  23.857  27.715 -0.1408 -0.0789  0.0842
47080W        W89992   7.005  24.155  29.611 -0.1248  0.2584 -0.0255
47081W        W89993   7.598  22.519   0.083 -0.1202  0.2463 -0.4353
47082W        W89994  10.114  23.107  31.076  0.2050 -0.0612  0.0048
47083W        W89995   8.632  23.506  28.932 -0.0406  0.1609  0.0242
47084W        W89996   8.531  21.877  28.913  0.1007  0.0997  0.2041
47085W        W89997   9.872  21.768  29.392  0.0715 -0.0206 -0.1400
47086W        W89998   9.695  24.285  31.403 -0.0337  0.1926 -0.3277
47087W        W89999   7.788  22.829  29.989 -0.2407 -0.0542  0.3926
47088W        W90000   7.230  24.294  30.964  0.0406 -0.0418  0.0846
47089W        W90001   8.822  22.205  31.694  0.0027 -0.0682  0.2120
47090W        W90002  10.417  25.259  30.059  0.1467 -0.3322 -0.1414
47091W        W90003   9.894  23.556  31.724  0.1883 -0.0184 -0.1019
47092W        W90004   7.244  23.610  27.251  0.0002  0.2742 -0.2547
47093W        W90005   7.866  23.876  29.815  0.2252 -0.0008  0.0140
47094W        W90006   9.614  25.152  28.489  0.0114 -0.1229  0.0047
47095W        W90007   8.823  23.056  29.996  0.0051  0.0185 -0.1404
47096W        W90008   9.180  24.051  29.742 -0.0515  0.0653 -0.1815
47097W        W90009   9.844  24.716  28.145  0.0665 -0.0145 -0.2501
47098W        W90010   8.336  23.323  31.457  0.0400  0.0420  0.1284
47099W        W90011  10.075  20.635  27.862  0.1001 -0.1834 -0.0889
47100W        W90012   8.600  24.100  28.095  0.3208  0.0364 -0.0264
47101W        W90013  10.189  22.172  29.658  0.1033  0.2180  0.0772
47102W        W90014   9.756  23.087  31.506  0.1117 -0.1382  0.1310
47103W        W90015  10.817  23.408  27.411 -0.3036  0.1542  0.0697
47104W        W90016   9.494  22.631  31.576  0.1571  0.3993 -0.0163
47105W        W90017   7.395  22.557  31.507  0.1469 -0.1508 -0.1292
47106W        W90018  10.428  23.089  28.280  0.0155  0.3130  0.0046
47107W        W90019   7.194  22.690  30.522 -0.1701 -0.1335 -0.2849
47108W        W90020  10.831  26.024  31.562 -0.0176 -0.1806  0.0042
47109W        W90021   7.953  23.287   1.278 -0.2912 -0.1741  0.3988
47110W        W90022   9.667  22.072  29.100 -0.0967  0.2136 -0.1640
47111W        W90023   8.755  22.784  28.005 -0.1596  0.0222 -0.0335
47112W        W90024   8.411  23.623  30.455 -0.3247 -0.1288 -0.0934
47113W        W90025  11.106  24.766  30.018 -0.2289  0.1498 -0.1223
47114W        W90026   9.552  24.703  27.768 -0.1122  0.1442  0.1696
47115W        W90027  10.696  24.044  29.166 -0.0818 -0.0886 -0.1249
47116W        W90028   8.659  22.097  30.150  0.1779 -0.3923 -0.1826
47117W        W90029  10.110  22.878  29.190 -0.1626  0.0826  0.1057
47118W        W90030   9.106  21.794  26.907 -0.1447  0.0006 -0.1005
47119W        W90031   8.692  23.282  29.484  0.0882 -0.1414  0.0463
47120W        W90032   8.236  21.885  30.066  0.2932  0.0012  0.2779
47121W        W90033  11.110  23.603  28.354  0.0190  0.1714 -0.1409
47122W        W90034  11.347  23.303  28.661  0.1160  0.1744 -0.0113
47123W        W90035   9.905  22.571  29.852  0.1036 -0.2136 -0.3758
47124W        W90036  10.100  22.126  31.183  0.0144  0.0238 -0.0277
47125W        W90037   9.021  23.719  31.547  0.4451 -0.3138 -0.0102
47126W        W90038   8.278  21.899  31.098 -0.0719  0.3981  0.2874
47127W        W90039  10.331  24.877  31.274 -0.1371  0.1277 -0.0258
47128W        W90040  10.745  23.512  28.637 -0.2051 -0.2308 -0.1656
47129W        W90041  10.235  23.234  30.540  0.1529 -0.0189  0.0138
47130W        W90042  12.211  23.475  27.901 -0.1506 -0.1611  0.0762
47131W        W90043  10.065  23.176  27.856  0.0697  0.0128  0.0753
47132W        W90044   9.429  21.616  30.200 -0.0471  0.1318  0.5044
47133W        W90045  10.368  22.777  31.748  0.1717  0.0498 -0.0977
47134W        W90046   8.046  22.806  29.085  0.2688 -0.0278 -0.1574
47135W        W90047   9.815  22.147  31.642 -0.2617 -0.0028 -0.0393
47136W        W90048   8.299  24.526  28.158  0.0811  0.0545 -0.0289
47137W        W90049   9.740  23.229  29.224 -0.1276 -0.3213  0.3374
47138W        W90050   9.953  23.733  29.075 -0.3079  0.3483 -0.0756
47139W        W90051   7.988  22.998  28.418 -0.1417  0.3006  0.1547
47140W        W90052   8.492  24.368  29.795 -0.6009  0.0232  0.1998
47141W        W90053   7.751  22.528  28.087 -0.1224 -0.0000 -0.2844
47142W        W90054   9.009  23.645  28.028 -0.0082  0.2358  0.2855
47143W        W90055   9.158  24.217  31.512  0.0457  0.2896 -0.3579
47144W        W90056  11.683  24.598   0.332  0.3355 -0.1741 -0.0305
47145W        W90057   9.259  21.372  27.793  0.2784  0.1135 -0.0177
47146W        W90058  10.608  22.329  31.077 -0.2501 -0.1465 -0.0169
47147W        W90059   8.095  24.046  28.082  0.0045  0.2874 -0.0898
47148W        W90060  10.189  21.807  30.325  0.0813  0.0243  0.1186
47149W        W90061   8.033  23.958  30.394 -0.0644 -0.0910  0.1659
47150W        W90062   7.045  24.160  28.459  0.4000 -0.0909  0.0627
47151W        W90063   9.025  23.638  28.520 -0.0893 -0.0930  0.0351
47152W        W90064  10.686  22.046  30.389 -0.2933  0.0417  0.2303
47153W        W90065  10.591  23.562  28.094 -0.2512  0.0856 -0.0031
47154W        W90066   8.571  23.480  29.987 -0.1097 -0.0128 -0.1450
47155W        W90067  10.544  23.392  31.485  0.4714  0.2421  0.1623
47156W        W90068   9.746  24.407  30.879 -0.1273  0.2237 -0.1049
47157W        W90069   8.896  24.013  28.881  0.2853  0.0950 -0.0455
47158W        W90070   9.113  24.584  29.587 -0.1480 -0.4466 -0.1985
47159W        W90071  10.250  23.335  28.870 -0.0266 -0.0384 -0.0417
47160W        W90072   9.452  24.233  30.201 -0.0677  0.4188 -0.0106
47161W        W90073   7.216  23.417  30.227 -0.0898 -0.4390  0.2289
47162W        W90074   9.708  25.102  31.606  0.0659 -0.3688  0.2226
47163W        W90075  10.623  22.654  30.016 -0.0079 -0.0706  0.0529
47164W        W90076   8.066  21.422  30.168  0.3873  0.1085 -0.3601
47165W        W90077   7.660  25.014  27.771  0.2071 -0.1161 -0.1098
47166W        W90078   8.208  26.072   0.090  0.0375 -0.0166 -0.6713
47167W        W90079   7.627  22.442  30.652  0.0063 -0.1650 -0.1146
47168W        W90080   8.107  26.035  27.527 -0.3129  0.3768  0.2452
47169W        W90081  10.682  24.957  28.107  0.0901 -0.0422  0.0630
47170W        W90082   8.851  24.568  28.175  0.0906  0.3334  0.0847
47171W        W90083   8.327  26.225  29.786 -0.1975  0.0025  0.0991
47172W        W90084   9.470  23.405  26.348 -0.0829  0.0525 -0.2132
47173W        W90085   7.246  25.902  28.234 -0.3808  0.1336 -0.1129
47174W        W90086   8.054  23.494  28.337 -0.2166  0.0836 -0.1948
47175W        W90087   9.541  25.245  26.214 -0.0024 -0.1550  0.0085
47176W        W90088   8.650  24.686  28.987  0.1275 -0.0566 -0.0576
47177W        W90089   9.348  23.204  30.227  0.1218  0.1408  0.0095
47178W        W90090  10.187  22.013  29.120 -0.1336 -0.2635  0.0683
47179W        W90091  10.930  23.426  30.179 -0.1529  0.0662  0.3122
47180W        W90092  10.165  22.882  30.118  0.1911  0.1079 -0.2325
47181W        W90093  10.544  23.313  30.902 -0.0652 -0.2054 -0.0087
47182W        W90094   9.433  21.810  31.058  0.2497  0.2682  0.0148
47183W        W90095   8.318  22.051  28.412 -0.2116 -0.1714  0.5730
47184W        W90096   7.127  22.702  29.752 -0.0327 -0.0321  0.1044
47185W        W90097   9.954  23.027  29.665 -0.3631  0.0164 -0.0084
47186W        W90098   6.818  24.954  30.306 -0.0484  0.0065 -0.2974
47187W        W90099  11.121  26.111  28.749 -0.0333 -0.1265 -0.1403
47188W        W90100   7.777  23.231  28.857 -0.1788 -0.0991 -0.1358
47189W        W90101   8.915  22.607  29.752  0.0710 -0.3187 -0.1136
47190W        W90102  11.207  21.889  30.549  0.0782 -0.3906 -0.0562
47191W        W90103  10.191  22.454  26.828 -0.1084  0.0435  0.0595
47192W        W90104   8.116  23.141  30.453 -0.0259 -0.0018 -0.2745
47193W        W90105   9.525  24.048  28.595  0.1209  0.1183 -0.0499
47194W        W90106   8.034  24.272  29.571 -0.1944  0.2044 -0.1999
47195W        W90107   8.713  26.005  29.498  0.0616 -0.1464  0.2313
47196W        W90108   6.927  22.752  28.369  0.2543  0.0411  0.0980
47197W        W90109  11.064  22.899  30.107  0.0484  0.1215 -0.0208
47198W        W90110   8.842  21.946  31.229  0.1374  0.3897  0.2515
47199W        W90111  11.392  21.534  29.744  0.1141 -0.0620 -0.0557
47200W        W90112   8.832  22.444  29.167  0.1672 -0.0974 -0.1287
47201W        W90113  10.409  22.436  29.005 -0.3247 -0.2215  0.2127
47202W        W90114  10.117  23.640  31.256  0.4195 -0.3916  0.1294
47203W        W90115   8.640  21.612  30.888 -0.0264 -0.3728 -0.1998
47204W        W90116   7.345  22.689  26.981  0.0571 -0.0081  0.1536
47205W        W90117  10.545  24.106  30.797  0.1070  0.1862  0.1114
47206W        W90118   9.425  23.552  27.115 -0.0165  0.2869 -0.1282
47207W        W90119  11.136  24.828  29.521  0.1228  0.1475 -0.0882
47208W        W90120   7.233  21.744  30.128  0.4523  0.0286  0.1069
47209W        W90121   9.374  22.819  28.306  0.2089  0.0662 -0.0981
47210W        W90122   7.619  23.750  30.273 -0.0942  0.0738  0.2801
47211W        W90123   9.552  23.794  31.473  0.2572  0.0615  0.1761
47212W        W90124   9.638  24.950  30.003 -0.3574 -0.1448  0.4345
47213W        W90125   7.271  22.292  28.431 -0.0027  0.2992 -0.0992
47214W        W90126  10.736  24.615  27.656 -0.0354  0.0561 -0.2172
47215W        W90127  11.756  23.567  28.748 -0.0333  0.0279  0.0399
47216W        W90128   8.853  26.675  27.421  0.0397  0.3578 -0.1079
47217W        W90129   9.994  23.645  28.573  0.2015 -0.0319  0.1368
47218W        W90130  10.890  24.354  29.732 -0.2820 -0.0197 -0.1237
47219W        W90131   7.274  23.766  29.781 -0.0156 -0.0906  0.2748
47220W        W90132  10.692  24.437  28.815 -0.0468  0.0810 -0.2380
47221W        W90133  11.135  24.667  30.570  0.0876  0.1195 -0.0564
47222W        W90134   9.677  21.774  28.712  0.2728 -0.1645 -0.2326
47223W        W90135   8.549  22.499  30.514  0.0794  0.2116 -0.0088
47224W        W90136   8.195  23.593  29.552  0.1656  0.2523  0.1626
47225W        W90137  11.427  22.080  29.776  0.3446  0.2955 -0.3726
47226W        W90138  11.577  22.061  30.917  0.1063  0.0887  0.1708
47227W        W90139  10.014  24.854  26.844 -0.1878  0.2750  0.1300
47228W        W90140  11.028  21.253  30.864 -0.1014 -0.0265 -0.2104
47229W        W90141   8.502  25.166  30.332  0.1905  0.1209 -0.0615
47230W        W90142   9.222  25.361  29.302  0.2735 -0.0422  0.1370
47231W        W90143   7.212  23.049  27.319  0.3965 -0.3834  0.1252
47232W        W90144   8.578  23.018  30.453  0.1228 -0.0859  0.3489
47233W        W90145   8.680  24.481  27.743  0.3638 -0.0952  0.1188
47234W        W90146   9.613  24.481  27.336  0.2181 -0.1086 -0.1644
47235W        W90147   9.896  24.693  31.251  0.0599 -0.1508  0.1446
47236W        W90148   9.974  22.351  28.742 -0.0741  0.0930  0.1558
47237W        W90149  11.131  24.682  28.080  0.1467  0.0399  0.0325
47238W        W90150   8.979  21.802  30.505  0.0026  0.2069 -0.0615
47239W        W90151  10.054  21.569  28.983  0.1739 -0.1657  0.1693
47240W        W90152   9.022  22.349  30.373  0.2710  0.2430 -0.0279
47241W        W90153   8.407  22.632  30.031  0.1474  0.0171 -0.2902
47242W        W90154   5.557  22.779  29.125 -0.1195  0.1389 -0.2306
47243W        W90155   7.670  22.560  28.896 -0.1327  0.1956 -0.2320
47244W        W90156   9.260  22.556  28.977 -0.2002  0.0420  0.2223
47245W        W90157   9.584  21.599   0.594  0.1351 -0.3395 -0.1455
47246W        W90158   9.106  21.536  31.356 -0.1867 -0.3026  0.1623
47247W        W90159   7.048  23.180  28.632 -0.2797 -0.1401 -0.2863
47248W        W90160   7.349  23.522  28.958 -0.2067  0.2143  0.0021
47249W        W90161  11.185  23.763  27.469  0.1429  0.0825  0.5262
47250W        W90162   7.819  21.628  31.081  0.1556  0.1525 -0.0564
47251W        W90163   6.907  21.562  28.885  0.1856  0.1744  0.2675
47252W        W90164   8.812  25.394  28.019 -0.1856 -0.0078  0.0806
47253W        W90165  11.420  23.582  29.361 -0.1838  0.0391 -0.1648
47254W        W90166   8.144  20.965  28.491 -0.0063 -0.1702 -0.0580
47255W        W90167   9.530  25.879  30.015 -0.0406 -0.2574 -0.0723
47256W        W90168   9.282  24.069  27.148  0.0023 -0.0701 -0.1182
47257W        W90169   8.823  22.935   0.254  0.1291  0.0268 -0.1506
47258W        W90170   8.740  22.476  30.953 -0.0577 -0.1436  0.3223
47259W        W90171   8.160  21.126  29.291 -0.0501 -0.0284  0.1282
47260W        W90172   9.079  21.681  31.797  0.1576 -0.0858 -0.0598
47261W        W90173   9.226  24.959  28.210  0.1250  0.0984 -0.2059
47262W        W90174  11.174  25.707  28.487  0.1795  0.0813  0.1355
47263W        W90175   9.150  24.589  30.480  0.1323 -0.2421  0.1378
47264W        W90176   8.882  24.999  31.222 -0.0029 -0.1648  0.1129
47265W        W90177   7.467  22.066  31.735  0.0388 -0.1387  0.3534
47266W        W90178  10.818  24.342  28.289  0.0503  0.2367 -0.0067
47267W        W90179   9.971  24.893  28.728 -0.0041  0.2670 -0.1225
47268W        W90180  11.516  24.343  27.965 -0.0201 -0.0786  0.1366
47269W        W90181  11.778  22.573  28.484 -0.2084 -0.0170  0.0546
47270W        W90182   9.470  23.532  28.334 -0.1248  0.0165  0.0254
47271W        W90183   6.760  20.894  31.377  0.1502  0.1360  0.0671
47272W        W90184   8.062  25.123  31.686  0.1678 -0.0420 -0.2976
47273W        W90185   9.808  23.488  30.655  0.0584 -0.2305 -0.1059
47274W        W90186   8.579  22.030  30.656  0.1244 -0.1621  0.1777
47275W        W90187   9.898  22.455  29.343  0.0561 -0.1811 -0.1818
47276W        W90188   9.681  24.112  26.840  0.1671  0.1763  0.0140
47277W        W90189   7.366  22.418  30.125  0.0321 -0.1962  0.0257
47278W        W90190  10.401  22.468  28.474 -0.1572 -0.1458  0.0229
47279W        W90191   7.574  22.927  29.524  0.2139  0.3088 -0.0903
47280W        W90192   9.507  23.363  28.825 -0.0539  0.0827  0.0812
47281W        W90193   9.819  22.999  30.597  0.2519  0.1802  0.4688
47282W        W90194   9.199  22.302  29.546 -0.0390  0.2110 -0.3390
47283W        W90195  11.222  22.839  28.839 -0.3306  0.1935 -0.3716
47284W        W90196   9.481  24.131  29.342 -0.0293 -0.1215  0.0801
47285W        W90197  12.084  24.689  31.477 -0.1655 -0.0439  0.0700
47286W        W90198   9.154  22.077  28.938  0.0066 -0.1535  0.0223
47287W        W90199  10.120  24.814  30.255 -0.5355 -0.0732  0.1829
47288W        W90200   8.168  20.541  29.455  0.2512  0.0072  0.0821
47289W        W90201   8.565  21.573  30.334  0.0005 -0.3865 -0.3647
47290W        W90202   9.645  22.818  28.757 -0.2132 -0.0197  0.3547
47291W        W90203  11.089  22.680  29.652  0.1875  0.0470 -0.0198
47292W        W90204   9.973  23.818  30.069 -0.2025  0.0157  0.0528
47293W        W90205   8.748  20.916  30.152  0.1285  0.0361  0.1137
47294W        W90206   9.131  26.037  30.361 -0.3207  0.2415  0.5357
47295W        W90207   9.995  23.571  29.550 -0.1257  0.2067 -0.0426
47296W        W90208  10.545  22.850  31.233  0.0494 -0.1291 -0.1973
47297W        W90209   9.159  23.908  31.086  0.3655  0.3306  0.0728
47298W        W90210   8.301  24.016  30.969 -0.1891  0.0855  0.1390
47299W        W90211   6.122  24.030  30.081  0.1058  0.0434 -0.2583
47300W        W90212   8.849  25.120   0.889  0.0785  0.0395  0.2121
47301W        W90213   8.355  24.455   0.217 -0.0668  0.0383 -0.0468
47302W        W90214  11.779  21.840  31.916 -0.1537  0.2500  0.0186
47303W        W90215   8.366  22.053  31.604 -0.3100 -0.0918 -0.1687
47304W        W90216  11.767  23.924  31.855 -0.1208 -0.2627  0.0405
47305W        W90217  12.597  24.216   0.560  0.0245  0.0441 -0.0334
47306W        W90218   9.382  24.722  31.398  0.0469 -0.0616 -0.1437
47307W        W90219   8.261  21.558   0.407 -0.0847  0.0357  0.3806
47308W        W90220   9.999  24.867  31.936 -0.2977 -0.1594 -0.0910
47309W        W90221   7.626  23.487  31.475 -0.3195 -0.0096  0.0215
47310W        W90222  11.041  24.182  31.190 -0.1055 -0.0740 -0.1823
47311W        W90223   7.445  24.751  31.147  0.1856 -0.0008 -0.0253
47312W        W90224   8.214  22.851  31.360 -0.0132 -0.0789  0.1314
47313W        W90225   9.604  22.856  31.086 -0.2144 -0.1636 -0.1067
47314W        W90226   7.448  21.126   0.266 -0.1497 -0.2300 -0.1556
47315W        W90227   7.550  23.831  30.998 -0.0370 -0.1716 -0.0605
47316W        W90228   7.186  21.338   0.729 -0.0163 -0.3246 -0.0281
47317W        W90229   6.501  25.280  31.502 -0.3231 -0.0043  0.1570
47318W        W90230  11.332  23.150  31.680  0.1256 -0.0820  0.0878
47319W        W90231  10.581  21.987  31.384 -0.0495  0.1915  0.0965
47320W        W90232   9.292  22.781   0.328 -0.0783 -0.1385  0.1290
47321W        W90233   9.310  22.329   0.006  0.2205  0.1371 -0.1175
47322W        W90234   7.968  22.962   0.777  0.1374  0.2206  0.1048
47323W        W90235   7.541  25.012  31.648 -0.2438  0.1219 -0.1820
47324W        W90236   8.148  22.900   0.328  0.0030 -0.0274  0.1967
47325W        W90237   8.593  24.118  30.450  0.4132  0.0539 -0.1072
47326W        W90238   8.677  24.789  30.816  0.3478  0.2378 -0.0898
47327W        W90239   8.274  22.020   0.877  0.0865 -0.2985  0.2211
47328W        W90240  10.967  25.544  30.820  0.2443 -0.2002  0.2428
47329W        W90241  10.264  21.674  31.040  0.0259  0.1093 -0.2916
47330W        W90242   5.451  24.268  30.758  0.0043 -0.1030 -0.2335
47331W        W90243   7.688  24.023  31.642 -0.0841 -0.0320  0.1792
47332W        W90244   8.038  23.665  31.192  0.0090 -0.3221 -0.1036
47333W        W90245   8.921  24.645   0.114  0.1128 -0.3553  0.0744
47334W        W90246  10.536  23.783  31.769  0.0542  0.4157 -0.0691
47335W        W90247   8.477  22.919  31.845  0.1361 -0.1955  0.1558
47336W        W90248  10.955  23.480  31.973 -0.0236 -0.0463  0.1139
47337W        W90249  10.271  22.705   0.266 -0.2594 -0.2042  0.1163
47338W        W90250   8.560  21.568  31.561  0.0565  0.0234 -0.1814
47339W        W90251   9.392  24.970  30.923 -0.0731  0.0288 -0.2649
47340W        W90252   8.427  22.442  31.951  0.3587  0.0158  0.4130
47341W        W90253   8.341  24.471  31.156 -0.1340 -0.2282 -0.1281
47342W        W90254  10.677  20.681   0.173  0.0696 -0.1907 -0.0545
47343W        W90255   9.553  25.393  31.061  0.0908 -0.1387 -0.0501
47344W        W90256   9.006  25.098  30.554  0.1102  0.3993  0.1855
47345W        W90257   7.167  23.585  31.275  0.1172 -0.2083  0.1855
47346W        W90258  11.147  24.631  31.069  0.1114  0.0824  0.0658
47347W        W90259  10.634  21.655  31.870  0.4058  0.1048 -0.2298
47348W        W90260   8.185  21.657  31.928 -0.0551 -0.0495  0.0270
47349W        W90261   9.539  23.719  29.644  0.0254 -0.2006  0.0134
47350W        W90262   7.904  21.799  31.568  0.2761  0.1781  0.0366
47351W        W90263   8.901  23.168  31.818 -0.1755  0.1916  0.1290
47352W        W90264  11.118  24.600  31.567  0.2018  0.3337  0.2424
47353W        W90265   8.445  25.043  31.386 -0.2019 -0.0967 -0.0812
47354W        W90266   9.578  24.540  31.830 -0.2402 -0.0589 -0.1420
47355W        W90267   7.842  24.187  31.216  0.2156 -0.1392  0.0248
47356W        W90268   7.546  23.013  31.475 -0.2082 -0.2490 -0.1124
47357W        W90269   7.422  23.244  31.038 -0.0192 -0.2314  0.5032
47358W        W90270   9.291  24.130  30.632  0.1208 -0.1993  0.0944
47359W        W90271   7.290  22.262  30.945  0.0206 -0.1596 -0.0307
47360W        W90272  10.020  25.292  29.659 -0.0947  0.1438 -0.0151
47361W        W90273  10.878  25.538  30.153  0.2181 -0.0484  0.0811
47362W        W90274  11.594  24.611  31.404 -0.2251 -0.1003 -0.0023
47363W        W90275   8.352  28.765  19.351 -0.1927 -0.0196 -0.0254
47364W        W90276   9.902  27.400  16.813 -0.0381  0.3586 -0.1419
47365W        W90277  10.713  27.155  15.988 -0.2607  0.0766 -0.1277
47366W        W90278  10.922  28.197  16.879  0.1488  0.1299 -0.0979
47367W        W90279   6.743  25.528  17.642  0.1139 -0.1928  0.0910
47368W        W90280  10.624  28.230  16.282 -0.1236 -0.3048 -0.0243
47369W        W90281   8.063  25.123  19.115  0.0662 -0.1394  0.0198
47370W        W90282  10.216  28.729  18.459 -0.1175 -0.1832 -0.3691
47371W        W90283  11.420  29.394  17.208  0.1377  0.0581  0.3601
47372W        W90284   9.860  27.830  16.254  0.1042 -0.0204  0.2276
47373W        W90285   8.075  27.005  19.310 -0.0235  0.0065 -0.2869
47374W        W90286   8.127  27.446  18.462 -0.1075 -0.3556 -0.1807
47375W        W90287   9.403  25.883  17.473  0.0397 -0.0276 -0.1537
47376W        W90288   5.683  26.759  19.461  0.0196 -0.1159 -0.0482
47377W        W90289  10.625  27.554  17.987  0.3710 -0.1075  0.2971
47378W        W90290   7.221  27.330  17.291 -0.0499  0.0433  0.2364
47379W        W90291   8.097  26.495  18.157 -0.0048  0.1396 -0.2063
47380W        W90292   9.528  26.140  17.890 -0.1957 -0.2025  0.1027
47381W        W90293  10.196  28.048  17.319  0.0592  0.2272  0.0066
47382W        W90294   8.144  26.563  19.133 -0.3487  0.4328 -0.1812
47383W        W90295  10.286  25.376  18.359  0.0491  0.1138  0.3229
47384W        W90296  10.088  29.385  16.836 -0.4702 -0.0598  0.0996
47385W        W90297   7.417  26.441  16.301 -0.2873  0.1071 -0.2201
47386W        W90298   8.233  28.911  18.293 -0.2048  0.1112 -0.1653
47387W        W90299   7.187  28.857  19.155 -0.0637  0.1336 -0.1676
47388W        W90300   8.047  27.887  19.242  0.2015  0.0897 -0.0099
47389W        W90301   9.924  27.140  18.169 -0.0893 -0.0351  0.0024
47390W        W90302  10.347  28.514  17.710 -0.0628 -0.1540  0.3023
47391W        W90303  10.199  28.049  16.518 -0.2545 -0.0927 -0.0958
47392W        W90304  10.749  26.880  19.724  0.0874  0.1585  0.2024
47393W        W90305   8.095  29.127  17.057  0.1353  0.4471 -0.3329
47394W        W90306   6.712  29.308  16.461 -0.0743 -0.0333 -0.2070
47395W        W90307   8.783  28.594  17.301 -0.1109  0.0054  0.1375
47396W        W90308  11.058  27.309  16.857 -0.2575  0.0623 -0.2196
47397W        W90309  10.730  29.711  18.801 -0.2784  0.1774  0.2758
47398W        W90310   9.420  28.485  19.593  0.2981  0.3024 -0.2521
47399W        W90311   6.644  28.475  16.676 -0.2295 -0.2099  0.2072
47400W        W90312   9.927  29.477  18.822 -0.0885 -0.0057  0.3040
47401W        W90313   9.383  28.143  17.868 -0.1244 -0.0964  0.0562
47402W        W90314   9.365  27.513  19.136  0.0081 -0.2688  0.0043
47403W        W90315   8.330  28.492  17.977 -0.2102 -0.0238  0.1005
47404W        W90316   8.255  28.372  16.834  0.1689 -0.1085  0.1386
47405W        W90317   9.673  28.465  17.638 -0.4179  0.0421 -0.0083
47406W        W90318   7.561  27.702  20.364  0.3218 -0.0367 -0.1644
47407W        W90319   8.098  30.313  16.902 -0.0139 -0.0641 -0.0782
47408W        W90320  10.548  27.784  19.383  0.0986 -0.0672 -0.1395
47409W        W90321   7.934  28.605  16.542 -0.0932 -0.1496 -0.0006
47410W        W90322  11.511  27.347  16.486 -0.1622 -0.1688  0.3103
47411W        W90323   9.171  25.648  16.385 -0.0947  0.0135  0.0194
47412W        W90324  10.359  27.895  15.534  0.1463  0.1974 -0.2177
47413W        W90325   8.918  25.628  17.698 -0.1923  0.1254  0.1889
47414W        W90326   8.701  28.754  17.817 -0.2968  0.0976  0.0740
47415W        W90327   8.349  26.848  18.722  0.0108 -0.2624 -0.4564
47416W        W90328   9.633  28.700  18.684 -0.1235 -0.2040 -0.1061
47417W        W90329  10.331  27.541  16.404 -0.0237 -0.1040  0.1529
47418W        W90330   8.436  26.403  18.547  0.1674  0.0210  0.0596
47419W        W90331   7.711  28.858  19.018  0.1244 -0.1089  0.1334
47420W        W90332   8.678  25.910  18.197 -0.0555  0.2964 -0.3444
47421W        W90333  12.134  29.866  17.067 -0.3633 -0.2453 -0.2483
47422W        W90334  12.378  27.091  16.710  0.2730 -0.1696  0.0985
47423W        W90335   9.315  29.417  15.806 -0.3576 -0.4800  0.0683
47424W        W90336   9.376  27.360  16.495  0.0189  0.0298 -0.1653
47425W        W90337   7.235  27.692  19.831 -0.2313 -0.0125  0.1534
47426W        W90338   8.222  27.214  17.604  0.0137  0.2267  0.0583
47427W        W90339   9.074  24.788  16.424  0.1028  0.3471  0.0758
47428W        W90340   9.166  28.531  17.700  0.2402  0.3851 -0.1985
47429W        W90341   6.889  29.213  18.967 -0.0560 -0.0273  0.1360
47430W        W90342   9.985  25.883  17.647  0.2345 -0.2661 -0.3997
47431W        W90343   9.103  26.873  16.795 -0.1178 -0.0525  0.1067
47432W        W90344  11.658  28.220  17.362 -0.0738 -0.2121  0.1357
47433W        W90345   9.928  28.584  16.648 -0.0007 -0.0360  0.1239
47434W        W90346   9.754  25.869  18.240 -0.0744  0.1677  0.1717
47435W        W90347   9.383  26.546  18.808 -0.3321  0.0258  0.0257
47436W        W90348   8.687  28.117  17.128 -0.0503  0.4209  0.0684
47437W        W90349  10.264  27.189  17.182 -0.0642 -0.1861  0.2227
47438W        W90350  10.629  28.374  18.570  0.2252  0.1496 -0.0626
47439W        W90351  11.605  28.131  16.564 -0.5254  0.0695  0.0292
47440W        W90352   9.230  29.831  19.413  0.0840  0.0707  0.1499
47441W        W90353   8.761  26.897  20.711  0.2305 -0.0851 -0.0148
47442W        W90354   9.194  27.690  20.632 -0.1488 -0.4114 -0.1095
47443W        W90355   7.550  29.496  16.414  0.1746 -0.0840 -0.2499
47444W        W90356   8.202  28.433  18.470 -0.2095 -0.0105  0.1412
47445W        W90357   7.459  28.283  16.541  0.0298  0.0130 -0.2935
47446W        W90358   5.873  27.651  18.152  0.0555  0.0732  0.0352
47447W        W90359   8.257  29.370  18.496 -0.1553  0.3324 -0.0432
47448W        W90360   9.471  26.050  16.216  0.2080 -0.1525  0.2452
47449W        W90361   7.052  25.711  19.025  0.0029 -0.1598  0.2677
47450W        W90362   9.822  26.887  18.753 -0.2688 -0.2735  0.0906
47451W        W90363   8.059  26.636  17.220 -0.5044 -0.0916 -0.0623
47452W        W90364  11.371  28.116  17.963 -0.1526 -0.3328 -0.1382
47453W        W90365  10.346  26.160  16.282  0.1007 -0.1921  0.1060
47454W        W90366   9.688  29.119  16.054  0.2776  0.0611 -0.0648
47455W        W90367   6.510  27.763  18.300 -0.2150  0.3119 -0.1693
47456W        W90368   7.779  26.774  17.893 -0.3591 -0.0843 -0.1836
47457W        W90369   7.863  26.220  20.153  0.3570  0.1534 -0.2251
47458W        W90370   7.430  26.077  18.588 -0.1294 -0.1278 -0.3892
47459W        W90371  10.949  27.976  18.529 -0.3063  0.0018  0.3713
47460W        W90372   7.938  25.424  17.557 -0.0235 -0.2709  0.1998
47461W        W90373  11.583  26.340  17.388 -0.2198  0.1533  0.3821
47462W        W90374   9.188  27.096  17.392  0.0149  0.2380  0.1783
47463W        W90375   7.872  27.672  16.978  0.0645  0.0963 -0.1832
47464W        W90376   9.926  26.505  19.119 -0.3353 -0.0952 -0.1982
47465W        W90377   9.751  29.285  17.685  0.1879 -0.1398 -0.2179
47466W        W90378  11.944  28.114  17.892  0.2186  0.0054 -0.2748
47467W        W90379   9.944  27.576  17.272  0.0573 -0.2809  0.0903
47468W        W90380   7.738  26.034  20.700 -0.1780 -0.0702 -0.2098
47469W        W90381   8.699  26.465  16.038  0.0734  0.1002  0.2350
47470W        W90382   6.639  29.757  16.663  0.1199  0.0493  0.1339
47471W        W90383   9.542  27.958  17.228 -0.2835 -0.2347 -0.0972
47472W        W90384   8.495  25.596  17.372  0.0751  0.1389 -0.1737
47473W        W90385  10.958  29.119  17.134 -0.1155 -0.1563  0.3203
47474W        W90386  10.873  28.037  17.972 -0.1449  0.0118  0.0496
47475W        W90387   7.485  28.444  19.121 -0.0618  0.2503  0.0764
47476W        W90388   9.111  26.455  18.086  0.0826  0.0897  0.0288
47477W        W90389  10.385  28.555  18.970  0.1400 -0.3849 -0.1992
47478W        W90390   9.782  27.366  18.901  0.1186  0.2420  0.1573
47479W        W90391   7.758  25.218  17.137 -0.2402 -0.2701  0.0725
47480W        W90392   9.832  27.961  17.728 -0.1599 -0.1247  0.3301
47481W        W90393   8.351  28.422  17.359  0.2842  0.0199  0.0286
47482W        W90394   5.988  28.832  17.698  0.1406 -0.2303 -0.1149
47483W        W90395   9.389  29.273  17.179 -0.1905  0.3029 -0.1718
47484W        W90396  10.358  26.277  17.674 -0.1937 -0.0261 -0.1039
47485W        W90397   8.560  27.075  19.135 -0.0065  0.3788  0.0508
47486W        W90398   9.450  26.782  18.371  0.1573 -0.2103 -0.0883
47487W        W90399   7.934  26.291  17.674  0.1317  0.1613 -0.1108
47488W        W90400   9.709  28.008  19.599 -0.0418  0.1317  0.1994
47489W        W90401  10.750  26.419  16.490  0.2961 -0.1499  0.0610
47490W        W90402   9.614  26.880  16.477 -0.0558  0.0530 -0.0484
47491W        W90403   8.571  26.758  18.267 -0.1324 -0.3622  0.2145
47492W        W90404  10.365  27.683  16.978  0.0073  0.2812  0.0624
47493W        W90405   8.846  25.256  16.595  0.1621 -0.1631 -0.0066
47494W        W90406   9.964  25.858  16.093 -0.0333  0.1619  0.1230
47495W        W90407   9.470  27.280  18.497  0.2709 -0.0806 -0.0203
47496W        W90408   8.991  27.418  17.878 -0.2796  0.5584 -0.0271
47497W        W90409   9.939  27.897  16.910  0.4074  0.0506 -0.2454
47498W        W90410   9.782  27.363  16.246 -0.1722  0.0309  0.4031
47499W        W90411  11.169  30.890  17.044  0.1904  0.1325 -0.4342
47500W        W90412   7.329  30.698  18.476  0.2588 -0.1549  0.1782
47501W        W90413   8.197  28.148  20.289 -0.0257  0.2681 -0.0431
47502W        W90414  10.593  28.839  17.487  0.1552 -0.2329  0.0247
47503W        W90415   9.007  26.186  19.039  0.1409 -0.0613 -0.4211
47504W        W90416   8.399  26.690  16.384  0.0974 -0.1037 -0.1899
47505W        W90417   9.292  26.269  17.161 -0.0686  0.1239 -0.0590
47506W        W90418   7.744  29.547  15.971 -0.0897  0.3054 -0.2644
47507W        W90419  10.273  27.181  18.713 -0.0556  0.0582 -0.1024
47508W        W90420  10.152  26.737  19.507  0.1228 -0.4112 -0.0829
47509W        W90421   9.141  26.168  18.515 -0.0415 -0.0794  0.0593
47510W        W90422  10.352  27.400  19.605  0.3465 -0.1506 -0.2802
47511W        W90423  10.949  28.603  17.217  0.1257  0.0242  0.1887
47512W        W90424   9.519  27.059  17.855  0.4198  0.3267  0.2975
47513W        W90425   7.052  26.364  17.309  0.0448 -0.2597 -0.0336
47514W        W90426   9.671  25.836  19.556  0.1537 -0.0022 -0.1019
47515W        W90427   7.455  28.374  19.620 -0.1716  0.1073  0.0837
47516W        W90428   6.419  29.111  18.679 -0.2661 -0.0567  0.0785
47517W        W90429   9.472  28.846  20.023 -0.1884 -0.0379  0.1430
47518W        W90430  10.646  28.472  18.087  0.0018  0.1132 -0.0399
47519W        W90431   9.854  27.895  19.012  0.2591  0.3756  0.2637
47520W        W90432   8.433  25.328  16.860  0.1592 -0.0637 -0.0317
47521W        W90433   9.141  29.020  16.038  0.0237  0.1098 -0.1899
47522W        W90434   8.207  27.292  17.025 -0.5114 -0.1979  0.4358
47523W        W90435   7.779  27.820  18.201  0.0906  0.1369 -0.1531
47524W        W90436   9.263  28.950  19.574  0.2643  0.0405 -0.0670
47525W        W90437   8.043  29.286  16.584 -0.2943  0.2026 -0.3372
47526W        W90438   9.475  27.735  18.670  0.0074 -0.1941  0.2632
47527W        W90439   7.250  28.920  17.164  0.1310 -0.0717 -0.2001
47528W        W90440   9.965  26.702  18.347  0.0296  0.0216  0.0432
47529W        W90441   8.187  28.819  18.857  0.1562  0.3596  0.1664
47530W        W90442   7.974  26.234  16.333 -0.2772  0.0247 -0.0858
47531W        W90443   7.386  26.528  17.949 -0.1288 -0.1192  0.2183
47532W        W90444   9.004  25.796  17.145  0.2210 -0.0327  0.2288
47533W        W90445  10.481  28.831  15.879  0.0265 -0.0903 -0.1473
47534W        W90446   7.676  26.161  18.115  0.0658  0.1410 -0.0193
47535W        W90447   8.166  26.013  18.029 -0.0210 -0.3656  0.1288
47536W        W90448   6.990  29.306  18.448 -0.4592 -0.3539 -0.0991
47537W        W90449   9.433  27.472  17.654  0.0021  0.1336 -0.4703
47538W        W90450  10.188  26.576  17.303  0.3823 -0.0032  0.0139
47539W        W90451  11.149  29.127  17.636  0.2333 -0.2387  0.4213
47540W        W90452   9.373  28.032  19.199  0.2564  0.2080 -0.0466
47541W        W90453   7.679  26.571  16.780  0.1583  0.2656 -0.0499
47542W        W90454  10.858  27.357  19.588 -0.0398 -0.2022  0.1487
47543W        W90455   8.953  26.622  17.281 -0.1004  0.3434 -0.0926
47544W        W90456   7.695  28.903  16.790 -0.1303 -0.3625  0.0006
47545W        W90457  11.816  28.839  16.699  0.2443 -0.4957 -0.1509
47546W        W90458   6.720  26.782  17.408 -0.0292  0.0375  0.2141
47547W        W90459   8.380  29.588  17.446 -0.2587 -0.0924 -0.2407
47548W        W90460   8.255  25.255  20.875  0.1881  0.2177 -0.4928
47549W        W90461   9.080  28.973  18.184 -0.0640 -0.1748 -0.0195
47550W        W90462   7.958  25.522  18.861 -0.0030 -0.2472  0.0616
47551W        W90463   8.456  26.391  17.347  0.0557  0.1627  0.0101
47552W        W90464   7.026  26.787  18.116 -0.2036  0.1342  0.0235
47553W        W90465   9.692  28.903  18.048 -0.2668 -0.0194 -0.1579
47554W        W90466  10.095  27.126  19.180  0.2084 -0.0920  0.0274
47555W        W90467   9.007  28.497  20.051  0.1219 -0.1237 -0.1087
47556W        W90468   9.156  25.193  17.790 -0.0916 -0.4041  0.1254
47557W        W90469  11.438  29.739  16.384 -0.3323  0.1778  0.0711
47558W        W90470  10.203  28.130  19.271  0.0202 -0.3389  0.0007
47559W        W90471   8.002  26.985  16.683 -0.0295 -0.1842  0.2789
47560W        W90472   7.683  27.269  18.586 -0.2453  0.0142  0.1485
47561W        W90473   8.981  28.308  16.724 -0.0179  0.1148  0.0015
47562W        W90474   9.155  27.200  19.482 -0.1482 -0.0214  0.2320
47563W        W90475   8.554  27.684  18.884 -0.1528  0.2239  0.4694
47564W        W90476   7.932  28.582  16.017  0.0948 -0.1255  0.2552
47565W        W90477   8.078  28.723  19.930  0.1520  0.2209 -0.3635
47566W        W90478   8.951  26.526  16.477  0.0280  0.3630  0.3321
47567W        W90479   8.805  27.531  16.400 -0.0674  0.2552  0.1038
47568W        W90480   9.668  26.617  17.913  0.1825 -0.1064 -0.1997
47569W        W90481  10.740  27.081  18.766  0.0210  0.0654  0.1451
47570W        W90482   9.178  28.350  17.179  0.0516 -0.0281  0.1057
47571W        W90483   9.332  25.101  18.252  0.0473  0.2898 -0.2122
47572W        W90484   6.492  25.889  18.505 -0.2368 -0.0614 -0.3686
47573W        W90485  11.404  28.931  16.981  0.2337  0.3312  0.2648
47574W        W90486   6.418  26.387  18.896 -0.1677  0.1226 -0.1346
47575W        W90487   9.479  30.024  19.793  0.1442 -0.1773  0.1813
47576W        W90488   7.969  27.719  20.112 -0.1026  0.0365  0.0570
47577W        W90489   9.809  24.854  15.970  0.1595  0.0493 -0.0179
47578W        W90490   8.183  25.760  16.516 -0.0739  0.0054 -0.1416
47579W        W90491   9.741  28.056  18.262 -0.3288 -0.2452  0.0113
47580W        W90492   9.369  28.568  18.190 -0.0505  0.1490 -0.1540
47581W        W90493   9.177  27.973  16.207 -0.0356  0.2892 -0.2916
47582W        W90494  10.715  26.689  17.884 -0.3530  0.1199 -0.1862
47583W        W90495   8.962  28.845  16.715  0.0865  0.1311 -0.1693
47584W        W90496  12.207  26.878  17.096  0.1693 -0.0273  0.0731
47585W        W90497   9.050  27.489  17.063 -0.0054  0.1001 -0.1811
47586W        W90498   7.912  28.763  18.010 -0.0620  0.1354 -0.1901
47587W        W90499   8.796  26.305  19.513  0.0892  0.1643  0.0393
47588W        W90500  10.878  27.723  17.592  0.0325  0.0541 -0.2198
47589W        W90501  10.744  26.900  16.442 -0.0357 -0.0682  0.3240
47590W        W90502   8.598  26.512  19.023 -0.1618 -0.1325  0.2968
47591W        W90503   9.785  28.829  19.592  0.1254  0.2685 -0.0094
47592W        W90504   8.861  27.649  19.320  0.0517 -0.0149 -0.0909
47593W        W90505   7.992  26.575  19.726  0.2113 -0.1352 -0.0984
47594W        W90506  10.617  29.269  18.026 -0.0795  0.3206  0.0963
47595W        W90507  11.592  26.880  15.819  0.2883 -0.1807 -0.4606
47596W        W90508  10.122  27.540  18.000  0.1375 -0.3922  0.2013
47597W        W90509   9.809  26.370  16.994 -0.0449 -0.0139 -0.0150
47598W        W90510   9.813  27.261  15.758  0.0233  0.0520  0.0957
47599W        W90511   7.897  25.974  18.495 -0.1123 -0.1578  0.0039
47600W        W90512  10.914  28.390  19.802 -0.1202  0.0999 -0.0444
47601W        W90513   8.926  26.983  16.231 -0.0007 -0.0345  0.0228
47602W        W90514   9.604  27.593  18.152  0.2129  0.1887 -0.2834
47603W        W90515   9.885  29.589  15.623 -0.0870 -0.0440  0.0672
47604W        W90516  10.340  27.980  17.825 -0.2391 -0.1743  0.1053
47605W        W90517   9.758  26.367  17.466  0.2151 -0.0457 -0.0396
47606W        W90518   8.599  26.388  17.931 -0.3453 -0.0691 -0.3031
47607W        W90519   8.609  29.748  17.974 -0.0509 -0.2880  0.0150
47608W        W90520   7.137  26.858  17.088  0.1948  0.0170  0.3633
47609W        W90521  10.718  27.843  16.593 -0.0719  0.1945  0.0859
47610W        W90522   9.416  29.632  18.911  0.3410  0.0806 -0.2222
47611W        W90523  10.997  28.025  19.380 -0.0630  0.2535  0.1284
47612W        W90524   7.754  24.874  17.618 -0.1930 -0.0936 -0.1449
47613W        W90525   9.130  27.756  18.266 -0.3046  0.1108  0.1630
47614W        W90526   8.206  27.988  17.163 -0.1242 -0.0236  0.2459
47615W        W90527   9.904  27.297  17.665 -0.0973  0.1018  0.0472
47616W        W90528   8.478  29.317  19.269  0.0678 -0.1391  0.1012
47617W        W90529   7.274  28.635  18.161 -0.3916  0.0246 -0.2670
47618W        W90530   7.427  29.158  17.523  0.0611  0.1465  0.1083
47619W        W90531   9.287  26.625  17.629 -0.0649  0.2490 -0.0500
47620W        W90532   8.601  25.987  17.663 -0.1627  0.1630 -0.0721
47621W        W90533   7.974  28.392  18.909 -0.0481  0.1807  0.2798
47622W        W90534  10.012  27.638  18.497 -0.0524  0.0380 -0.1015
47623W        W90535   8.988  27.668  18.721 -0.2097  0.0372 -0.0358
47624W        W90536   8.805  26.239  16.939  0.1408  0.1504 -0.2874
47625W        W90537  10.920  29.196  18.939 -0.1293 -0.0898  0.2035
47626W        W90538  11.292  26.916  16.588 -0.3558 -0.0588 -0.1449
47627W        W90539   8.412  28.914  16.733 -0.1022  0.0712  0.0761
47628W        W90540   7.023  26.445  20.784  0.2898  0.0700  0.0596
47629W        W90541   9.533  26.364  19.892 -0.1343 -0.1443 -0.1030
47630W        W90542  10.374  27.118  17.724  0.0908  0.2506 -0.3002
47631W        W90543   8.217  24.498  16.502  0.4103  0.0982 -0.1220
47632W        W90544   9.392  28.597  16.799 -0.2107 -0.0277  0.2080
47633W        W90545   7.467  28.867  19.536 -0.1603 -0.3183 -0.0672
47634W        W90546   8.092  27.874  18.704 -0.0395 -0.1159  0.2935
47635W        W90547   7.823  28.808  17.357 -0.3410 -0.1064  0.4165
47636W        W90548  10.039  29.052  16.439 -0.0707 -0.0161 -0.3203
47637W        W90549   9.889  26.887  16.976 -0.0198 -0.1480 -0.0434
47638W        W90550   9.570  29.057  16.643 -0.3426 -0.4102  0.0845
47639W        W90551   8.741  27.294  17.470  0.0418  0.1055  0.1026
47640W        W90552   8.868  29.608  19.004 -0.0358  0.1579 -0.2314
47641W        W90553   7.206  29.702  16.726 -0.2485 -0.0069  0.1752
47642W        W90554   8.950  29.472  17.762  0.0249  0.1339  0.0449
47643W        W90555   8.287  29.762  16.926 -0.0285  0.2138  0.0690
47644W        W90556  12.559  28.993  18.165  0.2337 -0.0432 -0.0784
47645W        W90557  10.342  26.702  16.213  0.1317 -0.1460 -0.0520
47646W        W90558  11.301  25.999  17.549  0.1350  0.0139  0.0542
47647W        W90559  10.554  25.739  16.964 -0.5769  0.1481 -0.0213
47648W        W90560   9.706  28.915  20.960 -0.2696  0.0991  0.0213
47649W        W90561   9.044  26.198  17.667 -0.0395 -0.0998 -0.1552
47650W        W90562   9.007  26.087  16.234 -0.3242 -0.1331  0.1610
47651W        W90563   7.259  27.584  20.831  0.0374 -0.2681 -0.0114
47652W        W90564  10.913  27.088  20.651  0.0754  0.2243 -0.3557
47653W        W90565   6.516  29.415  18.293  0.1391 -0.1277  0.1600
47654W        W90566  11.543  28.204  16.055  0.2451 -0.0263 -0.3217
47655W        W90567   9.217  27.882  16.821 -0.2426  0.3777 -0.0448
47656W        W90568   9.067  26.952  18.102  0.0087  0.3573 -0.1392
47657W        W90569  10.377  26.310  19.176  0.0649  0.1897 -0.1625
47658W        W90570   9.443  27.637  15.971 -0.0502 -0.0128 -0.1645
47659W        W90571   9.851  26.887  17.440  0.0275 -0.1030  0.0901
47660W        W90572   9.382  29.347  18.065  0.2623 -0.0405  0.0180
47661W        W90573   8.615  29.153  18.076  0.2944 -0.3057 -0.0053
47662W        W90574   9.800  28.455  19.091  0.0618 -0.1094 -0.0085
47663W        W90575   7.800  26.202  17.224  0.1450  0.2767  0.4188
47664W        W90576  10.837  27.767  17.115  0.1194  0.0147  0.3055
47665W        W90577   8.838  27.229  18.401  0.0699 -0.1382  0.3360
47666W        W90578   8.924  26.726  19.289 -0.1471  0.1784  0.6079
47667W        W90579   7.595  26.648  17.390  0.0681  0.2055 -0.0652
47668W        W90580  10.148  26.668  17.821 -0.1473  0.0161  0.1040
47669W        W90581  10.664  28.048  18.938 -0.1153  0.0974 -0.0535
47670W        W90582   7.867  26.417  18.637  0.0724  0.1079  0.1815
47671W        W90583   9.217  25.958  16.739 -0.1596 -0.0663  0.3950
47672W        W90584  10.822  28.713  18.901  0.2601 -0.0262  0.3105
47673W        W90585  10.425  29.071  17.043 -0.0509 -0.0201 -0.1156
47674W        W90586  10.519  28.951  19.367 -0.1143 -0.1726  0.0911
47675W        W90587   5.935  25.815  18.204  0.1393  0.0042  0.0099
47676W        W90588  10.940  27.408  16.340 -0.0024  0.3023 -0.0528
47677W        W90589   7.352  26.010  16.997 -0.1602  0.1870 -0.1024
47678W        W90590   7.526  29.120  18.160  0.0221 -0.0855 -0.2067
47679W        W90591   9.343  28.679  19.118 -0.2043  0.3458  0.3753
47680W        W90592   6.900  24.713  17.109 -0.1707 -0.1000  0.0498
47681W        W90593  11.961  28.148  16.927  0.2178  0.4009 -0.0503
47682W        W90594  10.682  26.778  17.349  0.2827  0.0880  0.2266
47683W        W90595   9.330  29.007  17.669  0.2638 -0.1550  0.1037
47684W        W90596  11.380  27.748  17.042  0.0597 -0.0167 -0.1221
47685W        W90597  10.708  28.213  17.508 -0.0659  0.1883  0.2391
47686W        W90598   7.165  26.941  17.617  0.3252 -0.4053 -0.0313
47687W        W90599  11.458  28.714  17.975  0.1175 -0.0130 -0.0919
47688W        W90600  10.429  27.968  18.441 -0.1310 -0.0289 -0.2685
47689W        W90601   9.887  26.045  16.632 -0.0737 -0.2249  0.0125
47690W        W90602   8.988  27.189  18.912  0.1825  0.0679 -0.1043
47691W        W90603   6.878  29.463  16.988 -0.2309  0.2056  0.0502
47692W        W90604  11.493  27.218  18.226  0.0263  0.0846  0.3331
47693W        W90605   8.939  28.162  18.069  0.0929 -0.0116 -0.1372
47694W        W90606   8.676  29.069  16.222  0.2653  0.1581  0.0768
47695W        W90607  10.508  26.373  19.720 -0.0972  0.0194  0.0872
47696W        W90608  10.038  28.491  18.079 -0.3701 -0.1748  0.0501
47697W        W90609   7.837  27.517  21.148 -0.0420  0.0575  0.0063
47698W        W90610   7.630  27.381  16.650 -0.0354 -0.2849 -0.0384
47699W        W90611   8.617  28.533  18.972  0.0695 -0.1561 -0.1936
47700W        W90612   8.206  28.034  18.200  0.0142  0.3425  0.1147
47701W        W90613   8.244  28.896  16.274 -0.1535 -0.0223 -0.1221
47702W        W90614  12.079  27.325  17.572  0.0873 -0.1668 -0.0309
47703W        W90615   8.708  27.187  16.856 -0.0346 -0.0300  0.4456
47704W        W90616  11.966  28.521  18.678  0.1717  0.0945  0.0786
47705W        W90617   8.052  26.954  18.264  0.2914 -0.0922  0.5751
47706W        W90618  10.417  26.259  16.777  0.1052 -0.2573  0.1651
47707W        W90619  10.735  24.548  17.310  0.1504  0.1493  0.0656
47708W        W90620   7.508  27.913  19.351 -0.3449  0.0717 -0.0796
47709W        W90621   6.875  25.935  17.059  0.2141 -0.2021  0.3978
47710W        W90622   8.197  27.870  16.629 -0.0615 -0.3341  0.0027
47711W        W90623   8.261  28.077  17.729 -0.1908 -0.0621 -0.1915
47712W        W90624   8.418  25.423  19.985  0.1497 -0.1286 -0.3877
47713W        W90625   7.645  26.989  19.596 -0.1016 -0.1768 -0.0383
47714W        W90626   7.672  27.109  17.528 -0.0385  0.2418 -0.0250
47715W        W90627   7.821  25.982  16.794  0.1651 -0.1018  0.3422
47716W        W90628  10.901  26.758  16.927  0.0234  0.0921 -0.1616
47717W        W90629   8.098  25.766  19.277  0.0910  0.1773 -0.2886
47718W        W90630   7.123  26.464  18.515 -0.0920  0.0043  0.2806
47719W        W90631  10.432  28.202  16.905  0.0440  0.0896 -0.1065
47720W        W90632  11.294  29.323  16.710 -0.0298  0.0855  0.2228
47721W        W90633   9.196  24.709  17.720  0.1564 -0.2948 -0.0616
47722W        W90634  11.029  29.196  20.036 -0.1937 -0.2049  0.1588
47723W        W90635   6.284  27.306  17.092  0.0015  0.5061 -0.1185
47724W        W90636   9.488  27.005  19.171 -0.2143 -0.2389  0.2780
47725W        W90637   8.955  26.757  18.602  0.0861  0.0836  0.0140
47726W        W90638   8.536  26.191  16.475  0.0078  0.0328 -0.2328
47727W        W90639   8.281  26.713  17.713 -0.1140 -0.1143 -0.1153
47728W        W90640  10.587  28.661  16.775  0.1560  0.3060 -0.0659
47729W        W90641  11.383  29.146  16.242  0.2101  0.1821  0.2829
47730W        W90642   8.733  28.185  17.612 -0.0530  0.1760 -0.0837
47731W        W90643   8.902  28.542  18.438  0.0177  0.2600  0.1575
47732W        W90644   6.476  25.848  19.006  0.1773 -0.2545 -0.3297
47733W        W90645   9.330  26.570  16.136  0.0497 -0.0441 -0.2256
47734W        W90646   8.161  29.823  18.317 -0.0934  0.1143 -0.4268
47735W        W90647  10.558  29.077  16.311 -0.1134 -0.1340  0.1384
47736W        W90648  11.573  25.847  17.163  0.2112  0.2517  0.1649
47737W        W90649  10.564  27.259  16.734 -0.2368  0.0775 -0.0108
47738W        W90650   8.270  26.098  18.929 -0.0891 -0.0931 -0.0421
47739W        W90651   9.577  29.162  18.495 -0.3539  0.1290  0.1119
47740W        W90652  11.409  28.656  17.394 -0.0175  0.1493 -0.2180
47741W        W90653   8.098  25.885  17.441  0.2175 -0.1719 -0.1351
47742W        W90654  11.029  25.461  17.621  0.1614  0.1097  0.0542
47743W        W90655  10.339  28.607  16.284 -0.0057 -0.2721 -0.1207
47744W        W90656   8.385  27.668  17.459  0.0561  0.0056 -0.1101
47745W        W90657   9.432  26.734  17.186  0.3721 -0.1120  0.0485
47746W        W90658   8.069  27.378  18.988 -0.0819 -0.2057  0.0438
47747W        W90659   9.480  27.229  16.989  0.0820 -0.1011  0.1173
47748W        W90660   9.178  29.204  19.001 -0.3786  0.0367  0.0688
47749W        W90661   9.828  28.407  17.115 -0.1654 -0.3168  0.2375
47750W        W90662  11.685  27.735  16.255 -0.0421  0.1441  0.1139
47751W        W90663  11.254  29.824  18.589  0.1178 -0.4337 -0.1715
47752W        W90664  10.879  29.557  19.303 -0.1698  0.0651  0.1665
47753W        W90665   9.730  29.836  17.939 -0.0487 -0.3346  0.0369
47754W        W90666  11.899  27.815  18.461  0.2528 -0.1155 -0.4199
47755W        W90667   6.695  25.348  19.685  0.0106  0.2204  0.1633
47756W        W90668   8.577  26.646  16.877  0.4278 -0.0093 -0.2231
47757W        W90669   8.613  27.776  17.902 -0.0983 -0.1729  0.0661
47758W        W90670  10.390  27.565  17.488 -0.1339  0.1807  0.1734
47759W        W90671   8.839  25.461  18.137  0.1633 -0.0097 -0.1469
47760W        W90672   8.737  25.730  16.683 -0.0842 -0.3626  0.0855
47761W        W90673   8.615  28.966  18.585  0.2313 -0.1288  0.4210
47762W        W90674  10.144  28.257  18.710 -0.2648 -0.1674  0.3410
47763W        W90675   7.451  27.794  23.370  0.4502 -0.0919 -0.2634
47764W        W90676   8.365  26.911  23.020 -0.0251 -0.2369  0.0562
47765W        W90677  11.204  27.885  20.128 -0.3522 -0.0879  0.3324
47766W        W90678   9.828  28.427  20.487 -0.0712 -0.1683  0.1983
47767W        W90679   7.264  25.328  21.903 -0.0300 -0.0243  0.0259
47768W        W90680   9.728  29.644  20.530 -0.1422 -0.0823  0.2723
47769W        W90681   8.239  25.044  24.191 -0.0320 -0.1976 -0.0753
47770W        W90682   9.651  28.406  22.901  0.0393  0.2192  0.3227
47771W        W90683  11.660  28.109  21.998 -0.3773  0.0386 -0.2431
47772W        W90684  10.716  28.817  19.760 -0.1537 -0.2699 -0.0015
47773W        W90685   7.417  25.826  22.791  0.0891  0.0221  0.0051
47774W        W90686   8.100  28.163  22.196  0.3620  0.1281  0.0343
47775W        W90687   9.062  27.547  19.867  0.0779 -0.2356 -0.0043
47776W        W90688   9.030  24.914  22.640  0.1513  0.1088  0.0530
47777W        W90689   8.780  27.032  21.198  0.1449  0.1038 -0.0981
47778W        W90690   7.926  29.053  21.425 -0.0927 -0.0255  0.1079
47779W        W90691   8.388  27.318  22.254  0.0997 -0.4023  0.0228
47780W        W90692   8.348  27.507  19.385 -0.0197 -0.1352 -0.0171
47781W        W90693   8.955  29.330  19.433 -0.2255 -0.0360 -0.2372
47782W        W90694   7.639  25.383  23.539 -0.2046  0.1513 -0.0867
47783W        W90695   8.086  26.233  23.466 -0.0299 -0.2332  0.1609
47784W        W90696   9.022  28.484  22.143 -0.0265 -0.1154 -0.4338
47785W        W90697   8.281  26.770  20.795 -0.0128 -0.4051 -0.0196
47786W        W90698   7.679  26.501  24.292  0.3385 -0.0557  0.2316
47787W        W90699   6.575  27.655  22.713  0.1521  0.1788 -0.3074
47788W        W90700   9.478  25.349  22.090  0.0177 -0.2429 -0.0301
47789W        W90701  10.431  27.000  20.978  0.0046  0.0269 -0.1446
47790W        W90702   8.964  29.221  22.302  0.0285 -0.1468 -0.1624
47791W        W90703   8.496  28.372  21.290 -0.3583 -0.1824 -0.0274
47792W        W90704  12.012  26.620  23.706  0.0213 -0.1304  0.1930
47793W        W90705   8.082  28.533  21.463 -0.2651 -0.3889 -0.2243
47794W        W90706   6.117  30.201  21.606 -0.1903  0.1237 -0.0556
47795W        W90707   9.248  30.317  20.790  0.2806 -0.1890  0.0340
47796W        W90708  10.322  28.492  20.189 -0.0533  0.2367  0.1047
47797W        W90709  11.313  28.635  22.036 -0.0596 -0.3025 -0.3429
47798W        W90710   8.135  28.719  22.321  0.0668 -0.0051 -0.2727
47799W        W90711   7.789  28.573  21.000 -0.0256 -0.3126 -0.2882
47800W        W90712   9.991  29.592  24.904  0.0268 -0.0705 -0.0316
47801W        W90713   7.040  28.538  21.366 -0.2538 -0.2200  0.1152
47802W        W90714   9.692  27.967  23.654 -0.0907 -0.0371  0.0163
47803W        W90715   8.217  28.212  19.661 -0.0373  0.2054 -0.2658
47804W        W90716   8.744  28.069  21.973 -0.1684 -0.1483 -0.1523
47805W        W90717   8.902  27.272  20.408 -0.0312 -0.1056 -0.1757
47806W        W90718   7.713  27.769  24.281  0.0200  0.4300 -0.1608
47807W        W90719   8.484  26.728  21.492  0.0098 -0.2649  0.3156
47808W        W90720  10.640  27.364  24.555  0.2077  0.1328 -0.0723
47809W        W90721   6.569  29.407  19.714 -0.0566 -0.0325  0.0719
47810W        W90722  10.479  26.962  20.438  0.0384 -0.2146  0.0022
47811W        W90723   7.743  26.576  20.996 -0.1611  0.0070  0.1569
47812W        W90724   9.861  26.176  20.356  0.0886  0.3482  0.0645
47813W        W90725   7.624  25.607  21.654  0.1457 -0.1117 -0.1411
47814W        W90726   7.957  29.578  21.252 -0.1179  0.1654  0.2524
47815W        W90727   8.557  26.489  23.701 -0.1865  0.0352 -0.0413
47816W        W90728   9.930  28.804  23.055  0.0589 -0.0576  0.0108
47817W        W90729   9.169  27.999  22.260  0.3326 -0.0826  0.0367
47818W        W90730   8.585  26.231  21.484  0.0176 -0.1261  0.1043
47819W        W90731   6.624  29.107  21.774 -0.0867  0.2135  0.4369
47820W        W90732   8.022  26.497  23.041 -0.1869 -0.0175 -0.3217
47821W        W90733  10.567  28.333  21.198  0.0326  0.2606 -0.0176
47822W        W90734   9.827  30.026  21.549 -0.1036  0.0420  0.1560
47823W        W90735   8.571  29.019  20.764 -0.1923  0.3328 -0.1894
47824W        W90736   7.396  26.252  21.039 -0.0755 -0.2535 -0.3354
47825W        W90737   6.607  28.470  24.730  0.2828  0.0041 -0.5736
47826W        W90738   7.890  26.774  22.676 -0.0551  0.1542  0.2028
47827W        W90739   7.383  26.238  20.012 -0.3650  0.0631 -0.2679
47828W        W90740  10.911  29.132  22.803  0.1158 -0.3672 -0.0571
47829W        W90741   6.645  29.542  22.509  0.1113  0.1548  0.1692
47830W        W90742   9.508  26.683  21.704  0.0491 -0.0148 -0.0192
47831W        W90743   8.673  26.922  22.307  0.0455 -0.4784  0.1352
47832W        W90744   9.928  28.450  21.999 -0.4055 -0.0099 -0.2561
47833W        W90745   8.676  27.162  19.660  0.1056  0.0731  0.0908
47834W        W90746   9.864  27.204  21.284  0.0010  0.0440  0.0780
47835W        W90747  10.535  26.336  23.326  0.2401 -0.0177 -0.1080
47836W        W90748   8.174  27.265  20.935 -0.1254  0.2746  0.0592
47837W        W90749   7.920  27.242  20.299 -0.1678  0.0490 -0.1075
47838W        W90750  10.177  28.012  21.932  0.1269  0.1612  0.1739
47839W        W90751  10.129  29.285  19.559 -0.0037  0.0685 -0.1404
47840W        W90752   7.030  28.790  20.942 -0.1854 -0.1863 -0.2610
47841W        W90753   6.682  26.220  23.085  0.2796 -0.1788 -0.0378
47842W        W90754  10.139  28.863  23.858  0.2280  0.1483 -0.1166
47843W        W90755   6.976  29.292  20.772 -0.1269  0.1964 -0.0610
47844W        W90756   6.140  28.289  22.605  0.0685 -0.0923 -0.2820
47845W        W90757   7.665  27.349  20.711 -0.0129  0.2179  0.0938
47846W        W90758   7.296  26.131  24.399  0.2428 -0.1824 -0.0752
47847W        W90759   8.604  29.358  21.851 -0.4794  0.0063  0.0877
47848W        W90760  10.189  26.565  20.535  0.2795  0.0230  0.1530
47849W        W90761   6.503  26.873  23.232  0.4542 -0.3604 -0.0822
47850W        W90762   9.297  27.307  21.056 -0.2455 -0.1368 -0.0738
47851W        W90763   7.476  26.779  22.386 -0.0856  0.0180  0.0764
47852W        W90764  10.668  29.502  21.476 -0.0150 -0.2758 -0.0529
47853W        W90765  11.335  27.361  19.587  0.1449 -0.2122  0.5893
47854W        W90766   9.177  27.674  21.341 -0.0148 -0.0297 -0.0517
47855W        W90767   7.500  27.086  23.466 -0.1802  0.1989 -0.1033
47856W        W90768   6.869  25.892  20.773 -0.3658  0.2139 -0.2020
47857W        W90769   7.665  27.094  24.963 -0.3249  0.1105 -0.0865
47858W        W90770   7.018  26.303  21.760 -0.3148  0.1556 -0.0336
47859W        W90771  10.717  26.952  22.590 -0.3649  0.2637  0.1511
47860W        W90772   7.854  25.002  19.875 -0.1990 -0.1183  0.2266
47861W        W90773   8.906  27.608  22.323  0.2538  0.1804 -0.2282
47862W        W90774   8.238  26.392  21.130 -0.3256  0.0386 -0.1407
47863W        W90775   8.071  26.843  21.309  0.3431 -0.0443 -0.0645
47864W        W90776   9.920  27.596  23.937  0.2030 -0.1541  0.0298
47865W        W90777   9.118  27.812  17.496 -0.0605  0.0992  0.2091
47866W        W90778  11.460  29.144  22.854  0.1679  0.0090  0.2749
47867W        W90779  10.620  30.548  20.072  0.0799  0.1858  0.2604
47868W        W90780   6.509  26.941  22.347 -0.3228  0.3035  0.3088
47869W        W90781   6.457  26.536  21.022  0.2169  0.0284 -0.1034
47870W        W90782   8.253  28.789  21.076  0.1549  0.1316  0.0530
47871W        W90783   7.096  27.063  22.588  0.0303 -0.2211 -0.0128
47872W        W90784   9.097  26.610  21.431  0.1041 -0.0516 -0.0957
47873W        W90785   9.298  29.786  20.754 -0.0028  0.0236 -0.3058
47874W        W90786   8.735  27.522  20.841  0.0643  0.2281 -0.2096
47875W        W90787   6.848  27.795  22.095  0.1952 -0.2209 -0.0250
47876W        W90788   8.690  25.248  22.232  0.0542 -0.2784  0.1587
47877W        W90789   9.900  27.369  22.195 -0.2747 -0.1129  0.0165
47878W        W90790   8.245  25.568  22.138 -0.2204  0.1951  0.1849
47879W        W90791   7.554  25.548  19.868 -0.2119 -0.1562 -0.0540
47880W        W90792  10.291  29.625  20.602 -0.0930 -0.0236  0.1092
47881W        W90793   6.487  29.155  20.669 -0.0484  0.0966 -0.2252
47882W        W90794   7.771  27.273  21.636  0.3283  0.1840  0.1306
47883W        W90795   8.069  28.833  20.484 -0.0079 -0.0017 -0.0092
47884W        W90796   9.438  26.151  23.011  0.4512 -0.4268 -0.0504
47885W        W90797   7.836  27.819  25.133  0.2112 -0.0624 -0.0907
47886W        W90798   8.973  26.054  21.102 -0.0635 -0.0416  0.2065
47887W        W90799   7.250  26.591  21.364  0.0054 -0.0104  0.2221
47888W        W90800   8.174  28.923  23.369 -0.0966 -0.1885 -0.0019
47889W        W90801   9.918  26.829  20.934  0.3318 -0.4123  0.3760
47890W        W90802  12.414  27.277  20.547 -0.0015 -0.3947  0.0069
47891W        W90803   9.936  27.529  23.339  0.0375 -0.0787 -0.3137
47892W        W90804  10.333  29.373  18.504  0.3035 -0.2647  0.1418
47893W        W90805   9.917  25.381  19.634 -0.1294  0.0262  0.1271
47894W        W90806   9.998  26.245  19.540 -0.2507 -0.2444  0.1720
47895W        W90807   7.610  28.199  22.967 -0.0178 -0.5278 -0.0511
47896W        W90808   8.279  28.030  21.685 -0.0246  0.0459  0.1768
47897W        W90809   8.832  27.943  22.704 -0.2011  0.0982  0.0460
47898W        W90810   9.686  26.762  20.166  0.0183 -0.0904  0.1296
47899W        W90811  10.472  30.033  20.411  0.0159 -0.1129 -0.0285
47900W        W90812   7.231  27.553  22.391  0.0431  0.2293  0.0066
47901W        W90813  10.496  29.756  23.798  0.2750 -0.0772  0.2562
47902W        W90814   8.885  29.340  20.895  0.1173 -0.3014  0.0331
47903W        W90815   8.928  25.287  22.980 -0.3849  0.0730 -0.4460
47904W        W90816   7.659  27.414  19.896 -0.2020  0.0922 -0.1212
47905W        W90817   7.733  24.924  20.528 -0.1620  0.0637  0.0269
47906W        W90818   6.032  28.898  20.676 -0.2544 -0.0050  0.0250
47907W        W90819   9.563  26.708  22.890 -0.0712 -0.0574  0.0271
47908W        W90820  10.151  26.021  23.176  0.2138 -0.1328 -0.0978
47909W        W90821   8.105  27.655  21.970  0.1208 -0.0361  0.1696
47910W        W90822  10.137  27.999  23.460  0.2061  0.0559  0.0644
47911W        W90823   9.977  27.584  19.344 -0.2833  0.0062 -0.0658
47912W        W90824   9.084  27.720  21.842 -0.0191  0.0718  0.0291
47913W        W90825   7.224  26.880  19.809  0.0282  0.2449  0.1649
47914W        W90826  10.049  26.860  22.720 -0.1959  0.0519 -0.1749
47915W        W90827   8.162  27.860  23.551 -0.0709  0.2032  0.0944
47916W        W90828   7.168  28.082  22.368 -0.4229 -0.2306  0.0017
47917W        W90829   9.599  27.366  23.650  0.1553 -0.0450  0.3429
47918W        W90830   9.134  27.986  20.172  0.0905 -0.1550  0.0834
47919W        W90831   8.859  27.506  23.331 -0.0675 -0.5629  0.0688
47920W        W90832   9.447  26.852  21.121  0.0836  0.0459  0.4108
47921W        W90833   8.960  29.005  21.709  0.2466  0.0433 -0.0852
47922W        W90834   8.425  27.137  20.406  0.4141  0.0098  0.0584
47923W        W90835   8.829  25.860  21.719 -0.1564  0.2761 -0.1790
47924W        W90836   8.530  28.383  22.343 -0.2120 -0.1956 -0.3414
47925W        W90837   8.724  28.220  20.447 -0.0588 -0.2376  0.0743
47926W        W90838   9.617  27.144  22.556 -0.2174 -0.4259 -0.1867
47927W        W90839   7.245  28.625  20.040  0.0006  0.2204  0.2034
47928W        W90840  10.693  25.745  21.883 -0.1672  0.0829 -0.2208
47929W        W90841   7.151  27.545  21.812  0.0727 -0.1742 -0.3369
47930W        W90842   7.460  26.436  20.556  0.2545  0.3296  0.1377
47931W        W90843   6.583  28.337  21.212 -0.0647  0.0965 -0.0924
47932W        W90844   9.128  26.507  20.775  0.0627  0.1125  0.1996
47933W        W90845   9.193  27.967  19.623  0.1765 -0.0096  0.1089
47934W        W90846   8.865  26.116  22.738  0.0769  0.2108  0.0682
47935W        W90847   8.093  25.711  20.826  0.1026  0.2547  0.0966
47936W        W90848   7.726  28.679  22.013 -0.1808  0.2438  0.3220
47937W        W90849  10.269  27.371  22.651  0.1873  0.1392 -0.0091
47938W        W90850  10.292  27.720  18.940  0.2671 -0.0183  0.0160
47939W        W90851   9.168  28.223  21.677 -0.3432  0.2371 -0.1570
47940W        W90852   7.749  27.742  23.818  0.0232  0.1283  0.1525
47941W        W90853   7.066  26.462  19.464  0.1767  0.2044  0.0821
47942W        W90854   9.994  27.519  21.678  0.1065 -0.0791  0.0104
47943W        W90855   8.762  28.277  23.339 -0.0577 -0.1255 -0.3952
47944W        W90856   7.183  28.280  20.518  0.0780  0.3405  0.0850
47945W        W90857   9.898  30.442  21.951  0.0607 -0.1227  0.0383
47946W        W90858   8.489  26.713  19.561  0.1108  0.0554 -0.3722
47947W        W90859   8.765  28.003  21.436 -0.2124  0.1281 -0.1005
47948W        W90860   9.086  27.169  23.552 -0.2068  0.0206 -0.0706
47949W        W90861   9.465  28.797  22.585  0.2997  0.2335 -0.3431
47950W        W90862   8.869  26.745  21.885  0.2953  0.1803 -0.4471
47951W        W90863   8.074  26.359  20.655 -0.1767  0.0475  0.2058
47952W        W90864   9.535  27.760  20.982  0.1543 -0.1322 -0.1735
47953W        W90865   9.280  28.887  22.115 -0.0183 -0.0390 -0.0557
47954W        W90866   8.539  26.021  20.859 -0.0157  0.0244 -0.1472
47955W        W90867   8.693  29.658  22.660 -0.2011 -0.3504 -0.1655
47956W        W90868   9.842  24.523  21.613  0.6251  0.1980 -0.1004
47957W        W90869   9.933  29.796  19.749 -0.1258 -0.0497  0.1207
47958W        W90870   9.444  27.195  23.131  0.0384 -0.2202 -0.1226
47959W        W90871   7.310  28.359  20.982  0.1561 -0.0307 -0.0194
47960W        W90872   6.806  26.394  22.235  0.3623  0.1425  0.4762
47961W        W90873   7.522  29.078  21.774  0.2399  0.3111  0.2400
47962W        W90874   8.737  26.479  21.070  0.0787  0.3135 -0.2477
47963W        W90875   8.356  28.476  21.934  0.2732  0.1734  0.2837
47964W        W90876   8.026  27.691  20.663  0.1652  0.0519 -0.1529
47965W        W90877   5.601  28.205  22.599  0.2766  0.0514  0.1511
47966W        W90878   9.850  27.276  19.994  0.0359  0.2362 -0.0578
47967W        W90879   8.514  28.043  20.869  0.0458 -0.2041  0.1326
47968W        W90880   7.953  26.805  21.826  0.1288 -0.1689 -0.0214
47969W        W90881  10.568  28.250  23.363  0.0651 -0.1693  0.0328
47970W        W90882  10.629  28.406  19.389  0.0446  0.3654 -0.6364
47971W        W90883   9.220  25.761  22.804 -0.0623  0.0209 -0.1692
47972W        W90884   7.907  25.677  22.678  0.1251  0.1335 -0.1810
47973W        W90885  11.256  29.118  20.878 -0.0506 -0.0815 -0.1900
47974W        W90886   7.188  26.853  23.982  0.1943 -0.1299 -0.0849
47975W        W90887   8.798  29.828  24.663 -0.1533 -0.3498  0.1137
47976W        W90888   7.280  28.358  23.323 -0.2023  0.2804  0.1398
47977W        W90889   8.904  26.355  20.026  0.1937  0.0422 -0.1873
47978W        W90890   9.532  25.838  20.217 -0.0992  0.0082  0.0761
47979W        W90891   8.891  28.510  23.825  0.0702 -0.1843  0.3825
47980W        W90892  11.046  29.049  22.295  0.1813 -0.0657  0.0885
47981W        W90893   9.531  28.010  20.523  0.3953  0.0779 -0.1161
47982W        W90894  10.009  27.804  21.239  0.2267  0.0588  0.0277
47983W        W90895   7.347  27.775  22.857  0.0466 -0.2811  0.1494
47984W        W90896  10.435  27.572  21.893 -0.2524  0.0333 -0.0872
47985W        W90897   9.914  28.456  19.966  0.3726 -0.3461 -0.0495
47986W        W90898   8.617  27.747  20.412 -0.0286  0.0156 -0.0920
47987W        W90899   7.627  26.107  21.772  0.1772 -0.0420  0.0467
47988W        W90900  10.119  28.443  21.012  0.2080  0.0698 -0.1135
47989W        W90901   9.283  25.666  21.026  0.2396  0.1364  0.1479
47990W        W90902   9.186  25.012  23.309 -0.0875  0.0140  0.4079
47991W        W90903   9.056  26.279  21.951 -0.0897 -0.0620  0.0855
47992W        W90904   8.160  27.664  24.080  0.2240 -0.0907 -0.0858
47993W        W90905   6.971  27.153  23.580 -0.0267 -0.1215  0.0065
47994W        W90906   9.834  27.615  22.806  0.2525  0.0664  0.2082
47995W        W90907  12.276  27.811  17.628  0.2752  0.0920 -0.0061
47996W        W90908  11.221  27.566  22.041  0.1988  0.0507  0.0607
47997W        W90909   9.411  27.215  20.248  0.0570 -0.1335  0.1495
47998W        W90910   9.613  27.690  20.136  0.0617 -0.0220  0.1439
47999W        W90911   7.707  25.770  22.201  0.0065 -0.1112  0.0002
48000W        W90912   9.928  28.457  24.070 -0.0309 -0.0356 -0.1469
48001W        W90913   8.683  26.808  20.043  0.0472  0.3735  0.3216
48002W        W90914   8.857  25.898  22.241  0.0826  0.0717  0.0800
48003W        W90915   9.422  29.314  20.239  0.1161 -0.1573 -0.1767
48004W        W90916  10.178  28.942  21.165  0.1579 -0.0522  0.3653
48005W        W90917   8.430  27.572  19.892 -0.0196  0.2877 -0.2149
48006W        W90918   6.701  27.303  21.883  0.0146  0.1287 -0.2771
48007W        W90919   7.042  29.373  21.783 -0.0226 -0.1556 -0.0813
48008W        W90920   7.863  26.906  18.858  0.2425 -0.1873 -0.0466
48009W        W90921   8.887  28.390  19.460  0.1478 -0.1446 -0.1263
48010W        W90922   8.419  27.907  23.080  0.1580  0.3719 -0.2642
48011W        W90923  12.496  27.587  24.770 -0.0226 -0.2263  0.1028
48012W        W90924   8.639  25.900  19.215  0.2501  0.0058 -0.2910
48013W        W90925  10.438  26.211  22.733  0.0334  0.0032 -0.2598
48014W        W90926   6.965  27.935  20.944  0.1412 -0.3080 -0.1182
48015W        W90927   7.816  25.262  21.965  0.0192 -0.2170 -0.0998
48016W        W90928   8.145  29.640  21.720  0.2007 -0.0390 -0.1997
48017W        W90929   7.446  28.082  23.972 -0.0795 -0.0124  0.1467
48018W        W90930  10.161  28.828  21.664  0.0034 -0.1369 -0.1221
48019W        W90931   8.846  26.439  22.324  0.0151  0.2115 -0.1992
48020W        W90932   8.463  27.068  21.824  0.4340 -0.1126 -0.0598
48021W        W90933   6.940  27.987  23.096  0.0357  0.0891 -0.0244
48022W        W90934  10.862  27.975  23.095 -0.0421 -0.1020 -0.0254
48023W        W90935  10.607  29.240  23.795 -0.2160 -0.0817 -0.1877
48024W        W90936   8.223  27.364  21.435  0.3110 -0.0345 -0.1045
48025W        W90937   9.797  29.401  24.143  0.2314  0.1079 -0.2239
48026W        W90938  10.904  27.744  21.208  0.0142  0.3429  0.1951
48027W        W90939   6.287  27.653  22.224  0.2271  0.2658  0.2492
48028W        W90940   7.900  27.080  23.118 -0.0467 -0.1966 -0.0323
48029W        W90941   9.421  28.362  24.177  0.1797  0.1231 -0.1545
48030W        W90942   8.730  27.449  21.415 -0.0856 -0.1899 -0.4405
48031W        W90943   8.101  25.834  21.579 -0.0659  0.2749  0.0377
48032W        W90944   7.641  28.071  20.049 -0.0750  0.0799  0.1680
48033W        W90945   7.424  28.572  22.441 -0.4666 -0.1815  0.0193
48034W        W90946   6.259  28.691  23.269 -0.3237 -0.2002  0.0818
48035W        W90947   7.831  28.245  21.775  0.1464 -0.2852 -0.1359
48036W        W90948   9.273  29.471  19.750 -0.3912 -0.0182  0.0932
48037W        W90949  10.012  28.189  21.500 -0.0492 -0.1854 -0.0436
48038W        W90950  10.035  29.862  21.091 -0.0219  0.0514  0.0880
48039W        W90951   8.141  26.693  20.254  0.0721 -0.4197 -0.0077
48040W        W90952   7.824  27.769  21.575  0.0836  0.0947 -0.1479
48041W        W90953   8.011  29.708  19.381  0.0909 -0.0352 -0.2843
48042W        W90954  10.896  29.068  20.532  0.1875  0.0189  0.1732
48043W        W90955   7.597  27.835  21.979  0.2289  0.0634 -0.0885
48044W        W90956  10.816  27.382  21.611 -0.3177 -0.1819 -0.0407
48045W        W90957  10.552  27.026  19.330 -0.1656 -0.1271  0.3001
48046W        W90958  10.376  28.359  22.279 -0.0330 -0.1417  0.0821
48047W        W90959  10.071  27.709  19.829 -0.4283 -0.1942 -0.0144
48048W        W90960   9.921  28.638  22.506  0.0649  0.2693 -0.2589
48049W        W90961   8.441  26.527  22.708 -0.0478  0.1679  0.0370
48050W        W90962   9.147  26.708  20.286  0.0527 -0.2007  0.0267
48051W        W90963   8.888  28.275  24.285  0.2806 -0.0232 -0.0048
48052W        W90964  11.173  26.757  24.667 -0.0783 -0.1054  0.4129
48053W        W90965   7.066  29.078  21.370  0.2655 -0.0574  0.0171
48054W        W90966  10.116  30.252  19.307  0.1306  0.2547 -0.0187
48055W        W90967   6.942  26.134  21.246  0.2471  0.0857 -0.2053
48056W        W90968   8.649  28.841  22.167  0.3730 -0.1386  0.2424
48057W        W90969  10.985  26.130  23.220 -0.3704  0.3814 -0.1665
48058W        W90970   8.663  27.960  19.699 -0.0368 -0.4965  0.3627
48059W        W90971   9.467  26.368  21.112 -0.1247  0.1382  0.1275
48060W        W90972   9.691  29.111  21.423 -0.0321 -0.5156 -0.0846
48061W        W90973   8.107  27.217  22.713  0.0578  0.1228 -0.3042
48062W        W90974   8.670  30.011  22.963  0.0058  0.1566  0.3046
48063W        W90975   6.843  25.598  21.144  0.1082 -0.3490  0.3045
48064W        W90976  10.729  26.856  21.482  0.0665  0.3354  0.1146
48065W        W90977   7.744  28.157  23.513 -0.0382  0.0378 -0.0769
48066W        W90978  11.011  25.969  22.727 -0.0353  0.1070  0.1278
48067W        W90979   7.882  26.094  21.238 -0.0136 -0.2459  0.1163
48068W        W90980   9.660  26.951  19.611  0.0775  0.2211 -0.1657
48069W        W90981  10.144  28.307  23.068  0.1596 -0.1176 -0.2354
48070W        W90982   7.918  27.753  23.077 -0.0958  0.1633 -0.2547
48071W        W90983   7.765  26.840  20.575 -0.1923 -0.0874  0.1048
48072W        W90984  11.265  28.084  24.087  0.0911 -0.2871 -0.0966
48073W        W90985   9.559  27.530  19.658  0.1053  0.3813 -0.0311
48074W        W90986  10.097  29.394  23.762  0.1877 -0.0040  0.2841
48075W        W90987   8.125  26.611  22.287 -0.1467  0.3599  0.1968
48076W        W90988   9.619  25.810  20.704  0.0162  0.0968 -0.1865
48077W        W90989   7.457  27.229  22.130 -0.0198  0.0563  0.1661
48078W        W90990   7.376  26.870  24.598 -0.2116  0.0456  0.2402
48079W        W90991   9.617  29.273  22.881  0.0518 -0.1773  0.2073
48080W        W90992   8.102  25.374  21.410 -0.1358  0.0624  0.0865
48081W        W90993  11.151  27.812  19.016  0.2627 -0.4120  0.0890
48082W        W90994  10.353  27.792  22.456  0.0508  0.0698  0.0043
48083W        W90995   7.695  29.048  19.960  0.0398  0.1695  0.1034
48084W        W90996   9.504  28.266  20.057 -0.1583  0.2752 -0.4114
48085W        W90997  10.090  29.435  21.464 -0.2728  0.0259 -0.1583
48086W        W90998   6.929  26.050  22.693  0.1121  0.2087 -0.0536
48087W        W90999  10.109  30.607  20.861  0.0884  0.2060 -0.3333
48088W        W91000  10.492  29.108  23.301  0.2286 -0.0166  0.2507
48089W        W91001   9.422  26.931  20.640  0.0284 -0.0996 -0.1247
48090W        W91002   7.884  27.702  22.457  0.4525  0.0358  0.1625
48091W        W91003   7.021  28.403  19.168 -0.0826  0.0113  0.1078
48092W        W91004   9.990  26.501  23.070 -0.0365 -0.0527 -0.1384
48093W        W91005   9.774  25.790  22.931  0.1913  0.1707  0.1342
48094W        W91006   8.838  28.940  19.866 -0.0662 -0.3581 -0.2875
48095W        W91007   9.019  26.186  23.354 -0.1196  0.2030  0.3270
48096W        W91008   9.490  28.827  23.299  0.0777 -0.0864  0.0735
48097W        W91009   8.079  28.177  22.721 -0.0568  0.0028  0.1556
48098W        W91010   6.769  27.799  19.947 -0.2357  0.1356  0.1562
48099W        W91011   8.001  28.135  23.966  0.0490 -0.0386 -0.0096
48100W        W91012   7.542  28.605  21.561 -0.0996 -0.1360 -0.0559
48101W        W91013   7.520  29.626  20.364 -0.2385  0.1786  0.1300
48102W        W91014  10.497  28.714  20.657  0.0666 -0.3894 -0.2211
48103W        W91015   8.575  27.563  21.847  0.2693  0.3863  0.0458
48104W        W91016   9.502  28.390  22.281 -0.0849  0.0153  0.1442
48105W        W91017   8.100  26.311  21.664  0.0928 -0.0385  0.1845
48106W        W91018  10.102  27.411  20.868  0.1667  0.3562 -0.4422
48107W        W91019  10.460  25.267  20.490 -0.0163 -0.0097 -0.0480
48108W        W91020   8.527  27.442  23.782  0.2543 -0.2701  0.2104
48109W        W91021   6.842  26.921  20.998 -0.1136  0.2312 -0.0200
48110W        W91022   7.870  28.596  19.406  0.3736 -0.0620  0.1534
48111W        W91023   7.356  28.329  21.970 -0.4167  0.2313 -0.3636
48112W        W91024   9.647  26.195  23.911 -0.2315  0.0947 -0.1245
48113W        W91025   8.618  27.035  23.557 -0.1283  0.0469 -0.1388
48114W        W91026   6.996  26.563  22.693 -0.0045 -0.2641  0.1374
48115W        W91027   8.173  25.917  20.389  0.0916  0.0909 -0.0544
48116W        W91028  10.577  29.328  19.724  0.1899  0.2692 -0.3329
48117W        W91029   7.932  26.144  22.601 -0.1042 -0.0143  0.1340
48118W        W91030   7.105  25.796  21.767 -0.1302 -0.1570 -0.0017
48119W        W91031   9.532  28.307  20.929  0.0138 -0.0052 -0.3024
48120W        W91032   9.981  28.864  20.341  0.1968  0.1071 -0.1048
48121W        W91033   8.704  25.943  20.312  0.1606 -0.5117  0.1965
48122W        W91034  11.551  29.035  22.225  0.0045 -0.0004  0.1060
48123W        W91035   6.995  28.555  19.602 -0.2540  0.0508 -0.0661
48124W        W91036   8.334  27.397  23.249  0.1249 -0.0180  0.0303
48125W        W91037   8.636  25.387  23.413 -0.0333  0.1241 -0.0121
48126W        W91038   7.825  26.079  19.599 -0.1530  0.0188  0.0578
48127W        W91039   9.107  27.139  22.543 -0.3559  0.0876 -0.2962
48128W        W91040  10.567  29.871  19.948 -0.2947  0.1870  0.1960
48129W        W91041  10.245  30.869  20.299  0.1173 -0.0052 -0.0960
48130W        W91042   9.032  28.883  23.526  0.1670 -0.1627 -0.3089
48131W        W91043   6.861  28.391  22.030  0.1585  0.1752  0.2425
48132W        W91044   7.886  25.213  22.973  0.3111  0.1956  0.0388
48133W        W91045   9.648  27.396  20.688 -0.1887  0.0102 -0.2200
48134W        W91046   9.123  28.400  22.669  0.1523 -0.0797  0.0321
48135W        W91047  11.593  29.102  19.553  0.2332 -0.0141  0.1430
48136W        W91048   9.505  27.444  21.732  0.2350  0.1600  0.0187
48137W        W91049   9.460  28.827  20.561  0.2705  0.1245  0.0751
48138W        W91050   7.930  26.967  24.374  0.0442 -0.1838  0.1767
48139W        W91051   7.499  28.828  23.170  0.1046 -0.1236  0.2086
48140W        W91052  11.357  28.194  23.257  0.0420 -0.2796 -0.2620
48141W        W91053   9.055  25.504  21.445  0.0391 -0.2309 -0.1629
48142W        W91054  10.437  27.803  20.998 -0.1486  0.0623 -0.1966
48143W        W91055  10.708  29.554  20.367 -0.4137  0.1526  0.3477
48144W        W91056   6.944  28.480  23.817  0.0973  0.0395  0.0121
48145W        W91057   9.206  26.735  19.755  0.2729 -0.0463 -0.1558
48146W        W91058   9.731  26.842  23.567 -0.0175 -0.3291  0.1208
48147W        W91059   8.782  28.536  21.726  0.2489 -0.1029  0.2158
48148W        W91060  11.163  27.574  23.875 -0.3256  0.1645  0.4021
48149W        W91061   8.397  27.734  21.215  0.0943 -0.0135  0.0227
48150W        W91062  11.100  27.550  20.809 -0.1471 -0.0830  0.3457
48151W        W91063  10.642  30.154  22.148  0.2854  0.0941  0.2389
48152W        W91064   9.752  28.921  24.160 -0.2622  0.0223  0.2283
48153W        W91065   8.830  29.397  21.371 -0.3317  0.3106 -0.1126
48154W        W91066   9.656  27.941  21.917  0.2961  0.0867  0.1429
48155W        W91067   7.341  25.906  23.963  0.0347  0.0499  0.1534
48156W        W91068   7.903  25.482  20.380  0.2577  0.1523 -0.1315
48157W        W91069   9.107  28.115  20.895  0.0138 -0.1997  0.0059
48158W        W91070   8.464  26.457  21.962 -0.3980  0.1660  0.1549
48159W        W91071   7.691  26.432  22.144 -0.1691 -0.4553 -0.1008
48160W        W91072   9.346  25.863  21.982 -0.2098 -0.2365  0.0449
48161W        W91073   9.410  27.511  22.245  0.2172 -0.1382 -0.2458
48162W        W91074   8.389  27.805  22.440 -0.0645 -0.0812  0.0578
48163W        W91075   7.874  28.004  27.033 -0.2358  0.3098  0.2944
48164W        W91076   8.080  26.786  23.489  0.0022 -0.1261 -0.1636
48165W        W91077  10.692  26.899  24.331 -0.1635 -0.0773  0.0531
48166W        W91078  11.924  28.408  24.832 -0.1405  0.2310 -0.2865
48167W        W91079   8.384  27.840  24.752 -0.0474 -0.1766  0.0269
48168W        W91080  10.709  28.753  25.924  0.1520  0.2182 -0.2119
48169W        W91081   7.575  24.831  26.884 -0.2313 -0.0759  0.1164
48170W        W91082   8.985  27.379  25.226  0.0283  0.2622 -0.0311
48171W        W91083  10.893  30.711  26.007  0.0282  0.0052 -0.0109
48172W        W91084   9.877  29.217  23.338  0.3088  0.1445 -0.0609
48173W        W91085   9.667  26.146  27.578 -0.2489 -0.2402 -0.4535
48174W        W91086   8.502  28.925  26.372  0.1976 -0.0677  0.0761
48175W        W91087   8.727  27.457  24.797 -0.1937 -0.0219  0.2423
48176W        W91088   8.539  25.824  25.329  0.0319  0.2639  0.2425
48177W        W91089   9.653  27.450  26.687 -0.0561  0.0911 -0.0346
48178W        W91090   8.620  27.569  25.757  0.1160 -0.2377  0.2492
48179W        W91091   8.251  26.658  26.319 -0.4434 -0.2203  0.0858
48180W        W91092   9.318  26.980  23.925  0.0403  0.1943 -0.2921
48181W        W91093  10.006  28.666  26.009  0.0122 -0.2163 -0.0599
48182W        W91094  10.237  24.919  26.361  0.1000 -0.1937 -0.0279
48183W        W91095   9.021  26.339  28.366  0.1448  0.0449 -0.1230
48184W        W91096   9.314  28.284  23.454  0.3045 -0.1527 -0.0977
48185W        W91097   7.582  27.229  22.675 -0.1209  0.1353 -0.1462
48186W        W91098   9.032  25.532  23.892  0.1071 -0.1467 -0.1927
48187W        W91099   8.756  26.565  26.936 -0.0706  0.1344  0.2768
48188W        W91100  10.150  28.118  26.231 -0.1706 -0.0283 -0.0026
48189W        W91101   9.764  27.782  26.282 -0.0935  0.0984  0.2355
48190W        W91102   9.263  27.925  26.014 -0.2478 -0.1704 -0.0855
48191W        W91103   9.373  29.758  25.455 -0.0423 -0.0285 -0.0497
48192W        W91104  11.492  26.979  26.579 -0.0616  0.2865  0.1916
48193W        W91105   6.601  28.066  23.890  0.2214 -0.0939 -0.0231
48194W        W91106   6.893  29.920  26.392  0.3387  0.4306 -0.0547
48195W        W91107   9.163  29.085  24.203 -0.0004  0.1284  0.1685
48196W        W91108  10.258  29.569  23.322  0.1507 -0.3068  0.1980
48197W        W91109  10.572  27.856  24.585 -0.1845  0.0664  0.2274
48198W        W91110   8.649  29.700  26.440 -0.1368 -0.3492 -0.0475
48199W        W91111   7.795  28.702  22.777 -0.0024 -0.0411  0.0726
48200W        W91112  10.313  29.213  27.468  0.2094 -0.3808  0.3074
48201W        W91113   8.933  28.132  26.315  0.0088 -0.0292  0.0386
48202W        W91114   9.101  27.724  27.012 -0.0994  0.1134 -0.2238
48203W        W91115   9.564  29.097  26.156  0.1745 -0.1767  0.1345
48204W        W91116   8.637  29.213  22.887 -0.1312  0.0588  0.1837
48205W        W91117   8.433  28.559  25.531  0.0356 -0.0136  0.2320
48206W        W91118   9.145  26.258  27.614 -0.1095  0.1677  0.1551
48207W        W91119   8.136  27.679  25.512  0.1968 -0.1868  0.0033
48208W        W91120   9.913  25.946  28.009  0.3408 -0.0690  0.1698
48209W        W91121   7.114  29.257  23.959  0.0749 -0.0747  0.0464
48210W        W91122   9.830  27.974  25.353 -0.0247 -0.2384 -0.1151
48211W        W91123   9.550  26.641  24.217  0.0414  0.0418  0.2834
48212W        W91124  11.003  27.649  25.433 -0.0647  0.1842  0.1739
48213W        W91125   8.825  26.430  24.769  0.1790  0.1282  0.0747
48214W        W91126   8.786  29.312  24.522 -0.2804 -0.3333  0.1180
48215W        W91127   9.446  25.085  26.682  0.1711 -0.0372 -0.0213
48216W        W91128  10.821  29.112  27.584  0.2447 -0.0814  0.2392
48217W        W91129   8.615  27.850  24.239 -0.1153  0.0008  0.0765
48218W        W91130  10.916  25.489  26.666 -0.0006  0.0359  0.2243
48219W        W91131   8.442  28.505  24.932 -0.0313 -0.2426 -0.1243
48220W        W91132   7.220  26.308  25.465 -0.2976 -0.2819 -0.0027
48221W        W91133  10.226  29.151  24.246  0.3427 -0.0434  0.0323
48222W        W91134  10.915  28.586  25.032  0.0153  0.1849  0.1982
48223W        W91135   8.631  29.150  23.419  0.1021  0.0831 -0.0203
48224W        W91136   7.761  27.106  25.711 -0.0103  0.0243 -0.2212
48225W        W91137   7.602  26.489  28.159  0.0340  0.1827 -0.1559
48226W        W91138   7.278  26.300  27.077  0.0935  0.2265 -0.0898
48227W        W91139   7.686  26.153  23.076 -0.0098 -0.2280 -0.0174
48228W        W91140  10.490  27.954  26.779  0.1437 -0.0896  0.0124
48229W        W91141   8.052  28.413  27.484 -0.1100  0.1825 -0.0906
48230W        W91142   9.993  27.071  25.699 -0.1918 -0.0578 -0.1823
48231W        W91143   8.598  27.102  26.081  0.0729 -0.0520  0.1043
48232W        W91144  10.368  28.940  25.638 -0.2009  0.1441 -0.0429
48233W        W91145   9.388  29.345  23.308 -0.0898 -0.2801  0.0507
48234W        W91146   8.953  25.980  25.015 -0.0228  0.1403  0.1693
48235W        W91147  10.396  26.649  26.682  0.1321 -0.1980  0.1804
48236W        W91148   8.801  28.893  24.770  0.0622 -0.1426  0.0753
48237W        W91149   9.467  28.884  24.931  0.2700  0.1121 -0.3567
48238W        W91150  10.965  28.280  25.965 -0.1464  0.3070  0.2155
48239W        W91151   9.779  27.903  24.406  0.0660 -0.1087 -0.1631
48240W        W91152   7.908  28.038  25.947  0.0567 -0.2471  0.1345
48241W        W91153   8.020  26.784  28.272 -0.2081  0.1826  0.1354
48242W        W91154   9.514  28.916  27.141 -0.3083  0.2276 -0.0401
48243W        W91155   6.972  28.707  23.137  0.3580 -0.4063  0.0993
48244W        W91156   7.521  28.898  26.517  0.1114  0.0402 -0.0796
48245W        W91157   6.644  27.991  24.655  0.1482  0.3914  0.1591
48246W        W91158   7.177  25.166  27.591 -0.0287  0.2999  0.0036
48247W        W91159   8.779  29.297  26.193 -0.1359 -0.0087  0.1723
48248W        W91160   9.887  27.112  24.027  0.2997 -0.0084 -0.1325
48249W        W91161   7.345  25.326  26.726 -0.1313 -0.0521  0.0764
48250W        W91162  11.514  25.534  25.796 -0.0468  0.0314  0.1587
48251W        W91163   8.075  26.914  25.241  0.1196 -0.2962  0.1253
48252W        W91164  10.720  28.941  25.283 -0.3053  0.1091  0.0408
48253W        W91165  10.757  26.949  24.921 -0.0078 -0.3114  0.0479
48254W        W91166   9.829  29.745  22.421  0.0529 -0.2735 -0.0207
48255W        W91167   8.363  26.156  24.813  0.0127 -0.2031 -0.0172
48256W        W91168   6.913  26.783  25.115  0.1976  0.2152  0.0063
48257W        W91169   8.246  26.103  27.013 -0.2542 -0.0843  0.0542
48258W        W91170   8.599  26.284  26.303 -0.3194 -0.0215  0.1334
48259W        W91171  10.155  28.420  26.652 -0.2085  0.1660 -0.1031
48260W        W91172   7.817  26.006  24.207 -0.2187 -0.3083 -0.2015
48261W        W91173  11.371  28.209  25.383  0.1737 -0.1329 -0.0599
48262W        W91174   8.225  26.686  25.776  0.0902  0.1058  0.2170
48263W        W91175   7.098  27.799  24.523 -0.0545 -0.1288  0.2668
48264W        W91176  10.423  25.344  26.089  0.1611  0.2366  0.0082
48265W        W91177  10.908  29.728  25.638 -0.0008  0.0701  0.1211
48266W        W91178  10.485  29.354  26.767  0.0981 -0.2346  0.0899
48267W        W91179  10.926  29.727  24.503  0.0641  0.0147 -0.0473
48268W        W91180   9.104  25.580  27.540  0.2803 -0.1212 -0.0913
48269W        W91181   8.776  26.972  24.050 -0.1942 -0.1637  0.0973
48270W        W91182   7.764  29.187  24.616  0.0636  0.0955  0.3519
48271W        W91183   8.455  28.342  24.057 -0.3888  0.0813 -0.0236
48272W        W91184   7.738  26.017  24.720 -0.0807 -0.2468 -0.0221
48273W        W91185  10.423  29.435  26.252  0.1019  0.2473 -0.0423
48274W        W91186  10.759  28.652  24.601 -0.1963 -0.0267 -0.3885
48275W        W91187   8.967  29.378  25.524  0.0511  0.3222 -0.2856
48276W        W91188  10.061  25.804  27.332  0.0686  0.0625  0.0203
48277W        W91189  11.377  26.206  26.357  0.0576 -0.1258 -0.3803
48278W        W91190   8.855  28.096  25.753 -0.1434  0.1641 -0.3076
48279W        W91191   5.893  26.603  24.005 -0.1239 -0.0609 -0.1973
48280W        W91192  10.550  29.396  25.729 -0.0466 -0.0945 -0.1256
48281W        W91193   8.165  29.670  25.493 -0.4023 -0.1193 -0.1432
48282W        W91194   6.925  27.785  26.572 -0.0425 -0.1513  0.1728
48283W        W91195   8.958  29.293  25.027  0.1173 -0.1077 -0.1893
48284W        W91196   9.041  26.212  25.526 -0.1600 -0.1454  0.0650
48285W        W91197   7.832  26.457  27.682 -0.0710  0.1281  0.2107
48286W        W91198   9.725  28.346  26.287 -0.1239  0.1159  0.1205
48287W        W91199   8.437  26.637  24.975  0.1906 -0.3228  0.0850
48288W        W91200   7.404  27.664  28.545 -0.2671  0.1103 -0.2404
48289W        W91201   9.608  27.940  24.930  0.1841  0.0870 -0.0016
48290W        W91202  10.217  26.978  23.566 -0.1080  0.1024  0.0040
48291W        W91203   9.480  30.244  26.821 -0.0687 -0.1015  0.2743
48292W        W91204   9.554  28.455  25.285 -0.2734  0.1589 -0.0816
48293W        W91205   9.188  27.999  23.904  0.2168 -0.2014  0.0575
48294W        W91206  10.385  28.420  23.858  0.3039  0.1241  0.5924
48295W        W91207   7.590  28.092  27.492  0.1439 -0.1030 -0.0420
48296W        W91208   8.709  29.206  24.050  0.2033  0.4738  0.2662
48297W        W91209   8.358  28.050  25.688 -0.0702  0.0400 -0.2387
48298W        W91210   8.548  26.522  23.197 -0.1199 -0.1590 -0.1658
48299W        W91211  10.552  28.836  24.076  0.0660 -0.0321 -0.0350
48300W        W91212   7.185  26.811  26.496  0.0868 -0.1498 -0.0540
48301W        W91213   8.669  28.345  28.090 -0.0816  0.0625 -0.3634
48302W        W91214   9.124  28.475  25.602 -0.2791  0.0687  0.0264
48303W        W91215   8.274  26.358  28.070 -0.0737  0.1324  0.0230
48304W        W91216   9.846  27.452  24.786 -0.2240  0.0979  0.1275
48305W        W91217  10.112  26.204  25.570 -0.0820 -0.1439 -0.0462
48306W        W91218   6.578  29.502  22.025 -0.0748 -0.1163 -0.0767
48307W        W91219  12.429  25.752  26.198  0.0362  0.2540 -0.0722
48308W        W91220  10.033  27.477  25.262  0.0385  0.1842 -0.0111
48309W        W91221   9.763  24.514  25.661 -0.0849 -0.0535 -0.1104
48310W        W91222  10.696  27.034  26.502 -0.0625 -0.0514 -0.1441
48311W        W91223  10.013  28.395  25.008  0.2115  0.1360  0.4841
48312W        W91224   9.025  27.195  26.613 -0.1473 -0.2104 -0.0416
48313W        W91225   8.170  27.418  25.083  0.0609 -0.3775  0.1597
48314W        W91226   9.871  27.237  26.173 -0.0474  0.0360  0.1255
48315W        W91227   8.433  27.416  26.403  0.1126  0.0024  0.1344
48316W        W91228   7.158  28.831  27.613  0.1224 -0.1661 -0.2023
48317W        W91229  10.703  28.905  26.564  0.1119  0.0804 -0.0949
48318W        W91230  11.432  27.887  25.034  0.0841  0.4132 -0.1775
48319W        W91231   8.719  25.178  27.395  0.3730 -0.1002  0.1131
48320W        W91232   8.730  26.980  24.671 -0.2623  0.1479  0.2687
48321W        W91233   7.328  28.986  24.438 -0.0227  0.1429  0.1686
48322W        W91234   8.303  29.080  24.300  0.0471 -0.0505  0.0698
48323W        W91235   9.782  24.852  26.365 -0.0353  0.0903  0.0460
48324W        W91236   8.858  27.591  26.152 -0.2685 -0.0284 -0.1741
48325W        W91237   6.679  28.842  23.545 -0.2073 -0.0424 -0.5921
48326W        W91238  10.104  27.401  26.932  0.1010  0.1055 -0.5213
48327W        W91239   8.476  28.802  23.793 -0.0554 -0.1699 -0.2352
48328W        W91240  10.648  27.935  26.267 -0.2806 -0.1223 -0.1502
48329W        W91241   8.799  28.884  25.717 -0.2197  0.0742 -0.1303
48330W        W91242   8.026  27.464  24.588 -0.1781 -0.3285 -0.0584
48331W        W91243   7.129  27.205  24.954 -0.4150 -0.2234  0.0638
48332W        W91244   9.029  26.641  23.706  0.1107 -0.2337  0.0792
48333W        W91245   9.520  27.484  24.259  0.3008 -0.2931 -0.0295
48334W        W91246   7.077  26.110  26.530  0.1454  0.0046 -0.0351
48335W        W91247   9.178  26.408  26.048  0.1181 -0.1487  0.2114
48336W        W91248   6.584  29.561  25.936 -0.3056 -0.0292  0.3549
48337W        W91249   8.764  27.767  26.609  0.0473 -0.4052  0.0367
48338W        W91250  10.909  26.620  22.955  0.2351 -0.0302  0.2214
48339W        W91251  10.354  28.920  26.209 -0.1485  0.0617  0.1172
48340W        W91252   7.919  27.225  27.103 -0.0701 -0.2232 -0.2913
48341W        W91253   7.642  26.639  25.561 -0.0237  0.3294 -0.0438
48342W        W91254  11.144  26.098  25.271 -0.0283 -0.3500  0.1539
48343W        W91255   9.902  25.668  26.252  0.0206  0.3743  0.2860
48344W        W91256   8.006  29.399  25.928  0.2250  0.3282 -0.1390
48345W        W91257   9.535  28.237  25.768  0.0265  0.0060 -0.0577
48346W        W91258   8.197  28.216  24.486 -0.1780  0.0559  0.2639
48347W        W91259   8.000  28.429  23.146 -0.1021  0.4555  0.1318
48348W        W91260   8.770  25.725  27.181 -0.1343 -0.0795  0.0265
48349W        W91261  11.774  29.042  26.325  0.0727 -0.3790 -0.1722
48350W        W91262   9.433  27.167  25.645  0.1962  0.1061 -0.1617
48351W        W91263   9.061  26.667  24.365 -0.3015  0.2075  0.2244
48352W        W91264   8.572  27.717  25.213 -0.0349 -0.2769 -0.1120
48353W        W91265  10.434  26.149  26.071  0.1795 -0.0777 -0.3009
48354W        W91266   9.367  27.311  27.228  0.2406  0.0850 -0.0315
48355W        W91267   9.385  27.440  26.045  0.0489 -0.1234  0.0003
48356W        W91268  10.418  26.572  24.649 -0.0465 -0.0548 -0.0632
48357W        W91269  11.518  30.076  23.651  0.0125  0.1725 -0.2231
48358W        W91270   9.532  29.307  26.768  0.0628 -0.3081  0.1027
48359W        W91271   7.082  28.057  25.531  0.1355 -0.1225 -0.0181
48360W        W91272   7.613  28.603  26.092  0.1873 -0.1151 -0.1273
48361W        W91273   9.139  28.025  23.061 -0.0769 -0.3045  0.0792
48362W        W91274  10.765  26.152  25.606 -0.1275 -0.1843  0.2769
48363W        W91275   8.433  27.919  26.135 -0.0002  0.0451  0.3105
48364W        W91276   9.111  29.140  22.912  0.2092 -0.1017 -0.0776
48365W        W91277   7.556  27.873  26.572  0.2660 -0.0811 -0.0104
48366W        W91278  10.299  27.906  24.047  0.0143 -0.0543 -0.1818
48367W        W91279   8.218  28.416  23.585 -0.1626 -0.1235  0.0777
48368W        W91280   8.945  26.180  27.127  0.0538 -0.1944  0.1146
48369W        W91281  11.102  25.385  27.524  0.0279 -0.1133 -0.0023
48370W        W91282   9.330  28.181  24.613 -0.2555  0.3396 -0.2815
48371W        W91283   9.860  26.699  27.506  0.3219  0.2188 -0.1747
48372W        W91284   8.527  26.185  25.711 -0.2143  0.0673 -0.1913
48373W        W91285   9.366  27.387  24.766  0.0922 -0.1238  0.0535
48374W        W91286   7.215  27.433  26.887 -0.1030 -0.1766  0.1525
48375W        W91287   8.895  28.563  26.545 -0.1481  0.0134 -0.2126
48376W        W91288   7.331  25.574  27.364 -0.2020 -0.2207  0.2745
48377W        W91289   8.829  27.092  23.069  0.2029 -0.0068  0.1176
48378W        W91290   8.319  25.440  22.996 -0.0945 -0.0909  0.1349
48379W        W91291   8.543  26.970  26.652 -0.2121 -0.1841 -0.1348
48380W        W91292  10.119  27.878  24.913 -0.4766  0.1128  0.2182
48381W        W91293   9.170  28.639  24.541  0.2161 -0.4710  0.1320
48382W        W91294  10.417  25.983  25.261 -0.1811  0.2289 -0.2084
48383W        W91295   7.823  26.539  26.056 -0.1389 -0.1232 -0.0582
48384W        W91296   9.081  27.838  24.975 -0.2667 -0.1323 -0.0733
48385W        W91297   9.057  28.669  23.079  0.0795  0.1374  0.1275
48386W        W91298   8.007  28.735  25.250  0.1603 -0.1137 -0.2141
48387W        W91299   9.286  25.722  27.126 -0.0369 -0.1927 -0.1135
48388W        W91300  10.061  28.004  25.780  0.1269  0.1360  0.0298
48389W        W91301   8.529  27.205  25.235 -0.1555 -0.1722 -0.3913
48390W        W91302  11.080  25.423  26.115 -0.0521 -0.2002  0.0432
48391W        W91303  11.070  26.698  26.417 -0.0173  0.0242  0.2402
48392W        W91304   9.250  26.774  26.857  0.1684 -0.2412 -0.0550
48393W        W91305   8.032  24.877  27.079  0.0806  0.3431 -0.1601
48394W        W91306  10.191  29.846  26.470  0.0854 -0.1084  0.0121
48395W        W91307  10.242  27.547  24.327 -0.1747 -0.0728  0.1012
48396W        W91308  10.671  26.239  26.680  0.1170 -0.3870 -0.0529
48397W        W91309  10.518  27.447  25.087  0.2580  0.1306 -0.0001
48398W        W91310   9.024  27.238  24.394  0.1807  0.0968  0.3707
48399W        W91311   7.296  27.006  25.431 -0.0786  0.4043 -0.0795
48400W        W91312   9.275  27.792  26.493 -0.3035 -0.1642  0.2651
48401W        W91313   8.210  27.007  24.759 -0.0364 -0.1079 -0.0088
48402W        W91314  10.585  27.104  27.064 -0.1967 -0.1749 -0.1546
48403W        W91315   9.354  29.274  24.684 -0.1584 -0.1842  0.3067
48404W        W91316   9.169  29.212  25.937  0.0652  0.1440 -0.0418
48405W        W91317  10.609  28.237  24.938 -0.1261 -0.1391 -0.0956
48406W        W91318   8.282  25.982  23.941  0.3839 -0.0290  0.1817
48407W        W91319   8.211  29.334  27.101 -0.0981 -0.0097 -0.0277
48408W        W91320   7.672  26.830  23.839  0.0389 -0.0713  0.0093
48409W        W91321   8.214  28.176  25.254  0.0842  0.0124 -0.2107
48410W        W91322  10.060  29.231  25.918  0.2260 -0.0285 -0.0763
48411W        W91323   9.448  28.481  27.530 -0.0094  0.2607 -0.2262
48412W        W91324   9.623  27.004  24.597  0.2082  0.2159 -0.0699
48413W        W91325  10.201  26.183  27.642 -0.1642 -0.1952  0.1459
48414W        W91326   7.633  28.706  24.886  0.1947  0.2488 -0.1227
48415W        W91327  10.178  27.586  26.433 -0.0600  0.3280 -0.0984
48416W        W91328   9.686  30.062  25.731 -0.2536  0.1470 -0.1630
48417W        W91329   7.999  28.942  26.194 -0.0386  0.1526 -0.1319
48418W        W91330   9.878  28.919  25.430  0.1283 -0.2708  0.1155
48419W        W91331   8.901  25.500  25.462 -0.2897 -0.2119  0.1055
48420W        W91332   9.762  26.708  25.980  0.0964 -0.0692 -0.0135
48421W        W91333   9.461  29.804  24.834  0.1296 -0.1167  0.0242
48422W        W91334  10.969  26.962  27.337  0.1449 -0.0014  0.0854
48423W        W91335   7.879  28.241  26.436 -0.2293  0.1544  0.0858
48424W        W91336   9.601  26.488  26.396 -0.1668  0.1289 -0.1835
48425W        W91337  11.453  29.249  25.669  0.2431  0.1676 -0.0631
48426W        W91338  11.047  28.228  24.677  0.0445 -0.1156 -0.2042
48427W        W91339   7.409  28.413  26.512  0.0698  0.0929 -0.2393
48428W        W91340   8.439  26.920  27.198 -0.0421  0.1103 -0.1437
48429W        W91341   8.042  27.042  26.673 -0.2032  0.2091  0.1101
48430W        W91342   8.778  26.726  25.396  0.0240  0.4976  0.5058
48431W        W91343   9.484  26.364  23.508  0.1225 -0.3473  0.1308
48432W        W91344   6.264  28.786  25.056 -0.0635  0.1480  0.1760
48433W        W91345   7.123  28.727  26.191 -0.1897 -0.1579 -0.2254
48434W        W91346   8.338  28.309  27.036  0.0197 -0.0286 -0.2360
48435W        W91347   8.145  29.935  25.042  0.4415 -0.0484 -0.3910
48436W        W91348   9.527  29.141  23.745  0.0816  0.0256 -0.0477
48437W        W91349  10.352  28.723  24.971 -0.0143  0.1329  0.2816
48438W        W91350  10.053  29.711  26.017  0.0121 -0.0558  0.0090
48439W        W91351  10.104  27.064  24.468  0.1720  0.0225  0.2921
48440W        W91352   7.022  28.061  24.932 -0.1977 -0.2471 -0.0203
48441W        W91353   6.673  29.372  23.640 -0.0359 -0.2916 -0.0614
48442W        W91354   9.609  29.887  24.302 -0.1658 -0.1224  0.1147
48443W        W91355   8.664  30.144  25.091  0.1279  0.3096  0.0118
48444W        W91356  10.504  27.497  27.674 -0.1408 -0.0780  0.1198
48445W        W91357   9.797  26.269  24.398 -0.3381 -0.1844 -0.1269
48446W        W91358   9.824  28.118  27.356  0.0183 -0.0847 -0.0077
48447W        W91359  11.457  26.408  24.439  0.1351  0.0050 -0.0146
48448W        W91360  10.355  28.761  27.463 -0.1534 -0.5689 -0.2087
48449W        W91361  10.163  26.660  26.261  0.1464 -0.0001  0.2153
48450W        W91362   8.137  25.295  23.630  0.1361  0.0322  0.1490
48451W        W91363   8.589  26.627  28.352  0.1446 -0.1204  0.2411
48452W        W91364  10.325  24.639  28.356 -0.0105 -0.1156 -0.0177
48453W        W91365   7.916  28.368  25.569 -0.0400 -0.2351 -0.0264
48454W        W91366  10.765  29.549  23.444  0.0535  0.1696  0.0733
48455W        W91367   7.938  26.550  24.849  0.0287 -0.2062 -0.2391
48456W        W91368   8.242  27.200  25.627  0.0543 -0.2897  0.2792
48457W        W91369  12.456  26.466  25.532  0.1273  0.1205  0.2142
48458W        W91370   9.706  28.004  23.138  0.0160 -0.1488  0.3595
48459W        W91371   9.114  27.638  25.617  0.2131 -0.1329  0.2283
48460W        W91372   7.312  30.602  25.505 -0.0284  0.0029  0.0655
48461W        W91373   9.231  28.976  25.374  0.1819 -0.1455 -0.1150
48462W        W91374   9.344  30.595  25.934 -0.0523 -0.0317  0.1927
48463W        W91375   6.499  25.630  24.232  0.0615 -0.0745  0.0672
48464W        W91376  10.117  27.098  26.575 -0.2901 -0.0486 -0.0023
48465W        W91377   9.475  26.005  26.235  0.2875 -0.1147 -0.1782
48466W        W91378  10.745  25.571  27.113  0.0324  0.1350  0.3124
48467W        W91379   7.246  27.152  25.943  0.0164  0.0767  0.0157
48468W        W91380  10.250  27.018  24.947  0.3469 -0.2849  0.2009
48469W        W91381   8.327  27.888  26.784  0.3286  0.1249  0.0817
48470W        W91382   7.602  26.221  25.776  0.1246  0.3348 -0.0763
48471W        W91383   8.996  27.498  23.932 -0.0987  0.1278 -0.2553
48472W        W91384  10.771  27.476  26.144 -0.0279 -0.0090 -0.1472
48473W        W91385  10.794  27.879  23.630 -0.1398 -0.0481  0.0203
48474W        W91386   9.951  29.202  27.052  0.0322 -0.1430  0.1049
48475W        W91387   7.095  27.344  26.391  0.3381 -0.2573  0.1594
48476W        W91388   9.447  27.599  25.268  0.0110 -0.0493 -0.1130
48477W        W91389   7.655  27.657  26.095 -0.1469  0.1027 -0.0763
48478W        W91390   8.883  27.281  27.161  0.1715  0.0606  0.2656
48479W        W91391   9.706  28.903  27.646  0.4223  0.0970 -0.1750
48480W        W91392   6.777  25.615  23.795 -0.1009 -0.0002  0.3860
48481W        W91393  10.691  28.174  24.209  0.0503  0.0338 -0.3050
48482W        W91394  11.163  27.306  26.386  0.0682 -0.0962 -0.2692
48483W        W91395   9.626  29.648  23.769 -0.0233 -0.1135  0.3023
48484W        W91396  10.359  28.001  25.366 -0.0500 -0.1444  0.0353
48485W        W91397  12.235  29.835  25.719  0.2025  0.2545  0.3671
48486W        W91398   9.071  25.685  26.475  0.1396 -0.1472  0.3978
48487W        W91399  10.557  29.900  25.941  0.0657 -0.1869  0.3104
48488W        W91400  11.571  27.668  26.123  0.0191  0.2165 -0.0845
48489W        W91401   8.949  26.659  26.434 -0.1604  0.2079  0.0617
48490W        W91402   9.125  28.536  25.022 -0.1471 -0.0542  0.0194
48491W        W91403   8.090  28.714  24.631 -0.2996  0.2465 -0.1433
48492W        W91404  10.651  26.576  26.243  0.3103  0.1882 -0.2159
48493W        W91405  10.022  25.390  28.827  0.0438  0.2709  0.1051
48494W        W91406   8.214  29.450  22.770 -0.0390 -0.0302  0.0358
48495W        W91407  10.019  25.321  26.668 -0.1030  0.3155 -0.0436
48496W        W91408   8.675  28.445  26.027  0.0345  0.0348 -0.0238
48497W        W91409   9.164  28.988  26.425  0.0117  0.0752  0.1472
48498W        W91410   6.696  27.384  24.661 -0.0902 -0.0379  0.1201
48499W        W91411   9.963  28.624  27.153  0.0323 -0.0780  0.0270
48500W        W91412   9.573  29.430  25.138  0.1273 -0.1963  0.0308
48501W        W91413   9.622  29.254  25.679  0.0987  0.1956  0.2819
48502W        W91414  11.144  29.462  25.258 -0.0672 -0.0389 -0.2385
48503W        W91415   7.893  28.281  24.887  0.1372  0.1528  0.0436
48504W        W91416  11.766  29.555  25.454  0.5622 -0.2252  0.3723
48505W        W91417   9.140  26.927  26.006  0.0644  0.1395 -0.3279
48506W        W91418  11.435  25.735  25.325 -0.2509 -0.0617 -0.1954
48507W        W91419  10.308  26.610  25.228 -0.2025 -0.0702 -0.1358
48508W        W91420   7.813  27.020  27.718 -0.2444  0.0092 -0.0867
48509W        W91421   6.985  28.179  24.260  0.1261  0.4336  0.3283
48510W        W91422   7.474  28.287  25.214 -0.1324 -0.0488  0.1364
48511W        W91423   8.024  27.770  26.414  0.1185  0.0204 -0.4046
48512W        W91424   9.875  26.671  26.765  0.2630 -0.2308 -0.1336
48513W        W91425   7.627  25.705  26.572  0.2011  0.1842 -0.0314
48514W        W91426   8.921  27.199  25.666 -0.1764 -0.2611 -0.0864
48515W        W91427   8.146  26.275  24.374 -0.0451 -0.0059 -0.0172
48516W        W91428   9.837  28.429  23.462 -0.1973  0.0345 -0.1442
48517W        W91429   9.280  26.650  25.375  0.0180  0.1799 -0.1901
48518W        W91430   8.060  26.190  26.511 -0.0260  0.4196 -0.0376
48519W        W91431  11.013  28.338  23.615  0.0443 -0.1174  0.0459
48520W        W91432  10.212  28.721  24.452  0.1599 -0.0223 -0.0481
48521W        W91433   9.377  26.396  24.634 -0.1086 -0.3673 -0.0957
48522W        W91434  10.888  28.680  27.284 -0.2831  0.2073 -0.3121
48523W        W91435   6.117  28.225  23.791  0.1168  0.1333 -0.0829
48524W        W91436   8.296  27.402  28.527  0.0152 -0.1072 -0.1785
48525W        W91437   9.487  24.546  26.848  0.1149 -0.0960  0.0663
48526W        W91438   8.178  27.076  23.912 -0.1062 -0.1889  0.2173
48527W        W91439   9.717  27.032  27.018 -0.0530  0.1049  0.0464
48528W        W91440  10.188  28.246  24.512  0.0465 -0.0438 -0.1047
48529W        W91441  10.495  28.483  25.363  0.1623 -0.0911  0.1908
48530W        W91442   8.144  27.556  26.002 -0.3131  0.4102 -0.0232
48531W        W91443   9.428  28.586  26.608  0.0502 -0.0233  0.1324
48532W        W91444   8.287  26.610  26.839  0.1718  0.0253 -0.0453
48533W        W91445   8.840  28.218  24.753 -0.0359 -0.3159  0.1683
48534W        W91446   7.591  28.769  28.336  0.1876  0.0701  0.1768
48535W        W91447  11.610  26.840  24.872 -0.0824 -0.3289 -0.2413
48536W        W91448  10.932  24.899  26.695 -0.2768  0.1476 -0.1223
48537W        W91449   8.702  27.980  23.767 -0.2235  0.1354 -0.2294
48538W        W91450   8.447  25.533  27.655 -0.0701  0.1248  0.1973
48539W        W91451   8.212  26.420  28.631  0.2658  0.0882 -0.0353
48540W        W91452  11.231  28.887  24.730  0.1398 -0.2099  0.1638
48541W        W91453   8.678  26.310  24.149 -0.2031  0.6515  0.0891
48542W        W91454  10.007  28.398  25.512  0.2460  0.1501 -0.1934
48543W        W91455   9.875  29.125  24.686 -0.1536 -0.0537  0.0923
48544W        W91456   7.512  26.193  26.312  0.2396  0.0185  0.4470
48545W        W91457   7.638  27.829  25.574  0.0022  0.0709  0.0908
48546W        W91458   8.091  27.092  26.181  0.4649  0.1260 -0.0707
48547W        W91459   9.308  28.035  25.373  0.1043 -0.1513  0.0833
48548W        W91460  10.128  27.106  27.349  0.2210  0.0441 -0.1102
48549W        W91461   8.438  27.232  24.337  0.1965 -0.1754 -0.1581
48550W        W91462  10.701  27.653  24.090 -0.2976  0.2208  0.0080
48551W        W91463  10.000  27.898  26.835 -0.1339 -0.2224  0.0224
48552W        W91464  10.103  28.811  27.911 -0.2433  0.2406  0.0726
48553W        W91465   8.193  28.515  25.998 -0.3303 -0.3362 -0.0651
48554W        W91466   8.736  28.269  25.258 -0.1070  0.2212 -0.0303
48555W        W91467   7.672  24.738  26.406  0.0836  0.3439 -0.0785
48556W        W91468   8.657  28.725  24.331 -0.0184 -0.1027  0.1513
48557W        W91469   9.464  28.635  23.773  0.1616 -0.0672  0.3953
48558W        W91470  11.852  27.289  26.444 -0.0234 -0.3265  0.0320
48559W        W91471   8.794  25.989  23.727  0.2355  0.0017  0.0489
48560W        W91472   9.755  27.650  25.701 -0.1597  0.0375 -0.2384
48561W        W91473   8.692  29.231  26.780 -0.3322 -0.0848 -0.3190
48562W        W91474   9.875  28.832  26.485 -0.2582 -0.0659 -0.2226
48563W        W91475   8.060  28.846  29.483 -0.0590  0.4145  0.2275
48564W        W91476   9.032  27.006  28.262 -0.1263 -0.0051  0.1706
48565W        W91477  10.643  25.366  28.693  0.0829 -0.0463 -0.5906
48566W        W91478  10.223  27.695  28.374  0.0720 -0.1321  0.1613
48567W        W91479   8.578  26.154  28.463  0.4455  0.0502 -0.0828
48568W        W91480   8.497  28.178  27.564  0.0911 -0.0980  0.0862
48569W        W91481   7.616  25.772  28.724  0.2145  0.3878  0.1349
48570W        W91482   8.606  28.279  28.994 -0.1620 -0.2084 -0.5349
48571W        W91483   9.432  27.546  30.794 -0.2835 -0.1640 -0.3279
48572W        W91484   7.638  28.528  26.940  0.1047 -0.1454  0.1804
48573W        W91485   9.418  26.372  30.176  0.0912 -0.3041  0.0860
48574W        W91486   8.528  28.565  29.391 -0.2909 -0.2185  0.0502
48575W        W91487   8.495  24.960  27.884 -0.0562  0.3092 -0.1329
48576W        W91488   9.106  24.855  29.132 -0.1455  0.1903 -0.1486
48577W        W91489  10.312  26.852  29.690 -0.1407 -0.1518 -0.2594
48578W        W91490   7.041  27.464  28.197  0.1179 -0.3217 -0.1269
48579W        W91491   8.465  25.255  28.884  0.2070  0.2127 -0.1294
48580W        W91492   8.545  27.088  28.041 -0.0195  0.3297 -0.0940
48581W        W91493   9.361  28.905  28.085 -0.2150 -0.1080 -0.1656
48582W        W91494   7.970  25.299  29.345 -0.2075 -0.0786  0.1092
48583W        W91495   9.350  25.754  30.801 -0.3930  0.0249 -0.3431
48584W        W91496   9.453  27.017  26.412 -0.1596  0.2561 -0.0023
48585W        W91497   8.478  27.384  26.963  0.0352  0.0645  0.2073
48586W        W91498   7.891  25.093  31.199 -0.1010  0.1020 -0.2359
48587W        W91499   7.923  25.131  30.296  0.0930 -0.0493  0.0498
48588W        W91500  10.420  25.396  29.161  0.1987 -0.1517 -0.0307
48589W        W91501   9.435  27.190  29.501 -0.1054 -0.0255 -0.1578
48590W        W91502   8.499  27.308  29.000  0.0690  0.1295  0.2513
48591W        W91503   9.012  30.133  28.476 -0.0422  0.2010  0.2627
48592W        W91504   9.920  26.506  31.653 -0.1898 -0.2424 -0.0386
48593W        W91505   7.515  27.852  30.026 -0.0550 -0.0296 -0.1393
48594W        W91506   7.721  27.552  30.364 -0.1560 -0.0312 -0.2917
48595W        W91507   8.909  27.572  27.617  0.1493  0.0097  0.2377
48596W        W91508  10.192  28.080  28.675  0.3051  0.0147 -0.0628
48597W        W91509   9.471  27.845  31.381 -0.1393  0.0232 -0.2224
48598W        W91510   8.517  27.972  30.232 -0.1774  0.2254  0.1058
48599W        W91511   8.537  28.774  26.863  0.1726  0.0451  0.0275
48600W        W91512   8.933  28.277  30.435 -0.0554 -0.2500 -0.3336
48601W        W91513   8.449  29.639  30.135 -0.1087 -0.3160 -0.1496
48602W        W91514   8.202  27.123  30.243  0.1554  0.3721 -0.3939
48603W        W91515   8.876  26.121  28.863  0.1846  0.0377  0.1619
48604W        W91516   7.030  28.938  26.671 -0.1613  0.0017 -0.1135
48605W        W91517   8.956  26.966  29.383  0.1518 -0.5072 -0.2777
48606W        W91518   7.513  27.332   0.461  0.0887 -0.0839 -0.0621
48607W        W91519   7.316  28.807  29.878  0.0678  0.1695 -0.0305
48608W        W91520  10.814  25.933  30.508  0.2797  0.1706  0.1274
48609W        W91521   9.156  28.937  27.612  0.2283  0.2840 -0.1837
48610W        W91522  10.608  27.559  27.137  0.0371  0.0216  0.0449
48611W        W91523   8.366  27.322  27.482  0.1514  0.0116 -0.1471
48612W        W91524  10.231  26.220  28.329  0.1735 -0.3546 -0.2478
48613W        W91525   8.896  25.617  28.963 -0.1194  0.1890 -0.0073
48614W        W91526   8.720  29.245  28.412  0.0568 -0.3367  0.0990
48615W        W91527   8.319  24.356  29.110  0.0330 -0.2916  0.0781
48616W        W91528   8.191  27.543  29.433  0.2452 -0.3173 -0.2699
48617W        W91529   8.231  26.778  27.718 -0.0927 -0.0584  0.1947
48618W        W91530  10.690  28.282  31.541 -0.1538  0.1341 -0.1969
48619W        W91531   6.756  28.317  29.208  0.0370 -0.1595  0.1882
48620W        W91532   6.752  27.071  30.599 -0.3500 -0.2281 -0.0833
48621W        W91533  10.969  30.228  28.886 -0.1304 -0.1869 -0.4096
48622W        W91534  10.397  28.437  29.701 -0.0328  0.2150  0.0373
48623W        W91535   9.836  29.407  29.328  0.1990  0.5408 -0.1154
48624W        W91536   7.463  26.411  29.582  0.0242 -0.1689 -0.1675
48625W        W91537   7.887  26.139  29.531 -0.2128 -0.0674  0.0716
48626W        W91538   7.630  24.711  30.048 -0.0457 -0.3324  0.2359
48627W        W91539   8.268  25.445  27.152  0.2349 -0.1994 -0.1542
48628W        W91540  10.437  27.580  30.935 -0.2954  0.1006 -0.1092
48629W        W91541   7.288  28.089   0.382  0.0235  0.0934 -0.0042
48630W        W91542  10.508  26.010  28.801  0.3078 -0.0848 -0.0649
48631W        W91543   7.563  25.697  29.584  0.3232  0.0985  0.1317
48632W        W91544   9.457  26.861  30.827 -0.1496 -0.2892  0.1652
48633W        W91545   9.523  27.992  26.877  0.0989  0.2087  0.1236
48634W        W91546  10.075  24.753  29.714  0.1187 -0.1805  0.3850
48635W        W91547  11.665  24.805  30.398  0.1609 -0.2498  0.1944
48636W        W91548   8.158  27.372  27.967 -0.0829  0.1565 -0.3181
48637W        W91549   8.741  27.563  29.527  0.3093 -0.0298 -0.0636
48638W        W91550  11.986  27.695  30.932 -0.1081  0.3728 -0.0171
48639W        W91551   9.521  29.612  25.997 -0.1474  0.1734  0.1212
48640W        W91552   6.556  29.147  28.218 -0.2519  0.0027 -0.1823
48641W        W91553   8.198  25.189  29.832 -0.2704  0.0391 -0.1082
48642W        W91554   8.567  27.959  31.193  0.1633  0.0392  0.0855
48643W        W91555   7.818  29.373  27.421  0.0937  0.2249 -0.1310
48644W        W91556   6.961  28.389  30.546 -0.1485  0.1916  0.0333
48645W        W91557   6.878  27.312  28.996 -0.0917  0.0505  0.4878
48646W        W91558   8.469  25.163  29.395  0.1976 -0.0182  0.4339
48647W        W91559   8.172  28.796  31.559  0.2241  0.2661  0.0324
48648W        W91560  10.626  27.100  28.187  0.0815  0.1141  0.1774
48649W        W91561   6.340  26.804  30.692 -0.0953 -0.1232  0.3547
48650W        W91562  10.739  24.448  30.298  0.0189  0.0399 -0.0833
48651W        W91563   7.491  27.040  28.985  0.0176 -0.0516  0.0180
48652W        W91564  10.562  28.995  29.795 -0.2900  0.0918  0.0110
48653W        W91565  11.210  27.710  27.877 -0.1799 -0.0280  0.2993
48654W        W91566   9.066  28.865  26.885  0.0210  0.2133  0.0578
48655W        W91567   7.850  26.268  30.033  0.0373  0.2202 -0.1309
48656W        W91568   7.069  25.662  28.984 -0.0640  0.3359  0.1196
48657W        W91569   7.324  26.874   0.353  0.0698  0.2050  0.0280
48658W        W91570   8.338  26.313  29.297 -0.2412 -0.2355 -0.0848
48659W        W91571   8.486  26.517  31.921 -0.2964  0.0046  0.1355
48660W        W91572   7.358  25.019  28.722 -0.1772 -0.1728  0.3260
48661W        W91573   9.751  26.815  29.771  0.1935  0.1651  0.1661
48662W        W91574   9.153  25.901  28.533  0.1296 -0.0897 -0.0979
48663W        W91575   5.346  26.809  28.120  0.3480  0.2075 -0.3032
48664W        W91576  10.571  25.609  29.641  0.1034  0.1570  0.0862
48665W        W91577   8.995  29.331  28.926 -0.2203  0.1351 -0.2034
48666W        W91578  10.629  28.043  31.079  0.1843 -0.0593 -0.1480
48667W        W91579  10.022  29.677  27.457 -0.1098 -0.2409  0.3074
48668W        W91580   9.016  26.488  29.239 -0.1221  0.1078 -0.1485
48669W        W91581   9.021  26.156  26.550 -0.0743 -0.0480  0.1368
48670W        W91582   7.209  27.546  30.328 -0.3864 -0.2992  0.2252
48671W        W91583   7.427  26.548  29.109  0.1719  0.1401  0.0256
48672W        W91584   6.732  26.077  28.145 -0.1203 -0.1771  0.1232
48673W        W91585  10.825  28.190  29.743  0.1628 -0.1478 -0.1201
48674W        W91586   9.220  28.461  29.359  0.1627  0.0430  0.3009
48675W        W91587   7.242  28.359  31.875 -0.0353  0.2905  0.0599
48676W        W91588  10.613  24.777  29.921  0.0859  0.0069  0.1270
48677W        W91589  10.906  26.375  30.270 -0.3006 -0.2615 -0.1971
48678W        W91590  11.640  27.831  29.533  0.0339 -0.2154 -0.0113
48679W        W91591   6.645  24.948  27.897  0.0067  0.1534 -0.1706
48680W        W91592  10.244  28.340  27.727 -0.0189 -0.1053 -0.5551
48681W        W91593   8.704  27.528  28.178 -0.0088  0.0895  0.0658
48682W        W91594   7.729  26.735  28.658 -0.0277  0.2418  0.0265
48683W        W91595   8.119  27.862  27.444  0.1846 -0.0828  0.2700
48684W        W91596   9.039  27.435  29.155 -0.1117 -0.1261  0.2848
48685W        W91597   7.578  25.464  30.466 -0.0020 -0.1167  0.1429
48686W        W91598   8.417  25.640   0.368 -0.0284 -0.4644 -0.2075
48687W        W91599   8.366  27.115  29.687  0.0077 -0.1721 -0.1494
48688W        W91600   7.996  29.311  30.473  0.0462  0.1223 -0.0868
48689W        W91601   9.319  25.460  28.210  0.2002 -0.2844  0.0889
48690W        W91602  10.152  26.927  27.873  0.0658  0.0763  0.0075
48691W        W91603   9.010  27.290  30.688  0.0266 -0.1816  0.0659
48692W        W91604   9.706  27.645  27.162 -0.2172  0.1986 -0.0334
48693W        W91605  11.265  26.337  26.834 -0.2532  0.1739  0.0729
48694W        W91606   9.913  26.317  27.141  0.1713 -0.0480  0.1213
48695W        W91607   6.977  27.863  31.286  0.2377 -0.0100  0.0651
48696W        W91608   9.484  28.682  28.949 -0.1376 -0.0845  0.0464
48697W        W91609   7.317  26.830  30.308 -0.1153 -0.1530 -0.0425
48698W        W91610   8.638  26.019  27.588 -0.0764 -0.0434  0.3462
48699W        W91611  12.216  27.520  27.791  0.0411  0.0979 -0.0479
48700W        W91612   7.789  27.380  28.644  0.2638 -0.1250 -0.1802
48701W        W91613   7.990  27.653  31.891 -0.2904  0.1204  0.4061
48702W        W91614   9.241  27.595  28.285  0.1499 -0.0129  0.1754
48703W        W91615   9.380  26.254  31.459 -0.1838  0.0659  0.1079
48704W        W91616   7.374  27.193  27.811  0.0708 -0.1244  0.0860
48705W        W91617   8.665  24.982  28.450 -0.1182  0.0365  0.1144
48706W        W91618   7.091  26.389  28.116 -0.0416 -0.2350 -0.2050
48707W        W91619   9.958  26.138  30.105 -0.0753  0.3029  0.5780
48708W        W91620  10.746  26.427  28.676 -0.1449  0.1905 -0.2777
48709W        W91621   8.798  26.152  30.730  0.1914 -0.3306 -0.0279
48710W        W91622   9.720  26.409  31.115 -0.3002  0.0083 -0.2002
48711W        W91623   8.986  28.153  27.364  0.2955 -0.1545  0.2679
48712W        W91624   9.418  27.923  30.343 -0.0694 -0.1464  0.1649
48713W        W91625   6.987  25.938  27.376  0.2930 -0.0892 -0.0367
48714W        W91626  10.667  26.000  29.993  0.0202 -0.4298 -0.0350
48715W        W91627   7.788  27.026  30.548  0.1022  0.0360 -0.1926
48716W        W91628   7.545  30.107  30.952  0.0128 -0.1220 -0.0693
48717W        W91629   9.772  28.596  31.520  0.1243  0.0095  0.2232
48718W        W91630   9.350  27.004  29.048  0.4414  0.0525  0.2708
48719W        W91631   8.245  26.329  30.796  0.0734 -0.2848 -0.0056
48720W        W91632   9.573  25.714  29.540  0.1387 -0.0487  0.0103
48721W        W91633   8.288  28.144  28.578 -0.0914  0.2371 -0.1085
48722W        W91634   9.222  27.600  29.613 -0.1163  0.1104  0.1473
48723W        W91635   9.743  24.639  29.265  0.1071 -0.0033 -0.2559
48724W        W91636   7.209  27.240  29.411 -0.4109 -0.2582  0.2310
48725W        W91637   8.414  28.364  26.476 -0.0865 -0.0821  0.2649
48726W        W91638   9.139  26.960  30.333 -0.2040 -0.0049 -0.0400
48727W        W91639   7.276  28.151  28.988 -0.0091  0.1193  0.0685
48728W        W91640   9.558  25.192  30.491  0.0439  0.1210  0.2022
48729W        W91641   6.893  29.319  28.570 -0.4240  0.1105  0.0810
48730W        W91642   7.328  27.519  28.999 -0.1659  0.0585  0.2242
48731W        W91643   6.147  27.142  28.633 -0.0235 -0.1304 -0.2761
48732W        W91644  10.477  24.890  28.895  0.0283 -0.0560  0.0796
48733W        W91645   9.197  28.390  28.247  0.2803 -0.1153  0.3339
48734W        W91646   8.612  24.850  29.816  0.1340  0.1760  0.1603
48735W        W91647   8.420  25.816  29.134 -0.0680  0.0540 -0.1088
48736W        W91648   8.295  28.552  30.699 -0.0275  0.3009 -0.0655
48737W        W91649   8.984  27.188  29.816 -0.0642  0.1675 -0.1665
48738W        W91650   9.454  26.172  28.827 -0.3697  0.1160 -0.1894
48739W        W91651   9.442  28.014  29.396  0.1956 -0.0539 -0.0637
48740W        W91652   8.898  26.530  31.571 -0.1086 -0.1315  0.2099
48741W        W91653   6.879  25.453  26.969 -0.0654 -0.3061  0.0986
48742W        W91654   9.305  25.338  29.817  0.1287 -0.1597  0.0188
48743W        W91655   8.385  26.879  29.268  0.0698  0.2033  0.1569
48744W        W91656   6.462  28.867  31.116 -0.1976  0.2573  0.1064
48745W        W91657   9.196  28.964  29.333  0.2071  0.0352 -0.1190
48746W        W91658   7.831  26.239  28.971 -0.3853  0.4109  0.1639
48747W        W91659   7.379  26.235  28.663 -0.4596  0.0413 -0.1488
48748W        W91660   8.284  25.619  29.545 -0.1093  0.0564 -0.1719
48749W        W91661  10.379  28.012  30.597 -0.3025 -0.2993  0.2389
48750W        W91662   8.215  25.719  28.620 -0.1373  0.1747 -0.0476
48751W        W91663   7.845  26.098  28.436 -0.2850  0.0575  0.0879
48752W        W91664   9.513  24.995  29.496 -0.1271 -0.1072  0.0809
48753W        W91665  10.433  27.280  29.026 -0.0299  0.1087 -0.1154
48754W        W91666   9.793  25.808  30.481 -0.0003  0.1747  0.0156
48755W        W91667   7.267  27.676   1.229 -0.0660 -0.0793 -0.3272
48756W        W91668   9.214  25.985  29.283 -0.1153  0.2109  0.0334
48757W        W91669  11.250  28.701  27.587 -0.1212 -0.0904  0.1325
48758W        W91670   8.595  27.045  30.920  0.0946 -0.1443 -0.1437
48759W        W91671   7.399  25.528  27.925  0.1693  0.2702  0.2783
48760W        W91672   5.964  28.455  30.777 -0.0607  0.2437 -0.0956
48761W        W91673   7.821  27.592  31.391  0.2213 -0.1578  0.2543
48762W        W91674   9.206  26.576  28.727  0.0434 -0.0763 -0.1826
48763W        W91675   8.504  27.714   0.584 -0.0449  0.0152  0.2940
48764W        W91676   7.830  27.988  29.484  0.1419  0.1971 -0.0229
48765W        W91677   7.667  28.451  29.340 -0.3261 -0.1910 -0.0735
48766W        W91678  11.653  24.821  28.727  0.2807 -0.3907  0.1539
48767W        W91679   8.319  27.817  28.233  0.2883 -0.4207 -0.1095
48768W        W91680   7.950  27.351  29.873  0.2355 -0.0242  0.0722
48769W        W91681  10.239  26.264  29.699 -0.0664  0.1040 -0.1177
48770W        W91682   9.242  26.870  27.657 -0.0195 -0.0942  0.0251
48771W        W91683   9.135  25.921  31.685  0.1188 -0.1693  0.1568
48772W        W91684   8.794  24.327  29.336 -0.1090 -0.3184 -0.1611
48773W        W91685  11.128  27.806  29.520 -0.0633  0.0584 -0.0514
48774W        W91686   6.593  26.399  30.667 -0.1899 -0.1056 -0.1437
48775W        W91687  11.449  28.668  31.169 -0.1430 -0.0033 -0.0989
48776W        W91688   8.100  26.595  31.274 -0.0899  0.2119 -0.1084
48777W        W91689   8.922  28.036  29.360  0.1500  0.1832  0.1830
48778W        W91690   6.546  24.473  28.606 -0.1903 -0.1384 -0.1118
48779W        W91691   8.744  27.388  30.275  0.0585  0.2296  0.0859
48780W        W91692   9.740  28.446  29.404  0.2978  0.0778 -0.1905
48781W        W91693   9.393  27.727  27.531  0.1108 -0.1639 -0.0626
48782W        W91694   9.436  26.672  29.444 -0.0636  0.0354 -0.0483
48783W        W91695   7.488  28.069  30.430  0.0433  0.0123 -0.0652
48784W        W91696   9.685  27.016  28.064 -0.0625  0.1864  0.0118
48785W        W91697   9.707  27.678  28.034  0.0123  0.3464 -0.1093
48786W        W91698   8.192  26.653  30.111  0.0539  0.1498 -0.0571
48787W        W91699   9.060  25.806  29.868  0.2406 -0.4355 -0.1599
48788W        W91700   9.948  27.131  29.428 -0.1753 -0.2100 -0.0581
48789W        W91701  10.277  24.071  28.761 -0.3543 -0.0195 -0.0469
48790W        W91702   9.569  25.609  28.932 -0.1228  0.0523  0.3220
48791W        W91703  10.170  26.480  30.975  0.2246 -0.2338  0.0582
48792W        W91704   8.007  27.437   0.406  0.1694  0.2235  0.0603
48793W        W91705   8.327  25.797  30.644  0.2995 -0.1849 -0.0009
48794W        W91706   9.547  28.945  30.233 -0.0656  0.1795 -0.0045
48795W        W91707  10.639  26.405  27.491 -0.3380 -0.0494 -0.0704
48796W        W91708  10.993  26.516  29.246 -0.0598 -0.3064 -0.1063
48797W        W91709   9.233  27.856  28.890  0.1561  0.1558  0.1658
48798W        W91710   9.380  27.366  28.725 -0.0270  0.0527  0.1333
48799W        W91711   8.256  24.729  28.596 -0.1528  0.1047  0.1655
48800W        W91712   8.996  26.875  31.118 -0.0907  0.5592  0.0045
48801W        W91713   8.301  25.863  28.091  0.0374 -0.2454  0.0099
48802W        W91714   9.850  26.297  30.609 -0.2483 -0.1713 -0.1377
48803W        W91715   7.889  30.115  27.068 -0.4761 -0.0620 -0.2529
48804W        W91716   7.517  26.677  30.968 -0.2138  0.0133 -0.0055
48805W        W91717   9.732  26.078  29.223 -0.0216 -0.4296  0.2609
48806W        W91718   6.130  27.025  29.165 -0.1459 -0.1668  0.1098
48807W        W91719   7.673  29.186  30.832 -0.1256 -0.1828 -0.2693
48808W        W91720   8.654  25.865  26.713 -0.0213 -0.1367 -0.2165
48809W        W91721   9.661  27.780  29.887  0.0031  0.0636  0.3479
48810W        W91722   9.356  26.314  30.787  0.1488 -0.1191 -0.0335
48811W        W91723   9.923  27.552  30.990 -0.1669  0.2852  0.3685
48812W        W91724   9.362  25.236  27.808  0.0397  0.2951  0.0669
48813W        W91725  12.270  26.737  31.277 -0.0427  0.0274 -0.2238
48814W        W91726   7.329  28.365  27.870 -0.2771  0.0991  0.0465
48815W        W91727  10.235  24.516  29.130  0.1371 -0.2426 -0.0692
48816W        W91728   7.725  28.298  28.721 -0.1033  0.1808  0.1567
48817W        W91729   7.789  28.255  30.837 -0.3020 -0.0571  0.0200
48818W        W91730   7.671  27.436  28.113  0.1759 -0.2131  0.0160
48819W        W91731   9.704  26.289  29.661  0.5626  0.2391 -0.3315
48820W        W91732   9.784  26.781  30.275  0.1607 -0.1082 -0.0288
48821W        W91733   8.651  26.956  30.093  0.2124 -0.3054 -0.0156
48822W        W91734   8.647  26.667  29.696  0.2688  0.0205 -0.0605
48823W        W91735   8.948  28.250  31.004  0.0462 -0.0211 -0.1796
48824W        W91736   7.394  26.394  30.578 -0.1945  0.0526  0.0403
48825W        W91737   9.465  28.041  30.907 -0.1302  0.3391  0.4660
48826W        W91738  10.882  28.654  29.948  0.0493 -0.1074 -0.0209
48827W        W91739   7.749  26.836  30.060  0.1291  0.2003 -0.1649
48828W        W91740   8.023  25.430  30.694  0.0841  0.3655  0.0990
48829W        W91741   8.886  27.923   0.108 -0.0974 -0.1908  0.0876
48830W        W91742   8.983  27.800  30.571 -0.0303  0.0970  0.0311
48831W        W91743   8.034  24.966  28.134 -0.2089 -0.2190 -0.1819
48832W        W91744   8.502  29.502  27.589 -0.1542  0.1514  0.0725
48833W        W91745   7.570  27.887  31.737  0.1156  0.0045  0.1721
48834W        W91746   7.991  25.800  29.899 -0.2323 -0.4097  0.0477
48835W        W91747   7.739  27.866  29.007  0.3670 -0.0163 -0.1033
48836W        W91748  10.272  28.770  29.396 -0.0587  0.1147 -0.0418
48837W        W91749   8.793  28.243  26.909  0.3753  0.2983 -0.3430
48838W        W91750   7.655  29.786  29.650  0.0534  0.3398 -0.0786
48839W        W91751   9.675  25.691  28.464 -0.1418 -0.1786  0.1055
48840W        W91752   7.016  27.484  30.804 -0.3200  0.4174  0.0013
48841W        W91753   7.890  29.367  27.921 -0.0071 -0.1554 -0.1683
48842W        W91754   9.547  29.241  28.915 -0.3128  0.0029  0.1226
48843W        W91755   8.297  30.041  28.892  0.3871 -0.1530  0.3353
48844W        W91756  10.921  27.825  31.368 -0.2266 -0.0645 -0.0670
48845W        W91757  11.196  25.674  27.936  0.1337 -0.0702  0.1803
48846W        W91758  10.564  27.313  29.580  0.0955 -0.1579  0.0068
48847W        W91759  11.266  24.245  27.219  0.0497  0.0220 -0.0300
48848W        W91760   9.949  27.052  31.190 -0.0321 -0.1078  0.5470
48849W        W91761   9.802  25.487  30.111 -0.1339 -0.2802 -0.0949
48850W        W91762   8.638  26.558  28.894  0.0755  0.2400  0.1723
48851W        W91763   7.947  25.842  31.191  0.1144  0.2436  0.2881
48852W        W91764   9.703  24.634  30.481 -0.2865 -0.3734  0.2001
48853W        W91765   7.887  28.835  30.557 -0.1528 -0.0927 -0.1434
48854W        W91766  10.078  28.538  28.930 -0.0514 -0.3279  0.2411
48855W        W91767   7.738  24.531  27.990  0.0101 -0.1023  0.0969
48856W        W91768   8.899  26.980  28.806  0.3089  0.0809  0.0643
48857W        W91769  10.793  25.050  30.404 -0.1508  0.0059  0.0937
48858W        W91770   8.638  27.823  27.260  0.1569  0.2518 -0.0938
48859W        W91771   8.853  27.459  28.670 -0.0714 -0.0887  0.2229
48860W        W91772   7.979  27.887  29.920 -0.1238  0.3175  0.1081
48861W        W91773   8.015  28.461  30.224  0.0015  0.1513  0.2284
48862W        W91774   8.453  28.879  28.670  0.2397  0.3597  0.0756
48863W        W91775   5.773  25.629  27.718 -0.0524 -0.2587 -0.0583
48864W        W91776   9.525  26.736  28.449 -0.1779  0.2635  0.0085
48865W        W91777   9.658  27.271  29.971 -0.2071 -0.1075 -0.2439
48866W        W91778  11.128  25.288  28.755  0.0091 -0.0306  0.0053
48867W        W91779   6.926  26.356  28.856 -0.0285 -0.2222  0.0593
48868W        W91780  11.194  27.602  27.399 -0.1524  0.2123 -0.4680
48869W        W91781   8.654  25.909  31.939 -0.1936  0.2342  0.1795
48870W        W91782   7.333  26.036  29.175  0.2158 -0.0389  0.1587
48871W        W91783   8.824  27.113  27.675  0.1271  0.1076 -0.1254
48872W        W91784  10.396  27.563  30.233  0.0517 -0.1736  0.0151
48873W        W91785   8.044  28.858  27.173 -0.1189 -0.0574  0.2702
48874W        W91786  10.393  27.097   0.851  0.0381 -0.0849 -0.1528
48875W        W91787   8.214  26.894  28.767 -0.2058 -0.0954 -0.0074
48876W        W91788   8.847  25.907  28.064  0.3088  0.2240 -0.2850
48877W        W91789   6.204  27.374  29.559 -0.0046 -0.0459  0.0543
48878W        W91790   8.548  28.509  30.246  0.0849  0.0022 -0.0257
48879W        W91791  10.851  29.106  31.509  0.2305  0.0507  0.1344
48880W        W91792   7.379  24.524  29.252 -0.0729 -0.2422 -0.1275
48881W        W91793  10.996  28.072  26.871  0.1139 -0.0412  0.3851
48882W        W91794  10.469  26.679  29.237  0.0790 -0.3143  0.1606
48883W        W91795   9.118  29.999  27.827 -0.1745 -0.1296  0.0715
48884W        W91796  10.629  27.803  29.424  0.1403 -0.1194 -0.0369
48885W        W91797  10.031  29.144  28.769 -0.2693  0.2377  0.0037
48886W        W91798   6.337  24.760  30.675 -0.0700 -0.1857 -0.0397
48887W        W91799   8.927  27.984  28.424  0.1039 -0.3332  0.3583
48888W        W91800   9.513  28.250  29.789  0.1812 -0.0624 -0.0600
48889W        W91801  10.569  23.924  28.380 -0.3061 -0.3203 -0.1979
48890W        W91802   8.426  26.714  30.510  0.0031  0.0027  0.1032
48891W        W91803   5.876  28.343  29.638 -0.3955  0.0781 -0.1012
48892W        W91804  11.982  26.861  29.307  0.0228 -0.4300 -0.0101
48893W        W91805   9.870  27.566  31.601  0.2215  0.2616 -0.3365
48894W        W91806   7.931  30.009  27.922  0.1436  0.1678 -0.0037
48895W        W91807   9.881  25.542  31.384 -0.2067  0.2538  0.1795
48896W        W91808   8.565  29.388  31.976 -0.1068  0.0827  0.3428
48897W        W91809   8.078  28.051  30.492 -0.3513 -0.2126  0.2411
48898W        W91810   6.204  26.919  28.204 -0.0222 -0.3651 -0.0647
48899W        W91811   7.885  26.467  30.479  0.1069  0.2132 -0.1811
48900W        W91812   7.197  27.234  28.613  0.0130 -0.2205  0.1671
48901W        W91813   8.602  28.753  27.762  0.0343 -0.3137  0.0160
48902W        W91814  10.294  28.119  29.196  0.1856  0.1348 -0.2158
48903W        W91815   9.941  25.928  28.779  0.1735 -0.4125 -0.0394
48904W        W91816  10.439  26.567  30.104  0.1956  0.0203 -0.1053
48905W        W91817   7.804  25.564  27.580  0.0247  0.0242  0.1271
48906W        W91818  11.580  25.424  28.465 -0.1069 -0.2383  0.1850
48907W        W91819  11.111  24.324  29.018 -0.1355 -0.0664  0.1532
48908W        W91820   8.199  27.594  30.511  0.1771 -0.0983  0.1467
48909W        W91821   6.987  26.983  28.146 -0.0598 -0.2715  0.2126
48910W        W91822   7.455  27.241  29.997  0.6007  0.3350 -0.1656
48911W        W91823   7.116  28.012  30.768  0.0432 -0.0481 -0.1300
48912W        W91824  10.955  25.035  31.415 -0.2889  0.3870 -0.0738
48913W        W91825   6.684  25.741  30.652  0.2161  0.1513 -0.0725
48914W        W91826   6.764  26.264  30.006 -0.0633 -0.0703  0.2569
48915W        W91827   7.170  26.680  28.585 -0.0252  0.1969  0.0642
48916W        W91828   9.879  28.171  30.233 -0.2565 -0.2538  0.0069
48917W        W91829   8.078  26.631  29.626 -0.0686  0.2030 -0.0461
48918W        W91830   7.565  25.382  28.990  0.4720 -0.0884 -0.1301
48919W        W91831   9.393  26.431  28.002 -0.1721 -0.2426  0.1511
48920W        W91832   9.029  28.479  27.761 -0.0225 -0.4055 -0.1371
48921W        W91833   8.381  25.309  28.224  0.2301 -0.0697  0.1652
48922W        W91834   9.719  27.947   0.423  0.1474  0.0021  0.1374
48923W        W91835   5.866  28.829  27.846  0.1515  0.1159 -0.0118
48924W        W91836   9.443  26.661  31.860  0.2094  0.1464  0.1940
48925W        W91837   8.638  26.498  31.082 -0.2205 -0.3222 -0.2377
48926W        W91838   7.564  24.950  28.283 -0.1501 -0.2271 -0.4185
48927W        W91839   9.947  26.586  29.338 -0.2420  0.0659  0.4399
48928W        W91840   9.143  28.336  28.874 -0.1709 -0.0475 -0.2976
48929W        W91841   9.339  28.415  27.074  0.1278 -0.1714 -0.4442
48930W        W91842   8.433  27.458   0.030 -0.1551 -0.1104 -0.0033
48931W        W91843   8.661  28.264  29.750 -0.0844 -0.0113 -0.0849
48932W        W91844   7.832  24.619  30.471  0.1720  0.0262 -0.1364
48933W        W91845   9.448  26.524  27.267 -0.1598 -0.1705  0.1827
48934W        W91846   8.184  27.203  31.154  0.0246  0.0231  0.1293
48935W        W91847  10.644  28.439  26.849  0.1291 -0.3125  0.1470
48936W        W91848   9.971  25.589  29.254  0.1147  0.0156  0.1402
48937W        W91849   9.302  27.318  27.860  0.2691  0.0299 -0.0136
48938W        W91850   7.424  25.330  31.097 -0.1898 -0.1001  0.0670
48939W        W91851   7.701  27.557  30.899  0.2441 -0.1404 -0.1652
48940W        W91852  10.197  27.117  30.139  0.1623 -0.2271 -0.1924
48941W        W91853   9.124  25.303  28.654  0.0847  0.0024 -0.2231
48942W        W91854  10.033  25.053  29.186  0.2719 -0.2485 -0.0046
48943W        W91855   9.003  27.965  27.934  0.0191 -0.0433  0.1638
48944W        W91856   8.397  27.544  29.927 -0.2249 -0.4539 -0.0294
48945W        W91857   7.663  27.505  29.385 -0.2412  0.3140  0.1059
48946W        W91858   9.057  27.616  31.569  0.0979 -0.1575 -0.0132
48947W        W91859   8.877  28.811  28.204  0.3194 -0.1994  0.1888
48948W        W91860   9.792  27.519   0.137 -0.1123  0.1605  0.1285
48949W        W91861   7.447  26.997  28.295 -0.2342  0.1580 -0.2722
48950W        W91862   9.542  28.040  28.494 -0.0638 -0.2442  0.1017
48951W        W91863   7.884  25.959  30.470  0.0239 -0.0104  0.0812
48952W        W91864  10.666  30.179  31.708  0.0002  0.0908 -0.1548
48953W        W91865   9.963  28.063  29.596 -0.0343  0.0600 -0.2342
48954W        W91866  10.039  27.490  28.858  0.3000 -0.1234  0.0851
48955W        W91867   7.649  24.221  30.728 -0.2860  0.1083  0.0818
48956W        W91868   7.634  26.897  29.518  0.0464 -0.0697  0.3041
48957W        W91869   8.704  27.796  28.990 -0.1438  0.0022 -0.2110
48958W        W91870   9.610  26.154  28.392  0.1446  0.0629  0.0104
48959W        W91871   8.772  26.332  30.061  0.0644  0.0031  0.2190
48960W        W91872   9.139  24.533  27.284  0.1217  0.2389  0.0241
48961W        W91873   8.984  28.833  30.218 -0.1933 -0.1563 -0.1592
48962W        W91874   8.766  28.510  28.542  0.0525  0.2665 -0.2232
48963W        W91875  10.837  25.449  31.799  0.0993 -0.0564 -0.1746
48964W        W91876   9.083  27.038  31.597 -0.2211 -0.3485 -0.0919
48965W        W91877   7.407  27.146  30.876 -0.1437 -0.1231 -0.0867
48966W        W91878   6.568  28.081  31.659 -0.0562 -0.4401 -0.1445
48967W        W91879   7.949  28.685   0.221 -0.2946 -0.1554  0.1769
48968W        W91880   7.999  27.787   0.785  0.0863  0.0061  0.2227
48969W        W91881  10.916  25.997  31.067  0.1412 -0.3145 -0.2217
48970W        W91882   9.427  27.787  31.933  0.2559  0.1337 -0.0598
48971W        W91883  10.406  25.883  30.941  0.2931 -0.4044  0.2322
48972W        W91884  11.390  30.129  31.058  0.3517 -0.0826  0.0756
48973W        W91885   8.538  27.768   1.082 -0.3949  0.1843 -0.4876
48974W        W91886   9.158  26.275  29.692  0.0210 -0.0090 -0.0352
48975W        W91887  10.941  28.633  31.246 -0.0329 -0.1021 -0.3497
48976W        W91888   8.509  26.938  31.409  0.0372 -0.2030 -0.0326
48977W        W91889   8.937  26.593  30.628 -0.1660  0.0667  0.1015
48978W        W91890   7.466  27.957  31.158  0.0271 -0.1964 -0.0866
48979W        W91891   7.567  28.001   0.821  0.1533  0.0667  0.1106
48980W        W91892  10.045  26.972   2.124  0.0290  0.1611 -0.3446
48981W        W91893   8.038  25.528   0.059 -0.1049  0.2671 -0.0397
48982W        W91894   6.441  26.074  31.110 -0.0261  0.5252 -0.0333
48983W        W91895   8.801  25.506  29.526 -0.4446  0.1236  0.0371
48984W        W91896   5.477  26.759   0.771 -0.1791 -0.1222 -0.0694
48985W        W91897  11.087  26.543  31.209  0.1045  0.2403  0.1340
48986W        W91898   9.594  25.558  31.801  0.0441  0.1005  0.0398
48987W        W91899  10.108  25.314  30.501 -0.0675  0.2602  0.1207
48988W        W91900   8.439  26.273  31.508  0.0542 -0.0590  0.2782
48989W        W91901   9.073  27.964  29.889  0.0456  0.2524  0.2183
48990W        W91902   8.289  28.698   0.656 -0.0132 -0.2481 -0.2173
48991W        W91903   8.786  27.389  31.245  0.0212  0.2273 -0.2072
48992W        W91904  10.622  29.306   0.321  0.0678  0.0571  0.0918
48993W        W91905   8.800  27.182   0.503  0.1542 -0.1558 -0.0497
48994W        W91906   7.717  26.205  30.962  0.0462 -0.3484 -0.2250
48995W        W91907   9.972  27.047   0.204  0.2179  0.0538  0.1679
48996W        W91908   9.250  24.464  30.994 -0.1835 -0.0543 -0.0071
48997W        W91909   8.766  25.554  30.406 -0.3801  0.0179  0.0851
48998W        W91910   8.905  28.405   0.990 -0.0489  0.1291 -0.0016
48999W        W91911   9.850  28.031  31.760  0.0985  0.2646 -0.0478
49000W        W91912   9.633  29.578  30.815  0.0598 -0.0359 -0.1090
49001W        W91913   9.867  27.377   1.215  0.0485  0.2000 -0.0211
49002W        W91914   9.364  28.965   0.101  0.1494  0.2275  0.1780
49003W        W91915  10.564  25.464  30.570 -0.2131 -0.0382 -0.1291
49004W        W91916   9.222  27.714   0.400  0.2584 -0.0141  0.1509
49005W        W91917   7.674  25.894  31.976  0.1555  0.1741 -0.1295
49006W        W91918   8.809  28.549  31.389 -0.1406 -0.1274 -0.4406
49007W        W91919   8.545  25.869  31.111 -0.2979  0.0130  0.0756
49008W        W91920   8.805  24.581  31.421  0.5578  0.2558  0.2391
49009W        W91921   8.299  25.737  31.565 -0.0118 -0.1499 -0.2049
49010W        W91922   9.343  28.186   0.834 -0.4770  0.2441  0.0569
49011W        W91923  10.436  27.338  31.362 -0.4151  0.1770  0.1778
49012W        W91924   6.281  28.515   0.095  0.1794 -0.1126  0.0915
49013W        W91925  10.545  29.508  31.831 -0.2665 -0.4824  0.1263
49014W        W91926  10.675  25.538  31.236  0.1999 -0.2681 -0.2540
49015W        W91927   8.390  25.992   0.807  0.0473  0.0736  0.2147
49016W        W91928   9.237  27.402  30.202 -0.0537 -0.0172 -0.0412
49017W        W91929   8.599  27.592  30.841  0.1508  0.0182 -0.5421
49018W        W91930   8.949  25.470  30.924 -0.0692  0.2268 -0.1617
49019W        W91931  11.071  28.711  31.787 -0.1472 -0.0818  0.1420
49020W        W91932   8.234  28.378  31.926 -0.0230  0.0849 -0.1139
49021W        W91933   7.700  27.793   0.326 -0.0300  0.0158  0.0993
49022W        W91934   9.315  28.196   0.212  0.0546  0.1863 -0.4563
49023W        W91935   7.007  27.260   0.458 -0.0864 -0.1976 -0.0783
49024W        W91936   6.964  26.125  30.930  0.1127 -0.4491  0.1336
49025W        W91937   5.845  27.038   0.990 -0.0727 -0.3032  0.1594
49026W        W91938   6.989  24.579  31.312  0.0785  0.0299 -0.1582
49027W        W91939   7.815  28.844  29.953  0.1440 -0.0096  0.2578
49028W        W91940  11.897  27.670  31.416  0.2012  0.0924  0.0427
49029W        W91941  11.358  28.043  30.608 -0.2045 -0.0497  0.2333
49030W        W91942   8.443  32.494  19.607  0.1406 -0.2173 -0.1048
49031W        W91943   8.021  30.288  16.333 -0.1749  0.0976 -0.2863
49032W        W91944  10.446  29.725  16.545  0.1692 -0.0020 -0.2601
49033W        W91945  10.910  30.934  17.550 -0.2510  0.0783  0.1354
49034W        W91946   6.504  30.096  17.561  0.1096  0.0112  0.2279
49035W        W91947   8.953  32.187  16.831 -0.1727  0.2614  0.3124
49036W        W91948   8.630  30.113  19.003  0.3552  0.1108  0.0233
49037W        W91949   8.870  32.332  18.027 -0.2799 -0.0827  0.0038
49038W        W91950  11.262  32.513  18.425  0.3574 -0.1577  0.3080
49039W        W91951   9.340  31.121  17.331 -0.3073 -0.1693  0.0511
49040W        W91952   9.165  31.703  18.948  0.1326  0.1408  0.0878
49041W        W91953   8.478  33.074  18.833  0.1282 -0.0545 -0.0319
49042W        W91954   9.398  29.409  16.324  0.2715 -0.0843 -0.1520
49043W        W91955   6.591  30.768  18.068  0.3884 -0.0993  0.2735
49044W        W91956  10.027  31.339  17.520 -0.0061 -0.0433  0.0192
49045W        W91957   6.691  30.621  15.880  0.0917  0.2616  0.0346
49046W        W91958   7.727  30.374  17.727  0.0204 -0.0433 -0.0449
49047W        W91959   9.662  30.048  16.488 -0.0908 -0.0359  0.3148
49048W        W91960   9.435  33.132  18.104 -0.1865 -0.1268 -0.2365
49049W        W91961   9.142  29.771  18.078 -0.0231 -0.1136  0.0075
49050W        W91962  10.912  29.238  18.453 -0.2091 -0.0931 -0.0216
49051W        W91963   8.484  31.788  15.765 -0.0213 -0.1580  0.4070
49052W        W91964   8.081  30.838  17.006  0.3057  0.0292 -0.0137
49053W        W91965   8.561  30.989  19.142 -0.1888  0.0555  0.2803
49054W        W91966   9.239  30.897  20.183  0.1777  0.1224  0.1242
49055W        W91967   9.741  30.014  18.799 -0.1046 -0.1304 -0.0914
49056W        W91968  10.234  30.392  16.605  0.3450  0.1179 -0.0751
49057W        W91969   9.595  32.559  18.742  0.1858  0.5523 -0.0959
49058W        W91970  10.265  33.699  18.012 -0.0580  0.1562  0.2382
49059W        W91971   9.663  31.561  19.806  0.2063  0.0416  0.0602
49060W        W91972   7.361  31.158  17.600  0.0073 -0.1056  0.2705
49061W        W91973   7.175  33.667  16.689 -0.0302 -0.2482  0.2773
49062W        W91974   8.760  32.654  16.634 -0.0072 -0.1478  0.3090
49063W        W91975  10.716  31.470  16.279 -0.0363 -0.2037  0.3418
49064W        W91976   9.714  32.711  18.232  0.1210  0.5643  0.1645
49065W        W91977   8.641  33.363  20.031 -0.0819 -0.2862  0.1330
49066W        W91978   8.401  31.467  16.248  0.1685 -0.1025 -0.0565
49067W        W91979   9.606  33.324  18.895 -0.4347  0.1294 -0.0269
49068W        W91980   7.226  32.772  19.107  0.0308 -0.1795 -0.0828
49069W        W91981   9.423  30.785  19.117  0.1919 -0.1171  0.3092
49070W        W91982   8.906  29.919  17.627  0.0454  0.0340  0.0667
49071W        W91983   9.839  31.909  16.247  0.1156  0.0052  0.2848
49072W        W91984   8.971  31.736  16.612  0.1931 -0.0113 -0.2152
49073W        W91985   8.416  32.077  20.447 -0.1396 -0.4215 -0.0480
49074W        W91986   7.093  30.584  16.962 -0.0675  0.3708 -0.1769
49075W        W91987  11.066  30.533  20.345  0.2914 -0.1323  0.0446
49076W        W91988   9.440  31.897  15.884 -0.0530  0.1151 -0.0195
49077W        W91989  11.078  29.960  16.112 -0.1667  0.3304 -0.0573
49078W        W91990   8.870  30.278  15.804 -0.5188  0.3124 -0.0542
49079W        W91991  11.117  29.701  17.533 -0.4876 -0.0228 -0.1335
49080W        W91992  11.048  28.473  17.709  0.1773  0.1585  0.0910
49081W        W91993   9.514  32.021  19.130 -0.1491 -0.0069  0.2960
49082W        W91994   8.196  31.587  19.538 -0.0252  0.2614  0.0095
49083W        W91995  12.032  31.311  17.144 -0.0675  0.2340  0.0481
49084W        W91996   9.788  30.554  16.407 -0.0696  0.3095  0.0088
49085W        W91997   9.824  32.051  19.710  0.1044  0.0866 -0.1002
49086W        W91998   9.235  33.021  19.141  0.1524 -0.1916  0.2153
49087W        W91999   7.524  29.736  19.356  0.2274 -0.0238 -0.3885
49088W        W92000   9.042  32.770  17.836  0.1442 -0.2318  0.3000
49089W        W92001  11.433  34.079  18.829 -0.0499  0.6312  0.1213
49090W        W92002  10.094  32.511  16.249 -0.0554 -0.2853  0.2191
49091W        W92003   8.749  31.375  15.887  0.2008  0.3841 -0.0022
49092W        W92004   6.921  32.463  18.318 -0.3419 -0.0151 -0.1299
49093W        W92005   7.144  30.981  19.658  0.0202  0.0128 -0.1053
49094W        W92006   9.920  28.713  15.869  0.1234  0.1160 -0.2775
49095W        W92007  10.757  31.982  19.621 -0.1140  0.0815  0.4423
49096W        W92008   6.787  32.810  19.507  0.2983 -0.1526 -0.0002
49097W        W92009  13.423  29.451  17.661 -0.1022  0.2018  0.1781
49098W        W92010   8.670  32.040  18.965 -0.1162  0.1001  0.0537
49099W        W92011  12.207  31.803  17.869  0.2844 -0.1528 -0.1634
49100W        W92012  10.611  30.040  16.148 -0.4539 -0.1925 -0.2713
49101W        W92013  11.056  28.875  16.637 -0.1504 -0.1794 -0.2254
49102W        W92014  10.396  29.483  19.107  0.1118 -0.3992 -0.0182
49103W        W92015   9.413  29.703  17.596 -0.0479  0.1188  0.0335
49104W        W92016   8.740  32.176  16.044  0.1061  0.1329 -0.2171
49105W        W92017  11.093  32.754  17.952  0.1625  0.1498  0.1484
49106W        W92018  10.142  30.857  16.333  0.0725 -0.2783 -0.1524
49107W        W92019   8.585  33.020  17.765  0.2417  0.0625  0.1151
49108W        W92020   7.786  29.482  18.488  0.7129 -0.4003  0.2351
49109W        W92021  10.890  31.808  17.706  0.0882 -0.1864  0.1609
49110W        W92022   8.206  33.093  15.499  0.1528  0.1746  0.2855
49111W        W92023   7.594  30.961  17.994 -0.1886  0.1301 -0.2105
49112W        W92024   7.097  30.173  15.735  0.0270  0.1889  0.2512
49113W        W92025   8.959  30.497  16.979  0.0663  0.1639  0.0793
49114W        W92026   7.574  32.279  18.345 -0.0124  0.0345 -0.0237
49115W        W92027  11.533  29.967  17.267 -0.2028 -0.0937 -0.0147
49116W        W92028   8.223  29.742  18.827 -0.0707  0.1997  0.1593
49117W        W92029  10.709  29.348  17.509  0.1207  0.0666  0.1924
49118W        W92030   7.647  32.679  17.743  0.0557 -0.2012  0.0190
49119W        W92031  10.650  32.837  17.105  0.0822 -0.1330 -0.0464
49120W        W92032   9.420  29.866  17.031  0.0894  0.1224  0.3388
49121W        W92033  10.303  32.068  15.979  0.0826 -0.0014  0.2344
49122W        W92034   7.454  30.207  18.548 -0.1151 -0.0743 -0.0434
49123W        W92035   8.408  31.336  17.781 -0.1173  0.0703 -0.0914
49124W        W92036   8.090  30.128  19.142 -0.0519 -0.1734 -0.1719
49125W        W92037   7.523  29.637  17.688  0.3473  0.2029 -0.3314
49126W        W92038  10.535  32.096  18.919  0.0225  0.2391 -0.0870
49127W        W92039   7.957  29.773  16.455  0.0891  0.1002 -0.0897
49128W        W92040  10.755  29.299  16.696 -0.0527 -0.0639 -0.2211
49129W        W92041   8.727  31.304  17.372 -0.1238  0.2821 -0.2302
49130W        W92042   7.996  31.895  17.042 -0.1103 -0.1090  0.0243
49131W        W92043  10.846  30.158  18.526  0.0154  0.4001  0.1866
49132W        W92044   9.150  31.978  17.782 -0.5317  0.0739  0.2529
49133W        W92045   9.934  32.920  18.609  0.4280  0.0886 -0.1061
49134W        W92046  10.830  32.305  16.798  0.0091  0.0920 -0.2765
49135W        W92047   5.549  30.501  18.813 -0.0903  0.0940 -0.0142
49136W        W92048   8.639  29.390  16.734 -0.0333  0.2511 -0.4135
49137W        W92049   7.998  32.342  17.880 -0.1181 -0.0323  0.0578
49138W        W92050   8.880  30.519  19.021 -0.1195  0.2130  0.1159
49139W        W92051   8.641  28.569  15.967  0.0012  0.5109 -0.2885
49140W        W92052   9.723  33.847  19.412  0.0286 -0.2583  0.4513
49141W        W92053   9.239  30.197  17.345  0.0193 -0.0654 -0.3342
49142W        W92054   7.552  30.052  20.594 -0.1050  0.1270  0.0595
49143W        W92055  11.197  28.880  18.581  0.1838 -0.2955 -0.0730
49144W        W92056   9.282  31.485  17.641  0.4476  0.0387 -0.0672
49145W        W92057  10.623  30.928  16.188 -0.2443  0.1597  0.0505
49146W        W92058   9.626  28.170  16.622  0.1336  0.1410 -0.0398
49147W        W92059   9.453  34.230  17.379 -0.0270  0.1308  0.1086
49148W        W92060   7.585  32.929  14.913 -0.1272 -0.0027 -0.3674
49149W        W92061   8.292  31.120  17.371  0.2763  0.1251 -0.0054
49150W        W92062   8.744  32.703  17.152  0.2420  0.1907  0.1472
49151W        W92063  11.008  30.362  17.032  0.1144 -0.1673 -0.0965
49152W        W92064   6.615  31.474  18.997  0.0762  0.1618  0.0167
49153W        W92065   8.449  31.480  19.153  0.0019  0.0841  0.1736
49154W        W92066   6.945  30.159  16.250 -0.0955  0.1342  0.3105
49155W        W92067   8.308  31.288  18.724 -0.4057  0.1680 -0.0038
49156W        W92068  10.967  28.861  16.162  0.1408  0.0877  0.0784
49157W        W92069  12.262  29.620  16.514  0.2198  0.0628  0.0407
49158W        W92070   8.852  31.653  18.087  0.0682  0.1178 -0.1408
49159W        W92071  11.278  30.662  16.140 -0.1252  0.4157  0.1273
49160W        W92072   8.016  29.538  15.550  0.0719 -0.0595  0.0789
49161W        W92073  11.816  28.097  15.513 -0.2307 -0.0165  0.1900
49162W        W92074   6.690  32.013  18.154  0.2692  0.0446  0.1591
49163W        W92075   9.255  31.451  15.757 -0.0728  0.0826 -0.0567
49164W        W92076   9.162  31.056  18.825 -0.1668 -0.1680  0.0796
49165W        W92077   8.728  30.073  17.005 -0.2680  0.1118 -0.2072
49166W        W92078  10.823  32.869  16.127 -0.0099 -0.1483  0.0602
49167W        W92079   6.623  32.127  18.642 -0.2039 -0.0171 -0.1065
49168W        W92080   9.627  30.208  19.254  0.0578 -0.0821  0.0357
49169W        W92081   9.852  31.844  17.941  0.0265  0.0105  0.4142
49170W        W92082  10.004  29.397  18.103  0.0984 -0.1105 -0.1774
49171W        W92083   8.636  30.715  15.722  0.3266  0.1368 -0.0236
49172W        W92084  11.121  29.705  17.013 -0.3045  0.1788 -0.1223
49173W        W92085   8.534  33.028  16.495  0.1218  0.1485 -0.0435
49174W        W92086  10.135  29.673  17.693  0.2079  0.3575 -0.0315
49175W        W92087  10.155  29.285  17.423  0.1849  0.0525 -0.1025
49176W        W92088   9.910  28.985  19.154 -0.1044 -0.1076 -0.2261
49177W        W92089   9.534  30.594  19.633 -0.3669 -0.0158 -0.0780
49178W        W92090  10.040  31.433  16.427  0.1758  0.0536  0.1729
49179W        W92091   9.051  32.075  19.362 -0.0954 -0.0417 -0.0392
49180W        W92092   8.870  30.820  16.164 -0.1833  0.1070 -0.1312
49181W        W92093  10.156  29.955  17.268  0.0540 -0.1397  0.2184
49182W        W92094   8.183  30.641  19.581  0.2700 -0.1579  0.1375
49183W        W92095   8.213  31.851  18.822  0.0251 -0.1725  0.0361
49184W        W92096   8.884  31.894  20.241  0.0089  0.1901 -0.3098
49185W        W92097   8.931  31.164  17.832  0.2174 -0.1015  0.0059
49186W        W92098   9.065  30.865  19.450 -0.0997  0.3211 -0.3466
49187W        W92099   9.048  29.420  18.493 -0.0988 -0.3012 -0.0856
49188W        W92100   7.977  32.324  16.634  0.2406  0.1336 -0.1562
49189W        W92101   9.207  30.821  16.631  0.2598  0.0645  0.1149
49190W        W92102   8.047  29.315  18.045  0.1313  0.1919 -0.2096
49191W        W92103   7.963  31.438  20.161  0.1020  0.3047  0.1478
49192W        W92104   7.568  33.412  17.250  0.0101 -0.0703  0.2764
49193W        W92105  10.424  31.244  19.114 -0.1459  0.2376  0.0694
49194W        W92106   8.599  31.829  17.080 -0.1238  0.1277  0.2979
49195W        W92107  10.624  29.744  18.248 -0.0749 -0.0200  0.0379
49196W        W92108   8.955  32.943  18.747  0.1764 -0.0519  0.2888
49197W        W92109   9.241  30.579  15.703 -0.0320  0.2492  0.2694
49198W        W92110   7.737  29.910  16.858  0.0708  0.0092  0.2001
49199W        W92111  10.367  30.962  17.461 -0.1366 -0.0113 -0.4438
49200W        W92112  11.261  31.475  16.565  0.0266 -0.0023 -0.0386
49201W        W92113   6.910  29.721  18.163  0.0662 -0.0730  0.1440
49202W        W92114   8.613  29.746  18.474  0.3539 -0.0014  0.2007
49203W        W92115   8.312  32.769  16.833 -0.1378  0.2281 -0.0515
49204W        W92116  10.125  30.762  18.792 -0.1510 -0.0275 -0.1329
49205W        W92117  11.582  29.127  15.691 -0.3021 -0.2377  0.2138
49206W        W92118   9.561  31.241  18.418 -0.0267  0.2244 -0.0366
49207W        W92119   8.527  32.497  21.483  0.1068 -0.0014 -0.1093
49208W        W92120   7.796  30.072  15.944  0.1111 -0.2092 -0.1187
49209W        W92121   9.082  30.593  18.488  0.1533 -0.1664 -0.0028
49210W        W92122   9.027  29.632  17.199  0.0745 -0.0907  0.1364
49211W        W92123   8.577  33.682  17.431 -0.1647 -0.0500  0.2952
49212W        W92124   7.990  31.347  18.162 -0.0321 -0.2267 -0.1411
49213W        W92125   8.470  30.383  16.112 -0.3432  0.0004  0.2367
49214W        W92126   8.012  31.288  16.591  0.0881 -0.3117  0.0907
49215W        W92127   7.527  30.553  20.328  0.2096  0.3308  0.1133
49216W        W92128  10.483  31.485  18.307 -0.1595 -0.0820 -0.2627
49217W        W92129   9.429  30.662  17.546 -0.0572  0.1796 -0.0379
49218W        W92130   9.715  30.158  17.399  0.0547  0.2961 -0.0897
49219W        W92131   9.282  30.240  18.892  0.0745 -0.0057 -0.0716
49220W        W92132   9.294  31.295  16.715  0.3359  0.0811 -0.0620
49221W        W92133   9.056  29.939  18.582 -0.0858 -0.0957  0.2740
49222W        W92134   8.780  30.723  19.964 -0.1081  0.2698  0.1979
49223W        W92135   9.501  28.209  18.707  0.2449  0.1404 -0.1561
49224W        W92136   9.890  34.406  17.497  0.1057 -0.0770 -0.0761
49225W        W92137   8.245  33.179  19.731  0.2832  0.1713 -0.0008
49226W        W92138   7.800  31.299  17.181 -0.0992 -0.0562 -0.3637
49227W        W92139   7.336  30.920  18.941  0.1799  0.1262  0.2025
49228W        W92140   8.987  31.008  15.649 -0.2012 -0.2076 -0.0768
49229W        W92141  10.550  30.131  16.863 -0.0303 -0.1412  0.0095
49230W        W92142   8.152  30.915  17.906 -0.2909 -0.0911  0.0651
49231W        W92143   8.265  31.598  17.320 -0.0281 -0.1265 -0.1319
49232W        W92144   8.346  32.062  19.395 -0.0825  0.2177 -0.0478
49233W        W92145  12.564  29.058  16.770 -0.2682  0.1726  0.3612
49234W        W92146   9.332  32.091  16.383  0.1331 -0.0405  0.2827
49235W        W92147  10.323  28.559  17.230  0.2238 -0.2299  0.3224
49236W        W92148  10.815  30.318  19.233  0.1602  0.2307  0.0271
49237W        W92149  10.329  30.518  17.102  0.0428 -0.0607  0.0774
49238W        W92150   9.916  30.684  19.320 -0.0705 -0.1215 -0.0327
49239W        W92151   8.202  30.884  18.421 -0.0402 -0.2420  0.4536
49240W        W92152  10.170  31.785  17.327  0.0665 -0.0653 -0.0241
49241W        W92153   6.364  30.323  19.294  0.1759 -0.4293  0.0934
49242W        W92154   8.679  32.169  19.883  0.1109  0.0517  0.0580
49243W        W92155   7.947  31.313  19.096  0.2231 -0.2130  0.0380
49244W        W92156   9.523  30.948  18.001 -0.0643 -0.1284 -0.2047
49245W        W92157   7.870  29.435  17.432 -0.0833  0.0039 -0.1121
49246W        W92158   9.953  32.965  17.741  0.1182  0.0986 -0.2220
49247W        W92159   9.271  32.297  17.246  0.1084 -0.0299 -0.3116
49248W        W92160   9.513  31.588  16.363 -0.1904  0.0454 -0.2514
49249W        W92161   9.808  30.332  16.906 -0.2527 -0.1966  0.1508
49250W        W92162   7.485  31.502  18.979 -0.0115 -0.1569  0.0464
49251W        W92163  10.782  30.691  15.744  0.3035 -0.0286 -0.0692
49252W        W92164   9.016  31.789  16.142 -0.0313  0.0094 -0.0029
49253W        W92165   7.760  30.994  18.671 -0.1011  0.0462  0.0665
49254W        W92166   8.897  30.067  19.740 -0.0837 -0.0693 -0.0703
49255W        W92167   9.359  31.588  18.110 -0.1211  0.1606  0.0607
49256W        W92168  10.113  30.388  18.441 -0.0157  0.0575 -0.0994
49257W        W92169   8.501  30.231  18.496 -0.2791 -0.2571 -0.1966
49258W        W92170   9.867  30.316  18.026  0.2158  0.2182  0.1270
49259W        W92171   7.315  31.402  20.470  0.0922  0.1667 -0.0358
49260W        W92172   6.389  28.733  20.179 -0.1080  0.0898  0.0987
49261W        W92173  10.241  33.202  18.311 -0.1042 -0.0030  0.0302
49262W        W92174  10.104  30.032  16.281  0.1937 -0.2739  0.2202
49263W        W92175  11.124  30.879  18.439 -0.2723 -0.0709 -0.0389
49264W        W92176  11.981  30.234  16.004  0.0169  0.4296  0.3300
49265W        W92177  10.034  30.925  16.829 -0.1207  0.1724 -0.1232
49266W        W92178   9.390  30.272  17.915  0.2027 -0.2430  0.0697
49267W        W92179   9.988  31.686  19.250 -0.0373  0.1629  0.2214
49268W        W92180   9.135  28.558  16.325 -0.1753 -0.0238  0.0624
49269W        W92181  10.322  32.053  19.384 -0.2567  0.2966 -0.2043
49270W        W92182   8.340  32.475  15.949  0.4448 -0.1500  0.0666
49271W        W92183   8.956  30.832  17.412 -0.0087  0.1968  0.0425
49272W        W92184   8.901  29.781  16.682 -0.0504 -0.3244  0.0645
49273W        W92185   6.828  29.966  17.220  0.4619 -0.1146  0.2208
49274W        W92186   7.321  31.789  19.879  0.1526  0.2262  0.2560
49275W        W92187   7.048  30.883  16.154 -0.0325 -0.3972 -0.0108
49276W        W92188   8.890  30.183  16.341 -0.0673 -0.0035 -0.1518
49277W        W92189   8.472  31.363  16.787 -0.0138 -0.2645  0.1173
49278W        W92190  10.795  32.093  20.211  0.0692  0.0683  0.0561
49279W        W92191   9.638  29.689  16.023 -0.5555  0.1595  0.0617
49280W        W92192  11.222  30.893  19.223  0.0589 -0.0850  0.0859
49281W        W92193   8.226  31.987  16.159  0.3189  0.2647  0.1376
49282W        W92194  10.523  29.581  17.058  0.3720  0.0164 -0.0991
49283W        W92195   9.686  33.813  18.737 -0.0774 -0.3813  0.0529
49284W        W92196   7.512  31.502  17.946  0.1056 -0.0354 -0.2209
49285W        W92197   7.847  31.528  18.576  0.0087  0.0969  0.1699
49286W        W92198   9.943  28.825  17.514  0.1448  0.5537  0.3146
49287W        W92199  10.516  30.525  17.982  0.0917  0.0539 -0.0460
49288W        W92200   9.624  31.507  18.794 -0.0145 -0.1521  0.1104
49289W        W92201  11.862  29.486  18.927  0.2182 -0.0226  0.0328
49290W        W92202   9.346  32.231  18.153 -0.5296  0.2855  0.0597
49291W        W92203   7.689  29.913  18.126 -0.1335  0.1122 -0.1847
49292W        W92204   9.567  31.975  18.654  0.0064 -0.0879  0.0097
49293W        W92205  10.654  31.940  17.196  0.0335  0.0454  0.5146
49294W        W92206   8.655  30.906  18.649  0.0960 -0.1331  0.2796
49295W        W92207   7.537  30.556  21.884  0.1820 -0.0139  0.2827
49296W        W92208   9.817  29.720  19.280  0.3959  0.1980  0.1645
49297W        W92209   9.063  31.918  18.455 -0.2221  0.0909 -0.0175
49298W        W92210   8.437  29.964  16.450 -0.0046  0.1736 -0.0822
49299W        W92211   8.590  32.284  15.472  0.0833 -0.1524  0.1542
49300W        W92212   6.757  32.113  19.689 -0.0376 -0.0137  0.0615
49301W        W92213   5.916  30.713  20.106  0.1474 -0.1529 -0.0129
49302W        W92214   7.943  33.432  15.773 -0.0893 -0.0760  0.0846
49303W        W92215  10.783  31.522  16.944 -0.0873  0.0643 -0.2110
49304W        W92216   9.301  31.148  16.182  0.1965 -0.1731  0.0871
49305W        W92217   7.971  32.890  18.970  0.0865  0.0439 -0.2536
49306W        W92218   8.353  30.886  16.079 -0.1695 -0.2954  0.0229
49307W        W92219   6.983  31.236  18.814  0.0418  0.0512 -0.2390
49308W        W92220   6.300  31.968  16.832  0.2157  0.1088 -0.0441
49309W        W92221   9.619  31.706  17.316  0.2121 -0.0307 -0.0577
49310W        W92222   8.025  31.781  16.518  0.3862 -0.2055 -0.0782
49311W        W92223  10.331  31.940  18.467  0.2708  0.0129 -0.0303
49312W        W92224  10.615  29.063  15.490  0.2633  0.0401  0.2233
49313W        W92225  10.388  31.681  16.669  0.0865  0.0920 -0.0593
49314W        W92226  11.834  29.280  16.432  0.0362  0.1080 -0.0222
49315W        W92227  10.402  34.457  18.997  0.0487  0.2357 -0.4138
49316W        W92228   8.313  30.603  18.860 -0.0163 -0.1275 -0.4768
49317W        W92229   9.288  30.275  16.669  0.3260  0.0017  0.0494
49318W        W92230   7.582  31.861  20.315 -0.2351  0.0939 -0.1027
49319W        W92231  11.013  30.633  19.632  0.2052  0.1462 -0.1911
49320W        W92232   7.187  33.758  19.630 -0.2187  0.0670 -0.2111
49321W        W92233  10.063  32.505  15.731  0.0466  0.0986  0.1782
49322W        W92234   9.040  31.679  17.113  0.2544  0.3445 -0.0362
49323W        W92235   8.923  31.099  16.955 -0.0921 -0.2510 -0.0235
49324W        W92236  11.683  29.042  17.580  0.1002 -0.2132 -0.0894
49325W        W92237   9.332  30.585  16.227 -0.1344 -0.0964  0.0108
49326W        W92238  10.591  31.425  17.474  0.2173 -0.1066 -0.2533
49327W        W92239   8.415  32.290  16.941  0.2400 -0.0188 -0.1634
49328W        W92240   8.085  31.752  17.897 -0.0936  0.0952 -0.0870
49329W        W92241   8.907  33.224  18.186 -0.0521 -0.1823  0.0197
49330W        W92242   8.523  30.444  16.653 -0.0494  0.0519  0.0621
49331W        W92243  12.527  31.094  17.202 -0.0270  0.1480 -0.0380
49332W        W92244   8.086  29.412  20.402 -0.3282 -0.0960  0.1000
49333W        W92245  11.391  29.119  19.061 -0.0583  0.0722  0.0715
49334W        W92246   8.751  31.779  17.591  0.4338 -0.0356  0.1820
49335W        W92247  10.468  31.171  16.597  0.3332  0.1085  0.0088
49336W        W92248   8.788  32.644  19.115  0.3045  0.3172  0.0102
49337W        W92249   8.690  30.518  19.450  0.0400  0.1766 -0.0911
49338W        W92250   9.777  29.600  17.260 -0.1006  0.1675 -0.0113
49339W        W92251  11.051  31.600  19.234 -0.2176  0.2706  0.1339
49340W        W92252   9.587  32.151  17.675  0.0377 -0.0152 -0.0492
49341W        W92253  10.560  33.512  18.860  0.0140  0.1673 -0.2341
49342W        W92254   7.769  30.400  17.252 -0.2069 -0.0902 -0.1701
49343W        W92255  11.335  29.497  15.895  0.2794 -0.1020  0.0309
49344W        W92256   8.530  30.700  17.146  0.0875 -0.4122  0.0765
49345W        W92257   8.622  30.685  18.202  0.0848 -0.1120  0.1469
49346W        W92258   9.740  32.909  19.110 -0.0162 -0.4634  0.3161
49347W        W92259   8.894  31.343  16.370  0.0813 -0.2201 -0.0753
49348W        W92260  11.078  32.487  15.840 -0.2020 -0.2768 -0.0455
49349W        W92261  11.751  29.631  16.859 -0.0388 -0.0659  0.1738
49350W        W92262   9.087  32.617  15.423  0.0923 -0.1092 -0.0697
49351W        W92263  10.237  31.502  16.014 -0.0146  0.2869 -0.0711
49352W        W92264   8.464  32.026  17.961 -0.0943 -0.0948  0.0829
49353W        W92265   8.590  30.836  17.720  0.0494 -0.2363 -0.0490
49354W        W92266   9.980  32.388  17.860  0.1515 -0.0993 -0.0489
49355W        W92267  10.235  33.059  17.216  0.1131  0.0972 -0.0378
49356W        W92268   9.990  29.556  16.395 -0.1954 -0.0105  0.0818
49357W        W92269   9.040  31.141  18.283  0.0491 -0.0451 -0.1650
49358W        W92270   8.493  31.869  16.575 -0.0240  0.0926  0.0176
49359W        W92271   9.900  31.132  18.971  0.2096 -0.3252 -0.2921
49360W        W92272  10.065  29.902  18.343 -0.3492  0.0870 -0.1638
49361W        W92273   9.556  32.888  16.572 -0.1628  0.0839  0.0401
49362W        W92274  10.981  28.889  18.068 -0.1008  0.0485 -0.0462
49363W        W92275   8.783  32.492  18.598  0.3064 -0.1398 -0.0675
49364W        W92276   7.901  32.568  19.799 -0.2671 -0.0050 -0.1495
49365W        W92277   7.340  30.666  17.426  0.0804 -0.1818 -0.0501
49366W        W92278   9.344  32.526  19.288  0.0089 -0.0236 -0.4691
49367W        W92279   9.443  30.616  17.055 -0.0166  0.2043  0.0822
49368W        W92280   9.653  32.318  16.051  0.6653  0.1526  0.0032
49369W        W92281   9.961  31.947  16.764  0.0421  0.3239  0.2469
49370W        W92282   9.606  29.540  16.739  0.1117 -0.1776  0.3643
49371W        W92283  10.250  31.345  17.035 -0.1184 -0.0787  0.0566
49372W        W92284   9.870  29.011  17.053  0.0007 -0.4470  0.0548
49373W        W92285  11.843  28.760  16.107  0.1376  0.0653 -0.0385
49374W        W92286  11.927  29.483  17.355  0.4453 -0.1161 -0.0357
49375W        W92287   7.873  30.371  19.956  0.5888 -0.0724  0.2427
49376W        W92288   8.100  30.864  15.644  0.0807  0.1679 -0.0440
49377W        W92289   9.540  31.692  15.423  0.0902  0.2254  0.3452
49378W        W92290   9.485  31.359  19.338 -0.2792  0.1020  0.1189
49379W        W92291   8.839  30.393  17.587 -0.0486  0.0200 -0.0058
49380W        W92292   5.421  30.283  19.376 -0.0002  0.0739  0.0353
49381W        W92293   8.008  31.148  19.659  0.1102 -0.0664  0.1076
49382W        W92294   9.146  29.320  16.771  0.0105 -0.0764 -0.2755
49383W        W92295  10.958  32.437  17.292 -0.1321 -0.1312 -0.0986
49384W        W92296   8.930  30.206  18.150  0.2651 -0.0142  0.1253
49385W        W92297   6.531  29.681  17.849  0.1231  0.1086  0.1220
49386W        W92298  10.900  32.097  18.595 -0.2983  0.2181  0.0682
49387W        W92299  10.426  32.243  18.073 -0.0634  0.2798 -0.2556
49388W        W92300   8.571  29.168  17.190  0.3815  0.2392 -0.2690
49389W        W92301  10.939  33.122  18.487  0.1669  0.3232 -0.1717
49390W        W92302   7.654  30.461  16.698  0.4184  0.2458 -0.0585
49391W        W92303   9.820  31.000  19.810  0.1527  0.2412 -0.2633
49392W        W92304   9.233  30.401  20.031 -0.0420  0.0655  0.1827
49393W        W92305   7.314  30.139  16.957  0.1277 -0.1958  0.0632
49394W        W92306   9.460  30.136  18.383 -0.2024  0.0440 -0.2383
49395W        W92307   8.447  32.344  16.407 -0.1658 -0.1592 -0.0184
49396W        W92308   9.941  32.885  15.462  0.3239 -0.1583  0.1084
49397W        W92309   8.841  33.091  19.461 -0.0476  0.3140  0.3293
49398W        W92310   7.725  31.602  19.565  0.1573 -0.1598 -0.0965
49399W        W92311   7.354  30.138  17.425  0.0955 -0.3303  0.1644
49400W        W92312   9.848  30.873  17.304 -0.1119 -0.1412  0.0367
49401W        W92313   8.258  32.460  18.291 -0.0020 -0.1288 -0.0803
49402W        W92314  10.374  32.135  16.493  0.1665 -0.2035 -0.2968
49403W        W92315  10.664  29.855  17.781  0.0705  0.0685 -0.0941
49404W        W92316  10.127  30.443  17.545  0.0912 -0.1647  0.1380
49405W        W92317   8.867  28.836  19.306  0.1870 -0.0952 -0.1890
49406W        W92318   7.964  32.275  20.578  0.3717 -0.0805  0.3775
49407W        W92319  10.754  31.850  18.187 -0.1173 -0.1625  0.0029
49408W        W92320   8.211  30.518  17.500  0.0938  0.2314 -0.1208
49409W        W92321  11.500  28.629  16.414  0.0946 -0.0955  0.2291
49410W        W92322  10.885  31.863  16.592  0.0835  0.1846  0.1570
49411W        W92323   7.724  29.843  18.798 -0.0953 -0.1149 -0.1354
49412W        W92324   9.790  30.752  18.354  0.3603  0.0132 -0.1705
49413W        W92325   8.557  29.808  19.451 -0.0657 -0.0986  0.1671
49414W        W92326   7.649  31.617  16.233  0.0617  0.2136  0.1344
49415W        W92327  10.699  31.631  18.761 -0.1058 -0.0972  0.2006
49416W        W92328   9.674  31.007  16.477  0.1733  0.1850  0.0604
49417W        W92329  10.306  30.403  16.075 -0.1172  0.0573  0.0550
49418W        W92330  10.105  33.413  19.637 -0.0784  0.0514  0.0534
49419W        W92331  10.807  33.205  17.800  0.3954 -0.2723 -0.0843
49420W        W92332  10.686  33.499  18.237 -0.3436  0.5958 -0.0555
49421W        W92333   9.796  31.485  16.852 -0.3453 -0.1272  0.0398
49422W        W92334   7.629  29.416  16.970 -0.0906  0.2461  0.1396
49423W        W92335   7.911  31.768  15.847 -0.2897  0.2891 -0.2089
49424W        W92336   9.032  30.644  17.991  0.0147 -0.1248 -0.0456
49425W        W92337  11.605  29.561  17.696  0.3711  0.0149 -0.2416
49426W        W92338  10.771  29.974  17.261  0.1689 -0.1217  0.1101
49427W        W92339  10.003  29.887  16.766  0.3105  0.0705 -0.2005
49428W        W92340   7.411  32.005  19.361  0.0587 -0.4586  0.4514
49429W        W92341  10.181  31.588  18.799 -0.0812 -0.1897  0.0444
49430W        W92342   9.377  33.587  20.844 -0.1598 -0.4840  0.0173
49431W        W92343   8.305  30.675  20.017  0.1767 -0.0119 -0.1961
49432W        W92344  10.790  31.169  19.446  0.2235 -0.1061  0.2406
49433W        W92345   8.799  31.113  20.692 -0.0523  0.0085 -0.0275
49434W        W92346   8.806  29.828  20.838 -0.0155  0.1558  0.1459
49435W        W92347   8.234  31.294  20.620  0.3458 -0.1507 -0.1226
49436W        W92348   6.755  29.998  21.255 -0.5131  0.0353  0.1441
49437W        W92349  10.690  31.604  21.727 -0.0837  0.1302 -0.1247
49438W        W92350   8.742  32.256  22.396  0.0675  0.0182  0.1318
49439W        W92351   9.356  31.147  19.748  0.0672 -0.0233 -0.1798
49440W        W92352   8.394  29.895  23.432 -0.0545  0.1438 -0.1768
49441W        W92353   8.013  32.003  21.345  0.2134 -0.0387 -0.1291
49442W        W92354   8.544  29.160  20.262  0.0033 -0.1396  0.1404
49443W        W92355   6.682  28.321  20.415  0.2411  0.1432 -0.1070
49444W        W92356   9.723  31.449  21.983 -0.3376 -0.0829  0.1928
49445W        W92357   5.993  31.224  20.198 -0.0123  0.0190 -0.0214
49446W        W92358   8.552  30.607  22.830  0.1215 -0.0977  0.1178
49447W        W92359   8.987  28.907  20.375  0.0869  0.1225 -0.0125
49448W        W92360   9.772  33.931  20.370  0.1363 -0.4712  0.0852
49449W        W92361   9.162  29.603  24.290  0.0444  0.1950  0.0836
49450W        W92362   9.825  30.298  23.197  0.2220 -0.0633 -0.0635
49451W        W92363   8.407  30.699  20.623 -0.0475 -0.1021 -0.2632
49452W        W92364   6.750  30.984  21.535  0.0825 -0.2058 -0.4252
49453W        W92365   5.141  31.813  21.737 -0.0473 -0.2651 -0.1592
49454W        W92366   7.817  30.006  22.208 -0.3685  0.0292  0.1097
49455W        W92367  10.922  31.304  20.827  0.0010 -0.0233 -0.0877
49456W        W92368   8.902  30.640  20.428 -0.0890 -0.0048 -0.1895
49457W        W92369  10.196  33.080  19.135  0.1551 -0.0385  0.0779
49458W        W92370   8.991  31.638  21.415  0.2268  0.0498  0.0464
49459W        W92371  10.565  30.766  21.377 -0.1835 -0.1658  0.2805
49460W        W92372   8.286  32.469  22.469 -0.3987  0.1837  0.3714
49461W        W92373   6.710  31.400  20.326  0.3781 -0.2763  0.0386
49462W        W92374   8.651  31.707  19.670  0.3855  0.0568  0.1642
49463W        W92375  10.151  32.827  21.513 -0.1505  0.0505  0.0018
49464W        W92376   9.042  32.251  22.830  0.1131  0.2611 -0.0560
49465W        W92377   8.860  32.369  23.350 -0.2949 -0.1647 -0.2398
49466W        W92378   5.758  33.422  20.721 -0.0876 -0.0139 -0.1254
49467W        W92379   9.337  32.249  21.688  0.0769 -0.0538 -0.0875
49468W        W92380   9.721  32.599  21.588  0.2788 -0.4547 -0.0164
49469W        W92381   8.547  30.917  21.782 -0.3354 -0.1129 -0.1528
49470W        W92382   7.598  31.675  21.887 -0.1955 -0.1758 -0.0718
49471W        W92383   8.420  33.864  19.879 -0.2548  0.0457  0.3811
49472W        W92384   7.857  30.775  20.753  0.4086 -0.0687 -0.1531
49473W        W92385   8.077  32.589  24.935 -0.1255  0.1246 -0.0117
49474W        W92386   7.023  31.827  20.534  0.0370 -0.1895  0.0103
49475W        W92387  11.461  30.430  22.777  0.1068 -0.0232  0.1240
49476W        W92388   7.078  33.407  20.058 -0.1847  0.0859 -0.2051
49477W        W92389  10.315  32.156  19.878 -0.1572 -0.0240 -0.1113
49478W        W92390   8.356  31.172  20.086 -0.0900 -0.2152 -0.0536
49479W        W92391  10.476  30.339  18.824  0.2677 -0.0383  0.2782
49480W        W92392   8.454  29.810  20.418 -0.1545 -0.3898 -0.2188
49481W        W92393   8.289  31.408  22.457 -0.1881 -0.4400  0.2809
49482W        W92394   9.669  31.207  22.475 -0.0426 -0.0327  0.1382
49483W        W92395  10.087  31.436  22.601  0.0348 -0.1529  0.1023
49484W        W92396   7.864  30.935  20.275 -0.1529  0.0338 -0.0754
49485W        W92397   9.377  31.339  21.596  0.1005 -0.0417 -0.1187
49486W        W92398   7.786  31.887  22.516 -0.0460  0.0224  0.1667
49487W        W92399   8.790  29.925  21.676  0.1209  0.1232 -0.1767
49488W        W92400   9.897  31.868  20.194 -0.0284 -0.2995 -0.0948
49489W        W92401  10.186  32.525  19.572  0.1484  0.1024 -0.1888
49490W        W92402   8.974  32.491  19.604 -0.0796 -0.0520 -0.1120
49491W        W92403   7.491  30.319  21.456  0.0859  0.1820 -0.1245
49492W        W92404   6.099  29.960  23.059  0.1623 -0.0472 -0.0554
49493W        W92405   8.193  30.191  23.033 -0.0825 -0.1199  0.0139
49494W        W92406   8.560  27.739  18.377  0.2496  0.2748 -0.1375
49495W        W92407  10.197  31.834  22.151  0.1310 -0.1713  0.3165
49496W        W92408   6.549  31.668  23.502 -0.2219 -0.3394  0.0573
49497W        W92409  11.345  32.132  20.669  0.0798  0.1668 -0.2369
49498W        W92410   9.973  30.865  21.623  0.2220  0.0122  0.0063
49499W        W92411  10.284  33.685  21.321 -0.0765  0.2503 -0.4021
49500W        W92412  10.890  31.416  20.292  0.0015 -0.0002  0.0033
49501W        W92413   9.572  28.034  21.406 -0.0057 -0.0366  0.0734
49502W        W92414   8.709  29.748  23.733  0.3460  0.1271 -0.0476
49503W        W92415   8.092  32.507  19.274  0.0430 -0.1939  0.0676
49504W        W92416   8.403  30.935  22.420 -0.1772  0.0220  0.0606
49505W        W92417  10.878  33.024  24.056 -0.1733  0.0964  0.1087
49506W        W92418  11.336  30.366  18.435 -0.2583  0.2395 -0.1056
49507W        W92419   6.150  31.285  22.026  0.0604 -0.0429 -0.1076
49508W        W92420   8.916  30.194  23.583  0.2219 -0.1998 -0.1175
49509W        W92421   9.559  31.624  24.090  0.1399  0.1072  0.0369
49510W        W92422   7.047  31.808  18.946  0.1099 -0.0953  0.0086
49511W        W92423   5.699  31.504  21.807  0.1062 -0.0864  0.3399
49512W        W92424   6.989  31.336  19.940  0.0683  0.1635 -0.1535
49513W        W92425   8.408  28.934  21.642 -0.0700 -0.0474 -0.2477
49514W        W92426   7.972  31.977  22.056  0.1742 -0.0340  0.0446
49515W        W92427   9.653  30.653  20.181  0.2953  0.2849  0.2214
49516W        W92428   7.154  29.001  23.523 -0.2781  0.0188  0.4976
49517W        W92429   9.880  31.036  20.531  0.0968 -0.2644 -0.2081
49518W        W92430   7.156  31.444  21.928 -0.4603 -0.1371 -0.0901
49519W        W92431  11.297  33.458  18.592  0.0143 -0.1835  0.1769
49520W        W92432  11.386  31.329  19.021  0.2201 -0.0471  0.0228
49521W        W92433  10.465  32.931  18.648 -0.1568 -0.0997  0.0980
49522W        W92434   6.631  31.934  21.381 -0.1678  0.0263 -0.0934
49523W        W92435   7.028  30.475  18.885 -0.1532 -0.2933  0.0409
49524W        W92436   7.869  29.235  23.066 -0.0086 -0.0329 -0.3134
49525W        W92437   7.414  29.449  21.467  0.0226  0.3037 -0.0329
49526W        W92438   9.843  30.698  22.331 -0.0246 -0.0118  0.0143
49527W        W92439   7.493  29.032  21.014 -0.2488  0.0985 -0.1317
49528W        W92440   9.558  30.004  21.120  0.0123 -0.0406  0.1365
49529W        W92441  10.118  29.170  20.764  0.1606 -0.2777 -0.1526
49530W        W92442   7.161  32.239  20.198 -0.0501 -0.1741 -0.1543
49531W        W92443  10.089  31.187  23.121 -0.0261 -0.0297  0.1631
49532W        W92444   9.598  33.323  19.411 -0.0363 -0.3046  0.2290
49533W        W92445  10.572  32.936  23.618 -0.2701  0.0388 -0.0708
49534W        W92446  10.624  32.566  19.915  0.1788  0.1912  0.2227
49535W        W92447   8.873  30.572  23.239 -0.1253 -0.0820 -0.0001
49536W        W92448   7.881  30.823  19.126  0.2518 -0.0840  0.2661
49537W        W92449   7.543  32.744  21.415  0.2781  0.0142  0.1110
49538W        W92450   6.363  31.410  19.914  0.0283  0.0722 -0.0825
49539W        W92451   9.310  32.071  19.871 -0.0782  0.0675  0.0515
49540W        W92452  11.344  32.482  21.332  0.0104  0.0191  0.4497
49541W        W92453   8.065  29.114  22.009 -0.2438  0.1645  0.0204
49542W        W92454   7.475  31.868  24.318  0.1980  0.0080 -0.0711
49543W        W92455   9.534  29.351  21.881 -0.0257 -0.1078 -0.0823
49544W        W92456   9.643  32.180  21.161 -0.0904  0.0248  0.0504
49545W        W92457   8.966  28.447  21.260  0.1060 -0.0210 -0.2333
49546W        W92458   8.260  30.186  19.729 -0.0259  0.2009  0.2132
49547W        W92459   9.962  34.249  21.989  0.0163  0.2336 -0.2851
49548W        W92460   7.446  32.690  19.541 -0.2640  0.1963 -0.1156
49549W        W92461   6.304  32.668  22.017  0.0833  0.2051 -0.3673
49550W        W92462   9.405  33.007  21.502  0.1394  0.1067  0.1753
49551W        W92463  10.622  29.352  20.956  0.1943 -0.0786  0.2529
49552W        W92464   7.948  29.757  23.103  0.0609 -0.2383  0.0896
49553W        W92465  10.399  29.628  24.451 -0.2572 -0.0417  0.0079
49554W        W92466   6.464  30.644  19.690 -0.0624  0.2660  0.0652
49555W        W92467   8.798  31.718  21.863 -0.0481 -0.0453 -0.0451
49556W        W92468  10.068  29.426  20.199 -0.0367  0.5064 -0.1636
49557W        W92469  10.224  30.698  19.722 -0.0889  0.0022 -0.0839
49558W        W92470   9.006  31.785  22.300 -0.1993  0.0022 -0.0650
49559W        W92471   8.944  32.218  21.357  0.2966 -0.0694 -0.0318
49560W        W92472   9.525  30.206  20.373  0.4496  0.5103 -0.0086
49561W        W92473  10.426  29.819  19.494 -0.0567  0.0430  0.1320
49562W        W92474   8.374  31.934  22.339 -0.0873 -0.1142  0.1828
49563W        W92475   9.285  31.869  21.030  0.0137  0.2188 -0.2801
49564W        W92476  10.618  31.060  21.819 -0.1781 -0.3006  0.0852
49565W        W92477   8.381  29.269  21.246  0.3160 -0.1105 -0.1497
49566W        W92478  10.831  32.588  18.880 -0.3083  0.1031 -0.0066
49567W        W92479   7.857  30.625  22.983 -0.1307  0.0895 -0.2281
49568W        W92480   9.926  31.886  23.802  0.2979  0.2402  0.0047
49569W        W92481   9.249  32.813  20.523  0.3647 -0.0484  0.0185
49570W        W92482  10.144  29.928  21.946 -0.1280 -0.3059  0.1040
49571W        W92483   6.497  31.169  20.681  0.1045 -0.1305 -0.1780
49572W        W92484   9.012  28.827  20.861 -0.2430 -0.2349 -0.0643
49573W        W92485   7.906  33.657  18.084 -0.1096 -0.0228 -0.2552
49574W        W92486  10.045  31.084  22.098  0.4431 -0.2152 -0.2752
49575W        W92487   9.418  29.650  21.457 -0.1058 -0.0880 -0.0185
49576W        W92488   8.891  30.723  23.773 -0.0723  0.3048 -0.1560
49577W        W92489  10.059  29.835  24.090  0.3673 -0.0838  0.0610
49578W        W92490  10.018  30.243  19.849  0.2527 -0.0173 -0.2382
49579W        W92491   9.494  30.871  21.340 -0.1079  0.1575  0.2261
49580W        W92492   7.985  29.913  20.219 -0.3486 -0.4292  0.0501
49581W        W92493   9.484  29.841  21.914 -0.0812 -0.1122  0.0917
49582W        W92494   9.098  31.099  23.428 -0.1394  0.1465 -0.3442
49583W        W92495   8.741  32.831  23.098  0.1520 -0.0023  0.0114
49584W        W92496   9.166  31.046  24.010 -0.2317 -0.1939  0.0041
49585W        W92497   7.997  30.624  22.022  0.1248 -0.2484  0.0732
49586W        W92498   7.678  29.719  24.679 -0.1442  0.2203 -0.1234
49587W        W92499   9.237  28.432  20.454 -0.1982 -0.1250 -0.2766
49588W        W92500  10.201  33.042  19.983  0.0030  0.1959 -0.0565
49589W        W92501   8.951  31.354  19.299  0.1272  0.3283  0.1387
49590W        W92502  10.407  28.419  21.758  0.0292 -0.0382 -0.1163
49591W        W92503  10.538  33.138  21.248  0.0555  0.1118 -0.0273
49592W        W92504   8.322  32.609  20.628 -0.3148  0.1922 -0.0349
49593W        W92505   9.603  30.185  23.681  0.1320 -0.0681 -0.0006
49594W        W92506   7.908  32.916  19.466  0.0527 -0.0225  0.2403
49595W        W92507   9.745  30.479  21.153 -0.0995 -0.1724 -0.1029
49596W        W92508   7.822  32.391  21.679  0.1792 -0.1846  0.1091
49597W        W92509   6.510  30.934  20.050 -0.1862  0.0206 -0.0331
49598W        W92510   7.585  31.089  19.379 -0.0092  0.2094  0.1022
49599W        W92511   9.290  31.091  20.653 -0.2163  0.0706 -0.2121
49600W        W92512   9.187  31.674  19.602  0.1431 -0.1607  0.1551
49601W        W92513   8.456  28.438  22.936  0.1989 -0.2394  0.1158
49602W        W92514   9.338  28.714  21.560 -0.0983 -0.0747 -0.1302
49603W        W92515   7.049  31.886  21.694  0.0690  0.0560  0.2089
49604W        W92516   9.619  31.240  23.645 -0.3644  0.1716  0.3783
49605W        W92517  11.606  30.029  18.827  0.0892 -0.0979 -0.0543
49606W        W92518   9.765  31.764  22.921  0.2257  0.1671  0.1241
49607W        W92519   7.639  31.663  22.955  0.0719 -0.0518  0.0716
49608W        W92520   7.705  30.810  19.811  0.0250  0.0267  0.1361
49609W        W92521  10.060  29.589  22.877  0.1132  0.2470 -0.1986
49610W        W92522   7.061  30.463  21.789 -0.2561 -0.1472 -0.1245
49611W        W92523   8.061  32.927  20.177  0.0807  0.3010 -0.2519
49612W        W92524   9.744  32.625  22.064 -0.1537  0.2149 -0.0502
49613W        W92525   6.627  31.244  21.935 -0.2155 -0.1884  0.0690
49614W        W92526   8.442  31.088  22.911  0.1017  0.0133 -0.1847
49615W        W92527   7.049  29.594  21.156 -0.1913 -0.0758 -0.1494
49616W        W92528  10.372  30.625  21.860  0.2402  0.0976  0.0513
49617W        W92529   9.130  31.294  21.112 -0.2326  0.1241  0.4413
49618W        W92530   7.789  30.057  21.130  0.0947  0.0050 -0.1720
49619W        W92531   8.844  30.672  22.189 -0.2163  0.1514  0.0778
49620W        W92532   8.966  30.931  22.833 -0.1184 -0.0437 -0.0421
49621W        W92533   9.235  30.500  24.090  0.3183 -0.0447 -0.0963
49622W        W92534   8.489  31.874  23.674 -0.0682 -0.1746  0.1723
49623W        W92535   8.894  28.834  22.625  0.0479  0.2926  0.0220
49624W        W92536  11.148  32.779  19.855  0.4308 -0.2468  0.0833
49625W        W92537   9.280  30.761  22.397 -0.0437 -0.0903  0.1242
49626W        W92538   6.208  32.640  21.226  0.2645  0.0910  0.3119
49627W        W92539   8.757  31.843  22.708  0.0918  0.1069 -0.0184
49628W        W92540   7.704  31.166  21.179  0.1410  0.0888  0.0829
49629W        W92541  10.129  29.988  23.571  0.0757 -0.0736 -0.1069
49630W        W92542   7.408  32.073  22.174  0.0629 -0.1684  0.0461
49631W        W92543   8.232  30.981  21.046 -0.1982  0.4386  0.1390
49632W        W92544   8.116  33.539  21.974 -0.1724 -0.2301 -0.2120
49633W        W92545  12.132  29.133  21.250  0.0479 -0.2159  0.0528
49634W        W92546   7.978  32.088  19.729  0.0260 -0.1685  0.2418
49635W        W92547   9.247  29.125  21.225 -0.1311  0.0197  0.0301
49636W        W92548   9.987  30.226  22.384  0.2030  0.0947 -0.3139
49637W        W92549  10.585  31.671  19.218 -0.1384  0.0588  0.1559
49638W        W92550   9.292  30.822  24.412 -0.2227 -0.0123 -0.4145
49639W        W92551   8.121  29.571  22.258 -0.2258  0.1522  0.1253
49640W        W92552   8.597  31.533  20.356  0.0953 -0.1496 -0.1344
49641W        W92553   7.143  29.536  22.732 -0.0576 -0.0972 -0.3084
49642W        W92554  10.684  33.883  23.677  0.3140  0.0488  0.0426
49643W        W92555   7.096  30.122  23.508 -0.2347 -0.1296 -0.1180
49644W        W92556   8.958  30.100  20.487 -0.1010  0.2082 -0.2454
49645W        W92557   8.367  29.073  19.765 -0.1586 -0.0781  0.2761
49646W        W92558   8.342  31.660  22.862  0.2373  0.2251 -0.3077
49647W        W92559  10.781  31.255  22.968  0.0992  0.2325 -0.2830
49648W        W92560   8.293  29.912  21.100  0.5207 -0.1530 -0.0401
49649W        W92561  10.239  31.689  19.722 -0.1677 -0.1346  0.2296
49650W        W92562   6.843  33.269  22.518  0.0912 -0.0458 -0.1737
49651W        W92563   9.751  29.461  21.062 -0.2453  0.1529 -0.1912
49652W        W92564   8.530  30.241  20.175 -0.0689 -0.0687  0.3921
49653W        W92565   7.950  30.228  21.602  0.2673  0.0925  0.4677
49654W        W92566   8.254  28.872  22.807  0.0612  0.0248  0.0268
49655W        W92567   9.120  30.501  21.435 -0.2306 -0.0841 -0.1401
49656W        W92568   9.400  29.310  20.771  0.1059  0.0633 -0.1391
49657W        W92569   9.051  30.155  22.676  0.2228 -0.1008 -0.0570
49658W        W92570   9.268  31.792  21.860 -0.3013 -0.3195  0.0252
49659W        W92571   7.762  30.149  23.344 -0.0351 -0.0064  0.0250
49660W        W92572   6.667  30.467  24.351 -0.2035 -0.1607  0.0764
49661W        W92573   9.111  33.541  23.168  0.1732  0.1249 -0.1760
49662W        W92574   9.620  29.654  18.398  0.2515  0.0192  0.2615
49663W        W92575   9.587  30.971  21.934  0.4804  0.1068 -0.0332
49664W        W92576  10.079  32.597  20.078 -0.0705  0.2918  0.0988
49665W        W92577   7.211  30.110  20.980  0.0155  0.1856  0.0265
49666W        W92578   7.971  29.213  20.885  0.0792  0.0648 -0.3237
49667W        W92579   9.694  30.691  23.911 -0.2954 -0.1336 -0.2264
49668W        W92580   7.373  30.119  19.064  0.0315 -0.1471 -0.2646
49669W        W92581   9.485  30.131  22.316 -0.2318 -0.1098 -0.0968
49670W        W92582   8.395  32.481  18.893 -0.0857  0.1096 -0.1127
49671W        W92583   9.588  31.784  21.443  0.2813 -0.1212  0.0483
49672W        W92584   8.414  29.492  20.812  0.0256  0.0536 -0.0740
49673W        W92585   5.621  29.903  21.485 -0.0405 -0.3286 -0.0913
49674W        W92586   7.616  31.714  23.753 -0.2976  0.0889 -0.2565
49675W        W92587   6.511  30.341  18.748  0.3020 -0.0839 -0.0855
49676W        W92588   7.242  31.439  21.026 -0.0682  0.1292 -0.0712
49677W        W92589   9.602  30.591  22.797  0.0411 -0.1875 -0.0066
49678W        W92590  10.124  32.114  22.896  0.1292  0.1341  0.3112
49679W        W92591   9.047  28.345  18.976 -0.3259 -0.0386  0.1143
49680W        W92592  10.483  29.624  21.980 -0.0819 -0.2505 -0.2863
49681W        W92593   7.506  32.245  19.796  0.3674 -0.1558 -0.1110
49682W        W92594  10.058  29.396  22.013 -0.1720 -0.1553  0.0805
49683W        W92595   8.331  32.225  21.008  0.1365  0.0922  0.0413
49684W        W92596   6.424  31.464  22.405 -0.1009 -0.1626  0.1684
49685W        W92597   7.403  31.482  21.501  0.1487 -0.0784 -0.0387
49686W        W92598  10.324  29.850  22.486  0.1280 -0.0433  0.1432
49687W        W92599   8.655  31.028  21.306  0.1161  0.0579  0.0256
49688W        W92600   9.215  31.994  23.210 -0.0962 -0.1329  0.0053
49689W        W92601  10.318  30.996  22.531 -0.0004 -0.3205 -0.0356
49690W        W92602   8.566  32.406  22.882 -0.0910  0.0953  0.1624
49691W        W92603   9.252  31.374  22.219 -0.1055  0.0131  0.1062
49692W        W92604   8.546  31.552  20.930  0.1433 -0.2035 -0.4027
49693W        W92605  11.488  31.802  19.143 -0.0113 -0.0877 -0.0975
49694W        W92606   7.374  30.947  20.699  0.0289 -0.0593 -0.1522
49695W        W92607   7.871  31.100  22.798 -0.0213 -0.0109 -0.6277
49696W        W92608   9.688  29.984  22.823 -0.3734  0.1924 -0.0781
49697W        W92609   8.474  31.478  21.457 -0.0029  0.2732  0.2331
49698W        W92610   8.719  28.893  21.277 -0.3044 -0.1739 -0.0879
49699W        W92611   9.350  32.899  19.654 -0.2140 -0.0122 -0.1526
49700W        W92612   7.689  32.213  22.875  0.0800 -0.3439 -0.2453
49701W        W92613   7.461  32.014  23.385  0.0619 -0.0046 -0.3640
49702W        W92614   7.940  34.168  20.047 -0.3431  0.0237  0.0337
49703W        W92615   8.890  32.393  20.440  0.0703 -0.0590 -0.1690
49704W        W92616  10.048  31.347  20.074 -0.2742 -0.2204 -0.2783
49705W        W92617   9.037  32.686  21.685 -0.4340  0.2011 -0.0324
49706W        W92618   8.486  30.215  20.725 -0.2470 -0.3414 -0.1801
49707W        W92619   8.052  31.490  21.051  0.0487  0.0172 -0.0037
49708W        W92620   5.488  31.171  20.354 -0.3013 -0.1303 -0.1127
49709W        W92621   9.211  33.990  20.569  0.1339  0.0739  0.2606
49710W        W92622   7.639  32.686  20.774  0.3085 -0.1794 -0.3269
49711W        W92623   9.457  30.195  25.217 -0.0822  0.1615 -0.1638
49712W        W92624  10.965  29.651  19.779 -0.2716  0.0600  0.0062
49713W        W92625  11.760  31.414  20.351  0.1323 -0.0707  0.0949
49714W        W92626  10.752  30.989  20.444 -0.0757  0.0123 -0.1683
49715W        W92627   9.593  32.891  23.737 -0.0788 -0.1436  0.2559
49716W        W92628   8.310  30.086  22.009 -0.2298 -0.1567 -0.0386
49717W        W92629   8.667  31.196  19.700  0.3559  0.2526  0.0799
49718W        W92630   8.201  31.070  23.791 -0.4057 -0.1310  0.1516
49719W        W92631  10.090  30.512  22.834  0.2766 -0.2407 -0.2503
49720W        W92632   7.626  32.869  23.145  0.1928 -0.0764  0.2975
49721W        W92633  10.999  33.443  19.248  0.1665  0.0086  0.2111
49722W        W92634   9.083  29.449  21.889  0.3064 -0.2507  0.0769
49723W        W92635   8.349  30.540  21.568  0.1600 -0.1806  0.0534
49724W        W92636   9.768  28.911  22.058 -0.0125 -0.0649 -0.0059
49725W        W92637   9.189  33.467  19.647  0.1034 -0.1082 -0.0081
49726W        W92638   9.776  28.577  21.380 -0.1785  0.1700  0.1583
49727W        W92639   8.605  30.306  22.407  0.1654  0.0108  0.1300
49728W        W92640   8.480  31.987  21.539 -0.0603  0.4012  0.3967
49729W        W92641   9.884  32.668  20.631  0.1164  0.1289  0.2338
49730W        W92642   6.598  29.609  20.886 -0.0576  0.1466  0.0041
49731W        W92643  11.028  29.994  21.213  0.0513 -0.0986  0.1124
49732W        W92644   7.424  29.094  22.264  0.0028 -0.3134  0.0447
49733W        W92645   8.763  30.433  21.774  0.1381 -0.3290 -0.0212
49734W        W92646   7.809  30.715  21.396  0.3559 -0.2358 -0.1312
49735W        W92647   9.874  30.157  20.750 -0.0671  0.1698 -0.0588
49736W        W92648   8.733  32.038  20.805  0.3662 -0.1909 -0.0446
49737W        W92649   9.331  32.138  22.452 -0.0119 -0.0312 -0.2804
49738W        W92650   8.097  30.471  21.106  0.0786 -0.0995  0.0891
49739W        W92651  10.543  30.832  22.994 -0.1731  0.0607 -0.3097
49740W        W92652   8.737  29.592  19.886 -0.1693 -0.2459 -0.0464
49741W        W92653  10.079  31.664  21.646 -0.1753  0.2233  0.2099
49742W        W92654   7.984  29.750  20.749 -0.1324 -0.3082  0.0597
49743W        W92655   9.532  29.296  19.317  0.0400  0.0613  0.0871
49744W        W92656   7.538  30.503  20.992  0.2131  0.2752  0.1093
49745W        W92657   8.018  31.380  23.178 -0.0782 -0.0755  0.0504
49746W        W92658   9.896  32.462  24.217  0.0467 -0.0412  0.2818
49747W        W92659   7.739  29.527  19.837  0.0150 -0.0344  0.1399
49748W        W92660  10.112  34.000  18.965 -0.0525  0.3080 -0.1227
49749W        W92661   9.047  31.351  20.192 -0.0130  0.4174 -0.1106
49750W        W92662   7.554  33.744  19.932 -0.0424  0.1392 -0.0231
49751W        W92663   8.277  31.827  20.044 -0.2880  0.2387  0.2640
49752W        W92664   9.769  33.057  21.797  0.0783  0.0082  0.1450
49753W        W92665   7.198  29.925  21.500  0.0584 -0.0616 -0.1151
49754W        W92666   9.486  32.586  22.498 -0.1612 -0.3157 -0.2614
49755W        W92667  10.622  31.739  21.228 -0.2961  0.0700 -0.2265
49756W        W92668   8.644  28.521  20.839 -0.1332 -0.1103 -0.1595
49757W        W92669   7.328  30.082  22.036 -0.1649  0.1049  0.0578
49758W        W92670   7.581  31.775  20.848 -0.5056  0.0367  0.0732
49759W        W92671  11.316  32.173  20.132  0.0857 -0.0076  0.3759
49760W        W92672   9.205  29.751  22.381  0.1521  0.1656  0.2659
49761W        W92673  10.607  34.058  18.685  0.1372  0.3236 -0.1793
49762W        W92674   9.459  27.993  22.648 -0.2664 -0.0738 -0.1789
49763W        W92675   8.851  32.239  21.869 -0.1275  0.0653 -0.0197
49764W        W92676   7.976  31.951  23.201  0.0778  0.2155 -0.1936
49765W        W92677   7.108  30.576  20.728  0.1883  0.1433  0.0199
49766W        W92678   8.119  30.524  22.506 -0.2513  0.0796 -0.0293
49767W        W92679   8.156  31.222  22.038 -0.1048 -0.2301  0.3440
49768W        W92680   7.668  32.279  21.079  0.0132  0.2037  0.2012
49769W        W92681   9.636  31.410  20.340  0.1123 -0.3957  0.1069
49770W        W92682   8.970  29.497  20.450 -0.0995  0.2766  0.0123
49771W        W92683  10.579  32.696  22.148  0.1421 -0.0801  0.1387
49772W        W92684   7.424  32.250  20.645 -0.0931  0.0875 -0.0563
49773W        W92685  11.332  31.251  21.145  0.0166  0.3206  0.0313
49774W        W92686  10.731  30.343  21.010 -0.2634 -0.0731 -0.0302
49775W        W92687   7.988  29.790  23.685 -0.2380 -0.3194  0.1964
49776W        W92688   6.380  30.797  21.809 -0.3015  0.2952  0.0194
49777W        W92689   7.720  31.072  21.851 -0.1524  0.1201  0.2252
49778W        W92690   7.302  31.623  22.479 -0.1085  0.1286 -0.3080
49779W        W92691   9.052  29.416  23.719 -0.0994 -0.1475  0.0443
49780W        W92692   7.604  29.534  22.084 -0.1891 -0.1026 -0.0723
49781W        W92693   7.589  30.403  22.387  0.0783  0.2103  0.1830
49782W        W92694   6.190  29.288  21.029  0.1288 -0.2820  0.2872
49783W        W92695  10.341  32.402  18.600 -0.4220 -0.3338 -0.0829
49784W        W92696   8.040  28.046  21.092 -0.4192  0.0497 -0.1179
49785W        W92697   8.667  29.757  22.163  0.1362 -0.0990  0.2356
49786W        W92698   8.444  32.547  20.120 -0.3511 -0.2277  0.0226
49787W        W92699   9.762  32.041  20.668  0.1328 -0.2952  0.0139
49788W        W92700   8.170  28.357  20.701 -0.0776 -0.3092  0.0162
49789W        W92701   9.824  30.781  23.301  0.1890  0.0836  0.1577
49790W        W92702   7.277  30.940  20.159  0.0343  0.1975 -0.4541
49791W        W92703   7.419  29.868  22.493  0.0708  0.2402  0.4350
49792W        W92704   7.299  30.705  23.804 -0.0670  0.3015  0.0219
49793W        W92705   7.527  29.613  20.907 -0.3387  0.0848  0.1783
49794W        W92706   9.600  31.756  22.363  0.1560 -0.1807 -0.1892
49795W        W92707  10.272  32.949  20.869 -0.1349 -0.4552  0.3015
49796W        W92708   8.111  31.794  20.666 -0.1044  0.0215 -0.0995
49797W        W92709   8.681  31.289  22.124  0.0032 -0.1987 -0.1604
49798W        W92710   9.471  32.192  23.850  0.1095 -0.0619  0.3324
49799W        W92711   6.807  29.152  22.277 -0.0472  0.0430 -0.2100
49800W        W92712   9.047  30.766  20.993  0.2090 -0.1078  0.0427
49801W        W92713   8.894  31.477  23.033  0.1189  0.2634 -0.0331
49802W        W92714  11.096  30.025  19.003 -0.1028  0.0931 -0.2412
49803W        W92715  11.773  28.540  21.798  0.1245  0.0719  0.2605
49804W        W92716   9.033  31.018  21.788 -0.2379  0.2233  0.2171
49805W        W92717   7.145  28.322  22.807  0.0911 -0.0027 -0.0096
49806W        W92718   8.391  31.635  24.100  0.0018 -0.1004 -0.0117
49807W        W92719   8.980  32.061  23.726  0.2519 -0.1501  0.2388
49808W        W92720   8.513  28.655  20.294 -0.1516  0.0353 -0.2593
49809W        W92721  10.322  29.071  18.891  0.0390 -0.1673 -0.0313
49810W        W92722   8.705  32.904  19.903 -0.0893 -0.0353  0.2199
49811W        W92723   6.865  30.019  22.450  0.0996 -0.1204 -0.0645
49812W        W92724   7.949  30.360  20.505 -0.1118 -0.0481 -0.0719
49813W        W92725   9.756  30.395  24.370  0.0200  0.0949  0.0237
49814W        W92726   9.085  32.665  20.101  0.0760  0.4386  0.0953
49815W        W92727   9.265  30.190  23.141 -0.2106  0.4635  0.1996
49816W        W92728   6.982  31.708  19.542 -0.1349 -0.3284  0.3080
49817W        W92729   9.635  33.290  19.895  0.1072 -0.1057 -0.2883
49818W        W92730   9.357  32.508  23.494  0.3005 -0.2043  0.3067
49819W        W92731   9.965  32.523  23.181  0.1681  0.1391  0.1208
49820W        W92732   8.283  33.028  22.191  0.3887 -0.1158 -0.3481
49821W        W92733   9.317  32.010  20.417 -0.0565  0.2441  0.0482
49822W        W92734   7.370  28.761  20.628 -0.1388  0.0644 -0.0174
49823W        W92735   7.311  30.804  21.431 -0.1161 -0.1774 -0.3641
49824W        W92736   8.614  30.506  21.157  0.0882  0.3167  0.0138
49825W        W92737   9.358  30.484  21.896 -0.0202 -0.0169  0.2476
49826W        W92738   9.004  30.153  22.123 -0.3985  0.0379 -0.2728
49827W        W92739   9.336  29.810  20.206 -0.0258  0.2530  0.0196
49828W        W92740   8.456  32.867  22.665  0.1472 -0.1867 -0.0629
49829W        W92741   9.624  31.469  20.905 -0.1693 -0.0303  0.0409
49830W        W92742   8.754  33.107  26.562 -0.1509  0.0393  0.0874
49831W        W92743   6.640  30.296  25.027 -0.0029 -0.2310 -0.1321
49832W        W92744   9.079  30.592  24.802 -0.2263  0.3224 -0.2784
49833W        W92745  10.312  30.512  23.273 -0.0653  0.3972 -0.1778
49834W        W92746   7.990  29.276  25.142  0.0065 -0.0546 -0.1994
49835W        W92747   9.994  32.235  25.535 -0.0709 -0.1835  0.2159
49836W        W92748   9.101  29.967  26.472 -0.2248 -0.2313 -0.2822
49837W        W92749   8.510  31.134  24.314  0.1607 -0.4872  0.2438
49838W        W92750   9.198  33.888  27.154  0.1026 -0.0597 -0.0690
49839W        W92751   8.955  31.617  24.081  0.0247 -0.0400  0.0951
49840W        W92752   9.768  30.256  26.356 -0.1106 -0.5224  0.0041
49841W        W92753   8.716  32.268  26.294  0.0640 -0.2525  0.2727
49842W        W92754   6.538  30.819  24.949  0.1220  0.0086 -0.4229
49843W        W92755   8.366  29.135  24.796  0.1313 -0.0218  0.1268
49844W        W92756  10.024  31.132  27.007  0.4134  0.1711  0.0766
49845W        W92757   7.378  30.912  24.336  0.1142  0.2261  0.3020
49846W        W92758   8.921  30.022  26.944  0.1130  0.0936  0.0629
49847W        W92759   8.192  29.921  26.367 -0.0626  0.0035  0.0272
49848W        W92760   8.452  32.870  24.704 -0.0403  0.2631 -0.2870
49849W        W92761   8.521  29.430  25.806 -0.2493 -0.0390  0.2062
49850W        W92762   9.335  30.996  26.169 -0.1013 -0.0111 -0.2763
49851W        W92763   8.335  32.706  24.145 -0.0026  0.1734  0.1372
49852W        W92764   7.821  30.177  22.729 -0.0364  0.1249 -0.1221
49853W        W92765   7.768  29.805  25.990  0.0822 -0.0363 -0.0713
49854W        W92766   6.544  30.306  26.343  0.1244  0.1333 -0.3281
49855W        W92767  10.267  30.293  26.243  0.0817 -0.0457  0.1470
49856W        W92768  10.815  32.404  26.910 -0.0458  0.2302  0.0221
49857W        W92769   8.019  32.410  25.450 -0.1303  0.0613 -0.2299
49858W        W92770   9.482  33.858  25.846  0.0943  0.4538 -0.0880
49859W        W92771  10.469  30.867  27.754 -0.3031  0.2234 -0.2586
49860W        W92772   6.698  31.993  23.905  0.0795  0.1539 -0.0795
49861W        W92773   6.241  33.102  25.146 -0.1004  0.1443 -0.1054
49862W        W92774   7.869  33.042  24.702 -0.1846  0.0264  0.0722
49863W        W92775  10.799  31.722  26.065 -0.2550  0.2065 -0.2527
49864W        W92776   8.654  31.834  26.000  0.3286  0.2612  0.0030
49865W        W92777   8.632  32.817  27.512 -0.1503  0.3349  0.0297
49866W        W92778   7.252  31.340  22.886 -0.2278  0.2858  0.2635
49867W        W92779  10.085  32.656  26.982  0.1468 -0.1350 -0.2603
49868W        W92780   7.931  30.545  26.781 -0.2149  0.0637 -0.0485
49869W        W92781   9.099  31.514  25.964  0.0631 -0.1069  0.0825
49870W        W92782   7.575  31.391  24.204  0.3484  0.4787 -0.0392
49871W        W92783   8.907  30.589  25.299  0.1250 -0.2713 -0.0252
49872W        W92784   6.467  30.978  24.437 -0.2075 -0.0689 -0.1732
49873W        W92785   8.442  32.050  27.029 -0.2109 -0.0001 -0.0418
49874W        W92786   7.624  31.675  24.745 -0.0981 -0.2373 -0.1336
49875W        W92787  11.727  29.100  28.706  0.1532  0.2575 -0.0703
49876W        W92788   8.688  32.076  24.252  0.0751 -0.0993  0.0495
49877W        W92789   9.614  31.170  24.225 -0.0111 -0.1541 -0.1504
49878W        W92790   7.699  29.106  23.637  0.0412  0.2341 -0.0460
49879W        W92791  10.352  32.481  23.552  0.1079 -0.1249  0.0773
49880W        W92792   9.014  31.033  25.822 -0.2231  0.0039  0.3310
49881W        W92793   8.990  32.122  25.665 -0.0418 -0.1329  0.3062
49882W        W92794   9.823  29.850  25.278 -0.1896 -0.3814  0.0117
49883W        W92795   9.926  31.746  26.610  0.1405  0.0556  0.0094
49884W        W92796   8.012  31.355  24.430 -0.1093 -0.1913  0.0865
49885W        W92797  10.916  30.046  27.557  0.0522  0.3496  0.0939
49886W        W92798   7.984  32.826  25.707  0.0138 -0.0701 -0.4623
49887W        W92799   7.519  32.055  26.170 -0.0677  0.0931  0.1388
49888W        W92800  10.484  33.412  22.271  0.5336 -0.0794  0.0413
49889W        W92801  12.618  31.550  26.466  0.0226 -0.2607 -0.0447
49890W        W92802  10.058  31.718  24.344  0.1914  0.1541 -0.2591
49891W        W92803   7.421  30.467  26.286  0.3091  0.0717  0.2282
49892W        W92804   7.042  31.226  26.733 -0.0224  0.3152  0.1667
49893W        W92805   7.736  31.077  27.585 -0.2013  0.3440  0.2257
49894W        W92806   8.542  29.680  24.246  0.0231  0.2615  0.2827
49895W        W92807  12.684  32.189  27.717  0.2197  0.0332 -0.0349
49896W        W92808   5.957  31.842  26.214 -0.1653 -0.4959 -0.1736
49897W        W92809   9.866  30.894  25.263 -0.1442  0.0836  0.1136
49898W        W92810   7.192  31.603  25.152  0.1502 -0.1635 -0.0229
49899W        W92811  10.004  32.123  26.252 -0.3210 -0.0558 -0.0416
49900W        W92812  10.173  31.292  24.318 -0.3162  0.0089  0.2100
49901W        W92813  10.161  31.073  26.036  0.1203  0.2228 -0.2529
49902W        W92814  10.168  29.986  25.608 -0.2487  0.2028  0.0756
49903W        W92815   9.263  31.763  22.784  0.0620  0.1868  0.3566
49904W        W92816   7.704  30.996  23.540 -0.3022  0.2155  0.0784
49905W        W92817  11.160  31.928  28.191  0.3193  0.1758 -0.1817
49906W        W92818   8.571  31.796  25.166 -0.2744  0.0908  0.0200
49907W        W92819   6.756  31.835  26.780  0.0769  0.1868 -0.3702
49908W        W92820   7.594  30.790  25.066 -0.1683  0.3871 -0.1712
49909W        W92821   8.234  32.223  27.818  0.1439 -0.4858 -0.0365
49910W        W92822   9.267  33.647  23.985 -0.1256  0.2328  0.0156
49911W        W92823   6.714  30.779  25.904  0.2922 -0.0149  0.0838
49912W        W92824   6.382  31.620  26.092  0.0947  0.0308  0.1455
49913W        W92825   6.691  29.657  26.907  0.3523  0.0830  0.0464
49914W        W92826   8.130  31.125  26.071 -0.2637  0.0224  0.1430
49915W        W92827   9.735  29.776  23.279  0.0277  0.0076  0.1171
49916W        W92828   8.332  28.962  25.801 -0.2465 -0.0121 -0.2328
49917W        W92829  11.577  29.304  25.030 -0.0764  0.0946  0.0952
49918W        W92830   7.958  32.148  23.694 -0.0083 -0.1691  0.3582
49919W        W92831  11.384  32.762  25.759 -0.1243 -0.0071  0.0769
49920W        W92832   9.134  31.549  24.972  0.1601 -0.2029  0.0186
49921W        W92833  10.599  31.510  23.669 -0.1914 -0.1161 -0.3618
49922W        W92834   6.409  29.158  27.111 -0.2158  0.0121  0.0902
49923W        W92835   8.232  29.684  24.638 -0.0083 -0.3084  0.2232
49924W        W92836   8.273  29.802  26.850 -0.0394 -0.0360 -0.0421
49925W        W92837   7.067  30.996  25.129 -0.0801 -0.0977 -0.0668
49926W        W92838  11.695  30.180  27.379 -0.0071  0.0401 -0.2686
49927W        W92839   6.603  29.635  23.068  0.1052  0.0250 -0.2736
49928W        W92840   8.750  31.080  25.341 -0.0911 -0.0787 -0.0080
49929W        W92841   8.685  29.820  25.528  0.1522  0.1302  0.0129
49930W        W92842   6.253  30.526  25.312 -0.1978 -0.0393  0.2651
49931W        W92843   9.308  30.128  27.324  0.1895 -0.1345 -0.1226
49932W        W92844   8.814  33.181  24.596 -0.0918 -0.3836 -0.1646
49933W        W92845  10.212  32.375  28.447  0.2987  0.0691  0.0214
49934W        W92846   9.077  33.813  26.129  0.2943 -0.2072 -0.0374
49935W        W92847   7.956  31.681  27.698 -0.1990 -0.2706 -0.0357
49936W        W92848   6.869  30.910  24.088 -0.1640  0.1426  0.2275
49937W        W92849   8.099  31.693  26.781  0.2600  0.1411 -0.0214
49938W        W92850   9.101  32.266  25.126 -0.2376  0.0195  0.0312
49939W        W92851   7.613  30.564  24.598  0.2775 -0.2072  0.2159
49940W        W92852   9.291  33.291  26.902  0.2201  0.1038 -0.2654
49941W        W92853   7.260  32.019  24.877 -0.1323 -0.1373 -0.2579
49942W        W92854   7.855  30.761  26.317  0.0912 -0.1647 -0.0430
49943W        W92855  10.666  29.833  26.473  0.2948 -0.6466 -0.1024
49944W        W92856  10.909  31.236  26.012  0.0682 -0.2791  0.0621
49945W        W92857   9.190  30.171  24.530 -0.2002  0.0612  0.0057
49946W        W92858   8.474  29.238  22.334 -0.0536  0.2231 -0.1564
49947W        W92859  10.308  32.972  25.696 -0.2079  0.0806 -0.0431
49948W        W92860   6.997  32.723  24.583 -0.3489  0.0667  0.0245
49949W        W92861   6.379  31.038  23.909 -0.5044 -0.0061  0.1962
49950W        W92862   9.285  32.983  24.755  0.3215  0.2040  0.0180
49951W        W92863  10.693  31.331  25.296 -0.1818 -0.3607  0.2031
49952W        W92864   7.158  30.515  27.323 -0.1037  0.3352 -0.0387
49953W        W92865   9.618  29.841  27.620 -0.3834  0.1960  0.1198
49954W        W92866   6.473  31.069  23.377 -0.0017 -0.5598 -0.1700
49955W        W92867   7.112  32.039  26.553  0.0271  0.2621 -0.3176
49956W        W92868  10.237  30.034  25.100  0.0214  0.0882  0.1210
49957W        W92869   9.840  30.079  24.790  0.2815  0.0776  0.2506
49958W        W92870   9.278  31.494  27.351  0.3570 -0.0995  0.1717
49959W        W92871   9.979  31.418  25.612  0.1304 -0.0102  0.0974
49960W        W92872  10.793  30.872  25.119 -0.2399  0.3097  0.2747
49961W        W92873   9.307  29.684  22.947  0.4376 -0.3440 -0.0004
49962W        W92874   6.564  32.071  26.339  0.1917  0.0448 -0.0795
49963W        W92875   6.767  31.307  24.770  0.1949  0.1641  0.0629
49964W        W92876   8.365  31.836  24.661  0.2926  0.1319 -0.1095
49965W        W92877   8.568  30.601  24.738 -0.0253  0.0151 -0.0482
49966W        W92878  11.368  32.229  23.764 -0.0571  0.1943  0.0749
49967W        W92879   7.170  31.614  26.266 -0.0306  0.1305  0.1371
49968W        W92880  11.929  30.920  28.833  0.1242 -0.0750  0.0732
49969W        W92881   9.843  32.750  25.496 -0.0411 -0.1712 -0.1118
49970W        W92882   9.005  29.673  25.909 -0.1499 -0.0430 -0.1457
49971W        W92883   8.340  30.076  23.931  0.0736  0.0795  0.1515
49972W        W92884   9.996  30.835  24.316  0.2990  0.1384  0.0632
49973W        W92885   8.573  33.253  24.068 -0.1681  0.1314  0.2055
49974W        W92886  12.074  29.494  24.891  0.1295  0.1130 -0.2210
49975W        W92887   9.981  30.519  25.802  0.1351  0.0100  0.0425
49976W        W92888   7.854  29.171  26.792  0.1652 -0.1924 -0.1214
49977W        W92889  10.534  29.402  27.897  0.1003 -0.3896  0.1111
49978W        W92890   8.728  31.554  24.499 -0.2759  0.1076  0.0379
49979W        W92891   9.652  31.372  25.220 -0.1255  0.0914  0.0426
49980W        W92892   6.755  29.875  24.568 -0.3453 -0.1461 -0.0634
49981W        W92893   9.963  30.213  26.788 -0.1402 -0.1029 -0.0564
49982W        W92894   8.120  30.598  25.787 -0.1553 -0.1296  0.0245
49983W        W92895   7.901  32.658  26.619  0.0193  0.2911  0.2896
49984W        W92896   8.111  31.588  26.271 -0.0272 -0.0170  0.0487
49985W        W92897   9.314  31.863  25.363 -0.2670  0.1194 -0.1432
49986W        W92898  10.704  29.852  26.985  0.1732  0.1234 -0.0087
49987W        W92899   9.159  30.177  25.671  0.2729 -0.3502  0.1039
49988W        W92900   8.175  32.240  24.122  0.1691 -0.0163 -0.3474
49989W        W92901   9.331  30.643  23.553 -0.2832 -0.4049  0.2565
49990W        W92902   7.814  29.230  24.093  0.3578  0.1519  0.0017
49991W        W92903   9.474  32.370  25.666 -0.0407  0.0762  0.0829
49992W        W92904   8.707  31.228  23.842  0.0185  0.2171 -0.2403
49993W        W92905  11.802  31.908  25.867 -0.4659 -0.0245 -0.1540
49994W        W92906   8.813  32.852  24.237  0.3104  0.0552  0.1689
49995W        W92907  10.218  30.582  27.053 -0.0296  0.1270  0.1551
49996W        W92908   6.717  32.263  24.830 -0.2878 -0.2193  0.0172
49997W        W92909   9.213  29.802  23.457 -0.2767 -0.0314 -0.2478
49998W        W92910   7.061  31.618  24.076 -0.0967  0.4625  0.0971
49999W        W92911  10.966  29.560  24.003 -0.0315  0.1787  0.2158
50000W        W92912   9.981  31.057  24.754  0.0646 -0.3391  0.2130
50001W        W92913   8.763  30.065  26.115  0.1277  0.0017 -0.1160
50002W        W92914   9.552  30.486  24.841 -0.0171 -0.2441 -0.0340
50003W        W92915   6.748  32.345  25.644 -0.3696  0.2187 -0.2519
50004W        W92916   9.365  30.097  26.082  0.3591  0.0594  0.1437
50005W        W92917   8.824  29.545  23.196 -0.0297 -0.1834  0.0890
50006W        W92918   7.969  31.829  24.261 -0.1545  0.1799  0.0832
50007W        W92919   8.335  29.983  25.854 -0.0776  0.2044 -0.1006
50008W        W92920   8.176  30.912  23.303  0.0690 -0.2200 -0.2008
50009W        W92921  10.491  30.267  26.738 -0.1012  0.0852 -0.0024
50010W        W92922   7.793  30.444  25.415 -0.1011 -0.0048 -0.0269
50011W        W92923   6.686  31.765  24.889 -0.2005  0.0224  0.4420
50012W        W92924   8.778  32.120  24.755  0.0164  0.2891  0.1560
50013W        W92925   7.377  29.302  23.174 -0.0679 -0.0749 -0.2059
50014W        W92926   7.819  30.937  24.128 -0.2634  0.0597 -0.0951
50015W        W92927   9.082  29.453  27.009 -0.3804  0.1675 -0.0423
50016W        W92928   9.562  32.440  26.140 -0.1259  0.0564 -0.0945
50017W        W92929   7.896  30.294  26.064 -0.0225  0.1604  0.0927
50018W        W92930   6.913  29.906  25.344 -0.0931  0.0429  0.1167
50019W        W92931   7.704  30.419  27.425 -0.1678  0.1484  0.0787
50020W        W92932   9.229  31.076  25.284  0.2792 -0.0215 -0.0237
50021W        W92933   8.520  30.836  25.942 -0.2269 -0.2383 -0.0479
50022W        W92934   9.161  31.826  27.818 -0.3038 -0.2967 -0.2785
50023W        W92935   9.617  29.809  26.552 -0.1893  0.1753 -0.2264
50024W        W92936  10.648  33.445  24.156 -0.0317  0.1620  0.1345
50025W        W92937   9.898  32.656  26.453 -0.1495 -0.0754  0.0624
50026W        W92938   7.373  31.195  24.731 -0.0236 -0.2613 -0.1493
50027W        W92939   6.421  31.315  25.651  0.1330 -0.0967 -0.0110
50028W        W92940   8.605  32.361  23.833  0.3277 -0.0035 -0.1211
50029W        W92941   9.935  29.406  26.423  0.0680 -0.2885  0.1507
50030W        W92942   7.224  31.490  27.086  0.1502 -0.3278  0.2269
50031W        W92943   7.662  32.481  23.409 -0.0293 -0.1511  0.1087
50032W        W92944   7.383  32.493  26.592  0.3542 -0.2690 -0.4705
50033W        W92945   9.444  29.291  22.419  0.2105  0.2768  0.1873
50034W        W92946   9.458  31.789  23.604 -0.3482  0.2518 -0.2200
50035W        W92947   8.854  31.114  24.854 -0.1112 -0.2030  0.4082
50036W        W92948  11.235  30.316  27.256  0.2704 -0.0103 -0.0085
50037W        W92949  10.085  31.816  24.839  0.0802  0.0923 -0.1493
50038W        W92950  10.034  29.681  26.901 -0.2998 -0.1919 -0.0560
50039W        W92951   8.520  29.571  25.031  0.3830  0.1256  0.3329
50040W        W92952   8.253  31.898  25.509  0.3242 -0.0690  0.2216
50041W        W92953   6.866  30.200  28.337  0.0129  0.1049  0.0261
50042W        W92954   8.808  33.129  27.065 -0.1114 -0.0615 -0.0170
50043W        W92955   7.960  32.705  27.124  0.1680  0.0459 -0.2791
50044W        W92956   6.927  30.849  24.634  0.1432  0.3017 -0.0659
50045W        W92957   7.393  30.132  25.311 -0.2578 -0.1099  0.0802
50046W        W92958   7.631  30.713  25.898  0.1829 -0.0332  0.2252
50047W        W92959  10.558  30.946  26.299 -0.1008 -0.0549 -0.0049
50048W        W92960   9.177  32.263  24.276 -0.0882  0.0760  0.0989
50049W        W92961  11.501  32.497  26.184  0.1046  0.0437  0.0660
50050W        W92962   7.160  30.414  24.941  0.0469 -0.0690 -0.1505
50051W        W92963   9.043  32.577  23.868  0.1326 -0.2104 -0.0485
50052W        W92964   7.389  30.499  23.343  0.1233 -0.0551 -0.0256
50053W        W92965   7.725  30.029  26.541 -0.3191  0.0142 -0.3245
50054W        W92966   6.382  28.289  27.849  0.1094  0.2060  0.0852
50055W        W92967  10.740  32.616  24.833  0.2159 -0.0430 -0.1095
50056W        W92968  10.167  30.603  24.854 -0.2266  0.3288 -0.1862
50057W        W92969   8.626  29.642  27.132  0.1524 -0.2600 -0.2068
50058W        W92970   9.716  31.393  26.077 -0.2344 -0.2530  0.1470
50059W        W92971   8.809  31.340  27.376  0.1100 -0.4713  0.1663
50060W        W92972   6.450  29.446  27.764 -0.0479  0.1520 -0.1804
50061W        W92973   7.668  33.525  27.244  0.1026  0.0285  0.0034
50062W        W92974  12.320  29.845  22.373  0.1596  0.2088  0.1168
50063W        W92975  11.490  29.417  26.454 -0.1609 -0.0138 -0.2232
50064W        W92976  10.997  31.232  23.837  0.3298  0.2447  0.0344
50065W        W92977   9.721  32.123  23.335 -0.5589 -0.0735  0.1831
50066W        W92978   6.662  30.559  27.244 -0.1680  0.3069  0.1159
50067W        W92979   9.523  32.031  26.442  0.1186 -0.0758 -0.2582
50068W        W92980   8.169  30.900  24.608  0.1357  0.1611  0.1216
50069W        W92981   9.523  29.732  27.075 -0.3062 -0.2215  0.2086
50070W        W92982   8.699  33.261  23.414 -0.0736  0.1222  0.5052
50071W        W92983   9.606  32.051  24.444 -0.1675 -0.1009  0.0221
50072W        W92984   9.367  31.110  24.786  0.1753  0.4899 -0.1555
50073W        W92985   8.268  29.354  26.300 -0.1828 -0.0485 -0.1298
50074W        W92986   7.195  32.492  25.919 -0.0051 -0.2216  0.1631
50075W        W92987   7.662  30.272  24.961  0.2166 -0.1552  0.3126
50076W        W92988   8.615  30.937  23.444  0.1549  0.2850 -0.0537
50077W        W92989   8.863  31.524  25.413 -0.2742  0.2959 -0.2057
50078W        W92990  10.043  31.346  27.507 -0.1937 -0.0224 -0.2407
50079W        W92991  10.664  30.061  25.413  0.2391 -0.1432  0.1295
50080W        W92992  10.820  29.177  26.207 -0.0591 -0.3356  0.1051
50081W        W92993   7.660  32.315  24.063  0.0665  0.4014  0.1508
50082W        W92994   9.923  30.378  25.279 -0.1386 -0.0673 -0.0142
50083W        W92995   8.245  32.719  26.246 -0.0189 -0.1456  0.0895
50084W        W92996   5.177  31.691  26.606  0.2364 -0.2102  0.0048
50085W        W92997   8.396  32.363  24.570  0.1891 -0.0952  0.1844
50086W        W92998   9.163  28.525  26.070 -0.2002 -0.0791 -0.0841
50087W        W92999   9.800  30.771  26.306  0.0079  0.0288 -0.0435
50088W        W93000   8.141  30.414  24.906  0.2934 -0.2259  0.0328
50089W        W93001  10.708  30.370  27.232  0.0558  0.0049  0.2588
50090W        W93002   8.706  32.293  27.758 -0.1780 -0.1770 -0.3154
50091W        W93003   7.117  31.678  24.553 -0.0370 -0.0885 -0.1731
50092W        W93004   9.901  33.570  26.687 -0.3009  0.2197 -0.0660
50093W        W93005  10.984  31.047  25.546 -0.1129 -0.1163  0.5963
50094W        W93006   9.158  33.368  26.463  0.1036 -0.1395  0.1304
50095W        W93007   5.594  28.971  27.468  0.0528 -0.0299  0.3224
50096W        W93008   8.941  31.550  26.703  0.0775 -0.0168  0.1579
50097W        W93009  10.248  31.183  25.174  0.1094  0.0415 -0.0415
50098W        W93010   8.200  30.846  25.121 -0.2861  0.1157 -0.3056
50099W        W93011   8.721  31.929  23.247 -0.0549 -0.1032 -0.0665
50100W        W93012   7.461  31.966  28.721  0.0908 -0.0270 -0.0623
50101W        W93013   6.214  30.222  27.351  0.2516  0.3603  0.2144
50102W        W93014   6.655  31.408  24.270 -0.3213 -0.1335 -0.2373
50103W        W93015   9.846  33.336  23.320  0.1896 -0.0113  0.1462
50104W        W93016   7.784  32.390  22.381 -0.0031  0.2223 -0.2865
50105W        W93017   9.739  32.897  25.970  0.0596  0.0685 -0.0674
50106W        W93018   8.779  30.278  24.161  0.1395  0.0314 -0.1395
50107W        W93019   7.890  32.091  25.788  0.1301 -0.2422  0.0198
50108W        W93020   6.897  32.136  23.386  0.0260 -0.2740 -0.0706
50109W        W93021  10.339  33.275  23.177  0.3462  0.1102  0.0828
50110W        W93022   8.246  32.124  26.240 -0.0807  0.0659  0.2300
50111W        W93023  10.071  33.087  26.724  0.1768  0.0258  0.0282
50112W        W93024  10.691  29.249  24.303  0.1380 -0.2106 -0.2442
50113W        W93025  10.522  31.506  24.616 -0.1314  0.1517  0.1122
50114W        W93026  10.211  30.714  26.576  0.1050  0.3921 -0.2285
50115W        W93027   9.526  34.111  27.908 -0.1334  0.2647  0.0240
50116W        W93028   8.368  30.385  26.168  0.0647  0.1328 -0.2583
50117W        W93029   8.411  30.687  24.028 -0.0732 -0.0526 -0.0520
50118W        W93030   7.512  31.169  26.819  0.2867  0.1282 -0.1428
50119W        W93031  10.140  27.867  27.843 -0.1556  0.0592  0.0544
50120W        W93032   8.371  32.584  28.638  0.3598 -0.2367 -0.0490
50121W        W93033  10.432  32.440  24.513  0.0502  0.0480  0.3778
50122W        W93034   6.064  31.050  24.788 -0.0734 -0.0629 -0.1524
50123W        W93035   7.991  31.340  27.136  0.3190 -0.0897  0.0066
50124W        W93036  11.330  28.681  26.964 -0.2233 -0.2827  0.1183
50125W        W93037  10.053  31.206  23.863 -0.0463  0.1728  0.0901
50126W        W93038   8.283  30.266  25.466 -0.1245  0.0593 -0.0220
50127W        W93039   8.201  33.209  24.394 -0.1161  0.1628  0.0926
50128W        W93040   7.572  32.381  27.062 -0.2780  0.1192  0.1543
50129W        W93041   7.448  31.168  26.340  0.2402  0.2748 -0.0907
50130W        W93042   6.878  30.206  23.960 -0.0149  0.3525  0.1121
50131W        W93043   9.474  31.531  25.667  0.1584  0.1675  0.0426
50132W        W93044   6.031  30.676  27.129 -0.0457  0.0079 -0.2526
50133W        W93045  10.475  31.472  27.903  0.1613  0.0526  0.1978
50134W        W93046   8.879  32.699  26.761  0.1974  0.1746  0.0761
50135W        W93047  10.794  30.278  26.261 -0.1925  0.0873  0.2070
50136W        W93048   7.958  31.048  25.603  0.0140 -0.3556  0.0600
50137W        W93049   7.452  31.079  25.478 -0.0902 -0.1462  0.0046
50138W        W93050   8.400  30.143  24.479 -0.1155 -0.0130 -0.0615
50139W        W93051  10.093  31.927  27.711 -0.0847  0.1386 -0.0682
50140W        W93052  10.099  30.305  24.008  0.2252 -0.0132  0.0566
50141W        W93053   8.661  31.426  28.380 -0.1660 -0.2081 -0.1473
50142W        W93054   7.540  29.632  25.160  0.2059  0.0419  0.1326
50143W        W93055   7.967  30.606  23.704  0.3883 -0.2869  0.0286
50144W        W93056   5.481  30.259  25.301 -0.3779  0.0528  0.1707
50145W        W93057   8.352  30.821  26.410  0.1021 -0.2638 -0.1597
50146W        W93058   9.640  31.475  26.935 -0.1240 -0.1051  0.0382
50147W        W93059   7.953  30.469  24.213  0.1886 -0.3196  0.3122
50148W        W93060  10.497  31.129  23.996 -0.0820 -0.1840 -0.1359
50149W        W93061   9.763  30.645  26.796 -0.1061 -0.0996 -0.0387
50150W        W93062   9.202  32.627  23.005 -0.0909 -0.0993 -0.0737
50151W        W93063   9.809  30.160  27.238  0.1405 -0.0318 -0.1619
50152W        W93064  11.007  33.167  27.842  0.0178 -0.3555 -0.1696
50153W        W93065   6.264  29.892  26.102 -0.1424  0.6059  0.0773
50154W        W93066   9.686  32.388  27.849  0.4074 -0.2005 -0.0656
50155W        W93067  10.270  31.938  25.775 -0.0737 -0.3321 -0.2325
50156W        W93068  10.080  29.482  25.508  0.0807  0.0695 -0.0974
50157W        W93069   6.138  30.992  25.330 -0.4676 -0.3169 -0.1255
50158W        W93070   8.591  32.835  23.648  0.2350  0.1504  0.1904
50159W        W93071  10.875  30.617  26.607  0.2233 -0.3059  0.1304
50160W        W93072  10.621  30.459  24.734  0.0838  0.0644 -0.0855
50161W        W93073  10.336  32.043  23.351  0.2013  0.1480  0.1372
50162W        W93074  10.843  29.154  27.057 -0.0439  0.0360 -0.0835
50163W        W93075  10.353  32.242  25.048  0.1882 -0.2822  0.0713
50164W        W93076   7.814  32.464  26.105 -0.0785 -0.1315 -0.0899
50165W        W93077   7.504  29.592  23.682 -0.0210  0.0766 -0.1610
50166W        W93078   9.649  32.634  27.383 -0.0125  0.1080  0.2208
50167W        W93079   9.737  33.277  24.637 -0.0670 -0.0842 -0.1644
50168W        W93080   9.045  31.581  23.539 -0.0545 -0.1463  0.1141
50169W        W93081   9.552  31.958  24.904  0.0373 -0.0177  0.0132
50170W        W93082   7.818  29.973  25.521 -0.0085  0.0637  0.0213
50171W        W93083  12.842  32.128  25.745 -0.0299 -0.1687  0.1898
50172W        W93084   9.669  31.013  25.722  0.1657  0.0271 -0.1308
50173W        W93085  11.057  30.179  25.875 -0.0397  0.0290 -0.0117
50174W        W93086  10.919  30.538  25.499  0.0808 -0.4156 -0.1196
50175W        W93087   8.512  31.802  26.518 -0.1125  0.0317 -0.0756
50176W        W93088   6.839  29.295  24.387  0.4710 -0.2168  0.1006
50177W        W93089   7.085  31.722  23.597  0.0345  0.0813 -0.0629
50178W        W93090   7.825  32.179  24.631  0.3596 -0.0402  0.0553
50179W        W93091   9.145  30.676  26.791  0.3495 -0.1332 -0.2918
50180W        W93092   6.412  30.079  26.867  0.0370 -0.0992 -0.2905
50181W        W93093   7.171  30.894  26.005  0.2701  0.1540 -0.1202
50182W        W93094   8.435  30.454  23.410 -0.1244  0.2620 -0.0079
50183W        W93095  10.111  32.596  25.946 -0.2313  0.0209  0.1670
50184W        W93096   8.999  29.800  25.164  0.0808 -0.1903 -0.1323
50185W        W93097   7.601  28.593  23.635 -0.2506 -0.1960  0.0285
50186W        W93098  10.434  32.470  25.600  0.1612 -0.0189  0.0290
50187W        W93099  10.734  31.665  24.122  0.0148 -0.1224 -0.1868
50188W        W93100   7.904  30.130  24.576  0.1317 -0.0984  0.0551
50189W        W93101  11.479  31.482  27.756  0.2272  0.2584 -0.0340
50190W        W93102   7.321  31.295  23.787 -0.1077  0.1583 -0.3165
50191W        W93103   8.423  31.322  26.591 -0.1454  0.0497  0.2838
50192W        W93104   6.972  30.280  26.889  0.6775 -0.2650 -0.1687
50193W        W93105   7.955  29.807  24.183 -0.0858  0.2912  0.1169
50194W        W93106   8.404  31.382  24.957 -0.1174  0.1197 -0.0615
50195W        W93107   9.305  32.722  25.227  0.2120  0.0752  0.1789
50196W        W93108   9.786  34.403  22.484 -0.3193 -0.0358  0.2732
50197W        W93109   7.699  31.433  25.989  0.0118 -0.3893  0.0456
50198W        W93110   8.092  33.139  27.338  0.2418 -0.2825  0.1139
50199W        W93111   7.585  29.149  26.056  0.2406  0.0239 -0.0677
50200W        W93112   9.684  31.543  24.631  0.3238 -0.1094  0.1120
50201W        W93113   9.584  32.887  26.804  0.4537  0.0319  0.3330
50202W        W93114   9.924  32.342  24.651  0.1079 -0.2078  0.0544
50203W        W93115  11.760  30.087  25.580  0.0146 -0.1148 -0.1879
50204W        W93116   9.158  31.342  24.406  0.0049 -0.1476 -0.2796
50205W        W93117   5.656  30.227  28.271  0.2249  0.0200  0.1140
50206W        W93118   7.379  31.947  27.028  0.1197 -0.0765  0.2741
50207W        W93119  11.370  32.012  26.818 -0.0281  0.2337 -0.3315
50208W        W93120   7.343  28.759  24.007 -0.1529 -0.3388  0.1584
50209W        W93121   9.411  30.646  25.445  0.0948  0.2728  0.3424
50210W        W93122   9.544  32.892  23.248  0.0675 -0.0866  0.0938
50211W        W93123   6.397  31.107  26.760 -0.2948 -0.0010 -0.1514
50212W        W93124   9.205  30.011  23.991 -0.3210  0.5305  0.0765
50213W        W93125   8.830  31.032  26.562  0.6605 -0.0753 -0.2086
50214W        W93126   9.210  31.812  24.541  0.1711  0.0486  0.3118
50215W        W93127  11.688  31.611  27.017 -0.1745  0.4272  0.0313
50216W        W93128   8.844  30.711  24.315  0.3004  0.1487 -0.0377
50217W        W93129  10.888  30.743  23.812  0.2037  0.2630  0.0958
50218W        W93130   9.815  33.656  27.208  0.1234  0.2389  0.1537
50219W        W93131  10.988  31.764  27.716  0.0223  0.0809  0.0857
50220W        W93132   9.675  32.385  25.163 -0.0834  0.1566 -0.1777
50221W        W93133   9.925  31.285  26.484 -0.1155  0.3085 -0.0654
50222W        W93134   7.828  28.320  28.191 -0.0847  0.2794  0.1785
50223W        W93135   8.224  32.127  25.004 -0.0224  0.1702 -0.1871
50224W        W93136   8.405  33.397  26.922  0.1024  0.0774  0.3185
50225W        W93137  11.264  28.989  26.451 -0.0874  0.0351  0.1802
50226W        W93138   6.155  29.479  26.797 -0.0702  0.0035  0.0291
50227W        W93139   8.920  32.567  24.695 -0.1611 -0.0678  0.1837
50228W        W93140   9.193  32.367  26.515 -0.1749  0.1960 -0.3134
50229W        W93141   8.380  31.428  25.727  0.1196  0.0104 -0.1027
50230W        W93142   8.029  31.204  31.075 -0.0521 -0.0851  0.0016
50231W        W93143   8.042  31.318  28.037 -0.1230 -0.0346  0.2452
50232W        W93144  11.414  29.781  27.538  0.2369  0.2040  0.2250
50233W        W93145  10.283  30.012  27.170 -0.0545  0.0697 -0.2236
50234W        W93146   7.418  30.086  28.257  0.0955  0.0413 -0.2631
50235W        W93147  10.528  34.081  28.193  0.0002  0.1740 -0.0701
50236W        W93148   7.494  28.988  29.480 -0.2012  0.4059  0.0630
50237W        W93149   9.561  30.921  29.274 -0.1605  0.0858 -0.3169
50238W        W93150  10.080  31.109  29.794  0.0426 -0.0630 -0.0600
50239W        W93151  10.770  31.107  26.815 -0.5060  0.3664  0.1663
50240W        W93152   8.476  29.066  29.159  0.1617  0.1621 -0.0699
50241W        W93153   9.022  32.487  29.354 -0.0909  0.2238  0.1695
50242W        W93154   9.167  29.500  26.478  0.0979 -0.0104 -0.0017
50243W        W93155   6.965  28.783  30.992 -0.1480 -0.3502 -0.0289
50244W        W93156   9.830  30.464  31.072 -0.0923  0.1819 -0.1112
50245W        W93157   8.498  30.003  27.905  0.1952  0.1300  0.2503
50246W        W93158   9.077  30.289  31.668  0.2787 -0.3859 -0.1044
50247W        W93159   7.929  27.905  27.905  0.1322 -0.0355 -0.2103
50248W        W93160   9.763  32.464  28.756 -0.1433 -0.3342  0.1603
50249W        W93161   8.884  28.752  28.985 -0.0237  0.2189  0.0040
50250W        W93162  10.800  29.508  31.243 -0.0374  0.0132  0.0389
50251W        W93163   9.092  31.003  28.142 -0.1808  0.2788  0.2819
50252W        W93164   7.259  29.523  27.457 -0.0184  0.1585 -0.0306
50253W        W93165   6.846  31.314  28.456 -0.0749 -0.0452  0.2642
50254W        W93166   7.858  29.343  29.345 -0.0866 -0.0017 -0.0199
50255W        W93167  10.193  30.761  28.878 -0.0134 -0.0632 -0.0805
50256W        W93168   9.786  31.115  31.221  0.1394  0.1369  0.1096
50257W        W93169   9.274  32.972  29.450 -0.1601  0.3980 -0.1967
50258W        W93170  10.231  31.779  29.691 -0.1397  0.1778  0.2564
50259W        W93171  10.274  29.373  30.068 -0.2652  0.0516 -0.4673
50260W        W93172   7.373  30.762  27.683 -0.1670 -0.1241  0.2421
50261W        W93173   9.406  32.617  29.038  0.1362  0.2886 -0.0524
50262W        W93174   8.810  32.284  28.755  0.1973 -0.0560 -0.1054
50263W        W93175  10.910  31.418  28.113 -0.1470 -0.0080  0.0040
50264W        W93176  10.168  30.793  31.254  0.3984  0.0551 -0.1046
50265W        W93177   8.014  33.795  30.177 -0.0944 -0.1384  0.0029
50266W        W93178   7.907  31.997  27.240 -0.0114 -0.0760  0.1587
50267W        W93179   9.264  31.557  29.699 -0.0449  0.1690  0.1009
50268W        W93180   8.282  31.852  30.668 -0.0627  0.1634  0.3250
50269W        W93181   7.550  29.243  30.124 -0.2455  0.1452  0.0023
50270W        W93182  10.804  30.847  28.634  0.2598 -0.0781 -0.0274
50271W        W93183   8.256  32.382  27.326  0.0214  0.2618 -0.1538
50272W        W93184   9.432  31.109  28.639  0.0086 -0.1125 -0.0357
50273W        W93185   8.963  29.497  31.529  0.2609  0.1022  0.0469
50274W        W93186   8.451  31.524  30.191 -0.0876 -0.0491  0.0135
50275W        W93187   9.344  29.476  29.320  0.1006 -0.0150  0.3817
50276W        W93188   9.085  32.932  28.281 -0.1831  0.0781 -0.6844
50277W        W93189   9.362  31.559  26.482  0.1482  0.1599 -0.1257
50278W        W93190   8.627  30.188  26.551  0.3186  0.3322  0.0844
50279W        W93191  10.294  30.180  27.677  0.1628 -0.1181 -0.0663
50280W        W93192   9.178  28.765  28.582  0.0035 -0.1600 -0.0754
50281W        W93193   8.566  31.147  29.272  0.1906  0.0077 -0.2144
50282W        W93194   9.312  30.247  28.998  0.0867 -0.0766 -0.1777
50283W        W93195  10.361  30.255  31.001  0.3800  0.0711  0.1363
50284W        W93196   9.099  30.704  29.107 -0.0458  0.0037  0.1577
50285W        W93197   9.529  30.206  28.506  0.1079 -0.2581  0.3702
50286W        W93198   9.326  32.051  30.624  0.1277  0.2140  0.0086
50287W        W93199   8.263  29.574  29.228 -0.0537 -0.2408  0.2008
50288W        W93200  10.446  31.106  27.282  0.0733  0.1894  0.4020
50289W        W93201  12.483  30.324  30.209 -0.0247 -0.2288 -0.1461
50290W        W93202   9.951  33.981  27.586  0.0693 -0.2032 -0.1489
50291W        W93203   8.388  31.029  28.763 -0.0530  0.1465  0.1099
50292W        W93204   7.678  29.718  31.293  0.1611 -0.3038 -0.0362
50293W        W93205   8.149  31.101  30.145  0.1027  0.0466 -0.0228
50294W        W93206   7.383  27.720  27.730 -0.0983  0.1032 -0.1648
50295W        W93207   9.955  32.794  31.444 -0.2784  0.2137  0.0819
50296W        W93208   8.380  31.348  30.757  0.0909 -0.2060 -0.1259
50297W        W93209  11.098  29.043  29.526  0.0118 -0.1228 -0.2025
50298W        W93210   9.495  31.577  28.775 -0.0574  0.1537  0.0345
50299W        W93211  10.416  31.250  28.973  0.2584 -0.0174  0.0096
50300W        W93212  10.130  32.784  28.741  0.1693 -0.3699 -0.1028
50301W        W93213   9.491  28.742  29.750  0.0510  0.1748 -0.0694
50302W        W93214  10.399  27.977  29.896  0.1060  0.0896  0.0596
50303W        W93215   9.277  32.384  27.070 -0.1358  0.1777 -0.4878
50304W        W93216   8.442  32.268  28.285 -0.0837  0.1323  0.2062
50305W        W93217   9.655  31.616  31.078 -0.1697  0.2148  0.1671
50306W        W93218  10.064  30.604  27.985 -0.0036  0.1758 -0.1264
50307W        W93219   8.557  30.235  30.459 -0.2465  0.1129 -0.4713
50308W        W93220   8.148  29.819  29.759  0.2365 -0.1092  0.1120
50309W        W93221   8.565  30.245  31.884  0.2588 -0.2156 -0.0589
50310W        W93222   7.585  31.599  27.421  0.0180 -0.0899  0.0386
50311W        W93223   7.872  31.433  29.851  0.3805  0.0919 -0.1895
50312W        W93224   7.620  30.763  27.099  0.1841  0.0669  0.0941
50313W        W93225   7.423  28.581  30.321  0.4818  0.1746  0.0245
50314W        W93226   8.808  30.403  28.830  0.0591 -0.0113  0.0249
50315W        W93227  11.051  28.580  28.185 -0.1352  0.1611  0.0790
50316W        W93228   8.801  29.944  28.961  0.1796 -0.1508  0.3909
50317W        W93229   9.730  29.849  29.525 -0.0582  0.0847 -0.0808
50318W        W93230   8.347  31.297  27.547  0.2342  0.2239 -0.0830
50319W        W93231  11.435  32.935  29.331 -0.1007  0.1358  0.0571
50320W        W93232  10.061  30.805  27.465 -0.0061 -0.1757 -0.0382
50321W        W93233  10.648  32.239  27.428  0.1187  0.1787  0.1176
50322W        W93234   7.949  30.179  30.167 -0.2678 -0.5350 -0.0198
50323W        W93235   8.065  30.770  27.333 -0.0541 -0.2937 -0.3205
50324W        W93236   8.396  30.158  30.916 -0.4374 -0.1062  0.1801
50325W        W93237   7.768  29.633  28.309  0.2766 -0.2166 -0.1919
50326W        W93238  11.307  30.835  31.545 -0.1428 -0.1229  0.0695
50327W        W93239   7.765  29.838  27.466  0.0916 -0.5375 -0.2968
50328W        W93240  10.618  29.910  28.998  0.1189 -0.2013 -0.0858
50329W        W93241   9.672  31.725  27.616  0.4636 -0.1647  0.0383
50330W        W93242   7.846  31.913  28.370 -0.1460  0.0548  0.0916
50331W        W93243  11.485  29.026   0.236 -0.0758 -0.1243 -0.0893
50332W        W93244   8.369  33.213  28.022 -0.2369  0.5104  0.0936
50333W        W93245  10.630  30.942  30.349 -0.2175  0.0312  0.0523
50334W        W93246  10.557  33.944  28.743  0.3404  0.2211  0.1912
50335W        W93247   9.773  28.526  28.042  0.1174  0.3235 -0.0929
50336W        W93248   7.172  30.552  28.115  0.1916 -0.1222  0.0113
50337W        W93249   8.906  30.964  28.645  0.1303 -0.2115 -0.3108
50338W        W93250   9.969  31.749  29.135 -0.0732 -0.2214 -0.0240
50339W        W93251   9.285  29.262  28.411  0.0430 -0.2746 -0.0693
50340W        W93252  11.828  32.492  29.846  0.1134  0.0068  0.1059
50341W        W93253  10.465  31.806  28.930  0.3820 -0.1258 -0.1607
50342W        W93254   6.754  30.881  30.434 -0.1553 -0.0453 -0.0557
50343W        W93255  10.014  29.003  29.812  0.1807 -0.0100  0.1092
50344W        W93256   9.051  30.929   0.063  0.0604  0.1015 -0.1004
50345W        W93257   9.488  29.827  30.349  0.1552  0.5065  0.3709
50346W        W93258   6.658  29.046  27.524 -0.0974  0.0026  0.0287
50347W        W93259  10.175  32.185  28.930 -0.0319 -0.0033  0.2070
50348W        W93260   7.760  32.611  28.632 -0.2399  0.2499  0.3994
50349W        W93261   7.282  30.653  29.626  0.2761  0.1568  0.3119
50350W        W93262   9.297  31.318  29.173 -0.0490  0.1956 -0.0380
50351W        W93263  10.586  28.903  30.348  0.1085 -0.2218 -0.1533
50352W        W93264   7.992  29.536   0.162  0.1912 -0.0955  0.0700
50353W        W93265   9.560  30.152  29.852  0.2160 -0.0941  0.1242
50354W        W93266   7.157  28.709  29.253  0.0464 -0.1637 -0.1451
50355W        W93267   7.949  30.828  31.761  0.0989 -0.0918 -0.3246
50356W        W93268  10.362  30.682  29.937 -0.0912  0.1550  0.2201
50357W        W93269  10.645  28.037  27.904 -0.0211 -0.1380  0.2203
50358W        W93270   9.271  31.543  30.613  0.2059 -0.1609  0.1708
50359W        W93271  10.396  31.590  26.842  0.1097 -0.3938 -0.1024
50360W        W93272   9.462  31.326  27.882  0.1856  0.3067  0.1116
50361W        W93273   9.162  29.524  27.492  0.0260  0.0531 -0.1609
50362W        W93274   7.818  30.323  31.817  0.0744  0.1916  0.0096
50363W        W93275   9.543  31.124  29.846  0.2088 -0.1073 -0.0033
50364W        W93276   8.898  29.937  30.265 -0.3633  0.2238 -0.0057
50365W        W93277   9.528  31.060  26.697 -0.0165  0.1317  0.2796
50366W        W93278  12.752  32.126  28.959 -0.0621  0.0697  0.0474
50367W        W93279   8.700  32.017  31.132 -0.0260 -0.0364 -0.1087
50368W        W93280   9.324  33.516   0.159  0.2721 -0.2398  0.0307
50369W        W93281  10.610  32.261  28.665  0.0001 -0.2101 -0.2980
50370W        W93282   9.133  26.716  29.917 -0.0436 -0.0722 -0.0565
50371W        W93283   8.214  30.952  26.866  0.0141 -0.0146 -0.1697
50372W        W93284   8.120  30.885  27.850 -0.0161  0.4049 -0.1228
50373W        W93285   8.935  31.897  27.332  0.1124 -0.2369 -0.3471
50374W        W93286   9.775  28.988  30.676  0.0512  0.0114  0.1084
50375W        W93287  10.198  29.632  28.774  0.3512 -0.3507  0.1412
50376W        W93288   9.933  28.544  30.506 -0.0577  0.0252 -0.1923
50377W        W93289  11.040  31.000  31.955 -0.1250  0.1000  0.1851
50378W        W93290  10.471  31.335  28.395 -0.1403 -0.1868  0.1250
50379W        W93291   9.428  29.752  31.321 -0.3671 -0.2440  0.0206
50380W        W93292   8.636  30.923  27.174 -0.0221  0.0287 -0.1098
50381W        W93293  10.413  28.428  30.260 -0.1175  0.0806  0.0663
50382W        W93294   8.150  30.644  31.056  0.0760 -0.0456 -0.1218
50383W        W93295   7.946  32.691  30.860  0.1794  0.1240 -0.1692
50384W        W93296   9.646  33.592  29.157 -0.2082 -0.3104 -0.0012
50385W        W93297   9.760  31.509  28.338 -0.0894 -0.2129  0.0759
50386W        W93298   8.755  28.709  30.753 -0.2641 -0.2033  0.0762
50387W        W93299   9.648  29.377  27.412  0.2304  0.3380  0.1566
50388W        W93300   8.859  32.530  28.364 -0.1558  0.1439  0.2267
50389W        W93301   9.768  32.267  26.808  0.4857  0.1835 -0.4143
50390W        W93302   8.131  28.370  29.698 -0.3199 -0.1170  0.0231
50391W        W93303  11.454  30.973  27.884  0.3971  0.1043 -0.0672
50392W        W93304   8.442  31.779  27.495  0.0289  0.0644  0.2021
50393W        W93305   9.363  30.292  31.250  0.1818  0.0349  0.1402
50394W        W93306   8.433  30.980  28.249 -0.0318 -0.1986  0.0293
50395W        W93307  10.924  29.236  30.587 -0.0977 -0.0852 -0.2109
50396W        W93308   7.642  30.998  28.039  0.1522 -0.0793  0.2049
50397W        W93309   8.682  30.621  26.816  0.2772  0.1224  0.2432
50398W        W93310   7.423  29.717  27.848 -0.0447  0.1744  0.3124
50399W        W93311   9.854  28.889  29.216  0.1048  0.0571  0.1745
50400W        W93312  11.710  31.281  28.357  0.1322 -0.0977 -0.0868
50401W        W93313   7.654  30.894  29.874  0.0508 -0.3445 -0.1453
50402W        W93314   8.035  28.674  28.561 -0.0019  0.1979 -0.0521
50403W        W93315   8.007  30.895  28.465 -0.2257 -0.0867 -0.1834
50404W        W93316   9.159  32.517  30.577 -0.1191 -0.3579  0.1036
50405W        W93317   9.935  29.316  27.925  0.0191 -0.1158  0.2818
50406W        W93318   8.988  32.168  30.244 -0.0213  0.1996  0.2351
50407W        W93319   8.640  29.217  30.612 -0.1783 -0.0446  0.1770
50408W        W93320   8.873  30.624  26.216  0.1461  0.1521 -0.0242
50409W        W93321  10.653  29.741  30.782 -0.1782  0.1510 -0.0589
50410W        W93322   8.335  29.555  28.171 -0.0737 -0.0372  0.0554
50411W        W93323   7.415  30.958  28.422  0.1039 -0.0434  0.1893
50412W        W93324   8.777  32.634  30.309  0.0937 -0.1336  0.0890
50413W        W93325   8.326  30.425  27.631 -0.0529  0.5573  0.2088
50414W        W93326   8.385  30.201  29.930 -0.0028 -0.0300 -0.2945
50415W        W93327   9.440  28.218   1.319 -0.0641 -0.0352  0.2278
50416W        W93328   9.446  29.995   0.611  0.2734 -0.1120  0.0667
50417W        W93329   9.164  30.035  29.444  0.3259  0.4922  0.0708
50418W        W93330   8.420  30.303  27.077 -0.2250  0.0460  0.2528
50419W        W93331   9.002  31.749  28.774 -0.4342 -0.0282 -0.1491
50420W        W93332   9.782  32.638  28.263 -0.1142 -0.3460 -0.0479
50421W        W93333   9.959  28.539  29.929  0.0225 -0.1599 -0.0433
50422W        W93334  10.089  32.394  31.182  0.0216 -0.4983  0.0664
50423W        W93335  10.440  28.885  28.929 -0.2159  0.2232  0.1228
50424W        W93336  10.579  30.593  29.149  0.1570  0.0190 -0.0066
50425W        W93337   9.867  30.901  30.238 -0.0479 -0.0330 -0.2941
50426W        W93338   9.128  31.158  26.974 -0.0605 -0.0060 -0.3665
50427W        W93339   6.960  29.848  30.511 -0.0303  0.4591 -0.4135
50428W        W93340   8.666  30.931  27.700  0.0849 -0.0698  0.0698
50429W        W93341   8.789  29.695  28.526  0.0967  0.1041 -0.0748
50430W        W93342   9.085  30.785  30.626 -0.2564 -0.0700  0.3096
50431W        W93343   7.907  31.205  26.530 -0.1249  0.1364 -0.0566
50432W        W93344   7.960  31.390  31.559 -0.0148 -0.1880 -0.0804
50433W        W93345   9.659  28.256  28.953 -0.3054  0.1569  0.0262
50434W        W93346   9.983  31.755  27.149  0.1453 -0.0488  0.3096
50435W        W93347   9.764  29.746  28.955 -0.5006  0.1816 -0.1351
50436W        W93348   9.983  28.763  31.147 -0.2267  0.2490 -0.0996
50437W        W93349   8.654  31.349  26.153 -0.2525  0.1440  0.1822
50438W        W93350   9.905  28.047  31.238  0.2255  0.0926 -0.0688
50439W        W93351   8.311  28.967  28.215  0.0896 -0.5019 -0.0553
50440W        W93352  11.240  31.007  28.346 -0.2013 -0.0631 -0.2262
50441W        W93353   9.014  30.906  31.261 -0.1134 -0.2766 -0.0239
50442W        W93354   8.185  33.738   0.745 -0.0997  0.0734  0.1221
50443W        W93355   7.170  29.803  30.949 -0.1193  0.1532 -0.0645
50444W        W93356   7.723  30.498  27.944  0.1646  0.3766  0.3319
50445W        W93357   8.209  30.468  28.115  0.3835 -0.2923 -0.4376
50446W        W93358   9.557  30.666  30.642  0.1176 -0.1781  0.1779
50447W        W93359  10.250  30.628  30.465  0.3034 -0.0079 -0.3024
50448W        W93360   9.244  30.373  28.078  0.0765  0.0997 -0.3400
50449W        W93361   9.340  30.540  29.623 -0.0441 -0.1201  0.0966
50450W        W93362   8.912  30.315  30.815  0.1082  0.2141  0.1755
50451W        W93363   8.975  29.500  28.084  0.1242 -0.2301 -0.0529
50452W        W93364   9.558  31.052  27.301  0.0537 -0.2092 -0.1345
50453W        W93365   9.307  29.691  28.724  0.2104  0.3142  0.0442
50454W        W93366   8.516  28.138  30.724  0.2721  0.3373 -0.1471
50455W        W93367  10.759  30.703  29.595 -0.1381  0.0304  0.2975
50456W        W93368   9.047  30.220  29.922 -0.3022 -0.0322  0.0522
50457W        W93369   8.707  29.864  29.779  0.0508  0.0573 -0.0912
50458W        W93370  10.577  31.603  29.360 -0.0220  0.2029 -0.0758
50459W        W93371   9.817  29.393  30.385  0.4689  0.0383  0.0032
50460W        W93372   8.123  29.067  31.951 -0.2683 -0.0817  0.3202
50461W        W93373   9.768  31.764  30.559 -0.0579 -0.1897 -0.3034
50462W        W93374  10.181  29.851  29.314  0.1211  0.2782  0.2780
50463W        W93375  11.213  29.521  30.298 -0.0454  0.2305  0.1290
50464W        W93376  10.602  29.704  27.448 -0.1642  0.1770 -0.2850
50465W        W93377  10.316  32.750  25.156 -0.3534  0.1817 -0.2062
50466W        W93378   6.762  28.956  30.035 -0.2338 -0.0253 -0.1957
50467W        W93379  10.051  31.895  30.941  0.0541 -0.2196 -0.2053
50468W        W93380   7.791  29.647  26.901 -0.1609 -0.2103 -0.0949
50469W        W93381   9.929  29.902  31.102 -0.0380 -0.1291  0.1710
50470W        W93382   8.828  33.105  29.159 -0.0165 -0.2071 -0.0340
50471W        W93383  10.636  32.774  28.662 -0.0133  0.0701  0.0543
50472W        W93384   9.146  31.049  27.620  0.0159  0.2143 -0.1475
50473W        W93385   6.719  29.482  29.424 -0.1622  0.2157 -0.0572
50474W        W93386   9.635  32.721  30.919 -0.2296 -0.0213 -0.1648
50475W        W93387   6.778  29.555  27.440 -0.1102  0.0039  0.1046
50476W        W93388   8.758  32.452  27.215  0.1768  0.2285  0.0469
50477W        W93389   8.495  31.494  31.696  0.0295  0.0930  0.2862
50478W        W93390  10.433  31.028  30.818 -0.4746  0.0567 -0.0433
50479W        W93391  10.620  29.855  28.477  0.3329 -0.0591 -0.4053
50480W        W93392  10.281  29.344  29.552 -0.2133  0.1548 -0.0074
50481W        W93393   8.402  32.046  30.249  0.2311  0.1191 -0.1524
50482W        W93394   9.726  29.503  28.462 -0.1153  0.2286 -0.2833
50483W        W93395   7.986  32.848  29.742  0.1999 -0.0191 -0.2069
50484W        W93396   7.577  32.515  30.574  0.1937  0.0311  0.2407
50485W        W93397   8.743  30.075  27.401  0.2153 -0.3123  0.0221
50486W        W93398   9.373  29.865  28.233 -0.1876  0.0838 -0.3183
50487W        W93399   9.946  31.060  28.578  0.0851 -0.0134  0.2106
50488W        W93400   9.208  30.286  30.384  0.5051  0.1629  0.2096
50489W        W93401   9.960  29.803  30.206 -0.2541  0.0892 -0.0610
50490W        W93402   9.307  33.175  29.042  0.0405 -0.2041 -0.3127
50491W        W93403   7.329  29.961  30.098  0.1611 -0.1480  0.3544
50492W        W93404   8.613  30.985  31.009 -0.1632 -0.2223 -0.0058
50493W        W93405  11.597  30.416  29.693 -0.0261 -0.1184 -0.3306
50494W        W93406   8.554  31.325  29.750  0.2932  0.0979  0.3367
50495W        W93407   6.655  28.930  30.597 -0.0872  0.1310  0.0838
50496W        W93408   8.135  29.875  30.484 -0.0745  0.1827 -0.0518
50497W        W93409   9.844  31.256  29.056 -0.2349  0.1402  0.2046
50498W        W93410   8.800  28.612  27.248  0.3990  0.0885  0.1266
50499W        W93411  10.533  31.985  27.865 -0.2138  0.2830  0.1126
50500W        W93412   8.883  32.534  31.279 -0.2374 -0.1896 -0.1941
50501W        W93413   7.331  31.323  29.724  0.1851  0.2060 -0.1504
50502W        W93414   8.783  31.416  27.872  0.2071  0.2156  0.2532
50503W        W93415  10.109  31.581  28.661 -0.0795  0.2453  0.0100
50504W        W93416  10.797  32.293  28.202 -0.1122  0.0355  0.0694
50505W        W93417   9.806  32.253  30.704  0.0135 -0.3275  0.3358
50506W        W93418   9.749  30.581  28.911 -0.2184 -0.3968  0.1263
50507W        W93419   8.174  31.434  28.518  0.1564  0.2436  0.1381
50508W        W93420   7.447  30.725  28.960 -0.1825  0.0962  0.1561
50509W        W93421  10.462  33.119  27.777 -0.2356  0.2472  0.5808
50510W        W93422   7.940  31.138  29.009 -0.0606  0.0577  0.1299
50511W        W93423  10.242  31.715  30.515  0.3560  0.4115  0.0261
50512W        W93424  10.646  28.924  28.111  0.0573 -0.1344 -0.0715
50513W        W93425  10.291  28.792  30.723  0.0178 -0.0492  0.2608
50514W        W93426   9.988  30.509  28.494  0.1868  0.1093 -0.1132
50515W        W93427   9.223  32.185  31.504  0.1127  0.1463 -0.4076
50516W        W93428   7.900  29.149  28.434 -0.1227 -0.2576  0.0539
50517W        W93429   9.006  30.512  27.242 -0.1951 -0.0824 -0.3114
50518W        W93430   7.683  31.194  30.254  0.0858 -0.1025 -0.1735
50519W        W93431  10.208  29.801  29.784 -0.1327 -0.3154 -0.1084
50520W        W93432   7.332  32.503  31.469 -0.1820 -0.0905 -0.1454
50521W        W93433  11.951  31.987  26.684 -0.1342  0.1093  0.1918
50522W        W93434   6.532  29.422  28.941  0.1259 -0.0089  0.2246
50523W        W93435   7.975  30.099  28.441 -0.1559 -0.0319 -0.4233
50524W        W93436  12.505  28.800  30.504 -0.1966 -0.0021  0.3553
50525W        W93437  10.229  31.605  26.173 -0.1872 -0.0251 -0.0511
50526W        W93438   8.788  30.391  27.852  0.4057  0.4120 -0.1422
50527W        W93439   9.860  31.986  28.597  0.1862  0.1399  0.2094
50528W        W93440   8.760  30.575  28.327 -0.1357  0.1284 -0.0086
50529W        W93441   9.417  31.871  29.303 -0.2088  0.2990 -0.1757
50530W        W93442   6.932  29.377  27.884 -0.2254  0.0517 -0.4564
50531W        W93443  11.061  30.423  29.368  0.1584  0.0561  0.2146
50532W        W93444   8.281  29.496  30.885  0.3009 -0.0716  0.2580
50533W        W93445   8.347  28.831  29.994 -0.1281  0.0893 -0.0898
50534W        W93446   7.353  29.477  29.399  0.0049  0.1461 -0.2322
50535W        W93447   9.944  29.962  28.455 -0.0734 -0.2563  0.0396
50536W        W93448  10.042  30.804  29.374  0.0972 -0.1869  0.1122
50537W        W93449   8.423  30.128  29.464 -0.1737 -0.3244  0.0927
50538W        W93450   9.016  32.456  25.966 -0.1567 -0.0009 -0.1782
50539W        W93451   9.325  31.133  30.937 -0.3119  0.0160  0.1494
50540W        W93452   9.462  30.612  27.225 -0.0153 -0.0795 -0.0678
50541W        W93453   9.232  33.465  31.604 -0.3083  0.2900  0.3246
50542W        W93454   8.413  27.967  29.488 -0.3040  0.1052  0.0924
50543W        W93455  10.397  30.844  28.278  0.1029 -0.0016  0.0667
50544W        W93456   8.392  29.410  28.760  0.3287 -0.3062  0.0739
50545W        W93457  10.261  29.365  28.333  0.1842 -0.0045 -0.0210
50546W        W93458  10.256  32.545   0.209  0.2554  0.0464 -0.0906
50547W        W93459   7.879  29.677  28.878  0.1165 -0.0577 -0.0041
50548W        W93460  10.543  31.487  25.747  0.0425  0.1099  0.2215
50549W        W93461  11.342  31.220  28.840  0.1613 -0.3000  0.0719
50550W        W93462   8.593  32.738  28.008  0.0527 -0.0830  0.0767
50551W        W93463  10.903  31.186  29.801 -0.0151 -0.2146 -0.0088
50552W        W93464   9.697  33.160  30.678  0.1428 -0.1545  0.1222
50553W        W93465   6.122  29.093  30.029  0.2457  0.2344  0.3325
50554W        W93466  10.002  32.087  30.131 -0.0690 -0.0533 -0.0155
50555W        W93467  12.743  29.970  30.006 -0.1767 -0.2551  0.1044
50556W        W93468   9.753  30.163  27.984 -0.1725  0.1134 -0.0341
50557W        W93469   8.840  30.422  29.526 -0.1977  0.0323 -0.2517
50558W        W93470   8.311  31.973  29.735  0.1625 -0.2575  0.1306
50559W        W93471   9.757  30.358  29.367 -0.2530 -0.0453  0.0646
50560W        W93472  10.183  30.276  31.523  0.0772 -0.2620 -0.1149
50561W        W93473   9.626  32.068  27.267 -0.1654 -0.0810  0.1053
50562W        W93474  10.419  29.329  30.575 -0.0019 -0.2336 -0.0294
50563W        W93475   9.464  33.407  29.619  0.0802  0.0758  0.3569
50564W        W93476   8.124  31.811  31.779 -0.0376  0.2150  0.2484
50565W        W93477   7.255  31.041  27.289 -0.2146 -0.2215  0.1611
50566W        W93478   8.359  30.947  31.498 -0.1409 -0.2860 -0.1393
50567W        W93479   8.926  31.679  29.312  0.1936 -0.0740  0.2594
50568W        W93480   8.467  33.224  29.759 -0.0929 -0.0618 -0.1498
50569W        W93481  11.201  32.586  29.815 -0.2402  0.1537  0.1486
50570W        W93482   8.881  32.130  26.844 -0.2227  0.1343  0.0877
50571W        W93483  11.867  31.339  29.021  0.2436 -0.0859 -0.0458
50572W        W93484   8.771  29.117  27.285 -0.1153 -0.1002  0.0998
50573W        W93485  11.140  29.608  29.212 -0.0004 -0.1557 -0.2199
50574W        W93486  10.761  29.536  29.520 -0.1631  0.0346  0.2070
50575W        W93487   9.336  30.641  30.104 -0.1211 -0.0521  0.1505
50576W        W93488   7.451  30.294  26.872 -0.0868 -0.0480 -0.0507
50577W        W93489   7.089  32.146  27.950  0.0532  0.3489  0.1003
50578W        W93490   7.547  30.267  29.791  0.1706  0.1872 -0.1547
50579W        W93491   9.901  27.987  30.694  0.1736 -0.2170  0.0286
50580W        W93492   9.282  29.704  29.839  0.2488 -0.1622  0.0632
50581W        W93493   7.757  30.244  28.845  0.0714 -0.4374  0.2886
50582W        W93494   8.265  29.943  27.408  0.1823 -0.0320 -0.2093
50583W        W93495   8.438  31.517  27.058 -0.2584 -0.3486  0.0387
50584W        W93496   7.265  27.861  29.579 -0.1389  0.3082 -0.0185
50585W        W93497   7.536  28.691  28.940 -0.1225 -0.3181  0.0870
50586W        W93498  10.906  31.360  28.673 -0.0243  0.1767  0.3038
50587W        W93499  11.938  31.669  28.058  0.2919  0.1459  0.2828
50588W        W93500   9.438  29.382  27.892 -0.0523  0.3296 -0.1271
50589W        W93501   9.647  32.104  31.172 -0.1477 -0.3965 -0.0573
50590W        W93502   6.856  31.297  27.451 -0.1880  0.2082 -0.1712
50591W        W93503   8.945  29.935  31.175 -0.0350 -0.0831 -0.2731
50592W        W93504  10.069  30.220  29.948  0.0913  0.1899 -0.2094
50593W        W93505   7.214  30.366  28.646  0.1481 -0.0906  0.0962
50594W        W93506   9.048  30.940  29.879  0.1919  0.2316 -0.0127
50595W        W93507   9.747  31.919  28.058 -0.2712 -0.2114 -0.0095
50596W        W93508  10.697  31.798  28.483  0.0619  0.0548  0.0565
50597W        W93509   8.578  30.706  30.638 -0.1081 -0.0381 -0.1893
50598W        W93510   8.686  32.258  30.691  0.1140  0.0348 -0.1406
50599W        W93511   6.723  29.001  31.749 -0.1574  0.5535 -0.0681
50600W        W93512   9.637  30.816  28.269 -0.0743 -0.1761 -0.0929
50601W        W93513   9.306  31.365  31.365 -0.0149  0.1944 -0.0115
50602W        W93514   9.010  31.898  26.341  0.0680 -0.0309  0.1044
50603W        W93515   8.706  29.206  30.056 -0.1238  0.1856 -0.0855
50604W        W93516  10.835  31.265  27.631 -0.0221 -0.2071  0.0101
50605W        W93517   8.057  29.278  29.803  0.2477 -0.2105  0.1979
50606W        W93518   8.759  31.773  30.512 -0.0756 -0.1413  0.2504
50607W        W93519  11.353  30.950  31.046  0.2937  0.0246 -0.0872
50608W        W93520   8.100  28.492  29.027  0.1804 -0.0049  0.0448
50609W        W93521   8.519  29.322  29.585  0.0662  0.0314  0.0292
50610W        W93522  10.038  32.316  27.356 -0.2204  0.1174 -0.0505
50611W        W93523   7.639  30.043  30.479 -0.0415  0.0542 -0.0431
50612W        W93524   9.788  28.990  28.313 -0.1693 -0.0472  0.1562
50613W        W93525   8.845  29.617  29.366 -0.0383  0.1325 -0.2076
50614W        W93526   9.824  31.442  29.516  0.0604 -0.0940  0.1039
50615W        W93527   9.270  32.627   0.032  0.0341  0.3240 -0.2245
50616W        W93528   9.487  30.508  27.700 -0.2073  0.0082 -0.0435
50617W        W93529  10.768  30.473  27.924  0.0869 -0.0340 -0.1644
50618W        W93530   9.660  32.831  29.851 -0.0201 -0.0708 -0.2229
50619W        W93531  10.636  32.519  30.187 -0.1098 -0.2759 -0.1830
50620W        W93532   9.282  33.170  30.044 -0.2774  0.4584  0.0293
50621W        W93533  11.358  32.166  29.084  0.1107 -0.1559 -0.1409
50622W        W93534   7.144  28.339  31.164 -0.3049 -0.2969  0.0744
50623W        W93535   8.226  28.542  28.007  0.0209 -0.0513  0.1167
50624W        W93536   9.288  30.628  28.598  0.0390  0.2416 -0.1838
50625W        W93537  10.612  28.443  28.968  0.0950  0.0623 -0.1332
50626W        W93538   8.489  30.075  28.397 -0.2155  0.2444  0.0522
50627W        W93539   9.555  27.554  29.154  0.0704  0.3754  0.2311
50628W        W93540   7.625  33.044  30.612 -0.3435 -0.0581 -0.0732
50629W        W93541   9.540  32.451  29.484 -0.1616  0.0883  0.2328
50630W        W93542  11.189  29.713  30.790  0.0275  0.2156  0.0564
50631W        W93543   9.966  30.922  30.775  0.1256 -0.1906  0.2542
50632W        W93544   8.452  29.187  31.482 -0.1161  0.3197  0.0700
50633W        W93545   7.300  31.319   0.433  0.2580  0.0839  0.3146
50634W        W93546   8.674  33.084   0.419  0.1950  0.0663 -0.1863
50635W        W93547   8.575  33.048   0.934  0.1403 -0.3005  0.0357
50636W        W93548   9.249  29.379  30.226 -0.1534 -0.4354 -0.2237
50637W        W93549   9.046  29.494  30.646 -0.2907  0.1996 -0.2296
50638W        W93550  10.770  30.491   0.146  0.0204 -0.1255 -0.0384
50639W        W93551   9.530  32.259  30.247 -0.6368  0.0467 -0.0565
50640W        W93552  10.599  30.973  31.747 -0.1252 -0.0383  0.1420
50641W        W93553   8.567  28.162  31.671 -0.0264 -0.0873 -0.0998
50642W        W93554   8.546  32.996  31.153  0.0729 -0.0118 -0.0398
50643W        W93555   9.732  29.421  29.813 -0.2082  0.4569 -0.2422
50644W        W93556   9.039  29.372   0.080 -0.2897  0.1219  0.1678
50645W        W93557   7.830  32.161   0.668 -0.1569 -0.1508 -0.3408
50646W        W93558   7.383  30.788   1.157 -0.1274  0.1875 -0.1549
50647W        W93559  10.459  31.110   0.292  0.1119  0.2222  0.0480
50648W        W93560   8.004  27.980   1.292  0.0662 -0.0315 -0.2903
50649W        W93561   8.859  28.974   0.370 -0.0704 -0.0387 -0.0960
50650W        W93562   9.376  29.552   0.417 -0.1540 -0.1590 -0.1458
50651W        W93563   7.582  31.486  31.220 -0.3761 -0.1490 -0.0581
50652W        W93564  12.240  28.065  31.347  0.1736 -0.2190 -0.1201
50653W        W93565   8.959  31.272  31.689  0.0715 -0.0204 -0.0594
50654W        W93566   9.246  28.528  30.744 -0.0630 -0.0313 -0.1652
50655W        W93567  10.708  28.429  30.675  0.2719 -0.0195  0.1421
50656W        W93568   8.884  28.433   0.028  0.1428 -0.0615 -0.1905
50657W        W93569   7.339  32.807  30.251 -0.0427  0.1509 -0.0433
50658W        W93570   8.929  28.948  31.156  0.1839 -0.0484  0.4575
50659W        W93571   7.961  30.268   0.300  0.5445 -0.1147 -0.2877
50660W        W93572   8.867  31.427  31.181  0.3830  0.0188 -0.2926
50661W        W93573   8.240  28.979  30.954  0.2180 -0.2689 -0.2304
50662W        W93574  10.810  31.431  31.789 -0.1155 -0.0135 -0.3306
50663W        W93575   9.473  28.462  30.312 -0.2320 -0.1984  0.3711
50664W        W93576   8.089  29.863  31.162 -0.1417  0.0390 -0.0045
50665W        W93577   7.566  31.020   0.729  0.1638  0.1507 -0.1444
50666W        W93578   8.367  31.619  31.198 -0.3722  0.2140 -0.1173
50667W        W93579   9.966  31.308   0.475 -0.0937 -0.2193 -0.2657
50668W        W93580   9.512  31.142   0.252 -0.0750  0.1598 -0.4347
50669W        W93581   9.424  31.752  30.120 -0.2154  0.4013  0.0281
50670W        W93582  11.240  28.212  31.432  0.2631 -0.0533 -0.0222
50671W        W93583   8.952  30.360   0.221 -0.3824  0.3012 -0.2464
50672W        W93584   9.201  29.005  30.632 -0.0418  0.1010 -0.2045
50673W        W93585   9.022  31.606   0.085  0.0493  0.0390 -0.2492
50674W        W93586   8.766  29.417  31.077  0.1762 -0.1909  0.1852
50675W        W93587   8.666  30.511  31.195  0.0751  0.3641 -0.1899
50676W        W93588   9.424  28.799  31.116 -0.1387  0.0245 -0.2112
50677W        W93589   8.316  30.736   0.071 -0.0122 -0.1775 -0.1118
50678W        W93590   9.510  31.745  31.633  0.0285  0.2776 -0.0046
50679W        W93591   6.556  31.214  31.399 -0.0517  0.1377 -0.1764
50680W        W93592   9.746  32.604   0.093  0.0223  0.4883 -0.0173
50681W        W93593  10.273  28.354  30.952 -0.1084 -0.2875  0.3439
50682W        W93594   9.125  28.115  31.631 -0.0261 -0.1444 -0.2806
50683W        W93595   9.289  31.089  30.272 -0.0210  0.1105 -0.0226
50684W        W93596   9.738  30.005  31.709 -0.0450  0.1384  0.0671
50685W        W93597   8.848  31.222  30.590 -0.0076  0.0463 -0.0493
50686W        W93598   9.487  30.755  31.307  0.0735  0.1130  0.3505
50687W        W93599   8.235  34.460  30.794 -0.0320  0.1058  0.0829
50688W        W93600   8.647  32.606   0.702  0.0073  0.1936 -0.0483
50689W        W93601   7.629  29.890   0.515  0.0418 -0.0931 -0.3486
50690W        W93602   8.648  29.056   0.845 -0.2872 -0.2894 -0.2081
50691W        W93603   8.206  30.210  31.491  0.1097  0.1004 -0.0686
50692W        W93604   7.860  30.695   0.896 -0.0878  0.1093  0.0098
50693W        W93605   7.636  29.146   0.286 -0.0027  0.3258  0.1027
50694W        W93606  11.428  32.466   0.868 -0.1024  0.0377  0.1703
50695W        W93607  11.926  32.583   0.839 -0.1746  0.2439 -0.0241
50696W        W93608  11.794  29.946  31.753  0.1506 -0.2995  0.3779
50697W        W93609   8.953  33.682  17.091  0.1615 -0.1291 -0.0069
50698W        W93610   9.638  33.774  15.999  0.0980 -0.1668  0.2074
50699W        W93611  10.793   0.908  16.172 -0.1058 -0.0835 -0.0901
50700W        W93612   7.827  32.784  16.715  0.1413 -0.2151 -0.0333
50701W        W93613   8.514  32.078  18.525 -0.2378 -0.2967 -0.1886
50702W        W93614   9.763   0.114  15.888 -0.0486 -0.3477  0.1249
50703W        W93615   6.871  34.086  18.805  0.1295 -0.1826 -0.1662
50704W        W93616   8.524  33.938  16.282  0.1217  0.1104 -0.0493
50705W        W93617   8.891  33.680  17.949  0.1003  0.1890  0.2040
50706W        W93618   9.818  33.749  19.870  0.0606  0.1227 -0.4398
50707W        W93619   7.710   0.519  16.122  0.3460 -0.2184 -0.0096
50708W        W93620   8.176  34.534  17.543 -0.1288 -0.0826 -0.0916
50709W        W93621   9.363  33.275  17.013 -0.0447 -0.1164  0.1547
50710W        W93622   8.619  33.631  19.448 -0.1343  0.0560  0.0839
50711W        W93623   9.674   0.854  17.762  0.2320 -0.1123  0.0041
50712W        W93624   8.304  32.265  15.080  0.1424 -0.3387 -0.1203
50713W        W93625   7.406  33.017  17.578  0.0173 -0.2447  0.2963
50714W        W93626   7.766  34.373  17.302 -0.1609 -0.1358 -0.1505
50715W        W93627   9.912  33.853  17.600 -0.0299  0.0676  0.1524
50716W        W93628   9.947   0.544  19.507 -0.4417 -0.2730 -0.0663
50717W        W93629   7.661  34.414  19.753  0.0169 -0.3933 -0.1452
50718W        W93630  10.130   0.100  18.727 -0.3945 -0.1457  0.1274
50719W        W93631   8.152   0.076  18.037  0.0263  0.0225 -0.0540
50720W        W93632   9.877  34.262  19.903 -0.0824  0.1613  0.1436
50721W        W93633  10.162   0.222  16.569 -0.0525  0.1077  0.1173
50722W        W93634   9.687  33.362  15.654 -0.2446 -0.0916  0.1296
50723W        W93635  10.962  34.276  17.606 -0.1679 -0.1675  0.1158
50724W        W93636   8.635  32.790  18.225  0.0183  0.0756 -0.0457
50725W        W93637   8.411  33.458  18.086  0.2476  0.3121  0.1384
50726W        W93638   9.689  34.194  16.532  0.0287  0.1623 -0.1147
50727W        W93639   8.873  34.231  18.042 -0.1430  0.3774 -0.0483
50728W        W93640   6.351  34.208  16.671 -0.4361  0.0904  0.0012
50729W        W93641   8.648  34.659  16.823 -0.0625  0.0169 -0.1315
50730W        W93642   7.149  33.334  19.153  0.1835 -0.1789 -0.0836
50731W        W93643   7.197  34.601  18.878 -0.0906  0.2465 -0.0236
50732W        W93644   9.740  32.394  16.592  0.1078  0.2655  0.1819
50733W        W93645  10.402  34.165  17.109 -0.3777  0.1066 -0.0089
50734W        W93646   9.020  33.377  17.450 -0.0183  0.0865 -0.3979
50735W        W93647   9.838  33.388  17.950  0.0193 -0.4423 -0.1107
50736W        W93648  11.684   0.246  16.122  0.2268 -0.1092 -0.1725
50737W        W93649   7.975   0.437  19.008  0.1195 -0.0668 -0.0594
50738W        W93650   8.482  33.200  17.142 -0.0972 -0.0403  0.0769
50739W        W93651  10.727  33.659  16.042 -0.1025  0.2034 -0.3692
50740W        W93652   7.602  33.197  18.998  0.0040 -0.0815 -0.2814
50741W        W93653   9.483  33.695  17.293 -0.0350 -0.3579  0.0503
50742W        W93654  10.119  34.532  16.842  0.0917 -0.1206  0.0830
50743W        W93655   8.214  33.140  18.383 -0.2690  0.2479  0.2858
50744W        W93656   7.272  34.515  17.484  0.0287  0.0181 -0.0069
50745W        W93657   7.561  32.039  18.777  0.1220  0.1224  0.2959
50746W        W93658   6.912  33.967  17.470  0.0924  0.0084 -0.3279
50747W        W93659   7.954  34.615  19.302 -0.0976  0.0592  0.1795
50748W        W93660   7.802  33.698  16.194 -0.0833  0.1733 -0.1526
50749W        W93661   9.176  33.443  16.555 -0.1661  0.2377  0.2226
50750W        W93662   8.918  33.732  16.081 -0.1962 -0.2011  0.0562
50751W        W93663   8.267  33.969  19.098 -0.2028 -0.1293 -0.0970
50752W        W93664   7.450  33.729  18.175  0.1179 -0.2418 -0.1502
50753W        W93665   8.989  34.451  15.678  0.3250  0.1939  0.2173
50754W        W93666   9.841  33.201  16.816 -0.0465  0.0396  0.3280
50755W        W93667  11.011  33.800  18.873  0.1427 -0.1731 -0.0410
50756W        W93668  10.155  34.037  16.671 -0.3189 -0.1636 -0.0568
50757W        W93669   7.590  32.107  16.366 -0.1444  0.1822 -0.2641
50758W        W93670   7.356   0.149  17.110 -0.2763  0.2762 -0.0414
50759W        W93671  11.216   0.014  18.815 -0.0194  0.0649  0.0767
50760W        W93672   7.259   0.807  18.400  0.0024 -0.1578 -0.2856
50761W        W93673   8.436   0.892  20.069  0.2274 -0.1147 -0.0336
50762W        W93674   8.691  33.737  15.315 -0.2219 -0.0230  0.3120
50763W        W93675   9.699  32.803  17.117 -0.2267 -0.0135  0.2258
50764W        W93676  10.159  33.418  15.400 -0.0471 -0.0211  0.1498
50765W        W93677   9.229  34.065  15.847 -0.1972 -0.1070 -0.0634
50766W        W93678   9.952  33.913  15.173  0.0011 -0.0008 -0.1028
50767W        W93679   9.356  33.074  15.396 -0.2386 -0.1493 -0.2381
50768W        W93680   6.768  32.995  18.206 -0.3079 -0.1627 -0.3431
50769W        W93681   8.749  32.703  16.072  0.1113 -0.3220 -0.0395
50770W        W93682   9.711  32.917  16.020 -0.2920  0.1443  0.0276
50771W        W93683   9.277  33.406  15.988  0.0342  0.1779 -0.2201
50772W        W93684   9.351  34.085  16.956 -0.0522 -0.0635 -0.0666
50773W        W93685   9.169  33.425  18.629  0.1448 -0.1902 -0.0725
50774W        W93686   8.737  34.664  18.891  0.0569 -0.0361  0.3090
50775W        W93687  11.118   0.520  16.119 -0.2998 -0.0494 -0.2052
50776W        W93688   9.307   0.400  17.264 -0.0824 -0.0023  0.1083
50777W        W93689   9.793   1.634  15.900  0.1911  0.2540 -0.2168
50778W        W93690   7.859  33.402  20.139 -0.0299 -0.0468 -0.1852
50779W        W93691   7.531   1.139  19.006 -0.4251  0.1956 -0.3381
50780W        W93692   9.574  32.586  15.571  0.2010 -0.2258  0.1252
50781W        W93693   8.603  34.629  17.343  0.1308  0.0739 -0.3550
50782W        W93694   9.611  33.464  18.413 -0.2308  0.1138 -0.0230
50783W        W93695   8.465  33.532  15.714  0.1106 -0.1033 -0.0349
50784W        W93696   8.321  33.507  16.187  0.2759 -0.2403 -0.1460
50785W        W93697   9.660  34.316  15.960  0.4375 -0.0560 -0.0372
50786W        W93698   7.004  33.809  18.394  0.1919 -0.2818  0.1745
50787W        W93699  10.036  32.031  18.859  0.0681 -0.0634  0.0634
50788W        W93700   9.920   1.483  19.443  0.2093  0.2377  0.0286
50789W        W93701  10.073  33.424  16.044  0.0051  0.1515 -0.0313
50790W        W93702   7.224   0.332  19.675 -0.3242 -0.1068 -0.1700
50791W        W93703   7.194  34.075  15.509 -0.0191  0.2110  0.4065
50792W        W93704  10.088  33.897  18.430  0.1444  0.0904  0.0223
50793W        W93705   7.660  34.647  17.879  0.1523 -0.0109 -0.1116
50794W        W93706   8.470  34.426  16.010  0.1795 -0.0304 -0.3019
50795W        W93707   7.698   0.157  18.728  0.0699 -0.1222 -0.1756
50796W        W93708   8.465  34.170  17.583 -0.2848 -0.0305 -0.1650
50797W        W93709   9.955  33.542  17.161 -0.6490  0.1602  0.1074
50798W        W93710   8.775   0.033  16.288 -0.1276  0.1652  0.0127
50799W        W93711   9.401  34.280  18.455  0.2331 -0.1593  0.0948
50800W        W93712   7.633  32.979  19.925 -0.0326 -0.2158 -0.3320
50801W        W93713   8.288  33.882  18.342  0.0492 -0.2737  0.0724
50802W        W93714   9.431  33.006  18.567 -0.0251 -0.0796  0.0424
50803W        W93715  10.431  33.141  16.768 -0.4829  0.1218 -0.2638
50804W        W93716   8.868  33.947  16.718 -0.1465 -0.2025  0.1646
50805W        W93717   9.263  34.526  18.889  0.0706  0.0054  0.1917
50806W        W93718   9.041   0.970  15.923  0.2614  0.0480  0.0051
50807W        W93719   9.922  32.254  18.420 -0.0405 -0.2604 -0.0463
50808W        W93720   7.570  33.486  19.450 -0.0542 -0.0295  0.3992
50809W        W93721   9.196  32.684  18.319  0.1486 -0.1142 -0.0958
50810W        W93722   7.070   0.768  19.934 -0.1259 -0.0793  0.4869
50811W        W93723   9.261  32.552  16.788 -0.1125  0.0123 -0.0381
50812W        W93724   7.862  32.310  16.035  0.0061 -0.4759  0.2172
50813W        W93725   8.153   1.255  19.491  0.0966 -0.1238  0.1576
50814W        W93726   9.939   0.233  17.290 -0.0385 -0.0466 -0.1653
50815W        W93727   7.030  34.612  17.962  0.0998 -0.3547  0.0798
50816W        W93728   8.883  34.424  18.507 -0.1551  0.4419 -0.0315
50817W        W93729  10.284  34.570  19.793  0.1267  0.0471  0.1685
50818W        W93730   8.513  32.524  17.754  0.0593  0.1610  0.2489
50819W        W93731  10.073  33.455  18.692  0.0525  0.0239 -0.0778
50820W        W93732   9.216   0.435  21.447  0.0511  0.1716 -0.0408
50821W        W93733   7.634  34.337  19.045 -0.1810  0.0100 -0.3590
50822W        W93734   7.594  34.003  19.494 -0.2797 -0.1043  0.1632
50823W        W93735  10.758  34.172  16.174  0.3011 -0.1749 -0.2348
50824W        W93736  10.065  32.630  17.392  0.1893  0.2709 -0.0878
50825W        W93737  11.878  34.578  15.717 -0.0434  0.0479  0.0744
50826W        W93738  10.524  34.424  16.549  0.0896 -0.0006  0.0208
50827W        W93739   6.460   0.430  16.787 -0.0138  0.0511  0.1192
50828W        W93740   9.010   0.185  19.903  0.0076 -0.1078  0.2779
50829W        W93741   8.057  33.535  17.179 -0.0402  0.0015  0.0344
50830W        W93742   7.996  33.600  19.669 -0.0243 -0.3867  0.1383
50831W        W93743  10.131   1.301  17.053 -0.3651  0.0746 -0.0811
50832W        W93744   7.346  33.617  17.699  0.3574  0.1546  0.1061
50833W        W93745   8.861  33.581  14.745 -0.0310  0.1628 -0.0862
50834W        W93746   8.881  33.241  15.660  0.4438 -0.2836  0.2039
50835W        W93747   8.629  32.818  15.532  0.0347 -0.2325  0.0993
50836W        W93748  10.533  33.474  19.386  0.2880  0.0520  0.0186
50837W        W93749   9.276  32.558  16.293 -0.1306  0.0906  0.0143
50838W        W93750   9.532  32.642  17.635  0.2219  0.1982  0.0292
50839W        W93751   9.588  34.548  16.924 -0.0358  0.2833 -0.3345
50840W        W93752   9.626  33.685  16.766 -0.0930 -0.2046  0.0137
50841W        W93753   9.496   0.435  19.767 -0.0889  0.3470  0.1298
50842W        W93754   7.980  34.178  16.190 -0.1490 -0.0109 -0.0461
50843W        W93755   6.254  32.138  19.823  0.0214  0.0001  0.1290
50844W        W93756   7.981  33.197  17.649 -0.0748 -0.0275  0.0735
50845W        W93757   9.210  32.944  15.867 -0.2568  0.0084 -0.2999
50846W        W93758  10.082  33.511  16.496 -0.0412 -0.3266 -0.2696
50847W        W93759  11.016  33.811  16.401 -0.0106 -0.0228  0.2247
50848W        W93760  10.216  34.351  18.200 -0.0732 -0.0233  0.1012
50849W        W93761  10.060   0.574  16.942  0.2817 -0.2214 -0.0328
50850W        W93762   9.408  31.971  16.876  0.2360 -0.0003 -0.3266
50851W        W93763   7.560   0.192  19.193  0.2235  0.2148  0.1061
50852W        W93764  10.518  34.597  18.528 -0.1118  0.0769  0.0501
50853W        W93765   8.076  33.742  16.633  0.0319 -0.0510  0.2167
50854W        W93766   7.411   0.059  16.074  0.0452  0.4388  0.1267
50855W        W93767  11.379  33.551  19.679  0.1237 -0.0037 -0.0819
50856W        W93768  10.104  33.949  16.198  0.1455 -0.2437 -0.4514
50857W        W93769   7.975  33.190  16.264  0.2047  0.0325  0.2859
50858W        W93770  11.245  33.875  16.873 -0.1169  0.1016  0.0329
50859W        W93771   7.341  34.091  18.646  0.0347  0.1210 -0.3198
50860W        W93772   8.930  34.332  19.195  0.2732  0.0556 -0.1037
50861W        W93773   8.259  34.623  16.455 -0.2460 -0.2537  0.1147
50862W        W93774   9.868  34.075  17.112 -0.2656 -0.1465 -0.0408
50863W        W93775   9.409  33.637  17.815 -0.1195 -0.3033  0.2588
50864W        W93776   9.451  34.443  15.566  0.0311 -0.3301  0.0051
50865W        W93777  11.441   0.239  18.131  0.1161  0.1027  0.2212
50866W        W93778   9.271  33.961  16.434 -0.0183  0.3740  0.0365
50867W        W93779   8.142  32.822  17.954  0.0900 -0.4049 -0.0324
50868W        W93780   9.109  32.375  15.841  0.2447  0.0954 -0.0165
50869W        W93781   8.206  34.559  17.050 -0.0558  0.0030 -0.3051
50870W        W93782   7.287  34.658  20.027  0.0370  0.2591 -0.2623
50871W        W93783   8.776  32.276  17.472  0.1668  0.1947 -0.3885
50872W        W93784   9.323  34.161  17.847  0.2565  0.2566 -0.2007
50873W        W93785  10.622   1.194  16.922  0.2787 -0.4290 -0.0476
50874W        W93786   7.353  34.301  18.055 -0.1780  0.2101  0.3206
50875W        W93787   7.944  32.818  15.856  0.2151 -0.4067  0.4238
50876W        W93788   8.151  34.040  17.187 -0.0915  0.0576 -0.3596
50877W        W93789  10.407   0.284  17.019 -0.1225  0.1373 -0.4611
50878W        W93790   9.550  33.170  17.571  0.2483 -0.1059 -0.2224
50879W        W93791   8.971  34.428  17.607  0.1722 -0.1026 -0.2107
50880W        W93792   9.201  32.855  17.322 -0.0478 -0.0704 -0.2491
50881W        W93793   8.459  33.706  16.934  0.0863 -0.1714  0.4616
50882W        W93794  11.120  33.314  16.316  0.2671 -0.0272  0.0745
50883W        W93795   9.779  32.238  17.176 -0.1402 -0.2625  0.0939
50884W        W93796   7.228  33.864  19.146 -0.2355 -0.1474 -0.0060
50885W        W93797   6.841  33.556  16.324  0.2650 -0.2409 -0.1877
50886W        W93798   8.242  33.416  20.987 -0.2944 -0.1610 -0.1583
50887W        W93799   7.800  33.827  19.010 -0.0707 -0.3501 -0.1117
50888W        W93800   8.027   0.440  16.517 -0.1212  0.0233  0.3471
50889W        W93801   8.676  33.529  16.537  0.0091  0.3200  0.1082
50890W        W93802   7.792  32.744  18.264 -0.1450 -0.0265  0.0605
50891W        W93803   7.720  32.215  17.506 -0.1071 -0.1055  0.1086
50892W        W93804   8.766  34.172  17.158 -0.0785 -0.2318  0.0417
50893W        W93805   8.212  34.676  18.830 -0.1503 -0.1017 -0.0372
50894W        W93806   8.020  33.580  18.639  0.2631  0.0401 -0.4729
50895W        W93807   8.528  33.282  15.216  0.1400 -0.0180 -0.2037
50896W        W93808   8.598  33.553  18.899 -0.1606 -0.0222 -0.2244
50897W        W93809   8.071  32.027  18.351  0.5772 -0.3322 -0.0293
50898W        W93810  10.849  32.304  17.854  0.3259  0.2268  0.0527
50899W        W93811   9.151  34.450  16.616  0.1580 -0.1548 -0.1247
50900W        W93812   7.223  32.776  20.146 -0.2211  0.0808  0.3834
50901W        W93813   8.554  31.205  18.284 -0.1038 -0.3729  0.1624
50902W        W93814   9.036  33.899  17.542 -0.1154 -0.2698 -0.1433
50903W        W93815   6.194   0.013  16.615 -0.0704 -0.0227 -0.0174
50904W        W93816  11.250   0.150  16.575  0.0334  0.3063 -0.2061
50905W        W93817   8.624   0.005  17.948 -0.0623 -0.2763  0.2626
50906W        W93818   8.758  33.268  16.126  0.1766  0.3233  0.0858
50907W        W93819  11.684   1.506  16.104  0.1189 -0.3200 -0.0319
50908W        W93820   8.396  32.908  19.290 -0.1574  0.1872  0.1811
50909W        W93821   8.391  33.027  15.980 -0.0506 -0.0796 -0.0662
50910W        W93822   8.900  34.250  16.184  0.0080  0.0286  0.0927
50911W        W93823  10.100  32.725  16.800  0.0670 -0.3939 -0.0470
50912W        W93824   8.144  33.805  17.660  0.1516  0.2338 -0.0384
50913W        W93825   8.868  33.140  16.895  0.1432 -0.0137  0.1179
50914W        W93826   6.895  34.655  19.615 -0.0362 -0.1023  0.3370
50915W        W93827   9.305  33.617  19.160 -0.2906 -0.1651  0.2824
50916W        W93828  11.302  33.850  21.151 -0.3332  0.0643  0.0569
50917W        W93829   7.071  34.463  21.588 -0.1379 -0.4805 -0.0928
50918W        W93830   8.516  31.427  23.405 -0.2309 -0.0753 -0.1298
50919W        W93831   9.423   1.789  20.689 -0.1879  0.2811  0.0426
50920W        W93832   9.912   0.541  22.700 -0.2110  0.0519 -0.2168
50921W        W93833   8.331  33.399  20.439 -0.1588  0.0441 -0.0509
50922W        W93834   7.283  32.414  21.731 -0.0254 -0.0308  0.3871
50923W        W93835   9.084   0.098  21.931 -0.1924 -0.3869 -0.1487
50924W        W93836   6.417   0.027  20.072 -0.1533  0.1600 -0.0286
50925W        W93837   9.556  34.597  22.022  0.1252  0.0052 -0.4521
50926W        W93838   7.569   0.308  20.230 -0.1799  0.3595 -0.0279
50927W        W93839   8.540  32.999  21.156  0.1365  0.0695  0.0084
50928W        W93840   9.741  32.075  21.805  0.1938  0.1330  0.1355
50929W        W93841   6.742   0.206  18.297 -0.0362  0.0981  0.1777
50930W        W93842   6.176   0.683  21.981  0.0406 -0.1161 -0.0088
50931W        W93843   9.010   0.550  23.201  0.1270 -0.0578 -0.1307
50932W        W93844   9.643  34.033  20.890  0.0396  0.0423 -0.1837
50933W        W93845   8.966   0.332  20.747 -0.3024  0.0267 -0.0662
50934W        W93846   9.558  34.229  22.891  0.2612  0.1377  0.1955
50935W        W93847   8.754   0.694  21.581 -0.1669  0.3891 -0.1623
50936W        W93848   8.046   0.487  19.923  0.0622 -0.1098  0.1162
50937W        W93849  10.814  33.009  23.026 -0.0347  0.1997  0.1563
50938W        W93850  10.212  33.957  20.144  0.1375  0.2104 -0.3008
50939W        W93851   8.945  33.766  20.011 -0.1861 -0.5199  0.0608
50940W        W93852   9.653  32.399  20.217 -0.0742  0.1011  0.1560
50941W        W93853   7.767  32.894  22.172  0.1609  0.2412 -0.0465
50942W        W93854   8.308  33.861  22.827 -0.0184 -0.2126  0.0025
50943W        W93855   9.006  34.122  21.985 -0.1625  0.0910  0.1050
50944W        W93856  10.800  34.320  22.295  0.2025 -0.0509 -0.0131
50945W        W93857   7.990  33.878  22.318  0.0153 -0.1379  0.1453
50946W        W93858   6.655   0.397  21.213  0.2783  0.0721  0.0365
50947W        W93859   7.823  33.530  24.559  0.0290 -0.2954  0.2058
50948W        W93860   7.447  34.078  23.742 -0.1157 -0.1215 -0.1613
50949W        W93861   7.214  32.383  18.770 -0.2021  0.0933  0.0063
50950W        W93862  10.197  33.363  21.739 -0.1472  0.0502  0.0931
50951W        W93863  10.715  32.704  21.026 -0.1040  0.0856 -0.2097
50952W        W93864   9.465  33.112  21.015  0.0633  0.0732  0.3868
50953W        W93865   8.847   1.151  21.376  0.3827  0.4245 -0.3522
50954W        W93866   9.284  33.129  22.571  0.0595 -0.3335 -0.0880
50955W        W93867   7.800  33.672  21.650 -0.3705  0.1464  0.3724
50956W        W93868   9.963  33.487  20.278 -0.1256 -0.1172  0.0499
50957W        W93869   7.536  33.252  22.772 -0.0935  0.2162  0.0368
50958W        W93870  11.647  32.557  19.875 -0.1180  0.1974  0.3398
50959W        W93871   9.384  33.643  20.216  0.0682 -0.0430  0.1188
50960W        W93872   7.564  33.509  22.098  0.3024 -0.0702 -0.2475
50961W        W93873   7.429  33.237  20.865  0.2799  0.0948 -0.3636
50962W        W93874   9.043  33.140  23.860  0.0141  0.0717  0.4251
50963W        W93875   6.824  33.873  21.713  0.1329  0.1277  0.1035
50964W        W93876  10.846   2.380  24.104 -0.3587 -0.0626 -0.0770
50965W        W93877   7.589  34.531  21.131 -0.0888  0.1952 -0.2822
50966W        W93878  11.073  33.822  22.062 -0.2973 -0.0626  0.1169
50967W        W93879   5.955  33.597  21.584 -0.1535 -0.1275 -0.1231
50968W        W93880   9.919  33.765  21.739 -0.4461 -0.1331  0.2732
50969W        W93881   8.875  33.700  24.421  0.1989  0.0692 -0.2180
50970W        W93882   6.708  34.486  20.701 -0.1599 -0.1837 -0.0399
50971W        W93883   6.777  32.976  20.055 -0.2159 -0.1535 -0.2150
50972W        W93884   9.795  33.017  22.410 -0.0890 -0.0266  0.0097
50973W        W93885   8.595  34.525  21.659 -0.2654  0.3245  0.3088
50974W        W93886   7.934  32.368  18.697 -0.1406  0.0130 -0.1160
50975W        W93887   6.881  33.295  20.672 -0.1988 -0.3336  0.2427
50976W        W93888  11.008  33.347  21.114 -0.0771  0.0829 -0.0050
50977W        W93889   7.904  34.243  22.789  0.0650 -0.2417 -0.0400
50978W        W93890   9.355   0.170  23.372 -0.2799  0.0511  0.4417
50979W        W93891   6.168  34.174  21.276  0.1128 -0.0532  0.0367
50980W        W93892   8.944  32.706  22.577  0.0171  0.1922 -0.0625
50981W        W93893  10.720  33.075  19.085 -0.0290  0.2739 -0.0111
50982W        W93894   9.397  34.146  19.987  0.0632  0.0010  0.1621
50983W        W93895   8.647  33.740  20.895 -0.2472  0.2811  0.1124
50984W        W93896   8.567  34.257  21.226 -0.1822 -0.1706  0.0443
50985W        W93897   8.150  31.077  21.571 -0.0567 -0.1962 -0.1233
50986W        W93898   8.291  34.259  20.619  0.0620  0.3213  0.1067
50987W        W93899   8.147   0.097  21.673 -0.2556  0.0599  0.0426
50988W        W93900  10.172  32.987  22.120 -0.3282  0.3028  0.1863
50989W        W93901   9.504  34.449  20.444  0.3227  0.1449  0.0631
50990W        W93902   9.882  33.857  22.711  0.0095  0.0454  0.2005
50991W        W93903   9.860  33.924  24.684  0.0088 -0.1185 -0.0729
50992W        W93904   9.282  33.897  21.552 -0.1160  0.1364 -0.0436
50993W        W93905   9.502   0.965  21.646  0.1828  0.4105  0.4881
50994W        W93906   8.003  33.368  19.266 -0.0119 -0.0538  0.2095
50995W        W93907   7.919  31.510  21.542 -0.0343  0.1405 -0.2787
50996W        W93908   9.217  34.611  22.442 -0.0466  0.2455 -0.0698
50997W        W93909   9.586  32.882  20.130  0.2512 -0.0897  0.0213
50998W        W93910   7.706  33.184  21.736  0.2886  0.0595 -0.1518
50999W        W93911  10.215  32.382  21.985  0.2099 -0.2621 -0.0442
51000W        W93912   8.062  34.186  18.704  0.2547 -0.2656 -0.0299
51001W        W93913   6.943   0.183  20.565 -0.0749 -0.1733 -0.2068
51002W        W93914   9.840  33.284  21.316 -0.0561  0.1089 -0.2242
51003W        W93915   7.599  34.194  22.406  0.0163  0.3024 -0.2877
51004W        W93916   8.310  32.266  21.954 -0.2511  0.4288 -0.0287
51005W        W93917   9.156   0.809  21.959 -0.2084  0.0596 -0.0587
51006W        W93918   9.440  32.382  20.749  0.2180  0.3195 -0.0115
51007W        W93919   7.486  33.145  24.381  0.1626 -0.0575 -0.1319
51008W        W93920   7.849  31.982  19.211 -0.4660 -0.0435 -0.0915
51009W        W93921   9.501  33.997  21.966  0.2360 -0.0145  0.0197
51010W        W93922   7.036  33.877  20.284 -0.0603  0.1265 -0.2264
51011W        W93923   6.845  33.424  19.590 -0.1721 -0.0139 -0.0096
51012W        W93924   7.918  33.399  24.053 -0.3304 -0.1060 -0.0390
51013W        W93925   8.094  32.747  21.807  0.1896 -0.4231 -0.3021
51014W        W93926   8.950  33.237  20.863  0.2174  0.0638  0.1354
51015W        W93927   7.757   1.846  20.458 -0.2844 -0.1594  0.0846
51016W        W93928   9.149  34.027  23.099  0.1538 -0.3121 -0.1117
51017W        W93929   9.012  32.908  21.242 -0.0225 -0.2242  0.0537
51018W        W93930   9.701   0.376  23.717  0.1056  0.2152  0.1496
51019W        W93931  10.375   0.185  22.427 -0.2047  0.2139 -0.0149
51020W        W93932   9.203  33.459  21.305  0.4973 -0.1319 -0.1633
51021W        W93933   9.501  33.511  21.752  0.1766  0.0264  0.1776
51022W        W93934   9.948  34.113  23.131  0.0305  0.1449  0.0543
51023W        W93935   7.749   0.278  19.629 -0.1139  0.1575  0.2309
51024W        W93936   9.630  34.302  21.559  0.1097 -0.0566  0.0233
51025W        W93937   9.140  33.876  23.569  0.0575 -0.0345  0.5267
51026W        W93938   7.128   0.214  22.655 -0.2219  0.1356  0.1266
51027W        W93939   8.461   0.572  23.207  0.0967 -0.3854  0.1138
51028W        W93940   7.433  33.846  20.851  0.0464 -0.2635 -0.2607
51029W        W93941   8.427  34.310  20.124 -0.2174  0.2896  0.0638
51030W        W93942   8.611  32.968  21.721  0.0250  0.1718  0.0926
51031W        W93943  12.002  32.614  20.572 -0.1522 -0.1847 -0.2453
51032W        W93944   8.926  34.259  22.673  0.2009  0.0771 -0.0434
51033W        W93945   8.462   0.028  20.801  0.0163 -0.1714  0.0259
51034W        W93946   8.513   0.182  24.104 -0.2692 -0.0820 -0.1350
51035W        W93947   8.725  34.096  19.580 -0.1134 -0.0383  0.1190
51036W        W93948   9.966   0.108  22.059 -0.0256 -0.1579  0.0742
51037W        W93949   8.989   0.502  22.293  0.0517 -0.1442 -0.0294
51038W        W93950   8.371  33.706  24.673 -0.2971  0.1608 -0.1046
51039W        W93951   8.569  34.376  23.048  0.2067 -0.3334  0.1953
51040W        W93952   9.577  34.342  19.557 -0.0657  0.0008  0.0963
51041W        W93953  10.951  32.894  21.444  0.0569  0.3109 -0.2260
51042W        W93954  10.880  33.760  20.864 -0.1079 -0.0847  0.0504
51043W        W93955   8.810  34.312  20.667  0.0347 -0.2351 -0.2285
51044W        W93956   6.515  34.492  22.401  0.1066 -0.1945 -0.1319
51045W        W93957   9.768   0.459  21.713 -0.1960  0.0181  0.0762
51046W        W93958   9.070  34.021  21.060  0.1687 -0.4639 -0.2763
51047W        W93959   9.180  32.510  22.134  0.4059 -0.0313  0.2381
51048W        W93960   8.158  33.975  20.997  0.1153  0.1106 -0.0201
51049W        W93961   7.842  33.102  21.172  0.3279 -0.3413  0.1370
51050W        W93962   6.651  33.852  19.839  0.1233 -0.0309  0.2866
51051W        W93963   8.105  34.597  19.773 -0.2530 -0.1353  0.0912
51052W        W93964   8.045  33.831  20.393  0.4484  0.3326 -0.2341
51053W        W93965   9.419  34.323  23.380  0.0714 -0.0370 -0.2260
51054W        W93966   9.045  34.349  21.525 -0.1571 -0.2511  0.0028
51055W        W93967   9.048  33.297  21.769  0.0347 -0.0110 -0.0309
51056W        W93968   9.917  34.454  20.886 -0.0668  0.1214  0.1203
51057W        W93969  10.071   0.557  22.242  0.0470  0.1969  0.2856
51058W        W93970  10.829  34.063  23.125 -0.2760 -0.0357 -0.1505
51059W        W93971   7.704   0.398  21.833  0.1082 -0.1118  0.0012
51060W        W93972   7.679  33.638  23.688 -0.1800  0.0157 -0.2004
51061W        W93973   7.075   0.094  21.192  0.0771 -0.1225  0.0124
51062W        W93974   7.765  34.302  20.731  0.2023  0.1347 -0.1114
51063W        W93975  10.068  33.549  19.147 -0.1322  0.0700  0.1088
51064W        W93976  10.237   0.398  19.868 -0.0297 -0.1557  0.0510
51065W        W93977  10.366  33.159  20.435 -0.3414 -0.0546 -0.0179
51066W        W93978   8.799  33.156  22.323  0.0911  0.0218  0.3274
51067W        W93979   7.613  32.461  19.136  0.1956 -0.1243  0.0654
51068W        W93980   8.385  33.291  23.010  0.0595  0.1695 -0.1371
51069W        W93981  10.244  33.239  23.964  0.2602 -0.0514 -0.0104
51070W        W93982   6.034   0.388  20.228 -0.1516 -0.1202 -0.0782
51071W        W93983   8.565  33.884  20.359 -0.0717  0.1428  0.0292
51072W        W93984  10.929  32.625  23.344  0.2626  0.0841 -0.3078
51073W        W93985   9.716  33.771  21.303 -0.0391 -0.2111 -0.0265
51074W        W93986   7.070  32.495  19.754 -0.0055  0.1730 -0.2539
51075W        W93987  10.488  33.575  19.909 -0.0198 -0.0158  0.1679
51076W        W93988   7.649  34.079  21.898  0.0392 -0.1751  0.1913
51077W        W93989  10.580  32.543  21.564 -0.3895 -0.1284  0.1073
51078W        W93990   7.542  33.015  20.446  0.0673 -0.2561  0.1844
51079W        W93991   9.823  32.777  21.136  0.2405 -0.2991 -0.0287
51080W        W93992   7.947  33.892  23.235  0.0581 -0.0307 -0.0541
51081W        W93993   8.741   1.240  19.420  0.0936  0.1492  0.2826
51082W        W93994  10.819   1.060  22.376  0.1708  0.0090  0.0869
51083W        W93995   8.504   0.574  18.991 -0.0244  0.0090  0.0310
51084W        W93996   7.819  33.502  20.668  0.1981  0.3147  0.1918
51085W        W93997   8.258  33.992  21.878 -0.1739  0.0426  0.2152
51086W        W93998   7.554  34.607  21.616 -0.1545 -0.0670  0.3820
51087W        W93999   7.707   0.652  22.305  0.1015 -0.0082  0.0476
51088W        W94000   7.404  33.518  20.417 -0.1369 -0.0097 -0.0738
51089W        W94001  10.016   0.004  21.600  0.1666  0.4156  0.0761
51090W        W94002  11.262  32.982  20.350  0.1206 -0.2128  0.1363
51091W        W94003   8.563  34.070  22.237  0.2699  0.2076 -0.1070
51092W        W94004   7.160  32.407  21.249 -0.2444 -0.0811  0.1696
51093W        W94005   8.785  32.972  20.436  0.1316 -0.1754 -0.1092
51094W        W94006  10.405  34.452  23.248 -0.1023 -0.1585  0.2091
51095W        W94007  11.183   0.367  21.482 -0.3564  0.2595  0.1890
51096W        W94008  10.741  31.732  23.212 -0.0739  0.2494  0.2561
51097W        W94009  10.638  34.436  22.803  0.3444 -0.4081  0.4020
51098W        W94010   7.964  34.231  21.481  0.0200  0.2056 -0.2145
51099W        W94011  10.861  30.641  18.843  0.1011  0.1132 -0.3019
51100W        W94012   9.150  33.173  20.136  0.1200 -0.1451 -0.2445
51101W        W94013   8.765  33.878  21.595  0.2186 -0.0514  0.1313
51102W        W94014   6.300   0.989  21.083  0.0710  0.0976 -0.1711
51103W        W94015  10.201  33.699  23.396  0.0829 -0.4149 -0.3876
51104W        W94016   8.512  34.124  23.665 -0.1123  0.0813  0.0853
51105W        W94017   6.163  33.582  22.042 -0.4114 -0.0366  0.1303
51106W        W94018   6.403  33.342  19.945 -0.0467 -0.2878 -0.0933
51107W        W94019   8.309  31.667  21.918 -0.4104  0.1477 -0.2715
51108W        W94020   7.121  32.741  20.884  0.0224  0.4966  0.2758
51109W        W94021   9.331  33.006  22.089 -0.0319  0.3592 -0.3417
51110W        W94022   8.920   0.985  23.698  0.0535 -0.1085 -0.2007
51111W        W94023   8.192  32.095  22.774 -0.0845 -0.2280 -0.2671
51112W        W94024   5.904  33.926  19.069  0.1745 -0.1922 -0.0862
51113W        W94025   8.773  33.723  23.818  0.0510  0.2779  0.0083
51114W        W94026   7.302  33.671  21.664  0.1945 -0.0758  0.2597
51115W        W94027  10.623  33.009  21.790 -0.4924  0.0092 -0.0205
51116W        W94028   8.163   0.118  20.288 -0.1186 -0.0660  0.2824
51117W        W94029   7.965  33.009  22.764 -0.1902  0.1636  0.1025
51118W        W94030   7.357  33.306  21.358  0.0516 -0.0754 -0.1262
51119W        W94031   8.887  33.484  20.457  0.2515 -0.1913  0.0283
51120W        W94032   8.603  33.456  21.828 -0.2304  0.0051  0.0561
51121W        W94033   6.518  34.562  21.399 -0.0830 -0.3449 -0.0763
51122W        W94034   9.657   0.194  22.463  0.1697 -0.0495 -0.0244
51123W        W94035   7.512  34.081  20.309  0.0423  0.0033  0.2290
51124W        W94036  10.426  34.554  20.847  0.3935 -0.2594 -0.0450
51125W        W94037   9.547  33.540  22.254 -0.0398 -0.1263 -0.1201
51126W        W94038   6.748   1.634  19.450 -0.1180 -0.1549 -0.1802
51127W        W94039   6.860   0.653  22.477 -0.1025  0.0880 -0.1651
51128W        W94040   9.507   0.058  21.366 -0.0608 -0.3077  0.2190
51129W        W94041   8.026  34.369  22.146  0.2600  0.0586  0.3777
51130W        W94042   9.462  34.656  19.922 -0.0427  0.2383  0.2871
51131W        W94043   7.335  33.265  23.882 -0.1886 -0.1234  0.3298
51132W        W94044  10.145  34.185  23.598 -0.2711 -0.1414 -0.1073
51133W        W94045  10.028  34.540  24.310  0.1254 -0.0559  0.1172
51134W        W94046   7.861  33.756  25.025  0.3610  0.1140  0.2044
51135W        W94047   6.147  32.490  26.497 -0.3927 -0.2363 -0.1362
51136W        W94048   9.987   0.238  23.306  0.0165 -0.0522 -0.0649
51137W        W94049   8.657  34.227  26.581 -0.0255  0.0700 -0.2373
51138W        W94050   8.681  33.846  23.302 -0.2696  0.1114  0.5037
51139W        W94051   7.629  31.677  26.553 -0.4174 -0.1582 -0.0679
51140W        W94052   9.292   1.079  25.833  0.1028 -0.0634 -0.0572
51141W        W94053   6.635  34.425  25.214 -0.0385 -0.2300 -0.0486
51142W        W94054   8.751  33.640  26.661 -0.0430  0.3725 -0.1286
51143W        W94055   8.647  34.145  24.618 -0.1986 -0.0789 -0.1431
51144W        W94056   8.244  33.714  27.261  0.2878  0.3570 -0.0881
51145W        W94057   8.607  34.058  27.070  0.2130 -0.1746 -0.0129
51146W        W94058   8.171  33.624  23.613  0.0663  0.0111  0.0240
51147W        W94059   6.524  33.001  25.522  0.4528  0.1522 -0.4402
51148W        W94060   7.340   0.434  26.403  0.0518 -0.1762  0.1096
51149W        W94061   9.954  33.893  25.977 -0.0816 -0.2252  0.2739
51150W        W94062   9.754  34.171  25.082  0.1833  0.0469  0.0467
51151W        W94063   8.831   0.115  26.328  0.0038  0.4240  0.2458
51152W        W94064   9.710   0.216  25.711  0.1020 -0.1057 -0.0627
51153W        W94065   9.188  33.277  25.126 -0.2168  0.0467  0.2748
51154W        W94066  10.729  34.429  27.768 -0.2413  0.1352 -0.0776
51155W        W94067  10.664  34.409  23.654  0.0513  0.0449  0.0442
51156W        W94068   8.797  33.769  22.778 -0.1750 -0.2564 -0.0705
51157W        W94069   9.244  33.859  24.861  0.1653  0.5037 -0.1059
51158W        W94070   9.624  33.701  26.284 -0.0177  0.1991  0.2611
51159W        W94071   8.007  33.807  25.898 -0.1163 -0.0109 -0.2651
51160W        W94072   8.489   0.880  25.030 -0.2626  0.0824 -0.1655
51161W        W94073   9.114  33.541  25.623 -0.3330 -0.0365  0.0375
51162W        W94074   8.361  33.183  25.822 -0.2009 -0.0762  0.0646
51163W        W94075   8.292  33.721  24.131 -0.1204 -0.0826 -0.0347
51164W        W94076   7.762  33.712  26.381 -0.0261 -0.1655 -0.1270
51165W        W94077   6.956  33.961  27.098 -0.1643  0.0088 -0.0487
51166W        W94078   8.663  32.665  22.096  0.0535 -0.2562 -0.0451
51167W        W94079   9.879  33.756  25.461  0.3574  0.0613 -0.0980
51168W        W94080  10.238  33.542  26.326  0.1597 -0.0242 -0.1110
51169W        W94081   9.467  34.167  26.321  0.0038  0.1763 -0.3849
51170W        W94082  11.650   1.640  24.744  0.2140  0.0900  0.0737
51171W        W94083   8.360  34.410  27.325 -0.3631 -0.0157  0.1944
51172W        W94084   5.636  30.861  26.769  0.1330 -0.0705 -0.0057
51173W        W94085  10.184  32.782  23.968 -0.3377  0.0672  0.1230
51174W        W94086   6.870  34.164  26.162  0.1935  0.0294 -0.0495
51175W        W94087  10.489  33.378  25.827  0.3016  0.3468 -0.1054
51176W        W94088  10.217  34.336  24.748  0.1279 -0.0611 -0.0395
51177W        W94089   7.283  33.890  26.453  0.2275  0.4890  0.2880
51178W        W94090   7.349  33.293  25.705 -0.0453  0.2685 -0.0210
51179W        W94091   8.259  33.072  26.612  0.0702  0.1078  0.0281
51180W        W94092   6.049  33.458  26.496  0.2707 -0.0813  0.3031
51181W        W94093  10.538  33.945  26.177 -0.0532 -0.1940 -0.1906
51182W        W94094   6.995  32.153  24.326  0.0141  0.0964  0.1832
51183W        W94095   8.865   0.388  25.438  0.2919  0.0770  0.4190
51184W        W94096   8.107   0.404  23.871  0.0796  0.1038  0.3020
51185W        W94097  10.641  33.775  27.192  0.0661  0.1389  0.3135
51186W        W94098   7.795   0.082  27.430  0.0075 -0.2229  0.1307
51187W        W94099   6.247  33.070  23.769 -0.0802 -0.3151 -0.1664
51188W        W94100   8.276  34.559  24.600 -0.1389  0.0340 -0.3906
51189W        W94101   8.959  34.238  26.185  0.1241  0.0268  0.2929
51190W        W94102   9.111   0.015  24.988 -0.0934  0.1624 -0.0858
51191W        W94103   8.913  34.331  23.419 -0.1551  0.1381  0.0842
51192W        W94104   5.866  34.371  24.929  0.1250 -0.2519 -0.1264
51193W        W94105  10.114  33.318  25.422 -0.3143 -0.0332  0.2583
51194W        W94106   6.279  33.597  28.046  0.1630  0.2848  0.1296
51195W        W94107   8.511   0.045  26.877 -0.0148  0.0027 -0.0874
51196W        W94108   7.038   0.677  24.556 -0.1188 -0.0932  0.0187
51197W        W94109   9.087  32.933  23.406  0.0881  0.2591 -0.1206
51198W        W94110   9.351   0.387  25.141  0.2515  0.0325 -0.1943
51199W        W94111   9.771  33.125  24.122 -0.1240 -0.0769  0.0328
51200W        W94112   9.029  34.051  24.137  0.0283  0.0621  0.1327
51201W        W94113   9.590  33.734  23.116  0.1540  0.4311 -0.0192
51202W        W94114   9.223  32.841  26.305  0.0742 -0.1971 -0.1118
51203W        W94115   7.877   0.565  23.414  0.2274  0.1983 -0.0007
51204W        W94116   7.831  32.955  25.268  0.0875  0.2181  0.2217
51205W        W94117  10.464  33.851  25.576 -0.2550 -0.1470  0.1983
51206W        W94118   8.456   0.146  25.678  0.0086 -0.1839 -0.1089
51207W        W94119   9.177  32.838  27.249  0.2441 -0.1931 -0.1206
51208W        W94120  11.393   0.731  27.269 -0.0364  0.1163 -0.0947
51209W        W94121   9.890  34.049  24.078 -0.4111 -0.2466  0.0002
51210W        W94122   9.105  34.295  24.708 -0.1145 -0.2717 -0.0334
51211W        W94123   8.017  34.084  23.857  0.0616  0.3386  0.0895
51212W        W94124   7.974  33.506  27.657  0.2513  0.0027 -0.1734
51213W        W94125   9.660  34.200  27.244 -0.0319 -0.4760  0.1699
51214W        W94126   9.655  33.928  23.572 -0.1028  0.1482 -0.1272
51215W        W94127   8.670  32.791  26.008  0.1208 -0.0587  0.0721
51216W        W94128   9.283  32.831  25.797 -0.1682  0.3168  0.1221
51217W        W94129   7.217  32.213  23.793 -0.0810  0.0846  0.1202
51218W        W94130   5.531  34.695  26.730  0.1031 -0.2276  0.1550
51219W        W94131   9.686  33.543  25.032 -0.2030  0.1106  0.0426
51220W        W94132   7.564  33.947  26.047  0.2162  0.3275 -0.3111
51221W        W94133   8.889  32.680  25.537  0.2712  0.0911  0.0170
51222W        W94134   9.145   1.632  27.081 -0.3512 -0.0503  0.0450
51223W        W94135   9.380  33.351  23.582  0.1710 -0.1297 -0.0087
51224W        W94136   8.940   1.031  26.672  0.1259  0.0241  0.1951
51225W        W94137   8.383  32.306  23.362 -0.2506  0.0250 -0.0902
51226W        W94138  10.338   0.995  25.732 -0.2770  0.3422  0.1984
51227W        W94139   8.581  34.479  25.240  0.0880 -0.2107  0.1355
51228W        W94140   7.182  33.115  25.269  0.0346 -0.0959 -0.2547
51229W        W94141   8.173   0.115  27.763 -0.0293  0.1233 -0.3899
51230W        W94142   7.042  32.017  25.953  0.2088  0.1191  0.0807
51231W        W94143   7.541  33.322  24.947 -0.0245 -0.0554 -0.2203
51232W        W94144   8.747  33.248  25.426 -0.0907 -0.0211  0.1184
51233W        W94145   8.029  31.711  25.066  0.1990  0.1020  0.0511
51234W        W94146   8.712  33.362  26.150  0.0879 -0.0577  0.1088
51235W        W94147   9.463  34.642  27.110  0.0314  0.1144  0.4245
51236W        W94148   7.873  31.508  25.486  0.1754 -0.1841  0.0445
51237W        W94149   9.692  33.358  22.760 -0.0287  0.1706 -0.2587
51238W        W94150   6.763  32.883  25.036  0.1451 -0.0743 -0.2102
51239W        W94151  10.268  33.574  27.496  0.1352  0.1884  0.0309
51240W        W94152   9.143  34.661  22.919 -0.0002  0.2842  0.2032
51241W        W94153  10.259  33.351  28.735  0.0044 -0.0759 -0.1853
51242W        W94154   6.886  33.462  26.145  0.2057  0.0624  0.1368
51243W        W94155   7.048  32.847  25.654  0.0118 -0.0849 -0.3997
51244W        W94156   7.417   0.421  27.721  0.0937  0.1517 -0.0186
51245W        W94157   8.771  34.047  25.088 -0.4106 -0.0213  0.2005
51246W        W94158  10.396  32.686  23.110  0.0000 -0.1204  0.0098
51247W        W94159   7.489  34.370  27.113 -0.0287  0.2965 -0.1893
51248W        W94160  10.229  34.153  25.285  0.0032  0.0235  0.0872
51249W        W94161   7.026  34.526  27.132 -0.1069 -0.2110 -0.0517
51250W        W94162  10.025  34.680  25.425 -0.0721 -0.0141 -0.0592
51251W        W94163   7.763  33.151  26.426 -0.1776 -0.1200  0.1269
51252W        W94164   9.916  33.421  25.913 -0.3678  0.0355  0.0215
51253W        W94165   8.800   0.424  25.935 -0.0792  0.1792 -0.1739
51254W        W94166  11.218  33.741  27.132  0.2068 -0.1118  0.0901
51255W        W94167   8.405  34.274  25.766  0.0966  0.1286 -0.1695
51256W        W94168   7.790  32.157  26.643  0.1028  0.1192 -0.0790
51257W        W94169  10.362  33.935  22.939 -0.4495  0.0804 -0.0917
51258W        W94170  10.377  33.216  27.140  0.0098 -0.0068 -0.0484
51259W        W94171  10.258  33.757  23.974 -0.1504  0.0491 -0.1016
51260W        W94172   9.347  34.101  22.469 -0.0930  0.1085  0.0469
51261W        W94173   6.829  33.322  25.655  0.0377 -0.1182  0.1625
51262W        W94174  10.506   0.521  26.600 -0.3814 -0.1096 -0.1085
51263W        W94175   8.784   0.114  23.219 -0.0696  0.0065  0.1603
51264W        W94176   7.997  34.120  27.133 -0.0928  0.2677  0.1212
51265W        W94177   9.238   0.612  23.652  0.0662  0.0580  0.2266
51266W        W94178   7.261  32.147  25.488  0.2367  0.0251 -0.0035
51267W        W94179   7.741  34.517  24.791 -0.0631 -0.1636 -0.1201
51268W        W94180   9.209   0.780  24.555  0.0516 -0.0769 -0.2656
51269W        W94181  10.206  33.320  22.660 -0.0512 -0.3566  0.4088
51270W        W94182  11.307  33.468  26.428  0.3180 -0.0231  0.1464
51271W        W94183   9.397  32.436  24.758 -0.1571 -0.2798  0.2447
51272W        W94184   9.099  33.994  26.634  0.0656 -0.0339 -0.0706
51273W        W94185   9.523  33.194  25.475 -0.0665  0.1808 -0.1802
51274W        W94186   9.131  34.511  26.629 -0.3282  0.4059 -0.2519
51275W        W94187  11.280  34.147  25.745 -0.1256 -0.1192  0.3672
51276W        W94188   7.417   0.350  25.644 -0.0100  0.1014 -0.0442
51277W        W94189   8.746  33.530  24.998  0.2119 -0.0971  0.0150
51278W        W94190   7.672  32.441  25.042 -0.3349  0.2662  0.0259
51279W        W94191   7.996  32.610  24.452  0.1747  0.2609  0.1118
51280W        W94192  10.653  33.409  23.655  0.1695  0.1753 -0.4929
51281W        W94193   9.342  31.965  26.011  0.0980  0.0109  0.0462
51282W        W94194  10.904  32.265  25.199 -0.0037 -0.0471  0.2088
51283W        W94195   8.183  33.431  25.459 -0.2351  0.2166 -0.1690
51284W        W94196   8.853  33.250  22.844 -0.0424  0.1196  0.1320
51285W        W94197   7.560   0.218  28.485  0.3663 -0.0723  0.2618
51286W        W94198  11.190  32.256  27.219  0.0290 -0.2880  0.2928
51287W        W94199   6.064  33.676  24.552 -0.0308 -0.2757 -0.0252
51288W        W94200   8.449  32.862  25.285  0.0218  0.0760  0.2104
51289W        W94201  10.649  32.875  27.002 -0.0006  0.1002 -0.3309
51290W        W94202   9.224  33.273  24.297 -0.0337 -0.0028 -0.0931
51291W        W94203   7.644  31.918  25.275 -0.2281 -0.1967 -0.3985
51292W        W94204  10.134  33.460  24.463 -0.0783 -0.3321 -0.1032
51293W        W94205   8.715   0.977  27.238 -0.0946 -0.0331 -0.1039
51294W        W94206  11.036  33.028  26.500 -0.0040  0.0983  0.0152
51295W        W94207   7.267  33.646  25.234 -0.0114 -0.0306  0.0954
51296W        W94208  11.084  32.881  25.104 -0.0650 -0.1093 -0.2192
51297W        W94209   8.239  33.888  26.566 -0.1170  0.3286 -0.2974
51298W        W94210   9.566   0.032  24.062 -0.1650 -0.2632  0.0189
51299W        W94211  10.216   0.590  26.131 -0.2026 -0.1319 -0.0071
51300W        W94212  10.143  34.658  22.886 -0.3020 -0.1284  0.1257
51301W        W94213   8.505  32.356  25.835 -0.1338 -0.1292 -0.0603
51302W        W94214   8.758  34.659  24.675  0.1609  0.1588  0.2396
51303W        W94215   8.170  33.350  24.947  0.0212 -0.1858  0.0628
51304W        W94216   8.444  34.545  26.217  0.3699 -0.0091  0.1321
51305W        W94217   6.759  31.681  25.711  0.6214 -0.1211  0.4009
51306W        W94218  10.202   0.192  26.487  0.5162  0.2727 -0.0253
51307W        W94219   9.390  33.853  25.329 -0.2810  0.1482 -0.0183
51308W        W94220   7.372  31.597  25.650  0.0500  0.2142  0.0441
51309W        W94221   8.629  32.447  25.075  0.2383 -0.2005 -0.2828
51310W        W94222   8.566  33.895  26.031 -0.0138  0.2290  0.1217
51311W        W94223   9.401  33.358  26.031  0.2173  0.0707  0.1148
51312W        W94224  10.894  34.248  26.962 -0.0941 -0.3439  0.0071
51313W        W94225  10.142  33.999  27.148 -0.2297 -0.4753 -0.0927
51314W        W94226   9.603   0.936  23.874  0.0941  0.0128 -0.0809
51315W        W94227   7.011  33.249  24.740 -0.2047  0.1934 -0.0596
51316W        W94228  11.201  31.801  24.805  0.3147  0.0825  0.2366
51317W        W94229   9.863  31.843  25.318  0.0521  0.2632  0.0237
51318W        W94230   7.768  34.431  28.428  0.0095  0.2264  0.1142
51319W        W94231   7.270  34.110  24.197 -0.5671 -0.0857  0.1302
51320W        W94232   7.918  33.522  26.785  0.1620  0.0215  0.2462
51321W        W94233   6.865  33.208  26.679 -0.0423 -0.1876  0.1290
51322W        W94234   7.706  33.848  24.146  0.0436  0.0113 -0.0632
51323W        W94235   7.432  32.812  24.876  0.1811 -0.0942 -0.0627
51324W        W94236   7.236  33.005  26.457 -0.2100  0.0201  0.1988
51325W        W94237   5.244  34.095  26.173 -0.0679 -0.1862  0.0235
51326W        W94238   8.015  34.008  25.410 -0.4066 -0.1816  0.0881
51327W        W94239   9.196  34.277  28.580 -0.3073 -0.1981  0.2073
51328W        W94240   8.225  33.429  26.252  0.0926  0.0870 -0.0388
51329W        W94241   7.026  33.692  24.040 -0.4308  0.0805  0.1872
51330W        W94242   9.296  34.344  25.770  0.4088  0.1522 -0.4147
51331W        W94243   6.544  33.738  25.850  0.2427 -0.1735 -0.2638
51332W        W94244  11.336  33.199  25.464  0.0715 -0.0900  0.2178
51333W        W94245   9.096   0.199  23.800  0.0647  0.1177  0.1284
51334W        W94246   7.330  33.444  26.674  0.1900  0.1931 -0.0218
51335W        W94247   9.461  32.717  24.306  0.1845 -0.1803 -0.3475
51336W        W94248   8.630  34.607  23.754  0.1013 -0.1651 -0.2386
51337W        W94249   7.394  33.463  26.197  0.1155  0.1471 -0.0712
51338W        W94250   7.425  33.792  23.241  0.0973 -0.0002 -0.0134
51339W        W94251   9.139  34.291  25.273  0.2092 -0.3325  0.0490
51340W        W94252  10.270   0.612  23.529  0.0392  0.0048  0.2106
51341W        W94253  11.055   0.793  25.238  0.0546  0.1317  0.1377
51342W        W94254   7.720  33.392  25.397 -0.2444 -0.1527 -0.0717
51343W        W94255   6.569   1.946  24.511  0.0927  0.1285  0.0503
51344W        W94256   9.872   1.327  25.845 -0.2204 -0.0819  0.2725
51345W        W94257   9.718  33.201  26.415  0.0569  0.0827 -0.4259
51346W        W94258   6.377  31.849  25.368 -0.1555 -0.5057  0.1664
51347W        W94259  10.058  33.700  22.273 -0.1823  0.0384 -0.0802
51348W        W94260   7.997  32.583  28.092 -0.1948  0.1764 -0.1996
51349W        W94261  11.269  34.475  27.616  0.2850 -0.5408  0.0183
51350W        W94262  11.628  34.219  28.098  0.0008  0.1484 -0.1575
51351W        W94263   7.239  31.608  28.313 -0.3350 -0.1995  0.1823
51352W        W94264   7.907  32.545  31.375  0.0484  0.2011  0.0968
51353W        W94265   8.214  34.385  26.721  0.1220  0.2479 -0.0837
51354W        W94266   8.457  33.672  29.999 -0.0647  0.0917  0.0779
51355W        W94267   9.420  33.249  27.449 -0.1385  0.1569  0.1842
51356W        W94268   8.551  31.491  28.922  0.0019 -0.3932  0.2988
51357W        W94269   9.979  33.224  29.719 -0.0670  0.0089 -0.0983
51358W        W94270   6.981   0.732  27.835 -0.2839 -0.2106 -0.1042
51359W        W94271   8.786  32.847  29.672  0.0691 -0.0596  0.0059
51360W        W94272   8.382  33.512  28.448 -0.0876 -0.0874 -0.3115
51361W        W94273   8.975  33.042   0.041  0.0555 -0.1020  0.2426
51362W        W94274   9.023  33.327  31.178  0.0317  0.3821  0.2632
51363W        W94275   7.134  33.550  27.509  0.2120 -0.0233 -0.0300
51364W        W94276   7.087  33.009  30.873  0.1755 -0.0971 -0.2340
51365W        W94277   7.278   0.759  29.110  0.0557 -0.0746 -0.2510
51366W        W94278   9.185  32.880  31.031 -0.0432 -0.4867  0.0368
51367W        W94279   8.583  32.994  28.440  0.0345  0.0329 -0.3593
51368W        W94280   9.426  33.655  30.986  0.1358  0.2566  0.5534
51369W        W94281   8.712  34.063  30.129 -0.0490  0.3512 -0.0537
51370W        W94282   7.785  34.564  29.902  0.0936 -0.1796 -0.0359
51371W        W94283  11.714  32.265  31.383  0.2003  0.1470  0.2948
51372W        W94284   8.963  34.063  27.971 -0.4230  0.0191 -0.0909
51373W        W94285   9.168  33.661  27.656 -0.0864 -0.1118  0.1079
51374W        W94286   9.519  32.944  27.897 -0.0976  0.0341  0.2971
51375W        W94287   8.788  32.757  30.782  0.0308 -0.0345  0.0127
51376W        W94288   8.400  34.083  29.111 -0.0207 -0.3846 -0.4474
51377W        W94289   8.712  34.614  27.691 -0.4082  0.1037  0.0897
51378W        W94290   9.433  33.651  30.473 -0.0851  0.1398  0.0988
51379W        W94291   7.632  33.284  29.429 -0.0584  0.3682 -0.0628
51380W        W94292   8.312  34.389  28.668 -0.0321  0.0172 -0.0523
51381W        W94293   6.815   1.110  31.248 -0.0138 -0.1319 -0.2862
51382W        W94294   8.099  33.514  31.738 -0.1030  0.0079 -0.0531
51383W        W94295   8.185  32.746  27.655  0.0534 -0.0003 -0.0443
51384W        W94296   9.288  33.918  28.958 -0.1774 -0.0209  0.0332
51385W        W94297   9.330  32.124  28.866  0.0259  0.0297 -0.2420
51386W        W94298  10.199  33.109  29.273 -0.2489  0.1415 -0.2615
51387W        W94299   9.830  34.321  26.761  0.1543 -0.1323  0.0312
51388W        W94300   8.934  34.037  29.303  0.1069  0.1361  0.0733
51389W        W94301   7.584  32.332  31.063  0.1332  0.0417  0.1009
51390W        W94302  10.234  31.786  28.209 -0.1450  0.0011 -0.1251
51391W        W94303   7.282  32.606  29.318  0.0696 -0.0437 -0.0333
51392W        W94304   9.980  32.597  29.177 -0.4625 -0.0196 -0.0084
51393W        W94305  10.654  33.921  27.740  0.0846 -0.0286  0.0049
51394W        W94306   7.682  34.101  31.028 -0.4645 -0.0409 -0.1185
51395W        W94307   7.600  33.202  28.569 -0.0725 -0.3393  0.1034
51396W        W94308   8.995   0.457  31.295  0.1584  0.0597  0.0960
51397W        W94309   8.916  33.631  30.309  0.1015  0.1712 -0.0947
51398W        W94310  10.869  34.217  30.710 -0.2695 -0.1476  0.0191
51399W        W94311   8.370  31.757  28.044 -0.2749 -0.0015 -0.0137
51400W        W94312   9.787  33.215  28.842  0.0780  0.2056  0.0027
51401W        W94313   8.351  33.204  28.914  0.0496 -0.2235 -0.2073
51402W        W94314  10.311  33.037  30.059 -0.0206 -0.0013 -0.0666
51403W        W94315   8.856  33.802  29.744  0.0206  0.2601 -0.1943
51404W        W94316   7.098  33.394  28.083  0.3828  0.2715  0.0897
51405W        W94317   7.885  33.115  28.962  0.1798  0.2644  0.0863
51406W        W94318   9.226  31.833  31.081  0.0417  0.0965 -0.0258
51407W        W94319  11.097  33.869  29.134  0.5478 -0.0853 -0.1173
51408W        W94320   6.933  32.330  27.505  0.0391  0.0755  0.0391
51409W        W94321   6.834  34.257  28.170  0.2313  0.0809 -0.0082
51410W        W94322  11.138  33.912  29.977  0.0916 -0.2419  0.3657
51411W        W94323   7.243  32.732   0.947 -0.0274  0.0575 -0.2425
51412W        W94324   8.350   0.665  30.125 -0.0044 -0.0499 -0.1221
51413W        W94325   8.135  34.010  27.677 -0.1597 -0.0719 -0.2334
51414W        W94326   9.750  31.925  29.725  0.1925  0.0220  0.0058
51415W        W94327  11.164  33.269  28.338  0.4132 -0.3182  0.1291
51416W        W94328   9.551  33.878  26.796  0.1570 -0.0058 -0.0723
51417W        W94329   8.409  33.736  27.969 -0.2033 -0.0473 -0.0254
51418W        W94330   8.297  34.320  28.077 -0.2035  0.1206  0.3424
51419W        W94331   8.261  32.470  30.540  0.2929  0.0030  0.3552
51420W        W94332   7.017  34.528  29.052 -0.2755  0.3154  0.1345
51421W        W94333   8.720  33.129  30.264  0.2851  0.2765  0.1386
51422W        W94334   8.961  32.783  28.816  0.3494  0.0589  0.1332
51423W        W94335   9.573  34.433  29.745  0.2349  0.2182  0.2875
51424W        W94336   9.424  32.681  31.384 -0.0485  0.1215 -0.3675
51425W        W94337  10.831   0.026  30.773  0.1157 -0.0262 -0.0463
51426W        W94338  10.149  34.161  28.571 -0.0539  0.2995  0.0099
51427W        W94339   9.478  33.469  28.140 -0.0344 -0.1599  0.2895
51428W        W94340   7.432   0.149  27.013  0.3487  0.1326  0.0099
51429W        W94341   9.789  34.074  31.067 -0.0246  0.3217  0.2894
51430W        W94342   9.529  34.422  31.368  0.2236 -0.3657 -0.5163
51431W        W94343  10.305  32.448  27.762 -0.0385  0.0570 -0.2291
51432W        W94344   8.764  32.363  29.859  0.0329 -0.2956 -0.0571
51433W        W94345  10.256  32.215  29.414 -0.3106  0.1100  0.2839
51434W        W94346   7.025  32.752  26.852 -0.2552  0.0231 -0.0601
51435W        W94347   7.247  33.007  27.887  0.0134  0.3970  0.0579
51436W        W94348   9.147  32.309  28.030  0.1159 -0.1612 -0.1370
51437W        W94349   6.810  32.352  29.448 -0.1841 -0.1059  0.0109
51438W        W94350  10.168  32.632  29.649 -0.1841  0.0380 -0.0991
51439W        W94351   9.220  34.163  30.133  0.0614 -0.1167  0.1731
51440W        W94352  11.660  33.024  28.852 -0.0075 -0.0390 -0.0016
51441W        W94353   7.401  34.619  30.279  0.0601  0.0875 -0.0020
51442W        W94354   6.112  33.100  28.278 -0.0079  0.0207 -0.0265
51443W        W94355  11.490  32.268  29.545  0.0422  0.1008 -0.1245
51444W        W94356   9.066  33.819  28.513 -0.0896 -0.0799  0.2203
51445W        W94357   7.200  34.120  28.855 -0.0690  0.1372  0.2069
51446W        W94358   7.509   0.318  30.634  0.3143 -0.0335 -0.1414
51447W        W94359   8.127  33.923  29.657  0.0186  0.1849  0.0947
51448W        W94360   7.724  32.788  29.328  0.1318 -0.3173 -0.0600
51449W        W94361   9.226  33.226  30.677  0.5715  0.1911  0.1989
51450W        W94362   7.948  33.478  29.769  0.2829 -0.0110 -0.3915
51451W        W94363   8.978  31.449  30.138 -0.0329 -0.2053 -0.1231
51452W        W94364   8.716  33.751  30.915  0.1131 -0.0203 -0.2232
51453W        W94365   8.777  33.252  30.763  0.2388  0.1376 -0.1419
51454W        W94366  10.443  32.677  28.161  0.1020  0.0288  0.1040
51455W        W94367   9.327  32.474  28.523  0.3692  0.0624  0.0017
51456W        W94368  10.655  32.855  30.522 -0.0393 -0.0100 -0.1972
51457W        W94369  10.810   0.007  29.010  0.2692  0.1118  0.2125
51458W        W94370   9.240  34.477  31.962  0.0220 -0.0067  0.0933
51459W        W94371   7.333  34.523  29.777 -0.1757  0.2022  0.1407
51460W        W94372   7.191  33.352  30.425  0.1064  0.2474 -0.1404
51461W        W94373   7.872   0.852   0.206 -0.2043  0.1072  0.1892
51462W        W94374   8.066  33.970  28.467  0.0429 -0.1181 -0.0115
51463W        W94375   9.378  31.978  28.392 -0.1148 -0.0242 -0.1428
51464W        W94376   8.735  33.715  28.930 -0.0654  0.2624 -0.0013
51465W        W94377   9.440  33.530  28.646  0.1517 -0.2023 -0.1272
51466W        W94378   7.604   0.955  31.349 -0.2507 -0.0662  0.0263
51467W        W94379  10.098  33.782  28.939  0.1528  0.0366  0.1677
51468W        W94380   8.396  33.616  31.323  0.1928  0.0353 -0.1080
51469W        W94381  10.791  33.465  28.642  0.0071 -0.0817  0.3933
51470W        W94382   9.183  32.670  30.055 -0.0122  0.0890 -0.0943
51471W        W94383  10.362  33.668  31.500 -0.1040 -0.1627 -0.1834
51472W        W94384   9.203   0.138  29.875  0.0112  0.0002 -0.1310
51473W        W94385   7.931  33.890  31.428 -0.1644 -0.4613 -0.0347
51474W        W94386  10.213  34.696  27.471 -0.0387 -0.0394 -0.2961
51475W        W94387  10.522  32.014  30.061  0.1133  0.3821  0.1732
51476W        W94388   9.504  32.992  28.478 -0.1544  0.0410 -0.1043
51477W        W94389   9.802  34.614  28.830  0.0535 -0.2140 -0.2636
51478W        W94390   7.988   0.057  28.774  0.1213  0.0117 -0.1389
51479W        W94391  10.273   0.022  31.521 -0.1740 -0.0854  0.0650
51480W        W94392   8.059  33.049  28.503 -0.2462  0.1985 -0.1170
51481W        W94393   9.452  33.894  31.427  0.1206 -0.1537  0.1634
51482W        W94394   9.078  32.717  27.777  0.3341  0.2448  0.1182
51483W        W94395   6.627  32.137  28.976 -0.1750 -0.0028 -0.2321
51484W        W94396   8.838  34.590  25.789 -0.0829 -0.0379  0.3025
51485W        W94397   8.748  34.539  28.232 -0.0239 -0.3049  0.1711
51486W        W94398   7.597  32.990  26.932  0.0331 -0.3926  0.0128
51487W        W94399  11.042  32.511  30.491  0.0304  0.1336  0.3022
51488W        W94400  11.033  32.903  30.114  0.0526  0.1568  0.0033
51489W        W94401   8.958  33.316  29.683 -0.0856 -0.0888 -0.1727
51490W        W94402   9.753  33.251  30.163 -0.1882  0.1600  0.0203
51491W        W94403   9.886  34.535  29.395 -0.1411  0.4570  0.1372
51492W        W94404  11.655  33.850  29.811 -0.2001 -0.0438  0.0669
51493W        W94405   7.560  34.058  29.895 -0.0321  0.1185 -0.2882
51494W        W94406   6.785  32.748  31.229 -0.1433 -0.1191  0.3379
51495W        W94407   7.526  32.749  28.230 -0.0189  0.3127  0.0188
51496W        W94408   7.926  33.503  28.218 -0.2171  0.1657  0.1975
51497W        W94409  10.874  30.972  27.997 -0.1757 -0.0313  0.1194
51498W        W94410  10.282  34.166  30.193  0.0704 -0.2891  0.0489
51499W        W94411  10.593  33.315  29.577  0.1376 -0.0810 -0.0690
51500W        W94412   9.533  34.057  30.644 -0.0472 -0.2840  0.2384
51501W        W94413   8.980  33.186  27.846  0.1798 -0.2351  0.2289
51502W        W94414   7.382  34.246  29.342  0.0124 -0.2447  0.0459
51503W        W94415  11.694  31.439   0.164 -0.3158 -0.0878 -0.2163
51504W        W94416   7.514  33.492  27.867 -0.0392  0.2961  0.1184
51505W        W94417   7.322  33.044  28.988 -0.3017  0.0399  0.0035
51506W        W94418   9.860  33.698  29.776 -0.0040 -0.0926  0.0222
51507W        W94419   8.521  33.605  29.384  0.0301  0.1388 -0.1811
51508W        W94420   8.084  33.615  28.805 -0.0077  0.2482  0.0998
51509W        W94421  10.243   0.174  29.090  0.1073  0.1673 -0.1389
51510W        W94422   8.609   0.382  30.967  0.1908 -0.1706 -0.2731
51511W        W94423   9.493  32.853  30.406  0.2335 -0.2215 -0.0030
51512W        W94424   8.837  33.520  28.156  0.1293 -0.1343 -0.1370
51513W        W94425  11.074  33.003  28.731  0.2815 -0.2573 -0.3892
51514W        W94426   9.136   0.513  29.094 -0.3006  0.1169  0.3255
51515W        W94427   8.050  33.600  29.292 -0.0031  0.0583 -0.0424
51516W        W94428  10.563  33.999  29.321 -0.1422  0.1035  0.0273
51517W        W94429   8.897  33.299  28.684 -0.3383 -0.2221  0.3319
51518W        W94430   7.895  32.794  30.274  0.1587  0.0813 -0.1813
51519W        W94431   9.218  32.301  27.565  0.0223 -0.1107  0.0493
51520W        W94432   8.223   0.763  29.024 -0.2588  0.1683 -0.1686
51521W        W94433   8.449  33.812  30.470 -0.0261 -0.1617  0.0165
51522W        W94434   8.081  32.094  29.185  0.0977  0.2523 -0.1532
51523W        W94435   9.292  33.686  29.973  0.1681 -0.0593  0.0399
51524W        W94436  11.220  33.611  27.697 -0.0214  0.0356 -0.0406
51525W        W94437   7.487  32.840  29.792  0.0788  0.0365 -0.2714
51526W        W94438   9.261  32.198  29.734 -0.0664  0.0517 -0.0159
51527W        W94439   9.494  34.315  29.158  0.0918  0.0406  0.3540
51528W        W94440  10.122  33.561  29.363 -0.4188  0.0675 -0.0834
51529W        W94441  10.058  33.110  31.048 -0.0260 -0.1614  0.0644
51530W        W94442  10.134  32.852  30.633  0.1699 -0.3414 -0.0450
51531W        W94443   9.867  33.123  27.164  0.1205 -0.0318  0.2286
51532W        W94444   7.809  33.116  27.881 -0.3946  0.0487 -0.1785
51533W        W94445  10.998  33.883  28.422 -0.2253  0.2642 -0.1216
51534W        W94446   9.251  31.515  28.338  0.3519 -0.0906 -0.1247
51535W        W94447   8.578  34.290  29.579 -0.3919  0.2129  0.4492
51536W        W94448   7.545  33.896  28.526  0.1474 -0.0586 -0.2155
51537W        W94449   8.329  32.989  30.602  0.1437  0.1331  0.0005
51538W        W94450   8.174  33.548   0.268 -0.0523 -0.0280 -0.2636
51539W        W94451   6.752  34.564  27.693 -0.0297  0.0856 -0.0691
51540W        W94452   8.212  32.998  29.350 -0.0067 -0.0423  0.3414
51541W        W94453   8.377  30.653  29.226 -0.2591 -0.0337  0.0676
51542W        W94454   7.681  32.389  29.122 -0.0189 -0.0042 -0.1350
51543W        W94455   7.952  34.335  29.413  0.0122 -0.2808  0.2289
51544W        W94456   7.745  33.764   0.034  0.0504  0.0480 -0.0215
51545W        W94457   9.960  33.390  31.720  0.4333 -0.0593  0.0085
51546W        W94458   7.646  32.076  27.926 -0.0340  0.0012  0.0974
51547W        W94459  10.257  34.355  29.061 -0.0332  0.0562  0.0594
51548W        W94460   8.244  33.960  30.918  0.0264  0.1442  0.0123
51549W        W94461   9.287  32.400  31.036 -0.1766  0.3079  0.0019
51550W        W94462   9.723  34.028  28.813 -0.1159 -0.0563 -0.0690
51551W        W94463   7.473  33.413  31.725 -0.5410 -0.1673 -0.0814
51552W        W94464   8.534  32.708  29.158 -0.0805  0.3620 -0.0104
51553W        W94465   8.438  32.849  27.021 -0.2313 -0.0067 -0.0736
51554W        W94466   6.939  32.158  28.602 -0.0403 -0.1504  0.0244
51555W        W94467  10.535  33.504  29.075  0.2736  0.1296  0.1045
51556W        W94468   9.053  34.657  31.058 -0.0335  0.2633  0.3039
51557W        W94469   9.196   0.118  28.441  0.4109  0.1924  0.2380
51558W        W94470  10.458   0.203  27.099  0.0923 -0.0383  0.0906
51559W        W94471   7.908  33.467  30.540 -0.2969  0.1847  0.1119
51560W        W94472   7.555  34.516  28.972  0.0667 -0.0181  0.0021
51561W        W94473   9.510   0.514  28.470 -0.0409 -0.0831 -0.1685
51562W        W94474   9.716  33.026  29.322  0.2051 -0.0747 -0.0957
51563W        W94475   8.395  32.741  29.926 -0.2100 -0.1597 -0.2511
51564W        W94476  10.778  33.057  29.134 -0.0930 -0.1568  0.0222
51565W        W94477  10.507  32.193  31.899  0.0721  0.0762  0.1048
51566W        W94478   9.644   1.394  30.489  0.0018 -0.0017 -0.0593
51567W        W94479   7.044  33.587  31.669  0.3110 -0.2862 -0.0750
51568W        W94480  10.673   1.202  31.693 -0.1612  0.0712  0.0228
51569W        W94481   8.663  34.326  30.992  0.0625 -0.1356 -0.0161
51570W        W94482   8.942  33.821  31.351 -0.1464  0.0783 -0.0696
51571W        W94483   8.421  32.511  31.073 -0.0657 -0.1838 -0.0875
51572W        W94484  10.081  33.912   0.546  0.1076 -0.0025  0.3384
51573W        W94485   7.241  32.052  31.761 -0.3350  0.2993  0.0865
51574W        W94486   8.750  30.680  31.693 -0.1465  0.2706  0.0070
51575W        W94487   7.270  33.435  31.234  0.0117 -0.1768  0.0097
51576W        W94488  10.703  33.692   0.439 -0.0214  0.1932 -0.0030
51577W        W94489   9.035  34.294  31.541  0.2727  0.2827 -0.0138
51578W        W94490  10.343  33.929  30.603  0.1286  0.2935  0.0803
51579W        W94491   9.261   0.108  31.514 -0.1323 -0.0698  0.1194
51580W        W94492   8.380   0.362   0.027 -0.0321 -0.1367 -0.2165
51581W        W94493   8.271  32.979  31.961 -0.1581 -0.2853  0.3200
51582W        W94494   7.774  33.195   0.130 -0.6514  0.1539 -0.0538
51583W        W94495   9.034  32.165   0.183 -0.0737  0.0010  0.2883
51584W        W94496   8.620  32.855   1.772 -0.2733  0.0184  0.1701
51585W        W94497   9.657   0.777  31.368 -0.2008 -0.1420  0.0650
51586W        W94498  10.905  33.098  30.943 -0.0009 -0.4625 -0.1351
51587W        W94499  10.117   0.087   0.118 -0.0564 -0.1094  0.1632
51588W        W94500   7.359  33.946  31.392  0.0336 -0.1285  0.0347
51589W        W94501   8.150  33.077  31.466  0.0938  0.1457  0.0101
51590W        W94502   7.611  33.076   0.947  0.1649  0.3684 -0.0548
51591W        W94503  10.055  32.390  31.732  0.0493  0.2591  0.0635
51592W        W94504   9.092  32.972  31.531  0.2537  0.1138 -0.1636
51593W        W94505   9.784  33.630   0.151 -0.0975 -0.3067 -0.2803
51594W        W94506   9.582  34.065  31.913 -0.3276 -0.1240 -0.0926
51595W        W94507   9.325  34.002   0.443  0.0091 -0.1767  0.1735
51596W        W94508   7.634   0.088  31.660  0.2766  0.2259  0.1927
51597W        W94509   7.748  33.435  31.316  0.0018 -0.0662 -0.0503
51598W        W94510  11.736  33.745  30.867  0.1807 -0.2858  0.2612
51599W        W94511  11.514   2.466  18.741 -0.2540  0.1383  0.4297
51600W        W94512  12.127   2.050  16.338 -0.0113  0.0449  0.3070
51601W        W94513  15.109   2.259  15.874 -0.1083  0.2715  0.0714
51602W        W94514  15.393   2.760  16.605 -0.2796  0.2261 -0.1362
51603W        W94515  11.551   2.128  16.169  0.1851 -0.1076  0.1021
51604W        W94516  13.512   3.125  16.257 -0.1922 -0.2342  0.1115
51605W        W94517  12.570  33.185  17.655 -0.1692 -0.2824  0.6232
51606W        W94518  12.589   2.065  17.147  0.2104  0.1348  0.2845
51607W        W94519  14.489   3.641  19.090  0.0712 -0.0671  0.0206
51608W        W94520  12.697   3.094  17.377  0.1206 -0.3029 -0.3257
51609W        W94521  10.763   0.171  18.934 -0.0409  0.2326  0.1064
51610W        W94522  12.070   2.798  17.957 -0.1085 -0.0236  0.1479
51611W        W94523  12.387   0.697  15.858 -0.1515  0.1387  0.0343
51612W        W94524  10.351   0.800  17.265 -0.0842 -0.4795 -0.1182
51613W        W94525  15.126   1.800  18.144 -0.1293 -0.0196  0.0421
51614W        W94526  10.933   2.092  16.922 -0.1028  0.0352 -0.1262
51615W        W94527  10.948   0.347  17.789  0.0865  0.2106  0.1232
51616W        W94528  12.912   1.606  15.997  0.2313  0.1871 -0.3014
51617W        W94529  13.055   2.300  17.053  0.1511  0.5464 -0.0551
51618W        W94530  11.688   1.062  19.574  0.1494 -0.0027 -0.0038
51619W        W94531  12.395   0.246  18.067  0.2834  0.2189 -0.1341
51620W        W94532  12.490   2.498  16.316 -0.1185 -0.1077 -0.1147
51621W        W94533  12.232   2.737  15.631 -0.3912 -0.1258  0.2124
51622W        W94534  11.102   2.155  17.426 -0.0420 -0.0128 -0.0742
51623W        W94535  11.092   1.296  18.177  0.0750  0.0201 -0.3496
51624W        W94536  14.489   0.318  18.003 -0.1935 -0.0425 -0.2481
51625W        W94537  15.317   1.695  18.622  0.1436 -0.0231  0.1172
51626W        W94538  12.126   3.566  16.869  0.1073  0.0770  0.0142
51627W        W94539  13.855   4.882  18.056  0.0680 -0.2547 -0.1206
51628W        W94540  14.835  34.682  18.184  0.2600  0.2473 -0.1488
51629W        W94541  11.159   3.952  16.742  0.1398 -0.0735 -0.0756
51630W        W94542  10.166   3.635  17.046  0.2258 -0.1964  0.0886
51631W        W94543  12.558   4.950  17.696  0.1277  0.2264  0.1821
51632W        W94544  15.295   3.219  17.533  0.2808 -0.0169  0.1211
51633W        W94545  13.583   3.228  18.864 -0.2080  0.0859 -0.2348
51634W        W94546  13.256   3.095  19.619  0.0531  0.1438 -0.1088
51635W        W94547  10.943   4.348  16.470  0.1727  0.1042 -0.1978
51636W        W94548  12.285   3.417  19.253  0.3506  0.2440 -0.0386
51637W        W94549  13.678   3.218  19.342 -0.0097 -0.1753  0.3094
51638W        W94550  12.480   2.305  17.852  0.1458 -0.2428  0.4465
51639W        W94551  12.662   1.513  16.929  0.0940  0.1625  0.1023
51640W        W94552  12.926   2.457  16.626 -0.0794  0.1644  0.0419
51641W        W94553  13.807   1.937  16.768  0.1216 -0.5341  0.3547
51642W        W94554  11.575   3.367  21.516 -0.1776  0.0955 -0.2646
51643W        W94555  10.114   2.315  20.454  0.0617  0.1039 -0.1401
51644W        W94556  14.095   0.942  19.993 -0.1512  0.0063 -0.0921
51645W        W94557  12.966   2.278  17.603  0.0741 -0.2697 -0.2058
51646W        W94558  13.961   1.141  17.344  0.1503  0.0534 -0.2758
51647W        W94559  12.926   2.144  16.195 -0.2495  0.2238  0.3004
51648W        W94560  12.566   0.289  17.408  0.2709 -0.0671  0.0051
51649W        W94561  13.612   0.513  17.367 -0.6317  0.1607  0.2910
51650W        W94562  11.777   3.866  18.569  0.1837 -0.0206  0.0392
51651W        W94563  11.307   0.152  17.371  0.0940 -0.2733  0.0786
51652W        W94564  16.127   2.817  18.417  0.1383  0.1543  0.0296
51653W        W94565  14.241   0.756  17.044  0.0084 -0.0855  0.0178
51654W        W94566  13.379   1.001  17.507  0.0929 -0.1827 -0.2542
51655W        W94567  11.868   2.491  20.656  0.1902 -0.4341 -0.0506
51656W        W94568  10.667   2.323  17.650  0.0462 -0.0964 -0.0103
51657W        W94569  13.763   2.908  16.679 -0.0079  0.1872  0.0823
51658W        W94570  15.345   2.194  18.492  0.3152 -0.1730  0.1161
51659W        W94571  12.655   3.293  16.142  0.1919 -0.0988 -0.0865
51660W        W94572  11.495   2.257  17.032  0.0038  0.0860  0.2268
51661W        W94573  10.926   2.530  19.468  0.0642 -0.0829 -0.2900
51662W        W94574  11.965   2.798  18.479 -0.0981 -0.0172  0.0053
51663W        W94575  12.509   1.859  16.091  0.0450 -0.1642  0.1494
51664W        W94576  13.651   1.485  19.080 -0.1175  0.4072  0.1942
51665W        W94577  11.425   2.721  19.301 -0.1472  0.0650  0.0437
51666W        W94578  14.450   2.438  16.752 -0.2927  0.0284  0.2780
51667W        W94579  11.534   2.617  18.229  0.1913  0.1955 -0.1283
51668W        W94580  15.426   2.343  18.054  0.2544 -0.0408  0.0617
51669W        W94581  13.822   2.070  16.204  0.1955  0.0739 -0.3210
51670W        W94582  14.287  34.120  16.874  0.2551  0.1136  0.1752
51671W        W94583  12.599   0.242  18.575  0.2918  0.1985  0.1841
51672W        W94584  13.108   1.598  16.635 -0.1973  0.2538 -0.2819
51673W        W94585  12.146   3.618  15.315  0.2168  0.0295 -0.1110
51674W        W94586  14.865   3.293  19.023 -0.1309 -0.0051  0.1131
51675W        W94587  15.675   3.234  16.900 -0.2677 -0.2944  0.1821
51676W        W94588  12.805   3.044  18.154  0.3689  0.3359  0.0429
51677W        W94589  12.559   2.134  18.968 -0.1657  0.1340 -0.0334
51678W        W94590  14.376   3.006  18.945  0.0835 -0.1032 -0.3136
51679W        W94591  12.267   4.334  15.887 -0.3677  0.1058  0.1937
51680W        W94592  10.791   2.060  19.365 -0.2924 -0.2650 -0.1772
51681W        W94593  11.858   3.025  16.014 -0.0577  0.1765  0.0663
51682W        W94594   8.790  33.815  18.415  0.1237 -0.2664 -0.1099
51683W        W94595  13.293   2.909  18.187 -0.0511 -0.0631 -0.0072
51684W        W94596  16.258   2.288  17.570 -0.0028  0.1667  0.2216
51685W        W94597  12.160   1.080  18.934 -0.1232  0.2707  0.1766
51686W        W94598  13.855  34.340  17.463 -0.1139 -0.1293  0.0386
51687W        W94599  12.035   2.458  16.086 -0.0124 -0.2123 -0.1921
51688W        W94600  14.197   3.124  16.836 -0.1399 -0.1729 -0.1960
51689W        W94601  16.216   3.374  16.704 -0.6552 -0.0770 -0.1697
51690W        W94602  13.924   2.790  17.152  0.0062 -0.1008 -0.3733
51691W        W94603  10.070   1.125  17.712  0.0203  0.0416 -0.1033
51692W        W94604  12.202   1.907  17.740  0.1066 -0.0151 -0.3136
51693W        W94605  11.786   0.563  18.656 -0.0506  0.0613 -0.0988
51694W        W94606  10.534   0.700  16.755  0.3020  0.0872  0.0527
51695W        W94607  15.205   1.272  17.849 -0.1772  0.0756  0.1760
51696W        W94608  11.472  33.999  16.294  0.2684  0.0128 -0.2655
51697W        W94609  14.750   0.691  17.152 -0.0730  0.1115 -0.1949
51698W        W94610  12.906   2.500  18.038  0.0431 -0.3568 -0.0653
51699W        W94611  11.220   3.080  17.348  0.3891  0.1943  0.4356
51700W        W94612  15.115   1.499  19.078  0.1484  0.1079 -0.2613
51701W        W94613  14.916   2.975  16.532 -0.3012  0.2711 -0.0138
51702W        W94614  15.015   2.660  20.568 -0.0744 -0.0102 -0.3758
51703W        W94615  13.386   2.616  17.712  0.1289  0.2875  0.6195
51704W        W94616  11.563   1.283  17.917  0.0663 -0.1546  0.0858
51705W        W94617  11.279   1.230  15.290 -0.2982  0.1003 -0.4508
51706W        W94618  12.323   4.417  17.544  0.5829  0.0810  0.2468
51707W        W94619  12.741   4.075  17.683 -0.1238  0.0224 -0.4000
51708W        W94620  11.506   1.181  17.343 -0.3465 -0.1868  0.0291
51709W        W94621  12.741   3.635  19.093 -0.0695  0.2396  0.1846
51710W        W94622  15.535   1.136  17.496 -0.0702  0.1292 -0.2950
51711W        W94623  10.488   2.314  19.645 -0.0127  0.0246 -0.0530
51712W        W94624  15.828   0.865  17.185 -0.1217  0.1269 -0.3302
51713W        W94625  14.421   1.840  16.895  0.3790  0.0011  0.1216
51714W        W94626  12.252   1.245  16.791  0.0163  0.0508  0.2582
51715W        W94627  11.783   1.056  16.420  0.1426  0.0370 -0.1941
51716W        W94628  13.448   3.023  17.116  0.0770 -0.0681 -0.1598
51717W        W94629  11.576   2.580  15.807  0.0362  0.1092 -0.3447
51718W        W94630  11.455   2.674  17.365  0.0365 -0.0255  0.1445
51719W        W94631  12.579   1.494  17.680  0.2364 -0.0280 -0.2755
51720W        W94632  13.659   1.308  17.812 -0.2796  0.1334  0.0134
51721W        W94633  11.074   2.341  19.952  0.0710  0.0968 -0.1228
51722W        W94634  12.682   0.770  18.786  0.0001 -0.1945 -0.0427
51723W        W94635  12.477   2.669  18.272  0.0694 -0.0789 -0.0603
51724W        W94636  12.766   3.114  19.303  0.1011 -0.2302 -0.2039
51725W        W94637  14.328  34.244  16.321  0.0312  0.1904 -0.2680
51726W        W94638  14.386   0.792  16.470 -0.0937  0.0640  0.1820
51727W        W94639  11.922   0.855  20.022 -0.3049 -0.1103  0.2055
51728W        W94640  13.928   0.802  17.694  0.1785 -0.2559 -0.1335
51729W        W94641  13.684   1.475  16.660 -0.2112 -0.0003  0.1958
51730W        W94642  13.765   0.821  16.995  0.3968 -0.0615  0.4700
51731W        W94643  10.664   2.921  20.332 -0.0564 -0.0732 -0.2207
51732W        W94644  12.658   2.021  16.649  0.0306 -0.2333  0.1268
51733W        W94645  12.925   1.619  18.722  0.0035 -0.0875  0.1646
51734W        W94646  12.204   1.474  15.903 -0.0093  0.2677  0.1233
51735W        W94647  14.614   4.047  17.444  0.4001  0.1108  0.1526
51736W        W94648  12.887   2.674  18.629 -0.1424  0.1560 -0.0781
51737W        W94649  11.964   1.570  18.794  0.2161  0.3107  0.1339
51738W        W94650  14.879   2.824  17.714 -0.3231 -0.2288  0.2273
51739W        W94651  13.211  34.447  17.808  0.0459 -0.2741 -0.1639
51740W        W94652  13.518   1.284  17.100  0.1185 -0.1272  0.2022
51741W        W94653  12.726   0.735  17.690 -0.0989  0.0431  0.1784
51742W        W94654  11.247   3.566  16.149  0.0786 -0.2235  0.0343
51743W        W94655  14.114   2.124  17.893 -0.1498  0.0225  0.3636
51744W        W94656  14.231  34.057  17.843  0.0354 -0.1339  0.0682
51745W        W94657  11.879   0.796  19.185  0.1527 -0.1773 -0.1370
51746W        W94658  14.899   1.425  19.548  0.1956  0.0437  0.1004
51747W        W94659  13.423   1.013  16.637 -0.0838  0.4080 -0.2116
51748W        W94660  12.865   1.021  16.716  0.3390  0.0451  0.0365
51749W        W94661  13.095   1.150  16.227  0.1670 -0.6089 -0.0965
51750W        W94662  13.144   0.345  18.788 -0.0652  0.0428  0.1878
51751W        W94663  11.112   1.354  18.634  0.1170 -0.0479  0.1766
51752W        W94664  11.628   3.374  19.523 -0.3683  0.2382  0.0095
51753W        W94665  14.199   3.828  17.693 -0.3096  0.0079 -0.0063
51754W        W94666  13.164   1.439  17.662  0.2616  0.1056 -0.0430
51755W        W94667  12.462   2.755  20.128  0.2007  0.0038  0.3796
51756W        W94668  13.420   1.836  16.119  0.2353  0.2251 -0.1003
51757W        W94669  11.886   4.670  16.658 -0.0397 -0.0931  0.0011
51758W        W94670  11.248   4.187  15.995 -0.0565 -0.1358 -0.0338
51759W        W94671  11.128  34.590  18.009  0.0816 -0.1562 -0.4185
51760W        W94672  14.414   2.561  18.600  0.0046  0.0570  0.0472
51761W        W94673  11.574   3.908  15.627 -0.2788 -0.0058  0.0225
51762W        W94674  12.866   2.045  18.418 -0.1176  0.0996  0.0074
51763W        W94675  10.431   3.128  16.617 -0.0830  0.1810  0.0682
51764W        W94676  15.272   0.687  17.502 -0.2463  0.1099 -0.1791
51765W        W94677  10.641   3.681  17.608 -0.0156  0.1928  0.3192
51766W        W94678  10.937   3.326  16.561 -0.3032  0.5558  0.1329
51767W        W94679  10.903   1.627  17.169  0.0066  0.4265  0.1428
51768W        W94680  14.389   0.305  16.601  0.0374 -0.3189  0.2690
51769W        W94681  15.225   2.206  17.266 -0.1319  0.1118  0.0830
51770W        W94682  11.309   0.652  17.452  0.0219 -0.1345 -0.0541
51771W        W94683  13.206   0.830  17.047 -0.0203 -0.0679 -0.1452
51772W        W94684  10.310   2.084  18.315  0.4064  0.0729  0.0229
51773W        W94685  12.734   1.727  19.179  0.1044 -0.0842 -0.0543
51774W        W94686  12.960   0.084  15.665 -0.4000 -0.1717 -0.1249
51775W        W94687  13.779   1.994  19.281 -0.4422 -0.0572 -0.0547
51776W        W94688  11.890   2.700  19.510  0.2014  0.1843  0.0542
51777W        W94689  12.002   1.960  15.892 -0.2140  0.1762  0.0596
51778W        W94690  13.160   1.006  17.984 -0.1271  0.0685 -0.3317
51779W        W94691  11.663   1.839  17.969 -0.4177 -0.3159 -0.0253
51780W        W94692  10.763   2.850  16.369 -0.0607  0.2099 -0.0075
51781W        W94693  13.034   2.138  18.887 -0.1451  0.0962  0.0675
51782W        W94694  11.404   2.985  16.222  0.3047 -0.1947  0.1789
51783W        W94695  10.304   2.648  16.265  0.0873  0.0172 -0.2186
51784W        W94696  11.497   0.534  20.046 -0.0750  0.2500  0.2923
51785W        W94697  14.788   0.980  18.501 -0.0484  0.1672  0.0941
51786W        W94698  11.778   1.437  16.910 -0.0421 -0.1118  0.0178
51787W        W94699  12.776   0.739  16.134  0.0645 -0.1365  0.0970
51788W        W94700  12.346   2.509  16.863 -0.0111 -0.1276 -0.0501
51789W        W94701  13.475   2.713  18.656 -0.4214 -0.3087  0.2851
51790W        W94702  13.007   0.213  18.314  0.1468  0.1690 -0.0399
51791W        W94703  12.103   3.801  20.333 -0.1956 -0.1040  0.5067
51792W        W94704  11.855   1.526  17.537 -0.1107  0.0939  0.4220
51793W        W94705  15.728   4.333  16.736  0.1904 -0.0432  0.0242
51794W        W94706  13.996   0.440  17.994 -0.0024 -0.1625 -0.0422
51795W        W94707  12.107   2.361  17.287 -0.1671 -0.1392  0.1662
51796W        W94708  12.776   2.824  16.967  0.5976  0.1833  0.0550
51797W        W94709  12.281   3.262  16.548  0.2331  0.2484 -0.1393
51798W        W94710  12.595   1.315  18.894 -0.0819 -0.2727 -0.3746
51799W        W94711  12.715   3.513  18.443 -0.1362  0.0119  0.2922
51800W        W94712  12.021   3.185  15.550 -0.0921 -0.5580 -0.0275
51801W        W94713  11.107   3.038  19.558  0.2682 -0.1962 -0.1854
51802W        W94714  14.670   0.170  15.751 -0.0942 -0.0486 -0.0263
51803W        W94715  14.801   3.131  17.288 -0.1273  0.0358 -0.1741
51804W        W94716  11.857   1.891  17.152 -0.0434  0.0621  0.0819
51805W        W94717  13.290   0.642  19.477  0.2124 -0.2101 -0.1701
51806W        W94718  15.164   1.813  17.597  0.4396 -0.0890 -0.0955
51807W        W94719  12.095  33.652  20.013 -0.0614 -0.1450  0.2327
51808W        W94720  11.938   0.481  18.127 -0.2030  0.0822  0.2440
51809W        W94721  13.551   1.638  18.173 -0.0906  0.0763 -0.5030
51810W        W94722  10.457   0.662  18.994 -0.2259  0.1817 -0.2414
51811W        W94723  13.104   5.043  20.061 -0.0835 -0.0637 -0.1905
51812W        W94724  12.321   2.701  20.628  0.1075 -0.0953  0.0282
51813W        W94725  14.396   0.282  17.064  0.0139 -0.2319 -0.2327
51814W        W94726  11.944   1.067  15.919 -0.0736 -0.0302  0.2070
51815W        W94727  11.992   2.025  18.777 -0.2706 -0.0173  0.0343
51816W        W94728  14.950   2.331  17.806  0.0592 -0.1232  0.1063
51817W        W94729  12.195   2.808  17.418 -0.1802 -0.0623 -0.3593
51818W        W94730  14.710   1.296  17.883  0.1327  0.1341  0.0045
51819W        W94731  10.400   2.809  17.641 -0.1498 -0.1384  0.1361
51820W        W94732  14.330   1.775  17.464 -0.1237  0.2539 -0.1596
51821W        W94733  13.967   2.587  17.672  0.0371 -0.0988  0.4412
51822W        W94734  12.292   3.788  17.762 -0.1301 -0.0634 -0.1533
51823W        W94735  12.697   0.313  19.204  0.0048  0.1475  0.3645
51824W        W94736  12.287   1.613  17.276  0.0647  0.2972 -0.1307
51825W        W94737  13.926   0.399  16.723  0.0156  0.0046 -0.0655
51826W        W94738  13.341   1.287  18.730  0.1001  0.1452 -0.1679
51827W        W94739  11.911   1.128  18.257 -0.0675 -0.2378 -0.1248
51828W        W94740  12.107   1.292  20.237  0.1149  0.0034  0.1667
51829W        W94741  11.327   1.895  19.350  0.0224 -0.4744 -0.1040
51830W        W94742  12.610   5.243  18.716 -0.3094 -0.1442 -0.0171
51831W        W94743  14.403   1.559  16.074  0.3826 -0.3866 -0.1098
51832W        W94744  15.350  34.569  17.352  0.2213  0.0903 -0.1015
51833W        W94745  14.302  34.463  17.218  0.0136 -0.3089 -0.0765
51834W        W94746  13.666   0.631  15.972  0.0007  0.3968  0.0309
51835W        W94747  10.646   2.478  19.065 -0.0180 -0.0312 -0.0696
51836W        W94748  14.752   0.558  17.619  0.2491 -0.0400  0.1626
51837W        W94749  11.478   1.776  15.746  0.2433  0.1990  0.1377
51838W        W94750  12.818   2.190  19.422 -0.0242 -0.1594  0.2740
51839W        W94751  12.564   3.677  16.527 -0.1038 -0.0981 -0.2730
51840W        W94752  12.932   1.747  17.341  0.2053 -0.1591  0.0328
51841W        W94753  14.939   1.137  17.447 -0.0042 -0.0136  0.0462
51842W        W94754  12.982   1.233  17.230  0.1425  0.1558  0.0855
51843W        W94755  10.833   4.666  19.085  0.2850  0.0957  0.0054
51844W        W94756  10.659   2.228  15.473 -0.0320  0.4132  0.0152
51845W        W94757  13.402   2.452  16.324  0.3726  0.1671 -0.0631
51846W        W94758  13.661   2.175  17.867  0.1715 -0.0259 -0.0640
51847W        W94759  13.303  34.485  18.278  0.2766 -0.0727 -0.2702
51848W        W94760  12.324   0.015  16.436  0.1178  0.0608 -0.1634
51849W        W94761  14.485   0.088  19.132 -0.0423 -0.0196  0.0407
51850W        W94762  10.948   3.208  16.002 -0.0407  0.1332  0.0284
51851W        W94763  14.703  34.013  17.673 -0.2092  0.0427 -0.0558
51852W        W94764  12.750   3.627  17.412  0.0915 -0.0160 -0.3287
51853W        W94765  11.770   3.357  18.576  0.1579 -0.3894  0.2111
51854W        W94766  11.576   4.159  16.566 -0.0775  0.1949  0.0508
51855W        W94767  12.708  34.538  18.178 -0.2302  0.1173  0.0150
51856W        W94768  14.404   0.896  17.977 -0.2266 -0.2175 -0.2170
51857W        W94769  11.668   2.096  18.437 -0.0587  0.2760  0.2257
51858W        W94770  15.381   1.633  19.443  0.0044  0.0705  0.1115
51859W        W94771  10.707   2.601  18.623  0.3861  0.0728 -0.2339
51860W        W94772  11.985   1.071  17.173 -0.2026 -0.0005  0.0516
51861W        W94773  13.105   3.776  17.696 -0.0479  0.0843 -0.1936
51862W        W94774  15.464   3.550  17.859 -0.2051  0.1195 -0.2167
51863W        W94775  11.738   3.105  16.658 -0.4226 -0.0052  0.1652
51864W        W94776   9.279   1.274  18.377 -0.2909 -0.1573  0.0296
51865W        W94777  12.427   1.759  18.668  0.0135 -0.0163  0.1023
51866W        W94778  12.958   1.108  18.454 -0.2499  0.0547  0.0347
51867W        W94779  12.806   0.450  16.800  0.1923 -0.0623  0.2923
51868W        W94780  12.120   3.886  16.484  0.2015  0.1184  0.2362
51869W        W94781  11.811   3.920  20.920  0.0630  0.1898  0.0211
51870W        W94782  11.648   2.931  20.005  0.3645  0.2264 -0.2122
51871W        W94783  10.771   3.828  16.408  0.3918  0.1459 -0.0438
51872W        W94784  14.850   3.472  16.316 -0.0757 -0.2150 -0.2048
51873W        W94785  13.902   1.614  17.196  0.1110 -0.0432 -0.2372
51874W        W94786  14.900   2.599  17.295  0.6446 -0.3054 -0.1786
51875W        W94787  11.933   2.219  16.762  0.0504  0.2613  0.0768
51876W        W94788  11.372   2.221  17.953  0.1651 -0.0259  0.3736
51877W        W94789  10.637   2.740  15.393 -0.2391  0.0402 -0.0396
51878W        W94790  13.464   3.405  15.777 -0.0412  0.0352  0.0712
51879W        W94791  10.311   2.974  18.389  0.1142 -0.0615  0.1401
51880W        W94792  11.732   3.605  20.613 -0.1391 -0.0464 -0.2002
51881W        W94793  14.186   1.764  16.462 -0.0295  0.1096  0.0540
51882W        W94794  14.482   1.288  18.331 -0.1738 -0.1600 -0.2508
51883W        W94795  15.283   0.691  16.237  0.0335 -0.1157  0.0565
51884W        W94796  14.265   2.594  19.830 -0.1373  0.0104 -0.2184
51885W        W94797  12.506   1.661  18.187 -0.1856  0.2237  0.1162
51886W        W94798  12.649   1.409  16.402 -0.1228 -0.1412 -0.1174
51887W        W94799  10.998   0.333  20.190  0.1522 -0.2255  0.1314
51888W        W94800  14.711   0.326  19.547  0.0718  0.1169  0.0654
51889W        W94801  12.171   3.081  18.805  0.4059  0.1596 -0.0171
51890W        W94802  13.138   2.677  17.307 -0.2000 -0.0927 -0.1399
51891W        W94803  12.079   1.858  18.308 -0.1301 -0.1489  0.2041
51892W        W94804  12.397   2.225  18.417  0.1966  0.2048 -0.0724
51893W        W94805  14.287  33.395  19.171  0.0272 -0.0730 -0.0577
51894W        W94806  13.213   2.061  16.574  0.2200 -0.0522 -0.2237
51895W        W94807  13.196   0.514  16.317 -0.0216  0.0188 -0.0785
51896W        W94808  12.655   3.096  18.790 -0.0766 -0.0345  0.0323
51897W        W94809  13.041   2.625  19.486  0.0451  0.1707  0.2784
51898W        W94810  11.594   4.528  17.950  0.4511  0.0336 -0.0262
51899W        W94811  12.182   1.561  16.399  0.0875 -0.2467 -0.1450
51900W        W94812  15.896   1.879  17.006  0.4164  0.1678  0.1221
51901W        W94813  12.756   0.677  18.210  0.0367  0.0220 -0.0534
51902W        W94814  15.439   1.144  19.302  0.1197 -0.0032  0.0015
51903W        W94815  11.751   3.222  18.126  0.0342 -0.1503  0.1283
51904W        W94816  14.736   1.155  16.840 -0.2971  0.0422  0.1449
51905W        W94817  11.857   2.717  18.972 -0.2295  0.2236  0.0061
51906W        W94818  11.056   2.817  18.962 -0.0312 -0.2121  0.1957
51907W        W94819  14.192   1.266  16.437  0.3112 -0.2064 -0.3439
51908W        W94820  13.844   1.055  18.712  0.1332  0.0657 -0.1051
51909W        W94821  14.746   1.988  17.279  0.2853  0.0280  0.3539
51910W        W94822  14.745   2.269  19.749  0.3502  0.2595  0.1962
51911W        W94823  11.112   0.891  17.865 -0.0106 -0.0976 -0.0083
51912W        W94824  13.809   0.735  16.401  0.0646  0.1060  0.2232
51913W        W94825  11.072   2.929  18.377  0.0675 -0.0507 -0.1833
51914W        W94826  12.268   0.633  18.452 -0.2152 -0.0817  0.0289
51915W        W94827  13.971   1.469  18.474 -0.0195  0.5413  0.0855
51916W        W94828  12.501  33.534  17.194 -0.0741  0.2574  0.0152
51917W        W94829  14.308   2.274  16.248 -0.2625 -0.1260 -0.1331
51918W        W94830  13.466   1.794  18.686  0.1583 -0.2968  0.0491
51919W        W94831  11.819   3.466  16.328 -0.1668 -0.0176 -0.0776
51920W        W94832  14.233   1.385  17.857  0.0116 -0.1801 -0.2532
51921W        W94833  13.479   2.281  18.397 -0.0961 -0.0558  0.1164
51922W        W94834  10.511   0.430  18.504 -0.0750 -0.2495 -0.0552
51923W        W94835  14.921   2.527  18.747 -0.0191  0.0363 -0.1216
51924W        W94836  13.703   2.984  17.561 -0.0365 -0.1707 -0.2111
51925W        W94837  13.214   0.526  17.714 -0.1127  0.2303  0.0803
51926W        W94838  10.914   1.434  16.612 -0.1715  0.0619 -0.1041
51927W        W94839  10.362   4.410  17.246 -0.1968  0.0052  0.0599
51928W        W94840  13.793   0.566  18.520 -0.1129 -0.0355  0.1102
51929W        W94841  12.700   1.212  18.024  0.0820  0.6387 -0.0425
51930W        W94842  11.672   3.714  16.754  0.0895  0.1431  0.0282
51931W        W94843  12.262   0.914  18.030  0.3198  0.0824 -0.0214
51932W        W94844  14.097   2.949  18.521  0.1654 -0.2304 -0.1391
51933W        W94845  13.372   3.086  20.108 -0.1470  0.1848 -0.1510
51934W        W94846  12.628   2.913  16.499 -0.0612 -0.0506 -0.0395
51935W        W94847  11.764   2.086  20.130  0.0810 -0.1362 -0.0575
51936W        W94848  13.183   3.456  18.155  0.0778  0.1423 -0.1418
51937W        W94849  13.409   3.636  17.095 -0.1114 -0.1388 -0.0279
51938W        W94850  14.394   2.791  17.384 -0.4873  0.2824 -0.0856
51939W        W94851  12.065   0.782  16.707  0.1652  0.1270  0.1000
51940W        W94852  14.534   2.327  17.543 -0.1222  0.2140  0.0451
51941W        W94853  10.686   0.026  17.422 -0.0967  0.1977 -0.0751
51942W        W94854  14.768  34.151  18.303 -0.0275  0.0660  0.0523
51943W        W94855  14.264  32.692  17.458 -0.0347 -0.2575 -0.0510
51944W        W94856  11.892   1.458  19.774 -0.2374 -0.1912  0.1828
51945W        W94857  10.611   2.873  15.878  0.0677 -0.2872 -0.0776
51946W        W94858  13.123   2.419  15.797  0.0817  0.0579 -0.2211
51947W        W94859  11.191   4.151  18.343  0.2033 -0.3781  0.2357
51948W        W94860  13.038   1.100  19.704  0.1165 -0.0385 -0.1786
51949W        W94861  10.490   0.840  19.966  0.2293 -0.4707  0.0316
51950W        W94862  11.005   2.539  17.941  0.1988 -0.1056  0.0955
51951W        W94863  13.271   0.679  18.433  0.2081  0.2209  0.0581
51952W        W94864  14.288   1.331  16.988  0.0330  0.2253 -0.4246
51953W        W94865  11.156   1.230  16.977 -0.0569  0.0262  0.0628
51954W        W94866  11.313   1.026  16.162  0.2100 -0.0209  0.0927
51955W        W94867  12.274   3.656  18.757  0.2466  0.2549  0.1070
51956W        W94868  13.521   2.330  17.333  0.1238  0.1302 -0.2700
51957W        W94869  12.415   0.486  16.422  0.0436  0.0036 -0.2534
51958W        W94870  14.375   2.035  18.606  0.1376 -0.4001 -0.0939
51959W        W94871  10.250   1.675  16.108 -0.0801 -0.0711  0.1515
51960W        W94872  13.247   2.429  20.310  0.0064  0.0079  0.1129
51961W        W94873  12.299   0.585  19.712  0.0619  0.0277 -0.2879
51962W        W94874  10.697   0.254  16.580 -0.1016  0.0683  0.1284
51963W        W94875  12.309   1.016  17.545  0.1100  0.0671 -0.0405
51964W        W94876  13.039   3.056  17.697 -0.0853  0.2027  0.1293
51965W        W94877  15.214   3.147  16.998  0.1412  0.1811 -0.0330
51966W        W94878  14.422   1.837  18.170  0.1915  0.2119  0.4809
51967W        W94879  13.924   1.840  18.810 -0.1864  0.0956 -0.4639
51968W        W94880  11.176  34.292  16.550 -0.1754 -0.2241 -0.3280
51969W        W94881  13.846   2.599  16.113  0.0997  0.1410 -0.0107
51970W        W94882  12.756   2.604  19.119 -0.2019 -0.1234  0.0733
51971W        W94883  15.352   3.266  16.490  0.1371  0.2077 -0.3783
51972W        W94884  14.859   0.483  18.261 -0.0627 -0.0576  0.0667
51973W        W94885  15.045   0.799  17.910  0.1184  0.2231  0.2064
51974W        W94886  10.809   0.927  18.788  0.0285  0.0540  0.1363
51975W        W94887  11.437   3.101  20.437 -0.1161  0.0540 -0.0531
51976W        W94888  13.064   1.546  18.197 -0.2785 -0.2256  0.0421
51977W        W94889  12.424  34.170  16.589 -0.0180  0.2142 -0.1001
51978W        W94890  14.752   1.512  17.143 -0.0213 -0.2136 -0.1983
51979W        W94891  13.425   1.820  17.549 -0.0841 -0.1285 -0.1013
51980W        W94892  12.329   3.214  17.877 -0.2960 -0.1625 -0.0543
51981W        W94893  14.205  34.588  16.715  0.0917  0.1165 -0.0181
51982W        W94894  12.268   1.076  19.750 -0.0275  0.1430  0.1647
51983W        W94895  13.690   3.156  18.305 -0.1163  0.5340 -0.0221
51984W        W94896  12.811   1.872  17.870 -0.1987  0.1906 -0.1168
51985W        W94897  12.221   1.816  16.836 -0.0854 -0.1039  0.1884
51986W        W94898  15.428   1.717  16.604 -0.3367  0.1916  0.1834
51987W        W94899  13.050   3.902  18.236 -0.0665  0.0601  0.0227
51988W        W94900  13.624   3.632  18.568  0.0559 -0.1052 -0.3854
51989W        W94901  13.143   2.880  19.072  0.2063  0.0415  0.2505
51990W        W94902  14.829   1.656  18.558 -0.0200  0.1949 -0.3913
51991W        W94903  10.923   0.616  19.221  0.1442 -0.2487 -0.2917
51992W        W94904  12.600   2.509  17.366  0.0802 -0.1584  0.2607
51993W        W94905  12.590   2.786  17.760 -0.2599  0.0461  0.0810
51994W        W94906  15.643   2.160  17.595 -0.0538 -0.1361 -0.1011
51995W        W94907  11.590   0.928  16.911  0.1971 -0.0964  0.1017
51996W        W94908  12.472  34.437  16.072 -0.2620 -0.0067  0.2910
51997W        W94909  13.915   2.401  19.508  0.0474 -0.0207  0.1534
51998W        W94910  12.398   1.157  18.443 -0.0670 -0.0613  0.0329
51999W        W94911  10.537   3.042  23.906  0.1297  0.1913 -0.4382
52000W        W94912  10.952   1.785  20.839  0.1044  0.2990 -0.0218
52001W        W94913  12.398   2.179  19.808 -0.0425 -0.0540 -0.0475
52002W        W94914  13.425   1.715  21.300  0.0114 -0.1105  0.2230
52003W        W94915  10.180   1.593  20.608 -0.0338 -0.0320 -0.0027
52004W        W94916  13.873   1.909  20.167  0.3668  0.1839  0.3809
52005W        W94917  11.746   0.796  22.493 -0.5648  0.2858  0.0188
52006W        W94918  12.037   3.432  21.716 -0.2895  0.0455  0.2498
52007W        W94919  13.407   2.740  22.892 -0.0088  0.0813  0.0587
52008W        W94920  11.717   1.101  20.494  0.2327  0.0789  0.0065
52009W        W94921  11.694   1.539  21.612 -0.2021 -0.0356 -0.0725
52010W        W94922  11.077   2.639  23.501 -0.0482 -0.2692 -0.1593
52011W        W94923  11.222   0.743  19.586 -0.0382 -0.3374 -0.0955
52012W        W94924  10.471  34.431  21.386  0.1249 -0.0588 -0.1598
52013W        W94925  12.668   0.866  22.089  0.1847 -0.1435 -0.0485
52014W        W94926  11.438   2.688  20.738  0.0193  0.1272  0.2854
52015W        W94927  10.675   0.320  21.508 -0.3953  0.0336 -0.0811
52016W        W94928  10.978   0.798  20.083 -0.2863 -0.2290  0.1689
52017W        W94929  13.457   4.016  20.748 -0.0076 -0.1830 -0.0191
52018W        W94930  11.306   0.965  22.632  0.3822 -0.3298 -0.3825
52019W        W94931  11.283   1.787  22.911 -0.0261  0.0090  0.4703
52020W        W94932  12.830   1.515  20.456 -0.0501 -0.0268 -0.1175
52021W        W94933  11.861   3.363  20.138  0.1195 -0.1649  0.1167
52022W        W94934  10.781   2.532  21.350  0.3061  0.2765  0.0368
52023W        W94935  12.138   1.267  21.802 -0.2302 -0.0196 -0.0258
52024W        W94936  12.979   1.142  21.233 -0.0701 -0.2011  0.2864
52025W        W94937  12.210   1.793  20.154 -0.1589  0.5080 -0.2928
52026W        W94938  11.790   3.806  21.573 -0.0421  0.1533 -0.0465
52027W        W94939  12.784   2.391  21.756  0.1623 -0.2782  0.0224
52028W        W94940  14.123   1.007  24.070 -0.1798 -0.5155 -0.0603
52029W        W94941  12.365   3.283  20.157  0.0743 -0.2649  0.1535
52030W        W94942  11.270   3.988  22.189  0.0463 -0.1009  0.2804
52031W        W94943  11.938   2.506  20.005 -0.0687 -0.1116 -0.2748
52032W        W94944  13.897   2.054  21.002 -0.4109 -0.0116  0.0051
52033W        W94945  14.216   5.189  23.329 -0.0390  0.2926  0.0350
52034W        W94946  11.931   2.097  25.130  0.1513  0.3109  0.0033
52035W        W94947  11.885   2.990  20.915  0.2351 -0.0171 -0.1043
52036W        W94948  12.614   4.147  23.400  0.1415 -0.3904 -0.1168
52037W        W94949  12.072   3.302  23.193 -0.1275  0.2226  0.1199
52038W        W94950  11.579   2.363  21.103  0.0634  0.0891  0.0541
52039W        W94951  11.843   2.394  21.566 -0.0107 -0.0479 -0.2219
52040W        W94952  11.760   1.687  19.316  0.1875  0.2721 -0.1226
52041W        W94953  12.907   3.356  20.176  0.0730  0.0441  0.0806
52042W        W94954  12.693   2.250  23.585 -0.2029  0.0855 -0.2119
52043W        W94955  11.412   3.745  21.254  0.1685 -0.0205 -0.2928
52044W        W94956  13.476   0.097  25.000  0.2163  0.4186  0.4373
52045W        W94957  11.936   3.463  21.184 -0.2150  0.2496 -0.2146
52046W        W94958  12.741   2.420  20.501  0.3765 -0.2953 -0.0531
52047W        W94959  10.355   1.168  19.621  0.1010 -0.0222  0.2929
52048W        W94960  14.664   2.415  20.863  0.0843 -0.1683  0.0519
52049W        W94961  13.332   1.519  22.554  0.1464 -0.0145  0.0548
52050W        W94962  13.027   3.492  21.827  0.2736 -0.0921 -0.1213
52051W        W94963  10.708   0.530  22.159  0.0941  0.0933 -0.0155
52052W        W94964  13.342   1.358  23.005  0.1003 -0.0199  0.0996
52053W        W94965  12.513   0.872  19.276 -0.1798 -0.0674 -0.0308
52054W        W94966  12.017   1.789  22.660  0.2373  0.3857 -0.0292
52055W        W94967  11.377   3.739  24.609  0.1463 -0.1151 -0.2440
52056W        W94968   9.709   1.414  21.733  0.2171  0.1617 -0.3776
52057W        W94969  13.185   3.398  19.151  0.3281  0.1619  0.0505
52058W        W94970  13.727   2.060  21.636 -0.0594 -0.0712 -0.1132
52059W        W94971  12.244   1.816  19.269 -0.0962 -0.0410  0.2238
52060W        W94972  10.921   1.681  19.036  0.1169  0.0531 -0.0364
52061W        W94973  10.338   1.717  23.069 -0.2840  0.0354 -0.4001
52062W        W94974  10.824   1.273  21.925 -0.1262 -0.1428  0.2654
52063W        W94975  12.962  33.838  19.461 -0.0666 -0.2030 -0.1917
52064W        W94976  13.639   1.795  22.887 -0.0639  0.1348  0.0988
52065W        W94977   9.785   3.956  23.320  0.1852  0.2062  0.2709
52066W        W94978  14.835   0.659  21.367 -0.1713 -0.1207 -0.1448
52067W        W94979  13.034   2.097  21.388 -0.1351  0.2112  0.0685
52068W        W94980  15.024   2.946  22.271  0.2631  0.0712  0.0699
52069W        W94981  14.548   2.940  18.123 -0.1368  0.0242  0.0579
52070W        W94982  12.815  33.389  20.046  0.1488  0.2874 -0.0160
52071W        W94983  13.253   1.012  21.800  0.1377  0.4155  0.0856
52072W        W94984  10.882   1.656  19.572  0.0449  0.1663 -0.1568
52073W        W94985  10.241   0.548  20.331 -0.1230  0.0786 -0.0782
52074W        W94986  13.114   0.598  21.393 -0.0457 -0.1780 -0.2695
52075W        W94987  13.261   0.226  20.348  0.1702 -0.1037  0.1555
52076W        W94988  12.015   2.302  22.275  0.0455  0.2035  0.0469
52077W        W94989  11.821   1.661  22.212  0.0469  0.0774 -0.2829
52078W        W94990  13.461   3.253  24.046  0.1728 -0.1141 -0.0225
52079W        W94991  10.761   4.005  20.968 -0.3512 -0.0020  0.0957
52080W        W94992  10.289   2.598  21.492 -0.0657  0.0285  0.1785
52081W        W94993  13.613   2.140  20.522  0.0322 -0.3451  0.1703
52082W        W94994  10.784  33.918  22.620 -0.2048  0.2978 -0.1585
52083W        W94995  11.366   3.356  23.729 -0.3865  0.0652 -0.1205
52084W        W94996  12.335  34.479  20.084 -0.0385 -0.2687 -0.0115
52085W        W94997  10.274   0.819  23.091 -0.1290  0.3315  0.1219
52086W        W94998  12.800  33.626  20.775  0.0753 -0.4503 -0.0797
52087W        W94999  11.568   2.279  22.056 -0.1191 -0.0700  0.1358
52088W        W95000  14.224   2.700  20.931 -0.1356 -0.2241  0.0040
52089W        W95001  15.176   0.995  21.239 -0.1188  0.0195 -0.3452
52090W        W95002  15.368   2.915  19.208  0.0486  0.3308  0.0136
52091W        W95003   8.798   2.265  21.231 -0.1858  0.1713 -0.1856
52092W        W95004  11.513   2.012  21.595  0.0889 -0.1755  0.1720
52093W        W95005  11.980  34.494  21.712 -0.1340 -0.1651 -0.1632
52094W        W95006  10.054   0.590  20.832  0.1124  0.1697 -0.0176
52095W        W95007  13.494   1.032  22.231 -0.2041  0.1746 -0.0814
52096W        W95008  11.383   0.878  19.095 -0.1717 -0.1786 -0.2361
52097W        W95009  13.101   0.496  20.918  0.0035 -0.4757  0.1622
52098W        W95010  12.436   3.083  21.080 -0.4126 -0.0142  0.1623
52099W        W95011   9.893   1.975  20.777  0.1316  0.0850  0.3251
52100W        W95012  13.847   0.010  23.003  0.3438 -0.2260 -0.0860
52101W        W95013  14.202   2.275  20.644  0.1817 -0.2591  0.0288
52102W        W95014  14.876   4.714  23.203  0.0795 -0.2176 -0.2007
52103W        W95015  13.334   3.203  21.383 -0.0250 -0.0165  0.1443
52104W        W95016   9.938   1.588  22.758  0.2098  0.2076 -0.1354
52105W        W95017  11.074   1.317  20.273 -0.2761  0.0537 -0.0732
52106W        W95018  12.420   3.812  21.593 -0.2091  0.1006  0.2492
52107W        W95019  12.822   1.895  21.839 -0.0942 -0.0396 -0.0046
52108W        W95020  11.069   0.544  20.890  0.1568 -0.0866 -0.0748
52109W        W95021  13.478   2.504  21.917 -0.1396 -0.0760 -0.0159
52110W        W95022  11.449   1.485  20.679  0.2588  0.2171 -0.0135
52111W        W95023  11.008   2.071  22.688  0.1654  0.0848 -0.0297
52112W        W95024  14.152  34.428  22.743  0.0396  0.0327 -0.1816
52113W        W95025  13.979   0.902  20.992  0.0402 -0.2380  0.1641
52114W        W95026  12.644   1.394  20.935 -0.0338 -0.3326 -0.2382
52115W        W95027  10.499   2.645  18.111 -0.1604 -0.0164  0.3369
52116W        W95028  13.354   3.127  20.600 -0.0256  0.0308  0.1965
52117W        W95029  10.263   3.273  21.231 -0.2659 -0.5049  0.1798
52118W        W95030  10.707   2.239  22.239 -0.0765 -0.1777  0.3341
52119W        W95031  12.380   2.627  18.788  0.0358 -0.0631 -0.1448
52120W        W95032  13.596   0.418  21.045 -0.1686 -0.0065 -0.0001
52121W        W95033  11.168   1.565  22.260 -0.1680  0.0633  0.0878
52122W        W95034  11.977   1.965  21.866 -0.0618  0.0109 -0.1589
52123W        W95035  10.314   2.143  19.189 -0.2043  0.1357 -0.2255
52124W        W95036  10.106   3.828  22.463  0.1600  0.1033  0.0866
52125W        W95037  12.426   1.026  20.619  0.0850  0.0206  0.2964
52126W        W95038  13.380   0.700  20.547 -0.0159  0.1742 -0.1361
52127W        W95039  13.652   1.230  23.391 -0.3719  0.0194 -0.1897
52128W        W95040  14.072   1.795  20.601 -0.0766 -0.0381 -0.0769
52129W        W95041  13.475   1.058  19.907  0.2708  0.0978  0.0861
52130W        W95042  12.297   0.488  19.002 -0.2145  0.0195 -0.1113
52131W        W95043  10.457   2.753  24.339  0.0757  0.0512 -0.2625
52132W        W95044  13.607   2.717  20.440  0.1111  0.0381 -0.1440
52133W        W95045  12.232   2.574  23.411 -0.2039 -0.0782  0.1034
52134W        W95046  11.958   2.023  19.625  0.3651 -0.2259 -0.5271
52135W        W95047  13.476   3.200  21.905 -0.2250 -0.2078  0.1063
52136W        W95048  11.542   2.023  22.472 -0.2697  0.3667 -0.0325
52137W        W95049  12.769   2.170  22.233  0.0305 -0.0738 -0.1303
52138W        W95050  14.149   2.668  21.712 -0.1044  0.2779 -0.1182
52139W        W95051  12.839  34.480  21.986  0.0105  0.2803 -0.0794
52140W        W95052  10.453   0.735  19.507 -0.1756  0.0059 -0.0600
52141W        W95053  12.007   0.195  20.838  0.1810  0.0433  0.0151
52142W        W95054  11.231   1.795  20.367  0.2561  0.1984  0.0569
52143W        W95055  14.479   0.748  21.710  0.0419 -0.2690  0.0641
52144W        W95056  11.999  34.571  22.447 -0.0293 -0.1655  0.0064
52145W        W95057  12.735   0.255  22.119 -0.0124  0.1054  0.1696
52146W        W95058  14.029   0.819  23.597 -0.1313  0.3353 -0.1354
52147W        W95059  14.361   2.094  19.447  0.0738  0.0507 -0.1579
52148W        W95060  12.273   2.301  24.010 -0.2291  0.1777  0.0525
52149W        W95061  11.063   1.867  17.856  0.2944 -0.0543 -0.0681
52150W        W95062  11.387   1.168  23.085  0.0387  0.0836 -0.1020
52151W        W95063  11.392   2.349  22.799  0.1826 -0.1054 -0.1177
52152W        W95064  11.113   2.881  23.952 -0.2551  0.0882  0.0483
52153W        W95065  13.987   3.307  22.346  0.1794  0.0018  0.1451
52154W        W95066  12.733   1.911  20.110  0.0105  0.0015 -0.1297
52155W        W95067  13.789   0.770  24.302 -0.1467  0.1247  0.0059
52156W        W95068  11.934  34.623  20.307  0.1406  0.0684 -0.2521
52157W        W95069  12.406   4.517  19.874 -0.2363  0.0360 -0.2424
52158W        W95070  11.849   1.854  20.539  0.0769  0.0860 -0.1370
52159W        W95071  11.536  34.060  21.566  0.2186  0.1455 -0.0473
52160W        W95072  11.424   1.915  21.069  0.1776 -0.2811 -0.2979
52161W        W95073  12.356   2.911  19.213 -0.1449 -0.4060  0.0244
52162W        W95074  15.510   3.822  23.614  0.1154  0.1825  0.2748
52163W        W95075  12.121   2.989  19.829 -0.0039  0.0715  0.1009
52164W        W95076  14.448   0.667  22.271  0.1269 -0.0699  0.0088
52165W        W95077  11.232   2.796  22.973 -0.3221 -0.0574  0.0622
52166W        W95078  11.648   0.549  19.537 -0.0627 -0.0573  0.2452
52167W        W95079  11.471   2.149  20.653 -0.1143 -0.0627  0.1179
52168W        W95080  12.480   2.185  21.328  0.0824  0.0006 -0.0973
52169W        W95081  14.466   1.198  19.243  0.0489  0.3653  0.1142
52170W        W95082  10.548   0.929  21.595  0.1757  0.0786 -0.1684
52171W        W95083  12.595   0.945  21.563  0.0777 -0.0843  0.0871
52172W        W95084  11.620   3.123  22.506 -0.0161 -0.1579 -0.0812
52173W        W95085  11.262   1.227  21.693 -0.2219 -0.4007  0.3082
52174W        W95086  14.367   1.060  20.695  0.4116 -0.3216  0.0532
52175W        W95087  12.625   2.679  22.134 -0.1382 -0.4105 -0.1989
52176W        W95088  11.551   2.509  23.303 -0.1474 -0.3225 -0.0273
52177W        W95089  11.250   1.399  19.343  0.0052 -0.2392  0.0792
52178W        W95090  12.907   1.699  22.321 -0.0662  0.0247  0.1792
52179W        W95091  12.296   1.767  21.135  0.0848 -0.0729 -0.1469
52180W        W95092  12.099   5.565  20.691  0.0872 -0.1607  0.0076
52181W        W95093  12.485   2.426  22.734  0.0199  0.0989 -0.0153
52182W        W95094  11.338   2.504  21.663  0.1728 -0.0358  0.4116
52183W        W95095  12.318   3.960  19.402 -0.2080  0.2066 -0.0186
52184W        W95096  12.249   0.793  22.743 -0.2830 -0.2818 -0.2209
52185W        W95097  14.483   0.708  22.765  0.4581  0.0233 -0.2720
52186W        W95098  13.135   0.132  21.673 -0.2502  0.2242 -0.2521
52187W        W95099  11.031  34.475  20.271 -0.0820 -0.0649  0.1467
52188W        W95100  12.238   2.266  20.341  0.1967 -0.0951  0.2448
52189W        W95101  12.670   1.995  22.676 -0.0389  0.0788 -0.3745
52190W        W95102  11.851   1.529  23.094  0.0816  0.1482 -0.0265
52191W        W95103  11.559   2.006  24.204  0.3455 -0.0074 -0.3594
52192W        W95104  12.274   0.472  22.326  0.0304  0.1210 -0.4876
52193W        W95105  14.573   3.846  19.514 -0.0143  0.0500  0.1135
52194W        W95106  13.344   2.037  22.371 -0.1148  0.2508  0.2597
52195W        W95107  13.347   3.594  20.095  0.2650 -0.2265 -0.1287
52196W        W95108  10.820   2.479  21.830 -0.0953  0.3400 -0.3627
52197W        W95109  12.191   3.287  20.638 -0.0914  0.2073  0.2848
52198W        W95110  11.486   0.751  21.489  0.0750  0.1637 -0.0189
52199W        W95111  12.013   3.254  22.217 -0.1140 -0.1045  0.0603
52200W        W95112  11.464   2.506  20.249 -0.3865 -0.0101 -0.0519
52201W        W95113   9.422   2.337  20.886  0.0804 -0.0094 -0.0236
52202W        W95114  14.115   0.022  21.665  0.0177 -0.0530 -0.1993
52203W        W95115  12.029   2.616  21.120 -0.2439  0.0359  0.1665
52204W        W95116  12.268   2.236  20.878 -0.3333  0.0614  0.1291
52205W        W95117  13.469  34.671  20.698  0.2639  0.0339  0.0007
52206W        W95118  13.816   1.322  20.156 -0.2072  0.2729 -0.1295
52207W        W95119  12.900  34.465  23.679  0.1234  0.0927 -0.0186
52208W        W95120  12.620   0.407  22.671 -0.1247  0.1818  0.0303
52209W        W95121  14.297   1.353  22.483  0.0791 -0.3394 -0.1261
52210W        W95122   9.840   2.449  22.286 -0.0383 -0.0533 -0.1882
52211W        W95123  12.218   3.752  22.954  0.1887  0.3880 -0.0728
52212W        W95124  11.320   2.016  24.649  0.0486 -0.1115  0.3543
52213W        W95125  11.739   0.367  20.434 -0.2083  0.1274 -0.2503
52214W        W95126  10.550  34.149  20.500 -0.1513 -0.2153 -0.1985
52215W        W95127  12.755   3.191  21.492 -0.3171  0.1414  0.4187
52216W        W95128  13.935   3.244  20.769 -0.1025  0.0331 -0.1599
52217W        W95129  12.109   1.288  19.349 -0.0341 -0.0425  0.2011
52218W        W95130  14.300   1.283  21.593 -0.1211  0.2804  0.0576
52219W        W95131  12.165   2.800  22.474 -0.0175 -0.1878  0.0263
52220W        W95132  13.397   1.188  20.484 -0.2184 -0.0241  0.1336
52221W        W95133  13.475   1.617  19.629  0.1851 -0.2331  0.0244
52222W        W95134  10.443   2.179  21.705 -0.0446  0.4619 -0.0460
52223W        W95135  11.751   0.031  23.133  0.1458 -0.1039  0.0361
52224W        W95136  11.906   2.043  21.223 -0.1594 -0.1223  0.3473
52225W        W95137  12.880   0.505  20.462 -0.3883 -0.0039  0.1822
52226W        W95138  12.308   1.314  21.305 -0.1971  0.2820  0.3536
52227W        W95139  13.513   0.589  21.776 -0.2531  0.0965  0.0536
52228W        W95140  11.742   2.009  23.090  0.0515  0.0219  0.0749
52229W        W95141  10.337   1.141  23.479  0.0036  0.0425 -0.2346
52230W        W95142  14.186   2.433  22.515 -0.1097  0.3364  0.2501
52231W        W95143  13.260   0.607  20.011 -0.2239  0.0582  0.3268
52232W        W95144  13.245   0.951  22.711  0.3346  0.0911  0.1807
52233W        W95145  13.010   2.012  20.484 -0.1189 -0.0868  0.1601
52234W        W95146  13.008   1.738  19.695 -0.2866  0.1545 -0.0198
52235W        W95147  11.181   1.414  21.098  0.3701  0.0776  0.2250
52236W        W95148  12.639   1.125  23.660 -0.0095  0.0113 -0.2361
52237W        W95149  10.501   0.228  19.378  0.2702  0.1964 -0.2748
52238W        W95150  12.213   0.497  23.152  0.0960 -0.4874 -0.0003
52239W        W95151  12.493   1.722  19.728 -0.0642 -0.1352  0.0410
52240W        W95152  13.263   2.048  21.833  0.0082 -0.0950 -0.4435
52241W        W95153  11.395   1.054  20.041 -0.3541  0.3332  0.1501
52242W        W95154   9.995   0.976  21.527 -0.0058  0.0447  0.1135
52243W        W95155  12.363   2.088  23.229  0.1484 -0.1122 -0.1056
52244W        W95156  12.156   0.634  20.546 -0.0888 -0.0374  0.0064
52245W        W95157  11.624   1.571  20.220  0.4917 -0.2442 -0.0714
52246W        W95158  12.489   3.446  21.913 -0.1333 -0.1428 -0.1374
52247W        W95159  13.133   2.867  24.251  0.0467  0.0112 -0.0865
52248W        W95160  12.854   0.443  19.720 -0.0501  0.3792  0.2231
52249W        W95161  13.936   2.256  22.927  0.1830  0.0581  0.1688
52250W        W95162  11.442   3.228  20.959  0.0928  0.1849  0.0400
52251W        W95163  13.018   0.978  20.215 -0.0092  0.0686 -0.0859
52252W        W95164  12.057   4.577  21.560 -0.1384  0.2389  0.2779
52253W        W95165   9.829   2.224  23.953 -0.2499  0.1323 -0.0957
52254W        W95166  11.289   4.593  20.766 -0.1274  0.1948 -0.0297
52255W        W95167  13.288   0.859  23.208  0.1575 -0.3132  0.0870
52256W        W95168  12.360   1.743  21.652 -0.0608 -0.0095 -0.0554
52257W        W95169  12.171   1.438  20.770  0.0519  0.1789 -0.2353
52258W        W95170  13.732   0.287  22.270  0.0160 -0.0165  0.1600
52259W        W95171  12.868   2.917  22.695 -0.1644 -0.1767  0.5680
52260W        W95172   9.694   1.926  22.128 -0.0812 -0.1597 -0.0427
52261W        W95173  12.759   2.644  23.100  0.1675  0.0269 -0.3629
52262W        W95174  14.072   2.350  21.337 -0.0178 -0.1511 -0.2774
52263W        W95175  12.179   3.847  21.993  0.1965 -0.1058  0.3249
52264W        W95176  11.208   0.385  22.127  0.1536  0.0060 -0.1870
52265W        W95177  11.843   2.400  24.178 -0.2396 -0.0590 -0.0865
52266W        W95178  11.611   2.883  21.535  0.0934 -0.0554 -0.0698
52267W        W95179  10.498  32.881  19.536 -0.1646  0.2089  0.1611
52268W        W95180  12.282   2.318  19.322 -0.1473  0.0245 -0.0383
52269W        W95181  11.024   4.352  22.535  0.2935 -0.4553 -0.2073
52270W        W95182  11.026   1.726  23.624  0.1931 -0.1620 -0.0387
52271W        W95183  13.532   2.716  19.463 -0.3085  0.0960 -0.2498
52272W        W95184  12.503   2.756  21.520  0.0438 -0.0575 -0.0421
52273W        W95185  13.702   1.393  20.867  0.0802  0.2020 -0.5874
52274W        W95186  14.075   4.627  21.970 -0.2409  0.4463 -0.1760
52275W        W95187  10.889   1.107  19.690 -0.1351 -0.0107 -0.0718
52276W        W95188  11.669   2.621  22.429 -0.0618  0.2776  0.1641
52277W        W95189  10.985   2.834  20.706 -0.1195  0.1390 -0.0600
52278W        W95190  13.930   2.401  20.230  0.1155 -0.1558 -0.1342
52279W        W95191  10.290   3.669  21.918  0.0390 -0.1906 -0.1431
52280W        W95192  14.440   2.046  22.182  0.3631 -0.2282  0.1449
52281W        W95193  12.500   0.841  20.109 -0.2650  0.2950  0.0379
52282W        W95194  12.748   1.656  21.346  0.0473  0.2238  0.0750
52283W        W95195  15.256   0.433  20.747  0.2684  0.2110 -0.0952
52284W        W95196  14.537   3.741  24.575  0.0067 -0.5476  0.1663
52285W        W95197  11.618   1.180  22.175 -0.3202  0.0673 -0.0960
52286W        W95198  12.430   1.804  20.614  0.0671  0.1894  0.0587
52287W        W95199  11.217   2.190  23.200  0.3246 -0.0829 -0.0326
52288W        W95200  14.453  34.407  25.324  0.1271  0.0796 -0.2196
52289W        W95201  10.377   4.592  23.233 -0.0087  0.1338 -0.0645
52290W        W95202  15.677   1.873  19.964  0.0067  0.1043  0.0037
52291W        W95203  11.252   0.881  20.532  0.3311 -0.1836  0.0605
52292W        W95204  11.129   1.668  21.487 -0.0086  0.2377  0.3616
52293W        W95205  13.691  34.056  21.930 -0.2824  0.3388  0.0155
52294W        W95206  13.218   1.976  20.063 -0.1428  0.0724 -0.2197
52295W        W95207  13.658   1.081  21.476  0.0619  0.0563  0.1167
52296W        W95208  13.381   1.698  20.445  0.4597  0.2483  0.1053
52297W        W95209  12.877   3.988  21.742 -0.0384  0.3324 -0.3531
52298W        W95210  11.756   3.637  22.678 -0.3246  0.0520  0.0798
52299W        W95211  11.096   0.923  21.279  0.0718  0.1865  0.1055
52300W        W95212  13.385  34.386  21.562  0.0685 -0.1059  0.0027
52301W        W95213  10.964   0.717  21.736  0.0953 -0.1163 -0.1267
52302W        W95214  14.690  34.046  22.718  0.2138  0.0532 -0.1004
52303W        W95215  11.139   3.018  21.738 -0.1182  0.0962  0.5282
52304W        W95216  13.988   0.610  21.461 -0.0049 -0.4498 -0.0929
52305W        W95217  12.600   4.165  22.452  0.0452 -0.1810  0.3766
52306W        W95218  11.236   0.892  22.128  0.1011 -0.0882  0.2604
52307W        W95219  13.339   2.151  19.492  0.1446  0.2098  0.3088
52308W        W95220  14.053   0.853  22.506 -0.3357 -0.2766 -0.1884
52309W        W95221  13.458   2.445  19.864  0.0212  0.1733  0.1431
52310W        W95222  12.560   3.143  22.321  0.0416  0.1868  0.1666
52311W        W95223  10.949  34.272  21.345 -0.4405 -0.0268  0.1848
52312W        W95224  12.645   1.290  19.482 -0.1634 -0.2114  0.0882
52313W        W95225  10.725   1.326  21.380 -0.2187 -0.0883  0.5122
52314W        W95226  11.856   2.667  21.958 -0.0610 -0.0741 -0.1024
52315W        W95227  14.000   2.488  23.413  0.0523  0.3928  0.3334
52316W        W95228  11.492   1.084  21.062 -0.0094  0.0760 -0.1921
52317W        W95229  14.750   4.111  18.791 -0.0924  0.1542  0.1799
52318W        W95230  13.944   1.657  21.400  0.1482 -0.0261 -0.0698
52319W        W95231  12.618   3.562  21.145  0.2078  0.0667  0.1368
52320W        W95232  13.164   1.445  20.831  0.1844  0.2839  0.0360
52321W        W95233  13.967   1.993  22.529 -0.0005 -0.0473  0.4527
52322W        W95234  11.992   2.421  22.822 -0.2746 -0.3451  0.1407
52323W        W95235  13.713   2.977  23.330 -0.3279  0.0910  0.1440
52324W        W95236  12.972   2.407  22.727 -0.0435 -0.1296  0.0821
52325W        W95237  11.581  34.333  20.593  0.0557  0.1177 -0.2305
52326W        W95238  10.086   1.814  21.765  0.2493 -0.0659  0.3248
52327W        W95239  11.342   4.083  20.792  0.0017  0.2363  0.0570
52328W        W95240  14.436   0.351  21.389 -0.2382 -0.2304 -0.0619
52329W        W95241  12.848   1.394  22.769 -0.0976  0.1746  0.1037
52330W        W95242  13.941   2.399  18.554  0.0494  0.1108  0.0480
52331W        W95243  13.888  32.861  24.543  0.0638  0.2111  0.1833
52332W        W95244  12.446   3.642  22.403  0.2553  0.0947 -0.2835
52333W        W95245  11.218   3.767  23.467 -0.1358 -0.2544  0.1211
52334W        W95246  11.520   2.271  19.713  0.2212  0.1545 -0.0255
52335W        W95247  12.944   1.252  24.653 -0.1144 -0.0687  0.0867
52336W        W95248  11.592   3.141  21.974  0.1299  0.1430  0.1548
52337W        W95249  14.140   4.288  19.986 -0.0053 -0.0805  0.0731
52338W        W95250  13.249   1.514  21.735  0.2626 -0.0896 -0.1130
52339W        W95251  11.460  34.588  20.141 -0.2562  0.2528 -0.0597
52340W        W95252  14.007   4.599  22.452  0.0422  0.1245 -0.1045
52341W        W95253  11.878   0.215  19.880 -0.2516 -0.1157 -0.1911
52342W        W95254  15.673   0.623  22.363  0.0352 -0.1424  0.0245
52343W        W95255  12.696   0.171  21.233  0.0264  0.1321 -0.2946
52344W        W95256  12.104   0.954  22.221  0.0366  0.1904  0.1251
52345W        W95257  11.359   1.562  19.797 -0.2935 -0.1808  0.1892
52346W        W95258  11.712   2.195  19.135  0.1593  0.1041 -0.2788
52347W        W95259  11.791   2.905  22.930 -0.0308  0.3850  0.2657
52348W        W95260  14.619   0.239  22.641 -0.1804 -0.1058 -0.0432
52349W        W95261  10.905   1.338  23.267 -0.1563  0.1138 -0.2538
52350W        W95262   8.796   2.663  22.259 -0.0149 -0.1714 -0.0249
52351W        W95263  10.538   1.531  20.987 -0.0789  0.1175 -0.0250
52352W        W95264  12.813   2.966  19.781  0.2831 -0.0127 -0.5094
52353W        W95265  10.849   0.090  20.641  0.0337 -0.2612  0.1201
52354W        W95266  10.711  33.490  21.867 -0.0559 -0.1474  0.0550
52355W        W95267  12.276   2.978  21.916 -0.0720  0.0844  0.1175
52356W        W95268  13.621   2.922  21.011  0.1254 -0.0326 -0.0519
52357W        W95269  11.340   0.124  20.612  0.0911 -0.4712  0.1995
52358W        W95270  14.124   2.440  23.983 -0.1110 -0.1433 -0.5050
52359W        W95271  10.113   1.357  20.021  0.0676  0.0396  0.2410
52360W        W95272  11.521   1.443  22.618  0.0886 -0.2263 -0.2649
52361W        W95273  12.832   0.596  24.275  0.0259 -0.0132  0.1534
52362W        W95274  10.031   0.883  19.871  0.2859  0.0418 -0.3592
52363W        W95275  12.403   1.596  22.919 -0.3056  0.0104  0.1259
52364W        W95276  12.964   2.838  20.264 -0.1667  0.2052  0.3239
52365W        W95277  14.352   2.647  19.343 -0.3463 -0.0158 -0.1820
52366W        W95278  12.334   2.335  21.913 -0.4206 -0.2088  0.0574
52367W        W95279  13.450   3.439  23.260  0.3247 -0.2434  0.2532
52368W        W95280  10.251   0.609  21.333  0.1544 -0.0288  0.2572
52369W        W95281  13.949   1.277  19.629 -0.0494 -0.0686 -0.0048
52370W        W95282  13.016   2.499  23.847 -0.2113  0.2554  0.0875
52371W        W95283  14.612   1.748  19.164 -0.3383  0.1489  0.0527
52372W        W95284  12.894   0.015  20.677 -0.1227 -0.4041 -0.2549
52373W        W95285  12.074   1.000  20.940  0.1405  0.1449  0.0748
52374W        W95286  11.281   0.057  22.931 -0.1879  0.4706  0.0445
52375W        W95287  11.543   2.681  23.814  0.1637 -0.0078 -0.0675
52376W        W95288  12.767   1.958  20.929 -0.1201  0.0891 -0.0507
52377W        W95289   9.656   0.653  21.198  0.1906  0.1540 -0.5059
52378W        W95290  12.805   0.049  20.143 -0.0096 -0.1045  0.0002
52379W        W95291  12.731   2.992  20.692 -0.0756 -0.0861 -0.1709
52380W        W95292   9.613   2.006  22.694 -0.1054 -0.4707  0.0804
52381W        W95293  13.462   1.100  19.407  0.1209 -0.0500  0.2761
52382W        W95294  11.401   2.967  23.406 -0.0260  0.4052 -0.2133
52383W        W95295  12.667   2.531  20.993  0.0892  0.0064  0.1639
52384W        W95296  13.015   1.193  22.251  0.0200 -0.0509 -0.0511
52385W        W95297  11.317   2.757  22.138  0.0464  0.1334 -0.2455
52386W        W95298  13.161   1.435  20.072  0.1315  0.1528  0.1912
52387W        W95299  13.745   3.575  23.609  0.0363  0.0169  0.1785
52388W        W95300  13.164   3.326  22.855 -0.0155  0.0757  0.1097
52389W        W95301  11.770   3.714  23.420  0.2982  0.0498  0.2782
52390W        W95302  14.400   2.030  21.108  0.0356  0.0062  0.3561
52391W        W95303  12.774   0.871  22.641 -0.0556 -0.0221 -0.0267
52392W        W95304  12.714   4.177  19.635 -0.1049 -0.0946  0.1099
52393W        W95305  10.733   2.032  21.294 -0.0408  0.3410  0.3027
52394W        W95306  14.024   0.541  21.997 -0.0617  0.1918  0.2123
52395W        W95307  11.753   1.520  21.086 -0.0731 -0.2764  0.1442
52396W        W95308  12.683   1.312  20.022  0.0109 -0.0594  0.1921
52397W        W95309  11.847   4.080  23.008 -0.1991 -0.0155 -0.1672
52398W        W95310  12.067   0.875  21.423 -0.0789 -0.3165  0.0356
52399W        W95311  11.526   2.218  27.243  0.1038  0.2521 -0.1353
52400W        W95312  11.249  34.547  24.958  0.1892 -0.0771 -0.0682
52401W        W95313  13.595   0.113  23.538  0.1392 -0.1927  0.2007
52402W        W95314  12.735   1.762  25.011  0.2239 -0.1762 -0.0637
52403W        W95315  12.110  34.613  24.342 -0.0507 -0.1125  0.3875
52404W        W95316  14.070   1.948  23.834  0.0522 -0.0223  0.1583
52405W        W95317  11.584  34.566  25.696  0.2006  0.1283  0.0111
52406W        W95318  14.245   1.680  26.301 -0.1073 -0.0217 -0.1413
52407W        W95319  14.979   4.316  26.669 -0.2083 -0.1105 -0.0014
52408W        W95320  13.847   1.141  22.887  0.1165  0.2369 -0.3187
52409W        W95321  12.945   2.068  27.567 -0.0151 -0.0455  0.0340
52410W        W95322  13.539   1.948  25.904 -0.0146  0.0258  0.1347
52411W        W95323  12.069  34.274  23.964 -0.7573  0.0419 -0.3034
52412W        W95324  10.718  33.500  26.420 -0.1013  0.0128 -0.1598
52413W        W95325  14.731   0.801  25.562 -0.1931 -0.3241  0.4604
52414W        W95326  11.754   3.348  24.119  0.1041  0.1052  0.0048
52415W        W95327  11.837   0.924  25.721 -0.2084 -0.0519 -0.0315
52416W        W95328  12.638   0.871  25.173  0.1068 -0.1455  0.1891
52417W        W95329  14.556   2.136  25.451  0.4009 -0.0929 -0.0460
52418W        W95330  13.265   0.496  26.974  0.0340  0.3029  0.1835
52419W        W95331  13.328  34.400  26.032 -0.2411  0.0391  0.1281
52420W        W95332  13.153   1.657  26.108  0.0477  0.0648 -0.1708
52421W        W95333  11.621   1.256  23.507  0.0158 -0.2389 -0.1253
52422W        W95334  12.256  34.677  26.441  0.0387  0.1347 -0.2327
52423W        W95335  13.003   1.759  27.176  0.2233  0.1789  0.0227
52424W        W95336  13.297   0.506  26.174 -0.5507 -0.3162 -0.0938
52425W        W95337  12.841   1.984  24.557  0.2152 -0.1724  0.0665
52426W        W95338  11.431   4.520  25.669 -0.0712 -0.3806 -0.3290
52427W        W95339  13.658   2.633  25.670  0.1012  0.3013 -0.3965
52428W        W95340  12.845   1.228  26.184  0.0803 -0.1758  0.2648
52429W        W95341  11.156   3.289  24.357  0.3391 -0.2133  0.0159
52430W        W95342  10.532   4.536  26.755 -0.1745 -0.0028  0.1170
52431W        W95343  11.895   3.476  25.036 -0.2058 -0.0095 -0.1887
52432W        W95344  15.589   2.376  25.258  0.1734  0.1907  0.2455
52433W        W95345  13.360   2.639  26.575 -0.0291  0.3775  0.1158
52434W        W95346  13.178   2.950  25.781 -0.1168  0.1008  0.2316
52435W        W95347  11.251   2.939  24.759 -0.2308 -0.0002 -0.0394
52436W        W95348  13.205   3.376  27.963  0.1616  0.1952 -0.0735
52437W        W95349  12.269   2.226  26.380 -0.0976  0.0988 -0.2644
52438W        W95350  12.809  34.117  26.213 -0.0990 -0.4599 -0.0862
52439W        W95351  12.557   1.581  24.496  0.0752 -0.0976 -0.1462
52440W        W95352  12.784   2.216  25.300 -0.1387  0.2894 -0.1825
52441W        W95353  12.383   1.382  26.362 -0.1632  0.0378 -0.1944
52442W        W95354  13.042   2.962  28.772 -0.1758  0.1109  0.0260
52443W        W95355  10.663   3.309  24.389  0.1438  0.1325  0.0876
52444W        W95356  14.339   0.453  27.505  0.0699  0.0968  0.1084
52445W        W95357  12.528   2.791  23.854  0.4674  0.1629 -0.0895
52446W        W95358  14.233   0.364  23.060 -0.0633 -0.2063 -0.2857
52447W        W95359  11.320   0.706  23.394 -0.1164  0.0156  0.0687
52448W        W95360  13.634   0.618  22.665 -0.0219  0.1848  0.1400
52449W        W95361  11.419   1.043  25.411 -0.3168 -0.2497  0.3803
52450W        W95362  11.364   4.713  26.903 -0.2729  0.0840 -0.0396
52451W        W95363  11.913   0.176  25.429 -0.2315 -0.1161  0.0079
52452W        W95364  14.486   3.445  27.818  0.0754  0.0806  0.1603
52453W        W95365  12.241   1.428  23.545 -0.1298  0.1927 -0.3856
52454W        W95366  13.901   1.624  25.558 -0.3988 -0.0461 -0.0208
52455W        W95367  11.540   3.189  26.075  0.3096 -0.2307 -0.3722
52456W        W95368  11.672   0.732  26.180 -0.3310 -0.1339 -0.2999
52457W        W95369  15.777   4.818  23.035 -0.1779  0.2731  0.1268
52458W        W95370  15.134   1.802  26.315 -0.0830  0.2854 -0.1788
52459W        W95371  12.064   3.847  25.290 -0.5503 -0.0123  0.1112
52460W        W95372  11.486   1.170  24.497 -0.1904  0.0063 -0.0049
52461W        W95373  10.043   2.220  26.600 -0.2081 -0.1072  0.0674
52462W        W95374  11.258   1.979  27.834 -0.0454 -0.0472  0.0118
52463W        W95375  11.460   0.564  22.881  0.1681 -0.0185  0.1745
52464W        W95376  15.783   2.964  27.434 -0.1642 -0.1740 -0.1245
52465W        W95377   9.959   2.513  27.017 -0.1313 -0.2138 -0.1309
52466W        W95378  15.478  34.449  25.268 -0.0242 -0.1190  0.2990
52467W        W95379  12.166   1.234  24.543  0.0005 -0.1674 -0.1808
52468W        W95380  15.018   2.653  25.228  0.0999  0.1876 -0.0806
52469W        W95381  12.765   1.691  23.312  0.1922 -0.0077  0.1739
52470W        W95382  14.465   0.392  26.002  0.1997  0.1408 -0.0594
52471W        W95383  13.048   0.048  25.268  0.1606 -0.0330  0.0178
52472W        W95384  12.187   1.719  24.782  0.1333  0.0326  0.1441
52473W        W95385  12.269   1.152  23.082  0.0927 -0.1171 -0.2353
52474W        W95386  15.714   2.521  27.723 -0.0570  0.1146 -0.2577
52475W        W95387  12.976   0.741  23.675  0.2077  0.0999 -0.0736
52476W        W95388  11.997   3.749  27.630 -0.1577 -0.0033 -0.0932
52477W        W95389  11.365   0.488  26.748  0.0018 -0.1116  0.2351
52478W        W95390  12.292   4.303  29.128 -0.0915  0.0531  0.1279
52479W        W95391  11.142   3.500  25.999 -0.0084  0.0813 -0.0966
52480W        W95392  10.933   1.126  25.588  0.0748  0.2515 -0.1367
52481W        W95393  11.011   2.485  24.726  0.2918 -0.1166  0.1201
52482W        W95394  10.596  34.624  26.719 -0.1889  0.0185  0.0051
52483W        W95395  12.776   1.527  26.699  0.0807 -0.1434  0.0880
52484W        W95396  14.690   0.153  23.236  0.0620 -0.0238  0.1896
52485W        W95397  11.318   1.057  25.924 -0.0724 -0.3575  0.0572
52486W        W95398  15.049   0.245  24.224 -0.1637 -0.1819  0.1702
52487W        W95399  12.069   2.138  25.927  0.1023  0.0373  0.0363
52488W        W95400  14.463   1.755  25.722  0.1081  0.0839  0.0691
52489W        W95401  14.112   0.336  22.585 -0.0495 -0.1144 -0.2025
52490W        W95402  13.508   2.378  23.323  0.1258 -0.0389  0.2171
52491W        W95403  11.792   0.599  25.175 -0.1838  0.0404  0.0310
52492W        W95404  11.677   0.375  24.745 -0.0552  0.2132  0.1024
52493W        W95405  12.354   0.997  26.723  0.2418 -0.0420  0.1760
52494W        W95406  10.551   0.764  25.338 -0.1511 -0.1604  0.0843
52495W        W95407  12.535   0.722  25.842 -0.1780  0.1364  0.0233
52496W        W95408  10.393   0.255  25.128 -0.0417 -0.0999  0.2443
52497W        W95409  13.992   2.364  24.676  0.1907  0.2062  0.0301
52498W        W95410  11.857   1.181  26.157  0.2362 -0.2236  0.0232
52499W        W95411  10.994   1.736  24.930  0.0408  0.0715  0.1832
52500W        W95412  13.368   0.393  27.905  0.3183 -0.0816 -0.3330
52501W        W95413  13.113   1.551  24.295  0.0131  0.3465  0.3074
52502W        W95414  15.182   3.906  26.451  0.1706 -0.1228 -0.3781
52503W        W95415  14.512   2.752  25.231 -0.0879  0.2075  0.1445
52504W        W95416  12.025   0.900  27.137  0.1353  0.1821  0.0171
52505W        W95417  11.026   1.900  24.105  0.3259 -0.2400  0.0793
52506W        W95418  11.582   3.736  25.347 -0.2392  0.3151  0.2382
52507W        W95419  13.825   1.466  26.184 -0.1012  0.0050  0.0360
52508W        W95420  12.329   1.558  24.037  0.0469  0.2060 -0.1205
52509W        W95421  13.483   3.054  25.166  0.2332 -0.0914 -0.0666
52510W        W95422  13.627   1.219  25.317 -0.2794 -0.0896 -0.0174
52511W        W95423  13.292   1.896  26.781 -0.1385  0.0062 -0.1603
52512W        W95424  13.663   0.324  26.490 -0.1971 -0.0200 -0.2543
52513W        W95425  14.810   3.442  28.156  0.0730  0.0418 -0.0972
52514W        W95426  13.176   0.914  25.320 -0.0142 -0.2031 -0.2420
52515W        W95427  11.884   1.261  24.108  0.0043  0.0649  0.4128
52516W        W95428  12.487   1.303  25.000 -0.0256  0.1792 -0.0898
52517W        W95429  12.261   3.263  23.950 -0.3855  0.2433 -0.2625
52518W        W95430  11.311   1.947  25.679 -0.0398  0.1668 -0.0816
52519W        W95431  11.838   2.128  24.591  0.0104  0.1222 -0.2998
52520W        W95432  11.737   1.398  25.708 -0.3923 -0.1053 -0.1068
52521W        W95433  12.452   1.730  27.320 -0.0199  0.1802 -0.1864
52522W        W95434  14.276   1.008  27.705 -0.0398 -0.0204 -0.0537
52523W        W95435  10.384   1.596  25.414  0.1302  0.0443  0.2599
52524W        W95436  11.997   1.811  27.227 -0.2814  0.0710 -0.2247
52525W        W95437  13.635  34.272  25.120 -0.0250 -0.0708 -0.2096
52526W        W95438  14.879   0.612  22.994  0.2100 -0.0102  0.3149
52527W        W95439  13.981   1.404  26.682  0.4778 -0.1114  0.0836
52528W        W95440  14.312   2.104  24.254 -0.1835  0.0723 -0.3616
52529W        W95441  12.496   0.646  23.781 -0.3187 -0.2858  0.0391
52530W        W95442  14.987  34.431  25.087  0.1165 -0.4409  0.1776
52531W        W95443  10.982   2.513  26.177 -0.0344  0.0873 -0.1300
52532W        W95444  11.611   3.274  25.503  0.2847  0.2881 -0.2296
52533W        W95445  13.450   2.107  27.346 -0.0944 -0.0228  0.0594
52534W        W95446  13.344   0.512  24.058 -0.1281  0.0573 -0.0254
52535W        W95447  14.239   2.752  24.507  0.1310 -0.0472 -0.0929
52536W        W95448  11.397   0.253  25.250 -0.0313 -0.4472  0.1507
52537W        W95449  14.371   3.114  27.367 -0.1846 -0.2309  0.1938
52538W        W95450  14.002   2.136  26.032  0.0486 -0.0471 -0.0277
52539W        W95451  12.873  34.244  25.122  0.0378  0.0567 -0.0902
52540W        W95452  11.688   0.613  21.979 -0.1747 -0.1474 -0.1818
52541W        W95453  13.349   0.973  24.356  0.0174  0.2474  0.2914
52542W        W95454  11.911   5.152  24.064  0.0019  0.2493 -0.2321
52543W        W95455  14.219  34.671  25.668 -0.0790 -0.0240  0.2021
52544W        W95456  12.773  34.660  24.872  0.0350 -0.1491  0.0770
52545W        W95457  12.829   0.309  26.723 -0.1431  0.0160 -0.1393
52546W        W95458  14.262   3.355  28.589 -0.0043  0.0999 -0.0883
52547W        W95459  13.179   2.115  25.042  0.0827  0.0501  0.1251
52548W        W95460  11.436   1.753  25.172 -0.1107  0.0586 -0.5043
52549W        W95461  11.252   1.583  24.398  0.0069 -0.0446 -0.0101
52550W        W95462  12.310   0.292  25.147 -0.2174 -0.0923 -0.2861
52551W        W95463  13.289   2.008  27.915 -0.1971 -0.0702 -0.0274
52552W        W95464  10.979   3.276  26.644 -0.2057  0.1555 -0.0605
52553W        W95465  14.064   1.529  27.573 -0.0116  0.0302 -0.2657
52554W        W95466  14.528   2.078  26.180 -0.1144  0.3457 -0.1244
52555W        W95467  12.950   1.239  28.285  0.2684 -0.0844  0.0225
52556W        W95468  12.239   0.682  21.824 -0.0434 -0.0954  0.1736
52557W        W95469  12.670   3.162  25.880 -0.1704 -0.0258 -0.3229
52558W        W95470  12.709   2.036  24.025  0.2671 -0.0200  0.1671
52559W        W95471  12.507  34.406  24.522 -0.4604 -0.1097 -0.0672
52560W        W95472  12.823   1.661  25.485  0.0565 -0.1969  0.1006
52561W        W95473  11.618   2.831  24.284  0.1645 -0.3645 -0.1713
52562W        W95474  14.115   2.170  26.531 -0.1766  0.3894  0.5784
52563W        W95475  11.364   2.777  25.621 -0.3465  0.2172  0.2683
52564W        W95476  14.911   0.736  24.057  0.1339  0.1828 -0.0639
52565W        W95477  10.139   3.410  25.539  0.0592  0.0729  0.1344
52566W        W95478  13.455   0.604  23.561 -0.1774 -0.0458  0.1850
52567W        W95479  10.700   1.489  23.951 -0.1124  0.1569 -0.1393
52568W        W95480  13.594   0.556  24.710 -0.0770  0.1340  0.2826
52569W        W95481  13.094   1.840  22.875 -0.1392  0.2709  0.1028
52570W        W95482  10.604  34.666  25.601 -0.0978 -0.1112 -0.0261
52571W        W95483  12.202  33.740  25.680 -0.0251  0.0766  0.0957
52572W        W95484  10.588   2.567  25.410  0.3157 -0.0684  0.1713
52573W        W95485  13.479   1.476  27.044 -0.1081  0.1805 -0.1620
52574W        W95486  14.401  33.182  22.172 -0.2315 -0.0324  0.0426
52575W        W95487  14.006   2.902  25.383 -0.0812 -0.1888 -0.2446
52576W        W95488  13.157   2.152  26.271 -0.0582  0.0051 -0.1072
52577W        W95489  10.179   0.629  24.083 -0.2039  0.0157 -0.4437
52578W        W95490  13.757   2.040  24.265  0.1396  0.2436  0.0195
52579W        W95491  12.910   1.118  24.086  0.4949  0.0343 -0.2377
52580W        W95492  11.024   3.014  26.161 -0.0194  0.1673  0.1863
52581W        W95493  12.765   2.443  26.126  0.0209  0.3008  0.1942
52582W        W95494  11.600   2.401  25.894  0.0445 -0.1336  0.0522
52583W        W95495  12.347   1.918  26.802 -0.1560  0.0350 -0.1038
52584W        W95496  11.357   2.547  27.652 -0.0577  0.2023  0.2040
52585W        W95497  14.339   2.629  26.177 -0.1665  0.3519 -0.1140
52586W        W95498  10.883   0.817  26.557  0.0033 -0.2505 -0.0352
52587W        W95499  11.305   0.706  24.394  0.0492  0.1396 -0.3780
52588W        W95500  11.902   1.544  25.176 -0.1990  0.1164  0.3669
52589W        W95501  15.038   2.290  27.498 -0.1069  0.2874  0.0297
52590W        W95502  13.779   0.586  26.933 -0.1159  0.1852 -0.1608
52591W        W95503  12.319   1.397  26.998 -0.2265 -0.1529 -0.0901
52592W        W95504  12.005  34.145  24.588 -0.0574 -0.0415  0.1123
52593W        W95505  15.893   3.891  24.555  0.1289  0.0395 -0.1820
52594W        W95506  13.812   2.359  28.733  0.3117  0.0683  0.2442
52595W        W95507  11.085   2.379  25.681 -0.1251 -0.1203 -0.1253
52596W        W95508  10.902   2.844  25.707 -0.2585 -0.1539 -0.2748
52597W        W95509  12.126   3.372  24.478  0.3828  0.2031  0.1099
52598W        W95510  12.466   0.235  25.813 -0.1161 -0.0195  0.1302
52599W        W95511  11.967   3.588  27.123  0.1161 -0.2824 -0.3478
52600W        W95512  11.328   3.721  24.087 -0.1608 -0.0960 -0.2112
52601W        W95513  10.920   2.175  26.554 -0.0373 -0.0281  0.1105
52602W        W95514  14.329  34.355  23.926  0.1493 -0.3175  0.2980
52603W        W95515  12.651   3.310  22.877  0.1386  0.0561 -0.2428
52604W        W95516  12.737   0.451  24.908  0.0697 -0.1986  0.2480
52605W        W95517  14.377   1.409  27.187 -0.0156 -0.3305  0.1584
52606W        W95518  13.277   1.728  23.283 -0.0750 -0.3078 -0.2658
52607W        W95519  13.520  33.860  27.576 -0.1067  0.0667  0.1216
52608W        W95520  11.129  33.920  26.237  0.0483 -0.1231  0.0527
52609W        W95521  13.608   1.582  24.541  0.0390  0.0897 -0.5297
52610W        W95522  10.940   1.735  26.299  0.2423  0.0840 -0.0729
52611W        W95523  13.564   3.943  27.051 -0.0999 -0.0560  0.3737
52612W        W95524  10.747   0.869  29.095 -0.0206  0.1038 -0.0976
52613W        W95525  13.982   0.878  24.905 -0.2886  0.0974  0.2002
52614W        W95526  11.210   0.337  24.779 -0.2678 -0.2761  0.0014
52615W        W95527  13.420   1.806  25.356  0.1641  0.0482 -0.2172
52616W        W95528  15.008   2.242  25.431  0.0419  0.1350 -0.1820
52617W        W95529  12.338   2.033  24.415 -0.0199 -0.0629 -0.2088
52618W        W95530  13.825   1.072  25.838  0.0986  0.0498 -0.2676
52619W        W95531  11.932   2.201  26.813 -0.0767  0.2452 -0.0377
52620W        W95532  13.152   1.296  23.591  0.4228 -0.0788 -0.1405
52621W        W95533  13.449   2.226  22.816 -0.1997  0.2347  0.0382
52622W        W95534  11.700   2.194  26.368 -0.0863  0.2663 -0.0733
52623W        W95535  11.963  34.021  25.125 -0.2112 -0.1525  0.0436
52624W        W95536  14.585   2.945  26.970 -0.1319  0.2304 -0.0776
52625W        W95537  14.260   0.779  25.806 -0.1938 -0.1446  0.2018
52626W        W95538  13.667   0.956  26.682 -0.1086 -0.1159  0.2158
52627W        W95539  14.085   2.768  26.992 -0.0973  0.1486  0.0430
52628W        W95540  13.110   2.144  29.442  0.1874  0.1494 -0.1960
52629W        W95541  11.526   0.035  28.221  0.2844  0.0134  0.2542
52630W        W95542  13.099   2.722  25.258  0.2394  0.1151 -0.1997
52631W        W95543  14.835   1.054  22.530  0.1502  0.3092 -0.2718
52632W        W95544  13.745   1.947  27.710 -0.1693  0.2305 -0.0630
52633W        W95545  13.853   2.848  24.842  0.1264 -0.1652  0.0679
52634W        W95546  13.140   0.296  24.630 -0.1212  0.1630 -0.3249
52635W        W95547  11.861   1.889  25.596 -0.0288  0.1169 -0.0230
52636W        W95548  13.731   2.426  26.333 -0.0784 -0.0898 -0.0361
52637W        W95549  10.819   1.792  23.124  0.1182 -0.2255  0.1089
52638W        W95550  13.234   0.091  26.432 -0.0662 -0.3412 -0.3073
52639W        W95551  12.567   3.182  23.440 -0.2649 -0.1639 -0.2649
52640W        W95552  12.298   1.177  25.921  0.0147  0.2636 -0.0103
52641W        W95553  14.307   0.454  25.343  0.1822 -0.1513 -0.0544
52642W        W95554  10.688   1.426  25.942  0.1711 -0.0269  0.1079
52643W        W95555  13.049   2.566  27.521 -0.1860 -0.1769 -0.0074
52644W        W95556  11.394   1.544  23.898 -0.0653  0.2600 -0.1805
52645W        W95557  12.428   0.936  24.240 -0.2382  0.0057 -0.0062
52646W        W95558  12.387   2.737  26.398 -0.0485  0.0869  0.2396
52647W        W95559  15.277   3.579  28.510  0.1345  0.0787 -0.0524
52648W        W95560  14.692  34.498  22.850 -0.1191 -0.2149  0.1173
52649W        W95561  15.457   1.988  27.695  0.2009  0.0187 -0.0399
52650W        W95562  12.097   2.967  25.276 -0.0742  0.1318  0.1589
52651W        W95563  13.570   0.945  23.881 -0.3083 -0.1018 -0.4962
52652W        W95564  12.153   4.385  26.469 -0.0994 -0.4585 -0.2011
52653W        W95565  11.132   3.292  25.516 -0.2023 -0.2333  0.2357
52654W        W95566  13.139   1.340  25.661  0.2369  0.2973  0.0222
52655W        W95567  11.830   0.785  26.715  0.0453  0.0879 -0.0305
52656W        W95568  13.495   1.043  24.838  0.0556  0.1457 -0.0241
52657W        W95569  13.356   2.295  25.480 -0.1545 -0.2757 -0.1319
52658W        W95570  15.030   2.782  27.514  0.1424  0.1708  0.5254
52659W        W95571  12.906   4.036  28.288 -0.0276  0.3643  0.0427
52660W        W95572  11.572   2.331  25.418  0.0279  0.1373 -0.1095
52661W        W95573  13.113   2.358  27.009  0.2478 -0.1782 -0.1005
52662W        W95574  14.279   1.272  25.812  0.2307 -0.1558 -0.0977
52663W        W95575  13.020   3.212  25.311  0.1908 -0.1350  0.1405
52664W        W95576  11.506   1.285  26.954 -0.0364  0.0809  0.2770
52665W        W95577  12.221   0.870  26.290 -0.0702 -0.4329 -0.0947
52666W        W95578  12.396   3.279  24.927 -0.0899 -0.1807 -0.1104
52667W        W95579   9.839   0.421  25.261 -0.1865  0.0025 -0.0303
52668W        W95580  12.507   2.671  25.190 -0.1170  0.0535  0.2043
52669W        W95581  10.134   2.778  27.479  0.1326 -0.2014  0.0425
52670W        W95582  11.994   2.992  24.728 -0.1109  0.2138 -0.6090
52671W        W95583  11.826   3.763  24.446 -0.3236  0.1053  0.2709
52672W        W95584  11.917   1.679  24.326 -0.0894  0.0020 -0.1215
52673W        W95585  11.618   2.902  25.175  0.0739  0.1097  0.0319
52674W        W95586  12.053   4.233  25.672  0.1168 -0.0855  0.1102
52675W        W95587  12.850   1.570  23.848  0.1148  0.2037  0.1452
52676W        W95588  11.094   3.774  27.064 -0.0411 -0.1757 -0.1975
52677W        W95589  10.869   3.440  23.905 -0.1518 -0.1303  0.0558
52678W        W95590  13.315   2.635  24.839 -0.0923  0.3039  0.0485
52679W        W95591  12.078   2.411  25.501  0.0540 -0.1238 -0.2497
52680W        W95592  13.648   2.245  26.873  0.1051 -0.1060 -0.1345
52681W        W95593  12.846   1.169  23.206  0.0492 -0.1829 -0.0613
52682W        W95594  14.849  34.460  24.052 -0.0258  0.4621 -0.1338
52683W        W95595  14.715   0.649  23.496  0.1487  0.1302 -0.1818
52684W        W95596  12.402   2.441  26.844 -0.2562 -0.4927 -0.0114
52685W        W95597  13.403   1.085  26.135 -0.2690 -0.0489 -0.0604
52686W        W95598  11.847   2.155  23.594 -0.1319  0.5192 -0.0749
52687W        W95599  12.816   1.629  28.004  0.3754 -0.1534  0.0151
52688W        W95600  14.603   0.834  27.300  0.1932  0.2023 -0.1377
52689W        W95601   9.623   2.773  27.540  0.3325  0.1483 -0.1042
52690W        W95602  14.392   3.010  24.065  0.0642 -0.0996  0.0453
52691W        W95603  11.724   1.110  24.967 -0.1242 -0.1606 -0.0095
52692W        W95604  12.089   1.631  26.026 -0.1933 -0.2309 -0.0621
52693W        W95605  13.475   0.775  25.673 -0.1461 -0.0620  0.0551
52694W        W95606  12.876  33.960  24.597 -0.1646  0.1973  0.0720
52695W        W95607  12.055  34.689  25.917 -0.0080 -0.0628  0.1436
52696W        W95608  13.293   3.581  24.907  0.1708  0.2387  0.3186
52697W        W95609  11.671   4.258  25.371 -0.4156  0.3738 -0.3291
52698W        W95610  11.871   3.535  26.408  0.2882  0.0267 -0.1290
52699W        W95611   9.703   0.622  24.757 -0.1030 -0.1499  0.1046
52700W        W95612  13.954   1.242  24.502  0.1830 -0.0111  0.0496
52701W        W95613  11.609   1.718  26.753  0.2084 -0.0621 -0.1414
52702W        W95614  13.476   0.279  25.508  0.0393 -0.4357 -0.1014
52703W        W95615  12.156   2.833  24.242 -0.2130  0.0708  0.1998
52704W        W95616  14.175   0.960  26.875 -0.1015 -0.0130 -0.3335
52705W        W95617  13.479   1.411  26.531  0.1673  0.1857  0.2034
52706W        W95618  12.676   2.115  27.136 -0.3504 -0.0695  0.2808
52707W        W95619  12.920   2.181  23.141  0.1410  0.4251 -0.2987
52708W        W95620  13.909   1.283  27.160 -0.0965  0.3367 -0.0695
52709W        W95621  12.304   1.936  23.666  0.2039  0.1671 -0.0220
52710W        W95622  14.043   4.156  25.179  0.3486 -0.1448  0.1746
52711W        W95623  10.201   0.520  25.656 -0.0353  0.1157 -0.0202
52712W        W95624  12.443  34.682  22.831  0.4958  0.0405 -0.0492
52713W        W95625  10.719   0.873  26.076  0.0651 -0.1004  0.3409
52714W        W95626  11.153   1.545  26.713  0.1150  0.1589  0.0227
52715W        W95627  15.067   3.167  27.832  0.2887 -0.0203  0.1372
52716W        W95628  10.971   0.336  24.276 -0.0527  0.0748 -0.1067
52717W        W95629  14.586   3.318  23.207 -0.1936 -0.0854 -0.3687
52718W        W95630  14.112   1.095  26.292  0.2115  0.1366 -0.1352
52719W        W95631  11.920   4.574  22.975  0.2167 -0.2547 -0.1104
52720W        W95632  14.243   3.104  25.005 -0.0081 -0.2481  0.2526
52721W        W95633  14.012   2.784  26.516 -0.0567 -0.3299 -0.0291
52722W        W95634  11.981  34.429  25.402 -0.2493  0.1488  0.0092
52723W        W95635  11.434   2.948  26.742  0.1739 -0.2777  0.1116
52724W        W95636  14.533   3.489  27.022  0.0073  0.0518 -0.2496
52725W        W95637  12.732   0.231  23.953 -0.1282 -0.1480  0.0456
52726W        W95638  12.163   1.135  25.382 -0.4702  0.0199  0.1356
52727W        W95639  11.279   3.377  25.055  0.0050 -0.1392  0.0909
52728W        W95640  14.827   1.864  27.252 -0.1025  0.1708 -0.0805
52729W        W95641  12.642   1.215  25.579  0.0657 -0.3113 -0.0621
52730W        W95642  13.360   4.684  22.871 -0.0995 -0.2200  0.2351
52731W        W95643  13.095   0.163  25.826 -0.0407 -0.0045 -0.1923
52732W        W95644  11.831   2.859  25.764  0.1189  0.1330  0.3741
52733W        W95645  13.802   4.082  28.155 -0.0073 -0.0868 -0.1549
52734W        W95646  11.355   2.148  23.778 -0.1069  0.2942 -0.1549
52735W        W95647  13.426   1.616  27.503  0.1970 -0.2950  0.2127
52736W        W95648  12.603   1.652  26.029 -0.0642 -0.0419 -0.2943
52737W        W95649  11.519   2.711  26.274  0.3605 -0.1339  0.0076
52738W        W95650  14.092   3.225  26.924  0.0643  0.2072  0.0850
52739W        W95651  12.311   1.769  25.442 -0.2356 -0.1150 -0.0287
52740W        W95652  15.186   2.824  26.512  0.2388  0.1768  0.2832
52741W        W95653  13.008   0.868  25.784 -0.1693  0.2891  0.5559
52742W        W95654  15.099   0.210  24.829 -0.0065  0.1601  0.0885
52743W        W95655  14.699   0.020  24.508  0.0209 -0.2248 -0.4166
52744W        W95656  11.484   1.486  26.336  0.1161 -0.1480  0.1725
52745W        W95657  10.002   1.343  23.179 -0.2783  0.0125 -0.3483
52746W        W95658  11.824   3.275  23.636 -0.0490  0.0965 -0.2499
52747W        W95659  11.977   2.580  26.134  0.2654  0.0791  0.2313
52748W        W95660  11.865   0.337  26.492  0.1230  0.1761  0.0699
52749W        W95661  11.258   1.314  25.052  0.5530 -0.0678 -0.0165
52750W        W95662   9.933   1.816  25.286  0.2838  0.3219 -0.1011
52751W        W95663  10.059   1.415  24.495  0.0675 -0.1095  0.1040
52752W        W95664  13.923   3.223  24.494  0.4356 -0.1555  0.1066
52753W        W95665  11.343  33.733  25.393  0.2893  0.2205  0.3138
52754W        W95666  11.416   0.761  24.914 -0.0839  0.1241  0.0825
52755W        W95667  15.090   1.970  24.988  0.0138  0.1207  0.1109
52756W        W95668  13.648   2.052  24.975 -0.0542  0.1409  0.1693
52757W        W95669  13.125   0.742  24.886 -0.4574  0.0261 -0.0044
52758W        W95670  14.079   3.047  25.828 -0.0739  0.2483 -0.2335
52759W        W95671  10.503   3.572  22.342 -0.0099  0.1952 -0.1359
52760W        W95672  13.139   1.199  26.878  0.0964 -0.4110 -0.1151
52761W        W95673  13.216  34.274  27.456  0.0282 -0.2559  0.0425
52762W        W95674  10.456   0.737  22.578  0.1165  0.1225 -0.2460
52763W        W95675  14.485   1.319  25.363  0.4088 -0.2371 -0.3839
52764W        W95676  12.844   2.483  24.822  0.0358 -0.0959  0.2219
52765W        W95677  12.705   2.438  24.309 -0.0872  0.1639 -0.0219
52766W        W95678  13.686   1.893  26.498 -0.0227 -0.1232  0.1360
52767W        W95679  12.758   2.174  26.633  0.3053  0.0337 -0.0197
52768W        W95680  11.060   0.658  25.731  0.1026 -0.0333 -0.1340
52769W        W95681  13.287   1.926  24.002  0.2085  0.0532 -0.0606
52770W        W95682  12.450   0.950  27.360 -0.1362  0.1488  0.3280
52771W        W95683  15.112   0.145  25.363  0.0781  0.5032 -0.0190
52772W        W95684  13.910  33.909  24.779  0.2108 -0.3841 -0.0664
52773W        W95685  13.545   1.395  24.110  0.5008 -0.0475  0.0511
52774W        W95686  11.788   0.678  27.629 -0.0342  0.0651 -0.0465
52775W        W95687  11.810   2.251  28.770 -0.3530  0.1453  0.4089
52776W        W95688  13.917   1.828  27.091  0.0344 -0.1331 -0.0601
52777W        W95689  11.260  34.460  26.219  0.2905 -0.0446 -0.0243
52778W        W95690  13.247  34.552  23.241  0.0741  0.3021 -0.4425
52779W        W95691  13.222   1.675  24.850  0.0428  0.0385  0.2164
52780W        W95692  11.927   1.328  26.707 -0.1586 -0.0788  0.0881
52781W        W95693  14.080   1.048  25.399 -0.0214 -0.0866 -0.0020
52782W        W95694  12.106   0.516  26.013  0.0311  0.3302 -0.1420
52783W        W95695  13.004   1.356  25.187 -0.2111 -0.1182 -0.1320
52784W        W95696  13.563   2.858  26.199  0.2049 -0.5124 -0.3673
52785W        W95697  13.632   2.643  24.344 -0.1154  0.0170  0.0663
52786W        W95698  14.605   2.048  24.873  0.0814  0.0042 -0.2329
52787W        W95699  13.634   3.795  25.829  0.4886 -0.0022 -0.3013
52788W        W95700  14.895   2.531  27.064  0.0819  0.3034 -0.4057
52789W        W95701  13.002   3.878  24.536 -0.1482 -0.1524  0.1805
52790W        W95702  14.980   2.057  26.756 -0.1912 -0.0602 -0.3771
52791W        W95703  10.168   0.054  25.922 -0.1939 -0.0587  0.1198
52792W        W95704  11.994   1.806  26.476  0.2202 -0.4505  0.1597
52793W        W95705  13.866   1.536  24.945 -0.0313  0.0696 -0.1601
52794W        W95706  14.117   1.865  24.737 -0.2329 -0.0104  0.4469
52795W        W95707  11.543  34.234  25.244 -0.2415 -0.3248  0.2906
52796W        W95708  12.965  34.470  24.259  0.2601  0.2749 -0.1551
52797W        W95709  12.780   2.605  25.608  0.1415 -0.3089  0.0456
52798W        W95710  14.856   3.053  26.186  0.0091  0.2596 -0.3448
52799W        W95711  10.734   2.934  30.079  0.0333  0.0537 -0.1121
52800W        W95712  12.492   0.695  29.289 -0.1521  0.0538 -0.4317
52801W        W95713  13.852   0.432  28.392 -0.0798  0.0879 -0.2476
52802W        W95714  14.049   0.138  27.203 -0.4622 -0.0662 -0.2874
52803W        W95715  11.425   0.809  28.625 -0.0818  0.2153  0.1744
52804W        W95716  13.313   2.629  29.426  0.1597  0.1192 -0.0173
52805W        W95717  11.398  34.636  30.425  0.0880  0.1182  0.0776
52806W        W95718  14.282   2.263  28.758 -0.0053 -0.1488  0.0811
52807W        W95719  13.938   2.914  30.056  0.0196  0.3319 -0.1509
52808W        W95720  13.519   0.872  27.181  0.0709 -0.0734 -0.2573
52809W        W95721  11.506   0.449  30.125  0.3752  0.0727  0.0154
52810W        W95722  11.997   3.941  29.326 -0.0491  0.2154  0.0988
52811W        W95723  12.946   0.203  28.959  0.3020  0.1712  0.0427
52812W        W95724   9.885   0.950  28.624  0.1084 -0.5404 -0.2213
52813W        W95725  14.644   2.332  29.547  0.2341 -0.2280  0.5856
52814W        W95726  11.372   0.843  27.832 -0.1182 -0.0472  0.0522
52815W        W95727  12.091   0.327  28.913  0.1932  0.1298  0.0716
52816W        W95728  13.730   1.169  27.604  0.1341 -0.0795  0.5127
52817W        W95729  12.204   4.467  28.678  0.4896  0.0530  0.3691
52818W        W95730  12.721   0.312  29.666  0.1987 -0.2406  0.0771
52819W        W95731  13.435  32.982  29.725 -0.1047  0.1313 -0.0442
52820W        W95732  11.887   4.173  28.863  0.0138 -0.0035 -0.0865
52821W        W95733  11.775   1.208  27.964  0.0004 -0.1441 -0.2925
52822W        W95734  11.172   1.097  28.912  0.1896  0.0843  0.0230
52823W        W95735  13.002   1.718  30.230 -0.0556 -0.0942 -0.1626
52824W        W95736  14.278   0.548  30.085 -0.1760  0.2367 -0.2016
52825W        W95737  14.832   1.669  30.002  0.1957  0.0080  0.4727
52826W        W95738  12.377   5.061  30.080 -0.0886 -0.4299  0.1571
52827W        W95739  13.527   3.767  29.667  0.3325  0.1417 -0.0646
52828W        W95740  13.090   0.327  30.866 -0.1372 -0.0286  0.0581
52829W        W95741  10.970   2.633  30.452  0.0931 -0.2121 -0.0575
52830W        W95742  11.453   2.663  28.125  0.0367  0.0614  0.0641
52831W        W95743  12.871   2.880  28.307  0.0411  0.0823  0.0289
52832W        W95744  14.961   2.752  28.228 -0.0246  0.0613 -0.1065
52833W        W95745  14.380   4.058  29.485  0.4505  0.2352  0.3206
52834W        W95746  11.863   2.874  30.649 -0.1792 -0.0431  0.1796
52835W        W95747  11.767   2.213  27.712  0.3325 -0.2942  0.1113
52836W        W95748  12.297   3.040  30.456  0.1032 -0.0318  0.1457
52837W        W95749  12.508   2.782  30.092 -0.0334 -0.0391 -0.1226
52838W        W95750  12.301   1.467  28.987 -0.2435  0.1056 -0.2118
52839W        W95751  13.473   1.244  28.396 -0.0116 -0.3363 -0.1946
52840W        W95752  12.418   3.834  29.005 -0.0692 -0.1356  0.2006
52841W        W95753  12.791   1.925  29.783 -0.0383 -0.1024 -0.3373
52842W        W95754  10.504   3.781  30.610  0.0195 -0.1222  0.2229
52843W        W95755  10.902   2.470  29.971 -0.1689  0.0787  0.1057
52844W        W95756  15.463   1.045  30.586  0.1152  0.0015 -0.0818
52845W        W95757  12.561   2.356  29.830  0.0245 -0.1840 -0.0357
52846W        W95758  13.482   2.468  27.803 -0.2396 -0.1153  0.2186
52847W        W95759  11.540   1.722  27.358  0.2435  0.0795  0.0068
52848W        W95760  13.489  34.007  28.748 -0.1703  0.1566  0.3745
52849W        W95761  13.285   0.230  30.386  0.1552 -0.2700 -0.3103
52850W        W95762  11.648   3.663  29.532 -0.2226  0.2319 -0.0090
52851W        W95763  12.575  34.536  29.704 -0.2813 -0.0852  0.0452
52852W        W95764  14.192   3.533   0.105  0.0339 -0.3442  0.4383
52853W        W95765  12.889   2.412  28.496 -0.4513 -0.0635  0.1643
52854W        W95766  12.595   2.096  30.839 -0.2036 -0.2235 -0.1367
52855W        W95767  12.259   4.243  30.732 -0.0747 -0.1795  0.0142
52856W        W95768  12.530   0.464  28.692  0.0379 -0.1607  0.2118
52857W        W95769  13.673   3.488  26.784  0.1157 -0.2320  0.1105
52858W        W95770  14.586   3.002  28.406  0.1667 -0.1633 -0.0165
52859W        W95771  14.181   3.591  28.138 -0.1968  0.1445 -0.1909
52860W        W95772  13.064   1.993  28.909 -0.1326 -0.1518  0.0635
52861W        W95773  11.385   0.019  29.167 -0.1140 -0.1196  0.1067
52862W        W95774  12.178   2.358  31.101  0.0037  0.1877  0.4804
52863W        W95775  11.826  34.424  26.472 -0.1876  0.1779  0.0259
52864W        W95776  15.361   3.379  29.936 -0.1050  0.0951 -0.2417
52865W        W95777  10.899   2.691  28.388  0.3227  0.0138 -0.0026
52866W        W95778  14.310   0.383  28.595  0.1757 -0.2894 -0.1233
52867W        W95779  12.438   2.913  29.166  0.2327  0.1803  0.1182
52868W        W95780  14.742   4.557  30.323  0.1211  0.1223 -0.0577
52869W        W95781  14.124   2.802  28.601  0.2683  0.0743  0.3166
52870W        W95782  14.658   1.212  30.292 -0.1948 -0.2074  0.2304
52871W        W95783  14.184  33.528  29.873 -0.1920 -0.1415  0.0657
52872W        W95784  12.845   0.771  26.966  0.0790 -0.0890  0.1382
52873W        W95785  12.008   1.102  29.397 -0.4031  0.1178 -0.1729
52874W        W95786  13.719   3.316  30.705  0.2554 -0.0720  0.2613
52875W        W95787  15.051   1.767  27.875  0.0415  0.0459 -0.0199
52876W        W95788  12.001   2.310  30.043 -0.0338  0.0021 -0.1122
52877W        W95789  12.051   1.069  30.260  0.0317  0.0332 -0.3853
52878W        W95790  13.170   2.548  31.446  0.0949 -0.0169  0.0178
52879W        W95791  11.325   2.464  28.620 -0.1211  0.0445  0.1036
52880W        W95792  10.468   2.550  30.168 -0.4046  0.1340  0.1386
52881W        W95793  10.105   1.372  28.308  0.2140  0.1436 -0.0608
52882W        W95794   9.902  33.625  30.645  0.0043 -0.0196  0.1748
52883W        W95795  13.021   2.931  29.971 -0.0910  0.2188 -0.2529
52884W        W95796  13.957   0.255  28.944 -0.3188 -0.0043  0.3208
52885W        W95797  11.193   0.889  30.385 -0.3048  0.0204  0.1279
52886W        W95798  14.356  34.589  29.033  0.1707 -0.0738  0.0128
52887W        W95799  10.110   0.693  29.546 -0.2721  0.4104 -0.0736
52888W        W95800  15.287   4.544  30.284  0.1076  0.0012 -0.3118
52889W        W95801  14.335   1.020  29.221  0.1461 -0.1609  0.0115
52890W        W95802  13.824   2.722  28.145  0.0042  0.1405  0.0325
52891W        W95803  11.520   0.501  29.115 -0.3329 -0.0284  0.0658
52892W        W95804  12.379   1.270  28.172  0.0124 -0.0691  0.2104
52893W        W95805  13.521  34.182  29.910  0.0325  0.0043  0.2078
52894W        W95806  11.914  33.911  30.278  0.0360 -0.2026 -0.0358
52895W        W95807  13.369   1.775  29.828  0.3680  0.0484 -0.0479
52896W        W95808  10.277  34.295  27.776  0.0003 -0.1412 -0.4594
52897W        W95809  13.463   0.008  29.929  0.2608 -0.3049  0.1912
52898W        W95810  13.235   0.849  30.014 -0.0750 -0.0993  0.1537
52899W        W95811  12.299   1.697  27.983  0.0859  0.2270 -0.1205
52900W        W95812  13.654   1.197  30.131 -0.2330 -0.1223  0.0543
52901W        W95813  13.812   3.120  27.776  0.1509 -0.0432  0.2081
52902W        W95814  14.943   3.285  30.253 -0.0819  0.2052 -0.1376
52903W        W95815  12.720   4.565  29.362  0.1076  0.4198  0.1843
52904W        W95816  12.699  34.224  30.257 -0.0200 -0.0970 -0.0498
52905W        W95817  11.742   0.464  27.068  0.0309 -0.0756 -0.2142
52906W        W95818  10.956   5.327  29.495  0.2363  0.0836 -0.0757
52907W        W95819  12.588   2.768  28.721  0.1671  0.0589 -0.0813
52908W        W95820  11.381   1.470  28.665  0.1255 -0.2018  0.0156
52909W        W95821  14.814   3.831  29.398  0.0152  0.0779 -0.0444
52910W        W95822  12.940   2.461  29.065  0.2672  0.0138  0.1072
52911W        W95823  11.663   2.531  30.991 -0.2852 -0.0496  0.0479
52912W        W95824  15.002  33.678  31.073 -0.0822 -0.0825  0.4397
52913W        W95825  14.239   1.113  30.460  0.4392 -0.1774 -0.1957
52914W        W95826  13.086   1.579  28.661 -0.2604  0.1747  0.1540
52915W        W95827  11.058   0.463  27.547 -0.2811  0.0144 -0.4618
52916W        W95828  13.241   4.977  29.789 -0.2902 -0.0525  0.2881
52917W        W95829  12.218   2.726  27.416  0.3221 -0.2382 -0.1125
52918W        W95830  11.890   1.595  29.408 -0.2011 -0.1725 -0.0829
52919W        W95831  12.853   3.472  28.981  0.1263  0.1042 -0.1358
52920W        W95832  13.521   1.444  28.850  0.2136  0.0427  0.0590
52921W        W95833  11.570   0.555  29.613 -0.5441 -0.0119  0.2347
52922W        W95834  14.286   1.490  30.963  0.2461  0.4454 -0.3398
52923W        W95835  12.008   1.425  27.564 -0.4383 -0.1052 -0.1462
52924W        W95836  11.335   3.275  29.552 -0.2129 -0.1497  0.3873
52925W        W95837  13.697   0.614  29.284 -0.0092  0.0573 -0.1448
52926W        W95838  13.658  34.316  27.130 -0.1263  0.3661 -0.1028
52927W        W95839  14.034   2.459  29.838 -0.0618  0.0725  0.0987
52928W        W95840  13.758   1.461  28.019 -0.2483  0.0153  0.4268
52929W        W95841  13.047   0.862  27.457 -0.1143  0.1475 -0.1680
52930W        W95842  12.801   0.704  26.264  0.3192  0.2017 -0.0845
52931W        W95843   9.435   3.881  30.221 -0.1019  0.3251 -0.0369
52932W        W95844  13.705   3.597  27.969 -0.0544  0.0331  0.0964
52933W        W95845  13.370   3.110  29.638  0.0455  0.1256 -0.2515
52934W        W95846  14.222   0.686  28.032  0.2256 -0.3630 -0.2115
52935W        W95847  13.042   5.015  28.612 -0.2384  0.0853  0.3384
52936W        W95848   9.873   1.536  29.336  0.2024 -0.0851  0.0937
52937W        W95849  12.868   2.948  31.251 -0.2640 -0.1112 -0.2854
52938W        W95850  13.152   3.854  28.751 -0.0801  0.0607 -0.3498
52939W        W95851  13.132  33.939  30.158 -0.1168  0.1286  0.1150
52940W        W95852  12.145   0.982  27.734  0.1305 -0.1822  0.0146
52941W        W95853  12.368  33.816  29.276 -0.0459  0.1047 -0.3886
52942W        W95854  10.383   2.331  27.453 -0.0057  0.1743  0.1804
52943W        W95855  13.820   1.691  31.023  0.1108 -0.0801 -0.3996
52944W        W95856  12.849  34.659  30.530 -0.0535  0.1693  0.0939
52945W        W95857  11.879  33.038  29.708 -0.2597 -0.0666 -0.4769
52946W        W95858  13.582   1.697  30.263  0.3965 -0.1045 -0.2525
52947W        W95859  13.235   0.921  28.051 -0.2272  0.1432  0.1931
52948W        W95860  13.778   0.717  29.946 -0.1152  0.0164  0.1462
52949W        W95861  12.109   1.932  29.137 -0.1080  0.2444  0.0997
52950W        W95862  13.466   0.330  28.855 -0.1109 -0.3511  0.0685
52951W        W95863  11.545   1.907  29.615 -0.2090  0.0206 -0.0673
52952W        W95864  10.594   4.496  31.505  0.1888  0.2655  0.0359
52953W        W95865  15.258   2.217  31.819  0.0932 -0.1355 -0.0722
52954W        W95866  12.719   1.183  29.226  0.0168  0.1599 -0.2718
52955W        W95867  12.902   0.811  31.966 -0.1831 -0.0581  0.0355
52956W        W95868  12.266   0.036  28.427  0.0309  0.0146 -0.3410
52957W        W95869  13.435   2.360  28.315 -0.0554 -0.0364 -0.2443
52958W        W95870  12.722   2.143  28.117  0.4045  0.1482  0.0148
52959W        W95871  12.842  33.212  29.576  0.0471  0.1185 -0.2421
52960W        W95872  13.170   3.132  30.552  0.1107 -0.0491  0.1490
52961W        W95873  12.631   1.718  28.492  0.0857 -0.2186  0.3170
52962W        W95874  13.779   2.418  30.313 -0.1958 -0.0336 -0.2848
52963W        W95875  12.416   2.466  28.361  0.0274  0.1774 -0.0475
52964W        W95876  14.454  33.719  30.371  0.0330 -0.2348 -0.1524
52965W        W95877   9.774   2.119  30.043  0.2856 -0.1862  0.0372
52966W        W95878  12.799   0.735  28.357 -0.2338  0.1114  0.1306
52967W        W95879  10.861   0.270  28.419 -0.0840  0.1535 -0.0679
52968W        W95880  12.248  34.453  27.353 -0.0257 -0.2568  0.1196
52969W        W95881  13.370   3.734  28.303 -0.1864 -0.0773  0.1391
52970W        W95882  11.624   0.375  30.701  0.1954 -0.4944  0.1874
52971W        W95883  12.337   0.122  30.142  0.2729 -0.3305  0.2279
52972W        W95884  11.982   2.833  30.118  0.0119 -0.0388  0.5643
52973W        W95885  12.786   3.448  31.284  0.1578 -0.1661 -0.0480
52974W        W95886  13.415   0.443  29.651  0.0264  0.2170 -0.0653
52975W        W95887  15.237   1.942  30.742 -0.0673  0.2146 -0.1044
52976W        W95888  12.730   3.239  30.270 -0.1160 -0.1383 -0.0342
52977W        W95889  12.251   0.722  28.370 -0.3063  0.0804  0.4102
52978W        W95890  14.797   1.677  30.978 -0.3344 -0.1209 -0.2805
52979W        W95891  12.187   0.823  28.925 -0.0081  0.1553 -0.0246
52980W        W95892  12.042   2.299  27.294 -0.3030 -0.2668 -0.0478
52981W        W95893  13.372   3.471  29.272  0.1729 -0.0341  0.1435
52982W        W95894  11.993  34.204  29.022  0.2584 -0.0455 -0.1713
52983W        W95895  10.241   2.149  29.963  0.0585 -0.0126 -0.0236
52984W        W95896  12.958   0.869  29.516 -0.1073 -0.1963  0.0057
52985W        W95897  13.230   1.861  30.620  0.1018  0.0314  0.0591
52986W        W95898  14.004   2.249  29.287  0.0556 -0.3414 -0.4815
52987W        W95899  12.639  34.400  28.352 -0.1476 -0.0916 -0.1479
52988W        W95900  12.038   1.409  29.871 -0.2191  0.3742 -0.2727
52989W        W95901  14.858   2.839  31.128  0.0788  0.0046 -0.1171
52990W        W95902  12.207   0.451  29.671  0.0797 -0.1750 -0.3546
52991W        W95903   9.986   2.464  30.291 -0.3480 -0.0056  0.0796
52992W        W95904  11.783  33.863  29.308 -0.5563  0.2050  0.3162
52993W        W95905  15.967   4.212  27.046 -0.1896 -0.0894 -0.0359
52994W        W95906  13.391   2.164  30.174  0.1071  0.2265 -0.1338
52995W        W95907  12.665   2.654  27.227  0.4236  0.0222 -0.0347
52996W        W95908  10.792   0.916  30.108 -0.1102 -0.5064  0.3087
52997W        W95909  11.821   1.616  28.898  0.1956  0.1644  0.3640
52998W        W95910  12.482   0.830  31.173  0.1033  0.2710  0.3751
52999W        W95911  12.669   3.656  29.883  0.0912  0.0643 -0.1508
53000W        W95912  12.011   2.111  28.127  0.0655 -0.0078  0.3569
53001W        W95913  11.272   2.311  30.728  0.1987 -0.0347 -0.1406
53002W        W95914  15.421   1.128  28.281  0.2353 -0.0386 -0.3845
53003W        W95915  14.167   1.745  28.012 -0.0288  0.0101 -0.0943
53004W        W95916  11.748  34.613  28.845  0.0703 -0.1035  0.2424
53005W        W95917  14.897   0.173  29.989 -0.0476 -0.1708  0.2509
53006W        W95918  13.590   1.767  28.386 -0.0583  0.1906  0.0471
53007W        W95919  14.502   0.129  31.491  0.0490 -0.0101 -0.2182
53008W        W95920  11.947   0.724  30.753 -0.0798  0.3978 -0.2240
53009W        W95921  16.326   3.468  29.035  0.1928 -0.0347 -0.0968
53010W        W95922  10.247   0.571  30.453 -0.2071 -0.2273 -0.0779
53011W        W95923  12.898   4.295  30.698 -0.1342  0.0231  0.1336
53012W        W95924  12.366   1.075   0.159  0.1483  0.1186  0.0848
53013W        W95925  12.530  33.972  29.723 -0.1428  0.1711  0.2542
53014W        W95926  10.979  34.077  27.442 -0.1267 -0.3723  0.3624
53015W        W95927  12.049  34.647  29.705  0.0501 -0.1506 -0.1519
53016W        W95928  13.852   3.250  28.311 -0.1391 -0.0283  0.2911
53017W        W95929  12.413   2.176  27.678 -0.3375 -0.1004  0.0545
53018W        W95930  13.546   0.918  28.872  0.1618 -0.4297  0.0072
53019W        W95931  11.298   1.958  28.702 -0.0526  0.0791  0.0447
53020W        W95932  14.327   1.657  28.614  0.1801  0.0418 -0.0104
53021W        W95933  12.827   1.324  27.259  0.0982  0.2464  0.0048
53022W        W95934  11.982   1.168  28.469 -0.2806  0.2627  0.2142
53023W        W95935  12.541   0.680  30.059  0.1477  0.2377  0.3737
53024W        W95936  12.696   3.203  29.667 -0.0248  0.0906 -0.0468
53025W        W95937  14.639  33.981  30.839 -0.0128  0.2019 -0.0381
53026W        W95938  15.189   1.119  30.986  0.2701 -0.0437 -0.0254
53027W        W95939  12.891   1.212  31.374  0.0468  0.1209 -0.2031
53028W        W95940  13.719   2.526  31.262 -0.2761  0.3065 -0.1346
53029W        W95941  10.317   0.999  31.396 -0.1088  0.1870  0.0447
53030W        W95942  12.862   3.844  30.290  0.0365  0.1487 -0.0714
53031W        W95943  14.248   2.260  27.792  0.1613 -0.1445  0.0288
53032W        W95944  15.078   0.388  29.350 -0.1070 -0.2322  0.2303
53033W        W95945  12.923   0.218  28.302  0.2060 -0.2905  0.0705
53034W        W95946  14.657   2.014  27.737 -0.0876 -0.0150 -0.1127
53035W        W95947  13.180  33.569  30.665  0.1452  0.1467  0.1641
53036W        W95948  13.802   1.549  31.730 -0.2491  0.1477  0.0777
53037W        W95949  12.395   0.527  27.631  0.2136  0.0283  0.1037
53038W        W95950  13.947  33.796  31.329 -0.0575  0.4408  0.1411
53039W        W95951  12.376   3.525  26.702  0.0303 -0.1225  0.0990
53040W        W95952  14.210   1.104  29.926 -0.3910 -0.0100  0.0898
53041W        W95953  13.342   1.090  29.311 -0.0128 -0.0826  0.0820
53042W        W95954  10.599   0.432  29.371 -0.0527 -0.1517  0.0198
53043W        W95955  10.919   3.097  30.644 -0.0690  0.1506 -0.3653
53044W        W95956  12.510   2.260  28.838  0.2203  0.0572  0.1718
53045W        W95957  11.748   2.402  29.588  0.1424 -0.0191  0.1933
53046W        W95958  12.465   4.089  29.604  0.0448 -0.1815  0.0230
53047W        W95959  12.882   2.191  30.309  0.0182  0.1539 -0.1963
53048W        W95960  13.976  33.494  27.731  0.1155 -0.0830 -0.1005
53049W        W95961  14.663   0.460  29.570 -0.0389  0.1878 -0.0566
53050W        W95962  11.351   2.446  26.678 -0.1026 -0.3550  0.0003
53051W        W95963  14.411   0.104  29.853 -0.1020  0.0079 -0.2211
53052W        W95964  11.434   4.754  30.868  0.0328  0.0607 -0.1612
53053W        W95965   9.184   1.005  29.230 -0.0942  0.0370 -0.0282
53054W        W95966  12.171   3.676  29.775 -0.1815  0.1949  0.1818
53055W        W95967  11.720  33.185  30.522 -0.2352  0.0050 -0.1479
53056W        W95968  13.357   1.695  29.293 -0.1132 -0.0979 -0.2266
53057W        W95969  13.070   2.273  30.871  0.0832 -0.0600  0.3061
53058W        W95970  14.307   1.119  28.714  0.0524 -0.1658  0.2569
53059W        W95971  14.392   2.588  29.173  0.2078 -0.0033 -0.2788
53060W        W95972  11.721   1.097  28.929 -0.1043  0.1417  0.2057
53061W        W95973  14.536   3.109  30.564  0.0679 -0.1915  0.2714
53062W        W95974  13.901   1.891  28.831  0.0415 -0.1784 -0.1419
53063W        W95975  12.484   3.550  29.391  0.0252 -0.2859  0.1862
53064W        W95976  10.519   1.311   0.254  0.0798  0.3527 -0.1354
53065W        W95977  13.467   1.545  31.359  0.0201  0.0665  0.0320
53066W        W95978  13.970   1.464  29.051 -0.0333 -0.1434 -0.2440
53067W        W95979  12.317  34.055  28.613  0.4570 -0.1996 -0.1548
53068W        W95980  13.524   2.819  28.812 -0.1928  0.2753  0.1232
53069W        W95981  11.474   3.379  30.675 -0.0103  0.0506 -0.0058
53070W        W95982  10.602   0.206  30.302 -0.0825 -0.1388  0.2405
53071W        W95983  12.638   3.259  28.104 -0.2380 -0.2421 -0.0085
53072W        W95984  14.052   3.686  27.144  0.1010 -0.1781  0.0203
53073W        W95985  13.897   2.833  29.552  0.0561 -0.0993 -0.2049
53074W        W95986  11.730   5.023  29.548 -0.0483 -0.0880  0.1365
53075W        W95987  11.818  34.232  26.013 -0.0486 -0.0389 -0.3027
53076W        W95988  11.819   3.230  29.799  0.2804 -0.0114 -0.2205
53077W        W95989  10.039   1.894  28.226  0.0489  0.5370 -0.0346
53078W        W95990  13.472   3.354  28.677  0.2754 -0.1271 -0.1198
53079W        W95991  12.161   2.460  29.229  0.1717  0.3398  0.1730
53080W        W95992  14.580   3.081  31.503  0.0751 -0.0679  0.1038
53081W        W95993  13.115  34.123  28.410 -0.1426 -0.2438  0.0857
53082W        W95994  14.004   0.740  28.835  0.2258  0.1128 -0.0528
53083W        W95995  14.364   0.495  26.994  0.0610 -0.0229 -0.2219
53084W        W95996  13.885   3.983  31.252 -0.2237  0.1211  0.0908
53085W        W95997  13.633   2.248  29.649  0.3261 -0.2826 -0.0449
53086W        W95998  12.636  33.906  28.272  0.0577  0.0645 -0.2472
53087W        W95999  12.597   1.442  29.940 -0.1147  0.1444  0.4869
53088W        W96000  15.927   1.631   0.087  0.4306 -0.0738  0.1729
53089W        W96001  10.152   3.777  31.077  0.0643 -0.2870 -0.0436
53090W        W96002  14.087   3.939  29.020  0.1542 -0.0797  0.0107
53091W        W96003  11.725   1.576  28.333  0.0362  0.3185 -0.0349
53092W        W96004  13.043   2.415  29.931  0.0858 -0.2841  0.2488
53093W        W96005  14.211   1.437  29.491 -0.4411  0.2383  0.0163
53094W        W96006  12.935   3.509  28.457 -0.2373 -0.0164 -0.2439
53095W        W96007  14.165   0.701  29.560 -0.2275  0.1697 -0.4083
53096W        W96008  12.128   1.954  29.725  0.0120 -0.1337  0.1417
53097W        W96009  11.467   4.056  29.898  0.1560 -0.0157  0.2269
53098W        W96010  12.478   2.093  29.403  0.0209 -0.2859 -0.1505
53099W        W96011   9.982  33.995  28.105 -0.1163 -0.3594 -0.0202
53100W        W96012  13.575   0.422  27.385 -0.1772  0.0939 -0.0232
53101W        W96013  13.290   2.793  30.955 -0.2081  0.0606 -0.1709
53102W        W96014  13.777   1.059  29.584  0.0003  0.1108  0.1628
53103W        W96015  10.727   2.494  29.408 -0.1088  0.0967  0.2149
53104W        W96016  14.061  34.531  28.013 -0.2256 -0.2460 -0.0713
53105W        W96017  13.775   4.182  30.257  0.4709 -0.2897 -0.3445
53106W        W96018  10.439   1.369  29.955  0.1448  0.0050  0.0971
53107W        W96019  12.550   1.306  27.709 -0.1629 -0.0724  0.0564
53108W        W96020  14.365   2.847  31.064 -0.3116  0.1692  0.3397
53109W        W96021  14.060   3.498  27.566 -0.3461  0.0180 -0.2483
53110W        W96022  14.216   3.379  31.315  0.1779 -0.0569  0.1773
53111W        W96023  10.873   0.757  28.536  0.0402  0.3595 -0.0298
53112W        W96024  13.132   1.091  28.740  0.0869  0.1953  0.1809
53113W        W96025  11.124   1.843  29.406  0.0252 -0.0077 -0.1377
53114W        W96026  11.948   0.629  29.285  0.0102  0.2400  0.2118
53115W        W96027  13.678   4.423  31.637 -0.0132  0.1787 -0.1716
53116W        W96028  11.901  34.265  26.963  0.2395 -0.0143 -0.5303
53117W        W96029  14.702   1.514  26.237  0.0255 -0.2311  0.0607
53118W        W96030  14.687   1.694  29.485  0.1180  0.1977 -0.0415
53119W        W96031  13.540   2.578  27.278  0.0081 -0.1276  0.0275
53120W        W96032  13.937   1.386  28.539 -0.1308  0.3143  0.2087
53121W        W96033  13.529   3.232  30.218 -0.0867  0.0527 -0.1878
53122W        W96034  10.959   0.154  29.531  0.1700 -0.0311 -0.3260
53123W        W96035  14.078   3.333  30.295  0.0266  0.0448  0.1029
53124W        W96036  13.906   2.745  29.072 -0.1881 -0.3395  0.0670
53125W        W96037  12.884  33.702  29.325 -0.4955  0.1492  0.0287
53126W        W96038  11.067   0.446  28.967 -0.1208 -0.3696  0.0265
53127W        W96039  12.039   2.674  28.816  0.0175  0.0179 -0.1484
53128W        W96040  13.828   1.528  29.874  0.0880  0.3474  0.4103
53129W        W96041  12.785   1.725  31.064 -0.2090 -0.0602  0.0213
53130W        W96042  13.260   3.172  26.619 -0.0177 -0.4582 -0.1824
53131W        W96043  15.005   0.971  31.455 -0.5388 -0.1362 -0.2326
53132W        W96044  12.383   1.023  29.706 -0.0398  0.0617 -0.3598
53133W        W96045  13.229   3.358  31.493  0.0240 -0.2979 -0.2146
53134W        W96046  12.391   0.509  27.133  0.2178  0.0216  0.3589
53135W        W96047  11.538   0.980  29.370  0.0542 -0.4967  0.0078
53136W        W96048  12.181   2.855  29.684 -0.4509  0.0612  0.0934
53137W        W96049  13.643   2.923  26.835 -0.0998 -0.0512 -0.2483
53138W        W96050  13.204   3.287  31.014  0.0528 -0.1669  0.0206
53139W        W96051  12.519   1.064  28.640  0.1227 -0.1488 -0.2279
53140W        W96052  14.037   3.721  29.452 -0.0599  0.1451  0.1488
53141W        W96053  13.303   1.231  29.780  0.0313  0.1429  0.1843
53142W        W96054  15.162  34.494  28.488  0.3286 -0.1364  0.3149
53143W        W96055  13.866   0.235  30.114 -0.1630 -0.0003  0.0447
53144W        W96056  13.483   2.688  29.985  0.0106  0.0607  0.1456
53145W        W96057  11.338   1.122  28.271  0.0356 -0.0433 -0.0779
53146W        W96058  12.648   2.975  27.618  0.4086  0.0204 -0.0939
53147W        W96059  11.636   2.909  28.671  0.3305  0.0466 -0.0334
53148W        W96060  14.335   0.442  31.851  0.1210  0.0758 -0.0523
53149W        W96061  12.525   0.717  30.646 -0.1026  0.0690 -0.0475
53150W        W96062  11.252   2.327  29.551  0.0065 -0.1366  0.1488
53151W        W96063  11.716   0.687  28.182 -0.0727 -0.0377 -0.1857
53152W        W96064  14.179   3.915  27.772 -0.0420 -0.2123  0.1513
53153W        W96065  12.655  33.710  30.655 -0.2760  0.0584  0.0317
53154W        W96066  11.140  34.093  27.931  0.0548 -0.1026 -0.2114
53155W        W96067  13.904   0.927  28.350  0.0890 -0.0055 -0.1727
53156W        W96068  14.443   4.517  28.644 -0.3992 -0.0377 -0.0433
53157W        W96069  13.091   0.043  29.455 -0.0913  0.2236 -0.1246
53158W        W96070  14.505   3.179  30.086  0.2354 -0.2085 -0.0433
53159W        W96071  11.386   2.989  27.437 -0.0260  0.3859  0.1608
53160W        W96072  13.162   0.777   0.730 -0.3488  0.0651  0.1431
53161W        W96073  12.978  34.119  30.686  0.1064 -0.0103  0.1465
53162W        W96074  10.500   0.534  28.099  0.1236  0.0662  0.0499
53163W        W96075  12.691   1.063  30.327 -0.1440  0.0005  0.1605
53164W        W96076  13.603   3.917  28.915  0.1087 -0.0315  0.0257
53165W        W96077  13.932   4.257  28.675  0.0707  0.0883 -0.0203
53166W        W96078  11.344   2.237  30.110  0.1241 -0.2213  0.3024
53167W        W96079  14.475   3.605  30.493  0.0942  0.0222  0.0559
53168W        W96080  10.590   0.891  29.579 -0.0842  0.1506 -0.0827
53169W        W96081  13.118   1.341  27.748 -0.1479 -0.2081 -0.2580
53170W        W96082  14.204   3.437  30.845  0.1899  0.1539  0.1396
53171W        W96083  14.754   2.927  28.863 -0.0719  0.1674 -0.1473
53172W        W96084  13.637   0.042  29.278  0.1382 -0.0576  0.1900
53173W        W96085  14.292   2.543  28.189  0.3125 -0.0182 -0.1555
53174W        W96086  12.247  33.624  31.080  0.1868  0.0212 -0.0420
53175W        W96087  11.520   2.077  29.166 -0.3491  0.2720  0.1184
53176W        W96088  14.870   2.738  29.401 -0.3192 -0.2775  0.0161
53177W        W96089  12.236  34.624  29.230  0.0403  0.2613  0.2300
53178W        W96090  14.315   1.266  28.204 -0.0888  0.0205 -0.2351
53179W        W96091  12.877   4.353  27.762  0.0919  0.1136 -0.2014
53180W        W96092  12.744   1.659  29.069 -0.0287 -0.0011  0.3192
53181W        W96093  12.789  34.602  27.512  0.1056  0.0286 -0.2732
53182W        W96094  12.578   3.258  30.887  0.1399  0.3807 -0.1478
53183W        W96095  12.950   3.406  27.510 -0.0071  0.2350  0.0299
53184W        W96096  14.542   2.564  30.658  0.0528 -0.4655  0.4649
53185W        W96097  12.686   0.886  27.878  0.0253 -0.2006  0.2040
53186W        W96098  12.806   2.692  29.559 -0.0197 -0.2481  0.0303
53187W        W96099  13.331   3.758  31.192 -0.2697  0.3569 -0.0187
53188W        W96100  15.973   2.978  31.846 -0.1593  0.3377  0.1070
53189W        W96101  11.877   3.281  30.336 -0.1242 -0.2102  0.0805
53190W        W96102  13.925   1.992  30.023 -0.0179  0.1045 -0.1102
53191W        W96103  11.625   0.342  28.621  0.0802 -0.0015 -0.3078
53192W        W96104  12.178   1.932  28.629 -0.0682  0.1621 -0.1141
53193W        W96105  13.138   0.608  29.147  0.1004 -0.0704  0.2122
53194W        W96106  14.030   1.579  30.415 -0.1574  0.0688 -0.0095
53195W        W96107  11.252   0.505  28.287 -0.0344 -0.4369  0.1489
53196W        W96108  13.375   0.601  28.400 -0.1326  0.0583 -0.2321
53197W        W96109  11.816   3.032  31.241 -0.3668 -0.1099  0.6802
53198W        W96110  12.402   2.453  30.467 -0.1148 -0.3465  0.3006
53199W        W96111  14.729  34.239  31.798  0.0519 -0.1323 -0.1608
53200W        W96112  14.746   3.369  31.905  0.0211  0.4186  0.2581
53201W        W96113  12.964   1.506  29.522 -0.1698 -0.0830 -0.3498
53202W        W96114  12.903   0.121  31.480  0.0207  0.0568  0.0108
53203W        W96115  12.275   2.899   0.029  0.2856  0.0817 -0.0247
53204W        W96116  12.156   2.227  31.696  0.0534  0.0144  0.0883
53205W        W96117  14.085   0.211  30.696 -0.0462 -0.0013  0.1720
53206W        W96118  13.806   0.826  30.422 -0.0671 -0.0772 -0.2747
53207W        W96119  15.873   2.209  31.932 -0.3836  0.1204 -0.3556
53208W        W96120  14.393   2.779   0.636 -0.3028 -0.2096  0.0381
53209W        W96121  13.033   2.634   0.850 -0.1869 -0.2575 -0.0738
53210W        W96122  11.898   0.852  29.813  0.2897 -0.2018 -0.0109
53211W        W96123  15.366   0.520  30.231  0.0892 -0.2151  0.1829
53212W        W96124  12.319   0.830   0.587 -0.0292  0.0143 -0.2329
53213W        W96125  14.582   2.366  31.079  0.0315 -0.1452 -0.1248
53214W        W96126  11.485   2.821  31.931 -0.0628  0.2651  0.0278
53215W        W96127  11.808   1.371  31.027  0.1611  0.0064 -0.1724
53216W        W96128  13.636   2.857  30.541  0.1950 -0.1281  0.1202
53217W        W96129  10.872  33.429  31.485 -0.1620  0.2513  0.0441
53218W        W96130  12.372   1.505  30.375 -0.2553  0.0138 -0.0492
53219W        W96131  11.884  34.653  30.923 -0.3056 -0.2729  0.0014
53220W        W96132  11.980   1.667  31.380 -0.2106  0.0967  0.1114
53221W        W96133  13.763   0.744  31.383 -0.0706 -0.2274 -0.0947
53222W        W96134  13.833   1.205  31.304 -0.0505 -0.0352  0.1338
53223W        W96135  13.654   1.315  30.694 -0.1617  0.1258 -0.0291
53224W        W96136  13.567   0.116  30.819  0.1096 -0.2076  0.0480
53225W        W96137  12.417   1.510  29.469 -0.0643  0.0359 -0.1062
53226W        W96138   9.666   3.779  31.204 -0.0254  0.1239  0.0847
53227W        W96139  12.287   2.823  30.952 -0.3266  0.2539  0.0667
53228W        W96140  12.695   2.511  31.147 -0.0673 -0.1474  0.0504
53229W        W96141  12.322   2.688  31.497 -0.0618  0.3312 -0.2111
53230W        W96142  12.965   0.054  30.015  0.1120  0.0104  0.0402
53231W        W96143  13.419   2.017  31.712  0.2505  0.1818  0.0141
53232W        W96144  15.953   0.699   0.520  0.3096  0.1502  0.1695
53233W        W96145  11.255   1.165  31.111 -0.0426 -0.2505 -0.0236
53234W        W96146  13.458   1.520   0.102 -0.0961 -0.2546 -0.0861
53235W        W96147  11.302   2.251  31.733  0.1212 -0.2427 -0.1243
53236W        W96148  15.457   3.743  31.459  0.4110  0.1759  0.3794
53237W        W96149  14.196   2.502  31.328 -0.0040  0.0204 -0.2519
53238W        W96150  13.453   2.042  31.132  0.1542 -0.5597 -0.0734
53239W        W96151  16.607  34.581   0.969 -0.1851  0.1235  0.0045
53240W        W96152  14.678   2.164  30.126  0.3920 -0.1001  0.0643
53241W        W96153  11.978  33.788  31.435 -0.1190 -0.0433 -0.0036
53242W        W96154  13.718   3.350  31.674 -0.1391  0.2647 -0.1028
53243W        W96155  11.069   1.772  29.956  0.1284  0.0798 -0.0378
53244W        W96156  12.281  34.523  31.367 -0.2517 -0.4038 -0.1363
53245W        W96157  14.104  33.853   0.484 -0.5233  0.0138  0.0994
53246W        W96158  13.157   2.594  30.414  0.1968 -0.0411 -0.1791
53247W        W96159  14.247   1.945  30.922  0.1148  0.2703 -0.1292
53248W        W96160  10.073   2.483  30.867 -0.0321 -0.0196 -0.0522
53249W        W96161  15.208   3.532  29.013  0.0509  0.2828 -0.0883
53250W        W96162  14.754   2.086  30.596 -0.2243  0.3936 -0.1485
53251W        W96163  13.473  33.735  31.017 -0.2505 -0.2098 -0.1240
53252W        W96164  13.171   3.461  30.015  0.2373  0.0297 -0.1324
53253W        W96165  13.357   1.026  31.273 -0.2124 -0.2284 -0.2749
53254W        W96166  12.814   0.427  30.364 -0.0204 -0.0914 -0.3974
53255W        W96167  14.261   3.287  29.594  0.0840  0.1549  0.1687
53256W        W96168  11.091   5.171  30.902 -0.0243 -0.1275 -0.3271
53257W        W96169  14.066   2.467  30.849  0.2546  0.4582  0.0096
53258W        W96170  11.814   1.605  30.590 -0.1691  0.1152 -0.0456
53259W        W96171  10.266   2.454  31.336  0.0029  0.1940  0.5933
53260W        W96172  11.759   1.875  30.162  0.3661  0.1355  0.0289
53261W        W96173  11.472   2.831  30.393  0.2056 -0.1125  0.2562
53262W        W96174  11.138  34.340  31.097  0.0360 -0.1730 -0.1138
53263W        W96175  13.684   3.338  31.202  0.0344 -0.1456 -0.1313
53264W        W96176  15.042   2.903  31.713 -0.0312 -0.1500 -0.1900
53265W        W96177  15.001   2.101  31.225  0.1003 -0.1018  0.1394
53266W        W96178  12.297   5.014  19.022 -0.1477 -0.0889 -0.0339
53267W        W96179  11.822   3.553  19.022  0.1409  0.1090 -0.0223
53268W        W96180  14.236   4.732  16.488  0.0932 -0.0043 -0.2704
53269W        W96181  14.458   6.148  16.670 -0.3877 -0.1124 -0.0415
53270W        W96182  11.553   5.394  16.856 -0.0338  0.1771 -0.2947
53271W        W96183  14.023   5.294  17.745  0.0160  0.0686 -0.2422
53272W        W96184  12.593   3.667  20.372  0.3949 -0.0932 -0.1535
53273W        W96185  12.465   6.422  17.457 -0.0243  0.1435  0.3549
53274W        W96186  13.535   7.149  18.201  0.2287 -0.2005 -0.0370
53275W        W96187  12.917   6.724  15.875  0.2672  0.1130  0.1275
53276W        W96188  12.093   5.121  17.590  0.2407 -0.1989  0.0809
53277W        W96189  12.111   6.579  19.193 -0.1215 -0.1370  0.0201
53278W        W96190  11.969   4.835  16.019 -0.2066  0.3673  0.1517
53279W        W96191  10.193   2.793  18.836 -0.0959  0.1644  0.3632
53280W        W96192  13.209   5.533  17.686  0.0579 -0.0446  0.3615
53281W        W96193  12.122   5.794  18.619  0.1197  0.0955  0.1633
53282W        W96194  11.650   5.936  18.607  0.4610  0.1412 -0.2021
53283W        W96195  13.714   5.551  16.538  0.0911  0.0664 -0.0147
53284W        W96196  12.553   6.969  16.580 -0.1002  0.0437  0.3084
53285W        W96197  12.865   4.731  19.139  0.0618 -0.1773  0.0870
53286W        W96198  14.646   4.367  18.331  0.4972  0.1318  0.0629
53287W        W96199  12.411   7.281  16.183  0.0681  0.0381  0.0987
53288W        W96200  10.723   5.593  16.974  0.2386  0.0156 -0.0948
53289W        W96201  11.288   5.839  16.704 -0.0583  0.1422 -0.1740
53290W        W96202  14.069   4.553  17.017  0.2890  0.1715 -0.0889
53291W        W96203  13.101   4.678  18.177  0.0190  0.0250 -0.1823
53292W        W96204  12.795   7.124  17.070 -0.1294 -0.0273  0.0605
53293W        W96205  11.471   7.065  19.120  0.0763 -0.3119 -0.2825
53294W        W96206  12.618   7.569  18.648 -0.2186  0.0122  0.3308
53295W        W96207  12.904   5.532  20.217  0.1900  0.0020 -0.0467
53296W        W96208  12.145   6.156  17.733  0.2728  0.3192  0.2649
53297W        W96209   9.489   7.263  16.909 -0.0982  0.0049 -0.1241
53298W        W96210  11.429   7.263  17.230  0.2918  0.0117  0.0163
53299W        W96211  12.762   6.711  17.843  0.4091  0.1268  0.0309
53300W        W96212  14.504   6.330  18.847  0.2109 -0.1677  0.0498
53301W        W96213  12.118   8.089  20.527  0.2006 -0.1421 -0.3656
53302W        W96214  11.975   6.792  16.225  0.0139  0.3109 -0.0295
53303W        W96215  11.968   7.372  20.154 -0.2040  0.0537 -0.1427
53304W        W96216  11.341   8.015  19.523 -0.2466 -0.1947  0.0602
53305W        W96217  12.654   6.113  20.274 -0.0123  0.1512  0.1226
53306W        W96218  13.077   6.063  16.454 -0.0335 -0.1300  0.0881
53307W        W96219  12.766   7.463  16.533  0.0174 -0.0996  0.0982
53308W        W96220  13.239   6.463  17.789 -0.1703 -0.0887  0.0964
53309W        W96221  13.679   4.249  19.783  0.0272  0.1606 -0.0066
53310W        W96222  11.593   6.140  19.248 -0.1222  0.2553 -0.4277
53311W        W96223  14.609   4.435  17.769  0.0320 -0.1799  0.0460
53312W        W96224  11.468   5.997  16.163 -0.0098  0.1962  0.0342
53313W        W96225  14.188   5.556  16.749  0.0671  0.5173 -0.2562
53314W        W96226  12.342   4.457  16.409 -0.0049 -0.1869 -0.2961
53315W        W96227  12.728   3.503  17.935  0.1729 -0.2756  0.0383
53316W        W96228  12.484   4.133  16.760 -0.0146 -0.4038  0.3193
53317W        W96229  11.420   6.346  18.801 -0.1434  0.2340  0.0620
53318W        W96230  12.421   5.645  19.028 -0.2716  0.0911  0.3562
53319W        W96231  14.014   5.138  19.567  0.1520  0.1977  0.0527
53320W        W96232  12.629   6.610  16.943 -0.1810  0.0360 -0.0225
53321W        W96233  11.659   5.029  17.821 -0.2092  0.2658 -0.1015
53322W        W96234  11.381   5.764  20.102 -0.0776 -0.1382  0.5473
53323W        W96235  12.113   5.220  18.561 -0.3184  0.0586  0.0099
53324W        W96236  13.524   4.981  15.688  0.0211 -0.1084  0.3151
53325W        W96237  14.216   7.641  16.374 -0.0581  0.2305 -0.1928
53326W        W96238  13.229   5.954  16.957 -0.2596 -0.3787 -0.1812
53327W        W96239  11.839   6.793  16.882  0.1145 -0.1259  0.2975
53328W        W96240  10.493   3.511  18.273 -0.4625 -0.0327  0.0742
53329W        W96241   9.705   6.350  18.777  0.0099  0.0166  0.2767
53330W        W96242  11.662   3.869  16.147 -0.1609 -0.1764  0.1942
53331W        W96243  14.035   6.225  19.815 -0.0320 -0.1344 -0.0204
53332W        W96244  11.657   5.188  19.936  0.1713  0.0643  0.0162
53333W        W96245  14.417   5.227  17.448 -0.0700  0.1458 -0.1064
53334W        W96246  11.972   5.656  17.686  0.0881  0.0574 -0.0026
53335W        W96247  12.895   5.896  18.917 -0.2932 -0.0918  0.1323
53336W        W96248  12.556   6.529  15.583  0.0317 -0.1602 -0.5444
53337W        W96249  14.133   2.275  19.013 -0.1465  0.0756  0.2642
53338W        W96250  13.491   5.578  18.965  0.0930  0.0743  0.1203
53339W        W96251  12.486   5.018  16.076  0.0819 -0.0398  0.1110
53340W        W96252  12.896   3.842  16.890  0.1165 -0.2253 -0.0346
53341W        W96253  15.341   6.054  19.257 -0.3168  0.0781  0.0559
53342W        W96254  14.804   6.499  16.390  0.2159  0.0065 -0.0898
53343W        W96255  10.286   7.269  19.196  0.2091 -0.2649  0.2291
53344W        W96256  11.986   4.471  20.285  0.0909  0.0211 -0.2290
53345W        W96257  12.914   4.518  20.028 -0.2748 -0.1356  0.2276
53346W        W96258  11.740   7.914  16.103 -0.2538 -0.4269 -0.1555
53347W        W96259   9.925   5.998  19.632 -0.2353 -0.0020  0.0026
53348W        W96260  11.677   6.362  15.405 -0.0821  0.0959 -0.2048
53349W        W96261  11.301   4.821  17.544 -0.3684 -0.1399  0.0006
53350W        W96262  11.314   6.292  17.312 -0.5026 -0.1184  0.5275
53351W        W96263  14.483   3.127  16.355 -0.0586 -0.1089 -0.2409
53352W        W96264  13.411   4.260  18.411  0.0481  0.2288  0.0632
53353W        W96265  13.191   4.240  17.896 -0.0520 -0.2224  0.2798
53354W        W96266  12.091   7.146  15.877  0.5672  0.0850 -0.1194
53355W        W96267  14.651   7.514  17.785  0.2035  0.2634 -0.2113
53356W        W96268  14.382   3.266  17.677 -0.0832 -0.2284 -0.0770
53357W        W96269  13.259   5.563  16.343  0.0240 -0.1605 -0.0190
53358W        W96270   9.888   4.447  17.205  0.1885  0.1640  0.2697
53359W        W96271  10.977   5.342  16.618 -0.0716  0.0992 -0.2392
53360W        W96272  11.752   5.492  18.394  0.0780 -0.1754  0.3590
53361W        W96273  12.462   3.797  19.855 -0.2503 -0.3142 -0.1157
53362W        W96274  14.253   4.822  17.758  0.0734  0.6032  0.2131
53363W        W96275  10.205   4.260  15.907  0.0797 -0.1534  0.1027
53364W        W96276  13.696   6.127  17.766 -0.0657  0.1201  0.3146
53365W        W96277  13.508   6.158  16.575 -0.5539  0.0800 -0.1127
53366W        W96278  11.003   6.962  17.111 -0.0038  0.2020  0.0066
53367W        W96279  14.839   3.064  18.600  0.0986 -0.0088 -0.2525
53368W        W96280  12.743   6.355  16.100 -0.0678  0.0590 -0.0564
53369W        W96281  13.523   7.347  18.825 -0.0187  0.1440 -0.3273
53370W        W96282  13.196   7.420  17.968  0.0746 -0.0209  0.0329
53371W        W96283  12.046   4.702  18.422  0.0198 -0.2051 -0.2001
53372W        W96284  11.471   4.594  16.370 -0.0469  0.0464  0.1091
53373W        W96285  10.546   8.482  17.732  0.1874  0.1595  0.0506
53374W        W96286  12.534   6.977  17.480 -0.0422 -0.2249  0.0950
53375W        W96287  12.470   3.768  16.066  0.2563  0.3163 -0.0331
53376W        W96288  13.632   6.832  17.792 -0.1807  0.0928  0.0376
53377W        W96289  12.776   6.158  17.128 -0.0106  0.2494 -0.2761
53378W        W96290  11.067   6.419  18.389 -0.4104  0.1313  0.0196
53379W        W96291  13.793   2.680  18.174  0.2851  0.2744  0.2316
53380W        W96292  13.457   5.167  18.006  0.0614 -0.3166  0.1948
53381W        W96293  12.252   5.440  16.553  0.0684  0.3220 -0.1785
53382W        W96294  13.461   1.794  17.050 -0.0763 -0.0812 -0.2543
53383W        W96295  13.988   8.118  16.167  0.0962  0.0992  0.2143
53384W        W96296  12.022   7.230  15.388 -0.2067  0.1253 -0.2108
53385W        W96297  10.797   6.652  17.894 -0.4148  0.1786  0.1371
53386W        W96298  13.652   5.607  17.897  0.0196 -0.0158 -0.4009
53387W        W96299  15.119   3.703  18.157  0.0778  0.1097  0.0119
53388W        W96300  10.820   5.495  19.234  0.1255 -0.1365  0.2626
53389W        W96301  12.196   4.963  19.550 -0.1997 -0.0187  0.0285
53390W        W96302  12.964   5.586  17.276  0.2851  0.1348  0.2202
53391W        W96303  12.026   6.307  18.544 -0.2214 -0.0838  0.1076
53392W        W96304  12.992   4.898  18.647 -0.2100  0.2432 -0.0388
53393W        W96305  14.580   4.475  17.226 -0.0296 -0.0721 -0.0858
53394W        W96306  13.097   6.220  19.377  0.1154  0.0116  0.2707
53395W        W96307  14.357   5.722  15.937 -0.3329 -0.0369  0.0678
53396W        W96308  13.511   3.947  15.784 -0.0258  0.1938 -0.1531
53397W        W96309  13.559   5.097  16.391 -0.0737 -0.3615 -0.1430
53398W        W96310  11.183   5.863  19.321 -0.1930  0.2120  0.0578
53399W        W96311  11.789   5.668  16.354  0.3842  0.1103  0.1467
53400W        W96312  11.172   6.353  19.376  0.2780  0.0595  0.4222
53401W        W96313  13.298   5.470  15.844  0.0364  0.1498 -0.1102
53402W        W96314  13.564   7.841  16.905 -0.2546 -0.1255  0.0835
53403W        W96315  11.350   5.597  18.790  0.0318 -0.2479  0.2090
53404W        W96316  11.727   7.194  18.648  0.0725 -0.0295  0.0296
53405W        W96317  14.311   7.171  17.192  0.4119 -0.1812  0.0338
53406W        W96318  12.702   4.538  18.463  0.2101 -0.0151 -0.1535
53407W        W96319  12.740   4.598  16.067  0.0109 -0.0595 -0.0465
53408W        W96320  11.684   3.679  17.286  0.1494 -0.0288  0.0880
53409W        W96321  10.777   6.467  16.250  0.1494  0.0158 -0.1831
53410W        W96322  13.734   4.268  17.896  0.1588  0.3225 -0.1567
53411W        W96323  13.182   4.594  17.099 -0.0025 -0.2701 -0.2341
53412W        W96324  13.758   2.800  19.973  0.1646  0.2541 -0.1589
53413W        W96325  13.791   5.523  19.751 -0.1052 -0.0012  0.2350
53414W        W96326  14.392   6.173  17.672  0.1168 -0.0797  0.4281
53415W        W96327  12.294   6.227  16.995  0.1041 -0.1808  0.0789
53416W        W96328  12.643   5.895  16.250 -0.1649  0.2420 -0.1692
53417W        W96329  13.888   5.729  18.733  0.1681  0.0835 -0.0539
53418W        W96330  11.185   5.011  18.008 -0.2341  0.3405  0.0646
53419W        W96331  11.760   7.428  19.053 -0.0228 -0.2247  0.0436
53420W        W96332  12.993   6.379  18.837  0.3037  0.1252  0.0570
53421W        W96333  13.916   6.414  16.694 -0.0793  0.1515  0.1347
53422W        W96334  12.134   4.761  17.942 -0.0902 -0.2115 -0.1455
53423W        W96335  13.099   3.153  16.024 -0.1820 -0.4065  0.0331
53424W        W96336  11.644   7.720  17.356  0.0154 -0.1282 -0.1370
53425W        W96337  13.325   6.337  16.057  0.1603 -0.3169 -0.1770
53426W        W96338  12.372   3.164  18.393  0.1993  0.0281 -0.1361
53427W        W96339  12.302   6.589  20.087  0.2016 -0.0064 -0.0100
53428W        W96340  11.218   6.464  16.050  0.0041 -0.1238  0.1694
53429W        W96341  12.958   5.350  18.279  0.2659 -0.3483  0.0769
53430W        W96342  11.857   6.186  16.408 -0.1978 -0.2357 -0.0399
53431W        W96343  13.672   3.885  16.671  0.1312  0.0501 -0.3823
53432W        W96344  11.393   7.127  18.235  0.3657  0.0514  0.0221
53433W        W96345  12.294   4.948  16.639  0.0870  0.0882 -0.2433
53434W        W96346  10.643   6.143  16.554 -0.1697 -0.5791  0.2811
53435W        W96347  13.457   3.642  16.211  0.0248  0.2260 -0.0380
53436W        W96348  14.618   5.464  15.536 -0.2017  0.3732  0.0001
53437W        W96349  11.430   3.576  18.165  0.1780 -0.0869 -0.0369
53438W        W96350  13.507   5.202  17.478  0.0186 -0.1465 -0.1196
53439W        W96351  11.580   6.327  18.313  0.1393  0.1307 -0.1603
53440W        W96352  12.677   4.437  17.965  0.3418  0.0415 -0.4108
53441W        W96353  13.998   3.343  16.404  0.4133 -0.2828 -0.0701
53442W        W96354  13.279   6.381  18.436 -0.1363  0.0443 -0.0327
53443W        W96355  12.302   6.696  18.669 -0.0327  0.0556  0.4864
53444W        W96356  11.858   5.179  16.419  0.1927  0.2171 -0.5712
53445W        W96357  13.160   3.931  19.243 -0.1434  0.0485  0.1672
53446W        W96358  12.072   2.794  16.484  0.0000  0.2152 -0.1920
53447W        W96359  11.129   5.363  17.469  0.0546 -0.0421 -0.1589
53448W        W96360  11.077   6.013  18.743  0.3105  0.1291 -0.2569
53449W        W96361  11.237   6.639  15.586  0.1434  0.1519  0.0975
53450W        W96362  11.737   7.441  16.856  0.0736  0.0858  0.4844
53451W        W96363  11.882   4.720  18.982 -0.1519 -0.2310 -0.0983
53452W        W96364  12.944   4.543  17.573  0.1636  0.2481 -0.2162
53453W        W96365  11.528   5.490  17.954 -0.0409  0.0355 -0.3184
53454W        W96366  12.159   3.457  17.374  0.2405 -0.1020  0.1723
53455W        W96367  13.036   5.030  17.300  0.0543  0.1026  0.1933
53456W        W96368  14.669   4.919  18.579 -0.1404  0.0425  0.0939
53457W        W96369  12.332   5.402  17.941  0.0278  0.1733 -0.0738
53458W        W96370  10.936   7.720  19.531 -0.0322 -0.2184 -0.1569
53459W        W96371  13.174   3.346  18.617  0.1797  0.1354 -0.0699
53460W        W96372  15.224   6.923  15.750 -0.2135 -0.4115  0.2907
53461W        W96373  11.658   5.915  20.506  0.0309 -0.0164  0.2012
53462W        W96374  11.144   6.265  16.550  0.1004  0.1072 -0.0738
53463W        W96375   9.877   5.817  18.788 -0.1245  0.1065  0.3470
53464W        W96376  12.914   5.658  16.709  0.4248  0.0831  0.0188
53465W        W96377  13.473   3.643  19.533 -0.1640  0.3102  0.1441
53466W        W96378  11.302   6.101  17.859 -0.4567 -0.0771  0.0428
53467W        W96379  12.459   6.823  16.053  0.1988 -0.1166  0.1599
53468W        W96380  10.314   7.993  17.973  0.0850  0.1457 -0.1264
53469W        W96381  14.479   3.592  17.218 -0.0087 -0.1279 -0.1143
53470W        W96382  12.788   5.099  15.620  0.1151 -0.0524 -0.0594
53471W        W96383  12.245   4.444  17.059 -0.1229 -0.0219  0.2064
53472W        W96384  13.029   4.952  17.771 -0.2529 -0.3062 -0.2375
53473W        W96385  12.860   4.107  16.439 -0.0361 -0.1501  0.0745
53474W        W96386  13.471   4.736  18.620 -0.1741 -0.0207 -0.2003
53475W        W96387  11.322   3.019  17.918 -0.0678 -0.0587  0.2040
53476W        W96388  13.929   6.854  16.497  0.1791  0.0892 -0.2417
53477W        W96389  10.382   4.906  17.054 -0.1947 -0.0982 -0.0617
53478W        W96390  13.189   7.374  20.557  0.2105 -0.0262 -0.2421
53479W        W96391  12.122   6.135  19.022  0.0180  0.1299 -0.0068
53480W        W96392  12.080   4.147  18.921 -0.0484  0.2276  0.0257
53481W        W96393  11.616   5.055  15.646  0.0296 -0.5835 -0.0361
53482W        W96394  13.067   6.052  17.473 -0.1687 -0.0005  0.0289
53483W        W96395  13.487   6.692  16.697 -0.1677  0.1912 -0.2831
53484W        W96396  14.248   5.419  16.288  0.0432  0.2245 -0.2193
53485W        W96397  14.936   4.753  19.551  0.0423  0.0036 -0.2595
53486W        W96398  10.813   6.018  18.163 -0.0626 -0.0060 -0.0135
53487W        W96399  13.133   5.018  16.071 -0.1638  0.0642  0.0576
53488W        W96400  12.116   5.375  16.040  0.0580  0.0701  0.0932
53489W        W96401  12.178   6.527  16.616 -0.1277  0.2222  0.1145
53490W        W96402  11.564   5.008  18.381  0.1201 -0.0915  0.1632
53491W        W96403  12.995   6.552  17.358  0.2081 -0.4409 -0.0299
53492W        W96404  14.951   3.829  15.942 -0.0377 -0.0307 -0.1138
53493W        W96405  13.248   5.958  17.935  0.4314 -0.1368 -0.2491
53494W        W96406  13.333   4.987  19.003  0.0072  0.1283 -0.1794
53495W        W96407  13.347   4.606  19.818 -0.0865 -0.0308 -0.0639
53496W        W96408  11.334   4.448  19.282 -0.0607 -0.2594 -0.2435
53497W        W96409  12.948   6.753  19.192 -0.1194 -0.0826  0.0008
53498W        W96410  14.355   4.641  15.902  0.0594 -0.4815  0.1296
53499W        W96411  15.724   3.689  16.691 -0.1384  0.0672 -0.3899
53500W        W96412  14.401   6.297  18.279  0.1201  0.0522 -0.1511
53501W        W96413  13.270   4.149  16.763  0.1198  0.1688 -0.1951
53502W        W96414  11.928   4.043  17.466 -0.0944 -0.1222 -0.2999
53503W        W96415  13.855   4.401  19.010 -0.3923  0.1098 -0.0900
53504W        W96416  12.047   3.843  15.787 -0.1642  0.0183 -0.2708
53505W        W96417  12.433   4.555  18.888 -0.0377 -0.0606  0.3381
53506W        W96418  13.009   8.117  16.794 -0.1873 -0.1113  0.1607
53507W        W96419  13.149   6.826  18.147 -0.0752 -0.2492  0.1703
53508W        W96420  12.128   5.406  17.058 -0.1131 -0.2712  0.2515
53509W        W96421  11.421   5.049  16.118 -0.1391  0.1732  0.0368
53510W        W96422  10.828   6.930  18.458  0.0339 -0.0800 -0.0810
53511W        W96423  12.893   2.718  16.157 -0.2289 -0.0633 -0.0252
53512W        W96424  12.235   6.364  16.095  0.2700 -0.2686 -0.1570
53513W        W96425  13.769   6.584  18.798 -0.0449  0.3287  0.0327
53514W        W96426  14.330   6.763  19.746 -0.0108 -0.1147  0.3284
53515W        W96427  13.433   3.342  16.699 -0.0359  0.0359 -0.0542
53516W        W96428  14.178   4.842  19.047  0.0415  0.3810  0.1300
53517W        W96429  11.257   6.559  16.935 -0.2580 -0.4453  0.0868
53518W        W96430  13.697   3.818  17.526 -0.1170 -0.1923 -0.1628
53519W        W96431  12.264   8.820  20.401  0.1631  0.1484  0.2817
53520W        W96432  12.251   5.922  18.182  0.0498 -0.4767 -0.1062
53521W        W96433  11.596   6.740  17.357  0.0747 -0.1163  0.3389
53522W        W96434  13.148   3.813  18.732  0.1168  0.0379  0.0560
53523W        W96435  13.608   4.988  17.020  0.0376  0.4615  0.0239
53524W        W96436  12.529   5.765  17.019  0.0271  0.0727 -0.3747
53525W        W96437  12.713   4.223  19.119 -0.2283  0.0291 -0.2546
53526W        W96438  13.801   5.858  16.884  0.1060  0.3143  0.1482
53527W        W96439  12.456   4.954  18.309  0.0721 -0.1177  0.4989
53528W        W96440  12.766   6.493  18.297 -0.1653 -0.1675  0.2865
53529W        W96441  15.280   6.969  16.796  0.1253  0.0816 -0.0390
53530W        W96442  11.765   5.911  18.051  0.0560  0.1722  0.1595
53531W        W96443  11.361   4.880  19.013  0.1202  0.5163  0.0931
53532W        W96444  13.788   5.164  18.918  0.2363  0.0903  0.1455
53533W        W96445  13.776   4.657  16.286 -0.1940  0.0795  0.0429
53534W        W96446  11.283   3.433  16.997  0.2043 -0.1217 -0.0660
53535W        W96447  13.510   6.758  15.793 -0.0969  0.1672  0.2096
53536W        W96448  11.665   7.040  20.395  0.3502  0.1246  0.1356
53537W        W96449  12.535   5.898  17.513 -0.3404 -0.0774 -0.2768
53538W        W96450  11.913   7.428  16.225 -0.1796 -0.0293  0.1100
53539W        W96451  14.706   6.293  15.913  0.1747 -0.0484  0.0340
53540W        W96452  13.530   4.502  15.882  0.2169  0.1701 -0.2036
53541W        W96453  12.653   7.166  18.196  0.1684 -0.3945  0.1267
53542W        W96454  12.731   4.385  17.150  0.0525 -0.0920 -0.0610
53543W        W96455  11.117   7.851  17.416 -0.3549 -0.0206 -0.0194
53544W        W96456  10.706   6.546  16.789  0.0622 -0.1561 -0.0920
53545W        W96457  13.536   5.878  16.112  0.0073 -0.0628  0.0837
53546W        W96458  11.687   7.881  16.629  0.1398  0.3062  0.1439
53547W        W96459  13.362   5.234  18.561 -0.1993  0.2233 -0.0498
53548W        W96460  13.944   3.589  15.834  0.0037 -0.0493  0.1162
53549W        W96461  14.676   6.295  17.116 -0.0105  0.2989  0.0663
53550W        W96462  14.446   5.079  16.913  0.4742  0.0223  0.0299
53551W        W96463  11.477   7.635  19.961 -0.1788 -0.0510 -0.1090
53552W        W96464  11.911   4.898  17.168 -0.2215 -0.1679  0.3341
53553W        W96465  13.167   4.968  16.717 -0.0011 -0.0583 -0.0817
53554W        W96466  12.734   4.772  19.620 -0.3504 -0.1592  0.0729
53555W        W96467  14.810   4.721  18.976  0.0784 -0.1232 -0.2562
53556W        W96468  10.358   7.713  19.382  0.1273 -0.2403  0.0001
53557W        W96469  13.964   6.888  15.970 -0.1717 -0.1729 -0.0759
53558W        W96470  12.678   4.677  16.737 -0.4187 -0.0531 -0.0396
53559W        W96471  14.410   5.846  19.092 -0.0436  0.0273  0.0273
53560W        W96472  13.502   3.827  17.980 -0.0127  0.0468  0.0258
53561W        W96473  13.102   4.661  15.619  0.0159  0.1672 -0.0472
53562W        W96474  11.741   4.271  17.017  0.0864 -0.1933 -0.0053
53563W        W96475  11.954   7.200  17.309 -0.0561 -0.2499  0.1366
53564W        W96476  11.780   6.489  17.855 -0.0414 -0.1149 -0.1604
53565W        W96477  11.955   7.053  19.307 -0.0718  0.0099 -0.0383
53566W        W96478  10.785   3.656  15.891 -0.1700 -0.4607 -0.1049
53567W        W96479  15.049   5.459  16.456 -0.2179  0.2314 -0.1784
53568W        W96480  12.684   4.020  18.649 -0.5500  0.2559 -0.1551
53569W        W96481  12.505   3.912  18.163  0.0055  0.0249  0.2131
53570W        W96482  12.131   5.877  15.975 -0.1305 -0.0636  0.1965
53571W        W96483  14.339   5.672  17.786  0.0927 -0.0468  0.0492
53572W        W96484  13.925   5.773  17.482  0.0597 -0.3446  0.2484
53573W        W96485  11.288   4.355  17.447 -0.1011  0.1615 -0.1668
53574W        W96486  12.279   5.972  16.542  0.0103 -0.2014 -0.0867
53575W        W96487  14.370   5.430  19.563 -0.0680  0.0761  0.1169
53576W        W96488  14.010   5.958  16.374  0.3538 -0.2216  0.0190
53577W        W96489  12.574   6.367  19.101 -0.0619 -0.0177 -0.0621
53578W        W96490  11.900   5.771  16.792  0.1761  0.1437  0.0348
53579W        W96491  15.837   3.325  16.310  0.0091 -0.0062  0.0280
53580W        W96492  12.444   4.907  17.177  0.3490 -0.0542  0.2837
53581W        W96493  13.099   4.395  19.419 -0.0598 -0.2328  0.0242
53582W        W96494  12.523   6.105  18.606  0.1430 -0.2597 -0.0769
53583W        W96495  10.715   4.203  17.588  0.1887 -0.2443 -0.0492
53584W        W96496  13.789   6.442  16.216 -0.0077 -0.1340 -0.2117
53585W        W96497  14.387   3.910  18.376  0.0217  0.1334 -0.1765
53586W        W96498  12.392   7.777  15.970 -0.4274 -0.0072 -0.0356
53587W        W96499  14.371   5.745  17.197 -0.2966  0.1503 -0.1764
53588W        W96500  12.747   5.594  17.828 -0.2243 -0.2947  0.1732
53589W        W96501  13.159   4.114  17.263  0.1124 -0.1762 -0.6209
53590W        W96502  13.094   7.262  18.429 -0.3014 -0.2050 -0.2788
53591W        W96503  14.682   5.969  18.052 -0.4809 -0.2025  0.4121
53592W        W96504  12.930   3.363  16.583 -0.3531 -0.2703  0.3086
53593W        W96505  13.121   2.907  16.605  0.0667 -0.2366  0.0497
53594W        W96506  10.775   6.514  17.338  0.0800  0.1837  0.0059
53595W        W96507  15.108   3.889  17.719  0.1203 -0.1591  0.1996
53596W        W96508  14.151   4.429  18.653 -0.2876  0.0590 -0.0658
53597W        W96509  12.853   7.579  16.069 -0.0120  0.0214 -0.3512
53598W        W96510  15.112   3.202  19.511 -0.0596 -0.0101  0.2236
53599W        W96511  11.542   6.188  19.740 -0.1897  0.5014 -0.0119
53600W        W96512  11.795   6.743  18.832 -0.1459 -0.2061 -0.3281
53601W        W96513  12.806   5.199  16.464  0.1985 -0.0526  0.5055
53602W        W96514  12.019   5.361  19.295 -0.3088 -0.1066 -0.1444
53603W        W96515  12.503   5.367  17.418  0.1860 -0.1454 -0.0051
53604W        W96516  13.447   6.694  17.285 -0.3054  0.1359  0.2544
53605W        W96517  14.808   6.881  16.982 -0.0346 -0.0695 -0.2478
53606W        W96518  13.154   4.574  16.350  0.0396  0.0640 -0.1177
53607W        W96519  13.825   7.316  16.300 -0.1754  0.3073  0.0337
53608W        W96520  12.201   4.152  18.422 -0.1074 -0.2629  0.1598
53609W        W96521  15.352   4.071  16.580 -0.2113  0.2772 -0.1144
53610W        W96522  16.340   3.004  17.615  0.0110 -0.0692  0.2586
53611W        W96523  11.211   7.014  17.615 -0.4125 -0.0591 -0.2622
53612W        W96524  11.292   6.077  15.646 -0.2477  0.2928  0.1233
53613W        W96525  10.586   7.224  15.791  0.0467 -0.1596  0.2080
53614W        W96526  11.640   5.353  17.391 -0.3545  0.0394 -0.0350
53615W        W96527  14.095   3.967  18.918 -0.5082 -0.0796 -0.0954
53616W        W96528  10.683   5.022  17.826 -0.1061  0.0841  0.0481
53617W        W96529  11.326   6.654  17.934  0.1056  0.0365 -0.1414
53618W        W96530  12.629   5.292  16.917  0.3645  0.0916  0.0834
53619W        W96531  13.572   6.225  15.637  0.1537 -0.1058 -0.0385
53620W        W96532  10.986   3.426  18.186 -0.1886  0.1855  0.1455
53621W        W96533   9.853   5.033  17.062  0.0729  0.2348 -0.0825
53622W        W96534  12.892   7.108  16.205  0.1720 -0.2043  0.2066
53623W        W96535  13.716   7.142  17.389  0.2833 -0.0746  0.2448
53624W        W96536  11.889   4.338  16.249 -0.0579  0.2922  0.1538
53625W        W96537  13.881   6.231  18.485  0.0169  0.1610  0.1489
53626W        W96538  11.754   5.913  15.654  0.0524 -0.0147  0.0130
53627W        W96539  13.234   4.041  19.743  0.0423 -0.0263 -0.0404
53628W        W96540  12.524   5.289  19.423 -0.2190  0.0487 -0.1845
53629W        W96541  12.541   3.415  17.027 -0.0369  0.1041  0.2216
53630W        W96542  12.419   3.942  17.221 -0.0380 -0.1858 -0.1846
53631W        W96543  12.132   7.377  17.735 -0.2091  0.3803  0.3379
53632W        W96544  13.066   6.578  16.427  0.0276 -0.1015 -0.0900
53633W        W96545  12.541   5.570  18.378 -0.0272  0.0822  0.1163
53634W        W96546  11.591   6.656  19.356 -0.1713 -0.0363  0.0278
53635W        W96547  12.325   4.503  19.372 -0.0634  0.2997 -0.0136
53636W        W96548  14.661   5.122  16.458 -0.0345 -0.2184 -0.1039
53637W        W96549  12.858   6.179  19.801 -0.2172 -0.0659  0.0838
53638W        W96550  16.463   4.560  16.662 -0.0546 -0.0972 -0.0819
53639W        W96551  14.650   3.331  16.763 -0.0475  0.0498 -0.1167
53640W        W96552  12.754   5.495  15.996  0.0145 -0.1938  0.3275
53641W        W96553  12.483   3.296  19.667  0.0299  0.2065 -0.0514
53642W        W96554  13.565   5.240  19.372 -0.1771  0.0934 -0.0321
53643W        W96555  14.120   4.947  18.556  0.2577  0.0623  0.0002
53644W        W96556  11.773   3.588  17.773 -0.1688  0.2689 -0.0639
53645W        W96557  12.206   2.989  16.950  0.0731  0.1051  0.2464
53646W        W96558  13.082   5.909  15.869  0.0818 -0.2498 -0.2411
53647W        W96559  10.657   3.976  16.928 -0.1460  0.1328 -0.1938
53648W        W96560  13.024   3.314  17.090 -0.0343 -0.0605 -0.3351
53649W        W96561  13.387   5.433  16.894 -0.0262 -0.1807  0.1938
53650W        W96562  11.898   6.339  17.253  0.0557  0.0167 -0.1845
53651W        W96563  14.068   5.870  19.479 -0.1692 -0.1556  0.0056
53652W        W96564  13.065   7.040  16.660  0.1052 -0.0022 -0.0875
53653W        W96565  15.577   5.291  16.417  0.0057 -0.0701  0.1098
53654W        W96566  13.905   7.614  18.963 -0.1945  0.0293  0.0993
53655W        W96567  14.177   7.148  19.441 -0.0575  0.0652 -0.0864
53656W        W96568  12.228   7.169  18.755  0.0411  0.0144  0.2368
53657W        W96569  13.459   5.657  17.307 -0.0052 -0.0571  0.2339
53658W        W96570  11.470   2.921  18.629  0.0809 -0.1470  0.0081
53659W        W96571  12.108   5.883  17.250  0.1226  0.2271 -0.0908
53660W        W96572  12.890   5.938  18.368  0.1517 -0.1054  0.1077
53661W        W96573  13.619   4.326  17.216 -0.0740  0.0449 -0.1294
53662W        W96574  12.012   3.656  18.196  0.0370 -0.1001 -0.1720
53663W        W96575  12.187   3.404  15.987 -0.0076  0.0391  0.0195
53664W        W96576  12.217   9.520  16.818  0.0774  0.2273  0.0126
53665W        W96577  13.635   6.687  18.282  0.1930 -0.0015 -0.1585
53666W        W96578  12.487   7.580  23.504 -0.0622 -0.0184  0.0875
53667W        W96579  12.005   5.583  21.408  0.3815 -0.1227  0.1102
53668W        W96580  13.579   4.111  19.298 -0.1196 -0.0445  0.1227
53669W        W96581  14.250   4.774  20.193 -0.2072 -0.2993  0.1860
53670W        W96582  10.274   4.277  21.176  0.0614 -0.0277  0.2621
53671W        W96583  12.962   6.321  22.152  0.0783 -0.1752 -0.2834
53672W        W96584  11.240   3.851  22.941 -0.2268  0.2546  0.1016
53673W        W96585  13.938   6.991  22.102  0.1519 -0.1931 -0.0830
53674W        W96586  15.074   7.042  21.262  0.1646 -0.0076 -0.0104
53675W        W96587  12.671   5.707  19.779 -0.2474 -0.1304  0.1990
53676W        W96588  12.533   5.971  22.012 -0.3925 -0.2317 -0.1252
53677W        W96589  12.748   7.395  21.561  0.1060 -0.2157  0.2529
53678W        W96590  13.040   3.332  20.986  0.1969  0.1708 -0.2295
53679W        W96591  10.777   3.819  21.983 -0.0006  0.0360 -0.0375
53680W        W96592  13.571   4.644  21.861  0.3601 -0.0241 -0.2298
53681W        W96593  10.948   5.345  20.715 -0.1501 -0.1729  0.2770
53682W        W96594  12.349   5.230  21.574  0.0701  0.1975 -0.3143
53683W        W96595  12.898   3.947  20.074 -0.1383  0.0547 -0.3248
53684W        W96596  11.221   8.109  21.114  0.0582 -0.2102  0.1006
53685W        W96597  13.237   4.273  21.375 -0.0099  0.3240  0.0693
53686W        W96598  12.765   3.701  23.316 -0.1574 -0.1877  0.0799
53687W        W96599  12.075   6.837  20.460  0.4104  0.0893  0.1351
53688W        W96600  12.133   4.930  20.207 -0.1928 -0.1184 -0.0733
53689W        W96601  11.513   5.446  21.485 -0.2360 -0.2226 -0.1654
53690W        W96602  11.697   4.579  22.517  0.0831 -0.2780 -0.2751
53691W        W96603  14.758   5.602  23.588  0.1945 -0.1165 -0.2360
53692W        W96604  14.294   4.941  22.302  0.0801 -0.2692 -0.1914
53693W        W96605  12.322   7.712  21.447  0.3098 -0.4157  0.1873
53694W        W96606  12.473   7.481  23.031  0.1363  0.0804 -0.2626
53695W        W96607  13.639   4.289  23.191 -0.0888 -0.0222 -0.0791
53696W        W96608  11.966   6.144  21.629  0.0716  0.0156  0.1420
53697W        W96609  10.792   6.906  19.911  0.0865  0.1942 -0.2463
53698W        W96610  12.580   7.709  20.680  0.2410  0.1225  0.0291
53699W        W96611  14.066   6.607  21.798  0.0711  0.2030  0.3118
53700W        W96612  14.355   6.849  22.488  0.0714  0.4634 -0.2277
53701W        W96613  13.434   7.569  23.709  0.2832  0.1463  0.0539
53702W        W96614  11.279   6.341  20.580 -0.0835 -0.0209 -0.0297
53703W        W96615  13.227   6.350  24.280 -0.2223 -0.1063 -0.0825
53704W        W96616  11.129   6.744  23.858 -0.1342  0.1736  0.0455
53705W        W96617  13.666   5.979  21.665 -0.2413 -0.0415  0.0734
53706W        W96618  12.450   5.212  20.557  0.1042 -0.3227  0.0773
53707W        W96619  11.099   7.225  18.792 -0.4820 -0.1150  0.0949
53708W        W96620  12.989   6.466  21.162  0.0307 -0.1365 -0.0365
53709W        W96621  12.845   4.966  23.953 -0.1596  0.1016  0.0955
53710W        W96622  12.706   6.765  20.278 -0.1223  0.0349  0.0075
53711W        W96623  14.371   3.502  24.078  0.0493 -0.0124  0.0859
53712W        W96624  13.449   7.678  21.185  0.1202  0.0819  0.1533
53713W        W96625  13.284   5.927  20.293  0.1412 -0.0403  0.0381
53714W        W96626  14.065   3.401  19.009 -0.1945  0.1567  0.0818
53715W        W96627  13.585   6.417  19.592  0.0221 -0.2959  0.1615
53716W        W96628  13.088   2.891  21.798 -0.1363 -0.0102  0.1815
53717W        W96629  11.679   8.835  21.475 -0.2650  0.0066  0.4638
53718W        W96630  11.757   4.254  21.316 -0.0192  0.2379  0.1000
53719W        W96631  13.702   6.418  24.401 -0.1232  0.0794 -0.0840
53720W        W96632  13.390   5.472  20.252 -0.0011 -0.0861 -0.2743
53721W        W96633  12.605   6.067  22.884  0.0584  0.0745  0.0245
53722W        W96634  11.792   6.544  22.728  0.0339 -0.3038 -0.3378
53723W        W96635  11.256   4.262  21.211 -0.0540 -0.0921 -0.3071
53724W        W96636  12.647   5.998  19.369 -0.1731 -0.0068  0.1932
53725W        W96637  14.339   5.803  21.234  0.2228  0.1650  0.1545
53726W        W96638  12.520   7.205  20.109 -0.0064  0.3216 -0.2027
53727W        W96639  11.272   4.459  20.329  0.3218  0.1729  0.1234
53728W        W96640  12.816   6.969  23.200 -0.0023  0.1811 -0.0303
53729W        W96641  12.344   7.069  23.334 -0.1642  0.2338 -0.0198
53730W        W96642  12.472   4.122  20.245  0.0907 -0.1960 -0.1061
53731W        W96643  15.333   5.806  22.592 -0.1051  0.2180  0.1634
53732W        W96644  11.222   6.896  23.075  0.1792 -0.0826 -0.0654
53733W        W96645  15.607   3.914  21.512  0.2635  0.1000 -0.3103
53734W        W96646  12.771   5.623  22.786  0.1039  0.1784  0.0681
53735W        W96647  14.468   6.936  21.969  0.0236  0.4609  0.1351
53736W        W96648  13.728   6.317  20.266 -0.2664  0.2368 -0.2274
53737W        W96649  14.455   4.968  20.646 -0.1252  0.2729  0.1349
53738W        W96650  13.743   4.369  23.702 -0.1045 -0.0693  0.1119
53739W        W96651  11.134   4.777  18.453  0.3275 -0.0353 -0.1432
53740W        W96652  13.627   5.121  20.009  0.0345 -0.1288 -0.0662
53741W        W96653  15.389   5.907  22.100 -0.1215 -0.0675 -0.1376
53742W        W96654  15.621   5.073  20.888  0.0550 -0.0793 -0.1792
53743W        W96655  10.762   7.022  21.446  0.2757  0.0052  0.1442
53744W        W96656  11.096   4.945  23.463 -0.0203 -0.2739 -0.3025
53745W        W96657  12.794   7.132  23.671 -0.1744 -0.1323 -0.0691
53746W        W96658  10.430   7.283  19.645 -0.0141  0.0349 -0.1255
53747W        W96659  11.083   5.374  22.409  0.0813 -0.0577  0.1265
53748W        W96660  10.457   5.886  20.051 -0.2682  0.1069 -0.1251
53749W        W96661  11.002   4.921  22.052  0.1952 -0.0507  0.1443
53750W        W96662  12.814   5.234  23.330 -0.2197 -0.0157  0.0569
53751W        W96663  14.377   4.801  19.658  0.2294 -0.1139 -0.3645
53752W        W96664  11.816   5.697  23.295  0.1093 -0.0337  0.2061
53753W        W96665  13.137   2.683  22.257  0.1930 -0.2345 -0.1940
53754W        W96666  11.958   6.450  19.682  0.0339 -0.1028  0.0234
53755W        W96667  14.498   6.390  21.156  0.0149 -0.1733  0.1269
53756W        W96668  13.860   4.742  19.845  0.2982 -0.2582  0.1339
53757W        W96669  12.481   6.887  19.097 -0.2452  0.2230 -0.0476
53758W        W96670  11.881   5.098  20.708  0.1575 -0.0979 -0.0037
53759W        W96671  11.504   5.059  22.312  0.2113  0.0755  0.1797
53760W        W96672  11.850   4.181  23.489 -0.1140  0.1047 -0.1145
53761W        W96673   9.986   4.025  21.543  0.2207  0.2797 -0.1995
53762W        W96674  14.093   4.266  22.910  0.1142 -0.1423 -0.0661
53763W        W96675  10.628   4.465  20.848 -0.3770 -0.1241 -0.0616
53764W        W96676  13.622   5.529  22.068  0.1978 -0.1045 -0.4041
53765W        W96677  13.822   4.129  20.350  0.0226 -0.0923 -0.0444
53766W        W96678  10.138   5.875  20.857  0.2354  0.0631  0.1587
53767W        W96679  13.686   3.284  22.857  0.0003 -0.0953  0.0919
53768W        W96680  13.382   8.277  20.035  0.3553 -0.0305  0.0478
53769W        W96681  14.588   7.351  23.301  0.1778  0.0750 -0.2339
53770W        W96682  14.739   5.365  20.927  0.3132  0.0820  0.0376
53771W        W96683  12.289   2.880  22.937 -0.4397  0.2877  0.2930
53772W        W96684  13.679   3.695  19.055  0.0029 -0.1890 -0.0449
53773W        W96685  12.029   7.336  21.358 -0.3418 -0.1116  0.0974
53774W        W96686  12.021   6.340  22.073  0.0856  0.2445 -0.2594
53775W        W96687  11.626   4.799  20.446  0.4628  0.2342  0.2367
53776W        W96688  14.975   8.111  22.168  0.2386  0.0244 -0.0531
53777W        W96689  12.082   6.147  22.561  0.1945 -0.0305  0.0545
53778W        W96690  12.868   6.943  24.142  0.2896 -0.1451 -0.0519
53779W        W96691  13.513   3.096  22.463  0.0461 -0.0860  0.0877
53780W        W96692  13.239   5.426  21.376  0.1006 -0.0566  0.0399
53781W        W96693  12.957   5.205  20.593 -0.0543 -0.1346  0.3833
53782W        W96694  10.669   3.687  20.507  0.0636  0.3251 -0.3287
53783W        W96695  12.905   7.188  22.371 -0.1633 -0.0079 -0.3045
53784W        W96696  11.153   6.896  19.528  0.0377  0.0798 -0.0059
53785W        W96697  10.843   5.112  19.859  0.0315 -0.0798 -0.0054
53786W        W96698  13.533   7.349  22.044  0.3771  0.1444 -0.2454
53787W        W96699  14.248   5.346  21.020  0.0050  0.1314  0.0977
53788W        W96700  11.394   6.328  22.911  0.0413 -0.1072  0.0557
53789W        W96701  13.527   3.613  24.503 -0.0695  0.2554  0.2476
53790W        W96702  11.905   4.699  19.845 -0.0445  0.1443 -0.1599
53791W        W96703  11.120   7.690  22.351  0.5359 -0.2968  0.1089
53792W        W96704  13.832   3.802  19.932  0.1144  0.0420  0.1688
53793W        W96705  14.420   3.441  21.194 -0.2039  0.4129  0.0838
53794W        W96706  13.268   4.477  23.683 -0.1010  0.0645  0.4572
53795W        W96707  13.952   4.969  20.567 -0.1469 -0.2346  0.2025
53796W        W96708  12.224   5.134  21.048 -0.0566 -0.0747  0.1722
53797W        W96709  12.071   4.086  19.909  0.1477  0.0110  0.0250
53798W        W96710  10.765   8.231  21.991  0.1429  0.1232 -0.0390
53799W        W96711  13.856   6.066  22.802  0.0567 -0.1660 -0.0678
53800W        W96712  11.562   7.511  22.599 -0.2531  0.0866  0.2690
53801W        W96713  12.119   5.420  19.816  0.1783  0.1426  0.3276
53802W        W96714  14.195   6.135  21.854  0.0348  0.0521 -0.1116
53803W        W96715  11.596   4.793  21.762 -0.1004 -0.2072  0.0033
53804W        W96716  12.556   4.869  24.659 -0.0451 -0.0997 -0.1752
53805W        W96717  13.599   6.914  21.634 -0.0078 -0.1535 -0.1085
53806W        W96718  12.435   4.317  22.000 -0.4246 -0.1506  0.0237
53807W        W96719  12.334   5.997  20.677  0.0947  0.1858  0.2921
53808W        W96720  12.854   4.558  22.671 -0.3921 -0.3499 -0.1937
53809W        W96721  11.055   6.758  19.069 -0.0983 -0.0753 -0.2203
53810W        W96722  13.935   4.363  21.484  0.2800 -0.4563  0.0425
53811W        W96723  13.058   3.180  22.328  0.3307  0.1002 -0.0032
53812W        W96724  10.970   4.170  23.216  0.2929  0.2287 -0.2308
53813W        W96725  14.792   5.140  23.371  0.1324 -0.0026 -0.0500
53814W        W96726  13.419   5.034  20.477 -0.3981  0.2597  0.0694
53815W        W96727  14.122   5.086  21.869 -0.2327 -0.1299 -0.0361
53816W        W96728  10.677   4.726  18.169 -0.2975 -0.0346  0.1849
53817W        W96729  11.099   4.624  21.681 -0.0832 -0.0210 -0.3503
53818W        W96730  12.275   4.559  22.413  0.3245  0.0115 -0.0885
53819W        W96731  11.612   7.779  22.206  0.2456 -0.1914 -0.0804
53820W        W96732  14.660   4.807  23.739  0.3951  0.0975 -0.2459
53821W        W96733  13.614   5.098  21.719 -0.1784  0.3870  0.1533
53822W        W96734  12.091   4.048  22.494  0.0875 -0.2165  0.0445
53823W        W96735  11.357   4.198  21.724 -0.1029  0.1813  0.0656
53824W        W96736  11.208   7.502  20.395 -0.1321 -0.1277 -0.1491
53825W        W96737  12.398   6.490  21.479  0.3134 -0.1607  0.2428
53826W        W96738  13.464   3.537  20.969 -0.3229 -0.1936 -0.2800
53827W        W96739  12.559   6.261  22.425 -0.0382 -0.0456  0.0704
53828W        W96740  13.629   4.721  19.356 -0.3733  0.2097 -0.2000
53829W        W96741  13.047   6.366  22.629 -0.1438 -0.2923  0.2625
53830W        W96742  10.725   7.116  20.719 -0.2678 -0.0605  0.2916
53831W        W96743  14.093   3.621  20.331  0.0855 -0.0513 -0.0836
53832W        W96744  12.049   7.588  21.869  0.1036  0.0241  0.2027
53833W        W96745  11.883   5.068  21.458 -0.1130  0.1331  0.1302
53834W        W96746  11.338   3.371  19.980  0.0736 -0.0759 -0.0456
53835W        W96747  13.349   3.972  21.846  0.1304 -0.0137  0.0519
53836W        W96748  13.969   7.174  20.832 -0.0851 -0.0422  0.1154
53837W        W96749  11.282   3.617  21.820 -0.0240  0.2475 -0.3065
53838W        W96750  13.231   3.682  21.414 -0.4409  0.1004 -0.0977
53839W        W96751  10.352   8.477  21.773  0.0363 -0.0948 -0.1990
53840W        W96752  12.638   6.557  24.366  0.0725  0.1315 -0.3133
53841W        W96753  13.129   4.371  18.937  0.1927  0.0494  0.1880
53842W        W96754  12.837   6.436  23.105  0.0559 -0.2553 -0.2361
53843W        W96755  13.208   4.962  21.967 -0.1498  0.5116  0.1451
53844W        W96756  10.166   4.127  19.737  0.0695  0.2847  0.0552
53845W        W96757  15.126   5.333  22.937  0.0173  0.3732 -0.0469
53846W        W96758  10.902   4.090  20.484  0.2718 -0.0151 -0.1652
53847W        W96759  11.856   5.488  20.257  0.0389 -0.0554  0.0932
53848W        W96760  13.233   6.770  22.260  0.0824  0.1945 -0.1743
53849W        W96761  12.137   6.470  21.033 -0.1095  0.0948  0.2969
53850W        W96762  12.056   7.658  22.497 -0.3471 -0.5001 -0.2088
53851W        W96763  13.047   4.297  23.091 -0.2239 -0.0406  0.0268
53852W        W96764  14.554   5.335  22.478  0.2903 -0.3254  0.0481
53853W        W96765  13.038   3.954  21.036  0.3028  0.0217  0.0667
53854W        W96766  12.182   4.012  21.218  0.0032 -0.2892  0.0458
53855W        W96767  14.153   4.829  21.481  0.2116 -0.0313 -0.1101
53856W        W96768  14.909   6.033  22.017 -0.1236  0.0162  0.0504
53857W        W96769  11.749   3.694  22.186  0.0372 -0.1349  0.0425
53858W        W96770  12.260   8.068  21.849 -0.1498 -0.0471  0.4484
53859W        W96771  13.084   4.387  22.034  0.0561 -0.0417 -0.1275
53860W        W96772  13.537   5.856  19.339  0.1440 -0.3173  0.2231
53861W        W96773  12.941   5.020  22.836 -0.0078 -0.1711  0.0317
53862W        W96774  12.413   5.619  21.079  0.1490  0.2286 -0.0575
53863W        W96775  11.247   6.893  20.812 -0.0034  0.1109 -0.2846
53864W        W96776  12.841   5.793  21.168 -0.0600  0.1010 -0.2133
53865W        W96777  12.309   4.328  22.964 -0.0919  0.1231 -0.1177
53866W        W96778  11.160   7.489  21.925  0.3120  0.0622  0.2828
53867W        W96779  12.564   6.247  21.065 -0.0006  0.1984  0.0165
53868W        W96780  11.874   5.296  21.912  0.0561  0.0479  0.0944
53869W        W96781  14.558   2.453  21.436  0.1253 -0.0843 -0.1173
53870W        W96782  12.428   6.531  20.608  0.1273 -0.0314  0.1342
53871W        W96783  12.205   4.200  20.695 -0.0779  0.1484 -0.1715
53872W        W96784  14.584   3.643  22.757 -0.0658  0.0311  0.1715
53873W        W96785  12.643   4.852  20.214 -0.0813  0.2562  0.2462
53874W        W96786  12.884   3.637  22.578 -0.0440  0.0681  0.0585
53875W        W96787  10.877   3.873  22.575 -0.0693  0.1462  0.1213
53876W        W96788  13.675   6.339  20.985  0.2065  0.1955  0.0169
53877W        W96789  11.941   4.977  22.637  0.4247  0.4877 -0.0304
53878W        W96790  12.177   6.656  24.737 -0.1845 -0.0422 -0.2830
53879W        W96791  13.218   3.827  22.980 -0.2455 -0.1735  0.0063
53880W        W96792  13.290   5.593  20.762 -0.1583 -0.1153  0.1534
53881W        W96793  12.865   2.469  19.910 -0.1053  0.0014 -0.0955
53882W        W96794  13.186   4.922  22.448 -0.1953  0.0237  0.3962
53883W        W96795  12.665   6.874  22.720 -0.2800 -0.1549 -0.0451
53884W        W96796  14.752   7.661  22.410 -0.1553  0.1108 -0.0888
53885W        W96797  13.283   5.071  20.962 -0.1524 -0.0371  0.0398
53886W        W96798  11.945   5.424  22.469  0.0856 -0.2379 -0.1571
53887W        W96799  13.685   5.934  20.645  0.1155  0.0445 -0.3344
53888W        W96800  13.646   4.615  20.293  0.1315 -0.0125  0.0805
53889W        W96801  12.792   4.515  21.560 -0.1721  0.0130 -0.3603
53890W        W96802  12.265   4.018  23.750  0.2412  0.0038  0.0201
53891W        W96803  13.875   5.128  23.789  0.3155  0.0557  0.3974
53892W        W96804  12.835   5.214  21.084 -0.2229  0.0799 -0.1924
53893W        W96805  12.337   5.098  22.349  0.4553 -0.3711  0.2554
53894W        W96806  13.636   3.999  21.241  0.1107 -0.0473 -0.0544
53895W        W96807  13.253   6.063  21.350 -0.0945  0.1490 -0.0330
53896W        W96808  11.293   4.983  24.351  0.2930  0.2189 -0.2901
53897W        W96809  14.504   7.950  20.883  0.0831 -0.1324 -0.1346
53898W        W96810  14.093   3.902  19.419 -0.0348 -0.1619  0.0450
53899W        W96811  14.656   4.193  23.409  0.2696  0.0335 -0.0335
53900W        W96812  14.120   4.730  21.029 -0.0112  0.0370  0.0445
53901W        W96813  14.913   4.092  20.700 -0.0283  0.0876  0.0924
53902W        W96814  12.440   4.799  21.369  0.1202 -0.4554  0.1022
53903W        W96815  14.203   4.148  24.682  0.0925 -0.1151  0.0190
53904W        W96816  11.544   3.912  19.389 -0.1595  0.0693 -0.0091
53905W        W96817  12.972   4.046  23.759  0.0962  0.3090 -0.0661
53906W        W96818  12.191   5.815  19.472  0.0514 -0.1655 -0.2743
53907W        W96819  13.319   5.470  22.475  0.3145  0.1971  0.5129
53908W        W96820  14.276   4.056  20.549 -0.3185 -0.0021 -0.1628
53909W        W96821  10.396   5.316  22.937  0.1916 -0.0985 -0.3933
53910W        W96822  12.563   8.535  21.739  0.3285  0.2531  0.0388
53911W        W96823  13.085   5.052  19.438 -0.0510  0.1831 -0.2049
53912W        W96824  12.630   6.804  21.012  0.3915 -0.0248  0.2447
53913W        W96825  13.602   5.676  23.813 -0.1704  0.1932 -0.1504
53914W        W96826  14.060   5.625  23.041  0.0628 -0.0719  0.0507
53915W        W96827  13.542   2.437  19.029  0.0351 -0.3728  0.1412
53916W        W96828  13.152   4.159  22.581  0.0308 -0.0664 -0.1863
53917W        W96829  13.282   6.070  20.860 -0.1245 -0.3250  0.1583
53918W        W96830  14.888   3.222  20.641  0.0486  0.1167 -0.0009
53919W        W96831  12.348   7.089  21.999 -0.0453 -0.0315 -0.0190
53920W        W96832  10.882   6.297  23.617  0.1098 -0.0670  0.0235
53921W        W96833  11.563   5.875  21.909  0.3209 -0.0962 -0.0969
53922W        W96834  12.293   3.606  23.482  0.1318 -0.5754  0.0014
53923W        W96835  12.392   4.811  22.819  0.1771  0.2520 -0.1472
53924W        W96836  12.949   4.656  20.985  0.0010  0.2436  0.0759
53925W        W96837  14.146   5.098  22.766 -0.2429  0.0481  0.2210
53926W        W96838  12.754   6.074  23.461 -0.0025 -0.0103  0.0646
53927W        W96839  12.802   6.261  21.569  0.2884  0.0649  0.1519
53928W        W96840  13.227   5.728  23.495 -0.1089  0.0148 -0.1072
53929W        W96841  15.140   6.220  22.396  0.2026  0.2609  0.0434
53930W        W96842  12.032   6.763  21.797 -0.0213 -0.1934 -0.2208
53931W        W96843  11.411   5.861  24.895 -0.3893 -0.0757  0.1099
53932W        W96844  12.377   4.912  24.223  0.2745 -0.0383 -0.1627
53933W        W96845  13.164   5.753  19.804  0.1387  0.1401  0.2274
53934W        W96846  13.611   3.602  20.480 -0.1757  0.1672 -0.0681
53935W        W96847  12.920   6.363  20.697  0.1034 -0.1923 -0.0334
53936W        W96848  11.905   7.389  24.004 -0.2136 -0.1916 -0.3833
53937W        W96849  11.525   5.686  22.387 -0.3624  0.0076 -0.1625
53938W        W96850  11.386   7.653  20.957  0.5199  0.2707  0.0586
53939W        W96851  11.981   6.322  20.443 -0.2389  0.0687 -0.0431
53940W        W96852  12.817   5.636  21.607  0.1893 -0.3004  0.1633
53941W        W96853  13.922   6.157  23.306 -0.0749  0.2262  0.2701
53942W        W96854  13.863   3.175  20.294 -0.0836 -0.0271  0.0209
53943W        W96855  11.774   6.890  21.352  0.0819  0.1714  0.0639
53944W        W96856  10.320   8.509  18.731 -0.1388  0.1450 -0.1086
53945W        W96857  13.027   7.339  20.042  0.0319 -0.1883  0.0754
53946W        W96858  11.886   5.954  19.993 -0.1595  0.0397  0.3571
53947W        W96859  13.340   5.192  24.698 -0.2929 -0.1006  0.0697
53948W        W96860  14.173   3.429  19.475 -0.1479 -0.1785 -0.3970
53949W        W96861  15.080   5.623  21.177  0.1714 -0.1493 -0.1686
53950W        W96862  15.233   4.354  19.047  0.1723  0.0554 -0.1930
53951W        W96863  13.352   4.851  23.910 -0.1265  0.0148  0.1086
53952W        W96864  12.459   4.681  20.838 -0.0620  0.1648  0.3532
53953W        W96865  13.049   2.796  21.238  0.2080  0.2857 -0.3601
53954W        W96866  13.222   6.029  21.872  0.0876  0.4022  0.1009
53955W        W96867  14.659   3.911  21.102  0.0174 -0.1676 -0.1162
53956W        W96868  10.923   6.328  24.140  0.0600 -0.1556  0.0990
53957W        W96869  14.620   6.399  21.710 -0.1728  0.0272  0.0555
53958W        W96870  12.640   5.242  19.904 -0.2003  0.2086  0.3524
53959W        W96871  12.446   5.428  21.998  0.3465  0.3753 -0.0996
53960W        W96872  13.835   3.768  22.237 -0.0365 -0.0080  0.1012
53961W        W96873  12.938   6.823  19.815 -0.0137  0.1628  0.0580
53962W        W96874  13.682   4.707  21.231  0.2166  0.1482  0.0016
53963W        W96875  14.143   6.766  21.105  0.1806 -0.0233 -0.1516
53964W        W96876  10.325   7.987  21.862 -0.0322 -0.1774 -0.0343
53965W        W96877  13.164   6.875  22.797 -0.2326  0.0507  0.1095
53966W        W96878  10.987   3.943  20.038 -0.0823  0.2351 -0.2580
53967W        W96879  14.934   4.432  21.178 -0.0835 -0.1055  0.2833
53968W        W96880  12.766   4.822  22.142  0.5287  0.1836  0.3408
53969W        W96881  14.651   2.611  24.021 -0.1953 -0.0014 -0.3000
53970W        W96882  11.376   4.800  19.838  0.0653 -0.0027 -0.0415
53971W        W96883  13.894   4.055  18.410  0.1687  0.0647  0.1397
53972W        W96884  12.810   5.325  22.410 -0.0063 -0.0521 -0.1583
53973W        W96885  11.967   4.859  22.117  0.3562  0.2874  0.1967
53974W        W96886  12.361   5.632  20.246  0.1583  0.1791  0.1114
53975W        W96887  12.368   5.503  23.301  0.1480 -0.0943 -0.0685
53976W        W96888  14.069   4.427  19.492  0.0099 -0.1765  0.2196
53977W        W96889  14.935   5.791  23.160  0.0635 -0.0159 -0.2685
53978W        W96890  10.991   3.881  21.480 -0.0290 -0.1769  0.0213
53979W        W96891  14.231   3.433  18.550 -0.0421 -0.1042 -0.1334
53980W        W96892  12.412   5.904  21.499 -0.1832  0.0843  0.0995
53981W        W96893  12.305   5.017  23.263  0.2271  0.0357  0.0855
53982W        W96894  14.274   8.177  23.844 -0.2401 -0.3064  0.0841
53983W        W96895  12.266   3.715  20.790 -0.3637 -0.0948  0.0877
53984W        W96896  13.015   5.669  19.369  0.0657  0.0657 -0.1308
53985W        W96897  13.474   4.515  22.404 -0.0240 -0.1852  0.0387
53986W        W96898  13.108   6.827  20.711  0.0072 -0.0536 -0.2006
53987W        W96899  14.489   4.362  21.454  0.0692  0.3518 -0.2771
53988W        W96900  14.284   7.310  22.327  0.0579 -0.1330  0.4620
53989W        W96901  10.575   4.657  22.694  0.0274  0.1271 -0.0735
53990W        W96902  12.902   6.911  21.404  0.3806  0.0336  0.2824
53991W        W96903  15.183   6.175  21.034  0.2086  0.1970 -0.4790
53992W        W96904  13.929   2.802  19.004  0.2241  0.0351  0.2050
53993W        W96905  12.400   4.825  21.849  0.2706  0.1984  0.1460
53994W        W96906  11.118   5.865  20.646  0.1417 -0.0630 -0.1285
53995W        W96907  14.798   4.355  22.079  0.2150  0.2225 -0.1090
53996W        W96908  12.946   5.814  22.328  0.4200  0.1302 -0.1246
53997W        W96909  13.639   6.418  21.488  0.6540  0.0089 -0.2455
53998W        W96910  13.578   2.326  23.856  0.2310 -0.0748 -0.3526
53999W        W96911  13.448   6.550  23.868 -0.2256 -0.0261  0.0532
54000W        W96912  12.705   8.039  23.652 -0.0707 -0.2176 -0.0246
54001W        W96913  12.321   6.107  19.924  0.0319  0.0445  0.0652
54002W        W96914  12.785   5.596  23.657  0.3115  0.0723 -0.1782
54003W        W96915  12.279   7.269  20.584 -0.2257  0.1078  0.0953
54004W        W96916  12.406   8.018  22.329  0.0514  0.1139 -0.0187
54005W        W96917  14.075   6.413  22.402 -0.0318  0.1166 -0.0639
54006W        W96918  12.862   5.777  20.622  0.2244 -0.1633  0.0103
54007W        W96919  13.921   5.931  22.281  0.1484 -0.0854 -0.2019
54008W        W96920  10.771   4.296  21.383  0.2465 -0.0035 -0.0982
54009W        W96921  14.879   3.677  20.204  0.0195 -0.4322 -0.1903
54010W        W96922  14.315   3.104  19.912  0.0074  0.0670  0.0454
54011W        W96923  11.914   4.344  22.033  0.1412 -0.0973  0.1515
54012W        W96924  13.336   4.070  20.255  0.2694 -0.1744  0.1638
54013W        W96925  11.963   6.937  19.956 -0.0431  0.0364  0.0145
54014W        W96926  11.413   4.371  22.891 -0.1202 -0.0500  0.1316
54015W        W96927  11.677   4.703  24.279 -0.1756  0.1519  0.1852
54016W        W96928  11.463   4.909  22.914  0.2307 -0.0629  0.1529
54017W        W96929  11.461   5.401  20.534 -0.0682  0.0039 -0.2909
54018W        W96930   9.771   2.664  21.438  0.2396  0.0088 -0.2056
54019W        W96931  14.339   5.763  20.678 -0.1760 -0.2428 -0.1478
54020W        W96932  12.350   1.867  22.281  0.1143 -0.0775 -0.0218
54021W        W96933  10.717   3.222  20.928 -0.1126  0.0786 -0.2091
54022W        W96934  13.477   7.216  20.933 -0.0387 -0.0029  0.1351
54023W        W96935  13.693   5.791  21.130 -0.1714 -0.0216 -0.0537
54024W        W96936  13.229   2.536  20.834  0.1523 -0.1470  0.1048
54025W        W96937  14.413   5.248  23.827 -0.2039  0.3215 -0.0602
54026W        W96938   9.945   6.987  17.851 -0.3328  0.0555  0.0678
54027W        W96939  13.441   4.398  24.233  0.1997 -0.1443 -0.1215
54028W        W96940  12.623   3.632  23.852  0.2201 -0.3364 -0.0005
54029W        W96941  12.942   4.252  20.634 -0.0272 -0.1748  0.0570
54030W        W96942  13.042   4.735  20.484 -0.0177 -0.1124 -0.2147
54031W        W96943  12.010   5.977  21.081  0.3907  0.3159 -0.0139
54032W        W96944  13.163   7.846  20.685 -0.0577  0.3431  0.0947
54033W        W96945  13.166   6.584  21.696  0.0930 -0.2311 -0.1267
54034W        W96946  11.935   6.639  23.227 -0.1494 -0.0044 -0.0864
54035W        W96947  11.405   4.460  23.394 -0.3571 -0.2047  0.2211
54036W        W96948  14.625   6.258  19.986 -0.1707  0.0122 -0.0281
54037W        W96949  12.312   6.561  22.895 -0.1598  0.4617  0.1576
54038W        W96950  13.678   6.770  19.995 -0.0855 -0.0107 -0.1105
54039W        W96951  14.077   5.690  21.723 -0.1584 -0.1343  0.3444
54040W        W96952  13.816   5.414  20.779 -0.3910  0.2066  0.1615
54041W        W96953  11.850   4.368  24.670  0.0980  0.1600  0.0489
54042W        W96954  12.200   6.194  23.287  0.2669 -0.2324 -0.3259
54043W        W96955  12.143   6.701  22.415 -0.5105  0.1973  0.0566
54044W        W96956  12.624   4.265  21.158  0.0994  0.2596  0.0700
54045W        W96957  14.076   4.238  21.021 -0.0540 -0.1317  0.0283
54046W        W96958  13.239   6.404  20.075  0.1139 -0.2212  0.2125
54047W        W96959  11.221   5.053  21.460  0.0244  0.3266  0.3064
54048W        W96960  13.977   3.726  20.891 -0.1136 -0.2382 -0.0499
54049W        W96961  14.516   4.419  20.899 -0.1229 -0.0873 -0.3580
54050W        W96962  12.510   7.356  21.099 -0.5220  0.1863 -0.0950
54051W        W96963  13.395   6.064  22.539  0.1499 -0.2890  0.1135
54052W        W96964  11.719   4.975  19.427  0.1950 -0.1435  0.0952
54053W        W96965  15.331   5.764  19.850 -0.2737  0.0191  0.0698
54054W        W96966  12.454   6.808  23.856 -0.3885  0.1396  0.1761
54055W        W96967  15.798   6.894  23.351  0.1859  0.1104  0.0320
54056W        W96968  13.071   5.934  22.968  0.1353  0.0729 -0.1806
54057W        W96969  13.722   6.327  22.026 -0.3600  0.0982  0.1996
54058W        W96970  11.138   2.407  22.363 -0.3762 -0.3154 -0.2404
54059W        W96971  12.681   6.750  21.790 -0.1213  0.0692 -0.1441
54060W        W96972  13.454   6.549  20.561  0.1128  0.3079 -0.3391
54061W        W96973  14.087   5.378  22.272 -0.1802 -0.1477  0.0612
54062W        W96974  10.435   4.236  21.749 -0.1861 -0.1106  0.1206
54063W        W96975  13.097   3.682  20.575  0.0576 -0.1878 -0.2282
54064W        W96976  13.295   7.079  23.867  0.0382  0.2376  0.1930
54065W        W96977  12.417   7.270  22.507 -0.0359  0.2044  0.0214
54066W        W96978  12.116   5.785  26.638 -0.2058  0.0740 -0.0018
54067W        W96979  12.681   5.715  24.297  0.0898 -0.2393  0.0162
54068W        W96980  13.901   2.912  23.986  0.0011 -0.0240 -0.0181
54069W        W96981  13.676   5.818  24.345  0.0673 -0.1443  0.0509
54070W        W96982  11.345   5.771  25.914  0.0750  0.0856 -0.1680
54071W        W96983  15.263   6.419  25.829 -0.1509  0.1309 -0.0547
54072W        W96984  12.836   2.697  26.684  0.0434 -0.0596  0.0680
54073W        W96985  14.087   6.230  25.941  0.2293 -0.1817 -0.0988
54074W        W96986  14.770   6.879  26.432 -0.3547  0.1956 -0.1118
54075W        W96987  14.103   4.747  23.546  0.1057  0.2729  0.3359
54076W        W96988  12.551   3.128  25.398 -0.2685 -0.4055 -0.3979
54077W        W96989  13.320   7.322  25.519  0.2314 -0.0425  0.0759
54078W        W96990  13.400   2.855  23.795 -0.2735 -0.0816  0.1027
54079W        W96991  10.527   4.390  24.940 -0.0421  0.2019  0.4199
54080W        W96992  13.715   5.103  25.049 -0.0540  0.1256  0.1505
54081W        W96993  12.390   5.314  23.797 -0.0911  0.0303 -0.1088
54082W        W96994  11.069   4.566  26.459  0.0201 -0.0440  0.0908
54083W        W96995  12.638   4.103  25.018 -0.1231  0.1392  0.0753
54084W        W96996  13.661   6.221  25.700  0.0834  0.1041  0.0170
54085W        W96997  11.168   4.088  27.470  0.1916  0.2206 -0.1294
54086W        W96998  14.024   5.247  25.875  0.0748  0.0474  0.1037
54087W        W96999  13.160   5.912  25.149  0.1255 -0.0620  0.1421
54088W        W97000  10.805   4.936  23.966 -0.2373  0.0721 -0.0796
54089W        W97001  10.238   5.371  26.114 -0.0904  0.3567  0.0938
54090W        W97002  12.766   5.010  25.474 -0.0418  0.0347  0.2255
54091W        W97003  13.642   4.613  25.104  0.0302  0.0944 -0.0218
54092W        W97004  14.852   6.123  23.527 -0.1047 -0.0617 -0.0072
54093W        W97005  13.487   7.794  26.557 -0.3515  0.0638 -0.4088
54094W        W97006  13.489   6.678  24.860 -0.3236 -0.1241  0.0674
54095W        W97007  14.480   5.000  26.441  0.1805 -0.0120  0.1672
54096W        W97008  10.395   4.540  25.547 -0.0874 -0.0503 -0.3608
54097W        W97009  10.958   6.771  25.133  0.0507  0.0641  0.0861
54098W        W97010  12.467   7.018  25.529  0.2275  0.1459 -0.0792
54099W        W97011  13.476   6.865  24.341  0.0695  0.0681  0.0332
54100W        W97012  14.460   5.970  26.289 -0.0002 -0.0969 -0.0288
54101W        W97013  14.485   7.686  27.535 -0.0276  0.0741  0.0757
54102W        W97014  10.840   6.772  24.472  0.2453 -0.1526 -0.1149
54103W        W97015  13.615   7.851  27.134  0.2778 -0.1430 -0.0997
54104W        W97016  11.342   6.617  27.186 -0.1094  0.0096 -0.2524
54105W        W97017  13.386   3.318  26.153  0.2877  0.1932  0.5158
54106W        W97018  13.734   4.292  24.733  0.1430 -0.2786  0.1845
54107W        W97019  11.480   6.328  25.020 -0.1394  0.2491  0.0616
54108W        W97020  13.116   5.408  25.242  0.0507 -0.3899  0.1846
54109W        W97021  13.261   4.614  26.151 -0.0384 -0.0366 -0.2098
54110W        W97022  10.636   6.467  27.435 -0.6040 -0.1824 -0.1354
54111W        W97023  15.032   4.088  27.646  0.0925  0.3110  0.0976
54112W        W97024  10.466   6.547  25.815  0.1539  0.1058  0.0075
54113W        W97025  13.899   3.476  24.090  0.0341 -0.2566  0.3375
54114W        W97026  12.186   4.868  23.747 -0.0000 -0.1350 -0.0897
54115W        W97027  12.684   3.983  22.904 -0.0326 -0.1636 -0.2222
54116W        W97028  11.596   4.964  24.753 -0.1510  0.1184  0.1592
54117W        W97029  12.574   6.528  25.538  0.1316 -0.0784  0.2134
54118W        W97030  12.337   4.659  25.680 -0.0264  0.2747  0.1611
54119W        W97031  13.462   5.902  26.097 -0.0084 -0.0675  0.2806
54120W        W97032  13.930   5.513  24.637  0.0953  0.0022 -0.0834
54121W        W97033  14.482   3.940  25.583  0.2776 -0.2486  0.1733
54122W        W97034  13.296   5.438  25.838 -0.0098 -0.1478 -0.3210
54123W        W97035  10.856   4.411  24.145 -0.0173  0.3413  0.1117
54124W        W97036  14.968   5.251  23.926  0.1124  0.1396 -0.2505
54125W        W97037  13.092   7.288  24.600  0.1083  0.1644  0.1019
54126W        W97038  12.231   7.050  25.065  0.2438 -0.3389  0.0672
54127W        W97039  10.091   5.382  25.609 -0.0110 -0.0200 -0.1309
54128W        W97040  10.156   6.730  26.177  0.1597  0.0111  0.3092
54129W        W97041  12.349   5.277  26.683 -0.1911  0.0954 -0.1853
54130W        W97042  11.269   3.584  22.510 -0.0604  0.3329 -0.4478
54131W        W97043  15.123   4.771  27.829 -0.1897  0.0507  0.4166
54132W        W97044  10.399   7.216  26.946 -0.1769  0.1439 -0.0559
54133W        W97045  13.694   3.844  24.977  0.0895 -0.1173  0.2082
54134W        W97046  12.421   4.301  26.070  0.2259  0.2698 -0.0977
54135W        W97047  14.951   5.786  27.113  0.1859 -0.1024  0.1280
54136W        W97048  15.239   4.849  24.177 -0.0576 -0.4126 -0.0490
54137W        W97049  13.820   2.114  25.532  0.1169  0.0154 -0.0763
54138W        W97050  11.829   4.021  26.185  0.1361  0.2885 -0.0354
54139W        W97051  11.246   6.524  23.383 -0.1217  0.2841  0.1336
54140W        W97052  12.805   5.220  24.378 -0.2366 -0.1000 -0.1516
54141W        W97053  14.971   6.703  26.839  0.0274 -0.0865  0.1808
54142W        W97054  13.744   5.226  23.171 -0.1698 -0.1010 -0.2124
54143W        W97055  11.649   6.279  26.043  0.1692 -0.2399  0.1746
54144W        W97056  12.458   3.805  27.108  0.1939 -0.1424  0.1827
54145W        W97057  12.953   5.125  25.928 -0.1687 -0.0008 -0.1819
54146W        W97058  12.001   6.148  24.943  0.1613 -0.0180  0.1960
54147W        W97059  11.290   4.559  27.715 -0.0754  0.1215  0.0566
54148W        W97060  11.029   6.122  25.172 -0.0921  0.1220 -0.2036
54149W        W97061  11.146   3.032  27.906 -0.1036 -0.0277  0.0719
54150W        W97062  13.678   4.236  26.215 -0.0264  0.2068  0.2241
54151W        W97063  13.106   3.629  24.108 -0.0627  0.1372  0.2079
54152W        W97064  10.485   2.640  27.065  0.1586 -0.1058 -0.0630
54153W        W97065  14.835   3.809  25.365 -0.1648 -0.0531 -0.0403
54154W        W97066  11.732   5.910  24.510  0.0728  0.0391 -0.0835
54155W        W97067  15.117   7.245  24.425  0.1089 -0.1450 -0.0290
54156W        W97068  13.584   4.751  23.446  0.0283 -0.2040  0.0539
54157W        W97069  14.217   5.783  23.793  0.1642  0.4744  0.2199
54158W        W97070  11.547   5.208  27.043  0.0110 -0.0177  0.1771
54159W        W97071  11.873   4.730  25.428  0.0716 -0.3258 -0.2235
54160W        W97072  12.006   3.061  26.179 -0.1365 -0.1677 -0.0656
54161W        W97073  11.362   4.039  25.789  0.4482 -0.1427 -0.0440
54162W        W97074  14.573   5.486  26.802 -0.1063 -0.2795  0.4166
54163W        W97075  10.803   3.826  24.224 -0.1814 -0.2896 -0.0242
54164W        W97076  14.458   3.268  24.545  0.0542  0.0829  0.0166
54165W        W97077  12.368   4.310  24.667 -0.1007  0.1515  0.0945
54166W        W97078  12.369   5.836  24.827  0.1306  0.1447  0.0175
54167W        W97079  15.348   3.281  27.493  0.0809 -0.0380 -0.0461
54168W        W97080  13.150   5.404  23.931 -0.2174  0.0843  0.2203
54169W        W97081  12.849   6.670  26.230  0.1315 -0.1498 -0.1125
54170W        W97082  12.995   6.880  25.535 -0.1387 -0.0315  0.3208
54171W        W97083  11.596   4.292  27.177  0.2094 -0.0121  0.1637
54172W        W97084  11.201   5.613  26.383  0.0307  0.1330 -0.0164
54173W        W97085  11.144   6.485  26.690  0.0352 -0.0584  0.0976
54174W        W97086  14.498   6.178  25.171  0.1723  0.2275 -0.0457
54175W        W97087  12.657   4.249  25.559  0.2916 -0.4061  0.1335
54176W        W97088  13.252   6.950  26.043 -0.1678 -0.2194  0.0760
54177W        W97089  12.788   6.132  24.549  0.2602 -0.1504  0.2705
54178W        W97090  12.094   6.297  26.318 -0.1349 -0.1845  0.1557
54179W        W97091  14.208   5.475  26.382  0.2031  0.1374  0.1527
54180W        W97092  15.348   6.480  25.025 -0.0418  0.1575  0.2540
54181W        W97093  14.360   5.312  24.734  0.0862 -0.0812 -0.0432
54182W        W97094  12.553   4.575  25.197 -0.0151 -0.1060  0.0253
54183W        W97095  13.829   7.724  23.929 -0.2034  0.1139 -0.0641
54184W        W97096  11.274   6.663  24.671  0.2804  0.1148 -0.3536
54185W        W97097  12.143   4.775  25.020 -0.0969 -0.0163 -0.1201
54186W        W97098  12.761   6.056  25.550  0.2611  0.0060  0.2055
54187W        W97099  15.543   5.275  25.741  0.1336  0.0673  0.0920
54188W        W97100  11.100   4.510  27.260  0.1957 -0.0317 -0.0035
54189W        W97101  12.888   2.995  24.850 -0.2730  0.0860  0.6744
54190W        W97102  12.429   5.277  22.853 -0.0268  0.2344  0.1247
54191W        W97103  11.931   6.890  26.611  0.0655 -0.2150 -0.0125
54192W        W97104  14.683   3.409  25.048  0.2607  0.2438  0.0746
54193W        W97105  14.599   4.159  22.875  0.1067  0.1405 -0.0238
54194W        W97106  13.537   4.943  25.926  0.2823  0.1421 -0.1152
54195W        W97107  13.967   6.898  24.520 -0.0940  0.1598 -0.1184
54196W        W97108  13.339   3.983  23.463 -0.0089  0.1092  0.2588
54197W        W97109  11.769   4.809  23.421 -0.2172 -0.2307  0.3879
54198W        W97110  11.627   5.977  27.701 -0.1122 -0.3198  0.0019
54199W        W97111  14.044   6.088  25.424 -0.0766  0.2342  0.0998
54200W        W97112  14.167   5.540  25.161 -0.0836 -0.0052  0.0065
54201W        W97113  14.120   4.584  24.500 -0.1009 -0.0306 -0.0401
54202W        W97114  15.212   7.224  25.433  0.1424  0.0167 -0.0502
54203W        W97115  10.477   6.253  26.942  0.1928  0.2035  0.0035
54204W        W97116  14.761   4.972  27.480 -0.1223  0.1113  0.1562
54205W        W97117  13.020   6.552  24.697  0.2477  0.2552  0.2134
54206W        W97118  12.467   3.646  25.616  0.1666 -0.4606  0.1364
54207W        W97119  12.057   4.978  24.579 -0.0135 -0.1705 -0.0216
54208W        W97120  14.033   3.971  23.805  0.2651 -0.2224 -0.1606
54209W        W97121  11.112   8.269  24.824 -0.3763 -0.2976  0.1336
54210W        W97122  12.979   4.199  26.353 -0.2192  0.2298  0.1485
54211W        W97123  12.926   4.960  24.939 -0.2358 -0.5721  0.1668
54212W        W97124  12.970   2.949  26.210  0.2252 -0.0841 -0.2980
54213W        W97125  13.773   4.456  27.067  0.2361 -0.3651 -0.0077
54214W        W97126  13.924   4.160  24.307 -0.1764 -0.2352 -0.1036
54215W        W97127  13.948   3.689  25.362 -0.0763  0.1464 -0.0192
54216W        W97128  11.661   6.182  23.446 -0.1998  0.1220  0.0232
54217W        W97129  12.770   3.926  25.937 -0.4405  0.1881 -0.0436
54218W        W97130  10.492   5.983  27.491 -0.3656 -0.3966 -0.2062
54219W        W97131  12.543   7.252  27.318 -0.0525  0.0546 -0.0041
54220W        W97132  13.888   4.880  27.841  0.1348  0.2411 -0.0049
54221W        W97133  13.089   3.460  25.776  0.1618  0.0163  0.0299
54222W        W97134  12.134   3.338  25.769  0.0220  0.4513 -0.2389
54223W        W97135  13.122   3.123  23.341  0.1291 -0.2350 -0.1516
54224W        W97136  11.665   7.448  25.824 -0.3135 -0.0801 -0.0926
54225W        W97137  12.652   4.636  23.212 -0.2806 -0.0323  0.0361
54226W        W97138  12.025   4.098  27.242  0.2259  0.0275 -0.2427
54227W        W97139  14.860   6.438  24.253 -0.3786  0.0827  0.0152
54228W        W97140  12.207   7.077  24.356 -0.1698 -0.3590 -0.2993
54229W        W97141  14.451   5.381  25.693  0.1413 -0.1050  0.0717
54230W        W97142  13.168   5.633  24.371 -0.1378 -0.0098  0.1536
54231W        W97143  15.350   3.115  26.053  0.0751 -0.0985 -0.2622
54232W        W97144  11.196   6.167  26.230 -0.1456 -0.0762  0.0411
54233W        W97145  11.484   4.166  24.294  0.2951  0.4249 -0.1109
54234W        W97146  11.348   4.167  24.945  0.0122 -0.0939  0.2029
54235W        W97147  12.397   2.187  24.889 -0.0024  0.4357  0.1920
54236W        W97148  14.404   6.789  24.275  0.2526  0.0362 -0.1634
54237W        W97149  10.917   4.379  25.907 -0.3342 -0.1559 -0.0309
54238W        W97150  13.471   3.510  25.414  0.0688  0.1861 -0.0619
54239W        W97151  11.692   7.669  26.583  0.1441  0.1565  0.1990
54240W        W97152  14.427   5.873  25.700  0.2782  0.1028 -0.0856
54241W        W97153  14.345   3.769  25.050  0.2272  0.1606 -0.0424
54242W        W97154  13.834   4.915  27.224 -0.3208 -0.0449 -0.2011
54243W        W97155  11.539   3.878  28.495 -0.0687 -0.0243 -0.0699
54244W        W97156  12.148   7.039  22.868 -0.1220  0.0900 -0.0858
54245W        W97157  14.200   5.323  27.298  0.0503  0.0212 -0.2591
54246W        W97158  12.039   5.710  24.221  0.0383 -0.0240  0.0391
54247W        W97159  11.443   4.998  25.511 -0.0751 -0.3115 -0.1887
54248W        W97160  13.906   5.950  24.959  0.0778 -0.1959 -0.3704
54249W        W97161  11.336   6.239  23.835  0.2945 -0.0903  0.0848
54250W        W97162  13.094   4.821  24.320 -0.3946 -0.0022 -0.2038
54251W        W97163  11.511   3.661  27.464 -0.0493  0.2958 -0.3445
54252W        W97164  14.118   6.432  26.430  0.2995 -0.1601  0.1740
54253W        W97165  12.849   5.578  24.772  0.0127  0.3140 -0.0308
54254W        W97166  10.569   4.081  25.383 -0.1007 -0.1810 -0.1594
54255W        W97167  13.447   4.711  24.690 -0.1207 -0.3036 -0.2667
54256W        W97168  15.292   6.641  24.538  0.0422 -0.0869 -0.3339
54257W        W97169  13.940   4.813  25.477  0.0923 -0.0965 -0.0405
54258W        W97170  12.485   6.674  26.599 -0.0788  0.0287  0.1528
54259W        W97171  12.523   2.192  25.705 -0.1771 -0.0038 -0.1311
54260W        W97172  14.013   8.055  24.282 -0.1597 -0.2841  0.1445
54261W        W97173  14.412   6.493  25.622  0.0849 -0.0073 -0.3941
54262W        W97174  12.476   6.606  23.374  0.2259  0.0385 -0.1664
54263W        W97175  11.286   5.824  26.834 -0.3407 -0.2641  0.0812
54264W        W97176  12.687   7.370  24.297 -0.2748 -0.0695 -0.3617
54265W        W97177  13.241   4.119  25.875 -0.1102 -0.0894 -0.0492
54266W        W97178  12.457   5.153  27.611 -0.0781 -0.4614 -0.0471
54267W        W97179  10.476   6.024  24.901 -0.1064  0.0823 -0.0666
54268W        W97180  12.088   5.458  25.499  0.1553  0.2611 -0.0625
54269W        W97181  15.402   3.874  25.483  0.1035  0.1623 -0.1449
54270W        W97182  12.618   4.559  23.712 -0.0243  0.2817  0.1902
54271W        W97183  13.446   3.069  24.595 -0.1259 -0.0197  0.2187
54272W        W97184  14.678   5.530  27.429  0.3475  0.0751  0.1393
54273W        W97185  15.324   6.173  23.361  0.0247 -0.1141 -0.4371
54274W        W97186  13.707   3.293  27.287  0.2981 -0.0122  0.4606
54275W        W97187  11.000   4.190  26.744 -0.2652  0.4684  0.2940
54276W        W97188  14.698   6.393  26.544 -0.1634  0.0263  0.0286
54277W        W97189  10.291   3.774  26.265  0.2117  0.0445  0.0659
54278W        W97190  13.429   7.771  28.135 -0.0739  0.1707  0.0857
54279W        W97191  12.152   5.267  29.624 -0.0642  0.1412 -0.0787
54280W        W97192  13.820   3.380  24.972  0.1475 -0.0330 -0.1117
54281W        W97193  12.454   2.747  24.674 -0.0109 -0.0624  0.0070
54282W        W97194  13.575   4.832  26.709  0.2588 -0.0216  0.0308
54283W        W97195  15.207   6.253  26.813 -0.1137 -0.3590  0.2535
54284W        W97196  13.839   4.761  24.076  0.1704 -0.1149  0.1588
54285W        W97197  14.751   4.709  25.273  0.0952 -0.2211  0.2994
54286W        W97198  11.461   6.647  26.330  0.1812  0.0222 -0.0673
54287W        W97199  13.519   3.954  23.951  0.0408  0.0400  0.0594
54288W        W97200  12.601   4.041  24.244 -0.0526  0.2155  0.3212
54289W        W97201  11.827   5.842  25.835  0.0389  0.0473  0.0291
54290W        W97202  11.418   3.376  27.027  0.1820  0.0943  0.2640
54291W        W97203  12.968   4.632  25.757  0.2071  0.0697 -0.0144
54292W        W97204  13.439   3.823  26.300  0.0091  0.1460  0.1898
54293W        W97205  13.670   3.144  25.649  0.4496 -0.0908 -0.0587
54294W        W97206  14.121   5.141  26.833 -0.3160  0.1953 -0.1767
54295W        W97207  13.822   5.408  27.715 -0.1444 -0.0052 -0.1718
54296W        W97208  10.495   3.098  26.706  0.1383 -0.1755 -0.1019
54297W        W97209  14.786   6.725  27.393 -0.2069 -0.3864 -0.0486
54298W        W97210  14.911   3.464  25.737 -0.1344 -0.0198  0.2970
54299W        W97211  14.252   3.695  26.669 -0.2832 -0.3184  0.0212
54300W        W97212  15.835   5.866  24.526  0.0904  0.3315  0.0305
54301W        W97213  15.145   4.339  25.151  0.0783  0.0443  0.0271
54302W        W97214  12.212   5.930  25.315 -0.1007  0.1593 -0.2332
54303W        W97215  13.900   5.748  25.815  0.2361  0.2762  0.1221
54304W        W97216  10.627   5.051  23.336 -0.1596  0.3781  0.0358
54305W        W97217  14.459   3.797  26.049 -0.3157 -0.4574 -0.0980
54306W        W97218  13.004   7.552  23.935 -0.1283 -0.1353  0.1434
54307W        W97219  12.834   5.885  26.044 -0.1342 -0.2360 -0.1207
54308W        W97220  13.536   4.037  25.378 -0.3360 -0.2689  0.1992
54309W        W97221  10.009   4.234  25.400  0.2028  0.0757  0.0345
54310W        W97222  11.353   7.041  27.381  0.0207 -0.1550 -0.2138
54311W        W97223  12.338   5.651  22.482 -0.3559 -0.1023  0.1812
54312W        W97224  12.114   5.908  23.777  0.1886 -0.1125  0.0026
54313W        W97225  15.216   6.090  24.637 -0.1007  0.0703 -0.0811
54314W        W97226  13.721   5.871  27.876 -0.0316 -0.0639  0.1436
54315W        W97227  13.265   2.310  24.313 -0.2879 -0.1172 -0.1368
54316W        W97228  13.945   3.796  26.259 -0.2941  0.1709 -0.2808
54317W        W97229  11.282   6.135  25.615 -0.0099 -0.1877  0.0160
54318W        W97230  14.029   3.516  25.827 -0.2226 -0.1401 -0.1733
54319W        W97231  12.779   7.097  25.930  0.3035  0.1631 -0.0627
54320W        W97232  10.484   6.541  26.512  0.1018 -0.3576  0.3334
54321W        W97233  13.027   6.411  25.819 -0.2503  0.0618  0.3691
54322W        W97234  12.313   2.817  25.772 -0.2188  0.1429 -0.0814
54323W        W97235  14.884   4.400  25.640  0.3521  0.1624  0.3508
54324W        W97236  13.839   5.007  24.527  0.1036 -0.0613 -0.2518
54325W        W97237  14.312   5.040  25.235  0.0305  0.4513 -0.1113
54326W        W97238  13.321   5.693  26.650 -0.2014  0.1773 -0.2372
54327W        W97239  12.210   5.030  26.237  0.2143  0.3229  0.0134
54328W        W97240  15.157   5.591  25.876  0.0976 -0.0828  0.2212
54329W        W97241  15.175   6.974  24.923 -0.1462  0.0169 -0.2968
54330W        W97242  12.347   5.774  25.813 -0.0326 -0.1831  0.2883
54331W        W97243  11.166   4.852  25.975  0.3171  0.0061 -0.0225
54332W        W97244  13.123   5.248  26.888  0.2725  0.2716  0.2536
54333W        W97245  14.601   4.501  24.622 -0.1098  0.2232 -0.0051
54334W        W97246  12.037   2.543  24.966  0.3456  0.1193  0.2202
54335W        W97247  12.620   6.223  25.051 -0.0178  0.1708  0.1274
54336W        W97248  11.116   6.073  27.585  0.0294  0.3180  0.0912
54337W        W97249  11.600   5.445  25.518 -0.0738 -0.0168  0.0034
54338W        W97250  11.429   8.900  26.258 -0.1495  0.1995  0.0180
54339W        W97251  14.378   6.670  25.110 -0.0926  0.0481  0.1810
54340W        W97252  12.990   5.979  24.002 -0.0657 -0.2511  0.1502
54341W        W97253  13.844   5.854  26.447 -0.1461 -0.2902  0.0476
54342W        W97254  12.899   3.152  23.835  0.1045  0.0928  0.1242
54343W        W97255  12.255   6.127  24.471  0.0144 -0.0513 -0.1047
54344W        W97256  10.436   6.368  24.442 -0.3336 -0.1706 -0.0284
54345W        W97257  13.938   5.427  24.170 -0.1580 -0.0597 -0.1685
54346W        W97258  10.940   6.606  26.257  0.3238 -0.0322  0.0924
54347W        W97259  14.644   4.476  27.199 -0.3597  0.1548  0.0540
54348W        W97260  13.396   4.569  20.825  0.0831 -0.0385  0.0760
54349W        W97261  15.296   5.913  25.372 -0.3027  0.5494  0.4341
54350W        W97262  16.190   3.999  25.846  0.1223  0.0873 -0.0326
54351W        W97263  14.077   7.340  27.544 -0.0270 -0.0785 -0.0635
54352W        W97264  13.216   5.068  26.369  0.3201  0.0183  0.1027
54353W        W97265  12.591   3.053  24.268  0.3899  0.2904 -0.0765
54354W        W97266  12.429   4.305  26.864  0.2567 -0.5633 -0.0853
54355W        W97267  15.790   4.599  26.771  0.0511  0.0460 -0.0024
54356W        W97268  10.367   7.480  25.518  0.2869 -0.2021  0.1662
54357W        W97269  14.473   7.190  23.895 -0.2576  0.2497  0.0627
54358W        W97270  12.341   5.376  24.445  0.0248 -0.2839  0.0565
54359W        W97271  12.278   5.045  25.393  0.1786  0.1714  0.1969
54360W        W97272  14.454   3.311  26.016  0.2329 -0.4037 -0.0023
54361W        W97273  12.215   4.526  23.433  0.0003 -0.2411  0.0774
54362W        W97274  13.305   4.147  24.945 -0.0376 -0.0983  0.0520
54363W        W97275  12.122   7.381  25.452  0.0034 -0.1034 -0.2185
54364W        W97276  13.453   5.656  24.849  0.0621  0.0758  0.1623
54365W        W97277  13.619   5.742  25.295  0.0536  0.0298 -0.1856
54366W        W97278  11.426   5.382  25.017 -0.0666 -0.1751 -0.0249
54367W        W97279  15.619   5.672  24.075 -0.3398  0.5565 -0.1877
54368W        W97280  11.940   4.598  26.013  0.2927 -0.0608  0.0700
54369W        W97281  14.290   4.131  26.375 -0.0104 -0.0179 -0.1073
54370W        W97282  13.503   5.222  24.215 -0.1923  0.2163 -0.1272
54371W        W97283  15.402   3.745  24.452  0.1365 -0.0058  0.3122
54372W        W97284  14.837   6.486  24.939  0.0174 -0.2118 -0.2312
54373W        W97285  12.722   5.184  26.390  0.0065 -0.0357 -0.2266
54374W        W97286  13.026   4.551  25.257  0.0794 -0.0205  0.0457
54375W        W97287  14.416   5.868  27.173  0.0579  0.0704  0.3600
54376W        W97288  12.900   4.376  24.664 -0.0379 -0.0966 -0.0589
54377W        W97289  13.210   5.839  28.103  0.0113  0.0684  0.1360
54378W        W97290  12.121   4.308  25.122  0.0218 -0.0470 -0.3904
54379W        W97291  13.177   3.568  23.626 -0.3795 -0.1200 -0.3150
54380W        W97292  10.826   6.247  25.832  0.4149 -0.0445 -0.1710
54381W        W97293  13.067   5.511  26.289 -0.1231  0.3066  0.0107
54382W        W97294  12.800   5.582  26.759 -0.1794 -0.0429  0.1882
54383W        W97295  11.563   4.246  26.638 -0.1375 -0.2472 -0.1964
54384W        W97296  13.551   5.776  23.054  0.0086 -0.4799 -0.1335
54385W        W97297  13.614   5.440  26.231 -0.1131 -0.1719  0.1675
54386W        W97298  13.449   6.333  23.084 -0.1576 -0.4282  0.0619
54387W        W97299  14.327   6.317  23.948 -0.0208  0.2454 -0.2200
54388W        W97300  13.293   7.975  25.074  0.1114  0.0379  0.2031
54389W        W97301  10.224   3.742  24.598  0.0115 -0.3521  0.0094
54390W        W97302  14.895   6.038  25.720  0.1890 -0.0823  0.2610
54391W        W97303  14.312   6.088  26.713  0.2257 -0.1047 -0.3878
54392W        W97304  13.074   3.311  24.463  0.2665 -0.1648  0.2219
54393W        W97305  11.856   5.142  25.172  0.0960 -0.3779  0.0108
54394W        W97306  11.383   6.680  25.850 -0.0208 -0.0980  0.2703
54395W        W97307  14.302   3.351  25.431 -0.1800 -0.1195 -0.0931
54396W        W97308  11.385   3.685  26.507  0.1007 -0.0090 -0.3267
54397W        W97309  11.139   6.015  23.297  0.2257 -0.0111  0.0996
54398W        W97310  12.835   3.640  24.996 -0.1165 -0.1700 -0.0936
54399W        W97311  13.530   6.220  25.209 -0.1073 -0.0903  0.1059
54400W        W97312  13.715   8.360  27.257  0.2880  0.1235  0.1437
54401W        W97313  11.571   5.536  24.119  0.1980  0.3841 -0.2061
54402W        W97314  12.405   4.806  26.717  0.0487 -0.0778  0.0779
54403W        W97315  13.667   5.282  25.559 -0.1296 -0.0185  0.0360
54404W        W97316  13.343   6.164  24.707  0.0112  0.3459  0.2560
54405W        W97317  16.033   7.342  23.839  0.0147 -0.1823 -0.1273
54406W        W97318  13.508   4.488  25.618  0.0562  0.0169  0.0012
54407W        W97319  15.509   6.769  23.871  0.3095  0.0825  0.0113
54408W        W97320  13.971   4.143  25.784  0.0439  0.0034 -0.1422
54409W        W97321  14.625   4.212  25.036  0.1683 -0.0808  0.1520
54410W        W97322  14.879   3.097  25.375  0.1955  0.0345  0.0429
54411W        W97323  11.892   5.529  27.670 -0.0778  0.0513 -0.1095
54412W        W97324  11.882   5.365  23.622  0.0253  0.0848  0.0909
54413W        W97325  11.746   6.480  24.564 -0.2606 -0.1573 -0.0299
54414W        W97326  13.327   4.964  25.422  0.1731  0.0438  0.0964
54415W        W97327  14.566   2.945  25.715 -0.0868 -0.0521 -0.1655
54416W        W97328  10.691   3.760  26.635 -0.0106 -0.2504 -0.0983
54417W        W97329  11.228   5.010  26.474  0.3990 -0.1915 -0.1527
54418W        W97330  13.035   3.903  25.390 -0.4215 -0.2672 -0.1148
54419W        W97331  14.425   5.847  23.326 -0.1132 -0.2584  0.0392
54420W        W97332   9.662   3.986  26.593  0.1837 -0.1120  0.0563
54421W        W97333  11.419   4.374  26.141 -0.1205 -0.2709  0.1674
54422W        W97334  12.687   7.045  24.725 -0.0883  0.2237  0.0046
54423W        W97335  14.445   6.332  24.589  0.0485 -0.2326 -0.1949
54424W        W97336  12.617   3.567  24.454  0.0410  0.1364  0.0372
54425W        W97337  14.864   7.072  29.746  0.1179  0.2244 -0.1852
54426W        W97338  12.505   6.279  24.015 -0.0116 -0.1437  0.1616
54427W        W97339  13.463   5.212  27.443  0.0256 -0.2212 -0.0746
54428W        W97340  11.936   5.074  26.762 -0.1809 -0.1909 -0.3103
54429W        W97341   9.239   3.714  25.359 -0.0734 -0.1504  0.1565
54430W        W97342  12.212   3.808  24.811  0.0363 -0.2111  0.0290
54431W        W97343  12.386   7.325  23.911  0.0905 -0.0777  0.2070
54432W        W97344  14.056   7.258  24.908 -0.2079  0.0545 -0.1541
54433W        W97345  12.466   5.523  27.200  0.2164  0.0349  0.1062
54434W        W97346  13.040   6.373  25.255  0.1319  0.0567 -0.0876
54435W        W97347  10.071   4.522  26.392  0.2390  0.2544  0.2798
54436W        W97348  15.500   5.262  24.396  0.0114  0.1425 -0.1562
54437W        W97349  11.761   6.596  26.961  0.1518 -0.0781  0.1429
54438W        W97350  14.723   4.326  23.997 -0.1861 -0.3900 -0.1863
54439W        W97351  15.364   5.072  24.912 -0.2934 -0.2043 -0.1129
54440W        W97352  14.368   4.476  25.513 -0.2492  0.1694 -0.1373
54441W        W97353  11.124   2.590  27.215  0.2924 -0.0578 -0.0061
54442W        W97354  10.398   7.710  26.816 -0.4240  0.0279  0.0611
54443W        W97355  14.704   6.331  27.078  0.0193 -0.0667  0.1768
54444W        W97356  11.658   4.781  26.399  0.1870 -0.0609  0.1120
54445W        W97357  12.155   3.337  22.700 -0.2277 -0.0800 -0.1484
54446W        W97358  13.365   7.489  25.042  0.2474 -0.1152 -0.1323
54447W        W97359  12.487   5.627  26.341 -0.1990 -0.0203 -0.0088
54448W        W97360  12.066   4.233  24.201  0.1220  0.0568 -0.0061
54449W        W97361  12.886   4.761  26.618  0.0898  0.2441 -0.2101
54450W        W97362  14.927   5.962  25.033  0.3792 -0.0404 -0.4000
54451W        W97363  14.081   5.621  26.819 -0.3708  0.1974 -0.1498
54452W        W97364  12.127   6.468  23.701 -0.0153  0.0142 -0.1171
54453W        W97365  14.196   5.934  24.334  0.0162  0.0376 -0.0130
54454W        W97366  14.049   7.614  27.136  0.0672  0.0639  0.1452
54455W        W97367  13.764   5.754  28.370  0.2808 -0.1017 -0.1945
54456W        W97368  12.327   7.025  26.945  0.2292  0.4591  0.0249
54457W        W97369  14.795   5.350  26.270  0.1118  0.1262  0.0500
54458W        W97370  11.843   3.754  25.778 -0.0565  0.1775 -0.0285
54459W        W97371  11.371   6.580  24.238 -0.1340  0.0180 -0.1668
54460W        W97372  12.557   5.544  25.227 -0.2126 -0.0783  0.1730
54461W        W97373  14.970   5.170  25.638 -0.1297 -0.0770 -0.0303
54462W        W97374  12.439   5.224  25.804 -0.2588 -0.0839  0.0013
54463W        W97375  13.649   2.533  25.186  0.0500  0.1427  0.0822
54464W        W97376  13.404   7.403  26.880  0.2031 -0.2686  0.1721
54465W        W97377  13.871   4.984  26.300  0.0826 -0.0574  0.4679
54466W        W97378  12.390   6.285  30.708 -0.2749 -0.2791 -0.3212
54467W        W97379  11.797   2.988  28.190  0.2226  0.0529  0.3622
54468W        W97380  14.155   4.247  27.334  0.0202 -0.0382 -0.0878
54469W        W97381  13.567   5.321  28.178 -0.0110 -0.1858 -0.0806
54470W        W97382  11.480   3.306  29.036 -0.3571 -0.2645 -0.0903
54471W        W97383  13.194   5.952  28.564  0.2377  0.1196 -0.0160
54472W        W97384  12.512   4.181  31.178 -0.0856 -0.0823  0.0819
54473W        W97385  12.293   5.624  29.310 -0.0401 -0.0059  0.2031
54474W        W97386  13.074   6.399  28.755 -0.2029 -0.0138  0.0516
54475W        W97387  13.933   6.209  27.534  0.0629  0.2432 -0.0692
54476W        W97388  12.038   4.625  31.178 -0.0662 -0.0498  0.0067
54477W        W97389  13.230   6.361  31.134 -0.4808 -0.2835  0.0472
54478W        W97390  10.768   2.838  27.484 -0.0245  0.0791  0.1429
54479W        W97391  11.396   3.309  30.103  0.1319 -0.1612  0.0656
54480W        W97392  12.600   5.194  30.553 -0.4010  0.0822 -0.0460
54481W        W97393  11.871   5.124  30.004  0.4107 -0.0756  0.1010
54482W        W97394  12.209   5.577  30.099 -0.4137  0.1063 -0.3125
54483W        W97395  12.455   3.389  28.581  0.0619 -0.2463  0.2644
54484W        W97396  12.104   6.466  29.235 -0.1556  0.4042  0.1525
54485W        W97397  12.405   3.774  30.907  0.3398 -0.2811 -0.2770
54486W        W97398  13.674   3.793  30.863 -0.0812 -0.0454 -0.4522
54487W        W97399  12.350   6.888  27.714 -0.4139 -0.0525  0.1240
54488W        W97400  12.093   3.397  28.161 -0.0669 -0.3464 -0.3401
54489W        W97401   9.329   5.118  29.797 -0.0652  0.1008  0.2386
54490W        W97402  12.556   6.077  31.205  0.1531  0.2135  0.0649
54491W        W97403  13.894   5.163  29.161  0.0510  0.0289  0.0081
54492W        W97404  13.899   6.805  29.945 -0.0633  0.0230 -0.2941
54493W        W97405  11.962   6.929  29.966 -0.0587  0.0165  0.0494
54494W        W97406  13.205   6.025  29.066  0.2501  0.1936 -0.1391
54495W        W97407  13.678   5.296  31.181 -0.0572 -0.0294  0.2144
54496W        W97408  11.727   4.459  28.484 -0.0407  0.2221 -0.0663
54497W        W97409  11.741   6.771  28.835 -0.1667  0.2854  0.1575
54498W        W97410  12.833   7.029  29.478 -0.1038 -0.2134  0.2246
54499W        W97411  15.067   6.161  28.084  0.1542  0.1621  0.3147
54500W        W97412  13.613   7.084  28.907  0.0134  0.1100  0.0421
54501W        W97413  11.234   6.427  30.833 -0.1714  0.2359 -0.0449
54502W        W97414  11.276   7.890  27.661 -0.0232  0.1372  0.4610
54503W        W97415  13.108   7.489  29.473 -0.2704  0.1480 -0.2760
54504W        W97416  11.328   7.102  30.881  0.2564  0.0958 -0.0266
54505W        W97417  12.765   4.561  29.920 -0.0848 -0.3943  0.3181
54506W        W97418  12.563   4.760  28.925 -0.0030 -0.1202  0.3886
54507W        W97419  11.961   5.583  27.073  0.0883  0.4041 -0.1121
54508W        W97420  12.822   5.760  28.841 -0.1229  0.2320  0.1309
54509W        W97421  13.178   6.841  30.893 -0.1407  0.3593 -0.2682
54510W        W97422  12.133   5.945  29.765 -0.0573  0.1403 -0.1855
54511W        W97423  15.624   2.969  31.475 -0.0847  0.2069 -0.5540
54512W        W97424  11.798   6.840  27.495  0.0454  0.1459  0.3688
54513W        W97425  14.870   4.725  26.258  0.1577  0.0492  0.0557
54514W        W97426  11.539   3.852  26.975 -0.0251 -0.1887 -0.2181
54515W        W97427  13.718   4.047  27.555 -0.4562  0.3017  0.0006
54516W        W97428  12.444   4.071  28.590  0.4413 -0.1438 -0.4066
54517W        W97429  11.885   6.921  29.448 -0.1910 -0.1484 -0.0816
54518W        W97430  11.577   4.408  30.216  0.1091 -0.2217  0.0590
54519W        W97431  13.812   6.057  29.205  0.0469  0.0158  0.2430
54520W        W97432  12.650   5.053  27.048 -0.0525  0.1140  0.1779
54521W        W97433  13.781   5.296  30.641 -0.0616 -0.0645 -0.2228
54522W        W97434  11.279   7.475  31.596 -0.1772 -0.1562 -0.0434
54523W        W97435  10.673   4.712  29.407  0.5219  0.1449 -0.0114
54524W        W97436  14.756   6.280  29.494 -0.4533  0.1723  0.1526
54525W        W97437  15.103   8.218  29.037 -0.1461 -0.0188  0.1472
54526W        W97438  12.856   7.563  28.340  0.2124 -0.3755 -0.0673
54527W        W97439  11.626   5.006  28.366  0.0116 -0.1900  0.2848
54528W        W97440  10.876   7.208  29.987 -0.0970  0.2073  0.1351
54529W        W97441  11.988   5.138  31.509 -0.1554 -0.0920  0.1859
54530W        W97442  13.251   2.526  26.015 -0.0469  0.1785  0.0639
54531W        W97443  14.297   6.276  30.093  0.3973  0.1819 -0.0595
54532W        W97444  11.025   5.714  30.891 -0.3211  0.1708 -0.3175
54533W        W97445  12.896   4.169  29.052 -0.1995  0.0251 -0.0316
54534W        W97446  11.102   5.958  28.724  0.3055 -0.3189  0.4097
54535W        W97447  14.013   7.307  29.826  0.4250 -0.3392 -0.1761
54536W        W97448  16.075   6.139  27.722 -0.3756  0.3015 -0.0770
54537W        W97449  14.406   3.565  29.137  0.1918 -0.3204  0.0479
54538W        W97450  13.303   3.957  30.100  0.1198  0.0720 -0.0482
54539W        W97451  12.135   6.224  26.902 -0.0784 -0.3350  0.0288
54540W        W97452  12.589   4.261  27.307  0.1574  0.2180  0.1324
54541W        W97453  14.021   6.440  30.467  0.4450 -0.3335  0.2716
54542W        W97454  12.928   5.471  27.248 -0.0127 -0.0430  0.2049
54543W        W97455  12.839   8.542  29.299  0.0976  0.1790  0.0288
54544W        W97456  12.314   3.405  31.904  0.1802  0.0822  0.0676
54545W        W97457  12.760   6.171  30.364  0.0141 -0.1989 -0.3213
54546W        W97458  11.109   7.584  25.921 -0.1442  0.1669 -0.3110
54547W        W97459  10.210   5.500  29.864  0.1039 -0.0003 -0.0161
54548W        W97460  11.928   4.983  27.721  0.1313 -0.2571  0.3411
54549W        W97461  10.512   3.785  28.434 -0.1259 -0.0511 -0.0287
54550W        W97462  12.984   5.339  29.598 -0.0743 -0.1982 -0.0259
54551W        W97463  13.717   3.660  30.153  0.3036 -0.0419 -0.2071
54552W        W97464  11.182   2.798  30.916  0.2234 -0.0376 -0.0245
54553W        W97465  13.873   2.117  28.207  0.0604 -0.0403  0.1492
54554W        W97466  11.200   4.804  28.168  0.1344  0.1413  0.0969
54555W        W97467  14.607   7.068  28.410 -0.1715  0.2347  0.0186
54556W        W97468  14.694   3.933  26.603 -0.1858  0.2394 -0.2819
54557W        W97469  13.653   5.946  26.941 -0.0258 -0.2647  0.1946
54558W        W97470  10.795   4.460  30.232  0.2451 -0.1751 -0.0605
54559W        W97471  11.605   2.564  29.095  0.1694 -0.1485 -0.2909
54560W        W97472  13.373   4.151  30.604 -0.1278  0.0989  0.1915
54561W        W97473  11.051   4.388  31.203  0.3554  0.0841  0.1758
54562W        W97474  14.933   5.181  31.968  0.3548 -0.0096  0.0512
54563W        W97475  13.385   3.006  28.263 -0.3003 -0.0505 -0.0727
54564W        W97476  12.862   5.602  27.750 -0.0463  0.3137  0.1239
54565W        W97477  12.583   4.979  29.639  0.0053  0.3950  0.0654
54566W        W97478  11.884   5.322  29.046 -0.1177  0.1489 -0.1132
54567W        W97479  14.580   5.234  31.625 -0.3851 -0.1074  0.2860
54568W        W97480  12.734   6.740  27.136 -0.0066  0.1007 -0.3166
54569W        W97481  14.756   5.962  29.950 -0.1643  0.0214 -0.0142
54570W        W97482  13.264   7.290  27.989 -0.0875  0.0096 -0.0399
54571W        W97483  11.931   3.656  31.523  0.0596  0.1940  0.0261
54572W        W97484  10.310   4.155  28.838 -0.1235 -0.1777  0.1796
54573W        W97485  11.920   5.395  28.533  0.1504  0.1210 -0.2678
54574W        W97486  12.680   6.290  29.088  0.1147 -0.0490  0.3891
54575W        W97487  12.493   3.589  27.687 -0.1623  0.2410 -0.1754
54576W        W97488  15.093   5.906  29.268  0.0199 -0.0335 -0.1674
54577W        W97489  12.564   5.135  28.481  0.3726 -0.1662  0.4686
54578W        W97490  11.268   6.328  29.635 -0.2036  0.4198 -0.1841
54579W        W97491  13.294   3.619  30.533 -0.3330 -0.0816  0.0986
54580W        W97492  13.921   4.200  30.719  0.1613 -0.3106 -0.2539
54581W        W97493  13.864   5.030  29.714  0.3662  0.0837 -0.0052
54582W        W97494  12.513   3.233  27.259  0.0050  0.2625  0.2926
54583W        W97495  15.661   7.566  28.194  0.1509 -0.3679 -0.1499
54584W        W97496  11.575   5.767  29.078 -0.1599  0.2372 -0.1363
54585W        W97497  12.314   5.969  28.954 -0.0180 -0.2344  0.0722
54586W        W97498  12.543   7.274  28.848 -0.2885 -0.0971 -0.2586
54587W        W97499  14.121   4.495  29.141 -0.1434 -0.0334  0.1323
54588W        W97500  12.257   4.591  29.614  0.0561  0.0514 -0.1066
54589W        W97501  14.201   4.387  31.442  0.1214  0.2774 -0.0780
54590W        W97502  11.680   4.596  27.983 -0.2391 -0.1687  0.1573
54591W        W97503  10.943   8.894  30.161  0.0292 -0.1201  0.2298
54592W        W97504  14.004   3.964  29.890  0.2186  0.0999 -0.0523
54593W        W97505  14.369   5.201  27.778  0.0292 -0.0349  0.0168
54594W        W97506  12.494   5.086  31.448  0.2146  0.0429  0.2777
54595W        W97507  12.183   6.208  28.355 -0.0372 -0.0440  0.0694
54596W        W97508  12.475   3.923  26.479  0.2411  0.1468 -0.0944
54597W        W97509  12.378   4.065  27.790  0.0372  0.2256  0.2741
54598W        W97510  12.034   6.168  31.097 -0.3684 -0.1557  0.3252
54599W        W97511  13.437   6.732  28.566  0.0665  0.1807 -0.1603
54600W        W97512  13.060   5.828  29.860 -0.4013  0.0893 -0.1983
54601W        W97513  12.130   4.983  28.628 -0.0532 -0.0867  0.0213
54602W        W97514  15.566   5.918  28.993  0.2645 -0.1426 -0.1119
54603W        W97515  11.269   6.366  30.161  0.4136  0.0044 -0.0569
54604W        W97516  12.963   6.611  30.425 -0.0148 -0.1761 -0.1292
54605W        W97517  12.637   6.193  28.525 -0.2754 -0.4331 -0.0182
54606W        W97518  11.449   4.862  30.103  0.0156 -0.0900  0.2770
54607W        W97519  11.982   4.465  27.571  0.1512  0.1442  0.1276
54608W        W97520  11.619   3.781  28.977 -0.2780 -0.2519 -0.0493
54609W        W97521  11.094   7.495  27.375  0.1567 -0.0890 -0.1587
54610W        W97522  13.557   4.288  29.793  0.0139  0.1527 -0.0933
54611W        W97523  12.190   4.939  29.204  0.4117 -0.0656  0.0860
54612W        W97524  11.270   4.661   0.388 -0.1803  0.1651  0.1301
54613W        W97525  14.401   5.072   0.101 -0.0598  0.1611 -0.0695
54614W        W97526  13.148   6.462  27.383  0.2920  0.0793 -0.0512
54615W        W97527  12.934   4.099  29.773 -0.2273 -0.3426  0.0269
54616W        W97528  11.577   3.286  27.851  0.3127 -0.2586  0.2226
54617W        W97529  12.886   3.664  30.866  0.1361 -0.1652 -0.0074
54618W        W97530  13.150   6.199   0.467  0.0586  0.2711  0.1192
54619W        W97531  11.421   8.118  29.342 -0.2123 -0.0842 -0.1571
54620W        W97532  13.566   5.748  30.644 -0.0023  0.1744  0.0209
54621W        W97533  11.951   6.601  27.933 -0.6119 -0.4003  0.1168
54622W        W97534  14.301   3.961   0.646 -0.0641 -0.2669  0.1479
54623W        W97535  13.340   3.036  27.647 -0.0013  0.1333 -0.2571
54624W        W97536  12.035   7.279  27.543  0.2155  0.2029  0.0231
54625W        W97537  12.625   4.788  26.127 -0.0459 -0.0516  0.1081
54626W        W97538  12.027   3.437  31.042 -0.0054  0.2613  0.3345
54627W        W97539  12.618   5.730  30.457  0.0375  0.1856  0.2291
54628W        W97540  11.479   6.153  27.163 -0.1064 -0.0962  0.3992
54629W        W97541  14.714   4.835   0.743 -0.1030  0.3624 -0.1967
54630W        W97542  12.157   7.562  29.030  0.5413 -0.1755 -0.0355
54631W        W97543  13.784   3.310  29.764  0.2370  0.4751  0.1545
54632W        W97544  11.558   6.028  30.506  0.1233  0.1135 -0.0324
54633W        W97545  11.073   4.910  29.079 -0.4314 -0.0285  0.1264
54634W        W97546  11.253   4.882  29.604  0.3638 -0.0059 -0.0708
54635W        W97547  12.800   5.639  28.287  0.2003  0.0287 -0.0769
54636W        W97548  12.642   6.039  27.986 -0.2361  0.1193 -0.0820
54637W        W97549  11.932   3.766  30.611  0.4082  0.1070  0.1539
54638W        W97550  13.356   4.218  28.466 -0.2047  0.0846 -0.0845
54639W        W97551   9.859   5.866  30.240 -0.1175  0.0118  0.1043
54640W        W97552  12.365   3.996  30.110 -0.0288 -0.0716 -0.2741
54641W        W97553  12.900   3.885  27.351  0.2806 -0.0297 -0.0177
54642W        W97554  12.582   5.508  29.751  0.2681 -0.3414 -0.3379
54643W        W97555  13.355   5.739  31.100  0.1593 -0.1800  0.1166
54644W        W97556  12.115   3.247  27.676  0.2825 -0.0526 -0.0195
54645W        W97557  14.648   4.278  31.355 -0.1869 -0.0673  0.1005
54646W        W97558  11.614   5.040  30.506 -0.4120  0.1074 -0.0501
54647W        W97559  11.749   6.318  28.681 -0.0759  0.0914  0.1425
54648W        W97560  13.007   6.757  29.936 -0.1095  0.1336  0.1229
54649W        W97561  13.240   3.579  27.112  0.0380  0.2475  0.4121
54650W        W97562  11.120   5.554  28.406 -0.1119 -0.0173  0.0932
54651W        W97563  11.315   3.979  30.982  0.0335  0.0640 -0.0693
54652W        W97564  13.457   5.447  29.864  0.0588 -0.2777  0.0893
54653W        W97565  10.463   5.180  30.137  0.2410  0.1473  0.1779
54654W        W97566  11.845   4.599  29.282  0.1526 -0.1405 -0.0588
54655W        W97567  13.540   4.668  27.503  0.0501 -0.1119 -0.2595
54656W        W97568  11.924   4.164  29.814 -0.0929  0.0780 -0.0136
54657W        W97569  12.227   5.218  28.084 -0.2386 -0.1509 -0.0920
54658W        W97570  11.283   5.338  29.973 -0.0380  0.2762 -0.3871
54659W        W97571  12.948   3.730  29.472  0.1496  0.2208 -0.1034
54660W        W97572  14.776   7.360  29.272  0.1073 -0.0831  0.0403
54661W        W97573  13.712   4.870  30.911  0.1694  0.3457 -0.0757
54662W        W97574  11.971   5.771  28.110 -0.0456 -0.0660  0.0689
54663W        W97575  10.265   5.964  29.665 -0.1449 -0.0862 -0.1720
54664W        W97576  12.138   4.680  28.157 -0.2022 -0.0964  0.1243
54665W        W97577  12.908   4.414  28.603 -0.1384  0.1602  0.0945
54666W        W97578  11.691   6.246  28.138  0.1166  0.0897  0.1377
54667W        W97579  11.593   5.410  28.113  0.3737 -0.0674 -0.0777
54668W        W97580  11.437   5.508  30.640  0.2357  0.1625 -0.1282
54669W        W97581  14.185   4.641  26.995  0.2101  0.2238 -0.0888
54670W        W97582  13.298   5.709  29.393 -0.0106 -0.1452 -0.1776
54671W        W97583  12.017   4.095  28.094  0.0155 -0.0345  0.1608
54672W        W97584  15.180   4.697  30.867 -0.0575  0.3886  0.4510
54673W        W97585  12.528   6.259  25.996 -0.0881 -0.0089 -0.2604
54674W        W97586  14.660   3.305  31.010 -0.5622 -0.1073 -0.3084
54675W        W97587  11.664   4.258  30.765 -0.0257  0.0398 -0.1599
54676W        W97588  12.502   6.550  30.121  0.1784 -0.1071  0.0259
54677W        W97589  10.364   5.363  31.230 -0.0050 -0.3177  0.1818
54678W        W97590  12.174   8.512  31.157  0.0008 -0.2094  0.0666
54679W        W97591  11.695   5.098  31.081  0.4099 -0.0651  0.1859
54680W        W97592  12.212   3.714  26.105 -0.2810  0.1447 -0.0732
54681W        W97593  12.393   2.939  26.861 -0.1149 -0.2014 -0.1030
54682W        W97594  10.969   6.687  29.849  0.2557 -0.2692 -0.1148
54683W        W97595  13.563   4.846  28.422 -0.2350 -0.4276  0.0791
54684W        W97596  14.420   6.729  26.811 -0.0048  0.1648 -0.1255
54685W        W97597  13.624   6.204  28.770 -0.0269 -0.1546  0.0345
54686W        W97598  11.012   4.949  30.443 -0.1306  0.2000  0.0850
54687W        W97599  13.916   5.271  28.554  0.2481 -0.1565 -0.2428
54688W        W97600  13.566   4.498  28.055  0.2272  0.1343 -0.0608
54689W        W97601  13.096   5.428  29.085  0.0176 -0.1150 -0.0683
54690W        W97602  14.367   3.801  31.592  0.0343 -0.1386  0.1286
54691W        W97603  13.197   6.316  29.955 -0.1217  0.3122  0.0540
54692W        W97604  13.059   4.912  29.344 -0.2676 -0.0880 -0.3664
54693W        W97605  13.246   4.480  30.165  0.1005  0.0550  0.1494
54694W        W97606  14.114   4.592  30.465  0.0311  0.0823 -0.0703
54695W        W97607  12.416   3.546  30.481  0.0156  0.3377 -0.1483
54696W        W97608  10.705   5.481   0.447  0.1393  0.2540 -0.1263
54697W        W97609  13.830   7.756  29.971  0.0029  0.3512  0.0384
54698W        W97610  13.426   4.317  26.687 -0.2242  0.0200 -0.2319
54699W        W97611  14.511   3.726  30.014  0.0242  0.0898 -0.0931
54700W        W97612  13.649   7.249  28.448  0.2626 -0.1977  0.0361
54701W        W97613  13.181   4.829  27.121 -0.0581 -0.1269 -0.0419
54702W        W97614  11.265   5.812  30.178  0.0972  0.2265  0.0714
54703W        W97615  14.354   5.672  31.425 -0.1267  0.1404  0.1998
54704W        W97616  12.021   3.915  26.732 -0.1834 -0.1137  0.0565
54705W        W97617  13.862   4.761  31.412 -0.0121 -0.2790 -0.0479
54706W        W97618  12.731   7.415  26.305 -0.0045 -0.0087 -0.1682
54707W        W97619  14.089   5.963  29.810  0.1801  0.2590 -0.0447
54708W        W97620  13.356   4.482  28.939  0.0449  0.2381 -0.1149
54709W        W97621  10.653   4.731  28.439 -0.1009 -0.0990 -0.2895
54710W        W97622  12.266   8.152  30.871 -0.0054  0.3796 -0.0925
54711W        W97623  11.880   3.115  26.759  0.2185 -0.0710  0.0937
54712W        W97624  13.350   5.611  27.141  0.0148 -0.2924  0.0655
54713W        W97625  12.190   6.833  30.425  0.1521 -0.0607 -0.0784
54714W        W97626  14.022   5.941  31.728  0.3346  0.2683 -0.1047
54715W        W97627  12.448   3.263  26.272 -0.1015 -0.0369 -0.2119
54716W        W97628  14.230   5.011  30.833 -0.2419  0.2644 -0.1738
54717W        W97629  12.360   5.410  28.835 -0.0538  0.0432  0.1993
54718W        W97630  13.590   4.566  30.537  0.1372 -0.2503 -0.2178
54719W        W97631  10.573   6.953  29.577 -0.1768 -0.0840 -0.0795
54720W        W97632  10.839   6.556  30.389 -0.1675 -0.0485  0.2503
54721W        W97633  12.467   6.257  29.527 -0.2954 -0.2677  0.0037
54722W        W97634  12.469   4.657  30.528 -0.2532 -0.2197 -0.1420
54723W        W97635  13.742   4.206  29.321  0.2205 -0.0095  0.0824
54724W        W97636  12.921   6.777  28.473 -0.0406  0.2082 -0.3708
54725W        W97637  13.146   4.514  29.619  0.1467  0.3123  0.2365
54726W        W97638  13.748   5.648  29.505  0.0897 -0.0057 -0.0038
54727W        W97639  11.140   4.440  29.889  0.0290 -0.0485  0.1295
54728W        W97640  13.060   7.861  29.912 -0.3271  0.2003  0.1281
54729W        W97641  13.784   6.286  30.086 -0.3887  0.2454  0.0394
54730W        W97642  10.363   5.634  28.320 -0.2790  0.2803  0.0352
54731W        W97643  11.322   4.389  31.863 -0.1077  0.0125  0.0557
54732W        W97644  13.559   5.869  30.176  0.1882 -0.0591  0.0917
54733W        W97645  14.179   6.233  28.661 -0.0692  0.1041 -0.1651
54734W        W97646  11.769   2.684  27.118 -0.2262 -0.0754  0.2016
54735W        W97647  14.260   6.681  28.375 -0.0433 -0.0180  0.4553
54736W        W97648  11.205   6.598  31.695  0.2644 -0.1146 -0.1839
54737W        W97649  10.796   6.258  29.481  0.1762 -0.0228  0.0571
54738W        W97650  12.377   7.685  27.022 -0.0761 -0.0894 -0.0834
54739W        W97651  13.507   6.465  27.726 -0.0627 -0.2249  0.2107
54740W        W97652  12.384   7.103  26.369  0.0776  0.1685  0.0872
54741W        W97653  13.482   7.845  29.636  0.3303  0.0338  0.2267
54742W        W97654  11.686   2.976  29.386  0.0317 -0.1258  0.1630
54743W        W97655  11.263   6.500  28.698  0.0352  0.1840 -0.1359
54744W        W97656  10.731   7.808  27.205 -0.0182  0.3643 -0.0524
54745W        W97657  14.651   6.392  28.525  0.1732 -0.0602  0.1780
54746W        W97658  12.185   6.124  27.827  0.3594 -0.2675 -0.0176
54747W        W97659  14.138   6.176   0.178  0.0295  0.3686  0.1913
54748W        W97660  14.274   4.722  27.513 -0.0217 -0.1096 -0.1094
54749W        W97661  15.065   5.883  30.371  0.1484 -0.1946 -0.1049
54750W        W97662  14.243   5.039  28.808 -0.0033 -0.3521  0.1284
54751W        W97663  14.145   5.488  30.954  0.0384 -0.2161  0.0393
54752W        W97664  13.021   5.286  30.250  0.3016 -0.0057 -0.0323
54753W        W97665  12.846   3.347  26.860 -0.1769  0.2733  0.1355
54754W        W97666  11.854   5.357  31.955 -0.1286 -0.0455 -0.1203
54755W        W97667  15.064   3.653  30.529  0.0811 -0.1426  0.1266
54756W        W97668  11.789   5.640  31.527  0.0593  0.0942 -0.0478
54757W        W97669  15.075   6.590  27.827  0.0984 -0.0566  0.3159
54758W        W97670  10.886   2.470  27.922 -0.1905 -0.5161  0.1872
54759W        W97671  13.257   5.485  28.566 -0.3106 -0.2782  0.0350
54760W        W97672  15.834   4.504  30.323 -0.2957 -0.0753 -0.0847
54761W        W97673  13.145   6.125  26.413  0.1364 -0.3626 -0.2886
54762W        W97674  12.871   3.838  27.841 -0.1154  0.1326  0.0684
54763W        W97675  12.249   7.207  29.564 -0.3649  0.1112 -0.2627
54764W        W97676  11.663   5.551  29.721 -0.1443 -0.1275 -0.0332
54765W        W97677  11.963   7.069  31.179  0.2237  0.1197  0.2291
54766W        W97678  11.282   3.433  28.226 -0.1932  0.0113 -0.4026
54767W        W97679  16.615   5.439  29.125  0.1321 -0.0043  0.2189
54768W        W97680  10.703   3.980  31.085 -0.0903  0.1354 -0.0513
54769W        W97681  14.795   4.726  31.701 -0.0124  0.2581  0.0056
54770W        W97682  11.811   4.637  29.850 -0.0296 -0.3389  0.1017
54771W        W97683  13.447   5.051  28.918 -0.1622 -0.2336  0.1311
54772W        W97684  13.999   5.871  30.334  0.2117  0.1914 -0.0186
54773W        W97685  12.809   5.084  31.018  0.2082 -0.1694 -0.0209
54774W        W97686  11.609   4.805  27.358 -0.0754  0.1549  0.3686
54775W        W97687  15.792   6.475  31.252 -0.0520  0.1489  0.3685
54776W        W97688  13.251   4.288  27.260 -0.0520  0.1518  0.1897
54777W        W97689  14.104   7.089  31.405  0.1975  0.2232  0.0057
54778W        W97690  11.507   4.105  29.378  0.0603  0.1136  0.1622
54779W        W97691  13.023   2.033  25.768 -0.1671  0.0796 -0.0231
54780W        W97692  11.762   3.653  30.044  0.1363 -0.5365 -0.1376
54781W        W97693  14.383   5.435  30.441  0.0780 -0.0258 -0.2639
54782W        W97694  14.774   5.638  31.917  0.0262 -0.0144  0.3070
54783W        W97695  11.646   3.396  28.546  0.2699 -0.1742 -0.1794
54784W        W97696  13.846   5.747  27.361  0.1299 -0.2982  0.1183
54785W        W97697  14.651   5.315  31.122  0.1006 -0.1279 -0.2225
54786W        W97698  12.341   7.455  28.424  0.0304  0.1978 -0.0333
54787W        W97699  13.464   5.252  29.424 -0.5982  0.1044  0.7524
54788W        W97700  13.156   7.204  28.472  0.2931  0.0616 -0.2123
54789W        W97701  10.374   4.727  29.951 -0.1208 -0.0665  0.4345
54790W        W97702  13.412   6.985  27.568 -0.3734 -0.0527 -0.1187
54791W        W97703  14.290   5.883  28.253 -0.1288  0.0557 -0.0383
54792W        W97704  13.394   3.687  27.608 -0.1417  0.0192 -0.0864
54793W        W97705  11.457   5.371  28.756  0.1231 -0.1261  0.0132
54794W        W97706  11.019   5.620  29.067 -0.2451  0.0093 -0.0746
54795W        W97707  14.040   6.584  29.112  0.0768  0.1664 -0.0478
54796W        W97708  14.490   3.830  31.066 -0.2169 -0.0292 -0.0371
54797W        W97709  11.837   7.092  27.078 -0.1042 -0.0641 -0.0647
54798W        W97710  16.222   3.501   0.225 -0.3927 -0.3304 -0.0668
54799W        W97711  12.612   8.240  30.407 -0.3050  0.4754  0.1384
54800W        W97712  12.187   7.207  31.660 -0.1527  0.0126 -0.1072
54801W        W97713  12.903   4.281  26.896  0.1647 -0.2704 -0.1549
54802W        W97714  12.921   5.577  30.862  0.0284  0.2216  0.0428
54803W        W97715  13.038   6.312  28.159  0.1282 -0.0008  0.0621
54804W        W97716  12.686   7.138  28.144  0.2463  0.0444 -0.2975
54805W        W97717  13.538   6.094  29.655  0.0448 -0.1793  0.1565
54806W        W97718  13.115   2.970  27.148 -0.2287  0.2804 -0.2375
54807W        W97719  14.981   6.483  31.822  0.0026 -0.1582 -0.3025
54808W        W97720  12.192   4.509  30.134  0.2510  0.0922 -0.1691
54809W        W97721  13.300   4.006  29.286 -0.1186  0.0755 -0.1415
54810W        W97722  13.298   4.101  27.888 -0.1131  0.1700  0.0805
54811W        W97723  11.693   6.075  29.994 -0.1214  0.1077  0.0748
54812W        W97724  11.573   4.909  29.020  0.1338 -0.0242 -0.4113
54813W        W97725  12.110   5.132  27.244  0.1980 -0.0800  0.0924
54814W        W97726  10.344   4.693  28.935  0.0395 -0.0248 -0.1825
54815W        W97727  13.556   4.371  31.052 -0.0830 -0.0631 -0.0758
54816W        W97728  11.553   3.509  31.124  0.1435 -0.0300  0.0308
54817W        W97729  11.690   5.568  30.208 -0.1765  0.2289 -0.1731
54818W        W97730  10.759   1.899  28.646  0.3294 -0.0399  0.0122
54819W        W97731  12.991   6.079  27.617 -0.0110  0.0328 -0.0902
54820W        W97732  11.157   3.610  29.257  0.1521 -0.0468 -0.1588
54821W        W97733  12.064   3.172  28.829  0.0245  0.2678  0.1561
54822W        W97734  14.509   6.383  28.013 -0.0485 -0.1507  0.1465
54823W        W97735  15.083   7.651  29.472 -0.2252 -0.0347 -0.0994
54824W        W97736  13.775   4.647  30.069  0.3767 -0.1521  0.1136
54825W        W97737  14.316   6.355  30.822 -0.0182 -0.0878  0.3278
54826W        W97738  12.371   4.715  27.230  0.3100  0.2971  0.0366
54827W        W97739  13.003   4.784  30.544  0.1305 -0.1969  0.2255
54828W        W97740  11.459   3.930  31.487  0.1592  0.0941  0.1404
54829W        W97741  11.526   5.588  27.321  0.1850  0.0392 -0.1431
54830W        W97742  13.376   4.948  27.931 -0.2359 -0.1450 -0.1532
54831W        W97743  13.672   8.981  28.605 -0.2187  0.1031 -0.1270
54832W        W97744  15.152   7.052  29.313  0.0340 -0.0312  0.2503
54833W        W97745  12.419   5.698  30.910 -0.2199  0.1582  0.0901
54834W        W97746  12.641   7.027  29.987  0.0712  0.0740  0.0973
54835W        W97747  11.194   3.659  29.815 -0.2033 -0.2730  0.2291
54836W        W97748  12.659   5.212  29.131 -0.3992 -0.3358  0.1493
54837W        W97749  11.310   7.542  29.488  0.3093  0.0027 -0.2938
54838W        W97750  15.456   6.861  27.429 -0.2357  0.2294 -0.0452
54839W        W97751  16.015   3.554  30.147 -0.2035  0.0142 -0.0429
54840W        W97752  12.579   6.453  27.565 -0.1096  0.0460 -0.0169
54841W        W97753  11.899   3.091  31.752  0.3882  0.1746  0.0204
54842W        W97754  10.449   5.167  29.462 -0.3123 -0.0078 -0.1438
54843W        W97755  14.397   5.612  29.930 -0.3118  0.1612  0.0195
54844W        W97756  12.246   2.928  28.330 -0.0551 -0.0142 -0.2814
54845W        W97757  13.921   5.467  30.017 -0.1041 -0.2664 -0.1944
54846W        W97758  12.703   4.829  28.025 -0.3485  0.0011  0.2833
54847W        W97759  13.160   4.664  31.017  0.3112  0.1908 -0.1674
54848W        W97760  13.068   3.834  26.677 -0.1564 -0.0550 -0.0942
54849W        W97761  14.028   3.796  30.504  0.0004 -0.0841  0.0411
54850W        W97762  13.619   7.310  30.285  0.3295  0.0662  0.0465
54851W        W97763  14.116   4.541  31.010  0.2022  0.1929  0.0939
54852W        W97764  12.070   3.769  28.639  0.3992  0.2538 -0.1360
54853W        W97765  13.069   5.281  28.112 -0.3119  0.1577  0.2056
54854W        W97766  13.225   7.873  29.203 -0.0162 -0.0300  0.2138
54855W        W97767  15.295   8.474  30.554  0.1307 -0.1638  0.0359
54856W        W97768  12.235   7.153  30.753  0.1898  0.0096 -0.1406
54857W        W97769  14.209   5.414  29.541  0.1118 -0.2341 -0.0700
54858W        W97770  11.010   3.654  30.666 -0.0178  0.2972  0.2071
54859W        W97771  12.533   4.372  28.213  0.3597 -0.1315 -0.0915
54860W        W97772  12.225   5.955  27.352 -0.0162  0.3440 -0.4533
54861W        W97773  13.981   5.056  30.265  0.2875 -0.1493 -0.0418
54862W        W97774  11.177   3.587  28.743 -0.0329 -0.0557 -0.1172
54863W        W97775  12.474   3.738  28.190 -0.3516 -0.1855 -0.2418
54864W        W97776  12.410   8.428  29.637  0.4352 -0.5310  0.0230
54865W        W97777  12.579   5.989  29.937  0.0371  0.0306 -0.1316
54866W        W97778  13.286   4.811  31.499  0.0026  0.1623 -0.0950
54867W        W97779  13.104   4.153  31.227  0.1498  0.2023  0.0346
54868W        W97780  10.045   5.231  30.843  0.0915  0.0431  0.1508
54869W        W97781  12.143   6.635  30.964 -0.1163 -0.2501  0.0350
54870W        W97782  13.700   9.268  29.545  0.0882 -0.1764  0.0179
54871W        W97783  11.677   7.457  30.675  0.0273  0.4002  0.0330
54872W        W97784  13.299   5.156  30.818  0.0756 -0.0016  0.0968
54873W        W97785  11.389   3.597   0.563 -0.1603 -0.1477  0.1587
54874W        W97786  12.965   3.842  31.628 -0.0861  0.2430 -0.3468
54875W        W97787  14.563   6.098  31.648 -0.0129  0.0358 -0.1172
54876W        W97788  12.668   5.549  31.781  0.0481 -0.1873 -0.0199
54877W        W97789  12.297   3.298  30.021  0.2867 -0.0170  0.2427
54878W        W97790  14.707   5.984  29.004  0.0325 -0.3353 -0.1215
54879W        W97791  12.571   5.397   0.363 -0.0773 -0.0137  0.2448
54880W        W97792  15.257   5.610   0.077 -0.0755  0.1640 -0.1452
54881W        W97793  11.859   8.346  30.420 -0.1501 -0.4303 -0.1330
54882W        W97794  11.107   5.939   0.955 -0.1328  0.1642  0.0188
54883W        W97795  13.766   5.688   0.197 -0.3220  0.1177 -0.5267
54884W        W97796   9.650   3.751  30.706  0.1596  0.0463  0.0864
54885W        W97797  12.403   2.013  31.332  0.0636 -0.0475  0.0368
54886W        W97798  12.397   2.577   0.366  0.3475 -0.0952 -0.1533
54887W        W97799  11.953   8.157   0.751 -0.0986 -0.0198 -0.4252
54888W        W97800  15.752   2.556   0.339 -0.2528 -0.1855 -0.2332
54889W        W97801  13.974   5.287   0.319  0.0202 -0.2696 -0.0600
54890W        W97802  13.208   4.493  31.882  0.0693 -0.1292  0.1591
54891W        W97803  11.828   3.223   0.896 -0.1802 -0.1488 -0.0150
54892W        W97804  13.466   4.971  30.265  0.0570 -0.3836  0.1327
54893W        W97805  10.845   6.908  30.731  0.1604  0.2335 -0.0934
54894W        W97806  12.569   4.216  31.724  0.1961  0.2895 -0.0492
54895W        W97807  12.694   6.048  31.699  0.0597  0.2120 -0.1558
54896W        W97808  12.280   6.774  31.981 -0.3656 -0.0523  0.2644
54897W        W97809  12.549   4.646  31.100  0.1144 -0.0444 -0.0141
54898W        W97810  13.628   5.019   0.952  0.0597  0.2184 -0.1455
54899W        W97811  15.635   4.067  31.808  0.1990 -0.3440 -0.4645
54900W        W97812  10.956   3.832   0.340  0.0291 -0.1704 -0.1235
54901W        W97813  11.940   5.762  30.660 -0.1222  0.0248 -0.3117
54902W        W97814  12.009   4.958   0.207  0.2184 -0.0855  0.1849
54903W        W97815  14.510   6.516   0.391 -0.1407 -0.0650  0.1195
54904W        W97816  13.083   5.266   0.704 -0.0990 -0.0716 -0.1501
54905W        W97817  11.391   4.796  31.395  0.0025 -0.3914 -0.2466
54906W        W97818  14.320   4.809  31.652  0.0238 -0.2083  0.0282
54907W        W97819  12.274   3.897   0.010 -0.2292  0.2309 -0.0803
54908W        W97820  12.414   1.996  30.231  0.2476  0.1888  0.0858
54909W        W97821  13.104   6.831  31.436 -0.0179 -0.0764 -0.0370
54910W        W97822  10.848   5.419  31.249  0.0251  0.1413  0.1097
54911W        W97823  11.414   5.470  31.183 -0.2220  0.1229  0.3658
54912W        W97824  12.899   4.127   0.076  0.0243 -0.2001  0.1721
54913W        W97825  11.788   6.936  30.709  0.1048 -0.0221  0.0700
54914W        W97826  13.299   6.267  30.570 -0.3209 -0.1689  0.1282
54915W        W97827  12.302   5.805  31.509 -0.1482 -0.1938 -0.0393
54916W        W97828  15.504   6.880  31.093 -0.1426  0.1167 -0.0418
54917W        W97829  13.680   4.445   0.153 -0.0813  0.0722 -0.0080
54918W        W97830  12.885   2.625   0.364  0.2584  0.0849 -0.2338
54919W        W97831  12.279   4.686  31.619 -0.4773  0.1753  0.2694
54920W        W97832  13.720   3.897  31.712 -0.2846  0.3493  0.3052
54921W        W97833  12.869   5.670  31.338  0.0610  0.0578  0.1071
54922W        W97834  15.174   5.145  31.207  0.0461  0.2446 -0.2931
54923W        W97835  12.678   7.164  30.529 -0.3270  0.0006  0.3711
54924W        W97836  13.114   7.289  31.276  0.1625  0.0397  0.0729
54925W        W97837  11.446   5.575   0.078  0.0683  0.0945 -0.1986
54926W        W97838  10.246   6.883  30.630 -0.3075 -0.3963 -0.2179
54927W        W97839  13.118   6.239  31.907 -0.0205  0.2137  0.0966
54928W        W97840  11.448   5.958  30.998 -0.2668 -0.1619 -0.1177
54929W        W97841  10.441   4.657  31.939 -0.2084  0.0934  0.1086
54930W        W97842  12.862   6.442  31.458 -0.0007 -0.1504  0.1679
54931W        W97843  14.383   6.297   1.131  0.2465  0.3616  0.0187
54932W        W97844  14.187   5.183  31.317 -0.1181 -0.0032  0.0346
54933W        W97845  11.679   9.635  19.149 -0.0292 -0.3109 -0.0636
54934W        W97846  11.339   7.972  17.849 -0.0849  0.1002  0.0211
54935W        W97847  13.745   8.641  16.210  0.4841 -0.0789  0.2563
54936W        W97848  15.488   8.641  16.508  0.1766 -0.2917 -0.2851
54937W        W97849  11.379   7.492  16.441  0.3591 -0.0118 -0.0407
54938W        W97850  12.369  11.297  16.600 -0.2346  0.0273 -0.1889
54939W        W97851  10.842   7.244  19.308 -0.2765 -0.1816  0.0952
54940W        W97852  13.749  10.243  17.451  0.0218  0.0052 -0.0571
54941W        W97853  12.137   9.863  19.070 -0.1897 -0.1771  0.0987
54942W        W97854  14.614   9.091  15.999 -0.0211 -0.0311  0.3066
54943W        W97855  12.940   9.818  18.368  0.1615 -0.0584  0.2103
54944W        W97856  12.242   9.447  17.782  0.0673  0.0897 -0.1626
54945W        W97857  12.693   8.007  16.287 -0.2707 -0.1742 -0.1049
54946W        W97858  11.670   7.063  17.751 -0.4056  0.2415 -0.0732
54947W        W97859  12.572   8.937  18.708 -0.1274  0.2102  0.4375
54948W        W97860  11.955   9.071  16.414  0.1329 -0.2045  0.0561
54949W        W97861  12.156   9.070  16.978 -0.2303  0.0293  0.1479
54950W        W97862  12.115   6.725  17.523 -0.1879 -0.3530 -0.0277
54951W        W97863  12.747   9.342  17.457  0.1272  0.0551  0.0031
54952W        W97864  12.123   8.297  18.555 -0.0593 -0.0366  0.1095
54953W        W97865  12.482   6.614  19.592 -0.0540  0.1229  0.1174
54954W        W97866  13.894  10.057  16.893 -0.1299 -0.3039 -0.3232
54955W        W97867  10.763   9.381  15.777 -0.3307  0.1126  0.5044
54956W        W97868  10.600   8.397  18.214 -0.0643  0.1130  0.0610
54957W        W97869  12.106   7.721  17.013 -0.0839  0.2373 -0.0428
54958W        W97870  12.476   7.650  18.047  0.4196 -0.0222  0.0895
54959W        W97871  15.390   9.736  17.524 -0.0669 -0.2642 -0.0212
54960W        W97872  12.544  10.256  18.246  0.0053  0.0993 -0.0124
54961W        W97873  12.010   9.573  18.222 -0.0563  0.1985 -0.0856
54962W        W97874  12.510   8.845  19.520  0.2830 -0.1138  0.4167
54963W        W97875  11.290   8.642  17.043  0.1392  0.1045  0.2102
54964W        W97876  10.277   9.424  17.865  0.1182 -0.0114 -0.1778
54965W        W97877  12.126   9.446  17.306  0.2779 -0.3350 -0.0560
54966W        W97878  14.127  11.020  17.845 -0.0331 -0.0179 -0.1100
54967W        W97879  12.574  11.318  17.370 -0.0186  0.1343  0.2755
54968W        W97880  10.572  12.445  19.631  0.0137  0.0801  0.0603
54969W        W97881  11.278  10.221  16.616  0.2358  0.0198  0.1790
54970W        W97882  11.834   9.422  19.831 -0.2234  0.0938 -0.2174
54971W        W97883  11.828   8.843  19.483  0.0036 -0.0952  0.3613
54972W        W97884  14.273   8.818  17.943  0.2777 -0.0141 -0.1940
54973W        W97885  13.904   8.456  18.450 -0.1033 -0.2082 -0.1113
54974W        W97886  12.179   9.936  17.073 -0.2707  0.0926  0.1122
54975W        W97887  13.185   9.328  18.444  0.0061  0.2805  0.2134
54976W        W97888  10.525   9.214  20.072  0.1916 -0.2596  0.1250
54977W        W97889  11.206   9.574  18.238  0.1264 -0.3177  0.1422
54978W        W97890  15.316   7.633  20.123  0.2798 -0.1389  0.0587
54979W        W97891  11.460  10.289  17.119 -0.0534  0.0923  0.0392
54980W        W97892  13.503   8.183  16.038  0.2064  0.0238  0.0846
54981W        W97893  13.069   8.365  16.225 -0.4031  0.4168 -0.2777
54982W        W97894  14.572   7.631  15.980 -0.0403 -0.1350 -0.1277
54983W        W97895  12.219   8.071  17.994 -0.1385  0.1193  0.1539
54984W        W97896  11.231   9.663  17.692  0.0904 -0.1412 -0.0779
54985W        W97897  12.263   7.963  18.880 -0.1098 -0.0043  0.0408
54986W        W97898  13.818   8.938  18.364  0.2085 -0.1669  0.0941
54987W        W97899  12.910   9.210  16.412  0.0471  0.1786  0.0509
54988W        W97900  12.910   7.793  18.223  0.1935  0.0677  0.3453
54989W        W97901  12.012  10.401  18.602 -0.1519 -0.1141 -0.0918
54990W        W97902  11.368   8.434  16.578 -0.4466 -0.0746  0.2736
54991W        W97903  14.739   9.977  15.524 -0.0638  0.1630 -0.2903
54992W        W97904  14.792  10.218  15.967 -0.1365  0.0305 -0.2545
54993W        W97905  13.205  10.574  16.269 -0.0925 -0.0380 -0.0003
54994W        W97906   9.937   8.849  16.181  0.2859 -0.1294 -0.0248
54995W        W97907  11.405  10.937  20.004  0.0244 -0.2135  0.0830
54996W        W97908  10.983   8.269  19.872  0.1960  0.1086  0.1879
54997W        W97909  11.547   8.357  15.351  0.0794 -0.3918  0.1333
54998W        W97910  16.830   9.058  19.287 -0.1290 -0.0425  0.0757
54999W        W97911   8.380  10.956  19.827 -0.2127  0.0942  0.1622
55000W        W97912  14.468   7.818  16.800  0.1195  0.3056  0.0078
55001W        W97913  12.901   8.913  18.351 -0.4090  0.1442  0.1885
55002W        W97914  14.106   9.312  18.161 -0.1353 -0.2600 -0.0064
55003W        W97915  12.985   8.706  16.564  0.0998 -0.1549  0.4564
55004W        W97916  15.075   8.388  17.557  0.0419  0.0557 -0.3303
55005W        W97917  11.957   7.344  18.201 -0.1163 -0.1358  0.0696
55006W        W97918  10.874   9.454  16.343 -0.3021 -0.3058 -0.1973
55007W        W97919  13.618   7.893  18.676  0.1210  0.0680 -0.2184
55008W        W97920  13.568  10.352  16.563  0.0516  0.2118  0.1100
55009W        W97921  13.622   8.711  17.289 -0.1389  0.0144  0.0656
55010W        W97922  11.553   9.881  18.112  0.2963  0.0795 -0.3943
55011W        W97923  11.407   9.704  20.118  0.1149 -0.0122 -0.0524
55012W        W97924  12.899  10.124  19.550  0.2916 -0.2550 -0.0248
55013W        W97925  11.211  10.849  15.896  0.1139  0.0428  0.2165
55014W        W97926  10.205  10.303  19.212  0.2516  0.0183  0.0935
55015W        W97927  11.208   9.853  16.997  0.0450  0.1263 -0.1524
55016W        W97928  11.277   7.657  19.100  0.2442  0.0178  0.0206
55017W        W97929  12.126   8.921  19.083  0.0418  0.0136 -0.0799
55018W        W97930  13.761   9.562  16.728 -0.0168 -0.1745 -0.0954
55019W        W97931  11.032   8.128  19.064 -0.0399  0.0259 -0.3216
55020W        W97932  13.368   8.648  18.347  0.1229 -0.1991 -0.0303
55021W        W97933  12.159   8.111  16.660  0.0340  0.0277  0.0452
55022W        W97934  14.283  12.576  16.281  0.1254 -0.0197  0.0197
55023W        W97935  13.708   8.361  16.988  0.0449 -0.1113 -0.0530
55024W        W97936  12.930   9.652  16.187  0.2134 -0.0142 -0.1472
55025W        W97937  10.814   9.259  18.686 -0.1552  0.3052 -0.2031
55026W        W97938  11.721   8.448  15.942  0.1739  0.2257 -0.2485
55027W        W97939  11.047   7.859  20.094 -0.1652 -0.1723 -0.0873
55028W        W97940  10.905   8.188  17.736  0.0070 -0.3346  0.0197
55029W        W97941  13.752   9.800  17.793 -0.1073 -0.0795  0.0259
55030W        W97942  10.887   7.583  15.993 -0.0473  0.3412  0.2031
55031W        W97943  13.683   7.771  16.433  0.0841  0.0860 -0.0084
55032W        W97944  11.801   6.824  18.307 -0.0672 -0.0588 -0.2656
55033W        W97945  11.731   8.543  17.291  0.1644  0.0317 -0.1557
55034W        W97946  13.808   8.883  18.838 -0.2036  0.0092 -0.2309
55035W        W97947  14.243  10.330  16.007  0.1598 -0.1763 -0.0090
55036W        W97948  13.802   9.703  18.834 -0.0760  0.2653 -0.0341
55037W        W97949  13.512  10.478  17.020 -0.1103 -0.1205 -0.1957
55038W        W97950  12.530   8.429  17.903 -0.3113 -0.3716 -0.2377
55039W        W97951  10.848   8.188  16.165 -0.0768 -0.0964  0.0332
55040W        W97952  10.595  11.308  17.041  0.1300 -0.3203 -0.0069
55041W        W97953  12.106   9.445  18.786 -0.2613  0.0322  0.0956
55042W        W97954  13.197   7.500  17.463 -0.1113  0.0141  0.2443
55043W        W97955  13.293   9.645  18.060 -0.2893  0.1181 -0.0125
55044W        W97956  12.791   9.686  15.590 -0.5386  0.0872 -0.0848
55045W        W97957  12.491   8.905  20.902 -0.0002 -0.0031 -0.0294
55046W        W97958  12.773   8.058  18.806 -0.3616  0.2907  0.0163
55047W        W97959  13.613   9.275  17.932 -0.1880  0.0185  0.1821
55048W        W97960  14.262   7.336  18.340 -0.1246 -0.0437  0.0612
55049W        W97961  11.552   7.350  15.340 -0.1075  0.0553 -0.0187
55050W        W97962  11.993  11.016  17.151 -0.0710  0.1459  0.1219
55051W        W97963  11.194  11.248  15.617  0.0219 -0.0253 -0.3783
55052W        W97964  10.537   9.077  16.276  0.0616  0.0572  0.2287
55053W        W97965  11.224   9.095  17.518  0.1252 -0.1067 -0.2987
55054W        W97966  13.418   7.911  17.796  0.0433  0.1872  0.1135
55055W        W97967  11.201   8.659  20.162  0.1163  0.0577  0.0295
55056W        W97968  12.332   8.381  19.652  0.0678  0.0692 -0.0415
55057W        W97969  11.485   8.841  16.319 -0.0502 -0.0151 -0.1187
55058W        W97970  10.098   9.761  19.175  0.1399  0.1535  0.0174
55059W        W97971  13.452   8.267  16.548  0.3309  0.1309 -0.1000
55060W        W97972  13.212   7.870  16.298 -0.0336  0.0296 -0.0004
55061W        W97973  14.208  10.381  19.529 -0.3992 -0.1819 -0.0918
55062W        W97974  13.029   9.312  18.932  0.0791 -0.0186 -0.0684
55063W        W97975  13.466   8.133  15.586  0.1571 -0.1702 -0.0492
55064W        W97976  13.927   6.765  17.071  0.3147  0.2635 -0.1521
55065W        W97977  12.630   8.828  20.044  0.0811 -0.0265 -0.0267
55066W        W97978  11.360   9.552  16.641  0.2196 -0.1325  0.2054
55067W        W97979  11.039   8.715  17.839  0.6220 -0.0694  0.0134
55068W        W97980  13.030   8.858  17.397 -0.0698  0.0861 -0.0810
55069W        W97981  14.585  10.681  15.876  0.0652 -0.2420  0.1356
55070W        W97982   9.616  10.378  19.547  0.1969  0.1751 -0.0754
55071W        W97983  14.022  10.062  19.210  0.1345 -0.3155 -0.2248
55072W        W97984  13.576   9.768  17.315 -0.2080  0.1708 -0.0285
55073W        W97985  13.421   7.676  19.282  0.2371  0.0015 -0.0133
55074W        W97986  11.765   9.391  16.900 -0.0643  0.1132  0.1860
55075W        W97987  12.712   7.622  17.213  0.1482 -0.0584  0.0253
55076W        W97988  10.127  11.101  16.983  0.2202  0.2614  0.0388
55077W        W97989  13.041   7.251  18.950  0.1227  0.1016  0.1322
55078W        W97990  13.595   8.590  19.277 -0.1605 -0.0930  0.1738
55079W        W97991  12.690   8.133  19.327  0.2511  0.3112  0.0845
55080W        W97992  14.032   8.487  18.983 -0.0120  0.1727  0.3450
55081W        W97993  13.991   9.488  16.271  0.1414  0.1953 -0.1359
55082W        W97994  12.473   8.551  19.035 -0.1357 -0.0156  0.1575
55083W        W97995  10.426   8.575  15.990  0.3499 -0.0983  0.1124
55084W        W97996  12.283   7.442  19.163  0.1773 -0.0318  0.0365
55085W        W97997  10.940   8.295  20.404  0.1152  0.0055  0.2662
55086W        W97998  10.752   9.758  19.263  0.1427  0.1118 -0.0991
55087W        W97999  13.462  10.049  19.175  0.0690 -0.1456  0.1484
55088W        W98000  12.853  10.336  17.700  0.3617  0.0408 -0.2194
55089W        W98001  12.785   8.507  20.655 -0.1712  0.0100  0.2487
55090W        W98002  13.329   7.150  17.082 -0.3801 -0.2121 -0.0436
55091W        W98003  10.843  11.062  17.834 -0.0058 -0.0703  0.0669
55092W        W98004  12.760  11.031  16.605 -0.0380 -0.0424  0.2087
55093W        W98005  11.393   7.455  17.704  0.0235 -0.3315  0.0748
55094W        W98006  13.244  10.895  18.103  0.0485  0.0693  0.0474
55095W        W98007  12.025  10.217  15.609  0.0396  0.1351  0.2617
55096W        W98008  13.689   9.079  19.363 -0.0066 -0.3571  0.0572
55097W        W98009  11.879   9.046  18.072  0.1710  0.4448  0.3286
55098W        W98010  12.623   6.206  17.944 -0.1655 -0.0843  0.1756
55099W        W98011  10.031  10.142  17.281 -0.1970  0.0450 -0.3003
55100W        W98012  11.009   8.098  16.700  0.2643 -0.4918  0.1478
55101W        W98013  10.320   8.845  17.006  0.0396 -0.1942  0.0910
55102W        W98014  14.421   8.095  15.944 -0.0778  0.0775 -0.1730
55103W        W98015  15.004  10.840  16.634 -0.1222 -0.1290 -0.0845
55104W        W98016   9.870   7.309  18.741  0.2159 -0.2858  0.3785
55105W        W98017  11.336   6.807  18.594 -0.1892  0.1548 -0.2895
55106W        W98018  10.682  10.593  17.520 -0.0352 -0.0199  0.3071
55107W        W98019  13.378   9.994  16.935  0.0889 -0.1427  0.2960
55108W        W98020  13.367   6.890  16.239  0.2168  0.3574  0.3581
55109W        W98021  12.420  10.311  19.477  0.1580  0.2258 -0.2945
55110W        W98022  12.067   8.429  20.164 -0.0377  0.0437  0.2090
55111W        W98023  10.507   7.653  15.642  0.0655  0.0205 -0.1320
55112W        W98024  13.842   7.488  18.448 -0.1434 -0.0003  0.1936
55113W        W98025  13.869   7.879  18.128 -0.1579  0.0517 -0.1449
55114W        W98026  10.366  10.295  16.778 -0.1732 -0.1119 -0.1431
55115W        W98027  11.554   9.381  17.914 -0.0119 -0.2248  0.0047
55116W        W98028  12.009   9.403  15.997  0.2643 -0.0678  0.1563
55117W        W98029  12.033   9.023  18.555 -0.1755 -0.0354  0.0246
55118W        W98030  10.880   8.763  17.344  0.0765  0.0036 -0.1903
55119W        W98031  12.628   9.483  18.610  0.0235  0.2128 -0.2232
55120W        W98032  11.636   8.025  18.712 -0.0492  0.2637  0.4327
55121W        W98033  12.342   7.713  16.494  0.1214  0.2251  0.0058
55122W        W98034  13.031   8.513  15.772  0.1846 -0.0752 -0.3135
55123W        W98035  13.156   8.103  18.498  0.0437  0.1608 -0.0999
55124W        W98036  13.307   9.744  18.783 -0.2833 -0.0350  0.1500
55125W        W98037  11.702   9.532  20.472 -0.3722  0.2307 -0.4230
55126W        W98038  11.800   7.716  17.908 -0.0901 -0.0431  0.0791
55127W        W98039  15.195  11.896  15.474 -0.0413 -0.1623 -0.1551
55128W        W98040  14.428   8.357  18.639 -0.0879 -0.3041  0.0951
55129W        W98041  12.252   9.996  16.578 -0.2783  0.0786  0.1530
55130W        W98042  10.435   9.010  18.877  0.0316 -0.2455  0.1488
55131W        W98043  11.869   9.845  17.725 -0.0440 -0.0146  0.0559
55132W        W98044  12.810   8.487  19.749 -0.1038 -0.3015 -0.1505
55133W        W98045  11.657   9.019  17.228 -0.0261 -0.1345 -0.0834
55134W        W98046  12.753   9.255  16.933 -0.3448  0.0469 -0.0085
55135W        W98047  10.470   9.409  19.408  0.2979 -0.0896 -0.1206
55136W        W98048  13.492   8.733  16.735 -0.1135  0.0920  0.1263
55137W        W98049  12.713   8.803  16.083 -0.1082  0.0223 -0.1260
55138W        W98050  12.531   8.032  16.971 -0.0263  0.0490  0.1664
55139W        W98051  13.743   7.915  19.874  0.1740  0.0471 -0.2982
55140W        W98052  12.371   9.392  16.332  0.1574 -0.3116 -0.1694
55141W        W98053  13.434   6.055  18.840  0.1177 -0.1261 -0.1232
55142W        W98054  10.471   8.433  17.240 -0.0779  0.0098  0.0319
55143W        W98055  13.781  10.631  17.768  0.1941  0.2753  0.0529
55144W        W98056   9.810   8.302  18.819  0.1431 -0.0195  0.0103
55145W        W98057  12.892  10.966  20.266 -0.0853  0.2297 -0.1318
55146W        W98058  11.680   8.653  19.955  0.0664  0.2458  0.4215
55147W        W98059  14.226   8.160  17.105  0.1207  0.1762  0.1756
55148W        W98060  12.381   7.367  16.900  0.0768 -0.3462  0.0048
55149W        W98061  12.017   8.514  17.929  0.1556 -0.1266  0.0983
55150W        W98062  13.963  10.262  18.045  0.0379 -0.1488  0.1950
55151W        W98063  11.711   9.953  16.759 -0.3498 -0.2442  0.1184
55152W        W98064  14.376   7.834  18.101  0.0002 -0.0089 -0.0880
55153W        W98065  10.842   8.489  19.346 -0.0785 -0.3070 -0.0972
55154W        W98066  13.495   8.383  18.741  0.1350 -0.0245  0.0888
55155W        W98067  14.261   8.477  16.581 -0.2276 -0.4870 -0.0242
55156W        W98068  13.240   9.162  16.833  0.1423  0.3026  0.1271
55157W        W98069  11.757   7.771  20.356  0.1509  0.0050 -0.1097
55158W        W98070  13.989   8.890  17.002  0.1496 -0.1554 -0.0574
55159W        W98071  12.196   6.932  17.962  0.2257 -0.1957  0.0053
55160W        W98072  10.994   9.008  19.706 -0.1696 -0.3074  0.2110
55161W        W98073  13.457   8.188  19.557  0.3476 -0.0508  0.0792
55162W        W98074  13.312   9.231  20.508 -0.1936  0.0146 -0.1302
55163W        W98075  11.348   8.385  17.584  0.0396  0.0322 -0.1936
55164W        W98076  13.969  11.556  18.653  0.0431  0.2551  0.0216
55165W        W98077  13.115   7.595  16.957 -0.2218  0.0342 -0.3849
55166W        W98078  13.893   7.636  20.257  0.2721  0.0920  0.2347
55167W        W98079  13.175   9.621  16.664 -0.3414  0.1987  0.1713
55168W        W98080  13.288   8.830  16.204  0.1953 -0.1375 -0.0027
55169W        W98081  10.986   8.303  17.220 -0.1813  0.0114 -0.1320
55170W        W98082  13.327   8.854  18.986  0.1282 -0.0769  0.0011
55171W        W98083  12.644   6.325  16.571  0.0188  0.0996 -0.3192
55172W        W98084  13.134   8.089  19.146 -0.1756  0.1992 -0.3540
55173W        W98085  12.651  10.169  16.294  0.2085  0.0775  0.4170
55174W        W98086  13.152   8.808  17.906 -0.0243 -0.5163  0.0856
55175W        W98087  13.265   9.625  15.807 -0.1680 -0.0230  0.1259
55176W        W98088  10.943   7.666  16.503  0.0976  0.1629 -0.3314
55177W        W98089  12.111  10.807  18.884 -0.2382 -0.1694  0.0408
55178W        W98090  12.175   8.207  16.190  0.2852  0.2596 -0.1356
55179W        W98091  12.426   8.912  16.531  0.2412 -0.0603 -0.0620
55180W        W98092  13.835  10.831  18.187  0.4268  0.1707  0.2653
55181W        W98093  15.516   9.960  19.721  0.0469  0.2690 -0.4381
55182W        W98094  12.714   7.418  17.671 -0.1161  0.0915  0.1630
55183W        W98095  14.091   9.310  19.613 -0.0051 -0.2330 -0.1580
55184W        W98096  12.614   8.946  17.788 -0.2337 -0.2035 -0.1907
55185W        W98097  12.111   7.728  18.430  0.1452 -0.2706 -0.4904
55186W        W98098  10.976  10.092  17.492 -0.2309 -0.2872 -0.1935
55187W        W98099  10.596   9.443  18.307 -0.1690 -0.1186  0.0066
55188W        W98100  11.251   8.808  19.198  0.0430 -0.0283 -0.3628
55189W        W98101  13.706   8.077  19.125  0.0599 -0.1461  0.1149
55190W        W98102  14.194   9.408  17.605 -0.2321  0.4394 -0.1278
55191W        W98103  12.904   8.518  18.733  0.0307 -0.5252  0.0731
55192W        W98104  14.521   9.653  18.330 -0.4319  0.0858 -0.1123
55193W        W98105  12.582   9.209  19.134 -0.0321 -0.0968 -0.1440
55194W        W98106  11.369   8.987  18.111  0.0955  0.1961  0.2369
55195W        W98107  13.127  10.318  18.266  0.0830  0.1476 -0.1079
55196W        W98108  15.921  10.834  15.609  0.0689  0.2841 -0.0796
55197W        W98109  11.636   8.680  18.345 -0.1062  0.1505  0.0170
55198W        W98110   9.041  10.426  19.914 -0.1644  0.0360  0.3804
55199W        W98111  11.786   8.600  18.801 -0.1444 -0.5321 -0.2448
55200W        W98112  12.669   8.500  16.910 -0.1041  0.2031  0.1903
55201W        W98113  11.040   7.801  18.697 -0.0599 -0.0431  0.0954
55202W        W98114  11.941   9.618  16.442  0.1577  0.1352  0.0314
55203W        W98115  10.262   9.676  19.863 -0.2809 -0.2447  0.2486
55204W        W98116  11.180   9.298  19.103 -0.0672  0.0222  0.0036
55205W        W98117  11.441  10.108  17.631 -0.0925 -0.1152  0.0231
55206W        W98118  12.036  10.908  15.655  0.1960 -0.0994 -0.2602
55207W        W98119  11.980   8.548  16.496 -0.3152 -0.1837 -0.2306
55208W        W98120  11.683  10.740  17.369 -0.0350  0.1674  0.3039
55209W        W98121  12.638   9.048  15.436  0.1202 -0.1921 -0.1628
55210W        W98122  10.757   9.842  18.684 -0.1303 -0.2477  0.3268
55211W        W98123  11.655  10.804  16.298  0.2995  0.2216 -0.0471
55212W        W98124  13.034  10.183  16.657  0.0723  0.1530  0.0697
55213W        W98125  11.513   9.340  16.193  0.2431  0.1606 -0.1571
55214W        W98126  13.558   9.302  18.904  0.0792 -0.2013 -0.2096
55215W        W98127  14.251   8.546  16.093  0.4750  0.0006 -0.4129
55216W        W98128  15.133   9.778  16.041  0.0797 -0.1091  0.1798
55217W        W98129  14.696   7.397  16.913  0.0712  0.1878 -0.0296
55218W        W98130  13.605  10.691  18.931  0.2204 -0.0549  0.1706
55219W        W98131  10.886   8.715  18.812  0.0539 -0.1557 -0.2000
55220W        W98132  13.495   7.712  15.914  0.0907  0.0011  0.1071
55221W        W98133  11.172   8.560  18.278 -0.0919  0.0819  0.0656
55222W        W98134  12.778   6.938  18.711  0.0865 -0.0033  0.2562
55223W        W98135   9.072   9.925  19.674 -0.1769  0.4665 -0.3906
55224W        W98136  14.260  10.635  15.502 -0.4492  0.3024 -0.0851
55225W        W98137  12.527   8.460  16.403 -0.6507  0.0491  0.0930
55226W        W98138  12.859   9.796  17.721 -0.1632  0.1102  0.2740
55227W        W98139  14.604   8.425  17.960 -0.2213  0.0216  0.0741
55228W        W98140  11.507   9.886  16.244  0.2039 -0.3459  0.0802
55229W        W98141  12.727   7.969  17.735  0.1280  0.1177 -0.1638
55230W        W98142  11.770   8.837  16.790  0.0297  0.2140  0.0508
55231W        W98143  12.417   9.258  18.234  0.2879 -0.1275  0.0955
55232W        W98144  10.959  10.037  20.113  0.1501  0.2447  0.0034
55233W        W98145  11.585   7.058  16.101  0.2468  0.0705 -0.0247
55234W        W98146  14.515   9.071  17.414  0.0101 -0.4814 -0.1759
55235W        W98147  12.548   8.132  18.364  0.2012 -0.3454 -0.0191
55236W        W98148  14.418   6.857  19.124 -0.0640  0.1082  0.1407
55237W        W98149  11.255   7.965  16.294 -0.0610 -0.2504  0.1310
55238W        W98150  13.194   8.494  17.075  0.0709  0.1483 -0.1480
55239W        W98151  12.396   8.641  18.354 -0.1862  0.2303  0.0881
55240W        W98152  11.577   7.647  18.368 -0.3760  0.1013  0.2191
55241W        W98153  11.983   9.710  15.533 -0.0134  0.1015 -0.3015
55242W        W98154  13.554   8.170  18.236 -0.0732  0.1430 -0.0054
55243W        W98155  11.605  10.558  15.449 -0.0494 -0.4033 -0.0131
55244W        W98156  11.981  10.416  19.680 -0.1506 -0.0538  0.2415
55245W        W98157  11.285   8.066  18.337  0.2315  0.0874  0.0501
55246W        W98158  15.075   8.527  18.052 -0.0642  0.0333  0.0563
55247W        W98159  10.893   9.524  17.371  0.0011  0.1321  0.1413
55248W        W98160  11.788   7.895  19.203  0.1034 -0.0685 -0.0265
55249W        W98161  13.548   9.966  18.306 -0.0637  0.2061 -0.0417
55250W        W98162  11.611   6.202  16.869  0.0714  0.0339 -0.1877
55251W        W98163  13.875  10.344  15.541  0.2061 -0.5258 -0.0099
55252W        W98164  15.527   8.519  17.869  0.0332  0.1626 -0.2614
55253W        W98165  10.950  10.257  17.024  0.0695  0.1354  0.3093
55254W        W98166  12.674   9.843  17.164 -0.1162  0.3384 -0.0579
55255W        W98167  13.027  11.897  17.085  0.1761  0.0154  0.1187
55256W        W98168  11.313   8.417  18.746 -0.1108 -0.0930 -0.2036
55257W        W98169  12.768  10.633  18.100  0.0867  0.1274  0.3690
55258W        W98170  13.186   9.330  17.666 -0.1148  0.1869  0.1666
55259W        W98171  13.124   6.429  16.909 -0.3076 -0.1138 -0.0157
55260W        W98172  10.655   7.697  17.667  0.0346 -0.0789  0.0833
55261W        W98173  11.104  11.497  17.074 -0.1636  0.1751  0.2894
55262W        W98174  13.421   7.673  18.321 -0.0042  0.0100 -0.1666
55263W        W98175  13.968   8.303  19.483 -0.1970  0.0471 -0.0568
55264W        W98176  12.540  10.366  16.831  0.1981  0.0965 -0.0616
55265W        W98177  12.185   7.853  17.540 -0.1285  0.2076 -0.0277
55266W        W98178  12.780   9.871  18.850  0.2549  0.1191 -0.2156
55267W        W98179  11.217  10.089  19.661  0.2922  0.1272 -0.2631
55268W        W98180  11.576   9.958  15.719  0.2167 -0.0212  0.0704
55269W        W98181  11.300   8.567  19.642  0.0497  0.1566 -0.1305
55270W        W98182  12.235   8.346  17.454  0.3155  0.4305  0.1202
55271W        W98183  11.848  11.099  16.653 -0.1418 -0.2084  0.1051
55272W        W98184  13.298  10.554  17.587 -0.2386 -0.1854 -0.0555
55273W        W98185  12.162   8.521  17.036 -0.1111  0.0734  0.2739
55274W        W98186  14.697  10.082  16.436 -0.0406 -0.3381  0.0588
55275W        W98187  11.470   8.167  17.109  0.0845 -0.3052  0.1149
55276W        W98188  15.224   7.591  18.144 -0.0138  0.1285  0.2574
55277W        W98189  14.008   8.081  16.667  0.1226 -0.1241 -0.1087
55278W        W98190  12.091   8.930  17.483 -0.0814  0.2528 -0.4001
55279W        W98191   9.793   9.965  15.373 -0.0959 -0.1186 -0.1505
55280W        W98192  10.470  10.112  17.708 -0.0545  0.1634  0.0543
55281W        W98193  12.689  10.401  18.934  0.1855 -0.1073 -0.2586
55282W        W98194  12.055   8.593  20.814 -0.0000 -0.1585  0.0298
55283W        W98195  10.096   7.804  18.949  0.1323 -0.2905  0.2133
55284W        W98196  11.680   9.445  17.458  0.0462  0.0890 -0.0459
55285W        W98197  12.242   6.881  17.068 -0.0142 -0.0614 -0.0027
55286W        W98198  13.409  10.147  15.797  0.1802 -0.1195 -0.1531
55287W        W98199  10.503   8.104  16.562  0.2666  0.2725 -0.2491
55288W        W98200  10.682   7.888  17.126 -0.2733 -0.0568 -0.0924
55289W        W98201  13.776   9.103  16.576 -0.2026 -0.0297  0.0492
55290W        W98202  13.006  11.043  17.659  0.1392 -0.3221  0.4288
55291W        W98203  13.086   7.017  17.557  0.0035 -0.0919  0.0698
55292W        W98204  14.225   9.794  19.554 -0.1087  0.0019  0.0985
55293W        W98205  11.529   9.433  15.693  0.6144 -0.1510  0.1035
55294W        W98206  12.963   8.658  21.158 -0.1687 -0.2844 -0.0462
55295W        W98207  13.356   9.430  19.603  0.0673  0.3075 -0.4306
55296W        W98208  11.118   6.774  16.482  0.0034 -0.0786 -0.1841
55297W        W98209  13.767   8.163  17.447 -0.2607  0.1396 -0.1569
55298W        W98210  12.450   9.828  18.050  0.1209  0.2256  0.1143
55299W        W98211  12.407   9.843  15.833  0.3470 -0.1492  0.0980
55300W        W98212  11.559   8.362  19.206  0.0677 -0.0771 -0.1393
55301W        W98213  12.049  10.201  18.061 -0.0817 -0.0524  0.0269
55302W        W98214  10.015   6.645  18.233 -0.0680 -0.0203  0.0611
55303W        W98215  12.894  10.062  15.919 -0.1066  0.1708 -0.1731
55304W        W98216  12.312   9.971  17.534  0.2784 -0.0758 -0.3970
55305W        W98217  14.243  10.295  16.555 -0.0917  0.1295  0.1413
55306W        W98218  13.648   7.685  17.394 -0.0990  0.2964 -0.2054
55307W        W98219  13.547   9.129  15.756  0.0529  0.2825  0.0081
55308W        W98220  12.305   7.081  19.643 -0.0841 -0.1760 -0.1343
55309W        W98221  11.755  10.098  19.271 -0.1621  0.3786 -0.2752
55310W        W98222  12.331   9.888  18.552 -0.0277 -0.0436  0.2349
55311W        W98223  12.288   6.492  18.201  0.0235  0.2362  0.1128
55312W        W98224  14.235   9.212  16.772 -0.0384 -0.1918 -0.2669
55313W        W98225  13.875   9.998  16.303  0.1565 -0.2434 -0.0916
55314W        W98226  11.273   9.018  18.589  0.2677  0.2947 -0.3201
55315W        W98227  12.512   8.901  17.285 -0.1792 -0.0131  0.1315
55316W        W98228  12.242   7.951  19.408  0.3046 -0.1825  0.3297
55317W        W98229  12.541  11.998  17.004  0.0156 -0.3458 -0.1604
55318W        W98230  15.212   8.812  18.908 -0.0909  0.0868  0.2905
55319W        W98231  11.790   8.133  17.594  0.0008 -0.0085  0.0389
55320W        W98232  16.167   9.917  15.951 -0.0622  0.2228  0.3317
55321W        W98233  12.895  10.474  17.195 -0.0273  0.0332  0.3351
55322W        W98234  13.918  10.085  19.781  0.1322  0.0122  0.1379
55323W        W98235  12.131  10.341  19.043 -0.0191 -0.0635 -0.1030
55324W        W98236  12.640   9.659  16.626  0.1575  0.1370 -0.1485
55325W        W98237  10.587   7.118  18.894  0.1242  0.4223  0.0238
55326W        W98238  13.131   9.583  17.205  0.0588  0.2084  0.3559
55327W        W98239  13.314   8.434  17.616 -0.1486 -0.1815 -0.0104
55328W        W98240  13.081   8.279  17.998  0.1292  0.1506 -0.0625
55329W        W98241  13.281   8.027  17.298  0.1068 -0.0013 -0.2144
55330W        W98242  15.041   8.051  17.203 -0.1231 -0.2205 -0.2090
55331W        W98243  10.675  10.365  19.513  0.1452 -0.0647  0.3320
55332W        W98244  12.787   8.438  17.456 -0.0064  0.0788  0.1613
55333W        W98245  12.654  10.891  22.496  0.0480  0.2302  0.3326
55334W        W98246  10.835   7.492  21.098  0.2347  0.1364  0.0479
55335W        W98247  14.088   8.780  19.434 -0.2162 -0.0550  0.3815
55336W        W98248  14.332   9.624  20.522  0.0375 -0.3013  0.0406
55337W        W98249  10.293   8.468  21.052 -0.1665 -0.2786  0.1273
55338W        W98250  12.778  11.573  20.563  0.0226  0.3271  0.2510
55339W        W98251  12.936   7.451  22.888 -0.0845 -0.0719 -0.1668
55340W        W98252  13.502   9.352  21.745  0.0794  0.1306  0.0787
55341W        W98253  14.534   8.947  21.896 -0.0362 -0.0986  0.2183
55342W        W98254  14.555  10.045  19.240  0.0052  0.0194 -0.3083
55343W        W98255  11.879   9.093  21.839  0.1030 -0.1758 -0.1709
55344W        W98256  12.424  10.191  20.781  0.1876 -0.0574  0.0810
55345W        W98257  12.811   7.939  20.244  0.2431 -0.0559 -0.0274
55346W        W98258  12.569   7.568  22.089 -0.0027  0.0869  0.0116
55347W        W98259  13.979   9.044  21.682 -0.0555 -0.1579 -0.1067
55348W        W98260  10.640   8.596  20.143  0.1609  0.2156 -0.0692
55349W        W98261  12.317   8.408  22.694  0.0750 -0.0229  0.1148
55350W        W98262  13.128   8.192  21.060 -0.2943  0.2905 -0.2259
55351W        W98263  11.649  11.397  21.378  0.1480 -0.0286 -0.2397
55352W        W98264  13.132   9.011  23.297 -0.2937  0.3531  0.1607
55353W        W98265  13.716   6.602  23.434 -0.2278  0.0893  0.0449
55354W        W98266  12.043   9.820  20.103  0.1264 -0.1777 -0.1828
55355W        W98267   9.916   7.564  19.445 -0.2230 -0.0953 -0.4274
55356W        W98268   8.972   8.883  21.448  0.0075  0.3002  0.1007
55357W        W98269  12.649   9.218  23.060 -0.1243 -0.0237  0.0540
55358W        W98270  13.661   7.592  20.666  0.1289 -0.2295  0.1528
55359W        W98271  11.507   8.844  22.442  0.0403 -0.0923 -0.2420
55360W        W98272  12.726  10.515  22.781  0.3607  0.4972 -0.0498
55361W        W98273  13.696  10.839  22.120  0.0374  0.0283  0.0163
55362W        W98274  15.142   7.564  22.160  0.0355  0.0871 -0.0523
55363W        W98275  11.113   8.820  20.789  0.2754 -0.2719 -0.1988
55364W        W98276  10.644   9.418  20.534  0.3026  0.1800  0.4213
55365W        W98277  11.717  10.314  21.200  0.3976  0.0164 -0.3394
55366W        W98278  14.763   9.015  21.146  0.2049  0.1484 -0.1502
55367W        W98279  15.277  10.076  23.772 -0.0907 -0.1777  0.2926
55368W        W98280  11.458   9.757  23.645  0.0022 -0.1892  0.1803
55369W        W98281  10.066  10.020  20.206  0.1823  0.0061  0.1620
55370W        W98282  11.923  10.092  22.745  0.1829 -0.1241 -0.0203
55371W        W98283  11.862  10.602  22.839  0.0077  0.1235  0.0067
55372W        W98284  11.851   9.077  20.295  0.0827 -0.1904 -0.0217
55373W        W98285  13.210   8.154  22.313  0.0290  0.0434 -0.0171
55374W        W98286  11.813   9.871  20.920 -0.1560 -0.0744  0.1039
55375W        W98287  11.418   9.650  21.158  0.0236  0.0872  0.0521
55376W        W98288  12.513  11.075  24.330  0.1881 -0.0313  0.4610
55377W        W98289  11.282   9.564  22.035  0.1895 -0.2170  0.0409
55378W        W98290  15.263   8.716  24.870  0.3069 -0.0426 -0.1211
55379W        W98291  10.975   9.426  20.148  0.0484 -0.0415 -0.3020
55380W        W98292  14.694   8.845  20.162  0.4130  0.2624  0.3494
55381W        W98293  10.444   8.105  20.649 -0.1699 -0.1079 -0.0085
55382W        W98294  13.655   8.013  20.427  0.3335 -0.0338  0.1424
55383W        W98295  12.498   7.510  19.614  0.1512  0.2438  0.1745
55384W        W98296  11.336  10.541  21.337  0.1918 -0.0172  0.0161
55385W        W98297  10.586   8.713  22.183 -0.2087 -0.0130 -0.3721
55386W        W98298  13.870   9.481  22.576  0.1027 -0.1200 -0.1052
55387W        W98299  12.946   8.616  19.190  0.1210  0.1149  0.2119
55388W        W98300  13.969   7.679  21.121  0.0260  0.0799 -0.0678
55389W        W98301  12.011   9.255  23.282 -0.1634 -0.2476  0.1948
55390W        W98302   9.877   8.518  20.731 -0.0729 -0.0374  0.1118
55391W        W98303  14.323  10.405  20.003 -0.3296 -0.2118 -0.2109
55392W        W98304  11.777  10.811  21.204 -0.0827  0.1505  0.1766
55393W        W98305  12.519   9.825  19.908 -0.0136 -0.6968  0.1265
55394W        W98306   9.454   7.704  21.176  0.0899  0.0570 -0.2202
55395W        W98307  11.121   9.337  22.824 -0.0235 -0.3221 -0.0213
55396W        W98308  11.937   8.345  23.065 -0.4155 -0.1059 -0.2376
55397W        W98309  12.560   7.977  19.778 -0.2121 -0.1364  0.1165
55398W        W98310  15.680   9.480  23.425 -0.0159 -0.1577  0.2987
55399W        W98311  11.088   9.105  22.280  0.2695 -0.2271  0.0420
55400W        W98312  14.139   8.955  20.116 -0.1709 -0.0204  0.0531
55401W        W98313  12.152  10.050  21.767 -0.1358 -0.0751  0.0390
55402W        W98314  13.867   8.512  21.479  0.5010  0.0036  0.0535
55403W        W98315  13.692   8.063  20.962  0.0252 -0.0675  0.0124
55404W        W98316  13.299   7.492  22.503 -0.1725 -0.2764  0.2340
55405W        W98317  13.620   6.878  23.041  0.3133  0.1051 -0.0291
55406W        W98318  10.798   8.989  19.242 -0.2549 -0.0243  0.3315
55407W        W98319  12.164   8.989  19.941  0.3352  0.1054  0.1280
55408W        W98320  15.385   9.923  20.479  0.0990  0.1507  0.0275
55409W        W98321  14.086   9.294  18.655 -0.0745 -0.0680 -0.1858
55410W        W98322  12.801  10.611  22.078  0.1972 -0.0162 -0.0806
55411W        W98323  13.328   7.813  23.249  0.2576 -0.1032  0.3221
55412W        W98324  13.535   9.549  23.540 -0.0084 -0.0774  0.2943
55413W        W98325  10.769  10.506  20.437  0.1219 -0.1589  0.0497
55414W        W98326  10.741  10.092  20.760 -0.2722  0.0063 -0.0727
55415W        W98327  10.543   9.861  20.319 -0.0773 -0.2663 -0.0445
55416W        W98328   9.923   8.071  20.997  0.2720 -0.1074 -0.0559
55417W        W98329  11.501   9.380  23.329  0.3294  0.0867 -0.1375
55418W        W98330  14.178   8.275  20.299  0.0471  0.1025  0.1753
55419W        W98331  13.353   7.129  23.347  0.0212  0.3146  0.1926
55420W        W98332  13.063   7.298  19.517  0.0415  0.3348 -0.0333
55421W        W98333   9.748   9.898  19.509 -0.5015  0.0638 -0.0781
55422W        W98334  14.983   9.310  19.631  0.0677  0.0072 -0.0526
55423W        W98335  14.625   8.430  22.021  0.1361 -0.0597  0.0393
55424W        W98336  13.892   9.038  17.586  0.1970 -0.4538 -0.0024
55425W        W98337  10.284   9.276  22.865  0.3493  0.0996  0.0624
55426W        W98338  11.384   8.357  21.577 -0.1778 -0.2215 -0.1288
55427W        W98339  12.124   8.549  22.142  0.0652 -0.0770  0.0355
55428W        W98340   9.556   8.149  22.386 -0.0541 -0.0751  0.2067
55429W        W98341  13.871   9.105  22.196  0.0579 -0.0060 -0.3057
55430W        W98342  10.591   8.036  21.131 -0.2458 -0.0031  0.1214
55431W        W98343  13.374   7.657  20.232  0.1672  0.0461  0.0816
55432W        W98344  10.061   8.194  21.489 -0.1317 -0.1975  0.2816
55433W        W98345  11.340   9.159  20.448  0.0729  0.0346  0.0324
55434W        W98346  13.427   7.430  22.939  0.2369 -0.1483  0.2708
55435W        W98347  12.491   9.350  19.725 -0.2173 -0.0147 -0.3056
55436W        W98348  15.333  10.594  22.567  0.0845 -0.1286  0.4306
55437W        W98349  12.276  10.325  21.302 -0.0878 -0.1792  0.3191
55438W        W98350  11.996   6.980  23.711 -0.5077  0.0556 -0.0525
55439W        W98351  10.837   8.398  20.892 -0.2763 -0.0124 -0.3841
55440W        W98352  10.292  11.591  21.174  0.1591 -0.0890 -0.1060
55441W        W98353  11.845   9.427  21.082  0.3121  0.0422  0.5318
55442W        W98354  12.461   8.553  21.237 -0.0927 -0.2270 -0.2982
55443W        W98355  13.853  10.355  22.734 -0.1994 -0.0272  0.0351
55444W        W98356  14.475  10.259  21.404 -0.0336 -0.0532  0.1162
55445W        W98357  10.675   9.300  23.662 -0.3506 -0.1390  0.2906
55446W        W98358  13.975   7.100  22.731  0.1246  0.0996  0.2004
55447W        W98359  13.752  10.049  22.264  0.1093  0.2311 -0.0593
55448W        W98360  12.934   7.724  21.172 -0.0017  0.0149  0.4485
55449W        W98361  11.955   7.937  19.943  0.0902  0.2777  0.1610
55450W        W98362  13.115  11.172  19.886  0.3254  0.3427  0.0469
55451W        W98363   9.844  11.026  20.345 -0.2378  0.1541  0.1395
55452W        W98364  10.812   8.969  20.420 -0.5115  0.0155 -0.1047
55453W        W98365  13.423   9.393  20.974 -0.0661  0.0113  0.0133
55454W        W98366  14.955   7.464  20.994  0.0910  0.3290 -0.1031
55455W        W98367  13.424   8.611  23.100  0.3169 -0.0659  0.2577
55456W        W98368  13.406   7.411  24.225 -0.0687  0.2538  0.0961
55457W        W98369   9.445   7.888  19.406 -0.0749 -0.1167  0.1877
55458W        W98370  11.062   8.625  21.887  0.0848 -0.0849  0.0682
55459W        W98371  13.209   6.891  20.212  0.0628 -0.0207  0.2523
55460W        W98372  14.926   6.641  20.934 -0.0542  0.1104  0.1461
55461W        W98373  13.705   7.851  22.975  0.0083 -0.2061  0.0168
55462W        W98374  13.991  10.460  21.406  0.2353  0.3017 -0.0133
55463W        W98375  13.118   7.839  19.764 -0.1699  0.0021  0.0551
55464W        W98376  12.726   7.638  19.111  0.1258  0.2170 -0.1375
55465W        W98377  10.659   9.193  22.502  0.1633 -0.3010  0.2516
55466W        W98378  13.348   9.539  20.117 -0.0077  0.0321  0.0923
55467W        W98379  13.120   9.488  22.121 -0.1370 -0.3868 -0.0431
55468W        W98380  12.889   8.963  21.749  0.2976  0.1418  0.2895
55469W        W98381  14.270  10.455  20.927  0.3563 -0.0490 -0.1932
55470W        W98382   9.948   9.595  21.080  0.1008  0.0535 -0.1200
55471W        W98383  14.299   8.575  22.837 -0.3577  0.0441 -0.2004
55472W        W98384  13.227  10.524  19.265 -0.1496 -0.0862  0.1765
55473W        W98385  13.805   7.548  22.483  0.1204 -0.0227 -0.3014
55474W        W98386  12.599   9.343  20.652  0.2207  0.2377  0.0654
55475W        W98387  13.668   8.133  22.457 -0.2909 -0.0969 -0.4661
55476W        W98388   9.460  11.140  20.671 -0.0234 -0.0664 -0.2637
55477W        W98389  16.194   7.487  21.651 -0.1601 -0.0352  0.2879
55478W        W98390  14.929   7.901  21.728  0.3217  0.1184 -0.0980
55479W        W98391  12.930   6.424  23.761 -0.0039 -0.0816 -0.1458
55480W        W98392  14.518   7.899  23.354 -0.0494  0.0357 -0.0105
55481W        W98393  13.172   8.406  21.544 -0.1472 -0.3073  0.0205
55482W        W98394  12.761   8.654  22.959  0.1140 -0.1037  0.1266
55483W        W98395  11.559   8.398  20.437 -0.0511  0.0803 -0.0822
55484W        W98396  14.155   7.866  22.465 -0.0740 -0.2301  0.0471
55485W        W98397  12.424   8.925  24.262 -0.2178  0.4634 -0.3166
55486W        W98398   9.924  11.053  22.412 -0.0634  0.1818  0.0440
55487W        W98399  12.975   9.564  23.336  0.0762 -0.2510  0.0924
55488W        W98400  13.674   9.120  19.935  0.1948  0.1122  0.0007
55489W        W98401  13.781   7.107  23.762 -0.0095 -0.0630 -0.3050
55490W        W98402  13.828   8.548  20.031 -0.2021  0.2672  0.1372
55491W        W98403  11.192  12.029  20.235 -0.3514  0.1065  0.2687
55492W        W98404  12.240   9.353  20.225  0.4367 -0.0230 -0.0319
55493W        W98405  13.989   6.519  22.943 -0.0783 -0.2395  0.1314
55494W        W98406  14.054   8.853  21.180  0.3217  0.2267  0.1065
55495W        W98407  12.059   8.388  19.175 -0.2101  0.0455 -0.0524
55496W        W98408  12.699   9.413  22.452 -0.0490 -0.2759 -0.3333
55497W        W98409  11.070  10.558  19.924 -0.1705  0.0333  0.1379
55498W        W98410  14.259   6.585  23.399 -0.2869  0.1178  0.0055
55499W        W98411  10.173  10.387  21.168 -0.1122  0.3563 -0.0167
55500W        W98412  10.880   8.423  21.447 -0.0171  0.2120  0.0449
55501W        W98413  10.396   7.733  19.896 -0.3173  0.0969 -0.1458
55502W        W98414  13.794   7.215  21.279  0.2048 -0.0533  0.1911
55503W        W98415  15.361   9.042  19.355 -0.3085 -0.1830 -0.2347
55504W        W98416  11.778   8.289  21.301  0.0421  0.2970 -0.3415
55505W        W98417  13.553   7.039  22.525 -0.0845  0.0216  0.1979
55506W        W98418  10.721   9.867  22.072  0.5998 -0.2477 -0.3222
55507W        W98419  12.730   6.779  25.107 -0.0084  0.1654  0.2045
55508W        W98420  14.541   8.371  20.587 -0.1405  0.0884 -0.2946
55509W        W98421  13.885   9.471  23.142 -0.3031 -0.1388  0.3688
55510W        W98422  12.055   7.766  25.148  0.0605  0.1889  0.2247
55511W        W98423  10.886   9.032  18.220 -0.1081  0.0378 -0.1486
55512W        W98424  15.037   8.748  22.043  0.2987  0.1877 -0.1090
55513W        W98425  11.784   7.779  21.224 -0.1461  0.0281  0.2343
55514W        W98426  11.737  10.042  20.403  0.4035  0.0573  0.1328
55515W        W98427  13.333   9.007  21.426 -0.0442  0.1199  0.0430
55516W        W98428  10.611   8.871  20.892  0.2133  0.5130  0.1397
55517W        W98429  11.921   9.963  21.391  0.1334  0.0179  0.1847
55518W        W98430  11.682   8.756  23.151 -0.0038 -0.0525 -0.1048
55519W        W98431  14.106   9.496  21.890  0.1380 -0.1504 -0.1789
55520W        W98432  10.480   9.310  21.477 -0.0063  0.0881  0.0819
55521W        W98433  11.396   7.635  21.498 -0.0372  0.1591  0.0298
55522W        W98434  12.557   8.345  20.190 -0.3116  0.0418  0.1650
55523W        W98435  13.976   9.540  20.933 -0.0484  0.0405 -0.0841
55524W        W98436  13.460   8.225  24.230 -0.1972  0.1322 -0.1112
55525W        W98437  11.969  11.075  22.044  0.0678  0.0485 -0.2153
55526W        W98438  12.776   7.172  20.605  0.2737  0.3019 -0.1732
55527W        W98439  11.659  10.061  19.886  0.0270  0.0167 -0.1043
55528W        W98440  13.650   9.545  22.133  0.0450  0.3160 -0.0215
55529W        W98441  11.438   9.133  19.932 -0.0614  0.0003 -0.2822
55530W        W98442  11.099   9.407  21.524 -0.0205 -0.0847  0.1219
55531W        W98443  10.566   8.097  20.156  0.0171  0.2008 -0.4033
55532W        W98444  12.854   7.910  23.095  0.3261  0.0645  0.0074
55533W        W98445  11.619  10.057  21.746  0.2555 -0.2139  0.2331
55534W        W98446   9.546   9.287  20.258 -0.3309  0.2178 -0.1282
55535W        W98447  10.089   9.109  20.535 -0.1966 -0.0386 -0.2542
55536W        W98448  13.656   7.184  20.428 -0.2873  0.1999 -0.0146
55537W        W98449  12.129   9.365  19.267  0.1540 -0.2694 -0.0303
55538W        W98450  12.728   8.145  21.402  0.2309 -0.1751  0.0255
55539W        W98451  14.807   7.095  22.399 -0.3064  0.0677 -0.0769
55540W        W98452  12.889   9.380  18.055  0.1146 -0.1987  0.0499
55541W        W98453  14.831   7.814  22.959  0.0254  0.1652  0.0130
55542W        W98454  13.041   7.065  21.874  0.3498 -0.1149 -0.1476
55543W        W98455  13.324  11.571  19.974 -0.2039 -0.2418  0.0778
55544W        W98456  11.659   7.860  23.349  0.1605  0.0668 -0.2021
55545W        W98457  12.040  11.212  24.279 -0.0270 -0.2317  0.1255
55546W        W98458  11.642   9.117  22.811  0.3721 -0.4416 -0.0721
55547W        W98459  13.133   7.828  21.644 -0.1734  0.0782  0.1345
55548W        W98460  10.410   7.205  21.184  0.0333  0.0132  0.3936
55549W        W98461  13.559   8.855  21.863  0.2612  0.1656  0.1238
55550W        W98462  14.245   8.903  22.433  0.0299  0.0581  0.4279
55551W        W98463  11.965  10.496  21.665 -0.1831  0.0622  0.1837
55552W        W98464  13.951   9.246  20.539  0.1876  0.1262 -0.2052
55553W        W98465  12.346   9.651  22.054 -0.3024  0.0396  0.2347
55554W        W98466  13.503   8.580  21.183  0.4123 -0.1096 -0.1178
55555W        W98467  12.906   9.597  19.729  0.0410  0.4553 -0.0059
55556W        W98468  11.614   8.570  21.986  0.0710  0.2494  0.1422
55557W        W98469  13.165   6.673  23.412  0.1265 -0.4913 -0.2811
55558W        W98470  13.521   9.714  21.401  0.0265  0.1732  0.2324
55559W        W98471  14.591   6.906  21.301  0.1158  0.0209  0.1296
55560W        W98472  14.202   7.470  23.573  0.0610  0.0169  0.0515
55561W        W98473  13.765   8.648  22.367 -0.0169 -0.1790  0.2109
55562W        W98474  13.225   8.016  23.775 -0.2823  0.1477  0.1741
55563W        W98475  11.526   7.052  23.936  0.1917 -0.0387 -0.1704
55564W        W98476  14.346  10.225  22.586  0.0836 -0.0693 -0.1156
55565W        W98477  13.040   9.125  19.427 -0.3273  0.1195  0.1583
55566W        W98478  13.838   8.428  20.646 -0.2258 -0.0368 -0.0016
55567W        W98479  14.350   7.686  21.512  0.0658 -0.1367 -0.0012
55568W        W98480  12.096   8.964  21.170  0.1221 -0.1012  0.0154
55569W        W98481   9.976   9.218  21.467 -0.4232 -0.1102 -0.1532
55570W        W98482  14.683   8.352  23.016  0.0443  0.1946 -0.1558
55571W        W98483  12.989   7.259  21.040  0.0381  0.3603  0.2554
55572W        W98484  13.772   6.162  23.965  0.0572 -0.2022 -0.0752
55573W        W98485  12.112   9.881  19.585  0.0801  0.0725 -0.0534
55574W        W98486  13.601   9.644  20.573  0.1181 -0.2612  0.1592
55575W        W98487  14.013   8.610  21.929 -0.1515 -0.3796 -0.3830
55576W        W98488   8.540   8.967  20.542 -0.1352 -0.2034 -0.0708
55577W        W98489  11.481  10.297  22.988 -0.0650 -0.1906  0.4497
55578W        W98490   9.967   7.936  19.802  0.0130 -0.2284  0.4351
55579W        W98491  13.089   9.494  21.375 -0.0086 -0.2567 -0.5002
55580W        W98492  12.190   9.723  20.610 -0.0845 -0.0583  0.1283
55581W        W98493  14.487   8.856  23.721 -0.0704  0.0010 -0.1716
55582W        W98494  13.923   7.265  19.836 -0.0259  0.0224 -0.0408
55583W        W98495  15.655   7.990  22.744  0.1773  0.0371 -0.0011
55584W        W98496  11.242  10.211  20.489 -0.0248  0.3893  0.2135
55585W        W98497  13.326   7.314  21.535 -0.1004 -0.0157  0.1824
55586W        W98498  12.322  10.511  21.978  0.0226  0.1605  0.0890
55587W        W98499  11.450   9.133  21.160  0.1347  0.1779  0.1366
55588W        W98500  12.610  10.526  20.389 -0.1003 -0.0002 -0.1217
55589W        W98501  12.664   6.726  22.249 -0.0563  0.0266  0.1128
55590W        W98502  13.606   7.843  22.036  0.0973  0.1434  0.0434
55591W        W98503  12.356   9.053  21.610 -0.1338 -0.1336  0.0102
55592W        W98504  14.597   9.985  20.906  0.0797  0.1882  0.1146
55593W        W98505  12.040  10.087  22.245  0.1121  0.1760 -0.1651
55594W        W98506  13.405   9.135  22.417  0.0055  0.1767  0.0973
55595W        W98507  13.291   9.616  24.094 -0.3583 -0.2606  0.0749
55596W        W98508  14.394   8.552  19.853  0.0268  0.0118  0.0888
55597W        W98509  12.492   8.946  22.631 -0.0251 -0.3559  0.1495
55598W        W98510  11.251   8.782  22.899  0.2593  0.0226  0.0636
55599W        W98511  12.319  10.246  23.095 -0.0469  0.2847  0.4836
55600W        W98512  11.784   8.124  21.873  0.2561  0.3097  0.2064
55601W        W98513  11.724   8.084  20.873 -0.0881  0.1870  0.2816
55602W        W98514  12.785   9.352  20.207 -0.0703  0.0531 -0.1838
55603W        W98515  10.147  10.785  22.854  0.0915  0.1035 -0.2771
55604W        W98516   9.783   9.961  21.805  0.2259 -0.1793  0.0380
55605W        W98517  10.476  11.658  20.000  0.1366  0.0268 -0.2731
55606W        W98518  13.760   9.600  19.369  0.1841  0.1689  0.1730
55607W        W98519  13.667   8.962  20.842 -0.0328  0.0044  0.1177
55608W        W98520  11.999   9.655  22.505 -0.1955 -0.2634  0.1464
55609W        W98521  12.392   7.678  20.188 -0.0189  0.2320  0.0445
55610W        W98522   9.902   9.596  20.536  0.1036  0.1844 -0.3364
55611W        W98523  11.025  10.663  21.678  0.0500  0.1636  0.2615
55612W        W98524  12.523   9.751  19.337  0.0903 -0.1505 -0.4569
55613W        W98525  11.026   9.344  20.911  0.2038  0.0710 -0.1648
55614W        W98526  15.252   8.152  22.978  0.0339  0.0967  0.0084
55615W        W98527  13.308   6.841  18.697  0.1106  0.3062 -0.0842
55616W        W98528  14.214   8.419  21.007 -0.3277 -0.3836  0.1291
55617W        W98529  14.634   7.414  21.992  0.0577 -0.0238  0.2018
55618W        W98530  13.081  10.097  24.182  0.0176  0.0896 -0.0177
55619W        W98531  11.439   8.570  21.069  0.2446  0.0033 -0.1816
55620W        W98532  12.786   8.955  20.471  0.0875  0.3768 -0.0308
55621W        W98533  12.258   9.883  24.751  0.1143  0.0449  0.0484
55622W        W98534  14.793   5.805  22.604 -0.1413 -0.1170 -0.2073
55623W        W98535  11.603   8.911  24.114 -0.0953 -0.2303 -0.0480
55624W        W98536  14.355   9.019  19.085 -0.3243  0.1771  0.0660
55625W        W98537   9.199   9.583  20.080  0.0379  0.1203 -0.2302
55626W        W98538  11.688   8.901  20.693 -0.0254 -0.3067 -0.1811
55627W        W98539  15.597   7.502  21.894 -0.0798 -0.1870 -0.0008
55628W        W98540  11.847   8.265  19.613  0.0419 -0.0177  0.2946
55629W        W98541  14.474   7.879  21.973 -0.2551 -0.0337  0.2573
55630W        W98542  11.658  10.957  21.700 -0.1046 -0.2202 -0.2819
55631W        W98543  11.847   9.577  22.076  0.1614 -0.1319 -0.2858
55632W        W98544  11.137  10.927  22.082  0.0179 -0.0893 -0.1583
55633W        W98545   9.027   7.646  19.121 -0.3982  0.2031 -0.0859
55634W        W98546  14.382   7.371  21.100 -0.0339  0.3048 -0.0624
55635W        W98547  11.998   7.556  22.954 -0.2524  0.3698 -0.1266
55636W        W98548  14.047   8.156  21.816  0.2951 -0.0835 -0.5350
55637W        W98549  12.707   9.447  21.723 -0.2156 -0.3285  0.2175
55638W        W98550  13.042   7.554  22.028 -0.3167  0.3983 -0.1208
55639W        W98551  12.795   8.174  22.659 -0.1568 -0.0734 -0.1200
55640W        W98552  10.547   9.659  22.556  0.2383  0.0683  0.0356
55641W        W98553  13.091   9.697  19.228 -0.0332 -0.0518 -0.1410
55642W        W98554  14.757   9.546  22.631 -0.0330  0.0474 -0.1416
55643W        W98555  13.054   9.087  19.906 -0.1612 -0.0491  0.0321
55644W        W98556  14.333  10.753  22.782 -0.0882 -0.1721  0.1195
55645W        W98557  12.031   9.154  22.338 -0.3357 -0.0432 -0.0796
55646W        W98558  13.184   8.799  20.750  0.2753  0.0645  0.0580
55647W        W98559  10.147   8.997  21.984  0.1659 -0.3146 -0.2163
55648W        W98560  12.979   9.506  22.839  0.2862  0.0518  0.3287
55649W        W98561  14.815  10.246  23.893 -0.1167 -0.1710  0.0472
55650W        W98562  11.635   7.301  21.920  0.0679 -0.1871  0.0563
55651W        W98563  14.285   9.522  20.010  0.3864  0.2008  0.0765
55652W        W98564  14.180   9.227  22.844  0.1042  0.0306 -0.2094
55653W        W98565  10.075  11.324  19.530 -0.0644  0.1962 -0.0173
55654W        W98566  15.271   8.942  21.121 -0.0876  0.1309  0.2498
55655W        W98567  12.620   8.495  22.270 -0.4629  0.2378  0.2432
55656W        W98568  10.184   9.857  22.075 -0.1726 -0.0790 -0.0107
55657W        W98569  12.485   9.316  21.230 -0.0347 -0.0016  0.0526
55658W        W98570  14.806   8.591  22.446  0.3194  0.1817  0.0492
55659W        W98571  13.812   7.677  21.618  0.0066  0.0935 -0.0717
55660W        W98572  12.061   8.582  21.650 -0.1830  0.2709  0.3411
55661W        W98573  10.874  11.012  20.233 -0.5716  0.4309  0.5101
55662W        W98574  14.320   5.745  22.637 -0.1662  0.2186 -0.0633
55663W        W98575  15.668   8.601  23.974 -0.3516 -0.1849 -0.0213
55664W        W98576  10.376  11.176  19.989 -0.4698 -0.4765  0.1595
55665W        W98577  13.789   8.272  23.804 -0.0618  0.0347  0.0182
55666W        W98578  13.217  10.152  22.746  0.1525 -0.2520 -0.1272
55667W        W98579  11.848   9.931  24.055 -0.1037 -0.1710 -0.0384
55668W        W98580   9.496   8.181  20.768  0.1298  0.1200  0.0570
55669W        W98581  12.226   9.756  22.992  0.1456 -0.2648 -0.2683
55670W        W98582  12.747  10.187  21.128 -0.2464  0.1321 -0.1967
55671W        W98583  12.459  10.357  19.962  0.1931  0.0631 -0.3612
55672W        W98584  13.525  10.222  21.384 -0.0604 -0.3309  0.0072
55673W        W98585  12.532   9.891  21.479 -0.2648  0.1221  0.3441
55674W        W98586  14.332  10.117  21.850 -0.0381  0.2590  0.0488
55675W        W98587  12.855   7.709  22.490  0.1926  0.3504  0.1029
55676W        W98588  13.457   6.924  19.585 -0.0923 -0.0603  0.0379
55677W        W98589  14.391   7.463  20.550 -0.0479 -0.0142  0.0553
55678W        W98590  10.869   8.972  21.317 -0.1732  0.0331  0.2228
55679W        W98591   9.145   8.549  19.855 -0.3093  0.2489  0.0666
55680W        W98592   9.938   9.471  19.554 -0.0332  0.1700  0.1915
55681W        W98593  10.122   9.350  22.342 -0.0928 -0.0057  0.2495
55682W        W98594  13.407   6.162  23.558  0.0104 -0.1947 -0.0018
55683W        W98595  11.305   8.354  22.313 -0.1643  0.0994 -0.2145
55684W        W98596  11.668   9.500  21.617  0.1170  0.0289 -0.2191
55685W        W98597  10.298   6.719  20.547 -0.3820 -0.0198 -0.0808
55686W        W98598  13.756   9.643  19.846 -0.1329  0.2226  0.0271
55687W        W98599  11.951   8.167  22.429 -0.0520  0.2188 -0.3739
55688W        W98600   9.437   7.385  19.443  0.0061  0.0886 -0.1571
55689W        W98601  12.974  10.023  20.054  0.1983  0.1333  0.0479
55690W        W98602  14.676  10.706  20.507 -0.1627  0.1762  0.1089
55691W        W98603  13.580   6.529  22.625  0.1892 -0.0516  0.0244
55692W        W98604  14.393   9.515  23.862  0.1814  0.0067 -0.2634
55693W        W98605   9.950   8.154  19.343 -0.0258 -0.1637 -0.0950
55694W        W98606  13.997   7.960  23.440 -0.5470 -0.1162  0.1200
55695W        W98607  12.503   8.428  24.072  0.0238 -0.3300 -0.1544
55696W        W98608  11.522   7.144  19.855 -0.1178  0.1552  0.0258
55697W        W98609  12.799   8.002  22.015  0.0833  0.2116  0.4620
55698W        W98610  11.994  10.300  20.776 -0.1158 -0.0516  0.0617
55699W        W98611  13.080  10.532  20.244  0.1238  0.4379  0.0238
55700W        W98612  12.240  10.440  22.516 -0.0100  0.0798  0.1009
55701W        W98613  11.856  10.120  23.249 -0.0616 -0.2430  0.1369
55702W        W98614  10.404   7.547  23.448  0.0956  0.3892  0.0271
55703W        W98615  13.598   8.107  21.505 -0.1410 -0.0059 -0.3621
55704W        W98616  12.647  10.551  23.307  0.2113  0.1677  0.0189
55705W        W98617  14.002   9.995  20.224  0.1197  0.2753 -0.1605
55706W        W98618  13.361   6.767  21.236 -0.0820 -0.3131  0.2340
55707W        W98619  12.126  10.760  20.748  0.0448 -0.0062 -0.1295
55708W        W98620  11.618   7.030  22.883 -0.0771 -0.2378  0.3269
55709W        W98621  11.690   9.387  23.968 -0.1959 -0.0525  0.2210
55710W        W98622  14.219   8.442  22.369 -0.2629 -0.0727  0.3071
55711W        W98623  12.212   8.091  21.101 -0.1110  0.0285 -0.3407
55712W        W98624  11.854   7.531  19.570  0.0067 -0.2059  0.0914
55713W        W98625  13.987  10.064  20.703 -0.0115  0.1320 -0.1445
55714W        W98626  10.337   7.955  22.665 -0.2834  0.3265 -0.0538
55715W        W98627  13.293   8.366  20.547  0.0848 -0.1648  0.2654
55716W        W98628  13.026   9.022  22.791  0.1732  0.1205 -0.0368
55717W        W98629  12.767   9.955  21.951 -0.0570  0.0768 -0.1593
55718W        W98630  14.315   9.781  22.810 -0.0896  0.3409  0.0106
55719W        W98631  10.329   8.639  20.543  0.0786  0.1271  0.0031
55720W        W98632  16.295   9.294  19.205  0.1498  0.2538 -0.1687
55721W        W98633  13.117  11.002  22.134 -0.1859 -0.0455  0.2907
55722W        W98634  14.622  10.130  24.928 -0.1961 -0.0805  0.1896
55723W        W98635  11.739   9.598  22.985 -0.1078  0.2298  0.0632
55724W        W98636  13.407   9.987  21.861 -0.2222 -0.0217 -0.1860
55725W        W98637  11.328   7.980  20.515 -0.1305 -0.1002  0.0293
55726W        W98638  12.120   9.227  20.745  0.1948 -0.4054  0.2754
55727W        W98639  13.028   8.604  20.189 -0.0310 -0.1469  0.0116
55728W        W98640  14.104  10.565  22.274  0.1827 -0.1195  0.3156
55729W        W98641  11.998   7.634  20.787  0.2711 -0.1751  0.0251
55730W        W98642  14.127   7.167  18.860 -0.4136  0.1339 -0.0388
55731W        W98643  10.902   9.717  21.155  0.1109 -0.0367 -0.0797
55732W        W98644  13.540   8.357  21.975 -0.2449  0.3149 -0.1386
55733W        W98645  12.242  10.736  26.038 -0.0016  0.1200 -0.1567
55734W        W98646  13.496   7.913  25.531  0.0600  0.2965 -0.0509
55735W        W98647  13.286   8.617  22.547  0.3709 -0.0783  0.1953
55736W        W98648  13.788   9.156  24.588  0.1002  0.1991 -0.3429
55737W        W98649  12.829   5.550  25.667  0.2467 -0.0942  0.2866
55738W        W98650  11.913  11.467  24.857  0.2403  0.2478 -0.1929
55739W        W98651  11.253   7.487  26.468  0.0044  0.1639  0.2536
55740W        W98652  15.463  12.191  26.086 -0.0472 -0.0059 -0.3352
55741W        W98653  15.465  10.919  25.358 -0.4385 -0.0169  0.1402
55742W        W98654  12.149   8.104  24.227 -0.1389 -0.1445  0.3086
55743W        W98655  13.099   9.310  26.241 -0.0240 -0.3471  0.0339
55744W        W98656  13.581  10.979  26.372  0.1111  0.0305  0.1658
55745W        W98657  12.586   7.819  24.046  0.0402  0.0179  0.0254
55746W        W98658  12.398   6.751  26.002 -0.1569  0.1140  0.2394
55747W        W98659  13.667  10.440  25.991  0.0136 -0.0819  0.0849
55748W        W98660  11.356   9.091  21.865 -0.0372 -0.3544 -0.0498
55749W        W98661  11.936   8.076  26.485 -0.2620  0.1448  0.0097
55750W        W98662  13.986   8.113  25.775 -0.3725  0.1492 -0.1125
55751W        W98663  13.295  11.403  26.717 -0.1137 -0.2089  0.0258
55752W        W98664  15.046   7.542  27.404 -0.0870 -0.0330  0.0828
55753W        W98665  14.745   7.861  28.300  0.0260 -0.1996  0.2394
55754W        W98666  13.026  10.360  24.586  0.0227  0.0897 -0.2450
55755W        W98667  11.172   7.484  24.111 -0.1096  0.1963  0.1256
55756W        W98668  12.123   8.617  27.060 -0.0570  0.2293 -0.2174
55757W        W98669  12.177   7.811  27.481 -0.2847 -0.2825  0.1496
55758W        W98670  13.743   8.999  26.016 -0.0027 -0.2443  0.1631
55759W        W98671  13.172   8.908  25.984 -0.0607 -0.0852  0.2074
55760W        W98672  13.068  10.875  25.108 -0.1122  0.0103  0.0485
55761W        W98673  13.061  10.648  25.807 -0.2076  0.1317 -0.2000
55762W        W98674  12.028   9.312  28.445  0.0710 -0.3127 -0.2726
55763W        W98675  11.878   8.913  26.754 -0.0863  0.2443 -0.1575
55764W        W98676   9.993  10.157  25.018  0.0416 -0.0068 -0.1468
55765W        W98677  12.166   9.570  24.288 -0.0475  0.1206 -0.0855
55766W        W98678  14.224   8.056  22.951  0.1313  0.1996 -0.0819
55767W        W98679  14.980  10.558  25.959 -0.0462 -0.0469 -0.0044
55768W        W98680  12.334  10.668  26.572 -0.1105 -0.0491 -0.1965
55769W        W98681  12.278  10.046  23.812 -0.1012 -0.3473  0.0426
55770W        W98682  12.945  11.616  27.028  0.0110  0.5189 -0.0147
55771W        W98683  12.922   9.799  26.281  0.1191 -0.0780 -0.1703
55772W        W98684  12.378   8.917  25.511  0.3090 -0.2359  0.0469
55773W        W98685  14.378  10.119  23.809 -0.0180 -0.0716  0.1036
55774W        W98686  12.003   8.615  24.227  0.2124  0.0410 -0.3984
55775W        W98687  12.799  10.192  25.937  0.0787 -0.2237  0.2988
55776W        W98688  13.068   8.844  26.560  0.1491 -0.1160 -0.1236
55777W        W98689  12.477   9.788  25.871  0.0188  0.3810  0.0266
55778W        W98690  13.646   6.395  26.586 -0.3568  0.1349  0.3252
55779W        W98691  12.522   9.429  24.588  0.1688 -0.0099 -0.1989
55780W        W98692  13.786   8.350  22.888 -0.1181  0.1006  0.5316
55781W        W98693  12.970   7.520  23.439 -0.2018  0.1106  0.3130
55782W        W98694  14.191   9.094  24.125  0.2109  0.1605 -0.0314
55783W        W98695  12.252   7.748  26.307 -0.1683 -0.0298 -0.0444
55784W        W98696  11.333  12.162  24.573 -0.1548  0.0108 -0.1357
55785W        W98697  12.663   8.220  25.698 -0.0017  0.0975  0.1306
55786W        W98698  13.426  10.071  27.989 -0.0106 -0.0950  0.0934
55787W        W98699  13.293   9.139  24.426  0.1535 -0.0236  0.1047
55788W        W98700  13.887   8.023  26.640  0.1592  0.2133  0.0532
55789W        W98701  11.418   9.421  26.508  0.2788  0.2355 -0.0862
55790W        W98702  11.618   8.260  27.520  0.0640 -0.2984 -0.0023
55791W        W98703  13.457  11.432  24.289  0.1661  0.1313  0.0915
55792W        W98704  15.335   9.578  23.867  0.1401 -0.2628  0.0866
55793W        W98705  13.093  10.468  23.710 -0.0093  0.1725 -0.0976
55794W        W98706  12.232   8.377  25.563 -0.2882  0.1473  0.0037
55795W        W98707  11.718  10.000  29.442 -0.1558 -0.1418  0.0497
55796W        W98708  11.208   7.841  26.999  0.2209  0.0382  0.0077
55797W        W98709  11.314   7.840  24.573 -0.0916 -0.1718  0.1465
55798W        W98710  13.895   8.533  26.831  0.0066  0.1388 -0.1627
55799W        W98711  10.908  10.069  26.494  0.0191  0.1574 -0.0399
55800W        W98712  14.441   8.181  24.511  0.0414  0.0624  0.2057
55801W        W98713  13.081   9.994  27.330  0.1572 -0.1926 -0.1069
55802W        W98714  14.800   8.743  25.133 -0.1416 -0.1531  0.2538
55803W        W98715  12.745  10.057  23.565 -0.0937  0.2720 -0.0447
55804W        W98716  13.902   6.556  25.296  0.1828  0.0829 -0.3119
55805W        W98717  13.685   7.024  25.705  0.0244  0.1536  0.2045
55806W        W98718  12.421   8.946  22.091  0.0321 -0.1968  0.1346
55807W        W98719  13.317   8.604  23.706  0.0819 -0.1577  0.0987
55808W        W98720  14.165  10.315  26.300  0.0991  0.0111  0.0779
55809W        W98721  15.267   8.868  22.452  0.0814 -0.2421  0.2275
55810W        W98722  12.458  10.748  25.246  0.0862 -0.0909 -0.3494
55811W        W98723  12.897   8.372  26.620  0.2475  0.2741  0.0527
55812W        W98724  12.877   9.994  27.894 -0.0620 -0.0154  0.2190
55813W        W98725  11.204  11.218  24.593 -0.1882 -0.0422  0.2994
55814W        W98726  11.687   8.508  26.483 -0.0959 -0.1174  0.0955
55815W        W98727  11.458  10.115  24.774  0.2275 -0.0576  0.0662
55816W        W98728  10.709   7.545  27.680 -0.0690  0.3210  0.1398
55817W        W98729  14.079   9.772  27.322  0.1314  0.0626 -0.3373
55818W        W98730  13.239   8.124  24.650  0.0803 -0.0641 -0.2666
55819W        W98731  12.191   7.774  25.820  0.1509 -0.2501  0.0703
55820W        W98732  14.353   7.687  25.826  0.3351  0.0882 -0.1279
55821W        W98733  12.264   8.838  23.122  0.1203  0.0836  0.0417
55822W        W98734  14.028  10.084  24.561  0.0251  0.1148  0.0906
55823W        W98735  13.919   7.289  24.252 -0.1883 -0.1501  0.0891
55824W        W98736  14.892   9.578  24.932 -0.1698  0.0671  0.4078
55825W        W98737  11.202   9.134  27.677 -0.1016  0.4474  0.1234
55826W        W98738  12.523   7.894  25.346  0.1276  0.1109  0.1548
55827W        W98739  12.085   7.227  25.938 -0.3030  0.1762 -0.0298
55828W        W98740  12.807   7.293  25.206 -0.0781  0.0476  0.2091
55829W        W98741  13.952   9.481  25.959  0.0671  0.0974  0.3339
55830W        W98742  11.820   6.799  24.997  0.1132 -0.2118 -0.0025
55831W        W98743  13.953   8.596  25.589  0.0051  0.0468  0.0302
55832W        W98744  11.790   8.822  24.695  0.0949  0.1210 -0.3483
55833W        W98745  11.603   8.061  25.025  0.1536 -0.1043 -0.0184
55834W        W98746  13.112   7.919  26.280 -0.0461  0.1137  0.2470
55835W        W98747  13.353  11.770  25.441  0.2066 -0.2969 -0.1605
55836W        W98748  14.265  11.474  24.616  0.0521 -0.0175  0.0683
55837W        W98749  14.321  10.490  24.685 -0.0227  0.1760 -0.0923
55838W        W98750  12.663   8.200  27.090  0.1997 -0.1588 -0.0534
55839W        W98751  12.530   7.978  24.586  0.2426 -0.1004 -0.3568
55840W        W98752  11.310  10.648  24.281 -0.2792  0.1817  0.1141
55841W        W98753  13.081   9.332  24.847  0.4031  0.5298 -0.4495
55842W        W98754  12.177   8.500  24.675  0.1547  0.1290  0.1279
55843W        W98755  15.437   9.255  26.189  0.0749 -0.0603  0.1674
55844W        W98756  12.285   9.015  24.733 -0.1795  0.0108 -0.0937
55845W        W98757  12.805   9.381  26.678 -0.2869 -0.2848 -0.3351
55846W        W98758  14.136   6.933  27.239  0.1459 -0.0573 -0.0321
55847W        W98759  14.645   8.758  26.347 -0.3903 -0.2481  0.0057
55848W        W98760  14.254   9.063  25.937  0.0771 -0.3086 -0.1237
55849W        W98761  11.633   8.440  22.693 -0.2794 -0.0452 -0.2347
55850W        W98762  12.956  11.697  25.011 -0.0835  0.3529 -0.2195
55851W        W98763  10.979   9.650  23.469 -0.0394  0.2730 -0.0897
55852W        W98764  11.793   7.853  25.556 -0.1248 -0.5065  0.0527
55853W        W98765  13.639  10.413  26.703 -0.0030 -0.2114 -0.0387
55854W        W98766  14.410   7.340  26.306 -0.0370 -0.1315 -0.0340
55855W        W98767  11.098   9.402  27.070 -0.0306  0.2547  0.1330
55856W        W98768  14.328   8.413  26.505  0.0284  0.0537 -0.2206
55857W        W98769  11.547   8.385  23.573  0.2384  0.1471 -0.0416
55858W        W98770  11.761   9.930  28.432  0.2305  0.3518 -0.0547
55859W        W98771  13.840   7.506  25.568 -0.1940 -0.2097  0.1325
55860W        W98772  13.519   8.221  23.369  0.5947  0.1098  0.0338
55861W        W98773  14.504   9.309  28.098 -0.0985 -0.1993 -0.0952
55862W        W98774  12.783   9.753  23.961 -0.0783  0.4987  0.2643
55863W        W98775  14.039   7.025  23.251  0.0539  0.2597  0.0849
55864W        W98776  13.787   8.172  24.705 -0.0698 -0.2174  0.1184
55865W        W98777  11.285  10.343  27.836 -0.0823 -0.0540  0.1004
55866W        W98778  13.526  10.823  24.888 -0.0258 -0.2180 -0.0081
55867W        W98779  13.522  10.112  24.751 -0.1878  0.1140 -0.3199
55868W        W98780  13.667   8.965  22.767  0.0588 -0.1655  0.1933
55869W        W98781  14.186  10.322  25.170  0.1363  0.1042  0.0759
55870W        W98782  11.707   8.376  25.442  0.0374 -0.2399  0.0814
55871W        W98783  13.449   9.603  27.189 -0.0421 -0.0291  0.0560
55872W        W98784  13.740   9.272  26.435 -0.1070  0.2897 -0.2214
55873W        W98785  12.107   8.139  27.081 -0.2371  0.2996 -0.0388
55874W        W98786  12.134   9.216  23.813  0.0267 -0.1332 -0.2586
55875W        W98787  13.264   5.922  25.646 -0.1780  0.0407 -0.0783
55876W        W98788  11.430  10.162  24.271 -0.0199 -0.1600  0.0981
55877W        W98789  15.004   7.007  28.125  0.0482 -0.0917 -0.0068
55878W        W98790  13.832   8.366  26.206 -0.0350  0.0275  0.1265
55879W        W98791  13.146   6.095  26.953  0.2637  0.0484  0.3132
55880W        W98792  14.304   9.249  27.120  0.3890 -0.2061  0.2360
55881W        W98793  13.968   8.856  23.117  0.4327 -0.0797 -0.0642
55882W        W98794  14.094   9.698  27.965  0.1024 -0.1621  0.0783
55883W        W98795  12.621   9.165  23.673  0.3174  0.1672  0.0849
55884W        W98796  13.299   7.332  26.387  0.1596  0.2897  0.3055
55885W        W98797  11.974   8.775  27.545  0.3210  0.1116 -0.2151
55886W        W98798  12.260  10.161  27.332 -0.2701  0.1422 -0.0025
55887W        W98799  12.647  10.240  26.980 -0.2161  0.0706 -0.0512
55888W        W98800  13.727   8.322  25.289  0.1113  0.1504 -0.3101
55889W        W98801  12.611   8.155  27.707  0.1502 -0.1397 -0.5123
55890W        W98802  12.950   8.216  24.217  0.0282  0.4656 -0.0065
55891W        W98803  11.698  10.718  23.321  0.2559  0.2146 -0.0679
55892W        W98804  11.931   9.841  25.094 -0.1992 -0.0385 -0.0676
55893W        W98805  12.171   6.460  25.260  0.0839  0.2130 -0.1825
55894W        W98806  13.552  10.110  27.160 -0.0314 -0.0031 -0.0340
55895W        W98807  11.317   9.815  23.021  0.2838  0.1628  0.0486
55896W        W98808  12.524   9.187  28.188  0.0960 -0.0332  0.3922
55897W        W98809  13.787   9.162  25.515  0.0744  0.1059 -0.1787
55898W        W98810  14.035   6.443  26.955 -0.0121 -0.2732  0.0569
55899W        W98811  12.620   9.205  25.044 -0.1775 -0.2377  0.0107
55900W        W98812  12.237   8.239  25.089  0.1569  0.1219  0.0855
55901W        W98813  11.036   8.789  24.762 -0.1295 -0.1796  0.1008
55902W        W98814  12.871   7.767  24.846  0.0947 -0.0233  0.0057
55903W        W98815  14.606   8.379  23.536  0.0114 -0.0451  0.0714
55904W        W98816  11.234   7.174  24.954 -0.1320  0.0996  0.1095
55905W        W98817  13.036   7.749  24.391 -0.0860  0.1302  0.0427
55906W        W98818  13.782  10.205  25.547 -0.0255  0.2688  0.2565
55907W        W98819  13.374   9.185  27.429  0.2740  0.1450  0.0872
55908W        W98820  14.455   4.863  24.245  0.3254  0.1977  0.0353
55909W        W98821  14.455  10.128  27.204  0.1688  0.1639  0.0982
55910W        W98822  12.456   9.502  29.313 -0.0684 -0.2121 -0.0963
55911W        W98823  12.486   7.510  24.784  0.0054  0.0640 -0.0660
55912W        W98824  14.547   7.163  27.338 -0.0360 -0.0084  0.2084
55913W        W98825  12.780   8.713  23.571  0.1046  0.1406  0.1484
55914W        W98826  11.969   9.652  23.571 -0.0598  0.2051 -0.3560
55915W        W98827  14.368  11.293  26.082  0.0316  0.1474 -0.0787
55916W        W98828  12.660   8.461  24.565  0.0649 -0.0463 -0.1649
55917W        W98829  11.979   7.320  24.730 -0.0799  0.1521 -0.1854
55918W        W98830   9.902   8.960  28.900 -0.3009  0.0243  0.1544
55919W        W98831  14.770   9.035  25.961  0.3898  0.2050 -0.0490
55920W        W98832  13.313   8.405  26.300  0.2163 -0.0787  0.1967
55921W        W98833  13.099   8.343  25.384  0.1536 -0.0269 -0.0977
55922W        W98834  12.494   8.706  25.033 -0.1750 -0.0045 -0.1820
55923W        W98835  14.563  10.358  25.430  0.2747  0.3539 -0.0446
55924W        W98836  12.405   8.450  26.526  0.0920  0.1083  0.0595
55925W        W98837  12.466   9.699  28.187  0.1882 -0.0498 -0.0508
55926W        W98838  13.439   6.691  25.403  0.0133  0.2254 -0.0222
55927W        W98839  14.357   9.457  25.085  0.4243 -0.1951 -0.3246
55928W        W98840  12.549   9.147  27.454 -0.0174 -0.2075  0.2713
55929W        W98841  10.519   9.340  22.011 -0.0069  0.0800  0.2361
55930W        W98842  11.917   9.596  25.649 -0.0882  0.1650 -0.3784
55931W        W98843  13.158   8.595  24.506  0.2943 -0.0273 -0.1948
55932W        W98844  12.573   7.503  25.650  0.0212  0.1333  0.4127
55933W        W98845  12.282   9.222  25.948 -0.3319  0.1701  0.0471
55934W        W98846  11.613   9.395  25.331 -0.0786 -0.1095  0.0769
55935W        W98847  12.817   9.989  25.446  0.1893  0.0248  0.0067
55936W        W98848  13.736   7.707  24.437 -0.0276  0.0193 -0.0537
55937W        W98849  14.019   9.216  23.623 -0.0202  0.2611  0.0763
55938W        W98850  12.775   8.268  26.158  0.2148 -0.1057 -0.0549
55939W        W98851  14.417   8.021  26.136  0.4836  0.0090  0.0584
55940W        W98852  12.823   9.314  24.243 -0.3348 -0.2024 -0.0156
55941W        W98853  13.422   6.036  27.413  0.3734  0.1058  0.2961
55942W        W98854  12.679   7.815  26.028  0.3076  0.3347  0.1785
55943W        W98855  13.854   8.821  25.051  0.0711  0.0660 -0.0324
55944W        W98856  11.305   7.987  26.406 -0.0863  0.2266  0.0052
55945W        W98857  13.750  10.543  27.618  0.0990 -0.1793 -0.0084
55946W        W98858  11.563   8.644  27.167 -0.1616  0.1442  0.0814
55947W        W98859  12.824   8.931  24.643  0.0796  0.2954 -0.2131
55948W        W98860  12.201   7.623  24.355 -0.1416 -0.0360  0.0469
55949W        W98861  12.816   8.268  24.969 -0.0535 -0.3442  0.0828
55950W        W98862  13.310  10.095  26.570  0.1074  0.0918 -0.1313
55951W        W98863  12.306  10.761  22.969  0.0223 -0.1119  0.3361
55952W        W98864  12.442   8.672  25.942 -0.2065 -0.0576 -0.1475
55953W        W98865  12.106   8.316  27.587 -0.0556 -0.1244  0.0876
55954W        W98866  12.665   8.936  26.284  0.0506  0.0418  0.3788
55955W        W98867  12.918   8.953  22.323 -0.0619 -0.1980  0.1617
55956W        W98868  11.985   8.688  25.196 -0.1985  0.1834  0.0250
55957W        W98869  13.414   9.187  26.855 -0.2512 -0.0953 -0.2438
55958W        W98870  13.770   9.631  25.528 -0.1401 -0.0552  0.0896
55959W        W98871  14.416   8.808  26.823  0.2230 -0.2485 -0.2328
55960W        W98872  13.324   6.928  27.081  0.0918 -0.1091 -0.0018
55961W        W98873  13.256   9.649  27.662  0.0511  0.0470  0.0129
55962W        W98874  12.624   8.854  26.822 -0.0824 -0.2895  0.0862
55963W        W98875  11.069   8.877  27.232 -0.1515 -0.4086  0.3197
55964W        W98876  14.774  11.484  27.225  0.1791 -0.3471 -0.3097
55965W        W98877  15.388   7.215  23.218  0.0721 -0.4484 -0.0892
55966W        W98878  14.046   7.264  25.933  0.2293 -0.0787 -0.1030
55967W        W98879  14.290   9.389  25.597 -0.0117 -0.0874  0.0146
55968W        W98880  13.254   8.146  22.864  0.1310  0.0903  0.1857
55969W        W98881  13.502   8.414  25.808 -0.2029 -0.3132 -0.1040
55970W        W98882  14.311   9.344  27.591  0.2835  0.1386 -0.3674
55971W        W98883  11.632   6.603  23.698 -0.0887 -0.3186 -0.1989
55972W        W98884  13.732   7.226  27.204  0.1796 -0.1377  0.0704
55973W        W98885  12.597  10.218  24.866 -0.0190  0.1606 -0.1037
55974W        W98886  13.443   8.782  25.351  0.0200 -0.0065 -0.0041
55975W        W98887  12.917   8.825  24.027 -0.3495 -0.1144  0.1128
55976W        W98888   9.895   7.592  26.401  0.2175  0.2004 -0.1827
55977W        W98889  12.171  10.230  26.810 -0.1393 -0.0276  0.1292
55978W        W98890  12.025   6.635  24.123  0.0947 -0.0263 -0.1963
55979W        W98891  11.729   9.722  24.486 -0.0693 -0.2458 -0.0069
55980W        W98892  13.839   9.617  26.853  0.3231 -0.2741  0.0871
55981W        W98893  14.474   8.217  27.484  0.0538  0.0156  0.0179
55982W        W98894  13.187   7.019  25.084  0.1650  0.2801 -0.2632
55983W        W98895  14.593   7.478  27.982 -0.1184 -0.3897 -0.2927
55984W        W98896  11.928   8.853  25.709 -0.4249  0.0765 -0.3136
55985W        W98897  14.037   6.448  24.840 -0.1819  0.0799  0.3639
55986W        W98898  13.105  10.414  26.932 -0.0157 -0.0187 -0.1521
55987W        W98899  11.704  10.582  27.388  0.0883  0.3383  0.2667
55988W        W98900  12.691   9.727  24.986  0.2173 -0.2281  0.2174
55989W        W98901  13.180   7.968  27.453  0.2663 -0.2043  0.0052
55990W        W98902  14.434  10.688  26.777  0.1232 -0.0078  0.1867
55991W        W98903  12.804   9.198  25.848 -0.1058  0.0173  0.0482
55992W        W98904  13.953   7.779  26.212  0.0655  0.1823  0.0654
55993W        W98905  12.240   9.141  26.495 -0.3336  0.1157  0.0444
55994W        W98906  12.010   8.785  26.218  0.0877 -0.0374  0.1380
55995W        W98907  13.337  10.851  26.790 -0.0874  0.0351 -0.1767
55996W        W98908  13.854   9.396  25.076  0.2717 -0.0703 -0.1053
55997W        W98909  12.092  10.321  25.026 -0.0007  0.1600  0.1696
55998W        W98910  11.184   8.261  27.258 -0.2037 -0.0871 -0.0243
55999W        W98911  12.008   9.696  28.073  0.2545 -0.2001  0.0003
56000W        W98912  14.258   8.861  27.931 -0.2891  0.0655 -0.3266
56001W        W98913  13.949   6.730  24.052 -0.1732  0.1964  0.1168
56002W        W98914  13.544   9.569  24.649  0.1083  0.0719  0.0614
56003W        W98915  11.196   9.753  27.529  0.3422  0.4028 -0.0779
56004W        W98916  11.199   8.830  28.156 -0.1308 -0.0043 -0.3380
56005W        W98917  12.297  11.667  25.866 -0.1478 -0.4950 -0.0128
56006W        W98918  14.273   9.801  26.340 -0.0984  0.1835 -0.1906
56007W        W98919  14.304   9.091  24.595  0.0528  0.3582  0.0113
56008W        W98920  15.706  11.940  24.753  0.3618 -0.5045  0.2752
56009W        W98921  13.637   7.207  24.667 -0.0435 -0.0009  0.0473
56010W        W98922  12.657  11.224  25.915  0.1524  0.2917  0.1554
56011W        W98923   9.515   9.533  24.130 -0.0026 -0.1657  0.1714
56012W        W98924  13.953  10.763  25.429  0.0376  0.3858 -0.3191
56013W        W98925  11.501  10.894  25.466 -0.0346  0.1312 -0.2213
56014W        W98926  15.159   9.661  27.688 -0.2352 -0.1945 -0.0245
56015W        W98927  14.977   5.567  22.217 -0.1657 -0.0491  0.3833
56016W        W98928  15.313  10.064  26.133 -0.0461  0.0269  0.2298
56017W        W98929  14.127   8.483  23.443 -0.1943  0.0199 -0.0832
56018W        W98930  13.696   9.873  27.680 -0.0162  0.3379  0.2840
56019W        W98931  11.293   8.010  25.837  0.0579 -0.0428  0.5350
56020W        W98932  12.472   8.349  23.282  0.0245  0.0911 -0.0612
56021W        W98933  11.265  10.767  28.574  0.0364 -0.1036 -0.2364
56022W        W98934  13.960   6.724  27.708 -0.4590 -0.1640 -0.0407
56023W        W98935  11.640   9.856  26.495 -0.1582  0.2374 -0.2777
56024W        W98936  13.353   9.161  23.922  0.2950  0.2670 -0.3323
56025W        W98937  11.910   6.891  25.474  0.1210  0.4553 -0.0405
56026W        W98938  12.272   8.786  23.616 -0.3636  0.0256  0.0191
56027W        W98939  13.960   6.764  26.071 -0.5203  0.3798  0.0092
56028W        W98940  12.478   9.596  23.413  0.0975 -0.1887  0.1735
56029W        W98941  12.842   7.034  26.711 -0.1093  0.1726 -0.1102
56030W        W98942  12.097  10.436  23.506 -0.0051 -0.4253 -0.2810
56031W        W98943  12.867  10.657  24.172 -0.0635 -0.0085  0.2196
56032W        W98944  12.877  10.992  25.537 -0.0067 -0.1875 -0.1494
56033W        W98945  11.297   7.156  25.579  0.0051  0.3382 -0.0232
56034W        W98946  14.916   9.327  26.349 -0.0162  0.2743  0.1423
56035W        W98947  11.185   7.604  28.160  0.0441  0.0912  0.0219
56036W        W98948  13.715   6.675  27.319  0.3333  0.0627  0.1922
56037W        W98949  11.697   8.277  24.568 -0.0341 -0.2767  0.0974
56038W        W98950  14.696   9.164  24.086  0.1598  0.0942 -0.5652
56039W        W98951  13.006   8.753  25.098 -0.0487 -0.2133  0.1953
56040W        W98952  12.617   7.941  26.664  0.1703  0.0873 -0.1915
56041W        W98953  14.499   8.957  23.206 -0.0881  0.4491  0.1949
56042W        W98954  14.697  11.111  26.692 -0.0137 -0.0636  0.2249
56043W        W98955  13.063   8.548  22.036  0.0367  0.2271  0.2468
56044W        W98956  14.162  10.180  27.622 -0.2241  0.3945  0.3243
56045W        W98957  11.676   6.403  25.570 -0.0468 -0.0985 -0.2422
56046W        W98958  13.599   9.087  23.358 -0.0532  0.0276  0.0445
56047W        W98959  11.475   8.567  24.983 -0.1596  0.2370  0.0487
56048W        W98960  13.108   8.091  25.819 -0.1885 -0.0766 -0.1510
56049W        W98961  15.147   9.261  27.404  0.3952  0.1109 -0.3543
56050W        W98962  11.679   5.936  25.352 -0.1681 -0.0554  0.0856
56051W        W98963  15.189   9.199  22.775 -0.1492  0.1633  0.1575
56052W        W98964  13.137  10.335  25.149  0.0351 -0.4867 -0.1760
56053W        W98965  12.711  10.906  23.730  0.2257 -0.0522 -0.1127
56054W        W98966  14.678   9.783  25.332 -0.0436  0.4246 -0.0502
56055W        W98967  13.316   9.706  25.336  0.0543  0.1696 -0.1255
56056W        W98968  10.188   7.279  26.051 -0.2592  0.1294 -0.1341
56057W        W98969  14.288  10.551  27.970  0.1057 -0.1826  0.1095
56058W        W98970  14.575  10.274  26.055  0.1454  0.2232  0.2309
56059W        W98971  14.077   8.580  24.663  0.1954  0.2614 -0.2943
56060W        W98972  11.839   9.242  26.231 -0.1095  0.0908 -0.2394
56061W        W98973  12.208  10.896  23.923  0.0244  0.2194 -0.1348
56062W        W98974  14.038  10.008  25.905 -0.2364  0.1343 -0.0291
56063W        W98975  14.967   6.416  25.438 -0.2745 -0.1390  0.5241
56064W        W98976  12.478   9.908  22.601 -0.0360 -0.0948 -0.2024
56065W        W98977  14.590   7.651  27.055 -0.1180 -0.0468 -0.2549
56066W        W98978  13.450   9.769  25.992 -0.1468  0.2990 -0.1284
56067W        W98979  12.413  10.947  27.765 -0.0568 -0.0192 -0.0399
56068W        W98980  12.045   8.342  23.696  0.3348  0.1029 -0.1058
56069W        W98981  13.242  10.170  25.678  0.3333 -0.0191 -0.1518
56070W        W98982  13.071   9.764  24.589  0.2183  0.0195  0.2184
56071W        W98983  12.495  10.476  23.865 -0.0428  0.0738  0.1851
56072W        W98984  15.360   8.495  25.307 -0.2476  0.0906  0.1430
56073W        W98985  13.838   7.805  25.107 -0.2097 -0.1134  0.0875
56074W        W98986  15.686  10.358  24.278 -0.0311 -0.0423 -0.0053
56075W        W98987  13.075   7.530  25.923 -0.0608 -0.1031 -0.2323
56076W        W98988  15.680   6.214  26.596 -0.0812  0.0928  0.1865
56077W        W98989  13.454   9.033  24.925 -0.0684 -0.1001 -0.1400
56078W        W98990  13.336   9.273  25.780 -0.0088 -0.1943 -0.0319
56079W        W98991  11.237   8.561  23.936 -0.2860  0.1215  0.1607
56080W        W98992  10.728   9.387  23.138 -0.1617  0.1918 -0.1099
56081W        W98993  12.532   8.615  27.444 -0.0744 -0.2654  0.1866
56082W        W98994  12.654   6.167  27.117  0.1210 -0.1098 -0.2329
56083W        W98995   9.962   8.123  26.115 -0.2560  0.2251  0.0311
56084W        W98996  10.462   7.526  24.978 -0.2266  0.3087  0.3023
56085W        W98997  13.559   7.980  26.046 -0.1081  0.0579 -0.0696
56086W        W98998  15.538  10.882  24.318 -0.0381  0.0817  0.0062
56087W        W98999  12.136   6.229  25.703  0.1810  0.1821  0.1979
56088W        W99000  10.797   7.267  25.716  0.1403  0.0429 -0.0482
56089W        W99001  13.659  10.977  24.342  0.0542  0.1528 -0.0735
56090W        W99002  14.330   8.941  25.162  0.2751 -0.0844  0.1906
56091W        W99003  13.775   6.877  26.810  0.0261  0.3385  0.0005
56092W        W99004  14.235  12.253  27.091 -0.3531 -0.1144 -0.2390
56093W        W99005  10.102   9.729  25.224  0.1204  0.1435 -0.0111
56094W        W99006  12.943   9.267  27.137 -0.1480  0.2251 -0.0679
56095W        W99007  13.142   7.852  26.936 -0.0337 -0.1581  0.0598
56096W        W99008   9.972   7.641  24.735 -0.1142  0.0505 -0.1296
56097W        W99009  12.832   8.746  25.628 -0.0491  0.0414 -0.2149
56098W        W99010  13.788   9.882  25.064  0.2553  0.1675  0.0586
56099W        W99011  14.138  10.815  24.359  0.1060 -0.2300  0.3105
56100W        W99012  12.590   9.439  26.242  0.1260  0.0709  0.0488
56101W        W99013  12.714  11.388  28.046  0.3231 -0.0493  0.1745
56102W        W99014  11.930   5.105  25.773 -0.2542 -0.0163  0.1153
56103W        W99015  14.065   9.563  24.630  0.0371 -0.0180 -0.0148
56104W        W99016  12.510   8.736  27.947  0.0558 -0.0682 -0.1178
56105W        W99017  14.779   9.798  23.517 -0.1322 -0.0412 -0.2303
56106W        W99018  15.042   7.915  25.055 -0.0781  0.2451  0.0531
56107W        W99019  13.037   9.171  25.348 -0.1824  0.2147  0.2380
56108W        W99020  11.459   7.340  28.445 -0.0236  0.0485  0.2905
56109W        W99021  12.406   9.298  27.000  0.2325 -0.1580  0.0942
56110W        W99022  15.519  10.400  25.140 -0.1133  0.0396 -0.0504
56111W        W99023  12.529   6.129  26.615  0.1791 -0.3503 -0.0690
56112W        W99024  14.084   8.532  24.201  0.1175  0.0547 -0.1143
56113W        W99025  14.185   9.879  25.415 -0.2546 -0.0664 -0.1547
56114W        W99026  11.643   7.756  27.296 -0.0989  0.3137 -0.1251
56115W        W99027  13.648   8.660  24.486 -0.0858  0.1203 -0.1931
56116W        W99028  13.743   9.307  27.771  0.0051 -0.0615  0.2072
56117W        W99029  15.033   9.507  25.910  0.2283  0.2930  0.3548
56118W        W99030  15.495  10.746  27.722  0.0517  0.0629 -0.0289
56119W        W99031  13.030   8.333  23.346 -0.1898  0.0619 -0.3760
56120W        W99032  13.703   8.795  23.962 -0.1668  0.0348 -0.0332
56121W        W99033  14.167  10.870  26.284 -0.1002 -0.0783  0.2566
56122W        W99034  14.925  10.175  28.438  0.2156 -0.3685 -0.0179
56123W        W99035  13.075  11.066  26.408 -0.2439 -0.0512 -0.0109
56124W        W99036  14.497   8.603  25.560  0.1461  0.0238  0.2081
56125W        W99037  10.721   7.824  28.110 -0.2532 -0.0361 -0.1140
56126W        W99038  11.999   8.778  22.680 -0.1189  0.3005  0.1457
56127W        W99039  14.711   9.188  25.417 -0.0111  0.1021  0.1591
56128W        W99040  13.913   7.444  26.661 -0.0170 -0.2780 -0.1548
56129W        W99041  11.959   9.128  24.331 -0.3217  0.2048  0.2829
56130W        W99042  14.438   6.826  22.986  0.0689  0.1875  0.0734
56131W        W99043  12.606   9.695  27.207 -0.1013  0.0902  0.2219
56132W        W99044  13.749   9.907  26.388  0.2042 -0.4156  0.0972
56133W        W99045  11.869  11.356  30.144  0.1270 -0.0226 -0.3318
56134W        W99046  12.738   7.744  27.446 -0.0072  0.2994 -0.1036
56135W        W99047  15.501   7.983  26.607 -0.4119  0.2659  0.2313
56136W        W99048  15.140  10.048  26.911 -0.1990  0.0345  0.1106
56137W        W99049  12.829   5.813  29.378  0.4093  0.2533 -0.0839
56138W        W99050  14.147  10.374  28.436 -0.2052 -0.0046  0.1836
56139W        W99051  11.600   7.007  31.484  0.1882  0.1427  0.2878
56140W        W99052  14.939   9.748  29.504 -0.1898 -0.1660 -0.0858
56141W        W99053  13.002   9.763  28.300 -0.0808 -0.3226 -0.2146
56142W        W99054  12.989  10.127  28.950 -0.1206 -0.0548  0.2904
56143W        W99055  13.429   9.158  29.088  0.0972  0.0335 -0.2372
56144W        W99056  13.698  11.612  31.582  0.2785  0.0735 -0.0366
56145W        W99057  13.384   7.560  28.763  0.0666 -0.0724  0.2150
56146W        W99058  11.337   7.103  29.987  0.1191  0.0770  0.1122
56147W        W99059  14.968   8.792  30.757 -0.0195  0.0578 -0.0404
56148W        W99060  11.777   7.661  28.710 -0.2376  0.2976 -0.0267
56149W        W99061  12.510   8.908  29.413  0.1916 -0.1453  0.1809
56150W        W99062  13.456   9.062  28.141  0.2524  0.3210 -0.0451
56151W        W99063  13.041  11.137  29.075 -0.0991 -0.1735 -0.1958
56152W        W99064  12.438   8.736  28.978  0.0172  0.2603 -0.0583
56153W        W99065  13.150   8.752  31.266  0.0766 -0.2806  0.1121
56154W        W99066  14.794   9.196  28.592  0.0494 -0.3621  0.0017
56155W        W99067  12.005   9.159  27.249  0.1588  0.1693  0.0484
56156W        W99068  11.172   7.078  29.513  0.3723  0.0514 -0.1632
56157W        W99069  12.051  10.877  29.239  0.2278  0.1579  0.0556
56158W        W99070  15.026   7.714  28.959  0.2114 -0.1563 -0.0418
56159W        W99071  14.542   7.455  29.784 -0.1929 -0.0970 -0.0846
56160W        W99072  12.789  11.073  28.630 -0.0066 -0.3688  0.1549
56161W        W99073  13.615  10.579  29.230 -0.1831  0.0018 -0.0423
56162W        W99074  14.517   8.247  30.294 -0.0143 -0.1811 -0.0114
56163W        W99075  11.979   8.027  28.395 -0.2497  0.1171  0.2463
56164W        W99076  11.250  11.962  29.142 -0.2499 -0.0980 -0.2342
56165W        W99077  11.243   9.854  28.501  0.4591 -0.2201 -0.3419
56166W        W99078  16.685  10.287  29.533 -0.4157  0.0999 -0.0456
56167W        W99079  14.050   9.695  29.568  0.1140  0.0210  0.0213
56168W        W99080  12.672  11.724  31.062 -0.3826 -0.2346  0.1093
56169W        W99081  10.222   9.220  27.426  0.0115  0.1883  0.1258
56170W        W99082  13.939  12.268  29.802 -0.0282  0.2940 -0.0553
56171W        W99083  12.755  10.944  31.740 -0.3990 -0.2322 -0.1814
56172W        W99084  14.828   7.815  30.423  0.0154  0.1119 -0.2426
56173W        W99085  14.132   8.412  27.776 -0.2136  0.1822 -0.1637
56174W        W99086  11.673   9.466  27.604  0.3109  0.0146 -0.3266
56175W        W99087  13.087   9.597  29.102  0.1766  0.1014 -0.2872
56176W        W99088  11.262  12.243  30.572 -0.0715  0.0273 -0.4179
56177W        W99089  11.631  11.218  29.357 -0.1314  0.0768 -0.0455
56178W        W99090  15.763   6.657  30.280 -0.4848  0.2333  0.0734
56179W        W99091  12.097  11.747  27.921 -0.0226  0.1531  0.3849
56180W        W99092  13.825   9.269  27.252 -0.2550  0.1353  0.4617
56181W        W99093  13.742   7.120  26.321 -0.0835  0.2740  0.5249
56182W        W99094  15.230   7.947  28.080  0.1240 -0.3250  0.0877
56183W        W99095  13.303   7.081  29.396  0.0980  0.0867 -0.1716
56184W        W99096  12.168  10.192  29.110  0.5286 -0.0937 -0.3769
56185W        W99097  11.905   8.206  29.424 -0.1425 -0.0717  0.3646
56186W        W99098  14.378  10.002  29.314  0.1271  0.1063 -0.0872
56187W        W99099  13.253   9.294  28.601 -0.0971  0.2260  0.0739
56188W        W99100  13.629   8.121  28.631  0.2017 -0.1632 -0.2812
56189W        W99101  10.563  12.000  30.902 -0.0600 -0.2652 -0.2924
56190W        W99102  12.351   6.852  28.632 -0.1012  0.2296  0.2290
56191W        W99103  14.156   8.659  27.283 -0.0708  0.3023 -0.4692
56192W        W99104  15.276  11.765  27.123 -0.3118  0.3845 -0.1257
56193W        W99105  13.895  10.272  28.042 -0.1378  0.0535  0.2349
56194W        W99106  10.841   7.293  28.625 -0.2184 -0.0082  0.5016
56195W        W99107  10.971   9.181  31.676  0.0513  0.2708  0.1284
56196W        W99108  12.264  10.539  30.575  0.2971  0.3624  0.1980
56197W        W99109  10.860   7.469  26.853 -0.0702  0.0992 -0.1622
56198W        W99110  15.814   8.821  29.281  0.5692  0.0853 -0.0301
56199W        W99111  10.770  10.982  31.178 -0.0129 -0.1134  0.1406
56200W        W99112  15.879   7.097  28.241 -0.1084 -0.0488  0.3147
56201W        W99113  11.383  11.597  29.420 -0.1773 -0.0498 -0.1015
56202W        W99114  14.030  10.414  28.981  0.1041 -0.1571 -0.1080
56203W        W99115  14.205   8.047  27.047  0.1080  0.3020  0.0955
56204W        W99116  14.080   8.262  30.039  0.1001  0.2710 -0.0957
56205W        W99117  15.241   7.958  30.640 -0.0997 -0.1071 -0.1934
56206W        W99118  11.332   8.849  26.792  0.3015  0.0940 -0.0724
56207W        W99119  12.593   9.755  29.792  0.1472  0.2476 -0.0164
56208W        W99120  15.690  10.372  28.129 -0.1190  0.0068  0.1814
56209W        W99121  14.972   8.768  26.769  0.0083 -0.2156  0.0030
56210W        W99122  11.763  10.031  27.539 -0.0374  0.0154  0.0129
56211W        W99123  13.270   8.679  28.482 -0.0305  0.0582  0.2292
56212W        W99124  14.280  11.218  31.279 -0.0057  0.2502 -0.1515
56213W        W99125  12.775  11.821  28.420 -0.4013 -0.0484 -0.3712
56214W        W99126  10.737   9.268  29.466  0.1356 -0.0017 -0.1602
56215W        W99127  13.044   7.864  27.902  0.3288 -0.1893  0.2150
56216W        W99128  11.747   6.156  29.461  0.0412  0.1230  0.0496
56217W        W99129  12.530  10.501  29.424 -0.1731  0.1970 -0.1074
56218W        W99130  13.681   8.801  27.706  0.1113 -0.2451  0.0687
56219W        W99131  11.720   7.324  29.632 -0.0590  0.1425 -0.0931
56220W        W99132  13.945   6.409  29.579  0.2321 -0.1458 -0.0518
56221W        W99133  12.130   9.461  29.747  0.2670 -0.2627 -0.3124
56222W        W99134  15.449  10.034  28.695  0.1010  0.0100 -0.0436
56223W        W99135  15.440   7.444  29.099 -0.2047 -0.2490 -0.0632
56224W        W99136  14.198   9.848  28.446  0.2525  0.0750 -0.2204
56225W        W99137  10.429   8.593  30.099 -0.0718 -0.1642 -0.1341
56226W        W99138  13.618   9.720  29.839 -0.1573 -0.1464  0.2528
56227W        W99139  11.728   6.596  30.244 -0.1041 -0.3252 -0.1460
56228W        W99140  12.452   8.612  30.148 -0.2019  0.1283 -0.2072
56229W        W99141  15.271   8.951  29.888  0.1153  0.3312  0.1231
56230W        W99142  12.210   6.931  29.094 -0.0950  0.0332 -0.0374
56231W        W99143  13.074   7.213  28.971 -0.0077  0.3531 -0.1453
56232W        W99144  12.433   7.894  28.766 -0.5045  0.5116 -0.1118
56233W        W99145   9.511   8.645  29.308  0.0392 -0.0485 -0.3371
56234W        W99146  14.870   7.306  30.665 -0.2136  0.1782  0.0867
56235W        W99147  12.784  11.534  28.838  0.0899  0.0025 -0.0302
56236W        W99148  14.832  10.288  29.377 -0.1254  0.4444 -0.2026
56237W        W99149  15.264  10.888  29.005  0.2828  0.0407 -0.2686
56238W        W99150  11.023   8.462  29.417 -0.1290 -0.2112 -0.2181
56239W        W99151  11.102   7.222  27.799  0.0509 -0.4246 -0.1599
56240W        W99152  11.216  11.851  27.609  0.0080 -0.1394 -0.0995
56241W        W99153  14.819   9.178  29.816 -0.2550  0.1402  0.6003
56242W        W99154  12.665   8.784  28.467 -0.0147 -0.0138  0.2018
56243W        W99155  15.147  11.225  29.436 -0.0967 -0.3133  0.2247
56244W        W99156  14.916   9.942  28.983  0.0294  0.2171 -0.1933
56245W        W99157  12.451  10.784  29.805 -0.0111 -0.1349  0.1902
56246W        W99158  13.228   9.004  30.381  0.2487 -0.1143  0.1673
56247W        W99159  14.758   7.872  29.943 -0.2104 -0.0516 -0.0879
56248W        W99160  15.728  10.337  29.043  0.3156 -0.2179  0.1912
56249W        W99161  11.863   6.341  27.489  0.1615 -0.0078 -0.2635
56250W        W99162  14.393  10.722  29.279 -0.2953 -0.1819  0.2046
56251W        W99163   9.530   9.993  27.881  0.0631 -0.1743  0.2610
56252W        W99164  10.694   8.795  29.747  0.0575 -0.1403 -0.1095
56253W        W99165  12.701   9.219  28.844 -0.2060  0.0616 -0.0222
56254W        W99166  15.056   6.543  29.038  0.0170  0.1349 -0.2254
56255W        W99167  11.598   7.933  29.772  0.1523  0.0325  0.1804
56256W        W99168  12.535   8.033  29.983  0.0871 -0.1697  0.0736
56257W        W99169  10.920   8.516  27.605  0.2319  0.1076  0.0204
56258W        W99170  13.230  11.263  31.251  0.1766 -0.1776  0.1642
56259W        W99171  14.299   7.270  29.392 -0.1944  0.1732 -0.1081
56260W        W99172  14.038   8.809  26.393 -0.2185  0.0925  0.0070
56261W        W99173  13.228  10.152  30.684 -0.2617 -0.2539  0.1764
56262W        W99174  14.765   8.516  27.176  0.1559 -0.0378 -0.0315
56263W        W99175  13.058   8.439  27.685  0.3493  0.0771 -0.1853
56264W        W99176  14.046   7.272  28.995 -0.0140 -0.2390  0.1795
56265W        W99177  12.415  12.052  29.766 -0.1363  0.2178  0.0409
56266W        W99178  14.430  10.839  29.925 -0.0981  0.0250  0.0240
56267W        W99179  14.037   9.043  31.112  0.1713 -0.0504  0.2157
56268W        W99180  13.150   7.992  28.578  0.0577 -0.1399  0.2083
56269W        W99181  15.089   9.260  28.174  0.0498 -0.1428 -0.0317
56270W        W99182  11.560   9.188  29.249 -0.0609  0.0202 -0.2855
56271W        W99183  13.464  10.914  31.004 -0.2502 -0.1979 -0.1100
56272W        W99184  14.940  10.791  29.442 -0.2033  0.1163 -0.0879
56273W        W99185  12.824   8.305  28.133 -0.1090  0.3221  0.3322
56274W        W99186  10.722   8.069  27.681 -0.2351 -0.0019  0.0163
56275W        W99187  14.154   7.182  28.526 -0.2282 -0.0174 -0.0531
56276W        W99188  11.178  10.422  25.662  0.3301  0.2534  0.1911
56277W        W99189  15.197   8.472  31.035 -0.0960  0.2042 -0.1502
56278W        W99190  14.075   7.687  29.427 -0.1848 -0.1060 -0.0284
56279W        W99191  12.770   8.291  28.783  0.2708 -0.0192 -0.0493
56280W        W99192  13.682   9.392  31.359  0.1359  0.2482 -0.1488
56281W        W99193  13.656   8.824  27.193 -0.1466  0.0382 -0.0964
56282W        W99194  14.743   9.035  27.293 -0.0255  0.3930 -0.0571
56283W        W99195  13.101   8.321  27.153 -0.1312  0.0696 -0.0775
56284W        W99196  13.238   8.359  28.893  0.0257 -0.3158  0.0453
56285W        W99197  11.771  10.479  29.216 -0.1010 -0.0170  0.3163
56286W        W99198  11.160  11.283  30.918 -0.2193 -0.0229 -0.4862
56287W        W99199  13.772  10.558  31.332 -0.2419 -0.0610  0.1914
56288W        W99200  15.318   8.698  28.789 -0.0964 -0.2992 -0.1706
56289W        W99201  14.103   8.348  30.579  0.0850  0.1064  0.2369
56290W        W99202  12.454   7.920  28.171 -0.0746  0.0278 -0.0942
56291W        W99203  10.803  10.291  27.537  0.2400 -0.0577  0.1894
56292W        W99204  11.424  10.847  28.056  0.2389  0.1844  0.1141
56293W        W99205  12.409   6.722  29.647 -0.4202 -0.1626  0.2182
56294W        W99206  12.606  10.041  29.318  0.0142  0.1042  0.0905
56295W        W99207  12.766  10.284  26.469  0.0333 -0.0658  0.0732
56296W        W99208  12.367  11.304  30.234 -0.1091  0.1662 -0.1971
56297W        W99209  12.173  10.284  28.421 -0.0064  0.2852  0.1892
56298W        W99210  12.840   6.839  27.708  0.2570 -0.0823 -0.0980
56299W        W99211  11.374  11.305  28.403 -0.1610  0.0861  0.1384
56300W        W99212  12.201   8.328  28.074 -0.1554 -0.1845  0.0180
56301W        W99213  11.614   6.714  28.375 -0.0263 -0.3682  0.0235
56302W        W99214  14.336   6.448  27.416 -0.2762  0.1168 -0.2086
56303W        W99215  12.985   8.883  27.504 -0.1385  0.1816 -0.1720
56304W        W99216  11.679   9.107  29.782 -0.2988 -0.0628 -0.2161
56305W        W99217  13.683   8.435  29.161 -0.0286 -0.0832  0.0428
56306W        W99218   9.050  10.411  31.277 -0.2159 -0.1087  0.0860
56307W        W99219  14.403   9.434  29.952 -0.0783  0.4674 -0.1137
56308W        W99220  14.239   8.254  28.448  0.1825 -0.1330  0.0198
56309W        W99221  14.200   9.055  30.258 -0.1862 -0.0117 -0.0611
56310W        W99222  11.263  10.385  30.909  0.2515 -0.2632  0.0662
56311W        W99223  11.998   8.120  28.884  0.2899 -0.1472 -0.3053
56312W        W99224  14.438   6.798  30.511  0.0394  0.1145  0.1204
56313W        W99225  14.311   7.793  30.118 -0.0155 -0.1698  0.2150
56314W        W99226  11.681  10.997  28.881 -0.1875 -0.2000  0.0091
56315W        W99227  12.531  10.917  29.029 -0.0922 -0.0035  0.1085
56316W        W99228  11.308   8.797  29.144  0.0517  0.0769 -0.1325
56317W        W99229  11.380  11.454  29.965 -0.2346 -0.2110  0.4050
56318W        W99230  11.541   9.632  29.719 -0.3751  0.0926  0.1693
56319W        W99231  14.712   8.180  28.716 -0.0741  0.2446  0.4302
56320W        W99232  11.596   8.375  28.974  0.0814 -0.1509 -0.0214
56321W        W99233  13.771   7.957  29.115  0.0534 -0.2652  0.1634
56322W        W99234  14.766   8.360  29.298  0.0482 -0.1170  0.1860
56323W        W99235  14.889   8.553  29.748  0.2119 -0.1355  0.1659
56324W        W99236  13.070   9.919  29.853  0.0141  0.2209 -0.0086
56325W        W99237  13.060  10.346  31.150  0.2463 -0.0153  0.1346
56326W        W99238  12.053   6.433  29.826  0.0210 -0.1264 -0.1528
56327W        W99239  16.329  11.286  27.142  0.0618 -0.0029  0.1712
56328W        W99240  14.900  11.552  30.396  0.0330  0.2184 -0.2296
56329W        W99241  12.097   8.849  28.196  0.0005  0.0539  0.0611
56330W        W99242  13.530  10.326  29.713  0.2458 -0.0761  0.0088
56331W        W99243  11.562   9.014  28.484 -0.0759  0.0052 -0.1071
56332W        W99244  14.203   7.583  31.205 -0.1444  0.3056 -0.0169
56333W        W99245  14.885   9.418  29.164  0.0458  0.1352  0.1102
56334W        W99246  11.644   9.933  28.903  0.0869 -0.1712  0.1974
56335W        W99247  11.614   8.656  29.548 -0.0593 -0.2110  0.0374
56336W        W99248  15.658   7.776  27.757 -0.1544 -0.0844 -0.1046
56337W        W99249  13.352   9.577  26.583  0.2813  0.1412  0.0319
56338W        W99250  14.792   9.357  27.721 -0.2408 -0.0116  0.2176
56339W        W99251  14.665   6.333  31.189 -0.1037  0.0014 -0.1223
56340W        W99252  12.968   9.343  28.032 -0.0151 -0.0586  0.2536
56341W        W99253  14.490   5.857  31.007  0.0397 -0.1851  0.2048
56342W        W99254  11.076   9.185  29.119 -0.0428 -0.1625  0.2405
56343W        W99255  14.820  10.620  28.907 -0.1557 -0.4026 -0.0637
56344W        W99256  13.268   9.516  29.584  0.0390  0.3803  0.2739
56345W        W99257  14.726   9.959   0.488 -0.1855  0.0562 -0.0189
56346W        W99258  10.910  10.114  29.247  0.0146 -0.2058  0.2288
56347W        W99259  14.566   6.960  28.933 -0.2772  0.0328 -0.2713
56348W        W99260  12.629   6.597  28.075 -0.1931  0.0734  0.2325
56349W        W99261  14.036   9.789  31.082  0.4962  0.0482  0.0606
56350W        W99262  15.048  11.799  28.809  0.1182  0.4459  0.1461
56351W        W99263  11.937   9.604  29.174  0.4583 -0.0266 -0.3730
56352W        W99264  14.503   8.228  29.706 -0.2188  0.2451 -0.4847
56353W        W99265  14.142   9.407  28.655 -0.0262 -0.4282 -0.1800
56354W        W99266  14.344   8.569  28.919 -0.1613 -0.2624 -0.1586
56355W        W99267  14.843   7.982  27.738 -0.2312 -0.1125  0.3656
56356W        W99268  11.968  10.557  29.694 -0.2885  0.0237 -0.1119
56357W        W99269  13.420   8.861  29.491 -0.1640  0.1325 -0.1060
56358W        W99270  15.289   9.130  28.625 -0.1590  0.0275  0.0836
56359W        W99271  14.496   6.439  29.066  0.4523  0.1231 -0.0171
56360W        W99272  13.919   7.458  30.699 -0.1907  0.1031 -0.2190
56361W        W99273  14.858   8.184  30.783 -0.0463  0.0151  0.2811
56362W        W99274  12.645  10.546  30.198 -0.1272  0.0614  0.1103
56363W        W99275  12.035   7.774  30.559 -0.2502 -0.3434 -0.1354
56364W        W99276  13.299  11.321  30.678 -0.3094 -0.2653  0.1624
56365W        W99277  14.979   7.114  27.641  0.1871 -0.0845 -0.0931
56366W        W99278  15.446   7.485  30.686  0.0358 -0.4247 -0.2808
56367W        W99279  14.823   9.774  26.689 -0.0978  0.1479 -0.0215
56368W        W99280  13.042   8.805  28.054  0.3462  0.2189 -0.1351
56369W        W99281  11.719   7.665  29.268  0.1619 -0.0498  0.1510
56370W        W99282  13.917   8.715  29.560 -0.1646 -0.0798  0.0598
56371W        W99283  13.111   7.423  27.312  0.1256  0.1181 -0.0008
56372W        W99284  13.954   7.879  30.952  0.2543 -0.1974 -0.0631
56373W        W99285  11.535   9.212  27.101  0.3711 -0.2297 -0.0872
56374W        W99286  13.119   8.787  27.046 -0.1125 -0.1476 -0.0347
56375W        W99287  13.727  10.042  28.436 -0.2796 -0.0760 -0.1166
56376W        W99288  10.912   6.702  29.284 -0.0915 -0.3211 -0.3136
56377W        W99289  12.440  11.133  31.380 -0.1832 -0.0012  0.1132
56378W        W99290  12.791   7.496  26.769  0.2450  0.0175 -0.0269
56379W        W99291  12.164   9.687  27.625 -0.2987  0.0015  0.1542
56380W        W99292  13.942   9.574  30.255 -0.1929 -0.1287  0.1880
56381W        W99293  14.036   9.983  30.596 -0.2841  0.0484 -0.0938
56382W        W99294  14.191   7.040  28.017 -0.1169  0.0090  0.1672
56383W        W99295  15.028   8.213  30.246  0.0418 -0.1997 -0.1065
56384W        W99296  13.527  10.169  28.934  0.0590  0.0909  0.1618
56385W        W99297  13.454   6.665  29.675  0.0573  0.0436  0.1369
56386W        W99298  11.678  10.969  30.604 -0.0873  0.0261 -0.3149
56387W        W99299  10.565   9.571  30.528  0.1641  0.1599  0.1422
56388W        W99300  10.669  11.801  30.028 -0.4145  0.1363  0.1236
56389W        W99301  12.904   7.664  30.373  0.1440  0.0775  0.0496
56390W        W99302  14.351   7.977  27.962  0.1140  0.0662 -0.0126
56391W        W99303  13.675   9.522  28.650  0.1923 -0.2801  0.1464
56392W        W99304  15.438   7.744  28.688 -0.0799  0.1296  0.0374
56393W        W99305  13.235  10.709  30.259  0.2244  0.2139  0.3755
56394W        W99306  13.811   8.521  28.162 -0.2634 -0.2749 -0.0411
56395W        W99307  12.184  10.776  28.695 -0.0092 -0.2015 -0.4068
56396W        W99308  15.478   9.738  27.342 -0.2718  0.1276 -0.1913
56397W        W99309  12.195   9.723  28.698  0.0851  0.0474  0.1461
56398W        W99310  10.682   8.066  29.281  0.2233  0.0504  0.3536
56399W        W99311  14.061   9.425  29.141  0.2743  0.1154 -0.1435
56400W        W99312  13.951   8.935  29.080  0.2467  0.1372  0.2340
56401W        W99313  11.601   5.837  28.486 -0.0952 -0.0489  0.1946
56402W        W99314  12.726  10.532  27.470  0.1060 -0.0309 -0.0426
56403W        W99315  11.127  10.901  30.591  0.0249 -0.1346  0.2208
56404W        W99316  11.329  10.322  29.440 -0.0492 -0.1509 -0.1980
56405W        W99317  12.200   9.938  29.568 -0.2829 -0.3758 -0.0238
56406W        W99318  13.558   8.783  26.584 -0.0467  0.0279  0.1061
56407W        W99319  13.679  10.604  28.417  0.2149  0.2274  0.2264
56408W        W99320  14.357  11.579  30.347 -0.2235  0.1533  0.2474
56409W        W99321  12.226   6.631  27.221 -0.1224 -0.3170  0.2978
56410W        W99322  12.119  10.865  30.157 -0.0541  0.0593 -0.3569
56411W        W99323  10.832  12.076  27.929  0.3211  0.0361 -0.0472
56412W        W99324  12.086  10.742  28.058  0.0025 -0.4859  0.1095
56413W        W99325  11.887  12.460  29.098 -0.0526  0.2354 -0.1668
56414W        W99326  15.072   9.066  31.175  0.0838  0.3548  0.1474
56415W        W99327  15.339   8.031  27.523  0.1450 -0.0147 -0.0636
56416W        W99328  13.938   9.031  26.845 -0.4775 -0.0055 -0.0255
56417W        W99329  15.900   7.537  28.614  0.0652  0.0375 -0.2158
56418W        W99330  13.186   9.839  31.043 -0.1851  0.0416 -0.2664
56419W        W99331  14.543   7.314  30.292 -0.0128 -0.1421 -0.0657
56420W        W99332  12.803   7.364  27.748 -0.1102  0.1528  0.3353
56421W        W99333  11.174   9.345  30.288 -0.0072 -0.2408  0.0298
56422W        W99334  14.400   7.718  30.614  0.1042 -0.0556  0.1290
56423W        W99335  12.185  11.063  30.615 -0.1169  0.1614 -0.0677
56424W        W99336  14.661  10.561  28.393 -0.0911 -0.2414  0.0941
56425W        W99337  12.322   7.506  27.878  0.2285 -0.1843 -0.0756
56426W        W99338  13.622  10.520  30.683  0.1332 -0.0135 -0.0228
56427W        W99339  13.521   7.359  29.737 -0.3573 -0.0297  0.0114
56428W        W99340  13.107  11.395  28.407  0.1469  0.0764  0.3683
56429W        W99341  14.255   8.212  29.252  0.2068 -0.0657  0.1523
56430W        W99342  12.670  10.558  28.681 -0.2760  0.2004 -0.0955
56431W        W99343  11.124  11.771  30.250  0.0584 -0.0205  0.0328
56432W        W99344  12.267  11.926  28.364 -0.1888  0.3845  0.0608
56433W        W99345  11.834   7.918  27.864 -0.0194 -0.1221 -0.2883
56434W        W99346  15.561   7.292  30.244 -0.1632 -0.0419  0.2377
56435W        W99347  13.357   9.585  30.496  0.0379  0.0868  0.1976
56436W        W99348  13.633   6.855  30.587  0.1382  0.3947  0.1566
56437W        W99349  12.347  10.257  29.953 -0.3555 -0.3194 -0.2412
56438W        W99350  14.578   8.396  28.049 -0.0330  0.0557 -0.0611
56439W        W99351  13.078  11.625  29.781 -0.1128 -0.0522 -0.0720
56440W        W99352  12.064   7.747  29.678  0.2193  0.1109  0.1134
56441W        W99353  13.296   8.302  28.151 -0.3743 -0.0402 -0.0673
56442W        W99354  15.440   9.623  29.032  0.1480 -0.0105 -0.2020
56443W        W99355  12.380  10.131  27.797 -0.2240 -0.0344 -0.2847
56444W        W99356  14.365  12.994  30.011 -0.1557  0.0159  0.3149
56445W        W99357  12.338   7.996  29.218 -0.4783 -0.2102 -0.0492
56446W        W99358  13.755   6.697  28.176 -0.4158  0.3687  0.2125
56447W        W99359  11.580   9.447  28.213  0.0516  0.3184 -0.2949
56448W        W99360  12.899  10.533  29.741  0.4165  0.2456 -0.3893
56449W        W99361  14.010  10.023  29.991  0.2946 -0.3839  0.1292
56450W        W99362  12.869   7.647  28.834 -0.1685 -0.1380  0.3796
56451W        W99363  15.275   8.147  28.547  0.0007  0.1229 -0.0051
56452W        W99364  15.761   9.975  30.551 -0.1891  0.1134  0.0107
56453W        W99365  13.164  10.325  28.483 -0.1324  0.0855  0.2349
56454W        W99366  15.122   8.878  27.784 -0.0818  0.3202  0.0923
56455W        W99367  15.816  10.924  28.876 -0.1688 -0.4781 -0.1527
56456W        W99368  12.910   8.423  29.780 -0.2321  0.1340 -0.3214
56457W        W99369  13.113  10.684  30.732 -0.1928 -0.1615 -0.2295
56458W        W99370  15.541   7.898  29.228  0.0297  0.4188  0.1711
56459W        W99371  12.939   6.504  26.706 -0.0927  0.0998 -0.0763
56460W        W99372  12.163   8.866  29.754  0.0299  0.0272  0.1332
56461W        W99373  10.485  10.589  28.174  0.2430  0.3113  0.1507
56462W        W99374  15.089   8.391  27.926 -0.2214  0.3043 -0.1568
56463W        W99375  13.196   7.047  30.365 -0.0787 -0.1274 -0.0995
56464W        W99376  13.055  10.526  29.181  0.2262  0.0511  0.1826
56465W        W99377  13.425   6.652  30.211 -0.0920 -0.0804 -0.2158
56466W        W99378  14.292  10.306  30.249  0.0289  0.3135  0.1978
56467W        W99379  12.578  10.961   0.522  0.1326 -0.0017  0.1378
56468W        W99380  11.700   8.483  28.018  0.1261 -0.0223 -0.1437
56469W        W99381  13.232  10.973  29.759 -0.1186 -0.0349  0.1022
56470W        W99382  12.945  11.012  27.675 -0.1155  0.2340 -0.2325
56471W        W99383  12.666  10.103  28.423  0.1791  0.1074 -0.0811
56472W        W99384  14.579  11.102  29.507  0.0475 -0.0637  0.1479
56473W        W99385  14.677   8.733  27.649  0.0153 -0.0510 -0.0791
56474W        W99386  16.097   9.295  28.545  0.0782 -0.1174  0.0448
56475W        W99387  12.760   6.706  28.937 -0.3133  0.1605  0.2544
56476W        W99388  15.879   7.701  27.306  0.4844  0.2152  0.1472
56477W        W99389  13.860   8.024  28.150  0.1996 -0.1582 -0.2031
56478W        W99390  11.523  10.779  29.546 -0.1894 -0.1553  0.4140
56479W        W99391  11.590   9.462  28.850  0.1065  0.0336 -0.2003
56480W        W99392  11.885   8.701  28.692 -0.0405 -0.0644 -0.2325
56481W        W99393  13.569   9.661  29.213  0.3311 -0.2886  0.2856
56482W        W99394  14.204   9.128  29.527 -0.4740  0.1718 -0.1618
56483W        W99395  12.012  11.136  29.701 -0.1291 -0.1007 -0.3065
56484W        W99396  12.924   9.226  29.334 -0.0677  0.3150  0.1994
56485W        W99397  12.312   5.748  28.505 -0.2258  0.3560  0.0286
56486W        W99398  14.938   8.542  28.441  0.2777 -0.0018 -0.1676
56487W        W99399  12.641   7.532  29.333  0.3198  0.0437  0.0361
56488W        W99400  12.120   7.074  28.183 -0.0728 -0.2060  0.1212
56489W        W99401  15.663   9.561  28.550  0.0294 -0.0509 -0.1047
56490W        W99402  13.497   9.633  28.213 -0.0477 -0.1608  0.2099
56491W        W99403  12.091   9.207  27.808  0.1867 -0.5443  0.3699
56492W        W99404  13.669  11.005  30.539  0.0965 -0.0864 -0.1972
56493W        W99405   9.574  10.570  27.737  0.4825 -0.4076  0.0565
56494W        W99406  13.778   9.149  30.535  0.3569  0.0573 -0.0095
56495W        W99407  12.508   7.448  31.154  0.0979 -0.1698 -0.1294
56496W        W99408  11.472   7.978  28.326 -0.2600 -0.0304  0.1355
56497W        W99409  14.432   8.666  29.450 -0.1333 -0.3865  0.3848
56498W        W99410  13.288  10.882  28.735  0.2135  0.1769  0.4854
56499W        W99411  13.528  11.594  27.382  0.0671  0.1577  0.1267
56500W        W99412  13.834  10.113  29.410  0.0024  0.1632  0.1359
56501W        W99413  14.182  11.310  29.700 -0.0882 -0.0458 -0.3394
56502W        W99414  10.934   7.461  30.787  0.2552 -0.1897 -0.2345
56503W        W99415  11.560   9.718  27.140 -0.2054 -0.1482  0.1387
56504W        W99416  12.819  10.908  29.482  0.1424 -0.0039  0.0385
56505W        W99417  15.480   8.901  28.261  0.3969 -0.1165  0.1510
56506W        W99418  13.888   7.692  28.662  0.1055  0.2472  0.0876
56507W        W99419  13.645   8.176  27.735 -0.3372 -0.1023 -0.1127
56508W        W99420  12.091   8.018  30.109 -0.1086 -0.0806 -0.3613
56509W        W99421  12.326  10.016  30.664  0.1813 -0.4153 -0.1566
56510W        W99422  14.925   9.580  30.047 -0.1971 -0.0773 -0.2083
56511W        W99423  13.812   6.949  29.432 -0.1436  0.3821 -0.2799
56512W        W99424  13.936   8.568  28.673  0.0796 -0.3329  0.1552
56513W        W99425  13.297  10.058  29.355  0.1653  0.0159  0.1690
56514W        W99426  12.156   9.045  30.465  0.0775  0.0041 -0.1390
56515W        W99427  12.302   8.434  28.557 -0.4316 -0.3185  0.2194
56516W        W99428  14.837   8.782  28.929 -0.1257  0.2896 -0.0606
56517W        W99429  14.603   9.656  28.667 -0.0393  0.0258  0.0342
56518W        W99430  13.671   9.514  30.887 -0.1855  0.2838  0.1591
56519W        W99431  13.966   9.194  28.236  0.1238  0.2629 -0.1592
56520W        W99432  15.611   9.255  27.285  0.0387  0.0353 -0.3129
56521W        W99433  13.343  11.257  30.151  0.2886 -0.2068 -0.3063
56522W        W99434  15.130  11.744  31.594  0.1129  0.2942 -0.1745
56523W        W99435  13.400  11.433  28.775  0.1473 -0.2221 -0.1362
56524W        W99436  15.001   7.403  28.365 -0.0891 -0.1609  0.0879
56525W        W99437  11.522   6.703  29.799 -0.1882  0.0654 -0.1480
56526W        W99438  13.028   8.820  28.929  0.2334 -0.2039  0.2491
56527W        W99439  11.991   8.663  29.264  0.2094  0.2145 -0.0675
56528W        W99440  13.978   7.567  28.094 -0.1543  0.0157 -0.1222
56529W        W99441  12.920   9.417  30.248 -0.1338 -0.1192 -0.2958
56530W        W99442  14.045   7.991  27.538 -0.0512  0.1626  0.0586
56531W        W99443  13.450  12.403  30.987  0.2653 -0.1373  0.2110
56532W        W99444  14.525   9.480  29.483 -0.1862 -0.2499  0.3649
56533W        W99445  14.665   9.295  30.481  0.1834 -0.4170 -0.0203
56534W        W99446  13.264   9.810  28.692 -0.1460 -0.1132  0.0262
56535W        W99447  11.163   8.497  31.264  0.0288  0.0203  0.0270
56536W        W99448  11.665  11.402  31.119 -0.2806  0.1645  0.1443
56537W        W99449  12.046  11.745  31.245 -0.0082 -0.0200 -0.1178
56538W        W99450  12.718  12.513  31.375  0.0044 -0.0560  0.1641
56539W        W99451  13.618   8.894  31.336 -0.2164  0.0074 -0.0792
56540W        W99452  12.744   9.675  31.685  0.1586  0.1628  0.0441
56541W        W99453  15.257   7.841  29.956 -0.0372  0.3258 -0.0202
56542W        W99454  15.684   8.822  30.282 -0.0693  0.0850  0.0211
56543W        W99455  12.777  11.211  29.907  0.3974 -0.2344  0.1641
56544W        W99456  12.181   6.148  30.262 -0.1091  0.1434 -0.1816
56545W        W99457  14.209   9.435  31.392 -0.1652 -0.1590  0.2500
56546W        W99458  12.783   8.037  29.492 -0.0018 -0.0011  0.2127
56547W        W99459  13.489   8.411  31.243  0.1957 -0.1149  0.1961
56548W        W99460  12.054  12.370   0.220 -0.0418 -0.0434  0.0173
56549W        W99461  12.983   7.666  31.033  0.2426 -0.2592 -0.2923
56550W        W99462  14.780  10.170  30.323  0.2315  0.3418 -0.2997
56551W        W99463  13.295   8.328  29.499 -0.0187  0.0481  0.1483
56552W        W99464  12.634   7.662   0.592 -0.2402  0.1866  0.4953
56553W        W99465   9.514   6.918  31.417  0.4264 -0.1569  0.0677
56554W        W99466  10.970   9.805  30.321  0.4033  0.0918  0.2162
56555W        W99467  14.494   7.381  31.680  0.1099 -0.0786  0.1242
56556W        W99468  15.437   8.960  30.813 -0.1613  0.1457 -0.3288
56557W        W99469  13.952   7.899  30.461  0.0457  0.0044  0.2294
56558W        W99470  13.530   8.745  30.835  0.1800  0.3251 -0.0827
56559W        W99471  11.569  10.409  29.940  0.0147 -0.0275 -0.1182
56560W        W99472  10.570  10.732   1.267 -0.3596  0.0046 -0.0884
56561W        W99473  12.455   9.253  30.073  0.2692 -0.1090  0.0190
56562W        W99474  12.469  10.742  31.011  0.1512 -0.0993  0.0956
56563W        W99475  11.643  10.903  30.081  0.2494  0.0462  0.1162
56564W        W99476  12.007   9.471  30.659  0.0584  0.0736  0.2437
56565W        W99477  15.326  10.090  30.971 -0.1312 -0.1521 -0.2350
56566W        W99478  14.520   8.699  30.561 -0.3332 -0.1366  0.1461
56567W        W99479  12.483   7.182   0.856  0.0713  0.1029 -0.0554
56568W        W99480  11.401   8.634  30.245  0.1384  0.3749 -0.0064
56569W        W99481  12.844   9.019  30.902 -0.0252  0.0192 -0.0384
56570W        W99482  12.782   9.809  30.691 -0.1067  0.0439 -0.1749
56571W        W99483  14.592   9.115  30.933  0.1773  0.1476  0.1790
56572W        W99484  12.429   9.696  30.321 -0.2337  0.0863  0.3980
56573W        W99485  13.409   9.159  31.703  0.0002 -0.1214 -0.1477
56574W        W99486  13.899   8.691  30.188 -0.0861 -0.1053  0.0846
56575W        W99487  11.834   6.964  31.963 -0.1067 -0.0870 -0.1223
56576W        W99488  14.066  11.851  30.616  0.0389  0.0669 -0.3785
56577W        W99489  12.513   7.645  30.714  0.3282  0.2910  0.0158
56578W        W99490  12.723  10.053  30.222 -0.2796 -0.1012  0.0308
56579W        W99491  13.880   8.163  29.554  0.0443 -0.0526  0.0786
56580W        W99492  13.685  11.477  31.027  0.1241 -0.1592 -0.0431
56581W        W99493  15.085  10.453  31.568 -0.1167 -0.1832  0.1321
56582W        W99494  12.131  11.452   0.671  0.0764  0.2826  0.0125
56583W        W99495  15.406  11.926  31.119  0.0607  0.1208 -0.4114
56584W        W99496  15.213   9.430  30.799 -0.0469 -0.0107  0.2480
56585W        W99497  13.443   8.297  30.017  0.1113  0.1079 -0.0973
56586W        W99498  12.148  11.777  30.078  0.1793 -0.0029  0.2342
56587W        W99499  13.413   9.317  30.058  0.4315 -0.2323  0.0640
56588W        W99500  13.025   9.098  29.854  0.0267  0.1263 -0.0437
56589W        W99501  15.849   9.479  30.192  0.2273 -0.2417  0.0956
56590W        W99502  12.237  10.974   0.066  0.0449  0.2260  0.3391
56591W        W99503  12.713  10.938  30.493 -0.0963 -0.1892 -0.0175
56592W        W99504  11.743   9.467  30.213  0.0789  0.2057  0.0700
56593W        W99505  11.956   8.036  31.325 -0.0732 -0.2340 -0.2998
56594W        W99506  12.503   7.982  31.278  0.0243 -0.0791 -0.0758
56595W        W99507  11.907   8.365  29.881 -0.0454  0.1712  0.0927
56596W        W99508  11.379   7.961  31.405 -0.0880 -0.1093 -0.0948
56597W        W99509  14.740   9.589   0.049  0.2615  0.3092 -0.1997
56598W        W99510  14.589  10.757  30.988  0.2491  0.0201  0.0681
56599W        W99511  16.070   8.878  31.193  0.0579  0.0076 -0.0540
56600W        W99512  10.273  14.343  17.989  0.0745  0.1468  0.0404
56601W        W99513  11.401  12.824  16.719 -0.1933 -0.1012 -0.2226
56602W        W99514  13.446  11.268  14.733 -0.2071 -0.1091  0.1307
56603W        W99515  14.760  12.590  16.124  0.1411 -0.2730  0.1026
56604W        W99516  11.328  11.190  18.119 -0.4935 -0.1749 -0.2345
56605W        W99517  13.920  14.238  15.982  0.3027 -0.0792 -0.1530
56606W        W99518  10.188  10.143  19.691  0.2882  0.0958 -0.2233
56607W        W99519  13.535  13.577  18.324  0.3091  0.0853  0.2912
56608W        W99520  13.403  14.684  18.652 -0.0400  0.0941  0.0579
56609W        W99521  12.145  13.422  16.492  0.0765 -0.1612  0.1529
56610W        W99522  12.366  11.562  18.918  0.0408 -0.1514 -0.2248
56611W        W99523  11.834  13.737  17.763 -0.0181  0.1114 -0.0277
56612W        W99524  11.671   9.873  17.255 -0.4662 -0.1388  0.2428
56613W        W99525   9.680  10.566  17.348 -0.2690 -0.2057 -0.1952
56614W        W99526  12.094  11.540  17.537 -0.4351  0.0176  0.2481
56615W        W99527  10.467  13.070  16.406 -0.1623 -0.1325  0.0153
56616W        W99528  11.853  11.876  20.070 -0.3493 -0.0688 -0.0786
56617W        W99529  12.448  11.930  17.573 -0.1228 -0.0876  0.0322
56618W        W99530  13.494  13.706  16.891 -0.1057  0.1787 -0.0513
56619W        W99531  12.780  11.454  16.883 -0.5017 -0.2254 -0.3088
56620W        W99532  11.010  10.312  18.536 -0.6163 -0.2472 -0.2845
56621W        W99533  12.848  13.691  16.097  0.1569 -0.1853  0.0090
56622W        W99534  10.737  12.742  16.956 -0.3465  0.3223  0.1572
56623W        W99535  11.207  11.320  17.574  0.0676 -0.2579  0.0996
56624W        W99536  11.357  12.903  18.156  0.1628 -0.1356 -0.0705
56625W        W99537  13.196  11.611  16.651 -0.2322 -0.1953  0.0897
56626W        W99538  13.225  12.633  17.493 -0.0665  0.2238  0.0578
56627W        W99539  13.040  12.925  16.646  0.3684 -0.0490 -0.0289
56628W        W99540  14.075  13.481  17.405 -0.0730  0.4359  0.1700
56629W        W99541  13.345  12.161  18.217  0.1822  0.0742 -0.0441
56630W        W99542  11.420  12.465  18.379 -0.0391  0.0325 -0.0886
56631W        W99543  10.029  14.648  16.132  0.1425 -0.1374  0.0972
56632W        W99544  13.248  13.827  15.802  0.0121 -0.1561  0.0014
56633W        W99545  14.358  13.550  15.022  0.1065 -0.0122  0.0076
56634W        W99546  12.927  13.231  19.068 -0.4936  0.2865  0.1525
56635W        W99547  11.189  14.321  19.366 -0.1320  0.4772  0.0048
56636W        W99548  10.641  13.597  15.419  0.1194  0.1196  0.3355
56637W        W99549  12.632  15.037  18.582 -0.2327 -0.0704  0.1479
56638W        W99550  10.949  14.774  17.760  0.1327 -0.1169 -0.0414
56639W        W99551  11.143  11.642  17.967 -0.0915  0.3618 -0.1872
56640W        W99552  12.056  12.850  17.350  0.0624  0.0626 -0.1352
56641W        W99553  12.733  12.702  16.141  0.2708 -0.1635  0.0208
56642W        W99554  11.594  13.787  17.062 -0.2080  0.3354  0.0076
56643W        W99555  11.206  12.696  19.389  0.1735 -0.0652  0.1061
56644W        W99556  10.118  13.622  18.084 -0.0532  0.0573  0.2591
56645W        W99557  13.358  10.398  19.780 -0.0302  0.0272 -0.0078
56646W        W99558  10.949  13.945  15.639 -0.2469 -0.1397 -0.1280
56647W        W99559  13.859  12.494  15.230  0.1105  0.0404 -0.2427
56648W        W99560  11.642  12.771  17.590  0.3454 -0.4162 -0.4837
56649W        W99561  12.274  12.290  16.707  0.0950 -0.1687  0.0862
56650W        W99562  12.663  10.692  16.174  0.2478 -0.0049 -0.1151
56651W        W99563  11.580  15.342  17.373 -0.1763  0.0526  0.0942
56652W        W99564  13.250  12.625  18.417 -0.0555  0.1728 -0.2212
56653W        W99565  13.805  13.391  17.829 -0.0855 -0.1662  0.4240
56654W        W99566  11.755  12.509  17.016 -0.2975  0.2774  0.0605
56655W        W99567  13.014  13.339  17.464  0.1938  0.1726 -0.0621
56656W        W99568  10.652  14.044  17.784  0.1101 -0.1201 -0.0729
56657W        W99569  10.708  11.450  18.807  0.2743 -0.2912  0.2939
56658W        W99570  13.868  14.462  14.910 -0.1730 -0.1102 -0.0602
56659W        W99571  13.978  12.486  15.813  0.0693  0.0357 -0.0392
56660W        W99572  13.576  14.133  15.611  0.1348  0.0126  0.2047
56661W        W99573  10.380  11.203  16.552 -0.0018 -0.1328  0.4445
56662W        W99574  11.965  12.102  19.538 -0.0396 -0.0367 -0.3441
56663W        W99575  10.398  13.972  18.293 -0.2104  0.3529 -0.3532
56664W        W99576  12.820  12.847  17.243  0.1464 -0.0027 -0.2248
56665W        W99577  13.674  12.524  18.647  0.1752 -0.2527  0.0201
56666W        W99578  10.327  13.537  17.635 -0.0942  0.1321  0.0344
56667W        W99579  13.613  12.261  15.985 -0.0552 -0.0180 -0.0374
56668W        W99580  11.587  13.003  17.131 -0.0155 -0.0345 -0.0052
56669W        W99581  12.350  14.622  18.739  0.0050  0.1889 -0.0681
56670W        W99582  13.743  13.740  15.964 -0.6019 -0.2306 -0.1685
56671W        W99583  13.269  11.118  16.565  0.1762  0.5500 -0.2350
56672W        W99584  13.552  11.639  17.702 -0.1588  0.2407 -0.3445
56673W        W99585  11.638  11.644  17.780 -0.0185  0.0023 -0.2574
56674W        W99586  12.059  13.282  15.618  0.1217  0.1739 -0.1179
56675W        W99587  13.591  13.089  18.203  0.0800 -0.0057 -0.0722
56676W        W99588  14.445  13.185  15.510  0.2118  0.2355 -0.0414
56677W        W99589  11.464  14.035  17.506 -0.0868  0.1532 -0.1691
56678W        W99590  11.655  11.174  19.611  0.2362  0.2077  0.1734
56679W        W99591  12.267  12.112  18.767 -0.1269  0.0134  0.0068
56680W        W99592  12.324  14.864  16.061 -0.1577  0.1324  0.2785
56681W        W99593  11.333  11.357  19.295 -0.2832 -0.3741  0.3499
56682W        W99594   9.364  13.354  16.295  0.2841  0.2248 -0.1080
56683W        W99595  10.362  12.082  18.113 -0.0964  0.5116 -0.3715
56684W        W99596  11.540  14.393  17.171 -0.0812 -0.2970 -0.1456
56685W        W99597  14.809  11.603  16.361  0.4409  0.1304  0.0626
56686W        W99598  10.581  10.058  18.198 -0.0561  0.0713  0.1259
56687W        W99599  12.234  10.374  16.037 -0.2635  0.2570  0.1725
56688W        W99600   8.846  13.133  16.837  0.1337  0.1900 -0.2040
56689W        W99601  14.706  14.453  17.092 -0.1361 -0.1915  0.1238
56690W        W99602  14.294  12.278  15.470  0.0784 -0.0092 -0.0417
56691W        W99603  14.083  13.897  15.616  0.1772 -0.0848 -0.0319
56692W        W99604   9.201  10.561  19.365 -0.3036  0.1286  0.0736
56693W        W99605  11.224  11.534  18.452 -0.2291 -0.2782  0.0425
56694W        W99606  11.217  12.360  18.952  0.0687  0.0225 -0.1103
56695W        W99607  12.442  11.814  16.046 -0.2669  0.0163  0.2095
56696W        W99608  14.535  11.033  18.595  0.2755 -0.1482  0.1435
56697W        W99609  11.813  11.674  15.802 -0.1891  0.0209  0.1683
56698W        W99610  14.241  12.795  16.778  0.0004 -0.0701 -0.0106
56699W        W99611  11.192  10.574  17.523 -0.2903  0.1693  0.1042
56700W        W99612   9.745  14.288  15.916 -0.2424  0.0032 -0.2015
56701W        W99613  12.168  11.189  19.227 -0.0737  0.0763 -0.1464
56702W        W99614  13.262  15.077  16.869  0.0787  0.2758  0.1103
56703W        W99615  13.112  14.376  18.384  0.1491  0.0001 -0.0069
56704W        W99616  13.774  13.506  16.427  0.0117  0.1272 -0.5055
56705W        W99617  12.861  11.479  21.041 -0.1242  0.2264 -0.1031
56706W        W99618  11.329  11.657  15.947 -0.0722  0.3714  0.1282
56707W        W99619  11.807  14.352  17.646 -0.3597 -0.1904 -0.2383
56708W        W99620  12.587  13.735  17.489  0.3787 -0.1379 -0.1059
56709W        W99621  12.715  12.049  15.690 -0.2585 -0.0090  0.1367
56710W        W99622  14.490  13.025  16.062  0.2109 -0.2248  0.2337
56711W        W99623  12.322  13.091  16.919 -0.1792 -0.0161  0.1128
56712W        W99624  11.828  12.792  18.353  0.1889  0.0748  0.2927
56713W        W99625  13.081  11.859  17.599  0.0132 -0.1421  0.0399
56714W        W99626  13.164  11.403  17.911  0.1936  0.2420  0.0726
56715W        W99627  12.331  13.448  18.048  0.0925 -0.1777  0.0314
56716W        W99628  10.766   9.989  15.783 -0.0423 -0.2543  0.1815
56717W        W99629  13.733  14.671  15.777 -0.1943  0.3571  0.1026
56718W        W99630  11.278  14.333  15.758 -0.1149  0.2076 -0.1212
56719W        W99631  10.204  11.430  17.390  0.0406  0.1706  0.0170
56720W        W99632  13.482  13.225  16.125  0.2025 -0.2987 -0.0984
56721W        W99633  12.881  12.358  16.915  0.1017 -0.1728 -0.0159
56722W        W99634  10.614  11.549  17.964  0.1982  0.0953  0.0526
56723W        W99635  13.570  11.666  18.991 -0.0485  0.0293 -0.2928
56724W        W99636  10.676  12.097  16.547 -0.1270 -0.1387  0.2126
56725W        W99637  11.350  13.627  17.845 -0.0386 -0.0774  0.1703
56726W        W99638  14.179   9.869  17.282  0.0706  0.2355  0.0089
56727W        W99639  13.901  11.130  16.116 -0.0266  0.4001  0.2298
56728W        W99640  12.477  11.552  18.427  0.0977  0.1568  0.0121
56729W        W99641  14.274  11.067  15.349  0.0884  0.1392  0.1292
56730W        W99642  12.754  11.333  15.529  0.0151  0.4715  0.0398
56731W        W99643  13.881  10.834  15.664 -0.2201 -0.0037  0.0372
56732W        W99644  10.782  13.437  19.296  0.1941  0.0891 -0.0496
56733W        W99645  13.115  12.477  16.398  0.1572  0.2236  0.0434
56734W        W99646  11.587  12.238  17.488  0.2759  0.1731 -0.0017
56735W        W99647  13.173  12.291  15.431 -0.0846 -0.0839  0.1909
56736W        W99648  14.098  13.151  16.457  0.0557 -0.0407  0.1227
56737W        W99649  10.207  13.149  18.029  0.0766 -0.2677 -0.1070
56738W        W99650  13.233  13.166  18.613  0.1770 -0.3244 -0.0544
56739W        W99651  12.956  13.823  16.605  0.0631 -0.0372  0.0284
56740W        W99652  13.884  11.318  16.583  0.2326 -0.1759  0.0895
56741W        W99653  11.897  12.627  15.339  0.2114 -0.0375 -0.0093
56742W        W99654  11.253  12.667  17.162  0.0417  0.0302 -0.1493
56743W        W99655  11.319  14.766  16.324  0.1654  0.1572  0.3105
56744W        W99656  14.044  10.543  17.014 -0.0135 -0.0340 -0.1443
56745W        W99657  12.214  10.800  18.191  0.3522  0.1142 -0.1162
56746W        W99658  11.563  12.027  18.700 -0.0434  0.0090  0.1606
56747W        W99659  14.453  11.502  18.326  0.0988 -0.3530 -0.0285
56748W        W99660  12.964  12.610  17.916  0.2076 -0.1176 -0.1939
56749W        W99661  13.079  13.040  18.173  0.2199  0.0029  0.1842
56750W        W99662  11.243  12.579  15.613  0.1246 -0.1498  0.0218
56751W        W99663  12.326  11.160  17.799 -0.0673 -0.2142  0.0358
56752W        W99664  10.863  12.942  19.177 -0.0291  0.0969 -0.2291
56753W        W99665  10.175  15.332  16.781 -0.0701 -0.1623 -0.1060
56754W        W99666  11.859  13.375  19.081  0.0487  0.2177  0.2406
56755W        W99667  12.602  12.668  16.643 -0.0709  0.1420  0.0558
56756W        W99668  13.596  11.126  17.810 -0.0480  0.4342  0.3707
56757W        W99669  12.745  11.672  15.130 -0.0638 -0.0307  0.2455
56758W        W99670  12.537  14.413  16.641  0.2266  0.1608  0.0671
56759W        W99671  12.529  14.041  16.993  0.1135  0.1061 -0.1648
56760W        W99672  12.176  11.488  17.067 -0.1079 -0.2048  0.0046
56761W        W99673  11.716  13.288  18.099  0.0191 -0.2572  0.0786
56762W        W99674  11.585  13.396  15.848  0.1672 -0.1106  0.2757
56763W        W99675  13.001  13.720  17.161 -0.0644 -0.0729 -0.2819
56764W        W99676  11.792  14.727  16.125 -0.0014 -0.3491 -0.0395
56765W        W99677  13.194  10.097  17.419 -0.0895 -0.4142  0.4400
56766W        W99678   9.638  14.079  16.794  0.2251 -0.4809  0.1883
56767W        W99679  11.614  11.780  16.311  0.3013 -0.0898 -0.3891
56768W        W99680  10.188  11.604  16.887  0.2514 -0.0076 -0.0329
56769W        W99681  12.210  11.590  18.033  0.0321 -0.0917 -0.1047
56770W        W99682  12.697  12.081  16.500 -0.2636 -0.2631  0.0564
56771W        W99683  12.339  10.423  17.765 -0.1877  0.0714 -0.0091
56772W        W99684  12.518  11.274  16.108 -0.2729 -0.0576  0.0616
56773W        W99685  11.145  13.183  17.625  0.0680 -0.0163  0.1597
56774W        W99686  12.122  12.407  17.514  0.0617  0.1461 -0.0727
56775W        W99687  13.641  11.626  15.276 -0.0031  0.0266  0.0563
56776W        W99688  12.862  13.540  18.032 -0.0062 -0.2022  0.1437
56777W        W99689  11.655  11.288  18.622  0.4969  0.4606 -0.0337
56778W        W99690  10.440  13.186  17.002  0.1582  0.1864 -0.1320
56779W        W99691  13.987  10.910  18.746 -0.0710  0.1900  0.0046
56780W        W99692  11.889  11.238  18.217  0.0801 -0.0975 -0.1701
56781W        W99693  11.457  13.044  16.255  0.0113 -0.3941  0.0282
56782W        W99694  11.136  13.345  18.316 -0.3142 -0.0313  0.5047
56783W        W99695  10.599  11.813  17.126 -0.0243  0.2894 -0.2815
56784W        W99696  12.292  13.042  18.303  0.1127  0.2467  0.0563
56785W        W99697  12.538  12.716  20.231 -0.1561 -0.1388  0.2079
56786W        W99698  12.363  13.451  19.119 -0.0750  0.0564 -0.1508
56787W        W99699  11.685  11.519  17.272 -0.1640  0.0895 -0.1741
56788W        W99700  12.177  10.738  16.656  0.0376  0.0209 -0.1552
56789W        W99701  11.371  12.067  17.953  0.0461 -0.0424  0.1322
56790W        W99702  11.977  12.178  18.364  0.2598  0.2445  0.1272
56791W        W99703  13.086  11.410  17.312 -0.0140  0.1542  0.0045
56792W        W99704  12.176  14.159  18.492 -0.1478 -0.2175 -0.3037
56793W        W99705  12.108  10.776  17.558 -0.0693 -0.2907 -0.1599
56794W        W99706  13.999  13.461  15.374 -0.1105  0.1258 -0.2574
56795W        W99707  12.127  13.055  19.353 -0.1648  0.0576 -0.0700
56796W        W99708  12.254  12.773  15.817  0.2036 -0.0836 -0.0169
56797W        W99709  10.210  10.762  18.828 -0.2391  0.3658  0.0386
56798W        W99710  12.006  14.336  17.009  0.1519 -0.0120  0.0320
56799W        W99711  11.907  10.847  19.894 -0.2207 -0.0807  0.0092
56800W        W99712  10.574  13.909  16.287  0.0114 -0.0132 -0.0337
56801W        W99713  12.391  13.469  16.028  0.5374 -0.1653  0.1076
56802W        W99714  11.081  14.284  17.729 -0.3641 -0.2435  0.1030
56803W        W99715  13.451  10.870  15.912 -0.0824 -0.0095 -0.0178
56804W        W99716  13.678  12.057  15.038  0.2069 -0.2201 -0.1384
56805W        W99717  12.762  11.589  16.422 -0.1749  0.1213  0.4690
56806W        W99718  13.864  11.830  18.197 -0.0145  0.3825 -0.1837
56807W        W99719  14.037  12.930  15.534  0.3782 -0.1570  0.3197
56808W        W99720  11.303   9.895  18.686  0.3337 -0.0597  0.1947
56809W        W99721  10.864  11.177  19.179  0.2886  0.0512 -0.1137
56810W        W99722  14.330  14.118  15.160 -0.0072 -0.0258 -0.0570
56811W        W99723  10.799  12.081  17.930 -0.1487 -0.2881  0.1300
56812W        W99724  11.780  14.256  20.120 -0.0541 -0.0111  0.0280
56813W        W99725  10.922  13.435  20.026  0.1065  0.0562  0.0990
56814W        W99726  12.371  12.535  17.133  0.0240  0.0057  0.3459
56815W        W99727  12.576  10.876  15.680 -0.1719 -0.2732  0.3367
56816W        W99728  12.150  14.040  17.409 -0.2917 -0.2907 -0.4691
56817W        W99729  13.571  13.406  17.406 -0.0648  0.3175  0.0443
56818W        W99730  11.972  12.125  16.014  0.1613 -0.1105  0.1909
56819W        W99731  12.658  13.387  16.484 -0.3573  0.2884 -0.0041
56820W        W99732  12.471  11.988  18.282  0.2252 -0.3529  0.3482
56821W        W99733  11.857  13.368  16.875  0.3730 -0.1545 -0.1386
56822W        W99734  12.148  12.571  16.309  0.5801 -0.0089 -0.3082
56823W        W99735  12.010  13.796  16.165  0.1216 -0.2404  0.1579
56824W        W99736  10.254  12.701  19.280 -0.2406 -0.1478 -0.0319
56825W        W99737  12.973  14.246  16.873 -0.0204  0.2906 -0.2022
56826W        W99738  13.994  11.352  15.638  0.1942 -0.3820 -0.1753
56827W        W99739  13.343  12.272  17.744  0.0992 -0.0789 -0.3103
56828W        W99740  13.402  12.137  17.263 -0.2959  0.2812 -0.3098
56829W        W99741  12.007  12.762  20.312 -0.2916 -0.1116  0.3204
56830W        W99742  12.353  11.845  19.783 -0.4312 -0.3590  0.1885
56831W        W99743  12.575  14.204  17.613  0.2785 -0.2062  0.0767
56832W        W99744  13.660  12.161  15.500  0.3344  0.0172 -0.1496
56833W        W99745  13.799  11.835  17.193 -0.2569  0.1669 -0.0206
56834W        W99746  13.734  10.915  16.802  0.0693 -0.1061 -0.0850
56835W        W99747  11.928  12.941  16.602 -0.0015  0.2616  0.2947
56836W        W99748  11.219  11.675  18.900  0.1572  0.1435  0.2742
56837W        W99749  13.279  13.584  18.898 -0.0452 -0.0811 -0.0684
56838W        W99750  12.490  12.303  16.079 -0.0946  0.3409 -0.0919
56839W        W99751  13.178  11.752  18.671  0.2188 -0.2036 -0.1128
56840W        W99752  13.914  13.936  15.092  0.1096 -0.1448  0.0010
56841W        W99753  12.011  12.925  18.797  0.0193 -0.0508  0.1132
56842W        W99754  12.385  10.404  17.275  0.1749  0.0569  0.1028
56843W        W99755  11.847  11.557  19.128  0.0235  0.1849  0.0286
56844W        W99756  11.870  12.448  18.804  0.2584  0.0158 -0.2601
56845W        W99757  11.603  12.572  16.357  0.2192  0.0767 -0.1344
56846W        W99758  11.589  13.556  16.407 -0.1878 -0.2495  0.3810
56847W        W99759  12.258  13.945  17.954 -0.2511  0.0971  0.0557
56848W        W99760  13.451  11.531  18.272 -0.1719 -0.2320  0.0683
56849W        W99761  11.786  10.304  16.414  0.1625  0.0459 -0.1302
56850W        W99762  15.223  12.023  18.295 -0.0554 -0.0920 -0.1090
56851W        W99763  11.036  13.123  17.055 -0.4030  0.0462  0.2802
56852W        W99764  14.269  10.306  17.484  0.1494 -0.1345  0.2814
56853W        W99765  10.535  14.462  16.863  0.1385 -0.0830 -0.1602
56854W        W99766   9.359  13.347  17.655  0.2483  0.3119  0.2733
56855W        W99767  13.287  14.712  16.438 -0.2030  0.0460  0.0266
56856W        W99768  11.923  10.275  17.471  0.1544 -0.1559  0.1542
56857W        W99769  11.993  12.023  17.781 -0.3478 -0.0550  0.1561
56858W        W99770  12.031  11.700  18.538 -0.1499  0.0817 -0.1306
56859W        W99771  13.808  10.853  17.314 -0.3993 -0.0314  0.2366
56860W        W99772  11.945  13.722  18.299 -0.0615 -0.2106 -0.1062
56861W        W99773  11.147  12.501  17.682  0.1238  0.0770 -0.0018
56862W        W99774  13.507  12.902  19.026 -0.1210  0.1071  0.1166
56863W        W99775  13.345  13.167  17.027 -0.0744 -0.3076 -0.0530
56864W        W99776  11.224  13.636  17.368 -0.2043 -0.0858  0.4466
56865W        W99777   9.154  12.258  18.902 -0.0177  0.0260 -0.0149
56866W        W99778  10.785  11.903  18.953  0.0998  0.1509  0.1031
56867W        W99779  12.444  13.733  18.411  0.0157  0.2681 -0.0810
56868W        W99780  12.043  11.471  16.229  0.0579  0.1301 -0.0092
56869W        W99781  12.580  13.131  15.625 -0.1681  0.5024 -0.2403
56870W        W99782  10.256  13.309  19.312 -0.0449 -0.0303 -0.0239
56871W        W99783  11.031  11.709  19.429  0.1321  0.2328  0.2436
56872W        W99784  11.751  14.666  16.722 -0.2373  0.0653  0.2565
56873W        W99785  13.585  13.178  15.643 -0.1833  0.1051 -0.0678
56874W        W99786  13.530  13.680  15.395 -0.0468 -0.1352  0.4375
56875W        W99787  14.666  14.087  17.565 -0.0942  0.1672  0.1255
56876W        W99788  12.042  11.962  17.118  0.1663  0.0100  0.2875
56877W        W99789  12.510  14.228  16.159 -0.1039  0.1954 -0.1107
56878W        W99790   9.456  14.973  18.102  0.3258 -0.0927  0.2879
56879W        W99791  13.100  12.909  15.680 -0.1925 -0.1931 -0.0203
56880W        W99792  10.506  14.422  17.481  0.2067  0.3669 -0.2482
56881W        W99793  13.985  12.913  17.883  0.0556  0.0340 -0.1774
56882W        W99794  13.392   9.328  16.252  0.1561 -0.2411 -0.0403
56883W        W99795  12.442  13.222  17.406  0.3454  0.1977 -0.0675
56884W        W99796  14.775  13.330  17.909  0.0294  0.0678  0.3774
56885W        W99797  13.794  13.745  18.724  0.0657 -0.3810  0.1583
56886W        W99798  10.703  13.599  18.005 -0.3709  0.1866 -0.0477
56887W        W99799  13.156  11.736  15.403 -0.2746  0.0326  0.0508
56888W        W99800  11.285  13.428  18.957 -0.2575  0.0441 -0.0873
56889W        W99801  14.928  11.542  18.439  0.1750  0.0232 -0.0899
56890W        W99802  10.494  14.778  18.795 -0.0111 -0.0093  0.3030
56891W        W99803  14.246  14.571  15.845  0.2021  0.1470 -0.3475
56892W        W99804  10.556  12.264  16.979 -0.0300 -0.2244  0.3768
56893W        W99805  11.491  11.893  17.062 -0.1573 -0.3038 -0.2096
56894W        W99806  14.001  11.466  17.570  0.2963 -0.0036  0.1314
56895W        W99807  12.767  12.252  15.165  0.2319 -0.1789 -0.1687
56896W        W99808  14.860  11.092  16.195 -0.0995  0.0882  0.0093
56897W        W99809  12.737  14.016  18.098  0.0253  0.1109  0.1439
56898W        W99810  12.768  13.336  18.457  0.2094 -0.5632  0.1597
56899W        W99811  11.536  13.008  19.163  0.0526 -0.0024  0.2684
56900W        W99812  10.968  13.019  16.528 -0.1997  0.3682 -0.1125
56901W        W99813  14.746  12.169  16.401  0.0539 -0.0229  0.0468
56902W        W99814  11.907  12.783  20.933  0.2196 -0.0390  0.0349
56903W        W99815  14.097  12.083  20.014 -0.0922  0.0238  0.0518
56904W        W99816  10.421  11.705  16.371  0.2185 -0.2947 -0.0493
56905W        W99817  13.565  12.642  15.581 -0.0992  0.1756 -0.0361
56906W        W99818  12.516  12.665  17.625 -0.2681  0.2888  0.1710
56907W        W99819  11.741  11.194  17.695  0.1548  0.0255 -0.0247
56908W        W99820  14.026  11.963  15.798  0.2295  0.0365  0.2102
56909W        W99821  14.729  11.973  18.235 -0.1342  0.1964 -0.2561
56910W        W99822  14.294  12.729  14.625  0.2406 -0.0238 -0.2134
56911W        W99823  13.362  14.305  19.390 -0.0529 -0.2493  0.1643
56912W        W99824  11.219   9.001  16.696  0.1448  0.1101  0.0380
56913W        W99825  13.010  11.127  16.020 -0.2006 -0.1632 -0.0049
56914W        W99826  10.724  13.482  16.586  0.0883 -0.2521 -0.0918
56915W        W99827  11.761  12.476  17.974 -0.2613 -0.0979 -0.0299
56916W        W99828  13.739  13.395  19.143 -0.1766 -0.1538 -0.1727
56917W        W99829  10.775  10.905  16.593  0.1775 -0.0768  0.0763
56918W        W99830  13.986  13.309  15.891  0.1424  0.2470 -0.1957
56919W        W99831  12.809  13.268  16.976 -0.1777 -0.1008 -0.0138
56920W        W99832  12.976  14.396  14.983 -0.0002  0.2957  0.1774
56921W        W99833  13.009  14.218  16.326 -0.0005  0.0291  0.2058
56922W        W99834  15.069  13.764  17.534 -0.2242 -0.0395  0.1124
56923W        W99835  11.175  10.699  16.371  0.1080 -0.1059 -0.1345
56924W        W99836  14.683  13.519  18.331 -0.0135 -0.1328  0.1987
56925W        W99837  13.925  13.834  17.086  0.0881  0.1307 -0.0495
56926W        W99838  11.968   9.930  16.020  0.1200 -0.0308 -0.0029
56927W        W99839  11.336  11.188  16.688  0.1444 -0.0120  0.2095
56928W        W99840  10.064  14.194  16.321  0.0220 -0.0629 -0.0329
56929W        W99841  14.828  12.338  15.424  0.3320 -0.4240 -0.0732
56930W        W99842  13.604  12.000  18.575  0.0471  0.0027  0.0572
56931W        W99843  12.192  14.759  15.621 -0.0132 -0.0091 -0.2814
56932W        W99844  14.186  10.514  18.478 -0.3828 -0.0078 -0.1831
56933W        W99845  11.653  14.243  18.582 -0.0095 -0.0833  0.0282
56934W        W99846  11.512  15.204  19.719 -0.4075 -0.3719  0.0105
56935W        W99847  11.765  12.611  15.862  0.0322 -0.2264 -0.0532
56936W        W99848  11.668  11.768  18.246 -0.3664 -0.1074  0.2804
56937W        W99849  12.009  12.969  17.910 -0.4172  0.1781 -0.0883
56938W        W99850  11.997  14.189  15.271 -0.0833  0.0779  0.0275
56939W        W99851  14.356  13.095  17.644 -0.0120  0.0039  0.1880
56940W        W99852  11.903  13.057  16.138 -0.1311  0.3330  0.0665
56941W        W99853  11.983  14.355  16.374 -0.2173 -0.0184  0.1621
56942W        W99854  11.585  10.713  16.818 -0.0813 -0.0526 -0.2101
56943W        W99855  13.935  11.624  16.132  0.1738 -0.0431 -0.2824
56944W        W99856  13.494  11.739  15.773  0.0001  0.0940  0.1468
56945W        W99857  10.604  12.406  19.049  0.1694  0.0094 -0.2029
56946W        W99858  10.423  12.797  15.520 -0.1564 -0.0993  0.1717
56947W        W99859  11.065  13.424  16.202  0.1785  0.1673 -0.0017
56948W        W99860  11.165  14.057  17.086  0.0794  0.0653  0.1333
56949W        W99861  11.503  10.601  20.806 -0.1489 -0.3346  0.3052
56950W        W99862  10.892  11.000  20.752  0.1719 -0.0755 -0.2907
56951W        W99863  10.976  12.540  18.165  0.1170 -0.1401 -0.1019
56952W        W99864  11.116  10.749  16.904  0.1387  0.1295  0.0708
56953W        W99865  14.749  13.896  14.929 -0.1442  0.0982 -0.3067
56954W        W99866  10.857  11.415  16.642 -0.1923  0.1459 -0.3303
56955W        W99867  10.497  10.439  18.531 -0.2301  0.3954 -0.0323
56956W        W99868  13.837  12.886  16.131  0.0068  0.0053 -0.0994
56957W        W99869  13.625  13.004  16.574  0.3703  0.1681 -0.2062
56958W        W99870  11.369  12.272  16.706  0.2557 -0.0271  0.3411
56959W        W99871  14.217  13.407  18.805  0.0819  0.1325  0.5141
56960W        W99872   9.867  13.387  16.972  0.0433 -0.0375  0.3914
56961W        W99873  11.133  12.102  18.431  0.1279  0.3741  0.2621
56962W        W99874  11.476  11.954  19.243  0.2895  0.1927  0.1816
56963W        W99875  12.088  10.988  16.162  0.1299  0.0366  0.0678
56964W        W99876  12.689  11.537  17.806 -0.0871 -0.4547 -0.2145
56965W        W99877  12.983  13.226  16.120 -0.3352  0.0868 -0.1607
56966W        W99878  14.751  13.668  15.369 -0.3228  0.2693  0.1579
56967W        W99879  10.808  13.269  18.761  0.1870  0.1779  0.0935
56968W        W99880  11.247  14.453  18.337  0.0378 -0.1909 -0.1109
56969W        W99881  11.146  10.196  19.166 -0.1991  0.0855  0.0241
56970W        W99882  12.402  13.578  16.971 -0.1734 -0.1413  0.2239
56971W        W99883  10.911  15.213  18.279  0.2071 -0.3672  0.0496
56972W        W99884  14.875  13.166  15.716 -0.0690 -0.1832  0.0924
56973W        W99885  13.189  11.998  16.207 -0.0903  0.0222 -0.3656
56974W        W99886  12.623  10.786  17.609  0.3658  0.2265 -0.3340
56975W        W99887  10.901  11.286  19.816 -0.1795 -0.0353  0.1410
56976W        W99888  11.536  13.242  18.574 -0.1387 -0.0119 -0.0954
56977W        W99889  14.651  12.986  16.573  0.0998 -0.1960 -0.0577
56978W        W99890  11.656   8.796  17.712 -0.1055 -0.2736  0.1160
56979W        W99891  13.326  12.790  16.119 -0.4732  0.3476  0.0599
56980W        W99892  13.940  14.133  16.706 -0.1459  0.2381 -0.0121
56981W        W99893  12.219  11.184  18.583 -0.5342  0.0535  0.1229
56982W        W99894  12.276  11.808  16.581 -0.1511  0.1865  0.2594
56983W        W99895  11.506  10.491  19.566 -0.0655  0.2773  0.1065
56984W        W99896  12.457  15.131  17.478 -0.0114  0.2220  0.1043
56985W        W99897  12.539  12.972  18.855  0.0906 -0.3173  0.0360
56986W        W99898  10.744  13.364  17.407 -0.2747  0.1872  0.3880
56987W        W99899  15.315  12.877  15.739 -0.1333 -0.1213  0.1535
56988W        W99900  12.732  14.177  18.678 -0.0099  0.0040 -0.1550
56989W        W99901  13.355  13.442  19.475 -0.2805  0.2640  0.4370
56990W        W99902  11.807  14.151  18.074  0.1464 -0.2928 -0.1936
56991W        W99903  13.426  13.021  17.725 -0.2291  0.0672  0.1108
56992W        W99904  11.760  10.794  18.421  0.0289 -0.1378  0.0205
56993W        W99905  11.395  11.120  17.181 -0.2321 -0.0888  0.0205
56994W        W99906  12.260  12.547  18.012 -0.0581  0.0475  0.1894
56995W        W99907  13.523  11.429  16.974  0.0141  0.1355 -0.1695
56996W        W99908  13.170  10.234  18.738  0.0253  0.1557 -0.4336
56997W        W99909  13.451  11.422  16.207 -0.0705 -0.0908 -0.0269
56998W        W99910  12.802  15.308  17.896  0.0773  0.0513 -0.1513
56999W        W99911  13.333  12.104  16.774  0.1096 -0.1001 -0.0748
57000W        W99912  10.299  12.235  21.553 -0.1750 -0.0823 -0.1352
57001W        W99913  11.878  10.583  22.198  0.0330 -0.0955  0.0238
57002W        W99914  13.617  11.183  19.085 -0.0394 -0.2867 -0.1854
57003W        W99915  12.757  12.159  17.920  0.3114 -0.3672  0.1425
57004W        W99916  11.216  11.506  20.921 -0.1703 -0.3815  0.1324
57005W        W99917  13.438  13.003  19.860  0.2539 -0.0793 -0.1641
57006W        W99918  11.161   9.985  21.494 -0.0438 -0.0828 -0.2608
57007W        W99919  12.012  13.985  22.812 -0.4486  0.0541  0.0018
57008W        W99920  13.267  12.978  21.558 -0.0496 -0.2167 -0.3207
57009W        W99921  13.617  11.126  18.573 -0.1947  0.0488 -0.0139
57010W        W99922  12.872  11.592  22.139 -0.2475 -0.3073 -0.1795
57011W        W99923  11.670  13.913  22.032 -0.1688  0.2284 -0.1167
57012W        W99924  13.011   9.687  20.539  0.1390 -0.1035  0.1125
57013W        W99925  10.961  10.486  22.279  0.1821  0.0056 -0.0898
57014W        W99926  12.385  11.619  20.840 -0.2280 -0.0184 -0.3424
57015W        W99927  12.597  11.415  20.112  0.0159 -0.2776  0.3355
57016W        W99928  10.891  12.277  22.827  0.1574  0.0425 -0.0797
57017W        W99929  12.615  12.047  20.548 -0.3532 -0.0947  0.1239
57018W        W99930  12.805  15.478  20.721 -0.0924 -0.2812  0.2520
57019W        W99931  11.491  10.550  21.868  0.2270  0.1517  0.2572
57020W        W99932  12.858   9.991  23.063  0.1125 -0.1303 -0.0421
57021W        W99933  11.688  14.302  20.854  0.2745 -0.0858  0.2219
57022W        W99934  11.040  12.449  19.927 -0.2391 -0.0150 -0.0961
57023W        W99935  11.545  11.001  22.939  0.2298  0.2060 -0.0007
57024W        W99936  10.851  11.668  23.414  0.1005 -0.1394  0.1085
57025W        W99937  13.210  10.667  22.623 -0.3557  0.1940  0.1409
57026W        W99938  13.287  11.418  21.875  0.0632 -0.1338 -0.1811
57027W        W99939  12.299  14.621  21.628  0.1060 -0.0282 -0.1613
57028W        W99940  12.530  15.274  21.683  0.1080  0.0966 -0.0525
57029W        W99941  14.152  11.093  22.113 -0.0338 -0.0510  0.0690
57030W        W99942  11.215  11.950  23.287 -0.1593 -0.0809 -0.1433
57031W        W99943  10.519  13.655  21.004 -0.1908 -0.2499  0.2122
57032W        W99944  12.025  14.571  18.334 -0.2449 -0.0865 -0.0075
57033W        W99945  12.972  12.607  20.456 -0.0230  0.1658 -0.3579
57034W        W99946  12.869  12.179  21.793 -0.2440 -0.0104 -0.0618
57035W        W99947  11.441  14.291  21.785  0.0148 -0.3027  0.2445
57036W        W99948  11.801  13.212  20.197  0.3074 -0.3793  0.0942
57037W        W99949  14.129  14.173  20.621  0.1753 -0.0382 -0.0363
57038W        W99950  10.227  12.109  22.074 -0.1723  0.0527  0.0427
57039W        W99951  11.409  13.065  22.879  0.0073 -0.0519 -0.3399
57040W        W99952  12.309  13.154  20.650 -0.0384  0.1057 -0.5388
57041W        W99953  10.156  15.236  19.503 -0.2107 -0.1952  0.0922
57042W        W99954  12.027  14.018  20.616 -0.0405 -0.1963  0.0101
57043W        W99955  11.172  12.593  21.634 -0.2494 -0.1872 -0.0434
57044W        W99956  11.546  11.929  21.259  0.0321  0.0227 -0.0345
57045W        W99957  14.867  10.855  23.005 -0.1040 -0.3775  0.3402
57046W        W99958  12.077  14.404  19.484  0.0526 -0.0099  0.1989
57047W        W99959  13.057  11.263  18.473 -0.3043 -0.1824 -0.1046
57048W        W99960  12.210  12.300  20.193  0.1917 -0.1438 -0.2251
57049W        W99961  12.077  10.473  20.286 -0.4575  0.0135  0.0728
57050W        W99962  12.326  11.475  22.372 -0.1152  0.1040  0.2576
57051W        W99963  10.503  14.197  20.372 -0.0463 -0.1582  0.0973
57052W        W99964  11.191  11.221  21.561  0.1605 -0.2322  0.4115
57053W        W99965  12.085  13.295  21.950  0.1209 -0.0299 -0.2185
57054W        W99966  12.907  13.096  19.842  0.0145 -0.2273 -0.1133
57055W        W99967  12.277  11.635  23.297  0.3245  0.3436  0.5381
57056W        W99968  10.768  13.330  22.227  0.1721 -0.2280 -0.0367
57057W        W99969  10.753  11.063  21.688 -0.2655 -0.2328  0.0881
57058W        W99970  12.417  11.950  19.210 -0.0200 -0.2741 -0.3358
57059W        W99971  13.107  12.107  20.445  0.1359 -0.1005  0.1712
57060W        W99972  12.136  13.383  18.565  0.0705  0.0789 -0.0489
57061W        W99973  11.257  13.357  20.456  0.3332 -0.0501 -0.0072
57062W        W99974  10.719  13.950  23.259 -0.0163  0.1013  0.1593
57063W        W99975  10.751  13.077  23.884 -0.1161  0.1777  0.0549
57064W        W99976  10.380  13.449  18.479 -0.0707  0.0030 -0.0537
57065W        W99977  12.894  13.632  20.297  0.0074 -0.1235 -0.1371
57066W        W99978   9.994  14.231  22.660 -0.0462 -0.2120 -0.3072
57067W        W99979  12.512  10.677  21.087 -0.3098 -0.1754  0.1121
57068W        W99980  11.175  14.655  21.985 -0.1358  0.0456 -0.1681
57069W        W99981  13.023  11.923  20.915 -0.2925  0.1018  0.1569
57070W        W99982  12.713  11.172  18.957 -0.0143  0.2071 -0.0717
57071W        W99983  13.867  12.121  22.289  0.2138 -0.2259  0.0793
57072W        W99984  13.758   9.305  21.292  0.2896 -0.0055  0.2249
57073W        W99985  11.031  13.853  19.110 -0.1257  0.0756 -0.0418
57074W        W99986  11.774  11.607  20.493  0.2623  0.1532  0.1550
57075W        W99987  13.246  12.384  20.856 -0.1936 -0.0058  0.1327
57076W        W99988  12.925  11.782  18.226 -0.0239 -0.1449  0.2693
57077W        W99989  10.720  14.022  20.809 -0.1453 -0.0691  0.0257
57078W        W99990  11.659  12.362  22.221  0.0071  0.2180  0.0518
57079W        W99991  12.647  13.661  23.201 -0.2762  0.0265  0.1762
57080W        W99992  10.871  14.553  19.056  0.0858  0.0501  0.2211
57081W        W99993   9.586  11.710  21.960  0.0518 -0.0628  0.4295
57082W        W99994  10.638  12.863  20.556 -0.0854  0.0055  0.0273
57083W        W99995  12.188   9.283  22.761  0.2388  0.1853 -0.0420
57084W        W99996  11.296  14.215  22.288 -0.1992  0.3277  0.1201
57085W        W99997  13.460  11.052  19.515 -0.1327  0.2137  0.0952
57086W        W99998  10.467  10.247  22.256 -0.1489  0.1106 -0.0451
57087W        W99999  14.210  10.045  23.240 -0.0229 -0.2026 -0.1670
57088W        W    0  11.913  12.321  21.236  0.2291 -0.0922 -0.0876
57089W        W    1  14.103  12.940  21.125 -0.0278 -0.0484  0.5178
57090W        W    2  13.250  12.364  19.312 -0.1147  0.0365  0.1226
57091W        W    3  13.776  14.266  18.382  0.2652 -0.2378 -0.1187
57092W        W    4  10.604  12.120  22.420  0.3757  0.2005  0.0629
57093W        W    5  11.303  11.380  22.561  0.0205 -0.2329  0.1788
57094W        W    6  11.494  10.520  22.514 -0.0872  0.3182 -0.0534
57095W        W    7  10.996  11.858  21.269 -0.1284 -0.1928 -0.1179
57096W        W    8  13.894  10.870  21.673  0.0524 -0.1106  0.1607
57097W        W    9   9.727  11.503  20.471  0.1682 -0.1007 -0.0375
57098W        W   10  12.629  13.177  20.263 -0.2171  0.0792 -0.0525
57099W        W   11  13.217  12.398  21.438  0.0332 -0.1166  0.1531
57100W        W   12   9.988  13.064  20.179  0.0503  0.1304 -0.1397
57101W        W   13  13.383   9.672  22.544  0.0538  0.0255  0.2395
57102W        W   14  11.446  12.929  19.886  0.0556  0.1325  0.0784
57103W        W   15  14.838  12.699  21.390  0.1617 -0.2299  0.2984
57104W        W   16  14.669  14.125  20.597 -0.1417 -0.1610 -0.1902
57105W        W   17  10.703  10.832  23.595 -0.0926  0.1903 -0.0454
57106W        W   18  11.423  12.084  19.737 -0.2122 -0.0820  0.2287
57107W        W   19  10.862  13.766  21.355 -0.2545 -0.1691  0.2219
57108W        W   20  11.465  13.918  23.237 -0.2514 -0.1058  0.2167
57109W        W   21  11.704  12.427  20.042  0.3524  0.1950  0.0250
57110W        W   22  13.896  13.978  21.041  0.0494 -0.2378  0.0163
57111W        W   23  12.129  13.580  20.923  0.0798  0.1287 -0.0448
57112W        W   24  10.789  12.642  22.436 -0.2998 -0.0108 -0.0282
57113W        W   25  11.358  11.481  23.111 -0.1788 -0.0334 -0.1564
57114W        W   26  15.242  11.144  22.785  0.0410  0.0020  0.4611
57115W        W   27  12.190  11.106  21.168 -0.0212  0.0934  0.0170
57116W        W   28  10.277  11.655  19.066 -0.3954  0.2652 -0.4661
57117W        W   29  12.225  13.056  19.927 -0.2686 -0.3844 -0.2782
57118W        W   30  10.935  14.402  20.250 -0.3054 -0.1950 -0.0033
57119W        W   31  11.004  12.216  19.382 -0.4057  0.2675 -0.4049
57120W        W   32  12.865  13.952  19.805  0.1106  0.0013 -0.1855
57121W        W   33  12.804  11.352  21.625  0.0475  0.3354  0.1152
57122W        W   34  10.822  12.275  23.320 -0.0253 -0.2218 -0.3372
57123W        W   35  13.409  10.481  24.220  0.0567  0.1128 -0.2905
57124W        W   36  10.627  11.885  20.458  0.0871  0.3264  0.0040
57125W        W   37   9.265  14.640  23.342 -0.2172  0.0060 -0.1638
57126W        W   38  13.240  11.519  19.488  0.1013 -0.1709 -0.0598
57127W        W   39  11.925  10.797  19.330 -0.2071 -0.0449  0.2373
57128W        W   40  11.798  11.580  23.389 -0.0111 -0.2884  0.1597
57129W        W   41  13.573  12.045  20.627 -0.1442  0.0218 -0.2738
57130W        W   42  12.166  11.295  20.471  0.0505 -0.2565  0.0433
57131W        W   43  11.600  10.507  20.168  0.0478  0.0024  0.3181
57132W        W   44   9.931  13.962  22.228 -0.3460 -0.2781 -0.0952
57133W        W   45  12.583  13.779  20.627 -0.2026  0.0891 -0.2413
57134W        W   46  12.190  13.811  21.946 -0.0993  0.2325  0.1921
57135W        W   47  11.719  11.660  19.640 -0.2598  0.1657  0.1994
57136W        W   48  12.128  14.580  19.986 -0.0040  0.0836  0.0184
57137W        W   49  11.314  13.626  21.322 -0.1216  0.2355 -0.1874
57138W        W   50  11.977  12.606  23.378  0.1160  0.0755  0.0894
57139W        W   51  13.533  12.333  21.941  0.1578 -0.3857 -0.2339
57140W        W   52  11.538  11.385  21.956 -0.2029 -0.4898 -0.0118
57141W        W   53  12.730  11.919  18.714  0.3196 -0.2393 -0.1436
57142W        W   54  13.224   9.826  20.974  0.1205  0.0723  0.0143
57143W        W   55   9.004  14.458  19.204 -0.0672  0.2236 -0.2522
57144W        W   56  12.966  11.483  23.122 -0.0059  0.1139 -0.4531
57145W        W   57  12.919  10.193  22.393 -0.0225 -0.1881 -0.0919
57146W        W   58  11.543  11.037  22.324  0.1983 -0.2364  0.0526
57147W        W   59  13.131  10.430  23.163 -0.1047 -0.1066 -0.0094
57148W        W   60  12.801  11.623  19.654  0.2223 -0.0278 -0.0035
57149W        W   61  12.012  13.619  22.400 -0.1303 -0.0005  0.1431
57150W        W   62  10.623  13.065  19.607 -0.2756  0.0248 -0.1331
57151W        W   63  12.000  11.150  23.384  0.2946 -0.0906 -0.0088
57152W        W   64   9.441  13.443  22.116 -0.2611 -0.0345 -0.0455
57153W        W   65  10.407  14.701  22.587  0.4724 -0.0602 -0.1390
57154W        W   66  14.086  11.678  21.422  0.0315 -0.2182 -0.3895
57155W        W   67  12.700  12.282  20.116  0.0596 -0.3146  0.0450
57156W        W   68  10.767   9.895  22.970 -0.3287  0.0405 -0.2006
57157W        W   69  11.680  11.331  20.062 -0.0670 -0.0379  0.3133
57158W        W   70  11.221  14.251  19.866 -0.0921  0.0816 -0.1569
57159W        W   71  11.712  14.066  19.710 -0.0378  0.3752  0.4455
57160W        W   72  12.663  11.099  22.007 -0.1505 -0.1474  0.0800
57161W        W   73  12.154  14.722  23.026 -0.2765 -0.1573  0.3570
57162W        W   74  11.900  13.716  19.996 -0.0959  0.3608 -0.1201
57163W        W   75  12.731  12.096  21.279 -0.0926  0.0145  0.1861
57164W        W   76  10.533  15.674  20.542 -0.0032 -0.0411 -0.0272
57165W        W   77  13.045   9.941  21.498 -0.0753  0.3879  0.0915
57166W        W   78  10.766  13.760  21.865 -0.3385  0.3438 -0.1576
57167W        W   79  12.276  11.746  20.294 -0.1383 -0.0161 -0.0466
57168W        W   80   9.438  10.695  20.144 -0.1561  0.0833  0.1039
57169W        W   81  13.908   9.989  21.194 -0.1032  0.0203  0.1332
57170W        W   82  14.769  12.343  20.599  0.0081  0.0185  0.1552
57171W        W   83  11.339  11.640  23.722  0.2317  0.0626  0.1787
57172W        W   84  13.902  10.977  22.559 -0.0689 -0.2039  0.0493
57173W        W   85  11.202  13.906  21.770 -0.1237  0.2149 -0.2070
57174W        W   86  11.883  11.991  21.642 -0.4003  0.1385 -0.1045
57175W        W   87  12.246   9.752  21.093  0.0004  0.0143  0.0267
57176W        W   88  13.250  11.922  21.999  0.0565  0.0517  0.1359
57177W        W   89  10.512  11.942  23.118 -0.0558  0.2314 -0.1139
57178W        W   90   8.973  10.522  20.828 -0.2766  0.2768  0.2556
57179W        W   91  12.940  10.248  20.676 -0.1176  0.2846 -0.0928
57180W        W   92  12.750  12.162  19.654  0.1573  0.2887  0.0425
57181W        W   93  11.787  13.221  20.680  0.1843  0.0648 -0.1691
57182W        W   94  12.946  12.815  22.303  0.1943  0.2218  0.3595
57183W        W   95  11.359  12.339  20.998  0.0031  0.0253 -0.0160
57184W        W   96  11.169  14.222  20.644  0.0839  0.0544  0.0867
57185W        W   97  11.185  13.546  23.601  0.0027  0.0059  0.2194
57186W        W   98  14.224  12.065  22.727  0.0912  0.1401  0.1407
57187W        W   99  13.833  11.521  22.000  0.1453 -0.1646 -0.0620
57188W        W  100  12.460  12.619  22.496 -0.1379  0.0052 -0.1827
57189W        W  101  13.517  12.580  22.374 -0.0704 -0.1267  0.1853
57190W        W  102  11.807  12.383  20.585 -0.3749 -0.1674  0.2803
57191W        W  103  12.617  11.314  22.766  0.2216  0.0944 -0.2289
57192W        W  104  11.572  12.481  23.811  0.1656  0.0274 -0.0665
57193W        W  105  12.736   9.687  21.030 -0.0148 -0.1291 -0.2356
57194W        W  106  12.640  12.404  18.860 -0.1022  0.0596  0.3490
57195W        W  107  13.026  11.915  23.577 -0.0801  0.0511 -0.0473
57196W        W  108  11.930  12.740  19.704 -0.1468  0.2026 -0.0386
57197W        W  109   9.404  11.929  21.403 -0.0827 -0.1460 -0.1544
57198W        W  110  12.376  14.046  20.283 -0.0120 -0.0979  0.0632
57199W        W  111  12.813  11.770  22.671  0.1363  0.0329  0.2194
57200W        W  112  12.317  12.672  21.286  0.1215 -0.2980 -0.1005
57201W        W  113  10.830  13.305  21.535  0.2647  0.0969 -0.1827
57202W        W  114  11.196  13.406  21.972 -0.2439 -0.2167 -0.2347
57203W        W  115  12.853  11.129  19.437 -0.2567  0.1478  0.2334
57204W        W  116  11.615  13.290  19.549 -0.2245  0.1904  0.2103
57205W        W  117  12.228  11.265  21.661 -0.0673  0.2194  0.3927
57206W        W  118  13.825  11.745  24.428 -0.0734  0.0753  0.1402
57207W        W  119  12.988  11.961  19.244 -0.0777  0.0914  0.2803
57208W        W  120  13.820  10.698  23.878  0.0563 -0.1738  0.1368
57209W        W  121  10.951  11.215  23.736 -0.1688 -0.0499 -0.0008
57210W        W  122  13.752  11.852  19.766  0.2670  0.0864 -0.0221
57211W        W  123  10.273  11.670  23.570 -0.0551  0.2193  0.1286
57212W        W  124  12.745  14.543  23.955 -0.1241  0.0817  0.0836
57213W        W  125  11.408  12.157  21.707 -0.0228 -0.1850  0.2563
57214W        W  126  12.707  12.295  22.873  0.1156 -0.1917 -0.1163
57215W        W  127  10.595  11.966  19.466  0.1023  0.1236  0.2531
57216W        W  128  11.659  13.457  21.661  0.0818 -0.0366 -0.2477
57217W        W  129  13.399  12.638  20.188 -0.0524  0.3070 -0.2548
57218W        W  130  12.691  12.953  20.837  0.2229  0.1518  0.0970
57219W        W  131  13.091  11.810  21.442  0.0483  0.1098 -0.2399
57220W        W  132  12.326  12.604  20.675  0.2133  0.1861 -0.0889
57221W        W  133  14.183  11.618  20.047  0.1982  0.2082 -0.1900
57222W        W  134  12.444  10.908  20.109  0.0342  0.0236  0.2175
57223W        W  135  12.467  14.154  21.615  0.0173 -0.0244 -0.1360
57224W        W  136  11.470   9.442  22.486  0.2307  0.1687  0.1499
57225W        W  137  12.147  13.572  20.441 -0.2705  0.1734  0.3276
57226W        W  138  14.346   8.667  21.508 -0.1780  0.0757 -0.1349
57227W        W  139  13.581  11.297  22.362 -0.0190 -0.2296 -0.2362
57228W        W  140  13.145  12.579  21.877 -0.2852 -0.1621  0.1660
57229W        W  141  12.035  11.080  22.524 -0.0303  0.2696 -0.1307
57230W        W  142  10.504  10.262  22.795  0.0302  0.0058  0.1972
57231W        W  143  12.441  13.822  22.733 -0.2437  0.1690 -0.2978
57232W        W  144  14.149  11.579  19.157  0.0515  0.1215  0.0986
57233W        W  145  13.423  10.376  22.261  0.0869 -0.3208 -0.1646
57234W        W  146  13.137  11.161  20.742 -0.1010 -0.0309 -0.0496
57235W        W  147  12.071  11.975  20.647  0.2182  0.3879  0.0227
57236W        W  148  10.885  11.482  22.315 -0.3011 -0.1043  0.4160
57237W        W  149  14.546  10.788  22.151 -0.0018  0.2223  0.0950
57238W        W  150  10.870  11.951  19.869  0.0346 -0.0203 -0.0230
57239W        W  151  13.234  11.976  23.046  0.3073  0.0011 -0.1415
57240W        W  152  10.555  12.950  18.413 -0.1643 -0.2466 -0.3270
57241W        W  153  13.137  12.795  21.148 -0.1607  0.0984  0.0036
57242W        W  154  12.527   9.958  20.372 -0.5260 -0.3415  0.0161
57243W        W  155  11.261  11.022  21.081  0.2444  0.1013 -0.4316
57244W        W  156  10.558  13.945  22.340 -0.0246  0.2208 -0.0576
57245W        W  157  11.679  12.498  19.299 -0.0963  0.0138 -0.1996
57246W        W  158  11.197  14.767  20.022  0.1261  0.0357  0.2616
57247W        W  159  12.349  12.853  22.970  0.6533  0.0270 -0.0662
57248W        W  160  13.664  12.242  22.809 -0.2244  0.1946 -0.0130
57249W        W  161  11.036  10.566  20.903  0.0776  0.0323  0.3182
57250W        W  162  13.146  10.385  21.762  0.0924  0.0010  0.3076
57251W        W  163   9.805  12.499  19.308 -0.0738 -0.0217  0.0571
57252W        W  164  13.143  11.166  22.613 -0.0946  0.0924  0.2540
57253W        W  165  11.695  14.671  22.234 -0.0691 -0.3747  0.0038
57254W        W  166  10.045  13.884  21.214  0.1636  0.1610 -0.1432
57255W        W  167  12.437  14.371  20.748  0.0524  0.1052 -0.2383
57256W        W  168  11.109   9.131  23.276  0.2538  0.2619  0.2715
57257W        W  169  11.668  12.926  22.426  0.0659 -0.1412 -0.1454
57258W        W  170  11.486  12.184  22.802  0.1765  0.0040  0.0797
57259W        W  171  13.509  11.588  23.320  0.2077 -0.2800 -0.0699
57260W        W  172  12.787  13.155  21.421  0.0396 -0.0174  0.0233
57261W        W  173  12.464  11.639  21.319  0.0621 -0.0078  0.0359
57262W        W  174  12.469  13.045  22.301 -0.3023 -0.1051  0.0231
57263W        W  175  15.005  11.956  20.323 -0.0836 -0.4106  0.2392
57264W        W  176  11.055  12.923  20.232 -0.0348 -0.4675 -0.0882
57265W        W  177  10.082  11.220  23.731 -0.3658 -0.0454 -0.1827
57266W        W  178  11.769  12.674  22.935 -0.3646  0.4047  0.0055
57267W        W  179  12.657  13.625  21.684  0.0852  0.1086 -0.0313
57268W        W  180  11.764  10.946  20.386 -0.4618  0.1777  0.1169
57269W        W  181  10.857  13.743  18.641  0.0651 -0.2514  0.1238
57270W        W  182  11.075  14.010  23.582 -0.0217  0.0201  0.2053
57271W        W  183  11.291  13.062  23.794 -0.0244 -0.0123 -0.0328
57272W        W  184  11.406  15.896  20.717  0.2041 -0.2092  0.0304
57273W        W  185  12.190  12.560  19.153  0.1144  0.0458 -0.1044
57274W        W  186  11.918  12.022  19.056 -0.3337  0.3067 -0.0290
57275W        W  187  11.568  13.872  22.553  0.5379 -0.0183 -0.1384
57276W        W  188  12.327  12.168  20.999  0.0200 -0.0500 -0.2045
57277W        W  189  11.534  13.932  20.427 -0.0961 -0.1278 -0.1092
57278W        W  190  10.176  13.687  20.103  0.0509 -0.4363 -0.2217
57279W        W  191  12.964  15.019  19.487  0.0946  0.0389  0.0548
57280W        W  192  11.016  15.279  20.027  0.0670  0.0039 -0.1718
57281W        W  193  12.340  12.313  23.254 -0.3477 -0.0177  0.3507
57282W        W  194  12.923  10.636  19.746 -0.0735  0.3163 -0.1726
57283W        W  195  12.749  12.410  20.909 -0.0309 -0.1814  0.1974
57284W        W  196  12.731  10.881  18.529  0.3999  0.2735  0.2011
57285W        W  197  13.338  13.419  21.743 -0.0870 -0.1699 -0.0401
57286W        W  198  11.537  12.904  21.930  0.0040 -0.3064  0.0373
57287W        W  199  11.228  10.756  20.429 -0.0682  0.0071 -0.2753
57288W        W  200  11.884  11.972  22.534  0.0949 -0.1705 -0.3401
57289W        W  201  13.732   9.894  22.834 -0.2259  0.2464 -0.0616
57290W        W  202  11.074  13.934  22.800 -0.0913  0.2183 -0.3400
57291W        W  203  13.517  14.283  21.116  0.0282  0.3591 -0.0622
57292W        W  204   9.259  13.032  18.263 -0.4683 -0.1436 -0.0675
57293W        W  205  12.798  12.634  21.466  0.1062 -0.0929  0.2361
57294W        W  206  13.691  11.352  21.526 -0.0849 -0.0930 -0.0879
57295W        W  207  11.503  13.928  19.272 -0.1351  0.2802 -0.1546
57296W        W  208  12.094  12.148  22.063  0.1180  0.1600  0.1176
57297W        W  209  11.349  13.241  20.964  0.1756  0.1158 -0.0910
57298W        W  210  11.710  13.970  21.544 -0.1618 -0.0298  0.0103
57299W        W  211  12.272  15.440  22.596  0.0075  0.1045 -0.2078
57300W        W  212   9.235  10.353  20.429  0.0254 -0.0816  0.2838
57301W        W  213  12.606  11.102  20.835  0.1568 -0.0657 -0.0175
57302W        W  214  11.104  11.986  22.256  0.2033 -0.2088  0.0741
57303W        W  215  13.383  10.878  23.039  0.0833  0.0425 -0.2911
57304W        W  216  12.359  12.278  21.651 -0.1346 -0.1946  0.2324
57305W        W  217  12.478  12.573  19.731  0.2588  0.0389  0.2618
57306W        W  218  12.311  13.180  21.169 -0.4013 -0.2180 -0.4658
57307W        W  219  10.391  13.056  22.638 -0.4057  0.0134  0.1118
57308W        W  220  12.115  11.409  19.877  0.0239  0.1537  0.1430
57309W        W  221  14.775  11.171  22.524  0.2084  0.0002 -0.1581
57310W        W  222  12.649  13.080  17.924 -0.0915 -0.2361  0.0177
57311W        W  223  12.722  14.500  21.989  0.1180 -0.2876 -0.0850
57312W        W  224  12.190  12.320  22.782  0.6140 -0.1017 -0.0455
57313W        W  225  11.600  10.501  18.941  0.0235  0.2567 -0.0934
57314W        W  226   9.538  11.885  20.659 -0.2280 -0.4396 -0.1444
57315W        W  227  12.207  14.081  22.342 -0.2675  0.0051 -0.1748
57316W        W  228  12.110  12.776  22.096  0.2029  0.0463 -0.2851
57317W        W  229  10.917  12.081  20.815  0.2005 -0.1442 -0.0295
57318W        W  230  12.730  12.490  19.309  0.2527 -0.0070 -0.1218
57319W        W  231  14.313  11.254  22.973  0.3547 -0.3406  0.2798
57320W        W  232  12.504  14.359  19.162  0.0864  0.3856 -0.1501
57321W        W  233  12.742  11.156  18.088  0.2268 -0.0557  0.3191
57322W        W  234  13.191  13.505  19.956  0.1892  0.0318 -0.0346
57323W        W  235  10.007  11.184  21.359 -0.1667  0.1143  0.0174
57324W        W  236  12.591  13.303  22.758 -0.1747  0.3766  0.1820
57325W        W  237  13.397  14.035  21.809  0.0764  0.2648 -0.1054
57326W        W  238  11.109  11.672  21.774  0.1789  0.0738  0.2549
57327W        W  239  12.146  13.684  21.429  0.1832 -0.0649  0.1485
57328W        W  240   9.354  14.733  20.183 -0.2593  0.0485 -0.0988
57329W        W  241  13.579  11.881  21.630  0.3596 -0.1033 -0.1746
57330W        W  242  12.876  10.936  23.048 -0.0311  0.0362 -0.0629
57331W        W  243  12.258  14.085  19.819  0.0360 -0.5069  0.0547
57332W        W  244  14.895   9.706  24.047 -0.0625 -0.0320  0.1347
57333W        W  245  12.086  13.216  22.652  0.1952  0.1408 -0.1409
57334W        W  246  11.373  13.645  26.337 -0.4092  0.1625  0.0138
57335W        W  247  11.291  12.471  20.405  0.2848  0.1415 -0.0673
57336W        W  248  11.518  12.934  23.394 -0.1502  0.1468  0.1726
57337W        W  249  12.747  14.583  20.502  0.1391  0.2301 -0.0303
57338W        W  250  11.690  15.166  21.274  0.1293 -0.0104  0.1474
57339W        W  251  13.217  12.076  19.703 -0.0166 -0.3233  0.2965
57340W        W  252  11.679  11.157  20.812 -0.0527 -0.0703  0.3134
57341W        W  253  14.376  13.820  20.210 -0.1008 -0.2383  0.3071
57342W        W  254  12.012  11.604  21.937  0.0759 -0.2152  0.1205
57343W        W  255  13.441  10.186  20.690  0.3057 -0.0037  0.1370
57344W        W  256  14.918  10.308  20.639 -0.3240 -0.0075 -0.2700
57345W        W  257  11.114  12.682  22.956 -0.1341  0.1547  0.2583
57346W        W  258   9.481  12.513  19.687  0.0417  0.0360 -0.0345
57347W        W  259  11.122  13.199  19.530 -0.4315  0.0494 -0.1907
57348W        W  260  10.733  12.192  21.808  0.1407  0.1419 -0.0030
57349W        W  261  11.608  11.532  24.469 -0.2983 -0.1880  0.0946
57350W        W  262  10.137  12.030  22.720 -0.2846  0.1690  0.1446
57351W        W  263  10.331  12.340  20.665  0.2819  0.0927 -0.2478
57352W        W  264  11.776  11.500  22.374 -0.1163  0.0570 -0.4324
57353W        W  265  12.525  13.880  19.385 -0.2730 -0.1514  0.3460
57354W        W  266  10.350  10.923  24.152  0.2048  0.0218  0.3251
57355W        W  267  10.519  10.681  20.933 -0.1289 -0.0030 -0.1330
57356W        W  268  11.790  13.237  21.214  0.1864  0.2292  0.0847
57357W        W  269  13.450  12.812  20.721 -0.0638 -0.1038 -0.0342
57358W        W  270  12.434  10.790  21.594 -0.1020  0.0048  0.2571
57359W        W  271  14.773  12.630  22.322  0.0505 -0.2592 -0.3541
57360W        W  272  10.467  13.205  20.121 -0.0886 -0.0952 -0.1107
57361W        W  273  12.621  12.598  22.032 -0.2821 -0.1010 -0.2005
57362W        W  274  11.162  10.746  23.748 -0.1480 -0.2462 -0.1106
57363W        W  275   9.986  11.475  19.998 -0.0656  0.0033  0.3558
57364W        W  276  11.876  12.103  23.225 -0.0552  0.2402  0.4140
57365W        W  277  12.445  13.610  20.045 -0.0521 -0.1178  0.1811
57366W        W  278  12.963  14.198  20.880 -0.4816 -0.1308 -0.1739
57367W        W  279  11.414  14.301  22.912  0.0581  0.4543 -0.1792
57368W        W  280  12.485  14.944  23.758 -0.1934 -0.2891 -0.0841
57369W        W  281  10.348  11.308  21.703  0.2038 -0.0613 -0.2752
57370W        W  282  13.218  12.294  18.808  0.3627 -0.0760 -0.1295
57371W        W  283  11.630  13.377  22.190  0.0680  0.0135 -0.0071
57372W        W  284  14.455  12.904  20.073  0.3061 -0.1258  0.0534
57373W        W  285  12.659  10.346  21.654  0.0165 -0.0383  0.0347
57374W        W  286  13.845  12.451  20.369 -0.0438 -0.1795  0.0354
57375W        W  287   8.868  10.145  22.330  0.1646 -0.0080 -0.1391
57376W        W  288  11.990  12.972  21.579  0.2383  0.0256 -0.0918
57377W        W  289  14.510  11.658  22.538  0.0604  0.1076  0.0831
57378W        W  290  10.854  10.847  21.275  0.1411  0.3597 -0.2417
57379W        W  291  12.867  10.723  20.717  0.1660 -0.0467  0.0102
57380W        W  292  12.550  13.898  21.149 -0.0503 -0.1866  0.3851
57381W        W  293  13.293  12.050  22.508  0.1177 -0.1167 -0.0679
57382W        W  294  12.360  10.887  19.591  0.0941 -0.1643  0.1347
57383W        W  295  12.477  12.049  22.404  0.1982 -0.0427  0.1486
57384W        W  296  12.868  14.819  22.533  0.0407 -0.1509  0.0642
57385W        W  297  11.828  12.362  25.028  0.0636 -0.0021 -0.1469
57386W        W  298  12.623  10.770  19.202  0.0308 -0.1525  0.1237
57387W        W  299  13.252  11.610  20.503  0.1253 -0.1029 -0.0753
57388W        W  300  13.173  13.412  21.279  0.3273 -0.0539 -0.2414
57389W        W  301  13.136  13.092  20.326 -0.0546 -0.4162 -0.0116
57390W        W  302  12.525  13.562  22.296  0.0691 -0.0554 -0.0194
57391W        W  303  13.315  11.289  21.204 -0.0209  0.0657  0.0384
57392W        W  304  11.158  10.062  22.057  0.0291  0.0501  0.1107
57393W        W  305  12.460  11.791  21.881 -0.4491 -0.0730 -0.2952
57394W        W  306  11.768  14.478  21.469  0.1125 -0.0780  0.1788
57395W        W  307  13.712  10.412  21.808  0.2428  0.1439 -0.0229
57396W        W  308  10.751  10.306  21.845  0.1034 -0.2005 -0.0409
57397W        W  309  13.723  10.460  19.368  0.1453 -0.1894  0.0134
57398W        W  310  11.906  15.153  22.290 -0.0645  0.0331  0.2030
57399W        W  311  13.559  11.601  20.909 -0.1620  0.0737  0.2477
57400W        W  312  13.449  13.508  26.576 -0.1122  0.0588  0.2158
57401W        W  313   9.927  11.122  24.544  0.2218 -0.0673 -0.3137
57402W        W  314  14.889  12.475  24.006 -0.1831 -0.0024  0.1972
57403W        W  315  13.914  11.798  23.113  0.0078 -0.0702  0.2074
57404W        W  316  10.831  12.140  24.778  0.3343 -0.2344  0.0969
57405W        W  317  13.486  13.505  22.842 -0.2916 -0.4886  0.0294
57406W        W  318  11.762  10.483  25.616 -0.0385 -0.2300  0.0057
57407W        W  319  12.342  14.096  25.366  0.1515  0.3049 -0.1806
57408W        W  320  13.623  13.432  24.899  0.0093 -0.1962  0.1104
57409W        W  321  10.323  15.065  24.342  0.1096 -0.0189  0.0271
57410W        W  322  12.705  11.308  26.665 -0.2047  0.1622  0.2782
57411W        W  323  10.770  13.583  27.142  0.1042  0.2234  0.1757
57412W        W  324  11.519  10.326  23.653 -0.2408  0.0597 -0.1433
57413W        W  325  12.356  11.657  25.083  0.3898  0.2324  0.0251
57414W        W  326  13.048  12.626  25.778  0.2541  0.2702  0.1770
57415W        W  327  11.462  12.575  24.306 -0.2964 -0.1057 -0.0396
57416W        W  328  10.919  11.040  26.408 -0.0974 -0.2424  0.1058
57417W        W  329  12.533  11.873  23.878 -0.3350  0.4192  0.0519
57418W        W  330  12.707  15.434  25.800 -0.2985 -0.1214 -0.1115
57419W        W  331  12.081  11.034  25.623  0.0381  0.1481  0.3573
57420W        W  332  13.759  12.295  26.267 -0.2810  0.3178  0.2274
57421W        W  333  11.463  13.102  26.669 -0.1501 -0.0018 -0.3081
57422W        W  334  10.370  11.359  23.226 -0.2216 -0.2793 -0.1067
57423W        W  335  10.806  12.118  25.649 -0.2270  0.1795 -0.2079
57424W        W  336  11.666  12.194  25.997  0.0439 -0.1153  0.1667
57425W        W  337  13.369  11.398  24.878  0.0088  0.1764  0.1598
57426W        W  338  14.289  12.046  24.715  0.0793 -0.0201  0.3499
57427W        W  339  12.570  13.639  25.606 -0.0106 -0.0897 -0.0426
57428W        W  340  12.396  13.172  23.966 -0.2948 -0.0585 -0.1401
57429W        W  341  14.153  12.647  26.423  0.0079  0.0736  0.3652
57430W        W  342  11.354  13.148  26.201 -0.1443 -0.2711 -0.0113
57431W        W  343  11.550  14.235  25.704 -0.2281  0.0260 -0.1668
57432W        W  344  11.316  13.179  25.487  0.4234 -0.1703 -0.0498
57433W        W  345  14.035  12.993  23.708 -0.0505  0.2472 -0.1850
57434W        W  346  12.163  12.693  24.883  0.0188 -0.1439  0.0478
57435W        W  347  12.246  13.237  25.838 -0.1022 -0.0263 -0.2905
57436W        W  348  10.717  13.467  23.357 -0.0598 -0.1591 -0.0189
57437W        W  349  13.297  14.504  25.576 -0.1061  0.0772  0.0042
57438W        W  350  11.274  15.187  25.888  0.0149 -0.1352 -0.2156
57439W        W  351  12.579  12.391  25.740 -0.0028  0.2357 -0.0111
57440W        W  352  11.680  12.820  24.716 -0.1983  0.0021 -0.1402
57441W        W  353   9.962  13.585  25.700  0.0993 -0.0798 -0.1330
57442W        W  354  11.941  14.356  24.511 -0.3346 -0.0421  0.2134
57443W        W  355  10.838  12.471  27.097 -0.0895  0.0576 -0.4200
57444W        W  356  10.389  12.886  25.820  0.0424 -0.2739 -0.2073
57445W        W  357  15.760  10.792  28.324  0.1172 -0.2035  0.2457
57446W        W  358  11.541  13.930  23.743  0.1599 -0.1526 -0.0147
57447W        W  359  12.457  12.826  23.546  0.0633 -0.3429 -0.2523
57448W        W  360  11.005  12.601  23.693  0.0981 -0.0957 -0.1175
57449W        W  361  14.369  12.724  24.063 -0.1380 -0.0714  0.0991
57450W        W  362  12.791  10.790  26.701  0.0031  0.0276 -0.1020
57451W        W  363  11.351  15.483  25.407  0.3618 -0.3331  0.0145
57452W        W  364  12.711  10.788  24.662  0.0290 -0.0340 -0.1495
57453W        W  365  14.160  13.186  24.162 -0.0088 -0.1241 -0.5364
57454W        W  366  10.602  13.067  25.232  0.1309  0.1049 -0.1149
57455W        W  367  13.413  12.307  25.576 -0.0841 -0.0016 -0.2000
57456W        W  368  11.929  14.146  25.953 -0.2864  0.0568 -0.3467
57457W        W  369  11.074  12.333  24.148 -0.1925 -0.3369 -0.0557
57458W        W  370  13.142  12.484  22.750  0.0864 -0.2221  0.0838
57459W        W  371  12.892  13.102  23.879  0.1034  0.1664  0.0481
57460W        W  372  12.753  13.876  24.512 -0.0798  0.1839  0.2351
57461W        W  373  11.388  12.432  23.271 -0.0170 -0.1254  0.3451
57462W        W  374  11.802  12.143  27.074  0.1085 -0.2404 -0.4324
57463W        W  375  10.765  11.479  26.954  0.0744 -0.3540 -0.1147
57464W        W  376  12.613  10.098  24.375 -0.2420  0.1003  0.0789
57465W        W  377  13.445  12.875  25.594 -0.1670 -0.3350  0.1938
57466W        W  378  10.342  14.103  28.510  0.2549 -0.3773 -0.0028
57467W        W  379  14.037  11.735  23.863  0.1134  0.0596  0.1909
57468W        W  380  12.145  12.696  25.761 -0.1359  0.1103 -0.3000
57469W        W  381  14.009  13.345  22.964 -0.0774 -0.2864  0.1151
57470W        W  382  14.001  11.535  22.664 -0.1824 -0.0608  0.4021
57471W        W  383  13.766  10.513  24.584 -0.1507  0.0354  0.2337
57472W        W  384  13.282  11.125  25.945 -0.2765 -0.0023 -0.1528
57473W        W  385  11.192  13.031  22.382  0.3817 -0.0579 -0.2477
57474W        W  386  11.454  11.992  24.150  0.0647  0.1110 -0.0417
57475W        W  387  13.125  13.980  25.032  0.2119  0.1665 -0.0121
57476W        W  388  13.381  13.330  24.190  0.0415 -0.0144 -0.3738
57477W        W  389  11.527  14.565  26.057  0.1266  0.2330 -0.0520
57478W        W  390  13.253  11.646  25.924  0.1571  0.1519  0.0351
57479W        W  391  11.212  12.231  26.225  0.0004  0.0012 -0.3173
57480W        W  392  11.078  13.960  24.077 -0.2272  0.2518  0.0412
57481W        W  393  10.373  13.086  24.757 -0.3569  0.0970 -0.0100
57482W        W  394  10.882  10.897  24.205 -0.1414  0.0896 -0.0534
57483W        W  395  11.552  11.244  25.801 -0.3869 -0.0291 -0.2429
57484W        W  396  13.459  13.438  25.393  0.1036  0.0152  0.1123
57485W        W  397  14.571  10.390  23.039  0.1203  0.0279  0.1626
57486W        W  398  11.959  10.883  26.426  0.2037 -0.1146  0.0055
57487W        W  399  13.874  11.043  25.964  0.1747 -0.2121 -0.0008
57488W        W  400  10.668  13.294  24.330  0.2812 -0.2925 -0.2863
57489W        W  401  13.111  14.161  22.178  0.0535  0.1735 -0.1083
57490W        W  402  14.068  11.352  24.211  0.3166 -0.3398 -0.0706
57491W        W  403  13.835  11.169  22.997  0.1825  0.0894  0.0251
57492W        W  404  10.772  11.270  27.422 -0.1051  0.1147 -0.1828
57493W        W  405   9.645  11.970  24.712  0.2477  0.1926  0.0569
57494W        W  406  10.330  12.430  26.975 -0.0652  0.2118  0.0356
57495W        W  407  12.491  11.996  25.416  0.1340  0.0381 -0.1252
57496W        W  408  12.633  11.175  27.318 -0.2522 -0.3814 -0.1356
57497W        W  409  11.018  10.172  23.848 -0.1337  0.1716  0.1716
57498W        W  410  14.014  10.807  24.913 -0.0679 -0.1491 -0.0449
57499W        W  411  12.213  11.457  23.812  0.1789 -0.1967 -0.1427
57500W        W  412  10.078  14.619  24.202 -0.0172 -0.1817  0.1173
57501W        W  413  14.506  10.136  28.206 -0.1798  0.1979  0.0574
57502W        W  414  12.605  13.180  23.250  0.0163  0.0437  0.2884
57503W        W  415  13.197  14.319  24.652 -0.1938  0.3337  0.2906
57504W        W  416  13.448  14.046  22.727  0.1219  0.2563  0.2838
57505W        W  417  10.596  11.083  25.346  0.0634  0.2084 -0.1897
57506W        W  418  10.372  11.475  24.546  0.1611  0.2250 -0.0744
57507W        W  419  11.700  14.138  26.435 -0.0229 -0.0005  0.5657
57508W        W  420  12.087  12.959  26.369  0.0826 -0.1408  0.2601
57509W        W  421  12.086  10.925  24.660  0.1375 -0.1592  0.1264
57510W        W  422  13.233  13.808  24.522 -0.0933  0.1963  0.0875
57511W        W  423  12.493  13.655  24.167 -0.1340 -0.0688  0.1443
57512W        W  424  11.120  11.881  25.913  0.1776  0.3259  0.2134
57513W        W  425  12.216  12.483  25.363 -0.2539  0.0822  0.3088
57514W        W  426  13.273  12.174  25.054  0.1876  0.0105 -0.3459
57515W        W  427  13.744  11.449  25.694 -0.4541  0.0392 -0.3470
57516W        W  428  11.745  10.532  24.677  0.0020  0.2224  0.0593
57517W        W  429  11.705  13.819  24.182  0.2879  0.3564 -0.2852
57518W        W  430  11.010  13.048  23.300 -0.0014  0.0573  0.2218
57519W        W  431  10.053  12.293  24.840 -0.0733  0.2917  0.1396
57520W        W  432  12.023  14.678  26.014 -0.0162 -0.1074 -0.2243
57521W        W  433  14.756  11.367  25.787  0.0847  0.3803  0.0329
57522W        W  434   9.768  12.294  26.333 -0.2019  0.0597 -0.0375
57523W        W  435  13.621  11.965  25.885  0.2320 -0.4488  0.1595
57524W        W  436  11.087  11.702  24.653  0.1032  0.1499  0.0834
57525W        W  437  10.906  13.892  27.515  0.0828 -0.3582 -0.2324
57526W        W  438  12.775  11.397  23.638  0.2070  0.1508  0.4009
57527W        W  439  13.620  11.828  24.860 -0.4855 -0.1668 -0.1714
57528W        W  440  12.877  12.289  26.987  0.2133 -0.2862  0.1401
57529W        W  441  11.716  13.392  23.768 -0.1648 -0.2465 -0.2280
57530W        W  442  13.713  12.903  23.017 -0.0878  0.2792 -0.1214
57531W        W  443  12.301  11.736  22.799 -0.3225 -0.1307 -0.1256
57532W        W  444  11.305  14.422  28.621  0.1355  0.1537  0.0960
57533W        W  445  11.191  13.948  25.942 -0.1480  0.3201  0.0030
57534W        W  446  13.042  12.717  23.656 -0.1116 -0.0833  0.2258
57535W        W  447  12.582  12.648  24.038 -0.0116  0.2096 -0.1863
57536W        W  448  13.428  13.365  22.268  0.3051  0.0431  0.1143
57537W        W  449  10.959  12.344  25.202 -0.2618  0.0040 -0.1130
57538W        W  450  14.530  12.961  24.675  0.1425 -0.3846 -0.0777
57539W        W  451  12.515  14.106  23.922 -0.2465 -0.0648 -0.0789
57540W        W  452  12.263   9.962  25.369  0.0400 -0.5887  0.1768
57541W        W  453  11.360  12.593  22.551 -0.1111 -0.2026  0.0158
57542W        W  454  12.749  12.313  23.637 -0.1210 -0.3154 -0.1085
57543W        W  455  11.054  15.001  23.162  0.4393  0.2369  0.4506
57544W        W  456  14.343  11.517  26.629 -0.2326 -0.1843 -0.0557
57545W        W  457  12.229  12.055  24.827 -0.1746 -0.1518 -0.0981
57546W        W  458  12.377  11.116  26.336  0.3832 -0.0229 -0.0331
57547W        W  459  14.511  12.124  25.235  0.2729  0.0521 -0.0868
57548W        W  460  13.487  11.464  22.835 -0.1633 -0.1436 -0.0112
57549W        W  461  12.436  13.153  24.763 -0.0996 -0.3333 -0.4995
57550W        W  462  10.506  10.745  22.520 -0.2102  0.0051 -0.0027
57551W        W  463  12.848  11.567  27.606 -0.1385 -0.0514 -0.0737
57552W        W  464  12.630  13.191  26.320  0.6023 -0.0025  0.0800
57553W        W  465  10.004  12.880  27.131  0.0669  0.0701  0.2304
57554W        W  466  13.060  13.121  25.462  0.1153 -0.2713  0.2723
57555W        W  467  12.680  13.806  25.000  0.0026 -0.0288  0.1348
57556W        W  468  13.558  10.637  27.164  0.2707 -0.1657  0.1709
57557W        W  469  12.072  11.928  23.705 -0.1076  0.2119  0.1374
57558W        W  470  11.264  12.323  25.740 -0.2147  0.0321  0.1068
57559W        W  471  12.082  11.323  22.941 -0.0539 -0.1307  0.0449
57560W        W  472  12.419  10.387  25.601 -0.0382 -0.1949 -0.1349
57561W        W  473  12.945  13.904  25.859  0.1116 -0.1947  0.0611
57562W        W  474  11.973  14.192  23.855  0.0967 -0.1077  0.0191
57563W        W  475  14.085  12.731  24.486  0.1169  0.0907  0.2097
57564W        W  476  11.794  13.190  25.713 -0.2329 -0.2919  0.1947
57565W        W  477  13.959  10.091  26.833 -0.0810  0.1395  0.0558
57566W        W  478  10.719  11.999  26.200 -0.3400 -0.0265  0.0744
57567W        W  479  11.260  12.156  23.747 -0.0578  0.0376  0.2866
57568W        W  480   9.717  11.230  25.041 -0.2030 -0.0505 -0.0895
57569W        W  481  14.458  10.842  25.245 -0.2353  0.2105  0.0754
57570W        W  482  12.307  12.133  24.226 -0.1612  0.1890  0.0772
57571W        W  483  10.601  11.691  25.411  0.1403 -0.0608  0.2039
57572W        W  484  12.953  11.581  26.292  0.3346  0.0104 -0.0528
57573W        W  485  10.579  13.907  25.836  0.2473 -0.1781  0.1320
57574W        W  486  11.778  12.890  25.280  0.1086 -0.0415 -0.2878
57575W        W  487  12.999  11.668  24.081  0.2754  0.3990  0.1307
57576W        W  488  14.139  12.475  23.705  0.0642 -0.0806  0.0917
57577W        W  489  12.264  14.220  27.347  0.0395  0.0567  0.1304
57578W        W  490  10.598  12.785  23.459  0.0656 -0.0582 -0.2910
57579W        W  491  15.550  11.789  25.306  0.0512  0.0381 -0.2637
57580W        W  492  11.019  12.772  25.503 -0.2827 -0.0320 -0.2921
57581W        W  493  11.707  13.006  24.098 -0.0315 -0.1208  0.0782
57582W        W  494  12.644  13.365  25.193 -0.2201  0.2526  0.2136
57583W        W  495  11.747  11.666  22.898 -0.0067 -0.1138  0.2816
57584W        W  496  10.289  14.116  25.466 -0.0604 -0.0752  0.0358
57585W        W  497  10.493  13.357  26.714  0.0953 -0.0920  0.1571
57586W        W  498  12.834  11.862  25.893 -0.0509  0.1132 -0.1903
57587W        W  499  11.413  12.616  25.137  0.0034 -0.1153 -0.0345
57588W        W  500  11.472  12.089  25.271  0.3617 -0.1006 -0.1238
57589W        W  501  11.897  12.428  24.417  0.0404 -0.2884 -0.0344
57590W        W  502  13.399  13.586  23.702 -0.1923  0.0650  0.1072
57591W        W  503  13.661  10.431  25.168  0.1408 -0.2665  0.3208
57592W        W  504  11.765  13.416  27.385 -0.2659  0.0432 -0.0966
57593W        W  505  12.730  10.749  26.193  0.0527  0.1074 -0.0367
57594W        W  506  13.893  13.736  20.378 -0.4165  0.1690  0.0902
57595W        W  507  12.847  13.363  25.882  0.1378  0.2736  0.0322
57596W        W  508  10.087  12.756  22.905  0.3870 -0.1389 -0.1483
57597W        W  509  11.215  11.594  27.159 -0.4526 -0.1420  0.0419
57598W        W  510  11.963  13.224  24.860 -0.2525 -0.0820  0.3088
57599W        W  511  12.754  11.230  25.108  0.0612 -0.1342  0.2219
57600W        W  512  11.478  12.817  25.843  0.0326 -0.1734  0.0839
57601W        W  513  11.289  13.873  24.507 -0.0104 -0.1480  0.4840
57602W        W  514  12.063  15.003  26.934 -0.1746 -0.0750  0.0677
57603W        W  515  14.539  11.892  25.888 -0.1271 -0.3960 -0.3352
57604W        W  516  11.635  13.440  23.264  0.1469 -0.0877 -0.0099
57605W        W  517  10.834  12.763  24.300  0.0174  0.0066 -0.1740
57606W        W  518  14.405  11.820  27.084 -0.4915  0.1478 -0.2369
57607W        W  519  12.097  12.891  24.311 -0.3615 -0.1767  0.5587
57608W        W  520  13.676  11.195  27.027  0.0502 -0.2057  0.0091
57609W        W  521  12.094   9.685  27.122  0.2781  0.0700  0.2796
57610W        W  522  13.547  13.234  23.346  0.0912 -0.1081 -0.1659
57611W        W  523   9.873  11.828  26.567 -0.1236 -0.0981 -0.3129
57612W        W  524  12.917  13.973  27.276 -0.2018  0.1111 -0.1209
57613W        W  525  11.725  12.979  27.088 -0.1546 -0.1744  0.1050
57614W        W  526  14.272  12.547  24.942 -0.4133 -0.0566 -0.0854
57615W        W  527  13.207  10.886  24.513  0.0986  0.1387 -0.0812
57616W        W  528  11.537  11.710  26.784  0.0700  0.1605  0.1488
57617W        W  529  13.200  12.922  23.166  0.3871 -0.0173 -0.1293
57618W        W  530  11.698  13.424  25.299 -0.0615 -0.0767 -0.3974
57619W        W  531  15.268  11.736  24.546 -0.1959  0.4871  0.0051
57620W        W  532  12.482  12.070  26.224 -0.0214  0.0535  0.3850
57621W        W  533  11.971  11.936  25.255 -0.2366  0.0153  0.0933
57622W        W  534  11.625  13.351  24.523 -0.0770  0.0984  0.0706
57623W        W  535  10.969  13.430  25.209  0.2244 -0.3119  0.1440
57624W        W  536  11.713  11.367  25.295 -0.0992 -0.1595  0.1360
57625W        W  537  13.270  12.274  23.891  0.0356 -0.2453 -0.0107
57626W        W  538  14.242  11.158  25.566 -0.1236 -0.2210  0.0559
57627W        W  539  12.408  11.285  24.712  0.0753 -0.3107  0.1243
57628W        W  540  12.861  12.207  24.115 -0.0305  0.0405 -0.1810
57629W        W  541  12.385  11.463  27.645 -0.1285  0.3323 -0.2972
57630W        W  542  10.387  12.903  26.805  0.0909 -0.0373  0.1110
57631W        W  543  15.199  13.109  26.350  0.0608 -0.0883 -0.0790
57632W        W  544  13.407  10.935  23.935  0.0066  0.0730  0.0920
57633W        W  545  13.204  10.434  27.477  0.1346 -0.3451  0.0766
57634W        W  546  14.765  10.593  22.603  0.0876  0.1063 -0.0249
57635W        W  547  12.702  12.168  25.003  0.0189  0.0305  0.3739
57636W        W  548  10.716  11.501  26.384  0.0169  0.0719  0.0895
57637W        W  549  12.633  13.061  26.814 -0.1610 -0.0595 -0.0728
57638W        W  550  11.607  10.009  22.364 -0.4263 -0.1364  0.0272
57639W        W  551  13.658  11.422  26.176 -0.3663  0.0539 -0.2493
57640W        W  552  11.074  13.472  24.695 -0.1058  0.0079  0.0626
57641W        W  553  12.646  14.430  24.485  0.0726  0.3643 -0.4342
57642W        W  554  13.010  12.990  24.796 -0.1221  0.2563 -0.1673
57643W        W  555  10.929  11.054  24.982 -0.1471 -0.0435 -0.0915
57644W        W  556  12.180  13.541  27.851 -0.0209 -0.4455  0.1959
57645W        W  557  11.086  10.862  22.616  0.0934  0.1718  0.0474
57646W        W  558  11.658  14.739  24.039  0.2164 -0.1432  0.1901
57647W        W  559  12.503  12.563  26.429  0.2092 -0.1882 -0.1533
57648W        W  560  14.214  13.044  27.961  0.2129 -0.0365 -0.1017
57649W        W  561  13.837  11.314  25.219 -0.0740  0.1899  0.0605
57650W        W  562  14.094  11.771  26.211 -0.0963 -0.0983  0.1132
57651W        W  563  10.559  12.686  22.915  0.0159 -0.2194  0.1922
57652W        W  564  13.046  12.598  25.214 -0.1287 -0.1554  0.1700
57653W        W  565  11.468  11.716  26.221  0.3199 -0.0543  0.0592
57654W        W  566  11.202  13.303  28.185  0.0596 -0.1372 -0.3595
57655W        W  567  12.032  13.834  26.678 -0.1217  0.2324 -0.2094
57656W        W  568  12.936  10.840  27.177 -0.1833 -0.0310 -0.1596
57657W        W  569  14.701  11.636  25.339  0.1265 -0.1936 -0.1573
57658W        W  570  14.475  13.861  25.267 -0.0257  0.3595 -0.2456
57659W        W  571  12.531  12.819  25.997  0.0221 -0.2927  0.1381
57660W        W  572  13.697  14.131  24.675  0.0219  0.3323  0.1665
57661W        W  573  11.757  12.434  25.560 -0.3247  0.1095  0.0948
57662W        W  574  12.946  14.479  25.890  0.0483 -0.1544  0.1932
57663W        W  575  13.358  13.056  22.672 -0.4178  0.3768  0.1877
57664W        W  576  13.221  12.171  26.008 -0.1157 -0.0958  0.0600
57665W        W  577  11.867  11.650  27.214  0.0105  0.1951 -0.0529
57666W        W  578  13.038  13.649  25.424 -0.0470  0.0067  0.2845
57667W        W  579  12.692  11.802  24.605  0.1488 -0.0132 -0.5724
57668W        W  580  11.191  10.696  23.250  0.1846  0.3007 -0.0792
57669W        W  581  10.319  14.259  23.358 -0.2042 -0.0442 -0.1701
57670W        W  582  12.704  13.700  26.696 -0.2195  0.0729 -0.1176
57671W        W  583  12.011  11.895  26.243 -0.1325 -0.0088  0.2965
57672W        W  584  12.057  13.695  25.651 -0.1024  0.2913 -0.0626
57673W        W  585  13.680  12.659  23.548  0.0142  0.1971  0.1933
57674W        W  586  13.422  13.034  23.779  0.3495  0.5228  0.1521
57675W        W  587  12.239  15.099  26.402 -0.0207 -0.2488 -0.2871
57676W        W  588  10.567  11.434  23.923 -0.0613 -0.0805  0.0347
57677W        W  589  12.018  14.449  25.550 -0.0601 -0.0804  0.2638
57678W        W  590  10.565  14.491  24.627  0.0949 -0.1707  0.0693
57679W        W  591  12.135  13.512  23.049  0.1863 -0.1643  0.1184
57680W        W  592  11.789  14.729  26.510  0.0516  0.1558  0.1696
57681W        W  593  13.457  12.658  24.609 -0.0615 -0.1042 -0.0709
57682W        W  594  14.608  11.012  24.715  0.0146  0.0608 -0.3053
57683W        W  595  14.144  12.242  24.302 -0.3489 -0.2324  0.0681
57684W        W  596  14.760  10.989  23.756 -0.1852 -0.2317  0.2468
57685W        W  597  12.415  14.635  26.675 -0.3070 -0.0352 -0.2218
57686W        W  598  10.993  11.859  25.128 -0.0121 -0.1473  0.2484
57687W        W  599  11.375  13.139  25.014 -0.0748  0.0616  0.2500
57688W        W  600  12.114  12.201  26.629  0.1882 -0.0725  0.0122
57689W        W  601  15.881  11.051  27.373 -0.0302  0.1584  0.1723
57690W        W  602  10.295  15.845  27.212 -0.0443 -0.2555 -0.1747
57691W        W  603  12.857  12.913  22.824  0.1226 -0.0597  0.0601
57692W        W  604  10.788  10.495  25.215 -0.0053 -0.0104 -0.0622
57693W        W  605  11.113  11.329  26.073 -0.1790  0.0724  0.0067
57694W        W  606  13.943  10.852  26.794 -0.1510  0.0028 -0.0124
57695W        W  607  11.963  12.927  23.721  0.1046 -0.1730  0.2989
57696W        W  608  13.289  11.923  24.479 -0.0694 -0.0489 -0.1217
57697W        W  609  11.234  14.844  26.313 -0.2237 -0.0903 -0.0716
57698W        W  610  11.500  12.614  26.245 -0.0331  0.1913  0.1331
57699W        W  611  12.623  13.507  27.131  0.3420 -0.0740  0.1949
57700W        W  612  10.656   9.860  24.344 -0.0381  0.1015 -0.3746
57701W        W  613  13.559  10.192  23.821 -0.1513  0.0384  0.6821
57702W        W  614  12.396  10.690  27.068  0.0890  0.1999 -0.1047
57703W        W  615  13.863  11.372  26.596  0.2387 -0.0568 -0.0705
57704W        W  616  12.634  12.817  25.515 -0.1132  0.0147  0.4140
57705W        W  617  13.650  12.632  24.112 -0.0272 -0.3507 -0.0876
57706W        W  618  13.009  13.631  26.314  0.1091  0.4390  0.1621
57707W        W  619  11.988  11.363  26.110  0.1636  0.1267 -0.1091
57708W        W  620  10.855  12.903  21.968  0.1766  0.1494  0.3505
57709W        W  621  13.880  13.051  25.240 -0.0935  0.3180 -0.0180
57710W        W  622  12.663  11.899  23.178  0.1348  0.1601 -0.0555
57711W        W  623  12.583  15.335  27.376  0.1315  0.1652  0.1332
57712W        W  624  10.496  12.148  25.225 -0.0686  0.1328 -0.0861
57713W        W  625  13.231   9.965  23.482 -0.1805 -0.2775  0.2328
57714W        W  626  10.630  11.875  24.359 -0.0207  0.3609 -0.4459
57715W        W  627  12.447  11.618  26.338 -0.3895  0.1870  0.1326
57716W        W  628  13.339  13.634  25.911  0.1547 -0.0207 -0.0395
57717W        W  629  11.346  11.238  24.082  0.2746 -0.1435 -0.2715
57718W        W  630  13.818  12.253  24.695  0.2952  0.1504  0.1318
57719W        W  631  13.764  12.523  25.241 -0.0138  0.1136 -0.0122
57720W        W  632  11.881  14.435  22.717 -0.1844  0.0784 -0.0054
57721W        W  633  13.136  12.619  24.222 -0.0125 -0.4627  0.2524
57722W        W  634  12.751  14.348  24.956 -0.2286  0.2874 -0.1857
57723W        W  635  10.478  13.382  25.785 -0.1175 -0.2898  0.3197
57724W        W  636  14.455  13.456  24.963 -0.1573  0.2852  0.0202
57725W        W  637  13.823  12.098  23.589 -0.3035  0.3527  0.2235
57726W        W  638  12.928  11.137  24.142  0.2953 -0.1769  0.1408
57727W        W  639  12.984  12.787  26.246 -0.2412  0.0472 -0.0070
57728W        W  640  11.772  14.029  25.263  0.3528  0.1090 -0.0106
57729W        W  641  15.290  11.421  24.961 -0.0153 -0.2241  0.0728
57730W        W  642  13.483  12.688  26.071 -0.2223  0.0335  0.0236
57731W        W  643  13.304  12.440  23.271  0.0404 -0.1510 -0.0838
57732W        W  644  15.752  10.636  27.166 -0.4569 -0.3082 -0.0348
57733W        W  645  13.718  13.818  26.221 -0.1239 -0.0156 -0.2379
57734W        W  646  11.742  13.958  27.094 -0.2421  0.0036  0.0139
57735W        W  647  10.716  12.024  23.768  0.0481 -0.0840 -0.1026
57736W        W  648  13.352  13.196  26.191  0.0647  0.0988 -0.1855
57737W        W  649  12.163  13.201  25.348  0.0563 -0.0333  0.3702
57738W        W  650  11.487  13.656  24.934 -0.1495 -0.0430 -0.0625
57739W        W  651  13.019  13.651  24.069  0.1234 -0.0648  0.0610
57740W        W  652  11.759  11.491  23.999 -0.1252 -0.1891 -0.1976
57741W        W  653  14.445  13.198  22.800  0.2337  0.3406  0.1923
57742W        W  654  12.547  12.457  24.560 -0.2179  0.1483 -0.0622
57743W        W  655  14.580  12.059  23.873 -0.0273  0.0199  0.0976
57744W        W  656  14.780  11.580  26.251 -0.1817 -0.0562  0.0289
57745W        W  657  12.241  11.151  26.807  0.2900 -0.1609  0.1682
57746W        W  658   9.700  11.452  23.946  0.4067 -0.1772  0.0654
57747W        W  659  11.012  14.396  24.405  0.0892  0.0555  0.3167
57748W        W  660  10.987  13.845  25.491 -0.2544 -0.1421  0.0234
57749W        W  661  13.497  12.235  28.069  0.2298 -0.0279 -0.0121
57750W        W  662  11.630  12.197  27.535 -0.0014  0.1938  0.0219
57751W        W  663  10.595  13.199  26.195  0.1058 -0.0222  0.1401
57752W        W  664  10.781  11.355  24.364  0.0886  0.1225  0.1089
57753W        W  665  11.931  13.053  23.169 -0.1825 -0.1866 -0.1089
57754W        W  666  12.345  10.624  24.293 -0.3068 -0.1209 -0.0474
57755W        W  667  11.630  10.987  24.463 -0.3388  0.3935 -0.3315
57756W        W  668  11.825  13.859  24.672 -0.0231  0.0953  0.1331
57757W        W  669  11.851  12.511  21.770 -0.4714 -0.0878 -0.2006
57758W        W  670  12.894  11.335  24.600  0.1095  0.1760 -0.0266
57759W        W  671  13.373  12.995  25.062 -0.3333  0.1461 -0.2128
57760W        W  672  10.698  11.458  24.890  0.0343 -0.5827 -0.3068
57761W        W  673  13.306  12.404  26.451 -0.2713 -0.1523  0.3870
57762W        W  674  13.435  11.864  26.383  0.0638 -0.0786  0.2221
57763W        W  675  11.086  10.174  23.373 -0.0476 -0.0348  0.1529
57764W        W  676  12.971  12.134  25.520 -0.1441 -0.0937  0.2590
57765W        W  677  11.664  14.515  25.171 -0.3562 -0.2537 -0.3225
57766W        W  678  13.559  13.854  22.243  0.0971 -0.0074 -0.2133
57767W        W  679  11.850  13.397  26.379  0.1986  0.0269 -0.0255
57768W        W  680  12.231  13.320  26.738  0.2087  0.2444 -0.0196
57769W        W  681  12.272   9.728  26.680  0.2183 -0.0009  0.0646
57770W        W  682  13.054  13.284  23.464 -0.1004 -0.1579  0.1030
57771W        W  683  12.407  13.659  26.262 -0.0682 -0.1674 -0.0287
57772W        W  684  14.218  12.845  23.197 -0.0583 -0.0843  0.3984
57773W        W  685  14.572  10.892  25.916 -0.0364 -0.3349 -0.1273
57774W        W  686  12.084  12.470  23.937  0.0211  0.1592 -0.2120
57775W        W  687  11.711  10.822  25.994 -0.0049 -0.2533 -0.0271
57776W        W  688  11.300  12.582  26.712  0.1839 -0.2986 -0.0171
57777W        W  689  14.414  12.926  25.181 -0.1339  0.0483 -0.1439
57778W        W  690  11.417  11.522  24.974  0.0386  0.1682  0.3128
57779W        W  691  14.177  10.549  23.628 -0.3764  0.1119 -0.4759
57780W        W  692  11.920  13.816  23.356 -0.0331 -0.1683  0.3076
57781W        W  693  10.411  11.986  26.857 -0.2379 -0.1553  0.1329
57782W        W  694  11.657  10.921  23.824  0.3284  0.1006  0.1053
57783W        W  695  11.647  11.948  24.862  0.3029  0.0204  0.1057
57784W        W  696  12.055  12.463  26.190 -0.2145  0.3392 -0.1215
57785W        W  697  14.087  12.052  26.659  0.2513 -0.0853  0.3327
57786W        W  698  12.020  13.374  24.169 -0.2148  0.0378 -0.3031
57787W        W  699  14.642  10.522  23.523 -0.0472  0.1384  0.0374
57788W        W  700  12.464  14.541  25.704  0.0777  0.1913 -0.0666
57789W        W  701  14.013  13.559  25.253  0.0168  0.1605  0.0571
57790W        W  702  13.298  15.254  25.098  0.1194 -0.2203  0.2420
57791W        W  703  13.320  11.101  23.469  0.2026 -0.3095  0.2129
57792W        W  704  11.895  11.908  24.393 -0.0763 -0.0032  0.3000
57793W        W  705  11.120  12.634  24.696 -0.1892  0.2583  0.0417
57794W        W  706  12.107  13.679  25.159  0.0481  0.1719 -0.3277
57795W        W  707  12.124  12.161  25.814 -0.0237  0.2569 -0.1121
57796W        W  708  11.739  11.700  25.751 -0.2940 -0.0825 -0.1950
57797W        W  709  12.687  11.547  25.514  0.0545 -0.0332 -0.2065
57798W        W  710  12.254  14.258  26.362 -0.4479 -0.1852 -0.0036
57799W        W  711  13.049  12.393  24.655  0.0699  0.2420  0.1897
57800W        W  712  12.235  13.621  30.416 -0.0698 -0.3571 -0.0381
57801W        W  713  12.840  12.039  28.913  0.0551 -0.1261 -0.0629
57802W        W  714  14.658  11.327  28.466 -0.0560 -0.1524  0.1920
57803W        W  715  14.457  12.192  27.527  0.0003  0.0253  0.3497
57804W        W  716  11.471  11.849  28.540 -0.0916  0.0142  0.1853
57805W        W  717  14.779  13.101  29.154  0.4523  0.1218  0.1066
57806W        W  718  13.910  10.882  28.797  0.0995 -0.1108  0.1447
57807W        W  719  14.778  13.763  27.828 -0.1111  0.2672 -0.3167
57808W        W  720  14.457  14.439  27.278  0.4015 -0.2953  0.1861
57809W        W  721  13.577  12.886  26.541  0.1406 -0.1131  0.0250
57810W        W  722  13.860  12.100  29.281 -0.0252 -0.2500  0.2310
57811W        W  723  12.006  13.364  30.069 -0.0924  0.0429 -0.1233
57812W        W  724  12.313  12.705  27.806 -0.1342  0.0351  0.1820
57813W        W  725  11.197  11.931  29.717 -0.1591  0.1985  0.0460
57814W        W  726  13.318  11.383  27.859  0.2385  0.0173 -0.2243
57815W        W  727  10.734  12.564  27.828 -0.0036 -0.1584 -0.1128
57816W        W  728  13.205  11.711  31.054 -0.0827 -0.0814 -0.1822
57817W        W  729  12.601  12.528  29.273 -0.0445 -0.2589  0.0514
57818W        W  730  14.268  14.102  26.564  0.2228  0.2510 -0.0463
57819W        W  731  13.379  11.775  30.311 -0.0501  0.0992  0.1481
57820W        W  732  13.946  10.917  30.940 -0.0982 -0.0144 -0.1657
57821W        W  733  13.210  12.045  28.489  0.1825 -0.1949  0.1376
57822W        W  734  11.057  12.878  27.445  0.0634  0.3377 -0.0879
57823W        W  735  11.123  12.172  28.421 -0.2889 -0.0218  0.3169
57824W        W  736  12.595  11.650  29.966  0.1959 -0.2032  0.3983
57825W        W  737  12.284  12.495  29.671  0.1277 -0.0665 -0.2332
57826W        W  738  14.994  13.551  27.150  0.0402  0.1877  0.1401
57827W        W  739  11.506  14.216  30.268 -0.2769  0.0484 -0.1322
57828W        W  740  12.708  14.364  30.043  0.0063  0.2950 -0.2321
57829W        W  741  14.539  13.138  30.500 -0.3468 -0.1819  0.1662
57830W        W  742  11.073  13.078  28.918 -0.2921 -0.0073 -0.0255
57831W        W  743  10.539  13.807  30.797 -0.1746 -0.0645  0.0408
57832W        W  744  11.908  14.322  28.175 -0.2474 -0.2186  0.2502
57833W        W  745  14.418  12.741  27.184  0.0534 -0.0154  0.1532
57834W        W  746  13.400  14.368  28.730  0.2314  0.0997 -0.1169
57835W        W  747  14.611  14.491  30.650  0.2964 -0.0529 -0.1158
57836W        W  748  10.752  14.603  26.506  0.0226 -0.2490  0.0076
57837W        W  749  13.195  14.244  29.852 -0.0628 -0.2509  0.1659
57838W        W  750  12.973  14.389  31.765  0.1519  0.0525 -0.0587
57839W        W  751  13.493  11.781  29.620 -0.0515  0.0967 -0.0848
57840W        W  752  12.454  12.730  28.545 -0.3616  0.1516  0.0197
57841W        W  753  13.257  14.214  26.936  0.1274 -0.0311 -0.2374
57842W        W  754  14.032  12.452  28.901  0.0293  0.0947  0.0646
57843W        W  755  12.869  13.171  30.885 -0.1456 -0.0459  0.1148
57844W        W  756  11.997  12.661  27.415  0.1527  0.1968 -0.3592
57845W        W  757  13.962  10.994  30.138 -0.3965  0.3051 -0.2224
57846W        W  758  12.141  13.668  27.171  0.0289 -0.0258  0.0143
57847W        W  759  13.488  10.990  27.604 -0.0191  0.0644 -0.1219
57848W        W  760  11.152  11.165  26.849  0.3587  0.0862  0.2705
57849W        W  761  14.529  10.524  27.523  0.1175 -0.1933  0.0475
57850W        W  762  14.487  10.168  28.741  0.1018  0.1815  0.0010
57851W        W  763  11.517  14.952  29.655 -0.0330 -0.2045  0.2109
57852W        W  764  11.710  11.573  28.146 -0.2782 -0.0976  0.1437
57853W        W  765  13.498  13.651  30.175 -0.0695 -0.0048  0.0052
57854W        W  766  11.886  11.592  28.637  0.2375 -0.0735 -0.1623
57855W        W  767  15.068  12.423  29.803  0.1695 -0.0930  0.1361
57856W        W  768  11.116  14.953  30.870 -0.4471  0.2331 -0.1207
57857W        W  769  11.647  13.535  27.909  0.0483  0.1524  0.1839
57858W        W  770  14.329  14.680  25.277 -0.3376  0.0181 -0.2071
57859W        W  771  14.689  14.573  27.845 -0.0415 -0.1712  0.1057
57860W        W  772  13.405  14.802  27.314  0.2433  0.0492 -0.0738
57861W        W  773  12.603  12.295  28.214 -0.2558  0.1069  0.1195
57862W        W  774  11.845  13.002  29.228  0.1191 -0.0499  0.1319
57863W        W  775  12.381  13.210  30.679  0.0835  0.1875 -0.1034
57864W        W  776  11.764  11.244  26.886 -0.1012 -0.2683 -0.0961
57865W        W  777  14.902  13.841  30.235 -0.0247  0.1638  0.0897
57866W        W  778  11.078  14.440  31.220  0.2506  0.1851  0.2193
57867W        W  779  14.770  11.902  28.448  0.3934  0.2766 -0.2754
57868W        W  780  12.559  13.781  27.541 -0.1161 -0.0671 -0.0113
57869W        W  781  13.987  13.952  27.575  0.0058 -0.2717  0.3907
57870W        W  782  14.490  12.975  26.158  0.0446  0.1395 -0.0831
57871W        W  783  14.006   9.879  28.940  0.0175  0.2568  0.2302
57872W        W  784  13.391  10.667  27.958  0.0992  0.0925 -0.2590
57873W        W  785  12.365  12.330  27.087  0.0193  0.1174  0.0682
57874W        W  786  11.655  13.054  28.129 -0.0538  0.2486  0.1388
57875W        W  787  14.276  14.833  30.559 -0.2202 -0.0958 -0.0126
57876W        W  788  14.601  11.729  27.589  0.1264  0.0656 -0.2447
57877W        W  789  12.232  14.771  30.082  0.0607 -0.0129  0.0510
57878W        W  790  12.249  12.627  31.401 -0.0115 -0.1932  0.0386
57879W        W  791  14.019  13.874  30.013  0.1305  0.2895  0.0614
57880W        W  792  13.343  14.504  26.327 -0.0340  0.3357  0.4512
57881W        W  793  10.447  12.941  29.163 -0.0864 -0.2021 -0.4568
57882W        W  794  11.313  13.273  27.129 -0.0504 -0.0147  0.0098
57883W        W  795  11.071  11.947  30.953 -0.0530 -0.2902  0.1959
57884W        W  796  12.626  12.199  30.879  0.2063 -0.1169  0.4161
57885W        W  797  13.088  11.821  28.018 -0.2151 -0.2256 -0.2167
57886W        W  798  10.877  12.446  30.911  0.0868 -0.0379  0.3770
57887W        W  799  15.954  11.210  29.963  0.0074  0.0979 -0.1107
57888W        W  800  11.066  11.833  26.607  0.1272  0.1429 -0.3511
57889W        W  801  13.112  13.581  26.939  0.2313 -0.2141 -0.0806
57890W        W  802  15.819  13.478  26.460 -0.2831  0.2372  0.2708
57891W        W  803  13.297  13.975  26.472 -0.0575 -0.1535 -0.2471
57892W        W  804  11.064  12.260  30.097  0.0799 -0.0247 -0.4787
57893W        W  805  12.037  12.700  28.240 -0.0370 -0.1893 -0.0933
57894W        W  806  12.831  11.259  30.929  0.2756 -0.1415  0.3367
57895W        W  807  11.750  12.737  28.726 -0.3027 -0.1672 -0.2540
57896W        W  808  15.216  12.140  28.504 -0.0763 -0.0617 -0.1801
57897W        W  809  12.136  10.615  27.554 -0.0163  0.1046  0.1778
57898W        W  810  13.696  11.270  29.610  0.0069  0.0258 -0.1685
57899W        W  811  12.609  11.966  27.366 -0.4432 -0.2595  0.2528
57900W        W  812  10.990  13.548  29.115  0.2011 -0.0572  0.0342
57901W        W  813  15.099  12.258  29.078 -0.4467 -0.1153 -0.0769
57902W        W  814  12.448  15.442  27.865 -0.1408 -0.3611  0.0665
57903W        W  815  14.618  14.994  31.533 -0.3027  0.1878  0.3543
57904W        W  816  13.531  13.816  27.141 -0.0084 -0.3163 -0.1151
57905W        W  817  11.340  12.544  31.033 -0.1514 -0.1101 -0.0470
57906W        W  818  12.807  10.554  27.975  0.2184 -0.1799 -0.2793
57907W        W  819  11.858  15.081  30.099 -0.0472 -0.0493  0.1116
57908W        W  820  11.794  13.967  29.170  0.0725  0.1676  0.1903
57909W        W  821  12.788  12.744  28.036  0.1449 -0.2717 -0.1003
57910W        W  822  15.649  14.140  27.031 -0.0748  0.1927  0.4715
57911W        W  823  13.859  12.993  28.362  0.1912  0.2010 -0.0976
57912W        W  824  11.526  12.523  28.332 -0.2998 -0.1500  0.2608
57913W        W  825  14.632  11.272  30.888  0.0994  0.2125 -0.3022
57914W        W  826  14.251  11.909  27.977 -0.2069  0.5199 -0.0583
57915W        W  827  13.957  13.070  27.328 -0.4189 -0.0082 -0.0109
57916W        W  828  10.898  10.105  28.049 -0.1775 -0.1062 -0.0305
57917W        W  829  12.953  13.577  28.467  0.3415  0.3068 -0.3470
57918W        W  830  11.768  14.382  27.625  0.0119  0.1376  0.2019
57919W        W  831  10.633  13.114  27.689 -0.0959 -0.2341  0.3265
57920W        W  832  11.184  13.923  29.401 -0.3002 -0.2503  0.2772
57921W        W  833  14.351  11.674  28.458 -0.2739  0.0386  0.0144
57922W        W  834  11.301  12.965  31.677 -0.0656 -0.1063  0.0438
57923W        W  835  14.044  12.203  30.985 -0.1627 -0.1380 -0.0681
57924W        W  836  10.213  12.226  26.502  0.0309  0.2582  0.1515
57925W        W  837   9.579  13.821  30.367  0.4649  0.0523  0.2288
57926W        W  838  12.493  10.804  28.303  0.2729  0.3832 -0.0396
57927W        W  839  15.646  12.325  28.653 -0.1983 -0.1467  0.0288
57928W        W  840  14.013  11.731  29.892 -0.2231  0.2657 -0.0690
57929W        W  841  13.122  13.538  27.499 -0.3230 -0.1604 -0.0422
57930W        W  842  13.382  11.899  26.915  0.2032 -0.0108 -0.2786
57931W        W  843  14.346  11.304  27.978 -0.1029  0.0129 -0.2145
57932W        W  844  10.754  14.715   0.838  0.1681 -0.1980  0.1891
57933W        W  845  13.812  12.749  27.925 -0.2722 -0.0111 -0.0354
57934W        W  846  11.981  13.097  27.728  0.1560  0.2415 -0.2909
57935W        W  847  13.844  11.303  27.682  0.1987 -0.0941  0.0819
57936W        W  848  13.920  13.742  26.685 -0.1282 -0.0495 -0.1952
57937W        W  849  10.665  12.868  28.701 -0.1116  0.0592  0.3889
57938W        W  850  13.179  14.681  31.342 -0.1586 -0.0965  0.1251
57939W        W  851  14.024  13.634  27.183  0.0521 -0.1576  0.0869
57940W        W  852  13.047  12.570  28.982  0.3249  0.1812  0.1952
57941W        W  853  13.753  12.138  27.297 -0.1804  0.1123 -0.0509
57942W        W  854  12.582  11.772  29.370  0.0432  0.1550  0.0310
57943W        W  855  12.567  14.128  26.815  0.0168 -0.0350 -0.2022
57944W        W  856  14.778  11.546  29.333  0.2990  0.0683  0.0778
57945W        W  857  13.963  10.748  29.603  0.0847  0.0785  0.2145
57946W        W  858  12.025  11.321  31.587 -0.2228  0.1369 -0.1770
57947W        W  859  14.607  12.511  30.217  0.3381 -0.1153  0.0497
57948W        W  860  13.514  12.482  27.606 -0.1270  0.1220  0.0851
57949W        W  861  13.029  12.605  29.508  0.0544  0.1121 -0.0424
57950W        W  862  10.841  11.910  27.237  0.0985 -0.2511 -0.2972
57951W        W  863  11.633  12.648  31.945  0.0365 -0.0455 -0.1119
57952W        W  864  12.378  13.220  29.264  0.4272 -0.2323 -0.0090
57953W        W  865  11.872  15.812  31.029  0.2785  0.1424  0.0804
57954W        W  866  14.941  14.171  28.402  0.2853 -0.1136  0.0681
57955W        W  867  13.446  12.777  29.282 -0.0420  0.1314  0.0921
57956W        W  868  13.077  10.344   0.726  0.0220 -0.0430 -0.1913
57957W        W  869  13.178  11.272  27.299  0.0019 -0.1318 -0.2689
57958W        W  870  12.151  14.674  28.702 -0.2416 -0.1207 -0.2612
57959W        W  871  10.950  13.500  28.573  0.1583 -0.0550  0.1545
57960W        W  872  10.685  11.622  30.638  0.1698  0.0629  0.4498
57961W        W  873  12.672  14.132  29.596  0.0421 -0.1411  0.0639
57962W        W  874  13.690  15.004  26.351 -0.2333 -0.0540  0.5474
57963W        W  875  13.948  13.013  29.762 -0.3437  0.0073 -0.1281
57964W        W  876  11.083  13.354  27.685  0.0090 -0.0578  0.2780
57965W        W  877  13.798  10.519  30.087 -0.2083  0.0031  0.0721
57966W        W  878  11.932  14.630  29.230 -0.0910  0.1489  0.3619
57967W        W  879  11.346  12.855  29.544  0.1846  0.2591  0.0280
57968W        W  880  10.299  12.401  25.953 -0.1013  0.0103  0.1710
57969W        W  881  13.961  10.937  28.018  0.2674  0.0704 -0.0284
57970W        W  882  13.580  13.339  27.004 -0.1058  0.1395  0.0626
57971W        W  883  11.954  13.320  28.370 -0.0074  0.0353 -0.2211
57972W        W  884  14.441  10.963  28.819  0.2151  0.0072  0.2544
57973W        W  885   9.205  12.818  29.987 -0.0236  0.1294 -0.0981
57974W        W  886  13.449  13.516  28.923 -0.3534 -0.2483  0.0343
57975W        W  887  14.047  12.798  26.903 -0.1090 -0.1660  0.0753
57976W        W  888  13.586  12.912  28.778  0.0757 -0.2087  0.0985
57977W        W  889  13.309  12.269  30.457  0.1592 -0.0751 -0.0506
57978W        W  890  11.714  12.553  27.874  0.0322 -0.0436 -0.0751
57979W        W  891  14.348  12.235  28.448 -0.3963 -0.1405 -0.2795
57980W        W  892  13.472  12.276  28.886  0.0650 -0.1881  0.2802
57981W        W  893  10.035  13.190  29.131  0.5900 -0.1001  0.1753
57982W        W  894  12.368  13.606  28.398 -0.0368  0.0907 -0.3155
57983W        W  895  12.037  11.736  26.787 -0.2537  0.0056  0.2360
57984W        W  896  11.787  13.230  29.647 -0.1440  0.1346 -0.1444
57985W        W  897  10.990  12.950  30.830 -0.1134 -0.1298  0.0279
57986W        W  898  12.813  13.620  29.095 -0.0096 -0.1890  0.1290
57987W        W  899  11.931  12.317  30.011  0.2461 -0.1747 -0.2369
57988W        W  900  11.627  12.055  28.144 -0.0054  0.0170 -0.2177
57989W        W  901  11.899  11.588  29.235 -0.0704  0.1785  0.0056
57990W        W  902  14.916  14.308  29.977 -0.0830 -0.0651 -0.1148
57991W        W  903  13.734  13.188  29.185  0.1328  0.0967  0.2769
57992W        W  904  11.445  15.175  30.431 -0.2222 -0.2501  0.2186
57993W        W  905  12.314  11.852  28.925  0.3751  0.1126 -0.0645
57994W        W  906  13.368  12.851  30.671 -0.2301 -0.1036  0.0041
57995W        W  907  12.220  13.176  27.231 -0.2663 -0.1494 -0.0677
57996W        W  908  11.683  14.137  28.597  0.0125 -0.2208 -0.1590
57997W        W  909  11.053  13.455  26.740  0.0036 -0.0700 -0.1347
57998W        W  910  13.005  12.549  30.816  0.0817 -0.0146  0.2444
57999W        W  911  10.350  12.606  30.861 -0.0354 -0.0819 -0.1405
58000W        W  912  13.090  12.657  27.449  0.0151 -0.1403  0.0050
58001W        W  913  11.304  13.386  30.475 -0.0358 -0.3005  0.0352
58002W        W  914  14.833  10.307  27.877 -0.0719 -0.2618 -0.1590
58003W        W  915  13.032  13.112  27.798 -0.1314  0.1058  0.0507
58004W        W  916  12.568  11.260  29.365  0.2205  0.0812  0.3728
58005W        W  917  16.266  12.375  29.525  0.1628 -0.1404  0.2767
58006W        W  918  13.704  11.768  27.852 -0.1110 -0.2005 -0.0276
58007W        W  919  15.040  11.032  29.886 -0.3858  0.3493 -0.0567
58008W        W  920  11.145  11.154  29.452 -0.1166  0.1244 -0.2034
58009W        W  921  13.064  13.164  26.581  0.0217 -0.0493 -0.0304
58010W        W  922   9.764  11.128  31.485 -0.0228 -0.3505  0.2176
58011W        W  923  12.810  13.309  31.868  0.1153  0.0842  0.4023
58012W        W  924  11.522  12.992  30.613  0.0327 -0.3402 -0.2829
58013W        W  925  13.649  11.858  28.766 -0.1138  0.1935 -0.2536
58014W        W  926  12.210  11.225  28.086  0.0114  0.0740  0.1477
58015W        W  927  12.422  12.690  30.122  0.0511 -0.3914  0.1560
58016W        W  928  13.699  13.475  28.446  0.0341 -0.0733  0.1154
58017W        W  929  12.895  14.438  28.046 -0.0689  0.0098 -0.0646
58018W        W  930  13.928  12.272  27.868  0.1112  0.2242 -0.2291
58019W        W  931  11.157  13.907  30.690 -0.2902  0.1568  0.1752
58020W        W  932  14.217  13.526  27.766 -0.0217  0.1144 -0.1584
58021W        W  933  13.083  12.338  27.834  0.1079 -0.2232 -0.0131
58022W        W  934  11.120  12.349  27.498 -0.0086  0.2079 -0.0979
58023W        W  935  12.903  11.971  30.148 -0.3299  0.1218  0.0264
58024W        W  936  13.498  12.704  29.780  0.5355  0.0049 -0.1307
58025W        W  937  14.468  11.475  28.957 -0.2928 -0.1355  0.1168
58026W        W  938  13.593  11.879  30.760  0.0212 -0.1966 -0.1859
58027W        W  939  12.998  12.078  29.589  0.0229 -0.0070 -0.1197
58028W        W  940  11.514  13.620  30.879 -0.0573 -0.0454  0.2610
58029W        W  941  10.942  12.768  29.808  0.2231 -0.1302  0.0941
58030W        W  942  15.697  14.547  27.277  0.0421 -0.0808 -0.0634
58031W        W  943  13.238  10.538  26.359  0.0804 -0.1291  0.0693
58032W        W  944  14.472  12.047  29.676 -0.1091 -0.1202 -0.1986
58033W        W  945  14.793  13.057  27.122  0.0500 -0.0815  0.0733
58034W        W  946  13.309  12.757  27.957  0.2359 -0.3000 -0.2594
58035W        W  947  11.410  12.328  28.791 -0.0228 -0.1733  0.1222
58036W        W  948  13.727  13.875  31.727 -0.2975 -0.0586  0.1698
58037W        W  949  12.595  11.855  27.918 -0.0608  0.3559 -0.1006
58038W        W  950  14.856  12.094  30.543  0.2854 -0.1286  0.1745
58039W        W  951  13.687  13.509  27.537 -0.0731 -0.4068 -0.1906
58040W        W  952  12.826  13.131  28.343 -0.0961  0.0009 -0.3809
58041W        W  953  13.484  11.671  28.274 -0.2101  0.0350 -0.2673
58042W        W  954  11.743  11.997  28.925 -0.1829  0.0452 -0.1869
58043W        W  955  11.309  13.316  29.400 -0.1311 -0.2345  0.0731
58044W        W  956  12.152  12.076  27.526  0.2667 -0.1759  0.1019
58045W        W  957  12.778  14.055  26.292  0.1719 -0.2029 -0.1540
58046W        W  958  13.290  13.584  28.011  0.2281 -0.1158  0.2197
58047W        W  959  12.579  12.761  30.946 -0.3025 -0.0636  0.1164
58048W        W  960  14.023  10.388  27.203 -0.0415 -0.3969  0.0109
58049W        W  961  13.370  12.157  29.951 -0.2748  0.4593 -0.1335
58050W        W  962   9.795  13.006  27.985  0.0877 -0.1033 -0.0090
58051W        W  963  13.570  11.124  28.315  0.0470  0.3255 -0.0877
58052W        W  964  12.160  14.214  28.939  0.2760  0.2619 -0.0673
58053W        W  965  11.225  15.643  30.122  0.3096 -0.0951  0.0859
58054W        W  966  12.966  14.567  29.489  0.0474 -0.1103  0.3028
58055W        W  967  12.764  12.415  29.906 -0.0883 -0.0687  0.0361
58056W        W  968  14.302  12.081  30.195  0.1112 -0.0960  0.4307
58057W        W  969  13.284  11.846  29.143  0.0190  0.0132 -0.0204
58058W        W  970  13.894  12.617  29.435  0.1745 -0.0352 -0.2789
58059W        W  971  13.685  12.800  30.242 -0.1908  0.2532  0.1767
58060W        W  972  12.547  13.217  27.621  0.0408  0.1061  0.0777
58061W        W  973  12.783  12.969  29.120  0.1176  0.1324  0.0325
58062W        W  974  13.949  13.734  29.022 -0.1368 -0.0489  0.1776
58063W        W  975  12.594  13.886  28.720 -0.2044 -0.1891  0.2490
58064W        W  976  10.524  12.516  30.206  0.1211  0.1527  0.2812
58065W        W  977  13.135  13.336  31.309 -0.1861  0.2356  0.3541
58066W        W  978  13.889  11.981  28.324 -0.3682 -0.0360  0.1000
58067W        W  979  11.270  10.305  28.902  0.1837 -0.2627  0.1748
58068W        W  980  11.781  12.643  26.667 -0.1852 -0.1680  0.0356
58069W        W  981  10.987  13.763  30.122  0.0212  0.2008 -0.2375
58070W        W  982  12.243  13.063  29.713  0.1127  0.0710  0.1522
58071W        W  983  12.277  14.116  27.852 -0.0900 -0.1802 -0.4539
58072W        W  984  13.936  13.253  26.655 -0.0325  0.0009  0.1026
58073W        W  985  12.760  13.546  27.943 -0.2926  0.1859 -0.0244
58074W        W  986  13.640  14.428  27.692  0.0950  0.0825 -0.0468
58075W        W  987  13.002  10.980  28.142 -0.0988  0.0195 -0.0972
58076W        W  988  11.621  13.733  29.588 -0.1508  0.0781 -0.0809
58077W        W  989  10.257  13.308  28.022  0.1588  0.0835 -0.0154
58078W        W  990  13.649  14.282  27.218  0.2808  0.4274  0.0791
58079W        W  991  12.417  14.490  28.156 -0.0309 -0.0857 -0.0424
58080W        W  992  14.804  12.477  29.402 -0.1240  0.0605  0.1471
58081W        W  993  12.689   9.711  28.810 -0.0405 -0.0958  0.0346
58082W        W  994  15.031  12.743  29.003  0.3595  0.2015  0.3302
58083W        W  995  15.997  12.371  28.312  0.0368  0.1130  0.0933
58084W        W  996  14.680  14.515  29.131  0.1347 -0.0159 -0.0765
58085W        W  997  11.391  12.724  29.086 -0.3149  0.0337 -0.2113
58086W        W  998  13.013   9.853  26.868 -0.0924  0.1317  0.1068
58087W        W  999  12.462  13.207  30.117  0.0957  0.0733 -0.0151
58088W        W 1000  14.903  11.906  30.010 -0.2027  0.0556  0.0951
58089W        W 1001  10.668  13.288  30.128  0.0610 -0.1739 -0.0167
58090W        W 1002  14.127  15.206  25.401  0.0845  0.2438  0.1702
58091W        W 1003  12.373  12.323  28.830  0.1711 -0.0948 -0.3074
58092W        W 1004  12.123  13.157  28.807  0.0423  0.0580 -0.1616
58093W        W 1005  14.213  11.679  29.369 -0.0027 -0.0235 -0.1814
58094W        W 1006  11.901  13.912  27.601  0.0450  0.1133  0.0461
58095W        W 1007  14.719  12.823  27.669  0.0076 -0.0012 -0.1482
58096W        W 1008  12.262  15.036  29.139 -0.0609  0.0076  0.2151
58097W        W 1009  11.359  14.638  30.042 -0.1102  0.0962 -0.1090
58098W        W 1010  12.652  13.410  29.711 -0.0374 -0.0892  0.1247
58099W        W 1011  11.738  10.250  27.045 -0.0656  0.0128  0.1844
58100W        W 1012  14.043  12.586  27.477 -0.2534 -0.1093 -0.2202
58101W        W 1013  13.244  13.210  29.265  0.3716 -0.0035  0.0880
58102W        W 1014  13.438  12.275  29.453 -0.0502 -0.1857 -0.1764
58103W        W 1015  11.430  13.698  28.410 -0.0837 -0.4499  0.0162
58104W        W 1016  14.371  12.534  27.913  0.1484  0.0117 -0.1169
58105W        W 1017  13.572  13.498  29.519 -0.1961 -0.0311 -0.1087
58106W        W 1018  11.822  12.616  29.546  0.0245 -0.1216  0.1111
58107W        W 1019  13.330  12.391  27.107 -0.0856  0.1931 -0.2789
58108W        W 1020  13.215  13.180  29.746 -0.0923 -0.1909  0.0031
58109W        W 1021  13.119  11.930  27.374  0.0758 -0.1274  0.0957
58110W        W 1022  15.361  14.324  29.113 -0.2686 -0.0396 -0.2604
58111W        W 1023  10.573  11.310   0.108  0.0761  0.2487  0.0255
58112W        W 1024  13.937  11.513  28.243  0.1293 -0.0286 -0.0995
58113W        W 1025  11.546  12.945  27.605 -0.1926  0.1352 -0.1125
58114W        W 1026  12.788  12.998  30.451  0.1069  0.2209  0.0800
58115W        W 1027  13.623  14.775  31.687 -0.1126 -0.0774 -0.0966
58116W        W 1028  10.741  12.169  29.342 -0.2120  0.2903 -0.1655
58117W        W 1029  14.105  12.144  25.836 -0.0673 -0.5161  0.2097
58118W        W 1030  14.444  12.959  29.478  0.0193 -0.0519  0.0504
58119W        W 1031  12.682  13.983  28.207 -0.0463  0.2856  0.1343
58120W        W 1032  13.780  13.714  27.988 -0.2110  0.0999 -0.1329
58121W        W 1033  13.338  14.629  29.182 -0.0491 -0.1366  0.1386
58122W        W 1034  11.688  12.157  29.532  0.1228 -0.2376 -0.0420
58123W        W 1035  13.323  15.057  29.505 -0.1739  0.0209  0.1513
58124W        W 1036  14.487  13.796  27.441  0.2720  0.0391  0.1111
58125W        W 1037  14.869   9.794  28.072 -0.0995  0.2908  0.0958
58126W        W 1038  12.199  11.588  29.626  0.5025 -0.0911 -0.2438
58127W        W 1039  11.390  13.804  27.479  0.1104  0.0005 -0.1442
58128W        W 1040  15.565  11.693  30.208 -0.1766  0.1636  0.0642
58129W        W 1041  14.807  12.596  30.689  0.2238 -0.0733  0.0300
58130W        W 1042  12.834  14.194  25.445 -0.3383  0.0327 -0.1506
58131W        W 1043  15.566  10.786  29.418  0.1547  0.0436 -0.0683
58132W        W 1044  12.733  13.015  31.404 -0.2086  0.2736  0.2884
58133W        W 1045  11.986  14.397  31.700  0.2460  0.0848 -0.2088
58134W        W 1046  12.033  11.069  27.278  0.1258  0.0645 -0.2225
58135W        W 1047  12.078  14.164  29.579 -0.1498 -0.1157  0.1848
58136W        W 1048  11.292  12.080  27.048  0.2366  0.0408 -0.0043
58137W        W 1049  12.904  13.939  27.759 -0.1993 -0.0863  0.1011
58138W        W 1050  13.731  13.237  27.967 -0.3784  0.0049 -0.0091
58139W        W 1051  13.568  11.064  29.103 -0.1179  0.4421  0.1510
58140W        W 1052  14.060  13.821  28.583 -0.1999 -0.2273 -0.1272
58141W        W 1053  12.580  12.347  27.716 -0.0506  0.0902  0.1744
58142W        W 1054  15.494  11.406  27.429 -0.0781  0.0096 -0.0592
58143W        W 1055  13.970  11.435  28.727  0.0358  0.2123  0.0373
58144W        W 1056  11.748  12.419  30.652 -0.1278  0.4245 -0.1363
58145W        W 1057   9.118  12.253  27.216 -0.1175 -0.1201 -0.1430
58146W        W 1058  12.173  12.772  26.875 -0.1796  0.0303  0.0852
58147W        W 1059  11.479  13.620  28.955  0.1838 -0.2427 -0.0985
58148W        W 1060  14.263  10.367  31.221  0.3472  0.2026 -0.1363
58149W        W 1061  11.990  12.325  31.678  0.0151 -0.1350  0.3215
58150W        W 1062  11.221  12.381  29.453  0.4252  0.1032 -0.1098
58151W        W 1063  10.860  10.427  28.598 -0.0662 -0.0227  0.0354
58152W        W 1064  13.442  13.068  27.515 -0.1815 -0.6314  0.2424
58153W        W 1065  11.581  11.013  31.413 -0.1340  0.3529  0.0452
58154W        W 1066  11.481  13.548  30.046 -0.0502 -0.2406  0.1943
58155W        W 1067  12.603  13.283  28.767 -0.1261 -0.4391 -0.2862
58156W        W 1068  14.515  14.045  26.097 -0.0247 -0.1983 -0.0734
58157W        W 1069  11.886  12.255  28.542 -0.2996  0.0424  0.0226
58158W        W 1070  15.392  13.458  30.033  0.2609  0.0004 -0.2090
58159W        W 1071  11.672  13.474  26.878  0.2712  0.0899  0.3022
58160W        W 1072  13.646  12.627  31.527  0.0494  0.1403 -0.1189
58161W        W 1073  12.788  11.476  31.497 -0.1906  0.0930 -0.1719
58162W        W 1074  11.389  10.824  26.581  0.0533  0.0746  0.0288
58163W        W 1075  13.299  11.412  29.384 -0.1883  0.2490  0.0523
58164W        W 1076  13.360  15.227  28.115  0.0795  0.2191 -0.1951
58165W        W 1077  13.218  15.089  26.501  0.1226  0.0089  0.2141
58166W        W 1078  13.565  12.823  27.061 -0.3653  0.2708 -0.1180
58167W        W 1079  13.784  14.306  29.172  0.3353 -0.0806  0.0506
58168W        W 1080  11.119  11.432  31.460 -0.0932 -0.2517 -0.1563
58169W        W 1081  12.365  11.610  27.115  0.0981  0.0559 -0.2791
58170W        W 1082  14.476  13.774  29.153 -0.5325 -0.0750 -0.0299
58171W        W 1083  14.419  13.146  27.482  0.0963  0.0624  0.0456
58172W        W 1084  15.179  11.956  28.017 -0.1806 -0.0287 -0.0701
58173W        W 1085  13.065  12.750  26.829 -0.0783  0.1758 -0.2139
58174W        W 1086  10.616  10.669  31.527 -0.4260  0.1203 -0.1235
58175W        W 1087  11.868  13.509  29.248 -0.0754 -0.3197  0.0305
58176W        W 1088  14.671  13.721  28.351 -0.0778  0.0043  0.0562
58177W        W 1089  12.358  11.427  28.549  0.3566 -0.0804 -0.0233
58178W        W 1090  14.289  10.844  28.388 -0.2870 -0.1705  0.2783
58179W        W 1091  13.123  13.152  27.136  0.0468 -0.0427 -0.2692
58180W        W 1092  10.577  12.357  28.260  0.1865 -0.1962 -0.0234
58181W        W 1093  12.946  12.546  28.487  0.1811  0.3588 -0.2527
58182W        W 1094  13.386  12.689  28.427 -0.0759 -0.1299  0.3093
58183W        W 1095  12.257  12.782  29.047  0.0397  0.0299  0.0128
58184W        W 1096  15.379  12.752  30.789 -0.0446 -0.1835  0.0198
58185W        W 1097  12.341  13.134  28.060  0.2782  0.0187 -0.0607
58186W        W 1098  14.144  14.097  27.073 -0.1878 -0.2020 -0.0937
58187W        W 1099  11.568  14.169  30.921  0.0953 -0.0773  0.1914
58188W        W 1100  14.494  14.004  30.885  0.0176  0.3340 -0.0492
58189W        W 1101  12.797  12.967  29.905 -0.1394  0.0627 -0.1850
58190W        W 1102  14.946  12.472  28.097 -0.1677 -0.3454  0.4176
58191W        W 1103  10.108  11.501  29.314 -0.2168 -0.2274 -0.2487
58192W        W 1104  12.510  12.782  27.305  0.0518  0.2213  0.5224
58193W        W 1105  11.442  13.220  28.589  0.0777  0.1845  0.1150
58194W        W 1106  13.775  11.489  30.388  0.1831 -0.0834  0.1257
58195W        W 1107  11.629  11.760  30.321  0.0403  0.1107 -0.0369
58196W        W 1108  14.037  11.147  29.236  0.0493  0.1752  0.5275
58197W        W 1109  13.371  15.593  29.329 -0.1728 -0.1132 -0.1568
58198W        W 1110  14.123  11.868  28.902 -0.2114  0.1436 -0.1151
58199W        W 1111  13.784  12.010  30.264 -0.0607 -0.0893 -0.1379
58200W        W 1112  14.049  13.359  30.190 -0.2048  0.3782 -0.0085
58201W        W 1113  13.460  11.520   0.909  0.0921  0.2333  0.0409
58202W        W 1114  12.408  13.563  31.047  0.1187  0.4340 -0.0781
58203W        W 1115  13.636  14.627  30.151 -0.0045 -0.0862  0.1213
58204W        W 1116  11.365  14.550  30.712  0.3083  0.2378 -0.1566
58205W        W 1117  13.881  11.938  31.980 -0.0292  0.0282 -0.1202
58206W        W 1118  12.813  12.356  30.426  0.1933 -0.1471 -0.3091
58207W        W 1119  13.973  12.162  31.460 -0.3090 -0.0512  0.1809
58208W        W 1120  13.055  13.727  29.574  0.0312  0.3082  0.0219
58209W        W 1121  12.824  14.096  30.810 -0.0573  0.2609  0.1366
58210W        W 1122  12.931  11.492  30.355  0.0774 -0.0062 -0.1280
58211W        W 1123  14.363  13.709   0.308  0.0739 -0.1881  0.1274
58212W        W 1124  11.934  14.193  30.609  0.1588 -0.0972 -0.1209
58213W        W 1125  16.670  12.192  29.860 -0.1173 -0.0671 -0.1659
58214W        W 1126  10.034  14.712  31.169 -0.3251  0.1414 -0.1046
58215W        W 1127  10.858  14.113   0.170 -0.0437  0.2327 -0.0182
58216W        W 1128  13.613  14.147  30.271  0.3835  0.0092 -0.1031
58217W        W 1129  12.629  10.622   0.057 -0.1711 -0.1010 -0.0816
58218W        W 1130  11.644  13.090   0.888  0.2203 -0.0226 -0.4032
58219W        W 1131  12.487  11.689  30.564  0.0015  0.0023 -0.0587
58220W        W 1132  10.276  15.086   0.346 -0.0912  0.2512  0.0748
58221W        W 1133  15.877  11.533  30.972  0.0701  0.2939 -0.0281
58222W        W 1134  13.124  12.822  31.187 -0.0883 -0.1593  0.0531
58223W        W 1135  14.507  11.838  30.918 -0.0512  0.0966 -0.0579
58224W        W 1136  13.114  12.638  30.164 -0.0813 -0.1406  0.0108
58225W        W 1137  12.778  12.020   0.513  0.4674 -0.1170 -0.0586
58226W        W 1138  10.803  13.412  30.622  0.0898  0.5175 -0.1133
58227W        W 1139  11.369  12.500   0.857  0.0882 -0.1493 -0.1531
58228W        W 1140  12.845  14.873  31.678  0.0995  0.0939 -0.1807
58229W        W 1141  12.443  13.766  29.995 -0.1121  0.2795 -0.1702
58230W        W 1142  12.121  12.095  30.834 -0.0330  0.2539 -0.2901
58231W        W 1143  13.438  12.566   0.024 -0.1065 -0.2810 -0.0649
58232W        W 1144  14.202  12.785  30.609 -0.0367  0.0683 -0.1136
58233W        W 1145  11.061  12.153   0.666 -0.1126  0.1032 -0.0149
58234W        W 1146  10.816  13.435  31.480 -0.0487 -0.1167 -0.1688
58235W        W 1147  11.362  14.730  31.717 -0.0197 -0.0852 -0.5380
58236W        W 1148  13.895  14.321  31.905  0.2545  0.0145 -0.1167
58237W        W 1149  14.385  13.602  30.467  0.2660 -0.0464 -0.1268
58238W        W 1150  13.746  14.121  30.991  0.0439 -0.0086 -0.1629
58239W        W 1151  15.430  11.480  30.731  0.0279 -0.1339 -0.2758
58240W        W 1152  13.445  11.695   0.064 -0.0566  0.0867  0.0173
58241W        W 1153  10.356  11.144   1.630  0.2025  0.1717 -0.1603
58242W        W 1154  13.664  14.588  31.228  0.2345  0.0773 -0.3820
58243W        W 1155  12.385  12.192  30.292  0.1134  0.0747 -0.3267
58244W        W 1156  13.137  13.867  30.467 -0.0326  0.0075  0.0327
58245W        W 1157  15.758  10.445   0.953 -0.1536 -0.3372  0.1385
58246W        W 1158  11.725  15.335  31.285 -0.0174 -0.2577 -0.0873
58247W        W 1159  13.469  13.763  30.797  0.0399  0.0925 -0.0705
58248W        W 1160  10.000  15.077  29.866 -0.0212 -0.0371 -0.0813
58249W        W 1161  14.115  15.200  29.309 -0.2073 -0.1844  0.1606
58250W        W 1162  15.582  10.831  30.067  0.1418  0.0181 -0.1773
58251W        W 1163  12.121  12.269   1.171  0.2743 -0.1078 -0.1631
58252W        W 1164  13.133  13.324  30.212 -0.0949 -0.1375  0.2415
58253W        W 1165  13.145  13.154  28.770 -0.2473 -0.1339  0.1423
58254W        W 1166  14.662  11.609  31.800 -0.0731  0.0001  0.0154
58255W        W 1167  14.835  13.271  29.970 -0.0382  0.2101  0.0896
58256W        W 1168  11.965  14.016  31.312 -0.0203 -0.0195 -0.0159
58257W        W 1169  12.133  13.638  29.682  0.0886  0.0001 -0.0863
58258W        W 1170  12.119  12.819  31.924 -0.0064 -0.3050  0.0306
58259W        W 1171  12.734  13.563  30.409 -0.0043  0.3362 -0.2509
58260W        W 1172  14.085  13.725  30.938 -0.0258  0.0229  0.0983
58261W        W 1173  12.411  14.067  31.043  0.0417  0.0077  0.2852
58262W        W 1174  12.333  12.562  30.595 -0.0927  0.3359  0.0692
58263W        W 1175  13.106  15.223  29.930 -0.1488 -0.0672  0.0802
58264W        W 1176  14.700  14.623  29.638  0.0710  0.0487  0.4542
58265W        W 1177  14.960  13.889  31.294 -0.1987  0.0036 -0.2071
58266W        W 1178  11.412  17.840  18.141  0.0830 -0.1966 -0.0942
58267W        W 1179  11.453  15.865  17.438 -0.0755  0.1659 -0.0598
58268W        W 1180  14.127  14.913  14.911  0.0490  0.2043  0.0507
58269W        W 1181  12.967  15.446  16.817  0.0443 -0.0102  0.0022
58270W        W 1182  11.630  14.667  15.674 -0.1807  0.0203  0.2006
58271W        W 1183  13.449  16.933  17.261  0.0011  0.1634 -0.0937
58272W        W 1184  10.997  15.652  18.479  0.3683  0.4938  0.1258
58273W        W 1185  12.710  16.422  16.912  0.1751 -0.0091  0.2535
58274W        W 1186  13.699  17.365  17.408 -0.1628  0.0601 -0.0211
58275W        W 1187  12.239  16.782  15.027  0.1678  0.1191  0.1384
58276W        W 1188  12.024  14.307  18.934 -0.1660 -0.0288 -0.1049
58277W        W 1189  11.653  17.416  17.550  0.3005  0.4029  0.0849
58278W        W 1190  11.937  14.792  17.220 -0.2124 -0.2096 -0.0004
58279W        W 1191  10.178  14.768  17.091 -0.3112 -0.0966  0.0523
58280W        W 1192  12.838  15.433  18.400  0.2374  0.0817  0.1523
58281W        W 1193  11.998  16.048  16.219  0.0174 -0.2380 -0.4430
58282W        W 1194  11.348  15.066  18.113  0.1075  0.0717  0.0333
58283W        W 1195  12.443  15.392  16.092  0.2651 -0.1527  0.0722
58284W        W 1196  11.858  19.004  16.394 -0.2201 -0.0999 -0.1147
58285W        W 1197  10.550  15.548  19.767  0.0177  0.2511  0.3730
58286W        W 1198  12.223  15.880  18.567 -0.1967  0.1244 -0.0511
58287W        W 1199  13.170  18.102  15.986  0.0428 -0.0924  0.0171
58288W        W 1200  10.574  15.572  16.030  0.4463  0.3631  0.0062
58289W        W 1201  10.437  17.203  17.026 -0.1061  0.1192 -0.0430
58290W        W 1202  11.608  15.551  18.323 -0.2986  0.0188  0.0929
58291W        W 1203  13.206  16.968  18.087 -0.0439 -0.0816  0.3082
58292W        W 1204  13.305  16.587  18.364 -0.0491  0.2119 -0.0240
58293W        W 1205  12.102  18.389  17.582  0.0993 -0.0195  0.0886
58294W        W 1206  12.698  19.431  16.397 -0.0176 -0.0475 -0.0155
58295W        W 1207  12.254  16.273  19.345  0.0685  0.2962 -0.0491
58296W        W 1208  11.308  17.364  18.284 -0.0532 -0.3363  0.2572
58297W        W 1209   9.999  18.766  17.094 -0.0273  0.0511  0.1372
58298W        W 1210  12.398  17.449  16.697 -0.1726  0.1407 -0.0466
58299W        W 1211  13.368  19.178  17.380  0.1388  0.0149 -0.0348
58300W        W 1212  13.505  18.201  18.164 -0.1153  0.2296  0.0480
58301W        W 1213  11.527  17.935  18.965  0.1922 -0.0894  0.0098
58302W        W 1214  10.890  17.967  15.574  0.1124  0.0215 -0.0858
58303W        W 1215  11.509  18.763  19.980 -0.1024  0.2480  0.2486
58304W        W 1216  11.215  18.876  17.224 -0.0544 -0.3172 -0.0833
58305W        W 1217  12.569  16.653  17.370  0.2165  0.1693 -0.1571
58306W        W 1218  12.045  15.390  17.453 -0.4411  0.0110 -0.1396
58307W        W 1219  13.210  17.769  15.553 -0.1289 -0.0379  0.1337
58308W        W 1220  13.996  17.655  17.724  0.4886  0.0770 -0.4485
58309W        W 1221  11.995  18.097  18.748 -0.0531  0.0605 -0.1973
58310W        W 1222  11.950  18.263  18.156  0.0676 -0.5554  0.2570
58311W        W 1223  12.404  14.779  19.492 -0.0831 -0.0784 -0.1333
58312W        W 1224  11.915  17.146  16.014 -0.0122 -0.0486  0.0564
58313W        W 1225  13.638  15.923  15.717 -0.1223 -0.1443  0.2704
58314W        W 1226  11.206  14.810  15.873  0.2069  0.1362  0.0694
58315W        W 1227  14.185  15.775  16.242 -0.0006  0.1121  0.0857
58316W        W 1228  11.932  15.482  18.735 -0.0203 -0.0919  0.0546
58317W        W 1229  10.405  18.593  18.091  0.0394 -0.2586  0.1506
58318W        W 1230  11.864  15.418  17.897 -0.1316 -0.3169 -0.1813
58319W        W 1231  13.822  18.149  17.733  0.0345 -0.2228  0.2834
58320W        W 1232  12.043  15.170  16.926  0.0426 -0.0633  0.1129
58321W        W 1233  12.247  17.114  17.359  0.1784 -0.0574 -0.0519
58322W        W 1234  11.834  17.336  17.072 -0.2179  0.2260 -0.1459
58323W        W 1235  11.461  17.064  16.869  0.0773 -0.0809 -0.1524
58324W        W 1236  13.978  19.340  15.163  0.1118 -0.1787 -0.2025
58325W        W 1237  14.614  17.520  15.841  0.0413 -0.3842 -0.0523
58326W        W 1238  12.593  17.373  15.769  0.0694  0.0793 -0.2439
58327W        W 1239  12.335  14.858  16.616  0.0298  0.0247  0.1681
58328W        W 1240  11.292  16.955  17.331 -0.1404  0.0865 -0.0661
58329W        W 1241  10.085  16.687  17.118 -0.4190 -0.1762  0.1226
58330W        W 1242  12.638  12.598  15.578 -0.2184  0.2004 -0.2433
58331W        W 1243  14.063  18.992  17.966  0.1672 -0.3506  0.0886
58332W        W 1244  10.974  18.165  18.423 -0.0415  0.0462  0.0913
58333W        W 1245  13.428  14.567  17.526 -0.0359 -0.1702  0.1289
58334W        W 1246  11.954  18.242  17.015  0.2041 -0.1469 -0.2340
58335W        W 1247  14.041  15.598  17.048 -0.0879  0.0152 -0.1809
58336W        W 1248  13.992  17.732  15.055  0.0167 -0.0997 -0.0639
58337W        W 1249  13.258  13.954  18.032 -0.0531  0.1091  0.0598
58338W        W 1250  11.005  14.535  17.271 -0.2044 -0.3087  0.1331
58339W        W 1251  12.515  16.501  16.409 -0.1244  0.0231 -0.0385
58340W        W 1252  12.998  16.651  16.403 -0.1869  0.1548 -0.0659
58341W        W 1253  12.835  18.288  18.090 -0.1414  0.0834  0.0706
58342W        W 1254  14.383  18.145  14.934  0.1362 -0.0393  0.0818
58343W        W 1255   9.936  19.973  18.053 -0.0308  0.3773  0.0189
58344W        W 1256  10.868  16.883  17.735 -0.0360  0.0858 -0.2193
58345W        W 1257  12.689  17.651  18.756  0.0845 -0.2062 -0.1777
58346W        W 1258  11.578  18.472  15.203  0.0803 -0.0432  0.2026
58347W        W 1259   9.967  16.766  16.662  0.0040 -0.2194  0.0762
58348W        W 1260  10.430  18.047  15.373 -0.0787  0.0742 -0.0340
58349W        W 1261  10.657  15.778  17.991 -0.2370  0.1124 -0.1566
58350W        W 1262  11.415  18.363  18.075  0.2707  0.0583  0.1591
58351W        W 1263  13.354  14.111  17.176 -0.1040 -0.1692  0.0013
58352W        W 1264  10.157  15.814  18.081  0.0702  0.0357 -0.1770
58353W        W 1265  13.785  14.611  16.308 -0.1182  0.0075 -0.1451
58354W        W 1266  10.671  17.231  16.538  0.1151  0.1489  0.2097
58355W        W 1267  13.257  17.600  16.390  0.0846 -0.4359  0.2814
58356W        W 1268  14.288  16.401  15.036  0.2266 -0.0442  0.0656
58357W        W 1269  12.747  16.659  15.064  0.0222 -0.0820  0.2354
58358W        W 1270  10.454  16.382  17.068 -0.2518  0.2685 -0.3275
58359W        W 1271  10.946  15.645  17.564  0.0624  0.1547 -0.2207
58360W        W 1272  11.068  14.847  19.495 -0.3095  0.0649 -0.0785
58361W        W 1273  11.545  14.879  18.527  0.1153  0.0212 -0.0645
58362W        W 1274  13.649  15.118  18.476 -0.1487  0.0678  0.1347
58363W        W 1275  11.459  14.307  16.199  0.1251  0.1286 -0.0105
58364W        W 1276  13.256  17.330  17.617  0.3363 -0.2515 -0.1593
58365W        W 1277  11.437  17.281  15.983 -0.1241 -0.1137  0.0605
58366W        W 1278  10.347  17.402  16.165  0.1199  0.1702 -0.1519
58367W        W 1279  14.650  13.694  19.326 -0.0898  0.1038  0.1173
58368W        W 1280  12.038  18.507  16.511 -0.0394 -0.1896 -0.2555
58369W        W 1281  13.467  19.087  19.668  0.0220 -0.1446 -0.3048
58370W        W 1282  13.830  18.572  15.623 -0.0521  0.1267  0.1298
58371W        W 1283  11.275  15.482  17.869 -0.1455  0.1300  0.1009
58372W        W 1284  12.770  14.693  16.272  0.2345  0.4521  0.4249
58373W        W 1285  12.117  18.903  16.921  0.4324 -0.0890  0.0250
58374W        W 1286  11.475  17.426  19.759  0.0011 -0.0230  0.2722
58375W        W 1287  12.390  15.382  16.585  0.1805  0.1072 -0.0807
58376W        W 1288  14.332  19.166  15.953  0.3580  0.3549 -0.1100
58377W        W 1289  13.213  16.601  18.915 -0.1421  0.1863  0.0526
58378W        W 1290  10.515  16.063  18.406  0.1615  0.2271  0.0227
58379W        W 1291  12.976  14.269  19.113  0.1860  0.0279  0.1155
58380W        W 1292  13.275  17.099  18.580 -0.0943 -0.0252 -0.1161
58381W        W 1293  12.795  16.570  17.942  0.0372 -0.0081  0.0188
58382W        W 1294  10.815  14.391  15.925  0.2102  0.1994 -0.0665
58383W        W 1295  12.567  18.500  16.375 -0.1518 -0.0980 -0.2560
58384W        W 1296  12.267  17.949  16.568  0.2903  0.4242  0.1412
58385W        W 1297  10.707  16.539  16.276  0.0529 -0.0306  0.1335
58386W        W 1298  12.442  17.515  17.173 -0.1389 -0.1188 -0.0023
58387W        W 1299  13.271  15.382  18.170 -0.0935 -0.0831  0.0703
58388W        W 1300  10.445  18.151  18.267  0.3562  0.1678 -0.0225
58389W        W 1301  12.306  17.338  18.660  0.0091  0.0731 -0.1278
58390W        W 1302  12.154  17.512  16.256 -0.0222  0.2424 -0.2794
58391W        W 1303  10.782  17.735  17.592  0.0870 -0.1016  0.2925
58392W        W 1304  13.818  13.314  16.951 -0.0225 -0.0673 -0.1312
58393W        W 1305  14.664  15.485  15.565  0.0246 -0.0672  0.2070
58394W        W 1306  12.589  17.717  18.118  0.1215  0.2093  0.2403
58395W        W 1307  14.968  18.274  15.665  0.1019  0.1648 -0.1674
58396W        W 1308  13.772  14.846  15.285 -0.1581 -0.0778  0.0086
58397W        W 1309  13.731  15.202  16.825 -0.0265  0.0193  0.3132
58398W        W 1310  12.109  17.431  19.483 -0.0489  0.4632 -0.0972
58399W        W 1311  13.488  17.782  17.855 -0.2852  0.3195 -0.0949
58400W        W 1312  12.067  18.049  19.575  0.2171 -0.0297 -0.0675
58401W        W 1313  13.547  15.000  16.096  0.2028  0.1553  0.3541
58402W        W 1314  14.071  16.520  16.637 -0.1087 -0.1133  0.0701
58403W        W 1315   9.472  16.592  16.596  0.0111  0.1913  0.3953
58404W        W 1316  10.940  16.766  19.523  0.2424 -0.0299  0.0115
58405W        W 1317  14.059  17.070  16.769 -0.3723  0.2131  0.1863
58406W        W 1318  12.380  13.025  16.280  0.2757  0.1331  0.0995
58407W        W 1319  12.851  15.126  16.452  0.0399  0.2680  0.4408
58408W        W 1320  14.483  13.765  17.227 -0.0330  0.1222 -0.3979
58409W        W 1321  11.998  18.094  15.429  0.3275  0.1162  0.0953
58410W        W 1322  13.749  15.307  17.986 -0.0658  0.2348  0.2092
58411W        W 1323  12.448  13.871  16.496  0.1570 -0.2652  0.2515
58412W        W 1324  12.041  15.853  18.056 -0.0461  0.2605 -0.3850
58413W        W 1325  13.812  15.645  18.458  0.4582 -0.2083  0.2004
58414W        W 1326  13.714  15.511  15.342 -0.2791 -0.2726  0.2944
58415W        W 1327  12.673  16.854  18.289  0.0965  0.0008 -0.0333
58416W        W 1328  11.575  16.777  16.186  0.4693 -0.2301  0.0271
58417W        W 1329  12.893  14.639  18.732 -0.0655  0.2103 -0.4232
58418W        W 1330  10.513  16.795  16.700 -0.0348  0.1875  0.0664
58419W        W 1331  11.494  18.249  18.586  0.0219  0.0558  0.0124
58420W        W 1332  13.646  17.907  18.512  0.4247  0.1989 -0.1585
58421W        W 1333  13.220  16.366  16.761 -0.1844 -0.0143 -0.0972
58422W        W 1334  11.459  13.550  19.920  0.0221  0.0830  0.0678
58423W        W 1335  12.864  15.636  16.299  0.0563  0.1940  0.2930
58424W        W 1336  12.470  19.142  17.308 -0.1904 -0.0938  0.0574
58425W        W 1337  12.860  17.121  14.961  0.1332 -0.0485 -0.0097
58426W        W 1338  11.163  15.135  17.472 -0.1269  0.2514  0.0382
58427W        W 1339  12.113  18.605  18.720  0.0603 -0.2411 -0.4036
58428W        W 1340  14.654  14.943  14.800  0.1101 -0.1600  0.2423
58429W        W 1341  12.956  17.567  17.324 -0.3537  0.0866 -0.0551
58430W        W 1342  13.052  17.059  15.785 -0.1037  0.0256  0.1855
58431W        W 1343  12.331  14.960  18.101  0.2209 -0.0326  0.0480
58432W        W 1344  10.171  17.428  18.558 -0.1011  0.1571  0.0267
58433W        W 1345  13.144  14.747  15.928 -0.1997 -0.0348 -0.1437
58434W        W 1346  11.330  16.119  15.775  0.2669 -0.1416 -0.2252
58435W        W 1347  12.437  14.713  17.133  0.1723 -0.0024  0.0452
58436W        W 1348  12.879  16.369  15.962  0.0127 -0.2854  0.0680
58437W        W 1349  10.523  14.921  18.276  0.0795 -0.0062  0.0208
58438W        W 1350  13.458  14.209  16.687  0.1218 -0.0496 -0.0325
58439W        W 1351   9.908  19.758  16.122 -0.2808  0.0286 -0.0627
58440W        W 1352  12.356  16.860  17.877 -0.1817  0.2611 -0.0556
58441W        W 1353  12.880  14.772  16.822 -0.0543 -0.1591  0.4398
58442W        W 1354  13.317  17.494  16.946 -0.1746  0.1077 -0.0871
58443W        W 1355  10.944  17.306  18.994 -0.2492 -0.0345  0.0515
58444W        W 1356  10.971  15.633  15.596 -0.0395  0.0443  0.1551
58445W        W 1357  12.325  15.433  17.822 -0.1255  0.0065  0.2071
58446W        W 1358  11.440  14.692  17.530 -0.0729  0.0719  0.0843
58447W        W 1359  11.656  18.093  17.658 -0.0773  0.3466 -0.0091
58448W        W 1360  12.938  18.337  17.343 -0.1105 -0.3150 -0.1969
58449W        W 1361  12.433  15.851  16.338  0.3786 -0.3133  0.4010
58450W        W 1362  11.398  16.380  18.255  0.1533  0.2124  0.0717
58451W        W 1363  10.717  16.217  16.670  0.1991  0.5005  0.1668
58452W        W 1364  12.273  16.605  18.963 -0.1085 -0.0511 -0.1336
58453W        W 1365  12.351  16.360  18.334  0.3223  0.0663 -0.1924
58454W        W 1366  11.506  15.750  16.282 -0.1035 -0.1214 -0.1697
58455W        W 1367  11.997  14.919  17.760 -0.0022 -0.3056  0.0759
58456W        W 1368  13.223  16.645  17.663 -0.0768 -0.2363  0.1203
58457W        W 1369  11.782  16.645  17.907  0.1651  0.0675  0.1242
58458W        W 1370  11.673  17.573  19.335  0.0850 -0.1692 -0.2166
58459W        W 1371  12.032  13.596  17.282  0.0200  0.0506  0.1203
58460W        W 1372  13.944  19.051  15.605  0.0541  0.2123  0.0545
58461W        W 1373  12.072  15.793  19.513  0.2966 -0.1309 -0.2239
58462W        W 1374  11.206  16.580  15.908  0.1541  0.0218  0.0451
58463W        W 1375  10.701  17.334  17.962  0.0944  0.1760 -0.0828
58464W        W 1376  11.707  18.654  17.254 -0.1774 -0.2007 -0.0486
58465W        W 1377  12.232  14.480  17.879 -0.0509 -0.2002 -0.0017
58466W        W 1378  12.163  16.922  19.355 -0.0484  0.2646  0.2665
58467W        W 1379  12.193  17.066  16.818  0.0134 -0.0407  0.1605
58468W        W 1380  10.975  16.765  16.717 -0.0115 -0.0086  0.0066
58469W        W 1381  14.332  14.683  15.312 -0.0279  0.0657 -0.2175
58470W        W 1382  13.753  17.290  16.078  0.0490  0.0411 -0.3053
58471W        W 1383  12.583  15.813  17.502 -0.0901  0.2127  0.3916
58472W        W 1384  13.034  13.862  17.640 -0.2132 -0.0395 -0.1244
58473W        W 1385  13.974  16.885  16.326  0.3462  0.0846 -0.1285
58474W        W 1386  11.640  13.718  18.754  0.2096  0.0042 -0.0874
58475W        W 1387  11.431  13.784  18.314  0.0487 -0.2081 -0.0661
58476W        W 1388  13.426  16.812  15.989  0.1740  0.0766  0.1149
58477W        W 1389  11.414  15.956  18.597  0.2079  0.1874  0.1651
58478W        W 1390  12.042  17.802  20.415 -0.0931  0.0819  0.1538
58479W        W 1391  11.153  17.030  18.610  0.6214  0.0602  0.0577
58480W        W 1392  13.376  14.355  16.029 -0.2971  0.3857 -0.3071
58481W        W 1393  11.832  15.985  17.077 -0.0814 -0.0061 -0.0489
58482W        W 1394  10.820  17.405  18.460 -0.1419  0.2383  0.0136
58483W        W 1395  13.437  17.484  18.276  0.0530  0.1086  0.0090
58484W        W 1396  12.681  16.998  16.122  0.1712 -0.1950  0.2306
58485W        W 1397  13.044  15.744  17.914  0.0680 -0.0078  0.0338
58486W        W 1398  11.858  17.703  17.961 -0.2534 -0.0395 -0.2699
58487W        W 1399  12.949  17.052  17.330 -0.1376 -0.2180  0.3405
58488W        W 1400  13.161  16.906  16.835 -0.4350  0.1452  0.1976
58489W        W 1401  12.248  15.653  17.041 -0.0091 -0.0525 -0.2366
58490W        W 1402  10.661  15.656  19.135 -0.2031  0.2939 -0.1129
58491W        W 1403  12.854  17.963  17.701 -0.0642  0.1645  0.4127
58492W        W 1404  12.907  16.259  17.571 -0.1543 -0.0938  0.0186
58493W        W 1405  12.686  14.907  19.117 -0.0137  0.0534  0.0338
58494W        W 1406  11.026  16.758  18.206 -0.2139 -0.1923  0.2054
58495W        W 1407  11.919  16.520  19.656  0.0711  0.1278  0.2663
58496W        W 1408  10.161  15.657  18.800  0.0047 -0.2222 -0.0397
58497W        W 1409  12.799  18.084  18.551  0.0896 -0.0301 -0.3412
58498W        W 1410  12.247  15.667  15.702 -0.1158  0.1654 -0.0088
58499W        W 1411  11.886  16.148  19.950  0.0215  0.1756 -0.1476
58500W        W 1412  14.273  17.131  15.986 -0.4757 -0.3437 -0.5731
58501W        W 1413  12.628  15.843  16.768  0.2727  0.0186 -0.0126
58502W        W 1414  12.107  17.784  17.553  0.0501 -0.1278  0.3996
58503W        W 1415  12.490  16.147  18.904 -0.0540 -0.4176  0.1275
58504W        W 1416  11.995  15.140  16.312 -0.0577  0.1169 -0.2523
58505W        W 1417  11.532  15.694  19.610  0.2153 -0.1351  0.1451
58506W        W 1418  12.914  16.118  16.399 -0.2162 -0.1904 -0.0257
58507W        W 1419  14.203  17.253  18.859 -0.0869  0.2521 -0.2376
58508W        W 1420  13.066  15.311  15.963 -0.0532  0.1532  0.1505
58509W        W 1421  10.776  14.450  18.082  0.1565  0.3197  0.1750
58510W        W 1422  10.907  18.516  17.998 -0.2632  0.1635  0.0028
58511W        W 1423  13.229  15.865  16.649  0.1477 -0.1308  0.1381
58512W        W 1424  12.216  16.971  16.317  0.0293  0.1973 -0.1245
58513W        W 1425  12.697  16.881  18.848 -0.2544 -0.1710 -0.0302
58514W        W 1426  13.448  17.174  19.407  0.1979 -0.3797 -0.0018
58515W        W 1427  12.852  14.127  15.821 -0.4685  0.0765 -0.0736
58516W        W 1428  11.826  16.595  19.155 -0.1814 -0.1804  0.0311
58517W        W 1429  11.660  17.217  16.481  0.4152  0.0879  0.0333
58518W        W 1430  13.623  13.928  17.628  0.2462  0.2167  0.0392
58519W        W 1431  11.738  19.187  18.555  0.0063 -0.3279  0.1555
58520W        W 1432  11.091  18.092  17.747 -0.1497 -0.0470 -0.1880
58521W        W 1433  11.061  18.250  16.469  0.1173 -0.0325  0.3393
58522W        W 1434  12.644  12.979  19.439 -0.0448  0.3821  0.0722
58523W        W 1435  13.673  16.926  18.402 -0.1037  0.2151 -0.1633
58524W        W 1436  13.886  16.206  17.856 -0.0143 -0.0033 -0.0045
58525W        W 1437  13.447  15.051  17.330 -0.3657  0.2604 -0.2431
58526W        W 1438  11.163  17.205  19.398  0.0370  0.0158 -0.2086
58527W        W 1439  11.916  15.549  16.090  0.0629 -0.1837  0.0531
58528W        W 1440  11.984  18.358  19.156 -0.1334 -0.2547  0.1334
58529W        W 1441  15.209  17.686  16.401  0.0479  0.1540 -0.2639
58530W        W 1442  12.538  17.468  17.661 -0.1926 -0.0058  0.0425
58531W        W 1443   9.679  15.019  17.097  0.1061 -0.0274  0.0454
58532W        W 1444  11.350  16.835  19.054 -0.5061 -0.0491 -0.2121
58533W        W 1445  13.283  15.631  18.715  0.2552  0.2349  0.0936
58534W        W 1446  12.603  13.635  15.607 -0.2299  0.0222  0.2008
58535W        W 1447  13.915  16.718  14.947  0.0465 -0.0299 -0.1238
58536W        W 1448  11.748  17.741  18.522  0.0571  0.2219 -0.0464
58537W        W 1449   9.767  16.719  18.064 -0.0286 -0.0964  0.0905
58538W        W 1450  10.952  18.982  17.619  0.2355 -0.1864 -0.0569
58539W        W 1451  13.376  15.439  16.336  0.0346  0.2781  0.1448
58540W        W 1452  13.094  16.553  17.183 -0.2660 -0.0594  0.2355
58541W        W 1453  12.432  18.049  17.245 -0.3894  0.0419  0.2659
58542W        W 1454  13.339  14.565  15.430 -0.1189 -0.2715 -0.1361
58543W        W 1455   9.403  18.955  17.054  0.0290  0.2899 -0.1509
58544W        W 1456  11.261  17.546  16.399 -0.0213 -0.1173 -0.1581
58545W        W 1457  12.760  17.856  16.875 -0.2184 -0.0289 -0.2835
58546W        W 1458  11.208  17.652  15.781 -0.1306 -0.1569  0.1181
58547W        W 1459  13.467  17.856  19.101 -0.1072 -0.2059  0.0362
58548W        W 1460  13.956  14.374  15.451  0.1885  0.4117  0.0812
58549W        W 1461  13.640  15.832  16.204  0.0727  0.1872 -0.1085
58550W        W 1462  13.199  16.921  15.263 -0.0372  0.1627 -0.0761
58551W        W 1463  12.010  17.053  19.868 -0.2279  0.0695  0.1147
58552W        W 1464  12.570  15.889  17.976 -0.3679 -0.0300 -0.1730
58553W        W 1465  12.355  14.154  15.711 -0.1197  0.0620  0.1205
58554W        W 1466  10.135  16.743  18.419 -0.1108  0.2200  0.3444
58555W        W 1467  12.857  14.535  19.580  0.3838  0.2008  0.1921
58556W        W 1468   9.999  18.292  18.482  0.0166  0.2458  0.2957
58557W        W 1469  15.766  18.467  16.541  0.0319  0.1188 -0.4037
58558W        W 1470  12.255  16.170  15.838 -0.1841 -0.0723  0.2929
58559W        W 1471  11.301  16.487  17.560  0.4063 -0.0075  0.0239
58560W        W 1472  13.028  14.891  18.223 -0.2211  0.0188 -0.0285
58561W        W 1473  13.354  16.288  16.191  0.0933  0.2312  0.1344
58562W        W 1474  12.499  16.624  15.800  0.0892 -0.1999  0.0903
58563W        W 1475  12.831  19.377  17.086  0.1414  0.3461 -0.1544
58564W        W 1476  12.027  18.902  17.527 -0.1052 -0.3238  0.0959
58565W        W 1477  11.568  17.398  18.903  0.0681 -0.3132 -0.0249
58566W        W 1478  10.791  14.877  16.206 -0.0509 -0.1987 -0.1699
58567W        W 1479  14.406  15.305  16.084 -0.0763  0.1699 -0.1654
58568W        W 1480  11.444  15.245  18.902 -0.0394  0.2906  0.4402
58569W        W 1481  13.279  16.038  18.381  0.0552 -0.2124 -0.0783
58570W        W 1482  11.322  16.073  17.015 -0.3098  0.1108 -0.0492
58571W        W 1483  12.999  15.576  17.365  0.0747 -0.1991  0.2568
58572W        W 1484  13.491  16.014  17.025 -0.0138  0.0874  0.0899
58573W        W 1485  11.425  17.031  17.830  0.2105 -0.1434 -0.1241
58574W        W 1486  11.260  15.243  16.597  0.0261 -0.2293  0.0162
58575W        W 1487  13.597  17.295  18.875  0.1138  0.1721  0.0324
58576W        W 1488  13.514  15.441  15.837 -0.3572 -0.2345 -0.3733
58577W        W 1489  12.804  17.613  21.084 -0.1467  0.1628  0.3495
58578W        W 1490  10.412  14.932  16.634  0.0281  0.0237 -0.3314
58579W        W 1491  13.862  16.054  15.277 -0.1536  0.0224 -0.1867
58580W        W 1492  11.552  15.603  16.852  0.1848 -0.2669  0.0401
58581W        W 1493  11.101  16.528  18.713  0.3066  0.2559  0.2689
58582W        W 1494  11.685  17.236  20.344 -0.4796  0.0300  0.1323
58583W        W 1495   9.378  15.025  16.649  0.2400  0.1089  0.1061
58584W        W 1496  12.966  17.394  15.421  0.0763  0.2562 -0.0332
58585W        W 1497  13.668  17.204  17.968 -0.1396  0.4805  0.0712
58586W        W 1498  11.327  19.495  16.930  0.1158 -0.2109  0.0776
58587W        W 1499  14.100  18.155  15.456 -0.0980 -0.0024 -0.1642
58588W        W 1500  13.274  17.948  17.426  0.0701 -0.0798  0.2564
58589W        W 1501  11.368  14.873  16.989  0.0084 -0.1260 -0.0232
58590W        W 1502  12.482  18.582  17.232 -0.1749 -0.0199  0.0352
58591W        W 1503  14.662  17.829  17.116  0.0937  0.2354  0.1644
58592W        W 1504  12.703  14.041  15.312 -0.1686 -0.0458  0.0775
58593W        W 1505  11.621  14.659  18.070 -0.1670  0.0845  0.1552
58594W        W 1506  10.866  18.098  17.240 -0.5137  0.1930  0.2695
58595W        W 1507  13.972  16.217  17.052  0.0976 -0.1272  0.1137
58596W        W 1508  11.863  15.436  19.251  0.5588  0.0349  0.1060
58597W        W 1509  12.633  16.273  15.485 -0.2175 -0.0119 -0.1407
58598W        W 1510  14.276  14.207  17.924 -0.0714  0.0163  0.0717
58599W        W 1511  11.955  17.087  18.979 -0.2671  0.4106  0.0573
58600W        W 1512  11.097  17.848  19.838 -0.1056 -0.1430  0.3213
58601W        W 1513  11.989  19.920  16.603 -0.1653  0.0423  0.2093
58602W        W 1514  11.861  16.187  18.330  0.3857  0.3115 -0.0350
58603W        W 1515  11.767  16.930  17.448  0.1319  0.2199 -0.1594
58604W        W 1516  11.920  17.580  16.650 -0.2392  0.2317  0.0938
58605W        W 1517  14.492  17.691  17.652  0.1133  0.2430  0.0431
58606W        W 1518  12.318  16.209  17.264 -0.2683 -0.2223  0.2766
58607W        W 1519  14.433  16.765  16.983  0.1129  0.0107  0.2082
58608W        W 1520  11.795  16.336  17.530  0.1441  0.0987 -0.0084
58609W        W 1521  14.476  14.086  15.851  0.0795  0.0988  0.0065
58610W        W 1522  15.314  14.659  15.323 -0.2691  0.2524 -0.3428
58611W        W 1523  12.436  17.232  18.162  0.2522 -0.0471 -0.4867
58612W        W 1524  11.702  17.820  15.783 -0.1198  0.0674 -0.1000
58613W        W 1525  10.761  17.696  16.441 -0.0508 -0.1199  0.1130
58614W        W 1526  12.779  17.086  17.833 -0.3563  0.0080  0.3014
58615W        W 1527  12.019  13.947  19.321  0.0341  0.2646 -0.0279
58616W        W 1528  12.820  16.431  18.561 -0.0964 -0.1312 -0.0501
58617W        W 1529  11.399  16.426  16.660  0.2519  0.0597 -0.0103
58618W        W 1530  11.089  16.230  16.341  0.2132 -0.0883 -0.2927
58619W        W 1531  15.063  17.786  15.587  0.0242 -0.3535  0.1145
58620W        W 1532  12.202  16.185  16.740  0.1860 -0.0265 -0.1037
58621W        W 1533  10.817  14.280  18.595 -0.2557 -0.0942  0.0997
58622W        W 1534  13.380  18.632  17.277  0.0784 -0.2894 -0.1662
58623W        W 1535  13.264  19.000  16.048  0.0016 -0.1629 -0.0680
58624W        W 1536  13.422  13.863  16.269  0.2949  0.0181 -0.2580
58625W        W 1537  12.194  18.985  18.377 -0.3299 -0.0988  0.0097
58626W        W 1538  10.831  17.471  16.036  0.1492 -0.0646 -0.0914
58627W        W 1539  10.794  16.789  19.029  0.2988  0.1753 -0.1211
58628W        W 1540  12.242  13.834  18.855 -0.2058  0.1762 -0.4287
58629W        W 1541  12.008  15.723  16.601 -0.0478 -0.3349 -0.0068
58630W        W 1542  12.162  16.825  18.529 -0.4739 -0.0281 -0.0983
58631W        W 1543  12.843  18.013  16.420 -0.1529  0.5875  0.2968
58632W        W 1544  13.972  17.891  15.911 -0.1814  0.0165 -0.0662
58633W        W 1545  12.071  17.286  17.788  0.1702 -0.1931  0.1794
58634W        W 1546  11.113  18.629  18.559 -0.1619 -0.1310 -0.1111
58635W        W 1547  10.976  14.775  18.541 -0.4272 -0.2513 -0.0988
58636W        W 1548  13.051  16.601  15.612 -0.3088 -0.3325  0.0692
58637W        W 1549  12.342  16.921  20.520 -0.0649  0.1315 -0.2135
58638W        W 1550  12.698  15.861  15.842 -0.1166 -0.0702  0.1997
58639W        W 1551  13.529  15.778  19.197 -0.1076 -0.2714  0.0882
58640W        W 1552  14.015  15.559  15.765 -0.0664  0.0443 -0.0184
58641W        W 1553  11.470  14.813  19.191 -0.0434 -0.3029 -0.0803
58642W        W 1554  10.483  16.907  18.120  0.0153 -0.1329 -0.0363
58643W        W 1555  14.159  18.383  18.617  0.2531  0.0658 -0.0789
58644W        W 1556  11.986  13.827  16.713 -0.0652 -0.0711 -0.0096
58645W        W 1557  12.972  14.845  17.300  0.0010 -0.1925  0.1394
58646W        W 1558  12.191  17.670  15.774 -0.1289  0.5295 -0.2523
58647W        W 1559  11.622  17.956  16.576  0.3008 -0.2888  0.0951
58648W        W 1560  12.669  15.152  17.038 -0.1330  0.0493  0.2172
58649W        W 1561  11.630  15.778  19.008  0.1114  0.0553 -0.2558
58650W        W 1562  13.671  16.879  15.366 -0.2234  0.0328 -0.1144
58651W        W 1563  11.163  17.475  17.781 -0.1422 -0.3396 -0.0422
58652W        W 1564  12.975  16.049  17.090 -0.1429 -0.2758 -0.0406
58653W        W 1565  14.701  16.658  15.480  0.1817 -0.2808 -0.1063
58654W        W 1566  11.639  18.498  19.606 -0.1481 -0.1011  0.0290
58655W        W 1567  12.028  17.643  19.920  0.0700  0.1428 -0.0123
58656W        W 1568  11.315  18.560  17.596  0.1504 -0.2706 -0.1222
58657W        W 1569  13.468  16.169  18.806  0.3048 -0.0503  0.0297
58658W        W 1570  11.888  15.112  18.291 -0.1597  0.3687  0.2281
58659W        W 1571  11.270  17.832  17.352 -0.0188  0.0054  0.0371
58660W        W 1572  12.643  16.952  16.643  0.2211  0.0192  0.2818
58661W        W 1573  12.743  15.960  18.466 -0.1603 -0.1033  0.0270
58662W        W 1574  10.879  14.840  16.708 -0.0440  0.2003  0.1134
58663W        W 1575  14.693  15.647  16.411  0.0356  0.3955 -0.1350
58664W        W 1576  11.263  19.917  18.564  0.2816  0.0230 -0.1143
58665W        W 1577  13.154  17.905  18.275 -0.0280  0.0996  0.0349
58666W        W 1578  10.659  16.551  21.633  0.3810  0.0241  0.0348
58667W        W 1579  10.425  16.285  20.550  0.0863  0.1180  0.0499
58668W        W 1580  12.297  15.309  19.003 -0.1653  0.1422  0.0408
58669W        W 1581  12.531  17.639  19.649  0.0342 -0.1251 -0.0769
58670W        W 1582  10.509  14.575  21.226  0.0076  0.0719 -0.1903
58671W        W 1583  11.500  17.730  20.147 -0.5374  0.0509  0.0347
58672W        W 1584  11.382  15.241  21.857 -0.0889  0.0513 -0.0067
58673W        W 1585  11.699  16.712  22.272  0.4174  0.1074 -0.0450
58674W        W 1586  13.389  17.678  20.594 -0.0219 -0.2256  0.0985
58675W        W 1587  13.029  15.514  19.232  0.0922 -0.0565  0.3029
58676W        W 1588  11.927  15.743  23.396 -0.3337  0.4281  0.0790
58677W        W 1589  12.012  16.951  23.041  0.2072  0.2986  0.1081
58678W        W 1590  12.201  16.527  20.194  0.1096 -0.0374  0.1097
58679W        W 1591  10.796  14.843  21.633 -0.1083  0.1853  0.0248
58680W        W 1592  13.503  16.972  20.872 -0.1116  0.0577 -0.2890
58681W        W 1593   9.913  17.248  20.843  0.2401  0.0908  0.0362
58682W        W 1594  11.919  16.131  21.934  0.0412 -0.0176  0.1244
58683W        W 1595  12.164  15.607  20.934 -0.0181 -0.0111  0.2906
58684W        W 1596  10.427  17.028  20.870  0.1403 -0.1405  0.0995
58685W        W 1597  12.780  14.885  21.497  0.0198  0.1174  0.1308
58686W        W 1598  12.933  13.960  23.610  0.0989  0.1102  0.1455
58687W        W 1599  10.449  16.555  20.986  0.4048  0.1961 -0.0124
58688W        W 1600   9.150  15.378  18.964 -0.1505  0.0073 -0.1125
58689W        W 1601   9.832  14.973  21.303 -0.0183  0.2045  0.1217
58690W        W 1602  11.351  15.778  22.597  0.0013  0.0494  0.0895
58691W        W 1603  11.095  14.870  20.572 -0.3005  0.2939  0.0454
58692W        W 1604  12.130  16.060  20.429  0.0289  0.1980  0.1490
58693W        W 1605  11.161  18.002  21.573 -0.1829 -0.1372 -0.2155
58694W        W 1606  12.645  16.818  21.170 -0.0983 -0.1128  0.0299
58695W        W 1607  13.108  16.083  22.430  0.1770 -0.1076 -0.1341
58696W        W 1608   9.955  16.322  20.199  0.3212  0.0519  0.1622
58697W        W 1609   9.253  17.763  22.013  0.0662  0.1002  0.0993
58698W        W 1610   9.813  17.771  20.452  0.1224 -0.1331  0.0886
58699W        W 1611  14.063  16.968  20.037 -0.1250 -0.1166  0.2019
58700W        W 1612  12.536  17.675  21.666  0.0551  0.2623  0.4361
58701W        W 1613  11.621  18.336  23.038  0.0962  0.0923 -0.1653
58702W        W 1614  10.216  17.529  19.089  0.1733 -0.0806 -0.0439
58703W        W 1615  12.157  16.931  22.408 -0.0871 -0.1702 -0.0552
58704W        W 1616  12.994  18.181  23.128  0.3854  0.0261  0.0739
58705W        W 1617  11.769  17.245  22.659  0.1939  0.1028 -0.1422
58706W        W 1618  11.519  16.905  21.340 -0.1049  0.1929  0.0839
58707W        W 1619  10.329  18.651  20.838  0.0276 -0.1946  0.0741
58708W        W 1620  12.565  15.405  21.186 -0.3043 -0.0186  0.1759
58709W        W 1621  12.713  16.811  22.705  0.0378 -0.2839 -0.0758
58710W        W 1622  10.548  17.572  23.287 -0.0752  0.0841 -0.0154
58711W        W 1623  13.496  15.408  21.872  0.0585  0.2445  0.0495
58712W        W 1624  11.818  18.118  20.057  0.2954 -0.4681  0.2629
58713W        W 1625  11.513  16.865  18.306 -0.1227 -0.1409  0.0692
58714W        W 1626  11.987  14.842  19.236 -0.3097  0.2299  0.2372
58715W        W 1627  13.318  15.349  19.573 -0.2939 -0.0145 -0.0313
58716W        W 1628  11.981  14.965  18.765 -0.2961  0.1862  0.3682
58717W        W 1629  11.327  18.373  21.903  0.0318 -0.0018  0.1530
58718W        W 1630  12.094  14.145  21.120  0.1608  0.1331 -0.1659
58719W        W 1631  12.853  17.264  21.787 -0.1045 -0.0131 -0.1620
58720W        W 1632  12.945  16.855  20.756  0.0414  0.1935 -0.1811
58721W        W 1633  12.004  14.783  21.124 -0.2498  0.0877  0.0081
58722W        W 1634  10.112  16.867  20.555  0.0038  0.4914 -0.0942
58723W        W 1635  10.073  15.906  21.672  0.0715 -0.1665 -0.2944
58724W        W 1636  12.891  17.508  20.419  0.3654 -0.1107  0.3034
58725W        W 1637  12.521  18.886  20.571 -0.0508  0.0802  0.3452
58726W        W 1638  11.205  17.727  18.603  0.2979 -0.0914 -0.2884
58727W        W 1639   9.537  16.189  18.889 -0.0975  0.0255 -0.1050
58728W        W 1640  10.204  17.214  22.125 -0.3245  0.2987  0.2432
58729W        W 1641  11.156  16.785  22.299 -0.3650  0.1873 -0.0371
58730W        W 1642  10.491  14.815  19.341 -0.0624 -0.2058  0.3967
58731W        W 1643  13.428  17.201  21.713 -0.4180 -0.2810 -0.0254
58732W        W 1644  11.033  17.472  23.153  0.1855  0.0309 -0.0455
58733W        W 1645  13.289  14.486  20.641 -0.0334 -0.0738  0.0931
58734W        W 1646   9.717  15.821  19.595 -0.0441  0.0530  0.3263
58735W        W 1647  12.567  17.205  20.819  0.2312  0.4098 -0.2287
58736W        W 1648  13.373  16.216  17.917  0.4518  0.2905 -0.0969
58737W        W 1649  13.123  14.870  22.084  0.2051 -0.0016  0.2361
58738W        W 1650  13.938  14.218  21.514 -0.0428  0.1703 -0.0728
58739W        W 1651  10.318  16.735  19.226 -0.1444  0.3758  0.1372
58740W        W 1652  10.487  16.487  19.637 -0.0355  0.1263 -0.1650
58741W        W 1653  13.433  16.293  21.986  0.3303  0.0504  0.1319
58742W        W 1654  12.118  17.347  20.673 -0.0712  0.0275 -0.1638
58743W        W 1655   9.798  18.055  21.862  0.1024  0.2525  0.1065
58744W        W 1656  11.587  14.745  23.162 -0.0311  0.0279 -0.0506
58745W        W 1657  11.552  17.312  23.890 -0.5974  0.0978 -0.3970
58746W        W 1658  11.249  18.880  18.156  0.1013 -0.2461 -0.2228
58747W        W 1659   8.991  16.947  22.046  0.0615  0.0548  0.1878
58748W        W 1660   9.750  16.641  19.064 -0.0686 -0.0229 -0.1197
58749W        W 1661  11.777  15.708  21.788  0.3487 -0.0887  0.0848
58750W        W 1662   8.987  16.452  22.256  0.1017 -0.1425  0.0207
58751W        W 1663  12.456  15.344  19.462 -0.1353  0.1100  0.3061
58752W        W 1664  11.400  15.744  23.222 -0.1506 -0.0817 -0.2080
58753W        W 1665  12.513  15.477  19.988 -0.2845 -0.1201 -0.0799
58754W        W 1666  11.025  15.821  19.876 -0.0214  0.1063  0.0883
58755W        W 1667  13.841  18.372  20.352  0.0456 -0.0699 -0.0176
58756W        W 1668  11.701  13.270  17.559  0.1631 -0.0697 -0.1754
58757W        W 1669  12.523  17.429  19.176 -0.1227 -0.1161  0.0297
58758W        W 1670   9.956  15.941  22.257 -0.0180 -0.1676  0.1803
58759W        W 1671  11.036  15.667  21.009  0.0489 -0.4001  0.1021
58760W        W 1672  11.399  14.391  23.576 -0.3440 -0.1315  0.3576
58761W        W 1673  10.877  15.274  21.966  0.0926  0.1076 -0.1546
58762W        W 1674  13.706  15.860  20.541  0.2012 -0.2119  0.3182
58763W        W 1675  10.989  13.846  20.389 -0.0233  0.1983  0.0380
58764W        W 1676  13.478  17.324  21.225  0.1058  0.1321 -0.2776
58765W        W 1677  10.661  15.208  20.447  0.2008  0.2185  0.1927
58766W        W 1678   9.328  15.596  19.832  0.0792 -0.0151  0.2389
58767W        W 1679  13.497  16.366  21.484  0.2187  0.3383  0.2234
58768W        W 1680  11.664  17.665  20.737 -0.0315 -0.3094 -0.1340
58769W        W 1681  14.127  17.136  20.903 -0.0589 -0.1893 -0.1323
58770W        W 1682  13.810  17.894  21.130  0.2295  0.0994 -0.1257
58771W        W 1683  12.259  15.796  21.783  0.2848 -0.1456 -0.3381
58772W        W 1684  11.383  16.274  19.005  0.1196  0.0753  0.0093
58773W        W 1685  10.488  17.767  20.079  0.0201  0.1365 -0.0231
58774W        W 1686  12.082  18.644  21.497  0.3662 -0.1736 -0.0359
58775W        W 1687  11.286  14.237  18.835  0.2392  0.1132  0.2766
58776W        W 1688  11.512  16.920  21.832 -0.0757  0.0380  0.1167
58777W        W 1689  11.944  16.071  20.875  0.3239 -0.2648 -0.1629
58778W        W 1690  10.652  17.202  23.002  0.1409 -0.0792 -0.2109
58779W        W 1691  12.734  15.765  21.606 -0.3431 -0.0204  0.0938
58780W        W 1692  11.170  16.564  21.473 -0.2214 -0.3005 -0.0266
58781W        W 1693  12.518  16.000  20.744  0.3208  0.1369  0.0299
58782W        W 1694  11.033  15.355  19.486  0.0453  0.1475  0.2466
58783W        W 1695  11.350  17.678  22.445  0.0120  0.0576 -0.1798
58784W        W 1696   9.624  17.358  19.281 -0.2524  0.1210  0.1503
58785W        W 1697  10.039  17.187  19.489 -0.0069 -0.2590 -0.2610
58786W        W 1698  10.702  18.341  20.934  0.1357 -0.2180  0.1297
58787W        W 1699  13.019  14.769  20.130  0.0974 -0.0662  0.1267
58788W        W 1700  10.423  16.114  21.988  0.2980 -0.2990 -0.1291
58789W        W 1701  11.362  16.374  21.982  0.0762 -0.0717  0.2866
58790W        W 1702   9.223  15.971  20.183  0.3380 -0.0239  0.2093
58791W        W 1703  10.659  18.119  21.708 -0.2261 -0.1905 -0.2068
58792W        W 1704  13.107  15.030  20.629  0.0384  0.0117 -0.3948
58793W        W 1705  12.708  14.718  17.752 -0.1300 -0.0301 -0.0783
58794W        W 1706  11.530  16.807  22.749  0.3231 -0.0604 -0.0634
58795W        W 1707  12.383  18.135  17.876 -0.2056  0.1404  0.1471
58796W        W 1708  11.964  14.582  20.493 -0.2509 -0.0947 -0.1041
58797W        W 1709  12.767  14.915  21.008  0.0279  0.2098  0.0788
58798W        W 1710  11.118  17.977  22.133  0.0774  0.2215 -0.0810
58799W        W 1711  10.588  16.034  20.132 -0.1703 -0.1815  0.2690
58800W        W 1712  10.982  16.104  21.791 -0.2500 -0.1471  0.1754
58801W        W 1713  10.882  16.352  19.268 -0.2330 -0.1576  0.1597
58802W        W 1714  12.971  17.384  19.518  0.1175  0.3130 -0.0588
58803W        W 1715  10.289  16.663  22.055  0.0733  0.1182  0.1472
58804W        W 1716  12.459  17.274  22.773 -0.0889 -0.0572 -0.0556
58805W        W 1717  13.006  17.196  21.336  0.0702 -0.1462  0.0180
58806W        W 1718  12.122  15.234  23.011 -0.1683 -0.3136  0.1841
58807W        W 1719  10.888  17.776  18.104 -0.0095 -0.1221  0.0976
58808W        W 1720  11.047  15.523  20.446  0.1853 -0.1060 -0.3205
58809W        W 1721   9.092  18.106  19.848  0.2215 -0.0767 -0.2838
58810W        W 1722  11.881  15.631  20.069  0.0560  0.2997 -0.1093
58811W        W 1723  12.387  15.165  20.716  0.1490  0.3048 -0.1184
58812W        W 1724  12.080  13.726  23.825 -0.1462 -0.1931  0.0335
58813W        W 1725  13.859  15.465  20.828  0.1497 -0.0164  0.0944
58814W        W 1726  12.290  16.460  21.319  0.1248  0.1129 -0.3571
58815W        W 1727  13.129  17.341  20.863  0.1454  0.3045 -0.0896
58816W        W 1728   9.637  15.664  18.595  0.3046  0.1312  0.1832
58817W        W 1729  11.990  14.303  21.898  0.0038  0.1045  0.1821
58818W        W 1730  11.352  17.221  22.195 -0.0919 -0.0799 -0.0978
58819W        W 1731  10.482  16.073  22.928 -0.0527  0.2230 -0.0417
58820W        W 1732  13.700  15.866  21.578 -0.0592 -0.1058 -0.0331
58821W        W 1733  11.428  15.361  20.808 -0.1081  0.1801  0.1313
58822W        W 1734  12.220  15.385  22.049  0.0841  0.0282 -0.1266
58823W        W 1735  11.105  15.632  19.016 -0.1223 -0.1433  0.0639
58824W        W 1736  10.446  17.565  19.561  0.1046 -0.2973  0.1574
58825W        W 1737   9.763  17.835  19.628  0.1223 -0.0515  0.1144
58826W        W 1738  13.025  13.912  21.253  0.0936 -0.2616  0.1183
58827W        W 1739  11.969  17.970  23.325  0.2070  0.0243  0.2433
58828W        W 1740  10.553  17.132  20.334 -0.0786 -0.1377 -0.1109
58829W        W 1741  12.813  16.342  21.415  0.1739  0.3652  0.0467
58830W        W 1742  10.519  18.063  19.699  0.0799  0.0575  0.2145
58831W        W 1743  12.269  15.566  20.400 -0.1151  0.1340 -0.0081
58832W        W 1744  10.808  17.363  20.719 -0.1220 -0.3680  0.1547
58833W        W 1745  12.317  16.466  20.769 -0.0324 -0.1258  0.1616
58834W        W 1746  10.271  15.183  20.019  0.2918  0.4367  0.0130
58835W        W 1747  13.131  13.208  20.823 -0.1368  0.2636  0.0041
58836W        W 1748  13.234  16.738  19.524 -0.1309 -0.2176  0.0064
58837W        W 1749  10.940  14.597  23.414  0.1821 -0.0123 -0.0203
58838W        W 1750  12.664  14.272  22.561  0.1725  0.4297 -0.2069
58839W        W 1751   9.801  18.487  21.632 -0.1539  0.0864 -0.2269
58840W        W 1752  10.594  17.547  22.273  0.4153 -0.0274 -0.0251
58841W        W 1753  13.109  15.107  18.676  0.0103  0.2476  0.1456
58842W        W 1754  11.607  15.645  21.217  0.3209 -0.1905  0.4703
58843W        W 1755  12.147  16.607  21.837 -0.0326 -0.0626  0.3920
58844W        W 1756  10.616  15.996  19.533 -0.2264 -0.3526 -0.0645
58845W        W 1757  12.817  16.394  20.944  0.0549 -0.1160  0.2226
58846W        W 1758  11.084  16.346  20.808 -0.2437  0.1146  0.1931
58847W        W 1759   9.943  18.534  21.176 -0.1887  0.1197 -0.0176
58848W        W 1760  12.845  17.066  22.236  0.0833  0.0943  0.0365
58849W        W 1761  10.603  16.585  18.586 -0.0704 -0.1149  0.0366
58850W        W 1762   9.400  16.512  21.887  0.1725 -0.0738  0.0465
58851W        W 1763  11.335  15.362  22.891  0.0877  0.0661  0.1881
58852W        W 1764  12.711  15.758  20.310  0.0966 -0.3543 -0.0718
58853W        W 1765  10.332  14.991  21.362 -0.0636 -0.2469 -0.2358
58854W        W 1766  11.886  16.559  21.088  0.1349 -0.2170 -0.0343
58855W        W 1767  11.845  16.396  22.753  0.0617 -0.0419  0.0280
58856W        W 1768  13.081  16.771  21.828 -0.1132 -0.3477 -0.2286
58857W        W 1769  11.226  17.168  22.683  0.1006  0.1282  0.4050
58858W        W 1770  11.771  16.897  23.666 -0.0358  0.2308  0.0004
58859W        W 1771  11.661  13.658  20.930 -0.0463  0.0118  0.2513
58860W        W 1772  13.006  19.239  19.623  0.0171  0.1292 -0.0798
58861W        W 1773  13.539  15.412  21.340  0.0207  0.1519 -0.4190
58862W        W 1774  10.618  18.534  19.418  0.0110 -0.3152 -0.1170
58863W        W 1775   8.799  15.284  22.103 -0.2843  0.0244 -0.1192
58864W        W 1776   9.891  16.352  21.864 -0.1875 -0.1818  0.0701
58865W        W 1777  10.954  16.081  22.369  0.0421 -0.0017 -0.2879
58866W        W 1778   9.763  16.899  22.048  0.0077  0.0068 -0.0078
58867W        W 1779  10.398  17.577  20.911 -0.1632 -0.1565 -0.1341
58868W        W 1780  10.046  17.677  23.383  0.2777 -0.1065  0.2219
58869W        W 1781  13.084  15.239  20.018 -0.0051  0.2571  0.0161
58870W        W 1782  11.680  16.127  19.410 -0.4334  0.1902  0.1823
58871W        W 1783  11.701  14.879  20.062 -0.1264 -0.0336 -0.2799
58872W        W 1784  13.913  16.159  21.183 -0.1618  0.2428 -0.0125
58873W        W 1785  12.943  16.005  19.922 -0.0702  0.1552  0.1969
58874W        W 1786  12.732  12.643  23.218 -0.1477 -0.2908 -0.0933
58875W        W 1787  10.262  15.631  22.037  0.1491  0.0959 -0.1164
58876W        W 1788  11.883  16.813  20.630 -0.0842 -0.7029 -0.0518
58877W        W 1789  11.366  14.099  21.168 -0.1025 -0.2628 -0.1772
58878W        W 1790  13.423  19.241  21.770  0.1528  0.3365  0.1387
58879W        W 1791  10.560  15.040  22.932 -0.1786  0.1469 -0.2093
58880W        W 1792  13.585  15.001  20.982  0.2663  0.3302  0.1374
58881W        W 1793   9.816  14.764  19.481  0.0007 -0.2984  0.0573
58882W        W 1794  10.536  16.953  21.407 -0.0939 -0.0052  0.0094
58883W        W 1795  13.000  18.369  20.412 -0.1666  0.0002  0.0369
58884W        W 1796  11.179  16.974  20.507 -0.0277 -0.0161 -0.1787
58885W        W 1797  13.563  15.536  20.039  0.1290  0.0265 -0.0504
58886W        W 1798   9.493  17.595  21.153 -0.1302 -0.0708 -0.0158
58887W        W 1799  12.183  15.789  19.039 -0.0893  0.1816 -0.0493
58888W        W 1800  10.974  16.008  20.439 -0.0462 -0.2211 -0.0974
58889W        W 1801   9.692  16.655  21.529 -0.3766  0.0957  0.0833
58890W        W 1802  12.196  16.423  22.307  0.0075  0.2338  0.0699
58891W        W 1803  12.746  17.048  20.294  0.0596  0.0290  0.0680
58892W        W 1804  13.203  15.919  21.494  0.1206  0.1816 -0.0508
58893W        W 1805  12.635  15.024  22.146  0.1163  0.0052  0.1443
58894W        W 1806  12.461  15.912  22.264  0.0365  0.0459  0.0088
58895W        W 1807  11.686  16.077  22.352  0.0219  0.0495  0.1778
58896W        W 1808  10.653  15.177  23.452  0.0070 -0.1500  0.2242
58897W        W 1809  13.944  18.377  22.074 -0.2197  0.0924 -0.2850
58898W        W 1810  12.692  15.589  18.884  0.0804  0.0343 -0.0364
58899W        W 1811  13.133  14.383  21.521  0.0786  0.2403  0.1947
58900W        W 1812  13.037  16.500  19.938  0.1170 -0.2717  0.3262
58901W        W 1813  11.722  16.654  20.224  0.2290 -0.0102 -0.0614
58902W        W 1814  10.976  16.124  21.251 -0.3768  0.2501  0.1632
58903W        W 1815  13.139  16.713  21.219 -0.1311  0.2629 -0.1369
58904W        W 1816  11.333  16.516  19.467 -0.2515 -0.1029 -0.2029
58905W        W 1817  12.743  15.577  22.056  0.0001 -0.2076 -0.0924
58906W        W 1818  12.057  18.173  20.806 -0.2211  0.1060  0.0746
58907W        W 1819  11.520  16.225  21.079 -0.1623 -0.0969 -0.1168
58908W        W 1820  11.930  16.184  18.831  0.0477  0.0260 -0.1872
58909W        W 1821  10.097  16.101  21.138 -0.0174  0.1053  0.0898
58910W        W 1822  10.207  18.940  21.244 -0.0962  0.0012 -0.1675
58911W        W 1823  11.413  16.167  19.789 -0.3024  0.0005  0.1967
58912W        W 1824  11.870  17.292  18.382  0.0436 -0.1454 -0.0079
58913W        W 1825  12.402  17.057  21.974  0.0075 -0.0363  0.1248
58914W        W 1826  12.268  18.441  22.741  0.0954  0.1896  0.1021
58915W        W 1827  12.218  15.050  20.230 -0.1995  0.3343  0.0016
58916W        W 1828  13.107  15.288  21.097  0.1712  0.3425 -0.0325
58917W        W 1829  10.155  15.976  19.764  0.0429 -0.0890 -0.2448
58918W        W 1830  11.524  14.783  20.966  0.0255  0.2592  0.0068
58919W        W 1831  11.878  17.693  22.333  0.1262  0.3415 -0.0609
58920W        W 1832   9.362  17.495  22.469  0.1149 -0.0835 -0.4218
58921W        W 1833  10.178  17.300  21.248  0.3763  0.1143 -0.1494
58922W        W 1834  12.707  15.125  20.313  0.0526  0.0619 -0.1353
58923W        W 1835  11.954  16.031  21.413 -0.1948 -0.1015 -0.0801
58924W        W 1836  11.221  16.502  20.332 -0.0648 -0.1499  0.2226
58925W        W 1837  14.192  15.663  21.150  0.1132  0.3697 -0.1295
58926W        W 1838  13.390  16.436  20.836 -0.1070 -0.1554  0.1203
58927W        W 1839  10.502  16.029  21.482  0.3045  0.0858 -0.0014
58928W        W 1840  13.253  17.800  21.124  0.1333 -0.1675 -0.1237
58929W        W 1841  15.010  16.570  19.894 -0.1900 -0.3457 -0.0816
58930W        W 1842  10.217  17.825  21.998  0.0629  0.1465 -0.0377
58931W        W 1843  10.792  15.665  23.740 -0.1325  0.1112  0.1722
58932W        W 1844  12.671  16.601  22.115  0.1995  0.0459 -0.3032
58933W        W 1845  12.614  16.756  21.642 -0.1414  0.2606  0.0474
58934W        W 1846  11.080  15.245  21.297 -0.1743 -0.2044  0.3127
58935W        W 1847  10.438  18.258  20.142 -0.1589 -0.2237 -0.4513
58936W        W 1848  11.299  18.917  23.513 -0.2107  0.1730  0.2243
58937W        W 1849  11.597  16.156  23.561  0.1808 -0.0251 -0.0322
58938W        W 1850  11.259  18.871  19.530 -0.0844 -0.2999 -0.2014
58939W        W 1851  10.511  16.979  19.778 -0.1807 -0.1520 -0.1267
58940W        W 1852  10.807  17.360  19.851 -0.1503  0.1647  0.1843
58941W        W 1853  13.167  17.920  22.215 -0.2293  0.0144  0.0701
58942W        W 1854  11.773  15.622  20.525  0.2282 -0.0640  0.1365
58943W        W 1855   9.808  17.480  22.090 -0.0792 -0.0069  0.0373
58944W        W 1856  10.453  17.344  21.681  0.1342 -0.0924  0.1549
58945W        W 1857  11.041  17.856  20.413 -0.2421  0.1431 -0.0953
58946W        W 1858   9.945  18.362  19.172 -0.1596 -0.0186 -0.4012
58947W        W 1859  12.982  17.943  22.694  0.1439  0.1569 -0.1805
58948W        W 1860  13.599  13.851  19.237 -0.3869 -0.0241  0.1089
58949W        W 1861  13.185  16.623  20.393  0.0062 -0.0246  0.3991
58950W        W 1862  12.621  15.021  19.828 -0.0836  0.2082 -0.0653
58951W        W 1863  13.896  17.649  22.663 -0.0227 -0.1629  0.0164
58952W        W 1864  10.299  14.854  20.861 -0.1930 -0.0620  0.3134
58953W        W 1865  12.063  15.160  19.711 -0.0990 -0.0714 -0.3113
58954W        W 1866  10.664  16.733  23.807 -0.2950  0.0285 -0.1891
58955W        W 1867  14.141  13.770  22.079  0.3024 -0.0427 -0.1467
58956W        W 1868  11.222  17.955  23.249  0.1815  0.3935  0.4652
58957W        W 1869  14.510  18.470  20.177  0.0245 -0.0127  0.1161
58958W        W 1870  11.045  15.616  21.617  0.1101 -0.0442  0.1456
58959W        W 1871  10.114  15.265  20.497  0.4559 -0.2084 -0.0402
58960W        W 1872  12.630  14.011  22.057 -0.0109 -0.2356  0.0523
58961W        W 1873  11.623  16.895  19.536 -0.1138 -0.2870  0.0927
58962W        W 1874  12.425  15.927  19.849  0.0083  0.2948  0.1830
58963W        W 1875  10.156  17.956  19.333  0.0739  0.2726  0.1900
58964W        W 1876  10.597  17.941  20.577  0.1158  0.0424  0.1001
58965W        W 1877  12.020  17.831  21.893  0.3020  0.1327  0.1348
58966W        W 1878   9.691  15.319  19.292 -0.0916  0.0633 -0.1736
58967W        W 1879  15.313  15.015  19.292  0.0009 -0.0132 -0.0195
58968W        W 1880  10.468  15.758  22.470  0.1211  0.1425 -0.1019
58969W        W 1881  13.916  13.360  20.730 -0.3870  0.0140 -0.1798
58970W        W 1882  10.976  17.031  21.575 -0.0375 -0.1410 -0.2713
58971W        W 1883  13.082  17.044  19.888  0.2065 -0.0095 -0.1202
58972W        W 1884  12.429  15.899  21.235 -0.0083 -0.3169  0.0322
58973W        W 1885  10.893  15.941  23.314 -0.0457  0.2161 -0.0757
58974W        W 1886  11.816  15.086  20.580  0.1221 -0.1319  0.0804
58975W        W 1887  12.905  16.168  21.931 -0.0097 -0.2486 -0.1389
58976W        W 1888  13.025  17.550  17.959 -0.3474  0.1278  0.0254
58977W        W 1889  12.351  16.523  22.861  0.1209  0.0872 -0.0774
58978W        W 1890  10.648  15.072  19.743  0.2586 -0.2246  0.1770
58979W        W 1891  12.365  16.660  19.748  0.1187 -0.2209 -0.1076
58980W        W 1892   9.956  17.650  21.509  0.1608 -0.1498  0.2081
58981W        W 1893  11.940  15.670  22.337 -0.1567 -0.1846 -0.3136
58982W        W 1894  14.129  19.544  22.053 -0.3320  0.1342 -0.0796
58983W        W 1895  10.682  14.549  20.653 -0.1384 -0.1666 -0.0051
58984W        W 1896  13.909  18.500  18.151 -0.0971 -0.2837  0.2997
58985W        W 1897  14.033  16.470  20.022  0.3856 -0.3237 -0.0856
58986W        W 1898  10.033  16.666  19.628  0.3039 -0.0120 -0.1092
58987W        W 1899  12.678  16.301  19.652 -0.2401 -0.0382 -0.2909
58988W        W 1900  11.188  17.464  21.448  0.2570  0.1002 -0.1782
58989W        W 1901  10.721  16.680  22.863  0.0458  0.0075 -0.0542
58990W        W 1902  13.697  17.602  20.196 -0.2892 -0.1419 -0.3579
58991W        W 1903  14.715  18.550  19.149 -0.1220 -0.1040  0.2779
58992W        W 1904  11.593  16.330  20.581 -0.0365 -0.3120 -0.0162
58993W        W 1905  11.410  15.785  22.070  0.1125  0.2544  0.0423
58994W        W 1906   8.894  17.953  20.974  0.1211  0.1351  0.5357
58995W        W 1907  13.424  15.903  20.994 -0.0153 -0.0011  0.0163
58996W        W 1908  12.720  16.271  20.347  0.1133 -0.2792  0.1320
58997W        W 1909  12.866  17.317  18.407  0.0354  0.1707 -0.0480
58998W        W 1910  13.816  13.115  21.571 -0.4263 -0.4024 -0.1072
58999W        W 1911  12.441  17.231  21.411  0.0984  0.1380  0.0412
59000W        W 1912  10.258  17.488  24.276 -0.4557 -0.0161  0.2930
59001W        W 1913  10.062  16.289  17.985  0.1536  0.2973  0.0273
59002W        W 1914  10.718  16.546  22.230 -0.3185  0.1067 -0.0105
59003W        W 1915  10.620  17.887  19.191 -0.1131 -0.0077 -0.1496
59004W        W 1916  11.982  17.013  21.570  0.1050  0.0560  0.0220
59005W        W 1917  12.501  17.729  20.618 -0.1520 -0.2461  0.0914
59006W        W 1918  11.520  15.938  20.217 -0.1144  0.0418  0.1074
59007W        W 1919  13.313  17.223  20.325 -0.2778 -0.1543  0.1470
59008W        W 1920  11.503  15.316  20.237 -0.1023 -0.1586  0.3114
59009W        W 1921  12.059  13.501  19.606  0.0989  0.2500 -0.2097
59010W        W 1922  13.183  14.674  21.119 -0.0559  0.1926 -0.4530
59011W        W 1923  10.265  15.602  22.910  0.1609 -0.0126  0.1278
59012W        W 1924   9.608  16.660  18.587  0.1769  0.0679  0.0719
59013W        W 1925  10.596  17.198  19.318  0.1452  0.1621  0.2944
59014W        W 1926   9.519  16.031  22.175 -0.1438 -0.1656  0.0065
59015W        W 1927  11.939  14.831  23.513 -0.0653 -0.0215 -0.1425
59016W        W 1928   8.568  15.127  23.189 -0.1018  0.3311  0.2306
59017W        W 1929   9.122  16.594  20.787  0.1550 -0.2131 -0.1882
59018W        W 1930  11.003  15.043  19.009 -0.0850 -0.2237  0.0549
59019W        W 1931  13.766  17.462  20.846 -0.0781  0.4438 -0.0000
59020W        W 1932  10.949  14.263  21.443  0.3378  0.1967  0.0646
59021W        W 1933  10.604  15.519  21.134  0.1886  0.1467 -0.0895
59022W        W 1934  12.457  16.236  21.783 -0.1571  0.1644  0.0319
59023W        W 1935  10.853  16.759  21.071  0.0826  0.2324 -0.0610
59024W        W 1936  11.539  14.604  19.618 -0.0277  0.0484 -0.0463
59025W        W 1937  14.410  18.558  22.106 -0.2511 -0.2047  0.0549
59026W        W 1938   9.057  17.403  19.067  0.0188  0.1848  0.2704
59027W        W 1939  12.702  15.448  23.540  0.3433 -0.0871 -0.0842
59028W        W 1940  12.885  14.022  23.003  0.4941 -0.1829 -0.3005
59029W        W 1941  10.766  14.528  19.777 -0.2810  0.0864 -0.1367
59030W        W 1942  11.396  14.823  21.471  0.1907  0.3406  0.1933
59031W        W 1943  11.912  17.222  22.084  0.2983 -0.2862 -0.0390
59032W        W 1944  13.565  19.536  19.900  0.1181  0.1175  0.1637
59033W        W 1945  10.778  16.772  23.336  0.0269 -0.1839 -0.2885
59034W        W 1946  11.729  17.162  20.941 -0.0423 -0.0100  0.2658
59035W        W 1947  11.019  14.472  23.893  0.0135 -0.2903 -0.0944
59036W        W 1948  12.299  17.366  20.226 -0.2689 -0.1474 -0.1244
59037W        W 1949  12.118  17.553  22.991  0.1052 -0.3398  0.1431
59038W        W 1950  12.763  17.982  20.089 -0.1103  0.0322  0.1854
59039W        W 1951  13.239  14.915  21.585 -0.3496 -0.0534 -0.1869
59040W        W 1952  10.957  16.302  19.791  0.1857  0.3241  0.1221
59041W        W 1953  11.359  15.172  22.436 -0.0943  0.1953  0.5182
59042W        W 1954  10.367  17.680  23.778 -0.1675  0.1164 -0.3002
59043W        W 1955  13.234  17.550  19.948 -0.1591  0.0272  0.1015
59044W        W 1956  11.021  14.712  21.159  0.1332  0.1759  0.1922
59045W        W 1957  13.602  14.112  20.641  0.2937 -0.0575 -0.1756
59046W        W 1958  11.558  17.871  21.236  0.0374  0.3238 -0.2450
59047W        W 1959   9.200  16.941  21.616 -0.2453  0.1648  0.2170
59048W        W 1960  11.639  16.612  18.701 -0.0604 -0.1337  0.1190
59049W        W 1961  11.449  16.085  21.531 -0.1141 -0.0572 -0.3537
59050W        W 1962  11.708  16.480  21.625 -0.0929 -0.0635  0.1502
59051W        W 1963  12.945  17.968  20.767 -0.4218 -0.0393 -0.1830
59052W        W 1964  10.058  16.282  19.343 -0.2225 -0.2927 -0.1708
59053W        W 1965  13.884  16.962  19.167  0.4284 -0.2304 -0.0440
59054W        W 1966  11.447  17.633  21.976 -0.2567 -0.0589  0.2612
59055W        W 1967  14.196  18.565  22.578 -0.1024 -0.3356  0.1157
59056W        W 1968  11.218  17.157  21.037  0.0634 -0.1713  0.0545
59057W        W 1969  12.491  17.166  19.840  0.1618  0.1691 -0.0713
59058W        W 1970  11.319  14.671  22.582 -0.1695  0.1600 -0.1053
59059W        W 1971  10.880  16.755  20.065  0.4465 -0.2324 -0.0671
59060W        W 1972  11.672  17.437  21.487  0.1165 -0.1479 -0.2621
59061W        W 1973  13.787  16.463  20.424 -0.1766 -0.1446  0.1383
59062W        W 1974  12.078  15.412  21.518  0.0610 -0.1490 -0.1030
59063W        W 1975  12.699  13.438  21.001 -0.1035  0.2824  0.1566
59064W        W 1976  10.991  18.426  21.398 -0.1193 -0.0771 -0.1764
59065W        W 1977  12.156  16.954  21.068 -0.0085  0.4325 -0.0676
59066W        W 1978   9.421  15.939  26.745 -0.1413 -0.0668 -0.0119
59067W        W 1979  11.106  15.504  24.078 -0.2575  0.0995 -0.0207
59068W        W 1980  13.002  13.791  22.598  0.0812  0.0158 -0.1432
59069W        W 1981  13.914  16.641  20.917 -0.0462  0.0190  0.0641
59070W        W 1982  11.159  15.128  24.571  0.0617  0.3218  0.1207
59071W        W 1983  13.228  17.561  23.846 -0.2440 -0.0650  0.1616
59072W        W 1984  11.354  14.435  27.207  0.3538  0.2459  0.4089
59073W        W 1985  12.849  17.227  23.975 -0.0406  0.0004 -0.1309
59074W        W 1986  14.727  17.085  22.769 -0.0706  0.0924  0.5606
59075W        W 1987  11.335  16.374  22.582 -0.0831 -0.2129  0.5154
59076W        W 1988  11.217  14.280  25.302 -0.0421  0.0480  0.2485
59077W        W 1989  11.532  17.089  24.691  0.0233  0.3376 -0.1921
59078W        W 1990  12.250  14.549  25.037 -0.2055  0.2124 -0.0847
59079W        W 1991  11.389  14.433  26.690  0.1931  0.1760 -0.2629
59080W        W 1992  12.906  15.253  24.007  0.0712 -0.1272  0.0309
59081W        W 1993  11.613  17.254  23.116  0.1045 -0.2901 -0.1751
59082W        W 1994  11.811  16.347  25.289  0.0790 -0.0456 -0.0057
59083W        W 1995  12.015  15.567  24.927  0.0573 -0.0737  0.0083
59084W        W 1996  12.942  17.800  23.468 -0.0779 -0.0129 -0.0219
59085W        W 1997  12.985  15.666  25.335 -0.0627  0.4074  0.1281
59086W        W 1998  13.397  14.688  26.815 -0.0134 -0.0892 -0.3184
59087W        W 1999  12.172  16.701  23.455  0.1598  0.3172  0.2487
59088W        W 2000  10.421  15.667  23.395 -0.5711  0.0690  0.0973
59089W        W 2001  11.917  15.545  24.360 -0.0510 -0.2619 -0.1025
59090W        W 2002  12.334  15.508  25.355  0.0315  0.0717  0.3180
59091W        W 2003  12.747  14.955  25.759  0.2574  0.1076  0.0662
59092W        W 2004  13.400  15.659  23.217  0.0839  0.2782  0.1926
59093W        W 2005  11.119  17.970  24.987 -0.3998 -0.1198  0.0895
59094W        W 2006  13.220  18.097  23.913  0.2075 -0.1243  0.2765
59095W        W 2007  14.088  15.846  23.537  0.1369 -0.3108  0.1216
59096W        W 2008  11.052  16.939  24.641 -0.0085 -0.0328 -0.2774
59097W        W 2009  10.413  18.030  25.495 -0.2757 -0.1598 -0.2505
59098W        W 2010  12.346  17.716  23.613 -0.0966 -0.0375  0.2508
59099W        W 2011  13.556  16.831  22.127  0.4253 -0.1939 -0.0350
59100W        W 2012  13.523  16.164  24.172  0.2107 -0.0827 -0.1201
59101W        W 2013  12.069  18.652  27.251 -0.1462 -0.0869 -0.1435
59102W        W 2014   9.750  17.591  22.834  0.0052  0.2965 -0.3157
59103W        W 2015  12.230  18.232  27.042  0.1004 -0.2535  0.1463
59104W        W 2016  12.389  16.470  25.352  0.1344 -0.0397 -0.2325
59105W        W 2017  11.520  15.860  24.541 -0.1306 -0.0271 -0.0290
59106W        W 2018  12.714  15.583  24.424  0.0630 -0.0957  0.3954
59107W        W 2019  12.319  17.165  23.867  0.0317 -0.0543 -0.0154
59108W        W 2020  12.009  16.673  24.051 -0.0803 -0.0172  0.2255
59109W        W 2021  12.174  16.131  26.433  0.1188  0.0254 -0.0643
59110W        W 2022  10.926  16.726  25.599 -0.0597  0.1415 -0.0861
59111W        W 2023  13.790  13.396  23.939 -0.0434 -0.1313  0.0669
59112W        W 2024  10.397  18.392  24.400 -0.2737 -0.0332 -0.2006
59113W        W 2025  12.697  15.223  22.766 -0.1782  0.0169  0.1508
59114W        W 2026  11.454  14.674  24.554 -0.1156 -0.3839 -0.3154
59115W        W 2027  13.183  15.321  23.540 -0.3750 -0.2221 -0.0833
59116W        W 2028  12.224  15.153  25.896 -0.3172  0.1361  0.1438
59117W        W 2029  13.021  17.358  24.858 -0.0626  0.1188  0.0278
59118W        W 2030  11.658  14.808  25.611 -0.2507 -0.2358  0.1441
59119W        W 2031  13.495  16.544  23.832 -0.1405  0.0063 -0.0876
59120W        W 2032  12.515  14.969  23.260  0.1959 -0.0668 -0.0461
59121W        W 2033  14.003  15.441  23.185 -0.0114 -0.0923  0.0345
59122W        W 2034  11.223  16.876  26.044 -0.0905  0.0129  0.2328
59123W        W 2035  10.547  16.664  24.777  0.1345 -0.1313 -0.3288
59124W        W 2036  14.408  16.384  22.396 -0.0500  0.2061 -0.0135
59125W        W 2037  13.943  16.267  22.532  0.0369  0.0010 -0.1880
59126W        W 2038  11.655  18.028  21.689  0.1578 -0.3878 -0.1328
59127W        W 2039  11.024  16.313  23.014  0.0177  0.3927  0.0526
59128W        W 2040  10.630  16.732  26.833  0.2468  0.2222 -0.3176
59129W        W 2041  11.329  15.379  26.333 -0.0291 -0.0063 -0.1479
59130W        W 2042  11.461  14.268  24.184 -0.0538  0.2601 -0.1629
59131W        W 2043  11.523  19.176  27.957 -0.1621  0.1100 -0.0615
59132W        W 2044  13.035  13.665  22.066  0.0747 -0.0942  0.2992
59133W        W 2045  12.581  15.629  24.937 -0.1612  0.0439  0.0575
59134W        W 2046  13.039  17.126  23.054  0.0626  0.0203 -0.1138
59135W        W 2047  14.174  15.939  21.546  0.2065 -0.1518  0.0065
59136W        W 2048  13.695  13.891  25.094  0.1704  0.1132 -0.0332
59137W        W 2049  10.969  15.882  22.829  0.1389  0.0854  0.3640
59138W        W 2050  10.757  17.067  22.540  0.2003 -0.0510  0.0708
59139W        W 2051  14.396  17.572  22.854  0.1015  0.0765  0.1016
59140W        W 2052  14.502  16.044  21.995  0.0739 -0.0752 -0.0038
59141W        W 2053  10.995  18.364  24.638  0.0676  0.0159  0.0185
59142W        W 2054  13.088  15.759  25.859 -0.1153  0.0421  0.2369
59143W        W 2055  12.767  17.687  26.701 -0.0871  0.0533  0.3056
59144W        W 2056  10.823  17.040  24.153 -0.0348 -0.1231 -0.1550
59145W        W 2057  11.132  16.991  25.133 -0.4541 -0.0211  0.1145
59146W        W 2058  12.093  18.278  23.689  0.1682  0.3267 -0.3127
59147W        W 2059  10.199  14.373  27.411  0.2281 -0.2248  0.0797
59148W        W 2060  11.940  17.154  24.188 -0.2350  0.0639  0.1090
59149W        W 2061  13.129  14.448  22.642 -0.2444  0.2347 -0.0905
59150W        W 2062  12.396  14.723  27.249  0.0220 -0.0101 -0.0011
59151W        W 2063  13.032  13.414  22.991  0.0257 -0.1631  0.0505
59152W        W 2064  10.581  18.004  24.789  0.1204  0.0726 -0.0779
59153W        W 2065  14.110  16.627  23.029 -0.3624 -0.0342  0.0486
59154W        W 2066  14.542  16.973  22.075 -0.2667 -0.0126  0.2559
59155W        W 2067  12.295  18.446  24.163 -0.1256  0.0113  0.1740
59156W        W 2068   9.824  16.518  24.094  0.0758  0.1006  0.1046
59157W        W 2069  10.627  16.190  24.473 -0.0530  0.2511 -0.2643
59158W        W 2070  11.654  16.413  27.209 -0.2931  0.4693  0.0660
59159W        W 2071  10.828  16.192  26.565 -0.0277  0.0581  0.0098
59160W        W 2072  14.009  15.582  24.591 -0.1983 -0.1687 -0.1206
59161W        W 2073  11.833  15.114  24.707  0.1643  0.0100 -0.0765
59162W        W 2074  11.791  17.793  23.816 -0.4393 -0.1279  0.1924
59163W        W 2075  11.760  15.031  22.787  0.1200 -0.0054  0.3387
59164W        W 2076  10.079  16.475  22.985 -0.1308 -0.0418  0.1075
59165W        W 2077  13.256  14.934  26.019 -0.2397 -0.0904 -0.2822
59166W        W 2078  11.604  18.091  22.186  0.2913 -0.4226 -0.0920
59167W        W 2079  13.692  16.950  24.616  0.0992 -0.0728  0.1010
59168W        W 2080  13.356  17.585  22.599 -0.0279 -0.3357 -0.2554
59169W        W 2081  12.256  14.882  25.479 -0.3023  0.1485 -0.1515
59170W        W 2082  12.396  14.290  23.029 -0.1167 -0.0156 -0.0152
59171W        W 2083  11.326  19.013  25.404 -0.1303 -0.2755  0.0618
59172W        W 2084  11.155  16.263  25.466 -0.0810 -0.0788  0.2462
59173W        W 2085  11.631  15.933  24.021 -0.2884  0.3999  0.0891
59174W        W 2086  13.262  17.044  22.534 -0.0002 -0.4017  0.2197
59175W        W 2087  13.123  16.234  23.766 -0.2144  0.2669 -0.0575
59176W        W 2088  10.129  16.143  25.309 -0.2084  0.1347  0.1852
59177W        W 2089  14.296  15.570  24.976 -0.1310  0.1927 -0.2169
59178W        W 2090  12.715  14.663  22.944  0.1453  0.0620 -0.0436
59179W        W 2091  12.359  17.319  23.336 -0.0022 -0.3550  0.0671
59180W        W 2092  10.484  16.330  23.388  0.2225  0.1272  0.2549
59181W        W 2093  12.097  16.201  23.806  0.0316 -0.4224  0.1836
59182W        W 2094   9.464  17.352  24.141  0.0240 -0.0525 -0.0275
59183W        W 2095  10.739  17.261  24.894  0.2477 -0.0870 -0.1175
59184W        W 2096  13.217  17.611  23.103 -0.3078 -0.0459 -0.0665
59185W        W 2097  10.730  16.237  27.057  0.1576  0.2544  0.0312
59186W        W 2098  13.906  14.533  24.289  0.0635  0.0212  0.0642
59187W        W 2099   9.988  18.049  23.759  0.0435  0.0203 -0.0585
59188W        W 2100  11.461  17.733  25.439 -0.0121  0.1227 -0.2464
59189W        W 2101  12.191  14.030  24.301 -0.1202  0.0764  0.3447
59190W        W 2102  13.665  15.359  22.389 -0.0708 -0.0865 -0.2206
59191W        W 2103  12.308  15.273  24.533  0.1139  0.3232 -0.2256
59192W        W 2104  14.258  17.596  21.115  0.1933 -0.3012 -0.2471
59193W        W 2105  13.089  15.306  22.281  0.0209  0.0407 -0.0533
59194W        W 2106  11.947  14.827  21.836  0.5263 -0.0024  0.1514
59195W        W 2107  11.408  17.280  26.411  0.0729 -0.0274  0.1454
59196W        W 2108  11.547  16.163  23.036  0.1672 -0.1790  0.1091
59197W        W 2109  12.013  16.694  25.617 -0.2019 -0.0299  0.0258
59198W        W 2110  11.789  14.312  23.254 -0.0749  0.0262  0.0917
59199W        W 2111  13.135  18.357  22.423 -0.1152  0.1233  0.0861
59200W        W 2112  10.926  17.268  25.538 -0.2576 -0.1261 -0.2428
59201W        W 2113  13.191  16.399  24.852  0.1413 -0.1313  0.3036
59202W        W 2114  12.922  15.909  23.423 -0.3151 -0.3169  0.2957
59203W        W 2115  13.876  13.731  25.726  0.2098 -0.3395 -0.0485
59204W        W 2116  11.415  14.933  23.667  0.1008 -0.3083  0.0514
59205W        W 2117  11.021  14.019  24.957  0.0827  0.0062 -0.3689
59206W        W 2118   9.791  19.711  22.184  0.2201 -0.0226  0.2343
59207W        W 2119  13.905  13.620  23.482  0.2735  0.3487 -0.1642
59208W        W 2120  12.756  15.220  25.272  0.0820  0.4308  0.1261
59209W        W 2121  12.720  15.185  26.429  0.3299 -0.0572  0.2023
59210W        W 2122  14.140  14.701  24.769 -0.1885 -0.0724  0.0838
59211W        W 2123  13.173  15.138  22.842  0.0356 -0.2826  0.0654
59212W        W 2124  13.598  15.400  24.724 -0.0076 -0.0656  0.3071
59213W        W 2125  11.779  15.631  22.889 -0.1371 -0.0005  0.0506
59214W        W 2126  13.984  14.612  26.392 -0.0888  0.1812 -0.2584
59215W        W 2127  11.205  16.409  26.886 -0.0138  0.0208  0.0589
59216W        W 2128  10.401  16.575  25.271 -0.0021 -0.4483 -0.0096
59217W        W 2129  12.333  17.843  24.989  0.1493  0.0526  0.1055
59218W        W 2130  12.705  16.412  23.335  0.0960 -0.1301  0.3002
59219W        W 2131  12.623  15.936  25.538 -0.0869 -0.1937  0.0258
59220W        W 2132  11.512  15.312  24.281  0.1564 -0.1626  0.2994
59221W        W 2133  11.346  18.326  24.223 -0.1256 -0.0395 -0.3824
59222W        W 2134  12.463  15.926  23.578  0.1224  0.0248  0.3026
59223W        W 2135  12.563  15.887  26.654  0.1912  0.1863 -0.1987
59224W        W 2136  12.661  17.310  24.419 -0.1793  0.1365 -0.0925
59225W        W 2137  10.688  17.368  21.234  0.0314  0.1365  0.0092
59226W        W 2138  14.536  16.288  23.458 -0.1242 -0.0434  0.3346
59227W        W 2139  11.522  18.407  24.713 -0.2656 -0.1138  0.3429
59228W        W 2140  12.332  14.124  24.825  0.0908 -0.1748  0.0169
59229W        W 2141   9.779  18.792  25.192 -0.0377  0.1480 -0.0344
59230W        W 2142  10.714  15.212  24.007  0.0776 -0.1188 -0.1650
59231W        W 2143  10.969  15.699  25.172  0.0747  0.1129  0.0430
59232W        W 2144  12.684  14.843  24.735 -0.3727 -0.0062 -0.1565
59233W        W 2145  13.906  17.861  20.577  0.4586 -0.0025  0.1564
59234W        W 2146  11.305  15.879  26.118  0.0050 -0.0309 -0.1383
59235W        W 2147  13.923  15.086  24.388  0.0283 -0.0855 -0.0540
59236W        W 2148  10.311  17.454  26.843  0.0312 -0.1417 -0.2588
59237W        W 2149  13.844  16.357  25.506  0.1638 -0.0491 -0.0238
59238W        W 2150  12.196  15.292  23.514  0.0011 -0.2190 -0.0778
59239W        W 2151  14.040  16.421  24.012  0.0185  0.0710  0.0814
59240W        W 2152  13.808  15.621  25.128  0.0429 -0.1880  0.0102
59241W        W 2153   9.732  16.464  22.358 -0.0798 -0.0844 -0.0040
59242W        W 2154  13.555  14.918  23.414  0.1399  0.1795  0.0921
59243W        W 2155  12.597  14.974  24.272  0.3659  0.1762  0.0416
59244W        W 2156  10.718  18.362  25.715  0.0460 -0.0228 -0.0018
59245W        W 2157  13.182  15.801  24.889  0.1176 -0.2828  0.1851
59246W        W 2158  11.191  16.999  23.265 -0.1227 -0.0359  0.0200
59247W        W 2159  11.307  17.869  24.004  0.0732  0.2169  0.2359
59248W        W 2160  11.845  15.523  28.459 -0.0964  0.0662 -0.2381
59249W        W 2161  12.360  17.460  25.460  0.0176 -0.0929  0.0772
59250W        W 2162  10.557  15.447  25.019  0.0715 -0.3845  0.3354
59251W        W 2163  10.577  14.925  24.847 -0.0664 -0.0746 -0.1069
59252W        W 2164  11.384  14.953  25.041  0.2588 -0.0060  0.2609
59253W        W 2165  11.413  16.503  25.030 -0.0609 -0.0228  0.1871
59254W        W 2166  13.153  15.244  25.613 -0.2784  0.0150  0.2977
59255W        W 2167  12.621  17.262  26.459 -0.0048 -0.0828 -0.3108
59256W        W 2168  12.426  14.067  25.876  0.0347  0.0822 -0.3455
59257W        W 2169  15.708  18.025  22.268 -0.0200 -0.0171 -0.1392
59258W        W 2170  12.248  15.710  25.818 -0.3994  0.1021 -0.0830
59259W        W 2171  11.680  16.600  23.248  0.0843 -0.0506  0.1426
59260W        W 2172  10.585  16.146  25.064  0.0713 -0.0649  0.0974
59261W        W 2173  12.394  16.380  24.388  0.2247  0.1610 -0.2599
59262W        W 2174  13.217  15.547  24.393 -0.1838 -0.2987  0.1252
59263W        W 2175  11.536  16.747  25.464 -0.0371  0.0296  0.4375
59264W        W 2176  10.693  17.029  22.037  0.1439 -0.2783  0.1532
59265W        W 2177  11.118  17.482  25.055 -0.1859 -0.2977 -0.0980
59266W        W 2178  14.278  13.373  21.776  0.2076  0.1247 -0.0493
59267W        W 2179  12.660  16.275  22.526 -0.2804  0.1449  0.1037
59268W        W 2180  10.993  14.553  24.891 -0.2642  0.0517 -0.3887
59269W        W 2181  14.212  14.186  23.764  0.0890  0.0486 -0.2384
59270W        W 2182  13.050  16.557  22.940 -0.1032  0.0314 -0.0971
59271W        W 2183  14.054  14.277  25.052 -0.2165  0.0469  0.0703
59272W        W 2184  11.668  15.028  26.099  0.1583  0.2419 -0.2881
59273W        W 2185  12.909  17.429  22.637 -0.0414  0.1160  0.1365
59274W        W 2186  10.118  14.988  25.817  0.0318 -0.1921 -0.1375
59275W        W 2187  12.758  17.952  26.220 -0.0768 -0.0026 -0.1659
59276W        W 2188   9.906  15.999  26.926 -0.2780  0.0672  0.1579
59277W        W 2189  13.265  14.358  23.218  0.2496 -0.0869 -0.3369
59278W        W 2190  11.491  14.231  24.808  0.1523 -0.2284  0.0137
59279W        W 2191   9.889  17.253  24.516 -0.1455  0.0123  0.3622
59280W        W 2192  13.688  16.121  23.696 -0.1351 -0.0304  0.1275
59281W        W 2193  11.366  17.532  23.523 -0.2777  0.0188  0.0202
59282W        W 2194  11.991  17.839  25.381 -0.2746  0.1004  0.0553
59283W        W 2195  13.199  15.985  22.910  0.1301 -0.2788 -0.1184
59284W        W 2196  12.077  15.652  23.845 -0.0704 -0.1192 -0.0469
59285W        W 2197  10.946  16.542  24.294  0.1847 -0.0012  0.3129
59286W        W 2198  12.991  15.620  26.338  0.0110  0.0432  0.0231
59287W        W 2199  13.546  16.745  22.969 -0.0421  0.1178  0.0258
59288W        W 2200  13.419  13.978  25.527  0.1619 -0.1207 -0.3634
59289W        W 2201  13.415  15.189  23.958  0.0424 -0.2652  0.1387
59290W        W 2202  13.186  14.358  23.749  0.3876 -0.0761  0.0818
59291W        W 2203  12.696  15.991  26.046  0.2262  0.1452 -0.0587
59292W        W 2204  11.391  14.912  26.829  0.1016 -0.0315 -0.2110
59293W        W 2205  13.264  18.000  26.499  0.0425 -0.0720  0.4859
59294W        W 2206  13.873  14.272  22.100  0.4081 -0.2461  0.0172
59295W        W 2207  12.962  13.377  24.497  0.2298 -0.0192 -0.0962
59296W        W 2208  13.394  15.036  24.439 -0.1526  0.0088  0.3150
59297W        W 2209  13.207  15.761  21.999 -0.0766 -0.1652  0.1449
59298W        W 2210  12.935  14.941  26.895  0.2097 -0.2248  0.1920
59299W        W 2211  12.471  16.763  26.265  0.0401  0.3929  0.1160
59300W        W 2212  11.180  14.832  24.131  0.1879  0.1961 -0.0773
59301W        W 2213  13.067  15.361  27.263 -0.1280 -0.0162 -0.0945
59302W        W 2214  11.526  18.175  23.578 -0.1003  0.2246 -0.1542
59303W        W 2215  13.143  16.550  22.385 -0.0418 -0.0954 -0.0968
59304W        W 2216  12.293  14.521  23.497  0.0164 -0.3857  0.2173
59305W        W 2217  10.225  15.581  25.755 -0.1013  0.0815 -0.3104
59306W        W 2218  13.342  17.411  25.894  0.0134 -0.0125 -0.1896
59307W        W 2219  11.217  15.904  23.709 -0.3108 -0.0090  0.0247
59308W        W 2220  12.534  15.962  24.196 -0.0507 -0.2990 -0.0440
59309W        W 2221  12.723  16.820  25.676 -0.0201 -0.1412 -0.0772
59310W        W 2222  13.283  16.944  24.911  0.0716  0.0100 -0.3444
59311W        W 2223  12.236  13.584  24.612  0.0717 -0.1034  0.2049
59312W        W 2224  13.834  14.717  25.196 -0.1282 -0.0454 -0.2027
59313W        W 2225  10.701  17.545  24.507  0.0234  0.2761 -0.1652
59314W        W 2226  12.654  12.973  24.402  0.0393  0.0409  0.1063
59315W        W 2227  11.527  17.557  24.759  0.0282 -0.2890 -0.0723
59316W        W 2228  11.919  17.369  27.410 -0.1107 -0.0621 -0.0828
59317W        W 2229  11.819  16.269  24.783 -0.0151 -0.0567  0.2745
59318W        W 2230  13.071  16.119  27.278  0.1057  0.0266 -0.1173
59319W        W 2231  12.961  16.722  23.940  0.2115 -0.2658 -0.0907
59320W        W 2232  11.521  17.269  25.264 -0.0295  0.0441  0.0280
59321W        W 2233  13.676  15.540  24.238  0.1545 -0.0257  0.1465
59322W        W 2234  12.694  16.075  24.678  0.0320 -0.0315 -0.0444
59323W        W 2235  11.897  16.139  25.753 -0.1437 -0.0973 -0.0334
59324W        W 2236  13.704  17.498  25.537 -0.1360  0.2760  0.0492
59325W        W 2237  14.032  17.108  22.816 -0.0067 -0.0430  0.2437
59326W        W 2238  12.910  17.303  23.494 -0.2062  0.0849  0.2148
59327W        W 2239  10.487  14.458  26.961  0.1578  0.0897 -0.0932
59328W        W 2240  13.483  16.074  25.186 -0.1324 -0.0893  0.2324
59329W        W 2241  13.129  16.792  23.489  0.1377  0.2622  0.0526
59330W        W 2242  12.194  14.787  24.528  0.3715 -0.0896 -0.2089
59331W        W 2243  11.824  18.601  24.141 -0.2767  0.2601 -0.2060
59332W        W 2244  12.013  16.504  26.130  0.1790  0.4229  0.0336
59333W        W 2245  11.885  17.196  25.646  0.5682 -0.0233 -0.1994
59334W        W 2246  12.843  17.714  24.110 -0.2997  0.3889  0.0381
59335W        W 2247  12.428  17.868  22.723 -0.3746  0.1901  0.1405
59336W        W 2248  11.883  17.373  23.528 -0.1011  0.7033  0.0967
59337W        W 2249  12.751  17.155  25.287 -0.0766 -0.0447  0.0984
59338W        W 2250  10.508  14.726  23.914 -0.0812 -0.2691 -0.2550
59339W        W 2251  11.253  17.873  24.537 -0.2127  0.0932 -0.3137
59340W        W 2252  10.128  18.498  24.778 -0.1906  0.1836  0.1391
59341W        W 2253  13.605  17.926  21.967 -0.0094  0.0255  0.2428
59342W        W 2254  12.275  17.901  24.160 -0.1890 -0.2111  0.2487
59343W        W 2255  13.778  17.307  25.057 -0.0185 -0.0469 -0.1069
59344W        W 2256  12.350  13.967  23.492  0.0704  0.2074 -0.4538
59345W        W 2257  14.481  16.519  21.902  0.2977 -0.1766  0.0603
59346W        W 2258  13.453  14.509  21.960  0.1479  0.3700 -0.2901
59347W        W 2259  13.652  18.344  26.553 -0.0319  0.0641  0.0142
59348W        W 2260  12.623  14.737  26.197  0.3030  0.1252  0.0117
59349W        W 2261  12.265  14.534  24.107  0.0995  0.0866 -0.0386
59350W        W 2262  12.510  16.131  27.422  0.0265  0.0635  0.1360
59351W        W 2263  14.419  14.309  24.612  0.2480  0.1726 -0.0017
59352W        W 2264  10.915  15.811  25.703 -0.1506  0.4782 -0.2229
59353W        W 2265  13.299  17.458  22.061 -0.1463  0.0564  0.2837
59354W        W 2266   9.952  15.750  23.734  0.1957 -0.2496  0.0020
59355W        W 2267  12.223  15.910  24.633  0.2139  0.0683  0.1140
59356W        W 2268  14.102  13.252  24.703  0.3649  0.0275  0.0518
59357W        W 2269  12.430  15.629  23.113  0.2919  0.3154 -0.3139
59358W        W 2270  13.011  14.697  24.363  0.2964 -0.1918  0.1040
59359W        W 2271  13.107  17.642  21.618 -0.2287 -0.1278  0.1864
59360W        W 2272  10.572  18.596  24.874  0.0713 -0.3314  0.1618
59361W        W 2273  11.338  16.350  26.324  0.0490  0.1249 -0.2516
59362W        W 2274  10.149  14.386  23.798  0.0258 -0.1073  0.0084
59363W        W 2275  13.500  16.342  22.663  0.0304 -0.0877 -0.2265
59364W        W 2276  11.851  15.561  26.200  0.3729  0.0408 -0.0067
59365W        W 2277  12.240  15.136  25.029  0.2239 -0.0593  0.1558
59366W        W 2278  11.405  16.398  24.514 -0.1085  0.1159  0.3099
59367W        W 2279  14.677  15.673  21.190 -0.1344 -0.1041 -0.1518
59368W        W 2280  12.708  16.963  24.805  0.2902  0.4012  0.0259
59369W        W 2281  11.707  15.921  26.824 -0.3607  0.0506  0.1737
59370W        W 2282  12.624  13.597  23.711 -0.1563 -0.1354  0.0586
59371W        W 2283  13.041  16.264  25.608 -0.3948 -0.1372  0.2768
59372W        W 2284  12.755  15.725  22.645 -0.2076 -0.0420  0.0264
59373W        W 2285  13.298  19.137  25.130  0.3099 -0.1394 -0.0675
59374W        W 2286  10.285  14.539  25.104 -0.0324 -0.0166  0.1502
59375W        W 2287  12.187  16.007  22.695 -0.1138 -0.1281 -0.2042
59376W        W 2288  11.646  17.623  24.307 -0.0881 -0.2205  0.1052
59377W        W 2289  11.572  15.922  25.084  0.2184 -0.0578 -0.1042
59378W        W 2290  12.729  17.662  25.163 -0.1308  0.0159 -0.0753
59379W        W 2291  11.495  15.451  24.923 -0.3081  0.4332  0.2990
59380W        W 2292  12.457  18.036  23.221  0.1058 -0.0598 -0.0045
59381W        W 2293  13.635  15.307  22.902  0.0860 -0.1047 -0.1764
59382W        W 2294  12.451  15.422  24.031  0.3558 -0.0662  0.1497
59383W        W 2295  13.345  15.818  23.809  0.3121  0.0247  0.1821
59384W        W 2296  12.185  17.085  24.652 -0.2405  0.2794  0.0037
59385W        W 2297  11.725  14.906  27.763  0.0102 -0.1436  0.1603
59386W        W 2298  13.432  17.098  23.870 -0.2845 -0.0609  0.0972
59387W        W 2299  13.886  16.890  23.933 -0.0124 -0.0536 -0.1281
59388W        W 2300  12.790  14.678  25.311  0.1582 -0.0476  0.2502
59389W        W 2301  11.813  15.178  25.278 -0.1841 -0.0807 -0.2571
59390W        W 2302  10.862  17.832  23.546 -0.2020 -0.1150  0.0576
59391W        W 2303  13.707  15.461  23.630 -0.2530 -0.0223  0.1355
59392W        W 2304  13.736  14.234  23.840 -0.0316 -0.2175  0.3895
59393W        W 2305  12.687  16.063  22.976 -0.1225 -0.0983 -0.1624
59394W        W 2306  13.143  13.529  24.973  0.1891 -0.0066  0.2342
59395W        W 2307  11.753  16.059  26.203 -0.2553 -0.0461  0.1727
59396W        W 2308  12.965  17.450  27.791  0.1564  0.3101  0.1537
59397W        W 2309  10.048  16.099  23.355 -0.3934 -0.2517  0.2142
59398W        W 2310  12.865  16.111  25.153 -0.3967 -0.3192  0.0232
59399W        W 2311  12.582  16.842  23.640  0.2490  0.0883 -0.1496
59400W        W 2312  13.634  18.791  23.457 -0.0753  0.0207  0.0497
59401W        W 2313  12.720  17.604  23.082 -0.0078  0.1329 -0.1716
59402W        W 2314  13.077  14.855  23.746 -0.0376 -0.1948  0.1548
59403W        W 2315  14.572  16.483  22.905  0.1767  0.0180  0.3032
59404W        W 2316  11.983  15.139  23.981 -0.1045  0.0223 -0.1952
59405W        W 2317  14.355  14.254  21.845 -0.0048 -0.4345 -0.0278
59406W        W 2318  14.739  13.279  22.138 -0.1474  0.2058  0.1590
59407W        W 2319  11.382  17.613  25.903 -0.3154 -0.0160  0.0336
59408W        W 2320   8.791  17.424  23.602 -0.1746 -0.2365 -0.2187
59409W        W 2321  10.348  16.329  22.460  0.0261 -0.1018  0.1231
59410W        W 2322  10.083  16.524  25.658 -0.1160 -0.2171 -0.1895
59411W        W 2323  12.126  14.262  26.880  0.2962  0.1236 -0.0323
59412W        W 2324  11.755  15.322  25.734 -0.0422 -0.2164 -0.2441
59413W        W 2325   8.736  16.467  25.683  0.1597 -0.2969  0.0381
59414W        W 2326   9.784  16.045  24.565  0.2537  0.1578 -0.1096
59415W        W 2327  13.584  18.066  22.491  0.1394 -0.2133  0.2126
59416W        W 2328  12.536  15.295  26.847  0.2523  0.0097  0.0941
59417W        W 2329  10.898  15.356  25.569 -0.0924  0.1654 -0.1010
59418W        W 2330  14.023  16.249  21.994 -0.1935 -0.2504  0.0245
59419W        W 2331  13.844  18.226  21.606 -0.1570  0.2168 -0.2078
59420W        W 2332  12.971  14.143  24.143  0.3092 -0.3410  0.4358
59421W        W 2333  14.318  18.509  26.067  0.1896  0.1746  0.0524
59422W        W 2334   9.342  16.996  23.462 -0.1009 -0.0822  0.0055
59423W        W 2335  12.492  15.976  27.868 -0.1123 -0.0330  0.2934
59424W        W 2336  12.251  16.038  26.976  0.0065 -0.3032 -0.1791
59425W        W 2337  10.651  14.206  23.695  0.2603 -0.1190 -0.1083
59426W        W 2338  13.573  15.914  24.607  0.2344  0.0515 -0.0425
59427W        W 2339  13.425  18.045  22.977  0.0111 -0.2554  0.1177
59428W        W 2340  13.794  17.554  23.643  0.2065  0.0800 -0.3889
59429W        W 2341  11.030  15.654  24.658 -0.0544  0.3017 -0.0628
59430W        W 2342  13.181  18.638  26.593 -0.1321  0.2693 -0.1078
59431W        W 2343  11.225  15.932  27.157 -0.1516 -0.2049  0.1069
59432W        W 2344  12.131  16.218  23.219 -0.0804  0.2873  0.1587
59433W        W 2345  10.626  16.265  25.540 -0.0942  0.0423  0.1795
59434W        W 2346  13.366  18.358  23.464 -0.0707  0.1182  0.1040
59435W        W 2347  12.777  14.391  23.402  0.0462  0.4429 -0.1720
59436W        W 2348  12.674  14.383  27.620  0.0402  0.2075  0.3223
59437W        W 2349  11.682  16.848  26.011 -0.1644 -0.0037 -0.0486
59438W        W 2350  12.602  16.319  23.887  0.1532  0.0395 -0.0259
59439W        W 2351  10.849  14.389  25.831 -0.4006 -0.0751 -0.0896
59440W        W 2352  13.512  14.377  25.095 -0.0197  0.1114 -0.0778
59441W        W 2353  11.683  15.262  23.290 -0.3009  0.2531 -0.0078
59442W        W 2354  11.490  16.375  25.833 -0.0359 -0.3206  0.4798
59443W        W 2355  11.136  15.409  23.491  0.2632 -0.0585  0.2268
59444W        W 2356  12.851  15.744  23.905  0.0821 -0.3525 -0.1605
59445W        W 2357  11.858  16.202  24.317 -0.2229 -0.1684  0.1614
59446W        W 2358  13.493  16.107  25.767 -0.1412 -0.3721 -0.0870
59447W        W 2359  11.570  15.468  23.786 -0.0010  0.0228  0.0197
59448W        W 2360  13.959  15.458  21.645 -0.1114  0.0540  0.0824
59449W        W 2361  12.926  17.560  25.649 -0.1595  0.0836  0.2993
59450W        W 2362  14.624  18.967  25.050  0.1044  0.1444 -0.3903
59451W        W 2363  14.123  18.958  25.293 -0.2023  0.0424 -0.0413
59452W        W 2364  12.558  16.929  23.180  0.1697  0.0957 -0.2225
59453W        W 2365  10.881  14.882  26.024  0.2670 -0.1754 -0.0205
59454W        W 2366  11.489  16.442  23.984  0.1219  0.0225  0.0502
59455W        W 2367  10.399  16.429  24.092  0.1972  0.0511  0.0055
59456W        W 2368  13.405  13.930  24.011 -0.0231  0.1300 -0.0599
59457W        W 2369  11.131  13.998  26.586 -0.1197 -0.2546 -0.0326
59458W        W 2370  12.926  15.268  24.785  0.0118 -0.1948  0.2096
59459W        W 2371  12.942  18.398  25.801  0.2558 -0.2086  0.1351
59460W        W 2372  11.790  16.861  25.058  0.2308  0.0987  0.1977
59461W        W 2373  12.540  16.920  30.216 -0.0445 -0.0957  0.1387
59462W        W 2374  11.673  15.367  26.718 -0.0856  0.2022 -0.1719
59463W        W 2375  13.900  14.254  26.069 -0.2064  0.0634 -0.0587
59464W        W 2376  13.712  15.580  25.633 -0.0087 -0.0441 -0.0082
59465W        W 2377  10.934  16.006  29.320  0.3017  0.0534 -0.0902
59466W        W 2378  14.117  17.242  27.246  0.1885  0.0576 -0.1126
59467W        W 2379  12.991  15.940  29.346 -0.0817 -0.0599  0.0471
59468W        W 2380  14.457  16.947  29.004 -0.0646  0.0420 -0.1573
59469W        W 2381  13.769  17.051  28.670 -0.0033 -0.0671 -0.0683
59470W        W 2382  13.207  16.973  25.751  0.0168 -0.1617 -0.1268
59471W        W 2383  13.383  15.487  28.609  0.1533  0.2258 -0.1574
59472W        W 2384  12.927  16.981  28.607 -0.1730 -0.2217 -0.4506
59473W        W 2385  13.060  14.083  28.539  0.0485  0.1360  0.0995
59474W        W 2386  10.990  14.229  29.768 -0.2213 -0.2061  0.0731
59475W        W 2387  13.878  16.417  29.352  0.0179 -0.0575 -0.2027
59476W        W 2388  11.942  17.004  29.535  0.3733 -0.0419 -0.1281
59477W        W 2389  12.496  16.016  29.135  0.2480  0.0111  0.1105
59478W        W 2390  11.502  15.973  27.624  0.0151  0.0076  0.3792
59479W        W 2391  13.708  17.641  28.312  0.1328  0.1483  0.1274
59480W        W 2392  12.250  14.249  30.022 -0.0871  0.0757  0.2358
59481W        W 2393  14.140  16.014  29.774  0.1101  0.0274 -0.2081
59482W        W 2394  13.740  16.684  27.175 -0.1344 -0.5560 -0.0141
59483W        W 2395  11.101  15.841  28.015 -0.4046  0.2587 -0.3530
59484W        W 2396  10.678  15.797  30.137  0.1827 -0.1390 -0.0753
59485W        W 2397  12.170  16.182  29.678 -0.2416  0.0546  0.1052
59486W        W 2398  13.140  14.712  29.964  0.3435 -0.1582 -0.0572
59487W        W 2399  14.475  15.707  27.606  0.2939 -0.0666  0.0452
59488W        W 2400  13.077  18.087  27.910 -0.1469  0.0182  0.0380
59489W        W 2401  14.299  17.100  27.712 -0.0158  0.0517  0.0304
59490W        W 2402  14.399  14.600  28.725 -0.0718 -0.0247  0.0048
59491W        W 2403  12.826  16.638  27.436 -0.3606 -0.0717 -0.1982
59492W        W 2404  10.430  18.527  28.291 -0.0040  0.2330 -0.2135
59493W        W 2405  13.859  17.488  27.648 -0.2997 -0.3100  0.0158
59494W        W 2406  14.028  18.188  28.400  0.0129  0.1552  0.0230
59495W        W 2407  11.865  16.500  28.337 -0.1156  0.1224  0.1728
59496W        W 2408  11.759  17.535  28.190 -0.0535 -0.0863 -0.2026
59497W        W 2409  13.341  18.595  30.667 -0.0643 -0.1363 -0.1614
59498W        W 2410  13.153  18.731  29.021 -0.3374 -0.2766  0.0270
59499W        W 2411  13.083  14.433  30.330 -0.0310 -0.0729  0.4029
59500W        W 2412  12.339  16.567  26.772 -0.1882 -0.0505 -0.1000
59501W        W 2413  12.647  17.882  27.173  0.1465 -0.2079  0.0646
59502W        W 2414  12.662  16.329  28.784 -0.1340  0.0556  0.0723
59503W        W 2415  12.721  15.528  30.056  0.1614 -0.1890  0.1441
59504W        W 2416  11.609  15.957  29.941  0.0337  0.0654  0.0057
59505W        W 2417  14.613  15.867  31.070 -0.2743 -0.3124 -0.0653
59506W        W 2418  12.378  18.329  26.533 -0.3457 -0.0463 -0.0235
59507W        W 2419  13.008  15.449  26.792 -0.1227 -0.1166  0.0584
59508W        W 2420  12.164  15.533  27.138  0.0765  0.1767  0.0279
59509W        W 2421  13.655  14.686  24.692 -0.1729  0.1632  0.0717
59510W        W 2422  12.364  15.205  30.309 -0.2705  0.1345 -0.2173
59511W        W 2423  11.050  18.700  29.550  0.3447  0.4939  0.0967
59512W        W 2424  12.156  14.986  31.176 -0.1025 -0.1675  0.4490
59513W        W 2425  14.431  18.609  30.095  0.1382 -0.1044 -0.1223
59514W        W 2426  13.101  17.023  27.604  0.0313 -0.2207 -0.1441
59515W        W 2427  12.534  14.014  30.410  0.1942 -0.1155 -0.0772
59516W        W 2428  12.194  16.506  28.779 -0.1947 -0.0764  0.2051
59517W        W 2429  12.141  16.551  27.295  0.1505 -0.0712 -0.1796
59518W        W 2430  13.316  16.985  26.280  0.2402  0.3329  0.1160
59519W        W 2431  14.559  17.684  25.983  0.3963  0.1033 -0.1874
59520W        W 2432  14.500  18.418  26.530 -0.2089  0.0747  0.3284
59521W        W 2433  13.708  16.996  27.526  0.1828 -0.0198 -0.0320
59522W        W 2434  11.381  16.668  31.284  0.2037  0.1030 -0.0970
59523W        W 2435  11.593  16.171  30.466 -0.1701  0.3210 -0.0115
59524W        W 2436  11.992  16.259  27.710  0.1402  0.1862 -0.2270
59525W        W 2437  15.266  17.355  27.900  0.1417  0.1674  0.0813
59526W        W 2438  11.972  17.870  29.243  0.3573 -0.1569  0.2031
59527W        W 2439  14.614  15.369  26.256  0.2311 -0.0451  0.0399
59528W        W 2440  12.999  17.501  28.748  0.2683  0.1470  0.4609
59529W        W 2441  15.158  17.085  27.440  0.1938 -0.0809  0.2000
59530W        W 2442  12.827  16.547  24.564 -0.2554  0.0984  0.2381
59531W        W 2443  13.840  14.829  28.250 -0.3682  0.2372  0.0933
59532W        W 2444  13.914  14.313  28.645 -0.2085  0.2805  0.0655
59533W        W 2445  11.759  16.396  26.671  0.1313  0.0271  0.0901
59534W        W 2446  13.420  16.812  27.963  0.0743  0.0086 -0.0008
59535W        W 2447  14.511  18.107  28.412  0.1720 -0.0519 -0.2229
59536W        W 2448  12.337  16.933  27.565 -0.0719 -0.0116  0.1338
59537W        W 2449  10.261  16.681  29.163 -0.0349  0.0556  0.3680
59538W        W 2450  10.772  14.860  29.009 -0.0585  0.0155 -0.1053
59539W        W 2451  12.741  18.619  29.873  0.0605  0.0933  0.1097
59540W        W 2452  12.891  17.154  26.100 -0.1978 -0.0024  0.1239
59541W        W 2453  11.395  16.540  28.479 -0.2836  0.0151 -0.2037
59542W        W 2454  12.828  18.349  27.224  0.1414  0.1139  0.1017
59543W        W 2455  11.880  15.682  29.063 -0.0555  0.0489  0.0170
59544W        W 2456  13.361  17.140  28.382  0.1085 -0.0554  0.0492
59545W        W 2457  11.980  14.917  30.610 -0.1685  0.1736 -0.0464
59546W        W 2458  15.051  14.180  27.912 -0.1658  0.4724  0.2446
59547W        W 2459  12.480  17.447  27.552  0.1185  0.2587  0.1638
59548W        W 2460  13.301  18.902  27.694 -0.3497 -0.3304  0.0664
59549W        W 2461  13.968  15.125  24.934 -0.0245 -0.1001  0.2247
59550W        W 2462  14.278  17.825  24.632  0.2197  0.2425  0.1881
59551W        W 2463  12.523  14.991  30.740  0.1007  0.2210  0.0984
59552W        W 2464  11.615  15.110  28.318  0.0865  0.1159 -0.1699
59553W        W 2465  11.869  16.513  31.639  0.1397 -0.2782 -0.0854
59554W        W 2466  11.948  16.833  29.079 -0.2804  0.1853  0.1315
59555W        W 2467  13.494  16.676  29.459 -0.0661  0.1673 -0.1525
59556W        W 2468  12.644  14.411  28.619 -0.1122  0.0915 -0.0155
59557W        W 2469  13.626  14.958  27.796  0.1191 -0.2569  0.1355
59558W        W 2470  10.920  15.671  26.267  0.2252  0.2435 -0.1854
59559W        W 2471  11.680  16.438  28.989 -0.2812 -0.1217 -0.1087
59560W        W 2472  12.045  14.929  29.617 -0.1773 -0.0231 -0.0475
59561W        W 2473  13.879  17.091  26.289  0.4686 -0.0440  0.0916
59562W        W 2474  14.369  17.858  26.873 -0.2304  0.0197  0.3214
59563W        W 2475  14.574  17.909  26.402 -0.0850 -0.2167  0.0855
59564W        W 2476  12.382  13.842  29.248 -0.0068  0.1166 -0.0898
59565W        W 2477  11.133  15.259  27.135 -0.1758  0.0551 -0.0797
59566W        W 2478  12.467  16.711  28.351  0.0067  0.3916 -0.0606
59567W        W 2479  11.999  16.755  27.928 -0.4571 -0.0889  0.0046
59568W        W 2480  13.041  14.706  28.818 -0.0407 -0.1436 -0.0987
59569W        W 2481  14.936  18.892  28.556  0.2734 -0.1982  0.1149
59570W        W 2482  12.439  18.349  25.960 -0.2772  0.0585 -0.2391
59571W        W 2483  11.608  16.958  28.831 -0.2050 -0.1963  0.0608
59572W        W 2484  13.332  13.164  28.276 -0.3407  0.3541 -0.0472
59573W        W 2485  14.396  15.259  28.404  0.0668  0.0718  0.0852
59574W        W 2486  13.380  15.726  27.171 -0.1403 -0.0109 -0.1433
59575W        W 2487  11.569  15.036  27.318  0.1319 -0.0998 -0.1051
59576W        W 2488  13.965  17.694  27.141  0.1271 -0.0882  0.0158
59577W        W 2489  11.468  18.134  26.426 -0.1164 -0.0290 -0.2946
59578W        W 2490  10.809  15.192  27.545  0.1019 -0.4109  0.0129
59579W        W 2491  13.166  18.366  28.386 -0.1374 -0.0519 -0.0205
59580W        W 2492  13.788  14.260  28.131 -0.0681 -0.2935  0.4781
59581W        W 2493  11.848  17.105  30.099 -0.0884 -0.1534 -0.2178
59582W        W 2494  13.335  15.873  28.915 -0.2528  0.2400 -0.0179
59583W        W 2495  10.258  16.522  29.615  0.1213 -0.0923  0.1513
59584W        W 2496  11.706  17.433  29.273  0.0419  0.0973  0.0031
59585W        W 2497  13.882  14.877  26.825 -0.1235 -0.0608 -0.1345
59586W        W 2498  13.684  16.413  29.865  0.1266  0.0326 -0.2757
59587W        W 2499  13.467  15.456  26.148 -0.0502 -0.2186  0.0296
59588W        W 2500  12.890  14.551  26.567  0.1318  0.0079 -0.0623
59589W        W 2501  12.799  14.444  27.115  0.1604 -0.0734 -0.1576
59590W        W 2502  11.334  16.634  30.696 -0.0325 -0.1065  0.2904
59591W        W 2503  12.939  17.395  27.247 -0.1087  0.0895  0.3034
59592W        W 2504  13.610  16.579  28.372  0.0514  0.1175 -0.0668
59593W        W 2505  12.863  14.887  27.394 -0.1835 -0.2107 -0.0521
59594W        W 2506  10.676  16.159  29.686  0.1661  0.1429  0.0006
59595W        W 2507  15.281  16.703  30.923  0.1214 -0.0945 -0.0362
59596W        W 2508  13.517  16.863  26.748  0.0886 -0.0395 -0.0150
59597W        W 2509  12.351  14.485  30.537  0.2761  0.0228 -0.2112
59598W        W 2510  12.900  16.260  27.801 -0.3516  0.0675 -0.1460
59599W        W 2511  13.510  15.568  26.634 -0.0564  0.1640  0.2398
59600W        W 2512  11.976  17.334  26.798 -0.0183  0.3138 -0.2143
59601W        W 2513  13.888  15.922  26.898 -0.1289  0.1032 -0.0418
59602W        W 2514  13.412  14.002  29.097  0.1138 -0.0706 -0.0083
59603W        W 2515  13.743  15.120  31.371  0.0285 -0.0749  0.0013
59604W        W 2516  14.772  16.540  28.277  0.2691 -0.0025 -0.0104
59605W        W 2517  13.645  15.064  25.553  0.0649  0.0778 -0.2670
59606W        W 2518  13.712  16.163  27.332 -0.0358 -0.3276  0.0480
59607W        W 2519  11.728  15.413  27.654  0.1405  0.1117 -0.0830
59608W        W 2520  12.791  14.803  30.309  0.2607  0.0050 -0.0747
59609W        W 2521  12.318  16.007  28.646  0.0361  0.1728 -0.1498
59610W        W 2522  11.866  17.690  29.785  0.0772  0.0724  0.1994
59611W        W 2523  13.363  16.800  28.784  0.2788 -0.0902 -0.1043
59612W        W 2524  13.142  16.618  27.005  0.1150  0.0023  0.2097
59613W        W 2525  13.483  16.061  30.225  0.1559  0.0127  0.0606
59614W        W 2526  13.431  14.582  28.189  0.2161 -0.1523 -0.1626
59615W        W 2527  12.276  17.764  26.377 -0.1030  0.2746  0.1223
59616W        W 2528  12.716  16.339  26.426  0.2893  0.0023 -0.1838
59617W        W 2529  12.247  14.148  28.452 -0.0127  0.1615 -0.0746
59618W        W 2530  13.749  18.073  29.288  0.2833 -0.0983 -0.0648
59619W        W 2531  12.311  16.594  24.828  0.2729  0.0825 -0.1058
59620W        W 2532  13.036  16.953  30.153  0.0389  0.1452 -0.2545
59621W        W 2533  11.408  18.187  28.641  0.1404 -0.0516 -0.2455
59622W        W 2534  13.299  14.133  28.093  0.1498  0.1401 -0.3604
59623W        W 2535  11.322  17.352  28.055  0.1178  0.0141 -0.2420
59624W        W 2536  12.148  14.666  27.804 -0.1350 -0.0036  0.1452
59625W        W 2537  11.080  15.971  29.813 -0.3799 -0.2817 -0.2985
59626W        W 2538  14.249  15.645  26.494 -0.0338 -0.1091  0.1276
59627W        W 2539  13.751  16.492  24.431  0.0325 -0.1060  0.0993
59628W        W 2540  11.809  15.311  29.377  0.3909  0.0421  0.0595
59629W        W 2541  12.672  14.991  29.875 -0.1853  0.0533 -0.0932
59630W        W 2542  10.248  17.046  28.779  0.0475  0.0377 -0.0077
59631W        W 2543  14.148  15.353  29.770  0.2359 -0.0071 -0.0173
59632W        W 2544  13.997  14.628  27.335  0.0284  0.0216 -0.3125
59633W        W 2545  14.688  15.839  26.381  0.0036  0.2080 -0.2654
59634W        W 2546  12.106  16.701  29.937  0.0333 -0.0412 -0.0564
59635W        W 2547  10.665  15.769  30.695 -0.1734  0.3670 -0.1252
59636W        W 2548  14.506  16.447  28.802 -0.2750  0.1891  0.0959
59637W        W 2549  13.942  15.964  27.757 -0.0409  0.1452  0.1262
59638W        W 2550  11.797  16.052  28.728 -0.1397 -0.0518 -0.0830
59639W        W 2551  13.759  17.266  26.936  0.1558 -0.0018  0.1327
59640W        W 2552  12.732  16.336  27.000  0.2603 -0.2240  0.0997
59641W        W 2553  12.096  18.344  27.655 -0.0701 -0.2065  0.0075
59642W        W 2554  13.682  15.694   0.019  0.2693  0.0477 -0.0452
59643W        W 2555  14.601  16.280  26.980  0.2001 -0.0389  0.1904
59644W        W 2556  12.048  15.753  27.813  0.1477 -0.2464 -0.0170
59645W        W 2557  12.646  17.086  27.896 -0.0513  0.0010  0.2614
59646W        W 2558  14.437  16.804  26.946  0.2054  0.1089 -0.1587
59647W        W 2559  14.208  16.697  28.211 -0.1122  0.0144  0.4805
59648W        W 2560  13.278  14.955  30.385 -0.3138  0.1973  0.0292
59649W        W 2561  12.055  17.789  30.606 -0.2716  0.1474  0.0606
59650W        W 2562  12.076  13.664  28.806  0.1607 -0.1730 -0.0738
59651W        W 2563  14.452  18.041  25.130  0.0390  0.1796 -0.0778
59652W        W 2564  14.318  17.183  28.542 -0.3354  0.1403 -0.2226
59653W        W 2565  12.014  16.016  28.239  0.0944  0.1928  0.2404
59654W        W 2566  11.466  17.804  29.024  0.2633 -0.0653  0.0592
59655W        W 2567  11.102  16.886  27.103 -0.1916  0.0385 -0.0305
59656W        W 2568  13.354  14.987  28.575  0.2163 -0.1343 -0.0459
59657W        W 2569  10.787  17.610  28.843  0.0471  0.1262 -0.0815
59658W        W 2570  11.719  17.135  27.852  0.0537  0.1411  0.0062
59659W        W 2571  11.213  17.559  29.434 -0.0943  0.0366  0.2395
59660W        W 2572  13.392  14.150  25.971  0.1025 -0.1781 -0.3274
59661W        W 2573  14.354  17.024  24.311 -0.1540  0.0723  0.0536
59662W        W 2574  13.938  16.573  27.790 -0.2888  0.0662 -0.3228
59663W        W 2575  14.099  14.399  29.597 -0.1799 -0.0576  0.1616
59664W        W 2576  13.169  14.749  24.956 -0.1988 -0.0583 -0.2618
59665W        W 2577  14.593  14.848  31.023 -0.1410 -0.4377  0.2710
59666W        W 2578  12.432  14.576  31.335  0.0813  0.1366  0.1209
59667W        W 2579  14.221  16.696  27.415 -0.1004  0.2607 -0.0626
59668W        W 2580  11.455  15.634  30.628  0.2152 -0.2846  0.3124
59669W        W 2581  13.641  16.558  30.379  0.2040 -0.1260  0.2300
59670W        W 2582  11.440  17.560  30.285 -0.2636  0.1332  0.0217
59671W        W 2583  13.870  15.653  27.344 -0.2500 -0.1717  0.1904
59672W        W 2584  13.176  14.770  27.791 -0.1828  0.3048 -0.0766
59673W        W 2585  14.047  16.201  30.257  0.0531 -0.2221 -0.0716
59674W        W 2586  13.993  16.643  28.781 -0.2060 -0.1287  0.0565
59675W        W 2587  12.250  16.974  25.305 -0.2994  0.0886  0.0387
59676W        W 2588  14.599  15.407  26.792 -0.0176 -0.0660 -0.0471
59677W        W 2589  11.908  16.992  28.366  0.2518  0.2248  0.0774
59678W        W 2590  12.881  15.719  27.612 -0.0012 -0.2196  0.2367
59679W        W 2591  13.777  15.994  26.336  0.2292  0.2535 -0.0659
59680W        W 2592  12.438  16.531  27.798  0.1049  0.1622 -0.1693
59681W        W 2593  10.723  15.309  30.876 -0.1480  0.2625  0.2119
59682W        W 2594  13.245  17.667  28.157  0.2297  0.0370  0.2255
59683W        W 2595  13.684  15.580  28.153 -0.3606  0.1210  0.1856
59684W        W 2596  13.255  15.673  29.782 -0.0680  0.1409 -0.1170
59685W        W 2597  15.187  15.634  28.359 -0.0509 -0.2001  0.2111
59686W        W 2598  12.875  15.794  28.577 -0.0553 -0.3964  0.0913
59687W        W 2599  11.876  14.539  30.298 -0.0256 -0.0017  0.1950
59688W        W 2600  13.448  17.462  28.894  0.2069 -0.2952 -0.0282
59689W        W 2601  14.642  14.774  28.297 -0.1381  0.2219 -0.0053
59690W        W 2602  13.779  16.554  26.434 -0.0594 -0.0641  0.0047
59691W        W 2603  12.070  15.644  26.679 -0.2184 -0.1753  0.3206
59692W        W 2604  11.722  16.819  27.469 -0.2310 -0.1697  0.0791
59693W        W 2605  14.539  16.406  30.144 -0.0030  0.0979  0.1689
59694W        W 2606  12.570  14.935  27.782 -0.2633  0.0833  0.1373
59695W        W 2607  13.450  15.054  30.986 -0.1025  0.0195 -0.2140
59696W        W 2608  13.340  16.564  25.318 -0.0735 -0.0109  0.0832
59697W        W 2609  14.776  17.406  27.743  0.2051 -0.3571 -0.1181
59698W        W 2610  12.939  15.240  27.760  0.0230  0.2314 -0.1822
59699W        W 2611  11.315  15.705  28.539 -0.2334 -0.1671  0.0844
59700W        W 2612  12.610  18.116  28.880 -0.1543 -0.1768 -0.0147
59701W        W 2613  10.690  15.634  28.297 -0.0557 -0.1349 -0.3537
59702W        W 2614  12.625  16.849  27.068  0.1315  0.0833  0.3460
59703W        W 2615  13.978  16.199  28.237 -0.1714 -0.1430  0.0591
59704W        W 2616  14.963  16.559  29.647  0.0196 -0.0552 -0.3853
59705W        W 2617  12.150  15.110  27.517 -0.0564 -0.1416  0.1108
59706W        W 2618  14.736  15.566  28.642 -0.0224 -0.1482  0.3926
59707W        W 2619  12.189  17.256  27.999 -0.3075 -0.0942  0.1561
59708W        W 2620  14.127  14.854  27.800  0.0296  0.2716 -0.2011
59709W        W 2621  13.538  19.244  28.294  0.2045 -0.1543  0.0910
59710W        W 2622  11.351  17.091  31.015  0.1715 -0.0337  0.1653
59711W        W 2623  12.090  17.407  28.844  0.0256  0.2680 -0.2304
59712W        W 2624  13.665  15.186  29.085 -0.2560  0.2632 -0.1505
59713W        W 2625  13.574  15.208  30.061  0.0227 -0.1969  0.1727
59714W        W 2626  13.838  15.677  28.844  0.1467 -0.2429  0.0422
59715W        W 2627  13.554  15.985  28.388 -0.0295  0.0922 -0.1486
59716W        W 2628  14.459  15.880  30.189  0.1738 -0.0138 -0.0456
59717W        W 2629  14.372  16.072  27.943  0.1408 -0.2456 -0.2441
59718W        W 2630  14.360  17.309  26.825  0.1020  0.1174  0.0419
59719W        W 2631  15.014  16.606  26.925  0.3308  0.0727 -0.3882
59720W        W 2632  11.228  15.500  27.583  0.1961 -0.0438 -0.0814
59721W        W 2633  11.579  16.235  31.305  0.1011 -0.0027  0.0550
59722W        W 2634  13.639  16.294  28.840  0.0791 -0.2374 -0.1317
59723W        W 2635  13.399  15.879  27.656  0.1940 -0.1329 -0.1472
59724W        W 2636  12.934  14.171  29.107 -0.1195  0.1518  0.2123
59725W        W 2637  13.326  17.811  25.423  0.1457  0.0264  0.1996
59726W        W 2638  11.731  16.625  30.258  0.0225 -0.3213  0.1688
59727W        W 2639  12.225  16.502  30.527  0.1555 -0.1813  0.0910
59728W        W 2640  11.619  18.600  27.509  0.0394 -0.0075  0.1385
59729W        W 2641  12.974  16.621  26.084  0.0877  0.4855  0.0187
59730W        W 2642  13.241  16.192  26.148  0.0272 -0.0444  0.0091
59731W        W 2643  12.374  17.792  29.540 -0.2384  0.3149 -0.2823
59732W        W 2644  12.686  15.744  27.101 -0.0730 -0.1553 -0.1107
59733W        W 2645  11.903  17.836  28.647  0.0340  0.1501  0.3555
59734W        W 2646  11.332  17.310  26.927  0.1272  0.0127  0.0323
59735W        W 2647  13.940  17.868  25.086  0.2076  0.3812 -0.3335
59736W        W 2648  13.193  18.745  27.218  0.0386  0.0429 -0.0236
59737W        W 2649  15.766  17.238  28.696 -0.1876 -0.0426 -0.2784
59738W        W 2650  14.138  13.842  24.867 -0.4502  0.0648 -0.2793
59739W        W 2651  14.377  14.524  26.777  0.1055  0.0358 -0.1721
59740W        W 2652  13.413  15.170  26.982 -0.0419  0.1262  0.3568
59741W        W 2653  13.753  18.708  29.545 -0.2472 -0.1195 -0.2625
59742W        W 2654  12.610  16.265  28.256 -0.1171  0.1969 -0.0052
59743W        W 2655  11.957  13.833  28.151  0.0475 -0.1553 -0.0354
59744W        W 2656  13.048  16.812  29.623  0.2921  0.0301  0.0650
59745W        W 2657  17.298  15.071  28.644  0.4983 -0.0910  0.4031
59746W        W 2658   9.330  17.764  28.925  0.1111  0.2515 -0.0434
59747W        W 2659  13.545  17.392  26.453 -0.1631  0.1927 -0.0685
59748W        W 2660  10.116  15.854  28.199  0.0295 -0.0915 -0.1539
59749W        W 2661  13.332  17.084  27.160  0.2434  0.0279 -0.0726
59750W        W 2662  13.586  13.976  28.478 -0.0753  0.2700 -0.0086
59751W        W 2663  12.856  16.781  26.616 -0.0096  0.1124  0.3518
59752W        W 2664  11.547  15.571  28.070  0.1606 -0.1529  0.3251
59753W        W 2665  12.574  17.991  25.478  0.0267 -0.0485 -0.1577
59754W        W 2666  12.910  18.597  27.719 -0.0857  0.0148 -0.0477
59755W        W 2667  14.464  18.196  29.463  0.2247 -0.1141  0.0029
59756W        W 2668  12.335  15.648  29.372 -0.0476  0.2919  0.0645
59757W        W 2669  12.278  15.324  29.802 -0.2724  0.0173  0.4301
59758W        W 2670  12.753  14.999  29.379 -0.1002  0.0003  0.2138
59759W        W 2671  13.908  17.134  28.165  0.2313  0.1161  0.0641
59760W        W 2672  13.916  16.039  24.932 -0.0930  0.2190  0.1295
59761W        W 2673  12.355  15.572  28.337 -0.3768  0.0342 -0.0432
59762W        W 2674  11.107  16.034  30.437  0.0386 -0.1159  0.4678
59763W        W 2675  11.526  16.450  27.753 -0.3548 -0.0057  0.1979
59764W        W 2676  14.799  16.460  27.396  0.3002  0.1547 -0.1041
59765W        W 2677  13.716  14.641  25.858 -0.4848  0.3773 -0.0196
59766W        W 2678  13.741  17.015  29.153  0.1272 -0.0367 -0.0267
59767W        W 2679  11.210  14.970  28.590  0.1705  0.3510  0.0634
59768W        W 2680  11.998  15.293  28.026  0.2517 -0.2058  0.0353
59769W        W 2681  11.557  16.093  28.150  0.0195 -0.0240  0.3126
59770W        W 2682  13.079  15.778  28.123  0.0431 -0.3929  0.2501
59771W        W 2683  14.574  18.579  29.124  0.0294  0.0721  0.1625
59772W        W 2684  12.846  15.365  28.364  0.0472 -0.1536 -0.0368
59773W        W 2685  13.490  18.468  25.601 -0.3175  0.3582  0.1289
59774W        W 2686  14.073  15.353  27.984 -0.3556 -0.1561 -0.0309
59775W        W 2687  14.710  18.758  26.270  0.0840 -0.0403 -0.1239
59776W        W 2688  13.466  17.590  27.341  0.0948  0.0898  0.0115
59777W        W 2689  13.573  16.654  25.871  0.0347  0.1514 -0.0489
59778W        W 2690  11.219  15.603  29.475  0.2286  0.2344 -0.2316
59779W        W 2691  14.071  17.415  29.011  0.1507 -0.0195  0.2968
59780W        W 2692  14.114  16.158  28.723  0.2455  0.0547 -0.2685
59781W        W 2693  13.801  14.222  26.555  0.2868  0.4025 -0.2260
59782W        W 2694  12.023  16.177  29.193  0.2050 -0.0130  0.1482
59783W        W 2695  10.878  16.666  28.377  0.2681  0.2696  0.1581
59784W        W 2696  13.852  15.098  27.291  0.1021  0.1452  0.0926
59785W        W 2697  14.098  14.725  29.194  0.1713  0.3450 -0.0431
59786W        W 2698  13.630  17.800  26.796 -0.0615 -0.0740  0.0152
59787W        W 2699  14.743  16.109  29.704  0.1150  0.2663  0.3247
59788W        W 2700  14.261  16.039  29.160  0.3058  0.0006 -0.1838
59789W        W 2701  12.372  18.199  28.453  0.0644  0.0884 -0.2548
59790W        W 2702  11.639  16.829  26.926  0.1342 -0.1399  0.2168
59791W        W 2703  13.056  18.203  29.761 -0.0819  0.3419 -0.0805
59792W        W 2704  12.806  17.426  28.301 -0.0359  0.0356 -0.5070
59793W        W 2705  12.458  17.427  27.025 -0.1392 -0.0247  0.1066
59794W        W 2706  14.512  16.518  27.784 -0.1157  0.1255  0.1900
59795W        W 2707  13.932  15.780  29.359  0.1112  0.1032 -0.1705
59796W        W 2708  13.128  14.346  27.518 -0.3411  0.0786 -0.0164
59797W        W 2709  14.585  14.893  27.432 -0.2615  0.1078  0.2148
59798W        W 2710  13.769  15.188  28.581 -0.2351  0.1415 -0.0243
59799W        W 2711  11.931  15.936  27.351  0.0494  0.2221  0.1916
59800W        W 2712  12.456  17.536  26.002 -0.0973 -0.3061 -0.1416
59801W        W 2713  12.213  15.670  30.171 -0.3074  0.0214  0.3784
59802W        W 2714  15.267  15.446  30.573  0.2846  0.1025  0.0969
59803W        W 2715  12.921  15.992  30.005 -0.0353 -0.4025 -0.0033
59804W        W 2716  13.040  15.324  29.037  0.0728 -0.2131 -0.1133
59805W        W 2717  12.932  14.867  28.318  0.0403 -0.1437 -0.3363
59806W        W 2718  13.195  17.963  25.960 -0.3104 -0.0612  0.0806
59807W        W 2719  12.395  15.097  28.321  0.1311 -0.2764 -0.1957
59808W        W 2720  11.527  15.313  28.971  0.0765  0.0777 -0.0736
59809W        W 2721  13.643  16.965  25.429  0.4272  0.0506  0.1986
59810W        W 2722  13.220  16.449  26.553 -0.0745 -0.0562  0.1518
59811W        W 2723  13.450  13.948  27.640  0.2263  0.2557  0.4562
59812W        W 2724  14.482  18.959  28.221 -0.3855  0.0890  0.1495
59813W        W 2725  11.342  16.791  26.543  0.1067 -0.3325 -0.4534
59814W        W 2726  13.936  15.417  26.874  0.0857 -0.0986 -0.0276
59815W        W 2727  12.103  15.345  31.736 -0.0994  0.1166  0.0542
59816W        W 2728  11.463  14.665  28.212  0.1141  0.4190 -0.0617
59817W        W 2729  12.424  14.559  29.637  0.0333  0.3901  0.0817
59818W        W 2730  13.780  17.895  28.780 -0.0316 -0.3353  0.2138
59819W        W 2731  13.909  18.790  25.719 -0.0204  0.0028  0.0468
59820W        W 2732  12.510  15.816  29.778  0.3114 -0.1529  0.2466
59821W        W 2733  12.512  17.640  28.756 -0.1936 -0.0986 -0.1310
59822W        W 2734  12.030  13.792  30.869  0.1713  0.0848  0.2296
59823W        W 2735  12.878  16.612  25.237  0.0682 -0.2720  0.0285
59824W        W 2736  12.865  15.433  29.517 -0.0121  0.4114  0.1574
59825W        W 2737  13.773  16.602  25.024 -0.1234  0.0893  0.0902
59826W        W 2738  14.329  15.398  27.250  0.1703  0.1836 -0.1712
59827W        W 2739  13.014  16.623  28.205 -0.1286 -0.0465  0.2586
59828W        W 2740  10.697  14.765  31.084  0.0178  0.1809 -0.1453
59829W        W 2741  11.027  18.139  29.520 -0.0674  0.0577 -0.2944
59830W        W 2742  15.165  16.418  27.946 -0.1291  0.1308 -0.1081
59831W        W 2743  11.827  14.516  29.827  0.3553 -0.5651  0.2541
59832W        W 2744  14.156  15.022  28.826  0.1805 -0.0698 -0.2227
59833W        W 2745  13.108  17.552  26.367  0.2701 -0.0910  0.0106
59834W        W 2746  12.152  15.914  30.591 -0.3721 -0.1806 -0.0288
59835W        W 2747  13.500  16.297  27.946  0.3057 -0.2790 -0.3293
59836W        W 2748  14.531  17.438  29.439  0.1652 -0.0143 -0.0754
59837W        W 2749  13.540  18.069  28.222 -0.0043  0.1403  0.1633
59838W        W 2750  13.301  17.644  29.374 -0.0193  0.1535 -0.4040
59839W        W 2751  13.512  17.868  27.756 -0.0447 -0.2555 -0.0408
59840W        W 2752  14.037  16.070  24.409  0.0565  0.0297  0.0818
59841W        W 2753  13.322  18.331  26.932 -0.1040  0.0233 -0.1357
59842W        W 2754  15.303  17.455  28.425  0.4211  0.0825  0.0906
59843W        W 2755  12.767  17.741  29.809  0.0421 -0.0541 -0.1910
59844W        W 2756  13.181  16.263  28.634  0.1364 -0.0140 -0.2865
59845W        W 2757  11.027  15.161  29.364  0.0165  0.1415 -0.0813
59846W        W 2758  13.315  16.600  27.476  0.0253  0.1315 -0.0722
59847W        W 2759  14.101  16.418  26.891  0.0582  0.0459  0.0604
59848W        W 2760  14.625  15.612  28.156 -0.0381  0.1380 -0.1259
59849W        W 2761  12.612  15.001  28.759 -0.1922  0.1398  0.1334
59850W        W 2762  14.293  14.178  25.610 -0.3132  0.0924 -0.2783
59851W        W 2763  11.973  18.459  28.454 -0.1711 -0.2422  0.2324
59852W        W 2764  15.118  17.629  27.254 -0.0260  0.3401 -0.1484
59853W        W 2765  13.908  15.487  30.897  0.0731 -0.5345  0.1080
59854W        W 2766  15.410  18.428  29.624  0.2961 -0.2063 -0.1045
59855W        W 2767  13.441  15.374  27.569  0.0090 -0.2107  0.1679
59856W        W 2768  12.269  17.333  29.315  0.1995  0.0477 -0.0361
59857W        W 2769  13.302  16.405  31.347  0.0548  0.1370  0.1363
59858W        W 2770  10.339  16.886  31.122 -0.0825 -0.2144  0.1120
59859W        W 2771  15.045  15.758  29.391 -0.1325  0.0299 -0.2099
59860W        W 2772  13.956  15.917  31.155  0.0702 -0.2726  0.0370
59861W        W 2773  15.219  15.779  31.496  0.0590 -0.2201  0.0699
59862W        W 2774  15.798  18.381  28.768 -0.2527 -0.1069 -0.1746
59863W        W 2775  14.253  16.545  29.773 -0.0496 -0.3432 -0.1119
59864W        W 2776  12.065  14.514  31.006  0.2700  0.0099  0.0123
59865W        W 2777  14.255  15.940  30.686  0.2904 -0.2287  0.1908
59866W        W 2778  12.893  15.610  31.160 -0.3176  0.2847 -0.0452
59867W        W 2779  15.418  17.842  29.642  0.1003  0.0154 -0.2820
59868W        W 2780  12.671  18.668  29.248  0.0403 -0.2700 -0.2015
59869W        W 2781  13.362  16.475  30.781  0.1548 -0.1120  0.2226
59870W        W 2782  15.660  16.500  29.590  0.2803  0.0160  0.0230
59871W        W 2783  11.118  14.246  31.696 -0.0630  0.2547  0.2263
59872W        W 2784  10.084  15.273  31.478 -0.3172  0.0085 -0.1524
59873W        W 2785  11.946  15.701  29.645  0.0321  0.0309 -0.0992
59874W        W 2786  11.101  18.292  31.420  0.0893 -0.3544  0.0423
59875W        W 2787  13.741  15.738  29.943 -0.0968 -0.2311 -0.2494
59876W        W 2788  13.715  15.371  29.565  0.0911  0.0665 -0.0793
59877W        W 2789  13.980  14.977  30.997 -0.1501  0.2309  0.0141
59878W        W 2790  13.663  15.166  30.588  0.3946 -0.2592  0.3041
59879W        W 2791  11.572  17.022   0.180 -0.0056 -0.0295 -0.0574
59880W        W 2792  10.848  17.599  30.189 -0.0411  0.3667 -0.0237
59881W        W 2793  12.290  16.536  29.370 -0.0655  0.2581 -0.0876
59882W        W 2794  13.106  16.446  29.895  0.0779  0.1445 -0.1033
59883W        W 2795  12.844  17.122  30.581 -0.2359 -0.0739  0.0201
59884W        W 2796  12.562  15.718  31.521 -0.0165  0.4960  0.1901
59885W        W 2797  15.970  16.354  30.531 -0.0829  0.1054  0.2835
59886W        W 2798  14.040  14.984  30.085 -0.2069  0.1300 -0.0241
59887W        W 2799  12.487  16.421  29.972  0.2612  0.1861  0.0167
59888W        W 2800  13.495  16.875  29.919 -0.1325  0.0913  0.2061
59889W        W 2801  12.748  16.320  29.481  0.3414  0.0299  0.0192
59890W        W 2802  14.051  15.560  30.273  0.5494 -0.2754 -0.0233
59891W        W 2803  14.337  16.314  31.089  0.2960 -0.2932 -0.2404
59892W        W 2804  14.681  15.610  29.801  0.2673  0.2125 -0.0770
59893W        W 2805  14.543  15.012  29.171 -0.3328 -0.2667  0.0278
59894W        W 2806  13.512  16.100  29.438 -0.0660 -0.1833  0.0862
59895W        W 2807  12.620  14.524  30.903  0.1848 -0.0159 -0.3819
59896W        W 2808  13.577  17.384  30.372  0.3042  0.0668 -0.1314
59897W        W 2809  13.166  16.261  31.842  0.0005  0.1252 -0.0274
59898W        W 2810  14.974  16.035  30.650  0.2406 -0.0401 -0.0474
59899W        W 2811  12.577  15.580  30.658  0.1026 -0.3103  0.2542
59900W        W 2812  14.190  18.972  29.208  0.1920  0.2703 -0.3389
59901W        W 2813  15.274  16.153  29.703 -0.0234 -0.1065 -0.4509
59902W        W 2814  10.259  19.479  30.834  0.0461 -0.0527 -0.0642
59903W        W 2815  15.039  17.553  29.123  0.1175 -0.0989 -0.1756
59904W        W 2816  13.491  14.550  29.627  0.2071  0.2966 -0.0136
59905W        W 2817  12.933  13.802  30.036  0.2302 -0.3643  0.0552
59906W        W 2818  13.204  16.354  29.114 -0.1907 -0.0971 -0.0597
59907W        W 2819  14.140  14.819  31.445 -0.0164  0.0976 -0.3533
59908W        W 2820  13.995  16.920  29.606  0.0806  0.1191  0.2502
59909W        W 2821  14.442  16.942  29.504  0.2500  0.1915 -0.1698
59910W        W 2822  12.202  18.644  29.709  0.0801  0.1697 -0.0441
59911W        W 2823  13.623  17.701  29.753 -0.1859 -0.0761  0.0915
59912W        W 2824  13.148  15.422  30.770 -0.2529  0.1973  0.0702
59913W        W 2825  11.363  16.034  30.925 -0.1324 -0.0860  0.2149
59914W        W 2826  12.356  17.353  29.821  0.3565 -0.1271 -0.0107
59915W        W 2827  12.720  17.989  30.257 -0.0241  0.0582 -0.2032
59916W        W 2828   9.654  14.307  30.456 -0.1739 -0.1751 -0.0911
59917W        W 2829  15.590  16.639  30.282 -0.1884 -0.2068  0.1322
59918W        W 2830  15.322  18.616  29.195  0.0358 -0.1210 -0.0747
59919W        W 2831  15.042  14.517  28.744  0.0020  0.0239 -0.1234
59920W        W 2832  12.696  20.831  18.216 -0.4154  0.2625  0.0475
59921W        W 2833  11.702  20.559  17.962  0.2032  0.1035  0.1845
59922W        W 2834  12.959  19.359  15.925 -0.0718  0.2640  0.4637
59923W        W 2835  15.067  21.922  16.898  0.1162 -0.1674  0.0179
59924W        W 2836   9.952  19.318  16.341 -0.0976 -0.1844  0.1913
59925W        W 2837  12.693  22.270  17.245  0.2576  0.3228 -0.1125
59926W        W 2838  11.488  18.471  16.678 -0.0731 -0.1421 -0.1713
59927W        W 2839  14.632  21.742  17.824  0.2749 -0.1802  0.0210
59928W        W 2840  14.276  21.080  18.574  0.0175  0.1423 -0.1525
59929W        W 2841  11.739  20.430  16.566 -0.0968 -0.1159  0.0537
59930W        W 2842  11.410  19.908  20.616 -0.1046 -0.0239 -0.0909
59931W        W 2843  12.135  20.697  18.076 -0.0827 -0.1314  0.1546
59932W        W 2844  13.134  17.144  16.306  0.0450  0.0931 -0.0857
59933W        W 2845  10.270  19.649  18.297  0.0593 -0.0605 -0.0881
59934W        W 2846  12.404  19.293  15.940 -0.1003  0.0681 -0.0258
59935W        W 2847  11.418  20.938  16.446 -0.0165  0.0614  0.0710
59936W        W 2848  11.242  20.650  18.192 -0.0694 -0.2191 -0.2219
59937W        W 2849  12.783  21.531  17.673  0.0950 -0.2059 -0.2140
59938W        W 2850  12.300  20.848  16.436 -0.1332 -0.0629 -0.1400
59939W        W 2851  12.541  18.856  18.781  0.1395 -0.1386 -0.2002
59940W        W 2852  12.751  19.829  20.158 -0.0583 -0.2520  0.0389
59941W        W 2853  13.399  21.422  16.397  0.0430  0.2305  0.0826
59942W        W 2854  11.680  17.634  16.217 -0.2918  0.0147  0.3216
59943W        W 2855   9.751  19.228  19.348 -0.1089  0.0369 -0.3087
59944W        W 2856  11.899  21.656  18.123 -0.1724  0.0807  0.1827
59945W        W 2857  12.354  18.746  19.247 -0.1552  0.0977 -0.1700
59946W        W 2858  13.265  20.570  18.144 -0.0287  0.1477 -0.2693
59947W        W 2859  11.914  20.399  18.575 -0.4217  0.0830 -0.1375
59948W        W 2860  13.121  20.287  16.729 -0.1989  0.1292  0.1072
59949W        W 2861  13.928  19.906  19.719 -0.2009 -0.0311 -0.0271
59950W        W 2862  12.806  21.847  18.108  0.0345 -0.0787 -0.1623
59951W        W 2863  10.978  22.362  18.420 -0.0218  0.0842  0.2193
59952W        W 2864  12.880  20.748  16.639 -0.1641  0.0096  0.2460
59953W        W 2865  14.380  19.921  17.016 -0.0107 -0.1714  0.3743
59954W        W 2866  14.536  22.263  18.568  0.3512  0.2671 -0.1687
59955W        W 2867  12.394  22.598  20.607 -0.0741 -0.1039 -0.4110
59956W        W 2868  10.238  21.540  16.818 -0.1348  0.0656 -0.0011
59957W        W 2869  13.016  22.187  18.578 -0.0632 -0.3021 -0.0122
59958W        W 2870  11.934  22.751  19.319  0.2312 -0.1798  0.0272
59959W        W 2871  12.140  19.842  17.548  0.1774 -0.3397 -0.2471
59960W        W 2872  12.773  19.896  15.979 -0.2771  0.1129  0.1939
59961W        W 2873  12.158  20.322  16.908 -0.2046  0.1303 -0.0899
59962W        W 2874  11.477  20.134  16.092 -0.0489  0.4248  0.2117
59963W        W 2875  10.612  21.079  18.824 -0.0046  0.2716  0.0699
59964W        W 2876  12.163  21.382  17.436  0.2161 -0.1238  0.0218
59965W        W 2877  12.968  17.792  19.129 -0.0085  0.1112  0.0777
59966W        W 2878  12.940  21.166  16.307  0.0353 -0.2014  0.0550
59967W        W 2879  14.365  20.058  15.735 -0.1447 -0.0464 -0.2631
59968W        W 2880  12.933  18.167  15.477  0.0649  0.2129 -0.0198
59969W        W 2881  13.867  20.035  15.911  0.1947 -0.2367  0.2670
59970W        W 2882  12.689  18.991  17.779 -0.3280 -0.5072  0.0464
59971W        W 2883  12.068  23.342  17.582 -0.3766 -0.4747 -0.1657
59972W        W 2884  11.809  19.189  18.021 -0.1344 -0.1463 -0.1814
59973W        W 2885  13.029  21.303  18.781 -0.0739 -0.2332 -0.0376
59974W        W 2886  11.408  19.789  17.378 -0.2079 -0.2721  0.0731
59975W        W 2887  12.951  19.629  18.297 -0.0280 -0.1978 -0.2816
59976W        W 2888  11.862  22.978  16.850 -0.2920 -0.0295 -0.1886
59977W        W 2889  10.947  19.426  17.892  0.0325 -0.1992  0.1761
59978W        W 2890  15.511  21.265  14.915 -0.2086 -0.2476 -0.1222
59979W        W 2891  13.616  22.335  16.342  0.2369  0.2785 -0.2581
59980W        W 2892  12.438  21.286  15.716 -0.0669 -0.1907 -0.2988
59981W        W 2893  11.292  20.438  16.820  0.2806 -0.1694  0.1508
59982W        W 2894  10.057  21.136  19.629 -0.0418 -0.4062 -0.0757
59983W        W 2895  11.269  19.427  20.484  0.0714 -0.0689  0.4332
59984W        W 2896  11.044  17.617  15.224 -0.2572 -0.2098  0.2466
59985W        W 2897  13.894  21.520  20.251 -0.0614 -0.3303 -0.0989
59986W        W 2898  11.447  22.543  17.487  0.4431  0.1366  0.1806
59987W        W 2899  14.344  20.516  17.191  0.2639 -0.2012  0.0327
59988W        W 2900  12.428  21.624  16.873 -0.2257 -0.2389  0.2238
59989W        W 2901  11.996  21.196  18.101 -0.2626  0.0453  0.1987
59990W        W 2902  13.158  20.320  15.337  0.2573  0.0284 -0.1442
59991W        W 2903  13.826  17.881  17.252 -0.0222  0.1165 -0.2687
59992W        W 2904  12.672  18.519  17.709 -0.2158  0.2317  0.0926
59993W        W 2905  11.064  20.957  16.825  0.2310 -0.1129  0.0775
59994W        W 2906  12.072  21.158  16.844  0.0090 -0.1737  0.0201
59995W        W 2907  14.193  19.788  18.742 -0.0315  0.0457 -0.3903
59996W        W 2908  14.045  20.848  15.256 -0.1050  0.0192 -0.0645
59997W        W 2909  11.930  23.151  18.492 -0.0386 -0.1104  0.0517
59998W        W 2910  13.519  19.547  19.259  0.0445 -0.0455  0.2590
59999W        W 2911  12.429  20.929  20.762 -0.2203  0.3923  0.1788
60000W        W 2912  11.656  21.911  16.600  0.4281  0.1601  0.3894
60001W        W 2913  11.657  22.333  20.250  0.1770 -0.0349  0.1824
60002W        W 2914  12.122  20.445  17.581  0.1025 -0.2723  0.1108
60003W        W 2915  10.197  18.720  18.826 -0.0194  0.1568 -0.0773
60004W        W 2916  12.232  22.469  18.481  0.3526  0.0736  0.0977
60005W        W 2917  13.623  18.429  16.136  0.1193 -0.0327  0.0319
60006W        W 2918  10.631  19.922  18.568 -0.1692 -0.1409  0.2775
60007W        W 2919  14.134  17.371  16.400  0.1259  0.1611  0.1956
60008W        W 2920  10.609  21.270  16.425 -0.3598 -0.1625 -0.0764
60009W        W 2921  13.175  22.455  16.538  0.2896 -0.1653  0.2887
60010W        W 2922  13.874  21.328  16.354 -0.1874  0.0868  0.3420
60011W        W 2923  14.829  21.378  15.521 -0.1312  0.3827 -0.2293
60012W        W 2924   9.511  19.906  18.583  0.0605  0.0563 -0.0109
60013W        W 2925  10.915  20.248  18.824  0.0908 -0.3324 -0.0189
60014W        W 2926  10.394  18.773  17.619 -0.3029 -0.0002  0.0046
60015W        W 2927  10.825  20.314  18.329  0.0993 -0.2272 -0.1002
60016W        W 2928  13.186  18.623  18.227 -0.0571  0.0123  0.0850
60017W        W 2929  10.912  18.600  16.942 -0.0134  0.0985 -0.1767
60018W        W 2930  13.454  19.941  16.755  0.1728  0.1317  0.3253
60019W        W 2931  12.611  20.339  16.787  0.1255  0.2685 -0.0076
60020W        W 2932  10.762  21.730  16.273  0.1549 -0.0582  0.0876
60021W        W 2933  12.112  17.710  19.050  0.2206 -0.0269  0.3315
60022W        W 2934  12.888  22.109  16.319  0.1700  0.1896  0.0391
60023W        W 2935  16.274  22.761  16.986 -0.0144  0.1214 -0.0642
60024W        W 2936  15.036  22.431  18.561 -0.0838  0.2629  0.0738
60025W        W 2937  11.482  19.849  20.068  0.0824 -0.2212 -0.0608
60026W        W 2938  10.612  19.315  17.552  0.5824  0.2961 -0.2263
60027W        W 2939  12.298  20.859  19.153 -0.2546 -0.1780  0.2151
60028W        W 2940  12.551  19.918  18.392  0.3028 -0.1456  0.1280
60029W        W 2941  13.434  17.342  15.701 -0.1148  0.0171 -0.1036
60030W        W 2942  14.194  21.468  17.797 -0.1197 -0.2710  0.0146
60031W        W 2943  12.711  20.781  16.045  0.0097 -0.0785  0.1733
60032W        W 2944  12.536  21.710  19.095 -0.0229  0.2798 -0.1458
60033W        W 2945  12.279  18.700  17.957 -0.0233  0.0880  0.2566
60034W        W 2946  13.702  20.773  18.086 -0.0434 -0.1745  0.0658
60035W        W 2947  13.203  19.445  16.418 -0.1273  0.2023  0.1291
60036W        W 2948  11.630  18.967  16.813 -0.2015  0.1871  0.2076
60037W        W 2949  13.538  22.489  17.831  0.2263 -0.0942 -0.1159
60038W        W 2950  11.620  21.363  16.764  0.1590  0.0935  0.1755
60039W        W 2951  10.918  19.576  18.785 -0.1783  0.0597 -0.1672
60040W        W 2952  13.540  20.470  16.578  0.1169 -0.2190  0.2492
60041W        W 2953  12.607  18.303  16.842 -0.0401 -0.1034 -0.1911
60042W        W 2954  11.492  20.351  20.953 -0.0889 -0.1070  0.0960
60043W        W 2955  11.837  20.704  19.486  0.1056 -0.2230  0.1980
60044W        W 2956  10.862  19.612  16.656  0.1937  0.2784  0.0724
60045W        W 2957  13.169  22.282  19.096 -0.2506  0.1606  0.1258
60046W        W 2958  13.483  17.393  15.201 -0.0001 -0.2309 -0.0323
60047W        W 2959  13.558  18.993  16.981  0.1391  0.3817  0.2719
60048W        W 2960  12.719  20.407  18.758  0.1507  0.0704  0.0273
60049W        W 2961  14.123  21.019  16.595 -0.0731 -0.1255  0.1282
60050W        W 2962  12.600  19.606  15.586  0.0844 -0.0275 -0.0771
60051W        W 2963  12.926  19.365  15.309 -0.2440 -0.0146  0.1901
60052W        W 2964  10.510  22.383  20.877  0.2355  0.0008 -0.0362
60053W        W 2965  13.964  20.937  15.916 -0.0703 -0.0464 -0.1671
60054W        W 2966  11.691  20.021  19.249 -0.0951 -0.0205 -0.0232
60055W        W 2967  11.518  18.594  16.194 -0.4003 -0.1230  0.0498
60056W        W 2968  13.087  21.024  17.299  0.1992 -0.0728 -0.1257
60057W        W 2969  10.430  22.352  19.664 -0.1323  0.1417  0.1241
60058W        W 2970  11.983  21.178  20.512 -0.0924 -0.2478  0.1741
60059W        W 2971  12.909  20.596  17.141 -0.1518 -0.0784  0.0459
60060W        W 2972  11.267  19.411  18.334 -0.0508  0.4841  0.1479
60061W        W 2973  11.672  20.684  16.110  0.0928  0.2057 -0.5120
60062W        W 2974  13.146  18.991  16.700  0.1753  0.0317  0.0959
60063W        W 2975  10.137  21.116  16.592 -0.0512 -0.1151 -0.3297
60064W        W 2976  12.138  19.484  18.342  0.2296 -0.0401  0.0113
60065W        W 2977  13.068  18.527  16.884  0.2697 -0.2704 -0.1111
60066W        W 2978  12.273  17.806  18.492 -0.1243  0.0514 -0.0458
60067W        W 2979  13.348  18.516  19.023 -0.0985  0.2282  0.2930
60068W        W 2980  14.336  21.694  16.354 -0.1058 -0.4359  0.0206
60069W        W 2981  13.164  20.348  15.881  0.1891 -0.0103  0.3163
60070W        W 2982  12.788  21.620  15.579 -0.0157 -0.1558 -0.0020
60071W        W 2983  12.503  18.346  18.897  0.2575  0.1456  0.0568
60072W        W 2984  11.795  19.436  20.855  0.0939  0.1377  0.1384
60073W        W 2985  10.130  22.771  19.574  0.5162  0.1264  0.1859
60074W        W 2986  12.051  21.746  18.708 -0.0082  0.0579  0.1687
60075W        W 2987  12.428  20.325  15.938 -0.2233 -0.1911 -0.1331
60076W        W 2988  13.487  20.085  19.392  0.2504 -0.0474  0.1742
60077W        W 2989  12.002  18.604  16.024  0.2456  0.2355 -0.0852
60078W        W 2990  12.416  20.773  16.997 -0.1755  0.1170  0.2250
60079W        W 2991  13.832  21.825  16.336 -0.0674  0.2888  0.0052
60080W        W 2992  11.743  18.719  17.946  0.2303  0.0503  0.2345
60081W        W 2993  11.417  20.499  18.632 -0.1880 -0.2160  0.1347
60082W        W 2994  11.136  21.263  17.693 -0.0364 -0.2289 -0.0321
60083W        W 2995  13.365  19.956  18.316  0.0124  0.0340 -0.0332
60084W        W 2996  13.199  20.884  18.549 -0.1469 -0.1239  0.3161
60085W        W 2997  13.540  18.554  16.756 -0.3254 -0.1795 -0.3161
60086W        W 2998  10.324  21.944  17.899  0.1193  0.1935 -0.2478
60087W        W 2999  12.318  18.937  16.287 -0.2944 -0.2814 -0.0951
60088W        W 3000  10.903  20.835  16.370 -0.0370  0.1479 -0.0677
60089W        W 3001  13.991  19.413  17.446 -0.1546 -0.2640  0.0332
60090W        W 3002  13.909  21.328  15.578 -0.0215 -0.0496  0.0867
60091W        W 3003  11.555  20.474  19.921 -0.0903  0.0744 -0.0378
60092W        W 3004  12.128  19.915  18.666 -0.1439 -0.2235  0.1317
60093W        W 3005  11.783  22.212  18.361 -0.3084  0.2998 -0.1788
60094W        W 3006  12.205  20.838  18.670  0.3283 -0.1449 -0.1212
60095W        W 3007  14.487  17.794  16.219  0.0548 -0.1171 -0.0163
60096W        W 3008  12.418  20.295  20.156  0.0133  0.1965  0.1548
60097W        W 3009  11.763  20.780  18.916 -0.5431  0.0036  0.1451
60098W        W 3010  11.246  19.696  16.291  0.3149 -0.1079 -0.0662
60099W        W 3011  13.718  20.310  18.249 -0.1789 -0.1815 -0.0567
60100W        W 3012  12.377  19.404  16.804  0.0015  0.1909 -0.0405
60101W        W 3013  12.335  21.610  17.877  0.0301  0.1277  0.0042
60102W        W 3014  13.269  20.421  18.645  0.5726  0.0206 -0.0776
60103W        W 3015  11.824  19.877  17.091  0.5794  0.2969  0.0802
60104W        W 3016  10.999  21.334  18.677 -0.0270  0.2230  0.0429
60105W        W 3017  11.012  19.214  19.195  0.0515 -0.1875 -0.1192
60106W        W 3018  13.265  19.648  17.822 -0.1231 -0.1971  0.1488
60107W        W 3019  11.734  19.575  17.655  0.0170  0.1932  0.0294
60108W        W 3020  12.010  19.388  17.189  0.1923 -0.0953  0.2139
60109W        W 3021  12.818  20.332  16.298 -0.2606 -0.0592  0.1707
60110W        W 3022  13.354  20.111  17.791  0.0827 -0.1113 -0.1401
60111W        W 3023  12.014  20.039  18.163  0.0230  0.0517 -0.1488
60112W        W 3024  11.146  21.300  19.929 -0.1720  0.0227  0.1588
60113W        W 3025  12.281  16.308  17.819  0.2393 -0.2909  0.1637
60114W        W 3026  12.963  22.543  16.993 -0.2794  0.0151 -0.1677
60115W        W 3027  12.141  19.823  19.314  0.0929  0.0310 -0.0752
60116W        W 3028  11.697  20.139  17.636 -0.0760  0.0735 -0.0566
60117W        W 3029  11.801  21.218  19.263  0.0104  0.0802  0.2605
60118W        W 3030  12.035  21.620  16.542 -0.0313  0.2786 -0.0624
60119W        W 3031  11.740  19.084  19.673  0.0727 -0.1677 -0.0257
60120W        W 3032  11.410  21.634  18.023  0.0483  0.1972 -0.1949
60121W        W 3033  11.684  20.367  17.100  0.1253 -0.0505  0.1602
60122W        W 3034  12.329  22.935  17.576 -0.0111 -0.0992  0.0474
60123W        W 3035  13.497  17.755  15.963 -0.0294  0.1821  0.1500
60124W        W 3036  12.717  20.203  15.576  0.1182 -0.2886  0.1504
60125W        W 3037  13.202  19.969  16.311  0.1468 -0.0017  0.2202
60126W        W 3038  12.975  19.049  18.558 -0.0211  0.0684 -0.0098
60127W        W 3039  12.430  19.117  15.386  0.1019  0.0450  0.0582
60128W        W 3040  12.472  17.931  19.244  0.0670 -0.0333 -0.1708
60129W        W 3041  11.011  19.889  18.151 -0.2667 -0.0034  0.1204
60130W        W 3042  13.110  22.049  17.010 -0.2491 -0.0170  0.1054
60131W        W 3043  11.346  20.079  19.624 -0.0542 -0.2226  0.1362
60132W        W 3044  12.849  22.041  19.375  0.1597  0.3792 -0.0365
60133W        W 3045  11.392  20.898  19.370 -0.2189 -0.1851  0.1949
60134W        W 3046  13.169  18.551  16.420 -0.0875 -0.3811  0.0046
60135W        W 3047  11.374  19.190  17.744 -0.3730  0.2109  0.2779
60136W        W 3048  10.794  19.865  17.623 -0.1768  0.1569 -0.1670
60137W        W 3049  13.551  21.010  16.575 -0.0710  0.1599 -0.0822
60138W        W 3050  13.365  21.284  15.413 -0.4620 -0.1646 -0.3850
60139W        W 3051  14.330  20.049  16.293  0.0866 -0.0347 -0.1428
60140W        W 3052  11.086  21.148  19.133 -0.1209 -0.1395  0.2153
60141W        W 3053  13.441  19.663  16.004  0.1461 -0.0411 -0.1320
60142W        W 3054  12.316  20.357  16.386 -0.2020 -0.0077 -0.0062
60143W        W 3055  11.681  20.857  18.407 -0.0818 -0.2340  0.1116
60144W        W 3056  12.192  19.434  18.947  0.1737 -0.0469  0.0046
60145W        W 3057  13.598  20.547  15.911  0.1296 -0.2667 -0.0359
60146W        W 3058  13.801  19.708  17.081 -0.0840 -0.0717  0.0459
60147W        W 3059  13.344  19.474  16.975 -0.1647  0.2655  0.2709
60148W        W 3060  12.956  19.916  18.682  0.1982  0.0743 -0.0788
60149W        W 3061  12.348  19.035  20.091 -0.1930 -0.1545 -0.2977
60150W        W 3062  10.611  19.020  18.832  0.0981  0.0120  0.1345
60151W        W 3063  13.626  23.331  17.826  0.0006 -0.2471 -0.0238
60152W        W 3064  14.646  19.490  16.758  0.2535 -0.1127  0.2092
60153W        W 3065  12.590  19.280  18.320 -0.1148 -0.1291  0.0555
60154W        W 3066  12.819  18.943  16.248 -0.0697  0.2367  0.2074
60155W        W 3067  13.358  18.095  16.425 -0.0141  0.1965 -0.0853
60156W        W 3068  10.245  20.278  18.450  0.2212  0.1011  0.1440
60157W        W 3069  12.886  20.145  19.823 -0.0053 -0.1284  0.0296
60158W        W 3070  11.947  18.083  16.192 -0.2780  0.1423 -0.1211
60159W        W 3071  12.712  18.744  18.233  0.1275  0.1884 -0.1064
60160W        W 3072  11.717  22.356  16.752 -0.1121  0.0174 -0.1909
60161W        W 3073  12.949  20.245  18.319 -0.0123 -0.1516  0.0839
60162W        W 3074  13.731  19.938  16.385  0.1111  0.0372 -0.1133
60163W        W 3075  10.718  19.429  18.348 -0.0882 -0.3184  0.1069
60164W        W 3076  11.597  22.722  19.910 -0.1612 -0.0390 -0.0934
60165W        W 3077  12.780  18.388  15.960 -0.1210 -0.0111  0.2646
60166W        W 3078  12.173  20.783  15.992  0.0360 -0.2440  0.0631
60167W        W 3079  13.182  21.750  18.431 -0.0425 -0.0775  0.1273
60168W        W 3080  14.940  21.358  19.051  0.0607 -0.2005 -0.0739
60169W        W 3081  12.739  17.459  16.337 -0.0450  0.0331  0.0155
60170W        W 3082  13.104  20.489  20.320  0.2174  0.0396 -0.1341
60171W        W 3083  11.553  21.734  18.515 -0.0210 -0.2786  0.2833
60172W        W 3084  12.901  17.347  16.790  0.0113 -0.2541 -0.2743
60173W        W 3085  13.193  22.890  17.787 -0.0696  0.1875 -0.1372
60174W        W 3086  10.706  21.583  19.005 -0.0678 -0.1091  0.0416
60175W        W 3087  13.897  21.224  18.275 -0.0375 -0.2688  0.3010
60176W        W 3088  11.627  18.700  18.446  0.1997 -0.3816  0.1386
60177W        W 3089  13.813  20.196  17.163 -0.2283 -0.0441  0.0669
60178W        W 3090  10.453  20.066  18.039 -0.0287 -0.0717  0.3655
60179W        W 3091  12.653  21.013  18.792  0.1750 -0.0913 -0.0501
60180W        W 3092  12.210  20.359  19.059 -0.0655 -0.0718  0.3438
60181W        W 3093  10.783  20.312  17.293 -0.2833  0.1282 -0.0676
60182W        W 3094  14.271  21.624  19.463  0.1754  0.3388  0.1152
60183W        W 3095  13.390  21.162  18.170  0.0501 -0.0355  0.1246
60184W        W 3096  11.403  21.784  19.909  0.0783  0.1141  0.1752
60185W        W 3097  11.489  19.019  20.784 -0.0673  0.1161 -0.3849
60186W        W 3098  13.103  20.259  19.082  0.2224  0.1165 -0.3312
60187W        W 3099  13.379  21.024  16.010  0.1083  0.0921  0.5591
60188W        W 3100  11.270  20.341  17.368 -0.0178  0.1198  0.2025
60189W        W 3101  12.791  21.619  16.098 -0.0243 -0.0529 -0.1309
60190W        W 3102  11.412  22.536  18.284 -0.0335 -0.0228  0.1570
60191W        W 3103  10.297  21.938  18.877 -0.2481  0.0945 -0.1375
60192W        W 3104  11.690  21.228  17.305  0.0981  0.0049 -0.2403
60193W        W 3105  14.399  21.194  15.713  0.1099  0.0143 -0.0399
60194W        W 3106  14.562  21.380  16.754 -0.0244 -0.2028  0.0423
60195W        W 3107  13.546  22.365  16.915  0.2345 -0.0906  0.0609
60196W        W 3108  12.331  18.290  15.797 -0.0326 -0.1030 -0.1180
60197W        W 3109  11.867  22.131  17.237  0.0092  0.0184 -0.1602
60198W        W 3110   8.955  21.342  16.859  0.0023 -0.1613 -0.1150
60199W        W 3111  13.645  22.076  15.811  0.3610  0.3148  0.3075
60200W        W 3112  12.536  24.929  17.457  0.0241  0.0449 -0.1895
60201W        W 3113  13.703  22.187  19.841 -0.0743 -0.1597  0.2916
60202W        W 3114  13.937  18.803  16.135  0.1286 -0.2452 -0.0073
60203W        W 3115  12.958  20.371  17.729  0.0476 -0.2556  0.0393
60204W        W 3116  14.124  20.047  17.501 -0.2062  0.3746  0.2775
60205W        W 3117  13.806  21.076  20.497 -0.2768 -0.0561 -0.2747
60206W        W 3118  11.137  20.759  17.748 -0.1762 -0.1653 -0.0352
60207W        W 3119  12.056  18.615  15.465  0.1344  0.0919 -0.1714
60208W        W 3120  12.621  22.355  18.212 -0.0852  0.2187  0.0421
60209W        W 3121  12.933  18.889  17.217 -0.3072 -0.1146 -0.0397
60210W        W 3122  10.538  23.040  20.288  0.1764 -0.1234  0.0090
60211W        W 3123  14.059  22.147  16.089 -0.0172  0.2119 -0.1402
60212W        W 3124  11.467  18.465  19.093 -0.1916 -0.0832 -0.0522
60213W        W 3125  11.817  19.444  16.692 -0.2954  0.2363 -0.0423
60214W        W 3126  12.945  18.558  18.666  0.2085 -0.5356 -0.0516
60215W        W 3127  14.814  19.916  15.897 -0.0882  0.3701  0.0983
60216W        W 3128  13.154  19.180  18.089 -0.1146  0.1510  0.0628
60217W        W 3129  12.476  21.816  16.413  0.2946  0.3100  0.1467
60218W        W 3130  12.178  22.465  18.989  0.0702 -0.0754  0.0324
60219W        W 3131  12.611  21.166  17.252  0.1235  0.0953  0.1507
60220W        W 3132  10.970  20.095  16.513  0.1772 -0.1971  0.3327
60221W        W 3133  15.217  21.475  15.884 -0.1358 -0.4127  0.2898
60222W        W 3134  13.031  19.731  19.150 -0.0068 -0.2137 -0.0373
60223W        W 3135  13.625  18.545  18.507  0.1036  0.0840 -0.4669
60224W        W 3136  11.096  20.264  17.873 -0.0054 -0.1665 -0.0821
60225W        W 3137  14.401  20.466  15.290 -0.1375  0.2525  0.2368
60226W        W 3138  11.379  20.392  19.165  0.2688 -0.0894 -0.2010
60227W        W 3139  10.859  20.150  19.321  0.0891 -0.0961 -0.2504
60228W        W 3140  11.449  19.993  16.713 -0.0228 -0.5153 -0.1113
60229W        W 3141  14.275  20.349  19.783  0.4025  0.2139  0.1132
60230W        W 3142  12.548  19.904  16.557  0.0439  0.1873 -0.0472
60231W        W 3143  13.295  21.974  20.651  0.2102  0.0265  0.1626
60232W        W 3144  11.232  19.806  19.197 -0.0318  0.0470 -0.1670
60233W        W 3145  11.624  19.093  15.953  0.0598  0.1062  0.0688
60234W        W 3146   9.981  19.837  18.711  0.0389  0.0283  0.0453
60235W        W 3147  12.387  21.851  17.409  0.1055  0.0123  0.0073
60236W        W 3148  13.875  19.313  19.504  0.0317  0.2862 -0.2294
60237W        W 3149  11.056  19.432  17.408 -0.1906  0.0682  0.0383
60238W        W 3150  15.794  21.813  14.748  0.3726  0.0859  0.1065
60239W        W 3151  14.213  20.974  17.538 -0.1059  0.0882 -0.1170
60240W        W 3152  13.433  21.855  16.713  0.0109  0.0967  0.0635
60241W        W 3153  13.158  20.679  16.279  0.1399  0.0787  0.3211
60242W        W 3154  13.511  22.050  17.539 -0.1182 -0.0558 -0.0889
60243W        W 3155  10.888  19.624  19.626 -0.1459 -0.0606  0.2177
60244W        W 3156  13.697  21.319  18.694  0.0232 -0.1699  0.1133
60245W        W 3157  15.153  20.743  16.879 -0.1108 -0.2169 -0.1661
60246W        W 3158  13.654  18.693  17.755 -0.1489 -0.0547 -0.0435
60247W        W 3159  11.382  19.432  19.501  0.1783 -0.0500 -0.0305
60248W        W 3160  12.686  22.462  17.675 -0.0864 -0.0364 -0.4834
60249W        W 3161  13.690  19.457  16.643 -0.0421  0.3324 -0.0605
60250W        W 3162  12.616  19.642  19.409  0.0348  0.1149 -0.2411
60251W        W 3163  11.617  21.532  16.249 -0.1831 -0.0116  0.1411
60252W        W 3164  12.682  19.458  18.775 -0.0998 -0.0590 -0.0903
60253W        W 3165  13.348  21.471  19.236  0.0457  0.5253 -0.0777
60254W        W 3166  11.733  23.223  18.998  0.0245  0.2330 -0.1094
60255W        W 3167  11.946  20.234  16.011  0.4342 -0.1543  0.1900
60256W        W 3168  12.747  21.775  19.821  0.0313  0.1021  0.0490
60257W        W 3169  13.356  20.797  17.720  0.3534  0.2431  0.1316
60258W        W 3170  12.370  22.142  17.849  0.2964  0.2164 -0.3036
60259W        W 3171  14.178  21.703  18.438 -0.2021  0.2362 -0.0361
60260W        W 3172  11.659  19.644  18.352  0.0751  0.2145  0.1004
60261W        W 3173  13.789  21.141  17.725  0.3645  0.0513  0.0700
60262W        W 3174  12.409  18.347  18.382  0.1135 -0.1020  0.2105
60263W        W 3175  14.822  19.412  15.865  0.2145 -0.1045 -0.0372
60264W        W 3176  14.041  19.595  16.086 -0.0582  0.0049  0.4567
60265W        W 3177  11.706  21.296  18.564  0.1484  0.1008  0.5402
60266W        W 3178  11.222  20.496  16.294 -0.1162 -0.0788  0.2182
60267W        W 3179  11.585  21.615  15.741 -0.1210  0.0603  0.0703
60268W        W 3180  10.519  20.660  18.172  0.1675 -0.3220 -0.3720
60269W        W 3181  10.590  17.830  18.630 -0.0235 -0.0264 -0.1794
60270W        W 3182  10.973  18.682  19.093  0.0818  0.0257  0.1409
60271W        W 3183  11.622  21.013  17.800 -0.1364 -0.0822  0.1120
60272W        W 3184  12.685  18.890  16.734  0.1841 -0.1409  0.0897
60273W        W 3185  13.667  20.561  15.422 -0.0755 -0.2521 -0.2424
60274W        W 3186  12.400  20.416  18.427  0.1388 -0.1332 -0.1445
60275W        W 3187  10.452  19.552  17.099 -0.3536 -0.0921 -0.1849
60276W        W 3188  14.457  22.349  16.309 -0.0152 -0.1572 -0.0574
60277W        W 3189  14.135  21.607  15.935  0.0017 -0.1734 -0.0259
60278W        W 3190  13.077  17.545  15.933 -0.0663  0.0646 -0.0422
60279W        W 3191  14.233  22.721  20.210 -0.0917  0.0880 -0.1620
60280W        W 3192  10.707  20.378  16.190 -0.0742  0.4004  0.0662
60281W        W 3193  11.682  18.824  21.722  0.2367 -0.0347  0.1134
60282W        W 3194  11.140  17.701  19.185  0.1618 -0.0613  0.0333
60283W        W 3195  11.111  18.429  15.998  0.0741  0.2712  0.1472
60284W        W 3196  12.412  19.715  17.959  0.0848  0.2002  0.2189
60285W        W 3197  12.375  21.350  16.289  0.1471  0.1286 -0.0601
60286W        W 3198  13.306  21.880  16.182 -0.2103  0.0003 -0.2245
60287W        W 3199  13.544  20.543  19.158  0.0877 -0.2728 -0.0126
60288W        W 3200  12.511  20.167  19.431 -0.1089  0.1271  0.4843
60289W        W 3201  11.868  18.973  19.123 -0.1554 -0.0053  0.0763
60290W        W 3202  13.352  20.366  17.355 -0.0332  0.0249 -0.1393
60291W        W 3203  12.833  21.283  19.923 -0.3923 -0.1338  0.0676
60292W        W 3204  15.366  21.190  16.293 -0.0426  0.1303 -0.1421
60293W        W 3205  13.558  19.515  18.195  0.0287 -0.1365  0.0726
60294W        W 3206  11.891  21.125  16.332  0.3916 -0.1681 -0.0439
60295W        W 3207  10.360  18.242  18.911 -0.1278 -0.2561 -0.3356
60296W        W 3208  10.913  20.835  18.527  0.0953  0.2096 -0.1133
60297W        W 3209  14.649  20.889  16.975 -0.0384 -0.2738 -0.0741
60298W        W 3210  11.600  19.201  17.323  0.0400 -0.1310 -0.2350
60299W        W 3211  14.171  19.719  16.588  0.0097 -0.0666  0.0798
60300W        W 3212  12.720  21.090  15.289 -0.2255  0.2250  0.1250
60301W        W 3213  11.320  20.982  18.704  0.0163 -0.2456  0.1822
60302W        W 3214  11.131  19.096  15.944  0.2304  0.0939 -0.4328
60303W        W 3215  11.489  20.161  18.209 -0.0206 -0.1579 -0.0884
60304W        W 3216  12.462  19.664  17.227  0.1180  0.2612 -0.0166
60305W        W 3217  12.543  19.954  18.991 -0.2407 -0.1419 -0.2720
60306W        W 3218  12.591  21.152  16.745 -0.2543  0.0443  0.0768
60307W        W 3219  14.921  21.834  15.675  0.4506  0.2482  0.0450
60308W        W 3220  13.611  21.100  17.231  0.0714  0.2284  0.1044
60309W        W 3221  13.278  21.741  19.722  0.0600 -0.1647  0.0597
60310W        W 3222  12.977  22.002  17.631 -0.0697 -0.1662 -0.2079
60311W        W 3223  15.065  20.740  16.394 -0.3837 -0.1216  0.1322
60312W        W 3224  11.425  18.932  18.903 -0.2328  0.0566  0.0793
60313W        W 3225  12.363  21.071  17.770 -0.0505 -0.0213 -0.0336
60314W        W 3226  12.610  20.694  17.504 -0.3620 -0.1367  0.2460
60315W        W 3227  14.004  20.212  16.706 -0.2313  0.0998  0.0443
60316W        W 3228  11.730  19.737  18.888  0.0500  0.1885  0.1566
60317W        W 3229  13.640  16.590  16.942 -0.1077 -0.0274 -0.2035
60318W        W 3230  11.691  23.980  18.373 -0.0233  0.2233  0.0955
60319W        W 3231  12.965  19.363  17.558 -0.1633  0.0406 -0.0407
60320W        W 3232  12.177  21.573  21.898 -0.3139  0.0375 -0.2128
60321W        W 3233  12.034  19.413  20.003 -0.0718 -0.2066  0.0385
60322W        W 3234  13.078  19.277  19.099 -0.2801  0.0255  0.1898
60323W        W 3235  14.583  19.311  19.603  0.0568 -0.0405  0.0267
60324W        W 3236   9.652  18.291  20.789  0.3666  0.3492 -0.2223
60325W        W 3237  12.552  20.175  20.979  0.1000  0.0050 -0.1883
60326W        W 3238  11.459  16.731  20.862  0.0626 -0.0013  0.2121
60327W        W 3239  13.230  21.968  21.585 -0.0840  0.1294  0.0766
60328W        W 3240  12.313  21.384  22.866  0.1258 -0.1296  0.2321
60329W        W 3241  12.678  20.556  19.253 -0.4475  0.1428  0.1971
60330W        W 3242  13.144  20.552  21.328  0.3850 -0.0836 -0.0405
60331W        W 3243  11.086  20.015  21.022  0.1977  0.2198  0.0238
60332W        W 3244  11.004  18.205  18.973 -0.0056 -0.0743 -0.0617
60333W        W 3245   9.968  18.113  20.068  0.1163  0.2721 -0.0085
60334W        W 3246  13.489  20.514  21.671  0.0875  0.4743  0.0810
60335W        W 3247  11.561  21.461  20.802  0.4313 -0.2282 -0.2047
60336W        W 3248  12.030  18.202  21.363 -0.3218 -0.1191 -0.0523
60337W        W 3249  12.914  20.093  20.567 -0.3699  0.2782  0.0472
60338W        W 3250  13.099  22.134  20.027  0.4498 -0.3031 -0.1801
60339W        W 3251  12.466  19.177  22.280  0.2920  0.1938 -0.0912
60340W        W 3252  13.396  18.952  21.279 -0.0889  0.0890  0.2345
60341W        W 3253  12.320  22.545  19.542 -0.2852  0.1154 -0.1606
60342W        W 3254  11.480  21.846  19.426 -0.1929 -0.0323  0.1188
60343W        W 3255   9.778  20.326  21.201 -0.1004  0.1929  0.2034
60344W        W 3256  12.173  19.517  22.103  0.1335  0.1237 -0.0592
60345W        W 3257  12.628  19.417  19.923 -0.1506  0.0103  0.2663
60346W        W 3258  12.899  20.905  21.023 -0.0549  0.2337  0.1774
60347W        W 3259  11.956  22.108  21.464 -0.0919 -0.1327  0.3091
60348W        W 3260  12.196  22.392  20.076  0.0005 -0.0097 -0.1481
60349W        W 3261  13.030  19.961  23.198  0.0305  0.1043  0.1708
60350W        W 3262   9.879  21.556  21.211 -0.1587 -0.0420 -0.2488
60351W        W 3263  11.866  21.892  20.117  0.1089 -0.1709  0.0354
60352W        W 3264  13.290  22.425  20.493  0.1789  0.0414  0.0866
60353W        W 3265  13.422  21.434  20.478  0.2561 -0.3321 -0.3447
60354W        W 3266  12.664  21.082  23.728 -0.0003  0.3257  0.3400
60355W        W 3267  11.361  22.681  23.700  0.0861 -0.1159  0.1168
60356W        W 3268  11.379  21.391  19.466 -0.0540 -0.3907  0.1562
60357W        W 3269  13.192  20.137  25.058  0.0736  0.0789 -0.1633
60358W        W 3270  10.972  19.521  21.801 -0.0562 -0.0639 -0.2026
60359W        W 3271  10.748  20.447  22.473  0.1500  0.3351 -0.0577
60360W        W 3272  12.558  19.659  21.400 -0.1956 -0.1805  0.1878
60361W        W 3273  10.982  21.001  19.592 -0.0522 -0.1103  0.0841
60362W        W 3274  11.712  20.017  21.489  0.1686 -0.1093  0.2231
60363W        W 3275  11.439  21.270  22.635  0.0333  0.0671 -0.1560
60364W        W 3276  11.147  20.579  21.358  0.0925 -0.1014  0.3521
60365W        W 3277  14.337  17.832  23.286  0.4677 -0.0607 -0.1686
60366W        W 3278  12.000  21.060  21.433  0.0867  0.2113 -0.0309
60367W        W 3279  14.455  20.077  19.370  0.0672  0.0272  0.1136
60368W        W 3280  11.198  18.161  20.910  0.1465 -0.1788 -0.1864
60369W        W 3281  13.268  18.157  18.735  0.0671 -0.1022  0.0954
60370W        W 3282  10.378  16.567  20.147  0.0535 -0.2864  0.3509
60371W        W 3283  13.951  21.634  21.286  0.1355  0.3332 -0.0456
60372W        W 3284  12.614  19.238  20.991 -0.1231  0.2680  0.1780
60373W        W 3285  12.642  18.951  23.256 -0.1584 -0.1663 -0.1538
60374W        W 3286  12.035  21.330  20.988  0.0282  0.3077  0.2759
60375W        W 3287  11.544  18.809  22.207 -0.3233 -0.1315 -0.2871
60376W        W 3288  11.545  20.838  22.316  0.1767 -0.0407  0.0067
60377W        W 3289  10.565  20.363  21.931 -0.2057  0.1988  0.1669
60378W        W 3290  13.647  20.718  19.605 -0.1413  0.3325  0.2454
60379W        W 3291  13.571  21.443  22.180 -0.1241 -0.1769  0.0864
60380W        W 3292  12.231  21.351  18.970 -0.2525 -0.1799 -0.2406
60381W        W 3293  10.850  18.341  20.411 -0.1978  0.0289 -0.0792
60382W        W 3294  10.636  19.675  22.630 -0.1844 -0.2373  0.4936
60383W        W 3295  10.820  19.717  23.114 -0.1348  0.0407  0.0577
60384W        W 3296  10.497  19.125  19.370 -0.1094  0.3037 -0.0611
60385W        W 3297  14.412  20.972  21.677 -0.1955  0.1848 -0.3028
60386W        W 3298  10.273  21.498  23.002 -0.1149 -0.2274 -0.0804
60387W        W 3299  13.325  18.663  20.816  0.1375  0.1107  0.0118
60388W        W 3300  11.467  19.687  21.161 -0.3532 -0.1782  0.0635
60389W        W 3301  12.640  21.081  22.643  0.4109 -0.1654 -0.2750
60390W        W 3302  14.679  20.935  17.658 -0.1754 -0.1570 -0.0238
60391W        W 3303  11.876  18.443  21.956  0.2627  0.1765 -0.2133
60392W        W 3304  12.655  18.158  22.336 -0.2866 -0.4282 -0.2682
60393W        W 3305  11.659  21.109  19.753  0.0765  0.2633 -0.2607
60394W        W 3306  13.471  20.782  20.186  0.4017  0.1222 -0.2469
60395W        W 3307  13.762  20.774  21.935  0.0415 -0.0175 -0.1212
60396W        W 3308  13.879  20.330  18.790 -0.0955  0.0178 -0.0795
60397W        W 3309  11.896  22.433  22.374 -0.1776 -0.1515 -0.1148
60398W        W 3310  13.909  20.056  20.868  0.0588  0.1611 -0.1875
60399W        W 3311  10.632  21.246  22.285 -0.1100  0.6779 -0.1305
60400W        W 3312  11.392  21.885  21.093 -0.0122  0.0373 -0.2271
60401W        W 3313  10.320  19.605  20.722  0.0334 -0.2276  0.0447
60402W        W 3314  12.443  20.665  19.677 -0.0153 -0.1130  0.3932
60403W        W 3315   9.892  18.979  21.740  0.0497 -0.0425  0.0386
60404W        W 3316  10.855  21.643  21.979  0.2381 -0.0223 -0.2108
60405W        W 3317  13.545  19.206  20.278 -0.1257  0.0896  0.1723
60406W        W 3318   9.269  18.232  21.096  0.0373 -0.1784  0.0646
60407W        W 3319  11.221  17.631  20.891  0.0613  0.3146  0.2232
60408W        W 3320  11.154  20.837  20.896  0.1389  0.2285 -0.6236
60409W        W 3321  13.168  22.314  21.181  0.1727 -0.0795 -0.0212
60410W        W 3322  15.139  19.221  19.338 -0.0369  0.0488  0.1671
60411W        W 3323  13.827  21.582  19.168  0.2004  0.1730  0.0027
60412W        W 3324   9.772  20.945  22.279 -0.4160  0.0405  0.0112
60413W        W 3325  11.573  18.658  20.501 -0.1509 -0.0909 -0.2346
60414W        W 3326  11.919  18.781  22.894 -0.1363 -0.0453 -0.2832
60415W        W 3327  10.096  20.565  22.577 -0.0829 -0.2700 -0.1180
60416W        W 3328  13.432  17.823  23.454 -0.0547 -0.0018  0.0485
60417W        W 3329  10.064  18.442  19.702 -0.0818  0.0433  0.0161
60418W        W 3330  13.401  20.018  20.726 -0.2584 -0.0042 -0.1226
60419W        W 3331  11.627  20.362  21.961  0.3353  0.1363  0.1556
60420W        W 3332  11.813  19.422  21.562  0.2056 -0.1779  0.1250
60421W        W 3333  13.944  18.223  22.835  0.1688 -0.2889  0.1371
60422W        W 3334  13.257  22.667  18.870  0.2164  0.1392  0.2299
60423W        W 3335  13.121  20.358  22.582  0.0635 -0.0723  0.0102
60424W        W 3336  14.141  22.229  21.011 -0.0194 -0.3829 -0.3144
60425W        W 3337  11.943  19.079  22.406  0.0122  0.1910 -0.1137
60426W        W 3338  11.347  19.304  19.989 -0.0418  0.1921 -0.0988
60427W        W 3339  11.198  24.337  21.472  0.2584  0.0248  0.3487
60428W        W 3340  11.815  20.848  21.911  0.0666 -0.1166  0.0691
60429W        W 3341  11.125  18.854  20.316 -0.2468 -0.2492 -0.0619
60430W        W 3342  14.347  21.498  21.633 -0.1584 -0.1988 -0.0724
60431W        W 3343  12.317  19.899  20.398  0.1046 -0.2816  0.5028
60432W        W 3344   9.936  21.032  21.756  0.1968  0.0839  0.1103
60433W        W 3345  12.507  19.254  21.700  0.0002 -0.1534  0.1292
60434W        W 3346  12.386  20.689  23.423 -0.1225 -0.2759  0.0140
60435W        W 3347  12.611  18.430  21.441 -0.0791  0.0532  0.0202
60436W        W 3348  11.132  18.196  19.463 -0.0311  0.0330  0.1669
60437W        W 3349  12.135  21.137  19.696 -0.1649 -0.2533 -0.1210
60438W        W 3350  12.465  20.956  21.380 -0.0994 -0.1070  0.1099
60439W        W 3351  10.859  19.623  21.298  0.1643 -0.1401 -0.0309
60440W        W 3352  13.090  22.419  19.595 -0.0997 -0.1569 -0.1034
60441W        W 3353  14.189  18.055  20.213 -0.1387  0.2727  0.3525
60442W        W 3354   9.090  19.437  23.681 -0.0713 -0.2933  0.2838
60443W        W 3355  12.316  19.934  22.311 -0.1540  0.2730 -0.0454
60444W        W 3356  12.220  19.308  20.559  0.2930  0.0358  0.1841
60445W        W 3357  11.059  21.053  21.404  0.3602  0.1749 -0.1121
60446W        W 3358  11.200  20.019  21.498 -0.0598  0.0039  0.0365
60447W        W 3359  11.578  18.118  20.566 -0.2614  0.0598  0.1429
60448W        W 3360  12.446  20.684  23.917 -0.0606 -0.2533  0.0019
60449W        W 3361  13.365  21.257  20.073  0.1062 -0.2732  0.0673
60450W        W 3362  13.605  18.963  18.218 -0.0489  0.3321 -0.1575
60451W        W 3363  11.837  19.437  19.330 -0.1351 -0.0974  0.0932
60452W        W 3364  11.004  20.999  22.896 -0.0787  0.1905 -0.3791
60453W        W 3365  13.577  21.325  21.060 -0.3061  0.0212 -0.1142
60454W        W 3366  11.091  22.239  21.300  0.0019 -0.3027 -0.1251
60455W        W 3367  12.577  18.361  19.457 -0.0991  0.1805 -0.2337
60456W        W 3368  14.445  22.912  19.782  0.0206 -0.1240 -0.2674
60457W        W 3369   9.481  20.195  22.091  0.2202  0.2404  0.1149
60458W        W 3370  11.152  20.922  23.831 -0.1426 -0.0435 -0.0758
60459W        W 3371  12.839  21.573  21.511 -0.1023 -0.0407  0.2744
60460W        W 3372  12.105  19.032  21.886  0.1299 -0.3634  0.0816
60461W        W 3373  11.899  20.222  20.238  0.1143  0.0183 -0.1529
60462W        W 3374  12.227  18.681  22.249  0.0387 -0.1868 -0.2331
60463W        W 3375  11.497  22.791  19.070  0.1742  0.4792 -0.2696
60464W        W 3376  13.020  19.048  20.399  0.2058 -0.1896  0.3062
60465W        W 3377  12.972  19.094  21.451  0.3279  0.1540  0.0323
60466W        W 3378  11.984  18.026  22.818  0.1268  0.0322  0.0456
60467W        W 3379  13.401  21.250  22.713  0.1192  0.0379  0.0432
60468W        W 3380  13.259  19.540  20.608 -0.0303  0.1692  0.0072
60469W        W 3381  12.588  20.501  21.305 -0.0073  0.0435 -0.3198
60470W        W 3382  10.709  18.993  18.094  0.1679  0.1823  0.1618
60471W        W 3383  12.164  19.301  21.240  0.2715  0.4105 -0.2430
60472W        W 3384  10.142  22.027  21.674  0.2711  0.3415 -0.0876
60473W        W 3385  10.373  22.874  21.650  0.1313  0.4304 -0.2224
60474W        W 3386  11.651  21.954  23.150 -0.3937 -0.1669  0.0656
60475W        W 3387  12.983  21.050  21.512 -0.4052 -0.1730 -0.1454
60476W        W 3388  12.801  19.614  22.481  0.0186  0.0720  0.0933
60477W        W 3389  12.136  18.620  19.737  0.2595 -0.1169  0.1108
60478W        W 3390  11.866  21.620  19.692  0.1875 -0.2856 -0.2657
60479W        W 3391  10.568  21.345  19.418 -0.4752  0.0718 -0.0344
60480W        W 3392  11.621  19.310  22.033  0.1690 -0.0072 -0.1073
60481W        W 3393  11.333  20.807  21.775  0.2039  0.2289 -0.0627
60482W        W 3394  12.333  20.856  21.898  0.4051  0.2561  0.0391
60483W        W 3395  12.370  19.469  22.603  0.2788  0.1760  0.3575
60484W        W 3396  11.655  20.933  20.238  0.1458 -0.4187 -0.1262
60485W        W 3397  12.360  17.476  22.338  0.0318 -0.1997 -0.3348
60486W        W 3398  10.574  21.477  21.325 -0.0951  0.1338 -0.0383
60487W        W 3399  10.316  19.463  21.753 -0.1338  0.0827 -0.2165
60488W        W 3400  11.186  20.796  20.106 -0.3200 -0.0308  0.2341
60489W        W 3401  10.417  17.745  21.392  0.1556  0.1247  0.0505
60490W        W 3402  14.028  21.203  19.424 -0.1811  0.1159  0.2556
60491W        W 3403  10.872  17.693  21.808  0.0982  0.0488  0.1611
60492W        W 3404  11.295  18.295  20.209  0.1734  0.0041  0.2217
60493W        W 3405  10.470  20.900  22.587  0.0951 -0.2938  0.1436
60494W        W 3406  12.227  19.903  21.674 -0.0042 -0.0432 -0.1729
60495W        W 3407  12.954  18.255  19.143  0.0356 -0.2292  0.2800
60496W        W 3408  14.829  21.397  21.909  0.2620 -0.2470  0.0249
60497W        W 3409  11.755  20.115  22.476 -0.1455 -0.2452 -0.3144
60498W        W 3410  10.905  18.586  19.857  0.3454 -0.0969  0.3426
60499W        W 3411  14.038  19.841  22.468 -0.0626  0.1300  0.0608
60500W        W 3412  11.349  19.269  21.554 -0.0717  0.2841 -0.1794
60501W        W 3413  12.851  21.740  20.655  0.1409  0.0953  0.1663
60502W        W 3414  11.350  22.323  22.965 -0.2423  0.1162  0.0982
60503W        W 3415  10.959  20.608  19.105  0.0526 -0.2743 -0.1924
60504W        W 3416  10.964  20.538  20.559 -0.2552 -0.1402  0.1520
60505W        W 3417  11.455  19.209  22.561 -0.1615 -0.0843  0.3127
60506W        W 3418  13.518  19.665  22.880 -0.0492  0.4031  0.2653
60507W        W 3419  11.767  18.966  21.227  0.0921  0.2234  0.1072
60508W        W 3420  12.052  18.485  20.415  0.0331  0.2740  0.5250
60509W        W 3421  12.133  20.250  21.222  0.3145 -0.0696 -0.1008
60510W        W 3422  13.538  20.103  22.109  0.2723 -0.2119 -0.0335
60511W        W 3423  12.836  20.621  21.748 -0.5837 -0.0744  0.0908
60512W        W 3424  10.681  21.433  22.708  0.1084 -0.1788  0.1288
60513W        W 3425  10.836  17.858  21.160 -0.1242  0.0833  0.0369
60514W        W 3426  14.265  23.105  21.705 -0.0758 -0.2024 -0.0308
60515W        W 3427  13.204  20.461  22.124 -0.1384 -0.1978  0.1294
60516W        W 3428  11.812  19.650  20.423 -0.1466  0.3677  0.3045
60517W        W 3429  10.262  20.376  21.116  0.2110 -0.1999  0.1167
60518W        W 3430  12.031  20.628  19.962 -0.2556 -0.0134 -0.2254
60519W        W 3431  11.034  18.987  22.661  0.0398 -0.0647 -0.0795
60520W        W 3432  10.570  19.977  21.008 -0.1016 -0.0587 -0.0470
60521W        W 3433  11.658  21.411  20.207 -0.0490 -0.1057 -0.0990
60522W        W 3434   9.156  20.583  22.072 -0.1133 -0.0810  0.1663
60523W        W 3435  12.671  18.565  20.056 -0.1697  0.0146  0.1788
60524W        W 3436  12.761  22.589  18.618 -0.0608 -0.1536 -0.2794
60525W        W 3437  11.148  19.338  21.014 -0.1220  0.0262  0.1809
60526W        W 3438  12.655  19.738  21.940 -0.0623  0.0306 -0.3648
60527W        W 3439  13.493  21.186  19.614 -0.3406 -0.1809  0.4058
60528W        W 3440  13.312  18.578  22.887  0.0829  0.0776 -0.0614
60529W        W 3441  12.418  18.239  21.886  0.2025  0.1637 -0.2781
60530W        W 3442  14.424  21.887  20.707  0.1438  0.2909 -0.0741
60531W        W 3443  10.405  19.695  22.201  0.3469  0.1355  0.0017
60532W        W 3444  12.660  22.004  23.509 -0.1577 -0.0848 -0.1084
60533W        W 3445  10.688  20.327  23.857  0.2141  0.0264  0.2589
60534W        W 3446  12.758  20.714  20.012  0.0725  0.1444 -0.0563
60535W        W 3447  10.614  18.833  20.214 -0.0835  0.3670  0.0735
60536W        W 3448  12.026  20.401  21.684  0.2884  0.1837  0.0153
60537W        W 3449  13.853  20.903  20.982 -0.2637 -0.2918 -0.1960
60538W        W 3450  14.156  21.864  19.978 -0.1708 -0.2441  0.1861
60539W        W 3451  13.565  20.302  20.359 -0.0590 -0.0681  0.0552
60540W        W 3452  11.054  20.290  21.911 -0.0230  0.0222 -0.0991
60541W        W 3453  14.731  20.157  17.493  0.0248 -0.2010 -0.0088
60542W        W 3454  12.477  20.333  17.956 -0.1721  0.2090 -0.1952
60543W        W 3455  11.940  21.925  20.956 -0.2082 -0.1010  0.0161
60544W        W 3456  12.847  19.062  22.631  0.2574 -0.2634 -0.0143
60545W        W 3457  14.169  20.795  19.725  0.0518 -0.0615 -0.0951
60546W        W 3458  11.768  18.539  20.964 -0.5098  0.1903 -0.2923
60547W        W 3459  12.157  18.151  22.338 -0.4269 -0.0781  0.0835
60548W        W 3460  12.903  19.087  22.018  0.0702 -0.0848  0.0754
60549W        W 3461  10.759  20.721  23.456  0.1605 -0.2844 -0.0718
60550W        W 3462  10.803  18.558  21.933 -0.0271 -0.3532  0.0623
60551W        W 3463  13.327  21.934  22.086  0.2992  0.0029 -0.1829
60552W        W 3464  13.868  18.862  20.113  0.1395  0.0010 -0.0051
60553W        W 3465  14.032  20.099  20.209 -0.1877  0.0662  0.0800
60554W        W 3466  14.440  19.807  19.866 -0.1558  0.2241  0.0391
60555W        W 3467  13.041  19.797  21.059  0.0857  0.0032  0.2610
60556W        W 3468  11.263  20.419  22.536  0.0262  0.3596  0.2446
60557W        W 3469  11.883  21.094  22.676 -0.0428 -0.3081 -0.0803
60558W        W 3470  11.527  17.978  19.646  0.1921  0.3023  0.1423
60559W        W 3471  12.728  20.130  21.579  0.2830 -0.1869 -0.0635
60560W        W 3472  13.067  20.748  19.007  0.1065 -0.3019  0.0385
60561W        W 3473  11.727  21.554  21.372 -0.1935 -0.1328  0.1929
60562W        W 3474  12.322  18.510  21.053  0.0314  0.3442  0.2085
60563W        W 3475  10.778  19.101  21.522 -0.1515 -0.2969 -0.0201
60564W        W 3476  11.097  21.495  22.957 -0.0564  0.1007  0.0230
60565W        W 3477  11.175  21.294  20.422 -0.1539 -0.0863 -0.0667
60566W        W 3478  12.608  19.179  19.181 -0.2575 -0.0453 -0.0748
60567W        W 3479  12.674  21.395  22.027  0.0766  0.2006 -0.1402
60568W        W 3480  12.866  20.098  22.224 -0.1682 -0.3891 -0.0015
60569W        W 3481  12.206  19.197  19.505  0.0957  0.2718  0.3800
60570W        W 3482  13.507  19.958  21.250 -0.1813  0.2415 -0.2080
60571W        W 3483  10.157  20.710  20.292 -0.0087  0.0749  0.0175
60572W        W 3484  12.765  17.587  22.136  0.0717  0.2003 -0.1051
60573W        W 3485  11.726  22.496  20.732 -0.0675 -0.0595  0.0815
60574W        W 3486  10.369  21.644  22.031 -0.2199  0.1148  0.1481
60575W        W 3487  10.807  20.495  20.980  0.2051 -0.3088  0.0587
60576W        W 3488  12.132  17.659  21.363  0.1249 -0.2506  0.0006
60577W        W 3489  12.356  19.669  20.882  0.4163  0.1449 -0.0675
60578W        W 3490  10.859  19.067  19.740  0.0253  0.5624 -0.1498
60579W        W 3491  11.897  19.838  21.099 -0.4503 -0.3354 -0.0312
60580W        W 3492  11.647  21.270  21.705 -0.0640  0.0764  0.4104
60581W        W 3493  10.657  21.061  20.974 -0.0025 -0.2161  0.2322
60582W        W 3494  13.288  22.802  22.644  0.2847 -0.1381 -0.1647
60583W        W 3495  13.432  20.928  21.361 -0.0279 -0.1882 -0.1266
60584W        W 3496  11.147  21.783  20.415  0.0126 -0.2083 -0.2435
60585W        W 3497  10.163  20.536  21.644 -0.1593 -0.0021 -0.1859
60586W        W 3498  13.824  21.199  23.018  0.3935  0.1332 -0.0027
60587W        W 3499  13.088  19.229  20.961 -0.0016  0.0696 -0.0174
60588W        W 3500  12.852  18.787  21.109 -0.4310 -0.0640 -0.2958
60589W        W 3501  12.337  20.998  20.144 -0.0588 -0.2487 -0.0685
60590W        W 3502  10.703  21.954  24.120  0.2788  0.2349 -0.1339
60591W        W 3503  10.087  19.981  21.824 -0.2406  0.0780 -0.1053
60592W        W 3504  12.007  21.670  20.565  0.3385  0.0914  0.0322
60593W        W 3505  13.118  20.526  19.570 -0.0138  0.2360 -0.1731
60594W        W 3506  13.673  19.727  20.330 -0.1745  0.0351  0.2729
60595W        W 3507  12.657  21.346  21.055  0.0408 -0.0363 -0.0795
60596W        W 3508  13.192  18.679  19.508  0.1390 -0.0706  0.0996
60597W        W 3509  11.099  21.386  21.005 -0.3521 -0.3601 -0.1911
60598W        W 3510  11.097  22.187  20.767 -0.0281  0.1363 -0.3112
60599W        W 3511  12.768  22.872  19.761 -0.0063 -0.0394 -0.0326
60600W        W 3512  10.985  21.702  19.397  0.2757  0.1107 -0.0598
60601W        W 3513  12.867  20.889  22.214 -0.1611  0.0167 -0.2858
60602W        W 3514  11.374  19.412  18.855 -0.0562  0.0653  0.3651
60603W        W 3515  14.029  20.195  22.063 -0.1943 -0.1255  0.1075
60604W        W 3516  12.304  18.061  20.097 -0.0325  0.1066  0.2924
60605W        W 3517  12.340  20.728  22.918 -0.0378  0.0163  0.0044
60606W        W 3518  11.263  21.237  22.065  0.1867  0.2546 -0.1523
60607W        W 3519  11.108  17.386  20.264 -0.1336  0.2999 -0.1341
60608W        W 3520  10.361  20.201  22.759  0.0706  0.1455  0.2549
60609W        W 3521  14.215  18.547  21.644 -0.0225 -0.1469 -0.0266
60610W        W 3522  10.111  21.589  23.522  0.0984 -0.1687 -0.2695
60611W        W 3523  14.140  22.637  20.746  0.4303  0.0185 -0.2226
60612W        W 3524  10.379  18.993  22.018 -0.1621  0.1089  0.2279
60613W        W 3525   9.203  21.024  20.503  0.1193  0.0831 -0.0402
60614W        W 3526  13.114  18.311  21.146  0.0457 -0.1635  0.0585
60615W        W 3527  12.084  20.597  20.497 -0.1389 -0.0525 -0.2903
60616W        W 3528  11.773  19.754  19.680  0.1881  0.0652 -0.0607
60617W        W 3529  12.261  21.473  21.413 -0.2089  0.2046 -0.3016
60618W        W 3530  11.959  21.828  22.260 -0.1914 -0.3240 -0.2586
60619W        W 3531  11.708  20.650  21.343  0.2564 -0.1310  0.1672
60620W        W 3532   9.594  18.768  19.867  0.1664 -0.1966 -0.0618
60621W        W 3533  13.500  19.444  21.276  0.3242 -0.2304 -0.0133
60622W        W 3534  11.075  19.067  22.023  0.0403  0.2726  0.1232
60623W        W 3535  13.970  18.866  22.038 -0.2053  0.2410  0.2062
60624W        W 3536  10.671  20.939  20.419  0.1107 -0.1121 -0.1045
60625W        W 3537  13.937  19.231  21.647  0.0480  0.0705  0.3145
60626W        W 3538  11.885  19.917  22.028 -0.0257  0.4900 -0.2649
60627W        W 3539   9.840  19.288  21.221  0.0729  0.0701  0.4504
60628W        W 3540  12.120  20.201  20.748  0.3333  0.2963  0.0911
60629W        W 3541  13.039  20.819  22.716 -0.1527 -0.0036  0.0503
60630W        W 3542  13.608  20.259  19.834 -0.3427  0.0494  0.3938
60631W        W 3543  12.216  20.268  23.205  0.0782 -0.2207  0.1420
60632W        W 3544  10.890  19.115  20.646 -0.2110  0.2668  0.0569
60633W        W 3545  13.094  19.739  19.648 -0.0941  0.0193 -0.4237
60634W        W 3546  10.050  19.206  19.749  0.0429  0.0392 -0.3164
60635W        W 3547  12.070  20.464  22.180  0.2291  0.1550 -0.0290
60636W        W 3548  14.915  21.057  23.364 -0.0432 -0.2192  0.2034
60637W        W 3549  10.486  19.453  19.785 -0.4322 -0.1806 -0.4091
60638W        W 3550  14.119  19.354  19.940 -0.2284 -0.3333 -0.4779
60639W        W 3551  14.251  20.671  22.075  0.0426  0.0445  0.0909
60640W        W 3552  11.546  21.851  21.750 -0.4244 -0.0678  0.2041
60641W        W 3553  13.236  19.965  20.226 -0.0832 -0.0107  0.0782
60642W        W 3554  12.261  21.998  22.686  0.3450 -0.2568 -0.0211
60643W        W 3555   9.263  16.915  22.455  0.1698 -0.1928  0.0494
60644W        W 3556  11.862  21.620  22.723 -0.0040  0.3201  0.0998
60645W        W 3557  14.503  20.283  20.241  0.1234 -0.2132  0.0595
60646W        W 3558  13.157  18.848  19.990  0.2980 -0.0011  0.1686
60647W        W 3559  11.198  18.792  21.648 -0.0363 -0.2552 -0.1816
60648W        W 3560  12.551  21.851  20.235  0.0794 -0.0714  0.0616
60649W        W 3561  12.462  18.014  21.105  0.1548  0.0167 -0.1464
60650W        W 3562  13.579  20.438  21.024 -0.1493 -0.2247  0.2430
60651W        W 3563  11.497  21.443  18.968  0.2675 -0.1020 -0.0329
60652W        W 3564  13.193  18.605  21.540 -0.0607  0.1266  0.3076
60653W        W 3565  13.306  20.966  22.000  0.1653 -0.0287  0.0127
60654W        W 3566  11.408  22.192  23.483  0.0513  0.0463  0.1899
60655W        W 3567  10.884  22.040  19.932  0.0156 -0.1362 -0.2452
60656W        W 3568  12.011  19.838  23.488 -0.0461 -0.2586 -0.0375
60657W        W 3569  12.117  20.696  21.070 -0.1594 -0.1196  0.1858
60658W        W 3570  11.963  24.282  20.542  0.2213  0.0546 -0.0988
60659W        W 3571  12.365  22.128  22.228 -0.0599 -0.4081 -0.3348
60660W        W 3572  11.243  19.566  22.252 -0.1995 -0.0642  0.2053
60661W        W 3573  14.521  23.173  21.143  0.2702  0.1490  0.1127
60662W        W 3574  12.046  18.898  20.731  0.1812  0.0500 -0.3730
60663W        W 3575  14.013  19.269  20.537  0.1184 -0.1410 -0.1570
60664W        W 3576  13.342  18.035  20.226  0.1624  0.0679  0.2269
60665W        W 3577  11.800  19.615  22.461 -0.4277  0.4505  0.1240
60666W        W 3578  10.413  18.843  19.760  0.2032 -0.0747 -0.0656
60667W        W 3579  10.757  21.569  20.045  0.0397 -0.0899 -0.3476
60668W        W 3580  10.358  19.105  20.623  0.0418 -0.2668  0.0102
60669W        W 3581  13.340  18.116  21.529  0.0580  0.2696  0.2332
60670W        W 3582  11.603  19.650  23.006  0.1844  0.1077  0.2858
60671W        W 3583  10.608  20.750  21.492 -0.3119 -0.0891  0.1808
60672W        W 3584  10.694  18.872  21.085  0.2783 -0.1604  0.1497
60673W        W 3585  13.066  21.055  19.424  0.2484  0.1289 -0.2681
60674W        W 3586  11.284  18.843  21.202  0.0530 -0.2522 -0.0907
60675W        W 3587  11.570  18.437  21.454 -0.2097  0.0178  0.4079
60676W        W 3588  13.899  20.628  21.399  0.0176  0.1553  0.1197
60677W        W 3589  14.587  22.016  21.193 -0.0009  0.2066  0.1269
60678W        W 3590  12.251  19.886  19.865 -0.0401 -0.0093  0.1401
60679W        W 3591  14.787  21.310  22.978 -0.0166 -0.0788  0.1747
60680W        W 3592  10.902  19.611  20.724  0.1463  0.0512  0.0631
60681W        W 3593  12.790  20.462  22.987 -0.0093 -0.0366 -0.0095
60682W        W 3594  11.117  20.255  22.964 -0.3807  0.1838 -0.4131
60683W        W 3595  10.675  20.017  19.980  0.3666 -0.3320 -0.4581
60684W        W 3596  12.458  18.917  21.322 -0.2697  0.1065  0.2530
60685W        W 3597  13.064  23.364  19.613 -0.1793  0.0512 -0.0542
60686W        W 3598  12.123  22.953  18.891 -0.2037 -0.5047 -0.1029
60687W        W 3599  10.242  21.083  21.314 -0.1932  0.1408  0.0374
60688W        W 3600  11.536  21.444  25.027 -0.2519 -0.0422 -0.2332
60689W        W 3601   9.727  18.074  21.287  0.0134 -0.0636 -0.0866
60690W        W 3602  13.757  22.205  20.676  0.0508  0.1796  0.0559
60691W        W 3603  11.803  20.586  22.649  0.0083  0.0688  0.2580
60692W        W 3604  13.851  21.109  19.977  0.0315  0.0195 -0.1347
60693W        W 3605  13.481  18.212  20.716  0.0303  0.2323  0.3242
60694W        W 3606  12.670  20.500  20.598  0.0996 -0.5626  0.0747
60695W        W 3607  11.530  19.074  23.024 -0.1180  0.1471 -0.2238
60696W        W 3608   9.717  21.419  22.635  0.3715 -0.0939  0.0348
60697W        W 3609  12.642  20.494  22.469 -0.2921 -0.1258  0.4110
60698W        W 3610   9.592  18.865  21.295  0.1008  0.2474  0.1789
60699W        W 3611  12.509  18.261  20.457 -0.1360  0.1873  0.0130
60700W        W 3612  12.910  20.981  20.448 -0.0984 -0.2094  0.3902
60701W        W 3613  10.500  18.575  21.526 -0.0972  0.3298  0.1318
60702W        W 3614  11.937  20.232  19.642  0.0786 -0.1574 -0.2352
60703W        W 3615  11.194  22.550  22.559  0.2590 -0.2617 -0.2596
60704W        W 3616  12.769  19.445  20.583  0.1319  0.1083  0.1373
60705W        W 3617  13.246  19.880  22.484  0.0099 -0.1023 -0.0638
60706W        W 3618  11.714  19.154  20.311  0.0670  0.1040 -0.4162
60707W        W 3619  14.281  21.077  20.240 -0.3613 -0.0689 -0.0759
60708W        W 3620  12.736  21.873  21.852  0.1651 -0.0044 -0.0605
60709W        W 3621  13.345  22.474  24.210 -0.0136 -0.0300  0.2995
60710W        W 3622  12.359  21.378  23.360 -0.3958  0.0746 -0.0914
60711W        W 3623  13.114  20.426  20.828 -0.1190 -0.1769  0.4048
60712W        W 3624  10.293  18.110  21.070 -0.1872 -0.1910  0.1281
60713W        W 3625  11.497  20.481  20.412  0.1185  0.1026 -0.1806
60714W        W 3626  13.125  21.398  20.890  0.2191  0.4491  0.1143
60715W        W 3627  12.278  20.832  22.454  0.0929 -0.0720  0.0685
60716W        W 3628  11.149  18.613  20.784  0.0864 -0.1991  0.0681
60717W        W 3629  13.082  18.357  19.863 -0.1656 -0.1575 -0.0956
60718W        W 3630  11.275  21.624  23.448 -0.1890 -0.0282  0.2697
60719W        W 3631  13.734  21.649  20.773 -0.0123 -0.2913 -0.0706
60720W        W 3632  12.220  20.562  26.930  0.3013 -0.0531  0.1698
60721W        W 3633  10.124  19.748  22.620 -0.0683  0.1908 -0.0192
60722W        W 3634  13.457  18.452  21.931  0.1932  0.0874 -0.3374
60723W        W 3635  14.698  19.392  22.866 -0.0363 -0.1596 -0.3736
60724W        W 3636  10.128  18.722  26.438 -0.1610 -0.1573  0.1843
60725W        W 3637  13.386  21.343  24.840 -0.0852  0.0830 -0.1837
60726W        W 3638  11.990  17.267  26.198 -0.0950  0.2219  0.2770
60727W        W 3639  14.109  19.657  24.455  0.0954  0.1934  0.0332
60728W        W 3640  12.800  20.836  25.224 -0.0393  0.1517 -0.1855
60729W        W 3641  13.547  21.334  23.548  0.1877  0.0002 -0.3392
60730W        W 3642  12.458  20.103  25.542 -0.1262 -0.3014 -0.0173
60731W        W 3643  12.701  20.924  26.502  0.2116 -0.0661 -0.0536
60732W        W 3644  12.023  19.219  23.809  0.1136  0.0503 -0.0110
60733W        W 3645  10.538  17.018  25.265  0.1499 -0.1712 -0.0318
60734W        W 3646  14.250  20.483  24.989  0.1771 -0.0289  0.0539
60735W        W 3647   9.985  19.666  23.743  0.1668  0.0225  0.2174
60736W        W 3648  12.358  19.568  24.730 -0.1235 -0.0471  0.1867
60737W        W 3649  11.802  18.115  24.238 -0.1418  0.0250  0.2622
60738W        W 3650  11.265  21.901  23.901  0.1433 -0.0708 -0.2029
60739W        W 3651  12.498  18.543  25.490  0.0093  0.2430 -0.4242
60740W        W 3652  12.614  19.562  26.633  0.2545 -0.2566 -0.0188
60741W        W 3653  14.304  21.303  23.135  0.0424 -0.2617 -0.2516
60742W        W 3654  10.188  20.631  23.096  0.0612  0.4884 -0.2642
60743W        W 3655  10.953  19.494  26.446 -0.1927 -0.1482  0.0610
60744W        W 3656  12.589  19.427  25.691 -0.1861 -0.1815 -0.3845
60745W        W 3657  13.073  17.973  24.820 -0.0969 -0.0317  0.2168
60746W        W 3658  12.502  19.934  24.372 -0.4278  0.0102  0.0123
60747W        W 3659  12.273  20.788  26.245 -0.1329 -0.1087 -0.0045
60748W        W 3660  12.202  22.039  24.844 -0.0117 -0.0828 -0.1641
60749W        W 3661  13.899  19.911  26.172  0.1338 -0.1482 -0.0821
60750W        W 3662  10.745  20.214  24.398  0.2229  0.1303  0.4141
60751W        W 3663  11.202  22.381  25.951 -0.0637 -0.0144  0.1850
60752W        W 3664   9.866  20.012  26.434 -0.1045  0.0269  0.0329
60753W        W 3665  13.848  21.735  23.890 -0.1201  0.2914  0.0512
60754W        W 3666  13.360  21.004  25.312  0.0821  0.0222  0.0541
60755W        W 3667  13.109  22.157  26.357 -0.1606  0.2198  0.1457
60756W        W 3668   9.520  20.530  22.472 -0.1855  0.2189 -0.1362
60757W        W 3669  12.630  21.429  27.174  0.0478 -0.0566  0.0167
60758W        W 3670  12.569  22.357  26.305 -0.1125  0.1088  0.0629
60759W        W 3671  13.651  20.529  25.374 -0.0332 -0.3054 -0.1219
60760W        W 3672  12.574  18.804  25.062  0.3023 -0.0673 -0.0704
60761W        W 3673   9.200  20.722  23.705  0.1274 -0.0323 -0.1591
60762W        W 3674  11.884  20.056  23.980  0.3798  0.1268  0.1103
60763W        W 3675  12.330  19.151  26.667 -0.0095  0.0904 -0.0466
60764W        W 3676  11.075  20.077  26.613  0.1344  0.1844 -0.1645
60765W        W 3677  14.386  21.110  25.732 -0.1783  0.1197 -0.3081
60766W        W 3678  11.710  21.199  24.443 -0.0705  0.0109 -0.0953
60767W        W 3679  11.622  20.234  23.022 -0.0766 -0.4095  0.2206
60768W        W 3680  11.354  18.113  22.708  0.4802 -0.2382  0.1401
60769W        W 3681  13.527  19.119  22.868 -0.0008  0.1159  0.0904
60770W        W 3682  13.270  16.611  24.279  0.0107 -0.0951 -0.1150
60771W        W 3683  12.214  20.382  24.206  0.3294 -0.1865 -0.0149
60772W        W 3684  11.460  18.868  24.495  0.0731  0.1910  0.0298
60773W        W 3685  12.151  19.614  25.383 -0.0672 -0.2448  0.1407
60774W        W 3686  12.656  19.162  23.814  0.2729 -0.1053  0.0713
60775W        W 3687  12.497  18.298  25.049  0.0052 -0.0854  0.1928
60776W        W 3688  13.600  22.027  26.270 -0.0668 -0.0676 -0.2370
60777W        W 3689  11.947  18.630  24.622  0.2360  0.1512  0.0166
60778W        W 3690  12.965  21.434  22.813  0.0055  0.0813 -0.0976
60779W        W 3691  13.286  21.161  25.829  0.1329 -0.0626 -0.1101
60780W        W 3692  10.906  21.221  24.220 -0.0612  0.0957 -0.0681
60781W        W 3693  11.058  19.337  24.966 -0.1166 -0.3692  0.0424
60782W        W 3694  11.929  20.792  25.811 -0.0846  0.2101 -0.0421
60783W        W 3695  11.252  19.611  27.179 -0.1380 -0.0298  0.1280
60784W        W 3696  11.803  18.470  22.525 -0.0916  0.2125  0.0203
60785W        W 3697  14.528  21.266  25.158 -0.0731  0.0599 -0.0028
60786W        W 3698   9.636  21.747  26.969  0.0118 -0.1172 -0.0821
60787W        W 3699  13.558  19.350  24.100 -0.0853  0.0330  0.1637
60788W        W 3700  11.692  20.697  25.229  0.2381 -0.0099 -0.0285
60789W        W 3701  12.729  21.059  23.144  0.0623 -0.0092 -0.0897
60790W        W 3702  13.077  20.242  23.627  0.2975 -0.1463 -0.0246
60791W        W 3703  13.419  17.687  24.938  0.0462  0.4121  0.3450
60792W        W 3704  13.034  18.172  25.317  0.0515 -0.3132  0.0662
60793W        W 3705  11.107  19.424  22.859  0.1870  0.0924 -0.1527
60794W        W 3706  12.402  20.203  23.621  0.1163  0.1425 -0.0489
60795W        W 3707  13.957  20.583  24.303 -0.1940 -0.4148  0.1374
60796W        W 3708  13.296  20.375  23.076 -0.0583 -0.0598  0.0076
60797W        W 3709  11.880  20.981  24.856  0.1103 -0.2388 -0.3091
60798W        W 3710  12.006  19.210  25.045 -0.2222 -0.3641 -0.0155
60799W        W 3711  13.575  20.658  26.371 -0.2762  0.2265  0.5731
60800W        W 3712  12.152  21.186  23.800 -0.1148  0.1694  0.1171
60801W        W 3713  10.668  19.815  25.668 -0.1591  0.2285  0.2347
60802W        W 3714  10.440  20.031  24.960  0.0584 -0.2886  0.0435
60803W        W 3715  10.071  18.360  25.854  0.1848 -0.0555  0.2670
60804W        W 3716  12.398  21.091  26.866  0.2108  0.0029  0.2962
60805W        W 3717  13.472  18.570  23.953 -0.2806  0.0664  0.1008
60806W        W 3718  10.593  18.563  26.526 -0.0358  0.1751 -0.2098
60807W        W 3719  13.944  18.069  24.353  0.2872  0.4081  0.1282
60808W        W 3720  11.594  21.372  23.084  0.2410  0.3586  0.1612
60809W        W 3721  13.267  21.252  24.307  0.1904 -0.3353  0.0657
60810W        W 3722  13.831  19.712  23.261 -0.1563  0.0768  0.3700
60811W        W 3723  13.405  21.475  23.113  0.0572 -0.0930  0.0461
60812W        W 3724  11.620  18.557  26.942 -0.2475 -0.3350  0.2327
60813W        W 3725   9.408  18.444  25.387  0.0995  0.0675  0.0172
60814W        W 3726  11.623  18.026  25.862  0.3275  0.2496  0.0366
60815W        W 3727  11.398  19.134  26.347 -0.3238  0.0590 -0.0770
60816W        W 3728  14.184  20.520  25.541  0.1906 -0.1726  0.2495
60817W        W 3729  10.024  19.184  23.876  0.1172  0.0346 -0.4327
60818W        W 3730  12.931  18.482  24.940  0.0127  0.0337 -0.0858
60819W        W 3731  12.357  18.917  24.184 -0.1814 -0.0218 -0.1117
60820W        W 3732  11.165  20.478  24.029 -0.0168  0.0388 -0.1002
60821W        W 3733  13.248  19.201  26.152  0.0551  0.0381 -0.2725
60822W        W 3734  12.171  22.045  23.153 -0.1006 -0.0440 -0.0787
60823W        W 3735  14.754  21.630  24.879  0.1047  0.1151 -0.0271
60824W        W 3736  13.664  21.212  24.034  0.2079  0.0814 -0.0219
60825W        W 3737  10.760  18.984  26.268  0.2790  0.0571 -0.0711
60826W        W 3738  10.832  19.118  23.587 -0.0052  0.0087 -0.1119
60827W        W 3739  12.714  22.418  25.842 -0.2397 -0.0644  0.2502
60828W        W 3740  12.817  19.885  23.768 -0.0380 -0.2114 -0.0606
60829W        W 3741  13.010  19.827  24.369  0.2137  0.2322  0.1249
60830W        W 3742  12.496  22.595  24.838  0.1567  0.1783  0.0507
60831W        W 3743  11.991  19.982  24.491  0.0790 -0.1821  0.4398
60832W        W 3744  12.524  20.391  26.515  0.1931  0.2954  0.1668
60833W        W 3745  11.796  17.899  24.944  0.1697  0.1034 -0.2666
60834W        W 3746  14.265  19.933  23.549  0.0560  0.0944  0.0474
60835W        W 3747  12.491  19.279  25.085  0.1742 -0.2348 -0.1574
60836W        W 3748  11.354  18.637  22.687  0.5374 -0.0813 -0.1275
60837W        W 3749  13.179  20.662  24.973  0.0414 -0.1472  0.1355
60838W        W 3750  10.775  21.781  25.351 -0.4050 -0.0993 -0.2026
60839W        W 3751  10.630  19.454  25.290 -0.1122  0.1585 -0.1517
60840W        W 3752  12.577  20.647  24.432 -0.2551 -0.1015  0.3055
60841W        W 3753  13.922  18.781  22.965 -0.1360 -0.0604  0.2253
60842W        W 3754  10.432  19.002  26.656 -0.0168  0.2212 -0.3154
60843W        W 3755  13.989  20.349  26.293 -0.3662  0.1090  0.1574
60844W        W 3756  11.127  19.401  23.846 -0.0355 -0.0473  0.1179
60845W        W 3757  12.015  21.249  26.115  0.2605 -0.1870  0.0028
60846W        W 3758  13.570  17.246  22.874  0.0904  0.0682  0.0287
60847W        W 3759  13.288  19.035  23.802 -0.3137 -0.1649 -0.0817
60848W        W 3760  14.808  19.690  25.131  0.0259 -0.0112  0.3012
60849W        W 3761  13.853  19.195  23.699 -0.0899  0.2013  0.0310
60850W        W 3762  12.034  19.362  22.922 -0.1508 -0.1137  0.2762
60851W        W 3763  14.407  18.395  23.133  0.2042  0.0004 -0.1304
60852W        W 3764  11.104  22.111  27.904  0.2571  0.0146  0.2471
60853W        W 3765  12.043  20.846  24.288  0.5573  0.0600  0.2005
60854W        W 3766  12.717  20.198  25.128  0.1679 -0.2329  0.2088
60855W        W 3767  12.709  18.692  22.302 -0.5628  0.0259 -0.1482
60856W        W 3768  13.454  19.945  23.525  0.0645  0.1416 -0.1694
60857W        W 3769  11.236  20.368  26.003  0.1504 -0.0811 -0.1449
60858W        W 3770  13.761  21.154  27.361 -0.0035  0.1018 -0.4146
60859W        W 3771  13.000  20.828  24.564 -0.1527 -0.0479 -0.1598
60860W        W 3772  12.282  17.046  25.886  0.1553  0.1224  0.2175
60861W        W 3773  10.529  19.178  22.570 -0.0838  0.1910 -0.2506
60862W        W 3774  12.246  18.143  24.601  0.0231  0.0202 -0.1572
60863W        W 3775  10.652  20.234  23.296  0.2388  0.3505 -0.0490
60864W        W 3776  13.867  17.119  23.359 -0.1254  0.0769  0.0553
60865W        W 3777  13.525  18.122  24.611 -0.0848  0.0890  0.1559
60866W        W 3778  11.870  16.675  24.493 -0.0178 -0.1316 -0.0791
60867W        W 3779  14.741  20.249  25.679  0.0706  0.2398  0.0660
60868W        W 3780  11.581  17.766  23.017 -0.0527 -0.1556 -0.0455
60869W        W 3781  13.003  19.786  26.064  0.0048  0.2770  0.1137
60870W        W 3782  11.961  19.591  24.220 -0.0834 -0.4230 -0.2275
60871W        W 3783  11.676  18.982  25.951 -0.0162 -0.1118  0.2773
60872W        W 3784  11.787  19.566  27.178 -0.1883 -0.0968  0.1409
60873W        W 3785  12.286  20.825  27.325  0.1979 -0.1527  0.0714
60874W        W 3786  12.910  21.887  27.216 -0.0720 -0.0443 -0.0262
60875W        W 3787  13.307  19.613  25.073  0.2640  0.0432  0.2376
60876W        W 3788  14.155  19.324  25.759  0.0397 -0.0452  0.1251
60877W        W 3789  12.179  18.425  23.210  0.1138  0.0451  0.0288
60878W        W 3790  12.704  22.128  24.946  0.0321  0.1360  0.1155
60879W        W 3791  10.589  19.852  21.706 -0.1642  0.0212  0.0805
60880W        W 3792  12.060  17.563  24.641  0.4155  0.0175 -0.2216
60881W        W 3793  12.923  20.320  25.964 -0.0897  0.2145  0.1606
60882W        W 3794  12.249  22.856  22.124 -0.5117  0.2396 -0.0006
60883W        W 3795  11.907  21.115  27.050 -0.0650  0.3203  0.0551
60884W        W 3796  11.170  20.416  23.543 -0.1689 -0.0621  0.0401
60885W        W 3797  13.546  18.185  25.099 -0.0453 -0.1388  0.2149
60886W        W 3798  11.222  20.530  25.223  0.0356  0.3572 -0.4125
60887W        W 3799  12.360  18.753  23.680 -0.1132  0.1513 -0.0651
60888W        W 3800   9.358  19.352  25.075  0.1040 -0.1437  0.1466
60889W        W 3801  13.395  17.288  23.407 -0.3174  0.0267  0.1040
60890W        W 3802  13.589  20.575  22.369  0.0405  0.2586  0.0352
60891W        W 3803  11.046  18.648  25.604 -0.0018 -0.2207  0.0785
60892W        W 3804  13.267  17.731  24.388  0.2364  0.0693  0.3271
60893W        W 3805  10.538  21.713  26.964 -0.0328 -0.3921  0.4360
60894W        W 3806  12.478  19.928  26.171 -0.0490  0.3584 -0.0243
60895W        W 3807  13.275  18.939  24.328 -0.2333 -0.0373  0.0426
60896W        W 3808  12.415  21.146  25.404  0.1703 -0.1364  0.1025
60897W        W 3809  11.320  20.536  28.115 -0.1405 -0.1147  0.3153
60898W        W 3810  10.087  19.820  23.224 -0.3819 -0.1481 -0.1257
60899W        W 3811  13.719  20.686  24.872 -0.0946 -0.5351 -0.2551
60900W        W 3812  11.156  19.093  25.873 -0.0768  0.1712  0.1228
60901W        W 3813  11.274  20.990  25.112 -0.1991 -0.1014  0.2643
60902W        W 3814  13.989  20.164  24.660 -0.3356  0.2861 -0.1306
60903W        W 3815  10.187  18.460  21.984  0.2214 -0.2538 -0.2198
60904W        W 3816  11.527  19.857  24.392 -0.0140 -0.0042  0.2447
60905W        W 3817  11.587  18.497  25.796 -0.1506  0.0097 -0.3604
60906W        W 3818  13.167  20.270  24.211  0.4765 -0.2414 -0.2889
60907W        W 3819  12.639  17.763  24.617 -0.0826 -0.3195  0.0260
60908W        W 3820  11.039  18.911  24.752 -0.1319 -0.1926  0.1497
60909W        W 3821  13.175  19.402  25.583  0.3116 -0.0449  0.0374
60910W        W 3822  12.459  19.431  24.262 -0.1785 -0.0004  0.3181
60911W        W 3823  12.706  18.196  24.242 -0.4514  0.2171  0.1039
60912W        W 3824  10.853  20.596  27.831 -0.2642  0.0921 -0.4804
60913W        W 3825  12.400  16.307  25.867 -0.0478  0.1642  0.2794
60914W        W 3826  13.794  20.829  23.748 -0.0064 -0.2973 -0.0160
60915W        W 3827  13.422  20.707  25.915 -0.2869  0.0164  0.0967
60916W        W 3828  10.996  19.801  24.161 -0.2073  0.6403 -0.0593
60917W        W 3829  10.989  19.826  25.221  0.0625 -0.0463 -0.2230
60918W        W 3830  10.248  20.674  23.600 -0.2972  0.0218  0.0314
60919W        W 3831  13.721  19.176  25.959  0.0988  0.0300  0.0433
60920W        W 3832  11.406  20.949  25.742 -0.2188 -0.1872 -0.1664
60921W        W 3833  10.694  21.118  23.769  0.2983 -0.1027 -0.2292
60922W        W 3834  11.162  21.419  26.063 -0.1212  0.0671 -0.0874
60923W        W 3835  15.257  18.304  22.181 -0.1421 -0.0830 -0.5095
60924W        W 3836  12.698  21.739  22.486  0.2067 -0.2007 -0.0939
60925W        W 3837  12.333  19.041  24.651 -0.0170  0.0502  0.1804
60926W        W 3838  13.352  18.916  25.730  0.2944 -0.1191  0.1084
60927W        W 3839  12.970  19.319  24.223  0.1939  0.0715  0.0650
60928W        W 3840  14.155  16.981  24.839  0.1805 -0.1076  0.2507
60929W        W 3841  11.647  18.326  25.178 -0.1949 -0.1596 -0.1583
60930W        W 3842  13.463  19.396  23.504  0.0979  0.0273  0.0891
60931W        W 3843   9.309  19.473  26.112 -0.4245 -0.3950 -0.6817
60932W        W 3844  14.241  21.325  27.180 -0.0817  0.4295 -0.0581
60933W        W 3845  11.307  21.558  28.829  0.0051  0.0061  0.0066
60934W        W 3846  12.541  18.569  24.623  0.1335 -0.1490  0.0494
60935W        W 3847   9.913  20.460  22.069 -0.0690  0.2926 -0.0594
60936W        W 3848  12.905  21.270  26.823  0.1284  0.1391 -0.1644
60937W        W 3849  13.612  19.822  24.313 -0.3218 -0.1870  0.4741
60938W        W 3850  11.383  20.001  23.863  0.0627 -0.0532 -0.0576
60939W        W 3851  14.620  19.530  24.627 -0.0681  0.0986  0.1390
60940W        W 3852  12.265  20.375  25.936 -0.3313  0.0621  0.2265
60941W        W 3853  12.356  19.369  23.484  0.2254  0.0351 -0.1340
60942W        W 3854  12.125  18.941  23.297  0.0948  0.2491 -0.2954
60943W        W 3855  11.976  20.489  24.690  0.2269  0.1801  0.0068
60944W        W 3856  13.635  18.800  26.306 -0.3725 -0.0436 -0.1459
60945W        W 3857  13.414  19.310  24.640  0.1524 -0.0713 -0.1030
60946W        W 3858  12.757  18.684  24.008 -0.0505 -0.2470  0.2600
60947W        W 3859  12.898  20.015  26.554 -0.1629  0.5729  0.1188
60948W        W 3860  12.678  18.672  26.784  0.1182  0.1282  0.1336
60949W        W 3861  12.718  19.416  27.150  0.4939 -0.0383 -0.3503
60950W        W 3862  10.952  19.122  26.859 -0.0688  0.2532  0.0105
60951W        W 3863  14.096  21.442  25.477 -0.2984 -0.0300 -0.3455
60952W        W 3864  13.207  19.344  22.375  0.1896  0.0525 -0.1998
60953W        W 3865  13.642  19.614  26.861  0.3977 -0.0039 -0.2375
60954W        W 3866  11.828  19.336  23.375  0.6608  0.0056  0.2167
60955W        W 3867  12.537  18.766  21.837  0.3577  0.3071  0.0749
60956W        W 3868  11.222  19.624  25.963 -0.0192  0.0584  0.0195
60957W        W 3869  12.658  19.377  26.170 -0.1986  0.0171  0.0501
60958W        W 3870  10.491  19.648  23.502  0.0508 -0.0782  0.5440
60959W        W 3871  13.126  19.530  26.565  0.0940  0.1082  0.0451
60960W        W 3872  10.190  21.079  23.324 -0.0916  0.1937 -0.1347
60961W        W 3873  13.237  19.679  23.863 -0.2124  0.1476 -0.0658
60962W        W 3874  12.075  19.877  22.842  0.2473 -0.0257 -0.0622
60963W        W 3875  11.585  19.318  24.731 -0.0141  0.0237 -0.3437
60964W        W 3876  11.612  20.849  28.433 -0.1553 -0.0319 -0.1971
60965W        W 3877  10.450  18.645  22.433  0.0134 -0.1252 -0.1014
60966W        W 3878  11.521  20.881  22.952  0.0687 -0.2537 -0.2517
60967W        W 3879  12.330  20.153  24.836  0.0589 -0.1732  0.1524
60968W        W 3880  15.043  21.363  26.379 -0.0016  0.1600  0.0260
60969W        W 3881  11.730  18.668  23.481 -0.1417  0.2217  0.1314
60970W        W 3882  13.747  20.158  25.087 -0.1164  0.0970  0.1609
60971W        W 3883  11.702  20.275  23.519  0.1436 -0.2590 -0.1003
60972W        W 3884  13.781  17.620  24.633  0.1486 -0.0516  0.1677
60973W        W 3885  13.642  21.130  26.206 -0.0125  0.1725  0.1186
60974W        W 3886  11.266  20.620  26.422 -0.0635 -0.1970 -0.0756
60975W        W 3887  11.443  20.703  24.744  0.1455 -0.1799  0.0002
60976W        W 3888  10.990  18.527  26.132  0.2571 -0.0482  0.1856
60977W        W 3889  13.754  19.096  24.953 -0.1510 -0.0173  0.0449
60978W        W 3890  14.069  19.721  25.054 -0.0695 -0.0345 -0.1590
60979W        W 3891  15.395  21.086  24.897 -0.1325 -0.1487  0.4692
60980W        W 3892  12.835  20.945  27.217  0.3993 -0.0005 -0.1409
60981W        W 3893  11.095  20.990  27.115 -0.3035  0.0449  0.0779
60982W        W 3894  14.613  21.428  26.621 -0.0748  0.3218 -0.0525
60983W        W 3895  14.077  20.723  23.044 -0.0367 -0.0202 -0.0423
60984W        W 3896  11.968  20.013  27.009 -0.1630  0.1383 -0.3080
60985W        W 3897  11.419  19.509  26.646 -0.1292 -0.0082 -0.1178
60986W        W 3898  12.006  20.079  25.254  0.0993  0.3341  0.0777
60987W        W 3899  14.191  18.793  23.516  0.3048  0.0523 -0.0373
60988W        W 3900  10.896  18.433  24.076  0.1329  0.0146 -0.0049
60989W        W 3901  12.635  19.980  22.727 -0.1277 -0.2206 -0.1653
60990W        W 3902  10.670  21.412  26.366 -0.0404 -0.2410 -0.2319
60991W        W 3903  11.954  19.938  26.502 -0.3270  0.0788  0.4004
60992W        W 3904  11.536  20.753  23.503 -0.2336 -0.0036  0.0275
60993W        W 3905  12.954  20.705  24.021  0.0629 -0.1365 -0.0902
60994W        W 3906  12.901  19.394  24.781 -0.0947 -0.0057 -0.3235
60995W        W 3907  13.210  23.269  25.587  0.3611  0.2694 -0.0550
60996W        W 3908  11.616  19.556  23.812 -0.1138  0.2411 -0.0935
60997W        W 3909  11.633  19.627  25.642 -0.3049  0.0929  0.0917
60998W        W 3910   9.150  21.919  23.553 -0.1881  0.0729 -0.0830
60999W        W 3911  11.989  21.128  23.196  0.0016 -0.2046 -0.1524
61000W        W 3912  11.537  21.519  25.499  0.2037 -0.2356 -0.2919
61001W        W 3913  14.969  22.423  25.266 -0.3105 -0.1109  0.2212
61002W        W 3914  13.707  18.761  21.627  0.0257  0.1847 -0.2601
61003W        W 3915  14.953  20.223  22.678  0.0563  0.2196 -0.1711
61004W        W 3916  13.217  19.654  22.007  0.1708  0.2334  0.1751
61005W        W 3917  13.216  21.323  26.323  0.0843 -0.0373 -0.1358
61006W        W 3918  11.488  19.898  26.325  0.3329 -0.0537  0.2134
61007W        W 3919  12.921  18.289  21.853 -0.0654  0.1956 -0.0811
61008W        W 3920  12.357  18.983  25.514  0.0502  0.0926  0.0335
61009W        W 3921  14.044  18.236  24.787  0.2371 -0.1656 -0.0957
61010W        W 3922  10.633  22.729  27.050  0.1307  0.3003  0.0982
61011W        W 3923  12.902  20.683  23.485 -0.0997 -0.1318  0.0159
61012W        W 3924  10.347  19.321  24.431  0.2699 -0.0921 -0.1261
61013W        W 3925  10.603  18.931  25.798 -0.0303 -0.1124 -0.1946
61014W        W 3926  14.324  18.052  22.406  0.0665 -0.0902  0.2766
61015W        W 3927  11.913  20.641  23.159  0.0958  0.1904  0.4210
61016W        W 3928  12.107  18.766  25.942  0.2509 -0.0991 -0.0230
61017W        W 3929  12.292  21.988  25.826 -0.0534  0.1720 -0.1100
61018W        W 3930  13.482  21.484  25.369  0.0032  0.1464  0.2957
61019W        W 3931  12.619  23.170  25.598 -0.1141  0.1245 -0.1047
61020W        W 3932   9.874  19.287  25.456 -0.0053 -0.0854 -0.1685
61021W        W 3933  15.232  19.829  22.759  0.0153 -0.0890 -0.2749
61022W        W 3934  11.770  20.268  26.038 -0.1612  0.0997 -0.4816
61023W        W 3935  14.347  17.351  23.316  0.1384 -0.1385 -0.1175
61024W        W 3936  10.482  19.474  23.963  0.2214 -0.2731  0.2063
61025W        W 3937  12.788  18.619  22.871 -0.1437  0.1402 -0.2111
61026W        W 3938  12.363  20.612  25.271 -0.1493  0.0021 -0.1760
61027W        W 3939  10.200  19.106  26.022  0.0109  0.0462  0.2968
61028W        W 3940  12.766  18.539  23.498  0.2793  0.0078  0.1492
61029W        W 3941  15.197  22.117  25.801  0.0963 -0.2061  0.2820
61030W        W 3942  11.448  19.718  21.813 -0.1834 -0.1387  0.0634
61031W        W 3943  13.127  21.763  25.792  0.0417  0.1195  0.3453
61032W        W 3944  11.422  18.614  23.843 -0.1029  0.0906  0.1710
61033W        W 3945  13.210  18.881  23.292 -0.0107 -0.0079 -0.1638
61034W        W 3946  10.823  19.285  24.379 -0.1889 -0.1361 -0.0409
61035W        W 3947  12.002  19.118  27.029 -0.1247 -0.0241 -0.0603
61036W        W 3948  14.955  22.153  27.190  0.2781 -0.1191  0.0713
61037W        W 3949  11.863  18.835  25.484 -0.2168 -0.2597  0.4586
61038W        W 3950  12.286  21.407  22.378  0.0706  0.0415 -0.0733
61039W        W 3951  13.679  19.729  24.766  0.1463 -0.2028  0.0347
61040W        W 3952  10.091  22.414  25.045  0.1443 -0.0323 -0.0050
61041W        W 3953  13.688  20.182  23.942 -0.0092  0.0795 -0.1591
61042W        W 3954  13.260  21.573  23.878  0.1286 -0.0120 -0.0613
61043W        W 3955  11.220  18.565  25.144 -0.2575 -0.3998  0.1750
61044W        W 3956  14.218  20.798  26.396  0.3844 -0.1657  0.2626
61045W        W 3957  13.971  20.815  25.918  0.0794 -0.3283 -0.4509
61046W        W 3958  12.517  16.827  24.225 -0.2465 -0.1287  0.1067
61047W        W 3959  10.320  19.490  25.631  0.2552 -0.2640 -0.0658
61048W        W 3960  11.961  22.465  24.649 -0.0613  0.1463  0.3430
61049W        W 3961  14.107  17.913  23.729 -0.3854 -0.0029  0.1155
61050W        W 3962  14.416  18.536  25.182  0.1007 -0.1941 -0.4182
61051W        W 3963  10.695  20.246  21.447 -0.0971  0.3912 -0.0290
61052W        W 3964  13.220  17.105  24.451  0.3086  0.1577 -0.2363
61053W        W 3965  13.003  21.348  25.424 -0.0183  0.0396  0.1958
61054W        W 3966  12.089  21.500  25.612  0.0162 -0.1135  0.0069
61055W        W 3967   9.446  19.545  25.519 -0.0300  0.0418 -0.1845
61056W        W 3968  13.079  20.596  27.607  0.4661 -0.2157 -0.1891
61057W        W 3969  12.299  19.709  23.856  0.0918  0.0588 -0.1997
61058W        W 3970  11.918  21.621  23.364  0.1073 -0.1841 -0.1733
61059W        W 3971  13.811  19.681  23.819  0.1800  0.1397 -0.2002
61060W        W 3972  11.927  19.143  24.362 -0.1563  0.0234  0.0457
61061W        W 3973  14.433  21.512  23.874 -0.0654 -0.0943  0.2236
61062W        W 3974  11.578  19.049  23.946 -0.1491  0.0632  0.2701
61063W        W 3975  13.885  18.296  23.348  0.1556  0.0930  0.1753
61064W        W 3976  13.291  17.285  25.310 -0.3967 -0.0900  0.3895
61065W        W 3977  12.027  19.903  25.791  0.0064 -0.1211  0.1128
61066W        W 3978   8.933  19.956  23.901 -0.3850 -0.2323 -0.1514
61067W        W 3979  10.654  20.603  22.946  0.2126  0.0493  0.1363
61068W        W 3980  11.489  19.880  25.196 -0.1474 -0.3641 -0.3378
61069W        W 3981  14.438  19.106  26.491 -0.0010 -0.0788  0.0024
61070W        W 3982  11.088  17.647  27.257  0.3070 -0.2477  0.1533
61071W        W 3983  10.327  20.353  26.282  0.1346 -0.0042 -0.0811
61072W        W 3984  11.389  19.351  24.283 -0.1120  0.0709  0.0565
61073W        W 3985  14.913  21.349  22.468 -0.1210  0.1370 -0.0710
61074W        W 3986  12.114  18.628  25.112 -0.0188 -0.1366 -0.2275
61075W        W 3987  10.909  17.841  25.515  0.0884 -0.1044  0.1744
61076W        W 3988  12.932  21.405  23.371 -0.1312 -0.0935  0.3090
61077W        W 3989  12.844  19.872  24.807  0.1729 -0.2602  0.0841
61078W        W 3990  11.240  18.223  25.501  0.1530 -0.0520 -0.1902
61079W        W 3991  14.371  21.657  25.974  0.1288 -0.1200 -0.1737
61080W        W 3992  10.092  21.115  22.776 -0.0995  0.0520  0.2899
61081W        W 3993  13.978  19.985  26.685  0.5912  0.2796  0.1940
61082W        W 3994  12.829  18.966  26.375  0.0020  0.0137 -0.1716
61083W        W 3995  10.685  17.967  24.257 -0.0106  0.0668  0.2180
61084W        W 3996  12.879  18.922  24.671  0.0620 -0.0142  0.3727
61085W        W 3997  12.684  20.266  24.072 -0.1093 -0.2957  0.6892
61086W        W 3998  13.237  21.000  23.135  0.2486 -0.0923  0.3763
61087W        W 3999  12.940  19.957  25.545  0.2077 -0.1788 -0.5152
61088W        W 4000  12.308  21.632  26.261 -0.0111 -0.0031 -0.0685
61089W        W 4001  10.811  18.337  25.225  0.0663 -0.0741  0.0929
61090W        W 4002  12.958  19.419  23.488 -0.3043 -0.0637  0.0943
61091W        W 4003  12.910  20.836  26.094  0.1814 -0.5899 -0.1606
61092W        W 4004  14.594  20.499  22.408  0.2323 -0.2750  0.0469
61093W        W 4005  13.738  18.579  24.415  0.2520 -0.2126  0.0741
61094W        W 4006  11.270  19.963  23.320  0.1861  0.1625  0.0386
61095W        W 4007  12.838  18.395  26.284 -0.1747 -0.0951 -0.4216
61096W        W 4008  11.028  20.897  26.082  0.3124 -0.0498  0.1967
61097W        W 4009  14.915  21.183  24.814  0.0427  0.2688 -0.3746
61098W        W 4010  13.057  18.469  24.467  0.2787  0.0846 -0.1714
61099W        W 4011  13.676  17.904  23.985  0.1166 -0.2326  0.1086
61100W        W 4012  11.606  20.942  24.047  0.3385  0.1651 -0.3502
61101W        W 4013  10.837  19.931  26.122  0.5751 -0.2184 -0.2022
61102W        W 4014  12.624  18.148  23.745 -0.0201  0.1371 -0.0970
61103W        W 4015  11.708  19.488  26.089 -0.0919 -0.0305  0.1895
61104W        W 4016  12.842  20.286  24.601  0.0389 -0.0203 -0.1320
61105W        W 4017  13.878  20.834  26.800 -0.1252 -0.1906  0.1984
61106W        W 4018  10.896  19.887  23.634 -0.2459 -0.0767 -0.2496
61107W        W 4019  13.058  19.421  22.978 -0.0726  0.2138  0.0362
61108W        W 4020  12.567  21.540  25.708 -0.0989  0.2824  0.0679
61109W        W 4021  14.374  22.147  27.229  0.3246 -0.1088  0.1022
61110W        W 4022  12.029  22.196  26.268  0.0993 -0.2318  0.1832
61111W        W 4023  14.727  20.082  23.309  0.0342  0.0304  0.1860
61112W        W 4024  10.487  19.187  24.877 -0.1366 -0.0371  0.2334
61113W        W 4025  11.273  19.448  23.364 -0.1057 -0.0063  0.1720
61114W        W 4026  11.865  21.129  25.382  0.1342  0.0990  0.1745
61115W        W 4027  12.892  18.802  25.475 -0.2288  0.2650 -0.0129
61116W        W 4028  11.636  18.856  25.035 -0.0815  0.3652 -0.1834
61117W        W 4029  13.965  19.054  22.510  0.1784  0.1251 -0.0022
61118W        W 4030  11.534  20.306  26.759 -0.1617  0.1631  0.0974
61119W        W 4031  11.908  19.688  24.883  0.1039 -0.0305 -0.2146
61120W        W 4032  13.439  21.342  29.772 -0.2447 -0.0019  0.0396
61121W        W 4033  12.134  19.356  29.609  0.1395  0.2179 -0.0131
61122W        W 4034  14.618  20.745  24.851  0.2571  0.3717  0.1818
61123W        W 4035  14.093  18.950  26.178 -0.0169  0.1489  0.2421
61124W        W 4036  11.633  18.024  27.702 -0.2041 -0.2370 -0.1102
61125W        W 4037  13.383  22.013  28.084  0.2567  0.1074 -0.1248
61126W        W 4038  12.705  18.583  28.653 -0.1499  0.0567 -0.0997
61127W        W 4039  15.245  20.944  29.137  0.2751 -0.1555  0.0234
61128W        W 4040  15.357  20.680  28.580 -0.2339 -0.1764 -0.1869
61129W        W 4041  15.037  20.750  25.104 -0.0044 -0.1254 -0.0014
61130W        W 4042  13.476  20.838  30.047 -0.2591  0.1446 -0.1525
61131W        W 4043  12.891  21.864  29.175  0.0455  0.0906 -0.1022
61132W        W 4044  12.622  17.778  27.912  0.2395 -0.2092 -0.1696
61133W        W 4045  12.385  17.155  28.507  0.1946 -0.0669 -0.3225
61134W        W 4046  14.612  19.592  27.760 -0.1820 -0.1568  0.1586
61135W        W 4047  12.458  18.979  27.097 -0.3100  0.0171  0.0902
61136W        W 4048  12.042  20.824  28.655  0.0464  0.3600 -0.1043
61137W        W 4049  13.909  18.374  27.938 -0.4348 -0.3850 -0.0446
61138W        W 4050  13.100  21.581  28.032 -0.1778 -0.1870  0.0546
61139W        W 4051  13.617  19.669  28.752 -0.2122  0.0758  0.1669
61140W        W 4052  13.640  18.559  29.059  0.0608  0.0779  0.4460
61141W        W 4053  13.850  21.658  28.830 -0.1232  0.1383 -0.1103
61142W        W 4054  12.002  21.580  27.273 -0.2457 -0.1944 -0.1249
61143W        W 4055  10.897  20.469  28.381 -0.0756 -0.1301  0.1752
61144W        W 4056  12.325  21.351  29.900  0.1355  0.2593  0.1041
61145W        W 4057  15.153  19.303  27.704  0.1417 -0.0884  0.0748
61146W        W 4058  14.601  19.553  27.239  0.2933 -0.0040 -0.0907
61147W        W 4059  13.033  21.352  27.535 -0.0563 -0.3981 -0.2493
61148W        W 4060  12.574  22.352  28.956  0.0747 -0.2778 -0.0740
61149W        W 4061  14.425  20.621  30.204 -0.0968 -0.0232  0.1984
61150W        W 4062  11.526  20.577  28.950 -0.0048 -0.2926 -0.0929
61151W        W 4063  11.615  21.939  30.203 -0.0600  0.6069  0.1384
61152W        W 4064  11.807  20.152  28.614 -0.1224 -0.0599  0.0753
61153W        W 4065  15.568  21.909  26.540  0.0455  0.1997  0.1601
61154W        W 4066  14.442  22.038  30.293  0.2033  0.2339  0.3358
61155W        W 4067  13.749  22.105  31.602 -0.5765 -0.0021  0.2240
61156W        W 4068  12.071  21.737  27.761  0.0119 -0.2491  0.0649
61157W        W 4069  13.825  21.649  29.436 -0.0569  0.2586 -0.2167
61158W        W 4070  11.349  22.149  31.841 -0.1527  0.0766  0.1800
61159W        W 4071  12.268  19.880  28.858  0.5098  0.1101  0.0370
61160W        W 4072  12.729  21.219  28.180 -0.0733  0.2533  0.1503
61161W        W 4073  12.483  20.851  29.037 -0.0714 -0.0011  0.0610
61162W        W 4074  12.530  21.550  27.735  0.0243  0.1190 -0.0404
61163W        W 4075  12.726  19.872  30.544 -0.0557 -0.0899  0.1697
61164W        W 4076  12.695  21.704  29.724 -0.1166 -0.0562  0.1425
61165W        W 4077  14.637  19.049  29.444 -0.1132 -0.1491  0.0157
61166W        W 4078  11.934  20.867  27.964 -0.1441  0.2149  0.3165
61167W        W 4079  15.085  19.297  25.039  0.2378 -0.3623  0.1196
61168W        W 4080  12.358  19.791  27.391 -0.0338  0.0250  0.4560
61169W        W 4081  13.309  18.505  26.109  0.1439 -0.4006 -0.2207
61170W        W 4082  14.057  18.617  28.752  0.1360 -0.0836  0.0588
61171W        W 4083  13.037  22.027  28.478  0.2578  0.1710  0.0262
61172W        W 4084  12.970  19.675  29.360 -0.1399  0.0465  0.1133
61173W        W 4085  14.165  20.510  27.794 -0.1552  0.1941  0.1081
61174W        W 4086  13.138  20.265  27.083 -0.2358 -0.1746  0.4014
61175W        W 4087  14.104  19.748  27.685  0.4289 -0.0401  0.2681
61176W        W 4088  12.702  22.174  29.984 -0.3990  0.0587  0.4426
61177W        W 4089  11.524  18.026  28.207  0.0072 -0.2315  0.0875
61178W        W 4090  14.023  21.425  27.729 -0.0432  0.0043 -0.0973
61179W        W 4091  14.357  21.656  27.970 -0.1515  0.2801  0.3666
61180W        W 4092  13.053  21.775  26.660 -0.3110 -0.2911 -0.0967
61181W        W 4093  10.799  20.423  26.408 -0.0738  0.3090  0.2258
61182W        W 4094  11.733  19.766  29.495  0.1069  0.0175 -0.0043
61183W        W 4095  10.984  19.665  30.230 -0.1494  0.1453  0.3838
61184W        W 4096  12.876  18.184  26.723  0.0943 -0.2990  0.1851
61185W        W 4097  15.043  20.514  28.944 -0.0512 -0.2126 -0.1647
61186W        W 4098  12.792  20.332  30.726 -0.1284 -0.1573  0.0043
61187W        W 4099  13.996  16.875  26.772  0.0805 -0.0712 -0.0013
61188W        W 4100  11.661  19.469  28.333 -0.2399  0.2014  0.1556
61189W        W 4101  14.300  21.022  27.564 -0.0076  0.0243  0.3985
61190W        W 4102  14.572  20.769  25.334  0.0099 -0.1714 -0.0132
61191W        W 4103  13.304  17.921  28.630  0.2280  0.1949 -0.0289
61192W        W 4104  12.756  18.142  29.375 -0.0809 -0.1903 -0.0288
61193W        W 4105  13.146  21.015  27.940 -0.2300 -0.2749  0.1374
61194W        W 4106  13.743  19.257  25.450  0.0825 -0.5162 -0.0380
61195W        W 4107  15.716  19.691  27.706 -0.0004  0.0504  0.1102
61196W        W 4108  14.869  19.687  25.692  0.1379  0.1705  0.3767
61197W        W 4109  12.545  21.393  30.314  0.0288 -0.0678  0.0074
61198W        W 4110  12.105  19.686  30.589 -0.2871  0.4592  0.0193
61199W        W 4111  12.802  20.819  30.894  0.2031 -0.0104 -0.1557
61200W        W 4112  12.072  21.184  29.055 -0.0410  0.0101 -0.0466
61201W        W 4113  11.482  19.926  29.979 -0.0368  0.1392 -0.1346
61202W        W 4114  10.762  22.155  29.262 -0.0450  0.2136 -0.2652
61203W        W 4115  11.697  19.407  29.807  0.3315 -0.1826 -0.2891
61204W        W 4116  12.134  20.831  29.661 -0.1076  0.0632 -0.1722
61205W        W 4117  13.685  17.831  26.212 -0.3340  0.3284 -0.1317
61206W        W 4118  13.396  18.488  27.924 -0.0780  0.1761 -0.0557
61207W        W 4119  15.040  19.553  26.893  0.1058 -0.0082  0.0348
61208W        W 4120  11.407  20.073  27.234 -0.3380  0.3430 -0.0460
61209W        W 4121  13.410  21.685  28.430 -0.0855  0.0496 -0.1204
61210W        W 4122  13.314  21.014  27.215 -0.0402  0.2451 -0.3079
61211W        W 4123  14.549  20.674  25.928 -0.0468  0.4062  0.2035
61212W        W 4124  12.156  18.920  29.296  0.0516 -0.3011  0.0327
61213W        W 4125  12.202  18.670  28.039 -0.0927  0.1505 -0.4195
61214W        W 4126  14.127  18.467  29.259  0.0315 -0.2129 -0.0451
61215W        W 4127  11.139  19.007  29.179 -0.3095  0.0859  0.0919
61216W        W 4128  16.430  20.306  29.909 -0.0811  0.0519 -0.1563
61217W        W 4129  11.959  18.234  26.224  0.0213 -0.0794 -0.0081
61218W        W 4130  14.299  19.584  26.729 -0.0575  0.3233  0.0826
61219W        W 4131  14.294  19.202  27.508  0.1058  0.0879 -0.0038
61220W        W 4132  11.870  18.977  27.660 -0.0155 -0.0451 -0.1566
61221W        W 4133  14.460  18.081  27.937  0.2936 -0.0084 -0.1689
61222W        W 4134  12.757  20.258  28.544  0.0433 -0.0143 -0.0752
61223W        W 4135  14.786  21.375  29.759 -0.2078  0.0047 -0.0283
61224W        W 4136  13.485  21.550  27.513 -0.0269  0.2162 -0.0795
61225W        W 4137  12.664  19.540  28.951 -0.1486  0.1483 -0.2403
61226W        W 4138  12.822  19.063  27.463  0.0044  0.0537 -0.2676
61227W        W 4139  13.783  20.772  29.001 -0.1845 -0.0759 -0.2647
61228W        W 4140  13.186  20.546  28.472 -0.1731 -0.1884  0.0792
61229W        W 4141  13.470  17.306  27.822 -0.0816  0.2464  0.2885
61230W        W 4142  15.276  22.259  26.820 -0.0482 -0.2234  0.0131
61231W        W 4143  13.196  20.439  25.559  0.1594  0.0077  0.1757
61232W        W 4144  11.301  19.296  30.102 -0.1027  0.0556  0.5498
61233W        W 4145  14.470  18.648  29.620 -0.0082  0.1865  0.0180
61234W        W 4146  14.614  18.504  28.141  0.1638 -0.1163  0.3205
61235W        W 4147  14.033  20.189  28.177  0.1109  0.0502  0.1240
61236W        W 4148  12.948  19.057  26.911 -0.1074  0.2226  0.2872
61237W        W 4149  15.197  21.505  28.327 -0.1903 -0.0161 -0.0896
61238W        W 4150  12.131  21.232  27.672 -0.1842 -0.0282 -0.1310
61239W        W 4151  11.868  20.493  28.231 -0.1469 -0.3028 -0.0793
61240W        W 4152  12.492  21.157  28.606  0.0181 -0.3354  0.0698
61241W        W 4153  15.013  18.470  26.711  0.0127 -0.1140 -0.0150
61242W        W 4154  10.531  19.618  30.425 -0.1981 -0.0056  0.0106
61243W        W 4155  14.673  19.653  29.735  0.0823 -0.1254 -0.0067
61244W        W 4156  11.915  19.120  26.431 -0.0091  0.1561 -0.1911
61245W        W 4157  11.199  19.463  31.053  0.1234  0.1298  0.0716
61246W        W 4158  13.634  18.596  27.378 -0.1847 -0.0211 -0.1858
61247W        W 4159  14.824  19.950  26.644 -0.2959  0.3416  0.1619
61248W        W 4160  14.336  19.603  28.691 -0.1762  0.1535  0.2012
61249W        W 4161  14.625  21.517  27.576 -0.2016  0.2300  0.2358
61250W        W 4162  14.766  19.170  25.486 -0.1094 -0.0733 -0.0575
61251W        W 4163  13.272  19.314  27.308 -0.0380  0.0756 -0.1261
61252W        W 4164  13.927  21.071  29.588  0.1067  0.0300  0.0368
61253W        W 4165  13.537  21.041  28.278  0.2724 -0.3203 -0.0208
61254W        W 4166  12.961  20.687  29.137 -0.1486 -0.1216 -0.0813
61255W        W 4167  13.134  19.710  27.026  0.3462 -0.2744 -0.2428
61256W        W 4168  14.839  21.760  28.560 -0.1301 -0.1875 -0.1069
61257W        W 4169  11.142  22.356  30.081 -0.2790 -0.0043 -0.0576
61258W        W 4170  14.120  21.093  30.141  0.4923  0.2060  0.0991
61259W        W 4171  13.727  22.229  27.382  0.1949 -0.0428  0.2238
61260W        W 4172  12.447  16.866  28.937 -0.2055 -0.0439  0.3520
61261W        W 4173  13.397  20.065  26.724  0.1625 -0.2490 -0.0593
61262W        W 4174  13.143  17.850  26.953 -0.3837 -0.0856 -0.0948
61263W        W 4175  12.565  21.680  26.721 -0.2436 -0.1910  0.2752
61264W        W 4176  14.225  19.033  29.807  0.1039  0.0860  0.0251
61265W        W 4177  13.186  19.433  28.988  0.0848  0.0979  0.3464
61266W        W 4178  12.735  17.546  29.177  0.0649 -0.0069  0.3406
61267W        W 4179  15.386  19.641  29.476  0.2484  0.1529 -0.1125
61268W        W 4180  14.697  19.531  26.406  0.1561 -0.0515 -0.0165
61269W        W 4181  14.431  20.293  28.474 -0.1191  0.1491  0.0399
61270W        W 4182  12.743  20.549  26.898 -0.2806  0.1980 -0.1344
61271W        W 4183  12.929  19.036  28.677  0.0023  0.0867 -0.0341
61272W        W 4184  11.807  20.937  30.013  0.2016  0.1537 -0.1059
61273W        W 4185  11.960  21.231  30.422  0.0210 -0.0698  0.2611
61274W        W 4186  13.304  20.279  28.924  0.0117 -0.1070  0.0091
61275W        W 4187  13.734  20.277  27.028  0.0004 -0.0839  0.1755
61276W        W 4188  14.966  18.276  29.367  0.4691  0.1179  0.0103
61277W        W 4189  13.087  19.300  27.986 -0.1713  0.1186  0.2255
61278W        W 4190  13.590  22.720  27.052  0.0116  0.0847 -0.1960
61279W        W 4191  12.843  20.611  28.075  0.0698  0.1183  0.0460
61280W        W 4192  12.873  16.693  29.078 -0.0515  0.1104  0.2585
61281W        W 4193  13.587  21.282  30.247 -0.0582  0.1235 -0.4435
61282W        W 4194  12.046  22.124  27.377 -0.0599  0.0833 -0.0055
61283W        W 4195  13.731  20.191  29.071 -0.2636 -0.2923 -0.1031
61284W        W 4196  11.749  21.627  29.059  0.1057  0.0718 -0.2568
61285W        W 4197  14.821  17.847  29.529 -0.1182  0.0122 -0.0953
61286W        W 4198  12.450  19.756  29.419 -0.2063  0.1399  0.1521
61287W        W 4199  12.518  20.025  26.980  0.0064  0.0416 -0.2166
61288W        W 4200  10.453  19.367  27.676  0.0099 -0.2469  0.3799
61289W        W 4201  14.582  17.392  27.239 -0.1019 -0.1068 -0.1022
61290W        W 4202  14.904  19.968  26.150 -0.1709  0.0245 -0.2052
61291W        W 4203  12.460  18.755  27.540 -0.0455  0.2517  0.2197
61292W        W 4204  13.976  17.874  27.926 -0.1642  0.1398 -0.0568
61293W        W 4205  12.996  21.342  29.502 -0.2239 -0.1114  0.0796
61294W        W 4206  12.899  20.101  29.683 -0.1740  0.0929 -0.0727
61295W        W 4207  13.455  19.145  26.793  0.0407  0.1128 -0.0061
61296W        W 4208  13.883  21.256  29.151 -0.1331 -0.1692 -0.0890
61297W        W 4209  12.789  19.389  30.269 -0.1081  0.0559  0.0487
61298W        W 4210  12.056  18.669  26.714 -0.2056  0.1574 -0.1409
61299W        W 4211  16.066  18.777  27.448 -0.1501 -0.0764  0.1571
61300W        W 4212  13.082  18.853  28.276  0.0548 -0.0815 -0.1342
61301W        W 4213  12.816  20.834  28.490  0.1607 -0.0072  0.3703
61302W        W 4214  12.842  21.087  29.926 -0.1262  0.2831 -0.0358
61303W        W 4215  13.072  20.500  26.496  0.1447  0.1158 -0.0298
61304W        W 4216  11.865  21.310  29.518 -0.1648 -0.1394 -0.0694
61305W        W 4217  12.368  20.605  30.767  0.0792 -0.1705 -0.0192
61306W        W 4218  13.490  19.793  29.244 -0.1827  0.3191 -0.2984
61307W        W 4219  14.869  18.919  26.840 -0.1118  0.2935  0.2210
61308W        W 4220  13.766  18.858  27.811 -0.1583  0.1411 -0.2019
61309W        W 4221  14.039  20.018  28.624 -0.2430 -0.2089  0.1075
61310W        W 4222  12.986  20.012  27.513 -0.1304 -0.0087 -0.1741
61311W        W 4223  12.259  18.502  28.898 -0.1083  0.2168 -0.1259
61312W        W 4224  13.241  20.474  30.376  0.2413 -0.0593  0.0553
61313W        W 4225  12.719  18.505  28.158  0.4087  0.1092  0.1424
61314W        W 4226  14.859  22.697  25.690  0.0054  0.0286 -0.1735
61315W        W 4227  13.195  19.410  29.930  0.1379  0.2934  0.0707
61316W        W 4228  11.192  20.566  27.423 -0.0902  0.3008 -0.0123
61317W        W 4229  12.109  19.270  28.066  0.0762  0.3359 -0.0955
61318W        W 4230  11.546  20.991  27.423  0.0664  0.1363 -0.2504
61319W        W 4231  13.489  19.999  28.389  0.0574 -0.2410 -0.1316
61320W        W 4232  11.098  23.369  30.686  0.2784 -0.1845 -0.0820
61321W        W 4233  11.254  22.484  27.598 -0.0242  0.1340  0.0087
61322W        W 4234  12.764  20.736  30.404  0.0480  0.2938  0.0570
61323W        W 4235  14.079  18.096  26.497 -0.2849  0.0065  0.0829
61324W        W 4236  14.103  21.252  26.693  0.0456  0.1189  0.2869
61325W        W 4237  13.458  19.672  27.979 -0.2288  0.1419 -0.1488
61326W        W 4238  14.882  17.895  28.145  0.2117 -0.4798 -0.1627
61327W        W 4239  13.463  19.950  25.476 -0.0349 -0.1446 -0.2165
61328W        W 4240  14.249  17.684  28.510  0.0345 -0.0122 -0.0727
61329W        W 4241  10.521  17.040  29.809  0.1448  0.3258 -0.2060
61330W        W 4242  14.980  20.362  28.437 -0.0950  0.0844  0.1343
61331W        W 4243  10.751  20.418  29.561  0.0508  0.0167 -0.1787
61332W        W 4244  13.706  23.250  29.921 -0.0897 -0.0279  0.0252
61333W        W 4245  12.779  20.494  29.969 -0.3077 -0.0412 -0.0933
61334W        W 4246  13.207  20.172  28.003 -0.0980 -0.0679 -0.0264
61335W        W 4247  12.125  17.821  27.560 -0.1258 -0.0020 -0.0407
61336W        W 4248  12.977  19.774  28.091 -0.1893  0.3211  0.2339
61337W        W 4249  14.419  20.019  26.398  0.2039 -0.2583 -0.0213
61338W        W 4250  13.578  22.190  28.480  0.1205  0.4179  0.0708
61339W        W 4251  15.226  18.691  27.132  0.0365  0.0215  0.1713
61340W        W 4252  13.622  20.606  29.568 -0.1051  0.1147  0.4288
61341W        W 4253  14.407  19.745  25.840  0.0622  0.2031  0.2616
61342W        W 4254  14.308  20.194  25.934  0.0586 -0.2805 -0.3095
61343W        W 4255  12.205  22.372  30.213  0.1552  0.2509  0.2395
61344W        W 4256  12.300  18.239  29.285 -0.2603  0.1991 -0.0616
61345W        W 4257  14.738  18.987  27.766 -0.1010  0.1005  0.2828
61346W        W 4258  13.608  19.608  25.827  0.2019  0.2650 -0.3937
61347W        W 4259  13.293  18.568  29.519 -0.2058  0.2034 -0.2953
61348W        W 4260  15.354  19.127  28.800 -0.1116 -0.0121 -0.0695
61349W        W 4261  12.691  19.596  29.813  0.0587  0.2916  0.1992
61350W        W 4262  11.344  18.395  29.150  0.0737  0.3969  0.3283
61351W        W 4263  12.602  20.624  29.493 -0.1329 -0.1265  0.1781
61352W        W 4264  15.052  19.092  26.367 -0.2164  0.0877  0.0009
61353W        W 4265  13.435  19.056  28.762  0.0818  0.0201  0.0315
61354W        W 4266  14.072  20.157  27.410  0.2142  0.1444  0.1268
61355W        W 4267  14.166  18.668  27.231  0.1572 -0.0946  0.1751
61356W        W 4268  11.804  20.201  29.123  0.1424  0.0079 -0.1568
61357W        W 4269  14.293  19.857  30.345 -0.3764 -0.1742 -0.1212
61358W        W 4270  11.903  18.108  26.672  0.3505  0.0681  0.0711
61359W        W 4271  13.324  19.841  29.706  0.1662  0.0345  0.1559
61360W        W 4272  12.209  21.697  29.513  0.2192  0.0928 -0.0035
61361W        W 4273  13.350  20.871  28.766  0.1754 -0.0224 -0.0505
61362W        W 4274  13.623  18.113  27.244 -0.1609 -0.1180 -0.2422
61363W        W 4275  11.518  18.721  28.822  0.1184  0.0992  0.3580
61364W        W 4276  13.129  22.125  30.255 -0.1387 -0.0283 -0.1105
61365W        W 4277  11.647  18.671  26.367 -0.1246  0.1268  0.1820
61366W        W 4278  12.337  20.537  27.856 -0.4344 -0.0417  0.0734
61367W        W 4279  15.171  19.968  29.185 -0.1029 -0.2739 -0.1114
61368W        W 4280  15.768  19.479  28.580  0.1796 -0.1106 -0.1290
61369W        W 4281  14.121  18.192  27.501  0.0990  0.0845  0.0090
61370W        W 4282  15.252  19.600  28.792 -0.4291 -0.2072  0.1992
61371W        W 4283  12.292  20.259  28.347  0.0192 -0.0501  0.1322
61372W        W 4284  14.199  17.819  29.266 -0.0489  0.0822 -0.4620
61373W        W 4285  11.948  22.096  29.849 -0.1543 -0.3484  0.1054
61374W        W 4286  11.962  20.275  30.987  0.0441  0.1862  0.2599
61375W        W 4287  13.372  21.353  28.952  0.1223 -0.0390 -0.3104
61376W        W 4288  13.942  19.290  28.942  0.1457  0.3035  0.3667
61377W        W 4289  14.101  19.179  27.972 -0.0062  0.0745 -0.2284
61378W        W 4290  12.432  20.374  28.932  0.1403  0.0558 -0.2725
61379W        W 4291  15.082  19.841  27.689  0.1510 -0.0029 -0.0144
61380W        W 4292  12.153  20.419  29.998 -0.1840  0.0083 -0.2201
61381W        W 4293  12.477  19.041  28.908 -0.0623  0.0366 -0.1439
61382W        W 4294  13.408  21.037  29.323 -0.0338  0.1101  0.1532
61383W        W 4295  14.422  19.988  27.966 -0.0957  0.2075 -0.0001
61384W        W 4296  12.889  21.223  28.986  0.0342  0.0865  0.0438
61385W        W 4297  12.572  19.440  30.755 -0.0435 -0.0100  0.2151
61386W        W 4298  13.906  19.316  29.500 -0.2729  0.0606 -0.0449
61387W        W 4299  13.726  20.043  27.788  0.0941 -0.2127 -0.2857
61388W        W 4300  12.014  16.905  26.498  0.0909 -0.0393  0.0530
61389W        W 4301  13.337  20.131  26.187 -0.2595  0.0531 -0.1965
61390W        W 4302  11.914  21.261  30.935 -0.1954 -0.0761  0.1221
61391W        W 4303  12.281  21.835  30.105  0.2395  0.1010  0.1726
61392W        W 4304  12.401  22.268  27.732 -0.1426 -0.1082 -0.0715
61393W        W 4305  14.106  22.448  26.931 -0.2833  0.2917  0.3474
61394W        W 4306  12.637  20.949  27.713  0.1567  0.0623 -0.3351
61395W        W 4307  14.106  22.287  28.605 -0.1666  0.0542  0.0732
61396W        W 4308  12.739  19.372  28.367 -0.0101 -0.2040  0.0348
61397W        W 4309  12.348  20.857  28.213  0.2840  0.1168  0.0563
61398W        W 4310  11.046  20.857  29.254 -0.1925 -0.0650  0.3292
61399W        W 4311  13.418  20.638  26.902  0.0498  0.2647  0.3681
61400W        W 4312  12.923  21.645  28.733 -0.2172  0.1548 -0.0647
61401W        W 4313  14.401  20.949  29.736  0.3905 -0.2413 -0.1013
61402W        W 4314  13.448  18.677  24.817  0.1861  0.2563  0.1690
61403W        W 4315  14.239  20.393  26.881  0.0137  0.1154  0.0128
61404W        W 4316  14.554  19.175  26.000 -0.0243  0.0964 -0.0386
61405W        W 4317  13.840  22.272  29.415  0.1098 -0.0258  0.4917
61406W        W 4318  12.476  19.799  28.414  0.1439 -0.0562 -0.4040
61407W        W 4319  14.325  19.143  27.005  0.1190 -0.2133 -0.1389
61408W        W 4320  12.983  19.913  30.123  0.3081  0.3421 -0.0193
61409W        W 4321  16.254  18.820  29.198  0.0243  0.0821  0.2299
61410W        W 4322  13.434  20.885  30.611 -0.2433 -0.1817  0.0415
61411W        W 4323  13.960  21.733  27.149  0.1299  0.2248  0.0634
61412W        W 4324  13.627  19.393  27.607  0.2851 -0.0937  0.2607
61413W        W 4325  13.215  19.512  28.483 -0.1359 -0.0333 -0.2786
61414W        W 4326  14.680  17.916  27.289  0.0064 -0.0321 -0.0263
61415W        W 4327  12.749  21.412  26.338 -0.2162 -0.0042  0.0300
61416W        W 4328  13.592  18.310  28.647  0.1930 -0.0127  0.1838
61417W        W 4329  14.156  21.982  29.132 -0.0341 -0.0506  0.2464
61418W        W 4330  13.278  20.312  29.406  0.2213 -0.1208 -0.1052
61419W        W 4331  12.227  21.667  30.680  0.2256  0.2686 -0.2746
61420W        W 4332  12.637  18.863  25.937 -0.1287  0.0799 -0.1522
61421W        W 4333  15.242  19.722  26.394 -0.0518  0.4146  0.0141
61422W        W 4334  11.020  18.788  30.456 -0.0770 -0.1876  0.1909
61423W        W 4335  14.845  19.335  28.919  0.2272  0.0434  0.1174
61424W        W 4336  14.104  18.699  28.233  0.1542 -0.0656  0.2347
61425W        W 4337  14.494  20.562  27.345  0.1853 -0.0315  0.1035
61426W        W 4338  11.967  19.882  29.910  0.2005 -0.0453  0.2756
61427W        W 4339  11.980  18.948  28.776  0.2386 -0.5670 -0.0313
61428W        W 4340  13.757  18.741  26.888  0.2370  0.0993  0.1984
61429W        W 4341  15.319  20.080  28.142  0.1825 -0.2798  0.0067
61430W        W 4342  13.375  21.538  27.007 -0.1346 -0.0804  0.3950
61431W        W 4343  14.136  20.603  28.719  0.0575 -0.2372  0.0302
61432W        W 4344  11.291  17.702  27.693 -0.0868  0.0474  0.0683
61433W        W 4345  14.305  18.731  27.763 -0.1287  0.1998 -0.0933
61434W        W 4346  11.802  20.004  27.485  0.0946 -0.2717  0.2623
61435W        W 4347  12.201  19.406  29.057  0.1656  0.0124 -0.0536
61436W        W 4348  13.956  22.435  30.619  0.3106  0.0648  0.0969
61437W        W 4349  10.886  17.404  27.665 -0.3146 -0.1521  0.0951
61438W        W 4350  15.105  20.365  27.611  0.0218 -0.1779  0.1206
61439W        W 4351  14.048  19.096  28.484  0.0111 -0.0905 -0.4361
61440W        W 4352  11.937  21.049  26.558  0.2813  0.2547  0.0938
61441W        W 4353  14.038  19.621  27.174  0.0898  0.0066  0.3347
61442W        W 4354  14.992  21.095  28.568  0.1581 -0.0682 -0.0066
61443W        W 4355  12.282  20.232  29.456 -0.1290  0.1281  0.1122
61444W        W 4356  13.739  21.190  28.686 -0.1763  0.0028  0.0470
61445W        W 4357  15.537  21.193  28.543 -0.1593  0.2517 -0.1526
61446W        W 4358  13.474  19.825  27.340  0.3643 -0.1135 -0.3311
61447W        W 4359  12.199  19.400  28.551  0.2975 -0.0346 -0.1463
61448W        W 4360  12.156  21.669  28.660 -0.3767  0.1918  0.3173
61449W        W 4361  14.082  18.650  26.551  0.2499 -0.1042  0.0061
61450W        W 4362  13.984  19.711  29.203 -0.2583 -0.2821 -0.1809
61451W        W 4363  13.217  22.339  25.800 -0.0935  0.2708 -0.2282
61452W        W 4364  15.405  18.083  28.598  0.0555 -0.2335 -0.1048
61453W        W 4365  13.099  21.209  30.378  0.0210 -0.0644  0.2097
61454W        W 4366  13.218  20.247  31.123  0.1060 -0.2968  0.3634
61455W        W 4367  12.633  20.086  27.901  0.1667  0.2266  0.0195
61456W        W 4368  12.308  19.552  30.073  0.0724 -0.2803 -0.0292
61457W        W 4369  12.534  21.237  29.405  0.0536  0.0450 -0.1253
61458W        W 4370  13.265  23.137  27.069  0.1527 -0.1791  0.3025
61459W        W 4371  15.121  21.322  27.485 -0.1734  0.2338 -0.1740
61460W        W 4372  13.671  20.526  28.571 -0.2340 -0.2404 -0.0941
61461W        W 4373  15.261  20.306  26.437  0.1667 -0.0614 -0.1120
61462W        W 4374  12.616  18.184  27.661 -0.0650  0.1368 -0.1472
61463W        W 4375  14.450  19.973  27.006 -0.2029 -0.2433 -0.1586
61464W        W 4376  13.075  17.231  26.775  0.2483 -0.0397  0.0122
61465W        W 4377  12.066  20.620  29.207 -0.1735  0.2286 -0.0938
61466W        W 4378  12.226  19.564  26.942 -0.1586 -0.1368  0.2709
61467W        W 4379  12.550  21.977  28.700  0.2437  0.1770 -0.2214
61468W        W 4380  13.298  20.309  29.905  0.3160 -0.1385 -0.2495
61469W        W 4381  12.687  17.491  30.283 -0.0370  0.0532  0.2952
61470W        W 4382  10.836  19.368  29.416  0.1449  0.0961  0.0740
61471W        W 4383  11.415  21.072  27.918 -0.2260 -0.1616 -0.1373
61472W        W 4384  12.569  19.090  27.995 -0.0183 -0.2990 -0.1860
61473W        W 4385  13.718  21.093  25.649 -0.2230  0.3185 -0.1034
61474W        W 4386  13.247  18.252  27.506  0.1828 -0.3636 -0.0058
61475W        W 4387  10.936  18.130  28.941  0.0970  0.0843 -0.1013
61476W        W 4388  13.730  20.873  27.806 -0.1787 -0.2874 -0.1003
61477W        W 4389  15.518  21.256  26.064  0.0126  0.0620 -0.2306
61478W        W 4390  13.081  17.822  27.464 -0.2473  0.0183 -0.2131
61479W        W 4391  14.782  20.975  28.992 -0.2854 -0.0448  0.1169
61480W        W 4392  11.550  20.033  28.174 -0.1499 -0.0024 -0.2230
61481W        W 4393  13.556  19.013  29.236  0.2123 -0.1852 -0.1182
61482W        W 4394  13.079  17.140  29.131  0.0317  0.0600  0.2030
61483W        W 4395  10.448  18.587  26.084  0.1343  0.2962 -0.1690
61484W        W 4396  14.023  18.242  26.969 -0.1223  0.0308  0.1145
61485W        W 4397  13.523  20.456  27.563  0.1945  0.3173  0.1498
61486W        W 4398  14.009  21.664  26.358 -0.3210 -0.1876 -0.1585
61487W        W 4399  13.000  19.876  28.708  0.0625  0.1527  0.2651
61488W        W 4400  12.804  20.088  29.153 -0.0429 -0.1186  0.2178
61489W        W 4401  10.548  18.907  29.333  0.0377  0.0328  0.0376
61490W        W 4402  14.579  20.075  27.531 -0.1915  0.0691  0.0122
61491W        W 4403  14.285  21.150  28.834 -0.2480 -0.2295 -0.0749
61492W        W 4404  14.833  20.810  27.662  0.0002 -0.0151 -0.1137
61493W        W 4405  15.492  18.374  26.873  0.3260  0.1562 -0.0635
61494W        W 4406  13.945  19.161  26.638 -0.0492  0.0004 -0.1549
61495W        W 4407  12.549  16.851  29.714  0.0315  0.0260  0.0078
61496W        W 4408  12.385  20.867  30.106  0.1028 -0.1474  0.0020
61497W        W 4409  15.364  19.648  27.357  0.1183  0.0985 -0.0396
61498W        W 4410  12.318  17.606  28.303  0.1010 -0.1495 -0.1417
61499W        W 4411  13.959  19.835  25.528 -0.0450 -0.0192  0.0686
61500W        W 4412  12.154  21.907  28.218  0.1548  0.1158  0.2352
61501W        W 4413  11.356  19.522  29.273  0.0534  0.0673 -0.2077
61502W        W 4414  12.633  20.350  27.423  0.0460 -0.1736 -0.0436
61503W        W 4415  13.819  19.783  30.584 -0.1594  0.2478 -0.1361
61504W        W 4416  13.133  21.243  28.460 -0.0449  0.0409  0.3054
61505W        W 4417  14.404  19.458  28.236 -0.1539 -0.2036  0.0241
61506W        W 4418  13.619  19.532  26.361  0.0458 -0.3055 -0.0419
61507W        W 4419  15.485  22.002  24.701  0.2822 -0.0173  0.0950
61508W        W 4420  13.703  22.289  28.952 -0.2597 -0.2131 -0.1225
61509W        W 4421  13.938  22.358  29.967  0.1168  0.2029 -0.2114
61510W        W 4422  14.187  21.952  29.862 -0.4282  0.0456 -0.0902
61511W        W 4423  14.030  20.649  27.247 -0.2471 -0.1246  0.0828
61512W        W 4424  11.191  17.837  29.850 -0.2941 -0.3958  0.2282
61513W        W 4425  11.637  20.460  27.697  0.2206 -0.2323 -0.1466
61514W        W 4426  12.316  19.298  27.496 -0.0828 -0.0115 -0.0058
61515W        W 4427  13.920  19.593  28.248 -0.0563 -0.1404  0.2295
61516W        W 4428  13.658  18.728  28.410 -0.1601  0.2906 -0.0318
61517W        W 4429  13.827  19.137  27.192 -0.0473  0.2088  0.1911
61518W        W 4430  12.561  22.669  29.821  0.0180 -0.0729  0.1450
61519W        W 4431  13.676  20.250  30.278 -0.2768 -0.1771  0.4693
61520W        W 4432  14.638  20.068  30.021 -0.0732 -0.1408 -0.2436
61521W        W 4433  14.536  20.468  29.121 -0.0809 -0.3309 -0.2906
61522W        W 4434  13.074  18.186  30.576 -0.2191 -0.2102  0.0420
61523W        W 4435  11.916  21.469  31.580 -0.0353  0.1153  0.0389
61524W        W 4436  12.480  20.387  31.754  0.3148  0.1322 -0.2648
61525W        W 4437  12.443  21.247  31.715 -0.3091  0.1278  0.1880
61526W        W 4438  14.094  18.789  30.455  0.1182  0.0890 -0.1421
61527W        W 4439  11.546  17.969  29.484  0.1499 -0.0469 -0.0818
61528W        W 4440  14.142  19.835  29.664 -0.1219  0.0003  0.0669
61529W        W 4441  14.529  21.200  30.441 -0.2074 -0.3335 -0.1090
61530W        W 4442  13.401  21.676  31.608  0.0322  0.1506  0.1262
61531W        W 4443  11.310  19.088  29.639  0.1880 -0.1445 -0.1544
61532W        W 4444  14.824  19.901  28.871 -0.1862  0.0315  0.0964
61533W        W 4445  14.319  19.259  31.888  0.0730  0.0773  0.2231
61534W        W 4446  14.542  20.233  30.543 -0.2195 -0.1431  0.0847
61535W        W 4447  11.921  23.037  30.942  0.2599 -0.1519  0.2924
61536W        W 4448  13.799  20.914  31.130 -0.3003  0.0216  0.1174
61537W        W 4449  14.444  20.413  29.656  0.0283  0.2010 -0.0862
61538W        W 4450  11.579  17.968  30.688 -0.0601 -0.0746  0.4221
61539W        W 4451  10.328  19.298  29.513 -0.4119 -0.2189 -0.0125
61540W        W 4452  11.969  17.797  31.127 -0.0498  0.1420 -0.0229
61541W        W 4453  12.357  21.097  30.748  0.0904  0.1621  0.2796
61542W        W 4454  14.518  18.566  28.586  0.0719 -0.1236  0.1395
61543W        W 4455  14.435  19.055  28.788 -0.0326 -0.1022 -0.2146
61544W        W 4456  14.209  17.961  29.790 -0.0045  0.1346  0.0389
61545W        W 4457  12.984  18.462  31.341 -0.0386  0.1876 -0.0312
61546W        W 4458  12.611  19.282  29.359  0.1235 -0.1392  0.2322
61547W        W 4459  12.372  20.123  30.785  0.2400 -0.0517 -0.0606
61548W        W 4460  12.474  20.042  29.897  0.1316 -0.0843 -0.0622
61549W        W 4461  13.275  20.756  31.188 -0.1288 -0.0267  0.0648
61550W        W 4462  13.407  20.019  30.667 -0.0974 -0.0313 -0.3688
61551W        W 4463  12.298  18.763  30.880  0.1626  0.1307 -0.0441
61552W        W 4464  16.626  20.985  29.307 -0.0959  0.1653  0.0314
61553W        W 4465  15.332  20.107  28.686  0.1182  0.0878 -0.0152
61554W        W 4466  13.203  18.174  29.120 -0.1552 -0.0214  0.2472
61555W        W 4467  13.796  19.829  30.052 -0.4221 -0.1704 -0.1568
61556W        W 4468  13.580  20.428  31.942  0.2910  0.0100  0.2533
61557W        W 4469  14.071  20.252  30.563  0.1486 -0.2225  0.1153
61558W        W 4470  14.047  20.461  29.353 -0.1777 -0.0211 -0.0073
61559W        W 4471  14.069  20.411  31.031 -0.2141  0.2999 -0.4174
61560W        W 4472  15.054  20.089  30.281  0.1654  0.0002  0.0354
61561W        W 4473  14.007  18.412  29.891 -0.1328 -0.2127  0.0591
61562W        W 4474  11.397  18.262  29.860 -0.1496  0.3203 -0.3520
61563W        W 4475  13.589  21.928  29.925  0.2768 -0.0757  0.0951
61564W        W 4476  12.351  18.805  30.215  0.0737  0.2202  0.1523
61565W        W 4477  12.872  18.613  30.893 -0.1049 -0.0716 -0.3814
61566W        W 4478  15.238  17.815  30.124  0.3533  0.1624 -0.2288
61567W        W 4479  14.858  21.462  31.362 -0.3013 -0.1135 -0.0232
61568W        W 4480  14.637  20.799  31.177 -0.2149 -0.1445 -0.0361
61569W        W 4481  11.793  22.358  31.772  0.1239 -0.4185 -0.2294
61570W        W 4482  15.016  23.164  30.762  0.2097  0.3432 -0.1540
61571W        W 4483  14.947  18.885  29.071  0.3996  0.1241  0.0277
61572W        W 4484  12.550  17.664  30.732  0.0463  0.1130  0.1998
61573W        W 4485  13.361  19.402  29.484  0.1577  0.1011  0.1494
61574W        W 4486  13.304  18.516  30.079  0.0798  0.1615  0.0061
61575W        W 4487  13.743  19.308  30.196  0.3031 -0.2967 -0.0995
61576W        W 4488  14.433  21.574  29.993  0.3693 -0.3048 -0.0510
61577W        W 4489  12.783  21.530  31.386 -0.2765 -0.1398  0.0445
61578W        W 4490  13.011  21.582  30.065 -0.2116 -0.0787  0.1227
61579W        W 4491  11.158  19.638  29.740  0.2740  0.1508 -0.0492
61580W        W 4492  11.013  19.343  30.621 -0.0373  0.1858 -0.3170
61581W        W 4493  11.570  20.295  30.708  0.0269  0.1611 -0.2688
61582W        W 4494  11.503  20.679  31.397 -0.1728  0.3533  0.1726
61583W        W 4495  10.798  18.433  30.118  0.0552 -0.0780 -0.1278
61584W        W 4496  15.045  21.870  29.595  0.3784 -0.1091  0.0518
61585W        W 4497  15.237  19.583  31.595 -0.2765 -0.0993  0.3595
61586W        W 4498  14.015  20.635  29.875  0.0236  0.3586  0.3132
61587W        W 4499  11.992  25.191  18.695  0.2378 -0.3508  0.2118
61588W        W 4500  11.477  23.202  16.731 -0.0377 -0.4510  0.0706
61589W        W 4501  13.581  22.592  15.909  0.0968 -0.4300  0.0474
61590W        W 4502  14.170  24.547  16.159 -0.2035  0.1109 -0.1220
61591W        W 4503  11.398  23.440  17.610 -0.1325 -0.1769 -0.1741
61592W        W 4504  13.810  25.352  16.796  0.1006  0.2930  0.0278
61593W        W 4505  12.034  21.764  19.217 -0.0851  0.3083  0.1235
61594W        W 4506  13.662  25.359  18.297  0.2403  0.0930  0.2413
61595W        W 4507  13.744  26.639  19.567  0.1089  0.0694 -0.1298
61596W        W 4508  13.405  23.067  15.883 -0.1656  0.0632  0.1255
61597W        W 4509  10.953  24.773  18.412 -0.0418  0.0239  0.0313
61598W        W 4510  10.721  25.278  18.618 -0.1952 -0.1061  0.2148
61599W        W 4511  13.025  21.214  15.730  0.0985 -0.0270 -0.2792
61600W        W 4512  11.467  23.008  18.527 -0.0508 -0.1197 -0.2412
61601W        W 4513  12.471  24.918  18.834  0.2799  0.2944 -0.1727
61602W        W 4514  12.360  23.791  17.265  0.1078  0.0122  0.0521
61603W        W 4515  11.668  23.883  20.668  0.0066  0.2860  0.3214
61604W        W 4516  13.108  24.135  17.773  0.1017 -0.2079  0.0749
61605W        W 4517  12.864  24.938  16.924  0.0579  0.1638  0.4108
61606W        W 4518  12.731  23.530  18.828  0.0492 -0.1158 -0.2023
61607W        W 4519  13.569  22.030  18.130 -0.0188  0.2471  0.1716
61608W        W 4520  12.824  24.477  16.985 -0.0721 -0.3033  0.0862
61609W        W 4521  11.527  23.226  15.809 -0.3047  0.4133  0.2117
61610W        W 4522  10.084  22.758  17.573 -0.1484  0.2254  0.0357
61611W        W 4523  11.767  24.270  17.965 -0.1502  0.0520  0.0595
61612W        W 4524  14.546  23.628  17.511 -0.2174 -0.2622 -0.0619
61613W        W 4525  12.751  23.965  16.900  0.1716  0.2388 -0.1548
61614W        W 4526  12.231  23.874  16.717 -0.0127  0.0354 -0.2799
61615W        W 4527  12.559  25.352  17.072  0.5655  0.2124 -0.2986
61616W        W 4528  13.873  24.017  19.410  0.2353 -0.1080 -0.1141
61617W        W 4529  11.930  24.323  16.432  0.0848  0.0712 -0.1269
61618W        W 4530  10.988  25.495  16.861 -0.0417 -0.1482  0.2348
61619W        W 4531  12.955  24.477  16.045 -0.0009  0.0081  0.0909
61620W        W 4532  13.344  25.434  15.916 -0.1278 -0.1446 -0.0380
61621W        W 4533  13.941  26.071  19.370 -0.1589  0.0847  0.0527
61622W        W 4534  12.823  26.489  17.370 -0.0858  0.0660  0.0449
61623W        W 4535  11.017  24.759  16.471 -0.0781 -0.1587 -0.0756
61624W        W 4536  12.618  25.213  19.221  0.0648 -0.3828 -0.0691
61625W        W 4537  11.834  26.692  20.274 -0.5278 -0.0033 -0.0308
61626W        W 4538  12.381  23.643  17.780 -0.0154  0.2026 -0.0303
61627W        W 4539  13.163  22.683  18.285 -0.4197  0.0183 -0.1122
61628W        W 4540  12.950  26.041  17.267  0.0910  0.2140  0.0711
61629W        W 4541  10.293  23.014  18.484 -0.1089  0.1201  0.5258
61630W        W 4542  12.298  24.916  19.522 -0.3382  0.0277 -0.1182
61631W        W 4543  11.815  23.712  17.411  0.2185 -0.0076 -0.1045
61632W        W 4544  15.032  22.563  19.535 -0.1443 -0.1214 -0.0544
61633W        W 4545  12.342  24.060  16.224 -0.1908 -0.2676  0.0764
61634W        W 4546  13.570  23.627  16.044 -0.1509  0.1410 -0.0470
61635W        W 4547  13.062  23.471  16.138  0.0688  0.2407 -0.1642
61636W        W 4548  14.446  23.237  15.806 -0.3069  0.1098 -0.1660
61637W        W 4549  12.614  22.112  16.750 -0.1088 -0.3099 -0.0527
61638W        W 4550  11.907  24.639  18.760  0.1033  0.0588 -0.1920
61639W        W 4551  11.750  22.408  17.849  0.1794 -0.0987  0.1598
61640W        W 4552  13.318  25.200  17.835  0.0243  0.2189 -0.1238
61641W        W 4553  12.272  23.375  16.521 -0.1265  0.0583  0.0831
61642W        W 4554  13.080  23.879  19.046  0.2760 -0.1035 -0.0578
61643W        W 4555  10.681  23.425  18.990  0.0732 -0.1854  0.1424
61644W        W 4556  11.887  22.814  17.404  0.0126 -0.0907  0.2890
61645W        W 4557  13.478  26.400  16.736  0.0208  0.0249 -0.2637
61646W        W 4558  13.714  25.465  17.718  0.0447 -0.0416 -0.0686
61647W        W 4559  12.653  24.979  15.958 -0.1349  0.1898  0.1703
61648W        W 4560  11.477  22.805  17.100 -0.0305 -0.1366 -0.0900
61649W        W 4561   9.171  24.128  18.679 -0.1528  0.1693  0.1277
61650W        W 4562  10.031  24.344  19.615  0.2258  0.0794  0.0945
61651W        W 4563  12.242  22.687  16.005 -0.0569  0.1269 -0.0254
61652W        W 4564  13.173  25.406  20.393 -0.0484  0.3493 -0.1741
61653W        W 4565  11.110  25.144  18.946 -0.0398  0.2379 -0.2610
61654W        W 4566  13.242  24.523  18.243  0.1053  0.3000  0.0359
61655W        W 4567  11.907  24.591  16.966 -0.1142  0.1876 -0.0020
61656W        W 4568  14.534  25.606  17.333 -0.0734 -0.3015 -0.0157
61657W        W 4569  13.158  24.000  16.000 -0.3111 -0.3677  0.0171
61658W        W 4570  14.192  23.085  16.671  0.2238 -0.1004  0.0450
61659W        W 4571  13.481  23.789  17.788 -0.3033  0.0471 -0.0433
61660W        W 4572  12.146  23.615  16.052  0.0478  0.3137 -0.1770
61661W        W 4573  11.606  24.716  17.715 -0.2524  0.3378 -0.3130
61662W        W 4574  13.667  24.518  18.488 -0.1063 -0.4231 -0.0329
61663W        W 4575  14.879  24.015  15.654  0.0106 -0.0748 -0.0117
61664W        W 4576  10.784  26.573  18.722 -0.0423  0.1116  0.1280
61665W        W 4577  12.896  24.218  20.238  0.0461 -0.1874 -0.0936
61666W        W 4578  11.427  25.627  19.881  0.2421 -0.1435 -0.1322
61667W        W 4579  11.409  25.937  16.059  0.0341  0.1900 -0.3019
61668W        W 4580  11.216  23.214  18.088  0.0789 -0.0983 -0.3819
61669W        W 4581  11.271  24.540  16.910 -0.1375  0.0570  0.0043
61670W        W 4582  10.546  22.861  19.810  0.1969  0.2905  0.1352
61671W        W 4583  10.810  24.574  17.956 -0.0357  0.1615  0.0657
61672W        W 4584  14.066  22.640  16.438 -0.0674 -0.1510 -0.0765
61673W        W 4585  12.341  21.285  18.460  0.1932 -0.1067 -0.2562
61674W        W 4586  13.711  22.873  17.610  0.2156 -0.0216  0.3704
61675W        W 4587  11.864  23.844  16.383  0.3349  0.0285  0.2363
61676W        W 4588  14.336  26.510  17.614  0.1270 -0.0612 -0.3463
61677W        W 4589  14.890  23.047  15.716 -0.2254  0.0899  0.3281
61678W        W 4590  13.098  23.450  15.600 -0.0457 -0.0363  0.3190
61679W        W 4591  10.420  23.183  19.318  0.2869 -0.2954  0.3618
61680W        W 4592  12.846  22.848  17.442  0.3411  0.5573  0.0201
61681W        W 4593  11.987  22.802  20.370 -0.2532 -0.1378 -0.1942
61682W        W 4594  10.566  22.831  18.127  0.0516  0.1181  0.0482
61683W        W 4595  12.739  24.398  18.182 -0.2199 -0.2611  0.2148
61684W        W 4596  11.544  22.172  15.957 -0.0089 -0.3383 -0.2298
61685W        W 4597  13.872  23.491  17.428 -0.2461 -0.2478  0.1969
61686W        W 4598  12.723  23.388  18.242  0.1297 -0.1421  0.0470
61687W        W 4599  11.450  23.655  16.526  0.4597 -0.1287 -0.0209
61688W        W 4600  14.387  22.610  19.329  0.1696  0.2994  0.1495
61689W        W 4601  12.947  25.206  16.512  0.0577 -0.1734  0.0742
61690W        W 4602  15.268  26.121  18.940  0.1826  0.0733  0.1221
61691W        W 4603  13.849  27.504  19.284 -0.1350  0.1656  0.1959
61692W        W 4604  12.361  22.097  19.301  0.0195  0.1227 -0.1926
61693W        W 4605  10.889  22.412  16.680  0.1245  0.3717  0.5210
61694W        W 4606  11.258  25.416  18.503 -0.0819 -0.2526  0.0913
61695W        W 4607  11.557  24.134  16.746  0.0949 -0.1051 -0.0340
61696W        W 4608  12.171  22.508  16.945 -0.2598 -0.2486  0.1401
61697W        W 4609  14.851  26.807  18.360 -0.0391 -0.0056 -0.1004
61698W        W 4610  12.578  22.961  15.528 -0.1714 -0.1952 -0.2386
61699W        W 4611  10.128  23.775  18.787 -0.2233  0.0408 -0.2922
61700W        W 4612  13.032  23.053  18.573 -0.0563  0.0361 -0.1030
61701W        W 4613  13.555  24.073  18.621 -0.0279  0.3278  0.1225
61702W        W 4614  13.749  22.595  18.810 -0.2509 -0.1385  0.1240
61703W        W 4615  11.916  22.398  16.303  0.1758  0.2751 -0.1348
61704W        W 4616  12.648  25.657  17.620  0.1295  0.0518  0.2612
61705W        W 4617  11.242  25.038  17.710 -0.0066 -0.2501  0.1333
61706W        W 4618  10.665  23.309  18.215  0.0713 -0.3364 -0.3328
61707W        W 4619  12.935  25.560  18.030 -0.1801 -0.1331 -0.1829
61708W        W 4620  14.069  23.754  17.798  0.1488 -0.1359 -0.4739
61709W        W 4621  10.781  23.439  21.176 -0.1705  0.2508  0.0464
61710W        W 4622  12.527  24.494  20.443 -0.3969  0.0466  0.2464
61711W        W 4623  10.476  24.761  16.520  0.2581  0.0140  0.0083
61712W        W 4624  11.498  26.012  18.915 -0.0574  0.0049  0.3782
61713W        W 4625  12.428  20.190  17.300  0.2757 -0.0175  0.2119
61714W        W 4626  13.861  23.630  16.483 -0.0947 -0.0807  0.1551
61715W        W 4627  13.566  24.967  17.447  0.1864  0.3393  0.0677
61716W        W 4628  14.308  24.642  16.767  0.0237 -0.1361  0.0405
61717W        W 4629  13.743  21.922  17.097 -0.0396 -0.1266  0.2849
61718W        W 4630  13.350  21.798  15.534  0.0973 -0.2190 -0.4565
61719W        W 4631  10.202  25.206  20.959  0.0539 -0.4066  0.1216
61720W        W 4632  13.390  25.582  16.543 -0.0960  0.0435 -0.1716
61721W        W 4633  12.354  25.298  17.976  0.0815  0.0555  0.0042
61722W        W 4634  12.517  21.968  15.903  0.0599 -0.0261  0.1686
61723W        W 4635  13.513  25.960  17.553  0.1553 -0.2414 -0.0554
61724W        W 4636  11.699  23.301  17.208 -0.0209 -0.0071 -0.2328
61725W        W 4637  12.811  26.492  19.609  0.0729 -0.0528  0.2344
61726W        W 4638  12.846  23.687  17.278  0.0311 -0.2208 -0.3742
61727W        W 4639  12.768  19.869  17.632 -0.3173  0.1620  0.2305
61728W        W 4640  11.023  23.573  16.804 -0.0107 -0.3081  0.1974
61729W        W 4641  13.313  22.540  17.379  0.0021 -0.1901 -0.5009
61730W        W 4642  10.889  25.482  16.026  0.0053  0.3294 -0.1643
61731W        W 4643  13.622  23.137  18.987 -0.0277 -0.2019  0.3010
61732W        W 4644  11.823  23.740  17.906 -0.0629 -0.0456  0.0108
61733W        W 4645  12.917  21.566  19.412 -0.2668 -0.0929 -0.1269
61734W        W 4646  13.205  24.292  19.310  0.0569 -0.3431 -0.0143
61735W        W 4647  12.966  23.242  17.119 -0.0560 -0.0546  0.0611
61736W        W 4648  12.487  23.713  20.134  0.1081 -0.1091  0.0276
61737W        W 4649  12.216  23.422  15.574  0.1982 -0.1731  0.3335
61738W        W 4650  14.160  21.948  17.473 -0.0175  0.1129  0.0862
61739W        W 4651   9.623  23.939  18.588 -0.3044 -0.1027  0.0772
61740W        W 4652  10.722  25.767  18.457 -0.1480  0.0331  0.0018
61741W        W 4653  13.120  25.193  19.098 -0.3574  0.0307  0.0811
61742W        W 4654  12.241  23.131  18.058  0.1981  0.1024 -0.2571
61743W        W 4655  12.314  24.519  19.122 -0.7190 -0.1114  0.2099
61744W        W 4656  12.639  22.613  16.629  0.1396  0.2035  0.1588
61745W        W 4657  12.384  24.573  16.087 -0.3257  0.1926 -0.0170
61746W        W 4658  12.545  25.426  16.127  0.1051  0.1503  0.0320
61747W        W 4659  11.328  23.325  19.245 -0.1477  0.2517  0.1596
61748W        W 4660  12.554  27.190  17.790 -0.1202  0.3423  0.1076
61749W        W 4661  11.900  24.193  15.931  0.0988  0.0531  0.0448
61750W        W 4662  11.815  24.530  19.315 -0.0937  0.0147  0.3245
61751W        W 4663  12.023  24.827  17.384  0.4218  0.0540  0.0927
61752W        W 4664  14.528  22.232  17.645  0.1947  0.2630 -0.0548
61753W        W 4665  10.619  25.327  16.591  0.0534 -0.0389  0.1392
61754W        W 4666  12.518  22.897  17.032 -0.1677 -0.2056 -0.1273
61755W        W 4667  10.802  23.403  16.370  0.1409  0.1804 -0.0836
61756W        W 4668  13.707  23.981  16.951  0.1388  0.0803  0.0984
61757W        W 4669  13.979  24.621  15.672 -0.0623 -0.3135 -0.1815
61758W        W 4670  12.265  24.440  18.438 -0.2022  0.2939  0.0071
61759W        W 4671  12.889  21.307  18.286  0.1291 -0.0597 -0.1837
61760W        W 4672  11.753  25.721  18.589  0.0608  0.3843  0.6102
61761W        W 4673  12.010  25.964  19.416  0.2430  0.1859  0.3740
61762W        W 4674  13.633  23.492  16.950 -0.2263 -0.0372  0.0770
61763W        W 4675  14.076  25.271  17.431  0.3283 -0.1592 -0.0254
61764W        W 4676  11.023  24.851  19.358  0.1181 -0.3501  0.0779
61765W        W 4677  10.575  23.435  16.860  0.3908 -0.0586  0.0546
61766W        W 4678  13.323  23.835  19.494 -0.2339 -0.0401 -0.0267
61767W        W 4679  12.135  24.044  17.586 -0.3009 -0.0122 -0.0945
61768W        W 4680  10.759  24.954  17.630 -0.3407 -0.0029  0.0628
61769W        W 4681  13.404  25.037  18.704  0.1272  0.1045  0.1839
61770W        W 4682  10.884  22.224  16.225  0.2907 -0.2191  0.0158
61771W        W 4683  13.405  23.850  15.604  0.1269 -0.1077 -0.2218
61772W        W 4684  11.423  25.178  20.473 -0.1834 -0.3981  0.3020
61773W        W 4685  13.603  24.423  17.833 -0.2398  0.3819  0.0435
61774W        W 4686  12.553  23.336  17.433 -0.2276 -0.2701 -0.2834
61775W        W 4687  11.013  23.469  18.532 -0.1174  0.2669  0.3898
61776W        W 4688  13.100  24.141  17.291  0.0565  0.2423  0.0204
61777W        W 4689  12.720  23.930  18.129 -0.0061  0.0519  0.3962
61778W        W 4690  12.436  25.495  18.847  0.0182 -0.4523  0.1841
61779W        W 4691  10.946  26.690  20.172  0.0221  0.0016 -0.0302
61780W        W 4692  12.829  21.685  17.210  0.1734 -0.0587  0.1614
61781W        W 4693  13.902  25.747  18.938  0.1531  0.0527  0.0096
61782W        W 4694  13.186  23.639  18.605  0.1796  0.0939 -0.0541
61783W        W 4695  13.048  25.115  17.410  0.0928  0.3757 -0.0637
61784W        W 4696  10.800  23.877  19.019 -0.1493 -0.0730  0.1595
61785W        W 4697  11.006  23.028  16.784  0.2065  0.4538  0.3394
61786W        W 4698  12.179  23.558  18.238  0.0558 -0.0295 -0.1254
61787W        W 4699  10.828  24.224  18.521 -0.0275 -0.1918  0.0846
61788W        W 4700  11.742  25.027  15.703  0.0187  0.2142 -0.1281
61789W        W 4701  11.438  24.752  19.101  0.0741 -0.0707  0.3260
61790W        W 4702  13.310  21.568  17.126 -0.1056  0.4605 -0.1914
61791W        W 4703  12.661  24.146  15.679  0.1447  0.1109 -0.0079
61792W        W 4704  13.227  21.584  17.982 -0.1350  0.0906 -0.1016
61793W        W 4705  14.015  22.975  18.574  0.0138  0.0358  0.3128
61794W        W 4706  12.634  23.703  16.435  0.1108  0.2330 -0.0253
61795W        W 4707  13.101  22.897  19.316  0.1404  0.2415  0.0569
61796W        W 4708  12.746  22.978  17.896  0.0438 -0.0247 -0.2084
61797W        W 4709  13.120  25.639  17.516 -0.1118  0.0786  0.1282
61798W        W 4710  10.973  22.528  18.949  0.1179  0.0032  0.1484
61799W        W 4711  12.522  26.842  18.153 -0.2015  0.1135 -0.0645
61800W        W 4712  10.196  23.194  19.957 -0.0748 -0.0809 -0.3735
61801W        W 4713  13.424  23.079  17.232  0.2197  0.2051  0.2201
61802W        W 4714  12.266  22.412  17.444 -0.0687  0.2953 -0.1419
61803W        W 4715  12.338  23.821  19.131  0.2473  0.0540 -0.0803
61804W        W 4716  13.197  23.974  18.237  0.1382 -0.0957 -0.2924
61805W        W 4717  13.575  24.556  16.191 -0.0856 -0.0490  0.2110
61806W        W 4718  13.189  25.374  18.419  0.3331  0.1997 -0.2400
61807W        W 4719  11.846  24.328  19.933  0.1242 -0.2344 -0.2168
61808W        W 4720  13.609  24.510  16.759 -0.0047  0.0177 -0.2526
61809W        W 4721  11.311  23.160  16.254 -0.2981  0.2589 -0.1911
61810W        W 4722  12.254  24.050  18.060 -0.1208 -0.1177 -0.1880
61811W        W 4723  12.467  23.054  18.534 -0.1929 -0.0880 -0.5027
61812W        W 4724  11.170  24.427  18.795 -0.0975  0.2166  0.1026
61813W        W 4725  14.058  24.272  16.595  0.2762  0.1315  0.0179
61814W        W 4726  13.867  22.824  18.102 -0.2404  0.0209 -0.1025
61815W        W 4727  13.106  23.288  19.068 -0.0460 -0.0302  0.1442
61816W        W 4728  11.737  23.308  18.067  0.0229  0.1535  0.2106
61817W        W 4729  11.307  23.633  20.992  0.2761  0.3512 -0.0441
61818W        W 4730  14.391  28.119  19.823 -0.1848  0.0314  0.1561
61819W        W 4731  13.558  22.828  16.360  0.0474 -0.3257  0.3137
61820W        W 4732  13.986  24.019  18.909 -0.3650  0.0186 -0.1257
61821W        W 4733  15.128  23.646  16.501  0.0310 -0.1057 -0.0393
61822W        W 4734  12.873  22.551  15.322  0.2338 -0.1055 -0.0054
61823W        W 4735  11.235  23.946  17.534  0.1364 -0.0185  0.3440
61824W        W 4736  12.819  24.673  20.050  0.1551  0.0994 -0.1040
61825W        W 4737  11.204  22.559  15.988 -0.1581  0.2610 -0.2706
61826W        W 4738  12.403  22.989  19.383  0.0202  0.2044  0.0640
61827W        W 4739  12.607  25.912  16.234 -0.2546 -0.0745 -0.1112
61828W        W 4740  14.617  25.139  17.619 -0.1159 -0.1290 -0.2299
61829W        W 4741  13.870  23.225  16.179 -0.0260 -0.4793 -0.0566
61830W        W 4742   9.594  22.924  17.647  0.1094  0.0209 -0.1303
61831W        W 4743  10.905  25.544  19.916 -0.1231 -0.0084 -0.0460
61832W        W 4744  10.289  23.246  16.218  0.1828  0.1836  0.0545
61833W        W 4745  11.432  22.727  16.571  0.2885  0.1092  0.0473
61834W        W 4746  12.916  25.785  18.985  0.2857 -0.0482  0.1454
61835W        W 4747  12.808  25.098  20.584  0.4131 -0.0258 -0.4487
61836W        W 4748  12.060  22.213  15.781  0.1267  0.2956 -0.2546
61837W        W 4749  12.754  22.537  19.194  0.0617  0.0330 -0.2825
61838W        W 4750  11.729  25.570  16.150 -0.0818 -0.0985  0.2254
61839W        W 4751  12.292  22.632  17.971 -0.0674  0.1883 -0.0454
61840W        W 4752  11.621  26.198  18.450 -0.2631 -0.1448 -0.0195
61841W        W 4753   9.528  24.393  18.919  0.0880 -0.2315 -0.1360
61842W        W 4754  12.378  24.351  16.770 -0.1047  0.2645  0.2026
61843W        W 4755  12.669  21.659  18.631 -0.1129 -0.1897 -0.0438
61844W        W 4756  12.883  24.800  18.599 -0.0789 -0.1188 -0.0224
61845W        W 4757  11.543  24.481  18.420  0.1746 -0.2124 -0.1266
61846W        W 4758  13.879  24.483  19.455  0.1239  0.2156 -0.2037
61847W        W 4759  12.605  26.876  19.945 -0.1772 -0.1241 -0.0430
61848W        W 4760  11.957  24.084  17.086 -0.1233 -0.1159  0.0782
61849W        W 4761  14.054  27.200  19.945  0.0703 -0.0093  0.2383
61850W        W 4762  14.472  24.267  18.105  0.1194 -0.0583 -0.0123
61851W        W 4763  10.765  23.643  19.443  0.2768 -0.0879 -0.3281
61852W        W 4764  11.177  23.907  18.508 -0.0756  0.1384  0.0158
61853W        W 4765  12.230  24.343  19.581 -0.0471  0.0107  0.1332
61854W        W 4766  12.412  24.869  18.255 -0.1827  0.0348 -0.0765
61855W        W 4767  12.049  22.900  16.397 -0.0581  0.3202  0.1444
61856W        W 4768  10.983  24.128  15.964 -0.0840  0.4059  0.0825
61857W        W 4769  11.021  25.666  18.879 -0.1972 -0.0205  0.3396
61858W        W 4770  10.071  23.446  18.401  0.0035  0.1420 -0.0586
61859W        W 4771  11.846  24.676  16.080 -0.2035  0.5218  0.0347
61860W        W 4772  13.902  24.895  17.021 -0.0534 -0.2068 -0.1161
61861W        W 4773  12.679  24.644  15.616 -0.1602  0.0478  0.1002
61862W        W 4774  13.943  26.064  17.738 -0.0825  0.4865 -0.2953
61863W        W 4775  12.617  23.576  15.843 -0.0290 -0.0815  0.0947
61864W        W 4776  11.926  24.863  18.235  0.0083 -0.2831  0.1191
61865W        W 4777  10.274  24.695  16.057  0.0094 -0.1444 -0.4715
61866W        W 4778  14.277  25.414  15.983 -0.0546 -0.1857  0.2069
61867W        W 4779  10.741  25.355  17.259 -0.2026  0.1081 -0.0224
61868W        W 4780  13.981  25.009  19.430  0.0995  0.3193  0.0486
61869W        W 4781  12.932  21.521  15.022  0.2510 -0.2045  0.1207
61870W        W 4782  13.756  23.678  18.154 -0.2399  0.2149 -0.1136
61871W        W 4783  14.668  23.129  17.636 -0.0225  0.1912 -0.0951
61872W        W 4784  13.516  26.417  18.979  0.1149 -0.3946  0.1758
61873W        W 4785  10.454  24.193  18.809  0.0876  0.1791 -0.2328
61874W        W 4786  12.427  22.321  16.302  0.0937 -0.0777  0.3661
61875W        W 4787  10.632  22.750  17.607  0.1875 -0.3546 -0.1665
61876W        W 4788  14.904  23.092  19.429 -0.2648 -0.0696  0.2979
61877W        W 4789   9.789  25.346  20.162  0.1026 -0.0919 -0.2852
61878W        W 4790  13.766  26.476  17.567 -0.1332  0.0667  0.2683
61879W        W 4791  11.001  22.281  17.510 -0.3583 -0.0200  0.3022
61880W        W 4792  13.538  22.993  18.478 -0.3082  0.0341  0.1367
61881W        W 4793  14.527  23.746  18.064 -0.0169  0.0042  0.1250
61882W        W 4794  12.888  23.122  15.892 -0.0496 -0.2116  0.2087
61883W        W 4795  13.330  23.594  17.332 -0.3478 -0.1264 -0.2166
61884W        W 4796  12.675  24.698  16.494 -0.1227 -0.2322  0.1901
61885W        W 4797  12.349  24.505  17.745 -0.2043 -0.0559 -0.0505
61886W        W 4798  12.897  26.368  18.247 -0.2583 -0.0828 -0.2569
61887W        W 4799  11.754  21.497  17.704  0.0527  0.0409 -0.0915
61888W        W 4800  13.257  24.201  16.758  0.1263 -0.0047 -0.0418
61889W        W 4801  10.812  24.391  19.206 -0.0088  0.0852 -0.0217
61890W        W 4802  13.123  22.326  17.991 -0.0335  0.0446  0.0062
61891W        W 4803  11.842  23.547  16.812 -0.0691 -0.0112  0.2546
61892W        W 4804  14.297  24.048  16.187  0.3852 -0.0587  0.1866
61893W        W 4805  12.889  24.680  19.119  0.0506  0.3270 -0.0618
61894W        W 4806  11.351  24.424  19.513  0.2016  0.1503  0.0471
61895W        W 4807  13.712  23.043  16.839 -0.0713  0.2543  0.2426
61896W        W 4808  13.084  24.200  19.768  0.0846  0.0423 -0.2245
61897W        W 4809  11.986  23.068  15.890  0.0198 -0.0395  0.0026
61898W        W 4810  13.947  26.573  20.038 -0.2034  0.0480 -0.2161
61899W        W 4811  10.583  22.799  16.664 -0.0605  0.1117 -0.0679
61900W        W 4812  13.450  23.307  16.446 -0.0272 -0.2404  0.0542
61901W        W 4813  12.101  22.053  16.705 -0.0572 -0.2275 -0.0492
61902W        W 4814  12.071  24.147  18.828  0.2894 -0.1981  0.2557
61903W        W 4815  13.080  25.816  21.119  0.2820 -0.1358  0.1451
61904W        W 4816  11.100  22.935  17.492  0.0269 -0.1330 -0.0760
61905W        W 4817  13.543  24.031  15.160  0.0908  0.1078 -0.2430
61906W        W 4818  14.860  23.742  18.553  0.3461 -0.0137  0.0429
61907W        W 4819  12.338  25.294  15.629  0.0379  0.0230 -0.1323
61908W        W 4820  13.281  23.284  18.173 -0.1239 -0.2846 -0.1018
61909W        W 4821  14.604  25.994  17.711  0.1980  0.1889 -0.0241
61910W        W 4822  10.149  22.455  18.015 -0.0683  0.0583  0.0447
61911W        W 4823  13.515  24.860  19.301 -0.0521 -0.1644  0.1960
61912W        W 4824  14.151  26.270  18.984  0.1121 -0.1669  0.2084
61913W        W 4825  12.990  21.605  16.700 -0.0767 -0.0478 -0.0299
61914W        W 4826  11.358  23.709  18.067 -0.1996 -0.3216 -0.2986
61915W        W 4827  11.025  25.763  17.245 -0.0506  0.2172 -0.0692
61916W        W 4828  14.083  23.327  18.973 -0.0656  0.1500  0.0406
61917W        W 4829  12.843  24.110  18.549  0.0548 -0.4359  0.0397
61918W        W 4830  11.898  26.026  16.002  0.0680 -0.2792 -0.1284
61919W        W 4831  12.616  21.146  19.266 -0.1258  0.1089  0.1318
61920W        W 4832  12.771  23.953  19.464 -0.1220 -0.0290  0.1920
61921W        W 4833  11.718  25.994  19.995  0.2288 -0.0801  0.0684
61922W        W 4834   9.656  25.047  16.809 -0.0370  0.0543  0.1629
61923W        W 4835  12.595  24.137  19.873 -0.0828 -0.2447 -0.2812
61924W        W 4836  11.792  23.337  16.308 -0.1046  0.0535 -0.1760
61925W        W 4837  12.132  25.183  16.122  0.1600  0.0222 -0.2380
61926W        W 4838  13.209  24.476  18.782 -0.2584  0.2391  0.1019
61927W        W 4839  14.210  23.218  17.154  0.3985 -0.1272  0.1910
61928W        W 4840  13.334  25.078  16.885 -0.1275  0.2192 -0.0753
61929W        W 4841  11.954  21.946  17.751  0.1379  0.1969  0.0106
61930W        W 4842  14.594  23.493  16.784 -0.0919 -0.0578 -0.1063
61931W        W 4843  13.763  20.790  18.606 -0.0439  0.0259 -0.1215
61932W        W 4844  10.899  24.047  19.707  0.0219 -0.0096  0.3844
61933W        W 4845  11.239  22.385  17.033 -0.3877  0.0958  0.1257
61934W        W 4846  11.462  24.165  16.227 -0.1125  0.1245 -0.2634
61935W        W 4847  12.999  23.528  17.782  0.0836  0.1318  0.1415
61936W        W 4848  13.736  21.641  17.752  0.1156 -0.3642 -0.0273
61937W        W 4849  11.373  23.937  19.360  0.2485 -0.7804  0.0413
61938W        W 4850  11.202  23.330  17.139  0.2341  0.0216 -0.5490
61939W        W 4851  13.193  22.968  16.753  0.0670  0.0322  0.3724
61940W        W 4852  12.817  24.200  16.414 -0.0297 -0.2336  0.1555
61941W        W 4853  11.508  22.858  17.862 -0.2987 -0.0592  0.1611
61942W        W 4854  10.400  22.292  17.575 -0.2098 -0.1961 -0.2025
61943W        W 4855  13.875  22.394  17.362 -0.0958  0.3335  0.2771
61944W        W 4856  14.894  24.856  15.548 -0.2071  0.3385 -0.1480
61945W        W 4857  13.013  21.803  18.945  0.3777 -0.2531 -0.0180
61946W        W 4858  14.364  26.380  20.133 -0.3055 -0.0090 -0.2552
61947W        W 4859   9.499  24.547  16.638 -0.1230 -0.0020 -0.2013
61948W        W 4860  12.672  23.452  19.330  0.0163 -0.0081  0.3577
61949W        W 4861  12.552  22.186  18.806 -0.1562 -0.2044  0.1592
61950W        W 4862  10.815  22.689  17.108 -0.1744  0.1062  0.0950
61951W        W 4863  12.344  24.152  20.953 -0.1310  0.0182  0.0943
61952W        W 4864  12.648  24.030  17.576 -0.1955  0.0927  0.0215
61953W        W 4865  14.192  26.571  17.192 -0.0364 -0.1695  0.0443
61954W        W 4866  12.656  25.117  19.784 -0.1860  0.0996  0.1999
61955W        W 4867  12.880  25.473  19.482  0.0597 -0.1974 -0.0347
61956W        W 4868  12.226  21.996  19.825  0.0171  0.0533 -0.0573
61957W        W 4869  13.183  24.605  16.485  0.2549 -0.1234  0.1471
61958W        W 4870  11.399  26.458  20.148  0.2224  0.2730  0.0264
61959W        W 4871  13.946  24.840  16.499 -0.2582  0.2962  0.1520
61960W        W 4872  15.138  23.286  17.531 -0.0725 -0.0491  0.2948
61961W        W 4873  13.070  23.577  16.651  0.1259 -0.2257  0.2193
61962W        W 4874  11.734  22.586  18.698 -0.0504  0.2615  0.1795
61963W        W 4875  10.652  25.632  20.816 -0.2092 -0.0429 -0.1830
61964W        W 4876  14.330  24.680  19.295  0.4006 -0.2568  0.2394
61965W        W 4877  12.151  23.452  18.803  0.0522 -0.2256  0.1435
61966W        W 4878  14.289  22.496  15.877  0.2392  0.0378  0.0742
61967W        W 4879  14.316  25.347  16.559 -0.0845  0.3565  0.1214
61968W        W 4880  10.987  22.958  18.446  0.1613 -0.1799  0.0054
61969W        W 4881  13.617  24.045  16.419  0.0526  0.3375  0.0074
61970W        W 4882  12.324  24.713  19.946 -0.2601 -0.0594  0.0114
61971W        W 4883  12.910  24.971  18.088  0.0703 -0.0451  0.0280
61972W        W 4884  12.662  25.304  18.398 -0.1832 -0.2344 -0.0083
61973W        W 4885  12.441  23.103  16.108 -0.1579  0.1308 -0.3604
61974W        W 4886  13.961  23.838  15.419  0.0688 -0.1676  0.2726
61975W        W 4887  13.447  25.803  18.093 -0.1788 -0.2639  0.0234
61976W        W 4888  13.670  25.954  19.774 -0.0051  0.1906 -0.0587
61977W        W 4889  13.141  26.234  18.695  0.3503 -0.3022  0.1158
61978W        W 4890  13.316  24.634  17.251  0.0593  0.0915 -0.2061
61979W        W 4891  11.301  23.714  18.930  0.1968  0.1426 -0.0881
61980W        W 4892  12.727  23.141  16.573  0.1123 -0.0867 -0.0536
61981W        W 4893  12.431  23.858  18.521 -0.1446 -0.0243 -0.0465
61982W        W 4894  14.370  22.943  18.077  0.0430  0.1901 -0.0101
61983W        W 4895  11.579  24.240  18.892  0.0319  0.2369 -0.0042
61984W        W 4896  13.098  22.989  16.280  0.0624 -0.0367 -0.0182
61985W        W 4897  12.300  26.439  18.886  0.2715  0.0083 -0.0747
61986W        W 4898  13.276  24.738  17.764  0.1343 -0.0827  0.2596
61987W        W 4899  10.523  24.506  24.045  0.1433  0.0493 -0.1143
61988W        W 4900  11.922  22.306  19.563 -0.0305 -0.0130 -0.0846
61989W        W 4901  14.265  24.220  19.695  0.5447  0.1961 -0.5089
61990W        W 4902  13.161  25.050  19.998  0.1140  0.0841 -0.4702
61991W        W 4903  11.475  22.386  21.602  0.1823  0.0846 -0.0186
61992W        W 4904  14.130  25.615  20.359 -0.3009 -0.0083 -0.0788
61993W        W 4905  11.107  21.543  22.420  0.2916  0.1278  0.1962
61994W        W 4906  12.421  25.652  21.514  0.2655  0.1438  0.0324
61995W        W 4907  13.482  24.515  21.964  0.1501 -0.2953 -0.0628
61996W        W 4908  13.407  23.911  20.140  0.3283  0.2373 -0.2447
61997W        W 4909  12.020  22.680  21.476 -0.3387 -0.0927  0.3083
61998W        W 4910  11.384  26.301  22.634 -0.0655  0.0152 -0.0532
61999W        W 4911  11.454  22.263  19.788  0.0981 -0.1557 -0.1080
62000W        W 4912  11.154  21.546  21.518  0.3072 -0.0843  0.2192
62001W        W 4913  13.894  23.291  21.967 -0.6011 -0.4956  0.1931
62002W        W 4914  11.709  23.806  22.652 -0.0338  0.0021 -0.0291
62003W        W 4915  10.564  23.194  23.142 -0.2593 -0.2063  0.0993
62004W        W 4916  12.416  21.754  20.904 -0.3080 -0.2237 -0.1920
62005W        W 4917  11.938  24.941  21.098 -0.3840 -0.0272  0.0146
62006W        W 4918  12.386  22.590  22.642 -0.1982  0.1290 -0.0425
62007W        W 4919  13.352  22.478  21.619  0.1646  0.0254  0.1745
62008W        W 4920  12.010  23.466  19.333 -0.2879 -0.2421 -0.2068
62009W        W 4921  11.591  25.247  20.911  0.1570  0.2217 -0.1018
62010W        W 4922  11.021  24.023  21.939 -0.1070 -0.0353  0.3868
62011W        W 4923  11.060  23.067  22.450 -0.0492  0.0816 -0.2958
62012W        W 4924  12.199  22.957  20.933 -0.1449 -0.0631  0.1080
62013W        W 4925  13.676  22.968  22.981  0.4112  0.0617  0.1387
62014W        W 4926  12.247  27.011  21.563  0.0122  0.3241 -0.1221
62015W        W 4927  12.466  26.157  21.706 -0.1209  0.4397  0.1189
62016W        W 4928  14.085  22.363  23.918 -0.0616 -0.1364  0.0749
62017W        W 4929  10.134  25.647  21.549 -0.0696  0.1677  0.0035
62018W        W 4930  10.332  26.101  21.847  0.0528  0.0386 -0.0857
62019W        W 4931  13.882  24.737  20.438 -0.2786  0.0166  0.1084
62020W        W 4932  14.303  24.232  22.121  0.0930  0.2711  0.2371
62021W        W 4933  13.029  25.771  23.448 -0.0488  0.3145 -0.1136
62022W        W 4934  11.480  25.919  23.025 -0.0405 -0.1932 -0.0495
62023W        W 4935  10.399  24.042  19.288 -0.1220  0.0413  0.2146
62024W        W 4936  11.903  25.716  22.760  0.0337  0.2209 -0.1849
62025W        W 4937  11.484  24.625  23.151  0.1311 -0.2355  0.0953
62026W        W 4938  12.476  23.684  22.562 -0.1650  0.1657 -0.1057
62027W        W 4939  11.930  23.889  21.090 -0.2298  0.1056 -0.0294
62028W        W 4940  12.325  24.546  21.274 -0.3347  0.0033  0.3316
62029W        W 4941  13.477  23.328  21.463  0.0060  0.2086  0.1383
62030W        W 4942  12.623  24.659  23.658 -0.3623  0.2426 -0.2152
62031W        W 4943   9.280  26.206  22.514 -0.1281 -0.0093 -0.0278
62032W        W 4944  15.067  21.836  22.236  0.1119  0.0916 -0.0969
62033W        W 4945  11.925  27.186  20.488  0.2658 -0.2223 -0.0597
62034W        W 4946  15.221  23.348  20.010 -0.1263 -0.0673  0.1221
62035W        W 4947  11.820  23.788  20.228 -0.0496 -0.0517 -0.2579
62036W        W 4948  14.041  23.806  21.072  0.1004 -0.2189 -0.2304
62037W        W 4949  13.196  21.416  21.811  0.2045 -0.0230 -0.0647
62038W        W 4950  12.147  25.506  21.009  0.0510 -0.0472  0.2465
62039W        W 4951  12.110  22.947  23.078  0.2716  0.2141 -0.0546
62040W        W 4952  13.874  23.162  23.812  0.4090 -0.2335  0.0522
62041W        W 4953  12.365  23.352  19.752 -0.0540  0.0915 -0.0980
62042W        W 4954  12.959  24.024  22.541 -0.7338  0.1472 -0.1274
62043W        W 4955   9.811  26.323  22.631 -0.0598  0.1488  0.0214
62044W        W 4956  12.328  23.575  21.506  0.1944 -0.4526 -0.0756
62045W        W 4957  14.395  25.653  20.805  0.2486  0.1369 -0.3602
62046W        W 4958  14.883  24.917  19.507  0.2427 -0.0896  0.1500
62047W        W 4959  13.612  26.360  20.500  0.0080  0.3894  0.0187
62048W        W 4960  11.230  23.143  21.205  0.3295  0.0849 -0.2162
62049W        W 4961  11.825  24.080  23.849 -0.0885 -0.1599  0.3041
62050W        W 4962  10.843  24.305  23.267  0.0711 -0.1040  0.3135
62051W        W 4963  10.886  25.166  20.255 -0.4025  0.0722 -0.0507
62052W        W 4964  13.148  25.308  23.165 -0.1799  0.4454 -0.0895
62053W        W 4965  12.647  25.078  22.393  0.2385 -0.2138  0.6400
62054W        W 4966  13.843  22.974  21.190  0.1681 -0.0720 -0.1711
62055W        W 4967  12.849  23.631  22.193 -0.0741 -0.0703  0.1307
62056W        W 4968  13.970  25.772  23.069  0.2600  0.5737 -0.4818
62057W        W 4969  11.929  23.330  20.046  0.1447 -0.1482 -0.0877
62058W        W 4970  14.052  22.229  22.990  0.1462  0.0164  0.1520
62059W        W 4971  13.590  21.597  21.650  0.0121  0.2685  0.2067
62060W        W 4972  11.635  24.732  20.764 -0.2123  0.3747 -0.0492
62061W        W 4973  12.756  25.519  20.078  0.1723  0.0916  0.0456
62062W        W 4974  12.807  24.827  23.200  0.2119 -0.2447  0.0662
62063W        W 4975  12.677  24.539  19.599 -0.1426  0.2490 -0.1188
62064W        W 4976  11.020  25.859  21.495 -0.0814 -0.2004  0.0056
62065W        W 4977  12.427  23.501  21.014 -0.1717 -0.2576 -0.0626
62066W        W 4978  12.887  25.138  23.607 -0.0759  0.0954  0.1538
62067W        W 4979  11.864  24.832  19.716  0.1993  0.0585 -0.1072
62068W        W 4980  10.896  24.992  22.084  0.0613 -0.1370 -0.0644
62069W        W 4981  11.641  25.184  19.993  0.0177 -0.0544 -0.0400
62070W        W 4982  12.882  22.567  22.649  0.0768  0.0307  0.2608
62071W        W 4983  13.784  24.127  22.229  0.0072 -0.2937  0.0990
62072W        W 4984  13.590  24.285  19.794  0.0508 -0.0788  0.0500
62073W        W 4985  11.058  22.025  22.583  0.0082  0.0608  0.0521
62074W        W 4986  12.132  22.220  20.534  0.1483  0.0248 -0.2169
62075W        W 4987  11.686  25.147  21.956  0.0187 -0.1291 -0.2922
62076W        W 4988  14.778  25.841  20.074  0.2030 -0.0442 -0.2281
62077W        W 4989  13.792  23.009  20.705  0.2873 -0.0980  0.1769
62078W        W 4990  13.824  25.478  19.648 -0.2731 -0.1127 -0.1249
62079W        W 4991  11.574  23.612  23.145 -0.3032  0.1655  0.4180
62080W        W 4992  11.512  24.577  21.845  0.0517  0.1299  0.0288
62081W        W 4993  11.507  22.583  24.327 -0.0740 -0.0462  0.0198
62082W        W 4994  12.769  22.299  21.482  0.3422 -0.3112  0.1857
62083W        W 4995  13.634  22.515  23.120  0.2739  0.3025 -0.2880
62084W        W 4996  12.757  22.261  20.424 -0.2038  0.1162  0.2194
62085W        W 4997  13.530  23.772  21.173 -0.1921  0.1048  0.0977
62086W        W 4998  11.180  24.719  20.438  0.2115 -0.0775  0.1717
62087W        W 4999  11.183  24.052  20.666  0.1269  0.1154  0.1744
62088W        W 5000  12.966  22.282  21.892 -0.1636 -0.1729 -0.3081
62089W        W 5001  14.109  26.751  21.253 -0.2046 -0.0322 -0.1686
62090W        W 5002  13.573  25.024  23.346  0.0402 -0.3452  0.1460
62091W        W 5003  14.120  25.821  21.166  0.0379 -0.0098  0.2129
62092W        W 5004  12.778  23.050  23.417 -0.1379  0.1409  0.2711
62093W        W 5005  11.013  23.050  18.927  0.3709 -0.1564  0.1784
62094W        W 5006  12.150  25.304  21.796  0.2348 -0.0703 -0.1068
62095W        W 5007  12.991  24.611  22.242  0.0453  0.0023  0.1359
62096W        W 5008  11.535  23.503  18.513 -0.0858 -0.1282  0.0919
62097W        W 5009  13.045  25.310  22.176 -0.0527 -0.1388  0.0829
62098W        W 5010  12.703  24.236  21.321 -0.1773  0.1085 -0.0990
62099W        W 5011  10.922  25.162  23.604  0.2654  0.1318 -0.2237
62100W        W 5012  12.630  21.742  23.025  0.1874  0.0292  0.0701
62101W        W 5013  13.658  24.036  20.788  0.0303  0.0154  0.0591
62102W        W 5014  13.341  23.242  21.953 -0.0211 -0.1603  0.2303
62103W        W 5015  11.572  23.393  20.463 -0.2590 -0.1507  0.0740
62104W        W 5016  13.068  26.187  22.471 -0.1172 -0.1765 -0.0551
62105W        W 5017  11.060  25.974  19.755 -0.1888 -0.0325 -0.0262
62106W        W 5018  10.674  24.214  21.517  0.3219  0.0925 -0.1333
62107W        W 5019  12.989  25.011  21.021  0.1110  0.0832 -0.2246
62108W        W 5020  12.728  22.209  20.913 -0.2737  0.2802  0.1561
62109W        W 5021  11.770  23.668  24.858  0.0964 -0.4673 -0.6529
62110W        W 5022  12.588  22.760  23.083 -0.2641 -0.1550  0.0715
62111W        W 5023  11.848  24.011  19.411  0.1912 -0.1419  0.1220
62112W        W 5024  10.883  22.942  23.598  0.0093 -0.0829 -0.2171
62113W        W 5025  13.323  23.038  20.752  0.0659 -0.1751  0.0368
62114W        W 5026  15.604  22.880  19.187 -0.2486 -0.3177  0.2144
62115W        W 5027  13.042  24.322  22.942  0.2869  0.1290 -0.4318
62116W        W 5028  14.199  24.839  21.567  0.3472 -0.1338  0.1454
62117W        W 5029  12.987  23.716  20.027  0.0953 -0.1091 -0.0963
62118W        W 5030  14.279  22.259  20.419 -0.0129  0.0851  0.3385
62119W        W 5031  10.356  26.064  24.722  0.1062  0.2559 -0.1101
62120W        W 5032  12.021  24.812  21.785 -0.1638 -0.2183 -0.3581
62121W        W 5033  11.859  24.629  22.229  0.2854  0.2864 -0.1050
62122W        W 5034  14.448  21.954  19.127  0.1221 -0.0269 -0.2838
62123W        W 5035  14.048  24.599  19.983  0.3896  0.0713  0.1125
62124W        W 5036  11.429  24.963  22.706  0.0324 -0.0291 -0.1069
62125W        W 5037  14.250  25.579  24.608 -0.2620  0.0846  0.0474
62126W        W 5038  13.673  26.051  21.062  0.1998 -0.0414 -0.1127
62127W        W 5039  11.810  21.322  22.166 -0.2868 -0.0134 -0.2412
62128W        W 5040  13.176  25.668  19.885 -0.0974 -0.1123  0.2779
62129W        W 5041  12.247  23.867  20.574  0.0748 -0.0365  0.1386
62130W        W 5042  10.557  25.888  19.804  0.0712 -0.0181 -0.1154
62131W        W 5043  14.509  23.096  22.258 -0.1905  0.2969  0.0128
62132W        W 5044  12.391  23.413  22.082  0.0187  0.1013  0.3465
62133W        W 5045  11.989  20.732  23.747  0.1199 -0.0640  0.0550
62134W        W 5046  13.117  23.331  23.678  0.0073  0.2607  0.4265
62135W        W 5047  13.748  25.226  21.648 -0.0969 -0.0617  0.1148
62136W        W 5048  13.659  22.974  22.370  0.1842  0.2401  0.0388
62137W        W 5049  11.679  23.104  19.533  0.1192 -0.2383 -0.1127
62138W        W 5050  12.676  22.572  22.184 -0.3331  0.4302 -0.0110
62139W        W 5051  11.706  24.093  23.202 -0.0858 -0.2105 -0.1599
62140W        W 5052   9.860  24.411  21.038  0.3603  0.0290  0.0117
62141W        W 5053  13.677  22.967  21.683  0.2991  0.1314 -0.0555
62142W        W 5054  13.673  25.081  21.072 -0.5010 -0.1589  0.0794
62143W        W 5055  12.921  22.792  21.647 -0.0581 -0.0759  0.0481
62144W        W 5056  12.791  23.779  20.492 -0.0802  0.2747 -0.0913
62145W        W 5057  12.459  25.861  19.176 -0.0747 -0.2977  0.4010
62146W        W 5058   9.473  23.421  19.547 -0.0747 -0.0321  0.0040
62147W        W 5059  12.044  23.184  21.343 -0.0935 -0.2501  0.0892
62148W        W 5060  12.569  24.287  22.642 -0.1747 -0.2964 -0.0892
62149W        W 5061  11.001  25.459  19.335  0.0999 -0.2282 -0.1822
62150W        W 5062  13.380  22.657  23.768 -0.0069  0.0408 -0.1664
62151W        W 5063  13.026  25.941  20.282  0.2337 -0.0677 -0.1548
62152W        W 5064  13.825  21.578  22.680 -0.0581 -0.2998  0.0391
62153W        W 5065  10.561  24.434  22.223 -0.0982 -0.1030 -0.1214
62154W        W 5066  10.431  23.274  20.748 -0.3276  0.1005  0.0561
62155W        W 5067  11.280  22.635  20.996  0.0282 -0.1111 -0.0079
62156W        W 5068  15.148  22.541  20.539 -0.0650 -0.2294 -0.0026
62157W        W 5069  14.743  24.386  20.989 -0.0716  0.3671 -0.1329
62158W        W 5070  11.370  23.324  21.685 -0.1373  0.0012  0.0290
62159W        W 5071  11.931  22.421  21.898  0.0506 -0.2299 -0.2447
62160W        W 5072  10.860  26.408  22.475  0.0079  0.0353 -0.0741
62161W        W 5073  12.809  24.707  22.704 -0.1163  0.4730 -0.3751
62162W        W 5074  13.544  22.987  19.558 -0.2599  0.1665  0.1809
62163W        W 5075  13.367  24.767  22.953 -0.1471 -0.0749 -0.1432
62164W        W 5076  12.242  23.214  23.522 -0.1325 -0.1560  0.0727
62165W        W 5077  11.930  25.170  20.531 -0.0930 -0.2953  0.0153
62166W        W 5078  14.273  22.342  22.434 -0.2773  0.0849  0.3165
62167W        W 5079  12.204  24.672  20.749  0.2534  0.0707  0.4042
62168W        W 5080  12.471  25.839  21.049 -0.0754 -0.0106  0.0627
62169W        W 5081  11.936  25.636  22.244 -0.4179 -0.0102 -0.0843
62170W        W 5082  10.538  23.935  20.470  0.0503 -0.0106  0.1735
62171W        W 5083  12.561  24.660  21.788  0.1136 -0.4214  0.3873
62172W        W 5084  11.957  22.147  23.569  0.0845 -0.0441 -0.2273
62173W        W 5085  13.036  23.607  22.776  0.1560 -0.0876 -0.2773
62174W        W 5086  12.166  22.541  23.392 -0.3110 -0.1381  0.0510
62175W        W 5087  13.201  24.217  21.095 -0.3049  0.0301  0.0585
62176W        W 5088  13.233  22.304  22.912  0.3009 -0.0152 -0.1434
62177W        W 5089  13.260  24.928  22.493  0.2447  0.0382  0.4138
62178W        W 5090  12.826  24.212  23.995  0.0223 -0.1312 -0.1477
62179W        W 5091  11.168  24.729  23.639  0.0552 -0.3140  0.1194
62180W        W 5092  12.210  21.488  20.104  0.0912  0.2010 -0.1037
62181W        W 5093  13.894  24.596  20.946 -0.4969  0.0981  0.1293
62182W        W 5094  13.426  23.023  23.437  0.0105 -0.0850  0.1701
62183W        W 5095  11.481  24.077  21.107  0.1196 -0.0981  0.0645
62184W        W 5096  12.650  25.233  21.878 -0.4364 -0.0922 -0.4466
62185W        W 5097  12.639  23.899  23.086  0.1787  0.1679 -0.3516
62186W        W 5098  12.785  23.072  22.058 -0.1544  0.0486 -0.0312
62187W        W 5099  11.036  25.907  22.159  0.2205  0.1949  0.0784
62188W        W 5100  11.763  25.630  20.304  0.1953 -0.0688 -0.0831
62189W        W 5101  11.205  24.248  22.872  0.0658 -0.5459  0.2098
62190W        W 5102  13.761  22.560  20.362  0.1192 -0.2161  0.2825
62191W        W 5103  12.630  22.255  19.823 -0.3736  0.2060  0.1144
62192W        W 5104  13.733  22.420  21.324  0.1941  0.3585  0.0866
62193W        W 5105  14.939  21.740  21.444 -0.1197 -0.0249  0.0506
62194W        W 5106  12.665  24.175  19.022 -0.0360 -0.1790  0.2413
62195W        W 5107  13.043  21.696  24.280  0.1330  0.0732 -0.3963
62196W        W 5108  11.807  22.867  22.566  0.0829 -0.2261  0.0862
62197W        W 5109  14.837  24.440  22.093  0.3561  0.0647  0.0068
62198W        W 5110  13.177  22.785  23.117  0.0614  0.3797  0.2741
62199W        W 5111  12.107  25.367  23.169 -0.0721  0.1821  0.2046
62200W        W 5112  11.615  24.533  22.671 -0.0021 -0.0325  0.2969
62201W        W 5113  12.967  22.857  20.324 -0.3917  0.2313 -0.0810
62202W        W 5114  11.855  22.747  18.186 -0.1284 -0.2495  0.1723
62203W        W 5115  11.960  23.715  22.153  0.4105  0.0321 -0.1858
62204W        W 5116  13.639  25.307  22.203  0.0296  0.0751  0.3469
62205W        W 5117  11.183  25.071  19.841  0.0747 -0.1731 -0.0669
62206W        W 5118  13.299  24.692  21.358  0.0492  0.3184  0.0963
62207W        W 5119  12.396  24.691  22.247 -0.3536  0.0459  0.0848
62208W        W 5120  12.056  22.930  19.782  0.0757  0.1675  0.1319
62209W        W 5121  13.336  24.530  20.144 -0.2243  0.0315 -0.0248
62210W        W 5122  12.239  25.923  19.938  0.0474  0.2816 -0.0726
62211W        W 5123  12.248  21.753  23.694  0.0389 -0.0472  0.2169
62212W        W 5124  14.551  25.125  20.913  0.0872  0.0484 -0.1157
62213W        W 5125  13.322  23.017  20.022  0.1916  0.0055 -0.0296
62214W        W 5126  13.246  22.835  21.283 -0.1036 -0.1795  0.2812
62215W        W 5127  14.783  23.303  21.850 -0.0933 -0.3305 -0.3276
62216W        W 5128  12.029  23.242  22.361 -0.0471 -0.2176  0.0274
62217W        W 5129  12.013  22.536  24.162 -0.1625 -0.0472 -0.0328
62218W        W 5130  12.891  25.756  21.960 -0.1165 -0.3612 -0.0337
62219W        W 5131  15.295  23.590  18.061 -0.1371  0.2185  0.1001
62220W        W 5132  14.761  22.173  22.050 -0.1830  0.0760  0.2202
62221W        W 5133  13.831  23.101  19.981 -0.0094  0.1536  0.0551
62222W        W 5134  13.270  24.256  20.538 -0.0767  0.3307 -0.1741
62223W        W 5135  11.567  22.856  21.447 -0.2104 -0.2973  0.2011
62224W        W 5136  15.021  23.889  22.765  0.0254  0.4021  0.1634
62225W        W 5137  11.805  23.758  18.950  0.2185 -0.4869  0.3193
62226W        W 5138  12.890  22.864  23.929  0.0087 -0.1321 -0.2561
62227W        W 5139  12.752  25.631  20.594 -0.1576  0.0329  0.0818
62228W        W 5140  13.914  24.389  21.791  0.0501  0.0957 -0.0399
62229W        W 5141  13.243  23.416  20.309  0.1205 -0.3703  0.1285
62230W        W 5142  11.616  23.014  20.938  0.1956  0.1883  0.3076
62231W        W 5143  11.216  25.130  24.039 -0.2472  0.1478  0.0247
62232W        W 5144  12.435  24.976  20.333 -0.2714 -0.0359  0.0302
62233W        W 5145  11.376  24.116  19.905 -0.2258  0.1161  0.1811
62234W        W 5146  13.488  23.705  22.170  0.2355 -0.3317 -0.0312
62235W        W 5147  15.258  23.322  22.458  0.1679  0.1103 -0.0875
62236W        W 5148  12.485  22.809  20.151 -0.1317  0.0091  0.2338
62237W        W 5149  13.800  22.051  22.371 -0.3346 -0.0023 -0.1168
62238W        W 5150  11.030  25.345  21.675  0.2755 -0.0537  0.0551
62239W        W 5151  13.025  21.614  20.216  0.2265 -0.4334 -0.1567
62240W        W 5152  11.122  25.610  23.182 -0.0894 -0.2228  0.1080
62241W        W 5153  11.030  23.758  23.825  0.0666 -0.1696  0.3598
62242W        W 5154  11.999  26.256  20.392  0.1091  0.2071 -0.1377
62243W        W 5155  11.623  22.318  21.155  0.0180  0.2760  0.0502
62244W        W 5156  14.085  23.803  22.444  0.0594  0.0150  0.0392
62245W        W 5157  13.315  24.405  22.504 -0.0821 -0.0323 -0.1058
62246W        W 5158  13.083  23.397  21.106  0.3080  0.3429 -0.0082
62247W        W 5159  12.998  23.498  23.257 -0.2323 -0.5182  0.0278
62248W        W 5160  11.955  23.254  21.827  0.0496  0.0101 -0.3741
62249W        W 5161  13.373  25.564  21.813 -0.0190 -0.1171  0.1743
62250W        W 5162  14.828  24.743  22.853  0.0172  0.1794 -0.0868
62251W        W 5163  11.305  25.532  21.269  0.1074  0.0235  0.1781
62252W        W 5164  11.013  24.323  24.594  0.1644  0.1494  0.2447
62253W        W 5165  12.668  22.504  23.533 -0.0188 -0.0361  0.2547
62254W        W 5166  13.833  24.192  21.324 -0.3174 -0.2604 -0.3308
62255W        W 5167  12.890  22.734  20.851 -0.2961 -0.0306 -0.1603
62256W        W 5168  12.403  25.620  19.605  0.1123  0.0620 -0.0179
62257W        W 5169  10.178  25.683  22.609 -0.1121 -0.4848  0.3713
62258W        W 5170  11.254  24.202  23.495  0.3157 -0.2507 -0.0468
62259W        W 5171  10.006  26.295  20.919  0.1920  0.3263  0.1604
62260W        W 5172  13.653  25.292  19.140  0.4648  0.1421 -0.2752
62261W        W 5173  13.192  24.103  22.096  0.2120  0.0091 -0.0733
62262W        W 5174  12.984  25.275  22.681  0.1702  0.0537 -0.1358
62263W        W 5175  11.486  24.622  19.970 -0.1746  0.0048  0.0587
62264W        W 5176  11.195  24.901  21.691 -0.3047  0.1379  0.1081
62265W        W 5177  10.567  25.742  20.322 -0.0230  0.1034 -0.0465
62266W        W 5178  14.544  23.703  21.032  0.0422  0.1699 -0.3710
62267W        W 5179  12.387  25.116  20.838  0.2405 -0.0074  0.0376
62268W        W 5180  12.940  25.282  24.117 -0.1665  0.0215 -0.0552
62269W        W 5181  14.745  22.678  20.218  0.0271  0.1521  0.0996
62270W        W 5182  13.013  24.426  21.677  0.0724 -0.0653  0.2267
62271W        W 5183  13.816  24.228  20.280  0.2044 -0.3619 -0.0336
62272W        W 5184  12.924  24.760  24.032 -0.0606 -0.0697  0.0384
62273W        W 5185  12.866  23.282  21.633 -0.0176  0.0462 -0.0728
62274W        W 5186  12.701  23.284  20.181 -0.0437  0.2987  0.1129
62275W        W 5187  11.790  23.391  23.781 -0.0488 -0.2701 -0.1196
62276W        W 5188  15.432  21.758  24.009  0.2948  0.0965  0.0616
62277W        W 5189  11.072  25.403  22.731  0.1132  0.2261  0.3244
62278W        W 5190  14.156  25.300  22.015 -0.2026 -0.3310  0.2887
62279W        W 5191  11.620  23.428  21.263 -0.1903  0.2592  0.1308
62280W        W 5192  13.171  23.215  22.396 -0.2037  0.1382 -0.0530
62281W        W 5193  13.896  21.145  21.648  0.0818  0.1846  0.1131
62282W        W 5194  12.161  23.819  19.801 -0.1447  0.2722  0.2165
62283W        W 5195  13.694  22.102  21.740 -0.2105 -0.2675  0.1180
62284W        W 5196  12.938  26.477  20.103 -0.1121 -0.0387 -0.2653
62285W        W 5197  11.604  25.651  21.822  0.0162 -0.2530 -0.4739
62286W        W 5198  10.245  26.604  21.834 -0.1085 -0.0833  0.1244
62287W        W 5199  12.401  23.011  21.688  0.3859  0.0800  0.0349
62288W        W 5200  14.409  23.278  19.308  0.0452 -0.0743  0.1587
62289W        W 5201  11.515  23.789  23.593 -0.2426 -0.1053  0.0347
62290W        W 5202  14.111  22.649  21.623 -0.0760  0.1029  0.0855
62291W        W 5203  11.888  24.730  20.310 -0.0539  0.0044 -0.2648
62292W        W 5204  13.940  22.257  19.125  0.2095  0.2243 -0.0290
62293W        W 5205  13.371  24.985  21.866 -0.1810 -0.0799  0.1549
62294W        W 5206  11.598  23.284  22.770  0.2323  0.2044 -0.0866
62295W        W 5207  12.677  22.982  18.973 -0.4851  0.2361 -0.0025
62296W        W 5208  14.770  24.273  23.593  0.2717  0.2972 -0.0925
62297W        W 5209  12.669  24.671  20.927 -0.4524  0.3071  0.0852
62298W        W 5210  12.995  26.788  23.090  0.5606 -0.3290 -0.1980
62299W        W 5211  12.469  21.400  20.553 -0.2268  0.1644  0.1546
62300W        W 5212  13.196  23.778  20.789  0.2659  0.3500 -0.1364
62301W        W 5213  12.816  23.815  21.609  0.0969 -0.0438 -0.0967
62302W        W 5214  11.366  24.182  22.416 -0.0427 -0.0697 -0.0899
62303W        W 5215  14.320  25.601  22.396 -0.0281  0.0156  0.0368
62304W        W 5216  12.407  22.512  21.731  0.0911  0.0014 -0.0557
62305W        W 5217  14.823  24.519  19.177  0.0768  0.0196 -0.0893
62306W        W 5218  13.140  22.317  23.471  0.0676  0.0260  0.0158
62307W        W 5219  10.447  26.278  20.209  0.2164 -0.1996  0.0633
62308W        W 5220  13.635  25.687  20.230 -0.1349  0.1062  0.0219
62309W        W 5221  12.007  26.418  21.895 -0.2550  0.1384  0.0592
62310W        W 5222  10.619  23.866  23.386 -0.1054  0.2788  0.1166
62311W        W 5223  13.372  26.506  22.773  0.1015  0.2842 -0.3716
62312W        W 5224  15.556  25.530  22.219 -0.3950  0.1505 -0.2365
62313W        W 5225  11.750  22.225  19.008  0.1442 -0.4115 -0.1620
62314W        W 5226  12.658  22.262  22.988  0.1221 -0.1153  0.0559
62315W        W 5227  11.514  26.055  20.433 -0.0754 -0.0814  0.0106
62316W        W 5228  13.985  23.397  21.449 -0.2202 -0.0103  0.1387
62317W        W 5229  14.111  22.851  22.135 -0.0013 -0.0009  0.1692
62318W        W 5230  12.145  26.925  19.842  0.2190 -0.0726 -0.1284
62319W        W 5231  13.194  22.120  24.553  0.1326  0.2976  0.0596
62320W        W 5232  11.201  25.080  23.185 -0.1575 -0.1684 -0.0700
62321W        W 5233  10.738  25.766  24.908 -0.0168 -0.0308  0.0770
62322W        W 5234  11.968  23.421  20.746 -0.0053 -0.2731  0.1642
62323W        W 5235  11.367  24.212  24.027 -0.0556  0.2560 -0.1280
62324W        W 5236  11.745  24.130  22.080 -0.2232  0.1564 -0.1705
62325W        W 5237  12.290  25.479  20.434 -0.1307  0.3087 -0.0241
62326W        W 5238  15.628  24.622  22.389 -0.0451 -0.2020 -0.0903
62327W        W 5239  11.879  23.692  21.602  0.0135  0.1763  0.1330
62328W        W 5240  14.388  24.854  22.056  0.0152  0.0352 -0.1686
62329W        W 5241  12.906  22.148  22.407 -0.0235  0.0780 -0.2679
62330W        W 5242  12.712  23.068  21.137 -0.3551  0.0500  0.1299
62331W        W 5243  13.086  21.400  22.330  0.0333  0.1182  0.3549
62332W        W 5244  12.147  23.949  22.905  0.1774  0.1165 -0.1077
62333W        W 5245  11.526  24.303  20.324 -0.0941  0.0086 -0.0686
62334W        W 5246  10.514  24.152  19.993 -0.0737 -0.0347 -0.3498
62335W        W 5247  11.543  24.692  21.314  0.1146  0.0184 -0.2775
62336W        W 5248  11.318  21.437  23.955  0.1039 -0.2878  0.1142
62337W        W 5249  14.102  23.270  22.454 -0.1324  0.0396 -0.0320
62338W        W 5250  11.039  24.517  22.061  0.1206  0.0671 -0.1691
62339W        W 5251  13.039  21.842  21.100  0.2280  0.3797  0.4391
62340W        W 5252  13.712  23.554  20.500 -0.2509 -0.2687  0.1343
62341W        W 5253  10.559  22.182  21.916  0.1547 -0.2767 -0.0488
62342W        W 5254  10.827  22.567  21.665  0.2141  0.0411 -0.1254
62343W        W 5255  12.850  23.830  21.137  0.0874  0.1844 -0.1039
62344W        W 5256  14.576  26.563  20.634  0.0589  0.4656  0.5898
62345W        W 5257  13.605  22.582  19.311 -0.4327  0.3108  0.0662
62346W        W 5258  14.044  25.294  23.012  0.1211  0.2303 -0.1365
62347W        W 5259  11.591  23.668  19.807 -0.2405 -0.0472  0.2472
62348W        W 5260  12.860  22.096  23.999 -0.2671 -0.2575 -0.0970
62349W        W 5261  11.583  22.002  22.588  0.0766 -0.1210 -0.2556
62350W        W 5262  12.157  22.433  21.011  0.1984 -0.1475  0.1079
62351W        W 5263  12.870  23.287  20.690  0.3874 -0.1571  0.2490
62352W        W 5264  13.046  24.695  20.503  0.1888  0.1401 -0.0148
62353W        W 5265  13.982  26.063  20.725 -0.0139 -0.1053 -0.1752
62354W        W 5266  12.124  24.555  22.641 -0.1811  0.1602  0.2197
62355W        W 5267  11.925  24.949  22.939 -0.0874  0.1065 -0.0622
62356W        W 5268  10.884  22.036  23.614  0.1303  0.1277 -0.2591
62357W        W 5269  12.823  24.226  20.780  0.4392 -0.4629 -0.0389
62358W        W 5270  11.443  25.797  22.515 -0.0598 -0.2592 -0.0465
62359W        W 5271  14.562  24.599  19.803  0.2550  0.0979 -0.4005
62360W        W 5272  14.101  23.431  20.830  0.0986  0.0454 -0.1873
62361W        W 5273  12.347  23.182  20.508  0.1181 -0.1876 -0.2441
62362W        W 5274  11.417  22.827  22.933  0.1462  0.3072 -0.0317
62363W        W 5275  10.393  27.146  24.053 -0.0185 -0.0744  0.0950
62364W        W 5276  13.913  23.244  23.271  0.1192 -0.2388  0.1288
62365W        W 5277  11.435  23.731  22.043  0.1629 -0.0196  0.2885
62366W        W 5278  13.604  23.335  20.987 -0.0086 -0.0207  0.3650
62367W        W 5279  13.144  24.693  19.610  0.0424  0.0100 -0.1680
62368W        W 5280  10.697  24.770  21.715 -0.0370 -0.0913 -0.0140
62369W        W 5281  11.896  24.392  21.044  0.3547  0.3119 -0.0314
62370W        W 5282  12.127  23.664  23.436  0.1002  0.0612 -0.2312
62371W        W 5283  11.693  25.022  23.410 -0.1384 -0.1586 -0.2576
62372W        W 5284  13.514  23.959  22.669  0.2513 -0.1517 -0.1413
62373W        W 5285  12.212  24.094  21.493  0.2211  0.0250  0.0679
62374W        W 5286  14.976  23.757  19.879 -0.1135 -0.2353  0.0078
62375W        W 5287  12.213  24.948  23.433 -0.1402 -0.2012  0.1111
62376W        W 5288  15.225  25.928  22.417 -0.2015 -0.0857 -0.1757
62377W        W 5289  12.123  25.059  22.459 -0.2297 -0.0292 -0.4596
62378W        W 5290  13.951  23.592  22.887 -0.0854 -0.1967  0.1837
62379W        W 5291  11.207  22.874  21.785 -0.1678  0.1654 -0.1397
62380W        W 5292  12.266  24.208  20.174  0.0389  0.1644 -0.2632
62381W        W 5293  11.720  24.169  21.561  0.1586  0.1409  0.3586
62382W        W 5294  13.461  24.213  21.578  0.3207 -0.0599  0.0770
62383W        W 5295  10.419  23.259  22.572  0.2438  0.1111  0.2560
62384W        W 5296  13.624  21.915  20.307  0.4208  0.0921  0.1005
62385W        W 5297  11.731  26.669  22.750  0.2169 -0.2045  0.1932
62386W        W 5298  11.393  24.851  22.239 -0.1655 -0.1331  0.1120
62387W        W 5299  11.472  24.949  25.055  0.0096 -0.0708  0.0403
62388W        W 5300  10.893  21.685  24.536  0.0416 -0.2129 -0.3698
62389W        W 5301  13.295  21.758  22.620  0.4243 -0.1924  0.1823
62390W        W 5302  14.487  24.603  24.905  0.0847 -0.3062 -0.3590
62391W        W 5303  11.067  23.757  25.446  0.0089 -0.2146 -0.0244
62392W        W 5304  13.114  23.834  23.776  0.1564 -0.2610 -0.0990
62393W        W 5305  11.343  21.495  27.186 -0.0706 -0.3007  0.0445
62394W        W 5306  13.283  24.656  26.803 -0.0157 -0.0624  0.2522
62395W        W 5307  13.212  25.717  26.221 -0.0190  0.4130  0.1289
62396W        W 5308  14.925  25.688  23.223  0.1872  0.1130 -0.1750
62397W        W 5309  12.878  23.650  25.692  0.0119  0.0183 -0.2766
62398W        W 5310  11.299  24.762  27.523  0.6354 -0.1209 -0.3534
62399W        W 5311  13.191  21.844  25.294 -0.0100  0.4226 -0.1428
62400W        W 5312  11.515  22.505  24.915 -0.0806  0.1408  0.1018
62401W        W 5313  13.484  24.668  25.865 -0.0948 -0.1596 -0.2905
62402W        W 5314  10.952  22.839  24.138 -0.0115  0.1718  0.1498
62403W        W 5315  11.383  22.109  25.322 -0.2478 -0.0538 -0.2774
62404W        W 5316  11.659  22.480  25.818 -0.0263  0.0922  0.0927
62405W        W 5317  12.432  24.545  24.265 -0.0973 -0.2904 -0.1009
62406W        W 5318  12.257  24.046  25.794 -0.1998 -0.2071 -0.0693
62407W        W 5319  14.565  22.031  26.274  0.2313 -0.1027  0.2393
62408W        W 5320  12.714  24.126  24.495 -0.0771 -0.2143  0.0508
62409W        W 5321  11.266  23.228  24.457  0.2050  0.0376  0.0470
62410W        W 5322  10.532  24.080  25.395 -0.2294 -0.1219 -0.1486
62411W        W 5323  11.503  23.035  26.315  0.2542 -0.1947 -0.1515
62412W        W 5324  13.868  21.810  25.260 -0.0677 -0.2585 -0.0254
62413W        W 5325  13.096  23.886  25.281 -0.1929 -0.6229 -0.3294
62414W        W 5326  12.770  25.642  25.808 -0.2268 -0.0123 -0.1044
62415W        W 5327  13.092  25.698  24.451 -0.0325 -0.0089  0.2148
62416W        W 5328  15.532  23.015  26.155  0.0157 -0.0019 -0.2133
62417W        W 5329  10.919  24.720  25.835 -0.0503  0.0136  0.0913
62418W        W 5330  11.104  25.923  24.568 -0.3764 -0.2124  0.0231
62419W        W 5331  11.348  25.015  25.959 -0.1947 -0.2288 -0.2228
62420W        W 5332  14.581  24.959  26.427  0.3247  0.0443  0.0033
62421W        W 5333  13.883  24.856  27.969 -0.1493  0.0378  0.2350
62422W        W 5334  13.874  25.346  27.022 -0.0529  0.1047  0.0445
62423W        W 5335  11.981  24.536  23.224  0.1568 -0.1237  0.0139
62424W        W 5336  13.581  23.521  26.431 -0.3149  0.1290 -0.2139
62425W        W 5337  12.463  24.616  26.489  0.1182 -0.0588 -0.1648
62426W        W 5338  14.732  24.146  25.337  0.3715 -0.1069  0.0193
62427W        W 5339  12.372  24.625  25.558 -0.0304 -0.2479  0.0700
62428W        W 5340  12.685  23.755  23.592  0.0128  0.1694  0.0114
62429W        W 5341  12.823  23.649  24.676 -0.0985  0.2358  0.2327
62430W        W 5342  12.625  24.384  27.058  0.2192  0.0722  0.0382
62431W        W 5343  12.023  24.560  26.746 -0.1879  0.0854 -0.1107
62432W        W 5344  15.171  23.074  26.956  0.1660 -0.3812  0.0568
62433W        W 5345  11.603  25.345  22.993 -0.2890  0.0140 -0.2030
62434W        W 5346  12.626  23.322  23.902 -0.1069 -0.1261 -0.2512
62435W        W 5347  10.792  23.419  23.526  0.1198  0.1774 -0.0908
62436W        W 5348  13.865  22.682  23.549 -0.0787 -0.1040 -0.0064
62437W        W 5349  12.278  22.201  25.370 -0.0663 -0.0027 -0.0605
62438W        W 5350  12.547  25.296  26.568  0.0026  0.0883  0.2254
62439W        W 5351  10.748  23.955  26.314  0.0720 -0.2377  0.0072
62440W        W 5352  13.873  23.649  27.655  0.1353 -0.1230  0.1567
62441W        W 5353  12.327  24.049  24.116  0.0034  0.0815 -0.1157
62442W        W 5354  12.957  22.424  25.345 -0.1891  0.0387  0.0526
62443W        W 5355  11.137  24.608  26.287  0.0376 -0.0155 -0.1095
62444W        W 5356  11.981  23.651  25.294 -0.1582 -0.3056 -0.3166
62445W        W 5357  14.088  25.056  22.481 -0.0145  0.3579 -0.1484
62446W        W 5358  14.004  25.469  24.122  0.0303  0.3905  0.0343
62447W        W 5359  12.059  25.693  24.552 -0.1337  0.0820  0.0981
62448W        W 5360  10.782  22.468  24.393 -0.0785  0.0286 -0.1160
62449W        W 5361  13.169  26.478  25.939  0.1818 -0.0116  0.0189
62450W        W 5362  10.903  22.158  27.446 -0.3130  0.0104  0.0755
62451W        W 5363  12.034  23.278  26.303 -0.1047  0.1297  0.1060
62452W        W 5364  14.316  24.132  26.601  0.1647  0.1702 -0.0644
62453W        W 5365  12.276  24.047  27.638  0.2887  0.0675 -0.3486
62454W        W 5366  12.727  22.012  25.558 -0.2287 -0.0631 -0.2619
62455W        W 5367  12.654  23.998  25.000 -0.2381 -0.2635  0.1123
62456W        W 5368  13.675  24.901  27.140 -0.1596  0.2017 -0.3497
62457W        W 5369  13.591  25.180  22.824 -0.1027  0.0636  0.1582
62458W        W 5370  12.746  21.911  26.115 -0.1554  0.1132  0.1897
62459W        W 5371  13.408  24.114  25.590  0.0088 -0.1536  0.0244
62460W        W 5372  11.626  24.525  23.609 -0.0985  0.2266 -0.0195
62461W        W 5373  13.566  24.220  24.597 -0.0036  0.0455 -0.0128
62462W        W 5374  14.331  25.711  26.187  0.3383  0.2191  0.0761
62463W        W 5375  13.627  21.945  22.974 -0.1894 -0.0187  0.1380
62464W        W 5376  11.202  25.309  25.466  0.0307 -0.0772  0.0330
62465W        W 5377  11.868  23.167  27.657  0.0107 -0.1379 -0.0994
62466W        W 5378  13.269  23.703  26.999  0.0909  0.1437 -0.1891
62467W        W 5379  10.392  26.327  24.252  0.0021  0.1383  0.0201
62468W        W 5380  11.191  25.508  24.952 -0.1157 -0.0478  0.4485
62469W        W 5381  12.210  23.606  23.935 -0.1148 -0.2410 -0.0884
62470W        W 5382  10.997  21.027  27.627 -0.1270 -0.0343  0.0189
62471W        W 5383  12.628  24.885  26.141 -0.1025 -0.0521  0.0752
62472W        W 5384  14.337  23.975  24.983  0.1191 -0.1585  0.2191
62473W        W 5385  11.728  23.294  27.179 -0.1158  0.1704 -0.2200
62474W        W 5386  13.581  22.395  24.662  0.1907  0.2536 -0.0353
62475W        W 5387  11.877  25.205  23.833  0.0559  0.0654 -0.0722
62476W        W 5388  14.721  26.070  24.737  0.1446  0.0502  0.1764
62477W        W 5389  15.162  22.827  24.792  0.3394 -0.0045 -0.1265
62478W        W 5390  13.458  26.048  24.756  0.1787 -0.0477  0.0362
62479W        W 5391  10.851  21.631  27.385 -0.1220 -0.2627  0.1687
62480W        W 5392  12.509  22.661  25.412 -0.0106 -0.1239  0.2655
62481W        W 5393  11.538  22.379  27.160  0.1723  0.1391  0.2570
62482W        W 5394  10.912  21.399  25.009  0.0674 -0.2228 -0.0202
62483W        W 5395  13.680  22.459  26.638  0.2294 -0.1066  0.0847
62484W        W 5396  10.531  22.701  23.326 -0.1692  0.2746  0.0251
62485W        W 5397  12.964  21.639  24.862  0.2865 -0.0674 -0.0111
62486W        W 5398  11.980  24.406  24.269  0.0886  0.1330  0.3235
62487W        W 5399  11.867  23.857  24.261  0.0799  0.0774  0.1432
62488W        W 5400  13.455  21.117  26.742  0.1916  0.0185  0.1014
62489W        W 5401  10.921  26.287  23.898 -0.0441  0.1744 -0.0203
62490W        W 5402  14.612  26.213  25.230  0.0792  0.1787  0.1445
62491W        W 5403  14.091  27.871  27.445  0.2007 -0.0599  0.1645
62492W        W 5404  11.584  23.382  26.688  0.1804 -0.1823  0.3699
62493W        W 5405  10.915  24.040  25.041  0.2257 -0.1687 -0.1638
62494W        W 5406   9.986  25.125  25.979  0.3691 -0.2079  0.1532
62495W        W 5407  12.927  24.798  24.903 -0.0458  0.0688  0.1986
62496W        W 5408  12.478  22.456  24.264  0.2045 -0.2667 -0.1776
62497W        W 5409  14.566  25.156  24.958 -0.0999  0.1356 -0.0225
62498W        W 5410  12.813  23.736  24.218 -0.2390 -0.0511 -0.0643
62499W        W 5411  11.030  26.366  25.951 -0.0596 -0.0989 -0.0638
62500W        W 5412  11.864  23.571  25.881 -0.1760  0.1369 -0.1275
62501W        W 5413  15.185  24.379  25.355 -0.0167 -0.2719  0.0423
62502W        W 5414  12.534  21.690  25.182  0.5682  0.0499 -0.1830
62503W        W 5415  11.635  22.054  24.804 -0.0857 -0.2867  0.2141
62504W        W 5416  13.282  25.052  24.384 -0.0046  0.1023  0.0561
62505W        W 5417  11.468  23.628  24.139 -0.2542 -0.0501  0.1565
62506W        W 5418  10.596  23.661  25.177  0.1075 -0.2296  0.0855
62507W        W 5419  13.096  25.035  25.793 -0.2941 -0.0881  0.1694
62508W        W 5420  12.977  22.840  25.806 -0.0974  0.1647 -0.1285
62509W        W 5421  11.737  24.809  26.387 -0.0785  0.1491 -0.0464
62510W        W 5422  13.144  22.496  26.719  0.0743  0.1036  0.1229
62511W        W 5423  10.479  23.137  24.368 -0.1192  0.0261 -0.2062
62512W        W 5424  12.388  24.834  26.947  0.1430  0.0987  0.1309
62513W        W 5425  12.629  21.222  24.960  0.0890  0.0763  0.0739
62514W        W 5426  13.436  22.758  25.605 -0.0211 -0.3297 -0.1148
62515W        W 5427  13.579  24.047  26.154 -0.2022  0.0868 -0.1214
62516W        W 5428  13.779  24.023  25.297 -0.0992  0.2810 -0.4221
62517W        W 5429  12.970  22.764  24.450 -0.0401 -0.1651 -0.0777
62518W        W 5430  13.341  22.042  24.011  0.1377 -0.0710 -0.1654
62519W        W 5431  13.691  24.207  28.248 -0.3016 -0.0894 -0.1192
62520W        W 5432  12.575  25.588  24.437  0.2708 -0.0006  0.2830
62521W        W 5433  13.079  24.176  26.212 -0.1835  0.2476 -0.1450
62522W        W 5434  11.797  21.613  23.968  0.0199 -0.3076  0.4540
62523W        W 5435  14.071  25.624  25.622  0.0865 -0.1904 -0.1292
62524W        W 5436  12.129  23.823  26.244 -0.1187 -0.0628 -0.0097
62525W        W 5437  15.725  22.672  27.775  0.3077  0.0261  0.1768
62526W        W 5438  12.428  25.504  25.444  0.1488 -0.1403 -0.4212
62527W        W 5439  13.777  20.244  25.795  0.1651 -0.0680 -0.2805
62528W        W 5440  12.066  23.412  22.843 -0.1625 -0.3247  0.2903
62529W        W 5441  13.015  22.910  25.311  0.3158  0.0553 -0.1300
62530W        W 5442   9.946  25.217  23.718 -0.0239  0.0532  0.4056
62531W        W 5443  15.148  21.260  26.835 -0.0116 -0.1570  0.1499
62532W        W 5444  13.572  22.016  25.603 -0.2443  0.1885 -0.0994
62533W        W 5445  11.873  20.522  26.467  0.0794 -0.0150 -0.3655
62534W        W 5446  15.025  22.026  24.847  0.2034  0.1420 -0.2456
62535W        W 5447  12.440  23.099  25.106  0.1161  0.1909 -0.2976
62536W        W 5448  13.860  24.302  25.739  0.1419  0.1398 -0.0465
62537W        W 5449  11.113  22.668  23.288 -0.0545 -0.2511 -0.0452
62538W        W 5450  13.517  23.663  25.868 -0.1131 -0.1701  0.2386
62539W        W 5451  12.166  25.036  26.343  0.0074  0.3714 -0.2172
62540W        W 5452  10.277  25.160  28.400  0.4098  0.1873  0.1458
62541W        W 5453  14.042  24.662  26.012  0.0563 -0.1154 -0.3242
62542W        W 5454  12.712  22.103  24.455  0.0504 -0.0524  0.0982
62543W        W 5455  12.011  22.652  27.183  0.2387  0.0079  0.0470
62544W        W 5456  13.086  21.934  23.177 -0.2481 -0.3277  0.0922
62545W        W 5457  12.059  24.936  24.288  0.2537 -0.2091 -0.0727
62546W        W 5458  12.835  24.245  23.466  0.0603  0.0418  0.2447
62547W        W 5459  12.411  22.985  26.139 -0.1787 -0.0056  0.0699
62548W        W 5460  11.436  23.962  25.708  0.3073 -0.2022  0.1585
62549W        W 5461  12.640  25.379  23.240  0.2464 -0.0624 -0.1395
62550W        W 5462  14.698  23.501  27.140  0.0211  0.1576 -0.2582
62551W        W 5463  11.876  25.895  23.431 -0.2048  0.0067 -0.0853
62552W        W 5464  14.155  21.584  24.313  0.6800  0.0865 -0.0513
62553W        W 5465  11.945  25.749  26.009 -0.0099  0.1546  0.0056
62554W        W 5466  11.377  23.844  25.047  0.2237 -0.0330  0.1067
62555W        W 5467  10.473  25.531  24.500  0.1231  0.0205  0.2488
62556W        W 5468  12.839  23.447  25.216  0.4415  0.0393 -0.0208
62557W        W 5469  12.561  23.392  23.047  0.0966 -0.0258 -0.2866
62558W        W 5470  12.401  22.633  26.700 -0.2415  0.1614  0.1362
62559W        W 5471  12.287  22.112  26.658  0.0468  0.1096  0.0143
62560W        W 5472  10.479  25.133  26.781 -0.2603 -0.0003 -0.3463
62561W        W 5473  13.484  23.603  25.270  0.2709  0.4194 -0.0008
62562W        W 5474  13.799  22.473  22.104 -0.0538 -0.1789 -0.0117
62563W        W 5475  13.135  24.778  26.315  0.1844  0.2996  0.0320
62564W        W 5476  12.852  24.845  26.802  0.0540 -0.1649 -0.0834
62565W        W 5477   9.831  22.210  23.887  0.0529 -0.0752 -0.4615
62566W        W 5478  14.071  23.727  26.366  0.0106  0.1042  0.0189
62567W        W 5479  12.757  21.200  24.253 -0.2551  0.1412 -0.2802
62568W        W 5480  11.715  25.379  25.178  0.0809 -0.0924  0.0720
62569W        W 5481  12.742  26.114  25.991 -0.2031 -0.0859  0.2504
62570W        W 5482  12.077  23.079  24.100 -0.1650 -0.0959  0.1059
62571W        W 5483  10.217  24.836  24.341  0.1830 -0.1927  0.1679
62572W        W 5484  10.918  23.949  28.041 -0.1161 -0.3952  0.0147
62573W        W 5485  13.689  22.436  25.949  0.5744 -0.0120  0.2290
62574W        W 5486  12.365  23.552  24.928 -0.0936  0.1714 -0.0689
62575W        W 5487  11.117  21.673  26.508 -0.0719 -0.1606  0.0045
62576W        W 5488  12.661  23.921  26.084 -0.2229  0.1903  0.1728
62577W        W 5489  14.535  24.845  25.889 -0.0581 -0.2226  0.0457
62578W        W 5490  12.443  20.779  24.845 -0.0439 -0.0467  0.0084
62579W        W 5491  13.747  24.541  26.777 -0.1214 -0.1518 -0.1757
62580W        W 5492  12.245  21.223  24.549  0.0039  0.3001 -0.3635
62581W        W 5493  14.616  25.296  24.245  0.0266  0.3275  0.5468
62582W        W 5494  13.300  22.639  26.234  0.4398 -0.2583 -0.1559
62583W        W 5495  12.002  24.638  25.222 -0.0790 -0.4461  0.1495
62584W        W 5496  10.986  23.570  24.827  0.0365 -0.0351 -0.2749
62585W        W 5497  11.379  24.905  24.511 -0.3061 -0.0046 -0.1265
62586W        W 5498  14.096  22.279  26.377  0.2320  0.1464 -0.2644
62587W        W 5499  11.060  24.605  24.129 -0.1335 -0.0493  0.1784
62588W        W 5500  10.596  23.856  24.707 -0.0718  0.1172  0.0432
62589W        W 5501  11.596  26.227  25.934  0.1560 -0.0390  0.0507
62590W        W 5502  14.363  21.995  24.098 -0.2742 -0.1059  0.0089
62591W        W 5503  13.520  24.681  24.824 -0.0868  0.1048 -0.1672
62592W        W 5504  13.207  24.046  24.265 -0.2104  0.1460 -0.4171
62593W        W 5505  13.995  22.376  25.458 -0.1139  0.0760 -0.1351
62594W        W 5506  13.569  22.216  25.166 -0.0126  0.0084  0.1181
62595W        W 5507  12.815  22.868  26.874 -0.0479 -0.2331 -0.1313
62596W        W 5508  12.887  23.236  26.072  0.2040  0.2032 -0.0329
62597W        W 5509  14.209  24.689  26.549 -0.0292 -0.0784  0.1247
62598W        W 5510  11.585  22.456  26.334 -0.0654 -0.2174  0.2196
62599W        W 5511  13.980  24.656  28.399  0.0555  0.0740  0.1507
62600W        W 5512  11.710  23.688  27.597 -0.0409 -0.1408  0.0974
62601W        W 5513  11.651  20.513  24.270  0.3703 -0.1686  0.0476
62602W        W 5514  12.145  21.437  24.994 -0.3406  0.4311  0.0012
62603W        W 5515  12.144  25.154  25.337  0.3812 -0.0692 -0.0343
62604W        W 5516  16.144  22.764  25.572  0.1269  0.0448  0.1139
62605W        W 5517  11.628  24.237  25.316  0.1642 -0.2959  0.0621
62606W        W 5518  14.238  23.137  24.888 -0.1674 -0.0528 -0.0460
62607W        W 5519  11.923  24.412  25.672 -0.2976 -0.1474 -0.0563
62608W        W 5520  13.347  23.646  24.678  0.1111  0.1217  0.4621
62609W        W 5521  13.291  24.357  23.815 -0.0499  0.1687  0.0097
62610W        W 5522  11.556  24.571  25.974 -0.1233  0.3311  0.0604
62611W        W 5523  11.887  21.963  26.898 -0.0633  0.1584 -0.1251
62612W        W 5524  14.581  24.629  25.463  0.0536  0.0962  0.1790
62613W        W 5525  12.159  23.004  24.620  0.3129  0.1443  0.2631
62614W        W 5526  13.988  22.016  25.965  0.2265  0.2067 -0.2822
62615W        W 5527  14.352  22.732  26.566  0.3492 -0.2793  0.1772
62616W        W 5528  12.550  23.479  26.427  0.1619  0.0424  0.0751
62617W        W 5529  11.463  22.708  26.798 -0.0902  0.0503 -0.0798
62618W        W 5530  13.598  26.379  27.177 -0.1412 -0.1843 -0.1114
62619W        W 5531  14.015  21.837  24.711 -0.0799  0.0364 -0.2684
62620W        W 5532  14.406  23.399  26.093 -0.0348 -0.2649  0.2174
62621W        W 5533  14.030  23.623  23.739 -0.1077  0.2347  0.0819
62622W        W 5534  12.929  23.101  22.826 -0.0521  0.1814  0.0680
62623W        W 5535  12.101  23.214  25.505  0.0923 -0.1176  0.2057
62624W        W 5536  15.688  22.927  26.687  0.3954  0.2661  0.0659
62625W        W 5537  11.702  21.238  23.580  0.1514 -0.0704 -0.2042
62626W        W 5538  13.474  22.591  27.565 -0.0255  0.2338  0.1011
62627W        W 5539  12.291  25.866  23.125 -0.2255  0.0275 -0.0358
62628W        W 5540  12.543  24.957  25.187  0.0468 -0.1542  0.1552
62629W        W 5541  13.764  24.247  24.135 -0.0156  0.0184 -0.0631
62630W        W 5542  10.554  21.389  25.893  0.2093 -0.1655  0.2913
62631W        W 5543  11.582  25.789  27.247 -0.0389 -0.3547  0.0709
62632W        W 5544  11.329  23.329  23.501 -0.0014 -0.0434 -0.1752
62633W        W 5545  12.449  24.448  23.147 -0.0840  0.0729  0.0009
62634W        W 5546  12.739  24.487  25.182  0.1385  0.1091  0.1866
62635W        W 5547  15.040  24.982  26.684  0.0202  0.4777  0.2149
62636W        W 5548  12.744  21.656  23.794 -0.1869 -0.0642  0.0512
62637W        W 5549  14.706  23.107  26.532  0.2751  0.1684  0.1655
62638W        W 5550  10.257  25.353  24.076 -0.0720 -0.0129 -0.1697
62639W        W 5551  12.098  22.755  25.052 -0.1004 -0.2545 -0.3241
62640W        W 5552  13.246  24.553  27.277 -0.5598  0.1248  0.0381
62641W        W 5553  10.889  24.293  26.634 -0.0507 -0.0861  0.2193
62642W        W 5554  11.517  25.506  24.343 -0.1657 -0.1211 -0.0160
62643W        W 5555  11.795  22.010  25.713  0.0570 -0.0145  0.4116
62644W        W 5556  12.390  23.466  25.918  0.0520 -0.1643  0.1379
62645W        W 5557  13.034  24.522  24.471  0.0819 -0.1219 -0.1231
62646W        W 5558  13.961  22.929  26.824  0.1549  0.0119 -0.4163
62647W        W 5559  12.254  25.287  25.907  0.1833  0.5811 -0.0817
62648W        W 5560  10.903  24.174  25.741 -0.0857  0.3349  0.0777
62649W        W 5561  14.065  24.242  28.665 -0.1505 -0.1919 -0.1097
62650W        W 5562  14.037  23.592  25.177  0.2402  0.2034 -0.1486
62651W        W 5563  11.822  24.664  24.704 -0.1189  0.0394  0.2448
62652W        W 5564  11.064  23.229  26.121  0.0742 -0.1633 -0.0412
62653W        W 5565  12.247  22.774  27.683 -0.2093  0.0402 -0.0738
62654W        W 5566  14.089  25.088  25.053 -0.0785  0.2159  0.3125
62655W        W 5567  11.308  23.887  24.544  0.0504  0.1995  0.0858
62656W        W 5568  11.783  25.272  24.720  0.0630  0.3518  0.1168
62657W        W 5569  12.034  25.479  26.512 -0.0408 -0.1055  0.6002
62658W        W 5570  11.122  23.141  26.727  0.2417  0.1113 -0.0815
62659W        W 5571  11.857  26.169  23.854  0.1951 -0.0737  0.3093
62660W        W 5572  14.849  25.272  22.897  0.0304 -0.0450 -0.0831
62661W        W 5573  13.443  23.573  24.044 -0.0957 -0.2992 -0.1890
62662W        W 5574  13.325  24.049  26.624  0.0626  0.0262 -0.0763
62663W        W 5575  13.436  21.824  23.480 -0.0515  0.0842  0.0065
62664W        W 5576  12.769  25.604  25.123  0.1782 -0.0829  0.0404
62665W        W 5577  10.760  27.008  23.409  0.1483  0.1042 -0.1686
62666W        W 5578  13.355  24.953  23.841 -0.2155  0.0666  0.0396
62667W        W 5579  12.005  26.154  24.747 -0.0264 -0.1251 -0.0688
62668W        W 5580  14.617  25.965  28.175 -0.0391  0.4668  0.1119
62669W        W 5581  13.114  22.538  24.897  0.0152 -0.1831  0.0334
62670W        W 5582  13.920  23.791  24.647 -0.0344  0.0182  0.0696
62671W        W 5583  13.825  22.150  23.439 -0.1549  0.3556  0.0912
62672W        W 5584  14.246  23.351  27.330 -0.1819  0.4965 -0.0130
62673W        W 5585  13.481  22.935  26.547 -0.2722  0.1308 -0.0259
62674W        W 5586  11.649  22.219  24.029 -0.2460 -0.2280  0.2485
62675W        W 5587  13.060  24.157  27.068  0.0571 -0.0192  0.3261
62676W        W 5588  14.921  21.736  25.963 -0.1851  0.0334  0.0535
62677W        W 5589  10.636  25.168  27.662  0.0569  0.0510  0.1679
62678W        W 5590  13.593  24.518  26.303  0.1135 -0.3722  0.0098
62679W        W 5591  10.709  23.555  24.336  0.0800  0.1399 -0.2110
62680W        W 5592  13.296  24.400  25.212  0.3765  0.2580 -0.1908
62681W        W 5593  14.671  21.522  24.387  0.1201 -0.2961 -0.1255
62682W        W 5594  12.601  25.005  24.396  0.3068  0.1323 -0.2328
62683W        W 5595  13.835  24.645  25.181 -0.0174 -0.5239 -0.1134
62684W        W 5596  13.344  25.924  25.320  0.0383  0.0006  0.0380
62685W        W 5597  11.960  25.567  25.553  0.0055 -0.2319 -0.2403
62686W        W 5598  13.753  25.566  26.075 -0.0628  0.3106 -0.1995
62687W        W 5599  11.731  22.622  23.254  0.1970 -0.0244 -0.0012
62688W        W 5600  14.289  21.965  25.587 -0.0257  0.1887 -0.1579
62689W        W 5601  11.170  24.156  26.189  0.0112 -0.1093 -0.1690
62690W        W 5602  15.029  20.546  23.193  0.0359  0.0615  0.1174
62691W        W 5603  11.935  23.233  25.008  0.3736  0.0974  0.0081
62692W        W 5604  12.035  22.771  26.321 -0.2538  0.1837 -0.1155
62693W        W 5605  13.461  24.882  25.386 -0.2601 -0.0149 -0.0188
62694W        W 5606  11.692  24.094  26.144 -0.2294  0.0635  0.0959
62695W        W 5607  12.474  21.658  24.660 -0.0971  0.0320  0.3469
62696W        W 5608  14.021  23.739  25.706 -0.1729  0.1506 -0.2585
62697W        W 5609  13.171  23.920  23.168 -0.1673 -0.0679 -0.3116
62698W        W 5610  14.078  24.206  27.730  0.0927  0.2482  0.0917
62699W        W 5611  11.874  23.014  26.760 -0.0552  0.2291 -0.3030
62700W        W 5612  14.321  23.275  22.942  0.1428 -0.0613  0.1055
62701W        W 5613  12.271  23.923  24.636  0.0256 -0.0665 -0.1139
62702W        W 5614  11.258  23.506  27.016  0.1776 -0.2772 -0.0336
62703W        W 5615  13.831  25.208  27.612 -0.0135  0.0413  0.3520
62704W        W 5616  11.044  22.469  26.881  0.2605 -0.0401 -0.1820
62705W        W 5617  13.860  24.126  23.656  0.1150 -0.0973 -0.0234
62706W        W 5618  13.359  23.109  26.080  0.4211 -0.0298 -0.2107
62707W        W 5619  12.413  26.338  23.847 -0.0499 -0.1114  0.1886
62708W        W 5620  14.101  24.945  25.526  0.2549  0.1849 -0.2234
62709W        W 5621  13.285  25.588  24.917 -0.3193 -0.1624  0.3345
62710W        W 5622  11.258  21.210  28.402 -0.3005  0.0369  0.4353
62711W        W 5623  14.535  24.790  27.315  0.1232 -0.0337  0.0401
62712W        W 5624  14.652  25.417  25.903  0.0272  0.2268 -0.0849
62713W        W 5625  13.159  21.064  23.798  0.3061  0.1925 -0.2125
62714W        W 5626  12.363  23.443  24.404  0.0249  0.2827  0.2027
62715W        W 5627  10.651  25.909  24.284  0.0615  0.0775 -0.1893
62716W        W 5628  13.597  22.757  25.083  0.0620 -0.0958 -0.0151
62717W        W 5629  14.269  21.947  26.755 -0.1669 -0.3366  0.0601
62718W        W 5630  13.875  25.748  22.077  0.0788  0.0707  0.1575
62719W        W 5631  13.813  21.223  24.991  0.0037  0.2429  0.0668
62720W        W 5632  12.144  24.810  25.920  0.0957  0.1206 -0.1579
62721W        W 5633  12.817  24.836  27.356 -0.1914  0.1101 -0.0385
62722W        W 5634  12.261  24.120  23.576 -0.1141  0.0144 -0.1388
62723W        W 5635  12.547  23.836  27.174  0.0364 -0.2169 -0.0837
62724W        W 5636  11.455  24.441  24.433 -0.1389  0.0884  0.1457
62725W        W 5637  12.424  25.896  24.832  0.0831 -0.1284 -0.1087
62726W        W 5638  13.757  25.391  24.719 -0.1802 -0.3365  0.2510
62727W        W 5639  11.765  25.034  25.620 -0.0628 -0.0484 -0.0124
62728W        W 5640  15.116  25.959  25.551  0.2187 -0.1533  0.3214
62729W        W 5641  10.407  23.035  25.242  0.2254 -0.0305 -0.2966
62730W        W 5642  14.354  21.710  25.151  0.1820 -0.0647  0.1004
62731W        W 5643  13.588  21.604  24.421  0.0389 -0.0739 -0.0264
62732W        W 5644  11.751  23.866  26.602 -0.0635  0.1048  0.2275
62733W        W 5645  10.213  23.572  24.295 -0.0612 -0.3973  0.1012
62734W        W 5646  11.663  24.780  24.062 -0.0775 -0.0573 -0.3920
62735W        W 5647  12.095  24.403  26.193 -0.1122  0.0565  0.2056
62736W        W 5648  13.077  22.501  27.196  0.1143 -0.1216 -0.3989
62737W        W 5649  12.250  23.163  27.137  0.1959  0.1141  0.0258
62738W        W 5650  11.660  22.894  25.302  0.0862  0.0805 -0.4257
62739W        W 5651  12.183  22.554  25.911  0.0322 -0.0951  0.0735
62740W        W 5652  13.310  25.420  23.752 -0.0942  0.0684  0.0792
62741W        W 5653  12.092  19.280  25.875 -0.0856 -0.2360  0.0497
62742W        W 5654  10.491  23.322  25.669  0.1117  0.2302  0.0236
62743W        W 5655  13.873  24.810  23.056 -0.1373  0.0436 -0.0759
62744W        W 5656  14.939  24.788  25.094  0.1097  0.0485  0.0959
62745W        W 5657  12.354  22.253  23.846  0.0481  0.1685 -0.3089
62746W        W 5658  14.636  24.696  26.825 -0.0420 -0.0417 -0.0263
62747W        W 5659  10.070  25.864  24.179  0.1214  0.0289  0.2298
62748W        W 5660  11.795  21.784  26.397 -0.3231 -0.1573  0.0822
62749W        W 5661  12.835  22.858  26.365 -0.1606 -0.0071 -0.0290
62750W        W 5662  11.843  22.965  25.922 -0.0215  0.1745  0.3039
62751W        W 5663  13.132  23.680  26.198  0.1312 -0.1470 -0.3532
62752W        W 5664  12.999  25.171  25.334  0.0156 -0.2534 -0.0324
62753W        W 5665  14.337  25.369  23.703  0.0773 -0.0083 -0.0786
62754W        W 5666  12.790  24.298  26.584 -0.0788  0.0252 -0.0831
62755W        W 5667  13.116  25.787  26.864  0.0410  0.0332 -0.2238
62756W        W 5668  12.094  21.494  26.720 -0.1023  0.1161 -0.2089
62757W        W 5669  13.537  23.615  23.551 -0.1774 -0.1553 -0.2167
62758W        W 5670  11.406  25.219  26.478 -0.0319  0.2721 -0.1662
62759W        W 5671  14.562  24.614  22.459  0.2717  0.1485  0.0113
62760W        W 5672  15.219  22.260  23.968 -0.0457 -0.0004 -0.2015
62761W        W 5673  13.054  23.322  24.258  0.0184 -0.0994  0.2782
62762W        W 5674  11.660  21.554  25.976  0.1634  0.0894 -0.0053
62763W        W 5675  12.828  23.190  28.028 -0.0702 -0.0805  0.0106
62764W        W 5676  13.807  23.981  26.702  0.0225  0.2773 -0.0328
62765W        W 5677  11.117  22.753  24.646  0.2017 -0.0484  0.2664
62766W        W 5678  12.285  21.554  24.194 -0.0285 -0.1946  0.1632
62767W        W 5679  13.449  24.332  23.359 -0.1109 -0.0987  0.3516
62768W        W 5680  11.350  24.504  24.936  0.1640 -0.2433  0.2493
62769W        W 5681  12.400  22.803  23.807 -0.0088  0.0971 -0.1705
62770W        W 5682  12.553  24.400  26.033 -0.2461  0.3282 -0.0610
62771W        W 5683  12.851  25.302  24.708 -0.3281 -0.3450 -0.0774
62772W        W 5684  14.213  24.330  25.373  0.0001 -0.0935  0.3809
62773W        W 5685  12.562  23.031  24.256  0.0435 -0.0861  0.0534
62774W        W 5686  13.416  24.596  24.205  0.1643 -0.0283  0.0986
62775W        W 5687  13.831  23.637  29.291 -0.1009  0.0294  0.4853
62776W        W 5688  13.806  25.106  28.391  0.3007 -0.0573 -0.3357
62777W        W 5689  13.040  26.206  26.397 -0.0846 -0.1235  0.1842
62778W        W 5690  14.421  23.744  25.424 -0.0251 -0.2376  0.0276
62779W        W 5691  11.373  21.929  26.190 -0.0237 -0.3371  0.1030
62780W        W 5692  11.831  23.345  24.500  0.3018 -0.0999  0.2970
62781W        W 5693  12.128  24.137  25.192 -0.2997  0.1957  0.0256
62782W        W 5694  14.128  22.218  24.986  0.1285 -0.1930  0.2038
62783W        W 5695  12.761  24.164  25.593  0.1337  0.0195  0.1860
62784W        W 5696  12.450  23.786  25.467 -0.2034  0.1080 -0.1118
62785W        W 5697  11.439  26.131  27.632 -0.2336  0.1303 -0.2099
62786W        W 5698  13.265  25.477  25.622 -0.2428 -0.2911  0.0028
62787W        W 5699  13.077  25.704  30.759  0.1059  0.2876 -0.1053
62788W        W 5700  13.798  23.273  28.103 -0.2827 -0.3625  0.0510
62789W        W 5701  12.365  23.087  26.656 -0.0030  0.0877  0.0963
62790W        W 5702  15.182  22.686  28.609 -0.0198 -0.1613  0.2334
62791W        W 5703  11.485  22.403  28.111 -0.2867  0.4754  0.0308
62792W        W 5704  14.494  24.272  28.330 -0.1143  0.2570 -0.1112
62793W        W 5705  11.949  22.228  30.596 -0.2483  0.3725 -0.1366
62794W        W 5706  13.576  23.930  28.708 -0.2889  0.1519  0.1682
62795W        W 5707  14.760  25.240  30.620 -0.0808  0.4638  0.1078
62796W        W 5708  13.502  23.400  27.356  0.0831 -0.0806  0.0885
62797W        W 5709  12.415  22.853  30.250  0.2524  0.5315 -0.0255
62798W        W 5710  12.750  23.758  28.315 -0.0222  0.0428  0.2510
62799W        W 5711  11.023  21.931  27.034 -0.0265 -0.0681  0.2640
62800W        W 5712  11.302  21.653  30.943  0.1979 -0.1123 -0.2995
62801W        W 5713  14.531  24.212  28.807  0.1335 -0.4566 -0.2919
62802W        W 5714  11.713  24.215  27.525  0.0861  0.1872 -0.3011
62803W        W 5715  13.209  22.601  30.571  0.2560 -0.3068  0.0071
62804W        W 5716  11.952  24.470  29.580  0.0680  0.3528  0.0050
62805W        W 5717  14.091  23.849  28.152  0.2644  0.0380 -0.1985
62806W        W 5718  13.468  23.025  30.272  0.4160  0.0322 -0.3867
62807W        W 5719  10.874  22.551  30.472  0.2303  0.1743  0.1380
62808W        W 5720  13.193  23.656  28.636 -0.0224  0.0791 -0.0852
62809W        W 5721  10.602  22.217  26.983 -0.0018  0.0662  0.0416
62810W        W 5722  11.565  23.319  28.043 -0.4005  0.0393  0.0426
62811W        W 5723  13.537  23.819  29.753  0.1744 -0.1629 -0.1662
62812W        W 5724  14.673  23.314  28.953  0.0858 -0.2013 -0.3238
62813W        W 5725  14.761  23.574  29.434  0.2103  0.2486  0.0139
62814W        W 5726  12.375  23.805  29.300  0.1675  0.0234  0.3079
62815W        W 5727  14.493  25.183  29.706 -0.0780 -0.0263  0.2630
62816W        W 5728  13.122  22.304  28.933  0.0076  0.0914  0.0272
62817W        W 5729  11.144  24.027  29.436 -0.0935 -0.2182  0.2882
62818W        W 5730   9.967  24.075  29.462  0.1464  0.2750  0.1684
62819W        W 5731  12.920  25.392  28.167  0.0025  0.1821 -0.0787
62820W        W 5732  14.921  23.974  27.421  0.2240  0.1650  0.5154
62821W        W 5733  15.140  25.345  31.347  0.0746 -0.1538  0.1149
62822W        W 5734  12.730  25.238  30.115  0.0599 -0.0651  0.2543
62823W        W 5735  11.678  24.838  27.817 -0.0120 -0.1666  0.1476
62824W        W 5736  11.769  23.679  29.891 -0.1169  0.1938  0.0657
62825W        W 5737  12.129  24.536  30.495  0.0447 -0.0880  0.1232
62826W        W 5738  12.404  23.608  29.706 -0.1625 -0.1475  0.1771
62827W        W 5739  13.131  23.225  29.037  0.0816  0.0169  0.0298
62828W        W 5740  12.732  25.135  28.586  0.0396  0.0142  0.0788
62829W        W 5741  11.896  23.414  29.499 -0.1131  0.1613 -0.0216
62830W        W 5742  12.879  24.803  30.899 -0.1442  0.3118 -0.1808
62831W        W 5743  11.098  23.810  30.424  0.0663  0.0512 -0.2001
62832W        W 5744  14.132  23.368  29.629 -0.1424  0.2841  0.1022
62833W        W 5745  13.297  23.934  27.959 -0.2714 -0.1106 -0.2246
62834W        W 5746  13.910  22.790  26.282  0.4874 -0.1628  0.0412
62835W        W 5747  11.196  21.472  27.721  0.2248 -0.1245 -0.0144
62836W        W 5748  14.601  22.617  27.292  0.0736  0.1230 -0.2613
62837W        W 5749  13.612  21.505  28.036 -0.1022  0.3910 -0.2605
62838W        W 5750  11.623  25.282  28.954  0.2503  0.1730  0.0392
62839W        W 5751  11.359  22.868  28.338 -0.1544  0.2181 -0.0929
62840W        W 5752  14.766  24.707  30.793  0.0602 -0.4643  0.0186
62841W        W 5753  12.714  23.371  27.009 -0.0896  0.1103  0.0880
62842W        W 5754  15.625  20.651  29.619  0.0477 -0.0338 -0.2426
62843W        W 5755  11.605  25.708  29.512  0.2197  0.2284  0.1111
62844W        W 5756  11.952  22.941  29.379 -0.0048  0.0740 -0.1788
62845W        W 5757  14.049  24.691  27.430  0.1076  0.1323 -0.0760
62846W        W 5758  15.859  26.333  26.919 -0.0672 -0.1942 -0.0701
62847W        W 5759  15.059  23.295  28.425  0.0635  0.2186 -0.1794
62848W        W 5760  12.088  22.408  29.305 -0.0153 -0.1733  0.2004
62849W        W 5761  10.896  22.892  30.864  0.1521 -0.0873 -0.0082
62850W        W 5762  11.444  23.420  30.281 -0.0678 -0.1558  0.1408
62851W        W 5763  11.936  22.435  26.686 -0.0820 -0.0408  0.0872
62852W        W 5764  15.152  24.570  31.078 -0.2386 -0.0305  0.0716
62853W        W 5765  10.600  24.695  31.721  0.2283  0.0132 -0.1888
62854W        W 5766  15.703  22.836  28.785  0.2478  0.2631 -0.1720
62855W        W 5767  11.857  24.318  30.081  0.3495 -0.1605  0.0094
62856W        W 5768  13.549  25.065  30.322  0.0032  0.0066  0.0015
62857W        W 5769  14.595  24.019  27.009 -0.2889  0.3074 -0.2582
62858W        W 5770  14.516  21.026  28.094 -0.0751  0.0435 -0.2524
62859W        W 5771  13.547  22.488  28.068  0.0174 -0.1973 -0.0672
62860W        W 5772  11.698  24.220  26.994 -0.1607 -0.0702  0.2001
62861W        W 5773  12.121  23.576  27.345 -0.3326  0.0108 -0.3711
62862W        W 5774  13.213  24.524  30.214  0.1013 -0.2298  0.0733
62863W        W 5775  15.366  22.998  27.640 -0.1626 -0.3713  0.0883
62864W        W 5776  11.490  24.941  28.265  0.1082  0.0914  0.1660
62865W        W 5777  11.540  23.085  30.621  0.1482  0.1880  0.1524
62866W        W 5778  14.068  24.691  30.829  0.0206  0.0518  0.0253
62867W        W 5779  12.745  24.919  27.890 -0.0433 -0.0623  0.2191
62868W        W 5780  12.084  24.926  30.151  0.1747 -0.0605  0.1906
62869W        W 5781  11.929  25.023  26.811 -0.0857  0.0515 -0.2704
62870W        W 5782  11.680  22.400  30.120  0.0764  0.1400  0.1713
62871W        W 5783  12.569  24.398  30.735 -0.0039  0.0649  0.1768
62872W        W 5784  15.249  22.612  26.023  0.1602  0.2090  0.1731
62873W        W 5785  10.724  23.014  30.397  0.0878 -0.1570 -0.0585
62874W        W 5786  14.916  21.850  28.052  0.3826 -0.2569 -0.0342
62875W        W 5787  12.383  24.625  28.090  0.0087  0.1217  0.1598
62876W        W 5788  16.169  25.724  28.981  0.0371  0.1538  0.0960
62877W        W 5789  14.769  22.252  26.686  0.2320  0.0466  0.2836
62878W        W 5790  15.540  23.620  26.874 -0.2230  0.1978 -0.0896
62879W        W 5791  10.887  23.545  29.558  0.1719 -0.0313  0.1949
62880W        W 5792  10.229  22.725  27.876  0.0462 -0.1821  0.2066
62881W        W 5793  10.940  21.567  31.468 -0.4157  0.1260  0.2800
62882W        W 5794  11.072  21.881  30.027 -0.0786  0.0069  0.1915
62883W        W 5795  14.972  24.124  28.079 -0.0474  0.0093  0.0390
62884W        W 5796  11.557  21.533  28.206 -0.2657  0.1407 -0.0794
62885W        W 5797  14.450  22.555  27.925  0.3169  0.1808 -0.2004
62886W        W 5798  12.244  23.572  28.720  0.1016 -0.0451 -0.1070
62887W        W 5799  11.737  25.431  26.948  0.2956 -0.2796  0.1733
62888W        W 5800  13.073  22.012  29.672  0.0120 -0.0996 -0.2166
62889W        W 5801  14.562  24.044  27.799  0.0422  0.0664  0.0427
62890W        W 5802  15.695  25.100  28.416 -0.0862 -0.2872 -0.2816
62891W        W 5803  14.845  24.999  27.719 -0.2126 -0.3013  0.2313
62892W        W 5804  10.956  22.643  31.297 -0.1328  0.2781  0.0338
62893W        W 5805  11.307  22.422  28.589  0.1998 -0.0789 -0.2545
62894W        W 5806  11.272  24.812  28.988 -0.0461  0.3129 -0.1294
62895W        W 5807  12.667  24.038  30.238  0.0832 -0.1181 -0.0376
62896W        W 5808  12.407  21.927  27.147  0.0619  0.2983 -0.0862
62897W        W 5809  14.570  25.949  28.677  0.0685 -0.0796 -0.0710
62898W        W 5810  13.855  23.043  27.300 -0.1659  0.0146  0.1011
62899W        W 5811  12.311  24.480  29.946  0.3919 -0.1044 -0.1497
62900W        W 5812  13.374  21.918  28.856 -0.0229 -0.0211  0.0592
62901W        W 5813  17.404  24.538  28.606 -0.1912 -0.2720  0.0945
62902W        W 5814  12.906  22.073  27.882  0.1166  0.2190  0.0366
62903W        W 5815  11.388  22.111  26.710  0.3213 -0.1023 -0.0869
62904W        W 5816  14.220  25.668  28.433  0.0740  0.3322  0.2363
62905W        W 5817  11.882  23.647  28.293  0.1182 -0.0619  0.0054
62906W        W 5818  11.764  23.096  28.492  0.0516 -0.0928 -0.0455
62907W        W 5819  13.274  23.666  29.177  0.0599 -0.2211  0.0982
62908W        W 5820  13.603  20.512  28.097  0.2155 -0.1057  0.0342
62909W        W 5821  11.525  24.052  31.174  0.0762  0.1212 -0.0014
62910W        W 5822  13.116  22.655  30.083 -0.3324  0.0486  0.1331
62911W        W 5823  11.051  23.407  27.910  0.1336 -0.1853  0.1581
62912W        W 5824  11.264  25.179  30.539  0.0575  0.3081  0.1417
62913W        W 5825  13.162  22.805  28.123 -0.0206  0.3219 -0.5662
62914W        W 5826  15.754  22.599  25.859  0.0352 -0.3310  0.0954
62915W        W 5827  12.142  22.907  31.684 -0.0455 -0.2225 -0.0570
62916W        W 5828  13.438  23.140  28.409  0.2396  0.1566 -0.2709
62917W        W 5829  14.242  23.227  26.538  0.0312  0.0746  0.0882
62918W        W 5830  13.826  22.788  28.327 -0.1079  0.3635 -0.1052
62919W        W 5831  11.530  23.597  31.559 -0.1550 -0.0467 -0.1533
62920W        W 5832  12.619  23.699  27.676 -0.4979 -0.0464 -0.1944
62921W        W 5833  11.858  23.242  31.396  0.0622 -0.1025  0.3503
62922W        W 5834  12.914  22.963  27.434 -0.0869  0.2375  0.2970
62923W        W 5835  14.644  25.187  26.910  0.0874  0.2564  0.2680
62924W        W 5836  11.727  23.154  29.014  0.1563 -0.2878 -0.3671
62925W        W 5837  14.042  24.546  31.547  0.1242  0.0300  0.1589
62926W        W 5838  14.601  24.794  28.625 -0.0619  0.0811 -0.2555
62927W        W 5839  13.329  21.725  29.364  0.1532 -0.0611  0.0697
62928W        W 5840  12.399  23.356  28.323 -0.1530  0.2372  0.0523
62929W        W 5841  12.924  22.424  29.386  0.0124  0.1431 -0.0540
62930W        W 5842  11.954  25.439  27.482 -0.0673  0.1363  0.1007
62931W        W 5843  14.821  22.675  28.948  0.0465 -0.0806 -0.0737
62932W        W 5844  14.345  21.754  28.730 -0.1694  0.2564 -0.1361
62933W        W 5845  12.684  22.468  30.389  0.0076  0.1320  0.1142
62934W        W 5846  13.853  24.591  30.267  0.0583  0.4026  0.1242
62935W        W 5847  16.033  23.015  27.495  0.2988  0.1201  0.1856
62936W        W 5848  13.293  23.393  28.019  0.0149  0.0389  0.0639
62937W        W 5849  11.664  21.468  27.679 -0.2533 -0.1447  0.3894
62938W        W 5850  12.319  23.287  29.202  0.1447  0.0818  0.2299
62939W        W 5851  12.019  24.005  30.710 -0.1443  0.0452 -0.0913
62940W        W 5852  12.245  25.354  30.315 -0.1892 -0.1742 -0.1432
62941W        W 5853  13.989  23.666  29.942  0.0098  0.0847  0.0197
62942W        W 5854  15.542  24.502  28.735 -0.2727 -0.3111  0.0575
62943W        W 5855  13.499  22.338  29.703  0.0191  0.1922  0.0335
62944W        W 5856  12.764  22.664  27.871  0.1407 -0.2438 -0.0867
62945W        W 5857  13.112  25.535  28.666  0.0332  0.4224 -0.0965
62946W        W 5858  12.148  24.076  26.836  0.0834 -0.2986  0.0321
62947W        W 5859  11.724  21.950  29.395 -0.2323 -0.0795  0.0286
62948W        W 5860  12.658  24.185  29.176 -0.0348 -0.2674  0.2719
62949W        W 5861  13.998  23.237  28.544 -0.0528  0.0405 -0.0836
62950W        W 5862  12.457  24.555  29.464 -0.2257 -0.3353  0.2584
62951W        W 5863  12.735  25.743  27.393 -0.2059  0.3406  0.2457
62952W        W 5864  14.301  21.431  29.297  0.2137 -0.2187 -0.2109
62953W        W 5865  11.557  25.903  28.561 -0.1073 -0.0388 -0.2218
62954W        W 5866  11.341  23.305  27.514 -0.2144  0.2404 -0.0418
62955W        W 5867   9.818  23.154  28.341  0.0209 -0.1022 -0.0309
62956W        W 5868  14.473  22.998  27.654 -0.0533  0.0026  0.1875
62957W        W 5869  14.197  24.486  26.979 -0.1199  0.2487  0.0345
62958W        W 5870  11.043  23.170  29.176 -0.3408  0.2143  0.0173
62959W        W 5871  11.925  22.815  30.441 -0.0402 -0.3162  0.0598
62960W        W 5872  11.679  23.919  30.326  0.1315  0.2574  0.0198
62961W        W 5873  13.894  24.059  29.065 -0.1779 -0.2695  0.0255
62962W        W 5874  14.349  23.801  27.418  0.0115 -0.0231  0.1349
62963W        W 5875  14.307  23.456  27.876 -0.0421 -0.2630 -0.1865
62964W        W 5876  11.505  25.098  31.485  0.2363 -0.1914  0.0497
62965W        W 5877  10.954  21.527  28.127  0.0620  0.2792 -0.2204
62966W        W 5878  14.344  23.819  29.219 -0.2631 -0.1856  0.1594
62967W        W 5879  13.636  23.669  28.312  0.1949  0.1090 -0.0486
62968W        W 5880  11.084  25.276  28.246  0.2215 -0.2861 -0.2172
62969W        W 5881  13.544  24.175  29.361  0.1561 -0.2613 -0.0456
62970W        W 5882  12.514  23.200  27.638  0.1004  0.1637  0.0767
62971W        W 5883  11.953  23.247  30.078  0.0793 -0.1304  0.0815
62972W        W 5884  11.492  21.950   0.325  0.0588  0.1288  0.0554
62973W        W 5885  14.772  22.900  28.398 -0.0020  0.3978  0.0395
62974W        W 5886  11.251  22.385  29.224  0.1744  0.0348  0.2030
62975W        W 5887  12.224  21.374  28.157  0.2414  0.0447 -0.1375
62976W        W 5888  13.906  22.735  29.496  0.1113 -0.1431  0.0121
62977W        W 5889  16.272  24.473  29.363 -0.0517  0.1007  0.0579
62978W        W 5890  15.330  22.821  28.095  0.2446 -0.1158  0.2409
62979W        W 5891  11.846  23.703  31.109  0.0294  0.0443 -0.0812
62980W        W 5892  12.162  22.277  28.558  0.2162  0.0978  0.2954
62981W        W 5893  14.711  26.731  27.798  0.0961  0.0924  0.2001
62982W        W 5894  12.777  23.106  29.949  0.1415  0.2217  0.1142
62983W        W 5895  12.048  24.457  27.765 -0.0272 -0.1103  0.0242
62984W        W 5896  11.374  21.950  27.416  0.2591 -0.1658  0.0627
62985W        W 5897  11.876  23.985  27.965  0.2791  0.0811  0.2411
62986W        W 5898  12.553  22.178  28.239 -0.1550 -0.1204 -0.0177
62987W        W 5899  10.414  23.312  30.059  0.2471  0.3821 -0.0879
62988W        W 5900  12.001  24.032  28.606 -0.1089  0.0936  0.2632
62989W        W 5901  11.627  24.960  29.435 -0.2474  0.0879 -0.1137
62990W        W 5902  13.342  22.111  26.961  0.0718 -0.1194  0.1615
62991W        W 5903  13.342  24.060  27.466  0.2406 -0.2478 -0.1755
62992W        W 5904  13.334  22.692  28.640 -0.0127 -0.0733  0.3092
62993W        W 5905  14.681  23.103  29.893 -0.1224  0.0382  0.1460
62994W        W 5906  14.842  23.570  27.636 -0.2050  0.0057  0.1944
62995W        W 5907  13.778  22.905  28.902 -0.2160  0.1842 -0.1044
62996W        W 5908  11.612  22.788  31.506  0.0731 -0.1855  0.0128
62997W        W 5909  14.026  24.767  29.440  0.5229  0.0064 -0.1182
62998W        W 5910  10.606  23.640  30.500 -0.0651 -0.2146 -0.1597
62999W        W 5911  13.493  26.194  30.839  0.5126 -0.1141  0.1592
63000W        W 5912  12.642  23.833  31.417 -0.0157  0.1193 -0.1211
63001W        W 5913  14.521  22.520  28.461 -0.0858  0.1621 -0.0597
63002W        W 5914  11.220  22.912  27.847  0.1323  0.1462 -0.2196
63003W        W 5915  14.086  23.994  29.623  0.0698  0.2397  0.2097
63004W        W 5916  16.306  23.392  28.992  0.0287 -0.1831  0.2361
63005W        W 5917  12.769  22.177  26.819  0.0107 -0.0467  0.1793
63006W        W 5918  14.195  23.157  29.125 -0.1175  0.1007 -0.0024
63007W        W 5919  12.304  22.609  30.783 -0.0318  0.3055  0.2233
63008W        W 5920  15.680  23.309  29.036  0.2390  0.3268 -0.1997
63009W        W 5921  13.806  23.782  27.159  0.3529 -0.0529  0.3118
63010W        W 5922  12.293  23.122  29.742 -0.2024  0.0893 -0.3005
63011W        W 5923  13.331  21.291  30.833  0.0403 -0.0622  0.0119
63012W        W 5924  14.044  23.692  28.790 -0.0222 -0.1501 -0.0317
63013W        W 5925  14.556  22.193  28.875 -0.0341 -0.2536 -0.2457
63014W        W 5926  14.716  21.618  30.579  0.1804 -0.1672 -0.2848
63015W        W 5927  14.326  22.985  28.127  0.2375  0.1623 -0.0637
63016W        W 5928  12.707  24.131   0.023  0.0603  0.2081  0.0613
63017W        W 5929  12.459  22.091  30.626  0.2246  0.0397  0.0456
63018W        W 5930  14.925  24.895  29.847 -0.0975  0.1404 -0.0034
63019W        W 5931  14.950  23.525  26.213  0.2073 -0.0167  0.2379
63020W        W 5932  12.907  23.666  29.850  0.1203 -0.5510 -0.4705
63021W        W 5933  15.121  22.641  27.220 -0.1427  0.0205  0.0270
63022W        W 5934  13.693  23.375  26.884  0.0598 -0.2454  0.1100
63023W        W 5935  12.931  22.953  29.396  0.1846  0.1318 -0.0379
63024W        W 5936  15.162  23.700  31.774 -0.0406  0.4936 -0.1938
63025W        W 5937  12.277  22.823  28.244 -0.0540 -0.1281 -0.1194
63026W        W 5938  14.246  22.841  29.861  0.0431 -0.2511  0.1401
63027W        W 5939  14.226  24.691  28.920  0.0345  0.0606 -0.0498
63028W        W 5940  16.482  24.179  28.425  0.1744 -0.1859  0.0085
63029W        W 5941  14.534  23.772  28.606 -0.0374  0.0938 -0.0137
63030W        W 5942  11.463  23.919  28.969  0.0018  0.3938  0.1991
63031W        W 5943  11.702  25.285  30.343 -0.1101 -0.1777 -0.0144
63032W        W 5944  10.851  22.630  29.195 -0.0005  0.3475  0.0141
63033W        W 5945  12.887  23.725  26.702 -0.0570  0.3644  0.2088
63034W        W 5946  14.024  25.315  30.578 -0.2384 -0.4140  0.2245
63035W        W 5947  14.540  23.578  29.969 -0.3270 -0.0203  0.1349
63036W        W 5948  13.536  21.629  26.550  0.1260 -0.0476  0.0299
63037W        W 5949  14.177  22.577  29.071  0.0227  0.3099 -0.3687
63038W        W 5950  11.562  24.740  29.840  0.0124  0.0863  0.1682
63039W        W 5951  15.001  22.209  28.787  0.0491 -0.1534 -0.0680
63040W        W 5952  11.302  26.130  28.172 -0.1085  0.0695  0.2504
63041W        W 5953  11.052  24.204  30.677  0.1570 -0.2603 -0.1171
63042W        W 5954  12.610  24.056  29.690  0.0768 -0.1613 -0.2193
63043W        W 5955  14.172  20.714  28.240 -0.3659 -0.2071  0.2406
63044W        W 5956  14.116  22.518  27.524  0.0607 -0.3058  0.1073
63045W        W 5957  12.821  24.114  27.512  0.0887  0.1497 -0.1204
63046W        W 5958  13.626  23.161  29.374 -0.2997 -0.3045  0.0715
63047W        W 5959  12.169  24.304  29.169  0.0143 -0.1909  0.3184
63048W        W 5960  11.410  22.553  30.520 -0.0844  0.1934 -0.0900
63049W        W 5961  13.138  24.081  30.033  0.1374  0.0969 -0.2202
63050W        W 5962  15.881  23.991  27.828 -0.1963 -0.2237  0.0122
63051W        W 5963  11.468  24.188  29.758 -0.3322  0.1272 -0.1651
63052W        W 5964   9.804  22.573  30.336 -0.1972 -0.1807  0.5753
63053W        W 5965  14.339  22.308  31.290 -0.0994 -0.0975 -0.1014
63054W        W 5966  15.719  25.002  29.358  0.1584  0.1058 -0.0454
63055W        W 5967  12.201  22.704  28.875 -0.3989  0.0394  0.0217
63056W        W 5968  14.387  24.302  27.410 -0.0207  0.3563  0.2796
63057W        W 5969  10.602  23.855  31.253  0.0036 -0.0529  0.1697
63058W        W 5970  11.008  23.687  29.021  0.1215  0.0240 -0.0552
63059W        W 5971  12.525  24.499  27.640  0.2267  0.1234 -0.0394
63060W        W 5972  14.896  23.063  27.379  0.0398 -0.2057 -0.3415
63061W        W 5973  14.224  23.671  26.857 -0.1316 -0.0861 -0.2241
63062W        W 5974  14.616  25.827  29.861  0.1016 -0.0641  0.2428
63063W        W 5975  11.401  23.837  27.959 -0.3804  0.1131 -0.2572
63064W        W 5976  11.283  23.795  29.945  0.0104  0.1626 -0.1142
63065W        W 5977  11.109  24.250  27.693 -0.1733 -0.0086  0.0077
63066W        W 5978  15.291  25.016  28.036 -0.0250  0.0922 -0.0224
63067W        W 5979  11.164  26.012  30.082 -0.2941  0.0705 -0.0894
63068W        W 5980  15.486  25.662  29.736 -0.1044 -0.1906 -0.2798
63069W        W 5981  13.591  21.537  25.850 -0.0548 -0.1412 -0.2761
63070W        W 5982  16.533  23.650  28.568  0.0585 -0.3676 -0.1630
63071W        W 5983  15.607  23.202  27.219  0.1799 -0.0737 -0.0480
63072W        W 5984  14.438  24.270  31.013 -0.1741  0.1809  0.2381
63073W        W 5985  12.012  22.694  29.856 -0.0022  0.1279  0.1335
63074W        W 5986  12.142  24.440  27.234  0.1240 -0.0937  0.0354
63075W        W 5987  11.116  22.388  30.918  0.1174  0.1527  0.1926
63076W        W 5988  14.857  20.502  29.933  0.0187  0.1060 -0.1443
63077W        W 5989  11.381  25.174  29.860 -0.2307 -0.1324  0.1000
63078W        W 5990  13.304  25.116  28.469  0.0633 -0.4371  0.3216
63079W        W 5991  10.391  22.034  27.383 -0.0053  0.0538  0.0675
63080W        W 5992  11.295  23.309  29.760  0.0378  0.1731 -0.2499
63081W        W 5993  15.120  20.472  29.469  0.0281 -0.2819 -0.1802
63082W        W 5994  13.099  23.289  26.551  0.1740 -0.1643  0.5661
63083W        W 5995  12.945  22.761  28.947  0.1260 -0.2384 -0.3149
63084W        W 5996  13.316  25.582  27.297 -0.0467  0.2298 -0.1997
63085W        W 5997  11.473  24.462  29.313  0.0223 -0.0875  0.0461
63086W        W 5998  12.531  23.079  28.778 -0.1091  0.0784 -0.0288
63087W        W 5999  12.467  21.566  29.046  0.0596 -0.1574  0.2472
63088W        W 6000  16.327  22.548  29.393  0.1276 -0.0766 -0.2268
63089W        W 6001  11.895  23.442  30.649  0.0867  0.1648  0.2230
63090W        W 6002  15.167  22.272  30.158 -0.1067 -0.1109 -0.1558
63091W        W 6003  12.153  23.560  26.841  0.0050  0.2066 -0.2623
63092W        W 6004  16.720  23.582  29.108 -0.1531 -0.1387  0.0660
63093W        W 6005  15.222  23.693  29.082 -0.3299 -0.2867 -0.1297
63094W        W 6006  13.382  22.844  29.669  0.1822 -0.0686  0.1724
63095W        W 6007  13.040  23.470  27.483 -0.0385  0.1308  0.1097
63096W        W 6008  15.048  24.271  29.615 -0.3139 -0.0285 -0.1001
63097W        W 6009  13.374  23.029  27.675 -0.0360 -0.3971 -0.1881
63098W        W 6010  14.213  24.581  29.889 -0.1008 -0.0419 -0.1610
63099W        W 6011  11.788  22.479  27.624 -0.1161 -0.0546  0.1963
63100W        W 6012  13.279  22.073  27.538 -0.1183  0.1749 -0.1783
63101W        W 6013  12.767  23.706  28.837  0.2529  0.0544 -0.2742
63102W        W 6014  12.182  23.906  30.245  0.0072 -0.0732 -0.1507
63103W        W 6015  12.401  23.664  30.662  0.1521 -0.0573  0.0477
63104W        W 6016  12.485  22.191  29.470  0.1027  0.0931 -0.1614
63105W        W 6017  14.900  24.419  27.133  0.0350  0.0053 -0.3340
63106W        W 6018  14.542  22.835  29.424  0.0698  0.0712 -0.0333
63107W        W 6019  13.157  25.263  26.652  0.1121  0.1829  0.5514
63108W        W 6020  16.352  23.878  27.324 -0.1944 -0.1742 -0.1090
63109W        W 6021  14.379  24.535  30.381  0.1711  0.0929 -0.1238
63110W        W 6022  10.619  23.000  28.852  0.0913  0.2364  0.1894
63111W        W 6023  13.571  24.973  28.883  0.0645  0.0232 -0.1025
63112W        W 6024  14.081  25.689  28.894 -0.0706 -0.0416 -0.0363
63113W        W 6025  14.064  21.998  27.693  0.0008  0.0327  0.0565
63114W        W 6026  11.956  22.325  28.031 -0.0287  0.3923  0.1246
63115W        W 6027  11.999  25.398  28.109 -0.0642  0.3432  0.0127
63116W        W 6028  16.695  23.015  29.117  0.0695  0.2048  0.0558
63117W        W 6029  12.498  22.747  29.247 -0.1118  0.0576  0.1059
63118W        W 6030  13.632  24.440  27.729  0.4660 -0.1742 -0.1264
63119W        W 6031  14.387  22.919  28.731  0.0612 -0.0868 -0.0606
63120W        W 6032  13.155  24.939  29.870 -0.0323 -0.3167  0.1542
63121W        W 6033  10.891  25.223  29.744  0.0487  0.0223  0.0881
63122W        W 6034  11.571  25.136  27.421 -0.0888  0.0808  0.0622
63123W        W 6035  13.325  23.517  30.192 -0.2378  0.0939  0.1768
63124W        W 6036  11.767  24.023  29.338 -0.1690  0.3946  0.0028
63125W        W 6037  13.467  24.531  28.683  0.2606  0.1139  0.2858
63126W        W 6038  15.281  24.572  29.975 -0.0244  0.1145  0.0176
63127W        W 6039  14.025  22.383  28.076  0.0252 -0.0096 -0.0898
63128W        W 6040  15.472  24.078  28.318  0.1624  0.0526  0.1762
63129W        W 6041  14.054  21.215  28.273  0.0517 -0.0347 -0.1064
63130W        W 6042  14.956  22.385  28.155 -0.1482  0.4482 -0.0621
63131W        W 6043  14.616  22.041  27.661  0.1486  0.0785 -0.1376
63132W        W 6044  11.364  22.962  31.066  0.2637  0.2161  0.3095
63133W        W 6045  11.537  22.853  27.358  0.4213  0.1944  0.0690
63134W        W 6046  12.643  22.515  27.398  0.1953  0.1620  0.1040
63135W        W 6047  11.669  24.380  28.867 -0.1108 -0.0615  0.0297
63136W        W 6048  13.892  21.970  30.363 -0.1819  0.0233 -0.0494
63137W        W 6049  11.708  21.652  30.652  0.2472  0.1618 -0.0841
63138W        W 6050  12.304  23.848  28.176 -0.2551 -0.1287  0.0833
63139W        W 6051  11.702  22.652  29.021  0.1690 -0.1028  0.1114
63140W        W 6052  14.986  24.915  25.588  0.0935 -0.0930  0.3483
63141W        W 6053  11.618  22.899  29.986  0.0998  0.0846 -0.0090
63142W        W 6054  10.418  23.163  29.480  0.1074 -0.0957  0.0556
63143W        W 6055  14.774  24.626  29.079  0.3514 -0.2043 -0.0483
63144W        W 6056  15.109  25.902  27.234 -0.0863 -0.2932 -0.2833
63145W        W 6057  13.838  22.898  27.781  0.0574  0.1348 -0.1481
63146W        W 6058  16.599  24.859  30.619  0.0020 -0.2877  0.1082
63147W        W 6059   9.512  25.585  26.651 -0.0481 -0.0929 -0.0998
63148W        W 6060  12.393  22.940  31.209  0.3101 -0.1309 -0.5901
63149W        W 6061  12.985  23.194  28.534 -0.2610 -0.0495  0.0801
63150W        W 6062  10.487  22.290  28.007 -0.0540  0.3180 -0.0524
63151W        W 6063  15.563  23.960  28.876  0.0261 -0.2249 -0.1906
63152W        W 6064  12.692  24.213  28.011 -0.0244 -0.0281 -0.0033
63153W        W 6065  14.296  24.552  27.942  0.0635 -0.1092 -0.0106
63154W        W 6066  14.639  24.602  29.587  0.2367  0.3007 -0.2270
63155W        W 6067  12.923  24.801  29.436 -0.0451  0.0591 -0.0522
63156W        W 6068  10.764  22.220  31.808 -0.1800 -0.3226 -0.1289
63157W        W 6069  15.904  23.726  28.663 -0.0476 -0.0663  0.2926
63158W        W 6070  12.740  24.581  30.307  0.3523 -0.0367  0.0590
63159W        W 6071  15.825  22.755  28.277 -0.2768 -0.2484 -0.2145
63160W        W 6072  14.999  21.352  29.334  0.0856 -0.1270 -0.1690
63161W        W 6073  14.547  23.311  28.406  0.0863  0.2118 -0.3401
63162W        W 6074  11.790  22.703   0.575  0.0863  0.3005  0.1144
63163W        W 6075  12.557  24.883  29.841  0.1674 -0.1164  0.1819
63164W        W 6076  14.963  25.015  29.381  0.0467  0.1287 -0.0620
63165W        W 6077  11.612  22.160  28.931 -0.0856  0.0621  0.0598
63166W        W 6078  13.961  21.800  28.312  0.2871 -0.1410  0.1240
63167W        W 6079  13.604  23.384  28.881 -0.1131  0.6529 -0.0015
63168W        W 6080  12.118  24.037  29.782 -0.1911 -0.2260  0.0301
63169W        W 6081  14.925  22.636  27.752 -0.2014  0.0530 -0.1781
63170W        W 6082  13.839  23.328  30.451  0.3460 -0.1228 -0.1691
63171W        W 6083  14.291  24.326  29.319  0.1079 -0.1977 -0.0949
63172W        W 6084  14.608  22.971  30.491 -0.1763 -0.2405 -0.1398
63173W        W 6085  12.776  22.568  28.495 -0.0562 -0.3064  0.1444
63174W        W 6086  14.655  23.708  28.144  0.4980 -0.0539  0.3104
63175W        W 6087  12.922  25.353  29.590 -0.0864 -0.0711 -0.5713
63176W        W 6088  14.670  25.484  31.315 -0.0657  0.2860 -0.1463
63177W        W 6089  11.996  24.897  28.169 -0.2010  0.0720 -0.2619
63178W        W 6090  15.645  25.689  29.043  0.1761  0.0402  0.2234
63179W        W 6091  10.929  21.373  29.965  0.1503 -0.0295 -0.3124
63180W        W 6092  11.766  22.846  28.024  0.0516 -0.0677  0.1069
63181W        W 6093  13.478  24.476  29.819 -0.2780 -0.0967 -0.4295
63182W        W 6094  13.666  24.098  30.156  0.1489  0.3322 -0.0499
63183W        W 6095  11.457  22.918  29.428 -0.0998  0.1837 -0.0112
63184W        W 6096  14.782  22.703  26.832 -0.3389  0.1360  0.0775
63185W        W 6097  12.589  24.664  28.927  0.1577 -0.0760 -0.1196
63186W        W 6098  12.441  23.441  30.186 -0.0324 -0.0952 -0.0145
63187W        W 6099  13.254  22.104  31.892 -0.1988  0.0092  0.1533
63188W        W 6100  13.660  23.355  30.928 -0.3432  0.0769  0.1899
63189W        W 6101  11.661  22.555  30.951 -0.1302 -0.0990 -0.2580
63190W        W 6102  13.521  23.427   0.630 -0.5170 -0.1309 -0.0545
63191W        W 6103  12.618  24.392  31.222  0.1006  0.1260  0.1525
63192W        W 6104  12.321  23.179  30.674 -0.0401 -0.2641 -0.0513
63193W        W 6105  13.943  21.983  31.074  0.2240  0.1897 -0.3134
63194W        W 6106  13.648  22.869  30.780 -0.1377  0.0654 -0.0311
63195W        W 6107  14.900  22.642  30.033 -0.2649 -0.0830 -0.0992
63196W        W 6108  13.673  27.006  31.213  0.0660 -0.4070 -0.1081
63197W        W 6109  12.893  23.086  30.410 -0.0292  0.2675 -0.2417
63198W        W 6110  13.384  22.631  29.216 -0.2462  0.0293 -0.0487
63199W        W 6111  13.262  23.188  30.686 -0.0369  0.1670 -0.1417
63200W        W 6112  12.328  24.152  31.605  0.3492 -0.1994  0.3007
63201W        W 6113  15.227  23.439  31.183  0.3819 -0.1821  0.3101
63202W        W 6114  11.407  25.792  30.938 -0.1307 -0.3393 -0.0221
63203W        W 6115  12.231  24.049  31.122 -0.1882  0.0500 -0.1668
63204W        W 6116  13.145  22.602  31.107 -0.1445 -0.2615 -0.0478
63205W        W 6117  11.681  22.247   0.757  0.0087  0.1394 -0.0626
63206W        W 6118  13.554  22.832   0.120 -0.0111 -0.1611  0.1074
63207W        W 6119  12.858  21.816  30.477  0.1689 -0.0151 -0.1699
63208W        W 6120  11.179  26.247  29.673  0.4067  0.0056  0.2890
63209W        W 6121  15.942  21.123  29.793 -0.2555  0.0103  0.1812
63210W        W 6122  14.143  23.699  30.939  0.2128  0.1544  0.0314
63211W        W 6123  13.579  22.367  30.332 -0.1902  0.3872  0.1642
63212W        W 6124  11.510  22.343  31.361  0.1200  0.2773  0.1534
63213W        W 6125  11.465  23.750  30.709 -0.1634 -0.1011 -0.0826
63214W        W 6126  11.324  25.618  30.375 -0.0883 -0.0731  0.0844
63215W        W 6127  11.091  23.924   0.149 -0.1610 -0.2063  0.0676
63216W        W 6128  12.745  23.929  30.943 -0.0170 -0.1850  0.0379
63217W        W 6129  14.150  23.234  31.137  0.0186 -0.3852 -0.1783
63218W        W 6130  15.123  22.776  29.651 -0.1466  0.2529  0.0313
63219W        W 6131  14.491  23.215  31.674 -0.2315 -0.2740 -0.1927
63220W        W 6132  14.138  23.033  30.651 -0.0470 -0.0367 -0.0085
63221W        W 6133  12.852  21.323  30.854  0.0658 -0.2065  0.2263
63222W        W 6134  11.213  22.647  31.912  0.1757 -0.1319 -0.2096
63223W        W 6135  12.100  23.705  31.552  0.3610 -0.0023 -0.3391
63224W        W 6136  13.609  25.125  31.479 -0.3215 -0.1877 -0.4121
63225W        W 6137  14.096  22.724  31.104 -0.0388  0.0508  0.1777
63226W        W 6138  13.081  24.027  29.514  0.0144  0.1702 -0.4825
63227W        W 6139  14.337  22.352  29.549  0.0885 -0.0671  0.1259
63228W        W 6140  14.442  22.510  30.785  0.4372  0.2904 -0.1237
63229W        W 6141  10.717  22.186  29.790  0.1423  0.0583  0.2832
63230W        W 6142  13.995  25.088  31.835 -0.0975 -0.0438 -0.0672
63231W        W 6143  12.735  22.850  30.855  0.0673  0.4963  0.0723
63232W        W 6144  12.049  22.579  31.296  0.0724  0.0632  0.1497
63233W        W 6145  13.824  20.418  31.503 -0.2909  0.2395 -0.0712
63234W        W 6146  13.257  24.229  31.851  0.1353 -0.0403  0.0299
63235W        W 6147  13.269  25.204  30.779 -0.0997  0.1958 -0.2126
63236W        W 6148  10.001  25.825  29.658 -0.0080  0.0821 -0.0925
63237W        W 6149  14.486  24.710  31.242 -0.0006  0.0376 -0.0898
63238W        W 6150  14.552  24.047  29.752 -0.0140 -0.0298  0.2871
63239W        W 6151  14.315  22.542  30.309 -0.1398 -0.1809 -0.1502
63240W        W 6152  12.358  23.478  31.160  0.0876 -0.0931  0.1375
63241W        W 6153  13.201  23.698  30.923 -0.0504 -0.1274 -0.1419
63242W        W 6154  12.793  23.555  29.313  0.1320 -0.1006  0.0021
63243W        W 6155  14.183  24.107  30.132  0.2107  0.2137 -0.0121
63244W        W 6156  11.720  26.031  30.514  0.0264  0.0683 -0.3935
63245W        W 6157  13.267  23.022  31.656  0.1826  0.0279 -0.1055
63246W        W 6158  13.081  23.686  31.817  0.1727 -0.0700  0.0082
63247W        W 6159  10.949  21.919   0.243  0.1273  0.0521 -0.1510
63248W        W 6160  11.573  24.138   0.344  0.1387  0.0381 -0.1133
63249W        W 6161  11.426  23.433  31.051 -0.0538 -0.0886  0.2009
63250W        W 6162  11.500  21.240  31.216  0.0287  0.1110  0.1680
63251W        W 6163  14.394  25.859  30.987 -0.0944  0.0854 -0.0587
63252W        W 6164  13.574  24.332  31.475  0.0729 -0.0379 -0.2522
63253W        W 6165  14.946  22.631   0.141 -0.1121  0.0815 -0.1967
63254W        W 6166  13.345  28.310  18.388  0.0427  0.1484 -0.0125
63255W        W 6167  12.389  26.759  17.607  0.0446  0.0305  0.0919
63256W        W 6168  12.670  25.633  16.616 -0.2602  0.2484 -0.2586
63257W        W 6169  14.451  27.385  16.777 -0.2708  0.1324  0.1300
63258W        W 6170  11.432  26.822  17.936 -0.0670  0.0820 -0.0292
63259W        W 6171  13.231  29.069  17.351  0.1857  0.1079  0.0575
63260W        W 6172  11.568  25.408  19.022 -0.1934 -0.2278  0.2232
63261W        W 6173  14.777  29.242  17.952 -0.1213 -0.3127  0.1548
63262W        W 6174  14.780  29.546  18.506  0.1831  0.0532  0.0535
63263W        W 6175  13.300  27.130  16.301 -0.0927  0.3264 -0.2745
63264W        W 6176  11.796  26.464  18.836 -0.0926 -0.1431  0.0535
63265W        W 6177  12.378  28.473  17.829  0.0320  0.2576  0.0717
63266W        W 6178  11.844  26.442  18.014  0.1407  0.0319  0.3651
63267W        W 6179  10.918  25.922  18.034  0.1310 -0.1328 -0.1776
63268W        W 6180  12.768  26.281  19.085  0.0397  0.1626  0.3717
63269W        W 6181  11.673  27.388  17.275 -0.0829  0.1299 -0.1298
63270W        W 6182  12.249  26.982  18.784 -0.2723  0.2185 -0.0206
63271W        W 6183  12.156  25.345  17.391 -0.1731 -0.0407 -0.5804
63272W        W 6184  13.875  29.528  17.927 -0.1370  0.0150 -0.3001
63273W        W 6185  12.053  26.617  19.253  0.0051 -0.2508  0.0499
63274W        W 6186  13.218  26.806  19.194  0.4043  0.1330  0.3955
63275W        W 6187  12.842  27.855  16.648 -0.0281  0.0409  0.2375
63276W        W 6188  10.641  27.673  16.003 -0.0637  0.2166 -0.2365
63277W        W 6189  11.087  27.572  18.065 -0.2034  0.3342  0.1645
63278W        W 6190  11.990  26.364  19.849 -0.4038 -0.5591 -0.0433
63279W        W 6191  13.977  27.309  18.055 -0.2317  0.1474  0.0853
63280W        W 6192  13.705  27.392  17.672 -0.0183  0.3450  0.0664
63281W        W 6193  11.705  28.904  18.434  0.2697  0.1022  0.0551
63282W        W 6194  13.647  30.840  17.834 -0.0835 -0.0578  0.1563
63283W        W 6195  13.176  27.366  20.477 -0.1676  0.3979 -0.0516
63284W        W 6196  10.972  27.162  17.781 -0.0379  0.0236  0.1573
63285W        W 6197  11.396  30.084  16.772  0.0857 -0.0546 -0.1745
63286W        W 6198  13.061  28.916  16.280  0.1507 -0.1841 -0.0817
63287W        W 6199  15.256  28.933  19.061  0.1239 -0.1116 -0.2161
63288W        W 6200  14.259  28.468  18.311  0.1637  0.0976 -0.2649
63289W        W 6201  11.108  29.215  19.492  0.1391 -0.1567  0.1127
63290W        W 6202  11.999  27.719  15.808 -0.0712  0.1559 -0.2036
63291W        W 6203  14.120  29.475  18.478  0.0888  0.1469 -0.1267
63292W        W 6204  11.429  27.825  19.531 -0.0547  0.1393 -0.4461
63293W        W 6205  11.880  27.105  16.837 -0.0539  0.0031  0.0182
63294W        W 6206  12.191  26.157  16.426 -0.0097  0.0493  0.1527
63295W        W 6207  14.014  27.861  16.395 -0.1193 -0.1524  0.0562
63296W        W 6208  14.939  27.532  16.880  0.1275 -0.2291  0.2999
63297W        W 6209  10.773  27.878  20.617 -0.1879  0.2691  0.0307
63298W        W 6210  11.593  28.174  18.639 -0.0104  0.2248 -0.0848
63299W        W 6211  15.079  27.388  20.290  0.1211  0.0456 -0.0900
63300W        W 6212  13.467  28.817  16.565 -0.1452  0.2917  0.3818
63301W        W 6213  13.166  25.939  15.865 -0.1256 -0.3093  0.0085
63302W        W 6214  10.779  26.564  15.463 -0.1174  0.0594  0.1332
63303W        W 6215  12.839  24.589  17.629 -0.0330 -0.1675  0.1247
63304W        W 6216  11.726  26.026  17.824 -0.0207 -0.0452 -0.1791
63305W        W 6217  12.472  28.162  16.608 -0.0004  0.0975  0.2534
63306W        W 6218  10.945  26.188  20.199 -0.2437 -0.1423  0.0194
63307W        W 6219  13.157  28.592  19.096 -0.2092  0.2086  0.0082
63308W        W 6220  12.088  24.798  16.514  0.0569  0.0253  0.2758
63309W        W 6221  13.356  26.339  17.821  0.1555  0.2803  0.0019
63310W        W 6222  13.076  28.325  17.930  0.3437  0.1466 -0.1175
63311W        W 6223  12.419  27.595  16.632  0.0328 -0.1931  0.0640
63312W        W 6224  14.462  27.848  16.626 -0.1145  0.0319 -0.0118
63313W        W 6225  15.042  27.932  17.790 -0.1610  0.1799  0.1149
63314W        W 6226  14.227  28.292  16.313 -0.0295 -0.0923 -0.2046
63315W        W 6227  12.193  26.662  16.584 -0.4556 -0.1556  0.0238
63316W        W 6228  11.553  27.570  18.758  0.1552 -0.0220 -0.0936
63317W        W 6229  11.877  27.080  18.480 -0.0440 -0.1030 -0.0622
63318W        W 6230  11.266  26.408  16.938 -0.1959  0.1308  0.3330
63319W        W 6231  14.818  27.463  17.701  0.2505 -0.0312 -0.1052
63320W        W 6232  12.931  29.070  19.202 -0.2579 -0.0006  0.1940
63321W        W 6233  15.129  27.197  19.089  0.1915 -0.3379 -0.1520
63322W        W 6234  13.320  27.675  17.607  0.3209 -0.1820  0.3638
63323W        W 6235  14.333  27.264  17.667  0.2593  0.2645  0.4844
63324W        W 6236  14.685  28.370  16.259  0.0009 -0.2279 -0.2447
63325W        W 6237  13.442  27.331  18.236  0.1251 -0.0535 -0.2276
63326W        W 6238  13.164  27.308  18.640 -0.0249 -0.1202 -0.2448
63327W        W 6239  12.489  27.388  16.152  0.2491 -0.0442  0.0808
63328W        W 6240  13.371  26.768  15.977  0.1093  0.1394  0.3079
63329W        W 6241  15.196  28.875  18.053  0.1713 -0.2511 -0.1982
63330W        W 6242  15.928  27.949  17.101 -0.0552  0.0794 -0.0054
63331W        W 6243  11.782  29.579  19.446 -0.0385  0.3008  0.0675
63332W        W 6244  13.771  27.501  20.223 -0.0406  0.0129 -0.0276
63333W        W 6245  13.637  29.647  18.459 -0.3265  0.0717 -0.0189
63334W        W 6246  12.767  30.587  16.639  0.0865  0.1604 -0.0395
63335W        W 6247  10.749  27.262  17.336  0.3539 -0.1269  0.4277
63336W        W 6248  11.244  27.223  17.363 -0.2319  0.1490 -0.2461
63337W        W 6249  11.513  26.213  19.584  0.0952 -0.0465  0.1540
63338W        W 6250  12.676  28.330  18.218 -0.2717  0.4554  0.0120
63339W        W 6251  14.393  25.828  16.410 -0.1255  0.0948 -0.3372
63340W        W 6252  11.170  26.895  19.398  0.1497  0.1579  0.1197
63341W        W 6253  12.377  24.835  16.990  0.0358 -0.1500 -0.0009
63342W        W 6254  11.840  25.216  17.761 -0.1840  0.0448 -0.0311
63343W        W 6255  14.445  30.440  16.756 -0.0028 -0.1873  0.1002
63344W        W 6256  14.236  26.052  15.841  0.2580 -0.0183 -0.0723
63345W        W 6257  13.992  27.601  16.797  0.0319 -0.1763  0.1249
63346W        W 6258  11.593  26.675  18.360  0.0642 -0.1470  0.1627
63347W        W 6259  11.679  25.933  16.520 -0.3444 -0.0384 -0.0978
63348W        W 6260  10.832  26.096  18.849  0.1031 -0.0634  0.1447
63349W        W 6261  10.665  25.829  17.573 -0.0676 -0.3078 -0.1088
63350W        W 6262  14.753  27.954  18.995 -0.1648 -0.0533  0.0806
63351W        W 6263  11.576  25.606  17.627 -0.0672 -0.1444  0.0957
63352W        W 6264  13.841  26.453  18.090  0.2367  0.0093  0.3592
63353W        W 6265  11.887  27.839  17.290 -0.4581 -0.2599 -0.2470
63354W        W 6266  12.319  28.633  16.905  0.0834  0.1221 -0.1753
63355W        W 6267  13.521  27.080  19.507  0.1344 -0.0586  0.1629
63356W        W 6268  13.324  29.934  16.234  0.2574 -0.0053 -0.0364
63357W        W 6269  14.593  28.529  19.666  0.0665 -0.0561 -0.3780
63358W        W 6270  14.720  29.782  15.852  0.1454  0.1154  0.0165
63359W        W 6271  12.523  26.127  18.547 -0.3012 -0.1196  0.0434
63360W        W 6272  11.545  24.876  17.138 -0.2739 -0.1197  0.0120
63361W        W 6273  12.800  29.358  17.899 -0.0081  0.0470 -0.4946
63362W        W 6274  12.085  28.099  18.889 -0.1194 -0.0962 -0.0017
63363W        W 6275  12.604  26.725  16.871  0.4169  0.0302 -0.0958
63364W        W 6276  15.652  29.927  19.243 -0.2353 -0.0756 -0.1727
63365W        W 6277  12.469  26.858  16.171  0.2165  0.0905 -0.0044
63366W        W 6278  13.416  27.318  19.094  0.0480 -0.1830 -0.1802
63367W        W 6279  12.501  26.798  19.229 -0.2855 -0.1010  0.1054
63368W        W 6280  13.104  27.413  20.983 -0.1316 -0.0831  0.3058
63369W        W 6281  12.875  26.660  17.841 -0.2144  0.0266  0.5530
63370W        W 6282  10.865  26.019  16.102 -0.1750 -0.1603 -0.1431
63371W        W 6283  11.894  28.572  17.674 -0.0841  0.1291 -0.2109
63372W        W 6284  13.226  29.402  16.040 -0.1783 -0.1051 -0.0863
63373W        W 6285  11.205  27.784  16.573 -0.2223 -0.0591  0.0164
63374W        W 6286  13.445  27.852  18.051 -0.2581 -0.2539  0.0890
63375W        W 6287  14.022  27.968  19.277 -0.2847  0.3624  0.0352
63376W        W 6288  11.735  26.968  18.964 -0.1153  0.0321 -0.1491
63377W        W 6289  12.941  28.277  18.740  0.0652  0.0084  0.0663
63378W        W 6290  11.696  26.367  16.307  0.1221 -0.2509  0.1494
63379W        W 6291  12.846  29.572  19.093  0.1322  0.1635  0.1705
63380W        W 6292  11.939  25.128  16.894  0.0730  0.2442 -0.0238
63381W        W 6293  13.402  26.298  16.166  0.0335  0.3521  0.3179
63382W        W 6294  14.792  28.760  18.358 -0.2495 -0.1171 -0.3495
63383W        W 6295  13.630  26.722  16.419  0.0121 -0.2358  0.0121
63384W        W 6296  10.994  25.252  18.139 -0.0907 -0.0683  0.1222
63385W        W 6297  13.482  25.107  16.381  0.0655 -0.2493  0.0482
63386W        W 6298  11.272  28.829  19.843 -0.2449  0.0400  0.1456
63387W        W 6299  13.254  26.843  16.895 -0.5501  0.2131  0.3230
63388W        W 6300  14.957  28.064  16.622 -0.2027 -0.4101 -0.2194
63389W        W 6301  11.194  26.733  17.511  0.2276 -0.1182 -0.0447
63390W        W 6302  16.310  30.941  17.600 -0.1558 -0.0534  0.0472
63391W        W 6303  12.649  28.622  19.159  0.0379 -0.2820 -0.2983
63392W        W 6304  13.241  29.025  18.806 -0.0073 -0.0714  0.2394
63393W        W 6305  15.440  27.648  17.857  0.0135 -0.1829 -0.1327
63394W        W 6306  13.435  25.769  19.300 -0.2121  0.3325  0.2795
63395W        W 6307  13.004  25.611  16.240  0.2115 -0.0338  0.1488
63396W        W 6308  13.373  26.919  17.471 -0.1147  0.2514  0.1521
63397W        W 6309  11.831  28.666  17.171  0.3543  0.2815 -0.1914
63398W        W 6310  14.625  27.148  18.632 -0.3299 -0.1665  0.0996
63399W        W 6311  12.896  26.061  17.859  0.2997 -0.0903 -0.2118
63400W        W 6312  12.086  25.427  19.232 -0.1925  0.0552  0.3196
63401W        W 6313  14.819  28.231  20.025 -0.1077 -0.0158  0.3889
63402W        W 6314  14.182  27.005  16.560 -0.1058 -0.0686  0.0967
63403W        W 6315  12.860  27.885  18.360  0.2682  0.1181  0.1584
63404W        W 6316  11.053  27.910  16.111  0.1319 -0.0552 -0.2355
63405W        W 6317  13.374  25.312  19.613 -0.0501 -0.1280  0.1237
63406W        W 6318  11.871  27.626  17.982 -0.0982  0.0289 -0.3311
63407W        W 6319  11.425  29.323  18.643  0.1085  0.2849  0.1205
63408W        W 6320  13.672  28.683  18.371 -0.0859  0.3054  0.1823
63409W        W 6321  14.433  27.794  17.602 -0.0961  0.1941 -0.0404
63410W        W 6322  12.288  26.821  20.310 -0.4313 -0.0554  0.1812
63411W        W 6323  12.363  25.182  16.549 -0.1302  0.0295 -0.1329
63412W        W 6324  13.764  29.670  16.471  0.0755  0.0823  0.0872
63413W        W 6325  12.519  28.354  16.055 -0.1129  0.0232  0.1886
63414W        W 6326  12.042  26.004  18.811  0.1264  0.1007 -0.1577
63415W        W 6327  11.388  27.749  17.630  0.0339  0.0463  0.2021
63416W        W 6328  12.254  27.792  15.343  0.1010 -0.0322  0.0989
63417W        W 6329  13.029  28.643  19.559 -0.0110 -0.0315 -0.1739
63418W        W 6330  12.687  28.608  16.559  0.4491 -0.1581  0.0637
63419W        W 6331  12.877  27.254  19.159  0.1590  0.0985  0.2850
63420W        W 6332  11.994  29.732  18.093 -0.1210  0.0868  0.0697
63421W        W 6333  10.772  26.325  17.111 -0.1925 -0.1831  0.2979
63422W        W 6334  10.830  26.632  15.989  0.2245 -0.0873 -0.0381
63423W        W 6335  13.977  24.421  17.106 -0.0230  0.3470 -0.0162
63424W        W 6336  15.165  27.122  16.643 -0.3293  0.6342  0.2037
63425W        W 6337  11.247  26.350  17.928  0.1890 -0.1437  0.0825
63426W        W 6338  13.175  26.907  18.210  0.1337  0.3131 -0.1328
63427W        W 6339  12.718  28.344  16.989  0.6232 -0.1757 -0.2392
63428W        W 6340  12.186  28.203  18.326  0.3178 -0.0840  0.0485
63429W        W 6341  13.487  25.399  17.228  0.0255 -0.4999 -0.0171
63430W        W 6342  14.081  27.519  17.296  0.3173 -0.2115  0.3693
63431W        W 6343  13.105  28.107  19.216  0.4058  0.2511 -0.0304
63432W        W 6344  10.107  27.059  16.539  0.0865 -0.1601  0.2094
63433W        W 6345  15.092  26.701  18.857  0.1347  0.1537  0.0248
63434W        W 6346  13.016  27.578  16.265 -0.1689  0.1911 -0.0324
63435W        W 6347  12.761  27.398  16.931  0.1577  0.0027  0.0307
63436W        W 6348  14.063  28.984  18.505 -0.3261 -0.2171  0.0919
63437W        W 6349  12.410  26.251  15.974  0.1012 -0.1486 -0.0762
63438W        W 6350  12.140  27.887  16.255  0.0486  0.0324  0.0705
63439W        W 6351  12.075  27.398  19.577  0.5545 -0.0692  0.1332
63440W        W 6352  15.194  27.193  17.954  0.2396 -0.0804  0.1790
63441W        W 6353  11.603  27.278  17.754  0.0251 -0.0786  0.0602
63442W        W 6354   9.961  25.598  18.668  0.0145 -0.0115 -0.0788
63443W        W 6355  12.085  25.735  17.890  0.1401 -0.0536  0.3069
63444W        W 6356  14.524  27.821  19.405 -0.1503  0.0172  0.1056
63445W        W 6357  12.269  27.410  17.115  0.2554 -0.3164  0.1464
63446W        W 6358  11.237  27.277  19.101  0.1671 -0.1179 -0.1199
63447W        W 6359  13.418  26.453  18.333  0.1376  0.1551  0.3014
63448W        W 6360  15.578  31.298  16.823  0.1755  0.0303 -0.1851
63449W        W 6361  12.867  27.684  18.845 -0.0325  0.0261  0.2765
63450W        W 6362  13.649  27.155  16.712  0.0850  0.1058 -0.1391
63451W        W 6363  11.197  28.137  17.328  0.1811  0.2573 -0.1164
63452W        W 6364  12.411  27.856  17.092  0.0804 -0.1239 -0.3173
63453W        W 6365  12.638  27.223  18.656 -0.0540 -0.0524  0.0501
63454W        W 6366  13.739  26.745  17.141 -0.2039 -0.1914  0.1709
63455W        W 6367  12.062  26.621  16.014  0.2869 -0.0344 -0.4410
63456W        W 6368  12.095  27.507  18.773  0.0046 -0.0342 -0.1976
63457W        W 6369  14.703  24.669  15.169  0.1238  0.1771 -0.0804
63458W        W 6370  14.509  27.879  16.100  0.1355  0.0034  0.0477
63459W        W 6371  13.066  27.276  17.756  0.1658  0.2057  0.0554
63460W        W 6372  13.644  27.475  19.714  0.2319  0.2972 -0.4311
63461W        W 6373  14.338  28.565  15.882  0.1064 -0.0582  0.0384
63462W        W 6374  13.601  27.472  20.780 -0.0933 -0.2191 -0.0328
63463W        W 6375  11.079  24.913  17.246  0.0733 -0.1545  0.1248
63464W        W 6376  15.653  26.866  17.851 -0.2940  0.1911  0.1119
63465W        W 6377  11.568  26.595  19.270  0.1087  0.0897  0.1228
63466W        W 6378  14.840  31.245  19.562 -0.0013  0.2655  0.0108
63467W        W 6379  11.122  28.308  18.849  0.0996 -0.2102  0.0803
63468W        W 6380  12.496  25.900  17.003 -0.1224  0.1431  0.0895
63469W        W 6381  11.269  25.903  16.789  0.2367 -0.0690  0.3504
63470W        W 6382  12.320  27.231  18.291  0.0705 -0.0942 -0.5036
63471W        W 6383  14.951  28.143  19.494  0.0781 -0.0660 -0.1474
63472W        W 6384  13.542  27.947  15.913  0.2557 -0.0093 -0.0645
63473W        W 6385  14.338  26.362  19.426  0.2535  0.0460 -0.1982
63474W        W 6386  12.846  27.763  17.858 -0.3299  0.0898  0.0654
63475W        W 6387  12.214  25.637  16.449 -0.0084  0.1402  0.1489
63476W        W 6388  14.286  27.436  16.289  0.1788  0.0076 -0.2057
63477W        W 6389  11.814  26.531  16.950  0.0453  0.0798 -0.1077
63478W        W 6390  12.710  26.020  19.922 -0.3192 -0.3269  0.0230
63479W        W 6391  13.197  28.535  17.465  0.1715 -0.0852 -0.0832
63480W        W 6392  11.692  25.306  18.259  0.2624 -0.2347  0.2564
63481W        W 6393  12.465  28.448  18.679 -0.1221  0.1716  0.0268
63482W        W 6394  14.263  26.806  18.034  0.1510 -0.0085  0.0551
63483W        W 6395  12.157  26.608  18.380  0.3443  0.1168  0.1939
63484W        W 6396  11.871  28.106  19.612 -0.1841 -0.1206  0.3526
63485W        W 6397  15.400  29.979  18.014  0.0124 -0.1257 -0.1484
63486W        W 6398  12.904  26.196  15.561 -0.1989  0.2340  0.0113
63487W        W 6399  15.248  26.129  19.459  0.2490  0.0907 -0.2291
63488W        W 6400  14.474  26.561  16.529 -0.1413  0.1012 -0.0772
63489W        W 6401  12.591  26.418  16.429 -0.2148 -0.2788 -0.2306
63490W        W 6402  10.954  27.145  18.293  0.0154  0.0085  0.1596
63491W        W 6403  13.171  27.995  19.727  0.2394 -0.0724 -0.2280
63492W        W 6404  11.192  26.227  16.441  0.2817  0.2022 -0.4871
63493W        W 6405  14.207  28.033  20.299  0.0698  0.3663 -0.1218
63494W        W 6406  12.992  29.354  16.659  0.0363 -0.2845  0.2609
63495W        W 6407  14.589  26.874  17.421 -0.2803  0.0728 -0.1335
63496W        W 6408  13.851  25.453  16.247 -0.1408  0.1761  0.1823
63497W        W 6409  11.114  27.530  18.606 -0.3968 -0.1463  0.0738
63498W        W 6410  12.795  28.803  18.699 -0.3077 -0.2151 -0.0683
63499W        W 6411  10.786  25.940  16.586 -0.2206  0.0423 -0.0452
63500W        W 6412  13.057  27.991  15.823 -0.0489 -0.0617  0.0336
63501W        W 6413  14.650  28.979  18.821 -0.2376 -0.1571 -0.2352
63502W        W 6414  12.850  29.263  20.763  0.2344  0.0253 -0.0754
63503W        W 6415  12.051  25.973  16.874  0.0016  0.2883 -0.1501
63504W        W 6416  14.394  27.414  19.646 -0.1492  0.0808  0.5054
63505W        W 6417  12.004  27.338  16.413 -0.0199  0.1161  0.1297
63506W        W 6418  12.931  25.859  18.450  0.2041 -0.0940  0.0090
63507W        W 6419  13.077  29.187  18.398 -0.1145  0.2986  0.0876
63508W        W 6420  11.522  28.623  18.917 -0.0321  0.1030 -0.0588
63509W        W 6421  12.783  28.925  17.211  0.0909  0.0832 -0.1593
63510W        W 6422  13.637  26.925  18.500 -0.1480  0.1595  0.0450
63511W        W 6423  14.046  28.543  17.095 -0.0616 -0.1301 -0.1728
63512W        W 6424  13.446  27.948  16.803 -0.0850  0.0153 -0.0342
63513W        W 6425  13.973  28.307  19.632 -0.1949  0.0906  0.0894
63514W        W 6426  13.845  28.293  18.052 -0.2694 -0.1027  0.0421
63515W        W 6427  13.121  27.855  17.119  0.0764  0.0463 -0.0737
63516W        W 6428  13.691  28.726  18.921 -0.1639  0.4475  0.2801
63517W        W 6429  14.850  27.724  19.826  0.2595 -0.0233 -0.1347
63518W        W 6430  12.159  28.324  17.353 -0.1024 -0.0169  0.1529
63519W        W 6431  11.065  26.465  19.720  0.4286  0.0538 -0.1526
63520W        W 6432  12.445  26.405  20.037  0.2570  0.2213  0.1497
63521W        W 6433  15.229  28.011  18.311  0.1828 -0.1485 -0.2559
63522W        W 6434  12.213  25.619  18.403 -0.0911 -0.1517  0.2005
63523W        W 6435  13.996  26.520  16.697  0.0522 -0.2420  0.3525
63524W        W 6436  12.400  29.270  19.102 -0.0528  0.2983  0.1703
63525W        W 6437  11.110  26.166  19.311 -0.0193 -0.0446 -0.2349
63526W        W 6438  13.106  28.278  16.767 -0.0392  0.0706  0.1552
63527W        W 6439  15.483  27.602  18.323 -0.1481  0.2450  0.1821
63528W        W 6440  14.097  26.244  16.261 -0.0203 -0.1338 -0.3533
63529W        W 6441  13.911  29.951  17.470  0.1378 -0.0359 -0.0144
63530W        W 6442  11.281  26.668  16.157  0.0502 -0.4070 -0.2657
63531W        W 6443  12.413  29.317  17.250 -0.1957 -0.4796 -0.2084
63532W        W 6444  11.806  27.642  16.767 -0.2938 -0.1150  0.0488
63533W        W 6445  14.701  29.117  16.560 -0.0048  0.2248 -0.3158
63534W        W 6446  12.053  28.297  15.902  0.1374 -0.1021  0.0310
63535W        W 6447  14.484  28.309  19.224 -0.1024  0.0937  0.0121
63536W        W 6448  14.075  26.137  15.277  0.3540 -0.1727 -0.0926
63537W        W 6449  15.447  28.222  17.461 -0.2120 -0.2691 -0.2771
63538W        W 6450  13.694  27.242  17.223 -0.0573  0.0084 -0.0704
63539W        W 6451  13.537  29.256  20.062 -0.2914 -0.0543  0.0582
63540W        W 6452  12.040  26.968  18.010  0.0364  0.0992  0.0575
63541W        W 6453  12.533  25.822  18.113  0.0990  0.2093  0.2784
63542W        W 6454  10.362  28.216  20.599  0.1777 -0.1178 -0.3844
63543W        W 6455  14.616  26.035  21.448  0.1002 -0.0904 -0.1710
63544W        W 6456  12.175  29.865  19.600  0.1775 -0.1491  0.0264
63545W        W 6457  14.146  29.459  16.096  0.0251 -0.3098 -0.1983
63546W        W 6458  10.590  26.368  18.266 -0.0500  0.0678  0.0125
63547W        W 6459  12.722  27.073  17.342  0.1656 -0.1884  0.1881
63548W        W 6460  14.793  26.316  19.073 -0.0434  0.0162 -0.0779
63549W        W 6461  13.219  27.511  16.672  0.0623  0.0263 -0.1300
63550W        W 6462  13.016  26.053  16.521 -0.1265  0.0333  0.1059
63551W        W 6463  13.090  28.749  16.872 -0.1186 -0.1097 -0.0066
63552W        W 6464  12.113  29.053  17.864  0.0101  0.1302 -0.1463
63553W        W 6465  13.415  29.312  16.979 -0.0581 -0.0390  0.0112
63554W        W 6466  11.596  25.504  16.787 -0.2492 -0.0576  0.0205
63555W        W 6467  14.588  26.766  18.898  0.1596 -0.2132  0.2033
63556W        W 6468  13.598  28.131  17.679  0.0596  0.1253  0.0462
63557W        W 6469  14.420  25.878  19.002  0.0219  0.1084  0.0375
63558W        W 6470  13.179  27.293  17.236  0.1144  0.1358  0.3172
63559W        W 6471  13.813  26.610  15.493 -0.0463  0.1141  0.1497
63560W        W 6472  13.590  27.908  19.468  0.1845 -0.0285 -0.1061
63561W        W 6473  12.979  25.997  19.452  0.2118  0.0750 -0.1498
63562W        W 6474  13.103  26.640  16.399 -0.1205 -0.2377  0.0188
63563W        W 6475  13.240  29.076  19.747  0.0637 -0.0562 -0.1613
63564W        W 6476  12.605  26.650  15.607 -0.0863  0.2001 -0.3220
63565W        W 6477  14.169  28.538  18.760 -0.0260  0.0601  0.0629
63566W        W 6478  11.067  26.592  18.317  0.0989 -0.0818 -0.0957
63567W        W 6479  13.660  25.874  16.119  0.2436 -0.0287 -0.1182
63568W        W 6480  13.331  26.479  17.244 -0.2051 -0.2875  0.2103
63569W        W 6481  13.196  26.820  18.703 -0.0604 -0.3189 -0.0987
63570W        W 6482  14.560  28.051  22.491 -0.0422  0.0595  0.3725
63571W        W 6483  11.434  25.639  18.085  0.1624 -0.2753 -0.2461
63572W        W 6484  15.544  27.225  16.317 -0.1424  0.0744  0.2487
63573W        W 6485  15.651  26.274  18.091  0.2889  0.2683  0.0656
63574W        W 6486  13.080  30.225  16.632 -0.0038 -0.0311 -0.0857
63575W        W 6487  15.098  26.198  18.463  0.0105  0.3966  0.0390
63576W        W 6488  12.081  28.350  16.410 -0.0582  0.1869  0.0903
63577W        W 6489  10.593  27.505  18.573 -0.1782 -0.1453  0.0817
63578W        W 6490  13.992  28.708  19.334  0.1365  0.3163  0.1929
63579W        W 6491  14.932  27.622  18.170  0.1972  0.4156 -0.1291
63580W        W 6492  12.374  24.409  17.239  0.0759  0.1716 -0.1575
63581W        W 6493  11.455  27.772  18.318  0.1195  0.0457 -0.4594
63582W        W 6494  12.548  29.811  17.369  0.1344  0.2465  0.3024
63583W        W 6495  13.571  25.969  18.585  0.1733  0.0421 -0.0912
63584W        W 6496  13.683  26.906  18.990 -0.1114 -0.0343  0.0550
63585W        W 6497  13.651  27.570  16.358  0.2148 -0.0165 -0.3098
63586W        W 6498  15.057  25.799  18.169 -0.2505  0.0752 -0.6061
63587W        W 6499  13.762  27.809  18.887 -0.1367  0.2755  0.0369
63588W        W 6500  13.137  29.356  20.356  0.2644 -0.1156 -0.0726
63589W        W 6501  11.379  28.442  16.872 -0.0287  0.0923  0.1761
63590W        W 6502  13.171  27.534  19.495  0.0615  0.1685  0.3384
63591W        W 6503  14.734  27.026  16.381 -0.1427 -0.0435  0.0565
63592W        W 6504  13.002  30.058  17.985 -0.0823  0.1234  0.2093
63593W        W 6505  15.291  29.467  18.158  0.0867 -0.2451 -0.1141
63594W        W 6506  13.556  26.845  17.926  0.0180 -0.1586 -0.4152
63595W        W 6507  14.621  28.657  17.890 -0.3585  0.4075  0.3127
63596W        W 6508  11.291  27.068  18.675 -0.4376  0.3555  0.1587
63597W        W 6509  14.534  27.165  18.150  0.1561 -0.3148  0.2499
63598W        W 6510  13.623  24.173  17.448  0.2814  0.0194  0.1078
63599W        W 6511  11.485  28.547  19.472  0.0448  0.0824  0.0691
63600W        W 6512  11.779  26.912  16.384  0.2464 -0.0985  0.2077
63601W        W 6513  12.200  26.925  15.554  0.1948 -0.1434  0.1910
63602W        W 6514  11.760  26.915  17.444  0.0130 -0.1601  0.2478
63603W        W 6515  13.268  27.533  20.008 -0.0959  0.0791  0.1314
63604W        W 6516  11.919  25.571  19.732 -0.1394 -0.1198  0.2430
63605W        W 6517  12.331  26.365  16.992 -0.1392  0.0424 -0.1195
63606W        W 6518  12.098  26.127  18.330 -0.3809  0.0772  0.1607
63607W        W 6519  14.377  28.913  16.822 -0.1881 -0.0226 -0.2175
63608W        W 6520  11.360  25.381  17.219  0.1649  0.3588 -0.1131
63609W        W 6521  10.429  26.756  16.895  0.2959  0.2063  0.0504
63610W        W 6522  15.166  27.671  17.343 -0.0980  0.0297  0.1158
63611W        W 6523  13.557  28.801  17.067  0.0135  0.0033 -0.0430
63612W        W 6524  12.322  26.357  17.954 -0.2026 -0.1054  0.0714
63613W        W 6525  13.806  28.280  20.990  0.4337  0.1647  0.0239
63614W        W 6526  11.143  28.307  16.432 -0.1214 -0.2829 -0.3562
63615W        W 6527  12.871  26.992  20.684  0.0333 -0.0719  0.0028
63616W        W 6528  12.728  27.741  19.357 -0.2508 -0.1683 -0.1315
63617W        W 6529  10.890  26.268  17.583 -0.3171  0.1303  0.2698
63618W        W 6530  13.281  27.798  18.681 -0.2311  0.3694 -0.2676
63619W        W 6531  13.979  28.613  16.589 -0.0928  0.2274  0.0163
63620W        W 6532  13.908  29.087  16.718  0.1035  0.1555  0.0368
63621W        W 6533  13.957  27.807  17.770 -0.0859  0.1484 -0.1732
63622W        W 6534  13.866  27.703  18.304 -0.2101 -0.3143  0.0409
63623W        W 6535  11.120  25.652  20.387  0.1303  0.5650  0.1651
63624W        W 6536  14.327  26.157  16.812  0.1365  0.3090  0.3075
63625W        W 6537  12.187  28.673  18.206 -0.1562 -0.1413  0.0771
63626W        W 6538  14.689  28.718  17.176  0.0545  0.1288  0.0111
63627W        W 6539  12.756  27.543  17.439 -0.2608  0.4682 -0.1739
63628W        W 6540  13.338  25.962  16.955  0.0713 -0.1182  0.0442
63629W        W 6541  11.289  26.509  18.790 -0.0804  0.1832 -0.1450
63630W        W 6542  11.432  29.480  19.876 -0.1299  0.2349 -0.2832
63631W        W 6543  13.095  27.924  20.239 -0.2490  0.2684 -0.2234
63632W        W 6544  11.411  24.889  18.161 -0.2659  0.1309 -0.0153
63633W        W 6545  13.050  25.510  16.923  0.2788  0.1105 -0.0393
63634W        W 6546  13.572  28.312  16.485 -0.0141  0.1336 -0.1505
63635W        W 6547  10.487  27.072  18.246 -0.0410 -0.0074 -0.0830
63636W        W 6548  11.880  26.550  15.478  0.0167  0.4135 -0.0230
63637W        W 6549  12.736  26.614  18.624 -0.1132 -0.2149 -0.2047
63638W        W 6550  12.842  27.076  16.562 -0.4632 -0.1117 -0.0676
63639W        W 6551  12.976  27.936  21.150  0.0620 -0.1701  0.0672
63640W        W 6552  12.018  25.891  17.418 -0.0913 -0.1622 -0.2508
63641W        W 6553  16.336  27.216  16.015 -0.1139 -0.0583  0.0411
63642W        W 6554  12.311  29.485  17.779 -0.1461 -0.2884  0.3105
63643W        W 6555  14.280  28.970  19.675  0.2312  0.0581  0.0587
63644W        W 6556  13.988  29.037  17.203 -0.0851 -0.0955 -0.0169
63645W        W 6557  15.477  26.984  19.698 -0.2215 -0.1959  0.0823
63646W        W 6558  10.759  27.488  19.014  0.1444  0.1107 -0.1009
63647W        W 6559  12.014  26.432  17.514 -0.3008  0.0262 -0.0323
63648W        W 6560  12.958  26.405  16.900 -0.1611 -0.0132 -0.0779
63649W        W 6561  14.204  27.628  18.966 -0.0543 -0.0079 -0.1048
63650W        W 6562  11.483  26.850  17.055  0.3772 -0.0568  0.0980
63651W        W 6563  12.467  26.102  17.531 -0.0161  0.1984 -0.1467
63652W        W 6564  11.878  29.358  18.419 -0.0101 -0.0030 -0.4040
63653W        W 6565  13.673  27.761  17.166  0.0992 -0.0572  0.0040
63654W        W 6566  11.355  28.739  21.488 -0.3853 -0.1394  0.0470
63655W        W 6567  12.280  27.861  19.924  0.0502 -0.1588 -0.4139
63656W        W 6568  14.068  27.692  19.865 -0.1465  0.2448  0.3315
63657W        W 6569  14.092  27.337  21.090 -0.2435 -0.1867  0.2105
63658W        W 6570   9.860  27.020  21.818  0.1634 -0.2293 -0.1778
63659W        W 6571  13.057  28.299  22.387  0.2548  0.0589  0.2988
63660W        W 6572  11.041  25.815  23.640 -0.2777 -0.1928 -0.1273
63661W        W 6573  12.370  27.757  22.458 -0.3611  0.1232 -0.2130
63662W        W 6574  14.633  28.473  21.586  0.1584  0.0737 -0.2897
63663W        W 6575  12.845  27.347  18.204  0.0084 -0.0253  0.0684
63664W        W 6576  12.660  26.211  22.187  0.2176 -0.0496  0.2610
63665W        W 6577  11.901  28.889  23.321 -0.1733  0.0207  0.0672
63666W        W 6578  13.089  26.589  21.474 -0.0553  0.1512  0.0966
63667W        W 6579  10.743  26.535  20.983  0.0783  0.0927 -0.0153
63668W        W 6580  13.991  28.403  21.894  0.0890 -0.0829  0.3622
63669W        W 6581  12.000  27.843  20.349 -0.1603  0.4833 -0.1318
63670W        W 6582  11.663  26.748  21.726  0.2863  0.0874 -0.0015
63671W        W 6583  11.724  27.211  21.865 -0.1760  0.2382  0.1106
63672W        W 6584  12.258  30.521  21.126 -0.1761  0.2441  0.0466
63673W        W 6585  11.017  26.566  23.488 -0.1321 -0.0554 -0.0847
63674W        W 6586  12.567  25.979  23.506  0.1314 -0.4558 -0.1771
63675W        W 6587  12.565  28.180  21.020  0.1810  0.0817 -0.0737
63676W        W 6588  11.158  27.095  19.981 -0.0040 -0.2003 -0.2828
63677W        W 6589  10.040  27.591  20.392  0.0388 -0.3828 -0.0718
63678W        W 6590  10.822  27.430  22.355 -0.2053  0.0888  0.1643
63679W        W 6591  13.580  26.075  22.822 -0.0810  0.3241  0.1552
63680W        W 6592  12.298  28.007  22.943 -0.1042  0.0857  0.1180
63681W        W 6593  11.907  29.501  21.478  0.0682 -0.1447 -0.1209
63682W        W 6594  10.641  28.011  22.039 -0.2592  0.1947 -0.3086
63683W        W 6595  14.267  27.510  24.049 -0.0067  0.0982 -0.0954
63684W        W 6596  10.224  28.848  19.854  0.1759  0.1470  0.1517
63685W        W 6597  10.540  29.899  20.993  0.1599 -0.1330  0.1306
63686W        W 6598  12.866  28.375  21.378 -0.1312 -0.1187  0.0915
63687W        W 6599  14.042  28.143  22.389  0.0143  0.1594 -0.0880
63688W        W 6600  14.166  29.672  23.309  0.1282  0.0126  0.0807
63689W        W 6601  12.225  28.796  23.632  0.0410 -0.2073  0.0334
63690W        W 6602  10.333  28.183  19.775  0.3743  0.0930 -0.1180
63691W        W 6603  13.344  29.542  21.363  0.0537  0.1675 -0.2783
63692W        W 6604  12.339  29.083  23.015 -0.0465  0.2364  0.4221
63693W        W 6605  12.895  27.805  22.513 -0.3654  0.0719 -0.4995
63694W        W 6606  11.710  27.147  22.425  0.1863 -0.1913 -0.1185
63695W        W 6607  13.446  28.493  19.864 -0.1571 -0.2274  0.1844
63696W        W 6608  11.899  27.597  21.256  0.1728  0.1521  0.0442
63697W        W 6609  13.652  28.784  23.017  0.1525 -0.0520  0.1948
63698W        W 6610  10.312  29.164  22.823 -0.0642  0.2197 -0.0129
63699W        W 6611  15.310  26.883  23.450  0.0039  0.2470 -0.0342
63700W        W 6612  11.746  28.989  20.846  0.1907 -0.0739  0.0568
63701W        W 6613  14.457  27.793  20.934  0.0504 -0.0445  0.2162
63702W        W 6614  13.481  27.104  20.043  0.2708  0.1946  0.1227
63703W        W 6615  13.743  26.527  20.966 -0.0673  0.2163  0.0643
63704W        W 6616  12.727  24.226  22.001  0.0435 -0.1672  0.1200
63705W        W 6617  11.665  29.750  21.127 -0.0751 -0.1684  0.4033
63706W        W 6618  12.169  24.319  21.947  0.0717 -0.1957 -0.0833
63707W        W 6619  13.813  28.237  21.462 -0.1196 -0.0649  0.2150
63708W        W 6620  12.507  29.257  21.698  0.1996  0.1659  0.0407
63709W        W 6621  13.109  26.250  24.479  0.3098 -0.2115  0.2104
63710W        W 6622  10.889  28.370  22.346 -0.2391 -0.0327 -0.1481
63711W        W 6623  11.222  26.410  22.165 -0.3481 -0.1794 -0.1588
63712W        W 6624  14.242  27.984  18.675  0.2146 -0.0262 -0.2918
63713W        W 6625  13.682  29.226  21.144  0.4261  0.2536 -0.0436
63714W        W 6626  13.459  28.954  19.319  0.3706  0.1897 -0.0770
63715W        W 6627  11.492  27.839  21.170  0.0674  0.0093  0.2268
63716W        W 6628  11.009  28.621  24.026  0.2587 -0.1539  0.0394
63717W        W 6629  11.721  27.195  23.012  0.0434  0.1910  0.1661
63718W        W 6630  11.716  27.058  19.445 -0.2635 -0.2544  0.0828
63719W        W 6631  13.185  28.829  24.275  0.0833  0.1175  0.4543
63720W        W 6632  10.291  28.676  23.408 -0.2472  0.1639 -0.2502
63721W        W 6633  13.293  27.328  23.843  0.0572 -0.1930 -0.0254
63722W        W 6634  11.685  27.601  22.166  0.1659 -0.1320 -0.1723
63723W        W 6635  14.223  29.157  23.382  0.0283  0.0545 -0.2554
63724W        W 6636  12.909  28.374  20.637  0.1610  0.3311  0.0534
63725W        W 6637  13.802  25.654  22.600 -0.1169 -0.4194 -0.0697
63726W        W 6638  12.735  26.629  22.699 -0.0927  0.0993 -0.1987
63727W        W 6639  12.560  28.213  20.140 -0.1444 -0.2483  0.0638
63728W        W 6640  10.784  27.893  19.850  0.0640  0.0144 -0.2392
63729W        W 6641  15.096  29.696  22.262  0.0602 -0.0293  0.4730
63730W        W 6642  13.256  28.300  21.041 -0.1392  0.0070  0.2401
63731W        W 6643  11.188  30.317  20.858  0.0902 -0.2335 -0.0997
63732W        W 6644  12.691  27.332  22.419 -0.0246  0.1477 -0.0414
63733W        W 6645  12.644  28.683  23.397  0.0913  0.1425  0.3110
63734W        W 6646  13.545  29.709  20.416 -0.1207 -0.2587 -0.0742
63735W        W 6647   9.952  28.147  22.509 -0.2880  0.0245 -0.0180
63736W        W 6648  10.871  27.520  20.196 -0.1402 -0.3857 -0.0640
63737W        W 6649  12.179  26.016  22.488  0.1015  0.0731 -0.0285
63738W        W 6650  12.557  27.605  23.446 -0.0416  0.0787  0.0533
63739W        W 6651  14.684  27.171  20.061 -0.1016  0.1335 -0.0025
63740W        W 6652  11.663  26.664  22.258  0.1267  0.0937 -0.1216
63741W        W 6653  13.351  26.397  22.046 -0.1168  0.0906  0.0302
63742W        W 6654  10.187  28.619  19.407  0.1671 -0.3229  0.2948
63743W        W 6655  13.327  29.497  20.818  0.1210 -0.0352  0.2986
63744W        W 6656  13.295  25.658  22.784  0.1836 -0.0559  0.0175
63745W        W 6657  11.784  28.099  20.708  0.0016  0.0512 -0.1268
63746W        W 6658   9.574  26.280  22.055 -0.1681  0.1055 -0.1860
63747W        W 6659  10.439  27.894  20.250 -0.0728  0.1882  0.0302
63748W        W 6660  12.232  26.326  23.346  0.1175  0.0724 -0.2768
63749W        W 6661  12.372  26.328  20.934 -0.0993  0.1240 -0.0418
63750W        W 6662  13.446  27.790  23.925 -0.1096  0.0941 -0.6312
63751W        W 6663   9.864  26.467  21.389  0.2458  0.2517  0.0540
63752W        W 6664  12.866  26.589  21.040  0.1416 -0.0182 -0.2295
63753W        W 6665  11.478  28.229  21.553 -0.4034  0.1393 -0.0733
63754W        W 6666  10.852  28.404  20.708  0.1393  0.1969 -0.1589
63755W        W 6667  14.577  27.109  24.581 -0.1894  0.2680  0.2832
63756W        W 6668  12.175  28.792  20.367  0.1059 -0.0739 -0.1795
63757W        W 6669  14.770  29.967  22.527 -0.2428  0.3126 -0.0362
63758W        W 6670  13.078  29.897  20.554  0.2825  0.1741 -0.0841
63759W        W 6671  11.893  27.121  23.542  0.2158 -0.0833  0.1346
63760W        W 6672   9.964  25.840  19.928 -0.1459 -0.0292 -0.4380
63761W        W 6673  10.981  29.954  20.587  0.0975 -0.2258 -0.0438
63762W        W 6674  11.206  27.086  21.698 -0.0960  0.1362  0.2383
63763W        W 6675  12.769  27.362  20.173 -0.2784 -0.0886  0.0768
63764W        W 6676  13.569  29.059  22.594  0.1260  0.1361 -0.1464
63765W        W 6677  12.056  29.051  19.424 -0.0642  0.0763 -0.3443
63766W        W 6678  10.549  28.253  22.756  0.1030 -0.1011 -0.0469
63767W        W 6679  14.106  27.266  23.610 -0.0759 -0.1040 -0.0861
63768W        W 6680  13.311  27.544  22.546  0.0615  0.1196  0.2534
63769W        W 6681  13.647  26.900  21.373 -0.2404  0.1409  0.0468
63770W        W 6682  11.392  25.792  20.834  0.1553  0.0128 -0.1363
63771W        W 6683  12.411  29.568  21.307  0.0061  0.2652 -0.0499
63772W        W 6684  10.014  29.958  20.280  0.2023 -0.2796  0.4050
63773W        W 6685  10.499  29.052  20.319  0.1132 -0.0878 -0.3050
63774W        W 6686  12.967  29.212  21.259 -0.1704  0.0577 -0.0656
63775W        W 6687  14.269  27.908  23.748  0.0237 -0.2202 -0.1545
63776W        W 6688  11.238  28.168  22.748  0.0741 -0.0828  0.0570
63777W        W 6689  13.461  27.515  22.998 -0.0313  0.1837  0.0752
63778W        W 6690  11.264  28.167  20.560 -0.1675 -0.1312 -0.2086
63779W        W 6691  11.848  27.933  23.401  0.4006  0.2235  0.0364
63780W        W 6692  13.311  25.915  20.688 -0.2170  0.1886 -0.1367
63781W        W 6693  14.143  27.551  22.435 -0.0929  0.2448  0.2044
63782W        W 6694  12.969  28.324  23.289  0.0650  0.3673 -0.2491
63783W        W 6695  12.737  27.963  21.663  0.1153  0.1768  0.1198
63784W        W 6696  13.368  26.673  19.923 -0.3367  0.3490  0.3587
63785W        W 6697  13.291  25.443  20.907 -0.2449 -0.0174 -0.0087
63786W        W 6698  11.078  27.692  24.387  0.2226  0.1845 -0.1203
63787W        W 6699  12.548  28.705  21.955 -0.0372 -0.0846  0.1297
63788W        W 6700  12.240  29.742  21.856 -0.0481  0.0829 -0.0664
63789W        W 6701  13.769  27.005  20.853 -0.0204  0.1381 -0.1879
63790W        W 6702  13.423  29.009  22.033 -0.0183  0.1295  0.0737
63791W        W 6703   8.944  27.260  22.018  0.4295  0.1374  0.0720
63792W        W 6704  13.030  28.063  24.060  0.1296 -0.0213 -0.0401
63793W        W 6705  11.211  28.690  20.552 -0.0833  0.1187  0.2027
63794W        W 6706  10.400  26.640  22.355  0.0031 -0.0438 -0.1015
63795W        W 6707  13.019  26.924  19.669 -0.1460  0.0421  0.2185
63796W        W 6708  12.766  26.166  21.321  0.0376 -0.0403  0.1824
63797W        W 6709  11.404  29.356  20.418  0.2792  0.1570  0.3189
63798W        W 6710  13.373  25.846  22.248  0.2954 -0.1369  0.2388
63799W        W 6711  11.574  26.931  20.894 -0.4139  0.0205  0.0688
63800W        W 6712  12.423  25.740  22.086 -0.1763 -0.0158 -0.1341
63801W        W 6713  13.303  28.165  23.674  0.1830 -0.0011  0.1850
63802W        W 6714  11.685  27.559  20.739  0.4464  0.2432  0.1119
63803W        W 6715  12.451  26.870  20.956 -0.1891 -0.1126 -0.4615
63804W        W 6716  12.696  28.225  19.659  0.1837  0.1329  0.0390
63805W        W 6717  11.302  26.755  22.593  0.0041 -0.0019  0.0960
63806W        W 6718   9.323  26.731  22.406  0.2704  0.0234  0.2087
63807W        W 6719  11.270  29.394  21.996 -0.0080  0.1037 -0.0436
63808W        W 6720  13.158  28.935  23.245  0.0939  0.1153  0.0524
63809W        W 6721  12.575  27.367  20.992  0.0420 -0.2931 -0.1365
63810W        W 6722  12.412  25.538  22.692 -0.1647  0.0745 -0.7124
63811W        W 6723  11.739  27.689  19.908  0.0163  0.2397 -0.0857
63812W        W 6724  11.051  28.696  19.368  0.1937 -0.0279 -0.0176
63813W        W 6725  12.971  28.465  20.101 -0.4355 -0.0634 -0.1531
63814W        W 6726  11.668  25.316  22.491 -0.1117  0.0645  0.2722
63815W        W 6727  13.006  26.910  22.364  0.4966 -0.0183  0.1609
63816W        W 6728  11.804  28.663  19.864 -0.2369 -0.1043  0.1106
63817W        W 6729  12.606  27.662  21.987 -0.0351 -0.1123 -0.1018
63818W        W 6730  11.333  28.420  20.119 -0.0881  0.0174  0.1723
63819W        W 6731  12.020  25.927  21.749 -0.1015  0.0130  0.1439
63820W        W 6732  10.872  28.733  20.185  0.1738 -0.3173  0.1015
63821W        W 6733  12.446  27.853  18.627  0.0635 -0.0545  0.1387
63822W        W 6734  11.417  27.000  20.414  0.3996  0.0324  0.2191
63823W        W 6735  13.109  27.926  21.995  0.0442  0.0137  0.0844
63824W        W 6736  13.345  28.949  20.820 -0.1468 -0.2068 -0.0597
63825W        W 6737  10.578  27.418  23.642  0.0311 -0.1694 -0.3866
63826W        W 6738  11.146  26.332  21.194 -0.1819 -0.1055  0.0180
63827W        W 6739  10.712  28.721  22.026  0.0092  0.0743 -0.0819
63828W        W 6740  13.757  26.764  22.906 -0.1589 -0.0507 -0.0370
63829W        W 6741  14.571  25.541  21.268  0.0172  0.0338  0.0465
63830W        W 6742  12.478  27.506  22.861 -0.3176 -0.2380  0.1338
63831W        W 6743  11.294  27.725  23.001  0.1641 -0.1274 -0.1110
63832W        W 6744  10.519  27.437  20.605  0.1377 -0.0447 -0.0826
63833W        W 6745  13.783  27.308  22.666 -0.2181  0.0436  0.2480
63834W        W 6746  12.002  26.578  21.303  0.1787 -0.0954  0.0186
63835W        W 6747  10.894  28.722  21.094  0.2644 -0.0446  0.0093
63836W        W 6748  12.661  28.201  22.102  0.1453 -0.0538 -0.0632
63837W        W 6749  12.762  27.786  19.924  0.1887 -0.0080 -0.0939
63838W        W 6750  11.715  28.373  18.248 -0.0092 -0.0536 -0.0384
63839W        W 6751  11.327  27.457  22.548 -0.0979  0.0222  0.1054
63840W        W 6752  13.657  28.585  22.223 -0.3312 -0.2079  0.1968
63841W        W 6753  11.918  25.876  20.748 -0.0284 -0.1177 -0.3019
63842W        W 6754  11.488  26.731  19.714 -0.1600  0.2758  0.1971
63843W        W 6755  13.311  26.860  20.986 -0.2152  0.0219  0.2936
63844W        W 6756  12.981  27.333  21.980 -0.1059  0.1094 -0.0424
63845W        W 6757  13.335  27.037  22.738 -0.0343  0.2072  0.2766
63846W        W 6758  11.412  28.823  23.259 -0.1250  0.0325  0.2345
63847W        W 6759  12.563  26.107  22.796 -0.1078  0.0784 -0.0171
63848W        W 6760  13.831  30.215  20.776  0.1754  0.1972 -0.0821
63849W        W 6761  13.314  28.162  22.866  0.1499 -0.2277  0.0545
63850W        W 6762  12.042  28.497  19.156 -0.1335  0.1329 -0.3616
63851W        W 6763  12.113  28.330  22.060 -0.0908 -0.2888  0.1400
63852W        W 6764  12.203  27.695  20.837  0.1138  0.1916 -0.3565
63853W        W 6765  11.919  26.190  22.959  0.1860 -0.2834 -0.0161
63854W        W 6766   9.942  27.076  23.141  0.0239  0.0259  0.0466
63855W        W 6767  10.095  30.420  20.381 -0.2849 -0.1568  0.0058
63856W        W 6768  10.259  28.857  22.199 -0.2728 -0.3526  0.2361
63857W        W 6769  12.873  26.767  21.874  0.1663  0.4050 -0.3709
63858W        W 6770  12.252  27.392  20.115 -0.0134 -0.2550  0.0822
63859W        W 6771  12.651  26.549  20.486 -0.2088  0.0497  0.1858
63860W        W 6772  13.494  26.035  23.496 -0.0894  0.1472  0.3146
63861W        W 6773  13.698  26.431  21.507  0.2322 -0.0546  0.1941
63862W        W 6774  14.137  26.120  23.618  0.0759  0.0838  0.1320
63863W        W 6775  11.120  26.920  21.130  0.2394 -0.0543  0.0949
63864W        W 6776  13.664  27.905  21.799  0.0096 -0.0855 -0.0375
63865W        W 6777   9.210  27.614  22.774 -0.1029  0.2001  0.5322
63866W        W 6778  14.056  29.335  24.207  0.1916 -0.1141  0.2898
63867W        W 6779  11.337  28.675  22.670 -0.0893 -0.0404 -0.1765
63868W        W 6780  13.704  26.979  23.720  0.2516 -0.1298 -0.0578
63869W        W 6781  10.810  27.291  21.112  0.1259  0.2071 -0.0330
63870W        W 6782  10.904  27.874  22.576  0.1922  0.4139 -0.0268
63871W        W 6783  13.927  28.256  23.074  0.0864  0.1175 -0.2056
63872W        W 6784  13.047  28.724  18.243  0.0187  0.1118 -0.2582
63873W        W 6785  12.545  27.157  21.941  0.1554 -0.1837 -0.0926
63874W        W 6786  12.012  28.134  22.514 -0.0326  0.0430  0.3432
63875W        W 6787  13.522  27.846  21.130 -0.2679  0.5276 -0.2930
63876W        W 6788  12.703  28.833  20.477 -0.1094 -0.0506 -0.1232
63877W        W 6789  10.633  28.839  21.490  0.2853  0.0747  0.1742
63878W        W 6790  10.605  25.544  23.760 -0.0320  0.1524 -0.2335
63879W        W 6791  11.821  28.407  23.584 -0.1052 -0.0727 -0.2971
63880W        W 6792  13.281  26.040  21.496 -0.0793 -0.1390 -0.4377
63881W        W 6793  13.602  27.496  23.517  0.0894 -0.0663  0.0265
63882W        W 6794  13.458  27.002  23.216  0.0763 -0.0404  0.0256
63883W        W 6795  11.526  27.394  23.411 -0.0532 -0.0563  0.2446
63884W        W 6796  10.951  27.511  23.296 -0.0708  0.2192 -0.2101
63885W        W 6797  14.630  29.818  23.020  0.0968  0.0523  0.1046
63886W        W 6798  13.623  28.010  19.970  0.1912 -0.0969 -0.1818
63887W        W 6799  12.417  26.635  21.954 -0.1966 -0.1459 -0.1838
63888W        W 6800  13.194  27.593  21.499  0.0638 -0.0731 -0.3644
63889W        W 6801  12.084  27.194  20.993  0.1503  0.0418 -0.1242
63890W        W 6802  11.581  25.963  21.304  0.4553  0.2599  0.1426
63891W        W 6803  13.815  27.317  24.957 -0.1146  0.0204 -0.0136
63892W        W 6804  12.851  26.148  20.756 -0.0686  0.0187 -0.0997
63893W        W 6805  12.813  26.542  24.111  0.0992  0.3074  0.0927
63894W        W 6806  13.589  29.640  19.557 -0.0675  0.1268 -0.0975
63895W        W 6807  12.839  28.829  21.543  0.0713 -0.2464 -0.0055
63896W        W 6808  13.305  26.166  19.981 -0.0256 -0.1872 -0.2196
63897W        W 6809  10.755  26.314  22.007  0.0537 -0.0039 -0.1133
63898W        W 6810  10.558  29.569  22.913 -0.1896 -0.3515  0.4754
63899W        W 6811  11.876  25.576  21.462 -0.0411 -0.0618  0.2867
63900W        W 6812  12.337  27.308  19.155  0.1110 -0.1108  0.3220
63901W        W 6813  13.695  28.413  22.665 -0.0394  0.1423  0.2163
63902W        W 6814  15.178  27.928  23.431  0.1544 -0.1532  0.1861
63903W        W 6815  12.865  24.967  21.504  0.0677 -0.0613  0.1933
63904W        W 6816  13.826  28.128  23.567  0.2017  0.0031 -0.0871
63905W        W 6817  12.238  28.605  20.805 -0.0367 -0.1448  0.1680
63906W        W 6818  12.962  25.522  21.527 -0.1190 -0.0763 -0.4044
63907W        W 6819  10.913  28.394  21.644 -0.0731  0.0344 -0.0720
63908W        W 6820  11.214  28.091  22.193 -0.1799 -0.0967 -0.2574
63909W        W 6821  10.793  28.239  20.245  0.3331  0.0130  0.1485
63910W        W 6822  12.815  25.751  22.441 -0.0011 -0.0005 -0.3493
63911W        W 6823  13.158  27.589  24.281 -0.0140 -0.0616  0.0496
63912W        W 6824  11.884  27.584  22.678  0.0814 -0.2206  0.0940
63913W        W 6825  14.007  27.696  23.227  0.0897 -0.1339 -0.1754
63914W        W 6826  11.752  28.542  22.940 -0.2152  0.4499  0.2057
63915W        W 6827  11.712  27.083  21.332 -0.2130  0.1786  0.2594
63916W        W 6828  15.387  30.341  23.400 -0.0499 -0.1727 -0.0959
63917W        W 6829  15.018  27.323  23.680 -0.0249  0.2667  0.1693
63918W        W 6830  11.070  26.575  21.636 -0.0317  0.2186  0.0029
63919W        W 6831  11.378  26.965  23.286 -0.1247  0.0145 -0.2328
63920W        W 6832  12.941  27.647  23.845 -0.3129  0.1734  0.3178
63921W        W 6833  11.763  28.040  22.942 -0.0965  0.0678  0.0665
63922W        W 6834  12.385  26.310  19.511 -0.2821 -0.2191  0.3394
63923W        W 6835  13.749  28.743  20.239 -0.1349  0.1369 -0.2954
63924W        W 6836  12.121  27.543  24.244 -0.1306 -0.1703 -0.2576
63925W        W 6837  10.392  27.412  21.314 -0.3789 -0.2602 -0.1102
63926W        W 6838  11.174  29.748  20.190  0.0770  0.2395 -0.2048
63927W        W 6839  12.452  28.755  21.252 -0.1498 -0.0869 -0.3210
63928W        W 6840  12.477  27.748  20.402 -0.1179  0.1429  0.0763
63929W        W 6841  13.943  29.295  22.902 -0.1201  0.3693  0.2954
63930W        W 6842  12.032  26.676  20.727  0.1090  0.0004 -0.3092
63931W        W 6843  11.724  28.690  20.416  0.0084 -0.2625  0.1697
63932W        W 6844  10.231  29.852  18.785 -0.1997 -0.0319  0.1793
63933W        W 6845  13.955  28.894  21.449 -0.1468 -0.2072 -0.2233
63934W        W 6846  11.483  29.821  20.673 -0.0434  0.2175  0.2865
63935W        W 6847  14.405  29.120  22.574  0.0059  0.0683  0.1648
63936W        W 6848  12.706  25.408  21.130 -0.3623  0.2789 -0.1076
63937W        W 6849  14.581  26.988  21.799  0.2257 -0.0262  0.4442
63938W        W 6850  12.743  27.466  21.482 -0.0305 -0.0663  0.1343
63939W        W 6851  14.618  30.085  23.688  0.3107 -0.0876  0.0593
63940W        W 6852   9.954  28.004  20.794  0.3675  0.2513  0.3321
63941W        W 6853  10.691  26.302  21.513  0.2501  0.1895 -0.0621
63942W        W 6854  11.260  27.428  21.260  0.5231 -0.0111 -0.6977
63943W        W 6855  14.647  25.982  23.570 -0.4003  0.3764 -0.1007
63944W        W 6856  11.078  29.585  23.017  0.3219  0.2229  0.2382
63945W        W 6857  12.833  29.136  20.009  0.1554 -0.0166 -0.3609
63946W        W 6858  10.375  27.403  20.106  0.1090  0.1327  0.1320
63947W        W 6859  11.531  27.617  21.639 -0.2945 -0.0501  0.1367
63948W        W 6860  14.484  27.214  22.224 -0.1410 -0.0798  0.0992
63949W        W 6861  12.056  28.343  20.162  0.1713  0.0406  0.1501
63950W        W 6862  13.634  27.357  21.723  0.3027 -0.3150  0.0648
63951W        W 6863  11.846  28.673  21.324  0.3257  0.1789  0.0641
63952W        W 6864  10.580  27.977  21.517 -0.0097  0.1010 -0.0858
63953W        W 6865  10.812  26.812  22.109  0.0471  0.2714 -0.1217
63954W        W 6866   9.973  27.094  20.470  0.3757  0.1130 -0.1121
63955W        W 6867  13.709  27.584  22.200  0.0931  0.0863 -0.2492
63956W        W 6868  11.162  27.191  24.391  0.2152  0.0785 -0.0366
63957W        W 6869  12.811  27.014  21.277  0.1426  0.1141 -0.1704
63958W        W 6870  11.654  26.357  20.907 -0.3601  0.0945 -0.3996
63959W        W 6871  12.138  27.320  22.279 -0.0996 -0.1529 -0.0102
63960W        W 6872  12.903  28.053  24.603  0.1253  0.1908  0.1066
63961W        W 6873  10.431  26.786  23.041  0.0149 -0.4873 -0.0154
63962W        W 6874  13.342  27.965  20.691 -0.3733 -0.0055 -0.1274
63963W        W 6875  12.948  27.403  22.902 -0.6314  0.0053 -0.1821
63964W        W 6876  14.119  27.318  20.515 -0.2355 -0.0824 -0.0274
63965W        W 6877  11.482  28.034  24.521  0.0348  0.1517  0.0563
63966W        W 6878  11.148  26.635  20.618  0.0262 -0.2503  0.0935
63967W        W 6879  13.332  26.335  19.515  0.1694  0.0184  0.1052
63968W        W 6880  11.575  28.489  20.933  0.1354  0.2693 -0.1408
63969W        W 6881  11.099  27.880  21.632 -0.1453 -0.0625  0.0743
63970W        W 6882  13.652  30.743  22.923 -0.1306 -0.0146 -0.0684
63971W        W 6883  11.017  26.154  20.707 -0.1890 -0.4336 -0.2179
63972W        W 6884  12.892  29.719  21.017  0.1909  0.1054 -0.0981
63973W        W 6885  14.966  27.220  22.085 -0.0042  0.3058 -0.0083
63974W        W 6886  12.022  29.490  19.914  0.0605 -0.6111  0.1653
63975W        W 6887  12.604  28.186  22.625 -0.0765 -0.1687 -0.1306
63976W        W 6888  13.726  29.252  21.731 -0.1572 -0.2836 -0.1365
63977W        W 6889   9.912  26.675  22.216  0.0382 -0.2677 -0.0079
63978W        W 6890  14.159  28.870  22.961  0.5054 -0.3011 -0.0696
63979W        W 6891  14.811  28.645  23.592 -0.0732 -0.0922  0.2921
63980W        W 6892  12.446  26.024  20.433  0.1377 -0.2746 -0.0384
63981W        W 6893  12.163  27.127  22.730 -0.1864 -0.0098 -0.3450
63982W        W 6894  11.444  30.716  21.117 -0.0627  0.0955 -0.2749
63983W        W 6895  14.779  25.654  22.580  0.1978  0.3046  0.0668
63984W        W 6896  11.941  27.615  23.742 -0.0087  0.1533 -0.0559
63985W        W 6897  13.826  28.186  18.531  0.1479 -0.1758  0.1872
63986W        W 6898  13.690  26.351  24.387  0.0534  0.0618  0.3081
63987W        W 6899  12.542  29.511  22.645  0.1457 -0.1087 -0.0867
63988W        W 6900  10.355  27.771  23.051 -0.1798 -0.0924  0.1103
63989W        W 6901  11.679  27.137  19.927  0.0807 -0.1912  0.2364
63990W        W 6902  12.277  26.589  22.942 -0.1459  0.3575  0.1668
63991W        W 6903  13.011  26.958  20.210  0.1105 -0.1463  0.0395
63992W        W 6904  12.569  28.716  19.991 -0.2368 -0.0254 -0.1183
63993W        W 6905  12.157  27.857  22.013  0.1963 -0.0358 -0.3040
63994W        W 6906  12.356  28.339  21.651 -0.1291 -0.1198  0.0297
63995W        W 6907  14.483  30.607  22.360  0.1634  0.1464  0.1038
63996W        W 6908  13.141  26.511  20.600 -0.0245 -0.2166 -0.1868
63997W        W 6909  14.257  26.325  21.079  0.0171 -0.1800  0.1271
63998W        W 6910  14.544  26.285  21.888  0.2374  0.3092 -0.2121
63999W        W 6911  12.053  27.525  23.187 -0.1016 -0.2356 -0.0967
64000W        W 6912  11.523  27.463  20.299 -0.0301  0.0080 -0.1902
64001W        W 6913  12.285  28.157  20.584  0.2270  0.4048  0.2130
64002W        W 6914   9.412  27.042  22.020  0.2121 -0.1945  0.1546
64003W        W 6915  12.114  24.654  23.840 -0.2434  0.1482  0.1033
64004W        W 6916  11.380  25.416  23.584 -0.2378  0.2409  0.1917
64005W        W 6917  10.377  27.134  22.179  0.0012  0.4066  0.0627
64006W        W 6918  12.589  27.388  19.724  0.0127 -0.2044  0.1399
64007W        W 6919  13.282  28.132  21.494  0.0412 -0.0401 -0.2059
64008W        W 6920  11.271  27.053  22.186 -0.0863 -0.0111  0.0870
64009W        W 6921   8.997  25.819  20.673  0.1009  0.1293 -0.1290
64010W        W 6922  12.401  29.326  20.231  0.2869  0.2201  0.1329
64011W        W 6923  13.523  28.611  21.749 -0.1969  0.1546  0.3551
64012W        W 6924  12.065  26.915  22.046 -0.2937 -0.0166 -0.0101
64013W        W 6925  13.562  29.142  23.975  0.2841 -0.0295 -0.1297
64014W        W 6926  11.874  28.985  18.945  0.0349  0.0091  0.2185
64015W        W 6927  12.707  27.708  24.347 -0.1379 -0.1372  0.0814
64016W        W 6928  12.720  26.446  23.204  0.0021 -0.1238  0.0956
64017W        W 6929  10.763  26.551  19.328 -0.0313  0.1181 -0.2402
64018W        W 6930  12.566  26.792  23.664 -0.1289  0.0138  0.0050
64019W        W 6931  12.250  28.434  19.639 -0.3133 -0.0369  0.1098
64020W        W 6932  13.472  28.250  18.906  0.2222  0.0408 -0.1821
64021W        W 6933  12.059  28.831  22.128 -0.0354  0.0501  0.0066
64022W        W 6934  12.777  29.607  23.642 -0.1116 -0.1655  0.0944
64023W        W 6935   9.584  25.808  22.452  0.0364  0.0121  0.3341
64024W        W 6936  12.376  27.802  21.404  0.2233 -0.1687  0.3318
64025W        W 6937  11.143  28.277  21.124  0.3500 -0.0578 -0.1296
64026W        W 6938  12.507  29.596  20.671 -0.2877  0.1398  0.4417
64027W        W 6939  13.636  25.575  21.252 -0.1477  0.1045  0.1366
64028W        W 6940  12.856  27.716  20.712 -0.2196 -0.0086  0.2437
64029W        W 6941  10.540  26.698  23.847 -0.0908  0.0729 -0.2862
64030W        W 6942  10.752  27.525  22.841 -0.0658  0.1184  0.0425
64031W        W 6943  14.552  29.253  22.107  0.0224  0.0703  0.0780
64032W        W 6944  11.474  26.286  21.648 -0.0615  0.1573  0.0030
64033W        W 6945  13.269  26.295  21.048  0.0682  0.0957 -0.1132
64034W        W 6946  13.409  26.959  20.554 -0.1248 -0.0526 -0.0296
64035W        W 6947  10.209  26.801  21.348 -0.0407 -0.1616  0.2100
64036W        W 6948  12.090  28.274  21.123  0.0579 -0.1961 -0.2314
64037W        W 6949  13.240  27.129  21.598 -0.0876 -0.1826  0.1801
64038W        W 6950  11.573  27.954  22.478  0.1570  0.1083 -0.0756
64039W        W 6951  13.464  28.430  23.312  0.1151 -0.0961  0.1247
64040W        W 6952  11.713  27.534  19.278  0.0592  0.4733  0.0769
64041W        W 6953  14.532  27.595  20.303 -0.0423 -0.2258  0.2361
64042W        W 6954  12.618  30.128  23.309  0.1221 -0.1362 -0.0014
64043W        W 6955  15.280  28.309  24.722  0.3749 -0.1834 -0.3198
64044W        W 6956  13.056  28.423  21.897  0.2347 -0.1524  0.0407
64045W        W 6957  12.156  27.468  21.698  0.3912 -0.0599 -0.3656
64046W        W 6958   9.678  25.674  23.890 -0.1331  0.4470 -0.0824
64047W        W 6959  10.000  28.050  20.198  0.0120  0.0297 -0.1334
64048W        W 6960  12.969  26.218  21.798  0.2345 -0.1180  0.2349
64049W        W 6961  13.338  26.473  23.347  0.1210  0.2184  0.0617
64050W        W 6962  12.556  26.630  21.486 -0.0915 -0.0291 -0.0888
64051W        W 6963  13.855  26.226  22.099 -0.1396  0.0746 -0.1109
64052W        W 6964  12.201  28.670  22.683  0.0742 -0.0040  0.2494
64053W        W 6965  13.529  27.925  23.224 -0.5058  0.1437 -0.1301
64054W        W 6966  11.091  28.531  26.546  0.1926 -0.0889 -0.1113
64055W        W 6967  13.419  27.545  25.091  0.4047  0.0725  0.0910
64056W        W 6968  13.931  26.297  23.160  0.4052  0.0320 -0.1418
64057W        W 6969  14.531  27.573  23.371  0.1273 -0.1344  0.2393
64058W        W 6970   9.655  27.130  25.199  0.2314  0.1161  0.0105
64059W        W 6971  13.835  29.032  26.365  0.2729 -0.3159  0.0821
64060W        W 6972  10.739  25.991  28.293  0.0364  0.1757 -0.2252
64061W        W 6973  13.571  27.533  24.582  0.3304 -0.2927  0.2314
64062W        W 6974  14.693  28.797  27.445  0.0062 -0.3065  0.1666
64063W        W 6975  12.816  28.448  23.776  0.1403  0.0470 -0.0268
64064W        W 6976  12.167  26.315  26.113 -0.3533  0.1260  0.0029
64065W        W 6977  12.936  28.789  26.021 -0.0823 -0.0426 -0.0097
64066W        W 6978  11.741  25.976  24.365 -0.1447  0.3108  0.3174
64067W        W 6979   9.911  26.207  26.045 -0.1745  0.2412  0.1754
64068W        W 6980  13.970  28.604  26.673 -0.1035  0.0081  0.3400
64069W        W 6981  10.417  27.288  23.194  0.1282 -0.2672 -0.4299
64070W        W 6982  11.949  26.626  25.703 -0.1576  0.2319 -0.0403
64071W        W 6983  12.671  25.985  25.377 -0.2152  0.0361  0.0378
64072W        W 6984  12.478  29.890  24.686  0.0147 -0.1475  0.0576
64073W        W 6985  13.677  25.921  25.692 -0.1845  0.1646 -0.0647
64074W        W 6986  12.557  26.971  25.345 -0.0069 -0.0196  0.1170
64075W        W 6987  13.204  29.339  23.591 -0.1264  0.0112 -0.0128
64076W        W 6988  11.386  26.143  24.027 -0.0712  0.0349  0.1030
64077W        W 6989  10.368  27.109  26.088 -0.0471  0.2855  0.0752
64078W        W 6990  12.007  26.823  26.424 -0.1478 -0.1133 -0.1131
64079W        W 6991  14.001  26.239  26.800  0.0608  0.0944 -0.0549
64080W        W 6992  13.531  27.454  25.627 -0.1137 -0.2486  0.0615
64081W        W 6993  12.322  29.728  23.346 -0.1143 -0.4490  0.1645
64082W        W 6994  11.928  29.426  26.828 -0.0443  0.0168  0.3824
64083W        W 6995  13.231  26.066  27.342 -0.6245 -0.1146 -0.0538
64084W        W 6996  10.434  29.165  24.770 -0.0184 -0.0330 -0.2706
64085W        W 6997  10.985  28.583  25.510  0.0531 -0.3109 -0.0052
64086W        W 6998  11.226  29.358  24.587  0.3917 -0.0799 -0.2138
64087W        W 6999  13.967  28.746  25.262 -0.2181  0.0698 -0.0785
64088W        W 7000  13.081  29.285  27.503  0.1123 -0.1274  0.1055
64089W        W 7001  10.276  28.761  28.475  0.0946 -0.1068 -0.1563
64090W        W 7002  11.210  27.290  24.942  0.1664 -0.3035 -0.1104
64091W        W 7003  13.077  27.845  26.734  0.2678  0.0778  0.1607
64092W        W 7004  11.609  28.972  27.891 -0.0588  0.0900  0.4117
64093W        W 7005  13.404  27.162  24.295  0.0984  0.1081 -0.1251
64094W        W 7006  12.816  27.243  24.452  0.1186 -0.2871 -0.1250
64095W        W 7007  13.184  29.294  22.877  0.0112  0.1471  0.1323
64096W        W 7008  12.472  28.173  25.525  0.0107 -0.0506  0.0951
64097W        W 7009  12.616  28.785  27.417  0.2060 -0.0807  0.1124
64098W        W 7010  11.013  30.430  25.036 -0.2459 -0.1324 -0.1104
64099W        W 7011  14.266  25.917  27.750  0.2941 -0.0888 -0.0546
64100W        W 7012  10.928  27.756  24.907  0.0852  0.2775 -0.1325
64101W        W 7013  13.642  26.020  23.961 -0.3026  0.1857  0.0969
64102W        W 7014  12.124  25.441  24.162 -0.1521 -0.1662 -0.2648
64103W        W 7015  13.518  25.436  24.229  0.0284  0.1224  0.0577
64104W        W 7016  11.944  25.830  25.128 -0.1143 -0.1252  0.1224
64105W        W 7017  12.225  28.692  25.469  0.1507  0.0842  0.0047
64106W        W 7018  12.940  26.777  25.576  0.0710 -0.1990  0.0055
64107W        W 7019  14.583  27.632  28.051 -0.0843 -0.2958  0.6292
64108W        W 7020  12.378  27.289  23.793  0.3114 -0.0217 -0.2913
64109W        W 7021  12.936  26.699  25.092 -0.2688 -0.1807  0.0610
64110W        W 7022  12.325  28.131  26.065 -0.1616  0.3000  0.0322
64111W        W 7023  10.646  27.941  25.764 -0.3005 -0.0636 -0.1574
64112W        W 7024  12.788  29.089  24.293  0.2682  0.0073 -0.1317
64113W        W 7025  14.030  29.681  25.069  0.3012  0.2570 -0.1548
64114W        W 7026  13.539  29.015  25.485 -0.0146  0.2895  0.3213
64115W        W 7027  11.566  27.048  25.315  0.0102 -0.0728 -0.2660
64116W        W 7028  10.455  28.319  27.299  0.4056 -0.2353 -0.2952
64117W        W 7029  12.509  25.714  26.876  0.0583 -0.1476  0.2137
64118W        W 7030  12.462  25.037  22.860 -0.3462 -0.1184  0.1969
64119W        W 7031  14.604  27.926  26.629 -0.0756 -0.1508 -0.0022
64120W        W 7032  11.994  28.610  26.328 -0.0189  0.0968  0.2857
64121W        W 7033  14.356  27.107  26.236  0.0967 -0.0238 -0.0700
64122W        W 7034  12.066  29.336  23.550 -0.2060 -0.2217  0.2163
64123W        W 7035  14.362  28.773  27.038  0.3128  0.1613  0.1702
64124W        W 7036  14.299  28.391  22.833  0.1009  0.0901  0.1247
64125W        W 7037  15.065  26.408  25.389  0.0619  0.0450 -0.2810
64126W        W 7038  13.418  25.242  26.177 -0.2224  0.0995  0.1239
64127W        W 7039  12.351  26.752  24.240 -0.0306  0.0625 -0.0810
64128W        W 7040  11.787  28.056  23.946  0.1752  0.2287  0.1642
64129W        W 7041  14.701  28.338  26.412 -0.0107  0.1295  0.0402
64130W        W 7042  13.967  27.238  23.113  0.0802  0.2859  0.1280
64131W        W 7043  11.819  28.142  26.265  0.0217  0.3414 -0.0418
64132W        W 7044  13.157  25.962  25.768 -0.0446 -0.1137  0.3604
64133W        W 7045  11.481  29.467  27.952 -0.1525  0.3876  0.0723
64134W        W 7046  11.764  28.775  24.595 -0.0754  0.2529  0.0712
64135W        W 7047  10.879  28.105  25.288 -0.2638 -0.1745 -0.3052
64136W        W 7048  12.555  28.177  24.194 -0.1708  0.4294 -0.1762
64137W        W 7049  10.898  27.155  25.365 -0.2486 -0.0807 -0.0486
64138W        W 7050  11.307  30.164  25.411 -0.1320  0.0698  0.3199
64139W        W 7051  13.848  26.735  26.178 -0.1798 -0.0191  0.2881
64140W        W 7052  12.609  25.115  25.657  0.0250 -0.0391  0.4178
64141W        W 7053  15.395  26.455  23.016 -0.0680 -0.0842 -0.0107
64142W        W 7054  13.404  28.035  24.367  0.1145  0.3752 -0.0995
64143W        W 7055  14.204  28.996  27.447 -0.2552  0.1230 -0.2602
64144W        W 7056  15.345  26.765  24.368 -0.2267  0.1090 -0.2406
64145W        W 7057  14.850  29.338  22.570  0.2087  0.0562 -0.3301
64146W        W 7058  11.130  26.740  25.195 -0.2036 -0.0755  0.1117
64147W        W 7059  13.788  27.360  24.076  0.3329  0.0194 -0.1552
64148W        W 7060  10.357  26.039  27.009  0.1837 -0.1488 -0.2098
64149W        W 7061  12.573  27.565  26.101  0.1419  0.1681  0.0925
64150W        W 7062  12.647  28.083  27.722  0.2863 -0.0126  0.1187
64151W        W 7063  11.182  26.665  24.186 -0.0491 -0.0721 -0.0273
64152W        W 7064  14.024  26.480  24.732  0.2578  0.1116 -0.1020
64153W        W 7065  11.983  27.083  24.045  0.1420  0.1785  0.0948
64154W        W 7066  11.465  29.046  24.245 -0.0174  0.1870 -0.0667
64155W        W 7067  13.798  26.479  25.698 -0.1405  0.0082 -0.1219
64156W        W 7068  11.890  29.438  25.985 -0.1177 -0.1768  0.1439
64157W        W 7069  15.121  28.678  27.061 -0.0723 -0.0172  0.0293
64158W        W 7070  14.352  29.101  26.503  0.0627  0.1388  0.2652
64159W        W 7071  10.975  27.324  27.715  0.1327 -0.1343 -0.1555
64160W        W 7072  10.606  25.766  23.308  0.3000  0.0420 -0.0264
64161W        W 7073  11.816  30.594  25.830  0.0756 -0.1408  0.1480
64162W        W 7074  12.402  28.658  25.967 -0.0702  0.3718 -0.1805
64163W        W 7075  12.667  25.613  23.865 -0.2869 -0.1389  0.0228
64164W        W 7076  13.425  29.314  26.299  0.1624  0.0392 -0.0226
64165W        W 7077  12.929  28.388  25.091  0.2397 -0.0693  0.0716
64166W        W 7078  11.916  28.497  27.691  0.2818 -0.0909 -0.1707
64167W        W 7079  14.148  25.257  26.478 -0.0769  0.0514  0.0521
64168W        W 7080  13.388  29.465  25.793  0.1716  0.0779 -0.0264
64169W        W 7081  14.702  26.757  25.448  0.1189  0.2582 -0.0540
64170W        W 7082  11.422  26.408  23.123  0.0942 -0.0315 -0.3067
64171W        W 7083  14.096  29.993  25.992 -0.1892  0.0101 -0.0830
64172W        W 7084  11.389  28.645  23.725  0.1028  0.2009  0.2454
64173W        W 7085  11.784  28.808  25.175 -0.0740  0.3514 -0.0146
64174W        W 7086  13.415  28.904  26.061  0.1722  0.2484 -0.1601
64175W        W 7087  13.757  25.803  24.425  0.0561  0.0540 -0.1672
64176W        W 7088   9.816  27.392  27.609  0.2303 -0.1224  0.0736
64177W        W 7089  12.347  26.668  26.752 -0.1715 -0.1104 -0.1115
64178W        W 7090  10.887  26.365  24.504 -0.0442 -0.0955  0.1045
64179W        W 7091  10.823  27.998  27.343 -0.0457  0.1196 -0.0592
64180W        W 7092  13.645  25.352  25.205  0.1064 -0.2353  0.1180
64181W        W 7093  13.967  27.164  24.515  0.1037  0.2997 -0.2161
64182W        W 7094  13.047  27.674  27.526  0.3395  0.0206  0.1851
64183W        W 7095  14.986  28.331  23.218 -0.0734 -0.1858 -0.1776
64184W        W 7096  12.257  25.477  23.634 -0.2372  0.1873 -0.0619
64185W        W 7097  13.811  25.467  23.582  0.0492 -0.0991 -0.3072
64186W        W 7098  11.281  29.304  27.450 -0.2050  0.1077 -0.1951
64187W        W 7099  12.267  28.070  24.731 -0.3711  0.1120 -0.2053
64188W        W 7100  12.220  27.136  25.930 -0.2703 -0.0622 -0.0100
64189W        W 7101  13.035  27.601  24.754  0.0770 -0.0887  0.2112
64190W        W 7102  15.236  28.814  23.378  0.1035 -0.0846  0.3592
64191W        W 7103  11.136  28.058  26.379 -0.1130 -0.1387 -0.0789
64192W        W 7104  14.040  27.862  26.727 -0.0042  0.0663  0.0852
64193W        W 7105  12.713  30.000  25.626  0.1372 -0.0440 -0.1110
64194W        W 7106  13.006  27.072  26.762 -0.0775  0.2485  0.1820
64195W        W 7107  11.825  26.731  23.237  0.2718 -0.1859 -0.0256
64196W        W 7108  12.498  25.059  23.940 -0.0178 -0.0791  0.0043
64197W        W 7109   9.726  28.575  24.560 -0.1466 -0.0717 -0.3415
64198W        W 7110  13.533  26.168  26.086  0.0859  0.0583 -0.1860
64199W        W 7111  13.734  26.340  25.128  0.2206 -0.3996 -0.2819
64200W        W 7112  13.140  26.374  26.887  0.4292  0.0310 -0.0677
64201W        W 7113  14.945  27.446  27.701  0.1227 -0.0153 -0.2731
64202W        W 7114  14.479  27.795  25.601  0.1464  0.0890 -0.0169
64203W        W 7115  13.708  28.443  26.267  0.1664  0.1578  0.0259
64204W        W 7116  11.465  26.677  23.702 -0.1706  0.1486 -0.0964
64205W        W 7117  12.411  26.169  26.507 -0.2271  0.0968 -0.2599
64206W        W 7118  11.884  27.762  26.645  0.5250 -0.1726 -0.0429
64207W        W 7119  11.745  28.333  27.123 -0.1267 -0.3240  0.0336
64208W        W 7120  12.698  29.600  27.299  0.0278  0.0495  0.3137
64209W        W 7121  13.343  27.095  24.816 -0.3224 -0.0277 -0.1809
64210W        W 7122  11.873  26.857  26.968 -0.2377 -0.0333 -0.0932
64211W        W 7123  12.211  26.254  24.286  0.1256 -0.2139  0.0105
64212W        W 7124  11.127  29.097  23.864  0.0431  0.3469 -0.1512
64213W        W 7125  11.579  29.136  23.637  0.0040 -0.1209  0.3925
64214W        W 7126  13.722  25.253  25.709  0.0238  0.1850 -0.3093
64215W        W 7127  11.287  28.248  27.313  0.1034  0.0874 -0.0328
64216W        W 7128  11.362  27.896  23.609 -0.1796  0.0805  0.1298
64217W        W 7129  13.561  27.615  26.660  0.0661 -0.0147  0.2637
64218W        W 7130  11.262  28.951  25.193  0.1237 -0.1933  0.0637
64219W        W 7131  15.364  25.600  26.335 -0.1024  0.1413  0.1100
64220W        W 7132  11.887  28.322  25.325 -0.0964 -0.1207 -0.3129
64221W        W 7133  11.868  26.557  24.185 -0.1980 -0.1586 -0.1887
64222W        W 7134  10.326  27.568  25.888  0.1671 -0.1088  0.1764
64223W        W 7135  14.210  26.780  25.818 -0.2946  0.2581  0.0450
64224W        W 7136  14.784  27.840  22.878 -0.2144  0.0427  0.5518
64225W        W 7137  12.777  26.585  26.576  0.3201  0.0732  0.2750
64226W        W 7138  14.303  26.204  25.991  0.1868  0.1861  0.5256
64227W        W 7139  10.169  29.180  25.131  0.1818 -0.1008  0.1292
64228W        W 7140  13.526  27.067  26.544 -0.1541 -0.0157 -0.4677
64229W        W 7141  13.121  26.119  23.011 -0.0208  0.3925 -0.1343
64230W        W 7142  13.329  26.806  27.034  0.0452 -0.0215  0.1721
64231W        W 7143  13.220  27.484  27.053 -0.0713  0.1079 -0.3646
64232W        W 7144  12.262  25.885  23.962 -0.2230 -0.1908  0.0376
64233W        W 7145  14.303  27.436  24.987  0.2163  0.1394 -0.0880
64234W        W 7146  11.706  25.687  23.886 -0.0402  0.1437  0.4157
64235W        W 7147  12.044  30.162  23.386 -0.2798  0.2565  0.0893
64236W        W 7148  12.602  30.267  27.082  0.1732  0.0430 -0.0839
64237W        W 7149  12.789  27.102  24.010  0.1325  0.0424 -0.2373
64238W        W 7150  12.529  28.677  24.111  0.0496  0.0175  0.0673
64239W        W 7151  10.759  27.106  28.673  0.1596 -0.3903  0.0275
64240W        W 7152  13.908  27.752  25.821 -0.1180  0.0894  0.0121
64241W        W 7153  13.813  25.824  25.190  0.1811 -0.1913  0.0330
64242W        W 7154  11.890  26.507  25.131  0.1439  0.0928 -0.0583
64243W        W 7155  14.335  27.117  25.419 -0.2303 -0.4322  0.0061
64244W        W 7156  12.942  27.013  26.230  0.0499  0.0783 -0.3923
64245W        W 7157  13.387  26.574  26.383 -0.0213 -0.1293  0.0708
64246W        W 7158  12.408  27.895  26.916 -0.0036 -0.1438 -0.1458
64247W        W 7159  13.553  25.554  26.563  0.1048 -0.1824 -0.2952
64248W        W 7160  15.297  29.441  25.041 -0.1924 -0.2081  0.1383
64249W        W 7161  13.671  26.595  26.767  0.0597 -0.1287  0.1905
64250W        W 7162  11.989  27.413  25.538 -0.3001 -0.2287 -0.1091
64251W        W 7163  11.486  27.711  25.531  0.3503  0.0031 -0.0467
64252W        W 7164  11.921  27.166  24.645 -0.1141  0.0811  0.0209
64253W        W 7165  13.433  26.986  25.931 -0.2749  0.1706  0.0497
64254W        W 7166  13.531  28.106  25.824 -0.0555 -0.0958  0.3380
64255W        W 7167  11.047  29.083  23.266  0.0993  0.3440  0.0549
64256W        W 7168  12.367  29.131  26.215  0.0107 -0.0197 -0.3228
64257W        W 7169  13.310  25.117  24.909 -0.0352  0.0660 -0.1058
64258W        W 7170  12.796  27.909  23.018 -0.1382  0.5318 -0.2581
64259W        W 7171  13.392  26.588  25.453  0.2360  0.0832 -0.0672
64260W        W 7172  15.230  27.357  25.146 -0.0358 -0.2736  0.0440
64261W        W 7173  13.484  28.448  24.074 -0.0242  0.2325 -0.3740
64262W        W 7174  13.699  24.322  27.220  0.4424 -0.2445 -0.0070
64263W        W 7175  12.808  25.828  26.431  0.1475 -0.1391 -0.4699
64264W        W 7176  14.327  28.678  25.639 -0.0652  0.1060  0.0096
64265W        W 7177  10.626  27.518  26.618 -0.2600 -0.0478 -0.0845
64266W        W 7178  13.678  28.366  27.547 -0.2778 -0.2976 -0.0605
64267W        W 7179  11.421  27.048  27.675  0.2034 -0.2890 -0.0151
64268W        W 7180  13.194  26.820  23.686 -0.2250  0.0636 -0.0618
64269W        W 7181  12.499  23.134  22.622 -0.1512  0.0028  0.0648
64270W        W 7182  13.216  28.572  25.672  0.0020  0.0579 -0.0127
64271W        W 7183  15.125  29.276  26.261  0.3713 -0.1854  0.1390
64272W        W 7184  13.422  29.253  25.051 -0.2128 -0.0680 -0.2502
64273W        W 7185  14.155  26.931  24.885  0.0226 -0.1248 -0.0906
64274W        W 7186  11.732  27.048  25.859  0.0935 -0.2488  0.2342
64275W        W 7187  14.763  27.421  24.240  0.2070  0.0613  0.0870
64276W        W 7188  11.615  27.673  24.229  0.0439 -0.0413 -0.0661
64277W        W 7189  11.901  28.327  24.337  0.1881 -0.3987  0.3903
64278W        W 7190  11.786  25.207  26.084 -0.0016  0.1162  0.0530
64279W        W 7191  14.531  27.943  25.017 -0.2081 -0.0240  0.1034
64280W        W 7192  12.718  26.061  24.180  0.0295  0.1113 -0.3721
64281W        W 7193  12.751  26.775  27.077 -0.3590 -0.0045  0.1954
64282W        W 7194  12.530  26.669  25.990 -0.3316 -0.1758 -0.0580
64283W        W 7195  10.497  28.406  28.186  0.0032 -0.0495  0.0775
64284W        W 7196  11.345  25.818  26.741  0.0028 -0.1345 -0.1033
64285W        W 7197  13.168  28.491  27.065 -0.1781 -0.3538  0.1953
64286W        W 7198  13.940  27.823  24.287  0.0743  0.2533 -0.3377
64287W        W 7199  14.208  27.630  26.251  0.1197 -0.3344 -0.0449
64288W        W 7200  14.184  26.032  24.952  0.0139 -0.0872 -0.4513
64289W        W 7201  12.488  28.147  23.536  0.0099 -0.0437  0.3347
64290W        W 7202  12.589  26.851  24.753 -0.2642  0.0285 -0.1616
64291W        W 7203  13.495  27.365  27.442 -0.1507 -0.2040  0.2616
64292W        W 7204  11.682  26.125  22.153  0.1040 -0.2746 -0.0069
64293W        W 7205  13.547  25.692  28.358  0.4107 -0.0307  0.0394
64294W        W 7206  11.922  29.235  23.997 -0.2156 -0.2375 -0.1361
64295W        W 7207  13.593  28.199  26.700 -0.1057  0.1959  0.1796
64296W        W 7208  13.424  26.578  24.771  0.1034 -0.0966 -0.2301
64297W        W 7209  10.800  26.647  25.575  0.0002 -0.0794  0.0070
64298W        W 7210  10.147  27.681  27.373 -0.1030 -0.4084  0.1872
64299W        W 7211  12.155  26.492  22.397 -0.1642  0.1172  0.3305
64300W        W 7212  13.813  27.625  27.121  0.0904 -0.2874  0.0556
64301W        W 7213  12.461  27.009  26.422  0.2818 -0.2831  0.1833
64302W        W 7214  14.095  26.176  28.682  0.0955 -0.0491  0.1967
64303W        W 7215  12.299  24.766  24.733 -0.1786  0.0361 -0.0503
64304W        W 7216  14.139  28.275  25.868 -0.0131 -0.2353  0.0774
64305W        W 7217  11.394  28.523  24.343 -0.1204  0.2094  0.0602
64306W        W 7218  12.846  25.351  26.163  0.2163 -0.1058 -0.2008
64307W        W 7219  12.180  28.995  26.677 -0.2228  0.2003  0.0910
64308W        W 7220  10.614  28.467  26.335 -0.0464 -0.2147 -0.2807
64309W        W 7221  11.705  30.061  24.212 -0.0909 -0.3863  0.0749
64310W        W 7222  12.973  24.574  25.825 -0.4342 -0.1907  0.2822
64311W        W 7223  13.722  27.442  26.199  0.0331 -0.1651  0.1646
64312W        W 7224  12.655  26.435  24.563 -0.1043 -0.2369  0.1769
64313W        W 7225  14.518  26.950  26.859 -0.1649  0.0663 -0.2494
64314W        W 7226  13.825  28.726  27.164 -0.0750  0.1371  0.3081
64315W        W 7227  12.154  27.894  25.226  0.3266 -0.2379  0.0131
64316W        W 7228  12.811  27.946  27.134 -0.0010  0.0151 -0.3185
64317W        W 7229  13.869  27.842  24.883  0.2795  0.0252 -0.2335
64318W        W 7230  12.654  27.909  26.447 -0.0177  0.2339  0.0930
64319W        W 7231  11.067  27.257  28.219 -0.0236 -0.1670 -0.3048
64320W        W 7232  12.695  26.155  26.956  0.0496 -0.1809 -0.1313
64321W        W 7233  13.518  28.750  26.767  0.3899  0.3742  0.0370
64322W        W 7234  12.032  26.653  24.636  0.0676 -0.1027  0.2845
64323W        W 7235  13.473  29.352  24.398  0.0439  0.1220 -0.3609
64324W        W 7236  10.052  28.164  28.223  0.0880  0.1301  0.1621
64325W        W 7237  10.542  26.930  27.578 -0.2166  0.2802 -0.2956
64326W        W 7238  11.238  29.919  24.086  0.0799 -0.1439 -0.0516
64327W        W 7239  14.596  29.788  24.080 -0.0311  0.0497  0.3151
64328W        W 7240  14.008  28.248  24.081  0.0442 -0.4222  0.0510
64329W        W 7241  12.911  29.340  26.095 -0.2916  0.2265 -0.1062
64330W        W 7242  13.703  26.825  25.108 -0.1825 -0.2764 -0.2906
64331W        W 7243  12.055  27.892  25.736  0.2540 -0.1238  0.1773
64332W        W 7244  10.525  28.749  22.892 -0.3087  0.3642  0.1454
64333W        W 7245  14.570  29.330  22.979  0.0120 -0.0035  0.1255
64334W        W 7246  10.719  28.763  23.636 -0.2569 -0.1350  0.0449
64335W        W 7247  13.570  28.033  28.069  0.1399  0.1103 -0.0805
64336W        W 7248  14.371  26.110  23.068 -0.1581  0.0730 -0.0225
64337W        W 7249  14.219  28.188  24.596 -0.0678 -0.1599 -0.0535
64338W        W 7250  13.783  26.823  24.187 -0.0110  0.0304  0.3281
64339W        W 7251  13.024  28.298  26.609  0.1470  0.0583  0.0762
64340W        W 7252  12.726  27.181  25.800 -0.0074  0.2111 -0.0846
64341W        W 7253  12.379  26.449  24.965  0.0257 -0.0861 -0.0901
64342W        W 7254  11.585  26.639  26.189  0.1621 -0.1120 -0.0505
64343W        W 7255  14.000  25.491  27.956 -0.3706  0.0435 -0.0756
64344W        W 7256  11.562  27.897  27.573 -0.2725  0.0053 -0.2647
64345W        W 7257  13.874  29.562  25.737 -0.1736  0.1916 -0.0568
64346W        W 7258  12.333  27.844  23.875  0.1231  0.0964 -0.2689
64347W        W 7259  14.019  27.631  25.352  0.0052  0.0841  0.0587
64348W        W 7260  14.322  26.554  26.348 -0.0023  0.1045  0.1669
64349W        W 7261  11.821  27.848  24.794 -0.1550  0.2181  0.0455
64350W        W 7262  13.742  27.924  26.326 -0.0641 -0.6033 -0.2920
64351W        W 7263  12.068  29.673  24.208  0.0793 -0.2324  0.0111
64352W        W 7264  12.407  27.483  26.575  0.3380 -0.1090  0.0038
64353W        W 7265  11.990  28.930  25.891  0.0969  0.0087  0.0661
64354W        W 7266  11.606  26.940  24.322 -0.0498 -0.2254  0.0245
64355W        W 7267  14.468  28.058  24.178 -0.1986 -0.2277 -0.1055
64356W        W 7268  12.231  27.171  26.885 -0.0101 -0.3304  0.1713
64357W        W 7269  15.140  26.568  25.868  0.2783 -0.1040 -0.0907
64358W        W 7270  12.558  27.714  25.623  0.1215  0.1698  0.1462
64359W        W 7271  14.732  28.174  23.608 -0.1252 -0.1332 -0.2152
64360W        W 7272  11.484  28.136  25.871  0.1204 -0.0174  0.1433
64361W        W 7273  11.218  27.340  25.858 -0.1529  0.0093 -0.2200
64362W        W 7274  12.298  27.002  23.250 -0.2059  0.1080 -0.0203
64363W        W 7275  14.723  27.508  26.237  0.0421 -0.1007  0.5191
64364W        W 7276  12.868  27.178  23.428  0.0495  0.0366 -0.1072
64365W        W 7277  13.848  28.208  27.100 -0.3436  0.2009 -0.2904
64366W        W 7278  13.207  27.923  26.256 -0.0561  0.3437  0.3721
64367W        W 7279  12.967  26.342  23.689  0.0669  0.1691 -0.0106
64368W        W 7280  11.753  27.432  25.039 -0.2142  0.1212 -0.4098
64369W        W 7281  13.974  27.254  25.815 -0.0032  0.2760  0.0255
64370W        W 7282  12.086  27.981  27.705  0.0297  0.0471  0.2144
64371W        W 7283  11.486  26.230  24.893 -0.1137 -0.3246 -0.0639
64372W        W 7284  13.784  28.414  24.492  0.2690  0.1862  0.0049
64373W        W 7285  13.217  27.431  25.992  0.1893 -0.1101 -0.0782
64374W        W 7286  11.837  29.988  22.414  0.1529  0.0434  0.2030
64375W        W 7287  13.501  28.456  25.200  0.0636  0.1820 -0.0479
64376W        W 7288  13.383  27.987  27.057  0.1361 -0.1153  0.1081
64377W        W 7289  10.951  26.705  26.873  0.3229  0.0004  0.1079
64378W        W 7290  12.662  28.527  26.996  0.2063  0.1683  0.0364
64379W        W 7291  13.647  30.035  25.056 -0.3865 -0.0313 -0.1272
64380W        W 7292  13.176  24.738  23.451 -0.0256 -0.0494 -0.2435
64381W        W 7293  13.318  27.086  25.319 -0.1144  0.0009 -0.2780
64382W        W 7294   9.967  29.265  22.504  0.1128 -0.0550 -0.1009
64383W        W 7295  14.095  26.878  26.635  0.3055 -0.3018  0.1704
64384W        W 7296  12.634  25.796  27.967  0.0250 -0.1324  0.0948
64385W        W 7297  12.236  29.066  24.377  0.0571  0.3204 -0.0747
64386W        W 7298  13.446  26.269  27.757  0.1430 -0.0166 -0.0652
64387W        W 7299  12.323  29.224  27.106  0.0324  0.0190 -0.0723
64388W        W 7300  11.731  27.779  27.991  0.0424 -0.3808  0.1669
64389W        W 7301  12.039  27.009  25.138 -0.2145  0.3807  0.1175
64390W        W 7302  12.885  28.122  25.928 -0.4859  0.0895  0.2475
64391W        W 7303  13.092  28.062  25.448 -0.1431  0.1404 -0.1765
64392W        W 7304  12.266  28.593  24.555 -0.4117  0.0431 -0.0539
64393W        W 7305  14.993  27.653  26.792  0.1280  0.1671  0.3036
64394W        W 7306  12.974  26.031  24.906  0.0735 -0.0965  0.1950
64395W        W 7307  13.117  28.833  25.233 -0.3016 -0.0332 -0.1430
64396W        W 7308  13.148  25.807  23.965  0.0330  0.0852 -0.1890
64397W        W 7309  14.368  25.794  24.096  0.1374  0.1654 -0.0322
64398W        W 7310  14.334  26.189  24.466 -0.2001 -0.3174 -0.2247
64399W        W 7311  11.405  27.677  26.595 -0.1039  0.2218  0.0677
64400W        W 7312  11.525  27.133  23.883 -0.0458 -0.2647 -0.1496
64401W        W 7313  11.474  27.536  24.635  0.2488  0.1662 -0.0667
64402W        W 7314  11.407  28.464  24.888 -0.2610 -0.1803 -0.0854
64403W        W 7315  12.525  24.264  28.661  0.0977  0.1431 -0.0275
64404W        W 7316  10.853  26.149  27.114 -0.1040 -0.2788  0.0949
64405W        W 7317   9.518  28.758  25.769  0.0107  0.2474 -0.1982
64406W        W 7318   9.925  26.661  24.827 -0.1317  0.1256 -0.2327
64407W        W 7319  13.069  27.658  23.355 -0.0544 -0.1128 -0.4362
64408W        W 7320  12.822  27.264  25.060 -0.0876  0.0727  0.0454
64409W        W 7321  10.916  26.979  25.990 -0.0804 -0.2214 -0.0115
64410W        W 7322  14.881  28.005  24.426  0.2983  0.0045 -0.0006
64411W        W 7323  13.294  28.100  24.907  0.1438  0.0378  0.0722
64412W        W 7324  12.317  25.335  24.799  0.3403  0.2076  0.2444
64413W        W 7325  13.688  27.489  28.316 -0.0214 -0.0296 -0.1685
64414W        W 7326  10.969  28.596  23.132  0.0907 -0.1976 -0.1623
64415W        W 7327  12.272  28.272  27.398 -0.2275 -0.2593  0.3971
64416W        W 7328  12.713  26.650  27.802  0.1350  0.0200 -0.3832
64417W        W 7329  11.030  25.653  24.122  0.0012  0.1302 -0.0847
64418W        W 7330  13.021  26.801  24.476 -0.2942  0.0049  0.1455
64419W        W 7331  12.757  28.578  25.555 -0.1777  0.0164 -0.1699
64420W        W 7332  13.743  28.898  24.383 -0.0345 -0.0652 -0.1538
64421W        W 7333  12.976  27.461  26.460  0.2673  0.0375  0.1346
64422W        W 7334  11.436  27.890  27.041  0.1513 -0.0867  0.0499
64423W        W 7335  10.909  25.946  26.390 -0.1168 -0.1107 -0.0903
64424W        W 7336  14.155  28.835  24.727  0.1404 -0.0927 -0.1562
64425W        W 7337  11.765  28.734  26.787 -0.1341  0.0065 -0.2510
64426W        W 7338  14.381  28.015  23.227 -0.2408  0.2329 -0.2474
64427W        W 7339  14.241  26.511  27.232 -0.2585 -0.0416 -0.1107
64428W        W 7340  14.227  26.596  25.229  0.1579 -0.2477  0.1060
64429W        W 7341  11.614  26.267  27.163 -0.0546 -0.1049 -0.3154
64430W        W 7342  12.056  27.211  28.336 -0.2818  0.2114  0.2701
64431W        W 7343  14.147  28.699  26.199 -0.1022  0.5467 -0.0526
64432W        W 7344  13.012  27.563  25.514  0.1209  0.2622  0.0158
64433W        W 7345  13.172  28.483  24.644  0.0023 -0.3110 -0.1736
64434W        W 7346  11.856  28.727  23.996  0.1736 -0.2576  0.0415
64435W        W 7347  11.082  27.828  25.943 -0.0470 -0.2327 -0.2069
64436W        W 7348  13.329  26.379  23.997 -0.0056 -0.4257  0.1868
64437W        W 7349  12.270  26.803  27.311 -0.2411 -0.2048 -0.2079
64438W        W 7350  13.754  28.586  25.772  0.0139 -0.1901 -0.0273
64439W        W 7351  14.042  28.163  27.861 -0.0103  0.1796  0.1938
64440W        W 7352  11.410  26.122  23.514 -0.1705 -0.0226 -0.0270
64441W        W 7353  15.644  28.810  23.002  0.2572  0.2988  0.0294
64442W        W 7354  14.283  29.498  25.991 -0.0014  0.0091 -0.0202
64443W        W 7355  14.758  29.264  26.848 -0.1213 -0.2949 -0.0071
64444W        W 7356  12.421  29.633  26.204  0.0294 -0.0544 -0.0675
64445W        W 7357  14.425  27.711  27.077  0.0745 -0.0471 -0.0160
64446W        W 7358  11.474  26.443  25.466  0.0957  0.2757  0.0095
64447W        W 7359  13.685  27.986  25.321  0.0167  0.2272  0.4721
64448W        W 7360  12.670  27.932  25.105 -0.0662  0.1495  0.0585
64449W        W 7361  13.078  26.548  27.422  0.0157 -0.0931  0.0124
64450W        W 7362  12.080  27.686  26.182  0.1554  0.3622 -0.1591
64451W        W 7363  12.352  25.906  25.729  0.0612  0.2191  0.0129
64452W        W 7364  11.954  28.395  25.847  0.0039  0.1707 -0.1040
64453W        W 7365  13.025  29.125  25.676 -0.0955 -0.0386  0.2879
64454W        W 7366  12.333  28.349  29.865 -0.1823  0.1433 -0.3243
64455W        W 7367  11.084  25.875  27.409  0.0835 -0.0573 -0.5265
64456W        W 7368  13.981  25.845  26.481 -0.2348  0.1326  0.1992
64457W        W 7369  13.713  25.739  27.602  0.1167 -0.1565  0.0983
64458W        W 7370  12.330  26.265  29.704  0.3668 -0.1347  0.1603
64459W        W 7371  13.192  29.653  28.712 -0.0338  0.0274  0.2224
64460W        W 7372  10.782  26.419  30.860  0.0014  0.1862  0.0642
64461W        W 7373  13.114  28.345  30.108  0.1494  0.2654  0.1150
64462W        W 7374  16.326  27.420  30.412  0.1025 -0.0943  0.1810
64463W        W 7375  13.991  27.985  28.348  0.2039  0.0069 -0.0056
64464W        W 7376  11.977  26.255  29.302 -0.0202  0.2399  0.0865
64465W        W 7377  13.811  27.984  31.087  0.2884  0.4497  0.2876
64466W        W 7378  12.512  25.867  28.929 -0.0712  0.2954 -0.0651
64467W        W 7379  10.293  25.747  30.255 -0.0913  0.0779  0.2236
64468W        W 7380  13.887  27.130  30.658 -0.2833 -0.1951 -0.1870
64469W        W 7381   9.815  27.047  28.913  0.0198 -0.0679 -0.1657
64470W        W 7382  12.382  27.459  29.434 -0.0197 -0.2186  0.1728
64471W        W 7383  14.367  25.043  27.777  0.0055  0.1372  0.1404
64472W        W 7384  11.374  28.884  29.893 -0.0478 -0.1690  0.2339
64473W        W 7385  11.838  25.837  28.985 -0.1866  0.1752 -0.0453
64474W        W 7386  12.070  24.932  29.653 -0.0491 -0.3048  0.0098
64475W        W 7387  13.082  27.081  27.833  0.0365 -0.0091  0.0470
64476W        W 7388  11.321  26.791  25.758  0.2129 -0.0059  0.2670
64477W        W 7389  10.780  26.020  29.375  0.2040  0.1871 -0.2413
64478W        W 7390  12.151  25.826  27.780 -0.1965 -0.3700 -0.0721
64479W        W 7391  15.444  26.454  28.099  0.0253 -0.1758 -0.1854
64480W        W 7392  13.786  26.272  29.598  0.3278  0.0910 -0.2901
64481W        W 7393  12.726  29.095  29.983  0.1212  0.1063  0.0176
64482W        W 7394  13.556  28.933  30.294 -0.3916 -0.3116  0.0423
64483W        W 7395  15.620  26.047  29.453  0.1256 -0.1655 -0.1479
64484W        W 7396  11.698  26.341  29.772 -0.0306 -0.1860  0.2058
64485W        W 7397  10.295  30.136  30.431  0.0909 -0.1013 -0.1022
64486W        W 7398  12.043  29.298  29.119  0.0666 -0.0570  0.1241
64487W        W 7399  14.313  25.638  29.430 -0.0396 -0.1765  0.3926
64488W        W 7400  14.747  27.175  30.158 -0.2987  0.0950  0.0927
64489W        W 7401  12.553  27.965  30.869  0.1237  0.0212 -0.1069
64490W        W 7402  10.393  28.898  26.977 -0.5647 -0.1708  0.0447
64491W        W 7403  12.759  29.152   0.085  0.3388  0.0560 -0.1979
64492W        W 7404  12.707  28.594  30.061 -0.2664 -0.0463 -0.2725
64493W        W 7405  14.199  28.171  29.339  0.0995  0.5415  0.2839
64494W        W 7406  12.877  28.052  28.376  0.2888  0.3705 -0.0888
64495W        W 7407  11.692  28.818  27.304  0.1237 -0.3093  0.3662
64496W        W 7408  11.412  27.439  29.907 -0.0205  0.2449 -0.1065
64497W        W 7409  12.767  26.035  29.554  0.1283 -0.1855  0.0360
64498W        W 7410  10.991  28.229  29.230 -0.1325  0.0985  0.5683
64499W        W 7411  15.231  26.357  31.238 -0.0154  0.0904  0.4676
64500W        W 7412  10.811  27.623  28.349 -0.0445 -0.1555 -0.0573
64501W        W 7413  12.628  27.212  27.532  0.0983 -0.2646  0.1336
64502W        W 7414  11.377  26.793  27.047 -0.1707  0.1779 -0.2081
64503W        W 7415  13.232  24.167  28.413 -0.1856 -0.1245 -0.0017
64504W        W 7416  12.459  25.398  27.643 -0.0128  0.0826  0.1732
64505W        W 7417  11.247  28.444  28.766  0.1564 -0.0921 -0.0402
64506W        W 7418  12.940  25.234  29.100  0.3315 -0.1023 -0.0259
64507W        W 7419  14.338  27.436  31.902 -0.1659 -0.0271 -0.2215
64508W        W 7420  12.123  27.773  28.272 -0.0931 -0.1504  0.2726
64509W        W 7421  12.206  26.719  28.895 -0.1773  0.2780  0.3615
64510W        W 7422  13.267  27.823  30.363 -0.1401 -0.0464 -0.1359
64511W        W 7423  12.190  25.403  27.062  0.2138  0.1294  0.1824
64512W        W 7424  14.507  27.020  28.369  0.2044  0.0966  0.0057
64513W        W 7425  15.272  28.416  30.217 -0.0805  0.0906 -0.1057
64514W        W 7426  12.507  27.705  27.430 -0.1095  0.0901 -0.1374
64515W        W 7427   9.912  26.506  27.973 -0.3400 -0.0798 -0.1204
64516W        W 7428  10.677  26.795  30.474 -0.0360  0.0552 -0.2071
64517W        W 7429  11.565  26.419  30.239  0.1189  0.1657  0.1990
64518W        W 7430  11.169  26.441  27.362  0.3782 -0.5329  0.0053
64519W        W 7431  14.553  26.950  30.604  0.0782  0.1603 -0.4026
64520W        W 7432  11.259  27.933  29.999  0.0546 -0.1353  0.0850
64521W        W 7433  14.948  26.898  28.715 -0.1026 -0.2575  0.0787
64522W        W 7434  12.004  29.928  29.197  0.0900 -0.0333  0.1795
64523W        W 7435  14.403  27.813  30.452 -0.3106  0.0085  0.0293
64524W        W 7436  13.628  27.193  26.986  0.2553  0.0050  0.1432
64525W        W 7437  13.017  26.075  28.788 -0.0645 -0.0464 -0.1400
64526W        W 7438  13.102  24.095  28.896 -0.0720  0.2111 -0.1661
64527W        W 7439  12.137  26.825  27.859 -0.3337 -0.0693  0.0882
64528W        W 7440  12.001  27.757  27.169  0.2193  0.0958 -0.4617
64529W        W 7441  13.792  28.444  30.789  0.1096 -0.0291 -0.3418
64530W        W 7442  13.516  26.068  26.594 -0.0500 -0.0896  0.0912
64531W        W 7443  11.249  28.017  28.313  0.1497  0.0828  0.1743
64532W        W 7444  11.882  25.414  29.892  0.0385 -0.3773 -0.1354
64533W        W 7445  13.610  30.512  31.833 -0.0573 -0.0027  0.0364
64534W        W 7446  11.748  27.426  27.660 -0.2318 -0.1237 -0.0110
64535W        W 7447   9.796  26.495  28.806 -0.4263 -0.2973 -0.0591
64536W        W 7448  11.862  26.087  26.419  0.0093 -0.1343  0.1675
64537W        W 7449  10.468  25.017  29.513 -0.2106  0.0136 -0.0472
64538W        W 7450  11.602  26.945  30.018 -0.0480 -0.2025  0.1649
64539W        W 7451  15.012  25.686  29.005  0.0769 -0.0264  0.0159
64540W        W 7452  12.074  26.122  30.066 -0.0316  0.3128  0.0059
64541W        W 7453  15.775  26.202  28.414  0.1944 -0.4388 -0.0692
64542W        W 7454  11.544  27.570  28.427  0.2501 -0.0814  0.0953
64543W        W 7455  13.840  28.950  28.995 -0.1001 -0.0374  0.1784
64544W        W 7456  13.543  26.747  27.589 -0.0357 -0.2690 -0.0864
64545W        W 7457  13.197  27.449  28.284 -0.0121 -0.2415 -0.2152
64546W        W 7458  11.122  28.235  30.953 -0.0087 -0.0730  0.1809
64547W        W 7459  10.955  26.345  27.909 -0.3529  0.1412 -0.2256
64548W        W 7460  12.340  26.836  30.786  0.0840  0.2092  0.1144
64549W        W 7461  10.873  27.027  29.251 -0.1609  0.1232 -0.0308
64550W        W 7462  13.418  26.711  29.475 -0.1129  0.0046 -0.0233
64551W        W 7463  11.061  24.035  28.627  0.1326 -0.1568  0.1713
64552W        W 7464  13.438  26.303  28.453  0.0475 -0.0949  0.0228
64553W        W 7465  13.264  26.655  28.053  0.0860 -0.1590 -0.1778
64554W        W 7466  10.174  27.364  28.012  0.3142 -0.0655  0.1096
64555W        W 7467  14.829  26.135  31.017 -0.1627  0.1273  0.3548
64556W        W 7468  13.188  28.210  28.800 -0.0790  0.2823 -0.3337
64557W        W 7469  13.172  28.671   0.402 -0.0619 -0.1919 -0.1973
64558W        W 7470  13.919  27.127  28.652  0.2343  0.1842 -0.2147
64559W        W 7471  11.652  25.823  28.031 -0.1788 -0.1993 -0.0661
64560W        W 7472  11.062  26.701  28.289 -0.4353 -0.0199  0.0252
64561W        W 7473  11.325  28.269  29.685 -0.0476  0.1071  0.1471
64562W        W 7474  12.533  28.018  29.208  0.0425  0.2436  0.2490
64563W        W 7475  11.600  25.679  26.334  0.1449  0.1305  0.2410
64564W        W 7476  14.697  28.118  30.692 -0.2688 -0.0062  0.3602
64565W        W 7477  11.967  27.558  28.663 -0.0362 -0.1074  0.3019
64566W        W 7478  10.699  27.016  30.012 -0.0483 -0.5057 -0.0372
64567W        W 7479  12.090  25.794  29.694 -0.1376  0.0930 -0.1979
64568W        W 7480  15.874  25.458  29.416  0.0901 -0.2986 -0.0720
64569W        W 7481  12.085  27.741  29.800  0.1155 -0.2547 -0.0282
64570W        W 7482  11.220  25.364  27.000 -0.1232 -0.2504  0.0437
64571W        W 7483  14.200  27.937  28.898  0.1888 -0.0880  0.2132
64572W        W 7484  11.076  28.185  27.746 -0.3719 -0.1288  0.0010
64573W        W 7485  10.974  27.481  29.120 -0.0663  0.1741 -0.0148
64574W        W 7486  12.128  28.245  28.811 -0.2302 -0.0121 -0.0657
64575W        W 7487  16.336  25.643  29.460 -0.0927 -0.1623 -0.0514
64576W        W 7488  11.652  27.379  31.062 -0.0868 -0.1719 -0.0246
64577W        W 7489  15.590  26.255  29.931 -0.2094  0.0341 -0.2175
64578W        W 7490  11.843  25.913  26.847  0.2583 -0.0213 -0.0453
64579W        W 7491  11.093  27.820  28.741  0.2622 -0.0604 -0.0405
64580W        W 7492  14.206  26.463  29.883 -0.1712 -0.0790 -0.1406
64581W        W 7493  13.988  26.087  28.185 -0.2355 -0.1796  0.1402
64582W        W 7494  13.442  26.647  29.976  0.0980 -0.3017 -0.0506
64583W        W 7495  13.138  26.613  28.827  0.0625 -0.0647  0.1909
64584W        W 7496  12.991  25.308  27.630 -0.1239 -0.0356 -0.0446
64585W        W 7497  13.220  25.088  27.201 -0.0940 -0.1601  0.1254
64586W        W 7498  11.652  27.603  30.496 -0.2945  0.3362  0.0077
64587W        W 7499  12.962  27.757  28.769 -0.1897 -0.3528 -0.3384
64588W        W 7500  13.661  27.107  29.265 -0.0699 -0.3337  0.2462
64589W        W 7501  12.375  27.421  25.271 -0.0342 -0.0848 -0.1084
64590W        W 7502  14.510  27.162  27.906  0.1893  0.1127 -0.0649
64591W        W 7503  11.182  26.660  29.927  0.3644  0.0421 -0.1358
64592W        W 7504  12.995  27.466  31.074  0.1600  0.3945 -0.2754
64593W        W 7505  14.402  27.621  29.368 -0.1491  0.0933 -0.0637
64594W        W 7506  12.441  26.330  29.168 -0.2488  0.0599 -0.1103
64595W        W 7507  12.398  26.699  28.306  0.2290  0.0011 -0.2180
64596W        W 7508  12.427  26.209  28.481 -0.0950 -0.2938  0.0046
64597W        W 7509  10.733  28.511  27.747  0.2481 -0.2150  0.0028
64598W        W 7510  14.613  25.415  30.158  0.2325 -0.0003  0.2153
64599W        W 7511  12.893  27.428  29.227 -0.1553  0.2056 -0.4304
64600W        W 7512  12.900  24.668  28.340 -0.1050 -0.0243 -0.0732
64601W        W 7513  13.892  26.501  31.912  0.1368 -0.1108 -0.0244
64602W        W 7514  13.504  25.392  27.947  0.3678  0.1042 -0.2880
64603W        W 7515  12.384  27.378  29.942 -0.0431 -0.2101 -0.2441
64604W        W 7516  10.251  26.689  27.161  0.0707  0.1009  0.1724
64605W        W 7517  13.417  25.390  29.245  0.0758 -0.0676  0.0004
64606W        W 7518  12.776  26.760  31.174  0.2234 -0.0662  0.0711
64607W        W 7519  11.621  28.455  30.211  0.2916 -0.2608 -0.1917
64608W        W 7520  13.317  26.880  30.367 -0.0784  0.4839 -0.0443
64609W        W 7521  13.395  28.989  29.288  0.2819 -0.1323 -0.0122
64610W        W 7522  12.898  27.023  30.700 -0.1323 -0.1373  0.0778
64611W        W 7523  13.186  25.752  27.798  0.1808  0.3823  0.0914
64612W        W 7524  11.710  30.200  28.111  0.1557 -0.1067 -0.0070
64613W        W 7525  12.327  28.174  28.111 -0.2640 -0.2851  0.3333
64614W        W 7526  11.563  24.001  28.418 -0.2746  0.3960  0.2078
64615W        W 7527  14.182  28.234  30.297  0.0381 -0.0383  0.1326
64616W        W 7528  12.371  30.153  26.619  0.0605 -0.1668 -0.0934
64617W        W 7529  14.259  27.319  30.415  0.1298  0.2438 -0.2469
64618W        W 7530  11.650  28.034  28.727 -0.2994 -0.2394 -0.1894
64619W        W 7531  13.096  25.920  28.266 -0.1139 -0.0572  0.1833
64620W        W 7532  10.115  27.509  29.811  0.1536 -0.2709  0.0150
64621W        W 7533  12.093  26.291  27.074 -0.2601  0.2101  0.5090
64622W        W 7534  10.134  26.186  26.551 -0.0402 -0.0680 -0.2792
64623W        W 7535  14.808  25.569  28.507 -0.0687 -0.3191  0.2226
64624W        W 7536  13.916  26.360  27.583 -0.0528  0.1564 -0.1679
64625W        W 7537  10.861  25.555  29.214 -0.0962 -0.0250  0.1196
64626W        W 7538  11.598  26.578  29.007  0.2253  0.0630  0.1591
64627W        W 7539  10.152  27.186  30.720  0.2935 -0.1475  0.0056
64628W        W 7540  15.068  27.567  29.919  0.1719 -0.2941 -0.2413
64629W        W 7541  13.288  24.933  27.758 -0.3392  0.2747 -0.1356
64630W        W 7542  13.416  26.270  29.173  0.1730  0.1543 -0.0662
64631W        W 7543  11.397  27.063  29.101  0.0783 -0.0663  0.1092
64632W        W 7544  11.439  26.603  27.852  0.2181  0.2521 -0.3203
64633W        W 7545  16.471  25.985  29.819 -0.0461  0.0257 -0.1227
64634W        W 7546  12.039  25.379  29.321  0.0185  0.2193  0.0125
64635W        W 7547  11.545  28.156  29.188  0.0863 -0.0592  0.1704
64636W        W 7548  14.114  28.978  29.826 -0.0846 -0.1462 -0.3695
64637W        W 7549  11.502  26.971  28.166 -0.0361 -0.0832 -0.0934
64638W        W 7550  12.763  28.452  28.674 -0.1279  0.1613  0.0483
64639W        W 7551  10.853  26.976  31.365  0.2915  0.3856 -0.1498
64640W        W 7552  15.308  27.114  29.940  0.0103  0.4050  0.2726
64641W        W 7553  12.530  25.573  29.387 -0.1845  0.1965 -0.2794
64642W        W 7554  11.897  26.690  28.407  0.1713 -0.2796  0.1357
64643W        W 7555  12.328  26.578  30.078 -0.3289  0.1384 -0.1579
64644W        W 7556  12.854  27.267  29.772  0.2379  0.0972  0.0897
64645W        W 7557  12.813  26.844  30.255 -0.4094  0.1920 -0.1411
64646W        W 7558  13.844  27.909  30.560  0.0169 -0.1568  0.0350
64647W        W 7559  13.559  25.911  28.917 -0.1264  0.0764  0.0138
64648W        W 7560  15.908  28.113  28.431 -0.1167  0.1865  0.2230
64649W        W 7561  12.995  26.817  29.788 -0.1267 -0.1470 -0.0294
64650W        W 7562  11.885  26.281  28.084 -0.2049  0.1465 -0.1749
64651W        W 7563  10.695  27.379  30.569 -0.0867  0.3176  0.0292
64652W        W 7564  12.027  28.280  29.304  0.1092 -0.1658  0.1567
64653W        W 7565  12.735  26.334  29.991 -0.1491 -0.4376  0.2257
64654W        W 7566  10.830  27.616  29.918  0.0984 -0.1900 -0.0472
64655W        W 7567  11.760  26.678  27.485  0.1646 -0.1146 -0.2214
64656W        W 7568  11.794  28.019  30.119 -0.1663  0.0028  0.2686
64657W        W 7569  14.922  26.377  27.259  0.1106  0.1005 -0.4024
64658W        W 7570  11.209  27.322  28.693 -0.1100 -0.2102 -0.3225
64659W        W 7571  12.026  26.845  30.360  0.1104  0.0076 -0.1291
64660W        W 7572  15.497  25.866  30.280 -0.2130 -0.0031 -0.1459
64661W        W 7573  14.557  27.879  28.533 -0.1482  0.0229  0.0245
64662W        W 7574  14.976  24.823  30.341  0.3455 -0.3148  0.1962
64663W        W 7575  11.336  25.706  28.983 -0.0065  0.1451 -0.0076
64664W        W 7576  15.425  26.448  28.638  0.1083 -0.2904  0.1853
64665W        W 7577   9.854  26.047  31.453 -0.0965 -0.0926  0.0164
64666W        W 7578  14.124  29.163  31.890  0.0989  0.2576 -0.0681
64667W        W 7579  12.816  27.845  29.644  0.0757  0.1038 -0.1128
64668W        W 7580  13.607  26.763  28.916  0.0806 -0.0082 -0.0021
64669W        W 7581  12.886  26.473  28.322 -0.0588 -0.0089 -0.4680
64670W        W 7582  13.122  25.479  30.336 -0.2153 -0.2255 -0.2091
64671W        W 7583  14.878  27.823  30.331 -0.0833 -0.4072  0.1187
64672W        W 7584  13.082  27.939  27.979  0.2202  0.0132 -0.1959
64673W        W 7585  15.588  27.739  28.587  0.2200 -0.2208 -0.2226
64674W        W 7586  11.459  26.740  29.541  0.1976 -0.1841 -0.0183
64675W        W 7587  14.355  26.528  29.333 -0.1887 -0.0232  0.1876
64676W        W 7588  13.319  28.483  27.897  0.1480  0.1225 -0.0708
64677W        W 7589  12.361  28.739  29.522  0.1881 -0.0723 -0.2517
64678W        W 7590  11.999  24.466  31.047  0.0816 -0.1015  0.1029
64679W        W 7591  14.283  26.079  29.115 -0.1726  0.2690  0.2422
64680W        W 7592  13.274  26.219  29.709 -0.5783 -0.2866  0.1705
64681W        W 7593  13.872  25.330  29.433  0.2313 -0.0513  0.0267
64682W        W 7594  13.968  27.817  29.668  0.1587  0.0308  0.0192
64683W        W 7595  12.510  24.990  30.548  0.0662 -0.3393 -0.0949
64684W        W 7596  12.154  26.222  31.543 -0.3332 -0.2185  0.0370
64685W        W 7597  14.435  29.719  30.126  0.3023  0.0785  0.2940
64686W        W 7598  14.017  27.394  26.648  0.1664  0.1961 -0.1002
64687W        W 7599  15.050  26.175  30.005  0.4636  0.0335  0.3865
64688W        W 7600  14.057  27.013  28.121  0.0415  0.1366 -0.1401
64689W        W 7601  12.479  27.461  28.446  0.0320 -0.3907  0.3164
64690W        W 7602  11.320  26.168  29.200  0.2007 -0.1119  0.4131
64691W        W 7603  14.199  27.388  31.355 -0.2218 -0.2462  0.1927
64692W        W 7604  11.735  26.473  26.706 -0.1301  0.2519  0.5926
64693W        W 7605  14.372  25.903   0.301  0.1960 -0.2428 -0.0251
64694W        W 7606  10.942  29.483  26.664  0.2677  0.0268  0.0914
64695W        W 7607  13.703  28.243  29.275 -0.0310 -0.1893  0.1432
64696W        W 7608  13.736  26.545  28.040  0.2038  0.0547  0.2713
64697W        W 7609  10.001  26.878  28.373  0.0111  0.0611  0.3255
64698W        W 7610  11.068  28.784  30.830 -0.1051  0.2276 -0.1600
64699W        W 7611  12.469  25.230  28.150 -0.2759 -0.0118  0.2449
64700W        W 7612  12.523  27.026  28.652  0.0070  0.1542  0.3046
64701W        W 7613  12.927  26.396  29.251  0.0254 -0.1682 -0.0728
64702W        W 7614  14.238  27.010  31.004  0.2449 -0.1297 -0.3830
64703W        W 7615  12.629  25.672  28.501 -0.0257 -0.0288 -0.5431
64704W        W 7616  14.802  25.958  31.487 -0.0906  0.0024  0.1569
64705W        W 7617  11.701  27.055  28.678 -0.0170 -0.3760 -0.0006
64706W        W 7618  13.370  25.867  29.408  0.3729 -0.2121 -0.0689
64707W        W 7619  10.757  28.037  30.273 -0.0925 -0.0470  0.1273
64708W        W 7620   9.687  27.216  30.514 -0.1082 -0.1729 -0.0643
64709W        W 7621  11.808  28.592  28.656  0.1016 -0.3355  0.3820
64710W        W 7622  13.066  24.817  28.839  0.2018 -0.0605 -0.2906
64711W        W 7623  15.418  26.529  29.382  0.1497 -0.1468 -0.1034
64712W        W 7624  11.977  26.271  28.737 -0.2112  0.0932  0.0160
64713W        W 7625  14.891  25.820  30.365  0.3016  0.1197  0.3451
64714W        W 7626  14.453  28.546  29.586 -0.0849  0.2958 -0.1702
64715W        W 7627  12.081  26.949  29.801 -0.0510  0.1256 -0.2548
64716W        W 7628  13.159  27.328  30.224  0.4942  0.1073 -0.2493
64717W        W 7629  15.898  26.534  29.320  0.0749  0.1643  0.3936
64718W        W 7630  11.423  28.898  29.053 -0.0023 -0.0758  0.0706
64719W        W 7631  11.748  28.147  31.086  0.1424 -0.1130  0.1000
64720W        W 7632  14.089  26.863  29.085 -0.0189 -0.1070  0.1036
64721W        W 7633  13.011  27.975  29.237  0.2416  0.1552  0.0982
64722W        W 7634  12.426  25.375  28.913 -0.0199 -0.2150  0.0138
64723W        W 7635  12.330  28.627  28.471 -0.1334  0.0300  0.0693
64724W        W 7636  13.160  26.531  31.404  0.1696  0.1321  0.0330
64725W        W 7637   9.891  27.622  30.301 -0.0457  0.1871  0.1293
64726W        W 7638  12.146  28.960  27.570  0.3337  0.2951  0.3275
64727W        W 7639  14.262  27.466  28.398 -0.1739 -0.0083 -0.0848
64728W        W 7640  12.587  29.250  27.615  0.1230 -0.1973 -0.3259
64729W        W 7641  13.368  28.097  29.712 -0.1496  0.0952 -0.1208
64730W        W 7642  12.193  27.326  27.323  0.1539  0.0332  0.1383
64731W        W 7643  11.102  28.388  30.382  0.2515  0.0830  0.0597
64732W        W 7644   9.822  27.368  28.414  0.0545  0.1494  0.0067
64733W        W 7645  12.069  28.255  26.714 -0.2148  0.0793  0.0950
64734W        W 7646  11.473  28.823  28.320  0.1048  0.1002  0.1083
64735W        W 7647  14.532  28.907  31.277 -0.0668  0.1819  0.0766
64736W        W 7648  14.040  25.183  28.834 -0.2098  0.1241 -0.0720
64737W        W 7649  14.696  26.351  28.936 -0.1234 -0.3802 -0.0697
64738W        W 7650  14.952  26.265  28.013  0.1923  0.0686  0.1698
64739W        W 7651  14.232  28.155  30.881  0.1307  0.2182  0.2502
64740W        W 7652  11.117  25.699  29.655  0.4561  0.3733  0.1145
64741W        W 7653  12.203  24.937  27.478  0.1144 -0.1745 -0.0953
64742W        W 7654  11.562  26.929  30.535  0.1319 -0.0577  0.1150
64743W        W 7655  13.463  24.908  29.428  0.0850 -0.0683  0.0372
64744W        W 7656  11.992  28.653  30.435  0.2460  0.1524 -0.3320
64745W        W 7657  13.185  28.466  28.384 -0.0268 -0.1671 -0.0217
64746W        W 7658  10.981  26.873  27.822 -0.1736 -0.1001 -0.0113
64747W        W 7659  12.477  27.948  28.639  0.0364  0.0691 -0.1630
64748W        W 7660  14.451  25.074  29.202  0.4259  0.2162  0.0729
64749W        W 7661  12.634  27.680  27.983  0.3315 -0.0113  0.0128
64750W        W 7662  12.940  25.708  29.219  0.3212 -0.0738  0.2393
64751W        W 7663  12.797  28.816  28.351 -0.2104 -0.1028 -0.2049
64752W        W 7664  12.892  28.725  30.886  0.2655  0.4668  0.0981
64753W        W 7665  13.026  28.807  30.369 -0.0193 -0.1590  0.1801
64754W        W 7666  11.844  24.457  28.288 -0.0810 -0.0170  0.1585
64755W        W 7667  14.449  27.539  27.555 -0.1791  0.0063 -0.2282
64756W        W 7668  12.568  27.048   0.000 -0.0092 -0.0046  0.1956
64757W        W 7669  14.238  26.061  29.591 -0.2256 -0.0585 -0.0726
64758W        W 7670  10.541  27.722  28.751 -0.1084 -0.0625 -0.0842
64759W        W 7671  12.697  26.852  29.098 -0.2866 -0.0953 -0.1601
64760W        W 7672  13.610  27.465  30.424  0.0306 -0.0677 -0.1289
64761W        W 7673   9.433  26.777  31.341 -0.0969 -0.1444 -0.1054
64762W        W 7674  12.563  27.124  28.074  0.4520 -0.0808 -0.2232
64763W        W 7675  14.096  27.550  30.817 -0.1050  0.4750 -0.0907
64764W        W 7676  12.599  26.319  27.442  0.0693 -0.1511 -0.3888
64765W        W 7677  13.196  29.259  31.648  0.2223  0.0393  0.0916
64766W        W 7678  10.246  26.153  29.199  0.1022  0.0903 -0.1905
64767W        W 7679  12.663  27.398  27.069  0.0634  0.1268  0.0295
64768W        W 7680  10.301  27.224  28.537 -0.2841  0.1657 -0.4858
64769W        W 7681  13.330  27.162  29.779  0.0385  0.2886 -0.4664
64770W        W 7682  13.618  29.551  30.284  0.1768  0.0575  0.1075
64771W        W 7683  10.847  25.071  29.222 -0.2216 -0.1028 -0.0706
64772W        W 7684  13.462  27.552  27.893 -0.2999 -0.0402  0.1843
64773W        W 7685  15.372  25.359  28.813  0.0599 -0.1359  0.2209
64774W        W 7686  13.027  30.582  26.951 -0.2197 -0.2054  0.1619
64775W        W 7687  12.983  27.250  28.721  0.0599 -0.0303 -0.1272
64776W        W 7688  15.645  28.550  29.799  0.1871  0.2137  0.2455
64777W        W 7689  11.120  27.042  30.305 -0.1871 -0.0006  0.2769
64778W        W 7690  13.685  28.800  31.141 -0.0894  0.1393  0.1436
64779W        W 7691  14.715  28.287  30.199  0.3246  0.1664 -0.1948
64780W        W 7692  13.589  27.061  27.981  0.0254 -0.2055 -0.2027
64781W        W 7693  13.179  27.027  29.155  0.0451  0.0632 -0.0455
64782W        W 7694  10.789  28.650  29.379  0.0804  0.1697  0.1383
64783W        W 7695  15.249  25.461  29.329 -0.2170 -0.0088 -0.0873
64784W        W 7696  15.070  26.833  30.390 -0.0201 -0.1051 -0.0954
64785W        W 7697  11.982  29.970  26.097  0.2897  0.1235 -0.0044
64786W        W 7698  14.174  25.571  29.917 -0.0377  0.2191 -0.1069
64787W        W 7699  13.036  28.087  30.884  0.1288  0.2176  0.1027
64788W        W 7700  12.317  28.415  30.799 -0.1385 -0.1651 -0.1713
64789W        W 7701   9.837  25.787  26.903  0.2236 -0.2066 -0.1669
64790W        W 7702  12.495  27.017  29.539 -0.0184  0.0717 -0.0705
64791W        W 7703  11.603  27.557  28.988  0.4248 -0.0155 -0.0434
64792W        W 7704  13.478  27.351  28.843 -0.0477 -0.0107  0.1421
64793W        W 7705  14.198  30.143  28.189  0.0983 -0.2390 -0.1392
64794W        W 7706  12.119  27.215  29.025 -0.3346  0.1023 -0.0210
64795W        W 7707  14.667  26.854  29.701  0.0124  0.2081 -0.2655
64796W        W 7708  10.696  26.529  29.652 -0.2717  0.0649 -0.1639
64797W        W 7709  14.025  26.685  28.479  0.0987 -0.0585  0.0524
64798W        W 7710  15.506  25.347  27.764 -0.4302  0.1140  0.1788
64799W        W 7711  12.712  26.554  30.667  0.1578  0.0021 -0.1601
64800W        W 7712  10.655  25.762  27.630  0.4551 -0.2873  0.1365
64801W        W 7713  11.721  27.358  26.961 -0.0732 -0.0551  0.1358
64802W        W 7714  10.546  26.610  28.142  0.2700  0.1950 -0.0163
64803W        W 7715  13.092  24.562  31.408 -0.2081  0.0902 -0.1544
64804W        W 7716  11.126  27.568  30.324 -0.0564 -0.2234  0.0401
64805W        W 7717  11.867  27.351  29.413 -0.1726 -0.0543 -0.0414
64806W        W 7718  12.011  25.581  28.637 -0.1753  0.2597 -0.5601
64807W        W 7719  13.472  28.619  28.796  0.0614 -0.2097  0.2329
64808W        W 7720  12.087  24.602  28.686 -0.1069  0.1157  0.0061
64809W        W 7721  11.280  25.318  29.326  0.1865  0.3688  0.0965
64810W        W 7722  14.869  27.770  27.296  0.1043  0.1347  0.0110
64811W        W 7723  14.452  26.743  28.772 -0.2679 -0.1962  0.1256
64812W        W 7724  12.396  26.304  27.923  0.0512 -0.2638  0.0529
64813W        W 7725  14.743  28.605   0.163  0.2643  0.0155  0.1784
64814W        W 7726  10.399  28.379  25.810 -0.2307  0.2905 -0.0034
64815W        W 7727  12.456  26.227  30.420  0.1084 -0.0698  0.3367
64816W        W 7728  14.363  25.366  30.908 -0.0846 -0.1629 -0.3288
64817W        W 7729  12.692  25.236  27.076 -0.1883 -0.0230  0.1804
64818W        W 7730  11.989  26.224  27.544  0.0355  0.2199 -0.5287
64819W        W 7731  13.436  26.895  28.467 -0.2129 -0.1567 -0.0770
64820W        W 7732  13.006  28.957  27.107  0.2056 -0.0251 -0.0180
64821W        W 7733  12.380  28.247  30.319 -0.1483  0.0093  0.1442
64822W        W 7734  11.731  29.130  31.187  0.1703  0.0304 -0.0486
64823W        W 7735  11.463  26.410  28.559  0.2280  0.0069 -0.1419
64824W        W 7736  12.488  27.484  28.935  0.2946  0.1534 -0.1302
64825W        W 7737  12.517  27.202  30.401 -0.0678 -0.0935  0.1397
64826W        W 7738  15.163  29.461  28.429  0.4938  0.0999 -0.3209
64827W        W 7739  13.606  25.438  28.779  0.0238 -0.0386 -0.0179
64828W        W 7740  13.455  27.808  29.054 -0.3342 -0.4454  0.1950
64829W        W 7741  11.744  26.558  31.444 -0.5218  0.0622 -0.0810
64830W        W 7742  12.736  27.983  30.192  0.1720  0.0690  0.2879
64831W        W 7743  15.202  26.962  29.454  0.1861  0.1382 -0.4475
64832W        W 7744  12.678  26.521  28.764  0.1564  0.2881 -0.0535
64833W        W 7745  12.973  26.930  28.316 -0.0688  0.3640 -0.2194
64834W        W 7746  12.822  28.447  27.987 -0.0145 -0.0790  0.1171
64835W        W 7747  10.277  26.537  28.702 -0.1613 -0.3389  0.1250
64836W        W 7748  12.923  26.175  27.828 -0.2850 -0.2312  0.2514
64837W        W 7749  13.767  25.607  30.256 -0.0163 -0.0718 -0.0363
64838W        W 7750  13.895  27.600  29.248  0.1675 -0.0251 -0.3207
64839W        W 7751  13.501  26.853  31.717 -0.0459 -0.1095  0.2751
64840W        W 7752  12.222  25.846  27.308 -0.3966 -0.1765  0.2626
64841W        W 7753  13.901  26.386  29.109  0.0741 -0.0176  0.2013
64842W        W 7754  14.466  28.712  30.054 -0.0971  0.1118  0.1957
64843W        W 7755  14.801  27.132  31.733 -0.1611 -0.2283  0.0846
64844W        W 7756  13.229  28.907  31.278  0.2370 -0.1453 -0.0174
64845W        W 7757  15.088  26.672  29.819 -0.2093  0.0143 -0.1244
64846W        W 7758  11.185  26.737  28.759 -0.0777  0.1698  0.0750
64847W        W 7759  12.021  25.102  28.790 -0.3141 -0.1505 -0.1139
64848W        W 7760  11.144  27.154  29.646  0.0860  0.0042  0.1314
64849W        W 7761  14.622  26.670  30.175 -0.2831  0.2422 -0.2896
64850W        W 7762  11.256  26.189  30.624 -0.1691  0.3174 -0.2195
64851W        W 7763  13.785  24.542  29.082 -0.1048 -0.2522 -0.4371
64852W        W 7764  11.987  29.532  30.960  0.3882 -0.2074 -0.0825
64853W        W 7765  13.838  27.322  29.710  0.0529 -0.1388 -0.1700
64854W        W 7766  13.221  26.170   0.346  0.1625  0.0362 -0.1186
64855W        W 7767  13.041  27.850   0.824  0.2290  0.3488  0.1537
64856W        W 7768  11.983  26.426  30.541 -0.1639  0.1995  0.1546
64857W        W 7769  13.365  27.205  30.835 -0.0760 -0.3667  0.0825
64858W        W 7770  11.837  30.056  31.282  0.1857 -0.0480 -0.2433
64859W        W 7771  12.161  27.218  31.214  0.1576  0.2395  0.0054
64860W        W 7772  14.013  26.754  31.509  0.1203 -0.1117  0.0580
64861W        W 7773  13.101  25.781  29.918  0.2957 -0.0677 -0.1255
64862W        W 7774  13.377  25.791   0.095  0.2835 -0.0887  0.3100
64863W        W 7775  14.503  27.785  31.106 -0.0336 -0.1104  0.2171
64864W        W 7776  14.236  29.638   1.022 -0.1781  0.0259  0.1996
64865W        W 7777  13.059  24.985  30.392  0.1153  0.0300 -0.3388
64866W        W 7778  13.646  26.440  30.364  0.1182 -0.1234 -0.0036
64867W        W 7779  13.343  27.894  31.286 -0.0064 -0.0122 -0.2585
64868W        W 7780  14.159  26.596  30.385 -0.3346  0.2737  0.1307
64869W        W 7781   8.800  28.854  29.713 -0.1498 -0.2098  0.1902
64870W        W 7782  12.487  27.567  31.325 -0.1883  0.2258 -0.0027
64871W        W 7783  14.987  28.155  31.141  0.0680 -0.0563 -0.2304
64872W        W 7784  11.619  24.835  30.932  0.0753 -0.0574 -0.1713
64873W        W 7785  12.346  25.328  29.781  0.0077 -0.1611 -0.1785
64874W        W 7786  12.666  25.561  30.486  0.1388 -0.2331 -0.1714
64875W        W 7787  11.328  27.753  31.013 -0.2224 -0.1713  0.1816
64876W        W 7788  15.655  25.377  31.041 -0.0016  0.0551  0.2237
64877W        W 7789  13.248  26.677  30.861  0.1985  0.0264  0.1082
64878W        W 7790  11.803  26.914  30.971 -0.1924 -0.2980 -0.1200
64879W        W 7791  13.391  25.994  30.295  0.2094 -0.4850  0.2089
64880W        W 7792  12.393  26.377  31.009 -0.2875 -0.0547  0.3738
64881W        W 7793  10.712  29.050  31.034  0.0132 -0.0064  0.1253
64882W        W 7794  11.645  25.835  30.025 -0.1744 -0.3271  0.2562
64883W        W 7795  13.901  27.134   0.011 -0.0741 -0.4088 -0.0659
64884W        W 7796  13.110  27.918  31.775 -0.1652 -0.3030 -0.0925
64885W        W 7797  13.859  26.077  30.072  0.2123 -0.2732 -0.1127
64886W        W 7798  13.821  26.665  30.783 -0.1200  0.1428  0.1095
64887W        W 7799  14.778  26.562  31.508 -0.1040  0.0093  0.0022
64888W        W 7800  11.023  26.657   0.142  0.1421 -0.0030 -0.0286
64889W        W 7801  11.730  27.538  31.940 -0.1605 -0.2119 -0.3136
64890W        W 7802  11.907  28.794  30.901  0.2471 -0.1116  0.3563
64891W        W 7803  13.367  28.488  30.502  0.0068 -0.0905 -0.0061
64892W        W 7804  15.339  25.870  31.259  0.0720  0.1415  0.1178
64893W        W 7805  13.279  28.478  31.023 -0.0210  0.1080  0.1637
64894W        W 7806  14.560  25.658  31.842 -0.1221 -0.0170  0.0860
64895W        W 7807  13.564  27.624   0.084  0.1314  0.2923  0.1486
64896W        W 7808  12.830  24.499  29.788  0.1954 -0.1022 -0.0619
64897W        W 7809  12.103  27.822   0.556  0.1523  0.2427  0.0640
64898W        W 7810  12.413  27.456  30.807 -0.2012 -0.2008 -0.3302
64899W        W 7811  13.331  28.345   0.871 -0.0158  0.0210  0.0708
64900W        W 7812  13.988  26.134  31.030 -0.0398 -0.1135  0.0479
64901W        W 7813  13.346  27.705  30.845  0.0045 -0.1507 -0.0978
64902W        W 7814  15.337  26.147  30.755 -0.0036 -0.0827  0.1031
64903W        W 7815  10.923  27.792  30.759 -0.0550 -0.1035  0.1218
64904W        W 7816  14.341  26.760   0.056 -0.2607  0.1341  0.0635
64905W        W 7817  14.191  25.012  30.209 -0.0910  0.2516 -0.2873
64906W        W 7818  11.973  24.759  29.158  0.1456 -0.0263  0.0305
64907W        W 7819  13.286  27.595  29.511 -0.1094  0.2057  0.1864
64908W        W 7820  12.688  26.642  31.674 -0.0705 -0.4966  0.1754
64909W        W 7821  14.421  26.144  30.222  0.4425  0.0400  0.1727
64910W        W 7822  13.496  28.480  31.498  0.0421  0.2186 -0.1335
64911W        W 7823  13.034  29.439  31.144  0.1622 -0.1994 -0.0409
64912W        W 7824  13.324  28.339   0.052 -0.1323 -0.3422 -0.0327
64913W        W 7825  12.286  27.304  31.662 -0.0708  0.2208 -0.2495
64914W        W 7826  12.016  27.239  30.660  0.1860  0.1321  0.1190
64915W        W 7827  12.199  26.836   1.104  0.0304 -0.1632 -0.2044
64916W        W 7828  12.231  27.670  30.377 -0.0820  0.0617  0.1403
64917W        W 7829  10.355  26.809  31.416 -0.2781 -0.0740  0.2122
64918W        W 7830  13.662  28.796   0.113 -0.0101  0.4102 -0.0624
64919W        W 7831  14.336  27.888  31.591  0.0618  0.2182  0.3228
64920W        W 7832  15.730  25.905  31.836  0.2309 -0.1753  0.0424
64921W        W 7833  13.149  32.261  18.431 -0.0273 -0.0913 -0.2253
64922W        W 7834  12.234  30.487  16.468  0.1869  0.0468  0.0974
64923W        W 7835  13.891  30.504  16.726 -0.3104  0.1616 -0.0523
64924W        W 7836  16.073  31.673  16.255  0.0127 -0.0304  0.0150
64925W        W 7837  11.868  29.793  16.163 -0.1535 -0.3753 -0.0704
64926W        W 7838  14.132  32.704  16.228 -0.1899  0.1741 -0.2275
64927W        W 7839  12.104  30.238  20.025 -0.1522 -0.3556 -0.3096
64928W        W 7840  14.715  32.314  16.823 -0.1968  0.3274  0.2421
64929W        W 7841  13.902  32.522  18.371  0.0584  0.0403 -0.0693
64930W        W 7842  14.946  31.069  18.054 -0.2619 -0.0712 -0.1158
64931W        W 7843  12.495  30.274  18.846 -0.0730  0.0765  0.0740
64932W        W 7844  11.736  31.917  17.932 -0.0699  0.0438 -0.2604
64933W        W 7845  11.967  30.028  16.597 -0.0865 -0.1421  0.1776
64934W        W 7846  12.614  28.149  17.476 -0.3414 -0.1402  0.2574
64935W        W 7847  13.809  30.450  17.537  0.0848 -0.4202  0.2209
64936W        W 7848  13.686  32.502  16.369 -0.1501  0.0207 -0.2038
64937W        W 7849  12.377  30.049  18.337 -0.0428  0.1960  0.1494
64938W        W 7850  13.013  30.464  17.120 -0.3724 -0.3153 -0.1846
64939W        W 7851  13.313  31.800  18.349  0.1801 -0.1413 -0.0751
64940W        W 7852  13.028  29.796  17.598 -0.0003  0.2086 -0.0301
64941W        W 7853  13.436  29.326  16.439  0.0046 -0.1774 -0.2205
64942W        W 7854  12.428  33.285  16.768 -0.0136  0.2786 -0.1260
64943W        W 7855  10.943  29.446  16.219 -0.0530 -0.2773 -0.1095
64944W        W 7856   9.884  31.378  18.012  0.1358 -0.2970  0.2639
64945W        W 7857  13.278  32.591  16.746 -0.3098 -0.1101 -0.1416
64946W        W 7858  13.166  29.595  18.178  0.4137  0.1552 -0.0451
64947W        W 7859  14.275  30.091  17.798  0.2221 -0.0140 -0.2829
64948W        W 7860  13.105  34.004  17.988  0.0583 -0.0909 -0.0923
64949W        W 7861  13.284  33.572  17.721  0.0335  0.4320  0.1789
64950W        W 7862  13.148  30.385  19.341 -0.1733  0.5659  0.1973
64951W        W 7863  11.423  31.174  17.532  0.1097 -0.0214 -0.0699
64952W        W 7864  11.504  33.442  19.095 -0.0472 -0.0324 -0.0754
64953W        W 7865  11.355  32.475  16.225 -0.0212  0.0997 -0.2206
64954W        W 7866  14.978  33.046  16.456  0.1636  0.3860 -0.1245
64955W        W 7867  14.417  32.360  19.185  0.2378 -0.1110  0.1550
64956W        W 7868  12.091  32.452  19.688 -0.1066  0.0012 -0.3588
64957W        W 7869  10.491  32.793  17.615  0.0614 -0.4197  0.1983
64958W        W 7870  12.158  32.128  18.265 -0.0894  0.0299 -0.1379
64959W        W 7871  13.016  30.840  19.439 -0.2776  0.0479 -0.0306
64960W        W 7872  12.546  30.586  19.269  0.1003 -0.1969  0.0317
64961W        W 7873  12.675  30.972  18.168  0.0052 -0.0601  0.0055
64962W        W 7874  12.326  32.238  16.483  0.1507 -0.1841 -0.0231
64963W        W 7875  13.071  32.843  16.317 -0.2444  0.0239  0.1826
64964W        W 7876  12.227  30.421  19.590  0.2750 -0.1686  0.2047
64965W        W 7877  11.314  33.448  18.028 -0.2030 -0.1384 -0.1907
64966W        W 7878  14.980  31.705  19.727  0.3727 -0.0301  0.0568
64967W        W 7879  11.881  32.690  16.061 -0.0213 -0.2231  0.2672
64968W        W 7880  13.503  30.335  17.103  0.0361  0.1961 -0.1756
64969W        W 7881  13.030  29.973  17.110 -0.1723  0.1489 -0.1216
64970W        W 7882  14.211  30.913  16.722 -0.2439  0.2708 -0.1311
64971W        W 7883  12.773  28.759  17.795 -0.1745  0.0186 -0.1286
64972W        W 7884  11.689  32.897  18.038  0.0891 -0.1705 -0.0354
64973W        W 7885  11.456  30.623  17.466  0.3643  0.1520  0.0949
64974W        W 7886  13.834  32.734  17.844  0.1426  0.0895 -0.2149
64975W        W 7887  12.640  31.468  16.428 -0.0736 -0.1191 -0.2298
64976W        W 7888  13.115  31.512  17.999  0.1786  0.3763 -0.0033
64977W        W 7889  11.088  32.729  19.288  0.0369 -0.0578 -0.1177
64978W        W 7890  12.328  30.738  16.891 -0.0922 -0.0495 -0.1984
64979W        W 7891  14.422  31.953  16.503 -0.1706 -0.1103  0.0711
64980W        W 7892  14.112  32.322  16.686 -0.0647  0.3776  0.0052
64981W        W 7893  13.141  32.220  16.111  0.0926  0.2666 -0.2409
64982W        W 7894  11.778  30.494  16.746  0.0350  0.0531 -0.1249
64983W        W 7895  10.946  31.140  18.863 -0.1831  0.0944 -0.1661
64984W        W 7896  11.555  29.660  18.232 -0.0182  0.0214  0.0994
64985W        W 7897  12.916  28.977  15.566 -0.0303 -0.1830 -0.0137
64986W        W 7898  14.104  31.956  18.799  0.2079  0.0182  0.2066
64987W        W 7899  11.713  30.629  19.598  0.1366  0.0817  0.0003
64988W        W 7900  14.845  29.721  17.193  0.1926  0.0123  0.0998
64989W        W 7901  12.243  33.076  18.270 -0.2250  0.0970  0.4016
64990W        W 7902  14.969  33.230  18.804  0.4680  0.0278  0.0091
64991W        W 7903  14.942  31.073  17.082 -0.1871 -0.1800 -0.1763
64992W        W 7904  14.638  29.814  19.303 -0.1543  0.1392 -0.0423
64993W        W 7905  13.594  30.633  19.410 -0.0279  0.1379  0.0185
64994W        W 7906  11.576  31.828  16.326  0.1736 -0.1369 -0.2809
64995W        W 7907  11.799  31.470  16.615  0.0374  0.0698 -0.1232
64996W        W 7908  14.237  32.804  20.513 -0.2987  0.0311 -0.0274
64997W        W 7909  15.056  30.856  16.041  0.0465  0.0686 -0.0950
64998W        W 7910  11.257  33.709  17.568 -0.0815 -0.0643  0.1477
64999W        W 7911  11.939  30.409  18.686  0.0912 -0.0864 -0.0411
65000W        W 7912  12.237  32.332  18.739 -0.0710  0.3135 -0.1335
65001W        W 7913  10.530  32.646  16.466 -0.0103 -0.0032  0.0824
65002W        W 7914  11.339  31.940  18.256  0.2197 -0.0613  0.1210
65003W        W 7915  11.575  31.270  16.197  0.1520 -0.0466 -0.0077
65004W        W 7916  11.117  30.009  18.129  0.1947 -0.1105  0.2345
65005W        W 7917  10.740  33.304  17.254  0.0020  0.0047  0.1458
65006W        W 7918  14.388  29.899  16.898  0.3394 -0.0350 -0.2091
65007W        W 7919  12.225  28.980  18.578  0.1492 -0.0780 -0.2961
65008W        W 7920  14.400  29.423  17.044  0.0301 -0.4089  0.2379
65009W        W 7921  11.658  32.725  16.543 -0.0463 -0.1652 -0.0336
65010W        W 7922  14.111  33.079  16.681  0.3317  0.1622  0.1172
65011W        W 7923  15.488  28.883  17.206 -0.1679  0.0628 -0.3289
65012W        W 7924  13.505  31.897  16.263  0.1493  0.0329 -0.1548
65013W        W 7925  10.547  31.131  18.639 -0.0122  0.3764  0.2200
65014W        W 7926  12.473  30.119  16.679 -0.0646 -0.1215 -0.0220
65015W        W 7927  13.979  29.602  19.156 -0.2078  0.3361 -0.1582
65016W        W 7928  10.855  31.310  17.898 -0.0137  0.0311 -0.0716
65017W        W 7929  14.926  31.621  19.214 -0.0154 -0.1137 -0.0600
65018W        W 7930  11.558  28.468  15.647  0.0923  0.1189 -0.0327
65019W        W 7931  14.722  30.504  18.664 -0.0174  0.2176  0.1868
65020W        W 7932  12.427  31.626  17.157 -0.1540 -0.3713 -0.1619
65021W        W 7933  11.570  30.231  16.324 -0.1869  0.0466 -0.2028
65022W        W 7934  14.875  29.508  19.685  0.0454 -0.1969 -0.1029
65023W        W 7935  14.160  33.026  15.826  0.0540  0.4493 -0.3055
65024W        W 7936  14.141  31.296  18.810  0.1130 -0.1726  0.0323
65025W        W 7937  14.233  31.483  16.661  0.4889 -0.0098 -0.1339
65026W        W 7938  13.306  29.504  19.220 -0.0862  0.1532  0.4418
65027W        W 7939  12.589  29.235  16.302 -0.1028  0.3221  0.0687
65028W        W 7940  11.286  32.484  16.941 -0.1357 -0.2068  0.0267
65029W        W 7941  12.201  31.648  18.481  0.1705 -0.0789  0.0810
65030W        W 7942  12.371  30.025  15.758  0.0359  0.1601 -0.0166
65031W        W 7943  16.111  32.457  18.708 -0.2108 -0.2496 -0.3538
65032W        W 7944  12.870  31.429  16.890 -0.0962 -0.1988 -0.0028
65033W        W 7945   9.756  33.929  18.075 -0.1211 -0.0070  0.1322
65034W        W 7946  13.661  29.168  18.261  0.2379 -0.1940 -0.2371
65035W        W 7947  13.843  30.851  18.694 -0.0975 -0.4435  0.2879
65036W        W 7948  12.605  30.482  17.984  0.0676 -0.1052 -0.2704
65037W        W 7949  11.494  28.824  15.272  0.2456 -0.1042 -0.1535
65038W        W 7950  12.669  32.833  16.587 -0.0278  0.3276 -0.1539
65039W        W 7951  10.491  33.649  17.025  0.0219 -0.3050  0.1550
65040W        W 7952  10.954  31.123  15.477  0.0436  0.1100  0.0464
65041W        W 7953  12.618  34.008  18.197 -0.0622 -0.2006 -0.0238
65042W        W 7954  15.764  29.653  18.147  0.0607  0.1780  0.3124
65043W        W 7955  12.412  29.782  18.806 -0.2188 -0.0598  0.3127
65044W        W 7956  13.662  29.842  18.916  0.1915  0.2496  0.2345
65045W        W 7957  10.866  30.443  16.209  0.0370 -0.1533  0.1748
65046W        W 7958  11.819  31.496  19.455 -0.1366  0.2381  0.1386
65047W        W 7959  13.375  30.473  18.090  0.0288 -0.0244  0.1465
65048W        W 7960  15.420  30.813  17.882  0.2264 -0.0530 -0.0494
65049W        W 7961  14.393  29.891  20.146 -0.2121 -0.0190  0.0597
65050W        W 7962  12.958  32.749  17.602 -0.0056  0.1302  0.0219
65051W        W 7963  13.868  30.843  16.367  0.1438  0.0709  0.3072
65052W        W 7964  14.096  30.234  17.136  0.1023 -0.0577 -0.1704
65053W        W 7965  11.290  31.682  20.286 -0.4041 -0.0250  0.0180
65054W        W 7966  11.134  32.004  17.054 -0.2034 -0.2031  0.1436
65055W        W 7967  12.084  32.999  17.786 -0.0375  0.3046  0.2879
65056W        W 7968  13.446  31.089  16.349  0.3927 -0.1123  0.0406
65057W        W 7969  15.309  32.244  16.230 -0.1283  0.2836 -0.2179
65058W        W 7970  11.679  32.063  17.265  0.1593 -0.0718 -0.3014
65059W        W 7971  13.449  32.404  18.876 -0.0251  0.1574  0.1597
65060W        W 7972  13.819  32.125  17.447 -0.2627  0.1616 -0.0462
65061W        W 7973  10.229  28.990  17.902 -0.0030  0.1143  0.1695
65062W        W 7974  11.516  30.955  16.636  0.2270 -0.2520 -0.0317
65063W        W 7975  14.422  29.791  17.377 -0.0584  0.3135  0.0823
65064W        W 7976   9.925  32.449  15.237  0.2328 -0.2004 -0.1753
65065W        W 7977  15.136  29.860  19.204  0.2538  0.1427  0.2896
65066W        W 7978  15.190  28.451  18.530 -0.0611 -0.1260 -0.1066
65067W        W 7979  13.416  30.588  18.558 -0.3460  0.1240  0.1180
65068W        W 7980  14.461  30.407  20.218 -0.0840  0.1144  0.0156
65069W        W 7981  12.832  30.247  17.548 -0.1077  0.1725 -0.0523
65070W        W 7982  13.864  31.623  17.494  0.1579  0.3389 -0.1614
65071W        W 7983  12.044  30.966  16.560  0.0967 -0.2162  0.1729
65072W        W 7984  14.012  29.907  18.175  0.0375  0.1485  0.1948
65073W        W 7985  12.235  30.818  17.909  0.2789  0.0228  0.1150
65074W        W 7986  10.839  33.043  20.658  0.0528  0.0818  0.1476
65075W        W 7987  15.037  31.699  18.716  0.2282  0.2359 -0.2102
65076W        W 7988  12.603  29.633  16.873  0.3085  0.2085  0.1791
65077W        W 7989  14.443  29.505  18.888 -0.1453 -0.0361  0.2398
65078W        W 7990  12.007  29.955  17.585 -0.2593 -0.1388  0.1022
65079W        W 7991  11.708  33.923  17.252 -0.2974  0.0776 -0.2143
65080W        W 7992  11.460  33.151  16.687 -0.1105 -0.0878  0.3423
65081W        W 7993  11.976  30.225  18.093 -0.0407 -0.0899  0.0093
65082W        W 7994  12.884  32.243  17.438  0.0615  0.2965 -0.1254
65083W        W 7995  12.568  32.600  16.106 -0.1192 -0.2599 -0.3349
65084W        W 7996  13.449  31.865  19.431  0.2252  0.0075  0.0857
65085W        W 7997  10.362  31.773  17.821 -0.0228 -0.0401  0.2878
65086W        W 7998  13.787  30.190  18.550  0.0607  0.4398  0.0596
65087W        W 7999   9.939  31.651  18.377 -0.1538  0.0448 -0.2707
65088W        W 8000  11.817  30.737  16.203  0.2051  0.0108  0.1908
65089W        W 8001  10.652  30.480  17.437  0.4855  0.0135 -0.0624
65090W        W 8002  13.944  30.459  18.954  0.0038 -0.2342  0.1086
65091W        W 8003  15.023  31.346  15.960  0.2734 -0.3725  0.1130
65092W        W 8004  11.974  29.869  18.542  0.0172 -0.0490  0.0801
65093W        W 8005  12.383  29.411  18.380  0.0704 -0.1288  0.0004
65094W        W 8006  11.184  33.860  18.320 -0.0579 -0.2209 -0.3581
65095W        W 8007  14.149  30.846  18.010  0.1463  0.0171  0.1075
65096W        W 8008  12.848  29.839  16.456 -0.0841 -0.0393 -0.1491
65097W        W 8009  14.347  32.212  18.409  0.1452 -0.1346 -0.2421
65098W        W 8010  11.821  30.681  18.163  0.2726 -0.0108  0.1685
65099W        W 8011  10.664  31.036  17.100 -0.1490  0.3401  0.1987
65100W        W 8012  14.151  31.635  18.322  0.2737  0.0720 -0.1327
65101W        W 8013  11.369  31.634  17.347  0.2417 -0.4339  0.1444
65102W        W 8014   9.068  32.990  16.446  0.3442 -0.0726 -0.1018
65103W        W 8015  13.588  31.874  17.844  0.1609 -0.2464 -0.1952
65104W        W 8016  10.658  31.269  15.851 -0.1879  0.0886 -0.0633
65105W        W 8017  11.096  32.987  16.984  0.0378 -0.0693 -0.1898
65106W        W 8018  13.244  29.503  18.746  0.0064  0.2805  0.0234
65107W        W 8019  13.884  31.065  19.136  0.1458  0.6654 -0.0826
65108W        W 8020  12.497  30.243  17.130  0.0411 -0.2860 -0.0066
65109W        W 8021  12.021  29.192  15.997  0.1667  0.1452 -0.0896
65110W        W 8022  12.787  31.169  17.696 -0.2121  0.2469 -0.0853
65111W        W 8023  15.074  30.707  18.448  0.3248  0.0418 -0.0345
65112W        W 8024  12.270  31.391  17.594 -0.1495 -0.0161 -0.0567
65113W        W 8025  12.301  31.472  19.772  0.0059 -0.0634  0.0767
65114W        W 8026  13.520  28.587  17.899 -0.0544 -0.1489 -0.0156
65115W        W 8027  14.667  32.581  15.832  0.0904  0.0420  0.0148
65116W        W 8028  12.633  30.058  20.410  0.1277  0.1130  0.0908
65117W        W 8029  11.252  32.143  16.538 -0.0237  0.1327  0.0290
65118W        W 8030  10.720  30.912  18.188 -0.0278  0.0954  0.0046
65119W        W 8031  11.475  31.261  16.993 -0.1315 -0.0013  0.1049
65120W        W 8032  13.254  30.058  18.465 -0.2359 -0.0306  0.0311
65121W        W 8033  11.452  32.995  18.485  0.0719 -0.1129 -0.1482
65122W        W 8034   9.643  33.384  16.354  0.3008  0.1690  0.1080
65123W        W 8035  11.315  31.286  19.594 -0.0304  0.0765  0.0831
65124W        W 8036  14.084  30.076  16.490 -0.0805 -0.0995 -0.2239
65125W        W 8037  12.316  31.362  16.758 -0.2561  0.2789  0.2080
65126W        W 8038  13.539  29.976  17.894 -0.2150 -0.2058  0.1916
65127W        W 8039  14.505  31.665  19.549 -0.0923  0.2164 -0.3912
65128W        W 8040  12.655  30.679  17.462 -0.1100  0.1133 -0.1078
65129W        W 8041  13.784  30.136  19.318  0.0057  0.0715  0.2256
65130W        W 8042  11.431  29.207  18.115  0.1135  0.4149 -0.0451
65131W        W 8043  14.189  31.184  17.167 -0.0931  0.4065  0.0104
65132W        W 8044  11.361  29.604  19.168  0.0547 -0.2584 -0.1912
65133W        W 8045  12.669  31.418  19.445 -0.0833 -0.0374  0.2903
65134W        W 8046  11.783  31.443  18.172  0.0913 -0.1800 -0.0559
65135W        W 8047  14.422  29.351  19.397  0.0181 -0.0389  0.3337
65136W        W 8048  12.487  29.188  15.716  0.1460  0.0604  0.2114
65137W        W 8049  12.439  31.157  18.616 -0.0349  0.0111  0.2819
65138W        W 8050  14.333  31.631  17.681 -0.2030 -0.2413  0.1018
65139W        W 8051  12.015  31.872  16.935  0.0768  0.0094  0.0422
65140W        W 8052  13.312  30.273  17.584  0.1220 -0.1684 -0.2046
65141W        W 8053  11.298  30.523  17.937  0.0353  0.1865 -0.0584
65142W        W 8054  14.292  29.100  17.927 -0.0716  0.1084  0.0372
65143W        W 8055  13.410  32.417  17.636  0.2554  0.1685 -0.1115
65144W        W 8056  12.087  32.399  17.831  0.0320 -0.1399  0.1498
65145W        W 8057  13.001  29.888  19.433  0.0436  0.0047 -0.2976
65146W        W 8058  13.130  32.595  18.056 -0.1956  0.0001  0.3095
65147W        W 8059  14.373  28.911  17.486  0.0448 -0.0492 -0.1853
65148W        W 8060  12.955  30.001  18.941 -0.0254 -0.1636  0.3993
65149W        W 8061  12.331  29.832  20.081 -0.3069 -0.2145 -0.4104
65150W        W 8062  12.561  30.015  19.230  0.1474  0.2689 -0.1102
65151W        W 8063  11.673  29.816  20.201  0.0357 -0.2258 -0.2682
65152W        W 8064  13.750  32.188  19.174  0.2502  0.4950  0.4527
65153W        W 8065  14.441  30.784  17.150 -0.2659 -0.1051 -0.1632
65154W        W 8066  16.216  31.385  19.096  0.3413 -0.2717 -0.3284
65155W        W 8067  13.260  30.819  16.872 -0.2135 -0.0822  0.0652
65156W        W 8068  14.209  31.699  16.156 -0.0994 -0.2244  0.3179
65157W        W 8069  11.295  32.123  17.602 -0.1263 -0.1982 -0.1951
65158W        W 8070  14.164  30.121  21.148  0.0289 -0.0048 -0.0029
65159W        W 8071  10.960  30.063  16.583 -0.1265 -0.2538 -0.1088
65160W        W 8072  14.911  29.363  19.150 -0.0478 -0.2525 -0.3510
65161W        W 8073  12.454  33.178  16.166  0.3335  0.1650  0.1149
65162W        W 8074  14.644  33.436  17.327 -0.2438  0.2377  0.2622
65163W        W 8075  14.634  30.481  18.061 -0.0696 -0.0071  0.1137
65164W        W 8076  10.335  31.209  17.925  0.0520 -0.1288 -0.2520
65165W        W 8077  12.223  31.439  18.934  0.0013 -0.1797  0.0051
65166W        W 8078  11.229  30.538  16.627 -0.0830 -0.3136 -0.1734
65167W        W 8079  11.535  31.809  16.837  0.1454 -0.1249 -0.0853
65168W        W 8080  14.558  30.992  18.473  0.3188 -0.1500  0.0446
65169W        W 8081  14.334  30.798  18.929  0.0682 -0.2224 -0.1002
65170W        W 8082  12.337  28.809  17.385 -0.2185 -0.4176  0.0204
65171W        W 8083  13.954  30.120  19.782  0.1727 -0.3220  0.0306
65172W        W 8084  10.441  32.311  17.557  0.1533 -0.0588 -0.3282
65173W        W 8085  14.030  28.071  17.347  0.3208 -0.2902 -0.3342
65174W        W 8086  11.544  32.570  17.598 -0.1603 -0.0354  0.1296
65175W        W 8087  10.095  31.150  18.409  0.1326  0.0994  0.1796
65176W        W 8088  12.768  31.907  16.713  0.3479 -0.0181  0.0054
65177W        W 8089  12.817  29.774  18.509 -0.1099 -0.0755  0.1660
65178W        W 8090  13.782  31.128  17.429  0.1308  0.0316  0.1114
65179W        W 8091  12.880  31.535  18.459  0.2023 -0.0173  0.0978
65180W        W 8092  15.660  32.593  18.393 -0.2058 -0.0068 -0.1702
65181W        W 8093  14.060  31.171  18.361  0.1039  0.0446 -0.2815
65182W        W 8094  11.819  31.595  17.515 -0.0333 -0.0801  0.1118
65183W        W 8095  13.583  31.904  18.798  0.1541  0.1555  0.1181
65184W        W 8096  15.167  32.743  18.176  0.1554  0.0426  0.3566
65185W        W 8097  10.240  32.702  18.082  0.1889  0.1727 -0.0255
65186W        W 8098  10.554  30.302  19.638 -0.0232  0.0401 -0.0023
65187W        W 8099  12.760  31.508  18.980  0.1004 -0.1223  0.2234
65188W        W 8100  11.572  30.115  17.836  0.3356  0.1740 -0.1165
65189W        W 8101  11.898  29.582  15.684  0.1468 -0.0609 -0.0852
65190W        W 8102  13.523  32.957  16.619  0.0391  0.0066  0.2270
65191W        W 8103  10.454  31.838  20.795  0.0208  0.1785 -0.2009
65192W        W 8104  10.940  31.329  18.368  0.1895  0.1329 -0.0330
65193W        W 8105  10.533  33.714  16.498 -0.1635 -0.1802  0.0990
65194W        W 8106  13.306  32.274  17.099 -0.0137 -0.1486 -0.4960
65195W        W 8107  13.819  33.289  17.520  0.2875  0.1387  0.2980
65196W        W 8108  14.716  32.151  18.842  0.1169 -0.1515 -0.1365
65197W        W 8109  12.454  29.978  16.244  0.1114  0.1375  0.1101
65198W        W 8110  11.730  33.680  18.684  0.2704 -0.1521  0.0468
65199W        W 8111  10.391  34.040  17.655  0.1876  0.0066 -0.1067
65200W        W 8112  14.342  33.451  15.868 -0.3836 -0.0903 -0.4051
65201W        W 8113  11.800  32.330  16.797  0.1845 -0.1143  0.0288
65202W        W 8114  12.919  30.509  18.928 -0.0124  0.0948  0.2021
65203W        W 8115  13.907  29.579  16.997  0.1655 -0.0525  0.0355
65204W        W 8116  15.000  30.170  18.389  0.2323  0.2026 -0.0973
65205W        W 8117  14.814  30.616  17.429 -0.0083 -0.1372  0.0395
65206W        W 8118  12.789  33.036  19.686  0.2011 -0.1388 -0.2721
65207W        W 8119  11.828  31.101  17.832 -0.1390  0.0346  0.0278
65208W        W 8120  12.995  31.113  16.523 -0.0033 -0.0530  0.4204
65209W        W 8121  11.492  30.769  20.015 -0.0896  0.1821 -0.2501
65210W        W 8122  14.522  29.298  20.374  0.2006  0.0573 -0.4053
65211W        W 8123  10.332  32.598  19.060 -0.4660  0.1646  0.0891
65212W        W 8124  13.957  33.705  17.004 -0.0935 -0.0736 -0.2143
65213W        W 8125  12.867  30.039  15.981  0.1899 -0.2823  0.3630
65214W        W 8126  11.001  31.012  16.547  0.1546  0.0349  0.0394
65215W        W 8127  15.969  29.836  18.870 -0.3596  0.0825  0.2404
65216W        W 8128  13.338  31.240  17.106  0.2319 -0.1745 -0.1554
65217W        W 8129  11.923  31.129  18.565 -0.0666  0.0664  0.1863
65218W        W 8130  12.695  32.330  17.921  0.0078  0.0461 -0.2678
65219W        W 8131  13.192  32.067  16.589 -0.0998 -0.1451 -0.0757
65220W        W 8132  11.377  32.391  18.950  0.3138 -0.1559  0.4959
65221W        W 8133  12.277  28.849  16.372  0.0020 -0.1186  0.0004
65222W        W 8134  16.051  30.439  17.596  0.0008  0.1220  0.1305
65223W        W 8135  12.514  29.947  17.827  0.0183  0.0733  0.0709
65224W        W 8136  15.569  30.796  18.780 -0.0664  0.2913 -0.2570
65225W        W 8137  11.851  30.554  17.687  0.0801  0.1286 -0.1799
65226W        W 8138  13.012  31.544  17.366  0.1713  0.2024 -0.1724
65227W        W 8139  14.167  31.697  17.119 -0.0009  0.0261  0.0318
65228W        W 8140  11.346  31.070  18.054 -0.0722 -0.1173  0.1581
65229W        W 8141  13.014  31.776  16.264  0.0070 -0.2347  0.0683
65230W        W 8142  13.740  31.458  18.595  0.2653  0.1200 -0.2608
65231W        W 8143  13.213  31.007  15.764  0.1420  0.4413  0.1775
65232W        W 8144  13.500  32.672  19.320 -0.2046 -0.1558 -0.0958
65233W        W 8145  12.126  30.906  17.431 -0.2857  0.3659 -0.1339
65234W        W 8146  13.486  29.799  17.198  0.0838  0.0652 -0.2072
65235W        W 8147  10.704  30.597  16.722 -0.1537  0.2658  0.0112
65236W        W 8148  10.195  31.204  19.575  0.2269 -0.0178  0.2076
65237W        W 8149  13.717  32.949  19.653  0.0641 -0.2129 -0.0617
65238W        W 8150  12.397  27.718  18.110 -0.1301  0.2253  0.0432
65239W        W 8151  14.582  32.692  16.442 -0.1328 -0.2224  0.1016
65240W        W 8152  14.179  30.544  18.472 -0.0184 -0.1220  0.0633
65241W        W 8153  12.625  34.040  17.201  0.1050  0.1407 -0.3407
65242W        W 8154  14.335  30.551  17.563  0.0549 -0.1864 -0.0628
65243W        W 8155  13.335  31.181  17.662  0.2978 -0.0257 -0.1169
65244W        W 8156  12.312  30.382  17.618 -0.1824  0.4656 -0.0957
65245W        W 8157  12.726  33.733  18.645 -0.0454  0.5034  0.1118
65246W        W 8158  13.408  33.016  17.666  0.2562  0.1789 -0.2139
65247W        W 8159  13.545  28.309  17.170  0.2515  0.2999  0.0789
65248W        W 8160   9.962  30.873  17.878  0.0118  0.0688 -0.0044
65249W        W 8161  10.286  33.356  17.631  0.1073 -0.1057  0.3126
65250W        W 8162  14.065  29.443  17.460 -0.1677  0.0028 -0.3094
65251W        W 8163  13.043  30.970  18.476 -0.2419  0.1130 -0.3115
65252W        W 8164  12.189  33.697  16.736  0.0180 -0.0139 -0.1357
65253W        W 8165  15.543  30.481  18.306  0.1470 -0.1591  0.2228
65254W        W 8166  13.293  31.404  18.732  0.3231 -0.2497 -0.3992
65255W        W 8167  12.470  33.527  20.388  0.0732 -0.0790 -0.0129
65256W        W 8168  11.403  33.429  15.494  0.2274 -0.0544 -0.3223
65257W        W 8169  14.477  31.686  19.030 -0.2191 -0.0599  0.1563
65258W        W 8170  10.018  32.999  16.390 -0.0263 -0.0437 -0.0759
65259W        W 8171  12.873  32.585  17.038 -0.0978 -0.0960 -0.2460
65260W        W 8172  13.232  31.942  17.507 -0.0516 -0.0366 -0.1013
65261W        W 8173  12.885  29.457  17.240  0.1721 -0.2980 -0.1650
65262W        W 8174  15.002  32.723  17.031  0.0299  0.3523 -0.4390
65263W        W 8175  13.821  29.068  17.719  0.0312  0.4722  0.1482
65264W        W 8176  15.045  29.105  18.527  0.1021 -0.1064 -0.1305
65265W        W 8177  14.455  28.187  17.849 -0.2308 -0.1860 -0.0199
65266W        W 8178  11.432  31.284  18.471 -0.4688  0.3656 -0.1639
65267W        W 8179  11.260  30.751  15.602  0.2252  0.0923 -0.0953
65268W        W 8180  11.984  32.487  17.279  0.3261 -0.2101 -0.0421
65269W        W 8181  11.099  32.333  19.681  0.0385  0.2694 -0.1947
65270W        W 8182  11.669  29.086  20.033  0.0474  0.1092 -0.2647
65271W        W 8183  11.525  30.781  18.732  0.3445 -0.1120  0.0213
65272W        W 8184  10.388  32.360  17.039 -0.0092  0.0393 -0.1146
65273W        W 8185  12.547  30.509  15.383 -0.3334 -0.0063 -0.0686
65274W        W 8186  14.607  30.779  16.414  0.0507  0.0086  0.2006
65275W        W 8187  12.050  29.222  16.895  0.0490 -0.1212 -0.0700
65276W        W 8188  11.148  28.437  18.388 -0.0258 -0.1313 -0.0308
65277W        W 8189  13.263  31.524  16.541 -0.1652 -0.0926 -0.0638
65278W        W 8190  12.363  32.114  17.521 -0.0668  0.1547 -0.0722
65279W        W 8191  13.077  30.734  17.779 -0.1800  0.1044 -0.0220
65280W        W 8192  14.040  31.388  19.550  0.0464  0.2423  0.1429
65281W        W 8193  10.885  32.327  16.239  0.0417  0.4036  0.3126
65282W        W 8194  14.518  30.157  19.712  0.0903 -0.3928 -0.1992
65283W        W 8195  11.990  30.579  19.198 -0.3332  0.2206 -0.1810
65284W        W 8196  12.589  30.452  16.102  0.2185  0.2577 -0.1222
65285W        W 8197  12.609  30.103  19.752 -0.0937 -0.4297  0.1301
65286W        W 8198  12.658  32.330  18.504 -0.0661  0.2306 -0.1483
65287W        W 8199  14.010  33.312  16.234  0.1979  0.3132 -0.0431
65288W        W 8200  12.577  31.860  18.240 -0.1746  0.0967 -0.0531
65289W        W 8201  12.324  31.307  20.253 -0.1533  0.2064  0.0383
65290W        W 8202  10.978  30.803  20.916 -0.0169  0.2960 -0.1540
65291W        W 8203  13.399  30.757  17.352 -0.1798 -0.0470 -0.4253
65292W        W 8204  12.716  31.662  17.758  0.3471  0.2221  0.2771
65293W        W 8205  15.127  31.533  16.881 -0.0798 -0.2578  0.0318
65294W        W 8206  13.250  29.027  17.870  0.2879  0.2581  0.4422
65295W        W 8207  13.509  31.066  18.367 -0.0575  0.1370  0.1849
65296W        W 8208  12.577  28.140  19.058 -0.2190 -0.1617 -0.1101
65297W        W 8209  11.020  32.096  19.090  0.2085  0.1793 -0.2464
65298W        W 8210  12.307  31.357  18.084 -0.1799  0.0467 -0.1224
65299W        W 8211  12.011  30.407  17.169 -0.0888  0.2188 -0.2117
65300W        W 8212  13.304  29.736  16.740 -0.0387  0.0624  0.1408
65301W        W 8213  13.989  31.277  17.849 -0.2558 -0.1563 -0.0021
65302W        W 8214  11.055  29.496  17.986 -0.0149  0.0683  0.1187
65303W        W 8215  13.767  31.185  16.781  0.0961  0.2526 -0.0802
65304W        W 8216  13.016  30.650  19.931  0.2818 -0.1658 -0.1188
65305W        W 8217  14.062  32.287  17.977  0.1488  0.0499 -0.3064
65306W        W 8218  14.812  30.027  18.847  0.3813 -0.2375  0.1035
65307W        W 8219  12.475  30.967  16.328  0.4770  0.1311 -0.0321
65308W        W 8220  15.082  31.065  16.495  0.0425 -0.3033  0.1267
65309W        W 8221  14.392  33.845  17.297  0.3213 -0.2443 -0.0606
65310W        W 8222  14.181  33.249  20.836 -0.2230  0.1760  0.0631
65311W        W 8223  12.726  34.182  19.179 -0.0073  0.2729 -0.0539
65312W        W 8224  13.630  31.477  18.126  0.3010 -0.0251  0.1909
65313W        W 8225  11.059  30.183  17.619 -0.2025  0.5367 -0.1361
65314W        W 8226  13.470  31.710  17.003  0.1147 -0.1383  0.4504
65315W        W 8227  11.206  33.109  17.504  0.0070  0.0454 -0.0730
65316W        W 8228  12.344  30.655  18.425  0.0932 -0.1635  0.0326
65317W        W 8229  11.783  30.864  17.096 -0.3390  0.0768  0.1447
65318W        W 8230  13.549  30.151  16.674  0.1523  0.6764  0.1030
65319W        W 8231  12.303  31.683  19.341  0.2258  0.0436 -0.1666
65320W        W 8232  14.554  31.784  18.561  0.1833 -0.1096 -0.3451
65321W        W 8233  11.294  30.834  22.187 -0.0064 -0.0952  0.4584
65322W        W 8234  12.318  30.827  18.909  0.0196  0.1972  0.1260
65323W        W 8235  14.225  30.870  21.338  0.1222  0.3178 -0.0357
65324W        W 8236  13.353  31.535  20.664  0.2332 -0.1548  0.0371
65325W        W 8237  10.312  31.221  21.491 -0.0278  0.1104  0.3054
65326W        W 8238  12.700  33.119  20.958 -0.1157  0.0355 -0.0738
65327W        W 8239  12.163  28.411  23.178  0.2679  0.0233  0.0126
65328W        W 8240  13.260  32.792  22.295 -0.1438  0.2063 -0.2032
65329W        W 8241  12.931  33.669  22.391  0.2094 -0.3188 -0.0239
65330W        W 8242  13.378  30.904  18.987 -0.0647  0.0228 -0.0570
65331W        W 8243  12.048  31.953  22.774 -0.1694 -0.3023  0.1278
65332W        W 8244  11.675  33.543  21.571  0.2575  0.2043 -0.2358
65333W        W 8245  11.629  28.030  19.106 -0.1598 -0.0632  0.2107
65334W        W 8246  10.520  29.290  22.337 -0.1100  0.1113 -0.0565
65335W        W 8247  13.568  29.529  22.260 -0.1917  0.2329  0.0217
65336W        W 8248  11.770  32.116  20.238 -0.0841  0.4376  0.0939
65337W        W 8249  11.283  31.736  21.883 -0.0244  0.0013 -0.1105
65338W        W 8250  13.752  29.692  21.103 -0.0466 -0.0665  0.1369
65339W        W 8251  12.376  33.218  22.408 -0.3414 -0.1502  0.0212
65340W        W 8252  11.930  29.077  22.738  0.1063  0.2232 -0.0768
65341W        W 8253  13.166  28.803  22.421  0.1312  0.1777 -0.0805
65342W        W 8254  13.432  31.956  21.174 -0.2432 -0.0315  0.0168
65343W        W 8255  11.002  31.018  19.975  0.0685  0.2276  0.1724
65344W        W 8256  11.555  31.224  21.833 -0.0622  0.2210 -0.0417
65345W        W 8257  11.172  30.990  21.583  0.2624  0.1408  0.2109
65346W        W 8258  13.974  30.001  23.033 -0.1203 -0.1592 -0.2825
65347W        W 8259  12.896  30.395  22.228  0.0514 -0.3647  0.1069
65348W        W 8260  11.543  32.459  22.522  0.1430  0.1730 -0.2295
65349W        W 8261  15.112  32.371  22.773  0.1785 -0.1045 -0.1389
65350W        W 8262  14.346  30.694  21.815  0.0561  0.0133  0.1817
65351W        W 8263  12.873  31.325  20.587  0.0431  0.1118  0.0758
65352W        W 8264  11.738  31.598  18.682 -0.1168 -0.0157  0.1704
65353W        W 8265  13.926  32.205  21.026  0.3451  0.0614  0.0221
65354W        W 8266  14.614  32.130  20.520 -0.0720 -0.3176 -0.3227
65355W        W 8267  13.745  33.795  23.487  0.0182 -0.1720  0.0135
65356W        W 8268  11.563  34.676  21.959 -0.1104  0.2848 -0.0253
65357W        W 8269  11.869  31.179  19.900 -0.1353  0.1315 -0.1745
65358W        W 8270  11.416  33.840  23.146 -0.3119  0.0111  0.0166
65359W        W 8271  11.001  32.915  22.579 -0.2309  0.1861  0.0346
65360W        W 8272  11.956  31.591  22.304  0.1542 -0.1905 -0.2480
65361W        W 8273  11.824  30.905  22.793 -0.0059  0.1500 -0.5729
65362W        W 8274  13.091  31.791  19.779  0.0986 -0.1732  0.0571
65363W        W 8275  10.920  31.787  20.640 -0.1138 -0.2612  0.1973
65364W        W 8276  11.216  30.751  24.649 -0.1829 -0.0252  0.2453
65365W        W 8277  10.822  32.271  20.741 -0.0223 -0.0828 -0.0286
65366W        W 8278  12.972  29.329  25.162  0.1068  0.0938  0.0325
65367W        W 8279  11.530  32.538  20.387  0.0133 -0.0102 -0.0198
65368W        W 8280  12.797  30.328  18.439  0.0679  0.0297  0.0184
65369W        W 8281  12.776  29.296  18.714 -0.0960  0.1017 -0.0556
65370W        W 8282  13.880  29.700  20.020  0.0245 -0.2597 -0.1260
65371W        W 8283  12.185  28.829  21.660 -0.0720  0.2656 -0.1862
65372W        W 8284  11.230  32.674  20.836 -0.0324 -0.1203 -0.1640
65373W        W 8285  11.147  29.184  21.514  0.0920  0.1636  0.0582
65374W        W 8286  14.140  32.714  22.976 -0.0138 -0.0490 -0.0090
65375W        W 8287  13.488  30.251  20.443 -0.2206 -0.0260 -0.0404
65376W        W 8288  13.259  30.306  22.586  0.1056  0.2326 -0.1683
65377W        W 8289  10.544  32.271  21.174 -0.0991 -0.0148  0.1175
65378W        W 8290   9.919  31.047  21.024 -0.0873 -0.0578  0.1334
65379W        W 8291  14.874  32.581  20.567 -0.0661  0.0977 -0.1892
65380W        W 8292  13.262  33.759  20.880 -0.4183 -0.1476  0.2276
65381W        W 8293  13.632  33.464  19.901 -0.2139 -0.1540  0.3392
65382W        W 8294  11.816  31.010  19.090  0.0026  0.1460 -0.0887
65383W        W 8295   9.579  31.046  22.948  0.0457 -0.0173  0.0982
65384W        W 8296  10.648  30.993  23.471 -0.3377 -0.0362  0.1957
65385W        W 8297  14.062  30.699  20.318 -0.1274  0.0073  0.1647
65386W        W 8298  14.984  31.979  23.629 -0.4496 -0.1322  0.2621
65387W        W 8299  10.234  31.638  23.043 -0.0824  0.0011 -0.1219
65388W        W 8300  14.320  30.257  22.038  0.0454 -0.1075  0.0384
65389W        W 8301  12.667  31.601  20.117  0.1204 -0.1147 -0.0794
65390W        W 8302  12.821  32.739  21.973 -0.0251 -0.1128  0.1357
65391W        W 8303  12.868  30.684  21.748  0.2277 -0.0834  0.1827
65392W        W 8304  12.575  29.198  23.411 -0.0274  0.0803 -0.2391
65393W        W 8305  14.453  29.701  22.152 -0.0963  0.1101 -0.2422
65394W        W 8306  11.762  32.101  18.610 -0.1088  0.1273  0.1615
65395W        W 8307  13.770  31.030  20.816  0.1083 -0.0367  0.0199
65396W        W 8308  15.020  32.908  22.592  0.4450 -0.2318 -0.3046
65397W        W 8309  13.860  30.864  21.781 -0.2914  0.1452  0.1021
65398W        W 8310   9.642  33.126  20.536  0.1348  0.0369  0.3873
65399W        W 8311  11.706  29.634  22.017  0.0982 -0.0253 -0.1416
65400W        W 8312  12.302  33.491  20.880 -0.2526 -0.0200  0.1473
65401W        W 8313  12.387  32.591  20.156 -0.2790  0.0857 -0.1618
65402W        W 8314  10.198  30.321  21.424 -0.1841 -0.1526  0.4148
65403W        W 8315  10.887  31.498  19.815 -0.3623  0.0509 -0.0470
65404W        W 8316  10.464  29.156  21.805  0.2659 -0.3263  0.2312
65405W        W 8317  10.867  33.737  21.363 -0.4084  0.4241  0.2826
65406W        W 8318  13.274  28.863  20.263 -0.1698  0.0248 -0.2203
65407W        W 8319  11.711  28.521  22.376  0.0690  0.0517  0.2576
65408W        W 8320  14.358  28.848  21.750 -0.1474 -0.1524 -0.0798
65409W        W 8321  11.694  31.643  19.913 -0.1228 -0.2181  0.1696
65410W        W 8322  13.612  32.689  22.714 -0.0895  0.0015  0.0561
65411W        W 8323  14.077  29.783  20.588  0.2447  0.2545 -0.3165
65412W        W 8324  13.598  30.420  19.941  0.0754 -0.1760 -0.0240
65413W        W 8325   9.817  31.337  21.373  0.2164  0.1909  0.0510
65414W        W 8326  11.534  30.486  19.102  0.2287 -0.2489 -0.1945
65415W        W 8327  12.006  30.528  22.453 -0.0565  0.3128 -0.0816
65416W        W 8328  10.252  31.390  21.008 -0.2046  0.5480 -0.1306
65417W        W 8329  12.604  30.097  21.960  0.0444 -0.0921  0.1598
65418W        W 8330  11.032  30.180  20.017  0.1377 -0.1371  0.0743
65419W        W 8331  13.021  30.498  20.465  0.1197 -0.1031 -0.0541
65420W        W 8332  11.363  31.691  22.409  0.0840  0.0066  0.0082
65421W        W 8333   9.822  32.901  19.666 -0.1839 -0.0736 -0.1482
65422W        W 8334  14.139  29.861  23.835  0.1068 -0.1379  0.1244
65423W        W 8335  12.980  32.039  21.329 -0.1741  0.1022  0.1933
65424W        W 8336  14.907  33.132  23.033  0.2003 -0.2357 -0.1549
65425W        W 8337  14.636  34.065  21.864  0.3045 -0.1384  0.0265
65426W        W 8338  11.439  30.647  21.745 -0.0292 -0.4587  0.2501
65427W        W 8339  10.494  30.747  19.262 -0.1607 -0.0557 -0.3161
65428W        W 8340  12.268  31.090  19.385  0.3096 -0.0528 -0.3611
65429W        W 8341  12.681  32.344  21.552 -0.1295  0.2360  0.0485
65430W        W 8342  12.315  30.026  20.984 -0.0706 -0.1828  0.2648
65431W        W 8343  14.114  31.826  22.473  0.0290 -0.3021  0.1615
65432W        W 8344  11.978  30.971  20.373  0.1758  0.0441 -0.2169
65433W        W 8345  10.984  30.445  22.357 -0.2909  0.1182 -0.1579
65434W        W 8346  13.783  30.028  23.518  0.3072 -0.2752  0.2602
65435W        W 8347  12.064  31.246  21.908  0.0934  0.0845 -0.4865
65436W        W 8348  13.270  30.463  20.901  0.0223  0.0028 -0.3168
65437W        W 8349  12.523  29.550  19.463 -0.2711 -0.0351  0.3493
65438W        W 8350  13.885  31.305  22.996  0.1278 -0.1105  0.1421
65439W        W 8351  13.600  32.334  19.740  0.3928 -0.1528  0.1188
65440W        W 8352   9.720  30.491  18.778 -0.0797  0.2376 -0.2648
65441W        W 8353  13.351  33.231  21.930 -0.0459  0.4519 -0.0678
65442W        W 8354  14.346  30.739  23.066  0.3125  0.2220  0.1734
65443W        W 8355   9.465  31.450  23.209 -0.0737  0.1875 -0.0114
65444W        W 8356  12.312  32.326  21.948 -0.0330  0.0736 -0.0968
65445W        W 8357   9.844  32.363  19.177  0.0827 -0.1510  0.0696
65446W        W 8358  11.028  32.008  21.076  0.1446 -0.3924 -0.2896
65447W        W 8359  13.714  30.143  21.317  0.1484  0.0278 -0.0414
65448W        W 8360  14.324  30.260  20.677 -0.2165 -0.0974  0.2289
65449W        W 8361  12.585  32.860  22.632  0.1410  0.0904  0.2818
65450W        W 8362  14.198  33.009  21.320 -0.3506  0.3016  0.0222
65451W        W 8363  13.452  30.276  18.983 -0.0774  0.1857  0.0908
65452W        W 8364  13.088  30.208  20.066 -0.1401  0.2925 -0.2434
65453W        W 8365  10.896  30.666  21.856  0.3652 -0.1544 -0.1873
65454W        W 8366  14.477  32.708  22.375  0.2491 -0.0230 -0.2664
65455W        W 8367  11.164  32.694  21.928  0.0048 -0.1796  0.3919
65456W        W 8368  12.974  29.488  19.647  0.0092  0.4380 -0.0020
65457W        W 8369  13.749  33.873  18.722  0.1371 -0.4194 -0.3327
65458W        W 8370  10.061  32.550  22.670 -0.0657 -0.0552  0.4764
65459W        W 8371  11.521  31.914  22.861 -0.2503  0.3115  0.0613
65460W        W 8372  13.011  31.742  20.901 -0.1626  0.2807  0.2106
65461W        W 8373  11.886  29.448  22.448  0.1441  0.0533 -0.0476
65462W        W 8374  12.941  31.257  19.865  0.3085  0.0854  0.1172
65463W        W 8375  13.521  30.624  21.526 -0.2905 -0.0602 -0.1743
65464W        W 8376  12.671  32.889  18.481  0.1517 -0.1722  0.1553
65465W        W 8377  14.132  30.829  22.647  0.0284  0.0022 -0.2177
65466W        W 8378  13.606  29.580  23.288 -0.1746  0.1777 -0.0986
65467W        W 8379  12.915  28.629  22.841 -0.2265 -0.0081  0.0995
65468W        W 8380  13.242  30.825  22.585 -0.1474 -0.1315 -0.1626
65469W        W 8381  13.598  30.719  20.465  0.0313 -0.1087  0.0896
65470W        W 8382  12.612  31.181  21.602  0.2173 -0.0971  0.3169
65471W        W 8383  11.679  30.118  19.432 -0.0161  0.1905  0.1523
65472W        W 8384  13.952  28.913  22.050 -0.0262  0.1027 -0.0055
65473W        W 8385  11.285  32.129  23.212 -0.0662  0.3061 -0.2373
65474W        W 8386  11.635  31.458  23.203 -0.1500  0.1157  0.0933
65475W        W 8387  13.561  33.286  23.609  0.0101  0.2386 -0.0295
65476W        W 8388  11.155  30.237  21.791 -0.2105 -0.0698  0.0581
65477W        W 8389  13.281  29.780  22.857 -0.1095 -0.4001  0.0155
65478W        W 8390  14.427  30.570  21.011  0.2166  0.2386 -0.1723
65479W        W 8391  11.769  31.832  20.647 -0.3477  0.1301  0.1898
65480W        W 8392  13.080  31.889  18.807  0.0414 -0.0573 -0.1169
65481W        W 8393  11.048  30.551  21.361  0.3026 -0.1323 -0.2165
65482W        W 8394  12.099  31.869  21.070 -0.2115  0.3247  0.0983
65483W        W 8395  13.878  30.573  21.105  0.0650 -0.1831  0.0714
65484W        W 8396  12.761  30.800  23.341 -0.1582 -0.0627  0.0750
65485W        W 8397  12.330  32.564  18.238  0.4084 -0.0009  0.4304
65486W        W 8398  13.668  29.073  23.436  0.1479 -0.3129 -0.3541
65487W        W 8399  10.669  32.414  19.386  0.0517 -0.1019  0.0407
65488W        W 8400  11.182  29.985  19.491 -0.1430  0.0206  0.3213
65489W        W 8401  10.358  31.312  20.506 -0.0598  0.0874 -0.0565
65490W        W 8402  14.267  30.057  22.483 -0.1689 -0.2515  0.1355
65491W        W 8403  13.258  30.988  20.639 -0.0508 -0.1806  0.0785
65492W        W 8404  11.365  29.720  21.591  0.2105  0.0449  0.0066
65493W        W 8405  12.448  30.063  21.481 -0.0478 -0.1540  0.0024
65494W        W 8406  10.645  32.466  22.725 -0.0774 -0.0726  0.1145
65495W        W 8407  12.834  31.613  23.593  0.1175 -0.1573  0.3607
65496W        W 8408  14.096  29.111  19.006 -0.1440 -0.1483  0.0791
65497W        W 8409  12.486  33.127  21.890 -0.0308 -0.2268  0.0805
65498W        W 8410  11.101  33.184  22.053 -0.1225  0.0641 -0.0349
65499W        W 8411   9.746  29.292  19.833  0.2927 -0.0795 -0.1430
65500W        W 8412  13.476  30.755  22.114 -0.1062  0.4600  0.2266
65501W        W 8413  10.512  30.968  20.923 -0.3206  0.0957  0.0273
65502W        W 8414  10.487  31.770  20.288  0.1407 -0.4214 -0.3255
65503W        W 8415  12.554  33.038  21.414  0.3648  0.1494 -0.0274
65504W        W 8416  12.841  30.815  20.824 -0.1088 -0.0189  0.0504
65505W        W 8417  12.331  32.466  21.238  0.0106 -0.0880 -0.1164
65506W        W 8418  12.845  29.502  23.158 -0.0135 -0.2661 -0.1524
65507W        W 8419  13.556  31.335  21.792 -0.0184  0.2495  0.0929
65508W        W 8420  11.743  31.025  21.410 -0.2373 -0.1146  0.1142
65509W        W 8421  12.499  30.957  21.135 -0.2627 -0.0501 -0.2289
65510W        W 8422  14.207  29.315  20.816  0.0267  0.1386  0.0006
65511W        W 8423  13.741  32.526  23.161 -0.1927  0.2744 -0.0365
65512W        W 8424  11.540  30.380  22.263 -0.0715  0.3852 -0.0448
65513W        W 8425  11.025  31.335  22.527  0.1858 -0.1279 -0.1687
65514W        W 8426  13.132  29.293  22.345  0.0446 -0.2646 -0.0065
65515W        W 8427  14.203  33.933  20.982 -0.1799  0.1118  0.3070
65516W        W 8428  12.358  31.666  21.702  0.0059  0.2877  0.3247
65517W        W 8429  12.576  30.859  19.702  0.0131  0.0890 -0.0925
65518W        W 8430  10.101  31.840  21.136  0.2947  0.2205  0.0121
65519W        W 8431  11.570  31.814  21.226  0.1259 -0.2340  0.0530
65520W        W 8432  13.049  29.840  21.995  0.1064  0.1883 -0.0264
65521W        W 8433  10.949  32.052  21.540  0.1300 -0.0363 -0.3500
65522W        W 8434  12.841  31.007  18.945 -0.1394 -0.0912  0.0647
65523W        W 8435  12.047  32.180  21.499 -0.1100  0.0260 -0.0671
65524W        W 8436  13.901  30.172  20.281 -0.0247 -0.0140  0.1513
65525W        W 8437  13.839  31.575  20.804 -0.1786 -0.0203 -0.2057
65526W        W 8438  12.372  29.112  22.389  0.2853  0.0082 -0.0698
65527W        W 8439  14.257  30.183  23.380 -0.1437 -0.1631  0.0064
65528W        W 8440  12.513  30.493  20.609 -0.0962  0.1189 -0.0636
65529W        W 8441  12.942  28.989  23.816 -0.1085  0.0197  0.3453
65530W        W 8442  12.167  29.319  22.023  0.1139  0.0515  0.0593
65531W        W 8443  14.506  32.373  21.876 -0.1746  0.1422 -0.2423
65532W        W 8444  11.650  30.121  21.797  0.0994 -0.0231 -0.2082
65533W        W 8445  12.385  32.369  24.539  0.2270 -0.2770 -0.1042
65534W        W 8446  10.482  31.386  22.225 -0.4711  0.0921 -0.1723
65535W        W 8447  12.127  31.357  21.349  0.1320  0.0417  0.2314
65536W        W 8448  11.578  30.291  20.403 -0.3164  0.1498 -0.3904
65537W        W 8449  10.157  32.317  20.891  0.0924  0.2225 -0.2583
65538W        W 8450  15.264  31.841  22.599 -0.4159 -0.0335 -0.4959
65539W        W 8451  12.871  31.560  21.453  0.2338 -0.0142 -0.0971
65540W        W 8452  14.821  30.689  22.797 -0.2161  0.3435  0.0286
65541W        W 8453  10.373  29.908  21.462  0.0933 -0.2742 -0.1647
65542W        W 8454  13.708  30.200  21.853 -0.1100  0.1516  0.1956
65543W        W 8455  12.991  31.219  21.032 -0.1122  0.3936 -0.1440
65544W        W 8456  11.735  31.284  20.884 -0.2510  0.0689  0.0685
65545W        W 8457  11.965  28.017  21.547  0.0603 -0.2465  0.3031
65546W        W 8458  13.822  31.460  22.193 -0.2520  0.1565 -0.1642
65547W        W 8459  12.835  30.223  20.935  0.3150  0.5083 -0.5141
65548W        W 8460  13.766  29.753  21.587  0.2200  0.0709 -0.0230
65549W        W 8461  12.783  29.095  22.654 -0.0459  0.1407  0.0361
65550W        W 8462  12.810  30.554  22.710  0.0151  0.0120  0.1341
65551W        W 8463  10.251  30.017  23.017 -0.1246  0.1184 -0.1439
65552W        W 8464  14.696  33.200  23.814 -0.0425 -0.2610  0.0975
65553W        W 8465  14.284  31.155  20.723 -0.0111  0.0024  0.1638
65554W        W 8466  14.914  30.153  24.211  0.4937 -0.1382  0.4442
65555W        W 8467  15.458  32.502  20.935  0.2769  0.0275  0.1325
65556W        W 8468  13.027  31.018  22.014 -0.1194 -0.1203  0.0859
65557W        W 8469  10.841  31.174  21.263 -0.1476 -0.2177  0.1223
65558W        W 8470  12.894  31.079  23.768  0.1873 -0.2543  0.0259
65559W        W 8471  12.076  30.019  19.097 -0.1173  0.1282  0.1478
65560W        W 8472  12.441  29.951  23.817  0.1911  0.0710 -0.0463
65561W        W 8473  13.679  32.499  20.231 -0.0571  0.0829 -0.1657
65562W        W 8474  12.715  31.959  21.884 -0.0936  0.2802  0.2586
65563W        W 8475  11.918  30.588  21.551  0.3813  0.0306  0.1518
65564W        W 8476  10.060  32.303  21.382 -0.1168  0.1076 -0.0425
65565W        W 8477  11.257  32.152  22.137  0.1419 -0.1057  0.0166
65566W        W 8478  13.287  29.640  19.980 -0.0672 -0.2899  0.2259
65567W        W 8479  12.775  31.961  19.290  0.0190 -0.0304  0.5038
65568W        W 8480  12.838  31.217  22.465  0.1341 -0.1763  0.2719
65569W        W 8481  13.950  32.087  25.098  0.3757 -0.1079 -0.0252
65570W        W 8482  12.023  29.470  20.914 -0.1250 -0.1524  0.0011
65571W        W 8483  12.089  29.797  22.857 -0.0141 -0.2885 -0.0114
65572W        W 8484  10.226  32.208  20.440  0.1307  0.2075 -0.0379
65573W        W 8485  12.881  29.571  21.568  0.0022 -0.2665  0.1521
65574W        W 8486  11.384  33.056  21.184 -0.1635 -0.1089 -0.2466
65575W        W 8487  11.037  31.276  22.038  0.0619  0.2394 -0.0685
65576W        W 8488  12.142  31.757  20.211 -0.2461 -0.2178  0.0741
65577W        W 8489  12.886  29.805  22.458  0.1351  0.2343 -0.0369
65578W        W 8490  12.910  30.098  22.888  0.0565 -0.0698 -0.1288
65579W        W 8491  11.331  31.639  20.805 -0.1981 -0.0597 -0.1428
65580W        W 8492  13.136  32.267  21.867 -0.0975 -0.0586 -0.2282
65581W        W 8493  13.314  31.788  21.693  0.0420 -0.0800 -0.1744
65582W        W 8494  13.122  32.268  20.892  0.4308  0.0785 -0.0394
65583W        W 8495  11.467  33.319  22.436  0.2999  0.1279 -0.1405
65584W        W 8496  12.994  31.797  22.375 -0.0021 -0.0305  0.0252
65585W        W 8497  12.179  32.122  20.600  0.1797  0.2461  0.3863
65586W        W 8498  10.863  29.715  22.300 -0.3302  0.0504 -0.1537
65587W        W 8499  11.151  30.006  22.691  0.0584  0.1019  0.2811
65588W        W 8500  12.513  31.511  21.060  0.3832  0.3390  0.0357
65589W        W 8501  11.990  29.890  20.633 -0.3930  0.0549  0.3143
65590W        W 8502  12.864  32.468  22.735  0.2144 -0.0649  0.1004
65591W        W 8503  10.868  30.990  24.323 -0.0185  0.2629  0.2905
65592W        W 8504   8.855  32.607  20.874 -0.2380  0.2535  0.2279
65593W        W 8505  11.909  33.909  20.845  0.0078  0.3551  0.0163
65594W        W 8506  13.973  30.739  19.784 -0.1163 -0.0614  0.1145
65595W        W 8507  13.513  32.493  20.696 -0.1029 -0.3702  0.2034
65596W        W 8508  12.828  34.000  21.114 -0.1392  0.0684 -0.1027
65597W        W 8509  12.122  30.758  19.959 -0.1731  0.2606 -0.1951
65598W        W 8510   9.330  32.542  21.219  0.2519 -0.0493 -0.1516
65599W        W 8511  12.048  31.949  19.012 -0.0138  0.1246 -0.1857
65600W        W 8512  13.218  32.285  19.406  0.1244  0.0996 -0.1635
65601W        W 8513  12.530  31.683  20.589 -0.2090  0.0026 -0.2851
65602W        W 8514  13.341  33.262  22.433 -0.1120  0.3058 -0.2971
65603W        W 8515  13.713  29.237  20.527 -0.3076  0.0995 -0.0750
65604W        W 8516  13.804  31.053  21.355  0.0685 -0.1375  0.0002
65605W        W 8517  13.556  31.370  21.104  0.1925  0.0468  0.2560
65606W        W 8518  11.711  33.429  22.935 -0.0093 -0.2371  0.0030
65607W        W 8519  12.928  28.995  21.978 -0.0449  0.0296 -0.1544
65608W        W 8520  12.556  30.468  20.074  0.0916 -0.0580 -0.0365
65609W        W 8521  13.391  31.199  22.938  0.0651  0.1524 -0.0881
65610W        W 8522  14.882  29.409  25.310 -0.1058 -0.3112  0.2857
65611W        W 8523  11.024  32.468  22.404  0.3603  0.1124 -0.0720
65612W        W 8524  13.481  32.936  20.263 -0.0752 -0.1279 -0.0725
65613W        W 8525  11.466  30.195  21.278 -0.1388 -0.0253  0.1436
65614W        W 8526  11.141  31.601  21.405  0.0242 -0.4204  0.0470
65615W        W 8527  14.798  30.790  21.512 -0.1741  0.3172 -0.1357
65616W        W 8528  12.205  32.836  18.682  0.0277  0.0809 -0.0277
65617W        W 8529  12.703  29.457  22.111  0.0956  0.1656 -0.0776
65618W        W 8530  12.772  32.869  20.163  0.1357  0.1788  0.0059
65619W        W 8531  11.806  33.397  21.107  0.0493 -0.0749  0.0835
65620W        W 8532  12.810  32.590  21.088  0.1244 -0.1236  0.0496
65621W        W 8533  10.503  31.107  19.986  0.0539  0.3245 -0.2653
65622W        W 8534  14.069  31.411  21.728 -0.0830 -0.1620  0.0685
65623W        W 8535  11.597  32.137  21.666 -0.0862  0.1530 -0.0855
65624W        W 8536  13.993  28.766  23.838 -0.1912  0.0830 -0.1395
65625W        W 8537  11.510  30.232  19.904 -0.0660 -0.1181 -0.1904
65626W        W 8538  13.719  29.283  18.750 -0.0899  0.0744 -0.1346
65627W        W 8539  11.818  31.629  21.614 -0.2272  0.1863  0.2439
65628W        W 8540  11.974  30.111  21.357 -0.2055  0.2762  0.2045
65629W        W 8541  11.562  32.370  18.057  0.0741  0.2714  0.1232
65630W        W 8542  12.781  32.320  22.253  0.0400  0.0059  0.0758
65631W        W 8543  12.941  31.514  21.956 -0.0341 -0.2023 -0.3578
65632W        W 8544  12.749  33.069  23.911 -0.1656  0.3027 -0.0374
65633W        W 8545  13.388  30.075  19.652  0.0181  0.2213 -0.0022
65634W        W 8546  12.809  29.693  20.077  0.0127  0.1598 -0.0206
65635W        W 8547  12.036  30.495  20.430 -0.1617  0.3146  0.0512
65636W        W 8548  12.453  30.972  22.733 -0.0010  0.1481  0.1556
65637W        W 8549  13.126  33.983  23.222  0.2639  0.0733 -0.0412
65638W        W 8550  12.078  31.000  22.357  0.2988 -0.1254 -0.0244
65639W        W 8551  14.071  32.574  19.991 -0.2010 -0.0367 -0.0085
65640W        W 8552  14.176  31.046  22.118 -0.3090 -0.3721  0.2966
65641W        W 8553  12.695  32.492  19.595  0.0449  0.2000 -0.0633
65642W        W 8554  13.534  31.929  22.244  0.1389 -0.0988 -0.0718
65643W        W 8555  13.309  32.725  21.781 -0.0036 -0.2119 -0.2240
65644W        W 8556  10.034  31.649  20.596  0.1909 -0.1578  0.2891
65645W        W 8557  13.712  33.270  22.743 -0.1493  0.2280 -0.1626
65646W        W 8558  12.784  34.155  22.391 -0.1443  0.1531  0.1011
65647W        W 8559  13.006  30.063  21.439  0.0150 -0.3259 -0.1116
65648W        W 8560  12.856  30.573  21.286 -0.0566  0.0446 -0.0044
65649W        W 8561   9.026  31.536  20.639  0.0255  0.0864 -0.0800
65650W        W 8562  12.963  31.539  22.786 -0.0114  0.5814 -0.0434
65651W        W 8563  13.970  29.411  23.727 -0.2301 -0.3844 -0.0640
65652W        W 8564  11.622  32.184  19.446 -0.0481 -0.0037  0.1183
65653W        W 8565  13.135  29.085  24.706  0.2062 -0.0602  0.1397
65654W        W 8566  11.709  32.044  22.298 -0.2751  0.1460  0.0728
65655W        W 8567  10.810  32.057  23.599 -0.1119 -0.1093  0.1548
65656W        W 8568  11.399  31.554  17.828 -0.0255  0.0685 -0.0038
65657W        W 8569  12.174  31.466  23.425  0.2356  0.4997 -0.3738
65658W        W 8570  13.364  30.908  21.083  0.1075  0.1155  0.0431
65659W        W 8571  13.616  31.980  20.665  0.0916 -0.1964  0.0227
65660W        W 8572  13.721  32.148  22.659  0.1747 -0.1298 -0.0768
65661W        W 8573  13.975  29.351  19.600 -0.3786  0.0816  0.0594
65662W        W 8574  15.275  32.756  23.169  0.2674 -0.4031  0.0539
65663W        W 8575  11.929  30.799  20.918  0.1628 -0.1053 -0.4320
65664W        W 8576  14.239  29.840  21.667 -0.2776  0.0493  0.1535
65665W        W 8577  13.464  30.016  22.247  0.0123 -0.0052 -0.3065
65666W        W 8578  11.606  32.764  21.721  0.4053 -0.0024  0.2165
65667W        W 8579  11.938  29.398  20.439  0.3228 -0.3307  0.2440
65668W        W 8580  11.263  31.740  18.701 -0.1559 -0.3030  0.0166
65669W        W 8581  11.822  32.247  20.911  0.1026  0.2731  0.4019
65670W        W 8582  11.912  29.411  23.057  0.1024 -0.2089  0.1213
65671W        W 8583  12.114  30.266  21.924 -0.3677  0.2029  0.3722
65672W        W 8584  11.275  31.836  19.625  0.0640 -0.1584  0.1115
65673W        W 8585  10.542  30.563  20.608 -0.2220  0.1439  0.1168
65674W        W 8586  14.107  32.534  21.398 -0.4799 -0.4628  0.5539
65675W        W 8587  11.783  30.250  20.871  0.0615 -0.2131 -0.0724
65676W        W 8588  10.420  32.036  21.645  0.3226 -0.1087 -0.1867
65677W        W 8589  13.526  31.136  19.581  0.0409  0.1992  0.0885
65678W        W 8590  13.249  31.537  20.205  0.1484 -0.0486 -0.1421
65679W        W 8591  12.394  30.566  21.651 -0.1918 -0.0262  0.1860
65680W        W 8592  13.103  32.940  22.767  0.1808  0.0816 -0.2422
65681W        W 8593  10.752  32.580  18.307 -0.0049 -0.2214 -0.0806
65682W        W 8594  11.763  30.787  22.078  0.0949 -0.0137 -0.0832
65683W        W 8595  11.657  30.995  23.267  0.0168  0.0408 -0.1536
65684W        W 8596   9.610  30.664  20.707  0.2241  0.0973 -0.0012
65685W        W 8597  12.635  28.683  22.428 -0.0451  0.0564  0.2521
65686W        W 8598  14.882  32.263  22.340 -0.1455 -0.2414  0.0847
65687W        W 8599  14.387  33.321  20.299  0.1425 -0.3728  0.1653
65688W        W 8600  12.624  32.122  20.856 -0.1362 -0.1201  0.1784
65689W        W 8601  11.651  33.252  21.973 -0.0812  0.1730 -0.0750
65690W        W 8602  11.263  29.511  22.546  0.2219 -0.1961 -0.1785
65691W        W 8603  12.729  30.886  20.297 -0.0222  0.2808 -0.4162
65692W        W 8604  12.472  31.977  21.329  0.1311 -0.0782 -0.2619
65693W        W 8605  13.961  32.084  20.007  0.4838 -0.0068 -0.4317
65694W        W 8606  14.424  30.270  22.922  0.3005  0.4314  0.1210
65695W        W 8607  11.487  30.746  20.585 -0.2415  0.0172  0.1117
65696W        W 8608  11.323  29.904  22.211 -0.2431  0.1335 -0.2943
65697W        W 8609  11.771  32.716  21.167  0.2327  0.0064 -0.1772
65698W        W 8610  12.503  30.878  22.044 -0.0723 -0.3248 -0.2357
65699W        W 8611  11.748  29.027  21.772 -0.1172  0.2751  0.2591
65700W        W 8612  13.199  29.383  21.851 -0.1705 -0.2389 -0.0530
65701W        W 8613  13.239  31.050  21.554  0.4655  0.1050  0.0032
65702W        W 8614  11.630  31.190  22.395  0.2162 -0.0419  0.0618
65703W        W 8615  12.391  31.046  20.636  0.0518  0.0732 -0.0029
65704W        W 8616  12.149  31.139  23.106  0.2624 -0.0389  0.2412
65705W        W 8617  12.837  33.507  21.326  0.0612 -0.2891 -0.1272
65706W        W 8618  12.615  31.553  24.076 -0.1905 -0.1711 -0.0375
65707W        W 8619  12.535  31.897  18.770 -0.0673  0.0556  0.3541
65708W        W 8620  13.908  31.129  20.016 -0.1366  0.0918 -0.1359
65709W        W 8621  12.390  33.644  22.061  0.0828 -0.1784 -0.0292
65710W        W 8622  15.289  31.708  25.234 -0.4108  0.0493 -0.1981
65711W        W 8623  11.829  33.567  23.405 -0.2903 -0.0503 -0.0147
65712W        W 8624  14.465  31.263  23.058  0.0918  0.0256 -0.0426
65713W        W 8625  11.140  29.549  21.083  0.3232  0.0921 -0.1381
65714W        W 8626  13.647  31.544  19.836  0.2606 -0.0644 -0.0548
65715W        W 8627  12.127  31.500  20.691 -0.0910  0.0047  0.0736
65716W        W 8628  14.100  28.673  22.475  0.3244 -0.0651  0.0857
65717W        W 8629  11.294  31.146  20.341  0.2858 -0.3207  0.4237
65718W        W 8630  12.573  29.001  19.571 -0.2977  0.3014 -0.1491
65719W        W 8631  10.616  32.482  24.011 -0.0344  0.0338  0.1837
65720W        W 8632  12.475  31.402  22.166  0.4396 -0.0256 -0.2021
65721W        W 8633  11.997  30.989  27.359  0.3015 -0.0375  0.0716
65722W        W 8634  11.706  29.783  23.291 -0.0302 -0.1992  0.0953
65723W        W 8635  14.015  30.444  23.849  0.0806 -0.0243  0.2000
65724W        W 8636  13.371  31.627  23.227  0.2371 -0.3327 -0.0661
65725W        W 8637  10.613  29.563  25.205  0.1970 -0.1461 -0.1333
65726W        W 8638  12.667  32.529  23.963  0.2622  0.4358  0.0043
65727W        W 8639  11.054  27.385  26.878  0.0718 -0.1703 -0.0196
65728W        W 8640  13.051  31.618  25.397 -0.0100  0.2192 -0.0694
65729W        W 8641  13.187  33.365  25.877 -0.0664 -0.0019 -0.0012
65730W        W 8642  12.183  30.692  24.043  0.2524 -0.1891 -0.1688
65731W        W 8643  12.625  30.542  26.622 -0.0933  0.3331 -0.0454
65732W        W 8644  11.450  31.896  27.421 -0.1672 -0.0224 -0.3273
65733W        W 8645  11.501  29.535  24.126  0.2422  0.1347 -0.1037
65734W        W 8646  11.483  28.288  26.676  0.2083  0.3052 -0.4264
65735W        W 8647  13.543  30.703  26.955 -0.0457 -0.0681 -0.0943
65736W        W 8648  10.889  31.283  24.855  0.0975  0.0808 -0.1106
65737W        W 8649  11.437  29.214  26.935  0.0718  0.1366  0.1251
65738W        W 8650  12.375  30.186  22.842  0.2031 -0.1712 -0.1404
65739W        W 8651  12.553  34.628  25.379 -0.2380 -0.2510  0.1439
65740W        W 8652  12.970  29.930  27.121  0.2726  0.0171 -0.0417
65741W        W 8653  12.916  29.011  27.945  0.0502  0.1643 -0.1212
65742W        W 8654  12.215  31.909  24.606 -0.3209 -0.0674  0.0517
65743W        W 8655  10.970  30.553  23.341  0.0929  0.1631  0.0892
65744W        W 8656  11.583  30.684  27.152  0.1420  0.3680  0.1996
65745W        W 8657  11.129  30.015  28.040  0.1073 -0.0564  0.0027
65746W        W 8658  13.062  29.815  25.055  0.1839  0.2840 -0.0946
65747W        W 8659  14.663  33.940  24.210 -0.2520  0.2235 -0.0062
65748W        W 8660  13.063  31.902  26.659  0.3087  0.0793 -0.0270
65749W        W 8661  13.116  32.172  25.289  0.0551  0.0654 -0.0825
65750W        W 8662  14.021  30.817  27.026  0.0236 -0.0405  0.0071
65751W        W 8663  11.651  31.804  25.063 -0.2262  0.2183 -0.2063
65752W        W 8664  10.949  32.334  25.692 -0.2034  0.2089  0.1644
65753W        W 8665  11.739  33.587  25.100  0.1118  0.2510 -0.2420
65754W        W 8666  12.816  32.962  23.176  0.0307 -0.0510 -0.3051
65755W        W 8667  13.870  31.842  25.807  0.2237 -0.0246 -0.0600
65756W        W 8668  12.945  32.733  26.454 -0.0189  0.0578 -0.1959
65757W        W 8669  10.383  31.997  23.965 -0.0529 -0.2777  0.0576
65758W        W 8670  12.939  32.625  27.886 -0.4404  0.1442 -0.0622
65759W        W 8671  13.134  31.119  26.968 -0.3327  0.0643 -0.0715
65760W        W 8672  12.343  30.390  25.660  0.1236  0.1341  0.4247
65761W        W 8673  11.093  31.515  26.751 -0.0034 -0.1609 -0.0463
65762W        W 8674  11.593  30.421  23.261  0.0185  0.0374 -0.0628
65763W        W 8675  11.808  30.960  26.205  0.0728  0.0500 -0.0190
65764W        W 8676  13.386  31.244  26.098  0.2057  0.1529 -0.1459
65765W        W 8677  10.541  32.997  26.528  0.0018  0.0261  0.0314
65766W        W 8678  13.367  29.625  27.283 -0.1377 -0.1243 -0.0817
65767W        W 8679  10.179  30.761  23.722  0.2909 -0.2247 -0.1215
65768W        W 8680  12.865  31.010  22.930  0.3673  0.4062 -0.1624
65769W        W 8681  11.725  30.640  23.901  0.0448  0.0225 -0.4360
65770W        W 8682  11.516  31.330  23.662  0.1276 -0.0707 -0.0906
65771W        W 8683  11.609  29.823  22.821  0.1523  0.0972  0.0424
65772W        W 8684  12.542  33.394  25.534  0.0305 -0.1492 -0.0348
65773W        W 8685  12.616  29.635  24.278 -0.2918 -0.1724 -0.1090
65774W        W 8686  14.342  32.182  26.087 -0.1846  0.2346  0.0316
65775W        W 8687  12.416  30.979  23.701 -0.2663 -0.0186 -0.0620
65776W        W 8688  12.280  30.325  24.746  0.0615 -0.0031  0.2442
65777W        W 8689  11.607  32.847  27.298  0.1272  0.1406 -0.3227
65778W        W 8690  10.916  30.497  24.273  0.0148 -0.0899 -0.0239
65779W        W 8691  11.690  33.041  23.591  0.2055  0.2070  0.4786
65780W        W 8692  12.832  32.099  23.799  0.1576  0.0374  0.2920
65781W        W 8693  12.546  31.701  23.162 -0.3568 -0.2603  0.0636
65782W        W 8694  11.044  31.529  25.658 -0.1796 -0.0139  0.1521
65783W        W 8695  11.952  31.990  27.475  0.1726  0.1979 -0.0463
65784W        W 8696  11.113  29.704  27.164 -0.1845 -0.0508 -0.1060
65785W        W 8697  11.584  29.159  21.268 -0.0407  0.0708  0.0563
65786W        W 8698  15.002  32.830  28.623  0.0057 -0.4317 -0.1240
65787W        W 8699  10.485  31.642  27.390  0.0784  0.2833 -0.1692
65788W        W 8700  13.614  30.273  24.560  0.0183  0.2793  0.0517
65789W        W 8701  11.556  31.459  26.540  0.1598 -0.3472 -0.3239
65790W        W 8702  11.901  32.175  23.723  0.2316 -0.1110 -0.1091
65791W        W 8703  12.153  33.241  22.806  0.0383  0.2018  0.0372
65792W        W 8704  13.160  29.033  26.606 -0.3116 -0.1763 -0.0794
65793W        W 8705  12.042  29.893  25.207  0.0934  0.0286 -0.0806
65794W        W 8706  10.609  30.317  21.615  0.2285  0.0981 -0.1482
65795W        W 8707  13.498  30.250  23.158 -0.0054  0.2491 -0.0115
65796W        W 8708  14.873  32.700  27.390  0.0687 -0.0140 -0.1826
65797W        W 8709  12.389  29.231  23.908  0.1241  0.1728  0.0418
65798W        W 8710  12.132  32.106  25.542  0.2266 -0.1769  0.1258
65799W        W 8711  13.310  30.857  26.530 -0.3058 -0.1172  0.0157
65800W        W 8712  14.252  32.438  26.963  0.1469 -0.3046 -0.2210
65801W        W 8713  11.369  32.990  23.101 -0.2201  0.2352 -0.2172
65802W        W 8714  10.514  31.015  24.718  0.0703  0.1010 -0.3261
65803W        W 8715  10.452  30.586  24.152  0.0013  0.2336  0.0730
65804W        W 8716  11.560  28.679  25.645  0.0914  0.2880  0.0220
65805W        W 8717  12.596  33.588  25.965  0.2252 -0.1756 -0.3751
65806W        W 8718  13.549  28.782  24.807 -0.1419 -0.1181  0.2212
65807W        W 8719  12.675  29.581  27.967 -0.1564 -0.1868  0.1911
65808W        W 8720  11.474  29.772  24.608 -0.1031 -0.2754 -0.0911
65809W        W 8721  11.917  31.670  23.808 -0.2767 -0.2399 -0.3285
65810W        W 8722  12.854  32.476  24.471  0.0695  0.1541  0.1315
65811W        W 8723  13.057  30.044  23.789  0.0148  0.1206  0.1700
65812W        W 8724  13.249  32.134  24.193  0.3758 -0.2091  0.2194
65813W        W 8725  11.539  31.144  27.423 -0.3603  0.1330  0.1323
65814W        W 8726  11.538  29.818  25.091  0.1564  0.0035  0.1570
65815W        W 8727  10.882  30.845  27.279 -0.1221  0.0198  0.0665
65816W        W 8728  10.638  29.946  24.846  0.0773 -0.0706 -0.4127
65817W        W 8729  14.189  30.118  24.808 -0.0510 -0.3360  0.0545
65818W        W 8730  10.629  30.013  23.297 -0.0525  0.2227 -0.0864
65819W        W 8731  13.990  31.102  25.172  0.0352  0.1215  0.3454
65820W        W 8732  11.353  30.901  24.119 -0.2476 -0.0193 -0.0324
65821W        W 8733  10.326  31.719  25.339  0.0216 -0.1998  0.1599
65822W        W 8734  13.897  30.111  27.496  0.2857  0.1033 -0.1763
65823W        W 8735  12.161  32.665  23.887  0.0707 -0.1127  0.3408
65824W        W 8736  13.762  32.754  27.061  0.0795 -0.2460  0.2494
65825W        W 8737  13.054  32.610  25.564 -0.0217 -0.1958  0.0451
65826W        W 8738  12.681  29.157  26.614  0.2617  0.1417  0.0290
65827W        W 8739  11.234  30.006  23.218 -0.0062 -0.1270  0.1694
65828W        W 8740  10.986  33.200  24.729  0.2219 -0.1483  0.0278
65829W        W 8741  11.076  34.001  24.522 -0.1006 -0.2013  0.3085
65830W        W 8742  11.161  31.164  23.291 -0.4064 -0.2394 -0.2226
65831W        W 8743  13.817  32.645  27.749 -0.3264  0.0324  0.2821
65832W        W 8744  12.291  32.130  24.021  0.1206  0.1210 -0.0809
65833W        W 8745  11.612  32.435  26.676 -0.1505  0.0601 -0.2939
65834W        W 8746  13.521  29.467  26.761 -0.3309 -0.1039  0.2918
65835W        W 8747  12.617  30.240  26.192  0.2071  0.0772  0.3787
65836W        W 8748  12.373  30.784  25.141  0.1744 -0.0224 -0.3009
65837W        W 8749  12.427  30.418  22.307 -0.2435 -0.1648 -0.0261
65838W        W 8750  12.192  32.230  25.042 -0.0914 -0.1903  0.1028
65839W        W 8751  10.975  32.655  24.400 -0.0768  0.2385 -0.0233
65840W        W 8752  10.646  31.632  22.689  0.1355 -0.0416  0.0732
65841W        W 8753  11.240  33.613  24.844  0.1704 -0.1545  0.0549
65842W        W 8754  13.844  30.018  25.544  0.0093  0.0146  0.1578
65843W        W 8755  11.221  30.643  27.579 -0.1560  0.2281 -0.1218
65844W        W 8756  12.129  30.372  25.199  0.3235  0.0374  0.2485
65845W        W 8757  11.881  30.251  22.878 -0.1532 -0.1746  0.1598
65846W        W 8758  10.167  33.081  26.237  0.0753  0.0324 -0.4066
65847W        W 8759  12.968  29.636  24.606  0.2587 -0.1814  0.2158
65848W        W 8760  12.006  30.687  23.476 -0.2682  0.0255  0.0539
65849W        W 8761  13.789  30.857  26.171  0.3085 -0.1852 -0.0883
65850W        W 8762  12.396  31.835  23.671 -0.0341  0.0810 -0.3001
65851W        W 8763  12.272  30.641  23.059  0.2731 -0.0312  0.0884
65852W        W 8764  13.541  30.446  23.685  0.2187  0.1010  0.0868
65853W        W 8765  11.872  32.599  28.159 -0.0688  0.0762  0.2904
65854W        W 8766  11.262  31.630  26.147 -0.2952 -0.1043  0.0030
65855W        W 8767  12.057  31.422  24.729 -0.0469  0.0395 -0.1661
65856W        W 8768  13.956  30.561  23.362  0.1365  0.2690  0.0349
65857W        W 8769  14.218  31.024  23.507 -0.1313  0.1023  0.0578
65858W        W 8770   9.800  31.875  25.824 -0.1383 -0.0834 -0.4414
65859W        W 8771  13.122  31.877  27.716  0.1936  0.0292  0.1570
65860W        W 8772  12.361  31.119  26.058  0.1144  0.2016 -0.0480
65861W        W 8773  12.487  29.115  25.751 -0.3071  0.0852  0.1166
65862W        W 8774  12.408  31.473  22.646 -0.0344  0.1042 -0.1541
65863W        W 8775  12.739  30.121  24.179 -0.0150  0.1826 -0.2223
65864W        W 8776  10.168  33.622  24.968 -0.0910 -0.2816  0.0809
65865W        W 8777  13.927  29.505  26.527 -0.0309 -0.2656  0.0618
65866W        W 8778  12.575  28.658  26.438 -0.0011  0.3009  0.3058
65867W        W 8779  10.968  29.542  27.728  0.1515  0.0195  0.0206
65868W        W 8780  14.102  30.510  27.817  0.1235 -0.1092 -0.1513
65869W        W 8781  12.141  31.544  24.229 -0.2066 -0.2991 -0.1724
65870W        W 8782  11.323  30.677  25.723 -0.2149 -0.3131 -0.0121
65871W        W 8783  10.781  30.931  22.318 -0.1334  0.0234 -0.0029
65872W        W 8784  12.743  30.786  25.613 -0.0823 -0.0249  0.0135
65873W        W 8785  12.129  30.074  27.634  0.4273  0.1809 -0.2177
65874W        W 8786  11.508  32.911  26.599  0.2097  0.3170 -0.0480
65875W        W 8787  12.938  31.092  25.195  0.0376 -0.1970 -0.2622
65876W        W 8788  12.714  31.090  24.732 -0.0853 -0.1666 -0.1972
65877W        W 8789  12.815  31.166  28.083 -0.1786 -0.2652  0.3775
65878W        W 8790  11.290  29.523  23.510  0.0359 -0.4156 -0.0330
65879W        W 8791  11.069  32.007  22.642 -0.2889  0.1548  0.2449
65880W        W 8792  11.357  33.178  24.066 -0.1499 -0.1649 -0.2723
65881W        W 8793  12.719  28.747  24.768  0.3465  0.1011 -0.0814
65882W        W 8794  12.119  31.503  25.612  0.2798 -0.1097 -0.0995
65883W        W 8795  11.187  31.619  23.006 -0.0183  0.2852 -0.0279
65884W        W 8796  13.315  30.774  25.992  0.2722 -0.0870 -0.2235
65885W        W 8797  11.158  31.402  24.416 -0.0835 -0.2560 -0.0787
65886W        W 8798  13.151  29.898  25.994 -0.1369 -0.0904 -0.1128
65887W        W 8799  11.344  32.034  25.839  0.0966 -0.1739 -0.1127
65888W        W 8800  10.718  30.312  22.832 -0.1000  0.0483  0.1762
65889W        W 8801  10.537  30.403  25.756 -0.1736 -0.3058  0.3077
65890W        W 8802  14.008  29.051  25.873  0.0227  0.0155  0.0609
65891W        W 8803  14.244  31.857  23.628  0.1963 -0.1290  0.3063
65892W        W 8804  11.055  29.750  26.167 -0.0050 -0.0369 -0.0808
65893W        W 8805  11.964  29.951  24.626  0.0401  0.2003 -0.1741
65894W        W 8806  10.616  32.187  26.069 -0.0916 -0.0871 -0.0488
65895W        W 8807  13.414  30.754  25.216  0.1937 -0.0382 -0.0610
65896W        W 8808  12.571  29.227  24.695  0.2635 -0.1408  0.3266
65897W        W 8809  13.515  31.631  26.845 -0.4164  0.1681  0.2482
65898W        W 8810  12.725  33.138  28.569  0.2484 -0.2562 -0.0820
65899W        W 8811  11.999  30.267  23.844  0.2109 -0.0212  0.0496
65900W        W 8812  13.997  31.072  27.492  0.0025 -0.0035 -0.0824
65901W        W 8813  11.513  31.231  24.783 -0.1200  0.0218 -0.0184
65902W        W 8814  11.239  31.908  25.348 -0.0140 -0.1485  0.1497
65903W        W 8815  13.259  31.914  25.812  0.5381  0.1038 -0.1353
65904W        W 8816  12.196  32.688  23.022  0.0543  0.1948  0.0205
65905W        W 8817  11.889  32.558  24.379 -0.1967  0.0944  0.0798
65906W        W 8818  13.142  30.674  28.892  0.0218 -0.0763  0.2640
65907W        W 8819  13.724  31.147  26.600 -0.0579 -0.0322 -0.0311
65908W        W 8820  12.236  30.139  24.283 -0.3041 -0.1174  0.3249
65909W        W 8821  11.647  30.546  25.368  0.6031  0.2222  0.0387
65910W        W 8822  11.812  31.104  24.360  0.1533 -0.0192 -0.2355
65911W        W 8823  12.527  31.789  25.489 -0.1385  0.1385 -0.3032
65912W        W 8824  11.888  29.941  26.598 -0.0241  0.0211  0.1595
65913W        W 8825  12.566  32.545  27.390  0.2129 -0.1978  0.2288
65914W        W 8826  11.843  29.333  27.338  0.0050 -0.0513  0.0525
65915W        W 8827  14.703  33.556  24.716  0.0186  0.2052 -0.0962
65916W        W 8828  13.086  31.492  28.451 -0.2228  0.0088  0.2832
65917W        W 8829  13.136  31.175  23.361  0.0691 -0.1237  0.1326
65918W        W 8830  11.196  31.026  26.457 -0.0412 -0.5161 -0.2263
65919W        W 8831  11.938  31.116  23.825  0.0361  0.0437 -0.1418
65920W        W 8832  13.535  29.624  25.324 -0.4012  0.2083  0.1087
65921W        W 8833  13.343  30.905  27.434 -0.1733 -0.3246  0.1685
65922W        W 8834  10.481  32.101  22.461 -0.0417  0.2280  0.1575
65923W        W 8835  11.550  31.512  25.650 -0.0296  0.0736  0.2148
65924W        W 8836  13.857  29.243  24.800  0.4570 -0.1995 -0.0742
65925W        W 8837  12.421  32.864  23.460  0.1927 -0.0528 -0.1755
65926W        W 8838  12.705  31.984  24.290 -0.2430  0.2199 -0.1995
65927W        W 8839  12.844  30.982  27.625  0.0661 -0.0497  0.0156
65928W        W 8840  13.219  32.120  22.960 -0.2004  0.1714  0.0230
65929W        W 8841  12.909  30.128  26.669  0.1650  0.0518 -0.0638
65930W        W 8842  11.139  30.215  24.596 -0.3032  0.1492  0.0005
65931W        W 8843  12.524  32.274  23.129 -0.2982  0.1630  0.2231
65932W        W 8844  10.050  31.184  28.056  0.1325 -0.2045 -0.1251
65933W        W 8845  12.104  33.476  27.412 -0.0790  0.0568 -0.0166
65934W        W 8846  11.583  30.234  26.847 -0.2243  0.0966  0.0635
65935W        W 8847  12.606  30.195  25.097 -0.2442  0.0646  0.1206
65936W        W 8848  10.839  29.865  21.699  0.1025  0.0934 -0.1907
65937W        W 8849  11.658  32.313  27.142 -0.2619 -0.0954  0.1958
65938W        W 8850  12.213  30.935  24.662  0.0707 -0.0344  0.0075
65939W        W 8851  11.769  32.187  24.720  0.3702 -0.4112  0.4546
65940W        W 8852  13.616  29.749  26.137 -0.1011  0.0405  0.1249
65941W        W 8853  11.423  30.237  26.315 -0.3115 -0.0147  0.0206
65942W        W 8854  14.292  30.741  24.945  0.0694 -0.3238 -0.1035
65943W        W 8855  11.948  32.637  23.450 -0.2561  0.0939  0.3344
65944W        W 8856  12.236  31.866  26.299 -0.0010 -0.1427  0.1764
65945W        W 8857  11.689  29.788  27.077 -0.0434  0.2163 -0.1940
65946W        W 8858  13.885  29.767  27.083  0.0015  0.0695  0.2014
65947W        W 8859  12.640  31.309  25.520 -0.2511 -0.0380  0.0530
65948W        W 8860  13.594  30.493  26.448 -0.5387 -0.2036  0.0960
65949W        W 8861  13.463  31.272  25.182  0.0781 -0.0388 -0.2949
65950W        W 8862  11.942  32.120  28.335  0.2643 -0.0001 -0.1991
65951W        W 8863  10.348  30.281  28.264  0.3055 -0.0837 -0.1052
65952W        W 8864  13.375  33.824  26.536  0.1160 -0.0565 -0.2211
65953W        W 8865  14.050  30.218  24.314 -0.3182 -0.2407  0.2892
65954W        W 8866  13.111  29.680  26.501  0.0012 -0.2899  0.1700
65955W        W 8867  11.516  29.820  26.001  0.0880 -0.3343 -0.0931
65956W        W 8868  12.180  32.354  22.488  0.3880 -0.0044  0.0676
65957W        W 8869  10.877  29.157  24.909  0.0530  0.0152  0.0435
65958W        W 8870  13.888  30.327  26.930 -0.1667 -0.2378 -0.1698
65959W        W 8871  12.605  31.272  23.312 -0.1679  0.1972  0.3519
65960W        W 8872  12.801  30.725  26.106 -0.2557 -0.0057  0.1886
65961W        W 8873  11.463  32.807  24.405  0.0303 -0.1838  0.2165
65962W        W 8874  13.849  30.675  24.744  0.3012 -0.0190  0.2141
65963W        W 8875  13.234  29.834  23.417  0.1599  0.3744 -0.3247
65964W        W 8876  11.246  31.384  25.220  0.2778  0.0607  0.1663
65965W        W 8877  12.376  33.076  27.366  0.1588  0.0342  0.3632
65966W        W 8878  10.258  30.264  24.491 -0.1362  0.0398 -0.0891
65967W        W 8879  11.325  30.813  23.605  0.0142  0.1145 -0.2476
65968W        W 8880  11.806  32.110  24.227 -0.0748 -0.1447 -0.2451
65969W        W 8881  14.676  30.941  28.243 -0.0635 -0.1500  0.0544
65970W        W 8882  12.206  28.313  23.885 -0.1493 -0.0488 -0.0827
65971W        W 8883  13.631  29.946  28.674  0.1061  0.1552  0.5198
65972W        W 8884  11.117  31.693  23.550 -0.0981  0.2900  0.2269
65973W        W 8885  12.910  29.565  25.569  0.1433 -0.2021  0.3007
65974W        W 8886  11.654  32.439  27.618 -0.2707  0.0965  0.2982
65975W        W 8887  12.025  31.442  27.535 -0.3721  0.2950  0.0717
65976W        W 8888  11.582  32.750  25.304  0.1213 -0.0448  0.1184
65977W        W 8889  12.468  29.493  25.341 -0.0493 -0.0444 -0.1101
65978W        W 8890  12.584  31.025  24.256 -0.0024 -0.0943  0.1601
65979W        W 8891  12.167  30.958  25.610 -0.1620  0.1686 -0.0117
65980W        W 8892  14.066  31.659  26.808 -0.0840 -0.1262  0.0292
65981W        W 8893  12.279  32.424  26.901  0.0531  0.0334 -0.1203
65982W        W 8894  12.038  31.394  26.607 -0.1618 -0.1997  0.2131
65983W        W 8895  12.868  32.361  26.863  0.1270  0.1939  0.0369
65984W        W 8896  13.135  31.478  24.813 -0.2609  0.1748  0.2933
65985W        W 8897  10.684  31.394  26.444  0.0553  0.0771 -0.1764
65986W        W 8898  11.151  29.096  28.071 -0.0692  0.2499  0.0869
65987W        W 8899  13.425  30.119  27.296  0.1223  0.1226  0.0529
65988W        W 8900  13.237  30.754  24.709 -0.5701 -0.0625 -0.1797
65989W        W 8901  11.875  29.760  23.733 -0.1163  0.2067 -0.2185
65990W        W 8902  11.470  32.837  22.257 -0.0165 -0.3589  0.0515
65991W        W 8903  11.534  32.054  27.927 -0.0531  0.1637  0.2098
65992W        W 8904  12.362  31.158  26.908  0.0277 -0.0665  0.3115
65993W        W 8905   9.892  31.618  23.398 -0.3173  0.1339  0.4644
65994W        W 8906  13.819  31.848  23.078  0.3302 -0.0242 -0.0373
65995W        W 8907  13.283  31.886  23.770 -0.1874  0.0872 -0.2440
65996W        W 8908  14.009  32.053  26.513 -0.1934  0.0720 -0.1830
65997W        W 8909  10.990  30.064  23.696  0.2860  0.2378 -0.1728
65998W        W 8910  11.160  32.503  26.573 -0.4091 -0.0714  0.0924
65999W        W 8911  10.098  32.884  24.485 -0.2870  0.0691  0.3055
66000W        W 8912  12.362  32.756  22.233 -0.0743  0.2181  0.2545
66001W        W 8913  11.560  31.859  23.507 -0.3838  0.3318  0.1741
66002W        W 8914  13.716  30.585  27.406  0.0724 -0.0751  0.0038
66003W        W 8915  13.524  29.655  23.920  0.0779 -0.1153 -0.1692
66004W        W 8916  12.074  32.001  23.313  0.2724  0.2330  0.1090
66005W        W 8917  13.517  31.674  24.562 -0.0672 -0.2534 -0.1982
66006W        W 8918  13.114  33.852  25.825 -0.1655  0.4675 -0.1121
66007W        W 8919  11.637  31.025  25.564 -0.0656  0.2343  0.1086
66008W        W 8920  12.371  29.063  20.787 -0.0239 -0.1904 -0.0158
66009W        W 8921  12.237  30.895  26.484  0.1451 -0.0322 -0.2384
66010W        W 8922  15.312  28.620  26.497 -0.1551  0.0851  0.0824
66011W        W 8923  10.859  33.367  26.924  0.2527  0.4307  0.2808
66012W        W 8924  13.605  32.889  24.942 -0.1011  0.2137  0.1408
66013W        W 8925  13.045  31.161  24.394 -0.0361  0.1251  0.1190
66014W        W 8926  12.428  30.443  23.654  0.3548 -0.4092 -0.0824
66015W        W 8927  13.472  29.108  27.135  0.1969 -0.1144  0.0908
66016W        W 8928  11.837  31.460  22.763 -0.0183 -0.1026 -0.0137
66017W        W 8929  11.701  30.534  24.420 -0.0076  0.0210 -0.1646
66018W        W 8930  10.848  33.002  25.578  0.2744 -0.1581  0.0119
66019W        W 8931  11.898  32.886  27.725  0.0299 -0.1736  0.3235
66020W        W 8932  11.860  33.346  26.552  0.1144 -0.0353 -0.0489
66021W        W 8933  11.295  30.417  23.955 -0.0278  0.1653  0.2370
66022W        W 8934  12.925  30.138  24.685 -0.1391 -0.3132 -0.2285
66023W        W 8935  11.822  31.072  26.891 -0.0079 -0.4168  0.2022
66024W        W 8936  14.286  29.357  27.086 -0.1897 -0.2722 -0.2171
66025W        W 8937  12.780  30.595  24.884  0.1754 -0.2335  0.0674
66026W        W 8938  13.812  29.734  24.360 -0.0431 -0.3755  0.0770
66027W        W 8939  12.479  31.961  26.750  0.2520 -0.2158 -0.0598
66028W        W 8940  11.395  31.138  25.961 -0.0374 -0.1612 -0.1139
66029W        W 8941  12.376  31.920  22.349  0.1863 -0.0849  0.1177
66030W        W 8942  14.447  31.974  26.889 -0.3001 -0.0485  0.2374
66031W        W 8943  13.652  31.553  22.668  0.2940  0.2506 -0.2039
66032W        W 8944  13.039  32.724  28.385  0.1491 -0.1068  0.1356
66033W        W 8945  10.466  30.958  25.676 -0.0193  0.1291 -0.0607
66034W        W 8946  12.218  28.913  24.942  0.0631 -0.1347 -0.0733
66035W        W 8947  12.279  31.257  25.179 -0.3735  0.1474  0.4818
66036W        W 8948  13.640  31.668  26.310  0.1802 -0.0697  0.0717
66037W        W 8949  13.582  32.223  25.615 -0.3157 -0.1480 -0.1086
66038W        W 8950  12.081  29.148  25.420 -0.0499 -0.0133  0.0330
66039W        W 8951  12.710  33.311  22.823  0.1236  0.3737 -0.1201
66040W        W 8952  12.995  30.389  25.336 -0.3086 -0.0013 -0.0737
66041W        W 8953  11.573  33.765  22.030 -0.0261  0.0648  0.1743
66042W        W 8954  12.741  30.636  23.964  0.1491 -0.0862 -0.0289
66043W        W 8955  13.685  33.826  25.286 -0.0619  0.0176  0.1132
66044W        W 8956  11.971  30.407  26.399  0.1595 -0.3691 -0.3816
66045W        W 8957  13.299  32.867  25.943 -0.0702 -0.0723 -0.1316
66046W        W 8958  13.547  31.809  25.222  0.0318 -0.3642 -0.3438
66047W        W 8959  13.096  29.403  24.072  0.1511 -0.2762 -0.0368
66048W        W 8960  10.983  29.053  25.639 -0.0517  0.2535 -0.2821
66049W        W 8961   9.857  32.448  23.695  0.1020  0.0773  0.4584
66050W        W 8962  13.412  29.947  26.830  0.1245  0.3012 -0.2471
66051W        W 8963  13.989  30.463  25.742  0.1026  0.0876 -0.1440
66052W        W 8964  10.779  32.269  21.970 -0.0754  0.0344  0.0336
66053W        W 8965  13.172  28.791  27.501  0.0234 -0.0378  0.0847
66054W        W 8966  11.150  31.487  27.299  0.0762 -0.0612 -0.0795
66055W        W 8967  12.780  31.527  28.823 -0.1285  0.3275  0.1370
66056W        W 8968  10.407  30.524  22.369  0.2846 -0.3258 -0.0594
66057W        W 8969  13.025  30.518  27.459  0.1265  0.1483  0.2051
66058W        W 8970  12.140  31.698  25.130  0.0719 -0.2640  0.0696
66059W        W 8971  11.353  32.309  24.365  0.2551 -0.0335  0.1606
66060W        W 8972  13.454  32.522  25.225  0.4163  0.2714  0.1380
66061W        W 8973  12.645  30.574  24.436  0.0395 -0.0412 -0.2850
66062W        W 8974  11.829  30.790  24.970  0.1592 -0.1209  0.2928
66063W        W 8975  13.672  30.093  24.043  0.0150  0.1669 -0.1053
66064W        W 8976  14.421  29.267  25.507  0.3500 -0.1252  0.1019
66065W        W 8977  14.878  29.233  24.837 -0.0360  0.1204  0.2172
66066W        W 8978  12.686  30.849  27.166 -0.1225  0.1122 -0.1574
66067W        W 8979  11.025  30.775  22.837  0.1049 -0.2504 -0.1439
66068W        W 8980  11.204  32.533  22.891 -0.3103  0.5290 -0.0079
66069W        W 8981  12.292  30.584  26.089  0.0967  0.0822 -0.2400
66070W        W 8982  12.532  29.642  26.801  0.0493  0.0537  0.1175
66071W        W 8983  10.637  29.914  27.991 -0.1715  0.2542  0.0822
66072W        W 8984  11.001  32.026  26.412  0.1005  0.0605  0.3717
66073W        W 8985  10.362  30.580  25.317  0.2235 -0.0115  0.2118
66074W        W 8986  11.628  33.474  24.463 -0.0328 -0.0953 -0.0964
66075W        W 8987  12.432  28.419  25.057 -0.2168  0.0492  0.2747
66076W        W 8988  11.313  30.877  25.182 -0.1445 -0.1049  0.0066
66077W        W 8989  12.448  33.331  23.326 -0.0239 -0.1528 -0.1029
66078W        W 8990  12.762  32.111  24.784 -0.0247  0.1294 -0.0334
66079W        W 8991  11.748  29.378  24.527 -0.1773 -0.1244  0.2652
66080W        W 8992  14.369  32.167  28.382 -0.2532 -0.2719  0.0078
66081W        W 8993   9.859  32.220  22.314  0.0633 -0.2322  0.1655
66082W        W 8994  13.155  31.198  25.644  0.0764 -0.1886 -0.0201
66083W        W 8995  11.894  31.157  27.901  0.0307  0.0649 -0.0667
66084W        W 8996  10.500  30.324  23.658  0.3085  0.0201 -0.3427
66085W        W 8997  13.052  30.418  25.795 -0.1635  0.0156 -0.1558
66086W        W 8998  11.284  32.482  24.846 -0.0644 -0.3264  0.3096
66087W        W 8999  11.628  32.627  23.888 -0.0027  0.1585  0.0230
66088W        W 9000  11.930  32.864  26.814  0.3573  0.0649 -0.0463
66089W        W 9001  13.325  31.276  27.830  0.2289  0.0071  0.1251
66090W        W 9002  11.480  28.504  26.208 -0.1580  0.0292 -0.0354
66091W        W 9003  12.366  32.339  23.563  0.0754 -0.1916 -0.0578
66092W        W 9004  11.205  32.765  26.995  0.0628 -0.1110 -0.1972
66093W        W 9005  13.867  31.569  24.878  0.2156  0.0879  0.0865
66094W        W 9006  13.841  29.989  26.537  0.1556  0.3147 -0.2850
66095W        W 9007  11.808  31.337  25.173  0.1632 -0.1659  0.0588
66096W        W 9008  11.308  29.877  26.652 -0.4551 -0.0560 -0.2161
66097W        W 9009  12.813  30.995  26.568 -0.2343  0.1924  0.0390
66098W        W 9010  14.263  30.803  25.960  0.1636  0.2227  0.0799
66099W        W 9011  12.664  28.967  25.248  0.4385 -0.1545 -0.0265
66100W        W 9012  13.504  30.357  25.500 -0.0433  0.1253  0.2526
66101W        W 9013  11.825  32.339  23.075  0.0013  0.2114 -0.0914
66102W        W 9014  11.591  30.690  26.669  0.0820  0.1971  0.0271
66103W        W 9015  14.083  31.055  24.498  0.1074 -0.1034 -0.1185
66104W        W 9016  13.666  31.265  28.309 -0.5131 -0.0033  0.0610
66105W        W 9017  12.592  31.647  25.949  0.2001 -0.3745  0.4287
66106W        W 9018  11.886  31.415  26.109  0.2772 -0.0101 -0.1502
66107W        W 9019  11.414  31.182  22.848 -0.1837 -0.2562 -0.0624
66108W        W 9020  13.929  31.514  24.387  0.1492 -0.4473 -0.2093
66109W        W 9021  12.874  31.293  26.072  0.1241 -0.0367 -0.0822
66110W        W 9022  14.006  34.165  27.553  0.1319  0.4023 -0.2765
66111W        W 9023  12.605  32.279  25.349  0.0680  0.1414  0.1777
66112W        W 9024  13.898  30.519  25.230  0.3436 -0.1304 -0.1424
66113W        W 9025  11.067  29.948  25.086  0.0036  0.0961  0.0449
66114W        W 9026  11.618  31.647  24.498 -0.3127  0.2945 -0.1720
66115W        W 9027  10.731  31.960  25.497 -0.0029 -0.1299  0.2188
66116W        W 9028  11.527  30.353  24.858  0.1976 -0.1184 -0.0332
66117W        W 9029  10.662  30.094  24.164  0.0665 -0.0634 -0.1611
66118W        W 9030  13.304  29.888  24.343  0.1222  0.0555  0.1143
66119W        W 9031  11.986  32.894  26.236  0.2614 -0.0751 -0.2069
66120W        W 9032  13.671  32.412  24.745 -0.2710  0.3070  0.2380
66121W        W 9033  12.007  30.448  29.344  0.0377 -0.0602 -0.2935
66122W        W 9034  12.206  29.379  29.988 -0.0189 -0.1034  0.2052
66123W        W 9035  14.215  29.348  28.432  0.0107  0.0851  0.0355
66124W        W 9036  14.043  30.367  29.380  0.4756  0.1073  0.3401
66125W        W 9037  10.908  28.978  29.026  0.2196 -0.1379 -0.1098
66126W        W 9038  12.317  32.428  28.936  0.0747 -0.1151 -0.1264
66127W        W 9039  11.956  28.150  30.616 -0.2349  0.2513 -0.0185
66128W        W 9040  13.333  31.756  29.564 -0.0612 -0.1017 -0.2582
66129W        W 9041  13.922  32.049  29.623 -0.1159 -0.2690  0.1368
66130W        W 9042  13.637  30.741  27.898 -0.0478 -0.2689  0.0129
66131W        W 9043  13.103  30.470  31.846  0.2558  0.0409 -0.1221
66132W        W 9044  12.071  31.487  30.524 -0.1451  0.1986  0.0237
66133W        W 9045  11.490  30.084  29.018  0.0740 -0.0246  0.1838
66134W        W 9046  11.529  28.548  30.697  0.0922 -0.1300  0.0423
66135W        W 9047  13.370  29.798  29.950  0.1450  0.0084 -0.3210
66136W        W 9048  10.935  29.539  28.260 -0.2501 -0.1000 -0.1770
66137W        W 9049  13.681  28.133  30.148 -0.1209  0.1722  0.0420
66138W        W 9050  11.917  29.519  29.555 -0.1248 -0.3459 -0.1899
66139W        W 9051  12.745  33.217  26.642 -0.1645 -0.0315 -0.0157
66140W        W 9052  13.420  30.085  30.458 -0.4075 -0.1220  0.2504
66141W        W 9053  13.870  29.713  31.008 -0.0023  0.1012  0.0454
66142W        W 9054  11.688  31.814  29.373  0.0798  0.1312  0.2899
66143W        W 9055  11.261  31.094  26.958  0.2200  0.0350 -0.0769
66144W        W 9056  10.857  30.721  30.850 -0.3030  0.0309 -0.1593
66145W        W 9057  12.834  28.920  29.405  0.0664 -0.1608  0.2273
66146W        W 9058  14.101  30.710  28.899  0.0809  0.0162 -0.0765
66147W        W 9059  14.030  31.320  30.091 -0.1061 -0.0772  0.2929
66148W        W 9060  11.419  31.923  29.890  0.2571 -0.1368 -0.0320
66149W        W 9061  12.985  31.771  30.864 -0.2570 -0.1465  0.2699
66150W        W 9062  13.131  30.047   0.330 -0.0289  0.0754  0.0369
66151W        W 9063  11.419  30.717  29.104 -0.2538 -0.0871 -0.3561
66152W        W 9064  10.522  32.579  29.122 -0.0697  0.1026  0.0910
66153W        W 9065  12.402  32.778  28.547  0.0092 -0.2223 -0.0079
66154W        W 9066  13.650  31.179  30.401  0.0492  0.1079  0.0310
66155W        W 9067  13.911  32.958  30.392  0.2841  0.1494  0.0421
66156W        W 9068  12.036  30.542  31.056  0.1532 -0.1622 -0.1257
66157W        W 9069  12.396  32.419  28.246 -0.2480  0.1010 -0.0121
66158W        W 9070  12.759  33.539  31.113  0.0640  0.2115  0.1197
66159W        W 9071  12.098  31.754  31.152 -0.2047  0.2794  0.3187
66160W        W 9072  11.636  29.606  28.981  0.2267 -0.0779 -0.3801
66161W        W 9073  12.190  29.248  28.637  0.0291  0.1077  0.3767
66162W        W 9074  12.400  32.126  27.260  0.3279  0.0294 -0.0085
66163W        W 9075  13.369  30.659  29.746  0.1712 -0.2751 -0.2341
66164W        W 9076  11.552  31.285  31.571  0.0843 -0.3115  0.0463
66165W        W 9077  12.354  31.908  28.037 -0.3439  0.0469  0.1864
66166W        W 9078  15.661  31.439   0.454 -0.3853 -0.3109 -0.2390
66167W        W 9079  11.988  32.763  30.211  0.2140  0.2784 -0.1870
66168W        W 9080  12.693  30.634  29.110 -0.1231  0.3827  0.0765
66169W        W 9081  13.767  31.129  28.775  0.1150  0.1031  0.0120
66170W        W 9082  13.649  30.116  29.575  0.1272 -0.1454  0.0043
66171W        W 9083  12.522  30.079  28.126  0.2910  0.2712  0.0590
66172W        W 9084  11.492  34.242  30.741 -0.0640 -0.0097 -0.1519
66173W        W 9085  12.561  29.885  30.477 -0.1647  0.0054  0.0588
66174W        W 9086  14.589  31.200  30.729 -0.3701 -0.1696 -0.0995
66175W        W 9087  12.707  30.329  28.719 -0.3852  0.3050 -0.1025
66176W        W 9088  15.139  29.611  31.309 -0.3582 -0.4856  0.1424
66177W        W 9089  10.989  31.512  30.322  0.2376  0.0065 -0.1924
66178W        W 9090  12.440  30.718  28.669 -0.2857 -0.0558  0.1122
66179W        W 9091  14.200  32.612  28.104  0.1632  0.5378 -0.1405
66180W        W 9092  13.217  31.154  28.861  0.2694  0.2726 -0.0838
66181W        W 9093  12.407  32.604  26.337 -0.2181 -0.1765 -0.2435
66182W        W 9094  10.545  30.210  30.000 -0.1962  0.0381  0.0970
66183W        W 9095  10.560  30.572  31.335 -0.0487  0.0571 -0.2543
66184W        W 9096  10.489  29.412  29.086  0.2418  0.3425  0.0700
66185W        W 9097  11.829  28.261  28.142  0.0134  0.0203  0.0396
66186W        W 9098  13.985  30.611  31.014  0.1079  0.0910 -0.1033
66187W        W 9099   9.472  32.164  31.900 -0.5094 -0.0928  0.0965
66188W        W 9100  14.501  31.603  28.001 -0.0397 -0.2177  0.1125
66189W        W 9101  12.082  29.722  28.246 -0.2013 -0.0365  0.1552
66190W        W 9102  13.244  33.068  28.758 -0.1009 -0.0733  0.1063
66191W        W 9103  12.792  31.717  28.067 -0.1754  0.0194  0.1248
66192W        W 9104  14.034  28.347  29.834 -0.1410  0.1250  0.1980
66193W        W 9105  12.528  28.914  28.794  0.0591 -0.0894  0.0023
66194W        W 9106  12.075  30.133  27.015  0.0618 -0.1313  0.1579
66195W        W 9107  13.232  30.963  28.353 -0.1072 -0.0146 -0.0905
66196W        W 9108  14.790  31.676  30.645 -0.4571  0.0451 -0.0192
66197W        W 9109  13.587  30.653  28.665 -0.0075  0.0716  0.1573
66198W        W 9110  12.296  32.734  29.803  0.0053 -0.1782 -0.1806
66199W        W 9111  13.570  30.583  31.295 -0.1715 -0.0048 -0.1034
66200W        W 9112  13.328  32.244   0.015  0.0645 -0.0198 -0.1180
66201W        W 9113  11.318  32.441  28.181 -0.1329  0.0741 -0.1835
66202W        W 9114  10.443  31.485  30.084  0.0962  0.0388 -0.1700
66203W        W 9115  11.598  31.798  28.437 -0.1376  0.0791  0.0161
66204W        W 9116  11.781  30.478  30.636 -0.0779  0.1792 -0.1068
66205W        W 9117  13.047  32.158  31.303  0.1728 -0.1125  0.0688
66206W        W 9118  14.342  29.102  29.273 -0.2485 -0.1147 -0.1094
66207W        W 9119   9.727  30.358  30.301  0.0402  0.0252 -0.0041
66208W        W 9120  11.867  29.006  29.718  0.0309  0.1837 -0.0430
66209W        W 9121  10.920  30.950  29.107 -0.0383 -0.1857  0.1841
66210W        W 9122  15.847  32.608  28.525  0.0797 -0.2427 -0.1979
66211W        W 9123  14.360  30.991  29.833  0.2119 -0.1031 -0.0247
66212W        W 9124  13.297  31.465  27.368 -0.2143  0.0768 -0.1077
66213W        W 9125  11.087  30.841  30.094  0.1046  0.3099 -0.0888
66214W        W 9126  12.272  28.857  29.972 -0.1980  0.2563  0.0949
66215W        W 9127  10.933  29.998  31.251 -0.0184  0.2204  0.1478
66216W        W 9128  10.274  30.341  29.468 -0.0980 -0.1213  0.0686
66217W        W 9129  13.883  31.503  31.142 -0.1986  0.2232 -0.0941
66218W        W 9130  11.978  28.744  28.192  0.0095 -0.2250 -0.1876
66219W        W 9131  14.477  29.183  30.248  0.1938  0.1844 -0.1273
66220W        W 9132  12.434  29.708  28.582  0.1863 -0.0088 -0.0006
66221W        W 9133  10.975  31.546  29.086 -0.1085  0.1208  0.2179
66222W        W 9134  15.265  31.077  31.131  0.1299 -0.1139 -0.1796
66223W        W 9135  13.118  31.612  29.164 -0.0109  0.2681  0.2292
66224W        W 9136  14.320  32.416  29.826 -0.0664 -0.1513 -0.0117
66225W        W 9137  13.858  33.244  29.414 -0.1281 -0.0943 -0.2058
66226W        W 9138  12.589  29.593  30.889  0.3453  0.2211 -0.3862
66227W        W 9139  12.385  28.597  27.867  0.0644 -0.1940  0.0492
66228W        W 9140  12.336  31.598  29.869  0.1785 -0.2595 -0.1367
66229W        W 9141  12.833  31.514  30.404 -0.0305 -0.3339 -0.0497
66230W        W 9142  12.174  30.309  28.528 -0.1423  0.1538  0.2588
66231W        W 9143  12.189  31.890  29.460 -0.2173  0.0471  0.1357
66232W        W 9144  11.891  32.013  28.912  0.1237 -0.1417  0.2493
66233W        W 9145  11.144  31.509   0.213  0.2353  0.1526 -0.1103
66234W        W 9146  12.561  30.763  31.028 -0.1959  0.1862  0.1766
66235W        W 9147  15.029  29.847  30.182 -0.0910  0.0013  0.4755
66236W        W 9148  13.638  30.351  30.027  0.0210  0.2095  0.1112
66237W        W 9149  12.140  29.461  27.795 -0.0365  0.1923  0.3384
66238W        W 9150  12.767  32.617  28.836  0.0166  0.0398 -0.0076
66239W        W 9151  11.407  32.642  28.961 -0.1991 -0.1008  0.2100
66240W        W 9152   9.807  30.676  29.762  0.0538 -0.0230 -0.0549
66241W        W 9153  13.620  31.598  30.057 -0.2053  0.2319  0.0806
66242W        W 9154  13.714  28.114  28.753 -0.0550 -0.2966 -0.1079
66243W        W 9155  11.250  31.688  31.707 -0.2037  0.2981  0.3666
66244W        W 9156  14.263  29.436  30.609  0.0243  0.0446 -0.1803
66245W        W 9157  12.667  30.572  28.260 -0.2485 -0.2924 -0.1122
66246W        W 9158  12.895  32.053  30.358  0.0367 -0.1196  0.0847
66247W        W 9159  13.382  27.845  28.511 -0.0212 -0.3524 -0.0002
66248W        W 9160  13.391  29.073  28.680  0.1105  0.1697  0.0810
66249W        W 9161  13.810  30.394   0.296  0.1755 -0.0320  0.1578
66250W        W 9162  14.000  31.164  30.753  0.0138 -0.2282 -0.1644
66251W        W 9163  13.236  29.810  27.740  0.1542 -0.0965  0.2576
66252W        W 9164  13.111  28.224  27.480 -0.2009 -0.1178  0.1274
66253W        W 9165  11.896  30.321  30.117 -0.0790  0.3032  0.3488
66254W        W 9166  11.738  30.730  28.412 -0.1867  0.2180 -0.1622
66255W        W 9167  12.674  30.252  29.442 -0.0951  0.3132 -0.1040
66256W        W 9168  13.496  29.372  27.787  0.0054 -0.0555 -0.1482
66257W        W 9169  13.823  33.777  29.127 -0.0132  0.1484  0.0498
66258W        W 9170  11.006  30.012  30.366 -0.1662  0.0141 -0.0328
66259W        W 9171  12.868  30.703  30.599  0.0030 -0.0095  0.2185
66260W        W 9172  12.332  31.878  28.981  0.1093  0.1868  0.0765
66261W        W 9173  12.761  29.894  31.247 -0.1106  0.2016  0.3736
66262W        W 9174  12.177  30.497  28.027 -0.3508  0.4802  0.3524
66263W        W 9175  13.670  28.457  28.360 -0.0184 -0.1273  0.1844
66264W        W 9176  10.500  31.926  26.491  0.0033  0.1248  0.0534
66265W        W 9177  13.606  28.605  29.695 -0.1332 -0.3106  0.1093
66266W        W 9178  11.161  28.866  30.327  0.1738 -0.1781  0.1397
66267W        W 9179  12.945  28.372  31.589 -0.2932 -0.0028  0.0264
66268W        W 9180  14.786  30.073   0.247 -0.1851 -0.0725  0.1296
66269W        W 9181  14.022  30.713  28.342 -0.0884  0.1643 -0.1008
66270W        W 9182  13.802  30.447  30.508  0.0742  0.0590 -0.1001
66271W        W 9183  12.096  30.647  26.956 -0.0235  0.0534  0.0083
66272W        W 9184  14.362  30.444  30.373  0.0019  0.1393  0.3061
66273W        W 9185  10.816  30.240  30.800 -0.3620 -0.1220 -0.2251
66274W        W 9186  11.777  31.964  30.331 -0.2023 -0.1884 -0.0826
66275W        W 9187  11.861  31.749  31.732 -0.3911  0.4522  0.0490
66276W        W 9188  12.249  30.869  29.225 -0.0847 -0.2292 -0.0268
66277W        W 9189  13.205  29.760  31.547 -0.0292  0.2845  0.3852
66278W        W 9190  13.190  30.188  28.711 -0.4689 -0.2194 -0.0865
66279W        W 9191  12.061  32.639  27.293  0.2149 -0.1175  0.1891
66280W        W 9192  12.487  31.223  27.374 -0.1319  0.1540  0.1305
66281W        W 9193  11.504  28.691  29.473 -0.1333 -0.2401 -0.0392
66282W        W 9194  13.090  31.079  30.372  0.6183 -0.2810 -0.0297
66283W        W 9195  12.266  33.246  27.846  0.0565 -0.1707  0.2811
66284W        W 9196  13.397  31.422  30.789  0.2079  0.2725  0.1337
66285W        W 9197  11.429  31.685  28.997  0.0937  0.2091  0.3524
66286W        W 9198  15.053  29.108  30.574  0.2211  0.1398  0.1148
66287W        W 9199  11.081  32.008  28.676 -0.2049 -0.1120  0.1810
66288W        W 9200  12.275  30.522  27.469 -0.0065 -0.0765 -0.0369
66289W        W 9201  10.699  29.282  28.652  0.0744 -0.2601 -0.0119
66290W        W 9202  14.092  29.355  28.953  0.0102 -0.5257  0.0119
66291W        W 9203  13.661  30.795  29.159 -0.1891 -0.1833  0.1004
66292W        W 9204  11.424  29.108  30.638 -0.0415  0.2143 -0.3312
66293W        W 9205  12.996  29.686  30.329  0.0642  0.0073 -0.0515
66294W        W 9206  10.614  33.525  31.066 -0.2085 -0.2438 -0.2806
66295W        W 9207  14.315  31.565  30.436  0.2357  0.0334  0.1154
66296W        W 9208  15.210  29.300  28.899  0.0874 -0.0874 -0.1930
66297W        W 9209  13.878  30.827  30.104 -0.3644  0.0445  0.2742
66298W        W 9210  12.710  31.163  31.276  0.0673 -0.1062  0.0555
66299W        W 9211   9.761  28.528  28.539 -0.0476 -0.0814 -0.0349
66300W        W 9212  14.249  29.905  31.207 -0.1076  0.1342 -0.1620
66301W        W 9213  13.301  29.443  29.498  0.1484 -0.0604 -0.6122
66302W        W 9214  11.164  31.073  30.585  0.3641 -0.0685 -0.0255
66303W        W 9215  11.551  32.912  30.057 -0.3211  0.3988 -0.1925
66304W        W 9216  11.426  30.088  28.542  0.2898 -0.0084 -0.0925
66305W        W 9217  13.294  31.786  30.464  0.0188  0.0975 -0.0581
66306W        W 9218  10.656  31.470  30.786 -0.4592 -0.2503 -0.2947
66307W        W 9219  14.684  30.159  29.952  0.3298  0.1594  0.0156
66308W        W 9220  11.810  29.449  31.514  0.1364 -0.2087 -0.3227
66309W        W 9221  12.926  30.202  30.433 -0.0140  0.2120 -0.2495
66310W        W 9222  12.826  29.437  29.548  0.3261  0.2252 -0.1056
66311W        W 9223  14.168  32.056  30.615  0.0377 -0.0398  0.3570
66312W        W 9224  14.822  30.230  29.441 -0.1132  0.0416  0.2195
66313W        W 9225  11.548  31.433  30.389  0.1681  0.0161 -0.1998
66314W        W 9226  13.555  27.679  29.944  0.0697  0.1737 -0.0820
66315W        W 9227  13.480  33.405  27.885  0.2748 -0.1476 -0.1199
66316W        W 9228  13.993  31.779  31.639  0.1916  0.0524 -0.0376
66317W        W 9229  11.076  29.701  28.748 -0.0425  0.1435 -0.3328
66318W        W 9230  11.735  30.947  29.367 -0.0847  0.0621 -0.1792
66319W        W 9231  11.918  29.265  28.216 -0.2150 -0.0392 -0.0664
66320W        W 9232  13.972  29.874  29.273 -0.0312 -0.0219  0.1041
66321W        W 9233  12.041  31.012  30.785  0.1807 -0.1421  0.1454
66322W        W 9234  11.534  32.295  28.622 -0.2098 -0.1029  0.1017
66323W        W 9235  12.704  31.171  29.289  0.0419 -0.1242 -0.0610
66324W        W 9236  13.927  28.662  27.915  0.2730 -0.1287  0.0242
66325W        W 9237  12.192  31.704  27.096  0.1851 -0.1408 -0.1057
66326W        W 9238  14.023  27.657  30.110  0.0180 -0.1255 -0.2356
66327W        W 9239  13.828  29.175  30.763 -0.4163 -0.0436  0.1170
66328W        W 9240  13.168  31.364  26.597 -0.1619 -0.0507 -0.0258
66329W        W 9241  14.979  29.650   0.535 -0.0532 -0.1734  0.0549
66330W        W 9242  11.625  29.543  30.615 -0.0721 -0.1517 -0.0057
66331W        W 9243  13.438  31.110  29.962  0.0374 -0.4844  0.0397
66332W        W 9244  12.807  28.401  30.533 -0.1062 -0.0217  0.0940
66333W        W 9245  12.168  32.184  31.482  0.1200 -0.1286 -0.1051
66334W        W 9246  10.759  30.442  30.388  0.0339  0.3311  0.2469
66335W        W 9247  13.348  29.876  29.249 -0.0103 -0.3357 -0.1782
66336W        W 9248  12.166  28.693  27.170  0.0824 -0.0295  0.1745
66337W        W 9249  13.684  30.188  30.928 -0.0105  0.2521 -0.0729
66338W        W 9250  13.417  32.326  30.415  0.2778  0.2656 -0.1181
66339W        W 9251  11.268  30.554  28.139 -0.3596 -0.1761  0.2941
66340W        W 9252  13.708  30.270  29.032 -0.2546  0.0079 -0.0867
66341W        W 9253  11.297  30.840  29.659  0.1953  0.1914 -0.1111
66342W        W 9254  12.412  29.808  29.376 -0.0691 -0.2106  0.1755
66343W        W 9255  12.257  31.050  28.307  0.0585  0.5631 -0.0543
66344W        W 9256  12.290  30.365  29.772 -0.2062 -0.3045 -0.2747
66345W        W 9257  11.857  28.405  29.790 -0.0566  0.1459 -0.1406
66346W        W 9258  14.643  29.541  31.082  0.0654  0.0379  0.1996
66347W        W 9259  12.636  28.509  29.161 -0.1541 -0.3437 -0.1433
66348W        W 9260  12.850  30.709  31.474  0.0709 -0.0120  0.1606
66349W        W 9261  13.004  29.932  29.571 -0.4061  0.1237  0.0564
66350W        W 9262  12.037  30.807  31.820  0.0129  0.0503 -0.1241
66351W        W 9263  11.926  30.025  29.675 -0.3685 -0.1466  0.0655
66352W        W 9264  13.686  31.110  31.337  0.0943  0.1139  0.0259
66353W        W 9265  14.032  30.261  28.633 -0.2348 -0.2444  0.1493
66354W        W 9266  14.764  29.506  30.550  0.2035 -0.4313  0.1480
66355W        W 9267  13.090  30.257  29.883  0.0978 -0.0261 -0.1683
66356W        W 9268  12.296  30.917  27.770 -0.1167  0.0504  0.0913
66357W        W 9269  10.507  30.378  28.720  0.2839 -0.1980  0.0699
66358W        W 9270  14.243  30.506  31.900  0.1043 -0.0560 -0.4328
66359W        W 9271  12.871  30.324  27.863  0.0686  0.0501 -0.0620
66360W        W 9272  13.736  29.816  31.491 -0.1165  0.1186  0.2014
66361W        W 9273  12.502  32.269  29.442 -0.2901 -0.1975 -0.0276
66362W        W 9274  12.630  30.725  29.693  0.2670  0.1237 -0.0375
66363W        W 9275  12.814  29.946  29.047  0.1555  0.0456 -0.3255
66364W        W 9276   9.327  29.959  30.817 -0.2481 -0.3882 -0.0621
66365W        W 9277  11.961  32.637  31.574 -0.0501 -0.2245  0.1276
66366W        W 9278  12.645  30.033  27.513 -0.2318  0.0141  0.2126
66367W        W 9279  13.242  30.358  29.303 -0.0559 -0.3799  0.1296
66368W        W 9280  11.444  32.629  31.528 -0.1336 -0.0710 -0.1410
66369W        W 9281  14.292  31.592   0.023  0.1701  0.1619 -0.1301
66370W        W 9282  12.003  28.830  29.089  0.1873 -0.0501  0.2728
66371W        W 9283  15.453  30.081  31.132  0.2282  0.1439  0.0206
66372W        W 9284  10.799  32.152  29.214 -0.0361 -0.0948  0.2447
66373W        W 9285  13.655  29.143  29.829 -0.0577  0.1944  0.2132
66374W        W 9286  12.071  31.670  28.539  0.0485  0.1477 -0.3298
66375W        W 9287  11.445  31.408  29.898 -0.1192  0.0171  0.0360
66376W        W 9288  12.485  31.455  28.397 -0.0449 -0.1983  0.1157
66377W        W 9289  13.334  28.972  30.760  0.1643 -0.2944  0.2554
66378W        W 9290  14.030  29.400  30.130  0.0213 -0.0852  0.2515
66379W        W 9291  12.874  29.879  28.432 -0.3444  0.1284 -0.0794
66380W        W 9292  15.324  30.778  31.747 -0.0587 -0.1301 -0.0272
66381W        W 9293  14.274  31.123   0.186 -0.3925 -0.1422 -0.0966
66382W        W 9294  13.184  28.749  29.866 -0.0651 -0.3119  0.0003
66383W        W 9295  13.887  31.391   0.202 -0.3020  0.0292  0.0245
66384W        W 9296  13.568  29.426  28.968 -0.0166  0.0506  0.2358
66385W        W 9297  11.954  30.773  29.803  0.4035 -0.0914 -0.0052
66386W        W 9298  11.196  30.213  31.603 -0.1787 -0.1621  0.2030
66387W        W 9299  13.281  30.705   0.213  0.2452 -0.0235 -0.2146
66388W        W 9300  11.341  30.609  28.649  0.0375  0.0310 -0.0369
66389W        W 9301  12.045  27.749  29.158  0.1547 -0.2684 -0.1641
66390W        W 9302  12.488  31.721  27.564  0.3605  0.1517 -0.0778
66391W        W 9303  11.190  31.604  30.827  0.1349 -0.0634  0.2401
66392W        W 9304  10.478  31.071  29.420 -0.1607  0.2357 -0.1205
66393W        W 9305  11.424  33.745  28.142 -0.2811 -0.0535  0.1800
66394W        W 9306  13.241  32.538  28.985 -0.0472 -0.2817  0.0442
66395W        W 9307  12.362  30.301  29.037 -0.2520  0.0135 -0.2928
66396W        W 9308  13.288  31.988  30.024 -0.1198  0.0228  0.0735
66397W        W 9309  12.375  29.116  28.150  0.1786 -0.3840 -0.1046
66398W        W 9310  12.438  33.289  29.311  0.1536 -0.1316  0.3286
66399W        W 9311  10.872  30.383  28.395 -0.4664 -0.2639 -0.0646
66400W        W 9312  13.070  32.383  27.400  0.1583 -0.1436 -0.0609
66401W        W 9313  12.313  31.482  29.250 -0.3122 -0.1917 -0.0188
66402W        W 9314  13.304  30.920  31.707 -0.0634  0.1700  0.2040
66403W        W 9315  14.193  28.449  27.354 -0.1351  0.0417 -0.0474
66404W        W 9316  14.342  30.038  29.575 -0.2734  0.1449  0.0571
66405W        W 9317  13.912  29.237  28.023  0.5834 -0.0940  0.1567
66406W        W 9318  13.879  32.898  31.504  0.0977  0.2956 -0.0923
66407W        W 9319  12.998  29.918  30.796 -0.2109 -0.3560  0.0229
66408W        W 9320  12.200  29.673  27.235 -0.3770 -0.1356 -0.2799
66409W        W 9321  14.046  29.834  30.476  0.0491  0.2203  0.1253
66410W        W 9322  15.035  27.716  30.883  0.2607 -0.0385  0.2151
66411W        W 9323  10.826  32.887  31.432  0.2459  0.1834  0.2784
66412W        W 9324  13.696  33.304  28.956 -0.1302  0.0536 -0.0127
66413W        W 9325  10.750  30.035  29.544  0.0063  0.1962  0.2832
66414W        W 9326  12.512  29.367  30.453 -0.1611 -0.1377 -0.1437
66415W        W 9327  13.569  29.330  31.176 -0.0203 -0.2649  0.0917
66416W        W 9328  12.192  32.362  27.734 -0.0993 -0.1283  0.3010
66417W        W 9329  14.057  28.899  30.380  0.0704 -0.2366  0.2477
66418W        W 9330  11.923  32.011  29.805 -0.0763 -0.1720  0.2007
66419W        W 9331  11.984  32.342  30.542  0.1905  0.0127  0.1303
66420W        W 9332  11.216  32.175  31.536  0.0777  0.1031  0.1287
66421W        W 9333  10.749  28.164  28.620  0.0029  0.3134 -0.1679
66422W        W 9334  16.443  30.620  28.319  0.0544  0.5149 -0.1211
66423W        W 9335  12.216  29.854  30.027  0.1187  0.1783  0.0829
66424W        W 9336  14.049  29.396  31.432  0.1477  0.2087  0.0470
66425W        W 9337  11.751  29.531  30.034  0.0050 -0.0659  0.0320
66426W        W 9338  14.778  29.697  29.652  0.0851 -0.1613 -0.1400
66427W        W 9339  13.890  29.716  29.758  0.0139 -0.0660  0.1966
66428W        W 9340  12.902  29.215  30.735 -0.5122 -0.1594  0.1858
66429W        W 9341  13.151  30.413  28.260  0.0644 -0.0270 -0.1390
66430W        W 9342  14.737  30.294  30.921  0.1031  0.2396 -0.2448
66431W        W 9343  13.880  29.813  27.939 -0.0664  0.1097 -0.0544
66432W        W 9344  12.934  32.348  30.821  0.1889  0.3048  0.0439
66433W        W 9345  10.106  29.709  30.712 -0.1559  0.0036  0.0414
66434W        W 9346  14.330  30.981  27.889  0.3726 -0.2175  0.0435
66435W        W 9347  13.061  30.844  29.437  0.2651 -0.1648  0.0012
66436W        W 9348  13.933  30.261  31.382  0.1452 -0.1851 -0.0073
66437W        W 9349  13.181  33.344  31.187 -0.0158 -0.2055 -0.0795
66438W        W 9350  10.851  29.256  30.078  0.0381  0.0076 -0.0578
66439W        W 9351  14.033  31.818  28.121 -0.4024 -0.3382  0.2679
66440W        W 9352  14.903  28.754  30.234  0.3074  0.0182 -0.0147
66441W        W 9353  13.071  33.529  28.597 -0.0886 -0.0187  0.1459
66442W        W 9354  13.846  31.671  29.170  0.1884 -0.0957  0.1744
66443W        W 9355  13.945  32.699  30.971  0.0151 -0.1425 -0.2956
66444W        W 9356   9.996  30.178  28.924 -0.1748 -0.0585  0.0229
66445W        W 9357  12.822  31.680  29.902 -0.2177 -0.1558 -0.0953
66446W        W 9358  14.418  31.499  29.789  0.1577 -0.1134 -0.0006
66447W        W 9359  12.374  29.238  29.506  0.2556  0.4164  0.3534
66448W        W 9360  13.019  29.287  29.063  0.0152 -0.4798 -0.0776
66449W        W 9361  10.424  32.715  27.410 -0.3825 -0.1247  0.2740
66450W        W 9362  14.184  28.700  30.906  0.1266 -0.1657  0.1242
66451W        W 9363  14.368  30.043  31.689 -0.0959  0.0311 -0.1920
66452W        W 9364  12.620  31.997  28.477 -0.2425  0.1294 -0.1570
66453W        W 9365  14.523  29.141   0.156  0.1020  0.2995 -0.0290
66454W        W 9366  13.189  31.259  31.224 -0.3692 -0.1418  0.1943
66455W        W 9367  10.571  32.400  31.326  0.2141  0.0088  0.0774
66456W        W 9368  11.235  29.203  28.702  0.1541  0.1177  0.2937
66457W        W 9369  14.310  31.151  31.231 -0.0211  0.0960 -0.2609
66458W        W 9370  12.765  31.063  28.541  0.0479  0.2150  0.0147
66459W        W 9371  12.515  33.317  30.038  0.0584  0.1377  0.0166
66460W        W 9372  13.139  31.946  28.683 -0.0926  0.1605 -0.0168
66461W        W 9373  12.910  29.245  28.573 -0.3216 -0.1711  0.2169
66462W        W 9374  14.470  31.990  29.599  0.2233 -0.1249  0.2202
66463W        W 9375  12.887  28.412  29.638  0.1387 -0.1153 -0.3372
66464W        W 9376  15.074  27.816  28.492 -0.0202  0.0748  0.0369
66465W        W 9377  13.000  28.817  28.854  0.0782  0.0654 -0.0733
66466W        W 9378  12.317  30.624  30.633 -0.3416 -0.1996 -0.3051
66467W        W 9379  10.056  29.760  27.936 -0.1348 -0.3193 -0.1109
66468W        W 9380  11.765  30.635  27.732  0.3297 -0.1240  0.2307
66469W        W 9381  10.853  29.838  29.933 -0.3194 -0.1909 -0.2645
66470W        W 9382  12.371  29.476  31.320 -0.0625  0.1756  0.0897
66471W        W 9383   9.709  31.291  30.522  0.1346 -0.2710  0.3546
66472W        W 9384  11.281  29.974  29.526 -0.0700  0.2791  0.2826
66473W        W 9385  12.356  31.418  27.907  0.1377  0.3363 -0.2170
66474W        W 9386  13.466  31.219  29.323 -0.0319 -0.3038  0.0020
66475W        W 9387  10.796  28.767  28.613  0.0258 -0.2555 -0.2572
66476W        W 9388  11.218  29.497  29.809 -0.1920 -0.2551 -0.1216
66477W        W 9389  12.892  31.445  27.621 -0.0042 -0.0691  0.2168
66478W        W 9390  14.237  31.215  28.341 -0.0436  0.1282  0.0098
66479W        W 9391  13.185  28.484  29.224  0.2073 -0.2206 -0.0119
66480W        W 9392  14.681  32.021  31.108  0.0315  0.3455  0.0885
66481W        W 9393  11.572  29.569  28.459 -0.1838 -0.1194  0.0280
66482W        W 9394  13.172  29.254  30.020 -0.3202  0.1578 -0.1304
66483W        W 9395  14.393  30.761   0.908  0.0821 -0.2965 -0.0165
66484W        W 9396   9.500  28.125  27.884  0.1586 -0.1192 -0.2770
66485W        W 9397  13.266  30.435  30.827  0.1360 -0.3437  0.0510
66486W        W 9398  13.962  31.172  29.281 -0.0169 -0.1037  0.0299
66487W        W 9399  12.964  32.842  29.250 -0.0893  0.0149  0.2009
66488W        W 9400  12.280  31.113  29.626 -0.4208 -0.0478 -0.0902
66489W        W 9401  11.479  31.927   0.151  0.0968  0.0682 -0.0207
66490W        W 9402  10.064  28.934  30.290 -0.0153  0.3372 -0.1407
66491W        W 9403  14.031  32.487  28.570 -0.2300 -0.0556 -0.2520
66492W        W 9404  13.560  30.820  30.846 -0.0973  0.0164  0.0882
66493W        W 9405  14.126  31.984  28.915  0.0424 -0.0595  0.0705
66494W        W 9406  14.445  30.921  31.756 -0.2002 -0.0124  0.0372
66495W        W 9407  12.342  30.815  30.090  0.0668 -0.0530 -0.1441
66496W        W 9408  12.616  28.651  31.785  0.0720 -0.0125  0.4019
66497W        W 9409  11.418  30.459  30.154  0.1433  0.3056 -0.2201
66498W        W 9410  14.741  30.716  29.580  0.0503 -0.0778  0.4223
66499W        W 9411  11.485  29.314  29.415  0.2652 -0.1786  0.1056
66500W        W 9412  13.126  29.458  28.193  0.0746  0.0966  0.1758
66501W        W 9413  13.085  31.332  29.625  0.0563  0.3144  0.0144
66502W        W 9414  10.496  29.786  30.247  0.0308  0.1294 -0.0101
66503W        W 9415  13.332  29.933  28.261  0.0938 -0.1877  0.1472
66504W        W 9416  13.395  29.785  31.025 -0.2100  0.1281 -0.0322
66505W        W 9417  12.976  32.122  29.497 -0.1300 -0.1046  0.2824
66506W        W 9418  14.301  31.603  30.964  0.1340  0.0991 -0.0954
66507W        W 9419  11.882  29.879  28.649  0.1224 -0.3130 -0.1010
66508W        W 9420  14.297  31.597  29.323 -0.1080  0.2303  0.0133
66509W        W 9421  13.448  32.490  31.543 -0.0054  0.0268  0.0534
66510W        W 9422  13.143  32.997  31.567 -0.0888 -0.0267 -0.0985
66511W        W 9423  12.758  31.144  29.958  0.3101  0.0197 -0.2924
66512W        W 9424  12.684  31.758  29.419 -0.1656  0.1221  0.1787
66513W        W 9425  11.004  30.332  29.867 -0.1704  0.1048 -0.1654
66514W        W 9426  12.378  31.214  28.830  0.2095  0.2671 -0.2240
66515W        W 9427  12.873  30.609  30.142 -0.0828 -0.0439 -0.2336
66516W        W 9428  14.641  29.954  30.527  0.1508 -0.3305  0.2897
66517W        W 9429  11.834  30.434  28.837  0.2136 -0.3306 -0.1910
66518W        W 9430  13.038  29.406  26.903  0.0120  0.2130 -0.2966
66519W        W 9431  12.490  31.117  30.455 -0.1130  0.0727  0.0153
66520W        W 9432  11.996  31.237  30.089 -0.1376 -0.0111  0.1415
66521W        W 9433  14.098  30.828   0.558 -0.1836  0.0950  0.0105
66522W        W 9434  12.988  31.344  31.671  0.0573  0.1257 -0.1896
66523W        W 9435  12.258  29.974  31.061 -0.1870 -0.0803  0.0766
66524W        W 9436  11.119  31.426  31.288 -0.0525 -0.0327  0.1667
66525W        W 9437  12.541  32.130  31.116 -0.2178 -0.1782  0.2253
66526W        W 9438  11.021  32.572  31.047 -0.2303 -0.2797 -0.1062
66527W        W 9439  14.268  30.093   0.231 -0.1563 -0.0538 -0.3011
66528W        W 9440  12.854  30.309   1.077 -0.0637  0.1158 -0.1733
66529W        W 9441  13.432  29.573   0.475 -0.0554 -0.0418  0.0121
66530W        W 9442  13.546  31.507  31.672 -0.3254 -0.2411 -0.3285
66531W        W 9443  15.254  33.783   0.656  0.2912  0.1157 -0.0817
66532W        W 9444  11.867  27.301  30.154 -0.2475 -0.1821  0.2673
66533W        W 9445  14.070  30.114  30.027  0.0539  0.1826  0.2114
66534W        W 9446  12.079  30.061  30.543  0.1495 -0.2847  0.2602
66535W        W 9447  14.941  30.553   0.611 -0.3693  0.0891 -0.1400
66536W        W 9448  11.500  31.817  31.268  0.1659 -0.0703  0.0689
66537W        W 9449  11.849  30.948  31.294  0.0378 -0.0456  0.1384
66538W        W 9450  13.071  31.871  31.726  0.0136 -0.4305 -0.0271
66539W        W 9451  12.754  29.515  31.643  0.1312 -0.3556 -0.0506
66540W        W 9452  12.059  28.495  31.224 -0.0429  0.1667  0.0907
66541W        W 9453  11.576  30.026  30.533  0.4554 -0.3266 -0.1177
66542W        W 9454  10.993  32.060  31.936  0.0010  0.2086 -0.2645
66543W        W 9455  13.613  29.473  31.861 -0.1657  0.3049  0.1462
66544W        W 9456  14.203  30.165  30.810 -0.2694  0.1609  0.2947
66545W        W 9457  13.767  29.327   0.781  0.0225  0.1199 -0.0296
66546W        W 9458  14.160  30.701   1.333 -0.0533 -0.1570 -0.1903
66547W        W 9459  12.507  30.334  31.361 -0.1916 -0.1441 -0.0029
66548W        W 9460  10.036  32.633  30.176  0.0733  0.3124 -0.4654
66549W        W 9461  13.654  29.046  31.629 -0.0318  0.2362 -0.0162
66550W        W 9462  12.618  30.275  30.816  0.1198  0.1493 -0.1815
66551W        W 9463  11.407  30.070   0.039 -0.2240 -0.1147 -0.1053
66552W        W 9464  13.281  30.172  31.278 -0.0256 -0.5102 -0.2985
66553W        W 9465  12.866  31.163  30.811 -0.1832 -0.4588 -0.2122
66554W        W 9466  14.523  29.811   0.549  0.0378 -0.0604 -0.1632
66555W        W 9467  12.102  29.603  30.453 -0.0754 -0.2822  0.0054
66556W        W 9468  10.328  29.234  31.378 -0.0206  0.3006 -0.2511
66557W        W 9469  12.221  31.470   0.123 -0.1640 -0.1432 -0.1392
66558W        W 9470  12.260  31.254  31.152  0.0227  0.0492 -0.1122
66559W        W 9471  11.628  32.861   0.555  0.1672  0.0392  0.0874
66560W        W 9472  12.323  30.871  31.442  0.2765 -0.0138  0.0002
66561W        W 9473  14.449  31.572  31.513 -0.2419 -0.0184 -0.0568
66562W        W 9474  12.879  28.307   0.099  0.0541  0.0296  0.0811
66563W        W 9475  13.104  30.793  31.070 -0.1102 -0.0911 -0.1282
66564W        W 9476  12.044  31.337   1.103 -0.1383 -0.1898 -0.1935
66565W        W 9477  11.729  29.028  30.224 -0.2298  0.1478  0.1807
66566W        W 9478  12.783  29.018   0.578 -0.1406  0.5456 -0.0097
66567W        W 9479  11.473  29.979  29.987 -0.2256  0.3073 -0.5443
66568W        W 9480  11.622  31.346  31.048 -0.0486 -0.0177 -0.1321
66569W        W 9481  13.540  32.020  31.584  0.0136 -0.0489  0.0957
66570W        W 9482  11.824  32.085   0.852  0.2525  0.2937 -0.3256
66571W        W 9483  12.356  32.502  31.882 -0.4608  0.0308  0.0900
66572W        W 9484  14.549  28.866   0.636 -0.0699  0.0530 -0.0396
66573W        W 9485  11.602  30.922  30.147 -0.1691  0.1827 -0.1687
66574W        W 9486  12.696  30.004   0.650 -0.0130  0.2114 -0.0691
66575W        W 9487  12.549  28.082  31.821 -0.0661  0.3130  0.4407
66576W        W 9488  14.038  31.860   0.632  0.0151 -0.2190 -0.0678
66577W        W 9489  14.950  29.863  31.755  0.1182 -0.1418  0.3323
66578W        W 9490  10.929  32.510  31.680 -0.0504 -0.0569  0.2652
66579W        W 9491  12.846  32.682   0.840 -0.0263 -0.0945 -0.1880
66580W        W 9492  12.082  31.271  31.624 -0.1588  0.1799 -0.1161
66581W        W 9493  11.297  30.526  30.704 -0.1641 -0.0872 -0.0707
66582W        W 9494  11.907  29.192   0.386 -0.4418 -0.0163  0.1264
66583W        W 9495   9.930  31.507  31.491 -0.2344 -0.1413 -0.1493
66584W        W 9496  12.128  29.111  30.525  0.0425  0.2316 -0.3180
66585W        W 9497  13.727  33.402   0.851  0.0856 -0.0510 -0.2170
66586W        W 9498  13.925  31.949   0.152 -0.1486  0.1148 -0.1294
66587W        W 9499  13.543  32.479   0.825 -0.0939 -0.1739  0.4459
66588W        W 9500  11.109  34.365  18.467 -0.4387 -0.2217  0.0786
66589W        W 9501  14.006  34.278  15.889  0.0910 -0.0027  0.1455
66590W        W 9502  13.892  33.782  17.627  0.0914 -0.0308 -0.0366
66591W        W 9503  11.950  34.412  16.228  0.1781 -0.3510  0.0133
66592W        W 9504  12.253  33.646  18.498 -0.2393 -0.1015 -0.1150
66593W        W 9505  12.618   1.186  15.917 -0.1102 -0.2220 -0.1968
66594W        W 9506  12.210  34.288  18.180  0.2753 -0.0163 -0.1873
66595W        W 9507  12.324  32.687  16.901 -0.0142  0.2358  0.0894
66596W        W 9508  11.223  33.769  15.834 -0.1505  0.2328 -0.1405
66597W        W 9509  15.467   1.260  18.772  0.0435  0.2479  0.1127
66598W        W 9510  11.375   1.787  16.979  0.1190 -0.0426 -0.4454
66599W        W 9511  10.923   1.085  17.351 -0.2034  0.2972 -0.0720
66600W        W 9512  11.685  33.635  16.656  0.2910  0.2542 -0.1176
66601W        W 9513  13.953  33.386  19.579  0.0634  0.1525  0.1950
66602W        W 9514  12.445   0.091  19.708 -0.0448  0.1528 -0.1187
66603W        W 9515  10.374   0.104  16.178  0.0080 -0.0390  0.0257
66604W        W 9516   9.928  34.336  18.602 -0.0439 -0.1408  0.0750
66605W        W 9517  10.954   0.164  18.413 -0.0052 -0.1932 -0.0123
66606W        W 9518  13.784  34.279  16.949  0.2992 -0.0209 -0.2256
66607W        W 9519  14.065   0.057  17.671  0.0671  0.0296 -0.1463
66608W        W 9520  12.094   0.266  19.415  0.1009 -0.0398  0.0253
66609W        W 9521  13.027  32.797  19.302 -0.2326  0.0715  0.0384
66610W        W 9522  11.687  34.080  16.748 -0.2984 -0.2481  0.0427
66611W        W 9523  14.326  33.489  19.876  0.0931  0.3097 -0.1084
66612W        W 9524  14.702  34.267  16.681 -0.0257  0.0725 -0.1781
66613W        W 9525  12.187  32.226  15.973 -0.1971 -0.1253  0.4539
66614W        W 9526  13.398  33.896  16.793 -0.3477  0.1572  0.0613
66615W        W 9527  12.442  32.188  16.952  0.2596  0.0265 -0.2826
66616W        W 9528  12.878   0.210  17.786  0.0694 -0.0043 -0.3743
66617W        W 9529  13.104   0.040  16.424  0.1902  0.4650 -0.0081
66618W        W 9530  13.581   0.680  18.013  0.0260 -0.1606  0.0200
66619W        W 9531  10.728   1.147  19.226 -0.1111  0.3126 -0.1180
66620W        W 9532  11.513   0.645  16.434  0.1120 -0.1710  0.0831
66621W        W 9533  11.971   2.287  18.107  0.1253  0.0367  0.2070
66622W        W 9534  10.637  34.119  19.932 -0.1388 -0.3079 -0.1174
66623W        W 9535  11.559  33.511  16.147  0.2218 -0.2900  0.1548
66624W        W 9536  14.307  32.680  16.988 -0.4038 -0.0342 -0.0703
66625W        W 9537  13.773  32.674  17.361  0.0416 -0.1547 -0.0065
66626W        W 9538  13.455  33.773  19.531  0.0149 -0.2041 -0.0066
66627W        W 9539  13.635   1.148  16.155 -0.0812 -0.0800 -0.0538
66628W        W 9540  11.375   0.374  19.173  0.3543 -0.1174  0.0436
66629W        W 9541   9.226  33.992  19.493 -0.1585  0.0793  0.0748
66630W        W 9542  15.723  32.677  16.993 -0.1574  0.3932  0.1981
66631W        W 9543  12.616  32.854  17.984 -0.0552 -0.1362 -0.4394
66632W        W 9544  14.898  34.100  18.939 -0.0157 -0.4037  0.0231
66633W        W 9545  15.101  33.640  17.523  0.1595  0.0353 -0.0035
66634W        W 9546   8.935  34.276  20.164 -0.2799  0.2706 -0.0462
66635W        W 9547  11.368  34.098  17.852  0.1015 -0.3338  0.1838
66636W        W 9548  11.888  34.674  19.021  0.3666  0.0986 -0.1262
66637W        W 9549  10.267  33.894  19.590  0.0213 -0.0545  0.2587
66638W        W 9550  14.176  33.515  18.201  0.2297 -0.1905 -0.1457
66639W        W 9551  10.907  33.463  16.748  0.1543  0.1210 -0.0417
66640W        W 9552  12.433  34.390  18.689 -0.3315  0.0668 -0.2939
66641W        W 9553  12.012  33.935  16.320 -0.0119  0.1824 -0.0798
66642W        W 9554  12.946  33.361  19.156 -0.1538 -0.2027  0.0243
66643W        W 9555  11.490  34.416  19.304 -0.3389 -0.0233  0.3609
66644W        W 9556  10.551  33.252  16.277  0.0270  0.0389 -0.0637
66645W        W 9557  12.215  33.525  17.902 -0.0779 -0.2011 -0.0369
66646W        W 9558  14.744  34.423  19.228 -0.0237  0.0552  0.1617
66647W        W 9559  12.779   0.253  16.117  0.0996  0.0809  0.2384
66648W        W 9560  12.205  32.801  16.412 -0.1488  0.1306  0.2747
66649W        W 9561  11.770   0.879  17.657  0.1386  0.1837  0.0857
66650W        W 9562  13.522   1.116  18.241  0.1526  0.1691 -0.2050
66651W        W 9563   9.759   0.586  18.505  0.2726 -0.1928  0.0300
66652W        W 9564  12.216  33.964  19.618 -0.3085 -0.0856  0.0578
66653W        W 9565  10.681   0.000  15.705  0.0094 -0.0408  0.1555
66654W        W 9566  13.801  31.984  18.340 -0.1311  0.2483 -0.0952
66655W        W 9567  13.849  34.287  16.467  0.0434 -0.0219 -0.3677
66656W        W 9568  13.496  34.412  16.143 -0.0085  0.2818 -0.2352
66657W        W 9569  14.259  33.149  17.199  0.0387 -0.1999  0.1462
66658W        W 9570  13.446   0.232  15.480  0.2735 -0.0316  0.2233
66659W        W 9571  12.529  31.938  19.724 -0.0950  0.1636 -0.2974
66660W        W 9572  11.462   1.284  15.759 -0.2013 -0.3813 -0.1232
66661W        W 9573  12.975  33.678  17.100 -0.1569  0.1527  0.0446
66662W        W 9574  14.405  33.180  17.737  0.0705  0.1316 -0.1198
66663W        W 9575  13.572  33.777  18.083  0.1357  0.2463  0.1742
66664W        W 9576  12.541  33.701  19.213 -0.0142  0.0295  0.0213
66665W        W 9577  13.777   0.792  19.586  0.1648 -0.4063  0.0730
66666W        W 9578  14.697  32.987  18.338 -0.3216  0.0233  0.1410
66667W        W 9579  14.311   0.467  17.506 -0.0932  0.0750 -0.0124
66668W        W 9580  11.044  33.298  15.819  0.3362 -0.1186  0.1424
66669W        W 9581  13.397  33.047  18.947  0.0771 -0.0511 -0.0265
66670W        W 9582  13.978  33.592  20.278  0.1970 -0.2419  0.1265
66671W        W 9583  13.223  32.637  15.859 -0.0648 -0.1422 -0.0068
66672W        W 9584  12.018  33.577  19.069  0.1045 -0.2451  0.0985
66673W        W 9585  14.600  33.597  17.983 -0.4174  0.0906  0.0728
66674W        W 9586  11.382  33.013  16.036  0.3306 -0.0797 -0.2263
66675W        W 9587  10.732  34.041  15.640  0.3230  0.1855 -0.0669
66676W        W 9588  13.070   0.403  17.252 -0.1621 -0.1018 -0.1368
66677W        W 9589  11.865  33.213  18.629  0.1665  0.2286  0.0760
66678W        W 9590  11.626  34.392  17.429 -0.2019 -0.1845  0.2622
66679W        W 9591  13.103  34.247  16.995 -0.0120  0.0518 -0.5020
66680W        W 9592  14.456  33.756  16.386  0.0719  0.1552  0.0815
66681W        W 9593  12.148   0.513  17.668  0.1449 -0.2571 -0.1030
66682W        W 9594  10.386  34.271  15.871 -0.2786  0.0042  0.1929
66683W        W 9595  12.982   1.107  19.158 -0.1491  0.1318 -0.3456
66684W        W 9596  13.045  34.023  17.505  0.0848  0.0410  0.3110
66685W        W 9597  11.518  34.613  16.921  0.0251  0.2328 -0.2361
66686W        W 9598  11.962  34.456  19.516  0.1239  0.3042 -0.2097
66687W        W 9599  12.230  33.964  17.587  0.0876 -0.1063  0.0223
66688W        W 9600  11.868   0.130  17.315  0.1834 -0.1837  0.0278
66689W        W 9601  12.326  34.460  17.402  0.2994  0.0610 -0.0723
66690W        W 9602  12.655  34.319  17.723  0.0862  0.0641  0.1956
66691W        W 9603  12.969  33.261  18.675 -0.3416  0.0469 -0.0042
66692W        W 9604  13.551   0.128  17.763  0.3264  0.2594  0.1143
66693W        W 9605  11.878  33.082  19.164 -0.2452  0.0622  0.1360
66694W        W 9606  13.677  33.453  16.698 -0.0788  0.0194  0.0302
66695W        W 9607  13.418  34.568  17.315 -0.0759 -0.1346 -0.1367
66696W        W 9608  14.968   0.234  19.065 -0.0348  0.1795  0.1078
66697W        W 9609  13.498  34.013  17.288  0.0417 -0.0684  0.0675
66698W        W 9610  12.558  32.086  20.236  0.6769 -0.1343  0.3069
66699W        W 9611  12.901  34.212  18.560 -0.0318 -0.0620  0.0764
66700W        W 9612  11.669  33.976  18.242  0.0801  0.1218 -0.2082
66701W        W 9613  11.267  33.903  19.292  0.4015  0.0402  0.2230
66702W        W 9614  12.473  32.645  17.546 -0.0541  0.0131 -0.1970
66703W        W 9615  11.906  33.100  16.842 -0.0267 -0.1570  0.0579
66704W        W 9616  11.667   0.362  17.671 -0.2882  0.0569 -0.2200
66705W        W 9617  14.073   0.050  18.756  0.1334 -0.1688 -0.0902
66706W        W 9618   9.530   0.362  18.914 -0.1151  0.1319 -0.1396
66707W        W 9619  13.432  33.560  17.196  0.0141 -0.0785 -0.0711
66708W        W 9620  11.012  32.562  20.348 -0.0475  0.3303 -0.0491
66709W        W 9621  13.754  34.230  17.981  0.1062 -0.2144  0.0372
66710W        W 9622  13.323  34.003  18.467 -0.1255  0.1944  0.3656
66711W        W 9623  14.026   0.142  19.304  0.0713  0.1552 -0.2629
66712W        W 9624  12.946  34.554  18.920 -0.0157 -0.0981  0.2525
66713W        W 9625  11.839  32.549  18.442 -0.1812 -0.1303  0.0440
66714W        W 9626  14.129   0.453  16.188  0.1090 -0.4459  0.0500
66715W        W 9627  13.661   0.147  18.244  0.1182 -0.2816 -0.1614
66716W        W 9628  13.297  32.781  17.251  0.2767 -0.1976  0.0475
66717W        W 9629  14.594  34.672  16.276  0.0560  0.2635  0.1025
66718W        W 9630  10.780  33.698  17.826  0.1774  0.2824  0.2761
66719W        W 9631  13.209   1.739  19.168  0.2725  0.1788  0.1700
66720W        W 9632  11.740  33.268  17.528  0.2838 -0.1315  0.1412
66721W        W 9633  13.573  32.332  18.086 -0.4230  0.2134 -0.2932
66722W        W 9634  12.641  33.009  17.133  0.0080  0.0178  0.1715
66723W        W 9635  10.603  34.016  18.207  0.0212  0.1508 -0.0563
66724W        W 9636  12.161   0.209  15.992 -0.2420  0.0383 -0.1399
66725W        W 9637  11.988   0.622  16.211  0.2568 -0.2069 -0.1391
66726W        W 9638  12.952  31.850  15.795  0.4298  0.0978  0.0874
66727W        W 9639  13.523   0.000  18.669 -0.2993  0.0175 -0.2538
66728W        W 9640  12.625  32.746  18.990 -0.0035 -0.4397  0.0421
66729W        W 9641  13.131  32.095  17.979 -0.0833  0.0579  0.1668
66730W        W 9642  14.817  33.819  17.066 -0.3267  0.0535 -0.0863
66731W        W 9643  11.977   0.010  17.855 -0.0065 -0.1450 -0.0006
66732W        W 9644  14.127   0.552  18.867  0.0257 -0.2336 -0.1130
66733W        W 9645  12.144  34.081  17.066 -0.0533  0.4496  0.2211
66734W        W 9646  10.534  32.606  20.481  0.1025  0.3321 -0.1413
66735W        W 9647  11.989  33.506  17.158 -0.0934 -0.0896 -0.2574
66736W        W 9648  12.023  34.499  16.817  0.0604  0.1492 -0.3960
66737W        W 9649  13.684  33.098  17.076  0.1066  0.3897  0.0550
66738W        W 9650  14.813   0.064  17.381  0.1757 -0.0341  0.1654
66739W        W 9651  14.958  33.862  16.496  0.1100  0.1886  0.1631
66740W        W 9652  11.578  34.475  18.131 -0.0759 -0.0913  0.0321
66741W        W 9653  12.984  34.385  16.006  0.1109 -0.0210  0.3574
66742W        W 9654  11.053  33.472  20.432 -0.1906 -0.2686  0.1016
66743W        W 9655  14.978  34.606  19.608 -0.3027  0.2633 -0.0055
66744W        W 9656  11.584  32.833  17.124  0.0275 -0.1413 -0.5448
66745W        W 9657  11.809   0.628  17.239 -0.3167  0.0963  0.1708
66746W        W 9658  13.132  33.559  18.251 -0.4490 -0.0917  0.1074
66747W        W 9659  13.424  34.469  16.705 -0.3060 -0.0055 -0.0649
66748W        W 9660  11.117  32.795  16.489  0.1138 -0.2895 -0.1199
66749W        W 9661  15.092  33.243  17.166  0.3921  0.1658 -0.0754
66750W        W 9662  11.210  34.286  17.186 -0.1449  0.3420  0.3114
66751W        W 9663  13.739  33.250  18.035  0.0787 -0.0662 -0.1611
66752W        W 9664  11.769  33.730  17.752  0.1574 -0.1104 -0.0583
66753W        W 9665  13.668  32.161  16.751 -0.1528 -0.1321 -0.0578
66754W        W 9666  10.064  34.347  19.386 -0.2021  0.0998  0.1925
66755W        W 9667  12.825  32.394  16.496 -0.0296  0.1813  0.1425
66756W        W 9668  13.836  34.235  19.004 -0.0558 -0.2154  0.2260
66757W        W 9669  12.273   1.126  15.544  0.1246  0.2277 -0.1980
66758W        W 9670  11.434  33.471  17.067 -0.0294  0.0633 -0.2343
66759W        W 9671  13.095  33.175  16.927 -0.0951 -0.0174  0.1240
66760W        W 9672  12.823  34.582  17.327  0.1102 -0.1724 -0.0368
66761W        W 9673  11.900  34.276  18.670 -0.1164  0.2446 -0.2207
66762W        W 9674  12.137  33.047  17.251 -0.3340  0.6757  0.0219
66763W        W 9675  13.874   0.068  17.090  0.0933 -0.1509 -0.1488
66764W        W 9676  15.149  34.515  16.463  0.3874  0.3533  0.2750
66765W        W 9677  12.479  33.227  18.936 -0.2307  0.1006 -0.2726
66766W        W 9678  12.149  31.781  16.464 -0.1295  0.1811 -0.1022
66767W        W 9679  11.976  33.478  19.553 -0.0005 -0.2013 -0.1233
66768W        W 9680  14.017   1.041  18.194  0.0719  0.0374  0.0321
66769W        W 9681  12.531  33.436  19.612  0.0561 -0.0997  0.0508
66770W        W 9682  13.697  32.950  20.699 -0.0142 -0.2591  0.0386
66771W        W 9683  12.663  33.730  17.662  0.1596 -0.0662  0.1133
66772W        W 9684  13.891  34.405  18.495 -0.1709 -0.2833 -0.1242
66773W        W 9685  14.615  33.061  16.852 -0.0722 -0.1446  0.0804
66774W        W 9686  13.815  32.657  16.870  0.0621  0.1082 -0.0232
66775W        W 9687  11.712   1.266  19.100 -0.1062 -0.3207 -0.1382
66776W        W 9688  11.872   0.220  16.591 -0.1271  0.2074 -0.2082
66777W        W 9689  12.871  32.342  18.974 -0.1797 -0.1127  0.2892
66778W        W 9690  11.456  33.103  19.443 -0.1322 -0.0439 -0.6815
66779W        W 9691  10.344  34.548  17.746  0.0806 -0.0759  0.4882
66780W        W 9692  11.900  34.223  17.811 -0.4134  0.1465  0.4159
66781W        W 9693  13.051  33.123  17.987 -0.2249 -0.1272  0.2243
66782W        W 9694  12.319   1.055  16.328  0.1041  0.0855 -0.3073
66783W        W 9695  12.961  34.272  16.500 -0.0639  0.1583 -0.1673
66784W        W 9696  11.337  34.122  20.012 -0.2799 -0.0208  0.0775
66785W        W 9697  11.810  34.058  19.131  0.1012 -0.2671  0.0034
66786W        W 9698  12.641   0.777  17.179  0.0160  0.1233 -0.3130
66787W        W 9699  13.039   0.006  16.914  0.2429 -0.1507  0.1715
66788W        W 9700  10.971  34.287  19.072  0.0411 -0.0121 -0.0363
66789W        W 9701  14.145  32.900  18.158  0.0490 -0.1545 -0.0167
66790W        W 9702  13.386   0.356  16.808 -0.2680  0.0138 -0.0286
66791W        W 9703  11.233  33.032  18.958 -0.1341  0.0059 -0.0240
66792W        W 9704  11.177   0.561  18.701  0.2695 -0.3101 -0.2660
66793W        W 9705  14.456  33.547  16.855 -0.1439 -0.0357  0.0585
66794W        W 9706  10.593  34.314  19.444 -0.0480 -0.1271 -0.0556
66795W        W 9707  13.573  33.078  16.155 -0.0206  0.2709  0.1093
66796W        W 9708  12.532  34.329  19.628  0.2598 -0.0885 -0.0844
66797W        W 9709  12.129  34.125  15.826  0.1233 -0.2609  0.0797
66798W        W 9710  13.414   1.139  15.351 -0.0763  0.1114  0.0442
66799W        W 9711  11.803  33.416  18.191 -0.1367  0.0735  0.0603
66800W        W 9712  11.120   2.307  18.376  0.1576  0.1305 -0.1270
66801W        W 9713  12.543  34.600  16.870 -0.1452  0.4157  0.0222
66802W        W 9714  13.453  32.930  18.289 -0.1488  0.1142  0.0166
66803W        W 9715  11.510   0.685  18.017 -0.0695 -0.0636 -0.0766
66804W        W 9716  12.798  33.842  16.667  0.0598  0.2407  0.1348
66805W        W 9717  11.812  34.123  19.922  0.0036  0.0655  0.0626
66806W        W 9718  15.097  32.792  21.004 -0.0561  0.1999  0.1805
66807W        W 9719  12.868  33.246  20.494  0.5486  0.2358  0.1545
66808W        W 9720  11.859  32.944  20.208 -0.1982 -0.1742  0.1207
66809W        W 9721  11.654  34.379  22.802 -0.1350 -0.1764 -0.0919
66810W        W 9722  14.235  34.316  19.301  0.0923 -0.3390 -0.2226
66811W        W 9723  11.553   0.043  21.118 -0.2549  0.2193  0.0225
66812W        W 9724  12.192  34.055  20.363 -0.0218 -0.4465 -0.2176
66813W        W 9725  10.862  31.798  22.195  0.0703 -0.1879  0.1860
66814W        W 9726  14.233  34.687  22.207  0.3409  0.0436 -0.0741
66815W        W 9727  10.190   1.128  20.950  0.0259 -0.1327  0.0669
66816W        W 9728   9.886  33.489  20.791  0.0345 -0.1815 -0.5516
66817W        W 9729  13.156  33.746  19.900  0.0085  0.1597 -0.5229
66818W        W 9730  12.203  33.216  23.738 -0.0624 -0.0839 -0.0599
66819W        W 9731  11.268  33.929  22.500 -0.0042 -0.0705  0.4164
66820W        W 9732   9.851   0.078  19.601  0.1174  0.3141 -0.2478
66821W        W 9733   9.998   0.183  21.127 -0.1354 -0.2403  0.0883
66822W        W 9734  11.351  34.534  21.530 -0.0028 -0.1715  0.2731
66823W        W 9735  11.918  32.987  22.317 -0.1481 -0.1131 -0.0938
66824W        W 9736  14.306   0.538  20.917 -0.3144 -0.2395  0.1143
66825W        W 9737  12.189  33.479  24.270  0.0266  0.1084  0.1841
66826W        W 9738  13.747  34.321  23.426  0.1321 -0.0153  0.0131
66827W        W 9739  12.889  34.439  21.416 -0.2317  0.0849 -0.2161
66828W        W 9740  14.543  33.569  22.910 -0.0744 -0.1320  0.3196
66829W        W 9741  14.247  33.875  18.846 -0.2490  0.0684 -0.2551
66830W        W 9742  10.846  34.199  16.856 -0.1959  0.1568 -0.2599
66831W        W 9743  14.463  33.897  20.078  0.3019 -0.0114 -0.3721
66832W        W 9744  12.447  34.241  21.763 -0.0237  0.2947  0.1358
66833W        W 9745  11.690  33.908  22.727  0.0358  0.2536 -0.1127
66834W        W 9746  12.515   0.352  20.799 -0.3101  0.0003  0.1643
66835W        W 9747  13.165  34.297  20.930 -0.2250  0.2338  0.1470
66836W        W 9748  10.556  34.045  21.120  0.0909  0.1152  0.1344
66837W        W 9749  10.808   0.451  19.749  0.3369  0.0853  0.3197
66838W        W 9750  12.011   1.316  22.651  0.1501  0.1786  0.0972
66839W        W 9751  10.650  33.466  22.839  0.0530 -0.3276  0.3763
66840W        W 9752  12.344  32.886  19.414  0.0578 -0.0437  0.0078
66841W        W 9753  14.036   0.215  21.126 -0.0711 -0.4156 -0.0875
66842W        W 9754  13.723  34.324  20.318 -0.0749 -0.2117 -0.0461
66843W        W 9755  12.771  33.854  22.833 -0.1732  0.0357  0.0141
66844W        W 9756  13.731  34.164  19.488  0.3932  0.1712  0.0965
66845W        W 9757  10.752   0.637  20.529 -0.0983  0.2288 -0.2855
66846W        W 9758  11.274  34.590  22.418 -0.0153  0.1170  0.3160
66847W        W 9759  13.517  33.803  20.264 -0.0116  0.2014  0.0151
66848W        W 9760  10.958  33.475  22.432  0.0599  0.0191 -0.1595
66849W        W 9761  13.961  34.486  20.801  0.0497 -0.1061 -0.1672
66850W        W 9762  14.542  33.603  21.142 -0.5044 -0.1069  0.2528
66851W        W 9763  10.945   0.013  21.903 -0.1180 -0.0995  0.2203
66852W        W 9764  13.050  33.096  21.432 -0.0791  0.0254 -0.3047
66853W        W 9765  10.920  34.563  23.214  0.1965 -0.1283  0.1766
66854W        W 9766  10.347  33.941  21.869 -0.0406 -0.0851 -0.1609
66855W        W 9767  13.121  33.022  23.543 -0.0581 -0.0736 -0.2664
66856W        W 9768  11.862  32.610  19.035 -0.0882  0.2248 -0.1554
66857W        W 9769  13.218  34.288  20.378 -0.0315  0.2731  0.3246
66858W        W 9770  12.341  34.506  19.158  0.0349  0.0540 -0.6405
66859W        W 9771  13.826   0.484  23.855 -0.1412  0.2592  0.2109
66860W        W 9772  10.936  33.609  23.297 -0.0957 -0.0351  0.1398
66861W        W 9773  13.010  31.963  20.450 -0.2301  0.0121  0.0493
66862W        W 9774  12.133   0.132  18.495 -0.2792 -0.0991 -0.1732
66863W        W 9775  12.426  33.668  22.589 -0.1642  0.3945 -0.1254
66864W        W 9776  13.089   0.441  22.558 -0.0268  0.1168  0.1152
66865W        W 9777  12.387  33.072  20.544 -0.2518  0.1321 -0.0347
66866W        W 9778  10.667   1.605  20.465 -0.2526 -0.1071  0.3136
66867W        W 9779  14.678  32.602  21.389 -0.0702 -0.3367 -0.1309
66868W        W 9780  10.938   0.952  24.728  0.2995 -0.1171  0.2439
66869W        W 9781  13.138   0.585  22.111 -0.0050  0.1256  0.2395
66870W        W 9782  10.096   0.113  20.602 -0.0164 -0.3536  0.0586
66871W        W 9783  14.293   0.155  20.651 -0.1275 -0.2762 -0.1805
66872W        W 9784  15.687   0.383  21.613  0.1124  0.2611 -0.0871
66873W        W 9785  13.383  33.390  20.456  0.1385  0.0682  0.0920
66874W        W 9786  13.064  32.812  20.708  0.0412  0.2783 -0.0759
66875W        W 9787  13.722   0.140  20.145  0.1910  0.0557 -0.1406
66876W        W 9788  12.166  33.702  23.038 -0.3388 -0.1691  0.3369
66877W        W 9789  11.039  33.715  20.016 -0.0548  0.0455  0.1557
66878W        W 9790  13.635  33.254  21.102 -0.0044  0.0743  0.3878
66879W        W 9791  14.005  34.012  22.367 -0.1853 -0.4420 -0.1591
66880W        W 9792  13.738  33.600  22.266  0.1139 -0.2783 -0.1574
66881W        W 9793  10.503  32.911  22.639  0.0948 -0.1657  0.2358
66882W        W 9794  14.248  33.977  23.661 -0.1327  0.0622  0.0582
66883W        W 9795  14.753   0.318  20.995  0.1494 -0.2279  0.2236
66884W        W 9796  13.270   0.062  22.192 -0.0746  0.1132 -0.0280
66885W        W 9797  11.626  33.416  20.124 -0.0055  0.1087 -0.0255
66886W        W 9798  12.394  34.144  22.927  0.3007  0.4051 -0.3312
66887W        W 9799  12.770  34.443  23.170 -0.1542  0.2355  0.0205
66888W        W 9800  12.611  33.396  18.190 -0.1922  0.1234 -0.0352
66889W        W 9801  12.196  32.724  21.651 -0.2185 -0.0017 -0.2148
66890W        W 9802  14.163  33.506  22.593 -0.1838 -0.0897 -0.1825
66891W        W 9803  12.325  33.973  18.863  0.1098 -0.0619  0.0123
66892W        W 9804   9.298   0.261  20.360  0.2766  0.0039  0.2681
66893W        W 9805  13.722  33.612  21.683  0.2717 -0.2293  0.0377
66894W        W 9806  12.069  34.403  20.817 -0.0687  0.0410  0.0799
66895W        W 9807  12.334  33.474  21.471 -0.1068  0.0552 -0.0478
66896W        W 9808  12.684   0.450  21.627 -0.0651 -0.1530  0.0865
66897W        W 9809  13.720  32.740  21.174  0.0290 -0.0921 -0.2274
66898W        W 9810  10.643   0.419  23.886  0.1812  0.3905 -0.0835
66899W        W 9811  10.053  34.375  20.374  0.0053 -0.0763 -0.1585
66900W        W 9812  12.398  34.571  22.178 -0.1378  0.0074  0.1740
66901W        W 9813  11.737  34.222  22.224  0.0710 -0.1885  0.0625
66902W        W 9814  11.260   0.162  19.764  0.1472  0.1151  0.2797
66903W        W 9815  10.765   0.534  24.904  0.0305  0.0787  0.0600
66904W        W 9816  11.433  34.355  23.308 -0.1262  0.0335  0.1977
66905W        W 9817  13.057  33.803  20.404 -0.1644  0.2083  0.2294
66906W        W 9818  13.152  33.269  20.974  0.1958  0.0060 -0.1999
66907W        W 9819  11.636   0.229  22.457  0.0438  0.0994  0.3240
66908W        W 9820  12.416  33.970  20.761  0.3035  0.0966  0.0555
66909W        W 9821  12.892  34.681  22.554  0.1957  0.1293  0.3018
66910W        W 9822  11.794   0.590  21.004  0.3669  0.3322  0.0223
66911W        W 9823  15.122  32.839  21.518  0.0005 -0.2466  0.0450
66912W        W 9824  12.674  34.204  20.369  0.1724  0.3291 -0.0891
66913W        W 9825  14.862  33.395  22.473  0.0833  0.0966  0.0914
66914W        W 9826  14.125   0.405  19.806  0.3548  0.2084 -0.2073
66915W        W 9827  12.867  33.187  22.334 -0.1170 -0.2759 -0.1475
66916W        W 9828  11.811  34.299  21.224 -0.0572 -0.1311  0.1851
66917W        W 9829  10.890  34.330  20.809 -0.4611  0.2256 -0.1015
66918W        W 9830  10.431   1.202  24.255 -0.3139 -0.0857 -0.2232
66919W        W 9831  13.697  32.937  22.106 -0.0797  0.2168  0.1705
66920W        W 9832  13.362  32.426  21.358 -0.2334 -0.2987  0.1780
66921W        W 9833  12.161  34.069  22.385  0.0768 -0.2218 -0.1433
66922W        W 9834  12.851  33.908  21.610  0.1821  0.3575 -0.0100
66923W        W 9835  10.747  34.082  21.708  0.1221 -0.1536 -0.2014
66924W        W 9836  12.912  33.359  21.839  0.4535 -0.0851  0.2700
66925W        W 9837  11.648  34.013  23.675 -0.1910  0.1921 -0.0952
66926W        W 9838  12.351   0.315  20.166 -0.1417 -0.1056  0.2115
66927W        W 9839  11.954  33.540  22.457 -0.2474  0.1179  0.2431
66928W        W 9840  14.602  33.757  22.323 -0.3808 -0.0251 -0.4436
66929W        W 9841  11.668   0.268  21.555 -0.1245  0.1314 -0.0537
66930W        W 9842  10.834   0.061  24.670 -0.2261  0.1610 -0.1717
66931W        W 9843  13.245  34.133  19.034  0.2597  0.0158  0.0751
66932W        W 9844  13.685  34.585  21.905  0.2032 -0.0630  0.0712
66933W        W 9845  15.295   0.379  21.231 -0.1014  0.2312  0.0586
66934W        W 9846  13.611   0.292  19.670 -0.1920  0.0657 -0.0001
66935W        W 9847  10.478  33.441  20.898 -0.2444 -0.0880 -0.1198
66936W        W 9848  13.006  33.488  23.216 -0.0081 -0.0352 -0.0310
66937W        W 9849  12.640  33.834  19.921 -0.0125  0.4500 -0.0345
66938W        W 9850  14.518  34.276  22.311  0.0573 -0.0887  0.0285
66939W        W 9851  10.603  33.690  20.400  0.0929  0.1625 -0.1188
66940W        W 9852  10.868   0.057  21.146  0.1062  0.1869 -0.1250
66941W        W 9853  10.841  33.790  19.569  0.1360 -0.0543  0.2521
66942W        W 9854  11.642   0.017  18.552  0.0288 -0.0978 -0.1250
66943W        W 9855  13.011  32.487  20.322  0.0354 -0.1908  0.0063
66944W        W 9856  14.193  34.587  23.368 -0.2458  0.0424  0.0642
66945W        W 9857  13.735  33.650  20.727  0.0450 -0.1486 -0.2977
66946W        W 9858  13.076  34.237  22.759 -0.1332 -0.1887 -0.1035
66947W        W 9859  13.611   0.161  21.478  0.0372 -0.1846  0.0026
66948W        W 9860  13.755  34.439  22.439  0.1403  0.1246  0.1526
66949W        W 9861  14.300  34.084  24.536 -0.0823  0.0530 -0.2696
66950W        W 9862  11.145  34.000  20.500 -0.0908  0.1690 -0.0277
66951W        W 9863  10.978   0.353  23.156 -0.1138  0.3322  0.2421
66952W        W 9864  11.956  33.143  21.533  0.1174  0.0688 -0.2975
66953W        W 9865  13.573  34.149  20.747  0.1840  0.0443 -0.1206
66954W        W 9866  13.434  34.160  19.908  0.1054  0.1193  0.0504
66955W        W 9867  14.035  34.380  21.309 -0.3461  0.3998  0.1869
66956W        W 9868  15.010  33.650  20.695 -0.2203 -0.0003 -0.0193
66957W        W 9869  11.340  34.302  21.035  0.0338 -0.2869  0.1209
66958W        W 9870  12.337  32.413  19.249  0.1332  0.3503 -0.3004
66959W        W 9871  12.177   0.122  23.783 -0.2143 -0.0830 -0.1026
66960W        W 9872  14.734  33.710  23.783  0.2140  0.0462 -0.3317
66961W        W 9873  11.907  32.998  19.723  0.2612  0.2035 -0.1762
66962W        W 9874  12.625  34.421  20.975  0.1270  0.1411 -0.1685
66963W        W 9875  14.766  32.804  21.934 -0.0143 -0.1543  0.0514
66964W        W 9876  14.729  34.021  23.308 -0.1644  0.1173 -0.1697
66965W        W 9877  10.764  32.971  20.159  0.1762 -0.0713  0.1927
66966W        W 9878  13.580  34.467  21.138 -0.1442 -0.3532 -0.1555
66967W        W 9879  10.881   0.116  22.381 -0.1660  0.1491  0.0630
66968W        W 9880  14.250  32.501  24.249 -0.1365 -0.0606  0.0378
66969W        W 9881  12.234  34.552  21.213  0.0499 -0.2384  0.1170
66970W        W 9882  13.287  34.680  19.886  0.2326 -0.2522  0.1306
66971W        W 9883  11.217  34.389  23.909 -0.0760 -0.3970  0.0798
66972W        W 9884  13.736   0.657  20.184  0.1885 -0.0075 -0.2111
66973W        W 9885  14.309   0.911  23.189  0.3006  0.2965 -0.2519
66974W        W 9886  13.164   0.178  19.395 -0.0345  0.3732 -0.0045
66975W        W 9887  12.017  33.444  20.464 -0.1877  0.0984 -0.0337
66976W        W 9888  13.531  34.576  19.297  0.1441 -0.0465 -0.1357
66977W        W 9889  10.846   1.099  20.750  0.1137  0.2042 -0.2900
66978W        W 9890  11.267  34.265  21.963 -0.2104  0.1186  0.0816
66979W        W 9891  12.627  32.590  20.598  0.1421 -0.0902  0.0146
66980W        W 9892  14.138  33.688  22.057  0.2342  0.1733 -0.3554
66981W        W 9893  12.232   0.409  21.258 -0.0713  0.0267  0.0782
66982W        W 9894  10.154  33.956  20.817  0.0768 -0.0460  0.0591
66983W        W 9895  13.291  33.622  21.393  0.3255 -0.1229 -0.0488
66984W        W 9896  12.174  32.902  21.019 -0.1072  0.0237 -0.3065
66985W        W 9897  14.217  33.255  23.769  0.1393 -0.1820  0.0177
66986W        W 9898  13.281  33.723  21.990 -0.3224 -0.0589 -0.3136
66987W        W 9899  13.302  33.713  23.620  0.1834  0.3793  0.0890
66988W        W 9900  12.037  33.935  21.659  0.2093  0.0548 -0.1924
66989W        W 9901  13.773  33.125  21.572 -0.0008 -0.1195  0.1080
66990W        W 9902  13.300  34.306  22.063  0.1939  0.2820 -0.6206
66991W        W 9903  13.944  33.897  19.927 -0.0993 -0.1853 -0.0035
66992W        W 9904  12.036   0.215  21.989  0.0924  0.0099 -0.0499
66993W        W 9905  10.816  34.637  19.805  0.2149  0.0691 -0.1044
66994W        W 9906  13.487  34.007  22.440 -0.1424  0.1166 -0.2259
66995W        W 9907  12.392   0.069  21.693  0.1165 -0.0228 -0.3563
66996W        W 9908  12.707   1.401  21.886 -0.1969 -0.2788  0.2143
66997W        W 9909  12.336  33.938  21.237 -0.1793 -0.1059  0.1760
66998W        W 9910  11.196  33.407  22.881 -0.0412 -0.0486 -0.0404
66999W        W 9911  11.628  32.991  20.728  0.6478 -0.0466 -0.0975
67000W        W 9912  12.338  33.236  20.015  0.1762  0.2864 -0.0565
67001W        W 9913  11.156  33.061  23.611  0.2126 -0.2183  0.2515
67002W        W 9914  10.579  33.029  24.470 -0.2006 -0.0428  0.0305
67003W        W 9915  10.962  33.230  19.707 -0.0003  0.0368 -0.0159
67004W        W 9916  11.872   0.503  23.543  0.0411  0.1469  0.1613
67005W        W 9917  11.213  33.544  21.677  0.0827 -0.0560  0.2253
67006W        W 9918  15.863  33.386  22.435  0.1917  0.2230  0.0704
67007W        W 9919  12.931  34.229  19.936  0.2823  0.1606  0.0747
67008W        W 9920   9.603  32.245  22.878  0.1123 -0.0361  0.3542
67009W        W 9921  11.422  33.577  20.787  0.0930  0.1227 -0.2776
67010W        W 9922  12.005  31.950  19.667 -0.0680 -0.0145 -0.2231
67011W        W 9923  10.274  34.188  22.468  0.1090 -0.0383 -0.2955
67012W        W 9924  12.409  34.637  20.562 -0.2343 -0.0185 -0.4105
67013W        W 9925  12.480   1.197  22.448  0.0121  0.1320  0.0295
67014W        W 9926  10.592  33.937  19.147 -0.0332 -0.1379  0.0667
67015W        W 9927  14.668   0.617  18.999  0.3035 -0.0411  0.0440
67016W        W 9928  10.821  32.211  23.106 -0.2486 -0.0690  0.2025
67017W        W 9929  11.065  34.281  19.644 -0.0565  0.0515 -0.1733
67018W        W 9930  12.498   0.791  21.050  0.0509 -0.3426  0.0026
67019W        W 9931  13.263  33.698  22.724  0.1854  0.2406 -0.1622
67020W        W 9932  11.683  33.873  20.403 -0.0119  0.3806 -0.1974
67021W        W 9933  12.900  32.237  19.904  0.2104  0.1592  0.1968
67022W        W 9934  12.165   0.313  24.692  0.3027 -0.1673  0.1157
67023W        W 9935  15.165  34.302  22.774  0.1475  0.2069  0.0500
67024W        W 9936  14.970  33.089  24.866 -0.2697 -0.0417  0.1799
67025W        W 9937  10.733  31.806  24.975  0.1618 -0.0846 -0.0565
67026W        W 9938  11.572  32.025  26.342 -0.3018  0.1299  0.5524
67027W        W 9939  13.431   0.040  22.734 -0.1647 -0.0246  0.3562
67028W        W 9940  10.845  34.166  25.436  0.0238 -0.0654  0.1702
67029W        W 9941  11.438  32.603  23.390  0.0380  0.0586  0.1545
67030W        W 9942  10.889  31.902  26.963 -0.1069 -0.0946  0.3470
67031W        W 9943  13.784  34.297  24.469  0.1974  0.4716 -0.1638
67032W        W 9944  11.855   0.912  23.074 -0.3004  0.0568 -0.0438
67033W        W 9945  11.309  34.343  27.154 -0.1924  0.0113  0.0802
67034W        W 9946  12.954  32.941  24.834 -0.0287 -0.2129 -0.0625
67035W        W 9947  11.817  33.236  27.095 -0.0645 -0.4683  0.0547
67036W        W 9948  12.970  33.140  25.324 -0.1798 -0.1714 -0.0976
67037W        W 9949  11.063   0.163  23.637  0.5488  0.0166 -0.0755
67038W        W 9950  10.923  33.575  25.615 -0.1702  0.1908  0.1382
67039W        W 9951  11.537  33.147  26.115 -0.2048 -0.1346  0.2281
67040W        W 9952  13.588  34.245  22.962  0.1555  0.0173  0.0963
67041W        W 9953  13.942   0.019  25.280  0.1132  0.1534  0.2362
67042W        W 9954  13.066  33.466  27.588  0.0835  0.0675 -0.1345
67043W        W 9955  14.465  33.095  24.723  0.3046  0.0135 -0.2400
67044W        W 9956  12.479  32.849  24.399 -0.1837  0.0640  0.0020
67045W        W 9957  13.512  33.763  27.009 -0.2562  0.0322 -0.0164
67046W        W 9958  13.395   0.401  23.115 -0.1369 -0.2623  0.2398
67047W        W 9959  10.943   1.081  24.179  0.0364  0.0222  0.2083
67048W        W 9960  13.588  32.989  23.105  0.1694  0.0325 -0.0209
67049W        W 9961  12.298  34.203  25.710 -0.1045 -0.1209 -0.0112
67050W        W 9962  10.589  33.993  24.934  0.2531  0.3903 -0.0317
67051W        W 9963  13.926   0.049  24.020 -0.0131  0.1129  0.1070
67052W        W 9964  11.975  32.343  26.229  0.0152  0.2430 -0.3156
67053W        W 9965  10.661  34.325  24.505  0.4415 -0.0554 -0.0889
67054W        W 9966  11.608  34.288  24.270 -0.0390 -0.1187  0.0252
67055W        W 9967  12.028   0.364  27.930  0.1157  0.1894  0.0224
67056W        W 9968  11.088   0.140  25.886 -0.1308  0.3163 -0.1904
67057W        W 9969   9.942  33.011  22.967 -0.0229  0.1523 -0.0797
67058W        W 9970  13.171  33.384  23.949  0.1896 -0.0051 -0.1679
67059W        W 9971  13.386  32.558  24.380 -0.3563 -0.4427 -0.0497
67060W        W 9972  12.044  33.646  24.697  0.4264  0.2322  0.1729
67061W        W 9973  12.598  31.618  24.915  0.5232  0.0279 -0.4434
67062W        W 9974  13.228  33.206  26.363 -0.2640 -0.0621 -0.1805
67063W        W 9975   9.742  32.972  25.014  0.0506 -0.0374  0.1003
67064W        W 9976  13.871  32.299  23.734 -0.2733  0.2921  0.0444
67065W        W 9977  10.876  32.654  27.686  0.0524  0.0164  0.0061
67066W        W 9978  12.850  32.510  26.060 -0.2420  0.3064  0.1751
67067W        W 9979  15.597  34.515  24.821  0.2385 -0.5871  0.0186
67068W        W 9980  10.503  34.056  26.714 -0.0532  0.1523  0.4330
67069W        W 9981  11.130  34.511  24.391  0.0164 -0.1003 -0.2056
67070W        W 9982  10.580  32.839  26.031  0.2063 -0.1733 -0.1095
67071W        W 9983  10.764  33.431  27.543 -0.0657 -0.3318 -0.0131
67072W        W 9984  13.025  34.404  25.628  0.1500 -0.0230  0.1211
67073W        W 9985  11.777  32.415  25.739 -0.0096  0.1066  0.4072
67074W        W 9986  13.627  33.757  23.967 -0.0772  0.0388 -0.1644
67075W        W 9987  10.640  34.515  25.073 -0.1887 -0.1305  0.0433
67076W        W 9988  12.415  32.873  26.833 -0.1520  0.1665  0.3185
67077W        W 9989  11.475  34.047  27.564 -0.1853  0.0414 -0.2387
67078W        W 9990  10.686  33.150  25.157 -0.1187  0.0629 -0.1912
67079W        W 9991  11.043  33.570  23.883  0.2913  0.1741 -0.0491
67080W        W 9992  13.378  33.214  27.176 -0.2725  0.0404  0.1193
67081W        W 9993  13.362  34.387  24.636  0.0716  0.2190 -0.2442
67082W        W 9994  11.035  32.065  24.073 -0.1091  0.4751 -0.2463
67083W        W 9995  10.415   1.049  24.831 -0.0344  0.0039  0.0453
67084W        W 9996  14.271  34.311  26.399 -0.2920  0.4664  0.0082
67085W        W 9997  11.971  34.157  27.640  0.0431  0.0843  0.2115
67086W        W 9998  13.258   0.083  27.502  0.0545  0.1478 -0.2925
67087W        W 9999  10.370  34.321  24.031 -0.0824  0.1787 -0.0413
67088W        W10000  13.858  33.304  24.090 -0.0979 -0.0797 -0.1770
67089W        W10001  12.701  33.558  24.125  0.1436  0.0203 -0.0710
67090W        W10002  11.910  34.209  23.255  0.2191  0.0336 -0.0351
67091W        W10003  11.119  34.001  23.581 -0.0134 -0.0700 -0.1379
67092W        W10004  12.583   0.213  23.431  0.2794 -0.0181 -0.2959
67093W        W10005  12.315  32.629  25.836  0.2864 -0.1777  0.0002
67094W        W10006  11.181  34.303  22.805 -0.2252 -0.1829 -0.2641
67095W        W10007  12.554  32.635  24.891  0.3784  0.0149 -0.2656
67096W        W10008  15.548  32.669  25.656  0.0628 -0.0322 -0.0596
67097W        W10009  13.899  34.300  25.991  0.1137 -0.1009  0.1807
67098W        W10010  11.516  32.831  28.403  0.0062  0.1387  0.3476
67099W        W10011  13.351  34.288  26.752  0.1052 -0.2611  0.1751
67100W        W10012  15.039  34.090  23.694  0.1719  0.0389 -0.2515
67101W        W10013  12.736   0.380  25.411 -0.0580 -0.0204  0.1983
67102W        W10014  12.209  34.626  23.278 -0.3285  0.0809  0.2766
67103W        W10015  12.758  33.112  27.669 -0.0142  0.0037 -0.2926
67104W        W10016  12.270  34.144  26.304 -0.2606 -0.1295 -0.0858
67105W        W10017  11.931  33.095  24.128 -0.1461 -0.2382 -0.1585
67106W        W10018  11.135  34.590  25.425  0.0268 -0.3081  0.1168
67107W        W10019  14.119   0.066  26.696 -0.0468  0.0353 -0.0469
67108W        W10020  11.101  32.647  23.867 -0.2191 -0.0735 -0.0105
67109W        W10021  11.513   0.266  23.844  0.0510 -0.1357  0.2729
67110W        W10022  12.812  32.530  23.456 -0.1059 -0.0820 -0.3318
67111W        W10023  10.246  34.271  25.818  0.0038 -0.1391 -0.2584
67112W        W10024  12.813  33.110  26.018  0.1265  0.0252  0.1695
67113W        W10025  12.883  33.682  25.010  0.0611 -0.0091  0.4807
67114W        W10026  13.138  32.512  23.842  0.4332 -0.1668  0.0287
67115W        W10027  11.544   0.408  25.756  0.2403  0.2609  0.0045
67116W        W10028  10.753  33.953  24.133  0.0625 -0.1765 -0.4059
67117W        W10029  15.249  33.303  27.234  0.0503  0.0418  0.4058
67118W        W10030  12.386  33.935  24.292  0.0012 -0.5101  0.2800
67119W        W10031  12.239   0.477  24.186 -0.3205 -0.2689  0.0807
67120W        W10032  11.361  33.262  26.946  0.0667 -0.1622  0.3173
67121W        W10033  10.878  34.279  25.921 -0.1049  0.3036 -0.3603
67122W        W10034  11.959  33.096  24.630 -0.0957  0.0515 -0.0720
67123W        W10035  12.187   0.763  24.977  0.1218 -0.3785  0.1490
67124W        W10036  12.734  32.039  26.311  0.2586  0.0632 -0.0585
67125W        W10037  11.745  33.782  27.231 -0.3700  0.2227 -0.0743
67126W        W10038  13.034  34.618  27.000  0.2743 -0.0167  0.0437
67127W        W10039  11.821  33.839  26.289  0.2960 -0.0016 -0.0456
67128W        W10040  13.552  33.500  23.147 -0.2464 -0.1229 -0.2687
67129W        W10041  13.428  33.912  24.874 -0.0795  0.0295 -0.0221
67130W        W10042  14.954  33.012  26.312 -0.1044  0.0988 -0.2084
67131W        W10043  14.670  34.447  23.567 -0.0334  0.0177  0.3006
67132W        W10044  13.153  33.000  26.808  0.0077  0.0877 -0.0771
67133W        W10045  12.297  33.137  25.874 -0.3233  0.2905 -0.2811
67134W        W10046  11.092  34.666  26.636 -0.0049 -0.1549 -0.2151
67135W        W10047  11.908  33.853  28.337  0.0076 -0.2875  0.1321
67136W        W10048  12.208  33.749  23.675 -0.0962  0.1854 -0.1225
67137W        W10049  11.786  32.833  22.792  0.0791  0.2759 -0.1291
67138W        W10050  12.213   0.616  25.504  0.0727  0.1813 -0.0558
67139W        W10051  12.983  32.924  24.306  0.5032 -0.0423  0.0132
67140W        W10052  10.658   0.684  24.411 -0.1714  0.1041  0.0676
67141W        W10053  13.873  34.253  23.913  0.0178 -0.0271  0.0842
67142W        W10054  11.947  33.444  26.049 -0.2108 -0.2342  0.2057
67143W        W10055  13.397  32.915  24.003  0.0519  0.2444 -0.2535
67144W        W10056  12.487  33.177  24.854 -0.0462 -0.1438 -0.1519
67145W        W10057  13.247  34.035  25.384 -0.1586  0.0305 -0.0098
67146W        W10058  12.069   0.065  26.956  0.2155  0.2033  0.0159
67147W        W10059  10.492  34.283  27.283 -0.1495 -0.0025  0.0031
67148W        W10060  14.102  33.363  23.105 -0.0043  0.0866 -0.1914
67149W        W10061  14.141  33.453  24.575 -0.2435 -0.1569 -0.3355
67150W        W10062  13.599  33.583  24.474 -0.3429  0.1008 -0.0414
67151W        W10063  12.945   0.214  22.987 -0.0227  0.0083 -0.1493
67152W        W10064   9.469  34.074  24.365 -0.0493  0.1006 -0.1959
67153W        W10065  12.425  33.698  26.447  0.0595 -0.1082 -0.2016
67154W        W10066  11.143  33.492  24.349 -0.1157  0.2308  0.3918
67155W        W10067  13.281  33.553  25.412 -0.0674  0.2427  0.1723
67156W        W10068  12.741  33.705  23.627  0.0669 -0.1257 -0.1098
67157W        W10069  10.181  33.147  24.901  0.1823 -0.0329 -0.0527
67158W        W10070  11.727  34.462  23.673  0.1925 -0.1035  0.1902
67159W        W10071  12.017   2.808  23.801  0.0894  0.2585 -0.1047
67160W        W10072  11.388  33.550  23.522 -0.0341 -0.1422  0.1178
67161W        W10073  13.317  33.324  24.936  0.3036  0.1038  0.2685
67162W        W10074  13.491  33.026  25.390  0.2384 -0.0845  0.1329
67163W        W10075  12.331  33.171  26.427  0.2324 -0.2407 -0.1592
67164W        W10076  13.474  33.060  24.431 -0.0529 -0.1973  0.0101
67165W        W10077  12.585   0.210  24.489 -0.1596 -0.2443  0.1187
67166W        W10078  12.740  34.483  26.620  0.0945 -0.1512  0.1153
67167W        W10079  11.353  33.867  24.093  0.2346 -0.2756 -0.3625
67168W        W10080   9.882  33.454  27.835  0.1799 -0.0006  0.0892
67169W        W10081  10.760  33.636  24.655 -0.1120  0.2429  0.0447
67170W        W10082  11.733  34.525  24.676 -0.0060 -0.0738 -0.0161
67171W        W10083  14.869  32.716  23.582 -0.2409 -0.0571  0.3365
67172W        W10084  12.425  34.037  24.977  0.0845 -0.1066 -0.0626
67173W        W10085  14.979  33.567  23.374  0.0824  0.2518 -0.1088
67174W        W10086  10.789   1.282  25.097  0.0913 -0.1396 -0.2374
67175W        W10087  11.842  32.542  22.067 -0.4025 -0.1030  0.0122
67176W        W10088  11.375  34.202  26.627 -0.0623 -0.1936  0.1813
67177W        W10089  14.805  32.883  26.786 -0.0644  0.0094 -0.1966
67178W        W10090  11.780  33.462  23.883 -0.2971 -0.0659 -0.3657
67179W        W10091  11.194   1.523  25.919 -0.1610 -0.1147  0.5721
67180W        W10092  13.071  31.652  24.185  0.4533  0.0185 -0.2319
67181W        W10093  12.527  33.609  24.643 -0.3086 -0.0422  0.1467
67182W        W10094   9.851  33.497  23.758  0.2421  0.2674 -0.0300
67183W        W10095  15.710   0.466  26.739  0.1239  0.0903  0.1494
67184W        W10096  11.778  33.979  25.601  0.3375  0.0944  0.1932
67185W        W10097  13.842  32.301  26.099 -0.1031  0.0536 -0.3514
67186W        W10098  12.547   0.893  24.689 -0.0083  0.2183  0.1132
67187W        W10099  13.573   0.141  26.020  0.2552  0.0350  0.2608
67188W        W10100  11.582  33.985  24.780  0.0466 -0.0860 -0.1744
67189W        W10101  13.127   0.225  23.660 -0.0412 -0.1187 -0.0649
67190W        W10102  15.593   1.328  27.728 -0.0235  0.1091  0.1791
67191W        W10103  12.700   0.699  23.206 -0.0516  0.1737 -0.0445
67192W        W10104  11.749  33.444  25.557  0.1823  0.2326  0.0562
67193W        W10105  13.338  34.207  23.811  0.3788 -0.0140  0.1060
67194W        W10106  12.145   0.973  23.784  0.2202 -0.2968  0.0343
67195W        W10107  11.375  33.548  25.866  0.1125 -0.0294 -0.0637
67196W        W10108  10.894  32.185  24.547 -0.2360 -0.0992 -0.0285
67197W        W10109  15.976  34.159  24.804  0.2556 -0.0863  0.1041
67198W        W10110  14.404   0.655  24.004 -0.1196  0.3778  0.1001
67199W        W10111  12.266  33.960  27.246 -0.0133  0.0182 -0.1725
67200W        W10112  11.489  31.707  24.012  0.3670  0.1569  0.1725
67201W        W10113  11.859  33.849  24.177 -0.2020 -0.2806  0.1022
67202W        W10114  14.032  34.194  25.456 -0.1381 -0.0115  0.1676
67203W        W10115  13.856  33.595  26.620  0.1036 -0.1694  0.0807
67204W        W10116  13.496  32.119  26.542  0.1418  0.1865  0.2541
67205W        W10117  12.179  34.531  24.930  0.2214  0.0252 -0.2802
67206W        W10118  11.600   0.161  24.321 -0.2546 -0.0114  0.0246
67207W        W10119  13.394  32.226  23.434  0.2672 -0.1577 -0.3085
67208W        W10120  11.126  34.065  25.061 -0.2033 -0.3372  0.0300
67209W        W10121  11.484   0.340  27.836  0.1297 -0.3389  0.0007
67210W        W10122  10.381   0.249  24.296  0.3489 -0.1751 -0.3951
67211W        W10123  12.010  32.812  29.191 -0.2240 -0.0203 -0.1030
67212W        W10124  11.404   0.259  26.228 -0.0437 -0.2099  0.2249
67213W        W10125  10.632   0.446  25.850 -0.0724  0.0252 -0.1991
67214W        W10126  10.745  34.654  24.060 -0.1431  0.0246 -0.3038
67215W        W10127  11.927  32.646  24.863  0.4496 -0.3277  0.1377
67216W        W10128  11.017  32.619  26.094 -0.1210  0.1734  0.2150
67217W        W10129  12.523  34.455  24.019  0.0927 -0.2097  0.1357
67218W        W10130  10.844  34.295  26.448  0.0894  0.1211  0.1046
67219W        W10131  12.278  33.333  26.920  0.1795 -0.3612  0.2505
67220W        W10132  10.014  32.923  23.512 -0.2997  0.1660  0.1546
67221W        W10133  12.083  33.086  25.205  0.0761 -0.0655  0.3247
67222W        W10134  10.365  32.544  26.565  0.0831  0.0974 -0.0485
67223W        W10135  13.760  32.653  25.742 -0.1571 -0.2077  0.0205
67224W        W10136  11.783   0.568  24.094 -0.2416 -0.1439 -0.1694
67225W        W10137   9.922  33.106  28.141  0.1744  0.3516 -0.0481
67226W        W10138  11.646  32.247  25.281  0.3541 -0.0294 -0.0392
67227W        W10139  12.455  34.278  23.526  0.0831  0.1724  0.0920
67228W        W10140  10.681   0.016  26.122  0.0708 -0.0219  0.1188
67229W        W10141  11.983  33.106  23.212 -0.0167 -0.2807 -0.1459
67230W        W10142  12.084  32.607  25.364  0.4251  0.4150 -0.0344
67231W        W10143  11.440   0.985  23.985  0.0282 -0.1829 -0.0690
67232W        W10144  15.134   1.010  23.365  0.1057 -0.1041 -0.3012
67233W        W10145  10.984  33.199  26.023 -0.1181  0.1132 -0.1588
67234W        W10146  10.889   0.317  25.343 -0.3927  0.2188 -0.0055
67235W        W10147  12.823  34.048  24.005  0.0092  0.0045  0.0799
67236W        W10148  12.288  33.545  25.171  0.0943  0.0682 -0.1436
67237W        W10149  11.532  33.066  24.950 -0.2479 -0.0208  0.0471
67238W        W10150  11.819  32.943  25.767 -0.1219  0.0946  0.1130
67239W        W10151  11.239  33.318  29.077 -0.2289 -0.0396 -0.2624
67240W        W10152  13.441  31.978  27.247 -0.1517 -0.3433  0.0094
67241W        W10153  13.771  33.080  27.549  0.1631 -0.0161 -0.1290
67242W        W10154  10.299  33.461  28.115 -0.1135  0.1427  0.2001
67243W        W10155  10.223  31.234  30.449 -0.2823 -0.1243  0.3735
67244W        W10156  12.363  34.198  26.792  0.1567 -0.0661 -0.0397
67245W        W10157  12.816  31.666  31.323  0.3966 -0.1270 -0.1932
67246W        W10158  11.566  33.287  27.994  0.3024 -0.0484 -0.0328
67247W        W10159  11.325  31.226  29.332 -0.0143  0.1815  0.1471
67248W        W10160  13.986  34.226  30.721 -0.2809  0.0669 -0.0245
67249W        W10161  10.829  33.561  28.064  0.1940  0.0995 -0.1055
67250W        W10162  11.474  34.167  29.058 -0.2358  0.1793 -0.0266
67251W        W10163  11.711  34.519  27.376  0.0713 -0.0686 -0.0296
67252W        W10164  12.121  32.410  31.026 -0.1749 -0.1456 -0.0206
67253W        W10165  12.520  32.347  30.510 -0.3257 -0.2195 -0.2793
67254W        W10166  11.581  33.696  26.746 -0.0943 -0.3080  0.0654
67255W        W10167  11.391  33.758  30.427  0.0232  0.0018 -0.2756
67256W        W10168  10.175  34.293  29.684 -0.2498  0.1212  0.0383
67257W        W10169  13.785  34.321  28.401  0.0225 -0.0043  0.1419
67258W        W10170  13.706  34.512  28.867 -0.0076  0.0644 -0.0968
67259W        W10171  13.668  33.635   0.198  0.0849  0.0046  0.6411
67260W        W10172  13.683  34.240  31.299 -0.3961  0.0461  0.4099
67261W        W10173  12.126  34.218  29.513 -0.0716  0.1735 -0.1063
67262W        W10174  14.300  32.695  31.622 -0.0602 -0.1058 -0.1383
67263W        W10175  13.150  34.449  29.054 -0.4813  0.1741 -0.1429
67264W        W10176  12.588  33.705  26.952 -0.0318 -0.2656  0.0496
67265W        W10177  12.259  33.487  28.343 -0.0581 -0.0154  0.0934
67266W        W10178  11.311  33.593  29.528  0.2130 -0.0819  0.1565
67267W        W10179  11.554  32.359  30.262  0.3968  0.1247 -0.1521
67268W        W10180  11.627  34.395  29.491 -0.1400 -0.0420 -0.0993
67269W        W10181  12.559  32.723  30.876 -0.2478 -0.1434 -0.0506
67270W        W10182  12.320   0.426  26.655 -0.0587 -0.1859 -0.1722
67271W        W10183  12.017   0.175  27.456  0.0611 -0.1014 -0.0455
67272W        W10184  11.352   0.047  30.926  0.3159  0.2064 -0.2743
67273W        W10185  10.992  32.600   0.675 -0.2646  0.2050  0.3848
67274W        W10186  12.959  31.930  27.189  0.0900  0.1431 -0.0432
67275W        W10187  13.765  32.256  30.784 -0.0187 -0.2304 -0.2144
67276W        W10188  13.766  32.060  30.194 -0.0225 -0.0015  0.1169
67277W        W10189  14.356  32.639  30.723 -0.3240 -0.3048 -0.3283
67278W        W10190  13.551   0.096  26.946  0.0374 -0.0313  0.1875
67279W        W10191  12.690  32.543   0.349 -0.2063 -0.1474  0.0862
67280W        W10192  10.053  31.386  30.908 -0.0534 -0.1404 -0.2216
67281W        W10193  14.231  33.577  28.272  0.1386  0.1134 -0.1913
67282W        W10194  11.744  31.766  30.800 -0.5353 -0.2527 -0.0121
67283W        W10195  15.511  32.943  28.831  0.2064  0.0496  0.0344
67284W        W10196  13.603  33.177  26.673 -0.2612  0.0129 -0.1327
67285W        W10197  11.786   0.054  30.118 -0.0006  0.0098 -0.1654
67286W        W10198  11.061  32.628  29.315 -0.2326  0.1342 -0.1634
67287W        W10199  11.632  32.676  31.092 -0.0941  0.0064  0.1381
67288W        W10200  11.308  33.622  28.694  0.0647  0.1907 -0.0761
67289W        W10201  13.973  33.472  30.325  0.2771  0.0861 -0.0497
67290W        W10202  12.005  33.664  28.873  0.0002 -0.2066  0.1016
67291W        W10203  12.835  33.264  30.451  0.0161 -0.1869  0.2936
67292W        W10204  13.112  34.573  27.940  0.2724  0.0524  0.0999
67293W        W10205  13.555  33.253  30.736  0.0122 -0.1226 -0.2034
67294W        W10206  12.463  33.026   0.303 -0.3896  0.2339 -0.0645
67295W        W10207  10.259  32.101  26.895  0.0661 -0.1077  0.0198
67296W        W10208  12.450  32.750  27.869 -0.2952 -0.2948  0.5749
67297W        W10209  13.832  32.436  31.872  0.1871 -0.0224 -0.1982
67298W        W10210  13.349  33.339  29.362  0.0611 -0.1796  0.0145
67299W        W10211   9.973  32.917  27.687  0.0778  0.0815  0.3818
67300W        W10212  10.863  34.403  28.292 -0.2550 -0.0483 -0.0448
67301W        W10213  14.120  32.887  29.586  0.1454  0.1223 -0.0730
67302W        W10214   9.158   0.306   0.073 -0.0447  0.2774  0.0240
67303W        W10215  14.252  34.347  31.585  0.4344  0.0985 -0.0070
67304W        W10216  11.831  33.701  27.859  0.3877 -0.0015 -0.1401
67305W        W10217  13.295  33.702  29.053 -0.2435  0.1516 -0.1271
67306W        W10218  14.291  33.031  27.006 -0.0721  0.2495 -0.2829
67307W        W10219  13.989  34.077  26.794 -0.1946  0.1458  0.1393
67308W        W10220  12.551  32.819  25.383 -0.0223  0.3932 -0.2204
67309W        W10221  12.693  33.873  25.557 -0.0636 -0.1851 -0.2845
67310W        W10222  12.128  33.573  30.619 -0.1015 -0.0294 -0.2450
67311W        W10223  12.820  33.293  27.087 -0.0440  0.2031  0.1081
67312W        W10224  12.257  32.305  30.105  0.4011 -0.0775 -0.0656
67313W        W10225  13.245  32.514  29.553 -0.0397 -0.1179  0.0120
67314W        W10226  13.027  33.100  30.045 -0.0257  0.0250  0.1647
67315W        W10227  11.842  32.286  31.886 -0.0915  0.0281 -0.3271
67316W        W10228  14.807  33.527  30.621 -0.0375  0.1727 -0.4563
67317W        W10229  13.137  33.491  26.764  0.0509  0.1657  0.2607
67318W        W10230  12.888  33.575  29.883  0.1922 -0.3264 -0.2603
67319W        W10231  11.345  32.822  27.827  0.0514 -0.1663 -0.1064
67320W        W10232  13.304  31.700  31.249 -0.1952 -0.1002 -0.1312
67321W        W10233  10.941  33.493  30.657 -0.0013 -0.2614  0.0097
67322W        W10234  12.922  32.779  27.182  0.1775 -0.3091  0.0664
67323W        W10235  12.136  33.635  29.699  0.2819 -0.0190 -0.2298
67324W        W10236  14.909  31.700  29.957  0.1871 -0.2636 -0.3337
67325W        W10237  10.752  33.398  30.072 -0.2101 -0.1640 -0.1162
67326W        W10238  10.057   0.276  27.851  0.1820 -0.0759  0.2371
67327W        W10239  12.729  34.109  27.639 -0.1706  0.0388 -0.2005
67328W        W10240  11.575  32.730  30.570 -0.1369  0.1653 -0.2000
67329W        W10241  10.601  32.402  30.787 -0.2173  0.2100  0.0915
67330W        W10242  13.242   0.680  30.523  0.2807 -0.1083  0.4602
67331W        W10243  13.448  32.730  27.411  0.0149 -0.1728  0.0464
67332W        W10244  12.222  32.859  31.210  0.0975 -0.2388  0.1132
67333W        W10245  11.588  33.318  27.517  0.0283 -0.2871  0.3756
67334W        W10246  13.653  33.628  29.872 -0.0773 -0.1472 -0.0133
67335W        W10247  12.278  34.116  30.535 -0.0118 -0.2258  0.1635
67336W        W10248  12.564   0.036  27.055 -0.1139 -0.0044 -0.0389
67337W        W10249  11.750  32.378   1.254 -0.0958  0.2665  0.1457
67338W        W10250  12.422  33.182  30.772 -0.1870  0.1777 -0.2323
67339W        W10251  12.982  33.995  28.892  0.2140  0.2454  0.2280
67340W        W10252  11.224  33.076  30.564  0.0815  0.3306  0.0727
67341W        W10253  12.355  34.538  30.737  0.0745  0.0391  0.2320
67342W        W10254  11.441  33.403  30.015 -0.1944 -0.0369 -0.3378
67343W        W10255  14.408  34.350  29.516  0.0694 -0.3622 -0.0681
67344W        W10256  13.506  32.785  30.690 -0.0380  0.1969  0.0341
67345W        W10257  13.428  32.380  28.568 -0.1675  0.0166 -0.2929
67346W        W10258  11.976  32.356  29.360 -0.3776 -0.0087  0.1330
67347W        W10259  14.199  31.925  30.038  0.0820 -0.0874  0.4695
67348W        W10260  13.259  34.620  28.563 -0.0938  0.1620 -0.0988
67349W        W10261  13.892  33.335  31.758 -0.0276 -0.2774 -0.0504
67350W        W10262  10.405  33.311  30.567 -0.0704  0.0081  0.0826
67351W        W10263  10.453  34.430  30.572 -0.2058 -0.3786 -0.2704
67352W        W10264  11.883  34.460  30.490 -0.1589 -0.1299 -0.2664
67353W        W10265  11.632  34.281  30.025  0.1594 -0.3076  0.3014
67354W        W10266  12.969  32.216  28.237 -0.0162  0.0761 -0.4068
67355W        W10267  13.172  34.283  29.596 -0.2886 -0.1357 -0.0837
67356W        W10268  14.596  34.166  30.294  0.0384  0.0642 -0.1131
67357W        W10269  10.599  34.487  29.428 -0.0557  0.2793  0.0126
67358W        W10270  13.498  33.749  28.256  0.0660 -0.0959  0.2481
67359W        W10271  12.530  31.560  30.914 -0.3205 -0.3143 -0.0506
67360W        W10272  12.647  32.143  29.880  0.2126 -0.0866 -0.5144
67361W        W10273  13.543  32.871  29.242  0.0323 -0.3783  0.1385
67362W        W10274  12.778  32.745  29.710  0.0852 -0.3101  0.1115
67363W        W10275  14.071  33.720  30.780 -0.1811 -0.1482  0.0729
67364W        W10276  12.088  32.790  30.686 -0.0616  0.2448  0.0422
67365W        W10277  13.613   0.061  28.236  0.2756  0.0409  0.0836
67366W        W10278  14.830  33.046  30.564 -0.0524 -0.2335 -0.0583
67367W        W10279  14.074  32.978  29.058  0.0309  0.1695 -0.0090
67368W        W10280  13.017  33.740  27.180  0.2167  0.2102 -0.1879
67369W        W10281  10.842  31.703  29.768 -0.1905  0.1793 -0.2440
67370W        W10282  14.405  33.195  30.240  0.1510 -0.2491 -0.1809
67371W        W10283  10.416  33.561  26.807  0.0977  0.0749 -0.1228
67372W        W10284  13.930  34.463  29.796 -0.0054  0.0726 -0.1759
67373W        W10285  13.322  32.972  27.831 -0.2869  0.2686  0.1791
67374W        W10286  11.068  32.496  28.602 -0.2453 -0.2821  0.0009
67375W        W10287  10.581  33.135  28.253  0.0164 -0.3180  0.1910
67376W        W10288  12.498   0.319  28.056 -0.0041 -0.0564  0.0184
67377W        W10289  13.418  32.043  29.214 -0.1368  0.1910  0.0473
67378W        W10290  14.294  33.214  30.748 -0.0119 -0.0251 -0.0597
67379W        W10291  13.077  32.465  30.013  0.3030 -0.1658  0.1873
67380W        W10292  12.951  32.732  30.411  0.2691  0.2346 -0.1615
67381W        W10293  13.875  33.132  29.965 -0.1709 -0.2644  0.0731
67382W        W10294  11.490   0.103  29.750 -0.1054  0.0884 -0.1605
67383W        W10295  15.540  34.248  30.617 -0.1761  0.0854 -0.3449
67384W        W10296  12.024  33.391  30.127 -0.1060 -0.0093 -0.0978
67385W        W10297  10.987  32.055  30.105 -0.2123  0.0563 -0.3565
67386W        W10298  11.931  32.571  28.689  0.0378  0.0160 -0.0119
67387W        W10299  12.687  34.280  27.160 -0.2599 -0.0403 -0.3244
67388W        W10300  14.668  33.259  28.453  0.1437 -0.1108 -0.2695
67389W        W10301  12.478  33.799  30.192 -0.0867  0.0808  0.0280
67390W        W10302  13.059  33.225  28.151  0.1751  0.0247 -0.0148
67391W        W10303  11.123  34.221  30.321 -0.1219  0.0223  0.2142
67392W        W10304  12.586  33.606  27.440  0.1157 -0.2740 -0.3334
67393W        W10305  13.322  34.598  31.200  0.1435  0.0282 -0.1469
67394W        W10306  13.836  31.663  30.560 -0.2247 -0.0546 -0.0131
67395W        W10307  10.759  33.840  30.343 -0.1230  0.1370 -0.1154
67396W        W10308  12.466  32.753  29.334  0.2316 -0.1012 -0.1185
67397W        W10309  14.377  33.244  29.442  0.0087  0.2540 -0.4789
67398W        W10310  12.483  32.935  30.329  0.1527  0.0571  0.0896
67399W        W10311  10.380  33.735  29.769 -0.0847 -0.1285  0.0524
67400W        W10312  15.548  31.987  29.824  0.0847  0.2040  0.0425
67401W        W10313  11.032   0.050  30.042  0.0729 -0.0883  0.0462
67402W        W10314  13.674  32.855  28.734 -0.2514  0.2946 -0.0943
67403W        W10315  11.776   0.150  29.389  0.1321  0.0393 -0.1841
67404W        W10316  13.893  33.739  28.612 -0.1349  0.2537 -0.4264
67405W        W10317  13.031  33.060  30.861  0.0660 -0.2845  0.3285
67406W        W10318  13.455  34.256  27.941  0.1315 -0.1175  0.0235
67407W        W10319  14.813   0.627  30.130  0.2935  0.1429 -0.0143
67408W        W10320  13.941   0.767  27.424 -0.0953  0.1004  0.0020
67409W        W10321  10.980  32.844  28.171  0.1620 -0.0155  0.2096
67410W        W10322  14.087  34.651  28.592 -0.2221 -0.2753  0.1204
67411W        W10323  12.515  34.482  28.798  0.2275  0.2507  0.0717
67412W        W10324  13.453  33.329  30.206  0.1184 -0.1732  0.0530
67413W        W10325  11.005  33.032  27.369 -0.1868  0.1280  0.0121
67414W        W10326  12.611  34.045  31.062  0.0339 -0.3374 -0.1257
67415W        W10327  13.908  34.000  28.032  0.3975 -0.0973  0.0222
67416W        W10328  10.406   0.288  30.856 -0.0086  0.2431  0.1183
67417W        W10329  12.647  34.483  25.945  0.0418  0.3153  0.2597
67418W        W10330  11.039  33.144  29.608 -0.1399 -0.0701  0.3100
67419W        W10331  13.285  33.809  29.636  0.1491  0.0183 -0.1484
67420W        W10332  14.600  32.986  29.820 -0.1822 -0.2556 -0.0400
67421W        W10333  13.706  32.438  29.845  0.0230 -0.2510  0.4861
67422W        W10334  12.622  33.681  28.806  0.2540  0.0789  0.0220
67423W        W10335  11.810  33.355  29.320  0.2289  0.2502  0.1070
67424W        W10336  15.624  32.459  28.942  0.1751 -0.0982 -0.0753
67425W        W10337  12.905  33.339  29.007  0.0061  0.1406  0.1747
67426W        W10338  13.125  33.750  31.526 -0.0628 -0.0487  0.1374
67427W        W10339  11.082  32.234  27.826  0.0184 -0.1892  0.0379
67428W        W10340  13.358  30.633  30.350 -0.0661  0.0215  0.2399
67429W        W10341  11.301  33.051  31.238 -0.2011 -0.0497 -0.0377
67430W        W10342  11.936  34.370  28.437 -0.0319 -0.1411 -0.3165
67431W        W10343  10.766  32.343  29.675  0.1683 -0.0274  0.0046
67432W        W10344  11.204  31.741  29.452 -0.2732 -0.1234 -0.2305
67433W        W10345  11.009  34.260  28.785 -0.1061 -0.0386  0.1952
67434W        W10346  12.328  33.854  27.750 -0.0309 -0.2700  0.0944
67435W        W10347  13.342  32.960   0.913 -0.1339  0.0902  0.1793
67436W        W10348  12.230  32.040  30.747 -0.3667 -0.0794  0.1196
67437W        W10349   9.345  31.886  26.951 -0.5844 -0.1395 -0.3668
67438W        W10350  12.599  34.244  29.258  0.0825  0.0116 -0.5085
67439W        W10351  11.910  31.463  29.647 -0.3384  0.1180 -0.1960
67440W        W10352  14.591  32.701  29.359  0.3038  0.1834  0.0556
67441W        W10353  12.679  33.529  27.970  0.1722 -0.2892 -0.1687
67442W        W10354  11.366  32.420  31.983 -0.0930  0.0592 -0.1603
67443W        W10355  11.983  33.071  28.325  0.1947 -0.2437  0.0054
67444W        W10356  12.989  33.622  26.262 -0.0143 -0.1469  0.0149
67445W        W10357  10.520  34.468  28.679  0.2363  0.2144  0.2364
67446W        W10358  12.081  33.794  26.822 -0.0788  0.1303 -0.1448
67447W        W10359  13.222  34.399  30.370 -0.1605  0.1842  0.0114
67448W        W10360  12.419  34.496  27.836  0.3196 -0.1498  0.0730
67449W        W10361  14.333  33.817  29.356  0.1661  0.0805 -0.1378
67450W        W10362  11.291  31.886  30.478  0.0097 -0.0593  0.1947
67451W        W10363  12.230  34.156  28.112  0.2730  0.0511 -0.1373
67452W        W10364  12.899   0.339  27.765 -0.0334 -0.0561 -0.1780
67453W        W10365  14.023  32.436  30.234 -0.1262  0.1256  0.0717
67454W        W10366  10.819  33.760  29.637  0.0812 -0.0080  0.0397
67455W        W10367  12.250  33.223  28.786 -0.2390  0.4708 -0.1718
67456W        W10368  12.159  34.320  30.058 -0.1377  0.0966  0.2024
67457W        W10369  13.786  34.464  31.721 -0.3436 -0.2377  0.4298
67458W        W10370  12.378  31.881  30.284  0.1461 -0.3348  0.2321
67459W        W10371  14.237  34.109  31.127 -0.0212  0.2114  0.3420
67460W        W10372  13.063  34.110  31.161 -0.3712  0.1771 -0.1196
67461W        W10373  14.804  33.391  31.461 -0.1958  0.0108  0.3047
67462W        W10374  11.226  32.806   0.242 -0.0089  0.3444 -0.0531
67463W        W10375  14.621   1.149  30.823  0.4126  0.0273 -0.0027
67464W        W10376  10.672  32.839  29.789 -0.0270 -0.2132 -0.0643
67465W        W10377   9.855  33.590  31.194  0.0112 -0.0493 -0.1401
67466W        W10378  10.891  32.070  31.074 -0.3209  0.1598  0.0680
67467W        W10379  15.526  34.315  31.282  0.3580 -0.0482  0.2013
67468W        W10380  13.804  33.320  31.115 -0.0071  0.0199 -0.6979
67469W        W10381  13.471  34.298  30.859  0.2960 -0.0559 -0.1801
67470W        W10382  13.474  34.313   1.006  0.0236 -0.1569 -0.1696
67471W        W10383  13.134  33.402   1.040  0.0100 -0.1974 -0.2402
67472W        W10384  13.227  34.380  31.886  0.3195 -0.0350 -0.0883
67473W        W10385  11.845  33.250  31.120  0.1073  0.1825  0.2519
67474W        W10386  13.645  33.879   0.694  0.1079 -0.3669 -0.0511
67475W        W10387  10.409  33.184  31.437 -0.1608  0.0265 -0.3070
67476W        W10388  15.097  34.161  31.057  0.2407  0.1096 -0.2575
67477W        W10389  14.462  33.544  31.063  0.2200  0.4770 -0.0620
67478W        W10390  12.629  32.913  31.757 -0.0739  0.2391  0.1063
67479W        W10391  11.195  33.075   0.710  0.1405 -0.0555 -0.0550
67480W        W10392  11.969  33.717   0.251  0.3517  0.2101 -0.0395
67481W        W10393  12.361  34.472  31.850 -0.0320  0.0437 -0.1141
67482W        W10394  12.973  33.053   0.102 -0.4401  0.2304  0.2208
67483W        W10395  14.793  33.139  31.046  0.2755  0.0259 -0.0368
67484W        W10396  11.710  33.050  31.553 -0.1134 -0.0244  0.0446
67485W        W10397  12.742  34.331  31.601  0.1914 -0.1894  0.0846
67486W        W10398  13.935   0.250  31.583 -0.1075  0.0148 -0.5464
67487W        W10399  11.255  33.783  30.954 -0.3681 -0.0947 -0.1610
67488W        W10400  10.252  32.233  30.504 -0.2076  0.2281 -0.1342
67489W        W10401  13.872   1.390   0.942 -0.0221  0.1271  0.0540
67490W        W10402  15.427   3.415  19.145 -0.0141  0.1057  0.3810
67491W        W10403  15.617   0.951  17.926  0.2922  0.1029  0.2401
67492W        W10404  17.556   0.897  15.817 -0.2340 -0.1684  0.0916
67493W        W10405  19.308   2.983  16.652 -0.1062 -0.3849 -0.0047
67494W        W10406  15.723   1.365  17.006  0.2094 -0.1792  0.0242
67495W        W10407  17.061   3.097  15.473  0.0504 -0.2248  0.0376
67496W        W10408  16.972  33.893  18.509  0.1616  0.1298  0.1472
67497W        W10409  18.842   2.294  18.375  0.1495  0.0494  0.0323
67498W        W10410  18.031   4.249  16.521  0.0980  0.0441  0.0753
67499W        W10411  17.803   3.120  16.630 -0.2252 -0.0127  0.2363
67500W        W10412  16.211   1.774  18.326 -0.0297  0.1052  0.2205
67501W        W10413  16.007   4.060  19.273 -0.2030 -0.1241 -0.0850
67502W        W10414  15.832   0.156  15.937 -0.5457 -0.0136 -0.1152
67503W        W10415  15.127   0.287  17.869 -0.0944  0.0834 -0.3752
67504W        W10416  17.263   2.450  16.986 -0.0698  0.3571 -0.2776
67505W        W10417  14.628   1.517  16.514  0.1103 -0.3010  0.0475
67506W        W10418  17.469   1.623  16.559  0.0621  0.1033  0.1656
67507W        W10419  16.651   0.003  17.601  0.1157  0.0403 -0.1894
67508W        W10420  15.849   3.187  17.737  0.0984  0.0915  0.0585
67509W        W10421  16.456   1.445  17.852 -0.1663 -0.0251  0.0195
67510W        W10422  15.907   1.018  19.474  0.1421  0.2399 -0.0482
67511W        W10423  15.272   3.930  18.549 -0.0865  0.0368 -0.0513
67512W        W10424  13.784   1.040  15.709 -0.0517  0.4870  0.1020
67513W        W10425  16.192   0.894  17.849  0.0930  0.1336  0.1942
67514W        W10426  16.610   4.114  19.215  0.0643  0.7408 -0.0852
67515W        W10427  18.347   0.825  18.651 -0.0103 -0.1297 -0.2524
67516W        W10428  17.225   1.979  17.420  0.0364  0.0809  0.0530
67517W        W10429  15.149   4.947  16.502  0.1468 -0.2433  0.3732
67518W        W10430  17.072   3.762  17.632  0.1012 -0.1099  0.0117
67519W        W10431  18.423   2.756  18.721 -0.0985 -0.2570  0.0751
67520W        W10432  16.696   0.502  17.396 -0.0668 -0.0120 -0.2579
67521W        W10433  14.650   3.848  17.949  0.0125  0.1014 -0.1365
67522W        W10434  14.187   3.763  16.731  0.0501  0.0671  0.3161
67523W        W10435  19.473   4.019  16.231  0.0390 -0.1430  0.0959
67524W        W10436  18.739   4.005  19.400 -0.1799  0.3901 -0.1647
67525W        W10437  15.917   4.086  18.583 -0.0458  0.1593  0.1766
67526W        W10438  14.757   2.946  15.960  0.1278 -0.0836  0.0842
67527W        W10439  15.556   4.839  19.848  0.0518 -0.1278  0.0772
67528W        W10440  16.205   2.359  19.447  0.1467 -0.0742 -0.1410
67529W        W10441  18.466   2.049  19.992 -0.1411 -0.3874  0.0406
67530W        W10442  17.652   1.710  17.224  0.2696  0.0325  0.0462
67531W        W10443  15.882   2.650  17.614  0.0541  0.2094  0.1366
67532W        W10444  16.491   2.806  16.163  0.2759  0.2131 -0.1540
67533W        W10445  16.212   1.341  20.582  0.3380 -0.2946 -0.4295
67534W        W10446  14.161   2.279  17.131  0.0733 -0.0669  0.0764
67535W        W10447  19.762   1.845  19.216  0.0223 -0.2188  0.4243
67536W        W10448  14.487   3.807  15.725 -0.2027 -0.0102 -0.1819
67537W        W10449  17.691   1.496  15.762 -0.0124 -0.1761  0.1304
67538W        W10450  16.395   1.450  16.553  0.0244  0.0446 -0.0228
67539W        W10451  17.142   0.654  15.886  0.2399 -0.0659 -0.0325
67540W        W10452  17.354  34.697  16.887  0.1251  0.1348 -0.0991
67541W        W10453  15.756   3.664  18.447 -0.1499 -0.1897 -0.1172
67542W        W10454  15.757   1.510  19.103 -0.1380 -0.0508 -0.0518
67543W        W10455  17.989   2.698  19.446  0.0634 -0.1256 -0.1576
67544W        W10456  17.260   0.804  17.670 -0.2265 -0.1195  0.1634
67545W        W10457  17.256   1.571  18.197 -0.3501 -0.4437  0.3307
67546W        W10458  16.428   3.103  18.100 -0.0525 -0.0126  0.1103
67547W        W10459  16.155   0.347  17.356 -0.4519  0.1000 -0.2240
67548W        W10460  17.349   3.247  15.928  0.0102  0.0804 -0.0137
67549W        W10461  18.635   3.339  17.118  0.2084 -0.0530  0.0250
67550W        W10462  17.008   2.832  15.960 -0.1936  0.1384 -0.1274
67551W        W10463  16.435   1.629  17.004  0.0933 -0.0275 -0.2608
67552W        W10464  14.669   2.855  19.731  0.1717 -0.3457  0.0458
67553W        W10465  15.925   1.542  19.574 -0.0609  0.0921  0.3933
67554W        W10466  15.860   1.032  15.998  0.0878  0.1424 -0.2445
67555W        W10467  18.991   2.798  18.778 -0.1715  0.0565  0.1966
67556W        W10468  15.475   1.957  19.031 -0.1815 -0.2672  0.5232
67557W        W10469  18.288   0.462  17.088  0.0183  0.2031  0.1600
67558W        W10470  15.053   2.662  18.309 -0.2098  0.1923  0.1799
67559W        W10471  19.179   1.971  18.578  0.2491  0.1419  0.0509
67560W        W10472  17.864   3.020  15.846  0.3722  0.0315  0.2937
67561W        W10473  17.559  34.400  17.833  0.0785 -0.0786 -0.3435
67562W        W10474  17.419   0.590  18.839  0.2982  0.0552  0.1782
67563W        W10475  15.237   2.717  16.154 -0.4710  0.0283  0.0163
67564W        W10476  16.684   2.733  18.510  0.1572  0.1912  0.0225
67565W        W10477  18.915   3.061  17.995  0.1957 -0.0829  0.1218
67566W        W10478  17.410   1.899  15.989  0.3122 -0.3149 -0.0028
67567W        W10479  15.504   4.390  18.524  0.3341  0.1226 -0.0397
67568W        W10480  15.518   2.848  19.826  0.1485  0.0428 -0.0318
67569W        W10481  15.302   2.401  19.080  0.3017 -0.1136 -0.1921
67570W        W10482  14.385   3.739  16.239  0.1792  0.0701 -0.3374
67571W        W10483  14.087   3.975  17.204  0.3702  0.0379 -0.2326
67572W        W10484  15.941   2.510  16.670  0.0117  0.1894 -0.0088
67573W        W10485  16.073  34.350  19.552 -0.1073  0.1686 -0.0146
67574W        W10486  17.584   2.862  19.263  0.0453  0.0541  0.0850
67575W        W10487  17.165  33.840  16.936  0.1188  0.0355  0.0565
67576W        W10488  15.981   0.673  18.196 -0.2652  0.2272  0.0934
67577W        W10489  19.662   0.021  18.549 -0.0706  0.2202 -0.1094
67578W        W10490  14.777   2.486  16.294 -0.0956  0.1275  0.3102
67579W        W10491  18.171   3.610  16.796 -0.2346  0.2010  0.1314
67580W        W10492  17.512   1.069  16.636  0.0132 -0.1647 -0.1965
67581W        W10493  16.187   2.293  16.276 -0.1360 -0.1915 -0.4071
67582W        W10494  14.581   0.262  18.639 -0.2961  0.0779 -0.0089
67583W        W10495  15.614   0.351  17.174 -0.3268  0.2162  0.0677
67584W        W10496  14.196   1.646  19.867 -0.2816  0.2721  0.0786
67585W        W10497  16.866   0.962  17.324 -0.0404 -0.0235 -0.0142
67586W        W10498  19.030   1.091  19.121  0.1386 -0.0572  0.2694
67587W        W10499  15.741   0.621  16.391  0.1597 -0.2251  0.2375
67588W        W10500  16.664   1.210  16.952 -0.1635 -0.2999  0.0796
67589W        W10501  17.232   2.584  17.986  0.3528 -0.0931 -0.0296
67590W        W10502  15.909   2.400  17.189 -0.0946 -0.2240 -0.0633
67591W        W10503  17.032  34.131  19.265 -0.0944 -0.3140 -0.3909
67592W        W10504  16.642   3.611  16.666 -0.3650  0.1094 -0.0405
67593W        W10505  17.756   3.956  17.393  0.4048  0.0861 -0.2090
67594W        W10506  17.347   3.750  17.217  0.1558 -0.0812 -0.1334
67595W        W10507  15.548  34.595  18.171  0.0706  0.2911 -0.2060
67596W        W10508  16.331   1.246  15.995 -0.0935  0.0572  0.5799
67597W        W10509  15.550   2.707  18.543 -0.0425 -0.0220  0.1389
67598W        W10510  17.825   2.099  18.695  0.5008 -0.3736 -0.0725
67599W        W10511  16.384   0.422  16.519  0.0636  0.2027  0.2729
67600W        W10512  19.012   3.793  19.068 -0.1612  0.1606  0.0090
67601W        W10513  16.832   1.691  16.749  0.0742  0.2169 -0.2331
67602W        W10514  15.099   2.568  19.570 -0.3785  0.0470  0.7002
67603W        W10515  18.380  34.672  19.980 -0.2586 -0.1426  0.1049
67604W        W10516  18.844   0.397  19.874  0.2502  0.0132 -0.0561
67605W        W10517  16.897   1.284  16.518  0.2900 -0.0840 -0.0781
67606W        W10518  15.141   0.359  17.134 -0.1594 -0.0724 -0.1286
67607W        W10519  17.090   3.273  17.312 -0.2187 -0.1660 -0.1375
67608W        W10520  13.489   2.439  16.822 -0.2191 -0.0952  0.0719
67609W        W10521  15.638   1.681  17.613 -0.3408 -0.1753 -0.0179
67610W        W10522  17.217   1.959  18.483  0.1941 -0.2418  0.1603
67611W        W10523  18.033   0.225  16.090 -0.1118  0.0906  0.3567
67612W        W10524  14.531   2.326  18.102 -0.1285 -0.1543 -0.0092
67613W        W10525  17.949   0.798  19.605 -0.0499 -0.4441 -0.1326
67614W        W10526  15.066   1.870  16.879  0.1972 -0.2394 -0.1784
67615W        W10527  16.324   2.517  18.820  0.1828 -0.0271  0.1757
67616W        W10528  16.837   0.381  16.656  0.0378  0.0726 -0.1788
67617W        W10529  17.876   0.148  16.922  0.0931  0.2969 -0.0082
67618W        W10530  16.121   2.817  19.673 -0.3648  0.0246 -0.3687
67619W        W10531  17.863   1.976  15.669  0.4002  0.1384  0.2000
67620W        W10532  17.649   0.682  16.314  0.0799  0.1378  0.2734
67621W        W10533  17.949  34.686  15.598 -0.0750  0.1430 -0.2688
67622W        W10534  14.331   2.108  20.070  0.3485  0.0715  0.2335
67623W        W10535  16.692   2.363  16.290  0.0570 -0.0279 -0.0468
67624W        W10536  16.904   2.828  17.575  0.1590  0.0204  0.0245
67625W        W10537  16.651   1.641  16.128 -0.2678  0.3709  0.1233
67626W        W10538  18.683   3.000  16.071  0.0942  0.1919  0.0020
67627W        W10539  14.674   2.836  16.909  0.0568  0.3517 -0.0806
67628W        W10540  16.667   1.554  19.117 -0.2970 -0.1698  0.2145
67629W        W10541  16.702   3.327  17.632 -0.1128  0.1751 -0.0572
67630W        W10542  15.995   0.765  19.894  0.2134  0.1557  0.0806
67631W        W10543  16.611   0.691  16.971  0.0822 -0.2346  0.1933
67632W        W10544  17.061   0.871  16.796  0.0738 -0.0208  0.0334
67633W        W10545  13.965   4.266  15.952 -0.0999 -0.4455 -0.2673
67634W        W10546  17.972   0.237  18.238  0.0143  0.1524  0.2159
67635W        W10547  15.745  34.168  18.315  0.2393 -0.0664 -0.1537
67636W        W10548  15.669   0.416  18.559  0.0774 -0.1878  0.0199
67637W        W10549  18.286   0.644  19.201  0.4063  0.0683 -0.0072
67638W        W10550  18.634   1.423  16.743 -0.1896  0.0768 -0.1074
67639W        W10551  18.306   1.789  19.110 -0.0993  0.3095 -0.1082
67640W        W10552  16.046   1.043  16.479  0.0794  0.0800  0.0895
67641W        W10553  15.610  34.283  17.789  0.0163  0.2789 -0.1802
67642W        W10554  15.557   1.373  19.852  0.2471 -0.0375 -0.0280
67643W        W10555  15.407   2.657  17.072 -0.0832 -0.1302 -0.1810
67644W        W10556  17.899   3.808  18.273 -0.1437 -0.1758  0.0915
67645W        W10557  17.484   2.163  16.534  0.1764 -0.0130 -0.1494
67646W        W10558  17.099   0.904  20.915 -0.2287  0.0608  0.2274
67647W        W10559  16.371   0.958  15.554  0.2194  0.1904  0.0304
67648W        W10560  15.582   3.565  17.252 -0.1329 -0.1555  0.1180
67649W        W10561  16.252   3.570  17.763  0.0054 -0.2222 -0.0844
67650W        W10562  16.311   0.768  19.170  0.2877 -0.0382  0.3631
67651W        W10563  17.377   2.466  17.510  0.1962 -0.2262 -0.2064
67652W        W10564  16.584   2.913  15.695  0.0278 -0.0186  0.1445
67653W        W10565  17.816   3.342  18.105  0.0957 -0.1221 -0.0527
67654W        W10566  16.555   2.682  16.672  0.1493  0.1542 -0.3146
67655W        W10567  18.330  34.496  18.175 -0.0576 -0.2871  0.2022
67656W        W10568  13.877   1.937  18.332 -0.1858  0.1709  0.0414
67657W        W10569  16.117  34.356  16.735 -0.1022 -0.0014 -0.1487
67658W        W10570  15.807   2.028  16.484  0.1143 -0.2993  0.0422
67659W        W10571  16.594   0.859  16.476  0.0408 -0.1523  0.1955
67660W        W10572  17.953   2.780  16.284 -0.0188 -0.0490 -0.1146
67661W        W10573  14.405   0.659  18.432 -0.0354  0.3097  0.1428
67662W        W10574  17.881   0.622  18.608 -0.1546 -0.0123  0.1288
67663W        W10575  15.241   3.456  18.648 -0.0115 -0.0384  0.1290
67664W        W10576  16.916  34.415  18.326 -0.0487  0.3379 -0.1286
67665W        W10577  16.717   0.558  16.108  0.0993  0.3712  0.5134
67666W        W10578  17.932   1.578  18.209  0.0736 -0.0088  0.0486
67667W        W10579  16.371   1.138  18.298 -0.0771 -0.0276  0.1432
67668W        W10580  14.145   0.922  16.043  0.0594  0.2694  0.2009
67669W        W10581  18.727   1.866  17.793 -0.1209 -0.0521  0.0941
67670W        W10582  17.888   1.040  17.038  0.0346 -0.0772  0.0038
67671W        W10583  15.756   2.521  16.233  0.5269  0.1836 -0.1269
67672W        W10584  17.147   1.609  18.799  0.1022  0.1014 -0.1508
67673W        W10585  15.222   2.219  16.349 -0.0256  0.1083 -0.0605
67674W        W10586  15.359   2.617  17.563  0.1584  0.3095 -0.1087
67675W        W10587  14.385   1.053  18.791  0.0720  0.1602 -0.0208
67676W        W10588  18.709   0.531  18.889 -0.0455  0.0251  0.0127
67677W        W10589  17.599   1.196  18.003  0.0800 -0.0187 -0.2060
67678W        W10590  18.054   0.348  17.515 -0.1872 -0.2451 -0.0490
67679W        W10591  17.526   0.395  17.311 -0.1508 -0.4731  0.2196
67680W        W10592  17.404   3.155  18.383  0.0826 -0.0778  0.2271
67681W        W10593  17.108   0.283  19.041  0.1085  0.0419 -0.0097
67682W        W10594  14.744   3.564  18.604  0.2056  0.1185 -0.0682
67683W        W10595  15.628   0.127  17.653  0.0499  0.0625 -0.2266
67684W        W10596  17.718   3.449  17.047 -0.1396 -0.1289 -0.1397
67685W        W10597  18.947   2.198  17.449 -0.0964  0.1558  0.0288
67686W        W10598  16.077   2.972  16.988  0.0530 -0.0954 -0.1995
67687W        W10599  16.024   1.917  17.793 -0.1076 -0.0079 -0.0483
67688W        W10600  15.920   2.421  18.108  0.1536  0.1122 -0.0002
67689W        W10601  15.509   0.849  19.745 -0.2758 -0.1276  0.2464
67690W        W10602  15.609   2.794  18.027 -0.0958  0.0828 -0.0013
67691W        W10603  16.333   2.197  16.946  0.1770  0.2082 -0.3549
67692W        W10604  15.676   1.816  18.090 -0.1259 -0.2790  0.2764
67693W        W10605  18.857   0.387  16.893  0.1323 -0.3616 -0.2215
67694W        W10606  17.184   2.309  16.137  0.1382  0.1251 -0.2343
67695W        W10607  16.189   0.165  16.913  0.3898 -0.5242 -0.0767
67696W        W10608  18.398   0.106  19.059  0.1650  0.1228 -0.0110
67697W        W10609  16.617   2.598  17.196 -0.1564 -0.2613  0.0341
67698W        W10610  17.566   0.599  19.875  0.1468  0.0051 -0.0366
67699W        W10611  15.801   1.635  18.582  0.4172  0.3435  0.0830
67700W        W10612  17.682   2.111  17.632  0.0023 -0.1282  0.0277
67701W        W10613  15.737   0.830  18.968  0.3071  0.1021 -0.1906
67702W        W10614  15.853   1.661  20.382 -0.1958 -0.0608 -0.2594
67703W        W10615  14.620   1.802  19.723  0.0699 -0.1411 -0.2715
67704W        W10616  16.777   1.027  15.945 -0.0721  0.0462 -0.0202
67705W        W10617  15.290   0.073  15.836  0.0737  0.1162 -0.1406
67706W        W10618  17.090   1.198  17.867 -0.0035  0.0133 -0.2858
67707W        W10619  17.276   3.424  17.982 -0.1526 -0.1455 -0.2735
67708W        W10620  15.550   2.232  16.853 -0.1540 -0.0907  0.0178
67709W        W10621  18.370   0.730  17.648  0.0376 -0.0213  0.0492
67710W        W10622  14.959   1.981  18.897  0.0834  0.0484 -0.2164
67711W        W10623  17.624   1.257  16.198  0.0303 -0.2381 -0.0119
67712W        W10624  15.893   3.826  16.195  0.4712 -0.2717  0.0148
67713W        W10625  15.681   2.991  17.324  0.1245 -0.4601  0.0382
67714W        W10626  15.720  32.608  18.954 -0.0058 -0.0697 -0.0407
67715W        W10627  17.635   0.199  17.805  0.0821 -0.2674  0.0977
67716W        W10628  17.317   1.309  17.421  0.1499  0.2720 -0.0187
67717W        W10629  17.145   0.263  17.648  0.1241 -0.1146  0.1996
67718W        W10630  17.601   1.660  18.577  0.1540  0.2793  0.0200
67719W        W10631  16.318   1.811  19.392  0.0035 -0.0474 -0.0058
67720W        W10632  13.416   0.743  18.953  0.0268 -0.4431 -0.3755
67721W        W10633  18.430   3.957  18.350 -0.3649 -0.1524 -0.0732
67722W        W10634  18.402   0.878  15.797  0.3809  0.0460 -0.1221
67723W        W10635  18.744   0.078  18.266 -0.3004 -0.1818 -0.4452
67724W        W10636  18.942   0.997  17.619 -0.0949 -0.3343 -0.0572
67725W        W10637  15.204   3.198  16.038 -0.3453  0.0573  0.0168
67726W        W10638  16.987   0.588  18.616  0.1325 -0.0955 -0.3418
67727W        W10639  16.617   1.444  19.770  0.1651  0.0173 -0.0730
67728W        W10640  15.729  34.426  16.238  0.0266 -0.0470 -0.2272
67729W        W10641  16.827   1.767  19.529  0.0001  0.0588  0.0559
67730W        W10642  16.777   3.119  16.536  0.1859  0.3008  0.0330
67731W        W10643  17.000   2.879  16.960  0.3436 -0.3012  0.0892
67732W        W10644  18.058   0.967  16.213  0.1336  0.0866  0.0732
67733W        W10645  14.871   0.678  16.637  0.0094  0.0152  0.0546
67734W        W10646  14.672   2.947  20.302 -0.1870  0.0037 -0.0360
67735W        W10647  15.977   0.178  16.450  0.0339  0.2222  0.2901
67736W        W10648  16.095   1.672  16.128  0.1916  0.1652  0.3212
67737W        W10649  16.246   1.773  19.995 -0.0411  0.0608  0.1983
67738W        W10650  17.408  34.564  19.110  0.0046 -0.1833 -0.0642
67739W        W10651  17.652   0.165  16.480 -0.2906  0.1266 -0.1362
67740W        W10652  17.769  33.951  18.037 -0.0309  0.0074 -0.0110
67741W        W10653  14.186   2.777  16.516 -0.0111 -0.2446  0.1453
67742W        W10654  17.402   0.865  17.186 -0.0793  0.0118  0.0637
67743W        W10655  13.984   3.587  18.116 -0.0845  0.0778 -0.1064
67744W        W10656  14.355   1.517  18.837  0.1196  0.2058  0.2250
67745W        W10657  14.747   1.790  17.812  0.0274  0.3029 -0.2874
67746W        W10658  17.072   1.166  18.917 -0.1330 -0.2447  0.0075
67747W        W10659  17.322  34.679  18.176  0.1508 -0.2505 -0.0464
67748W        W10660  17.691   2.220  17.017 -0.3331 -0.3493  0.0477
67749W        W10661  18.370   2.263  18.896 -0.1165  0.2487 -0.0637
67750W        W10662  17.460   2.350  18.414 -0.0010 -0.1416  0.0390
67751W        W10663  16.964   1.025  18.401 -0.3298 -0.4474 -0.1881
67752W        W10664  18.414   3.610  19.330  0.1476  0.2051  0.0320
67753W        W10665  17.907   2.560  17.516 -0.2510 -0.2982 -0.0605
67754W        W10666  16.846   2.226  18.270 -0.0873  0.0766  0.1952
67755W        W10667  15.835   1.197  18.412 -0.0057  0.1076  0.0305
67756W        W10668  16.692   2.241  20.843 -0.1883  0.0747 -0.2861
67757W        W10669  18.036   1.663  17.711 -0.1767 -0.3896 -0.0515
67758W        W10670  16.339   0.301  15.908  0.1148  0.1298 -0.0438
67759W        W10671  17.545   3.156  15.396  0.1247  0.1181  0.1350
67760W        W10672  14.226   2.764  20.418 -0.1776  0.2400 -0.1632
67761W        W10673  15.846   2.432  18.939 -0.1734  0.1865 -0.0457
67762W        W10674  14.441   4.167  16.861  0.1855  0.3514 -0.0469
67763W        W10675  18.062   1.992  17.234 -0.3881  0.1951  0.2585
67764W        W10676  17.008   2.718  16.462  0.3221  0.2241 -0.1070
67765W        W10677  16.693   3.597  18.061  0.1940  0.2159  0.0258
67766W        W10678  17.141   1.393  15.979  0.0868  0.2319  0.4207
67767W        W10679  15.051   3.573  17.225  0.0559  0.1163 -0.2277
67768W        W10680  13.908   3.035  15.913  0.1229 -0.0172 -0.3085
67769W        W10681  17.489   2.942  17.056 -0.1671  0.2578 -0.0880
67770W        W10682  15.976   4.521  17.699 -0.2550 -0.0198 -0.2851
67771W        W10683  16.569   2.138  19.814 -0.1863  0.1713  0.2148
67772W        W10684  17.999   0.643  16.734 -0.0011 -0.1684 -0.1357
67773W        W10685  19.078   1.643  17.479 -0.2982 -0.2304 -0.1459
67774W        W10686  18.939   1.238  17.205 -0.1996  0.2543 -0.1177
67775W        W10687  17.037   2.678  19.117 -0.0083 -0.1687 -0.2052
67776W        W10688  16.650   0.907  17.929  0.1434 -0.2651 -0.0545
67777W        W10689  16.107  34.599  15.565  0.2152  0.0036  0.1112
67778W        W10690  15.072   1.099  19.930 -0.3547  0.0254  0.0394
67779W        W10691  18.594   1.599  19.839 -0.0000 -0.0443  0.1575
67780W        W10692  15.076   3.275  20.096  0.1213 -0.0719 -0.1562
67781W        W10693  18.280   4.114  15.939  0.1750 -0.1796  0.3099
67782W        W10694  15.463   1.784  17.146 -0.0229  0.1003  0.2049
67783W        W10695  18.443   2.038  18.216 -0.2854  0.2248 -0.2618
67784W        W10696  18.554   0.048  20.526 -0.0347 -0.1998  0.0475
67785W        W10697  17.041   1.918  16.374  0.1956  0.2556 -0.2325
67786W        W10698  16.065  33.401  17.821  0.0350 -0.3725  0.0741
67787W        W10699  16.795   2.032  17.198  0.1824  0.2537  0.0003
67788W        W10700  16.262   3.695  17.039 -0.3475 -0.1147 -0.0530
67789W        W10701  14.018   3.094  17.956 -0.2729 -0.4774  0.1284
67790W        W10702  14.593   1.176  15.854  0.0475  0.5242  0.0881
67791W        W10703  18.071   1.167  17.892 -0.3275 -0.1299 -0.0621
67792W        W10704  16.505   0.548  18.295 -0.1065  0.3506 -0.0890
67793W        W10705  17.090  34.541  17.323 -0.0425 -0.1136 -0.1015
67794W        W10706  16.510   2.016  17.975 -0.0953 -0.1854 -0.1120
67795W        W10707  18.567   0.585  16.366  0.2984  0.0822  0.0712
67796W        W10708  16.731   1.764  20.669  0.1010 -0.2477  0.0469
67797W        W10709  15.566   1.028  20.236  0.1084 -0.1908 -0.0422
67798W        W10710  15.615   2.436  15.604  0.1168 -0.0599 -0.0277
67799W        W10711  17.851   0.873  19.083 -0.0066  0.3320 -0.1766
67800W        W10712  16.502   1.973  16.493  0.1504 -0.0613 -0.0101
67801W        W10713  16.925   3.049  18.173 -0.1086 -0.1059 -0.0597
67802W        W10714  15.989   1.354  17.903  0.0024  0.3145  0.1050
67803W        W10715  16.825   1.556  17.317 -0.0965  0.0234  0.1535
67804W        W10716  16.880   1.740  17.784 -0.0361 -0.2912  0.0175
67805W        W10717  17.450   1.169  18.460 -0.3514 -0.1321 -0.3208
67806W        W10718  16.839   3.861  19.533 -0.0902 -0.0164  0.0236
67807W        W10719  14.452   1.035  17.463  0.4173 -0.0327  0.3915
67808W        W10720  17.740   2.271  16.085  0.3639 -0.0428 -0.0031
67809W        W10721  18.479   1.197  17.590 -0.1405 -0.3072  0.0924
67810W        W10722  14.928   2.353  16.874 -0.2270 -0.0699  0.0965
67811W        W10723  16.933   2.452  15.635  0.3068  0.0066  0.0518
67812W        W10724  18.613   2.764  18.241  0.3196 -0.1528 -0.3373
67813W        W10725  16.705   1.542  18.299 -0.0294 -0.0019 -0.0641
67814W        W10726  17.391   3.885  18.011 -0.3571 -0.2173  0.1340
67815W        W10727  17.991   2.057  18.059  0.0107  0.2917  0.0320
67816W        W10728  16.491  34.153  16.271 -0.1663 -0.0400 -0.0419
67817W        W10729  16.378   2.323  18.351  0.3633  0.0928  0.2176
67818W        W10730  16.529   3.206  17.152  0.1575  0.0559 -0.2659
67819W        W10731  18.226   0.280  16.539  0.0340 -0.1247  0.2109
67820W        W10732  18.096   1.331  19.042 -0.0133  0.2737  0.4798
67821W        W10733  15.147   3.635  16.783  0.0811  0.0854  0.2138
67822W        W10734  16.897   0.716  19.165 -0.0951 -0.4498 -0.1474
67823W        W10735  16.680   3.339  18.481 -0.0589 -0.0101  0.1256
67824W        W10736  14.414   3.076  20.719  0.1268 -0.1407  0.4314
67825W        W10737  14.641   2.001  16.458 -0.2427  0.2945  0.2432
67826W        W10738  16.021   1.095  21.007  0.0518 -0.1830  0.0130
67827W        W10739  17.201   1.955  16.903 -0.0928  0.0548 -0.0073
67828W        W10740  17.600   2.915  17.857  0.1577  0.1140  0.2287
67829W        W10741  17.722   2.438  18.032 -0.3731  0.1190 -0.0729
67830W        W10742  16.815   0.175  18.057  0.3503 -0.1524 -0.0943
67831W        W10743  17.539   3.682  16.567 -0.0261 -0.1687 -0.2645
67832W        W10744  17.909   1.835  16.722  0.0646 -0.0006 -0.0116
67833W        W10745  19.670  34.144  17.349  0.1097  0.0305 -0.2903
67834W        W10746  18.064  34.541  16.404  0.0575  0.1907 -0.3210
67835W        W10747  15.756   3.111  19.464 -0.1271  0.0020 -0.0156
67836W        W10748  13.917   2.376  16.572  0.0755  0.0837 -0.0288
67837W        W10749  15.390   3.629  16.170 -0.1439 -0.0813  0.1398
67838W        W10750  16.708   1.920  18.667 -0.0274  0.0276 -0.0170
67839W        W10751  16.290   1.520  18.754  0.4148  0.1251 -0.3655
67840W        W10752  15.487   2.178  19.554 -0.1975 -0.2563 -0.1070
67841W        W10753  14.852   2.128  18.407 -0.0685  0.4077 -0.1940
67842W        W10754  15.529   1.007  16.654  0.0544 -0.0617 -0.0058
67843W        W10755  17.724   3.331  16.228  0.2219 -0.1090 -0.0867
67844W        W10756  17.228   1.393  16.951 -0.2159  0.1441  0.1111
67845W        W10757  15.232   0.910  17.077 -0.5423 -0.0027 -0.1612
67846W        W10758  18.237   1.660  16.424  0.1255  0.1112  0.1212
67847W        W10759  17.921   3.021  17.473 -0.2482  0.0435  0.2288
67848W        W10760  16.711  34.669  16.117 -0.3658 -0.1080  0.2159
67849W        W10761  17.937   2.589  18.824 -0.1695  0.1064  0.0299
67850W        W10762  16.047   3.015  15.964 -0.2228  0.0471 -0.1597
67851W        W10763  15.859   1.968  19.286 -0.1429 -0.0047 -0.0770
67852W        W10764  16.494   0.553  20.053  0.3274  0.2494  0.4025
67853W        W10765  15.233   1.413  16.911 -0.0806  0.1256  0.1829
67854W        W10766  16.368   0.421  17.863  0.0419  0.0789  0.0986
67855W        W10767  17.369   4.204  17.011 -0.2331 -0.3613  0.1328
67856W        W10768  17.004   3.657  16.373 -0.3739  0.3577  0.0126
67857W        W10769  17.174   2.042  19.075  0.1878  0.2459 -0.2283
67858W        W10770  14.859   4.210  19.298 -0.2111  0.2036 -0.1204
67859W        W10771  16.014  33.735  18.255  0.2664  0.4308  0.2529
67860W        W10772  17.552   2.661  16.615 -0.2132  0.1127 -0.0409
67861W        W10773  16.185   2.018  18.923 -0.1583  0.0432 -0.1909
67862W        W10774  17.893   2.769  15.291  0.2725  0.2920  0.0705
67863W        W10775  17.830   1.293  17.437 -0.1036  0.0953  0.3325
67864W        W10776  17.985   1.119  15.643  0.0484  0.4264 -0.1264
67865W        W10777  15.413   0.900  18.412  0.0809  0.1562 -0.1119
67866W        W10778  16.917   2.339  18.766 -0.0788  0.0332  0.1520
67867W        W10779  18.424   1.890  16.856 -0.0518 -0.1969 -0.0792
67868W        W10780  16.529  34.654  16.629  0.0356  0.1883 -0.1041
67869W        W10781  18.181   1.588  15.930  0.0740  0.2848 -0.4013
67870W        W10782  16.071   2.540  15.755  0.2445 -0.1234  0.3625
67871W        W10783  16.635   2.642  17.962 -0.2005  0.0260 -0.0227
67872W        W10784  16.075   0.646  16.852 -0.1994  0.0440  0.1493
67873W        W10785  16.261   1.305  19.242  0.2502 -0.0693 -0.1699
67874W        W10786  16.866   2.290  16.757  0.0065 -0.0121 -0.4361
67875W        W10787  17.718   1.281  19.442  0.0066  0.1323 -0.2768
67876W        W10788  16.422   1.781  17.479  0.1370  0.3653 -0.0052
67877W        W10789  18.608   1.844  16.121 -0.0872 -0.1594 -0.0116
67878W        W10790  17.151   2.721  18.530  0.0639 -0.0522 -0.0627
67879W        W10791  18.121   3.284  20.423  0.2516 -0.1145 -0.5065
67880W        W10792  17.459   2.484  18.934  0.2240  0.2533 -0.3073
67881W        W10793  18.171   1.761  18.607  0.4263  0.2013 -0.0213
67882W        W10794  15.966   0.216  18.052 -0.0173  0.1062  0.0268
67883W        W10795  16.394   0.912  17.354  0.1666  0.1041 -0.0189
67884W        W10796  17.495   1.650  17.743  0.0204  0.0867  0.1046
67885W        W10797  17.999   1.246  18.596  0.0674  0.0667  0.6409
67886W        W10798  16.221   0.220  18.489  0.0820 -0.1712  0.1539
67887W        W10799  17.772   0.761  17.602 -0.0467 -0.1587 -0.1726
67888W        W10800  15.050   3.150  18.102  0.0766 -0.0801 -0.1178
67889W        W10801  18.754   1.089  18.531  0.0563 -0.2755  0.0506
67890W        W10802  14.975   2.310  22.265  0.1505  0.0512  0.3016
67891W        W10803  15.802   0.070  19.360 -0.2180  0.2036  0.0143
67892W        W10804  16.784   0.747  20.506  0.2922  0.0521 -0.0451
67893W        W10805  18.700   1.430  19.256  0.0105  0.1346 -0.0486
67894W        W10806  14.326   0.547  20.367 -0.1053 -0.1250  0.0969
67895W        W10807  17.824   3.007  20.892  0.0396 -0.1767  0.0697
67896W        W10808  14.246  33.809  21.600  0.0413 -0.0566 -0.2507
67897W        W10809  19.068   2.590  21.339  0.0048 -0.0874  0.1857
67898W        W10810  18.057   3.506  22.437  0.0339  0.3618  0.2224
67899W        W10811  17.380   0.880  19.241  0.0723 -0.1329  0.0890
67900W        W10812  15.753   2.779  22.626 -0.0268 -0.1657 -0.0033
67901W        W10813  15.534   2.552  20.929  0.2351 -0.0523  0.0696
67902W        W10814  14.999  33.992  20.345 -0.4134  0.0073  0.0640
67903W        W10815  15.361  34.653  22.431 -0.0346 -0.1889 -0.0702
67904W        W10816  17.107   0.462  21.920  0.4467  0.1430  0.1566
67905W        W10817  16.178   3.203  18.806  0.0465  0.0074  0.1172
67906W        W10818  15.914   1.525  21.858 -0.3070 -0.1478 -0.2660
67907W        W10819  15.171   0.241  20.224 -0.1406  0.3309 -0.1718
67908W        W10820  17.608   4.165  21.316  0.3590  0.4334 -0.0417
67909W        W10821  16.088   1.468  22.402 -0.0939 -0.2654 -0.0661
67910W        W10822  15.102   0.580  22.525 -0.1971  0.1233  0.0376
67911W        W10823  15.891   2.226  21.395  0.1507 -0.0143 -0.3059
67912W        W10824  13.983   1.119  19.177 -0.0912 -0.0381  0.2973
67913W        W10825  13.481   2.314  21.227 -0.2288 -0.0295 -0.0506
67914W        W10826  15.810   1.843  22.295 -0.4034  0.1039  0.0667
67915W        W10827  16.970   1.363  21.159  0.1149 -0.1306 -0.3420
67916W        W10828  16.931   1.124  20.069 -0.2639  0.1966  0.0982
67917W        W10829  14.995   2.575  21.750 -0.0368 -0.1908  0.1833
67918W        W10830  15.816   3.067  22.158  0.2611  0.2195  0.1319
67919W        W10831  17.093   1.221  23.887  0.0051 -0.1960 -0.0483
67920W        W10832  15.002   1.700  20.933 -0.2482 -0.2093  0.0553
67921W        W10833  14.577   3.663  20.668  0.1529 -0.3323 -0.0619
67922W        W10834  17.632   2.444  20.671 -0.1600 -0.3447 -0.0619
67923W        W10835  19.081   2.567  20.459  0.3274  0.0103  0.0305
67924W        W10836  18.568   1.551  20.316 -0.2852  0.2660 -0.0015
67925W        W10837  15.485   4.236  24.438 -0.0573  0.3116 -0.3063
67926W        W10838  13.728   3.287  19.832 -0.0944  0.0546  0.2179
67927W        W10839  16.201   1.473  24.157 -0.0974 -0.1359  0.2246
67928W        W10840  15.865   3.485  23.750  0.3252 -0.0370 -0.0007
67929W        W10841  16.344   1.835  22.065  0.2065 -0.2509 -0.4758
67930W        W10842  17.954   1.695  22.824 -0.2904  0.0878  0.2166
67931W        W10843  15.066   3.765  19.699  0.4757  0.2462 -0.0939
67932W        W10844  16.527   2.239  20.390  0.1399  0.1904  0.1313
67933W        W10845  14.590   1.210  24.195 -0.1048 -0.3166  0.0473
67934W        W10846  13.910   2.337  22.096  0.2172 -0.0928 -0.0218
67935W        W10847  17.896   0.626  22.093  0.0743  0.5106  0.3359
67936W        W10848  14.634   2.391  20.343 -0.0347 -0.1535  0.1024
67937W        W10849  16.974   0.292  20.490 -0.5461 -0.1479  0.0195
67938W        W10850  16.112   0.333  19.664  0.1288  0.4018 -0.0640
67939W        W10851  17.702   0.104  19.806  0.0488 -0.0216 -0.1623
67940W        W10852  14.476  34.617  21.139 -0.0471  0.1161 -0.0495
67941W        W10853  14.340   4.200  22.008 -0.2037 -0.1949 -0.0910
67942W        W10854  16.227   0.667  20.940 -0.0683 -0.3462 -0.2490
67943W        W10855  18.142   2.121  22.477 -0.0698  0.0678 -0.2633
67944W        W10856  17.400   1.023  21.297  0.0814  0.1647 -0.1654
67945W        W10857  16.661   1.602  22.439  0.0406  0.1754  0.0209
67946W        W10858  15.079   2.310  24.010 -0.2819 -0.3387  0.1332
67947W        W10859  14.692   1.321  21.097 -0.1707 -0.0185 -0.2401
67948W        W10860  17.984   3.248  19.416  0.1468 -0.0981  0.3345
67949W        W10861  16.447   3.652  19.920 -0.2139  0.3639 -0.0514
67950W        W10862  16.441   3.202  19.450  0.2252  0.0256  0.2948
67951W        W10863  15.445   1.475  21.117 -0.1672 -0.1513  0.1095
67952W        W10864  16.529   0.803  21.975  0.2062  0.1752  0.0935
67953W        W10865  14.638   1.327  23.130  0.0793 -0.0738  0.2569
67954W        W10866  16.017   0.872  20.562  0.1565 -0.1434  0.2526
67955W        W10867  17.999   4.055  21.917 -0.2271  0.0566  0.3330
67956W        W10868  14.607   2.206  22.638 -0.2109 -0.2844  0.0699
67957W        W10869  16.777   0.451  20.978  0.3237 -0.0958 -0.0227
67958W        W10870  15.038   1.968  19.428 -0.0645  0.2570 -0.1168
67959W        W10871  17.667   2.684  19.840 -0.0341 -0.0477 -0.1954
67960W        W10872  17.077   3.182  19.353  0.0684  0.0564 -0.0840
67961W        W10873  16.562   0.061  21.231  0.2524  0.0336 -0.2422
67962W        W10874  16.887   1.199  21.962  0.0009  0.1368  0.1037
67963W        W10875  15.663   2.600  19.428 -0.1759  0.0667  0.0170
67964W        W10876  16.671   1.574  21.581  0.0836  0.0655  0.1399
67965W        W10877  18.517   3.912  20.972  0.0623 -0.1674  0.0540
67966W        W10878  17.366   1.887  19.546 -0.2090  0.0622 -0.3410
67967W        W10879  14.508   1.684  21.471 -0.1565  0.0649 -0.2360
67968W        W10880  15.172  34.495  21.829 -0.0435 -0.0767  0.1444
67969W        W10881  15.951   3.586  21.320 -0.4370  0.1241  0.0463
67970W        W10882  14.719   3.424  19.800  0.0062 -0.1943 -0.1306
67971W        W10883  13.732   1.863  22.128  0.2998  0.0181 -0.1533
67972W        W10884  15.028   1.550  21.443  0.3730 -0.3158 -0.0777
67973W        W10885  15.000   1.457  22.766  0.2234 -0.0716  0.2061
67974W        W10886  15.316   1.689  22.207  0.0567  0.0188  0.2832
67975W        W10887  18.830  33.946  21.582 -0.0417  0.2266 -0.2138
67976W        W10888  14.519   0.281  21.914 -0.1218  0.4314  0.0218
67977W        W10889  17.888   0.237  21.475 -0.0749  0.1334 -0.0955
67978W        W10890  15.046   2.135  20.320 -0.1883 -0.0825 -0.0413
67979W        W10891  17.833   3.559  19.919  0.2009  0.0429  0.2009
67980W        W10892  17.521   2.386  19.394 -0.1479 -0.1797 -0.6057
67981W        W10893  17.166   1.459  19.286 -0.1082  0.4130 -0.0321
67982W        W10894  13.643   1.415  21.931  0.1848 -0.1203 -0.0604
67983W        W10895  14.793   0.878  20.868  0.2938 -0.2201  0.1185
67984W        W10896  15.153   1.239  20.788 -0.1341  0.0422 -0.1521
67985W        W10897  14.879   0.663  21.968  0.1067 -0.0922 -0.2009
67986W        W10898  17.521   2.510  22.569 -0.3779  0.0845  0.0958
67987W        W10899  15.675   0.531  19.422  0.0590  0.1383  0.3172
67988W        W10900  16.629   2.069  21.729 -0.0757  0.0175  0.1521
67989W        W10901  15.962   2.020  21.856 -0.0613 -0.3015 -0.1233
67990W        W10902  14.153   1.648  19.311 -0.3191 -0.1536 -0.0994
67991W        W10903  15.753   0.021  22.041  0.0182 -0.0755  0.0714
67992W        W10904  15.777   3.283  20.292  0.0408 -0.1426  0.3422
67993W        W10905  18.336   1.866  21.047 -0.1291 -0.2223 -0.2205
67994W        W10906  16.507   4.234  20.787  0.0370  0.2157  0.3066
67995W        W10907  15.383   0.933  22.670  0.3803  0.0254  0.0666
67996W        W10908  15.600   0.382  19.869  0.2287 -0.1667  0.2007
67997W        W10909  15.414   2.497  23.706  0.0462  0.1599  0.1247
67998W        W10910  15.514   2.279  20.459  0.2135  0.1118  0.0191
67999W        W10911  15.565   0.550  20.362 -0.0751 -0.0851  0.2025
68000W        W10912  17.793   3.403  21.973  0.2955  0.0018  0.0482
68001W        W10913  18.046   1.223  22.621 -0.0787  0.2788  0.3006
68002W        W10914  14.568   1.147  22.106 -0.2258  0.1558  0.1144
68003W        W10915  18.233   1.167  23.552  0.1020  0.1820  0.5317
68004W        W10916  17.712   1.376  21.581  0.2073 -0.2072  0.1580
68005W        W10917  15.883   2.304  22.561 -0.1161  0.1587 -0.0290
68006W        W10918  16.153   0.837  18.655  0.2083 -0.2484  0.1690
68007W        W10919  17.414   2.743  21.004 -0.2410  0.1048 -0.0849
68008W        W10920  14.429   3.884  20.019  0.3134 -0.2564  0.3889
68009W        W10921  13.422   0.935  20.997 -0.0914 -0.0681 -0.1039
68010W        W10922  15.386   2.333  19.998 -0.0269 -0.0486  0.1345
68011W        W10923  17.210   1.452  20.358  0.1619  0.0229  0.1976
68012W        W10924  13.947   1.401  23.827  0.1068 -0.0278  0.0348
68013W        W10925  17.188   1.913  22.401 -0.0962 -0.3830 -0.0248
68014W        W10926  14.305   1.306  20.301 -0.2277 -0.0482 -0.5106
68015W        W10927  13.783   0.666  23.164 -0.0803  0.1185 -0.0420
68016W        W10928  16.206  34.028  20.317  0.0345  0.1405  0.0456
68017W        W10929  17.407   0.483  20.336 -0.0590  0.2748  0.1744
68018W        W10930  15.577   1.298  22.149  0.2155 -0.0120 -0.0609
68019W        W10931  16.772   2.878  20.320  0.4894 -0.1188  0.2150
68020W        W10932  17.509   1.698  19.986  0.2335 -0.3323 -0.2596
68021W        W10933  17.749   0.078  20.285  0.5934 -0.2626  0.0533
68022W        W10934  14.840   2.099  21.856  0.2021 -0.2608  0.0400
68023W        W10935  16.777   2.479  21.462 -0.1589 -0.0695 -0.1492
68024W        W10936  13.659   2.760  21.481  0.5468 -0.2050  0.0732
68025W        W10937  16.667   0.046  20.108 -0.1441  0.4209 -0.1337
68026W        W10938  18.429   3.023  19.585 -0.0481 -0.0643 -0.2257
68027W        W10939  13.806   1.426  22.407 -0.1297 -0.3591  0.0898
68028W        W10940  18.422   3.044  23.206  0.2877  0.1603  0.3323
68029W        W10941  17.006   2.195  20.390  0.1513 -0.0579 -0.0050
68030W        W10942  16.486   0.662  21.337  0.0505  0.0024 -0.0193
68031W        W10943  17.215   2.069  17.988  0.0491  0.0497  0.1435
68032W        W10944  14.686  33.581  18.977 -0.0763  0.1296  0.1724
68033W        W10945  13.969   2.901  19.537 -0.4524  0.4421 -0.0371
68034W        W10946  17.629   0.778  20.838 -0.0885  0.2604 -0.0974
68035W        W10947  16.470  34.344  21.568 -0.3446 -0.2739 -0.0380
68036W        W10948  15.783   0.839  21.888  0.1807 -0.0550 -0.2655
68037W        W10949  16.673   1.861  24.175 -0.1805 -0.2474  0.1472
68038W        W10950  16.750   1.140  19.343 -0.2313 -0.0333  0.0654
68039W        W10951  16.257   2.278  22.189  0.1215 -0.1999  0.0703
68040W        W10952  16.155   2.492  20.623  0.0073 -0.1207 -0.1496
68041W        W10953  15.114  34.422  20.566 -0.0153 -0.2346  0.1962
68042W        W10954  14.736   1.826  23.041  0.3148  0.2009 -0.1359
68043W        W10955  14.770   2.902  21.051  0.0246  0.0856 -0.0394
68044W        W10956  17.637   2.456  23.112  0.4377 -0.2008 -0.1533
68045W        W10957  16.680   3.464  20.310 -0.2561  0.0598 -0.2233
68046W        W10958  16.103   0.853  23.197  0.0025  0.1829  0.0726
68047W        W10959  15.208  34.465  20.061 -0.0612  0.1768  0.0059
68048W        W10960  15.398   3.927  20.661 -0.0320  0.2321  0.1585
68049W        W10961  16.633   2.594  19.526  0.1988 -0.0146  0.0319
68050W        W10962  16.203   0.016  20.863  0.1493 -0.0382  0.1216
68051W        W10963  14.903   2.933  23.195  0.2240 -0.0614 -0.1944
68052W        W10964  15.119   1.819  19.865  0.0518 -0.0076  0.0208
68053W        W10965  15.434   2.767  21.841  0.3235 -0.0532  0.0044
68054W        W10966  15.078   2.528  21.233  0.1309 -0.1765  0.0758
68055W        W10967  16.842  33.595  22.913  0.2184  0.0051  0.2803
68056W        W10968  14.264   4.044  22.500  0.1144 -0.1312 -0.0597
68057W        W10969  14.959   1.057  18.992  0.2547 -0.2312  0.1663
68058W        W10970  12.955   0.985  20.717 -0.2204 -0.1992  0.0369
68059W        W10971  16.684  34.274  21.104 -0.0765 -0.0135 -0.2956
68060W        W10972  15.982   1.291  20.060 -0.3932  0.0667 -0.0895
68061W        W10973  16.093   1.150  21.607  0.2593  0.0734 -0.1533
68062W        W10974  15.008  34.614  21.152 -0.2950  0.0417  0.1609
68063W        W10975  15.362   2.240  23.241  0.2741  0.2674 -0.0409
68064W        W10976  16.250   1.862  21.458 -0.2826 -0.1224  0.1071
68065W        W10977  17.505   0.335  19.343  0.1558 -0.2076 -0.0963
68066W        W10978  18.197   1.460  21.337  0.1791 -0.0616  0.0306
68067W        W10979  15.885   1.757  22.789  0.2525 -0.1688  0.1346
68068W        W10980  14.268   0.728  19.427  0.2218 -0.1803 -0.0162
68069W        W10981  17.918   2.564  21.148  0.4167 -0.2106 -0.1768
68070W        W10982  14.251   0.088  20.185  0.0828 -0.4685 -0.1924
68071W        W10983  14.082   3.044  21.342 -0.0565 -0.2638  0.1335
68072W        W10984  15.389   3.207  23.529  0.3127  0.0210  0.2523
68073W        W10985  15.786   0.347  20.787 -0.3024 -0.0620 -0.0082
68074W        W10986  14.765   1.470  20.051  0.0026 -0.1042  0.0970
68075W        W10987  16.016   1.388  23.208 -0.0436 -0.1798  0.0485
68076W        W10988  16.192   2.790  22.294 -0.3600 -0.0841 -0.0906
68077W        W10989  16.074   0.946  22.245  0.1616  0.2006 -0.0129
68078W        W10990  15.448   0.279  19.012  0.0084  0.1105  0.2301
68079W        W10991  17.055  34.637  20.952  0.1349 -0.0533 -0.1312
68080W        W10992  18.573   0.461  20.784  0.2474 -0.2970 -0.0806
68081W        W10993  16.138   0.562  21.700  0.0461 -0.1570 -0.0498
68082W        W10994  16.427   3.881  23.263 -0.2349  0.1530  0.2238
68083W        W10995  16.190  34.201  21.070 -0.1152  0.1499  0.0256
68084W        W10996  16.727   3.818  18.662 -0.1892 -0.0749 -0.0309
68085W        W10997  16.715   2.319  23.167 -0.0405  0.2453  0.1457
68086W        W10998  14.854   3.279  21.843 -0.0712  0.3300 -0.3717
68087W        W10999  13.951   1.059  22.064  0.0491 -0.3074 -0.0632
68088W        W11000  15.784   3.083  21.169 -0.0578 -0.0319 -0.1091
68089W        W11001  16.921   0.776  21.617  0.2404  0.1867 -0.2206
68090W        W11002  15.068   1.329  22.156 -0.2709  0.0150  0.2617
68091W        W11003  14.874   2.784  19.182  0.1508  0.3019  0.1432
68092W        W11004  13.916   2.847  22.108 -0.3037  0.0336 -0.0825
68093W        W11005  17.023   0.599  20.039  0.2368  0.0182  0.0449
68094W        W11006  15.897   2.379  19.852 -0.2408 -0.0051  0.1230
68095W        W11007  16.320   1.491  21.108  0.2690  0.0275  0.1084
68096W        W11008  17.573   0.279  21.947  0.0083 -0.1490 -0.0643
68097W        W11009  16.681   1.725  20.204 -0.1332 -0.1048 -0.1375
68098W        W11010  16.998   0.767  22.311  0.0371  0.2859  0.1048
68099W        W11011  15.553   0.062  22.981 -0.1072  0.0764  0.2527
68100W        W11012  17.545   2.925  18.787  0.0838  0.1983 -0.0706
68101W        W11013  15.549   1.435  22.635  0.0871 -0.2247  0.0227
68102W        W11014  15.766   3.458  24.280 -0.2835 -0.1276  0.1515
68103W        W11015  14.407   2.893  23.085 -0.1901 -0.1909  0.1661
68104W        W11016  17.120   1.481  19.787  0.1840  0.3003  0.0440
68105W        W11017  16.469   1.074  20.257 -0.0406 -0.0003  0.0531
68106W        W11018  15.553   1.302  21.560  0.1098  0.0665 -0.4778
68107W        W11019  18.355   2.729  20.918  0.1099 -0.1160 -0.0382
68108W        W11020  16.868   1.784  22.006 -0.1492 -0.0726 -0.0224
68109W        W11021  18.134  34.502  20.410 -0.1000 -0.0128  0.0937
68110W        W11022  15.612   2.667  21.395 -0.1227 -0.0657  0.0931
68111W        W11023  17.382   1.837  21.923 -0.0311 -0.2791  0.0042
68112W        W11024  16.815   1.288  20.554 -0.1473  0.1311 -0.0053
68113W        W11025  13.864   0.969  20.540  0.0972  0.0382  0.0533
68114W        W11026  16.533   0.616  22.466 -0.1643  0.0705  0.0242
68115W        W11027  18.477   2.543  20.415  0.0047 -0.2063 -0.3536
68116W        W11028  16.469   0.381  20.531 -0.1023 -0.1651  0.0085
68117W        W11029  17.092  34.372  21.375  0.1313  0.1404  0.0815
68118W        W11030  17.692   2.076  22.300 -0.2883  0.0403  0.4683
68119W        W11031  15.672   1.573  24.074 -0.0724  0.0690  0.1860
68120W        W11032  14.491   1.146  23.634  0.0218 -0.1244  0.4314
68121W        W11033  18.909   3.584  21.383  0.1060 -0.2866 -0.1125
68122W        W11034  17.917  33.398  19.371 -0.1867 -0.0867  0.1759
68123W        W11035  17.480   0.878  21.888  0.5939  0.1593 -0.0169
68124W        W11036  17.481   2.261  20.146 -0.1069 -0.1142  0.2526
68125W        W11037  15.680   1.312  20.642  0.3255  0.1834  0.0872
68126W        W11038  14.371   0.892  21.257 -0.0450  0.3341 -0.0973
68127W        W11039  18.971   0.607  23.364  0.0676 -0.1880  0.1421
68128W        W11040  16.009   0.353  20.191 -0.4384 -0.1028 -0.1796
68129W        W11041  17.037   0.305  21.395  0.4844  0.0651  0.0723
68130W        W11042  16.527   2.955  19.866  0.0569 -0.0045 -0.2428
68131W        W11043  15.373   2.443  22.640 -0.0227  0.4300 -0.0296
68132W        W11044  16.339   2.272  21.201 -0.1473 -0.2151  0.0581
68133W        W11045  15.238   0.680  19.216 -0.0719 -0.1732  0.0757
68134W        W11046  14.132   2.338  25.165 -0.2103 -0.2165 -0.1373
68135W        W11047  15.364   1.473  20.284 -0.1175 -0.0549 -0.0833
68136W        W11048  14.661   2.288  19.123 -0.1055 -0.3088  0.0091
68137W        W11049  16.020   2.923  21.689  0.0180  0.2552  0.2331
68138W        W11050  18.005   2.041  23.195 -0.3649  0.2526  0.1141
68139W        W11051  15.297   0.232  19.489  0.0563  0.2261 -0.0323
68140W        W11052  17.517   1.013  22.390 -0.1554 -0.1509 -0.1877
68141W        W11053  15.252   2.986  21.410  0.0226 -0.0378  0.0817
68142W        W11054  16.745  34.166  21.958  0.2335  0.2741  0.0137
68143W        W11055  14.497   4.546  22.475  0.0694  0.3275  0.2109
68144W        W11056  14.153   1.530  22.008 -0.2252 -0.3249 -0.0554
68145W        W11057  13.308   1.973  20.908  0.1535  0.0096  0.5030
68146W        W11058  16.578  34.629  24.224  0.0583  0.0773 -0.0765
68147W        W11059  17.464   1.705  21.271  0.0231  0.2105  0.1258
68148W        W11060  17.133   1.654  22.820  0.0805  0.1380 -0.2492
68149W        W11061  17.136   1.822  23.831 -0.1603  0.1212 -0.0756
68150W        W11062  15.783   2.512  23.386  0.2843 -0.0221  0.4295
68151W        W11063  16.110   0.314  21.282  0.0710 -0.1525  0.3723
68152W        W11064  17.454   2.890  20.543 -0.1643  0.1049  0.0318
68153W        W11065  17.982   2.714  20.439 -0.3595  0.2914 -0.1183
68154W        W11066  15.647   3.259  21.671 -0.1721 -0.6001 -0.1402
68155W        W11067  15.134  34.515  23.330 -0.0448 -0.0497 -0.1148
68156W        W11068  16.547   1.106  22.382 -0.1230  0.1294 -0.2828
68157W        W11069  17.903   1.714  20.970  0.0898 -0.0824 -0.1255
68158W        W11070  15.245  34.492  19.139  0.2285 -0.0283 -0.1074
68159W        W11071  18.536   2.452  21.304 -0.1188  0.1424  0.2356
68160W        W11072  14.921   1.362  23.815 -0.0390  0.0930  0.4690
68161W        W11073  13.674   2.596  22.468  0.5745  0.1484 -0.0735
68162W        W11074  15.283   3.000  20.868 -0.1218  0.1463 -0.1355
68163W        W11075  16.338   2.562  20.121  0.1586 -0.2143 -0.0832
68164W        W11076  16.536   1.110  18.856  0.0873  0.1800 -0.1053
68165W        W11077  16.535   3.208  22.474  0.0618  0.1124  0.0541
68166W        W11078  16.571   0.309  19.127  0.0895  0.2440  0.0512
68167W        W11079  14.187   2.000  21.760  0.1628  0.0203 -0.1463
68168W        W11080  13.815   2.485  20.825  0.0869  0.0192  0.1720
68169W        W11081  17.703   3.701  19.475  0.1289  0.1003  0.0658
68170W        W11082  14.561   2.504  22.077 -0.2284  0.0255 -0.1586
68171W        W11083  17.236   2.702  21.506  0.1487 -0.1057  0.1286
68172W        W11084  16.926  33.330  20.151  0.0335  0.1498  0.0145
68173W        W11085  17.304   0.984  20.390  0.0517 -0.2164  0.0524
68174W        W11086  18.427  34.097  20.807 -0.1061 -0.0783  0.0934
68175W        W11087  16.239   3.214  24.028  0.0605 -0.2965  0.1433
68176W        W11088  15.543   2.232  22.207  0.0691  0.3374  0.0587
68177W        W11089  14.431  33.728  20.618 -0.1274 -0.0730 -0.1402
68178W        W11090  16.747   2.118  22.378 -0.3089 -0.0412 -0.1565
68179W        W11091  16.921   0.418  24.093 -0.1478  0.0204 -0.1225
68180W        W11092  14.427   2.738  23.551  0.1331 -0.0149 -0.3624
68181W        W11093  16.406   3.677  20.965 -0.0731  0.0884  0.0568
68182W        W11094  15.319   0.768  21.671  0.0396 -0.1088  0.1486
68183W        W11095  15.369   2.236  21.586  0.0322  0.0983 -0.1203
68184W        W11096  17.551   0.050  21.145  0.1365  0.2441  0.0047
68185W        W11097  16.713   0.192  18.570  0.2588  0.0336 -0.0638
68186W        W11098  17.547   0.527  21.476 -0.0543  0.0931 -0.1038
68187W        W11099  15.264   3.628  21.700  0.0931  0.1803  0.0284
68188W        W11100  14.715   2.676  22.627  0.0359 -0.0702 -0.0105
68189W        W11101  13.907   2.791  22.912  0.0277  0.0335 -0.0850
68190W        W11102  15.188   0.525  18.653 -0.0446 -0.1007 -0.0640
68191W        W11103  18.696   1.535  21.297 -0.2496 -0.3735  0.2864
68192W        W11104  16.298   1.964  22.557 -0.3088  0.2189 -0.1706
68193W        W11105  18.740   0.809  22.930  0.2597 -0.3637  0.1095
68194W        W11106  14.589   1.986  20.557  0.0738  0.3755 -0.2480
68195W        W11107  19.595   0.730  20.821  0.0472  0.0113  0.0324
68196W        W11108  15.853   2.544  21.923 -0.0068 -0.0468 -0.1315
68197W        W11109  15.262   0.883  22.186 -0.0403 -0.3832  0.2653
68198W        W11110  16.039   2.104  20.348 -0.0619  0.1804  0.0112
68199W        W11111  17.473   0.771  22.824  0.0424  0.1567 -0.2196
68200W        W11112  17.239   3.562  19.656  0.3228  0.2706 -0.0839
68201W        W11113  16.810   2.943  23.017  0.1245  0.0186 -0.0899
68202W        W11114  15.488   1.807  21.722 -0.0214  0.1089 -0.2782
68203W        W11115  17.101   1.953  19.951  0.2356  0.0859  0.0123
68204W        W11116  14.717   1.023  20.336  0.1094 -0.5021  0.2940
68205W        W11117  17.977   1.577  22.279 -0.0529 -0.1964 -0.1562
68206W        W11118  17.306   2.975  23.848 -0.4643 -0.0924 -0.1582
68207W        W11119  13.184   0.069  21.155  0.1923 -0.2353 -0.1997
68208W        W11120  18.493   3.143  19.023  0.0310  0.0522 -0.2858
68209W        W11121  18.511   0.643  21.258 -0.0979 -0.1590  0.1330
68210W        W11122  15.080   2.198  20.804 -0.1357 -0.0962 -0.1434
68211W        W11123  18.825   0.238  21.292  0.1072  0.0694  0.2220
68212W        W11124  17.139   2.760  22.374 -0.3841 -0.1869  0.0974
68213W        W11125  14.237   1.472  20.981  0.2156 -0.0310  0.1252
68214W        W11126  15.741   3.516  22.460  0.1848  0.0871  0.1228
68215W        W11127  18.081   2.844  19.969  0.0791 -0.2224 -0.0678
68216W        W11128  16.465  33.057  20.619 -0.0874  0.0693 -0.0530
68217W        W11129  15.033   0.604  19.875  0.0091  0.0549 -0.3333
68218W        W11130  13.964   3.260  21.817 -0.1223  0.0858 -0.3980
68219W        W11131  17.740   1.396  20.538 -0.0072  0.1270 -0.1919
68220W        W11132  17.118   1.062  22.712  0.0761  0.4307  0.1191
68221W        W11133  16.580   2.937  18.925 -0.1006 -0.3422 -0.2248
68222W        W11134  16.655  33.866  24.240 -0.0236  0.0414  0.0320
68223W        W11135  14.894   2.333  23.010  0.1046  0.0313 -0.2108
68224W        W11136  13.828   3.788  23.141  0.1894  0.4359 -0.0064
68225W        W11137  14.557   0.635  19.927  0.2626  0.1432  0.0468
68226W        W11138  15.599   2.089  24.183  0.1218 -0.0309 -0.0058
68227W        W11139  16.715   1.809  21.168  0.1128  0.2842  0.1260
68228W        W11140  17.101   1.949  21.537  0.0813 -0.2516  0.1503
68229W        W11141  18.572   2.585  22.630 -0.0066  0.1214  0.0304
68230W        W11142  15.481   1.843  20.674  0.0337  0.1345  0.0391
68231W        W11143  17.233   3.332  22.093  0.0356  0.0897  0.0296
68232W        W11144  15.506  34.643  21.449  0.2906  0.2493  0.2491
68233W        W11145  17.483  34.195  21.067  0.0587 -0.1964 -0.2984
68234W        W11146  18.315  33.937  19.959 -0.2100 -0.0163  0.1061
68235W        W11147  14.526   2.197  23.787 -0.0516  0.0880 -0.0213
68236W        W11148  14.855   0.869  19.434  0.1875 -0.2098 -0.3572
68237W        W11149  14.539   1.141  19.710 -0.0873  0.0255  0.2445
68238W        W11150  15.375   1.993  21.179 -0.2029  0.0092  0.0688
68239W        W11151  15.519  34.237  22.166 -0.1477  0.1804  0.2848
68240W        W11152  16.550   0.887  22.885 -0.0154  0.3543  0.1273
68241W        W11153  14.886   1.115  21.696 -0.1813  0.2310  0.1477
68242W        W11154  15.503  34.423  19.618 -0.0485  0.0429 -0.0563
68243W        W11155  16.357   3.704  19.420 -0.1298 -0.2094  0.0335
68244W        W11156  16.567   1.110  21.469 -0.3105 -0.2241  0.0359
68245W        W11157  14.757   1.482  20.570 -0.3039 -0.1041 -0.1725
68246W        W11158  17.784   2.939  21.514 -0.0722 -0.0346  0.2409
68247W        W11159  16.853   3.305  19.807 -0.2847  0.1110  0.1706
68248W        W11160  16.641   0.375  21.693 -0.1411 -0.3756 -0.1325
68249W        W11161  18.224   2.914  22.711 -0.1543 -0.2100 -0.0134
68250W        W11162  15.868   2.138  18.541 -0.1078  0.1128 -0.0452
68251W        W11163  18.145   1.418  21.838 -0.0065 -0.0683  0.0647
68252W        W11164  17.081   0.934  23.386  0.1099 -0.0609 -0.2535
68253W        W11165  13.081  34.326  19.476  0.2109  0.1536  0.0490
68254W        W11166  15.844   1.715  21.186  0.2746 -0.2431 -0.2318
68255W        W11167  16.983   2.986  21.066  0.0818 -0.3321 -0.0963
68256W        W11168  17.174   5.162  18.663  0.1526 -0.2750  0.2975
68257W        W11169  15.128   3.969  23.142 -0.1083  0.0035  0.1032
68258W        W11170  17.701   2.131  21.075  0.0280  0.0415 -0.2551
68259W        W11171  15.328   0.384  22.061  0.0197  0.4923  0.0756
68260W        W11172  17.643   1.788  19.068 -0.1249 -0.0309  0.3294
68261W        W11173  15.355   1.984  23.753 -0.2204  0.1022 -0.3553
68262W        W11174  19.192   0.951  18.201 -0.3921  0.0991  0.0950
68263W        W11175  16.601  34.467  22.355 -0.1365  0.0968 -0.0485
68264W        W11176  16.263   1.800  20.667 -0.2495  0.1725  0.0179
68265W        W11177  15.845   1.051  22.765  0.4391 -0.1601 -0.1707
68266W        W11178  15.036   2.655  20.067 -0.0239  0.2136  0.1398
68267W        W11179  17.050   2.582  20.662 -0.1256  0.0494 -0.0109
68268W        W11180  14.741   0.023  20.488  0.1002 -0.2514 -0.3034
68269W        W11181  16.617   1.005  20.957 -0.0124  0.0839 -0.0843
68270W        W11182  16.318   3.049  20.298  0.0567  0.1596 -0.2738
68271W        W11183  14.473   1.806  23.466 -0.3427 -0.0977  0.3130
68272W        W11184  16.526   0.012  19.624  0.0452  0.3855 -0.1004
68273W        W11185  15.178   3.003  24.401 -0.0065  0.2155  0.0242
68274W        W11186  15.900   2.125  20.878 -0.0494 -0.2648  0.1250
68275W        W11187  17.945   2.861  23.273  0.0576 -0.0410  0.0839
68276W        W11188  15.910   2.771  20.190 -0.0365  0.1293 -0.1882
68277W        W11189  18.248   1.135  19.484  0.2542 -0.2378  0.1323
68278W        W11190  15.960   3.002  23.640  0.0882  0.1284 -0.0471
68279W        W11191  17.000   4.732  23.043  0.1553 -0.1894 -0.3270
68280W        W11192  14.700   1.625  21.949 -0.1253  0.1145 -0.3140
68281W        W11193  17.859   1.810  21.753  0.0142  0.1953 -0.2169
68282W        W11194  14.689  34.623  21.578  0.3174 -0.2273  0.0303
68283W        W11195  15.137   0.827  20.400 -0.1543  0.2311 -0.1001
68284W        W11196  14.861   2.063  21.384  0.0153 -0.0115  0.0650
68285W        W11197  16.976   0.615  22.961 -0.0301  0.0367  0.0776
68286W        W11198  15.706   0.800  21.377 -0.1738  0.1942  0.1146
68287W        W11199  17.977   0.947  21.693  0.0534 -0.0651 -0.2083
68288W        W11200  14.441   3.027  22.043  0.0353  0.2062 -0.1696
68289W        W11201  16.285   2.455  21.652  0.2695 -0.0713 -0.0750
68290W        W11202  15.962   2.501  26.471  0.1986  0.0969  0.0547
68291W        W11203  14.826   1.484  24.894  0.0065 -0.2927  0.1291
68292W        W11204  15.920   0.857  23.750  0.2223 -0.1352  0.4606
68293W        W11205  17.616   1.834  23.636 -0.3266 -0.1342 -0.1772
68294W        W11206  13.639   0.709  25.218  0.0666  0.1208 -0.2718
68295W        W11207  16.620   2.216  25.038 -0.1696 -0.5754  0.1651
68296W        W11208  13.862  33.981  26.356 -0.0718  0.1417  0.2924
68297W        W11209  17.146   3.622  26.051  0.0781 -0.1359  0.2513
68298W        W11210  17.757   2.998  25.606 -0.0384  0.1996 -0.1117
68299W        W11211  16.094   1.300  24.803  0.0618  0.1516 -0.1032
68300W        W11212  16.730   1.369  26.800  0.2206 -0.0162 -0.3181
68301W        W11213  16.202   1.335  25.274  0.1435  0.0616 -0.1130
68302W        W11214  15.944   0.295  23.234  0.0202  0.1899 -0.2489
68303W        W11215  13.180   0.794  26.595 -0.3468 -0.0769 -0.1476
68304W        W11216  17.270   1.828  26.588 -0.1601  0.1302  0.0448
68305W        W11217  14.834   1.360  25.750 -0.0862  0.1019 -0.1180
68306W        W11218  15.917   0.362  27.306 -0.0474 -0.1013  0.3727
68307W        W11219  15.927  34.024  25.292 -0.0258 -0.0371 -0.2387
68308W        W11220  16.151   4.065  24.168  0.1935  0.2244  0.0313
68309W        W11221  15.588   1.138  25.889  0.1302 -0.0598 -0.4138
68310W        W11222  17.665   0.805  27.728  0.2349  0.1197 -0.0834
68311W        W11223  15.395   3.013  25.125  0.2625  0.0004  0.1797
68312W        W11224  14.825   0.533  24.586  0.0452  0.0732 -0.0232
68313W        W11225  13.988   2.315  27.304  0.1866 -0.0859  0.0211
68314W        W11226  15.872   1.090  26.454 -0.3637  0.0675 -0.1761
68315W        W11227  17.600   1.462  26.419  0.1077  0.1718  0.0480
68316W        W11228  15.591   0.689  24.775 -0.0017 -0.0975  0.0817
68317W        W11229  17.443   2.411  25.432 -0.1723 -0.0073 -0.1476
68318W        W11230  16.597   3.235  26.611  0.1680 -0.2182  0.3491
68319W        W11231  18.307   1.386  27.138 -0.0488 -0.1257 -0.0500
68320W        W11232  15.853   1.946  26.783 -0.1229  0.0865 -0.1590
68321W        W11233  14.137   2.497  25.652 -0.1079 -0.2894 -0.1070
68322W        W11234  15.528   3.327  24.736 -0.2670 -0.0727  0.5131
68323W        W11235  18.755   0.854  22.162  0.0142 -0.0236 -0.1380
68324W        W11236  17.023   2.711  26.838  0.3672 -0.0508  0.0643
68325W        W11237  16.425   4.039  26.769  0.1450  0.1975 -0.0305
68326W        W11238  15.071   2.784  23.950 -0.1632  0.1343  0.0046
68327W        W11239  16.101   3.899  27.677  0.2189  0.0709 -0.2836
68328W        W11240  16.343   3.471  27.594  0.2530 -0.0287 -0.0788
68329W        W11241  14.880   1.540  26.826 -0.3977  0.0330 -0.1515
68330W        W11242  14.907   1.805  24.011  0.0499 -0.4930  0.1661
68331W        W11243  15.805   2.832  24.836  0.1062  0.1193  0.0751
68332W        W11244  17.073   1.898  25.298 -0.1160  0.3246  0.2318
68333W        W11245  16.068   2.584  28.218 -0.3472 -0.2438  0.0642
68334W        W11246  15.488   2.613  26.185  0.0728 -0.0021  0.0322
68335W        W11247  17.221   1.241  28.758 -0.0298 -0.2161  0.0574
68336W        W11248  14.143   1.421  23.352 -0.0816 -0.1532 -0.0509
68337W        W11249  18.663   1.727  24.256 -0.1168 -0.0277 -0.1731
68338W        W11250  16.385   1.348  21.942  0.0673 -0.0869  0.0700
68339W        W11251  17.141   2.069  23.183 -0.0488  0.2050  0.0587
68340W        W11252  15.329   0.473  27.764  0.0687 -0.0180  0.0664
68341W        W11253  16.317   2.937  25.139  0.0642  0.0360  0.2605
68342W        W11254  16.287   0.838  26.317 -0.1274 -0.3054  0.2934
68343W        W11255  17.600   1.027  24.643  0.2850 -0.0254  0.0663
68344W        W11256  15.266   1.116  24.790 -0.0645  0.0713  0.3083
68345W        W11257  16.967   1.511  25.957  0.3645 -0.1413 -0.1582
68346W        W11258  17.065   2.318  25.763  0.0219  0.3393 -0.1078
68347W        W11259  14.134   0.232  24.883  0.1524 -0.2273 -0.0197
68348W        W11260  18.832   2.584  23.051 -0.2519 -0.0393  0.1484
68349W        W11261  17.640   3.367  24.324  0.2145 -0.2594  0.0293
68350W        W11262  16.875   2.573  23.692 -0.0469  0.3759  0.0752
68351W        W11263  14.165   0.386  24.387  0.2146  0.0118  0.0410
68352W        W11264  15.250   2.455  27.910 -0.1634 -0.0093 -0.4232
68353W        W11265  14.359   2.084  28.330 -0.0893  0.0797 -0.2060
68354W        W11266  15.771  33.785  24.229  0.2180 -0.0503  0.0634
68355W        W11267  18.336   2.054  28.263  0.3989 -0.1708  0.1560
68356W        W11268  15.432   2.125  26.638 -0.2667  0.0901  0.1363
68357W        W11269  18.522  34.420  25.192 -0.1566 -0.0458  0.2789
68358W        W11270  15.300   2.122  27.123  0.0034  0.1033  0.0650
68359W        W11271  17.645   1.946  25.384 -0.1197  0.0419  0.3308
68360W        W11272  17.402   4.014  22.997 -0.1336  0.0076  0.1786
68361W        W11273  17.333   1.129  26.736 -0.1739  0.0867 -0.1273
68362W        W11274  16.829   0.924  25.934  0.2346  0.2831  0.1425
68363W        W11275  14.434   2.231  23.203 -0.1663  0.0283  0.0482
68364W        W11276  15.773   1.831  23.370 -0.0952  0.0290  0.1053
68365W        W11277  18.104   2.575  25.527  0.0552 -0.0773 -0.2274
68366W        W11278  17.344   2.262  23.624 -0.0514  0.1568  0.1909
68367W        W11279  14.922   3.567  26.228 -0.0338  0.0127  0.1497
68368W        W11280  15.445   2.568  27.274  0.0192 -0.2778 -0.1043
68369W        W11281  16.387   1.971  27.761  0.1600 -0.1818 -0.0873
68370W        W11282  15.167   4.141  24.025  0.2005  0.0525 -0.1334
68371W        W11283  14.969   2.288  26.279  0.0110 -0.0594  0.1005
68372W        W11284  15.476   3.301  25.552 -0.2054  0.0424 -0.0973
68373W        W11285  12.855   0.366  27.265  0.3046 -0.0183 -0.1250
68374W        W11286  15.798   2.389  25.864  0.0286  0.0272  0.0947
68375W        W11287  17.690   0.567  24.183 -0.1338  0.2791 -0.0394
68376W        W11288  14.398   2.293  27.000  0.2155  0.0008 -0.3187
68377W        W11289  16.548   1.260  26.305 -0.2343 -0.0124  0.1593
68378W        W11290  16.249   2.972  24.644 -0.2185 -0.0727  0.1242
68379W        W11291  18.761   3.278  25.470  0.1855 -0.2959  0.0727
68380W        W11292  18.616   2.528  24.560 -0.0558 -0.1552  0.3614
68381W        W11293  17.588   1.998  22.843 -0.1177  0.0389  0.0448
68382W        W11294  15.983   2.856  26.797 -0.3662  0.1212 -0.1078
68383W        W11295  14.612   0.953  26.118 -0.0781  0.1231  0.2663
68384W        W11296  16.253   0.711  27.073  0.0387  0.1492  0.0050
68385W        W11297  15.664  34.296  25.838  0.0762  0.0602  0.0698
68386W        W11298  15.833   0.387  27.790  0.1376 -0.1242  0.1304
68387W        W11299  14.176  34.082  23.178  0.1478  0.1278 -0.0147
68388W        W11300  15.690   1.295  25.414  0.1316  0.0274 -0.3853
68389W        W11301  15.851   1.982  25.458 -0.0539 -0.2136 -0.3241
68390W        W11302  14.387   1.245  24.916  0.0383 -0.0341 -0.1153
68391W        W11303  17.978   1.139  26.850 -0.4010 -0.2435 -0.3906
68392W        W11304  15.868   2.582  23.967 -0.2529  0.2413 -0.0086
68393W        W11305  17.653   2.778  26.109 -0.1340  0.1742 -0.0637
68394W        W11306  17.398   3.511  25.299 -0.2616 -0.0110 -0.3252
68395W        W11307  14.224   0.509  26.464 -0.0777  0.1954  0.1765
68396W        W11308  16.500   1.646  23.330 -0.0864 -0.0523 -0.1641
68397W        W11309  14.836   3.192  27.360  0.2690  0.2967 -0.0629
68398W        W11310  16.346   2.050  25.454 -0.0361  0.4623  0.1277
68399W        W11311  15.092   1.710  24.523  0.0326  0.1414  0.1386
68400W        W11312  16.482   4.230  24.492 -0.0750  0.3739  0.0031
68401W        W11313  15.887   2.380  24.454  0.1161  0.0820  0.2430
68402W        W11314  15.086   1.020  27.095  0.1547 -0.0657 -0.0706
68403W        W11315  17.117   0.859  27.696  0.2217  0.0876  0.1696
68404W        W11316  17.321   1.126  26.114 -0.1272 -0.2328  0.1147
68405W        W11317  17.296   3.014  24.343 -0.0890  0.1514  0.1031
68406W        W11318  16.077  34.670  22.914 -0.0502  0.1310 -0.3246
68407W        W11319  17.458   4.050  25.781  0.1236  0.1570 -0.0551
68408W        W11320  16.807   3.831  24.388  0.1017  0.3190 -0.0750
68409W        W11321  14.571   1.588  24.466  0.0326 -0.1510 -0.1719
68410W        W11322  16.413   2.129  24.616  0.3258 -0.0292  0.0839
68411W        W11323  17.052   1.387  26.428 -0.0764  0.0323 -0.0109
68412W        W11324  14.169   2.748  27.588  0.0198  0.2018 -0.1620
68413W        W11325  17.451   2.556  27.125 -0.1718  0.2941  0.2855
68414W        W11326  15.466   0.927  23.859  0.0564  0.2158 -0.0705
68415W        W11327  15.281   1.529  25.979 -0.0378 -0.0368 -0.1797
68416W        W11328  15.893   0.604  24.221  0.3192  0.1434  0.2358
68417W        W11329  15.907  34.339  24.149  0.0886  0.0942 -0.0010
68418W        W11330  16.243   2.202  27.014  0.2188 -0.3579  0.2192
68419W        W11331  17.806   3.339  25.144 -0.1085 -0.0583 -0.1748
68420W        W11332  16.295   2.443  22.788 -0.0162 -0.2055 -0.0064
68421W        W11333  15.555   0.548  22.921 -0.0886  0.0429  0.1280
68422W        W11334  15.216   3.575  27.064 -0.0035  0.2616 -0.0107
68423W        W11335  15.114   1.099  26.107  0.0762 -0.2943  0.0497
68424W        W11336  16.806   2.283  27.018  0.0907  0.0735 -0.2125
68425W        W11337  15.856   1.094  24.177 -0.0389 -0.0999 -0.1212
68426W        W11338  17.645   4.230  26.357 -0.2332 -0.1320  0.3092
68427W        W11339  15.595   2.786  25.624 -0.0218  0.0365  0.0659
68428W        W11340  17.665   2.074  26.800  0.0492  0.0481 -0.0620
68429W        W11341  17.018   3.278  25.722  0.4144 -0.3587 -0.1075
68430W        W11342  16.522   1.133  25.643  0.1207  0.1011  0.0859
68431W        W11343  16.544   1.071  23.451  0.0464 -0.1666  0.1067
68432W        W11344  17.336   0.914  25.019 -0.1688  0.0526 -0.2307
68433W        W11345  15.334   3.491  23.925  0.1889  0.0812 -0.4920
68434W        W11346  18.021   1.295  24.779 -0.1630 -0.0040 -0.1680
68435W        W11347  15.536   1.920  24.764  0.3456  0.3056  0.1164
68436W        W11348  16.551   1.814  28.238 -0.0312  0.0128  0.1590
68437W        W11349  18.053   1.615  26.683 -0.2013 -0.1584 -0.0895
68438W        W11350  16.735   1.903  22.884  0.0231  0.2693 -0.2666
68439W        W11351  16.333   1.667  26.819  0.3048  0.1567  0.0503
68440W        W11352  16.340   1.555  22.859 -0.0183  0.0298 -0.1696
68441W        W11353  16.649   1.817  27.226  0.2344 -0.0887  0.4985
68442W        W11354  14.961   0.440  27.347 -0.1446 -0.1446  0.0029
68443W        W11355  14.542   4.490  26.681  0.0024  0.1059 -0.0188
68444W        W11356  17.288   2.091  27.066 -0.1352  0.0217  0.1504
68445W        W11357  17.610   1.346  25.141 -0.0590 -0.1303  0.0594
68446W        W11358  16.254   1.389  27.804  0.1029  0.0298  0.1019
68447W        W11359  16.636   1.414  23.808  0.0204 -0.0141 -0.0030
68448W        W11360  14.331   1.754  25.186 -0.2747  0.5715  0.2470
68449W        W11361  15.875   2.059  23.763 -0.1252 -0.0473 -0.0542
68450W        W11362  15.275   0.165  26.597  0.2032 -0.0179  0.1749
68451W        W11363  16.094   1.541  26.354  0.0124  0.3118  0.3569
68452W        W11364  14.788   3.246  24.206 -0.1030  0.1950  0.2320
68453W        W11365  16.569   2.300  27.439 -0.0003  0.2119  0.0111
68454W        W11366  15.367   3.669  25.962  0.2072  0.0914  0.1225
68455W        W11367  17.133   0.549  25.535  0.2868 -0.2112  0.0113
68456W        W11368  14.430   3.219  26.533  0.0984  0.1041 -0.1261
68457W        W11369  14.388   1.585  23.881  0.1238 -0.2216  0.0365
68458W        W11370  13.615   1.760  23.676 -0.0802 -0.1768  0.0736
68459W        W11371  16.050   0.317  25.398  0.0171  0.0564  0.1837
68460W        W11372  19.436   0.840  23.399  0.0037 -0.1067 -0.0408
68461W        W11373  14.592   0.124  25.044  0.4241 -0.0462 -0.3732
68462W        W11374  18.507   1.749  27.539  0.2361  0.2530 -0.0830
68463W        W11375  14.438   4.389  26.001 -0.0580 -0.1379 -0.0379
68464W        W11376  16.587   2.412  25.598 -0.2261  0.1278  0.1897
68465W        W11377  16.714   1.997  23.622 -0.1275 -0.1675  0.4428
68466W        W11378  16.748   2.880  25.737  0.2344  0.0490  0.2533
68467W        W11379  15.464   2.926  27.861 -0.1011  0.1398 -0.0293
68468W        W11380  13.973   1.927  23.305 -0.0188  0.1743 -0.1718
68469W        W11381  18.467   2.035  26.184  0.0666 -0.4612  0.0866
68470W        W11382  15.603   1.060  23.225 -0.0430  0.0261 -0.1651
68471W        W11383  15.982   1.740  24.610  0.0228  0.2649  0.0084
68472W        W11384  16.650   3.315  26.095 -0.2241  0.1722 -0.2270
68473W        W11385  15.059   1.535  23.378  0.0584  0.0828 -0.2785
68474W        W11386  16.293   2.521  24.881 -0.2089 -0.0727  0.3030
68475W        W11387  15.951   1.028  27.394  0.0531  0.0637 -0.1861
68476W        W11388  16.708   1.935  25.758 -0.1294 -0.1899  0.3525
68477W        W11389  14.479   1.844  26.847  0.1575 -0.1369 -0.2891
68478W        W11390  15.953   0.279  24.845 -0.0334 -0.1753 -0.0459
68479W        W11391  15.268   1.459  25.118 -0.1538 -0.2018 -0.0437
68480W        W11392  16.992   0.835  26.423 -0.1532  0.1686  0.0159
68481W        W11393  17.116   1.371  25.177 -0.2717  0.3193 -0.0329
68482W        W11394  15.415   3.476  27.943 -0.4117  0.0587  0.1271
68483W        W11395  15.170   0.671  25.048 -0.0138  0.1345 -0.0100
68484W        W11396  17.274   3.531  23.594 -0.3380  0.3060  0.4226
68485W        W11397  17.685   2.555  26.653 -0.0529  0.1115  0.1630
68486W        W11398  16.020   3.275  24.912  0.1075  0.1161 -0.1671
68487W        W11399  14.589   0.076  27.197 -0.2360  0.1850 -0.0036
68488W        W11400  15.442   2.562  24.262 -0.4223  0.1207 -0.1669
68489W        W11401  16.109  34.430  25.584  0.1771  0.0530  0.1497
68490W        W11402  16.560   2.374  28.202 -0.0362 -0.0771 -0.0909
68491W        W11403  17.059   2.318  22.755  0.1545 -0.2941 -0.2297
68492W        W11404  16.138   2.012  24.250  0.0440  0.0285  0.1909
68493W        W11405  18.268   1.002  22.140  0.0454 -0.0479  0.1090
68494W        W11406  16.786   1.343  23.018 -0.0637  0.3471 -0.3113
68495W        W11407  15.379  34.154  26.635  0.0798 -0.0306 -0.0099
68496W        W11408  19.487   3.122  27.385 -0.1423  0.3028  0.0590
68497W        W11409  16.304   3.546  24.430  0.2642 -0.0960 -0.1469
68498W        W11410  16.624   0.130  28.339 -0.2545 -0.0068  0.1948
68499W        W11411  15.531   1.214  27.229 -0.0791  0.0264 -0.2373
68500W        W11412  17.056   3.717  24.907  0.1025 -0.1227  0.1938
68501W        W11413  14.630   1.712  28.126  0.2975 -0.0882  0.1751
68502W        W11414  17.728   5.436  28.089  0.0626 -0.0362  0.0599
68503W        W11415  15.671   3.952  27.917 -0.1369  0.0990 -0.3622
68504W        W11416  15.658   1.346  24.588  0.0106  0.0446  0.3526
68505W        W11417  15.635  34.040  23.851  0.3385 -0.0078  0.2762
68506W        W11418  15.192   1.059  25.556  0.3330  0.1511 -0.2316
68507W        W11419  18.106   2.173  25.167  0.0103  0.0385 -0.1547
68508W        W11420  17.469   1.945  24.174  0.0124  0.2586  0.1579
68509W        W11421  17.756   0.707  23.650  0.1759 -0.1659 -0.0146
68510W        W11422  15.331   2.198  25.971 -0.2359  0.0838 -0.1647
68511W        W11423  17.898   2.551  23.999 -0.1920  0.1618  0.0279
68512W        W11424  15.921   2.209  24.944  0.1635  0.0318 -0.0004
68513W        W11425  14.857   1.915  25.881 -0.0296 -0.2506 -0.0573
68514W        W11426  15.520   2.579  26.745 -0.3350 -0.0553 -0.3192
68515W        W11427  17.272   2.794  25.703 -0.2244  0.1724  0.3188
68516W        W11428  17.036   0.214  25.915  0.4257 -0.2285  0.1100
68517W        W11429  15.855   1.441  26.892 -0.1829  0.0190  0.0973
68518W        W11430  15.835   1.725  25.909  0.3339 -0.0651 -0.0816
68519W        W11431  15.488   1.636  28.091 -0.1703  0.0564  0.0784
68520W        W11432  15.809   2.183  27.230 -0.0321 -0.2578  0.0315
68521W        W11433  17.081   3.805  25.606  0.2140  0.0322 -0.0362
68522W        W11434  16.650   1.589  25.410 -0.0591  0.0463  0.1267
68523W        W11435  17.727   1.650  25.952  0.1004  0.0855  0.1682
68524W        W11436  17.119   1.233  24.667 -0.1501  0.3772 -0.2318
68525W        W11437  17.623   1.295  22.899  0.3114 -0.0558  0.1091
68526W        W11438  16.080   0.915  25.528  0.0644  0.0704 -0.1265
68527W        W11439  17.426   1.437  27.618 -0.3053 -0.1240  0.1762
68528W        W11440  14.212   1.631  22.894 -0.4671 -0.4263  0.0638
68529W        W11441  16.125   0.882  28.510  0.2008 -0.2606  0.4364
68530W        W11442  16.391   3.712  23.740 -0.0460 -0.2999  0.1960
68531W        W11443  18.068   4.007  25.830 -0.0103 -0.5571 -0.0331
68532W        W11444  16.743   0.848  26.878 -0.0242  0.0173 -0.1883
68533W        W11445  13.874   0.677  26.144  0.4130  0.1013  0.1350
68534W        W11446  15.969   3.698  27.162 -0.1295 -0.0415  0.0785
68535W        W11447  15.058   1.958  22.654  0.0498 -0.0555 -0.1148
68536W        W11448  15.426   1.413  23.654 -0.1368 -0.2413 -0.0194
68537W        W11449  17.644   1.599  26.888  0.0590  0.0043  0.0199
68538W        W11450  17.670   2.295  24.972 -0.0588  0.2176  0.0950
68539W        W11451  17.419   0.593  23.299  0.0424 -0.3669 -0.2403
68540W        W11452  18.671   1.758  28.056 -0.1296 -0.0775  0.1010
68541W        W11453  15.385   2.551  24.816 -0.1305 -0.1193 -0.2433
68542W        W11454  16.526   0.241  26.658 -0.0824 -0.2793 -0.0787
68543W        W11455  15.501   4.248  26.469 -0.1554  0.2426 -0.1506
68544W        W11456  16.820   1.871  26.737 -0.2310 -0.2083 -0.2736
68545W        W11457  16.093   2.474  25.348 -0.2062  0.0799  0.1790
68546W        W11458  17.162   0.607  26.834 -0.3101  0.1967 -0.0730
68547W        W11459  16.586   1.293  24.929 -0.3638 -0.2814 -0.0530
68548W        W11460  14.890   1.057  25.134  0.1328  0.1378  0.2699
68549W        W11461  17.901   1.424  25.499 -0.1436  0.2372  0.2869
68550W        W11462  16.860   2.916  26.258 -0.2438  0.1440 -0.1140
68551W        W11463  15.216   0.952  27.682 -0.2997  0.0706 -0.1371
68552W        W11464  16.600   1.906  26.226  0.0578  0.1002  0.0694
68553W        W11465  18.359   3.027  25.283  0.3471  0.2572  0.1064
68554W        W11466  15.144   2.630  25.762  0.0026 -0.0960 -0.0219
68555W        W11467  14.569   1.498  27.676  0.0689  0.2355  0.4165
68556W        W11468  17.237   1.735  28.076  0.2992 -0.1329 -0.2357
68557W        W11469  17.453   2.534  24.265 -0.3152  0.3234 -0.0269
68558W        W11470  15.123  33.972  26.033  0.2085  0.0167 -0.2345
68559W        W11471  16.268   2.270  23.550  0.0557  0.3678 -0.0275
68560W        W11472  14.900   4.050  27.120  0.1055  0.1538 -0.4587
68561W        W11473  14.603   2.476  27.493  0.0201 -0.1746  0.2453
68562W        W11474  14.040   3.707  24.564  0.0296 -0.0484  0.0629
68563W        W11475  15.829   2.953  24.371 -0.0462 -0.0639  0.1323
68564W        W11476  18.777   2.821  23.494  0.3589  0.2425 -0.4183
68565W        W11477  17.237   3.621  26.938 -0.1516 -0.1810 -0.2227
68566W        W11478  15.606   0.595  23.454 -0.2493 -0.0836  0.0966
68567W        W11479  15.895   3.144  25.343  0.1732  0.1538 -0.1364
68568W        W11480  14.701   2.521  24.792  0.3105  0.1617  0.1564
68569W        W11481  17.053   3.168  24.847  0.0710 -0.1613 -0.2570
68570W        W11482  16.666   3.741  25.213  0.2510 -0.0376 -0.2730
68571W        W11483  16.975   3.205  27.005 -0.2808  0.1556  0.1121
68572W        W11484  16.695   1.228  24.308 -0.2593 -0.2060  0.1211
68573W        W11485  17.310   2.158  24.557  0.1290 -0.1976 -0.1580
68574W        W11486  17.519   1.502  24.477 -0.2588 -0.1509 -0.2150
68575W        W11487  17.811   5.655  27.657 -0.0898 -0.0106  0.0910
68576W        W11488  15.390   1.192  26.722 -0.1486  0.0011 -0.0821
68577W        W11489  16.259   1.790  23.741 -0.1641  0.0080  0.2482
68578W        W11490  16.266   2.070  26.511 -0.0808 -0.0419  0.3439
68579W        W11491  18.394   0.732  26.777 -0.1204 -0.1541  0.1361
68580W        W11492  14.377   4.111  26.934  0.0144  0.1504  0.0613
68581W        W11493  16.527   3.317  24.834  0.0410  0.2127  0.1975
68582W        W11494  14.838   2.135  24.394 -0.0978  0.1074 -0.0695
68583W        W11495  14.815   0.153  27.768  0.1214 -0.3802 -0.1094
68584W        W11496  17.510   0.897  25.547  0.0967  0.2265  0.0606
68585W        W11497  16.135   3.485  23.363 -0.0975 -0.0472  0.3160
68586W        W11498  17.974   1.517  27.485  0.0721  0.1216  0.2775
68587W        W11499  15.893   2.909  26.001 -0.2366 -0.2980  0.3078
68588W        W11500  14.565   2.450  26.553 -0.0525 -0.2583  0.0272
68589W        W11501  17.215   2.309  26.629 -0.1115 -0.1286  0.0955
68590W        W11502  15.596   0.261  24.476  0.0762 -0.0814  0.2907
68591W        W11503  18.387   0.174  24.689  0.1649 -0.1134  0.2258
68592W        W11504  16.147   1.796  27.303  0.0109 -0.0042 -0.1533
68593W        W11505  17.889   0.681  25.976 -0.2687  0.1709  0.2368
68594W        W11506  15.521   0.298  25.120 -0.0246  0.0292  0.2966
68595W        W11507  17.845   2.233  24.384  0.1718  0.0230 -0.1733
68596W        W11508  15.402   4.024  28.872  0.3099  0.0159 -0.3451
68597W        W11509  14.085  34.338  24.948 -0.0868  0.1851  0.1841
68598W        W11510  15.948   1.356  23.721 -0.1386 -0.1041 -0.5261
68599W        W11511  18.499   2.541  25.134  0.0680 -0.0721 -0.1453
68600W        W11512  17.156   2.572  23.245 -0.1441  0.0397 -0.0124
68601W        W11513  15.388   3.453  26.509  0.2899 -0.3269  0.1957
68602W        W11514  14.588   0.689  25.034 -0.1738 -0.1400  0.0391
68603W        W11515  15.133   1.227  24.261  0.0326  0.0679  0.0509
68604W        W11516  14.897   1.725  25.420 -0.1058 -0.2537  0.0706
68605W        W11517  16.352   2.776  26.180 -0.0718  0.1740  0.0498
68606W        W11518  17.658   1.106  28.633  0.3998 -0.0243  0.4828
68607W        W11519  15.089   0.145  22.828  0.1588 -0.0048  0.0140
68608W        W11520  18.249   2.060  23.620 -0.1072 -0.0472 -0.0478
68609W        W11521  16.039   0.387  26.366 -0.2816 -0.0046  0.0861
68610W        W11522  16.251   2.873  25.625  0.2045  0.2044 -0.0908
68611W        W11523  17.521   3.116  24.760 -0.7502 -0.2336  0.2023
68612W        W11524  16.270   2.241  26.041  0.0007  0.1148  0.2517
68613W        W11525  14.717   0.614  27.777  0.1040  0.1868 -0.1461
68614W        W11526  17.095   3.291  27.439  0.0590 -0.1094 -0.2244
68615W        W11527  18.157   2.386  24.740 -0.0508  0.1606  0.2478
68616W        W11528  16.352   0.911  24.639 -0.2228  0.0244  0.2832
68617W        W11529  15.066   0.625  25.954  0.1101 -0.0488 -0.0534
68618W        W11530  15.025   3.492  24.653  0.1017 -0.0003  0.2772
68619W        W11531  17.348   0.936  24.210 -0.2918  0.0379 -0.2899
68620W        W11532  16.306   0.698  27.604  0.0486 -0.3080 -0.0542
68621W        W11533  16.799   3.565  23.419 -0.0138 -0.2377 -0.1115
68622W        W11534  15.810  33.820  27.145  0.0709 -0.1508 -0.0944
68623W        W11535  16.600   2.557  26.566 -0.2100 -0.0359 -0.0980
68624W        W11536  16.914   3.717  28.367 -0.0530 -0.1222  0.1242
68625W        W11537  14.934   2.043  23.507  0.1998 -0.2442  0.6489
68626W        W11538  16.276   2.549  28.658  0.0581  0.2572 -0.0134
68627W        W11539  15.345   1.748  23.093  0.0340  0.0274  0.1490
68628W        W11540  16.758   2.736  25.255  0.0472 -0.2068  0.3298
68629W        W11541  18.678   3.245  24.974  0.0755  0.2266 -0.1002
68630W        W11542  16.341   1.028  23.977 -0.2406 -0.1990 -0.5646
68631W        W11543  18.552   3.128  24.488 -0.0687 -0.3597 -0.1827
68632W        W11544  15.989  34.146  26.266 -0.2529 -0.1135  0.0896
68633W        W11545  17.376   0.391  22.451 -0.1161  0.0686 -0.1819
68634W        W11546  16.449  34.317  23.862  0.1862  0.0457  0.4434
68635W        W11547  14.663   0.849  26.739  0.2327 -0.0542  0.2278
68636W        W11548  14.331   0.850  24.488  0.1318  0.2039  0.1043
68637W        W11549  16.283   2.022  23.090 -0.2100 -0.2121  0.1608
68638W        W11550  14.532   0.143  24.049 -0.1700  0.0549 -0.0927
68639W        W11551  15.492  34.433  28.915 -0.0862  0.2765  0.0844
68640W        W11552  15.100   1.430  27.428 -0.0982  0.1805  0.2070
68641W        W11553  14.670   2.423  25.839  0.1696 -0.1685  0.1075
68642W        W11554  15.444   0.755  26.333 -0.2180  0.1853  0.1851
68643W        W11555  17.567   2.698  23.562  0.0507  0.0214  0.1249
68644W        W11556  15.501   0.619  25.680 -0.0043  0.0123  0.2304
68645W        W11557  15.678   0.151  25.690 -0.1249  0.4659 -0.3219
68646W        W11558  16.823   2.338  24.507  0.0243  0.1092 -0.1979
68647W        W11559  16.651   3.203  24.356 -0.0355  0.4628  0.6681
68648W        W11560  16.436   0.581  24.150 -0.0389 -0.0562 -0.2593
68649W        W11561  17.228   3.962  26.386  0.2359  0.0406  0.1961
68650W        W11562  14.064   1.689  24.300 -0.2319 -0.0809 -0.2284
68651W        W11563  15.723   0.146  28.551 -0.0710  0.1543 -0.1819
68652W        W11564  16.337   0.308  27.929  0.1418  0.1905 -0.2078
68653W        W11565  15.200   0.323  23.266  0.0273  0.0533 -0.0758
68654W        W11566  15.854   0.728  26.039  0.2487 -0.0400 -0.0422
68655W        W11567  17.295   1.879  25.730  0.2268 -0.2405  0.2295
68656W        W11568  17.375   4.273  22.332 -0.0459 -0.3130  0.0034
68657W        W11569  16.184   3.398  25.909 -0.0408  0.0728 -0.7272
68658W        W11570  16.328   5.419  27.115 -0.0938 -0.1063 -0.0235
68659W        W11571  13.730   0.117  24.501  0.1799  0.0350 -0.0070
68660W        W11572  16.499   2.295  24.000 -0.1436  0.2171 -0.2516
68661W        W11573  18.237   1.681  28.906  0.3517  0.0315  0.1162
68662W        W11574  17.099   3.093  23.407  0.1240  0.1770  0.0647
68663W        W11575  17.310   0.632  26.046 -0.1070 -0.4838  0.0462
68664W        W11576  16.788   0.749  23.772  0.0860 -0.0398  0.0791
68665W        W11577  15.860  34.645  26.160  0.0726 -0.1683  0.2084
68666W        W11578  16.031   4.081  26.494 -0.0775  0.0010 -0.0011
68667W        W11579  17.797   0.574  25.062  0.4330  0.1915  0.1722
68668W        W11580  16.032  34.569  24.581 -0.2085  0.2989 -0.1156
68669W        W11581  15.409  34.508  24.082  0.2478  0.1154 -0.1679
68670W        W11582  15.744   2.176  22.992  0.0763  0.3234  0.0342
68671W        W11583  14.832   0.586  26.364  0.1114 -0.0284 -0.0628
68672W        W11584  16.794   1.736  24.892  0.1106 -0.2540  0.4455
68673W        W11585  15.807   2.094  26.237 -0.0896 -0.2311 -0.1243
68674W        W11586  16.720   2.470  26.056  0.4718  0.2387  0.1968
68675W        W11587  18.014   1.910  26.237  0.3413  0.0962  0.1752
68676W        W11588  15.294   0.676  24.410 -0.1581 -0.0935 -0.1654
68677W        W11589  17.016   2.256  24.053  0.1092  0.3079  0.1463
68678W        W11590  17.564   3.447  26.594  0.1070 -0.3911  0.1479
68679W        W11591  18.169   2.721  27.500 -0.4294 -0.2175  0.0762
68680W        W11592  15.610   3.822  26.733  0.0096  0.0196 -0.0139
68681W        W11593  18.258   1.514  25.207 -0.0473  0.1376  0.1793
68682W        W11594  15.435  33.979  25.540 -0.2839 -0.1073 -0.2459
68683W        W11595  15.332   1.685  26.861  0.2625 -0.0298  0.0232
68684W        W11596  15.396   1.897  25.632 -0.0726  0.2611  0.8893
68685W        W11597  16.297   1.623  25.904 -0.0463 -0.1831 -0.0802
68686W        W11598  15.445   0.299  26.130 -0.0353 -0.2536 -0.0787
68687W        W11599  15.777   1.607  25.003 -0.2269 -0.2833 -0.0746
68688W        W11600  15.626   3.337  26.943 -0.1669  0.0806 -0.2489
68689W        W11601  16.457   1.609  24.557  0.2441  0.1345  0.0218
68690W        W11602  15.063   1.993  29.655  0.1463 -0.1244  0.0430
68691W        W11603  14.559  34.507  28.511  0.0648  0.1472  0.3552
68692W        W11604  17.119   1.026  27.181  0.0148 -0.1100 -0.0999
68693W        W11605  19.085   2.627  26.768 -0.0143  0.0099 -0.0784
68694W        W11606  14.934  34.513  28.958 -0.0486  0.1291 -0.0832
68695W        W11607  16.696   3.174  29.282  0.0406 -0.0674  0.0015
68696W        W11608  16.609   0.202  31.025  0.0348  0.1900 -0.2399
68697W        W11609  18.457   2.456  30.288 -0.3411 -0.4272  0.0133
68698W        W11610  18.327   3.034  27.870  0.1731 -0.0348 -0.0749
68699W        W11611  17.058   1.799  27.520 -0.1950 -0.1234  0.0460
68700W        W11612  17.504   1.938  28.946  0.1069 -0.1102  0.1364
68701W        W11613  16.090   2.462  30.586 -0.0528  0.1867  0.4102
68702W        W11614  16.179  34.107  28.686 -0.0019 -0.0515  0.3039
68703W        W11615  15.321  33.046  30.409  0.0181 -0.4022 -0.0950
68704W        W11616  16.944   1.564  29.534 -0.2045 -0.3690 -0.0363
68705W        W11617  14.678   2.497  28.544  0.1312  0.1705  0.0492
68706W        W11618  15.149   0.696  29.711 -0.2282 -0.1060 -0.4878
68707W        W11619  15.904   1.212  28.159  0.2260 -0.2091 -0.1989
68708W        W11620  16.801   2.799  30.115  0.2920  0.1397 -0.1966
68709W        W11621  16.926   1.744  28.917 -0.3127 -0.2626  0.1434
68710W        W11622  16.381  34.509  31.268 -0.0661  0.0034  0.2401
68711W        W11623  17.695   3.295  28.125  0.1812  0.1963  0.2462
68712W        W11624  15.703   2.221  28.124  0.0814 -0.0098  0.1611
68713W        W11625  14.658   0.903  29.757  0.2946 -0.0470  0.2370
68714W        W11626  15.014   1.491  30.545 -0.0682 -0.2826 -0.1304
68715W        W11627  16.461   0.529  28.800  0.1647  0.2110  0.0634
68716W        W11628  18.763   2.059  28.504  0.0675  0.1198 -0.0310
68717W        W11629  15.789   2.198  29.138 -0.0391 -0.0214 -0.3860
68718W        W11630  16.920   2.597  28.536 -0.2306  0.1278  0.3144
68719W        W11631  17.067   1.629  30.764  0.3798 -0.0408 -0.1263
68720W        W11632  13.003   3.029  29.252 -0.4027  0.0853  0.0716
68721W        W11633  15.124   4.209  29.384 -0.3285  0.0382 -0.0607
68722W        W11634  16.799   2.498  29.704  0.2155 -0.0524  0.0863
68723W        W11635  17.872   2.330  28.072 -0.3124  0.2880 -0.1308
68724W        W11636  18.793   3.274  29.945  0.0534 -0.1266 -0.0559
68725W        W11637  16.225   3.827  30.884 -0.4439  0.0118 -0.2360
68726W        W11638  15.172   3.060  28.658  0.0344  0.0742 -0.0324
68727W        W11639  17.052   4.641  30.257  0.0403  0.1204  0.0076
68728W        W11640  16.144   3.188  29.450 -0.0520 -0.0249  0.2736
68729W        W11641  17.573   1.078  29.092  0.3176 -0.0472 -0.2184
68730W        W11642  15.457   1.816  29.425 -0.0489 -0.1833 -0.1354
68731W        W11643  17.251   3.014  27.986  0.0694  0.0266 -0.0939
68732W        W11644  17.479   1.645  28.527  0.2048 -0.2784  0.2715
68733W        W11645  15.143   2.439  30.894 -0.0652 -0.2276 -0.1265
68734W        W11646  15.717   3.447  28.700  0.0722  0.1308 -0.1002
68735W        W11647  17.994   0.736  31.509 -0.2739  0.0845  0.1480
68736W        W11648  16.089   3.066  30.325  0.0608  0.3471 -0.0336
68737W        W11649  16.269   1.168  26.731  0.2106 -0.2122 -0.0995
68738W        W11650  15.801   0.929  26.928 -0.0365 -0.0479 -0.0165
68739W        W11651  18.099   1.542  28.439 -0.2622  0.2119 -0.2805
68740W        W11652  15.919  34.622  29.846 -0.0409 -0.4741  0.0090
68741W        W11653  15.724   4.927  28.971 -0.2091  0.0154  0.2377
68742W        W11654  14.997   0.880  30.509  0.0714  0.2596  0.0172
68743W        W11655  17.683   3.348  29.588  0.2271  0.2539 -0.0802
68744W        W11656  14.722  34.055  29.028 -0.3149  0.0666  0.0405
68745W        W11657  17.852   0.613  30.359  0.1158  0.3709 -0.1292
68746W        W11658  16.069   2.135  30.188 -0.2323  0.0957  0.2663
68747W        W11659  14.633   1.480  29.041 -0.0261  0.0106 -0.2063
68748W        W11660  17.393   2.978  26.572  0.1366  0.0299 -0.3236
68749W        W11661  18.078   3.669  28.161  0.1953 -0.2051 -0.1787
68750W        W11662  16.674   2.980  28.174 -0.0279  0.0884 -0.0534
68751W        W11663  14.782   1.323  28.547 -0.0007  0.0491  0.0139
68752W        W11664  14.305   3.088  29.081  0.1195 -0.0056  0.0363
68753W        W11665  15.727   1.521  30.262  0.0912  0.2106 -0.2002
68754W        W11666  14.311  34.681  27.569 -0.0524  0.0244 -0.0879
68755W        W11667  18.183   2.535  30.792  0.1596 -0.1121  0.0927
68756W        W11668  15.220   3.057  29.626  0.4461 -0.0891 -0.2654
68757W        W11669  17.102   0.011  28.234  0.1551  0.1510 -0.0004
68758W        W11670  16.424   1.688  29.244 -0.0634  0.1244 -0.0491
68759W        W11671  17.714   4.361  30.034 -0.0891 -0.0862  0.0275
68760W        W11672  18.105   1.882  27.120 -0.2155 -0.1112  0.0705
68761W        W11673  17.172   1.081  29.441  0.0685  0.2125  0.1534
68762W        W11674  17.049   2.010  30.350 -0.0565 -0.4307 -0.3234
68763W        W11675  16.084   1.684  28.227 -0.1418  0.0648  0.1817
68764W        W11676  16.180   2.077  28.454 -0.4178  0.0629 -0.1356
68765W        W11677  18.633   3.802  29.422 -0.0341  0.2207 -0.3990
68766W        W11678  16.371   1.252  27.208 -0.0303  0.0584 -0.1054
68767W        W11679  14.772   4.197  29.767  0.1011  0.2734 -0.0617
68768W        W11680  16.706   0.714  30.900 -0.0198  0.1046  0.1734
68769W        W11681  16.827   2.251  30.942  0.1312  0.1552  0.1058
68770W        W11682  15.271   2.983  27.003  0.1180  0.0960  0.2826
68771W        W11683  13.531   2.228  29.149 -0.0327  0.0887  0.1496
68772W        W11684  14.230   3.048  28.077  0.3147 -0.2352  0.0727
68773W        W11685  14.151   0.096  29.415  0.0484  0.0330  0.0348
68774W        W11686  14.329   1.710  30.045  0.0483 -0.1477 -0.1119
68775W        W11687  17.006  34.277  27.806  0.1202  0.0955  0.0466
68776W        W11688  15.254   1.830  30.230 -0.0405 -0.1072  0.1637
68777W        W11689  18.236  33.047  29.435  0.0300 -0.1711  0.1591
68778W        W11690  14.851   3.327  29.242  0.0458 -0.0564  0.1779
68779W        W11691  17.205   4.163  27.642 -0.1864  0.2509  0.0881
68780W        W11692  18.167   2.196  27.591 -0.0253 -0.2915 -0.3811
68781W        W11693  17.563   2.124  26.305  0.0330  0.2022 -0.0329
68782W        W11694  15.107   1.009  30.048 -0.2626 -0.2002  0.2922
68783W        W11695  15.330   0.647  28.564 -0.1640  0.0947  0.1422
68784W        W11696  14.682  34.466  31.244  0.0779  0.1685 -0.0164
68785W        W11697  16.020  33.537  30.122 -0.0169  0.1480  0.2382
68786W        W11698  18.032   2.068  30.928 -0.2989  0.0821  0.3666
68787W        W11699  14.026  33.025  26.462 -0.3132  0.1884  0.3988
68788W        W11700  17.431   0.104  29.286  0.4951  0.6106  0.0189
68789W        W11701  17.011   2.074  28.385 -0.2048 -0.1147 -0.2319
68790W        W11702  15.203   2.959  29.138  0.0927  0.1698  0.0909
68791W        W11703  16.611   2.084  31.463 -0.3415 -0.1152 -0.0874
68792W        W11704  16.545   3.789  27.940 -0.0575 -0.3839 -0.2889
68793W        W11705  17.346   3.413  31.243  0.2174  0.0338  0.0930
68794W        W11706  18.400   4.581  29.440 -0.0749 -0.0970 -0.5477
68795W        W11707  15.971   1.042  30.202 -0.0207  0.1442  0.0468
68796W        W11708  15.437  34.295  27.097  0.4423 -0.2073  0.2372
68797W        W11709  15.612   4.092  29.419  0.0227  0.2397 -0.2048
68798W        W11710  15.923   1.141  29.106 -0.2570  0.1315 -0.2230
68799W        W11711  17.147  34.258  28.608  0.1425 -0.0366 -0.2702
68800W        W11712  17.303   2.678  28.861  0.0218  0.1519  0.0016
68801W        W11713  17.099   2.869  29.674 -0.2917  0.1866 -0.0731
68802W        W11714  15.296   3.640  29.463  0.0713 -0.0319  0.0464
68803W        W11715  17.288   0.483  30.352  0.1815 -0.1645 -0.3039
68804W        W11716  19.842   2.159  31.128  0.1814 -0.3359  0.1418
68805W        W11717  17.143   1.553  27.080  0.1896  0.0030 -0.2184
68806W        W11718  13.727  34.529  26.517 -0.1024  0.2101 -0.1543
68807W        W11719  17.383   2.713  28.377  0.2606 -0.0816 -0.3801
68808W        W11720  16.203   3.156  27.187 -0.0636  0.0375  0.1272
68809W        W11721  15.243   2.076  28.294  0.2821 -0.2893  0.1184
68810W        W11722  17.567   2.870  30.420 -0.0245 -0.2429 -0.2467
68811W        W11723  17.713   0.462  29.396 -0.0917 -0.3050 -0.1275
68812W        W11724  14.513   1.603  30.546 -0.1093  0.2287  0.4845
68813W        W11725  18.139   2.461  29.901 -0.0677 -0.0867 -0.1199
68814W        W11726  14.948   1.217  28.056 -0.0105 -0.1830 -0.0056
68815W        W11727  15.484   2.248  30.110 -0.0312  0.1768  0.1641
68816W        W11728  16.856  34.661  28.731  0.0668  0.3019  0.1044
68817W        W11729  18.728   1.202  28.198  0.0386 -0.0968 -0.1052
68818W        W11730  17.744   2.316  30.185 -0.0924  0.3904 -0.0548
68819W        W11731  19.049   0.817  28.542 -0.2035 -0.1208  0.0897
68820W        W11732  17.615   1.127  27.240  0.5523 -0.0188  0.0872
68821W        W11733  16.737   0.706  27.349 -0.0455 -0.2494 -0.0926
68822W        W11734  15.733   3.409   0.240 -0.1798  0.0144  0.0323
68823W        W11735  16.350   1.693  28.697 -0.0641 -0.2907 -0.0586
68824W        W11736  15.813   2.324  28.652  0.1773  0.1428  0.0023
68825W        W11737  16.025   0.099  26.885  0.0198 -0.0787  0.0235
68826W        W11738  17.224   2.517  27.967 -0.3246  0.2567  0.1594
68827W        W11739  15.511   3.593  30.340 -0.0871  0.2026 -0.0519
68828W        W11740  17.634   3.351  30.741  0.2051  0.0514 -0.2830
68829W        W11741  17.069   3.138  28.932  0.1270  0.2316 -0.1547
68830W        W11742  16.667   0.750  29.360  0.3170  0.0743 -0.1233
68831W        W11743  15.620   1.689  27.321 -0.1374 -0.1355  0.1178
68832W        W11744  15.763   0.577  28.283  0.2264 -0.1474 -0.2037
68833W        W11745  15.510   4.529  29.190 -0.1489  0.0919 -0.1995
68834W        W11746  18.387   0.880  28.398 -0.0619  0.0057  0.0281
68835W        W11747  16.936   0.868  28.933  0.3573  0.1646  0.1346
68836W        W11748  16.277   0.864  30.558 -0.1510 -0.2876 -0.2011
68837W        W11749  18.543   1.367  30.226 -0.0093  0.0214 -0.3105
68838W        W11750  16.866   0.346  29.055 -0.1298  0.1522 -0.1539
68839W        W11751  17.282   1.269  29.911  0.0928  0.0540 -0.0211
68840W        W11752  15.153   0.708  28.127 -0.0308 -0.3587 -0.0338
68841W        W11753  17.010   0.824  30.040  0.0057 -0.1768 -0.0608
68842W        W11754  15.660   2.295  29.638 -0.0026  0.3321 -0.0991
68843W        W11755  15.854   3.578  29.666 -0.0955  0.0852  0.2374
68844W        W11756  18.117   3.803  29.438  0.1411 -0.0549  0.0581
68845W        W11757  17.847   2.579  28.525  0.0938 -0.2443 -0.2162
68846W        W11758  17.588   0.384  30.887 -0.0759 -0.0999 -0.0153
68847W        W11759  16.207  34.579  28.572  0.2557 -0.1914 -0.2773
68848W        W11760  14.912   4.471  28.871  0.2049  0.1949 -0.0654
68849W        W11761  16.155   2.356  29.777  0.2985 -0.2592  0.0981
68850W        W11762  15.758  34.032  29.027  0.2828 -0.1803 -0.3009
68851W        W11763  17.709   3.854  29.038  0.1161 -0.0014 -0.0212
68852W        W11764  15.477   4.218  27.024 -0.1378  0.2075 -0.1455
68853W        W11765  18.825   1.757  31.429 -0.1194 -0.0003  0.0728
68854W        W11766  16.168   3.032  28.398  0.0166  0.2487  0.0298
68855W        W11767  17.840  33.707  28.108  0.1793 -0.2960 -0.1755
68856W        W11768  14.329   4.941  29.398 -0.1346 -0.1060 -0.1978
68857W        W11769  15.635   1.066  28.707 -0.2498  0.1662  0.1284
68858W        W11770  15.203   1.609  28.497 -0.1078 -0.1095 -0.2257
68859W        W11771  16.166   0.390  28.448 -0.4015  0.0407  0.1573
68860W        W11772  18.419   0.759  27.902  0.0538 -0.0969 -0.0414
68861W        W11773  16.002   0.566  30.113 -0.0458 -0.2944  0.0564
68862W        W11774  16.508   1.780  29.732 -0.1672  0.2088 -0.2232
68863W        W11775  14.595   3.889  28.060 -0.0419 -0.2762 -0.0392
68864W        W11776  16.761   2.737  31.033  0.1015 -0.1251 -0.3922
68865W        W11777  16.140  34.286  29.194  0.1323 -0.1866 -0.0664
68866W        W11778  16.784   2.407  30.416 -0.0022  0.2435 -0.1237
68867W        W11779  15.740   1.901  31.055 -0.1418 -0.2122  0.2228
68868W        W11780  13.129   1.940  28.372 -0.0589 -0.2593  0.1808
68869W        W11781  18.460   1.891  30.103 -0.1466  0.3933  0.1621
68870W        W11782  16.180   0.558  29.187 -0.2035  0.3244 -0.0226
68871W        W11783  15.738   3.195  28.211 -0.0928  0.2995  0.0636
68872W        W11784  17.535   3.937  30.342  0.0991 -0.0368  0.1866
68873W        W11785  14.336   1.907  27.362 -0.0734  0.3238  0.2909
68874W        W11786  15.389   2.043  28.839  0.2782 -0.0993 -0.0382
68875W        W11787  16.115   1.657  30.646 -0.1256  0.1363 -0.0342
68876W        W11788  17.297   2.071  30.973  0.1132  0.1517 -0.1129
68877W        W11789  16.313  34.606  30.674  0.0724 -0.0651  0.0460
68878W        W11790  14.501  33.763  28.666 -0.0508  0.1028  0.0290
68879W        W11791  16.684   1.238  29.281  0.0718 -0.0288  0.1392
68880W        W11792  17.301   2.403  30.468  0.2969 -0.4571  0.2759
68881W        W11793  17.415   1.779  29.996  0.1381  0.0734  0.1379
68882W        W11794  15.107   2.415  30.398  0.2570 -0.0354 -0.1504
68883W        W11795  15.087   0.387  31.212 -0.2360  0.2062  0.1819
68884W        W11796  17.209   3.646  27.862  0.0822  0.1956  0.0812
68885W        W11797  17.906   1.560  31.643  0.0033  0.0274  0.4038
68886W        W11798  15.213   2.573  28.734  0.0687 -0.0224  0.2696
68887W        W11799  14.941   1.277  29.530  0.0616 -0.0607 -0.2692
68888W        W11800  13.869   1.801  29.417  0.2115 -0.2641  0.0867
68889W        W11801  16.316   0.040  29.016 -0.2642  0.2337 -0.0966
68890W        W11802  15.603   3.210  29.310  0.2172 -0.2957  0.0190
68891W        W11803  15.595   2.649  29.109 -0.0543 -0.0990  0.1888
68892W        W11804  14.093   4.481  29.610  0.2408 -0.1253  0.1654
68893W        W11805  16.499   0.696  28.220 -0.0822 -0.0246  0.1579
68894W        W11806  17.719   1.341  28.141 -0.2475  0.0126 -0.0480
68895W        W11807  16.295  34.626  29.493 -0.1458 -0.0494 -0.2820
68896W        W11808  16.445   1.034  31.716 -0.3314 -0.0406  0.0894
68897W        W11809  17.712   1.950  27.405  0.2199  0.1059  0.1761
68898W        W11810  16.691  33.631  31.030 -0.2576 -0.1914  0.2537
68899W        W11811  15.476   0.011  30.455  0.0889 -0.0967  0.0612
68900W        W11812  17.794   2.680  29.557  0.0123  0.0931  0.1605
68901W        W11813  15.802   0.634  28.812 -0.0847 -0.2661 -0.2938
68902W        W11814  17.347   2.812  31.388  0.1431  0.0798  0.0517
68903W        W11815  16.034   0.787  31.541  0.0823 -0.0057  0.0693
68904W        W11816  17.422  33.756  29.502 -0.0586  0.2757 -0.1585
68905W        W11817  15.468  33.619  28.695 -0.0543 -0.1317  0.2216
68906W        W11818  15.840   1.457  29.719  0.1539  0.0108 -0.2373
68907W        W11819  18.250   1.212  28.832  0.3169  0.0677  0.0620
68908W        W11820  16.901   2.106  27.917  0.0637  0.4934  0.0482
68909W        W11821  18.985   0.543  28.946  0.0325  0.0815 -0.1847
68910W        W11822  15.205   2.525  29.753  0.0278 -0.1214  0.1225
68911W        W11823  17.961   0.597  27.421  0.1504  0.1219  0.1070
68912W        W11824  16.796   1.515  27.909 -0.1048  0.2534 -0.0309
68913W        W11825  16.027   1.937  29.563  0.1636 -0.0869 -0.1461
68914W        W11826  15.910   1.177  30.739 -0.0412 -0.3388  0.1941
68915W        W11827  17.919   3.004  29.880 -0.1587 -0.1006 -0.3372
68916W        W11828  16.605  34.090  29.441  0.0698 -0.2802  0.1959
68917W        W11829  17.655   1.855  30.422 -0.3431  0.2647 -0.2963
68918W        W11830  18.182   0.362  30.649  0.2294  0.0072  0.2124
68919W        W11831  16.771   2.069  29.424 -0.0215  0.0325 -0.2620
68920W        W11832  15.994  34.152  31.454  0.1477  0.1222  0.2646
68921W        W11833  19.313   3.934  30.280 -0.3838 -0.1687 -0.4533
68922W        W11834  18.173   1.776  27.889 -0.2890 -0.0495 -0.2465
68923W        W11835  17.450   1.294  30.924 -0.4469 -0.1117 -0.3216
68924W        W11836  17.860   0.644  28.879 -0.0646 -0.1852 -0.0433
68925W        W11837  16.674   1.005  27.863  0.0818 -0.0902  0.1204
68926W        W11838  15.390   0.275  28.927 -0.2547 -0.1935 -0.3489
68927W        W11839  17.261   0.875  31.802 -0.0940  0.2270  0.2112
68928W        W11840  13.888   0.291  27.823 -0.0132  0.2912  0.1959
68929W        W11841  18.147   1.527   0.111  0.1013  0.4191 -0.1543
68930W        W11842  17.397   4.378  28.120 -0.0155  0.0954 -0.0824
68931W        W11843  17.775   1.521  28.897  0.0723 -0.0283 -0.2429
68932W        W11844  16.977   0.949  28.436 -0.1298  0.1163  0.0348
68933W        W11845  14.686   0.825  28.751  0.2567  0.2241 -0.3003
68934W        W11846  15.740   3.974  29.965  0.1115 -0.1063  0.0599
68935W        W11847  15.499   0.723  27.333  0.2252  0.2177  0.1732
68936W        W11848  16.603   2.126  28.708  0.1851  0.0946 -0.4520
68937W        W11849  15.861   3.048  30.767 -0.0693 -0.1840  0.0765
68938W        W11850  19.117   1.433  31.040  0.0944  0.1921 -0.1375
68939W        W11851  15.692  34.267  28.391  0.0914 -0.3072 -0.0641
68940W        W11852  18.310   1.246  30.670  0.0361 -0.3241  0.2300
68941W        W11853  13.880   4.138  26.652 -0.1252  0.0340 -0.1648
68942W        W11854  16.729  34.342  28.318 -0.0501  0.1692  0.0627
68943W        W11855  15.689   2.784  29.578 -0.0579  0.0707 -0.0899
68944W        W11856  14.810   2.232  28.977  0.1663  0.0219 -0.0136
68945W        W11857  16.746   2.640  29.230  0.0024 -0.1151  0.2966
68946W        W11858  17.857  33.479  29.423  0.1247 -0.0171  0.0437
68947W        W11859  16.954   0.453  28.477  0.0809 -0.0056  0.2189
68948W        W11860  18.553   2.124  29.095 -0.0370 -0.1123 -0.1747
68949W        W11861  18.864   1.886  30.944  0.1622  0.2682  0.0404
68950W        W11862  17.114   3.114  30.828 -0.1851 -0.0214  0.2696
68951W        W11863  15.816   0.620  30.533 -0.3609  0.0056 -0.0183
68952W        W11864  17.974   3.962  30.118  0.1532 -0.0190  0.0718
68953W        W11865  18.341   3.129  30.000 -0.2810 -0.1221  0.1144
68954W        W11866  15.592   1.003  29.815  0.0635 -0.1008 -0.0330
68955W        W11867  14.405   0.602  30.718  0.0650 -0.0752 -0.1175
68956W        W11868  18.113   1.591  30.342  0.1267  0.3061 -0.0114
68957W        W11869  17.461   2.966  29.242 -0.0547 -0.1033  0.0564
68958W        W11870  15.235  34.156  29.274  0.2669 -0.1001 -0.1970
68959W        W11871  17.079   2.335  27.443 -0.3931  0.0177 -0.2284
68960W        W11872  14.998   2.827  30.583 -0.0180 -0.1854 -0.3011
68961W        W11873  12.981   0.860  30.942 -0.1745 -0.3489 -0.0012
68962W        W11874  15.334   4.533  27.362  0.1497  0.0381 -0.1018
68963W        W11875  17.564   3.589  27.407 -0.1572  0.0654  0.1544
68964W        W11876  16.062   0.864  29.585 -0.0767 -0.2655  0.2678
68965W        W11877  17.272   3.451  29.275  0.0194  0.2010 -0.0016
68966W        W11878  14.104  34.155  28.831 -0.4146 -0.0205 -0.0818
68967W        W11879  15.667   1.862  29.928 -0.3158 -0.0954 -0.0763
68968W        W11880  13.901   3.205  26.295 -0.1088 -0.1291  0.1901
68969W        W11881  17.059   3.219  28.397 -0.0543 -0.1004  0.2211
68970W        W11882  16.125   4.051  29.255 -0.0618 -0.5064 -0.0045
68971W        W11883  17.659   2.815   0.003  0.0588 -0.0397 -0.1008
68972W        W11884  17.642   0.121  27.355  0.0335 -0.2604 -0.2542
68973W        W11885  18.560   2.544  28.543 -0.1484 -0.0144 -0.0044
68974W        W11886  17.267   0.652  29.159  0.1532 -0.2084  0.1834
68975W        W11887  16.574   1.677  31.003  0.0720  0.1180  0.1685
68976W        W11888  15.909   0.730  31.031  0.0030  0.0613  0.0409
68977W        W11889  16.847   0.515  27.901  0.2120 -0.1170  0.2133
68978W        W11890  16.780   1.143  29.790  0.2399  0.1995  0.0845
68979W        W11891  18.232   1.172  31.694  0.0236 -0.0463  0.0709
68980W        W11892  15.072   3.784  29.960  0.0193  0.0849 -0.3405
68981W        W11893  17.958   3.920  27.252  0.3333  0.0768 -0.1382
68982W        W11894  15.894   1.716  27.777  0.0366  0.0115 -0.1308
68983W        W11895  15.528   1.525  28.901 -0.1064  0.0834  0.0998
68984W        W11896  17.251  34.468  30.847  0.0589 -0.2655 -0.1756
68985W        W11897  16.413   1.331  28.292  0.1117  0.2042  0.1881
68986W        W11898  15.411   0.838  29.191 -0.0719 -0.0905 -0.1756
68987W        W11899  15.493   3.771  27.447  0.1845  0.0515 -0.0671
68988W        W11900  15.311   1.513  29.817  0.0778 -0.0306  0.1089
68989W        W11901  15.472   3.127  30.507 -0.2962 -0.2469 -0.0767
68990W        W11902  15.651   0.857  27.900 -0.1547 -0.0086  0.0361
68991W        W11903  18.982   2.359  29.001  0.0489 -0.0071 -0.0529
68992W        W11904  16.246   1.657  30.088  0.2566 -0.1073 -0.0684
68993W        W11905  16.650  34.507  29.920 -0.3173  0.0601 -0.4355
68994W        W11906  14.889   0.807  29.272 -0.1755 -0.3220  0.2641
68995W        W11907  17.396   0.569  28.658  0.2610  0.0107 -0.0521
68996W        W11908  17.259   2.529  29.377  0.3126  0.4223 -0.0938
68997W        W11909  15.781   3.471  31.696  0.1066  0.2624 -0.1978
68998W        W11910  15.901   1.629  29.199 -0.1470 -0.1681  0.3554
68999W        W11911  18.895   2.405  31.244 -0.0132 -0.2081  0.3852
69000W        W11912  16.675   1.295  28.737  0.2106  0.2243  0.0028
69001W        W11913  18.035   4.237  29.644  0.0246 -0.0427 -0.1456
69002W        W11914  16.100   0.368  29.708  0.0826 -0.1004  0.1145
69003W        W11915  17.191   1.229  28.015  0.0759 -0.0757  0.1932
69004W        W11916  15.576   2.645  28.343 -0.3476 -0.0733  0.0773
69005W        W11917  17.480   2.689  29.959 -0.1059 -0.0654  0.2303
69006W        W11918  18.373   3.450  29.078  0.3075  0.0000  0.0130
69007W        W11919  14.826  34.631  29.443  0.0095 -0.0722 -0.0682
69008W        W11920  18.868   2.108  26.903 -0.0836  0.2204 -0.0031
69009W        W11921  17.571   0.198  29.954  0.2160 -0.1190  0.1143
69010W        W11922  16.494   4.016  28.852  0.0365 -0.1672  0.0011
69011W        W11923  18.024   1.391  29.368 -0.0527 -0.1690 -0.1071
69012W        W11924  18.120   2.393  29.294  0.0386  0.1076  0.0992
69013W        W11925  14.468   0.418  29.103  0.3328  0.2005  0.1707
69014W        W11926  17.115   4.154  30.683 -0.0168 -0.0266 -0.1867
69015W        W11927  19.055   2.928  29.151 -0.0517  0.3130  0.2026
69016W        W11928  16.892  34.581  29.354 -0.0138 -0.1298 -0.1704
69017W        W11929  15.273  33.982  28.261  0.0118 -0.1256  0.3085
69018W        W11930  16.206   2.630  27.236  0.2089 -0.1416 -0.1451
69019W        W11931  19.710   0.008  29.115  0.0332  0.1840 -0.2700
69020W        W11932  16.976   1.482  28.397  0.0510  0.2907 -0.0885
69021W        W11933  16.800   2.660  27.805 -0.2232  0.1549  0.4223
69022W        W11934  17.982  33.968  31.288  0.2789  0.0731 -0.0455
69023W        W11935  17.107   2.314  31.425  0.0498 -0.4163  0.3558
69024W        W11936  16.486   1.255  30.763 -0.1897 -0.0372  0.1821
69025W        W11937  15.150   1.195  28.892  0.0427 -0.0307  0.0844
69026W        W11938  17.175   2.276  29.923 -0.0198  0.1386  0.1307
69027W        W11939  17.159   3.731  29.688 -0.1057  0.1749  0.2686
69028W        W11940  15.731   2.945  28.718  0.0158 -0.2043 -0.0451
69029W        W11941  17.949   2.859  29.140 -0.0784  0.2786  0.0429
69030W        W11942  17.733   1.853  28.144 -0.0209  0.2931  0.0453
69031W        W11943  18.925   2.061  29.431 -0.2211  0.0877 -0.1282
69032W        W11944  15.282  34.630  29.320 -0.1265 -0.1969 -0.1476
69033W        W11945  18.666   0.154  28.916 -0.3824  0.1798  0.1140
69034W        W11946  17.129  33.900  28.061 -0.2228  0.0411 -0.0802
69035W        W11947  15.448   1.286  29.350 -0.0746 -0.1420  0.2942
69036W        W11948  14.661   2.919  27.785 -0.4498  0.2413  0.0115
69037W        W11949  14.797   2.307  28.113 -0.1829 -0.2433  0.2845
69038W        W11950  15.205   2.341  29.266 -0.0151  0.1790 -0.1287
69039W        W11951  16.042   0.199  31.336  0.1145  0.3940  0.2503
69040W        W11952  14.903   0.215  31.725  0.0803 -0.0938  0.2179
69041W        W11953  15.084   1.678  29.097 -0.0191  0.0835 -0.0798
69042W        W11954  14.454  33.978  27.134 -0.2076 -0.3063  0.0176
69043W        W11955  17.587   3.034  28.666  0.0764  0.1591 -0.0475
69044W        W11956  16.351   0.998  29.039  0.3592 -0.1171  0.1027
69045W        W11957  14.846   0.239  28.762 -0.0599  0.0106 -0.0451
69046W        W11958  17.274   1.968  29.397 -0.2298 -0.1647 -0.1818
69047W        W11959  17.835   2.828  28.003  0.4591  0.1883  0.0394
69048W        W11960  15.989   1.384  28.638 -0.1417 -0.0482  0.0531
69049W        W11961  17.645   2.341  31.193  0.0242  0.2724  0.0531
69050W        W11962  13.824   3.256  29.258 -0.0617 -0.3888  0.1553
69051W        W11963  17.367   1.442  30.400  0.0337 -0.1961  0.0059
69052W        W11964  17.303   1.386  31.458  0.1937 -0.1060 -0.0600
69053W        W11965  13.739   0.731  27.948 -0.0463  0.0257  0.2402
69054W        W11966  16.448   2.093  30.581 -0.1771 -0.2141 -0.2138
69055W        W11967  16.342   2.812  29.710  0.2104 -0.0376 -0.4302
69056W        W11968  16.894   4.033  27.058 -0.1007 -0.1181 -0.4141
69057W        W11969  17.044   2.213  28.977 -0.4401 -0.0302  0.4089
69058W        W11970  17.703   2.815  31.002 -0.1207 -0.2372 -0.0829
69059W        W11971  15.126  34.398  30.245 -0.0402  0.1826 -0.1855
69060W        W11972  17.868   1.963  28.629 -0.0052  0.2645 -0.0680
69061W        W11973  17.708   2.477  30.677  0.3522  0.0210 -0.2112
69062W        W11974  17.671   2.521  27.586 -0.0079  0.2294  0.1828
69063W        W11975  18.041   0.138  30.194 -0.0954  0.0499  0.1236
69064W        W11976  16.726  34.238  28.980  0.2392  0.0260 -0.1017
69065W        W11977  15.837   0.170  30.829  0.1668  0.0951 -0.1300
69066W        W11978  14.835   2.721  30.095 -0.1340  0.1445  0.0617
69067W        W11979  18.471   1.476  31.172 -0.2679 -0.1317  0.3463
69068W        W11980  16.248   0.395  30.695 -0.4839 -0.1857  0.0751
69069W        W11981  17.937   0.305  27.867  0.0940  0.0348  0.3332
69070W        W11982  17.183   2.809  27.515 -0.0682 -0.2230  0.0666
69071W        W11983  13.180   1.233  30.342  0.2040  0.0077 -0.1476
69072W        W11984  17.395   0.799  28.165  0.0325  0.2407 -0.3345
69073W        W11985  18.408   1.809  30.727  0.1243 -0.2808  0.0881
69074W        W11986  17.740   2.199  29.580  0.0161  0.0307 -0.0917
69075W        W11987  17.390   3.176  31.711  0.0234  0.2301 -0.2199
69076W        W11988  14.797   2.020  28.561  0.0245 -0.0139 -0.1300
69077W        W11989  18.740   2.891  28.199  0.1890  0.0119  0.0690
69078W        W11990  16.870   3.299  29.750 -0.3327 -0.0372  0.2246
69079W        W11991  17.512   3.849  30.973 -0.0500 -0.2037 -0.0003
69080W        W11992  16.573   3.715  31.298  0.0517  0.0819  0.0012
69081W        W11993  18.448   0.659  28.885  0.1660  0.1458  0.2360
69082W        W11994  15.287  34.607  30.921  0.1677 -0.3325 -0.2284
69083W        W11995  14.362   1.960  29.124  0.1423 -0.0230  0.0816
69084W        W11996  16.301   2.168  29.090  0.0365 -0.1036  0.2490
69085W        W11997  18.010   0.864  29.316  0.0987  0.0138  0.0326
69086W        W11998  16.289   1.313  29.706  0.0896  0.1430  0.0338
69087W        W11999  16.871  33.053  29.495  0.1422  0.2384  0.0279
69088W        W12000  16.133   2.118  30.955  0.0544  0.2979  0.1535
69089W        W12001  17.386   3.185  30.039  0.0536 -0.0759  0.0552
69090W        W12002  17.046   0.562   0.213 -0.2077 -0.3363  0.0461
69091W        W12003  18.126   2.165  30.419 -0.1792  0.1211  0.2396
69092W        W12004  15.542   2.131  31.426 -0.2631  0.0398 -0.0319
69093W        W12005  15.217   3.196  31.365 -0.0727 -0.0216 -0.0867
69094W        W12006  17.356   4.438   0.532  0.1682 -0.3324  0.0033
69095W        W12007  15.316   2.891  30.095  0.2161  0.1358  0.2666
69096W        W12008  18.584   0.278  31.538  0.2780  0.1355  0.1900
69097W        W12009  16.548   1.192  30.262  0.1652  0.1593  0.1160
69098W        W12010  18.198   1.065  31.217  0.1152  0.1742  0.2577
69099W        W12011  18.586   2.607  31.959 -0.1452  0.2854 -0.0651
69100W        W12012  16.749   3.296  31.129  0.2399 -0.2729 -0.0713
69101W        W12013  15.729  33.749  30.513 -0.2484 -0.3869  0.4618
69102W        W12014  18.092   2.511   0.057  0.0836  0.0742  0.2242
69103W        W12015  17.001   1.564   0.270 -0.0803  0.1936 -0.0817
69104W        W12016  19.321   1.159  31.470 -0.1395  0.1951 -0.0106
69105W        W12017  16.100   2.003  31.522  0.0828 -0.1357 -0.2222
69106W        W12018  15.715   1.706   0.553 -0.0129 -0.0910 -0.1355
69107W        W12019  16.945   3.468  31.589  0.0017  0.1164 -0.1737
69108W        W12020  14.643   0.205  30.956 -0.0636  0.0320 -0.0465
69109W        W12021  14.685  34.661   1.503  0.0599 -0.1662  0.0460
69110W        W12022  16.277   0.370  31.709  0.0232  0.0098  0.4483
69111W        W12023  15.303   2.548  31.340 -0.2567 -0.4366  0.0788
69112W        W12024  17.989   0.291  31.177  0.0368 -0.3322  0.3780
69113W        W12025  16.531   2.186  30.076 -0.0431  0.2227  0.0390
69114W        W12026  17.019   0.189  30.726  0.0114 -0.2404 -0.2476
69115W        W12027  15.120  34.613  31.382  0.0977 -0.0603  0.1592
69116W        W12028  16.635   1.664  30.454 -0.0762  0.2591 -0.0039
69117W        W12029  15.254   3.655  31.920 -0.1620  0.1339  0.1692
69118W        W12030  15.401   0.660  30.878 -0.1926  0.1056  0.2104
69119W        W12031  15.483   1.475  30.807  0.1079  0.0032 -0.0276
69120W        W12032  15.920   2.525  31.548 -0.3460  0.1070  0.1736
69121W        W12033  15.720   1.664  31.552  0.0073  0.3064 -0.2817
69122W        W12034  17.618   2.338   0.141 -0.1457  0.3921  0.2968
69123W        W12035  16.845  34.397  31.203 -0.2325  0.0529  0.3706
69124W        W12036  15.790   0.987  31.928 -0.0838 -0.0216 -0.1162
69125W        W12037  14.597   0.926  31.811 -0.2804 -0.4535 -0.0978
69126W        W12038  16.389   3.293  31.596 -0.0086  0.0281 -0.0723
69127W        W12039  16.975   3.923   0.305 -0.1979  0.3578 -0.1382
69128W        W12040  16.441   2.109   0.768  0.2573  0.1093 -0.3367
69129W        W12041  16.224   2.554  31.155  0.3471 -0.1898  0.0066
69130W        W12042  19.852   0.894  30.900  0.0123 -0.0305  0.0033
69131W        W12043  16.788   0.653  31.759 -0.0321  0.0700 -0.1655
69132W        W12044  15.422  34.173   0.320 -0.1231  0.1963  0.3517
69133W        W12045  16.800   3.957  31.677 -0.3470 -0.1497 -0.1483
69134W        W12046  15.020   1.123   0.007 -0.1075  0.1540  0.1029
69135W        W12047  16.422   0.769  29.918 -0.0744  0.4100  0.0577
69136W        W12048  15.805  34.116   0.772  0.0546 -0.2194 -0.0095
69137W        W12049  18.048   2.743  30.260 -0.3942  0.0297 -0.4213
69138W        W12050  16.583   3.001   0.022 -0.1496 -0.1894 -0.0637
69139W        W12051  15.154   3.243  30.865 -0.0274 -0.3332 -0.1895
69140W        W12052  16.740   3.431   1.462  0.2135  0.2125  0.3623
69141W        W12053  17.346  31.782  31.324 -0.2419 -0.0972 -0.5658
69142W        W12054  16.150   0.210   0.234 -0.1660 -0.1761 -0.0179
69143W        W12055  15.857   2.647  30.104  0.0282 -0.0147 -0.2991
69144W        W12056  17.589   1.714  31.183  0.2435  0.0890  0.0690
69145W        W12057  17.552   2.020  31.602 -0.1318  0.0214 -0.3476
69146W        W12058  19.284   3.718  31.362  0.1635 -0.0090 -0.0210
69147W        W12059  15.702   3.349  31.152 -0.1595  0.1902 -0.2553
69148W        W12060  15.722   3.664  29.205 -0.0982  0.2893  0.0337
69149W        W12061  14.720   1.447  31.432 -0.1511  0.2265  0.0983
69150W        W12062  14.536   1.969  31.425 -0.0988 -0.0241 -0.0441
69151W        W12063  15.908   3.869   0.390  0.1552 -0.1405 -0.0974
69152W        W12064  14.405   2.779  29.695  0.4038 -0.1439  0.0278
69153W        W12065  14.518   0.157  30.422 -0.0547  0.0686  0.1343
69154W        W12066  17.964   3.592  31.067  0.1705 -0.1881  0.0249
69155W        W12067  18.726   3.462  31.420  0.1834  0.1844  0.3748
69156W        W12068  18.455   2.147  31.133 -0.3585 -0.0340  0.0334
69157W        W12069  15.770   4.998  19.431 -0.3747  0.1157 -0.1661
69158W        W12070  14.666   4.607  16.749  0.0989  0.1784 -0.0611
69159W        W12071  17.540   4.235  16.553 -0.2446  0.2580 -0.1124
69160W        W12072  18.054   4.997  16.923  0.0535  0.0474  0.1327
69161W        W12073  13.954   5.332  17.185  0.2716  0.0468  0.3674
69162W        W12074  15.703   7.070  17.084 -0.1097 -0.1035 -0.0778
69163W        W12075  16.217   5.424  20.283  0.3794  0.1408  0.1285
69164W        W12076  15.851   5.368  17.602  0.0966 -0.0133  0.2250
69165W        W12077  17.347   6.732  18.602  0.2792 -0.3070  0.4256
69166W        W12078  17.163   4.114  16.248  0.1471  0.0354 -0.0964
69167W        W12079  14.795   5.415  17.301  0.0648 -0.0842  0.1115
69168W        W12080  16.925   4.879  18.958  0.0202  0.0915 -0.1845
69169W        W12081  16.805   3.344  16.007  0.2899  0.0793  0.2097
69170W        W12082  13.457   3.353  17.774 -0.2045  0.0783  0.0042
69171W        W12083  16.055   5.666  18.046 -0.0229 -0.1133 -0.1928
69172W        W12084  14.681   7.059  17.458  0.0592 -0.0758 -0.1292
69173W        W12085  14.624   5.890  19.594 -0.0968  0.2730  0.3365
69174W        W12086  16.504   4.037  17.981 -0.3046  0.2851 -0.1854
69175W        W12087  16.703   8.183  17.366  0.2324 -0.0128  0.1538
69176W        W12088  14.844   4.893  17.439  0.1529  0.1775  0.1332
69177W        W12089  17.253   4.458  18.821  0.2583  0.2567 -0.1195
69178W        W12090  17.583   5.718  16.549  0.1381 -0.4610 -0.1616
69179W        W12091  13.594   4.507  16.761 -0.4306  0.0246  0.0723
69180W        W12092  14.145   6.197  17.116 -0.1486 -0.1036 -0.1567
69181W        W12093  14.793   5.440  17.863 -0.1660 -0.0399  0.3082
69182W        W12094  17.664   3.428  17.608 -0.1407  0.0590  0.1876
69183W        W12095  18.815   3.355  17.613  0.1029 -0.0888  0.1154
69184W        W12096  14.551   7.622  17.304  0.2464 -0.0289 -0.1715
69185W        W12097  16.445   6.151  17.359 -0.0551 -0.1801  0.0281
69186W        W12098  18.744   5.216  17.543  0.1822  0.0391 -0.4542
69187W        W12099  15.216   5.749  17.620  0.2661  0.1427 -0.1640
69188W        W12100  13.304   7.398  16.338  0.3240 -0.0518 -0.0240
69189W        W12101  16.213   7.068  15.628 -0.2870  0.0332 -0.3012
69190W        W12102  16.805   7.136  17.320  0.1683 -0.1396  0.0290
69191W        W12103  18.332   7.140  18.223 -0.1703 -0.0576 -0.2062
69192W        W12104  15.518   6.588  20.157 -0.0715  0.2053 -0.0249
69193W        W12105  15.303   5.628  16.105  0.0383  0.3395 -0.1881
69194W        W12106  16.649   6.074  18.985 -0.0143  0.1517 -0.0250
69195W        W12107  16.509   6.578  18.650 -0.2392  0.0115  0.1403
69196W        W12108  16.326   5.231  17.745  0.0633 -0.0569 -0.1508
69197W        W12109  16.716   6.147  18.238 -0.0112  0.1855 -0.1287
69198W        W12110  16.894   7.535  16.510  0.1582  0.0193  0.0906
69199W        W12111  15.917   7.669  16.793 -0.1733 -0.2278  0.0760
69200W        W12112  17.086   6.169  20.264  0.1047  0.4328  0.0555
69201W        W12113  14.338   6.761  17.730  0.1300 -0.0928  0.2473
69202W        W12114  18.612   3.612  18.794 -0.0356  0.1230 -0.0767
69203W        W12115  16.117   7.376  16.441  0.0127 -0.0217 -0.2837
69204W        W12116  18.409   4.566  16.172  0.1724 -0.0267  0.3385
69205W        W12117  17.334   4.473  15.944  0.0964  0.3280 -0.0254
69206W        W12118  17.122   3.573  15.570  0.1318  0.0691 -0.2094
69207W        W12119  16.213   4.027  16.604 -0.0630 -0.1873 -0.0893
69208W        W12120  14.880   6.142  18.510  0.0673 -0.3807 -0.0439
69209W        W12121  15.498   4.812  17.648 -0.0066 -0.1373  0.0651
69210W        W12122  18.339   6.793  19.632  0.0937 -0.1254  0.0935
69211W        W12123  15.913   4.343  16.289  0.2520 -0.1250  0.0829
69212W        W12124  17.022   4.908  16.995  0.0174  0.2295  0.3417
69213W        W12125  15.680   5.794  19.417  0.0654  0.1062  0.1709
69214W        W12126  15.375   6.659  17.841  0.0103  0.0376 -0.0176
69215W        W12127  18.262   5.461  15.570 -0.2817  0.1309 -0.0432
69216W        W12128  17.023   9.435  18.227 -0.0569  0.1071  0.0701
69217W        W12129  17.411   6.779  15.940  0.1203  0.1766  0.1064
69218W        W12130  13.990   5.116  16.618  0.1608 -0.1762 -0.0180
69219W        W12131  14.464   5.020  18.111 -0.0111  0.1137 -0.1066
69220W        W12132  13.914   4.841  17.402 -0.0607 -0.1563 -0.0123
69221W        W12133  16.408   3.279  16.268 -0.1441 -0.1219  0.1692
69222W        W12134  18.207   6.297  19.624  0.1873 -0.1490  0.0039
69223W        W12135  13.979   7.602  16.879  0.3926 -0.1976 -0.2022
69224W        W12136  17.463   5.109  17.260  0.3437  0.2342  0.1358
69225W        W12137  15.724   7.678  17.329  0.0019 -0.3275  0.1990
69226W        W12138  18.352   6.284  17.217  0.0265 -0.0337  0.2297
69227W        W12139  15.969   5.523  15.604 -0.0294 -0.0818 -0.2359
69228W        W12140  18.155   3.025  18.413 -0.0202 -0.0405  0.1668
69229W        W12141  17.044   3.127  18.815 -0.2928  0.3070  0.0377
69230W        W12142  15.970   5.762  16.719  0.0454  0.0291 -0.3008
69231W        W12143  16.328   5.814  15.809 -0.2013 -0.1894  0.0773
69232W        W12144  18.867   5.483  19.644 -0.0484 -0.0275 -0.0191
69233W        W12145  17.339   6.254  16.152 -0.4834  0.0926  0.2601
69234W        W12146  15.304   6.500  18.805 -0.1742 -0.0769  0.2577
69235W        W12147  15.577   4.006  18.153  0.2318 -0.0609  0.2554
69236W        W12148  16.844   6.028  17.709  0.2486 -0.2013  0.0252
69237W        W12149  16.279   7.272  16.928  0.0366 -0.0542  0.2609
69238W        W12150  14.044   5.878  18.113  0.2080 -0.2787  0.2515
69239W        W12151  15.653   6.367  15.715 -0.0265 -0.1153 -0.0173
69240W        W12152  14.623   5.770  16.386 -0.4951 -0.1642 -0.3709
69241W        W12153  15.171   6.152  17.942  0.1459 -0.0476 -0.0352
69242W        W12154  17.065   3.928  16.769 -0.1769 -0.0947 -0.1187
69243W        W12155  14.896   3.458  17.714  0.3333  0.1125 -0.1400
69244W        W12156  18.403   3.101  17.464  0.5778 -0.1077  0.0410
69245W        W12157  16.054   6.715  17.175 -0.0031  0.1379  0.0130
69246W        W12158  17.734   7.911  16.598 -0.2237 -0.0355  0.0789
69247W        W12159  16.634   5.035  16.418 -0.0501 -0.2965  0.0702
69248W        W12160  17.051   7.092  16.211 -0.1261 -0.0772 -0.1251
69249W        W12161  15.212   4.932  18.706  0.0077 -0.3148  0.0412
69250W        W12162  15.948   4.959  17.262 -0.1449  0.1870  0.2295
69251W        W12163  16.574   4.626  19.252  0.2154 -0.0577 -0.1845
69252W        W12164  15.743   4.480  19.028  0.0970 -0.1832  0.0407
69253W        W12165  19.164   5.965  18.849 -0.2681  0.1565  0.0351
69254W        W12166  15.575   2.928  15.780 -0.1430 -0.0303  0.1919
69255W        W12167  17.143   3.601  18.465 -0.3427 -0.1138 -0.1220
69256W        W12168  15.819   4.814  16.784  0.1259  0.0007 -0.1134
69257W        W12169  15.302   6.896  16.244  0.0281 -0.1519  0.2070
69258W        W12170  18.726   3.210  18.497  0.1329  0.1363 -0.0757
69259W        W12171  15.868   8.567  16.225  0.0006 -0.2014  0.0823
69260W        W12172  17.745   6.720  19.163  0.0419 -0.3083  0.0708
69261W        W12173  15.910   6.060  17.229  0.0372 -0.4016 -0.2877
69262W        W12174  15.055   3.782  19.055  0.0320  0.0005 -0.1835
69263W        W12175  16.546   4.140  17.023  0.0421 -0.0491  0.0103
69264W        W12176  14.656   8.090  17.533  0.0935  0.1872  0.1869
69265W        W12177  15.249   6.938  17.367 -0.3933 -0.1505  0.2284
69266W        W12178  15.468   4.165  16.100  0.1473 -0.1974 -0.1767
69267W        W12179  15.781   6.319  18.015 -0.0071  0.1671 -0.2788
69268W        W12180  15.721   6.617  16.234 -0.4191 -0.0650  0.0589
69269W        W12181  14.860   5.221  18.932 -0.1415 -0.1001  0.2670
69270W        W12182  17.446   4.431  18.188 -0.3999 -0.2363 -0.6276
69271W        W12183  18.272   5.205  17.362 -0.1515  0.1051  0.1516
69272W        W12184  16.954   4.186  17.316  0.2798 -0.0304 -0.1624
69273W        W12185  13.492   4.259  16.297 -0.1599  0.1827 -0.3363
69274W        W12186  16.971   7.338  18.972  0.0817  0.0823  0.0638
69275W        W12187  15.203   6.480  16.029  0.1418  0.2087  0.1563
69276W        W12188  15.320   6.460  16.529  0.1198  0.0542  0.0670
69277W        W12189  16.912   7.002  18.664 -0.0864  0.0296  0.0171
69278W        W12190  17.715   5.727  17.803 -0.2626  0.2759 -0.1030
69279W        W12191  13.872   5.634  20.303 -0.1028  0.2133  0.4222
69280W        W12192  16.625   5.195  18.639  0.0786  0.0596 -0.0760
69281W        W12193  15.818   5.299  16.865 -0.2075 -0.0559 -0.0248
69282W        W12194  16.267   6.215  19.280 -0.2753  0.1750  0.0347
69283W        W12195  16.668   4.144  16.439  0.2386 -0.3171 -0.0249
69284W        W12196  17.660   4.118  15.709  0.3937 -0.1300 -0.1172
69285W        W12197  17.041   6.022  18.670  0.3286  0.1873 -0.3080
69286W        W12198  18.648   5.963  16.969  0.0549  0.1194  0.3567
69287W        W12199  17.728   4.732  17.385 -0.1031  0.1372  0.5409
69288W        W12200  16.985   4.692  16.387 -0.0284  0.0298 -0.0661
69289W        W12201  13.380   5.700  18.393 -0.2275 -0.0648 -0.1004
69290W        W12202  16.431   5.800  16.822 -0.2743 -0.0622 -0.1557
69291W        W12203  17.389   6.711  18.120 -0.0523  0.2118 -0.0950
69292W        W12204  16.636   4.578  17.163 -0.3506 -0.0075  0.0707
69293W        W12205  17.794   5.401  16.885 -0.2763  0.0280  0.1970
69294W        W12206  13.916   6.183  19.034  0.0543 -0.0245  0.2806
69295W        W12207  16.074   4.880  19.031  0.2885  0.1712  0.0512
69296W        W12208  15.658   7.177  16.600 -0.1502  0.0788 -0.2209
69297W        W12209  15.472   4.905  18.254 -0.0664 -0.0708  0.4894
69298W        W12210  16.901   4.809  17.700 -0.0137  0.2986  0.0989
69299W        W12211  16.893   2.277  17.655  0.0026  0.1919 -0.0106
69300W        W12212  14.680   7.476  16.444  0.0209 -0.3187  0.2382
69301W        W12213  17.022   4.462  19.293 -0.2233 -0.0093 -0.0113
69302W        W12214  16.025   4.260  18.110  0.0996  0.2579 -0.1835
69303W        W12215  17.018   3.745  19.085  0.0797  0.0295 -0.0715
69304W        W12216  18.201   4.356  19.738  0.0649  0.3597 -0.1346
69305W        W12217  17.683   5.221  16.305  0.0703 -0.2166 -0.0720
69306W        W12218  17.174   5.653  17.940  0.0026  0.5111  0.1621
69307W        W12219  14.001   4.301  16.492  0.0394  0.1271 -0.1689
69308W        W12220  15.410   4.016  17.048  0.0139  0.1312  0.1735
69309W        W12221  14.728   5.524  16.812 -0.2972 -0.3009 -0.1470
69310W        W12222  14.648   6.635  18.520 -0.1192 -0.1821  0.1495
69311W        W12223  16.215   5.137  18.341  0.0309 -0.0227 -0.1033
69312W        W12224  17.459   4.764  16.329  0.0459 -0.0208  0.2763
69313W        W12225  15.918   3.779  19.706  0.2083  0.1659  0.2847
69314W        W12226  15.161   4.507  16.745 -0.0452  0.0558 -0.1460
69315W        W12227  16.223   7.796  18.144  0.2756 -0.0439 -0.1069
69316W        W12228  16.262   5.314  16.569 -0.0827  0.1791 -0.0105
69317W        W12229  16.154   4.507  17.085  0.1689 -0.1056 -0.3980
69318W        W12230  16.621   6.467  17.845  0.1285 -0.2231  0.0975
69319W        W12231  16.952   6.552  16.082  0.2150 -0.1694  0.1405
69320W        W12232  17.501   5.915  19.323 -0.0190 -0.2545 -0.1583
69321W        W12233  16.459   7.647  16.678  0.0391 -0.0011 -0.2178
69322W        W12234  16.711   4.321  18.820  0.0322 -0.0051 -0.2670
69323W        W12235  14.182   7.484  17.622  0.0667  0.1838  0.0380
69324W        W12236  15.473   5.860  16.545  0.1365 -0.2413 -0.1692
69325W        W12237  15.499   6.161  16.915  0.0154  0.1231 -0.2484
69326W        W12238  17.046   4.349  17.895 -0.1582 -0.0949 -0.1521
69327W        W12239  17.063   6.953  15.612 -0.2135  0.0052  0.5225
69328W        W12240  16.173   5.837  18.938 -0.3796  0.1739  0.0544
69329W        W12241  17.924   4.613  17.871  0.1083  0.3347  0.2771
69330W        W12242  14.045   6.520  18.016  0.1901  0.5239 -0.0999
69331W        W12243  15.934   5.204  19.886 -0.1219  0.0067  0.0918
69332W        W12244  17.114   3.348  16.842 -0.0884  0.1348 -0.1304
69333W        W12245  18.763   6.899  18.228 -0.0043  0.1083 -0.0878
69334W        W12246  16.000   6.032  19.720  0.0120  0.0418 -0.1035
69335W        W12247  14.844   3.910  16.519  0.0498  0.1834  0.2887
69336W        W12248  19.165   7.137  19.513  0.0180  0.1193  0.1699
69337W        W12249  15.591   4.494  18.032 -0.1459  0.0518  0.0549
69338W        W12250  15.341   5.360  16.877  0.0177  0.2129 -0.0996
69339W        W12251  16.264   8.047  19.133 -0.2628  0.0146 -0.1336
69340W        W12252  15.597   6.135  16.129  0.2226  0.0903 -0.2100
69341W        W12253  15.294   5.371  18.056  0.0352 -0.0503  0.2065
69342W        W12254  15.188   4.245  19.789  0.0069 -0.0831 -0.2051
69343W        W12255  18.241   5.955  17.729 -0.0336  0.1818 -0.1267
69344W        W12256  15.700   4.489  17.292 -0.1488 -0.3734  0.2315
69345W        W12257  14.924   5.038  16.916  0.0670 -0.0298  0.1759
69346W        W12258  14.805   6.506  18.064  0.2440  0.1146 -0.0302
69347W        W12259  17.876   6.941  18.199 -0.2764 -0.2528  0.0815
69348W        W12260  14.326   5.301  18.904  0.2464 -0.1562  0.4222
69349W        W12261  15.216   6.588  19.376  0.1775  0.0618  0.0180
69350W        W12262  17.740   2.784  18.347 -0.0383 -0.1211 -0.0283
69351W        W12263  18.397   6.923  17.362 -0.1455  0.1421 -0.1246
69352W        W12264  16.924   6.622  18.294 -0.0211 -0.0061 -0.0617
69353W        W12265  14.444   6.623  16.724  0.0696  0.1104 -0.0766
69354W        W12266  13.963   6.504  17.506  0.1724 -0.0839  0.0646
69355W        W12267  15.920   6.259  16.524 -0.0470  0.2339 -0.0631
69356W        W12268  14.931   4.976  17.940  0.0050 -0.1372 -0.2509
69357W        W12269  15.054   5.816  17.076  0.2552 -0.2133  0.1915
69358W        W12270  16.180   6.500  15.625 -0.0130  0.4689  0.0700
69359W        W12271  14.804   5.941  17.480  0.0909 -0.1251 -0.2608
69360W        W12272  17.250   5.241  16.685  0.0537 -0.1157 -0.2569
69361W        W12273  16.957   5.426  15.803  0.2446  0.0431  0.0627
69362W        W12274  16.036   3.390  17.323  0.0201 -0.1794 -0.1180
69363W        W12275  17.718   4.242  19.774  0.0388 -0.0528 -0.0088
69364W        W12276  17.973   4.716  16.476  0.0321  0.4399 -0.2782
69365W        W12277  16.641   2.130  19.208 -0.0905 -0.2630  0.2206
69366W        W12278  16.422   4.705  18.653  0.0649 -0.0219 -0.0291
69367W        W12279  16.208   6.292  16.926  0.2586  0.3180 -0.3356
69368W        W12280  15.423   4.609  19.438 -0.1913  0.0676 -0.0546
69369W        W12281  17.220   6.909  19.870 -0.1043 -0.0920  0.0675
69370W        W12282  14.126   6.080  20.425  0.3074  0.0872  0.1154
69371W        W12283  15.998   4.033  17.289  0.2164  0.0172 -0.0939
69372W        W12284  14.561   3.431  18.182 -0.2042  0.1460  0.1099
69373W        W12285  15.752   5.310  18.243  0.1187  0.2673 -0.0909
69374W        W12286  17.189   6.319  16.850  0.0522  0.0701 -0.0402
69375W        W12287  16.404   6.113  15.394  0.1186 -0.2170 -0.2586
69376W        W12288  17.678   4.897  18.203 -0.1273 -0.4189 -0.2467
69377W        W12289  15.192   6.667  18.337  0.1155 -0.0824 -0.2992
69378W        W12290  17.119   5.113  16.192  0.0020  0.2873 -0.1368
69379W        W12291  17.147   5.615  16.219 -0.0742 -0.0682 -0.2297
69380W        W12292  13.592   7.308  16.714  0.1837 -0.3297  0.2247
69381W        W12293  15.863   3.841  17.775  0.2273 -0.1040 -0.3246
69382W        W12294  16.966   6.197  16.414  0.1257 -0.2065 -0.2808
69383W        W12295  17.128   4.943  18.103 -0.0769 -0.0505 -0.1785
69384W        W12296  16.475   5.697  18.605  0.1104 -0.0142 -0.0502
69385W        W12297  18.344   4.423  18.560  0.0997  0.1454 -0.0371
69386W        W12298  15.088   5.774  18.275 -0.0917 -0.1990  0.0180
69387W        W12299  16.401   4.215  18.481  0.1664 -0.0191 -0.2908
69388W        W12300  17.470   5.781  18.401 -0.0522 -0.0290  0.2306
69389W        W12301  18.052   4.983  15.301  0.0788 -0.2386  0.2832
69390W        W12302  19.035   3.799  18.428  0.0223 -0.2931 -0.1586
69391W        W12303  17.250   5.240  17.678  0.0420 -0.1380 -0.2143
69392W        W12304  16.068   4.146  15.802 -0.0409  0.3367 -0.2741
69393W        W12305  15.479   3.288  18.283  0.3029  0.0228 -0.1740
69394W        W12306  17.018   5.858  19.300 -0.0646 -0.1761 -0.0720
69395W        W12307  15.170   4.077  15.609 -0.1257 -0.0439  0.0064
69396W        W12308  17.546   4.400  19.344  0.3065  0.1980  0.0838
69397W        W12309  16.682   7.231  15.800  0.0958  0.2296  0.1919
69398W        W12310  15.692   6.631  16.821 -0.0671  0.0252  0.2768
69399W        W12311  16.448   5.359  15.610  0.0373 -0.0092  0.1059
69400W        W12312  13.462   4.685  17.681  0.1325 -0.4122 -0.0641
69401W        W12313  13.643   7.455  17.833 -0.1234  0.4092 -0.0646
69402W        W12314  14.936   4.334  16.264 -0.1127 -0.2147  0.0581
69403W        W12315  16.157   4.996  15.804  0.1917 -0.0617 -0.0817
69404W        W12316  17.743   5.962  18.791  0.1909 -0.0117 -0.0614
69405W        W12317  17.186   6.072  19.777  0.2057  0.1731  0.0293
69406W        W12318  16.138   2.924  16.462  0.0475  0.3983 -0.1823
69407W        W12319  18.690   5.255  18.091 -0.1582 -0.1166 -0.0067
69408W        W12320  14.701   6.991  16.469  0.0317 -0.0570 -0.0743
69409W        W12321  17.432   4.690  17.761 -0.0322  0.0716  0.1763
69410W        W12322  16.544   7.714  19.579  0.2477 -0.0734  0.0059
69411W        W12323  14.845   5.303  18.383 -0.0482 -0.0773  0.3143
69412W        W12324  14.869   6.515  17.528 -0.4128  0.0392 -0.0524
69413W        W12325  16.562   3.440  19.003 -0.0637  0.0892  0.0216
69414W        W12326  16.957   4.057  18.309 -0.2969  0.3544 -0.1020
69415W        W12327  17.245   6.233  17.880 -0.1216 -0.2720  0.0572
69416W        W12328  18.078   5.273  19.019 -0.1172  0.0736 -0.0917
69417W        W12329  15.595   5.783  18.154  0.1364  0.1170  0.1817
69418W        W12330  15.274   5.308  17.429 -0.1038  0.1400  0.1319
69419W        W12331  17.264   7.162  18.401  0.1416  0.0071  0.2752
69420W        W12332  16.988   5.711  16.715  0.0689 -0.3022  0.5733
69421W        W12333  14.421   6.411  19.404  0.4609  0.1030 -0.1907
69422W        W12334  14.545   5.522  20.284 -0.1699  0.0061 -0.1065
69423W        W12335  16.752   4.489  18.295  0.0300 -0.0588 -0.0561
69424W        W12336  17.430   5.832  16.966  0.0560  0.0028  0.0130
69425W        W12337  15.987   3.270  18.245  0.0484  0.0191  0.4453
69426W        W12338  16.559   6.214  15.993 -0.1945 -0.1004 -0.1873
69427W        W12339  15.463   6.354  19.721  0.0510 -0.0776  0.0760
69428W        W12340  13.036   5.406  18.895  0.2313  0.3179 -0.1474
69429W        W12341  14.954   7.869  16.719 -0.0873 -0.2633  0.2121
69430W        W12342  16.655   5.527  16.307  0.3001 -0.2369 -0.1125
69431W        W12343  15.127   6.514  17.048 -0.2235  0.0035 -0.2464
69432W        W12344  18.596   7.428  16.995 -0.0680  0.4324 -0.0470
69433W        W12345  14.684   4.299  15.647 -0.1551  0.4322 -0.2055
69434W        W12346  14.584   8.086  16.435  0.0583  0.0656  0.2365
69435W        W12347  14.267   7.142  16.608 -0.0154 -0.1767  0.1381
69436W        W12348  16.938   6.709  16.601 -0.0297  0.2369 -0.2683
69437W        W12349  15.368   7.450  16.993 -0.1897 -0.1327 -0.3135
69438W        W12350  17.907   6.232  20.087  0.2158  0.0013  0.1536
69439W        W12351  18.725   3.841  17.322  0.1741 -0.0072 -0.0940
69440W        W12352  19.220   6.826  18.263  0.1658  0.1983  0.0253
69441W        W12353  18.192   5.811  16.500  0.0917 -0.3243  0.0391
69442W        W12354  17.801   6.321  21.499 -0.0589 -0.0322  0.2281
69443W        W12355  15.264   5.824  18.788  0.0164 -0.3926 -0.2036
69444W        W12356  16.316   4.974  16.939  0.0409  0.0416  0.2107
69445W        W12357  15.944   4.589  18.525 -0.0122  0.2396  0.2100
69446W        W12358  18.020   3.638  19.066 -0.1114  0.0927  0.1858
69447W        W12359  14.652   8.014  19.494 -0.2313 -0.0945 -0.0203
69448W        W12360  17.657   7.069  17.205  0.0478  0.1871  0.2994
69449W        W12361  14.397   5.170  15.876  0.0800  0.0744 -0.1502
69450W        W12362  16.706   5.284  16.895  0.2326  0.2822  0.0045
69451W        W12363  18.735   4.084  18.706 -0.1133  0.0897  0.1313
69452W        W12364  16.680   5.009  15.909 -0.0036  0.1717 -0.3635
69453W        W12365  16.835   3.707  17.164 -0.2276 -0.0990 -0.2143
69454W        W12366  14.629   8.953  16.515 -0.0223  0.2641 -0.0356
69455W        W12367  16.074   6.413  18.818 -0.1340  0.2052  0.0289
69456W        W12368  15.623   6.137  18.854  0.1321 -0.1319 -0.3884
69457W        W12369  14.773   4.784  16.100  0.1185 -0.3195  0.1826
69458W        W12370  18.646   5.635  17.846  0.2491 -0.1319  0.3576
69459W        W12371  14.382   5.498  18.320  0.2379 -0.1280  0.1314
69460W        W12372  17.996   3.123  18.930 -0.1822  0.0341 -0.1337
69461W        W12373  16.603   5.113  17.385  0.4935 -0.1853  0.3838
69462W        W12374  16.535   3.912  17.495  0.2320  0.0391 -0.3293
69463W        W12375  16.053   6.529  17.661 -0.1309  0.2323 -0.1859
69464W        W12376  14.223   4.417  18.118  0.0507  0.0166 -0.1700
69465W        W12377  15.784   5.688  16.157  0.0013 -0.1212  0.0520
69466W        W12378  17.953   5.751  19.231 -0.1883  0.1382  0.3216
69467W        W12379  18.422   4.756  15.646  0.2133  0.1787  0.0320
69468W        W12380  16.599   7.025  18.309 -0.4979 -0.1762  0.1612
69469W        W12381  15.076   4.650  18.285 -0.0495  0.0245 -0.1381
69470W        W12382  16.201   5.386  16.039 -0.0312  0.0434 -0.1779
69471W        W12383  14.337   5.887  18.600 -0.3230 -0.0654  0.3535
69472W        W12384  16.811   5.547  18.919  0.0291  0.2568 -0.0747
69473W        W12385  19.001   6.024  20.879 -0.0657  0.1304 -0.0365
69474W        W12386  13.941   3.462  17.072 -0.1049  0.2308 -0.2040
69475W        W12387  18.651   6.176  15.814  0.1523 -0.2095 -0.1595
69476W        W12388  18.052   6.507  17.681 -0.0516  0.3161 -0.1365
69477W        W12389  16.437   8.440  15.916 -0.3747  0.2278 -0.1696
69478W        W12390  17.762   5.996  16.231  0.0885 -0.2619  0.0463
69479W        W12391  16.509   6.679  17.375  0.1244 -0.0881 -0.1056
69480W        W12392  15.297   5.025  19.193  0.4455  0.0167 -0.3659
69481W        W12393  16.986   6.025  17.254  0.2538  0.4040  0.0600
69482W        W12394  16.208   5.441  17.218  0.2045  0.0141  0.1910
69483W        W12395  16.853   4.387  16.001 -0.0073  0.0058 -0.1454
69484W        W12396  16.172   5.746  17.592 -0.0576  0.2209 -0.1825
69485W        W12397  15.164   7.349  16.541 -0.0952 -0.1175 -0.1270
69486W        W12398  19.392   3.577  18.846  0.2745 -0.0498 -0.0364
69487W        W12399  18.997   5.895  18.201  0.0557  0.0839  0.1313
69488W        W12400  17.040   7.611  16.016  0.0753  0.4215  0.0899
69489W        W12401  16.085   4.105  20.086  0.0273 -0.0419  0.0517
69490W        W12402  17.154   6.842  21.005 -0.0659  0.1436  0.2691
69491W        W12403  14.632   7.882  20.387 -0.0283  0.2241  0.0121
69492W        W12404  16.481   4.424  17.685 -0.1110  0.1052  0.1611
69493W        W12405  15.247   5.149  20.034  0.1472 -0.2657 -0.1910
69494W        W12406  15.235   6.200  17.451  0.0906  0.1047  0.1739
69495W        W12407  16.595   8.073  16.308 -0.1316 -0.4144 -0.0273
69496W        W12408  17.323   5.785  17.504  0.0750 -0.1545 -0.1385
69497W        W12409  16.678   5.211  18.120  0.1585 -0.3351 -0.2144
69498W        W12410  17.588   6.668  16.868 -0.1594  0.4326 -0.0333
69499W        W12411  15.419   4.936  17.116  0.0381  0.0537 -0.2001
69500W        W12412  18.418   3.167  18.013  0.0352  0.3025  0.2748
69501W        W12413  17.414   4.239  17.537 -0.0895  0.0708  0.1734
69502W        W12414  15.187   4.481  17.296 -0.0285  0.1611  0.0345
69503W        W12415  15.532   4.653  16.358 -0.2740  0.0128  0.0409
69504W        W12416  15.668   5.273  15.894  0.0757 -0.6383 -0.2605
69505W        W12417  13.550   6.266  17.090 -0.1508 -0.1097 -0.0177
69506W        W12418  16.103   2.868  19.180  0.2694 -0.1150  0.0871
69507W        W12419  14.537   5.062  19.267 -0.1630 -0.4856 -0.2338
69508W        W12420  13.822   5.414  18.350  0.3658 -0.1670 -0.0663
69509W        W12421  14.199   4.357  17.494  0.1450 -0.0407  0.0332
69510W        W12422  16.082   6.228  16.023 -0.0056  0.1227  0.3280
69511W        W12423  15.671   3.206  18.751 -0.2388 -0.0124 -0.0179
69512W        W12424  13.887   2.024  17.461 -0.2485  0.3360  0.1326
69513W        W12425  16.222   6.752  16.100  0.0738  0.3069 -0.0375
69514W        W12426  16.546   7.080  16.311  0.0098  0.0633  0.0758
69515W        W12427  16.263   3.723  18.275 -0.0404 -0.0893  0.1365
69516W        W12428  17.047   7.841  18.699  0.0375 -0.0701  0.0343
69517W        W12429  14.523   6.008  15.566 -0.1150 -0.0356  0.0797
69518W        W12430  17.791   5.462  18.653 -0.0779 -0.2119 -0.0428
69519W        W12431  16.052   3.262  19.807 -0.0456 -0.4244  0.1600
69520W        W12432  14.046   4.005  15.571 -0.2072  0.1511  0.1074
69521W        W12433  16.236   4.360  18.974  0.2352 -0.2250 -0.3426
69522W        W12434  17.245   7.030  17.529  0.2355 -0.3067 -0.3446
69523W        W12435  16.454   6.455  16.471 -0.1638  0.3051  0.1511
69524W        W12436  15.965   6.835  18.014  0.0821  0.0473  0.2793
69525W        W12437  16.972   6.512  18.899  0.1440 -0.1277 -0.0431
69526W        W12438  15.092   4.537  17.792  0.0514  0.1177  0.0700
69527W        W12439  17.766   5.548  17.384 -0.4441  0.0889  0.1898
69528W        W12440  14.861   6.072  19.169  0.5362 -0.1455  0.1118
69529W        W12441  17.386   6.663  16.388 -0.2128  0.2840 -0.1369
69530W        W12442  19.336   5.279  18.794  0.3456  0.2468  0.1194
69531W        W12443  16.956   4.415  16.861  0.1899  0.1703 -0.0921
69532W        W12444  14.980   5.177  20.421  0.0574 -0.0867 -0.0490
69533W        W12445  13.618   5.987  19.864 -0.2094 -0.0478 -0.3099
69534W        W12446  17.130   6.808  17.044  0.1095  0.3493  0.0414
69535W        W12447  17.577   1.267  18.969 -0.0075 -0.1127  0.3335
69536W        W12448  16.951   5.603  18.379  0.0803  0.0527 -0.1221
69537W        W12449  16.322   5.936  16.363 -0.1038 -0.0536 -0.2507
69538W        W12450  13.957   5.522  19.186 -0.0928 -0.1450 -0.3459
69539W        W12451  14.472   4.313  16.349 -0.1774  0.2213 -0.1117
69540W        W12452  16.312   6.092  17.946 -0.3732 -0.0484 -0.2564
69541W        W12453  17.032   7.050  17.966  0.1829 -0.1027  0.1106
69542W        W12454  18.675   4.818  18.480  0.0331  0.1511  0.1161
69543W        W12455  16.043   4.874  16.318 -0.1841 -0.0429  0.2652
69544W        W12456  18.335   5.530  16.900  0.1321  0.2179 -0.1578
69545W        W12457  15.630   6.780  19.076 -0.6424  0.0566  0.2692
69546W        W12458  18.090   6.417  20.955  0.3753 -0.0543  0.1162
69547W        W12459  16.535   6.956  17.776  0.2189  0.3768  0.0524
69548W        W12460  17.841   5.092  17.675  0.0877 -0.0730 -0.0029
69549W        W12461  15.524   4.184  17.670  0.0896 -0.2766 -0.3240
69550W        W12462  15.547   5.723  17.195  0.1205 -0.1643  0.3275
69551W        W12463  16.589   5.699  17.963  0.0148  0.0904 -0.2521
69552W        W12464  18.389   4.894  17.692  0.2068  0.0239 -0.0629
69553W        W12465  14.893   4.008  17.020 -0.0697 -0.0521 -0.0541
69554W        W12466  16.630   5.584  17.460 -0.1223 -0.2199 -0.0098
69555W        W12467  13.890   6.741  19.311 -0.0759 -0.0132 -0.2412
69556W        W12468  16.702   6.342  16.922 -0.0473  0.0565  0.2282
69557W        W12469  15.022   4.816  21.517 -0.1350 -0.5182  0.2187
69558W        W12470  16.131   3.395  21.831  0.1465 -0.1199  0.4561
69559W        W12471  17.727   3.461  18.641  0.1691 -0.2683 -0.2089
69560W        W12472  16.887   5.653  19.776 -0.0637  0.0353 -0.2097
69561W        W12473  15.208   4.113  21.956  0.0662  0.3837  0.0119
69562W        W12474  16.871   6.762  20.337  0.3137  0.2324 -0.2834
69563W        W12475  14.590   4.741  21.858  0.1390 -0.1071 -0.1155
69564W        W12476  16.700   7.134  22.378  0.1830  0.1272 -0.0179
69565W        W12477  18.636   5.645  22.219  0.3810 -0.2260  0.0957
69566W        W12478  16.147   5.367  18.800  0.4137 -0.2108 -0.2922
69567W        W12479  16.393   4.477  21.275 -0.1748  0.2449  0.2332
69568W        W12480  14.922   5.718  20.628 -0.1917  0.0668  0.0650
69569W        W12481  16.092   2.700  21.191 -0.1611 -0.1939 -0.0957
69570W        W12482  13.601   4.028  22.707 -0.1121  0.0354  0.0432
69571W        W12483  16.930   3.457  21.111  0.3761  0.0068 -0.1730
69572W        W12484  14.128   5.258  20.051 -0.2490 -0.3240  0.1810
69573W        W12485  15.093   3.412  23.199 -0.1633  0.4715  0.2506
69574W        W12486  14.581   4.986  21.305 -0.1605 -0.0046 -0.0829
69575W        W12487  16.573   6.299  20.881  0.0775 -0.2622  0.1087
69576W        W12488  15.679   3.866  24.062  0.0331 -0.2363  0.0734
69577W        W12489  16.065   4.328  23.038 -0.0147 -0.4381 -0.1675
69578W        W12490  15.902   4.678  20.464 -0.0186 -0.1110 -0.0327
69579W        W12491  14.886   5.644  19.937  0.4908 -0.0389  0.0076
69580W        W12492  15.312   5.250  21.360  0.0967  0.1552  0.1967
69581W        W12493  16.737   5.752  21.546 -0.2315  0.0088  0.2253
69582W        W12494  17.671   3.635  22.751 -0.2192 -0.1507  0.2927
69583W        W12495  19.037   5.129  20.497 -0.0650 -0.0115  0.2879
69584W        W12496  14.747   5.937  21.021  0.1269  0.1900 -0.1297
69585W        W12497  15.775   6.182  21.871  0.0130 -0.0373 -0.0783
69586W        W12498  18.249   5.553  21.396  0.3206  0.1847 -0.2027
69587W        W12499  15.311   4.330  21.538  0.2125 -0.1044 -0.2983
69588W        W12500  14.188   7.178  21.574 -0.1287  0.2202  0.1517
69589W        W12501  15.555   6.215  21.376  0.6708 -0.0481 -0.1404
69590W        W12502  19.165   7.066  21.615  0.1306 -0.2504  0.3398
69591W        W12503  16.679   6.965  23.136 -0.1504  0.4227 -0.0063
69592W        W12504  15.454   7.062  22.677  0.2836  0.2338 -0.0085
69593W        W12505  14.574   7.113  18.632 -0.1512  0.0974 -0.1001
69594W        W12506  16.923   8.462  23.858 -0.1319  0.0161 -0.1201
69595W        W12507  16.218   6.592  23.179  0.1155 -0.2510 -0.0147
69596W        W12508  16.193   4.471  21.776  0.0817  0.0859 -0.1843
69597W        W12509  15.679   3.702  21.970  0.0809  0.2281  0.0034
69598W        W12510  16.122   5.998  20.271 -0.1900  0.2881  0.2211
69599W        W12511  15.994   4.603  21.009 -0.2989  0.2917  0.1151
69600W        W12512  15.744   6.575  25.715  0.1191  0.1119 -0.0546
69601W        W12513  14.075   6.233  21.362 -0.1696  0.0948 -0.1850
69602W        W12514  17.448   4.536  22.741  0.0765  0.0187  0.1151
69603W        W12515  14.670   7.096  20.779  0.1625 -0.1107  0.1503
69604W        W12516  17.497   5.329  18.141  0.1918  0.0726  0.2962
69605W        W12517  16.851   4.892  19.590 -0.0064  0.1682  0.0286
69606W        W12518  17.608   3.900  18.965 -0.2795  0.0952 -0.0829
69607W        W12519  16.561   3.405  22.957  0.0345  0.1893 -0.0978
69608W        W12520  16.541   7.693  23.414 -0.0820  0.0525  0.1517
69609W        W12521  15.822   5.684  21.968 -0.1675  0.0471 -0.1757
69610W        W12522  16.615   5.259  19.784 -0.1613  0.0719 -0.2108
69611W        W12523  15.007   4.684  20.048  0.0386  0.2472 -0.2757
69612W        W12524  17.084   3.292  22.579 -0.2016  0.1535 -0.1072
69613W        W12525  15.867   6.885  22.028 -0.2517 -0.1562  0.3496
69614W        W12526  16.130   4.032  21.146  0.0668 -0.0517  0.1142
69615W        W12527  16.927   6.480  19.954 -0.0676 -0.0641 -0.1092
69616W        W12528  17.588   7.104  22.314 -0.2304 -0.6378  0.1025
69617W        W12529  17.541   6.278  21.084  0.1056  0.0039  0.2594
69618W        W12530  15.043   3.636  20.906 -0.0919  0.0533 -0.0329
69619W        W12531  15.981   6.069  22.769  0.0641  0.2243  0.0013
69620W        W12532  15.262   5.200  22.453  0.0709  0.2706 -0.1522
69621W        W12533  15.520   3.767  19.431  0.0476 -0.3887 -0.1997
69622W        W12534  18.570   6.076  22.643  0.1596 -0.0767  0.0837
69623W        W12535  14.410   5.382  21.510 -0.0853 -0.2304 -0.2630
69624W        W12536  17.620   3.147  19.700 -0.0110  0.2205 -0.2051
69625W        W12537  15.831   5.617  20.592 -0.0725  0.2830 -0.2749
69626W        W12538  18.121   5.477  22.271  0.0330  0.2699 -0.1577
69627W        W12539  16.886   5.392  21.079 -0.4987 -0.1033  0.2524
69628W        W12540  17.374   3.370  21.592  0.2382  0.0308  0.3940
69629W        W12541  16.526   2.869  21.326 -0.2620 -0.0942  0.2478
69630W        W12542  15.685   5.110  18.739 -0.0246  0.1756 -0.0030
69631W        W12543  15.627   5.636  21.112 -0.7552 -0.0600 -0.1640
69632W        W12544  17.359   4.759  22.074 -0.2969  0.3219  0.0730
69633W        W12545  16.759   4.323  20.303 -0.2114  0.0227 -0.2708
69634W        W12546  15.705   5.203  21.687  0.2053  0.0550 -0.0676
69635W        W12547  18.451   4.615  22.474 -0.0692  0.0733  0.2976
69636W        W12548  16.662   6.735  21.046 -0.1207  0.1959 -0.0667
69637W        W12549  14.412   7.616  18.871  0.0169 -0.0092 -0.0723
69638W        W12550  14.599   5.850  21.631  0.3379  0.2147  0.3054
69639W        W12551  15.748   6.296  19.284  0.0499  0.0839 -0.2407
69640W        W12552  13.656   5.075  22.667 -0.3426 -0.0664 -0.2543
69641W        W12553  16.069   5.390  19.301 -0.2449 -0.4697 -0.2724
69642W        W12554  18.103   3.868  19.639 -0.1853 -0.1280 -0.1597
69643W        W12555  14.650   3.337  22.332 -0.0936 -0.2669  0.1582
69644W        W12556  17.757   3.705  20.974  0.0118  0.0583  0.0581
69645W        W12557  15.477   6.917  19.770  0.2009  0.1855  0.1120
69646W        W12558  17.819   7.656  23.238 -0.1469  0.0436  0.0018
69647W        W12559  18.140   3.869  20.633 -0.2040  0.2015  0.2357
69648W        W12560  17.152   5.477  20.537  0.0000 -0.1066  0.2670
69649W        W12561  15.708   4.315  22.670 -0.1790 -0.2955  0.0141
69650W        W12562  15.298   3.326  22.085 -0.0029 -0.1840 -0.0408
69651W        W12563  15.615   5.318  22.916  0.0428 -0.0427 -0.1164
69652W        W12564  16.340   4.105  22.148  0.1188  0.0930  0.0481
69653W        W12565  16.964   4.262  22.829 -0.1936  0.1121 -0.0120
69654W        W12566  14.856   4.038  21.632 -0.1133  0.1772  0.5293
69655W        W12567  16.677   3.220  20.768  0.0719  0.0743  0.0003
69656W        W12568  16.416   6.726  19.199 -0.0612 -0.0392  0.0716
69657W        W12569  15.399   5.628  20.304  0.0100  0.1737  0.1157
69658W        W12570  16.947   3.653  21.544  0.0513 -0.1245 -0.0141
69659W        W12571  16.656   5.805  20.272 -0.0834  0.0591  0.0294
69660W        W12572  19.527   7.092  22.876 -0.2748  0.1241  0.0877
69661W        W12573  17.829   5.843  21.152 -0.1510 -0.1963  0.3774
69662W        W12574  14.106   3.348  23.258  0.0288  0.0643 -0.1990
69663W        W12575  14.940   3.466  21.368  0.3668 -0.0877  0.1833
69664W        W12576  17.060   7.040  22.087  0.3119  0.0655 -0.0025
69665W        W12577  15.747   5.122  20.362  0.2184  0.0677  0.0645
69666W        W12578  15.401   2.940  20.345 -0.3113  0.1219  0.2499
69667W        W12579  17.961   7.166  22.685  0.0095  0.0877  0.2529
69668W        W12580  14.929   7.012  21.747 -0.1434  0.0568 -0.2986
69669W        W12581  14.587   6.246  22.428  0.0611  0.1886  0.2668
69670W        W12582  16.704   2.664  22.591  0.0926  0.1252 -0.1031
69671W        W12583  18.122   5.583  20.343 -0.2666 -0.1449  0.0329
69672W        W12584  15.756   5.484  23.383  0.0595 -0.2906 -0.1700
69673W        W12585  14.525   3.555  21.646  0.2299  0.0704  0.2498
69674W        W12586  16.436   5.968  21.239  0.0364 -0.2329 -0.2196
69675W        W12587  14.771   6.878  19.515 -0.3307  0.0909  0.0876
69676W        W12588  15.111   4.963  21.032  0.1153  0.1752 -0.0310
69677W        W12589  16.707   5.571  22.019 -0.2987 -0.0847  0.3655
69678W        W12590  17.359   4.644  21.131  0.1840 -0.0078 -0.1151
69679W        W12591  14.253   4.491  23.949  0.1317 -0.1162  0.1090
69680W        W12592  16.776   4.767  21.630 -0.1019  0.3575  0.0751
69681W        W12593  15.285   4.417  20.831  0.1197 -0.1901 -0.1297
69682W        W12594  16.408   6.845  22.737 -0.1735  0.3947  0.2211
69683W        W12595  16.911   3.851  20.148  0.1686 -0.0745  0.1579
69684W        W12596  17.279   4.606  20.555 -0.0056 -0.1599 -0.4709
69685W        W12597  16.354   5.903  21.788  0.1889 -0.0722 -0.2669
69686W        W12598  16.869   4.985  22.039  0.0361 -0.0402 -0.0235
69687W        W12599  17.825   4.498  18.847 -0.0964  0.2328 -0.0610
69688W        W12600  16.232   3.818  18.894 -0.3172 -0.1089 -0.0666
69689W        W12601  15.746   5.970  23.630  0.0001 -0.3036  0.0572
69690W        W12602  17.062   6.453  20.712 -0.0505 -0.4402  0.0560
69691W        W12603  17.200   4.189  20.960 -0.1458  0.1484 -0.0766
69692W        W12604  17.932   6.240  19.149 -0.1864  0.1668 -0.1178
69693W        W12605  18.038   6.055  20.578  0.4385 -0.1317 -0.2939
69694W        W12606  15.750   4.199  21.972 -0.4131  0.3021 -0.4276
69695W        W12607  18.199   6.793  23.143  0.1831  0.0946  0.0686
69696W        W12608  18.694   8.086  22.215 -0.2428  0.0680  0.2367
69697W        W12609  18.192   3.870  21.475  0.1167  0.0257 -0.2157
69698W        W12610  15.323   5.404  18.575  0.2002  0.0870 -0.0247
69699W        W12611  17.032   2.920  21.927  0.0984 -0.2189  0.0325
69700W        W12612  14.658   6.151  20.455 -0.0196  0.3019  0.1178
69701W        W12613  18.075   4.069  21.067  0.0172 -0.1095 -0.4181
69702W        W12614  17.322   3.735  21.235 -0.0301  0.3162  0.2272
69703W        W12615  16.372   2.733  23.802  0.2798  0.0433 -0.1065
69704W        W12616  17.702   3.705  23.280 -0.0631  0.2711  0.0952
69705W        W12617  16.358   4.738  18.094  0.0715  0.1311  0.0663
69706W        W12618  17.194   3.833  22.533 -0.1926 -0.0384 -0.1574
69707W        W12619  15.781   5.649  18.713  0.0318 -0.2926 -0.1414
69708W        W12620  16.396   2.583  24.367 -0.1337  0.0240 -0.1687
69709W        W12621  17.016   4.447  21.979  0.1038 -0.0469  0.0772
69710W        W12622  13.214   5.416  23.008  0.1171  0.1446  0.2145
69711W        W12623  16.256   5.443  22.203 -0.0028 -0.0004  0.0370
69712W        W12624  16.646   4.042  21.254 -0.0117 -0.0979  0.0726
69713W        W12625  15.394   3.701  22.821 -0.0060 -0.1131  0.1510
69714W        W12626  16.453   3.921  20.384 -0.3366  0.0877 -0.2070
69715W        W12627  16.069   6.439  20.591  0.1981 -0.1578  0.0191
69716W        W12628  14.805   6.672  20.366  0.1099  0.0982  0.0936
69717W        W12629  15.411   3.136  22.541 -0.0519  0.1201  0.1194
69718W        W12630  16.502   4.942  22.415  0.0352 -0.1192  0.0390
69719W        W12631  13.933   6.677  20.693  0.0065  0.1200 -0.1545
69720W        W12632  17.845   4.462  22.295 -0.2850  0.2069 -0.3845
69721W        W12633  15.619   6.098  20.216 -0.3888 -0.1378 -0.3344
69722W        W12634  18.721   2.995  21.230  0.0596 -0.0031 -0.3640
69723W        W12635  14.100   7.872  20.680 -0.1707  0.1080  0.1040
69724W        W12636  15.159   4.007  21.214  0.0171  0.0001 -0.1055
69725W        W12637  14.911   4.733  20.632  0.0932  0.0605  0.2125
69726W        W12638  17.794   5.358  21.082  0.2124 -0.0667  0.1019
69727W        W12639  17.053   6.118  21.153 -0.1580  0.1466 -0.2651
69728W        W12640  16.610   4.278  23.642 -0.1137  0.1261 -0.0992
69729W        W12641  15.577   2.991  23.924  0.1260 -0.0389  0.0180
69730W        W12642  15.483   7.982  21.716  0.0840  0.0260 -0.0558
69731W        W12643  17.319   4.659  21.608 -0.2108 -0.0047 -0.0364
69732W        W12644  17.454   3.394  19.090  0.0266 -0.0586 -0.1056
69733W        W12645  18.051   6.011  22.397  0.2909 -0.0757 -0.1068
69734W        W12646  16.231   5.597  24.666 -0.1872  0.2880 -0.2229
69735W        W12647  15.043   4.161  18.140 -0.2430  0.1282 -0.3066
69736W        W12648  18.665   5.264  21.475  0.0247  0.2145  0.3584
69737W        W12649  14.591   3.053  21.496 -0.1909  0.4706  0.4193
69738W        W12650  15.097   6.086  21.530  0.2517  0.0004 -0.1624
69739W        W12651  16.929   6.047  22.823  0.1119  0.0342 -0.2121
69740W        W12652  14.814   5.649  18.693  0.2347 -0.1666 -0.0254
69741W        W12653  16.150   5.247  20.733  0.0296 -0.0837 -0.0519
69742W        W12654  16.795   5.391  23.906  0.1452 -0.1669  0.1192
69743W        W12655  17.670   4.955  22.495 -0.2606 -0.2832 -0.0195
69744W        W12656  14.971   4.190  20.241 -0.3338 -0.2376  0.1132
69745W        W12657  14.412   4.349  19.124 -0.0551  0.0103 -0.0531
69746W        W12658  17.171   4.165  21.567  0.1268 -0.5731  0.6100
69747W        W12659  17.076   3.889  22.055 -0.1326 -0.0885  0.1588
69748W        W12660  16.118   5.117  23.280 -0.0061  0.2053  0.0338
69749W        W12661  16.075   5.992  24.044  0.1321 -0.2009 -0.0172
69750W        W12662  17.581   3.995  23.668 -0.0665  0.0565 -0.0605
69751W        W12663  18.655   6.629  21.962  0.1680  0.2110  0.2122
69752W        W12664  18.747   4.466  21.656  0.1354 -0.3723  0.1470
69753W        W12665  14.076   4.494  20.614  0.0638 -0.1665  0.3370
69754W        W12666  15.775   6.659  21.599 -0.2109  0.0183  0.4111
69755W        W12667  16.697   6.879  19.797 -0.0078 -0.2147  0.0303
69756W        W12668  15.985   4.205  20.669 -0.1007  0.1320 -0.1569
69757W        W12669  16.074   4.859  21.462 -0.1343  0.1631 -0.0547
69758W        W12670  15.393   5.315  19.592  0.1993 -0.1085 -0.0033
69759W        W12671  14.920   6.201  22.918 -0.2210 -0.1341 -0.0873
69760W        W12672  15.654   3.797  18.929  0.0806  0.0685  0.2072
69761W        W12673  17.776   5.770  19.711  0.2466  0.0603  0.1905
69762W        W12674  16.587   3.767  21.916 -0.3311 -0.1727 -0.3702
69763W        W12675  18.109   3.892  24.779  0.2236 -0.2114  0.3637
69764W        W12676  17.600   4.643  20.170 -0.0018  0.0563  0.4724
69765W        W12677  16.410   3.862  22.657 -0.0600 -0.2092 -0.2652
69766W        W12678  15.675   3.368  23.126 -0.1687 -0.1386 -0.0450
69767W        W12679  16.389   5.440  21.143  0.1708 -0.0501  0.1058
69768W        W12680  16.245   3.654  22.235 -0.2304  0.3416 -0.0100
69769W        W12681  17.011   7.591  23.631 -0.0924  0.4698 -0.0426
69770W        W12682  14.144   4.245  23.389 -0.2792 -0.3447 -0.1918
69771W        W12683  15.478   5.469  19.090 -0.0363  0.3942  0.0139
69772W        W12684  15.418   3.487  21.175 -0.1957  0.2453 -0.2691
69773W        W12685  16.564   4.991  21.220  0.0958  0.2111 -0.0472
69774W        W12686  18.653   6.959  21.510 -0.1055  0.0525 -0.0046
69775W        W12687  16.846   5.353  19.414 -0.0202 -0.2301  0.2228
69776W        W12688  17.030   4.732  20.079  0.3955 -0.2950  0.2047
69777W        W12689  15.932   5.263  21.257  0.2301 -0.0755 -0.3693
69778W        W12690  16.869   3.807  20.671  0.1201 -0.1404  0.0797
69779W        W12691  16.313   4.431  20.366 -0.1875 -0.1231  0.1506
69780W        W12692  15.493   4.680  21.215  0.0565 -0.0437 -0.0024
69781W        W12693  15.706   4.465  23.535  0.1553  0.2623  0.2047
69782W        W12694  17.891   4.550  21.192  0.0569 -0.1152 -0.0805
69783W        W12695  16.711   3.643  22.374  0.2703 -0.1120  0.3958
69784W        W12696  16.855   4.933  24.057  0.0947 -0.0727  0.1303
69785W        W12697  16.180   3.943  21.670 -0.2275 -0.1444  0.1112
69786W        W12698  14.461   3.781  23.649 -0.0577  0.0234  0.3083
69787W        W12699  14.038   3.663  22.710  0.0252  0.2336  0.1823
69788W        W12700  17.388   5.655  21.124  0.2310  0.2170  0.3082
69789W        W12701  17.269   4.499  19.750  0.1547  0.0397  0.0458
69790W        W12702  18.243   3.727  23.484 -0.3465  0.1107 -0.0630
69791W        W12703  17.190   2.956  20.053 -0.1357 -0.4802  0.0264
69792W        W12704  15.900   4.979  17.945 -0.5430  0.3227  0.2044
69793W        W12705  15.628   4.115  21.045 -0.0758 -0.2488 -0.0405
69794W        W12706  18.173   4.827  22.116 -0.2022  0.1453 -0.2622
69795W        W12707  15.824   3.777  20.356 -0.0880 -0.2625 -0.2292
69796W        W12708  16.726   3.131  23.747 -0.1101 -0.3081 -0.0007
69797W        W12709  15.580   7.373  19.003  0.2301  0.1529 -0.1596
69798W        W12710  17.640   5.524  21.535  0.1163 -0.1476 -0.0875
69799W        W12711  15.630   4.310  20.216 -0.2932 -0.0864 -0.4063
69800W        W12712  14.373   3.724  22.118  0.0586 -0.0246 -0.1636
69801W        W12713  14.829   6.589  23.297  0.0337 -0.2222  0.1271
69802W        W12714  14.880   5.249  19.633  0.3848 -0.2761  0.2993
69803W        W12715  15.318   5.416  20.776  0.1649 -0.1921 -0.1022
69804W        W12716  17.330   6.379  22.806 -0.1085  0.2714  0.0457
69805W        W12717  18.235   6.638  24.043  0.0573 -0.2399 -0.1239
69806W        W12718  16.005   3.461  19.262 -0.0242  0.0829  0.0117
69807W        W12719  18.670   4.752  23.765  0.0444  0.0626 -0.0348
69808W        W12720  13.912   5.275  21.398  0.0033 -0.1443 -0.1033
69809W        W12721  16.278   3.190  21.006  0.2748  0.0374 -0.1737
69810W        W12722  15.422   6.705  21.204 -0.1623 -0.1554  0.0786
69811W        W12723  15.950   7.135  22.564 -0.2032 -0.3571 -0.1315
69812W        W12724  16.309   4.971  19.550  0.0206 -0.0393 -0.2472
69813W        W12725  15.682   4.417  25.252  0.1681 -0.1225  0.0742
69814W        W12726  17.331   5.073  20.343  0.2772 -0.3595  0.0189
69815W        W12727  16.687   5.261  21.589  0.1573  0.3484 -0.4608
69816W        W12728  18.417   4.878  21.689 -0.0987  0.4693 -0.4032
69817W        W12729  16.064   6.000  22.239  0.0743 -0.0510 -0.0318
69818W        W12730  15.373   4.737  20.383 -0.2715  0.0507 -0.0873
69819W        W12731  17.352   6.040  22.459 -0.1742 -0.2069 -0.0453
69820W        W12732  19.228   7.070  22.208 -0.2962  0.1121 -0.0204
69821W        W12733  15.741   6.989  20.872 -0.1263  0.0784  0.2115
69822W        W12734  15.219   5.430  23.458  0.2255 -0.0184 -0.0236
69823W        W12735  15.377   5.023  23.270 -0.1764 -0.0227  0.0833
69824W        W12736  17.280   6.415  22.116  0.2211  0.0307  0.2119
69825W        W12737  13.768   3.399  21.313 -0.1644  0.0397 -0.2908
69826W        W12738  17.492   6.481  19.956  0.1262  0.0606  0.0393
69827W        W12739  15.446   5.198  23.857 -0.4207 -0.1213  0.1508
69828W        W12740  16.024   4.614  22.296 -0.1643 -0.0418 -0.0953
69829W        W12741  14.781   7.263  20.277  0.1211  0.0267 -0.0275
69830W        W12742  15.038   6.603  19.852  0.1911 -0.0888  0.0279
69831W        W12743  16.007   4.581  19.975  0.0200  0.1429  0.0597
69832W        W12744  16.801   5.949  22.337  0.3322  0.0118 -0.2847
69833W        W12745  15.686   4.203  19.721  0.0756 -0.1802 -0.1820
69834W        W12746  14.157   6.192  20.881 -0.1254  0.0977  0.0340
69835W        W12747  13.413   6.570  19.127 -0.1463 -0.1906 -0.0087
69836W        W12748  16.316   5.625  19.856 -0.0173 -0.2754  0.0654
69837W        W12749  16.330   6.755  21.444 -0.0007 -0.3553 -0.2123
69838W        W12750  17.416   4.899  23.242 -0.1553 -0.1346 -0.0632
69839W        W12751  16.232   3.477  20.561  0.1176  0.2705 -0.0882
69840W        W12752  17.562   5.911  20.216 -0.1023  0.1619 -0.0040
69841W        W12753  16.906   4.576  21.109  0.2101 -0.0901 -0.2429
69842W        W12754  17.193   7.090  23.623  0.1537 -0.0796 -0.1328
69843W        W12755  14.551   4.441  20.315  0.0264  0.1250  0.0329
69844W        W12756  16.367   4.163  19.666 -0.0757 -0.1567  0.1982
69845W        W12757  15.273   4.214  23.525  0.2336 -0.2332  0.0875
69846W        W12758  18.377   3.678  23.971  0.1674  0.1640 -0.2212
69847W        W12759  15.420   6.333  24.136  0.1403 -0.0685 -0.3031
69848W        W12760  18.789   6.045  20.429  0.4034 -0.0630  0.0001
69849W        W12761  14.634   5.053  20.035 -0.0689  0.1002 -0.0066
69850W        W12762  16.528   4.718  19.980 -0.0704  0.3018 -0.2428
69851W        W12763  17.601   2.867  21.983 -0.0032 -0.0433  0.0313
69852W        W12764  15.958   6.081  18.504  0.0506 -0.0214  0.0925
69853W        W12765  17.311   3.684  20.682 -0.1502  0.3610  0.4325
69854W        W12766  16.623   6.344  20.304  0.0719  0.0722 -0.0689
69855W        W12767  15.691   4.674  21.848  0.2666 -0.1441  0.0695
69856W        W12768  16.453   6.724  20.596 -0.0177 -0.0690  0.0012
69857W        W12769  15.825   3.645  20.859 -0.1727  0.0024  0.0607
69858W        W12770  19.087   4.728  19.682  0.3776  0.1216  0.3747
69859W        W12771  16.323   4.954  21.957  0.1237 -0.0445 -0.0544
69860W        W12772  18.420   3.434  21.490 -0.1916  0.1767 -0.3272
69861W        W12773  14.868   3.761  22.036  0.2446 -0.2849  0.2432
69862W        W12774  16.982   4.991  20.694 -0.0274  0.0611 -0.1498
69863W        W12775  16.441   3.567  21.446  0.4136 -0.2829 -0.0835
69864W        W12776  13.941   4.738  23.084 -0.2503 -0.2937 -0.1015
69865W        W12777  16.024   4.561  19.438  0.1230  0.0343  0.2519
69866W        W12778  19.074   4.151  22.836  0.3020 -0.1277 -0.1117
69867W        W12779  17.343   5.716  18.930 -0.1671  0.3002  0.0884
69868W        W12780  16.777   5.347  22.437 -0.1487 -0.0965  0.1716
69869W        W12781  13.695   3.696  21.686 -0.2551  0.3306 -0.0558
69870W        W12782  16.828   4.310  19.835 -0.2321  0.1449 -0.0533
69871W        W12783  13.754   5.015  22.179 -0.0421  0.0198 -0.4262
69872W        W12784  17.643   4.963  21.379 -0.0747  0.0499 -0.0530
69873W        W12785  17.819   6.002  23.933  0.1563 -0.4487  0.2021
69874W        W12786  13.781   4.216  21.950  0.1432  0.1716  0.2878
69875W        W12787  17.283   5.576  20.045  0.1145  0.1738  0.2007
69876W        W12788  17.423   3.242  21.066  0.1844  0.0500  0.0991
69877W        W12789  16.359   9.068  21.282 -0.0334 -0.1152 -0.0276
69878W        W12790  17.630   4.881  20.794 -0.1219 -0.2627 -0.1731
69879W        W12791  15.971   6.002  21.007 -0.0787 -0.5542 -0.1624
69880W        W12792  14.500   5.793  22.133  0.0227  0.0648  0.1638
69881W        W12793  18.197   7.022  22.290 -0.0383  0.0260 -0.0767
69882W        W12794  18.315   5.919  20.039 -0.2854 -0.1009  0.1028
69883W        W12795  16.708   2.519  21.987  0.1543  0.0056  0.0483
69884W        W12796  14.991   4.463  22.680 -0.3476 -0.1685 -0.1606
69885W        W12797  15.877   6.501  21.071  0.0131 -0.0397  0.0800
69886W        W12798  19.410   4.545  21.962  0.0328  0.0109 -0.0365
69887W        W12799  15.354   4.648  22.384 -0.0723  0.0031  0.0103
69888W        W12800  17.288   6.597  19.489 -0.2249  0.4861  0.1691
69889W        W12801  17.998   2.429  22.782 -0.0338  0.1615 -0.1663
69890W        W12802  14.876   6.646  22.162  0.0162  0.1377  0.1152
69891W        W12803  15.553   7.517  22.458  0.2696  0.2238  0.0701
69892W        W12804  15.487   3.826  19.996  0.0803  0.3830 -0.2593
69893W        W12805  15.645   6.173  22.443  0.2787 -0.2431 -0.0207
69894W        W12806  16.118   6.323  21.484 -0.2630  0.0719 -0.1749
69895W        W12807  16.847   5.173  20.239  0.2258 -0.1842 -0.1220
69896W        W12808  18.362   4.535  20.163  0.3259 -0.0614 -0.1415
69897W        W12809  15.837   2.960  20.695  0.3587 -0.0477  0.2322
69898W        W12810  19.457   6.040  20.186 -0.2652 -0.0170 -0.1125
69899W        W12811  16.796   4.162  22.369 -0.0179 -0.0931 -0.3116
69900W        W12812  18.711   2.988  20.601 -0.1127  0.1824  0.1073
69901W        W12813  17.301   3.466  20.206 -0.0885 -0.2280 -0.0461
69902W        W12814  15.891   5.074  22.139  0.0180 -0.0742 -0.1992
69903W        W12815  14.705   4.345  19.826 -0.1311 -0.2835  0.0785
69904W        W12816  14.253   5.777  19.947 -0.2516  0.1134 -0.0421
69905W        W12817  15.301   4.995  21.887  0.2649 -0.3194  0.2718
69906W        W12818  16.024   4.011  23.646 -0.1239 -0.0978  0.3086
69907W        W12819  15.906   3.997  22.388  0.1411  0.0979  0.0955
69908W        W12820  15.434   3.935  22.374  0.2476 -0.2668  0.1070
69909W        W12821  14.129   3.834  21.347 -0.0753 -0.1458  0.2914
69910W        W12822  16.308   4.941  20.329  0.0460  0.1091  0.1319
69911W        W12823  15.971   2.913  23.092 -0.0200 -0.2586  0.0105
69912W        W12824  15.397   2.914  23.004 -0.1929  0.4843  0.2951
69913W        W12825  16.646   6.344  21.448 -0.2732  0.1000  0.1284
69914W        W12826  18.426   6.378  20.459  0.3413  0.2525  0.3670
69915W        W12827  15.480   3.353  19.814 -0.1157 -0.0495 -0.0007
69916W        W12828  18.444   5.051  23.004 -0.2079 -0.0684 -0.0874
69917W        W12829  15.095   6.148  20.237 -0.2774 -0.3025 -0.2575
69918W        W12830  16.223   4.954  23.937 -0.1764  0.2773 -0.2624
69919W        W12831  14.421   4.593  23.023  0.2068 -0.0849 -0.2764
69920W        W12832  13.570   4.074  18.819 -0.2864  0.1811  0.5998
69921W        W12833  16.836   3.826  22.957 -0.4080 -0.2892  0.3104
69922W        W12834  17.457   5.909  20.701 -0.0240  0.0169  0.2158
69923W        W12835  15.858   6.687  19.549 -0.1387  0.0069 -0.2097
69924W        W12836  15.295   6.522  21.907  0.0326 -0.0750 -0.0840
69925W        W12837  15.903   6.461  23.787  0.1223 -0.0466 -0.2330
69926W        W12838  13.398   3.606  22.546  0.1313  0.1784  0.0693
69927W        W12839  16.592   5.341  20.609 -0.1985  0.3452 -0.1202
69928W        W12840  16.041   6.513  22.517 -0.0850  0.0331 -0.0405
69929W        W12841  18.192   5.392  20.806 -0.0168 -0.2257 -0.3372
69930W        W12842  17.936   3.453  21.395  0.2900  0.1011 -0.0154
69931W        W12843  17.080   4.998  21.358  0.1255  0.1704  0.1228
69932W        W12844  14.930   3.646  23.614  0.0263  0.1228 -0.1446
69933W        W12845  14.691   4.964  22.764 -0.0747  0.2515  0.0818
69934W        W12846  18.013   4.616  22.729  0.0230 -0.2387 -0.2778
69935W        W12847  16.545   3.033  21.965 -0.0471  0.0157  0.0084
69936W        W12848  15.348   3.490  20.441  0.0207  0.1146 -0.1959
69937W        W12849  16.885   5.846  20.778 -0.0946  0.1523 -0.0980
69938W        W12850  14.958   5.456  21.647 -0.2636  0.1360  0.0499
69939W        W12851  16.594   2.745  20.816 -0.0547 -0.2036  0.0481
69940W        W12852  15.408   6.436  22.864 -0.1570 -0.0508  0.0074
69941W        W12853  16.871   6.173  21.872  0.1434  0.3534  0.2006
69942W        W12854  17.851   4.687  21.741 -0.2394  0.0661 -0.3378
69943W        W12855  16.544   4.744  20.662  0.1788 -0.1845  0.0451
69944W        W12856  17.601   4.812  19.701 -0.0423 -0.2568 -0.1421
69945W        W12857  17.657   7.131  23.422 -0.0660  0.2627 -0.4852
69946W        W12858  18.075   7.034  24.901  0.1280  0.2007 -0.2131
69947W        W12859  16.500   6.311  22.561 -0.0680  0.0348 -0.0317
69948W        W12860  18.644   3.776  20.466 -0.1271 -0.0416  0.1451
69949W        W12861  14.999   2.556  23.509  0.5067 -0.2496  0.1142
69950W        W12862  14.256   6.569  20.233  0.2034 -0.0451 -0.2155
69951W        W12863  15.847   5.655  20.025  0.1332  0.1764 -0.1080
69952W        W12864  16.104   4.471  23.896 -0.0791  0.0696  0.0890
69953W        W12865  15.820   4.367  21.464 -0.6635  0.2460  0.2251
69954W        W12866  17.024   2.250  19.533  0.1828  0.1248 -0.1837
69955W        W12867  15.075   7.413  22.697 -0.1149 -0.0679  0.3201
69956W        W12868  18.487   7.782  23.281 -0.2234  0.1312  0.0279
69957W        W12869  15.085   5.938  26.220 -0.0051  0.1208  0.0480
69958W        W12870  16.405   4.199  25.035  0.1958 -0.0907 -0.1044
69959W        W12871  16.531   4.540  22.188  0.1115  0.1903 -0.0884
69960W        W12872  17.389   5.403  22.947 -0.0993  0.0110  0.1108
69961W        W12873  14.202   4.649  24.951  0.3123  0.1645 -0.1662
69962W        W12874  18.371   6.217  23.773  0.0343 -0.1141 -0.1250
69963W        W12875  16.201   3.193  26.323  0.0829  0.1183 -0.1167
69964W        W12876  16.892   7.925  25.191 -0.4636 -0.0156 -0.1770
69965W        W12877  19.076   6.105  26.838 -0.0838  0.0317 -0.0016
69966W        W12878  17.521   7.047  24.087  0.0827 -0.5363  0.0233
69967W        W12879  16.813   5.802  25.385 -0.1748 -0.2275 -0.2977
69968W        W12880  17.501   7.781  27.616  0.3195  0.2405 -0.1046
69969W        W12881  15.482   5.807  23.077  0.2149  0.2915  0.1852
69970W        W12882  15.723   4.171  25.989  0.1362  0.1245 -0.0984
69971W        W12883  18.501   6.203  26.761 -0.0724  0.1713  0.0573
69972W        W12884  16.143   5.337  25.072  0.3937  0.3742  0.0205
69973W        W12885  15.430   4.352  25.619  0.0580  0.1129  0.2587
69974W        W12886  16.511   4.540  24.096  0.1126  0.0571 -0.0416
69975W        W12887  15.965   8.506  26.574  0.3648 -0.4509 -0.0136
69976W        W12888  15.778   5.048  26.527 -0.1023  0.5638  0.2397
69977W        W12889  16.972   4.632  28.032  0.1415  0.0673 -0.0441
69978W        W12890  17.386   6.670  23.365  0.0942  0.0846  0.2347
69979W        W12891  14.801   5.173  24.946 -0.0160  0.1227  0.1272
69980W        W12892  14.826   4.204  26.200  0.0657 -0.4016 -0.0181
69981W        W12893  17.083   5.049  27.440 -0.2370  0.1615  0.0123
69982W        W12894  16.792   4.627  26.255  0.1586  0.0951 -0.0736
69983W        W12895  17.200   7.598  25.488  0.0342  0.0333 -0.3776
69984W        W12896  15.898   6.857  25.313 -0.0605 -0.0461 -0.0022
69985W        W12897  17.564   6.879  26.108  0.2376 -0.3289  0.3971
69986W        W12898  18.663   3.236  27.354  0.4050  0.0267  0.1023
69987W        W12899  15.652   6.912  24.864  0.0209 -0.0356  0.2741
69988W        W12900  15.544   6.982  24.366 -0.1011  0.1810  0.2407
69989W        W12901  16.769   7.741  26.224 -0.0865  0.1571 -0.1779
69990W        W12902  16.978   6.216  24.316 -0.0358  0.0198 -0.1768
69991W        W12903  18.378   6.228  27.922 -0.0089  0.2179  0.1381
69992W        W12904  16.956   6.850  27.337 -0.3445 -0.0073 -0.0327
69993W        W12905  14.755   6.017  24.024 -0.1058 -0.2261  0.4405
69994W        W12906  16.700   6.330  28.568 -0.0464  0.1712  0.0390
69995W        W12907  16.917   7.112  28.063  0.1771 -0.5110  0.1141
69996W        W12908  16.644   7.237  26.217  0.2674 -0.2907  0.0724
69997W        W12909  15.367   6.636  23.330 -0.0890 -0.2290 -0.1390
69998W        W12910  14.911   6.953  24.068  0.0420  0.1268  0.0383
69999W        W12911  16.560   5.655  25.013 -0.0397 -0.2703  0.1076
70000W        W12912  17.380   6.918  26.765 -0.2048  0.0552 -0.1200
70001W        W12913  15.578   6.651  26.287  0.0384 -0.0538  0.0592
70002W        W12914  18.450   3.979  27.239 -0.3045 -0.1409 -0.1795
70003W        W12915  16.238   6.188  24.524 -0.1630 -0.0394  0.0487
70004W        W12916  17.243   5.449  23.716  0.0539 -0.1554 -0.3418
70005W        W12917  14.488   5.490  24.267 -0.2943  0.0606  0.3279
70006W        W12918  16.084   3.230  22.682  0.1068  0.0484 -0.1892
70007W        W12919  17.114   2.334  25.080  0.2134  0.2129  0.0097
70008W        W12920  15.608   7.783  24.931  0.0933  0.1756 -0.0016
70009W        W12921  16.095   3.431  26.736 -0.2608  0.0367 -0.0002
70010W        W12922  17.947   5.895  28.103 -0.4663 -0.0146 -0.0562
70011W        W12923  16.473   5.265  24.245 -0.2955 -0.1810 -0.0346
70012W        W12924  17.832   4.383  26.905 -0.1506  0.1233 -0.0285
70013W        W12925  17.387   8.670  26.601 -0.1589  0.2408  0.0361
70014W        W12926  14.950   3.933  25.819  0.0446  0.0106 -0.1535
70015W        W12927  17.513   6.348  23.726 -0.1786 -0.0288  0.0628
70016W        W12928  16.728   7.363  25.319  0.1749  0.1543 -0.2056
70017W        W12929  16.437   7.133  24.076  0.0572 -0.1207 -0.1328
70018W        W12930  16.510   5.793  24.169  0.1505  0.0493  0.1727
70019W        W12931  14.011   6.274  28.063  0.1029  0.2313  0.4196
70020W        W12932  15.826   5.669  26.653 -0.0082  0.1258 -0.3350
70021W        W12933  16.026   3.824  22.946 -0.0430 -0.3564 -0.1220
70022W        W12934  17.975   7.118  26.947 -0.0227 -0.0756  0.1578
70023W        W12935  13.318   6.805  26.563  0.0619  0.0353 -0.0914
70024W        W12936  17.968   4.986  24.153 -0.3059  0.0506 -0.0184
70025W        W12937  16.570   5.894  25.788 -0.1551 -0.0190 -0.2595
70026W        W12938  17.677   7.170  25.114 -0.1384 -0.1333  0.3943
70027W        W12939  16.116   5.424  22.847 -0.2627 -0.2759  0.2821
70028W        W12940  17.713   3.908  26.672 -0.2478 -0.0084 -0.1253
70029W        W12941  16.550   3.569  27.035  0.0527  0.3262 -0.1086
70030W        W12942  14.848   7.475  23.869 -0.1283  0.0349  0.0781
70031W        W12943  15.771   6.379  23.228  0.0459  0.0466 -0.0789
70032W        W12944  17.319   6.762  25.211 -0.0706  0.3247 -0.0632
70033W        W12945  16.519   6.139  23.067 -0.1794 -0.3232  0.0642
70034W        W12946  14.896   8.279  25.396 -0.1004  0.2181  0.3190
70035W        W12947  16.621   5.049  26.827 -0.1640  0.0053  0.1687
70036W        W12948  16.243   8.036  27.348  0.0192 -0.3892  0.1541
70037W        W12949  16.118   6.772  24.810  0.1139  0.2215  0.3745
70038W        W12950  15.878   5.135  26.051 -0.0316  0.3483 -0.1019
70039W        W12951  15.230   5.966  23.831  0.1892  0.2789  0.2107
70040W        W12952  14.568   4.917  25.870 -0.2859 -0.5416  0.3277
70041W        W12953  15.695   6.258  25.365  0.0802 -0.2033  0.1355
70042W        W12954  18.015   4.098  23.958  0.0691  0.0362 -0.2095
70043W        W12955  16.248   5.358  26.563  0.1229  0.2188 -0.1520
70044W        W12956  19.242   2.529  25.690 -0.3390  0.1753  0.0574
70045W        W12957  16.646   6.510  24.583 -0.1462  0.0384 -0.3084
70046W        W12958  18.909   6.920  23.153  0.2058  0.1210 -0.1937
70047W        W12959  15.845   4.962  23.651 -0.0008 -0.2200 -0.3005
70048W        W12960  17.991   6.460  23.377  0.4173  0.3989  0.1780
70049W        W12961  13.979   4.604  25.981 -0.2602  0.0431  0.0677
70050W        W12962  16.793   4.226  25.484 -0.1960  0.1234 -0.1945
70051W        W12963  16.415   4.443  27.141 -0.1545 -0.0094  0.1298
70052W        W12964  15.290   4.826  25.427  0.0097  0.4300  0.1522
70053W        W12965  18.228   6.441  28.580 -0.1093 -0.0924 -0.0940
70054W        W12966  14.848   4.041  22.454 -0.2175 -0.1254  0.4414
70055W        W12967  17.272   4.556  25.147  0.1613 -0.0299  0.1124
70056W        W12968  15.217   5.543  24.785 -0.3108 -0.2236 -0.0009
70057W        W12969  14.892   5.219  24.467  0.0505 -0.0408 -0.0510
70058W        W12970  18.928   4.963  27.195  0.2591  0.1177  0.1825
70059W        W12971  16.700   8.718  25.883  0.0228  0.0201 -0.2283
70060W        W12972  18.181   6.004  26.346  0.1766 -0.1734 -0.0257
70061W        W12973  17.694   6.559  24.284  0.0676  0.1686  0.0864
70062W        W12974  13.985   4.588  28.306 -0.0286 -0.3626 -0.0419
70063W        W12975  15.533   4.063  24.952  0.0204  0.0262  0.0571
70064W        W12976  15.655   7.307  25.244 -0.2471  0.1325 -0.1814
70065W        W12977  15.959   6.885  26.060  0.1325 -0.1209 -0.0545
70066W        W12978  16.290   4.848  24.461  0.0152  0.3002 -0.0287
70067W        W12979  17.970   7.007  25.544  0.0601 -0.0086 -0.0997
70068W        W12980  15.803   6.330  24.792 -0.0853  0.2159  0.1109
70069W        W12981  15.730   7.122  26.530 -0.1673 -0.3912 -0.0851
70070W        W12982  17.461   3.053  27.092 -0.1505  0.1265  0.0130
70071W        W12983  16.739   6.348  25.897 -0.0150 -0.0974 -0.1824
70072W        W12984  17.674   4.827  27.198 -0.4193 -0.0260  0.1472
70073W        W12985  14.340   3.969  24.145 -0.1306 -0.0898  0.0549
70074W        W12986  16.136   7.339  26.197 -0.0175  0.1345 -0.4285
70075W        W12987  15.724   8.224  23.626  0.1343  0.1993  0.1535
70076W        W12988  14.826   6.843  24.547  0.0076 -0.1367 -0.0082
70077W        W12989  17.339   6.658  25.718  0.0699 -0.1529  0.0080
70078W        W12990  16.642   4.629  24.846  0.3115 -0.0690 -0.1204
70079W        W12991  13.317   5.629  27.664 -0.1507  0.2960  0.3425
70080W        W12992  17.344   5.592  27.787 -0.2106  0.1504  0.3757
70081W        W12993  15.182   4.876  22.835  0.2983 -0.0810  0.3146
70082W        W12994  16.249   5.801  26.311 -0.0220 -0.2885 -0.1835
70083W        W12995  16.908   4.262  24.959 -0.1413 -0.1392  0.1662
70084W        W12996  17.082   4.025  23.384 -0.2822 -0.2909  0.3451
70085W        W12997  17.350   5.388  27.274  0.3248 -0.0741  0.1464
70086W        W12998  17.225   5.295  24.231  0.0996 -0.1284 -0.1343
70087W        W12999  16.380   3.004  23.342  0.1148 -0.1608 -0.0270
70088W        W13000  16.317   4.895  25.438  0.0043 -0.1154 -0.1251
70089W        W13001  16.157   6.238  26.726  0.1531 -0.2851 -0.2607
70090W        W13002  17.026   7.035  24.047 -0.0703 -0.0186 -0.3770
70091W        W13003  17.088   6.683  26.401  0.0609 -0.0191  0.4852
70092W        W13004  16.170   5.483  23.790  0.0319  0.1548  0.0050
70093W        W13005  19.054   8.251  23.964 -0.0401  0.3684  0.1594
70094W        W13006  15.215   7.000  26.595 -0.1146 -0.1626  0.2388
70095W        W13007  18.645   6.341  28.373  0.1088 -0.1938 -0.1074
70096W        W13008  18.338   5.418  25.514 -0.1238  0.0436 -0.0202
70097W        W13009  16.641   3.756  25.817  0.1140 -0.0860 -0.2082
70098W        W13010  14.884   4.139  24.440 -0.1888 -0.0412 -0.1393
70099W        W13011  16.233   3.715  24.931 -0.0950 -0.1391 -0.0268
70100W        W13012  14.294   7.688  24.099  0.3355 -0.0556  0.0480
70101W        W13013  17.727   5.700  27.139  0.1761 -0.0037 -0.0183
70102W        W13014  17.082   3.338  26.528 -0.0135  0.2675 -0.3313
70103W        W13015  16.226   4.899  26.385  0.2065 -0.0984 -0.1067
70104W        W13016  18.243   5.789  26.958 -0.1449 -0.1165  0.0894
70105W        W13017  16.568   5.657  23.442  0.0677  0.2463  0.0313
70106W        W13018  17.610   5.310  26.830 -0.1018 -0.2040  0.1126
70107W        W13019  14.901   4.840  22.334  0.1302 -0.4098  0.0768
70108W        W13020  17.094   6.244  26.556 -0.0413  0.4159 -0.1596
70109W        W13021  15.428   5.425  25.216  0.4359  0.0508 -0.2001
70110W        W13022  15.212   6.490  27.224 -0.0818  0.2006 -0.2282
70111W        W13023  17.576   6.393  26.659  0.2673 -0.0455  0.1272
70112W        W13024  16.370   5.421  25.532 -0.0006  0.2619 -0.2509
70113W        W13025  16.153   4.376  27.572  0.0782 -0.4649 -0.3632
70114W        W13026  14.278   3.760  23.184 -0.3448 -0.1364 -0.0749
70115W        W13027  16.592   7.011  24.499  0.3154  0.1703 -0.2375
70116W        W13028  14.812   6.641  22.707 -0.1895 -0.0185  0.0312
70117W        W13029  15.820   3.472  26.199  0.1820  0.0900  0.1638
70118W        W13030  16.594   4.894  27.363 -0.0997 -0.2394 -0.0474
70119W        W13031  15.824   6.734  22.870  0.1267  0.1556  0.3392
70120W        W13032  17.061   8.031  28.217  0.1192 -0.0408 -0.3056
70121W        W13033  15.543   7.057  25.747 -0.3508 -0.1459 -0.0032
70122W        W13034  16.580   3.248  25.413 -0.1369  0.2489 -0.0962
70123W        W13035  15.235   7.465  24.907 -0.1877 -0.0989 -0.1295
70124W        W13036  15.796   5.568  22.470  0.4144 -0.3632 -0.0882
70125W        W13037  14.577   5.429  22.998 -0.0789 -0.1301  0.1476
70126W        W13038  17.010   4.126  25.983 -0.1912  0.5438 -0.2624
70127W        W13039  17.313   7.445  23.251  0.0929 -0.2151 -0.1216
70128W        W13040  15.877   5.375  27.099 -0.0742  0.0342  0.0254
70129W        W13041  17.228   5.067  25.538  0.1548  0.0608  0.0701
70130W        W13042  15.918   8.055  26.337 -0.2718  0.2518  0.3113
70131W        W13043  17.807   6.302  26.229  0.4403  0.2421  0.2292
70132W        W13044  15.571   4.569  24.819  0.0439  0.1569  0.0746
70133W        W13045  18.238   7.357  27.377 -0.2901 -0.0295 -0.0509
70134W        W13046  17.529   6.164  27.063  0.2691  0.4349 -0.0153
70135W        W13047  15.013   4.726  24.760  0.0024  0.0968 -0.1830
70136W        W13048  17.336   5.467  25.971  0.4648 -0.1320 -0.4703
70137W        W13049  16.489   5.198  23.592 -0.0028 -0.0874 -0.2926
70138W        W13050  16.315   7.021  25.644 -0.3671 -0.1363  0.3528
70139W        W13051  17.608   8.618  27.084 -0.1474  0.2048 -0.0071
70140W        W13052  15.732   5.014  25.231 -0.3260 -0.0406 -0.3246
70141W        W13053  16.981   7.005  25.907  0.0311  0.0239  0.0472
70142W        W13054  16.020   5.845  27.081 -0.1229 -0.2506 -0.0182
70143W        W13055  17.113   5.431  25.055 -0.1556  0.0064 -0.0648
70144W        W13056  16.643   5.441  26.152 -0.1039  0.1148 -0.0911
70145W        W13057  16.224   3.568  25.440 -0.1448  0.1035 -0.0416
70146W        W13058  17.326   4.315  26.762 -0.3896 -0.3046  0.1616
70147W        W13059  18.073   6.831  26.091 -0.0559 -0.0713 -0.0283
70148W        W13060  17.489   7.062  27.283  0.1277  0.1562 -0.0748
70149W        W13061  15.723   6.308  27.173 -0.0903  0.2087  0.1123
70150W        W13062  16.824   3.749  26.641 -0.2132  0.1445 -0.2410
70151W        W13063  17.261   7.589  26.028  0.2893  0.2481  0.0933
70152W        W13064  17.298   8.011  26.284 -0.2375  0.0189 -0.4578
70153W        W13065  15.960   5.627  25.932  0.2861 -0.1884  0.1154
70154W        W13066  14.704   5.901  24.560  0.1061  0.2755  0.0815
70155W        W13067  16.431   6.795  26.078  0.1474  0.0562 -0.1712
70156W        W13068  17.340   4.672  26.331 -0.0609  0.4484  0.3398
70157W        W13069  16.637   6.379  25.345 -0.0068 -0.1086  0.1287
70158W        W13070  14.373   6.171  22.914 -0.2454  0.3679 -0.0568
70159W        W13071  15.585   6.705  26.779  0.2022  0.0193 -0.1450
70160W        W13072  16.613   5.406  22.937 -0.0579  0.2660  0.1294
70161W        W13073  16.519   4.437  22.751 -0.0269 -0.1014 -0.0513
70162W        W13074  15.870   4.941  24.680 -0.1369 -0.0036 -0.0649
70163W        W13075  16.839   3.799  27.523  0.1997 -0.1229 -0.2550
70164W        W13076  17.082   6.538  23.841  0.3522 -0.0091  0.0174
70165W        W13077  16.954   4.504  27.340 -0.0862  0.0269  0.1428
70166W        W13078  15.841   3.444  27.681  0.0542 -0.0705 -0.2333
70167W        W13079  18.138   5.900  23.099 -0.1705  0.3133 -0.1014
70168W        W13080  14.801   5.918  26.612 -0.1215  0.1185 -0.0020
70169W        W13081  17.991   7.547  28.080  0.2601 -0.0096 -0.0624
70170W        W13082  15.696   4.238  27.501  0.1450 -0.0177  0.1173
70171W        W13083  17.808   3.834  25.392  0.0234 -0.0408 -0.0696
70172W        W13084  15.067   3.592  22.439  0.0669 -0.1383  0.1447
70173W        W13085  16.620   6.402  26.449  0.2079 -0.2283 -0.1291
70174W        W13086  17.650   5.736  25.071  0.0670  0.0109  0.2042
70175W        W13087  16.626   6.550  22.089  0.1088  0.0782  0.3638
70176W        W13088  16.565   5.107  24.907 -0.2031 -0.1095 -0.3065
70177W        W13089  16.853   6.888  26.812 -0.0866 -0.1750  0.0224
70178W        W13090  17.636   5.680  23.420  0.2364 -0.0952  0.4597
70179W        W13091  15.648   4.763  25.790 -0.1413  0.1010  0.1286
70180W        W13092  16.116   5.870  23.203  0.0532 -0.1000 -0.2334
70181W        W13093  14.988   4.789  26.898  0.0380  0.0805 -0.0396
70182W        W13094  18.024   5.817  25.398 -0.3722  0.1557 -0.0028
70183W        W13095  16.812   5.437  24.539  0.0860 -0.1317  0.0962
70184W        W13096  17.224   5.601  26.822 -0.0262  0.1391  0.0519
70185W        W13097  18.672   5.499  26.040 -0.0967  0.2823  0.0467
70186W        W13098  16.794   5.505  26.613  0.0856 -0.0197 -0.5278
70187W        W13099  15.486   5.019  26.923  0.0131  0.1532 -0.0919
70188W        W13100  18.239   6.487  26.416  0.5181  0.0563 -0.3272
70189W        W13101  18.223   4.498  24.045  0.3431 -0.1661 -0.1591
70190W        W13102  18.186   5.361  26.059 -0.1577  0.0338  0.1574
70191W        W13103  18.681   4.582  23.225 -0.4976 -0.1991 -0.1400
70192W        W13104  16.991   4.468  23.938 -0.5947 -0.2757  0.0937
70193W        W13105  15.684   3.044  26.519 -0.1530 -0.0160  0.1007
70194W        W13106  17.879   6.434  27.672 -0.2136 -0.2897  0.1070
70195W        W13107  15.372   4.505  23.161 -0.1277 -0.0944 -0.0120
70196W        W13108  17.174   5.024  26.982  0.2157  0.2288 -0.0791
70197W        W13109  16.044   5.905  25.007  0.0746 -0.0562 -0.1247
70198W        W13110  17.314   8.186  26.817  0.3221 -0.1832 -0.1778
70199W        W13111  18.141   5.473  23.896  0.1668  0.2949 -0.1609
70200W        W13112  14.842   6.210  27.579  0.0441 -0.5028 -0.1241
70201W        W13113  15.474   7.332  27.087 -0.1028 -0.1712 -0.3132
70202W        W13114  15.275   4.686  23.681 -0.2016  0.3314 -0.3110
70203W        W13115  16.833   6.546  22.920 -0.1259  0.2318 -0.4579
70204W        W13116  16.952   8.712  26.331  0.1644 -0.1857  0.0839
70205W        W13117  19.588   5.757  26.828 -0.1695  0.1341  0.0228
70206W        W13118  15.977   4.404  24.504 -0.0924 -0.0283  0.2495
70207W        W13119  17.903   3.036  26.677 -0.0865  0.1585  0.0031
70208W        W13120  15.882   6.434  24.330  0.1015  0.2300  0.1930
70209W        W13121  16.440   5.024  25.916  0.0510  0.0868  0.2122
70210W        W13122  16.829   8.090  26.569  0.0815 -0.1304  0.0376
70211W        W13123  13.452   6.476  26.986  0.0288  0.0212  0.3129
70212W        W13124  17.327   7.105  25.549 -0.2817 -0.3856 -0.2632
70213W        W13125  16.340   3.714  26.283 -0.2110  0.5984  0.0441
70214W        W13126  17.829   5.863  24.589 -0.0023  0.1788 -0.0795
70215W        W13127  16.688   6.425  26.932  0.1373  0.2509 -0.1387
70216W        W13128  17.730   5.797  26.200 -0.1150 -0.0448 -0.0697
70217W        W13129  16.323   7.703  26.495 -0.1989 -0.0045 -0.3025
70218W        W13130  17.204   5.807  26.349 -0.3474 -0.0751 -0.1495
70219W        W13131  17.789   6.623  27.033  0.0052  0.3210  0.1593
70220W        W13132  17.775   5.828  22.787  0.0709  0.4297 -0.0369
70221W        W13133  15.890   5.500  25.413  0.1082  0.2403 -0.0372
70222W        W13134  14.106   4.642  26.492  0.0756  0.0488 -0.2412
70223W        W13135  15.824   4.702  27.279  0.0491  0.0881 -0.3450
70224W        W13136  17.094   6.239  25.505 -0.1240  0.5607 -0.1283
70225W        W13137  14.700   3.154  23.681 -0.1537  0.1775  0.1122
70226W        W13138  17.059   6.259  23.309  0.1141  0.0489  0.1994
70227W        W13139  14.477   6.808  27.730  0.2522  0.2078 -0.3092
70228W        W13140  15.628   6.384  27.684  0.2329  0.1138  0.2034
70229W        W13141  15.305   7.706  23.117 -0.4637 -0.0485  0.0807
70230W        W13142  17.632   6.212  23.199  0.0465 -0.2676  0.0920
70231W        W13143  16.874   5.410  25.631  0.4277  0.2360 -0.0252
70232W        W13144  16.904   8.276  26.027  0.1548  0.2310 -0.4656
70233W        W13145  14.927   3.188  22.755 -0.0021  0.1976  0.1520
70234W        W13146  14.180   6.952  26.476  0.3154  0.0872  0.5103
70235W        W13147  15.970   5.410  24.278 -0.1583  0.1239 -0.0457
70236W        W13148  17.944   7.064  24.408  0.1017  0.0414 -0.1310
70237W        W13149  15.343   6.741  25.446  0.3048 -0.0755 -0.0475
70238W        W13150  18.353   6.684  28.090  0.1752  0.2008  0.1655
70239W        W13151  17.024   4.596  22.498 -0.1601  0.0332 -0.0765
70240W        W13152  17.019   4.524  24.454  0.3424  0.0149 -0.0685
70241W        W13153  17.337   5.664  24.530  0.2472 -0.0540 -0.2211
70242W        W13154  17.428   6.557  27.951  0.3043 -0.1464  0.1737
70243W        W13155  15.976   3.977  25.300  0.0229  0.0470  0.1153
70244W        W13156  15.776   4.922  24.166  0.0928 -0.2965 -0.1758
70245W        W13157  15.199   5.236  26.545 -0.0650 -0.0023 -0.1025
70246W        W13158  16.677   2.881  27.315  0.3469 -0.1268  0.0190
70247W        W13159  13.678   7.649  27.606 -0.1786 -0.1612 -0.1413
70248W        W13160  17.965   7.252  23.851  0.3510  0.1217 -0.0180
70249W        W13161  14.144   3.184  23.695  0.2893  0.4694  0.3426
70250W        W13162  17.401   6.147  24.697  0.5032  0.3473  0.3221
70251W        W13163  17.352   3.145  26.121 -0.0045 -0.2148 -0.0912
70252W        W13164  16.129   6.481  22.000  0.2365 -0.0672  0.0415
70253W        W13165  16.762   4.656  25.771  0.1735 -0.0881  0.0932
70254W        W13166  17.161   7.286  25.093 -0.4577  0.2287 -0.0754
70255W        W13167  16.046   6.230  26.101 -0.0343 -0.0891 -0.2277
70256W        W13168  17.691   7.831  26.642 -0.0062 -0.2134 -0.1119
70257W        W13169  15.582   4.419  23.977  0.0549 -0.1767  0.2068
70258W        W13170  18.149   5.597  24.890 -0.0961  0.0628 -0.0153
70259W        W13171  15.539   5.501  26.240 -0.0246  0.2381 -0.0114
70260W        W13172  17.965   3.737  24.360  0.2315 -0.2799 -0.2574
70261W        W13173  16.046   4.493  25.635  0.1057 -0.0530  0.1740
70262W        W13174  17.637   5.095  23.686  0.0459 -0.2200  0.1140
70263W        W13175  17.181   6.494  26.986 -0.0238  0.1749 -0.1806
70264W        W13176  15.818   4.604  26.253 -0.0952 -0.3384  0.1250
70265W        W13177  15.971   6.899  24.094  0.4936 -0.0319  0.4106
70266W        W13178  19.069   5.971  26.299  0.1495  0.1667  0.0089
70267W        W13179  15.059   6.993  23.592  0.3142 -0.1164 -0.0199
70268W        W13180  18.131   8.820  27.105  0.0408 -0.0725  0.1909
70269W        W13181  15.733   5.448  24.787 -0.1232  0.0137 -0.1830
70270W        W13182  16.200   4.604  23.434 -0.1156 -0.1813 -0.1473
70271W        W13183  15.313   5.049  26.127 -0.2219 -0.1323 -0.0936
70272W        W13184  16.284   4.442  26.080 -0.0389  0.0641 -0.2595
70273W        W13185  18.570   8.513  28.696  0.0098  0.1110  0.0227
70274W        W13186  15.332   4.687  26.527 -0.0323  0.0248  0.0630
70275W        W13187  18.001   6.346  22.889 -0.1948 -0.3632 -0.3114
70276W        W13188  17.421   5.063  25.072 -0.1711 -0.0004  0.0930
70277W        W13189  15.648   7.469  24.442  0.1011  0.1816 -0.3468
70278W        W13190  17.225   5.939  23.723 -0.0035  0.0308 -0.0394
70279W        W13191  18.320   6.750  25.269 -0.4452  0.3993 -0.0482
70280W        W13192  15.272   5.763  26.627 -0.0447 -0.2375 -0.1169
70281W        W13193  17.868   6.491  25.751  0.0290  0.0701  0.1439
70282W        W13194  17.831   6.696  25.159  0.1886  0.2720 -0.3079
70283W        W13195  17.312   2.636  24.728 -0.0966 -0.0944  0.1699
70284W        W13196  16.742   5.953  26.261 -0.2921 -0.1550 -0.4999
70285W        W13197  14.759   7.971  23.862  0.1234 -0.0165  0.1054
70286W        W13198  17.067   4.953  24.721 -0.1477  0.1293  0.5715
70287W        W13199  17.653   3.609  24.816  0.1959 -0.3007  0.0857
70288W        W13200  16.572   7.158  23.611  0.1317  0.1125 -0.0996
70289W        W13201  16.675   4.146  26.348 -0.1047 -0.3665 -0.1525
70290W        W13202  17.010   6.418  24.984  0.3077  0.2222  0.2126
70291W        W13203  16.821   7.558  27.885  0.0431  0.1373  0.1185
70292W        W13204  14.835   3.764  24.064  0.1261  0.1335 -0.3071
70293W        W13205  16.124   6.716  26.553 -0.2194 -0.3370 -0.1460
70294W        W13206  16.254   5.456  21.669  0.0306 -0.0221 -0.4575
70295W        W13207  16.419   7.282  24.845  0.0946 -0.0853 -0.1489
70296W        W13208  17.647   6.040  25.695  0.1578  0.4542 -0.0156
70297W        W13209  17.196   4.091  24.558 -0.1757 -0.3208  0.0445
70298W        W13210  17.515   5.021  26.001  0.1389  0.2564  0.1617
70299W        W13211  16.123   4.624  25.017 -0.1336  0.2939  0.1371
70300W        W13212  16.667   5.954  24.624 -0.0585  0.0728 -0.2399
70301W        W13213  16.898   4.528  26.771  0.0542 -0.2811 -0.0072
70302W        W13214  16.512   5.896  26.818 -0.0913  0.2258  0.1810
70303W        W13215  12.946   4.416  24.122 -0.4484  0.0320 -0.1993
70304W        W13216  13.358   5.206  23.499 -0.0403 -0.0243  0.4095
70305W        W13217  15.558   5.886  24.998  0.0966  0.2548  0.1636
70306W        W13218  15.238   4.838  28.765  0.1291  0.1378 -0.0387
70307W        W13219  13.604   5.315  26.864 -0.1767  0.0920 -0.0837
70308W        W13220  14.660   5.613  25.324  0.0266 -0.1439 -0.4569
70309W        W13221  15.614   4.035  23.170 -0.0832  0.4192 -0.0706
70310W        W13222  17.138   6.927  23.017 -0.2365  0.1361  0.1615
70311W        W13223  15.846   3.675  25.726  0.3920 -0.1489  0.5195
70312W        W13224  15.209   3.495  25.182 -0.2544 -0.1541 -0.1111
70313W        W13225  17.071   5.783  24.132  0.1775  0.2921  0.1706
70314W        W13226  16.155   6.376  25.153 -0.0985 -0.1007  0.0060
70315W        W13227  15.008   3.940  24.890 -0.2590 -0.2704  0.0128
70316W        W13228  20.308   6.018  26.632  0.0820 -0.1211 -0.1395
70317W        W13229  14.670   5.250  21.964 -0.1739 -0.1574 -0.0976
70318W        W13230  16.467   3.641  28.486 -0.1093  0.2028 -0.0195
70319W        W13231  16.142   4.948  26.950  0.2037 -0.1364 -0.1122
70320W        W13232  14.303   3.254  22.801 -0.0211 -0.1238  0.1121
70321W        W13233  15.491   4.978  27.450  0.5413 -0.0034 -0.0619
70322W        W13234  17.769   7.713  25.437  0.2541  0.1275  0.1798
70323W        W13235  18.033   8.542  23.529 -0.0549  0.0969 -0.0121
70324W        W13236  16.686   7.443  26.715 -0.0837 -0.1281  0.0118
70325W        W13237  16.671   7.687  28.370  0.0258  0.1736 -0.1708
70326W        W13238  14.321   4.261  28.168 -0.1629 -0.1202 -0.2766
70327W        W13239  17.249   5.294  22.217 -0.2173  0.2578 -0.0523
70328W        W13240  16.056   7.265  27.187  0.0862  0.4105 -0.2847
70329W        W13241  18.013   5.925  21.752  0.2749 -0.2270  0.1626
70330W        W13242  17.471   4.115  27.169  0.0972  0.1781  0.1250
70331W        W13243  16.162   4.892  22.772  0.1375 -0.4037  0.1419
70332W        W13244  14.644   4.412  27.675 -0.0850 -0.1085 -0.2247
70333W        W13245  17.109   7.316  27.046  0.1599  0.1182 -0.2237
70334W        W13246  17.329   5.693  25.465  0.1270 -0.0935  0.0572
70335W        W13247  14.947   3.383  26.710 -0.1026  0.1428  0.0706
70336W        W13248  14.984   2.952  24.842  0.0312 -0.0565 -0.1153
70337W        W13249  17.061   5.938  24.981  0.1346  0.1319  0.0092
70338W        W13250  15.146   6.434  26.330 -0.1940 -0.5464 -0.2053
70339W        W13251  16.406   6.095  23.674 -0.0045 -0.0413  0.2026
70340W        W13252  16.594   7.169  27.132 -0.1610 -0.0145  0.0226
70341W        W13253  15.524   6.030  26.088  0.0609  0.2278 -0.0858
70342W        W13254  17.962   5.288  27.214  0.2370  0.3106 -0.0089
70343W        W13255  14.635   6.654  23.756 -0.2461  0.0586  0.0798
70344W        W13256  17.656   5.443  22.512  0.0001  0.0293  0.1411
70345W        W13257  18.232   7.959  25.843 -0.2105  0.1257  0.2808
70346W        W13258  17.980   8.390  27.339 -0.0639  0.0054  0.3475
70347W        W13259  17.722   7.398  25.864  0.1591 -0.0220 -0.0234
70348W        W13260  19.004   5.677  24.777  0.2069  0.1151 -0.0668
70349W        W13261  15.277   4.457  26.073 -0.4458  0.2147 -0.0358
70350W        W13262  15.711   3.595  25.156  0.0489  0.1775  0.1447
70351W        W13263  16.875   4.881  25.221 -0.3131 -0.2290  0.0455
70352W        W13264  18.540   4.059  26.181  0.1509 -0.0677 -0.2035
70353W        W13265  15.075   5.665  24.251 -0.0242 -0.1538  0.1071
70354W        W13266  16.879   2.780  24.198 -0.0569 -0.2628  0.4773
70355W        W13267  15.846   7.558  26.793  0.3476 -0.0745 -0.1107
70356W        W13268  17.136   7.251  26.473  0.1971  0.2625  0.2489
70357W        W13269  15.487   6.089  30.948 -0.2150  0.1499  0.3521
70358W        W13270  15.367   4.358  27.834 -0.2175 -0.0996  0.0238
70359W        W13271  17.586   5.123  27.657 -0.0407 -0.2091  0.0775
70360W        W13272  16.872   5.452  28.163  0.0191 -0.2149 -0.1860
70361W        W13273  14.777   3.375  28.702  0.1746 -0.0402 -0.2964
70362W        W13274  19.210   6.675  27.655 -0.1984 -0.3967  0.0555
70363W        W13275  16.625   3.024  28.654 -0.0719  0.1795 -0.1397
70364W        W13276  16.804   5.939  28.816  0.1125  0.1227 -0.3989
70365W        W13277  19.441   6.879  28.442  0.1483 -0.3196 -0.1136
70366W        W13278  17.999   6.923  27.400 -0.0960  0.2099  0.1498
70367W        W13279  15.443   4.630   0.942  0.3267 -0.1443 -0.0243
70368W        W13280  18.029   6.938  31.058  0.1001 -0.2188  0.2342
70369W        W13281  14.598   4.479  29.313 -0.1951 -0.5164 -0.0112
70370W        W13282  14.700   4.886  29.006 -0.0509 -0.0918 -0.2432
70371W        W13283  17.658   5.333  30.825  0.2924  0.1734  0.0525
70372W        W13284  13.499   6.230  28.232  0.1334  0.1013  0.3493
70373W        W13285  14.093   5.667  29.082  0.0594 -0.1186  0.1506
70374W        W13286  15.823   5.259  28.516  0.0812 -0.1951 -0.2846
70375W        W13287  17.061   6.160  27.894  0.1127 -0.0308  0.2509
70376W        W13288  16.984   3.958  28.908  0.1201 -0.0322 -0.1930
70377W        W13289  17.066   4.557  31.713 -0.0510 -0.2581 -0.0366
70378W        W13290  15.513   5.335  28.859  0.0671 -0.0651 -0.0899
70379W        W13291  15.253   4.950  29.228 -0.1513 -0.0276  0.0554
70380W        W13292  15.463   4.241  30.790  0.4537  0.0522  0.0260
70381W        W13293  16.889   3.881  30.297  0.1374 -0.1227 -0.3011
70382W        W13294  17.584   4.784  29.119 -0.3555  0.1183 -0.0160
70383W        W13295  18.111   4.869  29.189 -0.0824  0.1162 -0.2652
70384W        W13296  15.404   5.894  27.619 -0.1444 -0.1899 -0.2362
70385W        W13297  17.249   7.843  29.549 -0.2137  0.1202 -0.0912
70386W        W13298  16.529   4.670  31.418  0.2779  0.3444 -0.1081
70387W        W13299  13.785   4.715  28.906 -0.2551  0.1086  0.1335
70388W        W13300  14.316   7.926  28.850  0.1057  0.1891  0.1391
70389W        W13301  15.426   6.905  28.904 -0.1683  0.1066  0.1113
70390W        W13302  20.153   7.257  28.582 -0.2005 -0.1998  0.0184
70391W        W13303  17.716   5.765  30.388  0.2873 -0.3753 -0.0992
70392W        W13304  15.166   6.630  30.844 -0.1989 -0.0937 -0.0200
70393W        W13305  16.435   7.259  28.076 -0.1118 -0.2436 -0.0548
70394W        W13306  17.218   7.275  30.648 -0.2219 -0.2484 -0.0432
70395W        W13307  15.261   7.041  30.548 -0.1301  0.1284  0.0404
70396W        W13308  15.412   5.239  30.757 -0.1360 -0.1852 -0.1064
70397W        W13309  16.384   5.265  30.043 -0.4562  0.0059 -0.0041
70398W        W13310  16.338   7.180  29.111  0.0530 -0.0638 -0.0045
70399W        W13311  15.626   5.368  29.880 -0.1942 -0.0856 -0.4549
70400W        W13312  16.101   5.489  31.427  0.3017 -0.2358  0.0458
70401W        W13313  14.823   5.632  30.719  0.0596 -0.0673 -0.1243
70402W        W13314  17.641   5.329  30.154  0.1855 -0.1082 -0.2705
70403W        W13315  16.468   6.657  27.525  0.0256 -0.2617 -0.0101
70404W        W13316  18.779   4.953  27.733 -0.3416 -0.0444  0.1996
70405W        W13317  15.035   5.266  27.063 -0.3023 -0.2412 -0.3552
70406W        W13318  18.949   4.332  28.843  0.3641  0.0546 -0.2308
70407W        W13319  16.035   2.631  29.335  0.1881 -0.0246 -0.1557
70408W        W13320  18.491   6.199  28.960  0.0857  0.0302 -0.0860
70409W        W13321  16.204   5.100  29.122 -0.1903 -0.0278 -0.1192
70410W        W13322  17.841   6.852  29.305  0.0945  0.0283 -0.2495
70411W        W13323  15.527   5.830  30.128 -0.2777  0.0729  0.0426
70412W        W13324  16.772   5.393  31.202  0.0291  0.0824 -0.0468
70413W        W13325  14.969   7.400  31.542  0.2789 -0.0397 -0.0807
70414W        W13326  14.539   4.654  29.824 -0.1299 -0.0387 -0.0764
70415W        W13327  17.793   7.403  27.539 -0.1241  0.0816 -0.2161
70416W        W13328  18.965   6.920  28.618 -0.3330 -0.1740  0.1116
70417W        W13329  15.933   6.526  28.064 -0.1217 -0.0261 -0.0683
70418W        W13330  12.903   3.520  26.318 -0.1429 -0.1716 -0.3705
70419W        W13331  14.557   5.796   0.916  0.2788  0.2144 -0.1133
70420W        W13332  15.095   5.427  29.202  0.2106 -0.1225  0.2140
70421W        W13333  15.824   6.213  28.400  0.1346  0.0910  0.0599
70422W        W13334  18.667   7.080  31.099  0.0238  0.0033  0.2264
70423W        W13335  15.220   7.278  31.097 -0.0461  0.2751  0.1383
70424W        W13336  17.308   5.295  28.333 -0.1796 -0.1004  0.0756
70425W        W13337  15.255   5.453  30.305 -0.2110  0.2572  0.0624
70426W        W13338  18.522   7.560  28.954  0.0555  0.3131  0.0309
70427W        W13339  17.062   5.835  25.882  0.1068 -0.1589  0.0464
70428W        W13340  17.141   5.109  27.904 -0.0133  0.0867 -0.0871
70429W        W13341  17.597   4.178  28.535  0.0996 -0.0494 -0.2127
70430W        W13342  16.261   6.502  25.689 -0.1474 -0.1187  0.2108
70431W        W13343  17.690   6.696  28.438  0.3875  0.1942  0.2113
70432W        W13344  18.827   7.073  29.133  0.3390 -0.2380  0.1237
70433W        W13345  18.744   5.752  27.119  0.1036 -0.0576  0.2193
70434W        W13346  15.177   6.410  31.336  0.1540  0.1727  0.1471
70435W        W13347  16.732   4.349  30.524 -0.0056  0.1325  0.2771
70436W        W13348  15.640   5.265  31.305 -0.0717 -0.0789  0.0769
70437W        W13349  13.738   7.144  27.912 -0.2533  0.1704 -0.2703
70438W        W13350  14.956   4.925  30.079 -0.1784 -0.0276 -0.0518
70439W        W13351  14.920   4.844  28.346  0.2514  0.2952 -0.3343
70440W        W13352  14.842   3.431  29.738  0.1620 -0.1075  0.1130
70441W        W13353  15.191   6.264  30.002  0.2770  0.1219  0.0356
70442W        W13354  17.967   3.423  28.667  0.0102 -0.1739 -0.0607
70443W        W13355  15.348   2.839  30.967 -0.3099  0.0704 -0.0020
70444W        W13356  17.469   2.225  28.437 -0.3713 -0.1230 -0.0364
70445W        W13357  15.466   5.852  27.141 -0.1688 -0.1161 -0.2659
70446W        W13358  19.121   7.270  28.207  0.1896  0.1272 -0.0157
70447W        W13359  17.575   5.851  29.148  0.3831 -0.1328 -0.1079
70448W        W13360  15.062   6.757  28.546 -0.1431 -0.2571  0.0823
70449W        W13361  14.813   5.450  30.076  0.1340 -0.0050  0.0103
70450W        W13362  13.908   6.747  28.691  0.1334 -0.2725 -0.2388
70451W        W13363  16.946   3.381  30.210  0.1444  0.0040 -0.0988
70452W        W13364  14.835   5.090  30.636  0.1599 -0.0645 -0.2521
70453W        W13365  18.806   5.865  30.253  0.4825  0.1780  0.4084
70454W        W13366  13.849   3.724  28.510 -0.1713 -0.1164 -0.0255
70455W        W13367  17.005   5.481  29.661  0.0097 -0.2808 -0.1810
70456W        W13368  14.248   5.736  27.635  0.2408 -0.1636  0.4454
70457W        W13369  14.766   5.637  27.898  0.0706 -0.1372 -0.2724
70458W        W13370  17.046   4.170  29.411 -0.2104 -0.1698 -0.2175
70459W        W13371  16.647   5.030  27.873 -0.3600  0.0634 -0.1344
70460W        W13372  18.076   7.012  30.380  0.3262 -0.1035  0.1473
70461W        W13373  17.720   7.209  28.914 -0.3554 -0.2091  0.1216
70462W        W13374  14.539   4.609  30.740  0.0690 -0.0017  0.3402
70463W        W13375  16.455   4.526  26.576  0.2381 -0.0387  0.0908
70464W        W13376  15.459   7.198  28.477  0.4067 -0.0591  0.1494
70465W        W13377  16.854   6.082  29.556  0.1899  0.0492  0.3418
70466W        W13378  15.571   4.844  28.369  0.3067  0.2949  0.2407
70467W        W13379  19.289   6.272  29.381 -0.2075 -0.0288 -0.3391
70468W        W13380  16.539   6.351  28.015  0.0400  0.0702 -0.1197
70469W        W13381  15.343   5.658  31.089  0.0632 -0.2359  0.0699
70470W        W13382  18.019   5.814  29.844 -0.0292  0.1651 -0.1635
70471W        W13383  17.521   4.798  29.973  0.1128 -0.1127 -0.0934
70472W        W13384  16.493   5.941  29.213  0.0347 -0.2214 -0.2211
70473W        W13385  15.932   5.451  27.580 -0.0761  0.1916  0.2721
70474W        W13386  16.643   7.050  29.517 -0.1000 -0.0765 -0.0005
70475W        W13387  14.326   7.679  28.409  0.3771  0.1080  0.0725
70476W        W13388  14.727   5.634  29.542 -0.1523  0.2270 -0.0635
70477W        W13389  17.351   7.271  29.340 -0.0383 -0.2188 -0.3713
70478W        W13390  16.605   4.634  28.480  0.4890  0.2076 -0.1806
70479W        W13391  12.660   4.633   0.048 -0.0504 -0.0126  0.2890
70480W        W13392  16.886   5.072  30.018 -0.0716 -0.3296  0.3061
70481W        W13393  13.470   6.609  29.076  0.2271 -0.0724  0.1613
70482W        W13394  15.485   5.765  29.509  0.1850  0.4521  0.0631
70483W        W13395  17.350   4.622  27.676 -0.0700 -0.2480  0.0628
70484W        W13396  16.175   5.941  25.476  0.1922 -0.0137  0.1616
70485W        W13397  17.894   6.917  29.790  0.0950  0.3365  0.1451
70486W        W13398  18.522   5.798  28.167 -0.1839 -0.0632 -0.0403
70487W        W13399  19.226   5.743  27.209 -0.0062 -0.1757 -0.0965
70488W        W13400  16.094   2.992  27.913  0.1806  0.0296  0.0768
70489W        W13401  16.860   6.361  30.697  0.1592 -0.0645 -0.3644
70490W        W13402  17.127   4.640  29.171  0.0270  0.4750  0.0365
70491W        W13403  15.993   6.076  30.903 -0.0021 -0.3090  0.3041
70492W        W13404  15.685   3.999  28.429 -0.0530  0.0024  0.0550
70493W        W13405  20.279   6.494  26.760  0.1072  0.0030 -0.1857
70494W        W13406  14.669   6.758  30.948  0.3546 -0.1648  0.0807
70495W        W13407  17.294   6.939  31.845  0.0175  0.1638  0.1018
70496W        W13408  17.517   6.331  28.853  0.1445  0.0743 -0.2371
70497W        W13409  16.078   4.588  29.076  0.1984 -0.1632  0.1686
70498W        W13410  14.864   5.177  28.045 -0.0448 -0.0717  0.2211
70499W        W13411  16.730   4.892  28.974  0.1363  0.2512 -0.3223
70500W        W13412  14.351   7.230  26.881  0.0489  0.0004 -0.4080
70501W        W13413  18.114   5.347  29.931  0.0015  0.2989 -0.1644
70502W        W13414  16.530   4.249  29.631 -0.3217  0.0866  0.0757
70503W        W13415  16.185   5.002  31.191 -0.1693  0.0358 -0.1448
70504W        W13416  17.668   4.300  31.622  0.1666 -0.0700 -0.0178
70505W        W13417  17.348   4.754  28.679  0.0274 -0.0051  0.1540
70506W        W13418  15.303   5.031  31.679  0.1139  0.0410  0.1545
70507W        W13419  14.573   4.997  26.998  0.1156 -0.1096  0.2298
70508W        W13420  17.008   3.758  31.089 -0.2200 -0.2413  0.1579
70509W        W13421  16.145   4.770  30.666 -0.1388 -0.1661 -0.0822
70510W        W13422  16.192   6.782  30.918  0.0243  0.3899  0.1901
70511W        W13423  17.143   6.887  29.756 -0.2208 -0.3471  0.0005
70512W        W13424  16.307   5.952  28.351 -0.3564  0.0190  0.2361
70513W        W13425  18.339   4.609   0.316 -0.2436 -0.0003  0.1743
70514W        W13426  15.701   4.758  27.840  0.0031  0.0814 -0.0599
70515W        W13427  15.284   7.501  27.900  0.3080  0.2736  0.1487
70516W        W13428  17.145   7.407  27.523 -0.0066 -0.0067  0.2682
70517W        W13429  15.431   4.771  29.812  0.1467  0.0054  0.0910
70518W        W13430  15.917   8.229  29.977 -0.5334 -0.0716 -0.0085
70519W        W13431  16.217   6.814  27.038  0.2878 -0.1041  0.0171
70520W        W13432  18.246   6.504  29.268 -0.0746 -0.0843 -0.0844
70521W        W13433  16.810   7.227  28.548  0.0285  0.0570 -0.3588
70522W        W13434  18.356   4.747  27.897  0.2626 -0.1300  0.0183
70523W        W13435  15.404   6.266  29.380 -0.0795 -0.1426 -0.0320
70524W        W13436  16.233   6.341  27.227 -0.0373 -0.0541 -0.0462
70525W        W13437  14.173   5.456  28.149 -0.1527  0.2229  0.3641
70526W        W13438  18.076   5.201  27.736  0.0921  0.0595  0.2338
70527W        W13439  17.379   7.679  27.154  0.2399 -0.0035 -0.0380
70528W        W13440  15.386   4.052  30.334 -0.0898 -0.4953 -0.1238
70529W        W13441  16.354   3.696  29.515 -0.1830 -0.1712  0.0895
70530W        W13442  14.685   6.493  29.952 -0.0821 -0.0574  0.1151
70531W        W13443  18.794   6.308  29.748 -0.0475 -0.4354  0.0616
70532W        W13444  16.601   4.306  27.646  0.2200  0.0096 -0.0829
70533W        W13445  17.767   7.354  30.754 -0.0114  0.4098  0.4503
70534W        W13446  15.981   5.042  31.642 -0.1409  0.2162 -0.1773
70535W        W13447  14.996   3.597  27.674  0.2834  0.1038  0.1138
70536W        W13448  18.064   5.809  29.365 -0.0946 -0.1627  0.1252
70537W        W13449  16.006   3.844  28.787 -0.2973 -0.0537  0.0047
70538W        W13450  15.311   6.802  30.036  0.3078 -0.0440 -0.1208
70539W        W13451  18.441   6.848  30.683 -0.4445  0.3558 -0.1707
70540W        W13452  14.329   5.576  28.667  0.0388  0.0306 -0.4524
70541W        W13453  14.346   5.980  29.378  0.2902 -0.1250  0.0752
70542W        W13454  15.639   4.780  30.685  0.0293 -0.3075  0.0169
70543W        W13455  17.961   6.143  29.034  0.0339  0.3019  0.4748
70544W        W13456  16.777   4.346  30.015  0.0199 -0.2602 -0.0823
70545W        W13457  16.071   5.824  29.564  0.0982 -0.4110  0.0928
70546W        W13458  16.222   6.137  28.804 -0.1393 -0.4503 -0.0296
70547W        W13459  15.884   6.102  30.394  0.0675 -0.1111 -0.3280
70548W        W13460  16.700   5.144  29.515  0.1075 -0.1705 -0.2712
70549W        W13461  16.580   5.288   1.161 -0.2400 -0.4428  0.0654
70550W        W13462  17.579   3.987  29.526 -0.4480 -0.2583 -0.0200
70551W        W13463  19.066   7.562  27.023  0.2186  0.2154  0.0453
70552W        W13464  17.566   4.314  31.017  0.0775  0.0215  0.2988
70553W        W13465  16.530   5.857  27.347  0.1043 -0.1182 -0.2418
70554W        W13466  15.908   5.287  30.330  0.1004  0.0795 -0.0193
70555W        W13467  15.294   5.705  28.245 -0.0975 -0.0131 -0.0762
70556W        W13468  15.920   3.537  30.644 -0.1672 -0.0181  0.1548
70557W        W13469  14.854   6.823  30.290  0.1395  0.3379 -0.2584
70558W        W13470  17.301   6.980  27.731  0.0166 -0.0259 -0.0627
70559W        W13471  16.059   4.856  30.050  0.3087 -0.4320 -0.2512
70560W        W13472  17.695   3.922  27.794 -0.2527  0.2269  0.0741
70561W        W13473  16.466   5.809  27.902 -0.0604  0.1555  0.0954
70562W        W13474  15.671   4.476  28.711  0.0260 -0.0877 -0.1097
70563W        W13475  18.081   4.207  29.111  0.0351  0.2063 -0.1851
70564W        W13476  18.278   5.657  27.511 -0.1372  0.1218 -0.0905
70565W        W13477  17.219   4.217  31.366  0.1636  0.3592  0.2212
70566W        W13478  16.344   2.624  30.154 -0.1190  0.0094  0.0915
70567W        W13479  16.388   5.638  28.714 -0.2218 -0.0643  0.1269
70568W        W13480  14.928   4.244  30.969 -0.1581 -0.0096  0.0839
70569W        W13481  16.272   6.523  31.348 -0.0606 -0.1064 -0.3127
70570W        W13482  14.948   3.115   0.670 -0.0361  0.1997  0.0034
70571W        W13483  15.786   6.210  29.765  0.3194  0.0022 -0.1741
70572W        W13484  15.214   3.922  28.086  0.2413  0.0987  0.0341
70573W        W13485  16.461   5.249  30.827  0.0050 -0.0854  0.1447
70574W        W13486  15.749   5.838  28.047 -0.2035 -0.2392 -0.2651
70575W        W13487  17.068   5.763  29.233  0.0437 -0.0150 -0.0771
70576W        W13488  18.058   4.248  28.128  0.1613 -0.1766  0.3457
70577W        W13489  14.983   6.166  30.843  0.2418  0.0064  0.4267
70578W        W13490  18.516   5.217  27.299 -0.0740  0.1835  0.0006
70579W        W13491  16.142   4.932  27.574  0.2770  0.0960 -0.0775
70580W        W13492  15.275   5.220  28.338  0.1167  0.0246  0.2061
70581W        W13493  16.596   4.859  30.412 -0.2121 -0.0608 -0.2522
70582W        W13494  17.580   5.541  29.622 -0.1657 -0.0237 -0.1292
70583W        W13495  16.441   3.309  29.968  0.1453  0.0214  0.0281
70584W        W13496  15.867   4.014  30.451  0.1103  0.0189 -0.2525
70585W        W13497  17.232   3.652  30.600 -0.0101 -0.0269 -0.2523
70586W        W13498  16.271   4.164  31.501 -0.1314 -0.2596  0.2542
70587W        W13499  16.165   3.543   0.788 -0.0743 -0.1280 -0.0534
70588W        W13500  17.604   7.000   0.287 -0.1232  0.1386 -0.1234
70589W        W13501  18.075   4.033  26.328 -0.0480  0.1860  0.1745
70590W        W13502  18.227   5.048  28.716 -0.0501  0.1761 -0.3825
70591W        W13503  18.726   5.588  29.186 -0.0708 -0.0214 -0.1087
70592W        W13504  16.210   4.305  28.629 -0.2040  0.1655  0.0424
70593W        W13505  15.901   4.841  29.493  0.2311 -0.1082 -0.0569
70594W        W13506  15.905   5.255  30.824  0.0312  0.3502 -0.0911
70595W        W13507  15.255   5.459  27.473 -0.0439  0.3414  0.1678
70596W        W13508  17.020   4.545  30.996  0.0593 -0.1981  0.3730
70597W        W13509  15.381   6.329  30.444  0.4703 -0.1446 -0.2527
70598W        W13510  17.952   6.407  28.148  0.1446  0.1511 -0.1106
70599W        W13511  16.460   5.125  28.397  0.0174 -0.2507  0.1435
70600W        W13512  14.487   4.151  28.995 -0.0777  0.0469  0.2047
70601W        W13513  14.108   6.800  30.875 -0.2596 -0.1539  0.3236
70602W        W13514  14.522   5.207  28.387  0.1508 -0.2328  0.2308
70603W        W13515  17.248   5.895  27.394  0.0934  0.0212 -0.0075
70604W        W13516  17.482   6.532  29.384  0.0207  0.3478 -0.0566
70605W        W13517  16.014   7.525  31.625 -0.1408 -0.3023 -0.0746
70606W        W13518  16.778   3.371  27.853 -0.0779 -0.1864 -0.0737
70607W        W13519  18.563   5.412  30.706 -0.0284 -0.0466  0.3870
70608W        W13520  14.816   5.657  28.465  0.0505  0.1827 -0.0204
70609W        W13521  16.805   3.676  29.276  0.0552 -0.0480 -0.3298
70610W        W13522  16.169   6.863  29.482  0.0859 -0.3016 -0.1642
70611W        W13523  15.849   5.661  31.066 -0.2585  0.2400  0.2113
70612W        W13524  15.742   6.547  30.747 -0.0635 -0.4309  0.0614
70613W        W13525  16.319   3.380  30.809 -0.1692 -0.1779  0.0518
70614W        W13526  16.682   4.342  29.113  0.2658  0.2976 -0.2347
70615W        W13527  17.460   4.505  30.480 -0.1525  0.1588  0.1476
70616W        W13528  17.353   5.357  31.208 -0.1274 -0.3834 -0.1647
70617W        W13529  17.449   6.991  30.162 -0.1557 -0.1113 -0.3940
70618W        W13530  14.871   3.844  28.903  0.0064  0.0151  0.0334
70619W        W13531  17.059   6.327  29.987 -0.0709  0.0625 -0.2015
70620W        W13532  17.597   4.499  29.532 -0.0516 -0.2582  0.3252
70621W        W13533  14.941   5.255  28.736  0.0888  0.0449  0.1440
70622W        W13534  13.614   5.505  28.974  0.3364 -0.0141 -0.2090
70623W        W13535  17.956   6.322  30.619 -0.2278  0.0898 -0.0367
70624W        W13536  16.842   5.861  30.035 -0.0232 -0.1285 -0.0783
70625W        W13537  15.008   4.630  29.615  0.3585 -0.0359 -0.3025
70626W        W13538  15.119   6.163  28.580 -0.0041 -0.0249  0.1232
70627W        W13539  14.419   6.699  31.400  0.0180 -0.1908 -0.2045
70628W        W13540  15.166   5.716  28.781  0.4257  0.2218  0.0600
70629W        W13541  16.067   7.388  30.160 -0.0790 -0.2262 -0.2490
70630W        W13542  16.922   6.653  27.788  0.0320 -0.1857 -0.0205
70631W        W13543  16.511   5.660  29.591 -0.3695  0.0809  0.0028
70632W        W13544  17.902   7.335  29.391  0.0735 -0.2025  0.1708
70633W        W13545  16.962   4.965  28.442 -0.1269  0.2894 -0.1357
70634W        W13546  14.771   5.132  29.446  0.1706 -0.0105 -0.0163
70635W        W13547  13.286   6.801  28.099 -0.0553 -0.1737 -0.1293
70636W        W13548  18.256   7.096  28.934 -0.1602 -0.1038 -0.0055
70637W        W13549  16.020   6.250  29.263 -0.1215  0.1411  0.2396
70638W        W13550  18.275   7.426  30.894  0.0716  0.2742  0.1035
70639W        W13551  17.119   4.314  28.551 -0.0007 -0.0415  0.3168
70640W        W13552  17.350   5.443  28.905 -0.0018 -0.1382  0.0862
70641W        W13553  16.986   4.130  28.073 -0.2151 -0.0792 -0.0109
70642W        W13554  17.706   6.147  28.463  0.1241 -0.3014  0.1355
70643W        W13555  16.112   5.351  29.618  0.0236 -0.3082  0.1001
70644W        W13556  16.129   4.039  28.200 -0.2675 -0.3142 -0.1092
70645W        W13557  16.130   4.426  31.067 -0.0439 -0.0675  0.0135
70646W        W13558  18.146   2.525  31.329  0.3418 -0.2584  0.0322
70647W        W13559  14.387   6.706  29.558 -0.0222 -0.3558  0.2961
70648W        W13560  18.630   7.449  28.167 -0.0170  0.1505 -0.0128
70649W        W13561  13.557   4.718  29.373 -0.0127  0.3349 -0.0618
70650W        W13562  17.105   6.713  30.400  0.2833 -0.3496  0.1583
70651W        W13563  18.716   3.048  28.774 -0.2779 -0.0378  0.1132
70652W        W13564  18.279   5.975  28.544  0.2157  0.2566 -0.0006
70653W        W13565  15.802   4.420  28.212 -0.3591  0.0654 -0.5200
70654W        W13566  16.255   6.491  28.462 -0.0480  0.3462  0.0203
70655W        W13567  16.127   5.717  30.081  0.0407 -0.2371  0.1217
70656W        W13568  17.160   7.355  30.100  0.0171 -0.3248 -0.0631
70657W        W13569  14.340   5.090  29.870 -0.2543  0.2769  0.0884
70658W        W13570  18.389   4.358  27.540 -0.2369  0.1232  0.1010
70659W        W13571  15.494   5.016  30.237  0.0191  0.1215 -0.2598
70660W        W13572  18.533   4.127  29.764  0.0177  0.1445 -0.4919
70661W        W13573  16.500   4.760  29.889 -0.0664 -0.3244 -0.2624
70662W        W13574  17.779   5.293  29.207 -0.0820 -0.2136 -0.2302
70663W        W13575  15.692   5.620  31.713  0.0724 -0.1167  0.2455
70664W        W13576  15.928   4.392  29.679  0.2431 -0.0386 -0.0492
70665W        W13577  16.949   6.285  27.410 -0.0388  0.2552  0.2871
70666W        W13578  19.210   6.130  29.964  0.2955 -0.3884  0.3323
70667W        W13579  16.857   5.398  27.152 -0.2733  0.0970 -0.0159
70668W        W13580  17.662   6.768  30.626  0.4107 -0.0993  0.2794
70669W        W13581  14.425   3.910  28.550 -0.2573 -0.2554  0.1256
70670W        W13582  16.409   3.970  27.320  0.0388  0.3206  0.2643
70671W        W13583  15.969   5.592  29.074  0.0451 -0.0277 -0.3454
70672W        W13584  17.116   5.161  29.200  0.2040 -0.4992 -0.1015
70673W        W13585  17.574   5.591  31.736 -0.0407 -0.0198  0.1049
70674W        W13586  14.549   5.419  29.060  0.2056 -0.1310 -0.0423
70675W        W13587  17.985   6.058  27.374 -0.2791  0.2748  0.0789
70676W        W13588  18.574   5.636  29.745  0.2641 -0.1808  0.0186
70677W        W13589  15.732   8.216  27.380 -0.2463  0.0565  0.0684
70678W        W13590  19.024   5.252  28.456 -0.1779  0.5994  0.2561
70679W        W13591  17.264   6.402  28.385  0.1815 -0.1193  0.1702
70680W        W13592  14.491   4.099  30.620  0.2103  0.0373 -0.0883
70681W        W13593  17.467   6.551  29.906 -0.0135 -0.2841 -0.0485
70682W        W13594  18.742   6.865  29.759  0.4432  0.1470 -0.1086
70683W        W13595  17.410   3.558  28.779  0.0006  0.1615 -0.1770
70684W        W13596  16.261   4.365  30.056  0.0269  0.2920 -0.0724
70685W        W13597  14.360   6.912  30.006  0.0676  0.0821  0.0185
70686W        W13598  17.866   4.641  28.546 -0.0082  0.0943 -0.0156
70687W        W13599  16.669   3.772  29.885 -0.1258  0.0536  0.0519
70688W        W13600  16.226   8.076  28.477  0.0765  0.1816  0.1504
70689W        W13601  17.169   4.614  29.650  0.2259  0.0952 -0.0647
70690W        W13602  16.999   6.793  29.303 -0.1648 -0.0653 -0.4138
70691W        W13603  15.935   6.971  31.342  0.1427  0.2194 -0.1199
70692W        W13604  13.975   4.419  27.784 -0.0884  0.0166 -0.1010
70693W        W13605  14.887   4.101  30.350 -0.0410 -0.4582 -0.4677
70694W        W13606  15.309   7.321  29.758  0.0396  0.0356  0.3653
70695W        W13607  16.302   7.026  28.521 -0.0049 -0.1352 -0.1490
70696W        W13608  18.580   6.662  28.899  0.0507  0.2355 -0.3161
70697W        W13609  16.347   4.555  28.039 -0.2791  0.0186  0.0132
70698W        W13610  19.742   4.856  27.306  0.2388  0.0840  0.0187
70699W        W13611  15.864   5.747  28.577  0.0350 -0.1776  0.0037
70700W        W13612  19.057   3.228  28.367  0.1829  0.0312 -0.2374
70701W        W13613  16.189   2.970  28.907  0.4328  0.1979 -0.0539
70702W        W13614  16.133   6.031  31.393 -0.0278 -0.1862 -0.0621
70703W        W13615  13.016   5.131  27.659 -0.0863 -0.0584  0.0691
70704W        W13616  15.413   6.522  28.201 -0.1730  0.3668 -0.1587
70705W        W13617  16.403   6.051  29.842 -0.0724 -0.0708 -0.3568
70706W        W13618  16.667   3.017  30.556 -0.3742  0.1937  0.0793
70707W        W13619  14.503   5.907  30.425 -0.0102  0.2096  0.0330
70708W        W13620  14.378   4.264  30.101  0.1631  0.0699 -0.5068
70709W        W13621  14.853   4.178  28.501  0.3223 -0.0325 -0.0841
70710W        W13622  17.791   5.684  28.740 -0.0470  0.1166 -0.3470
70711W        W13623  16.277   4.297  30.548  0.1220  0.0574  0.2744
70712W        W13624  15.318   4.235  29.876  0.2395 -0.0508  0.0286
70713W        W13625  16.965   6.013  27.005 -0.1682  0.0234 -0.2990
70714W        W13626  19.495   6.502  28.074 -0.1588 -0.0378 -0.1843
70715W        W13627  16.149   4.846  28.644  0.3534 -0.1575  0.0845
70716W        W13628  19.275   7.382  30.509 -0.4567  0.1321 -0.0253
70717W        W13629  14.490   4.786  28.051  0.0727  0.4394 -0.0614
70718W        W13630  16.533   5.719  31.595 -0.3690  0.2882  0.0158
70719W        W13631  16.333   3.812  30.375  0.1265  0.1047 -0.2442
70720W        W13632  14.503   3.875  27.367 -0.2234  0.3326  0.3781
70721W        W13633  16.951   5.068  30.769 -0.0709  0.0038 -0.0106
70722W        W13634  16.160   5.499  28.208 -0.0304 -0.4603 -0.0155
70723W        W13635  17.577   7.914  28.134  0.1644  0.0176  0.2836
70724W        W13636  18.326   6.613  29.744  0.0441 -0.0645  0.4730
70725W        W13637  17.489   6.366  30.391  0.1721 -0.1279 -0.3086
70726W        W13638  14.259   2.000  29.631  0.1505 -0.3064  0.2553
70727W        W13639  18.466   5.225  28.092 -0.2167 -0.1037  0.0790
70728W        W13640  15.606   5.716  30.611 -0.2576 -0.0350 -0.0471
70729W        W13641  17.359   7.020  28.286 -0.2413  0.0147 -0.0185
70730W        W13642  18.196   3.249  29.517 -0.3243  0.3152  0.0381
70731W        W13643  18.157   4.014  28.566 -0.2367 -0.1367  0.3054
70732W        W13644  14.985   4.079   0.280  0.1000 -0.1251  0.1408
70733W        W13645  14.726   6.313  30.428  0.3320 -0.0743  0.0927
70734W        W13646  18.412   6.984  29.388 -0.0264  0.1857  0.0424
70735W        W13647  14.919   4.400  28.094 -0.5091 -0.3378 -0.0499
70736W        W13648  16.760   3.500  28.812  0.0186  0.4481 -0.1475
70737W        W13649  16.890   5.575  27.627  0.1912 -0.1455 -0.4379
70738W        W13650  15.622   5.247  29.361 -0.0120  0.1636  0.0719
70739W        W13651  16.059   4.961  28.104  0.0610 -0.0441 -0.1892
70740W        W13652  15.988   4.521  31.575  0.1692  0.1586 -0.0265
70741W        W13653  17.352   6.098  29.511 -0.0347  0.0396  0.2041
70742W        W13654  18.457   7.779  29.877 -0.1599 -0.0703  0.1255
70743W        W13655  15.701   5.297  28.036  0.2044  0.0445  0.2904
70744W        W13656  18.293   4.406  27.042  0.0579  0.0837 -0.1855
70745W        W13657  18.518   9.297  29.833  0.3405 -0.3190 -0.0121
70746W        W13658  17.751   7.572  31.340  0.0917 -0.1198 -0.2023
70747W        W13659  17.517   5.992  29.969 -0.1329 -0.0731  0.2245
70748W        W13660  17.415   5.065  29.551  0.0269 -0.2588  0.0290
70749W        W13661  15.125   5.295  29.722 -0.0755 -0.1342 -0.2061
70750W        W13662  13.108   4.568  28.173 -0.1010 -0.0492  0.2514
70751W        W13663  18.045   7.022  28.300 -0.1843  0.1896 -0.2057
70752W        W13664  16.431   4.732  29.358  0.0747 -0.1070 -0.0954
70753W        W13665  15.311   4.383  28.425 -0.1000  0.0190 -0.2567
70754W        W13666  16.612   4.196  28.342  0.0249  0.1062 -0.0315
70755W        W13667  17.137   8.312  31.100 -0.2467  0.0495 -0.1160
70756W        W13668  16.150   5.659  30.634  0.1187  0.0282  0.1558
70757W        W13669  17.406   4.255  29.043 -0.0433 -0.3359 -0.2894
70758W        W13670  18.429   6.196  30.107  0.1636  0.1735 -0.0098
70759W        W13671  15.572   2.655  30.502  0.3195  0.1412 -0.1021
70760W        W13672  14.738   7.681  30.999  0.0764  0.0561 -0.2437
70761W        W13673  16.730   6.922  30.644 -0.1319  0.0599  0.0581
70762W        W13674  14.149   6.196  31.317 -0.2004 -0.2078 -0.0316
70763W        W13675  17.291   4.196   0.044  0.1585 -0.0609 -0.2062
70764W        W13676  16.679   3.704  30.715 -0.1874  0.0049 -0.4675
70765W        W13677  18.876   5.168  30.996  0.2149  0.0023 -0.1063
70766W        W13678  18.411   6.462  31.791 -0.3959  0.0716 -0.1260
70767W        W13679  18.154   7.315  31.346  0.1159 -0.1299 -0.0687
70768W        W13680  15.523   3.747  30.897 -0.0980  0.3405 -0.1229
70769W        W13681  18.688   6.603  30.235 -0.1733  0.3209  0.1359
70770W        W13682  16.065   4.238   0.093  0.0161 -0.1224  0.5700
70771W        W13683  17.330   4.352   1.040 -0.1601 -0.2038 -0.3027
70772W        W13684  13.440   7.888  30.894 -0.0965  0.1541  0.1878
70773W        W13685  15.892   6.342   0.327 -0.2167 -0.0910  0.0137
70774W        W13686  17.366   7.500  31.720  0.2006 -0.0682 -0.2455
70775W        W13687  14.900   3.592   1.742  0.1474  0.0753  0.0747
70776W        W13688  16.444   3.972   0.264  0.2796 -0.0623  0.1343
70777W        W13689  16.012   3.717  31.313  0.1125 -0.0547  0.1956
70778W        W13690  16.191   7.291  30.929 -0.0387 -0.0831 -0.0301
70779W        W13691  19.662   4.551  30.462 -0.0726 -0.1278  0.0243
70780W        W13692  16.282   5.492   1.571  0.1437  0.0183 -0.1168
70781W        W13693  17.854   3.897  31.906 -0.2392  0.0396 -0.0277
70782W        W13694  17.006   4.958  31.365  0.0752 -0.2893  0.1226
70783W        W13695  15.133   5.541  31.578  0.1072 -0.0728  0.0267
70784W        W13696  13.518   7.151  31.012 -0.0963  0.3360  0.0215
70785W        W13697  15.857   4.765   0.236  0.0502  0.1072 -0.0447
70786W        W13698  16.381   5.696  31.076 -0.0357 -0.0091  0.0822
70787W        W13699  15.106   6.033  31.684  0.3079 -0.0541 -0.0207
70788W        W13700  15.519   5.006   0.571  0.0459  0.0151  0.4069
70789W        W13701  20.090   5.540   0.270  0.1616  0.0470 -0.2222
70790W        W13702  17.936   4.168  30.621  0.0171  0.0456  0.1169
70791W        W13703  15.751   4.095  31.140 -0.1004 -0.3581  0.1441
70792W        W13704  14.913   5.906  31.234  0.0806 -0.1011  0.0975
70793W        W13705  17.049   5.918  31.873 -0.0606 -0.0446  0.3227
70794W        W13706  17.003   5.396  31.658 -0.0292  0.0531 -0.1353
70795W        W13707  17.302   5.050  30.427  0.3510 -0.2311 -0.3129
70796W        W13708  17.649   6.200  31.518  0.0342 -0.1382  0.0618
70797W        W13709  18.259   5.739  30.272 -0.0609  0.1620  0.1833
70798W        W13710  16.535   5.178  31.591 -0.0244 -0.2844  0.0067
70799W        W13711  18.315   4.505  30.552  0.0120  0.1662  0.0122
70800W        W13712  16.633   6.502  30.234 -0.1686 -0.0607 -0.3834
70801W        W13713  16.630   4.143  30.941 -0.1345  0.0801  0.1737
70802W        W13714  17.974   4.753  31.297 -0.2362 -0.4052 -0.2925
70803W        W13715  17.348   3.872  31.683  0.1855  0.0688  0.1132
70804W        W13716  17.249   6.294  31.004 -0.4412 -0.0123 -0.0755
70805W        W13717  18.970   5.046  30.372 -0.1706  0.0535  0.2602
70806W        W13718  15.737   6.913   0.098  0.0881  0.1907 -0.1927
70807W        W13719  17.603   5.968  30.864 -0.0214 -0.2490 -0.1036
70808W        W13720  18.283   5.378  29.389 -0.0746  0.0467 -0.1276
70809W        W13721  15.833   3.137  29.916 -0.1506 -0.1140 -0.1020
70810W        W13722  17.191   5.981  30.449  0.2291 -0.0636 -0.2350
70811W        W13723  18.232   7.249   1.996  0.2541 -0.2123  0.1704
70812W        W13724  16.850   5.388  30.394 -0.1747 -0.0957  0.0073
70813W        W13725  18.948   6.832  31.627  0.3407  0.3964  0.1167
70814W        W13726  16.166   6.481  30.040  0.0285  0.1309 -0.1034
70815W        W13727  16.640   8.099  29.579  0.2152  0.1001  0.2062
70816W        W13728  15.369   4.366   1.368 -0.0151 -0.2406  0.1524
70817W        W13729  15.764   5.700   0.197 -0.1195  0.1462  0.2154
70818W        W13730  15.735   6.729   0.588  0.1976 -0.2217  0.0732
70819W        W13731  14.901   6.996   0.717 -0.1379 -0.0097  0.1160
70820W        W13732  14.772   4.750  31.190  0.2754 -0.0187  0.2314
70821W        W13733  17.554   6.928  31.056  0.1240 -0.1375 -0.1448
70822W        W13734  18.932   6.673  30.934 -0.0126 -0.1978 -0.0892
70823W        W13735  19.557   7.030  31.684 -0.1425  0.0890  0.1812
70824W        W13736  15.824   9.337  18.523  0.1189  0.1301 -0.4842
70825W        W13737  15.377   9.451  16.896 -0.4814 -0.3471 -0.1488
70826W        W13738  18.190   8.152  15.613  0.1678  0.0329  0.2152
70827W        W13739  17.314   9.282  16.214  0.3091 -0.1473  0.1259
70828W        W13740  13.530   9.226  17.217 -0.0371  0.1185  0.0055
70829W        W13741  17.531   9.765  16.315  0.0688 -0.1504 -0.0870
70830W        W13742  15.103   5.658  19.329 -0.5678 -0.2270  0.0235
70831W        W13743  16.868   9.460  18.728  0.1518 -0.0985 -0.0808
70832W        W13744  18.981  10.043  18.044  0.1210 -0.2327  0.0737
70833W        W13745  16.211   8.048  15.849  0.0047  0.0139  0.1754
70834W        W13746  14.942   7.919  18.659 -0.1487  0.2853  0.1052
70835W        W13747  14.562  11.026  18.071 -0.1820 -0.3600 -0.1035
70836W        W13748  14.913   8.591  16.653 -0.0130  0.1311  0.0325
70837W        W13749  15.016   6.169  19.615 -0.2915  0.3701 -0.2387
70838W        W13750  17.375   9.705  17.997 -0.0989  0.0883  0.2144
70839W        W13751  14.271   9.776  16.627 -0.0004 -0.2760 -0.0425
70840W        W13752  15.884   7.979  18.454 -0.1920 -0.0825  0.2544
70841W        W13753  16.419   9.988  16.552 -0.1143 -0.1114  0.0988
70842W        W13754  17.033  11.136  15.587  0.0262  0.0186 -0.1750
70843W        W13755  15.640   7.117  20.334  0.1239 -0.1481 -0.0202
70844W        W13756  15.462   7.091  18.591  0.2157  0.3724 -0.1767
70845W        W13757  17.100   8.425  18.630  0.5037  0.0708 -0.3580
70846W        W13758  11.945  10.349  16.948 -0.1271  0.0913 -0.3478
70847W        W13759  14.248   9.791  17.930 -0.2037 -0.1471 -0.0169
70848W        W13760  16.073   8.515  18.729  0.2096 -0.1388 -0.0160
70849W        W13761  17.644   7.482  17.517  0.2716 -0.2425  0.3648
70850W        W13762  18.101   7.522  17.284  0.1570 -0.1937  0.0494
70851W        W13763  15.684  10.272  18.361 -0.0042  0.1433 -0.0035
70852W        W13764  15.916  10.171  16.639 -0.1279 -0.0420  0.5624
70853W        W13765  16.957   7.813  19.237 -0.3506  0.2470  0.0329
70854W        W13766  14.274  10.804  17.387  0.3018  0.2490 -0.1118
70855W        W13767  13.478  10.199  17.890  0.0235  0.3357  0.1809
70856W        W13768  16.265  10.784  15.943  0.1807 -0.1862  0.0785
70857W        W13769  17.373  11.004  18.604  0.2359  0.0784 -0.3353
70858W        W13770  18.091   9.557  19.407 -0.0623  0.0472  0.1507
70859W        W13771  16.615  10.007  18.721 -0.0597  0.0143  0.3587
70860W        W13772  15.754  10.099  15.241  0.0809  0.0593  0.1775
70861W        W13773  17.256  10.302  20.694 -0.1078 -0.2618  0.1213
70862W        W13774  15.768  10.386  17.575  0.0010  0.1421  0.2347
70863W        W13775  17.144   7.911  17.287 -0.0514  0.2018  0.2913
70864W        W13776  15.852   8.092  17.879  0.0729  0.1475 -0.4588
70865W        W13777  16.139  11.054  15.212 -0.0128 -0.1091  0.1579
70866W        W13778  15.458  10.459  17.127  0.0232  0.1785  0.1811
70867W        W13779  16.676   8.944  18.850 -0.0117 -0.1540  0.2047
70868W        W13780  12.562  10.917  17.109  0.0941 -0.1926  0.3115
70869W        W13781  18.248   7.024  20.951 -0.2691 -0.1628 -0.4618
70870W        W13782  15.220  10.897  15.335 -0.1930  0.0789  0.1545
70871W        W13783  18.247   8.631  15.794  0.0890  0.1114 -0.0016
70872W        W13784  15.193   8.228  16.436 -0.0045  0.0539  0.1204
70873W        W13785  17.615   8.889  16.325 -0.1485 -0.0989 -0.0831
70874W        W13786  15.409   6.209  18.392  0.6557  0.3383  0.1870
70875W        W13787  15.158  10.970  18.015  0.4163  0.1179 -0.0203
70876W        W13788  15.399   8.343  18.711  0.3807 -0.0614  0.2131
70877W        W13789  17.038  10.309  18.598 -0.0689 -0.0866  0.2579
70878W        W13790  16.346   8.145  16.813 -0.3082 -0.2663 -0.1121
70879W        W13791  17.448   8.763  16.853 -0.3746  0.1985  0.2454
70880W        W13792  14.224  11.035  16.800 -0.2002  0.0026 -0.0316
70881W        W13793  15.547  10.605  18.023  0.2267 -0.0753  0.0113
70882W        W13794  17.736  10.557  15.691 -0.0005  0.1222  0.1626
70883W        W13795  17.452  10.447  17.513  0.0076  0.2938 -0.0666
70884W        W13796  15.846   9.393  16.054 -0.0031 -0.0754 -0.1513
70885W        W13797  14.538   9.551  17.123  0.0193 -0.4221 -0.1510
70886W        W13798  15.888   9.905  18.683  0.0291 -0.0054 -0.0291
70887W        W13799  14.585   8.951  19.577 -0.2440 -0.1616 -0.2367
70888W        W13800  15.414   7.357  16.021 -0.1939  0.1251  0.0155
70889W        W13801  17.879   9.111  19.403  0.0341  0.2950  0.3476
70890W        W13802  15.594   9.750  18.284 -0.0887  0.0751 -0.1811
70891W        W13803  17.794   8.388  16.054  0.0034 -0.1813  0.0082
70892W        W13804  15.340  10.756  17.547 -0.1054 -0.2293 -0.1692
70893W        W13805  16.244   9.507  16.831  0.1502  0.1143 -0.0632
70894W        W13806  16.954   9.453  15.864  0.1596 -0.0278  0.1848
70895W        W13807  17.753   8.443  16.620  0.3105  0.1040 -0.0908
70896W        W13808  18.143   7.121  16.950 -0.0502  0.0073  0.0250
70897W        W13809  15.629   9.836  15.815  0.2964  0.0286 -0.0773
70898W        W13810  15.124   9.283  15.973  0.0914  0.0081  0.2846
70899W        W13811  17.516   9.715  18.953  0.1640 -0.1583 -0.3171
70900W        W13812  18.192  10.592  15.245  0.1603 -0.1470  0.0555
70901W        W13813  14.322  10.585  17.942  0.4401  0.0496  0.2052
70902W        W13814  15.882   7.756  20.299 -0.1385 -0.0330  0.0044
70903W        W13815  16.891   7.943  17.765  0.0186 -0.0620  0.1403
70904W        W13816  14.787  11.150  15.478  0.0439  0.1198  0.2221
70905W        W13817  14.905   9.705  16.806  0.2707 -0.2913 -0.1539
70906W        W13818  13.841   9.869  15.840  0.0889 -0.1379  0.0865
70907W        W13819  14.925   7.703  19.172  0.0693 -0.0128  0.0089
70908W        W13820  16.314  10.000  17.099  0.2943 -0.3006 -0.0507
70909W        W13821  18.515   9.077  15.933  0.1104  0.3198 -0.0344
70910W        W13822  13.337   8.708  19.674  0.1454 -0.1444 -0.0638
70911W        W13823  17.710   7.122  16.706 -0.0305  0.2325  0.0727
70912W        W13824  15.293  11.057  16.993 -0.1557  0.0178  0.1598
70913W        W13825  17.436  10.927  15.821  0.1117 -0.2300 -0.1344
70914W        W13826  17.294   8.552  15.813  0.3797  0.0351  0.2090
70915W        W13827  15.705  10.421  14.574  0.1713  0.0285 -0.0665
70916W        W13828  14.965   9.965  17.303 -0.2267 -0.0474 -0.1619
70917W        W13829  15.009   7.558  17.288 -0.1417 -0.0204  0.1294
70918W        W13830  16.707   8.015  20.757  0.4018  0.1433  0.0980
70919W        W13831  14.122   8.352  18.005 -0.1105  0.1047  0.1277
70920W        W13832  18.903   8.441  18.151 -0.0725  0.0110  0.0248
70921W        W13833  14.661   8.289  16.988  0.1380  0.2153 -0.1141
70922W        W13834  17.301   8.180  16.844  0.3050 -0.0905  0.1748
70923W        W13835  16.025   8.644  16.802 -0.2118 -0.4082  0.1329
70924W        W13836  15.413  11.015  16.325  0.2184  0.0979  0.0580
70925W        W13837  17.577   7.489  19.765 -0.0166 -0.2781 -0.0481
70926W        W13838  17.053   9.825  16.328 -0.1061 -0.0001  0.1113
70927W        W13839  18.245  10.754  19.020  0.0918  0.0797  0.1278
70928W        W13840  16.684   9.712  16.925  0.0320 -0.1305  0.1280
70929W        W13841  13.124   7.672  18.722  0.0614 -0.1124 -0.3705
70930W        W13842  16.131   8.541  15.502  0.1335  0.1702 -0.0297
70931W        W13843  14.548  10.134  17.005  0.0447 -0.0862 -0.0167
70932W        W13844  16.319  10.483  16.709 -0.0297  0.1330  0.0283
70933W        W13845  15.259   8.995  16.850  0.0160 -0.1879  0.1820
70934W        W13846  16.570   9.745  18.227 -0.5484 -0.3287  0.3910
70935W        W13847  15.851   9.605  16.533  0.0642  0.3050 -0.2476
70936W        W13848  16.117  10.429  17.967 -0.1099 -0.1068  0.3551
70937W        W13849  15.085   7.435  18.802  0.0355  0.3932 -0.0914
70938W        W13850  17.784   9.630  18.347 -0.1877 -0.1864 -0.1250
70939W        W13851  17.402   9.255  17.176 -0.2114 -0.0283  0.2034
70940W        W13852  15.883   7.551  16.062  0.0606  0.1299 -0.1389
70941W        W13853  17.204   9.852  18.481 -0.2086  0.1777 -0.1262
70942W        W13854  15.130  11.682  15.916  0.0916 -0.0707  0.0715
70943W        W13855  14.028   9.890  18.403  0.2576 -0.2547 -0.1438
70944W        W13856  17.935  10.858  18.295 -0.0907 -0.3817  0.0275
70945W        W13857  17.229   7.181  16.742  0.3402  0.0610 -0.1412
70946W        W13858  15.423   8.160  19.932 -0.1258 -0.1049 -0.0897
70947W        W13859  17.652   7.163  19.405  0.0505  0.0405  0.2657
70948W        W13860  13.335   9.942  16.265 -0.1007 -0.1844 -0.0011
70949W        W13861  14.885   9.798  19.541 -0.1353  0.3683  0.0548
70950W        W13862  17.448   7.438  16.366  0.3586  0.0950 -0.0011
70951W        W13863  18.434   7.683  16.050  0.0188 -0.1929  0.0795
70952W        W13864  17.096   9.205  19.722 -0.1262  0.0201 -0.1220
70953W        W13865  18.142   9.355  17.400  0.1693  0.2745 -0.2195
70954W        W13866  18.452   7.358  15.120  0.2106  0.0074 -0.0340
70955W        W13867  17.131   8.044  15.420  0.0021 -0.1229 -0.2744
70956W        W13868  14.972   9.540  18.292 -0.2381  0.0018  0.1030
70957W        W13869  17.613  10.832  17.214 -0.2423 -0.0248 -0.0361
70958W        W13870  16.475   9.681  17.470  0.0393  0.0572 -0.1476
70959W        W13871  15.615   8.050  16.147  0.0235 -0.2164  0.0295
70960W        W13872  17.306  10.544  18.964 -0.0340  0.1680  0.0436
70961W        W13873  15.021   9.881  17.878  0.0955  0.2900  0.1668
70962W        W13874  17.136  10.604  19.942 -0.0596  0.0060  0.0809
70963W        W13875  16.947   8.950  17.487 -0.0471 -0.1487  0.3107
70964W        W13876  16.070   7.065  18.464  0.0624 -0.5416  0.0319
70965W        W13877  16.129   8.827  17.269 -0.0697 -0.0760 -0.3459
70966W        W13878  17.434   7.920  17.676 -0.1311 -0.2667 -0.1750
70967W        W13879  14.435  11.553  15.470 -0.2105  0.0470 -0.1103
70968W        W13880  17.181   7.340  19.489 -0.2030 -0.2601 -0.0775
70969W        W13881  16.801   7.965  16.825 -0.2211  0.0945  0.1743
70970W        W13882  15.746   7.489  18.387 -0.0005 -0.2726 -0.0220
70971W        W13883  17.550   8.113  18.522  0.1172 -0.1342  0.6573
70972W        W13884  17.187   9.588  16.883 -0.1456  0.2978 -0.0379
70973W        W13885  16.939   9.489  17.321 -0.1308 -0.2020 -0.0761
70974W        W13886  15.729   8.383  15.782 -0.2094 -0.2110 -0.2180
70975W        W13887  18.694   7.620  17.588 -0.2153 -0.1746 -0.5683
70976W        W13888  13.673   9.441  18.404 -0.0175  0.1984 -0.3677
70977W        W13889  14.798  11.450  17.949 -0.0402 -0.1168  0.1582
70978W        W13890  15.381   8.733  18.419 -0.1292  0.0644  0.1548
70979W        W13891  17.588   9.278  16.636  0.2216 -0.1238  0.2892
70980W        W13892  15.375   7.496  19.553  0.0017 -0.2222  0.2481
70981W        W13893  16.844   8.516  16.658 -0.1811  0.0458  0.5651
70982W        W13894  15.608  10.699  15.999  0.1087 -0.5580 -0.2597
70983W        W13895  15.184  10.165  16.326  0.2492 -0.1103 -0.0791
70984W        W13896  14.731   7.590  18.348 -0.0942  0.0396 -0.0246
70985W        W13897  16.773   9.314  17.782  0.1593 -0.3144 -0.1128
70986W        W13898  15.015   9.797  15.029  0.0676  0.2603  0.0200
70987W        W13899  18.161   9.693  17.835 -0.1798  0.0988 -0.0254
70988W        W13900  14.625  11.092  17.221 -0.1499  0.2044  0.0923
70989W        W13901  18.046   7.468  16.466  0.3386 -0.0584 -0.1431
70990W        W13902  13.140  10.684  16.766 -0.0548  0.0013 -0.2369
70991W        W13903  15.603   8.911  16.023 -0.0326  0.1446 -0.0605
70992W        W13904  15.194   9.127  18.171  0.0861 -0.1443  0.4094
70993W        W13905  16.750   7.170  16.799  0.3936  0.0105  0.0310
70994W        W13906  17.428  10.222  16.051 -0.2441 -0.0095  0.1452
70995W        W13907  14.141   7.925  18.568  0.2032  0.1783  0.1186
70996W        W13908  15.838   7.570  17.847  0.0222 -0.1571 -0.2509
70997W        W13909  14.720  10.196  17.706 -0.1461 -0.1379  0.0389
70998W        W13910  17.937   8.759  18.134 -0.2123 -0.1215  0.1900
70999W        W13911  17.519   7.871  16.152  0.1812 -0.1020 -0.0050
71000W        W13912  16.962   9.761  17.680 -0.3286 -0.1408 -0.0764
71001W        W13913  14.942   8.280  19.067  0.2197  0.1091 -0.3398
71002W        W13914  15.008   8.862  17.225  0.2257 -0.0761  0.3302
71003W        W13915  17.999  10.225  18.159  0.2240  0.2993  0.2614
71004W        W13916  15.130   7.846  17.673 -0.0662  0.1977  0.0104
71005W        W13917  14.331  11.595  17.128  0.2815  0.0152  0.2349
71006W        W13918  15.226  10.527  18.503 -0.0982  0.0675 -0.0546
71007W        W13919  15.426  10.573  16.526  0.1470  0.1817 -0.3855
71008W        W13920  16.846  10.714  16.681  0.0309  0.3343  0.3227
71009W        W13921  15.015   8.368  20.224  0.0173 -0.0003 -0.1443
71010W        W13922  17.094   9.009  18.453 -0.1600 -0.2138  0.0091
71011W        W13923  15.762   7.004  17.542  0.4472  0.0268  0.0814
71012W        W13924  15.592   8.681  17.337 -0.0185 -0.1173  0.0515
71013W        W13925  16.514   8.770  17.638  0.0984 -0.1159 -0.0240
71014W        W13926  17.255  10.751  18.086 -0.1223 -0.2163 -0.1489
71015W        W13927  16.563   9.238  18.388  0.0850 -0.0046 -0.1529
71016W        W13928  14.792   9.714  18.819 -0.0639 -0.3237 -0.2123
71017W        W13929  15.073   7.086  17.837  0.0082  0.0594  0.0968
71018W        W13930  19.438  10.564  15.960 -0.0288  0.0775 -0.0653
71019W        W13931  18.519   8.928  18.179 -0.3051 -0.2412  0.1703
71020W        W13932  14.950  10.517  15.526 -0.3360 -0.3334 -0.1499
71021W        W13933  14.582  10.632  16.361 -0.2647 -0.2395  0.1660
71022W        W13934  15.892  10.334  15.758 -0.2659 -0.1744 -0.1759
71023W        W13935  14.553   7.068  18.064  0.0329  0.1398  0.0460
71024W        W13936  15.358   9.261  18.694  0.1140  0.0997 -0.0365
71025W        W13937  15.130  10.657  16.029  0.3571 -0.0433  0.4534
71026W        W13938  14.813  10.513  17.351  0.3303  0.0028  0.3049
71027W        W13939  17.553   6.631  17.642 -0.1369 -0.0411 -0.0835
71028W        W13940  16.347   9.463  16.371  0.0036  0.1644 -0.1157
71029W        W13941  15.789   9.122  16.877  0.1381  0.0088  0.3985
71030W        W13942  17.920   8.061  19.109  0.0582  0.1286  0.1537
71031W        W13943  16.841   8.530  16.156 -0.1019 -0.2206  0.0709
71032W        W13944  16.494   7.116  18.879  0.3167  0.0956 -0.0254
71033W        W13945  14.018   7.084  17.973 -0.0111  0.1329  0.2469
71034W        W13946  18.089  10.063  16.816  0.0974  0.0070  0.1019
71035W        W13947  14.844   9.138  18.647 -0.2686  0.4268 -0.1468
71036W        W13948  16.391  10.418  19.725  0.2081  0.0499 -0.2815
71037W        W13949  15.376   7.982  19.084 -0.0856  0.2695  0.1932
71038W        W13950  16.128   7.959  16.319  0.0659  0.0632 -0.0958
71039W        W13951  15.535   7.652  16.491 -0.0161 -0.3354 -0.1919
71040W        W13952  15.828   8.507  18.289  0.2666  0.2086 -0.1700
71041W        W13953  18.982   8.992  17.935  0.1682  0.2819 -0.0408
71042W        W13954  15.980  10.367  17.126 -0.0991  0.1524  0.2141
71043W        W13955  18.495   9.065  16.594  0.0364 -0.1014  0.2839
71044W        W13956  16.325   7.980  18.652 -0.0296  0.2040  0.0641
71045W        W13957  16.850   9.370  16.575 -0.0463  0.2280  0.1181
71046W        W13958  15.352   9.693  16.489 -0.1651 -0.1470  0.0379
71047W        W13959  16.072   8.550  17.817 -0.1664 -0.2645 -0.0301
71048W        W13960  15.732   6.673  18.465  0.0139 -0.0652 -0.2933
71049W        W13961  17.890   8.803  17.122 -0.0960 -0.0510  0.2358
71050W        W13962  16.211   7.892  17.297  0.0392 -0.0128 -0.0194
71051W        W13963  17.878   6.998  17.635  0.2479 -0.1365  0.2750
71052W        W13964  17.505   9.199  18.119 -0.0765 -0.0665  0.1934
71053W        W13965  14.950   6.835  18.963 -0.2756  0.0177 -0.2120
71054W        W13966  15.524   7.348  21.181 -0.1998 -0.1970  0.0796
71055W        W13967  17.476  10.209  18.091  0.0427  0.2382  0.4968
71056W        W13968  17.800   7.248  15.517 -0.1844  0.3393 -0.1070
71057W        W13969  18.610   8.705  19.279 -0.1962 -0.0439  0.2854
71058W        W13970  18.186   7.613  15.541 -0.1615 -0.0048 -0.1564
71059W        W13971  15.796   8.968  17.695 -0.0601 -0.1491 -0.1010
71060W        W13972  15.873   8.228  17.074 -0.0228 -0.3599  0.1849
71061W        W13973  19.211   8.849  18.934  0.0276 -0.0134  0.0021
71062W        W13974  14.591   9.472  16.391 -0.3506  0.0323 -0.1988
71063W        W13975  16.241   7.099  17.409  0.2851  0.0836 -0.3252
71064W        W13976  16.949   9.998  15.773  0.2554 -0.2029 -0.1566
71065W        W13977  17.701   7.949  17.178  0.0681  0.2266 -0.0356
71066W        W13978  17.566   8.433  17.254 -0.1847  0.2464  0.1109
71067W        W13979  13.703   8.606  17.965  0.2371 -0.1342  0.0281
71068W        W13980  15.581  10.253  20.135 -0.2009 -0.0172 -0.0275
71069W        W13981  14.507   8.771  16.990 -0.3639 -0.0548  0.2865
71070W        W13982  15.529   9.194  16.488  0.0606 -0.0703 -0.0946
71071W        W13983  16.115   9.675  17.995  0.0956  0.3297 -0.0076
71072W        W13984  20.055   8.988  20.301 -0.3747  0.0912  0.0998
71073W        W13985  16.612   9.020  16.253  0.0163 -0.0723 -0.0477
71074W        W13986  17.657   7.807  18.146  0.1367 -0.0802  0.1723
71075W        W13987  15.008  11.144  14.959  0.4115 -0.0097  0.2021
71076W        W13988  16.771   7.632  17.159 -0.0181  0.3502  0.2014
71077W        W13989  16.186  10.037  18.310  0.2477 -0.1350 -0.2193
71078W        W13990  15.317  10.253  17.658  0.1155 -0.0374  0.2846
71079W        W13991  16.225  10.233  17.537  0.2092  0.0238  0.3421
71080W        W13992  15.601   8.182  17.441  0.4976  0.0675  0.1626
71081W        W13993  16.332   8.114  17.788  0.0935  0.1368 -0.1250
71082W        W13994  16.266   9.267  17.673 -0.0861 -0.0224 -0.1208
71083W        W13995  18.525   8.225  19.163 -0.0995  0.0082  0.2297
71084W        W13996  16.768   8.156  18.865  0.0927  0.3230  0.0467
71085W        W13997  15.698   9.015  18.140 -0.0260  0.1433  0.0639
71086W        W13998  16.485   9.883  19.627  0.0033 -0.2500  0.0108
71087W        W13999  18.777   9.957  16.857 -0.1957  0.0822 -0.2747
71088W        W14000  16.001   9.780  17.513  0.3704 -0.5710  0.0217
71089W        W14001  14.853   9.116  19.129  0.1575 -0.2520  0.2758
71090W        W14002  16.389   8.154  20.016  0.2108  0.1122 -0.3205
71091W        W14003  17.005   9.735  19.594  0.1162  0.1704  0.2554
71092W        W14004  15.049   9.308  16.446 -0.0797  0.1722  0.0311
71093W        W14005  17.795  10.502  16.784 -0.2609  0.3025  0.0456
71094W        W14006  13.946  10.878  19.421 -0.3495  0.1563  0.0430
71095W        W14007  14.010   9.449  17.116 -0.0604 -0.0370  0.1024
71096W        W14008  15.022  11.584  14.708 -0.1692  0.0799  0.2524
71097W        W14009  17.741   8.849  15.842 -0.0136  0.0442 -0.1018
71098W        W14010  17.304   8.406  16.248  0.5233 -0.1327  0.1708
71099W        W14011  17.136   9.457  19.163 -0.2079  0.1554  0.1369
71100W        W14012  16.567   8.610  17.093  0.0567 -0.1544  0.0799
71101W        W14013  14.387  11.782  16.059  0.2526 -0.2780  0.0546
71102W        W14014  13.532   9.932  15.391 -0.1683  0.1601 -0.0100
71103W        W14015  16.380   9.022  16.725  0.1106 -0.0781  0.1160
71104W        W14016  16.541  10.066  17.865 -0.1295  0.4531 -0.0054
71105W        W14017  17.801  10.599  17.874  0.2342 -0.0442 -0.1423
71106W        W14018  17.473   6.821  15.455 -0.2125 -0.1335 -0.0163
71107W        W14019  18.104   8.748  17.584  0.2344 -0.0937  0.1090
71108W        W14020  17.636   8.141  15.664  0.2173  0.0333 -0.0963
71109W        W14021  16.648  10.841  19.335  0.0445  0.0903 -0.0444
71110W        W14022  14.810   7.988  18.031 -0.2481 -0.1377 -0.2574
71111W        W14023  15.280   8.949  17.669 -0.0288  0.0264  0.2507
71112W        W14024  16.268   7.486  18.589  0.2303 -0.0884  0.0454
71113W        W14025  17.664   6.779  21.025 -0.0282 -0.2017 -0.1098
71114W        W14026  15.347   9.868  18.787 -0.1927 -0.0780 -0.1347
71115W        W14027  17.615  11.179  16.492  0.2324 -0.3633  0.0598
71116W        W14028  14.781   9.204  16.945  0.0659 -0.1763  0.1831
71117W        W14029  15.829   9.793  17.034  0.0003  0.0686 -0.0389
71118W        W14030  18.465   8.111  17.621 -0.0187 -0.1112 -0.1560
71119W        W14031  16.088   9.611  15.570  0.0634  0.1258  0.2771
71120W        W14032  18.612   7.883  15.650  0.1531 -0.0064 -0.0019
71121W        W14033  16.819  11.342  15.991  0.3987 -0.1037  0.0478
71122W        W14034  14.465  11.318  17.646  0.0860 -0.1317  0.4650
71123W        W14035  15.067  11.043  18.495  0.2247  0.1136  0.0464
71124W        W14036  15.497   9.266  15.595  0.1910 -0.1038 -0.1642
71125W        W14037  17.112   7.990  16.392 -0.0619  0.0658  0.0106
71126W        W14038  14.781   8.831  18.301  0.0369 -0.2131  0.1876
71127W        W14039  17.920   7.485  19.003  0.1046 -0.1290 -0.3623
71128W        W14040  15.063   9.436  17.283 -0.0877  0.0517  0.0240
71129W        W14041  17.981   9.786  16.091 -0.2490  0.0493  0.0180
71130W        W14042  17.560   8.670  18.486 -0.4115 -0.0364 -0.1121
71131W        W14043  14.538   9.267  17.913 -0.1142  0.0892 -0.2461
71132W        W14044  16.806   8.497  15.592 -0.1617  0.2339  0.0655
71133W        W14045  18.307   8.626  20.074 -0.1760  0.3443  0.2343
71134W        W14046  16.851   7.637  15.531  0.1369  0.0856  0.0187
71135W        W14047  17.187  11.906  18.428 -0.0800 -0.3189 -0.1480
71136W        W14048  14.634   9.702  17.574  0.6532 -0.1911  0.1542
71137W        W14049  18.341   9.390  16.306 -0.0662  0.0935 -0.3184
71138W        W14050  14.332   9.857  16.128  0.0650 -0.2295 -0.3025
71139W        W14051  16.792   7.459  18.512 -0.1896  0.1147  0.1175
71140W        W14052  17.767  10.018  17.714 -0.1999 -0.1371 -0.0603
71141W        W14053  15.271   8.460  16.984 -0.0595 -0.0336 -0.1780
71142W        W14054  18.372  10.278  15.617  0.2240 -0.0776  0.4422
71143W        W14055  18.639   7.957  17.187  0.2088  0.2654 -0.2323
71144W        W14056  16.605   9.855  16.107 -0.2206  0.0005  0.2527
71145W        W14057  18.219   8.336  16.421 -0.0107  0.1785  0.1543
71146W        W14058  18.742  10.525  17.913 -0.0892 -0.3163 -0.0830
71147W        W14059  14.120   7.728  19.383 -0.2037  0.6040 -0.1722
71148W        W14060  16.251   8.308  18.251  0.3666  0.2622 -0.2178
71149W        W14061  18.121   9.159  17.898  0.1039 -0.0469  0.0321
71150W        W14062  16.646   7.429  18.018 -0.1905 -0.0095 -0.0334
71151W        W14063  15.000   7.151  18.368  0.2162 -0.0401  0.0296
71152W        W14064  15.562  11.541  17.043 -0.0761 -0.2165 -0.2335
71153W        W14065  17.617   8.354  17.904 -0.1554  0.0541 -0.0308
71154W        W14066  17.436   7.540  19.098 -0.0870 -0.0685  0.0475
71155W        W14067  15.558  10.498  15.451 -0.1703  0.0396  0.0957
71156W        W14068  15.517   7.135  18.058 -0.4338 -0.1890 -0.1607
71157W        W14069  16.333  10.942  18.074 -0.0696 -0.0474 -0.0907
71158W        W14070  16.428   8.849  19.525 -0.0017  0.0024 -0.0066
71159W        W14071  15.693  10.269  16.223 -0.1226  0.2736 -0.0319
71160W        W14072  15.610   9.404  17.874  0.2041 -0.0036 -0.2982
71161W        W14073  17.121  11.104  16.308 -0.0996  0.1736  0.0535
71162W        W14074  17.499   9.958  16.797 -0.0133  0.1553 -0.0583
71163W        W14075  16.220   8.845  18.175  0.1640 -0.1511 -0.1714
71164W        W14076  16.390   8.570  16.385  0.3024 -0.1239 -0.0552
71165W        W14077  17.259  10.401  17.074 -0.2578  0.1667  0.0361
71166W        W14078  15.784   8.228  16.588 -0.2484  0.3546 -0.1962
71167W        W14079  18.294   7.255  16.092  0.2490  0.0088 -0.1366
71168W        W14080  16.062   6.908  16.540 -0.0704 -0.6003 -0.0400
71169W        W14081  15.339   8.124  18.248 -0.4859  0.0063 -0.0495
71170W        W14082  14.167   9.006  16.242 -0.0247 -0.2968 -0.2958
71171W        W14083  15.964  10.861  14.701 -0.2408  0.3086 -0.3183
71172W        W14084  14.987   9.357  17.777 -0.1015 -0.2513 -0.0436
71173W        W14085  16.275   6.512  18.230 -0.1737  0.1877 -0.1834
71174W        W14086  14.486   8.436  19.283  0.2962  0.0015 -0.2526
71175W        W14087  13.748  10.488  16.042 -0.2517 -0.4858  0.0457
71176W        W14088  15.350   9.926  16.941  0.1785 -0.4297 -0.0332
71177W        W14089  17.979   9.618  16.530 -0.1665 -0.4126 -0.3302
71178W        W14090  14.800   8.903  17.799 -0.2070 -0.0295 -0.0500
71179W        W14091  15.500   7.978  16.948  0.0953  0.1924 -0.0253
71180W        W14092  17.010   9.015  16.907 -0.2289  0.0665 -0.2400
71181W        W14093  17.330   9.878  17.351  0.1688  0.1277  0.1223
71182W        W14094  16.248   8.384  17.384  0.3205  0.2047 -0.1407
71183W        W14095  18.066   9.208  19.960  0.0117  0.0839 -0.3247
71184W        W14096  15.321  10.260  15.823 -0.3109  0.1113 -0.1430
71185W        W14097  15.944   7.698  18.938 -0.0511  0.0404  0.1475
71186W        W14098  16.392   7.288  19.359 -0.0333 -0.1879  0.2479
71187W        W14099  14.817   8.059  15.526 -0.2332  0.1585 -0.3161
71188W        W14100  16.210   7.270  17.964  0.3631 -0.0542  0.2364
71189W        W14101  16.185  10.379  16.201  0.0069 -0.0703 -0.1374
71190W        W14102  17.766  11.231  16.969 -0.1106  0.0338 -0.0356
71191W        W14103  14.755   8.671  18.847  0.0581 -0.2475 -0.2225
71192W        W14104  16.334   9.519  18.735 -0.1939  0.2799 -0.1786
71193W        W14105  14.283   8.847  18.540 -0.1143 -0.2564  0.3197
71194W        W14106  17.056   9.675  15.380 -0.2555  0.0677 -0.0735
71195W        W14107  17.318  10.213  20.191  0.1697 -0.0085 -0.2225
71196W        W14108  17.733   9.671  17.147 -0.0277  0.1772  0.0506
71197W        W14109  16.780   8.886  18.068 -0.0815 -0.2203  0.0137
71198W        W14110  16.546  10.272  15.801  0.1130  0.1539  0.1025
71199W        W14111  14.820   7.764  19.958 -0.5273  0.0319 -0.0008
71200W        W14112  15.250  10.435  19.725  0.0291  0.1382  0.0186
71201W        W14113  18.071  10.490  17.471  0.0384 -0.1525  0.2104
71202W        W14114  15.408   7.393  17.618  0.0174  0.0162  0.2630
71203W        W14115  16.477   6.778  16.856 -0.0820 -0.0556  0.4663
71204W        W14116  16.682  10.399  16.322 -0.1063 -0.3643  0.2963
71205W        W14117  14.039   8.569  17.495 -0.2161 -0.1339 -0.2365
71206W        W14118  17.098   8.858  16.447 -0.0389 -0.1090 -0.2420
71207W        W14119  16.523   7.636  19.058 -0.0733 -0.0886 -0.1936
71208W        W14120  15.811   9.343  19.091  0.0105  0.2588  0.2432
71209W        W14121  17.219   8.228  18.102 -0.0368  0.1462  0.0013
71210W        W14122  15.515   9.180  17.337 -0.0388 -0.0848 -0.0887
71211W        W14123  18.411   8.964  17.138  0.1407  0.1658  0.1606
71212W        W14124  17.680   9.521  17.655 -0.1057  0.5640 -0.0645
71213W        W14125  18.535  10.629  18.580  0.3175 -0.1296 -0.0910
71214W        W14126  16.418  10.820  18.883  0.2499  0.2945  0.0293
71215W        W14127  18.100   9.872  17.365 -0.3621  0.2698  0.1176
71216W        W14128  14.145   7.961  17.646  0.1928  0.0150  0.1251
71217W        W14129  14.247  10.028  15.602 -0.3665 -0.2566  0.0966
71218W        W14130  15.957   9.366  17.277  0.2562  0.0372 -0.0199
71219W        W14131  16.713   8.396  17.999 -0.0622 -0.0316 -0.0624
71220W        W14132  14.545   8.577  17.450 -0.1320 -0.3462  0.1044
71221W        W14133  15.626   6.537  17.326  0.0208  0.0538  0.1813
71222W        W14134  15.726   9.818  19.219 -0.1534  0.1317  0.0270
71223W        W14135  17.745  10.217  17.186  0.1056 -0.2587 -0.0278
71224W        W14136  15.006   9.850  22.278  0.0546  0.2527 -0.0882
71225W        W14137  16.119   7.314  20.641  0.0674  0.3264 -0.1432
71226W        W14138  18.085   8.672  19.213 -0.1683 -0.2918  0.0361
71227W        W14139  17.249   8.510  20.443 -0.1345 -0.0252 -0.0391
71228W        W14140  14.338   7.460  19.996  0.1615  0.1466 -0.3136
71229W        W14141  17.348   9.004  21.518  0.3192  0.1798  0.0502
71230W        W14142  13.757   5.627  22.607 -0.0042 -0.2394  0.0174
71231W        W14143  17.588   9.216  19.890 -0.1284  0.3900  0.2314
71232W        W14144  17.528   9.855  22.593  0.0328  0.1093  0.1893
71233W        W14145  18.145   8.645  21.621 -0.2096  0.0429 -0.1504
71234W        W14146  15.767   9.138  22.339  0.0489  0.2443 -0.3264
71235W        W14147  14.802   8.401  21.106 -0.0459  0.3208  0.1982
71236W        W14148  16.507   5.734  19.314  0.0755  0.0301  0.4974
71237W        W14149  15.001   6.592  21.477 -0.1493 -0.1001  0.0499
71238W        W14150  17.458   8.318  22.361  0.0584 -0.1484 -0.2301
71239W        W14151  15.902   8.105  19.959 -0.1046  0.3902 -0.1299
71240W        W14152  17.187   8.156  23.526  0.0302 -0.1257  0.1202
71241W        W14153  16.555   7.628  21.014  0.1674 -0.0031 -0.0347
71242W        W14154  16.725  11.489  20.527 -0.0816 -0.0244 -0.1410
71243W        W14155  16.528   8.591  23.578  0.2144 -0.1732 -0.0362
71244W        W14156  16.830   6.844  21.642  0.1663 -0.2356 -0.2470
71245W        W14157  17.872   8.289  20.132 -0.2020  0.1922 -0.1953
71246W        W14158  15.635   8.051  19.510 -0.2942 -0.0812 -0.3917
71247W        W14159  15.112   8.295  21.513 -0.0152 -0.0765 -0.2807
71248W        W14160  15.351   8.439  21.119 -0.0160  0.1223 -0.0549
71249W        W14161  17.542   8.088  23.104  0.2909  0.2960  0.0289
71250W        W14162  17.820   7.194  21.364  0.1931 -0.4201  0.0029
71251W        W14163  16.147   9.222  20.482  0.0818  0.2825 -0.0964
71252W        W14164  16.445  10.058  21.184 -0.1392 -0.3704 -0.1113
71253W        W14165  17.515   8.016  21.462  0.0053  0.0450  0.2087
71254W        W14166  14.453  10.213  20.479 -0.0077 -0.0539 -0.2270
71255W        W14167  14.657  10.298  22.209 -0.0466  0.1596  0.1164
71256W        W14168  16.896  10.772  20.923  0.1048  0.0880 -0.1751
71257W        W14169  16.789  10.177  20.865 -0.0798  0.1379  0.2931
71258W        W14170  17.519   9.869  23.448  0.0345  0.0389 -0.1667
71259W        W14171  15.375  10.274  22.983  0.1258  0.2865 -0.0255
71260W        W14172  15.567   8.811  20.783 -0.1728  0.3487  0.2646
71261W        W14173  16.656  11.029  22.421 -0.2092 -0.1554 -0.2768
71262W        W14174  14.407   9.468  23.340  0.0389  0.0543 -0.3794
71263W        W14175  17.989   8.130  21.694 -0.1460 -0.1473 -0.0459
71264W        W14176  17.978   7.930  20.824  0.0241  0.1821 -0.0462
71265W        W14177  15.679   9.116  19.757  0.0075 -0.1309 -0.0313
71266W        W14178  17.283   7.892  22.280  0.2857 -0.1214 -0.0370
71267W        W14179  14.354  11.266  25.063 -0.2138  0.0488 -0.0295
71268W        W14180  14.751   9.712  21.281 -0.1165 -0.1112  0.1389
71269W        W14181  17.505   8.350  23.971 -0.0203  0.2907  0.2175
71270W        W14182  15.616  10.705  19.455  0.2335  0.1108  0.2469
71271W        W14183  17.680   7.120  20.175  0.2962 -0.1479  0.2200
71272W        W14184  14.186   8.035  19.024  0.2603  0.0851 -0.3138
71273W        W14185  17.028   8.573  19.155 -0.0073 -0.2734  0.1103
71274W        W14186  16.225   6.961  20.969  0.1832  0.1573  0.0242
71275W        W14187  15.704  10.060  20.829 -0.0796 -0.0186  0.0791
71276W        W14188  16.163   8.714  23.083 -0.0850  0.1219  0.2309
71277W        W14189  17.980   9.629  22.760  0.0496  0.0327 -0.1995
71278W        W14190  16.259   7.551  19.951  0.0229  0.1686 -0.0250
71279W        W14191  17.241   8.686  22.053  0.0509  0.1827 -0.1301
71280W        W14192  15.692   9.702  21.579  0.1049 -0.2099  0.0697
71281W        W14193  16.519   7.907  21.993 -0.2062  0.1642 -0.2166
71282W        W14194  16.817  10.488  18.988  0.2103 -0.0362  0.2976
71283W        W14195  17.346  10.863  21.306 -0.1559  0.0886  0.0202
71284W        W14196  16.755  10.177  20.006  0.2418  0.2224  0.0489
71285W        W14197  15.228   7.507  21.514 -0.2131  0.1139 -0.1436
71286W        W14198  15.214   9.689  23.364  0.0312 -0.3435  0.0970
71287W        W14199  13.900   9.926  21.711  0.1422 -0.0764 -0.3349
71288W        W14200  15.360   8.539  19.347 -0.1068 -0.2574  0.0898
71289W        W14201  17.236  10.197  22.367 -0.0271  0.3430  0.2586
71290W        W14202  14.341   9.363  22.283 -0.3523 -0.0707 -0.1158
71291W        W14203  17.828   8.030  22.172  0.0473  0.2131  0.4810
71292W        W14204  16.417   8.810  20.452 -0.1551 -0.2987  0.2122
71293W        W14205  17.491   9.168  21.947 -0.2052 -0.1597  0.2087
71294W        W14206  16.821  10.978  21.395 -0.2092  0.2094  0.0339
71295W        W14207  16.310   5.774  20.706  0.1381 -0.4546  0.0717
71296W        W14208  17.015   7.301  21.651  0.0320 -0.0269  0.1449
71297W        W14209  15.238   9.496  19.143  0.3164 -0.0651  0.1239
71298W        W14210  15.133   7.954  19.541 -0.2916  0.0986 -0.0454
71299W        W14211  17.820   9.506  21.813 -0.1064  0.2648  0.2605
71300W        W14212  19.011   7.237  20.611 -0.0956  0.1999  0.0777
71301W        W14213  15.130   9.602  21.590 -0.0221 -0.2159 -0.3063
71302W        W14214  16.213   8.305  23.310 -0.1140 -0.0508  0.1145
71303W        W14215  14.421   9.848  22.314 -0.1648  0.3509  0.5655
71304W        W14216  16.728  10.470  20.476 -0.1177 -0.2313  0.0178
71305W        W14217  13.212  10.429  21.061  0.3198  0.3582 -0.4420
71306W        W14218  15.257   9.225  20.070 -0.0072  0.1843 -0.3063
71307W        W14219  15.837   8.742  22.687 -0.1093  0.0628  0.1140
71308W        W14220  16.397   8.584  20.952  0.0650 -0.1109  0.2760
71309W        W14221  16.526   6.122  19.874 -0.2372 -0.1791 -0.2083
71310W        W14222  15.939   7.888  23.197 -0.2902 -0.0784 -0.0705
71311W        W14223  18.981   7.252  22.785  0.3265 -0.0629 -0.2808
71312W        W14224  15.861   9.562  20.656 -0.1167  0.1467 -0.0751
71313W        W14225  17.701  10.070  18.576 -0.1742 -0.1455  0.1979
71314W        W14226  18.156   7.358  20.430 -0.1690  0.0804  0.1334
71315W        W14227  17.159   9.379  21.061 -0.0993 -0.1098  0.1771
71316W        W14228  15.505   7.979  22.216  0.4925 -0.0052  0.0389
71317W        W14229  16.246   8.136  20.950 -0.1486 -0.1999 -0.1586
71318W        W14230  17.162   7.957  24.003 -0.1502  0.1023  0.1008
71319W        W14231  15.540   6.639  22.382 -0.0166  0.1377  0.0871
71320W        W14232  16.837   8.103  22.678  0.3219  0.0384  0.4323
71321W        W14233  14.215   7.010  20.443 -0.0748 -0.0801  0.0686
71322W        W14234  17.404   7.436  21.913  0.0383  0.3640 -0.1973
71323W        W14235  14.741   7.420  21.493  0.3696  0.0976 -0.0753
71324W        W14236  14.560   8.220  21.521 -0.1307 -0.1749  0.0632
71325W        W14237  19.230   6.738  22.716  0.0897  0.3065  0.0009
71326W        W14238  15.894  10.832  18.928  0.2647  0.3168 -0.0518
71327W        W14239  18.077  11.167  21.712  0.2284 -0.3747 -0.1598
71328W        W14240  16.745  11.264  20.973  0.1290  0.4825 -0.0196
71329W        W14241  15.404   8.402  22.567  0.4844 -0.0795  0.0331
71330W        W14242  15.544   7.490  20.677 -0.1358  0.2054 -0.2180
71331W        W14243  14.860   9.753  20.445  0.3074 -0.1136  0.0496
71332W        W14244  14.898   7.931  21.239 -0.1272 -0.3674  0.3540
71333W        W14245  16.139   6.949  20.257 -0.1787  0.0986 -0.0246
71334W        W14246  17.779  11.396  21.249 -0.0267  0.2788  0.1269
71335W        W14247  16.026   7.788  19.490  0.0376 -0.0323  0.0682
71336W        W14248  15.644  10.343  22.179  0.1770 -0.2180  0.0037
71337W        W14249  18.050   9.059  21.932 -0.0167 -0.3146  0.4987
71338W        W14250  18.794   8.411  22.606  0.0756 -0.2771 -0.0101
71339W        W14251  17.116   8.033  20.474  0.0963  0.2234  0.0951
71340W        W14252  14.545   7.499  19.576 -0.0081 -0.0948  0.0375
71341W        W14253  18.283   8.076  21.240  0.3908 -0.0753  0.0453
71342W        W14254  14.911  10.664  19.993 -0.1795 -0.1472  0.1894
71343W        W14255  15.748   8.835  21.213  0.2673  0.1605 -0.1237
71344W        W14256  16.704  10.460  21.320 -0.1163  0.0722 -0.1015
71345W        W14257  16.725   7.682  21.515  0.0171 -0.2029  0.1287
71346W        W14258  13.769   7.519  23.358  0.0539  0.0380  0.0632
71347W        W14259  16.783   9.173  23.362  0.0445  0.0397 -0.0436
71348W        W14260  15.401   8.409  22.059  0.3349 -0.2581 -0.1160
71349W        W14261  15.209   8.910  20.465  0.1940 -0.2316  0.0508
71350W        W14262  15.915   7.149  21.415  0.3991  0.2046  0.1582
71351W        W14263  16.899   7.578  20.552 -0.3171 -0.1321 -0.0156
71352W        W14264  16.477   8.488  24.224  0.4622 -0.0497  0.1850
71353W        W14265  17.578   7.870  19.421 -0.2917 -0.2400  0.0454
71354W        W14266  15.768   8.413  19.102  0.0734 -0.2392  0.0987
71355W        W14267  15.798   7.423  19.891  0.4352  0.0961 -0.1160
71356W        W14268  14.842   9.137  22.277  0.1204  0.3757 -0.0576
71357W        W14269  15.848   8.436  20.777 -0.1384  0.2497  0.0847
71358W        W14270  17.027   9.279  22.119 -0.1094  0.1804  0.0449
71359W        W14271  15.147   7.130  19.319 -0.0319  0.0103  0.2934
71360W        W14272  18.171   9.801  20.354 -0.1231  0.1412 -0.1805
71361W        W14273  15.439   8.675  21.535  0.1641 -0.1004  0.0349
71362W        W14274  15.853   9.865  22.298  0.1099 -0.2085 -0.0805
71363W        W14275  17.720   8.680  21.918 -0.0122  0.3107  0.0575
71364W        W14276  16.357   9.065  23.570  0.2444  0.1489  0.1096
71365W        W14277  14.960   8.394  18.475  0.0744 -0.2452  0.1140
71366W        W14278  16.730   6.431  19.463  0.1669  0.1221  0.2854
71367W        W14279  14.302  11.097  19.166 -0.1194 -0.1282 -0.1002
71368W        W14280  18.796   7.159  21.969  0.2691 -0.1688 -0.0853
71369W        W14281  15.927   5.805  21.507 -0.2576 -0.0041  0.0283
71370W        W14282  16.386   7.888  22.961  0.1428 -0.1215 -0.0665
71371W        W14283  16.831   9.998  23.217 -0.0907  0.2423  0.1863
71372W        W14284  17.146   7.698  18.107 -0.0993  0.0825  0.1750
71373W        W14285  16.824   9.260  21.421  0.2235 -0.0292  0.1136
71374W        W14286  14.704   7.257  19.116  0.2520  0.1222 -0.0028
71375W        W14287  16.656   6.535  23.435 -0.1815  0.2241 -0.0758
71376W        W14288  15.546   8.893  21.954 -0.1933 -0.1867 -0.1798
71377W        W14289  14.604   9.557  21.900 -0.1441  0.3275 -0.0582
71378W        W14290  16.811  10.482  22.295 -0.0731 -0.0730  0.1593
71379W        W14291  17.606   8.154  20.561  0.1511 -0.0901  0.3512
71380W        W14292  16.457   7.604  23.922  0.2143  0.0763 -0.1763
71381W        W14293  15.889   7.279  19.440 -0.2318 -0.0723 -0.0746
71382W        W14294  17.425   8.820  19.514  0.1651 -0.1171  0.0580
71383W        W14295  16.674   9.684  19.140 -0.0888 -0.1191  0.0096
71384W        W14296  16.676   7.150  20.725  0.0655 -0.0427  0.1332
71385W        W14297  15.130  10.797  20.879 -0.1929 -0.3893  0.0709
71386W        W14298  15.532   9.500  19.529 -0.0261  0.1388  0.3245
71387W        W14299  16.927   9.492  22.947  0.0039 -0.0475  0.1853
71388W        W14300  16.004  10.288  21.124 -0.2609 -0.0466 -0.1672
71389W        W14301  18.101   5.211  21.810 -0.1223 -0.1023 -0.0789
71390W        W14302  13.846  10.997  20.349 -0.2561  0.0939 -0.2539
71391W        W14303  15.057   7.250  19.801 -0.0481 -0.2607 -0.1733
71392W        W14304  14.524   9.389  19.381  0.1293 -0.2070 -0.0872
71393W        W14305  15.430   5.672  21.603  0.1728  0.1226 -0.3497
71394W        W14306  17.611   7.439  20.516 -0.0780  0.1118  0.2687
71395W        W14307  16.412   8.441  22.041  0.2534  0.2872  0.4269
71396W        W14308  15.226   7.023  20.743  0.0528 -0.0570 -0.0825
71397W        W14309  13.416   9.439  23.014 -0.0409 -0.3401  0.0671
71398W        W14310  17.299   9.415  22.507  0.4209  0.1674 -0.0564
71399W        W14311  18.275   8.361  19.576 -0.0915 -0.3266 -0.1641
71400W        W14312  17.657  11.492  21.737  0.0350 -0.0139 -0.0118
71401W        W14313  14.895  10.100  22.670 -0.1765 -0.1009  0.0111
71402W        W14314  16.132   7.047  19.768 -0.0191 -0.2572 -0.0894
71403W        W14315  18.767   6.839  22.401  0.1766  0.0255 -0.0657
71404W        W14316  16.581   8.652  19.993 -0.0045 -0.2490 -0.0566
71405W        W14317  14.814  10.289  19.634  0.0371  0.0200 -0.1192
71406W        W14318  16.338   9.608  21.422  0.4826 -0.1090 -0.2165
71407W        W14319  17.597   8.544  19.039 -0.2168  0.0513 -0.1500
71408W        W14320  15.128   9.700  20.004  0.0915 -0.0443  0.0753
71409W        W14321  16.836   7.418  23.087 -0.3288 -0.0547 -0.1079
71410W        W14322  16.949   8.949  21.791  0.1434  0.0612  0.5461
71411W        W14323  16.567   7.193  21.840 -0.0366 -0.1183  0.0734
71412W        W14324  15.511   8.639  20.080  0.1498 -0.3715  0.0153
71413W        W14325  17.153   6.507  21.512  0.0807 -0.0670  0.0899
71414W        W14326  17.493   9.525  23.051  0.0205 -0.0748  0.0615
71415W        W14327  16.200   8.869  23.971 -0.0330 -0.4105  0.0092
71416W        W14328  14.051  10.311  24.113 -0.2641  0.4841  0.1093
71417W        W14329  17.051   6.763  22.492  0.0206 -0.0733  0.0199
71418W        W14330  20.091   8.666  20.723  0.3598  0.1199  0.1457
71419W        W14331  18.248   7.598  22.787 -0.2728 -0.1649  0.0430
71420W        W14332  15.638   9.545  20.052 -0.2805  0.3149  0.0516
71421W        W14333  15.087   8.453  20.677  0.1101  0.0600  0.2247
71422W        W14334  16.000   8.560  20.247 -0.1717 -0.0846  0.3033
71423W        W14335  17.142   7.430  22.435  0.1840 -0.0187 -0.0317
71424W        W14336  14.966  10.168  20.113  0.2473  0.1774  0.1304
71425W        W14337  16.682   9.679  20.033  0.1512  0.1673  0.1496
71426W        W14338  15.384   9.452  20.539 -0.3174 -0.0149 -0.0019
71427W        W14339  17.334   5.195  20.958 -0.0448 -0.1365 -0.3937
71428W        W14340  17.324   8.124  18.990 -0.0674 -0.2076  0.2261
71429W        W14341  17.353   6.703  20.354  0.3926  0.0444 -0.0925
71430W        W14342  18.342   7.777  22.300  0.2099 -0.2029 -0.0260
71431W        W14343  17.510   7.882  20.099 -0.3089  0.2049  0.0354
71432W        W14344  17.315   7.138  24.544 -0.1334  0.2920  0.0773
71433W        W14345  16.376   7.359  22.757  0.1705 -0.1067 -0.1672
71434W        W14346  17.645   8.626  21.411  0.0105 -0.1546 -0.0603
71435W        W14347  16.136   7.289  23.269  0.2160  0.0015  0.0119
71436W        W14348  15.719   9.878  22.808 -0.0518 -0.1968 -0.0870
71437W        W14349  14.610   8.130  22.596 -0.2417 -0.0651  0.2251
71438W        W14350  17.155   7.872  21.770 -0.3000 -0.1618 -0.1218
71439W        W14351  14.837   8.373  19.754  0.0033  0.2545 -0.1632
71440W        W14352  14.714   9.372  20.149 -0.1116 -0.0932 -0.0636
71441W        W14353  17.122   9.040  20.601  0.1543 -0.2929  0.0257
71442W        W14354  16.227   9.001  18.668  0.0287  0.1041 -0.1198
71443W        W14355  17.365   7.540  21.380 -0.3570  0.0248  0.0706
71444W        W14356  16.009   8.376  21.816  0.2174 -0.2150 -0.2333
71445W        W14357  17.517   7.811  20.922  0.0428  0.0292  0.1065
71446W        W14358  16.079   9.011  20.908 -0.0642 -0.0552  0.0655
71447W        W14359  14.640   8.935  20.691 -0.0886  0.3650  0.0157
71448W        W14360  16.119   7.824  23.685 -0.2111 -0.1093  0.1473
71449W        W14361  16.654   8.217  21.250  0.1734 -0.1355 -0.0637
71450W        W14362  17.179   8.392  22.914 -0.0711 -0.2236 -0.1754
71451W        W14363  17.799   9.358  22.308 -0.0686 -0.1622  0.1820
71452W        W14364  16.770   8.232  21.707 -0.3964 -0.1691 -0.0952
71453W        W14365  16.614   8.047  23.748 -0.0871  0.0108  0.0187
71454W        W14366  15.768   7.446  22.954 -0.3071 -0.0924 -0.3019
71455W        W14367  17.197  10.134  21.711 -0.0183 -0.2089 -0.1109
71456W        W14368  18.910   7.147  17.488  0.0513  0.3995 -0.0914
71457W        W14369  18.552   8.398  23.098 -0.0363 -0.3138 -0.2628
71458W        W14370  19.558   9.003  21.890 -0.1531 -0.1734 -0.0874
71459W        W14371  17.201   7.419  20.093 -0.3309  0.0550  0.0370
71460W        W14372  15.438   7.079  21.610 -0.1396 -0.2538 -0.1352
71461W        W14373  16.287   8.526  24.696 -0.0892  0.2820  0.2754
71462W        W14374  14.180   6.735  18.509  0.0566  0.1827  0.0391
71463W        W14375  17.342   8.869  22.504  0.0471  0.0035  0.1753
71464W        W14376  15.914  10.581  19.873 -0.3042  0.0833  0.1147
71465W        W14377  17.203   9.821  21.276 -0.1306 -0.0350  0.0232
71466W        W14378  17.065   7.846  19.709 -0.2922 -0.4057 -0.1172
71467W        W14379  15.802   7.939  20.740 -0.0644  0.1745  0.1729
71468W        W14380  15.968  10.701  21.896 -0.0431 -0.1702  0.1080
71469W        W14381  14.270   8.022  19.786  0.1719  0.2692  0.0574
71470W        W14382  14.914   8.683  19.361  0.0299  0.1562 -0.0934
71471W        W14383  15.349  10.080  22.547  0.1255  0.0235 -0.1154
71472W        W14384  16.517   9.593  23.311  0.1976  0.3885 -0.2336
71473W        W14385  16.012   7.550  21.029  0.1094 -0.0727 -0.0826
71474W        W14386  19.052   6.228  22.808  0.0095 -0.2209 -0.1385
71475W        W14387  15.406   8.012  20.436 -0.0077 -0.1801 -0.0136
71476W        W14388  16.140   6.524  19.942  0.1907 -0.3673  0.0997
71477W        W14389  14.860  11.208  21.363 -0.0743  0.2004  0.2766
71478W        W14390  14.669   9.031  22.730 -0.1683  0.0503  0.0852
71479W        W14391  16.752   8.973  20.931 -0.0474 -0.0168  0.0934
71480W        W14392  17.410   6.013  21.507  0.2659 -0.2592  0.3520
71481W        W14393  17.184   8.805  21.051  0.1867 -0.1314 -0.2608
71482W        W14394  17.714   7.820  22.661 -0.0306  0.0106  0.1300
71483W        W14395  17.893   7.765  21.286  0.3757  0.3671 -0.2205
71484W        W14396  16.545  10.792  21.852  0.0030 -0.2297  0.1578
71485W        W14397  15.385   7.887  21.031  0.1241  0.3099  0.1475
71486W        W14398  16.899   9.843  22.542 -0.2233 -0.0318  0.1234
71487W        W14399  17.597   8.713  20.726 -0.3406 -0.0193  0.1557
71488W        W14400  16.735   9.587  21.785  0.2483 -0.1478 -0.1587
71489W        W14401  15.191   7.917  22.582 -0.3365 -0.3507 -0.1008
71490W        W14402  15.388   9.509  22.416  0.0031 -0.1223  0.0050
71491W        W14403  16.741   8.715  21.359 -0.0288  0.1546  0.0646
71492W        W14404  15.502   5.992  20.694 -0.3099  0.0622  0.0954
71493W        W14405  17.351   8.996  18.916  0.1665 -0.1443  0.0279
71494W        W14406  14.590   8.652  24.689  0.5722 -0.0459  0.0532
71495W        W14407  16.884   8.174  22.183  0.3382 -0.1242 -0.1047
71496W        W14408  16.340   9.682  20.450  0.0767 -0.0432  0.0010
71497W        W14409  17.260  10.204  19.664 -0.0750 -0.0200 -0.0083
71498W        W14410  16.897   8.690  19.600 -0.0021  0.4356  0.3434
71499W        W14411  18.742   8.788  21.605 -0.0159 -0.2238 -0.1630
71500W        W14412  16.424   8.505  19.134 -0.2568 -0.0016 -0.4040
71501W        W14413  15.905   9.336  21.313 -0.1598 -0.1179  0.1031
71502W        W14414  15.068   8.817  19.834 -0.0290 -0.0469 -0.0668
71503W        W14415  16.348  11.414  19.889  0.1144  0.0802 -0.1135
71504W        W14416  13.319   9.927  19.718 -0.2012  0.3197 -0.0671
71505W        W14417  17.741   9.126  22.751  0.0639 -0.0808  0.2700
71506W        W14418  17.688   6.163  22.042  0.1122  0.1676  0.1130
71507W        W14419  18.244   6.902  21.814  0.2957  0.1398  0.0035
71508W        W14420  18.850   7.453  21.577  0.0203  0.0185 -0.1432
71509W        W14421  16.655   8.853  22.191 -0.0906  0.1633 -0.0085
71510W        W14422  15.893   8.340  22.400  0.3019 -0.0161 -0.0624
71511W        W14423  16.026   7.074  18.995  0.0250  0.4227  0.0027
71512W        W14424  15.442   8.691  24.398  0.1505  0.1807  0.0432
71513W        W14425  18.512   7.213  23.609  0.1135 -0.4545  0.0138
71514W        W14426  13.989  10.544  23.165 -0.1793  0.0837 -0.0398
71515W        W14427  16.794   9.469  20.624 -0.2364  0.0430  0.2638
71516W        W14428  15.530   6.548  20.728 -0.1585 -0.1753  0.1611
71517W        W14429  17.161   8.478  21.426  0.0687 -0.2507  0.0638
71518W        W14430  17.114   5.446  21.708  0.2878  0.3609 -0.1496
71519W        W14431  16.015   8.867  19.268  0.1571 -0.0563 -0.1845
71520W        W14432  17.158   7.141  20.591  0.0181 -0.0168 -0.4312
71521W        W14433  15.690   9.074  20.291 -0.2030 -0.0715  0.0548
71522W        W14434  16.749   9.671  21.122  0.0690  0.1446 -0.2815
71523W        W14435  16.425  10.528  20.894  0.0034  0.0133  0.2230
71524W        W14436  13.472   7.513  19.783  0.2218 -0.1481 -0.1599
71525W        W14437  16.864   7.587  22.041 -0.1302  0.0944 -0.0964
71526W        W14438  16.856   7.435  24.306  0.2065 -0.2818 -0.0992
71527W        W14439  19.427   6.210  22.480  0.1897  0.0039  0.1166
71528W        W14440  15.809   7.730  21.433 -0.0763 -0.0459 -0.0254
71529W        W14441  17.500   7.210  20.971 -0.1253  0.1329  0.0666
71530W        W14442  16.631   9.330  22.378  0.0330  0.0389 -0.2070
71531W        W14443  16.100   8.281  22.842 -0.0425 -0.1878  0.1615
71532W        W14444  15.754   8.531  19.679  0.5379  0.2920  0.2435
71533W        W14445  18.191   8.509  22.128  0.2061  0.2881 -0.1673
71534W        W14446  16.200   8.287  19.566  0.3119  0.0086 -0.3405
71535W        W14447  17.101  11.319  22.473  0.1982 -0.2395 -0.1335
71536W        W14448  14.912   7.013  23.008 -0.3304 -0.1226  0.2724
71537W        W14449  17.401   6.990  21.472  0.4322  0.0328 -0.0167
71538W        W14450  14.134   8.800  20.605  0.0629  0.1552 -0.2720
71539W        W14451  15.333   7.081  22.170  0.1798  0.1990  0.0880
71540W        W14452  18.414  10.101  24.184 -0.2726 -0.3433 -0.0239
71541W        W14453  16.321   7.491  22.186 -0.1621 -0.3027  0.0725
71542W        W14454  17.446   9.771  19.901 -0.0956  0.1092 -0.1637
71543W        W14455  19.431   8.127  21.077  0.2647  0.0200  0.1479
71544W        W14456  17.644   9.900  20.364 -0.3501  0.2414 -0.2366
71545W        W14457  17.764   7.688  21.798 -0.1242 -0.1580 -0.0003
71546W        W14458  17.702   9.536  21.324 -0.1159 -0.4823 -0.0315
71547W        W14459  15.959   9.002  21.682 -0.0261  0.0214  0.0827
71548W        W14460  16.894   9.956  22.097 -0.0410  0.0007  0.0986
71549W        W14461  17.581  10.448  21.512  0.2762 -0.0001 -0.0879
71550W        W14462  16.779   7.351  19.788 -0.1066 -0.2467  0.2929
71551W        W14463  14.832   8.685  21.548 -0.0072  0.0430 -0.0466
71552W        W14464  12.954  10.971  21.169  0.1171  0.0111  0.2344
71553W        W14465  18.383   8.626  22.564  0.1294  0.3051 -0.1822
71554W        W14466  18.856   7.619  22.123  0.3444  0.0009  0.2718
71555W        W14467  14.603  10.572  19.207  0.0117 -0.1982 -0.0497
71556W        W14468  19.478   6.461  24.620  0.1512  0.0373 -0.3461
71557W        W14469  16.453   8.817  21.747  0.1719 -0.1430 -0.0520
71558W        W14470  15.942  10.769  23.324  0.1162  0.0791  0.0213
71559W        W14471  15.731   8.895  18.820 -0.2705  0.2990 -0.0915
71560W        W14472  16.165   9.351  22.389 -0.0849 -0.0513  0.0059
71561W        W14473  16.602   9.337  19.646  0.2336 -0.3053 -0.4943
71562W        W14474  15.798  10.210  21.654 -0.0656 -0.0391  0.2952
71563W        W14475  16.963   8.235  20.027 -0.0356 -0.2634  0.1323
71564W        W14476  16.715   7.942  18.286  0.2863 -0.1818  0.0358
71565W        W14477  18.371   9.083  21.526 -0.1605  0.0193 -0.2086
71566W        W14478  16.999   7.367  21.013 -0.0592 -0.0264  0.0880
71567W        W14479  18.399   7.900  21.762 -0.0570 -0.0063 -0.0558
71568W        W14480  18.331   6.036  21.372 -0.3476 -0.0897  0.0333
71569W        W14481  15.368   9.357  21.953 -0.0919 -0.1982  0.2241
71570W        W14482  14.982   7.918  20.778  0.1027  0.1001  0.0034
71571W        W14483  16.529   8.631  18.518 -0.1355 -0.1313 -0.0656
71572W        W14484  12.921   9.140  21.029 -0.0030  0.3236 -0.4281
71573W        W14485  17.710   5.612  22.055 -0.0677 -0.3248 -0.5695
71574W        W14486  14.909   9.170  21.654 -0.1814 -0.1520 -0.2320
71575W        W14487  16.251   8.455  21.401  0.1945 -0.2359  0.0238
71576W        W14488  15.750   8.270  21.343  0.1104  0.0619  0.1077
71577W        W14489  17.375   9.393  18.579  0.2857  0.0428  0.0046
71578W        W14490  16.262   7.960  21.469 -0.0859 -0.4566 -0.2025
71579W        W14491  14.083   7.586  21.987 -0.3023  0.1218  0.1615
71580W        W14492  16.156   8.945  19.961  0.0420 -0.1213 -0.1190
71581W        W14493  17.743   8.828  20.229 -0.0249  0.0146  0.1986
71582W        W14494  16.616   7.206  21.295 -0.3533 -0.1203 -0.1165
71583W        W14495  17.911   9.896  22.124 -0.1991 -0.2791  0.2295
71584W        W14496  14.519   9.947  19.997 -0.0914 -0.1613  0.1700
71585W        W14497  15.682   8.902  23.190  0.1729  0.2093  0.0777
71586W        W14498  14.600   7.283  24.390  0.0883 -0.2105 -0.1480
71587W        W14499  13.687   7.295  19.360  0.0671 -0.2992 -0.0449
71588W        W14500  17.066   7.867  21.192  0.1123  0.3946 -0.1159
71589W        W14501  16.958   9.926  20.417 -0.0212  0.0872 -0.1655
71590W        W14502  17.794  10.198  19.992  0.0404  0.0866  0.0069
71591W        W14503  16.307   9.248  21.896 -0.1326  0.1590 -0.2661
71592W        W14504  15.436   9.896  21.981  0.1907  0.0865 -0.0507
71593W        W14505  14.547   7.305  22.813  0.1456  0.2387 -0.0056
71594W        W14506  16.769   7.743  20.080  0.1676 -0.1896 -0.1052
71595W        W14507  15.451   9.258  21.502  0.1439 -0.0816  0.3007
71596W        W14508  17.912   8.756  19.794  0.1033 -0.1517 -0.1795
71597W        W14509  16.724   7.619  22.548 -0.2031 -0.0980 -0.0208
71598W        W14510  16.707   8.193  19.501 -0.1339  0.1040  0.0545
71599W        W14511  16.135   7.645  24.892  0.0015 -0.3397 -0.0927
71600W        W14512  15.539   9.305  20.986 -0.1742  0.0922 -0.1112
71601W        W14513  16.898   8.560  22.515  0.1634  0.1363  0.1189
71602W        W14514  16.892   8.445  20.927 -0.0204 -0.4872 -0.1756
71603W        W14515  17.819   6.689  19.630  0.0845 -0.1606 -0.0236
71604W        W14516  16.737   8.409  20.405 -0.1785  0.2551 -0.1113
71605W        W14517  14.370   9.198  21.452  0.4250 -0.5739 -0.1858
71606W        W14518  15.485   7.781  18.634 -0.0804 -0.5180  0.0561
71607W        W14519  16.370   9.076  22.746  0.1085 -0.0283  0.1127
71608W        W14520  17.121   9.500  20.141  0.0558 -0.1155 -0.0489
71609W        W14521  17.840   8.804  22.405  0.0616 -0.0915  0.1459
71610W        W14522  16.369   7.699  20.457 -0.0854 -0.1521 -0.1117
71611W        W14523  18.493   8.921  20.639  0.0326 -0.1226 -0.1784
71612W        W14524  16.814  10.006  21.479  0.2171 -0.0726 -0.0697
71613W        W14525  17.454  10.372  23.537 -0.0371 -0.1882  0.0858
71614W        W14526  15.958   9.782  21.116  0.1126  0.0059 -0.3055
71615W        W14527  17.197   8.270  19.476  0.2026  0.2883  0.2983
71616W        W14528  14.417   6.604  20.680 -0.0040  0.0832 -0.4607
71617W        W14529  16.241   8.163  20.460 -0.2426 -0.1982  0.1448
71618W        W14530  16.575   7.185  20.219  0.2062 -0.0596  0.0599
71619W        W14531  18.602   7.336  22.424  0.0499  0.4703  0.2802
71620W        W14532  15.987   7.744  22.418  0.1677 -0.1005 -0.0204
71621W        W14533  18.162   6.667  20.076 -0.1772  0.1282 -0.0118
71622W        W14534  14.843   9.995  21.799  0.3011 -0.1632  0.0348
71623W        W14535  17.455   8.236  21.884  0.0203 -0.0686  0.0936
71624W        W14536  14.823   9.854  26.224 -0.0463 -0.1095  0.2234
71625W        W14537  15.830   8.994  25.470 -0.2737  0.2102  0.2780
71626W        W14538  17.544   7.504  23.720 -0.0670 -0.2352  0.1753
71627W        W14539  17.511   8.599  23.371  0.2048  0.3749 -0.2069
71628W        W14540  15.226   7.792  24.553 -0.0755 -0.0626 -0.4634
71629W        W14541  16.565  10.922  23.588 -0.1817 -0.1071 -0.2157
71630W        W14542  15.343   7.519  26.529  0.0682 -0.1516  0.0953
71631W        W14543  16.496   9.588  25.947  0.2944 -0.0020 -0.2909
71632W        W14544  16.854  10.427  25.718 -0.2576 -0.0468  0.0583
71633W        W14545  16.682   8.939  23.931 -0.2692  0.1495 -0.2798
71634W        W14546  16.902   9.244  25.911  0.1881  0.0195  0.1788
71635W        W14547  15.249  11.090  25.823 -0.0841 -0.0297  0.3309
71636W        W14548  17.645   6.757  22.929  0.1448 -0.2941 -0.0150
71637W        W14549  14.764   7.550  25.290  0.3435  0.1318 -0.0408
71638W        W14550  17.108   9.617  25.275 -0.0414  0.2385  0.2679
71639W        W14551  15.201   8.243  23.928 -0.1266 -0.3173  0.0364
71640W        W14552  16.496   7.476  25.803 -0.4198  0.0342  0.0453
71641W        W14553  16.569   8.929  25.415 -0.4154  0.0875 -0.1989
71642W        W14554  16.029  11.230  23.592 -0.0080 -0.0759  0.0625
71643W        W14555  17.864   8.953  26.624  0.0125  0.1835 -0.1390
71644W        W14556  17.565   7.378  26.821 -0.1959 -0.1540 -0.0969
71645W        W14557  16.937  11.222  23.943 -0.2217  0.0559 -0.2647
71646W        W14558  15.969   7.896  21.938 -0.0904 -0.1244  0.1200
71647W        W14559  16.023   7.925  25.835  0.1102 -0.0899 -0.0304
71648W        W14560  14.446   7.699  26.568 -0.2031 -0.0848 -0.0097
71649W        W14561  18.871   9.203  24.296  0.1260 -0.0175  0.0620
71650W        W14562  17.423   9.147  25.378  0.1840  0.0189  0.1263
71651W        W14563  16.468  11.290  25.228 -0.0247 -0.2265  0.2266
71652W        W14564  15.855  10.394  24.790 -0.2598 -0.0281  0.2758
71653W        W14565  17.708   8.280  26.393 -0.1585  0.0629  0.1663
71654W        W14566  15.598  10.418  23.500  0.2114  0.1785  0.0857
71655W        W14567  15.720   9.087  24.216 -0.2511 -0.0462  0.0141
71656W        W14568  16.690  12.002  23.978 -0.3366 -0.0318 -0.0148
71657W        W14569  17.509   9.468  24.246  0.0863 -0.0762 -0.0514
71658W        W14570  17.684   9.751  26.158  0.1347 -0.1569  0.3219
71659W        W14571  17.126  11.297  26.742  0.2517 -0.1054  0.1902
71660W        W14572  14.863   9.336  23.657  0.3463  0.0652  0.4868
71661W        W14573  16.834  11.058  27.448 -0.2609 -0.0511 -0.1002
71662W        W14574  16.372  11.234  27.612 -0.1603  0.1935 -0.1145
71663W        W14575  17.211   9.652  26.383  0.0486  0.2294  0.3263
71664W        W14576  17.450   8.482  24.473  0.4153 -0.4095  0.0091
71665W        W14577  16.160  10.307  22.147  0.0237  0.0832 -0.0696
71666W        W14578  16.387   8.487  25.196  0.0063 -0.3271  0.4757
71667W        W14579  14.945  10.039  27.398 -0.0763  0.0967 -0.3022
71668W        W14580  14.734  10.661  26.395  0.1438 -0.1720  0.0583
71669W        W14581  17.927   7.953  27.683  0.1934 -0.0771 -0.0048
71670W        W14582  15.742   9.891  23.937  0.1034 -0.0739 -0.1649
71671W        W14583  18.602   7.332  23.111 -0.0861 -0.0002  0.0354
71672W        W14584  15.059   8.742  23.940 -0.0044 -0.1887 -0.0467
71673W        W14585  16.684   7.942  24.318  0.0277  0.0441 -0.0840
71674W        W14586  15.930   7.402  25.757  0.1212  0.1382 -0.0993
71675W        W14587  15.715  11.336  24.589 -0.1180  0.0866 -0.1216
71676W        W14588  16.234   7.213  26.684 -0.0950  0.0379  0.0950
71677W        W14589  17.843  10.041  25.715 -0.0692 -0.2315  0.1643
71678W        W14590  16.020   8.461  26.006 -0.0778  0.0748 -0.0827
71679W        W14591  17.955   8.202  25.520  0.1081  0.1766  0.2939
71680W        W14592  14.997  10.276  26.431 -0.1117 -0.0378  0.0403
71681W        W14593  14.258   8.546  26.007 -0.0446 -0.2657  0.0696
71682W        W14594  16.074  10.308  23.605 -0.1783 -0.0437 -0.0888
71683W        W14595  16.740   9.958  25.618  0.0920 -0.0403 -0.1877
71684W        W14596  16.329   9.941  21.750 -0.3632  0.0077 -0.4033
71685W        W14597  14.264   7.506  25.320  0.0788 -0.2170  0.1943
71686W        W14598  14.325   9.239  26.506 -0.1383  0.2382  0.0637
71687W        W14599  16.341   8.580  27.125  0.2371 -0.1995 -0.0913
71688W        W14600  15.210   7.775  24.051 -0.2123 -0.1947 -0.0132
71689W        W14601  18.298   9.723  27.347 -0.0536  0.0681  0.0322
71690W        W14602  14.740   9.247  26.853 -0.1236  0.0923 -0.1330
71691W        W14603  18.572   8.405  23.990 -0.2539  0.0326 -0.1540
71692W        W14604  15.853   9.305  25.966  0.0858  0.3024  0.0513
71693W        W14605  17.791   9.538  25.699 -0.0742  0.1196 -0.3222
71694W        W14606  17.015   8.694  23.276 -0.1881 -0.0830  0.2089
71695W        W14607  18.112   6.175  24.308  0.0147 -0.1207  0.0495
71696W        W14608  17.339   7.660  24.483  0.0390 -0.1939 -0.1392
71697W        W14609  15.085   9.814  20.873  0.0841  0.1313 -0.0522
71698W        W14610  16.427   9.787  22.264 -0.2431  0.0013  0.2385
71699W        W14611  18.367  10.152  26.253 -0.1737  0.1622 -0.1123
71700W        W14612  18.614   8.869  23.001  0.1703 -0.2520 -0.1868
71701W        W14613  14.800   9.203  24.603 -0.0496 -0.3057 -0.2805
71702W        W14614  18.062   8.071  25.066  0.0866  0.1511 -0.0114
71703W        W14615  16.664   9.728  27.789 -0.0668  0.0973  0.1460
71704W        W14616  15.101  10.659  23.462 -0.4816  0.3152 -0.1288
71705W        W14617  14.519   9.427  26.119 -0.0477  0.0457 -0.0212
71706W        W14618  14.990   8.814  24.429 -0.0960  0.1620 -0.2621
71707W        W14619  14.795   7.351  26.630  0.0672  0.0572 -0.0078
71708W        W14620  15.800   9.751  26.373  0.4061  0.0727  0.3722
71709W        W14621  16.416   7.736  25.366 -0.1046  0.1645  0.0263
71710W        W14622  16.582   8.508  26.654  0.0822 -0.2408 -0.2865
71711W        W14623  18.740   7.965  25.723 -0.1585 -0.0344  0.1661
71712W        W14624  15.988   9.289  23.790  0.0803 -0.2404  0.2716
71713W        W14625  17.149   9.850  24.279  0.3543  0.0899 -0.1500
71714W        W14626  18.143   8.195  23.860 -0.0858 -0.0786 -0.1098
71715W        W14627  16.375  10.638  22.608 -0.0438 -0.2354  0.0920
71716W        W14628  15.163   9.544  26.990  0.2397  0.2801 -0.0931
71717W        W14629  15.449   8.224  24.396  0.0158  0.2139 -0.0062
71718W        W14630  18.440   7.268  26.966 -0.0289  0.0121 -0.0906
71719W        W14631  14.746   6.487  26.011  0.3897 -0.1138 -0.3078
71720W        W14632  18.947   9.369  28.068  0.0661 -0.2380  0.0013
71721W        W14633  14.527   7.156  24.918  0.1275  0.3745  0.0355
71722W        W14634  18.270   7.753  24.269 -0.1905 -0.1368  0.0525
71723W        W14635  15.886   8.855  24.632 -0.0642  0.1176 -0.1160
71724W        W14636  15.340   9.177  24.659  0.3674 -0.1786 -0.1445
71725W        W14637  18.379   6.387  25.922  0.1396  0.3762  0.0024
71726W        W14638  17.840  11.571  24.311 -0.1728  0.3824 -0.0700
71727W        W14639  18.721   9.967  25.467 -0.3843 -0.2693  0.1577
71728W        W14640  16.608  10.783  26.009 -0.0355  0.0290  0.2709
71729W        W14641  14.764   7.600  24.789 -0.0621 -0.0337  0.4424
71730W        W14642  14.965   8.186  24.371 -0.1583  0.1717  0.0858
71731W        W14643  14.869  10.623  25.017 -0.0682 -0.1082 -0.0230
71732W        W14644  16.400  10.357  26.055  0.0593 -0.0796 -0.2939
71733W        W14645  15.107   6.492  23.772  0.0091 -0.0359 -0.0275
71734W        W14646  18.174  10.401  25.264 -0.1124 -0.1220  0.0851
71735W        W14647  15.373   8.218  25.746 -0.1563 -0.1160  0.1767
71736W        W14648  14.340   9.732  26.858  0.0591 -0.0919  0.0111
71737W        W14649  17.739   7.869  25.997 -0.1000  0.2196 -0.1438
71738W        W14650  18.742   9.260  26.050 -0.2412 -0.1072  0.1376
71739W        W14651  16.226   9.607  25.078  0.0672  0.0567 -0.2835
71740W        W14652  14.162   7.515  23.082  0.0670  0.0893  0.0967
71741W        W14653  15.939   9.893  24.881 -0.2861  0.0766 -0.3137
71742W        W14654  14.583   9.674  24.567  0.1650  0.2315 -0.1401
71743W        W14655  14.919   8.311  24.853  0.4122  0.0381 -0.0557
71744W        W14656  16.739  10.396  24.022 -0.0621  0.3567 -0.1448
71745W        W14657  17.654   8.580  22.854 -0.2735  0.0002 -0.0973
71746W        W14658  15.223   8.495  27.404 -0.3631  0.0782 -0.0555
71747W        W14659  17.291   9.330  28.075 -0.0751 -0.2059  0.0958
71748W        W14660  14.621   8.581  24.179  0.1366  0.1641  0.1168
71749W        W14661  13.986  10.899  27.445  0.2896  0.1301 -0.0198
71750W        W14662  16.559   6.633  23.961  0.3712 -0.1949 -0.0063
71751W        W14663  18.200   7.673  23.758  0.0996  0.0162  0.0880
71752W        W14664  16.375   8.780  26.298  0.0491  0.1247  0.0394
71753W        W14665  17.600   9.586  25.078  0.1884  0.3141  0.3084
71754W        W14666  15.913   8.791  23.595  0.0144 -0.3988  0.0334
71755W        W14667  17.206   8.773  24.122  0.0284 -0.0504  0.2659
71756W        W14668  14.832  10.398  26.926 -0.0071 -0.2771  0.0541
71757W        W14669  15.747   8.367  23.156 -0.0845 -0.0016  0.0364
71758W        W14670  15.996   9.850  25.922 -0.1339  0.2616  0.1701
71759W        W14671  16.484   9.459  23.853  0.0601  0.0039  0.0507
71760W        W14672  16.323  10.400  24.425  0.2021 -0.0834  0.3110
71761W        W14673  14.455   9.819  25.833  0.1056  0.1085 -0.2746
71762W        W14674  16.662   9.869  25.094 -0.3584  0.0079  0.2018
71763W        W14675  16.643   9.910  24.236  0.1530  0.1702  0.1900
71764W        W14676  18.393   7.112  26.438  0.3081  0.1718 -0.1457
71765W        W14677  16.315   8.614  22.565 -0.1622  0.2455 -0.3693
71766W        W14678  17.520   8.159  25.257  0.3265  0.0192  0.2047
71767W        W14679  14.187   9.780  24.237  0.0266  0.2346  0.2400
71768W        W14680  18.112   8.670  25.322  0.1952 -0.0387 -0.1138
71769W        W14681  18.467   8.360  25.191 -0.2015  0.1271  0.0283
71770W        W14682  18.297   8.712  27.635 -0.0341 -0.2554  0.2594
71771W        W14683  17.894  10.328  26.114  0.1524  0.1881 -0.3043
71772W        W14684  15.877   7.944  24.557  0.1049 -0.0835 -0.1472
71773W        W14685  18.585   8.672  25.605 -0.0736 -0.3383 -0.2963
71774W        W14686  15.277   9.187  23.270  0.0055 -0.0578  0.0429
71775W        W14687  17.542   9.385  26.594  0.1008  0.1026 -0.1415
71776W        W14688  15.391   7.564  25.736  0.0255 -0.1776  0.0296
71777W        W14689  14.937  10.787  27.656 -0.0980  0.1329  0.4104
71778W        W14690  18.329   8.255  26.903 -0.1426 -0.0610  0.0726
71779W        W14691  17.559   9.885  24.637 -0.1689  0.2156  0.0555
71780W        W14692  17.171   7.713  26.696  0.2142 -0.1397  0.0347
71781W        W14693  17.908   8.538  24.155 -0.2756  0.2480  0.0701
71782W        W14694  14.998  10.168  23.297  0.1538 -0.1967 -0.1003
71783W        W14695  16.116   9.340  23.213  0.0519 -0.1833  0.1420
71784W        W14696  16.289   7.581  24.407  0.0688  0.1790  0.0008
71785W        W14697  15.958   9.332  24.677  0.1856  0.0117 -0.0071
71786W        W14698  14.954  10.212  21.170  0.2751  0.1925 -0.1885
71787W        W14699  17.408   9.695  26.990  0.1072  0.2995  0.3696
71788W        W14700  16.415   9.596  22.751 -0.0772 -0.3103  0.1111
71789W        W14701  18.088   7.501  25.106 -0.0534  0.1193  0.2218
71790W        W14702  15.762   9.963  25.465 -0.0363 -0.2031 -0.0376
71791W        W14703  16.018   8.219  25.012  0.1236  0.1985 -0.1631
71792W        W14704  14.260   8.386  25.103 -0.2882  0.3026 -0.0573
71793W        W14705  17.803   6.791  23.770  0.0980 -0.2352 -0.0755
71794W        W14706  17.706  10.246  24.327  0.1649  0.1507  0.2432
71795W        W14707  15.058   7.235  26.198  0.0438 -0.2035  0.1010
71796W        W14708  16.385   8.217  26.261  0.0790  0.1022  0.0945
71797W        W14709  14.950  11.047  26.182  0.1898 -0.3831 -0.1529
71798W        W14710  18.192   9.731  25.989  0.1096  0.2571 -0.1090
71799W        W14711  16.834   8.534  24.921 -0.3395  0.2976 -0.0752
71800W        W14712  17.383   9.785  28.481  0.3586 -0.0331  0.2393
71801W        W14713  14.831   7.689  26.163  0.0044  0.0307  0.0564
71802W        W14714  13.477   8.503  24.914  0.0825  0.3588 -0.0245
71803W        W14715  18.747  10.317  25.985  0.1054 -0.0489 -0.0875
71804W        W14716  17.193   8.858  25.816  0.2299  0.1858  0.0844
71805W        W14717  15.159  10.210  24.280 -0.0431 -0.3456  0.0308
71806W        W14718  17.269  10.846  26.486 -0.2642  0.1177 -0.1112
71807W        W14719  15.207   9.183  24.207  0.1324 -0.0051 -0.2084
71808W        W14720  15.201   9.663  25.390  0.0651 -0.0878 -0.2420
71809W        W14721  16.041   9.007  27.183  0.0369  0.0423 -0.3512
71810W        W14722  17.941   9.963  27.555 -0.1045 -0.0655 -0.0969
71811W        W14723  15.963   8.361  24.319  0.2422  0.0520 -0.1282
71812W        W14724  15.507   8.264  24.885  0.1361  0.1453  0.0042
71813W        W14725  17.335   8.544  25.007 -0.0100 -0.1159 -0.1910
71814W        W14726  18.493   9.122  25.383 -0.0631  0.0363 -0.2686
71815W        W14727  17.409   8.304  27.768 -0.3104  0.1302 -0.1072
71816W        W14728  14.925   8.007  27.196 -0.0672  0.1466  0.0859
71817W        W14729  18.432   7.784  27.151  0.1271  0.2714  0.4632
71818W        W14730  17.283  10.349  24.049 -0.0684 -0.2499  0.1092
71819W        W14731  17.140   9.643  25.745  0.4301 -0.0040  0.2094
71820W        W14732  16.152   8.370  23.837  0.1525 -0.0201  0.0086
71821W        W14733  15.086   8.835  25.615  0.0200 -0.1612  0.0663
71822W        W14734  15.165   9.738  24.526  0.0488  0.1955 -0.0179
71823W        W14735  17.819   8.997  25.648  0.0315 -0.0752  0.1268
71824W        W14736  16.033  10.042  26.806  0.4248  0.3507 -0.0761
71825W        W14737  16.874   9.002  22.784 -0.0449  0.1223 -0.1668
71826W        W14738  14.548  10.186  26.554  0.0618 -0.0023 -0.0023
71827W        W14739  16.206   6.780  23.657  0.2887 -0.0550  0.1625
71828W        W14740  15.604   9.987  23.302 -0.1344  0.0765  0.0228
71829W        W14741  17.531   8.571  25.555 -0.0952 -0.1849  0.0610
71830W        W14742  18.644   7.845  26.206  0.1390  0.0709  0.0239
71831W        W14743  16.857   8.015  23.147 -0.1303 -0.1799 -0.2487
71832W        W14744  18.328   6.725  26.859 -0.0034 -0.2267 -0.0097
71833W        W14745  16.268   9.039  25.820 -0.0276  0.3941  0.1047
71834W        W14746  16.850  10.412  25.185  0.2680  0.1629 -0.1185
71835W        W14747  14.934   8.362  26.429 -0.1205 -0.2197 -0.0375
71836W        W14748  18.491  10.351  26.779  0.0804 -0.1288  0.1929
71837W        W14749  15.644   8.767  27.493  0.2182 -0.1754 -0.0659
71838W        W14750  17.844   8.103  24.630 -0.0517  0.0614  0.0189
71839W        W14751  16.012   7.209  24.584 -0.5047 -0.0544 -0.2435
71840W        W14752  16.539   9.832  26.824  0.0252 -0.0340  0.3529
71841W        W14753  18.190  10.241  24.697 -0.1579 -0.2416 -0.0412
71842W        W14754  15.471   9.032  23.798 -0.3434  0.3715 -0.0055
71843W        W14755  18.125   7.520  26.664 -0.2767 -0.0974  0.2556
71844W        W14756  16.175   9.442  24.257 -0.0114  0.0493  0.1459
71845W        W14757  16.080   9.782  23.538  0.0284 -0.0467 -0.1490
71846W        W14758  16.259  10.634  23.999 -0.1611 -0.0339  0.0070
71847W        W14759  15.778   8.646  25.071  0.0964 -0.2951  0.0285
71848W        W14760  16.184   7.602  27.726 -0.0944 -0.0596  0.0498
71849W        W14761  18.606   8.702  24.728 -0.1162  0.2110  0.3114
71850W        W14762  18.177   8.027  26.410 -0.2710  0.1034  0.0372
71851W        W14763  18.416   8.252  27.766  0.1701  0.1758  0.2351
71852W        W14764  18.601   8.772  26.728  0.1381 -0.1498 -0.0445
71853W        W14765  16.418   8.089  26.900  0.4001 -0.2722 -0.2742
71854W        W14766  14.616   8.158  26.822 -0.0379 -0.1006 -0.1666
71855W        W14767  17.260  10.746  25.522 -0.0789 -0.0087  0.5870
71856W        W14768  17.206   7.711  22.799 -0.0369  0.1635 -0.0212
71857W        W14769  18.423   7.814  25.362 -0.3108  0.1256 -0.0674
71858W        W14770  18.960   8.152  25.185 -0.0046  0.2383  0.0478
71859W        W14771  16.610   9.942  23.737  0.2331  0.0418  0.3317
71860W        W14772  14.523   7.994  25.014 -0.0618 -0.2727  0.0184
71861W        W14773  18.222   9.231  27.426  0.1366  0.0814 -0.1701
71862W        W14774  15.655   7.516  23.504  0.1536  0.1055  0.0441
71863W        W14775  17.515   9.286  28.565  0.2467 -0.0921  0.1287
71864W        W14776  15.978  10.854  22.782  0.0089 -0.0857 -0.1391
71865W        W14777  16.403   9.907  24.649  0.3654  0.2797 -0.0093
71866W        W14778  16.778   7.661  24.818 -0.1052  0.0991 -0.0120
71867W        W14779  14.980   7.883  26.699 -0.2152 -0.1234 -0.2139
71868W        W14780  16.205  11.104  24.709  0.4720  0.0214 -0.0326
71869W        W14781  15.503   7.301  23.973 -0.2828 -0.0375  0.0270
71870W        W14782  15.727   9.269  22.863 -0.0874  0.1539 -0.0240
71871W        W14783  16.587  10.313  27.530  0.0947 -0.1962  0.0476
71872W        W14784  18.007   9.619  26.501  0.0019 -0.1682  0.2131
71873W        W14785  16.276   6.887  22.236 -0.3617  0.2564 -0.0157
71874W        W14786  17.046   9.760  28.169  0.3486  0.1252  0.2478
71875W        W14787  15.985   9.911  24.368  0.2975 -0.0868 -0.1667
71876W        W14788  16.914   8.440  25.450 -0.0768 -0.0622  0.1873
71877W        W14789  15.490   9.684  25.793  0.1117  0.5586 -0.2080
71878W        W14790  14.162  10.511  25.838 -0.2262 -0.1394  0.2617
71879W        W14791  15.763  10.864  25.739 -0.0773  0.2839  0.3382
71880W        W14792  17.844   8.249  26.854 -0.3380 -0.1507  0.1924
71881W        W14793  17.377   8.464  26.013  0.0992  0.1311  0.0359
71882W        W14794  15.106   9.141  25.104  0.2600 -0.0228 -0.1076
71883W        W14795  18.300   9.029  26.410 -0.1234  0.2095  0.1424
71884W        W14796  16.393  10.815  27.299 -0.2471 -0.1212  0.0875
71885W        W14797  16.283   9.891  25.475 -0.4783  0.1735  0.1454
71886W        W14798  16.154   9.406  25.562  0.1908 -0.1600 -0.0551
71887W        W14799  17.296   8.092  24.767 -0.0436 -0.0181  0.0947
71888W        W14800  15.821  10.257  26.187  0.0797 -0.0339  0.1009
71889W        W14801  16.340   6.799  28.004 -0.0965  0.1969  0.0605
71890W        W14802  17.544   9.987  26.592  0.0370  0.0393  0.1010
71891W        W14803  17.156   9.553  24.726  0.3802  0.0190  0.0968
71892W        W14804  16.759   7.927  25.697 -0.0323 -0.2525  0.0107
71893W        W14805  15.136  11.262  22.106 -0.1251 -0.3195  0.1643
71894W        W14806  15.826   9.269  28.131 -0.0027  0.1816  0.1768
71895W        W14807  14.966  10.071  25.756 -0.3968 -0.1575  0.0891
71896W        W14808  15.529  10.772  23.065 -0.1091 -0.1546 -0.2221
71897W        W14809  16.920   8.991  24.516  0.2842  0.1342 -0.4643
71898W        W14810  14.903   8.764  23.466 -0.0673 -0.0840 -0.0942
71899W        W14811  17.426  10.942  26.919 -0.1754  0.0656 -0.3001
71900W        W14812  15.718   7.869  24.054 -0.0888 -0.0984 -0.2187
71901W        W14813  15.796   9.533  25.307 -0.0596 -0.0676  0.1897
71902W        W14814  13.922   9.747  23.748  0.2361 -0.0653  0.0673
71903W        W14815  16.390  10.367  25.542 -0.1177  0.2315  0.4165
71904W        W14816  14.597  10.162  24.382 -0.0463  0.1744  0.0844
71905W        W14817  18.787   9.778  25.885 -0.2136 -0.2075  0.1174
71906W        W14818  18.399   7.150  24.225  0.1131  0.3626  0.1804
71907W        W14819  18.266   8.944  25.849  0.3001 -0.4092  0.1011
71908W        W14820  19.130   7.458  25.424  0.1613 -0.1078  0.4054
71909W        W14821  17.661  11.113  25.675  0.1228 -0.1624 -0.0887
71910W        W14822  16.315   9.955  26.335  0.0074  0.1920  0.1282
71911W        W14823  14.826   7.872  25.671 -0.0021  0.1445 -0.0115
71912W        W14824  15.151   8.335  26.891 -0.2409  0.0070 -0.1568
71913W        W14825  18.803   6.604  26.578 -0.1120 -0.1320 -0.0309
71914W        W14826  15.190  10.914  26.586  0.0419 -0.1277  0.1140
71915W        W14827  16.218  10.116  24.012  0.1285  0.2469 -0.3650
71916W        W14828  14.704   7.326  25.733  0.2236 -0.0203  0.3605
71917W        W14829  15.658   9.702  26.839  0.1357  0.1270 -0.0542
71918W        W14830  18.129   8.559  26.440 -0.0426  0.0635 -0.1006
71919W        W14831  14.817   9.366  23.104  0.3231  0.0605  0.0686
71920W        W14832  17.436   9.262  25.996 -0.2105  0.1161 -0.0295
71921W        W14833  16.453  10.735  24.793  0.0145 -0.1482  0.1655
71922W        W14834  16.039  10.737  26.184 -0.0096 -0.0458 -0.1145
71923W        W14835  15.970  10.393  25.757  0.0928 -0.1335  0.0349
71924W        W14836  13.544   7.465  25.968  0.1667 -0.1833  0.2260
71925W        W14837  18.442   7.402  24.715 -0.0910  0.2014  0.0950
71926W        W14838  16.321   7.640  27.035 -0.2300 -0.4450 -0.0064
71927W        W14839  18.603   8.311  26.509  0.0480  0.1107  0.0632
71928W        W14840  16.218   8.000  24.143 -0.0423 -0.3565  0.0490
71929W        W14841  18.319   8.397  24.408 -0.0930  0.3489 -0.4410
71930W        W14842  16.467   9.910  27.286 -0.1724 -0.4377 -0.0142
71931W        W14843  15.045   6.881  25.863 -0.2610 -0.0993 -0.2306
71932W        W14844  16.325   8.081  22.433 -0.1265 -0.0536 -0.3180
71933W        W14845  17.882   9.781  27.015  0.1734 -0.3073  0.1155
71934W        W14846  16.661   8.584  22.953  0.2603 -0.0746 -0.2164
71935W        W14847  16.144  11.734  26.448  0.0225  0.1154  0.1774
71936W        W14848  14.251   6.970  25.494 -0.1054 -0.2019  0.1315
71937W        W14849  16.485   8.081  24.778  0.2914  0.1614  0.0660
71938W        W14850  14.802   7.704  24.324  0.1785 -0.2133  0.3146
71939W        W14851  16.205   9.317  26.340  0.1808 -0.0506 -0.1880
71940W        W14852  18.826  11.175  27.974 -0.2200  0.2933 -0.1904
71941W        W14853  13.712   7.076  25.197  0.1831  0.2165  0.1114
71942W        W14854  17.592  10.873  22.726 -0.0296  0.1161  0.0655
71943W        W14855  17.995   9.286  26.097 -0.0139 -0.1359 -0.2179
71944W        W14856  14.706   9.841  23.049 -0.1630  0.0023  0.1027
71945W        W14857  18.022   9.310  25.335  0.0645  0.0647 -0.0123
71946W        W14858  17.856  10.762  24.711 -0.1933  0.0556 -0.2874
71947W        W14859  15.395   7.873  25.357 -0.1377  0.3659  0.0425
71948W        W14860  17.068  10.432  26.300 -0.0650  0.0023 -0.0516
71949W        W14861  18.708   9.505  27.198  0.0778 -0.1401 -0.0651
71950W        W14862  16.422   8.260  25.759  0.2895  0.0684 -0.1654
71951W        W14863  15.840   8.294  25.502 -0.0314 -0.0968 -0.1219
71952W        W14864  13.617   9.994  24.280 -0.1398  0.0672 -0.0273
71953W        W14865  19.083   8.855  26.531  0.0969  0.1280 -0.1812
71954W        W14866  18.697   7.475  25.664  0.0702  0.2595 -0.0374
71955W        W14867  17.303   9.776  20.776  0.0477  0.1424  0.2770
71956W        W14868  19.188   6.676  25.658  0.3414 -0.0988  0.1365
71957W        W14869  15.806  11.990  26.891  0.1348  0.4224  0.0038
71958W        W14870  15.321  10.537  26.872  0.0200 -0.0331 -0.1573
71959W        W14871  15.121   8.144  23.474  0.1438 -0.3132 -0.2647
71960W        W14872  15.259   9.688  26.435  0.0416 -0.0546  0.0771
71961W        W14873  16.971   9.491  23.871  0.0121 -0.0613 -0.4489
71962W        W14874  15.438   9.630  24.915 -0.1825 -0.2381  0.1774
71963W        W14875  18.445  10.643  25.740  0.0565  0.1007 -0.1966
71964W        W14876  17.373   9.098  24.816 -0.1399 -0.2932 -0.2778
71965W        W14877  17.145  10.034  24.963 -0.0857 -0.0620 -0.1072
71966W        W14878  17.826   7.232  26.358 -0.0971 -0.0058  0.1222
71967W        W14879  18.841   7.734  24.961 -0.2033 -0.3129  0.0635
71968W        W14880  16.837   6.810  25.410  0.1607 -0.1728  0.0252
71969W        W14881  15.183   8.796  26.239 -0.3436 -0.1208  0.2027
71970W        W14882  13.772   9.414  24.122  0.0820  0.0657 -0.3027
71971W        W14883  15.375   8.635  23.498 -0.1758  0.1669  0.2674
71972W        W14884  16.523   9.412  24.713 -0.2263  0.1152  0.2263
71973W        W14885  17.021   7.947  27.570 -0.0716 -0.0466 -0.3013
71974W        W14886  15.551   8.451  26.169  0.3251  0.2584 -0.0577
71975W        W14887  15.612   9.159  25.057  0.3739 -0.1951 -0.2055
71976W        W14888  16.985   6.913  24.836 -0.0010 -0.4621  0.1473
71977W        W14889  18.236   9.631  23.665 -0.0185 -0.0935  0.1465
71978W        W14890  14.772   6.879  25.367 -0.0614 -0.2039  0.1586
71979W        W14891  14.401   8.115  25.510 -0.1990  0.3178 -0.2199
71980W        W14892  18.123   8.849  24.525 -0.0853  0.0780 -0.3768
71981W        W14893  16.828  10.306  24.573  0.0318 -0.1050  0.2083
71982W        W14894  16.145   7.309  25.280  0.0384  0.3439 -0.2818
71983W        W14895  18.589  11.267  27.037 -0.3074 -0.1378  0.2125
71984W        W14896  16.116   8.799  22.133  0.2207  0.1419  0.1174
71985W        W14897  17.127   9.197  26.396  0.0791 -0.1631  0.2094
71986W        W14898  15.660   7.545  26.174 -0.0028  0.3312 -0.0194
71987W        W14899  14.265   7.576  24.637  0.0072  0.0904 -0.0595
71988W        W14900  16.321   9.033  25.024  0.1117  0.3189 -0.0732
71989W        W14901  15.783  10.743  23.882 -0.7109  0.1045  0.1523
71990W        W14902  17.331  10.405  24.556  0.1444  0.3566  0.2451
71991W        W14903  16.832   9.232  27.800  0.2396  0.2001  0.0055
71992W        W14904  15.837  11.498  27.050 -0.2058 -0.2134 -0.3457
71993W        W14905  13.491   6.497  26.128 -0.3030  0.2135 -0.4030
71994W        W14906  16.845   9.175  25.022  0.1946 -0.1593 -0.2201
71995W        W14907  15.090  10.410  25.418  0.0247 -0.1716  0.0718
71996W        W14908  17.103   9.572  23.401 -0.2802  0.0057  0.1064
71997W        W14909  19.989   8.844  25.741 -0.0854  0.1594 -0.0370
71998W        W14910  17.072  10.119  23.668 -0.0130 -0.1031 -0.1627
71999W        W14911  13.449   8.334  26.823  0.0125 -0.0958 -0.0661
72000W        W14912  16.192   9.546  28.081 -0.1887 -0.0262 -0.1307
72001W        W14913  18.513  10.960  26.658  0.0917 -0.2045  0.1231
72002W        W14914  17.765   7.851  24.076 -0.2870  0.1693  0.0302
72003W        W14915  18.725   7.694  23.886 -0.0926 -0.0048 -0.0770
72004W        W14916  15.187   9.740  22.873 -0.0653 -0.1191  0.1048
72005W        W14917  15.421   9.212  25.578 -0.1058 -0.0721 -0.0823
72006W        W14918  16.400   8.977  24.471  0.2651 -0.0985 -0.1944
72007W        W14919  16.657   9.441  25.462 -0.0311  0.1732 -0.1062
72008W        W14920  15.801  10.532  26.590  0.3139 -0.1989  0.1092
72009W        W14921  18.511   9.659  26.348  0.3426 -0.3985  0.4119
72010W        W14922  15.522   8.838  25.828  0.2261 -0.0997  0.0768
72011W        W14923  16.995   8.377  24.444 -0.1333  0.0131  0.1540
72012W        W14924  15.108  11.695  27.597 -0.0309  0.0591 -0.0769
72013W        W14925  18.938  11.398  28.399  0.0275 -0.1572  0.0637
72014W        W14926  15.678  11.620  26.593  0.1275 -0.3588 -0.1575
72015W        W14927  18.378   9.564  25.072  0.1293 -0.1324 -0.3059
72016W        W14928  14.453   6.972  25.982 -0.2866 -0.0483  0.0769
72017W        W14929  17.687   9.925  23.913  0.0594  0.1663 -0.1555
72018W        W14930  17.388  10.245  25.416  0.1232  0.0204  0.1415
72019W        W14931  17.278   8.947  27.416  0.3282 -0.2459  0.3126
72020W        W14932  15.862   7.738  25.370  0.2800  0.0208 -0.1424
72021W        W14933  17.482   7.613  24.977  0.0888  0.2079  0.0081
72022W        W14934  15.626  11.007  26.296 -0.1138 -0.5397 -0.1580
72023W        W14935  17.856  10.646  25.700  0.1152  0.1929  0.1419
72024W        W14936  16.011  10.658  30.420  0.2035 -0.2373  0.0215
72025W        W14937  15.780   9.181  26.647 -0.0759  0.3007 -0.0138
72026W        W14938  17.671   7.440  28.449 -0.0295  0.2249  0.3279
72027W        W14939  17.637   9.630  29.573 -0.0417 -0.1210 -0.2718
72028W        W14940  16.107   8.098  29.484  0.1331 -0.1498 -0.2198
72029W        W14941  18.053  10.903  28.125  0.2492 -0.1746 -0.1686
72030W        W14942  13.585   7.492  29.231 -0.1120 -0.3239 -0.0064
72031W        W14943  16.857  11.028  30.256 -0.0904 -0.1889  0.0078
72032W        W14944  17.597  10.278  30.141  0.2309 -0.1683  0.0971
72033W        W14945  18.140   9.334  26.904  0.2303  0.1685 -0.0274
72034W        W14946  16.409   9.121  30.928 -0.0978  0.0449 -0.1229
72035W        W14947  17.695  10.789  30.382 -0.2421 -0.2749 -0.2540
72036W        W14948  16.023   6.637  28.916 -0.0219  0.1054 -0.1338
72037W        W14949  15.551   6.379  28.830 -0.2973 -0.0995  0.1411
72038W        W14950  17.161  10.466  31.308 -0.1086  0.1283 -0.0943
72039W        W14951  16.407   9.701  28.726 -0.4763 -0.2705 -0.0331
72040W        W14952  16.278   7.814  29.900  0.0441  0.2018  0.0674
72041W        W14953  16.490   7.942  27.893 -0.0025 -0.0208  0.0547
72042W        W14954  18.149  12.062  28.763  0.1110 -0.2631  0.0882
72043W        W14955  16.920   7.264  29.141 -0.1306 -0.0050  0.0573
72044W        W14956  16.521   7.787  30.885  0.0412  0.2266 -0.1667
72045W        W14957  16.890   9.943  26.191 -0.1778  0.0569 -0.1019
72046W        W14958  15.283   7.967  26.188  0.0391 -0.3811  0.1028
72047W        W14959  17.206   8.221  30.142  0.0430  0.1503 -0.2067
72048W        W14960  15.187   8.633  29.332  0.5474  0.4432 -0.1870
72049W        W14961  19.055   8.511  29.672 -0.1100  0.0356  0.0030
72050W        W14962  18.996   7.849  28.851 -0.0765  0.0377 -0.0855
72051W        W14963  17.547   9.050  29.626 -0.0480  0.0386  0.0279
72052W        W14964  16.254  11.228  29.106 -0.1395 -0.1725  0.0973
72053W        W14965  16.142   9.500  31.298 -0.1298 -0.0041 -0.0463
72054W        W14966  16.006  10.932  29.486  0.0003  0.0915 -0.1239
72055W        W14967  16.387  11.660  28.469 -0.1049 -0.2333  0.1295
72056W        W14968  16.214  10.706  29.016 -0.4109  0.2972  0.0527
72057W        W14969  18.490  11.534  29.702 -0.1081  0.2695  0.1517
72058W        W14970  17.121  10.137  30.851 -0.5024 -0.3527 -0.0506
72059W        W14971  16.300  12.576  30.025  0.4534  0.1776 -0.1312
72060W        W14972  15.536  11.501  27.977 -0.0168  0.1661 -0.0794
72061W        W14973  16.912  10.688  30.736 -0.1443 -0.1538  0.0733
72062W        W14974  15.748   9.425  30.740 -0.2257 -0.0244 -0.2683
72063W        W14975  16.195   9.605  30.598 -0.0423 -0.1790 -0.2089
72064W        W14976  18.787  10.066  26.544 -0.0091  0.2447 -0.0552
72065W        W14977  16.031  10.592  27.736  0.0922 -0.0261 -0.2608
72066W        W14978  15.938   9.826  28.950  0.0555 -0.2887  0.1242
72067W        W14979  16.233   8.515  30.367 -0.0209  0.0582 -0.3409
72068W        W14980  15.807  10.237  27.495 -0.0808 -0.1099  0.0329
72069W        W14981  19.531   7.374  28.508  0.1962  0.1027  0.5363
72070W        W14982  14.566   9.869  27.715  0.1614 -0.1474 -0.0616
72071W        W14983  16.619   9.183  28.700  0.1574 -0.0766 -0.0611
72072W        W14984  17.543   9.556  29.009 -0.2911  0.1460  0.0793
72073W        W14985  18.495   8.002  28.505  0.1091  0.0146 -0.1721
72074W        W14986  18.245   7.997  29.507 -0.3912 -0.0012 -0.1728
72075W        W14987  15.934  11.203  27.956  0.0419  0.0901  0.1035
72076W        W14988  16.642   8.916  29.210 -0.0329 -0.4159 -0.1446
72077W        W14989  18.792  10.764  30.375 -0.1427 -0.0196  0.1239
72078W        W14990  17.905   8.507  27.958 -0.0044  0.0939  0.2220
72079W        W14991  16.043   7.585  29.190 -0.1264 -0.1774 -0.0234
72080W        W14992  16.894   9.972  29.078  0.0246  0.1581  0.0811
72081W        W14993  15.019   7.178  28.838 -0.6029  0.0499 -0.0170
72082W        W14994  18.225  11.540  27.254  0.0668 -0.0480  0.2392
72083W        W14995  17.608  10.459  29.310 -0.1152 -0.0686 -0.1524
72084W        W14996  16.906  10.107  28.618  0.0031  0.0123  0.2706
72085W        W14997  16.653   9.413  28.261 -0.2462  0.0128 -0.0153
72086W        W14998  15.543   8.790  31.313 -0.1009 -0.1778 -0.0909
72087W        W14999  14.375   8.726  29.932 -0.0705  0.2864  0.0428
72088W        W15000  16.827   7.853  27.010 -0.0083  0.0797 -0.1413
72089W        W15001  17.955   9.951  31.507 -0.0200  0.0686  0.1796
72090W        W15002  15.806   9.790  29.396  0.0786  0.0267 -0.3765
72091W        W15003  17.254   9.862  29.360  0.0650 -0.0319 -0.1172
72092W        W15004  16.761  10.269  30.056 -0.0863  0.0644 -0.2323
72093W        W15005  17.122  12.250  29.562 -0.0721  0.1975  0.0237
72094W        W15006  19.237  10.764  27.093  0.0480 -0.2271 -0.0797
72095W        W15007  17.447   7.720  29.041 -0.1086  0.3005 -0.0985
72096W        W15008  17.651   7.136  31.569 -0.0065 -0.0796  0.4068
72097W        W15009  15.939   8.079  26.891 -0.5146  0.2621 -0.0508
72098W        W15010  16.293  10.207  28.943  0.2152 -0.2462  0.0461
72099W        W15011  17.909  11.602  30.882  0.0837 -0.1712  0.3508
72100W        W15012  18.895  10.927  28.580  0.1158 -0.2232 -0.2765
72101W        W15013  16.447  11.659  28.984 -0.1989  0.0931  0.0504
72102W        W15014  16.029   7.727  30.618 -0.3959 -0.0840 -0.0050
72103W        W15015  16.583  11.122  30.718  0.1490  0.3134  0.0596
72104W        W15016  16.035   9.242  27.661  0.1117  0.0362  0.1956
72105W        W15017  15.562  11.242  29.671  0.1769  0.0139  0.0905
72106W        W15018  15.499   9.288  27.785 -0.2633 -0.0981 -0.0710
72107W        W15019  13.075   7.344  29.969  0.1346  0.1050 -0.1334
72108W        W15020  15.876   7.953  28.799  0.1979 -0.0342 -0.1597
72109W        W15021  18.728   7.457  27.340 -0.0845 -0.1114  0.2236
72110W        W15022  16.173   7.369  29.601  0.1693 -0.0609 -0.1030
72111W        W15023  18.150   7.464  28.550  0.1114 -0.0713 -0.1702
72112W        W15024  16.535   9.885  28.298  0.0983  0.0591  0.4270
72113W        W15025  17.314  10.944  28.214 -0.2901 -0.1606 -0.1067
72114W        W15026  19.152   7.323  26.531  0.0220 -0.1045  0.1749
72115W        W15027  17.597  10.216  27.064  0.0743  0.0920 -0.3148
72116W        W15028  15.736   8.018  28.269 -0.1570  0.1442 -0.1995
72117W        W15029  16.155   7.657  28.203  0.0837 -0.3074 -0.2094
72118W        W15030  16.756   7.004  30.074  0.1576  0.1108 -0.2118
72119W        W15031  16.266   6.455  30.540 -0.0402 -0.0206 -0.0721
72120W        W15032  16.848   9.138  30.046  0.0624 -0.0947  0.2257
72121W        W15033  15.732   6.721  28.496  0.2162 -0.1551 -0.0878
72122W        W15034  18.627   8.820  30.030 -0.0075  0.1413  0.0551
72123W        W15035  16.962   9.602  28.693 -0.0545  0.2410 -0.4361
72124W        W15036  16.363   9.305  30.102  0.1575  0.3362  0.2966
72125W        W15037  18.290   7.928  30.992 -0.2280  0.2413  0.1399
72126W        W15038  16.961  12.087  29.124  0.0405 -0.1232  0.1091
72127W        W15039  18.084  13.377  28.168  0.0363  0.2490 -0.0751
72128W        W15040  17.856  10.653  30.890 -0.0909 -0.0899  0.1232
72129W        W15041  15.619   8.208  29.576  0.1826  0.0970 -0.0267
72130W        W15042  15.937   8.678  28.069  0.1550  0.0189  0.5164
72131W        W15043  16.244  10.031  27.859  0.3508 -0.0564 -0.0136
72132W        W15044  17.035   8.528  28.424  0.1509 -0.1421 -0.1483
72133W        W15045  17.253   8.735  27.962 -0.1072  0.2314  0.1112
72134W        W15046  17.951  10.776   0.560  0.0775 -0.0800 -0.1128
72135W        W15047  16.784   9.725  29.523 -0.2512 -0.2763  0.0936
72136W        W15048  15.702  10.875  31.203 -0.0885  0.1455 -0.1051
72137W        W15049  18.595   8.306  29.925  0.0695  0.1996 -0.0508
72138W        W15050  18.829  11.332  30.903  0.2933 -0.1730 -0.0912
72139W        W15051  18.756   9.479  30.198 -0.1442 -0.1975  0.1059
72140W        W15052  16.715   8.955  26.640  0.0859 -0.1863 -0.1683
72141W        W15053  16.944  11.315  29.807  0.1457 -0.2058 -0.1375
72142W        W15054  14.676   9.595  27.275  0.1842 -0.3854 -0.1508
72143W        W15055  15.310   8.884  27.089  0.3922 -0.1470 -0.0051
72144W        W15056  17.363  11.418  28.328 -0.0523 -0.3753 -0.1802
72145W        W15057  17.580   7.276  29.790  0.0354 -0.1394  0.1865
72146W        W15058  14.415   9.759  30.320  0.0781 -0.1008  0.2910
72147W        W15059  17.046   8.321  29.687  0.0019 -0.2125  0.1047
72148W        W15060  15.750   7.214  29.388 -0.1226 -0.0156  0.2814
72149W        W15061  16.852  10.685  29.757 -0.0372  0.1369  0.0112
72150W        W15062  17.980   7.972  28.655  0.3089 -0.0677 -0.0883
72151W        W15063  17.551   8.776  28.595 -0.0910 -0.0602 -0.0352
72152W        W15064  16.902   7.434  31.607  0.3494 -0.0975  0.2276
72153W        W15065  17.537   8.590  30.363  0.0624 -0.1451  0.8453
72154W        W15066  16.697   8.297  27.260  0.1913  0.0981  0.0041
72155W        W15067  17.466   7.439  27.940  0.0440  0.0432  0.1666
72156W        W15068  16.175  10.163  30.296 -0.1222  0.1039 -0.2547
72157W        W15069  16.336   8.853  29.993  0.1061 -0.0743 -0.0719
72158W        W15070  17.756   9.181  30.143 -0.0961  0.2517  0.4493
72159W        W15071  16.912   8.324  27.870 -0.2017  0.1588 -0.0282
72160W        W15072  17.887  11.338  28.359 -0.0481 -0.0573 -0.2209
72161W        W15073  14.610  10.602  30.459 -0.3635 -0.1083 -0.2576
72162W        W15074  15.596   9.472   0.087 -0.3636  0.1843  0.2361
72163W        W15075  18.549  10.531  28.569 -0.0129 -0.1985  0.1923
72164W        W15076  17.281   5.914  28.710 -0.2098  0.0246  0.1144
72165W        W15077  15.853   8.877  26.248  0.5211 -0.3368 -0.1005
72166W        W15078  17.044   8.955  28.814  0.1258 -0.0343  0.0845
72167W        W15079  14.769  11.014  28.070 -0.0053  0.2942  0.0227
72168W        W15080  16.531   7.479  30.504 -0.2212  0.0836 -0.1853
72169W        W15081  18.276   5.628  28.928 -0.0893 -0.0869  0.1243
72170W        W15082  16.095   8.441  28.812  0.3715  0.1628  0.1760
72171W        W15083  18.524  10.742  30.825  0.0451 -0.4459 -0.2590
72172W        W15084  17.376   9.765  27.730  0.3100 -0.1387  0.0690
72173W        W15085  16.274   9.029  28.042 -0.0959  0.1982 -0.1990
72174W        W15086  16.631   9.279  29.621 -0.0840  0.1036 -0.0248
72175W        W15087  17.595   8.217  29.779 -0.2042  0.2813  0.2556
72176W        W15088  15.869   8.985  31.668  0.0898  0.2612 -0.1472
72177W        W15089  14.719  11.434  29.906  0.0106  0.0605  0.1130
72178W        W15090  16.617  10.364  31.100  0.4253 -0.0101 -0.2855
72179W        W15091  17.056   9.404  29.115  0.2483  0.2209 -0.2019
72180W        W15092  15.685   9.286  29.755 -0.0398  0.0073 -0.2332
72181W        W15093  16.407   7.517  28.753 -0.0083 -0.4400  0.0087
72182W        W15094  16.938  11.253  27.936  0.1033  0.1825  0.0276
72183W        W15095  16.235  12.545  26.196  0.2010 -0.3409  0.2397
72184W        W15096  15.786   8.239  30.467  0.3099 -0.1535  0.0892
72185W        W15097  16.910   9.617  30.061  0.0623 -0.2968  0.0334
72186W        W15098  16.176  10.782  26.871  0.0247  0.0148  0.1835
72187W        W15099  16.743  10.225  30.588  0.3826 -0.2363 -0.0375
72188W        W15100  14.760  10.914  27.171  0.0785 -0.1116  0.0170
72189W        W15101  17.485   8.545  29.424 -0.2819 -0.0556  0.1362
72190W        W15102  15.449   9.692  29.823 -0.1396  0.1095  0.1706
72191W        W15103  15.418   7.814  27.079  0.0293 -0.0234 -0.0686
72192W        W15104  14.296   8.848  28.458 -0.2224 -0.1895  0.0487
72193W        W15105  18.485   6.905  27.344 -0.1211  0.0135 -0.0843
72194W        W15106  18.233   9.631  27.817  0.4487 -0.3194  0.1225
72195W        W15107  16.848   8.496  29.281 -0.1408 -0.1450  0.3131
72196W        W15108  16.632   8.584  28.812  0.1516 -0.1010  0.0064
72197W        W15109  15.117   9.693  28.526 -0.0947 -0.0761 -0.0859
72198W        W15110  17.702   7.931  31.776  0.0698  0.1266  0.1296
72199W        W15111  17.165   7.580  28.299  0.0357 -0.1071 -0.0564
72200W        W15112  17.814  10.642  29.898 -0.0106 -0.3118  0.0920
72201W        W15113  15.697   8.636   0.401  0.3094  0.0410 -0.1783
72202W        W15114  15.608   8.339  27.879  0.0242  0.2377 -0.2255
72203W        W15115  18.202  10.226  30.090 -0.1887 -0.1500 -0.2513
72204W        W15116  15.790   8.909  28.664  0.1835  0.2172 -0.1222
72205W        W15117  16.622  10.290  28.046  0.0193 -0.1114  0.1037
72206W        W15118  16.452  11.713  30.696 -0.1928 -0.0533 -0.3990
72207W        W15119  15.637   8.486  28.452 -0.2606  0.0286  0.0149
72208W        W15120  16.729   8.934  27.194  0.0379 -0.1436  0.1234
72209W        W15121  15.685   7.799  30.241 -0.0161  0.1464  0.2986
72210W        W15122  17.115   8.722  31.403 -0.1376 -0.2553  0.1178
72211W        W15123  16.327   9.892  29.361  0.0869 -0.2708  0.1941
72212W        W15124  16.962   7.674  28.831  0.1694  0.1018  0.0194
72213W        W15125  18.114   9.496  29.260  0.2271 -0.0253 -0.0803
72214W        W15126  16.538   9.869  30.354  0.3318 -0.2914  0.3099
72215W        W15127  17.980   8.579  29.494 -0.1728  0.1774  0.1298
72216W        W15128  15.414   8.955  31.835  0.0003  0.0202 -0.0376
72217W        W15129  16.554   7.621  29.280  0.1053 -0.3607  0.4645
72218W        W15130  18.495  11.085  28.319 -0.2932 -0.1973 -0.0788
72219W        W15131  16.786   8.253  31.629  0.3056 -0.0365  0.0085
72220W        W15132  15.833   9.943  28.260 -0.3557  0.1947 -0.0512
72221W        W15133  16.458   9.380  29.108  0.0049 -0.0981 -0.0371
72222W        W15134  17.017   9.834  27.229  0.1143  0.1093  0.0812
72223W        W15135  16.864   8.911  28.245  0.0526 -0.0206  0.3265
72224W        W15136  17.212   8.688  29.949 -0.2266 -0.2216  0.1044
72225W        W15137  15.726   9.783  27.771 -0.0739 -0.2533 -0.0858
72226W        W15138  15.058  10.920  28.533 -0.3317 -0.1802  0.2253
72227W        W15139  16.847   8.151  28.707 -0.0320  0.3872  0.0403
72228W        W15140  17.118  10.438  26.845 -0.0979 -0.0050 -0.0919
72229W        W15141  17.524   8.414  28.286  0.0742  0.1155 -0.1000
72230W        W15142  18.817   7.587  31.181  0.2612  0.0281  0.1592
72231W        W15143  18.764   9.347  29.391  0.2925 -0.0560  0.0409
72232W        W15144  15.806   7.066  30.701 -0.2307 -0.0466  0.0016
72233W        W15145  17.045   6.301  29.069 -0.2893 -0.1767  0.1682
72234W        W15146  17.379  10.030  28.899 -0.1133  0.1308  0.3844
72235W        W15147  13.434   7.766  30.296 -0.0032 -0.0948 -0.3627
72236W        W15148  16.708  10.389   0.308  0.0797  0.1979  0.1941
72237W        W15149  13.424   8.668  31.776 -0.0820 -0.2131 -0.0098
72238W        W15150  17.303   8.072  28.646 -0.0887 -0.2284  0.2877
72239W        W15151  16.463   6.479  29.178 -0.3141  0.0110  0.0177
72240W        W15152  15.345   9.666  30.295 -0.0859  0.0544 -0.1631
72241W        W15153  17.783   8.050  31.111 -0.1149 -0.3453  0.0253
72242W        W15154  17.214   9.045  26.911 -0.1942 -0.4897  0.2284
72243W        W15155  18.980   8.256  28.577  0.0935  0.1249 -0.0639
72244W        W15156  15.360   9.974  29.411 -0.0329  0.0616 -0.2546
72245W        W15157  17.777   9.351  27.726  0.3818  0.1050  0.2444
72246W        W15158  16.737   9.510  26.417 -0.2024  0.0602 -0.0280
72247W        W15159  15.390   9.063  29.134  0.0637  0.1463 -0.2551
72248W        W15160  14.658   7.887  29.353 -0.0085  0.2627  0.0624
72249W        W15161  17.624   8.057  29.325  0.2202 -0.2748  0.1220
72250W        W15162  17.994   7.731  29.130  0.2010  0.2903 -0.5121
72251W        W15163  17.139   8.936  29.357 -0.0760  0.1236  0.3514
72252W        W15164  18.351   9.136  31.144  0.0320  0.1287  0.0532
72253W        W15165  16.433   7.954  30.401 -0.1179  0.1935  0.0604
72254W        W15166  14.781   8.310  31.303  0.4388  0.0106 -0.3100
72255W        W15167  17.567  11.390  28.906 -0.1011 -0.3227 -0.0711
72256W        W15168  19.640   9.038  28.522 -0.0582  0.1376 -0.1724
72257W        W15169  18.517   8.476  29.376  0.1870 -0.0090 -0.2780
72258W        W15170  18.293  10.010  28.152  0.0720  0.0317 -0.0076
72259W        W15171  19.033   9.158  29.834  0.0823  0.0480 -0.0064
72260W        W15172  16.183   8.995  28.993 -0.3899 -0.0357  0.0401
72261W        W15173  18.060   8.905  31.530  0.0410 -0.0420  0.1645
72262W        W15174  17.556   8.089  27.232 -0.0410 -0.0192 -0.1134
72263W        W15175  18.101   8.286  29.883 -0.0515  0.0497  0.0276
72264W        W15176  16.253  10.710  28.139 -0.0375 -0.3927 -0.0481
72265W        W15177  16.578  10.783  27.768 -0.2935 -0.3530  0.1919
72266W        W15178  18.867   8.875  28.904  0.1924  0.2067 -0.2125
72267W        W15179  15.789   7.031  29.814  0.0733  0.1347 -0.0504
72268W        W15180  15.149  10.601  28.138 -0.2927 -0.1332 -0.0753
72269W        W15181  16.816   6.710  28.310  0.3561 -0.0794  0.2159
72270W        W15182  15.453   8.612  26.622 -0.2062  0.1743 -0.3323
72271W        W15183  17.263   9.064  30.332  0.1068 -0.0313 -0.1276
72272W        W15184  17.211   9.195  31.036 -0.1904  0.2550  0.1411
72273W        W15185  16.640   7.656  27.433 -0.0737 -0.2815  0.2239
72274W        W15186  17.578   8.511  31.046  0.1766 -0.3719  0.3111
72275W        W15187  15.608  10.180  27.053 -0.0401  0.0977  0.1353
72276W        W15188  16.748   8.556  30.131 -0.1876  0.0632 -0.1361
72277W        W15189  16.136  12.004  28.715  0.1828 -0.3852  0.2828
72278W        W15190  15.726  10.292  29.708  0.0695 -0.0152 -0.0445
72279W        W15191  16.477  10.753  29.482 -0.0706 -0.0373 -0.1021
72280W        W15192  15.928   9.371  29.217 -0.1736 -0.0292 -0.0646
72281W        W15193  16.833   7.916  30.009  0.1717 -0.1827  0.2997
72282W        W15194  17.215   9.684  30.791  0.1162  0.0254  0.0559
72283W        W15195  16.791   9.495  31.169  0.0469  0.0845  0.1977
72284W        W15196  17.411  10.620  30.804 -0.0145 -0.0305  0.0637
72285W        W15197  16.208  10.416  29.852 -0.1387  0.2516 -0.0283
72286W        W15198  17.327  10.507  29.797 -0.0117  0.2775  0.1372
72287W        W15199  19.076   8.928  29.365 -0.6079 -0.1380 -0.1616
72288W        W15200  15.606  10.288  30.167 -0.0914  0.1436  0.1521
72289W        W15201  15.214   9.175  30.364 -0.1164 -0.0420 -0.0523
72290W        W15202  15.379   8.434  29.957 -0.0351 -0.0855 -0.0999
72291W        W15203  16.209   8.992  29.509  0.0461  0.2866 -0.0562
72292W        W15204  17.213   8.539  28.927 -0.1593 -0.3401 -0.1113
72293W        W15205  17.095  10.545  27.358 -0.0495 -0.1476  0.1485
72294W        W15206  14.316  11.012  30.544  0.0311  0.2647  0.0801
72295W        W15207  14.849   8.979  29.385  0.2951  0.1601 -0.1545
72296W        W15208  16.842  11.405  28.414  0.3333  0.0439  0.0079
72297W        W15209  17.551  10.495  28.784 -0.0350  0.1011  0.4410
72298W        W15210  17.839  10.567  28.372  0.2780 -0.3601 -0.1300
72299W        W15211  18.497  10.655  29.853  0.2829 -0.0967 -0.1268
72300W        W15212  16.227   8.901  26.734  0.0483 -0.0274  0.1365
72301W        W15213  16.719  11.991  28.603  0.0667  0.2153 -0.0182
72302W        W15214  15.288   9.185  26.695 -0.2260 -0.0993 -0.0715
72303W        W15215  18.474  10.255  29.249 -0.1476  0.3486  0.1553
72304W        W15216  14.896  11.213  29.001  0.2091 -0.1559  0.1166
72305W        W15217  17.073   9.790  31.739 -0.2525  0.0251 -0.3242
72306W        W15218  18.166   8.048  28.141  0.3083  0.0963  0.0408
72307W        W15219  19.348   8.266  29.003  0.0154  0.3501  0.2391
72308W        W15220  18.499   9.261  28.978  0.0047  0.0850  0.0792
72309W        W15221  17.152  11.033  31.040 -0.1348  0.3571 -0.0377
72310W        W15222  17.588   8.919  30.747 -0.1981  0.0488 -0.3603
72311W        W15223  17.743   8.843  26.100 -0.0355  0.0623  0.0967
72312W        W15224  16.464   8.120  29.086 -0.0502  0.0917  0.0474
72313W        W15225  17.084   6.815  30.952  0.0598  0.1842  0.0290
72314W        W15226  15.104   9.341  31.705 -0.2429 -0.0758 -0.2487
72315W        W15227  17.724  11.800  28.604 -0.0922 -0.1134 -0.1792
72316W        W15228  16.034   8.173  27.784 -0.1190  0.1838  0.1966
72317W        W15229  15.253   9.366  29.493  0.1739 -0.0865  0.3314
72318W        W15230  17.823   7.460  30.249  0.1395 -0.0748 -0.1816
72319W        W15231  16.560   9.442  27.337  0.0214  0.0672  0.3243
72320W        W15232  17.736   8.939  28.160  0.2742  0.1627 -0.0394
72321W        W15233  16.178   9.507  29.675 -0.3506  0.0930  0.2185
72322W        W15234  17.205  10.533  30.337 -0.4793  0.2702 -0.0634
72323W        W15235  17.491  11.854  29.093 -0.0716  0.0299  0.3708
72324W        W15236  17.144   8.503  27.336  0.3636 -0.0720 -0.2974
72325W        W15237  19.444   8.579  28.622  0.0647  0.0811  0.0085
72326W        W15238  16.685   8.703  29.668  0.0501  0.0298 -0.0107
72327W        W15239  18.743   7.399  30.659 -0.2153  0.0062  0.0045
72328W        W15240  15.771   8.808  29.809 -0.0782 -0.1570  0.1296
72329W        W15241  18.567   8.832  27.996  0.0546  0.1785 -0.0563
72330W        W15242  16.567   9.814  30.849  0.4189  0.0128  0.0902
72331W        W15243  16.804   6.748  28.846 -0.1070 -0.1558  0.0978
72332W        W15244  15.793   8.571  27.039  0.0399  0.0583  0.0603
72333W        W15245  17.561   9.087  31.781 -0.1225  0.2486  0.0119
72334W        W15246  18.173   8.979  28.385  0.3883  0.2314 -0.0413
72335W        W15247  16.923  11.695  30.961  0.0230  0.1300  0.2374
72336W        W15248  17.479   8.072  30.569 -0.2887  0.3428 -0.1047
72337W        W15249  18.607   8.394  28.202 -0.0372 -0.2559 -0.2955
72338W        W15250  14.469   9.126  29.036 -0.1328 -0.2232  0.0754
72339W        W15251  16.405   8.289  29.934 -0.1846  0.1161 -0.2635
72340W        W15252  17.813  12.927  30.082  0.1866  0.2583  0.2282
72341W        W15253  16.027   7.130  27.757  0.0399  0.0062 -0.0272
72342W        W15254  17.422  10.236  28.196 -0.2983  0.4146 -0.4003
72343W        W15255  18.962   7.754  28.331  0.3210  0.1977  0.3348
72344W        W15256  14.853  12.074  27.094  0.1628  0.1822 -0.0587
72345W        W15257  16.908   9.959  31.301  0.0118  0.1802 -0.0579
72346W        W15258  16.675  10.481  29.041  0.1894  0.0414  0.1688
72347W        W15259  15.795   7.667  29.676  0.1084 -0.0392 -0.0130
72348W        W15260  18.606  10.855  29.019  0.1640  0.0761  0.1224
72349W        W15261  19.399  10.532  29.447 -0.1917  0.2089 -0.2137
72350W        W15262  18.084   8.421  28.457 -0.0633  0.5830  0.2580
72351W        W15263  15.910   9.903  29.952 -0.0933  0.2622  0.0093
72352W        W15264  15.526  10.107  26.558 -0.3044  0.0247  0.0162
72353W        W15265  18.397   8.065  29.030  0.1178 -0.1564 -0.4594
72354W        W15266  17.045   8.089  29.147  0.0606  0.1750  0.0862
72355W        W15267  17.366  10.713  26.001 -0.0536 -0.2976  0.0004
72356W        W15268  17.996   8.819  30.980 -0.4273  0.0028  0.4710
72357W        W15269  17.331  11.132  29.564  0.0237 -0.3801 -0.2913
72358W        W15270  16.467  11.121  29.774 -0.2436  0.3089  0.1739
72359W        W15271  16.285   8.787  28.471 -0.0194  0.1413  0.1855
72360W        W15272  16.212  10.509  31.342  0.2056 -0.3237 -0.0324
72361W        W15273  14.791   8.445  25.949  0.0288 -0.2543  0.1364
72362W        W15274  17.738  12.410  26.368  0.1563  0.3905  0.1989
72363W        W15275  17.087   8.513  30.561 -0.1140 -0.0504  0.1559
72364W        W15276  16.444   8.567  28.058 -0.0389 -0.0126 -0.0064
72365W        W15277  18.710  11.139  30.044  0.2668  0.0596 -0.0884
72366W        W15278  16.559   7.428  29.962  0.1475  0.0488  0.0376
72367W        W15279  19.870   8.520  28.196  0.1272  0.0664 -0.2210
72368W        W15280  17.925   7.771  27.134 -0.0732 -0.1241 -0.2150
72369W        W15281  16.944   8.825  30.925 -0.0324  0.3380 -0.5773
72370W        W15282  15.567   7.307  27.576 -0.1102 -0.0788  0.0098
72371W        W15283  16.164  10.386  27.186  0.1439 -0.0323  0.0955
72372W        W15284  18.290   8.043  30.323 -0.1144  0.0768 -0.0730
72373W        W15285  16.927   7.831  30.514  0.3533 -0.4572  0.1822
72374W        W15286  15.651   8.343  29.030  0.1447 -0.3038 -0.2243
72375W        W15287  14.729   8.870  28.121 -0.2462 -0.0041  0.0865
72376W        W15288  15.514   6.926  27.915  0.2497 -0.0403  0.0400
72377W        W15289  18.714  11.122  29.527 -0.1274 -0.0244  0.0341
72378W        W15290  15.862   7.123  28.788 -0.0695 -0.1650  0.0413
72379W        W15291  17.276   7.297  28.713  0.4140 -0.7299 -0.1405
72380W        W15292  18.670   9.053  28.441  0.1104 -0.1016 -0.1625
72381W        W15293  18.963  11.579  27.698 -0.1362 -0.0145 -0.1240
72382W        W15294  16.123   8.662  27.578 -0.2783  0.2300 -0.0222
72383W        W15295  18.047   9.790   0.037  0.1967  0.1482  0.0241
72384W        W15296  15.387   9.876  28.214 -0.2229 -0.2071 -0.3767
72385W        W15297  17.207   7.790  30.913 -0.0580  0.1332 -0.2108
72386W        W15298  15.760   9.818  31.105 -0.2543 -0.2391  0.3409
72387W        W15299  15.016   7.144  27.062  0.2433  0.2323 -0.4467
72388W        W15300  17.648   8.959  29.151  0.2048 -0.1806 -0.2081
72389W        W15301  17.705  11.232  27.875 -0.1388 -0.0472  0.1165
72390W        W15302  18.041  10.964  27.579 -0.0518 -0.1753 -0.0416
72391W        W15303  16.486   9.845  29.894  0.1841 -0.2425 -0.0537
72392W        W15304  17.535  12.002  29.588 -0.1670  0.1444 -0.0767
72393W        W15305  14.615   7.468  28.776 -0.0072 -0.1298  0.2685
72394W        W15306  18.047   9.107  29.600 -0.1550 -0.2059 -0.0289
72395W        W15307  16.216  13.199  29.834  0.1634 -0.0520 -0.1294
72396W        W15308  18.547  10.055  28.648  0.4418 -0.2861  0.0026
72397W        W15309  17.780   8.158  30.227  0.4260 -0.2584  0.0464
72398W        W15310  16.763  10.885  28.355 -0.1150 -0.0262  0.1340
72399W        W15311  14.043   7.047  30.425  0.3190 -0.0079  0.2174
72400W        W15312  16.318   8.557  29.268  0.1831 -0.0603 -0.1559
72401W        W15313  17.580  10.962  31.356  0.2175  0.1823 -0.0500
72402W        W15314  16.543   7.163  27.615 -0.0763  0.1756  0.2196
72403W        W15315  17.378   6.897  28.977 -0.0615  0.0882 -0.1098
72404W        W15316  16.663  10.516  27.056  0.1490 -0.3910 -0.0999
72405W        W15317  14.863   8.728  30.180  0.0287  0.1521  0.4356
72406W        W15318  16.135   9.466  26.830 -0.1575 -0.2548 -0.1432
72407W        W15319  16.134   9.102  30.551 -0.0225 -0.2236  0.0990
72408W        W15320  16.121  10.362  29.397 -0.0424  0.0439 -0.1373
72409W        W15321  17.398   9.644  31.308 -0.2860 -0.2295  0.1257
72410W        W15322  16.723   8.744  27.657 -0.0295  0.2572 -0.0365
72411W        W15323  17.794  10.081  28.635  0.2532  0.0301 -0.0644
72412W        W15324  17.357  11.002  30.032  0.0233 -0.1244  0.1305
72413W        W15325  17.063  10.823   0.129  0.1233 -0.3027  0.0806
72414W        W15326  17.859  10.865  29.235  0.4627  0.0037  0.3679
72415W        W15327  17.104   9.364  29.669  0.0223  0.2679 -0.1149
72416W        W15328  15.079   6.657  29.620 -0.1763  0.1932  0.0160
72417W        W15329  16.008   9.731  27.255 -0.2681 -0.0676  0.1071
72418W        W15330  16.953   9.470  26.811  0.0703 -0.0109 -0.1230
72419W        W15331  19.051   8.061  29.870 -0.0451 -0.2844 -0.0106
72420W        W15332  17.404   9.576  30.128 -0.0240 -0.1173  0.3289
72421W        W15333  16.437   5.397  27.610 -0.0621  0.2078 -0.2612
72422W        W15334  15.415  11.342  28.888 -0.0250  0.2499  0.2055
72423W        W15335  17.778   8.714  29.943  0.2502  0.0603 -0.3384
72424W        W15336  17.238   9.248   0.171  0.0544 -0.3453 -0.2875
72425W        W15337  16.616   9.346  31.942  0.0055 -0.1682  0.2373
72426W        W15338  15.100   8.155  29.590  0.1685  0.0733 -0.0194
72427W        W15339  14.553   9.993  29.893  0.2020 -0.1665 -0.1345
72428W        W15340  16.122   9.632  31.927 -0.0608 -0.2648  0.0539
72429W        W15341  15.568  10.967  30.646  0.1338  0.0754  0.1509
72430W        W15342  17.875   9.327  31.279  0.0420  0.1160 -0.1616
72431W        W15343  16.471   6.043  30.373 -0.0934  0.4250 -0.0146
72432W        W15344  16.843   9.443  30.508  0.0483  0.1705 -0.2117
72433W        W15345  18.171  12.915  30.982 -0.0684 -0.0199 -0.0699
72434W        W15346  17.172  10.228   0.463 -0.1049  0.0971  0.0879
72435W        W15347  15.728   6.674  29.354  0.0416  0.0612 -0.2148
72436W        W15348  16.120  10.190  30.956  0.1984 -0.0557 -0.2053
72437W        W15349  16.662   8.270  30.678 -0.2620 -0.1606 -0.5431
72438W        W15350  17.507   8.367  31.605 -0.3293  0.1062  0.0225
72439W        W15351  15.366  11.232  30.298  0.2013  0.2594  0.3351
72440W        W15352  14.903   9.759  30.646  0.1638  0.2731  0.0627
72441W        W15353  16.392  10.666  30.769 -0.3012 -0.0464  0.1176
72442W        W15354  14.408   8.092  30.922  0.1506 -0.1546  0.0004
72443W        W15355  16.495   7.528  31.307  0.1090  0.0635  0.0290
72444W        W15356  16.547   7.064  31.153  0.1355  0.0984 -0.0446
72445W        W15357  15.380  11.952  30.564  0.0759  0.0487 -0.1660
72446W        W15358  16.394   8.616  30.909 -0.2038 -0.3666 -0.2067
72447W        W15359  14.904   8.713  31.590  0.1138 -0.0420 -0.1096
72448W        W15360  17.865   6.955   0.900  0.1368 -0.0154 -0.1634
72449W        W15361  17.245   7.407  31.219 -0.0957  0.0499  0.1684
72450W        W15362  13.905   8.396  31.042 -0.3768 -0.0481  0.0925
72451W        W15363  15.034  10.861  30.629  0.4826 -0.0584 -0.1302
72452W        W15364  15.746   8.470  30.920  0.1882 -0.1231 -0.3234
72453W        W15365  16.551  10.854  31.223 -0.0674  0.0851 -0.1422
72454W        W15366  15.759  10.344   0.362  0.1124  0.2431  0.1557
72455W        W15367  15.246   9.139   0.562 -0.0198  0.0304 -0.1362
72456W        W15368  17.784   8.667  31.851  0.4436  0.1708  0.0221
72457W        W15369  16.884   7.834  31.301 -0.1126  0.0122  0.2103
72458W        W15370  16.119   7.774  31.222  0.3011  0.0258  0.1114
72459W        W15371  14.621   8.134   0.635  0.2618 -0.1182 -0.3098
72460W        W15372  15.091  10.082  29.963  0.2541  0.2318  0.3424
72461W        W15373  16.933  10.320   0.985  0.0296  0.0396 -0.0636
72462W        W15374  17.416   9.460   0.606 -0.1840 -0.4740  0.0286
72463W        W15375  15.932   8.272  31.337  0.3039  0.1192 -0.1698
72464W        W15376  16.335   7.962  31.650  0.1066  0.3445  0.1425
72465W        W15377  16.719   8.003   0.027  0.0726 -0.3503 -0.2648
72466W        W15378  16.294   6.969  29.942 -0.2210  0.1101  0.1878
72467W        W15379  16.251  10.718   0.294 -0.0569  0.3248 -0.0001
72468W        W15380  16.242   6.922  30.446  0.0922 -0.2293 -0.0131
72469W        W15381  16.808   9.432   0.416 -0.2142  0.2182  0.1406
72470W        W15382  15.655   7.949  30.977  0.2681  0.0612  0.0152
72471W        W15383  16.084  11.083  30.801 -0.0255  0.2527  0.0287
72472W        W15384  18.252  11.064  29.734  0.4340  0.1646 -0.2391
72473W        W15385  13.638  10.152  31.035 -0.3113 -0.3236  0.0874
72474W        W15386  17.785  11.486  31.778  0.1941  0.1239  0.1184
72475W        W15387  18.177   7.833  31.519  0.4162 -0.2929 -0.0634
72476W        W15388  15.752   7.417  31.127  0.2106 -0.1207  0.3508
72477W        W15389  16.487   8.192  31.218  0.0947  0.1763  0.1012
72478W        W15390  15.053   7.960   0.339  0.2586  0.0209 -0.2333
72479W        W15391  16.642   8.992  30.466  0.1685 -0.0852  0.0879
72480W        W15392  17.582  11.474  31.322  0.2705  0.1666  0.1005
72481W        W15393  16.498  10.697  30.142  0.1986  0.3424 -0.0497
72482W        W15394  15.686  10.390  30.765  0.0635  0.1878  0.0576
72483W        W15395  15.326   8.375   0.666  0.0301  0.2199  0.4609
72484W        W15396  15.294   8.333  31.531  0.0064 -0.0995  0.2906
72485W        W15397  15.573   9.288  31.203 -0.0651  0.1383  0.1403
72486W        W15398  15.136  10.630  30.204 -0.1727 -0.1061  0.0239
72487W        W15399  16.894   7.509  29.617 -0.2862  0.0881  0.0105
72488W        W15400  17.275  11.051  30.564 -0.1457  0.0491 -0.0762
72489W        W15401  18.793   9.764  31.658  0.1574  0.0036  0.0646
72490W        W15402  16.486   9.491   0.885 -0.2462  0.4043 -0.1738
72491W        W15403  14.123  12.249  18.160 -0.1998 -0.0868 -0.0205
72492W        W15404  14.677  11.253  16.752  0.1577  0.1964 -0.1987
72493W        W15405  17.306  11.455  15.932 -0.0858 -0.0199  0.0936
72494W        W15406  17.216  13.259  15.929  0.0655 -0.0251 -0.0729
72495W        W15407  14.520  10.672  16.955  0.4923 -0.0903  0.0874
72496W        W15408  16.622  12.793  15.350  0.0568  0.0764  0.1548
72497W        W15409  14.735  10.822  17.680  0.1817 -0.1463 -0.1211
72498W        W15410  15.456  13.806  16.798 -0.1935 -0.0658  0.0685
72499W        W15411  18.250  13.375  17.255  0.1189 -0.2986 -0.0010
72500W        W15412  16.004  14.267  15.100 -0.1941  0.1348 -0.1796
72501W        W15413  17.608  12.215  18.037  0.3289 -0.1192  0.0638
72502W        W15414  14.709  13.337  17.315 -0.0018  0.1998  0.1711
72503W        W15415  16.244  11.837  16.005 -0.1332  0.0776 -0.1322
72504W        W15416  13.658  10.463  18.397  0.0786 -0.4281  0.2106
72505W        W15417  16.921  11.878  16.723 -0.0057  0.4034 -0.0748
72506W        W15418  13.336  12.579  17.017  0.0914  0.0399 -0.0092
72507W        W15419  14.881  11.853  18.817 -0.0885  0.0736  0.1136
72508W        W15420  16.607  10.952  16.277  0.0716 -0.1415  0.1348
72509W        W15421  14.670  14.003  16.305 -0.0069  0.1646  0.0581
72510W        W15422  15.360  12.324  17.723  0.1813  0.1897  0.0982
72511W        W15423  16.801  10.254  19.458  0.0561  0.3687 -0.1619
72512W        W15424  17.212  13.160  16.526  0.1025 -0.2771  0.0029
72513W        W15425  14.390  11.185  16.352  0.2230 -0.3472  0.2007
72514W        W15426  14.523  12.502  18.330  0.2998  0.0920  0.3743
72515W        W15427  15.260  11.863  17.350  0.1575 -0.3103  0.0737
72516W        W15428  17.223  11.380  17.727  0.0824  0.0200  0.0828
72517W        W15429  16.042  11.566  17.289 -0.0619  0.0355 -0.0738
72518W        W15430  15.719  13.609  18.491 -0.1915 -0.0878 -0.0568
72519W        W15431  15.676  14.153  16.526  0.2133 -0.0098 -0.3883
72520W        W15432  16.444  11.671  19.407  0.0563  0.0335 -0.0064
72521W        W15433  15.521  13.959  15.620  0.1622  0.0232  0.3858
72522W        W15434  14.258  14.346  16.332  0.1166  0.2350 -0.0098
72523W        W15435  15.378  12.349  17.189  0.2354 -0.1548  0.2130
72524W        W15436  18.264  12.765  15.645  0.0756 -0.3976  0.2156
72525W        W15437  16.532  12.552  17.875 -0.0661  0.0561  0.1804
72526W        W15438  14.764  15.043  18.091 -0.2320 -0.2169 -0.0247
72527W        W15439  15.907  13.278  15.015 -0.0945 -0.0312  0.3246
72528W        W15440  15.765  13.301  18.001 -0.1102  0.1567 -0.0413
72529W        W15441  14.265  14.495  17.379 -0.1812 -0.0347  0.0796
72530W        W15442  15.506  13.084  18.463 -0.1694  0.1342  0.0640
72531W        W15443  16.253  12.620  16.753  0.2699  0.2002 -0.0152
72532W        W15444  14.831  12.792  17.755  0.2292  0.1180 -0.2418
72533W        W15445  16.223  13.403  16.870  0.1261 -0.3574  0.3317
72534W        W15446  15.565  13.921  17.284  0.0856  0.0957 -0.1466
72535W        W15447  15.885  14.364  17.285 -0.0242 -0.1861 -0.4491
72536W        W15448  18.569  10.882  19.425 -0.3192 -0.2912 -0.1428
72537W        W15449  15.776  13.072  14.540  0.1323  0.0875 -0.4032
72538W        W15450  18.151  11.934  15.719 -0.2373 -0.1044  0.0573
72539W        W15451  15.653  11.624  14.390  0.2625 -0.1457  0.1162
72540W        W15452  16.802  10.242  16.827 -0.2681  0.1690  0.1597
72541W        W15453  15.877  10.900  17.784  0.0020 -0.0630  0.1463
72542W        W15454  16.230  14.643  16.400 -0.1585 -0.0146  0.1805
72543W        W15455  15.448  11.063  18.891 -0.1432 -0.1801 -0.0412
72544W        W15456  19.138  13.139  17.396  0.3080 -0.0336  0.0583
72545W        W15457  15.994  12.381  15.848  0.1189 -0.0072  0.1867
72546W        W15458  17.458  11.886  17.628  0.3084  0.1493  0.0425
72547W        W15459  15.030  13.354  19.030 -0.2553  0.3080 -0.0095
72548W        W15460  13.853  12.082  17.729 -0.1637  0.2471 -0.1251
72549W        W15461  16.632  13.680  15.234 -0.3840  0.0827 -0.1431
72550W        W15462  18.598  13.808  15.334  0.2560  0.0274  0.4412
72551W        W15463  15.962  13.885  17.018 -0.1027  0.3158  0.4021
72552W        W15464  15.425  12.937  16.316  0.0637  0.0623  0.0719
72553W        W15465  12.826  12.342  17.443 -0.0202  0.1780  0.1185
72554W        W15466  14.330  11.964  18.575 -0.1721 -0.2126 -0.2530
72555W        W15467  14.094  10.754  16.385  0.1002  0.1609  0.2701
72556W        W15468  17.794  12.533  18.409 -0.2215 -0.1951 -0.0184
72557W        W15469  14.081  13.406  18.311 -0.0792  0.0239 -0.1081
72558W        W15470  16.513  10.503  18.311  0.0919  0.5339 -0.2027
72559W        W15471  16.860  12.310  16.880 -0.0787  0.0243  0.1017
72560W        W15472  16.578  13.342  15.696 -0.1169  0.3436  0.0912
72561W        W15473  17.102  12.904  15.110 -0.0808 -0.4151  0.2400
72562W        W15474  16.183  10.730  17.375 -0.2394  0.1899  0.2979
72563W        W15475  16.988  10.363  17.972  0.2642 -0.2723 -0.0646
72564W        W15476  15.416  12.417  15.640  0.2330 -0.1758 -0.0244
72565W        W15477  15.455  12.491  16.116 -0.0588 -0.0151 -0.1147
72566W        W15478  18.295  14.173  17.670 -0.0739 -0.1155  0.1653
72567W        W15479  16.861  12.967  16.963 -0.0258  0.3602  0.1765
72568W        W15480  12.753  13.717  18.853  0.4111  0.1931 -0.1175
72569W        W15481  14.099  12.856  18.448  0.0753 -0.1562 -0.2108
72570W        W15482  16.193  13.129  17.814  0.0236  0.1160 -0.2759
72571W        W15483  14.696  12.933  15.175 -0.2714  0.2938  0.2009
72572W        W15484  14.300  13.207  17.061 -0.1739 -0.0267 -0.2990
72573W        W15485  14.701  11.922  15.633 -0.2257 -0.0296  0.0592
72574W        W15486  14.447  10.182  18.238 -0.1103 -0.0888  0.0062
72575W        W15487  15.671  14.812  17.038  0.0172  0.3075  0.3255
72576W        W15488  17.268  11.160  17.147 -0.2874  0.0288  0.2940
72577W        W15489  13.814  11.437  19.439 -0.0598  0.1805 -0.2160
72578W        W15490  19.835  11.045  18.103  0.0408 -0.1055  0.0695
72579W        W15491  15.458  12.926  17.194  0.0900  0.2293  0.0473
72580W        W15492  15.585  13.305  16.010 -0.4457  0.1763  0.3344
72581W        W15493  18.067  11.371  16.385  0.0955  0.2548  0.2172
72582W        W15494  15.480  13.123  15.295  0.0402 -0.0575 -0.1764
72583W        W15495  14.313  12.605  17.767 -0.2325  0.0963 -0.0990
72584W        W15496  16.414  12.417  17.270  0.2045  0.0986  0.2762
72585W        W15497  14.132  10.542  19.035 -0.3138  0.0632  0.1413
72586W        W15498  13.960  11.257  17.122 -0.2668 -0.1567  0.1384
72587W        W15499  18.737  10.940  18.916  0.0518 -0.1416  0.0165
72588W        W15500  15.586  11.388  15.733  0.1237 -0.0451  0.0261
72589W        W15501  18.097  12.236  16.788 -0.1278  0.0745  0.3130
72590W        W15502  16.755  11.190  16.681 -0.3746 -0.1859  0.2440
72591W        W15503  13.076  12.418  15.892 -0.2838 -0.1849  0.0579
72592W        W15504  18.500  10.069  18.762  0.2768 -0.2618 -0.2490
72593W        W15505  15.682  13.743  15.183  0.1084  0.1490 -0.2412
72594W        W15506  16.063  13.374  18.803 -0.1556 -0.1698 -0.4736
72595W        W15507  17.756  14.200  15.792 -0.2245  0.3070 -0.2620
72596W        W15508  14.879  10.088  18.457  0.0739  0.1161  0.1171
72597W        W15509  14.880  11.564  15.247 -0.0202  0.0103  0.0097
72598W        W15510  14.198  12.693  17.278 -0.1634  0.3233 -0.0488
72599W        W15511  13.770  12.448  17.488 -0.3529  0.0890  0.0625
72600W        W15512  15.346  11.378  15.236 -0.1193 -0.0254 -0.1440
72601W        W15513  17.411  13.776  15.849 -0.0668 -0.1283 -0.2135
72602W        W15514  16.155  12.731  17.549 -0.1892  0.1831  0.0721
72603W        W15515  14.393  13.707  17.847 -0.2989 -0.0081 -0.2575
72604W        W15516  17.861  10.962  18.737 -0.1515  0.4314  0.0951
72605W        W15517  18.234  11.799  18.587 -0.0355  0.2003  0.2638
72606W        W15518  16.991  10.477  17.497 -0.0414 -0.1142 -0.1998
72607W        W15519  14.098  11.829  15.330  0.1105 -0.2776 -0.1735
72608W        W15520  18.147  13.146  15.955  0.2184  0.0229 -0.1854
72609W        W15521  15.255  13.525  15.638  0.2357  0.1134  0.0190
72610W        W15522  13.019  11.635  15.895 -0.0759  0.0879 -0.2733
72611W        W15523  14.579  12.856  19.096 -0.3278 -0.1065  0.1249
72612W        W15524  19.862  10.836  17.029  0.3081  0.1250 -0.0821
72613W        W15525  13.754  12.516  19.198 -0.0899 -0.2311 -0.0219
72614W        W15526  16.010  10.561  20.630  0.2263  0.1845 -0.0796
72615W        W15527  13.993  12.083  16.320 -0.0756 -0.3758 -0.0429
72616W        W15528  13.020  12.733  18.920 -0.1631  0.1087 -0.0114
72617W        W15529  17.359  10.362  16.539  0.1160 -0.3021  0.1774
72618W        W15530  19.304  11.948  16.577  0.0648  0.0705 -0.5603
72619W        W15531  15.405  12.698  18.127 -0.3095  0.0730 -0.1534
72620W        W15532  17.355  13.223  14.751  0.1066  0.4297  0.1668
72621W        W15533  16.605  11.624  15.551 -0.1248  0.2961 -0.3064
72622W        W15534  16.470  10.697  14.958 -0.2775 -0.0104 -0.1569
72623W        W15535  14.087  12.885  19.029 -0.0563 -0.1185 -0.1770
72624W        W15536  15.868  12.971  16.917 -0.2023 -0.2557 -0.2121
72625W        W15537  16.540  11.552  17.474  0.2406  0.0951 -0.1945
72626W        W15538  15.855  11.168  16.044 -0.0083  0.1404 -0.0392
72627W        W15539  18.223  14.106  16.529 -0.1134 -0.0913  0.0244
72628W        W15540  13.753  12.935  17.348 -0.1970  0.2603 -0.1262
72629W        W15541  15.891  12.767  19.477  0.1675  0.0041 -0.0090
72630W        W15542  16.423  13.557  16.428  0.0543 -0.3079  0.1011
72631W        W15543  14.941  11.820  19.292 -0.0639  0.0954 -0.2601
72632W        W15544  15.671  11.889  15.791 -0.1173 -0.3344  0.3623
72633W        W15545  18.272  11.329  16.811 -0.0351  0.0039 -0.0328
72634W        W15546  15.461  15.031  15.048  0.1130  0.3073  0.2678
72635W        W15547  16.864  10.786  18.569 -0.1961 -0.1109  0.1238
72636W        W15548  15.944  11.246  18.109 -0.1027 -0.0490  0.0476
72637W        W15549  17.060   9.993  19.012  0.0477  0.2034  0.1425
72638W        W15550  18.844   9.789  18.995  0.2105 -0.2562  0.0728
72639W        W15551  16.007  11.627  16.548 -0.1403 -0.2830 -0.1206
72640W        W15552  17.265  12.729  17.175  0.0115 -0.2082  0.2952
72641W        W15553  14.310  12.639  15.110  0.2113 -0.0661 -0.2411
72642W        W15554  16.255  11.100  19.239 -0.0076 -0.2156 -0.1247
72643W        W15555  13.697  12.591  18.082 -0.0853  0.2233 -0.0446
72644W        W15556  14.361  13.898  18.345 -0.2041 -0.2849 -0.2747
72645W        W15557  17.449  12.423  17.514  0.2551  0.0551 -0.1552
72646W        W15558  17.074  12.466  15.248 -0.0280  0.2378 -0.2292
72647W        W15559  15.789  11.796  18.115  0.2459  0.0305 -0.0893
72648W        W15560  15.769  12.743  15.506 -0.1420 -0.3311  0.2360
72649W        W15561  15.923  12.352  17.687  0.1075  0.1973  0.4965
72650W        W15562  15.025  12.219  15.867 -0.3972 -0.1227 -0.2478
72651W        W15563  15.010  11.314  18.901  0.2859 -0.0825  0.5552
72652W        W15564  15.061  12.716  17.347 -0.2596 -0.1886 -0.1292
72653W        W15565  15.944  13.086  16.477 -0.1086  0.0901  0.0625
72654W        W15566  17.813  12.095  17.210 -0.4333  0.0825  0.0823
72655W        W15567  15.892  12.517  17.175 -0.2143 -0.1099 -0.3294
72656W        W15568  17.468  10.151  19.205 -0.1682  0.1893  0.0458
72657W        W15569  12.980  14.354  17.364 -0.3365  0.1204  0.1300
72658W        W15570  13.690  12.505  16.479  0.0957 -0.2082  0.0517
72659W        W15571  14.417  11.185  15.843 -0.2368  0.0486 -0.1178
72660W        W15572  17.204  12.107  16.161 -0.1731 -0.0089 -0.3179
72661W        W15573  17.349  12.730  14.647 -0.0594  0.1230  0.2142
72662W        W15574  14.299   9.660  18.990  0.2605  0.0112  0.1079
72663W        W15575  16.122  10.346  18.759 -0.0558 -0.3193 -0.0207
72664W        W15576  12.626  14.468  18.239 -0.0415 -0.2307 -0.1929
72665W        W15577  16.016  12.686  18.035 -0.1745 -0.2511  0.1646
72666W        W15578  16.791  10.764  15.787  0.1254  0.1990  0.0690
72667W        W15579  16.836  13.808  17.886 -0.1732  0.0791  0.0958
72668W        W15580  15.863  11.829  18.613  0.0060  0.0472  0.2864
72669W        W15581  15.135  12.727  15.296  0.2077 -0.0617  0.0600
72670W        W15582  19.438  10.693  18.210  0.2236 -0.2970 -0.3255
72671W        W15583  13.886  12.405  16.980  0.0770  0.0043 -0.1948
72672W        W15584  15.432  14.332  16.976  0.2253 -0.0020  0.0032
72673W        W15585  16.551  13.824  16.919  0.2692  0.1865 -0.4443
72674W        W15586  16.321  11.376  16.082 -0.0137 -0.1071 -0.1636
72675W        W15587  14.578  12.692  15.640 -0.0100  0.1552 -0.1176
72676W        W15588  14.740  10.608  18.487 -0.1766  0.1527 -0.0696
72677W        W15589  17.356  12.263  17.069 -0.3420  0.2210 -0.1659
72678W        W15590  15.566  11.292  17.688  0.2726 -0.2428 -0.0236
72679W        W15591  15.072  11.475  17.124 -0.0267  0.2168  0.3303
72680W        W15592  17.714  11.326  17.443  0.0044 -0.2237 -0.1023
72681W        W15593  16.052  14.054  18.066 -0.1859  0.1038 -0.0169
72682W        W15594  18.059  12.436  18.830 -0.0470  0.0521 -0.2761
72683W        W15595  14.146  13.779  19.231  0.2196  0.1749  0.1479
72684W        W15596  16.554  10.607  17.726  0.1630  0.0410 -0.0176
72685W        W15597  17.325  12.291  14.851  0.0788  0.0801 -0.0322
72686W        W15598  17.487  11.477  18.347 -0.3785 -0.0886  0.2256
72687W        W15599  14.644  12.848  17.105 -0.0799 -0.1830  0.2185
72688W        W15600  13.337  13.532  17.851  0.1253  0.0034  0.3814
72689W        W15601  13.216  13.403  16.564 -0.2667  0.0480 -0.1656
72690W        W15602  15.075  12.474  18.446 -0.2829  0.2098 -0.1927
72691W        W15603  14.476  13.004  18.116 -0.1903  0.1742 -0.2050
72692W        W15604  14.201  13.108  15.041 -0.2332  0.3530 -0.2571
72693W        W15605  14.835  13.900  18.017 -0.0421  0.1955 -0.2701
72694W        W15606  17.132  10.471  15.691 -0.2420  0.1873 -0.1034
72695W        W15607  16.231  12.991  15.655  0.2696  0.3625  0.0422
72696W        W15608  16.827  11.031  17.378 -0.1108 -0.3279  0.1835
72697W        W15609  18.355  11.110  18.618  0.2080 -0.0187 -0.0661
72698W        W15610  16.529  12.222  15.790  0.0646  0.1548 -0.0530
72699W        W15611  16.778  11.306  19.186  0.2439  0.1576  0.2177
72700W        W15612  15.040  10.402  18.032 -0.0360 -0.2505  0.0678
72701W        W15613  17.120  12.815  15.668  0.1768 -0.0898  0.0781
72702W        W15614  15.553  11.469  18.521 -0.2149 -0.0716 -0.1292
72703W        W15615  15.928  14.486  16.779 -0.0103  0.2225  0.2470
72704W        W15616  15.222  11.400  16.608 -0.0260 -0.3993  0.2893
72705W        W15617  16.315  11.178  17.632  0.2365  0.2668  0.0601
72706W        W15618  15.622  11.532  16.247  0.1281 -0.2025 -0.0819
72707W        W15619  14.918  12.217  17.372 -0.0603 -0.1257 -0.2050
72708W        W15620  16.695  13.398  17.195 -0.1298 -0.1790 -0.1058
72709W        W15621  16.507  13.106  16.597 -0.1318 -0.1980 -0.1915
72710W        W15622  17.933  12.959  16.423 -0.0082 -0.2968  0.0913
72711W        W15623  12.877  12.268  18.395 -0.1239 -0.2075  0.0609
72712W        W15624  16.922  11.569  17.116  0.0719 -0.6323  0.0754
72713W        W15625  17.519  12.735  15.305 -0.0980  0.0460  0.0959
72714W        W15626  15.064  13.006  16.867 -0.0557  0.1103 -0.3779
72715W        W15627  15.347  10.616  19.029 -0.0975 -0.2149  0.1505
72716W        W15628  16.756  12.202  16.384 -0.2849  0.0630  0.1768
72717W        W15629  17.841  11.733  16.740  0.1088  0.5434 -0.2439
72718W        W15630  16.862  11.304  18.734 -0.1648 -0.1363 -0.0389
72719W        W15631  18.569  12.631  17.491  0.1286  0.0579 -0.2012
72720W        W15632  15.231  13.075  17.779 -0.0729  0.0907  0.1853
72721W        W15633  15.401  10.425  20.607  0.1282  0.0308  0.0234
72722W        W15634  18.001  13.049  16.924  0.0761 -0.0965 -0.1789
72723W        W15635  18.221  11.613  15.321  0.0043 -0.1297  0.2224
72724W        W15636  18.588  11.691  17.494 -0.0970 -0.0823  0.0991
72725W        W15637  15.783  12.112  16.266 -0.0824 -0.0091 -0.1742
72726W        W15638  16.450  11.615  16.890  0.0190 -0.0671  0.0218
72727W        W15639  13.763  10.221  18.839 -0.1851 -0.0533  0.1259
72728W        W15640  17.210  12.791  17.747 -0.0688  0.1742 -0.1208
72729W        W15641  15.751  12.233  15.271 -0.0243  0.1254  0.2444
72730W        W15642  17.028  11.187  18.259  0.0917 -0.0168 -0.2042
72731W        W15643  16.272  14.220  14.649  0.1105 -0.2192  0.0645
72732W        W15644  16.786  13.152  16.150  0.0427  0.1286 -0.0017
72733W        W15645  18.054  10.968  17.596  0.0389 -0.3372  0.1943
72734W        W15646  14.404  12.242  17.249 -0.2158  0.1803  0.0985
72735W        W15647  14.597  13.796  18.818  0.0718  0.2377  0.1906
72736W        W15648  15.038  12.618  16.502  0.0506  0.1798  0.0144
72737W        W15649  16.177  11.959  15.557 -0.1114  0.0509  0.0594
72738W        W15650  15.221  13.552  18.094 -0.0768 -0.2119  0.0646
72739W        W15651  18.239  11.810  18.094  0.2260 -0.0086 -0.2059
72740W        W15652  16.042  11.473  15.669 -0.3796  0.0533  0.1643
72741W        W15653  16.848  10.948  17.876 -0.1120 -0.0762 -0.0009
72742W        W15654  15.096  13.673  16.483  0.2813  0.0829 -0.0639
72743W        W15655  15.738   9.996  17.871 -0.1547  0.0383  0.0764
72744W        W15656  13.712  14.930  17.693  0.0868 -0.1239 -0.1415
72745W        W15657  14.619  13.120  18.699  0.0541  0.2971  0.2201
72746W        W15658  14.192  13.626  16.719  0.1096 -0.2690  0.2186
72747W        W15659  16.448  11.190  18.513  0.0981 -0.0615  0.3016
72748W        W15660  15.461  13.418  17.459 -0.0600  0.0720 -0.2010
72749W        W15661  16.657  11.494  17.944 -0.1562  0.1780 -0.1125
72750W        W15662  18.051  10.927  19.499  0.0070 -0.0354  0.0294
72751W        W15663  16.424  12.096  18.654 -0.2005 -0.2622  0.2331
72752W        W15664  14.328  12.297  16.737  0.3827 -0.1900 -0.2416
72753W        W15665  17.918  14.443  17.487  0.1925  0.1165 -0.0545
72754W        W15666  18.232  13.534  16.272 -0.1193  0.2669 -0.1829
72755W        W15667  15.034  14.363  17.946 -0.0677  0.3183  0.0757
72756W        W15668  14.568  12.202  17.789  0.0208 -0.2502  0.1145
72757W        W15669  16.379  13.749  17.845  0.2920 -0.2178  0.2121
72758W        W15670  17.044  14.068  17.100  0.2114  0.1850 -0.0808
72759W        W15671  15.652  10.969  15.148  0.0221  0.0607 -0.0340
72760W        W15672  16.749  12.681  16.497  0.1074 -0.0411  0.0673
72761W        W15673  13.002  13.732  19.299  0.3455 -0.4808 -0.0641
72762W        W15674  13.060  13.821  18.455  0.2224  0.0456 -0.0038
72763W        W15675  14.974  14.217  15.325  0.2956 -0.2844  0.0583
72764W        W15676  16.511  13.480  14.760  0.1694  0.0237 -0.1238
72765W        W15677  15.899  12.550  16.431 -0.3063  0.1727 -0.0468
72766W        W15678  16.191  13.344  16.073 -0.0331 -0.2041  0.0220
72767W        W15679  15.635  12.803  14.955 -0.0414 -0.0270  0.2742
72768W        W15680  15.468  14.652  16.432  0.1230  0.3212 -0.0751
72769W        W15681  14.515  12.257  15.926 -0.3806  0.4214 -0.2013
72770W        W15682  16.398  13.256  15.239 -0.2429  0.2494 -0.2866
72771W        W15683  15.148  13.496  17.032  0.0614 -0.0709 -0.2786
72772W        W15684  17.078  11.812  17.938 -0.0730  0.1380 -0.2267
72773W        W15685  17.732  10.340  15.177  0.0142  0.2112  0.0673
72774W        W15686  16.596  11.997  17.134  0.5112 -0.1296 -0.3494
72775W        W15687  18.722  11.544  17.009  0.0953  0.1135 -0.2485
72776W        W15688  16.116  13.565  17.440  0.1598  0.1768 -0.2794
72777W        W15689  16.228  11.123  16.571  0.1919 -0.0152 -0.2282
72778W        W15690  15.728  11.755  15.355 -0.0409  0.2882 -0.0155
72779W        W15691  14.547  11.485  18.808 -0.3768  0.0609 -0.4294
72780W        W15692  18.899  10.498  17.018 -0.1108  0.2349  0.0992
72781W        W15693  13.644  14.290  19.789  0.0387  0.1791  0.2237
72782W        W15694  17.739  13.966  14.871  0.1907  0.1008 -0.1406
72783W        W15695  13.783  11.897  16.704  0.1495  0.2903 -0.1189
72784W        W15696  15.922  10.772  16.403 -0.0212  0.1393  0.1471
72785W        W15697  18.822  11.456  17.976 -0.1735  0.1867  0.1850
72786W        W15698  16.801  11.875  16.015 -0.0260  0.0709 -0.0876
72787W        W15699  17.075  10.618  16.189  0.1742  0.2842  0.2244
72788W        W15700  15.522  14.945  15.678  0.3280  0.2655  0.1243
72789W        W15701  15.120  14.765  16.790  0.2148  0.0949  0.1063
72790W        W15702  16.151  11.578  17.842  0.1890  0.2682 -0.0718
72791W        W15703  15.151  11.121  15.755  0.2736  0.2573  0.0251
72792W        W15704  17.394  13.718  16.353  0.0405  0.0982  0.3879
72793W        W15705  12.726  12.791  18.395  0.0370 -0.1946 -0.1821
72794W        W15706  18.074  10.848  17.084  0.0491 -0.0267 -0.0802
72795W        W15707  15.777  12.036  17.201  0.2767  0.0889  0.0879
72796W        W15708  17.548  11.618  16.320 -0.0084 -0.0929  0.2334
72797W        W15709  17.540  13.445  17.598 -0.0661  0.1307  0.3008
72798W        W15710  14.831  12.415  16.898  0.2196  0.0246  0.1723
72799W        W15711  15.993  11.886  14.899 -0.0197 -0.1948 -0.2643
72800W        W15712  18.427  12.225  17.724 -0.1390 -0.0951 -0.2678
72801W        W15713  16.852  12.030  15.236  0.1745 -0.0365 -0.0661
72802W        W15714  17.715  14.841  17.248  0.4069  0.0711  0.3560
72803W        W15715  14.304  11.773  17.936 -0.3224  0.0679 -0.2242
72804W        W15716  17.471  12.033  16.620 -0.2652 -0.0705 -0.0171
72805W        W15717  15.002  13.181  16.271  0.1190 -0.1533  0.2446
72806W        W15718  15.132  12.314  19.021  0.0156  0.2600  0.2269
72807W        W15719  15.881  13.119  17.372  0.0293  0.1950  0.0476
72808W        W15720  14.978  10.329  16.815 -0.1016 -0.0754  0.1435
72809W        W15721  16.200  13.802  15.042  0.0685 -0.2104  0.0008
72810W        W15722  17.619  11.127  17.937  0.0690 -0.1932  0.0953
72811W        W15723  14.905  13.871  15.850  0.0592 -0.1895  0.2503
72812W        W15724  18.349  11.808  16.676 -0.0119 -0.2714  0.3945
72813W        W15725  15.234  11.912  16.871 -0.5500  0.0024  0.0540
72814W        W15726  14.739  11.719  17.472 -0.1650 -0.5768  0.3514
72815W        W15727  17.911  13.792  17.725  0.0730  0.1247 -0.0550
72816W        W15728  18.983  12.884  17.774  0.2188  0.0074  0.3748
72817W        W15729  16.559  10.446  17.193  0.0862 -0.3190  0.1133
72818W        W15730  15.293  11.522  18.084  0.2713 -0.1859 -0.1565
72819W        W15731  15.447  12.650  16.782 -0.0114 -0.2533 -0.0608
72820W        W15732  17.789  11.945  18.370  0.0311 -0.0023  0.1863
72821W        W15733  17.942  12.087  17.757  0.0191 -0.0095  0.1450
72822W        W15734  16.297  12.304  16.279 -0.0994  0.0794  0.0907
72823W        W15735  17.768  11.610  17.939 -0.0350 -0.0203 -0.2304
72824W        W15736  15.050  13.291  18.515 -0.1748  0.2391 -0.1153
72825W        W15737  15.191  13.738  19.249  0.1863 -0.1020  0.4116
72826W        W15738  14.520  13.471  16.342 -0.2912  0.0514 -0.1637
72827W        W15739  16.263  12.096  18.041  0.0711  0.2288 -0.2775
72828W        W15740  15.792  11.142  17.299 -0.0087 -0.1211 -0.2225
72829W        W15741  14.683  13.514  16.869 -0.3086  0.0034  0.2780
72830W        W15742  17.723  13.491  15.031  0.0066  0.0066  0.0814
72831W        W15743  17.123  12.592  16.110  0.0007  0.3168  0.0669
72832W        W15744  18.773  12.848  15.585 -0.1263  0.4074 -0.0897
72833W        W15745  14.747  11.837  16.943  0.0519  0.0437 -0.4722
72834W        W15746  17.994  10.938  16.588 -0.1151  0.0210  0.1467
72835W        W15747  17.884  11.541  18.826 -0.4834 -0.1987 -0.0271
72836W        W15748  15.742  12.306  18.176 -0.0782 -0.1252  0.1166
72837W        W15749  15.635  12.284  14.807  0.2207  0.1562  0.1917
72838W        W15750  15.444  13.338  14.837  0.3606  0.4518  0.0426
72839W        W15751  14.712  12.444  18.793  0.2509 -0.1280  0.3652
72840W        W15752  15.295  11.157  19.433 -0.1189 -0.1432  0.3070
72841W        W15753  15.679  11.863  17.637 -0.1585 -0.1530 -0.1489
72842W        W15754  14.443  13.578  15.887 -0.1702  0.0451 -0.0917
72843W        W15755  14.279  11.662  16.523  0.3256 -0.2003 -0.1591
72844W        W15756  16.113  12.023  16.852 -0.2176 -0.1231  0.0808
72845W        W15757  15.995  10.798  16.925  0.1879  0.1167 -0.0010
72846W        W15758  13.937  11.338  18.170  0.0679  0.2867 -0.0949
72847W        W15759  16.186  12.797  15.092 -0.0244 -0.1723 -0.1757
72848W        W15760  18.451  12.887  15.095 -0.1650 -0.0182  0.0158
72849W        W15761  16.395  11.078  17.087  0.1089  0.0765  0.1209
72850W        W15762  17.944  12.606  17.830 -0.1498  0.0172  0.5659
72851W        W15763  15.834  12.850  16.001  0.1539 -0.3652  0.1536
72852W        W15764  16.338  12.073  19.128 -0.0915 -0.0535 -0.1040
72853W        W15765  16.409  10.389  19.195  0.1267  0.3496  0.0432
72854W        W15766  13.329  10.976  17.202  0.0140  0.2374 -0.1681
72855W        W15767  15.460  11.558  19.123  0.0028  0.2157  0.0517
72856W        W15768  16.233  11.956  17.584  0.1205  0.0909 -0.0898
72857W        W15769  16.685  14.480  15.630 -0.3402  0.0020  0.0107
72858W        W15770  15.694  13.406  16.983 -0.1825  0.2927 -0.2581
72859W        W15771  16.374  13.192  19.249 -0.5462  0.0622  0.0987
72860W        W15772  14.351  10.119  18.767  0.0521  0.0258  0.2124
72861W        W15773  15.718  11.190  16.658 -0.0334  0.1212 -0.0841
72862W        W15774  13.732  13.193  18.664 -0.0309 -0.4229 -0.0848
72863W        W15775  18.854  12.534  16.305 -0.0228  0.0871  0.0801
72864W        W15776  19.840   9.754  18.602 -0.1628  0.0466 -0.2496
72865W        W15777  17.058  11.604  16.333  0.2832  0.3724 -0.0122
72866W        W15778  14.978  10.750  19.484 -0.0398  0.1497 -0.0079
72867W        W15779  13.720  12.328  19.725 -0.1036 -0.0476  0.1498
72868W        W15780  18.000  13.266  17.727 -0.0400  0.2660  0.1049
72869W        W15781  16.750  10.065  17.358 -0.1830 -0.1000 -0.0485
72870W        W15782  17.249  10.897  17.583  0.2195 -0.1266 -0.1062
72871W        W15783  17.315  14.205  15.525  0.2348 -0.2401 -0.2157
72872W        W15784  15.063  11.906  17.803  0.2999 -0.2099 -0.0544
72873W        W15785  17.596  11.957  15.780 -0.2085 -0.2798 -0.1528
72874W        W15786  16.036  10.753  18.439  0.0259  0.0111 -0.1862
72875W        W15787  14.948  12.370  17.988  0.3636  0.1054 -0.0725
72876W        W15788  16.331  13.014  17.145 -0.0543 -0.0326  0.2453
72877W        W15789  17.067  11.731  15.594 -0.2662  0.2907  0.0204
72878W        W15790  18.014  12.435  15.988  0.0570  0.0575  0.2719
72879W        W15791  17.547  13.977  17.369  0.1605  0.0817  0.0354
72880W        W15792  17.511  13.323  18.120  0.2624  0.1486 -0.1934
72881W        W15793  15.005  14.799  17.731  0.1688 -0.3737  0.1141
72882W        W15794  18.785  13.386  16.842  0.1010 -0.0483 -0.2330
72883W        W15795  15.274  12.032  16.349  0.2556  0.0573 -0.0723
72884W        W15796  15.577  10.962  18.401 -0.0062  0.2783 -0.0036
72885W        W15797  16.507  11.724  16.385 -0.0901  0.1577 -0.1221
72886W        W15798  18.358  13.168  16.550  0.2473 -0.0889 -0.0353
72887W        W15799  15.048  11.242  17.580 -0.2708 -0.2093  0.1174
72888W        W15800  16.455  11.089  15.609  0.1798  0.3394 -0.1933
72889W        W15801  13.061  14.408  17.899  0.0186  0.0642 -0.2515
72890W        W15802  17.067  12.344  17.874 -0.0470  0.1337 -0.1141
72891W        W15803  15.811  12.919  21.259 -0.0858 -0.1164  0.1041
72892W        W15804  16.255  10.115  20.702 -0.0156 -0.0514 -0.3133
72893W        W15805  16.803   9.027  20.216 -0.0134 -0.1548 -0.0280
72894W        W15806  17.259  12.430  18.316  0.0933  0.0007 -0.1892
72895W        W15807  13.384  10.738  20.655 -0.0875  0.0664  0.1274
72896W        W15808  18.707  12.581  18.561 -0.1962  0.0060 -0.1454
72897W        W15809  15.506  10.448  21.182 -0.2358 -0.1622  0.0355
72898W        W15810  17.601  11.329  19.747 -0.0952 -0.2089  0.3247
72899W        W15811  18.576  12.580  20.924  0.1365 -0.0019  0.0615
72900W        W15812  14.712  12.014  19.779 -0.2857  0.0066  0.0447
72901W        W15813  15.035  10.812  22.186  0.1135 -0.0186  0.0914
72902W        W15814  16.604  13.147  19.939  0.1549 -0.2600 -0.2398
72903W        W15815  15.941  10.263  19.416 -0.1552  0.2909  0.1972
72904W        W15816  14.334   9.183  20.891  0.0980 -0.1665 -0.2372
72905W        W15817  17.836  10.900  21.272  0.0396  0.0492 -0.0448
72906W        W15818  14.155  12.823  20.631 -0.1265 -0.2116  0.1125
72907W        W15819  15.946  11.374  21.276  0.4194 -0.4037  0.3068
72908W        W15820  15.689  12.272  20.501 -0.0460  0.0497 -0.1019
72909W        W15821  16.730  13.520  19.077  0.2280 -0.3696 -0.0241
72910W        W15822  15.632  11.200  21.842 -0.1544 -0.0222 -0.0490
72911W        W15823  15.834  10.390  22.644 -0.4649  0.1143 -0.1396
72912W        W15824  14.994  13.731  19.745 -0.0688  0.1429  0.1281
72913W        W15825  13.005  12.561  19.800  0.5230  0.1387  0.2069
72914W        W15826  14.860  10.538  21.727 -0.1484 -0.0814 -0.0308
72915W        W15827  14.026  12.303  21.687  0.0312 -0.1754  0.0813
72916W        W15828  15.963  11.839  20.475  0.2104 -0.0176 -0.0304
72917W        W15829  17.637  11.890  19.489  0.0485 -0.0527  0.1439
72918W        W15830  15.585  14.000  18.868 -0.0326  0.0252 -0.1681
72919W        W15831  15.480  12.998  19.110  0.2668 -0.2148 -0.1329
72920W        W15832  16.939  11.117  22.052 -0.1994  0.2390 -0.1219
72921W        W15833  13.699  12.574  21.425  0.1269 -0.1267  0.1611
72922W        W15834  12.692  14.449  21.235  0.1465 -0.3045  0.1188
72923W        W15835  17.148  14.062  18.249 -0.2422  0.1936  0.0198
72924W        W15836  18.483  12.822  19.621 -0.0493  0.1470 -0.1892
72925W        W15837  18.197  12.638  21.261 -0.1979 -0.0182  0.0012
72926W        W15838  14.162  14.418  21.095  0.1080  0.0309 -0.3604
72927W        W15839  13.954  13.377  19.613 -0.0394  0.0232 -0.1251
72928W        W15840  17.186  12.889  20.599 -0.0219  0.2719 -0.0899
72929W        W15841  13.957  12.067  21.088 -0.2508  0.1727 -0.1183
72930W        W15842  17.882  12.154  21.226  0.1038 -0.1595 -0.0388
72931W        W15843  16.885  11.553  20.070 -0.0673 -0.0517  0.2367
72932W        W15844  12.667  13.430  19.591  0.0208  0.1232 -0.3625
72933W        W15845  16.708  12.130  19.422 -0.0043  0.0336  0.1062
72934W        W15846  14.787  13.628  21.492  0.2039 -0.3217 -0.4163
72935W        W15847  14.371  12.491  21.271 -0.2639  0.1639  0.0612
72936W        W15848  16.967  10.536  23.239  0.1042  0.3823 -0.0845
72937W        W15849  15.142  12.368  19.761 -0.1538 -0.2986 -0.2003
72938W        W15850  17.647  10.501  19.531  0.0074 -0.3250 -0.0144
72939W        W15851  14.738  11.296  19.357  0.1504  0.2336 -0.3488
72940W        W15852  17.135  10.633  19.404  0.0824  0.1544 -0.6303
72941W        W15853  14.770   9.390  20.711  0.2306 -0.2384 -0.2006
72942W        W15854  15.612  12.395  19.709 -0.0253  0.0066  0.0506
72943W        W15855  14.416  11.033  20.150  0.3572  0.2672 -0.2300
72944W        W15856  20.211  10.895  23.923  0.4090  0.4051 -0.1384
72945W        W15857  14.507  10.768  19.651 -0.1471 -0.0047 -0.0892
72946W        W15858  16.311  11.667  20.836 -0.0594 -0.2452  0.0888
72947W        W15859  13.596  13.141  21.067  0.0905  0.0993 -0.0925
72948W        W15860  13.704  11.124  20.789 -0.2589 -0.5516  0.1969
72949W        W15861  18.039  13.284  19.057 -0.1765 -0.1331 -0.1671
72950W        W15862  18.512  13.371  19.851  0.2341 -0.0877  0.0667
72951W        W15863  17.216  13.302  18.843 -0.2104  0.0670  0.2048
72952W        W15864  13.608  12.017  19.346  0.3149  0.2740  0.0438
72953W        W15865  15.306  12.014  21.897  0.3964  0.0504 -0.2620
72954W        W15866  14.830  11.768  22.058 -0.1847  0.0982  0.0313
72955W        W15867  14.966  10.292  18.920  0.3224  0.1956 -0.0901
72956W        W15868  18.450  11.635  22.606 -0.0170  0.1679 -0.0103
72957W        W15869  14.786  11.018  21.793  0.1131  0.1836  0.2816
72958W        W15870  18.182  10.033  21.742  0.3151 -0.0388  0.2084
72959W        W15871  16.181  12.723  20.889  0.1377 -0.1810  0.0298
72960W        W15872  17.931  13.012  21.487  0.1009 -0.0230 -0.2408
72961W        W15873  17.907  11.379  19.242  0.1741  0.0080 -0.1888
72962W        W15874  17.457  10.790  20.817 -0.0043 -0.1509 -0.0385
72963W        W15875  17.256  11.137  21.664 -0.2000  0.0269  0.1284
72964W        W15876  15.246  12.535  20.220 -0.0326 -0.2072  0.0732
72965W        W15877  15.317  11.468  20.163 -0.3130  0.2431  0.2149
72966W        W15878  18.509  12.532  20.387 -0.0070  0.0830 -0.0053
72967W        W15879  18.746  11.472  18.588  0.0412 -0.1733 -0.0857
72968W        W15880  14.918  11.701  21.167  0.0149  0.2590 -0.1437
72969W        W15881  16.105  11.910  21.305  0.0419  0.1489 -0.1790
72970W        W15882  16.314  12.075  19.776  0.2346  0.0131 -0.1086
72971W        W15883  15.350  14.421  18.727  0.3271  0.1591 -0.2758
72972W        W15884  13.796  10.521  20.836 -0.0201 -0.1327 -0.0713
72973W        W15885  14.183  12.428  18.767  0.0830  0.1768 -0.2663
72974W        W15886  15.484  10.686  21.809 -0.1407  0.2206 -0.0904
72975W        W15887  17.122  12.399  20.598 -0.1589  0.1082 -0.1287
72976W        W15888  17.798  10.385  20.485  0.1822  0.1242  0.2535
72977W        W15889  14.370  10.710  21.704 -0.0260 -0.1671  0.1027
72978W        W15890  18.058   9.943  21.257 -0.0780  0.0171 -0.3527
72979W        W15891  13.734  10.460  20.281  0.1619  0.2577 -0.1844
72980W        W15892  19.150  12.820  18.717  0.3719  0.1593 -0.2256
72981W        W15893  17.420  12.926  19.179 -0.1629 -0.1447 -0.0364
72982W        W15894  17.514  13.036  18.494  0.0273  0.4392 -0.0801
72983W        W15895  14.591  11.577  21.645  0.1450  0.0548 -0.0645
72984W        W15896  14.030  11.523  20.815 -0.0240  0.0659 -0.5181
72985W        W15897  15.484  11.474  23.548 -0.3831 -0.0299 -0.0993
72986W        W15898  14.729  10.678  21.151  0.2340  0.2369 -0.4587
72987W        W15899  18.021  11.902  22.458 -0.1859 -0.0085  0.1397
72988W        W15900  13.975  12.047  19.003 -0.0123  0.1289  0.0678
72989W        W15901  17.319   8.274  20.960  0.2376  0.1015  0.2536
72990W        W15902  15.886  11.863  19.101 -0.4590  0.0758  0.5947
72991W        W15903  15.164  12.664  20.729  0.0298  0.0022 -0.0363
72992W        W15904  15.906  11.785  23.272 -0.0979  0.4575  0.3086
72993W        W15905  16.942  12.213  18.726 -0.2004 -0.3161  0.3222
72994W        W15906  17.599  12.417  19.241 -0.1359 -0.0484 -0.2319
72995W        W15907  17.059  13.340  18.364 -0.2653 -0.3826  0.0074
72996W        W15908  15.261  11.227  20.562 -0.1724 -0.1263 -0.2491
72997W        W15909  12.838  11.833  20.067  0.0726  0.1534  0.1540
72998W        W15910  13.957  13.820  19.746 -0.0113 -0.2130  0.0004
72999W        W15911  15.366  11.985  20.018  0.1059  0.1527 -0.2849
73000W        W15912  16.690  10.828  20.061  0.1373 -0.1796 -0.2354
73001W        W15913  15.999  12.297  18.840  0.2477  0.0507  0.1203
73002W        W15914  15.219  12.272  22.382  0.0436 -0.0641  0.2876
73003W        W15915  15.913   9.469  21.999 -0.0096 -0.0016 -0.0889
73004W        W15916  19.328  11.420  22.684 -0.3743 -0.2462 -0.0708
73005W        W15917  17.457  11.634  20.507 -0.1347 -0.1206 -0.2342
73006W        W15918  16.069  10.091  19.846 -0.1619 -0.1888  0.2132
73007W        W15919  16.034  12.824  19.001  0.3077 -0.1168 -0.2411
73008W        W15920  13.357  13.948  20.192 -0.0738  0.0923 -0.1796
73009W        W15921  14.262   9.706  21.425  0.1796  0.3461  0.2176
73010W        W15922  15.531  12.583  18.631 -0.0971 -0.0728  0.3085
73011W        W15923  17.886  11.743  20.847 -0.0476 -0.3578  0.2006
73012W        W15924  14.169  11.444  23.410 -0.0018 -0.0310 -0.0612
73013W        W15925  16.836  12.100  19.938 -0.2612 -0.2972 -0.0050
73014W        W15926  14.977  11.208  19.810 -0.2128  0.0699  0.2598
73015W        W15927  15.575  13.269  21.520  0.1715  0.0650 -0.0270
73016W        W15928  16.286  10.778  21.288 -0.1224  0.3150 -0.1588
73017W        W15929  19.063  11.917  19.944 -0.1905 -0.1893  0.1344
73018W        W15930  16.734  12.659  19.907 -0.0720  0.1582 -0.0884
73019W        W15931  18.008  12.569  20.258  0.1784 -0.0366 -0.1761
73020W        W15932  17.434  10.929  19.654  0.2129  0.3443  0.2902
73021W        W15933  18.025  12.744  19.270  0.1427  0.3949  0.0004
73022W        W15934  14.638  12.980  21.779  0.1213 -0.1786 -0.1295
73023W        W15935  16.666  12.579  18.401  0.1006 -0.2093 -0.0911
73024W        W15936  16.568  14.036  19.313  0.0727 -0.0978  0.1448
73025W        W15937  15.789  11.594  20.050 -0.0636  0.0312  0.1422
73026W        W15938  18.722  13.954  17.475  0.2255 -0.1623 -0.0261
73027W        W15939  15.738  12.783  20.621  0.1577  0.0981 -0.4624
73028W        W15940  18.101  12.461  22.608  0.3105  0.2593  0.2826
73029W        W15941  16.375  12.709  19.368 -0.0349 -0.0175 -0.1201
73030W        W15942  15.425  11.227  21.302 -0.1929  0.0682  0.1395
73031W        W15943  14.369  12.463  19.722 -0.0951  0.1295  0.0633
73032W        W15944  16.672  11.360  21.733  0.1253  0.3203 -0.0829
73033W        W15945  12.849  14.121  20.324 -0.1902  0.2585 -0.1317
73034W        W15946  17.273  12.033  22.005 -0.0869 -0.0237 -0.0194
73035W        W15947  16.227  10.827  20.202  0.1190 -0.0206  0.1615
73036W        W15948  15.647  11.355  22.579  0.1010 -0.0452 -0.0742
73037W        W15949  19.130  10.688  23.106  0.1163 -0.1068  0.2400
73038W        W15950  16.773  11.804  19.006  0.0816  0.0434 -0.0073
73039W        W15951  17.019  11.760  21.375 -0.2149 -0.0974  0.1493
73040W        W15952  14.479  11.937  20.330  0.0269  0.1480  0.0285
73041W        W15953  15.918  11.814  22.769 -0.2264  0.0444 -0.0050
73042W        W15954  14.226  11.058  20.707  0.2123  0.4609  0.0154
73043W        W15955  14.091  13.388  21.251  0.0228  0.0622 -0.0488
73044W        W15956  17.876  11.829  22.959  0.3080 -0.1484 -0.0408
73045W        W15957  15.298  13.168  20.004 -0.1046 -0.0941 -0.1011
73046W        W15958  16.236  12.217  21.870 -0.0339 -0.0487 -0.0267
73047W        W15959  16.393  11.548  18.883  0.2174  0.4345  0.3095
73048W        W15960  15.131  12.888  18.751 -0.1395 -0.1291 -0.1642
73049W        W15961  16.620  13.395  18.026 -0.2250  0.2666 -0.2268
73050W        W15962  13.725  11.566  20.353  0.1919  0.5546  0.1827
73051W        W15963  15.884  13.273  19.334 -0.0272  0.0763  0.3199
73052W        W15964  15.493  12.053  19.394  0.2804  0.0569 -0.0308
73053W        W15965  15.737  11.925  20.928  0.0820 -0.0629  0.6292
73054W        W15966  13.672  13.087  20.347  0.3968 -0.0137 -0.0250
73055W        W15967  17.649  11.253  20.775 -0.1069  0.0027 -0.2550
73056W        W15968  13.889  14.258  20.225 -0.2420 -0.1073  0.0591
73057W        W15969  14.024  11.929  20.497  0.1412 -0.1836  0.0247
73058W        W15970  14.510  11.858  20.871  0.2797  0.1015 -0.3114
73059W        W15971  17.542   9.152  20.956  0.1394 -0.0264 -0.1137
73060W        W15972  17.417  12.575  18.765  0.1816  0.2608  0.1224
73061W        W15973  15.239  12.517  21.923 -0.0407 -0.0846 -0.0629
73062W        W15974  16.262  10.392  21.598  0.0299  0.2825  0.2634
73063W        W15975  13.055  13.715  20.818 -0.0866 -0.3804 -0.0455
73064W        W15976  18.359  12.109  21.113 -0.2756 -0.1632  0.0408
73065W        W15977  17.369  11.441  18.842 -0.2013 -0.0217  0.4972
73066W        W15978  18.095  12.536  20.796 -0.0202  0.3046  0.0663
73067W        W15979  16.648  12.437  20.922 -0.2395 -0.2086  0.0278
73068W        W15980  13.166  11.322  19.028  0.0453  0.0483  0.0268
73069W        W15981  17.076  11.676  20.889  0.2996 -0.0322  0.0263
73070W        W15982  14.459  11.957  19.103 -0.2659  0.0204  0.0356
73071W        W15983  13.848  12.543  20.925  0.3340  0.0135  0.1048
73072W        W15984  17.424  13.385  19.334 -0.2117 -0.0978  0.0432
73073W        W15985  14.951  11.590  20.674 -0.1789  0.0022  0.2754
73074W        W15986  16.007  11.730  19.597  0.2009  0.2076  0.2772
73075W        W15987  16.101  11.308  22.704 -0.1791  0.0483  0.1877
73076W        W15988  19.023  12.490  20.619  0.2350 -0.1662  0.0597
73077W        W15989  16.188  11.403  20.390  0.1786 -0.0060  0.0153
73078W        W15990  15.471  11.558  19.643 -0.2425 -0.2391 -0.0038
73079W        W15991  16.388  11.794  20.205 -0.0865 -0.0350  0.0626
73080W        W15992  17.567  12.279  19.947  0.0927 -0.0886 -0.1247
73081W        W15993  17.194  12.710  22.849  0.1661 -0.0498 -0.3512
73082W        W15994  16.609  12.572  20.453 -0.5415 -0.0092  0.0594
73083W        W15995  14.746  11.130  20.804  0.3601 -0.1046  0.4124
73084W        W15996  18.831  13.489  18.839  0.2361  0.0044 -0.0552
73085W        W15997  18.989  12.278  21.119  0.1619  0.1369  0.1324
73086W        W15998  13.911  12.743  19.944  0.0080 -0.0740  0.2180
73087W        W15999  15.264  12.097  20.774  0.1007  0.2634  0.0897
73088W        W16000  14.218  11.918  19.569 -0.0795  0.0246  0.3346
73089W        W16001  15.703  10.953  20.902 -0.0831 -0.1532 -0.1604
73090W        W16002  15.348  13.084  20.502 -0.0352 -0.2091  0.0194
73091W        W16003  14.248  12.894  19.539  0.3770 -0.0950  0.0458
73092W        W16004  12.883  13.222  21.930  0.1914  0.1078  0.0320
73093W        W16005  18.846  10.233  17.560 -0.0596  0.0373  0.0897
73094W        W16006  16.724  13.028  17.534 -0.0910  0.0326 -0.0501
73095W        W16007  16.342   9.484  20.926 -0.1510 -0.0469  0.1155
73096W        W16008  18.481  12.055  22.322  0.1057 -0.0803  0.1042
73097W        W16009  19.214  11.705  18.440  0.0022 -0.1309 -0.0393
73098W        W16010  16.987  10.727  23.734 -0.0754  0.2534 -0.0435
73099W        W16011  13.780  11.350  19.910  0.1387  0.1044  0.2211
73100W        W16012  17.754  13.068  19.468 -0.0081 -0.2861  0.1179
73101W        W16013  14.441  10.915  23.291  0.2084 -0.0195 -0.0426
73102W        W16014  17.261  13.127  19.739 -0.0375  0.0845 -0.1551
73103W        W16015  14.952  11.554  22.948  0.3062  0.1208  0.3012
73104W        W16016  16.175   9.554  19.981  0.3494 -0.2581 -0.0381
73105W        W16017  14.875  11.124  20.273  0.1726 -0.0202 -0.0477
73106W        W16018  16.614  11.955  21.095 -0.0975  0.0103  0.1202
73107W        W16019  18.528  11.785  19.784 -0.0720  0.0960 -0.1306
73108W        W16020  15.053  12.806  19.259 -0.0426  0.0286 -0.0352
73109W        W16021  17.562  10.939  19.188  0.1521  0.1401  0.0352
73110W        W16022  14.840  12.220  21.109  0.0670 -0.0429 -0.0426
73111W        W16023  17.274  11.353  19.353  0.1291  0.1054  0.1326
73112W        W16024  15.579  12.504  19.165  0.2303 -0.2545  0.5433
73113W        W16025  14.141  13.326  20.168  0.0971  0.1122  0.2075
73114W        W16026  15.483   9.928  21.211  0.3209  0.0316 -0.0986
73115W        W16027  17.393  12.681  19.596 -0.2074 -0.0247 -0.0486
73116W        W16028  16.291  10.295  20.204  0.0069 -0.0587 -0.1117
73117W        W16029  17.303  10.745  22.281 -0.1650 -0.1464 -0.3265
73118W        W16030  16.909  11.831  22.270  0.1651  0.1767 -0.1920
73119W        W16031  15.760  10.818  21.447  0.4932 -0.4404  0.1613
73120W        W16032  13.893  10.957  23.439 -0.4269  0.2579 -0.1056
73121W        W16033  17.284  13.670  20.064 -0.3022  0.0494  0.2038
73122W        W16034  19.243  11.114  18.997  0.0455 -0.0739 -0.1538
73123W        W16035  17.015  10.666  21.801 -0.0795 -0.0775  0.1995
73124W        W16036  15.847  11.300  19.331 -0.0007  0.1144 -0.2935
73125W        W16037  16.219  12.521  18.462 -0.0844 -0.0172  0.0686
73126W        W16038  14.262  11.243  21.654 -0.0995  0.1212  0.1959
73127W        W16039  17.776  12.003  21.781 -0.1173  0.0662  0.0113
73128W        W16040  16.041   9.637  19.502  0.2004  0.0098  0.0256
73129W        W16041  16.241  11.596  21.766  0.1717  0.0204 -0.0607
73130W        W16042  16.724  14.349  17.441 -0.1050 -0.1036  0.0031
73131W        W16043  17.083  10.956  19.064 -0.1178 -0.0901 -0.2658
73132W        W16044  16.766  11.156  19.722 -0.0460  0.0882 -0.0992
73133W        W16045  13.453  10.855  19.980  0.1876  0.1001  0.3011
73134W        W16046  14.777  13.270  20.048 -0.1322 -0.3908  0.3540
73135W        W16047  16.228  11.648  18.335 -0.1173 -0.0584 -0.3926
73136W        W16048  14.325  12.401  19.254 -0.0279 -0.0587 -0.0668
73137W        W16049  16.683  11.677  18.434 -0.0867 -0.1189 -0.0058
73138W        W16050  17.589  12.565  21.103 -0.4364 -0.3536 -0.2740
73139W        W16051  16.207   9.903  19.032 -0.3281  0.1744 -0.0347
73140W        W16052  18.236  12.171  21.642 -0.2220  0.1384  0.1880
73141W        W16053  14.445  13.229  20.738 -0.0273 -0.1026  0.0532
73142W        W16054  15.765  11.421  20.645 -0.0504  0.0288 -0.0764
73143W        W16055  15.267  12.024  21.297  0.2041  0.1279 -0.0028
73144W        W16056  13.582  12.912  21.951 -0.0323  0.1973 -0.0123
73145W        W16057  15.921  13.255  20.702 -0.1353 -0.0165  0.2473
73146W        W16058  16.311  10.128  22.584  0.1215 -0.2597  0.2736
73147W        W16059  17.189  11.556  21.914  0.3618  0.2232  0.0650
73148W        W16060  16.644  12.017  20.582 -0.1430 -0.0378 -0.0221
73149W        W16061  18.876  12.090  23.414  0.0942  0.3551 -0.0613
73150W        W16062  16.825  13.585  20.069 -0.1598 -0.1134 -0.0177
73151W        W16063  17.014  13.117  20.204 -0.0936 -0.5270 -0.1440
73152W        W16064  17.452  12.099  20.835  0.1425  0.1057  0.0379
73153W        W16065  16.949  13.485  19.517 -0.3699  0.5884  0.1246
73154W        W16066  14.867  12.839  19.782 -0.0530 -0.1130  0.0656
73155W        W16067  15.128  10.343  22.163  0.0558  0.0850  0.0191
73156W        W16068  16.492  11.534  22.257 -0.0875  0.0974  0.0914
73157W        W16069  16.227  12.555  19.885  0.1972  0.2795 -0.1826
73158W        W16070  13.504  12.013  20.156  0.3961 -0.0351  0.2751
73159W        W16071  15.166  13.755  18.695 -0.1073  0.2822  0.3065
73160W        W16072  12.435  12.996  21.748 -0.1373  0.0503 -0.0657
73161W        W16073  13.440  13.496  20.486  0.0235 -0.0672 -0.1304
73162W        W16074  13.757  12.948  19.523  0.0896  0.0233  0.0015
73163W        W16075  17.096  13.406  17.801 -0.0765  0.0339  0.1157
73164W        W16076  14.820  12.382  19.423  0.0975  0.1390 -0.1859
73165W        W16077  17.999  11.602  19.768 -0.1729  0.3044 -0.1129
73166W        W16078  14.414  11.487  20.507  0.0615 -0.0470 -0.2905
73167W        W16079  13.674  13.535  19.994 -0.1731 -0.1378  0.2553
73168W        W16080  13.344  13.890  19.666  0.0551  0.0062 -0.0298
73169W        W16081  16.749  12.111  18.194  0.2156  0.3313  0.0556
73170W        W16082  14.428  14.015  19.761  0.1864 -0.1101 -0.1104
73171W        W16083  18.331  12.766  21.758 -0.0380 -0.3679 -0.1810
73172W        W16084  17.128  10.764  20.448 -0.1105  0.1249 -0.0550
73173W        W16085  18.318  11.466  20.127 -0.3781 -0.3707 -0.2986
73174W        W16086  18.441  12.353  19.321  0.0221 -0.1049  0.1235
73175W        W16087  16.875  13.046  19.187  0.0053 -0.1916  0.1776
73176W        W16088  15.125  11.576  21.607 -0.2015  0.3943  0.3363
73177W        W16089  14.947  10.854  18.978  0.4507  0.0569  0.1384
73178W        W16090  14.927  12.095  21.640  0.2095  0.0125  0.1939
73179W        W16091  17.211   9.919  22.940  0.1791 -0.2200  0.0092
73180W        W16092  14.325  13.766  20.765 -0.0987  0.0033  0.1385
73181W        W16093  18.095  13.467  19.563 -0.0274 -0.1025 -0.0049
73182W        W16094  13.439  12.006  21.203 -0.0403 -0.3015 -0.1420
73183W        W16095  16.258  12.238  20.304 -0.1061 -0.2951  0.1838
73184W        W16096  18.029  10.123  20.775  0.0138  0.0180 -0.1877
73185W        W16097  15.453  12.083  18.772 -0.1454  0.0768 -0.2026
73186W        W16098  16.163  12.199  20.808 -0.1464  0.2784  0.1104
73187W        W16099  15.233  15.361  18.624  0.2318  0.0353  0.2149
73188W        W16100  15.735  13.786  19.302  0.0791 -0.1217 -0.6735
73189W        W16101  15.836  13.517  19.870  0.3041 -0.0251  0.0468
73190W        W16102  14.226  11.240  19.676 -0.1497  0.1495  0.2292
73191W        W16103  18.616  11.103  20.373 -0.3049 -0.0198  0.0333
73192W        W16104  15.450  11.997  23.381 -0.0391  0.2332  0.0059
73193W        W16105  18.105  10.396  22.165  0.0193  0.2099 -0.2230
73194W        W16106  13.141  12.968  19.426 -0.2904 -0.2160 -0.1503
73195W        W16107  17.246  11.895  19.084  0.0758 -0.1186 -0.1803
73196W        W16108  17.287  12.049  20.290 -0.3299  0.0131  0.1485
73197W        W16109  14.529  11.395  22.137 -0.0705 -0.1369  0.1624
73198W        W16110  15.682  10.293  18.960 -0.0279 -0.0286  0.2651
73199W        W16111  19.351  12.090  23.320  0.0279  0.1674  0.0611
73200W        W16112  16.693  12.032  17.708 -0.1169  0.1898 -0.2678
73201W        W16113  15.160  10.782  21.436  0.2010  0.1223  0.1766
73202W        W16114  16.595  11.002  20.542  0.0479  0.2764 -0.1156
73203W        W16115  14.663  11.541  20.071  0.1696  0.1660 -0.2037
73204W        W16116  16.452  12.435  22.356 -0.0120 -0.0205 -0.0466
73205W        W16117  17.824  13.469  20.707  0.0522  0.0924  0.1925
73206W        W16118  14.145  10.638  20.458 -0.1252  0.1547  0.0417
73207W        W16119  18.828  11.906  17.921 -0.0893 -0.2688  0.2421
73208W        W16120  17.040  12.185  21.077 -0.0151 -0.0795  0.0808
73209W        W16121  14.147  14.835  19.558 -0.1013  0.1481 -0.0680
73210W        W16122  17.559  12.061  18.792 -0.3880 -0.0825  0.2800
73211W        W16123  18.136  12.074  20.084  0.2754 -0.0849  0.1798
73212W        W16124  12.940  10.841  21.660  0.0249  0.2841  0.2777
73213W        W16125  16.470  12.507  18.947  0.0260  0.1443 -0.2523
73214W        W16126  18.455  13.211  19.298 -0.0694 -0.1457 -0.1840
73215W        W16127  17.277  11.357  21.205  0.0932 -0.1204  0.2124
73216W        W16128  14.406  12.027  21.367  0.3274 -0.0618  0.2127
73217W        W16129  13.946  14.712  19.983 -0.2024 -0.0496  0.1735
73218W        W16130  18.535  11.654  21.870  0.0710 -0.0756  0.1473
73219W        W16131  17.511  11.276  22.198  0.0121 -0.3076  0.3093
73220W        W16132  14.248  14.579  19.073 -0.0058  0.1095  0.3534
73221W        W16133  17.237   9.528  21.677  0.1277  0.3677 -0.1571
73222W        W16134  16.281  13.539  19.668  0.0639  0.4347 -0.2099
73223W        W16135  14.567  13.184  21.293 -0.0693  0.0416  0.2643
73224W        W16136  14.889  13.235  19.500 -0.0690 -0.0275 -0.0413
73225W        W16137  15.593  10.933  22.323 -0.1732 -0.0165 -0.1138
73226W        W16138  15.873  12.110  20.022 -0.0076 -0.1239  0.1251
73227W        W16139  16.179  13.514  18.265 -0.2226 -0.0057 -0.1450
73228W        W16140  18.056  13.757  19.156  0.0891  0.1590 -0.2391
73229W        W16141  17.509  11.745  20.014 -0.4520  0.2019 -0.1400
73230W        W16142  15.957  12.230  19.415  0.0782  0.0004  0.1505
73231W        W16143  15.756  11.105  20.328 -0.0430  0.2775 -0.0631
73232W        W16144  17.979   9.719  19.901  0.0817 -0.0043  0.1646
73233W        W16145  17.819  10.019  19.535 -0.1846 -0.1663  0.0224
73234W        W16146  15.485  11.798  20.461  0.0381 -0.3541  0.1068
73235W        W16147  14.359  12.489  20.288  0.0318 -0.0393  0.2760
73236W        W16148  14.956  12.866  18.218  0.1362  0.1574  0.0178
73237W        W16149  15.606  11.701  21.418 -0.0439  0.2197  0.1073
73238W        W16150  15.281  10.252  21.568  0.0213  0.0298  0.1221
73239W        W16151  15.086  11.659  22.451  0.2396 -0.0638  0.0819
73240W        W16152  15.374  11.606  20.911  0.2383 -0.2797  0.0099
73241W        W16153  13.952  10.726  19.911 -0.0672  0.0660 -0.1851
73242W        W16154  18.851  12.521  19.051 -0.1648 -0.0870  0.3403
73243W        W16155  13.399  11.176  20.344  0.2790  0.0807  0.0591
73244W        W16156  13.457  10.024  20.207  0.0205  0.0478  0.0696
73245W        W16157  16.989  12.861  18.738  0.2723  0.3428 -0.5534
73246W        W16158  17.787  13.467  18.673  0.2674  0.1796  0.0568
73247W        W16159  15.965  11.324  18.846 -0.1116  0.0630  0.3450
73248W        W16160  14.809  12.396  20.089 -0.0137 -0.2913  0.2393
73249W        W16161  16.518  11.943  22.631  0.0576 -0.3796  0.0981
73250W        W16162  16.622  11.755  23.099 -0.0049  0.5395  0.1428
73251W        W16163  13.136  10.859  18.814 -0.1489 -0.2341  0.0247
73252W        W16164  16.245  12.405  21.296 -0.0480  0.0358  0.0371
73253W        W16165  16.481  12.945  18.784  0.0636 -0.1670 -0.0355
73254W        W16166  17.565  12.820  18.073  0.0072 -0.1946  0.0366
73255W        W16167  16.168  11.119  21.694  0.1173 -0.1716  0.2359
73256W        W16168  13.626  10.142  23.249  0.4754 -0.3721  0.0665
73257W        W16169  16.913  12.952  18.092 -0.0854  0.0850  0.1640
73258W        W16170  15.367  12.650  21.372  0.1233 -0.0127  0.0420
73259W        W16171  19.546  13.444  19.840 -0.1106  0.2528 -0.1951
73260W        W16172  17.549  11.803  21.367 -0.0997 -0.3272 -0.0457
73261W        W16173  17.169  11.171  20.056  0.0723  0.2298  0.0698
73262W        W16174  13.517  10.608  23.479 -0.0245  0.0336 -0.1324
73263W        W16175  15.769  11.857  21.893 -0.1017  0.2033  0.3822
73264W        W16176  18.619  12.445  21.399  0.2276 -0.4373 -0.2081
73265W        W16177  15.878   9.945  20.336 -0.0696  0.0469 -0.4423
73266W        W16178  15.297  10.122  19.251  0.1060 -0.2221  0.0313
73267W        W16179  16.600  14.240  17.921 -0.0504  0.1603 -0.1992
73268W        W16180  14.408  11.416  21.152 -0.1656  0.0918 -0.0415
73269W        W16181  16.904  11.661  19.558 -0.1365  0.1594 -0.2170
73270W        W16182  16.645  11.876  21.845  0.0885  0.2140  0.0770
73271W        W16183  15.401  12.874  19.585 -0.1292  0.1011 -0.1152
73272W        W16184  18.440  11.023  22.577 -0.1585  0.2478 -0.1901
73273W        W16185  15.587  11.020  19.848 -0.1794 -0.2012  0.3003
73274W        W16186  19.362  11.245  18.196 -0.0042 -0.0013  0.1658
73275W        W16187  16.239  13.523  20.245  0.4678  0.1379 -0.1131
73276W        W16188  15.757  12.683  20.106  0.0484 -0.2330 -0.0617
73277W        W16189  17.577  12.906  20.073 -0.1346 -0.1810  0.4606
73278W        W16190  13.408  10.875  21.667 -0.0588  0.0014 -0.0302
73279W        W16191  16.035  13.050  19.857 -0.1391 -0.1652  0.0343
73280W        W16192  14.238  12.306  20.713  0.2704 -0.1117 -0.2801
73281W        W16193  16.253  10.947  19.719  0.1925  0.0331  0.1819
73282W        W16194  13.704  10.903  21.225  0.0453 -0.1151  0.0137
73283W        W16195  15.322  10.802  20.285  0.1463 -0.0030 -0.1957
73284W        W16196  14.711  12.905  20.462 -0.2678  0.0731  0.1998
73285W        W16197  17.796  12.090  20.429  0.0910 -0.0268 -0.1233
73286W        W16198  15.724  11.393  25.654  0.2089 -0.2135 -0.1104
73287W        W16199  15.979  11.565  22.265 -0.1517 -0.1879 -0.0613
73288W        W16200  17.760  10.339  22.604  0.3599 -0.1642 -0.0203
73289W        W16201  17.853  10.825  23.510  0.0642  0.1891 -0.0239
73290W        W16202  16.767  11.387  23.466  0.3041 -0.0564 -0.0808
73291W        W16203  15.244  11.363  26.443 -0.1112 -0.2150  0.0148
73292W        W16204  18.103  12.765  23.005  0.2115  0.1751 -0.0836
73293W        W16205  19.545  13.367  23.657  0.1840  0.0014  0.1560
73294W        W16206  16.121  11.083  22.233 -0.1286 -0.1887  0.1951
73295W        W16207  15.872  11.795  25.900 -0.0064 -0.3086  0.1035
73296W        W16208  14.985  11.549  23.822 -0.2721 -0.0371 -0.4673
73297W        W16209  15.387  10.565  26.276  0.1491 -0.0565 -0.4790
73298W        W16210  17.435  11.796  25.919  0.1277 -0.0955  0.1814
73299W        W16211  13.523  11.734  23.797  0.1568 -0.0703 -0.0865
73300W        W16212  13.849  11.262  24.742 -0.0897  0.1423 -0.0295
73301W        W16213  15.745  11.306  24.050 -0.2761 -0.0270 -0.1245
73302W        W16214  17.001  12.614  25.406 -0.2495  0.2803 -0.0512
73303W        W16215  16.722  11.024  26.953 -0.1002 -0.0916  0.1232
73304W        W16216  15.600  12.323  22.790 -0.1576 -0.3142 -0.1679
73305W        W16217  14.179  11.677  25.616  0.0623 -0.1994 -0.1896
73306W        W16218  16.027  12.272  25.821 -0.0064  0.4579 -0.0037
73307W        W16219  16.374  11.054  26.373  0.1385 -0.2366  0.3995
73308W        W16220  18.007  12.871  23.895  0.0969 -0.2624 -0.2555
73309W        W16221  16.516  14.252  22.363 -0.0118  0.1129  0.1496
73310W        W16222  17.293  12.686  26.396  0.0378 -0.1692 -0.0539
73311W        W16223  14.773  12.856  23.142 -0.0482 -0.0259 -0.1524
73312W        W16224  12.167  13.356  23.527  0.1577 -0.0227 -0.0086
73313W        W16225  15.212  13.603  22.330  0.0500  0.0589  0.0940
73314W        W16226  18.300  12.756  23.471 -0.1764  0.3386  0.1201
73315W        W16227  13.909  12.995  22.494 -0.1266 -0.0871 -0.1504
73316W        W16228  16.113  13.883  23.740  0.3286 -0.1046  0.0036
73317W        W16229  15.853  12.263  23.942  0.1576  0.1514  0.0342
73318W        W16230  17.336  12.566  21.845  0.1824  0.3727  0.3158
73319W        W16231  16.282  13.211  21.108 -0.2168 -0.1907 -0.0694
73320W        W16232  17.387  12.701  23.847  0.0486  0.0213  0.0908
73321W        W16233  15.487  12.897  25.652 -0.0666  0.0401 -0.1620
73322W        W16234  14.611  12.250  23.008 -0.0964  0.0958  0.0225
73323W        W16235  18.178  12.620  26.559  0.0347 -0.2155  0.1618
73324W        W16236  15.049  13.128  21.477  0.0671  0.2299  0.2830
73325W        W16237  18.689  11.265  22.187 -0.2289 -0.1809 -0.3039
73326W        W16238  15.735  11.281  23.169  0.0502 -0.1318  0.0150
73327W        W16239  17.343  10.893  23.175 -0.1012 -0.0153 -0.1941
73328W        W16240  16.419  11.887  23.542  0.1035  0.1013  0.0815
73329W        W16241  16.040  11.257  26.708  0.2187  0.0562 -0.1198
73330W        W16242  18.353  12.139  23.411 -0.1342  0.1386 -0.0825
73331W        W16243  17.585  11.392  22.764  0.0801 -0.0232 -0.1167
73332W        W16244  16.574  12.500  25.786 -0.1061  0.0844  0.2023
73333W        W16245  14.296  11.991  23.456 -0.2150 -0.2653  0.2123
73334W        W16246  15.482  11.721  22.960 -0.0308 -0.3833 -0.2404
73335W        W16247  17.840  13.825  22.562 -0.0005 -0.5209  0.1835
73336W        W16248  15.105  12.752  23.518 -0.3643  0.1153  0.2196
73337W        W16249  15.585  12.186  25.630  0.1453  0.1738  0.0690
73338W        W16250  14.924  13.138  25.363  0.1105  0.0349 -0.1192
73339W        W16251  15.178   8.683  22.940  0.0488 -0.1431 -0.2132
73340W        W16252  17.915  12.832  24.740  0.2407 -0.0026 -0.0885
73341W        W16253  15.037  12.795  24.654  0.0623  0.0737 -0.2001
73342W        W16254  17.950  11.662  25.711 -0.0041 -0.3701  0.2373
73343W        W16255  14.810  11.869  23.355 -0.2678 -0.1840 -0.0341
73344W        W16256  18.778  11.955  22.743 -0.1268  0.0033 -0.0108
73345W        W16257  16.851  12.290  21.995  0.0393 -0.0152 -0.1356
73346W        W16258  18.037   9.857  25.270  0.1752 -0.0566 -0.3050
73347W        W16259  18.827  11.749  26.501 -0.2397  0.0216  0.1060
73348W        W16260  15.658  12.349  22.137  0.1342 -0.3278  0.4130
73349W        W16261  15.440  13.734  21.483 -0.1570 -0.4423 -0.1258
73350W        W16262  17.811  12.652  23.463 -0.1152  0.1528  0.1096
73351W        W16263  18.644  12.822  22.173  0.3017 -0.2042 -0.1024
73352W        W16264  15.088  13.879  22.993 -0.3564 -0.0173  0.2008
73353W        W16265  17.039  11.623  26.304  0.0239  0.2049 -0.0503
73354W        W16266  17.033  12.122  25.436  0.0892  0.2033 -0.3074
73355W        W16267  14.197  14.719  20.405 -0.1614  0.0321  0.0384
73356W        W16268  13.722  13.241  25.742 -0.1295 -0.2158 -0.1074
73357W        W16269  13.946  13.249  22.105 -0.1815 -0.1717  0.1441
73358W        W16270  15.038  11.757  25.815 -0.3073 -0.0157 -0.2133
73359W        W16271  15.301  12.236  24.178  0.3574 -0.3911 -0.0582
73360W        W16272  17.770  11.357  23.763  0.3767 -0.1782  0.0131
73361W        W16273  14.907  12.954  25.817 -0.1509 -0.0296 -0.2113
73362W        W16274  16.314  10.285  25.053 -0.0126  0.2554 -0.1638
73363W        W16275  14.173  11.754  25.061  0.0342  0.0486 -0.1427
73364W        W16276  18.667  13.427  22.384 -0.0070  0.1958 -0.3040
73365W        W16277  18.233  11.371  24.075 -0.2771  0.4562  0.1118
73366W        W16278  17.064  12.677  21.214  0.0642  0.1829 -0.2057
73367W        W16279  13.456  10.924  25.406 -0.0651 -0.1091 -0.0714
73368W        W16280  15.443  11.752  23.973  0.1015  0.3616  0.1113
73369W        W16281  16.208  12.872  25.711 -0.0932  0.0379 -0.0044
73370W        W16282  15.840  11.270  25.146  0.2707 -0.0797 -0.0847
73371W        W16283  17.650  12.984  26.072  0.3120 -0.1766  0.0141
73372W        W16284  14.599  12.407  24.419 -0.0375  0.1056  0.2010
73373W        W16285  18.237  11.214  23.613 -0.0435  0.0658  0.0838
73374W        W16286  17.455  10.590  25.044  0.1144  0.1152  0.1254
73375W        W16287  13.731  12.103  24.126 -0.0898 -0.0145  0.0217
73376W        W16288  17.912  11.982  26.084 -0.1956  0.3856 -0.2398
73377W        W16289  16.131  13.586  21.759  0.0876 -0.1616  0.6100
73378W        W16290  18.540  12.702  23.946  0.0519  0.0342 -0.1562
73379W        W16291  14.567  12.518  26.736 -0.1591 -0.0862  0.3633
73380W        W16292  16.520  11.815  25.157 -0.1935  0.2269  0.2963
73381W        W16293  15.255  10.596  23.977 -0.0508  0.1658  0.2104
73382W        W16294  18.491  14.689  22.362  0.2199  0.1094  0.0879
73383W        W16295  15.119  12.066  23.724  0.0321 -0.1418  0.1879
73384W        W16296  15.046  12.974  23.951  0.2144 -0.1175 -0.4851
73385W        W16297  18.339  13.255  25.494  0.0138 -0.0342 -0.1694
73386W        W16298  18.064  12.045  24.291 -0.0254 -0.2627  0.1287
73387W        W16299  17.622  12.725  22.563 -0.0245 -0.1142 -0.0169
73388W        W16300  15.118  11.023  24.709  0.0067 -0.1426 -0.3437
73389W        W16301  18.549  13.881  21.306  0.1988  0.2906  0.0450
73390W        W16302  14.591  12.786  20.948 -0.0592 -0.1531 -0.3392
73391W        W16303  14.167  12.798  21.696  0.1944 -0.2865  0.0769
73392W        W16304  16.090  13.388  22.234 -0.0252  0.3742 -0.1884
73393W        W16305  17.876  11.351  25.251  0.2166 -0.3830  0.1986
73394W        W16306  14.405  12.907  25.689 -0.3800  0.0309 -0.0401
73395W        W16307  17.699  12.753  26.718  0.1454  0.1259  0.0274
73396W        W16308  16.592  11.454  24.782  0.2133  0.1546 -0.0484
73397W        W16309  17.444  10.941  23.824 -0.1070 -0.0163 -0.0006
73398W        W16310  17.791  10.516  23.910  0.0553 -0.1539  0.0007
73399W        W16311  17.734  12.073  25.502 -0.2685 -0.1115  0.1068
73400W        W16312  18.615  12.404  21.918 -0.4184  0.1414  0.0469
73401W        W16313  18.318  10.874  22.114  0.2133 -0.1411  0.1796
73402W        W16314  16.453  10.641  23.139  0.2175  0.1365 -0.1637
73403W        W16315  14.536  13.019  26.660 -0.1322 -0.0109 -0.0447
73404W        W16316  17.184  12.302  24.652 -0.0357  0.0109 -0.0264
73405W        W16317  16.857  12.341  22.595 -0.1703 -0.1088 -0.1480
73406W        W16318  19.078  13.137  22.279  0.1931 -0.1909  0.0867
73407W        W16319  13.837  12.056  25.421  0.1050  0.0873 -0.0697
73408W        W16320  16.791  12.881  25.041 -0.1204 -0.0140 -0.1724
73409W        W16321  16.957  12.816  21.675 -0.0609 -0.3208  0.1559
73410W        W16322  16.654  11.381  26.584  0.1371 -0.0248 -0.3384
73411W        W16323  15.677  12.415  21.016 -0.0199  0.1346 -0.2322
73412W        W16324  15.477  10.357  25.771 -0.0809 -0.2955 -0.1577
73413W        W16325  13.595  14.683  21.381  0.1534 -0.1768  0.0987
73414W        W16326  18.423  10.072  27.667 -0.3500  0.1355 -0.1204
73415W        W16327  18.794  10.667  26.962  0.3413  0.1635 -0.1223
73416W        W16328  17.028  10.124  27.661 -0.4623  0.0978  0.1291
73417W        W16329  17.505  14.186  26.663 -0.0201  0.0394 -0.0057
73418W        W16330  18.572  12.487  22.531  0.1074  0.0965 -0.2623
73419W        W16331  17.001  12.350  24.177  0.1979  0.2900  0.0934
73420W        W16332  15.497  12.429  23.527 -0.1921  0.0900  0.2218
73421W        W16333  15.183  11.275  26.950  0.5026  0.0066  0.2169
73422W        W16334  15.984  11.349  26.164  0.1915  0.1170 -0.4181
73423W        W16335  14.274  13.698  23.903  0.1406 -0.0917 -0.2359
73424W        W16336  17.449  11.747  22.380 -0.0576  0.2169  0.1948
73425W        W16337  15.369  12.656  26.239  0.0297 -0.0954 -0.1788
73426W        W16338  17.021  11.821  22.714 -0.0367 -0.4191 -0.0995
73427W        W16339  14.941  13.178  20.820  0.0646 -0.0913 -0.2266
73428W        W16340  17.206  12.106  19.532 -0.3270 -0.3952 -0.0012
73429W        W16341  16.952  11.076  26.186  0.1214  0.3370 -0.0693
73430W        W16342  17.124  12.242  23.105 -0.1265 -0.2619  0.1280
73431W        W16343  15.688  12.179  21.491  0.0590 -0.1207  0.2986
73432W        W16344  17.309  11.680  27.842 -0.1060 -0.1999 -0.1042
73433W        W16345  15.549  12.705  22.492 -0.0502 -0.1878 -0.1277
73434W        W16346  18.204  10.268  27.205 -0.0368  0.2661 -0.0825
73435W        W16347  13.713  13.050  24.402 -0.1044  0.1400  0.1255
73436W        W16348  15.519  11.878  22.327 -0.0313 -0.0020 -0.1530
73437W        W16349  14.227  11.910  21.882  0.2275 -0.0076 -0.0055
73438W        W16350  17.136  10.782  24.278 -0.0548 -0.2728 -0.0652
73439W        W16351  18.979  12.805  22.683  0.1243  0.2866  0.0700
73440W        W16352  14.726  12.528  25.467 -0.0713  0.0985  0.0518
73441W        W16353  17.485  11.747  23.301 -0.0499 -0.0353 -0.0488
73442W        W16354  14.289  13.914  23.310 -0.0490  0.4344 -0.2405
73443W        W16355  16.725  11.196  25.697 -0.1723  0.3805 -0.1588
73444W        W16356  17.408  12.121  22.666 -0.0731 -0.0930 -0.2353
73445W        W16357  17.178  12.632  22.286 -0.0817 -0.1037  0.0956
73446W        W16358  16.468  11.543  26.083  0.2476 -0.0235  0.2139
73447W        W16359  16.506  11.528  23.995 -0.0276 -0.1963 -0.1563
73448W        W16360  18.737  11.215  25.607  0.1852 -0.1894  0.3578
73449W        W16361  14.841  10.606  24.516 -0.0380 -0.0803 -0.6342
73450W        W16362  14.528  12.715  22.743  0.3825  0.1307 -0.2171
73451W        W16363  15.030  12.284  23.260 -0.0120 -0.1936  0.1443
73452W        W16364  14.047  12.322  23.134 -0.1567  0.2522  0.1874
73453W        W16365  16.391  11.729  27.449  0.1675  0.0172  0.0026
73454W        W16366  17.637  12.318  24.073  0.1827 -0.1439 -0.1538
73455W        W16367  16.528  12.023  25.640  0.1108 -0.0111 -0.0008
73456W        W16368  15.466  10.111  24.712  0.0924 -0.1618 -0.1076
73457W        W16369  15.758  10.873  24.824  0.0494  0.0963  0.0404
73458W        W16370  18.464  13.088  24.710 -0.0503 -0.0003 -0.0731
73459W        W16371  17.408  12.090  25.037 -0.2686  0.0952 -0.4973
73460W        W16372  14.926  13.326  24.810  0.2778  0.3466 -0.2280
73461W        W16373  16.029  10.689  25.208  0.1490 -0.1013  0.0688
73462W        W16374  18.742  13.359  20.996  0.0020 -0.0785 -0.2883
73463W        W16375  17.428  13.342  25.842 -0.0009  0.0805 -0.1171
73464W        W16376  13.742  11.304  23.697 -0.0660  0.0149  0.0619
73465W        W16377  15.174  11.933  25.044 -0.2036 -0.0205  0.2436
73466W        W16378  15.069  12.580  22.751  0.2024 -0.1661 -0.4048
73467W        W16379  16.861  11.683  24.368 -0.0606  0.0110 -0.1902
73468W        W16380  14.348  13.323  23.334  0.0641 -0.1536  0.0440
73469W        W16381  14.498  11.776  23.027  0.3083  0.0214 -0.0103
73470W        W16382  14.871  12.488  25.000  0.1999 -0.0310  0.1702
73471W        W16383  17.340  11.418  24.373  0.2114  0.0329 -0.2163
73472W        W16384  17.615  12.605  20.612  0.1198  0.1187  0.0159
73473W        W16385  16.619  10.817  24.313 -0.0225 -0.2373  0.0689
73474W        W16386  18.827  11.231  26.413 -0.1673  0.2080 -0.3284
73475W        W16387  18.337  10.717  23.417  0.1476 -0.0132  0.5390
73476W        W16388  16.390  12.044  26.144  0.1365 -0.4049  0.0444
73477W        W16389  16.695  10.203  26.578 -0.2464  0.0674  0.3067
73478W        W16390  19.094  13.753  22.308  0.1871 -0.1114  0.1998
73479W        W16391  13.181  11.333  25.336 -0.2397 -0.1306 -0.1397
73480W        W16392  16.773  13.395  24.193 -0.0186 -0.5033 -0.3607
73481W        W16393  15.310  13.678  26.506 -0.1717 -0.1806 -0.0692
73482W        W16394  17.151  11.417  23.072 -0.1830  0.1388  0.0835
73483W        W16395  15.147  11.175  23.253 -0.2755 -0.0471 -0.2367
73484W        W16396  16.243  12.073  24.169  0.4078  0.1619  0.3027
73485W        W16397  17.387  12.221  23.582 -0.2824 -0.2195  0.0528
73486W        W16398  15.907  12.316  23.284  0.3337 -0.2207  0.0816
73487W        W16399  16.494  11.937  24.606  0.1770  0.0798 -0.1430
73488W        W16400  14.224  12.451  25.442 -0.1873 -0.0432  0.3409
73489W        W16401  16.830  12.440  23.526  0.0333  0.3129  0.1830
73490W        W16402  17.619  12.325  22.208  0.2440 -0.1093 -0.1258
73491W        W16403  15.782  11.761  24.343 -0.1421  0.0956  0.3493
73492W        W16404  14.880  11.617  26.734 -0.1535  0.4812  0.2723
73493W        W16405  17.844  12.128  23.391 -0.0733 -0.1807  0.0328
73494W        W16406  17.379  10.218  25.919 -0.1682  0.3053  0.0808
73495W        W16407  17.642  11.827  26.505 -0.0575 -0.1075  0.0866
73496W        W16408  18.287  12.001  25.770  0.1486 -0.1523 -0.0036
73497W        W16409  16.911  12.018  26.036  0.1527  0.1239 -0.3012
73498W        W16410  14.235  11.261  27.037  0.0296  0.0482 -0.0604
73499W        W16411  17.262  11.436  23.617  0.1596 -0.0517 -0.1737
73500W        W16412  17.868  11.497  26.159  0.0315  0.1150  0.1721
73501W        W16413  17.354  11.540  24.850  0.2456  0.1989  0.0630
73502W        W16414  16.443  11.417  21.288  0.0049 -0.0733 -0.0924
73503W        W16415  15.477  12.664  23.933  0.1208  0.0100  0.1641
73504W        W16416  18.150  12.482  25.563 -0.2737 -0.1040 -0.1728
73505W        W16417  15.082  12.019  22.818  0.0859  0.2439 -0.1575
73506W        W16418  16.751  12.414  26.288  0.0500 -0.3630 -0.2578
73507W        W16419  17.692  12.360  22.984  0.1441 -0.2545  0.0584
73508W        W16420  17.202  11.930  24.001 -0.1938 -0.0897 -0.3760
73509W        W16421  14.879  11.895  24.250  0.0795 -0.2366  0.0928
73510W        W16422  14.372  13.625  24.477 -0.0527  0.2561  0.0016
73511W        W16423  14.743  12.092  22.463  0.0412  0.0846 -0.1462
73512W        W16424  16.715  12.334  21.497 -0.1098 -0.2118 -0.3334
73513W        W16425  17.726  12.314  24.555 -0.1271 -0.0924  0.4701
73514W        W16426  19.341  13.546  24.514  0.0841 -0.3530  0.0854
73515W        W16427  14.227  10.933  21.257 -0.0015 -0.0070  0.0936
73516W        W16428  19.533  11.978  26.308  0.1028 -0.1864 -0.2203
73517W        W16429  14.100  12.547  22.628  0.2292  0.1382  0.1324
73518W        W16430  15.616   9.546  24.343  0.0732 -0.2312 -0.0170
73519W        W16431  15.355  13.591  23.391  0.2247 -0.2069  0.0456
73520W        W16432  14.503  12.508  25.921  0.0237 -0.1360 -0.0872
73521W        W16433  15.625  13.241  22.525  0.0346 -0.3284  0.1336
73522W        W16434  16.176  11.036  25.547 -0.0652 -0.0423  0.0831
73523W        W16435  16.957  11.105  25.254 -0.0942 -0.1780  0.0353
73524W        W16436  16.913  11.198  24.478  0.1172 -0.1579 -0.0858
73525W        W16437  18.146  11.164  25.791  0.0184 -0.0908  0.2779
73526W        W16438  16.729  12.463  24.767 -0.2305 -0.0568  0.0196
73527W        W16439  14.345  12.264  22.224 -0.0589 -0.1085 -0.2441
73528W        W16440  17.755  13.644  23.804 -0.0344  0.0862  0.1376
73529W        W16441  18.588  11.705  24.267  0.1238  0.2387  0.0638
73530W        W16442  16.061  12.469  22.742 -0.1166 -0.0596 -0.2254
73531W        W16443  14.578  11.960  26.508 -0.1872 -0.0594  0.0257
73532W        W16444  16.549  12.421  25.269 -0.0308  0.1938 -0.0874
73533W        W16445  17.770  12.850  22.037  0.0146  0.0163  0.0277
73534W        W16446  15.368  11.042  23.718 -0.0167  0.1276 -0.0421
73535W        W16447  15.892  12.599  21.653 -0.1691 -0.2838  0.0070
73536W        W16448  14.599  14.296  25.106  0.0111  0.3662  0.0560
73537W        W16449  15.260  11.424  25.457 -0.1344  0.1958  0.1365
73538W        W16450  15.143  13.504  21.808  0.0738  0.4122  0.1908
73539W        W16451  17.838  13.313  21.907  0.0520 -0.1264 -0.2318
73540W        W16452  17.388  12.260  21.475  0.1303 -0.4252 -0.1277
73541W        W16453  16.961  10.772  24.828  0.0875 -0.0751 -0.1301
73542W        W16454  14.293  12.929  22.220  0.3375  0.1395 -0.0870
73543W        W16455  12.969  13.283  22.430  0.0748  0.2006  0.0476
73544W        W16456  17.877  12.521  21.657 -0.3337 -0.0043  0.0887
73545W        W16457  15.088  13.988  21.992 -0.1403 -0.0456  0.0310
73546W        W16458  18.123  12.936  25.172  0.0030 -0.1127  0.2191
73547W        W16459  16.296  11.105  23.175 -0.1360 -0.3377 -0.0845
73548W        W16460  17.234  11.310  25.679 -0.0138  0.4388  0.3412
73549W        W16461  18.793  10.601  24.788 -0.0709  0.1680  0.1846
73550W        W16462  16.976  13.027  24.602  0.3460 -0.0978  0.4285
73551W        W16463  16.883  11.624  25.427 -0.2949 -0.1463 -0.1240
73552W        W16464  15.968  11.767  23.813 -0.0840 -0.0139  0.0738
73553W        W16465  14.115  11.748  27.489 -0.2179  0.1320  0.0734
73554W        W16466  18.509  11.269  27.527  0.0533  0.0535 -0.1489
73555W        W16467  12.630  12.765  25.007  0.0312  0.2429 -0.0454
73556W        W16468  14.240  11.031  23.816 -0.2323 -0.0476 -0.0054
73557W        W16469  15.864  12.381  24.481 -0.1068 -0.2094  0.5120
73558W        W16470  18.284  11.799  26.291  0.4181 -0.1825  0.0685
73559W        W16471  16.188  11.075  20.799 -0.3310 -0.0336 -0.1098
73560W        W16472  16.534  12.241  23.175  0.0896  0.1339 -0.0389
73561W        W16473  16.205  13.463  23.989 -0.0468 -0.2472 -0.0354
73562W        W16474  14.463  11.478  23.853 -0.4256  0.1615 -0.0147
73563W        W16475  18.183  12.631  24.363 -0.0241  0.0938 -0.0548
73564W        W16476  16.037  11.984  25.367  0.1105  0.2368  0.1872
73565W        W16477  18.237  11.715  28.331 -0.0705  0.0062 -0.0402
73566W        W16478  14.552  11.239  24.292 -0.1786 -0.0097 -0.0133
73567W        W16479  17.887  10.864  25.232 -0.0578 -0.0774 -0.2867
73568W        W16480  16.911  11.954  23.537  0.0317 -0.1420 -0.1914
73569W        W16481  15.316  12.286  24.697  0.2843 -0.0580  0.1429
73570W        W16482  17.466  12.912  21.455  0.1405  0.1624 -0.2163
73571W        W16483  17.601  13.050  25.117 -0.0016 -0.0198  0.0059
73572W        W16484  16.593  10.355  23.524  0.2272 -0.2083  0.2060
73573W        W16485  14.325  11.806  24.245 -0.0533  0.3549 -0.1672
73574W        W16486  16.644  11.382  22.760 -0.0220 -0.0829  0.2558
73575W        W16487  14.580  13.023  23.755 -0.1649 -0.0844 -0.0588
73576W        W16488  15.756  12.639  25.950  0.1236  0.0234 -0.0182
73577W        W16489  17.407  12.718  24.821 -0.0289  0.2958  0.0236
73578W        W16490  14.897  10.849  25.571 -0.2805 -0.1862  0.1034
73579W        W16491  18.212  11.706  24.622  0.0163  0.0487  0.2917
73580W        W16492  16.310  13.554  20.742 -0.0228 -0.0868  0.0478
73581W        W16493  18.018  11.594  23.365 -0.1452 -0.0213  0.4269
73582W        W16494  18.403  13.524  23.442 -0.0306  0.0584  0.0571
73583W        W16495  15.268  11.865  26.436 -0.0998 -0.2339  0.0449
73584W        W16496  17.429  13.921  22.787 -0.3084  0.0668 -0.0822
73585W        W16497  18.902  12.900  24.969 -0.0417  0.0589 -0.3026
73586W        W16498  16.228  11.588  24.396  0.0159 -0.0638 -0.1203
73587W        W16499  14.597  12.452  23.460  0.3566 -0.3483  0.1894
73588W        W16500  14.628  13.786  21.959 -0.0743  0.1678 -0.0471
73589W        W16501  18.731  12.020  26.069  0.1194  0.0890  0.1272
73590W        W16502  17.320  12.155  26.323 -0.2972  0.0790 -0.3038
73591W        W16503  16.233  12.865  20.378  0.2930  0.1323 -0.0412
73592W        W16504  18.313  10.803  27.184  0.0863 -0.4158  0.0569
73593W        W16505  17.433  12.723  24.335 -0.0483  0.1387  0.0136
73594W        W16506  13.977  12.562  22.115 -0.2443 -0.1428  0.1337
73595W        W16507  16.105  12.269  24.944 -0.1175 -0.2624 -0.1017
73596W        W16508  15.649  13.473  21.975 -0.1202 -0.2288 -0.3413
73597W        W16509  18.816  11.338  22.754 -0.0445  0.1556  0.0597
73598W        W16510  16.628  10.796  25.453  0.0411  0.1602 -0.2074
73599W        W16511  18.776  12.979  23.124  0.2904  0.3420 -0.2048
73600W        W16512  17.362  11.021  24.641 -0.0090 -0.1713 -0.1927
73601W        W16513  18.897  11.468  25.021  0.1812 -0.3679  0.2071
73602W        W16514  16.014  10.768  24.409  0.0582  0.4213 -0.3213
73603W        W16515  16.073  11.603  24.898 -0.1493  0.3389  0.2325
73604W        W16516  15.131  11.279  24.271  0.2573 -0.1814 -0.0167
73605W        W16517  15.213  13.033  22.214 -0.1243 -0.2049 -0.0172
73606W        W16518  16.295  10.448  26.541 -0.2845  0.1686 -0.2059
73607W        W16519  12.896  12.124  26.488  0.2535 -0.1199  0.2386
73608W        W16520  14.555  12.479  21.806 -0.2783  0.0655  0.0382
73609W        W16521  15.294  10.568  24.672 -0.1274  0.3363  0.0232
73610W        W16522  19.835  12.136  22.514  0.0631  0.1397 -0.2330
73611W        W16523  16.730  10.697  26.485  0.0142  0.0284  0.1892
73612W        W16524  14.691  11.367  23.408 -0.0494  0.0036  0.1643
73613W        W16525  16.372  12.667  21.787 -0.2517  0.2112 -0.0296
73614W        W16526  18.506  12.974  22.687 -0.2293  0.1071  0.2993
73615W        W16527  14.882  11.169  25.157  0.3366 -0.0177 -0.0109
73616W        W16528  18.512  12.794  25.796  0.0927  0.0104 -0.1090
73617W        W16529  12.952  12.337  22.277 -0.4476 -0.0707  0.1078
73618W        W16530  16.668  13.047  25.489 -0.0200  0.1103 -0.3212
73619W        W16531  16.281  11.793  26.930  0.0049 -0.1915 -0.0749
73620W        W16532  14.549  10.637  24.093 -0.0683  0.0593 -0.1183
73621W        W16533  17.486  12.527  25.417  0.0362  0.0733 -0.1366
73622W        W16534  16.485  13.198  21.940 -0.2263  0.1759  0.0194
73623W        W16535  16.755  13.813  20.510  0.0196 -0.0910  0.1528
73624W        W16536  16.802  12.780  23.146  0.1200  0.0742 -0.1677
73625W        W16537  15.622  10.968  26.856 -0.1336 -0.0126  0.6532
73626W        W16538  17.884  10.771  22.331  0.1998  0.1513  0.0551
73627W        W16539  15.756  13.347  25.464  0.2500 -0.1472  0.0299
73628W        W16540  19.053  12.300  22.985  0.2425  0.2991  0.0588
73629W        W16541  17.851  11.219  26.549  0.0939 -0.2201 -0.0408
73630W        W16542  16.681  12.838  22.170 -0.1115 -0.2783 -0.0720
73631W        W16543  14.953  12.271  26.600  0.1584 -0.3721 -0.2419
73632W        W16544  16.459  13.073  24.549  0.1920  0.0636  0.0209
73633W        W16545  17.995  13.169  23.311 -0.0042 -0.2697  0.2392
73634W        W16546  15.109  10.015  25.096 -0.3139 -0.0482 -0.2704
73635W        W16547  17.027  10.879  22.742 -0.1059 -0.1072  0.0473
73636W        W16548  15.726  12.852  22.032  0.1561 -0.0639 -0.0659
73637W        W16549  16.238  11.552  25.642 -0.3158 -0.1636  0.2613
73638W        W16550  16.182  11.145  24.149  0.0462  0.1767 -0.0576
73639W        W16551  16.983  11.885  24.889  0.0989 -0.2820  0.4954
73640W        W16552  17.738  13.165  22.503 -0.2008 -0.1574 -0.0288
73641W        W16553  18.193  12.390  23.828  0.1145 -0.0148 -0.0003
73642W        W16554  16.352  12.695  23.121  0.1624  0.0593 -0.0516
73643W        W16555  18.106  10.619  24.351  0.1586  0.0458  0.1337
73644W        W16556  16.573  14.126  23.603 -0.3927  0.0927 -0.0962
73645W        W16557  18.862  13.728  24.716  0.1103 -0.2830 -0.2690
73646W        W16558  17.651  11.247  23.274  0.1877 -0.0890  0.0408
73647W        W16559  15.410  11.536  26.014  0.0548 -0.2833  0.2654
73648W        W16560  16.093  12.068  22.375 -0.1361  0.1091  0.0540
73649W        W16561  16.174  12.896  22.290  0.1610 -0.0215  0.0294
73650W        W16562  18.461  11.871  26.878 -0.2554 -0.1009 -0.3256
73651W        W16563  14.764  11.506  24.743  0.0971 -0.0913  0.0644
73652W        W16564  15.952  10.331  23.141  0.4067 -0.0624  0.3158
73653W        W16565  17.297  12.654  23.333  0.1517  0.2508 -0.0725
73654W        W16566  15.254  13.535  31.056  0.1556 -0.1766  0.5364
73655W        W16567  15.618  12.822  27.011 -0.1029  0.1009 -0.2859
73656W        W16568  19.287  11.836  27.309 -0.0733 -0.1113 -0.1726
73657W        W16569  19.119  11.865  28.289  0.1048  0.0790 -0.3938
73658W        W16570  15.366  11.065  28.145 -0.0577 -0.2358  0.1344
73659W        W16571  14.259  10.340  29.662 -0.0090  0.1564 -0.3670
73660W        W16572  17.061  13.763  26.366 -0.2499  0.1384 -0.0870
73661W        W16573  19.156  13.525  29.017  0.1605 -0.2299  0.1857
73662W        W16574  16.690  12.953  26.184  0.2419  0.1198 -0.1254
73663W        W16575  15.551  12.987  30.360  0.1091 -0.0390 -0.2447
73664W        W16576  15.330  13.124  29.281 -0.1263 -0.1871  0.1108
73665W        W16577  17.922  11.045  27.025 -0.1767 -0.2571 -0.0070
73666W        W16578  15.319  10.204  27.803 -0.0023 -0.2501 -0.2540
73667W        W16579  17.499  13.265  27.534 -0.0633  0.1535  0.2048
73668W        W16580  13.978  13.196  26.186 -0.1036  0.3096 -0.1767
73669W        W16581  15.689  11.297  28.431  0.0370 -0.0163  0.1082
73670W        W16582  15.910  12.122  26.289 -0.0681  0.0267  0.1116
73671W        W16583  15.266  10.529  29.737  0.2373  0.0695  0.3010
73672W        W16584  17.726  12.361  29.213  0.1645  0.0823 -0.0171
73673W        W16585  14.687  12.095  28.010 -0.1813 -0.2008 -0.1475
73674W        W16586  14.417  12.737  28.985 -0.0282  0.0611  0.0576
73675W        W16587  16.679  12.736  27.994 -0.2457 -0.1164 -0.2145
73676W        W16588  17.520  10.290  27.543  0.0119 -0.2909  0.1816
73677W        W16589  17.393  14.358  27.823 -0.1627 -0.2788  0.0358
73678W        W16590  15.333  13.923  28.688 -0.1832  0.2186 -0.1980
73679W        W16591  16.746  12.805  27.356 -0.0393 -0.0230 -0.0469
73680W        W16592  17.656  12.123  30.045  0.1133  0.0775  0.1108
73681W        W16593  14.881  14.150  27.451  0.1496  0.2941 -0.0839
73682W        W16594  16.731  13.376  25.917  0.0525 -0.0823  0.1810
73683W        W16595  18.867  12.140  27.286  0.2844  0.2323  0.1248
73684W        W16596  16.882  13.803  29.250  0.0540 -0.0588  0.2742
73685W        W16597  15.519  14.057  27.786  0.3102  0.0402 -0.0763
73686W        W16598  14.317  13.323  27.010  0.0067 -0.2436 -0.1251
73687W        W16599  15.188  13.734  28.202  0.0653 -0.2425 -0.1710
73688W        W16600  14.912  12.937  29.615 -0.2166 -0.4948 -0.2298
73689W        W16601  16.055  13.186  28.162  0.0188 -0.1659  0.3509
73690W        W16602  15.518  11.976  27.523 -0.0840  0.1092 -0.0926
73691W        W16603  16.635  14.309  27.003 -0.1653  0.1057 -0.2596
73692W        W16604  15.929  13.181  26.841  0.1099 -0.3357  0.1732
73693W        W16605  15.010  12.993  30.369  0.4064  0.3447  0.1591
73694W        W16606  15.249  13.824  27.455  0.1327  0.0224 -0.0965
73695W        W16607  18.112  10.488   1.015  0.1922  0.2376  0.1087
73696W        W16608  15.677  13.873  25.201  0.0868  0.0444 -0.0928
73697W        W16609  17.784  11.585  27.504  0.0926 -0.0539  0.0010
73698W        W16610  16.830  11.498  27.162 -0.1704  0.0934  0.2604
73699W        W16611  17.208  12.720  26.933  0.1896 -0.0925 -0.1705
73700W        W16612  17.440  11.203  26.143 -0.2819 -0.0180  0.0114
73701W        W16613  16.234  14.500  26.858 -0.2375 -0.0890  0.1738
73702W        W16614  16.913  13.005  29.223  0.0723  0.0401  0.0989
73703W        W16615  17.666  14.368  29.162 -0.1615  0.2357 -0.1637
73704W        W16616  15.319  12.345  27.168  0.1152  0.1363 -0.1361
73705W        W16617  16.197  13.720  28.788 -0.1921  0.0895 -0.0906
73706W        W16618  16.293  12.909  27.776 -0.1462 -0.3573  0.0083
73707W        W16619  16.017  12.429  29.033 -0.2197  0.3145 -0.2269
73708W        W16620  17.547  13.181  24.620  0.2029  0.0898  0.0239
73709W        W16621  17.463  14.461  27.362  0.0348  0.1464  0.1177
73710W        W16622  19.085  13.382  26.393  0.1344  0.2187 -0.0121
73711W        W16623  14.527  13.802  26.889  0.2748 -0.2324 -0.1980
73712W        W16624  14.633  11.975  29.053 -0.0578  0.1162  0.1091
73713W        W16625  15.265  12.556  30.364 -0.2028  0.2301  0.1283
73714W        W16626  15.456  12.322  26.706  0.0124  0.0772 -0.1221
73715W        W16627  18.310  12.744  30.097 -0.0537 -0.0635  0.0064
73716W        W16628  16.615  13.218  28.137 -0.0258  0.1137 -0.1977
73717W        W16629  18.532  11.802  27.558 -0.2928 -0.1233  0.0566
73718W        W16630  16.642  13.565  28.518  0.1190  0.2063  0.0879
73719W        W16631  18.641  14.079  29.116  0.2131  0.1638  0.0467
73720W        W16632  17.902  13.243  26.465  0.0399 -0.0872 -0.0617
73721W        W16633  16.938  12.373  28.233 -0.1183  0.0489 -0.1127
73722W        W16634  17.086   9.945  30.393 -0.2716  0.2772 -0.1510
73723W        W16635  15.194  12.480  25.643 -0.1340 -0.1489  0.1757
73724W        W16636  15.612  13.715  26.025 -0.0190 -0.0363 -0.0764
73725W        W16637  18.437  13.206  30.099 -0.0506 -0.0649  0.1972
73726W        W16638  17.684  12.017  27.080 -0.0029 -0.3724  0.1858
73727W        W16639  15.608  14.126  29.666 -0.1409 -0.2079  0.1031
73728W        W16640  17.078  12.883  28.271  0.0413  0.3007 -0.0081
73729W        W16641  16.496  14.190  29.378  0.0594 -0.0546  0.3564
73730W        W16642  14.254  14.353  27.750 -0.1778 -0.1862  0.3496
73731W        W16643  14.770  12.018  24.758 -0.0068  0.2317  0.0460
73732W        W16644  15.187  12.628  28.513  0.0280 -0.0468 -0.0098
73733W        W16645  16.143  13.269  29.163  0.2774 -0.0817 -0.0072
73734W        W16646  18.983  11.300  28.936  0.1516  0.0533  0.1605
73735W        W16647  15.704  12.326  30.382  0.3740 -0.1560 -0.0506
73736W        W16648  18.889  10.421  28.960  0.0517 -0.0553 -0.0461
73737W        W16649  16.562  13.809  26.261  0.1799 -0.2515 -0.1614
73738W        W16650  18.463  14.183  27.436  0.2254  0.3300 -0.0678
73739W        W16651  18.437  12.394  28.007 -0.1151  0.1117  0.1083
73740W        W16652  18.045  12.788  25.992  0.0026  0.1728 -0.0216
73741W        W16653  16.423  12.863  28.979 -0.0350 -0.0182  0.0241
73742W        W16654  15.611  11.851  28.377 -0.0489 -0.1640 -0.1708
73743W        W16655  16.329  12.028  30.239 -0.1715  0.2719  0.2772
73744W        W16656  15.782  11.406  29.256  0.0588  0.0579  0.1336
73745W        W16657  15.753  12.577  29.494  0.0814 -0.0530  0.2385
73746W        W16658  15.262  10.448  27.355  0.1770 -0.4770 -0.2390
73747W        W16659  17.308  11.992  27.379  0.1182  0.1921 -0.0099
73748W        W16660  15.143  12.931  27.972  0.3211  0.0529 -0.1878
73749W        W16661  16.171  13.121  26.242 -0.0971 -0.4670 -0.0834
73750W        W16662  16.750  12.449  30.258  0.2044  0.1362 -0.4555
73751W        W16663  18.480  14.696  29.469  0.0965 -0.1044  0.0829
73752W        W16664  18.467  13.578  28.593 -0.0219 -0.1172  0.0398
73753W        W16665  15.220  10.380  29.062  0.1097  0.0329 -0.2205
73754W        W16666  14.563  11.122  27.547  0.0868 -0.2426  0.2627
73755W        W16667  13.770  11.580  29.173  0.0369 -0.2480  0.3604
73756W        W16668  16.212  13.634  27.196 -0.1034 -0.1259  0.0667
73757W        W16669  16.457  12.207  29.022  0.0782 -0.0797 -0.0477
73758W        W16670  17.970  14.562  28.772  0.0427 -0.1986 -0.1664
73759W        W16671  16.274  13.359  25.670  0.1325 -0.1918 -0.0008
73760W        W16672  17.064  13.646  28.724 -0.1321 -0.2780 -0.3086
73761W        W16673  18.011  11.802  30.420 -0.2822 -0.1166 -0.0934
73762W        W16674  18.380  12.598  28.485 -0.3311  0.0356 -0.1362
73763W        W16675  15.905  12.158  27.745  0.3309 -0.0103  0.3183
73764W        W16676  16.468  10.449  28.523  0.0063  0.3045 -0.3664
73765W        W16677  18.414  14.344  26.219  0.1237  0.0018 -0.2993
73766W        W16678  14.497  13.387  25.440 -0.1506 -0.1726  0.1235
73767W        W16679  15.238  13.864  29.291  0.0308 -0.0865 -0.0514
73768W        W16680  16.200  14.029  26.845 -0.0391 -0.2506 -0.1689
73769W        W16681  18.658  12.041  29.450 -0.0807 -0.0683  0.1522
73770W        W16682  14.875  13.756  30.731 -0.0102  0.0611 -0.1324
73771W        W16683  16.122  12.959  30.279  0.1741  0.0925  0.0066
73772W        W16684  17.180  13.232  26.260  0.2057  0.0659 -0.1214
73773W        W16685  14.277  14.248  29.104 -0.0411  0.2502 -0.0631
73774W        W16686  17.274  12.545  29.152  0.1176 -0.0912  0.4678
73775W        W16687  18.061  12.067  26.649  0.1922 -0.0770 -0.0924
73776W        W16688  15.694  11.684  29.725  0.0772  0.1478  0.0197
73777W        W16689  17.146  12.636  25.927 -0.2448 -0.0708 -0.2197
73778W        W16690  17.113  11.856  26.890 -0.0419 -0.1632  0.4277
73779W        W16691  18.336  11.448  26.668  0.0918 -0.4736  0.2143
73780W        W16692  13.789  14.896  29.650 -0.1757 -0.1054 -0.1891
73781W        W16693  16.691  13.529  25.338  0.0579 -0.1539 -0.1140
73782W        W16694  15.946  12.427  26.711  0.0771 -0.2010  0.0374
73783W        W16695  16.923  12.333  26.784 -0.4558 -0.1371  0.1280
73784W        W16696  18.046  13.910  27.408 -0.1627  0.1441  0.5141
73785W        W16697  14.635  14.103  29.576 -0.0503 -0.0828  0.1669
73786W        W16698  15.833  13.596  28.488  0.0789  0.0515  0.1394
73787W        W16699  17.864  14.017  28.769 -0.1423  0.3756  0.1770
73788W        W16700  17.940  12.837  29.318  0.0864 -0.1617  0.0470
73789W        W16701  15.916  12.870  24.696 -0.1561  0.4663 -0.1194
73790W        W16702  15.475  12.517  27.694  0.2348 -0.1755  0.1249
73791W        W16703  13.823  14.258  25.527  0.1880  0.0889 -0.0147
73792W        W16704  18.668  12.426  29.827 -0.0721  0.2348  0.0024
73793W        W16705  16.733  13.670  27.904 -0.1984  0.2562 -0.2483
73794W        W16706  17.766  12.929  28.389  0.1986  0.4142  0.1038
73795W        W16707  18.253  12.299  29.251 -0.3861  0.2985 -0.1827
73796W        W16708  17.881  13.461  26.993  0.1461  0.3520  0.1045
73797W        W16709  14.994  12.228  27.595 -0.1109  0.1689  0.1657
73798W        W16710  15.098  11.226  27.725  0.0194 -0.3435  0.0714
73799W        W16711  16.706  11.368  29.385 -0.1351  0.1136  0.1787
73800W        W16712  15.381  12.980  29.817  0.3366 -0.1108  0.4199
73801W        W16713  16.613  15.280  27.887  0.1048  0.0207  0.1362
73802W        W16714  16.874  14.480  29.580  0.0241  0.0945 -0.0995
73803W        W16715  16.199  12.956  27.196 -0.0827  0.3192  0.0240
73804W        W16716  15.943  13.598  31.550  0.1295  0.0028 -0.1561
73805W        W16717  16.434  11.208  28.103 -0.2250  0.1754  0.0046
73806W        W16718  16.118  13.634  26.074 -0.0131 -0.3665  0.0372
73807W        W16719  15.440  13.173  24.787  0.1293 -0.1307 -0.0439
73808W        W16720  16.096  11.991  29.326  0.0826  0.0277 -0.1323
73809W        W16721  16.619  13.274  27.585 -0.0958  0.1289  0.0248
73810W        W16722  16.174  12.588  23.652  0.1478  0.0146 -0.0649
73811W        W16723  17.159  13.992  28.188 -0.1924 -0.1160  0.0353
73812W        W16724  14.270  13.429  25.874 -0.0433  0.3241  0.2183
73813W        W16725  18.305  11.291  29.284  0.1381  0.0594  0.2653
73814W        W16726  14.883  14.794  27.061  0.0059  0.1366 -0.1879
73815W        W16727  15.703  12.930  26.425  0.0670  0.3488  0.2022
73816W        W16728  15.228  12.827  27.401  0.1996  0.0324  0.2710
73817W        W16729  18.423  11.760  29.074 -0.0196 -0.0305 -0.0243
73818W        W16730  18.098  13.047  26.861 -0.0191  0.2936 -0.1226
73819W        W16731  15.397  10.511  28.589  0.2017  0.1242  0.2751
73820W        W16732  16.737  12.535  29.331  0.0822 -0.4135 -0.0115
73821W        W16733  13.616  14.032  29.582 -0.3757  0.0211 -0.2792
73822W        W16734  16.904  13.580  27.331 -0.2369  0.0109 -0.1684
73823W        W16735  18.597  12.300  28.908  0.2399  0.0842 -0.2726
73824W        W16736  18.081  13.831  28.314  0.2273  0.0029  0.1644
73825W        W16737  16.726  13.139  29.699 -0.0363 -0.1326 -0.0027
73826W        W16738  14.861  12.654  26.273  0.0710 -0.1554 -0.1820
73827W        W16739  17.435  12.244  28.690 -0.2845 -0.2337 -0.2185
73828W        W16740  17.176  11.748  28.682 -0.3447 -0.1267  0.1665
73829W        W16741  14.816  13.458  26.687  0.0731 -0.2254  0.0518
73830W        W16742  17.589  15.004  29.628 -0.1113 -0.0838 -0.0457
73831W        W16743  14.863  12.552  27.227  0.1458  0.2594  0.0844
73832W        W16744  15.241  14.375  27.156 -0.1130 -0.2303 -0.0076
73833W        W16745  18.028  12.234  31.654  0.1371  0.0972 -0.1250
73834W        W16746  17.357  13.045  29.164 -0.1740  0.0527 -0.1491
73835W        W16747  15.740  13.151  28.703  0.2635 -0.1708 -0.0090
73836W        W16748  15.185  11.558  28.400  0.2309  0.0604 -0.1565
73837W        W16749  16.253  13.641  28.217 -0.0010 -0.0855 -0.0750
73838W        W16750  17.675  13.925  28.002  0.0046 -0.2857 -0.0661
73839W        W16751  17.048  13.157  27.837  0.3722  0.0524  0.1112
73840W        W16752  16.010  14.376  29.443 -0.1422 -0.2322  0.1869
73841W        W16753  16.908  10.904  29.322 -0.0951  0.1536 -0.0957
73842W        W16754  17.744  12.968  25.550 -0.2059 -0.2455  0.1044
73843W        W16755  17.707  13.420  30.084  0.0266  0.1157 -0.1073
73844W        W16756  13.837  12.464  28.406  0.1565 -0.0075 -0.0451
73845W        W16757  15.046  13.467  28.837 -0.3576  0.1815  0.0446
73846W        W16758  16.881  11.814  28.178  0.1185  0.0174  0.0861
73847W        W16759  17.188  14.788  27.700 -0.0526  0.0792  0.1139
73848W        W16760  14.962  13.715  25.177 -0.1247 -0.3851  0.2429
73849W        W16761  14.673  13.457  29.512 -0.0796 -0.0588  0.4503
73850W        W16762  17.058  10.555  27.950 -0.2498  0.3389 -0.2501
73851W        W16763  16.973  12.383  27.297 -0.0489 -0.2127 -0.2740
73852W        W16764  16.604  12.888  28.504  0.2482  0.1006  0.0510
73853W        W16765  18.363  11.867  31.623 -0.1686  0.0241  0.1549
73854W        W16766  17.474  13.186  26.736  0.0297 -0.0707 -0.5600
73855W        W16767  17.033  10.919  31.517 -0.1761 -0.1591  0.0717
73856W        W16768  17.078  11.935  29.955  0.0596  0.3734 -0.1598
73857W        W16769  17.573  12.904  27.900  0.0326 -0.0971 -0.0983
73858W        W16770  14.347  12.311  29.258 -0.1880 -0.3156  0.1301
73859W        W16771  16.536  13.756  30.065 -0.0588  0.0726 -0.0165
73860W        W16772  16.303  12.971  30.809  0.1358  0.3222  0.0128
73861W        W16773  16.007  11.707  28.050 -0.1051 -0.0182 -0.0437
73862W        W16774  16.656  12.078  27.112 -0.2207  0.0018  0.1260
73863W        W16775  17.528  13.752  28.478  0.1265 -0.1943  0.1260
73864W        W16776  18.618  13.744  25.982 -0.0255 -0.1547  0.1920
73865W        W16777  16.743  13.392  26.534  0.0714 -0.3025  0.5379
73866W        W16778  18.130  12.082  27.307  0.2659 -0.0446  0.1061
73867W        W16779  15.028  14.749  27.536  0.0344  0.0770 -0.2137
73868W        W16780  17.118  12.669  27.720  0.0641  0.0534  0.3700
73869W        W16781  15.904  13.863  25.632 -0.1453 -0.0276 -0.1818
73870W        W16782  15.101  12.815  26.793 -0.3487  0.1808  0.0274
73871W        W16783  16.595  11.658  30.004 -0.2463  0.1756  0.0010
73872W        W16784  16.816  14.112  25.968 -0.1433  0.0194  0.0126
73873W        W16785  17.468  11.580  29.928  0.1667  0.1055 -0.1219
73874W        W16786  16.485  12.416  28.540  0.0689  0.0668  0.2898
73875W        W16787  16.907  14.387  29.099 -0.4194 -0.1714 -0.1332
73876W        W16788  15.950  12.154  29.896  0.3488  0.2693  0.1762
73877W        W16789  15.775  12.281  30.938 -0.1672  0.2665  0.0421
73878W        W16790  16.926  14.290  28.616 -0.0734 -0.0019 -0.0191
73879W        W16791  17.646  12.485  25.899 -0.1897 -0.1383  0.1225
73880W        W16792  17.550  12.523  29.745 -0.2002 -0.0390 -0.0957
73881W        W16793  18.158  11.470  27.861  0.1954 -0.1461 -0.1241
73882W        W16794  18.289  12.365  26.121  0.0485 -0.1608 -0.0518
73883W        W16795  15.184  13.448  29.573  0.1955 -0.1017  0.0788
73884W        W16796  17.310  13.083  30.952  0.0285 -0.1371 -0.0705
73885W        W16797  14.902  12.217  26.100  0.0513  0.1501  0.1548
73886W        W16798  18.336  11.982  29.847  0.0361 -0.1539 -0.4146
73887W        W16799  17.987  14.341  27.201  0.0310 -0.0723 -0.2510
73888W        W16800  16.653  13.256  27.101 -0.0173  0.2466 -0.0017
73889W        W16801  14.758  12.388  28.684  0.1998 -0.3110  0.3005
73890W        W16802  16.014  13.286  27.565  0.0911 -0.1847 -0.4331
73891W        W16803  16.637  11.134  28.811 -0.0297 -0.2550 -0.1053
73892W        W16804  15.667  13.189  25.967 -0.0750 -0.1668 -0.4579
73893W        W16805  17.233  13.664  27.751  0.0813  0.1331  0.1729
73894W        W16806  16.742  13.042  31.146  0.0215 -0.0913  0.2550
73895W        W16807  17.802  10.606  27.281 -0.0510  0.0632  0.0081
73896W        W16808  17.725  12.868  31.192 -0.2693 -0.3980 -0.1428
73897W        W16809  14.297  13.638  26.377 -0.0924 -0.2984  0.2312
73898W        W16810  17.336   9.970  29.859  0.2554 -0.0561  0.0410
73899W        W16811  16.240  13.565  26.603  0.2343  0.2374 -0.0401
73900W        W16812  14.057  13.121  28.762  0.1622  0.1380  0.5105
73901W        W16813  16.143  14.297  26.404  0.2645 -0.2686  0.0012
73902W        W16814  17.190  12.895  30.122 -0.1672  0.0821  0.1687
73903W        W16815  17.782  11.716  28.086 -0.1827 -0.0227 -0.2895
73904W        W16816  16.134  12.081  27.277 -0.4182  0.0623  0.0612
73905W        W16817  15.938  12.634  27.929  0.0634 -0.0949  0.2200
73906W        W16818  16.605  14.022  28.309  0.1372 -0.0750 -0.1251
73907W        W16819  15.599  12.768  28.303 -0.1057  0.2123  0.1302
73908W        W16820  16.346  15.152  28.922  0.2287 -0.0046 -0.0989
73909W        W16821  17.497  12.451  28.002 -0.0220 -0.0250 -0.1440
73910W        W16822  16.205  13.818  29.272  0.0701  0.0976  0.2226
73911W        W16823  17.114  12.765  29.596  0.1436 -0.0796 -0.0083
73912W        W16824  17.550  12.409  30.972 -0.0320 -0.0708  0.1219
73913W        W16825  17.067  12.134  27.803 -0.0673 -0.2314 -0.0308
73914W        W16826  16.614  12.116  27.592  0.3398 -0.1338  0.0016
73915W        W16827  17.711  12.085  27.709 -0.0571 -0.1155  0.0688
73916W        W16828  15.133  13.868  29.811 -0.3675 -0.2187  0.3536
73917W        W16829  14.184  13.427  28.298 -0.0665 -0.2186  0.1602
73918W        W16830  15.476  14.322  25.195  0.0071  0.0177  0.0809
73919W        W16831  17.009  14.118  26.721 -0.0067  0.1583  0.1975
73920W        W16832  17.619  12.919  27.159 -0.1770  0.1908 -0.0854
73921W        W16833  17.359  14.711  28.236  0.1157 -0.2150  0.2139
73922W        W16834  15.276  10.984  27.281 -0.1168  0.0556  0.1189
73923W        W16835  14.258  14.422  28.257 -0.1265  0.1054  0.0307
73924W        W16836  13.954  12.729  25.810  0.2338 -0.0936  0.2341
73925W        W16837  17.567  13.668  26.551 -0.1716  0.2694 -0.1694
73926W        W16838  14.745  13.381  26.139 -0.0516 -0.2494 -0.3016
73927W        W16839  17.789  13.028  28.885 -0.2549  0.0758 -0.5703
73928W        W16840  17.044  10.603  28.725 -0.2013 -0.1565  0.3813
73929W        W16841  17.902  13.508  27.698  0.2838 -0.0731  0.2069
73930W        W16842  18.611  12.913  26.728  0.2764 -0.1250 -0.2229
73931W        W16843  17.031  13.088  28.744  0.0714  0.0634  0.0199
73932W        W16844  16.918  11.680  27.594  0.2358  0.1077 -0.2670
73933W        W16845  16.513  12.576  26.965 -0.1625 -0.0859  0.2976
73934W        W16846  14.956  11.995  29.494  0.1338  0.1600 -0.3416
73935W        W16847  19.368  10.129  31.402  0.3133  0.0004  0.1275
73936W        W16848  14.319  13.294  29.123  0.1146  0.2529  0.0019
73937W        W16849  19.280  13.785  26.002  0.0867 -0.0879 -0.0452
73938W        W16850  14.302  12.756  28.481 -0.0133  0.1521 -0.3513
73939W        W16851  14.626  13.322  28.031  0.0582  0.1559  0.3861
73940W        W16852  17.930  12.511  28.727 -0.0920  0.0718 -0.1374
73941W        W16853  15.362  13.411  25.211 -0.5440  0.0019  0.2619
73942W        W16854  17.087  12.241  30.590 -0.0100  0.3669  0.2392
73943W        W16855  17.657  13.770  26.045 -0.0101  0.2125 -0.2674
73944W        W16856  14.588  13.277  28.706 -0.0587 -0.2092  0.1329
73945W        W16857  16.261  13.765  27.687  0.2601 -0.4288  0.2450
73946W        W16858  13.740  12.394  26.747 -0.3553  0.0130 -0.0831
73947W        W16859  19.475  12.836  28.051 -0.0044  0.0142  0.1215
73948W        W16860  16.722  12.137  31.003  0.2964 -0.0704 -0.2623
73949W        W16861  18.709  11.674  30.242 -0.1288 -0.0543 -0.1391
73950W        W16862  15.716  11.904  29.002 -0.0166 -0.2234  0.1161
73951W        W16863  17.990  12.516  27.811  0.1904 -0.1485  0.2954
73952W        W16864  15.910  11.619  27.510 -0.0074  0.1028 -0.2576
73953W        W16865  14.942  13.304  27.668 -0.3281 -0.1046 -0.0744
73954W        W16866  16.434  13.072  26.722  0.3473 -0.0553 -0.0762
73955W        W16867  18.549  13.833  30.729  0.3511 -0.0212  0.2022
73956W        W16868  17.182  13.102  25.442 -0.0455  0.0356 -0.3538
73957W        W16869  17.349  15.497  29.417 -0.2769 -0.1668  0.0394
73958W        W16870  17.309  11.042  27.659  0.0161  0.0288 -0.1736
73959W        W16871  17.884  13.934  26.877  0.0560  0.1203  0.3421
73960W        W16872  14.758  12.876  28.439  0.0757  0.1977 -0.2029
73961W        W16873  17.389  12.715  28.682 -0.0544 -0.0160  0.3680
73962W        W16874  17.420  14.111  30.653 -0.1321  0.1471 -0.1243
73963W        W16875  15.965  10.352  28.550  0.1128 -0.1852  0.2502
73964W        W16876  18.612  11.505  25.965  0.0099 -0.1027 -0.2820
73965W        W16877  17.948  11.704  29.846  0.2488  0.1188 -0.2865
73966W        W16878  19.269  13.018  28.928  0.2211 -0.0150  0.0741
73967W        W16879  16.821  14.485  27.399 -0.0236 -0.2735 -0.0059
73968W        W16880  15.284  12.624  29.421  0.1578 -0.0644  0.0092
73969W        W16881  16.950  14.880  28.917  0.0426  0.0597 -0.0366
73970W        W16882  18.182  13.744  29.008  0.0677 -0.0075 -0.0475
73971W        W16883  16.779  11.922  26.577  0.1920  0.1946  0.1543
73972W        W16884  15.522  12.753  29.006 -0.3033 -0.0783 -0.4120
73973W        W16885  15.177  13.947  26.905  0.0353  0.1940  0.0818
73974W        W16886  19.062  12.192  28.667  0.2975  0.1744 -0.0462
73975W        W16887  19.361  12.586  28.558 -0.0621  0.2047  0.0401
73976W        W16888  17.677  11.930  31.925  0.0110  0.3418  0.2392
73977W        W16889  15.784  15.168  27.802  0.2002 -0.1873  0.0636
73978W        W16890  15.217  14.396  29.579 -0.4082 -0.2705 -0.0458
73979W        W16891  16.958  13.021  26.701 -0.3941  0.2441  0.2118
73980W        W16892  16.535  11.637  27.893 -0.2472 -0.1007  0.1600
73981W        W16893  15.634  13.016  27.720 -0.1827 -0.1317  0.0797
73982W        W16894  15.662  13.655  26.926 -0.2067 -0.0484 -0.0849
73983W        W16895  17.326  14.076  28.933 -0.2699 -0.0738  0.0727
73984W        W16896  17.359  11.970  28.255 -0.0329  0.0070 -0.1893
73985W        W16897  18.784  13.167  27.292  0.0457 -0.2885 -0.0974
73986W        W16898  17.111  11.388  29.051 -0.3030  0.0328 -0.2298
73987W        W16899  19.331  12.647  27.059  0.2078 -0.1669  0.1824
73988W        W16900  18.083  10.404  28.891 -0.1208 -0.2868 -0.0101
73989W        W16901  15.498  12.175  29.472  0.1097 -0.1430 -0.0793
73990W        W16902  14.980  12.108  25.456 -0.1759 -0.0496  0.1338
73991W        W16903  15.558  12.399  25.159 -0.0563  0.0849 -0.1955
73992W        W16904  15.830  12.481  27.291 -0.0122  0.2083 -0.1346
73993W        W16905  16.188  11.546  29.528 -0.2056  0.3525  0.0540
73994W        W16906  15.280  13.223  28.409 -0.3068  0.0291 -0.1449
73995W        W16907  14.771  14.264  26.930 -0.1108 -0.3121  0.1858
73996W        W16908  14.794  11.603  27.999  0.2767 -0.1068 -0.2646
73997W        W16909  18.535  12.389  26.980  0.1061 -0.1039  0.0011
73998W        W16910  16.456  12.074  28.080  0.1789  0.0176 -0.3527
73999W        W16911  15.972  11.450  28.777  0.2794 -0.2226 -0.2903
74000W        W16912  17.126  13.580  26.793  0.0524  0.3815 -0.3957
74001W        W16913  19.255  13.422  27.367 -0.2676  0.1772  0.0449
74002W        W16914  16.411  12.256  26.586  0.0903 -0.2760  0.1321
74003W        W16915  18.213  14.729  30.738  0.0698 -0.0682  0.0824
74004W        W16916  14.253  13.914  28.067  0.0020 -0.0369 -0.1853
74005W        W16917  15.590  13.685  30.584  0.0054 -0.3430  0.1490
74006W        W16918  16.591  12.919  30.353 -0.3093 -0.1288  0.0135
74007W        W16919  13.870  11.681  26.997 -0.0332 -0.1066 -0.0800
74008W        W16920  17.086  11.765  29.449 -0.2490 -0.1808 -0.1057
74009W        W16921  18.039  13.823  26.373  0.0419  0.0627  0.1293
74010W        W16922  18.122  13.860  24.074 -0.0859 -0.1171  0.1393
74011W        W16923  15.835  13.834  27.446 -0.1040  0.2107  0.1405
74012W        W16924  15.990  14.701  28.992 -0.1291  0.1782 -0.1511
74013W        W16925  16.090  11.677  30.041  0.0455  0.3115  0.1663
74014W        W16926  16.274  12.466  27.535 -0.0874  0.1815 -0.1628
74015W        W16927  15.742  13.944  29.201  0.0503 -0.1212  0.1991
74016W        W16928  18.845  12.155  27.800 -0.1699 -0.1042  0.1389
74017W        W16929  19.406  11.210  30.761  0.3903 -0.4156  0.1221
74018W        W16930  18.187  14.248  26.665  0.1589  0.1247 -0.1895
74019W        W16931  15.179  11.571  29.788 -0.1816  0.3190  0.0404
74020W        W16932  16.053  12.919  31.245 -0.0391  0.1877  0.1277
74021W        W16933  17.966  14.610  29.463  0.0820 -0.0507 -0.1511
74022W        W16934  16.261  10.965  28.564  0.2786 -0.0366  0.2144
74023W        W16935  17.832  11.542  26.901  0.0398  0.0743 -0.0293
74024W        W16936  15.806  13.117  29.525  0.1686  0.1797  0.1930
74025W        W16937  17.295  11.455  27.286  0.1704 -0.3598  0.4383
74026W        W16938  15.915  13.340  30.587 -0.1203 -0.0100 -0.0516
74027W        W16939  17.035  13.706  25.744 -0.0648  0.1052 -0.1884
74028W        W16940  17.584  13.415  28.082 -0.0970  0.0075 -0.0521
74029W        W16941  15.209  13.330  25.696 -0.0694  0.1230 -0.0658
74030W        W16942  18.756  13.026  25.404  0.1974 -0.1639 -0.0565
74031W        W16943  17.508  15.004  27.330  0.0119 -0.2676 -0.1340
74032W        W16944  19.030  14.071  30.036 -0.1138  0.1250 -0.0238
74033W        W16945  16.031  14.148  27.914  0.2001 -0.2272  0.1577
74034W        W16946  16.906  12.474  28.795  0.4005 -0.0270 -0.2682
74035W        W16947  16.612  11.855  29.456 -0.2736 -0.1799 -0.0993
74036W        W16948  15.367  13.237  26.786  0.0088  0.1221 -0.1360
74037W        W16949  15.402  13.300  27.364 -0.1519 -0.0781  0.1030
74038W        W16950  17.114  11.130  28.679 -0.2348 -0.1864 -0.0024
74039W        W16951  16.050  12.783  28.615 -0.2679  0.0743 -0.0456
74040W        W16952  18.576  12.070  28.464  0.5097  0.0165  0.0855
74041W        W16953  15.890  13.538  30.166  0.1975  0.1622 -0.0109
74042W        W16954  16.980  14.077  27.700  0.3124 -0.0367  0.2350
74043W        W16955  17.315  13.579  29.391 -0.1493 -0.0538  0.0145
74044W        W16956  17.417  13.834  31.580 -0.5582 -0.0824  0.0498
74045W        W16957  17.064  12.648  31.184 -0.2511  0.3293 -0.4045
74046W        W16958  14.885  14.342  31.054  0.0275  0.1320 -0.2537
74047W        W16959  16.254  12.890  29.461 -0.1497 -0.1616 -0.0911
74048W        W16960  15.404  14.161  31.873 -0.1048  0.1204  0.4520
74049W        W16961  16.827  12.457  31.656 -0.0444 -0.1256  0.3014
74050W        W16962  17.598  13.091  29.700  0.2743 -0.1919  0.1059
74051W        W16963  17.567  13.325  31.793 -0.2112  0.0252 -0.2782
74052W        W16964  16.948  13.934  30.361  0.2364 -0.1119 -0.2240
74053W        W16965  16.217  14.519  31.458 -0.1755  0.2630 -0.0874
74054W        W16966  15.889  11.368  30.426 -0.0930  0.2880 -0.1003
74055W        W16967  16.121  13.825  30.833  0.0443  0.2291 -0.0716
74056W        W16968  16.659  13.708  31.073 -0.1901  0.2540  0.3229
74057W        W16969  18.678  12.302  31.576  0.1167  0.0732 -0.2246
74058W        W16970  15.714  13.633  29.644  0.5832 -0.1639 -0.1539
74059W        W16971  14.477  13.520  31.071  0.0420  0.0452  0.0071
74060W        W16972  18.140  13.607  31.079  0.0451 -0.1377  0.0004
74061W        W16973  15.269  10.592  31.050  0.0240 -0.0179  0.0126
74062W        W16974  15.797  12.634  29.979  0.3445 -0.1745  0.1759
74063W        W16975  16.129  11.118  31.340  0.0447 -0.0866 -0.0419
74064W        W16976  14.596  14.799  30.155  0.0431 -0.0359  0.0114
74065W        W16977  18.204  10.786  31.231 -0.1413  0.1556  0.1334
74066W        W16978  17.219  13.795  31.012 -0.1310 -0.0621 -0.0683
74067W        W16979  17.091  11.458  30.402 -0.2226 -0.2097  0.2882
74068W        W16980  16.273  12.744  31.722 -0.1466  0.1267  0.0081
74069W        W16981  15.395  12.114  29.991 -0.3161  0.1713 -0.1051
74070W        W16982  15.249  14.919  30.431 -0.2204 -0.1101  0.4255
74071W        W16983  15.395  13.483   0.742 -0.1348 -0.1191 -0.1498
74072W        W16984  16.516  13.613  29.563 -0.2698  0.0348  0.0025
74073W        W16985  15.378  13.783  31.539  0.2642  0.2740 -0.2005
74074W        W16986  15.909  13.273  31.975 -0.1761  0.0876 -0.0665
74075W        W16987  18.091  13.085  29.702  0.1722  0.3418 -0.0115
74076W        W16988  17.791  11.410  29.392 -0.0951  0.3823  0.0581
74077W        W16989  16.159  11.935  31.037  0.1262  0.1862  0.0513
74078W        W16990  14.504  12.317  31.169 -0.1726 -0.2879  0.0656
74079W        W16991  15.032  14.313  30.521 -0.1256  0.0443  0.1171
74080W        W16992  16.127  13.908  29.824  0.2694 -0.2010  0.1048
74081W        W16993  15.129  13.095  31.353 -0.0433 -0.2078  0.1079
74082W        W16994  16.597  13.376  28.959  0.1025 -0.0272 -0.2383
74083W        W16995  17.251  12.387  30.121 -0.2400  0.0895 -0.0782
74084W        W16996  17.936  11.895  31.274  0.0554  0.0430 -0.1698
74085W        W16997  16.774  12.758  29.914  0.1676  0.2886 -0.0726
74086W        W16998  16.564  14.637  30.152 -0.0166  0.1665  0.1195
74087W        W16999  16.219  13.225  28.646  0.0816 -0.1493  0.2846
74088W        W17000  17.244  12.707  30.652  0.3082  0.0810 -0.2493
74089W        W17001  15.143  11.164  31.043 -0.1110 -0.2199  0.0021
74090W        W17002  16.142  13.408  31.122  0.4210 -0.0759 -0.0929
74091W        W17003  16.943  13.810  29.724 -0.1307  0.1561  0.0690
74092W        W17004  15.766  13.174   0.592 -0.0085  0.0894  0.0979
74093W        W17005  16.322  14.311  30.836 -0.4383 -0.1196 -0.2363
74094W        W17006  17.746  10.456  31.424 -0.1897  0.0274  0.2350
74095W        W17007  16.403  11.201  30.294 -0.1721  0.3714  0.0532
74096W        W17008  17.888  13.829  30.704 -0.0254  0.0735 -0.0086
74097W        W17009  17.224  13.390  29.863 -0.0425  0.3245 -0.1662
74098W        W17010  16.377  14.463  28.129 -0.0088  0.0652 -0.2356
74099W        W17011  18.735  13.494  30.437 -0.1799  0.2462 -0.2901
74100W        W17012  15.002  15.313  30.078  0.0835  0.2210  0.1836
74101W        W17013  16.694  14.179  29.932 -0.3178  0.0243 -0.1177
74102W        W17014  14.132  13.919  29.487 -0.2297  0.0055 -0.0083
74103W        W17015  14.392  12.530  29.780 -0.0473  0.0662  0.0950
74104W        W17016  16.354  12.278  30.670 -0.2240  0.1638  0.1336
74105W        W17017  14.507  14.125  30.386 -0.1200  0.0921 -0.0843
74106W        W17018  14.116  10.500  30.765  0.1393 -0.1810  0.1701
74107W        W17019  17.343  14.638  28.758 -0.0374  0.1710 -0.1620
74108W        W17020  18.278  14.140  30.978 -0.0304 -0.1570 -0.1343
74109W        W17021  19.269  11.728  30.662 -0.0213 -0.1422  0.1057
74110W        W17022  15.514  15.084  16.196  0.1420 -0.0378 -0.0736
74111W        W17023  15.108  14.683  14.778 -0.2361  0.0884 -0.0300
74112W        W17024  16.797  14.902  14.913  0.0126  0.0799 -0.4439
74113W        W17025  16.293  15.939  15.458 -0.1068 -0.0823  0.1111
74114W        W17026  14.515  16.133  17.144  0.1423 -0.1558 -0.0222
74115W        W17027  17.359  18.186  16.194 -0.0429  0.0630 -0.0544
74116W        W17028  15.574  12.740  17.616 -0.1291  0.0937  0.0295
74117W        W17029  15.520  18.035  16.298  0.3699 -0.0041 -0.3923
74118W        W17030  17.010  18.217  16.844  0.0729 -0.4555 -0.0139
74119W        W17031  17.356  15.842  14.792  0.2581 -0.2084 -0.1398
74120W        W17032  14.694  16.385  18.017 -0.2151  0.2434 -0.0440
74121W        W17033  15.908  18.861  18.148 -0.3158  0.0821 -0.0709
74122W        W17034  15.633  12.123  16.726  0.1957  0.1753  0.0061
74123W        W17035  14.656  14.952  16.847 -0.3567 -0.0234 -0.0674
74124W        W17036  14.651  16.498  16.586 -0.3217  0.1978  0.1456
74125W        W17037  15.348  16.683  14.879 -0.0940 -0.3320 -0.3263
74126W        W17038  15.004  14.161  18.412  0.2420 -0.1516  0.1918
74127W        W17039  13.764  15.698  16.640 -0.0780 -0.2058  0.2136
74128W        W17040  18.420  18.667  16.334  0.2845  0.3638 -0.2561
74129W        W17041  14.132  15.289  18.345 -0.0228  0.0267 -0.1912
74130W        W17042  15.001  15.219  17.100 -0.0723 -0.1135 -0.0952
74131W        W17043  16.430  16.365  15.775 -0.2676 -0.1413 -0.0529
74132W        W17044  13.193  15.534  15.481  0.1604  0.3941 -0.0572
74133W        W17045  13.860  15.914  17.410 -0.1020  0.1355 -0.0287
74134W        W17046  14.411  15.104  19.067 -0.2017  0.2036  0.1405
74135W        W17047  17.813  13.915  16.798 -0.1180  0.1308 -0.0330
74136W        W17048  17.585  15.139  15.869 -0.1744 -0.0940 -0.0194
74137W        W17049  16.531  17.758  16.389 -0.3078  0.0725  0.3983
74138W        W17050  15.630  17.536  16.174  0.0416 -0.0255 -0.0016
74139W        W17051  17.320  16.079  17.193  0.1054  0.3315  0.2317
74140W        W17052  15.149  18.168  16.560  0.3040 -0.2010  0.1710
74141W        W17053  13.707  17.717  16.408 -0.0982 -0.0584  0.1460
74142W        W17054  16.380  18.133  16.056 -0.0074 -0.1207 -0.0735
74143W        W17055  17.062  17.848  16.464  0.1182  0.0580 -0.2588
74144W        W17056  17.383  18.496  17.072 -0.0977  0.2720 -0.0030
74145W        W17057  14.437  19.075  17.510 -0.2131  0.1461 -0.3077
74146W        W17058  14.777  17.294  16.322  0.1206 -0.0600 -0.3279
74147W        W17059  15.615  19.979  17.425  0.1168 -0.1657 -0.1530
74148W        W17060  15.676  18.913  17.675  0.1417  0.0147  0.2216
74149W        W17061  16.856  15.477  15.898 -0.0119  0.2851 -0.0438
74150W        W17062  15.763  17.342  15.249  0.4778 -0.1836  0.0065
74151W        W17063  16.216  17.863  14.580 -0.0321  0.3316  0.1985
74152W        W17064  14.926  16.540  17.021 -0.0390 -0.0426  0.1337
74153W        W17065  15.318  18.430  17.478 -0.1683  0.1769  0.2075
74154W        W17066  14.241  19.156  16.452 -0.2813  0.3119 -0.1326
74155W        W17067  17.627  15.698  16.672 -0.1823  0.0042 -0.1200
74156W        W17068  16.476  17.224  14.556 -0.2058  0.3137 -0.3653
74157W        W17069  16.757  15.405  14.859  0.0065 -0.0119  0.1888
74158W        W17070  16.757  16.657  14.902  0.0655  0.0149 -0.0534
74159W        W17071  14.284  15.714  15.089  0.1059  0.1545 -0.0940
74160W        W17072  14.266  14.638  16.864 -0.0263 -0.3367 -0.3117
74161W        W17073  14.178  19.275  17.011 -0.0815 -0.1593 -0.2298
74162W        W17074  15.947  13.420  15.520  0.0678  0.4704  0.1646
74163W        W17075  16.658  16.745  16.290  0.1071 -0.0405 -0.0846
74164W        W17076  14.366  16.634  15.931  0.1744 -0.3069  0.2695
74165W        W17077  16.692  14.892  16.257 -0.2832  0.1192  0.1386
74166W        W17078  14.740  16.677  19.363 -0.0307  0.3814 -0.0279
74167W        W17079  13.831  17.526  16.868  0.2414 -0.2901 -0.5331
74168W        W17080  17.700  18.017  14.836 -0.2556 -0.0704  0.0056
74169W        W17081  16.937  16.749  16.710  0.1558 -0.1225  0.1135
74170W        W17082  16.651  18.354  15.614  0.1076  0.0119 -0.0289
74171W        W17083  13.937  15.286  16.319 -0.4342  0.2705 -0.0705
74172W        W17084  14.274  17.907  18.686 -0.2066 -0.3813  0.0187
74173W        W17085  14.675  14.534  18.839 -0.1096  0.0754 -0.2800
74174W        W17086  15.338  13.792  16.084 -0.3001 -0.0174 -0.3494
74175W        W17087  16.577  17.320  16.127  0.0391  0.0762  0.0612
74176W        W17088  14.236  17.585  17.218  0.1732  0.3216  0.0418
74177W        W17089  18.014  15.157  16.053  0.2343  0.0652 -0.0895
74178W        W17090  14.415  16.257  16.291  0.0061 -0.2244  0.4725
74179W        W17091  17.396  16.526  16.976  0.0115  0.1259  0.0801
74180W        W17092  17.236  16.682  15.170  0.0518 -0.1007 -0.0038
74181W        W17093  16.897  12.511  17.401  0.0386  0.0021  0.2488
74182W        W17094  17.216  12.477  16.645 -0.4350 -0.3289 -0.1166
74183W        W17095  15.196  15.988  14.518 -0.1307 -0.2642  0.1143
74184W        W17096  15.227  16.601  15.383  0.1049 -0.1216  0.3113
74185W        W17097  17.457  17.588  17.134 -0.1304 -0.0361 -0.0406
74186W        W17098  18.115  16.278  15.888  0.5085 -0.0671  0.0746
74187W        W17099  14.844  18.184  17.433  0.1573  0.4006 -0.0970
74188W        W17100  15.880  14.946  17.498  0.1849  0.0676 -0.0820
74189W        W17101  14.463  16.815  18.026 -0.1054 -0.0552 -0.0470
74190W        W17102  15.118  19.065  16.061 -0.1690 -0.0877  0.1497
74191W        W17103  13.841  16.401  16.134 -0.0177  0.1124  0.4174
74192W        W17104  14.377  17.122  15.499 -0.1830  0.4478  0.1532
74193W        W17105  13.452  14.697  18.169 -0.0740  0.0850 -0.0277
74194W        W17106  15.516  16.705  16.200 -0.2046  0.1172  0.0491
74195W        W17107  17.416  14.836  16.731  0.1538 -0.0131  0.0904
74196W        W17108  13.716  14.667  19.353  0.3087  0.2760  0.0624
74197W        W17109  17.779  13.574  17.150 -0.2374  0.1013  0.3030
74198W        W17110  15.673  18.120  17.311 -0.1768  0.2272  0.2332
74199W        W17111  17.371  18.684  16.038 -0.2552 -0.1256  0.1043
74200W        W17112  16.774  14.371  14.777  0.1154 -0.0822 -0.0913
74201W        W17113  16.515  18.603  15.160 -0.0744 -0.0777  0.1414
74202W        W17114  13.243  16.284  19.366  0.0502 -0.0775 -0.1018
74203W        W17115  15.136  16.788  15.812  0.1011 -0.2801 -0.3177
74204W        W17116  13.532  16.380  19.733  0.0573  0.2971  0.2227
74205W        W17117  14.311  15.224  17.179 -0.1361  0.1349  0.0534
74206W        W17118  17.173  15.028  17.157 -0.4869  0.0888 -0.0522
74207W        W17119  15.229  13.730  14.621 -0.0109  0.3965  0.0197
74208W        W17120  16.662  14.321  16.144  0.0107  0.0494 -0.0974
74209W        W17121  14.495  16.168  15.422 -0.0550  0.0929 -0.0696
74210W        W17122  13.907  17.304  15.572  0.1658 -0.1029  0.0238
74211W        W17123  16.826  15.004  15.783 -0.0024  0.0223  0.0202
74212W        W17124  17.631  19.112  16.150  0.1102 -0.0282  0.0108
74213W        W17125  17.527  17.582  16.574  0.1554 -0.2256 -0.2040
74214W        W17126  16.015  18.762  16.886  0.1183  0.0068  0.2124
74215W        W17127  13.327  15.938  17.493 -0.0847 -0.0593 -0.0194
74216W        W17128  14.585  15.053  15.707  0.0661 -0.1262  0.0930
74217W        W17129  14.409  19.031  15.405  0.2201 -0.2465  0.0262
74218W        W17130  14.493  17.368  16.733  0.0251  0.0956 -0.2628
74219W        W17131  15.363  15.504  15.753  0.1522 -0.2482 -0.0928
74220W        W17132  17.398  17.223  15.657  0.1774 -0.0942  0.1990
74221W        W17133  15.846  16.865  15.155 -0.0809  0.3429 -0.0805
74222W        W17134  14.646  17.313  17.931  0.0589 -0.2060  0.4174
74223W        W17135  16.636  14.468  16.673  0.0457  0.1076 -0.1320
74224W        W17136  16.457  16.586  16.924  0.0194  0.0851  0.1121
74225W        W17137  14.838  16.420  15.943 -0.2644  0.2561 -0.0332
74226W        W17138  15.093  15.236  15.414  0.4523 -0.4198 -0.0786
74227W        W17139  15.603  17.132  15.953  0.1383 -0.2577  0.3227
74228W        W17140  14.290  18.621  15.731 -0.0734 -0.4506 -0.0514
74229W        W17141  13.980  17.209  15.117 -0.0277 -0.0873  0.0979
74230W        W17142  16.797  18.244  16.272  0.1884 -0.0660  0.0719
74231W        W17143  17.944  14.736  15.208  0.2481 -0.1015  0.4749
74232W        W17144  14.370  16.289  18.981 -0.0243  0.0130 -0.1186
74233W        W17145  15.856  15.855  17.016  0.0414  0.1160  0.1961
74234W        W17146  15.679  16.189  14.758 -0.1066  0.2006 -0.2716
74235W        W17147  13.259  17.649  18.676  0.0755 -0.0921  0.0172
74236W        W17148  17.143  13.638  17.325 -0.1890 -0.2493  0.1755
74237W        W17149  16.343  15.495  15.814 -0.1425  0.1429  0.2706
74238W        W17150  15.870  16.445  16.992  0.1957 -0.1386  0.0429
74239W        W17151  17.506  16.253  15.019 -0.0505 -0.4438 -0.1124
74240W        W17152  17.648  15.353  14.803 -0.2306 -0.0105  0.0619
74241W        W17153  17.029  14.688  15.324  0.1761  0.1921  0.2039
74242W        W17154  14.034  15.720  17.941  0.3752 -0.0204 -0.0196
74243W        W17155  15.946  15.947  15.140  0.0538 -0.1151 -0.0009
74244W        W17156  14.741  15.703  17.143  0.3651 -0.2157  0.0884
74245W        W17157  15.188  14.391  15.717  0.0950 -0.0132  0.1266
74246W        W17158  18.712  18.797  14.892 -0.3146  0.3067 -0.1037
74247W        W17159  13.771  16.696  17.812  0.1866  0.1120  0.0042
74248W        W17160  16.291  17.013  16.616  0.0764  0.0235 -0.2178
74249W        W17161  16.552  17.899  15.451 -0.3394  0.1786  0.0529
74250W        W17162  14.566  14.593  17.789  0.0755 -0.0663 -0.1911
74251W        W17163  15.382  16.319  15.832 -0.0489 -0.2863 -0.2863
74252W        W17164  15.206  14.137  16.458  0.1139  0.0469 -0.3287
74253W        W17165  14.540  18.123  15.823  0.0074  0.1909 -0.1186
74254W        W17166  19.095  13.819  16.772 -0.1079 -0.0067  0.0466
74255W        W17167  15.590  14.309  16.029 -0.3645 -0.0875  0.0790
74256W        W17168  15.778  13.725  17.795  0.2310 -0.1440 -0.3818
74257W        W17169  16.698  15.983  16.620  0.5371 -0.1648 -0.1495
74258W        W17170  17.597  15.643  15.198  0.0878 -0.0642  0.2580
74259W        W17171  17.062  14.550  16.419 -0.2309 -0.1928  0.1538
74260W        W17172  13.558  16.447  15.634 -0.1397 -0.0171  0.0880
74261W        W17173  16.384  15.159  16.762  0.4151 -0.0027 -0.0588
74262W        W17174  14.221  15.815  19.252  0.3917  0.1547  0.5257
74263W        W17175  14.670  17.504  18.776  0.2340 -0.0900 -0.2389
74264W        W17176  17.584  16.939  17.218 -0.1562  0.2916 -0.0209
74265W        W17177  16.573  16.303  15.294 -0.2609  0.0924  0.0569
74266W        W17178  14.857  16.176  17.497  0.1194  0.0558  0.1271
74267W        W17179  15.091  15.882  15.897 -0.0698 -0.0772 -0.0903
74268W        W17180  14.722  18.700  15.999 -0.0348 -0.0239 -0.1206
74269W        W17181  16.828  16.876  15.446  0.1045  0.1079  0.3786
74270W        W17182  16.073  15.013  15.641  0.0571 -0.0900 -0.0653
74271W        W17183  16.021  17.735  15.453 -0.1339 -0.1371 -0.1426
74272W        W17184  16.278  17.419  14.974 -0.0195  0.0244  0.0453
74273W        W17185  17.707  16.465  15.428  0.2197 -0.2879 -0.1576
74274W        W17186  14.904  17.257  15.483  0.0623  0.0474  0.0118
74275W        W17187  18.688  14.342  16.757  0.2059  0.1261 -0.1004
74276W        W17188  14.508  18.728  16.434  0.1415 -0.1110  0.0973
74277W        W17189  15.149  16.171  14.979  0.0228  0.0259 -0.0813
74278W        W17190  13.159  15.829  15.925 -0.3973 -0.0898  0.3607
74279W        W17191  16.491  13.959  15.612 -0.1244  0.3866 -0.0528
74280W        W17192  17.715  17.044  15.335 -0.3489  0.1382 -0.2226
74281W        W17193  14.169  14.021  17.483 -0.3665  0.2646 -0.2427
74282W        W17194  14.755  14.460  16.596  0.2145  0.0215  0.2123
74283W        W17195  14.389  17.642  18.151  0.0927  0.1014  0.2060
74284W        W17196  14.698  14.865  17.354 -0.0356  0.0673  0.1853
74285W        W17197  17.740  13.412  16.106 -0.2376  0.0756  0.2460
74286W        W17198  17.172  16.717  16.228 -0.2532  0.1183  0.0489
74287W        W17199  14.099  17.122  18.174 -0.0683 -0.0705 -0.2346
74288W        W17200  14.207  16.670  15.418  0.2120  0.0137 -0.1597
74289W        W17201  15.018  16.994  17.219  0.2043 -0.1317 -0.0891
74290W        W17202  13.211  14.958  17.764 -0.1830 -0.2348 -0.0264
74291W        W17203  14.558  17.209  17.260 -0.2182 -0.2727  0.0958
74292W        W17204  16.119  17.505  16.019 -0.1194  0.4338  0.1884
74293W        W17205  15.422  16.458  14.443 -0.0559  0.0281 -0.2130
74294W        W17206  14.857  18.467  17.889 -0.0145 -0.1672  0.2030
74295W        W17207  13.465  15.203  19.083 -0.2894 -0.1337 -0.0861
74296W        W17208  15.593  15.902  15.922 -0.0259 -0.3319 -0.1090
74297W        W17209  13.884  15.379  17.476 -0.2870 -0.0868  0.1671
74298W        W17210  14.934  16.055  16.694 -0.0472 -0.1940 -0.1670
74299W        W17211  15.579  17.616  16.715 -0.3496  0.0648 -0.0460
74300W        W17212  15.002  17.529  17.417  0.3184  0.0941 -0.0640
74301W        W17213  15.940  15.280  16.985 -0.0458  0.0019 -0.1481
74302W        W17214  15.453  17.176  18.362  0.0778 -0.0877  0.0301
74303W        W17215  16.808  13.978  16.546 -0.1365 -0.0298  0.1190
74304W        W17216  16.931  18.716  15.881 -0.2878 -0.0893 -0.1491
74305W        W17217  15.444  15.572  16.267  0.2197 -0.1059  0.3016
74306W        W17218  15.390  17.141  16.933  0.4831  0.4243  0.0035
74307W        W17219  14.365  16.062  17.795  0.2026 -0.0986  0.2007
74308W        W17220  15.497  18.064  15.751 -0.4072  0.1891 -0.2302
74309W        W17221  15.377  15.709  17.085 -0.0708 -0.2787 -0.1221
74310W        W17222  14.224  17.213  17.660  0.2832 -0.3054  0.3397
74311W        W17223  14.950  17.955  16.041 -0.2732 -0.2030  0.0287
74312W        W17224  14.373  15.384  16.685  0.0504  0.0351  0.1853
74313W        W17225  17.112  14.640  15.825  0.1827 -0.0795 -0.0169
74314W        W17226  15.662  16.727  15.629  0.1141 -0.1404  0.0428
74315W        W17227  16.016  16.379  15.529 -0.2184  0.2023 -0.0629
74316W        W17228  17.683  15.273  17.000 -0.2038 -0.1189  0.0708
74317W        W17229  17.839  15.465  15.626  0.0197  0.0423 -0.0340
74318W        W17230  16.910  14.823  17.534 -0.1014 -0.1588 -0.1243
74319W        W17231  14.214  14.410  18.584 -0.0534  0.1709 -0.0596
74320W        W17232  15.168  16.176  16.279  0.0967  0.1499  0.0881
74321W        W17233  12.339  15.414  18.294 -0.2542 -0.3032 -0.4961
74322W        W17234  15.755  18.596  17.254 -0.1060 -0.1602  0.0274
74323W        W17235  15.693  18.357  17.816  0.2751 -0.0412  0.1497
74324W        W17236  16.011  13.998  15.508  0.0774  0.1998 -0.1332
74325W        W17237  15.203  13.792  15.100 -0.1129 -0.0785 -0.3001
74326W        W17238  15.477  16.753  17.213 -0.0924 -0.3750 -0.0780
74327W        W17239  17.203  16.338  15.492  0.3128 -0.0180  0.1155
74328W        W17240  15.817  17.772  14.869 -0.0128 -0.1492 -0.0072
74329W        W17241  18.479  14.779  15.113 -0.3276  0.0205  0.1101
74330W        W17242  14.708  17.020  15.832  0.1045 -0.2614  0.2463
74331W        W17243  16.950  14.071  15.869  0.0461  0.3555  0.0650
74332W        W17244  14.456  16.938  16.474  0.1749 -0.0248 -0.1918
74333W        W17245  15.405  17.125  15.467  0.0278  0.1220 -0.3127
74334W        W17246  15.242  17.524  17.915  0.0792  0.0783 -0.0718
74335W        W17247  16.377  16.282  16.437 -0.3712 -0.2898  0.1055
74336W        W17248  16.326  12.815  16.240  0.2595 -0.1387 -0.1201
74337W        W17249  16.925  14.957  16.715  0.3702 -0.1797 -0.0671
74338W        W17250  17.313  15.556  15.725 -0.1861 -0.2936 -0.0721
74339W        W17251  14.312  15.685  17.530 -0.0802 -0.1164  0.1121
74340W        W17252  14.445  14.884  18.603  0.1028 -0.1744 -0.2157
74341W        W17253  16.867  18.682  16.948 -0.1080 -0.3037 -0.0397
74342W        W17254  17.228  15.300  14.957 -0.1414  0.0376  0.0354
74343W        W17255  18.090  15.363  17.265 -0.0634 -0.1042  0.0575
74344W        W17256  15.722  14.485  15.612 -0.1552 -0.2387 -0.1981
74345W        W17257  16.317  16.746  15.338  0.0190 -0.0132  0.1451
74346W        W17258  13.576  16.363  17.414 -0.3488  0.0737 -0.0311
74347W        W17259  16.324  15.609  16.566 -0.2440 -0.1157 -0.0669
74348W        W17260  15.484  13.380  16.491  0.4191 -0.0462  0.0500
74349W        W17261  16.715  15.410  16.409  0.0986 -0.0214  0.0004
74350W        W17262  16.717  18.145  15.015  0.1369 -0.3520  0.0870
74351W        W17263  15.917  16.408  16.039 -0.1975  0.1265 -0.2405
74352W        W17264  15.892  15.694  15.570  0.1168  0.0783  0.0072
74353W        W17265  14.230  14.898  16.354  0.0095 -0.0050  0.2294
74354W        W17266  13.277  18.372  17.736 -0.0052 -0.1294 -0.3028
74355W        W17267  14.675  14.512  15.607 -0.2238 -0.1641  0.1064
74356W        W17268  15.858  17.331  14.679  0.2370  0.0713  0.1389
74357W        W17269  15.931  16.642  16.523  0.0154 -0.0299  0.0464
74358W        W17270  18.396  16.091  17.954 -0.2496  0.0641 -0.0389
74359W        W17271  15.797  13.823  16.003 -0.0109  0.2358 -0.0703
74360W        W17272  15.835  15.536  16.571 -0.2890 -0.1377  0.1923
74361W        W17273  13.544  17.218  16.560 -0.2378  0.0577  0.0841
74362W        W17274  16.143  14.153  16.488 -0.1939 -0.0865 -0.0841
74363W        W17275  14.210  17.815  16.651  0.4522 -0.0321 -0.2679
74364W        W17276  14.416  18.589  17.156  0.0377  0.2341 -0.0353
74365W        W17277  15.480  19.041  17.179  0.1897 -0.0611  0.1171
74366W        W17278  17.296  14.167  16.640 -0.0378 -0.1476 -0.0006
74367W        W17279  17.745  14.415  16.494 -0.1104  0.1065 -0.0734
74368W        W17280  15.856  16.935  16.886  0.0408  0.1122 -0.3142
74369W        W17281  17.621  16.426  16.005 -0.2765 -0.1663  0.0931
74370W        W17282  15.400  17.252  17.540  0.2401  0.0984  0.1265
74371W        W17283  13.568  15.760  18.034  0.0521 -0.0563 -0.0773
74372W        W17284  16.901  16.335  16.920 -0.0981 -0.0746 -0.1196
74373W        W17285  15.172  17.392  15.908  0.0624  0.0114 -0.1107
74374W        W17286  16.126  16.907  16.134  0.0446  0.1153 -0.3608
74375W        W17287  13.206  14.713  19.126  0.2419  0.2056  0.1227
74376W        W17288  15.188  15.745  17.516  0.3128  0.0155 -0.2152
74377W        W17289  17.393  13.731  16.905  0.2659  0.0522 -0.0664
74378W        W17290  14.988  13.963  16.955  0.0277  0.1949  0.1078
74379W        W17291  15.022  18.408  15.113 -0.2584  0.2353 -0.1689
74380W        W17292  14.239  19.517  17.931 -0.1573 -0.2482  0.0874
74381W        W17293  13.934  17.540  18.379 -0.0213 -0.2670 -0.1378
74382W        W17294  14.735  18.319  16.335  0.1815  0.1499  0.2185
74383W        W17295  17.227  17.171  15.160  0.0424 -0.0284 -0.1643
74384W        W17296  16.642  15.124  15.352  0.1015 -0.2647 -0.0864
74385W        W17297  17.462  18.004  16.811 -0.0432  0.1945  0.2593
74386W        W17298  15.182  14.188  14.827 -0.0908 -0.2049  0.1435
74387W        W17299  13.846  18.158  16.627 -0.1310 -0.0756 -0.1111
74388W        W17300  15.584  17.591  15.647  0.2085 -0.0963  0.0197
74389W        W17301  16.456  17.402  15.582 -0.0862 -0.4347  0.0736
74390W        W17302  16.059  17.107  15.539 -0.2290 -0.1494 -0.1252
74391W        W17303  18.326  17.982  16.645  0.4031  0.1622 -0.0264
74392W        W17304  16.919  13.598  15.927  0.0166  0.0481  0.2545
74393W        W17305  17.797  14.289  15.307 -0.1407  0.1490  0.0395
74394W        W17306  17.562  14.673  16.099 -0.5023 -0.0119 -0.1446
74395W        W17307  16.484  17.884  16.937 -0.0136 -0.4288 -0.0277
74396W        W17308  14.988  16.753  16.288  0.0175  0.0125 -0.1221
74397W        W17309  13.760  14.670  16.796 -0.2978  0.2550 -0.1463
74398W        W17310  14.723  14.873  16.333 -0.1156 -0.2849 -0.0586
74399W        W17311  17.658  13.387  16.679 -0.1472  0.0248 -0.0211
74400W        W17312  14.401  18.181  17.833  0.3532  0.1936  0.1241
74401W        W17313  17.171  18.288  15.735 -0.0468  0.1502  0.1077
74402W        W17314  14.558  15.872  15.858  0.3789  0.4147  0.1080
74403W        W17315  13.724  16.188  16.639 -0.1694 -0.0304  0.2629
74404W        W17316  16.846  13.481  16.687  0.0234  0.0453  0.2902
74405W        W17317  16.672  15.984  16.095 -0.1232 -0.1289  0.2153
74406W        W17318  16.282  14.280  17.026 -0.1194 -0.0846  0.0520
74407W        W17319  13.449  18.015  16.914  0.1627  0.0424  0.0632
74408W        W17320  14.289  18.072  17.347 -0.0300 -0.1615 -0.1562
74409W        W17321  15.980  19.400  16.970  0.1226  0.0168  0.0898
74410W        W17322  14.765  15.854  15.053  0.0783  0.0905  0.1294
74411W        W17323  17.588  15.734  16.104 -0.0088 -0.1241 -0.0709
74412W        W17324  12.747  16.495  19.219 -0.0658 -0.3828  0.2537
74413W        W17325  16.430  13.865  16.078  0.0558  0.1224  0.0737
74414W        W17326  14.587  16.766  17.437  0.0900 -0.0450  0.0086
74415W        W17327  16.350  14.744  15.942 -0.0993 -0.1293  0.6031
74416W        W17328  15.293  17.165  16.394  0.0136 -0.1471  0.2964
74417W        W17329  13.861  14.875  18.938 -0.3220 -0.1506  0.0886
74418W        W17330  15.734  15.274  15.397 -0.2899  0.0879  0.0992
74419W        W17331  18.226  16.559  17.587  0.4381 -0.1401  0.1463
74420W        W17332  15.382  15.525  15.050 -0.3090  0.0747  0.2785
74421W        W17333  17.056  18.291  17.603 -0.0283 -0.1315  0.2584
74422W        W17334  13.985  16.056  18.804 -0.1701 -0.2894  0.3086
74423W        W17335  15.542  14.221  15.165  0.2766 -0.0624 -0.3726
74424W        W17336  13.897  16.801  15.811 -0.2296  0.2474 -0.1223
74425W        W17337  14.664  15.291  17.669 -0.0500  0.1210  0.1796
74426W        W17338  16.774  17.814  15.881 -0.0992  0.1162 -0.1827
74427W        W17339  14.110  13.819  16.240 -0.2008  0.0929 -0.4442
74428W        W17340  17.756  18.099  15.340 -0.0391  0.4419  0.3380
74429W        W17341  15.851  14.742  16.041 -0.3070 -0.2000  0.2582
74430W        W17342  15.545  18.592  15.497 -0.1303  0.0016  0.1630
74431W        W17343  17.356  16.747  15.744 -0.2204  0.2488  0.0008
74432W        W17344  17.200  17.428  16.147  0.0767 -0.0407 -0.3106
74433W        W17345  13.314  14.607  17.021 -0.2262  0.2915 -0.3135
74434W        W17346  17.259  17.169  16.573 -0.1147  0.2104  0.0697
74435W        W17347  18.108  16.838  17.181 -0.0033 -0.2626  0.0232
74436W        W17348  14.972  15.372  16.046 -0.4590 -0.3197 -0.0694
74437W        W17349  13.412  15.466  17.668  0.2013  0.1921 -0.0021
74438W        W17350  13.683  19.261  16.044  0.2823  0.0041  0.1274
74439W        W17351  17.513  14.679  15.525  0.0001 -0.0478  0.1651
74440W        W17352  16.659  14.833  17.089  0.0947 -0.2759 -0.0862
74441W        W17353  15.956  17.959  15.951  0.3073 -0.3579 -0.1427
74442W        W17354  18.454  13.839  16.008 -0.1360 -0.1673 -0.1605
74443W        W17355  15.796  17.160  16.459  0.0031  0.1177  0.2616
74444W        W17356  16.208  18.076  17.419  0.3093 -0.1261  0.0606
74445W        W17357  14.767  16.481  15.036  0.0972 -0.0737  0.0555
74446W        W17358  15.208  16.525  18.131 -0.2308 -0.3070  0.0832
74447W        W17359  14.324  18.257  16.741  0.0126  0.5021 -0.0294
74448W        W17360  16.730  17.153  15.070 -0.1616 -0.1237  0.1577
74449W        W17361  16.900  16.510  15.865 -0.0238  0.2169  0.3950
74450W        W17362  15.628  18.096  16.816 -0.3713  0.2365 -0.0174
74451W        W17363  17.910  18.587  15.327  0.1538 -0.0633  0.0314
74452W        W17364  13.435  15.517  17.090 -0.2057 -0.1355 -0.0273
74453W        W17365  17.243  15.336  16.717  0.1053 -0.2347 -0.0094
74454W        W17366  15.890  13.665  16.513 -0.1350 -0.0064 -0.1848
74455W        W17367  13.915  14.915  17.249 -0.0235  0.3477 -0.1310
74456W        W17368  14.244  15.277  15.413 -0.2115  0.1319 -0.0438
74457W        W17369  15.391  17.134  14.955  0.1359  0.2421  0.0176
74458W        W17370  14.146  16.503  17.509 -0.2553  0.0032  0.1418
74459W        W17371  15.142  15.242  17.548 -0.0013 -0.2307 -0.3225
74460W        W17372  13.806  14.332  17.810 -0.0070 -0.0173 -0.2407
74461W        W17373  14.893  16.976  16.753  0.2480  0.2811  0.1310
74462W        W17374  14.988  16.155  15.501  0.0424  0.0842  0.0886
74463W        W17375  17.469  17.598  15.311  0.0285 -0.2844 -0.0394
74464W        W17376  15.225  14.830  17.290 -0.0930  0.0176  0.0200
74465W        W17377  14.857  14.422  16.080  0.5523 -0.2860  0.0872
74466W        W17378  17.030  15.735  15.179 -0.2399 -0.1356  0.0959
74467W        W17379  16.959  17.444  15.557 -0.1827 -0.2864  0.1014
74468W        W17380  15.107  14.351  17.380 -0.0696  0.2617 -0.1768
74469W        W17381  14.028  15.052  15.872  0.0900 -0.0632 -0.2438
74470W        W17382  15.800  15.023  16.596  0.0836 -0.0483 -0.0935
74471W        W17383  16.248  15.140  16.271  0.2404 -0.0686 -0.2544
74472W        W17384  14.780  14.866  15.272  0.1950  0.0125  0.2856
74473W        W17385  14.445  14.097  16.791 -0.1764 -0.5859 -0.0257
74474W        W17386  15.918  16.044  16.471 -0.2251 -0.2825  0.1219
74475W        W17387  17.388  17.796  15.781  0.1383 -0.2289 -0.1249
74476W        W17388  14.001  16.912  17.350  0.0312  0.2892  0.0625
74477W        W17389  16.734  17.195  16.590  0.1966  0.2099  0.1772
74478W        W17390  15.522  13.449  18.914 -0.1272  0.0687 -0.2085
74479W        W17391  16.968  17.029  15.867 -0.1500 -0.1917 -0.2038
74480W        W17392  15.454  16.130  17.307  0.1455 -0.3630  0.3180
74481W        W17393  17.686  17.631  16.121 -0.0059  0.0278  0.4418
74482W        W17394  17.184  15.162  15.486  0.1118 -0.1046 -0.1903
74483W        W17395  15.887  15.419  16.013  0.0648  0.1111  0.0298
74484W        W17396  15.581  15.314  17.870 -0.1341  0.0565  0.0121
74485W        W17397  14.062  16.576  18.238 -0.2259  0.2600 -0.2271
74486W        W17398  18.010  16.070  17.470  0.1123  0.1567  0.1166
74487W        W17399  15.034  14.884  15.919  0.0956  0.1622  0.2081
74488W        W17400  16.175  14.271  15.915  0.1783  0.2043 -0.3006
74489W        W17401  16.235  17.940  15.078  0.0929  0.1272 -0.3891
74490W        W17402  14.189  16.878  18.591  0.0674 -0.2129 -0.0350
74491W        W17403  16.360  15.688  14.976  0.0360  0.0566  0.1829
74492W        W17404  15.477  17.632  17.216 -0.2857 -0.0991 -0.2541
74493W        W17405  15.430  15.884  15.456  0.1397  0.1846  0.4211
74494W        W17406  16.159  16.688  17.349 -0.0911 -0.0492 -0.0408
74495W        W17407  14.327  15.942  16.691 -0.1499 -0.1395 -0.4216
74496W        W17408  18.555  15.913  15.275 -0.2888 -0.0965 -0.0462
74497W        W17409  15.957  21.194  17.859 -0.1194 -0.4230 -0.2639
74498W        W17410  17.453  18.066  17.314  0.0859 -0.1099  0.0223
74499W        W17411  15.951  17.739  17.104  0.0267  0.0685  0.4298
74500W        W17412  16.488  16.862  15.781 -0.2609 -0.0791  0.3248
74501W        W17413  13.914  13.863  18.036 -0.1031  0.0506  0.2055
74502W        W17414  14.050  16.298  15.679  0.1169  0.0470  0.0984
74503W        W17415  16.027  15.827  14.613 -0.0869 -0.0934 -0.1458
74504W        W17416  15.428  16.182  16.722 -0.1412  0.0515  0.2278
74505W        W17417  13.802  14.362  17.256  0.2202  0.2615 -0.4903
74506W        W17418  15.908  14.755  15.145  0.0087  0.0887  0.2240
74507W        W17419  15.054  17.529  16.902 -0.0453  0.1119 -0.0822
74508W        W17420  14.841  15.816  17.865 -0.1111  0.0103 -0.1042
74509W        W17421  15.466  15.768  19.885  0.3280  0.2556 -0.0013
74510W        W17422  13.885  14.179  19.043  0.1800 -0.2260 -0.2465
74511W        W17423  17.607  15.251  17.527 -0.2547  0.1470 -0.0625
74512W        W17424  12.634  14.404  20.000  0.1205 -0.2452  0.1390
74513W        W17425  17.203  17.677  17.588  0.0376  0.1215  0.0156
74514W        W17426  14.783  14.678  20.346 -0.0552  0.0711 -0.3338
74515W        W17427  18.036  17.667  18.893  0.1549  0.0100 -0.0719
74516W        W17428  15.444  15.239  16.925 -0.1327 -0.1268 -0.0203
74517W        W17429  15.201  17.332  19.306  0.2455 -0.0760 -0.0592
74518W        W17430  15.808  14.799  19.492  0.0462  0.3191  0.3209
74519W        W17431  14.824  13.651  20.873 -0.2675 -0.0158 -0.5053
74520W        W17432  13.906  16.122  19.498  0.1321 -0.3068 -0.1666
74521W        W17433  14.560  16.231  19.986  0.0086  0.0830  0.0216
74522W        W17434  14.559  14.518  19.769 -0.1153 -0.0207 -0.1054
74523W        W17435  15.755  18.383  18.278  0.2012 -0.3892  0.2260
74524W        W17436  14.373  14.311  20.202  0.1835  0.2153 -0.1690
74525W        W17437  13.878  17.409  19.378  0.0190 -0.1174 -0.1789
74526W        W17438  13.030  15.994  18.972  0.0195  0.0729 -0.0707
74527W        W17439  13.801  15.632  19.601 -0.3915  0.0249 -0.2270
74528W        W17440  15.010  15.500  19.893  0.1914  0.1858  0.0019
74529W        W17441  16.756  14.362  18.416 -0.2383 -0.0531  0.1217
74530W        W17442  14.830  17.955  17.955 -0.1062  0.0073 -0.1621
74531W        W17443  16.805  18.391  18.153  0.0964 -0.1112  0.1049
74532W        W17444  13.305  16.130  20.215 -0.2683 -0.0952  0.1725
74533W        W17445  10.751  16.708  20.573 -0.3636  0.0091 -0.1835
74534W        W17446  15.029  16.425  18.817  0.0512  0.1845  0.1277
74535W        W17447  17.557  15.967  18.805 -0.1109  0.1405  0.0993
74536W        W17448  17.700  17.730  19.598 -0.3302 -0.2361  0.2832
74537W        W17449  14.862  18.491  18.385  0.1925 -0.2888 -0.0621
74538W        W17450  15.128  17.847  21.452  0.0818  0.3009 -0.0739
74539W        W17451  13.772  18.192  18.893 -0.0058 -0.1281 -0.4559
74540W        W17452  15.202  17.301  18.749 -0.0911 -0.1629 -0.0302
74541W        W17453  15.941  15.843  20.206 -0.0256  0.1804  0.2501
74542W        W17454  14.373  16.849  19.018  0.0171 -0.0032 -0.5849
74543W        W17455  14.462  18.388  19.591 -0.0249  0.2390  0.0395
74544W        W17456  16.172  14.776  17.126  0.0466 -0.3365  0.2283
74545W        W17457  14.689  15.323  18.509 -0.0781 -0.1202  0.1277
74546W        W17458  16.623  13.922  18.784 -0.0133  0.0735  0.2279
74547W        W17459  15.618  17.154  18.860 -0.4407 -0.1756 -0.1048
74548W        W17460  13.488  14.627  20.202 -0.1996  0.1123 -0.5506
74549W        W17461  18.317  16.506  19.262 -0.3588 -0.2770 -0.3590
74550W        W17462  14.986  14.745  18.510  0.0928  0.0050 -0.2245
74551W        W17463  16.632  15.043  19.313  0.2378  0.0548  0.2142
74552W        W17464  14.671  15.767  19.574  0.1113 -0.0411 -0.1167
74553W        W17465  14.742  16.037  19.035  0.2810  0.0161  0.2182
74554W        W17466  17.849  19.322  16.945  0.0919  0.1039 -0.2690
74555W        W17467  17.566  17.424  17.843 -0.0177 -0.1030 -0.2034
74556W        W17468  16.456  17.014  17.635  0.2013 -0.0707 -0.0348
74557W        W17469  14.772  15.805  18.395  0.0798 -0.1050  0.4609
74558W        W17470  14.315  16.418  20.686  0.0468 -0.0051  0.4139
74559W        W17471  13.804  16.976  20.495  0.0927  0.1211 -0.3505
74560W        W17472  15.387  14.521  18.242 -0.0017 -0.0139  0.1319
74561W        W17473  18.637  16.811  19.566  0.0166  0.0730 -0.1675
74562W        W17474  14.553  17.211  21.313 -0.1798 -0.0032 -0.0878
74563W        W17475  15.681  16.868  19.375 -0.0619 -0.2455 -0.1261
74564W        W17476  16.946  16.863  19.377 -0.0009 -0.2694  0.1435
74565W        W17477  17.198  16.106  15.953  0.1388  0.1390 -0.1179
74566W        W17478  16.463  12.986  18.217  0.1668  0.0156  0.1724
74567W        W17479  13.914  17.734  18.947  0.1314 -0.1517  0.1748
74568W        W17480  14.479  15.517  18.038 -0.1098 -0.2858 -0.0942
74569W        W17481  17.867  17.068  19.094 -0.4040  0.0897 -0.3691
74570W        W17482  17.738  15.741  17.195  0.3696  0.0211 -0.0796
74571W        W17483  15.095  17.445  20.092  0.2085  0.2238 -0.2078
74572W        W17484  14.697  18.166  18.810 -0.0670  0.1121 -0.1432
74573W        W17485  14.519  17.109  20.062  0.2654  0.2512 -0.0614
74574W        W17486  12.707  16.969  19.425 -0.0264 -0.1210  0.0179
74575W        W17487  13.827  13.675  21.669  0.1614 -0.1937  0.3506
74576W        W17488  14.259  17.876  19.632 -0.1609  0.3228  0.1501
74577W        W17489  18.011  13.590  18.191 -0.3346 -0.0344 -0.0406
74578W        W17490  13.804  14.566  20.729  0.2319 -0.0129 -0.1428
74579W        W17491  17.441  13.767  17.978  0.3598 -0.1050 -0.1643
74580W        W17492  13.745  15.968  19.991 -0.2343 -0.2586 -0.0893
74581W        W17493  18.661  15.100  17.598  0.0163  0.0361 -0.0143
74582W        W17494  17.941  17.448  17.227 -0.0290  0.1886  0.2270
74583W        W17495  13.961  15.079  21.332 -0.0609  0.4388  0.1140
74584W        W17496  15.091  14.616  19.157 -0.1144  0.2856 -0.2222
74585W        W17497  14.098  15.947  20.795 -0.2264 -0.0916  0.2404
74586W        W17498  14.340  13.263  19.278 -0.0550  0.1019 -0.0343
74587W        W17499  14.680  15.529  19.135  0.1632  0.0733 -0.1625
74588W        W17500  11.346  16.978  19.948  0.0403  0.0163  0.2000
74589W        W17501  16.300  18.966  17.893  0.2820  0.0172 -0.0479
74590W        W17502  16.700  17.997  18.495  0.1177  0.0141  0.0960
74591W        W17503  15.194  14.502  20.115 -0.5135 -0.0976  0.0501
74592W        W17504  15.780  14.844  18.113  0.0445 -0.0354  0.1290
74593W        W17505  14.695  18.224  21.545  0.2825 -0.0663 -0.0070
74594W        W17506  14.988  17.461  18.308 -0.1195  0.0693  0.0677
74595W        W17507  15.535  14.704  17.753 -0.0047 -0.2176  0.0431
74596W        W17508  16.451  15.911  18.081  0.1687 -0.1200  0.0650
74597W        W17509  14.312  16.853  20.493  0.0641  0.1764  0.0353
74598W        W17510  15.720  15.272  18.446 -0.0448 -0.0935  0.2257
74599W        W17511  13.397  14.757  19.685  0.1395 -0.1427 -0.0001
74600W        W17512  16.922  18.845  18.303 -0.2033 -0.1846  0.6391
74601W        W17513  14.968  17.053  19.760  0.0909  0.1227 -0.1501
74602W        W17514  14.125  16.117  20.320 -0.1502  0.0800 -0.0326
74603W        W17515  14.008  17.268  21.945  0.0777 -0.0016 -0.0195
74604W        W17516  16.329  14.513  19.575 -0.0139  0.4571 -0.3615
74605W        W17517  13.701  16.509  19.200  0.2603 -0.5228 -0.0084
74606W        W17518  14.552  17.704  20.225  0.2003  0.1429 -0.2797
74607W        W17519  16.555  13.419  18.556 -0.4894  0.3668 -0.1454
74608W        W17520  18.621  14.639  17.594  0.4259 -0.2952  0.1894
74609W        W17521  16.829  15.936  17.150  0.2441 -0.1030  0.1176
74610W        W17522  16.596  13.857  17.402 -0.2728  0.1453  0.2222
74611W        W17523  15.543  13.974  18.209 -0.2752 -0.0521  0.1235
74612W        W17524  14.757  18.193  20.523 -0.3848  0.2839  0.0006
74613W        W17525  15.469  17.338  19.799 -0.3114  0.1233 -0.1191
74614W        W17526  16.407  14.669  17.580 -0.0212 -0.2835 -0.0698
74615W        W17527  14.414  16.170  21.128 -0.0991  0.1396  0.1924
74616W        W17528  15.877  17.143  19.953  0.1792  0.2271 -0.2334
74617W        W17529  16.023  14.225  19.280 -0.2449  0.1610 -0.0247
74618W        W17530  15.412  16.071  17.782  0.0434  0.1021 -0.3831
74619W        W17531  15.850  14.318  18.577  0.1299  0.0128  0.0909
74620W        W17532  12.983  17.903  19.611 -0.0762 -0.3699 -0.0512
74621W        W17533  17.493  14.176  19.359  0.0310  0.2356 -0.0392
74622W        W17534  16.357  14.331  18.858  0.0706 -0.0172  0.2414
74623W        W17535  15.384  13.339  19.539 -0.1218 -0.1615 -0.0046
74624W        W17536  16.757  15.471  16.916 -0.2977  0.2521 -0.1605
74625W        W17537  13.777  16.136  18.323  0.3554  0.1418  0.3270
74626W        W17538  15.048  15.994  19.812 -0.0674 -0.0455 -0.0269
74627W        W17539  15.119  17.878  19.701  0.3208  0.0195  0.1326
74628W        W17540  15.201  14.927  21.062  0.1051 -0.0208  0.0187
74629W        W17541  15.936  14.849  18.620  0.1213  0.0017 -0.1656
74630W        W17542  14.058  19.119  19.114 -0.2412  0.0293  0.0443
74631W        W17543  14.509  17.191  18.415 -0.2252  0.1668 -0.1593
74632W        W17544  14.667  14.760  19.344  0.1931 -0.1257 -0.0498
74633W        W17545  16.012  17.894  19.282 -0.0187  0.2997  0.2223
74634W        W17546  14.671  16.259  18.533  0.0559 -0.1076 -0.2535
74635W        W17547  14.400  18.636  18.198  0.1171  0.0563  0.0219
74636W        W17548  17.034  12.496  19.211  0.0339  0.0556  0.1099
74637W        W17549  13.892  18.283  19.442  0.3128  0.1400  0.1561
74638W        W17550  15.287  16.548  17.628  0.0481 -0.0756 -0.0754
74639W        W17551  13.097  15.971  20.653  0.0861  0.0404  0.0584
74640W        W17552  14.307  15.376  19.547 -0.1325  0.0656  0.1374
74641W        W17553  15.449  14.905  18.595 -0.0195 -0.2459  0.1845
74642W        W17554  13.638  18.433  21.186 -0.0965  0.1120 -0.0324
74643W        W17555  17.336  14.547  17.431 -0.2629  0.1003 -0.2492
74644W        W17556  16.433  17.452  19.210  0.3684 -0.1257  0.1953
74645W        W17557  14.911  15.064  18.943  0.1183  0.0204  0.2062
74646W        W17558  16.870  14.433  19.667  0.0595 -0.2528 -0.1924
74647W        W17559  14.598  14.522  18.273 -0.2591 -0.1021 -0.3326
74648W        W17560  14.346  17.061  19.534 -0.2358  0.0153  0.2817
74649W        W17561  16.551  18.593  18.662 -0.0328  0.1070  0.1953
74650W        W17562  14.282  16.003  18.260  0.0464  0.0519  0.0819
74651W        W17563  13.826  16.906  19.622 -0.1351 -0.1612  0.2199
74652W        W17564  17.286  16.160  19.984  0.1235 -0.0296 -0.0263
74653W        W17565  14.501  15.483  20.002  0.0130  0.1039 -0.0872
74654W        W17566  13.301  14.140  18.774  0.1541 -0.2489 -0.0598
74655W        W17567  15.073  15.429  18.116  0.1487 -0.1461  0.3131
74656W        W17568  16.555  16.232  20.000  0.0888 -0.3285  0.2108
74657W        W17569  16.463  13.965  18.297 -0.1124 -0.0522 -0.2147
74658W        W17570  13.835  16.525  18.694 -0.2491 -0.1170  0.1878
74659W        W17571  14.697  16.634  20.320 -0.0919 -0.1478 -0.1891
74660W        W17572  14.763  17.158  19.116 -0.2018  0.0629  0.0695
74661W        W17573  16.557  14.841  19.882 -0.0163  0.2269  0.1712
74662W        W17574  13.644  17.272  19.872 -0.0211  0.0661  0.1025
74663W        W17575  15.004  16.909  18.339 -0.3012 -0.5954  0.0188
74664W        W17576  14.419  19.085  20.856 -0.0060 -0.2659  0.1543
74665W        W17577  18.405  12.170  17.175 -0.0885 -0.2375 -0.0502
74666W        W17578  16.695  16.616  17.383 -0.1062  0.1388  0.0868
74667W        W17579  14.070  15.635  20.259 -0.0394  0.0111  0.0319
74668W        W17580  17.037  16.334  17.623  0.0553  0.0194  0.2292
74669W        W17581  17.260  14.471  20.091  0.0073  0.1050 -0.1332
74670W        W17582  15.360  14.088  19.822 -0.3351  0.1767  0.0875
74671W        W17583  14.489  15.161  20.468 -0.0509 -0.0924 -0.1017
74672W        W17584  16.856  18.049  20.581 -0.1324  0.0715 -0.0822
74673W        W17585  14.398  17.836  20.668 -0.0533 -0.2438  0.0422
74674W        W17586  16.030  12.983  18.485  0.2403 -0.1509  0.2734
74675W        W17587  15.557  15.548  18.993 -0.0698 -0.0058 -0.1546
74676W        W17588  17.093  17.931  18.795  0.0078 -0.2303 -0.1367
74677W        W17589  15.866  15.819  17.805 -0.2727 -0.3101 -0.3677
74678W        W17590  14.033  17.293  21.397 -0.0297 -0.2056 -0.1270
74679W        W17591  17.747  15.802  18.303 -0.2018 -0.1667  0.2187
74680W        W17592  15.003  16.965  17.765  0.0525  0.1471 -0.2476
74681W        W17593  15.218  16.101  19.385  0.0445 -0.3951 -0.1624
74682W        W17594  14.112  14.326  19.586 -0.3728  0.1303 -0.3069
74683W        W17595  15.781  16.492  20.201  0.0650  0.1208  0.2374
74684W        W17596  14.120  16.475  21.497 -0.0455 -0.3052  0.3723
74685W        W17597  17.193  15.818  16.808 -0.0523 -0.1361  0.2374
74686W        W17598  14.031  15.274  19.926 -0.3627  0.0208 -0.0029
74687W        W17599  13.966  14.751  18.322  0.0828  0.0743 -0.2025
74688W        W17600  16.928  16.222  21.226  0.1786  0.2117 -0.0576
74689W        W17601  16.705  18.331  17.261 -0.1565  0.2081  0.2070
74690W        W17602  18.296  16.275  18.823 -0.1016 -0.2341 -0.1038
74691W        W17603  13.856  15.124  20.438 -0.1687 -0.0900  0.1444
74692W        W17604  14.972  19.081  20.662 -0.0225  0.1839  0.2120
74693W        W17605  13.992  15.386  19.057 -0.1179  0.0047  0.1293
74694W        W17606  14.680  16.814  18.696 -0.3430 -0.1694  0.0107
74695W        W17607  15.758  17.364  19.357  0.0433  0.2180 -0.1571
74696W        W17608  18.157  16.562  20.269 -0.0583  0.0120 -0.3357
74697W        W17609  15.956  14.475  17.800  0.1725  0.0777  0.2536
74698W        W17610  17.697  15.551  19.991  0.1293 -0.1865  0.1361
74699W        W17611  14.340  17.534  19.211  0.1339 -0.0777 -0.1505
74700W        W17612  17.447  13.687  18.458 -0.3653  0.1623  0.0679
74701W        W17613  14.216  17.381  20.483 -0.0130  0.0975 -0.0703
74702W        W17614  13.683  16.820  21.385  0.0394 -0.0952  0.1281
74703W        W17615  15.205  17.959  17.646 -0.2528  0.1518  0.3694
74704W        W17616  16.123  14.001  19.696 -0.1124  0.1470 -0.2623
74705W        W17617  15.443  16.340  19.803 -0.3011  0.2897  0.0255
74706W        W17618  14.770  15.125  19.623 -0.1180 -0.2284 -0.0351
74707W        W17619  16.636  17.203  19.570  0.1458  0.2093  0.1939
74708W        W17620  18.152  15.204  18.861  0.1327 -0.0423 -0.0875
74709W        W17621  14.485  16.657  19.819 -0.1333  0.0128  0.3199
74710W        W17622  13.604  15.905  22.325  0.2197  0.0574 -0.0782
74711W        W17623  16.257  16.694  20.150 -0.0569  0.1845 -0.1056
74712W        W17624  15.842  16.606  18.918  0.1792  0.1613 -0.1329
74713W        W17625  15.010  14.180  18.972  0.0061  0.2417  0.2021
74714W        W17626  16.325  16.068  16.942 -0.4773 -0.0373 -0.1217
74715W        W17627  15.044  17.766  20.484  0.0375 -0.0935  0.1832
74716W        W17628  14.735  16.153  20.548  0.1529  0.1007 -0.1198
74717W        W17629  15.221  18.098  20.116  0.0751 -0.2154  0.0136
74718W        W17630  16.145  18.973  19.032 -0.2025 -0.1285  0.3418
74719W        W17631  14.162  15.075  17.861 -0.3057  0.0760  0.0710
74720W        W17632  15.058  17.708  19.023  0.2879  0.2224  0.1521
74721W        W17633  14.879  19.017  17.740 -0.0713  0.2119  0.2446
74722W        W17634  18.392  17.170  17.524  0.2730  0.0293  0.0784
74723W        W17635  13.585  18.518  19.846  0.4432  0.1086  0.3256
74724W        W17636  17.600  17.524  20.063 -0.0943 -0.3101 -0.4374
74725W        W17637  18.671  12.988  17.155  0.1598  0.1566  0.2335
74726W        W17638  17.390  16.594  19.292 -0.0661  0.1481 -0.1864
74727W        W17639  18.107  15.131  17.727  0.3644 -0.0544  0.1863
74728W        W17640  16.369  17.178  20.039  0.2761 -0.1210  0.0906
74729W        W17641  16.236  13.695  19.181  0.0210  0.3965  0.2934
74730W        W17642  14.874  18.714  21.655  0.0704  0.1348  0.1632
74731W        W17643  18.050  18.401  17.870  0.0049  0.4272 -0.3991
74732W        W17644  14.149  16.549  19.378  0.1237  0.2316 -0.2763
74733W        W17645  15.203  16.128  18.449  0.0043 -0.2296 -0.0610
74734W        W17646  19.331  12.108  20.475  0.1337 -0.0524  0.1997
74735W        W17647  15.508  16.929  17.874 -0.0709 -0.1590 -0.0541
74736W        W17648  15.454  17.782  19.319 -0.3184 -0.2637  0.1708
74737W        W17649  14.225  18.092  19.139  0.0181  0.1006 -0.1319
74738W        W17650  13.315  15.848  19.649 -0.0583 -0.3360 -0.1402
74739W        W17651  19.337  15.385  18.622  0.1027 -0.0399 -0.0356
74740W        W17652  14.509  15.672  20.685 -0.1533 -0.1466  0.0475
74741W        W17653  14.337  15.652  18.675  0.2361  0.0085  0.0540
74742W        W17654  18.147  15.415  18.157  0.1550 -0.0493 -0.0227
74743W        W17655  14.262  15.119  20.947 -0.2939  0.1539  0.3526
74744W        W17656  15.494  14.245  17.674 -0.1621  0.1268  0.2147
74745W        W17657  15.103  15.193  16.501 -0.0320 -0.1636  0.1411
74746W        W17658  17.340  18.039  19.793 -0.1542  0.0187 -0.3048
74747W        W17659  13.342  15.448  20.577 -0.1765  0.0765 -0.1359
74748W        W17660  17.063  14.581  16.993 -0.0905  0.3077  0.1302
74749W        W17661  15.181  16.854  18.954  0.1057 -0.1880  0.2024
74750W        W17662  16.075  15.092  19.871 -0.0141  0.2927 -0.0520
74751W        W17663  13.601  15.069  20.023  0.0212 -0.2138 -0.3039
74752W        W17664  17.035  16.925  17.209 -0.0299 -0.2692 -0.0328
74753W        W17665  17.856  15.415  19.418 -0.1811  0.2581  0.0852
74754W        W17666  13.834  18.740  19.451  0.1674  0.2558 -0.1758
74755W        W17667  18.957  15.535  18.350 -0.1577  0.0166 -0.0234
74756W        W17668  17.261  18.368  18.125 -0.3292 -0.0357  0.1952
74757W        W17669  12.897  15.777  21.143  0.1037  0.1744  0.2920
74758W        W17670  16.098  13.858  18.721  0.1806 -0.0956 -0.4339
74759W        W17671  14.234  15.857  19.787  0.1874  0.0434 -0.1956
74760W        W17672  12.867  18.749  19.156 -0.0624 -0.1196 -0.0538
74761W        W17673  17.338  14.608  19.628 -0.0423  0.0067  0.0279
74762W        W17674  15.278  19.273  17.598  0.2990  0.1978  0.1086
74763W        W17675  17.689  14.268  20.428  0.2755 -0.0371  0.1797
74764W        W17676  15.526  17.714  20.206 -0.1743 -0.2736  0.1949
74765W        W17677  14.149  17.416  19.857  0.1127  0.2007  0.1868
74766W        W17678  15.728  16.334  19.340 -0.3353 -0.2419 -0.0251
74767W        W17679  15.383  18.364  18.548  0.1036  0.0308 -0.1800
74768W        W17680  16.126  15.408  17.749  0.0042  0.1821  0.0566
74769W        W17681  15.695  14.596  19.051 -0.1282  0.1305 -0.0422
74770W        W17682  17.616  14.239  18.313 -0.0505  0.1007 -0.0699
74771W        W17683  17.150  14.480  17.924  0.0478  0.4297 -0.1165
74772W        W17684  15.188  15.500  19.359  0.2075 -0.1187  0.1011
74773W        W17685  12.699  15.797  19.478  0.5147  0.0461  0.4515
74774W        W17686  13.061  17.268  19.003 -0.0063 -0.0491  0.0179
74775W        W17687  15.134  15.773  18.905  0.1560 -0.0136  0.3544
74776W        W17688  14.051  15.763  22.064 -0.0719 -0.0371  0.1262
74777W        W17689  13.567  16.794  20.058 -0.1614 -0.3976  0.0843
74778W        W17690  12.255  14.573  22.198  0.0031 -0.3476  0.1438
74779W        W17691  17.753  16.450  17.319  0.0216 -0.3397 -0.0046
74780W        W17692  14.788  14.131  20.106  0.0532  0.0842  0.0313
74781W        W17693  13.747  15.003  21.786  0.0708  0.3676 -0.0068
74782W        W17694  16.214  17.604  17.781  0.1577  0.2124  0.0142
74783W        W17695  17.889  17.307  18.271  0.0019  0.0473  0.0641
74784W        W17696  14.522  14.205  19.237 -0.0426 -0.1452  0.2769
74785W        W17697  18.441  17.548  19.730 -0.0894  0.0341  0.1608
74786W        W17698  14.100  18.452  19.878 -0.0078 -0.0665  0.0307
74787W        W17699  14.413  14.988  20.000 -0.2382 -0.0995 -0.5214
74788W        W17700  16.160  14.566  18.262 -0.0745 -0.1080  0.2287
74789W        W17701  16.351  17.576  17.318 -0.2485 -0.4627 -0.2545
74790W        W17702  16.519  18.386  17.715  0.3202 -0.1707  0.0672
74791W        W17703  15.758  17.719  19.713 -0.0177  0.0586  0.0150
74792W        W17704  14.799  13.693  20.357 -0.2496  0.3756  0.1227
74793W        W17705  17.469  16.581  17.731 -0.2108 -0.1149 -0.0873
74794W        W17706  18.281  14.226  19.171  0.2470 -0.3402 -0.0523
74795W        W17707  16.848  16.120  18.271  0.0187 -0.2136  0.0571
74796W        W17708  13.653  14.481  22.568  0.2529 -0.2561 -0.0238
74797W        W17709  15.237  16.497  20.324  0.3326  0.0463 -0.1789
74798W        W17710  13.180  14.323  19.939  0.0410  0.0540 -0.0342
74799W        W17711  16.151  14.044  17.535 -0.3048 -0.0474 -0.2369
74800W        W17712  14.821  15.792  20.227 -0.0106  0.0501  0.1338
74801W        W17713  15.276  14.979  18.073  0.0087  0.0869  0.2424
74802W        W17714  16.091  17.058  19.054  0.1460  0.1288 -0.0455
74803W        W17715  17.741  16.706  19.640  0.4165  0.1219  0.3266
74804W        W17716  15.713  15.579  17.403 -0.0404 -0.2134  0.3280
74805W        W17717  18.311  15.632  17.589  0.2156 -0.2079 -0.0695
74806W        W17718  16.093  18.460  19.066  0.1407  0.0817  0.2810
74807W        W17719  18.153  17.946  19.558 -0.0937  0.1261  0.2002
74808W        W17720  15.463  18.929  18.469  0.1311 -0.0605  0.1582
74809W        W17721  16.923  15.927  18.699  0.1283 -0.5060  0.1300
74810W        W17722  14.929  14.155  19.524  0.1029 -0.2332 -0.0649
74811W        W17723  14.513  16.210  19.485  0.0946  0.1529  0.0804
74812W        W17724  15.229  16.609  19.437  0.1304 -0.2178 -0.2673
74813W        W17725  16.988  14.998  19.668  0.2025 -0.2198  0.2929
74814W        W17726  13.788  15.099  19.551 -0.0065 -0.0092 -0.1670
74815W        W17727  17.114  14.100  17.639  0.0488 -0.1108 -0.1093
74816W        W17728  15.912  18.667  19.987  0.2259 -0.0121  0.1070
74817W        W17729  16.160  16.631  19.307 -0.0522 -0.0324  0.1856
74818W        W17730  17.354  15.653  20.995  0.1182  0.0298  0.2039
74819W        W17731  14.374  14.752  22.091  0.0163  0.0275 -0.1728
74820W        W17732  14.584  13.371  24.096 -0.1050 -0.1255  0.1585
74821W        W17733  16.819  16.772  22.641 -0.1295 -0.1044 -0.2129
74822W        W17734  16.200  16.287  24.325  0.2665 -0.0434 -0.2302
74823W        W17735  14.779  13.640  23.408 -0.1953 -0.1516  0.0488
74824W        W17736  17.518  15.377  22.709  0.0344 -0.0122 -0.0635
74825W        W17737  14.521  14.805  21.334  0.1746  0.2398  0.3682
74826W        W17738  17.145  18.130  21.901  0.0188  0.2839 -0.6160
74827W        W17739  16.351  14.394  23.261  0.0940 -0.2904  0.1651
74828W        W17740  13.035  15.371  21.651 -0.0078 -0.0514  0.1372
74829W        W17741  14.312  15.031  22.542 -0.0491  0.1229  0.1808
74830W        W17742  17.170  16.042  22.154  0.2818 -0.2434 -0.5270
74831W        W17743  15.704  17.348  22.740  0.0891  0.0262 -0.0986
74832W        W17744  16.355  17.733  21.939  0.0659  0.2938  0.0514
74833W        W17745  18.637  15.534  24.078 -0.3297  0.1016  0.2382
74834W        W17746  14.207  16.655  23.574  0.0872 -0.2188 -0.2102
74835W        W17747  14.291  16.946  21.594 -0.0268 -0.4018  0.1705
74836W        W17748  15.322  17.642  22.419  0.1710 -0.1825  0.2183
74837W        W17749  18.151  17.165  21.760  0.2923  0.0683 -0.0602
74838W        W17750  16.578  18.503  24.889  0.1333  0.2388  0.1776
74839W        W17751  14.176  17.731  21.631 -0.0910 -0.1019  0.2445
74840W        W17752  16.526  15.827  22.256  0.1514 -0.1543 -0.1310
74841W        W17753  15.805  16.886  21.477  0.1167  0.0108 -0.0400
74842W        W17754  16.046  16.681  21.964 -0.0860 -0.0117 -0.2324
74843W        W17755  16.421  16.554  25.149 -0.3029 -0.0532 -0.2404
74844W        W17756  14.425  18.371  23.693 -0.3088 -0.1049  0.1614
74845W        W17757  15.578  17.433  21.049  0.0382  0.0324  0.1172
74846W        W17758  15.258  14.087  20.367  0.1289  0.2041  0.4146
74847W        W17759  16.175  14.431  22.761  0.0203 -0.2526  0.0970
74848W        W17760  18.128  16.657  22.416  0.1072  0.1073 -0.1232
74849W        W17761  14.292  15.917  22.595 -0.0427 -0.1295  0.0632
74850W        W17762  18.473  16.801  21.652  0.3367  0.3600  0.0719
74851W        W17763  16.700  17.532  20.588 -0.1057  0.2217 -0.1164
74852W        W17764  15.135  15.696  21.380 -0.5155  0.2550 -0.0158
74853W        W17765  15.321  16.218  23.977 -0.2092  0.1963  0.1536
74854W        W17766  14.462  13.511  19.761 -0.0878 -0.2066  0.0418
74855W        W17767  18.815  16.812  24.046  0.3030 -0.0057  0.0205
74856W        W17768  14.556  17.386  24.600  0.1994  0.0645  0.0263
74857W        W17769  18.252  14.865  21.896  0.0415  0.0069  0.0298
74858W        W17770  17.294  16.605  22.747  0.2341 -0.0200 -0.3803
74859W        W17771  17.208  16.667  20.237 -0.0210 -0.2308  0.2848
74860W        W17772  14.753  17.238  20.535 -0.1701 -0.1487  0.3867
74861W        W17773  18.301  16.252  22.715 -0.0121  0.1625 -0.0109
74862W        W17774  14.707  17.277  23.613 -0.2463 -0.0881  0.0295
74863W        W17775  13.954  18.264  20.844 -0.2933  0.0654 -0.1552
74864W        W17776  13.664  16.060  23.201 -0.1548  0.0787  0.3219
74865W        W17777  14.711  17.543  20.957  0.0342 -0.0034  0.3735
74866W        W17778  13.344  13.863  23.314  0.3646 -0.0513  0.2059
74867W        W17779  17.193  14.902  21.868 -0.0378 -0.1144  0.2732
74868W        W17780  14.225  14.404  23.285 -0.0533  0.0390 -0.0052
74869W        W17781  18.329  14.162  22.569 -0.0512  0.1359  0.1349
74870W        W17782  14.829  16.908  21.610  0.3003  0.1280  0.0605
74871W        W17783  17.831  17.996  21.124  0.0645 -0.0503 -0.2649
74872W        W17784  18.261  15.609  20.756 -0.2529 -0.0382  0.0024
74873W        W17785  14.262  16.129  23.053  0.0457 -0.3068 -0.0365
74874W        W17786  14.812  14.551  24.479  0.1674  0.0794 -0.2431
74875W        W17787  19.281  16.153  23.493  0.2684 -0.2339  0.2053
74876W        W17788  14.300  13.819  21.497 -0.0363 -0.2368 -0.0306
74877W        W17789  16.257  15.940  21.849  0.0285  0.0770  0.2769
74878W        W17790  14.381  16.837  22.572  0.2456 -0.2404  0.0727
74879W        W17791  18.197  14.393  23.929  0.1237 -0.0847  0.0244
74880W        W17792  16.964  17.835  21.045 -0.0824 -0.1620  0.1056
74881W        W17793  18.663  17.556  21.330 -0.0942 -0.0059 -0.0707
74882W        W17794  16.657  15.429  24.332 -0.2141 -0.1497  0.0122
74883W        W17795  14.787  15.220  21.118 -0.0784  0.0225  0.0463
74884W        W17796  15.754  16.110  22.184 -0.1975 -0.3390 -0.1023
74885W        W17797  15.314  14.322  21.336 -0.0735 -0.0233 -0.0326
74886W        W17798  18.019  17.951  22.317  0.2229 -0.1696 -0.0478
74887W        W17799  16.833  16.105  20.346 -0.0320 -0.1492  0.0506
74888W        W17800  14.967  15.912  23.607 -0.4083  0.1590 -0.0176
74889W        W17801  18.434  15.499  23.592 -0.1594 -0.1931 -0.2281
74890W        W17802  17.086  15.672  22.461 -0.2003 -0.1223  0.2210
74891W        W17803  13.499  13.738  21.040  0.0186 -0.1688 -0.3340
74892W        W17804  18.083  18.300  21.947  0.0974 -0.1927  0.1965
74893W        W17805  15.392  17.285  22.020 -0.2642 -0.2372  0.0820
74894W        W17806  14.690  16.478  21.410 -0.3344  0.0225  0.3525
74895W        W17807  15.889  17.281  21.819  0.2298  0.2892  0.1146
74896W        W17808  18.092  14.388  22.046  0.3171  0.2378  0.1914
74897W        W17809  17.813  15.544  24.519 -0.1136 -0.2190  0.2294
74898W        W17810  13.416  14.941  22.450 -0.1810  0.0147  0.0034
74899W        W17811  15.709  16.679  23.223 -0.2393 -0.0854 -0.0095
74900W        W17812  17.161  13.960  21.670 -0.0575 -0.3467 -0.0538
74901W        W17813  18.720  14.978  20.258  0.0028  0.0555  0.0855
74902W        W17814  16.610  16.205  23.928  0.3608  0.0605 -0.0237
74903W        W17815  17.130  14.095  20.820 -0.0242  0.0375 -0.0001
74904W        W17816  15.570  14.423  20.926 -0.0515  0.2071  0.0233
74905W        W17817  18.341  17.469  20.787  0.0122  0.1553 -0.1445
74906W        W17818  17.521  16.808  21.829  0.2197  0.1592 -0.0380
74907W        W17819  14.798  17.819  21.883  0.0591 -0.0578  0.1230
74908W        W17820  18.236  14.909  23.154 -0.2387 -0.0132  0.0113
74909W        W17821  17.042  14.203  22.768 -0.1185  0.2186  0.1008
74910W        W17822  18.647  16.038  25.027 -0.0788 -0.2395  0.0084
74911W        W17823  17.407  15.934  20.433 -0.1216  0.3271  0.2349
74912W        W17824  15.754  14.679  22.658 -0.0860 -0.2834  0.3650
74913W        W17825  14.235  17.240  23.794  0.1751  0.1387  0.1707
74914W        W17826  17.357  16.618  23.363  0.3531 -0.0538 -0.1216
74915W        W17827  16.429  17.087  21.849 -0.2528 -0.0353  0.1304
74916W        W17828  17.192  16.106  24.884 -0.3753  0.0604  0.0796
74917W        W17829  13.644  17.667  21.575 -0.0089 -0.0352 -0.1333
74918W        W17830  16.093  14.919  22.903 -0.0986 -0.2149 -0.0259
74919W        W17831  16.190  17.815  22.382 -0.0022  0.0553 -0.2165
74920W        W17832  14.708  18.096  20.989 -0.2289  0.0965  0.2907
74921W        W17833  14.898  17.563  22.745  0.3221 -0.1101 -0.2672
74922W        W17834  17.484  14.483  22.721 -0.1160  0.2617  0.2233
74923W        W17835  13.711  17.293  22.380 -0.2004 -0.0456  0.1166
74924W        W17836  14.416  16.706  21.108 -0.1538 -0.0904 -0.0788
74925W        W17837  16.920  14.599  22.507  0.0807 -0.1335 -0.1479
74926W        W17838  16.733  16.297  22.418 -0.2008  0.1500  0.0942
74927W        W17839  17.155  17.092  22.766 -0.1667 -0.4529  0.2213
74928W        W17840  16.147  16.078  24.822 -0.3958  0.0621  0.2405
74929W        W17841  13.806  15.839  22.775 -0.0261 -0.0613  0.2166
74930W        W17842  18.520  15.036  22.717 -0.0516 -0.0000 -0.0445
74931W        W17843  15.281  15.284  21.839 -0.0011 -0.0539 -0.1011
74932W        W17844  14.025  17.735  22.172 -0.2864 -0.3062 -0.0154
74933W        W17845  14.692  16.009  21.553  0.0173  0.0294  0.0455
74934W        W17846  16.232  15.469  21.783  0.3525 -0.1111 -0.1820
74935W        W17847  16.069  16.750  24.123  0.1417 -0.0712 -0.0635
74936W        W17848  17.983  15.658  23.463  0.1248 -0.1036 -0.0839
74937W        W17849  14.530  17.401  21.800  0.2428 -0.0872  0.0110
74938W        W17850  13.571  14.741  23.893 -0.1678  0.1340  0.0461
74939W        W17851  13.734  16.626  23.389 -0.1019  0.2884 -0.1573
74940W        W17852  14.654  17.718  21.388  0.0028 -0.1544 -0.1708
74941W        W17853  14.255  17.627  24.126 -0.1977  0.0801  0.1153
74942W        W17854  16.701  16.575  20.421 -0.1839  0.1820  0.0799
74943W        W17855  16.525  14.977  22.634 -0.0761 -0.0684  0.2200
74944W        W17856  18.896  15.372  22.778 -0.1908 -0.1149  0.1751
74945W        W17857  17.948  16.129  20.629  0.0811  0.4052 -0.2236
74946W        W17858  15.178  14.447  23.490 -0.2715 -0.1442  0.0813
74947W        W17859  17.359  17.009  22.278  0.1535  0.1330  0.2043
74948W        W17860  14.607  15.256  23.484 -0.1928  0.1816  0.0594
74949W        W17861  16.576  18.368  23.839  0.0828  0.1686  0.1631
74950W        W17862  15.420  13.043  20.988 -0.1134 -0.0409 -0.0619
74951W        W17863  17.639  16.574  22.335 -0.0730  0.2369 -0.0159
74952W        W17864  16.179  16.663  20.643  0.2148 -0.2146  0.1619
74953W        W17865  15.482  16.830  22.788  0.2007 -0.0513 -0.2625
74954W        W17866  17.319  15.735  21.796 -0.0610  0.5185  0.0120
74955W        W17867  16.206  16.235  20.299  0.2728 -0.2417  0.0120
74956W        W17868  15.737  17.018  22.203 -0.0597  0.1955  0.3597
74957W        W17869  17.029  15.011  24.333  0.4268  0.0426  0.0057
74958W        W17870  17.092  16.121  22.704 -0.0374 -0.2340 -0.1301
74959W        W17871  17.990  15.171  23.538  0.1555  0.0582  0.4173
74960W        W17872  15.911  15.581  23.601 -0.0412  0.0458 -0.0356
74961W        W17873  17.391  17.474  23.339 -0.0965 -0.0186  0.2602
74962W        W17874  17.917  15.657  20.459 -0.0835  0.0191 -0.2446
74963W        W17875  18.697  15.031  23.203 -0.1651 -0.0396 -0.1610
74964W        W17876  17.698  16.067  21.860 -0.3966 -0.2383  0.1573
74965W        W17877  14.898  15.087  22.155  0.3022  0.0641 -0.1977
74966W        W17878  17.601  15.107  24.356 -0.1199 -0.1593  0.0170
74967W        W17879  16.046  17.428  21.344  0.1504  0.0058 -0.1344
74968W        W17880  17.191  17.014  21.151 -0.0531 -0.0714  0.0960
74969W        W17881  12.942  15.507  23.091  0.2191  0.1266  0.2659
74970W        W17882  14.532  14.097  21.096  0.1176 -0.0568  0.0363
74971W        W17883  15.713  16.596  21.052  0.0625 -0.0733 -0.1211
74972W        W17884  16.434  16.213  23.322 -0.1206  0.2026 -0.1826
74973W        W17885  18.459  15.964  23.357  0.2147  0.0520 -0.0193
74974W        W17886  15.519  17.544  21.536 -0.0108  0.1975 -0.3957
74975W        W17887  17.528  13.372  21.376 -0.0737 -0.1839  0.3983
74976W        W17888  13.277  16.333  23.303 -0.1600 -0.0905 -0.1826
74977W        W17889  15.627  18.095  21.323 -0.1785 -0.0314  0.2024
74978W        W17890  18.370  15.619  25.285 -0.2376  0.2848 -0.2491
74979W        W17891  16.943  16.444  23.113  0.0765  0.2668 -0.1290
74980W        W17892  15.882  16.532  22.530 -0.0273  0.0788 -0.1941
74981W        W17893  18.717  16.299  21.320 -0.4375  0.2346  0.0415
74982W        W17894  14.917  16.366  22.244 -0.2660 -0.0586 -0.0126
74983W        W17895  15.594  16.982  24.614 -0.1933 -0.3709  0.0459
74984W        W17896  16.608  16.662  22.066 -0.0147 -0.2171  0.2098
74985W        W17897  14.823  14.527  21.129  0.1757  0.0909 -0.1183
74986W        W17898  13.020  16.100  24.323  0.0424  0.2296  0.0247
74987W        W17899  14.319  17.314  22.377  0.3684 -0.0033 -0.0176
74988W        W17900  17.222  17.436  22.397  0.2971 -0.1346  0.0250
74989W        W17901  15.123  14.432  20.686  0.2222 -0.0464 -0.0891
74990W        W17902  15.793  17.504  22.291  0.0959 -0.2705  0.3018
74991W        W17903  13.815  16.731  22.512 -0.1956  0.1899  0.1482
74992W        W17904  15.229  19.182  22.645 -0.1629  0.0105  0.0090
74993W        W17905  17.288  18.127  24.445 -0.0894 -0.0409 -0.1964
74994W        W17906  18.479  14.635  20.500  0.1312  0.3896 -0.0872
74995W        W17907  18.257  16.256  21.595 -0.0113  0.0894  0.0677
74996W        W17908  17.167  17.805  23.945  0.0486 -0.1523  0.0789
74997W        W17909  17.806  13.583  24.387  0.3002  0.0182 -0.1536
74998W        W17910  14.346  19.449  25.331 -0.1059  0.2173  0.0660
74999W        W17911  17.898  17.469  20.585 -0.1511  0.1749 -0.0204
75000W        W17912  13.316  15.621  22.622 -0.0128  0.2290 -0.0413
75001W        W17913  19.476  14.504  22.876  0.0831 -0.1427 -0.0307
75002W        W17914  16.077  17.096  20.436 -0.0296 -0.0327  0.1622
75003W        W17915  17.573  14.938  22.396  0.0029  0.0649 -0.2199
75004W        W17916  15.555  17.818  22.859  0.1708  0.1542  0.2118
75005W        W17917  15.199  17.141  22.485 -0.1645  0.0008  0.1593
75006W        W17918  14.095  14.046  24.263 -0.1579  0.0133  0.0920
75007W        W17919  18.792  15.530  22.027 -0.0594 -0.2217 -0.1685
75008W        W17920  18.979  13.852  22.908 -0.3191  0.2546 -0.1573
75009W        W17921  15.550  15.681  21.853 -0.0368  0.3334 -0.0240
75010W        W17922  18.132  15.378  21.238  0.0898  0.0343 -0.1597
75011W        W17923  15.947  16.599  24.777 -0.2041 -0.2700 -0.0386
75012W        W17924  16.255  15.937  20.717 -0.0145  0.0655 -0.1501
75013W        W17925  18.863  16.326  23.310  0.1739  0.2148 -0.0737
75014W        W17926  17.011  15.040  20.157 -0.3188  0.1205 -0.1248
75015W        W17927  16.708  14.656  20.289 -0.0713  0.0040 -0.1550
75016W        W17928  15.046  16.525  21.759  0.0093  0.1201 -0.0359
75017W        W17929  16.164  15.826  24.100 -0.0370  0.5395 -0.2707
75018W        W17930  16.849  18.131  24.648 -0.1659 -0.2157  0.1398
75019W        W17931  13.968  13.588  22.511  0.0493  0.0789  0.0183
75020W        W17932  17.296  17.576  21.867  0.0243 -0.1237  0.5263
75021W        W17933  14.412  15.143  23.032 -0.1848  0.4157  0.2351
75022W        W17934  18.206  17.150  22.570 -0.0472  0.1551 -0.4279
75023W        W17935  13.971  19.220  23.180 -0.0884  0.2124  0.2155
75024W        W17936  18.018  15.766  22.552  0.1554 -0.2654  0.1442
75025W        W17937  18.336  15.445  23.057 -0.1491  0.0707 -0.0029
75026W        W17938  19.120  13.327  23.972  0.2494 -0.0808 -0.0794
75027W        W17939  15.735  17.180  23.249  0.0206  0.1901  0.0680
75028W        W17940  14.103  16.775  22.116 -0.1135 -0.3692 -0.0815
75029W        W17941  15.508  15.931  23.511 -0.1867  0.2727  0.2418
75030W        W17942  16.138  17.996  21.533  0.1190  0.1526  0.1944
75031W        W17943  17.703  17.012  22.647  0.1747 -0.0948  0.0685
75032W        W17944  16.464  15.267  22.205  0.0296 -0.3845  0.0969
75033W        W17945  19.598  16.926  23.153 -0.2646 -0.3337 -0.0069
75034W        W17946  18.245  14.111  21.639  0.1310 -0.1085  0.1594
75035W        W17947  17.378  13.561  21.783 -0.0935 -0.1919 -0.0674
75036W        W17948  15.974  16.960  22.846 -0.4474 -0.1838  0.0002
75037W        W17949  13.062  14.838  23.268 -0.2655  0.0244 -0.0661
75038W        W17950  15.096  16.765  20.692 -0.2053 -0.3112  0.1165
75039W        W17951  13.845  17.816  23.138  0.3306 -0.0966  0.2077
75040W        W17952  17.660  17.084  20.404 -0.1446 -0.0098  0.1256
75041W        W17953  14.190  14.536  22.455 -0.0975 -0.1048  0.0051
75042W        W17954  16.514  16.174  21.389  0.1219 -0.1324  0.2205
75043W        W17955  18.098  17.515  21.293 -0.3033  0.1139  0.1301
75044W        W17956  15.220  13.432  21.169 -0.1378 -0.3637  0.1060
75045W        W17957  18.270  17.629  23.806 -0.1432  0.1502 -0.2747
75046W        W17958  14.875  17.399  22.178  0.3278 -0.0250  0.2350
75047W        W17959  14.456  15.287  21.460 -0.0945  0.3836 -0.0848
75048W        W17960  17.180  17.935  22.355 -0.3766 -0.1890 -0.1920
75049W        W17961  15.593  16.475  23.645 -0.2319  0.2163  0.4194
75050W        W17962  16.381  18.087  23.447 -0.3046  0.0485 -0.1477
75051W        W17963  13.471  14.384  24.266 -0.0625  0.0838  0.0659
75052W        W17964  17.559  16.218  21.023 -0.2737  0.1095 -0.0267
75053W        W17965  18.161  17.027  20.470  0.0533  0.1782 -0.0945
75054W        W17966  16.603  16.248  20.846  0.1229 -0.0184  0.0675
75055W        W17967  14.917  13.652  24.402  0.0615  0.2338  0.0436
75056W        W17968  15.782  16.163  24.081 -0.1055  0.3139 -0.2921
75057W        W17969  14.853  15.883  22.376  0.2838  0.0149  0.0796
75058W        W17970  16.252  15.029  20.863  0.4475 -0.2920 -0.2584
75059W        W17971  16.294  16.812  22.456  0.0765  0.2113 -0.5099
75060W        W17972  15.938  15.759  21.488  0.2648 -0.1796 -0.1898
75061W        W17973  17.838  17.106  22.132  0.0842 -0.3057 -0.2459
75062W        W17974  17.523  14.929  22.875 -0.2897 -0.2144 -0.1574
75063W        W17975  16.000  18.169  22.672  0.5307  0.1516  0.3424
75064W        W17976  15.446  16.828  27.798  0.1530  0.1941  0.0097
75065W        W17977  15.360  15.271  25.945 -0.2318 -0.1262  0.0719
75066W        W17978  18.061  17.718  24.823 -0.1106  0.1832  0.2573
75067W        W17979  14.503  15.296  30.089  0.0654  0.3755  0.0401
75068W        W17980  16.668  16.587  28.365  0.0879  0.3333  0.1633
75069W        W17981  16.135  17.031  24.581  0.2418 -0.2938  0.0826
75070W        W17982  16.328  17.395  29.399 -0.0728 -0.0593 -0.0503
75071W        W17983  15.085  14.616  28.144  0.1567 -0.3098  0.2124
75072W        W17984  17.599  15.847  28.271 -0.1642 -0.4011  0.0220
75073W        W17985  14.622  15.948  25.504 -0.0899  0.2604  0.0581
75074W        W17986  16.700  17.680  26.849 -0.0252 -0.0014  0.2294
75075W        W17987  16.619  13.782  26.899 -0.2407 -0.2167 -0.0587
75076W        W17988  17.255  14.692  29.387  0.2415 -0.0198 -0.0463
75077W        W17989  14.400  15.816  26.929  0.1004 -0.1734 -0.1399
75078W        W17990  16.045  15.470  29.213  0.1053 -0.1367 -0.0586
75079W        W17991  18.159  14.935  26.304  0.1482 -0.0203  0.1423
75080W        W17992  17.008  17.267  27.490  0.1749  0.2146  0.1857
75081W        W17993  17.968  17.979  27.374  0.1408 -0.3134  0.0435
75082W        W17994  17.987  16.578  29.659  0.0459 -0.0691 -0.0257
75083W        W17995  13.130  15.927  26.776 -0.0075  0.1959 -0.2790
75084W        W17996  14.166  18.011  25.995  0.3414  0.2622  0.0168
75085W        W17997  16.315  17.706  25.486  0.0303  0.2496  0.1038
75086W        W17998  19.386  16.487  27.148 -0.0168 -0.1218  0.2509
75087W        W17999  18.751  16.927  27.922 -0.0445 -0.0477  0.1154
75088W        W18000  16.716  18.399  29.901  0.0564  0.0113 -0.1641
75089W        W18001  14.609  15.950  25.006  0.1611  0.0307  0.3385
75090W        W18002  17.193  16.774  28.342 -0.0926 -0.2402 -0.0184
75091W        W18003  15.718  16.938  29.065  0.2588 -0.0178  0.2211
75092W        W18004  15.970  16.998  25.214 -0.0978 -0.2999 -0.0073
75093W        W18005  17.304  16.856  27.064  0.0339  0.0817 -0.0525
75094W        W18006  16.268  15.801  27.863  0.0292  0.0842  0.1369
75095W        W18007  17.601  15.248  28.209  0.0741 -0.1891  0.3068
75096W        W18008  15.680  17.315  25.479 -0.2843 -0.1622  0.2330
75097W        W18009  17.328  15.377  24.699  0.1750 -0.1329 -0.1387
75098W        W18010  16.630  16.709  24.533 -0.0463  0.2438  0.2477
75099W        W18011  15.738  18.145  26.452 -0.0312  0.0225 -0.5119
75100W        W18012  17.688  16.579  28.824 -0.1718  0.0161  0.0781
75101W        W18013  17.251  16.507  26.711  0.1147  0.1353 -0.0711
75102W        W18014  14.349  17.708  27.576 -0.1347 -0.0295  0.1774
75103W        W18015  14.862  15.330  27.505  0.2803  0.0897 -0.1509
75104W        W18016  17.941  17.939  23.957 -0.0528  0.0423  0.3733
75105W        W18017  17.940  17.813  25.995 -0.0188 -0.2199  0.0718
75106W        W18018  15.157  15.567  26.289  0.4528  0.0866  0.0911
75107W        W18019  13.729  14.736  28.818  0.2419  0.1249 -0.0511
75108W        W18020  15.509  15.426  29.212 -0.0733 -0.1503 -0.0051
75109W        W18021  15.898  14.939  24.582  0.0038  0.0447 -0.0161
75110W        W18022  17.115  17.026  30.618 -0.0131  0.0588  0.2291
75111W        W18023  14.641  16.995  28.109  0.4827  0.0447 -0.1199
75112W        W18024  18.004  17.491  27.213  0.3766  0.2164  0.0811
75113W        W18025  16.640  16.182  24.851 -0.0542  0.2383 -0.2455
75114W        W18026  17.579  13.966  27.526  0.2130  0.0138  0.1219
75115W        W18027  16.662  14.255  26.415 -0.0722  0.0117  0.1366
75116W        W18028  16.720  17.284  28.400  0.0593  0.3358 -0.0005
75117W        W18029  16.090  16.327  27.505 -0.1423  0.1689  0.1188
75118W        W18030  16.170  17.072  28.947 -0.1670 -0.2478  0.1675
75119W        W18031  14.950  18.143  24.387  0.0342 -0.1920  0.0424
75120W        W18032  14.206  15.759  25.454  0.0769 -0.3142  0.2337
75121W        W18033  15.470  14.633  27.824  0.1589 -0.1521 -0.2991
75122W        W18034  15.191  16.917  28.249 -0.1642  0.5065  0.1188
75123W        W18035  18.181  13.485  26.040 -0.1364 -0.0642 -0.1621
75124W        W18036  14.379  14.996  26.969  0.0587 -0.1048 -0.2125
75125W        W18037  17.721  14.779  27.776  0.2574  0.2473  0.1712
75126W        W18038  14.794  16.413  25.058  0.2230 -0.0511 -0.2742
75127W        W18039  18.931  17.576  27.152  0.0061 -0.0805  0.0348
75128W        W18040  18.132  15.184  25.440 -0.3412 -0.2052  0.0677
75129W        W18041  17.828  16.412  23.298  0.2117 -0.0544 -0.2829
75130W        W18042  14.864  16.077  28.160  0.0535 -0.1647 -0.2040
75131W        W18043  15.899  15.938  28.977 -0.1123  0.0373  0.2536
75132W        W18044  14.859  14.008  28.910  0.1971 -0.2507 -0.1750
75133W        W18045  17.544  15.964  27.280  0.1463  0.0165  0.1652
75134W        W18046  14.733  13.821  25.705  0.2628 -0.1931 -0.1371
75135W        W18047  17.638  14.996  26.068 -0.0148  0.0331  0.0247
75136W        W18048  14.503  16.501  26.088  0.1473  0.0811  0.0077
75137W        W18049  17.169  15.937  29.792 -0.4643  0.0552  0.0657
75138W        W18050  17.870  17.403  28.815 -0.1657  0.1187 -0.2536
75139W        W18051  18.163  17.745  25.359  0.0899  0.2549  0.2369
75140W        W18052  16.569  14.922  28.357 -0.1736  0.1801  0.1070
75141W        W18053  15.562  14.957  24.942  0.0339 -0.3067 -0.5058
75142W        W18054  14.981  17.399  26.262  0.0748  0.2710  0.0678
75143W        W18055  18.501  16.846  27.352  0.0969  0.1333  0.3630
75144W        W18056  16.143  17.474  28.390  0.2528  0.2079 -0.0747
75145W        W18057  16.687  15.054  29.844 -0.1172 -0.2389 -0.4862
75146W        W18058  18.448  16.585  26.358 -0.1014  0.2136  0.2126
75147W        W18059  17.620  17.461  26.791  0.1906 -0.3481 -0.0641
75148W        W18060  16.618  17.985  26.445 -0.0601  0.0939  0.1454
75149W        W18061  14.487  15.541  29.362 -0.2567  0.1659  0.3456
75150W        W18062  15.613  15.407  24.649 -0.1586  0.0625 -0.1429
75151W        W18063  14.950  16.788  27.778  0.2377  0.3935 -0.0830
75152W        W18064  17.365  13.639  25.338 -0.2891 -0.1407  0.0081
75153W        W18065  18.312  14.890  25.052  0.2125 -0.2224 -0.2430
75154W        W18066  17.007  16.416  28.758  0.3136  0.1483  0.1166
75155W        W18067  18.896  16.903  26.487 -0.2887  0.1310 -0.1756
75156W        W18068  17.303  14.693  25.213 -0.3939  0.0441  0.3430
75157W        W18069  15.312  16.738  29.291  0.1369 -0.2801 -0.1765
75158W        W18070  16.813  15.268  24.774 -0.0193 -0.0305  0.4246
75159W        W18071  19.367  17.244  25.394 -0.2011  0.0066 -0.0677
75160W        W18072  15.313  16.617  27.366 -0.1745 -0.0065 -0.2609
75161W        W18073  16.158  16.439  28.279 -0.2726  0.1372  0.0648
75162W        W18074  18.658  17.499  26.698 -0.0915  0.1757 -0.1006
75163W        W18075  17.060  13.480  28.226 -0.0837 -0.1321 -0.1787
75164W        W18076  17.259  14.765  25.882  0.0945 -0.0367  0.1834
75165W        W18077  14.503  18.351  24.676  0.1826  0.0251 -0.2027
75166W        W18078  18.566  15.165  26.798 -0.2507 -0.1518 -0.3610
75167W        W18079  18.871  14.158  26.159 -0.0308 -0.1520 -0.0586
75168W        W18080  16.918  15.113  29.368 -0.0504  0.6668  0.0051
75169W        W18081  17.123  15.527  28.390 -0.2379  0.1307 -0.0570
75170W        W18082  16.800  14.938  25.767  0.2121  0.0232  0.0447
75171W        W18083  17.455  17.481  27.329  0.2743  0.0860 -0.0504
75172W        W18084  16.602  13.988  28.903  0.4144 -0.3444 -0.0294
75173W        W18085  14.871  16.015  27.680 -0.0594  0.3925 -0.0989
75174W        W18086  15.810  18.531  29.340  0.0160 -0.4390 -0.4951
75175W        W18087  16.609  16.430  27.392 -0.1118  0.0161  0.0476
75176W        W18088  17.054  15.342  27.705 -0.0535  0.0953  0.3179
75177W        W18089  16.151  15.587  24.531 -0.0124  0.0388 -0.0184
75178W        W18090  16.558  13.973  27.361 -0.1812 -0.2206 -0.2363
75179W        W18091  15.604  16.229  27.699 -0.1261  0.1087 -0.4247
75180W        W18092  16.495  16.483  30.129  0.0255 -0.0271 -0.0047
75181W        W18093  18.446  14.652  27.193  0.1006 -0.0431 -0.0467
75182W        W18094  14.934  17.188  27.028  0.0797 -0.0410 -0.0185
75183W        W18095  14.930  15.448  25.853  0.0444 -0.3013 -0.0763
75184W        W18096  17.904  14.453  28.258  0.0440  0.0930  0.0930
75185W        W18097  17.699  15.972  24.938 -0.1161  0.0478  0.2483
75186W        W18098  14.565  15.128  27.927 -0.1876 -0.3660  0.1166
75187W        W18099  16.471  14.541  28.644 -0.1243  0.0751  0.0678
75188W        W18100  14.651  17.958  29.019  0.1969 -0.1709  0.3129
75189W        W18101  17.430  16.236  28.570 -0.1901  0.2499  0.3134
75190W        W18102  17.245  17.840  27.683 -0.0226  0.1819  0.1581
75191W        W18103  15.569  16.059  30.146  0.0008 -0.1875  0.3841
75192W        W18104  14.405  14.480  24.083 -0.0753  0.2212 -0.0812
75193W        W18105  18.696  16.395  27.570  0.0047 -0.2018 -0.2296
75194W        W18106  16.369  15.369  26.681  0.1928  0.0430  0.2604
75195W        W18107  16.398  16.276  27.882 -0.0435  0.0996 -0.5301
75196W        W18108  16.277  17.363  26.460  0.0605  0.0460 -0.0083
75197W        W18109  16.526  16.248  28.849  0.2248  0.3064 -0.0324
75198W        W18110  16.697  16.920  27.269 -0.1696  0.0000 -0.2874
75199W        W18111  16.120  14.277  27.389  0.0959 -0.0438 -0.0784
75200W        W18112  16.744  17.748  27.394  0.0473 -0.0524  0.0961
75201W        W18113  15.960  16.809  27.933  0.0299  0.2026 -0.2264
75202W        W18114  16.629  14.745  27.838  0.1071  0.3294 -0.0579
75203W        W18115  18.137  18.217  24.876  0.2295  0.0014 -0.0121
75204W        W18116  17.302  15.789  30.271  0.1537 -0.3031 -0.2583
75205W        W18117  15.092  16.695  24.858  0.1509 -0.0657 -0.0031
75206W        W18118  13.511  16.275  26.877  0.4592  0.0967 -0.2584
75207W        W18119  17.476  16.012  29.364 -0.1105  0.0313 -0.0663
75208W        W18120  14.988  17.796  28.673 -0.0178  0.0659 -0.0208
75209W        W18121  18.757  14.036  25.054 -0.3146  0.1720 -0.0575
75210W        W18122  16.620  15.124  26.264  0.1245 -0.2021 -0.1128
75211W        W18123  16.522  14.211  27.750 -0.0001  0.1184  0.0874
75212W        W18124  17.151  15.409  28.952 -0.0586  0.0142  0.0224
75213W        W18125  16.147  15.440  28.184  0.1472  0.0908 -0.0612
75214W        W18126  18.906  17.483  25.479  0.2752 -0.1656 -0.1125
75215W        W18127  15.286  15.240  28.664  0.0416  0.2180  0.2467
75216W        W18128  17.335  18.121  28.738 -0.1739 -0.0506  0.1102
75217W        W18129  15.694  15.632  27.915 -0.4454  0.0236  0.1295
75218W        W18130  17.172  14.161  25.517 -0.0088 -0.0853  0.0198
75219W        W18131  18.491  17.079  26.304 -0.0278 -0.2615 -0.0702
75220W        W18132  18.912  16.694  26.997  0.1360 -0.1868 -0.0583
75221W        W18133  16.157  15.348  27.581 -0.1480 -0.0481 -0.4097
75222W        W18134  17.978  15.893  25.394  0.2267 -0.0048  0.0648
75223W        W18135  17.123  16.644  24.645 -0.0328 -0.1219  0.2414
75224W        W18136  17.844  15.042  28.637  0.1005  0.1671  0.0150
75225W        W18137  17.664  14.640  26.865  0.2472  0.1554  0.0739
75226W        W18138  17.830  16.034  27.685  0.4047 -0.3535  0.2477
75227W        W18139  15.690  14.390  28.761 -0.0292  0.0831  0.1870
75228W        W18140  16.229  15.582  28.647 -0.2409  0.2444 -0.1613
75229W        W18141  15.432  14.765  28.519 -0.1396  0.1204  0.1808
75230W        W18142  18.154  17.824  26.842  0.2361  0.1026  0.1340
75231W        W18143  17.867  13.959  31.228  0.1268  0.1472  0.2397
75232W        W18144  18.856  16.908  25.981  0.1478  0.2364  0.0556
75233W        W18145  17.146  15.473  24.171  0.1527  0.1081  0.0027
75234W        W18146  16.980  16.464  27.944 -0.3064  0.0401  0.0009
75235W        W18147  16.236  15.100  24.320 -0.0893  0.0460  0.3696
75236W        W18148  16.022  15.515  30.753  0.0899 -0.0274 -0.2698
75237W        W18149  16.275  18.162  24.672 -0.1538 -0.0140 -0.1803
75238W        W18150  14.452  14.094  28.647 -0.0495  0.0062 -0.0073
75239W        W18151  15.808  16.962  29.605  0.2980  0.2351  0.0940
75240W        W18152  15.725  17.337  24.975  0.0022 -0.1379 -0.0799
75241W        W18153  16.511  17.322  27.538  0.0006 -0.2638  0.1963
75242W        W18154  17.909  15.245  27.558 -0.2535  0.0010 -0.1927
75243W        W18155  17.254  14.670  29.881 -0.0381  0.0400 -0.4498
75244W        W18156  17.829  14.493  26.385  0.2978  0.0254  0.0198
75245W        W18157  15.590  17.390  27.426 -0.3337 -0.0848 -0.2287
75246W        W18158  14.875  17.093  29.273  0.1326  0.1962  0.0515
75247W        W18159  18.246  16.654  29.071  0.0562 -0.0006  0.1190
75248W        W18160  16.100  16.985  28.371 -0.0971 -0.0671  0.2631
75249W        W18161  17.731  17.659  27.690 -0.0222 -0.0775 -0.1155
75250W        W18162  18.481  16.939  26.814 -0.0962  0.1148  0.2081
75251W        W18163  14.454  16.454  29.328 -0.1615 -0.1010 -0.0833
75252W        W18164  16.550  16.122  28.370  0.0426  0.0751  0.1600
75253W        W18165  15.841  14.199  25.984  0.0954  0.1903 -0.1131
75254W        W18166  17.300  16.944  25.794  0.2232 -0.2136 -0.0051
75255W        W18167  15.394  18.035  29.110 -0.0299 -0.1746 -0.3024
75256W        W18168  15.042  16.212  28.653 -0.2543 -0.1879  0.2967
75257W        W18169  15.072  17.888  25.856  0.1729 -0.5077 -0.1165
75258W        W18170  17.482  16.010  25.382 -0.1878 -0.0933 -0.3888
75259W        W18171  16.358  17.940  28.452 -0.1888 -0.3417 -0.0803
75260W        W18172  15.727  15.987  24.582 -0.1160 -0.2605 -0.0315
75261W        W18173  15.414  17.266  26.013  0.2311  0.1581 -0.0970
75262W        W18174  13.845  18.387  26.066  0.3808  0.2280  0.1017
75263W        W18175  17.123  16.768  27.483  0.0696  0.0804  0.2918
75264W        W18176  18.312  15.737  28.712  0.0791 -0.1480  0.1484
75265W        W18177  19.525  14.591  26.162  0.0602 -0.0392 -0.0822
75266W        W18178  16.701  17.188  29.593  0.0995 -0.0206  0.0840
75267W        W18179  16.793  14.727  26.615  0.3679  0.1878  0.1121
75268W        W18180  16.903  14.374  25.123  0.0809 -0.1636  0.3602
75269W        W18181  15.545  14.912  29.105  0.3658 -0.2251 -0.2874
75270W        W18182  17.623  15.446  28.748  0.2672  0.1583 -0.2771
75271W        W18183  15.840  16.651  28.637  0.2974 -0.0143  0.2268
75272W        W18184  18.558  17.464  25.127 -0.0748  0.0255 -0.0860
75273W        W18185  19.218  14.820  28.239  0.3051  0.0973 -0.0627
75274W        W18186  16.544  15.963  24.379 -0.0080  0.0271  0.2340
75275W        W18187  17.191  15.048  26.815 -0.1591 -0.1112  0.2671
75276W        W18188  15.913  17.133  26.010 -0.2474  0.0456 -0.1125
75277W        W18189  17.912  15.391  26.347  0.4308 -0.2278 -0.0683
75278W        W18190  16.965  15.014  28.060 -0.0218  0.0357  0.2118
75279W        W18191  17.491  14.259  28.443  0.0958  0.1967 -0.0474
75280W        W18192  17.370  16.363  29.092  0.0073 -0.2013  0.2286
75281W        W18193  15.565  15.234  28.285 -0.2607  0.3015  0.1628
75282W        W18194  16.792  15.754  24.823 -0.0016  0.0654 -0.0682
75283W        W18195  17.613  16.487  27.493 -0.0289  0.0524  0.0335
75284W        W18196  17.699  15.712  23.866 -0.0411  0.0767  0.0482
75285W        W18197  17.077  17.453  29.097  0.1918  0.3076 -0.1242
75286W        W18198  14.902  15.038  26.633 -0.0302  0.0481 -0.1742
75287W        W18199  16.665  14.974  27.021  0.0236 -0.3119 -0.1849
75288W        W18200  17.645  17.384  28.320 -0.1746  0.3174 -0.0194
75289W        W18201  15.803  13.978  26.571 -0.2361 -0.1691  0.0978
75290W        W18202  17.526  16.305  24.565 -0.0058  0.0192  0.2183
75291W        W18203  18.738  15.891  28.207  0.2063 -0.0039 -0.1286
75292W        W18204  15.945  18.603  24.362  0.1859  0.0470  0.1161
75293W        W18205  16.905  16.994  27.877  0.1321  0.3003 -0.0148
75294W        W18206  14.094  15.709  28.397  0.0717 -0.1162  0.0935
75295W        W18207  16.443  16.763  27.745 -0.0010 -0.0426 -0.2986
75296W        W18208  18.764  17.551  29.758 -0.0038 -0.1412 -0.0286
75297W        W18209  16.690  14.840  25.279  0.0878  0.1253 -0.1693
75298W        W18210  18.382  15.413  28.079 -0.3598  0.1916  0.0145
75299W        W18211  18.439  15.977  27.268 -0.1696  0.1936  0.0293
75300W        W18212  17.731  13.887  29.309 -0.0806 -0.1172  0.2551
75301W        W18213  16.344  17.184  27.975 -0.1779  0.0725  0.2141
75302W        W18214  15.429  17.342  30.082  0.1618 -0.1981  0.1077
75303W        W18215  17.574  16.991  27.485 -0.5346  0.1658 -0.0178
75304W        W18216  16.357  17.410  25.843  0.0967  0.0653 -0.1266
75305W        W18217  16.167  17.764  26.245  0.2326  0.1623 -0.1215
75306W        W18218  18.510  17.085  25.556  0.0287  0.2487 -0.1255
75307W        W18219  16.710  15.336  25.253 -0.1517 -0.2071  0.0696
75308W        W18220  18.200  16.384  27.627  0.1841  0.1546  0.2046
75309W        W18221  19.052  14.830  26.806 -0.0594 -0.0833 -0.0710
75310W        W18222  14.760  17.426  28.349 -0.2344 -0.0950  0.1003
75311W        W18223  16.096  15.123  30.474  0.1146 -0.0742  0.0766
75312W        W18224  15.234  17.097  28.964 -0.0431 -0.1840 -0.1056
75313W        W18225  14.829  15.735  27.212 -0.2716  0.0441  0.0990
75314W        W18226  19.087  16.433  26.599  0.1686  0.0746 -0.4200
75315W        W18227  15.726  14.554  26.688  0.0504  0.3942 -0.0324
75316W        W18228  15.185  14.620  26.669  0.3642  0.2895  0.1967
75317W        W18229  17.427  17.300  25.389  0.0573 -0.0613  0.2963
75318W        W18230  18.194  16.094  29.906 -0.2271 -0.0270 -0.2575
75319W        W18231  14.280  16.326  25.110 -0.1146 -0.2753  0.1523
75320W        W18232  16.001  16.108  29.439  0.2143 -0.0489  0.0526
75321W        W18233  15.517  14.162  28.286  0.0290 -0.1762 -0.1465
75322W        W18234  13.779  13.550  24.455 -0.2328 -0.1109  0.0024
75323W        W18235  15.888  16.027  28.151  0.0748  0.2478 -0.0729
75324W        W18236  15.876  17.491  29.250 -0.1947 -0.0788 -0.0843
75325W        W18237  15.354  14.437  30.151  0.3154  0.2522  0.0558
75326W        W18238  17.803  16.851  25.453  0.0015  0.0811  0.3857
75327W        W18239  17.590  17.340  29.226 -0.1729 -0.0985  0.1870
75328W        W18240  18.866  17.322  24.711 -0.2300  0.0291  0.2417
75329W        W18241  17.318  15.885  28.900  0.1020  0.0778 -0.0982
75330W        W18242  16.527  14.710  29.116  0.0052  0.1733  0.0599
75331W        W18243  16.299  16.889  29.363 -0.1176  0.2568 -0.4259
75332W        W18244  18.124  15.996  28.070  0.1656 -0.1236  0.0151
75333W        W18245  14.835  13.942  26.530  0.3829  0.2334  0.0903
75334W        W18246  16.684  17.706  24.712 -0.1152  0.0211  0.0815
75335W        W18247  17.530  14.276  25.913 -0.0826 -0.1343  0.2076
75336W        W18248  15.917  15.802  27.487  0.3485 -0.1018  0.1093
75337W        W18249  18.377  16.266  29.496  0.0371  0.0877  0.0822
75338W        W18250  17.350  15.832  24.504 -0.1275 -0.1107 -0.0219
75339W        W18251  17.890  15.372  24.982 -0.2321 -0.2505  0.1167
75340W        W18252  17.184  17.853  27.123  0.3366  0.1835  0.1299
75341W        W18253  17.643  17.867  29.032  0.2784 -0.0579 -0.2421
75342W        W18254  16.412  18.511  27.161  0.5170  0.0532 -0.2613
75343W        W18255  17.825  16.869  28.356 -0.1098  0.3111 -0.0303
75344W        W18256  15.603  13.491  27.902 -0.1121 -0.0064 -0.1327
75345W        W18257  18.154  14.747  26.769  0.0938 -0.3705  0.2931
75346W        W18258  17.367  19.177  27.747  0.2094  0.0616 -0.0493
75347W        W18259  17.747  16.512  26.964 -0.1806  0.2022  0.1059
75348W        W18260  17.164  15.230  29.844 -0.0777  0.1489  0.0613
75349W        W18261  17.932  16.191  28.654  0.3482  0.0589 -0.1539
75350W        W18262  14.304  14.873  29.689 -0.1793  0.1026 -0.1493
75351W        W18263  14.786  16.967  28.596 -0.2293 -0.0553 -0.1208
75352W        W18264  15.817  17.516  29.779  0.0510 -0.4785 -0.0264
75353W        W18265  16.215  19.359  31.136  0.0677  0.2101  0.1883
75354W        W18266  18.508  14.754  30.259  0.1005  0.1446  0.1504
75355W        W18267  16.176  14.934  27.995  0.0112  0.1267  0.3836
75356W        W18268  16.878  15.627  30.829  0.0066 -0.0031 -0.1448
75357W        W18269  17.138  17.427  30.941  0.0853  0.1962 -0.0300
75358W        W18270  15.697  16.175  28.594  0.3085  0.0792  0.4839
75359W        W18271  16.097  14.782  27.553  0.2014  0.1778  0.3134
75360W        W18272  17.983  16.476  30.188 -0.0080 -0.0618  0.3365
75361W        W18273  16.302  16.661  28.695  0.0201 -0.1031 -0.2938
75362W        W18274  17.525  15.194  30.187 -0.1343 -0.3160 -0.0611
75363W        W18275  15.069  17.829  27.683 -0.3499  0.2054  0.2394
75364W        W18276  15.223  16.885  29.921  0.1933  0.0898  0.3169
75365W        W18277  16.722  16.131  29.807 -0.1044 -0.1346  0.1866
75366W        W18278  15.611  14.693  29.738  0.1619  0.2726  0.2813
75367W        W18279  15.726  14.862  30.207  0.0107  0.0517  0.3058
75368W        W18280  15.713  15.686  28.420 -0.0695  0.0170 -0.2218
75369W        W18281  14.294  17.493  28.066  0.2725 -0.0797 -0.0754
75370W        W18282  18.789  14.382  30.495  0.3223 -0.2325 -0.0579
75371W        W18283  17.126  14.970  30.385 -0.0424 -0.0727  0.0176
75372W        W18284  19.436  14.808  30.197  0.0433  0.2778  0.0748
75373W        W18285  17.064  16.068  28.305 -0.0217 -0.2554 -0.2611
75374W        W18286  16.777  15.263  28.677  0.2016 -0.0615 -0.0782
75375W        W18287  15.363  19.175  27.211 -0.0162  0.0877  0.1028
75376W        W18288  16.051  15.592  30.286 -0.0438  0.2189 -0.0631
75377W        W18289  15.022  15.818  30.229 -0.0309 -0.0326  0.2413
75378W        W18290  16.337  17.393  30.540 -0.2723  0.1422  0.1925
75379W        W18291  15.975  14.713  28.379 -0.2232  0.2633 -0.1202
75380W        W18292  18.087  14.122  29.653 -0.0315  0.1006  0.3251
75381W        W18293  17.638  14.939  29.076 -0.0501  0.3012 -0.1784
75382W        W18294  14.846  15.106  29.606 -0.0704  0.0954  0.1063
75383W        W18295  15.153  16.259  29.254 -0.0473  0.1440 -0.4090
75384W        W18296  15.377  17.322   0.150 -0.0404  0.2632  0.0869
75385W        W18297  16.262  18.202  28.876 -0.0633 -0.3912 -0.0526
75386W        W18298  18.774  17.002  29.825  0.1126  0.1050  0.0900
75387W        W18299  16.587  15.595  29.038  0.2926 -0.1832 -0.0738
75388W        W18300  18.301  15.029  28.663  0.0609 -0.0550 -0.1382
75389W        W18301  16.979  15.811  29.244 -0.2167  0.1713  0.2932
75390W        W18302  14.155  14.527  30.075  0.1084 -0.1771  0.3239
75391W        W18303  15.162  17.538  31.596  0.0663  0.1647 -0.0857
75392W        W18304  15.832  15.247  28.840  0.0495 -0.2882  0.2894
75393W        W18305  15.610  16.334  29.112 -0.4347  0.1011  0.1042
75394W        W18306  15.474  15.151  29.626 -0.0481  0.0012  0.1721
75395W        W18307  16.256  17.829  29.210 -0.2270  0.3369  0.0326
75396W        W18308  16.850  15.877  28.727 -0.0871  0.2133 -0.2928
75397W        W18309  15.326  16.651  28.736  0.2844  0.3312  0.1651
75398W        W18310  17.155  16.840  29.276 -0.2298  0.1889  0.0050
75399W        W18311  18.920  13.257  31.490 -0.0176  0.1292  0.0080
75400W        W18312  15.249  15.594  29.802 -0.1564 -0.1704  0.1637
75401W        W18313  16.697  15.724  28.137  0.1049  0.0966 -0.0457
75402W        W18314  17.639  16.212  29.792  0.2987  0.0483 -0.1029
75403W        W18315  16.543  16.019  29.342 -0.1579  0.0807 -0.2749
75404W        W18316  17.370  16.146  27.763  0.1676 -0.0540 -0.1253
75405W        W18317  15.518  18.244  31.013  0.0334 -0.0360 -0.1393
75406W        W18318  15.500  17.728  30.589 -0.0657  0.2064  0.0220
75407W        W18319  14.711  15.572  30.523  0.0370 -0.1073  0.0739
75408W        W18320  14.902  16.663  29.009  0.3999  0.1068  0.1838
75409W        W18321  15.603  16.518  28.212 -0.0693  0.0631 -0.0311
75410W        W18322  14.084  16.488  30.690 -0.1177 -0.1029  0.3119
75411W        W18323  15.665  15.820  30.643 -0.0154  0.1642 -0.1516
75412W        W18324  17.361  17.089  28.800 -0.0868 -0.0335 -0.3173
75413W        W18325  17.496  17.418  30.630 -0.1433  0.2210 -0.0981
75414W        W18326  16.879  16.523  30.488 -0.1750 -0.2851  0.1981
75415W        W18327  14.840  22.413  17.008 -0.0778  0.3131  0.1580
75416W        W18328  16.208  20.634  17.189 -0.1800  0.0112 -0.0665
75417W        W18329  17.288  19.027  15.656 -0.0400 -0.3629 -0.2560
75418W        W18330  17.301  19.640  15.029 -0.3098  0.0884 -0.1718
75419W        W18331  13.164  18.860  17.682 -0.1282  0.0590  0.0825
75420W        W18332  18.257  22.193  17.032  0.1533 -0.1657 -0.0139
75421W        W18333  13.941  18.896  17.352 -0.1073 -0.2842 -0.2763
75422W        W18334  16.810  22.186  17.098 -0.0055  0.4039  0.1204
75423W        W18335  15.111  21.613  18.623 -0.1852 -0.0239  0.2009
75424W        W18336  16.358  20.109  15.839  0.0691 -0.2197 -0.1545
75425W        W18337  14.827  19.412  18.482 -0.2298  0.1278  0.2943
75426W        W18338  15.864  21.665  18.092  0.0044 -0.2204 -0.0385
75427W        W18339  16.052  19.152  16.515 -0.1378 -0.2052 -0.1709
75428W        W18340  13.561  18.995  16.475  0.2343  0.0529 -0.1092
75429W        W18341  17.229  20.605  16.251 -0.3232 -0.0926 -0.2927
75430W        W18342  14.657  21.031  16.354  0.2433  0.2013 -0.1446
75431W        W18343  15.748  20.427  17.534  0.0730 -0.1034  0.1689
75432W        W18344  16.705  20.437  17.085 -0.1082  0.1031  0.2179
75433W        W18345  17.586  22.774  17.019 -0.1382 -0.2048  0.0512
75434W        W18346  15.322  19.692  17.067  0.5754 -0.1188  0.0973
75435W        W18347  15.696  19.468  17.397  0.0295  0.2574 -0.0087
75436W        W18348  16.741  21.768  16.659  0.0675 -0.1048 -0.0083
75437W        W18349  14.389  21.617  15.470  0.2509  0.4612  0.0423
75438W        W18350  15.134  20.246  16.209 -0.1586 -0.2332 -0.1705
75439W        W18351  14.743  20.290  16.971 -0.3591  0.4045  0.0955
75440W        W18352  16.007  19.064  17.331 -0.4088 -0.0272  0.1450
75441W        W18353  17.545  21.420  16.815 -0.2068 -0.1705  0.1793
75442W        W18354  16.750  22.549  16.706  0.0396  0.2161 -0.3119
75443W        W18355  16.246  20.459  16.706 -0.0985 -0.5104  0.3258
75444W        W18356  17.319  20.389  17.109 -0.0158  0.2370 -0.1942
75445W        W18357  14.312  21.017  18.006  0.0796 -0.2191  0.2957
75446W        W18358  12.925  21.082  17.818  0.0303 -0.0278 -0.3142
75447W        W18359  15.564  21.821  15.629 -0.2675 -0.1652  0.2727
75448W        W18360  18.394  20.346  16.634 -0.2092 -0.3461  0.0086
75449W        W18361  17.733  21.940  18.358  0.0414  0.0047  0.0033
75450W        W18362  15.795  22.524  17.831  0.1072 -0.1821 -0.0658
75451W        W18363  14.546  21.945  15.961 -0.1188  0.1961  0.1775
75452W        W18364  15.229  22.009  18.292 -0.1280 -0.1723 -0.3572
75453W        W18365  14.512  21.414  18.205 -0.1602  0.1089  0.0992
75454W        W18366  16.834  21.074  17.330 -0.0538 -0.0794  0.0534
75455W        W18367  16.840  19.354  16.646 -0.0558 -0.3449 -0.2599
75456W        W18368  14.883  21.027  15.902  0.0698 -0.1295 -0.2256
75457W        W18369  15.228  20.375  17.652  0.0680  0.2148 -0.0720
75458W        W18370  15.084  21.050  19.470  0.1894 -0.3968 -0.1796
75459W        W18371  15.454  20.722  17.299 -0.0843  0.1888  0.4215
75460W        W18372  17.679  18.963  17.244 -0.2954 -0.1159 -0.0302
75461W        W18373  15.285  21.216  15.404 -0.0566  0.1569 -0.1988
75462W        W18374  17.903  20.074  15.645  0.0956 -0.0034  0.1748
75463W        W18375  15.786  20.450  15.210  0.1752  0.0427  0.1640
75464W        W18376  17.612  19.660  15.454 -0.3748 -0.2921  0.3548
75465W        W18377  13.856  18.382  17.125  0.2775  0.2157 -0.0672
75466W        W18378  15.731  21.524  17.136  0.1054 -0.1475 -0.1352
75467W        W18379  14.821  18.419  16.885 -0.2193 -0.1087  0.1774
75468W        W18380  18.064  22.396  17.667  0.1380  0.0729 -0.0553
75469W        W18381  15.659  18.920  15.836  0.0209  0.0458 -0.4304
75470W        W18382  16.817  20.789  16.462  0.0952 -0.0737 -0.2079
75471W        W18383  15.485  21.286  17.559 -0.0539 -0.1823 -0.1900
75472W        W18384  13.754  20.685  17.422  0.0307  0.2004 -0.0181
75473W        W18385  17.795  22.297  16.546  0.2289  0.1683  0.3196
75474W        W18386  17.237  21.003  15.901  0.2070 -0.2696 -0.0708
75475W        W18387  15.806  22.008  16.047  0.1145  0.0993  0.1475
75476W        W18388  15.076  19.058  16.852  0.1088 -0.0752 -0.2383
75477W        W18389  14.305  21.308  19.036  0.3045 -0.1409 -0.0155
75478W        W18390  13.593  21.032  19.108  0.0647  0.0966 -0.0294
75479W        W18391  15.538  19.403  16.148 -0.3775 -0.2902  0.5240
75480W        W18392  18.190  21.941  16.604 -0.1837  0.0848  0.0801
75481W        W18393  13.371  20.965  20.775 -0.2164 -0.1449  0.0653
75482W        W18394  18.093  18.393  16.650 -0.1997  0.0028  0.2692
75483W        W18395  15.349  21.464  18.101  0.1569  0.3649  0.0155
75484W        W18396  17.573  22.045  17.501  0.0063 -0.0292  0.3950
75485W        W18397  16.805  21.159  15.951 -0.0622 -0.1713  0.3255
75486W        W18398  17.987  19.437  16.428  0.0027 -0.0729 -0.2690
75487W        W18399  15.767  19.847  16.847  0.0709 -0.2323 -0.1288
75488W        W18400  16.409  20.514  15.604  0.2013 -0.0013  0.1678
75489W        W18401  16.110  20.465  16.080  0.1870 -0.2612  0.2175
75490W        W18402  17.466  21.179  18.184  0.2667 -0.1448 -0.1504
75491W        W18403  18.798  20.340  15.823  0.0121  0.1902 -0.0550
75492W        W18404  14.564  21.381  17.319 -0.1300 -0.1435 -0.1588
75493W        W18405  15.273  18.176  18.097  0.1550 -0.1556  0.0758
75494W        W18406  16.106  22.144  17.693 -0.1385  0.2289  0.5250
75495W        W18407  13.937  22.458  15.523  0.0534 -0.0955 -0.0514
75496W        W18408  13.381  20.728  16.982  0.2295  0.0636 -0.4353
75497W        W18409  14.018  20.613  16.288 -0.1931  0.1459  0.4348
75498W        W18410  13.317  19.552  18.681 -0.2261  0.0916 -0.0792
75499W        W18411  15.345  22.337  17.038 -0.3136  0.1224 -0.1321
75500W        W18412  17.192  19.759  16.517 -0.0687  0.1294  0.1751
75501W        W18413  13.455  19.971  18.864 -0.0415  0.2400  0.0182
75502W        W18414  18.283  18.166  16.148  0.4663  0.0764 -0.0372
75503W        W18415  15.017  21.721  16.383 -0.3663  0.1885  0.0151
75504W        W18416  17.764  22.447  15.319  0.0797 -0.0382 -0.0204
75505W        W18417  18.490  19.285  15.161 -0.1184  0.3755 -0.1570
75506W        W18418  16.339  21.294  16.180 -0.2614  0.0062  0.0285
75507W        W18419  13.818  20.345  17.769  0.1059 -0.2413 -0.3148
75508W        W18420  14.415  20.594  16.631  0.0409  0.0639 -0.1988
75509W        W18421  14.557  18.768  18.720 -0.2159  0.1505 -0.0431
75510W        W18422  13.763  19.825  17.772 -0.1193  0.0684 -0.1022
75511W        W18423  16.978  20.120  17.448  0.1786 -0.2272  0.1158
75512W        W18424  15.364  19.866  15.972 -0.1402 -0.0410  0.0702
75513W        W18425  17.715  19.805  17.750  0.0319 -0.1906  0.0424
75514W        W18426  16.379  19.493  16.677  0.2888  0.1621  0.1208
75515W        W18427  15.734  21.716  17.606  0.1145 -0.0337  0.3801
75516W        W18428  17.380  19.101  17.668  0.1763 -0.2555  0.0341
75517W        W18429  17.463  22.201  18.011 -0.0120 -0.0935  0.1193
75518W        W18430  18.729  22.779  17.549  0.3673  0.1522 -0.0772
75519W        W18431  16.736  21.278  16.608 -0.0199 -0.0722  0.0107
75520W        W18432  13.372  18.170  19.462 -0.0232 -0.1842 -0.0008
75521W        W18433  15.200  18.405  16.091  0.1523 -0.2098 -0.3170
75522W        W18434  13.284  21.365  17.564 -0.2846 -0.0347 -0.2341
75523W        W18435  15.921  21.862  16.799 -0.0223 -0.1645 -0.0548
75524W        W18436  15.931  19.615  16.411  0.0444 -0.0872 -0.1381
75525W        W18437  19.837  22.643  15.876  0.1124 -0.0702 -0.1706
75526W        W18438  16.719  19.923  16.602 -0.0625 -0.0906  0.1831
75527W        W18439  14.058  20.762  19.004  0.1329 -0.2558  0.0356
75528W        W18440  17.123  19.093  16.294  0.1166 -0.1856 -0.1727
75529W        W18441  17.822  20.817  17.294 -0.3898  0.0115  0.0064
75530W        W18442  16.827  19.272  15.907 -0.0969  0.2157  0.0705
75531W        W18443  15.132  19.749  15.568 -0.1381  0.0637 -0.0189
75532W        W18444  17.137  22.892  16.698 -0.1359  0.2242 -0.3998
75533W        W18445  13.732  21.444  16.809 -0.2286 -0.0953 -0.3012
75534W        W18446  15.636  20.778  16.555  0.2639  0.0798  0.2966
75535W        W18447  15.763  21.553  15.224 -0.0160  0.0639 -0.2751
75536W        W18448  17.675  20.827  16.077  0.5212 -0.0143 -0.3497
75537W        W18449  14.864  20.265  19.090  0.0686  0.1056 -0.0281
75538W        W18450  16.488  21.011  17.686 -0.1611  0.1433 -0.0984
75539W        W18451  15.899  19.977  16.039 -0.0421  0.0117 -0.1019
75540W        W18452  13.473  21.926  19.159  0.1117  0.0534 -0.1363
75541W        W18453  17.142  18.536  16.422  0.0119  0.0759 -0.0210
75542W        W18454  17.442  19.984  15.792 -0.2180  0.2690 -0.4212
75543W        W18455  17.132  22.535  17.201 -0.4503 -0.0596 -0.0493
75544W        W18456  18.467  21.106  16.756 -0.1625 -0.2369 -0.0377
75545W        W18457  16.006  19.263  16.020  0.0063 -0.0929  0.0580
75546W        W18458  16.434  18.921  15.823  0.1976 -0.1107 -0.3297
75547W        W18459  14.844  21.175  18.605  0.1662  0.4434 -0.4979
75548W        W18460  16.267  21.404  15.349 -0.0769  0.0916 -0.1058
75549W        W18461  16.203  22.419  18.106  0.0583  0.0097  0.0828
75550W        W18462  16.027  20.045  15.494  0.2287  0.0210  0.2636
75551W        W18463  19.747  21.746  16.326 -0.2696  0.2001  0.0847
75552W        W18464  14.749  22.479  19.045  0.1816  0.2303  0.0191
75553W        W18465  16.711  22.713  18.227  0.0831 -0.1971  0.1757
75554W        W18466  18.011  23.377  16.454 -0.1124  0.2135 -0.3282
75555W        W18467  16.249  17.478  16.704  0.5258 -0.1674  0.0611
75556W        W18468  16.090  19.877  14.951  0.0107  0.0055  0.1037
75557W        W18469  16.941  19.175  17.082  0.1771  0.2359  0.1017
75558W        W18470  14.492  21.166  15.187 -0.2754 -0.0717 -0.2551
75559W        W18471  17.056  20.373  16.674  0.2418 -0.0410  0.0158
75560W        W18472  16.884  19.499  17.490  0.1330  0.1078  0.1401
75561W        W18473  16.606  17.260  17.069  0.3273 -0.0364  0.1743
75562W        W18474  18.168  20.329  17.249  0.1844 -0.0677  0.1381
75563W        W18475  18.176  19.916  16.396 -0.3903 -0.0704 -0.0165
75564W        W18476  15.418  22.118  16.506  0.4401  0.2360 -0.2810
75565W        W18477  13.521  16.707  16.494  0.2875  0.0534  0.1969
75566W        W18478  16.359  20.113  18.176  0.1723  0.0681  0.2136
75567W        W18479  14.196  20.499  18.265 -0.0002 -0.2937  0.3373
75568W        W18480  14.124  22.183  19.581 -0.1018 -0.0765  0.3594
75569W        W18481  16.238  22.660  17.577  0.1878 -0.1544  0.2933
75570W        W18482  16.906  20.568  15.850  0.2043  0.0050  0.1359
75571W        W18483  16.575  19.806  17.754 -0.1759 -0.0809  0.1369
75572W        W18484  15.427  18.975  15.249 -0.1254  0.2830  0.0047
75573W        W18485  14.890  22.740  16.152  0.2391  0.0339 -0.1368
75574W        W18486  16.284  19.965  16.789  0.0513 -0.2532  0.3434
75575W        W18487  14.844  19.253  17.239  0.0578 -0.3169  0.2023
75576W        W18488  15.607  20.774  17.875 -0.2241 -0.1343 -0.3482
75577W        W18489  16.458  21.116  15.040 -0.0900 -0.0483  0.2702
75578W        W18490  17.323  21.222  17.672  0.0136  0.1195  0.0154
75579W        W18491  15.554  22.792  16.858 -0.3604 -0.2563  0.1113
75580W        W18492  17.619  18.438  16.615  0.1216  0.0813 -0.0637
75581W        W18493  14.548  22.510  18.137 -0.1278  0.0864  0.1156
75582W        W18494  16.239  20.711  15.167 -0.1219  0.1727  0.0167
75583W        W18495  14.530  19.568  16.268 -0.1555  0.0382 -0.2261
75584W        W18496  17.763  20.322  16.067  0.2386 -0.2021  0.2912
75585W        W18497  18.113  20.792  15.776  0.0164 -0.1637  0.1572
75586W        W18498  12.908  20.105  17.149  0.1524  0.1637 -0.1197
75587W        W18499  15.158  17.989  17.049 -0.0947  0.2980 -0.2141
75588W        W18500  14.987  22.321  17.923  0.1848  0.2490 -0.2594
75589W        W18501  16.514  20.955  16.959 -0.0278  0.1614 -0.3466
75590W        W18502  16.001  18.774  15.234 -0.0336 -0.3146  0.1393
75591W        W18503  17.043  21.358  18.063  0.2482 -0.1321  0.2629
75592W        W18504  16.372  21.301  17.314  0.0660 -0.1620  0.0376
75593W        W18505  13.002  19.771  16.746  0.1287 -0.0705 -0.1075
75594W        W18506  18.411  21.549  17.294 -0.0042  0.1193  0.0446
75595W        W18507  15.801  21.292  16.518 -0.0619  0.0428 -0.0794
75596W        W18508  14.252  21.994  18.014  0.0867 -0.2885 -0.0162
75597W        W18509  15.704  22.057  17.280 -0.0304  0.0522  0.2911
75598W        W18510  14.497  20.673  15.716 -0.0674  0.0280 -0.0437
75599W        W18511  14.931  22.180  16.259  0.2329 -0.1253  0.1435
75600W        W18512  15.353  19.999  18.094 -0.0128  0.0468  0.1467
75601W        W18513  17.532  21.552  17.300  0.0061 -0.1557 -0.0118
75602W        W18514  14.535  19.544  17.477  0.1100  0.0665  0.1652
75603W        W18515  14.736  19.144  16.368 -0.2655 -0.1550  0.0287
75604W        W18516  15.091  18.678  16.539 -0.2526 -0.1615  0.0336
75605W        W18517  18.531  21.601  16.805  0.1507  0.0033  0.2500
75606W        W18518  16.626  21.721  17.141  0.0464 -0.4038 -0.0318
75607W        W18519  14.572  21.600  18.700  0.0109 -0.1631  0.0604
75608W        W18520  14.713  17.871  16.642 -0.2127  0.0558 -0.1145
75609W        W18521  16.778  21.674  16.145 -0.0470  0.0838  0.1149
75610W        W18522  15.749  20.748  18.832  0.2068 -0.0143  0.0629
75611W        W18523  16.031  21.014  16.904 -0.3480 -0.1608  0.0353
75612W        W18524  13.936  21.423  17.317 -0.1634 -0.3480 -0.1584
75613W        W18525  16.140  21.549  15.785  0.0205  0.0549  0.2885
75614W        W18526  15.349  18.534  16.917 -0.2333  0.1996 -0.1654
75615W        W18527  14.310  21.357  19.849  0.0817  0.0131 -0.0970
75616W        W18528  15.415  21.606  16.674  0.0677 -0.0072 -0.0744
75617W        W18529  14.733  22.865  18.465  0.0041  0.1376 -0.2781
75618W        W18530  16.745  19.648  16.224  0.4955  0.1296 -0.0626
75619W        W18531  17.042  21.485  16.938  0.0797 -0.0719  0.1852
75620W        W18532  15.092  21.826  17.797  0.3545  0.0167  0.2434
75621W        W18533  17.376  19.401  17.039 -0.0923  0.2249  0.0230
75622W        W18534  17.610  19.128  15.288  0.2319  0.1088 -0.1051
75623W        W18535  16.436  19.299  17.147 -0.0938  0.1823 -0.2741
75624W        W18536  14.749  19.967  17.944 -0.4150  0.2316  0.3050
75625W        W18537  18.194  20.946  16.307  0.0814  0.4764  0.2099
75626W        W18538  14.360  19.563  19.148 -0.1803 -0.0503 -0.0060
75627W        W18539  15.855  21.971  18.925 -0.3239  0.1039  0.1409
75628W        W18540  14.990  21.287  20.213 -0.1089 -0.2607 -0.0214
75629W        W18541  15.723  18.427  16.039 -0.0985 -0.2437 -0.2175
75630W        W18542  15.401  20.984  15.828  0.2118  0.1274 -0.0759
75631W        W18543  15.348  20.443  19.043  0.0726  0.1750 -0.1537
75632W        W18544  18.530  19.572  16.647  0.0353  0.2114 -0.2287
75633W        W18545  17.063  22.053  16.439 -0.0382  0.1663 -0.0319
75634W        W18546  17.558  20.203  16.520  0.0931  0.0442 -0.1403
75635W        W18547  14.200  21.074  17.052  0.1447  0.1248 -0.0703
75636W        W18548  17.741  18.964  16.593  0.0693 -0.1518 -0.0483
75637W        W18549  16.768  19.836  15.760 -0.2084  0.0323 -0.0289
75638W        W18550  16.339  20.243  17.498  0.2375  0.2627 -0.1152
75639W        W18551  14.927  18.759  17.243 -0.1579 -0.0548  0.1729
75640W        W18552  16.741  20.535  17.590 -0.2327  0.4971 -0.0781
75641W        W18553  16.130  18.266  16.971  0.0564 -0.0003 -0.1798
75642W        W18554  16.336  19.401  17.622  0.0096 -0.0740  0.1069
75643W        W18555  16.019  20.734  18.308 -0.1521 -0.2680  0.1563
75644W        W18556  16.093  20.737  17.756 -0.1662 -0.0538  0.1663
75645W        W18557  14.489  19.137  18.177  0.0640  0.1775 -0.1821
75646W        W18558  18.016  23.379  17.868 -0.3112  0.2934  0.1395
75647W        W18559  18.102  19.053  16.097  0.0359  0.2419 -0.0774
75648W        W18560  19.229  18.860  17.593 -0.0969  0.0712  0.1258
75649W        W18561  16.495  18.946  16.742  0.1179 -0.1462 -0.3172
75650W        W18562  17.698  19.756  16.208 -0.2126  0.0152  0.1630
75651W        W18563  14.452  20.507  17.776 -0.2801  0.1155  0.1812
75652W        W18564  17.931  20.084  18.488  0.2454 -0.0652  0.1418
75653W        W18565  15.275  20.276  15.180  0.1074  0.1915  0.0515
75654W        W18566  17.485  19.396  16.517 -0.0607 -0.0528  0.0736
75655W        W18567  15.760  20.758  14.772  0.2906 -0.1903 -0.0181
75656W        W18568  16.606  20.346  16.275  0.0389  0.0728 -0.2262
75657W        W18569  16.397  18.438  16.544 -0.1343  0.1526  0.1531
75658W        W18570  14.847  19.766  17.115  0.0583  0.0469 -0.0406
75659W        W18571  15.396  20.936  19.110 -0.1303 -0.0000 -0.0848
75660W        W18572  15.126  19.857  15.050 -0.0061  0.0703 -0.1387
75661W        W18573  18.090  20.083  15.155 -0.1702  0.0576 -0.1353
75662W        W18574  17.057  20.785  16.958 -0.1780 -0.0345 -0.0209
75663W        W18575  17.877  21.473  18.050 -0.4340 -0.0613  0.0545
75664W        W18576  15.323  19.299  15.649  0.1390  0.0913 -0.0709
75665W        W18577  17.042  19.928  17.005 -0.1384  0.1722 -0.0548
75666W        W18578  14.617  21.456  16.058  0.2487  0.2293  0.0316
75667W        W18579  15.395  16.728  16.693 -0.3180  0.0198 -0.0158
75668W        W18580  15.311  23.133  16.598  0.2011 -0.1435 -0.1231
75669W        W18581  14.023  19.413  18.376  0.1631 -0.2291  0.0961
75670W        W18582  14.871  20.442  18.101 -0.3665 -0.0213 -0.0908
75671W        W18583  16.636  19.733  17.104 -0.1818 -0.0897  0.0343
75672W        W18584  16.139  18.696  16.231  0.0132 -0.1171  0.1552
75673W        W18585  15.915  21.014  17.371 -0.0518  0.0662 -0.0056
75674W        W18586  17.184  21.567  16.427  0.0581 -0.3640 -0.0410
75675W        W18587  17.108  21.665  17.437 -0.0765 -0.0634 -0.0426
75676W        W18588  14.976  21.328  17.793  0.0516 -0.0466  0.0141
75677W        W18589  16.720  21.732  18.439 -0.0914  0.2689 -0.1266
75678W        W18590  18.747  20.672  16.636 -0.2823  0.0656 -0.1216
75679W        W18591  15.811  22.137  18.146  0.1502  0.0396 -0.0088
75680W        W18592  13.872  19.862  19.153 -0.0393  0.0668  0.1969
75681W        W18593  15.559  21.034  18.401  0.3257 -0.1649  0.0602
75682W        W18594  15.495  18.935  16.377  0.0742  0.1783 -0.0938
75683W        W18595  15.116  18.782  15.644  0.2460  0.0921  0.2515
75684W        W18596  15.846  20.596  15.662 -0.0897  0.1408 -0.0672
75685W        W18597  14.849  20.844  19.032  0.1990  0.0145  0.0349
75686W        W18598  13.997  21.888  18.836 -0.1123  0.3145 -0.0225
75687W        W18599  15.243  22.214  15.563 -0.0046 -0.2295 -0.1748
75688W        W18600  18.239  21.741  16.138 -0.0736  0.1538  0.1283
75689W        W18601  17.034  20.128  16.088 -0.2043 -0.3320  0.4572
75690W        W18602  18.029  23.164  16.950  0.1387 -0.2244 -0.3933
75691W        W18603  16.462  19.919  15.382 -0.2781  0.1731 -0.3109
75692W        W18604  15.267  21.721  17.311 -0.0894  0.0260  0.1165
75693W        W18605  14.159  21.526  15.023 -0.2280 -0.2210  0.2214
75694W        W18606  17.339  22.406  16.729  0.1443 -0.1222  0.0570
75695W        W18607  15.314  22.966  16.117 -0.1488  0.3078  0.1612
75696W        W18608  17.697  21.399  18.552  0.1333 -0.1480  0.0068
75697W        W18609  17.769  18.870  15.709 -0.3696 -0.1190  0.1119
75698W        W18610  19.536  20.434  17.520 -0.0785  0.2410  0.0887
75699W        W18611  18.737  20.115  16.860  0.0101  0.1163 -0.0498
75700W        W18612  15.873  21.737  20.264  0.2849 -0.2295  0.2435
75701W        W18613  14.936  19.925  18.447 -0.0445  0.0649  0.0456
75702W        W18614  15.028  20.563  15.841 -0.0566  0.0980  0.4302
75703W        W18615  15.014  21.116  17.314 -0.1869 -0.2434 -0.4224
75704W        W18616  17.987  17.627  16.742  0.2946  0.2443 -0.0195
75705W        W18617  13.514  22.071  18.636 -0.1290  0.1014  0.0451
75706W        W18618  17.255  21.960  17.018 -0.0960  0.0312 -0.2268
75707W        W18619  14.584  18.966  16.846 -0.3066  0.0169 -0.1068
75708W        W18620  15.384  20.360  16.721  0.1187 -0.3070 -0.2913
75709W        W18621  19.937  19.147  16.251  0.2818 -0.0879  0.0725
75710W        W18622  15.677  22.318  15.663  0.1841  0.0620  0.0623
75711W        W18623  15.840  20.224  16.480 -0.0601  0.0199  0.0262
75712W        W18624  16.603  22.346  17.814  0.4077 -0.0186  0.1057
75713W        W18625  15.595  21.776  18.524  0.3058 -0.1334  0.1909
75714W        W18626  16.222  21.621  17.702 -0.2719 -0.1167  0.1867
75715W        W18627  15.501  19.376  16.693  0.1428  0.0922 -0.1322
75716W        W18628  18.736  20.000  16.198 -0.0440  0.0372 -0.0470
75717W        W18629  14.241  20.041  17.991  0.0585 -0.1570  0.0617
75718W        W18630  17.750  19.760  16.763 -0.1725 -0.0677 -0.5029
75719W        W18631  15.569  20.493  16.077  0.1923 -0.2138  0.0179
75720W        W18632  19.095  19.505  16.391  0.1540 -0.0042  0.0809
75721W        W18633  17.021  22.253  18.137  0.0551  0.3244  0.0661
75722W        W18634  13.897  20.672  16.956  0.1077 -0.2204 -0.0109
75723W        W18635  16.461  20.785  16.066  0.0676  0.1677 -0.0946
75724W        W18636  19.100  20.806  17.028 -0.0805  0.2658  0.0017
75725W        W18637  17.094  19.959  15.409  0.0491 -0.3177  0.1089
75726W        W18638  17.219  22.950  17.452  0.0857  0.1075 -0.2557
75727W        W18639  13.463  19.030  18.701  0.1977  0.0814  0.2420
75728W        W18640  18.266  20.317  16.015  0.1068  0.1592 -0.2476
75729W        W18641  15.009  21.209  16.683  0.0300  0.3272 -0.1865
75730W        W18642  15.016  20.349  18.619 -0.3211 -0.1184 -0.0610
75731W        W18643  18.411  22.056  17.566 -0.1835 -0.1910 -0.0396
75732W        W18644  15.106  19.513  16.359 -0.0998 -0.2404  0.0844
75733W        W18645  18.458  22.551  16.755 -0.4031 -0.0136 -0.1776
75734W        W18646  17.745  20.996  16.627  0.0796 -0.4697  0.0231
75735W        W18647  16.068  22.030  15.557  0.0478 -0.1902  0.1671
75736W        W18648  17.788  20.367  14.860 -0.2100 -0.0074  0.2933
75737W        W18649  19.184  22.965  16.527  0.0866 -0.2381  0.2387
75738W        W18650  13.652  19.227  17.811  0.5618 -0.1690 -0.0718
75739W        W18651  17.821  21.275  17.568 -0.2155  0.0483  0.1219
75740W        W18652  17.776  21.813  16.433  0.0415 -0.1664  0.2520
75741W        W18653  16.826  18.923  15.472 -0.0999 -0.0114  0.1729
75742W        W18654  14.908  20.606  17.328 -0.1407  0.2736 -0.0170
75743W        W18655  13.209  21.166  16.826  0.1171  0.4645  0.0898
75744W        W18656  17.787  20.239  16.935 -0.0152 -0.0865  0.0725
75745W        W18657  16.338  18.636  17.221 -0.1093  0.2555  0.3723
75746W        W18658  14.778  22.381  15.798 -0.1091 -0.1889 -0.0616
75747W        W18659  18.180  19.385  17.835 -0.0954  0.1266  0.0262
75748W        W18660  17.626  20.752  17.766 -0.0083  0.1108 -0.1161
75749W        W18661  15.127  22.164  17.432  0.1955  0.0668  0.0932
75750W        W18662  14.037  20.444  15.731  0.1038 -0.0633  0.2635
75751W        W18663  16.367  21.923  18.047  0.4533  0.1526 -0.1907
75752W        W18664  16.242  21.484  16.844  0.3670 -0.1126  0.2123
75753W        W18665  16.566  22.213  16.343 -0.2439  0.0608  0.1977
75754W        W18666  16.833  22.105  15.914 -0.0589 -0.0194  0.0937
75755W        W18667  15.460  19.918  16.454 -0.2166 -0.2236  0.0214
75756W        W18668  18.947  21.629  17.490  0.0672  0.0611 -0.1905
75757W        W18669  14.891  19.932  16.633 -0.1014  0.0625 -0.1483
75758W        W18670  17.297  19.521  15.925 -0.1874 -0.0890 -0.4556
75759W        W18671  16.343  19.568  15.839  0.0810 -0.2189  0.2448
75760W        W18672  14.486  19.680  18.299 -0.0239 -0.0960  0.0084
75761W        W18673  13.574  21.573  15.943  0.1949  0.3108 -0.0775
75762W        W18674  14.652  20.416  16.245 -0.3197 -0.3934 -0.2234
75763W        W18675  15.448  21.155  16.966 -0.5065 -0.1742  0.0229
75764W        W18676  15.669  17.775  17.689 -0.1758  0.0129  0.0729
75765W        W18677  14.622  19.950  18.879 -0.2719 -0.0028  0.0699
75766W        W18678  14.529  20.153  18.398  0.1112 -0.2952  0.3583
75767W        W18679  14.158  18.365  16.248 -0.1610 -0.1041 -0.0775
75768W        W18680  17.937  21.571  15.271  0.2779 -0.3143  0.1521
75769W        W18681  14.251  18.644  17.697 -0.0120  0.0564  0.1735
75770W        W18682  13.292  19.754  17.335 -0.2710  0.4204  0.3379
75771W        W18683  17.845  20.567  15.372  0.0442 -0.4417 -0.1146
75772W        W18684  17.977  22.746  16.752  0.1159 -0.0947  0.1376
75773W        W18685  15.205  20.179  17.194 -0.1686 -0.2758  0.5281
75774W        W18686  18.942  21.746  19.078 -0.1852 -0.0799  0.2390
75775W        W18687  15.766  21.267  15.649  0.1050 -0.0802 -0.0267
75776W        W18688  16.132  19.794  17.254 -0.1047  0.0213 -0.0865
75777W        W18689  15.009  19.583  17.993  0.0049 -0.2618 -0.3102
75778W        W18690  15.349  20.240  15.645  0.2455 -0.0900 -0.1854
75779W        W18691  15.836  20.272  17.040 -0.2460 -0.1869  0.1418
75780W        W18692  16.359  22.073  16.825  0.1104  0.1727  0.0133
75781W        W18693  16.134  21.679  16.354  0.2618 -0.1378  0.0872
75782W        W18694  16.680  21.471  17.644  0.1861 -0.2819 -0.0748
75783W        W18695  15.371  22.430  16.118  0.2672 -0.1450  0.0026
75784W        W18696  14.049  18.005  18.171  0.2286  0.1209 -0.0302
75785W        W18697  17.854  19.377  15.782 -0.1360 -0.0231 -0.1517
75786W        W18698  15.882  20.942  16.083  0.1656  0.2968  0.0951
75787W        W18699  18.344  20.373  15.503  0.0882 -0.1264 -0.3766
75788W        W18700  18.241  19.059  16.638 -0.1620  0.2626  0.0655
75789W        W18701  16.433  19.269  16.242 -0.0925  0.4034 -0.0214
75790W        W18702  13.786  18.690  18.976 -0.0494  0.2318  0.1004
75791W        W18703  16.310  19.443  18.804  0.5280 -0.1819  0.1777
75792W        W18704  18.133  20.707  16.919  0.1363 -0.1183  0.1952
75793W        W18705  16.056  17.959  16.503 -0.2069  0.1656 -0.0744
75794W        W18706  16.665  18.787  16.285 -0.1917  0.1024  0.2892
75795W        W18707  16.311  19.882  16.282 -0.1919  0.0036 -0.2845
75796W        W18708  12.198  19.293  17.783 -0.3310  0.2553 -0.0765
75797W        W18709  15.754  20.948  15.259 -0.0355 -0.0057  0.2088
75798W        W18710  15.814  19.767  18.140  0.3216 -0.1772 -0.1999
75799W        W18711  17.198  20.737  17.473 -0.0109  0.0680 -0.3228
75800W        W18712  18.693  21.951  17.124 -0.0590  0.0962  0.2542
75801W        W18713  15.761  19.593  15.737  0.1696  0.0828 -0.3845
75802W        W18714  18.543  21.315  16.296 -0.2072 -0.3267  0.2452
75803W        W18715  17.602  22.583  17.518  0.0038  0.2898 -0.0198
75804W        W18716  17.076  22.158  17.688 -0.1270 -0.1526  0.3761
75805W        W18717  15.281  22.618  17.571  0.0428  0.0558  0.1904
75806W        W18718  18.083  21.397  16.532  0.0600 -0.2080 -0.4566
75807W        W18719  14.036  18.804  16.764 -0.1812 -0.0427  0.1202
75808W        W18720  17.466  20.617  16.733  0.0982 -0.0853 -0.2474
75809W        W18721  15.174  20.918  18.104 -0.1637  0.0410  0.3436
75810W        W18722  16.081  19.898  17.723  0.0553  0.2684  0.1134
75811W        W18723  15.140  19.752  17.544  0.1085  0.3776 -0.0030
75812W        W18724  16.309  19.194  15.216  0.0686  0.0488  0.1405
75813W        W18725  15.795  22.655  17.321 -0.2234 -0.2083 -0.0809
75814W        W18726  16.137  21.791  17.242  0.0198 -0.0126  0.1255
75815W        W18727  15.357  20.419  21.169 -0.2560 -0.0974  0.1393
75816W        W18728  14.416  19.226  18.725  0.2028 -0.2623 -0.1738
75817W        W18729  16.958  20.908  17.937  0.0250  0.1825 -0.2735
75818W        W18730  18.992  19.925  18.263  0.0444  0.1594 -0.0284
75819W        W18731  13.520  19.104  20.774 -0.0786 -0.0257  0.2621
75820W        W18732  17.240  22.217  20.007  0.1665 -0.2051  0.1296
75821W        W18733  14.643  18.601  21.194 -0.0174  0.0347 -0.1571
75822W        W18734  17.484  21.824  18.730  0.1701 -0.0938 -0.5612
75823W        W18735  18.704  22.269  19.951  0.0815 -0.2400  0.0295
75824W        W18736  16.902  20.576  18.271 -0.0349 -0.1107 -0.0093
75825W        W18737  14.778  19.746  19.417  0.0043 -0.2296 -0.4019
75826W        W18738  15.426  21.531  20.760 -0.1684  0.0662  0.2953
75827W        W18739  15.123  19.786  18.893 -0.3124  0.0507  0.2758
75828W        W18740  13.747  18.022  19.858 -0.1491 -0.3960 -0.0202
75829W        W18741  15.188  20.093  19.579  0.0146  0.0509  0.0763
75830W        W18742  13.673  19.328  22.204  0.0782 -0.2097 -0.2253
75831W        W18743  14.800  19.416  19.002  0.1141  0.2272 -0.0110
75832W        W18744  15.435  23.271  19.558  0.0493  0.0045  0.0967
75833W        W18745  15.701  19.934  20.347 -0.1860  0.4210  0.1370
75834W        W18746  15.522  19.158  19.720  0.3152 -0.4747  0.2198
75835W        W18747  16.453  20.616  18.075  0.3352  0.2432  0.2802
75836W        W18748  13.831  19.879  18.404  0.3243 -0.0596  0.4613
75837W        W18749  14.541  19.029  19.198 -0.0510  0.1866  0.1445
75838W        W18750  15.167  19.954  21.194  0.0729 -0.0099 -0.1347
75839W        W18751  16.959  20.177  19.725 -0.1080  0.1598  0.0365
75840W        W18752  17.230  19.897  19.280  0.0832 -0.1544 -0.0677
75841W        W18753  15.166  22.840  19.971  0.0928  0.1882  0.0019
75842W        W18754  16.091  21.531  19.762 -0.4110 -0.4131  0.4452
75843W        W18755  14.164  21.442  20.628  0.3043 -0.0377  0.0716
75844W        W18756  15.081  22.293  21.042 -0.1684 -0.0365  0.1631
75845W        W18757  14.512  22.975  18.938  0.0156  0.2320 -0.0695
75846W        W18758  17.934  22.482  18.620 -0.1072 -0.1854 -0.0326
75847W        W18759  16.775  23.196  20.531 -0.0366 -0.2502 -0.0901
75848W        W18760  16.090  22.084  22.687 -0.1044 -0.1439  0.1452
75849W        W18761  14.804  21.450  19.820  0.0758 -0.0497  0.5247
75850W        W18762  15.496  22.016  22.160 -0.0597  0.2906  0.0119
75851W        W18763  15.045  21.232  20.924 -0.4714 -0.1482 -0.3275
75852W        W18764  15.741  21.944  21.569  0.1362 -0.0746 -0.2122
75853W        W18765  17.264  19.692  18.665  0.1090 -0.0416  0.2392
75854W        W18766  15.809  22.680  18.420  0.1419  0.1272 -0.3912
75855W        W18767  16.231  20.716  18.974 -0.1808 -0.3517 -0.0280
75856W        W18768  14.544  19.869  21.236  0.3269 -0.0701  0.0826
75857W        W18769  15.285  20.757  21.822 -0.0454 -0.0606  0.0806
75858W        W18770  18.305  18.833  19.673  0.2020 -0.3856  0.0047
75859W        W18771  15.967  21.105  19.231 -0.2438  0.0326  0.1359
75860W        W18772  16.827  20.299  18.995 -0.1342 -0.0756  0.0596
75861W        W18773  13.983  18.947  18.631 -0.1619 -0.1522 -0.0987
75862W        W18774  18.115  19.786  18.115 -0.0062  0.3466 -0.1710
75863W        W18775  16.047  18.678  18.601 -0.3869  0.1151  0.1015
75864W        W18776  15.294  22.757  20.987  0.1541 -0.4196  0.4330
75865W        W18777  13.733  19.548  20.856 -0.2548  0.2614  0.1735
75866W        W18778  15.593  19.861  18.998 -0.0028 -0.1528  0.0511
75867W        W18779  15.064  22.208  21.643 -0.0266  0.1865 -0.3709
75868W        W18780  15.922  19.222  19.398  0.1550 -0.0115 -0.1246
75869W        W18781  17.436  22.318  18.496 -0.1244 -0.0175 -0.0040
75870W        W18782  17.955  22.628  19.447 -0.3457 -0.2176  0.2097
75871W        W18783  17.517  23.497  17.957  0.0304 -0.1696 -0.1127
75872W        W18784  14.832  18.837  19.663  0.4231 -0.0137 -0.0600
75873W        W18785  14.702  20.105  21.718  0.1637 -0.1617  0.0542
75874W        W18786  13.681  20.137  22.940  0.2147  0.0356 -0.0932
75875W        W18787  16.062  18.082  17.922  0.0810  0.2332 -0.0955
75876W        W18788  18.200  21.374  20.190 -0.1311 -0.2284  0.0386
75877W        W18789  16.055  23.162  21.703 -0.4006 -0.0067  0.0835
75878W        W18790  14.964  20.270  20.620 -0.1096 -0.0340  0.1584
75879W        W18791  16.761  22.268  19.949 -0.0986 -0.1903  0.2690
75880W        W18792  18.080  20.639  17.759 -0.0535 -0.0581  0.1223
75881W        W18793  16.116  22.253  18.573 -0.1635 -0.2423 -0.0884
75882W        W18794  15.710  21.380  18.815  0.0050  0.1610 -0.0418
75883W        W18795  18.358  22.140  19.198  0.1975  0.0482  0.0540
75884W        W18796  17.994  21.867  17.368  0.1285 -0.0061 -0.1286
75885W        W18797  15.399  22.065  20.432  0.1734 -0.1957 -0.0118
75886W        W18798  16.134  19.819  20.049  0.0464 -0.1466  0.0486
75887W        W18799  16.546  21.739  20.597  0.3540 -0.1506  0.2466
75888W        W18800  15.532  22.331  18.622 -0.2204  0.1895  0.0118
75889W        W18801  12.483  21.964  21.378 -0.0401 -0.0406  0.0405
75890W        W18802  14.549  22.405  19.821  0.1430 -0.1260  0.0968
75891W        W18803  13.454  18.686  20.356 -0.0223 -0.0687  0.0105
75892W        W18804  14.864  19.769  20.816 -0.0275  0.1562  0.0409
75893W        W18805  17.834  18.828  17.794 -0.2500  0.0263  0.2870
75894W        W18806  15.047  19.476  20.419  0.0770 -0.0163 -0.0527
75895W        W18807  18.405  18.954  18.618 -0.0585  0.1380  0.2320
75896W        W18808  14.597  19.482  20.571  0.4358 -0.0957 -0.3594
75897W        W18809  18.307  22.201  18.393 -0.0211 -0.1915 -0.0908
75898W        W18810  17.882  20.904  18.284 -0.1233 -0.1929 -0.1035
75899W        W18811  16.870  21.818  17.967 -0.4158  0.2546 -0.0783
75900W        W18812  13.708  19.711  21.714 -0.0500  0.0905  0.0572
75901W        W18813  16.179  19.735  19.254 -0.0677  0.1332  0.0443
75902W        W18814  14.260  18.114  21.248  0.1911 -0.0334  0.0028
75903W        W18815  14.645  18.073  19.929 -0.1981 -0.0218 -0.2613
75904W        W18816  13.520  17.696  19.567  0.0117 -0.1125 -0.0693
75905W        W18817  17.635  19.621  18.328 -0.1815 -0.1871 -0.0506
75906W        W18818  15.725  19.442  20.142  0.0138 -0.0240  0.1909
75907W        W18819  14.780  19.894  20.248  0.1313  0.2986 -0.2916
75908W        W18820  17.480  18.819  21.043 -0.0526  0.0822 -0.1206
75909W        W18821  17.296  23.498  19.295  0.1141 -0.0950 -0.1749
75910W        W18822  18.413  22.499  18.823 -0.0726 -0.2342  0.0390
75911W        W18823  19.418  22.291  20.099  0.0561  0.0584  0.3211
75912W        W18824  14.998  18.557  20.193  0.2887  0.0596 -0.1940
75913W        W18825  15.238  18.732  19.330 -0.0951  0.0862 -0.1952
75914W        W18826  14.856  22.138  20.406 -0.1234  0.1324 -0.1368
75915W        W18827  15.905  21.309  20.680 -0.0957  0.3060 -0.1577
75916W        W18828  15.679  18.796  19.026 -0.2620 -0.0853  0.1846
75917W        W18829  17.201  22.675  19.856 -0.0910 -0.2707 -0.0950
75918W        W18830  16.332  20.808  19.458 -0.3470  0.0684 -0.1833
75919W        W18831  13.898  20.603  20.625 -0.3874  0.1986 -0.3367
75920W        W18832  16.277  19.539  18.159 -0.0420 -0.2281  0.2192
75921W        W18833  13.793  19.507  18.842 -0.1060  0.3192 -0.2554
75922W        W18834  18.313  23.643  21.010  0.0482  0.2870 -0.0627
75923W        W18835  13.541  22.598  20.899 -0.2705 -0.2847 -0.0355
75924W        W18836  13.897  18.788  20.637  0.1299  0.3312 -0.1075
75925W        W18837  14.743  21.967  19.920  0.0804  0.0942  0.2018
75926W        W18838  12.225  20.302  22.661 -0.0152 -0.0889  0.0203
75927W        W18839  14.499  20.585  19.396 -0.1170  0.1376  0.0073
75928W        W18840  14.667  21.203  21.333 -0.3458  0.1520  0.3751
75929W        W18841  15.370  18.684  18.018  0.1186 -0.3980 -0.2095
75930W        W18842  18.589  19.308  18.110 -0.2627  0.2068 -0.0527
75931W        W18843  16.734  21.237  21.113 -0.0672 -0.1443 -0.1299
75932W        W18844  15.713  21.087  19.650  0.0417  0.1388  0.2792
75933W        W18845  17.335  19.765  17.374 -0.2585 -0.3201 -0.0779
75934W        W18846  15.867  19.333  17.814 -0.0943 -0.1080 -0.0756
75935W        W18847  14.696  21.215  20.575  0.2462  0.0094 -0.0949
75936W        W18848  15.901  21.461  21.572  0.0298  0.1181  0.0290
75937W        W18849  14.885  20.726  20.812  0.1328 -0.0780 -0.0103
75938W        W18850  16.364  20.017  18.700  0.1280 -0.1663  0.0698
75939W        W18851  18.033  22.794  19.010  0.1347 -0.0673 -0.2248
75940W        W18852  15.122  21.240  21.535 -0.0454  0.2258  0.0780
75941W        W18853  17.122  20.854  21.109  0.4302  0.4448 -0.0478
75942W        W18854  16.001  21.904  20.705  0.0177  0.2357 -0.0550
75943W        W18855  15.384  18.720  19.838 -0.3218  0.1897  0.0764
75944W        W18856  14.605  20.611  18.622 -0.1181  0.0461  0.0866
75945W        W18857  16.740  20.775  18.819 -0.0879  0.0147  0.0622
75946W        W18858  15.864  22.544  18.911 -0.2590  0.0286  0.6114
75947W        W18859  17.212  19.366  19.167  0.2574  0.1476 -0.0402
75948W        W18860  20.337  21.714  18.857  0.2054 -0.0205  0.3026
75949W        W18861  16.673  22.131  19.197  0.0646 -0.3008  0.1779
75950W        W18862  14.357  20.367  18.957  0.1684 -0.0959 -0.1695
75951W        W18863  14.429  20.012  20.674  0.1504 -0.1144  0.0449
75952W        W18864  14.114  22.049  21.487 -0.4018 -0.0955  0.1487
75953W        W18865  16.279  22.452  20.708  0.1768  0.1993 -0.0046
75954W        W18866  16.795  21.564  18.871 -0.1754  0.1726 -0.1813
75955W        W18867  16.739  19.685  18.289  0.1575 -0.0501  0.4449
75956W        W18868  15.973  23.306  19.234  0.1344 -0.0613  0.0477
75957W        W18869  17.380  21.381  18.950 -0.4725  0.1195  0.0675
75958W        W18870  15.740  18.687  19.519 -0.0330  0.3680  0.0415
75959W        W18871  15.472  23.607  20.388  0.2138  0.1329 -0.0242
75960W        W18872  14.725  20.925  18.202 -0.2843  0.4443 -0.2616
75961W        W18873  17.463  21.692  19.696 -0.1140 -0.0443 -0.0851
75962W        W18874  15.432  21.544  21.323 -0.1027  0.0604  0.0101
75963W        W18875  16.356  18.566  18.225  0.0880 -0.0146  0.3424
75964W        W18876  14.716  22.897  21.578  0.1625  0.0128  0.4294
75965W        W18877  15.888  20.298  17.973  0.0208  0.1522 -0.0161
75966W        W18878  12.534  18.913  19.674  0.3907  0.1782  0.2494
75967W        W18879  17.796  20.546  18.627 -0.0360  0.1533  0.2602
75968W        W18880  13.899  19.170  21.084  0.2710 -0.2602 -0.0535
75969W        W18881  15.384  19.083  20.202 -0.1308 -0.1931  0.1099
75970W        W18882  13.480  20.689  24.221  0.1449 -0.4078 -0.0155
75971W        W18883  17.222  19.850  20.548  0.2810 -0.0161 -0.0533
75972W        W18884  16.599  18.998  17.483 -0.0599 -0.4025  0.1092
75973W        W18885  16.915  21.904  20.341  0.0529 -0.1616  0.1584
75974W        W18886  16.670  21.170  19.697 -0.0888 -0.1765 -0.0855
75975W        W18887  14.167  18.613  21.143 -0.0867 -0.0492 -0.2460
75976W        W18888  16.616  19.000  18.913 -0.0529 -0.2429  0.3158
75977W        W18889  14.409  21.396  22.647 -0.0054  0.6395  0.0726
75978W        W18890  17.157  21.851  19.298 -0.1246  0.2276 -0.0105
75979W        W18891  15.468  20.121  18.609  0.2080  0.2024 -0.1227
75980W        W18892  14.915  21.703  20.720  0.1118 -0.1387 -0.0120
75981W        W18893  15.227  19.469  21.021 -0.2198 -0.1466  0.0357
75982W        W18894  16.879  21.007  20.283 -0.0051 -0.0528  0.1819
75983W        W18895  16.510  20.164  20.269  0.1735 -0.0917  0.0643
75984W        W18896  14.282  18.846  19.637  0.2206  0.0736 -0.1455
75985W        W18897  16.593  19.961  19.542  0.0413  0.1864 -0.2572
75986W        W18898  16.409  21.422  20.173 -0.0276 -0.0797 -0.0044
75987W        W18899  17.315  20.342  20.022 -0.2620  0.1696 -0.3148
75988W        W18900  15.293  21.360  22.145  0.1045  0.1395  0.2622
75989W        W18901  16.235  18.198  18.585 -0.1313  0.2750 -0.1153
75990W        W18902  18.304  23.813  19.994  0.2688  0.0852  0.2378
75991W        W18903  14.698  20.889  19.824  0.1043 -0.0424 -0.3659
75992W        W18904  15.295  21.130  19.889  0.2311  0.2348 -0.2409
75993W        W18905  16.064  20.584  19.814 -0.2621  0.2915 -0.0672
75994W        W18906  17.035  18.476  18.645  0.3097  0.1457  0.0736
75995W        W18907  15.163  20.543  19.956 -0.3907  0.2499  0.0410
75996W        W18908  15.494  23.123  17.232 -0.0936  0.1690  0.0423
75997W        W18909  13.387  22.365  22.410  0.2679 -0.0673  0.2006
75998W        W18910  18.639  19.796  17.906  0.3734 -0.1698 -0.0626
75999W        W18911  16.100  21.103  18.605 -0.0557 -0.0732 -0.4014
76000W        W18912  15.135  18.287  19.023  0.0850 -0.1222 -0.0942
76001W        W18913  18.834  18.679  19.878  0.3531 -0.1957 -0.1642
76002W        W18914  16.554  21.349  18.126  0.0359  0.0926 -0.0343
76003W        W18915  15.742  19.330  18.915 -0.0791 -0.1895 -0.1355
76004W        W18916  16.476  21.810  19.744 -0.3514  0.0115  0.0331
76005W        W18917  12.479  20.344  21.959  0.0702  0.0418 -0.1222
76006W        W18918  16.767  23.135  21.840 -0.1465  0.0108 -0.2219
76007W        W18919  14.433  20.909  22.596 -0.0410 -0.1254 -0.0903
76008W        W18920  17.641  20.550  19.155  0.1257  0.0353  0.0157
76009W        W18921  16.096  18.586  17.692 -0.1403 -0.2538  0.2430
76010W        W18922  16.725  19.786  19.991  0.0851  0.0915 -0.2653
76011W        W18923  17.037  22.345  19.493 -0.2952 -0.1374  0.1744
76012W        W18924  16.967  21.213  18.563 -0.0473 -0.0810  0.3131
76013W        W18925  16.695  19.717  19.080  0.2072  0.2244 -0.1748
76014W        W18926  14.278  20.451  20.921 -0.0928 -0.1629 -0.2022
76015W        W18927  17.670  20.289  17.484  0.1730 -0.1648 -0.0318
76016W        W18928  15.753  22.247  19.371  0.2195 -0.1242  0.1143
76017W        W18929  15.542  19.582  21.352  0.0015  0.1220 -0.0208
76018W        W18930  15.317  18.731  20.775 -0.5598 -0.0907 -0.0558
76019W        W18931  16.512  21.138  19.139 -0.2028  0.0955  0.0501
76020W        W18932  15.992  20.197  18.463 -0.2697  0.3482 -0.1274
76021W        W18933  17.386  19.249  19.868  0.0861  0.0309 -0.2837
76022W        W18934  17.883  19.197  19.637  0.0472 -0.0374  0.0591
76023W        W18935  15.263  20.083  20.264  0.0701  0.0969  0.0409
76024W        W18936  13.937  20.172  21.416 -0.4468  0.1471 -0.0350
76025W        W18937  16.927  22.812  21.323 -0.0361  0.1227 -0.0070
76026W        W18938  18.240  20.352  18.119 -0.3206 -0.0442  0.2298
76027W        W18939  17.578  20.092  18.807  0.0932  0.0013  0.4518
76028W        W18940  16.899  22.647  18.670  0.2622  0.4956  0.1953
76029W        W18941  14.588  19.418  20.101 -0.0356  0.2563  0.2924
76030W        W18942  17.807  20.078  20.989 -0.3812  0.1000 -0.2652
76031W        W18943  15.442  19.193  18.084 -0.1620  0.0752 -0.2896
76032W        W18944  16.003  22.680  19.382 -0.2293  0.1464 -0.0222
76033W        W18945  16.468  21.933  18.776  0.1792  0.4904 -0.0672
76034W        W18946  16.760  19.278  17.958  0.1330 -0.1992 -0.0069
76035W        W18947  14.342  19.006  20.255  0.0965 -0.1951  0.1805
76036W        W18948  14.781  20.569  21.882 -0.1960 -0.1093 -0.1646
76037W        W18949  15.445  19.803  19.897 -0.0296  0.2495 -0.4074
76038W        W18950  16.774  20.204  17.966 -0.1864 -0.1578  0.3910
76039W        W18951  15.862  20.793  20.575 -0.0182 -0.1072 -0.2017
76040W        W18952  18.207  20.847  20.251 -0.2484  0.2829 -0.1482
76041W        W18953  16.140  20.099  19.587  0.1253  0.1883 -0.1987
76042W        W18954  14.708  23.382  19.766  0.0795  0.0858 -0.0354
76043W        W18955  15.964  19.761  18.667  0.1817 -0.3517  0.1564
76044W        W18956  16.449  22.060  20.954 -0.0939 -0.1605  0.1567
76045W        W18957  14.270  21.213  22.114  0.3162 -0.0768 -0.2508
76046W        W18958  15.287  22.311  19.106 -0.0993  0.0696  0.0429
76047W        W18959  15.986  18.308  19.575 -0.1220  0.2373 -0.1895
76048W        W18960  16.445  20.928  20.046  0.1988  0.1229 -0.0291
76049W        W18961  15.916  20.314  18.944 -0.0802  0.1790 -0.3533
76050W        W18962  17.712  22.090  21.497 -0.0716  0.3405  0.0871
76051W        W18963  14.319  20.943  20.750  0.0692 -0.2854  0.1176
76052W        W18964  15.878  22.881  20.877 -0.4780 -0.3319  0.0973
76053W        W18965  17.393  20.661  18.250  0.0037 -0.2619  0.0943
76054W        W18966  14.559  21.651  20.274  0.0560  0.1478 -0.1293
76055W        W18967  13.172  20.107  21.769  0.0088  0.0184 -0.2047
76056W        W18968  17.612  20.164  20.495  0.1985  0.0138 -0.0954
76057W        W18969  16.989  21.837  19.821 -0.1346 -0.0974 -0.0617
76058W        W18970  15.145  17.904  18.509  0.1669 -0.1137  0.2029
76059W        W18971  16.211  22.001  19.312 -0.0332 -0.4970  0.1319
76060W        W18972  13.852  21.034  22.449 -0.0920 -0.2159  0.1023
76061W        W18973  15.576  19.431  20.616 -0.0843  0.2034 -0.1939
76062W        W18974  13.952  22.658  19.762 -0.2250 -0.2877  0.0306
76063W        W18975  16.209  21.551  18.981 -0.4015 -0.0725  0.3367
76064W        W18976  16.423  23.038  19.434 -0.0123  0.4047 -0.2453
76065W        W18977  16.738  22.302  20.617  0.2713 -0.2783 -0.0906
76066W        W18978  14.233  18.586  19.140 -0.0402 -0.0406 -0.0929
76067W        W18979  13.588  21.929  21.141 -0.2804  0.0720 -0.0413
76068W        W18980  15.136  21.679  19.542 -0.0559 -0.0874  0.1457
76069W        W18981  19.230  21.232  17.656  0.2457 -0.2453  0.1355
76070W        W18982  15.496  20.616  19.550 -0.2762 -0.0130  0.1266
76071W        W18983  18.466  21.614  20.561 -0.1551  0.0971 -0.0156
76072W        W18984  17.685  19.398  17.480 -0.0440 -0.0487  0.2704
76073W        W18985  18.439  20.303  18.596  0.1329 -0.3257  0.0838
76074W        W18986  17.673  19.179  18.097  0.1610 -0.0628 -0.2265
76075W        W18987  15.829  19.643  19.701  0.0896  0.0817 -0.0256
76076W        W18988  15.874  19.322  18.412  0.1572 -0.0533  0.0928
76077W        W18989  14.727  20.966  22.153  0.1220  0.1576 -0.0743
76078W        W18990  14.227  22.239  21.939 -0.0858 -0.4246 -0.1979
76079W        W18991  18.132  23.322  20.036 -0.0315 -0.0658  0.0873
76080W        W18992  13.558  19.065  19.179  0.3839  0.0188  0.0404
76081W        W18993  15.970  21.164  20.136  0.0009  0.2339  0.3809
76082W        W18994  18.588  17.769  19.284  0.0948 -0.2702 -0.0600
76083W        W18995  15.551  20.496  18.321  0.1170 -0.2035  0.1931
76084W        W18996  16.779  20.721  19.335  0.0625  0.0408 -0.1486
76085W        W18997  15.269  20.851  20.324 -0.3883  0.0956 -0.1062
76086W        W18998  16.486  21.219  20.611  0.1290 -0.3137 -0.0746
76087W        W18999  16.234  22.784  21.233 -0.5136 -0.1532  0.0052
76088W        W19000  13.132  19.516  20.113 -0.1497 -0.0824 -0.1024
76089W        W19001  16.569  20.954  18.409  0.2684 -0.1431  0.1166
76090W        W19002  13.980  19.671  21.280 -0.1172  0.4143  0.1931
76091W        W19003  17.679  18.730  19.603  0.3570  0.1306  0.1646
76092W        W19004  16.040  20.367  20.263 -0.3077 -0.0560 -0.4554
76093W        W19005  18.146  19.251  18.317  0.0297  0.2657  0.1321
76094W        W19006  15.575  20.811  21.408  0.1585  0.2276 -0.0663
76095W        W19007  14.240  19.897  21.707 -0.2591 -0.4339 -0.0740
76096W        W19008  16.385  20.478  18.615  0.1253 -0.0410 -0.2164
76097W        W19009  15.628  20.143  19.399  0.0023 -0.2365 -0.4454
76098W        W19010  18.507  22.576  20.334 -0.0504 -0.1213 -0.3222
76099W        W19011  15.280  19.316  18.810 -0.1227  0.2368  0.1590
76100W        W19012  16.849  19.426  18.702 -0.3109  0.0498  0.0215
76101W        W19013  15.691  20.301  19.910  0.0096  0.1281  0.1516
76102W        W19014  16.897  20.465  20.278 -0.2029 -0.3266 -0.1229
76103W        W19015  18.977  22.840  22.027  0.0569 -0.1026  0.0175
76104W        W19016  14.375  18.443  20.679 -0.0477  0.0400  0.1072
76105W        W19017  18.208  21.128  17.946  0.1430  0.0147  0.0825
76106W        W19018  15.802  21.706  19.405  0.2397 -0.0682 -0.1661
76107W        W19019  17.491  20.721  19.627  0.0309  0.0958 -0.0696
76108W        W19020  17.610  22.988  19.915  0.1605  0.3218  0.0771
76109W        W19021  14.378  19.014  21.348  0.1963 -0.2891  0.4060
76110W        W19022  16.842  22.683  20.325  0.0419 -0.2079  0.0182
76111W        W19023  19.502  22.799  18.949 -0.0607 -0.0325  0.5180
76112W        W19024  14.490  18.113  18.298  0.0087 -0.0824 -0.1272
76113W        W19025  15.363  19.637  19.379 -0.1839  0.1320  0.1000
76114W        W19026  14.149  23.398  19.709 -0.0491  0.2872 -0.0378
76115W        W19027  17.279  20.131  18.372  0.2703  0.2009  0.0012
76116W        W19028  16.896  23.104  18.561  0.2300  0.1001  0.2015
76117W        W19029  16.378  22.406  22.029  0.3031 -0.0216 -0.0271
76118W        W19030  15.530  21.173  21.756 -0.0596  0.0768  0.1878
76119W        W19031  14.980  20.582  19.509  0.0455 -0.1732  0.0986
76120W        W19032  15.553  20.407  20.585  0.0577 -0.2674  0.1811
76121W        W19033  15.926  22.253  20.347  0.0240 -0.2371 -0.1899
76122W        W19034  16.301  22.388  19.035 -0.0881  0.0117 -0.0189
76123W        W19035  17.274  20.492  18.753  0.2759 -0.2504 -0.1897
76124W        W19036  16.338  20.198  19.152  0.1977 -0.0224 -0.1047
76125W        W19037  17.428  22.696  19.445  0.2431 -0.2001  0.3228
76126W        W19038  16.478  19.298  19.263  0.1631 -0.0048  0.1044
76127W        W19039  17.098  18.781  17.395 -0.2678  0.1361  0.5233
76128W        W19040  14.740  20.428  21.188  0.2243  0.1802  0.0092
76129W        W19041  15.108  19.415  19.873  0.1634  0.1675 -0.2614
76130W        W19042  13.755  21.585  19.741  0.0460 -0.0160  0.2671
76131W        W19043  14.207  19.640  20.345 -0.0474 -0.4945  0.1156
76132W        W19044  13.344  18.859  22.239  0.1102  0.0741  0.3433
76133W        W19045  14.731  20.200  19.753  0.1591  0.4277  0.1845
76134W        W19046  15.059  18.765  18.795  0.2342  0.1585  0.0088
76135W        W19047  16.583  22.298  18.430 -0.1931  0.1721  0.2015
76136W        W19048  15.616  18.225  19.246  0.1587 -0.2111  0.0032
76137W        W19049  13.076  19.608  21.545 -0.2493 -0.0137 -0.0849
76138W        W19050  15.186  20.834  18.630  0.1184  0.0212 -0.1889
76139W        W19051  18.032  24.204  19.811 -0.0313 -0.2785  0.1633
76140W        W19052  15.390  19.667  18.441  0.1988 -0.1238  0.1133
76141W        W19053  18.416  22.394  19.595  0.1817 -0.1144  0.2786
76142W        W19054  14.607  21.115  19.411 -0.0948 -0.2510 -0.1595
76143W        W19055  17.867  20.060  20.057 -0.2156 -0.0009  0.0012
76144W        W19056  14.964  18.981  18.211  0.2561 -0.1286  0.1382
76145W        W19057  16.854  19.103  19.556 -0.1511 -0.1571  0.1903
76146W        W19058  16.229  23.179  20.273 -0.1477  0.0285  0.2366
76147W        W19059  17.605  23.868  19.613  0.1495  0.3912  0.0811
76148W        W19060  15.668  20.755  20.070 -0.0953 -0.0664  0.0550
76149W        W19061  16.959  21.930  20.846 -0.1529  0.3559 -0.2994
76150W        W19062  15.041  18.355  19.742  0.3638  0.1053 -0.0999
76151W        W19063  15.892  20.629  19.301  0.0385 -0.0455  0.1043
76152W        W19064  15.440  20.805  20.911  0.2814 -0.0939  0.2135
76153W        W19065  18.189  21.240  18.463  0.1990  0.1165  0.0304
76154W        W19066  18.303  18.743  19.140 -0.0055 -0.2614  0.2445
76155W        W19067  16.821  20.099  18.533  0.1045 -0.2109 -0.0300
76156W        W19068  15.238  18.250  20.598  0.0031 -0.2930  0.2982
76157W        W19069  15.109  22.323  20.026  0.6168 -0.2300 -0.1237
76158W        W19070  16.984  21.351  19.310 -0.0052  0.1395  0.1666
76159W        W19071  14.889  19.024  20.124  0.1476 -0.0097  0.1841
76160W        W19072  17.119  19.770  17.859 -0.0094  0.1641 -0.0381
76161W        W19073  15.556  21.530  19.838  0.0268  0.0063  0.0113
76162W        W19074  14.743  19.345  21.111 -0.0835 -0.2044 -0.0030
76163W        W19075  16.370  19.058  18.458 -0.1570 -0.2893 -0.4428
76164W        W19076  16.526  20.435  19.770  0.1829  0.0470 -0.1939
76165W        W19077  15.995  22.274  19.825 -0.1292  0.1749  0.0710
76166W        W19078  17.230  21.132  19.802 -0.0520 -0.2730 -0.0243
76167W        W19079  16.108  21.682  18.515  0.1337 -0.0051  0.0344
76168W        W19080  19.953  19.850  17.702 -0.1641  0.1826 -0.2479
76169W        W19081  16.681  22.739  20.877 -0.4543  0.0118  0.2523
76170W        W19082  18.672  22.074  20.408 -0.1884  0.1541  0.1185
76171W        W19083  15.896  23.317  21.200  0.2149 -0.0367 -0.3057
76172W        W19084  17.231  22.445  19.050 -0.0832 -0.1339  0.1365
76173W        W19085  14.802  18.016  19.332  0.2078 -0.1710  0.1861
76174W        W19086  15.527  21.300  20.289 -0.0973 -0.1744  0.0051
76175W        W19087  14.636  20.764  20.316 -0.4461  0.0858 -0.0778
76176W        W19088  14.613  17.565  19.735 -0.3331 -0.0902 -0.2177
76177W        W19089  16.585  18.691  19.333  0.0717  0.0480 -0.0011
76178W        W19090  15.516  22.360  21.355  0.1253  0.2398 -0.0122
76179W        W19091  13.928  20.628  20.136  0.4013  0.0136 -0.2047
76180W        W19092  15.651  22.158  24.269 -0.1356 -0.1530  0.0833
76181W        W19093  14.996  19.128  23.116 -0.3721 -0.2445 -0.2752
76182W        W19094  14.607  18.891  22.399  0.4479  0.4012 -0.1511
76183W        W19095  19.355  22.759  21.809  0.0017  0.0737  0.2244
76184W        W19096  15.374  17.830  24.125  0.0616  0.1144 -0.0551
76185W        W19097  16.758  21.813  21.290 -0.0133 -0.0095  0.1021
76186W        W19098  19.415  22.400  25.032  0.1276  0.0865 -0.1193
76187W        W19099  15.427  21.735  23.321 -0.1552 -0.0672 -0.2920
76188W        W19100  15.177  17.854  21.000  0.0381 -0.1063  0.1146
76189W        W19101  15.321  17.813  21.925 -0.0646 -0.1117  0.1542
76190W        W19102  17.288  20.213  23.104  0.1891 -0.0746  0.1831
76191W        W19103  14.559  20.417  22.906  0.3223  0.1883 -0.0508
76192W        W19104  14.324  20.478  23.430 -0.2245 -0.0836  0.0044
76193W        W19105  14.724  22.371  24.253 -0.0379 -0.1012  0.4286
76194W        W19106  15.655  18.836  22.702  0.1534 -0.0694  0.0692
76195W        W19107  16.448  18.585  23.346  0.1906  0.0955  0.0187
76196W        W19108  16.409  22.772  21.716 -0.4282 -0.2213  0.1627
76197W        W19109  14.910  20.061  22.151 -0.0096  0.1208  0.0128
76198W        W19110  14.380  20.583  24.031  0.2452 -0.0244 -0.0462
76199W        W19111  14.700  20.242  25.201  0.1609 -0.0117  0.1730
76200W        W19112  16.371  19.635  22.169 -0.0400 -0.0634 -0.0389
76201W        W19113  14.600  21.864  23.023 -0.2591  0.0698 -0.0830
76202W        W19114  16.349  21.739  24.284  0.1120  0.3532  0.4193
76203W        W19115  16.451  21.636  23.758 -0.1905  0.1083 -0.1904
76204W        W19116  14.989  21.860  24.331 -0.0362 -0.0813  0.0808
76205W        W19117  16.471  22.052  23.432 -0.1144 -0.2496 -0.0669
76206W        W19118  19.155  22.988  22.872 -0.2723  0.0943  0.1258
76207W        W19119  15.282  21.601  25.055  0.3421 -0.0083  0.1163
76208W        W19120  15.380  20.597  22.894 -0.2295 -0.0210 -0.3320
76209W        W19121  15.568  21.495  27.043 -0.0412  0.1683 -0.0340
76210W        W19122  15.635  20.606  24.725 -0.0332  0.1999 -0.1994
76211W        W19123  16.271  21.111  22.977  0.0094 -0.3446  0.1247
76212W        W19124  16.367  23.549  21.630  0.0906  0.3890 -0.1303
76213W        W19125  17.051  22.164  21.522  0.0011  0.0641 -0.2536
76214W        W19126  15.916  21.012  24.885 -0.0012  0.0029 -0.0162
76215W        W19127  14.943  21.473  23.960 -0.1128  0.0803  0.1296
76216W        W19128  14.197  21.209  21.154 -0.0465 -0.4665  0.2366
76217W        W19129  17.715  19.422  20.838 -0.0454  0.0297 -0.0245
76218W        W19130  14.168  20.866  24.738  0.1796  0.0906 -0.0103
76219W        W19131  15.729  18.538  22.304  0.0575 -0.2851 -0.2826
76220W        W19132  18.156  21.221  24.542 -0.0217  0.2532 -0.0043
76221W        W19133  15.858  21.336  22.130  0.2578  0.4049  0.2885
76222W        W19134  15.820  20.841  23.010  0.4075 -0.2495 -0.0884
76223W        W19135  14.667  20.099  23.856 -0.2376  0.5792 -0.2124
76224W        W19136  19.458  22.261  21.443 -0.0585 -0.0840 -0.0653
76225W        W19137  18.655  22.404  22.634  0.2818  0.0276 -0.0448
76226W        W19138  17.811  22.376  20.461 -0.1230  0.3600  0.1702
76227W        W19139  15.564  19.505  21.923  0.1787  0.0520 -0.3102
76228W        W19140  14.413  20.445  24.532 -0.3674  0.0914 -0.0361
76229W        W19141  14.984  19.136  24.533  0.0228  0.0609 -0.0584
76230W        W19142  15.011  17.430  21.674 -0.1616 -0.2569 -0.2781
76231W        W19143  18.746  21.059  23.404  0.0682  0.2749  0.1070
76232W        W19144  16.114  21.506  25.184  0.1474 -0.3715  0.0697
76233W        W19145  17.684  19.157  21.931 -0.0577  0.0810 -0.1086
76234W        W19146  15.190  20.853  23.687  0.1410  0.0682  0.3418
76235W        W19147  18.689  22.044  24.720 -0.1016  0.1113  0.1351
76236W        W19148  16.863  18.499  23.012  0.0494 -0.3129 -0.4134
76237W        W19149  15.180  20.316  21.613  0.3022 -0.2001  0.1878
76238W        W19150  14.075  20.559  22.550  0.0009 -0.2792 -0.2175
76239W        W19151  13.835  22.814  24.143  0.1381 -0.1482 -0.1695
76240W        W19152  15.670  19.297  23.471 -0.4317 -0.1372 -0.1833
76241W        W19153  16.995  21.861  24.924 -0.1349  0.2670  0.3288
76242W        W19154  14.242  21.862  22.621 -0.0096 -0.0723  0.0832
76243W        W19155  14.738  20.976  23.908 -0.1281  0.2678  0.0108
76244W        W19156  13.819  20.330  23.460  0.1988  0.1063  0.0946
76245W        W19157  16.216  21.569  22.773  0.0998 -0.2596  0.2268
76246W        W19158  18.287  20.020  21.200  0.3880 -0.4966 -0.4032
76247W        W19159  14.812  18.891  23.537  0.2447  0.2003 -0.0494
76248W        W19160  17.621  18.118  21.737 -0.1522  0.3014 -0.0981
76249W        W19161  15.777  21.456  23.138  0.1285 -0.0601  0.1593
76250W        W19162  18.989  22.234  23.948 -0.1951  0.2276  0.1162
76251W        W19163  17.902  21.374  20.676  0.1602 -0.1864 -0.0945
76252W        W19164  13.781  18.592  25.205  0.1139 -0.0693  0.0148
76253W        W19165  14.721  19.592  21.940 -0.0899 -0.2214 -0.1262
76254W        W19166  14.724  19.660  23.634  0.3812 -0.1312  0.2353
76255W        W19167  14.786  18.236  22.030  0.0722  0.0737  0.1701
76256W        W19168  16.811  19.541  22.315 -0.3079  0.0720 -0.3393
76257W        W19169  15.304  19.764  22.259  0.0180  0.3410  0.1433
76258W        W19170  12.451  19.792  23.235  0.0507 -0.2601 -0.0742
76259W        W19171  15.998  21.869  23.371 -0.0198  0.1266  0.5118
76260W        W19172  18.316  22.510  24.652 -0.2780  0.1136 -0.2265
76261W        W19173  14.443  19.995  22.175  0.1695  0.0864  0.2234
76262W        W19174  15.494  22.350  23.169 -0.1466 -0.1573  0.0512
76263W        W19175  15.305  20.791  24.133 -0.0704  0.1820 -0.0081
76264W        W19176  14.723  20.897  26.641  0.1558  0.0850  0.0180
76265W        W19177  18.151  20.313  23.499  0.3021 -0.1103 -0.2059
76266W        W19178  17.071  21.351  22.253 -0.4038  0.1162  0.0447
76267W        W19179  12.348  19.006  22.715  0.0023  0.4616  0.1025
76268W        W19180  18.345  22.078  23.143  0.1135  0.0094 -0.0853
76269W        W19181  15.140  20.618  22.271 -0.0647  0.2341 -0.0162
76270W        W19182  13.435  20.690  23.462 -0.0714  0.0292  0.0251
76271W        W19183  16.091  22.379  23.679 -0.0031  0.3790  0.2369
76272W        W19184  15.613  21.105  24.445 -0.0438 -0.2766 -0.4012
76273W        W19185  17.976  18.430  24.334 -0.2301  0.0507  0.0524
76274W        W19186  13.537  20.764  22.841  0.0992  0.0221 -0.0004
76275W        W19187  14.701  21.507  25.568  0.0979 -0.0263  0.3274
76276W        W19188  17.686  21.639  23.793 -0.1524 -0.0565 -0.0304
76277W        W19189  18.053  21.294  21.234 -0.2482  0.0701  0.0429
76278W        W19190  17.121  19.555  21.683  0.0656 -0.0877 -0.0434
76279W        W19191  17.607  18.391  21.305 -0.0256 -0.2247 -0.1843
76280W        W19192  14.646  21.099  26.162  0.0257 -0.0057 -0.0295
76281W        W19193  16.425  21.893  22.382  0.1898 -0.2069  0.0183
76282W        W19194  16.191  20.488  23.309  0.4752  0.0295 -0.1519
76283W        W19195  13.934  21.660  23.236 -0.1923 -0.1158  0.1211
76284W        W19196  17.076  21.084  24.161 -0.2908 -0.2598  0.3331
76285W        W19197  16.809  22.616  22.674 -0.0086 -0.0129  0.1830
76286W        W19198  15.382  19.871  20.733  0.1003  0.0119 -0.2125
76287W        W19199  14.538  22.324  22.895  0.1452  0.0023 -0.0579
76288W        W19200  16.801  18.733  22.531  0.2346 -0.0344 -0.2686
76289W        W19201  15.309  18.777  21.985 -0.0143 -0.0874 -0.0506
76290W        W19202  16.370  18.786  22.860  0.0844  0.1175 -0.0627
76291W        W19203  14.874  20.353  24.676  0.0233 -0.1345  0.1138
76292W        W19204  14.282  21.887  23.524 -0.1227 -0.0232  0.0845
76293W        W19205  16.627  21.542  24.751  0.1607 -0.2536 -0.1743
76294W        W19206  16.803  20.775  22.327 -0.3869 -0.1387  0.4104
76295W        W19207  16.425  19.732  23.953  0.0872  0.1772  0.1283
76296W        W19208  16.295  19.151  20.844 -0.0256  0.0258  0.1278
76297W        W19209  15.298  21.061  22.656  0.1320  0.0680  0.1513
76298W        W19210  15.199  21.735  20.150  0.2368 -0.0763 -0.1416
76299W        W19211  16.347  21.524  23.257  0.0067 -0.1223 -0.3567
76300W        W19212  18.329  22.178  23.832  0.0517  0.0311 -0.0942
76301W        W19213  15.858  21.766  22.424  0.0492 -0.0838  0.1748
76302W        W19214  12.572  20.708  25.704 -0.4072  0.0493 -0.1351
76303W        W19215  15.392  19.068  21.598 -0.1493  0.0516  0.2186
76304W        W19216  15.129  18.727  22.418 -0.0390 -0.0695  0.0230
76305W        W19217  17.290  18.969  21.651 -0.1889 -0.0761 -0.3081
76306W        W19218  17.476  20.435  21.074 -0.0882 -0.1150  0.0478
76307W        W19219  16.554  19.075  22.199  0.0279 -0.4626 -0.2247
76308W        W19220  14.020  21.346  25.991  0.0538 -0.1670  0.2270
76309W        W19221  15.979  20.242  24.576  0.1496 -0.1189 -0.0216
76310W        W19222  15.138  19.265  22.132  0.0253 -0.0984 -0.1800
76311W        W19223  15.757  19.839  22.778 -0.0430 -0.1777 -0.0305
76312W        W19224  13.468  20.231  24.651  0.0567 -0.0136  0.0354
76313W        W19225  16.006  21.945  23.914 -0.1250  0.1166 -0.1056
76314W        W19226  15.308  21.710  21.789 -0.1070 -0.3482  0.0479
76315W        W19227  15.295  21.278  23.096  0.0812  0.3823 -0.0715
76316W        W19228  14.820  20.456  24.184 -0.1933  0.0458 -0.1301
76317W        W19229  16.062  19.278  22.009  0.3295 -0.0892  0.1177
76318W        W19230  14.362  18.933  23.023  0.3342  0.0110  0.0968
76319W        W19231  16.218  20.119  22.450  0.3207 -0.3266  0.1699
76320W        W19232  17.369  21.512  22.725 -0.0919 -0.0744 -0.0260
76321W        W19233  16.306  19.612  23.444  0.0091  0.0726  0.4522
76322W        W19234  16.650  22.436  24.403  0.2592  0.1502 -0.0968
76323W        W19235  19.801  22.396  23.182 -0.2458 -0.2780 -0.2570
76324W        W19236  16.383  21.630  21.871  0.1309  0.1122  0.1074
76325W        W19237  14.336  19.596  24.004  0.0593 -0.0505  0.0878
76326W        W19238  15.775  20.517  21.784 -0.2006  0.3297 -0.0311
76327W        W19239  15.885  17.745  21.874 -0.2102 -0.1419  0.1838
76328W        W19240  14.181  22.414  24.483  0.0124  0.1454  0.1343
76329W        W19241  14.784  20.546  23.648  0.0361  0.2928 -0.1877
76330W        W19242  14.040  20.861  25.210 -0.1066 -0.2619  0.5217
76331W        W19243  17.624  20.985  21.049 -0.1227 -0.0777  0.0437
76332W        W19244  15.819  18.805  21.839  0.1943 -0.4168 -0.1785
76333W        W19245  16.720  20.564  21.330  0.0319  0.3500 -0.1143
76334W        W19246  18.361  19.632  24.129 -0.3345 -0.0860 -0.1179
76335W        W19247  14.772  18.678  22.920  0.3593 -0.1578  0.0408
76336W        W19248  17.691  21.202  21.536 -0.1096  0.3281  0.0999
76337W        W19249  14.254  19.246  24.852 -0.0941  0.0307 -0.0986
76338W        W19250  17.732  21.690  27.256 -0.0789 -0.3518 -0.1430
76339W        W19251  14.496  19.990  24.832 -0.2008 -0.1607 -0.3218
76340W        W19252  14.345  18.094  21.900  0.0371  0.2382 -0.1973
76341W        W19253  15.743  22.705  23.784  0.0900  0.2341  0.2932
76342W        W19254  17.540  21.372  22.006 -0.1074  0.1571 -0.1902
76343W        W19255  16.062  22.017  21.980  0.1430  0.3160  0.1029
76344W        W19256  17.696  19.651  22.254  0.1656  0.1754 -0.2164
76345W        W19257  15.631  22.142  23.654  0.1588  0.1746 -0.0104
76346W        W19258  17.270  19.760  19.996 -0.1805  0.1210 -0.0904
76347W        W19259  15.848  20.305  22.939 -0.3185  0.1483 -0.0306
76348W        W19260  15.678  19.246  24.009  0.2079  0.0003  0.1257
76349W        W19261  16.664  18.845  21.651  0.0836 -0.1406  0.4539
76350W        W19262  17.871  19.403  24.017  0.0571  0.2259 -0.0135
76351W        W19263  15.697  20.314  23.903 -0.0865  0.1408  0.1164
76352W        W19264  14.574  18.851  24.501  0.1660  0.3013 -0.1378
76353W        W19265  18.206  22.053  24.853 -0.0802 -0.1155  0.5397
76354W        W19266  18.521  19.051  20.033 -0.1323 -0.1487 -0.1725
76355W        W19267  17.882  19.440  22.725  0.2440 -0.1148  0.1022
76356W        W19268  17.970  20.290  21.502 -0.0701 -0.1784 -0.2699
76357W        W19269  14.606  19.912  24.309 -0.1535  0.2282  0.2954
76358W        W19270  15.081  18.919  21.253  0.0849 -0.2188  0.0718
76359W        W19271  16.546  22.919  22.261 -0.2543  0.0145  0.0314
76360W        W19272  17.880  22.078  23.460 -0.0105 -0.1447 -0.0478
76361W        W19273  13.804  17.415  24.187  0.1449 -0.1231 -0.1220
76362W        W19274  15.420  20.920  25.659  0.1071  0.0551 -0.1395
76363W        W19275  14.821  18.600  20.756 -0.2207  0.3114  0.0796
76364W        W19276  17.511  20.932  23.809  0.1517  0.2493  0.1233
76365W        W19277  18.193  19.768  23.536  0.0663 -0.0645  0.0529
76366W        W19278  16.453  17.911  20.878 -0.0221 -0.1999 -0.0217
76367W        W19279  14.902  20.804  21.417  0.1071 -0.2571  0.0792
76368W        W19280  15.851  22.278  25.351  0.0656 -0.1190  0.2439
76369W        W19281  14.450  19.895  25.395  0.0541 -0.1864  0.2269
76370W        W19282  15.218  21.360  23.594  0.1479  0.1372 -0.1194
76371W        W19283  17.740  19.871  23.528  0.0447  0.0345 -0.0351
76372W        W19284  16.744  21.001  23.791  0.1107 -0.1640 -0.1818
76373W        W19285  14.160  18.769  24.773  0.2599  0.0367  0.0161
76374W        W19286  16.852  21.433  23.416 -0.4107  0.2715  0.0722
76375W        W19287  15.179  20.299  23.830  0.1667  0.1044 -0.1106
76376W        W19288  15.092  19.829  24.715  0.0413  0.2034 -0.2842
76377W        W19289  16.323  20.764  24.072 -0.1307 -0.1877  0.1108
76378W        W19290  16.602  21.335  22.340 -0.1806  0.0999 -0.1076
76379W        W19291  15.690  18.282  21.865  0.0456 -0.1283 -0.0380
76380W        W19292  17.167  21.519  21.134 -0.2520  0.0192 -0.1933
76381W        W19293  15.174  22.187  26.313  0.0690 -0.0756 -0.1075
76382W        W19294  13.765  21.118  24.514  0.0241 -0.2273 -0.0571
76383W        W19295  14.517  20.885  23.103 -0.1500  0.2999  0.0132
76384W        W19296  17.697  21.591  21.106  0.0201 -0.3956  0.1537
76385W        W19297  16.923  21.993  23.521  0.0584  0.1859 -0.1520
76386W        W19298  16.153  19.654  21.648  0.0482 -0.1701  0.0105
76387W        W19299  14.864  20.756  22.683 -0.3488 -0.0273  0.0165
76388W        W19300  12.782  23.169  24.681 -0.0176 -0.1331  0.1322
76389W        W19301  18.184  21.865  20.226 -0.2009 -0.0905 -0.2856
76390W        W19302  14.908  22.191  23.330 -0.0120 -0.4000  0.2871
76391W        W19303  17.482  21.753  24.679 -0.2833 -0.0720  0.2514
76392W        W19304  18.666  19.443  20.301 -0.2368 -0.1856 -0.1704
76393W        W19305  18.432  18.736  21.926  0.2109 -0.1821  0.0098
76394W        W19306  18.153  21.601  24.153  0.0303  0.2476 -0.1473
76395W        W19307  15.063  21.186  25.330 -0.1671 -0.1492 -0.0835
76396W        W19308  14.741  21.259  27.086  0.2704 -0.2966 -0.0129
76397W        W19309  14.632  22.338  24.830  0.1538 -0.0719  0.1318
76398W        W19310  16.977  21.364  20.592  0.0790 -0.0851 -0.2157
76399W        W19311  14.399  19.024  21.853 -0.2294 -0.0381  0.1288
76400W        W19312  16.419  20.164  22.953  0.0203 -0.2424  0.0640
76401W        W19313  14.828  23.200  23.316  0.3072  0.0925 -0.0629
76402W        W19314  15.365  21.604  22.558  0.1251  0.0099  0.1379
76403W        W19315  16.190  22.712  24.520  0.0714  0.0656  0.0235
76404W        W19316  15.153  18.351  21.208  0.3441  0.0811  0.1174
76405W        W19317  18.163  19.802  22.484  0.1850 -0.2517 -0.2230
76406W        W19318  15.432  19.875  23.600  0.1723 -0.0043 -0.0643
76407W        W19319  17.246  18.830  22.831  0.0744 -0.1073 -0.2691
76408W        W19320  15.580  19.090  22.235  0.1437 -0.3607  0.0055
76409W        W19321  16.642  20.948  23.296 -0.4487 -0.0227  0.1522
76410W        W19322  15.791  21.683  24.355  0.1882  0.0596  0.0065
76411W        W19323  16.014  20.021  20.728 -0.0478  0.2703  0.3873
76412W        W19324  16.980  20.703  19.784  0.5419 -0.0266  0.0024
76413W        W19325  18.865  23.448  22.770 -0.1206  0.3721 -0.2956
76414W        W19326  14.873  19.647  22.437  0.1096 -0.0941  0.2910
76415W        W19327  15.380  20.213  22.067 -0.0547  0.1972  0.0494
76416W        W19328  15.830  20.176  23.469 -0.2295  0.0049  0.1517
76417W        W19329  17.570  21.761  25.745 -0.0911  0.0488 -0.0172
76418W        W19330  14.114  19.467  22.793  0.1403 -0.0825 -0.1545
76419W        W19331  17.408  18.653  23.365  0.2262  0.0197 -0.0411
76420W        W19332  17.395  23.656  21.677  0.0114  0.0653 -0.0467
76421W        W19333  17.465  23.145  22.962  0.0471  0.2115  0.2866
76422W        W19334  18.661  21.992  22.295  0.2886 -0.1274  0.2716
76423W        W19335  16.624  18.240  21.740 -0.2173 -0.1227  0.2383
76424W        W19336  14.512  19.891  22.695  0.1711  0.1340 -0.0216
76425W        W19337  14.308  20.925  23.614  0.1682  0.4965  0.0001
76426W        W19338  17.392  19.275  23.044  0.0699 -0.3958 -0.1457
76427W        W19339  15.603  22.432  21.882  0.1969 -0.0048  0.1508
76428W        W19340  16.127  22.172  24.315 -0.1393  0.0091  0.1038
76429W        W19341  15.602  20.691  26.472 -0.1994  0.4715 -0.1662
76430W        W19342  14.380  20.423  21.559  0.1257 -0.2794  0.0600
76431W        W19343  15.791  20.195  25.030 -0.1440  0.2459 -0.1709
76432W        W19344  16.963  21.745  23.080 -0.0792 -0.2046  0.0564
76433W        W19345  15.290  21.520  24.584 -0.0074  0.1755 -0.1104
76434W        W19346  19.200  22.296  22.057  0.0205 -0.4119  0.0900
76435W        W19347  15.987  18.468  23.114  0.1245  0.2079 -0.2945
76436W        W19348  18.000  18.894  20.985 -0.3960 -0.2401  0.2798
76437W        W19349  14.398  20.886  26.993 -0.0663 -0.1299  0.0343
76438W        W19350  13.685  18.627  22.520 -0.1188 -0.0402 -0.0722
76439W        W19351  15.155  19.714  21.706 -0.1950 -0.1690  0.0061
76440W        W19352  15.560  20.642  23.415  0.2534 -0.0080  0.2863
76441W        W19353  16.758  17.935  24.214  0.2312 -0.1614 -0.3436
76442W        W19354  14.375  19.667  23.171 -0.0398 -0.0069 -0.0388
76443W        W19355  14.651  18.380  22.512  0.1224 -0.0749 -0.0968
76444W        W19356  13.906  18.482  23.808 -0.3301  0.0165 -0.2392
76445W        W19357  16.199  18.508  21.725 -0.3409 -0.1036  0.0971
76446W        W19358  18.584  21.784  25.170  0.1436 -0.0346 -0.2081
76447W        W19359  14.126  21.069  24.112  0.1391 -0.0776  0.0310
76448W        W19360  16.501  20.302  24.364  0.5089  0.2216 -0.3197
76449W        W19361  16.209  18.037  23.889  0.0315 -0.2962 -0.0652
76450W        W19362  14.393  19.469  21.539  0.1871  0.2240 -0.0811
76451W        W19363  15.357  20.160  23.141 -0.0959 -0.0195  0.1599
76452W        W19364  15.753  21.301  22.626  0.0849  0.2008  0.3264
76453W        W19365  17.409  22.309  21.876  0.1457 -0.2987  0.3663
76454W        W19366  16.503  21.273  24.172 -0.0936 -0.2207  0.3561
76455W        W19367  15.739  21.821  25.150 -0.1450  0.0736 -0.1181
76456W        W19368  12.410  17.344  24.978 -0.1762 -0.2126  0.0405
76457W        W19369  15.593  21.327  25.405 -0.1420 -0.2373  0.2154
76458W        W19370  18.150  19.267  21.811 -0.0049  0.1468 -0.2465
76459W        W19371  15.070  18.594  24.408 -0.0424  0.0736  0.4177
76460W        W19372  14.219  20.131  24.138 -0.1201 -0.2306 -0.0106
76461W        W19373  15.180  18.319  21.717 -0.0197 -0.2488 -0.1106
76462W        W19374  16.223  21.891  21.435 -0.0614 -0.1670 -0.1387
76463W        W19375  15.053  20.027  24.247 -0.0021  0.0397  0.0720
76464W        W19376  16.695  19.378  21.818  0.2689  0.1306  0.3192
76465W        W19377  18.338  22.632  23.279 -0.0913  0.1607 -0.0782
76466W        W19378  14.268  19.580  20.914 -0.0281 -0.0500  0.0025
76467W        W19379  18.392  21.671  24.633  0.1995 -0.0648 -0.1094
76468W        W19380  19.235  22.891  26.575 -0.2646  0.1047  0.0021
76469W        W19381  18.835  21.778  23.366 -0.0259  0.2570  0.0767
76470W        W19382  17.777  20.793  22.496 -0.0036  0.0543  0.2227
76471W        W19383  14.850  19.290  21.599 -0.0713 -0.1425  0.1339
76472W        W19384  14.161  20.136  23.058  0.1453 -0.0100 -0.2126
76473W        W19385  16.182  20.750  24.581  0.0885  0.1549  0.2856
76474W        W19386  16.646  19.859  28.569 -0.0602  0.1503  0.2680
76475W        W19387  14.988  20.688  25.614  0.0720 -0.2441  0.0269
76476W        W19388  17.377  18.820  25.098  0.2853  0.0580 -0.3645
76477W        W19389  18.055  20.323  26.558  0.2603 -0.2810  0.1253
76478W        W19390  17.060  20.898  27.553  0.0069  0.1363 -0.2486
76479W        W19391  17.330  20.162  26.945 -0.0520  0.2297  0.1426
76480W        W19392  16.328  20.378  28.475 -0.0836  0.1325 -0.0937
76481W        W19393  15.711  18.681  30.300  0.3015  0.2766 -0.2147
76482W        W19394  16.067  20.416  27.274  0.1506  0.1522  0.3469
76483W        W19395  16.258  18.274  26.142 -0.0019 -0.0815  0.1601
76484W        W19396  17.813  18.279  28.819  0.4102  0.3992  0.2597
76485W        W19397  15.103  20.003  25.479  0.2678  0.3555  0.2538
76486W        W19398  15.065  18.227  27.248  0.1808  0.2543 -0.0410
76487W        W19399  16.115  19.561  25.880 -0.0251  0.2732 -0.2492
76488W        W19400  16.758  22.585  27.826 -0.2425  0.0236 -0.2144
76489W        W19401  16.767  18.056  28.973 -0.2330  0.1713  0.0234
76490W        W19402  16.916  18.011  28.503 -0.0327 -0.0209 -0.0346
76491W        W19403  16.575  21.153  25.605 -0.1450  0.0926  0.0681
76492W        W19404  14.438  18.830  25.703  0.0066  0.0018 -0.2912
76493W        W19405  15.543  18.682  27.974 -0.0339 -0.0644 -0.2281
76494W        W19406  16.116  19.902  28.593  0.2951  0.0537  0.0877
76495W        W19407  17.336  19.007  26.498 -0.1266  0.1789  0.0275
76496W        W19408  16.296  21.338  27.683  0.2424 -0.2491 -0.1932
76497W        W19409  16.435  21.948  29.532 -0.0498 -0.1212 -0.1564
76498W        W19410  17.797  19.091  29.641 -0.2534  0.4185  0.2811
76499W        W19411  15.122  21.801  27.612 -0.1604  0.1530 -0.1192
76500W        W19412  15.748  21.301  28.986 -0.0795 -0.0437 -0.2207
76501W        W19413  16.290  20.122  25.301 -0.0497 -0.0701 -0.0849
76502W        W19414  18.122  20.803  26.361 -0.2721 -0.0393 -0.5059
76503W        W19415  18.018  21.168  30.104  0.0284  0.0437 -0.1549
76504W        W19416  16.782  22.291  31.034  0.1527  0.1051 -0.0277
76505W        W19417  16.013  21.732  25.629  0.2374 -0.2955 -0.0307
76506W        W19418  16.877  20.231  28.314  0.0565 -0.0809 -0.0567
76507W        W19419  16.521  20.350  29.405  0.2319  0.4240  0.1661
76508W        W19420  15.607  19.155  27.681  0.1235 -0.2083  0.1073
76509W        W19421  17.080  21.054  25.485  0.0017 -0.1909 -0.2056
76510W        W19422  16.304  21.874  26.180  0.3341  0.2935 -0.0015
76511W        W19423  18.096  20.322  27.458 -0.0522  0.1404  0.2165
76512W        W19424  17.559  20.413  28.091  0.2135 -0.4374 -0.0471
76513W        W19425  15.181  20.732  24.615 -0.0705  0.1018 -0.2324
76514W        W19426  18.340  17.261  29.845  0.0282 -0.0344 -0.1870
76515W        W19427  15.678  22.005  27.600 -0.3830 -0.1869  0.0023
76516W        W19428  16.833  18.208  26.846  0.4920  0.0960 -0.1614
76517W        W19429  15.365  20.567  27.970 -0.1632  0.1200  0.3887
76518W        W19430  16.898  18.532  27.183 -0.1330 -0.6428 -0.0380
76519W        W19431  18.613  19.422  28.219  0.0712 -0.1534 -0.0356
76520W        W19432  16.939  20.151  25.675 -0.2657 -0.1022 -0.3999
76521W        W19433  17.493  19.662  27.496 -0.0706  0.1184 -0.1373
76522W        W19434  16.294  21.304  27.077  0.0278  0.2496  0.1158
76523W        W19435  15.110  19.409  25.989  0.2061 -0.0418 -0.0011
76524W        W19436  17.961  21.726  25.398 -0.1385  0.1784 -0.1278
76525W        W19437  18.410  19.792  28.502  0.2215 -0.0659 -0.2300
76526W        W19438  18.294  21.665  28.161  0.1956  0.0629  0.1996
76527W        W19439  16.169  21.254  24.536  0.1030  0.0474  0.1271
76528W        W19440  16.053  20.264  29.429  0.1345  0.1467 -0.1602
76529W        W19441  15.661  19.871  29.940  0.2031 -0.2457  0.1059
76530W        W19442  15.924  18.500  24.838 -0.1070 -0.0527  0.1382
76531W        W19443  16.894  19.966  30.263 -0.0244  0.2598  0.2658
76532W        W19444  14.253  21.214  30.963  0.0490 -0.2546  0.1044
76533W        W19445  15.910  20.433  25.506 -0.1439 -0.2593  0.0147
76534W        W19446  17.971  19.854  27.409  0.0553  0.0017 -0.1108
76535W        W19447  17.576  21.015  25.412 -0.1064  0.0259  0.3788
76536W        W19448  17.415  18.476  26.742  0.0085 -0.1889  0.0299
76537W        W19449  16.399  20.654  25.589 -0.0723 -0.1491  0.0386
76538W        W19450  16.607  19.726  25.591  0.1784 -0.0095 -0.0845
76539W        W19451  18.536  20.271  28.542  0.1581 -0.2398 -0.0740
76540W        W19452  15.847  21.145  27.306  0.3639 -0.0483  0.0119
76541W        W19453  16.212  17.412  30.042  0.1680 -0.2929 -0.2148
76542W        W19454  16.432  21.289  29.775  0.0073 -0.2725 -0.0918
76543W        W19455  16.790  21.023  26.203  0.2292 -0.1264  0.3182
76544W        W19456  15.745  19.809  28.228 -0.0619  0.0017 -0.1579
76545W        W19457  14.871  21.340  27.938  0.0608 -0.0324  0.1034
76546W        W19458  14.663  18.575  27.106 -0.2969  0.2112  0.3557
76547W        W19459  15.611  18.405  27.329 -0.1912 -0.1644 -0.1962
76548W        W19460  15.421  18.854  26.709  0.2952 -0.0797  0.2706
76549W        W19461  15.396  20.412  25.521  0.0048  0.0259  0.3248
76550W        W19462  17.356  20.980  27.069  0.2126 -0.3699 -0.1594
76551W        W19463  17.907  18.630  25.194 -0.0148  0.2843  0.1672
76552W        W19464  18.421  22.083  24.300  0.0061  0.2848  0.1039
76553W        W19465  15.324  19.582  28.097  0.2022 -0.2632 -0.0076
76554W        W19466  15.799  18.858  28.998  0.0055  0.0163  0.0078
76555W        W19467  15.445  19.350  26.701  0.2934 -0.1402  0.3305
76556W        W19468  19.160  19.735  29.910 -0.2072  0.0630 -0.5225
76557W        W19469  17.737  19.093  25.385 -0.1434  0.2493  0.1001
76558W        W19470  14.904  19.986  27.184  0.2167 -0.1377  0.2939
76559W        W19471  17.483  16.739  27.919  0.1628 -0.1000  0.0026
76560W        W19472  17.245  22.853  29.124  0.1510  0.1212  0.1622
76561W        W19473  18.371  20.725  28.278  0.1385 -0.1363  0.0859
76562W        W19474  18.044  20.330  26.035 -0.1965  0.1308 -0.0144
76563W        W19475  15.274  18.302  27.769  0.2073  0.0303 -0.0429
76564W        W19476  14.730  20.414  26.356 -0.3373 -0.0922  0.0495
76565W        W19477  15.975  21.054  26.331 -0.4629 -0.1285  0.1389
76566W        W19478  15.780  19.067  25.590 -0.0339 -0.0860  0.3236
76567W        W19479  17.198  21.752  27.477 -0.1304 -0.1957 -0.2149
76568W        W19480  16.652  20.724  26.574  0.2063  0.2210  0.0557
76569W        W19481  14.271  20.874  29.243 -0.1162 -0.1781  0.4010
76570W        W19482  17.172  17.673  28.169  0.3280  0.0901 -0.2418
76571W        W19483  17.240  19.966  27.922 -0.0516  0.1013  0.0306
76572W        W19484  17.122  19.711  25.661  0.1056 -0.0486  0.0770
76573W        W19485  17.638  19.959  28.398  0.0622  0.1886  0.2340
76574W        W19486  16.472  23.202  27.207  0.0968 -0.0927 -0.2511
76575W        W19487  14.663  20.460  27.968  0.0210  0.2514 -0.0885
76576W        W19488  16.093  21.831  27.771 -0.2048 -0.2365  0.0568
76577W        W19489  16.249  20.860  30.139 -0.0923 -0.0099 -0.1617
76578W        W19490  18.016  18.785  28.551  0.0629 -0.2758  0.1002
76579W        W19491  15.383  19.232  30.250 -0.2499 -0.0623  0.1990
76580W        W19492  18.145  19.096  28.029  0.3458  0.3004  0.3093
76581W        W19493  17.319  18.816  23.821  0.1036 -0.2538 -0.0175
76582W        W19494  16.375  19.874  29.509 -0.0130  0.3065 -0.0197
76583W        W19495  16.444  20.823  27.074 -0.4447  0.1753  0.0511
76584W        W19496  17.074  20.413  27.825 -0.1316 -0.2196 -0.4134
76585W        W19497  17.149  20.532  27.274  0.0315  0.0387  0.1522
76586W        W19498  15.717  19.312  28.151  0.1000  0.0032 -0.0553
76587W        W19499  17.239  20.665  28.365  0.1707 -0.1622 -0.1444
76588W        W19500  17.237  20.534  29.059 -0.0588 -0.0930 -0.3800
76589W        W19501  16.198  17.642  27.925 -0.1597  0.2622 -0.0457
76590W        W19502  15.338  22.327  27.768 -0.2470 -0.1874  0.0189
76591W        W19503  16.494  19.018  27.285 -0.1344 -0.0159  0.3667
76592W        W19504  16.442  18.004  27.101 -0.2392 -0.1147 -0.0006
76593W        W19505  18.646  21.051  29.239 -0.1134 -0.0752  0.2456
76594W        W19506  18.005  20.048  23.923  0.0311 -0.0691  0.0686
76595W        W19507  15.476  20.341  24.326 -0.0757  0.1775  0.1882
76596W        W19508  17.296  18.671  28.074 -0.1562  0.0484 -0.0378
76597W        W19509  15.870  18.905  28.370  0.4625  0.0181 -0.0064
76598W        W19510  15.901  20.297  29.897  0.0615 -0.0650  0.5283
76599W        W19511  17.702  19.976  29.026 -0.3598 -0.0106 -0.0594
76600W        W19512  17.558  20.559  26.741  0.1795 -0.1668  0.2579
76601W        W19513  17.075  18.644  27.631  0.2499 -0.1257 -0.1368
76602W        W19514  17.786  18.902  24.294  0.0276  0.0990 -0.0762
76603W        W19515  15.812  21.515  28.161  0.0942  0.1153 -0.0047
76604W        W19516  15.586  20.745  25.203 -0.1765  0.0037  0.0361
76605W        W19517  16.312  18.103  27.583  0.3312 -0.0082 -0.1413
76606W        W19518  16.859  18.198  27.592 -0.0026 -0.1152 -0.1695
76607W        W19519  15.007  21.172  25.793 -0.2255 -0.2671  0.0651
76608W        W19520  17.812  19.188  28.777  0.0575 -0.0996  0.1341
76609W        W19521  15.095  21.800  26.578 -0.0370 -0.2327  0.1292
76610W        W19522  15.831  20.754  25.881 -0.1665 -0.1373  0.2189
76611W        W19523  15.270  19.571  24.306 -0.3479 -0.0816  0.1658
76612W        W19524  15.352  19.994  26.823 -0.2170  0.1702 -0.3083
76613W        W19525  16.635  18.739  26.140 -0.1554 -0.2431 -0.2186
76614W        W19526  18.187  22.156  25.440  0.1422 -0.0327  0.0944
76615W        W19527  15.926  19.699  29.556  0.0095 -0.0786 -0.2083
76616W        W19528  16.756  17.526  27.903  0.0258 -0.1414  0.2415
76617W        W19529  15.340  21.931  28.584  0.3268 -0.3034 -0.0366
76618W        W19530  16.953  19.087  28.059 -0.0083  0.1734  0.0333
76619W        W19531  17.546  19.557  28.065  0.0331  0.1660  0.0319
76620W        W19532  16.449  18.975  28.310  0.1821 -0.0614 -0.1863
76621W        W19533  15.026  18.821  25.291 -0.2401 -0.0484  0.2033
76622W        W19534  19.170  19.512  26.983  0.1796  0.0842 -0.1268
76623W        W19535  16.302  19.404  27.000  0.1435 -0.1748  0.2474
76624W        W19536  15.937  21.254  25.784 -0.1823  0.0183  0.1297
76625W        W19537  16.705  19.964  27.840 -0.0276  0.0544 -0.0525
76626W        W19538  15.219  20.284  25.038  0.2743  0.0837 -0.1025
76627W        W19539  15.180  20.657  26.754  0.0150 -0.1064  0.0903
76628W        W19540  15.398  17.991  28.125 -0.1206 -0.1041  0.2239
76629W        W19541  17.852  18.490  29.678 -0.1375  0.2058 -0.1157
76630W        W19542  15.735  18.373  28.285 -0.0636 -0.0757 -0.1621
76631W        W19543  15.732  19.554  26.305 -0.0334  0.0751  0.3725
76632W        W19544  15.931  19.579  26.761 -0.0414 -0.0614 -0.2264
76633W        W19545  17.017  19.096  27.367 -0.0753 -0.0038 -0.0025
76634W        W19546  16.487  17.605  28.815 -0.0161  0.2290 -0.1483
76635W        W19547  15.929  19.563  30.204  0.3793 -0.1316  0.0792
76636W        W19548  16.511  18.528  27.689 -0.2442  0.2029  0.0695
76637W        W19549  16.782  21.998  26.203  0.3135  0.0407 -0.2642
76638W        W19550  17.067  19.197  29.017 -0.1303  0.2128 -0.0720
76639W        W19551  16.830  20.632  25.802  0.3133 -0.0660 -0.0725
76640W        W19552  15.790  20.607  27.593  0.1051 -0.5837  0.2054
76641W        W19553  15.116  21.725  27.058 -0.0711 -0.1182  0.0780
76642W        W19554  16.117  18.842  27.942 -0.3383  0.4176 -0.2394
76643W        W19555  16.342  21.366  26.046 -0.0028 -0.1032  0.1026
76644W        W19556  16.092  20.995  25.388  0.1433  0.1160  0.0260
76645W        W19557  15.914  20.093  26.817 -0.2251 -0.0754  0.0686
76646W        W19558  17.650  18.591  24.712  0.1498 -0.2544 -0.1189
76647W        W19559  16.814  19.978  26.072 -0.0858  0.1934 -0.2600
76648W        W19560  19.586  18.158  27.571 -0.4566 -0.2024 -0.0295
76649W        W19561  18.138  20.705  24.468 -0.1866 -0.3791  0.3773
76650W        W19562  17.238  17.622  28.665 -0.0299  0.0210  0.1676
76651W        W19563  16.165  19.379  27.474 -0.0811  0.1459 -0.0579
76652W        W19564  17.514  20.712  27.677 -0.1315 -0.0557  0.1321
76653W        W19565  14.730  18.425  27.658 -0.2279 -0.0518  0.1063
76654W        W19566  16.168  20.802  31.594 -0.1689 -0.1302  0.1273
76655W        W19567  15.334  20.411  29.944 -0.0884  0.0200  0.1123
76656W        W19568  16.684  18.295  25.888  0.1485  0.2129 -0.2341
76657W        W19569  15.659  18.150  24.991  0.4428  0.0449  0.3574
76658W        W19570  16.693  20.508  27.486  0.1787 -0.1789 -0.1027
76659W        W19571  18.360  19.212  28.626 -0.3720 -0.0239 -0.0476
76660W        W19572  18.256  18.637  26.512 -0.1283 -0.2674  0.0821
76661W        W19573  16.509  20.423  27.982  0.0603  0.1438 -0.2557
76662W        W19574  16.336  20.852  26.064 -0.0124 -0.1571 -0.0594
76663W        W19575  15.622  20.312  25.992 -0.0048 -0.1052 -0.0882
76664W        W19576  16.305  18.451  29.593 -0.2082 -0.0701 -0.0659
76665W        W19577  17.418  21.274  25.813 -0.0632 -0.3464 -0.0235
76666W        W19578  16.176  19.118  28.782 -0.1281  0.0300 -0.1408
76667W        W19579  17.207  18.422  30.144 -0.1592 -0.1664  0.2694
76668W        W19580  16.355  19.929  28.163 -0.0878 -0.0140 -0.1019
76669W        W19581  15.611  18.962  31.558 -0.2272 -0.0078 -0.3205
76670W        W19582  16.647  20.924  27.766 -0.2282 -0.1526  0.0131
76671W        W19583  17.482  18.899  27.299  0.0269 -0.1054 -0.1715
76672W        W19584  17.370  19.164  24.164 -0.0674 -0.2068  0.3965
76673W        W19585  14.780  19.111  27.267 -0.1283  0.2053  0.1079
76674W        W19586  18.209  19.691  31.514 -0.2235 -0.2100  0.2757
76675W        W19587  16.712  18.141  29.458  0.1416  0.1863  0.2387
76676W        W19588  17.265  21.407  26.546  0.1294 -0.0438  0.2508
76677W        W19589  17.093  20.033  27.392 -0.0628  0.0247 -0.0220
76678W        W19590  17.928  19.291  23.376  0.0031  0.0148 -0.1695
76679W        W19591  15.886  20.000  26.247 -0.0200  0.1070  0.0417
76680W        W19592  15.840  21.904  30.299 -0.0194 -0.4217  0.0427
76681W        W19593  15.403  18.514  25.229  0.3511  0.0397 -0.0024
76682W        W19594  15.178  21.618  25.549 -0.2019 -0.2589  0.0155
76683W        W19595  16.648  20.123  27.170  0.1194 -0.0510 -0.0923
76684W        W19596  16.896  20.431  30.137  0.0185 -0.0191 -0.0636
76685W        W19597  16.641  17.992  25.083  0.1757 -0.1036 -0.0319
76686W        W19598  17.848  19.362  27.698 -0.0602 -0.1447  0.1533
76687W        W19599  15.177  22.800  26.509 -0.3126 -0.0550  0.0346
76688W        W19600  17.204  17.625  26.625  0.2656  0.0686  0.1869
76689W        W19601  14.731  20.388  26.874  0.2103 -0.1253  0.1028
76690W        W19602  14.652  20.744  28.543  0.0831 -0.0088 -0.1409
76691W        W19603  15.693  22.364  26.286  0.2784  0.0979 -0.0098
76692W        W19604  18.142  19.435  27.167 -0.1169 -0.1129 -0.0834
76693W        W19605  19.090  19.998  29.192 -0.2218 -0.0199 -0.1948
76694W        W19606  17.655  19.808  29.647  0.2108 -0.4104 -0.0443
76695W        W19607  15.928  20.724  29.203 -0.1915 -0.1688 -0.2957
76696W        W19608  17.086  19.632  27.060  0.2097 -0.2090 -0.1984
76697W        W19609  17.838  20.007  27.933  0.0526 -0.1845 -0.2148
76698W        W19610  16.737  21.333  27.396  0.2793  0.0048 -0.0391
76699W        W19611  14.311  19.888  30.899 -0.0987 -0.0045 -0.1163
76700W        W19612  16.624  19.679  27.425 -0.0367 -0.4842  0.5585
76701W        W19613  16.395  21.076  24.897  0.0771  0.3006  0.2129
76702W        W19614  14.986  21.324  30.263 -0.2163 -0.0039  0.0094
76703W        W19615  15.064  19.200  29.729  0.0664  0.1122  0.0847
76704W        W19616  15.445  22.185  27.265 -0.0910 -0.1677 -0.1455
76705W        W19617  17.107  21.400  24.964  0.1407 -0.0725  0.0019
76706W        W19618  16.839  20.567  28.691 -0.0383 -0.1791  0.1566
76707W        W19619  15.385  19.869  25.936  0.1018 -0.0362  0.0067
76708W        W19620  14.443  21.407  28.431  0.2860  0.2626  0.1557
76709W        W19621  17.222  20.892  26.582  0.1529  0.1430 -0.1122
76710W        W19622  15.345  20.976  27.150 -0.0241  0.1320 -0.1449
76711W        W19623  18.207  20.712  30.147 -0.1830 -0.1306 -0.0393
76712W        W19624  17.959  18.590  28.092  0.3670 -0.0789 -0.0895
76713W        W19625  16.149  19.890  27.237  0.2070 -0.0743 -0.0862
76714W        W19626  16.560  18.528  24.357 -0.1851 -0.0122  0.0061
76715W        W19627  16.780  19.308  28.483  0.1884 -0.0992 -0.0348
76716W        W19628  17.960  15.918  29.531  0.0342  0.1084  0.0277
76717W        W19629  16.837  20.131  29.078  0.1538 -0.0371 -0.1915
76718W        W19630  17.982  20.753  26.863 -0.1000  0.2804  0.1925
76719W        W19631  16.075  20.442  30.525 -0.0014  0.5493 -0.0069
76720W        W19632  18.426  18.180  26.634 -0.0789 -0.1136  0.2083
76721W        W19633  16.901  21.042  24.666 -0.0593 -0.0976 -0.0769
76722W        W19634  15.870  19.054  26.903 -0.0707  0.1942  0.0911
76723W        W19635  16.234  20.826  28.156 -0.2041  0.4287 -0.0446
76724W        W19636  15.984  20.932  26.831  0.0620  0.0050  0.2784
76725W        W19637  15.327  21.003  30.043  0.4650 -0.1331  0.0297
76726W        W19638  14.134  19.481  26.236  0.2298 -0.2531 -0.0933
76727W        W19639  18.601  18.921  25.753 -0.1917 -0.1638  0.3930
76728W        W19640  16.521  19.046  27.799 -0.1451 -0.2466  0.3341
76729W        W19641  18.562  18.271  27.601  0.2094 -0.0359  0.1083
76730W        W19642  15.618  20.158  27.762  0.0188 -0.0788  0.0207
76731W        W19643  16.601  18.100  27.991 -0.0643  0.0668 -0.0650
76732W        W19644  14.867  20.902  29.469 -0.1922 -0.2763 -0.0154
76733W        W19645  16.521  19.580  25.026  0.2313 -0.2026  0.1022
76734W        W19646  18.824  19.225  31.014  0.1096 -0.3209 -0.0561
76735W        W19647  17.223  19.606  29.816  0.2727  0.2992 -0.0991
76736W        W19648  16.367  19.835  26.210  0.1260  0.1795  0.3762
76737W        W19649  15.143  18.400  28.242 -0.0423  0.0128  0.1694
76738W        W19650  17.518  20.814  30.797 -0.0411 -0.3953  0.1764
76739W        W19651  13.708  17.976  25.720 -0.0893  0.4520  0.1702
76740W        W19652  17.987  21.533  25.862 -0.0434  0.3053  0.0086
76741W        W19653  17.699  19.415  26.502 -0.0857 -0.0837 -0.0817
76742W        W19654  15.585  21.223  26.595 -0.4216 -0.3221 -0.1202
76743W        W19655  18.053  20.347  28.379  0.2269 -0.1210 -0.0211
76744W        W19656  17.730  22.617  29.272 -0.3026 -0.0251  0.0109
76745W        W19657  14.332  20.027  29.020 -0.1031 -0.1348 -0.0119
76746W        W19658  16.430  21.213  26.590  0.1487  0.0446 -0.1531
76747W        W19659  17.798  20.761  28.321 -0.2432  0.0164  0.0213
76748W        W19660  17.226  18.662  24.377 -0.2138  0.1111  0.2692
76749W        W19661  15.773  19.013  26.392 -0.1999  0.2349  0.0400
76750W        W19662  14.653  21.433  28.977 -0.2259 -0.1904  0.2329
76751W        W19663  18.345  19.215  27.626 -0.0564 -0.1341 -0.3641
76752W        W19664  17.942  22.500  25.011  0.1346  0.0114  0.0558
76753W        W19665  17.412  18.318  27.234 -0.1597 -0.3924  0.0966
76754W        W19666  16.131  20.447  26.352 -0.1234  0.1335 -0.3106
76755W        W19667  14.742  21.246  30.893  0.2477  0.2095 -0.1998
76756W        W19668  15.116  20.326  25.940  0.0495  0.1035  0.3976
76757W        W19669  17.573  20.166  27.472 -0.2514 -0.0049  0.2145
76758W        W19670  16.692  21.815  27.604  0.0328 -0.0108  0.0989
76759W        W19671  16.220  20.859  27.537 -0.1143  0.1090  0.5543
76760W        W19672  17.305  21.782  28.525 -0.2393  0.1018  0.1315
76761W        W19673  18.387  20.657  29.054  0.1920 -0.1550 -0.2205
76762W        W19674  16.540  18.507  26.572  0.1776 -0.1471 -0.1852
76763W        W19675  16.826  19.234  26.866  0.0908 -0.1812 -0.1397
76764W        W19676  15.753  21.463  24.808 -0.2586 -0.1380 -0.0840
76765W        W19677  16.159  21.772  24.742  0.0927  0.0048  0.2535
76766W        W19678  15.646  20.532  27.032 -0.3267  0.5055  0.1901
76767W        W19679  17.124  17.457  29.615  0.0002 -0.2045  0.1334
76768W        W19680  15.503  17.973  27.475  0.0803 -0.3089 -0.2161
76769W        W19681  15.212  20.385  27.135 -0.2761  0.0593  0.2385
76770W        W19682  18.410  21.281  26.247 -0.1089 -0.3543 -0.1408
76771W        W19683  15.939  18.061  27.124 -0.1077 -0.1893  0.0096
76772W        W19684  18.237  21.223  26.870  0.4014 -0.0589  0.1009
76773W        W19685  17.642  21.015  26.266 -0.0534 -0.0814 -0.4712
76774W        W19686  18.926  20.570  28.399  0.2572  0.1213  0.0437
76775W        W19687  15.100  20.783  26.181 -0.0663 -0.3692  0.1662
76776W        W19688  16.668  18.526  29.072 -0.2929  0.0618  0.2193
76777W        W19689  17.876  18.506  27.392  0.1586  0.0829  0.1275
76778W        W19690  14.131  18.232  25.471 -0.1030 -0.1313 -0.2131
76779W        W19691  16.754  18.632  28.076  0.0957 -0.0963  0.0195
76780W        W19692  16.591  21.512  28.692  0.1507 -0.2298 -0.2337
76781W        W19693  17.451  23.377  25.199 -0.0824  0.0355  0.0353
76782W        W19694  16.591  19.465  28.027 -0.2641 -0.0790 -0.2773
76783W        W19695  16.499  20.213  30.450 -0.0460 -0.1377 -0.2378
76784W        W19696  15.008  18.379  28.868 -0.0520  0.1258  0.0144
76785W        W19697  17.665  20.662  24.679 -0.0784  0.0469 -0.0505
76786W        W19698  15.731  20.727  30.081  0.0982  0.3530 -0.1939
76787W        W19699  18.731  20.812  26.384  0.0150 -0.4363  0.0971
76788W        W19700  18.501  17.894  27.938  0.1364  0.1992  0.0848
76789W        W19701  16.412  20.283  25.978  0.0612  0.1985 -0.1715
76790W        W19702  16.190  18.158  29.995  0.2330  0.0292 -0.2087
76791W        W19703  17.028  19.538  27.729  0.1489 -0.2989 -0.0961
76792W        W19704  16.216  18.160  26.695 -0.0470 -0.0663  0.0434
76793W        W19705  16.981  18.741  24.852  0.3623  0.1533 -0.0067
76794W        W19706  16.520  21.790  26.634  0.0082  0.2759 -0.1389
76795W        W19707  14.846  19.497  28.426 -0.2014  0.0431  0.1018
76796W        W19708  16.805  19.993  25.232  0.2753 -0.0373  0.0354
76797W        W19709  16.127  19.506  27.928  0.2791  0.2151 -0.3515
76798W        W19710  17.162  20.136  28.686  0.1565 -0.0956  0.0572
76799W        W19711  16.860  19.996  29.714  0.3161 -0.0432  0.0852
76800W        W19712  16.428  20.009  24.751  0.0054 -0.1421  0.1298
76801W        W19713  18.053  21.202  25.260  0.4002 -0.0449  0.1938
76802W        W19714  15.241  21.518  29.837  0.0452  0.0438 -0.3108
76803W        W19715  16.856  21.454  30.590  0.0990 -0.0640 -0.0289
76804W        W19716  15.737  20.745  28.298  0.2033  0.0423  0.3039
76805W        W19717  14.659  16.923  27.386  0.1778  0.1879 -0.2903
76806W        W19718  15.947  19.749  25.073  0.0593  0.2615 -0.0842
76807W        W19719  16.393  19.905  26.795  0.0760  0.1246  0.1888
76808W        W19720  17.565  18.360  28.359  0.1237  0.1378  0.3092
76809W        W19721  15.810  19.474  27.205 -0.0467 -0.3487 -0.2489
76810W        W19722  15.876  21.129  27.839  0.1159  0.1943  0.0965
76811W        W19723  16.354  20.380  26.836 -0.2629  0.1504 -0.1810
76812W        W19724  18.061  18.148  27.884 -0.1254  0.0257  0.1404
76813W        W19725  17.448  19.543  28.841 -0.0062  0.0103  0.1328
76814W        W19726  15.295  19.059  28.206  0.2274  0.0550  0.0804
76815W        W19727  16.046  21.050  31.194 -0.0185 -0.0249 -0.1062
76816W        W19728  14.741  20.816  30.634 -0.1236  0.0127 -0.1265
76817W        W19729  16.336  20.924  30.801 -0.1676  0.1348 -0.0496
76818W        W19730  17.944  17.992  29.764  0.1366 -0.0603 -0.0001
76819W        W19731  16.620  18.376  28.501  0.1088  0.0849  0.2187
76820W        W19732  17.171  17.993  30.314 -0.0521  0.1904 -0.2011
76821W        W19733  17.741  21.229  30.666 -0.1925 -0.1585  0.3339
76822W        W19734  16.937  21.022  31.547 -0.0026  0.0560  0.3590
76823W        W19735  15.240  18.832  27.613 -0.0501 -0.4190  0.2886
76824W        W19736  17.655  19.464  30.031 -0.1606  0.1170  0.2305
76825W        W19737  16.217  18.645  28.640  0.1907 -0.0468 -0.2365
76826W        W19738  17.089  18.439  29.497 -0.1992  0.3925  0.0168
76827W        W19739  15.290  21.130   0.429  0.1724  0.0558 -0.1057
76828W        W19740  16.435  18.956  29.695 -0.2410  0.0140 -0.0441
76829W        W19741  16.883  19.403  30.366  0.1280  0.0718  0.1147
76830W        W19742  15.511  18.886  29.857 -0.0536  0.1251  0.0378
76831W        W19743  16.163  18.814  30.597 -0.2395  0.0498  0.2227
76832W        W19744  15.014  20.029  29.730  0.0886  0.2185  0.1612
76833W        W19745  15.223  21.872  31.699  0.1578  0.1309  0.0783
76834W        W19746  17.176  17.894  29.236 -0.0174  0.1268  0.0673
76835W        W19747  17.137  18.499  29.007  0.3013  0.2560  0.1753
76836W        W19748  17.833  16.898  29.230 -0.1714 -0.0938 -0.1940
76837W        W19749  17.520  17.760  29.540 -0.2132  0.0244 -0.0485
76838W        W19750  18.058  18.095  29.213 -0.1972 -0.0774 -0.4226
76839W        W19751  15.497  20.417  29.091  0.1857 -0.0162  0.1054
76840W        W19752  16.659  18.873  28.756  0.2957  0.1348 -0.3538
76841W        W19753  17.169  21.071  30.440  0.0060  0.1630 -0.2404
76842W        W19754  15.874  19.038  29.544  0.2943  0.2842 -0.1372
76843W        W19755  17.151  19.679  28.408 -0.1774 -0.1818 -0.0675
76844W        W19756  18.035  20.209  29.423  0.2750 -0.2452 -0.1301
76845W        W19757  17.516  18.280  29.259 -0.3895 -0.4064 -0.0798
76846W        W19758  14.262  19.304  30.234 -0.0298 -0.2734  0.1690
76847W        W19759  16.891  18.861  29.966  0.1675  0.1120 -0.0565
76848W        W19760  15.436  19.992  31.345 -0.2553  0.0012  0.3546
76849W        W19761  16.242  19.799  30.907 -0.2702  0.1705 -0.1280
76850W        W19762  17.252  19.113  30.064  0.0488 -0.2791 -0.0561
76851W        W19763  17.387  18.706  29.734 -0.1501 -0.0041  0.1055
76852W        W19764  19.284  18.419  30.186  0.0310 -0.0916  0.2010
76853W        W19765  16.717  17.667  29.343 -0.1212 -0.0766 -0.0780
76854W        W19766  15.439  18.642  28.572  0.1693  0.0307  0.4559
76855W        W19767  16.597  21.515  29.297  0.2486 -0.3402 -0.0021
76856W        W19768  15.069  20.605  30.369 -0.1883  0.0010 -0.0376
76857W        W19769  17.102  18.571  28.490 -0.1319 -0.0369 -0.0853
76858W        W19770  15.338  18.738  31.132 -0.3176  0.0726 -0.0606
76859W        W19771  17.548  18.730  28.763 -0.0752  0.0697 -0.1367
76860W        W19772  17.524  18.799  29.259 -0.0288 -0.2125 -0.2441
76861W        W19773  15.773  20.402  28.699  0.2999 -0.0942  0.1573
76862W        W19774  19.033  21.914  30.798 -0.0077  0.0568  0.1181
76863W        W19775  18.271  17.666  29.139  0.0476  0.0365 -0.1497
76864W        W19776  16.234  18.395  28.159  0.1152 -0.0038 -0.1986
76865W        W19777  15.766  19.985  29.102 -0.4772  0.0972 -0.0307
76866W        W19778  16.574  19.399  28.936 -0.1223 -0.0197 -0.0265
76867W        W19779  15.640  20.055  27.287 -0.2787  0.0538  0.1427
76868W        W19780  18.229  21.017  30.550  0.3160  0.0746  0.3393
76869W        W19781  16.374  20.238  31.004  0.2053  0.4868  0.1209
76870W        W19782  16.100  20.081  27.719 -0.2547 -0.1481  0.0861
76871W        W19783  15.442  20.965  31.198  0.0296 -0.1239 -0.0749
76872W        W19784  15.433  18.153  31.549 -0.0905  0.2029 -0.1378
76873W        W19785  16.238  20.795  29.595  0.1010 -0.1560 -0.0216
76874W        W19786  15.152  21.469  30.819  0.1170 -0.1163  0.0635
76875W        W19787  14.649  20.034  29.387 -0.0577  0.0002 -0.1696
76876W        W19788  16.591  22.083  30.581 -0.0405  0.4569 -0.1559
76877W        W19789  18.197  19.439  31.037  0.0660 -0.2345  0.0746
76878W        W19790  17.528  18.712  30.531  0.1396  0.1893 -0.2067
76879W        W19791  14.241  25.549  17.799 -0.2178 -0.0649  0.2132
76880W        W19792  15.048  23.379  17.047  0.0359  0.0419  0.5496
76881W        W19793  17.316  22.910  15.819 -0.2415  0.1639  0.2887
76882W        W19794  17.259  24.245  16.083 -0.1565  0.0863 -0.1042
76883W        W19795  14.691  24.114  17.650  0.0860  0.0398 -0.0988
76884W        W19796  16.209  25.625  17.995 -0.3243 -0.0977  0.0391
76885W        W19797  15.860  23.088  18.777 -0.1887  0.1793  0.3557
76886W        W19798  16.482  24.343  17.819 -0.0586  0.0356  0.0594
76887W        W19799  18.298  25.318  18.265 -0.0115  0.1524 -0.2740
76888W        W19800  16.388  23.911  16.044 -0.1709 -0.4063  0.2418
76889W        W19801  15.782  23.783  18.129  0.2486  0.0016  0.1634
76890W        W19802  15.446  25.222  16.294  0.0914 -0.1186 -0.0205
76891W        W19803  15.740  22.547  16.417 -0.1535 -0.1684 -0.0083
76892W        W19804  15.182  22.747  19.032  0.2512 -0.0396  0.4655
76893W        W19805  16.735  23.581  16.149 -0.2900 -0.0880  0.3254
76894W        W19806  14.294  24.441  15.251 -0.0467  0.1112 -0.4049
76895W        W19807  15.656  24.879  17.008  0.0300 -0.0765 -0.0187
76896W        W19808  15.134  23.552  15.760  0.2687 -0.0182 -0.1392
76897W        W19809  15.237  25.004  16.726 -0.0762 -0.0220  0.1335
76898W        W19810  14.787  24.035  19.035  0.1546  0.1749 -0.0825
76899W        W19811  16.769  23.675  17.482 -0.0913 -0.2228  0.1183
76900W        W19812  16.587  26.368  15.224 -0.2329  0.0183  0.1184
76901W        W19813  14.881  22.681  15.322 -0.1402 -0.2292  0.2981
76902W        W19814  14.982  23.767  17.557 -0.2277  0.2409 -0.0314
76903W        W19815  14.921  23.692  19.363  0.3089 -0.0851 -0.2222
76904W        W19816  17.055  23.535  17.086  0.1047 -0.1234 -0.0043
76905W        W19817  17.870  24.335  16.841  0.1230  0.3351  0.0122
76906W        W19818  14.511  25.797  18.165 -0.3878 -0.0751  0.1386
76907W        W19819  17.313  25.631  16.430 -0.2752 -0.1833 -0.2054
76908W        W19820  17.657  23.574  18.417 -0.0179 -0.2701  0.2862
76909W        W19821  14.220  23.929  17.335  0.1072  0.0281 -0.1526
76910W        W19822  14.168  26.900  18.534  0.0587 -0.1029  0.4257
76911W        W19823  14.970  24.919  16.096 -0.0904 -0.2848  0.0075
76912W        W19824  18.713  24.693  16.106  0.1315 -0.0413  0.0537
76913W        W19825  15.838  24.634  18.181  0.0407 -0.1725  0.0058
76914W        W19826  15.805  25.481  20.256 -0.1536 -0.2615 -0.1099
76915W        W19827  14.794  24.962  16.552  0.0447  0.1930  0.0750
76916W        W19828  15.921  25.932  18.852  0.3831  0.1898 -0.0734
76917W        W19829  15.454  26.517  19.742 -0.3552  0.1231  0.0363
76918W        W19830  15.666  24.514  17.676 -0.0661  0.2999  0.0347
76919W        W19831  15.250  24.264  17.359  0.1251 -0.2215 -0.1149
76920W        W19832  15.342  25.825  15.081 -0.1834  0.1119  0.2456
76921W        W19833  15.715  24.877  16.519  0.1536 -0.0991 -0.3776
76922W        W19834  14.438  23.984  18.504 -0.0558 -0.0194 -0.6231
76923W        W19835  14.261  26.091  17.346 -0.2586  0.0711 -0.2880
76924W        W19836  16.945  22.057  18.787  0.1155 -0.2379  0.1111
76925W        W19837  16.028  25.752  16.121  0.2427  0.1751 -0.0908
76926W        W19838  16.785  24.060  16.316  0.2046 -0.3893  0.2064
76927W        W19839  15.686  21.539  16.014 -0.0506 -0.1755  0.2731
76928W        W19840  16.124  22.396  15.931  0.4742 -0.3568  0.2944
76929W        W19841  14.009  22.677  17.006  0.0166 -0.4713 -0.0114
76930W        W19842  16.323  26.257  16.675 -0.1161 -0.0315  0.0779
76931W        W19843  16.695  23.465  17.886 -0.1709  0.1978  0.1386
76932W        W19844  17.681  25.918  20.762  0.3717 -0.0819  0.1139
76933W        W19845  16.386  23.228  16.081  0.1815  0.3208  0.0812
76934W        W19846  16.835  23.952  18.332  0.0879 -0.2555 -0.1296
76935W        W19847  13.853  26.438  18.607  0.1179 -0.0177 -0.2916
76936W        W19848  15.226  23.852  18.993  0.2061 -0.0759  0.0482
76937W        W19849  17.389  26.111  15.886  0.0360 -0.2122 -0.1856
76938W        W19850  17.905  25.565  16.969 -0.0793  0.0119  0.0391
76939W        W19851  16.086  25.806  16.604 -0.1282 -0.1928 -0.3591
76940W        W19852  14.117  24.478  18.652  0.0200  0.0493  0.0221
76941W        W19853  13.599  24.842  19.817 -0.1175  0.0440  0.2935
76942W        W19854  15.554  24.722  18.596 -0.0060  0.0167 -0.3266
76943W        W19855  14.311  23.485  16.347  0.2164  0.1330  0.2485
76944W        W19856  18.220  24.760  18.884 -0.2554  0.0761  0.2028
76945W        W19857  14.210  27.135  18.938 -0.1941  0.3510 -0.1430
76946W        W19858  18.607  23.278  17.909 -0.0751 -0.1821  0.1600
76947W        W19859  14.424  24.852  18.537  0.3555 -0.0294 -0.0667
76948W        W19860  17.084  25.572  18.167  0.2356 -0.0975  0.0567
76949W        W19861  16.065  24.546  16.694  0.3018 -0.3139  0.2819
76950W        W19862  16.051  22.175  16.439  0.2563  0.1401 -0.1048
76951W        W19863  20.194  22.490  16.686  0.2180  0.0222 -0.0359
76952W        W19864  15.584  24.478  15.060 -0.1025  0.1213  0.1671
76953W        W19865  16.696  23.040  16.942  0.1794 -0.3672  0.3231
76954W        W19866  18.122  25.705  18.889 -0.0722 -0.1830  0.1391
76955W        W19867  16.134  23.391  15.282  0.0167  0.0687 -0.1504
76956W        W19868  14.422  25.178  17.093  0.0363 -0.1099  0.0984
76957W        W19869  17.012  23.499  18.268  0.0538  0.0519  0.0448
76958W        W19870  16.498  24.663  19.532  0.3272  0.1188 -0.0805
76959W        W19871  15.559  23.891  16.510 -0.0146 -0.1353 -0.1125
76960W        W19872  15.049  23.957  16.929 -0.1379  0.1342 -0.0220
76961W        W19873  14.114  24.938  15.259 -0.1251  0.1407  0.0016
76962W        W19874  15.003  22.828  18.018  0.2229 -0.0265 -0.0859
76963W        W19875  15.357  24.778  18.158  0.2623  0.0617 -0.3859
76964W        W19876  17.621  23.355  16.139 -0.1535  0.1433  0.1280
76965W        W19877  15.502  22.115  17.771 -0.0536 -0.3119  0.2554
76966W        W19878  17.330  23.544  16.674 -0.0020 -0.2177  0.2159
76967W        W19879  14.740  25.261  15.811 -0.0203 -0.2553  0.0253
76968W        W19880  18.305  25.410  16.234  0.0243 -0.0783  0.3216
76969W        W19881  17.263  23.721  16.039 -0.1412  0.0432 -0.1246
76970W        W19882  17.090  26.356  15.456  0.1117  0.2940  0.0644
76971W        W19883  13.470  24.965  20.454  0.1162 -0.0929  0.1250
76972W        W19884  14.441  24.701  17.789  0.2395  0.0646 -0.0657
76973W        W19885  14.784  22.102  19.480 -0.2372 -0.3246 -0.0809
76974W        W19886  15.088  22.854  17.095 -0.0365  0.1734  0.2704
76975W        W19887  17.555  24.376  18.996 -0.2070 -0.1216  0.1425
76976W        W19888  13.994  22.151  16.700  0.3432 -0.3617 -0.1471
76977W        W19889  16.045  25.091  18.146 -0.1806  0.2285  0.2495
76978W        W19890  15.110  24.192  16.443  0.2087 -0.0401  0.0758
76979W        W19891  14.375  24.953  15.751 -0.0935  0.1550 -0.0457
76980W        W19892  18.747  23.090  18.434  0.1303 -0.0287  0.2151
76981W        W19893  16.803  26.654  15.875 -0.0754 -0.1881 -0.0032
76982W        W19894  17.012  25.216  17.165 -0.2785  0.0036 -0.3439
76983W        W19895  18.174  26.010  17.120 -0.2287 -0.0489 -0.1876
76984W        W19896  17.145  23.159  19.608 -0.0893 -0.0945 -0.1469
76985W        W19897  15.546  23.485  16.848  0.3661 -0.1979 -0.1787
76986W        W19898  16.127  26.061  18.281 -0.0878  0.0753  0.1408
76987W        W19899  14.268  26.231  18.096 -0.3076 -0.1921  0.0908
76988W        W19900  13.593  23.694  19.023  0.0435 -0.1289 -0.0653
76989W        W19901  18.306  25.258  18.752 -0.0289  0.0801  0.0005
76990W        W19902  16.711  25.048  15.409  0.0703 -0.0149 -0.1936
76991W        W19903  13.964  24.839  17.696  0.0482 -0.0316 -0.3797
76992W        W19904  17.602  23.031  17.844 -0.2693 -0.0345 -0.4534
76993W        W19905  17.612  24.039  17.749  0.0522 -0.0098 -0.1834
76994W        W19906  16.001  24.083  16.402 -0.2323 -0.1226 -0.2748
76995W        W19907  15.324  22.698  15.596 -0.1809 -0.1563 -0.2582
76996W        W19908  16.406  24.417  16.140 -0.1414  0.2533 -0.1186
76997W        W19909  15.166  25.514  15.950 -0.0544 -0.1760  0.0938
76998W        W19910  14.700  24.510  16.356  0.5065  0.1921  0.1913
76999W        W19911  14.974  25.396  17.347 -0.0576 -0.2308  0.1770
77000W        W19912  17.940  24.700  17.341  0.0976  0.0735 -0.1550
77001W        W19913  14.419  25.072  19.614 -0.1219 -0.2854 -0.0618
77002W        W19914  16.740  23.546  18.755 -0.1580  0.0100  0.0959
77003W        W19915  15.091  23.901  15.241 -0.0182 -0.0255 -0.2005
77004W        W19916  15.140  25.536  18.590  0.1435  0.3317 -0.3977
77005W        W19917  17.489  22.459  15.731 -0.0493 -0.1010 -0.1550
77006W        W19918  17.568  21.830  15.155  0.6209 -0.1852 -0.1221
77007W        W19919  16.657  24.438  18.573  0.0452 -0.0285  0.2040
77008W        W19920  17.241  24.771  16.073 -0.3176  0.2184  0.0359
77009W        W19921  16.351  21.978  15.972 -0.0882 -0.2541  0.0607
77010W        W19922  17.428  22.102  16.082 -0.1290  0.0203  0.2781
77011W        W19923  14.740  25.346  19.835  0.1141 -0.0301  0.1054
77012W        W19924  15.978  25.302  16.407  0.3569 -0.0415 -0.2231
77013W        W19925  15.075  24.524  16.944 -0.2528  0.2030 -0.2284
77014W        W19926  16.473  22.315  15.620 -0.1198 -0.0790 -0.5293
77015W        W19927  17.659  25.118  18.048 -0.0038  0.1058 -0.0855
77016W        W19928  14.695  25.379  19.266  0.0571 -0.1919 -0.0509
77017W        W19929  16.271  24.729  19.046 -0.1313 -0.1148 -0.0376
77018W        W19930  17.063  24.782  18.578 -0.0594  0.2619 -0.0657
77019W        W19931  16.312  22.766  18.475  0.2157  0.3701 -0.0174
77020W        W19932  16.475  23.822  15.225 -0.2456  0.2661 -0.0877
77021W        W19933  17.577  23.299  16.968 -0.1404 -0.0814  0.1851
77022W        W19934  14.413  25.004  16.222 -0.0968  0.2332 -0.0679
77023W        W19935  16.636  21.955  17.553  0.0911  0.0627  0.1184
77024W        W19936  15.965  23.767  16.838 -0.2634  0.2524  0.0895
77025W        W19937  16.399  23.232  18.264  0.2630  0.0092  0.1683
77026W        W19938  17.922  24.037  19.199  0.2616  0.2024 -0.3398
77027W        W19939  16.850  24.012  15.649 -0.1843 -0.0711 -0.1731
77028W        W19940  15.271  24.760  17.319  0.0820  0.0484  0.3192
77029W        W19941  14.940  23.262  16.155 -0.2658 -0.0139 -0.3082
77030W        W19942  16.432  23.994  18.608 -0.1816  0.4316 -0.1097
77031W        W19943  13.491  23.462  19.830 -0.1571 -0.0110  0.0373
77032W        W19944  14.646  25.411  18.747 -0.1283  0.5658  0.0104
77033W        W19945  16.051  24.758  19.918 -0.1499  0.0763 -0.1169
77034W        W19946  16.689  24.998  16.854  0.2605 -0.1222  0.3770
77035W        W19947  17.060  23.062  17.973  0.2832 -0.0594  0.0238
77036W        W19948  15.460  23.190  15.661  0.0826  0.1130  0.1716
77037W        W19949  15.523  25.997  15.941 -0.0898  0.0900 -0.1638
77038W        W19950  14.651  24.456  15.744  0.1521 -0.0396 -0.1608
77039W        W19951  17.559  23.051  16.554 -0.0157  0.1654 -0.0050
77040W        W19952  14.759  26.233  18.105 -0.0250 -0.1435  0.1291
77041W        W19953  15.707  25.278  15.841 -0.1360  0.0808 -0.1516
77042W        W19954  15.864  24.186  18.498 -0.2310 -0.1573  0.3997
77043W        W19955  14.325  25.672  16.889 -0.0761 -0.0389  0.1880
77044W        W19956  17.940  23.660  16.904  0.0259 -0.2883 -0.0704
77045W        W19957  15.130  24.974  17.733  0.2717  0.0840  0.0726
77046W        W19958  14.667  23.774  16.020 -0.1369 -0.1136 -0.3941
77047W        W19959  15.181  23.366  15.283  0.1160 -0.3361 -0.0632
77048W        W19960  17.807  23.589  17.439 -0.1776 -0.2788 -0.0989
77049W        W19961  15.669  23.721  15.817  0.0079 -0.2077 -0.2317
77050W        W19962  16.637  22.701  17.335 -0.0372 -0.1127  0.0664
77051W        W19963  16.343  23.273  16.619  0.0922 -0.1705  0.0477
77052W        W19964  13.927  25.003  18.534  0.3434  0.1346 -0.1930
77053W        W19965  16.287  25.144  17.765  0.1806  0.1872  0.1307
77054W        W19966  17.776  21.759  15.923 -0.1208 -0.1167  0.1383
77055W        W19967  16.647  24.411  17.365 -0.2116 -0.0305  0.1593
77056W        W19968  15.634  25.637  18.090 -0.2853 -0.0404 -0.0990
77057W        W19969  14.632  22.038  16.628  0.2369 -0.0290  0.0539
77058W        W19970  17.543  23.932  17.029  0.0274 -0.0227 -0.0018
77059W        W19971  15.437  23.966  17.721 -0.0118  0.0640 -0.3060
77060W        W19972  14.100  24.279  17.669  0.1827 -0.0153 -0.1368
77061W        W19973  16.355  26.141  18.719 -0.0715  0.1203  0.0485
77062W        W19974  14.226  24.744  14.812  0.0677 -0.1009  0.1725
77063W        W19975  14.168  25.149  18.106  0.1132 -0.0591 -0.1249
77064W        W19976  15.219  24.272  19.354 -0.1712 -0.1517  0.0324
77065W        W19977  16.252  24.330  18.235 -0.1924 -0.2334 -0.3084
77066W        W19978  15.807  23.947  17.394 -0.0605  0.0866 -0.0773
77067W        W19979  14.181  23.397  18.144  0.0137 -0.3563  0.0405
77068W        W19980  15.995  24.707  16.115 -0.1524 -0.0084 -0.0488
77069W        W19981  15.480  25.238  17.271  0.1150  0.0375  0.0778
77070W        W19982  16.274  23.927  17.561  0.0861  0.3451 -0.1092
77071W        W19983  15.181  25.607  20.220  0.0938  0.0147  0.0814
77072W        W19984  14.359  22.301  17.126 -0.1788  0.1841 -0.1237
77073W        W19985  18.261  25.985  16.335 -0.2928 -0.0510  0.6165
77074W        W19986  17.382  23.165  18.410  0.0053 -0.0122  0.1428
77075W        W19987  14.572  24.216  17.102  0.0991  0.0019 -0.1224
77076W        W19988  13.619  24.889  18.159 -0.1697 -0.0622  0.0045
77077W        W19989  15.219  23.910  16.071  0.0106  0.1845  0.3690
77078W        W19990  16.986  22.642  17.742 -0.1466 -0.0803 -0.0609
77079W        W19991  15.177  25.328  19.084  0.0552  0.0570 -0.0537
77080W        W19992  15.249  24.653  16.362 -0.1220 -0.1278 -0.1399
77081W        W19993  14.376  26.870  20.317  0.1324  0.1701  0.0989
77082W        W19994  17.295  22.738  15.355  0.0548 -0.0599 -0.0472
77083W        W19995  16.104  23.849  15.568  0.0138 -0.0286 -0.1010
77084W        W19996  15.760  24.432  17.178 -0.0512  0.2782  0.0274
77085W        W19997  19.110  22.132  17.337 -0.0132  0.2135  0.1221
77086W        W19998  15.520  24.221  15.645 -0.1853 -0.3079  0.1801
77087W        W19999  16.874  23.573  20.188 -0.2784 -0.0315 -0.0926
77088W        W20000  16.089  23.427  17.858 -0.0474  0.1953 -0.0856
77089W        W20001  18.320  24.733  18.400 -0.1760 -0.0184 -0.1509
77090W        W20002  14.262  22.592  18.848  0.0564  0.1271  0.0251
77091W        W20003  16.690  26.306  21.005  0.1026 -0.0908  0.2472
77092W        W20004  15.636  25.011  17.800 -0.3121 -0.1993  0.0756
77093W        W20005  16.296  22.790  16.497 -0.0557  0.0573 -0.1546
77094W        W20006  15.501  23.420  16.217 -0.1973  0.2288  0.0524
77095W        W20007  15.543  25.961  18.472  0.0722 -0.2024 -0.2721
77096W        W20008  16.852  24.628  16.401  0.1225 -0.1303 -0.0210
77097W        W20009  15.102  24.442  15.925 -0.0670  0.0632  0.0601
77098W        W20010  16.842  23.446  16.635 -0.1109  0.0203  0.0287
77099W        W20011  14.724  24.995  19.007  0.1526  0.0434 -0.1162
77100W        W20012  16.978  25.220  16.364  0.1325  0.1961  0.3683
77101W        W20013  15.084  23.079  14.911  0.2772  0.0699  0.2077
77102W        W20014  14.763  25.436  16.291  0.1969 -0.1287 -0.1631
77103W        W20015  15.417  21.372  19.296 -0.0185  0.0778 -0.1569
77104W        W20016  17.812  25.428  16.486  0.0105 -0.1404  0.0356
77105W        W20017  16.010  23.500  16.235 -0.0810 -0.2337 -0.0423
77106W        W20018  16.885  24.019  17.831  0.2260  0.3568  0.0611
77107W        W20019  17.028  23.951  18.774  0.1276  0.2944 -0.1953
77108W        W20020  15.438  24.237  18.182 -0.0784  0.1246  0.0955
77109W        W20021  14.371  24.244  19.138  0.3015  0.1013  0.2566
77110W        W20022  16.088  25.263  19.205  0.2422  0.0010  0.0411
77111W        W20023  17.123  23.252  16.225 -0.1372 -0.5342 -0.0670
77112W        W20024  17.355  23.985  18.188  0.0493  0.2425 -0.1103
77113W        W20025  17.175  23.973  17.321 -0.1303  0.0638  0.0640
77114W        W20026  14.712  24.200  15.104 -0.0823 -0.0143 -0.0732
77115W        W20027  15.955  24.157  17.869 -0.0031  0.1249  0.3042
77116W        W20028  17.387  24.401  18.466  0.2465 -0.0633 -0.1376
77117W        W20029  15.121  22.583  16.611 -0.1254 -0.3921  0.2065
77118W        W20030  15.820  23.079  17.583  0.0783 -0.1112 -0.0316
77119W        W20031  16.098  26.446  15.369 -0.3154  0.0565 -0.0639
77120W        W20032  16.145  25.023  16.832 -0.1021 -0.2918 -0.0183
77121W        W20033  16.095  24.725  17.674 -0.4109  0.0033 -0.0808
77122W        W20034  14.528  23.338  18.538 -0.1111  0.1625 -0.1301
77123W        W20035  15.351  26.159  20.441 -0.3992  0.0889 -0.2585
77124W        W20036  14.760  22.171  15.358 -0.1026  0.2715 -0.1843
77125W        W20037  15.367  23.684  17.277  0.0246 -0.1998 -0.0849
77126W        W20038  15.562  24.430  16.668 -0.1344 -0.0133 -0.0640
77127W        W20039  18.283  23.209  18.280 -0.0687 -0.2757 -0.0475
77128W        W20040  15.777  23.078  16.512  0.0520  0.0078  0.1270
77129W        W20041  17.991  24.381  17.689  0.1608  0.3952  0.1076
77130W        W20042  13.295  24.409  15.743  0.3584  0.1667  0.2210
77131W        W20043  17.905  23.054  17.383  0.0548 -0.2155  0.1468
77132W        W20044  16.639  26.244  18.220  0.1967  0.0547  0.1196
77133W        W20045  14.260  25.202  19.072  0.1609  0.4249  0.0222
77134W        W20046  16.185  25.106  15.883 -0.1784  0.0781  0.0493
77135W        W20047  16.319  22.303  17.238  0.0607 -0.0540  0.1996
77136W        W20048  16.435  23.755  16.528 -0.0781  0.0302  0.0971
77137W        W20049  15.881  25.931  17.769  0.3073 -0.3443  0.0621
77138W        W20050  18.969  22.596  20.150  0.3047  0.0106  0.0697
77139W        W20051  15.584  25.517  18.859 -0.0736  0.2097  0.4998
77140W        W20052  15.054  24.988  18.581  0.2278 -0.1012 -0.1266
77141W        W20053  16.558  24.912  18.550  0.1237  0.2465  0.0384
77142W        W20054  18.277  24.898  16.282  0.0985  0.0007  0.0310
77143W        W20055  15.324  26.065  17.759 -0.2111 -0.2390  0.3004
77144W        W20056  14.724  21.850  17.256  0.2226 -0.3428  0.4285
77145W        W20057  16.428  24.782  18.080  0.3333 -0.0670  0.0336
77146W        W20058  16.483  23.493  15.680  0.2897 -0.1975  0.1392
77147W        W20059  14.189  21.692  17.000  0.0546 -0.1394 -0.2216
77148W        W20060  15.852  24.769  15.616  0.3092  0.0453 -0.0243
77149W        W20061  13.880  24.788  18.987  0.1282 -0.2802  0.3093
77150W        W20062  13.642  23.443  18.561 -0.2896  0.1512  0.0863
77151W        W20063  13.855  26.206  17.052  0.2592 -0.1090  0.1813
77152W        W20064  16.425  24.933  16.397 -0.1869  0.0296  0.1583
77153W        W20065  16.014  23.302  15.756 -0.1834 -0.1112 -0.0139
77154W        W20066  16.833  24.463  15.879  0.1710 -0.0176  0.2003
77155W        W20067  15.785  22.835  15.881 -0.1689 -0.0287 -0.1143
77156W        W20068  15.207  26.727  17.663 -0.1973  0.1075  0.2064
77157W        W20069  15.118  24.377  15.424  0.0286 -0.2610 -0.1102
77158W        W20070  16.993  24.453  16.959  0.4596  0.0204 -0.0011
77159W        W20071  15.023  25.874  17.375 -0.2596  0.1552  0.0192
77160W        W20072  17.286  23.989  19.304 -0.1602  0.2992 -0.1453
77161W        W20073  17.402  20.522  15.697 -0.0318  0.0715  0.1653
77162W        W20074  17.695  23.969  15.937 -0.1402 -0.1719 -0.0975
77163W        W20075  18.780  23.700  15.544  0.0645 -0.0547  0.0455
77164W        W20076  16.771  24.911  19.017 -0.0924  0.2524 -0.0271
77165W        W20077  14.340  24.739  17.328  0.5175  0.0657  0.1289
77166W        W20078  16.417  22.967  15.622  0.1848 -0.0404 -0.3046
77167W        W20079  15.412  24.277  18.772 -0.1230  0.1218 -0.1382
77168W        W20080  19.158  23.139  18.719  0.1363 -0.0945 -0.0875
77169W        W20081  14.942  25.769  19.045 -0.1995 -0.2838 -0.1817
77170W        W20082  17.642  27.404  16.823 -0.1163  0.1168  0.0292
77171W        W20083  14.427  22.941  16.180 -0.0360  0.3311  0.0225
77172W        W20084  13.958  24.088  18.381 -0.0002 -0.0403  0.0046
77173W        W20085  19.143  23.124  18.094 -0.2076  0.1371 -0.1286
77174W        W20086  15.990  26.082  15.713  0.1081  0.2386 -0.1498
77175W        W20087  16.571  22.961  17.792  0.0802  0.1206  0.0185
77176W        W20088  16.683  25.869  17.852  0.1972  0.2585  0.0773
77177W        W20089  14.817  24.609  17.436 -0.0235  0.1235  0.1844
77178W        W20090  15.584  25.844  17.381  0.0082 -0.4546 -0.3612
77179W        W20091  14.087  23.122  17.706 -0.1195  0.0378  0.2218
77180W        W20092  17.896  23.531  15.746 -0.1123 -0.1124 -0.0483
77181W        W20093  14.912  23.373  18.924  0.2254 -0.0944  0.1460
77182W        W20094  18.137  23.846  17.706  0.4777 -0.0639 -0.0068
77183W        W20095  14.067  24.649  18.155  0.0529  0.0840 -0.0167
77184W        W20096  16.803  23.947  16.843 -0.2125  0.1360 -0.2166
77185W        W20097  16.072  24.620  18.634 -0.2763  0.0072  0.1950
77186W        W20098  15.479  23.354  18.900 -0.1129 -0.1520 -0.0067
77187W        W20099  15.505  23.716  15.384 -0.0978 -0.1459  0.0934
77188W        W20100  18.952  24.006  18.566  0.0021  0.4273  0.1013
77189W        W20101  16.692  22.979  16.367 -0.1756 -0.5434 -0.1185
77190W        W20102  17.203  25.587  19.594 -0.1017  0.0456  0.1769
77191W        W20103  15.459  22.996  17.947  0.1185  0.0732  0.0549
77192W        W20104  16.566  22.657  16.007 -0.0360 -0.0415 -0.0068
77193W        W20105  14.649  24.038  16.638  0.3014 -0.1422  0.2989
77194W        W20106  15.287  25.504  17.719 -0.1179 -0.1739  0.0157
77195W        W20107  16.064  26.522  17.036  0.2951  0.0521  0.3303
77196W        W20108  14.278  22.752  17.441 -0.1070  0.0207 -0.1583
77197W        W20109  17.553  24.222  15.085 -0.2233  0.0651  0.0545
77198W        W20110  17.720  23.941  16.541 -0.1150  0.0044  0.1048
77199W        W20111  15.062  26.041  16.082  0.1512 -0.1682 -0.0605
77200W        W20112  17.491  24.459  17.213  0.0556 -0.1668  0.1011
77201W        W20113  16.527  25.766  18.373 -0.0922 -0.3927  0.1181
77202W        W20114  15.427  22.916  18.594 -0.0477  0.2730  0.2045
77203W        W20115  16.485  25.198  17.285 -0.0182 -0.0224  0.1593
77204W        W20116  16.830  25.695  17.267  0.0207 -0.0793 -0.0916
77205W        W20117  15.323  21.897  16.062  0.6220 -0.0294 -0.0689
77206W        W20118  15.549  24.022  16.960  0.0523  0.0593  0.0106
77207W        W20119  14.818  25.535  17.825 -0.3681  0.0945 -0.0865
77208W        W20120  18.500  22.415  17.920 -0.0791 -0.4209  0.1381
77209W        W20121  18.125  22.854  17.860  0.1802  0.0555  0.2400
77210W        W20122  17.806  25.966  15.612 -0.0404 -0.1153 -0.2005
77211W        W20123  18.105  23.702  18.811  0.2350 -0.0807  0.0381
77212W        W20124  16.288  24.678  17.145  0.0826 -0.1322  0.0240
77213W        W20125  14.907  26.854  20.384 -0.0429 -0.1860 -0.0100
77214W        W20126  14.110  23.658  15.877 -0.0212  0.2021  0.0468
77215W        W20127  15.779  25.434  17.626  0.0331  0.2000  0.1534
77216W        W20128  16.369  24.716  15.643  0.1616  0.1028  0.0262
77217W        W20129  15.907  25.597  17.081  0.2418  0.1802 -0.1723
77218W        W20130  17.125  25.252  19.167  0.0474 -0.0983 -0.4599
77219W        W20131  15.866  23.512  17.255 -0.0064  0.0221  0.0294
77220W        W20132  18.504  24.063  18.506  0.0869 -0.4589 -0.1754
77221W        W20133  14.233  23.846  16.838 -0.4017 -0.2411 -0.0621
77222W        W20134  19.153  23.128  17.004  0.1935  0.1375 -0.1179
77223W        W20135  18.881  22.229  16.722  0.0335  0.0695  0.0113
77224W        W20136  14.913  24.526  18.575 -0.0006  0.2192  0.0308
77225W        W20137  13.759  24.100  15.907 -0.1521  0.1780  0.0054
77226W        W20138  15.986  23.922  15.086 -0.4138 -0.1097 -0.3072
77227W        W20139  15.452  25.683  19.317  0.0701  0.0055 -0.2031
77228W        W20140  16.837  23.241  19.248  0.1053  0.2578  0.1267
77229W        W20141  14.890  23.337  18.057  0.1687  0.1108 -0.2010
77230W        W20142  14.444  23.632  18.973 -0.0468 -0.1769 -0.0775
77231W        W20143  14.680  23.072  17.185  0.1991 -0.1261 -0.3812
77232W        W20144  17.118  26.071  16.371  0.1260  0.0821 -0.0099
77233W        W20145  14.063  22.416  17.831  0.2748 -0.1087 -0.0498
77234W        W20146  14.005  22.234  18.472 -0.0406  0.0030  0.0212
77235W        W20147  16.053  24.296  15.841  0.2459  0.1769  0.1983
77236W        W20148  17.180  25.134  17.757  0.2497  0.1354  0.0080
77237W        W20149  15.941  22.370  16.901 -0.2756 -0.1482  0.3166
77238W        W20150  16.636  25.379  19.273  0.2055 -0.4434  0.0870
77239W        W20151  17.303  24.291  15.584 -0.0220  0.0992  0.4322
77240W        W20152  16.107  23.548  18.511 -0.0732 -0.1155 -0.0046
77241W        W20153  15.981  22.921  18.045  0.1434 -0.3088 -0.0209
77242W        W20154  14.058  22.933  15.833  0.0207 -0.0142 -0.5396
77243W        W20155  15.145  24.428  17.842 -0.1504  0.0887  0.3369
77244W        W20156  17.361  25.606  15.911  0.4245  0.4681  0.0881
77245W        W20157  16.738  26.405  16.363 -0.2647  0.1752  0.3222
77246W        W20158  14.786  24.750  18.182  0.1360 -0.2251  0.1289
77247W        W20159  16.342  25.772  19.112 -0.1796  0.0242 -0.3195
77248W        W20160  13.975  20.296  19.373  0.0389 -0.0187  0.2606
77249W        W20161  17.213  24.113  16.641  0.4182 -0.2357 -0.1433
77250W        W20162  15.935  25.080  18.744  0.1502 -0.2447 -0.2356
77251W        W20163  16.918  25.679  16.126 -0.3219 -0.1543  0.0924
77252W        W20164  18.371  24.778  17.580  0.1560  0.4989  0.1365
77253W        W20165  16.484  23.590  17.041  0.1406 -0.0172  0.0825
77254W        W20166  14.372  23.812  19.417 -0.0999 -0.0289  0.1452
77255W        W20167  14.948  24.033  18.071 -0.0082 -0.0448  0.1102
77256W        W20168  17.501  24.932  18.914  0.0409 -0.0033  0.0159
77257W        W20169  14.785  22.625  17.459  0.1365  0.0784  0.0545
77258W        W20170  15.922  23.107  16.971  0.1844  0.1007  0.2971
77259W        W20171  15.527  24.748  15.954  0.4129  0.3034  0.1681
77260W        W20172  13.669  24.343  19.028 -0.0144  0.0980  0.3390
77261W        W20173  16.849  23.071  15.884 -0.0266  0.0705  0.0193
77262W        W20174  15.744  23.298  18.266 -0.2240 -0.0389 -0.1948
77263W        W20175  15.662  26.874  18.858 -0.1403 -0.2130 -0.1576
77264W        W20176  17.334  24.810  18.128  0.0935  0.2531 -0.0942
77265W        W20177  15.642  23.284  15.116 -0.1414  0.0662 -0.1016
77266W        W20178  18.218  24.641  15.836 -0.0421 -0.2534 -0.1566
77267W        W20179  15.603  25.343  16.755 -0.0665  0.1130 -0.2283
77268W        W20180  17.386  25.624  18.870 -0.1355  0.1159 -0.0106
77269W        W20181  15.949  25.677  19.472  0.2679  0.1495 -0.0156
77270W        W20182  16.668  24.868  17.591 -0.0672 -0.2621  0.1989
77271W        W20183  14.817  23.076  16.597 -0.1390  0.0272 -0.3096
77272W        W20184  15.610  23.510  17.668 -0.0746  0.2379  0.0753
77273W        W20185  15.584  24.304  16.142 -0.1619 -0.0663 -0.3028
77274W        W20186  16.832  23.196  17.409 -0.1298 -0.2303 -0.1338
77275W        W20187  14.537  22.671  16.715 -0.2078  0.1596 -0.2298
77276W        W20188  17.054  22.514  16.125 -0.0133 -0.0244  0.4017
77277W        W20189  16.470  26.740  17.427  0.0293 -0.0666 -0.1404
77278W        W20190  16.248  24.143  17.059  0.0523 -0.0757 -0.3986
77279W        W20191  17.561  24.611  22.234  0.2909 -0.2204 -0.0484
77280W        W20192  14.577  23.604  20.464  0.2719  0.1407  0.0953
77281W        W20193  17.113  24.119  20.805 -0.1105 -0.1015 -0.0517
77282W        W20194  18.838  25.355  20.533 -0.2287  0.0771  0.1933
77283W        W20195  14.485  24.457  21.713  0.0156 -0.0963  0.0552
77284W        W20196  15.966  25.508  21.349  0.0024  0.2314 -0.3200
77285W        W20197  14.429  24.442  20.279  0.0945  0.0551  0.0168
77286W        W20198  16.986  24.938  20.680  0.2508  0.3200 -0.1524
77287W        W20199  17.838  25.849  22.802  0.4136 -0.1858  0.4189
77288W        W20200  17.182  24.346  17.628  0.0210  0.0605  0.1514
77289W        W20201  15.564  23.761  21.207 -0.0610  0.1791  0.0419
77290W        W20202  15.259  25.580  22.837  0.0187 -0.3226  0.0175
77291W        W20203  15.362  21.799  19.051  0.1325  0.1587 -0.0333
77292W        W20204  12.511  22.644  21.234 -0.2267  0.1471 -0.0728
77293W        W20205  18.043  24.867  23.048  0.1495  0.0418  0.1965
77294W        W20206  15.113  23.799  20.776  0.1531  0.1217 -0.0037
77295W        W20207  15.346  24.338  22.000  0.0267 -0.1896  0.1334
77296W        W20208  15.261  22.133  19.561 -0.1295 -0.2466 -0.1608
77297W        W20209  17.201  26.212  20.765 -0.2535  0.0967 -0.2645
77298W        W20210  16.049  22.736  22.159 -0.0467  0.0016 -0.1128
77299W        W20211  17.379  22.012  21.101  0.2836  0.0910  0.1333
77300W        W20212  16.581  24.365  19.094  0.0293 -0.4194 -0.0038
77301W        W20213  15.136  25.249  18.165 -0.0183  0.0434 -0.2962
77302W        W20214  14.343  23.260  20.139 -0.0292  0.1242 -0.0715
77303W        W20215  14.525  22.655  21.981 -0.1834 -0.1107  0.2248
77304W        W20216  17.392  22.132  20.491 -0.0678 -0.2993 -0.1882
77305W        W20217  16.740  23.877  19.156  0.2567 -0.2046  0.2059
77306W        W20218  16.035  25.544  22.025 -0.0139 -0.0873 -0.1566
77307W        W20219  15.843  26.116  21.618  0.4076  0.1658 -0.4230
77308W        W20220  18.195  23.983  21.725 -0.3869  0.0221 -0.1320
77309W        W20221  14.404  25.786  21.922 -0.0847 -0.0362 -0.0486
77310W        W20222  13.684  25.937  21.656  0.2276 -0.1954 -0.1205
77311W        W20223  16.884  25.422  20.842 -0.1197 -0.0445  0.1126
77312W        W20224  17.451  25.650  21.199  0.2813 -0.2515 -0.0010
77313W        W20225  17.489  25.739  22.040 -0.1805 -0.1240 -0.0680
77314W        W20226  15.288  26.749  22.165  0.5387  0.0722 -0.2688
77315W        W20227  13.863  25.235  20.226  0.2167  0.1879  0.0844
77316W        W20228  16.830  25.143  22.277 -0.1579  0.1855  0.2891
77317W        W20229  14.942  25.511  20.852  0.2106 -0.2580 -0.0373
77318W        W20230  17.374  22.844  21.935 -0.1303 -0.1117  0.0402
77319W        W20231  16.410  23.559  19.465  0.2404  0.3580  0.0680
77320W        W20232  16.276  25.587  19.915 -0.0126 -0.0179 -0.0071
77321W        W20233  16.400  24.536  21.322  0.1685  0.2726  0.0007
77322W        W20234  13.780  24.608  23.770  0.1375  0.1756  0.1093
77323W        W20235  14.664  24.772  21.339  0.0005 -0.1046 -0.0841
77324W        W20236  18.537  24.086  22.660  0.1602  0.0912  0.0226
77325W        W20237  14.343  25.996  19.783  0.0389  0.0208 -0.1172
77326W        W20238  17.743  24.331  18.112  0.1274  0.1871 -0.2540
77327W        W20239  15.396  22.501  18.162  0.0785 -0.0806 -0.1949
77328W        W20240  17.501  22.182  19.502 -0.0399  0.2342 -0.1249
77329W        W20241  15.880  21.660  21.100  0.3114 -0.1883  0.4945
77330W        W20242  15.118  25.377  22.230  0.0127 -0.1767  0.1417
77331W        W20243  15.078  23.103  21.223  0.0562  0.0390 -0.1453
77332W        W20244  19.801  24.788  23.090  0.1226 -0.2072  0.0271
77333W        W20245  15.603  24.629  20.068 -0.2954 -0.0180  0.2577
77334W        W20246  17.406  22.990  21.154 -0.0606  0.3609  0.0971
77335W        W20247  15.017  24.803  22.310  0.1134  0.2996  0.0768
77336W        W20248  14.246  24.406  21.297 -0.0289  0.2310  0.0653
77337W        W20249  17.591  25.603  19.889 -0.0695 -0.0070  0.1559
77338W        W20250  18.101  25.091  22.030  0.0585 -0.1193 -0.1390
77339W        W20251  16.517  25.078  20.563 -0.0199  0.4100  0.3124
77340W        W20252  15.912  24.915  22.102 -0.2269  0.1912  0.2041
77341W        W20253  14.023  24.564  22.422  0.1127  0.1801 -0.0364
77342W        W20254  14.219  23.999  23.299 -0.0672 -0.0556 -0.1888
77343W        W20255  14.807  24.190  20.091  0.0630  0.0863  0.2473
77344W        W20256  18.162  25.467  22.934  0.0093  0.0315 -0.2027
77345W        W20257  12.828  25.745  22.998 -0.2907  0.1592  0.1872
77346W        W20258  16.375  21.993  20.184 -0.0699 -0.1146  0.2340
77347W        W20259  16.582  24.580  20.844  0.2912 -0.1407  0.1091
77348W        W20260  17.019  23.768  22.608  0.1587  0.1694  0.2787
77349W        W20261  15.774  25.225  19.763 -0.1979 -0.1707 -0.1350
77350W        W20262  19.107  21.895  20.257 -0.1172  0.0093 -0.2018
77351W        W20263  18.157  22.298  20.027  0.1618 -0.0250 -0.3534
77352W        W20264  15.437  24.693  19.498  0.0528  0.3787  0.4426
77353W        W20265  15.709  25.745  20.650 -0.0865  0.2363  0.3482
77354W        W20266  19.370  25.923  23.062 -0.2438  0.3257 -0.3549
77355W        W20267  17.679  24.817  19.865  0.0640 -0.0361  0.0118
77356W        W20268  15.809  25.195  22.528 -0.2360  0.0670  0.0327
77357W        W20269  15.903  24.352  22.060  0.0756  0.1419 -0.2848
77358W        W20270  16.991  25.580  23.220  0.2575 -0.3257 -0.0596
77359W        W20271  14.691  25.981  19.419  0.0211  0.1246  0.1869
77360W        W20272  13.755  24.781  21.454  0.0472 -0.1971  0.1086
77361W        W20273  15.547  24.210  19.769  0.0258  0.2373  0.3526
77362W        W20274  15.292  22.723  23.566  0.4174 -0.2247  0.3381
77363W        W20275  15.365  24.745  20.497  0.3207  0.0358 -0.1514
77364W        W20276  15.985  22.760  19.901  0.0846  0.3264  0.0032
77365W        W20277  14.897  22.960  22.647  0.1985 -0.2087  0.2882
77366W        W20278  17.581  24.300  20.053  0.0168  0.4407  0.1342
77367W        W20279  15.482  25.586  21.198  0.0198  0.1661  0.1077
77368W        W20280  18.605  26.618  21.571 -0.1658 -0.3014  0.1293
77369W        W20281  17.142  22.880  20.762  0.0836  0.3090 -0.0063
77370W        W20282  16.749  25.436  19.836 -0.0812  0.1586 -0.1406
77371W        W20283  14.370  22.635  21.201 -0.2309  0.1186  0.1372
77372W        W20284  14.139  23.860  20.405 -0.0479 -0.0527  0.2817
77373W        W20285  16.925  22.540  21.945  0.0438 -0.2285 -0.0949
77374W        W20286  14.666  21.561  23.455  0.1711  0.1935 -0.0280
77375W        W20287  18.208  24.253  22.354  0.0366  0.2460 -0.2631
77376W        W20288  14.585  22.382  20.776  0.1290 -0.0871  0.1094
77377W        W20289  17.709  23.386  19.666  0.2168 -0.3781 -0.2030
77378W        W20290  15.383  23.779  19.428  0.1870  0.1212 -0.0409
77379W        W20291  13.364  24.682  20.878 -0.3649  0.1213 -0.0923
77380W        W20292  19.627  22.385  22.405 -0.1306  0.1977  0.0125
77381W        W20293  14.647  25.439  20.375 -0.2298  0.0157 -0.2787
77382W        W20294  17.374  24.290  23.534 -0.0122 -0.1313 -0.0769
77383W        W20295  16.768  24.947  21.688  0.2162 -0.0643  0.2022
77384W        W20296  15.018  22.897  22.064 -0.2343 -0.0478  0.1135
77385W        W20297  16.416  23.079  18.910  0.0600  0.3002  0.0937
77386W        W20298  14.096  25.592  21.604  0.0834  0.3128  0.2443
77387W        W20299  15.023  25.822  21.236  0.1140  0.0231  0.3577
77388W        W20300  14.726  21.840  18.274 -0.4288  0.0522 -0.0551
77389W        W20301  16.990  25.723  22.089  0.2036 -0.5066 -0.1952
77390W        W20302  16.250  25.142  20.158  0.1374  0.0010 -0.3044
77391W        W20303  15.275  24.794  23.116 -0.2256  0.0470 -0.4043
77392W        W20304  15.859  24.409  20.659 -0.3611  0.4290 -0.0935
77393W        W20305  18.078  24.478  21.907 -0.0702  0.0872  0.0187
77394W        W20306  16.310  24.118  20.466 -0.2840  0.0908  0.1732
77395W        W20307  14.450  23.808  19.988 -0.0666 -0.1006 -0.0768
77396W        W20308  16.881  24.071  20.295 -0.2373 -0.1798  0.1696
77397W        W20309  14.275  25.463  19.861 -0.0293 -0.0702 -0.3029
77398W        W20310  13.752  24.007  23.173 -0.0978 -0.0033  0.0424
77399W        W20311  16.291  24.749  21.799 -0.0281  0.2870  0.0367
77400W        W20312  16.940  23.627  19.644  0.1606  0.2105 -0.2065
77401W        W20313  14.907  23.608  23.639  0.0326  0.0234  0.3811
77402W        W20314  16.593  24.052  21.458  0.0051  0.2517 -0.2948
77403W        W20315  14.817  23.360  20.798 -0.2141 -0.1335  0.0371
77404W        W20316  14.424  25.626  22.943 -0.0641  0.2956 -0.0446
77405W        W20317  15.589  23.760  19.910  0.2550  0.1802 -0.1651
77406W        W20318  18.781  22.370  18.330 -0.0955  0.0013 -0.0201
77407W        W20319  17.247  25.669  22.670 -0.4394 -0.2183  0.3126
77408W        W20320  18.003  24.327  21.385  0.0072 -0.1506  0.0377
77409W        W20321  17.221  23.480  18.793 -0.1491 -0.0726 -0.2546
77410W        W20322  17.405  21.700  17.902  0.0400  0.0512  0.0718
77411W        W20323  13.473  23.522  23.072 -0.5610  0.0534 -0.2896
77412W        W20324  17.372  24.978  20.295  0.0721  0.2892 -0.1337
77413W        W20325  15.924  24.496  21.212 -0.3063 -0.1057 -0.1722
77414W        W20326  15.427  23.803  18.538  0.0163 -0.2861  0.0466
77415W        W20327  17.623  25.426  20.467 -0.1874 -0.2786 -0.0343
77416W        W20328  13.299  25.217  21.392 -0.2251 -0.0564 -0.3034
77417W        W20329  16.147  24.527  22.568  0.1827 -0.0971  0.0880
77418W        W20330  17.731  25.232  21.219 -0.0916  0.1928 -0.4188
77419W        W20331  18.235  22.745  20.686 -0.0609 -0.2684 -0.3564
77420W        W20332  16.074  23.297  19.750 -0.1389  0.3537  0.0857
77421W        W20333  15.643  23.099  19.979  0.1634  0.2238  0.0811
77422W        W20334  15.550  25.645  19.880  0.1744 -0.4024 -0.1390
77423W        W20335  16.921  23.294  21.065  0.1461  0.1307 -0.0890
77424W        W20336  16.826  23.670  20.719  0.3859 -0.1487 -0.2739
77425W        W20337  16.606  23.837  21.951 -0.0194 -0.1132  0.3548
77426W        W20338  18.498  24.088  23.528 -0.2673 -0.1243  0.1757
77427W        W20339  15.943  23.731  19.484 -0.1173 -0.2686 -0.4722
77428W        W20340  17.029  24.056  21.840 -0.0390 -0.0219  0.0666
77429W        W20341  14.199  25.494  18.466 -0.0510  0.0481 -0.0699
77430W        W20342  16.096  22.418  21.549 -0.5292  0.2548  0.1987
77431W        W20343  14.775  24.956  23.915 -0.0236  0.0192 -0.1294
77432W        W20344  13.861  24.836  21.967 -0.2963 -0.0784 -0.0015
77433W        W20345  16.400  26.182  23.294 -0.2987 -0.1809 -0.1126
77434W        W20346  16.457  25.816  21.009 -0.3774 -0.0433 -0.1283
77435W        W20347  17.839  23.671  21.957  0.0002 -0.2726 -0.0135
77436W        W20348  15.582  22.045  19.938  0.0860 -0.2400  0.3726
77437W        W20349  14.929  25.565  21.637 -0.0312 -0.1811  0.0431
77438W        W20350  14.966  25.893  20.590 -0.0118 -0.2645  0.1017
77439W        W20351  16.561  21.602  19.333 -0.0584  0.1036 -0.2024
77440W        W20352  16.731  24.460  21.788  0.1643 -0.0268  0.1724
77441W        W20353  15.415  25.293  20.604 -0.1548 -0.0892 -0.0625
77442W        W20354  16.663  24.339  22.983 -0.3087 -0.3050  0.2835
77443W        W20355  15.267  24.837  21.483 -0.0219  0.2367  0.2096
77444W        W20356  18.503  22.769  19.265  0.1558  0.0809  0.1259
77445W        W20357  14.389  24.659  20.771 -0.0940  0.0235 -0.2235
77446W        W20358  15.160  23.344  18.450 -0.0688  0.0509  0.2774
77447W        W20359  14.469  23.526  21.524  0.0081 -0.2975 -0.0416
77448W        W20360  17.952  22.077  19.582  0.0532 -0.3184 -0.0753
77449W        W20361  18.338  24.422  20.096  0.1428 -0.2229  0.3516
77450W        W20362  14.523  21.552  21.030  0.2558  0.1353  0.0578
77451W        W20363  15.979  22.251  21.086  0.2004  0.1251 -0.0535
77452W        W20364  14.168  24.201  22.723  0.0543  0.1528  0.1153
77453W        W20365  17.188  24.046  19.816  0.3197  0.0375  0.1748
77454W        W20366  17.765  23.243  18.784 -0.3650  0.0429  0.2261
77455W        W20367  16.752  25.413  21.831  0.0330  0.0303  0.2635
77456W        W20368  15.286  25.234  23.788 -0.0780  0.0892 -0.3854
77457W        W20369  16.299  24.023  19.346 -0.4427  0.4338 -0.0877
77458W        W20370  19.766  22.256  21.868  0.0058 -0.0305  0.0150
77459W        W20371  14.984  23.738  20.342  0.2133  0.3936  0.2145
77460W        W20372  14.292  23.634  22.014  0.1667 -0.2921 -0.0484
77461W        W20373  17.550  26.052  22.437  0.0429 -0.1535 -0.0018
77462W        W20374  15.578  22.591  20.190 -0.0462 -0.1332  0.0716
77463W        W20375  16.628  24.255  22.475 -0.4939  0.1385  0.1160
77464W        W20376  15.802  23.623  21.623 -0.2423 -0.0875 -0.0252
77465W        W20377  18.030  24.736  22.359 -0.2499 -0.2177 -0.2028
77466W        W20378  15.962  22.743  20.424  0.3405 -0.0212 -0.0508
77467W        W20379  15.180  24.317  20.703 -0.2252 -0.0887 -0.0860
77468W        W20380  15.148  24.093  21.205  0.3952 -0.0581  0.1912
77469W        W20381  17.149  24.749  21.432  0.0225 -0.1430  0.0242
77470W        W20382  15.439  23.303  21.555  0.1508  0.0967  0.0167
77471W        W20383  13.344  23.024  24.105 -0.0523 -0.0200 -0.0081
77472W        W20384  16.378  22.551  20.186 -0.2218 -0.1572  0.2248
77473W        W20385  18.222  25.357  21.325 -0.2791 -0.1660 -0.0033
77474W        W20386  18.532  24.692  22.102 -0.0422 -0.2096  0.0452
77475W        W20387  15.190  24.753  18.981  0.0602  0.1698  0.1394
77476W        W20388  13.566  23.427  22.561  0.0211 -0.0763  0.1095
77477W        W20389  15.676  24.738  21.732 -0.0383 -0.3081 -0.2905
77478W        W20390  15.773  23.202  20.515 -0.2724 -0.4709 -0.0088
77479W        W20391  14.919  24.943  21.806  0.2355 -0.2333  0.0070
77480W        W20392  14.679  25.362  22.066 -0.1876 -0.1773 -0.3113
77481W        W20393  14.739  25.060  23.347  0.1220  0.0040  0.1939
77482W        W20394  17.979  21.988  18.764  0.1896  0.2099  0.3928
77483W        W20395  15.930  24.836  19.457  0.1890  0.1662  0.2600
77484W        W20396  16.313  23.159  20.810 -0.3841 -0.2368 -0.1128
77485W        W20397  18.084  23.244  20.610 -0.1316  0.1008 -0.0059
77486W        W20398  15.729  24.152  19.270 -0.0901  0.0772 -0.1705
77487W        W20399  16.915  23.407  22.263  0.0192 -0.0404 -0.3543
77488W        W20400  15.634  22.467  20.747 -0.0536  0.1380  0.0439
77489W        W20401  18.678  24.848  20.696  0.1367 -0.0887  0.0286
77490W        W20402  15.039  22.474  22.924  0.0002 -0.0653 -0.1893
77491W        W20403  17.249  25.224  22.473  0.3111 -0.0049 -0.1624
77492W        W20404  15.871  23.970  23.837 -0.1208  0.0236 -0.0018
77493W        W20405  15.765  23.777  18.909 -0.0755 -0.1260  0.0543
77494W        W20406  14.774  24.147  19.568 -0.0322 -0.1745 -0.1357
77495W        W20407  16.878  23.561  21.565 -0.0717  0.0281  0.1222
77496W        W20408  17.416  26.232  23.437  0.0586 -0.0618 -0.1000
77497W        W20409  15.599  25.201  18.353 -0.2706 -0.1027  0.1179
77498W        W20410  18.030  24.252  18.770  0.0623  0.0315 -0.3262
77499W        W20411  16.145  25.610  22.476 -0.1448 -0.0692  0.1348
77500W        W20412  17.569  23.930  18.724  0.1091  0.1795 -0.0365
77501W        W20413  17.204  24.632  19.896  0.1110  0.0723  0.1007
77502W        W20414  15.271  24.131  20.250 -0.0371  0.1898  0.2134
77503W        W20415  15.629  23.877  22.043  0.2438  0.2542 -0.0994
77504W        W20416  18.517  24.400  23.992  0.1562  0.0450 -0.0688
77505W        W20417  15.781  24.974  21.288 -0.0085  0.1008 -0.1391
77506W        W20418  16.502  23.615  21.156  0.0166  0.1704  0.1227
77507W        W20419  17.292  23.777  22.158  0.1171 -0.3343  0.1460
77508W        W20420  15.505  24.276  21.487 -0.2278  0.0912 -0.3069
77509W        W20421  14.506  21.775  22.120  0.0152 -0.0722  0.0340
77510W        W20422  16.493  25.777  22.051  0.0193 -0.1610  0.0092
77511W        W20423  17.681  23.075  19.271  0.0245  0.0086  0.0562
77512W        W20424  17.526  24.920  21.772  0.1368  0.1049 -0.1840
77513W        W20425  17.644  24.252  20.725 -0.2707  0.0414  0.1492
77514W        W20426  17.063  25.327  20.372 -0.0755 -0.3298 -0.0210
77515W        W20427  14.852  22.824  20.806 -0.1174 -0.4709 -0.0412
77516W        W20428  16.087  24.125  21.587 -0.1058  0.0503  0.0888
77517W        W20429  16.379  23.824  18.097 -0.1839 -0.1107  0.0914
77518W        W20430  17.130  23.049  22.538  0.2203  0.3270 -0.0417
77519W        W20431  17.243  25.714  20.618  0.0875 -0.1459 -0.1057
77520W        W20432  16.734  24.964  20.109 -0.2722 -0.0577 -0.4232
77521W        W20433  16.527  23.140  21.334 -0.1356  0.0567 -0.4024
77522W        W20434  14.254  22.818  22.604 -0.1502  0.3058  0.0602
77523W        W20435  14.702  23.591  22.331  0.2489 -0.0662  0.1163
77524W        W20436  14.085  23.614  18.569 -0.3202 -0.0515 -0.1564
77525W        W20437  14.866  26.345  20.243 -0.0152 -0.0402 -0.5188
77526W        W20438  16.772  24.915  21.162  0.1185 -0.1570 -0.4145
77527W        W20439  17.936  24.422  22.752 -0.1871  0.0655 -0.2840
77528W        W20440  17.744  23.576  19.133  0.0162 -0.1023 -0.0281
77529W        W20441  17.722  24.174  22.243 -0.1839 -0.0544 -0.3748
77530W        W20442  14.946  24.971  20.150 -0.1250  0.0032  0.1985
77531W        W20443  17.228  23.448  20.576 -0.4195 -0.3176  0.1666
77532W        W20444  15.197  25.279  23.258 -0.0607  0.1179 -0.4053
77533W        W20445  15.183  22.461  22.193 -0.0696  0.2093 -0.0631
77534W        W20446  15.389  25.095  21.069 -0.1705 -0.0940 -0.1562
77535W        W20447  17.011  22.381  21.038 -0.3059 -0.0194 -0.0747
77536W        W20448  15.448  24.601  21.037 -0.2867  0.3238  0.1200
77537W        W20449  16.393  25.297  21.018  0.1214 -0.0550  0.0585
77538W        W20450  18.459  24.604  22.602 -0.0871 -0.2184 -0.0261
77539W        W20451  17.263  24.962  22.935  0.0034  0.0462 -0.0538
77540W        W20452  15.390  25.108  20.093  0.1249  0.1349  0.3864
77541W        W20453  16.705  23.796  22.948  0.1541  0.0166  0.2376
77542W        W20454  19.410  25.170  20.574  0.2516  0.1947 -0.0780
77543W        W20455  15.308  25.114  22.629  0.0071 -0.1046 -0.1209
77544W        W20456  14.858  22.065  22.588 -0.0903  0.0235 -0.4103
77545W        W20457  18.291  25.534  22.249 -0.2200 -0.1054 -0.0201
77546W        W20458  16.525  24.100  20.921 -0.0016  0.2630 -0.1129
77547W        W20459  14.836  23.183  20.299 -0.0372 -0.1996  0.3508
77548W        W20460  15.909  25.241  20.831  0.0726 -0.2951  0.3412
77549W        W20461  15.034  25.131  24.690 -0.1858 -0.0044 -0.1540
77550W        W20462  15.176  23.890  21.675 -0.2459 -0.0134  0.0282
77551W        W20463  14.903  26.944  21.437  0.2649  0.0692 -0.1250
77552W        W20464  17.469  24.950  19.448 -0.4311  0.0211  0.3547
77553W        W20465  16.763  24.548  20.404 -0.1909  0.0896 -0.0533
77554W        W20466  17.186  25.254  21.950  0.0146  0.2739  0.1771
77555W        W20467  15.992  24.293  20.149 -0.1675  0.1666  0.1685
77556W        W20468  14.500  25.172  21.582  0.0630  0.3723 -0.0430
77557W        W20469  14.265  25.624  19.436 -0.0920  0.0517 -0.0348
77558W        W20470  17.989  26.702  20.388 -0.0189  0.1561  0.4238
77559W        W20471  15.730  27.196  20.570  0.5567  0.1212 -0.0029
77560W        W20472  18.254  24.660  23.603  0.4815  0.4640 -0.0617
77561W        W20473  17.291  23.440  17.539  0.2704 -0.0550  0.1961
77562W        W20474  18.083  25.162  22.574 -0.0902  0.0846 -0.2032
77563W        W20475  17.253  23.053  19.022  0.1276 -0.4417  0.1306
77564W        W20476  17.462  25.420  23.073 -0.1508 -0.1585 -0.2812
77565W        W20477  15.383  23.384  20.881 -0.0874 -0.2285 -0.2361
77566W        W20478  14.919  22.018  18.881  0.1343 -0.0162  0.0727
77567W        W20479  15.603  22.935  21.841 -0.0371 -0.1931  0.2396
77568W        W20480  19.092  24.024  23.457  0.0656  0.2553  0.2313
77569W        W20481  15.627  25.639  23.366 -0.1172 -0.1615 -0.2196
77570W        W20482  17.437  24.072  21.266 -0.0112  0.0320 -0.0693
77571W        W20483  14.703  24.074  20.584 -0.0363 -0.0523  0.0720
77572W        W20484  16.150  24.810  20.848  0.2474 -0.2232  0.1963
77573W        W20485  17.969  22.831  20.258 -0.1441  0.0819 -0.1131
77574W        W20486  15.592  25.120  19.169 -0.2355  0.3214 -0.3276
77575W        W20487  16.247  24.685  20.373  0.5335  0.0264 -0.1207
77576W        W20488  16.173  26.063  20.722 -0.3330 -0.1642 -0.2954
77577W        W20489  15.795  24.110  22.518 -0.1050 -0.4326  0.4026
77578W        W20490  15.053  24.700  23.593  0.0240 -0.0343 -0.3746
77579W        W20491  14.014  22.943  19.338 -0.0734  0.1286 -0.1990
77580W        W20492  17.097  23.113  20.129 -0.1104  0.0654 -0.1371
77581W        W20493  15.460  23.785  22.713  0.0754  0.1542  0.1336
77582W        W20494  17.610  23.095  20.727  0.1705  0.0868 -0.0870
77583W        W20495  14.611  24.084  21.343 -0.1375  0.0136  0.2013
77584W        W20496  17.812  23.713  20.059  0.3136 -0.0764  0.0599
77585W        W20497  16.846  25.294  22.807 -0.1045 -0.0227 -0.0709
77586W        W20498  13.783  22.515  22.619 -0.4350 -0.2357  0.2653
77587W        W20499  16.730  24.165  19.637 -0.0251  0.0323 -0.2797
77588W        W20500  17.683  23.723  23.564  0.1453  0.2296  0.1025
77589W        W20501  16.314  23.216  17.329 -0.0321 -0.2360  0.2333
77590W        W20502  16.536  25.128  23.185  0.1438  0.3598  0.1553
77591W        W20503  15.219  22.725  21.570 -0.2035  0.1021  0.0875
77592W        W20504  16.148  24.231  18.974 -0.0889 -0.0877  0.1534
77593W        W20505  14.978  24.380  21.599 -0.0220  0.4196  0.4442
77594W        W20506  15.230  25.821  23.584 -0.0265 -0.0788  0.0392
77595W        W20507  17.705  26.134  21.716 -0.0047  0.2068  0.3088
77596W        W20508  14.213  24.239  20.731 -0.3113 -0.0677 -0.0502
77597W        W20509  16.917  25.779  19.009 -0.1073  0.1243  0.0752
77598W        W20510  18.193  24.511  20.671  0.2619  0.5003 -0.0608
77599W        W20511  15.355  25.955  20.902 -0.0639 -0.2097 -0.1508
77600W        W20512  17.340  23.508  20.038  0.0127  0.1667  0.0710
77601W        W20513  15.729  25.256  21.708  0.0780  0.1185 -0.1401
77602W        W20514  13.236  22.724  22.126  0.1815  0.0024 -0.1284
77603W        W20515  17.183  26.111  21.839  0.0720  0.2197 -0.0477
77604W        W20516  18.132  24.784  21.501  0.0353  0.0703 -0.0137
77605W        W20517  16.552  23.365  19.909 -0.3107 -0.0989 -0.1507
77606W        W20518  14.823  24.574  20.476  0.0263  0.0208 -0.0925
77607W        W20519  14.536  26.592  21.498 -0.1287  0.1182  0.0676
77608W        W20520  18.437  23.033  20.337  0.0907  0.2803  0.1671
77609W        W20521  17.702  23.260  21.538  0.0059  0.0300  0.1041
77610W        W20522  15.247  25.221  19.585  0.1460  0.0313  0.2877
77611W        W20523  18.403  22.542  21.102  0.1311 -0.2853 -0.3407
77612W        W20524  17.647  24.916  22.637  0.1257 -0.1172 -0.0456
77613W        W20525  14.710  27.120  22.638 -0.3206  0.0873 -0.1488
77614W        W20526  15.155  24.517  19.898  0.2461 -0.0407  0.1786
77615W        W20527  15.534  22.771  22.328  0.2784 -0.4262  0.0854
77616W        W20528  15.002  24.810  20.916  0.2265  0.1753 -0.1831
77617W        W20529  15.812  26.527  22.044 -0.3167  0.2650  0.1518
77618W        W20530  17.068  24.749  22.043  0.4356  0.4023 -0.1365
77619W        W20531  17.337  22.672  20.373 -0.1215 -0.2524 -0.2308
77620W        W20532  16.769  25.912  21.658  0.1686 -0.3953 -0.1417
77621W        W20533  15.545  22.595  19.654  0.0150 -0.0523 -0.2263
77622W        W20534  18.865  22.725  18.808  0.2860  0.1406 -0.0319
77623W        W20535  16.798  22.706  19.173 -0.3383  0.0517 -0.2060
77624W        W20536  14.203  23.980  21.683 -0.0862 -0.2049  0.2549
77625W        W20537  13.759  23.435  19.422  0.3411  0.1661 -0.0153
77626W        W20538  14.719  26.180  20.978 -0.2002 -0.0294 -0.1859
77627W        W20539  14.687  23.874  21.832 -0.3428  0.1470  0.0414
77628W        W20540  17.982  23.254  21.146  0.1438 -0.2233 -0.0863
77629W        W20541  15.838  23.487  22.893 -0.3664  0.0617  0.2474
77630W        W20542  13.750  23.757  21.726  0.2818 -0.1336 -0.3768
77631W        W20543  13.947  23.910  19.915 -0.1702  0.0159  0.1654
77632W        W20544  17.948  25.830  21.300  0.2179 -0.1713  0.0797
77633W        W20545  15.279  23.074  20.493  0.0540 -0.1152 -0.1280
77634W        W20546  14.382  23.072  20.605  0.0403 -0.0762  0.1824
77635W        W20547  17.282  24.593  21.006  0.2012  0.3206  0.0904
77636W        W20548  17.360  23.960  20.420 -0.3472 -0.2233  0.0797
77637W        W20549  16.271  23.677  18.968  0.0669 -0.0313 -0.0568
77638W        W20550  18.472  26.060  22.723 -0.0176 -0.2540  0.0298
77639W        W20551  15.715  24.595  19.067  0.2984  0.0318 -0.1119
77640W        W20552  15.412  25.032  22.054 -0.0276 -0.1128  0.0459
77641W        W20553  16.059  23.977  21.084  0.0767  0.1982  0.0581
77642W        W20554  13.402  22.524  19.963 -0.2027 -0.2815  0.1701
77643W        W20555  16.017  23.623  20.707 -0.1375 -0.0989 -0.0804
77644W        W20556  17.390  26.153  21.357 -0.0232 -0.0250 -0.3758
77645W        W20557  16.563  25.996  20.039 -0.1572  0.1258 -0.0495
77646W        W20558  16.899  24.324  21.207  0.0594 -0.2029 -0.0011
77647W        W20559  14.277  24.965  24.064 -0.0791 -0.1643  0.0821
77648W        W20560  13.994  21.731  21.983 -0.1570  0.2253 -0.0775
77649W        W20561  18.489  24.583  21.117 -0.1007 -0.2229 -0.3268
77650W        W20562  13.779  24.914  24.326  0.1182 -0.0986  0.0615
77651W        W20563  18.898  25.858  20.390  0.0121  0.2116 -0.0668
77652W        W20564  18.416  21.897  19.732 -0.0717 -0.2172  0.1103
77653W        W20565  15.584  23.986  20.794 -0.2186  0.1804  0.0658
77654W        W20566  15.665  21.905  22.936 -0.1406  0.1758  0.1542
77655W        W20567  14.612  24.085  22.460  0.1215 -0.1100 -0.2994
77656W        W20568  17.678  25.466  22.471 -0.0472  0.1869 -0.1453
77657W        W20569  15.694  22.874  21.360 -0.1399 -0.0048  0.2173
77658W        W20570  16.452  22.427  19.569  0.2901  0.0022 -0.3224
77659W        W20571  16.948  25.901  21.182  0.2313  0.0445  0.0048
77660W        W20572  14.432  25.001  20.121 -0.2553  0.1310 -0.0684
77661W        W20573  16.474  24.381  20.013 -0.0426 -0.0740 -0.0266
77662W        W20574  17.455  22.460  20.823 -0.1010  0.2670 -0.0251
77663W        W20575  17.014  23.820  21.163 -0.0122  0.1799  0.1189
77664W        W20576  16.157  23.938  22.768 -0.0898 -0.2690  0.2364
77665W        W20577  15.892  23.548  20.204  0.2309  0.1836  0.0479
77666W        W20578  17.989  24.140  20.341  0.2372 -0.0010 -0.1977
77667W        W20579  16.391  26.269  21.416 -0.1336  0.0672  0.1279
77668W        W20580  17.038  26.630  23.671  0.0947 -0.4779 -0.0020
77669W        W20581  17.562  24.762  23.433 -0.1459 -0.1259 -0.3362
77670W        W20582  17.726  23.705  20.599  0.0911  0.1998 -0.1462
77671W        W20583  14.604  22.334  21.612  0.0734  0.2606 -0.1097
77672W        W20584  14.136  25.256  21.212 -0.4050  0.0565  0.0421
77673W        W20585  15.818  24.965  20.434 -0.1430  0.1588  0.2765
77674W        W20586  17.147  24.258  22.282  0.0608 -0.0340 -0.0629
77675W        W20587  15.468  21.925  21.038  0.1053 -0.0485 -0.0939
77676W        W20588  16.321  23.865  19.848  0.0028  0.2389 -0.0786
77677W        W20589  16.058  26.027  22.244 -0.3524  0.1019  0.0528
77678W        W20590  16.380  23.631  20.384 -0.1832 -0.0260  0.1772
77679W        W20591  14.123  24.486  23.395  0.0600 -0.0002  0.1300
77680W        W20592  14.774  22.519  22.480  0.1268 -0.2411  0.0330
77681W        W20593  18.958  24.220  23.029  0.3393  0.1283 -0.0402
77682W        W20594  16.304  23.448  22.728 -0.0943 -0.0043 -0.1164
77683W        W20595  14.385  22.362  23.477  0.1630 -0.0239 -0.1213
77684W        W20596  17.468  24.518  23.010  0.0042  0.1046  0.0194
77685W        W20597  15.445  22.421  24.958  0.0032 -0.0820 -0.2363
77686W        W20598  17.029  24.696  23.746  0.3077 -0.2594  0.0705
77687W        W20599  16.468  24.106  25.995  0.0032  0.2359  0.1042
77688W        W20600  16.393  24.256  22.058  0.0141  0.0635  0.0072
77689W        W20601  17.078  22.717  24.468  0.1659 -0.0005 -0.2969
77690W        W20602  16.235  23.638  25.120 -0.1110 -0.2159  0.0467
77691W        W20603  15.673  22.763  23.279  0.1811 -0.0064 -0.3312
77692W        W20604  13.531  21.866  24.830 -0.5261 -0.0325 -0.0418
77693W        W20605  16.916  23.417  25.029  0.0203  0.2831 -0.3992
77694W        W20606  14.302  22.771  23.851 -0.0017 -0.2437 -0.2374
77695W        W20607  14.464  21.933  24.595  0.0769  0.1976 -0.1381
77696W        W20608  16.424  22.948  22.750 -0.0447 -0.1112  0.1552
77697W        W20609  17.477  25.270  23.657  0.4301 -0.1362 -0.0813
77698W        W20610  17.222  21.335  23.747 -0.1030  0.0086  0.2774
77699W        W20611  17.080  22.509  25.549 -0.0864 -0.2243 -0.4127
77700W        W20612  15.899  24.798  24.285 -0.0253  0.1622  0.0421
77701W        W20613  15.080  23.899  22.218  0.2233  0.1504  0.1079
77702W        W20614  14.975  22.941  25.259  0.3140  0.2318 -0.0670
77703W        W20615  13.891  23.296  26.108 -0.0269 -0.1916  0.1826
77704W        W20616  17.879  22.031  24.049  0.0505 -0.0924  0.1753
77705W        W20617  17.612  23.547  25.712  0.0162 -0.2130 -0.1502
77706W        W20618  16.518  25.820  23.657 -0.1893  0.1105 -0.0973
77707W        W20619  15.546  26.281  23.567 -0.2074  0.2234 -0.0904
77708W        W20620  16.853  21.810  27.121 -0.0142 -0.1057  0.1397
77709W        W20621  14.024  24.326  24.812  0.0478 -0.0024  0.0350
77710W        W20622  15.098  25.959  25.051 -0.0503 -0.1155  0.0743
77711W        W20623  14.235  24.557  24.389  0.0597  0.0050  0.1034
77712W        W20624  17.377  24.907  24.154 -0.0910  0.3321 -0.2305
77713W        W20625  16.747  24.461  25.239 -0.0657 -0.0807 -0.1217
77714W        W20626  15.966  24.030  26.240 -0.2640  0.2516 -0.0084
77715W        W20627  13.831  23.324  24.277  0.1463  0.0945 -0.1082
77716W        W20628  16.427  26.507  25.209  0.1622 -0.0444 -0.1939
77717W        W20629  15.416  24.134  25.949 -0.0097 -0.0443  0.0305
77718W        W20630  17.649  22.642  23.263 -0.1075  0.1468  0.1200
77719W        W20631  17.719  23.917  23.071 -0.2027 -0.3297 -0.2899
77720W        W20632  14.677  24.234  24.251  0.0280 -0.2455  0.1166
77721W        W20633  15.541  24.394  24.937  0.0324  0.1221 -0.2167
77722W        W20634  16.546  24.358  27.434  0.1284  0.0198  0.1882
77723W        W20635  14.599  23.727  26.474 -0.1964 -0.0859 -0.0029
77724W        W20636  19.431  22.772  25.387  0.0842  0.1537  0.1867
77725W        W20637  14.281  24.362  23.853  0.1509  0.0689  0.2412
77726W        W20638  15.678  25.140  23.460 -0.2902 -0.0322 -0.1371
77727W        W20639  15.001  23.648  21.283 -0.2671  0.0113  0.2564
77728W        W20640  18.785  22.746  21.577  0.2445 -0.1674 -0.4134
77729W        W20641  14.744  22.101  23.833  0.1644  0.0777 -0.0966
77730W        W20642  14.841  25.779  24.340  0.0472 -0.0596 -0.1036
77731W        W20643  16.307  22.655  24.047 -0.0832  0.4085 -0.1610
77732W        W20644  16.693  24.900  25.438 -0.0549 -0.2080 -0.2660
77733W        W20645  15.913  24.367  24.581  0.0246 -0.1208 -0.2827
77734W        W20646  18.507  22.654  23.764 -0.2233  0.2206 -0.1654
77735W        W20647  15.690  24.091  25.371 -0.0363  0.0946  0.0215
77736W        W20648  15.409  22.524  25.515 -0.0405 -0.0208  0.2676
77737W        W20649  17.852  25.046  23.917 -0.1390 -0.2810 -0.0891
77738W        W20650  18.832  25.503  25.144 -0.0680 -0.0647  0.1814
77739W        W20651  16.844  26.992  22.756  0.0242 -0.2569  0.0226
77740W        W20652  16.301  22.694  23.150  0.2626  0.0624  0.1689
77741W        W20653  15.142  24.538  26.258  0.1791  0.1442 -0.0682
77742W        W20654  16.078  24.548  26.697 -0.0186  0.0883 -0.1973
77743W        W20655  15.086  21.720  22.930  0.0963 -0.2305 -0.1360
77744W        W20656  17.266  24.506  25.821  0.1471  0.0942  0.2374
77745W        W20657  14.076  26.112  25.483 -0.0528 -0.1056  0.0949
77746W        W20658  18.090  22.979  24.609  0.1795  0.1691  0.1316
77747W        W20659  14.968  24.289  24.883  0.1778 -0.4545 -0.3689
77748W        W20660  17.125  23.750  25.409  0.0900  0.6273 -0.2204
77749W        W20661  18.814  24.545  23.463  0.1751  0.1356  0.1231
77750W        W20662  18.062  23.485  23.814 -0.0600  0.0098 -0.1380
77751W        W20663  18.146  23.015  23.607  0.0572  0.1597 -0.1598
77752W        W20664  15.670  24.533  23.370 -0.2134 -0.1702  0.1039
77753W        W20665  16.353  23.727  23.746 -0.0598 -0.0984  0.0526
77754W        W20666  17.170  23.960  27.080  0.1240  0.1643 -0.0779
77755W        W20667  15.130  24.332  23.100  0.0962 -0.1163  0.4917
77756W        W20668  16.224  25.520  25.102  0.1555 -0.0188  0.3326
77757W        W20669  15.790  21.938  26.995  0.1384 -0.2086  0.1467
77758W        W20670  17.361  24.030  26.615 -0.1622 -0.0279 -0.1986
77759W        W20671  14.556  26.346  23.891 -0.3501  0.1892  0.0356
77760W        W20672  14.641  22.804  24.568  0.1175 -0.0400  0.1126
77761W        W20673  15.417  24.172  23.659  0.2246 -0.0811 -0.0123
77762W        W20674  14.552  22.769  25.056  0.0707 -0.1699 -0.2247
77763W        W20675  14.696  23.343  25.694  0.1687  0.1450  0.2364
77764W        W20676  16.597  22.322  21.342 -0.1220  0.1010  0.0069
77765W        W20677  14.593  21.737  27.025 -0.1640  0.0597  0.0931
77766W        W20678  18.004  22.557  23.712  0.0603  0.4338  0.2235
77767W        W20679  15.513  23.545  24.479  0.1131  0.1141 -0.0457
77768W        W20680  16.796  25.968  24.441  0.2754  0.0688  0.1246
77769W        W20681  17.240  23.844  23.891 -0.2628  0.0544  0.2371
77770W        W20682  18.217  23.539  23.182  0.0612 -0.2018  0.1015
77771W        W20683  16.513  21.787  25.727 -0.1136  0.0662  0.1250
77772W        W20684  14.448  22.904  25.535  0.2321 -0.0410  0.0466
77773W        W20685  15.694  24.223  26.872  0.1412  0.0441  0.0399
77774W        W20686  14.267  21.353  24.744 -0.0438 -0.0377 -0.2111
77775W        W20687  15.697  22.079  25.836  0.1157  0.0402 -0.1664
77776W        W20688  15.485  21.225  23.985  0.1589  0.2590 -0.0915
77777W        W20689  17.301  23.000  23.382 -0.0973  0.1769  0.0708
77778W        W20690  16.155  24.326  24.128 -0.2086  0.3145  0.2083
77779W        W20691  14.658  23.643  24.108  0.1783 -0.2508  0.4311
77780W        W20692  17.121  23.340  25.698 -0.0511  0.1628  0.0796
77781W        W20693  16.090  25.437  23.337 -0.2966  0.1638 -0.1923
77782W        W20694  17.870  24.585  26.181  0.0772 -0.2572  0.0081
77783W        W20695  16.168  24.566  26.153  0.0866 -0.0422 -0.2241
77784W        W20696  16.669  22.945  24.813  0.0644 -0.0391  0.1385
77785W        W20697  15.881  22.641  22.758  0.1778  0.2872 -0.0193
77786W        W20698  15.539  25.167  24.765  0.0561  0.0099  0.3072
77787W        W20699  14.814  23.778  24.982  0.1161 -0.2487 -0.0813
77788W        W20700  15.176  23.437  23.001 -0.0672  0.3367 -0.0262
77789W        W20701  17.089  25.946  25.390 -0.2212  0.0076 -0.2411
77790W        W20702  15.668  25.383  24.283 -0.0263  0.0029 -0.0179
77791W        W20703  14.431  24.324  25.839 -0.1719  0.1997 -0.0910
77792W        W20704  16.937  21.604  24.024  0.1631 -0.0646 -0.0357
77793W        W20705  16.457  23.157  25.241 -0.1313  0.0878  0.0515
77794W        W20706  15.125  23.489  24.089 -0.0822 -0.3793  0.1833
77795W        W20707  15.441  22.337  22.631  0.2396  0.2514  0.1115
77796W        W20708  17.623  25.970  25.541  0.2237 -0.2820  0.1844
77797W        W20709  14.675  26.640  22.716  0.2339  0.0726  0.2104
77798W        W20710  14.284  23.103  24.382  0.0027 -0.1812  0.0253
77799W        W20711  16.405  23.904  23.306 -0.3483 -0.1313 -0.1686
77800W        W20712  18.191  22.858  21.417  0.1099  0.1908 -0.1367
77801W        W20713  14.054  24.201  26.186 -0.0442  0.0167 -0.2703
77802W        W20714  17.343  22.335  26.543 -0.3429 -0.1822  0.0668
77803W        W20715  14.107  22.704  23.110 -0.4201 -0.1822  0.0315
77804W        W20716  13.671  24.990  26.621  0.1650 -0.0294  0.2841
77805W        W20717  16.788  22.202  22.321 -0.0049 -0.1134 -0.3239
77806W        W20718  17.567  22.955  24.375 -0.1716 -0.2370 -0.1063
77807W        W20719  16.297  23.651  26.149  0.3680 -0.2211  0.1207
77808W        W20720  17.523  24.055  22.677 -0.0526 -0.1749 -0.1222
77809W        W20721  17.857  22.667  21.060  0.1197  0.1683  0.0280
77810W        W20722  17.187  23.185  21.530  0.3222  0.0711 -0.0396
77811W        W20723  14.642  24.462  26.274  0.0872 -0.1857 -0.0314
77812W        W20724  16.781  23.637  23.580 -0.3547 -0.0253  0.0476
77813W        W20725  15.598  23.534  25.081  0.0613  0.1193  0.0848
77814W        W20726  16.787  22.335  23.076 -0.0649  0.0407  0.0047
77815W        W20727  18.512  24.312  24.482  0.0903 -0.0709 -0.0553
77816W        W20728  14.760  23.217  24.832 -0.2764  0.0644  0.1090
77817W        W20729  17.427  24.035  25.706 -0.0157  0.3073 -0.0458
77818W        W20730  16.270  25.031  25.239 -0.0638  0.0032 -0.0954
77819W        W20731  17.398  21.890  24.216  0.1021 -0.1402  0.0937
77820W        W20732  15.729  24.787  22.860 -0.1480  0.0414 -0.1825
77821W        W20733  16.828  21.896  24.422 -0.2209 -0.0642  0.1857
77822W        W20734  15.204  26.480  23.884 -0.1775  0.1376 -0.1989
77823W        W20735  18.828  22.104  22.979 -0.4668 -0.1412  0.0857
77824W        W20736  17.705  23.020  24.899  0.1142 -0.2208  0.1102
77825W        W20737  17.251  20.885  24.975 -0.0015  0.2599  0.1403
77826W        W20738  16.872  24.189  25.652  0.1501 -0.0330  0.3002
77827W        W20739  15.622  24.323  24.167  0.1715 -0.0435  0.0612
77828W        W20740  15.699  23.099  24.647  0.1034  0.0386  0.3760
77829W        W20741  14.549  24.337  23.071  0.0023  0.2724  0.1519
77830W        W20742  17.047  22.452  24.990  0.2991  0.3092 -0.0149
77831W        W20743  15.559  24.775  26.938  0.2511 -0.2833 -0.0504
77832W        W20744  14.137  25.228  25.920 -0.2571 -0.0303  0.0130
77833W        W20745  17.065  25.563  24.911  0.0135 -0.2801  0.0538
77834W        W20746  17.447  23.519  22.566  0.0131  0.0090  0.2503
77835W        W20747  17.002  22.858  25.972 -0.0584  0.0529  0.2170
77836W        W20748  15.115  24.399  22.592 -0.1027  0.0609 -0.1529
77837W        W20749  17.107  24.273  22.822  0.1218 -0.0790 -0.1921
77838W        W20750  14.334  24.914  22.873 -0.5554 -0.0241 -0.1418
77839W        W20751  16.889  22.666  23.887 -0.1523 -0.0583  0.1024
77840W        W20752  16.163  25.482  24.348 -0.0466  0.0319 -0.1229
77841W        W20753  14.729  24.751  24.458  0.0759 -0.2867 -0.0923
77842W        W20754  15.361  23.935  26.549 -0.4195 -0.2470 -0.4603
77843W        W20755  14.119  26.279  24.076 -0.3158 -0.0050  0.2148
77844W        W20756  18.642  21.701  23.867  0.0692  0.1443 -0.2366
77845W        W20757  14.532  26.142  27.041 -0.0089 -0.2443 -0.1327
77846W        W20758  15.633  24.261  22.942 -0.0159  0.0007  0.1678
77847W        W20759  15.192  23.155  23.721 -0.2942  0.0166 -0.0743
77848W        W20760  16.650  22.909  24.274  0.4016  0.0100 -0.0081
77849W        W20761  17.364  24.441  21.712 -0.2935 -0.1112 -0.1615
77850W        W20762  15.089  21.821  23.653  0.2519  0.1115 -0.0914
77851W        W20763  16.433  23.386  23.243 -0.3921 -0.2188  0.3037
77852W        W20764  15.440  24.008  24.552  0.2162 -0.2491  0.2810
77853W        W20765  16.569  23.565  25.654  0.0547  0.2555  0.0590
77854W        W20766  17.938  22.153  21.069 -0.0515 -0.1495  0.2832
77855W        W20767  16.290  24.121  24.855 -0.0383  0.1728  0.2654
77856W        W20768  16.383  24.264  26.435  0.1822 -0.1817  0.0568
77857W        W20769  13.723  23.255  24.872 -0.1060  0.3233 -0.2399
77858W        W20770  16.942  23.161  26.897  0.0461  0.4158 -0.0052
77859W        W20771  15.999  23.122  22.533  0.0380 -0.1177 -0.1352
77860W        W20772  14.350  23.273  23.898  0.1406 -0.3029  0.0527
77861W        W20773  16.000  23.568  23.360 -0.1978 -0.4127  0.0965
77862W        W20774  14.786  22.997  23.980 -0.2893 -0.1298 -0.0227
77863W        W20775  14.449  23.909  23.742  0.0166  0.1506  0.3840
77864W        W20776  17.068  21.603  25.453  0.1800 -0.1513 -0.2595
77865W        W20777  15.588  23.579  26.031  0.1400  0.0473  0.0501
77866W        W20778  17.517  22.573  23.737 -0.0215 -0.2379 -0.0218
77867W        W20779  15.170  22.929  23.118  0.3169 -0.3053 -0.1167
77868W        W20780  15.506  23.220  23.329 -0.2638  0.3004  0.0039
77869W        W20781  17.624  23.819  25.295 -0.2345 -0.1376  0.1788
77870W        W20782  15.205  23.361  24.865  0.0343 -0.0690  0.1958
77871W        W20783  15.707  25.663  25.744 -0.1749  0.2079  0.2214
77872W        W20784  16.516  22.094  23.940 -0.1105  0.0477 -0.0543
77873W        W20785  17.145  26.830  24.144 -0.4807 -0.0020  0.0866
77874W        W20786  16.736  23.716  26.984 -0.1201  0.0688  0.0864
77875W        W20787  15.455  23.847  24.065 -0.0847 -0.2629  0.1863
77876W        W20788  14.999  23.816  24.477 -0.0681 -0.2139  0.1338
77877W        W20789  15.873  24.688  25.606 -0.2286 -0.0781 -0.2260
77878W        W20790  18.007  23.023  24.104 -0.2549 -0.1807  0.1527
77879W        W20791  15.745  25.964  24.398  0.0599  0.2855 -0.2349
77880W        W20792  15.016  23.131  24.412 -0.0562 -0.0999 -0.1274
77881W        W20793  14.544  25.142  25.478  0.0433 -0.2654 -0.1326
77882W        W20794  17.868  21.921  20.667  0.1688 -0.0074  0.1578
77883W        W20795  15.985  23.916  24.353 -0.1766 -0.0117  0.1785
77884W        W20796  15.786  23.287  22.132 -0.0012  0.0983 -0.0444
77885W        W20797  16.629  22.987  25.644  0.1097  0.3410  0.0369
77886W        W20798  17.718  24.072  21.758  0.1197 -0.0014 -0.3383
77887W        W20799  16.725  22.089  25.307  0.0780  0.1451 -0.0984
77888W        W20800  16.098  20.592  25.062 -0.0927 -0.0307  0.0827
77889W        W20801  16.752  23.953  24.999  0.0714  0.2341 -0.1476
77890W        W20802  14.746  22.609  26.259 -0.1239  0.0768  0.1200
77891W        W20803  14.522  25.865  25.671  0.0512  0.0375 -0.1709
77892W        W20804  14.934  25.859  26.024  0.1804  0.0021 -0.3976
77893W        W20805  17.586  23.020  22.377  0.0507 -0.1422 -0.1221
77894W        W20806  16.492  21.957  22.906 -0.1871  0.0905 -0.1941
77895W        W20807  16.178  23.131  24.871  0.1604 -0.0286  0.4912
77896W        W20808  18.303  23.852  24.724 -0.1300  0.3367 -0.1818
77897W        W20809  17.040  24.710  22.544 -0.0480  0.3445 -0.2475
77898W        W20810  17.196  23.038  24.102  0.1410 -0.4223  0.0200
77899W        W20811  14.982  23.468  25.325 -0.2329 -0.0623 -0.3123
77900W        W20812  15.928  23.188  25.287  0.1627 -0.1628 -0.3366
77901W        W20813  15.926  23.607  22.435 -0.2072 -0.2895 -0.1016
77902W        W20814  16.526  24.255  24.457 -0.1473  0.1658 -0.4324
77903W        W20815  16.199  21.997  25.166  0.3193  0.0233  0.1733
77904W        W20816  16.501  23.495  24.684  0.0211  0.0859 -0.1612
77905W        W20817  17.727  22.653  22.689 -0.0534  0.0583  0.1818
77906W        W20818  18.584  22.981  24.812 -0.0179 -0.0392 -0.2310
77907W        W20819  17.523  22.555  24.713  0.3459  0.0807 -0.1388
77908W        W20820  15.964  23.713  25.586 -0.2347 -0.1350  0.0629
77909W        W20821  16.686  22.491  25.856  0.1361  0.1567  0.3284
77910W        W20822  17.638  24.900  25.740  0.0277 -0.1707 -0.0036
77911W        W20823  17.803  23.727  21.407  0.0784 -0.1591 -0.0394
77912W        W20824  17.734  22.054  25.065 -0.2826 -0.0036 -0.2570
77913W        W20825  16.685  22.603  25.285 -0.0809 -0.3051  0.1072
77914W        W20826  18.041  23.036  22.001  0.1625  0.2078  0.1835
77915W        W20827  13.892  22.778  24.672 -0.0030  0.0225 -0.1513
77916W        W20828  16.212  23.250  25.739 -0.1929  0.4055  0.0184
77917W        W20829  15.274  23.876  23.251  0.0809 -0.0202 -0.2087
77918W        W20830  17.221  22.679  26.859 -0.0949 -0.3257 -0.3113
77919W        W20831  16.348  26.999  23.521  0.2056  0.0091  0.3601
77920W        W20832  18.394  25.161  23.880 -0.1416  0.1245  0.3305
77921W        W20833  16.450  25.218  22.560  0.2759 -0.1606 -0.2256
77922W        W20834  14.362  23.023  23.438  0.2963  0.1659 -0.1000
77923W        W20835  14.883  25.506  25.408 -0.0749  0.0029 -0.1718
77924W        W20836  15.849  22.326  22.328  0.1807  0.1290 -0.1204
77925W        W20837  16.528  24.733  22.842  0.1349  0.0118  0.1357
77926W        W20838  15.996  23.504  24.641  0.0350  0.3459  0.1974
77927W        W20839  18.624  23.544  26.785  0.2665  0.1860  0.1696
77928W        W20840  17.316  22.084  23.212 -0.3035  0.0562  0.0411
77929W        W20841  17.087  22.987  25.355 -0.1894 -0.1351 -0.1601
77930W        W20842  14.389  23.511  23.436  0.0253 -0.4131  0.1934
77931W        W20843  17.279  22.536  22.912 -0.0076  0.2927 -0.4172
77932W        W20844  15.227  25.201  25.153  0.1768  0.1007  0.4043
77933W        W20845  14.728  22.242  25.865  0.0250 -0.0344  0.4933
77934W        W20846  15.530  26.119  24.851 -0.0840  0.2139  0.1482
77935W        W20847  17.071  22.223  24.011 -0.2028 -0.2067  0.2642
77936W        W20848  20.085  24.010  26.105  0.3149  0.1780 -0.1233
77937W        W20849  16.215  23.011  23.544  0.1067  0.1802 -0.1253
77938W        W20850  18.214  23.917  26.946 -0.0529 -0.0224  0.0107
77939W        W20851  16.367  24.062  25.519 -0.0207 -0.1798  0.0567
77940W        W20852  16.328  22.325  25.565  0.3778 -0.1558  0.2626
77941W        W20853  15.868  25.874  25.263 -0.0274  0.1868 -0.2649
77942W        W20854  19.130  24.029  25.786  0.0928  0.3685 -0.3150
77943W        W20855  14.458  23.573  24.636 -0.0216 -0.2977  0.0141
77944W        W20856  14.445  23.029  26.995  0.2356 -0.1796  0.1028
77945W        W20857  16.007  23.318  23.861 -0.1102  0.2995  0.1630
77946W        W20858  16.848  24.133  23.465 -0.2786  0.1587  0.1503
77947W        W20859  16.370  22.488  22.516  0.0572 -0.3682 -0.0999
77948W        W20860  16.106  24.416  23.020  0.1902 -0.1174 -0.1970
77949W        W20861  15.146  25.435  26.851 -0.1007 -0.1273 -0.1834
77950W        W20862  14.349  22.912  26.080 -0.1754 -0.1201 -0.4030
77951W        W20863  14.835  25.564  24.846 -0.1659 -0.0476 -0.0757
77952W        W20864  16.576  24.643  23.426 -0.1303 -0.1023  0.2645
77953W        W20865  17.053  24.646  23.240  0.1578  0.1449 -0.1169
77954W        W20866  16.618  26.308  25.640 -0.2104 -0.0682  0.1053
77955W        W20867  15.260  23.511  21.978  0.3321  0.0061 -0.0930
77956W        W20868  15.485  24.799  25.254  0.2076  0.4462  0.0213
77957W        W20869  14.434  23.734  22.760  0.0888  0.3309 -0.1716
77958W        W20870  17.966  23.826  22.623 -0.0361 -0.0144  0.0458
77959W        W20871  15.875  26.948  23.005 -0.1601  0.0030 -0.2074
77960W        W20872  17.257  24.889  25.438 -0.0935 -0.1007  0.1413
77961W        W20873  18.539  21.738  21.827 -0.1924 -0.2252  0.2336
77962W        W20874  18.139  24.663  24.202 -0.0979  0.0500 -0.0045
77963W        W20875  18.007  23.375  22.357  0.3098 -0.2565 -0.1174
77964W        W20876  16.494  24.294  26.940  0.0110  0.1114  0.0476
77965W        W20877  16.928  22.867  23.082  0.0299  0.0474  0.3642
77966W        W20878  16.266  23.318  22.189 -0.0598 -0.0652 -0.0658
77967W        W20879  15.846  21.581  26.224  0.3655 -0.0999  0.0872
77968W        W20880  17.587  23.056  25.522 -0.0838 -0.2453 -0.0646
77969W        W20881  15.247  24.926  28.591  0.3962  0.1411 -0.2726
77970W        W20882  16.399  26.091  24.039 -0.0807  0.1201  0.0294
77971W        W20883  14.678  22.758  23.079  0.0958 -0.0574  0.0245
77972W        W20884  14.784  22.609  23.627 -0.0643  0.4831  0.0496
77973W        W20885  18.243  21.966  25.903 -0.3124 -0.0266  0.4248
77974W        W20886  14.953  25.208  21.262 -0.2700 -0.1290  0.1226
77975W        W20887  16.330  22.771  26.018 -0.0647 -0.0271  0.0590
77976W        W20888  16.623  27.456  24.463 -0.1719  0.1691  0.0826
77977W        W20889  15.208  25.114  24.253 -0.2006 -0.5123 -0.1581
77978W        W20890  15.244  25.628  24.611  0.1465 -0.2895 -0.2956
77979W        W20891  14.060  22.832  25.184 -0.1034  0.1478  0.3080
77980W        W20892  18.102  23.557  24.319  0.1897 -0.2603  0.0246
77981W        W20893  17.251  22.931  24.906  0.1168 -0.0225 -0.0942
77982W        W20894  17.247  23.781  24.936  0.1109 -0.3889  0.1797
77983W        W20895  16.821  23.333  22.807  0.1747  0.0949  0.1652
77984W        W20896  18.348  23.471  22.709  0.0723  0.0289  0.2769
77985W        W20897  14.531  23.296  25.230  0.0547 -0.0634 -0.1251
77986W        W20898  15.415  21.795  26.109 -0.0170 -0.1580 -0.3050
77987W        W20899  16.495  23.760  22.414 -0.1071 -0.0662  0.2042
77988W        W20900  15.990  24.483  27.219  0.0199 -0.1465  0.2079
77989W        W20901  17.795  23.230  23.305 -0.0021 -0.0459 -0.1693
77990W        W20902  18.112  25.303  25.736  0.1411  0.2954  0.3987
77991W        W20903  15.949  22.238  24.769 -0.0507  0.3319 -0.1142
77992W        W20904  15.478  23.017  22.766  0.2136  0.0723  0.1582
77993W        W20905  13.656  23.144  25.354  0.3355  0.0940  0.4718
77994W        W20906  14.879  24.397  25.793 -0.3062 -0.1286  0.2410
77995W        W20907  16.765  26.769  25.483 -0.1940 -0.1571 -0.0763
77996W        W20908  13.439  22.949  24.580 -0.0061 -0.0748  0.1739
77997W        W20909  16.811  23.087  23.492 -0.1514 -0.1722 -0.2431
77998W        W20910  16.949  23.500  24.122  0.0260 -0.0880 -0.2095
77999W        W20911  16.138  27.505  24.357  0.1918 -0.2548 -0.0289
78000W        W20912  16.766  23.933  23.963 -0.0919  0.2466  0.0719
78001W        W20913  16.836  25.734  26.249  0.3352  0.3183  0.0480
78002W        W20914  14.742  21.988  25.278  0.1083 -0.1886  0.0877
78003W        W20915  17.437  23.412  24.688  0.1079 -0.0449 -0.0418
78004W        W20916  16.803  23.803  24.499 -0.0315 -0.0551 -0.0178
78005W        W20917  17.363  22.035  22.683 -0.1786 -0.1232  0.0282
78006W        W20918  15.650  22.659  24.427 -0.3238  0.2977  0.0593
78007W        W20919  15.309  23.920  25.039 -0.2055 -0.2206  0.1421
78008W        W20920  17.506  22.600  25.254 -0.1164 -0.1491  0.0093
78009W        W20921  16.290  22.502  25.062 -0.0414  0.0193 -0.1254
78010W        W20922  14.981  24.014  23.937 -0.1558  0.2736 -0.2852
78011W        W20923  17.845  22.176  24.508  0.0703  0.1125 -0.2214
78012W        W20924  15.813  23.932  24.902  0.3593  0.0149  0.0923
78013W        W20925  15.949  24.253  25.797  0.1152 -0.0479 -0.0371
78014W        W20926  16.136  23.788  22.002  0.1758 -0.1662  0.1378
78015W        W20927  15.976  23.147  26.250  0.1258 -0.0515 -0.1567
78016W        W20928  15.126  24.467  24.048  0.3440  0.2755  0.0265
78017W        W20929  16.115  25.215  22.892 -0.0375 -0.0338  0.1290
78018W        W20930  17.004  24.267  24.697  0.0456  0.0627 -0.1385
78019W        W20931  17.139  22.422  23.463  0.2714 -0.0440  0.1351
78020W        W20932  17.375  25.216  24.583  0.2410  0.2069  0.0752
78021W        W20933  15.782  21.540  23.724  0.0134 -0.0563  0.2308
78022W        W20934  17.433  23.323  22.076 -0.1431 -0.4374  0.1259
78023W        W20935  18.627  22.229  21.668 -0.2037  0.0100 -0.3374
78024W        W20936  16.256  23.152  24.322 -0.0788  0.1923 -0.1495
78025W        W20937  13.202  23.193  24.957  0.0068 -0.0904 -0.1876
78026W        W20938  14.232  25.055  24.607  0.0547  0.2550  0.1658
78027W        W20939  15.444  23.010  25.234  0.3499  0.1756  0.1589
78028W        W20940  15.738  22.422  26.751 -0.0436  0.2929 -0.0911
78029W        W20941  13.901  22.859  25.696  0.0480  0.0725  0.0026
78030W        W20942  15.280  22.756  24.058  0.1615  0.0443  0.0236
78031W        W20943  14.133  23.276  25.634 -0.2472 -0.0616 -0.2302
78032W        W20944  16.879  26.140  23.894  0.2560 -0.1024  0.1491
78033W        W20945  14.030  21.346  23.632  0.1232  0.3214  0.0444
78034W        W20946  13.775  22.061  24.305 -0.3721  0.4730 -0.0887
78035W        W20947  16.210  24.329  23.597  0.1453 -0.2270 -0.0674
78036W        W20948  16.534  25.338  23.687 -0.1761  0.0349  0.1850
78037W        W20949  15.969  22.306  23.139 -0.0090 -0.0475 -0.0702
78038W        W20950  18.363  24.509  26.344 -0.3336 -0.0359 -0.3881
78039W        W20951  14.778  23.391  22.781 -0.3572 -0.1479  0.2090
78040W        W20952  17.197  23.219  27.965 -0.1750  0.0286  0.1710
78041W        W20953  17.582  21.227  24.754  0.2372 -0.0652 -0.2589
78042W        W20954  13.135  24.083  24.834 -0.1976 -0.1239  0.2170
78043W        W20955  16.600  22.571  23.506 -0.0842  0.1475  0.0593
78044W        W20956  15.422  24.725  24.507 -0.1370  0.1726 -0.2102
78045W        W20957  18.123  26.518  24.015 -0.3457 -0.1581 -0.0208
78046W        W20958  15.237  24.463  26.738  0.2275 -0.3367 -0.2364
78047W        W20959  16.873  25.063  24.584  0.0534  0.0119  0.0520
78048W        W20960  15.071  21.175  24.338  0.2123 -0.2744  0.0437
78049W        W20961  17.151  23.453  23.219  0.0024 -0.0535  0.1979
78050W        W20962  16.801  24.517  26.584  0.0403 -0.2135  0.1713
78051W        W20963  17.570  23.428  24.121 -0.0479 -0.0613  0.1944
78052W        W20964  18.079  23.045  22.849 -0.2945  0.0287  0.1074
78053W        W20965  15.992  23.104  23.078 -0.0375  0.1160  0.2668
78054W        W20966  16.470  22.114  24.766 -0.0015 -0.2509 -0.0801
78055W        W20967  14.709  26.315  25.719 -0.2753 -0.1752 -0.0514
78056W        W20968  17.474  22.731  25.878 -0.0179  0.0009  0.0551
78057W        W20969  15.203  22.384  24.465 -0.5354 -0.0860  0.1580
78058W        W20970  18.134  22.348  21.527  0.0621 -0.0206 -0.3158
78059W        W20971  17.542  26.614  23.769 -0.1407  0.1249  0.3218
78060W        W20972  16.008  24.436  25.204 -0.1005  0.1190  0.0695
78061W        W20973  15.801  24.024  23.366 -0.0194  0.0030  0.0832
78062W        W20974  15.095  23.912  25.669  0.1594 -0.0643  0.2869
78063W        W20975  16.489  25.008  24.301  0.0111 -0.1117  0.0512
78064W        W20976  17.120  21.472  24.456 -0.1438  0.1303 -0.0446
78065W        W20977  15.459  23.651  23.626 -0.4528  0.2058  0.0301
78066W        W20978  18.242  24.060  23.061 -0.1492 -0.1326 -0.2654
78067W        W20979  16.081  26.274  25.433 -0.0535 -0.0477 -0.2363
78068W        W20980  17.896  23.205  27.159  0.0277  0.0820 -0.2248
78069W        W20981  15.801  25.250  25.242 -0.0244 -0.1340 -0.0789
78070W        W20982  17.005  23.227  24.549  0.1147 -0.4939  0.2921
78071W        W20983  14.534  20.966  24.426 -0.2538  0.1041  0.0365
78072W        W20984  14.739  23.880  23.255  0.1024  0.0223  0.0173
78073W        W20985  15.638  25.806  23.833 -0.0671  0.3361  0.2955
78074W        W20986  17.182  22.242  24.520 -0.0899  0.0935  0.0880
78075W        W20987  15.667  23.058  24.129  0.0838  0.0795 -0.1765
78076W        W20988  16.603  22.054  21.737  0.3064 -0.1820  0.0736
78077W        W20989  16.553  23.241  23.877  0.0285  0.0165  0.1076
78078W        W20990  16.400  23.689  24.241  0.0759  0.1969 -0.3241
78079W        W20991  16.860  23.897  30.343  0.1354  0.1038  0.2547
78080W        W20992  16.079  23.276  28.545 -0.1244 -0.3577 -0.3849
78081W        W20993  18.517  22.921  27.660  0.1347  0.0395  0.1521
78082W        W20994  17.883  24.063  26.548 -0.2045  0.0092  0.1515
78083W        W20995  14.523  22.099  28.169 -0.3111 -0.3387  0.1408
78084W        W20996  15.892  24.445  27.730 -0.3858  0.1140 -0.0391
78085W        W20997  16.198  21.269  30.404 -0.2943  0.0453 -0.0349
78086W        W20998  17.038  24.059  29.095 -0.0760 -0.2012  0.3249
78087W        W20999  17.380  23.844  28.698 -0.2062 -0.0108 -0.3903
78088W        W21000  16.710  23.873  26.441 -0.1059 -0.3053 -0.1057
78089W        W21001  17.314  20.048  29.332  0.1285 -0.2890  0.0479
78090W        W21002  17.378  24.488  29.100  0.0292  0.0793  0.1480
78091W        W21003  15.314  23.347  26.497  0.0742  0.0397 -0.3895
78092W        W21004  14.992  20.797  28.129  0.4564 -0.2411  0.0388
78093W        W21005  17.421  21.370  29.023 -0.1043 -0.0483 -0.2540
78094W        W21006  15.540  23.169  28.383  0.1199  0.1895 -0.0883
78095W        W21007  15.269  22.619  29.097  0.1936  0.2173 -0.1934
78096W        W21008  16.333  22.848  28.342  0.0086 -0.1765  0.2223
78097W        W21009  18.240  22.758  28.479  0.2242 -0.0553 -0.4626
78098W        W21010  16.252  21.101  29.008 -0.0166  0.4489 -0.0361
78099W        W21011  17.599  20.463  29.546 -0.0283 -0.3515 -0.0208
78100W        W21012  17.365  24.073  27.564  0.0626 -0.0705  0.1213
78101W        W21013  15.849  22.765  25.033 -0.0119  0.1520 -0.0363
78102W        W21014  15.589  22.356  28.801  0.3017  0.2651  0.1766
78103W        W21015  16.511  22.033  28.574 -0.2904  0.1328 -0.2884
78104W        W21016  16.055  21.334  29.376 -0.1256 -0.0269  0.0246
78105W        W21017  18.408  23.988  27.609  0.1201 -0.1424  0.0316
78106W        W21018  16.067  24.301  28.187 -0.0187  0.0730  0.1633
78107W        W21019  17.220  24.657  29.490 -0.1333  0.2337  0.1614
78108W        W21020  18.422  22.286  29.226  0.1235 -0.0289  0.0978
78109W        W21021  16.471  24.655  28.491  0.2021  0.2079  0.1745
78110W        W21022  16.760  25.459  28.404 -0.0896 -0.0621  0.2974
78111W        W21023  16.086  25.435  27.412  0.1952  0.2656 -0.2254
78112W        W21024  19.834  24.501  26.085  0.1835 -0.0338 -0.0631
78113W        W21025  17.794  23.143  30.426  0.0118  0.1819  0.4784
78114W        W21026  16.190  24.596  30.584  0.1292 -0.0085  0.1990
78115W        W21027  14.884  24.027  26.166 -0.0540  0.1335  0.0891
78116W        W21028  17.377  22.956  31.654 -0.0751 -0.0792 -0.0788
78117W        W21029  14.275  23.614  30.396  0.0899  0.2656  0.1368
78118W        W21030  16.968  22.797  28.721  0.0311 -0.1804  0.2529
78119W        W21031  17.241  22.755  27.806  0.3027 -0.0782  0.2109
78120W        W21032  15.300  24.022  27.086 -0.3016  0.4358  0.1938
78121W        W21033  17.981  22.481  28.833  0.3718  0.1237  0.1840
78122W        W21034  15.345  23.831  30.693 -0.0242 -0.0098  0.1054
78123W        W21035  14.997  24.629  28.192  0.0323  0.0391  0.5578
78124W        W21036  18.457  21.926  29.669 -0.0235  0.3037  0.2838
78125W        W21037  15.029  25.591  27.979  0.0822  0.0711 -0.0381
78126W        W21038  18.181  21.951  27.283 -0.0882  0.1880 -0.2422
78127W        W21039  16.527  22.418  26.473  0.3403  0.0015 -0.1066
78128W        W21040  17.838  23.046  28.498  0.0362 -0.0233  0.1251
78129W        W21041  15.216  21.487  28.909 -0.4500 -0.3288  0.1205
78130W        W21042  16.915  25.963  28.343 -0.2002  0.2519 -0.0272
78131W        W21043  17.014  23.217  29.483  0.0108  0.2359 -0.0083
78132W        W21044  18.365  24.762  28.672 -0.0230  0.1406 -0.0952
78133W        W21045  15.694  23.110  25.701 -0.0873 -0.1950  0.0809
78134W        W21046  17.212  22.229  30.050  0.0552 -0.2776  0.4095
78135W        W21047  15.919  24.226  28.623  0.0736  0.1702 -0.0761
78136W        W21048  17.250  20.972  27.964  0.1089 -0.0380  0.0977
78137W        W21049  16.394  24.080  27.908 -0.1835  0.0735 -0.1900
78138W        W21050  19.051  24.218  27.370 -0.3249  0.1108  0.0627
78139W        W21051  16.642  23.258  26.102 -0.0074  0.1939 -0.1013
78140W        W21052  14.848  23.167  27.994  0.1444  0.2110  0.0482
78141W        W21053  15.654  23.267  29.710 -0.2226 -0.1133 -0.0528
78142W        W21054  15.675  23.090  30.173  0.3080  0.0912 -0.3621
78143W        W21055  16.409  22.201  27.016  0.3076 -0.0771  0.0640
78144W        W21056  18.747  22.785  28.680 -0.0715  0.0321  0.0917
78145W        W21057  15.721  24.890  29.825  0.3332  0.0068 -0.0024
78146W        W21058  17.749  22.200  27.369  0.0482 -0.0589  0.2279
78147W        W21059  15.814  22.560  29.321  0.0145 -0.1894  0.4389
78148W        W21060  18.585  24.425  29.547  0.2683  0.2250  0.2017
78149W        W21061  16.025  23.462  27.023  0.2135 -0.2191  0.2743
78150W        W21062  18.222  21.112  28.946 -0.0726  0.0453  0.2081
78151W        W21063  16.947  21.996  29.414 -0.3728 -0.1049 -0.0391
78152W        W21064  15.827  23.611  26.473  0.2920  0.3467  0.2375
78153W        W21065  17.264  23.946  28.193  0.2891 -0.2148  0.0732
78154W        W21066  18.735  25.286  30.692  0.0355  0.3937  0.2621
78155W        W21067  17.792  22.698  26.951  0.0312 -0.3164  0.2418
78156W        W21068  17.128  24.572  30.628  0.0047  0.1832 -0.0085
78157W        W21069  17.096  20.469  29.581 -0.0610  0.0763  0.1866
78158W        W21070  16.938  23.781  31.248 -0.2211 -0.1023 -0.0507
78159W        W21071  14.683  25.678  27.051  0.2666 -0.1675  0.0510
78160W        W21072  15.875  23.496  30.360 -0.0546  0.2041  0.2976
78161W        W21073  16.070  23.537  27.560  0.0486  0.0506 -0.1342
78162W        W21074  15.591  21.667  29.505 -0.2971 -0.0316 -0.0972
78163W        W21075  17.278  23.626  30.317  0.1572  0.0885  0.3406
78164W        W21076  17.483  22.630  27.333 -0.2381 -0.0045 -0.1254
78165W        W21077  15.453  21.118  29.588 -0.0588 -0.0148  0.2994
78166W        W21078  17.325  21.778  27.959  0.2430  0.2149  0.2791
78167W        W21079  16.227  22.733  27.871  0.1718  0.0913  0.2224
78168W        W21080  17.171  25.010  27.453 -0.3072 -0.1654  0.3667
78169W        W21081  18.945  22.087  26.538  0.1017  0.3816  0.0298
78170W        W21082  17.643  24.547  26.822  0.0651  0.1696  0.1730
78171W        W21083  14.802  23.966  30.322  0.3594  0.0208  0.2274
78172W        W21084  16.415  22.149  28.048 -0.0014  0.3348 -0.2451
78173W        W21085  15.690  21.931  31.575  0.3794  0.2261  0.0315
78174W        W21086  15.961  20.309  28.166  0.0724  0.0858 -0.0064
78175W        W21087  17.505  22.636  28.765  0.0049 -0.0578 -0.2925
78176W        W21088  16.154  22.313  26.096 -0.2609  0.1054 -0.2440
78177W        W21089  17.814  22.533  28.365 -0.6596  0.0655 -0.0015
78178W        W21090  16.450  23.318  28.170 -0.1972  0.2675  0.0446
78179W        W21091  17.172  23.301  28.767  0.3161 -0.1033  0.0198
78180W        W21092  17.437  20.949  28.733 -0.1003 -0.0568 -0.0998
78181W        W21093  16.475  24.543  27.942  0.2019 -0.2152  0.1674
78182W        W21094  17.881  24.717  28.810 -0.0895  0.1116 -0.2789
78183W        W21095  16.565  25.661  27.948  0.3282 -0.0760  0.0049
78184W        W21096  15.545  22.390  29.660  0.2328  0.0041  0.1837
78185W        W21097  16.466  23.166  26.742 -0.2292  0.0038  0.0810
78186W        W21098  15.431  25.882  28.136 -0.0942  0.2927  0.0187
78187W        W21099  17.648  23.393  30.056  0.1618  0.2601 -0.2536
78188W        W21100  16.967  22.813  27.342  0.1288 -0.4325 -0.2227
78189W        W21101  17.600  24.955  28.368  0.2912 -0.2024 -0.1420
78190W        W21102  16.125  23.770  28.229  0.1280 -0.3616  0.0681
78191W        W21103  14.213  23.199  30.151 -0.1762 -0.0478  0.0416
78192W        W21104  17.126  21.008  29.363  0.0258 -0.0198 -0.0611
78193W        W21105  19.232  22.871  28.374 -0.0603  0.3160  0.0497
78194W        W21106  18.486  23.861  28.141  0.2005 -0.1171 -0.0353
78195W        W21107  15.412  21.862  28.011  0.0849  0.1437 -0.0984
78196W        W21108  16.809  23.949  27.489 -0.0891  0.2983  0.2822
78197W        W21109  17.126  25.695  27.987 -0.0778  0.1880 -0.1743
78198W        W21110  16.175  22.906  28.951 -0.0508  0.1858  0.2531
78199W        W21111  16.890  24.503  28.911 -0.2946  0.0203  0.3558
78200W        W21112  17.585  21.787  26.730 -0.3029 -0.2151  0.0009
78201W        W21113  14.793  22.159  31.380  0.0501  0.1548 -0.0522
78202W        W21114  17.556  21.334  29.612 -0.1663 -0.1638 -0.1635
78203W        W21115  14.261  22.442  25.904  0.0304 -0.0187  0.0526
78204W        W21116  15.230  25.017  30.831  0.1907  0.1195  0.1679
78205W        W21117  16.569  21.221  28.128  0.0119 -0.2399  0.0699
78206W        W21118  17.252  22.137  25.307 -0.0597  0.1501 -0.3893
78207W        W21119  17.500  22.279  30.436 -0.0425  0.2257  0.0509
78208W        W21120  17.988  23.942  28.689  0.0981 -0.0543 -0.0081
78209W        W21121  17.881  21.181  27.339  0.0440  0.1061 -0.1256
78210W        W21122  16.982  22.489  26.298  0.1221 -0.1119  0.0555
78211W        W21123  16.157  23.235  29.804 -0.1221  0.1627  0.1188
78212W        W21124  16.313  25.396  28.658  0.0254 -0.0228 -0.1406
78213W        W21125  17.722  24.431  29.773  0.1443 -0.0991  0.0059
78214W        W21126  16.626  21.549  25.248 -0.0834  0.1913  0.0339
78215W        W21127  19.348  24.586  26.280  0.3546 -0.1583 -0.1341
78216W        W21128  14.776  25.538  29.404  0.2425  0.0229 -0.0271
78217W        W21129  16.383  23.718  29.991 -0.0288  0.0182  0.2519
78218W        W21130  18.025  24.877  26.725 -0.0361  0.1681 -0.1269
78219W        W21131  16.980  19.694  28.900  0.0574  0.3918 -0.0528
78220W        W21132  16.111  22.099  26.588  0.2233 -0.2260 -0.2468
78221W        W21133  17.323  22.242  27.664 -0.0557 -0.0052 -0.1065
78222W        W21134  15.395  25.883  28.663 -0.1605 -0.3352  0.2053
78223W        W21135  17.435  22.249  29.490  0.2594 -0.1545 -0.2555
78224W        W21136  16.621  22.127  29.046  0.0529  0.1873  0.0399
78225W        W21137  16.060  20.772  28.697 -0.1272  0.0243  0.0426
78226W        W21138  19.017  21.584  30.446 -0.3883 -0.3654  0.0837
78227W        W21139  17.841  22.936  26.371  0.2165  0.1676 -0.0277
78228W        W21140  17.346  22.062  27.066 -0.0327  0.2534  0.1042
78229W        W21141  16.751  22.903  26.447  0.0819  0.2937  0.0918
78230W        W21142  15.756  21.887  29.046  0.0031 -0.1614 -0.2345
78231W        W21143  15.046  23.821  29.896 -0.3180 -0.0877 -0.0344
78232W        W21144  17.347  25.158  31.228  0.3215 -0.0515  0.0111
78233W        W21145  18.191  22.897  30.064  0.2190 -0.1553  0.2206
78234W        W21146  18.573  23.409  29.357 -0.1302  0.2396  0.0457
78235W        W21147  17.827  21.473  31.157  0.0323  0.4933 -0.0199
78236W        W21148  17.377  22.258  25.998  0.0922 -0.0266 -0.0906
78237W        W21149  15.481  24.414  27.299 -0.3454 -0.2079  0.2642
78238W        W21150  16.109  23.974  26.862  0.0321  0.0851  0.0787
78239W        W21151  17.458  21.324  27.590  0.2222  0.2269  0.2462
78240W        W21152  17.178  24.298  29.887 -0.4261 -0.1849  0.0573
78241W        W21153  14.805  24.500  27.728 -0.0622  0.0757  0.1683
78242W        W21154  17.833  24.532  29.249 -0.0227 -0.0803 -0.0563
78243W        W21155  14.274  25.606  26.814 -0.2408  0.0120 -0.1902
78244W        W21156  17.991  20.525  27.915 -0.2745  0.0470 -0.2864
78245W        W21157  14.873  25.140  28.916 -0.1109 -0.3572  0.0416
78246W        W21158  16.363  22.204  27.553  0.2134  0.2163  0.3210
78247W        W21159  14.628  25.339  27.401  0.0390 -0.1233  0.0037
78248W        W21160  17.227  21.460  27.054  0.0285  0.0966 -0.2170
78249W        W21161  17.459  23.203  26.033 -0.1784  0.1849  0.3576
78250W        W21162  14.814  21.911  29.174 -0.1921  0.0172 -0.1231
78251W        W21163  16.023  21.253  28.543 -0.2671  0.1332 -0.2421
78252W        W21164  15.825  25.167  28.929  0.0028 -0.0218  0.0652
78253W        W21165  18.105  23.270  29.348 -0.0677  0.1355  0.0764
78254W        W21166  17.285  23.004  26.473  0.3226  0.1239  0.1188
78255W        W21167  16.789  23.719  29.771 -0.0515 -0.1420  0.1121
78256W        W21168  15.376  25.507  30.654 -0.2465 -0.0231  0.3896
78257W        W21169  14.894  23.067  26.061  0.0626 -0.1350 -0.1624
78258W        W21170  18.440  21.472  28.698 -0.2251 -0.2921 -0.2274
78259W        W21171  15.365  20.871  27.612  0.1233 -0.1850 -0.2642
78260W        W21172  15.340  24.890  29.059 -0.0758 -0.2457  0.0401
78261W        W21173  17.563  24.925  29.132 -0.0198 -0.1594  0.1716
78262W        W21174  15.228  23.616  28.010  0.0490 -0.2120  0.0370
78263W        W21175  15.949  25.468  28.035 -0.1216  0.0474  0.0537
78264W        W21176  15.962  22.746  30.357  0.0841 -0.2055 -0.4221
78265W        W21177  18.830  20.414  28.924 -0.0276  0.0472 -0.0229
78266W        W21178  16.021  22.196  29.607  0.0661  0.3296 -0.2429
78267W        W21179  15.427  21.114  28.046  0.0435  0.1089  0.0100
78268W        W21180  17.026  21.733  28.960 -0.1494  0.0718  0.0390
78269W        W21181  18.153  22.890  28.958  0.2051 -0.2283  0.1347
78270W        W21182  16.985  22.398  30.499 -0.1739  0.2200 -0.2898
78271W        W21183  16.261  21.696  28.996  0.4658  0.1588 -0.1115
78272W        W21184  16.101  22.398  28.545 -0.0473 -0.0465  0.0253
78273W        W21185  18.791  25.546  26.546  0.0561  0.3648 -0.0609
78274W        W21186  17.553  22.730  30.619  0.0662  0.0969  0.0768
78275W        W21187  16.104  22.689  26.495 -0.0927 -0.2922 -0.4100
78276W        W21188  14.700  24.118  29.269 -0.0806 -0.2256 -0.2621
78277W        W21189  17.135  23.714  27.781  0.2452  0.0546  0.0203
78278W        W21190  16.580  20.944  28.583 -0.0336 -0.0838 -0.2786
78279W        W21191  16.927  24.123  28.584 -0.0923  0.1459  0.0232
78280W        W21192  14.841  25.099  28.281 -0.1447 -0.2767  0.2488
78281W        W21193  15.215  26.204  29.016  0.0234  0.3135 -0.0650
78282W        W21194  17.432  22.092  23.697 -0.1012  0.0878  0.1012
78283W        W21195  17.479  25.084  26.189 -0.0379 -0.0305  0.0494
78284W        W21196  16.386  21.804  27.248 -0.3651 -0.0896  0.0530
78285W        W21197  18.660  21.497  29.525  0.0176  0.3715 -0.3175
78286W        W21198  16.904  22.212  27.340 -0.1137 -0.4498 -0.2803
78287W        W21199  18.404  20.186  28.068 -0.2125 -0.1961  0.0308
78288W        W21200  16.946  21.232  28.858 -0.3595 -0.0504  0.0287
78289W        W21201  17.824  24.169  27.235 -0.3449  0.1048 -0.2294
78290W        W21202  13.901  22.799  30.216  0.0205  0.1972  0.0924
78291W        W21203  16.676  23.861  31.702 -0.3801  0.3397 -0.0146
78292W        W21204  14.450  23.352  30.763  0.2723 -0.1364 -0.1228
78293W        W21205  16.024  24.070  29.105  0.3252 -0.2130  0.3743
78294W        W21206  15.226  23.518  27.308  0.1602 -0.2925 -0.0447
78295W        W21207  16.801  24.332  29.416 -0.2107 -0.0165 -0.4222
78296W        W21208  18.050  24.837  28.121 -0.2547 -0.1754  0.1332
78297W        W21209  17.635  23.541  28.332  0.0226 -0.0872  0.1403
78298W        W21210  16.716  22.479  28.332 -0.2785 -0.1600  0.0037
78299W        W21211  17.241  22.750  29.627  0.0784 -0.0702 -0.3944
78300W        W21212  17.065  23.504  28.353  0.1665 -0.2962  0.2963
78301W        W21213  16.957  23.441  27.366 -0.3542 -0.0985  0.1499
78302W        W21214  16.034  23.536  29.416 -0.1039 -0.1031  0.0461
78303W        W21215  15.289  21.014  30.564 -0.2140 -0.2047 -0.1117
78304W        W21216  17.778  23.522  28.809  0.0656  0.0580 -0.0609
78305W        W21217  16.284  21.671  28.258  0.1160  0.1799  0.0669
78306W        W21218  17.272  23.717  29.740 -0.0290  0.1460  0.1428
78307W        W21219  16.881  22.712  30.082  0.1770  0.0106 -0.1492
78308W        W21220  15.888  23.767  29.889 -0.1097  0.0895 -0.0512
78309W        W21221  16.425  21.674  30.364  0.0356 -0.1519  0.0732
78310W        W21222  17.641  25.386  29.344 -0.1422  0.2759  0.0390
78311W        W21223  18.347  23.669  25.901  0.1444  0.3157 -0.1935
78312W        W21224  17.132  21.284  28.375  0.2592  0.0022  0.2365
78313W        W21225  17.421  23.105  27.057  0.2548 -0.0515  0.2053
78314W        W21226  16.870  23.447  26.472 -0.1027  0.2099  0.2537
78315W        W21227  15.155  23.345  29.791  0.0571  0.1253  0.1351
78316W        W21228  18.074  22.089  30.297  0.0131  0.1982 -0.4304
78317W        W21229  15.972  21.480  26.718  0.0430 -0.0100  0.1256
78318W        W21230  18.820  21.661  29.095 -0.2178 -0.0876  0.1626
78319W        W21231  16.327  25.186  27.735 -0.0872  0.1327 -0.1462
78320W        W21232  16.936  24.545  28.335  0.1428  0.0618 -0.1394
78321W        W21233  16.487  23.272  29.437  0.1497  0.2582 -0.0512
78322W        W21234  15.487  22.967  29.333 -0.1127 -0.1832  0.0565
78323W        W21235  16.363  25.498  29.980  0.1779 -0.0703 -0.4435
78324W        W21236  17.948  21.569  24.871 -0.0075 -0.1272 -0.0740
78325W        W21237  16.078  22.849  27.008 -0.5787 -0.1927  0.2276
78326W        W21238  18.413  24.318  29.027  0.1650 -0.0277  0.0272
78327W        W21239  18.311  23.329  30.324  0.1181  0.0352 -0.1664
78328W        W21240  17.762  20.715  25.869 -0.4084 -0.3389 -0.0553
78329W        W21241  17.963  21.777  29.624  0.1554 -0.2769 -0.2142
78330W        W21242  14.326  25.118  28.375 -0.1312  0.1675  0.1390
78331W        W21243  16.793  20.746  28.202  0.1638  0.0022  0.1835
78332W        W21244  16.533  24.013  28.897  0.1106 -0.2877  0.1942
78333W        W21245  15.189  24.347  29.103 -0.1835 -0.1568 -0.0376
78334W        W21246  15.988  24.706  28.566  0.0284 -0.1242 -0.1031
78335W        W21247  16.868  21.716  28.279  0.1049  0.0462  0.3571
78336W        W21248  16.782  23.836  28.162 -0.4456 -0.0528  0.0713
78337W        W21249  18.116  23.582  27.910  0.2853  0.2149 -0.0033
78338W        W21250  18.850  22.205  30.422  0.0985 -0.2708 -0.0805
78339W        W21251  17.638  24.492  30.786 -0.3068  0.3519 -0.0404
78340W        W21252  15.584  23.468  27.674 -0.1662  0.2255  0.1674
78341W        W21253  17.082  26.200  30.804 -0.0118  0.1873 -0.1469
78342W        W21254  18.558  23.200  28.405 -0.0933  0.0123 -0.0560
78343W        W21255  16.599  24.164  29.894 -0.2187  0.1342 -0.2694
78344W        W21256  15.295  22.284  30.793 -0.2285 -0.0300 -0.0927
78345W        W21257  16.248  23.115  30.303 -0.0883 -0.1926  0.1358
78346W        W21258  18.141  23.749  29.171  0.2431  0.3928  0.0844
78347W        W21259  15.619  22.676  27.248  0.2798 -0.0938 -0.1396
78348W        W21260  17.645  23.707  27.779  0.3068 -0.1061  0.2018
78349W        W21261  15.707  24.738  31.387 -0.0207  0.0563  0.0761
78350W        W21262  15.263  24.118  30.284 -0.1688  0.1208  0.0763
78351W        W21263  15.024  24.424  28.627 -0.0758 -0.0821 -0.0531
78352W        W21264  17.735  23.728  26.873 -0.1193  0.0633  0.1869
78353W        W21265  17.756  24.017  28.211 -0.1589  0.0482  0.1051
78354W        W21266  16.303  25.040  28.242 -0.1865  0.2002 -0.0624
78355W        W21267  16.543  23.599  27.724  0.0090  0.1812 -0.1456
78356W        W21268  16.465  23.931  29.387 -0.2822  0.0639 -0.0285
78357W        W21269  15.692  23.610  28.166  0.0369  0.1395 -0.1272
78358W        W21270  16.409  25.022  26.130 -0.1266  0.1259 -0.0558
78359W        W21271  17.122  24.902  28.705  0.1689 -0.0510  0.1592
78360W        W21272  19.013  23.174  29.241 -0.1184  0.0309  0.0632
78361W        W21273  16.899  21.447  25.894  0.2496  0.0499 -0.1769
78362W        W21274  18.136  23.042  28.069 -0.1843  0.0626 -0.0671
78363W        W21275  17.677  21.492  28.171 -0.0790 -0.1173  0.1178
78364W        W21276  18.637  24.374  30.971  0.0112 -0.1560  0.4067
78365W        W21277  15.437  23.743  29.547  0.0014  0.0168 -0.2775
78366W        W21278  16.793  21.476  26.401  0.1844 -0.1498 -0.0973
78367W        W21279  15.839  23.727  30.779  0.0354 -0.1547 -0.2438
78368W        W21280  17.073  21.525  29.420 -0.2947  0.3142  0.0154
78369W        W21281  15.297  24.559  30.558 -0.0460  0.2575  0.1999
78370W        W21282  17.886  23.665  26.141  0.1541  0.3651  0.0951
78371W        W21283  15.574  21.502  27.661 -0.4536 -0.1438 -0.1647
78372W        W21284  16.654  23.231  28.632  0.1959  0.1550  0.1792
78373W        W21285  17.943  20.680  28.837 -0.2254  0.1207 -0.0767
78374W        W21286  17.410  23.123  27.550  0.2172  0.2348 -0.1070
78375W        W21287  18.219  22.467  27.259 -0.0287 -0.0944 -0.2405
78376W        W21288  16.484  25.849  28.521  0.3531  0.1014 -0.1312
78377W        W21289  15.860  24.630  29.059  0.1842  0.0956 -0.2268
78378W        W21290  17.610  23.989  30.101 -0.0027 -0.3028 -0.1537
78379W        W21291  15.194  23.082  25.679  0.0393 -0.4403  0.2889
78380W        W21292  17.764  21.516  28.651 -0.0324 -0.0004 -0.1149
78381W        W21293  15.926  22.773  29.816 -0.2125 -0.0632 -0.0869
78382W        W21294  17.464  21.785  29.337 -0.2820  0.2701 -0.1531
78383W        W21295  15.960  21.871  28.530 -0.0888 -0.0264  0.0115
78384W        W21296  17.705  21.309  26.855  0.1542  0.1603 -0.1601
78385W        W21297  17.679  23.944  29.092 -0.0502  0.2530 -0.1975
78386W        W21298  14.869  21.814  30.109  0.0515  0.3893  0.2136
78387W        W21299  16.605  22.717  26.901 -0.0261  0.1651  0.0596
78388W        W21300  18.179  22.650  29.470 -0.1891 -0.2247  0.0621
78389W        W21301  16.901  22.291  26.795 -0.0745  0.2015  0.1080
78390W        W21302  17.580  25.033  31.971  0.0196  0.1789 -0.1735
78391W        W21303  15.266  23.087  28.877 -0.0134  0.0522  0.0992
78392W        W21304  17.309  22.986  28.409 -0.0065  0.1010 -0.1673
78393W        W21305  15.980  23.058  29.346  0.1388  0.1333 -0.3938
78394W        W21306  16.370  23.807  30.473  0.1878  0.1161  0.0213
78395W        W21307  18.410  23.948   0.315 -0.1709  0.2138  0.0263
78396W        W21308  15.981  22.379  27.265  0.1441  0.2042  0.1059
78397W        W21309  17.764  22.159  26.383  0.1696 -0.0990  0.1125
78398W        W21310  18.630  22.389  27.687  0.0668  0.2063  0.1823
78399W        W21311  15.410  24.934  26.319 -0.3131  0.1482 -0.1506
78400W        W21312  17.473  23.519  27.306 -0.2375 -0.3956 -0.0626
78401W        W21313  17.173  24.778  27.891 -0.0163 -0.4030  0.1538
78402W        W21314  14.829  22.355  29.418  0.1080  0.0865  0.1268
78403W        W21315  18.509  23.669  28.584 -0.0416 -0.0077 -0.2867
78404W        W21316  18.646  22.659  28.163  0.1037 -0.0818  0.1260
78405W        W21317  17.724  21.995  28.379  0.1315 -0.2020 -0.1557
78406W        W21318  16.482  22.660  27.351  0.1724 -0.3639 -0.0838
78407W        W21319  15.824  24.882  28.025 -0.0387 -0.1916 -0.1924
78408W        W21320  16.974  22.138  28.624 -0.1141 -0.0282  0.1984
78409W        W21321  19.259  21.792  29.697  0.0174  0.1729 -0.1910
78410W        W21322  16.710  25.347  26.540  0.0960  0.2337 -0.1337
78411W        W21323  17.610  21.990  28.881  0.1436  0.0413  0.0887
78412W        W21324  17.938  25.784  30.597 -0.1956 -0.1865  0.4295
78413W        W21325  15.192  24.778   0.413  0.0894  0.1043 -0.0632
78414W        W21326  15.000  23.627  26.771 -0.3102 -0.1906  0.0021
78415W        W21327  15.765  23.271  31.158  0.0784 -0.0433  0.1271
78416W        W21328  17.230  23.571  29.218  0.0231  0.2181  0.0049
78417W        W21329  14.513  25.465  28.050  0.0385  0.1727  0.0857
78418W        W21330  17.971  23.713  27.322 -0.1789 -0.1301 -0.0881
78419W        W21331  15.038  23.786  28.462 -0.1115 -0.3034  0.2420
78420W        W21332  19.356  23.735  28.598  0.1003  0.1645  0.1532
78421W        W21333  16.512  22.569  28.777 -0.2452  0.2208 -0.1001
78422W        W21334  17.230  21.813  26.230 -0.0110  0.3332  0.1817
78423W        W21335  16.899  22.142  27.938 -0.2003  0.0338 -0.3294
78424W        W21336  15.475  23.312  30.725  0.1231 -0.0224 -0.1568
78425W        W21337  14.521  23.865  25.896 -0.2212  0.1318  0.0612
78426W        W21338  14.828  24.174  26.647  0.0029  0.1698  0.0034
78427W        W21339  16.838  22.569  29.232 -0.1714  0.2014 -0.3196
78428W        W21340  15.499  20.121  29.515 -0.0096 -0.1629 -0.1527
78429W        W21341  15.045  23.196  29.286 -0.1645 -0.0761  0.1122
78430W        W21342  15.892  22.296  28.051 -0.0620  0.2364 -0.1479
78431W        W21343  15.382  23.932  27.605 -0.3229  0.1504 -0.1499
78432W        W21344  17.894  24.168  27.736  0.7348  0.2509  0.2502
78433W        W21345  15.697  22.325  30.480 -0.0680  0.0480  0.0788
78434W        W21346  15.442  22.339  28.327  0.1861 -0.3541  0.1517
78435W        W21347  18.266  24.450  27.907 -0.1242 -0.0725 -0.0821
78436W        W21348  17.310  25.537  27.535 -0.2248  0.1320 -0.1400
78437W        W21349  15.961  23.170  27.984 -0.3559 -0.0510 -0.0180
78438W        W21350  17.405  24.156  29.463  0.1479 -0.0758 -0.0217
78439W        W21351  14.516  22.422  25.434  0.0293 -0.0527 -0.0398
78440W        W21352  18.681  22.871  31.474 -0.0758 -0.0737  0.1818
78441W        W21353  16.683  21.031  30.253 -0.4483  0.3154 -0.0437
78442W        W21354  15.320  22.040  25.315  0.0302  0.0635 -0.3143
78443W        W21355  16.106  22.215  29.087 -0.0464  0.0417 -0.3025
78444W        W21356  15.360  24.360  27.841  0.3294  0.1332 -0.0742
78445W        W21357  18.216  24.650  25.345 -0.2112  0.0095  0.0464
78446W        W21358  15.733  24.724  30.800  0.1022 -0.1876  0.3288
78447W        W21359  15.520  24.993  30.295  0.2592 -0.2146 -0.0189
78448W        W21360  16.418  20.532  28.951  0.0277  0.4157 -0.2208
78449W        W21361  17.279  23.557  26.807 -0.2842  0.0070 -0.0515
78450W        W21362  15.354  24.677  29.492 -0.0010  0.1371  0.0022
78451W        W21363  17.663  23.301  26.637  0.0165 -0.0618 -0.3876
78452W        W21364  18.209  22.151  28.292 -0.1249 -0.1531 -0.2128
78453W        W21365  17.960  22.844  27.588 -0.1461 -0.0231  0.1341
78454W        W21366  15.676  21.296  30.849 -0.2057 -0.1959 -0.0049
78455W        W21367  15.907  24.390  29.773 -0.0767  0.1024 -0.4874
78456W        W21368  18.836  24.028  29.226  0.1136  0.0476  0.0993
78457W        W21369  15.938  21.633  27.361 -0.2970 -0.0049 -0.1338
78458W        W21370  17.894  22.199  26.875 -0.0784 -0.2459  0.0490
78459W        W21371  16.668  24.803  27.549  0.1719  0.3021 -0.2507
78460W        W21372  17.786  22.723  29.788  0.1376 -0.2046 -0.2909
78461W        W21373  16.890  21.139  26.853  0.1969 -0.0827  0.0719
78462W        W21374  15.481  21.945  29.929 -0.2505  0.1350  0.1615
78463W        W21375  17.990  23.716  30.233 -0.0100  0.2691  0.0101
78464W        W21376  17.903  22.155  29.299  0.1090  0.1227  0.0473
78465W        W21377  16.687  23.083  27.719 -0.0146  0.3669 -0.3359
78466W        W21378  19.245  23.537  26.007 -0.1499 -0.2139  0.1089
78467W        W21379  18.430  24.323  30.443  0.0363  0.3624 -0.1469
78468W        W21380  18.213  25.386  30.699 -0.1228 -0.1102  0.0214
78469W        W21381  18.154  24.364  30.837 -0.4986  0.3495  0.0759
78470W        W21382  18.118  23.445  28.422  0.2114  0.0576 -0.0202
78471W        W21383  15.301  22.021  29.194 -0.0929  0.1856 -0.1912
78472W        W21384  16.845  22.989  28.175  0.1215  0.4911  0.3961
78473W        W21385  15.391  23.530  25.622 -0.3096 -0.0520  0.1948
78474W        W21386  18.835  23.601  28.997 -0.1623 -0.0811 -0.2754
78475W        W21387  17.160  23.202  29.950 -0.0800 -0.0419 -0.1033
78476W        W21388  17.003  21.999  25.752 -0.1069  0.2408  0.2232
78477W        W21389  18.191  26.244  31.315  0.1193 -0.1324 -0.1060
78478W        W21390  16.679  24.708  29.689  0.2321  0.1082  0.4341
78479W        W21391  17.192  20.892  29.948 -0.0151  0.1653  0.0730
78480W        W21392  17.193  23.757  30.814 -0.2454  0.1916 -0.1768
78481W        W21393  15.565  22.822  31.089  0.0048  0.1671  0.0844
78482W        W21394  16.078  24.532  31.080  0.2365  0.2428  0.1037
78483W        W21395  16.441  26.224  31.984 -0.2827 -0.1122 -0.0964
78484W        W21396  15.008  24.755   0.870  0.2670  0.2332 -0.0884
78485W        W21397  17.554  23.149  29.607  0.2159 -0.1865 -0.0352
78486W        W21398  15.459  22.662  30.079  0.0080  0.1297 -0.2444
78487W        W21399  16.183  24.131  30.789 -0.3549  0.2263 -0.1549
78488W        W21400  17.708  23.292  31.296  0.1345 -0.0421  0.0178
78489W        W21401  17.201  23.943  31.748 -0.0115 -0.0931  0.0188
78490W        W21402  15.579  21.686   0.518  0.0553 -0.2511 -0.1994
78491W        W21403  17.463  22.340  31.009  0.0592  0.0249  0.0312
78492W        W21404  16.116  23.911  31.985 -0.1709  0.2341  0.0019
78493W        W21405  18.302  22.371  31.191 -0.3336  0.1477 -0.0748
78494W        W21406  16.294  25.091  29.181 -0.0907 -0.4147 -0.1055
78495W        W21407  14.713  23.479  31.263  0.0627 -0.0706  0.0197
78496W        W21408  18.767  23.927  30.623 -0.0145  0.0250  0.1525
78497W        W21409  16.625  19.796  31.195 -0.2003 -0.2583 -0.3277
78498W        W21410  14.982  20.942   0.086  0.0577 -0.0454  0.4651
78499W        W21411  14.801  20.438  31.847 -0.0593 -0.1615  0.3146
78500W        W21412  14.823  25.059  31.102 -0.0243 -0.0564  0.0468
78501W        W21413  18.448  22.207  30.690 -0.0373 -0.3767 -0.0921
78502W        W21414  16.889  23.348  30.924 -0.0722  0.0804 -0.1098
78503W        W21415  17.901  22.323  30.782 -0.3722 -0.2038  0.1925
78504W        W21416  17.167  22.289  29.025 -0.1654  0.0584  0.0590
78505W        W21417  16.790  21.703  29.792 -0.2065  0.0267  0.1005
78506W        W21418  14.950  25.431  29.826  0.2439  0.1299  0.0453
78507W        W21419  15.491  24.138  29.833  0.2300 -0.0294 -0.1123
78508W        W21420  16.681  22.906  30.524  0.1656  0.0829  0.3029
78509W        W21421  15.842  25.171  31.785 -0.0826  0.1822 -0.1114
78510W        W21422  15.746  23.999  30.280 -0.0458  0.2316 -0.1985
78511W        W21423  16.641  22.849  29.596 -0.1475 -0.0733 -0.0081
78512W        W21424  17.918  20.308  29.954  0.0944 -0.0405 -0.3263
78513W        W21425  15.425  22.768  30.537 -0.3386  0.1030  0.2037
78514W        W21426  14.771  23.431  30.360  0.1545 -0.0678 -0.1478
78515W        W21427  17.769  24.395  31.233 -0.1717  0.2710  0.2572
78516W        W21428  17.443  22.343  31.562 -0.0133 -0.2093  0.1121
78517W        W21429  18.271  23.087  31.241 -0.2917 -0.3426 -0.0087
78518W        W21430  14.890  24.816  31.539  0.1619 -0.1415 -0.2169
78519W        W21431  18.269  21.889  31.485  0.2090 -0.1608 -0.2825
78520W        W21432  17.603  20.402  28.665  0.1203  0.4034 -0.0035
78521W        W21433  15.761  20.855  30.727 -0.0234  0.2622 -0.2335
78522W        W21434  15.711  24.496  30.293  0.0173 -0.0255  0.0202
78523W        W21435  15.313  22.728  31.553 -0.2160 -0.0447 -0.1119
78524W        W21436  15.572  24.246  30.805  0.1368 -0.0057  0.2064
78525W        W21437  15.651  21.421  30.285 -0.0581  0.0686 -0.0424
78526W        W21438  16.961  21.855  30.272  0.0252 -0.2622  0.1143
78527W        W21439  17.807  24.002  30.964  0.2370  0.0890  0.2313
78528W        W21440  14.998  24.236  30.767  0.0595 -0.0010 -0.1570
78529W        W21441  18.625  23.297   0.302 -0.1907  0.0687 -0.0853
78530W        W21442  16.701  20.788  29.792  0.2671  0.1012  0.2759
78531W        W21443  16.059  21.729  29.858 -0.1490 -0.2006 -0.0798
78532W        W21444  17.478  24.535  30.258  0.1802  0.2267  0.0170
78533W        W21445  18.318  22.603  31.715 -0.0018  0.3042 -0.1616
78534W        W21446  17.217  23.321  31.274  0.2071  0.3299 -0.3592
78535W        W21447  19.397  24.190  29.215 -0.1749 -0.2954 -0.2369
78536W        W21448  16.602  24.334  30.541 -0.2227 -0.0750 -0.1656
78537W        W21449  17.229  23.145  30.471  0.0127  0.1071 -0.1732
78538W        W21450  15.225  24.351   0.095  0.1297 -0.3280 -0.0504
78539W        W21451  13.992  23.595  31.888 -0.0852 -0.3736 -0.0423
78540W        W21452  14.588  22.967  31.000 -0.0900  0.1573  0.2881
78541W        W21453  14.039  24.103  31.265  0.3974 -0.0541 -0.2502
78542W        W21454  14.538  21.807  29.558  0.1272  0.1514  0.1444
78543W        W21455  16.824  24.563  30.166  0.1251  0.1137 -0.2678
78544W        W21456  17.803  23.905  29.653  0.1241 -0.1705 -0.1350
78545W        W21457  19.336  21.026  30.751  0.0986  0.1154 -0.1080
78546W        W21458  15.568  28.198  20.318 -0.1819  0.1718  0.1160
78547W        W21459  15.666  27.081  16.832 -0.2848  0.1448  0.0183
78548W        W21460  17.292  27.008  16.617 -0.0331 -0.3248 -0.0025
78549W        W21461  16.851  27.421  17.892  0.2112  0.3012  0.2906
78550W        W21462  14.712  25.975  17.036 -0.0140 -0.0242  0.0438
78551W        W21463  17.151  28.000  16.637 -0.1493 -0.0423  0.2025
78552W        W21464  13.938  25.780  18.158 -0.1592  0.0599  0.1840
78553W        W21465  16.847  28.472  16.470 -0.2258  0.0805  0.1452
78554W        W21466  17.082  28.210  18.435 -0.1274  0.0218 -0.1643
78555W        W21467  17.422  27.474  16.312  0.3358 -0.0398 -0.4576
78556W        W21468  15.975  27.136  19.794  0.0214  0.1555 -0.1875
78557W        W21469  15.107  30.038  20.215  0.0245 -0.2435 -0.0199
78558W        W21470  15.430  25.399  15.259 -0.2393  0.3033 -0.1236
78559W        W21471  16.292  25.647  17.485 -0.0515  0.0794 -0.3232
78560W        W21472  16.795  27.785  18.519 -0.0337  0.2122 -0.2148
78561W        W21473  15.927  27.273  18.502 -0.0837  0.0398  0.0320
78562W        W21474  16.608  28.243  18.565 -0.3735  0.2695 -0.1032
78563W        W21475  15.641  26.059  16.963  0.0334  0.1686 -0.2356
78564W        W21476  17.339  30.167  17.459  0.1432  0.1148  0.3282
78565W        W21477  15.977  27.539  20.904 -0.2001  0.4544 -0.1456
78566W        W21478  17.684  25.648  18.516  0.4101 -0.2502  0.1879
78567W        W21479  15.599  28.963  16.308 -0.2914 -0.0755  0.0008
78568W        W21480  15.533  26.741  16.491 -0.0858 -0.1119  0.2910
78569W        W21481  13.979  26.900  17.595 -0.0651  0.1959  0.2559
78570W        W21482  14.986  26.662  19.364 -0.2800  0.1082 -0.1001
78571W        W21483  18.042  26.505  17.054 -0.0260  0.1862  0.2392
78572W        W21484  16.763  26.802  18.106  0.0462  0.0082  0.3928
78573W        W21485  16.764  29.537  17.306  0.1075 -0.0638  0.1968
78574W        W21486  15.767  28.497  17.208  0.2132 -0.4133 -0.1120
78575W        W21487  16.622  26.407  19.781  0.2629 -0.0814  0.2866
78576W        W21488  14.589  27.462  17.253 -0.3330  0.1465  0.3075
78577W        W21489  14.524  29.152  18.372  0.3450 -0.3507 -0.1952
78578W        W21490  15.094  28.396  18.031  0.2125 -0.1125 -0.1297
78579W        W21491  18.253  27.870  16.257  0.2197 -0.3324 -0.0814
78580W        W21492  19.494  29.151  20.140  0.3189 -0.1162 -0.1430
78581W        W21493  15.594  29.437  19.092  0.0699 -0.2349 -0.0134
78582W        W21494  15.777  29.604  15.834  0.2194  0.2400 -0.3288
78583W        W21495  15.230  30.380  18.852 -0.0190 -0.1641  0.0309
78584W        W21496  17.216  28.474  19.413  0.1043 -0.2030  0.1911
78585W        W21497  16.375  27.096  18.273  0.0275 -0.1712 -0.1691
78586W        W21498  17.039  26.936  17.626 -0.2041 -0.2318 -0.0340
78587W        W21499  16.125  29.384  16.823 -0.1825  0.3539 -0.3875
78588W        W21500  16.862  27.445  17.386 -0.0251 -0.1716 -0.0447
78589W        W21501  15.533  29.539  20.777  0.3643  0.3149  0.0094
78590W        W21502  15.491  28.655  17.633  0.4636  0.3105  0.1013
78591W        W21503  18.721  26.066  19.521  0.2110  0.2690 -0.1730
78592W        W21504  16.941  28.948  16.596 -0.1556  0.1210  0.2142
78593W        W21505  17.323  26.527  16.172 -0.0402 -0.1066 -0.3205
78594W        W21506  14.647  25.778  15.857  0.1345 -0.1027  0.0465
78595W        W21507  16.604  26.163  17.335 -0.1460 -0.3363  0.4179
78596W        W21508  16.458  25.386  16.227  0.3100  0.0654  0.1003
78597W        W21509  16.716  28.876  17.333  0.0751 -0.2530  0.0955
78598W        W21510  14.716  25.959  18.598 -0.1162  0.4248 -0.0182
78599W        W21511  16.184  28.322  19.277  0.0280  0.0806  0.0146
78600W        W21512  15.415  28.087  16.951 -0.0994 -0.1679  0.1866
78601W        W21513  17.917  28.876  19.196  0.1320  0.1019 -0.1502
78602W        W21514  15.343  28.659  20.100  0.0295 -0.2598 -0.0725
78603W        W21515  15.969  26.556  17.576  0.0206  0.0575  0.0563
78604W        W21516  17.598  29.577  16.819  0.0660  0.0683 -0.1236
78605W        W21517  17.575  29.262  17.289 -0.0654  0.0011  0.0247
78606W        W21518  16.692  30.383  15.789  0.2984  0.0616 -0.1357
78607W        W21519  14.723  27.048  16.933 -0.2217  0.0461  0.0358
78608W        W21520  14.588  27.804  22.014 -0.1590  0.0671  0.0951
78609W        W21521  13.541  27.347  21.234 -0.1908 -0.2229 -0.0735
78610W        W21522  14.762  26.127  16.571  0.0244 -0.2873  0.0243
78611W        W21523  17.620  28.611  19.666  0.0574  0.1863 -0.1825
78612W        W21524  14.367  27.718  18.096 -0.0081 -0.2121 -0.1968
78613W        W21525  16.766  26.498  17.732  0.3286 -0.0995  0.3991
78614W        W21526  16.541  27.314  18.974 -0.0901 -0.0133 -0.4002
78615W        W21527  18.154  28.090  19.079 -0.1372 -0.1583  0.0098
78616W        W21528  17.059  28.593  16.994 -0.2097  0.1995  0.3717
78617W        W21529  17.380  24.981  16.627 -0.0876  0.0723 -0.1485
78618W        W21530  17.942  26.293  16.031  0.3703 -0.1409  0.2506
78619W        W21531  15.463  26.526  16.919 -0.1332 -0.0845 -0.0086
78620W        W21532  15.699  26.851  17.257 -0.2728  0.1915 -0.0871
78621W        W21533  17.509  28.460  18.338 -0.0432 -0.1722  0.3241
78622W        W21534  17.643  26.274  17.360  0.0508 -0.0952  0.0803
78623W        W21535  14.808  28.875  20.633  0.1250  0.1361  0.4424
78624W        W21536  17.104  26.061  18.604 -0.3074  0.2729  0.1466
78625W        W21537  16.801  28.825  18.795 -0.0548 -0.0678  0.0458
78626W        W21538  14.968  28.881  17.557 -0.0452 -0.3076  0.2611
78627W        W21539  14.515  28.873  20.093 -0.2912  0.1304 -0.1035
78628W        W21540  15.024  27.971  16.164 -0.0840  0.2235 -0.0808
78629W        W21541  15.525  26.308  17.367 -0.2581  0.0823 -0.1802
78630W        W21542  16.334  27.589  18.539 -0.0728 -0.2706  0.3917
78631W        W21543  17.844  26.152  16.560  0.2601  0.1009  0.3297
78632W        W21544  14.739  26.380  19.756  0.1715  0.1138  0.0017
78633W        W21545  18.261  26.237  18.731  0.0381 -0.0063  0.1825
78634W        W21546  15.556  27.281  17.480  0.1550  0.1679 -0.1139
78635W        W21547  17.102  29.266  17.576 -0.1116 -0.1746 -0.0318
78636W        W21548  18.281  28.847  17.796 -0.1898  0.1002  0.2700
78637W        W21549  18.417  28.376  16.124  0.1236  0.0353 -0.0705
78638W        W21550  16.467  27.119  17.783 -0.0319 -0.1154  0.0825
78639W        W21551  14.662  26.490  17.020 -0.1000  0.0119 -0.0269
78640W        W21552  15.019  26.867  19.902  0.3726  0.0097 -0.0737
78641W        W21553  14.191  26.042  18.562 -0.0794  0.3307  0.0587
78642W        W21554  17.405  27.574  19.258 -0.0766  0.0989  0.1200
78643W        W21555  13.803  27.096  16.152  0.0452 -0.0906 -0.0938
78644W        W21556  17.556  26.867  17.620  0.0328  0.0032 -0.1185
78645W        W21557  15.506  27.380  18.818 -0.1636 -0.2286  0.0833
78646W        W21558  14.922  28.066  17.145 -0.2510 -0.1728  0.0765
78647W        W21559  17.439  27.000  19.405 -0.1957 -0.1618 -0.1975
78648W        W21560  18.010  29.253  17.509 -0.4555  0.1757  0.0331
78649W        W21561  19.572  29.655  20.575 -0.0486  0.0063 -0.3861
78650W        W21562  17.964  27.008  17.895 -0.0687 -0.1522  0.1151
78651W        W21563  15.917  26.390  18.662 -0.2112 -0.5596 -0.0104
78652W        W21564  14.289  26.551  15.712  0.2665  0.2241  0.3817
78653W        W21565  16.267  29.009  18.541 -0.1351  0.0594  0.1844
78654W        W21566  16.100  28.948  17.053 -0.2308 -0.2747  0.2960
78655W        W21567  15.106  26.729  17.131  0.0619 -0.1676  0.1072
78656W        W21568  17.668  29.770  17.284 -0.0983 -0.1690 -0.0819
78657W        W21569  15.946  27.497  16.161  0.0700  0.0703 -0.0274
78658W        W21570  14.257  28.300  20.775  0.2253  0.0450  0.1313
78659W        W21571  17.109  26.042  18.074  0.2741  0.0229 -0.2609
78660W        W21572  18.969  27.711  18.550  0.1883 -0.0393  0.0392
78661W        W21573  16.529  26.720  16.823  0.0702  0.2155 -0.2679
78662W        W21574  13.839  26.585  15.997 -0.0716 -0.5251 -0.3859
78663W        W21575  16.652  29.205  17.845 -0.1233  0.1022  0.3329
78664W        W21576  14.437  28.343  17.363 -0.0842 -0.0778 -0.0788
78665W        W21577  14.458  28.367  16.848 -0.1254 -0.0522 -0.2620
78666W        W21578  16.060  29.815  16.482 -0.1466 -0.1403 -0.0916
78667W        W21579  17.837  26.515  17.773  0.1066  0.0246 -0.1546
78668W        W21580  14.146  26.616  21.830  0.0513  0.1479 -0.0806
78669W        W21581  15.935  27.409  19.066 -0.0427  0.1422  0.1205
78670W        W21582  15.919  26.963  16.150 -0.3130  0.0105  0.1116
78671W        W21583  15.553  27.694  20.176  0.1632 -0.0787  0.3376
78672W        W21584  16.854  24.982  18.122 -0.1386 -0.1914  0.0734
78673W        W21585  17.937  27.562  16.442 -0.1932  0.0829 -0.1921
78674W        W21586  16.267  28.453  20.005  0.4783 -0.0097 -0.1167
78675W        W21587  18.463  28.613  16.543  0.1317  0.0538 -0.1123
78676W        W21588  16.694  27.618  15.903 -0.0047  0.0978  0.1298
78677W        W21589  17.759  25.815  16.155 -0.1050  0.2276 -0.1987
78678W        W21590  14.767  28.993  19.639 -0.3420  0.0474  0.0398
78679W        W21591  16.832  27.887  17.672  0.0445  0.3133  0.0561
78680W        W21592  16.364  26.641  18.623 -0.2376  0.1818  0.1610
78681W        W21593  16.382  25.935  15.399 -0.0553 -0.1207  0.1205
78682W        W21594  17.832  29.283  16.488  0.0536  0.0847 -0.1341
78683W        W21595  16.254  28.778  19.621  0.1985 -0.0307 -0.3999
78684W        W21596  16.397  29.732  19.657  0.0086 -0.3495 -0.0785
78685W        W21597  18.169  28.383  17.620 -0.0458 -0.1908  0.0001
78686W        W21598  15.843  26.994  19.319  0.1185  0.3014 -0.0505
78687W        W21599  13.376  27.387  15.886  0.4407  0.0689  0.3170
78688W        W21600  16.386  25.429  16.717  0.2038  0.0385  0.2418
78689W        W21601  14.905  30.584  16.741 -0.0936 -0.0906  0.2203
78690W        W21602  16.741  25.401  17.734  0.0988 -0.0633 -0.1116
78691W        W21603  17.139  24.742  17.355  0.1284 -0.1728 -0.0500
78692W        W21604  16.816  27.050  18.610  0.0204 -0.2822  0.1914
78693W        W21605  17.105  28.626  19.872  0.2565  0.0070 -0.0934
78694W        W21606  15.197  27.194  17.159 -0.0251 -0.1017  0.0508
78695W        W21607  16.944  28.715  18.320  0.1785  0.0893  0.1090
78696W        W21608  14.781  26.893  15.787  0.2521  0.0845  0.0616
78697W        W21609  16.168  26.064  19.645 -0.4257  0.0682 -0.1155
78698W        W21610  15.625  27.804  19.058  0.2005  0.0895  0.0621
78699W        W21611  15.137  27.923  20.283  0.2942 -0.2363 -0.2238
78700W        W21612  17.126  27.949  19.450  0.0136 -0.1107  0.0939
78701W        W21613  16.500  27.519  17.080 -0.0360  0.0329 -0.0529
78702W        W21614  17.717  27.845  19.020 -0.1425 -0.0745  0.0608
78703W        W21615  16.654  24.980  15.976  0.2054 -0.1432 -0.0052
78704W        W21616  16.586  28.475  16.051 -0.0768 -0.0483 -0.1415
78705W        W21617  16.556  28.717  16.866 -0.0628  0.0717  0.3311
78706W        W21618  14.536  26.956  19.366  0.2662 -0.0185  0.0647
78707W        W21619  15.445  28.054  19.427  0.1832  0.2634  0.1141
78708W        W21620  16.074  27.982  16.285 -0.1480 -0.0199  0.0270
78709W        W21621  17.274  28.579  18.751 -0.2440 -0.2355  0.0330
78710W        W21622  15.971  28.494  17.920 -0.1590 -0.1491  0.0650
78711W        W21623  17.279  26.433  17.725 -0.0966 -0.3177 -0.0995
78712W        W21624  15.482  29.162  17.738  0.0631  0.0336 -0.0709
78713W        W21625  16.322  28.480  16.492  0.0001 -0.2097 -0.2408
78714W        W21626  14.397  27.924  17.098  0.0515  0.0514 -0.0523
78715W        W21627  17.958  26.943  16.915 -0.2227  0.0496  0.3993
78716W        W21628  18.570  27.078  17.878 -0.2141 -0.1040 -0.0527
78717W        W21629  15.860  27.350  18.004 -0.3356  0.1926 -0.0472
78718W        W21630  16.802  26.443  18.759 -0.0343 -0.1892  0.0080
78719W        W21631  13.955  28.576  17.600  0.1099  0.0759  0.1436
78720W        W21632  16.504  27.741  18.096  0.1646  0.0040 -0.1995
78721W        W21633  17.822  25.453  15.627  0.0124 -0.1984  0.0902
78722W        W21634  18.182  27.846  17.884 -0.3318 -0.1593 -0.1451
78723W        W21635  15.316  27.662  19.732 -0.2090 -0.0425 -0.1042
78724W        W21636  14.961  26.635  16.652  0.1257  0.0293  0.3775
78725W        W21637  16.887  28.172  19.913  0.2046  0.1314 -0.1818
78726W        W21638  15.983  27.462  17.165 -0.0375 -0.0478 -0.2608
78727W        W21639  15.107  27.703  18.728  0.2046 -0.0175  0.1407
78728W        W21640  16.350  28.635  17.610  0.2628 -0.1967 -0.2357
78729W        W21641  15.491  27.720  15.992 -0.1081  0.0699 -0.3179
78730W        W21642  14.893  28.335  17.527  0.0813 -0.1782 -0.0422
78731W        W21643  14.377  26.776  19.823  0.0990 -0.2428  0.2615
78732W        W21644  18.208  27.375  17.628 -0.0560  0.0970 -0.2951
78733W        W21645  17.311  27.484  17.719 -0.4059 -0.3066  0.0674
78734W        W21646  15.186  26.134  16.948 -0.0578 -0.2730 -0.3087
78735W        W21647  17.938  25.231  19.051 -0.4799 -0.1179 -0.1732
78736W        W21648  18.123  28.504  19.521 -0.1689 -0.1199  0.2167
78737W        W21649  15.853  26.735  18.325  0.0854 -0.1752  0.0293
78738W        W21650  15.583  28.663  20.592  0.2767  0.0792 -0.0562
78739W        W21651  14.677  25.339  18.287  0.0377 -0.0666 -0.1071
78740W        W21652  19.475  28.054  17.116 -0.0397 -0.0230  0.0924
78741W        W21653  17.007  29.065  20.202 -0.3666 -0.2414 -0.0575
78742W        W21654  15.925  27.654  16.695  0.3106  0.0239  0.2373
78743W        W21655  15.063  27.715  19.278  0.1033  0.2239 -0.2728
78744W        W21656  16.368  27.593  17.604 -0.1553 -0.1346 -0.0313
78745W        W21657  16.069  26.552  19.084  0.0726 -0.1715 -0.0639
78746W        W21658  15.249  28.184  18.959  0.2626 -0.0429  0.1016
78747W        W21659  15.300  27.696  16.527 -0.1949 -0.0825 -0.1950
78748W        W21660  14.716  28.459  18.773 -0.1833  0.1270  0.1433
78749W        W21661  17.948  25.126  15.981 -0.0509  0.0903  0.0619
78750W        W21662  17.538  28.810  16.989  0.3847 -0.0480 -0.0424
78751W        W21663  16.243  26.220  16.182  0.0078  0.0790 -0.5379
78752W        W21664  19.098  26.310  20.005  0.2146  0.0234  0.0263
78753W        W21665  16.389  27.586  16.405 -0.5526  0.1901 -0.2685
78754W        W21666  16.374  25.121  19.625  0.1396  0.1951 -0.3212
78755W        W21667  14.762  26.742  17.869  0.1799 -0.0211  0.3249
78756W        W21668  17.762  28.125  18.638 -0.2008 -0.0237  0.0126
78757W        W21669  14.045  27.001  19.486 -0.1555 -0.0605  0.2523
78758W        W21670  16.525  30.478  19.158 -0.0524  0.1174 -0.0991
78759W        W21671  15.427  28.381  21.727  0.0593 -0.1994  0.0392
78760W        W21672  15.727  26.209  16.412 -0.0468 -0.2292 -0.0914
78761W        W21673  14.624  26.395  16.071 -0.1154  0.0351  0.0966
78762W        W21674  16.168  26.993  18.913 -0.1501  0.0512  0.0883
78763W        W21675  18.667  27.588  18.134  0.2341  0.3333  0.1021
78764W        W21676  16.245  28.447  17.138 -0.3262  0.2556 -0.1796
78765W        W21677  17.151  26.467  18.267  0.0581  0.0181  0.1244
78766W        W21678  16.115  28.242  18.461 -0.2458  0.2653  0.2265
78767W        W21679  16.856  27.341  16.335  0.1333  0.0288 -0.0892
78768W        W21680  16.502  28.006  17.262  0.0829  0.1415  0.0197
78769W        W21681  16.135  27.178  16.546  0.1713 -0.0009 -0.0447
78770W        W21682  14.712  28.039  20.508  0.0140  0.2657  0.1111
78771W        W21683  16.641  29.192  16.906  0.0695  0.1124  0.3902
78772W        W21684  16.569  25.827  16.438 -0.1966 -0.1615 -0.5586
78773W        W21685  16.381  25.320  18.838  0.2576  0.0936  0.1510
78774W        W21686  17.842  26.479  18.615  0.0747  0.0333  0.0381
78775W        W21687  15.119  26.482  20.735  0.0579 -0.0703 -0.0839
78776W        W21688  13.863  26.946  20.344  0.0348  0.2065 -0.1345
78777W        W21689  18.476  28.906  19.946  0.0328 -0.1515 -0.1347
78778W        W21690  18.536  27.608  16.520 -0.1666  0.0168 -0.0134
78779W        W21691  16.905  26.776  19.485  0.1312  0.3461  0.0778
78780W        W21692  17.340  27.064  18.042  0.2125  0.1229 -0.0016
78781W        W21693  16.060  26.602  15.845  0.3788  0.1097  0.0128
78782W        W21694  16.313  26.203  17.785 -0.0130  0.1116  0.1093
78783W        W21695  16.453  27.950  19.844 -0.1582  0.0797  0.0739
78784W        W21696  15.055  26.664  16.110  0.0300  0.1738  0.4845
78785W        W21697  16.963  27.658  19.020  0.0790 -0.1871  0.0594
78786W        W21698  17.137  27.408  16.869 -0.0459 -0.1785  0.0455
78787W        W21699  17.505  27.970  18.094  0.1977  0.3269  0.0337
78788W        W21700  16.764  26.126  16.873 -0.0704 -0.1249 -0.0303
78789W        W21701  15.070  27.283  18.465  0.0522  0.2200  0.2854
78790W        W21702  14.511  28.806  19.238  0.2195  0.0081 -0.2826
78791W        W21703  14.367  26.842  16.128  0.3617 -0.3378  0.1301
78792W        W21704  15.487  27.558  16.983  0.0492 -0.1300  0.1493
78793W        W21705  16.224  29.013  19.149  0.2337  0.2579  0.0199
78794W        W21706  17.360  28.024  19.881 -0.2017  0.1025  0.3919
78795W        W21707  16.393  26.774  16.189  0.1263 -0.2007 -0.0022
78796W        W21708  18.146  27.095  18.762  0.2239 -0.3335  0.0340
78797W        W21709  15.879  27.757  18.600  0.2729  0.2286 -0.3355
78798W        W21710  15.984  25.094  17.342  0.1407  0.3232  0.1990
78799W        W21711  15.322  28.207  19.889 -0.1526 -0.2387  0.1199
78800W        W21712  13.978  27.799  20.744  0.3079 -0.1300 -0.0905
78801W        W21713  16.160  28.048  18.906  0.3142  0.0441 -0.0354
78802W        W21714  16.429  26.273  19.230 -0.1898 -0.1649  0.0222
78803W        W21715  17.462  26.771  17.094  0.0645  0.1876  0.0266
78804W        W21716  17.033  26.542  16.751 -0.0682 -0.1116 -0.3082
78805W        W21717  18.178  27.598  19.000  0.1056 -0.0585 -0.0449
78806W        W21718  16.429  28.611  18.287  0.1042 -0.1950 -0.0428
78807W        W21719  17.044  27.862  18.123 -0.0271  0.2113 -0.1509
78808W        W21720  17.948  28.203  18.189 -0.1443  0.1384 -0.0328
78809W        W21721  18.656  28.045  17.444  0.2998 -0.3650  0.3121
78810W        W21722  14.948  28.607  19.238  0.1605  0.1938  0.3828
78811W        W21723  13.750  28.216  20.441  0.1068 -0.1092  0.0688
78812W        W21724  17.252  28.155  21.648 -0.2073 -0.3616  0.2249
78813W        W21725  17.242  29.526  18.159 -0.1243  0.0003  0.0514
78814W        W21726  15.307  25.681  17.004  0.2846  0.1637  0.1254
78815W        W21727  15.763  28.156  15.901 -0.1381  0.2075 -0.0119
78816W        W21728  13.519  28.432  19.400  0.2479  0.1561  0.0518
78817W        W21729  14.260  28.460  21.264  0.0271 -0.0229 -0.0361
78818W        W21730  14.240  29.401  16.544 -0.2027  0.1195 -0.1205
78819W        W21731  18.470  28.323  16.987  0.1321 -0.1612  0.1942
78820W        W21732  18.233  27.359  18.146 -0.0369  0.2403  0.0168
78821W        W21733  17.728  28.800  18.685  0.1305  0.0831 -0.0044
78822W        W21734  16.915  26.865  16.314  0.0753 -0.1825 -0.1308
78823W        W21735  16.069  29.260  19.610 -0.2451  0.2448  0.1979
78824W        W21736  15.148  28.517  17.081 -0.0924 -0.2133 -0.2675
78825W        W21737  18.048  27.755  17.267  0.1207 -0.2064  0.0947
78826W        W21738  14.792  29.587  16.681  0.1729 -0.2771 -0.1841
78827W        W21739  16.610  28.461  19.590  0.1280 -0.2123  0.3575
78828W        W21740  17.340  27.082  16.034 -0.3242 -0.0319  0.2275
78829W        W21741  19.274  28.709  17.658  0.2429  0.3192 -0.0957
78830W        W21742  17.166  28.416  17.928 -0.2882 -0.0467 -0.3130
78831W        W21743  15.883  28.684  18.754 -0.3397 -0.1113 -0.1380
78832W        W21744  15.770  26.063  19.312 -0.0824 -0.1495 -0.0236
78833W        W21745  15.110  25.773  16.507  0.2434  0.0268 -0.0475
78834W        W21746  15.508  27.229  20.133 -0.1400  0.0046 -0.3956
78835W        W21747  18.508  25.986  19.095 -0.1061 -0.1043  0.1355
78836W        W21748  15.928  29.086  20.519 -0.1343  0.1438  0.1396
78837W        W21749  18.074  29.451  16.105  0.0852 -0.1115 -0.1787
78838W        W21750  13.796  27.381  18.720 -0.0834  0.1761 -0.2482
78839W        W21751  16.791  27.718  16.791  0.1687  0.0445 -0.1401
78840W        W21752  17.805  25.164  18.525  0.1307 -0.0294  0.0534
78841W        W21753  15.600  26.503  16.052  0.3344 -0.0155  0.3697
78842W        W21754  17.270  25.954  16.909 -0.2069  0.0844 -0.2194
78843W        W21755  15.914  28.246  16.722  0.0766  0.2500 -0.0101
78844W        W21756  15.954  28.799  16.583  0.3257 -0.3417 -0.0850
78845W        W21757  16.767  28.735  17.872 -0.2521  0.0729 -0.1427
78846W        W21758  13.905  25.852  16.561 -0.0827 -0.1768  0.0541
78847W        W21759  18.318  27.078  16.388 -0.1972  0.1900  0.0854
78848W        W21760  15.424  27.480  20.788  0.2236 -0.3749  0.1058
78849W        W21761  16.905  26.308  19.239 -0.0382  0.1261 -0.0186
78850W        W21762  14.866  25.428  16.855 -0.1184 -0.1026 -0.1776
78851W        W21763  16.988  26.491  17.325  0.0955 -0.0224  0.2899
78852W        W21764  16.577  26.720  19.107 -0.0539 -0.1467 -0.0171
78853W        W21765  15.424  26.604  18.547  0.0613  0.1135 -0.2850
78854W        W21766  14.471  27.459  15.810 -0.2693 -0.1550 -0.0655
78855W        W21767  18.591  28.136  19.307 -0.0063  0.3508  0.2141
78856W        W21768  16.627  27.199  16.730 -0.0196 -0.3347 -0.1498
78857W        W21769  17.848  28.459  20.079 -0.0687  0.0400  0.1292
78858W        W21770  14.228  27.049  17.118  0.0236 -0.0889  0.2537
78859W        W21771  18.115  25.578  17.444  0.2641 -0.2268 -0.2150
78860W        W21772  15.199  26.506  18.112  0.3078 -0.0266  0.1043
78861W        W21773  15.483  27.089  18.387  0.1436  0.2762  0.2400
78862W        W21774  18.693  29.399  18.999  0.1608  0.0662 -0.0122
78863W        W21775  13.836  25.733  17.237 -0.2171  0.1327  0.1682
78864W        W21776  17.050  27.766  16.148 -0.1707 -0.2088  0.0901
78865W        W21777  18.484  27.488  18.609 -0.0019 -0.0198  0.2593
78866W        W21778  16.754  28.232  16.883 -0.0396 -0.3531 -0.1534
78867W        W21779  17.708  28.113  17.548  0.2534 -0.3370  0.0135
78868W        W21780  17.832  29.365  19.397  0.0869 -0.2513  0.1212
78869W        W21781  14.635  27.413  19.149  0.1815  0.1140  0.0574
78870W        W21782  17.420  28.928  19.145  0.3682 -0.3323  0.2103
78871W        W21783  18.361  27.955  18.400 -0.0924  0.2473  0.0249
78872W        W21784  17.403  25.428  16.870  0.0404  0.0045 -0.2059
78873W        W21785  14.621  27.699  18.572 -0.2431 -0.0793 -0.1777
78874W        W21786  15.570  28.587  18.247 -0.0688 -0.1415 -0.1096
78875W        W21787  18.416  26.366  17.471  0.0041 -0.0303  0.3281
78876W        W21788  18.380  25.818  17.987 -0.2287  0.1838 -0.0465
78877W        W21789  16.507  29.971  16.189 -0.0323 -0.0045  0.2581
78878W        W21790  17.373  26.850  18.577  0.1635 -0.0314 -0.1485
78879W        W21791  15.579  28.136  17.964  0.2466 -0.1177 -0.0006
78880W        W21792  15.614  29.229  21.566  0.2622  0.0907  0.2511
78881W        W21793  13.943  27.490  15.779 -0.2750 -0.1203  0.0575
78882W        W21794  16.349  27.142  19.403  0.2688 -0.0002  0.0303
78883W        W21795  16.536  29.737  16.917  0.0369  0.0808  0.2763
78884W        W21796  17.129  29.118  17.123  0.1434  0.1266  0.1006
78885W        W21797  17.854  27.058  18.383  0.3951 -0.0586 -0.1366
78886W        W21798  16.024  27.089  17.562  0.4344  0.0985 -0.2087
78887W        W21799  18.389  28.753  17.272 -0.0209 -0.1761 -0.0018
78888W        W21800  16.279  26.668  18.004  0.0599 -0.1013 -0.0146
78889W        W21801  18.284  27.072  17.270  0.0632  0.2917  0.2104
78890W        W21802  17.586  26.552  16.646  0.2600  0.3374 -0.1680
78891W        W21803  16.937  27.284  19.346  0.1535 -0.0044 -0.5406
78892W        W21804  14.136  27.061  15.724 -0.3257 -0.0632 -0.0719
78893W        W21805  15.858  28.449  16.256 -0.6492 -0.2720 -0.0130
78894W        W21806  16.587  27.640  19.388 -0.0126  0.0480  0.0596
78895W        W21807  16.694  26.036  20.578 -0.0113  0.0556 -0.0427
78896W        W21808  16.314  27.345  20.599  0.2168  0.0101  0.2489
78897W        W21809  15.484  26.535  19.210  0.1503 -0.0220  0.0392
78898W        W21810  14.858  24.963  17.028 -0.2074 -0.2209  0.3615
78899W        W21811  17.905  29.150  16.954 -0.0481  0.3274  0.0911
78900W        W21812  16.417  25.831  16.949  0.2432  0.1298  0.0110
78901W        W21813  13.369  25.614  18.825 -0.0657  0.2881 -0.0412
78902W        W21814  17.803  27.274  17.308  0.2895  0.3439  0.0807
78903W        W21815  17.413  28.264  17.169  0.2630  0.3791  0.0635
78904W        W21816  15.630  25.720  16.386 -0.2007 -0.0341  0.0228
78905W        W21817  17.787  28.690  20.554 -0.1994 -0.2394 -0.2658
78906W        W21818  13.972  28.099  16.854  0.3062 -0.1763  0.0695
78907W        W21819  15.780  26.761  20.066 -0.0788  0.0001  0.1593
78908W        W21820  15.601  26.713  20.703 -0.3028  0.3557 -0.2488
78909W        W21821  15.223  26.310  16.452  0.1385  0.3537 -0.2037
78910W        W21822  17.349  27.786  18.535 -0.0034  0.0951 -0.1692
78911W        W21823  15.842  27.805  17.588 -0.3826 -0.1081  0.2413
78912W        W21824  16.959  29.482  16.675 -0.0803  0.2031 -0.1893
78913W        W21825  16.703  28.208  18.053 -0.2468 -0.2522 -0.0612
78914W        W21826  14.450  29.369  19.904  0.1372  0.0964 -0.0281
78915W        W21827  15.059  25.697  19.601 -0.0653  0.0234 -0.1889
78916W        W21828  17.514  27.724  17.266  0.0841  0.0162  0.0565
78917W        W21829  14.784  30.312  20.611  0.0927 -0.1407 -0.1327
78918W        W21830  18.618  28.143  16.520 -0.1151  0.1434 -0.3273
78919W        W21831  18.601  26.328  18.363  0.1904  0.2945  0.0473
78920W        W21832  17.267  28.111  18.990 -0.0428  0.2039  0.3735
78921W        W21833  15.725  26.156  19.941 -0.1108 -0.3151  0.1148
78922W        W21834  15.012  28.422  20.413  0.0465 -0.2616 -0.3637
78923W        W21835  17.313  27.222  17.310  0.1197 -0.2120  0.1213
78924W        W21836  16.042  26.089  17.316 -0.2851  0.4985 -0.1499
78925W        W21837  16.890  25.572  16.751  0.2147 -0.0972 -0.0508
78926W        W21838  16.614  28.011  16.410  0.3850  0.0383 -0.2133
78927W        W21839  14.218  27.383  18.463  0.0989 -0.0142 -0.0351
78928W        W21840  16.322  27.960  16.822  0.0970 -0.2300  0.2173
78929W        W21841  17.117  27.389  18.377 -0.0206 -0.2824  0.0004
78930W        W21842  14.835  28.622  16.688  0.0090 -0.1085  0.1120
78931W        W21843  19.325  27.178  19.720  0.4128  0.0318 -0.2383
78932W        W21844  16.054  26.628  16.498  0.3911  0.0728  0.1075
78933W        W21845  18.166  27.479  16.881  0.4006  0.1116 -0.1612
78934W        W21846  15.271  29.082  19.690 -0.1607 -0.1817 -0.1042
78935W        W21847  17.452  29.986  19.615 -0.4045  0.1251 -0.0686
78936W        W21848  17.183  28.270  16.200 -0.0978  0.1002  0.0112
78937W        W21849  17.017  26.080  19.774  0.1479  0.2414 -0.3711
78938W        W21850  14.457  26.465  18.469 -0.1990  0.2486 -0.0397
78939W        W21851  14.880  26.379  17.438 -0.4382 -0.0682  0.2122
78940W        W21852  16.220  27.035  17.111 -0.0997  0.2863  0.1211
78941W        W21853  17.436  27.287  18.819  0.3908 -0.1123 -0.3627
78942W        W21854  16.035  25.496  18.461  0.2774 -0.2688 -0.2566
78943W        W21855  17.186  25.704  17.722 -0.0542 -0.0057  0.0652
78944W        W21856  15.678  28.337  19.130 -0.0136 -0.0512  0.1324
78945W        W21857  17.858  27.333  19.205 -0.0545  0.2139  0.0290
78946W        W21858  15.567  30.114  23.005 -0.1663 -0.0706 -0.2359
78947W        W21859  16.444  27.670  21.568  0.1478 -0.3288  0.0804
78948W        W21860  17.861  26.941  20.806 -0.1146 -0.1104  0.0547
78949W        W21861  20.056  29.078  19.536  0.1436  0.1694 -0.0940
78950W        W21862  13.417  27.173  22.118  0.2360 -0.0761 -0.1036
78951W        W21863  17.096  29.263  20.671  0.1644  0.0317 -0.0931
78952W        W21864  15.024  26.347  22.277  0.3009  0.2977 -0.1178
78953W        W21865  17.740  28.287  21.667  0.0163  0.2000 -0.0336
78954W        W21866  17.029  28.742  22.297  0.0144  0.1558 -0.1084
78955W        W21867  17.063  27.122  19.813 -0.1649  0.4985 -0.3421
78956W        W21868  16.334  26.780  22.857 -0.0898 -0.0619 -0.0558
78957W        W21869  15.223  29.087  22.949 -0.2004 -0.0128 -0.0468
78958W        W21870  16.947  26.680  20.775 -0.2251 -0.3964 -0.1584
78959W        W21871  15.542  26.100  22.044  0.1760  0.1519 -0.0422
78960W        W21872  17.729  26.336  23.042 -0.1103  0.0477 -0.1038
78961W        W21873  14.938  27.612  20.687 -0.1085 -0.0251  0.2502
78962W        W21874  16.705  25.676  22.521 -0.0015 -0.0501  0.2361
78963W        W21875  17.459  26.620  20.585  0.0195  0.0062  0.0675
78964W        W21876  17.623  30.408  20.914 -0.2008 -0.2676  0.1729
78965W        W21877  15.631  25.295  23.014  0.0184 -0.0675  0.3993
78966W        W21878  17.550  26.932  22.289  0.0900  0.2702  0.1319
78967W        W21879  14.718  28.379  20.900  0.1996 -0.0880 -0.1296
78968W        W21880  14.316  26.922  20.811  0.1111  0.2373  0.1721
78969W        W21881  14.001  27.098  22.098  0.3351 -0.0816  0.0681
78970W        W21882  16.085  27.208  22.651  0.2113 -0.0432  0.1397
78971W        W21883  16.252  26.561  20.597  0.1427 -0.0360  0.1143
78972W        W21884  17.829  26.662  21.848 -0.0611 -0.1226 -0.0770
78973W        W21885  16.904  28.577  21.859  0.1755 -0.0667  0.0189
78974W        W21886  16.190  28.866  22.869  0.0889  0.1678  0.1090
78975W        W21887  16.506  27.167  24.005  0.3554 -0.0486 -0.5657
78976W        W21888  14.756  28.826  21.256 -0.1513 -0.0945 -0.3114
78977W        W21889  14.565  30.246  21.492 -0.1246  0.0455 -0.4193
78978W        W21890  14.647  29.810  21.222  0.0777  0.1273 -0.1036
78979W        W21891  18.528  28.008  20.273 -0.0046 -0.1435  0.2672
78980W        W21892  18.058  28.315  24.159 -0.2575  0.1389  0.2456
78981W        W21893  17.516  30.924  23.903  0.1179 -0.3092  0.1752
78982W        W21894  14.540  29.410  21.584 -0.1358 -0.1717  0.0176
78983W        W21895  15.547  29.620  22.505 -0.1230  0.2786  0.3078
78984W        W21896  16.126  29.060  23.844  0.2694  0.3271 -0.2211
78985W        W21897  16.940  27.703  21.661 -0.1500  0.2130  0.3179
78986W        W21898  16.174  27.949  21.165 -0.1514 -0.0547 -0.0338
78987W        W21899  15.955  29.336  18.769  0.0665 -0.1543  0.0777
78988W        W21900  16.394  28.327  22.149 -0.1398  0.2781  0.0172
78989W        W21901  14.515  28.397  22.128 -0.3177  0.0597 -0.0820
78990W        W21902  15.304  28.802  21.449 -0.1925  0.0236 -0.0165
78991W        W21903  17.819  26.987  23.903 -0.0530  0.0530 -0.0761
78992W        W21904  15.050  28.607  19.730  0.0171  0.1340 -0.1758
78993W        W21905  18.062  26.210  20.211 -0.1579 -0.0096  0.3932
78994W        W21906  14.672  27.198  20.652  0.5822 -0.1059  0.0922
78995W        W21907  16.674  27.194  20.170 -0.5329 -0.2617 -0.0708
78996W        W21908  15.486  25.711  21.693  0.1219  0.1070 -0.1729
78997W        W21909  15.196  29.535  21.819  0.3091 -0.1641  0.5772
78998W        W21910  17.203  26.448  23.065  0.0858 -0.0702  0.3442
78999W        W21911  17.467  28.316  24.193  0.0237 -0.2288 -0.0981
79000W        W21912  17.610  26.971  21.320 -0.0527  0.1028 -0.1683
79001W        W21913  16.098  27.691  22.597 -0.2310  0.0626  0.1374
79002W        W21914  15.948  29.827  23.229  0.1115  0.2984 -0.0860
79003W        W21915  13.908  27.646  21.459 -0.0146  0.1723 -0.3037
79004W        W21916  16.600  28.220  20.355  0.2004  0.0675  0.1792
79005W        W21917  18.948  27.863  21.236 -0.1363  0.2262 -0.2757
79006W        W21918  16.217  29.527  19.156 -0.2157  0.2702  0.1507
79007W        W21919  14.468  27.068  21.288 -0.1604  0.0704 -0.2385
79008W        W21920  13.653  27.888  22.659  0.1566  0.3205 -0.2595
79009W        W21921  15.264  28.516  22.778 -0.2136  0.1005 -0.3037
79010W        W21922  15.322  26.614  20.259  0.0713 -0.0771  0.1059
79011W        W21923  17.051  27.185  22.346  0.1126  0.1676  0.1157
79012W        W21924  15.246  29.767  24.204 -0.0587  0.3602  0.0074
79013W        W21925  18.364  26.415  20.684 -0.3356 -0.1769 -0.3183
79014W        W21926  15.742  28.112  21.469  0.1217 -0.0924  0.0983
79015W        W21927  16.382  29.338  21.943  0.1575 -0.0659  0.1464
79016W        W21928  17.557  29.263  20.398  0.0023  0.0637 -0.3249
79017W        W21929  17.859  26.401  21.306  0.0178 -0.2271 -0.0718
79018W        W21930  16.690  27.210  21.442  0.1480 -0.3566 -0.2948
79019W        W21931  14.523  28.435  20.350  0.1628  0.0516 -0.1290
79020W        W21932  14.254  28.885  20.527 -0.3558  0.1799 -0.2385
79021W        W21933  17.798  27.242  21.677 -0.3978 -0.0709 -0.1627
79022W        W21934  15.883  27.656  19.784 -0.0615  0.0145  0.1184
79023W        W21935  15.003  29.530  21.323 -0.3890  0.0231  0.1905
79024W        W21936  15.079  26.077  21.715 -0.2737 -0.2452  0.2505
79025W        W21937  17.443  29.804  23.047  0.2335 -0.0081 -0.1717
79026W        W21938  15.329  29.098  20.430 -0.2507  0.1322 -0.0051
79027W        W21939  13.314  28.996  21.582 -0.2864 -0.0494 -0.1982
79028W        W21940  13.733  28.931  19.740 -0.1531  0.1159  0.1208
79029W        W21941  14.030  26.783  23.340 -0.1091 -0.1356 -0.0129
79030W        W21942  15.613  29.395  23.018  0.2915  0.1902  0.2775
79031W        W21943  17.690  27.438  20.623  0.1093  0.2796  0.0329
79032W        W21944  15.009  26.039  23.920 -0.2065  0.0999  0.4791
79033W        W21945  18.336  27.710  22.280 -0.0394 -0.0106  0.0652
79034W        W21946  14.994  29.494  20.614  0.3117  0.2915 -0.1238
79035W        W21947  16.679  29.024  21.626  0.4496  0.0742  0.2792
79036W        W21948  18.867  28.697  21.573 -0.1291 -0.1105  0.0443
79037W        W21949  17.970  27.757  19.444 -0.0790 -0.0256 -0.0097
79038W        W21950  14.857  27.326  23.106 -0.4143  0.0166  0.4018
79039W        W21951  14.211  27.003  22.586 -0.1326  0.1245 -0.0401
79040W        W21952  14.187  23.900  24.244  0.0319  0.0206  0.2868
79041W        W21953  13.717  26.742  22.389 -0.0277 -0.0506  0.2395
79042W        W21954  17.368  27.304  22.007  0.1229 -0.1791 -0.0667
79043W        W21955  13.837  25.489  20.796  0.1226 -0.0314  0.2555
79044W        W21956  18.447  26.271  21.188  0.1965 -0.2249  0.0298
79045W        W21957  16.113  27.787  22.091  0.0454 -0.1244  0.1553
79046W        W21958  15.368  27.313  21.356 -0.2299  0.0445  0.2286
79047W        W21959  18.936  26.005  22.802  0.2225  0.2052 -0.0128
79048W        W21960  16.371  28.715  20.472 -0.2748  0.0041 -0.2021
79049W        W21961  17.640  29.169  23.942  0.1998 -0.0703  0.1104
79050W        W21962  17.554  28.796  22.301  0.0599  0.0320  0.2845
79051W        W21963  15.383  27.046  22.985 -0.1479 -0.1094 -0.0411
79052W        W21964  16.164  26.968  20.896  0.0483 -0.0157 -0.0760
79053W        W21965  14.893  30.743  20.886  0.3418  0.0870  0.0141
79054W        W21966  16.512  28.236  22.971  0.1372 -0.0872  0.0387
79055W        W21967  16.193  26.904  22.265  0.1009 -0.0095  0.1005
79056W        W21968  18.032  28.578  21.372 -0.2576 -0.0412  0.2616
79057W        W21969  16.090  28.426  20.736  0.0796 -0.2177 -0.2849
79058W        W21970  15.599  29.046  22.488  0.0503  0.2901 -0.0480
79059W        W21971  16.811  26.366  22.016  0.1618  0.4838  0.2749
79060W        W21972  17.367  26.944  22.769 -0.0517  0.0797  0.1454
79061W        W21973  16.726  27.149  20.946 -0.3646 -0.2327  0.1987
79062W        W21974  13.985  26.060  20.176  0.3738  0.2431 -0.2009
79063W        W21975  15.551  30.134  21.190 -0.2537 -0.0933 -0.1992
79064W        W21976  14.559  29.739  20.756  0.2172 -0.2143  0.2405
79065W        W21977  14.057  27.126  21.581  0.2335  0.2118 -0.0232
79066W        W21978  15.180  28.058  20.771 -0.0371  0.1405  0.2058
79067W        W21979  16.973  26.042  23.392  0.1412  0.1723  0.2028
79068W        W21980  14.704  27.653  23.826 -0.1926 -0.1636 -0.2490
79069W        W21981  17.101  26.541  22.546 -0.3326 -0.3540 -0.2689
79070W        W21982  14.964  28.169  21.894  0.4953 -0.1720  0.2076
79071W        W21983  15.275  30.561  22.891  0.2356  0.2046  0.2870
79072W        W21984  17.382  26.543  21.073  0.0697  0.0823  0.1426
79073W        W21985  18.157  26.013  20.905  0.0447  0.1088  0.2873
79074W        W21986  16.314  28.300  23.425 -0.2403  0.1384 -0.1743
79075W        W21987  17.028  28.430  20.364 -0.2711  0.5166 -0.0797
79076W        W21988  17.629  27.837  20.351  0.0980  0.0333  0.2447
79077W        W21989  18.463  26.982  19.944  0.0959  0.1682 -0.1657
79078W        W21990  14.812  29.647  24.476  0.0725 -0.0245 -0.1751
79079W        W21991  16.054  29.501  20.711 -0.0811  0.1022  0.0546
79080W        W21992  17.164  27.956  23.306 -0.1361  0.3601  0.2886
79081W        W21993  16.891  27.653  19.823 -0.3442 -0.3297  0.0974
79082W        W21994  16.756  28.867  20.784 -0.2612  0.0081 -0.1566
79083W        W21995  15.182  29.178  22.289 -0.1670 -0.2810  0.1811
79084W        W21996  15.610  27.895  24.070 -0.1233  0.0755 -0.2913
79085W        W21997  16.802  28.198  21.370  0.1023 -0.0227  0.1653
79086W        W21998  15.566  26.417  22.504 -0.0595 -0.1883  0.2710
79087W        W21999  16.011  27.495  20.255  0.4257  0.1022 -0.1775
79088W        W22000  16.803  25.435  21.318  0.0426  0.2684  0.0805
79089W        W22001  14.699  28.206  18.341  0.2088 -0.0021  0.3520
79090W        W22002  17.009  25.627  23.722  0.1479 -0.0261 -0.0803
79091W        W22003  16.396  25.141  22.076  0.0853 -0.0925  0.0039
79092W        W22004  14.822  25.439  23.755 -0.2489 -0.0733 -0.2102
79093W        W22005  17.608  26.587  22.607 -0.0151  0.2044 -0.0412
79094W        W22006  17.986  27.333  21.049  0.2649 -0.0085 -0.0958
79095W        W22007  17.782  27.119  22.641 -0.0598 -0.1892  0.1438
79096W        W22008  14.977  27.248  19.599 -0.1736 -0.0859  0.2233
79097W        W22009  16.947  25.986  22.869  0.1512 -0.4251  0.3799
79098W        W22010  15.058  28.036  22.367  0.2689  0.0893  0.2819
79099W        W22011  15.055  29.599  23.790  0.2037  0.1453  0.0477
79100W        W22012  17.614  27.654  23.495 -0.1258 -0.1166 -0.2174
79101W        W22013  17.261  27.647  20.740  0.0821  0.2250  0.1367
79102W        W22014  16.069  24.834  23.281  0.0826 -0.1445  0.2427
79103W        W22015  16.097  25.941  20.215  0.2927  0.1107 -0.0306
79104W        W22016  15.256  30.109  22.004  0.1427  0.0615  0.3183
79105W        W22017  15.870  28.256  19.743 -0.2063  0.0334  0.1008
79106W        W22018  15.686  26.916  22.547  0.4900 -0.0854 -0.0086
79107W        W22019  17.367  29.269  22.206  0.0815 -0.0044 -0.2027
79108W        W22020  13.498  28.676  21.249 -0.2022  0.0353 -0.2069
79109W        W22021  16.096  27.838  23.964 -0.0426  0.2354 -0.1279
79110W        W22022  14.072  30.394  21.557 -0.3131 -0.3741  0.1610
79111W        W22023  16.550  24.696  22.238  0.3321 -0.3369 -0.4436
79112W        W22024  13.925  29.811  22.104  0.2738  0.3554  0.0782
79113W        W22025  14.042  26.548  20.567 -0.1557  0.0609  0.2175
79114W        W22026  14.143  26.169  21.637  0.1051 -0.3143  0.2179
79115W        W22027  17.687  27.080  20.218 -0.2027  0.3417 -0.1326
79116W        W22028  18.085  27.919  21.844  0.4171 -0.0854  0.0203
79117W        W22029  15.318  27.055  21.733 -0.2566 -0.2174  0.1067
79118W        W22030  16.670  26.769  22.357 -0.0056  0.0397  0.0253
79119W        W22031  14.800  28.810  22.466  0.0966  0.0772  0.0970
79120W        W22032  17.307  28.892  22.711 -0.2974 -0.1628 -0.0560
79121W        W22033  16.375  27.458  19.780  0.0209  0.2203 -0.0172
79122W        W22034  17.887  29.744  22.643 -0.1275 -0.0963 -0.0658
79123W        W22035  15.436  28.858  21.956 -0.0973 -0.1102 -0.0200
79124W        W22036  14.946  26.593  21.814  0.1040 -0.4362  0.3610
79125W        W22037  17.279  28.449  23.155 -0.3098 -0.1117 -0.4095
79126W        W22038  17.269  27.133  20.820  0.1958 -0.2743 -0.2537
79127W        W22039  14.036  29.115  20.098  0.2832 -0.1593  0.0765
79128W        W22040  16.575  27.984  22.560 -0.4446 -0.1850  0.1819
79129W        W22041  16.187  27.209  21.366  0.1896 -0.1670 -0.0101
79130W        W22042  14.309  28.881  21.058 -0.0258 -0.0480 -0.0545
79131W        W22043  15.228  25.599  24.104 -0.4807 -0.0646 -0.0380
79132W        W22044  16.458  27.539  21.037 -0.1551 -0.1082  0.1203
79133W        W22045  14.921  27.411  21.599 -0.2376  0.3465 -0.1056
79134W        W22046  14.963  26.422  21.331  0.0424 -0.0059 -0.2097
79135W        W22047  16.551  26.747  21.152 -0.0529  0.2171  0.2077
79136W        W22048  17.521  27.884  22.434 -0.0032  0.0245 -0.2446
79137W        W22049  17.581  27.472  24.638 -0.1454  0.0718  0.1113
79138W        W22050  15.195  29.424  23.309 -0.2337 -0.0487 -0.0666
79139W        W22051  17.229  23.921  23.108  0.0398  0.1464  0.0507
79140W        W22052  19.404  29.362  20.914  0.0379 -0.0936  0.0502
79141W        W22053  17.007  27.342  24.069 -0.3208 -0.1380 -0.1055
79142W        W22054  14.233  27.956  21.647 -0.0755 -0.0512 -0.3368
79143W        W22055  15.300  27.219  22.467 -0.4372 -0.0233  0.2078
79144W        W22056  14.110  28.492  20.029 -0.1015  0.3097  0.2352
79145W        W22057  16.659  26.402  22.824 -0.1258  0.0753 -0.3088
79146W        W22058  14.150  29.393  21.890  0.0758 -0.1982  0.1003
79147W        W22059  15.169  28.633  20.911 -0.2375 -0.2385  0.2394
79148W        W22060  14.465  29.203  24.429  0.0072 -0.2259 -0.0572
79149W        W22061  18.194  26.223  21.645  0.0689 -0.1920 -0.1380
79150W        W22062  16.082  27.791  19.334 -0.2495  0.3133 -0.1628
79151W        W22063  17.077  26.081  22.401  0.0547  0.2822 -0.0875
79152W        W22064  19.303  26.874  22.167  0.2393  0.2399 -0.1932
79153W        W22065  18.557  27.022  21.259 -0.0197 -0.0427 -0.2785
79154W        W22066  16.378  25.262  21.553  0.0229  0.0162 -0.1224
79155W        W22067  16.598  26.144  22.423  0.1048  0.2092  0.0380
79156W        W22068  17.382  26.541  21.631  0.1809 -0.0356  0.1530
79157W        W22069  14.901  26.724  23.170 -0.0346 -0.2695  0.1380
79158W        W22070  17.706  28.869  24.785 -0.1343 -0.1023 -0.0449
79159W        W22071  14.701  28.808  23.029 -0.1506 -0.0120 -0.1126
79160W        W22072  14.877  26.853  20.938 -0.3696  0.0691 -0.1487
79161W        W22073  15.869  25.912  21.140  0.0727 -0.0024  0.1113
79162W        W22074  15.879  26.914  21.714  0.2280 -0.3912  0.2308
79163W        W22075  16.584  26.821  21.840  0.1672  0.0413  0.2112
79164W        W22076  15.229  29.152  20.920  0.0395  0.1487  0.0050
79165W        W22077  17.877  26.381  20.738  0.0203 -0.1547  0.0933
79166W        W22078  15.587  27.756  22.467  0.2019 -0.1755 -0.2415
79167W        W22079  17.276  27.231  21.519  0.0819 -0.0506 -0.0457
79168W        W22080  16.591  28.372  20.903  0.0388 -0.0865  0.3797
79169W        W22081  15.660  28.284  20.953  0.1031 -0.0855 -0.1570
79170W        W22082  14.788  26.845  24.204 -0.2219 -0.0529 -0.2162
79171W        W22083  17.294  29.038  21.774  0.0455 -0.0611 -0.1788
79172W        W22084  16.602  26.945  20.556  0.2940  0.2124 -0.1370
79173W        W22085  17.125  27.003  23.236  0.0554  0.0517 -0.1563
79174W        W22086  16.864  27.826  24.847 -0.0749  0.1050 -0.1621
79175W        W22087  17.076  27.467  22.998  0.0380 -0.1140  0.3629
79176W        W22088  14.014  24.993  23.531  0.2595  0.0989  0.1220
79177W        W22089  17.883  29.386  23.046  0.0857 -0.1124 -0.0842
79178W        W22090  18.364  26.375  19.728  0.1979  0.0164 -0.0674
79179W        W22091  17.405  26.432  22.132  0.4287 -0.2901 -0.0487
79180W        W22092  17.791  27.538  22.111 -0.0828 -0.2192 -0.3299
79181W        W22093  15.302  26.675  21.149 -0.3344 -0.1548  0.0731
79182W        W22094  15.730  27.469  22.926  0.5264 -0.3384  0.3403
79183W        W22095  16.832  27.045  23.651 -0.0603 -0.3596  0.0364
79184W        W22096  14.478  26.104  20.527 -0.3113  0.1354  0.0600
79185W        W22097  15.450  25.973  23.082 -0.0678  0.2377 -0.0464
79186W        W22098  15.663  29.079  19.997  0.1339 -0.0893  0.0410
79187W        W22099  16.376  28.145  21.657 -0.3600 -0.3027 -0.2582
79188W        W22100  17.092  26.935  20.286 -0.1254 -0.1480  0.0051
79189W        W22101  13.516  28.057  22.257  0.4154 -0.0721  0.2209
79190W        W22102  14.976  31.325  21.775  0.3869  0.0057 -0.0609
79191W        W22103  15.767  27.032  21.132 -0.3072  0.0670  0.1239
79192W        W22104  15.319  27.896  21.661  0.0698  0.1743 -0.0924
79193W        W22105  16.884  28.753  22.918  0.1224  0.0575  0.0733
79194W        W22106  18.479  28.023  24.173 -0.4244 -0.2029 -0.1165
79195W        W22107  16.877  25.018  19.574  0.1587 -0.2362 -0.0274
79196W        W22108  17.984  26.795  22.982  0.0354  0.2644 -0.0978
79197W        W22109  15.490  29.637  21.265  0.0633  0.4021 -0.3533
79198W        W22110  16.882  27.996  20.776 -0.3683  0.2803 -0.2721
79199W        W22111  16.103  27.993  23.120  0.1332 -0.2168  0.2260
79200W        W22112  15.170  29.674  22.825  0.3869  0.1389 -0.4618
79201W        W22113  13.825  28.763  20.815  0.1937  0.4060  0.0432
79202W        W22114  16.548  27.232  22.351  0.0991  0.0498 -0.2192
79203W        W22115  18.119  26.037  23.173  0.2235 -0.0169 -0.2999
79204W        W22116  16.280  27.299  21.897 -0.0387  0.2606 -0.6615
79205W        W22117  17.603  27.493  23.983 -0.0096 -0.3365 -0.0585
79206W        W22118  17.791  28.641  23.853  0.0591  0.0887 -0.0196
79207W        W22119  14.776  28.373  22.771 -0.1031  0.1195  0.1330
79208W        W22120  17.327  30.431  23.769  0.1075 -0.2626  0.0483
79209W        W22121  17.011  27.498  21.176 -0.1960 -0.0013  0.0973
79210W        W22122  16.054  28.971  21.972  0.0559 -0.1340  0.1839
79211W        W22123  13.732  26.430  23.648 -0.2176 -0.0082  0.1630
79212W        W22124  16.965  28.144  22.203  0.0969 -0.2362  0.0817
79213W        W22125  18.064  27.104  22.071 -0.0661 -0.0927 -0.0290
79214W        W22126  15.434  26.136  21.334  0.0757  0.0060 -0.0973
79215W        W22127  16.046  30.057  21.440 -0.1639  0.0956 -0.0421
79216W        W22128  15.745  29.060  23.505  0.1323 -0.2310 -0.2694
79217W        W22129  15.043  26.233  23.327 -0.2176 -0.1468 -0.2800
79218W        W22130  14.970  29.329  20.107 -0.0116 -0.0649 -0.0994
79219W        W22131  16.497  29.300  20.312  0.1033  0.0551 -0.1004
79220W        W22132  17.192  27.952  21.131 -0.0556 -0.0124  0.1137
79221W        W22133  16.375  29.122  22.437 -0.0535 -0.2020 -0.4207
79222W        W22134  16.331  26.751  19.685 -0.0836  0.0525 -0.2244
79223W        W22135  14.880  28.706  21.990  0.1941  0.0233  0.2780
79224W        W22136  14.171  29.904  18.766 -0.0341 -0.2218 -0.1004
79225W        W22137  17.460  28.764  20.178  0.1438 -0.1056 -0.0432
79226W        W22138  15.215  30.555  21.388  0.0563  0.0120 -0.2047
79227W        W22139  17.325  27.100  23.695 -0.0845 -0.1277  0.0277
79228W        W22140  17.739  26.024  18.822 -0.0806 -0.2667  0.0521
79229W        W22141  17.987  28.138  22.305 -0.1588  0.2063  0.2520
79230W        W22142  17.247  27.402  20.236  0.1994  0.2947  0.2094
79231W        W22143  18.265  28.931  23.122 -0.0692 -0.0795  0.0549
79232W        W22144  15.823  26.542  21.230 -0.0537 -0.0357 -0.1864
79233W        W22145  17.109  26.831  19.011  0.1362  0.0322 -0.2988
79234W        W22146  16.839  27.234  21.900 -0.0279  0.1311 -0.1889
79235W        W22147  18.298  26.073  23.710  0.0051 -0.2246  0.3527
79236W        W22148  14.302  29.590  22.641 -0.3811 -0.0086 -0.1873
79237W        W22149  17.676  28.138  19.467 -0.0825 -0.0084  0.0870
79238W        W22150  13.649  26.781  21.862 -0.0739  0.0165 -0.0233
79239W        W22151  15.233  27.546  22.787 -0.2433  0.3972  0.1274
79240W        W22152  17.882  24.393  23.300 -0.2485 -0.3077 -0.2690
79241W        W22153  16.380  29.635  18.607 -0.0251 -0.0250 -0.1744
79242W        W22154  18.059  26.365  22.694 -0.1681  0.3384  0.0368
79243W        W22155  15.926  30.431  21.013 -0.0074  0.1171  0.1059
79244W        W22156  14.927  29.155  21.824  0.2963 -0.0017  0.1239
79245W        W22157  16.505  28.807  22.104  0.4731  0.1014  0.2199
79246W        W22158  15.801  27.590  21.523 -0.1916  0.2449  0.2782
79247W        W22159  17.766  27.151  19.739 -0.0000 -0.0994  0.1840
79248W        W22160  16.319  26.298  21.938  0.3097 -0.0253 -0.1098
79249W        W22161  19.094  25.545  22.247  0.0600  0.1656 -0.2231
79250W        W22162  15.431  26.537  21.718 -0.2142  0.1242 -0.0445
79251W        W22163  18.406  26.540  20.171  0.0818 -0.4168 -0.0465
79252W        W22164  15.309  28.451  22.273 -0.0403 -0.0174  0.1662
79253W        W22165  14.396  28.511  23.323  0.0402 -0.0531  0.3564
79254W        W22166  17.980  26.679  19.874  0.2999 -0.1446  0.0756
79255W        W22167  18.212  27.281  23.910  0.2436  0.0987 -0.0943
79256W        W22168  17.658  28.131  21.204  0.1483  0.2513  0.2896
79257W        W22169  16.773  30.333  23.692  0.4909 -0.0237  0.1261
79258W        W22170  14.161  26.565  22.352 -0.0797 -0.0378  0.0875
79259W        W22171  15.545  27.393  19.357 -0.0895 -0.0940 -0.0235
79260W        W22172  14.732  28.063  21.337  0.4526  0.0803  0.1071
79261W        W22173  17.140  26.876  21.969 -0.0047 -0.0227  0.0038
79262W        W22174  19.332  29.645  22.715 -0.2410  0.4331 -0.0399
79263W        W22175  14.824  25.828  22.124  0.1715 -0.0066  0.2105
79264W        W22176  17.068  29.048  19.447  0.1443 -0.2617 -0.4399
79265W        W22177  18.402  27.665  21.076 -0.2261  0.1809  0.2001
79266W        W22178  15.455  29.588  20.262 -0.0963 -0.0111 -0.1985
79267W        W22179  17.584  27.301  23.125 -0.1592 -0.1244 -0.0076
79268W        W22180  16.838  28.343  23.360  0.3677  0.0426  0.4518
79269W        W22181  14.096  26.162  22.638 -0.0282  0.2405 -0.1332
79270W        W22182  17.852  29.183  22.472 -0.1851  0.2340 -0.3571
79271W        W22183  17.422  28.794  23.565 -0.1034  0.1223 -0.0279
79272W        W22184  16.200  26.452  20.080  0.1749  0.1917  0.0857
79273W        W22185  15.136  26.737  22.673 -0.5829 -0.0763  0.1234
79274W        W22186  15.453  31.116  20.346 -0.3783  0.1555  0.0019
79275W        W22187  17.403  25.944  23.055 -0.3652  0.0327 -0.1666
79276W        W22188  17.536  26.726  23.282 -0.1889 -0.0949  0.2370
79277W        W22189  15.805  29.286  21.093  0.0720 -0.0854  0.0843
79278W        W22190  18.241  25.661  23.447 -0.1085 -0.1465 -0.2369
79279W        W22191  15.721  28.800  21.112 -0.2844 -0.0222  0.1195
79280W        W22192  16.079  29.621  24.724 -0.1834 -0.2821 -0.2927
79281W        W22193  15.072  27.801  21.167  0.1990 -0.3661  0.1693
79282W        W22194  16.714  26.699  23.253  0.0575  0.0560  0.0556
79283W        W22195  15.642  29.525  21.988  0.0415  0.0843 -0.2610
79284W        W22196  16.221  29.828  21.988  0.0202  0.3787 -0.0743
79285W        W22197  18.029  29.138  20.278 -0.1172 -0.1533 -0.1085
79286W        W22198  15.712  26.279  20.822  0.2292  0.1219  0.0929
79287W        W22199  17.304  27.775  22.013  0.2985  0.2073  0.1085
79288W        W22200  16.344  25.784  21.563  0.0499  0.1658  0.4060
79289W        W22201  18.492  27.365  21.962  0.1075 -0.0002  0.2266
79290W        W22202  17.010  26.356  20.328 -0.0427 -0.3559 -0.2410
79291W        W22203  15.945  28.315  21.928 -0.2858  0.2821 -0.2378
79292W        W22204  14.855  27.340  21.108  0.1982  0.1164 -0.0632
79293W        W22205  12.841  28.842  20.958  0.3646 -0.0181 -0.1353
79294W        W22206  14.160  27.539  21.938 -0.2673  0.2418 -0.2848
79295W        W22207  15.732  25.958  22.607  0.0118  0.3388  0.3157
79296W        W22208  16.052  26.566  23.388  0.0395  0.3730  0.0211
79297W        W22209  14.888  27.556  22.445 -0.1031 -0.1743 -0.0132
79298W        W22210  15.192  27.076  20.678 -0.0565  0.0079 -0.1066
79299W        W22211  15.715  27.825  20.633  0.1537 -0.1581 -0.0575
79300W        W22212  14.214  26.606  22.903  0.3388  0.0303 -0.1175
79301W        W22213  14.510  26.088  22.365 -0.4281 -0.3082  0.6298
79302W        W22214  18.074  29.568  21.125 -0.1232  0.2544  0.0093
79303W        W22215  16.936  29.190  22.590  0.1931 -0.0691 -0.0582
79304W        W22216  16.865  26.474  21.535 -0.1425  0.0699  0.0415
79305W        W22217  17.953  27.668  22.739 -0.1608  0.3156  0.0621
79306W        W22218  13.432  28.500  20.647 -0.1999  0.2388 -0.0499
79307W        W22219  15.550  28.371  23.216 -0.0051 -0.2702  0.1997
79308W        W22220  15.604  24.701  23.877  0.0326  0.3745  0.0494
79309W        W22221  14.138  25.122  20.659  0.0810  0.3660 -0.3632
79310W        W22222  18.220  26.940  21.605 -0.3743  0.0248 -0.1883
79311W        W22223  17.995  28.159  20.453  0.2341  0.2278  0.0115
79312W        W22224  18.378  29.036  19.349  0.2966 -0.2255  0.4361
79313W        W22225  17.387  28.422  22.556 -0.1191  0.0290 -0.2677
79314W        W22226  17.432  29.415  22.736  0.1060  0.0417 -0.0371
79315W        W22227  13.512  25.626  23.225  0.2572 -0.0071 -0.3382
79316W        W22228  16.300  27.864  20.651 -0.2621 -0.0451  0.0392
79317W        W22229  17.005  28.174  22.852  0.1915  0.0276 -0.3871
79318W        W22230  16.793  27.514  20.595 -0.0759 -0.2182  0.1030
79319W        W22231  18.379  26.517  22.028 -0.0456  0.1796 -0.1085
79320W        W22232  16.187  26.943  20.270  0.0047  0.0332 -0.2559
79321W        W22233  14.805  26.087  22.757 -0.0296  0.3980 -0.3152
79322W        W22234  14.217  27.917  22.809  0.0605 -0.1751  0.0252
79323W        W22235  18.144  27.986  23.197  0.2206  0.3311  0.1846
79324W        W22236  15.209  26.102  19.959 -0.1326 -0.0655  0.1061
79325W        W22237  16.582  25.541  20.309  0.1408 -0.2237  0.1629
79326W        W22238  16.048  28.025  20.297 -0.0153 -0.2315 -0.2025
79327W        W22239  15.352  27.455  23.240  0.2137  0.2221  0.0238
79328W        W22240  16.259  25.579  20.622  0.0959 -0.0243  0.0931
79329W        W22241  15.846  28.175  22.428 -0.4314  0.2198 -0.1444
79330W        W22242  16.117  28.458  21.234 -0.0038 -0.0308  0.3714
79331W        W22243  16.614  27.694  22.097  0.0687  0.1255  0.1684
79332W        W22244  15.925  26.483  19.551 -0.6470 -0.3672 -0.1578
79333W        W22245  16.492  27.661  20.241 -0.2672  0.0083  0.0218
79334W        W22246  16.313  30.191  23.639  0.0223  0.1648 -0.0390
79335W        W22247  17.713  31.145  23.325 -0.1088  0.0774 -0.1088
79336W        W22248  16.694  27.817  23.150  0.0144  0.1466  0.1558
79337W        W22249  16.973  27.692  22.494  0.1449  0.2264  0.0999
79338W        W22250  14.589  25.145  22.507  0.0269  0.0519  0.1925
79339W        W22251  15.566  27.826  21.152 -0.3207  0.1571  0.0185
79340W        W22252  15.215  28.268  21.288  0.1663 -0.2074  0.0151
79341W        W22253  18.750  27.577  22.546  0.0655 -0.1955 -0.2188
79342W        W22254  14.657  26.721  22.215 -0.2495 -0.1341 -0.1365
79343W        W22255  15.801  26.371  20.372 -0.0043  0.2129  0.1422
79344W        W22256  15.292  30.053  22.540  0.2057  0.0515  0.0865
79345W        W22257  15.319  27.591  22.041 -0.2318  0.1494  0.0721
79346W        W22258  15.428  28.562  27.545  0.0436  0.2783  0.1784
79347W        W22259  16.110  27.254  24.808  0.1474  0.0011 -0.3035
79348W        W22260  19.218  27.218  23.841  0.4726  0.2188  0.0325
79349W        W22261  19.424  27.764  24.356  0.0216  0.1836  0.0612
79350W        W22262  14.424  26.492  23.423  0.3286  0.2874 -0.0981
79351W        W22263  16.917  30.101  25.455  0.3504 -0.2040  0.0964
79352W        W22264  15.991  24.932  26.399  0.0462  0.1847  0.1182
79353W        W22265  16.783  29.069  27.250 -0.4238  0.1342  0.0462
79354W        W22266  17.646  28.750  25.971  0.1336 -0.0780 -0.0606
79355W        W22267  16.915  28.550  24.124  0.1094 -0.0159  0.1305
79356W        W22268  15.741  26.493  26.003 -0.1721 -0.0295 -0.0253
79357W        W22269  14.783  26.521  26.773 -0.1817  0.0140  0.1584
79358W        W22270  16.514  25.682  23.017  0.1049 -0.1504  0.0813
79359W        W22271  15.951  26.794  25.690  0.2285  0.3740  0.0031
79360W        W22272  16.666  28.847  26.411 -0.1006 -0.1733 -0.2667
79361W        W22273  15.139  27.936  23.906  0.2536 -0.4619 -0.2406
79362W        W22274  15.206  26.278  26.395 -0.1501  0.1474 -0.1009
79363W        W22275  16.708  26.496  24.217 -0.4035 -0.0887 -0.3367
79364W        W22276  16.556  29.802  26.157  0.1062 -0.2188 -0.1011
79365W        W22277  15.218  25.485  25.778 -0.0680  0.2030  0.1435
79366W        W22278  17.548  25.456  25.713 -0.2342 -0.0824  0.1008
79367W        W22279  16.105  28.485  25.232  0.0565  0.0127  0.2508
79368W        W22280  15.106  28.835  23.939  0.1135  0.0553  0.0519
79369W        W22281  15.131  26.424  24.826  0.0230  0.1348 -0.0340
79370W        W22282  14.777  27.365  25.452  0.0249 -0.3864  0.3325
79371W        W22283  17.017  26.247  26.083 -0.0956 -0.0225  0.3227
79372W        W22284  16.587  25.533  24.630 -0.0673  0.3395 -0.1794
79373W        W22285  15.204  28.152  25.676 -0.2710  0.0701 -0.0328
79374W        W22286  17.409  30.657  26.256 -0.4838  0.0028 -0.2400
79375W        W22287  16.856  28.303  26.550 -0.0742  0.1641  0.0125
79376W        W22288  14.819  28.363  25.893  0.2235  0.2077  0.1493
79377W        W22289  15.601  30.849  24.672 -0.1812 -0.1017 -0.0253
79378W        W22290  15.520  29.062  24.798 -0.1719 -0.2420 -0.3606
79379W        W22291  18.624  29.321  24.857 -0.1652  0.4757  0.0697
79380W        W22292  17.647  28.375  27.010 -0.0303 -0.0592  0.0323
79381W        W22293  14.897  28.761  28.164 -0.2329 -0.2128  0.0378
79382W        W22294  14.612  29.563  23.582  0.0605 -0.1967 -0.0419
79383W        W22295  16.204  28.447  28.110  0.1480 -0.0530 -0.1171
79384W        W22296  15.726  28.804  26.719  0.0635  0.3065  0.1810
79385W        W22297  15.991  27.927  26.091 -0.3233  0.0297 -0.2134
79386W        W22298  16.852  27.657  25.369  0.1935 -0.0219 -0.1896
79387W        W22299  15.442  28.858  24.314 -0.0886 -0.4489  0.1467
79388W        W22300  17.312  27.638  25.017  0.2532 -0.0777 -0.0944
79389W        W22301  16.118  28.071  27.692  0.3469 -0.1771 -0.1791
79390W        W22302  14.615  28.923  25.183  0.3797 -0.0679 -0.0118
79391W        W22303  18.654  27.857  28.421 -0.3917  0.2677 -0.2684
79392W        W22304  15.906  29.400  25.508  0.1754  0.1156 -0.0407
79393W        W22305  17.338  28.344  23.670 -0.1260 -0.0622  0.0097
79394W        W22306  16.555  27.412  22.817 -0.1409  0.0245  0.1361
79395W        W22307  18.132  27.507  23.458  0.2431 -0.1694  0.4120
79396W        W22308  16.911  25.197  24.010  0.0904  0.0898  0.3128
79397W        W22309  16.249  29.631  27.373  0.1442 -0.2438 -0.1896
79398W        W22310  14.812  27.032  25.894 -0.2860 -0.0439 -0.0408
79399W        W22311  17.055  27.799  26.903  0.5455  0.0492  0.3149
79400W        W22312  17.252  27.838  24.152  0.0777 -0.1169  0.1239
79401W        W22313  15.115  27.169  24.644  0.1403  0.1304 -0.1622
79402W        W22314  15.847  26.969  26.207  0.0197  0.0219  0.1484
79403W        W22315  15.467  27.809  25.318  0.3156  0.0576 -0.1620
79404W        W22316  17.955  27.763  24.845 -0.1030  0.3179 -0.3119
79405W        W22317  17.318  27.466  25.510 -0.0298  0.1328 -0.3045
79406W        W22318  16.572  29.231  23.560 -0.0386  0.2659 -0.0266
79407W        W22319  14.465  27.004  23.292 -0.0375  0.0713  0.0019
79408W        W22320  15.182  27.323  26.093  0.4315  0.0016 -0.2451
79409W        W22321  15.434  27.848  27.033  0.1668 -0.3309 -0.1970
79410W        W22322  16.189  26.453  22.509  0.3922 -0.1723 -0.2404
79411W        W22323  18.737  29.460  27.224 -0.1165 -0.0169 -0.0515
79412W        W22324  13.234  28.391  26.154 -0.4027  0.5690 -0.0771
79413W        W22325  17.210  26.761  25.176  0.0008  0.0217 -0.0152
79414W        W22326  15.737  27.438  26.147 -0.6600  0.0133 -0.0303
79415W        W22327  18.209  28.372  26.231  0.2154 -0.0203  0.4610
79416W        W22328  16.518  28.177  23.930  0.1609 -0.0799 -0.2941
79417W        W22329  16.519  26.421  24.733  0.1944 -0.2162 -0.2053
79418W        W22330  15.496  28.322  26.933 -0.0444 -0.3265  0.0297
79419W        W22331  17.138  27.484  23.469  0.2515  0.0309  0.2284
79420W        W22332  17.634  30.535  24.240  0.0750 -0.0806  0.1539
79421W        W22333  17.586  27.984  27.456 -0.0412  0.1147  0.0790
79422W        W22334  18.101  28.992  24.049  0.3406 -0.0553  0.0285
79423W        W22335  15.110  29.955  26.300 -0.1414  0.2636 -0.3231
79424W        W22336  16.410  26.014  26.152 -0.0930 -0.3911 -0.1629
79425W        W22337  16.308  27.397  28.149 -0.0016  0.0126  0.1331
79426W        W22338  16.977  29.983  24.090  0.1396 -0.2551 -0.2205
79427W        W22339  14.123  28.191  26.414 -0.1592  0.1335  0.2790
79428W        W22340  14.375  28.403  23.804 -0.4528 -0.2113 -0.2912
79429W        W22341  14.223  26.870  27.621 -0.0512 -0.0106 -0.0261
79430W        W22342  15.078  28.831  26.113  0.2291 -0.0635  0.5381
79431W        W22343  16.036  26.289  24.929 -0.0211  0.4471  0.1671
79432W        W22344  15.415  25.993  25.974 -0.0311 -0.0557  0.0712
79433W        W22345  16.674  25.210  25.033 -0.0513 -0.1259  0.0652
79434W        W22346  15.570  26.814  23.896 -0.0618 -0.1654  0.2058
79435W        W22347  18.014  28.543  23.292 -0.2664 -0.0557  0.1365
79436W        W22348  17.093  26.534  24.698 -0.1434  0.1289 -0.1345
79437W        W22349  17.261  29.541  24.111  0.0204 -0.3638 -0.1898
79438W        W22350  14.431  27.374  25.850 -0.0047 -0.0586  0.0656
79439W        W22351  16.038  26.004  23.575  0.0130  0.1060  0.1930
79440W        W22352  13.608  25.880  27.033  0.0816  0.0650  0.0699
79441W        W22353  13.834  26.822  27.228  0.2820  0.0888  0.1374
79442W        W22354  16.603  26.505  26.881 -0.4042  0.3230  0.1197
79443W        W22355  14.293  26.775  24.404 -0.1803  0.3830  0.1395
79444W        W22356  17.203  26.167  24.290  0.0031  0.0640  0.0883
79445W        W22357  15.684  26.671  24.733  0.0694  0.2887 -0.1345
79446W        W22358  14.553  27.178  23.841  0.1155 -0.1298  0.0043
79447W        W22359  18.570  26.234  25.728  0.3077  0.0633 -0.1503
79448W        W22360  17.192  29.427  25.418  0.3206  0.0378  0.0674
79449W        W22361  18.557  27.533  27.866  0.0679  0.2719  0.0382
79450W        W22362  17.327  29.207  25.800 -0.1261 -0.0470  0.1886
79451W        W22363  15.508  25.127  25.657  0.0416 -0.0741  0.1638
79452W        W22364  15.733  27.278  24.202 -0.2516 -0.2122 -0.1372
79453W        W22365  15.381  28.290  26.141 -0.2417 -0.2076  0.1091
79454W        W22366  17.287  30.103  26.339  0.0978  0.1162  0.0560
79455W        W22367  15.577  26.171  25.449  0.0043  0.1086  0.2072
79456W        W22368  17.259  28.542  26.329  0.0807 -0.0487  0.1242
79457W        W22369  15.779  27.135  25.274 -0.0590 -0.0985  0.0502
79458W        W22370  14.963  27.856  25.323  0.0632  0.1053 -0.3526
79459W        W22371  16.271  27.534  26.241 -0.2971  0.0766 -0.1746
79460W        W22372  16.766  27.634  26.524 -0.2732 -0.0215  0.0503
79461W        W22373  17.158  26.993  25.687 -0.1822 -0.2420  0.1546
79462W        W22374  15.915  26.251  23.029 -0.1860 -0.2175 -0.2623
79463W        W22375  17.517  29.955  25.434 -0.0541  0.0613  0.0300
79464W        W22376  14.892  29.281  24.182  0.3896 -0.0969 -0.0292
79465W        W22377  14.695  29.813  25.081  0.3578 -0.0104  0.0103
79466W        W22378  16.427  29.299  25.733 -0.0360 -0.2229  0.1701
79467W        W22379  17.109  26.035  24.846 -0.0686  0.1917  0.1826
79468W        W22380  15.665  26.480  27.313 -0.1007 -0.4415  0.0149
79469W        W22381  16.948  27.397  28.029 -0.0791 -0.3261 -0.0075
79470W        W22382  15.723  29.704  25.094 -0.2265 -0.0265 -0.0299
79471W        W22383  14.329  28.270  26.899 -0.0569 -0.2623 -0.3059
79472W        W22384  16.460  24.635  24.777 -0.1639 -0.0116 -0.2554
79473W        W22385  18.081  26.515  23.487 -0.0733  0.1512 -0.3898
79474W        W22386  16.179  28.002  26.578 -0.1493 -0.1401  0.0543
79475W        W22387  16.507  28.846  25.946  0.2987 -0.0910  0.1139
79476W        W22388  17.550  26.587  24.322  0.0607  0.1862 -0.0711
79477W        W22389  17.779  26.156  23.736  0.0108  0.0296 -0.0184
79478W        W22390  14.995  28.458  27.785  0.1160  0.2313 -0.2719
79479W        W22391  15.360  28.419  25.257  0.0553  0.0326 -0.1003
79480W        W22392  16.370  28.320  25.715  0.2016 -0.1367  0.4334
79481W        W22393  17.052  28.853  25.089  0.2136 -0.0839  0.0543
79482W        W22394  18.464  28.595  23.997  0.0356 -0.2295 -0.2448
79483W        W22395  16.018  28.961  24.800  0.1481  0.0278  0.0308
79484W        W22396  15.598  30.359  27.044 -0.2041 -0.0673  0.0312
79485W        W22397  16.159  30.023  25.276 -0.2872  0.2910 -0.0752
79486W        W22398  17.344  23.831  24.378 -0.0184 -0.3159 -0.2654
79487W        W22399  17.650  28.011  23.859 -0.1384 -0.1662 -0.1264
79488W        W22400  16.216  24.976  23.784  0.1107 -0.0753 -0.3039
79489W        W22401  15.947  28.423  22.860 -0.3195  0.0993 -0.0428
79490W        W22402  17.400  26.293  25.183 -0.2846 -0.5042 -0.0180
79491W        W22403  16.725  25.821  25.770 -0.2505 -0.0720 -0.1363
79492W        W22404  15.882  24.746  24.859 -0.4812  0.3164  0.1980
79493W        W22405  17.600  26.617  27.492 -0.1004 -0.1187 -0.1487
79494W        W22406  17.535  27.090  24.296  0.3202  0.0084 -0.0412
79495W        W22407  16.825  27.990  25.718  0.1779 -0.2316 -0.2334
79496W        W22408  14.418  27.561  21.396 -0.2248 -0.2544  0.1667
79497W        W22409  16.405  24.572  25.679 -0.0752  0.0788  0.1878
79498W        W22410  14.764  27.298  27.104  0.1056  0.1549  0.0504
79499W        W22411  14.192  29.514  27.671 -0.2393 -0.0721 -0.2912
79500W        W22412  16.805  29.357  26.566 -0.1094 -0.0153 -0.0805
79501W        W22413  16.629  27.191  25.727 -0.1779 -0.0657  0.0013
79502W        W22414  17.322  25.898  26.398  0.3205 -0.3814 -0.3010
79503W        W22415  15.532  27.459  23.766  0.1599  0.1046 -0.1646
79504W        W22416  15.197  30.387  27.398  0.0545 -0.0434 -0.3407
79505W        W22417  14.803  28.430  24.088  0.1342  0.0120 -0.1059
79506W        W22418  15.769  25.637  24.775 -0.0864 -0.0964 -0.1333
79507W        W22419  16.080  30.512  26.354  0.0597 -0.1088 -0.0455
79508W        W22420  16.156  29.236  23.299 -0.1853 -0.0937 -0.0709
79509W        W22421  16.732  28.434  25.996  0.2991  0.4380  0.0642
79510W        W22422  14.957  28.680  25.531 -0.2766 -0.1869  0.1036
79511W        W22423  16.043  25.171  24.772 -0.1640 -0.0882 -0.0771
79512W        W22424  14.607  28.486  24.566 -0.0542 -0.4802 -0.3291
79513W        W22425  16.518  26.535  23.739 -0.0293 -0.0689  0.0974
79514W        W22426  16.158  27.039  24.340 -0.0487 -0.1329 -0.1692
79515W        W22427  17.112  25.312  25.330  0.2737 -0.2437  0.2387
79516W        W22428  16.866  28.897  24.605  0.5057  0.0526  0.1266
79517W        W22429  15.019  27.950  26.323 -0.1366 -0.0480 -0.2563
79518W        W22430  16.386  26.009  25.152 -0.2852 -0.3262  0.1749
79519W        W22431  14.715  30.137  26.695 -0.1331  0.0353 -0.1088
79520W        W22432  15.916  26.033  25.923 -0.0418 -0.2629 -0.2289
79521W        W22433  16.034  26.738  23.906 -0.1916  0.3431  0.1122
79522W        W22434  17.061  28.871  25.974 -0.2037  0.1726  0.1338
79523W        W22435  14.963  26.689  28.265  0.3370  0.0095 -0.0008
79524W        W22436  14.354  27.463  22.905 -0.0817  0.1869  0.1756
79525W        W22437  16.643  29.619  27.103  0.0901  0.3277  0.1269
79526W        W22438  15.202  27.165  24.086 -0.0596  0.1073 -0.1485
79527W        W22439  14.358  28.417  25.007  0.0355 -0.3492  0.0041
79528W        W22440  15.400  28.631  28.131 -0.1319 -0.0115  0.0255
79529W        W22441  15.503  28.053  22.059 -0.1803  0.0116  0.0040
79530W        W22442  16.415  29.266  26.220 -0.0175  0.2277  0.0023
79531W        W22443  15.764  25.339  26.135  0.1550  0.1470  0.0989
79532W        W22444  16.700  27.509  27.253 -0.1674  0.1434 -0.1570
79533W        W22445  14.931  27.767  25.813  0.2495 -0.0498  0.4268
79534W        W22446  15.605  27.209  24.707  0.0677  0.2967  0.2225
79535W        W22447  15.785  26.224  26.436  0.1464  0.2374 -0.0741
79536W        W22448  16.643  29.338  28.028  0.0221  0.2060  0.3389
79537W        W22449  16.576  27.073  26.734  0.0428  0.2303 -0.0330
79538W        W22450  16.544  28.246  27.826  0.1596 -0.1373  0.0584
79539W        W22451  15.928  26.229  23.978 -0.0075  0.0071 -0.1316
79540W        W22452  17.257  28.632  24.557  0.0524  0.0400  0.1756
79541W        W22453  16.937  28.594  28.617 -0.0570 -0.1001  0.0430
79542W        W22454  16.978  28.042  23.771 -0.0831  0.2398 -0.4470
79543W        W22455  14.540  27.445  26.669 -0.3363  0.0284 -0.2120
79544W        W22456  15.180  28.982  25.232  0.1652  0.0544 -0.0780
79545W        W22457  16.747  26.356  27.388  0.0216 -0.0913 -0.2850
79546W        W22458  14.812  27.510  24.928 -0.1776  0.0538 -0.0086
79547W        W22459  15.267  28.377  23.643 -0.1497  0.0162 -0.0358
79548W        W22460  15.054  29.643  26.804 -0.0811 -0.2806 -0.2608
79549W        W22461  16.616  25.620  24.116  0.1236 -0.1903  0.0602
79550W        W22462  16.495  28.738  23.287  0.0125 -0.5310 -0.1424
79551W        W22463  16.990  25.144  23.503  0.2975 -0.1865 -0.0589
79552W        W22464  18.077  26.373  25.668  0.0146 -0.0982 -0.2819
79553W        W22465  16.262  29.535  25.219  0.2844 -0.0878 -0.3773
79554W        W22466  16.140  25.887  28.156 -0.1047  0.2637 -0.0471
79555W        W22467  14.689  26.233  26.319  0.4146  0.1190  0.2520
79556W        W22468  17.245  28.168  25.317 -0.0632 -0.0510 -0.1159
79557W        W22469  14.160  24.972  26.971 -0.0527  0.2367  0.1420
79558W        W22470  17.197  29.470  27.912 -0.2637  0.2750 -0.0106
79559W        W22471  15.282  26.013  27.675 -0.0923 -0.1991 -0.2509
79560W        W22472  17.556  26.218  24.679 -0.2764 -0.3622  0.0989
79561W        W22473  15.674  27.697  24.492 -0.1009  0.0227  0.1105
79562W        W22474  15.419  27.662  26.529 -0.2560  0.0810 -0.3286
79563W        W22475  18.179  27.386  25.667 -0.0030  0.1101  0.1253
79564W        W22476  17.246  28.916  24.077  0.0256 -0.0012  0.0008
79565W        W22477  17.947  27.376  24.305 -0.0282 -0.2536  0.0644
79566W        W22478  15.286  26.890  26.257 -0.2540 -0.0272  0.0607
79567W        W22479  17.725  28.332  24.638 -0.1256 -0.3495 -0.1586
79568W        W22480  17.232  29.763  25.803  0.3175  0.3322  0.1496
79569W        W22481  16.343  27.728  24.805  0.5153  0.0867 -0.3199
79570W        W22482  14.892  25.923  26.704 -0.1277 -0.1287  0.0066
79571W        W22483  16.532  27.990  26.269  0.1082 -0.1372  0.1763
79572W        W22484  15.657  26.583  25.259 -0.2737  0.0076 -0.2565
79573W        W22485  16.095  26.619  26.632  0.2816  0.0204  0.0451
79574W        W22486  16.301  28.271  27.228 -0.1214  0.2067 -0.1887
79575W        W22487  15.909  25.641  26.914  0.2705  0.3112 -0.0072
79576W        W22488  16.465  25.746  26.564  0.1807 -0.1384  0.1645
79577W        W22489  17.705  28.960  27.321  0.0855 -0.2352  0.2246
79578W        W22490  18.456  26.859  23.677  0.1736  0.0856 -0.0145
79579W        W22491  16.695  25.607  25.238  0.1092  0.2161 -0.0160
79580W        W22492  17.506  27.144  25.032 -0.2891 -0.1145  0.0915
79581W        W22493  16.159  28.239  24.797 -0.1210 -0.0949 -0.1169
79582W        W22494  14.856  26.943  25.016 -0.2523 -0.2081  0.2600
79583W        W22495  17.316  28.725  28.129  0.0142 -0.0685  0.3255
79584W        W22496  15.568  27.937  23.019  0.0005 -0.0205 -0.2654
79585W        W22497  17.176  25.414  26.565 -0.0907 -0.0605  0.1264
79586W        W22498  16.406  29.141  24.507 -0.1210  0.1363  0.0443
79587W        W22499  17.281  27.622  26.489  0.1593  0.0486 -0.2232
79588W        W22500  17.095  27.471  24.541 -0.2280  0.0303  0.1292
79589W        W22501  14.658  26.564  24.761 -0.1734 -0.6749 -0.0671
79590W        W22502  15.884  29.315  27.505 -0.1337  0.0492 -0.0318
79591W        W22503  15.798  27.126  23.502  0.3101  0.1463 -0.0255
79592W        W22504  15.849  29.194  24.385 -0.1356 -0.1570  0.2586
79593W        W22505  16.284  30.033  27.078 -0.3788 -0.1978 -0.4842
79594W        W22506  17.038  26.234  26.889 -0.0951 -0.1412 -0.3259
79595W        W22507  16.624  27.654  23.991 -0.1409  0.2091  0.1181
79596W        W22508  17.604  26.096  26.059 -0.0117 -0.1401 -0.1214
79597W        W22509  14.350  27.708  24.542  0.0268  0.0337 -0.0004
79598W        W22510  16.723  26.826  25.003  0.1999 -0.0826 -0.1062
79599W        W22511  16.149  30.479  26.865  0.1722  0.0437  0.1766
79600W        W22512  14.756  29.731  27.671 -0.1119  0.0838 -0.2225
79601W        W22513  15.055  28.789  24.642  0.3090  0.0983  0.1159
79602W        W22514  15.317  26.866  24.999 -0.0232 -0.0231  0.1471
79603W        W22515  16.935  26.644  26.499  0.3177  0.2014 -0.1839
79604W        W22516  16.560  28.148  25.196 -0.0072 -0.1262 -0.1620
79605W        W22517  15.778  28.598  26.197  0.1966 -0.1348  0.1500
79606W        W22518  15.882  27.380  27.118 -0.0945 -0.1688  0.0594
79607W        W22519  14.509  27.981  26.088  0.0868 -0.0671  0.0906
79608W        W22520  16.674  28.580  27.431  0.2222  0.0801 -0.0912
79609W        W22521  17.926  27.909  25.684 -0.1554  0.1911 -0.2399
79610W        W22522  15.718  28.913  25.313 -0.0725  0.1762 -0.4186
79611W        W22523  14.986  25.074  26.086  0.1913  0.0138  0.2070
79612W        W22524  15.550  27.169  26.559  0.2395  0.3532  0.2037
79613W        W22525  17.088  28.024  26.209 -0.0346 -0.0127 -0.1090
79614W        W22526  16.212  26.476  24.310 -0.0106 -0.0181 -0.2915
79615W        W22527  16.435  28.658  23.773  0.1292  0.0054  0.1040
79616W        W22528  14.762  27.452  28.530 -0.0646 -0.3786 -0.1929
79617W        W22529  15.559  29.035  26.307  0.0807  0.0886  0.3220
79618W        W22530  15.993  30.501  25.571  0.0896  0.0907  0.1936
79619W        W22531  16.808  28.385  24.833  0.2602  0.1377 -0.0695
79620W        W22532  16.418  28.683  24.863  0.0272 -0.0240  0.0706
79621W        W22533  16.857  30.487  25.038 -0.1606  0.1209  0.1836
79622W        W22534  16.661  27.379  23.315  0.3244 -0.1545  0.4125
79623W        W22535  14.753  28.738  26.667  0.1191 -0.1168 -0.1926
79624W        W22536  16.070  29.756  24.266 -0.1011 -0.1581  0.0808
79625W        W22537  16.769  29.063  24.131 -0.1972 -0.0729  0.1338
79626W        W22538  13.886  28.346  24.933 -0.1410 -0.1858  0.1554
79627W        W22539  16.320  26.475  26.156  0.2505 -0.2526  0.2718
79628W        W22540  19.305  25.589  22.704 -0.0242 -0.1612  0.3694
79629W        W22541  16.897  26.373  25.164 -0.1210 -0.1729 -0.1738
79630W        W22542  17.944  25.378  24.727  0.0933 -0.1845  0.1266
79631W        W22543  17.057  28.289  27.040  0.3691  0.0822 -0.2768
79632W        W22544  16.270  27.529  25.303  0.0219 -0.0449  0.3437
79633W        W22545  15.938  25.730  22.985 -0.1657  0.0075 -0.0391
79634W        W22546  16.001  27.058  27.936  0.2131  0.1673  0.2166
79635W        W22547  18.849  24.596  26.322  0.0499  0.1380  0.0640
79636W        W22548  14.741  28.368  27.153 -0.2322  0.0710 -0.1354
79637W        W22549  17.653  28.117  23.354  0.2396 -0.0352  0.1032
79638W        W22550  14.834  26.776  23.685  0.0264  0.0284 -0.0215
79639W        W22551  15.679  28.615  24.877 -0.1208  0.0194  0.2225
79640W        W22552  17.473  25.114  25.048 -0.0708 -0.3711  0.2021
79641W        W22553  16.344  27.691  23.522  0.0641 -0.4655 -0.0561
79642W        W22554  16.833  29.096  25.487 -0.0077 -0.2321 -0.1102
79643W        W22555  15.557  29.549  26.017 -0.0250 -0.0616  0.0115
79644W        W22556  15.536  29.134  25.759 -0.2334 -0.0320  0.3301
79645W        W22557  15.203  28.945  27.776  0.2193 -0.0312 -0.0342
79646W        W22558  15.339  26.243  24.324 -0.0391  0.1351 -0.0355
79647W        W22559  17.098  26.390  25.626 -0.2589  0.0918  0.0988
79648W        W22560  16.146  26.043  27.267  0.2174  0.1501 -0.1340
79649W        W22561  17.621  26.505  25.639  0.3885  0.0432 -0.0662
79650W        W22562  15.740  28.102  25.000  0.0609  0.0916 -0.0169
79651W        W22563  16.579  27.294  24.918 -0.1316 -0.0409 -0.1216
79652W        W22564  15.390  27.760  26.030  0.1431  0.0148  0.2573
79653W        W22565  16.200  26.843  27.086 -0.3087  0.0051 -0.0838
79654W        W22566  15.314  28.401  24.192 -0.2279 -0.0241  0.3500
79655W        W22567  17.778  27.831  27.912 -0.1317 -0.0890 -0.0271
79656W        W22568  16.348  28.009  24.376  0.0306  0.3397 -0.2871
79657W        W22569  16.934  30.269  27.451 -0.4398 -0.3378  0.1004
79658W        W22570  16.078  27.378  23.855 -0.1531  0.0168 -0.0726
79659W        W22571  15.801  27.356  22.223 -0.1065 -0.1063  0.3649
79660W        W22572  15.197  27.604  24.365  0.3567 -0.0847  0.1353
79661W        W22573  14.799  25.883  27.629 -0.1344  0.2379 -0.0016
79662W        W22574  16.399  29.120  27.568 -0.0142 -0.3941  0.0221
79663W        W22575  14.801  26.335  24.292 -0.1234  0.0365 -0.0840
79664W        W22576  19.031  27.899  23.523  0.0790  0.0440  0.2910
79665W        W22577  17.000  27.241  26.974 -0.1039  0.0473  0.3171
79666W        W22578  15.388  29.220  23.776  0.4284  0.1759 -0.2661
79667W        W22579  17.941  26.390  25.138  0.1658 -0.3939  0.1625
79668W        W22580  15.425  28.680  25.722  0.0186 -0.1501 -0.2669
79669W        W22581  14.716  26.851  27.320 -0.1915  0.1071 -0.3663
79670W        W22582  16.136  29.994  26.281  0.0115  0.0692  0.1592
79671W        W22583  17.784  27.447  25.278  0.2755  0.0887 -0.2770
79672W        W22584  16.257  26.037  22.739  0.4232 -0.2089  0.0163
79673W        W22585  16.667  27.005  27.260 -0.1286  0.0568  0.0209
79674W        W22586  14.600  28.975  26.017  0.1272  0.1934 -0.0060
79675W        W22587  19.182  26.949  25.801  0.0222  0.0596 -0.2142
79676W        W22588  16.781  24.529  26.019  0.2698  0.2153  0.1250
79677W        W22589  15.703  29.584  24.022  0.0002  0.2776 -0.4313
79678W        W22590  17.220  25.841  25.872 -0.0410  0.1656  0.1090
79679W        W22591  15.854  28.552  27.202  0.2567  0.2710 -0.0125
79680W        W22592  14.931  29.834  28.155 -0.0852  0.0920 -0.2107
79681W        W22593  13.949  28.660  23.377 -0.0087  0.1797 -0.0300
79682W        W22594  14.180  27.276  27.177 -0.1543 -0.1857  0.3018
79683W        W22595  16.395  29.421  24.096 -0.1322  0.0252 -0.1134
79684W        W22596  16.135  28.951  26.412  0.1846  0.0243 -0.0683
79685W        W22597  16.230  28.959  25.460  0.1127 -0.0165 -0.1210
79686W        W22598  17.177  27.000  24.653 -0.0406  0.1566 -0.2937
79687W        W22599  17.312  28.007  24.610  0.1832 -0.1392  0.0934
79688W        W22600  15.783  27.607  25.012 -0.2336 -0.1501  0.2102
79689W        W22601  16.086  25.583  23.861 -0.1479 -0.2885  0.0228
79690W        W22602  18.011  24.385  24.700 -0.0423  0.1436  0.3015
79691W        W22603  16.031  27.150  26.631 -0.1906  0.1820 -0.0621
79692W        W22604  14.246  26.728  23.860  0.3754  0.3857  0.0943
79693W        W22605  16.160  27.375  23.128 -0.2334  0.1242  0.0876
79694W        W22606  14.857  28.466  25.028  0.0282 -0.2977 -0.2377
79695W        W22607  15.960  25.048  26.921  0.0615 -0.2548 -0.1637
79696W        W22608  14.095  25.949  27.221 -0.3330  0.3399  0.2913
79697W        W22609  14.162  28.168  25.414 -0.0355 -0.1015  0.0523
79698W        W22610  15.783  28.182  23.655  0.2037  0.0933 -0.2276
79699W        W22611  17.542  28.542  25.080  0.1378  0.0466 -0.0596
79700W        W22612  15.199  26.921  25.506 -0.2178  0.0899  0.1310
79701W        W22613  14.437  25.581  25.258  0.0354 -0.2494 -0.1244
79702W        W22614  15.226  29.770  25.481  0.1449 -0.2750 -0.1707
79703W        W22615  16.490  29.936  24.511  0.0416 -0.2974  0.1910
79704W        W22616  16.163  26.773  24.891 -0.1910  0.0515  0.3728
79705W        W22617  18.518  28.046  27.974  0.3569 -0.1119 -0.0446
79706W        W22618  13.270  28.706  23.669 -0.2556  0.1232  0.1961
79707W        W22619  16.226  25.511  26.037 -0.1215  0.1153  0.0707
79708W        W22620  16.701  26.193  26.514  0.3160 -0.3534  0.2022
79709W        W22621  13.732  24.401  22.805  0.2759 -0.3355  0.2103
79710W        W22622  15.751  27.615  25.673 -0.1988  0.0415 -0.1901
79711W        W22623  15.829  29.488  27.047  0.2199  0.0325 -0.0786
79712W        W22624  17.660  30.577  23.447 -0.3782  0.2503 -0.0827
79713W        W22625  16.311  27.782  25.715  0.2104 -0.0386 -0.0259
79714W        W22626  15.814  29.910  25.625  0.0844 -0.3309 -0.0288
79715W        W22627  15.619  24.378  26.406  0.3306 -0.2881  0.0090
79716W        W22628  16.471  28.483  24.361  0.1030 -0.1734 -0.4527
79717W        W22629  16.213  27.261  27.422  0.0790  0.2318  0.3199
79718W        W22630  17.800  29.359  24.827 -0.0376 -0.1301 -0.0697
79719W        W22631  17.980  25.807  25.834 -0.0044 -0.0540 -0.1204
79720W        W22632  15.933  28.619  25.688 -0.0398 -0.1179 -0.0088
79721W        W22633  14.987  26.145  28.571  0.1444  0.1607 -0.3727
79722W        W22634  15.255  27.317  28.465  0.0961 -0.0118  0.1859
79723W        W22635  16.582  27.968  26.939 -0.0759  0.0113 -0.1137
79724W        W22636  15.256  27.461  25.617  0.3702  0.3213  0.0764
79725W        W22637  16.249  25.954  24.552  0.2918 -0.0320 -0.2720
79726W        W22638  16.602  30.025  25.042 -0.0839 -0.2473 -0.0036
79727W        W22639  15.350  27.777  24.840 -0.3499  0.1301 -0.0082
79728W        W22640  15.720  28.226  24.415 -0.1113 -0.1037 -0.1246
79729W        W22641  14.790  26.676  26.193  0.2329  0.4685 -0.1995
79730W        W22642  15.950  29.473  26.430  0.2904 -0.1267 -0.1191
79731W        W22643  15.642  27.251  27.565  0.0123 -0.1614 -0.4132
79732W        W22644  15.866  27.700  23.478 -0.0440 -0.0680  0.0778
79733W        W22645  16.896  28.117  24.310 -0.1099  0.0751 -0.0435
79734W        W22646  16.430  30.177  26.643 -0.3945 -0.0605 -0.0184
79735W        W22647  17.675  29.612  28.292  0.1342 -0.0306 -0.0358
79736W        W22648  16.270  29.263  26.988  0.0558 -0.1126  0.0214
79737W        W22649  16.736  26.712  26.025 -0.3505  0.0634  0.1827
79738W        W22650  15.397  25.637  25.301  0.0564 -0.3509  0.1122
79739W        W22651  16.040  28.768  24.314 -0.0894 -0.0765 -0.0652
79740W        W22652  16.311  26.999  26.242  0.0631  0.1165  0.0701
79741W        W22653  17.013  27.251  25.144  0.2064 -0.1936 -0.2482
79742W        W22654  15.588  27.113  25.781  0.1599  0.0244 -0.1842
79743W        W22655  16.631  26.958  24.460  0.1813 -0.0230 -0.0397
79744W        W22656  15.833  30.241  25.958  0.0736  0.3617 -0.0412
79745W        W22657  15.995  29.136  25.925  0.1334  0.1747  0.2911
79746W        W22658  16.774  27.488  30.628 -0.0027  0.4406  0.1416
79747W        W22659  16.493  25.353  26.997 -0.0438 -0.3984 -0.1026
79748W        W22660  17.810  26.122  26.528 -0.0398 -0.0533 -0.1499
79749W        W22661  19.315  27.947  28.537 -0.1021 -0.0744 -0.1742
79750W        W22662  16.508  25.790  30.287  0.1982  0.0749 -0.2917
79751W        W22663  16.075  27.626  28.601 -0.2474  0.2855 -0.1950
79752W        W22664  16.224  25.101  30.845 -0.3550  0.2000  0.0415
79753W        W22665  17.518  26.339  28.735 -0.3343  0.4362 -0.0542
79754W        W22666  18.643  28.873  29.373  0.0841  0.3383  0.1401
79755W        W22667  16.499  26.627  27.846  0.0748 -0.1410 -0.2327
79756W        W22668  16.222  26.207  30.247 -0.0495  0.0175 -0.3722
79757W        W22669  15.739  27.324  29.592  0.1274  0.0012  0.2566
79758W        W22670  17.405  25.285  28.032 -0.0848  0.0899 -0.2649
79759W        W22671  13.127  24.476  29.179  0.2671  0.2042  0.1935
79760W        W22672  17.527  27.373  27.695  0.0324  0.1257  0.2586
79761W        W22673  14.650  26.332  29.754 -0.2531 -0.1141  0.2366
79762W        W22674  16.356  25.351  30.459 -0.0672 -0.2654  0.2111
79763W        W22675  16.327  24.918  27.243 -0.4020  0.3167 -0.1463
79764W        W22676  16.622  28.812  29.538  0.3117  0.1210  0.0321
79765W        W22677  16.209  26.862  29.667  0.3168 -0.0967  0.2444
79766W        W22678  18.099  26.263  30.506 -0.2650  0.2087  0.2382
79767W        W22679  15.423  29.556  27.342  0.0315  0.0880  0.3119
79768W        W22680  15.613  26.651  26.577 -0.1164  0.3039 -0.1874
79769W        W22681  16.328  24.438  28.880  0.0812  0.1800  0.1077
79770W        W22682  16.093  27.242  29.990 -0.0487  0.1748 -0.0668
79771W        W22683  17.592  24.130  26.157 -0.0132  0.1082 -0.1954
79772W        W22684  17.264  26.403  28.274 -0.0904 -0.2047  0.3643
79773W        W22685  16.325  28.896  28.415  0.0355  0.5053  0.1837
79774W        W22686  17.466  27.724  29.634  0.0020 -0.0688 -0.0161
79775W        W22687  17.358  27.078  31.299 -0.1787  0.3923  0.1701
79776W        W22688  14.524  26.356  28.450  0.1188 -0.2815  0.1163
79777W        W22689  14.386  28.497  29.034 -0.2386  0.1811 -0.1233
79778W        W22690  16.558  28.264  28.485  0.1848  0.3370 -0.1251
79779W        W22691  17.172  27.780  27.692 -0.2126  0.1246  0.0181
79780W        W22692  16.798  27.977  30.631  0.2755 -0.1383 -0.3026
79781W        W22693  14.497  28.489  31.626  0.1151 -0.0937 -0.2174
79782W        W22694  14.504  28.594  27.862  0.1295  0.3063  0.0351
79783W        W22695  17.725  27.267  29.922 -0.0717 -0.2764  0.1193
79784W        W22696  16.645  27.242  30.012  0.4749 -0.0481  0.3641
79785W        W22697  17.811  26.323  30.921  0.0292  0.0076  0.1359
79786W        W22698  16.296  27.904  28.173  0.0554 -0.0200 -0.0485
79787W        W22699  16.155  27.264  25.841  0.0132  0.1170 -0.3077
79788W        W22700  15.487  27.425  29.035 -0.2292  0.0408 -0.3135
79789W        W22701  16.556  26.971  30.616 -0.1585  0.2252 -0.1211
79790W        W22702  15.767  27.828  29.505 -0.0384 -0.1079  0.1172
79791W        W22703  17.410  24.986  30.757  0.3278 -0.0844  0.4792
79792W        W22704  14.356  27.279  28.896  0.2441  0.2633  0.0957
79793W        W22705  17.237  26.702  26.113 -0.2887  0.0283 -0.0676
79794W        W22706  16.047  25.138  25.745 -0.2362  0.1240  0.0032
79795W        W22707  17.823  25.658  26.927 -0.0135 -0.0021 -0.0854
79796W        W22708  15.786  23.855  27.305 -0.0738  0.1988  0.1442
79797W        W22709  16.525  28.524  30.091 -0.3182 -0.0643 -0.1632
79798W        W22710  16.925  25.851  29.942 -0.2255  0.2716 -0.1397
79799W        W22711  17.481  27.296  29.295 -0.0523  0.0783  0.1406
79800W        W22712  16.124  26.084  29.367 -0.0455  0.0438  0.2109
79801W        W22713  17.461  26.780  29.972  0.4375  0.1797 -0.0772
79802W        W22714  15.496  27.985  29.932  0.2121 -0.0434  0.1122
79803W        W22715  16.237  26.511  30.641 -0.3150  0.0933 -0.1498
79804W        W22716  19.224  28.759  27.775 -0.3007 -0.0306  0.0302
79805W        W22717  16.979  28.862  27.719  0.0554  0.2155  0.0356
79806W        W22718  15.972  27.610  27.749  0.1304 -0.0229  0.0804
79807W        W22719  15.241  26.375  26.848  0.0157 -0.0893 -0.0544
79808W        W22720  14.480  27.547  29.968  0.0168 -0.0142 -0.1647
79809W        W22721  16.858  25.774  29.419  0.3695 -0.0013 -0.4562
79810W        W22722  14.744  25.453  26.457  0.4022 -0.0672  0.1114
79811W        W22723  17.622  28.142  29.932 -0.0881  0.1730 -0.1057
79812W        W22724  14.462  28.171   0.101 -0.0759  0.1904  0.1357
79813W        W22725  18.929  25.801  29.968  0.0941 -0.0705  0.2594
79814W        W22726  15.298  28.142  28.204 -0.1707  0.1552  0.2186
79815W        W22727  15.824  27.945  29.029 -0.4045  0.1240 -0.0761
79816W        W22728  16.285  28.444  26.203  0.0960  0.0608 -0.0423
79817W        W22729  17.531  24.460  28.053 -0.2019 -0.5339 -0.7547
79818W        W22730  16.690  25.092  28.723  0.0797  0.3140 -0.1297
79819W        W22731  15.229  26.607  27.624  0.1006  0.0417  0.0486
79820W        W22732  15.530  28.216  28.706 -0.4687  0.0466 -0.1592
79821W        W22733  19.513  28.114  30.747 -0.2738 -0.2189  0.1658
79822W        W22734  17.296  25.782  27.054  0.0156  0.3511  0.2880
79823W        W22735  14.786  28.271  29.322 -0.0454  0.2109  0.0065
79824W        W22736  17.007  25.710  30.460  0.3084  0.2389 -0.1197
79825W        W22737  16.446  27.203  31.971 -0.3016  0.2575  0.1612
79826W        W22738  15.582  29.306  28.017 -0.0401  0.0119  0.0282
79827W        W22739  13.871  25.852  29.320  0.1150  0.0378  0.1304
79828W        W22740  15.364  27.281  27.033 -0.3333 -0.1606 -0.3628
79829W        W22741  17.307  24.098  30.501 -0.1329  0.2277  0.0650
79830W        W22742  15.616  26.962  29.143  0.2724 -0.0268  0.0807
79831W        W22743  17.787  25.507  26.206  0.0482  0.0480  0.0919
79832W        W22744  15.541  26.941  30.314  0.0660  0.0549 -0.0750
79833W        W22745  18.671  24.632  25.533  0.3363 -0.0075 -0.2639
79834W        W22746  15.139  28.505  28.524 -0.0498  0.2639  0.1543
79835W        W22747  16.850  27.966  28.070  0.3628 -0.2747  0.0159
79836W        W22748  17.201  24.445  26.905 -0.1968 -0.0033 -0.0915
79837W        W22749  17.062  26.751  27.577  0.1168  0.1839  0.0762
79838W        W22750  15.090  25.339  30.295  0.1761 -0.1897  0.0421
79839W        W22751  14.873  27.786  29.455 -0.1117 -0.1766 -0.1580
79840W        W22752  16.571  25.043  30.105  0.2253  0.3063 -0.0423
79841W        W22753  17.437  25.077  30.249 -0.0960  0.3577  0.3188
79842W        W22754  17.931  26.750  30.488  0.2101  0.1534  0.1218
79843W        W22755  15.471  26.977  28.054  0.1502 -0.2847 -0.0067
79844W        W22756  17.985  26.285  27.453 -0.4741  0.1896 -0.0441
79845W        W22757  16.784  26.272  28.697  0.0616  0.0896 -0.0180
79846W        W22758  13.952  27.332  27.610  0.0484 -0.0993  0.2537
79847W        W22759  17.873  26.606  31.362  0.0352 -0.1813  0.2535
79848W        W22760  15.496  28.917  28.899  0.1109 -0.1171  0.0563
79849W        W22761  17.476  27.193  30.445 -0.3904 -0.1713  0.1511
79850W        W22762  17.340  28.547  29.023  0.0295 -0.2302  0.2347
79851W        W22763  15.933  27.171  28.658  0.0302  0.4852  0.0347
79852W        W22764  15.345  27.737  27.552 -0.2756 -0.0723 -0.1125
79853W        W22765  16.366  29.040  30.050 -0.0871  0.0869  0.0012
79854W        W22766  15.676  27.539  30.089  0.3362  0.2993  0.3327
79855W        W22767  15.509  25.297  27.193  0.3119 -0.0357  0.1267
79856W        W22768  18.054  28.927  28.588 -0.1197  0.0889 -0.0254
79857W        W22769  16.613  28.211  29.708  0.0999 -0.1417 -0.1755
79858W        W22770  14.896  26.304  30.513 -0.1032 -0.0513 -0.0867
79859W        W22771  17.963  24.857  30.043  0.0375  0.2733 -0.1687
79860W        W22772  18.899  26.863  28.024 -0.0041  0.1276 -0.1687
79861W        W22773  17.478  25.302  27.135 -0.0361  0.1175 -0.1765
79862W        W22774  15.395  24.699  25.873 -0.0224 -0.0971  0.1032
79863W        W22775  16.169  29.137  29.429 -0.0315 -0.1717  0.1325
79864W        W22776  14.984  27.924  27.787 -0.0531 -0.0827 -0.0654
79865W        W22777  16.051  26.377  28.002 -0.1256  0.2446 -0.1410
79866W        W22778  15.002  28.040  29.882 -0.0434 -0.3313 -0.2040
79867W        W22779  17.802  26.694  26.597  0.0582  0.2244 -0.0179
79868W        W22780  15.855  25.369  30.554  0.0363 -0.0044 -0.1354
79869W        W22781  17.212  26.378   0.685 -0.0858 -0.1044  0.0891
79870W        W22782  15.115  25.910  29.565 -0.1731 -0.0918 -0.0384
79871W        W22783  15.297  27.367  30.379 -0.0687 -0.0156 -0.1123
79872W        W22784  15.435  24.862  27.569  0.0913  0.1984 -0.1532
79873W        W22785  16.969  24.955  26.293 -0.0396 -0.2664 -0.1054
79874W        W22786  16.589  28.009  31.298  0.1899  0.0068 -0.0683
79875W        W22787  17.969  28.058  29.199 -0.1429  0.3531 -0.0130
79876W        W22788  17.953  26.471  28.854  0.2007 -0.1127  0.1335
79877W        W22789  15.862  25.992  27.677  0.2284 -0.1195  0.0754
79878W        W22790  15.349  26.442  30.385 -0.2644  0.2759 -0.0224
79879W        W22791  17.663  29.673  27.059 -0.4334 -0.0593  0.0627
79880W        W22792  15.131  27.940  29.057 -0.1546  0.0628  0.0617
79881W        W22793  17.515  24.548  27.337 -0.1226 -0.0819 -0.0860
79882W        W22794  19.102  28.644  29.443  0.0162 -0.0347 -0.2318
79883W        W22795  15.968  27.845  30.402 -0.0083  0.0705  0.0939
79884W        W22796  16.720  27.714  29.667  0.0530  0.3015  0.0545
79885W        W22797  16.884  28.439  28.157  0.4809  0.0588 -0.1316
79886W        W22798  18.003  25.611  29.013 -0.1752  0.0064 -0.2505
79887W        W22799  15.867  25.758  26.418 -0.2158  0.0623 -0.3282
79888W        W22800  17.100  25.377  30.038  0.3182  0.0042  0.0695
79889W        W22801  15.981  28.379  28.914 -0.3759  0.4040  0.1522
79890W        W22802  19.675  25.115  28.857  0.3753 -0.0331  0.0073
79891W        W22803  18.099  26.282  29.298  0.0209  0.0286  0.0745
79892W        W22804  17.014  25.196  30.507  0.2244 -0.4718  0.1795
79893W        W22805  17.243  26.835  29.516  0.0212 -0.0564 -0.0096
79894W        W22806  16.938  26.311  27.911  0.0427  0.0484  0.1862
79895W        W22807  17.333  26.306  29.732  0.0852 -0.0443 -0.1266
79896W        W22808  15.716  28.097  27.421 -0.2019 -0.2046 -0.0161
79897W        W22809  18.092  25.113  29.213 -0.0030 -0.0589 -0.2682
79898W        W22810  15.069  27.154  30.810  0.1211  0.1583 -0.0123
79899W        W22811  14.731  27.630  31.741 -0.3588  0.1067  0.0760
79900W        W22812  17.971  27.715  29.806  0.0367 -0.2286  0.3629
79901W        W22813  17.122  28.011  29.855  0.0464 -0.0620  0.0268
79902W        W22814  17.737  25.987  29.153 -0.3190  0.0029 -0.0728
79903W        W22815  16.197  26.121  26.646 -0.0435 -0.0586 -0.2395
79904W        W22816  15.459  29.070  28.417 -0.1788  0.5566  0.1904
79905W        W22817  15.683  28.122  26.518  0.2705  0.0338  0.0476
79906W        W22818  17.451  25.525  30.394 -0.1292 -0.3375 -0.0980
79907W        W22819  14.958  27.289  29.037  0.0168  0.2922 -0.0573
79908W        W22820  15.815  29.903  27.323 -0.0994  0.2089 -0.0667
79909W        W22821  16.428  27.019  31.470  0.1751  0.2355 -0.1040
79910W        W22822  14.308  27.159  29.507  0.1864 -0.2562  0.3293
79911W        W22823  18.898  25.184  29.658 -0.4244  0.0805 -0.1653
79912W        W22824  14.033  28.718  29.361  0.2177 -0.2569  0.0590
79913W        W22825  15.593  25.279  26.658 -0.2306  0.1425 -0.0033
79914W        W22826  14.952  27.152  28.119 -0.2735 -0.2339  0.2560
79915W        W22827  16.797  24.709  27.056  0.2413 -0.3269 -0.0884
79916W        W22828  16.594  27.671  27.751 -0.2169 -0.0641 -0.1354
79917W        W22829  16.359  24.573  30.119 -0.0328 -0.1482  0.0571
79918W        W22830  16.817  24.948  29.252 -0.2845 -0.1843  0.2001
79919W        W22831  15.273  28.197  29.475 -0.0218  0.1686  0.1490
79920W        W22832  16.710  26.257  30.185 -0.1388 -0.3400  0.1737
79921W        W22833  17.029  24.454  27.416  0.0064 -0.1763  0.1135
79922W        W22834  16.951  28.348  30.210  0.1335 -0.1103 -0.2251
79923W        W22835  15.547  26.739  31.276  0.1880  0.2761 -0.1141
79924W        W22836  14.263  26.488  27.973  0.2027 -0.0154  0.0602
79925W        W22837  17.867  25.936  31.566 -0.0814 -0.0953  0.2190
79926W        W22838  15.820  26.733  28.289  0.1236  0.0921 -0.4742
79927W        W22839  13.992  28.565  28.729  0.1674  0.2434  0.2102
79928W        W22840  17.627  28.309  30.871  0.2321  0.0930 -0.3747
79929W        W22841  16.588  26.806  28.685 -0.1602 -0.0409  0.1620
79930W        W22842  14.952  28.570  29.718  0.0239  0.2145 -0.0330
79931W        W22843  17.834  26.599  29.645 -0.3693 -0.1613 -0.1845
79932W        W22844  18.393  25.617  29.851 -0.0695 -0.0546  0.0675
79933W        W22845  17.666  25.254  28.773 -0.0828  0.0850  0.0824
79934W        W22846  16.642  23.228  29.920 -0.2848  0.1265  0.0457
79935W        W22847  16.971  27.105  30.392  0.3088 -0.0878  0.0786
79936W        W22848  17.761  28.835  29.065 -0.0406 -0.1728 -0.2097
79937W        W22849  17.186  26.318  30.185 -0.1931 -0.0476 -0.2278
79938W        W22850  14.596  28.431  31.094 -0.3167  0.0848 -0.0779
79939W        W22851  17.079  24.871  29.956 -0.0651 -0.1981 -0.1592
79940W        W22852  17.224  29.267  27.120 -0.0664 -0.0971 -0.1428
79941W        W22853  16.102  26.412  29.789  0.1936  0.3187  0.2239
79942W        W22854  14.911  26.514  29.359 -0.2364  0.1299  0.0600
79943W        W22855  14.267  27.009  29.964  0.1328 -0.1285 -0.2935
79944W        W22856  15.276  27.603  28.084 -0.1238  0.0526 -0.0939
79945W        W22857  17.018  27.129  28.839 -0.0903 -0.0331  0.0439
79946W        W22858  15.237  26.665  30.811 -0.0610 -0.1886 -0.0172
79947W        W22859  14.645  26.957  29.158  0.1203 -0.1482 -0.1255
79948W        W22860  13.879  26.809  29.715 -0.0284 -0.0073 -0.0126
79949W        W22861  18.367  23.817  25.408  0.0505  0.1355 -0.0729
79950W        W22862  17.143  28.046  28.454 -0.2195 -0.1148 -0.1550
79951W        W22863  16.712  27.253  28.455 -0.1085  0.0875  0.5265
79952W        W22864  17.969  25.260  29.708  0.1381  0.1135 -0.0247
79953W        W22865  17.250  27.633  28.707 -0.0428  0.2240 -0.0769
79954W        W22866  17.188  25.234   1.062  0.2036  0.0226 -0.2669
79955W        W22867  16.191  24.923  29.758 -0.1257 -0.0900  0.3213
79956W        W22868  16.676  27.721  29.174 -0.1391  0.1532 -0.2971
79957W        W22869  15.340  25.167  29.695  0.0821  0.2367  0.1851
79958W        W22870  16.335  28.910  31.015  0.2802 -0.0066 -0.1870
79959W        W22871  15.203  26.717  31.670  0.0001 -0.3033 -0.3032
79960W        W22872  15.021  24.948  27.248  0.0049  0.2806  0.0673
79961W        W22873  15.530  24.596  28.282 -0.0049 -0.0713  0.1058
79962W        W22874  17.689  27.678  29.006  0.0451 -0.0265  0.0524
79963W        W22875  15.702  27.835  28.095  0.0828  0.0970 -0.0073
79964W        W22876  16.026  29.550  28.947 -0.0002 -0.0775  0.0224
79965W        W22877  18.585  24.798  27.754 -0.0002  0.1564 -0.1409
79966W        W22878  16.735  26.826  29.611  0.0515  0.1612  0.0830
79967W        W22879  17.634  25.857  27.417 -0.0959  0.1980 -0.0771
79968W        W22880  16.461  28.567  28.834  0.1077  0.2092 -0.1063
79969W        W22881  16.322  27.956  28.927 -0.1018  0.1511 -0.1541
79970W        W22882  17.604  25.923  31.074  0.0297  0.2965 -0.0270
79971W        W22883  16.000  27.395  29.096 -0.0343 -0.1504 -0.0858
79972W        W22884  17.152  26.105  29.140 -0.1500  0.1539  0.0769
79973W        W22885  18.137  24.713  29.606  0.3109  0.3140  0.3326
79974W        W22886  17.570  26.101  30.562  0.1763 -0.0426  0.2433
79975W        W22887  17.983  25.834  30.102  0.0492  0.1918 -0.0660
79976W        W22888  15.935  25.906  29.803 -0.0861  0.1198  0.1147
79977W        W22889  17.950  29.603  30.065  0.2824 -0.0687 -0.0847
79978W        W22890  16.712  27.584  26.002  0.1023 -0.1319 -0.0251
79979W        W22891  18.543  25.763  30.852 -0.3374 -0.0155 -0.2050
79980W        W22892  16.890  25.875  27.453  0.1575 -0.0198  0.1376
79981W        W22893  16.580  27.170  27.790  0.0082  0.1792  0.1856
79982W        W22894  14.400  25.684  30.536  0.2016  0.1597 -0.0904
79983W        W22895  17.542  26.673  31.727 -0.5011 -0.0807  0.1022
79984W        W22896  16.117  26.517  27.498  0.0030  0.3943 -0.2880
79985W        W22897  18.442  26.132  31.721  0.0441 -0.0974  0.0997
79986W        W22898  16.690  27.756  28.525 -0.2273 -0.1757  0.1967
79987W        W22899  17.098  26.709  28.648  0.2180 -0.2808  0.2746
79988W        W22900  16.332  26.858  28.258  0.0322 -0.1383 -0.3120
79989W        W22901  16.562  26.116  29.142 -0.0385  0.2510 -0.3845
79990W        W22902  16.012  30.054  31.902 -0.2088  0.1635 -0.1832
79991W        W22903  14.181  25.491  27.419 -0.1290 -0.1493  0.3547
79992W        W22904  14.685  27.672  28.983 -0.1791  0.0241  0.3238
79993W        W22905  18.277  28.644  29.720 -0.1655 -0.3437  0.2368
79994W        W22906  19.232  26.028  29.624 -0.3906  0.1105 -0.1873
79995W        W22907  15.923  24.971  27.483 -0.2269  0.0922 -0.0112
79996W        W22908  17.443  25.914  30.069  0.3063 -0.2800  0.2120
79997W        W22909  13.883  29.326  29.412  0.0448 -0.1671 -0.0846
79998W        W22910  17.505  25.694  28.876 -0.1319  0.4475  0.2724
79999W        W22911  15.445  27.876  30.461 -0.0753 -0.2796  0.2641
80000W        W22912  15.795  27.374  30.544  0.0707  0.1498 -0.0316
80001W        W22913  14.535  28.059  29.735 -0.0339  0.0467 -0.1388
80002W        W22914  17.898  25.334  30.316  0.1316  0.4076  0.0014
80003W        W22915  17.909  25.483  27.532  0.0676 -0.0288  0.0169
80004W        W22916  16.852  26.245  29.592  0.1723 -0.2527 -0.0606
80005W        W22917  17.661  26.752  28.537 -0.0385 -0.0175  0.0073
80006W        W22918  17.122  28.517  30.645 -0.1770 -0.0725 -0.1094
80007W        W22919  15.664  26.774  29.755 -0.0824  0.0106 -0.0918
80008W        W22920  16.556  29.334  29.143  0.1899  0.1545  0.0579
80009W        W22921  18.140  27.799  28.763  0.0680  0.0548  0.0643
80010W        W22922  15.301  27.463  29.484 -0.0231  0.1252 -0.2670
80011W        W22923  13.654  26.425  31.332  0.3406  0.2374 -0.2428
80012W        W22924  17.499  26.230  31.489 -0.1893 -0.0832  0.0990
80013W        W22925  17.787  27.201  28.138  0.2591 -0.3846 -0.1263
80014W        W22926  14.542  26.346  27.576  0.1125  0.2819 -0.1980
80015W        W22927  16.864  26.888  28.137 -0.2412 -0.1903 -0.1814
80016W        W22928  16.082  26.990  30.415  0.1861  0.1514  0.0384
80017W        W22929  17.173  25.256  29.553 -0.0800  0.0179 -0.2873
80018W        W22930  14.589  29.171  27.736  0.1863  0.1941 -0.1421
80019W        W22931  16.775  28.013  27.363 -0.0623 -0.0452  0.1684
80020W        W22932  17.988  26.744  27.892 -0.1781 -0.2795 -0.0186
80021W        W22933  17.312  28.745  29.473  0.0697  0.2389  0.1870
80022W        W22934  16.163  25.380  26.541  0.1842  0.1529  0.2581
80023W        W22935  14.756  28.223  28.140 -0.0099 -0.1041  0.2272
80024W        W22936  14.564  28.092  27.658  0.2122 -0.1127 -0.0914
80025W        W22937  16.145  29.225  27.987 -0.3382  0.2123  0.0055
80026W        W22938  16.326  27.920  29.423  0.0172 -0.3124  0.1814
80027W        W22939  16.569  28.424  30.605 -0.1059 -0.0178 -0.2158
80028W        W22940  18.315  25.762  26.379  0.2493  0.1083  0.1088
80029W        W22941  17.049  26.686  27.073 -0.3914  0.1714  0.0691
80030W        W22942  17.923  23.932  25.664 -0.1498 -0.0254  0.3607
80031W        W22943  16.305  27.764  30.816 -0.1383 -0.2064 -0.3234
80032W        W22944  15.755  26.179  28.935 -0.2124  0.0607 -0.4408
80033W        W22945  16.218  25.711  25.553  0.0208 -0.0266  0.1313
80034W        W22946  16.008  25.627  31.431  0.0764  0.0091  0.0015
80035W        W22947  19.515  22.615  30.369  0.1889 -0.3183 -0.1459
80036W        W22948  13.305  29.465  30.644 -0.3812 -0.2083  0.2264
80037W        W22949  18.919  30.521  28.616  0.1697  0.1951 -0.1324
80038W        W22950  15.633  25.995  27.258 -0.0950  0.0412  0.1103
80039W        W22951  15.883  25.355  29.962 -0.1230 -0.0519 -0.2571
80040W        W22952  18.446  25.115  29.828 -0.0207  0.0629  0.4250
80041W        W22953  15.704  26.914  27.027  0.0836  0.3678  0.4057
80042W        W22954  18.202  25.071  27.703  0.3543  0.3123 -0.2586
80043W        W22955  14.640  28.584  28.531  0.3659 -0.2196  0.0238
80044W        W22956  16.304  28.483  29.310  0.0451  0.0708 -0.0390
80045W        W22957  15.706  28.312  29.320  0.0804  0.0881 -0.1678
80046W        W22958  13.377  24.626  28.182 -0.1205 -0.3235 -0.0053
80047W        W22959  18.018  26.590  27.061 -0.0926  0.1815  0.0588
80048W        W22960  17.378  25.784  29.508 -0.0104 -0.3623  0.2134
80049W        W22961  18.563  24.809  29.195  0.3308 -0.1845 -0.0193
80050W        W22962  17.481  26.796  27.901 -0.2071  0.0437  0.0452
80051W        W22963  16.915  25.376  25.895 -0.4655 -0.3615  0.0574
80052W        W22964  17.889  26.893  29.257 -0.3485  0.0664  0.0121
80053W        W22965  17.245  25.332  29.092 -0.2177 -0.0052  0.3835
80054W        W22966  16.395  26.084  27.745 -0.0111 -0.2337  0.3088
80055W        W22967  16.157  26.931  29.185 -0.1308 -0.0626  0.0009
80056W        W22968  16.651  25.411  29.132  0.2854 -0.0203  0.2109
80057W        W22969  16.472  29.597  30.337 -0.0397 -0.3454 -0.0473
80058W        W22970  17.560  25.453  29.895 -0.0264 -0.0432  0.0753
80059W        W22971  16.958  25.371  27.132 -0.2360  0.2641 -0.0095
80060W        W22972  15.914  26.552  30.233 -0.0569 -0.2422  0.1629
80061W        W22973  17.028  27.638  31.262 -0.0320  0.2286  0.1291
80062W        W22974  18.520  28.107  30.885 -0.0206  0.0358  0.2122
80063W        W22975  16.090  26.702  28.753 -0.3504  0.1369 -0.0747
80064W        W22976  17.563  27.108  26.278  0.1562  0.0724 -0.1674
80065W        W22977  18.273  26.827  28.964  0.1487 -0.3840 -0.0082
80066W        W22978  15.993  27.931  25.400  0.1378 -0.1196 -0.2773
80067W        W22979  16.219  27.696  29.862 -0.4650 -0.0258 -0.0382
80068W        W22980  18.761  28.523  29.069 -0.1328 -0.1265  0.4035
80069W        W22981  16.692  25.348  29.626  0.5155 -0.2071 -0.1386
80070W        W22982  16.862  28.663  29.087 -0.0941  0.1537  0.2281
80071W        W22983  18.289  28.426  29.105  0.0257 -0.2045  0.1766
80072W        W22984  15.428  25.861  26.764  0.0675 -0.0009 -0.0606
80073W        W22985  15.465  26.929  28.593 -0.0407 -0.3443 -0.0156
80074W        W22986  13.848  27.623  28.746  0.1413  0.1157  0.0192
80075W        W22987  17.425  26.889  29.045 -0.2925 -0.0488  0.0708
80076W        W22988  17.539  24.986  29.773  0.1612  0.1061 -0.0489
80077W        W22989  16.152  28.472  26.708  0.1173  0.2063 -0.2283
80078W        W22990  18.851  23.481  30.346 -0.0750  0.0042  0.0081
80079W        W22991  17.754  28.539  29.618 -0.0851  0.1006  0.2615
80080W        W22992  16.113  27.331   0.288 -0.2507 -0.0941  0.1538
80081W        W22993  14.905  27.136  26.493 -0.0810 -0.5123  0.3541
80082W        W22994  16.368  26.903   0.806 -0.2352  0.2343  0.0500
80083W        W22995  17.004  28.289  29.345  0.2710 -0.1103  0.0148
80084W        W22996  15.877  27.617  26.625 -0.2480 -0.2023 -0.0766
80085W        W22997  17.467  28.146  29.365 -0.4837  0.0151  0.1129
80086W        W22998  16.924  25.756  26.756  0.3846  0.2301  0.1594
80087W        W22999  17.666  28.082  28.420 -0.2151  0.1633 -0.2452
80088W        W23000  16.868  25.006  28.200  0.1882 -0.0975  0.0494
80089W        W23001  16.855  25.286  27.742  0.0682  0.2102  0.1836
80090W        W23002  17.261  25.465  28.507 -0.1355 -0.1048 -0.0254
80091W        W23003  16.580  25.748  31.294  0.2153  0.2451  0.3727
80092W        W23004  13.059  27.066  27.330 -0.1103  0.0768 -0.3592
80093W        W23005  15.060  26.867  26.929  0.2084 -0.1779  0.0225
80094W        W23006  16.906  26.562  29.134  0.1666 -0.4374 -0.1394
80095W        W23007  16.856  26.306   0.249  0.1628  0.1932  0.1844
80096W        W23008  16.555  26.083  30.653  0.0890 -0.1331 -0.0101
80097W        W23009  14.707  26.065  29.341  0.0820  0.0621  0.2334
80098W        W23010  15.312  25.478  28.362 -0.0251 -0.0675  0.2670
80099W        W23011  17.371  27.714  28.148 -0.2250 -0.2878 -0.2172
80100W        W23012  15.648  24.254  29.357 -0.0458  0.0361  0.1124
80101W        W23013  15.831  25.634  28.512  0.3458 -0.2290  0.1226
80102W        W23014  17.144  27.797  29.202  0.1276  0.5069  0.2105
80103W        W23015  18.032  28.549  27.293 -0.0130 -0.0620  0.0823
80104W        W23016  15.101  25.468  27.466 -0.0431 -0.0977  0.0035
80105W        W23017  18.029  26.880  30.001  0.1058  0.2254 -0.5085
80106W        W23018  15.192  27.069  27.421  0.1786  0.0777 -0.0161
80107W        W23019  16.996  26.342  31.725 -0.1397 -0.0945 -0.0788
80108W        W23020  16.913  24.186  30.876  0.3024 -0.2098  0.1119
80109W        W23021  14.538  25.496  28.953 -0.2047  0.4359  0.4296
80110W        W23022  16.952  26.695  30.054 -0.2134  0.2976 -0.1470
80111W        W23023  17.153  28.323  27.522  0.1563  0.1445 -0.0354
80112W        W23024  18.476  29.789  27.469 -0.1049  0.0419 -0.0253
80113W        W23025  16.035  26.741  31.050  0.2162 -0.1555 -0.1156
80114W        W23026  15.733  27.633  30.965  0.2851 -0.0830  0.3878
80115W        W23027  15.339  25.040  31.652 -0.4554 -0.2194 -0.0853
80116W        W23028  16.561  26.035  27.046 -0.0004  0.0127  0.0611
80117W        W23029  15.479  28.048   0.368 -0.1045  0.2629 -0.1787
80118W        W23030  18.393  27.766  27.201  0.4058  0.1807  0.1281
80119W        W23031  19.721  25.825  29.885 -0.1177 -0.1658 -0.0154
80120W        W23032  16.475  27.247  28.975  0.0764 -0.2174  0.0923
80121W        W23033  16.043  25.056  31.342  0.0585 -0.1207  0.1218
80122W        W23034  17.349  26.526  31.085  0.0676 -0.2048  0.0482
80123W        W23035  16.823  28.127  28.856 -0.0925 -0.0217  0.1364
80124W        W23036  16.951  25.724  28.846  0.1978 -0.0473  0.0468
80125W        W23037  17.493  26.421  29.296  0.1850 -0.4767 -0.1439
80126W        W23038  16.188  29.046  28.918  0.0257  0.1609  0.1952
80127W        W23039  15.980  26.357   0.070  0.3948 -0.1131  0.0093
80128W        W23040  15.710  26.756  27.722 -0.0745 -0.3013 -0.0800
80129W        W23041  17.466  26.580  30.504 -0.2002 -0.0291  0.1118
80130W        W23042  17.445  28.609  30.014  0.2431  0.2625 -0.1017
80131W        W23043  17.437  25.953  28.393 -0.0091  0.1080  0.2178
80132W        W23044  16.440  24.934  26.656 -0.2463 -0.0225  0.2156
80133W        W23045  17.958  27.514  27.286 -0.0312  0.0788  0.2008
80134W        W23046  17.139  29.364  29.724 -0.0105 -0.0263  0.0686
80135W        W23047  16.993  28.570  31.906  0.0237 -0.1838  0.0895
80136W        W23048  17.036  28.790  29.846  0.1046 -0.1031  0.3239
80137W        W23049  16.961  27.297  29.516  0.3152 -0.1720  0.3545
80138W        W23050  16.752  23.421  30.372 -0.0229 -0.0453 -0.0007
80139W        W23051  15.783  27.333  28.236  0.4150 -0.0889 -0.2081
80140W        W23052  16.540  26.414  28.302 -0.1209  0.1136  0.0593
80141W        W23053  17.029  26.707  31.419 -0.1367 -0.1644 -0.1449
80142W        W23054  16.234  26.269  28.735 -0.2218  0.0302 -0.3651
80143W        W23055  16.988  24.209  27.879  0.0505 -0.1809 -0.1257
80144W        W23056  14.778  28.964  31.733  0.2943 -0.0587  0.0576
80145W        W23057  16.560  27.909  30.192 -0.1508 -0.0464  0.0717
80146W        W23058  17.649  24.851  31.389 -0.0524  0.1612 -0.1474
80147W        W23059  16.965  25.782  31.739  0.2043  0.0337  0.0331
80148W        W23060  15.956  25.578   2.045  0.3920 -0.1189  0.0637
80149W        W23061  16.749  26.681  31.030 -0.0031 -0.0975  0.2089
80150W        W23062  16.019  28.479  31.807  0.2737  0.1095 -0.0405
80151W        W23063  15.827  28.342  31.318 -0.0286  0.0425 -0.1763
80152W        W23064  17.987  26.419  31.827 -0.0683  0.0118  0.1848
80153W        W23065  16.888  24.584   0.623  0.1369  0.2387 -0.0179
80154W        W23066  18.564  25.716   0.004  0.2127 -0.1549 -0.0918
80155W        W23067  17.930  27.331  30.386 -0.2723 -0.0943 -0.0905
80156W        W23068  17.283  26.746   0.286  0.1004  0.1025  0.1261
80157W        W23069  16.161  24.804  31.747 -0.0036  0.2732 -0.0956
80158W        W23070  17.337  27.395  30.918 -0.1156  0.2026  0.1282
80159W        W23071  15.783  26.190  30.556  0.2844  0.1523  0.1448
80160W        W23072  18.966  25.683  30.991 -0.2167 -0.0434  0.0845
80161W        W23073  15.374  29.400   0.246  0.0376  0.2079  0.1912
80162W        W23074  13.940  25.916  31.973 -0.0003  0.0642 -0.2452
80163W        W23075  17.614  27.508  31.462  0.1057 -0.1011 -0.0321
80164W        W23076  15.545  25.500  31.548 -0.3092 -0.3378  0.2291
80165W        W23077  14.803  24.407  30.149  0.1736 -0.0274  0.0211
80166W        W23078  14.048  24.155  30.630  0.1093  0.0760  0.2546
80167W        W23079  14.986  25.731   0.589  0.1619 -0.1317 -0.2155
80168W        W23080  19.459  23.505  30.493 -0.1517  0.0428 -0.0006
80169W        W23081  16.409  26.503  29.370 -0.0613  0.0496 -0.3505
80170W        W23082  18.248  25.552  31.655  0.3246  0.1171  0.1477
80171W        W23083  15.588  26.714   0.113  0.2214  0.0041 -0.2133
80172W        W23084  15.841  27.106  31.918  0.1594  0.3351 -0.1597
80173W        W23085  15.073  27.802   0.604 -0.0063 -0.3541 -0.0036
80174W        W23086  16.276  26.222  31.125 -0.0731  0.0906  0.1236
80175W        W23087  16.436  27.298  29.482 -0.0127  0.1273  0.0891
80176W        W23088  14.861  28.126  31.611  0.3267 -0.0239  0.0614
80177W        W23089  15.108  27.046  31.297  0.0038  0.3820  0.1572
80178W        W23090  17.769  25.232   0.441  0.2854 -0.0504  0.2295
80179W        W23091  18.229  23.904  30.635 -0.4967 -0.3042 -0.0780
80180W        W23092  14.289  23.963  31.984 -0.0707  0.1777 -0.1517
80181W        W23093  15.219  28.430  29.025 -0.3606 -0.0330 -0.1314
80182W        W23094  15.054  27.712  31.381 -0.0079 -0.4289  0.2686
80183W        W23095  16.720  29.354  31.682 -0.0029 -0.1009  0.2256
80184W        W23096  17.702  26.924  30.894 -0.2473  0.0722  0.2504
80185W        W23097  17.502  25.840  31.866 -0.1310 -0.2625  0.0163
80186W        W23098  19.255  25.483  30.665 -0.2845  0.3372  0.0289
80187W        W23099  17.789  25.467  31.896  0.0795 -0.1367  0.0954
80188W        W23100  15.731  25.822  30.900  0.0121  0.1389  0.1107
80189W        W23101  16.414  26.708  30.195  0.1745  0.5088  0.0056
80190W        W23102  14.807  27.306  29.529  0.1332 -0.2076 -0.3569
80191W        W23103  17.220  27.248  29.965 -0.2158 -0.1521  0.0762
80192W        W23104  15.695  25.520   0.136  0.0398  0.1049  0.1200
80193W        W23105  16.713  25.961   0.617  0.0368  0.0955 -0.4672
80194W        W23106  17.553  26.297   0.111  0.2151  0.0475  0.2736
80195W        W23107  14.233  29.253  31.034 -0.2138  0.3298  0.2962
80196W        W23108  17.415  29.234  30.142 -0.0133  0.0506  0.2746
80197W        W23109  17.941  24.394  30.398 -0.2721  0.2504  0.1229
80198W        W23110  17.917  24.919  30.602  0.3990  0.1870 -0.1011
80199W        W23111  16.901  27.598  30.183  0.0011 -0.0145 -0.0609
80200W        W23112  15.791  26.573   1.126 -0.0118 -0.0620 -0.1626
80201W        W23113  17.185  26.891  30.808  0.1989  0.1400  0.0240
80202W        W23114  17.461  27.892  31.123 -0.2119 -0.2771 -0.2158
80203W        W23115  14.077  28.830  31.475  0.0500  0.0473  0.0170
80204W        W23116  14.917  27.974   0.116 -0.2762  0.3332  0.0679
80205W        W23117  16.932  26.561  30.530 -0.2676  0.0192 -0.0961
80206W        W23118  16.018  25.737  30.260  0.2718  0.1349 -0.1067
80207W        W23119  15.151  26.239  31.782  0.2127 -0.2091  0.3640
80208W        W23120  15.553  27.059   0.526  0.2740 -0.0671 -0.2237
80209W        W23121  14.746  23.711  30.842  0.3337  0.1531  0.0837
80210W        W23122  18.660  28.771  30.003  0.0925 -0.0555  0.0935
80211W        W23123  18.525  28.183   0.013 -0.1637  0.1399 -0.1260
80212W        W23124  17.283  29.063  31.566  0.2048 -0.2954  0.1530
80213W        W23125  15.222  32.277  18.464 -0.0329  0.0253  0.3258
80214W        W23126  16.261  31.892  17.856 -0.1816  0.0761  0.0688
80215W        W23127  16.989  30.201  16.156 -0.1693 -0.2063  0.1295
80216W        W23128  18.725  30.674  15.841 -0.1011 -0.0012  0.3399
80217W        W23129  15.572  29.696  17.551 -0.2256  0.2292 -0.0155
80218W        W23130  17.277  32.436  16.536  0.1812 -0.1725 -0.0548
80219W        W23131  16.254  29.457  18.106 -0.2888  0.2029  0.1626
80220W        W23132  17.387  32.267  17.672 -0.1667 -0.2590 -0.3578
80221W        W23133  19.346  32.666  18.294 -0.1196 -0.1328  0.0750
80222W        W23134  16.671  30.645  17.841 -0.1039  0.1039  0.1419
80223W        W23135  15.778  31.279  18.108 -0.0871  0.1158  0.3613
80224W        W23136  17.052  31.911  19.172 -0.1186 -0.2062  0.1743
80225W        W23137  16.385  29.028  16.486 -0.0981 -0.0074  0.0736
80226W        W23138  14.429  30.098  18.338 -0.1525  0.3531 -0.1386
80227W        W23139  16.466  29.670  17.673 -0.1359  0.1768  0.1754
80228W        W23140  16.467  32.169  15.592  0.2485  0.5011 -0.2188
80229W        W23141  16.184  31.363  17.855 -0.2563 -0.1940  0.3332
80230W        W23142  16.707  30.675  17.290 -0.2304 -0.3433  0.3077
80231W        W23143  18.279  33.335  17.346 -0.0475  0.0193 -0.0335
80232W        W23144  16.565  29.203  19.436 -0.1074  0.2096 -0.0819
80233W        W23145  17.658  28.575  17.783  0.1570 -0.2670 -0.1559
80234W        W23146  16.570  31.237  18.123  0.1801 -0.0751 -0.1366
80235W        W23147  14.611  30.227  17.228 -0.2241 -0.4382  0.1306
80236W        W23148  14.634  29.367  17.459  0.0622  0.0409 -0.1398
80237W        W23149  16.237  30.547  19.567 -0.1052  0.4213  0.0481
80238W        W23150  16.344  29.213  17.413  0.1502  0.0113 -0.0898
80239W        W23151  17.651  30.775  18.889 -0.2799 -0.0479  0.0999
80240W        W23152  16.555  31.923  18.780  0.2143  0.0379 -0.1681
80241W        W23153  16.987  33.091  17.251  0.3243 -0.2663  0.0247
80242W        W23154  16.795  30.222  18.514 -0.2840  0.0960  0.3033
80243W        W23155  15.070  32.064  17.161 -0.1190  0.1746  0.2133
80244W        W23156  14.664  31.802  16.945  0.2291  0.1275 -0.0924
80245W        W23157  15.275  32.774  18.654 -0.1065  0.1369 -0.0116
80246W        W23158  18.236  31.397  16.089  0.1008 -0.1509  0.0032
80247W        W23159  18.736  31.818  18.581  0.1941  0.0539 -0.5080
80248W        W23160  16.038  31.660  18.313 -0.2697 -0.3392 -0.0829
80249W        W23161  16.291  32.283  16.555  0.1261  0.2609  0.1708
80250W        W23162  17.377  31.933  17.273  0.3401 -0.3135  0.0515
80251W        W23163  14.743  31.269  18.876 -0.1893 -0.1290  0.2313
80252W        W23164  17.309  30.406  18.489  0.4894  0.0486  0.0034
80253W        W23165  17.227  30.868  18.123  0.0201 -0.1805  0.0138
80254W        W23166  16.174  33.537  17.377  0.1375  0.2214 -0.0834
80255W        W23167  16.887  32.091  17.495  0.0549 -0.0740  0.3178
80256W        W23168  15.338  31.693  20.553 -0.1893  0.2182  0.1231
80257W        W23169  15.509  33.263  19.412 -0.1721  0.2880  0.0180
80258W        W23170  17.927  29.711  21.637 -0.2070 -0.1418 -0.2531
80259W        W23171  16.648  32.638  16.767 -0.2477  0.0177 -0.2169
80260W        W23172  17.644  31.223  16.342  0.2582 -0.0612 -0.1619
80261W        W23173  17.343  29.843  16.466 -0.3234 -0.1478 -0.1315
80262W        W23174  17.119  30.405  15.573 -0.0054 -0.2896  0.2977
80263W        W23175  16.296  28.153  17.688 -0.0307 -0.1871 -0.1418
80264W        W23176  15.328  31.364  17.886  0.0556  0.1882 -0.1390
80265W        W23177  15.329  29.495  18.666  0.4084  0.0420 -0.0895
80266W        W23178  17.261  32.924  20.068 -0.1831  0.2834 -0.2641
80267W        W23179  16.566  32.184  17.116  0.2765  0.2330 -0.1984
80268W        W23180  16.653  30.414  16.821 -0.1356  0.1433 -0.0131
80269W        W23181  15.477  33.265  17.857  0.2709  0.3027  0.1393
80270W        W23182  15.148  30.413  17.921  0.2467 -0.1069  0.0418
80271W        W23183  18.359  32.557  16.421 -0.1907  0.1103  0.0994
80272W        W23184  18.476  32.099  17.603  0.1100  0.4205  0.3177
80273W        W23185  16.799  32.275  16.490 -0.0693 -0.1060  0.1360
80274W        W23186  15.569  31.832  17.058  0.1627  0.0959  0.5522
80275W        W23187  15.991  32.905  18.631  0.1373 -0.0342  0.3204
80276W        W23188  15.328  31.384  19.507 -0.0982  0.1780 -0.0623
80277W        W23189  15.701  28.768  15.785 -0.0417 -0.0184 -0.2590
80278W        W23190  18.092  31.055  18.850 -0.0456  0.0272  0.0552
80279W        W23191  13.111  32.698  18.646 -0.0769 -0.0381  0.1165
80280W        W23192  18.994  28.625  18.147  0.0854  0.1406  0.0308
80281W        W23193  16.298  32.072  18.359 -0.0462  0.1366 -0.1061
80282W        W23194  17.755  31.341  17.883 -0.0468  0.0317  0.2235
80283W        W23195  16.887  31.794  17.101  0.1941  0.1028  0.1280
80284W        W23196  17.596  29.132  18.335 -0.1595  0.2509 -0.0616
80285W        W23197  17.555  29.178  19.790  0.3454 -0.1050 -0.0241
80286W        W23198  14.219  30.489  16.278 -0.1845 -0.2897  0.0393
80287W        W23199  16.480  31.570  17.436  0.0763 -0.5287 -0.1833
80288W        W23200  18.323  32.167  18.881 -0.1238 -0.1048  0.1888
80289W        W23201  19.055  29.923  16.882  0.0743  0.0886  0.0871
80290W        W23202  14.706  32.914  17.370  0.1991  0.1118 -0.2566
80291W        W23203  15.331  32.409  19.556  0.3908  0.2073  0.2414
80292W        W23204  16.675  31.222  20.024  0.1463 -0.3182  0.2365
80293W        W23205  15.610  31.818  16.081 -0.0303 -0.1825 -0.1971
80294W        W23206  15.973  30.764  18.011  0.4585 -0.2210 -0.2430
80295W        W23207  14.390  31.057  17.605  0.0245  0.0353 -0.2595
80296W        W23208  16.312  30.109  18.464  0.0956  0.1153 -0.3539
80297W        W23209  14.775  31.871  17.554 -0.1302 -0.0719  0.2403
80298W        W23210  16.368  30.538  18.235 -0.0659 -0.2711  0.1322
80299W        W23211  16.342  30.934  19.282 -0.0741 -0.0894  0.0069
80300W        W23212  17.952  30.374  16.108  0.0029  0.0525  0.1103
80301W        W23213  15.660  31.716  16.586 -0.3521  0.1469  0.2783
80302W        W23214  17.842  32.387  16.442  0.2994  0.2642  0.1568
80303W        W23215  17.578  29.592  16.030 -0.0452  0.0775  0.1452
80304W        W23216  17.153  30.898  15.631 -0.0294 -0.1819  0.4155
80305W        W23217  13.875  31.767  16.567 -0.4945 -0.2512  0.0764
80306W        W23218  14.927  30.131  17.581  0.0208  0.3418 -0.1230
80307W        W23219  15.317  30.311  19.396  0.2353 -0.1526  0.0856
80308W        W23220  16.479  30.626  18.707 -0.0319  0.0428  0.2266
80309W        W23221  17.509  32.280  19.308 -0.3267  0.2097 -0.1637
80310W        W23222  14.264  30.021  15.974  0.1184 -0.0159 -0.1457
80311W        W23223  18.064  29.940  15.854  0.1261  0.0148 -0.1104
80312W        W23224  16.495  30.148  17.881 -0.0555 -0.0441 -0.1177
80313W        W23225  14.633  31.443  17.308 -0.0306  0.1988  0.0100
80314W        W23226  19.042  28.880  19.984 -0.0465  0.1323 -0.0990
80315W        W23227  16.493  31.447  16.466  0.0506 -0.0155  0.0551
80316W        W23228  18.292  33.398  18.937 -0.2985  0.0080  0.1681
80317W        W23229  18.488  32.821  17.318 -0.1522  0.1733 -0.0634
80318W        W23230  15.173  30.376  17.207  0.3952  0.2675 -0.0198
80319W        W23231  14.942  30.101  16.780 -0.4608 -0.0897 -0.1025
80320W        W23232  15.703  33.231  18.356  0.0189 -0.0819  0.4937
80321W        W23233  15.642  31.577  17.551  0.3030  0.0742  0.1129
80322W        W23234  16.184  30.514  17.135  0.0334  0.1673  0.3096
80323W        W23235  17.456  31.502  16.708 -0.2198 -0.1302 -0.0930
80324W        W23236  17.168  29.088  18.608 -0.1832 -0.0520 -0.2538
80325W        W23237  15.502  31.563  18.435  0.3022 -0.0740 -0.1084
80326W        W23238  17.313  29.478  19.479  0.0668 -0.4856  0.0578
80327W        W23239  16.742  30.917  18.985  0.1202 -0.0669  0.0770
80328W        W23240  16.828  30.771  18.373  0.4869  0.0937  0.0019
80329W        W23241  15.234  28.974  16.781  0.1221 -0.2047  0.0623
80330W        W23242  17.301  32.667  18.725 -0.0243 -0.2855  0.1561
80331W        W23243  15.898  32.119  16.328  0.0487 -0.1665 -0.1033
80332W        W23244  13.954  30.743  17.140 -0.0669 -0.1295  0.1380
80333W        W23245  15.905  33.799  16.783 -0.2267 -0.0631 -0.0968
80334W        W23246  17.781  30.153  17.625 -0.2806 -0.0206  0.1626
80335W        W23247  13.661  31.511  19.145  0.1448  0.0336 -0.1622
80336W        W23248  14.987  32.268  19.864 -0.0600 -0.2780 -0.2995
80337W        W23249  15.682  29.209  16.718 -0.0341 -0.1708 -0.2214
80338W        W23250  14.911  33.205  17.734  0.1241 -0.0897 -0.3262
80339W        W23251  17.229  29.617  17.122 -0.0934  0.3656  0.1112
80340W        W23252  17.267  30.374  16.596  0.2044  0.3234 -0.1847
80341W        W23253  15.416  31.945  19.530  0.0912  0.2474  0.1287
80342W        W23254  17.815  31.934  17.568 -0.1772 -0.1533 -0.4437
80343W        W23255  16.826  28.991  16.107  0.2661  0.1912  0.0278
80344W        W23256  17.208  28.736  17.497 -0.2992 -0.1019 -0.0842
80345W        W23257  14.370  31.227  19.225 -0.0940  0.2333 -0.0626
80346W        W23258  17.298  31.214  17.674 -0.2651  0.0814  0.3004
80347W        W23259  16.880  31.383  18.585 -0.1014  0.3412 -0.0821
80348W        W23260  16.526  29.521  16.450  0.3577  0.1551 -0.0702
80349W        W23261  18.772  31.662  16.816  0.0553 -0.0603 -0.0898
80350W        W23262  15.239  31.207  18.788  0.3049  0.0281 -0.3786
80351W        W23263  16.812  31.709  19.689 -0.0816 -0.1544  0.0533
80352W        W23264  17.668  32.677  17.669  0.2497 -0.0044  0.1620
80353W        W23265  16.161  30.300  18.903 -0.0460 -0.0181 -0.0758
80354W        W23266  15.300  30.790  16.906  0.0249  0.0484  0.0736
80355W        W23267  17.005  29.743  17.741 -0.4339 -0.0604  0.2519
80356W        W23268  14.814  32.203  16.355  0.0488 -0.2637 -0.0817
80357W        W23269  18.487  29.697  19.353  0.0868  0.0140  0.0418
80358W        W23270  16.838  30.875  16.831  0.0652  0.0382  0.0452
80359W        W23271  15.519  28.989  18.632 -0.0019  0.1923 -0.0950
80360W        W23272  17.392  30.319  19.183 -0.0211  0.2108 -0.1177
80361W        W23273  17.597  30.747  15.871 -0.0939 -0.1054 -0.2119
80362W        W23274  17.846  31.943  19.147  0.1176 -0.0390  0.2074
80363W        W23275  17.237  31.125  16.073 -0.2828  0.1387 -0.0747
80364W        W23276  16.696  29.611  19.250 -0.2254  0.1308  0.2070
80365W        W23277  16.170  32.440  19.390 -0.0664  0.1001 -0.1970
80366W        W23278  13.875  32.967  18.560 -0.6710 -0.0354  0.1445
80367W        W23279  18.325  31.982  19.395 -0.0163  0.2261  0.0462
80368W        W23280  18.671  30.756  17.964  0.2438 -0.1686  0.2049
80369W        W23281  17.099  30.916  19.725  0.1738  0.1388 -0.0191
80370W        W23282  16.236  30.146  16.800  0.0818  0.2350  0.3084
80371W        W23283  16.133  32.411  17.030 -0.2323 -0.2940  0.0838
80372W        W23284  16.072  31.933  16.810  0.0030  0.1238  0.1212
80373W        W23285  16.017  29.938  17.794 -0.0653 -0.2532 -0.1983
80374W        W23286  16.438  33.147  17.377  0.0776 -0.0694  0.1304
80375W        W23287  17.715  31.271  15.881 -0.1764 -0.3979  0.3861
80376W        W23288  17.678  31.651  18.597 -0.1859  0.1032  0.0647
80377W        W23289  16.208  32.888  16.978  0.5387 -0.0488 -0.1208
80378W        W23290  18.070  29.150  18.587 -0.1169 -0.1413 -0.1837
80379W        W23291  15.192  32.733  17.694 -0.4085 -0.0229  0.2599
80380W        W23292  16.391  31.497  16.945 -0.0342  0.2449 -0.0231
80381W        W23293  16.149  29.665  17.256  0.0024  0.0030  0.0038
80382W        W23294  16.825  29.971  16.610  0.1164 -0.1622  0.1645
80383W        W23295  17.262  31.051  16.621  0.0754 -0.0408 -0.0516
80384W        W23296  15.915  29.371  17.726 -0.0337 -0.2273 -0.2731
80385W        W23297  15.087  29.557  17.643  0.0746 -0.0027  0.2522
80386W        W23298  13.374  33.247  19.420  0.1929 -0.0242 -0.0402
80387W        W23299  16.652  30.834  19.617 -0.1406 -0.2925  0.1935
80388W        W23300  18.208  29.857  17.278  0.2284  0.1124 -0.1756
80389W        W23301  16.206  33.214  18.258  0.0562  0.1127 -0.0450
80390W        W23302  15.839  31.709  18.783  0.1554  0.0057 -0.0026
80391W        W23303  15.036  29.859  16.305 -0.2211 -0.0718  0.0544
80392W        W23304  17.228  30.194  20.716  0.1296  0.0926  0.3891
80393W        W23305  15.888  30.157  18.215 -0.0226 -0.1018  0.2195
80394W        W23306  15.190  32.002  16.665 -0.1205  0.0717  0.1911
80395W        W23307  17.623  33.734  16.808  0.3223  0.0586 -0.3601
80396W        W23308  16.349  32.838  16.285 -0.4749  0.2166  0.4390
80397W        W23309  14.816  32.439  17.339  0.0963 -0.0592  0.1170
80398W        W23310  15.903  32.131  20.275  0.2127  0.0008  0.0599
80399W        W23311  16.215  31.793  19.983  0.2783  0.1634  0.0917
80400W        W23312  17.169  30.001  18.695  0.1580  0.0532 -0.2204
80401W        W23313  15.474  29.999  18.515 -0.3056 -0.1494 -0.0477
80402W        W23314  15.655  31.762  17.999  0.0734 -0.1271  0.0752
80403W        W23315  17.510  32.406  19.774 -0.2038 -0.2959  0.2609
80404W        W23316  16.342  31.681  19.470 -0.1469 -0.1473 -0.1589
80405W        W23317  15.177  33.470  19.798 -0.1044 -0.1358 -0.0180
80406W        W23318  15.969  27.836  18.090 -0.1731 -0.2339 -0.4020
80407W        W23319  18.299  31.962  16.266 -0.1029 -0.0618 -0.2344
80408W        W23320  16.935  32.466  19.989 -0.1187 -0.4240 -0.0330
80409W        W23321  15.204  31.783  15.685 -0.0817  0.1311 -0.0941
80410W        W23322  14.848  31.442  17.772  0.0139  0.1784 -0.3882
80411W        W23323  15.452  31.208  17.294 -0.1961 -0.2929 -0.0385
80412W        W23324  16.735  29.161  18.349 -0.2060 -0.0607 -0.4633
80413W        W23325  14.418  32.652  18.503 -0.3086  0.1501 -0.1798
80414W        W23326  14.962  32.265  17.797 -0.1364  0.2306  0.2256
80415W        W23327  14.462  31.323  18.050  0.1254 -0.0269 -0.0706
80416W        W23328  16.581  31.895  16.695  0.0610  0.1543  0.1280
80417W        W23329  17.169  31.573  16.272  0.1632  0.1234 -0.0099
80418W        W23330  16.738  29.851  18.165  0.0183 -0.0724 -0.0193
80419W        W23331  18.559  31.045  19.648  0.1640  0.3563  0.0566
80420W        W23332  18.329  30.070  16.310 -0.0521  0.3317  0.1057
80421W        W23333  18.003  28.970  19.769  0.1003  0.0725  0.1712
80422W        W23334  15.749  29.098  18.164  0.2491 -0.0218  0.0274
80423W        W23335  17.637  30.874  17.821  0.0214 -0.2404  0.0982
80424W        W23336  13.359  30.994  20.069  0.1795  0.1044  0.1819
80425W        W23337  17.062  33.057  19.054  0.1242  0.2167 -0.4125
80426W        W23338  15.252  30.841  19.200  0.1288  0.1253 -0.0095
80427W        W23339  17.744  30.282  16.547  0.0297 -0.3970 -0.0970
80428W        W23340  15.154  29.287  16.427 -0.0624  0.0182  0.0293
80429W        W23341  16.258  30.996  18.443 -0.3180 -0.2858  0.0985
80430W        W23342  17.355  31.888  19.599 -0.3015  0.1536  0.1659
80431W        W23343  16.881  31.453  15.784 -0.1252  0.1497  0.1655
80432W        W23344  18.063  29.860  19.117 -0.3206  0.1098 -0.1651
80433W        W23345  15.900  31.228  18.647  0.2122 -0.1059 -0.2298
80434W        W23346  18.258  30.478  16.613  0.0191  0.1000  0.1224
80435W        W23347  15.704  31.501  15.686  0.0450  0.1191  0.0444
80436W        W23348  14.343  32.200  17.120  0.1048  0.0455 -0.2180
80437W        W23349  16.209  29.019  20.927 -0.1921  0.0407 -0.0873
80438W        W23350  19.018  31.378  18.234 -0.2029  0.3583 -0.0408
80439W        W23351  17.414  30.043  16.933 -0.0107  0.0820  0.0605
80440W        W23352  17.913  29.604  20.048 -0.0803 -0.2557  0.1137
80441W        W23353  16.159  30.023  19.343  0.2485  0.3073 -0.0377
80442W        W23354  17.008  30.399  19.576 -0.1203 -0.1301  0.2120
80443W        W23355  15.898  29.694  19.661  0.0869 -0.0739  0.5830
80444W        W23356  16.715  32.755  19.358  0.2275  0.0914 -0.0312
80445W        W23357  17.477  30.177  16.128 -0.3595  0.1133 -0.1185
80446W        W23358  18.083  29.924  19.659 -0.3294 -0.0093  0.1043
80447W        W23359  17.996  31.508  17.468 -0.1688 -0.0048  0.0987
80448W        W23360  17.134  30.529  17.152 -0.0825 -0.1291  0.2860
80449W        W23361  15.848  31.103  17.586 -0.0538 -0.2254 -0.1187
80450W        W23362  17.905  32.109  18.481 -0.1105  0.1611  0.1665
80451W        W23363  16.820  31.159  16.230 -0.2936  0.3494 -0.1468
80452W        W23364  15.630  28.196  18.659 -0.1435  0.1122  0.1141
80453W        W23365  17.116  31.921  16.622  0.0087  0.4990  0.3238
80454W        W23366  18.901  31.049  17.619  0.6917  0.0103  0.1752
80455W        W23367  15.943  31.486  17.153  0.1865 -0.0312  0.3216
80456W        W23368  16.029  31.359  16.624  0.0589 -0.1601 -0.0478
80457W        W23369  14.047  32.634  18.922  0.1819  0.1109 -0.2459
80458W        W23370  14.628  31.214  16.743 -0.1228  0.2073  0.0502
80459W        W23371  15.662  33.621  17.397 -0.1454 -0.1136  0.0091
80460W        W23372  16.629  32.661  17.245 -0.0095 -0.0763 -0.0196
80461W        W23373  18.538  31.312  18.577 -0.0525  0.0003  0.1223
80462W        W23374  16.862  28.371  17.425  0.1190  0.1228  0.1766
80463W        W23375  18.750  29.283  19.484 -0.1273 -0.1455  0.3220
80464W        W23376  16.113  31.881  17.382 -0.2178  0.0061 -0.0518
80465W        W23377  15.884  30.139  17.205  0.4052  0.0049  0.5117
80466W        W23378  15.347  32.614  16.604 -0.1259  0.0155 -0.0548
80467W        W23379  14.798  32.361  18.292  0.0762  0.1557  0.1998
80468W        W23380  14.602  31.904  18.018 -0.2585  0.0050 -0.1983
80469W        W23381  15.744  28.902  19.179 -0.1467  0.0232 -0.2295
80470W        W23382  16.386  31.456  18.587  0.0318 -0.1611  0.0863
80471W        W23383  17.218  31.459  18.942  0.1881 -0.0687  0.0095
80472W        W23384  17.794  30.951  18.274  0.5522 -0.1074  0.1645
80473W        W23385  14.972  32.686  19.299 -0.1335  0.0527  0.2830
80474W        W23386  14.413  32.215  17.656  0.3029 -0.2013 -0.1399
80475W        W23387  16.383  34.292  19.921 -0.3388 -0.0698 -0.0907
80476W        W23388  17.402  31.453  17.234 -0.2915 -0.0464  0.1106
80477W        W23389  15.055  33.740  18.101 -0.0240 -0.1887  0.2219
80478W        W23390  14.435  30.297  18.995 -0.0933  0.0684 -0.2555
80479W        W23391  16.316  31.398  20.877 -0.0719  0.0475 -0.1000
80480W        W23392  17.310  31.699  18.266 -0.2590  0.0313  0.1496
80481W        W23393  15.301  29.688  16.698 -0.0082 -0.0585  0.0432
80482W        W23394  17.401  31.755  15.857 -0.2909 -0.5083 -0.1106
80483W        W23395  13.180  32.697  19.848 -0.0435  0.0729  0.0507
80484W        W23396  15.522  30.248  17.576 -0.0959 -0.1050  0.0621
80485W        W23397  17.050  32.294  16.967  0.0127 -0.3641  0.0604
80486W        W23398  18.572  30.675  17.417  0.3062  0.3178  0.1520
80487W        W23399  17.619  32.611  16.901 -0.3185  0.0665  0.2601
80488W        W23400  16.781  33.887  19.615 -0.0367  0.0845  0.2883
80489W        W23401  15.599  30.629  17.259 -0.0930 -0.1930  0.1802
80490W        W23402  15.338  33.742  17.073 -0.0091  0.0364  0.0295
80491W        W23403  16.072  31.963  15.877 -0.1003 -0.4635  0.0627
80492W        W23404  19.273  31.764  15.614  0.3343  0.3837 -0.0736
80493W        W23405  15.783  32.216  17.286  0.1862  0.0252  0.1475
80494W        W23406  17.363  32.460  20.313  0.1983 -0.1906  0.0091
80495W        W23407  19.378  30.908  17.581  0.0118 -0.2183 -0.3518
80496W        W23408  17.658  30.083  18.372  0.1520 -0.0816 -0.0704
80497W        W23409  19.500  30.632  18.364 -0.0800 -0.5407  0.2322
80498W        W23410  17.376  32.194  18.363  0.3398  0.1496  0.2089
80499W        W23411  15.873  31.703  19.333  0.0719  0.0834 -0.2139
80500W        W23412  15.532  28.535  16.673  0.2365 -0.0551 -0.3676
80501W        W23413  16.170  31.987  19.049 -0.0259  0.0502 -0.0342
80502W        W23414  18.482  29.334  20.280 -0.0155  0.2566 -0.2474
80503W        W23415  14.801  33.698  19.465  0.0175 -0.0142 -0.1927
80504W        W23416  18.328  31.929  15.730  0.1208  0.2159  0.1905
80505W        W23417  15.752  29.720  16.890  0.2250 -0.1431  0.1150
80506W        W23418  15.368  31.989  17.594 -0.2439 -0.1186 -0.1574
80507W        W23419  17.653  28.444  19.019  0.0378 -0.2022 -0.1130
80508W        W23420  16.629  30.903  15.894  0.1090 -0.0845 -0.1332
80509W        W23421  17.280  31.000  17.157  0.1855 -0.1105  0.2325
80510W        W23422  16.953  33.263  16.351  0.0117  0.5991  0.2215
80511W        W23423  16.605  32.248  18.025 -0.2407  0.0054  0.0043
80512W        W23424  15.858  32.939  17.953 -0.2282 -0.0909  0.1374
80513W        W23425  15.286  29.354  17.132  0.0812  0.0306 -0.0979
80514W        W23426  17.111  30.768  17.651  0.1662  0.0100 -0.0999
80515W        W23427  16.557  29.977  18.930  0.2649 -0.0827  0.3329
80516W        W23428  18.519  29.812  19.925 -0.4751 -0.0377 -0.2886
80517W        W23429  16.425  30.086  17.341  0.1990 -0.0803 -0.0070
80518W        W23430  17.160  30.906  18.673 -0.2177  0.0035 -0.0526
80519W        W23431  16.950  30.502  18.899 -0.0650 -0.0429 -0.3384
80520W        W23432  14.820  30.302  19.320  0.4965 -0.2014  0.1258
80521W        W23433  16.962  31.589  17.574  0.2667  0.1194 -0.0298
80522W        W23434  18.267  30.806  19.286  0.4075 -0.0918  0.1958
80523W        W23435  16.889  31.305  17.175  0.2290 -0.2118 -0.0424
80524W        W23436  16.510  32.235  19.699  0.0511 -0.0184  0.1908
80525W        W23437  14.354  29.587  17.921 -0.2862  0.2122  0.1889
80526W        W23438  16.462  31.068  17.131 -0.0004  0.2096  0.1635
80527W        W23439  15.106  31.001  17.588  0.0637  0.1750  0.4063
80528W        W23440  15.693  31.150  19.087 -0.0904  0.0250 -0.1214
80529W        W23441  16.899  32.381  18.372 -0.0708  0.1741 -0.2271
80530W        W23442  14.806  29.173  17.032 -0.1343 -0.1257 -0.2429
80531W        W23443  18.391  30.622  16.142  0.1211 -0.0340  0.0220
80532W        W23444  17.729  30.153  18.843 -0.1130  0.1070 -0.1159
80533W        W23445  16.297  32.363  17.509 -0.2517 -0.2234  0.0568
80534W        W23446  17.273  32.684  17.367  0.0088  0.0444  0.2153
80535W        W23447  18.056  32.479  16.952 -0.3859 -0.0896 -0.1449
80536W        W23448  15.868  30.946  16.975  0.2430  0.2591  0.0039
80537W        W23449  18.291  32.656  19.057  0.0477 -0.0953  0.1290
80538W        W23450  18.206  31.555  17.964 -0.2703  0.0861 -0.0262
80539W        W23451  17.474  28.375  16.664 -0.0191  0.0983 -0.1802
80540W        W23452  16.816  31.099  17.612  0.0073 -0.3176 -0.0602
80541W        W23453  15.709  32.621  17.567  0.2449 -0.0802  0.0298
80542W        W23454  17.544  29.714  19.095  0.0218 -0.0286  0.1507
80543W        W23455  16.652  29.289  18.832  0.3603  0.0207  0.0978
80544W        W23456  16.569  32.459  16.067 -0.0560  0.2912 -0.2431
80545W        W23457  15.828  28.716  21.595  0.0694 -0.0991  0.1481
80546W        W23458  16.881  32.831  18.659 -0.2816 -0.2024 -0.2076
80547W        W23459  14.353  32.296  19.721  0.2279 -0.0717 -0.2501
80548W        W23460  15.454  30.174  16.736  0.2082  0.1650 -0.2718
80549W        W23461  17.445  32.116  18.840  0.1033  0.1666 -0.1088
80550W        W23462  17.045  32.019  17.992  0.2631  0.2499  0.0715
80551W        W23463  17.187  33.365  16.752 -0.0561  0.1020 -0.0689
80552W        W23464  17.387  31.754  17.758  0.1608 -0.0586  0.4098
80553W        W23465  16.931  30.039  17.181  0.1713 -0.1900 -0.0098
80554W        W23466  18.688  31.467  16.432 -0.2090  0.1132  0.1931
80555W        W23467  16.279  30.752  16.665  0.0576  0.0731 -0.2358
80556W        W23468  18.023  29.208  18.057  0.1106  0.0905 -0.1303
80557W        W23469  17.121  29.402  19.032 -0.0640 -0.2613  0.1311
80558W        W23470  17.001  31.910  18.533  0.5399  0.3418  0.1533
80559W        W23471  15.331  29.874  17.173  0.2892  0.2245  0.0270
80560W        W23472  15.666  32.225  16.734  0.2341  0.3419  0.0155
80561W        W23473  15.864  32.176  17.751  0.2595 -0.1468  0.2840
80562W        W23474  17.158  30.078  18.049 -0.0918 -0.0868 -0.0226
80563W        W23475  16.036  30.821  18.917 -0.0646 -0.1147  0.1543
80564W        W23476  14.766  30.856  19.152  0.1165 -0.2901 -0.0859
80565W        W23477  13.910  30.386  18.017  0.0405  0.1211  0.1437
80566W        W23478  17.911  31.805  16.007 -0.0419  0.0435 -0.0469
80567W        W23479  15.930  28.874  17.558  0.0466  0.0931 -0.2370
80568W        W23480  14.854  29.836  18.006 -0.2366  0.0893  0.2885
80569W        W23481  17.552  30.678  16.919 -0.1570 -0.0111 -0.0590
80570W        W23482  18.612  32.285  16.084  0.0439  0.3819 -0.1280
80571W        W23483  15.843  30.475  16.774 -0.0917  0.0287 -0.0162
80572W        W23484  19.671  32.092  20.538 -0.0450 -0.0767 -0.0513
80573W        W23485  15.308  31.496  16.377 -0.3351 -0.0797 -0.3212
80574W        W23486  15.549  29.990  19.851 -0.0360 -0.1375  0.2917
80575W        W23487  15.890  29.894  20.931 -0.0737 -0.0732  0.0332
80576W        W23488  14.749  29.423  16.175 -0.3077 -0.1136  0.0633
80577W        W23489  17.392  31.255  18.374  0.1997 -0.0613  0.0957
80578W        W23490  17.767  32.263  18.002 -0.0003 -0.4085 -0.0974
80579W        W23491  17.783  33.323  16.445 -0.0944 -0.2999  0.1849
80580W        W23492  16.648  31.732  18.120  0.1193 -0.0215  0.0113
80581W        W23493  14.862  31.483  18.333  0.0042  0.0096  0.0919
80582W        W23494  14.760  29.262  20.986 -0.3068  0.1362  0.2411
80583W        W23495  18.327  31.044  17.637 -0.0079 -0.1792  0.3422
80584W        W23496  14.857  32.627  18.825 -0.1342 -0.1091  0.1247
80585W        W23497  17.874  31.842  16.523 -0.0714 -0.1437  0.0096
80586W        W23498  17.157  29.039  18.031  0.0664  0.2325  0.0237
80587W        W23499  17.719  31.105  17.406 -0.1116  0.2543  0.0558
80588W        W23500  14.681  30.718  19.671 -0.2002  0.2723 -0.0131
80589W        W23501  15.393  31.074  18.310 -0.2814 -0.0858  0.0079
80590W        W23502  18.268  30.838  18.452  0.0703 -0.1460  0.0025
80591W        W23503  15.774  29.318  17.251  0.0948 -0.1844 -0.1758
80592W        W23504  17.584  30.702  16.348  0.1129 -0.0592  0.1025
80593W        W23505  16.921  31.428  16.698 -0.1232 -0.1543  0.2982
80594W        W23506  15.993  30.563  18.498  0.3955 -0.2070  0.0733
80595W        W23507  16.270  30.994  16.227  0.0292  0.1518  0.1258
80596W        W23508  16.273  30.911  19.934 -0.1183  0.1267 -0.0138
80597W        W23509  16.925  32.727  16.340 -0.1755 -0.2688  0.1905
80598W        W23510  18.178  30.067  20.186 -0.0014  0.0842  0.0477
80599W        W23511  16.674  30.709  16.356  0.2808 -0.3248  0.1484
80600W        W23512  19.107  30.929  15.589 -0.1734 -0.0942 -0.1995
80601W        W23513  17.752  33.486  20.547  0.3865 -0.1256 -0.0842
80602W        W23514  17.958  32.516  19.388 -0.0974 -0.0978 -0.1047
80603W        W23515  17.287  32.654  18.054 -0.0969 -0.2620 -0.1641
80604W        W23516  17.126  29.936  19.193 -0.2539 -0.2805 -0.0630
80605W        W23517  15.452  31.649  19.042 -0.0747 -0.1339 -0.2049
80606W        W23518  15.143  31.589  17.435 -0.1039  0.1700 -0.1355
80607W        W23519  16.150  32.488  18.026  0.2676  0.0132 -0.0241
80608W        W23520  16.910  30.259  17.628  0.1986  0.0971  0.1496
80609W        W23521  16.162  28.959  17.982  0.3030  0.4031  0.1019
80610W        W23522  17.435  29.585  18.631  0.2190 -0.0300 -0.2740
80611W        W23523  15.686  32.185  18.694  0.0356  0.1309  0.0759
80612W        W23524  16.862  32.582  17.726 -0.0572  0.2241  0.1296
80613W        W23525  15.507  31.128  22.127  0.0502  0.0339 -0.0506
80614W        W23526  14.634  31.868  21.824  0.3737 -0.2276  0.1477
80615W        W23527  17.126  31.035  20.432  0.1822  0.0922  0.2370
80616W        W23528  17.604  31.726  20.079  0.0931 -0.3068 -0.1240
80617W        W23529  14.703  30.905  22.030  0.1347 -0.0521  0.3365
80618W        W23530  18.724  31.791  20.137  0.1510 -0.0434 -0.0831
80619W        W23531  16.160  29.480  22.846  0.0273 -0.1761 -0.1758
80620W        W23532  16.502  31.941  23.399  0.2497  0.1862 -0.0551
80621W        W23533  17.879  31.549  22.959 -0.1895  0.0467 -0.0378
80622W        W23534  17.222  30.955  19.159 -0.0084  0.3096 -0.1839
80623W        W23535  16.018  29.435  22.330 -0.0568  0.0572 -0.0762
80624W        W23536  17.013  32.152  22.580  0.2652  0.1039 -0.0019
80625W        W23537  16.450  29.776  21.562 -0.2124  0.0050  0.1637
80626W        W23538  14.822  30.276  21.981  0.3320 -0.1126  0.0291
80627W        W23539  16.055  32.047  23.200 -0.0021 -0.3242 -0.2525
80628W        W23540  15.979  31.326  22.048  0.2956  0.0829 -0.4038
80629W        W23541  17.423  30.511  21.808  0.1385  0.1482 -0.1930
80630W        W23542  15.464  30.511  20.239  0.4300  0.0550 -0.0097
80631W        W23543  16.109  32.481  19.915 -0.0316 -0.0505  0.4451
80632W        W23544  14.945  30.416  22.410  0.0777  0.2025  0.0210
80633W        W23545  16.063  28.383  24.001  0.1246  0.4868  0.4048
80634W        W23546  16.002  32.283  21.703 -0.1671  0.2021  0.0232
80635W        W23547  13.430  31.990  20.113  0.0814  0.0245  0.2939
80636W        W23548  13.958  29.265  22.376 -0.3018  0.1378 -0.2886
80637W        W23549  15.250  30.114  23.821  0.1167  0.0187 -0.2551
80638W        W23550  17.341  30.134  22.095  0.2122 -0.1990  0.1275
80639W        W23551  18.214  31.928  20.062 -0.4401  0.1571  0.0957
80640W        W23552  16.466  31.279  21.863  0.1986 -0.0615  0.1037
80641W        W23553  16.745  31.393  20.529 -0.0824  0.1333  0.3751
80642W        W23554  17.981  31.491  24.323 -0.0751 -0.0058 -0.1425
80643W        W23555  15.350  31.823  24.050  0.2109  0.3995  0.1290
80644W        W23556  15.611  32.989  22.460 -0.1196  0.0497  0.1899
80645W        W23557  15.954  33.059  19.163  0.3573 -0.2362  0.0555
80646W        W23558  18.840  31.812  20.874 -0.1382 -0.1561  0.0443
80647W        W23559  17.859  33.184  23.096  0.1404 -0.3442  0.0513
80648W        W23560  15.263  32.327  23.436  0.1494 -0.1971  0.2215
80649W        W23561  15.213  32.157  18.981 -0.7273  0.0947  0.1886
80650W        W23562  16.868  32.747  23.764  0.2534 -0.0288 -0.0668
80651W        W23563  17.045  33.111  22.665  0.1770 -0.0316  0.1092
80652W        W23564  17.417  32.058  20.560 -0.0525 -0.0015 -0.2930
80653W        W23565  15.238  31.735  21.562 -0.0354  0.0268  0.1419
80654W        W23566  15.869  32.102  19.702  0.2633 -0.0676 -0.3865
80655W        W23567  16.799  30.867  21.779  0.1942  0.1525  0.0211
80656W        W23568  16.316  30.925  24.448 -0.1845  0.0917  0.0786
80657W        W23569  14.880  30.483  23.405 -0.1771  0.1028  0.1316
80658W        W23570  18.143  29.540  23.442 -0.1706 -0.1043  0.0082
80659W        W23571  14.226  32.975  19.661  0.0765  0.0846 -0.0006
80660W        W23572  16.837  30.640  20.078 -0.0325  0.0928 -0.3761
80661W        W23573  15.886  30.363  20.480  0.5739  0.0950  0.0408
80662W        W23574  15.980  29.571  20.171 -0.0000  0.1930 -0.2587
80663W        W23575  17.584  29.369  21.551  0.0692 -0.2295  0.2841
80664W        W23576  15.664  31.769  22.925  0.0923  0.0514 -0.2093
80665W        W23577  16.450  29.622  23.282  0.1557 -0.4195  0.1725
80666W        W23578  17.470  32.394  22.567 -0.2419 -0.0439  0.0330
80667W        W23579  16.960  29.573  18.562  0.1611  0.1825  0.2192
80668W        W23580  16.917  30.197  22.846  0.1974  0.3627  0.1772
80669W        W23581  16.356  32.538  22.066 -0.2039  0.1265 -0.3169
80670W        W23582  15.301  30.420  20.781  0.0353 -0.2057  0.0706
80671W        W23583  16.725  31.952  20.124  0.0498 -0.0418  0.0214
80672W        W23584  19.065  32.662  21.341 -0.2086 -0.3066  0.0029
80673W        W23585  18.067  32.363  19.848 -0.2452 -0.0851  0.0103
80674W        W23586  14.587  30.850  20.484 -0.0520 -0.1255 -0.0484
80675W        W23587  14.190  32.184  22.842  0.2235 -0.2481  0.6392
80676W        W23588  15.500  30.527  22.202  0.1605 -0.0103 -0.0335
80677W        W23589  15.452  30.600  19.764  0.0805  0.0040 -0.1177
80678W        W23590  17.954  32.551  21.880  0.0890 -0.0391 -0.0761
80679W        W23591  13.232  32.273  22.463  0.0384 -0.2956 -0.4194
80680W        W23592  16.768  29.796  21.918  0.0635  0.0774 -0.0443
80681W        W23593  14.485  31.226  21.600  0.3747 -0.1008 -0.0860
80682W        W23594  17.436  30.789  23.049  0.1970 -0.1027  0.0938
80683W        W23595  17.229  32.057  20.094  0.2503 -0.0216  0.1252
80684W        W23596  17.612  29.689  22.222 -0.0681  0.3821 -0.2486
80685W        W23597  16.929  28.830  23.624  0.0745 -0.0819  0.1382
80686W        W23598  15.822  30.314  19.530  0.0436 -0.0934 -0.0045
80687W        W23599  16.029  31.799  20.661 -0.0513  0.0368  0.1117
80688W        W23600  17.809  33.495  21.517 -0.0184  0.0246 -0.2267
80689W        W23601  17.904  30.449  20.466 -0.2348 -0.0885  0.1504
80690W        W23602  14.491  31.444  23.542  0.0408 -0.1414  0.0027
80691W        W23603  16.825  31.274  23.631  0.0498 -0.0836 -0.0377
80692W        W23604  16.360  32.723  23.988  0.2324  0.0312 -0.1544
80693W        W23605  14.214  31.735  20.449  0.1314 -0.0208  0.0776
80694W        W23606  14.301  31.859  20.927 -0.1536 -0.1283 -0.0895
80695W        W23607  13.704  32.115  21.617 -0.0872 -0.3073 -0.1100
80696W        W23608  14.781  29.843  21.762 -0.0065  0.1666 -0.3549
80697W        W23609  15.760  30.930  22.822 -0.2430  0.1503  0.1264
80698W        W23610  16.183  29.582  21.187  0.2728  0.1123 -0.3102
80699W        W23611  13.357  30.889  23.898 -0.0703 -0.0536  0.0908
80700W        W23612  16.573  28.741  21.250  0.1514  0.2819  0.0320
80701W        W23613  14.535  31.074  19.983  0.2102  0.1521 -0.0574
80702W        W23614  18.839  32.321  20.865 -0.1461 -0.2550  0.3346
80703W        W23615  18.030  30.877  21.070 -0.1744  0.2743  0.0887
80704W        W23616  17.328  31.344  19.690 -0.0299  0.1593  0.0882
80705W        W23617  14.468  30.338  24.067 -0.0717  0.0257 -0.1147
80706W        W23618  14.391  32.198  22.351 -0.2197 -0.3484 -0.0615
80707W        W23619  15.982  28.641  23.385 -0.1436 -0.2221  0.1044
80708W        W23620  15.298  30.960  22.598  0.1368 -0.1272 -0.1046
80709W        W23621  17.412  31.856  22.622  0.1104  0.0708  0.0615
80710W        W23622  14.686  31.176  21.062  0.3202 -0.1091 -0.1349
80711W        W23623  17.172  30.251  23.301 -0.1902  0.2395  0.0875
80712W        W23624  15.747  31.525  20.352  0.0036  0.1293 -0.0203
80713W        W23625  14.167  31.898  21.947 -0.0165 -0.0049 -0.1496
80714W        W23626  17.274  30.893  25.165  0.0992 -0.1233  0.1735
80715W        W23627  18.342  32.296  20.967 -0.0771 -0.0268 -0.1491
80716W        W23628  17.871  32.547  21.154  0.0161  0.2508 -0.0529
80717W        W23629  17.533  32.433  21.550  0.0898  0.1377  0.0914
80718W        W23630  16.440  30.822  22.192  0.0862  0.0801  0.0405
80719W        W23631  16.439  30.491  20.743 -0.4891  0.1984 -0.2476
80720W        W23632  14.737  33.173  21.424 -0.1132 -0.0096 -0.0514
80721W        W23633  17.593  31.191  21.094  0.0543  0.0552  0.0662
80722W        W23634  15.857  31.284  20.764 -0.3231 -0.5883 -0.0863
80723W        W23635  17.565  32.169  22.135 -0.0951 -0.0527 -0.0471
80724W        W23636  16.797  29.965  20.576  0.0727 -0.1403 -0.0079
80725W        W23637  14.308  32.069  21.488 -0.0180  0.0310 -0.2016
80726W        W23638  16.231  30.940  23.118  0.1116 -0.1159  0.1140
80727W        W23639  17.349  31.443  22.930 -0.2375  0.0808  0.3589
80728W        W23640  17.576  29.797  20.975  0.1843 -0.0844  0.2284
80729W        W23641  16.262  32.026  21.131  0.1037  0.0887 -0.0459
80730W        W23642  17.276  31.995  21.102 -0.5489  0.0552  0.1048
80731W        W23643  15.197  32.958  19.674  0.0911 -0.0712 -0.0486
80732W        W23644  14.500  31.936  20.044  0.0721 -0.0903 -0.0862
80733W        W23645  16.748  32.232  21.020 -0.1773  0.0690 -0.0010
80734W        W23646  18.406  30.589  22.302 -0.1940  0.1296  0.1265
80735W        W23647  14.190  31.509  23.977 -0.1402  0.1206  0.1286
80736W        W23648  16.733  30.613  22.584 -0.2691  0.2801 -0.1907
80737W        W23649  17.188  30.766  20.959 -0.2734 -0.0854 -0.0095
80738W        W23650  16.216  31.610  22.437  0.1720 -0.1295 -0.3278
80739W        W23651  16.280  28.618  21.701  0.0712 -0.1212  0.0447
80740W        W23652  17.079  27.940  20.324  0.0646 -0.2152  0.0785
80741W        W23653  16.116  32.105  24.998  0.1930  0.2448  0.0569
80742W        W23654  17.995  31.937  20.537  0.5734 -0.0146  0.0144
80743W        W23655  16.902  29.312  19.817  0.0377  0.1248  0.1226
80744W        W23656  16.167  28.992  20.096  0.1804 -0.2430  0.0437
80745W        W23657  13.235  32.605  23.128  0.0056 -0.0946 -0.1932
80746W        W23658  15.316  32.187  21.403  0.0552  0.3801  0.0507
80747W        W23659  16.208  32.305  23.665  0.0518  0.1430  0.1578
80748W        W23660  17.676  29.998  20.406 -0.0495 -0.1052  0.1172
80749W        W23661  17.746  32.195  20.167 -0.1900 -0.0908  0.0521
80750W        W23662  15.347  33.352  22.662  0.1277 -0.1896 -0.0821
80751W        W23663  17.179  32.352  24.017 -0.2659 -0.2630  0.0732
80752W        W23664  15.861  30.826  22.306 -0.1434 -0.2414  0.1117
80753W        W23665  16.012  30.444  22.040 -0.2436 -0.2238  0.0743
80754W        W23666  16.179  31.354  19.820  0.2826  0.3560  0.0241
80755W        W23667  14.492  31.452  22.087  0.0997  0.1665 -0.0311
80756W        W23668  15.292  32.278  20.457  0.1218 -0.1265  0.0149
80757W        W23669  18.723  30.297  23.013  0.2915 -0.0725 -0.1865
80758W        W23670  16.573  29.199  22.977  0.2167 -0.0214  0.0437
80759W        W23671  16.812  29.493  24.382  0.3597 -0.0734  0.2552
80760W        W23672  17.240  31.910  23.513 -0.1154  0.1072 -0.0103
80761W        W23673  16.396  30.058  21.020  0.1665  0.1207  0.3603
80762W        W23674  15.607  31.902  20.911 -0.2015 -0.4461  0.0642
80763W        W23675  15.131  30.989  19.959 -0.4124 -0.5007 -0.3809
80764W        W23676  15.754  30.423  22.618  0.0611  0.5622 -0.0545
80765W        W23677  15.877  31.364  23.156 -0.4334 -0.0623 -0.0971
80766W        W23678  16.249  31.665  23.654  0.2264 -0.0164 -0.2858
80767W        W23679  18.513  32.549  22.541 -0.0316  0.1503  0.1543
80768W        W23680  15.254  31.448  20.032 -0.0443  0.1133  0.2005
80769W        W23681  16.015  30.366  23.198 -0.2594  0.1328 -0.2330
80770W        W23682  15.934  30.999  20.347 -0.2583 -0.1446 -0.4102
80771W        W23683  15.287  33.276  21.683 -0.0091  0.0262  0.1896
80772W        W23684  15.928  32.729  20.965  0.3387  0.1457 -0.2882
80773W        W23685  15.661  28.652  23.833  0.1505  0.1983 -0.2417
80774W        W23686  15.758  32.907  22.976  0.1932  0.2785  0.1987
80775W        W23687  15.808  32.150  18.238 -0.0059  0.3174  0.0862
80776W        W23688  17.141  31.415  23.980  0.2642 -0.0957  0.0706
80777W        W23689  15.155  31.386  22.360 -0.1832 -0.3840 -0.0241
80778W        W23690  16.962  30.652  23.035  0.0859  0.5932  0.1360
80779W        W23691  15.153  31.867  22.046 -0.0645 -0.1407  0.0616
80780W        W23692  16.359  30.394  20.171 -0.0764  0.2112  0.1481
80781W        W23693  13.740  31.598  20.324 -0.2750 -0.1619 -0.2284
80782W        W23694  19.425  29.548  21.740  0.1187  0.0440  0.3746
80783W        W23695  17.907  30.494  18.426  0.1949 -0.3009 -0.2620
80784W        W23696  13.854  31.108  23.900 -0.0911 -0.1272 -0.2421
80785W        W23697  17.448  30.243  24.771 -0.0954 -0.0619 -0.1557
80786W        W23698  14.472  34.187  21.348  0.0289 -0.0108  0.1392
80787W        W23699  16.407  31.859  24.108  0.1424  0.0150  0.1240
80788W        W23700  17.358  29.662  20.051  0.1930 -0.1195 -0.0692
80789W        W23701  17.733  31.623  21.374  0.0471  0.2174  0.3311
80790W        W23702  16.186  31.146  23.612  0.0646 -0.0713  0.0210
80791W        W23703  14.170  30.437  19.429  0.2077  0.1083  0.1712
80792W        W23704  17.740  30.023  23.422  0.2667 -0.1953  0.3551
80793W        W23705  15.625  30.807  21.147  0.4245 -0.3939 -0.0817
80794W        W23706  13.909  31.773  21.358  0.1858  0.1967  0.2089
80795W        W23707  16.309  32.962  21.732 -0.0377  0.3578 -0.2501
80796W        W23708  14.808  32.140  21.428  0.1387  0.1897 -0.5416
80797W        W23709  14.743  33.209  19.776  0.0757  0.0197  0.3887
80798W        W23710  16.954  30.016  24.687  0.0456 -0.0088 -0.2085
80799W        W23711  17.230  31.366  22.456  0.2608  0.0790  0.0393
80800W        W23712  16.481  30.227  21.948  0.1071 -0.0336  0.0267
80801W        W23713  15.798  30.839  19.474  0.0679 -0.1318 -0.0041
80802W        W23714  16.254  30.153  22.420 -0.2651 -0.2487  0.2488
80803W        W23715  16.104  31.552  21.330  0.0132 -0.2380  0.4217
80804W        W23716  16.276  30.622  22.682  0.1955 -0.1199 -0.1688
80805W        W23717  14.998  31.469  23.395  0.1764  0.3272  0.2196
80806W        W23718  15.959  28.665  22.393 -0.0404 -0.1794  0.1199
80807W        W23719  18.854  33.177  21.188  0.0328 -0.1712  0.0831
80808W        W23720  16.379  32.034  24.538  0.0684 -0.1986  0.0407
80809W        W23721  14.125  31.553  20.005  0.0162  0.0797 -0.1062
80810W        W23722  13.897  30.478  22.225  0.0058  0.1905 -0.0579
80811W        W23723  16.916  31.250  19.385 -0.0922 -0.4470 -0.0066
80812W        W23724  16.554  29.606  20.760  0.0833 -0.0658 -0.2388
80813W        W23725  16.104  30.669  23.556 -0.0506  0.0191  0.0002
80814W        W23726  14.005  31.924  19.566  0.0613  0.2126 -0.4035
80815W        W23727  14.660  31.742  22.454  0.0428 -0.0738 -0.0862
80816W        W23728  18.218  28.613  20.918 -0.0821  0.2927 -0.0667
80817W        W23729  16.691  32.891  19.860  0.1705 -0.3811 -0.1013
80818W        W23730  16.967  30.268  21.755  0.3503  0.0578  0.0958
80819W        W23731  18.144  29.924  23.108  0.0031 -0.2388 -0.0975
80820W        W23732  17.649  30.957  19.388 -0.4227 -0.0039 -0.2437
80821W        W23733  17.424  29.097  23.166 -0.1840  0.2267  0.1613
80822W        W23734  16.515  29.682  22.363 -0.0335  0.0538 -0.3539
80823W        W23735  16.710  31.700  21.088  0.0910 -0.2096 -0.0048
80824W        W23736  13.763  30.761  24.228  0.0363  0.1423 -0.2187
80825W        W23737  17.613  32.848  24.480 -0.2222 -0.2312  0.0114
80826W        W23738  14.733  30.979  23.348 -0.0611  0.0296 -0.0717
80827W        W23739  15.593  29.917  21.667  0.2168 -0.0096  0.1862
80828W        W23740  15.664  30.430  19.084  0.1285  0.1083  0.1707
80829W        W23741  17.028  30.590  22.140 -0.1382  0.0797  0.2068
80830W        W23742  17.120  32.139  23.062  0.0125 -0.0614 -0.3689
80831W        W23743  16.162  30.894  20.841 -0.0300  0.0009  0.0563
80832W        W23744  19.101  30.025  21.793 -0.2667 -0.1016 -0.0327
80833W        W23745  14.713  32.108  22.798 -0.4099  0.0500  0.1661
80834W        W23746  17.768  30.537  21.401 -0.0058 -0.0127  0.2067
80835W        W23747  15.734  31.879  21.437  0.2503  0.0304 -0.0774
80836W        W23748  14.690  31.547  20.658  0.0405  0.1860 -0.0526
80837W        W23749  16.572  28.503  22.589  0.0914  0.1165  0.2040
80838W        W23750  17.286  30.291  21.274  0.4009 -0.3439 -0.4522
80839W        W23751  17.073  29.638  22.308 -0.1615 -0.2247  0.0116
80840W        W23752  17.733  31.069  24.439  0.1020  0.0711  0.0462
80841W        W23753  16.885  29.616  23.780 -0.0696 -0.0118 -0.0184
80842W        W23754  15.828  30.151  23.665 -0.2749  0.0196  0.0957
80843W        W23755  14.868  30.165  25.499  0.3282  0.0568 -0.1883
80844W        W23756  18.373  33.243  21.342 -0.0485  0.0539 -0.2668
80845W        W23757  17.308  29.662  20.573 -0.2660 -0.1331 -0.0741
80846W        W23758  18.145  31.096  23.026 -0.2623 -0.1630  0.0083
80847W        W23759  16.550  30.245  19.787 -0.0161  0.0752 -0.2166
80848W        W23760  15.989  30.078  20.035  0.0081  0.0110 -0.0110
80849W        W23761  15.227  31.132  20.851 -0.2104 -0.1353  0.2141
80850W        W23762  15.920  31.898  24.251 -0.1054  0.0385  0.0733
80851W        W23763  14.959  30.442  19.943 -0.3468 -0.3974  0.0986
80852W        W23764  16.600  29.585  24.855  0.2656  0.3799 -0.1468
80853W        W23765  15.372  31.949  20.021  0.1420  0.2449  0.3027
80854W        W23766  17.119  31.074  21.423  0.1762  0.3424  0.1808
80855W        W23767  16.944  29.421  21.610 -0.3439 -0.4897  0.2702
80856W        W23768  14.129  29.502  21.320  0.0283  0.1264 -0.1263
80857W        W23769  15.786  32.006  23.685 -0.2361  0.2000  0.4792
80858W        W23770  15.094  29.851  20.923 -0.2220 -0.1771  0.0752
80859W        W23771  15.643  30.780  20.650  0.2496 -0.0554  0.2808
80860W        W23772  18.128  31.395  22.178  0.1750 -0.0806 -0.2546
80861W        W23773  15.622  32.405  22.754  0.1472 -0.4439  0.2503
80862W        W23774  15.811  28.631  20.166 -0.3527 -0.1783 -0.1988
80863W        W23775  17.182  29.831  25.122  0.1035 -0.0809  0.1324
80864W        W23776  14.500  32.308  20.994  0.2661  0.3600  0.2664
80865W        W23777  16.937  29.895  21.399 -0.2199  0.0514 -0.0269
80866W        W23778  15.313  32.854  22.065 -0.2880  0.0887  0.0455
80867W        W23779  13.930  32.494  22.370  0.0826 -0.0897 -0.2015
80868W        W23780  16.383  31.745  22.934 -0.2731  0.2551  0.0496
80869W        W23781  16.861  30.128  22.331 -0.1176 -0.0956  0.0211
80870W        W23782  16.613  31.039  22.789 -0.2736  0.2498 -0.0613
80871W        W23783  17.541  31.516  21.915  0.1877 -0.2849  0.2144
80872W        W23784  16.770  31.762  23.751  0.1246  0.0688  0.0193
80873W        W23785  15.802  31.495  23.915  0.0824 -0.0448  0.0769
80874W        W23786  16.519  31.763  21.581 -0.1169  0.0305 -0.0452
80875W        W23787  16.121  33.540  23.595 -0.0390 -0.2659 -0.1445
80876W        W23788  17.877  31.875  19.706 -0.0117  0.0381 -0.1080
80877W        W23789  15.182  31.100  21.393 -0.1816 -0.7068 -0.0114
80878W        W23790  13.787  29.800  22.609 -0.2068 -0.1951  0.3191
80879W        W23791  15.962  31.706  24.680 -0.2042  0.3746 -0.3496
80880W        W23792  15.868  30.583  19.982 -0.0447 -0.2396 -0.2465
80881W        W23793  14.881  30.247  21.095 -0.1015  0.1100  0.1660
80882W        W23794  15.136  32.602  20.138  0.0144  0.0891 -0.0607
80883W        W23795  15.590  33.818  22.838 -0.2576 -0.0222 -0.2330
80884W        W23796  14.298  31.714  22.946  0.0326 -0.0021  0.1170
80885W        W23797  14.928  31.836  20.174  0.1062  0.0602  0.2086
80886W        W23798  17.734  32.727  20.202 -0.1469  0.0115  0.1062
80887W        W23799  16.843  30.297  20.998 -0.0707 -0.0320  0.3346
80888W        W23800  16.970  31.978  21.522  0.0826 -0.0277 -0.0500
80889W        W23801  15.628  28.660  19.647  0.1215  0.0603 -0.2118
80890W        W23802  15.023  32.348  21.853  0.0461  0.0043  0.0698
80891W        W23803  13.986  32.552  19.474 -0.0550  0.0476 -0.1160
80892W        W23804  17.450  30.485  19.694  0.1932 -0.3139 -0.1274
80893W        W23805  14.048  32.286  20.487  0.1319  0.1761 -0.2496
80894W        W23806  16.948  34.599  23.540 -0.2534  0.2251 -0.0604
80895W        W23807  17.390  28.577  21.459 -0.1603  0.2416  0.0976
80896W        W23808  17.329  29.989  22.593 -0.0379  0.0296 -0.1562
80897W        W23809  17.570  29.228  21.004  0.0423 -0.1111  0.3008
80898W        W23810  17.990  32.114  21.471 -0.1117 -0.0337 -0.0548
80899W        W23811  15.681  31.327  22.603 -0.2812 -0.3441  0.2105
80900W        W23812  17.158  29.022  21.231  0.0628  0.2489  0.1036
80901W        W23813  17.138  30.892  22.667 -0.4108  0.1507 -0.0779
80902W        W23814  19.367  29.976  23.131 -0.0462  0.0497 -0.1458
80903W        W23815  16.088  33.404  23.082 -0.1294  0.0730  0.2818
80904W        W23816  16.878  32.406  20.520  0.2372 -0.2016  0.0256
80905W        W23817  15.052  30.790  20.391  0.0873  0.0010 -0.2944
80906W        W23818  15.047  29.947  23.368 -0.2420 -0.0721 -0.0787
80907W        W23819  17.817  30.665  22.511 -0.0962 -0.0803 -0.2037
80908W        W23820  16.637  32.241  19.225 -0.2011  0.2030 -0.0452
80909W        W23821  16.640  32.243  22.943 -0.0298 -0.1565 -0.3095
80910W        W23822  15.615  30.944  21.618  0.1918 -0.1673 -0.0063
80911W        W23823  14.187  31.333  22.530 -0.1540  0.3164 -0.0027
80912W        W23824  15.543  31.692  22.222 -0.2265 -0.1677  0.1885
80913W        W23825  13.301  29.978  21.076 -0.2193  0.0397  0.0957
80914W        W23826  18.181  30.415  21.003  0.0732  0.0086  0.1519
80915W        W23827  16.145  30.229  24.126  0.0863  0.2181  0.0653
80916W        W23828  17.331  31.373  23.532 -0.2938  0.2458  0.1318
80917W        W23829  15.570  31.367  21.262  0.2810 -0.0898 -0.0968
80918W        W23830  16.889  30.565  20.563  0.0282  0.1606  0.1253
80919W        W23831  16.554  30.394  23.202 -0.0908  0.2210  0.1328
80920W        W23832  15.248  30.930  23.268  0.1550  0.0948 -0.1246
80921W        W23833  16.270  31.428  20.354 -0.0087  0.3620  0.1270
80922W        W23834  18.211  30.357  23.310 -0.1324  0.0696 -0.2943
80923W        W23835  16.694  31.586  19.127  0.2518 -0.1146 -0.0270
80924W        W23836  17.155  32.294  21.848  0.1117 -0.1785 -0.1526
80925W        W23837  15.874  29.925  22.689 -0.0552 -0.2460  0.0780
80926W        W23838  16.657  28.891  19.899  0.1469 -0.4567  0.2935
80927W        W23839  13.665  31.044  22.440 -0.1568 -0.0673  0.1293
80928W        W23840  16.760  29.687  22.789  0.1864  0.1627  0.2371
80929W        W23841  16.765  32.159  22.108  0.0726  0.3165  0.0626
80930W        W23842  15.376  29.582  19.503  0.0012 -0.2951  0.1611
80931W        W23843  16.263  32.682  20.334 -0.2889  0.0525  0.2066
80932W        W23844  17.189  29.273  23.631 -0.1625 -0.1005 -0.1117
80933W        W23845  17.074  32.458  19.103  0.0706 -0.0025  0.1085
80934W        W23846  17.302  30.452  22.571  0.1685  0.0351  0.0263
80935W        W23847  17.947  31.301  21.707  0.1261 -0.0128 -0.4131
80936W        W23848  14.429  30.612  23.578 -0.5136  0.0276  0.2887
80937W        W23849  16.766  32.681  21.804  0.2305 -0.0192 -0.0589
80938W        W23850  17.185  31.127  22.047  0.0548  0.1864  0.1523
80939W        W23851  15.988  29.530  21.635 -0.2068  0.0327  0.2989
80940W        W23852  13.222  30.300  21.867  0.1711  0.1977 -0.1315
80941W        W23853  15.393  32.304  22.306 -0.1596  0.3108  0.4696
80942W        W23854  17.026  31.128  23.111  0.0285  0.1170  0.3512
80943W        W23855  17.818  29.456  24.291  0.0287 -0.0569  0.3997
80944W        W23856  14.746  32.691  19.765  0.0884  0.3121 -0.4283
80945W        W23857  16.460  30.535  25.291 -0.2278 -0.1426  0.0321
80946W        W23858  17.106  32.650  22.774  0.0550 -0.1314  0.0636
80947W        W23859  16.006  33.246  24.026  0.1648  0.2101  0.0567
80948W        W23860  13.155  31.422  19.233 -0.2030  0.3206  0.1230
80949W        W23861  16.898  31.675  23.205  0.2539 -0.1555  0.0205
80950W        W23862  17.043  31.555  20.113  0.1618 -0.1530  0.0329
80951W        W23863  16.466  32.600  20.810 -0.0399 -0.1779  0.3743
80952W        W23864  17.809  31.347  20.435  0.1644  0.0505  0.0481
80953W        W23865  16.927  30.649  21.354 -0.1102  0.1597  0.0935
80954W        W23866  17.726  31.123  22.735 -0.0209  0.0568 -0.0661
80955W        W23867  15.710  30.411  21.572  0.0242 -0.0122 -0.1456
80956W        W23868  16.509  29.752  20.209 -0.0483  0.1352  0.1897
80957W        W23869  16.616  29.362  21.254  0.0300 -0.3770  0.0372
80958W        W23870  15.940  30.955  24.063 -0.2344 -0.3650  0.3681
80959W        W23871  14.176  29.780  19.591  0.1325  0.3423 -0.0570
80960W        W23872  15.694  31.147  19.911  0.0085 -0.1953 -0.0747
80961W        W23873  14.707  31.630  21.453 -0.0753 -0.0045 -0.1514
80962W        W23874  17.387  29.674  24.676 -0.2862 -0.2447  0.1159
80963W        W23875  14.731  31.153  23.829  0.0757  0.0246  0.2358
80964W        W23876  15.577  31.420  21.771  0.1088 -0.2094  0.1496
80965W        W23877  14.252  31.410  21.192 -0.0634  0.2383  0.0107
80966W        W23878  18.397  31.621  19.735 -0.0627 -0.2531 -0.2405
80967W        W23879  15.784  30.012  22.155 -0.0761  0.3344 -0.1553
80968W        W23880  15.157  30.066  21.504 -0.1454  0.2394 -0.0567
80969W        W23881  16.734  31.312  22.324 -0.3735 -0.2461 -0.2221
80970W        W23882  17.368  31.572  20.468  0.0853  0.0495  0.2422
80971W        W23883  16.589  30.298  21.480 -0.0679  0.2997 -0.0189
80972W        W23884  17.988  31.871  22.399 -0.1363 -0.0095 -0.2020
80973W        W23885  14.013  33.096  20.102 -0.4312 -0.0254 -0.0700
80974W        W23886  17.982  31.353  25.319  0.2602 -0.1435 -0.1054
80975W        W23887  15.630  29.649  24.524  0.0729  0.1933 -0.2107
80976W        W23888  15.069  29.984  19.671 -0.3178  0.5918 -0.0338
80977W        W23889  16.794  29.929  23.431 -0.0998  0.2050 -0.0935
80978W        W23890  15.691  32.635  20.423 -0.2037 -0.0301  0.0886
80979W        W23891  17.472  32.785  19.203 -0.1609 -0.0064  0.1490
80980W        W23892  16.591  31.929  22.532  0.0664  0.0961  0.0015
80981W        W23893  16.127  32.362  24.205 -0.0642  0.2530  0.1977
80982W        W23894  14.641  30.088  24.700 -0.4523  0.0361 -0.1182
80983W        W23895  16.947  29.535  20.277 -0.1614  0.0540 -0.2897
80984W        W23896  15.841  31.454  25.323 -0.0776  0.0600  0.0248
80985W        W23897  19.379  32.266  20.893 -0.0476 -0.1712 -0.1376
80986W        W23898  16.928  29.441  23.222 -0.2011 -0.4034 -0.0609
80987W        W23899  16.205  29.945  20.536  0.0421  0.1305 -0.2078
80988W        W23900  14.929  31.177  22.900  0.3176  0.2855  0.0637
80989W        W23901  15.523  31.598  23.453 -0.0660 -0.0004  0.2407
80990W        W23902  18.477  32.048  22.560 -0.2845 -0.0654 -0.1023
80991W        W23903  15.178  30.820  21.840 -0.2233 -0.1070  0.0355
80992W        W23904  16.885  29.193  22.109  0.0417 -0.2385  0.0110
80993W        W23905  15.754  31.640  19.863  0.0308 -0.0395 -0.1234
80994W        W23906  13.354  31.415  22.254 -0.0268 -0.2582 -0.1462
80995W        W23907  17.755  30.136  21.793  0.1204 -0.0767 -0.2353
80996W        W23908  16.330  30.004  22.978  0.3274  0.2715 -0.2186
80997W        W23909  16.014  33.414  19.617  0.0975  0.4857 -0.0085
80998W        W23910  16.630  32.311  23.904  0.3797 -0.0052  0.1952
80999W        W23911  14.914  31.263  20.352  0.1279  0.2257  0.0889
81000W        W23912  19.193  32.105  20.010  0.3022 -0.3224 -0.1283
81001W        W23913  17.267  31.524  21.386 -0.1952 -0.0493  0.2590
81002W        W23914  15.398  32.727  23.749 -0.1332  0.0304  0.1162
81003W        W23915  16.034  32.043  22.687 -0.0248  0.1412 -0.1043
81004W        W23916  17.764  30.180  22.425  0.0121 -0.0599 -0.0254
81005W        W23917  14.843  29.142  23.441  0.0692  0.0244 -0.1467
81006W        W23918  15.027  32.188  20.922  0.1101  0.1065  0.0932
81007W        W23919  16.290  30.654  21.682  0.0991 -0.3242  0.1586
81008W        W23920  16.668  30.852  23.405 -0.0188  0.4164  0.4265
81009W        W23921  15.506  29.761  23.550  0.0578  0.1671 -0.2110
81010W        W23922  15.493  30.009  20.593  0.1158  0.5010  0.0751
81011W        W23923  15.038  32.894  24.092  0.0309 -0.1019 -0.1524
81012W        W23924  16.351  30.615  21.210 -0.0730 -0.3180  0.0293
81013W        W23925  13.427  32.413  26.890  0.0439  0.3638  0.2204
81014W        W23926  14.872  30.855  24.255 -0.1731 -0.2175  0.2198
81015W        W23927  17.060  31.243  24.740 -0.1048  0.1303  0.0122
81016W        W23928  17.661  31.289  24.862  0.2763  0.3033 -0.0258
81017W        W23929  14.334  30.891  24.069  0.1265  0.2934 -0.3646
81018W        W23930  15.871  32.929  26.926 -0.0960 -0.0666  0.2992
81019W        W23931  15.079  28.255  26.769 -0.0201 -0.0040 -0.1410
81020W        W23932  16.623  32.334  25.312 -0.0082 -0.0013  0.0682
81021W        W23933  17.508  31.646  26.113  0.0805 -0.2495  0.2294
81022W        W23934  15.770  32.475  23.348  0.1042  0.1917 -0.0712
81023W        W23935  15.416  29.933  26.943  0.1461 -0.1839 -0.1161
81024W        W23936  15.537  31.616  26.590 -0.1461  0.2216  0.4044
81025W        W23937  14.646  28.225  25.435  0.1965  0.2005 -0.0236
81026W        W23938  14.635  29.584  26.441 -0.0101  0.0483 -0.1946
81027W        W23939  17.232  32.071  26.093 -0.2260  0.2780  0.3102
81028W        W23940  13.219  30.708  23.135 -0.1475 -0.3554 -0.0047
81029W        W23941  14.456  31.812  25.028  0.1092  0.1845 -0.0471
81030W        W23942  14.961  29.199  25.744 -0.2572  0.1109  0.0020
81031W        W23943  15.140  33.240  26.734  0.1010 -0.0679 -0.1249
81032W        W23944  14.560  30.606  27.600 -0.3405 -0.1522 -0.2436
81033W        W23945  17.417  30.735  26.725 -0.1435 -0.1471 -0.2033
81034W        W23946  14.707  32.649  24.431 -0.3127 -0.0565  0.2357
81035W        W23947  13.589  31.009  23.402  0.0016 -0.1536 -0.1123
81036W        W23948  14.138  31.274  26.167 -0.3587 -0.1249  0.0540
81037W        W23949  14.883  31.276  25.747 -0.2471  0.2738  0.3315
81038W        W23950  17.930  30.888  26.630  0.0312 -0.0492  0.2012
81039W        W23951  15.537  31.455  24.886  0.0341 -0.2304  0.2538
81040W        W23952  16.816  33.042  24.236  0.3011  0.1488 -0.1782
81041W        W23953  16.722  31.403  25.740  0.0579 -0.1824 -0.0385
81042W        W23954  16.251  31.304  26.926 -0.0033 -0.0309 -0.2826
81043W        W23955  14.731  31.710  23.924  0.4219  0.1039 -0.0969
81044W        W23956  14.049  31.996  24.555  0.3046 -0.3769 -0.0603
81045W        W23957  15.301  32.988  24.503  0.1440 -0.2415  0.1038
81046W        W23958  17.437  31.457  25.288 -0.2666 -0.1125  0.0316
81047W        W23959  16.964  31.638  26.100 -0.4901 -0.1535 -0.1882
81048W        W23960  15.519  32.067  27.568  0.0710 -0.0243  0.1892
81049W        W23961  14.395  33.905  25.137 -0.2172 -0.1340  0.0519
81050W        W23962  15.325  31.528  27.080 -0.2066  0.0908  0.1292
81051W        W23963  15.185  33.576  27.691 -0.0203  0.1106  0.1661
81052W        W23964  15.755  32.437  26.149 -0.4060 -0.2903 -0.2261
81053W        W23965  14.608  31.670  24.583  0.1469 -0.3645 -0.0763
81054W        W23966  15.720  32.792  24.769  0.1014  0.5431  0.0142
81055W        W23967  15.198  32.641  26.006 -0.1778  0.2478  0.1014
81056W        W23968  14.497  31.303  27.551 -0.0423 -0.0942 -0.2047
81057W        W23969  13.230  32.012  24.710  0.2926 -0.1218  0.3225
81058W        W23970  18.883  30.111  27.347  0.0882  0.1277  0.0707
81059W        W23971  13.882  31.474  23.514  0.2528  0.1780  0.0307
81060W        W23972  17.266  31.813  25.608  0.2155  0.1084 -0.0771
81061W        W23973  15.909  30.474  24.911  0.1606 -0.0367 -0.1575
81062W        W23974  17.858  30.306  25.160 -0.0080  0.2912 -0.2726
81063W        W23975  15.708  30.647  26.650 -0.0722  0.2153 -0.0806
81064W        W23976  15.904  32.962  25.442  0.0192 -0.0664  0.0776
81065W        W23977  16.566  30.502  26.291  0.0617 -0.0316 -0.0249
81066W        W23978  17.139  32.918  28.085  0.1808 -0.3637  0.1255
81067W        W23979  16.524  30.811  25.763 -0.3613  0.1983  0.1573
81068W        W23980  16.104  31.916  27.037  0.0635 -0.1358 -0.1482
81069W        W23981  14.638  32.991  28.049  0.2115  0.4821 -0.0579
81070W        W23982  13.534  31.544  25.623  0.1595  0.0764 -0.3999
81071W        W23983  18.264  34.144  22.770 -0.0036  0.4428  0.0559
81072W        W23984  17.112  32.354  25.252 -0.1936 -0.0030  0.2696
81073W        W23985  15.521  34.022  25.024  0.1854  0.1368  0.0421
81074W        W23986  13.453  29.663  24.755 -0.2870  0.1541 -0.3526
81075W        W23987  13.125  30.402  26.292  0.2075 -0.2319 -0.0175
81076W        W23988  14.351  31.722  26.325  0.1853 -0.1931 -0.0173
81077W        W23989  16.519  29.910  23.967 -0.3201 -0.1196 -0.1950
81078W        W23990  17.550  32.791  27.669  0.1140 -0.0728 -0.2832
81079W        W23991  14.322  32.608  27.565  0.0338  0.1719 -0.0255
81080W        W23992  18.797  29.497  25.915 -0.0027 -0.3602  0.1548
81081W        W23993  15.425  31.482  26.116  0.1449  0.0615  0.2048
81082W        W23994  15.660  31.956  25.032 -0.5265 -0.4528  0.1618
81083W        W23995  17.684  31.090  22.158  0.1037  0.0463  0.3299
81084W        W23996  17.156  29.663  26.832 -0.0280 -0.0232  0.1160
81085W        W23997  15.740  31.216  27.569 -0.3250 -0.0446  0.0444
81086W        W23998  16.383  30.715  23.941  0.1822 -0.0680  0.2427
81087W        W23999  15.321  32.150  25.948 -0.2684 -0.0596  0.3022
81088W        W24000  17.349  32.961  26.406  0.0908  0.0523 -0.0078
81089W        W24001  17.701  31.920  24.475  0.2936  0.1323 -0.1309
81090W        W24002  14.430  31.278  25.326  0.0300 -0.2892  0.0886
81091W        W24003  15.346  30.855  26.956 -0.0037  0.3618  0.2809
81092W        W24004  15.168  32.726  27.839 -0.0089 -0.1490  0.0310
81093W        W24005  14.441  33.019  23.354  0.0235  0.1010  0.1119
81094W        W24006  13.669  30.860  25.647  0.1823 -0.0218  0.0286
81095W        W24007  15.053  31.465  24.303  0.0507  0.2303 -0.2190
81096W        W24008  14.079  30.405  26.303 -0.1140 -0.2075  0.1748
81097W        W24009  14.907  31.699  26.098 -0.1850 -0.0295  0.1836
81098W        W24010  16.919  30.606  25.482 -0.0324  0.5440  0.0048
81099W        W24011  13.955  29.094  26.849  0.1427 -0.1225  0.0508
81100W        W24012  16.274  27.773  27.288  0.0641  0.2120  0.0836
81101W        W24013  14.427  32.320  25.193  0.0136  0.1907  0.0018
81102W        W24014  18.306  31.807  25.325  0.2684 -0.2689 -0.1020
81103W        W24015  15.941  31.186  24.615 -0.0405  0.0726 -0.0565
81104W        W24016  17.419  32.914  23.164 -0.2878  0.0065 -0.2106
81105W        W24017  14.735  30.556  25.088 -0.0856  0.3786  0.0136
81106W        W24018  14.363  29.334  24.878 -0.2459  0.1351  0.0807
81107W        W24019  13.789  28.925  28.456 -0.2124 -0.1519  0.3328
81108W        W24020  15.190  30.371  26.693 -0.2571 -0.0384 -0.0564
81109W        W24021  18.482  29.581  26.466  0.0940  0.2756 -0.1071
81110W        W24022  15.267  29.336  24.476 -0.0768  0.2479  0.0423
81111W        W24023  16.402  30.392  24.756 -0.0472 -0.0114 -0.1473
81112W        W24024  15.298  31.248  25.461 -0.0101 -0.1546  0.1229
81113W        W24025  14.001  32.559  25.186 -0.2505 -0.2703 -0.0182
81114W        W24026  18.094  30.167  27.589 -0.2010 -0.3094 -0.3003
81115W        W24027  16.594  32.908  24.706  0.0120  0.1586 -0.1131
81116W        W24028  18.128  33.488  26.586 -0.0529  0.2822  0.2093
81117W        W24029  17.447  33.711  25.674  0.1889  0.1738 -0.4806
81118W        W24030  14.436  29.693  28.103  0.0482  0.1256 -0.1463
81119W        W24031  15.588  32.273  24.048 -0.2180 -0.0964  0.1995
81120W        W24032  13.326  32.372  26.011 -0.0843 -0.0152 -0.1314
81121W        W24033  16.117  31.928  25.445  0.0259 -0.0329 -0.2078
81122W        W24034  14.669  30.955  24.711 -0.2621  0.0006 -0.2173
81123W        W24035  17.220  32.333  26.528  0.1103 -0.2629  0.3062
81124W        W24036  16.666  30.825  24.772  0.0649 -0.1230  0.2432
81125W        W24037  13.970  31.439  27.840 -0.2277 -0.2422  0.1280
81126W        W24038  16.321  28.813  27.116 -0.1751 -0.0067 -0.2428
81127W        W24039  18.165  32.260  26.912  0.0206 -0.1101  0.0802
81128W        W24040  15.679  31.234  25.756 -0.2083 -0.0277  0.0923
81129W        W24041  14.534  30.021  26.234  0.0508  0.0860 -0.1701
81130W        W24042  16.297  34.231  24.383 -0.2508 -0.1720 -0.3321
81131W        W24043  15.331  31.430  22.936 -0.0151 -0.2036  0.0364
81132W        W24044  14.961  30.600  23.839 -0.0533  0.3214  0.0199
81133W        W24045  15.620  30.955  25.244 -0.2803  0.3882  0.1783
81134W        W24046  18.326  28.915  26.255  0.0984 -0.0276 -0.0460
81135W        W24047  14.475  30.362  25.831  0.3397  0.2386 -0.2247
81136W        W24048  16.351  29.682  26.685  0.0705 -0.0899  0.1850
81137W        W24049  14.861  31.652  22.942  0.1844 -0.2886  0.0776
81138W        W24050  15.491  32.378  26.567  0.0060 -0.1101  0.2065
81139W        W24051  16.436  29.863  25.682  0.0471 -0.0047  0.1053
81140W        W24052  16.605  28.710  25.329  0.0223  0.1922  0.1297
81141W        W24053  14.781  31.712  27.582 -0.3053 -0.0786 -0.1164
81142W        W24054  17.282  32.800  24.108 -0.3236  0.1268  0.1360
81143W        W24055  17.047  29.288  24.852  0.1216 -0.1304  0.1160
81144W        W24056  15.210  29.814  24.717  0.1583  0.1840  0.1402
81145W        W24057  14.520  32.168  27.337  0.2410 -0.0738  0.0662
81146W        W24058  16.999  33.212  24.922 -0.1371 -0.0866  0.1408
81147W        W24059  16.355  31.609  25.063  0.1595  0.1605  0.0848
81148W        W24060  17.242  31.025  24.296  0.1737 -0.1232  0.0590
81149W        W24061  18.253  31.921  27.286  0.1448  0.1072  0.0461
81150W        W24062  12.928  32.052  23.349 -0.2067  0.3729 -0.0376
81151W        W24063  16.240  32.006  28.034  0.0717 -0.1211  0.2001
81152W        W24064  16.554  33.197  25.272 -0.2428 -0.2397  0.3020
81153W        W24065  14.706  30.258  27.207 -0.0516  0.0320  0.1689
81154W        W24066  16.898  30.746  23.957  0.1892  0.3372  0.0234
81155W        W24067  16.335  30.320  25.896  0.0594  0.2169 -0.2527
81156W        W24068  14.564  32.169  24.630  0.1846  0.0460  0.0645
81157W        W24069  19.894  29.811  25.720 -0.2254 -0.2374 -0.1459
81158W        W24070  17.646  29.807  26.527  0.4463 -0.0047 -0.1063
81159W        W24071  17.105  29.973  27.797 -0.1199  0.2254 -0.3731
81160W        W24072  17.739  32.026  27.176 -0.2528  0.2918 -0.0633
81161W        W24073  17.392  32.376  24.544 -0.1242  0.1694 -0.1319
81162W        W24074  14.787  31.617  25.331 -0.1626 -0.4088  0.0928
81163W        W24075  14.486  31.296  24.301 -0.1486 -0.1720  0.0865
81164W        W24076  16.295  30.362  27.807  0.2315 -0.0378 -0.0466
81165W        W24077  14.484  30.881  27.219  0.1445 -0.0589 -0.1477
81166W        W24078  14.740  32.038  26.456  0.1514 -0.1304  0.1629
81167W        W24079  15.996  32.257  27.564  0.2070  0.2065  0.5057
81168W        W24080  16.647  30.888  26.789 -0.1743  0.1119 -0.0747
81169W        W24081  16.750  30.274  27.955 -0.0669 -0.2211  0.2789
81170W        W24082  15.476  30.262  24.670  0.1662 -0.0264 -0.3607
81171W        W24083  15.087  31.857  25.646 -0.1948 -0.2279 -0.0367
81172W        W24084  14.962  30.166  22.934 -0.2336  0.0131  0.0925
81173W        W24085  15.779  30.904  27.137 -0.5881  0.1376  0.1871
81174W        W24086  15.409  32.895  26.496 -0.0950 -0.0408 -0.2178
81175W        W24087  16.573  31.313  24.642 -0.1066 -0.3278 -0.0452
81176W        W24088  16.276  30.958  27.274 -0.2678  0.0298 -0.1220
81177W        W24089  15.561  30.570  23.797 -0.2111  0.1661 -0.1264
81178W        W24090  17.695  28.340  25.598 -0.1370 -0.1185  0.0888
81179W        W24091  13.513  31.240  24.242 -0.2541  0.0061 -0.1512
81180W        W24092  16.679  31.176  24.126 -0.0358 -0.2372  0.0487
81181W        W24093  13.681  31.848  24.095  0.2982 -0.0621  0.3348
81182W        W24094  16.847  30.176  25.985  0.1460  0.1576 -0.0331
81183W        W24095  16.636  32.746  22.914 -0.1155 -0.0987 -0.0378
81184W        W24096  13.650  28.917  27.562 -0.3270  0.0540  0.2379
81185W        W24097  15.109  30.562  25.429  0.2518  0.0226 -0.0861
81186W        W24098  14.568  32.842  25.160 -0.1393  0.3915 -0.1718
81187W        W24099  15.667  31.991  28.794  0.0686 -0.1608 -0.0948
81188W        W24100  16.092  29.608  25.955  0.1326  0.3536 -0.1288
81189W        W24101  16.219  32.890  25.982  0.1584  0.2225 -0.1576
81190W        W24102  14.797  31.655  29.413  0.0086 -0.0293 -0.0818
81191W        W24103  13.199  30.414  24.289  0.0361  0.1421  0.0896
81192W        W24104  16.975  30.425  26.565 -0.1595  0.0093  0.1958
81193W        W24105  14.803  32.523  25.490  0.1988 -0.2027  0.0396
81194W        W24106  13.822  33.405  24.943 -0.1153 -0.4761 -0.1521
81195W        W24107  16.650  32.753  25.626  0.0159 -0.2657  0.1925
81196W        W24108  14.928  30.517  24.615  0.0515 -0.1956 -0.0839
81197W        W24109  14.329  30.226  25.265  0.0923  0.0134 -0.3082
81198W        W24110  15.630  30.272  27.668 -0.3570  0.0446 -0.2220
81199W        W24111  17.393  31.782  26.661 -0.0040  0.2794 -0.1952
81200W        W24112  15.492  30.766  27.536 -0.1903 -0.0956  0.1080
81201W        W24113  13.656  31.186  27.095 -0.1743 -0.0651 -0.0027
81202W        W24114  16.124  30.978  26.488  0.1416 -0.3341 -0.1400
81203W        W24115  18.082  32.398  27.412  0.0978  0.0459  0.1710
81204W        W24116  15.827  29.777  27.796 -0.0871  0.2514 -0.0562
81205W        W24117  14.622  32.122  29.126  0.1043 -0.0507 -0.1092
81206W        W24118  15.891  29.982  26.791 -0.0532  0.0791  0.4118
81207W        W24119  17.610  33.750  23.222 -0.0681  0.0598  0.0553
81208W        W24120  16.225  30.860  25.027  0.0023 -0.1560  0.1397
81209W        W24121  14.471  32.118  23.243 -0.1853 -0.2779 -0.4881
81210W        W24122  14.334  32.801  25.583 -0.1637  0.3573 -0.1054
81211W        W24123  15.490  31.870  24.521 -0.1662 -0.2474  0.0539
81212W        W24124  15.112  30.881  25.948  0.2023  0.3958 -0.1915
81213W        W24125  15.644  31.988  26.995  0.0540  0.1033 -0.1064
81214W        W24126  15.227  31.360  23.844  0.2828  0.1060  0.3060
81215W        W24127  14.383  31.640  25.823 -0.1229 -0.1429  0.1350
81216W        W24128  17.868  30.328  23.834 -0.0236  0.3636 -0.4330
81217W        W24129  18.494  32.712  24.696  0.0340  0.3329 -0.0529
81218W        W24130  16.801  31.281  25.176  0.1527 -0.0322 -0.0112
81219W        W24131  19.311  29.496  25.817 -0.0324 -0.1329 -0.4070
81220W        W24132  17.948  32.187  22.832 -0.4653  0.4100 -0.3772
81221W        W24133  17.296  31.062  27.044 -0.0342  0.1801 -0.1195
81222W        W24134  15.614  30.006  26.364  0.2203 -0.1367 -0.0173
81223W        W24135  17.834  33.669  25.162 -0.0307  0.0878  0.1380
81224W        W24136  15.452  29.597  26.522 -0.0624 -0.3055 -0.1629
81225W        W24137  18.213  32.950  27.887  0.0068  0.1195  0.5597
81226W        W24138  14.211  31.776  27.549 -0.2005 -0.4352 -0.2054
81227W        W24139  15.865  30.592  24.341 -0.1261 -0.2485  0.0470
81228W        W24140  14.447  29.129  23.880 -0.0347 -0.2406 -0.0248
81229W        W24141  15.730  32.391  25.219  0.1225 -0.1608  0.0637
81230W        W24142  17.615  29.295  26.769  0.1037 -0.2997  0.0032
81231W        W24143  15.189  32.464  24.381  0.2689  0.0650  0.0288
81232W        W24144  18.228  30.537  25.478  0.3925  0.2139 -0.4650
81233W        W24145  15.545  31.041  26.326  0.0198 -0.2273  0.1121
81234W        W24146  17.090  31.095  25.556  0.0535  0.0315 -0.0346
81235W        W24147  16.063  30.969  25.468  0.0817  0.0080 -0.4508
81236W        W24148  14.575  32.009  25.601 -0.0315  0.0905 -0.1100
81237W        W24149  14.472  29.829  27.243  0.1732 -0.1293  0.2649
81238W        W24150  17.274  32.151  27.028 -0.0533  0.4241  0.0718
81239W        W24151  15.562  30.196  25.289 -0.0887  0.3237  0.0587
81240W        W24152  17.054  30.965  26.488 -0.0037  0.0387 -0.0011
81241W        W24153  15.024  31.544  26.573 -0.0461  0.2407  0.0522
81242W        W24154  14.947  30.436  28.292 -0.0824  0.1345 -0.0986
81243W        W24155  13.593  29.521  28.329 -0.0763  0.0291  0.2551
81244W        W24156  16.821  32.036  27.201 -0.0790  0.1988 -0.0901
81245W        W24157  17.072  32.769  24.646  0.2030 -0.0913  0.2142
81246W        W24158  17.677  30.098  26.060  0.1031 -0.3644  0.1652
81247W        W24159  17.657  32.320  26.751 -0.0847  0.0934 -0.0491
81248W        W24160  15.520  31.417  24.316  0.2937 -0.1484 -0.0426
81249W        W24161  13.444  31.385  23.685 -0.0259  0.0355  0.2340
81250W        W24162  17.691  31.011  27.478 -0.0045 -0.1813  0.3270
81251W        W24163  16.632  30.344  24.195  0.1714 -0.5122  0.1056
81252W        W24164  17.203  32.805  25.721  0.0588  0.0145 -0.3416
81253W        W24165  17.170  33.773  23.502 -0.0489 -0.3786 -0.0477
81254W        W24166  17.751  31.097  26.188  0.0428 -0.2597  0.0025
81255W        W24167  18.165  30.149  25.809  0.2295  0.2600 -0.0450
81256W        W24168  13.217  29.953  25.516  0.3361  0.4895  0.1707
81257W        W24169  13.487  31.725  28.103  0.2443 -0.2658  0.1355
81258W        W24170  15.659  30.095  24.163 -0.1545  0.1313 -0.1361
81259W        W24171  14.319  30.806  25.426  0.3071 -0.1058  0.3379
81260W        W24172  16.458  31.533  27.960 -0.0233  0.0744 -0.0718
81261W        W24173  15.913  31.745  28.335 -0.0814  0.1432 -0.0690
81262W        W24174  17.270  29.929  23.697  0.1246  0.1826  0.0641
81263W        W24175  17.825  30.153  27.032  0.3441 -0.2198 -0.2554
81264W        W24176  13.313  30.353  24.957  0.1855  0.1659  0.0691
81265W        W24177  15.045  29.917  27.321 -0.2096 -0.1290  0.0740
81266W        W24178  13.910  32.579  26.553 -0.3343  0.2366 -0.3635
81267W        W24179  14.831  32.253  26.028  0.0190  0.1601  0.1213
81268W        W24180  15.609  31.738  25.653 -0.2223  0.2470  0.1898
81269W        W24181  15.303  29.156  26.860 -0.0030  0.2140 -0.3683
81270W        W24182  17.432  31.231  26.604 -0.0615  0.0757  0.1998
81271W        W24183  16.455  32.624  26.344 -0.1575  0.2167  0.0549
81272W        W24184  18.275  30.661  27.036 -0.4167  0.0056  0.0560
81273W        W24185  15.678  31.403  28.618  0.0387  0.0184 -0.2671
81274W        W24186  14.399  29.774  25.557  0.2387  0.1388 -0.1266
81275W        W24187  14.979  32.480  26.431 -0.0862 -0.1890 -0.1515
81276W        W24188  18.318  30.152  27.107  0.0186 -0.2016  0.0527
81277W        W24189  15.177  31.982  26.840  0.1922  0.1404 -0.0618
81278W        W24190  15.033  29.257  27.282 -0.2560  0.2877 -0.1683
81279W        W24191  14.987  30.653  28.718 -0.0752  0.0229 -0.0375
81280W        W24192  16.314  32.504  24.700  0.1237  0.4075 -0.4151
81281W        W24193  14.327  30.509  26.783  0.5200 -0.1938 -0.0652
81282W        W24194  16.797  32.753  25.098 -0.0377 -0.1278  0.0598
81283W        W24195  14.898  33.763  27.339  0.0441  0.0110 -0.1709
81284W        W24196  14.853  31.045  25.230  0.1361 -0.1080  0.3429
81285W        W24197  16.515  32.613  23.454 -0.2453  0.3632  0.0334
81286W        W24198  17.053  32.622  23.254 -0.2400 -0.1963 -0.0204
81287W        W24199  16.812  31.716  24.789 -0.4640 -0.3523 -0.1340
81288W        W24200  16.114  33.300  27.170 -0.2640 -0.0894  0.2339
81289W        W24201  15.699  31.213  26.769  0.1945  0.1361 -0.1415
81290W        W24202  14.546  32.717  23.958 -0.1279 -0.0961 -0.1277
81291W        W24203  14.557  32.234  23.813  0.0305 -0.1223 -0.0537
81292W        W24204  17.256  33.417  23.115 -0.1745  0.2744  0.3406
81293W        W24205  14.112  33.553  25.357 -0.1089 -0.0111 -0.1003
81294W        W24206  17.647  32.261  27.685 -0.0021  0.5138 -0.0829
81295W        W24207  17.359  30.445  25.317  0.0726 -0.2228 -0.2758
81296W        W24208  18.180  29.880  26.223  0.3300 -0.1725 -0.0077
81297W        W24209  18.350  30.473  23.861 -0.0042 -0.4367  0.2234
81298W        W24210  15.090  34.510  27.990 -0.1542 -0.0063 -0.1590
81299W        W24211  15.087  30.933  26.473 -0.0562 -0.1568  0.1207
81300W        W24212  15.953  30.149  24.553  0.1035  0.0169  0.1040
81301W        W24213  14.466  30.518  28.107  0.5262 -0.0452 -0.1271
81302W        W24214  17.539  29.472  27.498  0.0617  0.1712  0.0932
81303W        W24215  12.726  31.512  27.002 -0.0419 -0.1035 -0.1400
81304W        W24216  17.487  32.286  25.647  0.1990  0.3556  0.2861
81305W        W24217  14.423  30.551  24.501  0.2371  0.1546  0.1379
81306W        W24218  14.626  31.261  26.124  0.1537 -0.1476  0.0932
81307W        W24219  18.591  28.460  26.499 -0.1620 -0.1186  0.0186
81308W        W24220  15.858  32.323  24.595 -0.3853  0.1174 -0.2780
81309W        W24221  17.223  31.158  26.081  0.1567 -0.1355  0.1663
81310W        W24222  15.749  32.225  25.681  0.4203  0.2674 -0.0377
81311W        W24223  14.125  32.278  25.595 -0.4695 -0.0976 -0.1623
81312W        W24224  14.690  32.714  25.981  0.1827  0.0900 -0.0120
81313W        W24225  14.291  28.734  24.240 -0.0027 -0.0073 -0.1428
81314W        W24226  18.287  30.380  26.642  0.0227 -0.2266  0.0524
81315W        W24227  13.385  28.954  28.168 -0.0422 -0.0889 -0.1353
81316W        W24228  17.492  28.841  26.854 -0.1898  0.1710  0.0030
81317W        W24229  14.939  31.987  24.974 -0.1023 -0.0453 -0.2085
81318W        W24230  16.569  31.672  27.040 -0.2443  0.1972  0.1203
81319W        W24231  16.478  31.546  26.159 -0.0192 -0.0234  0.0972
81320W        W24232  14.704  30.786  25.713 -0.1517  0.1292  0.0010
81321W        W24233  15.394  30.968  24.186 -0.0172  0.1020  0.3015
81322W        W24234  18.525  31.260  28.097 -0.0602  0.0503 -0.0762
81323W        W24235  15.679  31.056  23.562  0.0218  0.3641  0.1649
81324W        W24236  15.745  32.476  27.029  0.0267  0.0397 -0.1638
81325W        W24237  14.988  30.381  25.930 -0.2424 -0.2562  0.0743
81326W        W24238  15.558  30.664  25.737  0.0917 -0.0649  0.1688
81327W        W24239  14.661  33.163  25.719  0.0627  0.1481  0.1780
81328W        W24240  16.594  31.046  26.190 -0.0721  0.1211 -0.0504
81329W        W24241  17.354  32.070  28.541  0.1153 -0.0502 -0.0727
81330W        W24242  14.829  29.659  25.979 -0.2714  0.0391 -0.3385
81331W        W24243  17.583  32.440  25.082 -0.0233 -0.0855  0.1610
81332W        W24244  17.472  30.853  25.781  0.0160 -0.1371 -0.1577
81333W        W24245  15.361  33.684  24.512 -0.1587 -0.0382 -0.1927
81334W        W24246  16.827  31.850  25.301  0.1027  0.1940 -0.1615
81335W        W24247  16.327  33.668  26.782  0.0302  0.0210  0.2336
81336W        W24248  14.174  30.906  26.499  0.1787 -0.0678 -0.2141
81337W        W24249  16.731  32.187  26.224  0.1866  0.2479  0.1564
81338W        W24250  17.452  31.767  27.463 -0.0089  0.1436 -0.0770
81339W        W24251  15.384  30.129  25.803  0.1813  0.0294  0.0371
81340W        W24252  15.700  30.707  23.251  0.1909 -0.1676  0.2135
81341W        W24253  13.788  32.283  24.237 -0.0846  0.1563 -0.0390
81342W        W24254  18.205  29.892  26.697  0.0241  0.1872 -0.1609
81343W        W24255  15.976  30.448  27.355  0.0604 -0.1292 -0.0999
81344W        W24256  15.087  32.358  23.918  0.2297 -0.0374 -0.1722
81345W        W24257  18.048  28.050  27.015  0.1003  0.2600 -0.1537
81346W        W24258  16.100  32.978  27.722 -0.1287 -0.2922 -0.1270
81347W        W24259  15.315  32.806  26.981  0.0657 -0.2048  0.0029
81348W        W24260  13.746  30.344  22.677 -0.1293  0.0242 -0.0894
81349W        W24261  14.798  31.649  27.041  0.0203 -0.1147 -0.3887
81350W        W24262  16.130  32.519  25.575  0.2061 -0.0136  0.0002
81351W        W24263  15.205  30.759  25.009  0.1284 -0.2347 -0.0556
81352W        W24264  17.943  31.339  26.578 -0.1210 -0.1169 -0.4946
81353W        W24265  14.985  31.472  24.857 -0.0966  0.1238  0.1649
81354W        W24266  17.217  31.950  24.962  0.0430  0.0461  0.0442
81355W        W24267  15.953  31.312  26.165  0.0540 -0.0894 -0.1738
81356W        W24268  17.166  28.334  25.790  0.0120 -0.2870  0.0753
81357W        W24269  18.333  29.487  25.637 -0.0446 -0.0176 -0.4531
81358W        W24270  15.083  32.092  27.345  0.3673  0.1584  0.0542
81359W        W24271  12.737  32.003  22.724  0.1634 -0.0137  0.0950
81360W        W24272  14.227  32.548  23.475  0.1414 -0.1041 -0.1508
81361W        W24273  13.584  30.318  25.986 -0.3097 -0.2663  0.1771
81362W        W24274  16.839  29.904  26.574 -0.0235 -0.3075  0.0803
81363W        W24275  14.718  29.226  28.220  0.1725 -0.1312  0.3230
81364W        W24276  14.358  31.333  24.842 -0.0460 -0.1496  0.0632
81365W        W24277  16.159  29.587  23.654  0.1553 -0.0214 -0.0803
81366W        W24278  17.998  31.647  26.139  0.0808  0.1294 -0.1483
81367W        W24279  14.641  31.096  26.598 -0.2508  0.1446  0.3973
81368W        W24280  13.949  29.221  25.259  0.0317  0.3415 -0.3506
81369W        W24281  16.986  32.638  26.202  0.2327 -0.0855  0.4168
81370W        W24282  17.770  31.969  25.000  0.4620 -0.1501  0.2335
81371W        W24283  15.150  28.173  27.369 -0.0876 -0.3202  0.0908
81372W        W24284  18.067  32.940  27.372  0.0323 -0.2154 -0.3229
81373W        W24285  14.083  31.178  25.662 -0.1389 -0.0821 -0.4244
81374W        W24286  14.928  30.804  27.338 -0.0982  0.0024 -0.1328
81375W        W24287  14.845  30.708  26.885  0.1957  0.2866 -0.1986
81376W        W24288  15.071  30.112  25.056 -0.0349  0.1235  0.1176
81377W        W24289  16.040  31.579  26.582  0.0590  0.0584 -0.2555
81378W        W24290  16.669  32.511  24.358  0.0226 -0.3717 -0.3489
81379W        W24291  16.584  33.372  24.610 -0.0045  0.1470 -0.1949
81380W        W24292  15.399  32.832  25.147  0.1239 -0.2166 -0.3188
81381W        W24293  15.785  34.605  27.268  0.0188  0.2612 -0.1514
81382W        W24294  14.222  30.440  27.284  0.2881  0.1530  0.0291
81383W        W24295  16.715  31.367  26.607 -0.0188  0.1698 -0.0578
81384W        W24296  14.264  31.328  27.137  0.2705 -0.0348  0.0297
81385W        W24297  17.909  31.872  25.717 -0.0438  0.1933  0.0746
81386W        W24298  17.332  28.726  25.490 -0.0014  0.4542  0.2238
81387W        W24299  16.226  31.451  25.704  0.3151  0.1993 -0.1514
81388W        W24300  14.285  29.858  26.725  0.1975  0.2914  0.1071
81389W        W24301  13.719  31.875  27.661  0.2176  0.0507 -0.0753
81390W        W24302  17.740  32.072  26.200  0.0839 -0.0715 -0.1142
81391W        W24303  15.673  28.126  25.722 -0.0217 -0.1155 -0.0403
81392W        W24304  16.582  29.139  25.026 -0.0888 -0.0218 -0.2002
81393W        W24305  16.678  31.906  25.807 -0.2396  0.0813  0.1063
81394W        W24306  14.712  30.561  26.295 -0.0456 -0.0684 -0.0189
81395W        W24307  16.904  32.269  23.518 -0.1176 -0.0898 -0.1601
81396W        W24308  16.014  30.827  26.024 -0.1663 -0.0139 -0.0189
81397W        W24309  17.288  32.831  25.219 -0.0760 -0.1423 -0.0685
81398W        W24310  15.947  31.755  27.683 -0.2044 -0.1139 -0.4577
81399W        W24311  15.312  30.465  24.198  0.0336 -0.0104 -0.0343
81400W        W24312  18.249  32.806  23.028 -0.2084  0.4006 -0.0628
81401W        W24313  15.906  31.483  27.179  0.0830 -0.1593  0.1546
81402W        W24314  16.367  32.909  26.768 -0.0618  0.0577 -0.0595
81403W        W24315  15.415  32.488  27.405 -0.2815 -0.2827  0.2696
81404W        W24316  17.624  31.482  27.019 -0.0813 -0.1296 -0.1002
81405W        W24317  15.897  28.001  26.962 -0.0772 -0.1270 -0.1961
81406W        W24318  13.606  31.139  24.717  0.0981  0.3397  0.1911
81407W        W24319  15.172  31.079  24.614  0.0932  0.0726  0.1245
81408W        W24320  15.412  30.473  26.217 -0.2043  0.2169  0.2283
81409W        W24321  14.314  29.731  24.496  0.1038 -0.0182  0.0737
81410W        W24322  16.769  29.616  25.315 -0.3738 -0.0326 -0.1931
81411W        W24323  15.936  32.075  26.571  0.1045  0.0365  0.1913
81412W        W24324  16.443  31.885  26.569  0.1180 -0.0346 -0.1027
81413W        W24325  15.385  31.594  30.552  0.2309 -0.0988  0.1123
81414W        W24326  15.947  29.291  30.209  0.0599  0.0056  0.0277
81415W        W24327  16.830  31.599  27.458 -0.1516  0.1227  0.2409
81416W        W24328  16.416  31.004  28.033  0.0463  0.0223 -0.1802
81417W        W24329  14.304  29.796  28.691 -0.3211  0.0433  0.4143
81418W        W24330  17.362  31.387  28.817  0.0564  0.0613  0.0161
81419W        W24331  15.673  28.299  30.490  0.0891  0.1711  0.2070
81420W        W24332  16.342  31.379  29.887 -0.0706  0.4123  0.0308
81421W        W24333  17.069  31.834  29.636  0.0945 -0.2429  0.1098
81422W        W24334  16.329  31.398  27.479  0.0577  0.0539 -0.0471
81423W        W24335  14.843  30.202  28.939  0.2177  0.0712 -0.4983
81424W        W24336  15.629  32.114  30.478  0.1827 -0.2627 -0.2911
81425W        W24337  15.239  29.291  29.617 -0.0193  0.0374 -0.0897
81426W        W24338  15.225  29.916  29.573  0.0915  0.2542  0.2650
81427W        W24339  16.991  29.920  29.603 -0.0630  0.2062  0.1918
81428W        W24340  15.218  32.065  29.040  0.1099 -0.2440  0.3784
81429W        W24341  15.785  30.112  29.856  0.0308 -0.3315  0.2777
81430W        W24342  16.191  28.627  27.598  0.0398 -0.1255 -0.2381
81431W        W24343  16.502  30.886  28.689  0.1952 -0.1268 -0.1496
81432W        W24344  14.949  29.719  28.838  0.0900  0.3608  0.2119
81433W        W24345  15.932  28.562  30.799 -0.1317  0.0904  0.0362
81434W        W24346  16.632  30.703  27.669  0.1301  0.1931  0.1891
81435W        W24347  13.841  29.397  27.375  0.0255 -0.2012  0.0236
81436W        W24348  14.945  29.256  30.046  0.2324 -0.0430 -0.1830
81437W        W24349  14.711  30.120  31.353  0.0437  0.2327 -0.0083
81438W        W24350  16.910  29.467  28.538 -0.1856 -0.0502  0.0758
81439W        W24351  17.375  31.069  27.935  0.0596  0.3919 -0.2934
81440W        W24352  16.071  31.622  29.360 -0.0423  0.0934  0.2587
81441W        W24353  16.280  30.366  30.053  0.1011  0.4000 -0.0344
81442W        W24354  16.335  30.369  31.579 -0.1559  0.0356 -0.0211
81443W        W24355  15.170  30.727  29.872  0.2696  0.0628  0.0146
81444W        W24356  14.457  32.783  28.501  0.1936 -0.0541  0.5457
81445W        W24357  13.904  31.527  29.631  0.1339 -0.0553 -0.0848
81446W        W24358  18.307  31.297  29.097  0.0334  0.1824 -0.0109
81447W        W24359  17.203  30.257  31.759  0.2024 -0.0405  0.3390
81448W        W24360  15.309  31.553  31.060  0.1688  0.1106 -0.0133
81449W        W24361  13.977  31.558  28.675  0.0264 -0.0080  0.0980
81450W        W24362  15.118  33.986  30.581 -0.0262  0.1354  0.1169
81451W        W24363  16.908  31.091  30.153 -0.1875  0.2532 -0.0694
81452W        W24364  15.715  29.594  29.692 -0.3460  0.0199  0.1011
81453W        W24365  16.575  30.292  29.298 -0.0309 -0.1467 -0.0752
81454W        W24366  16.132  31.701  28.806 -0.2304  0.1069  0.1014
81455W        W24367  15.829  31.465  31.267 -0.1288  0.2363  0.3363
81456W        W24368  15.689  30.692  30.656 -0.1129  0.0121 -0.0549
81457W        W24369  15.284  31.664  29.556 -0.0484  0.0989 -0.0516
81458W        W24370  18.052  29.502  30.973  0.2398 -0.0035 -0.2578
81459W        W24371  15.969  33.157  28.694  0.0405 -0.1960  0.1136
81460W        W24372  17.098  31.526  26.985  0.3165  0.0345  0.1322
81461W        W24373  14.963  31.201  27.036 -0.2380  0.0177 -0.1423
81462W        W24374  15.773  28.347  27.851  0.2179 -0.2277  0.0134
81463W        W24375  14.789  28.201  28.833 -0.0330  0.0742 -0.3435
81464W        W24376  16.464  33.745  29.009  0.0461 -0.0504  0.2566
81465W        W24377  15.561  29.804  30.168 -0.0343 -0.0092  0.0524
81466W        W24378  17.428  31.555  29.263 -0.0634 -0.0122  0.3927
81467W        W24379  16.924  30.624  29.388  0.0361 -0.1638  0.1063
81468W        W24380  16.802  29.886  30.546 -0.2957 -0.1502 -0.1397
81469W        W24381  14.795  31.338  30.273  0.1968  0.1752 -0.0449
81470W        W24382  15.255  29.835   0.218 -0.2187 -0.1404 -0.1160
81471W        W24383  18.595  32.493  28.108  0.1707  0.1361 -0.0981
81472W        W24384  17.869  31.372  30.690  0.0714  0.0862  0.1882
81473W        W24385  16.242  31.366  28.446 -0.3433  0.2284 -0.1594
81474W        W24386  15.265  29.856  27.742 -0.0826 -0.1064 -0.4247
81475W        W24387  14.348  30.514  29.816 -0.0940  0.1452 -0.1023
81476W        W24388  15.587  33.250   0.015 -0.1626 -0.0282 -0.1563
81477W        W24389  14.433  30.152  27.638 -0.1291  0.0616 -0.1945
81478W        W24390  17.536  31.177  31.706  0.0865 -0.2006 -0.1010
81479W        W24391  13.970  32.032  31.167  0.1982 -0.1451  0.3011
81480W        W24392  17.624  30.468  27.507 -0.1873 -0.3309  0.2105
81481W        W24393  16.660  31.673  30.751 -0.0328 -0.0513 -0.0617
81482W        W24394  17.276  30.955  29.856  0.0743  0.2732  0.1555
81483W        W24395  16.766  32.623  28.188 -0.3261  0.1421  0.1349
81484W        W24396  16.653  29.319  30.780  0.4626  0.2771  0.2860
81485W        W24397  17.104  28.640  31.369 -0.0690  0.0786 -0.2613
81486W        W24398  15.182  30.558  29.270  0.2286  0.2105 -0.0502
81487W        W24399  15.749  30.936  28.902 -0.1799  0.2143 -0.1859
81488W        W24400  17.895  32.375   0.411  0.2501 -0.1210 -0.1919
81489W        W24401  18.081  30.719  27.641  0.2501  0.1819  0.0899
81490W        W24402  15.110  32.615  29.143  0.0711  0.2260 -0.2523
81491W        W24403  15.014  29.157  31.105 -0.0128  0.2400  0.0536
81492W        W24404  17.713  32.005  31.567 -0.3516  0.3180 -0.2810
81493W        W24405  14.860  34.009  27.936  0.0939 -0.0140 -0.0890
81494W        W24406  12.564  29.382  29.010 -0.2734  0.1064  0.1598
81495W        W24407  16.070  30.998  29.919  0.3318  0.1060 -0.0575
81496W        W24408  15.306  29.635  30.580  0.1043  0.1009  0.1520
81497W        W24409  15.881  30.264  30.430  0.0110  0.1362 -0.2377
81498W        W24410  17.747  29.058  28.282  0.1350  0.0614  0.1416
81499W        W24411  14.979  30.337  30.373 -0.0134  0.0847  0.0511
81500W        W24412  16.678  29.828  29.141  0.0380  0.1821 -0.0883
81501W        W24413  14.272  30.801  29.373 -0.0057 -0.3239  0.1260
81502W        W24414  17.648  31.702  28.334  0.1314  0.0099  0.3198
81503W        W24415  17.952  31.571  27.432 -0.0866  0.1777  0.0998
81504W        W24416  16.732  32.390  26.757 -0.1428  0.0673  0.0886
81505W        W24417  15.351  31.521  30.078  0.0726 -0.1555  0.1169
81506W        W24418  14.612  29.386  28.745  0.0320  0.0220  0.1652
81507W        W24419  15.383  29.421  31.749  0.1645 -0.1342 -0.1369
81508W        W24420  14.408  29.621  29.195  0.1210  0.0666 -0.1827
81509W        W24421  16.001  30.569   0.489 -0.1387 -0.2298  0.1079
81510W        W24422  15.536  28.981  27.262  0.1829  0.0833 -0.0097
81511W        W24423  16.613  29.340  29.670  0.2279 -0.1669  0.2498
81512W        W24424  15.514  31.049  29.720 -0.1012 -0.1232  0.0706
81513W        W24425  14.661  31.146  29.216 -0.2850 -0.0305  0.0585
81514W        W24426  18.418  29.247  30.710 -0.1614 -0.0049 -0.0636
81515W        W24427  16.565  31.908  29.008 -0.2128  0.1826 -0.0972
81516W        W24428  18.009  30.734  30.674 -0.0555  0.1454 -0.2491
81517W        W24429  17.148  31.032  29.080  0.1159 -0.1081 -0.2837
81518W        W24430  15.452  29.280  30.930  0.1675 -0.2360 -0.1387
81519W        W24431  14.896  30.228  27.747  0.2390 -0.2792 -0.0285
81520W        W24432  13.718  32.433  28.952 -0.1059 -0.0628  0.0888
81521W        W24433  16.289  31.140  29.480  0.0292  0.0502  0.3274
81522W        W24434  15.763  28.877  27.844  0.1235  0.0862 -0.2189
81523W        W24435  17.315  33.365  29.126 -0.1995 -0.0097 -0.3480
81524W        W24436  17.474  30.613  29.421  0.0543 -0.1126  0.4479
81525W        W24437  15.973  30.086  30.918  0.3759 -0.2422  0.1762
81526W        W24438  16.335  30.045  30.444 -0.0094 -0.0177  0.2103
81527W        W24439  18.974  30.214  29.968 -0.2503  0.1643 -0.0788
81528W        W24440  16.774  29.802  28.149  0.2497  0.1170  0.0639
81529W        W24441  14.462  30.533  28.616  0.0417 -0.2437  0.0095
81530W        W24442  16.799  31.201  30.628 -0.0659 -0.2922 -0.1727
81531W        W24443  14.810  32.315  27.751  0.0931  0.0964  0.0096
81532W        W24444  14.636  30.650  29.072  0.1060  0.1345 -0.1363
81533W        W24445  15.677  32.038  29.320  0.0055 -0.2869  0.3976
81534W        W24446  17.121  29.535  28.981 -0.1750  0.1582 -0.1841
81535W        W24447  14.928  31.141  31.529  0.2431  0.0810  0.1952
81536W        W24448  16.604  30.751  31.002 -0.4723  0.1042 -0.3468
81537W        W24449  14.597  31.580  28.955 -0.2429  0.0249  0.1745
81538W        W24450  15.287  32.370  31.381 -0.0252  0.0930 -0.1416
81539W        W24451  16.872  28.958  28.258  0.0602 -0.0724  0.2438
81540W        W24452  16.984  30.649  27.039 -0.4079  0.0163  0.3714
81541W        W24453  16.222  29.936  31.335 -0.0576 -0.2002  0.0030
81542W        W24454  18.133  31.548  28.224 -0.2001  0.0765 -0.1998
81543W        W24455  17.327  30.162  26.862 -0.2338  0.0172 -0.0705
81544W        W24456  14.337  28.854  28.263  0.1582 -0.0560  0.0813
81545W        W24457  15.367  33.312   0.557  0.0879  0.0472  0.2716
81546W        W24458  16.230  30.631  29.061  0.0200  0.1668 -0.0181
81547W        W24459  16.509  32.256  31.044  0.2872  0.1709  0.1054
81548W        W24460  16.566  29.929  27.651 -0.0860  0.4202 -0.2822
81549W        W24461  17.180  32.435  27.886  0.0732 -0.0917 -0.1393
81550W        W24462  15.246  30.079  28.615  0.0933 -0.1999 -0.1617
81551W        W24463  16.713  30.237  31.880 -0.1088 -0.0208 -0.1303
81552W        W24464  16.443  31.280  30.918  0.1378 -0.0227 -0.0932
81553W        W24465  16.044  28.216  29.839 -0.2280 -0.3121  0.3003
81554W        W24466  14.773  31.138  28.731  0.0383  0.0469 -0.3059
81555W        W24467  17.296  29.231  28.341  0.1408 -0.2177 -0.0593
81556W        W24468  14.239  33.108  27.677  0.0402  0.0544  0.4011
81557W        W24469  17.986  30.022  29.709  0.3597 -0.4065 -0.0946
81558W        W24470  16.708  28.913  31.384 -0.0623 -0.1070  0.0105
81559W        W24471  17.940  28.467  30.132 -0.3285  0.1563  0.1958
81560W        W24472  17.443  29.205   0.362  0.1670 -0.2373  0.0941
81561W        W24473  18.045  31.197  27.807 -0.1895 -0.0139  0.0110
81562W        W24474  16.220  30.149  29.612 -0.0308 -0.3530  0.1040
81563W        W24475  13.376  32.380  27.857  0.0171  0.0158 -0.0450
81564W        W24476  15.895  28.771  30.188  0.4459  0.0452 -0.1491
81565W        W24477  16.205  30.660  30.615  0.1506  0.0390 -0.1909
81566W        W24478  12.995  32.704  31.219  0.0604  0.0027  0.0904
81567W        W24479  17.120  30.754  30.530 -0.0352  0.0967 -0.1354
81568W        W24480  16.060  30.448  28.570 -0.2150 -0.0724  0.1098
81569W        W24481  15.689  29.712  31.493 -0.2222 -0.1670 -0.0738
81570W        W24482  15.850  29.343  28.490 -0.1928  0.1656 -0.0284
81571W        W24483  16.425  33.098  28.163 -0.1111 -0.1841  0.2820
81572W        W24484  14.857  31.089  27.796 -0.0459 -0.1977 -0.2433
81573W        W24485  16.262  29.347  31.181 -0.1264  0.2100 -0.0003
81574W        W24486  17.203  32.500  29.002 -0.0582  0.0137 -0.0015
81575W        W24487  14.764  32.492  28.226 -0.1611 -0.1015  0.1325
81576W        W24488  17.770  30.503  30.063 -0.0613 -0.1893  0.0813
81577W        W24489  14.141  32.383  29.293 -0.1389 -0.2743  0.1751
81578W        W24490  17.604  29.118  29.694  0.0794 -0.0345 -0.1804
81579W        W24491  15.347  32.421  30.058 -0.2801 -0.0439 -0.1313
81580W        W24492  16.428  29.418  28.452  0.1882  0.2161  0.1480
81581W        W24493  13.652  30.331  28.294  0.0707  0.0553  0.0059
81582W        W24494  16.803  29.473  27.548 -0.3252  0.1194  0.1427
81583W        W24495  15.165  31.555  28.980  0.1103  0.0653  0.0083
81584W        W24496  15.374  30.158  30.613  0.1742  0.1819  0.0853
81585W        W24497  16.662  29.036  28.789 -0.0074 -0.1334 -0.0023
81586W        W24498  14.357  30.985  30.335  0.0515 -0.1655  0.0476
81587W        W24499  15.339  30.061  29.111 -0.0948 -0.3216  0.1023
81588W        W24500  17.722  30.033  28.105 -0.1994  0.2475 -0.2029
81589W        W24501  19.110  31.932  31.082 -0.1745  0.0672 -0.1524
81590W        W24502  15.629  30.460   0.094  0.4576  0.2611 -0.1083
81591W        W24503  15.129  30.676  27.869  0.2927  0.2096 -0.0454
81592W        W24504  17.648  30.660  28.877 -0.1062 -0.0195 -0.2537
81593W        W24505  14.860  31.152  29.765 -0.1921  0.0948  0.1761
81594W        W24506  13.761  32.007  28.540  0.1810  0.0139 -0.1129
81595W        W24507  15.926  30.746  31.566  0.3052 -0.1174 -0.0884
81596W        W24508  13.396  30.314  27.849 -0.4108 -0.0550 -0.4467
81597W        W24509  14.688  30.781  30.090 -0.2062 -0.0028 -0.1427
81598W        W24510  16.053  29.419   0.824 -0.0560  0.2103  0.1681
81599W        W24511  17.123  30.956  31.079 -0.2092 -0.0410  0.6576
81600W        W24512  16.766  28.972  30.481  0.0809  0.3468  0.1512
81601W        W24513  16.209  29.678  29.440 -0.1360 -0.1115 -0.0152
81602W        W24514  15.188  31.005  30.272  0.0643 -0.0551 -0.0206
81603W        W24515  17.232  30.083  30.577  0.0402  0.2138 -0.0480
81604W        W24516  16.169  30.448  31.156  0.1718 -0.1855  0.1862
81605W        W24517  16.100  30.935  31.080  0.2532 -0.0819 -0.0812
81606W        W24518  16.134  28.748  29.732  0.1460  0.1039 -0.0183
81607W        W24519  18.191  32.642  28.383  0.0455 -0.2517 -0.0735
81608W        W24520  16.426  28.322   0.073  0.0559  0.1218 -0.0220
81609W        W24521  14.971  32.130  29.495  0.3340 -0.2952 -0.1340
81610W        W24522  14.978  29.892  30.904 -0.1600 -0.2065 -0.0424
81611W        W24523  14.251  31.171  28.890 -0.3393 -0.0468  0.1354
81612W        W24524  17.840  29.832  31.277  0.0604 -0.0410  0.1490
81613W        W24525  16.675  32.497  30.660  0.0210 -0.2356  0.0820
81614W        W24526  15.222  31.988  26.383 -0.1807 -0.4451 -0.0106
81615W        W24527  14.608  32.073  30.320  0.0868  0.1037 -0.1531
81616W        W24528  16.461  30.522  27.266 -0.2239 -0.3100 -0.0235
81617W        W24529  16.347  32.720  28.503  0.0280  0.4006 -0.0232
81618W        W24530  15.878  30.914  29.376 -0.2699  0.3758 -0.0208
81619W        W24531  18.169  30.261  30.932 -0.1264 -0.1459  0.1126
81620W        W24532  17.247  31.287  27.485 -0.0643 -0.2374 -0.0926
81621W        W24533  16.714  29.552  31.236  0.1792  0.1286 -0.0399
81622W        W24534  15.588  27.036  30.886 -0.0440 -0.1475  0.1891
81623W        W24535  17.624  31.112  29.254 -0.0835  0.1717 -0.2519
81624W        W24536  15.673  31.201  30.803 -0.0039  0.3375 -0.0669
81625W        W24537  16.401  32.858   0.279  0.2979  0.2032  0.3564
81626W        W24538  16.596  31.638  31.259  0.0312 -0.0134  0.1700
81627W        W24539  16.270  29.710  28.073  0.3381 -0.3533 -0.0232
81628W        W24540  13.145  30.775  27.914  0.0616 -0.1194  0.2585
81629W        W24541  14.807  30.768  31.170 -0.2104  0.1745 -0.1513
81630W        W24542  17.131  29.637  30.256 -0.0537 -0.1421 -0.2452
81631W        W24543  16.579  31.620  29.468  0.2149  0.1719  0.2452
81632W        W24544  17.530  30.347  28.474  0.0976 -0.1446 -0.1524
81633W        W24545  16.526  30.796  30.192 -0.1276  0.0670  0.0597
81634W        W24546  16.631  30.953  29.159  0.0372 -0.3033  0.1202
81635W        W24547  15.963  30.911  28.467  0.1232 -0.1507 -0.0533
81636W        W24548  15.404  30.205  28.138  0.0702  0.1775 -0.0539
81637W        W24549  16.529  28.881  31.953 -0.2378  0.1886 -0.3078
81638W        W24550  15.488  30.573  28.620  0.0514 -0.1631  0.2570
81639W        W24551  16.095  30.141  29.084 -0.0857 -0.0144  0.1843
81640W        W24552  16.520  29.810  31.923  0.1355 -0.1477  0.0587
81641W        W24553  18.721  30.588  30.292 -0.2936 -0.1492  0.1459
81642W        W24554  16.936  31.834  31.569 -0.1021  0.0663  0.1252
81643W        W24555  14.852  31.728   0.045  0.1039 -0.1125  0.2426
81644W        W24556  17.152  32.181  29.983 -0.3734  0.1908  0.0158
81645W        W24557  16.957  31.515  29.143  0.0423  0.1057 -0.2121
81646W        W24558  16.978  29.898  31.012 -0.0764  0.0482  0.0315
81647W        W24559  16.802  31.128  27.720  0.2680  0.2458 -0.1405
81648W        W24560  16.956  30.401  28.446 -0.0496  0.0427 -0.1417
81649W        W24561  14.555  29.053  30.716  0.1310 -0.2903 -0.1269
81650W        W24562  18.798  31.271   1.081  0.1890  0.1222  0.0823
81651W        W24563  14.272  28.381  28.253  0.2025  0.1193  0.0092
81652W        W24564  18.398  29.713  30.623 -0.2092  0.1664  0.1970
81653W        W24565  17.034  32.015  27.667 -0.1116 -0.0427 -0.4594
81654W        W24566  16.773  30.383  30.363 -0.1380 -0.2468 -0.1057
81655W        W24567  15.689  30.487  29.076  0.2573  0.2636 -0.0802
81656W        W24568  14.333  29.447  29.703 -0.0414 -0.0803 -0.1052
81657W        W24569  14.572  32.146  31.581 -0.0608  0.1754  0.3232
81658W        W24570  15.071  29.398  27.891 -0.3375 -0.3476 -0.3086
81659W        W24571  15.244  31.250  27.536 -0.1594  0.1192  0.0516
81660W        W24572  16.860  30.315  31.400 -0.3376 -0.1902 -0.0222
81661W        W24573  18.000  31.892   0.601  0.0755 -0.3400  0.2470
81662W        W24574  16.044  30.816  27.713  0.4191 -0.0438 -0.3958
81663W        W24575  17.585  30.396  30.539 -0.0554  0.4869  0.1970
81664W        W24576  13.651  32.684  28.197  0.2494 -0.0134 -0.0682
81665W        W24577  14.911  28.954  28.627 -0.1058 -0.1077 -0.2451
81666W        W24578  15.088  31.248  30.721 -0.2422  0.1062 -0.3337
81667W        W24579  14.880  30.774  30.644  0.0212 -0.0666 -0.0156
81668W        W24580  16.124  32.019  29.659  0.3986  0.2769 -0.1181
81669W        W24581  15.850  29.588  31.016  0.0253  0.0647  0.0638
81670W        W24582  17.654  30.080  29.359  0.2678 -0.2144 -0.0330
81671W        W24583  16.563  31.418  28.829  0.1003 -0.1977 -0.0851
81672W        W24584  18.493  30.596  30.764  0.1331 -0.0466 -0.0677
81673W        W24585  16.661  31.088  31.364 -0.1494 -0.0235 -0.1123
81674W        W24586  16.095  29.727  29.943  0.0530 -0.3167  0.0370
81675W        W24587  16.586  30.798  31.764  0.1269  0.2369 -0.3778
81676W        W24588  16.699  31.020  29.715 -0.1709  0.0460 -0.1411
81677W        W24589  15.813  31.714  30.222 -0.1700 -0.2461  0.1155
81678W        W24590  13.517  30.052   0.098 -0.3359 -0.3194 -0.1168
81679W        W24591  15.784  29.622   0.056 -0.3230  0.0520 -0.1274
81680W        W24592  17.764  31.154  28.229  0.2017 -0.0821  0.0810
81681W        W24593  15.269  31.143  28.727  0.1321  0.3945 -0.1211
81682W        W24594  14.922  33.180  27.610  0.0235 -0.0416 -0.0448
81683W        W24595  14.751  32.319  30.727  0.3327 -0.0212 -0.1956
81684W        W24596  14.814  30.450  31.809  0.1075  0.1931  0.2350
81685W        W24597  14.776  31.995  28.684  0.4132 -0.2976 -0.0222
81686W        W24598  17.683  31.815  28.911  0.0550 -0.3122  0.0059
81687W        W24599  17.443  30.821  28.391  0.0860 -0.0544  0.0057
81688W        W24600  15.772  31.678  30.798 -0.2072 -0.0687  0.0829
81689W        W24601  15.969  31.280  28.062 -0.0500  0.0575 -0.1147
81690W        W24602  15.181  32.000  30.261  0.2867 -0.0769  0.2696
81691W        W24603  13.822  32.073  26.989  0.2446  0.4176  0.0067
81692W        W24604  18.053  33.750  28.624 -0.4092  0.0267  0.1527
81693W        W24605  14.644  32.479  28.811 -0.0379  0.2601 -0.0101
81694W        W24606  17.711  32.354  30.739 -0.0660 -0.1540  0.1543
81695W        W24607  17.268  28.728  27.289  0.0410  0.0482  0.0631
81696W        W24608  18.507  30.527  29.389  0.0355  0.1388  0.0707
81697W        W24609  17.454  29.962  28.756  0.0775  0.0801 -0.0883
81698W        W24610  16.178  31.660  31.783 -0.1533  0.2939  0.0483
81699W        W24611  15.741  29.915  29.341  0.0751 -0.4281  0.3403
81700W        W24612  15.851  28.675  28.476 -0.1517 -0.0276  0.0579
81701W        W24613  15.238  30.519  30.919 -0.1061 -0.1504  0.2294
81702W        W24614  17.201  27.709  30.569 -0.0860  0.2048 -0.1274
81703W        W24615  13.407  32.796  30.182 -0.1080  0.3045  0.1717
81704W        W24616  17.005  31.688  28.655  0.0821  0.3130 -0.1681
81705W        W24617  15.552  29.788  28.334 -0.1955  0.1311  0.2097
81706W        W24618  15.665  30.556  30.064 -0.1371  0.1110 -0.1483
81707W        W24619  17.517  29.889  30.875 -0.1509 -0.2755  0.0274
81708W        W24620  14.832  31.937  28.130  0.0188 -0.0218  0.2301
81709W        W24621  17.174  30.197  29.167  0.0352  0.3239  0.0581
81710W        W24622  16.485  31.803  28.484  0.1189  0.5225  0.0990
81711W        W24623  16.114  31.289  30.525 -0.0653 -0.0463 -0.2322
81712W        W24624  15.669  31.165  30.215 -0.2139  0.0856  0.0173
81713W        W24625  14.610  29.043  29.719 -0.3288  0.2191 -0.0304
81714W        W24626  18.284  31.056  28.561 -0.4550 -0.2463  0.2921
81715W        W24627  15.384  29.293  30.243  0.0643 -0.4456 -0.3267
81716W        W24628  18.421  29.778  29.862  0.2822 -0.1689  0.1603
81717W        W24629  14.669  30.065  28.477 -0.2006 -0.0241 -0.0951
81718W        W24630  16.853  30.503  28.912 -0.0408 -0.3656 -0.1596
81719W        W24631  16.548  30.213  30.826  0.2321  0.3528  0.2225
81720W        W24632  14.966  29.358   0.011 -0.0047  0.1060  0.3125
81721W        W24633  15.030  31.336  28.295 -0.0718  0.2442  0.1968
81722W        W24634  17.092  31.317  31.533 -0.0150  0.0947 -0.1227
81723W        W24635  16.763  30.144  26.982  0.3542 -0.1641 -0.0963
81724W        W24636  16.720  32.339  31.496 -0.2081  0.5037 -0.1914
81725W        W24637  14.353  28.936  28.794 -0.2624  0.5219 -0.0565
81726W        W24638  16.494  30.165  28.791 -0.1427 -0.0945  0.1805
81727W        W24639  15.893  31.464  29.780  0.1112  0.1153  0.0411
81728W        W24640  16.901  30.610   0.132  0.1152 -0.0244  0.0799
81729W        W24641  17.366  31.790  31.824  0.0472 -0.0524 -0.1784
81730W        W24642  15.731  30.087  28.755 -0.0520 -0.2258  0.0606
81731W        W24643  17.018  30.881  28.609 -0.2225 -0.2484 -0.1864
81732W        W24644  16.992  30.059  30.099  0.0739 -0.0958 -0.0958
81733W        W24645  16.753  31.387  28.317 -0.1107  0.0980  0.2154
81734W        W24646  16.130  31.267  29.042 -0.1043  0.1436 -0.2686
81735W        W24647  16.748  30.480  29.844 -0.0177 -0.1723  0.0988
81736W        W24648  14.832  29.389  29.239  0.0065  0.1193  0.0748
81737W        W24649  17.563  30.856  31.337 -0.1855 -0.1150 -0.1744
81738W        W24650  18.564  32.494  29.733 -0.0374  0.1559  0.0789
81739W        W24651  17.234  29.842  27.313 -0.0724 -0.0986  0.0206
81740W        W24652  15.592  29.347  29.249  0.1151  0.0464  0.0688
81741W        W24653  13.814  30.801  29.597 -0.0672  0.2187 -0.2529
81742W        W24654  18.125  31.147  29.543  0.1534 -0.2915  0.1337
81743W        W24655  17.737  30.877  29.711 -0.1140 -0.1771 -0.1593
81744W        W24656  15.335  31.035  29.236 -0.2750 -0.1333 -0.0974
81745W        W24657  15.847  29.728  30.533 -0.0587  0.0248 -0.0056
81746W        W24658  17.077  30.787  31.555 -0.0896 -0.0137  0.1719
81747W        W24659  15.042  33.066   0.141  0.0395  0.1019 -0.3200
81748W        W24660  14.457  31.702  28.483  0.0724 -0.3038 -0.3405
81749W        W24661  15.337  31.249   0.127  0.0122  0.0628  0.0812
81750W        W24662  15.633  31.505  29.178 -0.3187  0.2119 -0.1524
81751W        W24663  15.630  32.635  29.424  0.0647 -0.1917 -0.0204
81752W        W24664  18.419  31.545  29.474 -0.0231  0.1432 -0.0305
81753W        W24665  16.425  30.127  28.322  0.0995 -0.0154 -0.0358
81754W        W24666  18.618  32.312  29.137  0.2375  0.1032  0.0834
81755W        W24667  16.295  29.666  30.792  0.5363  0.2361 -0.4172
81756W        W24668  17.535  29.266  29.246  0.0658  0.4141 -0.0967
81757W        W24669  15.837  28.818  29.320  0.1314  0.0658  0.2439
81758W        W24670  15.492  31.934  31.697 -0.0863  0.2135 -0.3134
81759W        W24671  13.490  31.625  28.771  0.2118 -0.0745  0.0652
81760W        W24672  15.515  31.057  27.962 -0.1005 -0.2216  0.2924
81761W        W24673  15.692  30.507  29.552 -0.2357  0.0395 -0.1105
81762W        W24674  15.984  29.203  30.715 -0.2168  0.2742 -0.3694
81763W        W24675  16.343  30.208   0.276  0.0330 -0.2403 -0.3259
81764W        W24676  14.344  30.261  29.017  0.2089  0.2331  0.0998
81765W        W24677  14.816  28.831  29.140 -0.1517 -0.0607 -0.4616
81766W        W24678  16.853  32.856  29.048 -0.1350 -0.3182  0.1458
81767W        W24679  14.496  28.599  30.548  0.2737 -0.2077 -0.4155
81768W        W24680  13.995  27.673  27.955  0.0270  0.1563 -0.0920
81769W        W24681  18.711  31.116  29.492  0.0861  0.1550  0.2487
81770W        W24682  17.161  32.357  29.472 -0.1036  0.0370 -0.0800
81771W        W24683  15.709  29.083  29.696  0.0888  0.0682 -0.0803
81772W        W24684  17.142  33.334  31.715  0.1222 -0.0731 -0.0476
81773W        W24685  13.842  31.632  27.262 -0.0340 -0.2702  0.1276
81774W        W24686  17.603  29.620  30.430  0.1784  0.3002  0.0487
81775W        W24687  15.354  28.225  31.444  0.0968  0.0731  0.0574
81776W        W24688  13.591  27.847  27.501 -0.0377  0.2954 -0.0677
81777W        W24689  17.466  29.977  30.081  0.0044  0.0757  0.3825
81778W        W24690  17.935  31.589  29.259 -0.1217  0.0808  0.1002
81779W        W24691  18.712  31.675  27.969 -0.0572 -0.1455  0.5272
81780W        W24692  16.215  31.842  30.973 -0.0362  0.2787 -0.0398
81781W        W24693  17.820  31.537  31.647  0.4033  0.0306 -0.3112
81782W        W24694  15.576  28.100  30.974  0.2792  0.0309 -0.0552
81783W        W24695  17.743  31.119  28.720 -0.0313  0.0045 -0.0770
81784W        W24696  16.206  31.559   0.651  0.0764 -0.0358  0.1814
81785W        W24697  17.924  31.881  27.824  0.2910 -0.2555 -0.1166
81786W        W24698  18.061  29.009  29.445  0.1128  0.2314  0.0923
81787W        W24699  16.339  30.674  29.562 -0.3058  0.0255 -0.0214
81788W        W24700  15.335  29.004  31.437 -0.2056  0.0931 -0.0875
81789W        W24701  15.720  32.189  31.298  0.2591  0.1571  0.3251
81790W        W24702  18.890  32.720  29.168 -0.0163  0.3158  0.4650
81791W        W24703  14.921  28.762  30.872  0.2156  0.0678 -0.0586
81792W        W24704  17.179  29.037  28.811  0.1176 -0.0615 -0.0462
81793W        W24705  17.270  31.316  28.316  0.1235  0.2794 -0.3378
81794W        W24706  15.272  30.228  29.965 -0.0819  0.1774 -0.2748
81795W        W24707  16.105  29.829  28.543 -0.0480 -0.0617  0.1216
81796W        W24708  16.837  29.269  30.103 -0.1841  0.1064 -0.0612
81797W        W24709  17.587  31.902  29.915 -0.4110 -0.0101  0.0547
81798W        W24710  17.357  30.251  29.690 -0.2543  0.0046 -0.0380
81799W        W24711  15.499  29.622  28.793 -0.1828  0.1530 -0.1778
81800W        W24712  17.617  32.497  27.237  0.2207 -0.2016  0.0402
81801W        W24713  16.504  32.277  30.215 -0.1923 -0.3134  0.0238
81802W        W24714  17.209  32.228  31.609 -0.2317  0.0981  0.0128
81803W        W24715  16.897  33.391  30.616 -0.0019 -0.0196 -0.1758
81804W        W24716  18.027  32.111  29.110  0.1265 -0.0727  0.0591
81805W        W24717  15.291  28.899  29.901  0.1161  0.3068 -0.0180
81806W        W24718  15.902  30.177  28.200 -0.1188 -0.0925 -0.1741
81807W        W24719  16.566  29.953  29.820 -0.1620  0.1289 -0.0243
81808W        W24720  18.371  28.508  28.574 -0.1666 -0.1985 -0.3035
81809W        W24721  15.261  28.882  29.330  0.1185 -0.2389 -0.0046
81810W        W24722  16.927  29.948  28.748 -0.0113  0.0137 -0.1656
81811W        W24723  15.922  32.251  30.062  0.1621  0.0625 -0.0427
81812W        W24724  17.705  30.995  30.239  0.0212 -0.0133  0.0218
81813W        W24725  17.045  30.428  30.933 -0.0494  0.0460  0.1064
81814W        W24726  17.318  30.937   0.992 -0.0569  0.1800  0.4763
81815W        W24727  16.091  31.241   1.108 -0.0239  0.1043  0.2688
81816W        W24728  15.302  32.620  31.880  0.0703  0.2121 -0.2229
81817W        W24729  16.867  31.987  30.397 -0.1330 -0.0472  0.0425
81818W        W24730  16.226  32.050  31.412 -0.1189  0.1291  0.2056
81819W        W24731  16.215  31.264  31.480 -0.3590 -0.2010 -0.1800
81820W        W24732  15.683  27.854  31.471  0.1146  0.0876 -0.1598
81821W        W24733  17.916  30.130   1.229  0.0502 -0.0968 -0.1544
81822W        W24734  17.546  32.665   1.124  0.4646 -0.2632  0.1624
81823W        W24735  16.738  33.518  31.982 -0.2602  0.2413  0.0083
81824W        W24736  15.400  28.597  31.113 -0.3765  0.0865 -0.3156
81825W        W24737  18.287  31.403  31.607 -0.0827 -0.0573 -0.1424
81826W        W24738  15.657  30.644  31.188  0.3070 -0.0968 -0.2989
81827W        W24739  17.162  29.542  31.891 -0.0167 -0.0700  0.0080
81828W        W24740  16.227  33.249  31.880 -0.2464 -0.2179 -0.0921
81829W        W24741  15.163  30.375   0.189 -0.0813  0.0703 -0.1916
81830W        W24742  17.850  31.074   0.119  0.2500 -0.3778  0.1096
81831W        W24743  14.680  27.336  31.211 -0.2788 -0.1022  0.0588
81832W        W24744  15.369  31.791   0.162  0.0441 -0.1224 -0.4794
81833W        W24745  15.781  28.906  31.143  0.1239 -0.2685 -0.1579
81834W        W24746  13.447  32.470  31.025 -0.1988  0.3137  0.1897
81835W        W24747  17.252  30.228   0.277 -0.1403 -0.0891  0.1502
81836W        W24748  17.813  28.839  31.455 -0.1527  0.2690  0.1648
81837W        W24749  15.901  27.143  31.376 -0.1920  0.1513 -0.1162
81838W        W24750  16.584  28.470  31.582  0.3276  0.0691  0.4168
81839W        W24751  15.765  29.089   0.046  0.1844 -0.3633 -0.2875
81840W        W24752  14.116  32.908   0.044 -0.3893 -0.5002 -0.0349
81841W        W24753  16.198  30.622   0.040 -0.1180 -0.0702  0.0573
81842W        W24754  15.770  30.970   0.175  0.0381 -0.2944 -0.3396
81843W        W24755  15.193  32.033  30.852  0.0626  0.0603  0.2967
81844W        W24756  15.185  28.398  31.918 -0.2752  0.1139 -0.1590
81845W        W24757  17.154  32.517   0.778  0.4443  0.1421  0.0095
81846W        W24758  17.479  28.224  30.357  0.1745  0.3779 -0.0410
81847W        W24759  14.529  29.455  31.594 -0.1537 -0.0659  0.2341
81848W        W24760  15.192  30.424  31.409  0.0471 -0.4404 -0.1445
81849W        W24761  14.468  32.056   0.214 -0.2488  0.1300  0.0245
81850W        W24762  16.256  33.079  31.362 -0.1606 -0.0795  0.1286
81851W        W24763  16.707  31.165   0.282  0.0168 -0.0341 -0.0610
81852W        W24764  16.415  32.541  31.883  0.0660 -0.1418 -0.2972
81853W        W24765  18.777  30.894   0.676 -0.1702  0.0948  0.2841
81854W        W24766  15.699  30.325  31.591  0.2366 -0.1452 -0.1157
81855W        W24767  16.177  28.885  31.494  0.0334  0.2721 -0.1532
81856W        W24768  18.058  32.308  31.933  0.3442 -0.2131  0.1603
81857W        W24769  15.434  30.044  31.834 -0.2594 -0.2345  0.2367
81858W        W24770  16.431  30.338   0.833 -0.1242  0.1080 -0.0001
81859W        W24771  15.980  28.631   1.125 -0.0858  0.1557  0.1216
81860W        W24772  16.627  31.360  31.729  0.1456 -0.1699 -0.1320
81861W        W24773  16.895  31.942   1.450  0.0479 -0.2414  0.2254
81862W        W24774  14.935  31.809  31.456  0.2233  0.1614 -0.1703
81863W        W24775  16.603  32.391   0.402  0.0894 -0.0281 -0.0362
81864W        W24776  17.163  29.498  30.752 -0.3567  0.0081  0.0927
81865W        W24777  16.126  28.290  30.383  0.2035  0.2000 -0.2969
81866W        W24778  16.950  32.565  31.927  0.1898 -0.0207  0.0058
81867W        W24779  19.026  32.500  31.256 -0.4929 -0.3223 -0.0749
81868W        W24780  16.997  29.034  31.982 -0.2787  0.0430 -0.0770
81869W        W24781  17.699  30.368   1.773 -0.0172  0.0109  0.1308
81870W        W24782  15.709  32.746  31.498 -0.3122 -0.1193  0.0395
81871W        W24783  16.127  32.060  30.477  0.2824 -0.2373  0.1092
81872W        W24784  14.750  31.383   0.925  0.0624  0.0442 -0.4243
81873W        W24785  14.507  29.653   0.066 -0.1195  0.0588  0.1307
81874W        W24786  15.373  31.395  31.512  0.3295  0.0672 -0.1056
81875W        W24787  14.961  30.837   0.084 -0.2845  0.0005  0.0755
81876W        W24788  13.911  27.999   0.339 -0.1720 -0.0294 -0.1237
81877W        W24789  17.088  32.211   0.340 -0.0643  0.2611  0.0454
81878W        W24790  17.025  31.535   0.036  0.1074 -0.0606  0.2884
81879W        W24791  17.152  30.996   0.044 -0.1261  0.2441  0.1784
81880W        W24792  16.285   0.770  16.042 -0.0409  0.0640  0.2814
81881W        W24793  18.401  33.062  15.976 -0.0962  0.0677  0.4331
81882W        W24794  18.700  33.280  18.150  0.1125 -0.1785 -0.1165
81883W        W24795  15.397  33.108  16.765 -0.0296 -0.2147  0.0821
81884W        W24796  14.544  32.875  19.179  0.1894  0.1081 -0.2676
81885W        W24797  17.188   0.971  16.282  0.1434 -0.0772 -0.1363
81886W        W24798  16.955  34.609  19.282  0.2722  0.0065  0.1299
81887W        W24799  16.642  33.122  16.820 -0.2128 -0.1556 -0.2314
81888W        W24800  15.354  34.110  18.685 -0.0293  0.0167 -0.2631
81889W        W24801  17.653   0.165  18.627 -0.2626 -0.1481  0.3573
81890W        W24802  15.317   0.496  16.677  0.0786  0.1895 -0.3778
81891W        W24803  16.532  34.124  18.253 -0.0659 -0.0255  0.0627
81892W        W24804  15.976  33.108  16.559  0.0683 -0.0733 -0.2948
81893W        W24805  16.537  33.253  18.637 -0.0446 -0.1786  0.0996
81894W        W24806  16.719  33.945  18.982  0.1106  0.1954 -0.1142
81895W        W24807  15.903  33.968  16.289  0.0299 -0.1374  0.2012
81896W        W24808  15.774  33.373  16.933 -0.0723  0.0260 -0.0021
81897W        W24809  15.911  34.556  17.263  0.1424  0.1905 -0.1544
81898W        W24810  18.355  33.528  18.456 -0.1133 -0.1843  0.3866
81899W        W24811  17.644  34.196  16.516  0.0368 -0.1427 -0.2065
81900W        W24812  18.066   0.403  20.010 -0.2650  0.2206  0.0317
81901W        W24813  17.096  34.301  18.762  0.1700  0.0377  0.1786
81902W        W24814  16.804  33.879  16.564  0.2263  0.0490 -0.1309
81903W        W24815  16.024  33.756  20.944  0.3473 -0.0175 -0.0010
81904W        W24816  18.618   0.147  16.032 -0.0564 -0.0799 -0.0814
81905W        W24817  16.047  32.457  15.948 -0.2020 -0.1122  0.4229
81906W        W24818  17.912  34.185  17.446  0.2197 -0.0251 -0.0456
81907W        W24819  17.230  33.688  16.401 -0.0035  0.0425  0.0518
81908W        W24820  16.038  33.424  18.676 -0.1165  0.3113  0.2843
81909W        W24821  15.895  33.447  16.208  0.2476 -0.1374  0.1338
81910W        W24822  16.460  34.459  17.144  0.1043  0.0366 -0.1736
81911W        W24823  16.412  32.730  18.402  0.0016 -0.0005  0.0578
81912W        W24824  15.416  33.621  16.590  0.1157  0.1243  0.1925
81913W        W24825  16.047   0.311  18.985 -0.2534  0.3346  0.3134
81914W        W24826  16.670  34.464  18.928 -0.2730  0.2167  0.0160
81915W        W24827  17.485  32.007  16.305  0.4975 -0.0990  0.0538
81916W        W24828  18.232  34.690  17.249 -0.0367  0.1111 -0.1207
81917W        W24829  18.812  33.783  16.983  0.1111 -0.0839  0.1674
81918W        W24830  16.422  33.808  18.654 -0.0245 -0.4479 -0.2948
81919W        W24831  19.018  34.682  17.144 -0.1622 -0.0193 -0.4573
81920W        W24832  14.828  32.140  19.443  0.0189 -0.1037 -0.2406
81921W        W24833  15.561  33.700  18.522 -0.1140 -0.1606 -0.2786
81922W        W24834  18.040  33.339  16.886  0.0710  0.0724 -0.1536
81923W        W24835  13.470  33.397  18.551 -0.3559 -0.0006  0.2965
81924W        W24836  18.136  32.024  17.179  0.1108 -0.1234  0.0029
81925W        W24837  18.257  33.135  16.459 -0.4164  0.2246  0.1420
81926W        W24838  14.378  34.362  18.800 -0.1829  0.0333 -0.1564
81927W        W24839  16.449  33.761  17.716  0.2403  0.1270  0.1985
81928W        W24840  16.591  33.635  18.252 -0.0457 -0.2688 -0.2376
81929W        W24841  15.490  33.196  18.851 -0.2110 -0.1336 -0.1550
81930W        W24842  18.056  34.622  18.644  0.1817  0.3405 -0.1494
81931W        W24843  15.175  32.743  15.675  0.0838  0.1532 -0.1373
81932W        W24844  18.595   0.238  17.474  0.1505 -0.1614  0.1335
81933W        W24845  16.160  34.647  17.653 -0.1324 -0.0648 -0.1171
81934W        W24846  17.319  33.794  20.446 -0.0127  0.2138 -0.0573
81935W        W24847  16.580  34.237  17.786 -0.3206  0.1993 -0.1506
81936W        W24848  15.012  32.629  16.199 -0.1830 -0.1634 -0.2078
81937W        W24849  16.743  33.654  16.149  0.0635 -0.0171  0.1295
81938W        W24850  16.531  34.299  19.397  0.3027  0.2597 -0.1648
81939W        W24851  17.394  33.646  17.905  0.3922 -0.3222 -0.0862
81940W        W24852  15.035  32.245  15.830  0.1328 -0.0799 -0.1187
81941W        W24853  15.834   0.626  17.623 -0.0436  0.1290 -0.3109
81942W        W24854  18.849  32.717  16.903  0.3024  0.2360 -0.3648
81943W        W24855  14.360  34.485  18.273 -0.0603  0.1800 -0.3159
81944W        W24856  16.400   1.010  19.690  0.0807  0.2637 -0.1222
81945W        W24857  15.607  34.218  16.678 -0.3066  0.3180  0.0477
81946W        W24858  16.933  33.543  17.549  0.1075 -0.1147 -0.4056
81947W        W24859  18.701  33.095  16.568 -0.3149 -0.3233  0.1894
81948W        W24860  17.128  34.189  16.230  0.3251 -0.0789 -0.3271
81949W        W24861  17.637  33.051  15.724 -0.0988  0.0791  0.1171
81950W        W24862  16.394  33.177  15.450  0.0296  0.0433 -0.0545
81951W        W24863  15.081  33.680  18.651 -0.2868 -0.0367  0.0779
81952W        W24864  15.910  33.365  15.575 -0.2023 -0.0881 -0.1779
81953W        W24865  17.917  32.856  16.607  0.1142  0.4909  0.1535
81954W        W24866  17.353  33.832  18.941 -0.1034  0.0300 -0.1618
81955W        W24867  17.017  33.462  18.743 -0.3321 -0.2877  0.1190
81956W        W24868  17.001  32.236  19.562 -0.1036 -0.2816  0.0692
81957W        W24869  18.474  33.867  18.840 -0.0888  0.2189  0.0236
81958W        W24870  17.469  34.168  15.922  0.0220  0.0285  0.1816
81959W        W24871  17.064  34.475  17.813 -0.1068 -0.1774 -0.3362
81960W        W24872  15.358  34.119  16.232  0.0705 -0.4906  0.2019
81961W        W24873  15.060  33.108  20.586  0.4324  0.0240  0.0334
81962W        W24874  14.763   0.159  19.997 -0.1085  0.2737  0.1489
81963W        W24875  16.201  34.554  16.136 -0.3989  0.0721  0.0890
81964W        W24876  16.281  33.428  16.879 -0.1578  0.1123 -0.2442
81965W        W24877  19.076  31.544  17.791 -0.4907 -0.0877  0.0052
81966W        W24878  15.512  33.103  16.301  0.2625  0.2065 -0.0383
81967W        W24879  15.161  33.278  18.351 -0.0704  0.3098  0.0154
81968W        W24880  17.160  32.775  16.842 -0.0516  0.0749  0.0301
81969W        W24881  14.581  33.710  18.535 -0.1390  0.1280  0.0061
81970W        W24882  17.212  33.045  17.703  0.1480  0.3144 -0.1551
81971W        W24883  17.950   1.226  19.855 -0.1614 -0.1351 -0.2399
81972W        W24884  18.078  34.098  16.167 -0.0788  0.0655  0.2192
81973W        W24885  15.974  34.052  18.727  0.1667 -0.3573 -0.5508
81974W        W24886  14.966   0.281  16.206 -0.4712  0.1747  0.0200
81975W        W24887  18.620  33.031  18.834  0.3117  0.1228  0.0483
81976W        W24888  18.108  33.829  17.078  0.1688  0.1667 -0.2261
81977W        W24889  16.416  33.306  16.430 -0.4545  0.0759  0.2419
81978W        W24890  14.261  33.814  19.515  0.0881  0.1760  0.3832
81979W        W24891  15.135  34.267  16.939 -0.2450  0.0725 -0.1602
81980W        W24892  15.335  32.455  17.267 -0.1420  0.4983  0.0329
81981W        W24893  17.618  34.171  19.312 -0.0388  0.2591 -0.1264
81982W        W24894  16.072  34.047  17.872  0.2170 -0.1314 -0.1197
81983W        W24895  17.281  33.010  18.355 -0.2360  0.0647 -0.1521
81984W        W24896  17.271  33.786  19.478  0.0428 -0.1373  0.1515
81985W        W24897  15.335  33.998  19.844 -0.0412 -0.0383 -0.1043
81986W        W24898  17.665  33.779  16.096  0.1391 -0.0326  0.3386
81987W        W24899  17.044  33.422  18.241  0.0668  0.0854 -0.0559
81988W        W24900  17.476  33.169  18.774  0.0648 -0.2165  0.4032
81989W        W24901  18.541  34.450  16.299  0.0475  0.0128 -0.1281
81990W        W24902  17.365  32.814  21.191 -0.1841  0.0123 -0.1217
81991W        W24903  15.261  34.212  18.194  0.2373  0.3133 -0.0525
81992W        W24904  15.184  34.094  17.419  0.1633 -0.0436  0.3191
81993W        W24905  15.009  33.254  19.302  0.0805  0.1489 -0.1823
81994W        W24906  17.927  32.859  17.232  0.5223 -0.3289  0.3426
81995W        W24907  16.403  31.611  15.842 -0.0251  0.1483 -0.4150
81996W        W24908  15.848  34.603  18.754  0.0333  0.0473 -0.0438
81997W        W24909  19.308  33.952  16.504  0.0620 -0.0245 -0.0089
81998W        W24910  16.376  34.630  18.145 -0.4337 -0.0784  0.1563
81999W        W24911  17.621  34.574  17.359  0.0079  0.2153 -0.1176
82000W        W24912  15.671  33.834  19.502 -0.2853  0.2419  0.4244
82001W        W24913  17.270  34.063  17.623  0.0346 -0.2732 -0.1621
82002W        W24914  16.387  32.829  18.947 -0.0403 -0.2371  0.0485
82003W        W24915  18.842   0.655  19.367  0.2279  0.0435  0.1146
82004W        W24916  15.588  33.775  17.940 -0.0195  0.0085  0.0894
82005W        W24917  13.999  33.402  18.780 -0.0756  0.0894 -0.1704
82006W        W24918  17.932  34.014  15.709  0.2288 -0.0803 -0.0384
82007W        W24919  17.739  34.038  18.747  0.0029 -0.0303  0.0917
82008W        W24920  17.950  34.368  16.905 -0.3821 -0.2582  0.1218
82009W        W24921  17.200  33.723  15.890  0.3129 -0.1933  0.0805
82010W        W24922  15.803  33.589  19.083 -0.0281  0.1854 -0.0606
82011W        W24923  17.883  34.533  19.447  0.1624 -0.0939  0.0642
82012W        W24924  16.488  34.331  15.827 -0.3198 -0.4424 -0.1248
82013W        W24925  17.164   0.072  18.632 -0.1314  0.0374  0.2553
82014W        W24926  17.581  33.119  16.952 -0.2022 -0.1490 -0.1616
82015W        W24927  14.649  32.670  17.843  0.1424  0.1283 -0.3268
82016W        W24928  14.865  33.565  16.084  0.0885  0.1427 -0.0874
82017W        W24929  16.596   0.558  15.461  0.2675 -0.0709  0.1880
82018W        W24930  16.346  32.792  15.786 -0.2855  0.3718  0.0869
82019W        W24931  18.165  34.035  18.442 -0.1948 -0.2911  0.0226
82020W        W24932  17.479  34.113  17.161  0.0729 -0.0180  0.2909
82021W        W24933  16.061  32.357  20.689  0.1694 -0.0028  0.3023
82022W        W24934  16.849  34.023  17.343  0.0941 -0.3726  0.2844
82023W        W24935  17.060   0.609  18.094 -0.1938  0.3445 -0.1201
82024W        W24936  17.984  33.106  20.369 -0.2607  0.0035 -0.2421
82025W        W24937  17.106   0.477  17.112  0.0447  0.1021  0.5725
82026W        W24938  15.161  34.694  18.688  0.0641  0.0658  0.0625
82027W        W24939  16.402  33.970  16.969  0.0822 -0.2352  0.0467
82028W        W24940  16.332  33.325  15.920  0.0148  0.1332  0.1937
82029W        W24941  17.719  34.544  16.062  0.1468 -0.0100 -0.0095
82030W        W24942  19.138  33.499  18.042 -0.1288  0.2603  0.1964
82031W        W24943  18.201  34.086  17.829  0.3018  0.1248  0.0281
82032W        W24944  15.982  33.004  17.464  0.1034 -0.2021 -0.3559
82033W        W24945  14.751  34.284  17.239 -0.0245  0.1965 -0.1228
82034W        W24946  15.544   0.488  18.057 -0.1939 -0.1404  0.1531
82035W        W24947  18.484  33.124  19.377 -0.2932  0.1043  0.1185
82036W        W24948  15.606  34.658  16.833 -0.2029 -0.3269  0.0465
82037W        W24949  17.493   0.511  16.808 -0.0105  0.0107  0.1348
82038W        W24950  17.731  33.039  18.081  0.0850  0.0821  0.2848
82039W        W24951  17.761  31.782  18.067 -0.2244  0.0372 -0.1777
82040W        W24952  14.471  34.494  17.796 -0.2377 -0.3986  0.0515
82041W        W24953  18.480  33.857  17.468  0.2006  0.0216 -0.0210
82042W        W24954  17.031   0.883  19.622  0.2102 -0.0171  0.3236
82043W        W24955  17.670  32.639  18.352 -0.0169 -0.3379  0.0042
82044W        W24956  16.169  34.126  17.388  0.0652 -0.0177  0.1075
82045W        W24957  18.831  33.930  17.845  0.2003  0.0257  0.0160
82046W        W24958  15.275  33.726  19.242  0.1016 -0.3657  0.0429
82047W        W24959  16.958  33.883  17.998  0.0180  0.1197 -0.3709
82048W        W24960  18.327   0.359  18.533  0.1299 -0.1164  0.0178
82049W        W24961  17.055  34.603  16.504 -0.1991  0.0401 -0.3155
82050W        W24962  15.471  33.065  17.330 -0.1491  0.0215  0.1508
82051W        W24963  17.427  33.338  16.088  0.0017  0.2533 -0.2245
82052W        W24964  16.171   1.162  16.928  0.2056  0.0260 -0.2171
82053W        W24965  16.305  34.361  18.657 -0.0583 -0.1440 -0.1165
82054W        W24966  15.466  32.681  16.053 -0.0619  0.3399  0.2850
82055W        W24967  18.649  34.044  18.296 -0.4564 -0.1988 -0.2860
82056W        W24968  17.596   0.653  18.158 -0.0073  0.1364  0.0358
82057W        W24969  15.999   1.233  17.431  0.0818  0.0463 -0.0082
82058W        W24970  17.598  33.198  17.426  0.0252 -0.1516 -0.2549
82059W        W24971  16.909  34.299  16.911  0.2647  0.0654 -0.0494
82060W        W24972  17.434  33.622  18.467  0.1807 -0.1446  0.0717
82061W        W24973  18.227  33.006  18.227  0.0441 -0.3966 -0.0362
82062W        W24974  17.146  32.766  19.590 -0.2243 -0.1079 -0.0603
82063W        W24975  16.330  33.413  19.121  0.0419  0.0835 -0.0508
82064W        W24976  16.320  33.753  16.447 -0.1499 -0.1301  0.1989
82065W        W24977  18.481  34.261  17.165 -0.0063  0.1526 -0.1547
82066W        W24978  18.377  31.444  15.571 -0.0506  0.2889 -0.2733
82067W        W24979  16.196  34.539  19.123  0.2099 -0.1658  0.0803
82068W        W24980  14.691   0.721  16.042 -0.0835 -0.1561 -0.1026
82069W        W24981  15.727  32.151  19.205 -0.3855 -0.0258 -0.2200
82070W        W24982  14.392  34.693  19.689  0.0202 -0.1874 -0.0530
82071W        W24983  16.736   0.171  17.064  0.1909 -0.3038 -0.0720
82072W        W24984  15.812  32.667  16.386 -0.0493  0.0187  0.4331
82073W        W24985  16.727  33.606  17.089 -0.0307  0.1504 -0.1932
82074W        W24986  13.020  33.227  17.417 -0.2021  0.1110  0.0857
82075W        W24987  17.390  32.906  16.455 -0.0796  0.0341 -0.2628
82076W        W24988  16.236  33.091  19.986  0.0629  0.0669 -0.0962
82077W        W24989  15.122  31.841  18.062 -0.1714  0.1968  0.0996
82078W        W24990  14.951  33.438  16.741 -0.3996  0.2099 -0.2285
82079W        W24991  16.190  33.742  19.933 -0.0491 -0.0042 -0.0431
82080W        W24992  14.401  33.151  18.690 -0.1168  0.0071 -0.1316
82081W        W24993  18.199  32.491  17.508 -0.0053  0.1280  0.0460
82082W        W24994  17.175   0.370  16.306  0.0720 -0.0485  0.0696
82083W        W24995  13.885  33.096  19.165  0.0321 -0.1916 -0.0642
82084W        W24996  15.437  32.322  17.979  0.2098 -0.2989  0.2868
82085W        W24997  17.915  33.485  18.044  0.0278  0.0172 -0.0366
82086W        W24998  15.054  34.456  17.785 -0.4365 -0.0090  0.0392
82087W        W24999  17.205  33.988  15.484  0.0483 -0.3249  0.1231
82088W        W25000  18.575   0.985  19.047  0.0170  0.0390  0.5255
82089W        W25001  15.464   0.203  16.320 -0.2300  0.0994 -0.1615
82090W        W25002  19.251  34.457  15.517 -0.4406  0.2769 -0.0140
82091W        W25003  16.743  32.939  18.121 -0.3977 -0.1653  0.0359
82092W        W25004  14.825   0.116  16.801 -0.0605 -0.1188 -0.2109
82093W        W25005  15.654  34.155  17.241  0.1112 -0.1591 -0.1135
82094W        W25006  17.361  34.133  18.355  0.0707 -0.0345  0.2895
82095W        W25007  16.416  32.870  17.740 -0.1152 -0.1218 -0.1131
82096W        W25008  18.033  33.746  16.515 -0.0814 -0.0535  0.3096
82097W        W25009  15.714  33.052  21.786 -0.2940  0.0276  0.2531
82098W        W25010  17.936  32.950  19.055 -0.1361 -0.1193 -0.0380
82099W        W25011  17.785  34.487  20.749  0.0788  0.0721  0.0920
82100W        W25012  14.859  33.327  21.996  0.1394 -0.0631 -0.0697
82101W        W25013  14.189  32.532  24.735  0.1126  0.1727 -0.0697
82102W        W25014  17.269   0.037  20.034  0.0993 -0.1673 -0.0490
82103W        W25015  16.470   0.140  23.735 -0.0126 -0.2276  0.1215
82104W        W25016  16.361  32.209  20.253  0.1855  0.0281  0.1173
82105W        W25017  14.656  31.181  22.442 -0.1887 -0.0088  0.3378
82106W        W25018  16.986  33.670  21.973  0.2844  0.0107 -0.0566
82107W        W25019  13.913  34.618  19.740  0.2021  0.1325 -0.0833
82108W        W25020  16.451  34.012  22.348 -0.0660  0.2619  0.0707
82109W        W25021  14.697  34.413  20.092 -0.2717  0.1973 -0.1232
82110W        W25022  16.606  34.569  22.832 -0.2527 -0.1060 -0.0055
82111W        W25023  16.600  32.944  22.398 -0.0373  0.1550  0.0988
82112W        W25024  14.701  32.903  20.232  0.1467 -0.3286 -0.0341
82113W        W25025  15.101  34.207  21.420 -0.2858  0.0384 -0.0805
82114W        W25026  17.171   1.429  21.632 -0.0421 -0.0920 -0.0930
82115W        W25027  16.002  31.998  22.201  0.0372 -0.3197  0.0451
82116W        W25028  18.091   0.394  20.491  0.1300 -0.2719  0.0369
82117W        W25029  16.874  34.211  23.239  0.0430  0.0693 -0.3191
82118W        W25030  16.413  33.369  22.153  0.1967 -0.0112 -0.1524
82119W        W25031  15.606  34.699  20.424 -0.2345  0.4764  0.1260
82120W        W25032  18.633  33.373  21.835 -0.1415  0.0248  0.0782
82121W        W25033  17.841  34.379  18.251 -0.2560 -0.3104 -0.0655
82122W        W25034  14.846  33.451  20.189 -0.0564  0.2927 -0.0492
82123W        W25035  17.764  33.565  18.953 -0.3178  0.1748  0.3553
82124W        W25036  15.832  32.331  21.230  0.3427 -0.0695 -0.1250
82125W        W25037  15.652  34.196  21.190 -0.0700  0.0505 -0.0279
82126W        W25038  16.864  33.521  19.201  0.4130  0.0725 -0.0847
82127W        W25039  16.033  32.972  22.136 -0.3598  0.1984 -0.1006
82128W        W25040  15.326  33.656  20.289 -0.0087 -0.0725  0.1095
82129W        W25041  14.096  34.033  20.441 -0.0424 -0.1334  0.2279
82130W        W25042  14.121  34.277  21.879 -0.2875  0.0199 -0.0506
82131W        W25043  14.638   1.737  22.505  0.1560  0.1108  0.0872
82132W        W25044  16.304  33.472  20.362  0.1921 -0.0264  0.1590
82133W        W25045  17.834  33.024  21.422 -0.1035  0.1411 -0.1030
82134W        W25046  16.688  30.924  20.933  0.1307  0.1572 -0.1471
82135W        W25047  16.455  31.965  20.637  0.0652  0.0439 -0.1381
82136W        W25048  18.641  34.275  19.169 -0.1876 -0.2841  0.1830
82137W        W25049  15.341  33.860  22.436  0.3227 -0.0683  0.0311
82138W        W25050  15.267  31.934  23.110  0.0742 -0.0342 -0.0822
82139W        W25051  17.134  34.185  20.703 -0.0092 -0.2879 -0.4110
82140W        W25052  16.516  31.749  22.049  0.1147  0.1913 -0.3136
82141W        W25053  17.664  31.512  22.434 -0.0322  0.1598  0.1182
82142W        W25054  18.147  34.389  19.055  0.3296 -0.1250  0.0200
82143W        W25055  13.819  33.770  22.832  0.5850  0.1477  0.0828
82144W        W25056  15.205  33.279  21.075 -0.1410  0.0874 -0.1152
82145W        W25057  14.971  31.958  24.412  0.3706  0.2396  0.2947
82146W        W25058  15.489  33.760  21.868  0.2654  0.3153  0.2916
82147W        W25059  16.670   0.264  22.161 -0.0138 -0.0576  0.2011
82148W        W25060  15.278  33.103  20.122 -0.0852 -0.1816 -0.0014
82149W        W25061  16.853  32.951  21.374 -0.5125 -0.1939 -0.0002
82150W        W25062  15.958  34.594  21.404 -0.0789  0.4235 -0.1800
82151W        W25063  17.629  34.327  21.564 -0.0419  0.0645  0.0084
82152W        W25064  16.652  34.068  22.805 -0.2271 -0.0464  0.2031
82153W        W25065  14.194  32.772  21.836  0.3498  0.3085 -0.1109
82154W        W25066  15.719  32.719  19.453 -0.1051 -0.0126  0.0602
82155W        W25067  15.809   0.173  22.546 -0.0694  0.0423  0.0057
82156W        W25068  17.562  34.235  20.339 -0.1774 -0.1870  0.0096
82157W        W25069  14.595  32.843  20.946 -0.2110  0.1195  0.0216
82158W        W25070  13.832   0.361  20.614  0.2296  0.3379 -0.1301
82159W        W25071  18.052   0.187  21.930  0.2078 -0.1421  0.1367
82160W        W25072  13.328  34.006  24.254  0.1684 -0.1575 -0.0455
82161W        W25073  15.873  33.848  23.279  0.1434 -0.2724  0.0014
82162W        W25074  17.063  34.168  20.196 -0.3007  0.3404  0.0322
82163W        W25075  16.975  32.460  21.406  0.0378  0.1703 -0.0031
82164W        W25076  18.884  33.655  18.540 -0.0044  0.2498  0.1503
82165W        W25077  15.805  32.888  20.002  0.2588 -0.1088  0.3588
82166W        W25078  17.386  32.906  20.535 -0.0715 -0.1968 -0.4802
82167W        W25079  16.271  32.943  19.518  0.0728 -0.0787  0.0489
82168W        W25080  16.170  31.119  22.578  0.0764 -0.0885 -0.2546
82169W        W25081  16.643   0.516  19.559  0.0274 -0.1547  0.1324
82170W        W25082  16.946  31.926  20.671 -0.1557 -0.1432  0.1999
82171W        W25083  17.685  33.584  22.281 -0.0862 -0.2343 -0.0888
82172W        W25084  18.323  32.548  21.471  0.0229  0.3158 -0.0076
82173W        W25085  17.468  31.929  21.674 -0.0782 -0.1961 -0.1347
82174W        W25086  16.312   0.132  22.521 -0.1598  0.1353 -0.0741
82175W        W25087  16.486  33.439  20.941  0.2625 -0.2824  0.2956
82176W        W25088  16.844  34.610  21.756  0.0717 -0.1982 -0.2462
82177W        W25089  13.682   0.361  19.033 -0.1476  0.3675 -0.1087
82178W        W25090  14.884  33.248  24.413  0.0024  0.1123  0.0817
82179W        W25091  15.270  33.554  24.040  0.0093 -0.3513 -0.0310
82180W        W25092  16.043  31.759  21.794 -0.1620  0.2472  0.0073
82181W        W25093  16.224  33.638  22.652  0.0109  0.1174 -0.2641
82182W        W25094  16.954  31.417  21.738  0.1221  0.0358 -0.0025
82183W        W25095  15.468  34.623  20.882  0.0089 -0.0629  0.3150
82184W        W25096  14.213  34.324  19.992 -0.1307 -0.0798 -0.0502
82185W        W25097  17.317  32.451  20.850  0.0396 -0.0369 -0.0405
82186W        W25098  15.972  33.498  21.936  0.2826 -0.5037  0.1237
82187W        W25099  16.586  32.432  22.492 -0.0005 -0.0101 -0.1521
82188W        W25100  16.236   0.027  21.872  0.0363 -0.4084 -0.2194
82189W        W25101  17.599  33.027  19.700 -0.2635 -0.2447 -0.1647
82190W        W25102  15.005  34.293  22.282  0.0068  0.2004  0.1234
82191W        W25103  13.229  33.157  19.875  0.2186 -0.1495 -0.1896
82192W        W25104  17.301   0.461  20.989  0.4346  0.1669  0.0251
82193W        W25105  16.886  32.889  20.905  0.1216  0.2421 -0.4638
82194W        W25106  15.610  34.137  19.135  0.1391  0.1125  0.0454
82195W        W25107  14.300  33.077  24.233  0.1447 -0.0558 -0.1290
82196W        W25108  15.515  34.195  20.329  0.0306 -0.2108 -0.1689
82197W        W25109  16.316  32.519  21.289 -0.1333  0.2236  0.0061
82198W        W25110  16.620  34.089  20.673  0.0498  0.2567 -0.1800
82199W        W25111  17.011  34.018  22.357  0.1134 -0.3488 -0.0809
82200W        W25112  15.032  31.630  21.041 -0.1846  0.1882  0.1442
82201W        W25113  15.681  34.336  22.720  0.1376  0.2863 -0.1317
82202W        W25114  15.794  32.550  22.110 -0.3493 -0.0608  0.0714
82203W        W25115  17.131  33.315  20.722 -0.1147  0.3055 -0.4812
82204W        W25116  16.062  33.324  21.408  0.0744 -0.4040  0.0681
82205W        W25117  19.171   0.234  23.015  0.3160  0.2020 -0.1220
82206W        W25118  17.356  34.522  19.588  0.0017 -0.3041  0.1210
82207W        W25119  17.574  33.269  23.607  0.3649 -0.1349 -0.0956
82208W        W25120  16.685  33.713  23.713 -0.0040  0.0509 -0.0401
82209W        W25121  15.049  33.797  22.040  0.0222 -0.2112  0.0531
82210W        W25122  14.482  33.530  23.362 -0.0695 -0.1841 -0.1602
82211W        W25123  17.083  33.423  21.290  0.2207  0.1298  0.1790
82212W        W25124  13.783  33.641  19.205 -0.0610  0.2346 -0.3365
82213W        W25125  16.134   0.449  22.192 -0.1440  0.1769 -0.0528
82214W        W25126  16.637  34.565  20.652 -0.1129 -0.2291 -0.1213
82215W        W25127  15.574   0.856  20.800  0.1429 -0.0926  0.3138
82216W        W25128  17.478   1.057  19.948  0.2392 -0.0387 -0.1498
82217W        W25129  16.893  31.567  22.724 -0.1602 -0.1214  0.1477
82218W        W25130  15.831  34.240  20.702  0.2156  0.1050 -0.2008
82219W        W25131  17.093  31.761  22.139 -0.2239  0.2444  0.1624
82220W        W25132  16.197  34.228  21.907  0.3320 -0.1330  0.0385
82221W        W25133  16.343   0.332  24.561  0.0559 -0.0747 -0.0468
82222W        W25134  14.427  33.090  22.781  0.2605 -0.0353  0.0183
82223W        W25135  18.943   0.068  19.164  0.2373  0.4369 -0.0061
82224W        W25136  19.334  33.086  21.448  0.2257  0.3740  0.3968
82225W        W25137  16.470  33.770  21.770 -0.0494 -0.0528  0.1332
82226W        W25138  17.966  33.374  19.927  0.1609  0.0943  0.0914
82227W        W25139  15.424  33.418  22.183  0.2085  0.2890  0.3168
82228W        W25140  16.360   0.578  23.552  0.0279 -0.1444 -0.2045
82229W        W25141  16.657  32.409  18.774 -0.0808 -0.1596 -0.0063
82230W        W25142  16.171  32.929  24.468 -0.1806 -0.0172 -0.0420
82231W        W25143  16.522  33.429  19.691  0.3581  0.1568 -0.1625
82232W        W25144  16.030  31.025  21.291  0.0034 -0.0648  0.2664
82233W        W25145  15.285  34.079  20.908 -0.1688 -0.1384 -0.0505
82234W        W25146  16.896  34.385  19.766  0.0817 -0.2652 -0.1851
82235W        W25147  16.677  33.805  20.087 -0.2884  0.1513 -0.3505
82236W        W25148  17.430   0.121  23.457  0.0092  0.2746  0.0435
82237W        W25149  16.113  32.597  22.529  0.0646  0.1429  0.1334
82238W        W25150  16.154  33.071  22.690  0.2510  0.3361 -0.1047
82239W        W25151  16.544  33.372  21.465 -0.0216 -0.1386  0.1738
82240W        W25152  16.793  33.492  22.433 -0.2954 -0.1998  0.0620
82241W        W25153  18.794   0.484  22.511 -0.1166 -0.0499 -0.0114
82242W        W25154  13.660  33.936  21.195  0.3038  0.0483 -0.1792
82243W        W25155  14.341   0.340  23.604  0.3501  0.1575  0.1538
82244W        W25156  15.519  32.572  21.664 -0.0111 -0.1706  0.0996
82245W        W25157  15.939  34.633  19.942  0.1826  0.0289 -0.0842
82246W        W25158  16.911  32.916  20.411  0.0172 -0.1884  0.3001
82247W        W25159  17.067  33.265  19.618 -0.3291  0.5182  0.3166
82248W        W25160  16.943  33.783  20.973  0.2707  0.1024 -0.0080
82249W        W25161  15.738  34.217  21.701 -0.0619  0.0712  0.1393
82250W        W25162  15.597  32.981  21.267  0.0623 -0.0992 -0.2976
82251W        W25163  15.033   0.271  21.692  0.0149 -0.0787  0.1301
82252W        W25164  17.556  34.040  22.389 -0.1354  0.1538 -0.0222
82253W        W25165  15.714  33.576  19.964 -0.0722 -0.0664  0.2065
82254W        W25166  16.092   0.597  22.713 -0.0966 -0.1411 -0.0489
82255W        W25167  17.547  33.202  21.058 -0.0437 -0.0616 -0.0158
82256W        W25168  16.313  32.995  21.145 -0.2824  0.0229  0.1582
82257W        W25169  14.804   0.492  20.496  0.0606 -0.2781 -0.0697
82258W        W25170  18.266  33.674  21.580  0.2766 -0.0233  0.2390
82259W        W25171  15.676  34.376  23.276  0.4873  0.0913  0.2557
82260W        W25172  18.828  33.852  20.055 -0.1448  0.2473  0.0144
82261W        W25173  14.340  33.231  21.708  0.2365 -0.2392 -0.1235
82262W        W25174  15.522  33.578  20.860 -0.2353 -0.0333  0.0651
82263W        W25175  14.923   0.152  22.228  0.2469  0.1538 -0.2267
82264W        W25176  17.156  33.716  19.957 -0.0186  0.4593  0.2603
82265W        W25177  17.119  34.696  22.253 -0.1386  0.0155 -0.2901
82266W        W25178  18.347  33.620  19.488  0.1021 -0.0339 -0.0055
82267W        W25179  15.884  34.130  19.981 -0.0675 -0.0579 -0.2114
82268W        W25180  17.429  33.369  19.259 -0.0713 -0.1136  0.1398
82269W        W25181  16.012  33.885  21.430  0.0505 -0.2344  0.1155
82270W        W25182  16.193  34.120  23.002  0.0753  0.3347  0.0638
82271W        W25183  13.619  32.408  22.021  0.2151  0.3126  0.1100
82272W        W25184  17.264  33.228  22.166 -0.0672 -0.1466 -0.1825
82273W        W25185  18.149   0.825  20.709 -0.3888  0.0667  0.1524
82274W        W25186  14.753  34.042  20.927 -0.1491  0.0910  0.1057
82275W        W25187  16.980  32.619  22.266  0.2940 -0.0148  0.0898
82276W        W25188  15.585  33.588  21.381  0.0670 -0.1258 -0.1112
82277W        W25189  17.250  34.155  21.813 -0.2055 -0.2115  0.1061
82278W        W25190  16.500  32.286  21.668 -0.1884  0.1891 -0.2545
82279W        W25191  17.043  34.404  22.709 -0.1038 -0.1459  0.2218
82280W        W25192  15.572  32.993  20.779 -0.1926 -0.1156 -0.2935
82281W        W25193  15.971  32.768  21.473 -0.4717 -0.2161  0.1641
82282W        W25194  17.903  32.925  20.806  0.2341 -0.0491 -0.0733
82283W        W25195  17.813  32.105  21.018 -0.0751  0.0701  0.0113
82284W        W25196  14.029  32.941  22.511 -0.2803  0.0671  0.0864
82285W        W25197  14.635  34.140  19.645 -0.0556 -0.2399 -0.1224
82286W        W25198  15.751  32.746  24.272 -0.0842 -0.0142 -0.2432
82287W        W25199  14.115  33.869  24.140  0.0681 -0.1473  0.0575
82288W        W25200  14.453  34.297  20.555  0.1140  0.0994 -0.0382
82289W        W25201  15.552  32.098  21.859 -0.1211  0.0635  0.1166
82290W        W25202  15.850  33.249  20.345  0.0329  0.2245  0.2369
82291W        W25203  14.059  33.487  21.293 -0.1014  0.1135  0.1446
82292W        W25204  15.581  32.423  20.007  0.1226 -0.3590  0.3527
82293W        W25205  15.028  33.704  22.900  0.1244 -0.1365 -0.0112
82294W        W25206  15.185  33.156  23.599 -0.0225 -0.0884 -0.2344
82295W        W25207  13.346  33.683  18.924 -0.3511 -0.1234  0.2085
82296W        W25208  16.829  33.180  21.868 -0.1448 -0.4000  0.0099
82297W        W25209  15.465  33.206  23.211 -0.2329 -0.1284 -0.1749
82298W        W25210  17.241  32.800  21.796  0.0317 -0.2841  0.0843
82299W        W25211  16.248  33.839  19.447 -0.0099  0.1773 -0.2688
82300W        W25212  13.915  32.810  23.973  0.2050  0.1688 -0.0323
82301W        W25213  14.492  32.451  20.184 -0.0979  0.0130  0.1758
82302W        W25214  16.004  33.246  20.868  0.0697 -0.1133 -0.3167
82303W        W25215  14.732  33.615  21.648 -0.0950  0.3544 -0.3778
82304W        W25216  14.659  33.281  20.715 -0.0339  0.2800 -0.0175
82305W        W25217  16.403  34.559  23.331  0.2096 -0.0601  0.2671
82306W        W25218  16.215  34.561  20.373  0.0542 -0.1264 -0.0988
82307W        W25219  17.491  34.082  19.849 -0.2581  0.1385 -0.0944
82308W        W25220  15.011  33.747  21.292  0.0356  0.2065 -0.0515
82309W        W25221  15.073  34.133  19.437 -0.3412  0.1379  0.3556
82310W        W25222  15.786  33.800  20.474  0.4381  0.1478  0.0466
82311W        W25223  17.270  33.940  22.900 -0.0416 -0.0259 -0.0929
82312W        W25224  16.508  31.191  21.336  0.3221 -0.1088  0.1221
82313W        W25225  18.220  32.355  20.376  0.1739  0.2377  0.2470
82314W        W25226  14.845  34.198  25.544  0.0427  0.2942 -0.1634
82315W        W25227  16.171  32.539  23.008  0.0743 -0.3472  0.1686
82316W        W25228  18.786  33.951  23.579 -0.0014 -0.1647  0.3882
82317W        W25229  14.697   0.043  25.608 -0.1435  0.1484  0.0312
82318W        W25230  15.139  34.250  27.488  0.1461  0.0694 -0.0705
82319W        W25231  16.931   0.663  25.049 -0.1958  0.0872 -0.0856
82320W        W25232  16.993  33.239  25.565  0.1821  0.2783 -0.2082
82321W        W25233  15.813  33.314  24.454  0.0089 -0.1659  0.0287
82322W        W25234  13.651  33.145  26.154 -0.2557 -0.0935 -0.0917
82323W        W25235  16.978   0.978  25.384 -0.1456  0.0533 -0.1669
82324W        W25236  14.550  34.372  24.855  0.0817  0.3223 -0.0814
82325W        W25237  15.626   1.644  26.357 -0.1786 -0.0613  0.1762
82326W        W25238  15.231  34.536  25.780 -0.0112  0.1057  0.2145
82327W        W25239  15.806  34.395  26.642  0.0570 -0.1048 -0.0712
82328W        W25240  17.107  33.063  27.269 -0.3305 -0.2212 -0.2167
82329W        W25241  15.973  34.583  23.665 -0.0316  0.0779  0.1054
82330W        W25242  15.407  34.500  26.265  0.3098  0.2542  0.1320
82331W        W25243  14.648   0.101  26.434  0.0542 -0.1112  0.1971
82332W        W25244  16.301  34.071  23.474  0.2452  0.3386 -0.2265
82333W        W25245  16.901   0.805  24.495  0.1545  0.0418  0.1706
82334W        W25246  16.566  33.718  26.006  0.1334 -0.2720  0.0971
82335W        W25247  16.409  33.771  28.190  0.1814 -0.0403  0.1725
82336W        W25248  14.812   1.057  24.611  0.0566 -0.2581  0.3067
82337W        W25249  18.981  33.312  26.695  0.1325  0.1113 -0.1676
82338W        W25250  17.875   0.603  22.568 -0.1347  0.0383 -0.3420
82339W        W25251  16.085  34.448  22.349  0.2762 -0.2479 -0.4020
82340W        W25252  16.442  34.065  25.589 -0.1098  0.2718  0.2499
82341W        W25253  15.106  32.923  25.642  0.0723  0.2504  0.0934
82342W        W25254  13.942  33.780  27.243 -0.0240 -0.2154 -0.0068
82343W        W25255  15.143  33.292  25.308  0.0234  0.0205 -0.0297
82344W        W25256  16.986  33.804  27.035 -0.1274 -0.0484  0.2483
82345W        W25257  16.506   0.081  25.397  0.2310  0.5453  0.1747
82346W        W25258  16.057   1.223  25.969  0.0454  0.1077 -0.1682
82347W        W25259  14.986   0.262  28.268 -0.0842  0.2709  0.1832
82348W        W25260  12.700   0.136  26.279  0.0264  0.0635 -0.0348
82349W        W25261  14.592  32.591  23.079 -0.0869  0.0581  0.2025
82350W        W25262  16.433  34.585  24.929 -0.0364 -0.0131 -0.0657
82351W        W25263  17.778  33.424  24.519  0.1798  0.0107  0.1552
82352W        W25264  15.341  31.675  27.897  0.0200 -0.1809  0.1510
82353W        W25265  19.233  33.913  22.938 -0.2137 -0.0107 -0.1003
82354W        W25266  17.194  33.345  27.703 -0.0767  0.2363  0.1593
82355W        W25267  13.190  32.473  24.835 -0.0367  0.0158  0.2893
82356W        W25268  16.856  34.210  25.250  0.1592 -0.1188 -0.2261
82357W        W25269  14.162  33.469  26.267 -0.0879 -0.2648  0.0655
82358W        W25270  17.619  33.070  24.890 -0.1300  0.1064  0.1629
82359W        W25271  18.377   0.713  22.534 -0.0399 -0.0727 -0.2763
82360W        W25272  14.392  34.204  25.784  0.2307  0.1766 -0.2489
82361W        W25273  14.074  33.038  25.082 -0.2673 -0.0500  0.0635
82362W        W25274  15.222  33.672  26.444 -0.4935  0.0735  0.2196
82363W        W25275  14.075  33.781  25.896  0.2443 -0.0358 -0.1830
82364W        W25276  16.813  34.463  25.706  0.1013 -0.2176  0.1932
82365W        W25277  14.037  33.180  25.793  0.1514  0.1437  0.2075
82366W        W25278  15.911  34.637  25.188  0.3500 -0.3502  0.1598
82367W        W25279  15.592   0.815  25.268 -0.0545  0.2225 -0.3438
82368W        W25280  17.023   0.286  26.424  0.1032  0.1933 -0.1347
82369W        W25281  14.762  33.461  26.136  0.0360 -0.1089 -0.0831
82370W        W25282  16.026  33.134  24.959  0.1564 -0.0535  0.0742
82371W        W25283  17.066  33.747  25.256  0.0545 -0.0526  0.2062
82372W        W25284  16.420  32.290  27.310 -0.1803 -0.2396 -0.0583
82373W        W25285  16.776  34.618  26.225  0.1425 -0.1569  0.0665
82374W        W25286  14.989  34.066  24.662 -0.0445 -0.1991  0.0640
82375W        W25287  14.943   0.176  26.066  0.1809 -0.0152 -0.1043
82376W        W25288  17.602  33.635  26.721 -0.2409 -0.0884  0.1756
82377W        W25289  13.753  34.553  27.596  0.0910  0.3923 -0.1955
82378W        W25290  16.746  33.874  28.573  0.2991 -0.1579  0.0296
82379W        W25291  15.580  34.145  24.514  0.4688 -0.0509  0.1900
82380W        W25292  16.113  33.569  25.350  0.2417  0.0021 -0.0051
82381W        W25293  16.884   0.307  22.624 -0.1428 -0.1263  0.0799
82382W        W25294  17.003  33.679  24.628 -0.0007  0.1556  0.1493
82383W        W25295  16.502  33.446  23.339 -0.4874 -0.0098 -0.3717
82384W        W25296  16.195  33.842  24.001 -0.0480 -0.0901 -0.0908
82385W        W25297  14.436  32.526  26.513  0.0731 -0.0867  0.1522
82386W        W25298  13.966  32.950  23.498  0.0976 -0.0158  0.0211
82387W        W25299  17.305  33.213  24.445 -0.2471 -0.3107  0.3145
82388W        W25300  17.807  33.923  24.737  0.0708 -0.0613 -0.0096
82389W        W25301  17.113  32.457  27.405  0.0640  0.1704 -0.4281
82390W        W25302  15.384  32.739  28.275  0.1630  0.2593 -0.1164
82391W        W25303  15.980  34.193  27.529 -0.0262  0.1804  0.0255
82392W        W25304  17.021  34.294  24.392 -0.0045 -0.3053  0.0738
82393W        W25305  16.287   1.859  25.043  0.0602  0.1403  0.1367
82394W        W25306  15.822  33.093  23.573  0.0404 -0.0584 -0.0193
82395W        W25307  16.289  32.766  25.158  0.3509  0.2372  0.1476
82396W        W25308  16.127  32.744  27.282 -0.3106 -0.1717  0.0354
82397W        W25309  15.214  32.264  25.412  0.0333  0.4381  0.1103
82398W        W25310  15.297  33.215  25.978 -0.2617  0.0707  0.0654
82399W        W25311  17.051  33.623  26.001  0.0574  0.2404  0.1217
82400W        W25312  16.300   0.094  25.936 -0.2158 -0.2217 -0.0614
82401W        W25313  15.167  34.547  24.506  0.1104 -0.0472  0.1862
82402W        W25314  17.331   0.611  24.641 -0.1975 -0.2749  0.3844
82403W        W25315  13.929   0.350  25.770 -0.0775  0.1915 -0.2255
82404W        W25316  15.576  33.364  26.374 -0.1021  0.1120  0.1233
82405W        W25317  17.352  34.578  26.552 -0.2446 -0.0269 -0.2618
82406W        W25318  18.202  33.092  23.472  0.2463 -0.2205 -0.2441
82407W        W25319  16.630   0.434  26.138 -0.1794  0.0468  0.0065
82408W        W25320  15.193  34.017  24.162 -0.1505 -0.3068  0.1109
82409W        W25321  16.869  34.066  26.250 -0.1762 -0.1641 -0.1585
82410W        W25322  15.501  33.296  24.853  0.3508  0.1272 -0.0381
82411W        W25323  16.087   0.132  24.152  0.0774 -0.0487 -0.3849
82412W        W25324  16.935   0.239  27.515 -0.1081  0.0160  0.0563
82413W        W25325  15.570  33.606  25.299  0.0028  0.1242 -0.0211
82414W        W25326  14.869  34.167  26.499 -0.0258  0.3332 -0.2352
82415W        W25327  15.599  33.847  26.039  0.1670 -0.1650 -0.1170
82416W        W25328  16.603  33.652  25.451 -0.0328  0.3355 -0.2012
82417W        W25329  15.752  33.002  26.159  0.0605 -0.0633 -0.2445
82418W        W25330  16.790   1.268  27.454 -0.0864  0.1839  0.1552
82419W        W25331  16.132   0.001  27.622  0.0103 -0.2211  0.0844
82420W        W25332  16.277  32.997  23.273 -0.0960 -0.0479 -0.3451
82421W        W25333  16.237  32.628  28.027  0.1450 -0.3005 -0.0022
82422W        W25334  17.588  32.996  27.184  0.1879  0.4954  0.1008
82423W        W25335  17.828  34.530  23.422 -0.1171  0.1139 -0.2749
82424W        W25336  17.743  32.205  28.222 -0.0051 -0.1783  0.3098
82425W        W25337  14.697  33.221  27.153  0.0359 -0.1010 -0.1952
82426W        W25338  14.650  33.723  25.627  0.0851 -0.0924 -0.2176
82427W        W25339  14.579  34.476  26.784  0.2733  0.0022  0.1051
82428W        W25340  16.813  32.331  24.830 -0.0961  0.0271 -0.0357
82429W        W25341  16.242  33.738  24.453  0.1409  0.0660 -0.1181
82430W        W25342  15.369   0.020  27.581 -0.2426 -0.2021  0.1600
82431W        W25343  17.196  34.591  24.809  0.2445  0.3243  0.2868
82432W        W25344  14.099   0.035  26.199  0.0857 -0.0364  0.0255
82433W        W25345  16.855   0.303  24.631 -0.3574 -0.0418  0.3401
82434W        W25346  16.259  32.213  26.117  0.3145  0.3113  0.2919
82435W        W25347  15.771  33.834  26.590  0.1792  0.2464 -0.0343
82436W        W25348  14.451  33.070  26.169 -0.1253  0.1041  0.1812
82437W        W25349  16.398   0.280  27.209 -0.2739 -0.4715  0.0156
82438W        W25350  15.254   0.694  26.799 -0.1045 -0.0296  0.0064
82439W        W25351  14.793  34.396  26.035  0.1717 -0.2897 -0.0054
82440W        W25352  19.406  34.234  22.231 -0.3178 -0.0570 -0.2598
82441W        W25353  18.396  33.538  25.338 -0.0424  0.1491  0.0490
82442W        W25354  17.622   0.088  23.915  0.2581  0.0151  0.0443
82443W        W25355  15.936   0.394  23.751 -0.1967  0.1731  0.1514
82444W        W25356  14.829  33.726  26.848 -0.1008 -0.1689  0.0951
82445W        W25357  16.801  33.364  28.850  0.0816  0.1292 -0.1630
82446W        W25358  15.977  33.827  25.767 -0.1885 -0.2504 -0.2807
82447W        W25359  16.529  33.996  27.290  0.0384 -0.0412 -0.0813
82448W        W25360  17.077   1.710  24.468  0.0610 -0.1561 -0.2970
82449W        W25361  13.060  33.445  24.524  0.0431  0.0728 -0.0307
82450W        W25362  13.437  34.634  24.126  0.1233  0.1730  0.0077
82451W        W25363  15.939  33.913  22.273  0.1646 -0.1947  0.2463
82452W        W25364  15.684  33.322  25.706  0.3068 -0.0729 -0.0970
82453W        W25365  16.695  33.480  27.345 -0.2552  0.0348  0.2017
82454W        W25366  16.945  32.075  24.401  0.4306  0.1586  0.2448
82455W        W25367  16.960  32.359  25.675 -0.2096 -0.2535  0.0993
82456W        W25368  17.268  34.487  25.991 -0.2406 -0.2732 -0.1752
82457W        W25369  17.306  34.078  24.709  0.0590 -0.0949  0.1970
82458W        W25370  17.360  33.470  26.362  0.0124  0.1878  0.0426
82459W        W25371  16.450  34.250  26.082  0.1965  0.0125  0.2453
82460W        W25372  12.930  33.967  26.749 -0.3467  0.2637 -0.0837
82461W        W25373  14.959  32.593  24.918 -0.3069  0.0348  0.0484
82462W        W25374  15.020  33.860  25.157  0.0043 -0.1003 -0.1259
82463W        W25375  16.566  33.197  22.928  0.2926  0.1338  0.2241
82464W        W25376  17.447  33.743  24.397  0.4624  0.0264 -0.1308
82465W        W25377  18.402  33.010  25.138 -0.3999 -0.1173  0.1100
82466W        W25378  14.896  34.181  27.024 -0.2659 -0.0023  0.2621
82467W        W25379  16.518  33.420  24.093 -0.0622 -0.0147 -0.1633
82468W        W25380  15.217  34.051  28.778  0.1831  0.0671 -0.0726
82469W        W25381  17.105  31.556  27.936 -0.0611 -0.0752 -0.1351
82470W        W25382  15.506  33.572  23.572  0.2866 -0.0918  0.0583
82471W        W25383  15.162  33.595  25.716  0.0598 -0.0928  0.0840
82472W        W25384  16.219  32.418  26.802  0.1638  0.1053  0.2113
82473W        W25385  17.487  33.266  25.422  0.2191  0.1785  0.2536
82474W        W25386  14.473  33.525  24.221  0.0992  0.1348  0.0453
82475W        W25387  18.577  34.521  22.937  0.3379 -0.1030 -0.1464
82476W        W25388  15.977  34.685  28.169  0.2781 -0.1499  0.3203
82477W        W25389  16.954  33.128  26.084 -0.1056  0.0873  0.0904
82478W        W25390  15.132   0.621  23.658  0.0842  0.2247 -0.4344
82479W        W25391  17.091  34.020  23.973  0.1534  0.1861 -0.0222
82480W        W25392  13.569  34.487  25.574 -0.1886 -0.0837  0.0362
82481W        W25393  15.495   0.061  23.617 -0.0044  0.0663  0.0772
82482W        W25394  18.259   0.978  25.732  0.2412 -0.0725 -0.0810
82483W        W25395  16.968   0.399  23.416 -0.1010 -0.0906 -0.2018
82484W        W25396  14.050  31.594  25.398 -0.0704  0.3033 -0.2020
82485W        W25397  17.722  33.233  24.067 -0.0810  0.0546 -0.0168
82486W        W25398  16.372  33.838  25.022  0.0981  0.0337  0.2259
82487W        W25399  16.266  33.341  25.755 -0.0764  0.0104 -0.0103
82488W        W25400  13.555  32.700  23.592 -0.1117 -0.3279 -0.4113
82489W        W25401  16.018   0.800  25.009 -0.1526  0.0913 -0.2867
82490W        W25402  17.033  34.620  24.030 -0.0848  0.0711 -0.0662
82491W        W25403  14.617  33.921  26.133  0.0557  0.0094 -0.0248
82492W        W25404  14.328  31.972  24.175  0.2640 -0.1242  0.0593
82493W        W25405  15.385  32.286  24.841 -0.1858 -0.1319 -0.1749
82494W        W25406  17.487  33.794  27.733  0.2737 -0.0258  0.3894
82495W        W25407  18.209  33.375  27.641 -0.1867  0.1467 -0.1572
82496W        W25408  16.483  33.194  26.322 -0.1899 -0.0519 -0.0059
82497W        W25409  17.244  34.636  25.485  0.1081 -0.0708 -0.2521
82498W        W25410  15.864  33.634  24.862 -0.1481 -0.1592  0.0802
82499W        W25411  16.668  34.095  24.729 -0.2855 -0.0784 -0.1465
82500W        W25412  16.095  33.631  26.238 -0.2654  0.0835 -0.1285
82501W        W25413  15.084  34.647  27.163 -0.1889  0.3569 -0.3203
82502W        W25414  14.208  34.583  24.524 -0.1483  0.0920  0.2002
82503W        W25415  16.945  31.931  28.239  0.0695 -0.2045  0.0261
82504W        W25416  14.577  33.324  26.597  0.0493 -0.1956 -0.2074
82505W        W25417  14.435   1.305  26.648  0.1045 -0.1912  0.2892
82506W        W25418  14.614  33.348  25.258  0.3576  0.0228  0.0049
82507W        W25419  13.429  32.624  26.380 -0.0730  0.0345  0.0530
82508W        W25420  14.188  32.650  26.086  0.2226 -0.1249 -0.0221
82509W        W25421  15.541  33.144  24.061  0.0524 -0.1079 -0.3400
82510W        W25422  14.657   0.893  28.239 -0.2642 -0.1228 -0.1979
82511W        W25423  15.620  33.450  26.879 -0.0890 -0.2491 -0.1955
82512W        W25424  14.956   0.145  23.743 -0.0655 -0.2490 -0.1694
82513W        W25425  16.263  34.549  26.481 -0.0158  0.2361 -0.3806
82514W        W25426  14.400  33.869  26.624  0.1399 -0.0978 -0.1953
82515W        W25427  17.356  34.003  26.144  0.0739  0.0760  0.0681
82516W        W25428  16.511   0.388  23.007 -0.1515  0.1139 -0.0704
82517W        W25429  14.992  32.425  26.922  0.1860 -0.2356 -0.0315
82518W        W25430  13.582  33.613  26.113 -0.2508 -0.0425 -0.2761
82519W        W25431  17.341   0.200  24.355 -0.1564 -0.1574  0.0186
82520W        W25432  13.606  33.974  25.764  0.1193  0.2236  0.2428
82521W        W25433  17.113  33.173  23.845 -0.0151 -0.0038 -0.1109
82522W        W25434  16.665  34.429  26.959 -0.1714 -0.0341  0.3503
82523W        W25435  15.368  33.988  23.296  0.1843  0.1999  0.1855
82524W        W25436  17.280   0.590  23.766 -0.1585  0.2740  0.1445
82525W        W25437  13.659  33.444  25.660  0.1050  0.0699 -0.3670
82526W        W25438  15.463   0.415  24.025 -0.4531 -0.2741 -0.0651
82527W        W25439  17.070  34.045  25.698 -0.1377 -0.1202 -0.1143
82528W        W25440  15.998  33.243  26.578 -0.1799  0.0149  0.1388
82529W        W25441  15.741  31.847  26.132  0.0332  0.0876  0.1450
82530W        W25442  17.425  33.616  24.888  0.1648 -0.0495 -0.1130
82531W        W25443  15.241  33.664  29.167 -0.3696 -0.0847  0.0719
82532W        W25444  16.633  32.751  27.142  0.0055  0.2940 -0.1201
82533W        W25445  16.589  34.560  27.411  0.0035  0.2754  0.2039
82534W        W25446  13.816  32.246  28.033 -0.1245  0.0712 -0.4160
82535W        W25447  17.053  31.517  31.047 -0.0499 -0.0804 -0.1543
82536W        W25448  16.691  34.673  27.861  0.0574  0.0345  0.1413
82537W        W25449  16.928   0.344  30.010  0.0157  0.1210 -0.0592
82538W        W25450  15.733  32.237  28.189 -0.2024  0.0425 -0.2550
82539W        W25451  14.212  33.479  29.037 -0.0573  0.1456  0.1146
82540W        W25452  17.264  34.620  31.395  0.0670  0.0236  0.0462
82541W        W25453  14.392  33.494  27.429 -0.1769 -0.0313  0.0581
82542W        W25454  15.112  32.562  30.473  0.3471 -0.2869 -0.3176
82543W        W25455  16.417  33.021  28.892 -0.2316  0.1965  0.1691
82544W        W25456  16.264  32.544  29.837 -0.1042 -0.2002  0.0505
82545W        W25457  17.517  33.662  31.436  0.1116 -0.1615  0.0493
82546W        W25458  13.868  33.248  27.083 -0.0317  0.1806 -0.3081
82547W        W25459  13.518  34.145  29.252 -0.1810 -0.1959 -0.2363
82548W        W25460  17.467   0.945  30.303 -0.0233 -0.1273 -0.1788
82549W        W25461  16.439  34.206  30.909  0.3316  0.2040  0.1136
82550W        W25462  16.683  33.346  26.879  0.1967  0.1275 -0.0299
82551W        W25463  18.062  34.020  30.541  0.0673  0.2531  0.0438
82552W        W25464  15.946  34.405  30.871  0.4384  0.1016 -0.1814
82553W        W25465  16.084  33.711  29.441  0.0818  0.3097  0.2151
82554W        W25466  17.155  33.972  30.903  0.1347  0.4031  0.0878
82555W        W25467  17.049  34.286  27.244  0.1238 -0.4033  0.1814
82556W        W25468  14.558  34.450  27.961 -0.3656  0.1949 -0.1071
82557W        W25469  17.246  33.223  28.617 -0.1824 -0.1720  0.0516
82558W        W25470  16.852  33.096  30.001  0.3283  0.0727  0.0591
82559W        W25471  16.437  33.933  30.209 -0.1221  0.0423 -0.1534
82560W        W25472  16.368  33.131  29.825  0.0872  0.0156  0.0502
82561W        W25473  17.063   0.366  29.508  0.0836  0.0633 -0.1957
82562W        W25474  14.898  33.143  29.421 -0.0373  0.1881  0.3170
82563W        W25475  14.733  33.568  29.105 -0.0674 -0.0355  0.2041
82564W        W25476  14.742  34.387  29.860  0.2361 -0.0994 -0.0461
82565W        W25477  14.885  33.365  30.075  0.3383 -0.1421  0.2167
82566W        W25478  15.669  33.475  27.504 -0.0293  0.0500 -0.3850
82567W        W25479  17.770  32.884  29.582 -0.1148 -0.0123 -0.2586
82568W        W25480  16.846  33.030  31.065 -0.2888  0.2072  0.4159
82569W        W25481  17.991  33.180  30.597 -0.1695 -0.3904 -0.0562
82570W        W25482  18.412  34.694  27.841  0.2851  0.2307  0.0130
82571W        W25483  14.875  34.446  30.720  0.1830  0.3039 -0.2463
82572W        W25484  14.453  33.961  29.837  0.1412 -0.1377  0.0772
82573W        W25485  18.486  32.313  28.615 -0.1598 -0.2410 -0.5875
82574W        W25486  15.022  32.839  30.072  0.1589  0.0968  0.3714
82575W        W25487  18.131  32.535  29.405 -0.2799  0.0136  0.0003
82576W        W25488  17.015  33.888  27.505  0.3816  0.1017  0.1675
82577W        W25489  15.345   0.061  29.879  0.1084  0.0597 -0.2777
82578W        W25490  14.357  33.925  27.802 -0.1073 -0.0347  0.1034
82579W        W25491  15.300  33.344  30.867  0.5604 -0.0300  0.2074
82580W        W25492  15.068  33.189  28.908 -0.0531  0.0298 -0.1703
82581W        W25493  17.181  34.594  30.297 -0.1171  0.2582 -0.2292
82582W        W25494  14.349  32.149  27.881  0.2195 -0.0161 -0.1712
82583W        W25495  18.088  32.598  29.869 -0.3499 -0.3820 -0.2647
82584W        W25496  15.522  33.595  28.038 -0.0530 -0.0098 -0.0430
82585W        W25497  17.199  32.286  30.659  0.0236  0.4034 -0.0804
82586W        W25498  16.452  33.687  29.799  0.1173 -0.1182  0.1092
82587W        W25499  14.867   0.314  26.820  0.0030 -0.0934  0.1411
82588W        W25500  15.881  33.667  28.448 -0.1426 -0.4670 -0.4532
82589W        W25501  18.043  30.903  31.128  0.3365  0.1863 -0.2406
82590W        W25502  17.867  34.681  29.687 -0.0461  0.0940  0.1926
82591W        W25503  15.606  34.382  27.851  0.0514  0.2183 -0.0100
82592W        W25504  14.884  34.007  29.571  0.1539 -0.2061 -0.2166
82593W        W25505  18.518  32.472  30.320  0.1664  0.2269 -0.2747
82594W        W25506  14.357  34.530  30.815  0.0529 -0.1039  0.2340
82595W        W25507  16.421  33.360  30.277 -0.1054  0.2840  0.0296
82596W        W25508  15.204  33.541  29.686 -0.0058  0.0274 -0.2286
82597W        W25509  17.527  32.434  30.255  0.1629  0.0083  0.1064
82598W        W25510  17.572  33.920  27.117  0.3041  0.2505  0.3060
82599W        W25511  15.754  32.653  27.819  0.2135  0.3888 -0.0968
82600W        W25512  17.678  33.293  27.649 -0.0012  0.1917  0.2813
82601W        W25513  15.988  32.711  26.462  0.2922 -0.0275 -0.3150
82602W        W25514  16.529  32.126  29.457 -0.0723  0.0611  0.4536
82603W        W25515  14.633  33.495  27.966  0.3147 -0.3284  0.2210
82604W        W25516  16.641  32.262  27.862  0.0426  0.1034 -0.5661
82605W        W25517  17.231  32.744  29.814  0.0698 -0.2013 -0.0495
82606W        W25518  16.948  32.559  30.279  0.2899 -0.0956  0.0195
82607W        W25519  15.453  33.826  30.965 -0.1035  0.0115  0.0569
82608W        W25520  16.884  34.147  30.110  0.1115  0.0392  0.0569
82609W        W25521  16.752  32.598  29.779  0.0331  0.0542  0.1194
82610W        W25522  16.903  33.633  29.963 -0.2153 -0.1974  0.0281
82611W        W25523  14.178  34.396  27.156 -0.0221  0.1601 -0.0085
82612W        W25524  16.640  31.930  29.934  0.1890 -0.1238 -0.2488
82613W        W25525  17.728  34.210  30.991 -0.0824  0.1730  0.0228
82614W        W25526  16.526  33.332  29.285  0.2640  0.3118 -0.1858
82615W        W25527  15.400  33.135  29.844 -0.2371 -0.0883  0.0497
82616W        W25528  17.697  32.472  29.156 -0.0119  0.1673 -0.0658
82617W        W25529  15.324  33.805  26.998 -0.0379  0.4735 -0.0976
82618W        W25530  13.949  33.139  28.095 -0.0726  0.0516  0.1303
82619W        W25531  16.132  32.126  29.040 -0.5731  0.1684  0.0154
82620W        W25532  16.447  32.794  29.405  0.2900  0.1246 -0.1226
82621W        W25533  15.636  34.269  30.106  0.1975 -0.1717 -0.0418
82622W        W25534  17.109  34.141  29.566  0.1302  0.1280 -0.1111
82623W        W25535  16.486  34.094  26.607 -0.0403  0.2157 -0.4366
82624W        W25536  16.488   0.637  31.317  0.0861 -0.1116 -0.2143
82625W        W25537  13.105  33.876  27.898  0.0141  0.0852  0.2796
82626W        W25538  18.953  33.908  31.346 -0.0543 -0.0121 -0.2591
82627W        W25539  16.589  32.408  29.026  0.0470 -0.2133 -0.1507
82628W        W25540  15.489   0.124  28.080  0.3311  0.1176 -0.1789
82629W        W25541  16.431  34.378   0.368  0.3781 -0.1452 -0.0998
82630W        W25542  16.732  33.897  30.605  0.1633  0.1450  0.1233
82631W        W25543  16.842  32.258  28.568 -0.1906 -0.2632  0.3538
82632W        W25544  16.146  32.708  30.374  0.0215 -0.2158 -0.1527
82633W        W25545  16.694   0.163  31.530  0.0069 -0.2947  0.1733
82634W        W25546  17.043  31.609  30.089 -0.0749 -0.0786  0.3312
82635W        W25547  17.204  32.736  31.437 -0.1325 -0.0813  0.0317
82636W        W25548  17.953  32.680  30.454 -0.0782 -0.1177 -0.1407
82637W        W25549  19.132  32.582  28.286  0.0081  0.1875  0.2596
82638W        W25550  15.955   0.114  30.360 -0.0902 -0.1032 -0.0500
82639W        W25551  17.417  34.178  30.511  0.2060 -0.1278 -0.0954
82640W        W25552  16.256  34.290  28.159  0.0655  0.0851  0.0209
82641W        W25553  17.083  31.236  29.517  0.2262  0.2569 -0.2172
82642W        W25554  15.490  33.136  29.328  0.0018 -0.1238 -0.3551
82643W        W25555  15.632  32.722  30.533 -0.2002 -0.0793 -0.0192
82644W        W25556  14.581  33.909  31.406  0.1864 -0.0451  0.3042
82645W        W25557  16.788  32.979  28.578 -0.1074 -0.0878  0.0082
82646W        W25558  16.365  33.418  28.535 -0.0161  0.1383  0.2197
82647W        W25559  15.528   0.243  31.248 -0.0582  0.0986  0.0625
82648W        W25560  18.622  32.898  28.469  0.1982  0.0621 -0.3564
82649W        W25561  13.717  34.468  30.356  0.2823  0.0010  0.0495
82650W        W25562  17.701  33.451  28.800  0.2233 -0.1472 -0.0678
82651W        W25563  15.863  32.979  30.040  0.2939  0.0938  0.3399
82652W        W25564  18.139  32.592  28.889 -0.0523  0.0087  0.0859
82653W        W25565  17.347  31.883  30.360 -0.0389 -0.0806 -0.1257
82654W        W25566  17.629  32.886  30.092 -0.0200 -0.1424 -0.0588
82655W        W25567  15.506   0.744  31.403  0.1601 -0.1878  0.1435
82656W        W25568  14.561  32.581  31.182  0.2672  0.0752 -0.0074
82657W        W25569  17.337  34.246  25.196  0.3400  0.1116  0.0184
82658W        W25570  18.382  33.450  29.071 -0.0304  0.1245  0.0118
82659W        W25571  17.511  34.338  27.475 -0.0361 -0.1270  0.0408
82660W        W25572  16.380   0.218  30.141  0.0889  0.3802 -0.0580
82661W        W25573  14.710  33.558  29.678  0.0439  0.2552 -0.0425
82662W        W25574  16.992   0.853  31.346 -0.0020 -0.1063  0.1876
82663W        W25575  14.270  33.514  26.934  0.0906  0.1263  0.1333
82664W        W25576  17.098  33.473  31.124 -0.3470 -0.1188  0.0320
82665W        W25577  17.139  33.828  29.054  0.1544 -0.1655  0.1844
82666W        W25578  14.979  33.891  30.053  0.2635 -0.2249  0.0160
82667W        W25579  14.638  34.297  27.463 -0.0817  0.2072  0.0331
82668W        W25580  15.864  33.518  29.075 -0.0545 -0.0105 -0.0945
82669W        W25581  16.646  33.508  27.846  0.1224 -0.1559  0.0718
82670W        W25582  18.752   0.098  29.446  0.1436  0.2601  0.0955
82671W        W25583  16.211  32.229  28.585  0.1122  0.0302  0.3260
82672W        W25584  17.919  31.941  30.961 -0.3419 -0.1404 -0.0483
82673W        W25585  17.352  33.249  29.634  0.0788  0.0718  0.1364
82674W        W25586  16.615   0.355  29.662  0.0042  0.0603 -0.1144
82675W        W25587  18.382   0.591  31.124  0.4164 -0.2079  0.0222
82676W        W25588  15.429  33.776  30.066  0.0114  0.0704  0.2197
82677W        W25589  15.087  32.641  30.975  0.0086  0.2626 -0.1447
82678W        W25590  17.288  32.857  30.514 -0.3696 -0.2024 -0.1250
82679W        W25591  15.676  32.935  27.380 -0.0410  0.0991  0.1486
82680W        W25592  17.631  32.679  28.177 -0.0376 -0.0678  0.0416
82681W        W25593  18.493  33.457  29.730  0.0136 -0.0990  0.1116
82682W        W25594  17.947  34.322  27.263 -0.0988  0.0600 -0.2375
82683W        W25595  15.605   0.503  29.560  0.2212 -0.3532  0.2661
82684W        W25596  15.537  33.970  27.602 -0.1161 -0.1803 -0.0737
82685W        W25597  15.797  33.441  30.957 -0.3498 -0.2031  0.3241
82686W        W25598  18.505  32.226  31.633  0.3131 -0.0395  0.0263
82687W        W25599  15.113  33.222  28.130 -0.2012 -0.1004 -0.1026
82688W        W25600  15.849   0.104  29.211  0.1485  0.1543 -0.1115
82689W        W25601  17.633  33.686  30.344  0.1944 -0.2589  0.3316
82690W        W25602  17.231  33.753  28.546  0.0229 -0.2467  0.0226
82691W        W25603  14.817  34.095  28.414  0.2471 -0.1592  0.0284
82692W        W25604  17.357  32.847  29.251  0.1939  0.0271 -0.1870
82693W        W25605  16.090  34.243  30.416 -0.0364  0.1114 -0.0067
82694W        W25606  17.152  33.768  30.375  0.0941  0.0317  0.0868
82695W        W25607  15.602  33.281  28.396  0.0513  0.0943  0.0517
82696W        W25608  18.199  34.365  28.719 -0.0212 -0.1296  0.1567
82697W        W25609  15.855  33.327  29.651 -0.1734  0.2926  0.1957
82698W        W25610  15.538  33.848  29.537 -0.1672 -0.0914  0.0283
82699W        W25611  16.915   1.488  30.113  0.0883  0.0811 -0.1749
82700W        W25612  16.175  33.650  27.594  0.0321 -0.0455  0.1812
82701W        W25613  15.019  33.594  28.533  0.0711 -0.1399  0.1777
82702W        W25614  16.685  33.020  27.694  0.2154  0.0255  0.0735
82703W        W25615  15.279  34.314  29.740 -0.1100 -0.0474 -0.3405
82704W        W25616  15.924  33.927  30.992 -0.0360 -0.1326 -0.1829
82705W        W25617  14.072  33.170  28.582  0.2266  0.2789  0.3652
82706W        W25618  17.101  34.605  29.817 -0.4609 -0.0068 -0.1984
82707W        W25619  17.599   0.018  28.127  0.1038 -0.1472  0.2043
82708W        W25620  13.966  34.312  29.277  0.1071  0.1143 -0.0197
82709W        W25621  16.010  33.424  28.002  0.1417 -0.0787 -0.0943
82710W        W25622  16.079  32.679  28.954  0.4502  0.1784  0.0662
82711W        W25623  18.140  33.090  28.661 -0.0349 -0.0204 -0.0722
82712W        W25624  17.770  34.488  29.026  0.1030  0.0978 -0.3033
82713W        W25625  16.936  31.983  31.043 -0.0758  0.1983  0.0233
82714W        W25626  15.943  32.966  28.197  0.1719 -0.3021 -0.0528
82715W        W25627  16.047  32.445  29.384 -0.0735  0.0544  0.0956
82716W        W25628  18.505  32.915  29.012  0.6306  0.1769  0.0320
82717W        W25629  17.208  31.947  29.024  0.4192  0.1366  0.0323
82718W        W25630  17.049   0.343  31.235 -0.0338 -0.2344  0.0612
82719W        W25631  14.279  34.120  28.318  0.2220  0.1738  0.2932
82720W        W25632  16.907  33.600  29.438  0.0622 -0.3967 -0.0459
82721W        W25633  14.509  32.696  30.226  0.1898 -0.1574  0.3093
82722W        W25634  15.723   1.843  28.545  0.1879  0.0422  0.2243
82723W        W25635  15.245  31.781  28.545  0.0984 -0.3756 -0.0445
82724W        W25636  14.528  33.066  28.935  0.0957  0.1975 -0.0036
82725W        W25637  13.539  33.195  28.374 -0.1238  0.2195  0.1475
82726W        W25638  15.236  32.244  28.078 -0.0378  0.1528 -0.0186
82727W        W25639  16.499  34.509  31.819 -0.2503 -0.1940 -0.2442
82728W        W25640  16.605  32.959  30.472 -0.3768  0.1247 -0.2997
82729W        W25641  14.007  32.253  27.398 -0.1624 -0.1059 -0.0691
82730W        W25642  16.768   0.535  30.430 -0.0379 -0.0650  0.0503
82731W        W25643  14.844  32.304  29.960 -0.0350  0.2119  0.3178
82732W        W25644  19.859  31.832  29.527 -0.4245  0.2466  0.1415
82733W        W25645  17.265  32.549  28.494 -0.2000  0.1919 -0.0935
82734W        W25646  15.044  32.627  29.654 -0.0136  0.1124  0.0288
82735W        W25647  15.539  33.103  27.910  0.1564  0.0653 -0.0189
82736W        W25648  17.335  33.306  30.187  0.4038 -0.1115 -0.1350
82737W        W25649  15.167  32.331  28.626  0.0923  0.0875  0.2410
82738W        W25650  15.693  34.322  29.442 -0.0209  0.1341 -0.0268
82739W        W25651  14.686   0.584  31.443 -0.1952  0.0763 -0.2238
82740W        W25652  14.371   0.249  28.061  0.0455  0.3115 -0.1709
82741W        W25653  18.745   1.395  26.147  0.1611 -0.2384  0.1607
82742W        W25654  15.997  33.035  29.269  0.0520 -0.2807  0.0851
82743W        W25655  15.400   0.262  27.106 -0.0010 -0.0355  0.1328
82744W        W25656  14.923   0.412  30.575  0.3922 -0.0609  0.0141
82745W        W25657  17.841  34.332  30.128  0.0381  0.1719 -0.0423
82746W        W25658  15.887  33.895  27.914 -0.1669 -0.0082 -0.0363
82747W        W25659  18.308  32.032  28.099 -0.0151 -0.1874  0.3179
82748W        W25660  16.389  33.741  31.800  0.0286 -0.3774 -0.3541
82749W        W25661  16.941   1.282  31.741  0.4533  0.0084  0.2207
82750W        W25662  14.437  34.179   0.245 -0.1223  0.0669  0.0738
82751W        W25663  17.945  34.268  31.753 -0.0236  0.0353  0.0426
82752W        W25664  16.550  33.982  31.341  0.0892  0.2094  0.3208
82753W        W25665  16.285  33.645  30.650  0.0490 -0.3024  0.0077
82754W        W25666  14.807  32.636  31.752 -0.2264 -0.2827 -0.1773
82755W        W25667  17.047  33.844  31.470  0.0160  0.0895 -0.1181
82756W        W25668  16.159  34.537   0.738 -0.0493  0.0681  0.1579
82757W        W25669  16.404  34.468   1.691  0.2075 -0.0336 -0.1220
82758W        W25670  15.342  33.348  31.347  0.1781 -0.3239  0.0583
82759W        W25671  17.782  31.919   0.157 -0.1436 -0.1445 -0.1430
82760W        W25672  18.078  33.557  31.536  0.3221 -0.4669 -0.4164
82761W        W25673  15.203  33.530  30.388 -0.0528  0.0668 -0.2061
82762W        W25674  16.772  34.060  31.915  0.1834 -0.2413  0.1926
82763W        W25675  16.465  33.556   0.909 -0.1180  0.1059  0.3095
82764W        W25676  15.732   0.425  31.726  0.3812  0.0630 -0.2362
82765W        W25677  16.018  33.950   0.367  0.0584  0.1840 -0.3329
82766W        W25678  18.205  32.692  31.692 -0.0586 -0.4866  0.1135
82767W        W25679  15.810  33.292  31.478  0.3001 -0.2859  0.0061
82768W        W25680  18.927  33.481   0.299  0.0499 -0.0436 -0.1708
82769W        W25681  17.982  33.397  31.046  0.0020 -0.0391 -0.5687
82770W        W25682  17.593  33.393  31.933  0.0150  0.1499 -0.0983
82771W        W25683  16.659  33.488  31.518  0.3080 -0.1108 -0.2922
82772W        W25684  16.137  34.199  29.790 -0.1982 -0.1122  0.0393
82773W        W25685  16.055   1.301  31.662 -0.0063 -0.1083 -0.1002
82774W        W25686  16.393  31.665  30.288 -0.0521  0.1138  0.0650
82775W        W25687  17.549  31.410  29.722 -0.0703  0.0352  0.0068
82776W        W25688  15.833  33.178  30.514  0.2084 -0.0001  0.0620
82777W        W25689  16.622  34.175   1.235 -0.0647  0.1975 -0.0712
82778W        W25690  17.409  34.180  31.559 -0.0197  0.0194  0.1146
82779W        W25691  13.949  34.006  30.163  0.0335 -0.1839  0.2623
82780W        W25692  13.946  33.960  29.657 -0.0637 -0.0109  0.0551
82781W        W25693  18.009  33.763   0.100 -0.4535  0.3018  0.0444
82782W        W25694  19.618   3.417  19.277 -0.3793 -0.0847 -0.0203
82783W        W25695  19.962   0.941  15.925  0.1230  0.0363 -0.0949
82784W        W25696  21.260   1.436  15.660  0.0011 -0.0121  0.3311
82785W        W25697  20.896   1.302  16.562  0.0231  0.2343  0.0573
82786W        W25698  18.131   1.522  17.117 -0.0849  0.0864 -0.0327
82787W        W25699  20.494   3.077  15.891 -0.0021 -0.4104  0.0207
82788W        W25700  19.008  34.092  18.843  0.1587 -0.1165 -0.2067
82789W        W25701  20.165   2.906  18.602  0.1438  0.1876  0.1821
82790W        W25702  21.451   5.564  18.353  0.1594  0.1867  0.2379
82791W        W25703  19.683   2.845  16.882 -0.2551 -0.2949 -0.4817
82792W        W25704  21.207   1.255  19.687  0.1675  0.1565  0.0417
82793W        W25705  20.105   4.031  18.318  0.0274 -0.1278  0.0130
82794W        W25706  19.420   1.249  17.645 -0.0134 -0.3590  0.0523
82795W        W25707  19.730  34.665  17.006 -0.2766 -0.1030 -0.2605
82796W        W25708  22.196   1.234  17.208  0.3312  0.1056 -0.4329
82797W        W25709  20.002   1.171  16.944  0.0189 -0.0708 -0.0894
82798W        W25710  19.224   0.246  18.007  0.0258 -0.2523 -0.1234
82799W        W25711  19.702   2.935  16.283 -0.0841  0.3052 -0.0912
82800W        W25712  21.145   4.420  17.320  0.0513 -0.2781  0.1657
82801W        W25713  19.623   2.340  19.290 -0.0396  0.1665 -0.0088
82802W        W25714  20.321   0.903  19.512  0.2460  0.1090 -0.2661
82803W        W25715  19.672   4.364  16.565 -0.2175 -0.2539  0.2498
82804W        W25716  17.957   1.282  16.646 -0.0137 -0.1475  0.1074
82805W        W25717  19.298   1.769  18.184 -0.3452  0.0799 -0.0575
82806W        W25718  19.627   1.660  17.724  0.0871  0.2757 -0.2927
82807W        W25719  20.280  34.112  18.870  0.1863  0.3006 -0.0778
82808W        W25720  22.901   2.359  17.150 -0.4147  0.0640  0.0716
82809W        W25721  20.636   2.353  16.727  0.0674  0.1053 -0.1873
82810W        W25722  21.282   3.712  18.032  0.2789 -0.2342  0.0602
82811W        W25723  20.007   1.392  19.037 -0.1361  0.4328 -0.1610
82812W        W25724  20.028   3.381  17.075 -0.2566  0.0756  0.2140
82813W        W25725  18.533   4.140  16.548  0.2894  0.0153 -0.0185
82814W        W25726  19.666   3.713  17.318  0.0888 -0.1937 -0.1241
82815W        W25727  20.875   3.614  15.783 -0.0070  0.0548 -0.0722
82816W        W25728  21.022   3.287  17.985  0.0320 -0.0506  0.2082
82817W        W25729  20.657   4.859  18.484  0.0007 -0.3578  0.0306
82818W        W25730  19.578   2.934  15.736 -0.0506 -0.0526  0.1155
82819W        W25731  19.607   4.142  22.180 -0.1616 -0.0498  0.4518
82820W        W25732  19.567   4.734  19.602  0.0444  0.0665 -0.1035
82821W        W25733  22.280   2.474  19.557  0.0143  0.0987  0.0759
82822W        W25734  21.256   2.614  17.948 -0.2299 -0.3943  0.1429
82823W        W25735  19.167   3.487  16.629 -0.0720  0.0099 -0.0523
82824W        W25736  21.070   2.958  18.775  0.2357 -0.1760  0.0731
82825W        W25737  19.821   2.697  18.929 -0.0584  0.1933  0.0901
82826W        W25738  18.088   2.833  17.881  0.1628  0.0442  0.0291
82827W        W25739  22.067   0.905  18.687 -0.0306 -0.0701  0.0902
82828W        W25740  19.811   3.412  15.958  0.2589 -0.0283 -0.1505
82829W        W25741  20.685   1.881  15.235  0.0453  0.0889  0.3822
82830W        W25742  19.746   2.431  16.030 -0.0510 -0.1785 -0.1032
82831W        W25743  20.423   1.371  16.643  0.0206 -0.2366 -0.0175
82832W        W25744  19.829   0.310  16.627  0.0004 -0.0956  0.1053
82833W        W25745  20.154   4.246  16.451 -0.1530 -0.1092 -0.2970
82834W        W25746  18.565   0.936  18.041 -0.2202  0.1414  0.0130
82835W        W25747  20.274   4.482  18.435 -0.2515 -0.3479  0.3151
82836W        W25748  21.973   2.054  16.893 -0.1260 -0.1428 -0.1021
82837W        W25749  20.002   2.226  18.992 -0.0489  0.0692  0.2725
82838W        W25750  18.412   3.776  17.872  0.1567  0.0026  0.1164
82839W        W25751  18.625   2.195  16.503 -0.1360 -0.1674  0.3276
82840W        W25752  21.290   3.992  15.844 -0.0228 -0.2091 -0.1052
82841W        W25753  21.291   2.592  16.503 -0.0983 -0.0834 -0.1167
82842W        W25754  20.186   2.965  16.734 -0.0729 -0.1071  0.0513
82843W        W25755  19.418   1.240  16.964  0.0462 -0.0086 -0.2927
82844W        W25756  18.029   2.201  19.255 -0.2440 -0.0860  0.2087
82845W        W25757  19.799   0.949  19.586 -0.0582 -0.2621  0.1175
82846W        W25758  19.424   1.670  16.469  0.0550 -0.1752 -0.0652
82847W        W25759  21.547   1.934  19.109  0.2783 -0.1545 -0.0473
82848W        W25760  19.105   4.299  19.354 -0.3347 -0.2603  0.1523
82849W        W25761  21.973   0.786  17.280 -0.1580  0.0059  0.1161
82850W        W25762  20.285   2.419  18.499  0.1329  0.3648 -0.0716
82851W        W25763  21.564   2.537  19.418  0.2131 -0.0033 -0.1969
82852W        W25764  21.627   0.812  15.733 -0.4659 -0.0533  0.0825
82853W        W25765  21.902   0.881  17.770  0.0639  0.1018 -0.2105
82854W        W25766  20.760   0.605  18.156  0.0079 -0.1015  0.1717
82855W        W25767  21.445   2.572  16.985  0.1634  0.0552  0.1335
82856W        W25768  19.175   2.977  16.177 -0.1631 -0.2267  0.1696
82857W        W25769  21.892   2.150  19.463  0.1778 -0.1028 -0.0498
82858W        W25770  21.609   1.171  15.391 -0.1355  0.3192  0.1411
82859W        W25771  18.803   3.089  16.606  0.3462 -0.0253  0.3569
82860W        W25772  19.620   2.475  19.763 -0.1293 -0.0582 -0.2588
82861W        W25773  20.107   3.564  19.082 -0.3878 -0.0353  0.2014
82862W        W25774  18.813   3.456  16.232 -0.1657  0.2743 -0.0437
82863W        W25775  18.910   1.766  16.549 -0.0746 -0.1455 -0.1219
82864W        W25776  17.370   2.205  15.626 -0.3915  0.0249  0.0450
82865W        W25777  18.999   1.317  17.983 -0.0334  0.4809  0.0529
82866W        W25778  19.527   2.909  17.992  0.0386  0.0894 -0.0211
82867W        W25779  21.071   0.428  17.522  0.1193 -0.3127 -0.0400
82868W        W25780  17.952   0.296  19.030  0.0055  0.0910 -0.2391
82869W        W25781  20.730  34.010  16.700  0.3352  0.0243  0.1868
82870W        W25782  20.109   2.799  15.892  0.0040 -0.1935 -0.4666
82871W        W25783  21.589   3.007  17.289  0.0014 -0.3263 -0.0264
82872W        W25784  20.665   0.950  17.453 -0.0014 -0.0017  0.3008
82873W        W25785  22.294   1.749  16.174  0.0297 -0.1686  0.2845
82874W        W25786  18.417   1.415  18.235  0.2170 -0.1958  0.1276
82875W        W25787  18.883   0.520  17.817 -0.0670  0.2001  0.0236
82876W        W25788  19.386   0.767  17.756  0.0693  0.1046 -0.0046
82877W        W25789  18.541  34.445  17.734 -0.1664 -0.0574  0.0077
82878W        W25790  21.213   1.126  19.045  0.1174 -0.2922 -0.3441
82879W        W25791  19.045  34.288  16.204 -0.0545 -0.3802  0.1421
82880W        W25792  22.214   2.710  16.588 -0.2548 -0.2544 -0.2151
82881W        W25793  19.775   2.456  17.417  0.1619 -0.1998 -0.0225
82882W        W25794  18.248   2.184  16.116 -0.0752  0.0017 -0.1700
82883W        W25795  22.089   1.065  18.194 -0.0298 -0.1183 -0.0902
82884W        W25796  20.614   4.223  17.218 -0.1573 -0.0393 -0.0677
82885W        W25797  21.620   3.499  18.284  0.1526  0.2151 -0.1414
82886W        W25798  21.120   3.795  16.335 -0.0931 -0.0825 -0.1769
82887W        W25799  19.337   2.001  19.044 -0.0079 -0.0358  0.0712
82888W        W25800  19.148   1.608  16.081  0.0047 -0.0422  0.0461
82889W        W25801  18.385   5.224  18.612 -0.0275 -0.4084 -0.0359
82890W        W25802  21.372   3.526  17.587 -0.2413  0.0451  0.1936
82891W        W25803  18.538   1.386  18.803  0.0156  0.1006  0.2665
82892W        W25804  21.695   5.630  17.063 -0.0383  0.3587 -0.2767
82893W        W25805  20.788   2.357  17.983  0.3834 -0.2250  0.2201
82894W        W25806  18.834   1.663  18.257 -0.1420 -0.0076  0.0872
82895W        W25807  19.742   0.495  19.840  0.2817 -0.0907 -0.1381
82896W        W25808  20.545   3.354  18.235  0.1166 -0.0620 -0.0356
82897W        W25809  23.536   1.627  17.234  0.1978  0.1238  0.1287
82898W        W25810  18.758   0.983  15.409  0.3481  0.0427  0.0762
82899W        W25811  21.497   3.323  16.909 -0.1352  0.2492 -0.0632
82900W        W25812  18.681   3.642  16.676 -0.0263  0.0661 -0.0532
82901W        W25813  19.193   3.224  18.503  0.2108  0.0610 -0.0514
82902W        W25814  19.558   3.878  16.713  0.0890 -0.0149  0.1800
82903W        W25815  20.942   0.093  17.074 -0.0268  0.1247 -0.0623
82904W        W25816  19.009   1.859  19.357 -0.2013  0.0875 -0.0545
82905W        W25817  20.030   2.130  19.587 -0.0722 -0.3196 -0.1875
82906W        W25818  19.656   1.210  16.584 -0.0712  0.0364  0.1931
82907W        W25819  18.642   1.864  18.648  0.1758 -0.0659 -0.2341
82908W        W25820  19.779   0.685  16.318 -0.1709 -0.0454  0.2258
82909W        W25821  21.820   0.932  16.201 -0.2165 -0.0166  0.5257
82910W        W25822  21.075   3.113  19.971  0.0067 -0.0480  0.0538
82911W        W25823  19.473   2.883  17.471  0.2470 -0.1339  0.0535
82912W        W25824  21.046   1.004  15.988  0.0621 -0.3799  0.0750
82913W        W25825  19.282   0.310  15.564 -0.0527  0.3488 -0.2835
82914W        W25826  18.892   2.945  19.393  0.1504  0.1831  0.2830
82915W        W25827  20.801   3.384  16.229 -0.1048  0.5899  0.0290
82916W        W25828  21.305   3.097  16.469 -0.1971 -0.0675 -0.1019
82917W        W25829  20.178   1.480  16.008 -0.1694 -0.2186 -0.2535
82918W        W25830  22.281   2.275  16.046 -0.0734 -0.1269  0.0054
82919W        W25831  18.627   2.853  17.049  0.0959 -0.0889  0.3510
82920W        W25832  19.775   4.269  19.493  0.1789  0.0973  0.1927
82921W        W25833  21.825   2.797  18.118  0.1061 -0.0926  0.1246
82922W        W25834  20.408   0.205  18.315 -0.2734  0.0518 -0.0142
82923W        W25835  19.395  34.539  16.621  0.0562 -0.1429  0.0748
82924W        W25836  20.392   0.783  16.939 -0.0581 -0.2033 -0.1158
82925W        W25837  18.480   2.784  15.370  0.4562 -0.0930 -0.1488
82926W        W25838  21.074   2.817  19.565 -0.2500  0.0939  0.1461
82927W        W25839  21.125   1.333  17.627  0.1925  0.2538  0.0681
82928W        W25840  20.270   1.150  18.603  0.3828  0.1111 -0.1898
82929W        W25841  21.670   1.258  19.153  0.2158 -0.1374  0.0757
82930W        W25842  19.726   1.689  16.874  0.2644 -0.0497 -0.1646
82931W        W25843  20.622   2.842  18.617  0.0772  0.0501 -0.0356
82932W        W25844  19.582   1.968  15.957  0.1636  0.1759  0.1628
82933W        W25845  20.655   1.178  19.906  0.0155 -0.2098 -0.3098
82934W        W25846  18.768   2.378  17.910  0.2980 -0.0152 -0.1019
82935W        W25847  18.808   5.477  18.516  0.0960  0.2509 -0.0519
82936W        W25848  20.030   3.309  19.558  0.2881 -0.5455  0.0682
82937W        W25849  20.451   2.253  16.262 -0.0667  0.0942 -0.0297
82938W        W25850  19.376   0.569  20.348 -0.3351 -0.3298 -0.0776
82939W        W25851  19.655   2.229  16.970  0.1428  0.2906  0.0515
82940W        W25852  19.293   4.594  17.363 -0.0580 -0.0023  0.2619
82941W        W25853  19.975   3.162  15.478 -0.1670  0.3098 -0.1343
82942W        W25854  18.056   0.697  18.041  0.0785  0.1659  0.0309
82943W        W25855  20.873   3.455  17.447  0.1884 -0.0480  0.2700
82944W        W25856  19.398   2.745  15.295 -0.1619  0.3590  0.1602
82945W        W25857  19.746   3.712  18.458  0.1619  0.0887 -0.0160
82946W        W25858  18.734   4.339  17.100  0.3573 -0.3177 -0.0203
82947W        W25859  21.373  33.819  17.398 -0.0909  0.0345  0.0644
82948W        W25860  17.814   3.992  16.901 -0.0067 -0.3954  0.1276
82949W        W25861  18.810   2.193  16.979  0.0792  0.2445 -0.1002
82950W        W25862  18.584   1.625  17.278 -0.0454 -0.1842  0.0181
82951W        W25863  20.201   0.746  17.491 -0.1316 -0.3021 -0.0583
82952W        W25864  20.343   2.504  17.458  0.1044 -0.0086 -0.2352
82953W        W25865  19.789   1.413  17.290 -0.0874  0.0146  0.1421
82954W        W25866  20.614   0.332  17.791 -0.0347 -0.1815  0.1707
82955W        W25867  18.792   3.998  18.013  0.1554  0.3018  0.0212
82956W        W25868  21.213   1.576  19.218  0.1047  0.0157  0.0668
82957W        W25869  20.545   3.052  17.643 -0.0520 -0.0802 -0.1687
82958W        W25870  20.994   2.417  21.251  0.0087  0.0225 -0.0531
82959W        W25871  19.411   3.034  18.973 -0.0541 -0.0860  0.0273
82960W        W25872  18.542   1.277  16.147 -0.2100 -0.3847 -0.0796
82961W        W25873  21.326   0.719  19.405  0.0399  0.0475 -0.0499
82962W        W25874  19.730   2.103  16.441  0.1148 -0.1611  0.0047
82963W        W25875  18.002   2.345  16.541  0.0910 -0.2063  0.2406
82964W        W25876  20.428   2.869  18.101  0.2766  0.1852  0.2205
82965W        W25877  19.175   2.127  16.117 -0.2969  0.2284  0.1883
82966W        W25878  19.140   3.579  17.230  0.1455  0.3301 -0.1932
82967W        W25879  20.458   1.987  18.221  0.0388  0.2529 -0.0571
82968W        W25880  21.112   2.200  19.382 -0.0333  0.1529 -0.1808
82969W        W25881  20.827   2.645  17.529  0.0829  0.3716  0.0427
82970W        W25882  19.681   0.246  18.044  0.2864  0.0048  0.3672
82971W        W25883  20.442   2.110  17.161 -0.5718 -0.1033  0.0969
82972W        W25884  21.824   1.871  18.059 -0.0164  0.3257  0.1253
82973W        W25885  19.145   0.759  18.725 -0.0946 -0.1571  0.0511
82974W        W25886  20.242   3.699  20.296  0.1674 -0.3941 -0.2600
82975W        W25887  20.434   0.005  17.407  0.4190  0.0138 -0.0557
82976W        W25888  22.082   3.114  17.019  0.0946  0.3961 -0.0813
82977W        W25889  20.457   2.284  19.309 -0.1970 -0.1145 -0.0621
82978W        W25890  17.928   2.783  16.962  0.2165  0.0257 -0.0898
82979W        W25891  18.322   2.175  17.623  0.1745  0.0387  0.2538
82980W        W25892  20.656   3.860  16.814  0.1299 -0.2602  0.0609
82981W        W25893  20.657   1.455  17.618 -0.2109 -0.2027  0.3094
82982W        W25894  18.327   2.399  16.963  0.0390 -0.1218 -0.1640
82983W        W25895  19.287   2.521  17.055 -0.2010  0.0344 -0.0336
82984W        W25896  19.119   3.073  17.154 -0.1629 -0.1087  0.0557
82985W        W25897  20.890   0.882  19.445  0.0278 -0.1833 -0.1131
82986W        W25898  20.035   2.486  16.457 -0.0495 -0.1472  0.2949
82987W        W25899  20.062   1.943  16.149 -0.0298 -0.0615  0.0989
82988W        W25900  20.755   0.690  19.883  0.1670 -0.2188  0.1733
82989W        W25901  21.281   2.762  15.897  0.2813 -0.2780 -0.0319
82990W        W25902  21.160   0.347  20.752 -0.0828  0.0142 -0.0209
82991W        W25903  19.642   0.409  18.880 -0.0964  0.0992 -0.2754
82992W        W25904  20.624   4.357  16.565  0.2618 -0.1042 -0.0657
82993W        W25905  19.447   0.532  18.433  0.4299 -0.0990 -0.0398
82994W        W25906  20.366   3.202  20.065 -0.0831  0.2120 -0.0030
82995W        W25907  19.251   1.509  19.653  0.3271  0.0542  0.0082
82996W        W25908  19.904   1.026  17.841 -0.1030  0.0479 -0.0071
82997W        W25909  19.036   0.456  16.374 -0.0688 -0.1058 -0.0833
82998W        W25910  20.485   4.785  18.990 -0.1643  0.0477  0.1547
82999W        W25911  21.153   1.690  16.477 -0.1340  0.0413  0.1535
83000W        W25912  20.373   2.796  15.466 -0.0409  0.0794  0.0044
83001W        W25913  20.892   2.266  18.479  0.1306  0.1315 -0.1152
83002W        W25914  18.467   2.612  17.468  0.0326 -0.2026 -0.2573
83003W        W25915  21.111   0.279  16.611  0.0927 -0.1423 -0.0350
83004W        W25916  19.346   3.339  17.622  0.1002 -0.2296  0.0073
83005W        W25917  20.770   4.344  18.141 -0.1565  0.0727 -0.2474
83006W        W25918  19.816   0.203  20.278  0.4226  0.0426  0.2391
83007W        W25919  22.398   2.349  16.997 -0.1302  0.4283  0.3795
83008W        W25920  20.396   0.688  18.479 -0.0048  0.0320  0.0321
83009W        W25921  20.261   1.772  19.186 -0.1787 -0.1500  0.0276
83010W        W25922  20.872   1.554  20.169  0.0069 -0.0678  0.3611
83011W        W25923  19.566   1.624  18.640  0.1276 -0.2419 -0.0275
83012W        W25924  18.524   0.196  19.536 -0.0195 -0.1210 -0.0437
83013W        W25925  21.809   4.012  18.256  0.1778  0.3261  0.0522
83014W        W25926  20.514   1.732  16.310 -0.1996  0.3246  0.0461
83015W        W25927  21.208  34.339  17.229 -0.1011 -0.1097  0.1052
83016W        W25928  22.291   1.845  17.185 -0.0865 -0.1401  0.0234
83017W        W25929  20.596   1.918  15.803 -0.0758  0.3561 -0.0377
83018W        W25930  19.106   0.404  17.367 -0.0864  0.4413 -0.2704
83019W        W25931  20.727   2.434  19.658 -0.2499  0.0549 -0.1266
83020W        W25932  18.962   1.029  15.840 -0.3440 -0.3273  0.0126
83021W        W25933  20.534   1.480  18.285 -0.2714 -0.2794  0.1161
83022W        W25934  20.400   3.536  15.846 -0.2623  0.1177 -0.0607
83023W        W25935  21.030   3.411  19.021 -0.0280 -0.1011 -0.1651
83024W        W25936  20.911   2.332  17.147 -0.0065  0.0703  0.2910
83025W        W25937  18.957  34.119  17.341 -0.2360 -0.0205 -0.1386
83026W        W25938  19.371   4.084  18.688  0.2062 -0.0041 -0.0325
83027W        W25939  19.682   1.462  16.012 -0.0756 -0.1978 -0.0847
83028W        W25940  20.795   1.812  16.815 -0.0340 -0.1073 -0.3119
83029W        W25941  20.976   3.791  19.843  0.1537  0.0236 -0.2468
83030W        W25942  21.474   1.918  19.616 -0.2853 -0.2916 -0.2707
83031W        W25943  19.341   0.332  16.883 -0.0542 -0.1851 -0.0017
83032W        W25944  21.606   2.006  18.524  0.0906  0.3219  0.1819
83033W        W25945  18.280   3.698  17.333  0.1407  0.0690  0.1163
83034W        W25946  20.654  34.565  18.013  0.3736 -0.3506 -0.4499
83035W        W25947  19.745   3.864  17.775 -0.0481 -0.0082 -0.2300
83036W        W25948  18.213   2.458  18.417 -0.1194  0.0617  0.0495
83037W        W25949  20.104   3.903  17.046 -0.2389 -0.4286  0.1079
83038W        W25950  19.640  34.471  19.409 -0.1535  0.0512  0.2499
83039W        W25951  20.923   1.205  18.240  0.1394 -0.1710  0.0236
83040W        W25952  19.823   1.763  18.182  0.3169  0.0756 -0.4527
83041W        W25953  19.429   0.801  19.261 -0.2761 -0.0301  0.0532
83042W        W25954  19.534   1.347  19.127 -0.0086 -0.2728  0.0020
83043W        W25955  20.180   2.402  17.970 -0.2151  0.0295  0.0151
83044W        W25956  20.517   3.541  19.311  0.3093  0.0242  0.1315
83045W        W25957  21.890   2.167  17.407  0.0264 -0.0952 -0.0711
83046W        W25958  20.197   3.589  18.550  0.2310 -0.3088  0.1635
83047W        W25959  18.904   2.301  18.886 -0.2914  0.0731 -0.1577
83048W        W25960  19.704   1.578  21.427  0.0192  0.0303 -0.0508
83049W        W25961  22.640   2.212  17.991 -0.1399  0.0665  0.1622
83050W        W25962  18.685   0.717  17.256  0.4669  0.1942  0.0348
83051W        W25963  20.469   3.438  16.638 -0.1907  0.0032 -0.0365
83052W        W25964  18.369   4.000  19.008 -0.2282  0.0920  0.4022
83053W        W25965  18.250   3.491  18.456  0.1290 -0.2181  0.1203
83054W        W25966  17.324   3.118  16.443  0.0129 -0.0600 -0.3433
83055W        W25967  19.837   3.305  17.683 -0.2979 -0.0806 -0.0500
83056W        W25968  19.425   2.538  16.463  0.0282  0.1147 -0.0125
83057W        W25969  21.355   2.529  18.479 -0.3394  0.0086 -0.2224
83058W        W25970  19.995   1.590  16.508  0.2429 -0.1905 -0.1608
83059W        W25971  18.980   3.305  19.024  0.0189 -0.2359 -0.1237
83060W        W25972  18.302   2.720  15.899  0.0460 -0.0010  0.0275
83061W        W25973  20.815   2.899  16.571  0.1191  0.2103 -0.1556
83062W        W25974  19.698   5.234  18.337 -0.0800  0.1079 -0.0521
83063W        W25975  20.724   2.932  19.232  0.0367 -0.0229  0.0246
83064W        W25976  21.323   0.515  16.130  0.2797 -0.0584  0.3317
83065W        W25977  20.535   2.026  18.791  0.1196 -0.2548 -0.0358
83066W        W25978  21.124   2.192  17.670 -0.0755 -0.3158  0.0715
83067W        W25979  21.055   4.891  19.652  0.0765  0.1637  0.0254
83068W        W25980  20.184   1.721  17.861  0.2755  0.1621  0.3305
83069W        W25981  19.535   0.162  16.213 -0.0288 -0.0431  0.1732
83070W        W25982  19.022   1.576  18.889 -0.1740 -0.3560  0.3564
83071W        W25983  20.446  34.147  20.732 -0.0029 -0.3085  0.3671
83072W        W25984  18.041   4.051  18.661 -0.3939  0.1944  0.0548
83073W        W25985  21.592   4.549  17.495 -0.0242 -0.0778  0.2796
83074W        W25986  20.071   0.400  17.141  0.1651 -0.0507  0.1326
83075W        W25987  20.919   1.727  17.895  0.0799  0.0463 -0.1315
83076W        W25988  20.225  34.506  21.085  0.0415  0.1704 -0.0835
83077W        W25989  20.868   2.891  15.609  0.1740  0.1842 -0.1301
83078W        W25990  19.604   2.946  18.545 -0.0630  0.1765  0.1603
83079W        W25991  19.962   2.812  17.743 -0.0771  0.4135  0.2595
83080W        W25992  19.512   3.363  16.987 -0.0140 -0.2109 -0.3381
83081W        W25993  19.815   3.319  18.788  0.0077 -0.2945  0.2556
83082W        W25994  18.379   1.120  17.106 -0.0522 -0.1963 -0.1195
83083W        W25995  21.408   0.960  16.978 -0.0616  0.1831  0.2092
83084W        W25996  19.282   2.001  17.760  0.0337  0.1437 -0.1117
83085W        W25997  20.858   0.795  16.969 -0.1505  0.5550 -0.1276
83086W        W25998  19.110   2.723  18.319 -0.0238  0.1977 -0.0058
83087W        W25999  21.036   0.876  17.827 -0.0619 -0.0600 -0.0266
83088W        W26000  21.244   2.099  18.136 -0.1056  0.2738  0.1202
83089W        W26001  19.851   2.565  18.272  0.2281 -0.0012  0.4075
83090W        W26002  20.945   1.873  17.320  0.0530  0.0075 -0.1869
83091W        W26003  21.401   3.048  19.192 -0.1256 -0.0754 -0.3942
83092W        W26004  20.947   1.478  16.074 -0.0725  0.1395  0.0684
83093W        W26005  20.814   2.483  18.974  0.2315 -0.2779 -0.3914
83094W        W26006  19.033   0.003  17.641 -0.1300  0.1044  0.0976
83095W        W26007  19.927   1.288  15.520 -0.1139 -0.1618 -0.3664
83096W        W26008  19.249   2.113  16.666 -0.0586  0.0136  0.2769
83097W        W26009  19.355   2.485  17.779  0.1665 -0.0133 -0.0862
83098W        W26010  21.512   3.530  19.245  0.0160 -0.0897 -0.1414
83099W        W26011  18.843   0.910  16.793 -0.6238  0.2923  0.0560
83100W        W26012  21.697   1.524  15.757 -0.1051  0.0112 -0.0430
83101W        W26013  21.655   2.305  17.888  0.2968  0.0706 -0.4431
83102W        W26014  21.011   3.939  15.445 -0.0899  0.1445  0.1556
83103W        W26015  21.996   2.558  17.171 -0.0390  0.1106  0.1144
83104W        W26016  20.952   2.791  18.280 -0.0880  0.1706  0.2605
83105W        W26017  18.404  33.627  17.917 -0.0951 -0.3617  0.0909
83106W        W26018  21.199   4.634  18.391  0.2146 -0.1355  0.2117
83107W        W26019  21.876   4.269  17.844  0.1553 -0.2671 -0.1254
83108W        W26020  19.339   0.797  16.673  0.0139 -0.0481 -0.0855
83109W        W26021  19.428   1.941  17.307 -0.2165 -0.1169 -0.1074
83110W        W26022  18.270   4.072  17.001 -0.0412  0.2119 -0.1534
83111W        W26023  22.248   1.273  17.734  0.0047  0.1212 -0.2567
83112W        W26024  20.836   0.424  19.147  0.0270 -0.0529 -0.0031
83113W        W26025  20.532   3.873  16.304 -0.1974  0.2863  0.2161
83114W        W26026  20.105   0.173  18.864 -0.2947 -0.0088 -0.2029
83115W        W26027  20.107   2.603  20.277  0.0679 -0.0513  0.3963
83116W        W26028  19.838   5.066  19.825  0.3085 -0.0102  0.1724
83117W        W26029  18.813   2.495  16.158  0.1965  0.1211 -0.0115
83118W        W26030  19.059   1.647  16.977 -0.0257  0.0435  0.0396
83119W        W26031  20.991   2.883  17.060 -0.2336 -0.2648 -0.1486
83120W        W26032  20.041   2.901  17.231 -0.1553  0.1747 -0.0156
83121W        W26033  21.186   2.975  17.591  0.1548 -0.1066 -0.0904
83122W        W26034  20.958   1.712  18.444 -0.4038  0.5270 -0.0355
83123W        W26035  21.163   3.383  19.566 -0.1447 -0.0222  0.0089
83124W        W26036  19.894  34.387  18.900 -0.1201  0.0721 -0.2228
83125W        W26037  21.076  34.175  17.678  0.0896  0.2610  0.0668
83126W        W26038  20.739   0.717  16.371  0.2057  0.0006 -0.2199
83127W        W26039  19.761   3.747  19.564  0.1036 -0.0518  0.2861
83128W        W26040  18.406   1.016  16.589  0.1430 -0.1637  0.0206
83129W        W26041  19.759   3.370  16.552  0.2017 -0.2931  0.3653
83130W        W26042  18.744   3.526  18.119 -0.0236  0.0077  0.3197
83131W        W26043  19.899  34.316  19.994  0.0480 -0.1782 -0.0954
83132W        W26044  19.753   2.150  17.898  0.0625 -0.2301  0.4083
83133W        W26045  18.953   2.542  16.639  0.1877  0.0632  0.0158
83134W        W26046  19.308   1.097  16.131 -0.0636 -0.3385  0.1779
83135W        W26047  21.397   2.256  16.115  0.0785 -0.0835 -0.0547
83136W        W26048  19.958   0.450  18.498 -0.0982 -0.0347  0.2194
83137W        W26049  20.079   1.319  18.174 -0.3433  0.0112  0.2381
83138W        W26050  22.318   4.221  16.305 -0.0686  0.1851  0.3365
83139W        W26051  21.088   4.263  16.263  0.1254  0.0504 -0.1024
83140W        W26052  18.789   0.607  18.376  0.4537 -0.2212 -0.1719
83141W        W26053  21.694   4.237  20.918 -0.1881  0.0097 -0.0424
83142W        W26054  18.448   2.659  16.452  0.1154  0.0776 -0.0799
83143W        W26055  20.052   2.573  19.429  0.2523  0.1823 -0.1238
83144W        W26056  19.914  34.136  18.350 -0.1968  0.0753  0.1239
83145W        W26057  17.790   1.701  16.226  0.2268 -0.3353 -0.1520
83146W        W26058  19.822   0.911  18.333 -0.0895 -0.2155 -0.1351
83147W        W26059  20.593   3.849  18.381 -0.0665 -0.2203 -0.0615
83148W        W26060  19.514   3.758  15.656 -0.1079 -0.0506  0.2683
83149W        W26061  20.108   3.028  19.128 -0.2739 -0.1861 -0.1236
83150W        W26062  19.369   4.542  18.231 -0.0196  0.3427  0.0295
83151W        W26063  18.446   0.358  17.969  0.0893  0.1607 -0.0627
83152W        W26064  20.893   2.567  16.217  0.2607  0.0659 -0.0477
83153W        W26065  20.559   3.306  18.824 -0.1392 -0.3186  0.2486
83154W        W26066  22.767   2.549  16.122  0.3135 -0.1047  0.3552
83155W        W26067  21.593  34.694  17.765 -0.0721  0.1588  0.1102
83156W        W26068  20.567   2.681  17.102 -0.0167 -0.6070 -0.0123
83157W        W26069  19.442   1.181  20.167  0.1909 -0.5156  0.1950
83158W        W26070  18.920   3.477  19.481  0.4756  0.0465  0.0468
83159W        W26071  18.883   3.197  19.857  0.1123 -0.1672  0.0496
83160W        W26072  19.615  34.622  17.518 -0.1211 -0.3131  0.1901
83161W        W26073  20.218   1.206  17.444 -0.4230 -0.1874  0.0562
83162W        W26074  21.010   3.453  16.686 -0.0596 -0.0269  0.1561
83163W        W26075  18.985   2.774  17.511 -0.2789 -0.1217 -0.2742
83164W        W26076  21.345   1.517  18.225 -0.2330  0.0452 -0.1726
83165W        W26077  19.654   2.874  19.459 -0.0283 -0.1130  0.1623
83166W        W26078  20.685   3.775  17.769  0.1558  0.1499 -0.1962
83167W        W26079  20.740   3.839  18.831  0.0592 -0.2122 -0.1653
83168W        W26080  20.511   1.084  17.972  0.0324  0.1727 -0.0942
83169W        W26081  21.984   2.321  15.372 -0.1081 -0.1552  0.2442
83170W        W26082  19.987   4.372  17.956 -0.1012  0.1895 -0.1238
83171W        W26083  21.049   4.351  20.179 -0.2599  0.1322  0.2822
83172W        W26084  19.475   3.491  18.121 -0.1404 -0.0020 -0.0163
83173W        W26085  21.030   3.343  18.486  0.0508  0.1554  0.1173
83174W        W26086  19.465  33.711  18.795 -0.0909 -0.0077 -0.1065
83175W        W26087  19.941   1.957  17.374  0.0901  0.2354  0.2914
83176W        W26088  20.152   3.157  16.270 -0.2425  0.0016  0.0463
83177W        W26089  19.740   2.081  18.588 -0.1200 -0.3126 -0.1132
83178W        W26090  20.261   1.573  17.120  0.1874 -0.2760 -0.0223
83179W        W26091  20.080   2.467  16.949  0.2341 -0.0105 -0.1945
83180W        W26092  17.937   4.934  18.637 -0.1652 -0.0087 -0.0732
83181W        W26093  20.221   3.961  17.742  0.0775 -0.3431 -0.3043
83182W        W26094  19.284   2.764  23.328 -0.0626 -0.3014 -0.2503
83183W        W26095  19.274   1.649  20.903  0.1151 -0.1640 -0.0409
83184W        W26096  21.349   0.841  19.954  0.0231  0.0574  0.0211
83185W        W26097  21.576   2.468  21.256 -0.0111  0.1805 -0.0388
83186W        W26098  19.531   1.568  21.938  0.0503  0.2803  0.4352
83187W        W26099  20.075   2.067  20.531  0.2019 -0.0418  0.3645
83188W        W26100  19.128   0.497  22.120  0.4016 -0.1363  0.2478
83189W        W26101  20.171   2.697  23.221  0.0782 -0.3097 -0.1573
83190W        W26102  21.263   4.113  23.013  0.1159 -0.1269 -0.1175
83191W        W26103  20.620   4.061  20.068 -0.2139  0.1219 -0.0552
83192W        W26104  20.360   0.345  23.256 -0.2171  0.0920 -0.2015
83193W        W26105  19.571   3.658  22.366  0.1556  0.0520  0.3083
83194W        W26106  20.217   0.605  19.873 -0.1737 -0.1917 -0.2057
83195W        W26107  17.702   0.293  20.751 -0.1138 -0.2630  0.0739
83196W        W26108  20.641   2.146  21.674  0.2300 -0.3852  0.1503
83197W        W26109  19.491   1.709  20.029  0.2055 -0.2687  0.2546
83198W        W26110  17.547   1.375  22.051 -0.0130  0.2443  0.1444
83199W        W26111  20.051   0.395  22.197 -0.0377 -0.0229  0.0298
83200W        W26112  19.574   4.057  22.733  0.1408 -0.2079 -0.1468
83201W        W26113  19.081   1.081  23.138 -0.3429 -0.1066  0.1659
83202W        W26114  20.420  34.351  22.563  0.1999  0.0818  0.2654
83203W        W26115  20.154   3.997  19.329 -0.1219  0.1906 -0.1441
83204W        W26116  18.461   0.731  19.687  0.2787 -0.1834 -0.2614
83205W        W26117  18.575   1.383  22.112  0.0734 -0.0951  0.1327
83206W        W26118  18.795   1.107  21.039 -0.1285 -0.0168  0.1073
83207W        W26119  20.646   0.736  23.057 -0.1553  0.1222  0.0825
83208W        W26120  20.246   0.757  20.977  0.3280  0.0687 -0.3114
83209W        W26121  18.754   3.384  21.863 -0.1649  0.3652  0.1359
83210W        W26122  19.241   4.041  21.470 -0.2271 -0.4212 -0.0143
83211W        W26123  20.401   1.145  23.675  0.1774 -0.1219 -0.3691
83212W        W26124  18.286   1.887  20.519  0.1408 -0.0556 -0.0452
83213W        W26125  18.244   3.825  20.170 -0.2550 -0.0762  0.2604
83214W        W26126  18.245   2.400  19.739  0.1621 -0.2635  0.0824
83215W        W26127  22.620   2.451  21.348 -0.0961  0.1438  0.0157
83216W        W26128  20.357   1.927  25.810 -0.1541 -0.2834 -0.0925
83217W        W26129  19.114   4.281  24.283 -0.2756  0.1484  0.0451
83218W        W26130  16.882   2.548  19.968  0.2651 -0.0645  0.0700
83219W        W26131  20.806   4.025  23.064  0.2906 -0.1456 -0.0042
83220W        W26132  18.128   3.256  24.197  0.0521 -0.2312  0.2519
83221W        W26133  20.333   0.689  23.578 -0.0653 -0.0116  0.1060
83222W        W26134  20.021   1.366  22.241 -0.1511 -0.4125 -0.0579
83223W        W26135  18.589   3.330  20.248  0.3911 -0.1331  0.2637
83224W        W26136  21.273   2.249  20.859 -0.0621  0.1573 -0.0671
83225W        W26137  19.540   1.958  22.968  0.2524 -0.2030  0.0569
83226W        W26138  19.778   2.935  19.948  0.1356  0.0552 -0.0507
83227W        W26139  21.004   0.377  23.168 -0.1758  0.0237  0.0532
83228W        W26140  18.246   3.347  19.893  0.1024 -0.1826 -0.1397
83229W        W26141  21.338   1.844  20.236 -0.2389 -0.1730  0.0638
83230W        W26142  21.818   1.851  20.016  0.0724  0.0184  0.5927
83231W        W26143  21.087  34.668  21.763 -0.0040  0.0476  0.0363
83232W        W26144  20.389  34.435  22.043 -0.0304 -0.2924  0.2362
83233W        W26145  19.503   2.780  21.760 -0.3188 -0.1865 -0.1428
83234W        W26146  19.860   0.553  23.228 -0.0297  0.0868  0.0307
83235W        W26147  21.603   2.698  24.810  0.1770 -0.0719  0.3923
83236W        W26148  19.616   1.759  20.526 -0.1001  0.0346  0.1047
83237W        W26149  19.685   1.329  20.805 -0.3669 -0.2062 -0.0696
83238W        W26150  18.432   4.377  22.031  0.0229 -0.1933  0.3027
83239W        W26151  19.252   1.930  22.327  0.2527 -0.3137 -0.1822
83240W        W26152  21.718   3.661  20.512  0.1063 -0.2624 -0.1780
83241W        W26153  22.243   1.491  22.438 -0.1629 -0.1706  0.0597
83242W        W26154  21.070   3.405  20.680  0.4381  0.1588  0.2918
83243W        W26155  17.694   1.936  20.489  0.0610 -0.2172  0.1753
83244W        W26156  18.135   2.610  21.715 -0.2606  0.0235 -0.2298
83245W        W26157  18.398   1.630  23.137  0.1544  0.0002  0.0193
83246W        W26158  19.739   0.253  20.846 -0.2089  0.0224 -0.1692
83247W        W26159  21.142   2.979  24.978  0.0532 -0.1813  0.1899
83248W        W26160  18.084   2.142  21.436 -0.1484  0.3807 -0.2046
83249W        W26161  21.409   1.095  21.331  0.0607  0.1568  0.1411
83250W        W26162  18.940   1.901  21.778 -0.0405  0.1467 -0.1125
83251W        W26163  21.304   2.364  23.349  0.0401 -0.1126 -0.3754
83252W        W26164  21.435   2.800  20.100 -0.0607 -0.0447  0.1631
83253W        W26165  21.332   0.734  22.473 -0.1111 -0.0472 -0.2999
83254W        W26166  21.269   1.060  24.087  0.0994 -0.0039 -0.2255
83255W        W26167  18.916   1.152  19.607  0.2027  0.0899  0.4220
83256W        W26168  19.901   3.005  22.196 -0.0425 -0.2201 -0.0840
83257W        W26169  21.542   2.490  23.860  0.0447  0.0086 -0.0482
83258W        W26170  21.717   2.355  19.883 -0.3298  0.0746  0.2329
83259W        W26171  18.014   2.253  20.185  0.2105  0.2339 -0.1787
83260W        W26172  20.142   0.967  24.429  0.0570  0.1985 -0.0089
83261W        W26173  19.550   2.258  23.620  0.1332 -0.1855  0.2036
83262W        W26174  19.209   3.841  19.712 -0.1366  0.0175 -0.1356
83263W        W26175  17.265   2.353  22.077  0.3382 -0.2656  0.1752
83264W        W26176  19.293   2.324  20.125 -0.0119  0.3451 -0.0875
83265W        W26177  17.363   0.010  21.598 -0.0877  0.1576  0.0672
83266W        W26178  19.518   5.024  21.340  0.2543 -0.1622  0.2383
83267W        W26179  21.722   1.278  21.709 -0.0226 -0.0840  0.0311
83268W        W26180  18.281   0.543  21.648 -0.0242  0.0510  0.0813
83269W        W26181  22.186   0.770  21.809 -0.1611  0.1790 -0.0303
83270W        W26182  19.170   2.766  19.893  0.1092  0.2556 -0.0593
83271W        W26183  19.682   4.113  21.669  0.0876  0.0705 -0.1615
83272W        W26184  20.730   0.364  20.230 -0.1392 -0.0766 -0.0083
83273W        W26185  22.425   3.154  20.873  0.3829 -0.3806  0.1289
83274W        W26186  17.564   1.581  22.512 -0.0248  0.0238  0.1674
83275W        W26187  18.450   1.045  21.704  0.1536  0.2398 -0.0695
83276W        W26188  18.183  33.354  24.242  0.3794 -0.2119  0.0884
83277W        W26189  17.506  33.755  21.869 -0.1398  0.1737  0.0063
83278W        W26190  20.256   2.780  23.695  0.2896  0.2123 -0.2372
83279W        W26191  19.999   0.036  19.700 -0.3804 -0.1152 -0.2567
83280W        W26192  20.523   0.244  21.959 -0.1014 -0.4134 -0.0377
83281W        W26193  18.206   1.270  20.341  0.1807 -0.2001 -0.0666
83282W        W26194  19.089   3.090  20.243  0.4345  0.1684 -0.2722
83283W        W26195  21.086   1.666  24.375 -0.2063  0.1466  0.1094
83284W        W26196  21.033   3.467  21.216 -0.0248 -0.2404  0.0265
83285W        W26197  21.635   3.006  23.924  0.0372  0.2805  0.1059
83286W        W26198  20.569   2.225  23.603 -0.0884 -0.1260  0.2312
83287W        W26199  18.456   1.814  21.604  0.0727  0.1538 -0.0083
83288W        W26200  19.314   0.809  19.761  0.2142 -0.0767 -0.0154
83289W        W26201  17.621   5.477  20.488 -0.1043  0.3388 -0.0217
83290W        W26202  19.385   3.536  21.503 -0.1377  0.1174  0.0106
83291W        W26203  20.493   1.846  19.638 -0.1043 -0.1893  0.0981
83292W        W26204  21.267   2.850  23.587 -0.1074 -0.0862 -0.0301
83293W        W26205  19.467   2.992  21.261 -0.5728 -0.0446  0.0515
83294W        W26206  18.041   1.727  20.109 -0.0740 -0.0414 -0.0902
83295W        W26207  20.883   0.468  22.657 -0.2044 -0.3168  0.1718
83296W        W26208  20.403   0.996  21.454  0.2696 -0.1089 -0.1598
83297W        W26209  20.928   2.639  20.790  0.0372  0.2747  0.1238
83298W        W26210  19.658   0.969  18.818 -0.3520  0.2525 -0.1986
83299W        W26211  18.140   3.819  22.823 -0.1361 -0.1833 -0.0855
83300W        W26212  19.346   4.283  19.812 -0.1732  0.1784  0.1408
83301W        W26213  19.149   0.530  20.815  0.1835  0.2835 -0.0436
83302W        W26214  19.900   2.715  22.582 -0.0669  0.1519  0.0955
83303W        W26215  20.944   0.596  21.637 -0.0977  0.3258 -0.1864
83304W        W26216  18.010   1.471  23.925 -0.1790 -0.2117  0.2562
83305W        W26217  21.073   2.707  23.125 -0.2433  0.0638  0.2273
83306W        W26218  19.822   2.140  20.092  0.1664  0.0835 -0.2045
83307W        W26219  18.810   3.028  22.651  0.1190  0.2546  0.2035
83308W        W26220  20.661   0.471  21.188 -0.0384 -0.0998  0.0625
83309W        W26221  21.824   2.241  20.859 -0.2023 -0.1025  0.2653
83310W        W26222  20.765   2.919  22.811  0.1819  0.0519  0.0819
83311W        W26223  21.030   0.920  20.799  0.0078 -0.0154 -0.0297
83312W        W26224  20.129   1.719  18.629  0.0889  0.1543  0.0651
83313W        W26225  20.379   1.369  20.276 -0.0801  0.2260 -0.2831
83314W        W26226  19.757   1.857  23.381 -0.2234 -0.0900  0.1024
83315W        W26227  20.832   2.085  22.162  0.1734 -0.2923  0.1419
83316W        W26228  19.885   2.079  21.414 -0.0172  0.0608 -0.0474
83317W        W26229  20.828   2.103  20.027  0.2846 -0.1265 -0.1267
83318W        W26230  21.859   2.748  20.426  0.0124  0.1820  0.1006
83319W        W26231  17.807   2.035  19.697 -0.0514  0.0306  0.1015
83320W        W26232  19.575   2.980  26.044  0.3279 -0.1355  0.0815
83321W        W26233  20.724   2.700  20.162 -0.0851 -0.0075  0.0421
83322W        W26234  21.688  34.036  22.276 -0.3224 -0.0850  0.3175
83323W        W26235  20.244   1.444  19.574  0.2964  0.0379 -0.1032
83324W        W26236  21.348  33.386  21.500 -0.0894  0.0307  0.0149
83325W        W26237  18.628   3.682  19.837 -0.1251 -0.1641 -0.0234
83326W        W26238  21.221   0.297  21.294 -0.0124 -0.0445  0.1547
83327W        W26239  19.969  34.692  21.832  0.1702  0.1840  0.1202
83328W        W26240  19.981   0.699  23.972 -0.2959 -0.0756 -0.0655
83329W        W26241  20.572   2.248  25.425  0.2275  0.0592 -0.0355
83330W        W26242  22.194   2.601  20.957  0.1527  0.0366  0.3935
83331W        W26243  20.244   1.321  21.104  0.2284  0.1473 -0.3279
83332W        W26244  20.779   1.377  19.403  0.3061  0.1647 -0.0548
83333W        W26245  18.860   1.834  23.259  0.0551 -0.1860  0.0027
83334W        W26246  19.019   2.211  22.737  0.1369 -0.0865 -0.2300
83335W        W26247  18.629   2.868  21.721  0.1602  0.2235  0.0320
83336W        W26248  20.993   3.097  25.688  0.0104  0.0701 -0.2561
83337W        W26249  22.199   2.273  20.530 -0.0919  0.5116 -0.0601
83338W        W26250  19.017   0.812  24.261 -0.0625 -0.0432 -0.0200
83339W        W26251  20.447   0.798  20.280 -0.0033  0.3004 -0.1915
83340W        W26252  18.937   2.950  22.125 -0.1437 -0.2152 -0.0805
83341W        W26253  19.366   2.067  21.216 -0.1431 -0.4127  0.1455
83342W        W26254  19.485   1.207  21.626  0.2165  0.1192 -0.0894
83343W        W26255  17.677   2.426  21.695 -0.0378  0.2133 -0.0649
83344W        W26256  19.977   3.168  20.387  0.0093  0.2072  0.0674
83345W        W26257  20.546   3.342  21.393  0.0077  0.1470  0.1595
83346W        W26258  18.590   2.537  19.272  0.1444  0.0601  0.7090
83347W        W26259  20.898  34.202  22.598  0.1328 -0.0703 -0.2945
83348W        W26260  17.204   2.237  21.033  0.2030  0.2731  0.0004
83349W        W26261  18.961   0.908  20.251  0.1537  0.0909 -0.2535
83350W        W26262  18.980   1.428  20.088  0.1571  0.0745  0.0400
83351W        W26263  20.504  34.570  23.002 -0.1112  0.0101  0.2974
83352W        W26264  21.803   2.371  18.933 -0.1626 -0.1890  0.0673
83353W        W26265  19.289   1.081  20.588  0.0578 -0.0925 -0.2069
83354W        W26266  20.423   1.691  23.029 -0.3244  0.0527 -0.1108
83355W        W26267  18.220   2.990  21.283 -0.0813 -0.1406  0.3554
83356W        W26268  20.487   2.478  22.261 -0.2192  0.1301 -0.3654
83357W        W26269  20.553   0.047  20.626 -0.1728  0.2667 -0.0280
83358W        W26270  21.376   2.806  22.671 -0.0549 -0.0054  0.2965
83359W        W26271  18.278   2.725  23.621 -0.0305 -0.1169 -0.0061
83360W        W26272  18.574   1.160  20.010  0.1214 -0.1355  0.0578
83361W        W26273  20.969   0.675  24.404 -0.2227  0.1943 -0.2574
83362W        W26274  20.481   1.837  20.358  0.0506  0.1246 -0.2405
83363W        W26275  17.170   2.752  19.627 -0.0211  0.0526 -0.1249
83364W        W26276  20.542   3.774  23.637  0.2312 -0.2538  0.0629
83365W        W26277  18.860   2.641  20.904  0.0929  0.0991 -0.1172
83366W        W26278  17.227   1.802  20.774 -0.0608  0.0948  0.0642
83367W        W26279  19.325  34.191  23.490  0.0790 -0.1950 -0.2824
83368W        W26280  20.049   1.954  22.969 -0.1298  0.1882 -0.1175
83369W        W26281  20.143   0.461  22.824  0.1348 -0.1494  0.1310
83370W        W26282  20.193   0.301  21.106 -0.1720  0.1029  0.0192
83371W        W26283  20.490   1.704  20.849 -0.1416  0.0196  0.1573
83372W        W26284  20.302   3.099  22.505 -0.1692  0.0608  0.3794
83373W        W26285  19.905   1.473  23.641  0.0151  0.0295  0.0313
83374W        W26286  19.503   3.598  24.615  0.0582 -0.0323 -0.3117
83375W        W26287  20.336  34.021  23.309 -0.1459 -0.2198  0.1656
83376W        W26288  20.823   4.551  21.075  0.2362 -0.1862 -0.1936
83377W        W26289  21.234   1.491  21.098 -0.0904 -0.2722  0.1736
83378W        W26290  20.128   1.738  19.981 -0.2079  0.1394 -0.2102
83379W        W26291  19.266   0.737  21.469  0.2159 -0.1573 -0.0331
83380W        W26292  19.483   3.375  20.534  0.2078 -0.3613 -0.2555
83381W        W26293  20.530   0.178  22.442  0.1615 -0.0672  0.1373
83382W        W26294  18.413   2.629  22.126  0.0376  0.3089  0.2321
83383W        W26295  19.379   3.313  19.763  0.0324  0.3856  0.0886
83384W        W26296  19.069   3.403  22.355 -0.0699 -0.1653 -0.2486
83385W        W26297  20.569   1.055  20.674 -0.2230  0.2630 -0.1741
83386W        W26298  21.107   2.450  20.418 -0.0016 -0.0162  0.2395
83387W        W26299  19.728   0.064  21.358 -0.1497  0.0739 -0.4176
83388W        W26300  22.386   0.878  24.296 -0.2324 -0.2022  0.0580
83389W        W26301  20.282   3.262  20.812 -0.2660  0.3044 -0.1279
83390W        W26302  21.054   0.336  24.752 -0.1117  0.1891  0.3325
83391W        W26303  18.310   1.099  23.013 -0.1549 -0.0658 -0.2070
83392W        W26304  22.257   2.038  21.692  0.0144  0.2092 -0.0651
83393W        W26305  17.331  34.663  20.522  0.0201 -0.2063 -0.1862
83394W        W26306  19.292   2.552  24.471 -0.2338  0.1066 -0.1923
83395W        W26307  18.555   2.086  23.001  0.2744  0.0721  0.0877
83396W        W26308  19.121  33.679  19.180 -0.0110  0.4148  0.1818
83397W        W26309  18.074  34.454  21.157 -0.1556  0.1740 -0.0435
83398W        W26310  19.568   2.241  21.778  0.1677  0.0702  0.2710
83399W        W26311  20.062   2.294  23.500  0.0226 -0.1737 -0.0801
83400W        W26312  19.604   2.758  20.435  0.0124  0.0785  0.0102
83401W        W26313  21.717   0.787  22.095 -0.1066 -0.0485 -0.0606
83402W        W26314  18.388   1.618  22.627 -0.2195 -0.3428  0.3795
83403W        W26315  21.437   1.180  20.764 -0.0505  0.2011  0.0669
83404W        W26316  21.417   1.663  20.708 -0.1798  0.1087  0.0243
83405W        W26317  18.842   2.007  21.290  0.2857 -0.3100 -0.0018
83406W        W26318  18.803   1.252  22.625 -0.1399  0.3182  0.0865
83407W        W26319  20.095   2.995  21.269  0.0956 -0.1882 -0.3960
83408W        W26320  20.014   0.911  22.508 -0.1948  0.1298  0.0490
83409W        W26321  19.685   1.726  22.476  0.2667 -0.1421 -0.1323
83410W        W26322  20.881   1.938  21.091  0.5203 -0.1066 -0.1463
83411W        W26323  20.335   2.075  24.260  0.0837  0.0532  0.2567
83412W        W26324  17.815   1.207  21.077  0.0590  0.2085 -0.1059
83413W        W26325  20.230   2.754  24.333 -0.1026 -0.0813 -0.1386
83414W        W26326  22.210   1.880  20.901  0.1782 -0.1719 -0.0373
83415W        W26327  22.520  34.565  24.717  0.0251  0.0889 -0.0949
83416W        W26328  21.275   2.990  20.978 -0.0206  0.2823  0.3665
83417W        W26329  20.991   1.015  20.268 -0.0047 -0.1278 -0.0388
83418W        W26330  17.348   1.349  20.883 -0.2502  0.2468  0.0526
83419W        W26331  20.726   1.671  25.445  0.2466 -0.1901 -0.2117
83420W        W26332  20.157   1.080  19.936 -0.1678  0.1947 -0.2956
83421W        W26333  20.949   1.152  23.627  0.1007  0.0937 -0.0294
83422W        W26334  19.030   3.867  21.042  0.1007 -0.2382  0.1075
83423W        W26335  21.487   2.304  22.833 -0.0137  0.2781  0.1984
83424W        W26336  20.815   1.116  21.744 -0.1632 -0.2366 -0.2374
83425W        W26337  18.341   1.843  22.072 -0.1514  0.1498  0.2419
83426W        W26338  19.985   3.482  23.131 -0.1390 -0.1271  0.1493
83427W        W26339  19.541   1.314  18.181  0.0623  0.0793  0.0986
83428W        W26340  19.397   2.005  19.634 -0.2273  0.2045  0.0930
83429W        W26341  19.893   3.071  24.029 -0.0138 -0.0836 -0.1432
83430W        W26342  21.402   1.795  22.956 -0.0255 -0.0805  0.2814
83431W        W26343  18.917  34.634  20.161 -0.2458  0.2008 -0.4877
83432W        W26344  20.738   1.144  24.482  0.1349  0.0481 -0.2367
83433W        W26345  18.607   2.827  20.003 -0.0665  0.2087  0.2431
83434W        W26346  19.612  34.342  21.766  0.0357 -0.2018 -0.0050
83435W        W26347  18.837   3.984  21.975 -0.1800  0.0229 -0.3592
83436W        W26348  17.913   2.590  22.273 -0.1905 -0.0323 -0.1212
83437W        W26349  18.768   1.721  20.829 -0.2860 -0.2678  0.0057
83438W        W26350  19.304   0.480  23.721 -0.0606  0.0994  0.1251
83439W        W26351  21.304   0.239  22.420 -0.0990 -0.0837 -0.4414
83440W        W26352  20.509   0.803  21.989  0.0805 -0.1947  0.0203
83441W        W26353  20.022   1.791  21.769  0.0757 -0.1340 -0.3868
83442W        W26354  19.335   2.609  22.835  0.1377 -0.1510  0.0060
83443W        W26355  18.641   2.242  21.874 -0.2225 -0.0598 -0.1870
83444W        W26356  20.599   2.956  24.038  0.2538 -0.1397  0.2906
83445W        W26357  21.203   3.210  23.058 -0.1132  0.1168  0.0790
83446W        W26358  18.202   3.097  21.767  0.0896 -0.0844 -0.2710
83447W        W26359  17.902   1.572  23.335 -0.3294  0.4133  0.0335
83448W        W26360  18.895   1.335  23.535 -0.1029  0.0469  0.1355
83449W        W26361  20.134   2.482  21.293  0.2411  0.1204 -0.4056
83450W        W26362  18.937   0.378  20.446 -0.0142 -0.0458  0.0805
83451W        W26363  20.331   2.234  19.959  0.0671  0.0166 -0.1294
83452W        W26364  18.108   4.099  23.196  0.1823 -0.2839  0.3253
83453W        W26365  18.479   3.376  22.811  0.0274  0.1563  0.2022
83454W        W26366  19.119   2.103  20.793 -0.0622 -0.1221 -0.0620
83455W        W26367  21.686   2.269  20.369 -0.0565  0.0176 -0.2116
83456W        W26368  20.397   2.720  20.728  0.0057 -0.1226 -0.0090
83457W        W26369  21.039   3.710  22.674  0.0146  0.5343  0.0372
83458W        W26370  20.732   3.115  20.948  0.0047 -0.0438 -0.2620
83459W        W26371  18.773   2.064  20.390  0.0583  0.0855  0.3647
83460W        W26372  19.119   2.445  19.368 -0.0522  0.0196  0.1822
83461W        W26373  20.329   3.673  19.754 -0.2123  0.1048 -0.2114
83462W        W26374  18.760   4.725  20.636 -0.1811 -0.1163 -0.0069
83463W        W26375  21.995   1.981  24.200 -0.1467  0.0817  0.2182
83464W        W26376  21.738   1.213  19.785  0.4718 -0.2278 -0.0745
83465W        W26377  22.073   1.153  22.069 -0.1225 -0.2112  0.1947
83466W        W26378  21.797   0.726  20.695  0.1762  0.1295  0.1437
83467W        W26379  19.752   2.689  23.527  0.3638 -0.0367 -0.3548
83468W        W26380  19.514   1.257  22.372 -0.3448  0.0528  0.1798
83469W        W26381  20.115   0.463  20.560 -0.4019 -0.2163  0.1439
83470W        W26382  20.679   1.241  23.154  0.0036  0.1981  0.0003
83471W        W26383  22.410   0.250  22.989  0.0593 -0.0092  0.0300
83472W        W26384  17.504   3.792  21.771 -0.0058  0.3535 -0.0173
83473W        W26385  20.617   4.005  19.560  0.2428 -0.1708  0.0191
83474W        W26386  19.132   1.738  20.409 -0.5599  0.0489 -0.1702
83475W        W26387  19.391   2.929  22.382 -0.0283  0.1040  0.2352
83476W        W26388  20.848  33.443  21.355  0.0632  0.0560  0.0925
83477W        W26389  19.613   2.234  20.709  0.1105 -0.0610 -0.0824
83478W        W26390  20.285   0.491  21.631  0.1058 -0.0057  0.1780
83479W        W26391  19.220   2.993  20.709  0.1618 -0.0846 -0.0189
83480W        W26392  19.337   2.561  20.923  0.0054 -0.1170  0.4220
83481W        W26393  18.630   3.723  22.388  0.0498 -0.0333 -0.2150
83482W        W26394  19.886   1.381  20.254  0.1758  0.1275 -0.2043
83483W        W26395  22.667   1.110  20.514  0.0963  0.3421  0.1220
83484W        W26396  18.877   1.738  22.680 -0.2134 -0.1315 -0.1505
83485W        W26397  21.302  34.422  22.491 -0.0671  0.0962  0.2245
83486W        W26398  18.017   3.028  22.295  0.0550  0.2107 -0.1634
83487W        W26399  20.317   2.751  19.837 -0.0781 -0.2090 -0.1344
83488W        W26400  19.836   2.516  22.082  0.1147  0.0780  0.2331
83489W        W26401  18.027   0.792  21.201  0.2458 -0.1231 -0.1727
83490W        W26402  20.985   1.806  19.713  0.2453 -0.0092 -0.1489
83491W        W26403  21.754   3.455  24.283 -0.1890  0.1285 -0.3448
83492W        W26404  20.324   2.594  18.974  0.0004  0.2439 -0.1063
83493W        W26405  20.173   1.963  25.313 -0.3937 -0.0209 -0.1859
83494W        W26406  17.892  33.962  21.366  0.1752  0.2674 -0.0350
83495W        W26407  21.698   0.734  21.596  0.1793  0.1332 -0.0490
83496W        W26408  19.026   1.959  19.954 -0.2520 -0.1405 -0.1025
83497W        W26409  20.183   0.956  23.076  0.1317 -0.2074  0.0074
83498W        W26410  21.394   2.895  25.448 -0.3834 -0.1624  0.1107
83499W        W26411  18.770  34.452  21.464  0.0342  0.1765  0.2801
83500W        W26412  21.809   3.248  19.509  0.0671  0.4172 -0.0686
83501W        W26413  22.327   2.008  22.440 -0.2038  0.0881 -0.0351
83502W        W26414  20.097   4.500  19.189  0.1855 -0.1892 -0.1705
83503W        W26415  20.595   3.607  20.690  0.0871 -0.3201  0.0924
83504W        W26416  21.035   4.040  23.525  0.0003  0.0622  0.1632
83505W        W26417  16.456  33.827  21.255  0.0191  0.1110  0.1181
83506W        W26418  20.319   1.917  22.206  0.1877 -0.1812 -0.2945
83507W        W26419  22.084   4.131  24.202 -0.3159  0.2320  0.2792
83508W        W26420  20.307   0.099  20.115 -0.0045 -0.0886  0.0965
83509W        W26421  18.380   1.428  20.834 -0.3021  0.0499 -0.2736
83510W        W26422  19.111   3.578  20.147 -0.0096  0.1074 -0.0190
83511W        W26423  20.863   2.021  23.229  0.4129 -0.5237 -0.1802
83512W        W26424  20.864   0.642  23.578 -0.0777  0.2636 -0.1873
83513W        W26425  20.060   3.608  18.038  0.2654 -0.1046 -0.0327
83514W        W26426  21.286  34.502  23.604  0.0266  0.1706  0.0047
83515W        W26427  20.127   4.198  23.504  0.0214 -0.1612  0.0826
83516W        W26428  18.849   3.391  24.180 -0.1125  0.3176 -0.3183
83517W        W26429  19.349   2.265  18.232 -0.2321 -0.0722  0.0903
83518W        W26430  19.111   2.468  21.913  0.0579  0.2393 -0.1234
83519W        W26431  19.807   1.818  20.989  0.0036 -0.1165 -0.0345
83520W        W26432  19.790   3.148  20.845 -0.1585 -0.1660  0.0566
83521W        W26433  20.902   0.402  22.185  0.0866  0.0846  0.0005
83522W        W26434  19.786   1.567  19.636 -0.0316 -0.4404  0.0635
83523W        W26435  21.160   1.874  21.527 -0.2286 -0.2141 -0.1216
83524W        W26436  19.481   1.007  22.848 -0.1402  0.0697 -0.1389
83525W        W26437  21.279   0.971  21.949 -0.5015  0.1805 -0.1832
83526W        W26438  20.941   1.423  20.668 -0.2208 -0.2571 -0.2653
83527W        W26439  19.784   3.291  22.619  0.2613  0.0255 -0.1609
83528W        W26440  18.516   2.003  19.456  0.0461  0.0905 -0.4819
83529W        W26441  19.408   2.517  18.722 -0.0679  0.0037  0.0588
83530W        W26442  18.596   2.208  20.887 -0.4435 -0.0254  0.0290
83531W        W26443  17.843   0.905  23.153 -0.2587 -0.4463  0.3159
83532W        W26444  18.066   0.279  23.773  0.0323  0.0386 -0.0455
83533W        W26445  18.073   2.186  21.939 -0.0074  0.0543 -0.3020
83534W        W26446  18.646   1.043  20.597  0.0175  0.1119  0.3439
83535W        W26447  23.272   2.298  19.776 -0.2012 -0.2387  0.1454
83536W        W26448  19.062   1.452  22.138 -0.0966 -0.0343 -0.2921
83537W        W26449  19.594  34.682  22.198  0.2893  0.2812 -0.0671
83538W        W26450  20.296   4.094  20.832 -0.0511  0.1113 -0.0558
83539W        W26451  21.713   1.932  21.660 -0.2029 -0.1045 -0.1920
83540W        W26452  19.348   0.221  20.003 -0.4813 -0.1424  0.2587
83541W        W26453  21.452   3.778  24.791 -0.2538  0.2264  0.1044
83542W        W26454  18.155   1.650  19.591 -0.0278 -0.0881  0.0907
83543W        W26455  20.533   0.268  23.816  0.0261  0.0374 -0.2444
83544W        W26456  19.817  34.315  23.333  0.1620  0.0039 -0.1220
83545W        W26457  18.128   0.324  21.051 -0.1838 -0.0509 -0.0262
83546W        W26458  20.439   1.467  21.700  0.0601 -0.1556 -0.1512
83547W        W26459  20.351   1.872  21.336  0.0323  0.1111  0.0841
83548W        W26460  20.925   3.926  20.913  0.4840  0.1554 -0.1174
83549W        W26461  20.243   1.828  23.502 -0.0576 -0.0389  0.0431
83550W        W26462  16.941   5.245  23.278 -0.0066  0.0417 -0.1243
83551W        W26463  17.593   0.221  22.901 -0.1036  0.1336  0.1298
83552W        W26464  20.409   2.245  20.945  0.0492  0.2402 -0.1347
83553W        W26465  20.661   2.447  23.065 -0.0647 -0.0252 -0.1484
83554W        W26466  21.549   2.678  20.773  0.0332  0.0383 -0.1547
83555W        W26467  20.851   1.144  22.482 -0.1188 -0.0245 -0.2419
83556W        W26468  21.216   2.432  19.809 -0.2224 -0.2038  0.0031
83557W        W26469  20.063  34.644  22.595  0.1023 -0.1428 -0.2224
83558W        W26470  19.278   1.440  22.713  0.5531  0.0248  0.0588
83559W        W26471  20.948   1.589  22.838 -0.0617  0.2284 -0.1334
83560W        W26472  20.085   1.105  20.652 -0.2876 -0.0513 -0.2927
83561W        W26473  20.531   0.763  22.496 -0.0762 -0.2950 -0.0612
83562W        W26474  20.073   1.584  20.614  0.2267  0.2996  0.0103
83563W        W26475  17.879   0.155  22.416 -0.0010 -0.0573  0.0609
83564W        W26476  22.177   1.448  19.896  0.0129  0.3180 -0.2670
83565W        W26477  19.766   1.995  22.111 -0.1252 -0.1360  0.0116
83566W        W26478  19.320   3.151  22.877  0.1386  0.2646 -0.0440
83567W        W26479  21.105   2.194  23.785 -0.1091 -0.0867  0.1099
83568W        W26480  20.654   0.587  20.710  0.3965  0.2859  0.0892
83569W        W26481  22.270   2.034  20.136  0.0672 -0.1130  0.2684
83570W        W26482  21.469   3.579  22.869 -0.0741 -0.0127  0.1954
83571W        W26483  20.858   3.539  23.254  0.1723  0.1005  0.1526
83572W        W26484  18.232   4.348  21.568 -0.1681 -0.0950  0.0728
83573W        W26485  20.358   2.604  22.725  0.1561  0.0408  0.1377
83574W        W26486  18.382  34.507  22.058  0.0017  0.0712  0.1317
83575W        W26487  21.147   2.909  20.448 -0.0732  0.3069 -0.3433
83576W        W26488  20.530   2.801  21.432 -0.0412  0.3800  0.1902
83577W        W26489  21.535   0.639  23.901  0.0793  0.0007  0.1095
83578W        W26490  19.999   1.269  21.731  0.2767 -0.0052 -0.1045
83579W        W26491  19.811   0.859  20.306 -0.0478 -0.1371 -0.2870
83580W        W26492  18.480   3.211  22.284  0.3814 -0.0312 -0.0847
83581W        W26493  20.515   1.315  22.167  0.2082  0.0811  0.3933
83582W        W26494  18.035   3.333  24.649  0.0858  0.0719  0.0187
83583W        W26495  20.535   0.696  24.712  0.0233 -0.6781 -0.1587
83584W        W26496  22.009   0.306  22.757 -0.1402 -0.4891 -0.1982
83585W        W26497  20.510   1.582  24.421  0.4011 -0.1238  0.1866
83586W        W26498  18.532   1.937  25.166  0.0022 -0.1095  0.0595
83587W        W26499  20.943   4.362  25.502 -0.0057 -0.1719  0.1144
83588W        W26500  17.118   0.105  27.000  0.0537 -0.1157 -0.0808
83589W        W26501  20.427   1.835  26.445 -0.1485 -0.2460 -0.1994
83590W        W26502  22.366   2.431  25.354  0.0094  0.3543  0.0754
83591W        W26503  19.490   1.358  23.234  0.1287 -0.1694  0.0123
83592W        W26504  19.879   1.107  26.798 -0.0002 -0.0279 -0.0992
83593W        W26505  17.705   2.162  25.825 -0.1385  0.0292  0.0722
83594W        W26506  17.390  34.411  23.144 -0.0117 -0.0320  0.1180
83595W        W26507  16.182  34.298  27.006 -0.0390  0.0747 -0.4536
83596W        W26508  20.428   1.171  26.686 -0.0023  0.1046 -0.0823
83597W        W26509  18.917   2.180  24.330 -0.0310  0.4143 -0.1926
83598W        W26510  18.937   1.848  27.329 -0.1124 -0.0595  0.1415
83599W        W26511  18.984   2.150  25.457 -0.2131  0.1952 -0.0543
83600W        W26512  21.101   4.011  25.901 -0.4727 -0.0514  0.2068
83601W        W26513  20.350   1.034  28.804 -0.1099  0.0656 -0.1707
83602W        W26514  18.561  33.957  25.771 -0.0016  0.1217  0.0705
83603W        W26515  19.418   3.910  24.176 -0.0848  0.1194 -0.1391
83604W        W26516  18.317   0.590  23.446 -0.0992 -0.3209 -0.0511
83605W        W26517  19.270   3.370  26.060 -0.2684 -0.0095 -0.1114
83606W        W26518  18.886   1.834  26.423 -0.1324  0.1962  0.0607
83607W        W26519  20.812  33.863  25.962 -0.2358 -0.1532 -0.1425
83608W        W26520  21.171  34.594  24.502  0.4091 -0.4435  0.0006
83609W        W26521  19.468   3.749  23.625 -0.0608  0.1321 -0.2307
83610W        W26522  19.066   2.499  23.706 -0.1612 -0.5147 -0.0648
83611W        W26523  22.606   0.251  27.270 -0.0178  0.1115 -0.1351
83612W        W26524  17.872   2.889  24.464  0.1732  0.4772  0.0478
83613W        W26525  18.679   3.732  25.572  0.0959  0.3699  0.0419
83614W        W26526  19.924   1.963  23.873 -0.1693 -0.2117 -0.2147
83615W        W26527  20.762   1.679  26.004 -0.0661 -0.0264 -0.0436
83616W        W26528  21.751   1.611  26.826 -0.2598 -0.0063  0.2714
83617W        W26529  19.977   1.924  26.905 -0.3249 -0.3158  0.1805
83618W        W26530  18.978   3.738  23.854  0.5518 -0.0363 -0.0343
83619W        W26531  21.623   2.897  26.668 -0.0614  0.3454 -0.3049
83620W        W26532  19.089   2.530  27.716  0.0411  0.0948  0.2864
83621W        W26533  20.238  34.558  26.272 -0.1313  0.0170 -0.0873
83622W        W26534  20.384   1.515  25.028  0.0311 -0.0518  0.5443
83623W        W26535  18.669   2.275  23.448 -0.0973  0.0522 -0.1446
83624W        W26536  20.897   2.142  24.404 -0.0093 -0.1191  0.2330
83625W        W26537  20.842   2.322  27.018 -0.4736 -0.0724  0.1059
83626W        W26538  18.958   2.655  25.275  0.1471  0.1991 -0.0951
83627W        W26539  21.953   0.662  27.835 -0.2855 -0.1537 -0.3372
83628W        W26540  18.323   4.089  24.375  0.1349 -0.0316 -0.2362
83629W        W26541  21.502   0.276  24.289  0.1297 -0.0201  0.0808
83630W        W26542  19.310   0.621  24.587 -0.3366  0.1037  0.1806
83631W        W26543  21.928   1.668  25.184  0.1194 -0.1755  0.1971
83632W        W26544  19.024  34.260  25.379 -0.0016  0.0569 -0.2025
83633W        W26545  18.323   4.918  25.218  0.0990  0.0240  0.2625
83634W        W26546  18.895   0.959  26.318  0.1823 -0.4135 -0.3377
83635W        W26547  22.026   2.251  27.331  0.1063 -0.0144  0.3548
83636W        W26548  20.704   1.631  22.457  0.0962 -0.1019 -0.2178
83637W        W26549  20.993  34.689  27.001 -0.1377  0.0043 -0.0886
83638W        W26550  17.900   3.225  26.114 -0.3795 -0.0103  0.4627
83639W        W26551  19.141   0.344  25.120  0.0700 -0.1640 -0.2052
83640W        W26552  20.547   2.458  24.070 -0.0936 -0.0288  0.3671
83641W        W26553  22.700   2.141  25.708  0.1437 -0.1070 -0.1663
83642W        W26554  20.717   0.882  24.011  0.1028  0.0109 -0.2075
83643W        W26555  17.939   1.745  24.453 -0.2523  0.2593  0.0881
83644W        W26556  19.157   1.707  28.436 -0.0376 -0.1960  0.1125
83645W        W26557  18.533   1.747  26.806 -0.1024 -0.2103 -0.2893
83646W        W26558  19.127   0.023  23.470 -0.2268  0.0383 -0.2935
83647W        W26559  21.543   1.133  26.917  0.2112 -0.1592  0.1176
83648W        W26560  18.083   3.556  26.520 -0.3932 -0.4215 -0.2772
83649W        W26561  21.126  34.199  24.785 -0.2404 -0.3653 -0.0206
83650W        W26562  19.609   1.553  25.923 -0.1089  0.1437 -0.0645
83651W        W26563  21.351   2.165  26.035 -0.3154 -0.1127  0.0179
83652W        W26564  21.252   2.476  25.242 -0.0516  0.2013  0.1824
83653W        W26565  21.337   0.567  26.098  0.0607 -0.2050  0.0303
83654W        W26566  19.242  34.336  26.512  0.0792  0.2606 -0.3976
83655W        W26567  18.396   1.800  24.699 -0.0669  0.2468 -0.0020
83656W        W26568  18.776   1.816  25.819 -0.0645 -0.0891 -0.3500
83657W        W26569  23.355   2.542  26.921 -0.4864 -0.1027  0.5595
83658W        W26570  21.028   0.803  24.894  0.1309  0.0531  0.2060
83659W        W26571  17.869   2.801  25.051 -0.0978  0.2275  0.1965
83660W        W26572  19.422   0.307  27.816 -0.1508 -0.1813 -0.2655
83661W        W26573  20.809   3.552  25.850 -0.3598  0.4329  0.0033
83662W        W26574  17.661   3.886  22.278  0.0600  0.1033  0.2131
83663W        W26575  18.520   2.298  25.633 -0.1307  0.1005  0.3009
83664W        W26576  17.439   1.664  23.221  0.0459  0.1884  0.0712
83665W        W26577  18.412   1.450  25.687 -0.1442  0.2786 -0.0794
83666W        W26578  20.162   1.920  24.771 -0.0040 -0.3714  0.2318
83667W        W26579  20.880   0.899  25.369  0.0178 -0.1098  0.2540
83668W        W26580  20.083   0.408  25.698  0.0749 -0.0792  0.2893
83669W        W26581  21.535  34.173  24.581  0.3141 -0.0754 -0.1676
83670W        W26582  18.338   2.165  24.305  0.0216 -0.0381 -0.1122
83671W        W26583  21.809   4.019  26.495 -0.2230 -0.1731 -0.0457
83672W        W26584  22.481   1.378  24.629 -0.1715  0.0760  0.3956
83673W        W26585  20.977   2.452  22.659 -0.2039  0.1132  0.0541
83674W        W26586  17.785   1.809  24.905 -0.2343 -0.0250  0.1033
83675W        W26587  19.044   0.860  25.296  0.0732 -0.2093 -0.1895
83676W        W26588  19.779   1.062  27.273  0.3010  0.2056  0.0161
83677W        W26589  17.437   0.597  27.313 -0.1846 -0.2049 -0.0620
83678W        W26590  21.718   0.887  26.113  0.3358 -0.0333  0.0870
83679W        W26591  19.670   0.403  22.776  0.1877  0.0080  0.0225
83680W        W26592  21.310   0.097  25.701 -0.0192 -0.1136  0.2388
83681W        W26593  19.598   1.862  25.107  0.0286 -0.2225  0.0458
83682W        W26594  19.259   2.010  26.013  0.0376  0.2459  0.2298
83683W        W26595  20.386   0.532  27.362 -0.2645  0.3301  0.1184
83684W        W26596  20.576   3.235  24.435 -0.1727 -0.0402 -0.0928
83685W        W26597  22.455   1.483  27.447 -0.1564 -0.0209  0.1738
83686W        W26598  21.228   2.620  26.195  0.2702 -0.0977 -0.0923
83687W        W26599  17.844  34.640  26.391 -0.0950 -0.1069 -0.0479
83688W        W26600  19.227   1.288  24.919  0.1100 -0.1848  0.2005
83689W        W26601  17.742   5.860  26.682 -0.2886  0.0375 -0.2182
83690W        W26602  19.196   2.194  23.232  0.1437 -0.0364  0.1540
83691W        W26603  20.006   0.042  24.584 -0.0887  0.1447  0.4151
83692W        W26604  23.050   3.995  25.172 -0.3716  0.0749  0.0876
83693W        W26605  19.821   1.995  24.367  0.0367  0.2800  0.0297
83694W        W26606  19.512   2.823  25.456  0.1688 -0.5010 -0.1744
83695W        W26607  20.268  34.320  25.419 -0.1255 -0.3507  0.1801
83696W        W26608  21.736   2.417  26.320 -0.1475 -0.0741 -0.0966
83697W        W26609  20.337   1.278  25.504  0.1121  0.0685  0.4248
83698W        W26610  18.945  34.288  23.208 -0.0638 -0.1783 -0.2541
83699W        W26611  21.342   3.104  26.171 -0.0179 -0.3316 -0.1094
83700W        W26612  18.558   3.126  23.871 -0.2312  0.1977 -0.1218
83701W        W26613  19.638   3.298  24.987 -0.1374 -0.1306 -0.2716
83702W        W26614  20.897   2.748  24.497 -0.2952 -0.2470  0.2376
83703W        W26615  21.829   1.979  26.030  0.3527  0.0031 -0.4568
83704W        W26616  18.642   2.764  27.605 -0.0303 -0.2044  0.1026
83705W        W26617  20.749  34.303  25.758  0.2025 -0.2578 -0.1455
83706W        W26618  18.589   1.096  23.997  0.2576  0.1652  0.2266
83707W        W26619  18.329   2.706  26.675 -0.2286 -0.1758 -0.0466
83708W        W26620  20.708  34.091  25.003 -0.1900  0.0007  0.3363
83709W        W26621  20.395   0.782  25.292 -0.1628 -0.3933  0.1936
83710W        W26622  18.991  34.511  26.977 -0.2319  0.0209 -0.2240
83711W        W26623  19.856   1.089  25.855 -0.0662  0.2494 -0.3639
83712W        W26624  21.208   1.215  24.576  0.3262  0.2429 -0.3343
83713W        W26625  20.840   0.212  24.305 -0.2770 -0.1216 -0.2226
83714W        W26626  18.482   3.497  27.817  0.1346  0.1200  0.2343
83715W        W26627  20.065   2.358  25.701 -0.0374 -0.0914  0.1593
83716W        W26628  19.581   1.812  26.420 -0.2961  0.0909  0.1810
83717W        W26629  19.465   0.746  25.099 -0.0636 -0.0337  0.1936
83718W        W26630  22.389   2.991  26.067 -0.3436  0.1531  0.5063
83719W        W26631  18.871   1.685  24.770  0.0653  0.2470 -0.4747
83720W        W26632  20.775   1.027  26.306  0.0591 -0.0293 -0.1482
83721W        W26633  20.307   1.589  23.979  0.2741  0.2117 -0.0015
83722W        W26634  19.453  34.173  27.008 -0.2128 -0.0869  0.0413
83723W        W26635  19.836   1.077  21.216  0.3088 -0.1506  0.1653
83724W        W26636  19.684   0.979  24.622 -0.3870  0.0237 -0.1374
83725W        W26637  17.324   2.889  25.202 -0.0952 -0.2444  0.0269
83726W        W26638  21.440  33.702  26.673 -0.0216 -0.0148 -0.0674
83727W        W26639  20.427   0.438  26.426 -0.1753  0.1737  0.1930
83728W        W26640  19.400   0.084  26.783 -0.0853 -0.1039 -0.0269
83729W        W26641  22.734   0.845  26.961  0.2857  0.3531  0.1036
83730W        W26642  21.131   1.257  25.122 -0.0274 -0.0086  0.3726
83731W        W26643  20.605   0.514  25.650 -0.0162  0.0206  0.0180
83732W        W26644  19.557   0.724  22.328 -0.1429  0.0513 -0.0734
83733W        W26645  19.753   1.242  26.348 -0.2900  0.3198  0.3038
83734W        W26646  17.995   1.010  25.176 -0.0954 -0.0023 -0.2477
83735W        W26647  17.747   4.503  25.879 -0.2728  0.2922  0.1132
83736W        W26648  20.881   0.996  26.907  0.0556  0.3872  0.0334
83737W        W26649  19.428   2.331  25.261  0.0124  0.1593  0.2142
83738W        W26650  18.271   0.837  26.264 -0.0783  0.0293  0.1184
83739W        W26651  18.501  34.623  24.008 -0.1065 -0.1964  0.1272
83740W        W26652  20.136   3.286  24.690 -0.0385 -0.2431  0.3143
83741W        W26653  20.187   1.676  22.584  0.3586  0.1801 -0.2252
83742W        W26654  20.351   0.032  25.771 -0.0013 -0.0056  0.1486
83743W        W26655  18.278   2.482  23.151  0.0087  0.1076  0.1998
83744W        W26656  19.753   3.051  23.064  0.0714  0.0495  0.0639
83745W        W26657  20.528   1.937  27.091  0.0262 -0.2075  0.0719
83746W        W26658  18.819   2.784  24.156  0.0255 -0.0762 -0.1393
83747W        W26659  21.351   0.073  26.187 -0.0567 -0.0315  0.1770
83748W        W26660  19.508   2.733  24.884 -0.0347  0.1167 -0.0361
83749W        W26661  19.073   0.890  23.789 -0.0179  0.0451  0.1867
83750W        W26662  16.739   2.824  24.679  0.0350 -0.1599 -0.0363
83751W        W26663  19.438  34.492  25.046  0.0309  0.2678 -0.0369
83752W        W26664  21.180   2.134  24.822 -0.1041  0.3417 -0.0747
83753W        W26665  18.526   0.449  24.170  0.4294 -0.0525  0.1291
83754W        W26666  20.502   0.224  24.758  0.1151 -0.1952  0.1088
83755W        W26667  18.154   2.219  26.658 -0.0548 -0.1404  0.1575
83756W        W26668  19.489   0.068  26.235  0.0646 -0.1333  0.1395
83757W        W26669  21.331  33.838  23.407  0.0590 -0.3483  0.1533
83758W        W26670  19.742   1.151  28.135 -0.0134  0.2838  0.3545
83759W        W26671  19.509   2.437  26.076 -0.0540 -0.1643 -0.0028
83760W        W26672  19.706  33.982  23.044 -0.0089  0.1498  0.2120
83761W        W26673  20.661   1.113  25.002 -0.0733 -0.3510  0.0988
83762W        W26674  19.583   1.614  24.715 -0.0507  0.0070  0.2223
83763W        W26675  17.150   3.472  24.492 -0.3229 -0.0677 -0.0977
83764W        W26676  20.357   2.286  26.206 -0.0810  0.0533 -0.0822
83765W        W26677  18.557   1.362  24.886 -0.1816  0.0444 -0.1872
83766W        W26678  18.578   2.400  23.935 -0.0714 -0.5454 -0.0504
83767W        W26679  20.778   1.479  26.554 -0.0242 -0.1873  0.0900
83768W        W26680  20.089   1.530  26.634 -0.2451  0.0571 -0.2876
83769W        W26681  20.812   0.071  26.002  0.1413 -0.0977  0.0562
83770W        W26682  20.446  34.569  24.119 -0.1566 -0.0046  0.1304
83771W        W26683  19.181   1.749  24.371 -0.2427 -0.2277 -0.1090
83772W        W26684  22.372   2.702  27.135  0.0734  0.0209  0.2926
83773W        W26685  20.856   0.534  27.184  0.1157 -0.1556  0.1577
83774W        W26686  19.799   4.047  26.184  0.2952 -0.1255  0.0259
83775W        W26687  19.150  34.477  25.981 -0.4151  0.1163  0.0308
83776W        W26688  21.787   3.019  25.134  0.2728  0.1980  0.2428
83777W        W26689  20.017   0.441  27.641 -0.1360 -0.1513 -0.0046
83778W        W26690  19.647   1.601  24.150  0.0855  0.0651 -0.2157
83779W        W26691  18.294   2.901  24.828 -0.0335  0.3707  0.3218
83780W        W26692  20.847   2.867  25.322  0.1506  0.0473 -0.0785
83781W        W26693  20.817   0.014  25.515 -0.2631 -0.2277 -0.2199
83782W        W26694  20.073   2.642  27.316 -0.1022 -0.1525 -0.2912
83783W        W26695  17.959   1.968  23.979  0.0278  0.4011  0.0306
83784W        W26696  18.253   3.018  25.823 -0.1080  0.0140 -0.0967
83785W        W26697  21.419   0.707  24.623  0.0641 -0.1243 -0.0170
83786W        W26698  19.433   1.236  23.740 -0.0592  0.3206 -0.1391
83787W        W26699  19.248   2.151  26.565 -0.1139 -0.0212 -0.0128
83788W        W26700  22.090   0.072  27.262 -0.2398  0.0772 -0.1816
83789W        W26701  19.912   1.012  23.549  0.2534 -0.1572  0.0633
83790W        W26702  19.374  34.144  27.526  0.1230 -0.1137 -0.1756
83791W        W26703  19.956   0.244  26.441 -0.2781  0.1146 -0.1627
83792W        W26704  20.379   2.626  25.201 -0.1849  0.1403  0.4545
83793W        W26705  18.378   0.646  24.910  0.3330 -0.0663 -0.1559
83794W        W26706  19.822   1.967  28.051 -0.0507  0.0376 -0.1759
83795W        W26707  18.239   1.917  25.754  0.1791 -0.2106 -0.0115
83796W        W26708  20.009   1.516  24.492  0.1302 -0.1378  0.0253
83797W        W26709  19.038   1.388  24.009 -0.0964 -0.1238  0.0424
83798W        W26710  18.949   0.901  24.785  0.1924 -0.2065  0.0489
83799W        W26711  23.457   3.667  27.360 -0.2194  0.0807 -0.0261
83800W        W26712  17.882   2.355  23.542 -0.4586  0.3354  0.0148
83801W        W26713  20.176   1.104  24.891  0.3091 -0.0519  0.1686
83802W        W26714  18.225   3.499  25.562  0.0960  0.1364 -0.0687
83803W        W26715  20.786   1.091  25.817 -0.1951  0.2155 -0.4320
83804W        W26716  19.438   2.196  24.093  0.0552  0.0517 -0.0701
83805W        W26717  19.943   2.407  24.085 -0.0975 -0.0130  0.3678
83806W        W26718  19.359  34.680  25.547 -0.3511  0.1385  0.0452
83807W        W26719  21.252   1.048  26.027  0.1237 -0.0231 -0.3149
83808W        W26720  19.655   0.213  24.882  0.0280  0.0076 -0.2879
83809W        W26721  19.778  34.330  26.593 -0.1183  0.1877 -0.1708
83810W        W26722  20.636  34.418  27.865  0.0251 -0.2100 -0.2220
83811W        W26723  19.724   0.588  26.049  0.0315 -0.2585 -0.2461
83812W        W26724  17.374   1.377  25.623 -0.1615 -0.1533  0.1872
83813W        W26725  21.282   2.333  26.793 -0.3147  0.0952 -0.1611
83814W        W26726  21.888   1.050  24.518  0.3442  0.0085 -0.1510
83815W        W26727  22.398  34.202  26.682  0.0677  0.2019  0.0614
83816W        W26728  21.689   1.343  25.925  0.0302 -0.0591 -0.0803
83817W        W26729  20.655   2.004  24.974  0.2772 -0.5105  0.0996
83818W        W26730  17.694   0.879  26.406 -0.0687 -0.1234 -0.1771
83819W        W26731  20.782   1.448  27.078  0.1453  0.1986  0.1382
83820W        W26732  19.548   0.181  23.409 -0.1708  0.0594  0.0444
83821W        W26733  20.048  33.755  26.228 -0.2640  0.1394 -0.1786
83822W        W26734  18.959   3.216  23.162  0.1006  0.1341 -0.0899
83823W        W26735  21.157   1.729  25.165 -0.1356  0.2276  0.2440
83824W        W26736  19.263   1.449  26.294 -0.2825 -0.1647  0.2723
83825W        W26737  17.758   0.226  24.750 -0.0000  0.1781 -0.2034
83826W        W26738  17.929   2.380  27.158 -0.1220  0.2686 -0.1247
83827W        W26739  17.280   1.741  24.910  0.2861  0.1162 -0.2073
83828W        W26740  20.049   1.397  23.192  0.0927 -0.2071  0.1885
83829W        W26741  21.588   0.610  26.523 -0.0455 -0.1138 -0.0248
83830W        W26742  22.211   0.564  27.329 -0.0689 -0.1703 -0.1009
83831W        W26743  18.778  34.638  24.503 -0.0745 -0.1485  0.3808
83832W        W26744  20.825   0.111  26.523 -0.1712  0.2311 -0.0721
83833W        W26745  18.917   1.967  23.863 -0.0935  0.1227  0.1753
83834W        W26746  20.149  33.946  25.079  0.0940 -0.2544  0.0151
83835W        W26747  18.773   3.753  25.072  0.1487  0.1327  0.1359
83836W        W26748  17.694   3.705  26.207  0.0619 -0.0096  0.2138
83837W        W26749  19.294   3.698  25.097 -0.0053 -0.1743 -0.0668
83838W        W26750  19.744   0.083  25.827 -0.1540  0.0619  0.0980
83839W        W26751  21.232   0.969  26.510 -0.0346 -0.1239 -0.0407
83840W        W26752  19.609   2.608  26.524 -0.0964 -0.0247 -0.0085
83841W        W26753  21.322   0.701  26.978  0.0769  0.1012  0.0414
83842W        W26754  20.650   0.956  27.418  0.5076  0.2921  0.0187
83843W        W26755  21.320   3.480  25.772  0.1775 -0.0630  0.0838
83844W        W26756  20.819   2.375  26.447 -0.4978 -0.1225 -0.1027
83845W        W26757  21.548   2.032  25.140  0.0684 -0.1227 -0.3374
83846W        W26758  19.436   2.102  24.641 -0.0227  0.1071  0.0613
83847W        W26759  17.923   1.894  29.234 -0.0157 -0.0111 -0.2626
83848W        W26760  20.987   1.791  27.346  0.2498 -0.1008  0.0259
83849W        W26761  20.775   0.523  26.131 -0.1535 -0.0337  0.1006
83850W        W26762  18.229   0.748  23.918 -0.2071 -0.1406 -0.1559
83851W        W26763  19.376   3.346  24.034  0.3686  0.1283  0.0201
83852W        W26764  18.158   4.537  25.513 -0.0478  0.2910  0.2461
83853W        W26765  19.765   2.373  26.938 -0.0722  0.2269  0.1366
83854W        W26766  18.677   3.561  23.460 -0.2543  0.1460 -0.1266
83855W        W26767  19.462   2.738  23.980  0.4318 -0.1916  0.1044
83856W        W26768  22.736   2.405  24.976  0.1200 -0.2630 -0.0846
83857W        W26769  19.207   4.053  25.579 -0.2528  0.1522 -0.0154
83858W        W26770  19.364   1.269  24.429  0.0960  0.1950 -0.0773
83859W        W26771  18.516   4.174  25.692  0.0863  0.2975  0.0176
83860W        W26772  17.762   2.955  22.790 -0.0355  0.1387  0.1933
83861W        W26773  19.922   2.386  25.102  0.0078  0.1573  0.0997
83862W        W26774  18.518   3.611  24.548 -0.0191  0.1010  0.2607
83863W        W26775  20.580   1.966  28.736 -0.2131  0.0385 -0.1928
83864W        W26776  21.857   0.952  22.526  0.0817  0.1879  0.1842
83865W        W26777  22.257   1.591  26.719  0.1344  0.5661 -0.1761
83866W        W26778  22.116   1.520  25.749 -0.2053 -0.0081  0.1935
83867W        W26779  20.856   2.970  28.468 -0.0588  0.2384 -0.1298
83868W        W26780  18.908  34.614  24.972  0.0954  0.0097 -0.0855
83869W        W26781  18.272   0.039  23.356 -0.1359  0.1644 -0.1924
83870W        W26782  18.707   2.185  27.725 -0.2358  0.0325 -0.0020
83871W        W26783  21.049  34.465  27.453  0.0093  0.2164  0.2136
83872W        W26784  19.705   2.928  26.975 -0.2163  0.0497  0.1167
83873W        W26785  20.549   3.286  25.522  0.1520  0.0524 -0.2924
83874W        W26786  17.501   1.472  23.963 -0.2452 -0.0995 -0.0520
83875W        W26787  19.323   1.320  27.142  0.0684  0.0167  0.1232
83876W        W26788  21.663  34.095  26.479 -0.0812 -0.4133  0.0377
83877W        W26789  18.652   0.919  23.484 -0.0135  0.1773 -0.2449
83878W        W26790  20.821  34.610  24.987  0.2051 -0.1753 -0.4102
83879W        W26791  19.775   3.564  24.168 -0.1592  0.2063 -0.3520
83880W        W26792  19.551   3.684  26.380 -0.0869 -0.1360 -0.3780
83881W        W26793  18.179   4.457  26.531 -0.0614  0.1223 -0.1290
83882W        W26794  18.874   1.317  24.433 -0.0825 -0.0778  0.2042
83883W        W26795  22.173   0.234  25.540 -0.0710  0.1128 -0.0999
83884W        W26796  19.894   2.230  26.416  0.1047 -0.2586 -0.3904
83885W        W26797  20.572  34.369  26.621 -0.0237 -0.2558  0.2606
83886W        W26798  20.039   0.624  24.833 -0.1030 -0.0058 -0.0362
83887W        W26799  20.780   1.371  24.045 -0.0653  0.1429 -0.4415
83888W        W26800  21.797   1.134  27.708 -0.1864 -0.1105 -0.1750
83889W        W26801  18.904   0.036  25.489 -0.1698 -0.0734 -0.0292
83890W        W26802  19.966   1.223  24.072  0.0104 -0.0569  0.0673
83891W        W26803  21.906   0.772  26.944 -0.2300 -0.0245 -0.1200
83892W        W26804  20.422   1.241  22.700  0.0105 -0.3435 -0.0092
83893W        W26805  21.211   3.637  28.977  0.1074  0.0569 -0.0848
83894W        W26806  18.033  34.485  23.890 -0.0643  0.0321  0.3437
83895W        W26807  20.940  34.468  23.973 -0.0468 -0.1283  0.1934
83896W        W26808  18.022   0.531  25.499  0.0169  0.1871  0.1841
83897W        W26809  20.165  34.231  26.888 -0.1515  0.0203 -0.0161
83898W        W26810  20.941   1.932  26.757  0.2010 -0.0401  0.0441
83899W        W26811  18.126   0.623  24.449  0.0001 -0.0200 -0.0457
83900W        W26812  20.568   3.494  25.047 -0.2247  0.1904  0.0356
83901W        W26813  21.147   1.426  25.661 -0.1146  0.1467  0.2626
83902W        W26814  19.195   3.145  25.163  0.0502 -0.2465  0.1363
83903W        W26815  20.826   1.556  24.772  0.1707 -0.1146 -0.3008
83904W        W26816  21.106   2.033  25.579  0.0164  0.3298 -0.0394
83905W        W26817  17.795   1.154  25.930 -0.2873 -0.2252  0.1608
83906W        W26818  20.013   2.682  26.140  0.2005  0.2803  0.0328
83907W        W26819  22.071   3.824  26.097 -0.0607  0.0141 -0.0687
83908W        W26820  20.339   0.471  24.284  0.3338 -0.1013 -0.1104
83909W        W26821  18.916   1.392  26.693 -0.0168  0.2454 -0.0481
83910W        W26822  18.890   3.851  24.333 -0.0384  0.0211  0.2217
83911W        W26823  21.854   1.120  26.560 -0.3225 -0.0078  0.2270
83912W        W26824  19.898  34.408  27.404 -0.2776  0.0727  0.2629
83913W        W26825  18.293   3.695  21.928 -0.0269 -0.3724 -0.1304
83914W        W26826  21.522  34.082  26.961 -0.0864 -0.1806 -0.1598
83915W        W26827  19.520   1.719  27.479  0.1543  0.0378 -0.1149
83916W        W26828  20.256   2.361  28.565 -0.1393  0.2150  0.1030
83917W        W26829  17.094   0.098  23.032 -0.1931 -0.1790  0.0865
83918W        W26830  20.406   0.681  26.826 -0.1987 -0.1173 -0.3208
83919W        W26831  20.432   2.410  24.661 -0.0795  0.1157  0.0476
83920W        W26832  18.136   5.109  24.818  0.1931 -0.2526  0.0233
83921W        W26833  21.607   3.548  26.327  0.1948  0.1820  0.0986
83922W        W26834  19.404   1.010  26.042 -0.5098 -0.1142 -0.1079
83923W        W26835  22.999   2.864  24.882  0.1203  0.1035 -0.1535
83924W        W26836  19.806   1.367  25.108 -0.0553 -0.0559  0.1522
83925W        W26837  20.703  33.366  24.679  0.0421  0.1369  0.2309
83926W        W26838  21.009  33.766  24.590 -0.1167  0.0379  0.2462
83927W        W26839  19.263   3.137  26.532 -0.1822  0.1886 -0.0236
83928W        W26840  18.276   1.394  24.342 -0.0624 -0.0103  0.3153
83929W        W26841  19.471   2.305  22.518  0.0218  0.0093  0.2184
83930W        W26842  17.878  34.634  25.680 -0.0327 -0.0046  0.1580
83931W        W26843  19.261  32.588  26.425 -0.0363  0.1297 -0.2328
83932W        W26844  20.436   1.479  27.423  0.0727 -0.0463 -0.0653
83933W        W26845  18.629   2.797  25.622  0.0014  0.0256  0.1649
83934W        W26846  16.999   1.519  23.491 -0.0494 -0.0575  0.0431
83935W        W26847  22.210   2.569  26.231  0.1363 -0.5889  0.0033
83936W        W26848  18.710  34.418  25.770 -0.0103  0.0527 -0.2131
83937W        W26849  17.916   1.027  24.179  0.0273  0.0159  0.0703
83938W        W26850  22.388   1.466  25.322  0.0498 -0.0127  0.0472
83939W        W26851  22.639   4.659  24.874  0.5154  0.0726  0.1637
83940W        W26852  20.371  34.457  24.933  0.0484  0.0489 -0.0401
83941W        W26853  20.792   3.242  27.029  0.2691  0.3196  0.0447
83942W        W26854  19.005   3.233  23.645  0.0202 -0.1933 -0.0757
83943W        W26855  19.075  33.953  25.968  0.0997 -0.0934 -0.2792
83944W        W26856  17.564  34.376  26.982 -0.1805  0.0937 -0.0546
83945W        W26857  17.564  34.477  22.058  0.3094 -0.1402  0.0895
83946W        W26858  19.908   0.848  25.301  0.0230 -0.2252  0.3117
83947W        W26859  20.326   1.317  26.106 -0.3376  0.1052 -0.0028
83948W        W26860  21.489   3.257  24.689  0.3924  0.0932 -0.1095
83949W        W26861  18.584   2.709  26.124  0.2065 -0.0764  0.1969
83950W        W26862  18.903   2.509  27.276  0.1572 -0.2073 -0.1867
83951W        W26863  19.065   1.382  25.758 -0.1795  0.2941 -0.1936
83952W        W26864  22.993   2.477  26.024 -0.0019 -0.0141 -0.0232
83953W        W26865  19.998   1.719  26.157  0.1117  0.1210  0.0380
83954W        W26866  24.306   2.317  24.749 -0.2581  0.2109 -0.0794
83955W        W26867  20.447  33.524  25.187  0.1301 -0.1240  0.0566
83956W        W26868  20.042   2.231  22.539 -0.0300 -0.1324 -0.0554
83957W        W26869  18.313   1.550  26.126  0.3403 -0.3811 -0.2203
83958W        W26870  19.375   1.403  25.366 -0.2161 -0.0323  0.1416
83959W        W26871  22.688   3.149  25.574 -0.3846  0.2892 -0.0546
83960W        W26872  18.798   0.459  24.594  0.1336 -0.0803 -0.1135
83961W        W26873  20.031   0.109  24.062 -0.2395 -0.1340  0.2933
83962W        W26874  19.780   2.376  23.101  0.4311 -0.1905 -0.0587
83963W        W26875  18.598   1.037  25.257  0.4235  0.2772 -0.0572
83964W        W26876  20.734   1.642  23.533  0.1405  0.1170 -0.0913
83965W        W26877  20.257   0.014  27.302 -0.2016 -0.3501 -0.2373
83966W        W26878  19.644   2.053  25.676 -0.2122  0.0799 -0.5116
83967W        W26879  21.772   2.109  26.848  0.0182  0.1221 -0.2126
83968W        W26880  17.474   1.258  23.485  0.0334  0.2780  0.1411
83969W        W26881  21.554   1.554  24.847 -0.3326 -0.1335  0.2274
83970W        W26882  20.317   2.132  28.044  0.2534 -0.2238  0.1302
83971W        W26883  21.932   3.512  29.336 -0.0330 -0.0409  0.1204
83972W        W26884  20.563   2.590  25.808  0.0035  0.0150  0.0622
83973W        W26885  22.279   0.600  25.869  0.1808  0.0821 -0.1779
83974W        W26886  17.560  34.217  25.656 -0.2121 -0.1083 -0.0606
83975W        W26887  18.509   1.547  23.760  0.1994 -0.0352 -0.0609
83976W        W26888  18.914   2.898  24.812 -0.3078  0.3241 -0.0129
83977W        W26889  20.892   0.589  26.634 -0.0315 -0.0681 -0.3143
83978W        W26890  18.517   0.976  24.547 -0.0135  0.0320 -0.1752
83979W        W26891  19.450  33.126  24.159 -0.1299 -0.0981 -0.0133
83980W        W26892  19.590   3.284  25.531 -0.2201 -0.0266 -0.0802
83981W        W26893  19.886   1.594  25.503  0.0382 -0.3021 -0.1816
83982W        W26894  19.865   3.828  30.328 -0.0352 -0.3194 -0.2925
83983W        W26895  18.670   1.201  27.716  0.0655 -0.2202  0.4992
83984W        W26896  21.943   1.056  25.634 -0.1307  0.0192 -0.1871
83985W        W26897  22.325   2.095  28.268  0.1713 -0.2917 -0.2170
83986W        W26898  19.088   1.534  30.179  0.0400  0.0970 -0.2730
83987W        W26899  19.023   3.903  28.520  0.0817  0.1559 -0.2365
83988W        W26900  18.641  33.921  30.600 -0.1981  0.2049 -0.0382
83989W        W26901  21.928   2.540  29.141 -0.3228 -0.1112  0.4887
83990W        W26902  21.960   2.590  30.911  0.0458  0.0845 -0.2363
83991W        W26903  19.859  33.926  27.267  0.0174  0.1882  0.1846
83992W        W26904  19.218   2.500  29.841  0.3055  0.4032  0.2387
83993W        W26905  21.321   3.634  30.256 -0.3398 -0.2626 -0.1899
83994W        W26906  18.345  34.221  27.571 -0.2484 -0.4726 -0.0899
83995W        W26907  17.505   0.713  29.791 -0.0382  0.1622  0.1274
83996W        W26908  22.616   1.626  31.197  0.1729  0.0128 -0.1158
83997W        W26909  18.238   1.287  28.013 -0.1683  0.1059  0.0417
83998W        W26910  17.291   1.503  29.174  0.0669 -0.0356  0.0674
83999W        W26911  19.523   0.644  30.253  0.2944 -0.2363 -0.0523
84000W        W26912  18.651   4.215  28.504 -0.1581  0.0038 -0.1764
84001W        W26913  19.483   1.414  29.154 -0.2763  0.0782  0.1824
84002W        W26914  21.068   0.576  31.197  0.1915  0.0204 -0.2007
84003W        W26915  19.512   1.576  28.025 -0.1530  0.2146 -0.2313
84004W        W26916  18.814   1.380  27.265 -0.0428  0.3224  0.1396
84005W        W26917  17.786   1.386  30.074 -0.0339 -0.1094  0.2357
84006W        W26918  20.741   2.239  31.915  0.2213 -0.0403  0.0464
84007W        W26919  20.616   0.571  30.673  0.4454  0.0375 -0.1205
84008W        W26920  21.540   1.797  29.655 -0.1745  0.3108  0.1113
84009W        W26921  18.411   2.465  28.017  0.2907  0.0864  0.4453
84010W        W26922  21.803   1.430  28.778 -0.0373 -0.1926  0.1058
84011W        W26923  21.575   2.564  31.407  0.0703  0.2611  0.3069
84012W        W26924  18.205   2.271  28.780  0.1393  0.3104 -0.1075
84013W        W26925  17.512   4.856  28.178  0.0753 -0.0925 -0.1803
84014W        W26926  18.982   2.382  28.230 -0.1009  0.1190 -0.2935
84015W        W26927  21.756   4.187  28.547  0.0486  0.0906 -0.0414
84016W        W26928  20.195   3.163  30.254 -0.0622 -0.2328  0.1887
84017W        W26929  18.732   4.531  30.199 -0.1160  0.0003  0.0394
84018W        W26930  19.168   3.556  25.590 -0.2772  0.0306 -0.1373
84019W        W26931  20.337   2.530  31.877 -0.0214 -0.0695 -0.1802
84020W        W26932  20.362   2.556  30.630 -0.0284 -0.0671 -0.1311
84021W        W26933  20.517   0.882  29.799  0.1139  0.0691  0.3108
84022W        W26934  20.420   2.804  29.879  0.0826  0.2394 -0.0017
84023W        W26935  20.648   1.305  27.859  0.4016  0.2035  0.0471
84024W        W26936  19.995   3.261  29.122 -0.2085  0.2448  0.3879
84025W        W26937  20.894   0.959  31.517 -0.3115 -0.3778  0.0554
84026W        W26938  18.419   3.645  29.864  0.2309 -0.1461  0.1426
84027W        W26939  22.111   1.647  31.227  0.1766 -0.2082  0.0661
84028W        W26940  19.950   3.239  27.528  0.0879 -0.2807  0.0479
84029W        W26941  20.709   0.107  27.434 -0.0750 -0.1633  0.1658
84030W        W26942  19.269  34.693  28.134 -0.0650  0.2793 -0.0192
84031W        W26943  21.686   0.750  27.380 -0.2271  0.0573 -0.0007
84032W        W26944  19.635  33.985  30.327  0.1139  0.2217  0.0216
84033W        W26945  19.511   2.865  29.427  0.3744  0.0890 -0.0488
84034W        W26946  19.273   0.643  28.118 -0.0996 -0.0257  0.0152
84035W        W26947  21.089   2.340  30.297  0.2401 -0.2371  0.3858
84036W        W26948  20.542   1.459  28.673 -0.0173 -0.0625  0.2758
84037W        W26949  19.505   1.336  29.825  0.0855  0.1972  0.0244
84038W        W26950  18.399   3.477  30.410 -0.4261 -0.0596 -0.0182
84039W        W26951  18.547   2.611  29.034  0.1910  0.0901  0.2419
84040W        W26952  21.669   3.284  28.176 -0.0493 -0.0007  0.4440
84041W        W26953  20.706   2.179  29.375 -0.3469 -0.2367 -0.0656
84042W        W26954  19.801   2.200  28.828 -0.2173  0.1060 -0.0274
84043W        W26955  18.710   2.799  29.934 -0.1565 -0.2065 -0.0362
84044W        W26956  18.853   1.490  30.652 -0.5411  0.0149 -0.0996
84045W        W26957  19.016   1.408  29.427 -0.2214  0.0066  0.3619
84046W        W26958  20.946  34.475  28.336 -0.2803  0.1295 -0.3304
84047W        W26959  20.579   0.762  29.299  0.2162 -0.0392 -0.0730
84048W        W26960  18.715   2.325  30.745 -0.2357 -0.0209 -0.0808
84049W        W26961  20.691   0.256  29.122  0.1690  0.4039  0.2489
84050W        W26962  19.256   1.785  29.716 -0.2319 -0.1847  0.0746
84051W        W26963  20.971   3.351  29.549  0.0282 -0.0037 -0.1968
84052W        W26964  23.166   3.754  28.931  0.0948  0.0292  0.2082
84053W        W26965  19.954  34.256  29.287 -0.0686  0.2339 -0.0195
84054W        W26966  20.568  34.241  28.804  0.3659  0.2169  0.1213
84055W        W26967  20.004   1.503  27.140 -0.0076  0.2176 -0.1109
84056W        W26968  19.755   2.314  27.671  0.1768 -0.1739  0.1881
84057W        W26969  23.122   3.340  30.216  0.0198  0.0301  0.2089
84058W        W26970  21.747   1.096  28.326 -0.0893 -0.0957  0.0544
84059W        W26971  18.949   3.411  29.091  0.0029 -0.2562 -0.3397
84060W        W26972  20.264   1.195  30.765  0.0227  0.0971  0.2339
84061W        W26973  20.201   3.781  31.653  0.1902 -0.2460  0.1461
84062W        W26974  19.117   1.967  27.910 -0.0840 -0.3026  0.3524
84063W        W26975  18.474   2.202  29.623  0.1248  0.0847  0.0857
84064W        W26976  18.747   3.277  26.009 -0.0373  0.2039  0.1784
84065W        W26977  19.373   2.075  30.176  0.0307  0.3353 -0.0498
84066W        W26978  20.064   3.212  28.620 -0.1524  0.3039  0.2123
84067W        W26979  20.178  34.600  29.555 -0.1044 -0.4488 -0.1431
84068W        W26980  18.505   0.123  30.992  0.2200  0.0879  0.0605
84069W        W26981  22.571   0.240  30.322 -0.0298  0.1182 -0.1406
84070W        W26982  20.293   2.325  29.700  0.3238 -0.0281  0.1206
84071W        W26983  21.553   3.653  28.575  0.0141 -0.0605 -0.3705
84072W        W26984  21.825   0.271  26.149 -0.3717 -0.1022  0.3036
84073W        W26985  21.163   0.887  27.373 -0.0872 -0.1696 -0.0572
84074W        W26986  18.546   0.810  31.523 -0.3903  0.0640 -0.2304
84075W        W26987  18.406   1.790  29.402 -0.3461  0.2181  0.2245
84076W        W26988  18.145   1.033  30.201  0.1767  0.0250  0.0920
84077W        W26989  17.476  34.243  27.980  0.1407 -0.0158 -0.0394
84078W        W26990  20.880   2.622   0.200  0.0790  0.6332 -0.0495
84079W        W26991  16.889  33.628  26.564 -0.2895 -0.2039 -0.1959
84080W        W26992  20.869   0.603  28.776 -0.0666 -0.0597 -0.1088
84081W        W26993  20.256   1.040  27.128  0.1348 -0.0445  0.0529
84082W        W26994  18.603   1.504  28.583 -0.0730 -0.2007 -0.1963
84083W        W26995  20.838   0.455  31.627 -0.2400  0.3153 -0.1152
84084W        W26996  20.611   1.870  27.676 -0.3208 -0.1774  0.0739
84085W        W26997  20.181   3.358  29.806  0.0707  0.1872 -0.0390
84086W        W26998  20.108   3.655  28.353  0.0414  0.0853 -0.0412
84087W        W26999  18.552   0.069  30.327  0.1065 -0.0523 -0.0540
84088W        W27000  19.507   0.499  28.570 -0.2608 -0.0353 -0.1863
84089W        W27001  19.286   3.535  28.728  0.0302 -0.1485  0.1074
84090W        W27002  19.481   2.670  28.934 -0.3009  0.1877  0.2622
84091W        W27003  19.094   0.256  28.517  0.1877  0.1583  0.0375
84092W        W27004  20.512   2.712  29.393 -0.2447 -0.1283  0.0882
84093W        W27005  19.989   1.242  28.592  0.4132 -0.0147  0.0859
84094W        W27006  19.372   3.988  29.656 -0.2287 -0.1959 -0.1439
84095W        W27007  21.609   1.488  30.612 -0.1481  0.0001 -0.1405
84096W        W27008  23.147   2.198  30.845 -0.0023 -0.2327 -0.2327
84097W        W27009  20.392   1.247  29.343  0.2392  0.1166 -0.0610
84098W        W27010  18.599   0.543  25.562  0.2221 -0.0794 -0.1705
84099W        W27011  20.023   2.804  28.963 -0.0787  0.1206 -0.3493
84100W        W27012  19.067   2.985  27.202 -0.1280  0.0518 -0.0770
84101W        W27013  17.991   1.968  29.983  0.0112 -0.2146  0.0105
84102W        W27014  20.533   2.888  28.918 -0.1648 -0.0381 -0.0190
84103W        W27015  21.267   1.964  30.565 -0.0803  0.0060 -0.0697
84104W        W27016  19.313   1.774  30.558 -0.2274  0.0136 -0.1940
84105W        W27017  21.025   1.466   0.002  0.1454 -0.3561 -0.1096
84106W        W27018  19.251   1.813  29.045 -0.0070  0.3315 -0.3949
84107W        W27019  19.712   3.345  29.523  0.0439  0.1161 -0.1814
84108W        W27020  21.042  34.226  29.770  0.2389 -0.2124  0.2305
84109W        W27021  21.727   0.251  27.551  0.3812  0.0678  0.2492
84110W        W27022  19.461   2.547  30.342  0.1611  0.0095  0.0160
84111W        W27023  21.631   2.118  28.206  0.1180 -0.0113 -0.1725
84112W        W27024  19.781  33.966  27.763 -0.0121 -0.1164 -0.3254
84113W        W27025  19.134   0.522  26.183  0.1363 -0.0967 -0.3510
84114W        W27026  19.394   2.672  30.934  0.2112  0.1597 -0.0742
84115W        W27027  19.672   2.277  29.845 -0.2972  0.1104  0.2391
84116W        W27028  21.420   2.070  30.034  0.0122 -0.1734 -0.2571
84117W        W27029  19.437  34.588  27.305  0.0867  0.1114 -0.1397
84118W        W27030  21.066   2.141  28.976 -0.1788  0.2679  0.1819
84119W        W27031  17.896   3.344  30.315  0.1222  0.0011  0.2205
84120W        W27032  19.895   3.124  31.767  0.1224 -0.3197 -0.0768
84121W        W27033  21.459   3.062  28.563  0.3070 -0.1548 -0.1653
84122W        W27034  19.405   1.264  30.684 -0.0198  0.0540 -0.1422
84123W        W27035  20.098  34.621  27.776  0.1039  0.0312  0.0511
84124W        W27036  19.764   0.210  30.638 -0.1136  0.0037  0.2031
84125W        W27037  17.783   3.518  27.011  0.0221  0.0351  0.2657
84126W        W27038  21.950   0.353  31.043 -0.1956 -0.2072  0.2125
84127W        W27039  20.569   0.391  30.109 -0.0628  0.1555  0.1932
84128W        W27040  19.342   0.830  31.075  0.0891 -0.1381  0.0199
84129W        W27041  21.855   2.004  30.382 -0.1288 -0.0035  0.0427
84130W        W27042  21.666  34.049  27.915 -0.0132  0.0277 -0.0837
84131W        W27043  21.350   1.393  29.150  0.0763 -0.0791 -0.4357
84132W        W27044  20.108   1.903  27.395 -0.4210  0.1497 -0.0502
84133W        W27045  19.022   0.916  30.684  0.2048 -0.1094 -0.1518
84134W        W27046  20.459   2.473  31.356 -0.1052  0.3423  0.1470
84135W        W27047  18.254   3.364  31.361  0.2629 -0.2720  0.0659
84136W        W27048  21.521   1.576  30.128 -0.3399 -0.3176  0.0543
84137W        W27049  20.736   2.479  28.491 -0.1518 -0.1566 -0.0721
84138W        W27050  20.942   1.945  31.027  0.1474 -0.3177 -0.1002
84139W        W27051  19.846   1.380  27.679 -0.3446  0.1675  0.4191
84140W        W27052  19.335   2.832  28.062 -0.0283 -0.0901  0.2798
84141W        W27053  17.683   2.393  29.070 -0.0194 -0.3224 -0.0177
84142W        W27054  18.627   0.569  29.795 -0.1387  0.0681 -0.0107
84143W        W27055  19.519   3.091  28.666  0.1264  0.0888 -0.2636
84144W        W27056  19.116   2.712  26.217 -0.0060 -0.1712  0.0430
84145W        W27057  21.408   2.214  30.971  0.2851  0.1200 -0.1225
84146W        W27058  19.495   3.310  27.834  0.0931 -0.1652 -0.2055
84147W        W27059  21.445   0.952  30.705 -0.1893 -0.3383  0.1617
84148W        W27060  18.562   3.929  28.951 -0.0177  0.2944 -0.0087
84149W        W27061  19.582   0.902  27.719 -0.1329  0.0312 -0.2386
84150W        W27062  18.750   1.125  28.941 -0.1134 -0.1080 -0.2380
84151W        W27063  21.200   0.993  29.673 -0.0572 -0.0138 -0.0168
84152W        W27064  21.502   1.472  27.356 -0.2515 -0.0510 -0.1239
84153W        W27065  17.624   1.632  29.595 -0.3250 -0.1018  0.0047
84154W        W27066  21.017  34.134  29.290  0.3866 -0.3057 -0.2067
84155W        W27067  18.379   3.827  30.703 -0.0936  0.0533 -0.2221
84156W        W27068  21.223   1.163  30.221 -0.1722 -0.1463  0.2144
84157W        W27069  20.798  33.797  29.526  0.1020 -0.0401  0.1115
84158W        W27070  20.096   0.886  29.454 -0.0907 -0.0480  0.1086
84159W        W27071  19.910   2.394  31.600 -0.0626  0.4099  0.0997
84160W        W27072  18.407   1.241  26.616 -0.0971  0.1819 -0.3383
84161W        W27073  21.047   1.508  30.548  0.0588  0.0831 -0.1677
84162W        W27074  19.990   2.846  29.652 -0.0888 -0.0473 -0.0202
84163W        W27075  19.428   3.261  29.130 -0.1123 -0.1431 -0.2296
84164W        W27076  20.831   4.588  28.661  0.0980  0.1369  0.2005
84165W        W27077  19.936   0.765  28.515 -0.0681 -0.1176  0.2942
84166W        W27078  19.224   1.227  28.100 -0.0460  0.0407  0.0367
84167W        W27079  18.845   0.979  31.101 -0.0323 -0.0613 -0.1601
84168W        W27080  20.613   0.943  31.069  0.1005 -0.1042 -0.1575
84169W        W27081  19.702   0.431  29.718 -0.2392  0.1215 -0.0883
84170W        W27082  19.588   0.876  29.482  0.2215  0.4154 -0.1547
84171W        W27083  21.602   0.961  29.354  0.2046 -0.3755  0.2153
84172W        W27084  21.068   1.820  29.384 -0.4153  0.0842  0.3596
84173W        W27085  20.602   1.763  31.918  0.0018  0.0013 -0.2397
84174W        W27086  19.669   2.212  30.671 -0.1204  0.0806  0.3037
84175W        W27087  18.783  33.840  29.939  0.0676  0.4082 -0.1073
84176W        W27088  20.563   3.695  29.711 -0.0078  0.4317 -0.0331
84177W        W27089  21.325   1.423   1.768  0.0238  0.0707 -0.1797
84178W        W27090  18.449   2.237  27.133 -0.0378  0.0474  0.0207
84179W        W27091  16.956   1.148  30.556  0.2080  0.0490  0.0825
84180W        W27092  19.522   3.526  28.308  0.2590 -0.1610  0.1527
84181W        W27093  20.193   1.923  30.558 -0.0667  0.0681 -0.1913
84182W        W27094  18.867   3.784  29.909 -0.2287 -0.1171 -0.4300
84183W        W27095  18.474   0.405  28.229  0.2319 -0.0896 -0.1017
84184W        W27096  18.885   3.943  31.556 -0.0093  0.1968 -0.0125
84185W        W27097  20.549   0.241  26.938  0.3060 -0.2233  0.1013
84186W        W27098  21.031   1.710  27.925  0.0310 -0.1199 -0.0415
84187W        W27099  20.313   0.491  28.238 -0.3037  0.2673 -0.0475
84188W        W27100  21.728  34.442  30.375  0.1524 -0.0332 -0.3787
84189W        W27101  20.660   1.018  28.443 -0.1642 -0.0037 -0.2127
84190W        W27102  20.944   2.410  30.806 -0.0435 -0.3026  0.0061
84191W        W27103  18.392   0.159  29.780  0.0802 -0.2501 -0.0853
84192W        W27104  21.587   3.280  28.991 -0.0264  0.2587 -0.0204
84193W        W27105  18.774   1.666  29.811 -0.0106 -0.3954  0.0445
84194W        W27106  20.790   2.689  31.685 -0.0463  0.1191  0.2030
84195W        W27107  20.250   2.072  31.718 -0.1028  0.3174 -0.1411
84196W        W27108  19.709  34.185  28.207  0.2178  0.0426  0.2037
84197W        W27109  19.329   1.023  26.591 -0.2185 -0.0479  0.1161
84198W        W27110  19.863   0.110  28.170 -0.3921 -0.1848  0.2306
84199W        W27111  21.217   1.480  29.710  0.1803  0.2176  0.2598
84200W        W27112  21.281   1.491  26.661  0.0330  0.1295 -0.1026
84201W        W27113  20.775   0.156  28.629 -0.0896 -0.1616  0.0302
84202W        W27114  20.379  34.660  28.321  0.1709  0.0690 -0.1211
84203W        W27115  20.974   2.012  28.449  0.1018  0.2933  0.0852
84204W        W27116  21.982   1.233  27.185 -0.0184  0.0872  0.2140
84205W        W27117  18.910   0.820  27.886 -0.0911  0.0152  0.1940
84206W        W27118  19.322   0.175  30.026  0.2446  0.1610 -0.1153
84207W        W27119  21.544   1.762  27.875 -0.1350  0.1217 -0.3355
84208W        W27120  19.762   0.656  28.101 -0.0740  0.0422 -0.0106
84209W        W27121  20.701   0.085  30.533 -0.1108  0.0656 -0.1084
84210W        W27122  22.005   1.638  31.700  0.2389 -0.3333 -0.4201
84211W        W27123  19.248   1.063  30.189  0.1343 -0.1030  0.1058
84212W        W27124  18.747   0.922  30.255 -0.2565  0.1966 -0.1212
84213W        W27125  20.932   2.759  30.021  0.0653 -0.1468 -0.0305
84214W        W27126  22.102   1.412  28.068  0.1859  0.2796 -0.0609
84215W        W27127  22.278   1.195  30.992 -0.0242  0.1609  0.1782
84216W        W27128  20.815   0.575  28.286  0.1171  0.0104 -0.3512
84217W        W27129  21.746  34.411  27.456  0.4220  0.0247  0.2032
84218W        W27130  18.381   0.585  30.226 -0.0007  0.1839 -0.0133
84219W        W27131  21.498   2.837   0.789 -0.3799 -0.1094  0.0202
84220W        W27132  20.079   0.974  27.689  0.2256  0.0661  0.2680
84221W        W27133  19.585   1.536  30.257  0.1209 -0.0385 -0.2746
84222W        W27134  21.141   2.631  27.191 -0.2455  0.0715  0.1172
84223W        W27135  21.108   3.066  28.985 -0.2933  0.1021 -0.1235
84224W        W27136  21.703   0.479  29.641  0.2515 -0.0361  0.0539
84225W        W27137  18.378   1.068  29.763  0.1685  0.1868  0.4807
84226W        W27138  20.258   3.390  31.274 -0.1175  0.1665 -0.2648
84227W        W27139  19.127   1.449  27.632 -0.1032  0.2880 -0.0546
84228W        W27140  20.195   1.556  27.990 -0.1666 -0.0357  0.0110
84229W        W27141  20.003   2.525  28.093  0.0834 -0.0630  0.1929
84230W        W27142  22.889   2.714  31.022 -0.0226 -0.3164 -0.1330
84231W        W27143  20.942  33.555  27.984  0.2491 -0.2788  0.0141
84232W        W27144  21.398   0.448  31.802 -0.3103 -0.2186 -0.2992
84233W        W27145  18.643   2.372  26.486  0.0782  0.0516  0.0468
84234W        W27146  19.696  34.587  29.804  0.1876 -0.0461 -0.2744
84235W        W27147  20.616   4.144  30.090 -0.1673 -0.2270  0.1193
84236W        W27148  19.148   2.995  29.713  0.3154 -0.1256 -0.0309
84237W        W27149  18.228   2.965  28.730 -0.1237  0.3809  0.1111
84238W        W27150  19.470  34.327  30.617  0.4812  0.2111 -0.1042
84239W        W27151  20.704   0.385  29.639 -0.0303 -0.0976 -0.2076
84240W        W27152  21.040   2.816  29.507  0.1881 -0.0518  0.0030
84241W        W27153  22.058   2.857  30.379  0.1788  0.1435 -0.2163
84242W        W27154  19.413   3.044  30.517  0.0301 -0.1432 -0.1216
84243W        W27155  19.860   1.941  30.223 -0.0635 -0.0749 -0.1924
84244W        W27156  20.943   2.943  30.764 -0.2308 -0.0640 -0.1152
84245W        W27157  20.671   1.633  29.675  0.1194  0.1036  0.2269
84246W        W27158  19.334   2.314  29.384 -0.0240  0.2601 -0.0187
84247W        W27159  17.876   0.728  30.995  0.0274 -0.0720  0.0246
84248W        W27160  21.046   2.375  31.375 -0.3414 -0.0532  0.1541
84249W        W27161  20.346   2.360  29.052  0.0368  0.0109  0.1506
84250W        W27162  18.882   0.312  28.004 -0.0189 -0.1361  0.0968
84251W        W27163  20.252   1.065  28.185 -0.1926 -0.2713 -0.3816
84252W        W27164  19.063   4.207  29.951  0.3463 -0.2396  0.1104
84253W        W27165  18.336   2.768  29.611  0.0588  0.0936  0.0464
84254W        W27166  17.894   3.473  27.713  0.4649  0.0049  0.0267
84255W        W27167  20.849   2.132  28.026 -0.0730 -0.1889  0.0808
84256W        W27168  20.932   0.555  27.762 -0.1546 -0.1645  0.1875
84257W        W27169  19.250   3.408  30.096  0.2205  0.1955 -0.2827
84258W        W27170  19.301   2.194  28.654  0.1129 -0.0802  0.1586
84259W        W27171  19.712   2.798  27.694  0.2476 -0.0163  0.1640
84260W        W27172  17.443   2.164  27.771 -0.0146  0.0157  0.2736
84261W        W27173  21.378   1.267  28.689 -0.1121  0.0496 -0.1108
84262W        W27174  19.620   3.733  29.264  0.0112  0.1684 -0.1968
84263W        W27175  21.373   2.237  29.481 -0.0568 -0.0616  0.1373
84264W        W27176  19.268  34.169  28.043 -0.1366 -0.2409  0.0447
84265W        W27177  21.482   0.522  28.694 -0.2797 -0.1501  0.0396
84266W        W27178  22.262   1.000  27.608  0.1366  0.0855 -0.1359
84267W        W27179  20.990   2.266  29.798  0.0085  0.0352 -0.0578
84268W        W27180  19.291   0.433  30.707 -0.0701  0.4226  0.2475
84269W        W27181  19.599   0.388  27.311 -0.1012  0.1483 -0.2138
84270W        W27182  18.849   2.157  29.920  0.1465  0.4984 -0.0940
84271W        W27183  22.267   0.251  31.871 -0.0864  0.0071 -0.0603
84272W        W27184  17.750   3.524  31.521  0.1612  0.0548  0.0403
84273W        W27185  20.550   2.562  28.003 -0.3331  0.1069  0.0745
84274W        W27186  19.094   0.424  27.494 -0.0681 -0.1990 -0.3081
84275W        W27187  20.499   0.783  27.864 -0.3017 -0.1157 -0.0009
84276W        W27188  21.069   0.014  29.389 -0.2202  0.2066 -0.0435
84277W        W27189  19.263   1.751  26.836 -0.2518  0.0558  0.1643
84278W        W27190  19.918   1.393  29.409  0.0452  0.0736  0.0033
84279W        W27191  19.117   2.908  30.179  0.2524  0.1696 -0.2275
84280W        W27192  18.973   3.265  30.797  0.0398  0.1348 -0.3923
84281W        W27193  19.141   3.470  29.550  0.1344  0.0523 -0.3037
84282W        W27194  17.979   0.841  28.116  0.1259  0.1695  0.0099
84283W        W27195  20.823   1.108  28.865 -0.2227  0.2801  0.3249
84284W        W27196  20.190   1.648  31.009  0.0800  0.1434  0.3259
84285W        W27197  21.158   1.066  31.086 -0.3081  0.1483  0.0300
84286W        W27198  20.113   0.361  29.268  0.2893 -0.4710  0.0325
84287W        W27199  20.585   1.675  28.231 -0.0005  0.3386 -0.3040
84288W        W27200  20.360   2.876  28.379  0.1185 -0.4317 -0.1201
84289W        W27201  18.184  34.583  29.256 -0.3329  0.1036 -0.1683
84290W        W27202  20.340  34.632  29.016  0.1870  0.3147  0.5387
84291W        W27203  22.716   1.310   0.227 -0.3001  0.2379  0.2713
84292W        W27204  20.483   0.234  27.836  0.1374  0.0298  0.1882
84293W        W27205  19.575   3.040  29.984  0.0231  0.1812  0.0489
84294W        W27206  19.236   0.052  28.954 -0.1087 -0.0137 -0.0991
84295W        W27207  19.604  34.509  27.825  0.0697  0.0814  0.0991
84296W        W27208  17.815   1.117  29.691 -0.0403 -0.2806  0.0625
84297W        W27209  20.806   1.277  30.031 -0.2864  0.0830  0.0929
84298W        W27210  21.706   3.444  29.776  0.1673  0.2975  0.2376
84299W        W27211  18.669  34.632  27.358  0.1174 -0.0204 -0.3296
84300W        W27212  20.331   0.769  25.964 -0.0541  0.0299 -0.0693
84301W        W27213  19.858   1.692  29.802 -0.1418  0.1418  0.0775
84302W        W27214  19.253   3.983  27.555  0.0314  0.1854 -0.1315
84303W        W27215  23.308   1.251  28.695  0.2701 -0.2542  0.0721
84304W        W27216  20.485   3.232  29.393 -0.3958 -0.2424  0.0367
84305W        W27217  18.347   0.800  30.670 -0.0009  0.0164 -0.1179
84306W        W27218  20.055   2.482  30.127 -0.0607  0.3575 -0.1929
84307W        W27219  20.780   3.963  30.938 -0.3066 -0.0532  0.0065
84308W        W27220  18.500  34.191  27.126  0.1539 -0.0432  0.4358
84309W        W27221  18.031   0.633  29.834 -0.0569 -0.0000  0.0668
84310W        W27222  19.542   2.392  28.208 -0.1264  0.1643  0.0692
84311W        W27223  22.394   0.484  29.610  0.1059 -0.2440 -0.2857
84312W        W27224  20.590   1.339  31.568  0.0003  0.1099  0.0611
84313W        W27225  20.686   3.066  27.934  0.1805  0.2373  0.0418
84314W        W27226  21.363   1.019  31.693  0.5026  0.3569 -0.0488
84315W        W27227  20.583   2.273  30.185  0.0868  0.1183 -0.2033
84316W        W27228  20.210   2.891  31.479  0.0107  0.3203  0.2091
84317W        W27229  20.992   1.000  27.993  0.1047  0.0773 -0.1266
84318W        W27230  21.633   2.399  30.610 -0.0022 -0.0001 -0.0494
84319W        W27231  19.283   0.904  29.047 -0.2680  0.0808 -0.0303
84320W        W27232  19.801   3.145  28.211  0.0611  0.3310 -0.0770
84321W        W27233  22.011   3.850  29.703  0.1000  0.2886  0.0973
84322W        W27234  19.911   1.024  29.028  0.0838  0.1800 -0.3787
84323W        W27235  21.218   2.625  28.608 -0.1459  0.2096 -0.1064
84324W        W27236  19.289  34.493  29.441 -0.0377  0.0115  0.0391
84325W        W27237  21.505  34.067  29.463  0.2014 -0.3856  0.2567
84326W        W27238  20.409  33.694  28.417 -0.4079 -0.2608 -0.1696
84327W        W27239  18.767   1.713  29.026 -0.1315 -0.0172  0.1320
84328W        W27240  18.867   2.289  26.006 -0.1116  0.2376  0.2243
84329W        W27241  19.458   2.633  27.268  0.1592 -0.1036  0.0105
84330W        W27242  19.898   2.452  29.343  0.0859  0.5382 -0.0951
84331W        W27243  19.984   0.182  31.058  0.0370  0.0127  0.3427
84332W        W27244  19.026   0.715  31.489 -0.1571 -0.0991 -0.2980
84333W        W27245  19.579   1.750  28.618  0.0304 -0.2538  0.0222
84334W        W27246  18.209   1.530  29.782 -0.0358  0.2891 -0.2783
84335W        W27247  21.434   0.857  27.788  0.1744 -0.0099  0.0056
84336W        W27248  18.924  34.178  29.217 -0.2632  0.2923 -0.2982
84337W        W27249  17.417  34.694  28.706 -0.2978 -0.1549  0.1830
84338W        W27250  21.049   1.654  28.810 -0.0356 -0.2511  0.4542
84339W        W27251  20.652   1.634  29.143  0.0740 -0.1422 -0.2627
84340W        W27252  19.126   0.956  27.389 -0.1197  0.1322  0.1725
84341W        W27253  22.719   2.598  31.534  0.0706 -0.0602  0.0617
84342W        W27254  18.082   2.395  26.171  0.1912  0.2165 -0.1877
84343W        W27255  19.730   1.605  30.785 -0.1574 -0.1094  0.2851
84344W        W27256  18.742   0.461  30.635  0.0035 -0.3356  0.1033
84345W        W27257  19.188   1.305  28.795 -0.2839  0.2423  0.0885
84346W        W27258  20.897   1.249  29.378  0.1181  0.1570  0.1651
84347W        W27259  21.080   3.397  28.500  0.1393  0.3077  0.2211
84348W        W27260  21.351   1.837  27.048 -0.0991 -0.2112 -0.0674
84349W        W27261  20.116   1.924  29.437  0.2430 -0.1655  0.1020
84350W        W27262  19.551   4.917  29.345 -0.2298  0.2974 -0.0338
84351W        W27263  17.453  33.924  29.949 -0.0150 -0.1304  0.0937
84352W        W27264  21.681   1.200  29.796 -0.0904  0.2224 -0.2028
84353W        W27265  18.794   2.591  29.482 -0.3403 -0.1485 -0.4082
84354W        W27266  21.955   2.036  28.793 -0.1612  0.2414  0.1320
84355W        W27267  22.433   0.829  30.182  0.1625 -0.0516  0.0354
84356W        W27268  20.368   0.511  28.789 -0.2300 -0.1267 -0.0800
84357W        W27269  19.012   0.059  30.475  0.0783 -0.0650  0.1725
84358W        W27270  20.984   1.817  30.141  0.1753 -0.1130 -0.0477
84359W        W27271  21.790   3.108  30.813  0.0725 -0.2251 -0.2287
84360W        W27272  18.522  33.860  29.431 -0.2361 -0.1770 -0.0335
84361W        W27273  20.969  34.472  28.912 -0.0321  0.2174  0.1457
84362W        W27274  20.161   1.843  28.425  0.0001 -0.3452 -0.1262
84363W        W27275  17.753   1.257  31.291 -0.1523 -0.1726 -0.1059
84364W        W27276  19.576  34.635  28.507 -0.0033  0.0352  0.1830
84365W        W27277  19.737   1.348  31.247  0.1756  0.0106 -0.0947
84366W        W27278  21.543   3.031  29.497  0.3462  0.1059  0.1022
84367W        W27279  21.280   1.630  31.002  0.2842 -0.1338 -0.1792
84368W        W27280  19.594   0.602  26.539 -0.0826 -0.1875  0.1175
84369W        W27281  22.582   1.672  28.038  0.0298 -0.0938 -0.0455
84370W        W27282  21.415   2.716  30.921  0.0722  0.1608 -0.1163
84371W        W27283  20.718   2.872  31.202  0.1043 -0.0360  0.2515
84372W        W27284  19.748   3.336  30.319 -0.0349 -0.0899  0.0784
84373W        W27285  22.419   2.689  29.282  0.2254  0.1957 -0.0801
84374W        W27286  18.232  34.275  29.665  0.0649 -0.0274  0.0928
84375W        W27287  19.642   1.899  29.293 -0.5124 -0.1551  0.0731
84376W        W27288  19.868   2.751  28.485 -0.2818  0.0502 -0.1029
84377W        W27289  19.575   0.500  29.186 -0.2146  0.1345  0.2038
84378W        W27290  19.746   1.035  30.451  0.1083  0.1779  0.2338
84379W        W27291  21.652  33.916  28.434  0.2233 -0.1484  0.0019
84380W        W27292  20.001   2.659  31.033  0.2221 -0.1727 -0.0023
84381W        W27293  21.509   0.758  30.081  0.0798  0.0132 -0.1860
84382W        W27294  20.907  33.944   0.450  0.0126 -0.1141  0.0937
84383W        W27295  19.648   0.878  31.772  0.0757 -0.4748  0.1158
84384W        W27296  19.376   1.873  31.074 -0.4017  0.1124 -0.0431
84385W        W27297  18.618   2.247  31.607 -0.1873  0.3637 -0.0066
84386W        W27298  21.216   2.347  31.807 -0.1927  0.0280  0.0288
84387W        W27299  20.253   3.419   0.032 -0.4483 -0.0088  0.1184
84388W        W27300  21.259   0.841   0.190  0.1111 -0.2311  0.1954
84389W        W27301  20.766   0.853   0.091 -0.1106  0.0681  0.1245
84390W        W27302  21.234   1.961  31.435  0.1703  0.0212  0.3228
84391W        W27303  21.883   2.530   0.689 -0.1969 -0.0392 -0.1305
84392W        W27304  21.286   3.171  29.895 -0.1225 -0.0030 -0.4770
84393W        W27305  19.586  33.200  31.212 -0.0443 -0.1600 -0.1189
84394W        W27306  22.164   2.381  30.506 -0.1547  0.0560  0.0382
84395W        W27307  19.811   0.636  31.368 -0.3726 -0.4583  0.1678
84396W        W27308  22.551   1.623  31.781  0.0884  0.4439  0.3960
84397W        W27309  19.640   2.776  31.451 -0.0495 -0.0167  0.2521
84398W        W27310  19.101   0.924  31.936 -0.1992  0.0511  0.1480
84399W        W27311  23.848   3.600  31.764 -0.0101  0.2897  0.0650
84400W        W27312  18.115   0.198  31.695  0.1139 -0.0983 -0.0141
84401W        W27313  19.983  34.197  30.866  0.3552 -0.1323  0.1418
84402W        W27314  16.759  34.378  30.553  0.0196 -0.0038  0.1810
84403W        W27315  18.655   2.806  30.970 -0.2573  0.1198 -0.1505
84404W        W27316  20.973  33.748   1.049  0.0497 -0.0288 -0.3535
84405W        W27317  21.544   1.628  31.883 -0.0613 -0.1934  0.4367
84406W        W27318  20.570   1.492  30.477  0.0890 -0.0262  0.0307
84407W        W27319  19.694  34.540   0.792  0.0456 -0.1309  0.0607
84408W        W27320  18.890   0.475  31.105 -0.3763 -0.0416 -0.0316
84409W        W27321  18.073   2.873  31.709 -0.2249  0.1679  0.0174
84410W        W27322  18.858   1.974  30.382  0.1110  0.1294  0.1096
84411W        W27323  20.207   3.219   0.956 -0.0305 -0.2121 -0.1662
84412W        W27324  18.853   3.692  30.966 -0.0540 -0.0580  0.3560
84413W        W27325  18.591   1.031   0.066 -0.1185  0.1068 -0.2333
84414W        W27326  21.606   2.850   1.888  0.5568  0.0401 -0.2215
84415W        W27327  21.376  34.318   0.608 -0.1959 -0.0044 -0.1248
84416W        W27328  18.398   1.694  31.676 -0.0597 -0.1957  0.0700
84417W        W27329  18.480   2.972  30.537 -0.0252 -0.0439 -0.2241
84418W        W27330  19.133   1.951  31.806 -0.2199 -0.0383  0.2081
84419W        W27331  20.622   2.854  30.343  0.3238 -0.0791  0.4660
84420W        W27332  19.399   1.251   0.714 -0.1526 -0.0001 -0.0335
84421W        W27333  20.051   1.477   0.083 -0.0750  0.0238 -0.2400
84422W        W27334  23.597   1.021  31.820 -0.3061 -0.0736 -0.1208
84423W        W27335  21.113   1.452  31.490  0.1124 -0.0263  0.0259
84424W        W27336  20.087   0.597  30.540  0.3533  0.0429 -0.3815
84425W        W27337  19.890   2.917  30.608  0.0848 -0.2280  0.2123
84426W        W27338  19.852   0.140   0.357 -0.1760 -0.1509  0.1181
84427W        W27339  19.908   1.958   0.069  0.0986  0.1001 -0.2606
84428W        W27340  20.456   0.392   0.465 -0.0867  0.0747 -0.3734
84429W        W27341  20.864   2.424   0.638  0.0830 -0.3483 -0.1718
84430W        W27342  21.991   3.810  31.774 -0.0510  0.2473 -0.2264
84431W        W27343  19.111   3.081  31.215  0.0644  0.1684 -0.0721
84432W        W27344  19.688   1.411  31.773  0.3460 -0.0144  0.0503
84433W        W27345  21.622   1.643  31.324 -0.0158 -0.1078 -0.0102
84434W        W27346  19.922   0.497   0.009 -0.0970  0.0948 -0.2843
84435W        W27347  21.119   1.953   0.165  0.3044 -0.0933  0.2078
84436W        W27348  20.200   1.111  31.287  0.0124 -0.0834  0.0674
84437W        W27349  20.131   1.563  31.597 -0.1464 -0.2371 -0.1254
84438W        W27350  20.692   3.314  30.053 -0.0720 -0.0306  0.2191
84439W        W27351  19.705   1.875  31.523  0.1975  0.0749  0.2028
84440W        W27352  18.457   3.302  30.885  0.0461  0.0484  0.1056
84441W        W27353  19.916   1.028   0.233  0.1866 -0.0637 -0.2232
84442W        W27354  17.802   1.058  30.679  0.0502  0.1410 -0.0401
84443W        W27355  20.476   2.153  30.960 -0.3579  0.0354 -0.0293
84444W        W27356  18.671   2.155   0.245 -0.2309  0.0557  0.0076
84445W        W27357  18.894   1.067  29.775  0.1312  0.1697  0.0434
84446W        W27358  19.468   3.512  30.743 -0.1112 -0.1071  0.0339
84447W        W27359  23.258   2.514   0.374 -0.0916  0.1255 -0.5273
84448W        W27360  22.330   2.470  31.208 -0.1664  0.1184  0.2136
84449W        W27361  18.415   7.168  18.837  0.0267 -0.0200  0.0158
84450W        W27362  18.808   4.650  16.675 -0.0219  0.4364 -0.1482
84451W        W27363  20.426   5.647  16.203 -0.4167 -0.1133  0.0887
84452W        W27364  23.002   3.935  16.686  0.0821 -0.1768 -0.2441
84453W        W27365  18.582   4.254  17.574 -0.1064 -0.1313 -0.3802
84454W        W27366  20.372   6.063  16.874 -0.1025  0.4565  0.1080
84455W        W27367  18.761   4.602  19.003 -0.0549  0.1991  0.0294
84456W        W27368  21.188   6.855  15.978  0.0501 -0.1425  0.2755
84457W        W27369  21.422   6.049  18.624 -0.0699  0.2049  0.0250
84458W        W27370  21.946   5.676  16.163  0.0308  0.1360  0.0876
84459W        W27371  20.260   4.840  17.694  0.0197  0.0949  0.0612
84460W        W27372  20.266   6.782  18.690  0.2431  0.2116  0.2256
84461W        W27373  19.939   5.789  16.548 -0.0732  0.0468  0.0771
84462W        W27374  20.292   4.119  18.857  0.3435  0.1221 -0.0118
84463W        W27375  22.492   6.346  17.472 -0.0114  0.2126 -0.0882
84464W        W27376  17.488   4.693  16.896  0.1017  0.1669  0.2781
84465W        W27377  19.504   6.203  19.734 -0.0886  0.0699 -0.1414
84466W        W27378  19.071   5.143  16.550  0.0086 -0.1535 -0.2794
84467W        W27379  19.448   7.910  17.003 -0.0891  0.2353  0.0185
84468W        W27380  19.916   4.793  18.220  0.0106 -0.0508 -0.1620
84469W        W27381  21.883   2.857  19.754  0.1956  0.0559  0.0657
84470W        W27382  19.854   7.362  16.504  0.0198  0.1236  0.0469
84471W        W27383  18.105   6.378  15.364  0.0102  0.2605 -0.0294
84472W        W27384  19.279   5.949  17.830  0.0480  0.0392 -0.3615
84473W        W27385  19.581   5.627  19.130  0.3661  0.1943  0.0862
84474W        W27386  22.467   3.729  17.473 -0.2050  0.0593  0.0798
84475W        W27387  21.258   5.947  16.907 -0.1485 -0.1696 -0.1456
84476W        W27388  18.624   7.654  18.621 -0.2201 -0.0630 -0.2821
84477W        W27389  21.082   6.310  17.242  0.3559 -0.0815  0.2911
84478W        W27390  20.762   4.413  18.681 -0.0085  0.1906 -0.1237
84479W        W27391  18.738   5.532  17.157  0.1744  0.0271  0.2954
84480W        W27392  17.242   7.697  16.791 -0.2479 -0.2348 -0.1027
84481W        W27393  19.828   7.325  17.482  0.0613  0.0012 -0.0565
84482W        W27394  22.000   4.933  16.512  0.2162 -0.0226 -0.1304
84483W        W27395  20.740   6.828  18.516  0.3332 -0.0639 -0.2851
84484W        W27396  18.589   8.029  18.136  0.1644  0.1657 -0.0565
84485W        W27397  20.720   6.995  16.215 -0.1000 -0.1490  0.1445
84486W        W27398  21.836   6.264  20.097 -0.0305 -0.0298  0.0111
84487W        W27399  20.717   6.614  19.263 -0.1099  0.0344 -0.1669
84488W        W27400  19.653   4.786  16.322 -0.1570  0.0149 -0.0582
84489W        W27401  21.564   4.078  16.348 -0.1717 -0.0106 -0.0149
84490W        W27402  19.731   7.025  15.930 -0.2668  0.3479  0.0420
84491W        W27403  20.981   5.321  17.635 -0.1726 -0.0606 -0.3573
84492W        W27404  21.362   6.284  20.252 -0.1597  0.1472  0.2992
84493W        W27405  17.187   7.395  17.185 -0.1739  0.3213 -0.1263
84494W        W27406  21.781   4.990  20.065  0.1252  0.0649  0.1415
84495W        W27407  18.619   6.916  15.927 -0.0023  0.0280  0.0186
84496W        W27408  19.133   5.996  16.248 -0.1471 -0.4327 -0.0336
84497W        W27409  19.644   5.282  16.367 -0.0800 -0.0374  0.1626
84498W        W27410  21.576   4.416  15.908  0.0385 -0.0148  0.0744
84499W        W27411  19.966   4.856  16.797 -0.0401 -0.0350  0.1128
84500W        W27412  18.693   7.503  18.119 -0.0952  0.0696 -0.2329
84501W        W27413  20.030   4.854  18.754  0.1351  0.2086  0.0790
84502W        W27414  22.391   6.247  18.211  0.3958  0.0580  0.0127
84503W        W27415  20.777   6.210  17.756 -0.2517 -0.1432 -0.2502
84504W        W27416  21.378   4.210  18.052 -0.0211 -0.1408  0.1643
84505W        W27417  19.535   7.722  17.909  0.1691  0.3353  0.0689
84506W        W27418  18.014   5.318  18.210  0.2046  0.1099 -0.2389
84507W        W27419  21.932   5.433  16.628  0.1422  0.1989 -0.3449
84508W        W27420  21.471   5.712  16.277 -0.0302 -0.2745  0.0074
84509W        W27421  20.638   7.103  16.883 -0.0393 -0.0290  0.0499
84510W        W27422  18.343   4.673  17.242  0.1823 -0.0534 -0.0706
84511W        W27423  18.293   5.214  19.475 -0.0925 -0.2586 -0.2879
84512W        W27424  17.965   4.130  19.237 -0.2854  0.0047  0.0265
84513W        W27425  20.143   4.326  17.480 -0.3948  0.1452  0.1871
84514W        W27426  21.842   5.907  18.996  0.1737  0.1057  0.0965
84515W        W27427  17.408   6.339  19.077  0.1113 -0.0908  0.1713
84516W        W27428  22.040   4.692  17.740 -0.1567 -0.0090  0.2061
84517W        W27429  20.395   6.166  19.295  0.0309  0.0792 -0.1757
84518W        W27430  20.943   6.652  17.560  0.0225  0.0844 -0.1307
84519W        W27431  20.760   6.014  15.925 -0.0921 -0.0796 -0.2543
84520W        W27432  21.053   4.220  16.854 -0.0476 -0.0076  0.2557
84521W        W27433  22.014   4.481  17.270 -0.2508  0.3320 -0.0913
84522W        W27434  19.573   5.706  16.131  0.0199 -0.1856  0.2161
84523W        W27435  20.832   6.181  16.771 -0.0004  0.1273  0.1561
84524W        W27436  20.477   6.456  18.278 -0.1562  0.0862  0.0558
84525W        W27437  20.922   4.906  15.397 -0.1768 -0.3806 -0.2228
84526W        W27438  18.090   6.500  18.206  0.0197  0.0942  0.1120
84527W        W27439  21.447   3.279  18.770 -0.3041  0.0228 -0.4529
84528W        W27440  20.723   4.850  20.574  0.2892  0.2991  0.1197
84529W        W27441  19.042   7.555  15.751 -0.1374 -0.4849  0.3399
84530W        W27442  17.584   6.290  18.366 -0.0400 -0.0702 -0.2210
84531W        W27443  17.705   7.043  16.237  0.0734  0.0671  0.1634
84532W        W27444  18.281   4.771  18.983 -0.0742  0.3824  0.2771
84533W        W27445  20.330   6.119  17.503 -0.1952 -0.1209 -0.0680
84534W        W27446  21.850   2.490  15.898  0.2662  0.0129 -0.1339
84535W        W27447  18.884   5.052  18.852 -0.1017 -0.0933 -0.0075
84536W        W27448  21.999   3.647  19.288 -0.1776 -0.1624  0.1075
84537W        W27449  18.982   6.426  17.117 -0.2638  0.1637 -0.1586
84538W        W27450  20.823   8.022  15.884 -0.1885 -0.0879  0.2978
84539W        W27451  20.760   4.072  15.868 -0.1339  0.2275 -0.0065
84540W        W27452  20.010   6.022  16.054 -0.3073 -0.0142  0.0831
84541W        W27453  17.957   5.901  18.375  0.2075 -0.2393  0.0884
84542W        W27454  19.115   5.516  16.114 -0.0236 -0.0760  0.0831
84543W        W27455  19.732   5.134  19.159  0.1138 -0.0665 -0.3245
84544W        W27456  19.442   3.961  19.262  0.0062  0.1652 -0.0868
84545W        W27457  21.906   5.967  18.271  0.1347  0.1033 -0.1081
84546W        W27458  18.300   3.146  16.702  0.2050  0.4030 -0.1363
84547W        W27459  19.575   5.577  18.039 -0.0176 -0.1415  0.1951
84548W        W27460  19.390   7.061  17.366 -0.3107  0.1659  0.2423
84549W        W27461  17.811   5.280  19.459 -0.0436  0.2971 -0.0420
84550W        W27462  21.491   5.396  17.715 -0.0888  0.0410  0.2298
84551W        W27463  20.479   6.609  16.698 -0.2447 -0.0515  0.1677
84552W        W27464  22.861   6.056  18.433  0.0520  0.2099 -0.0019
84553W        W27465  22.254   5.825  16.537 -0.0805 -0.3586 -0.2465
84554W        W27466  20.235   5.984  18.657 -0.0237  0.1856 -0.0502
84555W        W27467  17.904   4.475  16.967  0.1291 -0.2283 -0.3055
84556W        W27468  19.291   7.534  17.512  0.1709  0.1009  0.0182
84557W        W27469  21.679   6.282  16.196  0.0039  0.1912 -0.2861
84558W        W27470  18.567   5.098  16.891  0.3711 -0.0761 -0.0286
84559W        W27471  21.929   6.580  16.661  0.0805  0.0202 -0.0438
84560W        W27472  20.335   6.052  18.040 -0.1546  0.1810 -0.1820
84561W        W27473  17.730   6.238  19.598  0.3356  0.0019  0.2015
84562W        W27474  21.249   4.993  17.304  0.2688  0.0145  0.1022
84563W        W27475  20.369   6.176  20.055 -0.0789 -0.0425  0.1212
84564W        W27476  19.149   5.181  15.591  0.2197 -0.1153  0.5226
84565W        W27477  18.870   4.295  16.106 -0.1002  0.0420 -0.0604
84566W        W27478  19.998   8.396  15.687 -0.2315 -0.1171 -0.2081
84567W        W27479  18.100   4.970  16.081  0.2000  0.1912 -0.0123
84568W        W27480  17.037   5.456  17.174 -0.2303  0.0781 -0.2165
84569W        W27481  19.774   6.850  16.542 -0.0090  0.1917  0.0211
84570W        W27482  19.744   4.243  17.141 -0.2079  0.0392 -0.1426
84571W        W27483  17.421   3.892  20.004  0.1259  0.3202  0.3928
84572W        W27484  20.759   4.834  18.028 -0.2214 -0.1749 -0.2821
84573W        W27485  18.440   6.645  16.278 -0.0211 -0.0184  0.1337
84574W        W27486  19.552   8.374  17.393  0.1946  0.1953  0.2001
84575W        W27487  20.557   3.193  17.062 -0.1080 -0.0241 -0.0888
84576W        W27488  21.738   4.399  15.403 -0.2871 -0.4316  0.0340
84577W        W27489  20.150   5.485  20.947  0.1830  0.0972 -0.1702
84578W        W27490  21.636   5.198  16.338  0.1076  0.2101 -0.2286
84579W        W27491  21.234   5.654  15.850  0.0428  0.0475 -0.1003
84580W        W27492  23.322   3.272  17.083  0.1261 -0.2683 -0.2336
84581W        W27493  18.012   4.812  19.398  0.1667  0.3905  0.2733
84582W        W27494  19.857   6.170  17.275  0.2273 -0.1878 -0.0267
84583W        W27495  18.503   6.167  16.419  0.1760  0.3758 -0.1586
84584W        W27496  20.186   4.596  15.684  0.0866 -0.1205 -0.4160
84585W        W27497  20.914   5.736  16.357  0.0146  0.3959 -0.0798
84586W        W27498  18.218   5.749  18.801  0.2217  0.3639 -0.1092
84587W        W27499  19.255   6.708  19.293  0.1136 -0.1390 -0.0233
84588W        W27500  21.209   6.283  15.931 -0.1274  0.0923  0.0998
84589W        W27501  20.777   4.898  17.501  0.1020 -0.3386 -0.0764
84590W        W27502  18.633   5.778  16.135 -0.0501 -0.2933 -0.0416
84591W        W27503  19.031   3.984  16.469  0.0954 -0.0106 -0.0883
84592W        W27504  17.009   6.600  17.469  0.0855 -0.1850  0.1680
84593W        W27505  21.450   4.729  18.836  0.3972 -0.1259 -0.3504
84594W        W27506  19.115   4.401  17.816  0.0028 -0.2069 -0.1589
84595W        W27507  19.833   3.956  18.907 -0.1928  0.0318 -0.0965
84596W        W27508  22.298   6.139  19.821  0.0716  0.4671  0.0144
84597W        W27509  22.622   5.234  17.216  0.0947 -0.2764  0.0019
84598W        W27510  20.213   5.183  16.241 -0.3791 -0.0871 -0.1374
84599W        W27511  19.401   6.754  15.701  0.1798  0.0029 -0.2425
84600W        W27512  21.098   3.999  18.457  0.1508 -0.1894 -0.0805
84601W        W27513  18.910   5.920  19.277  0.2581  0.1090  0.2217
84602W        W27514  18.122   6.857  18.625 -0.1761  0.3904  0.2274
84603W        W27515  20.481   6.387  18.875 -0.3702  0.0240  0.2920
84604W        W27516  21.366   6.605  16.425 -0.0286  0.0169 -0.1920
84605W        W27517  21.010   3.850  19.320  0.3055 -0.2423 -0.2068
84606W        W27518  21.710   4.623  18.246  0.3157 -0.0336  0.1512
84607W        W27519  19.314   7.456  16.507  0.1677 -0.0521  0.1111
84608W        W27520  18.986   6.527  16.070 -0.0665  0.2459  0.0115
84609W        W27521  18.184   4.832  18.195  0.1291 -0.0234  0.1175
84610W        W27522  20.454   6.553  17.775 -0.0376 -0.2009 -0.1254
84611W        W27523  17.885   6.475  16.177  0.1514 -0.4280 -0.1769
84612W        W27524  21.601   5.804  19.917 -0.1806 -0.0081  0.1724
84613W        W27525  18.435   6.749  17.913 -0.0771 -0.1324 -0.1510
84614W        W27526  22.152   4.506  18.647  0.3101 -0.0556 -0.1505
84615W        W27527  17.938   7.343  17.968  0.0642  0.1700 -0.0808
84616W        W27528  21.027   4.956  15.910 -0.0214  0.0205  0.1754
84617W        W27529  17.951   5.877  16.918  0.1110  0.0578 -0.0450
84618W        W27530  23.493   4.080  18.769  0.0639  0.0661 -0.0941
84619W        W27531  22.118   6.004  15.250  0.1002  0.1185 -0.2516
84620W        W27532  19.433   5.676  18.473 -0.0596 -0.4347  0.2096
84621W        W27533  19.164   3.751  17.772  0.0895  0.2786  0.0211
84622W        W27534  18.481   7.724  16.564  0.0631  0.0232  0.5059
84623W        W27535  20.647   5.740  17.711  0.1177  0.1133  0.1313
84624W        W27536  21.780   3.648  17.876 -0.0528 -0.0992 -0.0698
84625W        W27537  21.133   5.814  18.991 -0.0730  0.4626  0.0802
84626W        W27538  18.718   6.365  19.488  0.1622  0.0708 -0.4649
84627W        W27539  18.376   3.726  16.327  0.0183 -0.2866  0.0084
84628W        W27540  21.158   5.905  17.598  0.1926  0.2035  0.2260
84629W        W27541  19.670   5.298  16.863 -0.3449 -0.0159  0.0416
84630W        W27542  18.093   6.301  16.685  0.0619  0.1822  0.1693
84631W        W27543  19.971   6.315  18.999 -0.1497  0.1957 -0.0203
84632W        W27544  18.200   5.533  16.057  0.0534 -0.0625  0.0155
84633W        W27545  18.420   6.655  16.895 -0.2590 -0.1126  0.0870
84634W        W27546  18.560   5.384  19.085  0.0293  0.0301 -0.3845
84635W        W27547  20.812   5.531  19.781  0.1812  0.1161  0.2197
84636W        W27548  19.136   5.436  18.082  0.0874 -0.2553  0.0792
84637W        W27549  19.545   5.156  17.348  0.0728  0.1416 -0.1173
84638W        W27550  20.244   5.188  19.145 -0.0203 -0.4103  0.1044
84639W        W27551  20.274   5.127  18.246 -0.0220  0.2324 -0.0720
84640W        W27552  19.895   4.712  17.323  0.1653 -0.0404 -0.2386
84641W        W27553  19.055   8.339  17.030  0.1106  0.0607  0.0712
84642W        W27554  21.996   4.262  16.697  0.2407  0.0960  0.1127
84643W        W27555  22.725   7.136  16.581  0.1434 -0.4499  0.1081
84644W        W27556  22.068   4.594  19.582 -0.0884  0.0333 -0.2404
84645W        W27557  18.183   6.086  16.003 -0.0580 -0.2878  0.0462
84646W        W27558  17.803   6.506  18.728  0.2711  0.0049  0.0578
84647W        W27559  19.747   6.028  18.248 -0.1051 -0.1655 -0.4958
84648W        W27560  21.131   4.559  17.802  0.1303  0.0279 -0.0145
84649W        W27561  18.199   6.248  18.689  0.0260  0.0810 -0.0530
84650W        W27562  19.118   5.537  17.541 -0.0741 -0.2410  0.0093
84651W        W27563  17.217   6.935  19.095 -0.4014  0.0808 -0.0005
84652W        W27564  21.135   5.276  16.231 -0.1759  0.0976 -0.5088
84653W        W27565  21.175   5.339  15.473 -0.4223 -0.2006 -0.0108
84654W        W27566  19.404   3.980  18.181 -0.0015 -0.4290 -0.1059
84655W        W27567  21.918   4.708  19.071 -0.1984 -0.3577  0.4476
84656W        W27568  22.664   5.620  18.120 -0.1429 -0.2397  0.2545
84657W        W27569  21.537   4.026  17.585  0.0900 -0.1916  0.1074
84658W        W27570  18.694   6.028  18.662 -0.1341 -0.2029 -0.1338
84659W        W27571  21.376   6.426  16.880 -0.4389 -0.1344 -0.4730
84660W        W27572  18.142   4.717  20.785 -0.1959  0.1351  0.0308
84661W        W27573  21.332   6.383  19.721  0.0424  0.0379  0.1348
84662W        W27574  19.758   6.597  19.419 -0.5533  0.4049 -0.1686
84663W        W27575  18.969   4.942  17.069 -0.1014  0.0654 -0.0447
84664W        W27576  20.418   2.746  16.255  0.0131 -0.0418  0.0050
84665W        W27577  20.846   5.884  17.237  0.2902  0.3617 -0.0547
84666W        W27578  19.439   6.486  17.447  0.0054 -0.2551 -0.0221
84667W        W27579  19.801   6.517  16.020 -0.5420  0.0586 -0.0611
84668W        W27580  21.177   5.456  16.723 -0.0974 -0.0266  0.1277
84669W        W27581  19.769   6.086  17.725  0.1585 -0.3071  0.3690
84670W        W27582  19.261   4.048  17.315  0.0732 -0.0086  0.0237
84671W        W27583  18.971   6.385  16.571 -0.2715 -0.0609 -0.3530
84672W        W27584  18.786   6.584  17.533 -0.3076  0.0346 -0.0014
84673W        W27585  19.042   5.464  19.129  0.2686  0.1433 -0.1668
84674W        W27586  22.290   4.654  16.896 -0.3696  0.0635 -0.0878
84675W        W27587  19.588   4.295  17.612  0.0897 -0.2060 -0.1779
84676W        W27588  20.777   4.668  17.050 -0.3373 -0.1884  0.0700
84677W        W27589  20.988   5.108  18.822  0.3177  0.2051  0.0548
84678W        W27590  20.507   5.288  18.687  0.1294  0.4630  0.0865
84679W        W27591  21.877   4.137  18.979  0.0720 -0.1128  0.0792
84680W        W27592  19.818   8.378  18.802 -0.1167  0.0029 -0.0447
84681W        W27593  20.476   4.947  15.632  0.0275  0.1337  0.2020
84682W        W27594  20.522   5.570  18.315  0.3504 -0.0731 -0.2327
84683W        W27595  22.425   4.741  16.307 -0.1173 -0.0924  0.1035
84684W        W27596  20.495   4.833  16.617 -0.0348  0.0110 -0.2486
84685W        W27597  18.249   5.752  17.318  0.0198 -0.0044  0.0618
84686W        W27598  21.574   5.423  20.281 -0.5502 -0.2722  0.3377
84687W        W27599  19.253   4.319  16.813 -0.4569 -0.0113  0.0797
84688W        W27600  21.445   5.385  18.851 -0.1042 -0.2080 -0.2004
84689W        W27601  19.778   7.205  16.972  0.1839 -0.1928 -0.1238
84690W        W27602  20.196   5.736  19.079  0.0131  0.1795 -0.2295
84691W        W27603  20.318   4.171  15.964  0.1391  0.0181  0.2175
84692W        W27604  18.755   5.584  16.626 -0.1779 -0.1402 -0.0110
84693W        W27605  17.309   5.513  19.483 -0.1909 -0.0204 -0.1424
84694W        W27606  18.005   4.478  15.665  0.1718  0.0979  0.4699
84695W        W27607  19.545   6.103  16.512  0.0785 -0.0279  0.1303
84696W        W27608  21.870   6.764  18.057  0.1102 -0.0444 -0.2408
84697W        W27609  21.132   5.438  19.367 -0.1775  0.0577  0.1811
84698W        W27610  21.632   4.179  17.088 -0.0653  0.1311 -0.2906
84699W        W27611  21.082   4.904  20.216 -0.1002  0.2009  0.1805
84700W        W27612  17.400   6.308  17.303 -0.0573  0.0146 -0.1213
84701W        W27613  21.178   3.809  17.219 -0.1116  0.0514 -0.1089
84702W        W27614  18.228   7.211  19.280  0.1885  0.1233 -0.0453
84703W        W27615  17.726   6.274  17.926  0.2907  0.1457  0.1323
84704W        W27616  19.387   6.659  16.330  0.1643  0.0843  0.0497
84705W        W27617  20.406   3.598  17.380  0.2253  0.0666 -0.0099
84706W        W27618  21.511   4.476  19.260  0.0500 -0.4215 -0.0715
84707W        W27619  19.432   6.368  16.939  0.1711  0.0436 -0.0397
84708W        W27620  21.043   5.565  18.096 -0.1390  0.1655 -0.2856
84709W        W27621  20.258   4.373  19.653  0.0572 -0.1715 -0.3086
84710W        W27622  18.897   6.508  19.061  0.1195  0.0878  0.3142
84711W        W27623  20.738   6.018  18.354 -0.0234  0.0904 -0.3991
84712W        W27624  22.551   5.390  15.626  0.0768 -0.0569 -0.0844
84713W        W27625  19.729   6.830  18.285 -0.2496 -0.3406 -0.1395
84714W        W27626  17.157   5.163  19.832 -0.2481  0.0355 -0.1936
84715W        W27627  19.954   4.444  21.979  0.2494 -0.0558  0.0983
84716W        W27628  21.213   6.165  16.405 -0.0617 -0.0565  0.0622
84717W        W27629  19.814   4.372  16.046 -0.0631 -0.1119  0.1830
84718W        W27630  19.634   5.873  16.968 -0.0342  0.0547 -0.0096
84719W        W27631  17.651   5.055  19.016  0.0334  0.1893 -0.1636
84720W        W27632  18.435   5.705  18.288  0.1967  0.0810 -0.1352
84721W        W27633  18.854   7.326  16.163 -0.1347  0.1443 -0.1470
84722W        W27634  20.022   6.343  16.525  0.1567  0.1918  0.3016
84723W        W27635  20.786   5.366  15.899 -0.0223 -0.1300  0.2388
84724W        W27636  19.945   6.434  18.487 -0.3965  0.0981  0.1278
84725W        W27637  19.323   5.678  15.715 -0.0440  0.1069  0.1435
84726W        W27638  19.806   7.855  16.611  0.1496  0.1417 -0.1025
84727W        W27639  17.624   6.268  16.613  0.1661 -0.3779 -0.0466
84728W        W27640  21.205   5.860  15.325  0.1772  0.1467  0.1850
84729W        W27641  17.933   6.632  17.185  0.2551 -0.0335  0.1690
84730W        W27642  21.190   5.858  19.585 -0.2577 -0.1562  0.3611
84731W        W27643  22.054   3.748  16.282 -0.1942  0.0931 -0.0657
84732W        W27644  22.305   4.860  17.383  0.0591  0.1852  0.1571
84733W        W27645  21.863   4.874  16.022 -0.3375  0.0250 -0.1606
84734W        W27646  21.627   7.028  16.659  0.1986 -0.1240 -0.0706
84735W        W27647  18.839   4.690  17.496  0.2562  0.0158  0.2231
84736W        W27648  18.833   4.805  15.978 -0.3924 -0.0418  0.2504
84737W        W27649  19.417   4.278  20.336  0.0074  0.1013  0.2735
84738W        W27650  21.400   4.060  19.775  0.3567 -0.0572  0.1452
84739W        W27651  18.335   6.618  19.072  0.0105  0.3099 -0.0441
84740W        W27652  22.511   5.327  16.655 -0.0488 -0.0209 -0.1357
84741W        W27653  18.191   5.490  17.781  0.1846  0.0261 -0.0037
84742W        W27654  19.194   5.472  17.018 -0.0897  0.0772 -0.2269
84743W        W27655  21.759   5.013  17.926  0.0893  0.0419  0.1206
84744W        W27656  20.026   5.114  15.352  0.3176 -0.0302  0.2463
84745W        W27657  21.623   5.504  19.360 -0.2716  0.1846  0.1639
84746W        W27658  19.114   7.817  18.118  0.2096  0.1724 -0.2397
84747W        W27659  20.728   5.723  19.337  0.2259 -0.2043  0.0602
84748W        W27660  17.871   7.394  18.459 -0.1671  0.0371 -0.1033
84749W        W27661  17.806   3.884  16.184 -0.2202 -0.1688  0.2614
84750W        W27662  22.672   4.441  17.236  0.0310  0.2229  0.2889
84751W        W27663  19.189   5.014  17.720  0.0281  0.0408  0.3555
84752W        W27664  20.618   5.326  17.272  0.0825  0.2735  0.2090
84753W        W27665  18.960   6.366  17.980 -0.0186  0.1490 -0.4856
84754W        W27666  23.015   4.935  17.348  0.0314 -0.1577  0.2306
84755W        W27667  22.643   4.227  18.801  0.0903  0.0526  0.0716
84756W        W27668  19.126   4.472  18.710 -0.2372 -0.0217  0.1004
84757W        W27669  20.159   5.361  16.730  0.0117 -0.0746 -0.0720
84758W        W27670  21.146   6.061  18.160  0.0936  0.0277  0.1937
84759W        W27671  21.948   4.802  15.557 -0.0426  0.1510  0.1611
84760W        W27672  20.137   5.397  20.098 -0.0942 -0.3204  0.0931
84761W        W27673  18.365   4.349  18.068 -0.2674 -0.2034  0.1964
84762W        W27674  20.643   5.595  16.816  0.0068 -0.1747 -0.1818
84763W        W27675  17.931   4.039  17.839 -0.0770 -0.3005  0.1429
84764W        W27676  20.043   5.604  18.281  0.0760 -0.1231 -0.0814
84765W        W27677  22.204   6.006  18.697  0.0983 -0.0988 -0.1057
84766W        W27678  18.082   4.351  17.456 -0.3298  0.2098 -0.3043
84767W        W27679  21.692   6.070  15.747  0.1782  0.3548 -0.1530
84768W        W27680  21.590   6.055  17.312  0.0428  0.3033  0.0233
84769W        W27681  20.109   7.629  17.757 -0.0111 -0.2474  0.1273
84770W        W27682  20.175   4.420  17.001 -0.1603 -0.0029  0.2269
84771W        W27683  20.962   6.705  16.987 -0.1200 -0.0860 -0.3959
84772W        W27684  19.817   6.017  19.381  0.3351  0.1733  0.1972
84773W        W27685  21.011   6.408  18.659  0.1310 -0.2692  0.1914
84774W        W27686  22.335   5.616  19.007 -0.0871 -0.3045 -0.0741
84775W        W27687  20.158   4.684  16.251  0.3766  0.2681 -0.0295
84776W        W27688  19.366   5.970  17.352 -0.0120  0.3934 -0.2492
84777W        W27689  15.709   5.879  17.680  0.0706  0.2986 -0.1216
84778W        W27690  21.926   5.593  18.602 -0.2275 -0.0650 -0.2758
84779W        W27691  20.149   5.638  17.744 -0.1052 -0.2427 -0.0374
84780W        W27692  20.633   5.264  16.418 -0.0929 -0.0013 -0.0791
84781W        W27693  20.940   4.426  19.674  0.1312  0.4179  0.2718
84782W        W27694  19.015   6.850  18.732 -0.0618  0.2353  0.0545
84783W        W27695  19.334   7.604  19.210 -0.1309  0.4849 -0.1976
84784W        W27696  19.502   6.174  15.912  0.0366  0.0396 -0.1394
84785W        W27697  19.855   5.438  18.733  0.0941  0.1788  0.0991
84786W        W27698  19.944   7.690  16.093  0.1526  0.2300 -0.0380
84787W        W27699  19.101   6.818  17.814  0.2308 -0.6097  0.1175
84788W        W27700  21.357   7.020  15.546 -0.0796  0.1599  0.2133
84789W        W27701  20.046   5.241  17.399 -0.1968  0.4115  0.0294
84790W        W27702  21.547   6.609  15.777  0.0852 -0.2171 -0.4450
84791W        W27703  20.266   5.691  17.201 -0.1871  0.1147  0.1068
84792W        W27704  22.016   3.974  17.405  0.3376 -0.1157  0.0286
84793W        W27705  20.348   4.905  17.149  0.1210 -0.0232 -0.0788
84794W        W27706  18.987   6.399  18.490 -0.2325  0.1995  0.2972
84795W        W27707  18.610   4.297  15.605  0.0828  0.3258  0.1824
84796W        W27708  19.110   6.210  15.612  0.1642 -0.0234 -0.0612
84797W        W27709  18.492   6.239  18.196 -0.0649  0.0100 -0.2380
84798W        W27710  19.826   4.456  19.935  0.0074  0.3731  0.0880
84799W        W27711  19.625   5.520  19.968 -0.1046 -0.2426 -0.1061
84800W        W27712  17.443   7.265  17.978 -0.0555  0.0692  0.1682
84801W        W27713  19.133   5.042  18.408  0.4485 -0.0311 -0.0599
84802W        W27714  21.240   5.038  17.970 -0.2807  0.1301  0.0877
84803W        W27715  18.831   4.368  18.293 -0.2103 -0.0256  0.0469
84804W        W27716  18.378   4.564  16.785 -0.0870  0.0940 -0.0261
84805W        W27717  21.296   4.666  16.776  0.3041  0.1612  0.1310
84806W        W27718  22.658   5.812  16.876  0.0992 -0.0289  0.0845
84807W        W27719  19.506   4.768  16.952 -0.0346 -0.2237  0.0573
84808W        W27720  22.679   6.877  20.131  0.0300  0.2106  0.2379
84809W        W27721  18.895   6.762  15.451  0.1177  0.1036  0.0613
84810W        W27722  21.334   5.314  19.806  0.1847 -0.1317 -0.0121
84811W        W27723  19.508   3.837  20.102  0.0064 -0.1620 -0.0238
84812W        W27724  17.777   4.401  16.115  0.1604  0.1620 -0.0911
84813W        W27725  19.667   4.710  17.761 -0.0963  0.3836 -0.0777
84814W        W27726  20.724   6.915  17.968  0.0064 -0.0258 -0.0925
84815W        W27727  19.984   7.488  15.214 -0.0100  0.2813 -0.0433
84816W        W27728  19.727   6.786  18.973  0.1501  0.1346 -0.0950
84817W        W27729  20.874   6.337  20.059 -0.0622 -0.1462  0.1571
84818W        W27730  17.298   4.014  19.505 -0.3233  0.0871  0.1707
84819W        W27731  20.887   5.103  16.858 -0.0996 -0.1188 -0.0123
84820W        W27732  18.234   7.683  18.193 -0.0782  0.0421  0.0281
84821W        W27733  23.013   5.584  15.909  0.0698 -0.0007 -0.1018
84822W        W27734  23.124   4.101  20.201  0.1450  0.1126 -0.1786
84823W        W27735  21.784   5.991  16.659  0.2594 -0.3240 -0.0623
84824W        W27736  17.883   4.285  18.297  0.1348 -0.2648 -0.1450
84825W        W27737  17.707   7.055  18.788  0.0199  0.1469  0.0846
84826W        W27738  20.540   5.255  17.864  0.0619  0.0550  0.1940
84827W        W27739  19.201   4.528  16.309 -0.0133 -0.1176 -0.0903
84828W        W27740  21.841   4.485  16.303 -0.0453  0.2534  0.1668
84829W        W27741  19.332   6.908  16.893  0.0947 -0.0343  0.1728
84830W        W27742  18.488   6.076  19.119  0.3830 -0.0008 -0.2605
84831W        W27743  19.677   5.630  17.526 -0.0915  0.2593 -0.4301
84832W        W27744  20.727   5.167  19.276  0.2007 -0.0069  0.1912
84833W        W27745  20.285   6.679  16.204 -0.0254 -0.2556 -0.0870
84834W        W27746  20.021   6.492  18.000  0.1656 -0.0453  0.0550
84835W        W27747  17.876   6.168  17.354 -0.0334  0.0626 -0.1606
84836W        W27748  22.014   5.269  15.719  0.0200 -0.0517 -0.1301
84837W        W27749  21.037   6.250  19.166  0.0251 -0.0808  0.0473
84838W        W27750  21.393   7.168  19.176  0.0065 -0.0562 -0.5046
84839W        W27751  19.724   5.941  18.740 -0.1234  0.0777  0.2440
84840W        W27752  19.862   5.237  17.881  0.5002 -0.3547  0.4519
84841W        W27753  18.793   4.774  18.025 -0.1764 -0.0912 -0.0953
84842W        W27754  18.270   5.302  16.511  0.2495 -0.0395 -0.1321
84843W        W27755  17.191   4.585  17.340 -0.4398 -0.4564 -0.1306
84844W        W27756  21.500   5.168  16.923 -0.0041 -0.3255 -0.0853
84845W        W27757  18.823   6.006  17.562  0.0323 -0.0117 -0.3706
84846W        W27758  20.958   4.761  16.454 -0.2307 -0.1180 -0.2642
84847W        W27759  20.103   8.484  18.366  0.1200  0.2949  0.1411
84848W        W27760  19.448   6.275  19.171 -0.0721 -0.0994 -0.0324
84849W        W27761  19.070   5.203  22.835 -0.0235  0.0705 -0.1416
84850W        W27762  18.814   7.131  21.081 -0.2803 -0.3294  0.1176
84851W        W27763  21.508   4.266  18.599 -0.0354  0.2928  0.2087
84852W        W27764  21.783   5.876  20.539  0.4151 -0.1879 -0.2384
84853W        W27765  17.110   3.219  20.595 -0.0108 -0.0809 -0.0384
84854W        W27766  20.193   5.991  21.215 -0.1387  0.0366 -0.0145
84855W        W27767  17.764   3.570  23.836  0.1722  0.0071  0.0144
84856W        W27768  21.360   6.342  21.703 -0.1148 -0.0974  0.1603
84857W        W27769  20.815   6.859  22.142  0.1809 -0.1819  0.0046
84858W        W27770  20.629   3.437  22.817 -0.0113 -0.0882  0.0575
84859W        W27771  18.484   4.313  20.596 -0.0265  0.0446  0.1074
84860W        W27772  19.515   6.653  22.272 -0.0033  0.1279 -0.2451
84861W        W27773  20.651   3.073  20.450 -0.0793 -0.2634 -0.0633
84862W        W27774  17.553   3.196  22.433 -0.1233 -0.0906  0.0859
84863W        W27775  20.596   4.440  22.546  0.2293 -0.0363 -0.2406
84864W        W27776  19.288   7.503  22.433 -0.0781 -0.3236  0.0215
84865W        W27777  18.385   4.479  21.141 -0.1178 -0.1975 -0.0312
84866W        W27778  19.228   4.809  19.136  0.0077 -0.1540 -0.1922
84867W        W27779  21.409   6.727  21.342 -0.1506 -0.3853  0.0361
84868W        W27780  20.028   3.477  22.252  0.0439  0.0933  0.0353
84869W        W27781  18.751   4.275  22.408 -0.0100 -0.1022  0.0020
84870W        W27782  20.986   6.549  20.533 -0.2587  0.4174 -0.0379
84871W        W27783  18.667   5.011  19.981  0.0307  0.1060 -0.1633
84872W        W27784  18.499   5.215  22.077  0.1392  0.3780 -0.0715
84873W        W27785  19.776   3.666  21.878 -0.4071  0.0029  0.1480
84874W        W27786  21.560   3.253  23.384  0.1981 -0.1241  0.0342
84875W        W27787  20.459   5.051  20.906 -0.3125  0.0903  0.1172
84876W        W27788  18.912   7.449  23.489  0.4590  0.0418  0.4651
84877W        W27789  19.591   5.376  23.720  0.3014 -0.0015  0.2054
84878W        W27790  20.768   3.618  24.105 -0.2825 -0.1208 -0.1435
84879W        W27791  19.672   5.328  20.891 -0.0942 -0.0089 -0.1576
84880W        W27792  18.074   6.703  21.400 -0.0331  0.0818 -0.0520
84881W        W27793  19.752   6.049  20.899  0.0763  0.1053  0.0769
84882W        W27794  22.703   6.290  20.144  0.1944 -0.2074 -0.1928
84883W        W27795  20.958   6.194  23.127 -0.0688  0.3414 -0.0694
84884W        W27796  18.949   8.096  23.030 -0.3124  0.0735  0.1508
84885W        W27797  20.447   5.337  20.496  0.1120 -0.0546  0.0378
84886W        W27798  20.681   5.510  23.880  0.2031 -0.2141  0.0222
84887W        W27799  20.519   6.589  23.702 -0.1624 -0.2343  0.1821
84888W        W27800  19.615   7.133  21.854  0.2791  0.1940 -0.1959
84889W        W27801  18.788   5.540  20.625  0.0305 -0.1712 -0.1169
84890W        W27802  19.960   5.846  19.919  0.1643 -0.0988  0.0469
84891W        W27803  21.159   6.777  20.121  0.2765 -0.2234 -0.2554
84892W        W27804  19.554   6.083  23.944  0.0302 -0.2813 -0.2049
84893W        W27805  19.120   5.689  20.257 -0.2623  0.1068  0.0803
84894W        W27806  21.355   4.943  24.488  0.2176  0.1818  0.2155
84895W        W27807  19.664   7.134  19.303  0.0668 -0.3821  0.2494
84896W        W27808  21.592   4.602  20.398 -0.2294  0.2233 -0.3050
84897W        W27809  19.797   4.346  18.492  0.0688 -0.0579 -0.0673
84898W        W27810  20.569   5.104  20.107  0.0650  0.1142  0.1098
84899W        W27811  20.021   3.206  23.541 -0.0298 -0.1065 -0.2429
84900W        W27812  20.661   6.657  21.703  0.0437  0.1818 -0.0686
84901W        W27813  19.250   3.796  20.562 -0.0320  0.0700 -0.0413
84902W        W27814  21.415   5.935  23.205  0.0837  0.1373  0.2630
84903W        W27815  19.950   3.475  21.240  0.1554 -0.0164 -0.4002
84904W        W27816  19.719   4.625  22.432 -0.2858  0.0074  0.0945
84905W        W27817  17.927   7.559  22.321  0.0345 -0.2172  0.0602
84906W        W27818  19.334   6.210  21.524 -0.1709 -0.0223  0.1478
84907W        W27819  22.336   7.176  19.162  0.1159  0.1373 -0.0472
84908W        W27820  21.335   8.165  20.918  0.1355 -0.3053 -0.3581
84909W        W27821  20.270   7.105  20.223  0.0806 -0.0958 -0.1484
84910W        W27822  19.795   4.646  20.386 -0.3712  0.0230  0.0036
84911W        W27823  19.126   4.902  22.338  0.1575  0.0342 -0.2269
84912W        W27824  18.936   5.323  21.884  0.0738  0.0583 -0.2623
84913W        W27825  19.570   4.464  18.998  0.2200  0.3483 -0.1854
84914W        W27826  20.709   5.828  23.344  0.0052 -0.1525 -0.0607
84915W        W27827  17.582   5.151  21.860 -0.1598  0.4661  0.0913
84916W        W27828  21.952   2.770  22.596 -0.0630  0.1605 -0.0452
84917W        W27829  19.389   5.707  21.818 -0.0706 -0.0598 -0.0038
84918W        W27830  21.011   5.988  21.954  0.3916 -0.2763  0.2695
84919W        W27831  21.266   4.906  22.004 -0.3646  0.4075  0.0758
84920W        W27832  20.912   2.792  22.347  0.1739 -0.0846  0.1200
84921W        W27833  19.068   4.889  21.595  0.1226  0.0395 -0.2526
84922W        W27834  19.561   4.871  18.607 -0.0922  0.1718 -0.5223
84923W        W27835  18.939   4.242  20.601 -0.1720  0.0920 -0.1224
84924W        W27836  20.389   5.156  21.500  0.0674  0.0890 -0.2309
84925W        W27837  21.197   4.404  20.654  0.2507 -0.1136 -0.1307
84926W        W27838  19.499   6.645  23.204  0.2462  0.0636 -0.1814
84927W        W27839  19.496   5.453  24.926 -0.2840 -0.2810  0.0483
84928W        W27840  20.359   7.146  23.723 -0.0752 -0.1398 -0.1408
84929W        W27841  18.846   6.828  19.776 -0.0610 -0.1226  0.1393
84930W        W27842  18.410   5.131  20.463  0.0077  0.1487  0.4069
84931W        W27843  18.444   7.465  20.840 -0.1076 -0.1940 -0.1803
84932W        W27844  19.205   4.475  23.225 -0.1324  0.1884 -0.2279
84933W        W27845  19.777   6.623  21.853 -0.0175 -0.1224 -0.2296
84934W        W27846  21.914   3.859  20.963  0.1900 -0.1493 -0.0177
84935W        W27847  17.018   3.396  24.010  0.1104 -0.0737 -0.2408
84936W        W27848  21.312   3.660  20.196 -0.0321 -0.0668 -0.0041
84937W        W27849  19.369   6.421  21.060 -0.3679 -0.0843 -0.0654
84938W        W27850  21.093   7.193  21.300 -0.2126 -0.3321  0.3265
84939W        W27851  21.869   5.562  20.910 -0.0449 -0.1371 -0.0885
84940W        W27852  21.873   6.282  19.599  0.0525 -0.2781 -0.1432
84941W        W27853  18.758   4.764  22.071 -0.1168 -0.0696  0.1379
84942W        W27854  19.930   6.148  20.389 -0.2167 -0.0389  0.0624
84943W        W27855  17.820   4.169  22.685  0.0697 -0.0819  0.1897
84944W        W27856  16.881   3.134  21.499 -0.0850  0.2082  0.0524
84945W        W27857  20.191   5.743  24.428  0.2392 -0.1084 -0.1287
84946W        W27858  18.897   4.074  20.136 -0.2745 -0.0115 -0.0010
84947W        W27859  20.189   3.363  21.748  0.0510 -0.0648 -0.2127
84948W        W27860  20.450   4.268  22.121  0.2827  0.1962 -0.0974
84949W        W27861  17.655   6.375  20.548  0.0316  0.3046 -0.0094
84950W        W27862  21.908   4.638  23.337  0.0510 -0.3747 -0.1694
84951W        W27863  19.435   7.394  18.241 -0.1687  0.0453  0.1312
84952W        W27864  22.248   6.490  23.418  0.1805 -0.0782 -0.0396
84953W        W27865  21.654   8.102  22.034 -0.1976 -0.1762  0.1442
84954W        W27866  19.962   4.608  22.845 -0.0260  0.0174 -0.0990
84955W        W27867  20.665   4.597  20.060 -0.1006  0.1748  0.0096
84956W        W27868  19.949   7.715  23.021 -0.1543  0.0389  0.0087
84957W        W27869  20.778   7.066  22.691  0.0990  0.0421  0.3950
84958W        W27870  20.603   4.333  19.204 -0.0659 -0.1073 -0.1425
84959W        W27871  20.280   6.772  22.057 -0.1214  0.0204 -0.0229
84960W        W27872  18.650   5.161  20.901  0.0204  0.0481 -0.1917
84961W        W27873  19.139   5.454  22.295 -0.0995  0.3706  0.0813
84962W        W27874  20.340   3.825  23.128  0.1954  0.1570 -0.1833
84963W        W27875  22.001   5.160  22.755  0.0302  0.2389  0.1154
84964W        W27876  21.265   5.946  22.402  0.0842  0.0469  0.0986
84965W        W27877  17.240   5.051  19.343 -0.2781  0.2205 -0.0523
84966W        W27878  21.572   7.269  21.654  0.1913  0.2136  0.0179
84967W        W27879  18.394   5.765  19.536 -0.0538 -0.0827  0.1830
84968W        W27880  19.813   4.209  20.697 -0.0889 -0.0358 -0.5057
84969W        W27881  20.180   6.818  21.053  0.1890  0.0805  0.1888
84970W        W27882  21.662   4.340  22.698  0.1678  0.1172  0.0211
84971W        W27883  17.688   4.382  23.181  0.0581 -0.2296 -0.0706
84972W        W27884  20.422   5.250  22.145  0.0840 -0.0461  0.1640
84973W        W27885  19.372   4.264  20.921 -0.0166 -0.2402 -0.2382
84974W        W27886  18.794   5.546  22.691 -0.0931  0.0939 -0.2202
84975W        W27887  20.364   3.206  23.158  0.0262  0.5779 -0.0746
84976W        W27888  22.190   4.819  21.325 -0.2345 -0.1457  0.0917
84977W        W27889  20.466   5.803  24.844  0.1409 -0.2442  0.1807
84978W        W27890  20.539   5.722  20.173  0.1270  0.0078 -0.1604
84979W        W27891  20.545   4.208  21.275 -0.0804  0.2572  0.0030
84980W        W27892  20.022   3.964  19.956 -0.2311  0.0537  0.1175
84981W        W27893  18.992   6.393  22.312  0.0931  0.2529  0.2378
84982W        W27894  20.197   6.385  20.806 -0.3988  0.1024 -0.1004
84983W        W27895  20.601   6.272  20.481  0.0550  0.2955 -0.0061
84984W        W27896  21.689   3.992  19.395 -0.2050 -0.1300  0.0488
84985W        W27897  21.189   7.129  20.432  0.1128 -0.1941  0.2599
84986W        W27898  19.298   6.263  20.565  0.1433 -0.2246  0.1161
84987W        W27899  20.798   5.143  22.947  0.1773  0.2247 -0.0198
84988W        W27900  20.305   5.865  22.459  0.0895  0.3837 -0.2588
84989W        W27901  18.695   4.060  23.443 -0.0351  0.1314 -0.0143
84990W        W27902  20.970   5.570  18.586 -0.2774  0.0853 -0.1891
84991W        W27903  21.558   4.189  21.753 -0.1248  0.1738  0.1700
84992W        W27904  16.825   7.035  19.349  0.0197  0.0923 -0.0249
84993W        W27905  22.155   2.974  23.736  0.2237  0.1060 -0.0097
84994W        W27906  21.208   4.095  23.987  0.0263 -0.3403  0.2143
84995W        W27907  19.974   4.863  23.938 -0.0064  0.0576 -0.1737
84996W        W27908  21.474   4.295  23.522  0.2702 -0.1475  0.3259
84997W        W27909  21.587   3.596  19.790  0.1378 -0.0541 -0.2838
84998W        W27910  20.118   4.601  20.930  0.2584  0.3180 -0.0292
84999W        W27911  20.438   4.696  21.312  0.2559 -0.3638 -0.0072
85000W        W27912  19.972   3.690  23.726 -0.2331 -0.0537  0.1690
85001W        W27913  19.531   3.261  23.487 -0.3617 -0.1425 -0.1509
85002W        W27914  17.645   6.591  22.375  0.1380  0.3296 -0.1174
85003W        W27915  21.035   5.672  23.001  0.3398  0.1188  0.0474
85004W        W27916  21.112   4.833  22.511  0.1793 -0.2064 -0.3665
85005W        W27917  20.369   4.195  24.457 -0.0752 -0.0596  0.0600
85006W        W27918  20.613   2.326  20.436  0.2916 -0.0331  0.0956
85007W        W27919  18.368   7.573  19.906 -0.0368  0.2657 -0.0134
85008W        W27920  21.266   3.656  21.690  0.4339  0.0122  0.4197
85009W        W27921  19.907   4.562  21.464 -0.1253  0.0732 -0.1562
85010W        W27922  18.963   4.668  22.819 -0.1071 -0.2912 -0.1048
85011W        W27923  21.297   7.541  20.127 -0.1464 -0.6011  0.3595
85012W        W27924  22.498   5.623  23.545  0.0528  0.3146  0.5335
85013W        W27925  19.297   7.189  19.021 -0.0911  0.3902 -0.2655
85014W        W27926  21.981   3.087  24.595 -0.0258  0.0039  0.1220
85015W        W27927  18.554   6.333  19.982  0.1221  0.1154  0.1587
85016W        W27928  20.200   4.767  19.997 -0.2203  0.4130 -0.0446
85017W        W27929  20.288   4.762  21.832  0.3145  0.3202  0.3097
85018W        W27930  21.469   3.894  21.282 -0.1950  0.1622 -0.3652
85019W        W27931  20.895   5.274  20.916 -0.1579  0.2000  0.2290
85020W        W27932  19.911   5.485  22.004  0.1294  0.0988 -0.2266
85021W        W27933  20.191   2.831  21.799  0.0516 -0.1769  0.0769
85022W        W27934  19.521   5.227  20.375  0.0124 -0.1001  0.1047
85023W        W27935  20.110   5.874  23.209 -0.1257 -0.1871  0.0563
85024W        W27936  21.184   4.246  19.018 -0.2945  0.0125 -0.2791
85025W        W27937  22.547   7.619  23.229  0.3017  0.1754 -0.0649
85026W        W27938  18.557   3.791  23.068  0.2487  0.1479  0.1469
85027W        W27939  17.934   4.288  20.272  0.3083 -0.3005 -0.0724
85028W        W27940  19.542   4.591  24.165 -0.2576  0.0653  0.1429
85029W        W27941  19.453   4.851  20.082 -0.1503 -0.1986 -0.1560
85030W        W27942  18.921   5.983  19.820  0.3264  0.1284  0.0572
85031W        W27943  20.853   6.303  24.361 -0.1763  0.3082 -0.0092
85032W        W27944  18.145   5.472  19.866 -0.0166 -0.1436 -0.0507
85033W        W27945  19.459   6.969  20.906 -0.1564  0.0163  0.0821
85034W        W27946  17.259   4.474  23.503  0.1646 -0.0560  0.0286
85035W        W27947  21.693   4.677  21.815  0.0904  0.2543  0.0098
85036W        W27948  19.080   3.053  21.647  0.0524 -0.1809 -0.0139
85037W        W27949  18.062   4.953  19.929 -0.0743 -0.1434 -0.1522
85038W        W27950  19.980   5.122  20.510  0.3204 -0.1852  0.1598
85039W        W27951  21.315   5.388  21.223  0.1745  0.1335  0.1673
85040W        W27952  19.121   4.879  21.034  0.1034  0.2699  0.0035
85041W        W27953  18.697   5.757  21.688 -0.0165  0.1376 -0.0507
85042W        W27954  19.674   4.004  23.238 -0.0012 -0.0135 -0.0530
85043W        W27955  21.116   6.071  20.619  0.1032 -0.0233  0.3146
85044W        W27956  20.524   6.786  25.421 -0.2086  0.2529 -0.0929
85045W        W27957  19.126   6.437  20.102  0.0272 -0.0481  0.0587
85046W        W27958  19.017   6.624  21.385  0.1150  0.0921  0.2070
85047W        W27959  19.898   4.135  21.230 -0.1576 -0.0183 -0.2514
85048W        W27960  20.074   3.976  22.287  0.1782 -0.0305  0.1219
85049W        W27961  18.922   6.174  21.839 -0.2088 -0.0150  0.0682
85050W        W27962  19.492   6.360  18.690 -0.0484  0.0310 -0.0371
85051W        W27963  19.571   6.816  21.386  0.1686  0.2261 -0.1224
85052W        W27964  21.552   3.158  20.525  0.3360  0.1223 -0.0440
85053W        W27965  20.571   5.704  21.080 -0.0774  0.0985  0.2117
85054W        W27966  18.929   4.384  21.136 -0.1243 -0.0317 -0.0162
85055W        W27967  22.168   4.664  24.209 -0.1847  0.1269  0.2084
85056W        W27968  19.672   4.841  20.879 -0.2746 -0.3918  0.3650
85057W        W27969  20.225   4.369  23.961 -0.0549 -0.0179  0.0984
85058W        W27970  18.705   3.995  21.461  0.0899  0.1429 -0.3208
85059W        W27971  21.316   5.596  20.650 -0.0013 -0.2767 -0.0740
85060W        W27972  17.694   4.279  20.813  0.2397  0.1603 -0.0519
85061W        W27973  21.930   6.402  23.794 -0.2607 -0.0233 -0.0462
85062W        W27974  18.587   5.434  24.576 -0.1184 -0.2645  0.0353
85063W        W27975  20.543   3.034  22.082 -0.0444 -0.2604 -0.0109
85064W        W27976  18.400   4.386  19.313  0.2138  0.0931  0.0670
85065W        W27977  20.216   7.546  21.272 -0.0719 -0.3936  0.1634
85066W        W27978  20.245   6.588  22.505 -0.1460 -0.0627  0.0979
85067W        W27979  20.961   5.388  20.225 -0.0606  0.0617  0.3322
85068W        W27980  20.574   3.836  21.971  0.0290 -0.0953  0.2168
85069W        W27981  18.113   4.981  21.253  0.0746  0.2940  0.3266
85070W        W27982  21.406   4.570  19.877  0.2260  0.2155  0.1194
85071W        W27983  22.237   5.178  20.924  0.1399 -0.0137  0.1579
85072W        W27984  19.426   6.772  19.781  0.4877 -0.0094 -0.0164
85073W        W27985  19.637   4.218  23.811 -0.2909 -0.0560 -0.3744
85074W        W27986  21.174   5.497  21.849 -0.1951 -0.0269 -0.2130
85075W        W27987  21.354   3.919  20.728 -0.3544  0.1628 -0.0938
85076W        W27988  20.453   4.831  23.408 -0.0671  0.1972  0.0584
85077W        W27989  19.839   6.135  21.664  0.1471  0.0862  0.2431
85078W        W27990  20.932   4.905  21.357 -0.3661 -0.0379 -0.0068
85079W        W27991  18.266   3.524  25.051  0.0003  0.0408 -0.2860
85080W        W27992  20.657   6.454  22.779  0.0542  0.3203 -0.2207
85081W        W27993  20.193   4.325  20.301 -0.0709 -0.0139  0.1231
85082W        W27994  21.613   3.932  24.319 -0.0036 -0.0197  0.2721
85083W        W27995  21.048   4.569  23.357 -0.0009  0.0291  0.3679
85084W        W27996  20.790   3.468  20.182  0.2002 -0.2433  0.2812
85085W        W27997  17.957   4.994  20.383  0.0227  0.2547 -0.0998
85086W        W27998  20.273   3.835  24.119  0.3152 -0.4040  0.1746
85087W        W27999  19.916   5.495  19.480  0.0296 -0.4778 -0.0212
85088W        W28000  21.019   3.164  24.065  0.2301  0.1957 -0.2684
85089W        W28001  20.280   5.842  20.646  0.1320  0.2035  0.1274
85090W        W28002  19.850   5.633  20.458 -0.4021 -0.2472  0.1332
85091W        W28003  20.827   3.315  21.783  0.1671 -0.2052  0.0882
85092W        W28004  16.644   4.256  21.732  0.1811 -0.1776 -0.1017
85093W        W28005  19.035   6.470  23.239  0.0428 -0.2989  0.2396
85094W        W28006  18.763   5.013  19.382 -0.2636  0.0472  0.0107
85095W        W28007  19.374   5.254  19.448  0.1936 -0.1566 -0.1369
85096W        W28008  21.150   5.339  22.394 -0.4657 -0.0979 -0.1636
85097W        W28009  20.988   6.229  23.794  0.1791 -0.3139  0.3054
85098W        W28010  20.698   3.246  19.657  0.2754  0.0529 -0.0313
85099W        W28011  19.884   5.099  24.474  0.2600  0.0830 -0.1199
85100W        W28012  19.160   7.114  20.085  0.0870  0.0930 -0.0369
85101W        W28013  20.794   4.317  21.703 -0.3265  0.0021  0.0218
85102W        W28014  18.318   6.466  22.482 -0.2418 -0.1308 -0.1466
85103W        W28015  18.441   7.017  22.762 -0.2258  0.0889 -0.0849
85104W        W28016  19.219   6.780  20.460  0.0208  0.1235  0.0302
85105W        W28017  20.396   5.072  24.255  0.4297 -0.4868 -0.2802
85106W        W28018  20.723   3.494  22.299 -0.0462  0.0941 -0.1074
85107W        W28019  19.202   6.607  21.886  0.1889  0.2279  0.2184
85108W        W28020  22.081   5.441  23.698  0.2160 -0.1445 -0.3262
85109W        W28021  20.547   5.461  22.659  0.3264 -0.3089  0.1098
85110W        W28022  20.832   5.665  20.604 -0.0913 -0.4140 -0.0145
85111W        W28023  20.257   7.101  22.403  0.0993  0.2806 -0.1382
85112W        W28024  20.753   6.197  20.968 -0.2840  0.1975  0.0761
85113W        W28025  20.226   6.405  21.605  0.1679  0.0642  0.1388
85114W        W28026  17.206   5.018  22.657 -0.1395  0.0781 -0.1794
85115W        W28027  19.600   5.490  24.403  0.0235  0.3766 -0.1527
85116W        W28028  20.658   6.093  21.528 -0.1946  0.0229  0.0687
85117W        W28029  18.845   3.437  20.852  0.2712  0.1869  0.0972
85118W        W28030  19.546   3.829  21.062 -0.5096  0.0707  0.1090
85119W        W28031  18.586   6.129  22.169 -0.0149 -0.0119  0.2110
85120W        W28032  19.293   3.813  21.952  0.2631  0.1237  0.2651
85121W        W28033  20.385   5.833  19.674 -0.0456 -0.0913  0.0165
85122W        W28034  20.837   5.044  21.842  0.0524 -0.1184 -0.4338
85123W        W28035  21.028   6.366  21.329 -0.2550  0.0999  0.1655
85124W        W28036  21.372   7.566  22.533  0.1145  0.4230  0.0852
85125W        W28037  20.000   3.650  20.735  0.0065 -0.1159 -0.0418
85126W        W28038  20.503   6.254  22.041  0.0108  0.2314 -0.0725
85127W        W28039  18.857   6.497  20.688  0.1545 -0.0355 -0.3544
85128W        W28040  20.592   6.622  21.184 -0.1009 -0.1892 -0.1748
85129W        W28041  19.160   7.462  21.185  0.0148 -0.1908 -0.1871
85130W        W28042  19.449   7.564  23.001  0.1926  0.1268  0.0547
85131W        W28043  23.051   4.391  19.758  0.1467  0.0536 -0.1382
85132W        W28044  20.876   5.177  23.480  0.2610  0.2996 -0.0448
85133W        W28045  21.655   3.734  21.980  0.2157  0.3938  0.0612
85134W        W28046  20.194   5.521  25.300 -0.2419  0.3068 -0.4487
85135W        W28047  19.100   5.402  20.996 -0.0679  0.0878 -0.1483
85136W        W28048  19.885   2.622  20.860  0.2894 -0.0049 -0.4103
85137W        W28049  19.275   4.439  22.434  0.2114 -0.2086 -0.1300
85138W        W28050  21.910   3.452  23.686 -0.0889  0.2869  0.1241
85139W        W28051  19.479   4.842  22.811  0.2287  0.1503 -0.0012
85140W        W28052  21.001   7.726  20.488 -0.1591  0.1207  0.1571
85141W        W28053  18.879   4.630  20.196 -0.0542 -0.0644 -0.0021
85142W        W28054  20.269   4.112  21.671  0.1010  0.3182  0.4180
85143W        W28055  20.736   4.881  23.863  0.1262 -0.1418 -0.3800
85144W        W28056  20.013   5.056  21.151  0.0652  0.0104  0.1007
85145W        W28057  19.846   5.009  21.832 -0.0744 -0.1558 -0.0975
85146W        W28058  20.383   6.551  19.653  0.1486 -0.1168  0.0065
85147W        W28059  20.032   7.084  21.552  0.0692 -0.3453 -0.0324
85148W        W28060  20.055   7.312  21.993  0.1172 -0.2163 -0.0239
85149W        W28061  17.687   3.067  20.184 -0.3350 -0.2628 -0.0601
85150W        W28062  22.153   5.333  22.292  0.1496  0.0554 -0.1088
85151W        W28063  17.858   5.137  22.947 -0.1952 -0.1083 -0.3460
85152W        W28064  21.468   3.963  22.484  0.0808  0.1493  0.1731
85153W        W28065  19.389   5.083  21.961  0.0874  0.0551  0.1737
85154W        W28066  20.933   3.908  20.420 -0.2041  0.0381  0.1591
85155W        W28067  21.059   4.556  24.145  0.0768  0.0862  0.1959
85156W        W28068  19.489   3.561  23.014 -0.2671 -0.3481 -0.0568
85157W        W28069  20.076   4.877  19.467 -0.0116 -0.2103  0.1175
85158W        W28070  21.431   6.840  23.661  0.3796 -0.0648 -0.0990
85159W        W28071  22.284   5.383  20.011  0.0824  0.0631 -0.1613
85160W        W28072  21.050   6.661  22.553 -0.0528 -0.1061 -0.1045
85161W        W28073  17.714   3.766  20.385  0.0293  0.0686 -0.0826
85162W        W28074  20.430   3.730  21.165 -0.2365  0.1557 -0.0863
85163W        W28075  19.687   7.578  22.151 -0.0674 -0.0144 -0.2389
85164W        W28076  21.234   4.540  21.615  0.1969  0.0577 -0.0133
85165W        W28077  20.313   5.189  23.735 -0.0129  0.1452  0.2132
85166W        W28078  17.620   3.326  20.589  0.0996 -0.0438 -0.0249
85167W        W28079  22.030   5.767  19.590  0.1302  0.1506 -0.0903
85168W        W28080  21.867   3.809  22.758  0.0980 -0.0592  0.2229
85169W        W28081  17.986   7.894  18.576  0.1561  0.0400 -0.2169
85170W        W28082  20.879   5.382  21.450  0.2353 -0.0228 -0.3220
85171W        W28083  21.174   6.808  21.810 -0.3183  0.1313 -0.0743
85172W        W28084  20.192   4.701  22.333 -0.1458 -0.2247 -0.2736
85173W        W28085  21.754   7.259  22.560  0.0688 -0.0699  0.3426
85174W        W28086  22.007   5.845  22.228  0.0861 -0.0705  0.1216
85175W        W28087  19.167   1.584  21.462 -0.0712  0.2768 -0.1068
85176W        W28088  18.670   4.832  21.279  0.1177  0.0176 -0.0924
85177W        W28089  19.645   6.641  20.199  0.0710 -0.1041  0.2674
85178W        W28090  21.745   4.961  24.189  0.1426 -0.1617  0.3009
85179W        W28091  20.583   4.957  22.475  0.1954 -0.1519 -0.0982
85180W        W28092  21.759   6.783  19.511  0.1050  0.3826  0.0967
85181W        W28093  19.101   3.730  23.292  0.1195  0.3722  0.1016
85182W        W28094  20.441   5.455  23.156  0.3020  0.0212 -0.0600
85183W        W28095  19.425   5.574  22.809  0.0639  0.1686  0.0159
85184W        W28096  18.638   5.522  20.043 -0.3818 -0.2147  0.1222
85185W        W28097  20.228   5.921  21.904 -0.0269  0.0810 -0.0571
85186W        W28098  19.226   4.653  20.595  0.1216  0.0263 -0.0526
85187W        W28099  18.909   7.906  19.001  0.0393  0.0876  0.0560
85188W        W28100  21.699   6.644  22.530  0.0642  0.0684 -0.0732
85189W        W28101  19.819   3.443  20.016 -0.1216 -0.1552  0.1747
85190W        W28102  20.665   4.344  23.614 -0.2151 -0.2025  0.0941
85191W        W28103  19.268   3.375  21.061  0.0434  0.0047  0.2731
85192W        W28104  21.779   3.211  20.081 -0.1519 -0.1694 -0.3406
85193W        W28105  20.223   2.318  21.874 -0.0378  0.1807  0.0409
85194W        W28106  19.247   5.377  21.483 -0.2170 -0.2726  0.1795
85195W        W28107  16.471   5.200  19.137  0.0068  0.0373  0.0586
85196W        W28108  20.341   5.300  19.675  0.3670  0.0231 -0.1338
85197W        W28109  19.145   5.827  21.279 -0.1191  0.0497 -0.0616
85198W        W28110  20.844   2.506  24.968 -0.1282  0.1461 -0.3116
85199W        W28111  18.595   5.259  23.428  0.0894  0.2768  0.1704
85200W        W28112  18.706   5.067  22.506 -0.0324 -0.0287 -0.1474
85201W        W28113  18.311   3.320  20.900  0.2788  0.0964 -0.0703
85202W        W28114  21.538   5.121  20.730 -0.2732 -0.0264  0.0369
85203W        W28115  17.281   2.891  22.843 -0.1811 -0.4826  0.1746
85204W        W28116  17.272   4.169  20.359 -0.1948  0.1067  0.0592
85205W        W28117  20.814   4.653  22.131  0.1635  0.0952 -0.1402
85206W        W28118  20.563   6.756  20.712  0.1523  0.2605  0.1355
85207W        W28119  19.779   3.165  21.634  0.3641  0.1658  0.2617
85208W        W28120  22.567   7.167  24.228  0.0413  0.5080  0.0562
85209W        W28121  20.767   6.109  19.634  0.2367 -0.3544 -0.0416
85210W        W28122  19.964   5.393  24.100 -0.1319  0.0200  0.1644
85211W        W28123  19.084   5.210  23.773 -0.2470 -0.5802 -0.0110
85212W        W28124  17.489   4.047  18.547  0.1800 -0.1009 -0.3562
85213W        W28125  19.446   3.256  22.013  0.0754  0.3288  0.1850
85214W        W28126  20.793   7.227  20.695  0.0141  0.0578  0.2834
85215W        W28127  20.939   7.368  21.761  0.1367  0.0173 -0.2640
85216W        W28128  19.636   5.718  21.327  0.1149  0.1811 -0.0598
85217W        W28129  20.395   6.256  23.282 -0.2279 -0.3606  0.2751
85218W        W28130  18.115   2.280  20.781  0.0175  0.1445  0.1137
85219W        W28131  21.395   5.026  21.553 -0.2028 -0.1465  0.2907
85220W        W28132  20.408   7.966  22.453 -0.1268  0.0879 -0.3831
85221W        W28133  21.280   6.429  22.175  0.3534  0.0699  0.0678
85222W        W28134  21.852   4.289  22.210  0.1515 -0.2747  0.0608
85223W        W28135  19.396   4.505  21.378 -0.1852  0.3817 -0.1912
85224W        W28136  18.016   3.337  23.024  0.0586 -0.2410 -0.0511
85225W        W28137  20.006   6.294  22.182 -0.2305 -0.1252  0.1797
85226W        W28138  22.706   5.140  23.712  0.2608  0.1699  0.0588
85227W        W28139  17.605   4.306  21.903  0.3038  0.2171 -0.1724
85228W        W28140  19.631   2.461  21.303 -0.0478  0.0523 -0.1145
85229W        W28141  21.449   6.784  20.611  0.1375  0.1508  0.4266
85230W        W28142  19.165   5.253  19.989 -0.1054  0.0638 -0.1475
85231W        W28143  20.821   3.857  21.512 -0.0752  0.1754 -0.2544
85232W        W28144  20.101   5.590  21.566  0.0544  0.1506 -0.1825
85233W        W28145  22.215   6.644  20.782 -0.4711 -0.2092 -0.3224
85234W        W28146  19.631   6.694  23.692 -0.0749 -0.0724  0.0442
85235W        W28147  20.971   4.681  19.141 -0.3226 -0.0630  0.2977
85236W        W28148  21.235   5.901  21.511  0.4640 -0.0042  0.0905
85237W        W28149  21.282   5.383  23.286  0.0351 -0.2775  0.3249
85238W        W28150  22.042   5.920  23.571 -0.1546  0.0510 -0.3308
85239W        W28151  21.324   6.308  22.742  0.3282  0.1988 -0.2321
85240W        W28152  21.664   5.358  22.364 -0.0604 -0.3152  0.4336
85241W        W28153  19.125   3.927  22.422  0.0253 -0.0744  0.1050
85242W        W28154  18.755   4.347  19.746 -0.4434 -0.2440 -0.1268
85243W        W28155  19.350   5.735  20.656  0.2789  0.0078 -0.0505
85244W        W28156  21.301   3.599  24.160  0.1288 -0.1260 -0.0860
85245W        W28157  17.651   5.222  20.008  0.3715  0.0374 -0.2735
85246W        W28158  20.565   4.802  19.541  0.0750 -0.2071  0.0287
85247W        W28159  19.582   6.172  23.069 -0.1143 -0.2251  0.1082
85248W        W28160  20.803   5.719  22.333  0.1169 -0.2888  0.1998
85249W        W28161  20.715   5.844  26.378 -0.0150  0.0893 -0.0212
85250W        W28162  18.233   5.043  23.682  0.1710  0.0543  0.1714
85251W        W28163  21.089   2.650  24.003  0.1233  0.0884  0.1178
85252W        W28164  21.813   6.346  24.731  0.3752  0.0331  0.0241
85253W        W28165  17.692   5.394  24.116 -0.1028  0.0485  0.3540
85254W        W28166  21.211   5.591  25.283 -0.0367 -0.2726 -0.0933
85255W        W28167  20.015   2.876  25.466  0.0666 -0.0119 -0.3881
85256W        W28168  20.757   6.482  24.914  0.3398 -0.1157 -0.1191
85257W        W28169  21.874   7.385  26.160  0.3778 -0.1034  0.5812
85258W        W28170  19.858   5.846  22.722 -0.2140 -0.0865  0.2805
85259W        W28171  20.557   4.566  25.259  0.0530 -0.1636  0.1614
85260W        W28172  19.823   7.808  25.371 -0.0480  0.1595 -0.0213
85261W        W28173  18.294   2.748  24.241  0.1443 -0.0848  0.0309
85262W        W28174  18.599   3.656  26.469 -0.0549 -0.3831 -0.1424
85263W        W28175  20.514   3.375  26.417 -0.3151 -0.2299  0.1468
85264W        W28176  18.653   5.412  23.932 -0.2176 -0.0671 -0.0732
85265W        W28177  18.462   5.856  25.190  0.2209 -0.3930 -0.1121
85266W        W28178  19.693   4.612  24.730  0.0331 -0.2148 -0.1164
85267W        W28179  20.900   7.406  24.784 -0.0926 -0.2644  0.0874
85268W        W28180  17.935   4.789  26.317  0.0977  0.0687 -0.1423
85269W        W28181  20.738   3.445  28.939 -0.3073  0.1709 -0.0087
85270W        W28182  19.776   5.872  22.228 -0.2177  0.1137 -0.2630
85271W        W28183  17.198   4.914  23.733  0.3215 -0.1704 -0.0857
85272W        W28184  17.734   4.543  23.697  0.4706  0.0260 -0.2738
85273W        W28185  18.615   5.949  25.727  0.0344 -0.1788  0.0702
85274W        W28186  21.872   3.725  25.024  0.0531 -0.0935 -0.2759
85275W        W28187  20.198   4.929  25.181  0.0856 -0.0250 -0.0453
85276W        W28188  19.377   6.392  25.177  0.1804 -0.0292 -0.0371
85277W        W28189  20.168   6.982  25.804 -0.1794 -0.1844  0.1127
85278W        W28190  22.792   3.285  26.967  0.0926 -0.2814  0.2160
85279W        W28191  18.557   6.667  23.548 -0.3188 -0.0164 -0.3632
85280W        W28192  19.863   7.119  23.431 -0.2080 -0.0148  0.1945
85281W        W28193  19.523   6.029  24.932  0.1606  0.1503  0.1643
85282W        W28194  20.806   5.486  25.064 -0.3201 -0.1574 -0.1538
85283W        W28195  21.895   4.962  26.539 -0.0305 -0.2174 -0.2315
85284W        W28196  21.270   5.984  25.597 -0.0385 -0.1405  0.1674
85285W        W28197  19.073   5.903  22.464 -0.1510  0.0401  0.1862
85286W        W28198  19.861   6.095  25.992  0.1694 -0.2717 -0.4060
85287W        W28199  19.080   7.193  25.868 -0.1599  0.2231 -0.1765
85288W        W28200  19.601   4.587  26.295 -0.3774  0.0589 -0.0371
85289W        W28201  19.838   5.526  25.968  0.1022 -0.1266 -0.1391
85290W        W28202  19.428   6.957  24.736 -0.3432 -0.0197 -0.1656
85291W        W28203  19.972   5.721  24.866  0.2213 -0.0334  0.3521
85292W        W28204  18.893   5.121  26.468  0.0749 -0.3055 -0.3206
85293W        W28205  17.617   6.819  24.739 -0.0042  0.0913 -0.0910
85294W        W28206  22.412   4.420  28.449  0.3611 -0.4713  0.0239
85295W        W28207  19.168   5.929  23.251  0.2392 -0.1159 -0.1109
85296W        W28208  20.022   3.696  22.716  0.1906  0.0234  0.0212
85297W        W28209  18.963   3.613  22.782  0.4155  0.0025  0.3402
85298W        W28210  21.139   5.500  26.388 -0.0961 -0.2815  0.5501
85299W        W28211  20.224   4.673  25.598 -0.0507 -0.1186  0.0120
85300W        W28212  18.070   4.967  25.813  0.1288  0.1399  0.1004
85301W        W28213  18.231   4.394  24.956 -0.0712 -0.1011 -0.0783
85302W        W28214  20.972   6.464  25.413  0.1585 -0.0429  0.0192
85303W        W28215  19.531   5.088  24.088  0.0947 -0.0937 -0.1006
85304W        W28216  21.533   4.163  25.225  0.1388 -0.0886  0.0637
85305W        W28217  20.292   6.359  26.251  0.0046 -0.0994 -0.0506
85306W        W28218  19.176   5.521  25.970 -0.2607 -0.1535 -0.0208
85307W        W28219  20.661   7.261  23.145 -0.1976  0.0528  0.2703
85308W        W28220  21.921   5.838  24.935  0.1423 -0.1804  0.0060
85309W        W28221  20.378   7.349  24.331  0.3080 -0.1669 -0.4480
85310W        W28222  18.239   4.442  26.027 -0.0919  0.2256 -0.4147
85311W        W28223  18.691   5.966  27.554 -0.0249 -0.0785 -0.0688
85312W        W28224  17.721   5.392  25.729  0.1700  0.0241 -0.1133
85313W        W28225  18.199   4.096  22.390 -0.6584 -0.1292 -0.1413
85314W        W28226  20.395   7.570  26.615 -0.1553  0.1973 -0.2595
85315W        W28227  17.868   6.778  26.531  0.1755 -0.1199  0.1820
85316W        W28228  21.419   4.802  26.333  0.0940  0.0056 -0.0584
85317W        W28229  18.762   6.725  23.995 -0.0875 -0.2323  0.1854
85318W        W28230  19.740   5.763  25.358  0.1095  0.1731 -0.3623
85319W        W28231  20.612   5.442  24.502  0.2637  0.0207  0.1406
85320W        W28232  21.833   4.635  24.608  0.0761  0.1289  0.1654
85321W        W28233  21.374   3.080  27.196 -0.1926  0.0604  0.1981
85322W        W28234  18.269   5.534  22.825 -0.0934 -0.3817  0.0756
85323W        W28235  19.394   5.009  24.573 -0.2271 -0.1462  0.0370
85324W        W28236  22.107   5.332  27.356  0.1352  0.3087 -0.3774
85325W        W28237  20.321   4.578  24.794  0.0475 -0.0864  0.0808
85326W        W28238  17.688   5.203  24.588 -0.1904  0.1002  0.2109
85327W        W28239  20.676   3.928  25.483 -0.0595 -0.0090 -0.0187
85328W        W28240  19.817   6.647  25.998 -0.3810 -0.2656 -0.0929
85329W        W28241  19.270   6.761  24.127  0.2162 -0.1024 -0.0496
85330W        W28242  16.438   6.862  25.169  0.0744  0.0303 -0.0547
85331W        W28243  18.684   5.720  23.167  0.1467 -0.1307  0.1901
85332W        W28244  17.213   4.569  25.647 -0.3432  0.0481  0.1722
85333W        W28245  19.567   5.837  26.245  0.0334  0.1577 -0.1990
85334W        W28246  22.012   3.125  23.272  0.3696  0.2363  0.0163
85335W        W28247  17.082   2.014  26.196 -0.0126  0.1086  0.0139
85336W        W28248  22.085   3.333  25.372 -0.2378 -0.0317 -0.2757
85337W        W28249  20.036   6.293  23.697 -0.1042 -0.0074  0.4414
85338W        W28250  22.303   6.307  25.110  0.1244 -0.1758  0.0880
85339W        W28251  21.518   4.315  25.683 -0.1112 -0.0746  0.0062
85340W        W28252  20.905   6.037  25.162  0.3169  0.2603  0.0744
85341W        W28253  18.612   6.199  26.283  0.4143 -0.1511  0.2057
85342W        W28254  19.753   4.365  25.733  0.1264 -0.0850  0.1616
85343W        W28255  18.865   4.326  27.405 -0.1995  0.0608 -0.1595
85344W        W28256  17.368   4.004  25.229  0.0245 -0.2393  0.0768
85345W        W28257  20.637   4.902  26.675  0.3973 -0.2065 -0.1395
85346W        W28258  17.899   4.845  23.294 -0.1975  0.0959  0.3149
85347W        W28259  19.028   4.953  23.302 -0.3275  0.1596  0.0482
85348W        W28260  19.508   4.964  23.325 -0.3110  0.1444 -0.1738
85349W        W28261  17.208   6.654  24.448 -0.0919 -0.2515 -0.1148
85350W        W28262  20.213   3.611  27.330 -0.1380  0.1696 -0.0817
85351W        W28263  20.145   6.680  24.470 -0.0452 -0.0550 -0.1124
85352W        W28264  21.939   7.067  27.035  0.1261  0.2933 -0.0530
85353W        W28265  21.479   7.761  23.204 -0.1590 -0.1135 -0.0509
85354W        W28266  20.961   4.548  26.532  0.0105  0.2811 -0.3010
85355W        W28267  18.776   4.199  24.810  0.2117  0.2647  0.0467
85356W        W28268  18.103   5.940  25.866 -0.0292 -0.0293  0.0626
85357W        W28269  19.396   6.049  24.404 -0.4478 -0.2347  0.1318
85358W        W28270  19.072   4.619  24.725 -0.0873 -0.1603  0.0561
85359W        W28271  22.647   6.091  25.547  0.0379  0.1181  0.1097
85360W        W28272  19.055   4.763  24.074 -0.2812  0.4587  0.2686
85361W        W28273  19.818   6.715  26.939  0.0795 -0.1840 -0.3534
85362W        W28274  21.456   2.660  27.661  0.1770 -0.2113 -0.1279
85363W        W28275  20.093   4.475  26.093  0.0122  0.0461 -0.0003
85364W        W28276  20.238   5.299  24.749 -0.1827  0.1318 -0.1550
85365W        W28277  17.796   3.037  23.942 -0.0590  0.2668 -0.0286
85366W        W28278  20.895   6.996  23.621  0.1412  0.2122 -0.2972
85367W        W28279  18.123   6.375  22.011 -0.0058  0.1677  0.1280
85368W        W28280  18.106   5.384  23.305  0.0189 -0.0880 -0.0359
85369W        W28281  20.053   7.189  25.197 -0.0033  0.1997  0.0862
85370W        W28282  21.084   3.601  26.243 -0.0044 -0.2541 -0.2573
85371W        W28283  18.945   3.901  27.170  0.1059 -0.1372 -0.3144
85372W        W28284  19.867   3.860  26.785  0.1977 -0.1874  0.0093
85373W        W28285  18.192   5.057  22.594  0.5137 -0.2846  0.2432
85374W        W28286  19.293   7.967  25.542  0.0316  0.0430 -0.0532
85375W        W28287  21.635   2.794  25.912 -0.1687 -0.0210  0.0394
85376W        W28288  22.660   3.113  24.649 -0.0176 -0.0113 -0.1555
85377W        W28289  20.392   4.856  26.056 -0.3139  0.0791 -0.1047
85378W        W28290  21.146   5.279  25.726 -0.0505 -0.3289 -0.0824
85379W        W28291  18.822   7.095  24.447 -0.0451  0.1559  0.3680
85380W        W28292  19.664   4.136  24.688  0.3360 -0.0009  0.0163
85381W        W28293  18.187   7.447  26.085  0.0128 -0.0660 -0.2143
85382W        W28294  20.643   6.921  24.055  0.1985  0.2131  0.3494
85383W        W28295  20.529   6.775  26.124  0.2127  0.0688 -0.2525
85384W        W28296  19.121   4.206  23.656  0.2171  0.1893 -0.2183
85385W        W28297  22.313   5.963  24.747  0.1244  0.1927 -0.1436
85386W        W28298  17.267   6.249  25.977  0.0091 -0.2447 -0.0782
85387W        W28299  20.706   5.910  26.886  0.1684  0.3113 -0.1981
85388W        W28300  21.502   7.536  25.412  0.0043 -0.0978  0.1507
85389W        W28301  18.373   4.010  25.251 -0.0676  0.1103  0.1039
85390W        W28302  18.629   4.133  23.911 -0.0015 -0.1049 -0.1687
85391W        W28303  19.753   5.012  25.002  0.0841  0.0536  0.0649
85392W        W28304  19.712   5.889  23.514  0.2702  0.0778 -0.1041
85393W        W28305  21.180   3.857  25.412 -0.2482  0.2948 -0.4057
85394W        W28306  20.422   4.515  26.466 -0.0870  0.1952  0.1271
85395W        W28307  19.331   2.179  27.097 -0.0454  0.0836  0.0835
85396W        W28308  20.919   2.263  27.495 -0.0194  0.0162  0.0426
85397W        W28309  20.332   3.348  23.942 -0.2248 -0.1840  0.0685
85398W        W28310  21.744   5.412  25.142 -0.5380 -0.2424 -0.0994
85399W        W28311  18.292   4.403  23.554 -0.0353  0.1683 -0.4371
85400W        W28312  20.472   2.731  26.346  0.1768 -0.0811 -0.0057
85401W        W28313  17.607   4.844  26.718 -0.1826 -0.1161  0.1217
85402W        W28314  18.743   7.407  26.178 -0.1336 -0.4774  0.0854
85403W        W28315  21.438   6.574  25.620 -0.0525  0.1696 -0.0738
85404W        W28316  20.348   6.256  24.674  0.1841 -0.0444 -0.0234
85405W        W28317  20.329   3.851  26.118 -0.0336 -0.2494  0.1531
85406W        W28318  19.927   3.719  24.861  0.0448  0.0004  0.2413
85407W        W28319  19.150   7.877  23.417  0.2013 -0.1888  0.2843
85408W        W28320  19.156   5.462  23.274 -0.0205 -0.1711  0.2559
85409W        W28321  18.431   5.017  26.331  0.0443 -0.0978 -0.0165
85410W        W28322  19.874   4.913  25.997  0.0349 -0.0277 -0.5552
85411W        W28323  20.052   6.637  23.355 -0.1502  0.1217 -0.0213
85412W        W28324  21.128   4.853  27.460 -0.1117 -0.0870  0.3231
85413W        W28325  18.985   6.672  24.581 -0.0394  0.1127  0.3669
85414W        W28326  21.287   3.269  26.710  0.4933  0.2996  0.0413
85415W        W28327  17.507   6.263  25.232 -0.1682 -0.1181 -0.0432
85416W        W28328  19.472   4.670  23.669 -0.0655  0.2554 -0.0185
85417W        W28329  16.572   4.923  22.973  0.1879 -0.0979  0.0297
85418W        W28330  21.111   5.117  25.199 -0.2190  0.0014 -0.1499
85419W        W28331  20.936   5.791  24.693  0.0702  0.0020 -0.1586
85420W        W28332  18.312   3.152  26.364  0.1356  0.0818 -0.0916
85421W        W28333  20.467   3.722  24.541 -0.0816  0.1316 -0.2442
85422W        W28334  18.642   6.267  24.286  0.3282  0.1151  0.2020
85423W        W28335  20.894   3.701  26.796  0.0373 -0.0748 -0.0760
85424W        W28336  20.698   4.120  24.042  0.4250 -0.0513 -0.2304
85425W        W28337  21.486   6.901  26.289  0.0074 -0.1325 -0.3590
85426W        W28338  19.532   5.360  27.193  0.0472 -0.0823 -0.1762
85427W        W28339  17.084   3.913  23.888  0.5597  0.1145  0.0918
85428W        W28340  22.986   5.140  25.081 -0.1420  0.3878  0.0529
85429W        W28341  18.879   5.458  25.575 -0.0335 -0.1754 -0.1421
85430W        W28342  16.398   5.776  22.607  0.0490 -0.0196  0.2048
85431W        W28343  21.275   5.841  27.276  0.1212  0.3249  0.0711
85432W        W28344  18.119   7.264  23.288 -0.0519  0.0086 -0.1781
85433W        W28345  18.224   6.634  24.582 -0.1766 -0.1455 -0.3047
85434W        W28346  20.096   2.743  26.710  0.0833  0.1658  0.1823
85435W        W28347  20.667   4.356  27.600 -0.1984 -0.1300 -0.1851
85436W        W28348  19.592   5.292  25.411  0.0366  0.0110  0.0648
85437W        W28349  19.922   3.442  25.931 -0.2704 -0.1072 -0.0098
85438W        W28350  20.927   5.027  26.262 -0.0583 -0.4189  0.5567
85439W        W28351  20.667   5.675  25.502  0.0290  0.0617  0.1228
85440W        W28352  20.069   3.596  26.446 -0.0523  0.2593 -0.1713
85441W        W28353  20.061   6.165  27.057 -0.0762  0.0430  0.6222
85442W        W28354  20.624   2.968  24.855  0.0113  0.0540  0.2019
85443W        W28355  21.993   5.746  24.406 -0.0088 -0.0889 -0.3415
85444W        W28356  20.143   5.190  25.704 -0.4105  0.0536 -0.1836
85445W        W28357  20.007   6.749  25.400  0.1896  0.3538 -0.1080
85446W        W28358  17.212   5.303  26.420 -0.0562  0.1350 -0.2245
85447W        W28359  18.650   4.516  24.324  0.0776 -0.0319  0.0970
85448W        W28360  20.859   4.809  25.735  0.3220 -0.3881 -0.1017
85449W        W28361  18.637   6.487  25.533  0.0580  0.0969 -0.3490
85450W        W28362  18.469   6.357  25.020  0.0876 -0.2096  0.2505
85451W        W28363  17.782   6.923  27.902  0.3828  0.1999  0.0986
85452W        W28364  20.716   3.244  23.646  0.1589  0.1519  0.0791
85453W        W28365  19.979   5.029  23.399  0.0319  0.0481  0.2702
85454W        W28366  21.033   7.042  25.666  0.2822  0.2031 -0.1473
85455W        W28367  22.517   2.609  25.830  0.1676  0.3837  0.0847
85456W        W28368  19.890   6.121  24.557  0.0760  0.1843 -0.0107
85457W        W28369  21.145   4.377  28.330 -0.0574  0.1143  0.1944
85458W        W28370  17.699   4.348  25.390 -0.0039  0.3785  0.0342
85459W        W28371  20.287   7.518  23.384  0.0585  0.2036  0.1201
85460W        W28372  19.327   5.048  26.227 -0.1218 -0.0704  0.1666
85461W        W28373  20.940   7.280  26.758 -0.0731 -0.2984  0.2600
85462W        W28374  18.914   4.500  25.900 -0.0660  0.5236  0.1030
85463W        W28375  20.580   4.364  25.937 -0.0840  0.1071  0.0902
85464W        W28376  19.974   4.559  24.362 -0.3408 -0.2193 -0.4527
85465W        W28377  20.223   4.216  25.552 -0.1829  0.2190  0.0498
85466W        W28378  20.109   6.804  23.983 -0.0208  0.1068 -0.1845
85467W        W28379  20.383   6.393  24.177  0.1437  0.1901 -0.0072
85468W        W28380  22.361   3.458  25.800 -0.0065  0.1449  0.3095
85469W        W28381  18.529   4.773  25.835  0.1049 -0.1397 -0.0769
85470W        W28382  21.250   5.018  23.975 -0.3401 -0.0916 -0.1550
85471W        W28383  20.405   4.471  23.103  0.3264 -0.0205 -0.0330
85472W        W28384  19.099   6.307  24.128 -0.4470 -0.2147 -0.1071
85473W        W28385  19.094   3.742  26.674 -0.1702  0.1547 -0.1626
85474W        W28386  20.610   5.360  25.893  0.0134  0.1648  0.1822
85475W        W28387  22.029   4.303  25.771  0.4637 -0.1753  0.3539
85476W        W28388  19.563   3.801  25.823 -0.2070  0.6361 -0.0911
85477W        W28389  21.111   4.517  25.983 -0.1536  0.0101 -0.1526
85478W        W28390  19.342   4.210  26.010  0.0782 -0.0639 -0.0277
85479W        W28391  18.875   3.317  26.798  0.0670  0.2631  0.1051
85480W        W28392  21.935   6.986  26.451  0.2666 -0.1522  0.1790
85481W        W28393  21.900   4.127  24.703  0.0973 -0.2753 -0.0366
85482W        W28394  23.008   3.713  27.228 -0.0719  0.0584  0.1105
85483W        W28395  21.503   5.278  26.099 -0.0727  0.1344 -0.2999
85484W        W28396  19.781   4.488  23.356 -0.1926 -0.1438 -0.1305
85485W        W28397  17.688   4.866  25.507 -0.0302  0.0678  0.1402
85486W        W28398  20.743   4.697  28.193 -0.0642 -0.1899 -0.0139
85487W        W28399  18.568   4.917  24.805 -0.0022  0.2295 -0.0484
85488W        W28400  20.019   4.124  28.185  0.1028 -0.1597 -0.0704
85489W        W28401  19.955   8.030  23.423  0.2753 -0.0513 -0.0259
85490W        W28402  19.816   6.737  24.943 -0.0899  0.1800  0.3341
85491W        W28403  21.010   4.637  25.097 -0.1420 -0.0285  0.1679
85492W        W28404  17.398   4.825  24.237 -0.2768  0.0656 -0.0993
85493W        W28405  18.415   7.095  25.870  0.0575 -0.0824  0.1202
85494W        W28406  17.267   3.506  23.050  0.0973 -0.0834  0.1449
85495W        W28407  20.297   5.012  22.922 -0.1625  0.1633  0.3512
85496W        W28408  20.395   6.336  25.283 -0.1736 -0.0046  0.1970
85497W        W28409  20.834   4.061  26.337 -0.0683  0.0491 -0.1810
85498W        W28410  19.353   1.776  23.766 -0.0304  0.2290 -0.0785
85499W        W28411  22.496   3.076  27.412  0.1055  0.1080  0.2115
85500W        W28412  17.447   6.074  24.182 -0.2157 -0.0086 -0.1216
85501W        W28413  20.835   2.168  26.009  0.3292  0.1877  0.0180
85502W        W28414  19.881   6.296  25.189  0.0761  0.0853 -0.0303
85503W        W28415  18.681   5.661  26.598  0.0070 -0.2031  0.0083
85504W        W28416  19.188   5.668  25.270  0.0141  0.3619  0.0246
85505W        W28417  18.914   3.801  25.986 -0.2178  0.1140 -0.0610
85506W        W28418  21.843   3.328  25.884 -0.0466 -0.0044 -0.0228
85507W        W28419  20.154   6.010  25.535  0.1393 -0.0145 -0.1469
85508W        W28420  21.431   3.824  26.780 -0.0196  0.2914  0.1934
85509W        W28421  20.009   5.645  27.681  0.0086 -0.2728  0.2013
85510W        W28422  18.566   6.266  23.212  0.1246  0.1054 -0.2621
85511W        W28423  21.398   6.576  25.055 -0.1819  0.0382 -0.3716
85512W        W28424  20.725   6.148  25.701  0.1198 -0.0472  0.1809
85513W        W28425  18.181   6.282  25.463  0.0653  0.5706  0.1755
85514W        W28426  18.580   2.821  27.097  0.0677  0.3036 -0.1074
85515W        W28427  19.083   5.365  24.307 -0.0992  0.0206  0.0679
85516W        W28428  18.983   6.221  24.857  0.2590  0.0513  0.2073
85517W        W28429  19.892   4.088  24.283  0.3160  0.1651 -0.1281
85518W        W28430  20.406   5.971  23.805  0.1769 -0.0533  0.0127
85519W        W28431  20.376   7.311  26.156 -0.0654  0.0613 -0.1734
85520W        W28432  17.004   5.041  26.049  0.2615  0.0307  0.1626
85521W        W28433  19.562   7.629  24.656  0.2756  0.0836  0.2913
85522W        W28434  20.609   5.905  24.218  0.1901  0.3900 -0.0119
85523W        W28435  20.339   6.787  24.948  0.1350 -0.0120 -0.2883
85524W        W28436  20.067   9.417  25.174 -0.2079 -0.1147  0.1102
85525W        W28437  19.735   3.859  25.310  0.1175  0.1833  0.1511
85526W        W28438  18.376   5.775  24.220  0.0779  0.3355 -0.3034
85527W        W28439  19.123   6.819  23.593  0.2033  0.1704 -0.1921
85528W        W28440  21.570   6.384  24.279  0.2319 -0.1277 -0.0553
85529W        W28441  18.111   5.375  24.395 -0.0570  0.0605 -0.0883
85530W        W28442  21.333   5.470  28.067 -0.0179  0.0866 -0.0809
85531W        W28443  20.725   2.701  23.575 -0.0972  0.0422 -0.1921
85532W        W28444  21.054   4.182  27.028 -0.2126  0.0175  0.0949
85533W        W28445  20.870   3.970  25.004 -0.1111 -0.2653  0.2107
85534W        W28446  21.696   6.048  26.307  0.1227 -0.4186 -0.1850
85535W        W28447  19.004   4.146  26.369  0.0640  0.0108 -0.0743
85536W        W28448  20.602   2.081  22.676  0.1753  0.2687  0.3525
85537W        W28449  19.687   4.673  25.329 -0.0876  0.0986  0.0033
85538W        W28450  21.572   3.895  28.174 -0.1151 -0.0919  0.1525
85539W        W28451  19.346   7.408  27.521 -0.1714 -0.1359 -0.0747
85540W        W28452  22.178   7.578  24.518 -0.0717 -0.1553  0.1048
85541W        W28453  17.639   4.381  24.228  0.4812  0.0719 -0.1054
85542W        W28454  18.577   5.401  25.052  0.4019 -0.1868 -0.2645
85543W        W28455  22.803   2.624  26.876  0.0156 -0.0307 -0.3596
85544W        W28456  20.020   5.402  22.740 -0.1768  0.1276 -0.4220
85545W        W28457  20.639   4.956  24.846 -0.2302  0.1470 -0.1243
85546W        W28458  20.057   7.194  24.676 -0.3203 -0.0957  0.2756
85547W        W28459  18.671   4.531  26.340  0.2682  0.0157 -0.4922
85548W        W28460  19.428   6.321  26.030 -0.0537  0.2687  0.0522
85549W        W28461  16.706   4.773  23.537 -0.2226  0.2977 -0.1205
85550W        W28462  22.164   5.267  26.257 -0.1798 -0.1222 -0.1894
85551W        W28463  18.768   2.948  26.511 -0.0186  0.1943  0.2940
85552W        W28464  20.867   3.053  26.282  0.1884 -0.1070 -0.1646
85553W        W28465  19.308   4.921  25.240  0.2489  0.1973 -0.0088
85554W        W28466  21.704   3.789  25.597  0.1168  0.2607  0.0228
85555W        W28467  20.612   5.182  25.408 -0.0550  0.0667  0.1538
85556W        W28468  17.997   6.164  24.970 -0.0194  0.2946  0.0149
85557W        W28469  19.984   5.862  23.977 -0.2465  0.0128 -0.4144
85558W        W28470  21.375   4.158  27.853 -0.0076  0.1449 -0.0705
85559W        W28471  21.171   3.453  23.667  0.4039 -0.0040 -0.2899
85560W        W28472  21.005   8.156  26.577 -0.1816 -0.0042 -0.0372
85561W        W28473  17.666   4.192  24.852  0.0937  0.1634  0.2265
85562W        W28474  20.377   4.000  24.955  0.1016 -0.0854 -0.0306
85563W        W28475  18.916   6.324  23.673 -0.0615  0.1189 -0.0835
85564W        W28476  19.918   4.228  25.070  0.2638 -0.0548  0.0645
85565W        W28477  22.598   6.825  27.010  0.0444 -0.1345 -0.0777
85566W        W28478  17.853   4.780  25.030  0.1316  0.1322 -0.3389
85567W        W28479  21.203   7.246  23.871 -0.2627 -0.0580  0.2970
85568W        W28480  21.661   4.855  27.311 -0.1591 -0.0373  0.1906
85569W        W28481  20.600   8.467  23.563  0.0073 -0.0474  0.0975
85570W        W28482  21.493   5.735  25.945  0.3131  0.1808 -0.2741
85571W        W28483  21.977   7.350  25.700 -0.0017  0.0818  0.2772
85572W        W28484  18.111   3.268  23.568  0.2590 -0.1139 -0.2947
85573W        W28485  21.543   7.103  25.879  0.1116 -0.0214 -0.0227
85574W        W28486  21.139   5.070  26.712  0.2212  0.1697  0.2973
85575W        W28487  20.421   3.091  25.981 -0.1583 -0.2947 -0.1054
85576W        W28488  18.012   6.240  26.875  0.0669 -0.1272  0.1951
85577W        W28489  19.384   6.289  23.510  0.1459  0.0758 -0.1491
85578W        W28490  21.924   3.071  26.330  0.0617 -0.1036 -0.0507
85579W        W28491  19.790   3.223  26.488 -0.0394  0.0885  0.0437
85580W        W28492  21.345   7.043  22.683  0.3770  0.0742 -0.1931
85581W        W28493  22.467   2.205  26.793 -0.4311 -0.0706 -0.0129
85582W        W28494  20.988   5.499  26.956 -0.0227  0.2827  0.3192
85583W        W28495  20.351   5.851  26.037  0.2451 -0.2839 -0.2295
85584W        W28496  18.403   4.285  22.829  0.2627  0.0089  0.1682
85585W        W28497  19.379   5.096  26.752  0.2833  0.0367 -0.1921
85586W        W28498  18.970   5.011  25.832  0.0170  0.1182  0.0718
85587W        W28499  19.724   6.456  24.206 -0.2973 -0.0720 -0.0476
85588W        W28500  21.579   6.758  24.570 -0.0503  0.1133 -0.1682
85589W        W28501  19.272   5.716  24.009  0.2405  0.1193 -0.0762
85590W        W28502  21.642   5.832  26.816  0.0189 -0.2505 -0.0668
85591W        W28503  18.656   4.491  25.203 -0.0258 -0.1694 -0.0306
85592W        W28504  22.312   4.451  24.619  0.4648 -0.1631 -0.0171
85593W        W28505  21.022   3.411  25.224 -0.4540  0.3208 -0.0483
85594W        W28506  17.810   5.272  26.395  0.1582 -0.2703 -0.2220
85595W        W28507  19.031   5.163  24.841 -0.3591 -0.1848  0.0008
85596W        W28508  19.737   5.159  22.339  0.2993  0.1204 -0.0390
85597W        W28509  18.462   4.980  24.298  0.0771 -0.0886 -0.0340
85598W        W28510  20.259   3.330  27.961  0.1412  0.2972  0.0066
85599W        W28511  18.356   3.592  26.040  0.1303 -0.3266 -0.0267
85600W        W28512  17.131   5.762  23.250  0.0993 -0.1602  0.0059
85601W        W28513  19.184   3.968  24.696 -0.3485  0.0793  0.0899
85602W        W28514  21.181   5.800  23.674  0.1216  0.2754 -0.1181
85603W        W28515  18.078   4.561  24.518  0.0973 -0.1187 -0.0563
85604W        W28516  17.469   3.854  24.185  0.1043  0.1008  0.1917
85605W        W28517  21.366   4.873  23.538  0.4476 -0.0156 -0.1536
85606W        W28518  21.153   6.278  24.720 -0.0857 -0.2410 -0.0127
85607W        W28519  19.078   2.985  25.732  0.4086 -0.1474 -0.0550
85608W        W28520  22.686   7.301  28.521  0.3252 -0.3242 -0.0933
85609W        W28521  17.090   5.669  22.605 -0.0700  0.1545  0.3857
85610W        W28522  20.639   2.705  27.529  0.1640 -0.3602 -0.1880
85611W        W28523  20.324   2.313  27.590 -0.2229  0.0976  0.2875
85612W        W28524  17.630   3.223  23.462 -0.2257  0.1413 -0.1382
85613W        W28525  21.281   4.760  25.514  0.3149 -0.2096  0.1901
85614W        W28526  20.523   7.384  25.039 -0.0079  0.3107 -0.1225
85615W        W28527  20.691   6.878  24.637 -0.0978 -0.0948 -0.1554
85616W        W28528  18.772   6.712  26.029  0.1854  0.0349 -0.1173
85617W        W28529  20.519   8.026  26.166  0.2597  0.3282 -0.3001
85618W        W28530  17.522   3.440  25.761  0.0387 -0.2127 -0.1584
85619W        W28531  18.913   5.879  24.292  0.1409  0.1162  0.0665
85620W        W28532  20.175   6.431  25.782 -0.0681  0.1222  0.2268
85621W        W28533  21.124   6.735  24.159 -0.0723  0.2030 -0.1626
85622W        W28534  22.796   3.167  26.363 -0.3835 -0.0626  0.0032
85623W        W28535  20.082   4.175  22.769 -0.2904 -0.1190  0.0588
85624W        W28536  18.358   3.241  26.851  0.3997 -0.0925  0.1650
85625W        W28537  19.529   6.274  27.059 -0.2210 -0.2638 -0.4333
85626W        W28538  20.575   4.289  26.879 -0.0828 -0.1005 -0.0615
85627W        W28539  19.054   3.355  24.657 -0.2185 -0.3899  0.2487
85628W        W28540  20.859   4.389  24.692  0.1710  0.2787 -0.0981
85629W        W28541  20.488   6.745  23.125  0.0700 -0.0395  0.1632
85630W        W28542  17.532   4.653  24.666  0.1562 -0.0660 -0.4325
85631W        W28543  20.202   3.705  25.595 -0.0332 -0.0292  0.2086
85632W        W28544  19.907   3.379  26.962 -0.2644  0.2806  0.2692
85633W        W28545  18.926   6.112  25.357  0.1424 -0.1022  0.1678
85634W        W28546  20.764   6.726  27.528 -0.2186  0.0684  0.0666
85635W        W28547  18.882   5.819  23.713 -0.0623  0.1072  0.4399
85636W        W28548  22.149   5.425  24.897  0.2682  0.0451 -0.1552
85637W        W28549  21.103   6.127  26.192 -0.0283  0.2354 -0.0932
85638W        W28550  21.569   6.314  26.922  0.3627  0.0169 -0.0738
85639W        W28551  19.222   7.722  26.028  0.0540  0.1401 -0.0692
85640W        W28552  22.054   4.097  28.117  0.1495 -0.0838  0.1074
85641W        W28553  19.537   2.964  24.395 -0.0991  0.0723  0.0623
85642W        W28554  18.690   6.587  22.812 -0.0699  0.3781  0.3201
85643W        W28555  19.778   5.491  23.169  0.1810 -0.2082  0.2284
85644W        W28556  22.289   3.472  26.374 -0.3645  0.0200  0.1219
85645W        W28557  19.683   5.307  26.423  0.1905  0.0959 -0.1075
85646W        W28558  20.972   3.924  24.446  0.1769 -0.1558 -0.0049
85647W        W28559  20.036   7.965  26.589 -0.1539  0.0825  0.1356
85648W        W28560  19.637   6.394  25.630 -0.1692  0.1875 -0.1457
85649W        W28561  18.322   7.553  30.386  0.1226 -0.0006 -0.0522
85650W        W28562  18.835   6.597  27.114 -0.1481 -0.0572 -0.0755
85651W        W28563  21.367   2.522  29.094 -0.3719 -0.1729 -0.0223
85652W        W28564  21.128   6.308  27.150 -0.0438  0.0924 -0.0239
85653W        W28565  16.070   3.549  28.120 -0.1647  0.3388  0.0625
85654W        W28566  22.212   8.000  27.366  0.0396 -0.2343  0.2111
85655W        W28567  19.557   3.346  31.394 -0.3815  0.2557 -0.1734
85656W        W28568  20.627   6.173  29.537  0.2387 -0.3944 -0.2355
85657W        W28569  22.613   7.572  28.919  0.0665 -0.1759  0.1386
85658W        W28570  20.970   5.407  28.502  0.2671  0.1852  0.1824
85659W        W28571  19.367   5.086  28.943 -0.0027 -0.4352  0.2106
85660W        W28572  19.863   6.967  29.855 -0.0437  0.1090 -0.2406
85661W        W28573  19.994   4.266  26.559 -0.0975 -0.0382 -0.0377
85662W        W28574  18.816   4.281  29.298  0.0987  0.1785  0.0378
85663W        W28575  21.740   5.143  30.000  0.1127  0.0301 -0.1845
85664W        W28576  19.420   3.946  27.068 -0.1920  0.0576 -0.1252
85665W        W28577  19.222   5.613  28.876 -0.0889 -0.0142 -0.2554
85666W        W28578  20.115   5.241  27.308  0.2635  0.4195  0.1117
85667W        W28579  20.244   8.148  29.260 -0.1856  0.0316 -0.0364
85668W        W28580  18.378   4.559  28.886 -0.0312  0.1121 -0.2277
85669W        W28581  18.266   4.542  30.026 -0.1178 -0.1681 -0.0179
85670W        W28582  20.959   7.216  27.372  0.2637  0.1493  0.0544
85671W        W28583  19.175   6.216  27.431  0.0762  0.1147  0.2184
85672W        W28584  18.882   4.811  28.184  0.0822 -0.0556 -0.0028
85673W        W28585  18.770   6.474  27.678  0.3306  0.0689  0.3637
85674W        W28586  21.445   5.610  30.190  0.1204 -0.0874  0.0924
85675W        W28587  21.305   6.548  30.344 -0.0200  0.3027 -0.1913
85676W        W28588  21.936   6.795  28.675 -0.2924  0.0516 -0.2089
85677W        W28589  21.583   8.119  28.267 -0.1009 -0.2932  0.1957
85678W        W28590  20.824   4.304  30.586  0.0265  0.2613  0.1293
85679W        W28591  20.958   6.958  28.612  0.2991  0.2852  0.0254
85680W        W28592  20.251   6.637  27.319  0.2694  0.0876 -0.3499
85681W        W28593  19.716   6.916  27.389 -0.0911 -0.0432  0.0143
85682W        W28594  20.828   7.146  27.924  0.0050 -0.1605  0.0657
85683W        W28595  22.065   6.130  29.054  0.0037  0.0730 -0.1844
85684W        W28596  19.723   8.070  30.067  0.0435 -0.2082  0.0947
85685W        W28597  17.542   6.085  27.774 -0.0057 -0.0769 -0.0766
85686W        W28598  19.799   5.579  30.611  0.0227  0.0234  0.0422
85687W        W28599  18.809   7.346  29.704 -0.0326  0.0128 -0.0241
85688W        W28600  18.633   5.511  28.595 -0.1533 -0.2499  0.2831
85689W        W28601  18.832   4.594  29.676 -0.2206  0.3607  0.3234
85690W        W28602  20.780   8.143  28.593  0.1209 -0.2058  0.3064
85691W        W28603  19.993   7.788  28.935  0.0263  0.1060 -0.0300
85692W        W28604  19.896   6.676  31.531 -0.2468  0.2292 -0.0049
85693W        W28605  19.300   6.690  31.281 -0.0476 -0.0114 -0.0946
85694W        W28606  21.824   3.700  30.737 -0.0507 -0.3344 -0.4350
85695W        W28607  19.566   5.983  28.413 -0.1832  0.2837 -0.2503
85696W        W28608  20.966   5.570  27.670 -0.0499  0.1103 -0.2047
85697W        W28609  18.813   5.008  25.306  0.3882  0.0836  0.2964
85698W        W28610  22.219   3.952  28.627 -0.3107  0.2223  0.0750
85699W        W28611  20.229   4.083  27.442 -0.3136  0.0710  0.1995
85700W        W28612  19.746   7.845  29.371  0.2348 -0.1461  0.1181
85701W        W28613  18.384   3.293  28.327 -0.1062  0.4792  0.0047
85702W        W28614  22.187   6.640  29.103 -0.1447  0.3229 -0.3457
85703W        W28615  20.693   4.923  27.716 -0.0380  0.0801  0.0072
85704W        W28616  22.632   5.338  28.176  0.1887  0.1219  0.0620
85705W        W28617  20.150   5.862  29.098 -0.1762 -0.0515 -0.0920
85706W        W28618  16.924   5.428  28.701 -0.1083 -0.0822 -0.1660
85707W        W28619  21.041   7.134  26.179 -0.2220  0.0783 -0.0322
85708W        W28620  21.163   7.873  28.892  0.0053 -0.0990 -0.1027
85709W        W28621  20.585   6.955  27.092 -0.2405 -0.0053 -0.0723
85710W        W28622  19.541   4.476  28.031 -0.0152 -0.2980  0.1333
85711W        W28623  19.072   5.036  29.723 -0.0898  0.0546  0.0692
85712W        W28624  18.404   4.687  31.056  0.2441  0.3677 -0.1923
85713W        W28625  19.851   2.432  24.599 -0.0140 -0.0859 -0.0642
85714W        W28626  22.237   6.438  30.913  0.1033 -0.1082 -0.1109
85715W        W28627  19.442   7.983  28.493 -0.2334 -0.5519 -0.1295
85716W        W28628  22.823   4.842  28.936  0.0475  0.2172  0.2112
85717W        W28629  20.084   6.633  29.142 -0.0047 -0.1814  0.0991
85718W        W28630  21.328   5.673  28.707 -0.1690  0.0586 -0.0464
85719W        W28631  20.302   4.765  27.439 -0.0702 -0.3941 -0.0272
85720W        W28632  20.383   3.650  30.271  0.1091  0.3194 -0.1942
85721W        W28633  20.868   2.553  29.044  0.0043 -0.0216  0.0522
85722W        W28634  19.810   6.222  26.498 -0.1077 -0.1618  0.2347
85723W        W28635  20.337   5.415  26.903  0.1232  0.1585 -0.0897
85724W        W28636  21.612   6.500  29.104 -0.0126 -0.1527 -0.1662
85725W        W28637  20.228   5.019  27.972  0.1205 -0.2195 -0.1691
85726W        W28638  19.477   7.658  29.765 -0.2749  0.1206 -0.2339
85727W        W28639  19.305   4.647  30.093  0.2543 -0.0279 -0.0353
85728W        W28640  20.799   6.157  30.144  0.0133 -0.1454 -0.0260
85729W        W28641  19.488   7.259  27.015  0.1248  0.0397 -0.0007
85730W        W28642  19.177   7.171  29.995  0.0131 -0.0274  0.1682
85731W        W28643  19.304   6.501  26.671  0.2160 -0.0603 -0.1790
85732W        W28644  17.865   3.338  29.111  0.0091  0.1074  0.0055
85733W        W28645  18.952   6.017  29.113  0.1807  0.3921  0.3292
85734W        W28646  21.203   4.042  28.707  0.2938 -0.0537 -0.0124
85735W        W28647  18.431   4.003  30.246  0.2394 -0.3694  0.1304
85736W        W28648  21.676   4.231  30.296 -0.0728  0.0524 -0.1890
85737W        W28649  18.973   7.586  27.827  0.0285 -0.0028  0.0561
85738W        W28650  23.262   8.161  27.298  0.0950  0.0183  0.1350
85739W        W28651  21.250   4.881  28.415 -0.3452  0.1745 -0.1800
85740W        W28652  22.291   7.372  28.141 -0.2449 -0.2957  0.0902
85741W        W28653  19.418   4.040  28.795  0.2059  0.1128  0.0758
85742W        W28654  17.779   4.333  27.497  0.2270  0.1882 -0.2936
85743W        W28655  19.887   4.616  29.792 -0.0440  0.0113 -0.1719
85744W        W28656  17.572   3.616  30.000  0.0310  0.3462 -0.0066
85745W        W28657  20.938   5.157  31.474  0.1086 -0.0370  0.3483
85746W        W28658  20.329   2.282  26.791  0.0911  0.0649 -0.2997
85747W        W28659  19.027   4.065  27.998  0.1709 -0.1454  0.2143
85748W        W28660  19.386   4.900  27.728  0.0112 -0.3779  0.1469
85749W        W28661  17.912   6.716  28.866  0.1113 -0.1143 -0.1535
85750W        W28662  20.244   4.503  29.365 -0.0061 -0.1594  0.3076
85751W        W28663  21.392   7.360  26.536  0.0063  0.4497  0.1463
85752W        W28664  23.067   7.787  28.626 -0.0154 -0.0669  0.2015
85753W        W28665  20.707   7.629  27.794  0.4819  0.3165 -0.1700
85754W        W28666  19.113   5.260  27.979  0.3535 -0.4943  0.2448
85755W        W28667  20.493   3.152  27.436 -0.0609  0.0246  0.0421
85756W        W28668  19.489   7.748  28.943 -0.1787 -0.1017  0.1120
85757W        W28669  20.042   8.741  29.506  0.0630  0.3197 -0.0025
85758W        W28670  19.205   4.454  27.023  0.1668 -0.0747  0.1996
85759W        W28671  23.151   5.547  28.096  0.0020  0.2516  0.0828
85760W        W28672  20.478   5.908  27.871  0.0853  0.0773 -0.4113
85761W        W28673  18.675   5.402  30.185  0.2574 -0.1703 -0.0442
85762W        W28674  20.121   3.952  29.889 -0.2122  0.1105  0.2170
85763W        W28675  20.992   5.349  30.176  0.1944  0.0135  0.1500
85764W        W28676  19.984   6.143  28.119  0.1169  0.4391  0.2465
85765W        W28677  19.152   3.497  27.421  0.2084 -0.0218 -0.0376
85766W        W28678  21.146   6.833  27.098  0.1508 -0.2449 -0.2456
85767W        W28679  18.404   6.375  27.242  0.0281  0.0228  0.0788
85768W        W28680  18.602   6.057  29.436  0.3674  0.0508  0.0507
85769W        W28681  21.531   8.192  28.799 -0.1735  0.4491 -0.0431
85770W        W28682  20.374   6.956  28.267  0.1394 -0.0467  0.4604
85771W        W28683  17.939   6.524  30.089  0.0092  0.0029  0.3398
85772W        W28684  19.429   4.628  28.827 -0.0228 -0.1020  0.0760
85773W        W28685  19.442   4.737  25.762 -0.1758  0.0036 -0.1538
85774W        W28686  19.463   6.286  30.967  0.3954 -0.1064  0.1527
85775W        W28687  19.115   3.913  29.196  0.3239 -0.2975 -0.1069
85776W        W28688  20.807   3.795  28.405 -0.1494  0.0364 -0.2289
85777W        W28689  21.303   5.441  29.786 -0.2146  0.1710 -0.0216
85778W        W28690  21.583   6.070  30.019 -0.2332  0.2885  0.0590
85779W        W28691  21.280   4.693  28.859 -0.3606  0.0799 -0.1368
85780W        W28692  21.177   3.147  28.073  0.1808 -0.0578 -0.0395
85781W        W28693  19.706   5.615  30.080  0.0017  0.0738  0.0406
85782W        W28694  19.372   6.112  28.851 -0.2323  0.2194  0.0758
85783W        W28695  19.240   7.402  29.296  0.2162  0.0504 -0.0130
85784W        W28696  20.052   5.592  26.569 -0.1174 -0.1157 -0.1328
85785W        W28697  21.186   6.936  27.709  0.2427 -0.0012 -0.1805
85786W        W28698  19.553   6.434  30.385 -0.1222  0.2190  0.0855
85787W        W28699  20.934   4.866  30.561 -0.2544 -0.0951 -0.0752
85788W        W28700  20.484   6.130  28.371  0.2094 -0.0450  0.1735
85789W        W28701  19.760   4.353  28.536  0.0262 -0.1479 -0.0072
85790W        W28702  19.643   5.941  27.431 -0.1235  0.1910  0.3974
85791W        W28703  20.704   4.091  28.769  0.0868 -0.4853  0.3350
85792W        W28704  19.476   6.970  26.562  0.1022 -0.2091 -0.0184
85793W        W28705  20.695   5.182  29.504  0.2769  0.1331  0.0201
85794W        W28706  20.104   4.641  28.304  0.0635  0.0557 -0.0250
85795W        W28707  18.957   2.766  30.632  0.0004  0.1526  0.0160
85796W        W28708  22.564   4.460  29.858  0.2512  0.5056  0.0850
85797W        W28709  19.416   6.061  27.851 -0.5439 -0.1046  0.0931
85798W        W28710  19.146   6.347  28.424  0.3334 -0.1905 -0.1188
85799W        W28711  18.520   5.918  24.690  0.3096  0.0966  0.0643
85800W        W28712  19.981   6.554  30.157  0.1341 -0.0517 -0.1679
85801W        W28713  20.396   6.075  30.535  0.0518 -0.3481 -0.0605
85802W        W28714  20.436   7.155  30.560  0.0484  0.2235  0.2648
85803W        W28715  22.165   6.303  28.634 -0.2703  0.2917  0.2773
85804W        W28716  20.630   5.672  29.317 -0.0221  0.3497  0.1650
85805W        W28717  19.745   5.027  31.058  0.0364  0.1391 -0.0926
85806W        W28718  20.272   4.407  27.884  0.0207  0.1123 -0.0186
85807W        W28719  20.307   7.677  27.461 -0.1041  0.0295  0.2016
85808W        W28720  20.630   6.310  27.206  0.0119  0.0275 -0.1005
85809W        W28721  18.914   5.972  28.584  0.1224  0.2289 -0.2558
85810W        W28722  21.187   7.999  27.921  0.1191  0.0584  0.0902
85811W        W28723  19.314   6.726  27.131  0.1945  0.0391  0.0628
85812W        W28724  19.708   5.447  29.504  0.4217  0.3367 -0.1918
85813W        W28725  19.639   4.570  26.812 -0.1361  0.1835 -0.0840
85814W        W28726  20.213   1.297  29.853 -0.0772  0.0532  0.1104
85815W        W28727  19.913   7.702  28.319  0.1107 -0.2713  0.0542
85816W        W28728  19.447   4.161  26.575 -0.1013 -0.1779  0.3204
85817W        W28729  17.699   5.168  28.585  0.1989  0.3402 -0.0840
85818W        W28730  20.709   5.306  28.997 -0.2190 -0.0717  0.1102
85819W        W28731  20.061   5.247  28.403  0.1467 -0.0197  0.0500
85820W        W28732  19.816   4.547  29.033 -0.1163 -0.2213 -0.1368
85821W        W28733  19.348   4.329  29.179  0.1486 -0.1594  0.0741
85822W        W28734  19.379   7.056  28.957 -0.0622  0.1029 -0.0374
85823W        W28735  20.709   4.676  29.549 -0.2373  0.1204  0.2004
85824W        W28736  20.293   3.629  28.862  0.2502 -0.0577 -0.1073
85825W        W28737  20.392   6.637  30.573 -0.1919  0.1005 -0.0959
85826W        W28738  19.953   5.034  30.609 -0.4540 -0.2340 -0.0120
85827W        W28739  20.029   4.858  26.487  0.1150 -0.2793 -0.1821
85828W        W28740  23.629   5.672  28.535  0.1369 -0.2602  0.2266
85829W        W28741  19.897   4.715  27.756 -0.0385  0.1913 -0.3484
85830W        W28742  18.786   7.066  27.806  0.0017  0.0599  0.0132
85831W        W28743  20.605   5.694  28.574  0.3579  0.4296  0.0520
85832W        W28744  18.604   4.855  26.806 -0.3325 -0.1776  0.1405
85833W        W28745  19.513   7.041  27.894  0.2985 -0.0300  0.3639
85834W        W28746  20.383   3.625  30.866 -0.1490 -0.0348 -0.1262
85835W        W28747  21.795   5.677  29.673 -0.2896 -0.4616  0.0004
85836W        W28748  20.636   5.023  30.001  0.1769 -0.3786 -0.1716
85837W        W28749  19.044   3.074  27.704  0.2998 -0.0094 -0.0621
85838W        W28750  19.975   4.032  28.941 -0.0345  0.2036  0.1138
85839W        W28751  21.465   6.242  29.485  0.3081  0.0598  0.0066
85840W        W28752  19.736   6.027  29.645  0.3396 -0.1384 -0.0439
85841W        W28753  20.908   7.177  31.698 -0.1069 -0.1494  0.2815
85842W        W28754  19.658   3.639  29.876 -0.1955  0.2857 -0.2437
85843W        W28755  21.741   7.576  27.906 -0.2084 -0.1830 -0.0978
85844W        W28756  19.315   4.523  29.603  0.2247  0.0129 -0.2630
85845W        W28757  18.924   5.360  26.899  0.1382  0.1130 -0.0295
85846W        W28758  17.228   5.565  30.143  0.2583  0.1689 -0.1747
85847W        W28759  20.518   6.890  28.889  0.3060 -0.3779  0.1496
85848W        W28760  20.444   4.083  29.216  0.0758  0.1080 -0.0617
85849W        W28761  19.083   5.609  29.702 -0.0653  0.1972 -0.2612
85850W        W28762  18.348   5.289  26.839 -0.0327  0.0349 -0.0896
85851W        W28763  19.106   6.654  29.995  0.4447  0.2106  0.0586
85852W        W28764  21.184   3.648  28.085  0.1667  0.0157  0.1254
85853W        W28765  20.117   6.185  27.584  0.1219 -0.0295 -0.3284
85854W        W28766  20.216   5.406  28.810  0.1573  0.2595  0.1267
85855W        W28767  23.827   5.344  30.978 -0.0129  0.1440  0.0282
85856W        W28768  20.177   4.611  26.957  0.1269 -0.2462  0.0074
85857W        W28769  21.254   4.533  30.632  0.3455 -0.1566  0.2476
85858W        W28770  19.590   3.095  30.992  0.0324 -0.0614  0.0791
85859W        W28771  21.424   5.188  28.786 -0.1479 -0.2552 -0.2191
85860W        W28772  18.515   5.005  29.869 -0.0844  0.1288  0.1721
85861W        W28773  20.207   6.913  31.038 -0.0346 -0.1959 -0.0262
85862W        W28774  20.104   4.929  30.175 -0.1090 -0.2619  0.0095
85863W        W28775  19.647   3.618  27.397  0.0507  0.1476  0.0608
85864W        W28776  19.919   5.139  26.879 -0.0843  0.2748  0.4824
85865W        W28777  19.948   6.486  30.776  0.0898  0.1958 -0.3076
85866W        W28778  20.253   7.380  28.014 -0.2456  0.0483  0.1318
85867W        W28779  21.066   5.903  29.469  0.1185  0.1586 -0.1276
85868W        W28780  21.785   4.739  28.715  0.0912 -0.0098 -0.2924
85869W        W28781  18.590   7.128  30.206 -0.2717  0.2300  0.1542
85870W        W28782  20.195   4.495  28.765 -0.1082 -0.3896 -0.0686
85871W        W28783  18.687   5.437  27.690 -0.1789 -0.4397  0.0881
85872W        W28784  19.195   5.726  28.206  0.2425 -0.2493  0.1896
85873W        W28785  20.081   3.647  29.405  0.2718  0.1464 -0.0616
85874W        W28786  21.067   5.810  29.984  0.0434 -0.1965  0.0071
85875W        W28787  21.201   5.350  30.637  0.0693 -0.1309 -0.0078
85876W        W28788  20.612   5.556  29.817 -0.0944  0.1856 -0.0710
85877W        W28789  20.738   4.211  29.664 -0.0987 -0.2317 -0.1530
85878W        W28790  18.755   4.138  30.657 -0.3303  0.0231 -0.0500
85879W        W28791  18.422   3.913  31.188  0.2053 -0.0662  0.2797
85880W        W28792  20.964   8.641  29.247 -0.1901 -0.0230 -0.2932
85881W        W28793  20.549   4.245  28.287 -0.1662  0.1454  0.0016
85882W        W28794  21.968   4.303  29.539  0.0941  0.1817 -0.1402
85883W        W28795  20.587   6.132  28.918  0.0921 -0.0640  0.2290
85884W        W28796  22.513   4.477  26.717 -0.1752  0.2899 -0.0752
85885W        W28797  18.009   4.979  28.187  0.3516 -0.0525 -0.4316
85886W        W28798  21.914   7.241  29.717 -0.3518  0.0133 -0.2972
85887W        W28799  19.234   4.398  25.158 -0.0061  0.0695 -0.1334
85888W        W28800  20.803   3.780  30.436 -0.0339  0.2844  0.1334
85889W        W28801  20.656   7.689  25.806 -0.0984 -0.0444  0.1713
85890W        W28802  21.155   6.311  28.484  0.0888  0.3857  0.1587
85891W        W28803  19.820   4.853  28.656 -0.1513  0.3465  0.2939
85892W        W28804  17.859   4.661  27.876  0.0123 -0.0506  0.1681
85893W        W28805  20.339   7.016  31.669  0.0120  0.3888 -0.4158
85894W        W28806  19.406   3.428  26.911 -0.0066 -0.1207  0.1227
85895W        W28807  20.436   5.750  27.348 -0.2299  0.1548 -0.1535
85896W        W28808  20.170   6.308  28.725 -0.1042  0.2438  0.3307
85897W        W28809  22.116   4.839  29.708  0.2316  0.2583  0.1217
85898W        W28810  20.323   3.108  26.911  0.1965 -0.0349 -0.0584
85899W        W28811  22.006   4.580  30.478  0.0192 -0.2829 -0.1833
85900W        W28812  19.441   7.614  28.042  0.3134 -0.0846 -0.2461
85901W        W28813  19.167   2.248  30.792 -0.0929 -0.2596 -0.0775
85902W        W28814  20.454   7.352  31.129 -0.0121  0.2022 -0.0110
85903W        W28815  17.965   6.380   0.019 -0.0725 -0.2303  0.0657
85904W        W28816  19.866   8.301  28.815  0.0759  0.0689  0.1407
85905W        W28817  19.719   5.025  28.145  0.0970  0.0926 -0.1475
85906W        W28818  19.700   5.289  27.698 -0.1794  0.1179 -0.2230
85907W        W28819  19.155   6.963  29.471  0.2237 -0.0987 -0.0775
85908W        W28820  22.577   4.733  29.369  0.0032 -0.0594 -0.0667
85909W        W28821  21.059   6.501  29.893  0.0501 -0.1504 -0.1589
85910W        W28822  16.827   5.945  28.333  0.2319  0.0418  0.1969
85911W        W28823  21.656   6.566  29.957 -0.0477 -0.1687  0.1657
85912W        W28824  21.666   7.166  27.578 -0.0413  0.0588  0.2787
85913W        W28825  19.837   7.459  27.733  0.0589 -0.3500 -0.1023
85914W        W28826  17.923   3.955  31.400  0.2696  0.0238 -0.0414
85915W        W28827  19.692   5.769  28.833 -0.1694  0.3569 -0.3461
85916W        W28828  19.588   6.453  28.638 -0.1820  0.2141  0.1544
85917W        W28829  19.007   3.515  27.870  0.1635 -0.0851 -0.2612
85918W        W28830  19.149   4.663  26.580  0.1008  0.3165  0.0484
85919W        W28831  19.932   7.342  30.159 -0.3962  0.2530 -0.2280
85920W        W28832  19.499   6.875  30.249 -0.0513 -0.1621  0.1803
85921W        W28833  19.873   7.113  28.206  0.3066  0.0039  0.1407
85922W        W28834  20.682   5.366  26.567  0.0137 -0.1429 -0.0206
85923W        W28835  21.547   6.760  28.232 -0.0880  0.0304 -0.1644
85924W        W28836  22.143   6.779  29.574 -0.1898 -0.0934 -0.0508
85925W        W28837  18.766   4.222  26.838 -0.3291  0.1594  0.0073
85926W        W28838  19.606   6.771  29.306  0.1747 -0.1431  0.1072
85927W        W28839  19.187   8.288  28.170 -0.1632  0.2714  0.0211
85928W        W28840  20.946   7.430  25.368 -0.0921 -0.0890  0.2018
85929W        W28841  20.458   7.616  28.372 -0.3234  0.1554  0.2062
85930W        W28842  22.120   5.934  30.054  0.0940  0.1430  0.1478
85931W        W28843  21.646   2.582  27.126 -0.0917  0.1767  0.0260
85932W        W28844  21.148   5.465  29.310 -0.0031  0.1578 -0.0206
85933W        W28845  21.999   3.489  28.786 -0.1878 -0.0475  0.0120
85934W        W28846  21.667   7.473  29.343 -0.0682  0.0322 -0.2736
85935W        W28847  19.371   4.899  28.451  0.0135  0.1156 -0.0316
85936W        W28848  20.404   3.575  26.859  0.0423 -0.2291  0.1301
85937W        W28849  18.549   4.362  31.928  0.0259  0.1357 -0.1641
85938W        W28850  22.278   3.541  30.954 -0.2695 -0.0577  0.0361
85939W        W28851  19.194   7.949  30.818 -0.0032  0.0794 -0.2038
85940W        W28852  21.620   6.116  28.165 -0.0471 -0.0934 -0.0754
85941W        W28853  18.288   3.525  27.251 -0.1971 -0.1012 -0.3094
85942W        W28854  18.870   5.221  28.930  0.0121  0.2435  0.0244
85943W        W28855  23.639   5.203  29.332 -0.2684  0.0657  0.1367
85944W        W28856  20.831   6.805  26.553 -0.0478 -0.0336 -0.2407
85945W        W28857  19.076   4.548  27.804 -0.0353  0.2155  0.1365
85946W        W28858  19.354   8.990  28.913 -0.0690  0.3662 -0.2607
85947W        W28859  20.144   7.064  29.434  0.6535  0.0171  0.0427
85948W        W28860  19.821   6.909  28.798  0.0044  0.0044 -0.1143
85949W        W28861  18.249   3.913  27.743 -0.1320 -0.1300 -0.1925
85950W        W28862  21.858   5.120  28.115  0.1919  0.0504  0.1521
85951W        W28863  18.928   4.795  28.690 -0.2151  0.3249 -0.0592
85952W        W28864  22.102   3.386  30.470 -0.0656  0.4537 -0.1290
85953W        W28865  18.685   3.548  28.652  0.0506 -0.0256 -0.0876
85954W        W28866  19.599   5.345  28.570  0.1364 -0.1743 -0.0407
85955W        W28867  19.806   5.623  28.153 -0.0323  0.1887  0.0820
85956W        W28868  18.111   5.478  28.425  0.2800 -0.2208  0.0323
85957W        W28869  19.120   5.315  27.434  0.0187  0.2963 -0.1726
85958W        W28870  21.599   7.060   0.324 -0.1736 -0.2000  0.2197
85959W        W28871  20.675   5.202  28.163 -0.1121 -0.0344  0.1439
85960W        W28872  21.121   6.819  30.734  0.0084  0.0371 -0.1701
85961W        W28873  17.574   3.073  27.583 -0.1360  0.0837  0.1380
85962W        W28874  19.472   4.040  28.323  0.2458  0.0719 -0.1393
85963W        W28875  19.123   5.739  27.693 -0.1724 -0.3814  0.0127
85964W        W28876  19.661   5.043  29.773  0.0851 -0.0321 -0.1163
85965W        W28877  23.378   7.187  31.384  0.0085 -0.0822 -0.1399
85966W        W28878  17.960   3.094  27.208 -0.4465  0.0588  0.1734
85967W        W28879  21.440   4.373  27.295 -0.3286 -0.1036 -0.0930
85968W        W28880  19.801   5.310  29.031 -0.2750  0.1206 -0.0975
85969W        W28881  19.920   7.251  26.712 -0.1352 -0.1273  0.4980
85970W        W28882  20.221   5.391  29.324 -0.0897 -0.1539  0.0366
85971W        W28883  21.663   7.662  28.875 -0.0168  0.0873  0.2168
85972W        W28884  17.403   5.804  28.241 -0.3307  0.1050 -0.3602
85973W        W28885  21.753   5.459  28.504 -0.1124  0.3173 -0.3684
85974W        W28886  23.530   6.411  28.623  0.0315  0.1036 -0.3084
85975W        W28887  20.681   2.734  26.803 -0.1546 -0.1897 -0.1780
85976W        W28888  20.104   5.825  28.574  0.4342  0.1940 -0.0684
85977W        W28889  20.965   5.765  25.928 -0.0951 -0.2213 -0.0221
85978W        W28890  22.706   3.713  29.695 -0.2621  0.3508  0.1557
85979W        W28891  21.072   4.996  29.837  0.0087  0.0134  0.3157
85980W        W28892  20.127   7.223  27.201  0.1648  0.2027 -0.0167
85981W        W28893  21.299   3.983  29.311 -0.0906 -0.1075  0.0962
85982W        W28894  21.240   6.057  28.995 -0.0453 -0.1218 -0.2285
85983W        W28895  22.044   6.198  31.896  0.3575  0.3175  0.1061
85984W        W28896  18.096   4.842  27.421  0.4206  0.0096  0.1417
85985W        W28897  20.117   6.596  29.673  0.0515 -0.0599  0.0468
85986W        W28898  20.361   7.485  29.224 -0.1537  0.2963 -0.0507
85987W        W28899  21.338   7.685  28.458  0.0859 -0.6198  0.0849
85988W        W28900  21.369   6.780  28.717 -0.2924  0.2767  0.2018
85989W        W28901  18.952   6.130  27.982  0.0945 -0.1731  0.0113
85990W        W28902  21.997   5.403  29.023  0.1566  0.1046 -0.3461
85991W        W28903  19.193   6.567  28.949 -0.0515  0.0281 -0.3047
85992W        W28904  22.492   3.408  29.332 -0.0666  0.1137  0.3596
85993W        W28905  19.050   4.781  29.182 -0.2023 -0.0716 -0.1105
85994W        W28906  20.200   5.833  29.592  0.2959  0.0386 -0.1576
85995W        W28907  19.482   4.413  27.416  0.1661 -0.0645  0.1402
85996W        W28908  17.421   6.512  27.446 -0.2503  0.0920 -0.0931
85997W        W28909  19.029   6.771  28.136 -0.2869  0.2076 -0.4371
85998W        W28910  20.357   3.014  30.890  0.0298  0.1072  0.1331
85999W        W28911  17.892   6.221  29.578  0.3320 -0.2114  0.0862
86000W        W28912  18.786   6.480  29.314 -0.0363  0.0448  0.4038
86001W        W28913  19.100   2.738  28.571 -0.0630 -0.0532  0.0532
86002W        W28914  20.463   7.205  27.553  0.0835  0.0355  0.1589
86003W        W28915  18.706   3.154  29.466  0.1209 -0.1498  0.0427
86004W        W28916  17.487   3.775  28.271 -0.1875  0.1639 -0.2256
86005W        W28917  20.994   6.604  26.015 -0.1629 -0.3182 -0.1744
86006W        W28918  20.750   6.323  26.580  0.2740 -0.1146  0.0795
86007W        W28919  20.209   2.877  27.797 -0.0309 -0.4240  0.3452
86008W        W28920  20.933   5.652  31.336 -0.1585 -0.1443  0.0642
86009W        W28921  19.181   5.532  26.465 -0.2125  0.3375 -0.2508
86010W        W28922  20.260   4.963  31.024 -0.1629  0.2965  0.1484
86011W        W28923  19.151   4.457  28.392  0.2877  0.2416 -0.1994
86012W        W28924  18.266   3.965  26.769  0.1104  0.1924  0.3570
86013W        W28925  19.814   3.587  28.741  0.1404  0.0845  0.0233
86014W        W28926  20.310   6.502  27.977  0.1384 -0.1030 -0.2677
86015W        W28927  21.935   7.901  26.967  0.0293 -0.0146 -0.0062
86016W        W28928  22.497   6.335  29.610  0.1431 -0.0572  0.0406
86017W        W28929  20.364   7.403   0.009  0.3236  0.1080  0.1568
86018W        W28930  18.290   4.642  28.376 -0.0661 -0.2144 -0.0587
86019W        W28931  20.853   6.053  27.556 -0.0597  0.1706 -0.1874
86020W        W28932  19.550   6.738  30.753  0.0082 -0.0163  0.0658
86021W        W28933  23.216   5.195  27.336 -0.0617  0.4582 -0.2492
86022W        W28934  20.854   3.788  29.341 -0.1777 -0.0585  0.0982
86023W        W28935  19.815   4.212  27.112 -0.1335 -0.0198  0.2636
86024W        W28936  17.991   2.988  30.666 -0.2664  0.0739 -0.2599
86025W        W28937  19.167   5.279  29.336  0.1029 -0.0319  0.4528
86026W        W28938  22.152   5.968  30.752 -0.3648  0.0477  0.0109
86027W        W28939  18.576   3.773  28.198 -0.1100  0.0235  0.3012
86028W        W28940  19.684   3.774  27.876 -0.1125 -0.2290  0.2108
86029W        W28941  19.950   5.675  27.157  0.1184 -0.1163  0.0502
86030W        W28942  18.642   4.371  28.006  0.4621 -0.1850 -0.0582
86031W        W28943  19.862   4.232  27.725  0.1196 -0.1376  0.1572
86032W        W28944  20.155   4.943  29.031  0.0620 -0.2402  0.4397
86033W        W28945  20.648   7.368  28.776 -0.3639 -0.2525 -0.0545
86034W        W28946  20.827   7.274  30.827 -0.1758 -0.1146 -0.0923
86035W        W28947  19.705   6.432  27.589  0.1070 -0.1929  0.1060
86036W        W28948  22.641   5.798  27.865  0.0084 -0.0604 -0.2056
86037W        W28949  20.360   7.604  30.114  0.2140  0.0829 -0.0867
86038W        W28950  23.109   6.832  30.344 -0.1453 -0.2076 -0.0539
86039W        W28951  20.925   6.539  29.057 -0.0708  0.2048  0.0783
86040W        W28952  22.185   5.345  29.531 -0.0357 -0.1219 -0.2455
86041W        W28953  19.219   3.827  31.875 -0.2301  0.1758  0.0446
86042W        W28954  20.446   5.376  27.670  0.0731  0.3184 -0.1358
86043W        W28955  18.073   4.871  26.879 -0.2946 -0.2050 -0.1116
86044W        W28956  20.316   5.531  28.122  0.0120  0.0047 -0.0373
86045W        W28957  18.733   3.870  27.624 -0.2680  0.2527  0.0261
86046W        W28958  20.127   1.769  28.973  0.2644 -0.0437  0.0245
86047W        W28959  19.123   8.422  30.822  0.1002 -0.1968 -0.1274
86048W        W28960  19.754   6.165  29.172  0.0653  0.0885 -0.0956
86049W        W28961  22.347   4.796  30.745  0.3194 -0.2260  0.4103
86050W        W28962  20.120   6.115  30.016 -0.0358 -0.0044  0.0421
86051W        W28963  17.872   4.895  30.266  0.1243  0.3021 -0.0533
86052W        W28964  18.628   5.837  31.749  0.0094  0.1977  0.3258
86053W        W28965  20.452   4.679  30.455  0.1339  0.3593 -0.1470
86054W        W28966  21.487   6.409   0.534  0.0031 -0.0896  0.2475
86055W        W28967  22.481   4.358  30.381 -0.0768 -0.1614  0.0431
86056W        W28968  19.753   3.825  31.125 -0.1978  0.1109  0.1207
86057W        W28969  21.616   3.241  30.332 -0.0949  0.0794 -0.1114
86058W        W28970  21.615   7.530  31.264 -0.0848  0.1761  0.0869
86059W        W28971  20.767   6.191   0.494 -0.1565  0.0523 -0.1385
86060W        W28972  19.444   2.872  31.980  0.3463 -0.2303  0.0483
86061W        W28973  20.223   5.673  30.311  0.1219  0.0480 -0.1429
86062W        W28974  19.336   5.999  30.480  0.2046  0.5120 -0.0109
86063W        W28975  20.442   5.229  30.433 -0.3450 -0.0193  0.0055
86064W        W28976  20.353   6.315  31.521 -0.2109  0.2103 -0.4536
86065W        W28977  18.063   6.555  31.438  0.1628  0.1894 -0.0410
86066W        W28978  21.788   5.630  30.565 -0.1238 -0.2232  0.1178
86067W        W28979  21.296   3.887  30.739  0.1339 -0.2154 -0.0592
86068W        W28980  19.661   4.232  29.983 -0.0319  0.0644  0.1547
86069W        W28981  18.861   4.735  30.746  0.0084 -0.0362 -0.0143
86070W        W28982  18.404   6.882  31.523  0.1170  0.1927 -0.0691
86071W        W28983  20.723   5.257  30.939  0.2872 -0.4933  0.0920
86072W        W28984  20.375   4.086  30.665  0.1348 -0.2854  0.0233
86073W        W28985  22.764   3.520  31.151  0.0802  0.0678 -0.1398
86074W        W28986  22.038   4.504  31.032  0.3426 -0.3266  0.2917
86075W        W28987  19.935   5.977  30.924 -0.0143 -0.0856 -0.1051
86076W        W28988  19.199   6.614   0.019 -0.0535  0.1090 -0.0237
86077W        W28989  19.316   4.942  30.765  0.1446  0.4295 -0.0018
86078W        W28990  19.419   6.298  31.688 -0.0938 -0.0412 -0.1862
86079W        W28991  20.483   6.448  31.012  0.2499  0.2474 -0.0335
86080W        W28992  19.997   5.106   0.089 -0.0071 -0.1799  0.0714
86081W        W28993  23.536   7.603  31.778 -0.0354  0.1029 -0.1572
86082W        W28994  21.190   4.156  30.206  0.0264 -0.1315  0.0487
86083W        W28995  17.229   4.137  29.925 -0.1471 -0.1062 -0.2751
86084W        W28996  20.537   6.698  29.340  0.3996 -0.0949  0.0227
86085W        W28997  19.560   5.165  30.290 -0.1615  0.0049 -0.3737
86086W        W28998  21.414   7.452  29.845 -0.2196 -0.0633 -0.0259
86087W        W28999  20.846   6.378  30.639 -0.1757  0.0955  0.1909
86088W        W29000  19.241   4.358  30.558 -0.0425  0.3082 -0.0345
86089W        W29001  20.125   4.354  30.314 -0.0889  0.0028 -0.5135
86090W        W29002  20.417   4.559  29.934 -0.0247  0.0082 -0.1905
86091W        W29003  20.606   3.185  31.623  0.0194 -0.0640  0.4766
86092W        W29004  18.932   5.811  30.823  0.1499  0.0846 -0.3642
86093W        W29005  19.395   5.796  29.321 -0.0113  0.0869 -0.1326
86094W        W29006  20.443   6.496  30.077 -0.2211 -0.0976 -0.1039
86095W        W29007  20.268   4.927  29.610 -0.3234 -0.0500  0.1750
86096W        W29008  20.959   4.642  31.699 -0.0421 -0.2112 -0.1589
86097W        W29009  22.018   7.178  30.622 -0.2684  0.2271  0.0787
86098W        W29010  21.301   6.945  29.965 -0.1093 -0.3613 -0.2689
86099W        W29011  21.676   7.470   0.046  0.1683  0.1682 -0.1255
86100W        W29012  22.170   4.202  30.088  0.2452  0.3132 -0.2354
86101W        W29013  18.731   3.864   0.068  0.0996  0.0776 -0.3230
86102W        W29014  20.875   6.767  30.295  0.0366  0.4346  0.0842
86103W        W29015  19.716   4.140  30.720  0.0742  0.0515 -0.1331
86104W        W29016  21.240   6.079  30.437  0.3148  0.1013 -0.1252
86105W        W29017  21.628   4.796  30.802  0.1786  0.1832  0.0184
86106W        W29018  20.622   5.914  30.956  0.0121 -0.2559  0.0235
86107W        W29019  20.604   5.699  31.836 -0.1082 -0.1251 -0.0275
86108W        W29020  18.604   5.007  29.329  0.3342  0.0014  0.1959
86109W        W29021  17.957   4.759  30.754  0.0053 -0.2075  0.1306
86110W        W29022  19.143   7.172  30.928 -0.1708 -0.1211  0.2202
86111W        W29023  18.103   6.119  31.088 -0.2684 -0.0622  0.1966
86112W        W29024  19.990   4.520  30.863  0.0045 -0.0459 -0.1611
86113W        W29025  20.223   5.878  31.321 -0.0386  0.1638  0.0963
86114W        W29026  22.737   8.215  31.910  0.1022  0.1890  0.2373
86115W        W29027  19.789   4.288  31.273 -0.1438 -0.0847 -0.2448
86116W        W29028  19.432  10.265  18.478 -0.1081  0.1143  0.1134
86117W        W29029  18.116   8.957  16.194 -0.1059 -0.0624  0.0095
86118W        W29030  20.043   7.343  15.686  0.2900  0.2365  0.0203
86119W        W29031  22.233   8.884  16.022 -0.0829 -0.1812  0.2634
86120W        W29032  18.715   9.457  17.737 -0.0582  0.0553 -0.0664
86121W        W29033  20.645   9.254  15.963  0.1095 -0.1325 -0.0957
86122W        W29034  18.589   6.634  18.676 -0.2853 -0.2309  0.1378
86123W        W29035  20.471   9.636  16.942  0.4962 -0.5056 -0.3628
86124W        W29036  21.722   9.387  18.008 -0.1421  0.0980 -0.0086
86125W        W29037  21.063  10.234  15.890  0.2632  0.2714  0.3036
86126W        W29038  19.100   7.974  17.545 -0.1527  0.0534  0.0443
86127W        W29039  18.997   9.427  20.113  0.0969 -0.2564 -0.1937
86128W        W29040  19.360   5.612  16.565  0.3867 -0.3686  0.3199
86129W        W29041  16.448   7.564  17.585  0.1740  0.2385  0.0714
86130W        W29042  19.683   8.862  18.529  0.2363  0.0384 -0.1326
86131W        W29043  19.703   9.169  17.171  0.0876 -0.2020 -0.0009
86132W        W29044  18.471   9.584  18.738 -0.1827  0.0984  0.0557
86133W        W29045  19.446   8.014  16.246 -0.1166  0.0369 -0.0763
86134W        W29046  19.491  10.046  16.294 -0.4171 -0.1352 -0.0631
86135W        W29047  19.911   7.635  18.611 -0.1827  0.0717  0.1385
86136W        W29048  21.494   6.448  18.839 -0.3934  0.4208 -0.1528
86137W        W29049  20.193  11.110  16.028  0.1923 -0.2588  0.0574
86138W        W29050  17.866   9.605  15.509 -0.2972  0.5196 -0.1061
86139W        W29051  18.627   8.511  17.277 -0.4035  0.1911  0.1161
86140W        W29052  18.185   9.305  18.409  0.0716  0.1465 -0.0491
86141W        W29053  21.181   7.257  17.668  0.3561 -0.0048  0.2965
86142W        W29054  20.657   8.742  16.449 -0.2461  0.1706 -0.3293
86143W        W29055  19.655  10.012  17.709  0.1254  0.2075 -0.2987
86144W        W29056  20.503  10.228  16.187  0.2324 -0.4112 -0.3058
86145W        W29057  20.702   8.732  20.128 -0.5385  0.2047  0.4532
86146W        W29058  18.848   8.847  16.911  0.0072 -0.4208 -0.1357
86147W        W29059  18.284  10.745  17.975  0.2228 -0.0304  0.0181
86148W        W29060  19.259  10.363  17.790  0.2505 -0.2185  0.1190
86149W        W29061  21.962  10.820  17.245 -0.1042  0.0911  0.1072
86150W        W29062  21.666   9.457  18.641 -0.0069  0.0272 -0.1623
86151W        W29063  19.828   9.443  20.632  0.2525  0.0932  0.0756
86152W        W29064  17.907  10.087  15.672  0.0160 -0.1036 -0.2287
86153W        W29065  20.316   9.853  19.860 -0.2421  0.0225  0.0581
86154W        W29066  20.304  10.544  21.257 -0.2904  0.3130 -0.0281
86155W        W29067  21.090   9.718  16.848  0.0614  0.1112  0.3061
86156W        W29068  20.113   9.933  15.897 -0.0053  0.2755  0.3659
86157W        W29069  19.246  10.384  15.445  0.0031 -0.0762 -0.3204
86158W        W29070  19.782   9.832  19.690  0.2419  0.1773 -0.0129
86159W        W29071  19.098   8.719  19.425 -0.2817  0.1328 -0.2658
86160W        W29072  17.045   8.420  17.634  0.1813  0.0310  0.1615
86161W        W29073  21.611   8.361  19.434 -0.1570  0.1824  0.0759
86162W        W29074  19.047  10.926  16.557  0.1402  0.0318  0.1475
86163W        W29075  20.914   8.627  15.541 -0.1528 -0.0929  0.3796
86164W        W29076  19.862   7.830  15.601 -0.3115  0.0029 -0.0805
86165W        W29077  19.921   8.458  17.759  0.1602 -0.2283  0.0371
86166W        W29078  19.921   8.936  17.551  0.2071 -0.1153 -0.1889
86167W        W29079  19.263  10.175  16.803 -0.2354  0.1999  0.2266
86168W        W29080  19.397   9.143  18.245 -0.4751  0.1322 -0.0437
86169W        W29081  23.032   8.106  16.893 -0.0168 -0.0258 -0.1328
86170W        W29082  21.517  10.174  15.681  0.2777  0.2283 -0.1152
86171W        W29083  20.257   8.661  18.909  0.0722  0.1680  0.1456
86172W        W29084  19.388   9.757  19.375  0.2579 -0.0404 -0.0331
86173W        W29085  18.620   8.979  17.597  0.0651  0.0078 -0.2667
86174W        W29086  21.033  10.931  16.605 -0.3135 -0.0264 -0.0071
86175W        W29087  22.554   8.347  17.299  0.1672  0.1405 -0.3623
86176W        W29088  20.967  11.148  16.054  0.3173  0.1503  0.0227
86177W        W29089  19.243   8.747  16.587 -0.1337  0.3567  0.0706
86178W        W29090  17.255   8.903  20.129  0.3157  0.0463  0.0111
86179W        W29091  19.553   8.054  19.420 -0.0361 -0.1278 -0.0318
86180W        W29092  18.838   6.848  16.509 -0.1674  0.0838  0.0243
86181W        W29093  21.577   8.437  17.942 -0.0474 -0.1457 -0.1329
86182W        W29094  18.014  10.034  18.986  0.0260  0.0601  0.0016
86183W        W29095  20.480   8.010  17.004 -0.2537 -0.3086 -0.3385
86184W        W29096  19.495   9.733  16.679  0.2127 -0.2055  0.2634
86185W        W29097  22.558   8.265  18.405 -0.1060 -0.0309  0.1658
86186W        W29098  21.747  10.828  16.385 -0.1074 -0.0898  0.0249
86187W        W29099  20.241   6.876  18.180  0.1210 -0.1941  0.0084
86188W        W29100  21.301   7.649  18.065  0.0152  0.1696 -0.0204
86189W        W29101  20.513   9.552  15.035 -0.1594 -0.1256 -0.2131
86190W        W29102  19.879   9.445  16.546  0.0101 -0.3712 -0.0463
86191W        W29103  22.322   7.762  18.427  0.1788 -0.2832  0.2825
86192W        W29104  21.432   8.762  15.905 -0.0400 -0.0041  0.5050
86193W        W29105  18.617   9.803  17.371  0.2518  0.0860  0.5313
86194W        W29106  19.828   7.617  19.110 -0.2133  0.1216  0.1423
86195W        W29107  20.157   9.973  20.365 -0.3786  0.3176  0.1748
86196W        W29108  18.458  10.988  16.267 -0.1181  0.2693  0.3845
86197W        W29109  18.495   8.523  17.839 -0.2298 -0.0762 -0.0165
86198W        W29110  17.823  10.228  16.387 -0.0905  0.2066 -0.1965
86199W        W29111  18.765   9.073  18.920  0.1237  0.2530  0.1194
86200W        W29112  19.582   8.897  19.550  0.0050 -0.0035  0.2934
86201W        W29113  20.281   7.143  17.653 -0.3238 -0.1910 -0.3486
86202W        W29114  20.841   6.737  19.728  0.4949  0.3238 -0.0164
86203W        W29115  21.755   7.158  17.740  0.1719  0.1040  0.0044
86204W        W29116  19.291   9.409  16.333  0.1922  0.1305  0.1453
86205W        W29117  20.813  11.383  18.265 -0.0567 -0.2000  0.2964
86206W        W29118  21.041   7.979  17.267 -0.1002  0.3644 -0.1048
86207W        W29119  21.045   9.674  15.662 -0.2151 -0.0526 -0.3639
86208W        W29120  18.954   8.865  18.485  0.1586  0.1608 -0.1568
86209W        W29121  17.078   8.519  17.092 -0.1223 -0.1487 -0.1826
86210W        W29122  19.627   7.510  19.687  0.0872 -0.1347 -0.3005
86211W        W29123  18.013   7.948  16.129 -0.0919 -0.1363 -0.4095
86212W        W29124  20.331   7.634  18.914 -0.0285 -0.2482 -0.1674
86213W        W29125  18.918   7.886  16.101  0.1398  0.4066 -0.1250
86214W        W29126  21.155   7.001  16.542 -0.1407 -0.1393  0.0653
86215W        W29127  20.373   9.254  17.449 -0.2013  0.1296 -0.0670
86216W        W29128  18.391   9.590  16.940  0.0757  0.1799  0.1164
86217W        W29129  22.338   7.655  19.023 -0.0597 -0.0612 -0.0301
86218W        W29130  20.624  11.484  16.038  0.4323 -0.0403 -0.1434
86219W        W29131  21.568  10.462  18.486  0.0542  0.2667 -0.0051
86220W        W29132  20.851   9.653  16.292 -0.1002 -0.0580 -0.2864
86221W        W29133  19.117   7.606  19.751  0.1273 -0.0844 -0.1247
86222W        W29134  18.678   8.189  16.673 -0.0339 -0.0955 -0.0561
86223W        W29135  18.442  11.190  17.245 -0.0288 -0.1219 -0.0590
86224W        W29136  19.107   9.815  17.632  0.1221  0.0684 -0.2443
86225W        W29137  19.133   5.942  16.837 -0.3914 -0.2362  0.1161
86226W        W29138  22.211  10.698  19.120  0.2444 -0.3503  0.2050
86227W        W29139  19.890  10.410  16.031 -0.0508 -0.1355  0.2287
86228W        W29140  20.186  10.090  17.959 -0.0071  0.0078  0.4498
86229W        W29141  21.091   6.920  18.808  0.1934  0.0362  0.0111
86230W        W29142  21.018   8.124  18.489 -0.0156 -0.1288  0.1919
86231W        W29143  20.226   7.503  17.042  0.0734  0.0517 -0.2103
86232W        W29144  18.819   8.591  15.118  0.0316  0.0188 -0.2880
86233W        W29145  21.368  10.561  16.555  0.1195 -0.0419  0.1253
86234W        W29146  18.412  10.372  17.046 -0.1876  0.1310  0.1466
86235W        W29147  17.996   8.257  17.513  0.0507  0.2081 -0.0270
86236W        W29148  21.615   9.627  16.986  0.0979  0.2613 -0.2962
86237W        W29149  20.756   7.105  17.398 -0.1458  0.1678 -0.2659
86238W        W29150  17.966   7.949  19.768  0.0220 -0.1003 -0.2258
86239W        W29151  20.085   7.181  19.026 -0.3416  0.2236 -0.0986
86240W        W29152  19.941   9.560  17.104 -0.0221  0.1619 -0.3866
86241W        W29153  19.442   9.251  18.720 -0.0846 -0.1544  0.0465
86242W        W29154  20.585   8.246  16.527 -0.1709  0.1191  0.1239
86243W        W29155  20.915   8.192  15.408 -0.0377 -0.0186  0.0693
86244W        W29156  20.157   9.632  19.446 -0.3643 -0.0545  0.0701
86245W        W29157  21.584  10.951  16.859  0.2701 -0.2604 -0.2643
86246W        W29158  20.332   7.959  16.197 -0.0480 -0.2546  0.0423
86247W        W29159  21.590   7.486  15.345  0.3548  0.0177 -0.2271
86248W        W29160  18.349   8.131  20.106 -0.0496 -0.1848  0.1482
86249W        W29161  21.487   9.688  15.912 -0.3011 -0.1344  0.2186
86250W        W29162  21.053   9.450  17.906  0.1541  0.0552  0.1676
86251W        W29163  19.070   7.878  16.649 -0.0778 -0.5170  0.0271
86252W        W29164  21.934   9.926  15.927 -0.3057 -0.3255  0.1261
86253W        W29165  18.250   9.108  19.017 -0.3513 -0.1148  0.2053
86254W        W29166  20.621   7.626  19.826  0.2026  0.0174  0.2909
86255W        W29167  21.494  10.146  16.175  0.1539  0.1033 -0.1852
86256W        W29168  19.931   8.016  18.078 -0.0639  0.3200  0.1662
86257W        W29169  19.688   8.783  15.729 -0.2474 -0.0424  0.3436
86258W        W29170  19.023   7.678  17.068  0.0307 -0.1465 -0.2822
86259W        W29171  17.783  10.851  15.298  0.1524 -0.1215  0.0310
86260W        W29172  21.099   7.223  18.364  0.1284 -0.1635  0.1179
86261W        W29173  21.180   7.276  16.978 -0.0529  0.1407 -0.0093
86262W        W29174  20.317   8.959  18.460  0.2963  0.0444 -0.0183
86263W        W29175  21.187   8.580  18.602  0.3381 -0.0122 -0.3103
86264W        W29176  20.105   8.761  16.424 -0.0936  0.2844  0.3131
86265W        W29177  21.052   7.731  17.671  0.1851  0.1885 -0.1831
86266W        W29178  19.647   9.097  16.102  0.0085 -0.1920 -0.0556
86267W        W29179  20.299   8.244  19.805  0.0371  0.0013  0.3136
86268W        W29180  18.866   9.125  19.459  0.0447  0.1615  0.1408
86269W        W29181  18.223   9.847  18.425  0.2659 -0.1729 -0.3987
86270W        W29182  22.547   8.877  17.216  0.2099 -0.1701  0.1359
86271W        W29183  21.988   9.667  17.348 -0.1869  0.0324 -0.1071
86272W        W29184  20.146   7.941  19.342 -0.1380  0.0063 -0.1772
86273W        W29185  21.121   7.326  16.121 -0.1081 -0.2341 -0.4018
86274W        W29186  20.039   9.862  16.714  0.3489 -0.4268  0.0973
86275W        W29187  18.548   9.990  16.025 -0.3567  0.0287 -0.1096
86276W        W29188  19.538   8.024  18.448 -0.2230  0.3936  0.1861
86277W        W29189  21.090  10.259  18.126 -0.1563 -0.2143 -0.0255
86278W        W29190  19.728   9.630  16.072  0.1047  0.1800 -0.0085
86279W        W29191  21.434   9.526  17.431 -0.0368 -0.3443  0.0986
86280W        W29192  18.861  10.444  16.548  0.1652 -0.3371 -0.0930
86281W        W29193  22.561   7.178  17.048 -0.1944 -0.0788 -0.0462
86282W        W29194  19.214   9.762  17.083  0.0290  0.5123  0.1767
86283W        W29195  19.208   8.843  15.999  0.1442  0.0238  0.0618
86284W        W29196  18.509   8.220  15.986 -0.0143 -0.0409  0.0784
86285W        W29197  20.252   6.935  17.214  0.3019 -0.1389  0.4272
86286W        W29198  20.979   9.118  15.556 -0.3765  0.1891 -0.0817
86287W        W29199  20.594   7.143  18.965  0.0706 -0.2700  0.1596
86288W        W29200  21.530   7.241  18.737  0.1993 -0.1084  0.1397
86289W        W29201  17.539  10.512  18.481 -0.5083 -0.1035 -0.1503
86290W        W29202  19.878  10.007  19.074 -0.2285 -0.2673  0.0090
86291W        W29203  20.494   7.556  15.795 -0.0308  0.0133  0.0042
86292W        W29204  21.112   9.297  16.064 -0.0114  0.0069 -0.2176
86293W        W29205  19.745   8.854  18.989  0.3297 -0.5398  0.1424
86294W        W29206  18.348   9.328  15.442 -0.1562  0.1880 -0.0911
86295W        W29207  19.717   9.464  19.145 -0.0403  0.0952 -0.1398
86296W        W29208  18.787   9.293  17.101 -0.2660  0.1986  0.0780
86297W        W29209  18.737  11.301  16.600  0.2600 -0.1036  0.1495
86298W        W29210  21.336   9.609  16.401 -0.0898 -0.1042 -0.1539
86299W        W29211  19.895   8.648  17.027 -0.1198  0.2814 -0.3245
86300W        W29212  18.566   9.511  18.187 -0.0667 -0.3656 -0.3191
86301W        W29213  18.005   8.522  18.726  0.0397 -0.2552  0.1839
86302W        W29214  22.414   9.013  18.018  0.0304 -0.0499  0.0123
86303W        W29215  19.022   8.348  16.241 -0.0529 -0.2610 -0.4495
86304W        W29216  18.993   7.300  18.485 -0.3619  0.0830  0.1420
86305W        W29217  19.555   9.587  17.470 -0.3004  0.1919  0.1087
86306W        W29218  19.849   8.859  18.073  0.0899 -0.2909 -0.0072
86307W        W29219  20.550   8.358  18.532  0.3229 -0.0024  0.0632
86308W        W29220  19.305   9.796  18.803 -0.0708 -0.1364 -0.2953
86309W        W29221  19.602   7.054  17.861 -0.0079  0.1708  0.1090
86310W        W29222  22.147  10.576  17.672  0.0675  0.2888 -0.0572
86311W        W29223  18.949   8.006  20.125 -0.0021 -0.0183  0.0172
86312W        W29224  20.348   9.697  16.324  0.1736  0.2256 -0.0060
86313W        W29225  19.395   8.649  18.151  0.1140  0.0381  0.2968
86314W        W29226  19.290  10.128  17.343  0.2085 -0.0701  0.0374
86315W        W29227  19.829   8.163  16.054 -0.0594  0.0917 -0.2307
86316W        W29228  17.945   9.495  18.780 -0.0841 -0.0961 -0.0557
86317W        W29229  18.638  10.563  16.090  0.0157  0.2160  0.0644
86318W        W29230  17.607   9.574  19.480  0.0737  0.3320 -0.0418
86319W        W29231  21.055   7.247  15.201  0.0744 -0.0816  0.1325
86320W        W29232  19.989  10.774  15.705  0.3511  0.2620  0.4087
86321W        W29233  20.754   8.409  17.116 -0.1141  0.0675  0.0848
86322W        W29234  23.283   7.698  18.825  0.0755 -0.1016 -0.0638
86323W        W29235  21.751   8.583  17.381  0.0490 -0.3143  0.1206
86324W        W29236  22.287   6.862  18.786  0.1258  0.0190 -0.0667
86325W        W29237  17.736   8.348  19.548 -0.2217 -0.0444 -0.2102
86326W        W29238  21.734  10.080  17.259  0.1574 -0.1224  0.0211
86327W        W29239  17.276   8.733  17.966 -0.2061  0.1031 -0.0038
86328W        W29240  21.234  10.139  18.590 -0.1317  0.2587  0.2376
86329W        W29241  20.480   8.389  20.635 -0.1002  0.2241 -0.0670
86330W        W29242  19.961   6.638  17.521  0.0783  0.0953 -0.0588
86331W        W29243  18.800   8.722  15.729  0.1036 -0.0671 -0.2497
86332W        W29244  19.070   9.543  18.126 -0.0653 -0.0228  0.1291
86333W        W29245  22.320   8.973  16.714  0.2687 -0.0756  0.2205
86334W        W29246  18.994  10.226  15.857  0.3733  0.0143  0.0675
86335W        W29247  20.539   6.513  17.271 -0.0145  0.2488  0.0244
86336W        W29248  18.906   9.007  16.315  0.0451 -0.0102  0.0408
86337W        W29249  19.694   9.008  16.614 -0.2112  0.1356  0.0504
86338W        W29250  19.944  10.170  15.381  0.0795 -0.2271 -0.0831
86339W        W29251  17.649   8.971  17.607 -0.3415  0.1352 -0.1565
86340W        W29252  18.755   6.914  19.277 -0.1956 -0.0238  0.0599
86341W        W29253  21.401   7.732  17.039  0.0064 -0.1867 -0.1309
86342W        W29254  20.278   7.259  16.158  0.6474 -0.4713  0.4824
86343W        W29255  19.958   9.316  18.254  0.0477 -0.1574  0.2058
86344W        W29256  20.205   8.093  18.858  0.2288  0.3000 -0.0067
86345W        W29257  18.934   8.060  18.525 -0.1591 -0.1952  0.0489
86346W        W29258  19.901   6.983  20.615 -0.2207 -0.2185 -0.0855
86347W        W29259  22.875  11.443  18.764 -0.0047 -0.1905 -0.1981
86348W        W29260  20.576   8.461  15.937  0.0903 -0.0840 -0.0802
86349W        W29261  21.826   8.731  18.514  0.0396 -0.2361 -0.4249
86350W        W29262  22.198   8.573  18.053  0.4841 -0.2729 -0.0991
86351W        W29263  19.864   9.231  15.126 -0.1835  0.2839 -0.0043
86352W        W29264  18.375   8.560  16.848 -0.1095 -0.1633  0.1008
86353W        W29265  21.806   6.914  19.028  0.0931  0.1749 -0.1839
86354W        W29266  19.403   8.409  15.908 -0.1072  0.2812  0.1573
86355W        W29267  20.208   6.720  19.179  0.0410  0.2476 -0.1744
86356W        W29268  19.530  11.001  15.745 -0.1533 -0.1363  0.1881
86357W        W29269  20.344   8.765  17.856  0.2170 -0.1023  0.0055
86358W        W29270  21.789   8.409  16.623  0.2224  0.0406  0.3436
86359W        W29271  17.733   7.529  16.965 -0.0695  0.0995  0.1740
86360W        W29272  19.336   9.313  19.608 -0.0308 -0.0086 -0.0616
86361W        W29273  18.071   6.833  16.541 -0.1175 -0.2274 -0.1538
86362W        W29274  20.633   9.462  15.520  0.1309 -0.0254 -0.1244
86363W        W29275  20.802   9.773  18.718 -0.0019 -0.1574  0.3470
86364W        W29276  21.029   7.896  19.921 -0.0974  0.0822 -0.1217
86365W        W29277  20.291   8.001  15.637  0.1757  0.1823  0.0373
86366W        W29278  20.378   8.624  16.812 -0.1692  0.3594 -0.0428
86367W        W29279  16.464   9.241  17.159 -0.1291  0.0932 -0.0606
86368W        W29280  19.742   7.919  17.512 -0.0191  0.0245  0.0717
86369W        W29281  18.999  10.220  18.780  0.1380 -0.1426 -0.0429
86370W        W29282  18.021   8.136  18.010  0.0820  0.1352 -0.2622
86371W        W29283  18.538  10.242  18.261  0.3926  0.1039 -0.0205
86372W        W29284  20.882   8.459  18.170 -0.2890  0.1506 -0.1986
86373W        W29285  20.950   7.958  16.804  0.1309 -0.1100 -0.0226
86374W        W29286  20.415   8.241  17.974 -0.3145 -0.2646 -0.2177
86375W        W29287  20.190   9.138  19.253 -0.0608  0.0638 -0.0910
86376W        W29288  20.704  10.410  20.585 -0.6388 -0.0097 -0.1448
86377W        W29289  20.030   9.274  18.778  0.2897  0.0061  0.2924
86378W        W29290  20.399   8.755  19.630  0.4366 -0.0491  0.2870
86379W        W29291  22.547   8.069  16.889 -0.1262  0.4536 -0.3837
86380W        W29292  18.897  11.082  17.044 -0.1270  0.0102  0.1238
86381W        W29293  18.647   7.282  19.586  0.3143  0.0136 -0.1669
86382W        W29294  20.784   8.363  19.794  0.0974  0.1761 -0.0414
86383W        W29295  20.282   8.199  17.501 -0.0546  0.1391 -0.0112
86384W        W29296  18.491   7.160  16.565 -0.0382 -0.0768 -0.0048
86385W        W29297  20.907   9.425  17.271  0.0382 -0.0180  0.0313
86386W        W29298  17.830   8.979  18.845 -0.0392 -0.1536  0.0513
86387W        W29299  18.311   8.470  18.297 -0.2926  0.4387  0.1766
86388W        W29300  17.356  10.861  16.726  0.0252 -0.0272  0.2141
86389W        W29301  22.783  10.162  17.290  0.1234  0.3563  0.2850
86390W        W29302  21.145   8.389  16.750  0.0209  0.0959  0.3178
86391W        W29303  20.557   9.964  17.315  0.0614 -0.1396 -0.1936
86392W        W29304  20.777   8.261  17.622  0.0283  0.1014  0.0727
86393W        W29305  17.260   9.301  17.686  0.1220  0.1866  0.1349
86394W        W29306  18.119  10.448  16.059 -0.1962  0.1570 -0.0763
86395W        W29307  20.283  10.677  16.239  0.0706 -0.1798 -0.1121
86396W        W29308  18.969  11.324  17.460  0.1566  0.2794  0.1869
86397W        W29309  21.913   9.648  19.043 -0.1119  0.3508  0.2665
86398W        W29310  21.388   7.889  16.092  0.1879 -0.2044  0.1464
86399W        W29311  22.110   8.341  17.052  0.1305  0.0366 -0.0038
86400W        W29312  20.053   8.280  16.591  0.0147 -0.3557 -0.1824
86401W        W29313  21.220   9.675  18.900 -0.1952  0.3252  0.1898
86402W        W29314  19.694  10.045  17.044 -0.2899 -0.2015 -0.2863
86403W        W29315  18.459   9.852  16.496  0.4087 -0.0099  0.1137
86404W        W29316  18.447   8.712  18.723 -0.0471  0.4510  0.0562
86405W        W29317  21.226   7.673  18.601  0.0832 -0.0727  0.1070
86406W        W29318  18.937   9.693  19.617  0.0445  0.0632  0.3185
86407W        W29319  22.104   9.897  16.864 -0.1711 -0.2159  0.2349
86408W        W29320  18.576   8.646  16.232  0.4746  0.3459  0.0434
86409W        W29321  19.933   7.945  17.051  0.2093  0.1235  0.0154
86410W        W29322  21.701   7.734  18.474 -0.1996  0.1715 -0.1433
86411W        W29323  20.136   9.305  15.783  0.2017  0.1189  0.0171
86412W        W29324  19.882   6.637  16.984  0.0528 -0.1419 -0.4167
86413W        W29325  20.704  10.712  15.945 -0.2665 -0.2691 -0.2015
86414W        W29326  18.539   9.435  19.249  0.0308  0.2352  0.0406
86415W        W29327  18.823   9.848  18.462 -0.1233 -0.0668 -0.2472
86416W        W29328  17.861   7.475  15.971  0.1817 -0.0235 -0.1874
86417W        W29329  21.925   7.838  17.271  0.2778  0.1618  0.1715
86418W        W29330  19.062   8.194  19.372 -0.0997  0.0649  0.0952
86419W        W29331  20.550   9.872  18.231 -0.0243 -0.2230 -0.0313
86420W        W29332  18.779   9.582  16.140 -0.2391 -0.0516  0.2740
86421W        W29333  21.217   8.509  17.241  0.3552 -0.0938  0.0924
86422W        W29334  20.405   9.251  17.998  0.0500 -0.1866  0.1791
86423W        W29335  18.903   8.427  18.925  0.3707 -0.1456  0.1499
86424W        W29336  20.184   8.785  15.949  0.1928  0.1855  0.2670
86425W        W29337  20.178   9.523  20.192 -0.0593 -0.0110  0.1088
86426W        W29338  19.682   9.260  15.602  0.0002 -0.1574  0.3631
86427W        W29339  22.332  10.660  18.632 -0.1356 -0.0280 -0.0822
86428W        W29340  20.749   7.862  18.119 -0.1655  0.3027  0.1434
86429W        W29341  20.079   8.945  15.491 -0.1250  0.0494 -0.1909
86430W        W29342  19.619   9.625  18.054  0.1601 -0.0809 -0.1022
86431W        W29343  19.371   9.820  19.977  0.2756 -0.0830 -0.1438
86432W        W29344  21.170  10.208  21.554  0.3787 -0.0625 -0.1709
86433W        W29345  18.862   6.913  17.069 -0.0556  0.1577  0.1850
86434W        W29346  21.838   8.999  15.719  0.2052  0.0312 -0.0823
86435W        W29347  21.495   9.023  17.689  0.0360  0.1077 -0.1133
86436W        W29348  19.059  10.830  16.060 -0.0548  0.0542 -0.0962
86437W        W29349  21.525   7.607  17.536  0.0549  0.1558 -0.2118
86438W        W29350  20.761  10.575  16.403  0.1049 -0.0713 -0.1101
86439W        W29351  17.437   7.576  18.555 -0.2919  0.1545 -0.0777
86440W        W29352  21.286   9.996  17.206  0.1989 -0.1544 -0.1178
86441W        W29353  22.185   8.671  17.556 -0.1588 -0.3070 -0.3100
86442W        W29354  19.693   7.096  15.431 -0.0621  0.3471  0.0239
86443W        W29355  19.967   9.431  17.716 -0.2082 -0.0269  0.0755
86444W        W29356  18.320  10.479  16.561 -0.1634 -0.0627 -0.1245
86445W        W29357  21.201   8.150  17.946  0.1403  0.0350  0.0866
86446W        W29358  20.438   7.442  18.137  0.1898 -0.1562  0.0576
86447W        W29359  18.846   9.505  16.631 -0.2670 -0.0135  0.2526
86448W        W29360  21.920   7.674  19.942  0.3913 -0.0032  0.0542
86449W        W29361  20.868   9.319  18.373 -0.1585 -0.1293  0.2731
86450W        W29362  20.410   9.551  20.665  0.0030 -0.0532 -0.1120
86451W        W29363  19.269   9.244  16.883  0.0458  0.2712 -0.0404
86452W        W29364  19.970   8.755  19.852 -0.2297  0.0017  0.0756
86453W        W29365  20.606   9.295  16.549 -0.0467 -0.2217 -0.2654
86454W        W29366  20.625  11.118  15.554  0.0120 -0.1185  0.0664
86455W        W29367  21.009  10.116  16.386  0.1995 -0.2304 -0.1857
86456W        W29368  21.115   8.601  17.729 -0.3044  0.0658 -0.3752
86457W        W29369  22.625   9.435  16.958 -0.2075 -0.2872 -0.1513
86458W        W29370  19.281   8.491  18.617  0.0642  0.0896  0.0097
86459W        W29371  21.665   7.173  17.137  0.1623  0.1484  0.0308
86460W        W29372  20.427   7.625  16.583  0.0021  0.4210  0.3356
86461W        W29373  20.007   8.637  19.358 -0.0314  0.2629  0.0557
86462W        W29374  17.648  10.662  16.259 -0.2080  0.1598  0.2847
86463W        W29375  18.794  10.244  15.335  0.1440 -0.0263 -0.1243
86464W        W29376  18.381  10.160  17.805 -0.0737  0.0764  0.1338
86465W        W29377  19.338   5.776  19.579 -0.1581 -0.1249  0.1400
86466W        W29378  19.369   8.018  19.901  0.1427 -0.0675 -0.2299
86467W        W29379  19.402   8.758  17.613 -0.1415  0.2114 -0.2132
86468W        W29380  18.178   8.023  16.982 -0.1394  0.0937  0.0541
86469W        W29381  22.139  11.385  15.766  0.2885  0.0463  0.1688
86470W        W29382  19.005   8.488  17.635 -0.0635  0.4130 -0.1074
86471W        W29383  18.125   9.239  16.838 -0.0655  0.0572  0.2158
86472W        W29384  21.246  10.376  17.667  0.0390  0.1303  0.1436
86473W        W29385  21.952  11.314  16.251  0.0067  0.2785 -0.1107
86474W        W29386  19.506   6.442  18.031 -0.0649 -0.4708 -0.3488
86475W        W29387  20.364  10.301  20.067  0.0812  0.1385 -0.0349
86476W        W29388  19.221   9.789  15.951  0.0452 -0.1518 -0.1431
86477W        W29389  19.082   7.307  17.934  0.0598  0.0491  0.2675
86478W        W29390  20.280   7.275  18.571 -0.4580  0.3298 -0.1657
86479W        W29391  18.310   6.554  15.796  0.1354 -0.0623  0.2049
86480W        W29392  20.519   7.754  17.497  0.0234 -0.2246  0.0007
86481W        W29393  20.651  10.622  16.977  0.0042  0.0918 -0.1172
86482W        W29394  20.852  10.769  15.326  0.2527 -0.0947 -0.0595
86483W        W29395  20.674   8.970  17.008  0.1341 -0.0969 -0.1478
86484W        W29396  20.979   9.813  17.582 -0.0845 -0.0912 -0.0730
86485W        W29397  16.993   7.476  17.677 -0.0334  0.2164  0.1758
86486W        W29398  20.652   9.849  15.872  0.1349 -0.3724 -0.0951
86487W        W29399  20.263   9.209  19.794 -0.2922 -0.1052  0.1826
86488W        W29400  21.431   8.789  16.868 -0.2094 -0.0886 -0.1762
86489W        W29401  20.996   6.570  18.185 -0.1273 -0.0083  0.1949
86490W        W29402  20.183   9.186  16.269 -0.1156 -0.0892  0.1210
86491W        W29403  19.506   7.226  20.486  0.0533 -0.2357  0.2753
86492W        W29404  18.736   8.464  19.680  0.2939 -0.1353 -0.4892
86493W        W29405  21.900   8.916  17.923 -0.1314  0.1318  0.3769
86494W        W29406  19.682   8.638  16.234  0.2364 -0.1022 -0.3257
86495W        W29407  19.585   8.323  16.778 -0.2591  0.0389  0.0015
86496W        W29408  21.245  10.676  16.117  0.1843 -0.0917  0.2532
86497W        W29409  19.357   8.244  17.859  0.0050 -0.2680  0.1268
86498W        W29410  20.912   8.795  16.016 -0.0192 -0.2837  0.1430
86499W        W29411  20.095   7.521  19.911  0.1175  0.1820  0.1846
86500W        W29412  22.146  10.164  18.364  0.1463 -0.3259  0.2179
86501W        W29413  19.477   8.518  19.199 -0.0360  0.2745  0.1426
86502W        W29414  20.195   9.131  16.863 -0.1711  0.0581 -0.2090
86503W        W29415  22.575   8.378  16.015 -0.0001  0.0523  0.1859
86504W        W29416  21.230   9.041  17.281 -0.0760 -0.1812  0.5024
86505W        W29417  21.186  11.440  18.677  0.3269  0.0394  0.2968
86506W        W29418  20.776  10.848  17.439 -0.1276 -0.0952  0.1236
86507W        W29419  20.873   7.391  16.533  0.0649 -0.1331 -0.2860
86508W        W29420  18.057   7.768  17.707  0.1769  0.2021 -0.0231
86509W        W29421  19.347   8.758  17.091  0.0226 -0.1776  0.1134
86510W        W29422  19.136   9.097  17.415  0.0072  0.0355  0.0209
86511W        W29423  21.943   7.424  18.889 -0.4672  0.0455  0.0486
86512W        W29424  18.802   7.398  19.112  0.2383 -0.0505  0.1027
86513W        W29425  20.832   7.859  16.368 -0.1306  0.0231 -0.4183
86514W        W29426  19.103  10.441  19.784 -0.0688  0.1812  0.1063
86515W        W29427  19.575   9.174  17.803  0.2411 -0.0817  0.0460
86516W        W29428  20.398   9.163  22.265  0.1358 -0.1148 -0.3066
86517W        W29429  19.176   8.449  20.064 -0.1600  0.2919  0.0470
86518W        W29430  20.852   8.405  18.918  0.2179  0.1747  0.1050
86519W        W29431  21.700   9.474  20.276  0.0648 -0.0949  0.0653
86520W        W29432  18.958   8.330  21.304 -0.0546  0.1772  0.1022
86521W        W29433  19.874   9.926  21.766 -0.1145 -0.1363 -0.2610
86522W        W29434  18.827   7.749  22.640 -0.1657  0.0988  0.2363
86523W        W29435  21.015  10.623  21.883  0.0529 -0.3237  0.1914
86524W        W29436  20.335  11.023  21.059  0.1506 -0.1794 -0.3045
86525W        W29437  21.080   8.360  20.381  0.1044  0.1647  0.0409
86526W        W29438  20.260   8.368  22.728 -0.0231  0.1383  0.0879
86527W        W29439  19.894  10.649  22.105  0.1205  0.0780  0.2580
86528W        W29440  19.768   7.099  20.032 -0.1757 -0.1445 -0.0070
86529W        W29441  17.230   5.851  21.995 -0.4112 -0.0373  0.0791
86530W        W29442  20.451   7.599  22.920 -0.4644 -0.1711  0.2070
86531W        W29443  17.539   9.307  20.431 -0.0039  0.0732  0.0080
86532W        W29444  20.107   7.560  22.524 -0.0416 -0.0197  0.1856
86533W        W29445  19.612   7.169  18.655  0.0861 -0.0214  0.0045
86534W        W29446  21.058  11.033  21.564  0.2119  0.0746 -0.1702
86535W        W29447  19.131   8.823  23.641 -0.0049  0.1308  0.0009
86536W        W29448  21.987   6.207  20.895 -0.2216  0.2109 -0.0375
86537W        W29449  21.047  10.048  20.579 -0.2620  0.3273 -0.3522
86538W        W29450  19.382   8.109  20.393  0.1388 -0.0722  0.1016
86539W        W29451  17.578  10.130  21.072 -0.1585 -0.1592  0.0984
86540W        W29452  19.775   9.328  22.739 -0.0584  0.2137  0.1690
86541W        W29453  22.116   8.715  23.118 -0.3587 -0.3040 -0.4576
86542W        W29454  20.825   7.813  21.516  0.0493  0.2884 -0.1343
86543W        W29455  19.477  11.596  20.639  0.1111  0.1297 -0.1910
86544W        W29456  20.805   9.625  22.104  0.1724  0.2226 -0.1773
86545W        W29457  21.012   8.430  23.899 -0.0489 -0.1022 -0.0833
86546W        W29458  17.971   8.784  21.057  0.2406  0.2833  0.0757
86547W        W29459  17.628  11.111  20.336  0.2127  0.1025  0.1270
86548W        W29460  20.369  10.041  21.306 -0.3257  0.0838 -0.3630
86549W        W29461  21.725   9.298  21.151 -0.0254  0.0366  0.2205
86550W        W29462  22.124   8.834  22.581 -0.2333 -0.1496  0.0760
86551W        W29463  19.115  10.234  23.672 -0.0500  0.0479 -0.0410
86552W        W29464  18.604   9.049  19.952 -0.2405  0.1638 -0.0190
86553W        W29465  19.731  10.568  23.172 -0.0455  0.2074  0.3841
86554W        W29466  19.522  10.674  22.712 -0.1920 -0.2339  0.0223
86555W        W29467  19.195   8.030  22.088  0.0689 -0.2373 -0.0481
86556W        W29468  20.350   8.990  21.497  0.1069  0.2390 -0.2392
86557W        W29469  19.127   8.956  19.876  0.0925  0.0908 -0.0286
86558W        W29470  20.173   9.680  22.696  0.1540  0.1908 -0.2623
86559W        W29471  20.730  10.092  23.801  0.2885 -0.2204 -0.0910
86560W        W29472  16.724  10.310  21.826  0.0381 -0.0038 -0.0258
86561W        W29473  22.252   7.413  22.941 -0.4159  0.2009 -0.0210
86562W        W29474  20.038   9.850  20.837 -0.2482 -0.3868  0.2300
86563W        W29475  21.486   8.181  18.369  0.1629 -0.4365  0.1012
86564W        W29476  19.931   7.349  18.210  0.0481 -0.3511 -0.0171
86565W        W29477  22.456   8.050  20.643 -0.2132  0.3709  0.0118
86566W        W29478  21.778   7.569  22.155 -0.0322  0.2879 -0.1395
86567W        W29479  19.866  10.785  21.007  0.1399  0.2186  0.0352
86568W        W29480  20.137   7.845  22.004 -0.1561 -0.1166 -0.0703
86569W        W29481  23.743   8.906  21.974  0.0523 -0.0203  0.0934
86570W        W29482  20.970   6.836  20.953 -0.0877 -0.2722  0.0578
86571W        W29483  21.114   7.990  22.853 -0.1598  0.3803 -0.0547
86572W        W29484  20.157  10.374  21.678  0.2856  0.2894 -0.0548
86573W        W29485  17.640   6.667  21.856 -0.1100 -0.2729  0.0498
86574W        W29486  20.869  10.302  21.117 -0.2245 -0.0800  0.3889
86575W        W29487  21.511  10.071  21.904  0.3012 -0.0464 -0.1834
86576W        W29488  21.229  10.536  18.856 -0.1959 -0.2218 -0.1194
86577W        W29489  18.608   6.668  21.103 -0.2152  0.1077 -0.2963
86578W        W29490  16.364  10.000  23.085  0.0074  0.3986 -0.2021
86579W        W29491  19.861   8.009  21.366  0.0193  0.0192  0.0202
86580W        W29492  20.157   6.637  20.362  0.0875  0.1826  0.0164
86581W        W29493  21.542   9.590  22.889  0.0469  0.1809 -0.0595
86582W        W29494  18.528   9.112  22.066 -0.5631  0.0341  0.2138
86583W        W29495  19.637   7.603  23.523 -0.1822 -0.1189  0.0914
86584W        W29496  19.423   9.443  22.188  0.1397  0.1370  0.1636
86585W        W29497  20.524   8.662  22.371  0.0736  0.0797 -0.0670
86586W        W29498  20.981   9.271  19.038 -0.0662 -0.1137 -0.1219
86587W        W29499  21.831   7.679  22.801 -0.0421 -0.2327 -0.1482
86588W        W29500  22.451   7.130  22.580 -0.1911 -0.0981  0.0329
86589W        W29501  20.670   9.868  20.348 -0.0922  0.1048 -0.3712
86590W        W29502  20.206   8.496  20.209  0.2292  0.2568 -0.6174
86591W        W29503  21.832   8.762  19.793  0.1926 -0.0016  0.0187
86592W        W29504  19.831   9.330  19.639 -0.1189 -0.0468  0.2632
86593W        W29505  19.396  11.176  20.882 -0.2404  0.0471 -0.1211
86594W        W29506  21.563   6.634  23.036 -0.2558 -0.0791  0.2013
86595W        W29507  21.296   9.682  22.337  0.2344  0.1007  0.0476
86596W        W29508  18.942   9.366  18.609  0.0362 -0.1366 -0.3632
86597W        W29509  19.386   9.224  20.423 -0.0174  0.1113 -0.0505
86598W        W29510  19.577   8.924  20.079 -0.1158  0.1375 -0.0842
86599W        W29511  19.361   7.155  23.320  0.1755  0.0819  0.3642
86600W        W29512  17.392   9.775  22.100  0.0052  0.1696  0.1591
86601W        W29513  21.627   7.923  20.226 -0.1488 -0.4828 -0.1821
86602W        W29514  19.214   8.487  22.313  0.1743 -0.0489  0.1963
86603W        W29515  21.330   7.702  21.445  0.3419  0.0408  0.0961
86604W        W29516  19.712   8.452  20.226 -0.0803  0.0782 -0.5714
86605W        W29517  22.873  10.495  21.833 -0.1648  0.0061 -0.6931
86606W        W29518  21.367   8.923  18.171 -0.2404  0.0359 -0.2852
86607W        W29519  20.900   8.973  17.980  0.2093 -0.1217 -0.2179
86608W        W29520  19.187   8.545  21.773  0.1117 -0.0522 -0.3055
86609W        W29521  19.824   7.249  21.168 -0.2286 -0.4295 -0.2678
86610W        W29522  17.319   9.004  23.001  0.0643  0.2494 -0.0927
86611W        W29523  20.645   8.081  20.224 -0.0561 -0.3286 -0.2226
86612W        W29524  20.835   8.391  22.069 -0.4685  0.2753 -0.1196
86613W        W29525  18.333   7.429  21.923  0.1105 -0.1884  0.0827
86614W        W29526  21.132   8.659  21.778 -0.2854  0.1659 -0.1794
86615W        W29527  19.024   8.232  20.723  0.0528  0.0236  0.1783
86616W        W29528  19.677   8.938  20.752 -0.0546 -0.3923  0.0344
86617W        W29529  21.036   7.301  22.286  0.1675 -0.1208  0.3470
86618W        W29530  20.519   8.898  20.564  0.0293  0.2172  0.1277
86619W        W29531  21.401  11.952  23.447  0.0344  0.0732  0.0664
86620W        W29532  21.586  11.379  20.685 -0.3275  0.1310 -0.4255
86621W        W29533  19.793   6.595  22.704 -0.1695 -0.0850  0.1500
86622W        W29534  19.325   7.626  20.257  0.0154 -0.4255  0.0123
86623W        W29535  18.398  11.657  20.943 -0.0267  0.2561 -0.1106
86624W        W29536  19.998   9.432  21.748  0.2123  0.1296  0.1726
86625W        W29537  20.453   8.680  21.047  0.2994  0.2114 -0.1691
86626W        W29538  21.290  10.402  22.286  0.0618  0.0193  0.2118
86627W        W29539  19.712   8.251  20.717 -0.2194  0.0039  0.1440
86628W        W29540  17.866  10.046  23.038  0.1939  0.1349  0.0277
86629W        W29541  21.890   7.122  23.359 -0.1813 -0.3834  0.3097
86630W        W29542  22.566   8.483  22.723  0.0979 -0.0098  0.1410
86631W        W29543  21.320   8.609  21.308  0.0684  0.0092 -0.2362
86632W        W29544  18.040   7.184  19.750  0.1595  0.0141  0.0647
86633W        W29545  22.562  10.334  19.958 -0.1378 -0.1239  0.0808
86634W        W29546  18.273  10.311  20.262  0.3396 -0.0471 -0.0158
86635W        W29547  18.484   9.529  19.733  0.1343  0.2123  0.1365
86636W        W29548  21.613  11.154  21.243  0.0646  0.0358  0.1334
86637W        W29549  22.163   7.562  22.431  0.1714 -0.2478 -0.1794
86638W        W29550  17.811   9.113  21.493  0.1280  0.0256  0.0017
86639W        W29551  19.757   8.532  23.388  0.2292 -0.1597  0.1073
86640W        W29552  17.451   8.442  19.958  0.1375 -0.3398 -0.1138
86641W        W29553  17.610  10.376  21.992  0.1558 -0.1487  0.0025
86642W        W29554  21.429   7.549  20.689 -0.2063  0.1963 -0.2502
86643W        W29555  21.161   7.654  19.533  0.2560  0.4161 -0.3173
86644W        W29556  21.231   9.664  21.806  0.0844 -0.1363 -0.2013
86645W        W29557  22.070   8.819  20.404 -0.1740  0.2615 -0.1062
86646W        W29558  21.975   7.785  19.351 -0.1956  0.1240  0.0376
86647W        W29559  21.537   6.347  18.248  0.0703  0.4242 -0.2345
86648W        W29560  19.820   9.708  23.490 -0.4301 -0.1904 -0.1969
86649W        W29561  20.887   8.854  21.420  0.2441 -0.2111  0.2860
86650W        W29562  20.132   8.860  23.193  0.0942  0.5267  0.1973
86651W        W29563  21.009   7.586  19.085  0.0216  0.0541  0.0033
86652W        W29564  22.595   9.536  21.540  0.1695 -0.0685  0.3267
86653W        W29565  18.979   8.801  21.027 -0.1797 -0.1924  0.0543
86654W        W29566  21.473   8.597  22.199  0.1493  0.1239  0.2166
86655W        W29567  23.011   9.303  21.021 -0.0074  0.0793 -0.0660
86656W        W29568  20.427   7.562  21.703  0.0894 -0.0142 -0.2978
86657W        W29569  18.232   7.710  19.454 -0.1548 -0.0541  0.2418
86658W        W29570  20.609   6.762  20.202 -0.0106 -0.0090  0.0677
86659W        W29571  18.326   9.019  19.522  0.0725  0.0537 -0.0327
86660W        W29572  21.235   8.756  23.048 -0.1443  0.1201 -0.3620
86661W        W29573  20.460   8.233  24.007  0.0054  0.0063 -0.1471
86662W        W29574  20.134   6.257  22.876  0.1353  0.0020  0.0040
86663W        W29575  22.107   8.980  24.030  0.3323 -0.2383 -0.1928
86664W        W29576  21.303   6.938  19.680 -0.2535 -0.1106 -0.0770
86665W        W29577  20.775   8.321  21.479  0.0263 -0.0865 -0.3880
86666W        W29578  21.019   8.924  20.594  0.1336  0.1005 -0.1184
86667W        W29579  18.582   8.757  23.545  0.1637 -0.0641 -0.1103
86668W        W29580  18.704   9.245  22.721 -0.0878 -0.4314  0.0525
86669W        W29581  17.708  10.939  21.895 -0.0514 -0.2155 -0.1158
86670W        W29582  21.772   8.515  22.783  0.0231  0.3123 -0.1254
86671W        W29583  19.908  10.240  21.183 -0.1162  0.0350  0.1533
86672W        W29584  19.684   9.020  23.478  0.0484  0.0834  0.1654
86673W        W29585  19.889   7.945  20.069 -0.1080 -0.0035 -0.2643
86674W        W29586  19.685   9.425  20.094  0.1940 -0.0536  0.0047
86675W        W29587  20.982   9.464  20.651 -0.2062 -0.0439  0.1007
86676W        W29588  20.518   7.904  20.814  0.2864  0.1294 -0.0258
86677W        W29589  19.821  10.748  21.548 -0.0602 -0.0688  0.2430
86678W        W29590  20.281   9.645  18.954 -0.4774  0.1595 -0.1682
86679W        W29591  20.267   9.168  22.787  0.2646  0.0540 -0.0353
86680W        W29592  18.885   9.300  20.577 -0.0678  0.1042 -0.0539
86681W        W29593  22.136   6.019  23.109 -0.1199  0.1233  0.1812
86682W        W29594  19.336   9.939  21.249 -0.1126 -0.1562 -0.0824
86683W        W29595  18.520   7.072  20.077 -0.0545 -0.1800  0.1617
86684W        W29596  18.736   7.780  19.487 -0.2489  0.1313  0.0490
86685W        W29597  20.663   5.949  22.801 -0.3203 -0.0419  0.1098
86686W        W29598  20.875  10.338  20.078 -0.0027  0.1968  0.0581
86687W        W29599  19.935   7.568  20.382  0.0285  0.1534 -0.0484
86688W        W29600  19.113   9.035  22.021  0.0089  0.2795 -0.2962
86689W        W29601  18.170  10.589  21.716  0.1340 -0.0771  0.1866
86690W        W29602  21.028   8.874  22.244 -0.1192 -0.2279 -0.0644
86691W        W29603  21.536   7.612  19.148  0.0662 -0.2430 -0.1860
86692W        W29604  22.005   9.914  23.412 -0.0929  0.0509  0.0691
86693W        W29605  20.725   8.268  22.554 -0.1653  0.1818  0.2697
86694W        W29606  17.901   6.819  20.595 -0.2950  0.1470 -0.0293
86695W        W29607  21.500   8.541  23.838 -0.2398  0.0422  0.1367
86696W        W29608  18.348   7.325  21.375 -0.1970  0.0043  0.5507
86697W        W29609  18.499   9.419  20.271 -0.1439 -0.0776 -0.1150
86698W        W29610  21.155  11.623  22.222 -0.1924 -0.2585  0.1318
86699W        W29611  18.481   8.124  18.654  0.0166  0.0984 -0.1711
86700W        W29612  18.836  10.570  21.112 -0.1407  0.3056 -0.1249
86701W        W29613  19.263   8.101  22.609  0.2453 -0.0903 -0.3629
86702W        W29614  22.763   9.244  21.984 -0.1439 -0.2207  0.2665
86703W        W29615  19.854   8.018  22.402 -0.0561 -0.0048  0.1130
86704W        W29616  20.096   7.133  22.936 -0.0651 -0.0103 -0.2160
86705W        W29617  20.122   8.848  21.919  0.1751  0.1837  0.1079
86706W        W29618  21.777   9.666  22.129  0.3017 -0.1024  0.2312
86707W        W29619  21.193   8.536  22.613 -0.0984 -0.1296  0.1681
86708W        W29620  19.176  10.363  22.595  0.0391  0.3752 -0.0015
86709W        W29621  21.900   7.755  21.737 -0.1055 -0.4034 -0.3050
86710W        W29622  21.506   9.177  20.596  0.1767  0.2278  0.0307
86711W        W29623  20.437   9.165  24.067  0.0569  0.2046 -0.1215
86712W        W29624  19.893   8.699  21.164 -0.2338  0.1459 -0.0233
86713W        W29625  18.597   9.254  21.055 -0.4981  0.0775 -0.0083
86714W        W29626  20.124  10.160  22.118  0.1718 -0.4395  0.1800
86715W        W29627  20.228   7.312  20.799 -0.1521  0.1469  0.1752
86716W        W29628  18.836   9.987  21.758  0.0255  0.0745 -0.2159
86717W        W29629  19.042   9.547  21.321 -0.3402  0.1885  0.1151
86718W        W29630  17.630   9.925  21.639 -0.1038 -0.3919  0.3881
86719W        W29631  21.757   6.701  20.998 -0.1472 -0.0429 -0.1211
86720W        W29632  20.489   8.320  19.351 -0.0025 -0.1950 -0.2511
86721W        W29633  20.596   7.166  21.347 -0.2595  0.5105 -0.0102
86722W        W29634  22.524   7.113  23.361  0.1402 -0.0798  0.0545
86723W        W29635  21.124   8.807  19.321 -0.0464 -0.3318  0.0333
86724W        W29636  21.477   6.251  23.752  0.1513  0.3122  0.2038
86725W        W29637  19.459   6.228  22.006 -0.0199 -0.0524  0.3699
86726W        W29638  20.651  10.368  21.546 -0.1268 -0.2763 -0.1751
86727W        W29639  18.790   8.612  22.110 -0.1800 -0.1292  0.1348
86728W        W29640  21.195   9.908  23.133 -0.2284 -0.1291  0.0918
86729W        W29641  18.070  10.183  23.621  0.2628  0.1769 -0.0633
86730W        W29642  19.992   7.004  19.605 -0.3070 -0.4115  0.0394
86731W        W29643  18.479   7.893  20.565  0.0906 -0.0474  0.1294
86732W        W29644  20.878   7.721  22.543  0.0951 -0.2075  0.2781
86733W        W29645  22.539   8.318  22.144 -0.2885  0.0281  0.0789
86734W        W29646  20.665   9.161  21.007  0.3782 -0.1088  0.1596
86735W        W29647  22.654   9.702  22.079  0.0244 -0.1009 -0.0762
86736W        W29648  18.924   8.909  22.439  0.1229  0.0047 -0.0763
86737W        W29649  21.803   8.612  21.210 -0.2839  0.1146  0.2458
86738W        W29650  20.663   9.280  20.274  0.1485  0.1347  0.0906
86739W        W29651  18.490   9.740  21.374  0.3133  0.0342 -0.0916
86740W        W29652  19.282   7.530  21.879 -0.1359 -0.3438  0.2687
86741W        W29653  22.835   8.867  23.526  0.1401  0.2627  0.1224
86742W        W29654  21.492   7.079  22.115 -0.2595  0.0833 -0.0063
86743W        W29655  21.504   7.286  23.077  0.0211  0.1073 -0.2457
86744W        W29656  21.444   8.307  23.024 -0.0358  0.1010  0.0047
86745W        W29657  19.692   8.641  23.897  0.0296 -0.0721  0.1778
86746W        W29658  17.503   7.316  22.784 -0.0690 -0.1567 -0.1239
86747W        W29659  20.779  10.064  23.318  0.1452 -0.2117  0.2143
86748W        W29660  22.985   9.923  21.716  0.1987 -0.1597  0.0937
86749W        W29661  20.943   8.798  23.485 -0.1100 -0.2689 -0.0586
86750W        W29662  20.776   7.217  20.137 -0.0804  0.1333  0.1260
86751W        W29663  21.599   8.862  20.230 -0.1172  0.2480 -0.1386
86752W        W29664  19.281   8.641  20.510 -0.0882  0.3772  0.1648
86753W        W29665  21.943   9.873  22.893  0.1268 -0.2217  0.4545
86754W        W29666  19.323   7.635  18.671  0.3302 -0.3043  0.0523
86755W        W29667  20.573   7.466  22.213 -0.0616 -0.0683  0.2771
86756W        W29668  20.729  11.569  19.302 -0.1068 -0.0523  0.0185
86757W        W29669  19.875  10.243  22.795  0.0383  0.2623  0.1520
86758W        W29670  20.721   7.482  18.568 -0.1283 -0.1085 -0.2619
86759W        W29671  18.507   6.464  21.561  0.1387  0.1041  0.1353
86760W        W29672  18.988  11.012  21.278 -0.1275 -0.4820  0.0687
86761W        W29673  19.463   7.679  20.736  0.1862  0.0086  0.2541
86762W        W29674  20.487   9.475  21.634  0.1519  0.1578 -0.0083
86763W        W29675  21.716   9.365  21.640  0.3428 -0.0697 -0.0609
86764W        W29676  21.458   9.219  24.279 -0.0425  0.5515  0.0636
86765W        W29677  20.116   8.280  21.001 -0.1697 -0.3709 -0.2920
86766W        W29678  21.837   8.392  23.454  0.0768 -0.2379 -0.1765
86767W        W29679  17.776   9.625  20.825  0.0727 -0.0559  0.0514
86768W        W29680  21.287   6.671  19.227 -0.1505 -0.4312  0.2827
86769W        W29681  18.113   9.262  20.978 -0.0293 -0.0376 -0.1912
86770W        W29682  18.203  10.041  22.497 -0.2018  0.1992 -0.1263
86771W        W29683  18.506  10.151  21.019 -0.0998  0.1566 -0.1151
86772W        W29684  21.046   6.820  23.111  0.1091  0.1172  0.4242
86773W        W29685  21.304   7.698  22.033 -0.1236 -0.0441 -0.0974
86774W        W29686  20.882   8.078  21.087 -0.1881 -0.2090 -0.1317
86775W        W29687  21.200   9.285  23.252 -0.1229 -0.0371  0.0767
86776W        W29688  20.024   8.794  22.481  0.1478  0.0104 -0.0504
86777W        W29689  19.752   8.495  21.680  0.1957 -0.0057 -0.1006
86778W        W29690  19.754   9.795  22.326  0.2501 -0.0392  0.0620
86779W        W29691  22.908   8.542  19.970  0.1768 -0.2353 -0.2873
86780W        W29692  19.313   9.866  21.814 -0.4231 -0.6181  0.0729
86781W        W29693  18.408   8.094  22.748  0.0472  0.0501  0.0895
86782W        W29694  19.750   8.319  22.785 -0.1016  0.1586 -0.0318
86783W        W29695  20.288   9.560  21.167  0.1303  0.1513  0.1046
86784W        W29696  19.952   6.413  19.842 -0.1382 -0.1270  0.1027
86785W        W29697  19.691   9.826  20.335 -0.0903 -0.0045 -0.1111
86786W        W29698  16.727   9.358  24.291 -0.0232 -0.1201  0.1759
86787W        W29699  17.740   9.413  23.766 -0.2444  0.1936 -0.1621
86788W        W29700  19.431  10.626  20.693 -0.1202  0.0774 -0.0740
86789W        W29701  22.436   9.826  19.887 -0.1725  0.3180 -0.0898
86790W        W29702  20.467  10.040  20.784  0.0793  0.1012  0.1035
86791W        W29703  20.756  11.066  21.992  0.0036  0.1514 -0.2227
86792W        W29704  20.794   7.593  21.075  0.1061  0.1204  0.1664
86793W        W29705  18.095   8.577  20.580 -0.2643  0.1831 -0.2401
86794W        W29706  18.591  10.405  19.667 -0.2313 -0.4830 -0.1769
86795W        W29707  21.104  11.124  19.098  0.0153 -0.0579  0.1026
86796W        W29708  18.378   9.638  20.837 -0.1341  0.1794  0.1038
86797W        W29709  20.843  10.762  22.400  0.1171 -0.2962 -0.0004
86798W        W29710  21.623   8.835  19.033 -0.1717 -0.2326 -0.0966
86799W        W29711  22.526   8.579  20.771 -0.3265 -0.0591  0.2068
86800W        W29712  21.172   8.940  19.915 -0.0499  0.0154 -0.4241
86801W        W29713  21.545   8.957  22.559  0.0695 -0.0729 -0.3855
86802W        W29714  19.212   9.055  21.478  0.0425 -0.0577 -0.1958
86803W        W29715  19.393   8.044  18.965 -0.0357 -0.0544 -0.0500
86804W        W29716  17.945   9.544  23.237  0.1071  0.0160 -0.1013
86805W        W29717  21.830   7.207  24.632  0.5047 -0.0071 -0.1291
86806W        W29718  16.815  10.996  23.122  0.0732 -0.3367  0.0263
86807W        W29719  21.514  11.987  20.481 -0.0436  0.0435 -0.0956
86808W        W29720  18.770   7.863  21.162  0.0298 -0.1666  0.2119
86809W        W29721  20.434   8.166  21.843 -0.3280 -0.0007  0.0310
86810W        W29722  21.623   9.119  23.112 -0.2041  0.0688 -0.0067
86811W        W29723  20.356   7.441  19.408  0.1792  0.0992  0.0972
86812W        W29724  22.597   8.836  23.095  0.0147  0.0213 -0.1306
86813W        W29725  20.636  10.855  20.432  0.2409  0.0756  0.1786
86814W        W29726  19.588  10.326  22.289 -0.0612  0.0239 -0.0411
86815W        W29727  19.580  10.346  21.687  0.0848  0.0297  0.0143
86816W        W29728  17.920   7.805  20.360 -0.1695 -0.1272 -0.1701
86817W        W29729  22.339   7.595  20.959  0.0097  0.1934  0.1243
86818W        W29730  21.289   9.110  21.510  0.0777  0.0627 -0.0620
86819W        W29731  22.882   8.323  23.522  0.1576  0.1920  0.0387
86820W        W29732  17.797   8.265  21.106 -0.0214  0.0188 -0.2609
86821W        W29733  22.913   7.370  21.007 -0.1041  0.1406  0.2192
86822W        W29734  20.951   9.394  21.341 -0.0853  0.0640 -0.1009
86823W        W29735  20.184   8.742  23.903  0.2186  0.0144 -0.0613
86824W        W29736  20.950   8.559  20.943  0.3826 -0.1488 -0.0894
86825W        W29737  22.310   8.800  22.111 -0.0236  0.1052 -0.1070
86826W        W29738  19.817   6.391  21.229 -0.3378  0.4661 -0.1508
86827W        W29739  20.291  10.579  22.386 -0.3660  0.1118  0.1567
86828W        W29740  19.759   6.536  20.702 -0.1020 -0.0620 -0.3029
86829W        W29741  20.506   7.078  19.761  0.1283  0.0704 -0.1749
86830W        W29742  18.864   8.760  20.330 -0.2837 -0.2064 -0.2814
86831W        W29743  18.369   9.630  22.274 -0.3866 -0.2392  0.1217
86832W        W29744  21.379   9.232  21.980  0.0305  0.1240  0.0441
86833W        W29745  18.781   6.183  21.284  0.0961  0.1958  0.2564
86834W        W29746  21.138  10.103  19.662 -0.3037  0.3469 -0.1762
86835W        W29747  22.357   8.091  21.216 -0.0826 -0.1236  0.2753
86836W        W29748  20.436  10.786  19.840 -0.1127 -0.1588 -0.1692
86837W        W29749  20.797   7.861  22.003  0.1810 -0.0024 -0.2064
86838W        W29750  21.191  11.047  22.552 -0.2162  0.2706  0.1501
86839W        W29751  17.931   8.308  22.574 -0.0142  0.1212  0.1988
86840W        W29752  20.914   9.224  21.831  0.0987  0.3078  0.0772
86841W        W29753  22.427   9.611  20.914 -0.0780  0.1386 -0.1266
86842W        W29754  21.285   9.007  21.031 -0.2349  0.1932  0.2215
86843W        W29755  20.508   7.586  20.357  0.1367 -0.2977 -0.2700
86844W        W29756  18.037   9.130  20.503  0.0547  0.4401 -0.0715
86845W        W29757  22.315   7.872  22.800 -0.0646  0.1178  0.0773
86846W        W29758  20.746   7.474  23.649  0.1904  0.2079  0.1329
86847W        W29759  19.829   9.660  21.354  0.2232 -0.0072 -0.1524
86848W        W29760  21.781   6.300  23.323 -0.0646 -0.1135  0.1136
86849W        W29761  20.370  11.484  22.834  0.0112  0.0778  0.0156
86850W        W29762  18.841  10.367  23.312 -0.1157 -0.0270 -0.1311
86851W        W29763  21.157   8.159  19.523 -0.1000 -0.1111  0.2770
86852W        W29764  20.467   8.998  23.602  0.1405 -0.3694  0.0670
86853W        W29765  20.189   8.364  22.212 -0.2343 -0.1740 -0.1358
86854W        W29766  18.872   9.718  20.865 -0.1239 -0.0227  0.0107
86855W        W29767  21.213  10.658  21.339  0.3570  0.0836 -0.1067
86856W        W29768  20.322   8.511  21.506 -0.2888  0.1526 -0.1647
86857W        W29769  21.337   9.679  21.266 -0.2679 -0.0851 -0.0576
86858W        W29770  20.400   7.978  21.377 -0.2846  0.0375  0.3476
86859W        W29771  21.803   8.401  20.358  0.3067 -0.0017  0.0937
86860W        W29772  23.254   8.102  20.339  0.3527  0.1718 -0.1024
86861W        W29773  18.958   9.477  21.850  0.1011  0.1561 -0.1250
86862W        W29774  18.936   7.714  20.668  0.1508 -0.0649 -0.0801
86863W        W29775  19.552   8.460  19.705  0.0618  0.0293  0.2016
86864W        W29776  19.707   8.898  22.917 -0.0136 -0.3298  0.0933
86865W        W29777  21.055   7.455  22.908  0.1019  0.1895  0.0174
86866W        W29778  18.874   8.017  21.692 -0.0687  0.1584 -0.1329
86867W        W29779  18.515   8.509  21.065 -0.2173  0.0154  0.2611
86868W        W29780  18.545   6.868  20.515  0.0188 -0.1334  0.0396
86869W        W29781  20.781   9.850  21.490 -0.1850  0.0077  0.0769
86870W        W29782  20.201   8.011  20.451  0.1130  0.2295  0.3206
86871W        W29783  18.692   5.692  21.075  0.1296 -0.0421 -0.1192
86872W        W29784  22.003  10.243  21.916 -0.0783 -0.1637 -0.1507
86873W        W29785  22.103  10.296  19.718  0.0903 -0.1990  0.1429
86874W        W29786  19.968   7.772  20.851  0.3797 -0.1259  0.2240
86875W        W29787  21.860   9.074  22.159  0.2635  0.0496 -0.5886
86876W        W29788  20.097   9.109  20.986  0.0992  0.0014  0.2718
86877W        W29789  20.907   7.795  23.229  0.0673 -0.0032  0.1465
86878W        W29790  19.387   7.185  23.795 -0.3081  0.0126  0.3166
86879W        W29791  18.480   6.051  20.865  0.1755  0.2573 -0.0831
86880W        W29792  20.625   8.838  21.892  0.1634 -0.4238 -0.0146
86881W        W29793  21.183   9.243  20.258 -0.1540  0.1371 -0.0137
86882W        W29794  20.328  10.674  18.710 -0.0425  0.0738  0.4418
86883W        W29795  19.446   9.404  21.666  0.0194 -0.0857 -0.0587
86884W        W29796  20.538  10.003  22.370  0.1737 -0.0259  0.1055
86885W        W29797  18.065   8.104  23.096 -0.2974  0.0816  0.0076
86886W        W29798  20.748   9.182  19.760 -0.2081  0.3327  0.1304
86887W        W29799  19.475   9.008  22.452 -0.0728 -0.1753 -0.1946
86888W        W29800  21.535   9.684  20.691  0.3460  0.1972 -0.1249
86889W        W29801  21.697   8.164  24.054 -0.0884 -0.0622  0.0508
86890W        W29802  19.873   7.611  21.658 -0.3857  0.4203  0.0740
86891W        W29803  19.507   8.119  23.706 -0.1482  0.1592 -0.0178
86892W        W29804  19.245   9.865  22.362  0.0601 -0.4188 -0.1172
86893W        W29805  21.189   8.168  21.830 -0.0659 -0.2801  0.1492
86894W        W29806  19.412   8.658  21.242 -0.2265  0.1782  0.0682
86895W        W29807  19.667   8.024  21.879  0.1946 -0.0801 -0.0116
86896W        W29808  20.747   9.764  21.004 -0.3488  0.2903 -0.0741
86897W        W29809  17.845   7.190  21.919  0.0230  0.3976 -0.0623
86898W        W29810  20.938   7.071  19.309  0.3573 -0.0467 -0.1316
86899W        W29811  20.696   8.772  24.021 -0.0817  0.0027  0.2785
86900W        W29812  19.811   9.132  21.379  0.1676 -0.1755 -0.0050
86901W        W29813  22.169   8.302  22.561 -0.1950  0.0848 -0.1445
86902W        W29814  17.947   7.411  20.912 -0.2574  0.1281 -0.0095
86903W        W29815  22.109   9.181  18.961 -0.1803 -0.1942 -0.0897
86904W        W29816  20.764  11.419  22.514  0.0304 -0.1188  0.1100
86905W        W29817  21.687  10.198  24.362  0.1848 -0.0598 -0.0860
86906W        W29818  20.996  10.081  22.031 -0.2861  0.3690  0.0101
86907W        W29819  21.648   8.088  22.523  0.3292 -0.1923 -0.2716
86908W        W29820  18.866   7.622  24.432  0.0330 -0.0819  0.1173
86909W        W29821  20.618  10.422  22.074  0.1005  0.1649  0.0068
86910W        W29822  18.851   7.496  20.192  0.2572  0.2419 -0.2390
86911W        W29823  22.796   7.444  22.733 -0.0917  0.0709  0.2370
86912W        W29824  19.334   7.901  21.486 -0.0211 -0.2422 -0.1281
86913W        W29825  20.730   7.926  18.813  0.2003  0.0797  0.2818
86914W        W29826  19.954  10.934  23.463  0.0520 -0.3588 -0.3022
86915W        W29827  21.611   8.606  21.737 -0.0371 -0.0688  0.1407
86916W        W29828  20.167  10.018  27.139 -0.0652  0.2379  0.0852
86917W        W29829  20.048   5.571  23.590  0.5736  0.0754 -0.1159
86918W        W29830  21.667   8.796  24.211  0.0361 -0.0732  0.0866
86919W        W29831  21.971   8.380  24.498  0.2798  0.1205 -0.3320
86920W        W29832  19.288   8.441  24.460 -0.0865  0.1549 -0.0094
86921W        W29833  20.612  11.799  23.930 -0.1819  0.1816 -0.0195
86922W        W29834  18.952   6.265  25.875  0.0641 -0.2084  0.1129
86923W        W29835  21.891  10.324  26.185  0.3154 -0.0763  0.1189
86924W        W29836  21.462  10.149  26.460 -0.1386  0.3199 -0.2503
86925W        W29837  20.610   8.655  23.047 -0.1639  0.0910 -0.2291
86926W        W29838  20.465   8.316  26.593  0.3166  0.2402  0.1119
86927W        W29839  19.454  11.082  25.167 -0.1041  0.1753 -0.2755
86928W        W29840  19.363   7.692  23.973 -0.2848 -0.1981  0.1651
86929W        W29841  18.401   5.727  23.606 -0.0088  0.1485 -0.0213
86930W        W29842  20.260   8.785  26.746  0.1123  0.1252 -0.1263
86931W        W29843  18.061   8.524  24.864 -0.0746 -0.3445  0.0148
86932W        W29844  19.690   7.230  26.107 -0.1464 -0.0842 -0.3020
86933W        W29845  19.905   7.606  24.360 -0.1909 -0.1612 -0.3294
86934W        W29846  20.579   9.340  24.523  0.0005  0.1821  0.0982
86935W        W29847  18.844   8.030  26.940 -0.1026 -0.2017 -0.2480
86936W        W29848  20.770   7.884  26.874 -0.1237 -0.2568 -0.1105
86937W        W29849  18.677   9.877  23.806  0.0724 -0.1568 -0.2784
86938W        W29850  18.519   8.321  21.634  0.1134 -0.1312 -0.2992
86939W        W29851  18.290   8.969  24.969 -0.2474  0.0120  0.0646
86940W        W29852  19.785  10.274  25.604 -0.2877 -0.1055  0.1313
86941W        W29853  20.730   7.976  25.103  0.1161 -0.0180 -0.0368
86942W        W29854  21.056   9.345  26.216 -0.1816  0.3468 -0.0544
86943W        W29855  18.846   9.697  24.857  0.2889  0.2156  0.1965
86944W        W29856  22.362   9.715  26.643 -0.1276  0.0708 -0.0129
86945W        W29857  21.485   7.815  27.346  0.1007 -0.0322  0.0419
86946W        W29858  18.352   9.883  23.190 -0.2515  0.3958 -0.0236
86947W        W29859  18.038  10.650  26.797  0.0880 -0.0373 -0.0146
86948W        W29860  19.252   9.433  25.084 -0.1907  0.0582 -0.1553
86949W        W29861  21.209   8.890  24.033 -0.0786 -0.1207  0.2620
86950W        W29862  21.772  10.142  25.300  0.1531 -0.1885  0.1221
86951W        W29863  20.407  11.877  26.610 -0.0368 -0.3125  0.1200
86952W        W29864  18.296  10.360  23.077 -0.0445  0.2735  0.1763
86953W        W29865  19.489   8.507  27.826  0.1627 -0.2060  0.0387
86954W        W29866  19.578   9.961  26.940 -0.1285  0.1101  0.1746
86955W        W29867  19.518   8.069  26.300  0.0310 -0.0517  0.1251
86956W        W29868  19.968   9.993  24.968  0.0419 -0.1576 -0.3312
86957W        W29869  19.704   9.777  22.946  0.0758 -0.0367 -0.1172
86958W        W29870  20.444  10.254  25.505 -0.0471  0.2919 -0.0284
86959W        W29871  18.107  10.425  27.844 -0.0524  0.1376  0.3504
86960W        W29872  20.094  10.483  25.139  0.3374  0.0622  0.0097
86961W        W29873  22.329   7.319  26.572  0.0068  0.2542 -0.3342
86962W        W29874  19.971  10.452  23.708 -0.1371  0.1856 -0.1008
86963W        W29875  23.402   8.323  25.242  0.2445  0.3847 -0.1072
86964W        W29876  19.684   8.037  24.326  0.1120  0.1875  0.3082
86965W        W29877  20.572   7.956  23.617  0.2415  0.0273  0.1016
86966W        W29878  18.956   6.657  25.138  0.0595  0.4841 -0.2362
86967W        W29879  18.525  10.067  25.055  0.2555  0.2429 -0.0132
86968W        W29880  19.332   8.416  25.259  0.2355 -0.0298 -0.2731
86969W        W29881  21.890   9.445  25.750  0.0421  0.2317 -0.0204
86970W        W29882  19.704   9.158  25.026  0.0699 -0.1294  0.1701
86971W        W29883  19.981   8.340  26.124 -0.0376  0.0419  0.0049
86972W        W29884  19.355  12.373  26.034  0.0933 -0.0316 -0.1409
86973W        W29885  19.305   9.004  26.069  0.0605  0.0032 -0.0541
86974W        W29886  21.779  10.417  23.579 -0.4223  0.0638 -0.1001
86975W        W29887  22.128   9.075  25.469  0.1677  0.2476  0.0891
86976W        W29888  20.304   9.940  24.197 -0.0851  0.1876 -0.4090
86977W        W29889  18.889   8.711  24.285  0.0470  0.0920  0.1191
86978W        W29890  19.683  10.553  27.101 -0.2412  0.0979 -0.2929
86979W        W29891  18.661   8.351  27.327  0.1346  0.1045 -0.1893
86980W        W29892  18.355   8.864  24.091 -0.2104 -0.1627 -0.1074
86981W        W29893  22.059   7.777  25.332 -0.3659  0.3340 -0.0173
86982W        W29894  17.624  10.524  26.551 -0.2277  0.0023 -0.0504
86983W        W29895  21.180   8.059  22.340 -0.0818  0.0030 -0.0208
86984W        W29896  20.429   9.378  25.558  0.1978 -0.0970  0.0161
86985W        W29897  21.807   9.518  25.248  0.2760 -0.0714 -0.0585
86986W        W29898  21.110   9.338  22.720  0.2089  0.1205 -0.1113
86987W        W29899  21.892   7.457  26.714 -0.2265  0.2350  0.3431
86988W        W29900  20.101   7.445  25.760  0.4631 -0.0075  0.1001
86989W        W29901  20.062   9.337  23.247 -0.0154 -0.0447  0.0101
86990W        W29902  19.794   8.526  24.409  0.2128  0.0344 -0.1699
86991W        W29903  22.340   9.824  25.206  0.1093 -0.0761  0.1946
86992W        W29904  21.898   9.336  22.672  0.0363 -0.1616 -0.1348
86993W        W29905  17.933   8.428  25.932  0.2465 -0.1969 -0.2501
86994W        W29906  19.895   8.470  26.609 -0.1291  0.1707  0.4422
86995W        W29907  21.376  10.697  28.111  0.3720  0.1205 -0.1065
86996W        W29908  19.508   9.405  23.228  0.0934 -0.0695 -0.3749
86997W        W29909  19.642   9.815  25.801 -0.1590  0.0295  0.3241
86998W        W29910  19.043   8.965  23.156  0.2053 -0.2478 -0.3903
86999W        W29911  17.251   8.084  25.685  0.0222 -0.0175  0.0412
87000W        W29912  19.194   9.123  26.972  0.1463  0.1339  0.1162
87001W        W29913  22.874   5.911  23.848 -0.0408 -0.3909  0.0742
87002W        W29914  18.869   7.025  26.838 -0.1583  0.0788 -0.0906
87003W        W29915  22.439   7.551  25.917 -0.2993 -0.0554 -0.0317
87004W        W29916  18.437   9.235  24.501  0.1041  0.0352  0.2323
87005W        W29917  20.716  11.144  24.645  0.1010 -0.1790 -0.0077
87006W        W29918  22.053   8.191  24.949 -0.0666 -0.0677  0.0574
87007W        W29919  21.923  10.333  22.932 -0.1135  0.0088 -0.0804
87008W        W29920  20.984   8.689  25.655  0.1438  0.3459 -0.1248
87009W        W29921  18.834   8.294  24.681 -0.0845  0.1666 -0.1467
87010W        W29922  18.631   7.621  26.658  0.0778  0.2003  0.1639
87011W        W29923  18.644   7.336  25.206  0.1978  0.3244  0.4185
87012W        W29924  21.412   8.300  25.667  0.1522 -0.2240  0.0736
87013W        W29925  19.145   7.312  24.886  0.1049  0.2288 -0.1168
87014W        W29926  21.839   8.499  25.392  0.0372  0.1154  0.0065
87015W        W29927  17.778   9.004  23.247  0.0864 -0.1098  0.0643
87016W        W29928  18.159   9.211  22.990 -0.1487 -0.2228 -0.2223
87017W        W29929  22.956   8.556  27.029 -0.1733  0.2052  0.1682
87018W        W29930  21.122  11.727  24.525  0.4425 -0.0305 -0.1608
87019W        W29931  21.869  10.234  26.782  0.0986 -0.0714 -0.0846
87020W        W29932  20.715   9.794  24.756 -0.1210  0.2132 -0.0869
87021W        W29933  19.533   8.582  26.137  0.1003 -0.0010 -0.2183
87022W        W29934  19.727   8.512  22.205  0.2412 -0.0812 -0.1545
87023W        W29935  20.262   9.104  27.094 -0.0802  0.0746  0.1576
87024W        W29936  20.751   8.938  26.139 -0.1791 -0.1588 -0.0621
87025W        W29937  19.141   8.839  24.762 -0.3011 -0.3465 -0.0684
87026W        W29938  21.451  11.342  25.421 -0.1744 -0.0965  0.2451
87027W        W29939  18.837   9.217  24.856 -0.0545  0.2480 -0.0721
87028W        W29940  18.346  11.199  26.221  0.0716 -0.4714 -0.0420
87029W        W29941  21.905   6.706  25.844  0.2498  0.0397 -0.0243
87030W        W29942  21.522   9.301  27.037 -0.4756 -0.1682 -0.0476
87031W        W29943  20.053  10.744  25.734 -0.2487 -0.1012 -0.0903
87032W        W29944  18.596   9.420  23.219 -0.0832 -0.2401  0.0056
87033W        W29945  19.902  11.446  25.206  0.1781 -0.0570  0.2049
87034W        W29946  19.813  11.775  23.550  0.0812  0.1089  0.2280
87035W        W29947  18.096   9.024  23.643  0.1097 -0.0175 -0.0986
87036W        W29948  20.177   9.991  23.720  0.3737  0.0118 -0.1515
87037W        W29949  22.669   7.885  25.539 -0.2819 -0.1127  0.1150
87038W        W29950  18.893  10.944  27.515  0.0588 -0.0734  0.1362
87039W        W29951  19.748   9.057  27.865  0.0833 -0.1604  0.0558
87040W        W29952  18.229   9.185  22.480  0.1519 -0.1488  0.1532
87041W        W29953  18.763  10.039  27.123  0.2215 -0.1009  0.2161
87042W        W29954  20.332   7.757  25.383 -0.0628 -0.0912 -0.0309
87043W        W29955  22.925   7.051  25.166 -0.0008 -0.1586 -0.0678
87044W        W29956  20.908   9.545  27.636 -0.3546 -0.1591  0.0614
87045W        W29957  22.034   8.480  23.916  0.0739 -0.0831  0.2379
87046W        W29958  20.325   7.626  23.878 -0.1564  0.0547  0.2661
87047W        W29959  21.120   7.342  23.390  0.1752 -0.0229  0.2766
87048W        W29960  18.423   9.336  28.101  0.0633  0.0431 -0.1806
87049W        W29961  19.799   9.075  24.103 -0.2134  0.0937  0.0201
87050W        W29962  20.171   9.666  24.653  0.0606  0.0914 -0.1787
87051W        W29963  20.606   9.481  22.568 -0.2282  0.2260 -0.2783
87052W        W29964  21.645   8.888  25.695  0.4398 -0.0777  0.1869
87053W        W29965  17.977   9.820  24.386 -0.0682 -0.0940  0.0444
87054W        W29966  21.133  10.291  27.925  0.0522 -0.0812  0.0526
87055W        W29967  21.450  10.969  25.060  0.1343 -0.0484 -0.1442
87056W        W29968  18.766   8.757  26.076 -0.2887 -0.1960  0.1710
87057W        W29969  19.303   8.998  24.128  0.1559 -0.5740  0.0769
87058W        W29970  19.739   6.967  24.347 -0.0311  0.0663 -0.2097
87059W        W29971  19.369  10.644  23.515 -0.3495 -0.1204 -0.0461
87060W        W29972  21.097   8.149  24.721 -0.1691 -0.1570  0.4178
87061W        W29973  21.303   7.756  23.748  0.1690 -0.0040  0.1930
87062W        W29974  20.408   7.045  26.616 -0.2463 -0.1269 -0.1545
87063W        W29975  21.668   8.417  26.940  0.3512  0.0837  0.1596
87064W        W29976  23.693   9.230  25.970  0.2038  0.1065 -0.0800
87065W        W29977  21.341   9.970  26.890 -0.0887  0.0474  0.2087
87066W        W29978  19.568   8.030  23.098 -0.0490  0.1998  0.1513
87067W        W29979  20.379   8.779  27.496  0.3647 -0.0866  0.1628
87068W        W29980  19.825   9.346  26.095 -0.2885  0.2620  0.2390
87069W        W29981  18.399   9.538  25.590  0.0307  0.0206 -0.1828
87070W        W29982  20.939   9.034  25.265  0.2053  0.3508  0.0350
87071W        W29983  20.059   9.537  24.192 -0.0046  0.1275 -0.2053
87072W        W29984  20.967   9.637  25.500  0.1917 -0.2020  0.1155
87073W        W29985  19.767   8.042  24.859  0.1486 -0.0010  0.5747
87074W        W29986  18.547  10.365  23.745 -0.3700  0.1290  0.0096
87075W        W29987  20.017   9.325  23.748 -0.2089 -0.1594  0.2084
87076W        W29988  21.339   8.192  23.497  0.2569  0.2716  0.3079
87077W        W29989  20.625  10.770  25.448 -0.0618  0.0591 -0.0288
87078W        W29990  19.079  10.305  22.115 -0.0514 -0.3846  0.0009
87079W        W29991  20.607   9.569  26.204  0.0438  0.1438  0.1928
87080W        W29992  21.213   9.552  23.946 -0.3209  0.1552 -0.0214
87081W        W29993  21.310   7.155  24.419  0.0750 -0.2217 -0.2827
87082W        W29994  18.952   9.466  25.513 -0.2479  0.1767  0.3704
87083W        W29995  19.310   7.292  24.320  0.0333 -0.0329  0.1407
87084W        W29996  18.003   9.222  24.148 -0.0579 -0.1365 -0.0844
87085W        W29997  22.503   7.408  25.288  0.2217 -0.2098  0.0743
87086W        W29998  21.951   8.883  24.573 -0.1211  0.1674 -0.2521
87087W        W29999  19.234   7.959  24.485  0.1253  0.2055 -0.1657
87088W        W30000  17.922   5.274  25.248  0.3732 -0.1478 -0.0252
87089W        W30001  17.032   9.950  26.744  0.0505 -0.1594  0.0837
87090W        W30002  19.734   8.290  25.644  0.1305 -0.0369 -0.2312
87091W        W30003  21.708   7.328  23.782 -0.1233  0.0387 -0.1214
87092W        W30004  22.340  11.018  26.486  0.0565 -0.2003  0.3148
87093W        W30005  20.144   9.954  26.571  0.2472  0.2602  0.2475
87094W        W30006  17.180   9.054  23.693  0.1298  0.0968 -0.1014
87095W        W30007  23.133   8.522  26.106  0.0371 -0.2159 -0.2338
87096W        W30008  20.607   9.378  25.071  0.4015 -0.0596  0.1755
87097W        W30009  17.813   8.912  25.061  0.1408 -0.3138  0.3309
87098W        W30010  21.383  10.758  27.077  0.3405  0.1422 -0.0407
87099W        W30011  18.585   9.723  22.757  0.4377 -0.0411  0.0096
87100W        W30012  20.940   9.179  25.698 -0.1240  0.1808  0.2121
87101W        W30013  19.104   8.339  26.611  0.0133 -0.0206 -0.0688
87102W        W30014  21.585   8.645  26.411 -0.2868 -0.2903  0.1718
87103W        W30015  19.587   7.415  25.084 -0.0434  0.0809  0.2370
87104W        W30016  18.730   9.340  23.832 -0.1602  0.0399  0.0291
87105W        W30017  20.669  10.576  24.567 -0.0250  0.1422  0.1530
87106W        W30018  20.150   9.782  26.057  0.0425 -0.4240 -0.0288
87107W        W30019  21.728   7.761  25.872  0.0165  0.1978  0.2219
87108W        W30020  19.722  11.033  27.366 -0.0332  0.1331 -0.0967
87109W        W30021  19.451   6.883  25.305 -0.3057 -0.1190  0.1465
87110W        W30022  21.198  10.007  24.121 -0.2755 -0.0637  0.2015
87111W        W30023  20.996   7.943  26.024 -0.1087  0.0622 -0.0043
87112W        W30024  20.484   9.513  23.557  0.0535  0.1098  0.0719
87113W        W30025  19.002   8.991  25.657 -0.1577 -0.0673 -0.0427
87114W        W30026  19.313   9.921  26.418 -0.1355  0.2324  0.0822
87115W        W30027  21.157   7.502  25.863 -0.1282  0.2131  0.1885
87116W        W30028  18.780  10.139  24.583 -0.3707  0.0800  0.2813
87117W        W30029  19.480   9.476  24.244  0.0004 -0.1208 -0.0482
87118W        W30030  18.315  10.681  26.241  0.0380  0.2683 -0.0083
87119W        W30031  22.924   7.905  24.648  0.2510 -0.0421 -0.0222
87120W        W30032  20.640   9.144  23.149  0.0508  0.1652  0.0658
87121W        W30033  19.936   9.423  25.636  0.0112  0.1085 -0.0441
87122W        W30034  23.262   7.600  27.130 -0.1248 -0.0907 -0.0408
87123W        W30035  20.613   8.370  24.794 -0.1089  0.1206 -0.0535
87124W        W30036  22.338   8.302  27.772  0.0154 -0.0016 -0.2052
87125W        W30037  19.721   9.060  26.938 -0.0603  0.0356  0.1204
87126W        W30038  21.077   9.650  24.501  0.2515 -0.0070 -0.0034
87127W        W30039  19.317   8.957  25.290 -0.0892 -0.2748  0.2785
87128W        W30040  21.440  11.659  28.119 -0.3396 -0.1581 -0.0738
87129W        W30041  19.145   9.858  27.389  0.0251 -0.1045  0.0521
87130W        W30042  20.691   8.596  25.258  0.2314 -0.1030 -0.0882
87131W        W30043  19.766   7.132  22.421  0.1297 -0.0809 -0.2253
87132W        W30044  21.411   9.638  26.462 -0.0040 -0.1782  0.1461
87133W        W30045  21.445   9.807  25.527  0.0948  0.1029 -0.0092
87134W        W30046  19.191   9.723  23.839  0.0025 -0.0436 -0.7195
87135W        W30047  21.236   8.912  26.019  0.0884 -0.0937 -0.1297
87136W        W30048  19.777   8.663  25.323 -0.2214  0.2102  0.1988
87137W        W30049  20.549   9.864  25.215 -0.0537  0.7625  0.0420
87138W        W30050  20.350  10.431  24.128 -0.2728  0.0207 -0.3025
87139W        W30051  20.472   8.743  25.700  0.1123 -0.1739  0.1904
87140W        W30052  19.449   7.966  26.822  0.3515  0.0051  0.1428
87141W        W30053  19.202   9.879  25.444 -0.0157  0.2480 -0.0833
87142W        W30054  22.035   7.205  24.163  0.1860 -0.2083 -0.2950
87143W        W30055  20.172   8.008  25.737  0.1100  0.1416  0.1486
87144W        W30056  21.278   7.557  27.722 -0.0219 -0.3524  0.0485
87145W        W30057  19.966   9.573  27.006  0.1081 -0.2385  0.0253
87146W        W30058  18.230   7.130  27.842 -0.2122  0.1256 -0.0708
87147W        W30059  21.913   9.850  26.456  0.2495 -0.1005  0.0904
87148W        W30060  20.920   8.721  24.454  0.3537 -0.2327  0.3005
87149W        W30061  21.780   6.965  25.408 -0.2752 -0.0337 -0.0368
87150W        W30062  22.990   7.643  25.146  0.1337 -0.0159 -0.0737
87151W        W30063  21.226   7.790  25.047 -0.1374 -0.1424 -0.1073
87152W        W30064  19.627   8.530  24.873 -0.2019  0.2195  0.0337
87153W        W30065  22.155   8.319  26.908  0.2698 -0.2048 -0.2778
87154W        W30066  18.849   9.502  22.315  0.1167 -0.1695  0.1816
87155W        W30067  20.030   7.708  26.201 -0.0263 -0.0635 -0.0159
87156W        W30068  20.802   9.610  23.053  0.2800 -0.2062  0.1635
87157W        W30069  21.594   8.519  24.888  0.0888 -0.2744 -0.0655
87158W        W30070  21.490   8.969  24.740  0.1637  0.0438  0.0508
87159W        W30071  19.146   8.262  26.047 -0.0837  0.2724  0.3529
87160W        W30072  19.826  10.844  26.715  0.0384 -0.0750 -0.1235
87161W        W30073  19.224   8.345  23.347  0.2243 -0.1134 -0.1070
87162W        W30074  20.411   8.644  24.418  0.1420  0.2475 -0.0328
87163W        W30075  20.469   9.598  26.766 -0.0640  0.1216  0.2155
87164W        W30076  21.838  10.598  27.496 -0.1080 -0.0219  0.1279
87165W        W30077  20.101   7.670  24.879  0.1309 -0.0780 -0.0325
87166W        W30078  22.463   8.097  26.607 -0.0496  0.4344  0.1261
87167W        W30079  19.232   9.332  22.754 -0.3289 -0.2681  0.0243
87168W        W30080  22.322   7.101  24.634 -0.0697 -0.4272  0.2113
87169W        W30081  19.259   9.502  25.934  0.2880 -0.1709 -0.3736
87170W        W30082  20.157   9.385  26.494 -0.0545  0.2636 -0.1111
87171W        W30083  19.747   9.735  26.433 -0.0777  0.2035 -0.2424
87172W        W30084  20.486   7.277  25.521  0.1650  0.0003 -0.0897
87173W        W30085  21.425   7.383  24.872  0.4406 -0.0971 -0.2710
87174W        W30086  19.978   8.954  26.366 -0.0651  0.0168 -0.1516
87175W        W30087  22.975   7.896  27.642  0.2182  0.3556 -0.2217
87176W        W30088  20.592  10.059  26.259  0.0430 -0.2170 -0.1369
87177W        W30089  19.479   8.700  25.696  0.0668  0.1189  0.0746
87178W        W30090  21.412   9.382  25.882 -0.0288 -0.1352  0.2532
87179W        W30091  22.491   9.224  25.142  0.0250  0.1336  0.4419
87180W        W30092  20.397   8.598  26.207 -0.0495  0.0834  0.0904
87181W        W30093  20.285   8.021  27.051  0.4134  0.0864  0.2754
87182W        W30094  20.901  10.751  27.968  0.0365 -0.1173  0.0483
87183W        W30095  20.179   8.378  25.390 -0.0420  0.1758  0.2134
87184W        W30096  18.709   8.190  23.562  0.0167 -0.1096 -0.0087
87185W        W30097  20.779   8.985  22.633  0.0653 -0.1400 -0.0939
87186W        W30098  19.070   8.883  27.453 -0.0354  0.0879  0.1039
87187W        W30099  17.681   9.216  27.143 -0.0627  0.1336 -0.3951
87188W        W30100  17.740  10.163  25.078  0.1713  0.0378  0.1818
87189W        W30101  21.536   9.449  24.851  0.1807 -0.1027 -0.0703
87190W        W30102  21.834   9.414  23.856 -0.3470 -0.0342  0.2341
87191W        W30103  19.588  11.256  26.353  0.1512  0.1098  0.4080
87192W        W30104  20.832   6.944  25.086  0.1039 -0.2112 -0.1636
87193W        W30105  20.271  10.236  24.629 -0.0868 -0.0274  0.2228
87194W        W30106  17.849  10.605  23.078 -0.1041  0.1839  0.2246
87195W        W30107  18.748  10.248  22.829  0.0775  0.3659 -0.3944
87196W        W30108  19.354   9.992  24.308 -0.0860 -0.0714 -0.0008
87197W        W30109  20.762   8.841  27.166 -0.0169 -0.0668 -0.3605
87198W        W30110  22.548   5.540  24.528 -0.3188  0.2729  0.2126
87199W        W30111  20.806   8.264  24.372 -0.0679 -0.0115 -0.0647
87200W        W30112  22.356   6.490  24.680 -0.0189  0.1449  0.0605
87201W        W30113  21.517  11.151  26.824 -0.2354 -0.1909  0.0540
87202W        W30114  20.612   7.817  24.522  0.1991 -0.0117 -0.3627
87203W        W30115  20.471   8.116  23.147 -0.0490  0.0397 -0.0639
87204W        W30116  18.590   8.916  27.235  0.3064 -0.0776 -0.0940
87205W        W30117  21.642   5.236  26.893  0.2850 -0.1380 -0.2421
87206W        W30118  17.640  10.628  27.928 -0.0090 -0.3718  0.0356
87207W        W30119  21.989  11.309  24.478  0.2070 -0.0077 -0.2631
87208W        W30120  17.881   7.570  24.521  0.3787 -0.2708 -0.2355
87209W        W30121  19.515   9.369  23.768 -0.1015  0.4384  0.0481
87210W        W30122  22.891   6.065  26.310  0.3627  0.0700 -0.1150
87211W        W30123  20.117   9.088  24.689 -0.1636  0.2150  0.1058
87212W        W30124  20.215   8.195  24.508 -0.0387  0.1638  0.0978
87213W        W30125  18.999  10.197  25.030  0.2750 -0.0746 -0.0966
87214W        W30126  17.906   9.333  24.687 -0.1246  0.2460  0.0336
87215W        W30127  21.158  10.697  25.658  0.3613 -0.1745 -0.0324
87216W        W30128  18.639   6.922  24.875  0.0321  0.0204 -0.0924
87217W        W30129  22.798   6.567  26.350 -0.0901  0.0263  0.0806
87218W        W30130  20.705   8.352  27.032  0.0209 -0.0529  0.1218
87219W        W30131  22.091   7.309  25.084  0.0176 -0.2941 -0.0573
87220W        W30132  19.321   8.583  22.795 -0.1295  0.2597 -0.2949
87221W        W30133  21.557   8.114  25.159  0.1562 -0.0193  0.0863
87222W        W30134  21.220   9.018  26.555  0.0551 -0.2221 -0.2851
87223W        W30135  19.690   7.822  25.842  0.0825  0.2291 -0.0429
87224W        W30136  20.930   8.331  23.179  0.2524  0.2440  0.2728
87225W        W30137  21.206   8.242  27.117  0.0323  0.1541 -0.0616
87226W        W30138  20.162   8.928  25.270 -0.0342 -0.1429  0.0815
87227W        W30139  21.132  10.370  26.849  0.2194  0.0109  0.1425
87228W        W30140  18.937   7.168  23.931 -0.2958  0.0177 -0.1612
87229W        W30141  21.220   7.706  24.532  0.2039 -0.0080 -0.0755
87230W        W30142  19.580   8.991  24.547  0.0296  0.0655  0.0230
87231W        W30143  20.330   9.656  27.482  0.1489 -0.1226  0.0988
87232W        W30144  21.005  10.075  25.226  0.0874 -0.0514  0.3320
87233W        W30145  19.599   7.356  25.640 -0.0971 -0.0125 -0.1652
87234W        W30146  21.479  10.325  23.202  0.0151 -0.1523  0.0539
87235W        W30147  20.460   8.163  27.515  0.2044  0.1774 -0.0892
87236W        W30148  20.664   9.644  24.050  0.2799  0.2157 -0.4154
87237W        W30149  21.852   8.871  23.533  0.3583  0.2454 -0.3481
87238W        W30150  20.981  11.148  25.482 -0.1659  0.0161  0.0699
87239W        W30151  18.448   7.927  24.731 -0.2366 -0.0262 -0.1723
87240W        W30152  21.173  12.266  25.335 -0.1457 -0.1543  0.1745
87241W        W30153  22.176  10.574  26.572  0.1621  0.0454  0.0241
87242W        W30154  19.911   7.264  23.956  0.0326  0.1844 -0.0676
87243W        W30155  20.126   8.562  24.879 -0.0436  0.0852 -0.1001
87244W        W30156  19.046   9.442  26.434 -0.0181 -0.4141  0.2375
87245W        W30157  22.433   8.418  25.277 -0.3119  0.1792  0.1905
87246W        W30158  20.918   7.665  26.424  0.1358 -0.1471 -0.1617
87247W        W30159  20.366   9.804  23.177  0.1138 -0.1452  0.1204
87248W        W30160  22.321   7.637  26.960 -0.0242 -0.1278 -0.1079
87249W        W30161  20.282  10.482  26.488  0.4104 -0.1315 -0.0364
87250W        W30162  20.053  11.075  26.157 -0.1571  0.0627 -0.0174
87251W        W30163  19.211   9.421  24.602  0.0213 -0.1905  0.0149
87252W        W30164  20.600  10.267  26.784  0.1896 -0.1157 -0.1359
87253W        W30165  20.555   9.818  25.750 -0.3204 -0.0064 -0.1364
87254W        W30166  20.961   9.205  24.264 -0.0452  0.2570  0.2883
87255W        W30167  21.122  10.873  24.675  0.0248 -0.0612 -0.1303
87256W        W30168  20.781   7.854  24.029 -0.0554  0.0680  0.3686
87257W        W30169  21.810   8.985  25.097  0.1244 -0.0358  0.2222
87258W        W30170  19.952   8.089  23.935  0.1441 -0.2079 -0.2159
87259W        W30171  23.205   6.598  25.119 -0.0956  0.0189  0.1549
87260W        W30172  21.623   7.559  24.256  0.0617 -0.2219  0.2246
87261W        W30173  18.771   9.698  27.773 -0.3229  0.0789  0.0770
87262W        W30174  17.721   8.128  23.615 -0.1803 -0.2459 -0.4570
87263W        W30175  19.218   9.916  22.846  0.0837 -0.4369 -0.0722
87264W        W30176  19.545   9.191  26.500 -0.1271  0.2756 -0.0650
87265W        W30177  19.969   6.772  26.474 -0.4386 -0.1121  0.3662
87266W        W30178  20.301   9.186  26.008 -0.0870 -0.1817  0.0549
87267W        W30179  17.619   8.951  24.373 -0.0643 -0.1052 -0.0080
87268W        W30180  17.677   8.890  23.822 -0.0118 -0.2515 -0.3181
87269W        W30181  21.486   9.157  23.660 -0.2718 -0.1071  0.1362
87270W        W30182  19.015   8.485  25.637  0.1466  0.0718  0.0220
87271W        W30183  18.194   7.459  25.604  0.0712  0.1782  0.0662
87272W        W30184  19.860  10.673  24.348  0.2136 -0.0914 -0.0105
87273W        W30185  21.439  10.427  23.931  0.0234 -0.0288 -0.1262
87274W        W30186  19.328   7.825  25.011 -0.2148  0.1944 -0.0917
87275W        W30187  20.493  10.787  27.553 -0.0708 -0.0966  0.1423
87276W        W30188  19.617   9.874  23.942 -0.1654  0.1265  0.1782
87277W        W30189  19.094   9.682  26.960 -0.5194  0.0788 -0.0869
87278W        W30190  19.910   9.197  27.416  0.2218  0.0714  0.1275
87279W        W30191  18.150   8.650  23.024  0.4183  0.0298  0.1338
87280W        W30192  19.609   9.734  25.228 -0.2035 -0.1039 -0.2157
87281W        W30193  21.105   8.653  24.878 -0.0589  0.1934 -0.0914
87282W        W30194  22.912   9.776  23.759  0.3134 -0.1152  0.2921
87283W        W30195  19.433  10.604  25.849  0.1554  0.1046 -0.0255
87284W        W30196  20.937   9.819  26.621 -0.2265  0.2313  0.1159
87285W        W30197  18.385   7.649  27.707  0.0202  0.1118 -0.1000
87286W        W30198  20.585   8.898  24.853  0.0540  0.1349  0.0485
87287W        W30199  18.378   9.835  26.833 -0.0793  0.0715 -0.1728
87288W        W30200  22.088   9.325  24.363  0.0495 -0.2563 -0.0878
87289W        W30201  21.773   4.467  26.309 -0.0895 -0.4558 -0.0296
87290W        W30202  20.865   9.219  23.766 -0.1239  0.0775 -0.1838
87291W        W30203  20.568   7.486  27.095 -0.0754  0.1214 -0.3883
87292W        W30204  18.627  10.345  28.039  0.0014 -0.0783 -0.0176
87293W        W30205  22.218   8.744  25.011 -0.3926  0.1209  0.0859
87294W        W30206  18.768   6.955  25.534  0.0704 -0.1931 -0.0873
87295W        W30207  21.076   7.895  25.543  0.0308  0.1214  0.1506
87296W        W30208  19.510  10.243  25.163 -0.1183  0.1453 -0.0279
87297W        W30209  18.943   8.618  27.053 -0.1504  0.2454 -0.1472
87298W        W30210  21.796   7.867  23.617  0.3230 -0.0004 -0.1824
87299W        W30211  21.126   8.290  25.260 -0.0742 -0.0381 -0.1144
87300W        W30212  21.085   9.861  26.165 -0.1618  0.0341 -0.0634
87301W        W30213  21.827   9.773  26.964 -0.2614 -0.1103 -0.1523
87302W        W30214  18.838   8.729  25.153  0.0609  0.2088  0.2350
87303W        W30215  23.091   9.215  25.361 -0.1004  0.1046  0.0553
87304W        W30216  20.962  10.985  27.527  0.2481  0.0986  0.0523
87305W        W30217  20.979   9.911  28.196 -0.0999 -0.1970 -0.0772
87306W        W30218  20.190  10.322  25.942 -0.2646  0.0369 -0.0123
87307W        W30219  21.086  10.123  25.738  0.3975  0.2501 -0.0124
87308W        W30220  18.438   8.389  26.035 -0.0860  0.0868  0.0591
87309W        W30221  19.073   9.339  23.454 -0.0605  0.0606 -0.0356
87310W        W30222  19.812   9.993  24.500  0.1712 -0.0245 -0.0534
87311W        W30223  21.782   7.736  24.919  0.1047  0.0191 -0.1630
87312W        W30224  19.445   5.889  25.720  0.2272 -0.1139 -0.0553
87313W        W30225  21.978   6.803  24.897  0.1561 -0.2103 -0.2020
87314W        W30226  19.348  10.462  26.307  0.0503  0.2650  0.2235
87315W        W30227  21.370   8.760  25.285  0.0770  0.0254  0.0451
87316W        W30228  18.369  10.441  30.445 -0.1677  0.2208  0.0630
87317W        W30229  18.648   9.191  27.676  0.0621 -0.2603  0.1268
87318W        W30230  21.873   9.745  27.508 -0.2178  0.4046  0.2368
87319W        W30231  22.982   8.255  28.595 -0.3057  0.2135  0.3346
87320W        W30232  20.913   7.470  28.342 -0.1819  0.0576  0.1381
87321W        W30233  21.535   9.312  28.608  0.0597 -0.0992 -0.1594
87322W        W30234  19.863   7.334  29.003 -0.1456 -0.0798  0.2906
87323W        W30235  20.353  10.595  29.212  0.0830 -0.0542  0.1615
87324W        W30236  21.312   9.743  30.075 -0.1544  0.1592 -0.0432
87325W        W30237  20.225  10.508  27.176 -0.0554 -0.1484 -0.2755
87326W        W30238  20.161   9.468  31.135 -0.2907  0.0523  0.1085
87327W        W30239  18.837  10.294  30.697 -0.2029  0.1398  0.0232
87328W        W30240  21.257   6.475  26.520  0.0864 -0.1958  0.0900
87329W        W30241  19.086   7.378  28.734 -0.3899 -0.1287 -0.1447
87330W        W30242  20.360   9.993  30.260 -0.0760 -0.0092  0.0249
87331W        W30243  18.594   9.543  28.555  0.0120  0.1090 -0.2885
87332W        W30244  18.767   7.913  29.513 -0.1106  0.1988 -0.0611
87333W        W30245  20.449   8.514  27.972  0.1261 -0.3535 -0.1550
87334W        W30246  19.721   9.666  28.510 -0.2712 -0.0654  0.1231
87335W        W30247  21.311   7.906  30.022 -0.0136  0.2593 -0.3458
87336W        W30248  20.104   8.160  30.961 -0.0734  0.0688  0.2243
87337W        W30249  20.009   9.280  28.864 -0.1772 -0.0026 -0.3071
87338W        W30250  18.631   9.382  26.733  0.0462 -0.1466 -0.0175
87339W        W30251  18.240  10.283   0.031  0.1706  0.0883 -0.0467
87340W        W30252  20.169   8.998  30.251 -0.1137 -0.1049  0.2478
87341W        W30253  22.918   7.129  28.935 -0.0963 -0.3493 -0.3921
87342W        W30254  22.536   8.330  28.329  0.1170 -0.1678 -0.2444
87343W        W30255  19.548  11.168  28.929 -0.0188  0.1588 -0.3377
87344W        W30256  19.805  11.367  29.868  0.2425  0.1330 -0.4208
87345W        W30257  20.651   9.100  30.466 -0.3454  0.0224 -0.3740
87346W        W30258  17.379  10.891  29.098 -0.0183 -0.2432 -0.0436
87347W        W30259  19.739  11.750  28.993 -0.0523  0.2263  0.0188
87348W        W30260  20.003  10.302  28.285  0.0157  0.0347  0.1907
87349W        W30261  21.780  10.360  29.475 -0.0782  0.2508  0.1681
87350W        W30262  20.373   8.740  31.339 -0.1785  0.0016  0.1926
87351W        W30263  20.001   9.381   0.186  0.0516  0.0580 -0.0382
87352W        W30264  19.263  10.900  26.542 -0.1468 -0.1269  0.1357
87353W        W30265  18.761  10.981  31.255  0.1285 -0.1983 -0.0729
87354W        W30266  19.257  11.681  31.289  0.0573  0.1148 -0.1565
87355W        W30267  21.005   9.145  28.971  0.3818 -0.1439  0.3366
87356W        W30268  20.472  10.101  29.205  0.0871 -0.0486  0.2550
87357W        W30269  18.990   9.978  28.789 -0.0896  0.0058  0.3124
87358W        W30270  19.457  12.313  28.145  0.0648  0.0300 -0.3067
87359W        W30271  19.162  10.343  30.279  0.0258 -0.0187  0.0950
87360W        W30272  19.434  11.896  27.836  0.1759  0.1558  0.4292
87361W        W30273  22.315   6.846  31.489 -0.2962 -0.1485 -0.1832
87362W        W30274  19.000  10.676  27.936 -0.1960  0.0729  0.4712
87363W        W30275  21.311   9.825  27.797 -0.1649  0.1658  0.1264
87364W        W30276  17.800   8.919  27.560 -0.1157  0.0477  0.3803
87365W        W30277  21.573  10.280  27.183 -0.1515  0.0651 -0.3286
87366W        W30278  19.981   7.623  29.729  0.0066  0.1536 -0.4718
87367W        W30279  19.543  10.444  29.995  0.3424 -0.1398 -0.0219
87368W        W30280  22.389   7.940  30.518  0.2192  0.0101  0.1189
87369W        W30281  19.542  10.021  29.566 -0.2291  0.3779 -0.2455
87370W        W30282  19.144  10.342  26.782 -0.0734  0.1272  0.0287
87371W        W30283  20.530   9.223  28.744  0.1039 -0.0325 -0.2218
87372W        W30284  18.142   9.889  29.596  0.2199  0.0824 -0.0734
87373W        W30285  18.976  10.112  29.299  0.1669 -0.0297 -0.1877
87374W        W30286  21.748  11.139  27.309 -0.0140 -0.0840 -0.1344
87375W        W30287  20.686  10.446  28.859  0.0729 -0.2089  0.2699
87376W        W30288  20.636   9.374  27.225  0.1281 -0.1992  0.2379
87377W        W30289  18.826  10.400  27.450  0.0223  0.0255 -0.1444
87378W        W30290  19.860   9.105  30.627  0.0835  0.0405  0.0789
87379W        W30291  18.076   8.370  30.795  0.0486  0.1245 -0.0927
87380W        W30292  19.267   6.830  26.126  0.1570 -0.1247 -0.0183
87381W        W30293  21.405   8.600  31.471  0.2244 -0.0671  0.1709
87382W        W30294  17.877   9.731  29.979 -0.0693 -0.2997 -0.3320
87383W        W30295  21.358   7.833  29.419 -0.5160  0.1254  0.1592
87384W        W30296  19.364   9.285  30.266 -0.0912 -0.2045 -0.1049
87385W        W30297  20.542   9.598  30.476  0.0006  0.2457  0.2197
87386W        W30298  21.796   9.266  26.396 -0.0072  0.0642  0.2755
87387W        W30299  21.219   6.894  29.234 -0.0529  0.2003  0.2346
87388W        W30300  20.434   7.707  31.614  0.0150 -0.0983 -0.4359
87389W        W30301  20.901  10.526  27.282 -0.1726 -0.0955  0.1689
87390W        W30302  19.666  10.091  27.585  0.0960  0.1208 -0.1151
87391W        W30303  21.044   9.815  31.004  0.0518  0.2277  0.1617
87392W        W30304  21.030   9.372  26.826  0.0272 -0.1203  0.1711
87393W        W30305  17.388  11.421  30.844 -0.1749 -0.1121 -0.0844
87394W        W30306  19.297   7.837  30.301 -0.1456  0.1720  0.1553
87395W        W30307  19.963  10.030  30.657 -0.3710  0.1416  0.0506
87396W        W30308  18.459  10.843  27.789  0.1308 -0.3009 -0.0289
87397W        W30309  17.138  10.415  29.226 -0.2199  0.0460 -0.1558
87398W        W30310  19.904   9.943  28.014 -0.1744 -0.0006 -0.0489
87399W        W30311  18.370   7.514  29.435  0.1725 -0.0737  0.0234
87400W        W30312  18.574  10.085  29.697  0.1712  0.1061  0.0137
87401W        W30313  21.463   7.243  27.096  0.0207 -0.3430  0.0849
87402W        W30314  18.396   8.795  30.762 -0.0993 -0.2000  0.0518
87403W        W30315  22.427   6.402  27.235 -0.1061  0.1555 -0.0195
87404W        W30316  19.875  10.650  29.068 -0.2010 -0.1963  0.2375
87405W        W30317  21.552  10.525  28.595 -0.0684  0.1194 -0.0562
87406W        W30318  21.335   8.697  28.090 -0.0871 -0.0551  0.0982
87407W        W30319  21.348   9.500  28.232  0.1178  0.2655 -0.1862
87408W        W30320  18.585   9.356  30.700  0.0985 -0.1855  0.3305
87409W        W30321  18.523   9.790  29.014 -0.0611  0.0363  0.0454
87410W        W30322  17.256   8.709  31.954 -0.2569 -0.0555 -0.0736
87411W        W30323  18.472   7.014  28.487 -0.1969  0.1615  0.1554
87412W        W30324  20.994   8.174  29.610  0.1588  0.2792 -0.2222
87413W        W30325  20.906   8.523  30.535 -0.0898  0.0571  0.1990
87414W        W30326  21.656   8.871  27.148  0.2412  0.0094  0.3297
87415W        W30327  19.177   8.897  27.954 -0.2634  0.3710  0.0922
87416W        W30328  18.818  10.615  29.433  0.1355 -0.1924  0.1025
87417W        W30329  22.195   7.558  30.338  0.0978  0.0325 -0.1837
87418W        W30330  20.701   9.950  28.655  0.0128 -0.3059  0.1395
87419W        W30331  21.073  10.355  30.834  0.1531 -0.1167  0.0197
87420W        W30332  20.463  11.709  27.967  0.3995  0.0097  0.0451
87421W        W30333  18.889   8.251  30.336 -0.1279 -0.0097  0.2463
87422W        W30334  20.027   6.885  27.751  0.0403 -0.0806 -0.0159
87423W        W30335  19.726  12.062  29.400 -0.3312 -0.1439  0.1999
87424W        W30336  20.194  10.419  28.755 -0.0657  0.1055  0.2539
87425W        W30337  21.168   8.564  26.777 -0.0262 -0.1220  0.0873
87426W        W30338  20.468  12.058  27.618 -0.1893  0.2507  0.4005
87427W        W30339  19.756  10.992  27.979 -0.1988 -0.0790 -0.2012
87428W        W30340  17.557   8.911  31.307 -0.2878  0.0720  0.0932
87429W        W30341  20.839   7.644  29.174 -0.1183 -0.0030 -0.0858
87430W        W30342  22.012   9.927  31.047 -0.2142  0.0152  0.5144
87431W        W30343  21.928   9.008  28.663 -0.5487  0.0796  0.0463
87432W        W30344  19.991   6.610  28.363 -0.0799 -0.1113 -0.2409
87433W        W30345  21.133  11.706  28.573  0.0105 -0.1661 -0.0691
87434W        W30346  18.530  11.383  28.717  0.5077  0.2910 -0.0534
87435W        W30347  19.244   7.932  29.343 -0.0678 -0.3362 -0.1020
87436W        W30348  19.068  11.201  26.880 -0.1941 -0.0518  0.2799
87437W        W30349  22.649   6.823  29.464 -0.1392 -0.0374  0.5110
87438W        W30350  19.435   7.581  31.130 -0.1162 -0.2485 -0.1986
87439W        W30351  21.836   7.672  29.976 -0.1344  0.3250  0.0074
87440W        W30352  20.180   8.132  28.452  0.0619  0.3964 -0.2100
87441W        W30353  19.366   9.294  31.023 -0.0403  0.0074 -0.3895
87442W        W30354  21.196   7.358  29.371 -0.2009 -0.1884 -0.2290
87443W        W30355  21.920   7.547  27.393 -0.2028  0.1012  0.3700
87444W        W30356  21.192   7.977  30.497 -0.0258  0.0676  0.2063
87445W        W30357  21.711   9.184  29.073  0.2213 -0.2782 -0.1002
87446W        W30358  20.920   8.525  26.287 -0.0110  0.0495 -0.0496
87447W        W30359  19.986   8.677  27.219  0.3270 -0.1603  0.1155
87448W        W30360  20.274   9.791  31.593  0.0977 -0.3276  0.0576
87449W        W30361  20.239   9.874  28.506  0.1037 -0.1457 -0.0631
87450W        W30362  21.775  10.512  30.278  0.1114 -0.0113  0.1231
87451W        W30363  19.799   9.649  27.511  0.1523 -0.0994  0.0065
87452W        W30364  21.136   9.478  29.630 -0.1534  0.0569  0.0534
87453W        W30365  18.376   9.743  30.113 -0.0565 -0.2254 -0.2511
87454W        W30366  18.517   9.884  30.599  0.0541 -0.0697 -0.0745
87455W        W30367  20.456  10.298  28.359 -0.0248 -0.5383 -0.2075
87456W        W30368  19.960   6.940  30.557 -0.0565 -0.1532 -0.2340
87457W        W30369  19.946   7.666  27.046  0.1757  0.1437  0.3278
87458W        W30370  19.678   9.625  29.279 -0.2784 -0.1256  0.1946
87459W        W30371  18.805   9.934  28.195 -0.0761  0.1682 -0.2661
87460W        W30372  21.211   8.458  28.521  0.1323  0.2825 -0.1254
87461W        W30373  20.759   8.182  29.155  0.0978 -0.0199 -0.0933
87462W        W30374  20.410   7.296  29.715 -0.1885  0.1988  0.0108
87463W        W30375  23.126   8.379  31.326  0.2194  0.2248 -0.5201
87464W        W30376  19.710   8.049  27.959 -0.0772 -0.1010 -0.1409
87465W        W30377  20.088   9.241  28.394  0.2651 -0.4522  0.0526
87466W        W30378  19.466   9.445  27.181 -0.0680  0.2170 -0.2858
87467W        W30379  19.484   8.332  29.777 -0.0055 -0.1053 -0.0171
87468W        W30380  18.324   9.673  30.994  0.1552 -0.6169 -0.1671
87469W        W30381  18.318  11.234  30.986  0.0859 -0.1634  0.0883
87470W        W30382  20.616  10.685  30.964 -0.0959 -0.4134 -0.0452
87471W        W30383  20.485   9.530  28.270 -0.5686  0.0695 -0.0453
87472W        W30384  20.920   8.051  30.931  0.1527  0.2006  0.0996
87473W        W30385  21.210   7.290  28.868 -0.4603 -0.0938  0.2664
87474W        W30386  19.596  10.460  28.021 -0.0393  0.1950 -0.0214
87475W        W30387  20.197  11.009  27.147 -0.0959  0.1820 -0.0571
87476W        W30388  20.680   7.184  30.092 -0.2862  0.1099 -0.1700
87477W        W30389  19.366   9.809  30.013  0.1360  0.3158 -0.2974
87478W        W30390  20.213  11.162  26.631  0.3313  0.0205  0.2411
87479W        W30391  20.270   9.249  29.286 -0.2304 -0.1550  0.2655
87480W        W30392  19.136   9.195  28.512  0.3247 -0.1213  0.0146
87481W        W30393  22.503   5.647  29.799 -0.0158  0.0871  0.1078
87482W        W30394  17.586  10.998  28.636  0.0511  0.1997  0.0713
87483W        W30395  19.604   7.597  26.490 -0.3096 -0.0353 -0.0664
87484W        W30396  18.151   8.536  28.991 -0.0948  0.0103 -0.0913
87485W        W30397  21.666   6.779  29.491 -0.3451 -0.1204  0.0401
87486W        W30398  21.099   9.222  27.302 -0.3800  0.0319 -0.0237
87487W        W30399  18.693   7.845  30.586 -0.2569 -0.1054  0.0426
87488W        W30400  21.145   7.225  30.368 -0.2084 -0.3062  0.6267
87489W        W30401  17.551  10.122  31.056 -0.1818  0.2269 -0.2294
87490W        W30402  20.928   9.961  29.575 -0.1197  0.1089  0.1673
87491W        W30403  22.402   9.148  28.032 -0.1105  0.1090 -0.1044
87492W        W30404  19.429  10.000  29.072  0.0609 -0.2221  0.0412
87493W        W30405  18.863   8.984  30.878  0.2156  0.0413 -0.1699
87494W        W30406  18.922   8.519  27.802  0.4031 -0.1426  0.3655
87495W        W30407  22.011   8.624  30.580 -0.1883  0.1053  0.2308
87496W        W30408  21.387   8.818  28.849  0.2027 -0.0734 -0.0588
87497W        W30409  19.351  10.770  30.389  0.3604  0.1061  0.0940
87498W        W30410  19.851  10.643  29.606  0.0771 -0.0507  0.0882
87499W        W30411  19.141  10.175  27.896  0.0275 -0.1048 -0.1811
87500W        W30412  19.622  10.936  29.991  0.2670  0.0820  0.1271
87501W        W30413  18.507   9.020  31.698  0.0200 -0.1919  0.1398
87502W        W30414  21.728   8.031  29.192  0.0385 -0.1736 -0.0261
87503W        W30415  20.745   8.773  30.103  0.0869 -0.0916 -0.0330
87504W        W30416  19.606   7.225  29.519  0.1626  0.3082 -0.0622
87505W        W30417  19.429   9.505  28.864  0.2017  0.2254 -0.2012
87506W        W30418  21.966   7.897  29.565 -0.2435 -0.0484 -0.0375
87507W        W30419  20.559   8.460  30.970 -0.1234 -0.1671  0.0736
87508W        W30420  19.785  10.533  30.515 -0.0655  0.1477  0.1882
87509W        W30421  20.488   7.880  28.859  0.1752  0.0501 -0.1429
87510W        W30422  20.997  10.107  29.086  0.3389  0.0445 -0.1325
87511W        W30423  19.746   8.676  30.242  0.0867 -0.0410 -0.2892
87512W        W30424  19.161   9.650  28.389  0.1083 -0.2735 -0.0162
87513W        W30425  17.852  11.214  30.019 -0.1210  0.0948 -0.3015
87514W        W30426  17.939   9.062  28.769  0.0593  0.0335 -0.0225
87515W        W30427  20.025   8.047  30.459  0.4255 -0.0151  0.1494
87516W        W30428  18.924   9.735  29.788 -0.1544 -0.0624  0.2918
87517W        W30429  20.946   9.784  27.088  0.0442 -0.0001 -0.1897
87518W        W30430  17.949  10.188  30.537 -0.1290 -0.0791 -0.1233
87519W        W30431  21.363   7.238  28.134  0.2006  0.3266  0.4755
87520W        W30432  20.622   9.098  26.652  0.2356  0.0145  0.0159
87521W        W30433  20.562   9.895  27.875 -0.3476  0.1598  0.0280
87522W        W30434  21.689   7.085  30.261 -0.2174  0.0774 -0.2389
87523W        W30435  20.094   9.437  27.903 -0.2729 -0.0510  0.4103
87524W        W30436  21.735   8.657  31.016  0.3118  0.1484 -0.2249
87525W        W30437  20.505   7.910  29.608  0.1109 -0.5618 -0.1041
87526W        W30438  20.863   8.850  27.734 -0.0455  0.3032  0.1415
87527W        W30439  19.187   8.816  30.159  0.2295  0.4599  0.2902
87528W        W30440  20.085  10.416  31.950  0.2509  0.0649  0.2561
87529W        W30441  19.302   8.938  30.601 -0.2437 -0.1493 -0.0543
87530W        W30442  21.703   9.030  28.148  0.4740 -0.0678 -0.2416
87531W        W30443  19.391   7.831  27.291  0.0750 -0.0333 -0.0409
87532W        W30444  19.538   9.581  30.631 -0.1393 -0.0166  0.1416
87533W        W30445  21.143   8.966  30.379  0.2148 -0.1769  0.0359
87534W        W30446  19.526  10.119  28.366  0.2912 -0.0942  0.0199
87535W        W30447  21.619   7.257  28.572  0.1772 -0.0025  0.3067
87536W        W30448  17.557   9.393  30.562  0.0295 -0.1136  0.0002
87537W        W30449  21.967   9.285  27.834 -0.0560 -0.3122  0.0361
87538W        W30450  21.008   9.240  28.008 -0.0632  0.0100 -0.1629
87539W        W30451  19.157   9.656  29.352  0.2853  0.0636  0.1084
87540W        W30452  20.257   6.978  30.114  0.1633 -0.0132 -0.2223
87541W        W30453  21.316   9.951  28.633 -0.0839  0.1378  0.1670
87542W        W30454  20.136   8.625  29.969  0.3851 -0.1961  0.0473
87543W        W30455  21.052   8.316  30.072 -0.1139 -0.0119 -0.0888
87544W        W30456  21.200   8.713  31.871  0.1292 -0.2766  0.1282
87545W        W30457  19.907   9.186  29.891  0.2370 -0.1752  0.1029
87546W        W30458  18.601   8.331  30.843  0.1210 -0.0860 -0.2737
87547W        W30459  21.526  10.806  29.861  0.0741 -0.0155  0.2516
87548W        W30460  21.084   7.592  27.099  0.0126  0.3331  0.2799
87549W        W30461  20.573   8.206  30.069  0.1916  0.3497 -0.0490
87550W        W30462  21.828   8.554  28.977  0.0253 -0.0059 -0.1409
87551W        W30463  21.103  10.105  27.472  0.0557 -0.4111 -0.2446
87552W        W30464  18.832   8.287  29.045 -0.0107  0.0674 -0.1734
87553W        W30465  20.840   8.016  31.607 -0.2473 -0.0715 -0.0966
87554W        W30466  20.218   7.880  27.928  0.3026 -0.3216 -0.0340
87555W        W30467  21.184   7.149  31.242  0.1062  0.0094  0.0799
87556W        W30468  20.735  10.416  29.478 -0.0533  0.1489 -0.0528
87557W        W30469  21.428   9.883  29.474  0.0199  0.2103 -0.1493
87558W        W30470  21.434   7.784  26.805 -0.0131  0.0134 -0.2818
87559W        W30471  18.516   8.940  29.315 -0.1014 -0.4897  0.1691
87560W        W30472  19.067  11.149  30.408 -0.0728 -0.1315  0.1419
87561W        W30473  19.047   7.097  27.322  0.2656 -0.1898 -0.1862
87562W        W30474  19.526   8.827  27.343 -0.1716  0.1933  0.0174
87563W        W30475  19.460   9.775  27.897  0.2176 -0.0894  0.1705
87564W        W30476  21.320   9.015  31.008  0.0966  0.1012 -0.1869
87565W        W30477  19.865   7.930  27.460 -0.0806 -0.1726 -0.0555
87566W        W30478  20.804   6.903  29.690 -0.1709 -0.2783  0.2069
87567W        W30479  19.323  10.910  28.278 -0.2889  0.0824 -0.1455
87568W        W30480  20.796   7.179  29.216  0.3561 -0.0565 -0.4440
87569W        W30481  22.111  10.508  29.854  0.1427 -0.1601  0.0599
87570W        W30482  17.736  10.181  29.673 -0.0432 -0.0316 -0.0239
87571W        W30483  20.216  11.986  28.926 -0.0878  0.1188 -0.0844
87572W        W30484  19.847   9.061  31.139 -0.2125  0.4225 -0.2478
87573W        W30485  21.692   7.059  29.028  0.0406 -0.4241  0.0014
87574W        W30486  19.577   9.108  29.352 -0.0371 -0.1883  0.1042
87575W        W30487  20.361   9.076  30.868 -0.1676 -0.0443 -0.1048
87576W        W30488  19.855  10.112  28.842  0.0520 -0.1727 -0.1227
87577W        W30489  18.035   9.260  30.754  0.0545 -0.0816 -0.1494
87578W        W30490  20.875   9.243  29.998 -0.1941 -0.1689 -0.0282
87579W        W30491  22.202   8.981  29.091  0.1346  0.2222  0.1791
87580W        W30492  20.112  11.094  29.254 -0.0504  0.3370 -0.0477
87581W        W30493  17.956   8.867  30.447  0.0973  0.1813 -0.1349
87582W        W30494  20.047   8.667  30.751 -0.0260  0.2108 -0.3018
87583W        W30495  20.515  10.777  28.469 -0.2688  0.1887 -0.0968
87584W        W30496  20.156  10.147  27.672  0.1092  0.3086  0.0147
87585W        W30497  19.418  10.657  27.568 -0.2609 -0.1787 -0.0921
87586W        W30498  18.534  11.122  30.561  0.1879  0.3392 -0.2193
87587W        W30499  20.554   8.934  31.822  0.1217  0.0765  0.1275
87588W        W30500  19.022  10.408  28.417 -0.1222 -0.0552  0.2749
87589W        W30501  22.450   9.632  29.212 -0.1470 -0.0530 -0.2517
87590W        W30502  20.188   8.795  28.518  0.0788  0.0182  0.1593
87591W        W30503  20.045  12.020  28.486  0.2916 -0.0085 -0.3124
87592W        W30504  20.983   7.897  27.451 -0.2277 -0.0857 -0.1018
87593W        W30505  19.213  11.151  31.252  0.0517 -0.4415  0.1525
87594W        W30506  19.774  10.334  26.591  0.0551 -0.3458 -0.2409
87595W        W30507  21.503  10.156  29.058  0.2457  0.1755 -0.1610
87596W        W30508  20.042  10.959  28.616  0.0909 -0.0286  0.1666
87597W        W30509  22.933   9.375  29.730 -0.1907 -0.4543 -0.0016
87598W        W30510  21.487   7.809  26.279  0.0842  0.0018  0.0426
87599W        W30511  22.821   8.899  29.556 -0.1340  0.1694 -0.1208
87600W        W30512  21.583   6.794  26.806 -0.2583 -0.1240 -0.2169
87601W        W30513  20.765   9.722  29.988 -0.0415  0.1024  0.3741
87602W        W30514  19.589   8.818  29.795  0.1748 -0.1907  0.2395
87603W        W30515  19.415   9.307  28.112  0.2267 -0.1472 -0.0033
87604W        W30516  19.539   9.207  31.512  0.0241  0.1946 -0.1253
87605W        W30517  21.980   7.190  31.639  0.2024 -0.2859  0.2811
87606W        W30518  18.460  10.624  31.705  0.1017  0.0052 -0.0182
87607W        W30519  20.688   9.634  29.080 -0.1250 -0.2623 -0.1469
87608W        W30520  19.214   9.301  27.649  0.1457 -0.1542 -0.0257
87609W        W30521  18.969   9.417  28.927  0.1560  0.0496 -0.1680
87610W        W30522  22.078   7.303  28.726  0.1144  0.1494  0.0159
87611W        W30523  20.636  10.100  27.310 -0.1965  0.1023  0.0772
87612W        W30524  19.958  10.635  27.624  0.6939 -0.2091  0.1601
87613W        W30525  19.347  11.561  28.669 -0.0903 -0.2518 -0.1484
87614W        W30526  19.685  10.594  28.507 -0.0188 -0.2999 -0.0028
87615W        W30527  18.718  10.173  30.209 -0.0709  0.1725 -0.0403
87616W        W30528  17.704   8.351  28.967  0.3469  0.0817 -0.1446
87617W        W30529  22.738   8.732  28.184  0.2283 -0.0718  0.3779
87618W        W30530  19.483   8.576  29.341 -0.0412  0.1442 -0.0198
87619W        W30531  22.144   8.970  30.892 -0.0656 -0.0402  0.0136
87620W        W30532  18.839   9.069  30.385 -0.0080  0.0858  0.5785
87621W        W30533  21.161   9.011  28.466 -0.0227 -0.2034  0.0101
87622W        W30534  20.380   9.010  29.731  0.0847  0.0629 -0.2600
87623W        W30535  19.965   8.212  29.691  0.1287  0.0911 -0.3717
87624W        W30536  21.514  10.146  28.212 -0.0049  0.0129 -0.2298
87625W        W30537  20.710   9.409  30.932  0.1155 -0.0610 -0.0561
87626W        W30538  21.353  11.405  27.632  0.0732  0.0485  0.1006
87627W        W30539  20.532  11.450  31.666 -0.0500 -0.2486 -0.2474
87628W        W30540  17.908   9.411  28.305  0.2467  0.2487 -0.0358
87629W        W30541  20.719   8.050  28.090  0.0884 -0.0584  0.1501
87630W        W30542  17.899  10.013  29.191 -0.1594  0.0376  0.0830
87631W        W30543  19.346   8.763  31.107 -0.2108 -0.4184  0.3169
87632W        W30544  20.964  10.359  31.951 -0.0391 -0.0460 -0.0019
87633W        W30545  18.352   8.560  30.351 -0.4121  0.1435  0.0603
87634W        W30546  21.659  10.169  27.734  0.3302  0.0041  0.1834
87635W        W30547  20.594   8.541  29.661  0.0317 -0.1187  0.1538
87636W        W30548  18.911  12.618  27.318  0.0443  0.1130 -0.1370
87637W        W30549  21.833   9.042  30.111  0.0236 -0.2696 -0.3293
87638W        W30550  20.413  11.705  28.439 -0.1733 -0.1393  0.0428
87639W        W30551  19.043   9.389  30.655  0.1675 -0.0112  0.0819
87640W        W30552  20.299   9.517  30.062 -0.1811 -0.1057 -0.1948
87641W        W30553  21.380   8.994  29.363  0.0947 -0.2374 -0.0389
87642W        W30554  20.659   9.000  28.270  0.1261  0.0855  0.5585
87643W        W30555  19.843   8.794  28.914 -0.1313 -0.0360  0.4120
87644W        W30556  18.125   9.641  28.721 -0.1362 -0.0158  0.0813
87645W        W30557  20.877   7.535  29.715 -0.3918 -0.0520 -0.2909
87646W        W30558  21.992   8.189  30.779 -0.0106 -0.1232  0.1156
87647W        W30559  20.181  11.207  27.646 -0.1457  0.0408  0.0980
87648W        W30560  21.636   9.004  30.652  0.4426 -0.0501 -0.0876
87649W        W30561  21.071   9.435  30.478  0.0336  0.0435 -0.1001
87650W        W30562  18.032   9.728  30.497  0.2088  0.2713 -0.2979
87651W        W30563  19.427   8.597  26.857 -0.2126  0.1361 -0.1579
87652W        W30564  20.927   9.750  31.825  0.5398  0.0609  0.0396
87653W        W30565  20.616   9.545  29.572  0.3977 -0.0199  0.1300
87654W        W30566  20.536   9.226  27.740  0.0380  0.0263 -0.2266
87655W        W30567  22.072   9.496  29.506  0.2155 -0.1416 -0.0255
87656W        W30568  21.455   8.430  29.377  0.1082 -0.1553 -0.1152
87657W        W30569  20.926  10.817  29.247 -0.1016 -0.2501  0.2683
87658W        W30570  20.480   8.834  29.237  0.2186  0.3743 -0.0416
87659W        W30571  22.357   6.944  28.352 -0.1008  0.2966  0.1469
87660W        W30572  20.989   6.663  28.166  0.1226 -0.0067  0.0564
87661W        W30573  18.301   9.267  30.280 -0.0579  0.0303 -0.0626
87662W        W30574  19.291   8.363  27.409  0.2119  0.1720 -0.0530
87663W        W30575  17.804   9.910  28.042 -0.0693  0.0895 -0.0092
87664W        W30576  19.030  10.789  29.888 -0.0760 -0.1147  0.1188
87665W        W30577  19.962   4.878   1.730 -0.2416  0.0305 -0.0187
87666W        W30578  18.090   8.233  31.849  0.3708  0.0259 -0.1764
87667W        W30579  19.089  10.193  29.776  0.1911 -0.2855  0.0464
87668W        W30580  19.052   8.744  28.397 -0.0305  0.1472  0.0451
87669W        W30581  21.146   8.670  29.727 -0.0018 -0.0981 -0.1858
87670W        W30582  19.816   9.714  30.108 -0.1048  0.0700 -0.1056
87671W        W30583  19.300   8.323  31.355  0.0403  0.1951  0.1671
87672W        W30584  20.834   9.058  29.552  0.0084  0.3155 -0.2659
87673W        W30585  20.137   9.752  29.016 -0.3030 -0.0097 -0.0392
87674W        W30586  19.251   7.995  27.794  0.0075  0.2656 -0.0694
87675W        W30587  21.468   9.734  31.323 -0.0992 -0.0989 -0.0650
87676W        W30588  19.301  10.698  28.810  0.0768  0.0280  0.0469
87677W        W30589  20.733   6.903  31.144 -0.0978  0.0014 -0.1414
87678W        W30590  20.133   7.544  30.600 -0.0824 -0.0544  0.0914
87679W        W30591  18.885   7.888  27.456 -0.1877 -0.0829  0.1023
87680W        W30592  20.453  10.013  29.720  0.1661  0.0786 -0.3336
87681W        W30593  21.011  10.955  28.474 -0.3187  0.0736 -0.3192
87682W        W30594  21.760   9.775  28.018  0.0172 -0.3558  0.1860
87683W        W30595  20.680  10.220  31.226  0.1564  0.2902 -0.1979
87684W        W30596  20.571  10.226  31.756  0.2784 -0.1317 -0.0186
87685W        W30597  18.228   7.274  29.942  0.1728 -0.1501  0.1535
87686W        W30598  20.800   8.672  28.698  0.3441 -0.2027  0.2863
87687W        W30599  19.444   9.121   1.312 -0.1700 -0.1227  0.1763
87688W        W30600  22.497  10.107  29.280 -0.0782 -0.0658  0.0256
87689W        W30601  22.194   8.311  29.200  0.0385  0.0132  0.2633
87690W        W30602  21.985   8.825  26.621 -0.1426 -0.0033  0.1973
87691W        W30603  18.995   6.944  30.474 -0.1073 -0.1929  0.1104
87692W        W30604  19.170   8.979   0.240 -0.1241  0.1535 -0.0922
87693W        W30605  21.190   8.499  30.982 -0.1837  0.0140 -0.3280
87694W        W30606  18.749   7.986  27.963  0.0002 -0.0530 -0.0715
87695W        W30607  21.235   8.706  27.382  0.0139  0.0173 -0.0007
87696W        W30608  20.175   8.946  28.011 -0.3590  0.0077  0.0465
87697W        W30609  18.124  10.524  29.542  0.2596  0.2468  0.1304
87698W        W30610  20.339   8.464  28.824 -0.0360 -0.2346  0.1116
87699W        W30611  20.028   9.720  29.632  0.0596 -0.0102 -0.6076
87700W        W30612  20.966  10.462  28.431 -0.3024  0.6146 -0.0030
87701W        W30613  22.125   8.450  31.229  0.0963  0.3979 -0.0697
87702W        W30614  19.072   7.829  26.463 -0.1961  0.0694 -0.2021
87703W        W30615  23.194   8.971  28.154  0.0050  0.1624 -0.1041
87704W        W30616  20.051   9.544  30.517 -0.3076 -0.2087  0.0210
87705W        W30617  22.154  10.756   1.758 -0.2561 -0.0596  0.1320
87706W        W30618  19.508  10.069  30.416 -0.1932  0.0023  0.0977
87707W        W30619  21.013   9.520  28.626 -0.0045 -0.0853  0.0703
87708W        W30620  17.893   7.737  29.776 -0.1188 -0.0041 -0.2726
87709W        W30621  19.994   8.474  27.645  0.2399  0.1097 -0.1351
87710W        W30622  19.188  10.998  29.288 -0.1954 -0.0831  0.0828
87711W        W30623  21.697   8.547  28.477  0.0810 -0.1460 -0.0853
87712W        W30624  20.428   8.574  30.383  0.0821  0.1620  0.2194
87713W        W30625  21.407   8.281  27.601 -0.1157  0.1001  0.2593
87714W        W30626  19.685  10.589  31.544  0.1963  0.2756  0.0436
87715W        W30627  21.271  10.359  29.477  0.0652 -0.0564  0.1142
87716W        W30628  22.327   7.934  31.032 -0.2808 -0.2288  0.2402
87717W        W30629  19.668   9.040   0.030  0.2142 -0.1143  0.2372
87718W        W30630  18.750   9.472  31.125 -0.2764 -0.3240 -0.0657
87719W        W30631  17.780   9.693  30.951 -0.0544 -0.3113 -0.2943
87720W        W30632  19.753   9.022   0.513  0.0009  0.1342 -0.1336
87721W        W30633  19.233  11.326   1.549 -0.0775 -0.0736 -0.0051
87722W        W30634  20.809   8.430  31.404 -0.0289 -0.1037  0.3678
87723W        W30635  17.551   8.349   0.177  0.0402  0.1981 -0.0408
87724W        W30636  21.013   9.215  31.838 -0.1640 -0.3901  0.2402
87725W        W30637  21.914   9.809   0.093 -0.2211 -0.1811  0.0666
87726W        W30638  21.503   8.141   0.706 -0.3217 -0.0829 -0.0648
87727W        W30639  19.698   7.015  31.226 -0.1633  0.0402 -0.0914
87728W        W30640  20.850   8.904  30.931  0.0417 -0.1004 -0.3418
87729W        W30641  18.397   8.601  31.210  0.1807 -0.1066  0.0216
87730W        W30642  21.281   6.642  31.581 -0.1392  0.1060  0.0669
87731W        W30643  18.689  10.475  31.251 -0.0131  0.2966 -0.0447
87732W        W30644  18.675   9.998  31.107  0.0875  0.0468 -0.0394
87733W        W30645  21.563   9.462  30.417 -0.2567  0.0694  0.1683
87734W        W30646  20.597   3.793  31.355 -0.1320  0.1163  0.2336
87735W        W30647  18.650   7.804  31.718 -0.1970 -0.0555 -0.1780
87736W        W30648  18.912   8.625  31.367 -0.3720 -0.3521  0.0831
87737W        W30649  18.165  10.843  30.237 -0.3957 -0.0258 -0.1789
87738W        W30650  21.483   7.219  30.785 -0.0168  0.0700 -0.2266
87739W        W30651  21.259   7.685  30.876 -0.1482  0.1700  0.5445
87740W        W30652  20.849   7.629  30.440  0.2219 -0.2490 -0.0590
87741W        W30653  20.799   6.086  31.555  0.3825 -0.0010  0.1944
87742W        W30654  18.624   8.939   0.221  0.0207 -0.3122  0.0961
87743W        W30655  18.641  11.015   0.127 -0.0228 -0.3453  0.0070
87744W        W30656  19.046   9.160  31.376  0.0714  0.0125 -0.0218
87745W        W30657  19.706   8.176   0.583 -0.0551 -0.1645 -0.0811
87746W        W30658  18.973   9.177   1.635 -0.2036 -0.1550  0.0255
87747W        W30659  19.282   9.249   0.825  0.3261  0.1394 -0.4644
87748W        W30660  21.649   8.476  30.018  0.4474 -0.1310  0.4870
87749W        W30661  20.617   8.093  30.543  0.2085  0.3922  0.1200
87750W        W30662  18.759   8.077  31.311 -0.1917 -0.0295 -0.1507
87751W        W30663  18.443  10.069  31.524  0.0733 -0.1065  0.0831
87752W        W30664  18.320   9.552  31.517 -0.0658  0.0096  0.2636
87753W        W30665  21.067   9.363  31.363 -0.1277 -0.1701  0.0803
87754W        W30666  20.495   7.812  30.969  0.0208 -0.0561  0.0438
87755W        W30667  19.503   7.895   0.190 -0.0713 -0.0751  0.0072
87756W        W30668  21.297   7.958  31.306  0.3233  0.2541 -0.3917
87757W        W30669  19.663   8.007  31.167 -0.0249 -0.2553 -0.2334
87758W        W30670  19.685   7.722  30.570 -0.0982 -0.1073 -0.0344
87759W        W30671  20.467   9.466   0.001 -0.2517 -0.2783 -0.0869
87760W        W30672  20.862   7.623  31.272 -0.0024  0.0921  0.1860
87761W        W30673  19.896   8.519  31.257 -0.3290 -0.0691 -0.0473
87762W        W30674  19.615   8.409  30.772  0.0525  0.3678 -0.1974
87763W        W30675  20.894   8.572   0.410  0.0069 -0.1128  0.2968
87764W        W30676  20.860   7.598  31.944 -0.3457  0.2103  0.1201
87765W        W30677  17.374  10.603  31.805 -0.0406  0.1952 -0.1667
87766W        W30678  20.722   9.073   0.348  0.2242 -0.2172 -0.1233
87767W        W30679  22.874   9.059  30.975  0.2506  0.2765  0.0186
87768W        W30680  20.108   8.657  31.741  0.1706  0.1094 -0.0518
87769W        W30681  19.499   9.389  29.737 -0.1515 -0.2597  0.0246
87770W        W30682  19.580   8.700  31.637  0.0398  0.0371  0.1973
87771W        W30683  20.320   8.063  31.899  0.0095 -0.3214  0.0272
87772W        W30684  21.271  10.741   0.046 -0.1389  0.0683  0.1446
87773W        W30685  20.157   8.885   0.174 -0.1865  0.0735  0.1698
87774W        W30686  20.168   8.044   0.429 -0.1203  0.2570 -0.0070
87775W        W30687  18.134   7.719   0.697  0.1656 -0.1505  0.1932
87776W        W30688  18.863   7.582  30.166  0.2223 -0.0850 -0.2348
87777W        W30689  19.085   9.834  30.505  0.1343 -0.2345 -0.2881
87778W        W30690  17.594   9.641  31.881 -0.0239 -0.1498 -0.0515
87779W        W30691  17.320   6.165   0.595 -0.3204 -0.0207  0.2389
87780W        W30692  21.493   9.473  31.963  0.3068 -0.1239  0.0533
87781W        W30693  21.765   8.250  31.710 -0.1326 -0.0582  0.0873
87782W        W30694  20.820   8.038   0.172 -0.0214 -0.0462 -0.2019
87783W        W30695  19.571  12.921  18.387 -0.1194  0.1307 -0.3293
87784W        W30696  18.274  12.555  16.390 -0.0251  0.0888 -0.2959
87785W        W30697  21.134  10.779  17.122 -0.2158  0.4303  0.2241
87786W        W30698  21.913  13.100  15.519 -0.0276  0.2393 -0.1323
87787W        W30699  17.969  11.218  15.524 -0.3265  0.1926 -0.2148
87788W        W30700  20.781  14.064  16.700 -0.1454 -0.2585  0.0001
87789W        W30701  17.626  12.455  16.334 -0.1551  0.1033 -0.3154
87790W        W30702  20.339  13.886  16.699 -0.0373 -0.0414 -0.3045
87791W        W30703  21.178  12.793  17.035 -0.0509  0.1321  0.1426
87792W        W30704  20.324  12.488  15.305  0.0397 -0.2189  0.1784
87793W        W30705  20.141  11.376  18.839  0.4718  0.1382  0.0468
87794W        W30706  20.102  13.553  18.117  0.2723  0.0915  0.1638
87795W        W30707  19.015   9.954  16.389 -0.2362  0.1317 -0.1231
87796W        W30708  18.534  10.848  16.804  0.0921  0.0408  0.1290
87797W        W30709  21.044  11.828  18.384 -0.0830  0.2094  0.1711
87798W        W30710  19.770  12.066  16.155  0.2800  0.1979 -0.1135
87799W        W30711  20.318  11.151  18.376  0.1442  0.2858  0.2231
87800W        W30712  19.549  11.817  15.389  0.0193  0.0961 -0.2068
87801W        W30713  20.134  14.759  16.177 -0.2574 -0.1571 -0.0865
87802W        W30714  19.797  10.642  18.568  0.0841  0.3717  0.2583
87803W        W30715  21.070  10.729  18.421 -0.0020 -0.0600 -0.3548
87804W        W30716  20.647  15.275  16.009  0.1968  0.2331 -0.2775
87805W        W30717  18.374  11.724  16.184  0.1626  0.1131  0.2017
87806W        W30718  19.414  11.193  17.305 -0.3636  0.3738  0.0780
87807W        W30719  19.553  12.048  18.576  0.0040 -0.0002 -0.1475
87808W        W30720  20.694  11.652  17.780 -0.1482 -0.2063  0.0421
87809W        W30721  21.534  11.688  18.230  0.0059  0.2286  0.0719
87810W        W30722  19.477  13.176  15.842 -0.1727  0.1473  0.3098
87811W        W30723  20.615  14.730  16.533  0.0876 -0.1221 -0.0088
87812W        W30724  20.442  11.659  18.289 -0.2183  0.1758 -0.3167
87813W        W30725  17.043  12.016  17.336  0.2707  0.1976  0.0211
87814W        W30726  18.058  15.122  14.973  0.2596 -0.0165 -0.0456
87815W        W30727  20.643  14.182  17.579 -0.0056 -0.1420 -0.0206
87816W        W30728  21.994  14.193  16.234  0.1227 -0.0898  0.2723
87817W        W30729  22.070  12.185  17.674 -0.1718 -0.3593 -0.2953
87818W        W30730  20.798  13.817  18.805 -0.1178 -0.0424  0.3893
87819W        W30731  17.749  13.370  15.605  0.1680 -0.1725  0.1310
87820W        W30732  21.427  14.188  19.021 -0.0225  0.0155 -0.0264
87821W        W30733  20.735  13.940  19.554  0.0938  0.0749  0.1059
87822W        W30734  21.381  13.120  17.919 -0.3019 -0.2535  0.4444
87823W        W30735  20.359  12.400  17.558  0.0602 -0.1453  0.0131
87824W        W30736  18.690  14.560  16.323  0.0500  0.0240 -0.0749
87825W        W30737  21.545  12.866  17.463  0.0466  0.0465 -0.1786
87826W        W30738  20.125  13.052  19.741 -0.0739  0.1408  0.0074
87827W        W30739  19.985  13.074  16.204 -0.0244  0.0087 -0.1666
87828W        W30740  22.704  10.950  19.065  0.1066 -0.1870  0.1058
87829W        W30741  19.302  13.807  16.364  0.0576 -0.1620  0.4575
87830W        W30742  21.368  13.214  15.714  0.1921  0.2485  0.2613
87831W        W30743  19.226  11.670  17.105  0.0254  0.1156 -0.0349
87832W        W30744  21.136  12.813  15.536 -0.1504  0.2444 -0.4053
87833W        W30745  20.343  10.399  17.514 -0.0302 -0.1087 -0.0406
87834W        W30746  19.280  14.768  16.971  0.3513  0.0648  0.2102
87835W        W30747  19.100  12.639  17.396  0.1484 -0.0504 -0.3674
87836W        W30748  22.273  12.725  17.814 -0.2051 -0.0265 -0.4170
87837W        W30749  19.777  10.454  16.760 -0.0712  0.3895  0.1617
87838W        W30750  20.791  10.966  18.715 -0.0323 -0.0219 -0.3361
87839W        W30751  19.773  13.379  18.539  0.0166 -0.0468 -0.0847
87840W        W30752  17.456  11.695  17.131 -0.1639 -0.3964 -0.1740
87841W        W30753  20.177  13.063  15.345  0.1467  0.1460 -0.0591
87842W        W30754  22.385  14.904  17.280  0.2045  0.1175  0.0427
87843W        W30755  20.418  13.514  15.469  0.1093 -0.0725 -0.1628
87844W        W30756  18.615  11.102  17.713 -0.0497 -0.1687  0.0901
87845W        W30757  17.991  11.102  19.979  0.2236  0.1998  0.0592
87846W        W30758  19.638  11.113  18.624  0.0671 -0.1857 -0.0495
87847W        W30759  19.134  10.855  15.267  0.4643  0.3561  0.0535
87848W        W30760  22.689  12.616  18.138 -0.1348 -0.1631 -0.0441
87849W        W30761  19.872  12.064  17.916 -0.0753  0.4550  0.4209
87850W        W30762  21.293  11.209  18.251  0.0306 -0.0691  0.2213
87851W        W30763  20.417  12.556  18.350 -0.0023  0.0843  0.0129
87852W        W30764  21.060  13.038  16.598 -0.2824  0.0539  0.0002
87853W        W30765  20.870  13.273  15.665  0.1403  0.1119  0.0832
87854W        W30766  21.121  10.251  16.832 -0.0101  0.1225 -0.1181
87855W        W30767  20.796   8.913  17.499  0.0269 -0.0956  0.0005
87856W        W30768  19.356  12.363  16.172  0.0835  0.3647 -0.0800
87857W        W30769  20.054  11.369  17.137  0.0149  0.2127 -0.1451
87858W        W30770  22.395  12.054  18.069 -0.1619 -0.3020 -0.1684
87859W        W30771  21.745  13.711  16.928  0.2172 -0.1780  0.2430
87860W        W30772  19.355  13.795  17.792  0.0305  0.0797  0.0576
87861W        W30773  19.870  12.051  19.033  0.3074 -0.2625  0.1719
87862W        W30774  21.902  14.280  18.717 -0.0197  0.1618 -0.2132
87863W        W30775  17.044  12.203  15.670 -0.0643  0.1465  0.0717
87864W        W30776  19.147  12.554  18.307  0.2098  0.0435  0.1179
87865W        W30777  19.771  12.423  16.511  0.0274  0.0281 -0.1876
87866W        W30778  17.978  11.445  18.345  0.2042 -0.0487 -0.1411
87867W        W30779  20.103  13.009  18.260 -0.1016 -0.0965  0.1276
87868W        W30780  20.397  11.547  16.720 -0.3125  0.0883  0.1790
87869W        W30781  19.000  10.677  19.221  0.1288  0.0507 -0.0292
87870W        W30782  21.461  11.061  17.333  0.2536 -0.0345  0.1871
87871W        W30783  19.216  13.545  15.992  0.1165 -0.1822 -0.0891
87872W        W30784  20.238  15.273  16.989  0.2385  0.1443  0.0874
87873W        W30785  22.021  11.728  18.236 -0.0525  0.0411  0.4466
87874W        W30786  20.979  14.724  15.628 -0.2984  0.1256  0.4605
87875W        W30787  18.647  12.807  16.692 -0.0300 -0.3436  0.0299
87876W        W30788  18.923  11.980  16.865 -0.0014 -0.1107 -0.0409
87877W        W30789  17.797  10.552  19.042 -0.2090 -0.1840 -0.2289
87878W        W30790  19.501  10.848  17.746 -0.1332 -0.2548  0.0211
87879W        W30791  22.414  13.035  18.293  0.3826  0.0251  0.1147
87880W        W30792  17.812  11.527  15.909  0.1056 -0.0769  0.0495
87881W        W30793  20.188  10.542  18.267 -0.1436  0.2962  0.0206
87882W        W30794  19.744  12.121  16.888 -0.3989  0.2297  0.5099
87883W        W30795  17.112  13.741  15.406 -0.0042  0.0478 -0.1103
87884W        W30796  21.788  11.939  18.989  0.0410  0.1893 -0.1008
87885W        W30797  19.853  14.254  15.995  0.0187  0.0422 -0.2522
87886W        W30798  20.986  14.219  17.160  0.0131  0.0446 -0.0268
87887W        W30799  21.561  13.048  16.820  0.1059 -0.2867 -0.4480
87888W        W30800  19.064  11.144  19.605 -0.0257  0.2686 -0.0640
87889W        W30801  17.920  11.965  16.178 -0.0046  0.3079  0.4366
87890W        W30802  19.577  13.314  16.269  0.0141 -0.3022  0.0164
87891W        W30803  19.447  12.197  15.706 -0.1488  0.1902  0.0107
87892W        W30804  19.713  11.622  16.811 -0.0444 -0.4403 -0.0912
87893W        W30805  22.747  15.707  16.213 -0.1531  0.4241 -0.1999
87894W        W30806  20.699  11.650  18.751 -0.0124  0.2851 -0.1684
87895W        W30807  18.548  12.179  18.845  0.1554 -0.0298 -0.0826
87896W        W30808  21.738  11.282  18.443  0.2637 -0.0932  0.1609
87897W        W30809  22.152  12.508  18.307 -0.0529 -0.1373 -0.1374
87898W        W30810  20.445  11.230  17.550 -0.2464  0.0916 -0.1354
87899W        W30811  18.862  10.665  15.634  0.3712  0.0230  0.2003
87900W        W30812  20.936  14.817  16.142  0.0751 -0.0512 -0.1354
87901W        W30813  17.511  12.485  15.779  0.2109 -0.2088  0.1500
87902W        W30814  16.652  12.711  15.850 -0.3733  0.1210  0.1297
87903W        W30815  20.543  14.619  15.873  0.0381  0.3966 -0.0973
87904W        W30816  21.797  10.343  17.953 -0.0498  0.0346 -0.2431
87905W        W30817  19.464  10.906  19.608  0.1336 -0.0528 -0.0769
87906W        W30818  20.655  12.059  19.278  0.0965 -0.1178  0.2346
87907W        W30819  17.779  12.896  15.714 -0.0142  0.0441  0.2496
87908W        W30820  19.648  12.391  19.401 -0.3023 -0.0876 -0.1972
87909W        W30821  21.390  11.992  16.090 -0.3549 -0.2457 -0.1193
87910W        W30822  20.644  10.001  16.708  0.0637  0.5536  0.0340
87911W        W30823  21.045  12.518  17.542 -0.1258  0.4774  0.0085
87912W        W30824  20.906  13.790  15.319  0.0204  0.1967 -0.2928
87913W        W30825  20.656  13.754  15.814 -0.1130  0.0158 -0.0338
87914W        W30826  20.823  11.908  15.814 -0.0735  0.1262  0.2182
87915W        W30827  19.054  12.166  18.691  0.1944 -0.1850  0.3612
87916W        W30828  20.419  13.186  15.930  0.1235 -0.1618  0.0822
87917W        W30829  20.331  12.160  18.006 -0.0780  0.1012  0.0185
87918W        W30830  20.825  12.429  16.105  0.5175 -0.2041  0.4907
87919W        W30831  21.531  14.603  16.393  0.0861  0.1350  0.0391
87920W        W30832  19.590  13.561  17.445  0.3040  0.1150 -0.0698
87921W        W30833  20.659  12.444  18.939  0.1546 -0.0710  0.2361
87922W        W30834  19.694  12.653  15.992 -0.1637  0.1412  0.1646
87923W        W30835  20.186  10.215  18.674  0.2495 -0.0077 -0.0135
87924W        W30836  19.734  12.294  15.227 -0.0209 -0.2479  0.1323
87925W        W30837  19.777  11.544  17.629  0.0143  0.2099 -0.0675
87926W        W30838  18.034  13.801  15.797  0.0342  0.0550  0.0076
87927W        W30839  20.668  10.631  18.086  0.0482  0.1012 -0.0248
87928W        W30840  20.543   9.701  17.742 -0.1610  0.2373  0.2485
87929W        W30841  19.980  10.487  19.020  0.0582 -0.1912  0.1363
87930W        W30842  22.064  12.297  20.158  0.1191 -0.1241  0.1493
87931W        W30843  20.001  12.298  15.758  0.1187 -0.2308  0.3051
87932W        W30844  20.547  11.597  17.191  0.0527 -0.1678  0.2697
87933W        W30845  20.216  12.419  16.206 -0.0610  0.0663 -0.0759
87934W        W30846  20.393  10.204  19.080  0.1636 -0.0376  0.0093
87935W        W30847  19.582  12.864  17.574  0.0652 -0.2250 -0.1059
87936W        W30848  17.672  13.018  17.343 -0.0851 -0.3218 -0.2704
87937W        W30849  21.555  13.391  18.424 -0.3057 -0.1532 -0.3662
87938W        W30850  20.082  13.556  16.166 -0.1382  0.0929  0.0147
87939W        W30851  21.460  10.942  18.714 -0.0154  0.2577 -0.1684
87940W        W30852  20.605  11.855  16.339 -0.0678 -0.2523 -0.3010
87941W        W30853  18.131  14.291  16.067  0.1945 -0.0961 -0.3069
87942W        W30854  20.075  14.565  15.695 -0.3082 -0.2156 -0.0030
87943W        W30855  19.007  10.461  18.320  0.2303  0.0591  0.1157
87944W        W30856  20.446  13.175  17.889  0.0902  0.0896 -0.2115
87945W        W30857  19.677  13.768  15.973  0.0110 -0.1834  0.1165
87946W        W30858  21.987  13.898  18.139  0.0253 -0.0326 -0.1135
87947W        W30859  19.266  13.130  16.851 -0.0777 -0.3766 -0.1287
87948W        W30860  22.350  10.579  18.122  0.0191 -0.3225  0.0142
87949W        W30861  18.617  13.766  16.540  0.1433  0.0531  0.1130
87950W        W30862  19.349  12.229  17.623 -0.2443 -0.2481  0.0332
87951W        W30863  18.508  12.822  16.052 -0.1123  0.3688  0.2640
87952W        W30864  20.859  12.339  18.197  0.1809  0.3131 -0.2204
87953W        W30865  20.621  15.182  15.393 -0.3068  0.0676 -0.3721
87954W        W30866  18.392  11.260  18.139 -0.2470  0.3017  0.0969
87955W        W30867  20.368   9.455  18.493  0.3022 -0.2295 -0.1356
87956W        W30868  19.942  13.169  17.838 -0.2513 -0.1183  0.0466
87957W        W30869  20.346  11.989  18.942 -0.0944 -0.0695 -0.0765
87958W        W30870  19.713  10.458  17.430 -0.1286  0.0239  0.0010
87959W        W30871  21.493  14.215  18.503 -0.0064  0.1991 -0.0139
87960W        W30872  21.473  13.782  17.655 -0.0600 -0.1316 -0.1507
87961W        W30873  18.780  11.529  15.352 -0.1652 -0.1065  0.4294
87962W        W30874  21.868  12.499  18.852  0.1971  0.2237  0.1186
87963W        W30875  17.516  12.926  16.136  0.1367  0.0034  0.3568
87964W        W30876  18.557  13.852  17.004  0.1008 -0.0033 -0.2878
87965W        W30877  20.234  13.219  19.212  0.0734 -0.0328  0.4112
87966W        W30878  19.226  12.516  16.683  0.1639  0.0831  0.0305
87967W        W30879  18.992  13.320  15.632  0.1241  0.1684  0.3206
87968W        W30880  18.931  10.142  19.355 -0.0673 -0.2696 -0.0438
87969W        W30881  21.349  11.644  19.138  0.3207  0.2555  0.1749
87970W        W30882  20.221  11.420  17.895 -0.4661 -0.3500 -0.0662
87971W        W30883  19.596  11.619  16.333  0.0456  0.2096  0.0518
87972W        W30884  20.262  11.837  17.546  0.1291  0.0595  0.1814
87973W        W30885  21.092  12.263  17.002 -0.0584  0.2342  0.0123
87974W        W30886  20.262  10.807  17.284  0.0213 -0.0720 -0.1089
87975W        W30887  18.640  13.107  18.604 -0.0098 -0.3554 -0.0342
87976W        W30888  20.534   9.156  18.867  0.1261 -0.1422  0.1466
87977W        W30889  22.344  15.229  15.513  0.0583  0.1801 -0.0468
87978W        W30890  20.671  12.669  17.830  0.1826 -0.2281 -0.2171
87979W        W30891  20.163  12.630  17.923 -0.0292  0.1468  0.0096
87980W        W30892  17.778  12.591  17.111  0.1062 -0.0327 -0.2519
87981W        W30893  19.292  12.109  18.128 -0.1930  0.0397  0.0401
87982W        W30894  20.727  10.163  17.828  0.0812 -0.2456  0.2559
87983W        W30895  19.698  14.065  17.305 -0.0714  0.0929 -0.0676
87984W        W30896  19.371  13.659  15.539  0.1159 -0.0106  0.0904
87985W        W30897  17.262  13.228  17.009 -0.1808  0.3303 -0.0805
87986W        W30898  23.063  10.329  17.877 -0.0356 -0.2976  0.4744
87987W        W30899  19.255  12.725  15.778  0.0240 -0.0104  0.3489
87988W        W30900  21.129  11.079  17.727  0.3269 -0.0990  0.2998
87989W        W30901  21.985  11.602  19.332  0.0049 -0.1696 -0.0218
87990W        W30902  20.647  12.768  15.718  0.1767  0.0148 -0.1004
87991W        W30903  21.673  10.894  19.178  0.0317  0.1969 -0.2069
87992W        W30904  19.646  11.845  17.292  0.2160  0.1717  0.4478
87993W        W30905  21.853  14.603  15.926 -0.2952  0.1408 -0.1553
87994W        W30906  19.795  12.365  17.414  0.1778  0.1628 -0.1626
87995W        W30907  20.987  14.279  18.862 -0.3026  0.2304  0.3366
87996W        W30908  18.816  11.301  19.224 -0.3593  0.0086  0.0153
87997W        W30909  19.927  11.046  17.544 -0.0155 -0.0219 -0.2827
87998W        W30910  19.754  10.896  16.258  0.1933  0.1811  0.0468
87999W        W30911  20.600  12.120  18.529 -0.0001  0.0158 -0.0569
88000W        W30912  21.196  12.424  18.731  0.1715 -0.2450 -0.0585
88001W        W30913  20.525  13.722  16.280 -0.1704  0.0177 -0.0457
88002W        W30914  22.445  11.003  17.162 -0.2665 -0.0637  0.0944
88003W        W30915  18.731  11.994  18.392 -0.2585 -0.0604 -0.2836
88004W        W30916  20.562  12.111  17.206 -0.3239  0.2470  0.0462
88005W        W30917  19.358  12.078  14.954 -0.1649 -0.0359 -0.0930
88006W        W30918  19.137  11.593  18.959 -0.2485  0.2527  0.0246
88007W        W30919  19.204   9.713  20.459  0.1364 -0.0775  0.1374
88008W        W30920  20.560  12.835  16.280 -0.0712  0.0753  0.1449
88009W        W30921  21.366  11.182  16.366  0.0081  0.3213  0.1437
88010W        W30922  20.658  10.270  18.553  0.0009 -0.0667  0.1231
88011W        W30923  21.920  10.879  18.128  0.0087  0.0184  0.0140
88012W        W30924  19.356  12.305  19.802 -0.1201 -0.1572  0.2380
88013W        W30925  20.058  11.846  18.599 -0.2445  0.0967 -0.3285
88014W        W30926  20.711  14.740  17.546  0.1528 -0.0406  0.0520
88015W        W30927  21.229  12.664  17.945  0.1659  0.3449  0.0590
88016W        W30928  21.885  11.786  17.285 -0.3223 -0.0003  0.1107
88017W        W30929  21.391  12.345  19.235 -0.0650  0.3278  0.0160
88018W        W30930  20.134  12.794  16.609 -0.1457 -0.0163  0.0232
88019W        W30931  17.559  12.858  16.736  0.1711  0.0019  0.1867
88020W        W30932  21.146  13.781  19.282  0.0020 -0.0142  0.4795
88021W        W30933  18.843  11.346  16.119  0.0703 -0.2441  0.2643
88022W        W30934  19.911  11.615  19.832  0.3781 -0.0829 -0.0164
88023W        W30935  19.671  14.086  15.513  0.0958  0.4397  0.5656
88024W        W30936  20.432  13.284  16.454  0.1042 -0.1729 -0.1305
88025W        W30937  19.359  11.220  16.190 -0.0267  0.0357 -0.3269
88026W        W30938  19.003  13.036  18.234  0.1657 -0.3068  0.1512
88027W        W30939  18.892  12.396  17.900 -0.0463  0.0654  0.1318
88028W        W30940  17.926  12.473  15.439 -0.0207 -0.2806 -0.0949
88029W        W30941  20.577  12.880  16.778 -0.1317 -0.1816 -0.0598
88030W        W30942  19.900  13.087  17.013  0.1583 -0.1776  0.4545
88031W        W30943  22.503  12.438  18.913  0.0223  0.0574 -0.1143
88032W        W30944  19.372  10.632  16.994  0.1122  0.0827 -0.0146
88033W        W30945  23.476  10.994  18.077 -0.2448 -0.1467  0.3797
88034W        W30946  18.645  13.338  16.080  0.0188  0.3992  0.0828
88035W        W30947  20.573  11.090  16.385 -0.2321  0.1377 -0.0863
88036W        W30948  20.018  13.754  17.625 -0.1046  0.3752 -0.1444
88037W        W30949  18.289  12.647  16.929  0.0880  0.0551  0.2659
88038W        W30950  18.863  13.763  15.715  0.3009 -0.1802 -0.2305
88039W        W30951  21.716   9.168  17.248 -0.2672  0.0586  0.0626
88040W        W30952  21.499  10.470  17.043 -0.0045 -0.2699 -0.1604
88041W        W30953  18.910  11.034  18.434 -0.0392  0.0659  0.1228
88042W        W30954  22.914  13.329  18.590 -0.0928 -0.0082  0.0492
88043W        W30955  21.097  12.845  19.004  0.0803 -0.1099 -0.2215
88044W        W30956  18.789  12.469  17.035 -0.2007  0.0237  0.1572
88045W        W30957  21.346  15.027  18.368  0.1923  0.4150  0.0514
88046W        W30958  21.278  12.544  16.030 -0.3062 -0.3195  0.2918
88047W        W30959  19.084  13.373  16.461  0.3100  0.0545  0.3475
88048W        W30960  19.140  10.750  17.417  0.1110  0.1457 -0.1466
88049W        W30961  19.884  12.445  18.470  0.3725 -0.0398  0.0195
88050W        W30962  20.071  12.802  17.386  0.0241  0.2948 -0.1147
88051W        W30963  19.213  11.406  16.674 -0.1083  0.1526  0.1422
88052W        W30964  19.701  12.758  15.468 -0.1091  0.4588  0.1088
88053W        W30965  17.931  13.124  18.289  0.2623 -0.0744  0.0111
88054W        W30966  19.009  10.942  17.961 -0.2705 -0.0196 -0.0230
88055W        W30967  17.671  13.840  15.423 -0.3361 -0.1101  0.1486
88056W        W30968  20.589  12.266  16.730  0.0722 -0.3505 -0.2167
88057W        W30969  20.108  12.001  16.543  0.0123 -0.0660 -0.0392
88058W        W30970  19.572  13.552  16.843  0.0751 -0.0260  0.0370
88059W        W30971  20.236  10.779  16.711 -0.0599  0.0037  0.0358
88060W        W30972  17.371  13.272  15.327  0.6050  0.0518 -0.0999
88061W        W30973  17.267  13.803  14.910  0.1823 -0.1169 -0.1743
88062W        W30974  20.337  14.137  16.049  0.1177  0.1915  0.0116
88063W        W30975  19.104  14.426  15.511 -0.2191  0.3264 -0.0899
88064W        W30976  22.078  13.916  19.175 -0.2927 -0.0861  0.1363
88065W        W30977  21.127  11.593  16.153  0.0710 -0.2273  0.0922
88066W        W30978  21.707  12.378  17.988 -0.1453 -0.3650  0.3284
88067W        W30979  22.985  11.244  18.300  0.0305 -0.0892 -0.2357
88068W        W30980  21.807  13.128  19.416  0.2401 -0.1147 -0.0556
88069W        W30981  19.551  11.669  18.030 -0.0696 -0.1796  0.1416
88070W        W30982  19.363  10.588  16.454  0.2856  0.2851  0.1400
88071W        W30983  20.043  11.620  19.255  0.3514 -0.2252 -0.1591
88072W        W30984  21.132  10.549  20.825 -0.0945  0.3494 -0.0177
88073W        W30985  18.468  13.264  18.169  0.0779 -0.0279  0.0644
88074W        W30986  21.187  13.760  15.779  0.1284 -0.1296 -0.0570
88075W        W30987  19.179  12.888  16.320 -0.1899 -0.2270 -0.0185
88076W        W30988  19.538  11.878  19.514  0.1951  0.1280 -0.0245
88077W        W30989  22.227  11.172  18.348  0.0440 -0.1496 -0.1989
88078W        W30990  20.289  15.006  15.691 -0.1955  0.1693  0.1595
88079W        W30991  20.194  10.313  16.587 -0.0139  0.3698  0.4232
88080W        W30992  20.167  14.186  17.380 -0.1590 -0.1290 -0.0088
88081W        W30993  19.444  13.279  18.011  0.1110 -0.2971  0.0110
88082W        W30994  20.405  13.407  16.928 -0.2853  0.1603 -0.2459
88083W        W30995  18.600  12.194  16.509 -0.1494 -0.1138  0.1827
88084W        W30996  21.709  12.183  18.432  0.0799  0.1165  0.1673
88085W        W30997  19.778  10.176  19.972  0.1800 -0.1852 -0.1836
88086W        W30998  22.339  12.051  19.152 -0.1030  0.0610 -0.3800
88087W        W30999  17.250  11.476  16.733  0.1752 -0.0460 -0.0648
88088W        W31000  21.217  12.540  15.156  0.1021 -0.0133  0.1441
88089W        W31001  21.518  12.708  18.462  0.0051  0.1526 -0.1280
88090W        W31002  19.972  12.831  19.258 -0.2064  0.2410 -0.1998
88091W        W31003  19.077  11.935  15.471  0.0184 -0.4321  0.1266
88092W        W31004  23.037  11.964  18.542 -0.4152 -0.3258 -0.0582
88093W        W31005  19.329  11.744  15.968 -0.0795  0.0191 -0.2619
88094W        W31006  21.787  12.965  18.130  0.2639 -0.2212 -0.2045
88095W        W31007  19.577  11.080  16.736 -0.3727  0.2064  0.0197
88096W        W31008  20.879  11.403  16.567 -0.1173 -0.1131  0.3671
88097W        W31009  20.240  13.583  18.666 -0.0798  0.1192  0.3281
88098W        W31010  20.892  12.765  18.513  0.1081  0.2552 -0.1014
88099W        W31011  21.695  15.002  17.960 -0.2077  0.0066 -0.1324
88100W        W31012  18.575  10.722  17.423 -0.1106  0.2204  0.1611
88101W        W31013  21.402  12.647  16.579  0.3572  0.1359  0.1885
88102W        W31014  20.975  12.893  16.010 -0.2530  0.2113 -0.3376
88103W        W31015  19.471  14.127  14.652 -0.1291  0.1745  0.1364
88104W        W31016  20.720  12.545  17.172 -0.0877 -0.1759 -0.1493
88105W        W31017  20.881  13.244  17.064  0.0116  0.3265 -0.0564
88106W        W31018  18.113  11.677  17.204  0.1230  0.0557 -0.0002
88107W        W31019  21.431  14.565  17.091  0.1129 -0.1016  0.0593
88108W        W31020  22.074  13.856  16.589  0.2510 -0.2494 -0.1220
88109W        W31021  20.092  11.186  16.506  0.0148  0.2094  0.3880
88110W        W31022  19.581  12.622  17.018 -0.1153  0.0923 -0.2361
88111W        W31023  17.557  14.437  17.017 -0.1020  0.1853  0.0170
88112W        W31024  21.028  11.907  17.364  0.2303  0.1585 -0.4240
88113W        W31025  22.405  11.324  18.833 -0.1670 -0.1346  0.1033
88114W        W31026  18.598  13.926  14.873 -0.0819 -0.0912 -0.0929
88115W        W31027  21.691  10.214  19.220 -0.2798  0.2126 -0.1470
88116W        W31028  21.416  13.382  17.412 -0.0487  0.1514 -0.1677
88117W        W31029  20.568  13.630  18.002  0.0144  0.1585 -0.0773
88118W        W31030  18.403  11.368  15.727 -0.0066 -0.1895 -0.1296
88119W        W31031  20.028  12.892  18.726 -0.2890 -0.0375 -0.1775
88120W        W31032  19.273  14.083  15.883 -0.1594 -0.2589 -0.0995
88121W        W31033  20.233  15.467  15.600 -0.1568  0.0625  0.2337
88122W        W31034  21.385  13.472  16.570 -0.2060  0.0924  0.3460
88123W        W31035  19.860  11.872  15.735 -0.2235  0.2055 -0.2141
88124W        W31036  21.414  13.068  15.235  0.0508 -0.1859 -0.1499
88125W        W31037  19.290  12.230  17.152 -0.2430  0.2203 -0.0816
88126W        W31038  22.129  11.021  16.790 -0.3339  0.0311 -0.1560
88127W        W31039  21.812   9.877  18.144  0.1160 -0.1029  0.0193
88128W        W31040  20.913  13.038  18.077 -0.0548  0.1039 -0.3377
88129W        W31041  18.490  12.232  15.943 -0.1007 -0.0811  0.2510
88130W        W31042  18.381  13.349  15.592 -0.1628  0.2673  0.1280
88131W        W31043  18.483  13.115  17.673  0.0412  0.0467  0.1274
88132W        W31044  19.994  11.044  19.609 -0.0131 -0.1370 -0.0850
88133W        W31045  19.549  10.730  19.140 -0.1709  0.0088  0.0070
88134W        W31046  19.576  12.498  17.990  0.2660 -0.2524 -0.1224
88135W        W31047  18.735  11.732  15.820 -0.2257  0.0514 -0.2207
88136W        W31048  21.595  13.843  16.263 -0.0774  0.4295 -0.2704
88137W        W31049  19.607  10.299  19.499 -0.0731 -0.2703 -0.0908
88138W        W31050  18.839  12.109  17.421 -0.3994 -0.3512  0.3911
88139W        W31051  20.940  12.582  16.615  0.0827  0.1432  0.0471
88140W        W31052  20.775  12.147  17.729  0.2873 -0.0646 -0.1094
88141W        W31053  19.227  11.749  17.621  0.0617 -0.2427  0.0312
88142W        W31054  21.637  13.711  19.080 -0.3259 -0.1704  0.2704
88143W        W31055  18.178  13.592  16.811  0.2218  0.2139  0.0211
88144W        W31056  19.658  11.560  18.826  0.1694  0.0934  0.1870
88145W        W31057  20.100  10.207  19.561 -0.0182 -0.1843 -0.1271
88146W        W31058  17.927  11.051  15.972  0.0295  0.0570  0.1711
88147W        W31059  20.590  11.137  16.946  0.2355  0.1661 -0.0620
88148W        W31060  20.511  13.513  17.531  0.3223  0.5151  0.0618
88149W        W31061  21.414  14.804  15.955  0.1385 -0.1881 -0.2522
88150W        W31062  19.584  12.952  18.940  0.6331  0.2356  0.0988
88151W        W31063  21.601  14.457  17.776  0.1385  0.1904 -0.1335
88152W        W31064  18.088  10.432  18.627  0.1897 -0.1521  0.3408
88153W        W31065  20.149  12.756  15.762 -0.0064 -0.0624 -0.0362
88154W        W31066  20.048  13.702  17.078 -0.4123  0.1810 -0.2409
88155W        W31067  22.132  13.757  16.041 -0.1215 -0.0197 -0.1094
88156W        W31068  22.551  10.035  18.666 -0.1656 -0.2332  0.4706
88157W        W31069  18.898  11.796  16.355  0.3178  0.2744 -0.0350
88158W        W31070  19.110   9.376  19.110 -0.0309 -0.0622  0.0371
88159W        W31071  18.309  12.338  18.341 -0.2386 -0.0941 -0.0528
88160W        W31072  21.509  12.362  17.462  0.2703 -0.0227 -0.0709
88161W        W31073  18.251  11.438  17.684  0.1372  0.0652 -0.0664
88162W        W31074  20.125  12.033  15.363 -0.3894 -0.2639  0.5112
88163W        W31075  18.928  15.217  15.755 -0.1786 -0.0352 -0.1748
88164W        W31076  20.145  11.868  17.054  0.0931  0.4121 -0.2163
88165W        W31077  19.776  11.381  15.901  0.0061 -0.0155  0.0981
88166W        W31078  21.041  12.008  18.972 -0.1495 -0.2145  0.0692
88167W        W31079  20.122  11.635  16.125  0.1767  0.1674 -0.3384
88168W        W31080  22.589  12.251  18.483 -0.1264 -0.1578 -0.0942
88169W        W31081  18.976  12.243  15.823  0.1023  0.4210 -0.0142
88170W        W31082  21.558  12.171  16.664  0.0938  0.2778  0.0553
88171W        W31083  20.988  15.629  18.133 -0.1222  0.3048 -0.4475
88172W        W31084  22.270  13.862  18.697 -0.0460 -0.2646  0.2835
88173W        W31085  21.318  13.956  16.682  0.0669  0.0961  0.0831
88174W        W31086  20.925  11.777  16.887  0.2870 -0.0183  0.1162
88175W        W31087  20.088   9.852  17.480 -0.1035  0.0917 -0.0687
88176W        W31088  19.636  12.924  16.603  0.2963  0.1403  0.0929
88177W        W31089  21.268  11.355  16.921  0.1513  0.0124 -0.0839
88178W        W31090  20.241  10.849  17.850  0.2053  0.3740 -0.0891
88179W        W31091  20.194  12.414  17.042 -0.0485 -0.1286 -0.2687
88180W        W31092  20.175  10.254  17.083  0.1529  0.0437  0.2746
88181W        W31093  20.301  14.041  17.927 -0.3465 -0.2420 -0.2464
88182W        W31094  19.853  11.075  19.129 -0.0221 -0.2813  0.1893
88183W        W31095  21.813  11.672  23.689 -0.0056 -0.0443 -0.2310
88184W        W31096  18.761   9.876  20.035  0.1233 -0.0992  0.3405
88185W        W31097  21.977  11.619  20.424 -0.1543 -0.1216  0.0192
88186W        W31098  21.433  13.374  19.462 -0.0487 -0.1595 -0.0534
88187W        W31099  18.104  10.565  19.860 -0.4339 -0.1199  0.0378
88188W        W31100  22.347  14.311  19.371  0.0297 -0.0240 -0.3227
88189W        W31101  18.598  10.430  21.957 -0.0034 -0.0684  0.1100
88190W        W31102  20.275  13.845  21.358  0.0798 -0.0739  0.1650
88191W        W31103  21.651  14.748  20.218  0.2964 -0.0116 -0.1220
88192W        W31104  21.028  13.026  17.508 -0.3583  0.1083 -0.0091
88193W        W31105  19.024  11.226  21.728 -0.2659  0.0032  0.1868
88194W        W31106  19.916  12.987  20.698 -0.2180  0.3826  0.0158
88195W        W31107  18.908  12.464  19.568  0.1299  0.1512 -0.0778
88196W        W31108  18.566  10.294  21.516 -0.0862 -0.0277 -0.2105
88197W        W31109  21.262  12.785  22.215  0.0999 -0.0503  0.0051
88198W        W31110  18.413  12.802  19.026 -0.3839 -0.1058  0.1559
88199W        W31111  19.516   9.371  21.042  0.1789  0.2781 -0.0139
88200W        W31112  18.125  12.439  22.085  0.0423 -0.2221  0.1313
88201W        W31113  21.521  12.879  20.984 -0.2461  0.0191  0.0279
88202W        W31114  19.596  11.312  23.691  0.0619  0.1567  0.4022
88203W        W31115  20.863  11.440  24.196 -0.0233  0.1028  0.1385
88204W        W31116  21.135  12.568  19.881 -0.0193 -0.1882 -0.0886
88205W        W31117  19.273  10.670  18.724  0.1188 -0.1456  0.0138
88206W        W31118  17.889  11.630  20.290  0.3938  0.0811 -0.0615
88207W        W31119  19.182  11.494  21.238  0.0050 -0.2980 -0.2379
88208W        W31120  20.493   9.970  21.847  0.0818  0.5047  0.0952
88209W        W31121  21.531  12.424  20.769 -0.1805 -0.6173  0.2044
88210W        W31122  21.004  13.700  20.749  0.2076  0.2562  0.1643
88211W        W31123  21.717  13.442  20.862  0.2889  0.3224  0.1751
88212W        W31124  21.368  12.441  23.456 -0.2429 -0.3914  0.2010
88213W        W31125  18.024  12.200  19.608 -0.1198  0.2280  0.0885
88214W        W31126  18.497  13.840  18.936  0.0321 -0.0809  0.0971
88215W        W31127  20.983  12.961  19.523  0.2524 -0.2610  0.2562
88216W        W31128  20.881  12.824  22.560 -0.2964 -0.1589 -0.3125
88217W        W31129  21.997  14.506  21.741 -0.0997 -0.2043 -0.0962
88218W        W31130  19.971  13.519  20.609  0.0704 -0.3321  0.1941
88219W        W31131  19.939  13.459  19.514 -0.0564  0.0080  0.1287
88220W        W31132  20.803  13.894  21.586  0.0999  0.2546  0.1820
88221W        W31133  19.680  13.095  21.132  0.0725 -0.2390 -0.1288
88222W        W31134  19.813  12.998  21.703 -0.3780  0.1574 -0.4831
88223W        W31135  20.393  12.887  21.872 -0.1984 -0.0763 -0.2042
88224W        W31136  20.900  14.697  19.110 -0.0494 -0.2799  0.0439
88225W        W31137  20.613  12.689  21.408  0.1378 -0.0786 -0.0860
88226W        W31138  20.520  13.167  22.250  0.0185 -0.1947 -0.0659
88227W        W31139  19.387  12.773  20.376  0.0134  0.1837  0.1986
88228W        W31140  21.287  11.171  24.116 -0.1058 -0.0108 -0.2540
88229W        W31141  19.258  13.308  18.624  0.5004 -0.0262  0.2332
88230W        W31142  21.458  12.770  19.511  0.2977 -0.1638 -0.2324
88231W        W31143  20.318  11.918  19.648 -0.0661  0.0216 -0.0333
88232W        W31144  21.141  11.353  20.092 -0.1780 -0.0320 -0.0379
88233W        W31145  19.743  11.119  22.481 -0.0425  0.1868  0.3758
88234W        W31146  19.758  13.091  20.129 -0.1875 -0.0703  0.2042
88235W        W31147  19.705  11.111  20.006  0.2013 -0.0619 -0.2905
88236W        W31148  22.073  13.585  23.581 -0.1723  0.1439  0.0268
88237W        W31149  19.831  11.409  20.375 -0.0395  0.0761 -0.1906
88238W        W31150  21.399  11.042  23.020  0.0542  0.0474 -0.1403
88239W        W31151  18.646  12.934  21.350 -0.2709  0.0653  0.2825
88240W        W31152  19.135  10.254  20.908  0.0518 -0.1128  0.1638
88241W        W31153  22.590  12.905  18.770 -0.0211 -0.1523  0.0905
88242W        W31154  22.753  13.626  20.653 -0.0572  0.2065  0.0462
88243W        W31155  21.739  14.000  19.966 -0.2169  0.4242 -0.1813
88244W        W31156  20.642  12.304  20.695 -0.0872  0.0139 -0.0447
88245W        W31157  18.921  11.656  22.393  0.0024 -0.1470 -0.2500
88246W        W31158  18.174  11.684  21.446 -0.1613 -0.0560  0.3647
88247W        W31159  18.562   8.373  20.515  0.0418  0.1470  0.4652
88248W        W31160  22.270  13.021  23.456  0.2756  0.2808 -0.0448
88249W        W31161  18.911  12.976  20.779 -0.1271  0.3399  0.1378
88250W        W31162  22.718  10.088  20.801 -0.1026 -0.0429  0.0272
88251W        W31163  18.725  12.055  20.248  0.1212 -0.3145  0.0717
88252W        W31164  21.989  14.371  21.127 -0.2003 -0.1407  0.2618
88253W        W31165  21.980  12.934  18.623  0.2734 -0.0258 -0.0473
88254W        W31166  20.590  10.894  23.590 -0.2022 -0.0061 -0.1116
88255W        W31167  20.356  10.828  21.912 -0.1262 -0.0277  0.1892
88256W        W31168  17.898  12.653  19.746  0.1777 -0.2853 -0.0505
88257W        W31169  19.836  12.122  19.788  0.1022 -0.0990 -0.1759
88258W        W31170  22.278  13.911  21.093  0.2019 -0.2852  0.0490
88259W        W31171  22.444  12.340  19.821 -0.0942  0.2822 -0.2744
88260W        W31172  19.063  13.476  20.611  0.0364 -0.1446 -0.0398
88261W        W31173  19.311  11.920  22.723 -0.2357 -0.2106 -0.0001
88262W        W31174  20.802  13.316  21.526  0.1574 -0.2911 -0.0507
88263W        W31175  20.529  13.319  18.400  0.2829  0.0667  0.0218
88264W        W31176  19.029  13.550  19.814  0.3353 -0.0963  0.3704
88265W        W31177  20.630  13.147  19.911 -0.1732 -0.0949 -0.1435
88266W        W31178  18.047  11.685  22.044 -0.2431  0.2803  0.2542
88267W        W31179  20.517  13.126  21.057 -0.1516  0.2426 -0.1994
88268W        W31180  21.615  10.886  20.655  0.0569  0.1589 -0.1434
88269W        W31181  19.521  10.149  23.383 -0.0220  0.0817 -0.4050
88270W        W31182  22.073  12.176  23.090 -0.0592 -0.0204  0.0969
88271W        W31183  18.972  10.878  20.074  0.3723 -0.2366  0.1549
88272W        W31184  22.210  12.932  19.618  0.3237  0.1908  0.4981
88273W        W31185  21.806  12.863  20.489 -0.0074  0.0886  0.2769
88274W        W31186  22.215  12.987  19.080  0.2216  0.3311 -0.1220
88275W        W31187  19.119  11.723  21.862 -0.0589 -0.2123 -0.1694
88276W        W31188  19.298  10.186  20.332 -0.1345 -0.3517 -0.0601
88277W        W31189  18.725  10.003  22.373 -0.0948  0.1252 -0.2974
88278W        W31190  19.008  10.772  20.517 -0.0160  0.0897 -0.3175
88279W        W31191  21.935  12.074  22.623  0.2138 -0.0821 -0.0493
88280W        W31192  18.291  10.062  19.767  0.0008  0.1991  0.0346
88281W        W31193  21.324  12.070  21.462  0.1636 -0.1770  0.0391
88282W        W31194  21.083  11.669  20.472  0.0560 -0.1125  0.0704
88283W        W31195  19.173  12.116  19.236 -0.1845  0.3045  0.2314
88284W        W31196  20.937  11.272  23.002  0.2745 -0.1698 -0.1993
88285W        W31197  19.552  14.279  19.615 -0.0830 -0.0700 -0.0619
88286W        W31198  20.508  14.057  22.329  0.2525 -0.0225  0.1012
88287W        W31199  21.941  13.266  21.674  0.0726  0.0372  0.1561
88288W        W31200  18.589  10.928  21.656  0.1619 -0.2534  0.0264
88289W        W31201  17.960  10.450  21.157 -0.1879 -0.1671  0.1745
88290W        W31202  18.864  13.049  19.082 -0.0652 -0.3482 -0.0127
88291W        W31203  19.609  12.147  20.895  0.0093 -0.0392 -0.0289
88292W        W31204  18.830  11.373  19.989 -0.0122 -0.1290  0.2179
88293W        W31205  22.469  14.004  20.253 -0.0705 -0.2240  0.0408
88294W        W31206  20.700  11.897  20.918  0.1281  0.0399  0.0937
88295W        W31207  19.249  13.338  21.824 -0.3000 -0.1044 -0.0733
88296W        W31208  20.818  10.892  24.118 -0.3440  0.4452 -0.1464
88297W        W31209  22.309  11.558  22.210 -0.1157 -0.2414 -0.2414
88298W        W31210  20.214  12.007  20.931 -0.0201  0.3817 -0.0221
88299W        W31211  18.683  10.531  20.151  0.0339  0.3273 -0.1415
88300W        W31212  21.403  14.660  19.250  0.0112  0.1338  0.1048
88301W        W31213  19.606  13.070  19.530  0.1956  0.0405  0.3700
88302W        W31214  18.169  11.853  19.280 -0.2596  0.1603 -0.0524
88303W        W31215  20.450  13.509  19.650  0.0992 -0.0675  0.1752
88304W        W31216  20.665  11.565  22.037 -0.2743 -0.0000  0.0838
88305W        W31217  18.033  11.059  22.916 -0.2712  0.0454 -0.0164
88306W        W31218  19.311  11.224  22.142 -0.0032 -0.1786  0.0765
88307W        W31219  18.125  10.353  19.407 -0.4440  0.0255 -0.0101
88308W        W31220  18.757  12.027  21.604 -0.0361  0.2347  0.1074
88309W        W31221  19.859  10.304  20.672  0.0893  0.2204  0.1421
88310W        W31222  21.649  10.123  19.828  0.1477 -0.2392  0.4229
88311W        W31223  20.724  13.659  22.025  0.1229 -0.0349  0.1654
88312W        W31224  22.341  13.143  21.434 -0.2453  0.0489  0.4337
88313W        W31225  20.773  11.055  19.490  0.1953  0.0073  0.1257
88314W        W31226  20.769  11.728  19.849 -0.2019 -0.2491  0.1657
88315W        W31227  19.278  12.912  23.077  0.3529  0.0513  0.0370
88316W        W31228  20.395  12.779  20.562 -0.3475 -0.0702  0.1449
88317W        W31229  20.455  12.633  22.371 -0.3446  0.1079  0.0717
88318W        W31230  21.746  10.627  20.152 -0.2868 -0.0635 -0.0136
88319W        W31231  23.502  12.226  18.676 -0.2604 -0.3854 -0.0845
88320W        W31232  18.268  12.063  20.576 -0.0984  0.1893  0.2256
88321W        W31233  21.208  13.450  21.774  0.2017  0.1565  0.0627
88322W        W31234  22.499  13.099  22.176  0.1109 -0.1243 -0.0804
88323W        W31235  19.430  10.720  22.230 -0.0376  0.2000 -0.1214
88324W        W31236  19.065  11.612  19.472 -0.3207 -0.0957  0.3156
88325W        W31237  19.616  11.682  21.115  0.0426 -0.0374  0.1281
88326W        W31238  18.443  13.643  17.785 -0.0438 -0.0829  0.0064
88327W        W31239  21.447  10.606  22.783  0.1549 -0.0901 -0.1254
88328W        W31240  20.335  10.621  23.189  0.1832  0.0607 -0.0599
88329W        W31241  20.525  10.170  22.889  0.0680 -0.1007 -0.3053
88330W        W31242  22.290  12.931  22.886  0.1475  0.0831 -0.1261
88331W        W31243  19.420  11.472  19.809  0.0846 -0.0502 -0.0705
88332W        W31244  21.364  11.568  21.373 -0.0785 -0.0348 -0.3857
88333W        W31245  20.150  12.456  18.905 -0.1119  0.1815 -0.0131
88334W        W31246  19.507  11.127  23.233 -0.1508  0.1272 -0.0249
88335W        W31247  18.961  11.285  20.678  0.0752 -0.0094 -0.2396
88336W        W31248  19.908  11.481  22.715 -0.2795 -0.1726  0.2186
88337W        W31249  22.155  13.838  22.369  0.2200  0.1280 -0.1775
88338W        W31250  20.664  12.053  20.248  0.3343  0.1686  0.0009
88339W        W31251  20.873  11.940  22.487 -0.0530 -0.0632  0.2282
88340W        W31252  20.779  10.675  19.125 -0.1937  0.1271  0.3805
88341W        W31253  18.261  12.845  18.498  0.1482 -0.0281  0.1460
88342W        W31254  19.563  12.430  18.885 -0.0356 -0.1457 -0.0697
88343W        W31255  20.221   9.623  22.140  0.0380 -0.0431  0.2229
88344W        W31256  19.876  12.659  21.261  0.1784  0.2165  0.3108
88345W        W31257  21.781  13.781  18.612 -0.0837 -0.1862 -0.1078
88346W        W31258  21.716  13.901  21.096 -0.1768 -0.0576 -0.1296
88347W        W31259  19.245  12.695  19.312  0.0583  0.0536  0.1454
88348W        W31260  20.075  11.152  21.499 -0.0073 -0.0912 -0.3383
88349W        W31261  19.217  13.218  20.156  0.2501 -0.0538  0.1187
88350W        W31262  20.272  10.654  19.353 -0.0640 -0.3649 -0.2642
88351W        W31263  18.079  10.895  20.856  0.0070  0.1064  0.1392
88352W        W31264  21.169  11.520  19.582 -0.0693  0.0471  0.3260
88353W        W31265  21.596  11.787  19.990  0.1269 -0.2398 -0.1067
88354W        W31266  19.021  11.665  23.058 -0.0108  0.0288 -0.0831
88355W        W31267  20.978  10.412  22.984 -0.1682 -0.2698 -0.2767
88356W        W31268  21.724  11.803  23.069  0.1280 -0.2262  0.0218
88357W        W31269  21.163  12.097  20.037  0.1805  0.0862 -0.0256
88358W        W31270  21.503  14.276  20.820  0.1053  0.1988  0.1340
88359W        W31271  19.987  12.607  22.091 -0.2202  0.0498  0.0443
88360W        W31272  17.627  10.684  20.075 -0.4242 -0.1974 -0.1793
88361W        W31273  22.106  11.048  21.428 -0.0055  0.1334 -0.0585
88362W        W31274  19.565  11.819  20.172  0.1423  0.4304  0.0370
88363W        W31275  18.960  13.089  19.564 -0.2123 -0.1347  0.0829
88364W        W31276  21.304  14.740  20.640 -0.3754 -0.1820 -0.0931
88365W        W31277  20.514  13.894  18.433  0.2419 -0.0265 -0.2581
88366W        W31278  20.199  12.177  20.140  0.1934 -0.0363  0.5243
88367W        W31279  19.421  11.949  23.813 -0.0867 -0.1625 -0.2096
88368W        W31280  20.953  12.404  22.247 -0.2801  0.0574  0.3502
88369W        W31281  19.404  11.996  21.472  0.2933  0.0029  0.2607
88370W        W31282  18.602  10.397  19.113  0.0057  0.1402 -0.1830
88371W        W31283  20.409  12.076  21.526  0.0438  0.4670 -0.3282
88372W        W31284  21.001  13.217  20.805  0.1051 -0.1684  0.2454
88373W        W31285  19.770  11.084  21.905 -0.2931  0.2978 -0.1597
88374W        W31286  18.985  12.135  22.223  0.0780 -0.1179 -0.0340
88375W        W31287  20.764  10.815  20.945 -0.0541 -0.1523  0.3006
88376W        W31288  23.109  13.696  19.711 -0.0164  0.0728  0.0434
88377W        W31289  19.878  12.771  22.638  0.1294  0.1684 -0.2173
88378W        W31290  19.497  11.438  19.305  0.0152 -0.1720  0.0360
88379W        W31291  17.142  12.589  20.166  0.0930 -0.0856 -0.2623
88380W        W31292  20.302  11.641  20.089 -0.1747  0.0527 -0.1387
88381W        W31293  20.359  11.122  22.418 -0.2774  0.3868  0.1041
88382W        W31294  19.501  12.747  20.850 -0.0843 -0.4104 -0.2000
88383W        W31295  19.310  12.835  19.831  0.1992 -0.2254 -0.1203
88384W        W31296  22.231  10.526  20.255 -0.4584  0.0107 -0.0222
88385W        W31297  21.560  12.449  20.265 -0.0532 -0.0283  0.3868
88386W        W31298  19.918  11.912  20.527 -0.0403 -0.1746 -0.0761
88387W        W31299  21.325  12.148  22.057 -0.0841 -0.1394 -0.2245
88388W        W31300  18.988  12.434  20.097 -0.1228 -0.0040 -0.3262
88389W        W31301  21.515   9.676  23.504  0.2142 -0.0817 -0.1152
88390W        W31302  19.621  11.484  21.712  0.0067 -0.1766 -0.2601
88391W        W31303  21.438  13.621  19.909  0.0422  0.0527 -0.1550
88392W        W31304  19.961  11.902  22.950  0.1905  0.0520  0.0756
88393W        W31305  20.853  13.333  23.593 -0.4304  0.3116  0.1223
88394W        W31306  19.969  10.943  22.936 -0.0256  0.1220 -0.3292
88395W        W31307  18.475  10.578  20.665  0.3084 -0.1410 -0.0359
88396W        W31308  19.572  10.637  20.207 -0.0506 -0.0831 -0.2204
88397W        W31309  19.936  12.415  20.692 -0.1201 -0.0148  0.2592
88398W        W31310  21.541  13.515  21.477 -0.0372  0.1178  0.0381
88399W        W31311  21.658  11.257  20.189 -0.0189 -0.2116 -0.0459
88400W        W31312  20.794  11.360  21.220 -0.0211  0.1284  0.4113
88401W        W31313  18.466  12.327  19.831 -0.0894 -0.2284  0.2944
88402W        W31314  21.211  11.140  20.956  0.1204 -0.0302 -0.0142
88403W        W31315  20.993  13.304  18.663 -0.1728  0.2762  0.3624
88404W        W31316  19.736  12.321  20.276  0.3568 -0.2053  0.0795
88405W        W31317  20.927  10.848  23.257 -0.1695  0.2334  0.1279
88406W        W31318  21.088  12.399  21.072 -0.0897  0.1461 -0.1266
88407W        W31319  19.319  10.628  21.216  0.0951  0.0003 -0.0231
88408W        W31320  21.505  11.869  22.490 -0.0561  0.1430  0.0812
88409W        W31321  20.915  13.962  22.570 -0.0507  0.2676  0.2535
88410W        W31322  19.514  12.582  23.431  0.1358  0.0726 -0.0362
88411W        W31323  17.392  10.435  22.948 -0.2293  0.3155  0.1395
88412W        W31324  22.167  14.795  21.417 -0.0471  0.0490  0.1159
88413W        W31325  22.685  11.602  21.103  0.1365 -0.0836  0.0010
88414W        W31326  22.414  11.873  22.783 -0.1998  0.2525 -0.0109
88415W        W31327  21.016  11.469  21.722  0.5126  0.1225 -0.0142
88416W        W31328  20.151  12.446  19.637 -0.1726  0.0565  0.0051
88417W        W31329  18.114  10.797  20.319 -0.1840  0.0192 -0.0748
88418W        W31330  20.682  12.668  23.043 -0.2681 -0.3659  0.2532
88419W        W31331  20.903  10.872  19.993  0.1705 -0.1360  0.3211
88420W        W31332  20.106  12.601  23.037 -0.0621 -0.2319 -0.0834
88421W        W31333  21.274  13.761  18.746  0.0760  0.0076  0.0276
88422W        W31334  21.045  12.420  21.658 -0.4086 -0.1937 -0.1116
88423W        W31335  20.643  11.293  20.174  0.2916  0.1284 -0.0181
88424W        W31336  18.147  11.361  20.617  0.0909  0.1346  0.2429
88425W        W31337  19.085  12.299  21.735  0.2115  0.1161 -0.0175
88426W        W31338  19.486  10.244  18.976 -0.2606 -0.1269  0.3204
88427W        W31339  19.867  11.477  18.383 -0.3921  0.1426 -0.1672
88428W        W31340  20.684  13.628  21.112  0.0017 -0.1803 -0.1785
88429W        W31341  22.792  12.895  23.446 -0.3718  0.1613 -0.2494
88430W        W31342  21.310  10.589  19.892 -0.1189 -0.0944 -0.2381
88431W        W31343  21.677  12.940  22.423  0.1756 -0.2160  0.2675
88432W        W31344  19.766  12.691  19.852 -0.0435  0.0987  0.0646
88433W        W31345  19.045  10.357  21.537 -0.4682 -0.2492  0.2509
88434W        W31346  18.825  13.039  21.764 -0.1105  0.1691  0.2099
88435W        W31347  19.334  13.300  19.183  0.0721 -0.3127 -0.0552
88436W        W31348  20.578  10.863  22.844 -0.0785  0.3515 -0.2691
88437W        W31349  20.816  12.026  21.909 -0.3822  0.0219 -0.1913
88438W        W31350  20.761  12.760  20.889 -0.2119  0.1521 -0.1128
88439W        W31351  21.313  13.916  21.677  0.1280 -0.1411  0.1081
88440W        W31352  20.185  14.327  21.544  0.3421  0.1734 -0.1037
88441W        W31353  18.694  11.545  21.393 -0.0755  0.0423 -0.0409
88442W        W31354  20.940  14.140  21.994  0.0614  0.1305  0.0716
88443W        W31355  21.013  12.945  21.264 -0.1229  0.0898  0.0629
88444W        W31356  20.241  12.719  20.075 -0.2313 -0.1660  0.4153
88445W        W31357  18.621  10.546  22.421 -0.0711  0.0683  0.1302
88446W        W31358  20.400  12.220  22.077 -0.1255 -0.0314  0.0030
88447W        W31359  20.076  11.713  21.507  0.2370  0.1944 -0.1336
88448W        W31360  21.790  11.231  19.618 -0.4517 -0.2200 -0.1742
88449W        W31361  20.586  12.964  18.895 -0.2423  0.0584  0.1692
88450W        W31362  19.500  13.238  20.676  0.2182 -0.1863  0.1331
88451W        W31363  19.120  11.787  20.861  0.1788 -0.1376  0.3958
88452W        W31364  19.354  14.194  18.199 -0.0839 -0.3123  0.1161
88453W        W31365  21.277  12.798  20.486 -0.1226  0.2520 -0.0889
88454W        W31366  20.989  13.537  17.672 -0.1202  0.0887 -0.0722
88455W        W31367  21.057  13.954  20.229  0.3229 -0.0073  0.2155
88456W        W31368  19.303  11.230  20.281  0.3081  0.4517  0.0730
88457W        W31369  17.835  12.908  18.847 -0.0009 -0.1198  0.4066
88458W        W31370  20.977  13.504  19.714  0.2199 -0.2135 -0.0992
88459W        W31371  19.414  14.231  19.067 -0.2604  0.1207 -0.3583
88460W        W31372  23.577  13.455  22.199  0.0085 -0.3278  0.2119
88461W        W31373  21.274  10.552  19.346  0.3828 -0.2712  0.2734
88462W        W31374  21.066  12.163  20.507 -0.1449 -0.1198  0.0932
88463W        W31375  21.866  10.470  20.631 -0.0793  0.0777  0.0674
88464W        W31376  21.772  14.122  22.059 -0.2651  0.0251 -0.1887
88465W        W31377  19.956  12.019  21.952 -0.0592 -0.1063 -0.1781
88466W        W31378  20.850  10.341  17.368  0.3418  0.2011 -0.0151
88467W        W31379  19.361  10.969  24.193 -0.2379  0.0997 -0.1226
88468W        W31380  22.124  10.407  23.973 -0.0297  0.0134  0.1090
88469W        W31381  18.913  13.839  20.974 -0.2613 -0.1503  0.1520
88470W        W31382  22.730  15.155  18.287 -0.2406  0.0184 -0.1651
88471W        W31383  18.396  11.355  19.517  0.0580  0.0137 -0.0888
88472W        W31384  19.025  11.684  20.349  0.1333  0.0690  0.1830
88473W        W31385  22.228  11.105  22.433  0.1828 -0.1028 -0.1256
88474W        W31386  20.487  12.787  19.377  0.1521  0.3125 -0.0451
88475W        W31387  20.715  11.246  20.689 -0.1331 -0.2343 -0.2740
88476W        W31388  18.919  13.543  18.348 -0.3337 -0.0884  0.0607
88477W        W31389  20.154  12.483  21.675  0.0647 -0.4587 -0.0752
88478W        W31390  21.155  13.961  19.766 -0.0617  0.0985 -0.1242
88479W        W31391  17.172  10.382  21.184 -0.0852  0.0583 -0.0990
88480W        W31392  21.237  11.942  20.935  0.1828  0.2913 -0.3354
88481W        W31393  20.367  12.921  22.745 -0.0181  0.2477 -0.0354
88482W        W31394  20.567  10.926  21.469 -0.0553  0.2070  0.0436
88483W        W31395  18.710  12.088  20.756  0.1932  0.0618  0.1230
88484W        W31396  22.032  11.136  20.512 -0.3877  0.1301 -0.0650
88485W        W31397  21.446  13.030  21.499 -0.0366 -0.0689 -0.2282
88486W        W31398  18.268  11.271  21.238  0.0783 -0.0084 -0.4035
88487W        W31399  20.946  12.951  21.840 -0.1191 -0.0618  0.0843
88488W        W31400  22.069  12.011  24.029 -0.1407 -0.1466  0.1106
88489W        W31401  21.960  10.987  18.773 -0.2623 -0.2401  0.0832
88490W        W31402  19.678  14.520  22.425 -0.2393  0.1460  0.1503
88491W        W31403  18.420  10.947  19.904 -0.3232 -0.0050  0.2038
88492W        W31404  20.374  11.137  19.221 -0.1672  0.3324  0.1310
88493W        W31405  18.134  13.059  19.930 -0.0982  0.0699  0.2633
88494W        W31406  19.749  11.572  22.238 -0.2606 -0.1942  0.3631
88495W        W31407  22.074  14.271  20.304  0.0372 -0.1605 -0.2412
88496W        W31408  17.169  11.223  20.630 -0.1668  0.0177 -0.2083
88497W        W31409  22.718  13.385  19.574  0.1390  0.0598  0.0773
88498W        W31410  21.597  12.618  21.769  0.0714  0.1733  0.2017
88499W        W31411  20.564  14.168  19.074 -0.1619 -0.0665  0.0879
88500W        W31412  21.715  12.358  21.274  0.0796  0.2706 -0.0869
88501W        W31413  21.055  15.114  20.990 -0.0242  0.0536 -0.0776
88502W        W31414  19.085  12.627  22.112  0.0429 -0.1650  0.2028
88503W        W31415  21.171  14.793  21.363 -0.2840 -0.0828 -0.0548
88504W        W31416  21.578  14.306  21.498  0.0028  0.0597 -0.0835
88505W        W31417  20.425  11.415  19.617 -0.1983  0.2048 -0.1996
88506W        W31418  19.569  11.132  21.334  0.0902  0.0138 -0.0450
88507W        W31419  19.412  13.701  18.946  0.1142 -0.0202 -0.0837
88508W        W31420  22.038  10.901  20.949  0.1614 -0.2640 -0.0845
88509W        W31421  21.358  11.470  23.266 -0.0705 -0.0674  0.2004
88510W        W31422  21.500  13.907  18.108  0.1624 -0.0460 -0.4326
88511W        W31423  21.315  10.683  23.516 -0.0384 -0.1403  0.0453
88512W        W31424  22.044  12.827  21.901  0.3393 -0.1443 -0.2213
88513W        W31425  20.234  13.026  21.440  0.0322  0.1589  0.1369
88514W        W31426  18.714  11.906  19.274  0.0509 -0.1400  0.1133
88515W        W31427  20.932  12.330  22.775 -0.4734  0.4227  0.0275
88516W        W31428  20.081  10.687  20.272 -0.1585 -0.3647  0.3163
88517W        W31429  19.800  13.387  19.070  0.0581 -0.0193 -0.3292
88518W        W31430  22.774  14.785  21.455  0.1944 -0.0751 -0.1133
88519W        W31431  20.344  11.595  20.580  0.0484 -0.0349  0.0668
88520W        W31432  21.926  14.009  20.647 -0.1103  0.0254  0.0615
88521W        W31433  19.911  11.303  20.900 -0.2149 -0.3036  0.3125
88522W        W31434  22.196   9.823  22.411  0.3334 -0.1318  0.3618
88523W        W31435  22.256  10.145  20.646  0.1758  0.1284  0.1302
88524W        W31436  19.380  12.510  21.359  0.3505 -0.1407 -0.1086
88525W        W31437  18.458  11.509  18.992  0.1644  0.0767 -0.1357
88526W        W31438  18.805  12.861  20.157 -0.1510 -0.2602  0.0767
88527W        W31439  18.607  13.316  20.448  0.2279 -0.0198 -0.0475
88528W        W31440  21.519  10.092  22.699  0.0945  0.0833  0.1648
88529W        W31441  19.064  11.861  24.171  0.2921 -0.1635 -0.1271
88530W        W31442  18.584  11.587  20.547  0.0973 -0.0760  0.1546
88531W        W31443  19.545   9.947  20.783 -0.0471  0.0512  0.2865
88532W        W31444  22.837  14.380  19.408 -0.0055 -0.0229 -0.0459
88533W        W31445  18.503   9.906  19.369  0.0560  0.1358 -0.0648
88534W        W31446  19.371  10.840  21.696 -0.1899 -0.0295  0.0440
88535W        W31447  22.162  13.056  20.970 -0.0248  0.2070 -0.2534
88536W        W31448  22.899  11.979  19.988 -0.1016 -0.0648  0.2529
88537W        W31449  19.779  10.951  20.558  0.2452 -0.2805  0.1866
88538W        W31450  22.297  14.456  23.269 -0.3425 -0.2193  0.0003
88539W        W31451  18.490  12.732  18.030 -0.3638  0.1294  0.0420
88540W        W31452  21.579  12.335  23.051 -0.1554 -0.1612 -0.3821
88541W        W31453  21.229  11.604  23.799  0.1223 -0.3140 -0.0094
88542W        W31454  19.810  10.437  17.904  0.0743  0.2317 -0.1829
88543W        W31455  19.449  11.950  22.154 -0.1209 -0.0292 -0.2236
88544W        W31456  21.466  13.276  20.510  0.3932  0.0923 -0.1371
88545W        W31457  21.061  14.275  19.349 -0.2704 -0.1037  0.0273
88546W        W31458  20.280  13.203  20.265  0.2412 -0.0357 -0.0944
88547W        W31459  20.351  13.438  21.663  0.0561 -0.0013 -0.0953
88548W        W31460  18.588  11.001  20.909 -0.3651 -0.1382  0.0350
88549W        W31461  21.919  12.182  20.615  0.0157  0.0083  0.1931
88550W        W31462  20.308  13.460  22.836  0.2923 -0.0794 -0.0358
88551W        W31463  22.724  13.350  19.060  0.0164  0.1826  0.2868
88552W        W31464  22.878  12.051  20.480  0.0756  0.3980  0.2326
88553W        W31465  20.879  11.841  21.405 -0.1235  0.2768  0.2496
88554W        W31466  18.162  10.622  22.688  0.0727  0.2993  0.1059
88555W        W31467  18.487  11.087  23.166  0.2013 -0.0482  0.3157
88556W        W31468  21.203  13.740  22.167 -0.0794  0.1620 -0.0324
88557W        W31469  20.228  11.098  20.565  0.0095 -0.0581 -0.0976
88558W        W31470  21.169  10.995  20.483  0.1922  0.1587  0.3521
88559W        W31471  19.872  13.986  19.276 -0.1420 -0.1028 -0.1467
88560W        W31472  18.340  10.754  21.263 -0.3430 -0.2376  0.0964
88561W        W31473  20.192  11.200  20.026  0.3783  0.0445 -0.0421
88562W        W31474  20.180  11.780  22.440  0.1863  0.0761  0.1318
88563W        W31475  21.025  13.459  20.232 -0.1449 -0.1940 -0.1671
88564W        W31476  21.041  12.732  24.495  0.1243  0.1658 -0.0184
88565W        W31477  19.891  10.625  19.778 -0.3088  0.1107 -0.0052
88566W        W31478  21.411  11.867  18.691 -0.0739 -0.0690  0.0417
88567W        W31479  22.458  14.228  20.722 -0.2162  0.0469 -0.3483
88568W        W31480  22.027  15.117  23.019  0.0855  0.0318 -0.1123
88569W        W31481  20.778  14.897  21.830  0.1379  0.3181  0.2485
88570W        W31482  20.878  12.206  23.651  0.2423  0.1126 -0.2997
88571W        W31483  18.350   9.522  21.778 -0.0129  0.2917  0.2131
88572W        W31484  20.272  10.622  20.751 -0.0612 -0.1496  0.0523
88573W        W31485  20.295  11.534  21.084  0.0288  0.3030 -0.1552
88574W        W31486  20.180  11.476  21.935  0.0546 -0.1489 -0.0277
88575W        W31487  18.841  10.030  20.485  0.3657 -0.1927 -0.1080
88576W        W31488  21.383  10.088  20.965  0.0561  0.1914  0.0466
88577W        W31489  19.102  12.923  21.278 -0.3342  0.0672  0.0099
88578W        W31490  21.904  12.861  21.359  0.2686 -0.3346  0.1089
88579W        W31491  20.170  14.409  26.713 -0.0386 -0.4175 -0.0628
88580W        W31492  18.286  11.799  23.797 -0.1908  0.2573 -0.2130
88581W        W31493  20.530  12.622  23.493 -0.3521 -0.0776  0.0061
88582W        W31494  20.475  12.465  24.508 -0.2147 -0.0604 -0.0548
88583W        W31495  17.779  11.329  24.751 -0.1050 -0.0237 -0.1526
88584W        W31496  21.698  14.782  23.120 -0.1139  0.0593  0.3971
88585W        W31497  18.839  10.603  26.460  0.2137 -0.6094 -0.1052
88586W        W31498  20.036  14.591  25.541 -0.2318  0.0929  0.0496
88587W        W31499  20.879  14.992  25.296 -0.1139  0.1000 -0.0141
88588W        W31500  21.294  13.087  22.673 -0.2195 -0.1209  0.4605
88589W        W31501  19.878  11.669  26.541 -0.0410 -0.0621 -0.1383
88590W        W31502  19.551  14.291  25.259 -0.0071 -0.2595  0.0065
88591W        W31503  18.431   9.554  24.147  0.1970 -0.1709 -0.0207
88592W        W31504  17.812  10.908  26.132 -0.0703  0.0805 -0.2514
88593W        W31505  19.993  13.881  23.783 -0.3658 -0.1710 -0.2823
88594W        W31506  18.194  10.782  23.896  0.2082 -0.2513 -0.2496
88595W        W31507  18.519  12.624  25.181  0.1337 -0.0804  0.1487
88596W        W31508  20.326  12.182  23.744  0.0762  0.1402  0.0899
88597W        W31509  19.792  15.244  23.153 -0.3544 -0.2620  0.1899
88598W        W31510  19.788  10.689  26.220 -0.0143 -0.0972 -0.2455
88599W        W31511  19.750  11.675  25.939 -0.3889 -0.1437 -0.3257
88600W        W31512  20.499  12.985  23.847 -0.3229 -0.0336  0.0949
88601W        W31513  19.105  10.860  22.570  0.1445 -0.1037  0.0269
88602W        W31514  17.470  11.666  25.384  0.2480  0.0531 -0.0965
88603W        W31515  19.166  12.743  26.351 -0.1354  0.0181  0.0009
88604W        W31516  20.424  11.616  24.986  0.0390  0.1142 -0.0467
88605W        W31517  22.052  13.244  24.926  0.1215 -0.1460  0.4188
88606W        W31518  20.000  14.599  23.575 -0.2814 -0.2439 -0.0204
88607W        W31519  20.448  14.402  25.282  0.4047 -0.0850 -0.0222
88608W        W31520  21.668  11.482  26.076  0.2122 -0.1832 -0.2690
88609W        W31521  19.186  12.792  24.567  0.1918 -0.2213  0.0431
88610W        W31522  20.321  13.905  21.864  0.0730 -0.3730  0.2001
88611W        W31523  21.041  13.594  24.929  0.1374 -0.2388  0.4334
88612W        W31524  20.602  13.854  27.404 -0.0843 -0.3799  0.2947
88613W        W31525  19.091  13.927  27.191 -0.1041  0.0339 -0.1758
88614W        W31526  19.273  13.800  21.607  0.0940  0.2585  0.3306
88615W        W31527  20.081  13.803  26.415 -0.1599 -0.0498 -0.1687
88616W        W31528  19.171  13.835  25.429  0.0010  0.0442 -0.0405
88617W        W31529  20.561  11.502  25.486 -0.0969 -0.2725  0.0933
88618W        W31530  19.481  12.235  25.222  0.1334 -0.0208  0.1318
88619W        W31531  19.827  13.567  23.244  0.2701 -0.0261  0.3378
88620W        W31532  20.734  14.649  24.966  0.0062 -0.0985  0.5051
88621W        W31533  19.815  12.869  24.611  0.0379  0.2402 -0.1780
88622W        W31534  18.630  14.339  22.020  0.1475  0.0611 -0.2492
88623W        W31535  22.072  10.946  27.720  0.1053 -0.0908 -0.0431
88624W        W31536  19.928  13.738  22.698 -0.0949  0.0243 -0.0496
88625W        W31537  21.507  11.593  24.258  0.0111  0.2062 -0.0065
88626W        W31538  21.044  11.098  23.717  0.4648  0.1553  0.0722
88627W        W31539  19.717  12.413  24.744 -0.3173  0.0159 -0.0311
88628W        W31540  19.199  10.073  25.947 -0.0259  0.1499 -0.0251
88629W        W31541  20.203  14.424  22.495  0.2838  0.2516 -0.2614
88630W        W31542  19.254  11.523  25.639 -0.3248  0.0719  0.2491
88631W        W31543  20.748  14.749  26.621 -0.1036  0.1219  0.3110
88632W        W31544  19.827  12.359  23.829 -0.2496  0.3629 -0.0501
88633W        W31545  20.528  10.753  26.026 -0.0914 -0.1857 -0.0665
88634W        W31546  19.426  13.850  23.548  0.0351  0.0186  0.1599
88635W        W31547  18.141  11.153  24.477 -0.0716  0.0291 -0.2782
88636W        W31548  21.351  14.240  22.303  0.0960 -0.1681  0.4152
88637W        W31549  22.333  13.928  23.821  0.1539  0.1848  0.0848
88638W        W31550  21.182  14.484  22.736  0.1473 -0.1677  0.2207
88639W        W31551  18.689  12.647  24.471 -0.0596  0.1862 -0.5235
88640W        W31552  19.030  12.224  26.392  0.0978  0.1484 -0.0049
88641W        W31553  18.638  12.309  25.627  0.0710 -0.1704 -0.2739
88642W        W31554  19.866  11.179  24.234  0.0628 -0.0210 -0.2347
88643W        W31555  22.280  13.048  26.645 -0.0263  0.4180  0.0740
88644W        W31556  18.657  13.602  23.883  0.0614 -0.1056 -0.0199
88645W        W31557  21.506  10.020  24.848  0.2462  0.1798 -0.1279
88646W        W31558  19.929  12.176  21.328  0.1898 -0.1652 -0.1293
88647W        W31559  20.826  15.012  24.628 -0.2667 -0.0954 -0.0866
88648W        W31560  20.718  13.193  22.975 -0.1607  0.1725 -0.1145
88649W        W31561  22.043  12.857  25.165  0.1356  0.0607  0.0520
88650W        W31562  21.445  10.768  26.541 -0.0154 -0.2347 -0.0312
88651W        W31563  18.979  10.616  23.987 -0.3025 -0.2209 -0.0680
88652W        W31564  19.105  12.914  23.565 -0.0441 -0.3127 -0.2003
88653W        W31565  20.805  13.507  25.813  0.3558  0.1379  0.0604
88654W        W31566  20.388  12.060  24.233 -0.2145  0.1329 -0.1830
88655W        W31567  20.131  15.880  23.633 -0.2860  0.1013  0.0679
88656W        W31568  20.512  12.368  26.569  0.1412  0.1502  0.2498
88657W        W31569  21.308  14.216  25.834 -0.0995  0.0314  0.0612
88658W        W31570  19.669  13.447  21.521  0.2393 -0.0216  0.4619
88659W        W31571  19.442  13.069  22.601 -0.1032  0.1841 -0.1612
88660W        W31572  19.412  12.530  22.593 -0.3472  0.0177 -0.0957
88661W        W31573  18.933  12.538  26.712 -0.2167  0.1326  0.1519
88662W        W31574  18.699  13.412  25.052  0.2512  0.1095 -0.2419
88663W        W31575  21.541  12.008  23.965  0.1795 -0.0698  0.0165
88664W        W31576  19.690  11.821  25.472 -0.0900  0.2087  0.4290
88665W        W31577  21.712  12.140  24.417 -0.0319  0.1240  0.1711
88666W        W31578  18.654  12.118  23.864 -0.2626  0.1126  0.0130
88667W        W31579  20.948  14.525  24.382  0.1439 -0.0018  0.1053
88668W        W31580  21.636  11.627  24.747  0.3656  0.0048 -0.0046
88669W        W31581  21.596  14.803  21.592  0.2906 -0.0532 -0.2373
88670W        W31582  18.310  10.784  24.749  0.0244 -0.0251  0.0382
88671W        W31583  17.427  11.911  24.448 -0.1234  0.0070 -0.0651
88672W        W31584  19.575  11.640  28.248  0.1687  0.0191  0.2939
88673W        W31585  18.822  11.009  25.044  0.0712 -0.0879  0.0439
88674W        W31586  20.895  13.972  25.958 -0.1420  0.3015  0.2096
88675W        W31587  19.890   9.257  22.235 -0.2018  0.1791 -0.0911
88676W        W31588  20.077  11.669  24.404 -0.2457 -0.0040 -0.0857
88677W        W31589  20.210  11.297  24.710  0.0795 -0.0073  0.0574
88678W        W31590  18.334  12.097  22.873 -0.4026  0.1471  0.0781
88679W        W31591  22.151  11.828  25.943 -0.5871  0.1228  0.2148
88680W        W31592  21.409  14.067  23.708  0.0597  0.4265 -0.2126
88681W        W31593  21.332  14.442  26.519 -0.1055 -0.2086  0.2788
88682W        W31594  21.536  13.407  24.986  0.0162  0.0351 -0.0054
88683W        W31595  19.376  11.569  25.157 -0.1932  0.1975 -0.1754
88684W        W31596  18.963  10.771  22.053  0.3236  0.0343 -0.1607
88685W        W31597  18.491  13.819  22.083 -0.1579 -0.0360 -0.2003
88686W        W31598  19.978  12.683  23.554  0.2731 -0.2651  0.1728
88687W        W31599  18.785  10.835  23.529  0.0563 -0.0843 -0.0573
88688W        W31600  21.788  14.603  26.271 -0.0987  0.3820 -0.0670
88689W        W31601  21.429  13.444  24.192 -0.0632  0.5303 -0.1327
88690W        W31602  18.219  13.345  23.879 -0.3366 -0.0016  0.1689
88691W        W31603  21.033  10.902  26.130 -0.0420  0.1675  0.5048
88692W        W31604  22.489  12.566  25.909 -0.1354  0.2165  0.1985
88693W        W31605  19.999  11.892  23.972 -0.1253 -0.3694  0.0294
88694W        W31606  19.033   9.854  23.363 -0.1730 -0.0937 -0.3316
88695W        W31607  20.960  14.046  25.440  0.2327  0.2841 -0.2817
88696W        W31608  19.579  13.409  22.239  0.1214 -0.1425 -0.2193
88697W        W31609  19.158  11.562  23.600  0.1354 -0.0401 -0.0401
88698W        W31610  20.232  12.955  25.416  0.0646 -0.0008  0.1854
88699W        W31611  22.663  11.318  26.261  0.1107  0.0773 -0.0064
88700W        W31612  18.404  13.541  24.427 -0.1053 -0.2334 -0.0866
88701W        W31613  22.288  12.257  26.190 -0.3309 -0.3782 -0.2152
88702W        W31614  18.573  10.616  24.273 -0.1410 -0.3554 -0.2079
88703W        W31615  19.779  14.259  24.030  0.1248 -0.1287  0.4463
88704W        W31616  21.258  12.434  24.082 -0.2129 -0.0899  0.0735
88705W        W31617  20.023  10.146  23.278  0.0783 -0.2718 -0.1991
88706W        W31618  20.563  12.346  27.170  0.3675  0.0423 -0.0515
88707W        W31619  22.485  13.059  25.014  0.3841 -0.5349  0.0303
88708W        W31620  20.321  11.747  23.334 -0.1896 -0.2071 -0.1898
88709W        W31621  22.505  10.334  23.571 -0.2923 -0.0353 -0.5079
88710W        W31622  19.053  13.858  26.537  0.1507 -0.0582 -0.0731
88711W        W31623  20.491  13.467  23.875 -0.1261  0.0080 -0.1860
88712W        W31624  19.797  13.243  25.264  0.0390 -0.1951 -0.2120
88713W        W31625  20.965  10.007  22.625  0.1255 -0.1548  0.0936
88714W        W31626  23.257  14.067  25.105  0.1739  0.1308 -0.0953
88715W        W31627  18.590  13.128  24.223 -0.0775  0.0156  0.0739
88716W        W31628  21.382  13.032  26.740 -0.2164  0.2724 -0.0082
88717W        W31629  20.514  14.331  24.548 -0.2791  0.1329  0.1092
88718W        W31630  19.192  11.200  24.721 -0.0631 -0.2559  0.2060
88719W        W31631  19.647  11.970  24.314 -0.1927 -0.1180 -0.2215
88720W        W31632  20.242  11.123  25.306  0.2520  0.1492  0.1698
88721W        W31633  18.898  13.498  21.453  0.1995  0.1550 -0.0480
88722W        W31634  21.163  11.495  25.971  0.3042 -0.0756 -0.0252
88723W        W31635  21.360  10.456  26.114 -0.1594  0.2495  0.0377
88724W        W31636  21.065  11.176  27.077  0.1493  0.3162  0.0097
88725W        W31637  21.635  12.888  27.842 -0.0781 -0.0713  0.0533
88726W        W31638  22.417  12.564  24.952 -0.1608  0.0092  0.0293
88727W        W31639  20.515  13.328  25.228  0.5691 -0.0183 -0.2278
88728W        W31640  18.684  10.723  22.913 -0.3999  0.0025 -0.0408
88729W        W31641  20.383  12.112  26.111  0.0839 -0.2837 -0.0069
88730W        W31642  18.377  11.543  25.409 -0.0264 -0.0052  0.0929
88731W        W31643  18.613  14.070  23.608 -0.0869  0.0076 -0.0530
88732W        W31644  21.371  13.538  26.869 -0.0539  0.2812  0.0133
88733W        W31645  20.696  12.958  25.687 -0.0231 -0.0926 -0.0545
88734W        W31646  20.276  11.529  26.263  0.1220 -0.1718  0.1383
88735W        W31647  20.421  11.186  23.250  0.0067  0.1749 -0.1221
88736W        W31648  19.543  14.413  21.916 -0.2673 -0.2742 -0.1103
88737W        W31649  19.941  11.381  23.234  0.0213 -0.1191  0.1165
88738W        W31650  19.483  10.856  24.645  0.5888  0.0899  0.0426
88739W        W31651  19.820  12.754  25.114  0.1816  0.0637  0.1807
88740W        W31652  22.858  13.314  22.690 -0.3913 -0.0237 -0.0027
88741W        W31653  19.635  12.787  26.137  0.1122 -0.1682 -0.0451
88742W        W31654  18.551  12.540  23.038 -0.0446 -0.1042  0.1257
88743W        W31655  22.105  10.914  26.036  0.0775 -0.3632 -0.1010
88744W        W31656  19.009  13.365  22.788 -0.3095 -0.0009 -0.1489
88745W        W31657  20.984   9.671  23.539  0.1916 -0.0857  0.2315
88746W        W31658  18.460  11.674  23.208  0.0750 -0.0756 -0.0330
88747W        W31659  20.930  11.698  23.365  0.2737  0.2628  0.0653
88748W        W31660  21.564  14.729  22.612  0.0943 -0.0624  0.2530
88749W        W31661  18.322  10.139  25.701 -0.0141 -0.2167 -0.0056
88750W        W31662  19.213  10.651  25.074 -0.1419 -0.0617  0.0547
88751W        W31663  18.743  12.558  23.539 -0.1227  0.0863  0.1017
88752W        W31664  18.879  12.382  24.881 -0.0898  0.0979  0.0058
88753W        W31665  20.304  10.895  24.446 -0.2125 -0.2349  0.1233
88754W        W31666  20.423  13.479  26.650 -0.2470  0.1579 -0.0254
88755W        W31667  20.532  13.621  28.538  0.0103 -0.1287 -0.1306
88756W        W31668  18.420   9.757  24.608  0.1340  0.3267 -0.2488
88757W        W31669  21.586  12.046  26.774  0.0294  0.3701  0.2682
88758W        W31670  18.652  11.002  24.017  0.2377 -0.1067 -0.0100
88759W        W31671  19.683  12.353  22.944  0.0694 -0.1251  0.2464
88760W        W31672  20.076  14.517  24.928  0.2993 -0.1378  0.0610
88761W        W31673  19.230  10.498  24.439 -0.0406  0.0387 -0.0950
88762W        W31674  19.569  12.606  24.267 -0.1018  0.1143 -0.1572
88763W        W31675  19.546  13.089  27.076 -0.0582 -0.1639 -0.0824
88764W        W31676  21.359  12.800  25.505 -0.0402  0.1930 -0.1005
88765W        W31677  19.088  11.952  25.082 -0.3181 -0.3105  0.3192
88766W        W31678  19.153  11.054  23.729 -0.2584  0.2634 -0.3179
88767W        W31679  20.930  13.960  24.399 -0.0439 -0.1258 -0.0933
88768W        W31680  20.845  11.694  26.353  0.1158 -0.0913  0.0718
88769W        W31681  20.827  11.894  25.863  0.2402  0.0530 -0.0071
88770W        W31682  18.739  12.566  26.205  0.1505  0.0125 -0.1020
88771W        W31683  21.015  10.268  24.801  0.4036  0.0502  0.3085
88772W        W31684  23.217  14.776  22.983  0.1215 -0.0654 -0.1618
88773W        W31685  22.203  13.330  27.178 -0.1895 -0.3053  0.0328
88774W        W31686  18.680  11.427  23.693 -0.1779  0.0459 -0.0422
88775W        W31687  18.072  13.120  24.361  0.0129 -0.4173  0.0748
88776W        W31688  21.580  12.826  23.618 -0.1815  0.1014 -0.0305
88777W        W31689  18.751  11.828  25.595 -0.1802 -0.1158 -0.0134
88778W        W31690  19.963  13.534  24.215  0.0747  0.2496  0.4615
88779W        W31691  19.976  13.493  21.961  0.0990 -0.2077 -0.0501
88780W        W31692  19.433  13.141  24.878 -0.0142  0.1858 -0.0141
88781W        W31693  21.469  10.500  24.704  0.0470 -0.4060 -0.2270
88782W        W31694  21.190  12.708  23.024  0.0290 -0.2129  0.1509
88783W        W31695  19.195  12.292  24.492  0.1300  0.0766 -0.0332
88784W        W31696  21.795   9.854  28.610 -0.1522  0.1192 -0.1204
88785W        W31697  19.334  12.651  25.001 -0.0842  0.3326 -0.1036
88786W        W31698  21.351  11.930  26.358  0.0499  0.1759  0.2344
88787W        W31699  20.615  11.185  26.318 -0.0502 -0.2384  0.0066
88788W        W31700  20.436  13.681  24.885 -0.1069 -0.0716  0.0144
88789W        W31701  18.965  13.425  25.578 -0.0153 -0.0463  0.0102
88790W        W31702  21.542  14.845  28.183  0.0995  0.1922  0.0883
88791W        W31703  18.747  13.252  26.015 -0.2429 -0.1443  0.5080
88792W        W31704  19.697  11.469  24.709  0.3250 -0.2652  0.0420
88793W        W31705  20.910  10.542  23.739 -0.2121  0.1023 -0.3689
88794W        W31706  19.424  13.560  22.684 -0.2311  0.2790 -0.1787
88795W        W31707  21.441  13.694  25.887 -0.1771 -0.1803 -0.3027
88796W        W31708  19.606  12.834  23.830  0.2558  0.2626 -0.1164
88797W        W31709  20.395  12.448  25.747 -0.1819  0.1243  0.0170
88798W        W31710  18.909  13.724  23.369 -0.1465  0.1522  0.0282
88799W        W31711  21.629  12.882  24.947 -0.1106  0.1843  0.0371
88800W        W31712  20.258  13.035  23.294 -0.1753 -0.1271  0.1938
88801W        W31713  19.930  10.933  24.923  0.2106  0.1337  0.1592
88802W        W31714  19.382  11.662  26.713 -0.0825 -0.0754  0.0494
88803W        W31715  20.967  12.827  23.535  0.0373 -0.0742 -0.0465
88804W        W31716  20.714  13.334  24.729 -0.0365 -0.1540  0.0951
88805W        W31717  21.034  12.744  26.530 -0.1070  0.1860  0.2280
88806W        W31718  21.117  12.785  26.023 -0.0362 -0.0107 -0.1021
88807W        W31719  20.659  12.646  26.158 -0.0281  0.1940  0.0113
88808W        W31720  19.125  12.054  26.877  0.1719 -0.2945 -0.1877
88809W        W31721  20.922  14.122  26.486 -0.0824  0.0393  0.2207
88810W        W31722  21.245  10.109  23.591  0.2029 -0.2870 -0.2068
88811W        W31723  22.636  10.617  26.789  0.3593 -0.0170  0.0817
88812W        W31724  21.327  12.180  24.840 -0.0059 -0.0774 -0.0315
88813W        W31725  20.373  12.266  22.702 -0.1231  0.0733 -0.2403
88814W        W31726  20.029  11.981  25.005  0.2387 -0.1569  0.0061
88815W        W31727  20.749  13.813  26.833  0.0904 -0.2152  0.0626
88816W        W31728  19.693  10.826  23.889  0.0978  0.0137  0.2228
88817W        W31729  21.275  11.299  26.433  0.1735  0.1514  0.1250
88818W        W31730  20.562  14.472  21.966 -0.1557 -0.0147 -0.5561
88819W        W31731  20.521  13.691  26.234 -0.3018 -0.3913 -0.3215
88820W        W31732  20.772  12.377  24.993 -0.1926 -0.3777 -0.2494
88821W        W31733  18.331  11.346  24.954 -0.0186 -0.0157 -0.0221
88822W        W31734  19.710  14.010  24.693 -0.0937  0.0616 -0.2314
88823W        W31735  18.055  11.248  22.404  0.2233 -0.2226 -0.1452
88824W        W31736  20.417  12.230  23.230  0.1310  0.4397  0.1365
88825W        W31737  20.263  13.533  25.821  0.0257 -0.1974 -0.1330
88826W        W31738  21.859  12.408  27.637  0.0152  0.1414  0.0826
88827W        W31739  19.675  10.697  25.384 -0.2395 -0.1874 -0.2209
88828W        W31740  20.565  11.185  25.824  0.0737 -0.1254  0.1167
88829W        W31741  19.183  12.387  23.771 -0.2459 -0.0359  0.3087
88830W        W31742  21.572  10.936  26.034 -0.1967 -0.0894  0.0120
88831W        W31743  19.884  14.514  24.454  0.0572 -0.0859 -0.0467
88832W        W31744  17.799  12.431  25.038 -0.2152 -0.1374 -0.1555
88833W        W31745  21.049  11.646  25.437  0.0322  0.1625  0.1671
88834W        W31746  20.980  10.943  26.665 -0.1068 -0.1789 -0.0424
88835W        W31747  20.909  12.464  25.725 -0.1654 -0.1522 -0.0285
88836W        W31748  19.714  13.019  23.308 -0.1791 -0.0934 -0.1246
88837W        W31749  21.858  12.659  25.662 -0.0824  0.0381 -0.0140
88838W        W31750  21.241  13.239  25.843 -0.2076  0.3772 -0.0874
88839W        W31751  17.752  11.873  23.877  0.2122 -0.4972 -0.4363
88840W        W31752  20.909  14.437  27.892 -0.0563  0.2522  0.2601
88841W        W31753  20.482  13.636  24.364  0.1504  0.0339 -0.0992
88842W        W31754  20.811  13.148  26.193 -0.0854 -0.1841  0.2015
88843W        W31755  18.411  13.032  26.300 -0.2428 -0.0653  0.1352
88844W        W31756  20.146  12.666  26.256  0.0294  0.0255 -0.0176
88845W        W31757  20.242  12.494  25.083  0.0811 -0.1207 -0.1978
88846W        W31758  18.996  11.411  24.111 -0.1059 -0.0330  0.2153
88847W        W31759  21.216  13.526  22.891 -0.2085 -0.0358  0.1834
88848W        W31760  19.489  13.096  26.543  0.1960  0.0109 -0.2860
88849W        W31761  18.638  13.076  23.642 -0.0758  0.5705  0.1157
88850W        W31762  20.023  13.064  22.233  0.1433 -0.4126  0.0800
88851W        W31763  21.638  12.810  22.926 -0.0401  0.2256 -0.2921
88852W        W31764  21.716  13.379  22.892 -0.1057  0.0596 -0.0370
88853W        W31765  20.476  14.798  25.677  0.0820  0.0763 -0.1670
88854W        W31766  19.325   9.856  24.821  0.1401  0.0457  0.0157
88855W        W31767  18.559  13.601  22.810  0.0191  0.1023 -0.1219
88856W        W31768  19.359  12.865  21.658  0.2937 -0.1234 -0.0759
88857W        W31769  20.276  13.766  23.299  0.0106 -0.0687 -0.0561
88858W        W31770  20.046  13.357  23.644  0.0272 -0.1523 -0.0708
88859W        W31771  21.110  14.111  26.978  0.3030  0.0806 -0.0504
88860W        W31772  21.827  10.905  22.583  0.1642  0.0037  0.4297
88861W        W31773  22.514  11.322  25.780  0.0338  0.1298 -0.0007
88862W        W31774  21.109  10.463  24.270  0.3510 -0.2946  0.0096
88863W        W31775  21.285  15.105  27.104  0.0511  0.3224 -0.2606
88864W        W31776  18.596  11.927  24.878 -0.2691  0.2390  0.1197
88865W        W31777  19.979  12.210  23.370 -0.0154  0.1372  0.0500
88866W        W31778  20.468  12.940  26.491 -0.1878  0.1502  0.0705
88867W        W31779  21.858  11.497  27.686  0.0964  0.0091  0.0254
88868W        W31780  18.553  13.786  25.530  0.0200 -0.0447  0.2825
88869W        W31781  22.728  14.254  23.204 -0.0005  0.1736  0.0491
88870W        W31782  17.659  10.863  24.268 -0.2816 -0.1469  0.0884
88871W        W31783  19.514  11.968  24.835 -0.0446 -0.0679  0.2334
88872W        W31784  22.164  11.404  26.177  0.1542 -0.3034 -0.1650
88873W        W31785  21.141  13.469  21.194  0.2148 -0.0400 -0.1927
88874W        W31786  20.605  11.674  24.500 -0.1014 -0.3029 -0.0542
88875W        W31787  19.481  14.045  22.487  0.0169 -0.2440  0.0701
88876W        W31788  19.096  11.683  24.636  0.1936  0.0558 -0.0345
88877W        W31789  20.254  14.444  24.079 -0.1018 -0.0058  0.1857
88878W        W31790  18.894   9.736  24.282  0.2026 -0.1056  0.1183
88879W        W31791  22.201  10.896  24.187 -0.0362 -0.2864 -0.0810
88880W        W31792  19.412  12.372  26.614  0.4700  0.4811 -0.2662
88881W        W31793  21.320  11.906  25.765  0.0456  0.1425 -0.1671
88882W        W31794  19.464  11.524  24.250 -0.1658 -0.1823 -0.0331
88883W        W31795  20.999  13.147  25.334  0.0305 -0.3127  0.0506
88884W        W31796  19.512  13.490  25.601 -0.1343  0.0332  0.1293
88885W        W31797  19.637  11.150  25.821 -0.1271 -0.2644 -0.0490
88886W        W31798  19.985  12.320  24.326  0.2449  0.1460  0.1936
88887W        W31799  20.456  14.213  27.751 -0.0494 -0.1748  0.0842
88888W        W31800  20.665  11.862  23.002 -0.0513 -0.2909  0.0585
88889W        W31801  20.796  15.651  25.377  0.0847 -0.1982 -0.1835
88890W        W31802  19.097  10.374  25.568 -0.1463  0.1258  0.5422
88891W        W31803  20.761  12.461  24.101  0.0098  0.1392 -0.0174
88892W        W31804  19.496  11.615  23.161 -0.1749 -0.0754 -0.2397
88893W        W31805  20.462  12.080  24.802 -0.0265 -0.0248  0.1151
88894W        W31806  21.459  14.287  25.394 -0.1617 -0.2217 -0.1629
88895W        W31807  19.696   9.557  24.708  0.1397  0.0692 -0.3599
88896W        W31808  22.097  13.405  24.184  0.3151 -0.2422  0.0679
88897W        W31809  21.796  11.901  25.567 -0.1873  0.1894 -0.0612
88898W        W31810  20.639  14.131  21.187  0.0939 -0.3580 -0.1494
88899W        W31811  20.908  14.115  24.914 -0.5182  0.3154  0.1725
88900W        W31812  19.617  13.687  25.061  0.0141 -0.1137  0.1293
88901W        W31813  18.331  12.097  25.260 -0.2631  0.0931  0.0835
88902W        W31814  20.918  14.489  26.081 -0.2944 -0.0189  0.0292
88903W        W31815  21.993  13.936  24.917  0.1652 -0.0286  0.2349
88904W        W31816  20.917  10.695  25.073  0.1587  0.0636 -0.3381
88905W        W31817  18.629  11.086  24.603  0.0964  0.3147 -0.0847
88906W        W31818  19.390  13.755  20.777 -0.0100  0.0615  0.0633
88907W        W31819  21.145  12.738  25.043 -0.2143  0.0941 -0.1259
88908W        W31820  20.970  11.508  27.930  0.1244 -0.1343 -0.0653
88909W        W31821  20.779  13.493  22.556 -0.1913 -0.1182 -0.0391
88910W        W31822  22.880  10.817  27.155  0.3313  0.0965  0.0048
88911W        W31823  20.933  13.588  28.091  0.2056  0.3031 -0.2868
88912W        W31824  19.886  14.956  26.003  0.0966 -0.1476  0.1514
88913W        W31825  18.905  10.185  24.123 -0.1512  0.1096  0.2458
88914W        W31826  18.622  12.185  24.380 -0.0140  0.0543  0.1057
88915W        W31827  18.922  13.203  24.539 -0.0038  0.0155 -0.0624
88916W        W31828  19.928  14.998  22.431  0.4121 -0.1384  0.3416
88917W        W31829  21.859  14.185  25.865  0.1927 -0.1554 -0.3076
88918W        W31830  22.606  12.768  25.432  0.0111  0.5394  0.4663
88919W        W31831  21.148  13.167  23.908 -0.2708 -0.1202  0.0242
88920W        W31832  20.115   9.872  25.495  0.0837  0.0819 -0.0729
88921W        W31833  21.362  10.575  27.608  0.2359  0.3361 -0.1928
88922W        W31834  20.389  11.379  24.154 -0.0186 -0.1705  0.3059
88923W        W31835  19.558  13.227  24.241 -0.1676 -0.2037  0.1021
88924W        W31836  18.977  11.196  23.212  0.4406  0.2594  0.1660
88925W        W31837  19.831  13.243  22.829 -0.1252 -0.0801 -0.0815
88926W        W31838  19.555  12.918  22.130 -0.2407  0.1063 -0.0022
88927W        W31839  19.191  12.041  25.621 -0.1240  0.0893  0.0759
88928W        W31840  19.158  11.729  26.089 -0.0267  0.2694  0.1128
88929W        W31841  18.207  12.347  24.801  0.0219  0.0806 -0.0232
88930W        W31842  19.739  10.419  24.762  0.1621  0.1597  0.2539
88931W        W31843  21.302  13.180  23.248  0.3266 -0.0345 -0.1147
88932W        W31844  19.502   9.232  25.642 -0.0791 -0.1975  0.1559
88933W        W31845  18.702  10.507  25.337  0.1246 -0.2262 -0.1977
88934W        W31846  20.347  13.983  22.805 -0.1208 -0.4495 -0.1079
88935W        W31847  20.005  13.065  24.002  0.1852 -0.1490  0.2541
88936W        W31848  19.507  10.404  23.983 -0.3730 -0.1652 -0.1717
88937W        W31849  22.533  13.050  26.152  0.3165  0.1928  0.0756
88938W        W31850  19.584  12.370  21.844  0.1607  0.4312  0.1174
88939W        W31851  20.341  13.036  26.008  0.0490  0.1179  0.0844
88940W        W31852  19.029  12.490  25.370 -0.0188  0.1073 -0.1791
88941W        W31853  16.716  10.315  22.829 -0.3799  0.3289 -0.1652
88942W        W31854  20.218  11.936  25.599 -0.2103 -0.1223 -0.0361
88943W        W31855  21.214  13.604  25.406  0.2796 -0.0641  0.0049
88944W        W31856  21.632  15.214  22.671  0.2146  0.0132 -0.0255
88945W        W31857  19.017  12.867  24.110 -0.0523  0.2424 -0.3345
88946W        W31858  19.368  13.599  26.821 -0.1700  0.1070  0.1646
88947W        W31859  18.025  10.142  26.705  0.1136  0.2937 -0.0060
88948W        W31860  21.227  13.678  23.391 -0.1383 -0.1987 -0.2171
88949W        W31861  19.860  13.899  25.498  0.1946  0.0148  0.1942
88950W        W31862  22.866  12.929  25.828  0.0607  0.1228 -0.3075
88951W        W31863  22.679  11.965  24.030 -0.1921  0.1431 -0.0031
88952W        W31864  20.248  12.598  23.998  0.2422  0.2836 -0.1878
88953W        W31865  18.642  11.745  28.090  0.2955 -0.3730 -0.0432
88954W        W31866  19.943  13.197  25.727 -0.0262 -0.0559  0.0848
88955W        W31867  21.738  12.166  26.030  0.0391 -0.2036  0.1234
88956W        W31868  17.443  11.113  25.114 -0.2304 -0.3746  0.3981
88957W        W31869  21.048  12.013  24.076 -0.4834 -0.0100  0.0323
88958W        W31870  20.666  12.088  25.372  0.1826  0.4165 -0.0223
88959W        W31871  17.826  11.835  25.044 -0.0738  0.2545 -0.0147
88960W        W31872  20.665  11.389  23.648 -0.0182 -0.1958 -0.0496
88961W        W31873  20.215  13.072  24.907 -0.0619  0.3434 -0.1111
88962W        W31874  19.843  13.462  24.701  0.1037 -0.0844 -0.0072
88963W        W31875  20.914  13.237  26.744 -0.3079 -0.0563 -0.1263
88964W        W31876  20.893  12.184  24.506  0.2780  0.1123 -0.1833
88965W        W31877  21.818  12.475  23.917 -0.0395  0.3093  0.1193
88966W        W31878  20.300  14.833  26.934  0.0231  0.2247  0.0557
88967W        W31879  21.707  13.167  27.080  0.0871 -0.0065 -0.0148
88968W        W31880  20.162  14.074  25.892  0.2246  0.1575 -0.0027
88969W        W31881  20.381  13.909  25.391 -0.1116  0.0996  0.1131
88970W        W31882  18.364  10.935  25.373 -0.1833 -0.0902 -0.2297
88971W        W31883  20.162  11.383  23.708  0.3068 -0.2804  0.1043
88972W        W31884  20.854  13.998  23.543 -0.1901  0.2013  0.0664
88973W        W31885  21.397  12.451  25.802  0.0577 -0.1484  0.1308
88974W        W31886  19.135  10.914  25.554 -0.0221  0.0456  0.0492
88975W        W31887  20.443  10.819  24.969 -0.0243  0.0448  0.1605
88976W        W31888  20.123  15.369  25.848 -0.1892 -0.0258 -0.1317
88977W        W31889  20.654  12.631  25.369 -0.0706 -0.0760  0.4892
88978W        W31890  18.234  12.909  28.094 -0.0844  0.2640 -0.1299
88979W        W31891  19.863  12.207  25.936  0.3161 -0.0965 -0.0090
88980W        W31892  22.576  11.803  26.282  0.2175  0.0160  0.3115
88981W        W31893  21.228  12.095  28.937  0.1421 -0.2655 -0.5324
88982W        W31894  19.655  11.056  29.433  0.0448 -0.0326  0.0138
88983W        W31895  19.519  15.217  27.897  0.3005 -0.1817 -0.0005
88984W        W31896  18.456  11.116  31.617 -0.1953 -0.1067 -0.1382
88985W        W31897  20.816  14.258  30.070 -0.3620  0.2003  0.0873
88986W        W31898  21.547  13.785  29.554  0.3224  0.2066 -0.0827
88987W        W31899  21.041  12.183  26.719 -0.1218  0.3674  0.0561
88988W        W31900  19.360  10.312  30.878  0.4282  0.4600  0.0509
88989W        W31901  19.596  13.749  29.148  0.0359 -0.1367 -0.0845
88990W        W31902  20.145  11.402  28.151 -0.0490  0.1368 -0.4458
88991W        W31903  18.952  11.622  29.403 -0.1359  0.1023 -0.1513
88992W        W31904  19.665  13.286  28.975  0.2489 -0.0052 -0.0106
88993W        W31905  18.391  14.237  28.083 -0.1249  0.0804  0.0192
88994W        W31906  20.115  10.987  29.903 -0.0378  0.0066  0.0126
88995W        W31907  18.881  11.762  28.766 -0.0686 -0.0544  0.1672
88996W        W31908  21.209  14.040  28.130 -0.0614  0.1481  0.0823
88997W        W31909  18.030  11.292  31.343  0.2693 -0.0812 -0.2044
88998W        W31910  19.358  10.456  31.905 -0.0025 -0.2157 -0.2818
88999W        W31911  19.143  13.695  27.782  0.2486 -0.1322 -0.0978
89000W        W31912  19.080  13.058  26.900 -0.0253  0.0957 -0.0946
89001W        W31913  18.308  12.742  29.001 -0.3960  0.0153  0.4236
89002W        W31914  19.879  11.919  29.840  0.0606 -0.1131  0.2948
89003W        W31915  20.621  11.072  28.934 -0.0599 -0.0745  0.1931
89004W        W31916  21.103  13.180  27.195  0.1382 -0.0649 -0.0008
89005W        W31917  19.287  14.395  28.503 -0.2828 -0.5398  0.1361
89006W        W31918  20.479  14.242  29.725  0.0255 -0.0432 -0.0865
89007W        W31919  21.880  11.642  30.765  0.0356  0.1357 -0.2296
89008W        W31920  18.001  12.509  27.063  0.0252 -0.2294 -0.0865
89009W        W31921  19.579  13.662  26.341  0.1424 -0.1364 -0.1091
89010W        W31922  22.409  13.815  27.309 -0.2274 -0.2420 -0.0560
89011W        W31923  22.414  14.333  27.195  0.2995  0.1498  0.2286
89012W        W31924  21.156  14.055  29.311  0.0947  0.3941  0.2710
89013W        W31925  19.710  14.305  30.697  0.2594  0.3220  0.1130
89014W        W31926  19.836  13.651  26.789  0.1748  0.0350  0.3218
89015W        W31927  19.359  13.401  29.414  0.1680  0.0321  0.3010
89016W        W31928  18.094  13.180  30.438 -0.1774  0.0718  0.0923
89017W        W31929  19.578  12.447  30.248 -0.4199 -0.1735  0.2566
89018W        W31930  20.196  12.965  28.477  0.1923 -0.1870  0.0058
89019W        W31931  19.206  14.865  27.715  0.0710 -0.1178 -0.1420
89020W        W31932  22.063  13.798  27.665  0.1403  0.2140  0.3387
89021W        W31933  20.528  12.414  30.682 -0.1765 -0.0065  0.1835
89022W        W31934  18.262  13.797  27.809  0.1404  0.0211 -0.2313
89023W        W31935  21.720  11.788  30.360  0.1089 -0.2085 -0.0519
89024W        W31936  19.548  14.748  25.656  0.1113 -0.3888  0.3629
89025W        W31937  20.602  11.411  26.922  0.0554 -0.0416 -0.2160
89026W        W31938  19.904  12.265  25.429  0.0432 -0.0116  0.0578
89027W        W31939  20.785  11.877  27.022  0.0342  0.1915 -0.1461
89028W        W31940  19.073  10.830  30.799 -0.0926 -0.0380  0.2125
89029W        W31941  17.446  13.631  27.131 -0.0920  0.1226  0.0642
89030W        W31942  20.281  11.387  29.660 -0.1232  0.1430 -0.3347
89031W        W31943  20.804  12.767  30.393  0.1518  0.1836 -0.0328
89032W        W31944  20.194  11.672  27.530 -0.0596 -0.0928 -0.1361
89033W        W31945  21.442  10.730  29.246 -0.0847  0.3476 -0.1603
89034W        W31946  18.767  14.055  27.786 -0.3153  0.1765  0.1864
89035W        W31947  19.900  13.192  30.592 -0.0436  0.0740 -0.2496
89036W        W31948  20.539  14.791  27.562 -0.1273  0.1920  0.2703
89037W        W31949  20.754  12.664  28.724 -0.2170 -0.4112  0.3603
89038W        W31950  20.357  15.522  26.948 -0.1927 -0.0194  0.0057
89039W        W31951  19.142  13.013  28.360 -0.0631 -0.0243  0.2136
89040W        W31952  18.807  13.225  28.761 -0.1773  0.0563 -0.2070
89041W        W31953  19.178  12.616  30.041  0.0326 -0.2549 -0.2938
89042W        W31954  20.125  11.412  25.721 -0.1088 -0.0457  0.1927
89043W        W31955  21.708  12.380  29.594 -0.2366 -0.0869 -0.2468
89044W        W31956  18.466  13.391  29.570 -0.1643 -0.1286 -0.1389
89045W        W31957  21.618  11.055  27.822 -0.2702  0.1269 -0.0245
89046W        W31958  18.565  12.885  29.702 -0.1621  0.0310 -0.1080
89047W        W31959  20.759  12.264  30.204  0.0519 -0.0210 -0.0894
89048W        W31960  19.248  13.030  25.353  0.0093 -0.0603  0.0365
89049W        W31961  22.288  12.088  28.416  0.2847 -0.2094 -0.0005
89050W        W31962  20.490  10.934  31.378 -0.0978  0.0930 -0.0371
89051W        W31963  19.938  14.061  27.919  0.1008  0.1123 -0.1948
89052W        W31964  20.735  13.439  27.625 -0.0783  0.2744  0.3541
89053W        W31965  21.649  12.226  30.132  0.2477 -0.0999  0.2978
89054W        W31966  20.481  13.282  28.128  0.0473 -0.4512  0.0514
89055W        W31967  17.129  13.139  27.181  0.1482 -0.3505  0.0189
89056W        W31968  20.125  12.030  31.099 -0.0100  0.2247  0.0637
89057W        W31969  19.872  13.466  29.536  0.2709  0.5065  0.1173
89058W        W31970  19.373  14.164  26.339 -0.1100 -0.3565 -0.0103
89059W        W31971  18.643  12.801  27.715 -0.2124  0.2388  0.2947
89060W        W31972  18.596  13.904  26.429  0.0811 -0.1284  0.3399
89061W        W31973  18.722  12.546  30.304  0.1855  0.0429 -0.1534
89062W        W31974  19.103  13.963  28.232  0.1039  0.2900  0.1048
89063W        W31975  22.023  11.389  26.941  0.2000 -0.0425  0.2830
89064W        W31976  19.348   9.636  31.431  0.1710  0.2462 -0.0237
89065W        W31977  22.535  10.529  27.939 -0.2282 -0.2596  0.0745
89066W        W31978  19.705  12.793  28.859 -0.2235 -0.1569 -0.1462
89067W        W31979  22.131  14.231  28.035 -0.3716  0.0343  0.2150
89068W        W31980  21.000  12.280  26.196  0.0514 -0.2378  0.0740
89069W        W31981  19.988  14.510  27.670 -0.2603  0.3277 -0.1658
89070W        W31982  19.571  12.449  29.618 -0.1528 -0.1478 -0.0547
89071W        W31983  19.258  11.915  29.061 -0.1093  0.0020 -0.1096
89072W        W31984  19.141  10.624  31.252  0.2914  0.0497  0.0283
89073W        W31985  17.989  11.838  29.326 -0.2432 -0.0530  0.3131
89074W        W31986  21.206  11.986  30.182 -0.1558  0.1746  0.0791
89075W        W31987  18.176  10.883  28.737 -0.2658 -0.0676  0.1811
89076W        W31988  21.451  11.362  28.538  0.1298  0.0341  0.0889
89077W        W31989  19.867  12.078  27.523  0.2887 -0.1323  0.1648
89078W        W31990  21.079  13.019  27.823  0.4305 -0.0586  0.3221
89079W        W31991  21.420  11.327  30.849  0.0721 -0.0950 -0.1531
89080W        W31992  20.017  14.543  28.730 -0.0222 -0.1107  0.2311
89081W        W31993  21.688  13.965  30.561 -0.0081  0.2542 -0.1327
89082W        W31994  20.880  14.379  29.065 -0.1553 -0.0926  0.0833
89083W        W31995  19.879  10.068  31.603  0.0276  0.2191 -0.2080
89084W        W31996  19.784  12.703  26.638 -0.3089  0.2296 -0.1884
89085W        W31997  18.302  13.511  26.757  0.0151  0.0369 -0.4922
89086W        W31998  20.411  13.713  27.854  0.1317  0.2347 -0.1915
89087W        W31999  18.542  12.204  26.525 -0.0480 -0.0860  0.2483
89088W        W32000  22.843  13.209  29.189 -0.2038 -0.1078  0.4133
89089W        W32001  21.087  13.671  27.242 -0.0843  0.1798  0.1014
89090W        W32002  18.377  12.776  27.198 -0.1184 -0.0928  0.1830
89091W        W32003  20.905  10.667  31.572 -0.0898  0.1688  0.1415
89092W        W32004  19.671  13.120  28.452  0.0839 -0.1006  0.0583
89093W        W32005  20.547  13.162  28.800 -0.0406 -0.2868 -0.0009
89094W        W32006  19.651  12.056  27.051  0.0994 -0.2057 -0.0186
89095W        W32007  20.080  15.576  28.635  0.0398 -0.0011  0.2158
89096W        W32008  19.163  13.503  25.099  0.2442 -0.2403  0.1000
89097W        W32009  18.726  13.681  27.408  0.1207 -0.0287 -0.2007
89098W        W32010  19.883  13.982  28.741  0.2311 -0.4254 -0.1744
89099W        W32011  23.436  12.326  28.775  0.0462  0.2617  0.1964
89100W        W32012  18.376  11.618  30.670  0.0477  0.0837  0.0017
89101W        W32013  20.656  11.295  30.303  0.1410 -0.3279 -0.3191
89102W        W32014  19.720  13.175  27.698 -0.0015  0.0984 -0.1617
89103W        W32015  18.179  12.523  29.666  0.1951 -0.1241  0.1004
89104W        W32016  19.703  10.142  26.133  0.1032  0.0199  0.2459
89105W        W32017  21.674  11.616  27.179  0.0935 -0.1584  0.1166
89106W        W32018  20.022  12.463  30.463 -0.2510  0.0331 -0.0904
89107W        W32019  21.893  13.069  28.358  0.0194  0.4127  0.0979
89108W        W32020  19.690  13.684  27.716 -0.1636  0.2487 -0.1574
89109W        W32021  21.002  12.039  27.703 -0.0448  0.1486  0.0450
89110W        W32022  19.202  13.462  30.117  0.0318 -0.0161 -0.2475
89111W        W32023  21.265  13.608  27.756  0.1709 -0.1136  0.0777
89112W        W32024  20.194  13.903  28.351 -0.2454  0.4648 -0.0473
89113W        W32025  19.960  12.956  28.016 -0.3282 -0.0527 -0.0081
89114W        W32026  22.050  13.956  26.374  0.3085  0.1329 -0.1792
89115W        W32027  19.928  12.362  29.916  0.0016  0.2404 -0.2067
89116W        W32028  20.570  12.132   0.195 -0.0022 -0.2565  0.3420
89117W        W32029  21.122  14.557  28.363  0.2359  0.0189  0.0752
89118W        W32030  20.717  10.379  30.002  0.4552 -0.2020 -0.0139
89119W        W32031  20.174  12.163  26.955  0.2896 -0.0572  0.1557
89120W        W32032  19.736  11.625  27.327 -0.0794  0.0152  0.1834
89121W        W32033  17.934  12.936  27.584 -0.0044  0.1037  0.1726
89122W        W32034  19.971  11.921  27.939  0.1075 -0.1716 -0.2465
89123W        W32035  20.553  10.902  29.539 -0.0099  0.4081 -0.0694
89124W        W32036  20.010  10.206  29.393 -0.2066  0.0197  0.0117
89125W        W32037  21.137  12.425  29.908  0.2290  0.1151  0.2704
89126W        W32038  20.349  10.771  28.009  0.0159  0.1620 -0.1762
89127W        W32039  21.655  11.375  29.139  0.1609 -0.1946  0.1773
89128W        W32040  19.050  12.807  25.820  0.0062 -0.4111  0.1357
89129W        W32041  19.965  12.637  29.244  0.2793  0.2915 -0.1980
89130W        W32042  19.994  13.978  31.548 -0.1832 -0.0705 -0.1428
89131W        W32043  19.272  14.697  29.559  0.0963 -0.1853 -0.2066
89132W        W32044  22.436  13.455  31.155  0.2982 -0.2900  0.1377
89133W        W32045  20.620  14.747  28.141  0.0307  0.0537 -0.0855
89134W        W32046  19.182   9.863  30.995 -0.1287 -0.0726  0.0432
89135W        W32047  19.842  12.585  28.397  0.1366  0.2989  0.2774
89136W        W32048  19.684  13.885  27.191  0.0430  0.1009  0.1663
89137W        W32049  19.498  14.307  27.391 -0.0012  0.0766  0.1073
89138W        W32050  20.975   9.951  30.426  0.0945 -0.2126  0.0146
89139W        W32051  19.418  13.926  28.655  0.4655 -0.2879  0.1574
89140W        W32052  20.863  13.318  24.268  0.0837 -0.1349 -0.2234
89141W        W32053  20.455  12.705  29.134  0.1024 -0.0635  0.1106
89142W        W32054  19.027  14.679  26.293  0.0440  0.1898 -0.2766
89143W        W32055  21.394  10.578  30.557  0.1614 -0.0491 -0.1189
89144W        W32056  18.296  15.660  26.757  0.2887 -0.4999 -0.0582
89145W        W32057  19.948  12.219  26.523 -0.2432 -0.3184  0.1064
89146W        W32058  17.529  12.505  27.442  0.2032 -0.1009  0.0712
89147W        W32059  21.949  11.862  29.660 -0.2183 -0.0546 -0.0043
89148W        W32060  19.868  13.462  27.289  0.4019  0.0424 -0.0282
89149W        W32061  18.373  12.156  30.307 -0.2362  0.0251  0.2615
89150W        W32062  20.286  11.460  28.864  0.0170  0.2321  0.2696
89151W        W32063  17.475  13.250  28.561  0.1147 -0.2333  0.1106
89152W        W32064  20.914  12.052  30.602  0.2424 -0.2810 -0.0115
89153W        W32065  22.369  11.485  26.621  0.2819 -0.0921  0.0147
89154W        W32066  21.205  12.495  30.383 -0.2244  0.1434  0.0655
89155W        W32067  19.762  13.455  31.654 -0.1587 -0.0243 -0.1402
89156W        W32068  19.312  11.320  27.412  0.0302 -0.1097 -0.0399
89157W        W32069  21.680  11.085  30.458  0.0793 -0.0582 -0.0143
89158W        W32070  19.301  12.895  27.474  0.0042  0.0792  0.0283
89159W        W32071  17.119  14.099  27.185  0.1306 -0.1347 -0.2072
89160W        W32072  20.310  13.742  29.813  0.0293 -0.1730  0.4053
89161W        W32073  18.531  13.951  26.905 -0.1192 -0.0301  0.1030
89162W        W32074  19.021  13.181  27.928 -0.1649  0.3716 -0.2507
89163W        W32075  19.249  12.083  31.829  0.0232 -0.1997 -0.0969
89164W        W32076  20.195  12.210  29.419  0.0149  0.2227 -0.0991
89165W        W32077  19.758  12.640  27.653  0.1709  0.3936  0.1891
89166W        W32078  19.531  12.060  28.558  0.1863  0.2692 -0.1180
89167W        W32079  18.949  13.526  28.265 -0.0731  0.4830 -0.0316
89168W        W32080  21.148  11.534  30.404 -0.0579  0.0362 -0.0219
89169W        W32081  20.580  10.876  30.100  0.1011 -0.0425  0.1003
89170W        W32082  18.226  13.662  30.278 -0.1382 -0.1605  0.0621
89171W        W32083  20.554  11.735  29.539 -0.1647 -0.1668  0.0882
89172W        W32084  21.588  14.425  27.099 -0.1711  0.1306  0.0337
89173W        W32085  21.520  12.167  30.623  0.2805  0.2736  0.0961
89174W        W32086  18.757  14.370  26.765 -0.0839 -0.0529 -0.1634
89175W        W32087  19.390  12.977  30.293  0.0832  0.2338 -0.0217
89176W        W32088  19.254  14.296  26.869  0.2227 -0.0509 -0.0022
89177W        W32089  20.326  10.496  29.725 -0.4728 -0.0735  0.1352
89178W        W32090  18.934  13.289  29.716  0.1639 -0.1558 -0.5771
89179W        W32091  19.968  13.429  28.127  0.2910 -0.1854 -0.1155
89180W        W32092  18.314  13.060  28.614 -0.1406 -0.1186 -0.1953
89181W        W32093  20.606  11.177  27.881 -0.0469 -0.0733 -0.0079
89182W        W32094  20.296  13.953  26.916 -0.0353  0.2141 -0.0309
89183W        W32095  20.223  12.074  30.251  0.2104 -0.3162 -0.1345
89184W        W32096  21.908  10.890  29.195 -0.4853  0.2670 -0.0935
89185W        W32097  20.197  12.622  26.914 -0.1415  0.0898  0.0720
89186W        W32098  19.156   9.995   0.082 -0.2036  0.2692  0.3287
89187W        W32099  20.022  10.885  31.306 -0.0020  0.1661 -0.1073
89188W        W32100  20.989  13.425  28.615  0.2300  0.2173  0.2741
89189W        W32101  20.387  10.952  30.551  0.0790  0.1393 -0.0459
89190W        W32102  20.444  14.648  31.071 -0.0565  0.1640  0.1731
89191W        W32103  20.299  13.514  30.857  0.0977 -0.1836  0.2851
89192W        W32104  20.464  12.386  28.337  0.1590 -0.1569  0.2497
89193W        W32105  19.779  11.499  27.782  0.3280 -0.1448  0.1301
89194W        W32106  20.471  12.106  29.849  0.2201  0.1642  0.0177
89195W        W32107  20.936  13.163  29.112 -0.0118 -0.0480 -0.0828
89196W        W32108  20.520  13.027  27.274  0.2900  0.3270 -0.0253
89197W        W32109  21.781  13.613  27.288  0.0121 -0.2035  0.2106
89198W        W32110  17.924  13.431  29.367 -0.3449  0.0886  0.0787
89199W        W32111  21.852  12.711  27.096  0.1882 -0.0154  0.1806
89200W        W32112  20.535  12.852  27.820  0.1173  0.1313 -0.1401
89201W        W32113  20.068  13.428  28.661  0.3783  0.0525  0.2163
89202W        W32114  18.884  11.508   0.189  0.0542  0.0721 -0.1751
89203W        W32115  19.576  12.295  28.981  0.2166  0.4086 -0.0598
89204W        W32116  19.862  11.415  28.624 -0.1577 -0.1356 -0.0159
89205W        W32117  20.646  10.340  30.560 -0.1551  0.1479  0.0498
89206W        W32118  20.030  11.676  29.387 -0.0078  0.0918  0.3350
89207W        W32119  20.219  11.604  30.085 -0.0542  0.1988  0.2327
89208W        W32120  18.707  12.006   0.030 -0.0432 -0.2621  0.1291
89209W        W32121  21.534  14.372  29.285  0.3511 -0.1056 -0.4516
89210W        W32122  21.714  11.561  26.562 -0.0551 -0.1180 -0.0550
89211W        W32123  22.246  10.729  30.962 -0.3120  0.2671  0.0555
89212W        W32124  22.108  11.840  29.007  0.2173  0.0105 -0.1660
89213W        W32125  20.408  13.492  29.182 -0.1815  0.2922  0.2137
89214W        W32126  19.075  12.142  30.281  0.2951 -0.1255 -0.0311
89215W        W32127  21.198  10.414  30.086 -0.0810 -0.3100  0.0046
89216W        W32128  18.870  10.839  26.029  0.1466  0.0821  0.2683
89217W        W32129  20.567  12.289  31.209 -0.0797  0.1183  0.1032
89218W        W32130  20.380  15.083  28.455  0.0044 -0.0694  0.0923
89219W        W32131  21.677  13.972  27.871  0.1684 -0.0906 -0.2555
89220W        W32132  22.873  12.690  29.509  0.0476  0.5571  0.3650
89221W        W32133  18.893  11.633  27.193  0.1760  0.1543 -0.3102
89222W        W32134  20.238  13.512  30.359 -0.1079  0.2124  0.1361
89223W        W32135  19.439  12.628  25.629  0.2196  0.1575  0.1034
89224W        W32136  20.155  14.038  24.495 -0.0981 -0.4195 -0.1620
89225W        W32137  18.843  13.117  29.255 -0.1781  0.2580 -0.2219
89226W        W32138  21.216  11.066  30.214  0.0316  0.3043  0.0541
89227W        W32139  19.335  11.290  27.953  0.0842  0.0307  0.1224
89228W        W32140  21.234  11.169  28.085 -0.1076  0.3211 -0.2683
89229W        W32141  20.203  13.279  27.718  0.2096  0.0037  0.0497
89230W        W32142  21.687   9.535  29.834 -0.1567  0.3080  0.2270
89231W        W32143  18.657  13.067  28.280  0.1316  0.0973  0.0994
89232W        W32144  19.555  13.078  29.834  0.0898 -0.1404  0.2482
89233W        W32145  19.436  13.358  28.057 -0.1083  0.0999 -0.0213
89234W        W32146  20.752  11.631  28.857 -0.0601 -0.1673 -0.0170
89235W        W32147  20.189  12.472  28.748 -0.1373  0.2338 -0.3795
89236W        W32148  18.832  12.746  28.763  0.0945 -0.1060 -0.0001
89237W        W32149  21.360  12.152  28.167 -0.1102  0.0456 -0.0543
89238W        W32150  20.223  13.272  29.955  0.1835 -0.0805 -0.2405
89239W        W32151  19.875  11.272  30.382  0.1963 -0.0456 -0.2785
89240W        W32152  20.983  13.914  29.723 -0.0730  0.0351 -0.0448
89241W        W32153  21.779  13.336  29.401  0.0603 -0.2861  0.2622
89242W        W32154  18.529  13.445  27.980 -0.3505 -0.1322  0.0106
89243W        W32155  17.446  13.180  30.425 -0.1319  0.1912  0.3018
89244W        W32156  20.064  11.765  30.661 -0.0450 -0.0527  0.1043
89245W        W32157  20.847  11.958  28.177 -0.0639  0.0357  0.1265
89246W        W32158  19.580  11.243  26.883 -0.1056 -0.0907 -0.2594
89247W        W32159  22.236  12.643  28.454 -0.1760  0.1535 -0.1992
89248W        W32160  19.794  13.711  30.580  0.0476  0.1673 -0.4081
89249W        W32161  17.968  13.430  28.693 -0.1590  0.0566  0.1659
89250W        W32162  19.992  14.796  26.448 -0.1800 -0.2957 -0.1195
89251W        W32163  20.570  15.483  28.688 -0.1196 -0.0555  0.1164
89252W        W32164  20.880  13.941  27.768  0.3390 -0.1564 -0.0919
89253W        W32165  21.223  13.443  29.428 -0.0507  0.3139 -0.3121
89254W        W32166  19.118  12.543  27.888  0.1392 -0.0895 -0.2741
89255W        W32167  19.716  14.147  26.720  0.2268 -0.1079  0.1265
89256W        W32168  18.612  14.757  26.478 -0.0638  0.0341  0.3953
89257W        W32169  21.076  14.918  27.942  0.4912  0.2033 -0.1424
89258W        W32170  19.869  14.625  27.106 -0.0911  0.1772 -0.3668
89259W        W32171  20.412  13.888  31.265  0.0329 -0.1546  0.0072
89260W        W32172  21.760  12.765  26.593 -0.0633 -0.2460  0.2138
89261W        W32173  22.069  12.262  29.242 -0.1031 -0.1105 -0.0961
89262W        W32174  21.348   9.544  29.104 -0.1396  0.1899  0.3667
89263W        W32175  20.681  13.599  30.116  0.2825  0.0523 -0.0467
89264W        W32176  20.791  11.724  30.088 -0.0158 -0.0003  0.1624
89265W        W32177  20.939  10.501  26.430 -0.1822 -0.0571  0.2229
89266W        W32178  18.301  11.438  30.131 -0.2114 -0.0086 -0.3821
89267W        W32179  21.146  10.126  31.362 -0.2992  0.3193  0.3353
89268W        W32180  16.017  14.217  28.432 -0.0665 -0.1341 -0.0316
89269W        W32181  22.091  14.752  27.141  0.0015 -0.2428  0.2995
89270W        W32182  20.425  13.474  27.137  0.0949  0.1149  0.3197
89271W        W32183  19.977  12.970  27.280 -0.4011 -0.3596 -0.1078
89272W        W32184  21.951   8.989  29.577  0.0008  0.2624  0.2141
89273W        W32185  20.738  15.096  27.126  0.0194 -0.0259 -0.1342
89274W        W32186  20.779  12.852  28.288 -0.0732  0.1318 -0.1395
89275W        W32187  19.726  14.263  28.362 -0.2453 -0.0188 -0.0775
89276W        W32188  18.739  14.663  27.656 -0.3613 -0.0309  0.2693
89277W        W32189  18.675  12.600  29.290  0.0059 -0.2169  0.2732
89278W        W32190  18.195  11.965  27.903 -0.1267 -0.0896  0.0636
89279W        W32191  22.559  12.418  29.013  0.2495 -0.0198 -0.0678
89280W        W32192  19.883  11.220  30.869 -0.1101  0.1805 -0.0108
89281W        W32193  21.587  10.995  28.813 -0.1095 -0.1450 -0.1532
89282W        W32194  19.096  12.307  29.533  0.1993  0.1590 -0.3837
89283W        W32195  20.892  12.618  27.469 -0.4609  0.0206 -0.1406
89284W        W32196  21.399  11.937  31.031 -0.0934 -0.1352  0.3036
89285W        W32197  19.725  11.703  31.020  0.0695 -0.1427 -0.1873
89286W        W32198  20.850  12.734  27.007  0.0309  0.2938  0.0854
89287W        W32199  21.569  12.566  30.869 -0.1703  0.0328 -0.1703
89288W        W32200  20.784  12.437  27.923 -0.0811 -0.0144  0.3816
89289W        W32201  20.727  13.103  30.013 -0.2477  0.0256 -0.0500
89290W        W32202  19.297  10.299  27.258  0.0220  0.1094  0.2407
89291W        W32203  21.225  11.723  26.940  0.3263  0.2100 -0.2785
89292W        W32204  17.928  12.161  28.289  0.0428  0.0845  0.3696
89293W        W32205  19.765  11.709  30.242 -0.0229  0.2424  0.2741
89294W        W32206  20.666  13.248  30.514 -0.2614 -0.1378 -0.3023
89295W        W32207  18.846  12.576  28.286  0.1504  0.0167 -0.0631
89296W        W32208  21.458  13.215  27.515 -0.0420  0.1252  0.2276
89297W        W32209  22.012  11.924  27.558 -0.3169  0.1018 -0.0763
89298W        W32210  19.780  15.302  26.322  0.2102  0.2618 -0.0330
89299W        W32211  20.773  12.182  29.157  0.1015 -0.0981 -0.0690
89300W        W32212  20.853  14.802  28.687  0.0659 -0.2504 -0.1856
89301W        W32213  19.052  12.758  29.585 -0.0692 -0.0183 -0.1464
89302W        W32214  20.647  13.906  29.317  0.0568  0.2221 -0.2938
89303W        W32215  21.717  14.831  29.262  0.1914 -0.0471  0.0830
89304W        W32216  20.520  10.775  26.865 -0.1394  0.0405 -0.4231
89305W        W32217  19.235  11.247  29.727  0.0878 -0.2197  0.2706
89306W        W32218  18.262  13.214  27.349  0.0504  0.0674 -0.1424
89307W        W32219  22.314  13.152  29.213 -0.4585 -0.3852 -0.1531
89308W        W32220  21.257  12.349  29.437  0.1059  0.2949  0.2986
89309W        W32221  20.348  14.365  27.254 -0.2751 -0.0550  0.1771
89310W        W32222  22.726   9.333   0.230  0.1030 -0.0433 -0.1249
89311W        W32223  20.452  13.994  30.336  0.1888 -0.2119  0.0063
89312W        W32224  18.884  13.876  28.696  0.0850 -0.0847 -0.3620
89313W        W32225  19.363  12.336  27.551 -0.0425  0.0071 -0.0413
89314W        W32226  20.276  12.998  30.892 -0.2795  0.0667  0.1118
89315W        W32227  20.096  13.871  27.469 -0.0294  0.1356 -0.0856
89316W        W32228  19.819  15.154  28.322 -0.1334 -0.0939  0.3409
89317W        W32229  22.187  12.935  27.956  0.1451 -0.3783  0.0374
89318W        W32230  21.145  12.189  27.217  0.0317 -0.0764 -0.0522
89319W        W32231  22.133  13.444  28.175  0.2679 -0.0292 -0.3851
89320W        W32232  19.461  11.632  29.409  0.0974  0.3033 -0.1165
89321W        W32233  20.139  11.609  26.988 -0.4558  0.2416  0.0882
89322W        W32234  21.005  11.610  27.376 -0.0094  0.2327  0.1461
89323W        W32235  19.572  10.811  31.045  0.1405  0.1640 -0.2185
89324W        W32236  17.435  12.307  26.773 -0.0130  0.0796  0.0004
89325W        W32237  19.901  13.284  26.279  0.0012  0.0521  0.0563
89326W        W32238  21.391  13.285  28.216  0.1245  0.1715  0.2525
89327W        W32239  20.273   9.135   0.606 -0.1643 -0.0063 -0.0380
89328W        W32240  19.704  12.741  30.730 -0.2179 -0.2909  0.1141
89329W        W32241  18.167  12.514  30.589  0.0819  0.1259  0.1446
89330W        W32242  18.480  12.362  27.497 -0.4607 -0.3070 -0.2286
89331W        W32243  21.955  13.078  27.534 -0.1467  0.1012 -0.0382
89332W        W32244  18.470  12.097  31.172 -0.2545 -0.0859 -0.1460
89333W        W32245  18.066  11.473  28.887 -0.1373  0.0300  0.1533
89334W        W32246  21.585  13.915  29.084 -0.2422  0.1163  0.1288
89335W        W32247  21.554  15.696  28.977  0.0883  0.1636 -0.0781
89336W        W32248  20.961  11.978  29.666  0.1860 -0.0652  0.0650
89337W        W32249  20.978  14.041  30.598 -0.1712  0.1208  0.1177
89338W        W32250  19.291  13.212  25.964 -0.0609 -0.3153 -0.0295
89339W        W32251  20.508  11.729  30.507  0.2134  0.0175  0.0825
89340W        W32252  20.637  10.777  31.977 -0.0479  0.3146 -0.2572
89341W        W32253  19.215  11.191  26.033 -0.2452 -0.0682 -0.1733
89342W        W32254  19.399  11.968  29.890  0.0822  0.1407  0.0894
89343W        W32255  20.290  14.352  29.133  0.1624 -0.1675 -0.1423
89344W        W32256  22.853  15.342  28.695  0.2020 -0.1717  0.1162
89345W        W32257  19.556  12.907  29.347 -0.0978 -0.1308 -0.0803
89346W        W32258  19.994  13.948  30.110  0.3624  0.0288 -0.4439
89347W        W32259  18.827  11.803  31.031  0.0409  0.1303  0.1495
89348W        W32260  21.280  13.012  28.721  0.0078 -0.1322 -0.0447
89349W        W32261  19.693  13.405  30.204 -0.1879  0.1570  0.4001
89350W        W32262  20.382  13.990  28.807  0.1081 -0.2377 -0.1197
89351W        W32263  20.744  11.369  29.290 -0.1686  0.0722 -0.0216
89352W        W32264  19.150  12.565  29.113 -0.1829 -0.0394 -0.1328
89353W        W32265  18.895   9.525   0.214  0.2057 -0.1422  0.1239
89354W        W32266  20.483  13.284  31.326  0.1216  0.2880 -0.3093
89355W        W32267  20.987  13.033  29.587  0.1639  0.1426  0.1913
89356W        W32268  20.272  10.491  30.284  0.0480 -0.6782  0.1285
89357W        W32269  20.601  11.358  27.413 -0.3676 -0.2554 -0.0131
89358W        W32270  20.080  13.130  26.772 -0.0385  0.2019  0.3421
89359W        W32271  18.790  14.354  28.564 -0.3832  0.2592 -0.1250
89360W        W32272  20.550  10.356  27.739 -0.0740 -0.1778 -0.0561
89361W        W32273  20.535  11.428  30.902 -0.3001 -0.2099  0.2266
89362W        W32274  20.989  13.635  29.014 -0.1807  0.0476 -0.0267
89363W        W32275  21.010  11.104  30.786  0.1768 -0.2479  0.5217
89364W        W32276  20.249  12.643  27.468  0.0424  0.1827 -0.1529
89365W        W32277  20.756  12.066  28.644  0.2629  0.3638  0.1451
89366W        W32278  19.418  14.337  29.919  0.3010  0.0043 -0.1780
89367W        W32279  21.641  13.338  30.429 -0.4156  0.2180 -0.1322
89368W        W32280  21.004  14.795  30.199  0.0179 -0.3693  0.3558
89369W        W32281  21.137  12.600  29.001 -0.1342  0.0588  0.1819
89370W        W32282  18.080  11.260  30.516 -0.4883  0.0169  0.3245
89371W        W32283  19.810  12.499  27.174 -0.0930  0.2328 -0.3226
89372W        W32284  20.343  12.672  29.931  0.0923  0.2043  0.0403
89373W        W32285  21.158  11.284  28.891 -0.0514  0.0533 -0.2469
89374W        W32286  18.899  11.948  29.865 -0.0722 -0.0327  0.0501
89375W        W32287  20.114  12.454  27.928  0.2098 -0.0446 -0.1979
89376W        W32288  18.114  13.662  29.779 -0.1119  0.1553  0.0540
89377W        W32289  20.011  12.886  29.663  0.2411 -0.1198  0.1314
89378W        W32290  22.164  11.369  29.335  0.0617  0.2389 -0.1033
89379W        W32291  21.666  11.446  31.240  0.4071  0.2093  0.1482
89380W        W32292  18.939  10.789  31.745 -0.0363 -0.0507  0.1873
89381W        W32293  19.320  11.557  30.163 -0.1263 -0.1336 -0.1985
89382W        W32294  21.222  13.910  30.169 -0.3571  0.0105 -0.1972
89383W        W32295  18.659  13.631  29.957  0.0897  0.0364 -0.3328
89384W        W32296  20.870  11.203  31.232 -0.3666 -0.1079  0.3315
89385W        W32297  19.681   9.829  31.036 -0.0557 -0.1570 -0.0958
89386W        W32298  21.793  10.768  30.769 -0.0571 -0.0478 -0.1031
89387W        W32299  20.716  13.501  29.643 -0.1672  0.0897  0.0178
89388W        W32300  20.144  14.296  31.109 -0.0106 -0.0684 -0.0199
89389W        W32301  18.232  10.205  31.063  0.1007  0.5346 -0.0183
89390W        W32302  20.669  12.483  31.738 -0.2486 -0.1245 -0.2222
89391W        W32303  20.180  11.414  31.252  0.2053  0.1592 -0.2517
89392W        W32304  22.032  12.942  31.746  0.0523 -0.1333 -0.0850
89393W        W32305  18.485  14.128  29.986  0.1410 -0.1119  0.1709
89394W        W32306  19.165  12.604  30.545  0.0254 -0.3050  0.2101
89395W        W32307  21.928  13.335  31.375 -0.0248 -0.3094 -0.2648
89396W        W32308  16.036  12.199   0.423  0.2377  0.1147 -0.1423
89397W        W32309  20.179   9.991  31.153 -0.1638  0.0538 -0.2410
89398W        W32310  18.802  11.232   0.631 -0.0625  0.1899  0.0396
89399W        W32311  17.834  14.363  30.784  0.1748  0.0611 -0.0510
89400W        W32312  22.392  10.286  31.141 -0.1595 -0.1526 -0.0527
89401W        W32313  20.920  10.739  30.455 -0.2460 -0.1502  0.2924
89402W        W32314  20.005  10.938  31.810  0.0771 -0.3179 -0.0657
89403W        W32315  20.924  11.151  31.770 -0.0128 -0.2007 -0.2222
89404W        W32316  19.154  11.086   0.186  0.0254  0.0116 -0.1226
89405W        W32317  17.601  13.434  31.286  0.2473 -0.0036 -0.1679
89406W        W32318  18.915  11.851  31.538 -0.0796 -0.0465 -0.1963
89407W        W32319  19.911  12.846  30.150 -0.2445  0.2752  0.0733
89408W        W32320  18.614  13.593  29.155 -0.0881  0.2716  0.1364
89409W        W32321  19.838  11.670   1.649  0.2295 -0.2822 -0.0517
89410W        W32322  21.110  12.731  31.711  0.1397 -0.1635  0.0221
89411W        W32323  21.443   9.934  31.842  0.0718  0.0622 -0.0850
89412W        W32324  18.361  12.491  31.977  0.0496  0.1456 -0.1772
89413W        W32325  19.146  12.194  30.761  0.1380  0.0074  0.2802
89414W        W32326  18.924  13.003  30.183  0.3680 -0.0617 -0.1015
89415W        W32327  20.747  12.832  30.993 -0.4309  0.3294 -0.0157
89416W        W32328  20.143  12.001   0.376 -0.0735  0.0097 -0.1274
89417W        W32329  21.608  12.613  31.731 -0.0997 -0.0380  0.1510
89418W        W32330  21.913  10.630  31.344  0.2254 -0.1451  0.2837
89419W        W32331  19.594  12.189   0.415 -0.1443  0.3120  0.1420
89420W        W32332  20.244  12.074  31.684  0.0543  0.0491  0.3623
89421W        W32333  19.982  13.347  31.208  0.0004 -0.2504 -0.0188
89422W        W32334  19.900  10.153  29.880  0.1424 -0.2922 -0.1403
89423W        W32335  19.653  12.028  30.604  0.1068 -0.2249 -0.3495
89424W        W32336  20.365  11.176   0.097 -0.2044 -0.0476  0.0015
89425W        W32337  21.984  11.987  31.153 -0.1092 -0.0373  0.0203
89426W        W32338  21.808  13.920  31.094 -0.0595 -0.0168  0.3399
89427W        W32339  18.029  12.082   1.946  0.2101  0.0883  0.1799
89428W        W32340  19.010  14.570  29.117 -0.0808  0.0452 -0.1729
89429W        W32341  21.326  11.700   0.002 -0.3836  0.0728 -0.3203
89430W        W32342  20.916  11.107   0.262  0.1774  0.0891 -0.0767
89431W        W32343  19.882  15.120  29.370  0.0790  0.2227  0.1762
89432W        W32344  19.778  10.328  31.136 -0.2219  0.0856  0.2496
89433W        W32345  21.396  11.121  31.565  0.3819  0.1277  0.0452
89434W        W32346  21.209  12.908  30.758 -0.1523  0.2297 -0.2673
89435W        W32347  19.068  13.763  29.640  0.0529  0.3380  0.1303
89436W        W32348  20.214  14.565  30.590  0.0622 -0.3634 -0.1046
89437W        W32349  18.715  12.013  30.604  0.1001 -0.1931  0.4413
89438W        W32350  18.351  12.697  31.454 -0.1034 -0.1346 -0.0040
89439W        W32351  17.742  12.824  30.648 -0.2196  0.0255 -0.0824
89440W        W32352  20.207  12.684  31.930 -0.1940  0.2589  0.0115
89441W        W32353  17.745  11.151  30.886 -0.0329 -0.4718  0.0108
89442W        W32354  21.385  12.780  31.295  0.0925 -0.0437  0.0571
89443W        W32355  21.975  13.516  30.855 -0.1839 -0.1408  0.1000
89444W        W32356  20.907  13.091  31.376 -0.2752 -0.0256  0.0307
89445W        W32357  19.320  17.541  17.093 -0.0471 -0.3363  0.1667
89446W        W32358  20.194  15.899  15.187 -0.0766  0.4261 -0.0291
89447W        W32359  21.305  14.900  15.161 -0.0320 -0.2682  0.1131
89448W        W32360  21.841  16.301  15.539  0.1191  0.1288 -0.2014
89449W        W32361  19.296  14.780  16.438 -0.1419  0.3412 -0.2826
89450W        W32362  21.239  17.678  15.446  0.0400 -0.3814 -0.1336
89451W        W32363  19.210  13.882  17.272 -0.2558 -0.0298  0.2551
89452W        W32364  21.548  19.111  16.383  0.3451  0.3296  0.2792
89453W        W32365  23.177  18.341  17.411 -0.2861 -0.0718  0.0220
89454W        W32366  21.088  17.460  14.951 -0.1555  0.4098  0.0548
89455W        W32367  19.421  15.353  17.035  0.0480 -0.3301  0.2820
89456W        W32368  20.645  17.373  16.538 -0.2321 -0.0241 -0.0690
89457W        W32369  19.763  14.664  14.827 -0.2389 -0.0986  0.1068
89458W        W32370  18.037  14.371  16.920  0.0600 -0.0498  0.2991
89459W        W32371  21.965  17.927  17.835 -0.1254  0.0771  0.1813
89460W        W32372  18.480  16.329  15.587  0.1451  0.0635  0.2326
89461W        W32373  20.188  15.154  16.509  0.0038 -0.4419 -0.1146
89462W        W32374  19.756  14.544  16.486  0.0338 -0.0342  0.0127
89463W        W32375  18.598  17.846  15.787  0.1472 -0.0484 -0.2401
89464W        W32376  19.725  15.040  16.709 -0.3377 -0.1636 -0.1061
89465W        W32377  21.074  14.407  17.674 -0.2058 -0.0461 -0.1257
89466W        W32378  20.650  17.192  14.929 -0.2069  0.2647  0.0278
89467W        W32379  17.232  16.468  14.669  0.1353 -0.0805 -0.1999
89468W        W32380  16.626  15.597  15.431 -0.0241  0.0407  0.0178
89469W        W32381  19.294  15.267  16.535 -0.2350 -0.1927 -0.3354
89470W        W32382  22.803  14.987  16.455 -0.5194 -0.0340  0.0204
89471W        W32383  21.866  17.427  17.026  0.0037 -0.0537 -0.0800
89472W        W32384  19.535  18.282  15.807  0.1580 -0.0272  0.1797
89473W        W32385  20.500  18.321  16.059 -0.1791  0.3227 -0.1362
89474W        W32386  23.320  16.302  18.875  0.1789 -0.0409 -0.1526
89475W        W32387  15.604  16.335  15.233  0.0673 -0.3872 -0.1995
89476W        W32388  18.685  17.839  16.314  0.2288 -0.1420 -0.0759
89477W        W32389  18.505  17.435  16.616 -0.0769 -0.2444  0.1210
89478W        W32390  22.512  17.269  15.987 -0.0453 -0.0751 -0.2868
89479W        W32391  22.316  18.808  16.745  0.0427 -0.1363 -0.0739
89480W        W32392  19.622  18.535  17.131  0.1303 -0.1886  0.0760
89481W        W32393  19.298  18.238  15.369  0.0862 -0.2614  0.0016
89482W        W32394  21.604  18.188  18.078  0.3023 -0.1151 -0.2971
89483W        W32395  19.772  18.865  16.649 -0.3184  0.2576  0.3389
89484W        W32396  21.568  15.455  16.700  0.0695  0.1823  0.2292
89485W        W32397  20.117  16.595  16.695 -0.1487 -0.5080 -0.3162
89486W        W32398  19.139  17.428  14.699 -0.0726 -0.2093 -0.0130
89487W        W32399  21.003  16.593  16.723 -0.1053 -0.1462  0.2131
89488W        W32400  20.399  16.447  17.387  0.0884 -0.1882  0.0937
89489W        W32401  19.162  17.819  15.940 -0.0628 -0.0243 -0.0019
89490W        W32402  22.940  16.361  19.176  0.2038  0.1704  0.1942
89491W        W32403  18.756  17.391  15.565  0.1599  0.1389 -0.0554
89492W        W32404  19.923  15.857  15.709 -0.2674  0.2387  0.1345
89493W        W32405  19.070  14.686  15.982 -0.2190  0.0580 -0.0743
89494W        W32406  23.348  15.932  17.162 -0.1410 -0.6234  0.0052
89495W        W32407  20.112  13.849  15.729  0.1092 -0.0185 -0.0986
89496W        W32408  18.809  17.431  16.059 -0.0850 -0.0128  0.1471
89497W        W32409  19.236  14.263  17.663  0.1598 -0.3426  0.1150
89498W        W32410  22.469  18.130  17.805 -0.2760 -0.1847 -0.2044
89499W        W32411  19.455  16.181  15.734 -0.1043 -0.1641 -0.1711
89500W        W32412  21.390  15.903  16.869  0.1371 -0.0293  0.0983
89501W        W32413  18.847  17.399  17.383 -0.0277  0.0272 -0.0964
89502W        W32414  18.132  15.603  15.211  0.2171  0.5348  0.2705
89503W        W32415  21.613  17.534  15.050 -0.0581 -0.2718 -0.1259
89504W        W32416  22.370  18.323  16.704 -0.1665 -0.1236 -0.0877
89505W        W32417  20.410  17.126  16.116 -0.0028  0.0577  0.0728
89506W        W32418  18.110  15.418  16.763 -0.0288 -0.0560  0.0703
89507W        W32419  17.560  16.121  17.624 -0.0506 -0.0391 -0.0761
89508W        W32420  18.967  16.571  16.234 -0.0416  0.0425  0.0248
89509W        W32421  18.825  14.968  14.819 -0.2648  0.0216 -0.0712
89510W        W32422  21.830  16.904  18.243 -0.1998 -0.1743 -0.0812
89511W        W32423  19.374  18.570  16.596 -0.1789 -0.0661  0.0204
89512W        W32424  23.003  15.201  17.780 -0.0373  0.1900  0.1063
89513W        W32425  19.599  16.778  16.822  0.0510  0.1291 -0.0488
89514W        W32426  21.845  19.111  16.791 -0.3243 -0.0373 -0.0403
89515W        W32427  21.283  15.802  14.975 -0.1823 -0.0334 -0.0968
89516W        W32428  21.151  14.443  16.580  0.0417 -0.1654 -0.3028
89517W        W32429  20.639  15.395  17.723 -0.0684  0.1041  0.0146
89518W        W32430  18.135  16.777  15.239 -0.0883  0.2041  0.0702
89519W        W32431  19.447  17.018  15.610  0.1025  0.1643  0.0671
89520W        W32432  21.538  17.680  16.342 -0.1989  0.0067  0.2584
89521W        W32433  22.184  16.128  14.965 -0.0461 -0.0181  0.0035
89522W        W32434  19.480  17.619  16.308  0.0865  0.0052  0.0150
89523W        W32435  20.762  15.188  17.003 -0.0893  0.1111 -0.2955
89524W        W32436  21.140  17.244  17.335  0.0132  0.1867  0.2829
89525W        W32437  20.272  17.814  15.354 -0.3160  0.0463 -0.0587
89526W        W32438  17.390  16.120  16.404 -0.1466 -0.1521 -0.1091
89527W        W32439  18.466  17.703  15.314  0.0154 -0.1306 -0.2187
89528W        W32440  17.935  14.876  16.801 -0.5427 -0.0029  0.3966
89529W        W32441  20.232  17.952  15.867 -0.2216 -0.1416  0.2289
89530W        W32442  20.712  15.695  16.297 -0.0853 -0.2099  0.2951
89531W        W32443  18.934  13.393  17.867  0.1231  0.1588 -0.0004
89532W        W32444  23.352  14.121  16.152 -0.1011 -0.2500 -0.0060
89533W        W32445  17.577  17.008  16.102  0.1500 -0.0446 -0.0331
89534W        W32446  21.541  20.517  18.073 -0.1001 -0.0007  0.2434
89535W        W32447  22.810  17.038  16.343 -0.1735 -0.1756 -0.0690
89536W        W32448  20.995  17.056  15.391  0.0712 -0.0500 -0.0316
89537W        W32449  16.897  16.350  16.374  0.0662 -0.3227  0.0518
89538W        W32450  18.468  16.013  16.231 -0.2753  0.3981 -0.0396
89539W        W32451  19.533  13.703  18.291 -0.0941  0.1432 -0.1812
89540W        W32452  17.686  15.285  16.415 -0.2160 -0.1112 -0.2769
89541W        W32453  22.333  16.911  18.241 -0.0749  0.0189 -0.0360
89542W        W32454  17.357  14.193  16.084  0.1941 -0.0105  0.0933
89543W        W32455  21.296  15.518  17.213  0.0798  0.2927 -0.2097
89544W        W32456  19.720  14.592  17.025  0.3059 -0.0371  0.4607
89545W        W32457  17.957  16.758  15.750  0.0414  0.0315 -0.2156
89546W        W32458  22.149  16.051  17.259 -0.3266 -0.2324 -0.3641
89547W        W32459  21.806  18.341  15.616 -0.0374 -0.0732  0.2206
89548W        W32460  22.597  19.792  17.950 -0.1591 -0.2311 -0.1688
89549W        W32461  21.956  19.615  16.425  0.0166 -0.0366 -0.1689
89550W        W32462  20.307  14.551  17.794  0.1156 -0.2380 -0.0420
89551W        W32463  18.385  14.732  16.751 -0.2209 -0.1520 -0.0371
89552W        W32464  17.867  18.002  16.401 -0.0033  0.0441  0.0783
89553W        W32465  21.032  16.643  15.851 -0.0767  0.1358  0.2899
89554W        W32466  18.890  15.035  15.280  0.2095  0.3331 -0.2018
89555W        W32467  21.849  19.366  17.641  0.1922  0.1313  0.1208
89556W        W32468  18.428  14.848  16.032  0.0896 -0.0868  0.0608
89557W        W32469  17.888  16.195  16.356 -0.0720  0.2149 -0.1804
89558W        W32470  21.701  15.905  18.338 -0.0654  0.2791  0.0710
89559W        W32471  19.009  17.476  16.492 -0.2516  0.1623  0.2144
89560W        W32472  20.988  16.152  15.747 -0.3491 -0.3135 -0.2178
89561W        W32473  18.390  14.738  14.519  0.1079  0.1257  0.2129
89562W        W32474  21.012  18.480  16.701 -0.1337  0.0021 -0.1735
89563W        W32475  19.029  17.978  14.808 -0.1492 -0.1578  0.1023
89564W        W32476  16.813  16.005  15.614  0.1315 -0.1227  0.3227
89565W        W32477  19.360  17.156  15.055  0.0097 -0.0393 -0.2138
89566W        W32478  21.575  15.352  15.913  0.0994 -0.1129  0.2645
89567W        W32479  16.184  15.972  15.992 -0.1443 -0.0420 -0.1429
89568W        W32480  21.311  15.082  17.045  0.0269 -0.3124  0.0444
89569W        W32481  18.168  15.094  15.501  0.0326 -0.0527  0.1245
89570W        W32482  20.980  18.880  16.347 -0.0236  0.0666  0.0695
89571W        W32483  21.171  15.289  16.202  0.1385 -0.0282 -0.2966
89572W        W32484  21.505  15.900  15.685  0.0248 -0.1629  0.0900
89573W        W32485  21.585  17.201  17.639  0.1016  0.1316  0.0233
89574W        W32486  22.151  18.269  15.927  0.2652 -0.0117  0.0098
89575W        W32487  21.598  15.464  14.945 -0.4753 -0.0942 -0.1600
89576W        W32488  21.082  15.216  15.598 -0.0247 -0.0953 -0.0586
89577W        W32489  17.880  17.092  17.593  0.1155  0.1512 -0.0658
89578W        W32490  20.455  16.933  15.427 -0.0668 -0.0805  0.2084
89579W        W32491  19.702  17.800  15.765  0.1233 -0.0875 -0.1805
89580W        W32492  20.933  16.075  16.738  0.1451  0.2474  0.0036
89581W        W32493  20.951  17.107  16.251  0.0507  0.1362  0.0715
89582W        W32494  18.197  17.643  16.240  0.0653 -0.2695  0.1037
89583W        W32495  20.479  17.289  17.066  0.1031  0.1998 -0.0826
89584W        W32496  20.267  17.618  16.305 -0.0126 -0.1155 -0.2515
89585W        W32497  20.593  13.877  17.119  0.1860 -0.5164 -0.1136
89586W        W32498  19.783  13.916  16.452 -0.0612 -0.1867 -0.1680
89587W        W32499  22.372  15.713  16.550 -0.2456  0.1018  0.0032
89588W        W32500  18.702  18.294  15.087 -0.0282  0.0161  0.0722
89589W        W32501  22.550  14.535  17.620  0.3484  0.0858  0.0694
89590W        W32502  21.737  15.083  16.334  0.3493  0.0895 -0.2074
89591W        W32503  21.238  14.450  18.126  0.0443  0.0459 -0.0064
89592W        W32504  22.316  15.086  19.464 -0.1950  0.0802  0.2548
89593W        W32505  20.768  16.218  14.963  0.0452  0.2214 -0.1491
89594W        W32506  20.552  16.870  16.691 -0.2156 -0.0740 -0.0447
89595W        W32507  19.009  16.041  15.477  0.1129 -0.1411 -0.0350
89596W        W32508  20.909  14.708  17.001 -0.0029 -0.0843  0.1057
89597W        W32509  19.452  16.312  16.234  0.2770  0.1503  0.0151
89598W        W32510  19.585  18.839  16.131  0.2070 -0.1555 -0.3326
89599W        W32511  21.802  16.953  17.250 -0.0932 -0.0221 -0.0003
89600W        W32512  20.742  17.033  15.779 -0.0873  0.0498 -0.0657
89601W        W32513  21.267  15.278  17.839 -0.1395  0.0822  0.0120
89602W        W32514  21.053  15.357  15.062 -0.0117  0.2674 -0.1703
89603W        W32515  18.069  17.798  15.721 -0.0851 -0.0221  0.2244
89604W        W32516  18.913  17.932  15.368 -0.4030 -0.1979  0.1385
89605W        W32517  20.251  14.328  16.508 -0.2479 -0.0246  0.0098
89606W        W32518  20.069  18.556  15.218 -0.5113 -0.1425 -0.2117
89607W        W32519  18.849  16.926  14.795  0.0527 -0.1837 -0.0507
89608W        W32520  20.945  16.474  17.523 -0.2036 -0.3336  0.1085
89609W        W32521  17.661  18.363  15.802  0.2750  0.0769 -0.0831
89610W        W32522  22.287  13.533  17.830  0.4104  0.0715 -0.0002
89611W        W32523  17.783  17.086  16.734  0.0289 -0.1770 -0.1809
89612W        W32524  18.689  14.741  15.607  0.2523  0.0851  0.1227
89613W        W32525  17.873  15.782  14.783  0.0070 -0.1487 -0.0597
89614W        W32526  22.104  15.158  15.981  0.2515  0.1055  0.1772
89615W        W32527  21.919  16.784  15.579  0.4136 -0.1415 -0.1268
89616W        W32528  18.930  13.951  18.062  0.0515 -0.1837  0.1555
89617W        W32529  20.373  15.094  17.436  0.1400 -0.0199  0.0657
89618W        W32530  18.183  18.843  17.076 -0.0536 -0.0894 -0.1468
89619W        W32531  20.234  18.139  16.520  0.1448 -0.0442 -0.0388
89620W        W32532  20.862  14.742  15.073 -0.0173 -0.2074  0.3753
89621W        W32533  22.237  16.819  16.968 -0.2018  0.0733  0.1284
89622W        W32534  20.178  16.069  17.557  0.0738 -0.0851  0.1115
89623W        W32535  17.986  14.724  15.768  0.1787 -0.0982  0.3145
89624W        W32536  22.838  16.901  18.400  0.1371 -0.0670 -0.1681
89625W        W32537  20.970  15.168  17.441 -0.1776  0.1340  0.1268
89626W        W32538  18.400  19.301  17.073  0.1233 -0.1314 -0.3319
89627W        W32539  20.049  18.423  15.716  0.3639 -0.1412 -0.1201
89628W        W32540  19.043  16.511  15.672  0.2990  0.1606  0.0246
89629W        W32541  18.377  17.053  16.155  0.1904  0.1709  0.2101
89630W        W32542  19.241  15.147  17.616 -0.2000 -0.0301 -0.2441
89631W        W32543  19.893  17.999  17.071 -0.2300 -0.3667  0.2237
89632W        W32544  19.954  15.754  16.799 -0.1175  0.4187  0.0546
89633W        W32545  18.538  15.639  16.566 -0.1527  0.0498 -0.1281
89634W        W32546  21.424  15.851  16.371  0.1005  0.2558  0.2960
89635W        W32547  22.219  18.344  17.219 -0.0015  0.2071 -0.0979
89636W        W32548  21.099  14.984  16.584 -0.0173  0.2503  0.2938
89637W        W32549  19.538  17.289  16.710 -0.0619 -0.1151  0.1575
89638W        W32550  20.531  12.987  17.319  0.0944  0.1895  0.0951
89639W        W32551  23.164  17.794  16.824 -0.1259 -0.0009 -0.0387
89640W        W32552  22.058  15.466  18.090 -0.0476  0.0181 -0.0051
89641W        W32553  19.953  16.924  15.762  0.2785 -0.0804  0.1867
89642W        W32554  17.178  15.143  16.247  0.0751 -0.1223  0.0371
89643W        W32555  19.012  16.119  15.983 -0.1547 -0.1499  0.0353
89644W        W32556  22.263  13.316  16.967 -0.2718  0.2113 -0.0423
89645W        W32557  19.854  17.680  16.653 -0.0829 -0.0090  0.0523
89646W        W32558  18.997  16.982  15.334 -0.1208 -0.0593  0.0330
89647W        W32559  18.777  16.976  16.420  0.2884 -0.1511 -0.0097
89648W        W32560  22.274  15.664  15.988 -0.1423 -0.3612  0.2253
89649W        W32561  19.816  15.132  15.704 -0.1105  0.0582 -0.1588
89650W        W32562  20.152  15.434  16.057 -0.1472  0.3239 -0.0477
89651W        W32563  23.640  14.322  16.867  0.0838 -0.0787 -0.1838
89652W        W32564  21.884  16.950  16.426  0.2605 -0.1062  0.4992
89653W        W32565  20.753  14.432  18.080 -0.3167  0.0854 -0.2891
89654W        W32566  20.036  14.186  16.897 -0.0597 -0.0432  0.0084
89655W        W32567  21.440  17.153  16.354  0.1088  0.1385 -0.1873
89656W        W32568  17.586  16.689  16.481 -0.1355  0.2141 -0.2501
89657W        W32569  21.139  18.164  18.268 -0.2739 -0.0803 -0.0372
89658W        W32570  19.873  16.351  15.966 -0.0489  0.2382  0.1182
89659W        W32571  20.671  15.261  16.547  0.0805  0.0482 -0.0053
89660W        W32572  19.548  15.512  14.905 -0.0833  0.0098  0.2230
89661W        W32573  18.841  15.354  16.266  0.0169 -0.0382  0.1788
89662W        W32574  21.422  16.319  15.903  0.0748 -0.0296 -0.2803
89663W        W32575  19.836  16.257  16.498 -0.4063 -0.2252  0.1432
89664W        W32576  22.076  16.429  16.566 -0.1310 -0.2048 -0.1444
89665W        W32577  18.087  15.706  16.233 -0.0616 -0.2225 -0.0111
89666W        W32578  21.936  15.561  15.638  0.2971  0.0611  0.1589
89667W        W32579  19.851  16.520  17.206  0.1464  0.3677 -0.1999
89668W        W32580  18.653  15.852  15.794 -0.0789  0.1903  0.1295
89669W        W32581  19.726  14.150  17.900 -0.0640  0.1951  0.2649
89670W        W32582  22.666  18.596  17.009  0.0268  0.0944  0.2094
89671W        W32583  21.024  13.929  16.226  0.0334 -0.0808 -0.1695
89672W        W32584  20.503  14.389  16.983  0.3825 -0.1958  0.1039
89673W        W32585  21.319  15.740  17.634  0.0158  0.1285  0.0245
89674W        W32586  20.419  15.683  16.725  0.3473  0.0449 -0.1714
89675W        W32587  18.085  13.994  17.274 -0.0632  0.0978 -0.0852
89676W        W32588  20.824  20.610  18.086  0.2165 -0.0267 -0.0059
89677W        W32589  20.537  16.215  16.029 -0.1110  0.0407 -0.0662
89678W        W32590  23.306  15.971  18.027  0.0001 -0.0926  0.4281
89679W        W32591  21.338  17.401  16.763 -0.0088  0.0629 -0.2499
89680W        W32592  19.813  15.553  15.344 -0.1920  0.2588 -0.0659
89681W        W32593  18.165  15.994  16.703 -0.3228 -0.0340  0.2466
89682W        W32594  22.514  15.797  17.567  0.3030 -0.2598 -0.0635
89683W        W32595  18.680  14.267  15.802 -0.3061 -0.2355 -0.3565
89684W        W32596  20.668  16.044  17.673 -0.3426 -0.1254 -0.0279
89685W        W32597  21.277  16.815  14.957  0.1182 -0.0608  0.4572
89686W        W32598  20.442  18.260  15.372 -0.2642  0.0137 -0.0387
89687W        W32599  21.100  16.148  16.264  0.4233  0.1561  0.0381
89688W        W32600  19.128  15.692  15.768 -0.1389 -0.0595 -0.0806
89689W        W32601  20.546  19.256  15.611  0.2487 -0.0974 -0.2431
89690W        W32602  18.056  14.751  16.337 -0.0361  0.0897  0.0239
89691W        W32603  22.252  16.326  15.868  0.0930 -0.1222 -0.0021
89692W        W32604  19.857  17.367  16.052  0.1725 -0.1009 -0.0315
89693W        W32605  21.084  16.112  17.230  0.2374  0.0209  0.1474
89694W        W32606  20.599  15.183  14.903 -0.0139 -0.1461  0.0732
89695W        W32607  23.052  16.232  19.628 -0.0070  0.0297 -0.0835
89696W        W32608  18.399  16.936  15.628  0.0949 -0.0174 -0.0245
89697W        W32609  20.765  14.359  16.249  0.0881  0.2747  0.0266
89698W        W32610  20.708  19.011  16.796  0.3049 -0.0593 -0.1181
89699W        W32611  18.626  16.726  16.799 -0.3010  0.0763 -0.2560
89700W        W32612  18.821  16.959  15.882 -0.0111 -0.2818  0.1623
89701W        W32613  20.839  13.491  16.641 -0.1159 -0.2275 -0.2016
89702W        W32614  21.891  15.612  17.152 -0.1695  0.0413 -0.2150
89703W        W32615  20.681  16.673  16.216  0.1123  0.1070 -0.2987
89704W        W32616  23.306  17.724  19.387 -0.0283 -0.1768 -0.3440
89705W        W32617  19.486  16.267  16.829  0.1234  0.0044 -0.1433
89706W        W32618  19.265  15.683  16.245  0.3433 -0.0298  0.0057
89707W        W32619  20.934  18.356  17.276 -0.0189 -0.2324 -0.3277
89708W        W32620  23.778  17.545  17.575 -0.4098  0.0399  0.1964
89709W        W32621  18.535  16.595  16.055  0.1415 -0.1590  0.0899
89710W        W32622  18.866  14.931  16.613  0.0812  0.3015  0.1719
89711W        W32623  20.707  16.866  17.241 -0.0998 -0.0948 -0.0298
89712W        W32624  20.953  17.117  16.875  0.0230 -0.0966  0.2239
89713W        W32625  20.152  14.779  16.870 -0.3538 -0.0182  0.2460
89714W        W32626  19.833  17.230  14.728 -0.3022  0.0474 -0.2835
89715W        W32627  18.939  17.906  17.373  0.0872  0.0038 -0.3083
89716W        W32628  18.605  16.043  17.349 -0.2563 -0.1097  0.0380
89717W        W32629  18.255  19.585  15.978  0.0129  0.0847 -0.1361
89718W        W32630  21.469  16.620  15.426 -0.0569 -0.1163  0.0045
89719W        W32631  20.461  16.600  15.750 -0.1788 -0.1071  0.0689
89720W        W32632  21.065  18.777  17.058 -0.0972 -0.0400  0.1081
89721W        W32633  19.215  14.302  16.420 -0.5812 -0.2147  0.0937
89722W        W32634  17.961  16.564  16.781 -0.2849 -0.1201  0.1261
89723W        W32635  18.049  17.730  15.072  0.0969 -0.0708 -0.1352
89724W        W32636  21.503  17.179  15.382 -0.0486  0.0122  0.1983
89725W        W32637  18.214  18.543  15.766 -0.1565 -0.1612  0.0050
89726W        W32638  21.503  18.434  18.994  0.0159 -0.0172 -0.2096
89727W        W32639  21.377  14.531  15.485 -0.1003  0.2860 -0.0267
89728W        W32640  23.281  17.628  17.799 -0.2174 -0.1447 -0.0738
89729W        W32641  21.035  15.762  15.418 -0.0489 -0.0643  0.0509
89730W        W32642  22.668  18.369  17.448 -0.0559  0.0050 -0.1679
89731W        W32643  18.379  15.114  16.444 -0.2912  0.0325 -0.2674
89732W        W32644  20.603  15.612  15.182  0.2716  0.0395  0.1041
89733W        W32645  19.640  14.553  17.647  0.3615 -0.0761 -0.2146
89734W        W32646  23.191  15.049  18.564 -0.1813 -0.0556 -0.1452
89735W        W32647  17.990  18.004  17.038  0.0476 -0.4114  0.0408
89736W        W32648  21.392  18.182  16.536 -0.2784  0.2338 -0.5280
89737W        W32649  18.196  15.825  15.695 -0.2635 -0.0537  0.1293
89738W        W32650  20.247  17.510  15.773 -0.1227  0.3111  0.0413
89739W        W32651  22.427  15.595  17.108  0.1722 -0.1915 -0.0034
89740W        W32652  20.190  16.863  14.745 -0.2294  0.0629  0.3546
89741W        W32653  20.008  13.353  16.621  0.0613 -0.0739 -0.2503
89742W        W32654  18.841  17.494  15.104 -0.2614 -0.2254 -0.0801
89743W        W32655  19.040  17.146  16.924  0.0248  0.0552  0.0473
89744W        W32656  20.633  17.425  15.456  0.0068  0.3181  0.0377
89745W        W32657  18.688  14.354  15.263 -0.0464 -0.0553  0.0420
89746W        W32658  22.498  16.128  16.864 -0.0813 -0.1812 -0.0948
89747W        W32659  18.705  16.235  16.809 -0.0886  0.0667 -0.3322
89748W        W32660  22.025  14.198  17.472  0.0265 -0.1359 -0.0467
89749W        W32661  18.226  14.210  15.517 -0.1402 -0.2921 -0.1505
89750W        W32662  20.665  15.690  15.742  0.1361 -0.0329 -0.1172
89751W        W32663  19.860  17.324  17.096 -0.1363 -0.1352 -0.1672
89752W        W32664  19.101  14.694  17.443  0.0657 -0.0902  0.2038
89753W        W32665  20.131  15.972  16.216 -0.0803  0.1737  0.0610
89754W        W32666  22.919  17.344  17.511 -0.0368  0.2508  0.0251
89755W        W32667  19.722  16.545  15.529  0.2062  0.0467  0.1303
89756W        W32668  20.540  18.550  16.982 -0.0893  0.0945  0.0682
89757W        W32669  18.482  14.328  17.208  0.4075 -0.1528  0.1253
89758W        W32670  21.911  15.248  15.212  0.1139 -0.3682  0.0847
89759W        W32671  18.950  15.983  16.469 -0.2417 -0.1799 -0.1268
89760W        W32672  20.198  16.168  16.903  0.0411 -0.0803  0.1600
89761W        W32673  20.667  18.762  17.387 -0.1232 -0.0543  0.2061
89762W        W32674  18.884  14.049  16.234 -0.0473  0.1519 -0.2730
89763W        W32675  22.954  16.907  15.616 -0.1090  0.3262  0.1084
89764W        W32676  22.604  17.369  18.280 -0.1587  0.1021  0.1263
89765W        W32677  19.258  17.471  15.497 -0.1604 -0.3597 -0.0784
89766W        W32678  21.166  17.791  15.983  0.1067  0.1798 -0.1453
89767W        W32679  21.076  18.225  16.164  0.0349 -0.2056 -0.0551
89768W        W32680  17.106  15.712  16.283  0.1374 -0.1683  0.0128
89769W        W32681  21.205  18.000  17.009 -0.0179 -0.3532 -0.0007
89770W        W32682  21.085  17.767  16.547  0.1793 -0.0215  0.0271
89771W        W32683  19.596  15.528  15.907 -0.3501 -0.1674  0.1528
89772W        W32684  17.700  16.150  16.849 -0.2533 -0.1885  0.2393
89773W        W32685  18.417  17.652  17.048 -0.2132  0.2584 -0.2547
89774W        W32686  23.438  17.297  18.455  0.0013  0.0317  0.1762
89775W        W32687  23.213  16.661  17.908  0.1582  0.4433 -0.0826
89776W        W32688  21.606  18.559  14.718  0.2781 -0.0143 -0.0024
89777W        W32689  22.833  16.124  17.324 -0.1913  0.0546 -0.0267
89778W        W32690  20.371  17.675  16.794  0.0697 -0.1561 -0.2496
89779W        W32691  18.952  18.447  17.460  0.1291 -0.0754  0.1083
89780W        W32692  18.071  16.124  15.333 -0.2240  0.0745  0.1304
89781W        W32693  20.601  16.452  16.945  0.1215  0.0702  0.2334
89782W        W32694  19.886  16.953  15.207 -0.0280 -0.0888  0.2821
89783W        W32695  19.379  17.732  15.136 -0.2147 -0.3454 -0.1634
89784W        W32696  21.396  18.608  16.233  0.0108  0.1632 -0.2781
89785W        W32697  19.326  15.146  16.055  0.3283 -0.0607 -0.3355
89786W        W32698  22.237  19.414  16.814  0.0590  0.2185  0.0294
89787W        W32699  19.305  14.915  15.560  0.1643  0.3007  0.2031
89788W        W32700  21.956  15.548  16.318 -0.3631  0.0625 -0.1164
89789W        W32701  21.080  13.410  16.113  0.2020  0.1441  0.0524
89790W        W32702  20.118  17.126  16.617 -0.2299  0.3023  0.0118
89791W        W32703  17.006  16.197  15.030 -0.0320 -0.3775  0.0963
89792W        W32704  19.093  16.337  14.704 -0.0455  0.0649  0.1368
89793W        W32705  18.236  16.944  16.637  0.1254 -0.1256  0.0310
89794W        W32706  20.353  13.697  19.165  0.1994 -0.0380  0.0361
89795W        W32707  19.033  15.131  17.209  0.1228  0.0113  0.0202
89796W        W32708  17.926  17.257  16.309  0.0991 -0.0807 -0.1741
89797W        W32709  20.185  16.681  16.233 -0.0920  0.2888  0.4283
89798W        W32710  22.259  16.713  16.173 -0.0243 -0.1208  0.1056
89799W        W32711  19.492  14.155  16.824 -0.0065 -0.0126  0.3176
89800W        W32712  18.409  15.420  15.936 -0.2063  0.0723 -0.3044
89801W        W32713  19.793  17.366  15.543 -0.0095 -0.0450 -0.2557
89802W        W32714  21.639  17.823  16.746  0.1121 -0.2714  0.0849
89803W        W32715  19.340  14.971  15.003  0.1397  0.1437 -0.3537
89804W        W32716  22.016  17.375  17.515 -0.0008 -0.3861 -0.2443
89805W        W32717  18.072  17.023  14.812 -0.0402  0.2953 -0.2620
89806W        W32718  21.219  16.740  17.126  0.0507  0.1549  0.1404
89807W        W32719  20.995  14.914  18.003 -0.0613 -0.1036 -0.5304
89808W        W32720  17.804  13.916  16.265  0.0862  0.2250 -0.4057
89809W        W32721  19.766  15.665  16.342  0.0026 -0.1129  0.0383
89810W        W32722  19.862  18.120  15.340 -0.0317  0.1157 -0.2126
89811W        W32723  21.653  17.440  15.831  0.1037  0.1202  0.1893
89812W        W32724  19.270  16.990  16.336  0.0019  0.0397 -0.0801
89813W        W32725  19.846  16.838  17.609 -0.2970  0.0931 -0.1892
89814W        W32726  19.059  14.324  17.129  0.0064  0.3375  0.0373
89815W        W32727  21.792  16.571  16.095 -0.2985  0.1409  0.2086
89816W        W32728  20.558  17.983  17.269  0.0287  0.0102 -0.0716
89817W        W32729  23.059  17.196  17.973  0.0791 -0.1302  0.3424
89818W        W32730  21.096  15.463  16.752  0.5355 -0.0259 -0.0003
89819W        W32731  20.571  16.126  15.407  0.0276 -0.0529 -0.1518
89820W        W32732  18.753  13.454  17.359 -0.0358 -0.1087  0.1493
89821W        W32733  18.932  15.512  16.846  0.1157 -0.3128 -0.1021
89822W        W32734  21.954  17.445  16.462 -0.1601 -0.1632  0.3890
89823W        W32735  19.589  14.700  15.931 -0.2719  0.1577  0.0526
89824W        W32736  19.713  14.675  15.412 -0.2182 -0.3146 -0.2831
89825W        W32737  21.478  16.968  15.884  0.0057  0.0986 -0.3432
89826W        W32738  18.025  16.725  16.214  0.1282 -0.4922  0.3304
89827W        W32739  19.798  15.119  16.198 -0.0312 -0.0072  0.0038
89828W        W32740  21.955  15.788  17.701 -0.3124  0.1573  0.2605
89829W        W32741  19.718  16.785  16.356  0.1080  0.0797  0.0792
89830W        W32742  22.594  16.402  18.730 -0.0566 -0.0396 -0.0935
89831W        W32743  19.404  16.686  15.946 -0.0700 -0.2490  0.1468
89832W        W32744  21.752  15.928  14.688  0.1773  0.0338  0.0200
89833W        W32745  21.515  19.062  17.147 -0.1661 -0.0291  0.2124
89834W        W32746  23.090  18.123  18.484 -0.2908 -0.0549  0.1455
89835W        W32747  21.444  18.484  17.344  0.0201 -0.0860  0.0194
89836W        W32748  21.883  15.863  16.720 -0.0937 -0.0896 -0.1225
89837W        W32749  20.013  14.672  17.369 -0.2476  0.1477  0.1298
89838W        W32750  17.638  15.940  15.609 -0.2070  0.3669  0.1324
89839W        W32751  19.362  15.836  16.709  0.1937  0.1112 -0.1402
89840W        W32752  21.653  15.984  17.298  0.0405  0.0222  0.0010
89841W        W32753  18.271  15.805  17.114  0.1466  0.1413  0.1234
89842W        W32754  19.990  14.334  15.201  0.0487  0.1115  0.1771
89843W        W32755  20.742  17.486  16.052 -0.1208 -0.1017 -0.0744
89844W        W32756  19.041  15.999  17.055  0.2047 -0.2134 -0.2292
89845W        W32757  19.908  14.003  18.366 -0.0766  0.2051  0.1753
89846W        W32758  23.274  13.633  18.855  0.2210  0.0345 -0.1975
89847W        W32759  22.337  17.116  19.425  0.2941 -0.3694 -0.2436
89848W        W32760  18.415  13.515  18.589 -0.2597 -0.0622 -0.0003
89849W        W32761  20.708  18.298  20.199 -0.1535 -0.1333  0.1223
89850W        W32762  20.142  14.227  20.495 -0.2648 -0.1666  0.1822
89851W        W32763  23.148  18.321  21.270 -0.1179 -0.0218 -0.1035
89852W        W32764  21.911  16.113  21.070 -0.2089  0.3673 -0.3175
89853W        W32765  21.508  16.489  18.324  0.0258 -0.0935  0.0533
89854W        W32766  20.697  17.181  19.643  0.5036  0.0688 -0.1605
89855W        W32767  21.594  12.880  18.956 -0.2259 -0.0719  0.0473
89856W        W32768  21.133  15.955  20.850 -0.2085 -0.2897 -0.1141
89857W        W32769  19.030  15.995  17.615  0.0385 -0.1748  0.1044
89858W        W32770  19.680  15.364  17.796  0.1753 -0.2723 -0.0393
89859W        W32771  21.228  18.826  18.902  0.0258 -0.1364 -0.1840
89860W        W32772  20.273  13.845  20.857 -0.1923 -0.1306  0.3233
89861W        W32773  20.264  13.559  22.352 -0.0460  0.4644  0.1794
89862W        W32774  18.382  16.474  16.472  0.1940 -0.2048 -0.3491
89863W        W32775  18.689  15.570  18.859  0.2735 -0.1455  0.2492
89864W        W32776  21.575  16.053  19.738  0.1123  0.0744  0.1176
89865W        W32777  22.574  16.377  19.622  0.0440 -0.1162  0.2308
89866W        W32778  20.665  18.346  18.334 -0.2098  0.0144 -0.1493
89867W        W32779  20.875  17.740  18.954  0.1111 -0.2739 -0.0916
89868W        W32780  21.657  14.619  22.118  0.1170  0.0320 -0.0347
89869W        W32781  18.672  16.102  18.590  0.3456  0.1345  0.1765
89870W        W32782  22.081  18.043  19.825  0.2346  0.1064 -0.0876
89871W        W32783  22.374  16.260  20.091  0.2616  0.0487 -0.0668
89872W        W32784  20.675  17.095  21.398 -0.2709 -0.4137  0.1054
89873W        W32785  18.194  17.464  17.851 -0.0118 -0.3154 -0.1272
89874W        W32786  21.695  17.922  20.076  0.1788  0.1328  0.0159
89875W        W32787  21.843  15.581  20.506  0.0171 -0.0996  0.1965
89876W        W32788  20.540  16.941  20.550 -0.2606 -0.1896 -0.1521
89877W        W32789  20.670  15.436  22.653  0.3559 -0.0276  0.1973
89878W        W32790  19.444  18.001  16.624 -0.0453 -0.2069  0.1869
89879W        W32791  21.879  15.080  18.471  0.0866 -0.2164  0.3681
89880W        W32792  19.908  14.957  17.777 -0.0107  0.3927  0.0503
89881W        W32793  22.093  15.203  18.927  0.1197 -0.0577  0.1602
89882W        W32794  20.742  13.385  19.255  0.5239 -0.1114 -0.0665
89883W        W32795  23.055  16.513  20.963  0.0842 -0.2215 -0.2198
89884W        W32796  22.889  14.064  20.036 -0.2476  0.2280  0.0896
89885W        W32797  21.770  15.336  19.549 -0.1354  0.0786 -0.0578
89886W        W32798  20.149  17.136  19.742  0.0931  0.3965  0.1041
89887W        W32799  19.148  15.681  18.991 -0.0845 -0.1866  0.2436
89888W        W32800  22.829  17.330  19.608 -0.0146  0.1696 -0.0957
89889W        W32801  21.158  18.142  19.177  0.0731  0.1204  0.0480
89890W        W32802  21.413  17.665  18.262 -0.0090 -0.0824  0.4086
89891W        W32803  19.154  16.504  20.364  0.1071  0.1573  0.0996
89892W        W32804  20.975  13.993  17.957  0.0606  0.2953 -0.0343
89893W        W32805  21.613  16.855  23.063 -0.0009  0.3116  0.1629
89894W        W32806  18.816  17.266  18.889 -0.0567 -0.3776  0.3206
89895W        W32807  23.073  15.586  20.828 -0.0026  0.3771 -0.1183
89896W        W32808  22.177  16.641  19.516 -0.1058  0.2290  0.1321
89897W        W32809  21.722  18.269  16.940 -0.1908  0.0415  0.0014
89898W        W32810  21.923  14.447  19.799  0.2986  0.1372  0.1795
89899W        W32811  21.462  15.176  21.234 -0.1016 -0.0741  0.3749
89900W        W32812  19.720  16.358  17.672  0.1088 -0.0566 -0.1511
89901W        W32813  23.068  17.198  22.503 -0.0571 -0.1385 -0.1886
89902W        W32814  22.135  16.656  20.008 -0.1650 -0.0058 -0.4238
89903W        W32815  18.658  16.783  18.918  0.2535 -0.0098 -0.0146
89904W        W32816  21.644  14.738  21.065  0.2885 -0.2621 -0.2546
89905W        W32817  20.158  18.526  20.906  0.3467  0.1855  0.2720
89906W        W32818  18.536  18.173  17.231 -0.0477 -0.3276  0.1093
89907W        W32819  18.252  17.114  18.663 -0.1826  0.0144  0.1442
89908W        W32820  22.359  15.716  18.927 -0.2397 -0.1177 -0.0435
89909W        W32821  19.127  14.097  19.416  0.1529  0.1492 -0.2046
89910W        W32822  22.052  13.517  21.264  0.0576  0.0284  0.0942
89911W        W32823  21.771  19.258  19.594  0.2231  0.2961  0.2396
89912W        W32824  22.407  16.176  19.199 -0.1228  0.1561 -0.1101
89913W        W32825  21.530  16.740  17.847 -0.0105 -0.1099  0.2385
89914W        W32826  19.538  15.094  18.216  0.0179 -0.0018 -0.0472
89915W        W32827  20.839  16.376  21.300 -0.1815 -0.2445 -0.0698
89916W        W32828  17.551  14.280  17.794  0.0459 -0.0284 -0.0992
89917W        W32829  21.851  15.546  18.670 -0.1255 -0.0690 -0.1361
89918W        W32830  20.217  16.258  18.385  0.3582 -0.4442  0.2427
89919W        W32831  18.303  16.964  18.185  0.0203  0.2406  0.0803
89920W        W32832  20.678  14.487  22.648 -0.0026 -0.0650 -0.2142
89921W        W32833  21.469  18.006  18.635 -0.0581 -0.1899 -0.0917
89922W        W32834  22.074  17.497  20.095 -0.0465  0.0475  0.0056
89923W        W32835  20.853  19.105  19.260 -0.0296 -0.0309 -0.2042
89924W        W32836  19.794  15.218  20.000  0.0682 -0.1587  0.0495
89925W        W32837  19.902  15.429  17.352 -0.0436 -0.0366 -0.0443
89926W        W32838  20.431  18.630  19.133  0.1278 -0.2862  0.0623
89927W        W32839  20.579  14.387  18.615  0.2817  0.0984 -0.0024
89928W        W32840  22.505  17.248  20.441 -0.0707  0.1282 -0.0117
89929W        W32841  19.057  16.624  19.874  0.0789 -0.1950  0.2594
89930W        W32842  21.211  15.125  21.797  0.1003  0.1904 -0.1690
89931W        W32843  22.144  15.735  21.336 -0.1098  0.0760  0.2107
89932W        W32844  18.069  14.572  18.010  0.3745 -0.0875  0.1585
89933W        W32845  21.420  19.231  19.137 -0.0116 -0.0876 -0.0645
89934W        W32846  18.490  15.729  18.323 -0.1906 -0.1693 -0.2149
89935W        W32847  21.009  18.680  18.361  0.0613 -0.0938 -0.1743
89936W        W32848  22.159  13.560  20.740 -0.0399 -0.0039  0.2554
89937W        W32849  21.323  16.132  21.292  0.1863 -0.0432 -0.0331
89938W        W32850  18.743  15.626  17.882 -0.2107 -0.0526 -0.0700
89939W        W32851  19.866  17.591  19.826 -0.0130  0.0227 -0.2174
89940W        W32852  21.177  15.189  18.854 -0.0350  0.2322 -0.1371
89941W        W32853  21.918  13.353  18.898 -0.0003 -0.2685 -0.0702
89942W        W32854  21.558  15.884  20.208  0.0282 -0.1928  0.3007
89943W        W32855  21.933  16.505  19.089 -0.1026  0.0474  0.4814
89944W        W32856  22.249  14.941  18.135 -0.1017  0.1956 -0.0951
89945W        W32857  21.694  14.630  18.253 -0.0171 -0.0282 -0.2628
89946W        W32858  21.170  16.872  18.587  0.1946  0.2190  0.1869
89947W        W32859  21.206  16.443  19.104  0.1152 -0.2933  0.3293
89948W        W32860  21.900  14.875  19.322 -0.2773 -0.1208  0.0057
89949W        W32861  21.727  18.381  19.406  0.0643  0.1178  0.1429
89950W        W32862  18.600  16.035  19.165  0.0801 -0.1953 -0.1408
89951W        W32863  21.200  16.326  21.817 -0.2435 -0.1295 -0.0366
89952W        W32864  22.404  16.741  19.094 -0.1603 -0.1083 -0.2091
89953W        W32865  19.292  14.836  19.480 -0.1468  0.0029 -0.2674
89954W        W32866  21.044  16.564  18.028  0.0175  0.2122  0.0360
89955W        W32867  20.890  14.419  20.376  0.0437 -0.1438 -0.4343
89956W        W32868  18.527  18.616  16.845  0.2165  0.0214 -0.2544
89957W        W32869  22.199  14.731  20.309  0.0539  0.0110 -0.1708
89958W        W32870  21.523  14.257  20.299 -0.1330 -0.0057 -0.2584
89959W        W32871  20.119  13.438  21.101 -0.0174  0.0501  0.1928
89960W        W32872  23.365  15.856  23.425  0.1406 -0.0205  0.1179
89961W        W32873  22.358  15.434  18.463  0.2608  0.1432 -0.1296
89962W        W32874  21.468  16.077  19.234  0.3578  0.0362 -0.3696
89963W        W32875  19.788  16.000  17.181  0.1395 -0.3808 -0.0370
89964W        W32876  20.620  14.633  21.351 -0.0494 -0.0892  0.2434
89965W        W32877  18.879  15.427  19.329  0.1599 -0.1018 -0.1104
89966W        W32878  21.116  17.480  19.797  0.0099 -0.0411 -0.0819
89967W        W32879  21.082  16.366  18.629 -0.0606  0.4855 -0.3373
89968W        W32880  21.842  14.581  20.626  0.2762 -0.0516 -0.0709
89969W        W32881  21.079  13.564  18.238  0.2341 -0.0833  0.0951
89970W        W32882  19.880  18.463  17.958 -0.0995 -0.3842 -0.2627
89971W        W32883  20.526  13.434  20.630 -0.2395  0.1245 -0.2413
89972W        W32884  19.488  17.010  17.204 -0.0627  0.1100 -0.1904
89973W        W32885  21.964  16.107  19.460 -0.3253 -0.1145  0.1152
89974W        W32886  22.333  15.367  19.848 -0.0862  0.4229  0.3819
89975W        W32887  19.425  15.707  17.314  0.3548  0.0757  0.0781
89976W        W32888  22.031  14.957  19.879  0.1072  0.1252  0.1564
89977W        W32889  22.494  17.085  18.671 -0.0411  0.1565 -0.1353
89978W        W32890  19.168  14.598  19.882  0.0331  0.0337 -0.1322
89979W        W32891  20.280  14.506  19.887 -0.0074 -0.2028  0.1762
89980W        W32892  19.025  17.943  19.193 -0.4708 -0.0075 -0.3264
89981W        W32893  21.402  15.573  20.797  0.0942  0.1040  0.2261
89982W        W32894  22.175  14.015  19.739  0.3114 -0.1051  0.6871
89983W        W32895  18.745  14.745  17.115 -0.0096  0.1601 -0.1895
89984W        W32896  21.580  15.649  21.345  0.1244 -0.1954 -0.0784
89985W        W32897  20.491  15.415  18.196  0.1449  0.2977 -0.1447
89986W        W32898  21.033  17.310  19.220  0.1358  0.1767 -0.0106
89987W        W32899  20.270  15.551  20.342 -0.0457 -0.1799 -0.0482
89988W        W32900  21.791  16.610  20.441  0.1896 -0.0830 -0.1788
89989W        W32901  21.068  14.796  19.674 -0.3927  0.1713 -0.0536
89990W        W32902  22.036  15.759  19.836 -0.1216 -0.1250 -0.3440
89991W        W32903  21.577  16.427  20.940 -0.2414  0.0821 -0.0908
89992W        W32904  20.746  12.251  19.779  0.0977 -0.1723 -0.1681
89993W        W32905  22.428  17.455  18.999 -0.5310  0.1371 -0.0951
89994W        W32906  21.530  16.576  19.992  0.1363 -0.1676  0.1013
89995W        W32907  19.033  16.885  17.946 -0.1734 -0.2272  0.0076
89996W        W32908  17.860  16.506  19.088  0.0906  0.1092  0.0272
89997W        W32909  20.539  14.428  20.832 -0.0955  0.2948  0.3294
89998W        W32910  19.961  16.281  19.252 -0.0553  0.1804  0.0176
89999W        W32911  19.305  17.301  17.692 -0.2098  0.2249  0.3328
90000W        W32912  18.904  16.324  19.437 -0.2986  0.0830  0.0513
90001W        W32913  22.323  13.548  19.892 -0.2078  0.1649  0.2371
90002W        W32914  22.152  16.246  17.687 -0.2914  0.0737 -0.1327
90003W        W32915  20.156  15.468  17.790  0.2675 -0.4402 -0.0900
90004W        W32916  21.411  15.052  22.243  0.0202  0.0412 -0.2328
90005W        W32917  21.859  16.386  17.013  0.1809  0.0786 -0.1331
90006W        W32918  21.171  15.635  23.020 -0.3689 -0.1159  0.1118
90007W        W32919  22.786  17.069  19.183 -0.1693  0.0394 -0.0859
90008W        W32920  21.659  17.694  20.485 -0.0885  0.0951 -0.1580
90009W        W32921  21.363  14.714  18.756 -0.2556  0.0600  0.1628
90010W        W32922  19.147  14.662  17.969 -0.0167  0.0289 -0.1197
90011W        W32923  21.787  17.459  19.062  0.1911  0.1671  0.1109
90012W        W32924  20.932  16.980  17.748 -0.1119  0.2186  0.3409
90013W        W32925  21.954  15.980  18.978  0.2153 -0.0342  0.1347
90014W        W32926  19.086  15.096  18.953 -0.1394 -0.0350 -0.2395
90015W        W32927  21.597  15.577  19.114 -0.1795  0.0338 -0.0155
90016W        W32928  21.862  17.829  18.318 -0.1202  0.4284 -0.1595
90017W        W32929  22.193  16.055  18.576  0.2065  0.1194 -0.0736
90018W        W32930  21.330  15.648  19.586  0.1850 -0.1990 -0.0424
90019W        W32931  21.562  16.077  22.301  0.1852  0.3257  0.0493
90020W        W32932  22.281  15.840  20.814  0.0486 -0.1597  0.1005
90021W        W32933  20.774  14.878  20.593 -0.1203  0.1359  0.0168
90022W        W32934  18.186  15.605  19.917 -0.0537  0.2180 -0.0126
90023W        W32935  21.880  17.954  20.860  0.0500  0.0105  0.0274
90024W        W32936  22.645  14.889  18.680 -0.1055 -0.0840 -0.0853
90025W        W32937  22.847  14.240  21.528 -0.1561 -0.1360 -0.0459
90026W        W32938  23.079  16.813  18.838  0.0171  0.0067 -0.0146
90027W        W32939  21.677  15.355  17.525 -0.2486  0.2415 -0.0630
90028W        W32940  18.775  14.890  19.332 -0.3082 -0.2231  0.0241
90029W        W32941  21.096  16.512  22.281  0.2382 -0.1014 -0.1515
90030W        W32942  20.984  14.078  18.405  0.1509  0.0821  0.2634
90031W        W32943  21.956  16.215  22.666  0.2479  0.1373  0.1675
90032W        W32944  22.097  18.927  17.513  0.0602 -0.2805 -0.3228
90033W        W32945  22.144  16.628  18.590 -0.0344 -0.1176 -0.3733
90034W        W32946  21.368  14.386  19.872  0.0718 -0.3226  0.1416
90035W        W32947  20.027  17.624  20.364 -0.0713 -0.1227 -0.1433
90036W        W32948  19.265  14.715  18.419 -0.2214 -0.2039  0.0982
90037W        W32949  21.327  17.095  18.068 -0.1924 -0.1013 -0.0841
90038W        W32950  22.139  15.606  19.411  0.1285 -0.3421 -0.1415
90039W        W32951  22.941  14.955  22.533 -0.3715 -0.1459 -0.1266
90040W        W32952  21.347  13.094  20.043  0.0536  0.1037  0.5052
90041W        W32953  22.244  15.246  20.986  0.0025  0.0774 -0.0549
90042W        W32954  21.020  14.158  20.792 -0.0756  0.1538 -0.0957
90043W        W32955  19.200  17.397  19.155  0.0036  0.2766  0.0570
90044W        W32956  18.086  15.937  19.299 -0.3939 -0.1860  0.1111
90045W        W32957  20.614  17.451  18.565 -0.1750 -0.3280  0.1756
90046W        W32958  20.781  14.328  19.899 -0.0100 -0.0153 -0.1305
90047W        W32959  22.275  15.754  20.286 -0.0914  0.2494 -0.1789
90048W        W32960  22.515  16.168  21.285  0.0352  0.1781  0.0676
90049W        W32961  21.002  17.140  20.121  0.0737  0.3577  0.2867
90050W        W32962  22.711  15.820  19.371 -0.2107  0.2450 -0.1145
90051W        W32963  19.292  15.927  19.384 -0.2595 -0.1348 -0.1901
90052W        W32964  20.536  16.755  22.162  0.0679 -0.1396 -0.5933
90053W        W32965  19.595  14.335  18.618  0.1117 -0.1824  0.0888
90054W        W32966  20.730  18.098  16.779 -0.1891 -0.0054  0.1521
90055W        W32967  19.275  17.878  19.866 -0.2906  0.2779  0.0215
90056W        W32968  18.343  15.493  19.287  0.1546 -0.1956  0.0788
90057W        W32969  20.426  19.721  18.511 -0.2817  0.0556 -0.0017
90058W        W32970  21.701  16.471  17.477 -0.0896 -0.0905 -0.0026
90059W        W32971  21.996  16.382  18.181  0.0521 -0.4491  0.2879
90060W        W32972  20.895  18.532  19.235  0.4870  0.0139  0.1424
90061W        W32973  19.618  15.015  17.304 -0.0698 -0.0120  0.0729
90062W        W32974  19.257  17.833  18.316 -0.1942 -0.0608 -0.1093
90063W        W32975  23.324  17.686  18.811  0.3481 -0.1530  0.2320
90064W        W32976  22.210  16.832  22.409 -0.2652  0.3634  0.1611
90065W        W32977  24.024  14.685  19.802  0.1403 -0.1489 -0.0541
90066W        W32978  23.124  15.696  19.861 -0.0767  0.2127 -0.0535
90067W        W32979  22.812  14.491  20.964  0.3801 -0.0126 -0.1347
90068W        W32980  21.463  17.296  19.456 -0.0772  0.2832  0.1168
90069W        W32981  21.644  15.070  18.920 -0.2307  0.3420 -0.2897
90070W        W32982  19.884  15.843  20.118  0.2407 -0.1431 -0.4233
90071W        W32983  21.685  14.616  23.577  0.2509 -0.0070 -0.3244
90072W        W32984  21.900  18.744  17.138  0.1662  0.2130 -0.1040
90073W        W32985  18.844  15.567  17.368 -0.1981 -0.1346  0.0250
90074W        W32986  22.281  14.685  20.833 -0.2133  0.2123  0.0152
90075W        W32987  21.759  17.392  18.089  0.4269  0.1030  0.0860
90076W        W32988  18.516  15.260  17.049 -0.0422  0.1128 -0.2133
90077W        W32989  22.893  15.923  18.769  0.0091 -0.2231  0.1098
90078W        W32990  21.020  15.299  20.328  0.0510 -0.1729  0.0727
90079W        W32991  23.035  13.817  22.389 -0.1633 -0.1147  0.3151
90080W        W32992  22.369  15.869  18.154 -0.3100  0.0183  0.1799
90081W        W32993  19.742  14.917  19.266 -0.0299 -0.1184  0.3542
90082W        W32994  20.404  15.661  17.321  0.1223  0.1717  0.2515
90083W        W32995  22.025  17.142  23.192 -0.0710  0.0785 -0.2041
90084W        W32996  22.475  16.443  17.346  0.2919 -0.2792  0.2503
90085W        W32997  21.072  17.467  21.264 -0.2454  0.1627  0.1253
90086W        W32998  19.054  14.546  19.028 -0.1813  0.2058  0.1130
90087W        W32999  21.612  15.585  17.975  0.3648  0.0189  0.3254
90088W        W33000  18.986  16.001  18.119  0.1028  0.3004  0.0812
90089W        W33001  21.542  18.689  20.524 -0.1569  0.2092  0.0954
90090W        W33002  18.075  14.097  18.090 -0.3593 -0.0229 -0.0310
90091W        W33003  22.696  16.840  19.587  0.0437  0.0011 -0.2107
90092W        W33004  21.866  15.052  20.735  0.1063 -0.2868  0.2134
90093W        W33005  20.221  19.042  16.787  0.0995 -0.1269 -0.1747
90094W        W33006  22.440  17.069  19.973 -0.1262  0.1137 -0.2984
90095W        W33007  21.762  16.901  19.328 -0.0561  0.2244  0.2653
90096W        W33008  18.633  15.049  18.899 -0.0668  0.0295  0.0254
90097W        W33009  22.323  16.596  21.919  0.0246 -0.1696 -0.1388
90098W        W33010  22.728  16.185  21.926  0.0318 -0.1282  0.0058
90099W        W33011  20.943  12.438  19.333  0.2161 -0.0391  0.0987
90100W        W33012  19.528  14.931  18.812 -0.2406  0.0739  0.2421
90101W        W33013  22.618  15.505  20.689 -0.0115  0.2851 -0.3550
90102W        W33014  22.582  13.493  21.187 -0.0853  0.3192 -0.0586
90103W        W33015  20.591  18.576  16.488  0.0078 -0.1789  0.0391
90104W        W33016  23.352  13.417  22.627  0.0684  0.1573 -0.0306
90105W        W33017  20.792  17.827  19.927 -0.2240  0.3754 -0.0331
90106W        W33018  18.244  14.720  17.222 -0.1595 -0.1810  0.0898
90107W        W33019  21.511  17.196  20.550 -0.0084 -0.1715  0.4477
90108W        W33020  22.085  18.613  19.735 -0.2364  0.1205  0.1557
90109W        W33021  20.146  14.236  18.732 -0.0590 -0.2008 -0.3092
90110W        W33022  21.396  13.301  18.968  0.0159 -0.0108  0.2756
90111W        W33023  21.571  14.844  19.710  0.2229  0.0195  0.2782
90112W        W33024  19.379  16.271  17.296 -0.1934 -0.1464  0.0439
90113W        W33025  19.110  16.700  16.713 -0.0504  0.0303  0.1887
90114W        W33026  18.169  15.730  18.853 -0.3270 -0.0331 -0.1365
90115W        W33027  20.998  14.306  21.456 -0.3618 -0.4517  0.1061
90116W        W33028  19.062  16.152  18.913 -0.0140  0.1943 -0.2287
90117W        W33029  18.958  15.117  18.036 -0.2763 -0.1243  0.2489
90118W        W33030  22.470  16.648  17.810 -0.0692 -0.0537 -0.0028
90119W        W33031  18.074  13.872  18.545  0.0830 -0.1689 -0.3344
90120W        W33032  20.983  18.323  20.623  0.2558  0.0908 -0.1416
90121W        W33033  22.117  16.293  20.540  0.1833 -0.0989  0.3631
90122W        W33034  20.213  14.473  18.284 -0.3315 -0.2386  0.1973
90123W        W33035  21.481  18.226  20.768  0.1587 -0.1740 -0.1858
90124W        W33036  21.106  15.830  20.348 -0.2695 -0.2252  0.2080
90125W        W33037  21.014  14.598  20.963 -0.1613  0.3019 -0.2031
90126W        W33038  18.107  12.839  17.423 -0.0846 -0.0359  0.1602
90127W        W33039  22.526  17.668  17.431  0.3932 -0.0984 -0.1811
90128W        W33040  20.413  18.577  20.491 -0.1716 -0.2217  0.2085
90129W        W33041  19.079  13.968  20.429 -0.1996  0.2255  0.0056
90130W        W33042  23.714  14.985  18.524  0.2107  0.1482 -0.1636
90131W        W33043  21.237  17.671  21.738 -0.4365 -0.0343 -0.0376
90132W        W33044  21.627  17.961  19.166 -0.1799  0.2154 -0.0162
90133W        W33045  21.510  14.130  19.505  0.0443 -0.0139 -0.0978
90134W        W33046  21.881  16.234  20.107 -0.1719 -0.0015  0.3989
90135W        W33047  19.146  13.943  18.633 -0.1205 -0.1572  0.1761
90136W        W33048  21.555  16.117  17.873  0.2465  0.2285  0.0038
90137W        W33049  20.883  17.590  17.010  0.2578  0.2609  0.0101
90138W        W33050  19.668  14.595  18.127 -0.1873 -0.0934  0.0262
90139W        W33051  21.723  16.796  18.728  0.1056 -0.0803  0.1144
90140W        W33052  22.125  16.111  21.786  0.0860 -0.2244  0.3240
90141W        W33053  20.822  15.123  18.418 -0.0510 -0.0088 -0.1016
90142W        W33054  22.233  16.573  21.083 -0.1426  0.1997  0.0705
90143W        W33055  21.046  16.474  20.826 -0.0137 -0.1726  0.0910
90144W        W33056  22.206  17.302  22.541  0.1654 -0.1727  0.0540
90145W        W33057  21.433  19.303  20.896  0.2376  0.1096  0.0616
90146W        W33058  21.938  17.078  19.827  0.0615  0.1069  0.3697
90147W        W33059  19.452  13.746  19.455  0.1553  0.2389 -0.3606
90148W        W33060  22.050  16.555  21.530 -0.1684 -0.1158  0.1131
90149W        W33061  20.306  12.569  20.992  0.2853 -0.0345 -0.0897
90150W        W33062  19.390  17.820  23.520  0.4217 -0.1923 -0.1353
90151W        W33063  20.048  15.634  21.982 -0.0313  0.0000 -0.0475
90152W        W33064  21.986  15.096  21.907 -0.0247  0.2418  0.0971
90153W        W33065  20.380  14.899  22.635 -0.1547 -0.2671  0.1191
90154W        W33066  21.081  17.803  22.987 -0.0276 -0.1102  0.1014
90155W        W33067  19.860  15.053  24.737 -0.1724 -0.1753  0.2502
90156W        W33068  20.322  17.497  23.661  0.0211 -0.0246 -0.2871
90157W        W33069  20.676  18.333  23.568 -0.2916  0.2137 -0.2997
90158W        W33070  21.623  17.351  21.657  0.0868  0.2445 -0.1028
90159W        W33071  19.282  14.387  24.239 -0.0133  0.0692  0.1510
90160W        W33072  19.881  17.232  23.435  0.1145  0.0120  0.1934
90161W        W33073  19.961  14.065  22.180  0.0812 -0.2808 -0.2967
90162W        W33074  19.307  13.471  23.206 -0.0780  0.1884  0.0374
90163W        W33075  20.880  15.364  23.546 -0.1425 -0.2880 -0.3125
90164W        W33076  18.769  17.284  21.859 -0.0073 -0.0110 -0.0584
90165W        W33077  19.469  16.408  23.884  0.0476  0.3478 -0.1073
90166W        W33078  20.210  16.407  22.180  0.1365  0.1687 -0.2407
90167W        W33079  20.796  18.215  23.042  0.1982  0.1589 -0.1492
90168W        W33080  20.838  14.970  25.966 -0.0061 -0.5258  0.0316
90169W        W33081  22.111  15.556  28.285 -0.0453  0.2430 -0.1724
90170W        W33082  20.103  17.349  22.458  0.1598 -0.1592 -0.0763
90171W        W33083  18.826  16.143  20.407 -0.1819  0.2555 -0.0210
90172W        W33084  19.679  15.386  25.105  0.0213 -0.1612  0.2196
90173W        W33085  20.277  16.870  24.093 -0.0476 -0.1841 -0.1706
90174W        W33086  19.999  15.640  24.844 -0.1070 -0.0367  0.0518
90175W        W33087  20.559  16.408  22.983 -0.0789 -0.4591 -0.0740
90176W        W33088  20.824  17.720  22.078  0.0773 -0.1194 -0.3031
90177W        W33089  20.929  16.448  24.426 -0.0203 -0.2818 -0.1653
90178W        W33090  20.230  16.248  25.762  0.4053  0.2701  0.1007
90179W        W33091  19.314  16.649  22.605  0.5948 -0.2738  0.1460
90180W        W33092  18.036  17.966  21.575  0.1070 -0.2068 -0.1119
90181W        W33093  20.117  18.989  21.745  0.1366  0.0904 -0.2095
90182W        W33094  21.065  17.452  23.327 -0.0445  0.4789  0.0088
90183W        W33095  21.746  17.090  26.223 -0.0950  0.2377  0.2223
90184W        W33096  20.593  18.591  24.864 -0.0884 -0.0579  0.0968
90185W        W33097  19.142  17.409  20.639 -0.1593 -0.0830  0.1276
90186W        W33098  19.805  18.046  24.384  0.1438 -0.1729 -0.3086
90187W        W33099  19.705  17.982  23.131 -0.0256  0.2204 -0.0422
90188W        W33100  20.573  16.475  24.036 -0.1708  0.2523  0.0464
90189W        W33101  20.666  17.050  22.769  0.0732  0.0953  0.0235
90190W        W33102  19.914  17.347  21.122  0.0289 -0.1053  0.0061
90191W        W33103  19.174  15.645  24.309 -0.2318 -0.1898 -0.2723
90192W        W33104  20.446  16.416  24.508 -0.1709  0.0424 -0.1805
90193W        W33105  22.193  15.604  25.555  0.2096  0.0057 -0.5097
90194W        W33106  19.261  17.896  20.862 -0.0886  0.0270 -0.0707
90195W        W33107  21.852  15.553  20.977  0.1752 -0.0189 -0.1014
90196W        W33108  21.546  15.366  23.210  0.1382  0.0600  0.1620
90197W        W33109  19.499  13.834  22.022 -0.1156  0.1522  0.2691
90198W        W33110  19.441  13.950  23.023 -0.3770 -0.1996 -0.1304
90199W        W33111  20.031  15.838  26.011 -0.2448  0.3518  0.2395
90200W        W33112  19.203  16.589  23.149  0.1285 -0.0381 -0.1182
90201W        W33113  19.864  16.758  23.788  0.0588  0.1882 -0.0370
90202W        W33114  19.403  15.780  22.176 -0.2737  0.0033  0.1938
90203W        W33115  20.747  17.814  21.537 -0.0356  0.2139  0.0045
90204W        W33116  21.463  16.505  24.455  0.0235  0.0017 -0.0901
90205W        W33117  20.536  16.923  20.053 -0.1019  0.1049  0.0222
90206W        W33118  19.212  15.563  21.699 -0.0562  0.1094 -0.0124
90207W        W33119  18.763  15.707  24.683  0.0461  0.0702 -0.1672
90208W        W33120  18.419  16.186  24.622 -0.0537 -0.2730 -0.3312
90209W        W33121  22.820  16.883  27.758  0.1165  0.0463  0.1019
90210W        W33122  18.741  16.000  24.213  0.0713  0.1956 -0.1947
90211W        W33123  20.551  15.689  23.814 -0.2836  0.0766  0.1243
90212W        W33124  19.199  16.137  22.522  0.1016 -0.2396  0.2363
90213W        W33125  21.596  17.558  24.398 -0.0497 -0.1613  0.0287
90214W        W33126  20.893  16.915  20.926  0.2491 -0.2787 -0.1000
90215W        W33127  21.856  13.790  24.007 -0.0475 -0.0020 -0.1628
90216W        W33128  20.869  15.953  24.192 -0.1953 -0.1403 -0.0129
90217W        W33129  20.337  16.553  21.580  0.0550 -0.0397 -0.0116
90218W        W33130  20.550  17.786  25.455  0.1192 -0.1744 -0.0266
90219W        W33131  21.547  16.396  23.535 -0.0436 -0.3743  0.1086
90220W        W33132  19.647  16.251  26.626 -0.1207 -0.2532 -0.1187
90221W        W33133  20.958  17.444  24.737 -0.0004  0.0388 -0.0652
90222W        W33134  19.429  18.680  20.259 -0.0152  0.2439  0.1486
90223W        W33135  18.452  16.775  22.822  0.2663  0.0459  0.0273
90224W        W33136  20.080  14.034  25.016 -0.0324 -0.2141  0.1738
90225W        W33137  21.188  16.270  23.918 -0.1193  0.2896 -0.0859
90226W        W33138  21.005  15.202  24.041 -0.0367 -0.0243 -0.2027
90227W        W33139  18.586  14.048  24.093  0.1229 -0.2228 -0.1694
90228W        W33140  21.300  14.256  24.646 -0.1364 -0.1985 -0.1150
90229W        W33141  19.794  16.523  21.683  0.1791  0.1065  0.0835
90230W        W33142  21.228  17.759  22.347  0.2838  0.0254  0.3236
90231W        W33143  20.935  14.578  22.232 -0.1367  0.1258 -0.0066
90232W        W33144  20.539  18.150  20.950  0.3147  0.1768  0.3271
90233W        W33145  18.632  14.552  23.926  0.0912 -0.0154 -0.1205
90234W        W33146  19.122  15.988  23.022  0.0135 -0.1667  0.1615
90235W        W33147  19.203  14.273  25.800 -0.0582  0.2115  0.1492
90236W        W33148  18.731  15.104  22.218 -0.1284 -0.0714 -0.0608
90237W        W33149  22.156  16.104  25.423 -0.0703  0.0890 -0.0169
90238W        W33150  18.845  13.961  21.662  0.0381 -0.0322  0.0380
90239W        W33151  20.415  15.672  24.369 -0.0526 -0.2312  0.2502
90240W        W33152  21.549  16.526  21.545  0.1681  0.0508  0.0638
90241W        W33153  18.524  16.964  22.216  0.0081 -0.4203 -0.0251
90242W        W33154  20.961  15.436  25.782 -0.1784 -0.0741 -0.2024
90243W        W33155  21.367  18.725  21.759  0.0538 -0.0812  0.0362
90244W        W33156  21.294  17.881  24.750 -0.1954  0.4292 -0.2411
90245W        W33157  20.785  18.314  21.635  0.1343 -0.0086  0.2466
90246W        W33158  19.334  14.577  24.786 -0.0897  0.1396  0.1029
90247W        W33159  19.345  17.896  22.763 -0.1649  0.1330  0.2214
90248W        W33160  19.921  15.876  22.413  0.0025 -0.0758  0.0184
90249W        W33161  22.336  17.373  24.024  0.0286 -0.2787  0.1218
90250W        W33162  20.915  17.503  23.830  0.0237  0.0396  0.0210
90251W        W33163  18.886  15.870  23.690  0.2016 -0.0022 -0.0949
90252W        W33164  20.196  15.607  26.452  0.1169 -0.2407  0.0240
90253W        W33165  20.269  16.040  24.739  0.1109 -0.4049  0.2468
90254W        W33166  20.768  16.784  23.218 -0.3475  0.0108 -0.0339
90255W        W33167  20.866  18.677  22.785  0.1184 -0.1261 -0.1538
90256W        W33168  18.677  15.962  21.676 -0.1073 -0.1335  0.1793
90257W        W33169  20.541  17.284  23.246 -0.0746 -0.0731  0.1423
90258W        W33170  20.551  15.196  24.254 -0.0301 -0.1330  0.3746
90259W        W33171  19.646  14.809  25.169  0.1672  0.0699 -0.0447
90260W        W33172  19.543  17.526  23.155  0.1776  0.0721 -0.1116
90261W        W33173  20.382  15.070  23.140 -0.3584 -0.4673  0.5660
90262W        W33174  21.925  15.272  21.428 -0.0150  0.0084  0.1186
90263W        W33175  20.522  16.910  25.327  0.1496  0.2303  0.1808
90264W        W33176  20.982  16.971  22.145  0.1536 -0.0082  0.4249
90265W        W33177  21.638  15.978  21.733  0.1422 -0.1202  0.0505
90266W        W33178  20.810  15.073  22.322 -0.0565  0.0672  0.1258
90267W        W33179  19.310  16.812  24.026  0.2942 -0.2395  0.1059
90268W        W33180  21.001  17.363  22.562 -0.1003  0.0886 -0.0306
90269W        W33181  20.668  16.738  24.844 -0.1154  0.2234 -0.2289
90270W        W33182  20.626  15.480  21.142  0.0659 -0.4775  0.0932
90271W        W33183  21.852  17.601  23.773 -0.0302  0.0983  0.2772
90272W        W33184  18.935  16.973  22.678 -0.3381 -0.0130  0.0370
90273W        W33185  20.125  16.744  25.503 -0.0148  0.2316  0.0845
90274W        W33186  20.804  17.791  24.410  0.0141 -0.0579  0.0337
90275W        W33187  19.985  15.625  24.093 -0.1250  0.0700  0.1185
90276W        W33188  20.933  15.513  24.471  0.0550 -0.2785  0.0012
90277W        W33189  18.171  18.424  21.057  0.1599 -0.0735 -0.1426
90278W        W33190  20.662  14.762  24.063 -0.1979 -0.3240 -0.0140
90279W        W33191  20.297  15.270  24.711  0.0374  0.2390  0.2106
90280W        W33192  20.441  15.974  25.215 -0.0409  0.1377 -0.3778
90281W        W33193  21.222  15.994  26.576 -0.2829  0.2142 -0.4279
90282W        W33194  21.033  15.888  21.652 -0.0721  0.1920 -0.1979
90283W        W33195  19.313  15.608  22.714 -0.1127  0.0599 -0.1880
90284W        W33196  20.343  14.956  25.121  0.1948  0.2307 -0.0164
90285W        W33197  19.472  16.523  24.511 -0.1972 -0.0388  0.1604
90286W        W33198  19.027  17.796  23.121  0.3226 -0.0194  0.1173
90287W        W33199  21.076  18.359  25.063  0.2067  0.2296  0.2742
90288W        W33200  20.653  17.791  23.388 -0.1442  0.0986  0.0957
90289W        W33201  19.676  15.810  26.356  0.2360  0.0658  0.1303
90290W        W33202  19.925  14.808  22.904  0.1783 -0.0047 -0.0447
90291W        W33203  19.180  17.420  22.087 -0.0757 -0.1689  0.0656
90292W        W33204  19.974  16.848  22.101  0.0927 -0.1649  0.3150
90293W        W33205  19.667  14.728  23.997  0.0031 -0.1418  0.2116
90294W        W33206  20.532  17.192  24.737  0.0457  0.2569 -0.2331
90295W        W33207  21.029  17.569  25.789 -0.0109  0.0288 -0.3673
90296W        W33208  19.007  16.936  22.178 -0.1606 -0.0003  0.2976
90297W        W33209  21.323  15.059  24.594 -0.0106 -0.1104 -0.1085
90298W        W33210  18.280  17.473  22.210 -0.2205  0.2941  0.0162
90299W        W33211  19.493  15.850  20.933 -0.1256  0.1404  0.2932
90300W        W33212  21.379  13.948  24.154  0.3208 -0.1412  0.0249
90301W        W33213  22.350  16.360  22.360 -0.4135 -0.0246 -0.2537
90302W        W33214  19.700  15.572  23.569  0.2369  0.1374 -0.1119
90303W        W33215  21.004  14.877  23.606  0.2070  0.0506  0.3246
90304W        W33216  20.569  16.149  23.476  0.0675  0.1740  0.1453
90305W        W33217  21.238  15.586  22.551  0.3518 -0.4954 -0.1160
90306W        W33218  21.058  18.248  23.876  0.2307  0.1439  0.1097
90307W        W33219  19.418  15.692  25.406 -0.0087 -0.1981 -0.2708
90308W        W33220  18.923  15.049  19.774 -0.0134 -0.1756  0.1398
90309W        W33221  21.193  16.505  24.999 -0.0763  0.0173 -0.1139
90310W        W33222  20.402  15.833  22.315 -0.4404 -0.0994  0.2382
90311W        W33223  18.901  17.106  21.401 -0.0940 -0.2347  0.5777
90312W        W33224  19.892  17.734  23.625 -0.1748 -0.4963  0.0288
90313W        W33225  19.279  16.580  20.825 -0.1873 -0.1367 -0.2293
90314W        W33226  19.191  17.174  23.172  0.2494 -0.0805 -0.1414
90315W        W33227  19.641  15.428  25.839 -0.1966 -0.0379 -0.0496
90316W        W33228  21.789  16.572  26.262 -0.1116  0.0368 -0.1216
90317W        W33229  19.765  15.741  22.893 -0.0247  0.1700 -0.1635
90318W        W33230  19.696  16.300  22.422  0.1118 -0.0619 -0.0613
90319W        W33231  20.807  17.062  23.660 -0.0624  0.1634 -0.0987
90320W        W33232  19.867  16.527  24.200  0.3316  0.0317 -0.0047
90321W        W33233  19.974  16.075  25.084  0.1975  0.0723  0.1928
90322W        W33234  19.600  16.364  25.011  0.3083  0.1267 -0.1940
90323W        W33235  19.490  14.521  23.362  0.1661 -0.0799  0.1662
90324W        W33236  21.785  17.013  23.655  0.2555 -0.2241 -0.0002
90325W        W33237  20.431  15.148  26.549  0.0659  0.0533 -0.0037
90326W        W33238  18.593  15.927  22.879  0.1929 -0.2224  0.1664
90327W        W33239  20.465  17.521  22.790 -0.0670  0.0966  0.0533
90328W        W33240  20.334  15.499  25.240  0.2596 -0.1793 -0.0186
90329W        W33241  18.772  16.858  23.183 -0.2357 -0.2248 -0.0440
90330W        W33242  19.536  17.006  21.929  0.2823  0.2396  0.3786
90331W        W33243  18.984  16.363  23.924  0.2214  0.1952  0.0411
90332W        W33244  21.993  14.971  22.418 -0.0308 -0.1527 -0.3786
90333W        W33245  21.164  16.746  21.384  0.2428 -0.1220  0.1421
90334W        W33246  19.959  15.138  23.658 -0.3095 -0.2438  0.3059
90335W        W33247  20.644  14.357  26.847  0.0254 -0.0201 -0.1581
90336W        W33248  21.165  14.986  22.685 -0.0153 -0.0253  0.1751
90337W        W33249  20.724  15.230  27.775 -0.3321 -0.1930 -0.1349
90338W        W33250  19.902  12.683  25.650  0.0252 -0.1529  0.1649
90339W        W33251  21.469  17.419  22.606  0.0106 -0.1158  0.0184
90340W        W33252  18.892  14.420  22.876 -0.0169  0.0378 -0.1665
90341W        W33253  21.151  19.083  25.568  0.1267 -0.0896  0.1726
90342W        W33254  17.970  16.679  24.134  0.3938  0.0306 -0.3134
90343W        W33255  19.725  15.440  22.404  0.0572  0.0717  0.1541
90344W        W33256  20.868  17.387  25.232  0.3465  0.0551 -0.0063
90345W        W33257  21.012  17.299  24.263 -0.2751  0.1581 -0.0971
90346W        W33258  20.247  17.566  22.011  0.0034  0.1151 -0.4783
90347W        W33259  20.725  14.705  23.167 -0.1098 -0.0995  0.3622
90348W        W33260  20.106  16.372  23.603  0.1038  0.0274  0.1519
90349W        W33261  21.003  15.996  22.141  0.4307  0.1049 -0.0360
90350W        W33262  18.461  16.475  22.019 -0.0731 -0.0992 -0.3600
90351W        W33263  19.078  14.239  23.344 -0.3372 -0.0286  0.0675
90352W        W33264  20.500  17.338  24.107  0.0315  0.2801 -0.2415
90353W        W33265  19.518  15.289  24.026 -0.3706  0.0338  0.0468
90354W        W33266  20.560  15.270  25.617 -0.0613 -0.1320  0.2668
90355W        W33267  20.722  16.179  24.859  0.0386  0.1126 -0.0882
90356W        W33268  20.592  15.923  26.618 -0.0541  0.1403  0.1303
90357W        W33269  18.995  14.660  23.633 -0.1986 -0.3215 -0.0639
90358W        W33270  19.860  17.194  25.607 -0.0440 -0.0319  0.0478
90359W        W33271  21.382  15.674  22.031  0.0154  0.2202 -0.1820
90360W        W33272  20.655  15.670  24.875  0.1077  0.0321 -0.1665
90361W        W33273  20.815  15.929  22.678 -0.2628 -0.0922 -0.1452
90362W        W33274  22.413  15.945  23.509  0.0520  0.2219 -0.0613
90363W        W33275  20.172  15.321  22.763 -0.1193  0.2596  0.0920
90364W        W33276  19.992  17.943  24.801  0.0969  0.1242  0.0940
90365W        W33277  19.950  14.976  20.894  0.0174 -0.2237  0.0451
90366W        W33278  21.366  15.686  25.531  0.0624 -0.0248  0.2511
90367W        W33279  21.660  18.436  21.276 -0.0489  0.1605  0.0824
90368W        W33280  20.155  17.074  22.956  0.0221  0.2227 -0.0939
90369W        W33281  21.766  16.228  23.978 -0.0623  0.3033 -0.2615
90370W        W33282  18.872  15.783  22.458  0.2833 -0.1823  0.1209
90371W        W33283  19.920  17.349  24.872 -0.0005  0.0190  0.0788
90372W        W33284  21.595  16.765  24.914 -0.2017  0.3506  0.2991
90373W        W33285  20.797  13.673  23.087  0.0903  0.0155  0.2930
90374W        W33286  21.100  14.596  26.994 -0.1536 -0.1297  0.2927
90375W        W33287  21.417  14.872  24.010 -0.2424  0.2903  0.1187
90376W        W33288  19.641  18.124  23.808 -0.1933  0.2507 -0.2290
90377W        W33289  19.010  15.238  23.621 -0.1237 -0.1246 -0.1636
90378W        W33290  20.294  16.771  22.562 -0.0954  0.0220 -0.4153
90379W        W33291  20.351  14.591  26.171 -0.0512 -0.2738  0.3735
90380W        W33292  21.625  16.135  24.866  0.0958  0.3194 -0.0288
90381W        W33293  20.232  15.480  23.394  0.0148 -0.1567 -0.1088
90382W        W33294  21.686  15.797  26.471 -0.0037 -0.4216 -0.2596
90383W        W33295  20.019  17.669  25.433  0.0104  0.0911  0.1240
90384W        W33296  18.923  16.449  22.247 -0.0829  0.1649 -0.0557
90385W        W33297  20.211  18.297  26.038  0.0938  0.1048  0.1613
90386W        W33298  20.985  16.074  23.167 -0.2036  0.1260  0.2722
90387W        W33299  19.347  16.130  24.281 -0.3544 -0.0776 -0.2349
90388W        W33300  18.387  15.921  23.863 -0.0615  0.0322  0.1287
90389W        W33301  19.615  15.903  24.831  0.0732  0.0315  0.0570
90390W        W33302  20.092  16.601  23.165 -0.0379  0.1607 -0.0552
90391W        W33303  19.269  13.393  21.163  0.3332 -0.3033 -0.0836
90392W        W33304  20.294  17.446  21.460  0.2164 -0.3111 -0.0921
90393W        W33305  18.493  16.614  23.717  0.0764 -0.1647  0.3565
90394W        W33306  21.073  15.527  21.309 -0.1789  0.1569 -0.0212
90395W        W33307  21.427  17.109  21.097  0.3163  0.2810 -0.1033
90396W        W33308  21.179  17.958  23.512 -0.1578 -0.1147 -0.0029
90397W        W33309  20.129  14.784  21.336 -0.0535 -0.1956 -0.0245
90398W        W33310  19.247  17.372  22.651 -0.1553 -0.0720 -0.0975
90399W        W33311  20.171  17.781  21.025 -0.1707 -0.2968  0.0208
90400W        W33312  19.421  17.803  21.765 -0.3320  0.1694  0.0060
90401W        W33313  21.443  16.789  25.912  0.0330  0.1000  0.1333
90402W        W33314  20.921  15.213  23.056  0.0677  0.1130  0.4084
90403W        W33315  21.013  15.825  23.621 -0.1282 -0.0538  0.0346
90404W        W33316  21.473  16.830  21.965 -0.1750 -0.0446 -0.0185
90405W        W33317  21.187  17.006  25.206  0.2574 -0.1009 -0.0601
90406W        W33318  18.149  15.791  24.846  0.2618  0.1232  0.0852
90407W        W33319  20.368  14.902  22.113  0.1889 -0.0956  0.2420
90408W        W33320  18.970  16.455  24.407 -0.1505 -0.1197  0.0853
90409W        W33321  22.105  14.912  28.935 -0.1857 -0.0701  0.0939
90410W        W33322  18.409  18.104  23.947  0.1556  0.1244 -0.2277
90411W        W33323  20.429  17.479  20.629  0.2303 -0.1177  0.1205
90412W        W33324  18.453  15.481  20.270 -0.0839 -0.2369  0.0385
90413W        W33325  19.816  16.721  22.667  0.1776 -0.0226  0.0586
90414W        W33326  22.479  14.951  25.560 -0.3028 -0.1838 -0.1639
90415W        W33327  19.907  17.266  21.735 -0.1867  0.0862 -0.0810
90416W        W33328  20.557  14.347  25.806 -0.2602  0.1357 -0.0776
90417W        W33329  18.386  16.413  23.184  0.2197  0.3282  0.0871
90418W        W33330  20.316  18.013  22.889  0.1896 -0.0494 -0.1080
90419W        W33331  22.193  15.370  24.434  0.0299 -0.1557  0.4182
90420W        W33332  19.351  15.748  23.874 -0.1048 -0.0881  0.0243
90421W        W33333  21.267  15.040  25.738 -0.0190  0.0855  0.1855
90422W        W33334  20.525  14.430  23.639 -0.0755 -0.1224 -0.2787
90423W        W33335  20.325  16.424  25.115 -0.0111 -0.1522  0.0982
90424W        W33336  19.052  16.771  23.614  0.1366 -0.1209 -0.2423
90425W        W33337  20.856  16.725  21.745 -0.0414  0.0732 -0.1298
90426W        W33338  21.381  16.340  26.190  0.3480  0.1556 -0.1209
90427W        W33339  22.328  17.053  21.662 -0.0363  0.3140  0.1770
90428W        W33340  20.594  17.696  28.254  0.2405 -0.0206  0.0599
90429W        W33341  19.498  15.002  22.708  0.1334 -0.0022 -0.0114
90430W        W33342  20.751  14.207  23.034  0.0759  0.0601  0.0356
90431W        W33343  19.270  15.410  23.180  0.1326  0.2794  0.2976
90432W        W33344  21.779  17.695  26.157 -0.0889  0.0919  0.0243
90433W        W33345  18.304  13.982  23.080  0.2021  0.2076 -0.1105
90434W        W33346  21.881  17.404  20.958 -0.4833  0.2922 -0.1373
90435W        W33347  20.679  15.645  23.108  0.0928 -0.3464 -0.0383
90436W        W33348  21.053  19.109  21.915 -0.2358 -0.2321  0.0289
90437W        W33349  21.191  17.060  22.937 -0.3233  0.0941  0.1961
90438W        W33350  21.313  18.508  24.154 -0.2117 -0.0909 -0.0231
90439W        W33351  19.186  14.832  23.110  0.2502  0.0753  0.1114
90440W        W33352  20.320  17.649  24.511 -0.1221  0.0107 -0.0246
90441W        W33353  21.717  17.152  25.245  0.0724 -0.0091  0.0871
90442W        W33354  21.085  13.660  23.877  0.0170 -0.0356  0.2055
90443W        W33355  18.849  15.602  23.254 -0.0184 -0.1120  0.1152
90444W        W33356  19.729  16.017  23.392 -0.1259  0.4048  0.0378
90445W        W33357  21.447  15.401  26.328  0.2474  0.2000 -0.3623
90446W        W33358  20.922  17.366  20.664  0.1870 -0.5009  0.1516
90447W        W33359  21.723  15.716  25.176 -0.2100  0.0657 -0.1301
90448W        W33360  20.131  16.856  24.969  0.0711  0.0309 -0.2036
90449W        W33361  19.729  17.515  24.478  0.0786  0.3964 -0.1018
90450W        W33362  20.545  16.902  25.835  0.2193 -0.1747 -0.1520
90451W        W33363  21.567  16.702  23.983  0.1710  0.4302  0.1154
90452W        W33364  20.364  17.056  21.793  0.0457 -0.0862  0.0749
90453W        W33365  20.336  17.597  25.039  0.1717  0.0350  0.3418
90454W        W33366  20.586  17.274  22.271 -0.2304 -0.1819 -0.0970
90455W        W33367  21.302  16.900  23.489 -0.0286 -0.0571 -0.0511
90456W        W33368  19.465  15.044  23.523 -0.1572 -0.0589 -0.0128
90457W        W33369  21.662  15.467  24.519 -0.0367  0.3145 -0.2185
90458W        W33370  21.248  14.531  21.877 -0.1979  0.3551 -0.2177
90459W        W33371  19.793  16.083  23.915  0.1723 -0.2048  0.0152
90460W        W33372  19.642  16.512  23.420 -0.1876  0.2676  0.0945
90461W        W33373  19.929  15.158  26.971  0.0481 -0.0270  0.0528
90462W        W33374  19.056  14.764  25.651  0.2185  0.1698  0.2184
90463W        W33375  18.821  16.440  22.783  0.1399  0.1796 -0.2968
90464W        W33376  19.565  15.337  21.936  0.1764  0.0955  0.2021
90465W        W33377  20.649  16.351  21.917  0.2902 -0.2461  0.1094
90466W        W33378  20.286  14.439  23.034 -0.1656 -0.1639 -0.0797
90467W        W33379  18.817  14.105  22.486  0.0588 -0.0211 -0.2814
90468W        W33380  22.054  16.650  23.989  0.0742  0.0937 -0.3237
90469W        W33381  21.392  17.694  23.885 -0.0622 -0.1591  0.2824
90470W        W33382  20.452  12.982  24.380 -0.0830 -0.3633 -0.1528
90471W        W33383  20.907  17.234  26.495  0.1780 -0.1808 -0.2691
90472W        W33384  20.434  15.746  25.684  0.2567  0.0119  0.1870
90473W        W33385  19.950  15.791  25.507 -0.1025  0.3012  0.0049
90474W        W33386  19.694  15.459  24.468 -0.1542  0.1530 -0.1010
90475W        W33387  20.565  19.077  21.305  0.2091 -0.2072  0.2247
90476W        W33388  20.648  17.689  21.076  0.1548  0.1463 -0.1226
90477W        W33389  21.143  15.475  24.982  0.0856 -0.0131  0.0533
90478W        W33390  21.052  17.683  26.294 -0.1150  0.3702 -0.0044
90479W        W33391  19.238  13.997  24.866  0.0656 -0.4082 -0.2142
90480W        W33392  22.066  16.655  22.838 -0.0180  0.2437  0.0471
90481W        W33393  20.157  17.190  24.420  0.0243  0.1346  0.0751
90482W        W33394  21.848  17.198  24.155 -0.0509  0.3042  0.1375
90483W        W33395  22.011  15.186  25.385 -0.3845  0.0062  0.1524
90484W        W33396  21.154  17.811  20.736 -0.0041 -0.3250 -0.0369
90485W        W33397  18.830  14.457  24.395  0.2106 -0.1691  0.1345
90486W        W33398  19.759  17.040  24.163  0.2283 -0.1124  0.0833
90487W        W33399  21.903  16.574  25.263  0.0741  0.1235 -0.0424
90488W        W33400  19.005  14.882  22.622  0.1330 -0.0047  0.3055
90489W        W33401  22.329  15.147  23.377 -0.1509  0.0253  0.1428
90490W        W33402  21.541  17.857  21.202 -0.1866 -0.1207  0.1069
90491W        W33403  18.620  14.996  23.696  0.2660  0.2768  0.1725
90492W        W33404  20.971  15.636  26.253  0.1739  0.0430 -0.0997
90493W        W33405  20.093  17.648  23.091  0.1398  0.2007  0.0796
90494W        W33406  20.158  16.264  22.633  0.0546 -0.0962  0.1292
90495W        W33407  19.518  17.042  22.388  0.0474 -0.1286  0.0848
90496W        W33408  21.084  16.771  23.999  0.0259 -0.1563  0.2431
90497W        W33409  21.626  18.814  24.739  0.0541  0.1101 -0.0983
90498W        W33410  20.868  16.809  26.229 -0.0407 -0.1354 -0.0847
90499W        W33411  20.396  18.143  24.661 -0.0538 -0.1437  0.2338
90500W        W33412  20.947  16.519  23.594  0.0865 -0.0071 -0.0755
90501W        W33413  19.863  14.201  22.830  0.1127 -0.0636  0.1483
90502W        W33414  19.255  16.350  21.370  0.0560 -0.0344 -0.3472
90503W        W33415  20.788  17.858  22.590 -0.1012 -0.1710  0.0780
90504W        W33416  21.305  14.701  25.002  0.1610 -0.0744 -0.0612
90505W        W33417  19.579  16.341  22.890 -0.0779 -0.0791 -0.2036
90506W        W33418  22.313  14.183  22.814  0.1055  0.2591 -0.2065
90507W        W33419  20.199  18.047  23.456 -0.1191 -0.3448 -0.0937
90508W        W33420  20.280  16.075  24.072 -0.0565 -0.1752  0.1672
90509W        W33421  19.089  16.564  28.873 -0.0126 -0.1126 -0.2552
90510W        W33422  20.184  16.033  27.197 -0.1364 -0.0958  0.2940
90511W        W33423  20.766  16.390  25.363  0.1684  0.0820  0.1529
90512W        W33424  21.213  16.945  27.613  0.1765  0.1220 -0.0423
90513W        W33425  19.942  14.340  26.277 -0.0128 -0.1767  0.3456
90514W        W33426  19.774  18.852  27.740  0.1505 -0.2926  0.0877
90515W        W33427  18.898  14.926  28.732  0.2936 -0.0946  0.1642
90516W        W33428  19.771  17.652  29.988 -0.3374  0.2059  0.1044
90517W        W33429  20.998  18.193  27.565  0.1561 -0.0667 -0.0363
90518W        W33430  20.759  16.403  25.933 -0.2055  0.2027  0.0126
90519W        W33431  19.655  15.536  29.079 -0.0312 -0.2650  0.3075
90520W        W33432  18.991  18.551  28.850 -0.0176  0.0728  0.0947
90521W        W33433  20.160  14.887  27.913  0.0338  0.2553  0.1453
90522W        W33434  17.939  14.264  27.802 -0.0208  0.0401 -0.0148
90523W        W33435  19.532  16.361  28.846 -0.2514 -0.1753  0.0200
90524W        W33436  20.055  16.733  26.596  0.0993  0.1239 -0.0760
90525W        W33437  18.260  14.731  27.848 -0.0610 -0.1432  0.0822
90526W        W33438  20.604  16.744  27.892  0.1809  0.0000  0.0428
90527W        W33439  19.708  16.976  28.131  0.4251 -0.2295  0.0003
90528W        W33440  19.533  14.350  28.964  0.0663 -0.0574  0.0250
90529W        W33441  21.525  15.178  30.923  0.1000 -0.0315 -0.1781
90530W        W33442  19.814  16.793  26.173  0.2449 -0.1266 -0.0262
90531W        W33443  19.377  15.010  24.452 -0.2397  0.0029 -0.2822
90532W        W33444  19.059  15.355  28.226 -0.1172 -0.1252 -0.0091
90533W        W33445  20.507  16.708  29.963 -0.2216  0.1134  0.2757
90534W        W33446  19.612  14.768  28.574  0.1775  0.1255 -0.0346
90535W        W33447  22.243  17.343  30.691 -0.0419 -0.1738 -0.1365
90536W        W33448  19.185  17.270  28.411  0.0390 -0.5122 -0.2322
90537W        W33449  19.528  19.825  28.298 -0.0581  0.2504  0.3453
90538W        W33450  20.411  15.386  30.318 -0.0934 -0.1533  0.2022
90539W        W33451  19.877  16.448  27.030  0.2482 -0.2408  0.0602
90540W        W33452  19.691  17.514  26.031 -0.3014 -0.2239  0.1632
90541W        W33453  22.176  16.066  28.076 -0.4046 -0.1146 -0.1965
90542W        W33454  22.041  17.055  31.057  0.0367 -0.0902 -0.2638
90543W        W33455  18.710  17.859  28.970  0.0023 -0.0314 -0.1101
90544W        W33456  19.774  18.804  30.871 -0.1569  0.3285  0.0492
90545W        W33457  18.124  15.512  29.895  0.1435  0.0885  0.0233
90546W        W33458  21.459  17.887  28.654 -0.0628  0.0285 -0.0327
90547W        W33459  19.895  16.040  28.524 -0.0858 -0.2203 -0.3747
90548W        W33460  19.621  17.448  28.116  0.2260  0.0707  0.1810
90549W        W33461  19.521  17.223  27.348  0.3715 -0.0985  0.0781
90550W        W33462  20.051  16.799  29.584  0.2074  0.2441 -0.2165
90551W        W33463  17.042  17.074  29.944  0.0434  0.2584  0.0197
90552W        W33464  20.519  15.917  30.521 -0.0753  0.0053  0.1507
90553W        W33465  19.230  17.684  24.491  0.1114  0.1190 -0.0079
90554W        W33466  20.899  15.617  26.956 -0.3547  0.0524  0.3082
90555W        W33467  19.908  15.783  26.854  0.0853  0.2879 -0.2528
90556W        W33468  21.982  16.426  25.777  0.2075  0.0194 -0.1380
90557W        W33469  18.588  15.211  29.031  0.0295 -0.0939 -0.0509
90558W        W33470  19.277  17.817  26.259 -0.1805 -0.1682 -0.0297
90559W        W33471  18.043  14.988  28.205 -0.0432  0.0027  0.1654
90560W        W33472  23.287  16.672  29.883 -0.1286 -0.2459 -0.4081
90561W        W33473  19.840  17.231  26.514  0.3253 -0.1241 -0.2879
90562W        W33474  21.827  15.907  28.447  0.2650 -0.1789  0.0039
90563W        W33475  18.520  18.383  28.088  0.1396 -0.4450  0.0086
90564W        W33476  19.824  15.994  29.061 -0.0125  0.0943 -0.0873
90565W        W33477  22.705  16.479  29.561  0.2466 -0.0935  0.0559
90566W        W33478  21.185  17.680  28.310  0.3378 -0.1867 -0.0637
90567W        W33479  21.489  17.871  26.606  0.3521 -0.1606 -0.0178
90568W        W33480  19.335  15.914  26.770 -0.1764  0.0667  0.2942
90569W        W33481  19.347  17.418  29.847  0.2805 -0.0199 -0.0297
90570W        W33482  17.874  16.278  29.275 -0.3041 -0.0211  0.1641
90571W        W33483  20.430  14.154  26.365 -0.0614  0.0219 -0.1041
90572W        W33484  22.349  16.256  29.380  0.2049 -0.1360  0.0293
90573W        W33485  17.569  18.108  30.652 -0.0402  0.2179  0.0847
90574W        W33486  22.273  15.716  26.513  0.2305  0.2946  0.2067
90575W        W33487  19.326  16.200  27.567  0.0178  0.2094  0.1679
90576W        W33488  19.922  17.378  28.925 -0.0897 -0.3989  0.0434
90577W        W33489  20.691  17.294  27.737  0.2664 -0.0698  0.2403
90578W        W33490  20.677  14.759  29.292  0.2970  0.0043  0.3812
90579W        W33491  20.949  14.444  29.585 -0.0099 -0.1008 -0.1531
90580W        W33492  19.919  16.954  27.071  0.4335 -0.2611  0.1068
90581W        W33493  20.250  17.261  27.992  0.1409 -0.1114  0.2255
90582W        W33494  19.661  18.011  28.960 -0.3989 -0.1187  0.1561
90583W        W33495  20.422  16.895  26.982 -0.1179 -0.0448  0.2952
90584W        W33496  17.353  17.315  27.837 -0.0284 -0.3162  0.0850
90585W        W33497  20.207  15.970  28.140  0.0832  0.0124 -0.2503
90586W        W33498  20.355  18.197  31.308  0.0676 -0.2187 -0.4264
90587W        W33499  18.794  17.023  25.096 -0.2816 -0.0269  0.0804
90588W        W33500  18.482  17.338  27.157 -0.1055 -0.1342 -0.0337
90589W        W33501  19.552  16.784  26.752 -0.0873  0.2015 -0.0529
90590W        W33502  18.010  14.860  27.300 -0.2629  0.0958 -0.0259
90591W        W33503  19.288  15.880  28.970 -0.2922 -0.0891  0.1447
90592W        W33504  20.581  15.780  27.330  0.1882  0.1229 -0.2186
90593W        W33505  18.564  14.626  28.915 -0.2328  0.2710  0.1782
90594W        W33506  21.164  16.433  28.605 -0.3102  0.2615 -0.1385
90595W        W33507  18.912  16.124  27.010 -0.0594  0.1970  0.1893
90596W        W33508  19.413  18.453  27.923 -0.1266  0.1917  0.2027
90597W        W33509  21.931  16.930  25.695 -0.1841  0.2111  0.1307
90598W        W33510  20.747  18.119  25.931 -0.0574  0.0273 -0.0397
90599W        W33511  19.307  14.745  27.197  0.0925 -0.4560 -0.0749
90600W        W33512  19.171  15.170  25.090 -0.1449 -0.2235  0.0620
90601W        W33513  19.049  14.781  30.568 -0.0446 -0.0222  0.1551
90602W        W33514  19.700  14.741  27.974  0.0585 -0.2384  0.3562
90603W        W33515  21.344  16.392  30.335 -0.0194 -0.1327 -0.1602
90604W        W33516  19.410  15.239  28.682 -0.2204  0.2350  0.5225
90605W        W33517  20.193  15.412  29.080  0.0064  0.0565  0.2056
90606W        W33518  19.863  15.633  28.119  0.1070 -0.0633 -0.0797
90607W        W33519  19.043  16.834  25.521 -0.0144  0.1021 -0.0414
90608W        W33520  20.835  13.514  30.952  0.0968 -0.0391 -0.1905
90609W        W33521  19.739  18.223  25.654  0.0949  0.2827 -0.1768
90610W        W33522  19.372  16.943  29.813 -0.0280 -0.2211 -0.0721
90611W        W33523  20.486  17.822  28.707 -0.0460  0.3430 -0.1037
90612W        W33524  19.178  15.092  29.849 -0.0240 -0.2137  0.3139
90613W        W33525  19.151  15.232  26.440 -0.2361  0.2322 -0.4397
90614W        W33526  19.202  16.046  26.342  0.1444 -0.0575 -0.2176
90615W        W33527  19.836  16.821  28.812 -0.0353 -0.1716 -0.3402
90616W        W33528  19.559  14.666  26.701 -0.1602  0.2957 -0.0890
90617W        W33529  21.087  18.325  28.352 -0.1462 -0.4644 -0.6203
90618W        W33530  19.958  15.384  27.734 -0.3568  0.1084  0.0400
90619W        W33531  17.694  16.327  28.142 -0.0394 -0.1285  0.1279
90620W        W33532  21.886  13.820  29.939  0.0876 -0.0120 -0.0789
90621W        W33533  22.335  16.545  28.622  0.0638  0.2724 -0.2895
90622W        W33534  21.280  15.939  28.500  0.0479 -0.1918  0.1225
90623W        W33535  19.029  14.353  25.339 -0.1955  0.0487 -0.0258
90624W        W33536  19.833  18.134  27.111  0.1619 -0.1318  0.0024
90625W        W33537  18.791  17.431  26.118 -0.1342 -0.0778  0.0255
90626W        W33538  19.092  15.919  25.883  0.2149 -0.3189 -0.1078
90627W        W33539  20.342  17.245  27.352  0.1806  0.1136  0.1946
90628W        W33540  22.022  15.645  30.226  0.1336 -0.1269 -0.0667
90629W        W33541  17.014  16.279  29.433  0.1694 -0.1042  0.1508
90630W        W33542  21.943  16.703  29.242 -0.0539 -0.2878 -0.2233
90631W        W33543  19.237  16.426  25.837 -0.0155  0.1837  0.1626
90632W        W33544  19.426  16.767  29.215  0.1591 -0.0420 -0.1558
90633W        W33545  20.521  14.416  28.589 -0.1085 -0.3632  0.0362
90634W        W33546  22.872  15.167  26.083  0.0793 -0.1052 -0.1494
90635W        W33547  20.035  16.613  30.348 -0.1839  0.2383  0.0083
90636W        W33548  21.928  17.229  29.329  0.6272  0.2622 -0.3349
90637W        W33549  20.877  16.201  26.966  0.0974 -0.0888  0.1033
90638W        W33550  20.522  15.986  26.142 -0.0876  0.1745  0.1484
90639W        W33551  17.467  17.047  29.628 -0.0900  0.1530 -0.2649
90640W        W33552  22.024  16.940  27.306 -0.3066  0.2723 -0.1600
90641W        W33553  18.947  18.000  29.895  0.4369 -0.1447  0.0964
90642W        W33554  19.977  16.453  24.679 -0.0778  0.1182  0.1910
90643W        W33555  23.050  16.948  29.013  0.1664  0.0364  0.0308
90644W        W33556  18.095  16.894  26.505  0.0225  0.4142  0.1343
90645W        W33557  20.671  17.766  30.738  0.1677 -0.0172  0.1265
90646W        W33558  20.234  17.331  26.855  0.0704 -0.0940  0.1574
90647W        W33559  18.945  14.405  27.289  0.3854 -0.2313 -0.1888
90648W        W33560  19.361  17.192  26.395  0.1925 -0.1139 -0.2505
90649W        W33561  19.453  14.890  29.061  0.1193  0.2941 -0.0027
90650W        W33562  18.307  17.957  24.423  0.2815 -0.3554  0.0828
90651W        W33563  20.704  15.701  29.150  0.1803 -0.1936  0.2038
90652W        W33564  20.335  14.862  28.889 -0.0061  0.0062 -0.4534
90653W        W33565  17.508  13.570  28.959  0.2498  0.0541  0.1568
90654W        W33566  22.092  16.886  30.263 -0.0341  0.0568 -0.1160
90655W        W33567  21.108  16.573  27.241  0.0113 -0.1098  0.1781
90656W        W33568  20.138  16.389  28.811 -0.0001 -0.1198 -0.1361
90657W        W33569  20.338  16.355  26.784  0.0911 -0.3771 -0.1527
90658W        W33570  19.752  15.266  29.883  0.4955  0.0351 -0.1515
90659W        W33571  20.193  17.018  29.136 -0.2691  0.0277  0.1176
90660W        W33572  18.335  17.173  28.901  0.0728  0.2993  0.3194
90661W        W33573  21.823  17.017  30.616 -0.0661  0.1520  0.1433
90662W        W33574  19.370  16.234  28.418 -0.0274  0.1825  0.2071
90663W        W33575  20.933  15.365  30.397 -0.0098  0.0693  0.0058
90664W        W33576  19.782  16.317  25.951  0.2524  0.1231  0.1953
90665W        W33577  19.352  17.257  24.875 -0.3253 -0.0719 -0.1780
90666W        W33578  19.965  17.201  27.661  0.3330  0.1742  0.1687
90667W        W33579  18.932  15.458  29.481  0.1610  0.1400  0.1987
90668W        W33580  18.885  16.132  28.584  0.1253  0.1400  0.2566
90669W        W33581  19.645  16.903  25.116  0.0772  0.0885 -0.3153
90670W        W33582  20.929  16.728  29.483  0.2984  0.2228  0.2455
90671W        W33583  18.838  17.839  27.568  0.0924 -0.1369 -0.2804
90672W        W33584  20.956  15.470  29.606 -0.0101 -0.0617  0.5235
90673W        W33585  20.557  17.343  25.677 -0.0365 -0.1673 -0.0736
90674W        W33586  19.166  16.136  24.742 -0.1064 -0.1500  0.2572
90675W        W33587  19.410  15.172  25.505 -0.0060  0.0447  0.0225
90676W        W33588  22.178  16.500  26.595 -0.0721 -0.0478  0.0703
90677W        W33589  18.178  14.293  29.127 -0.0472  0.1094  0.1572
90678W        W33590  20.551  15.185  29.458  0.0686 -0.1151 -0.1337
90679W        W33591  18.086  17.710  28.180  0.1603  0.2377 -0.0833
90680W        W33592  19.685  15.830  30.021 -0.1315  0.2302 -0.1781
90681W        W33593  21.410  15.536  26.870 -0.2516 -0.1420  0.0562
90682W        W33594  20.266  16.830  28.447  0.1837 -0.6249  0.3831
90683W        W33595  21.536  16.240  29.905 -0.1430 -0.0415 -0.6247
90684W        W33596  19.081  14.090  23.855  0.0167  0.0604  0.0071
90685W        W33597  21.484  17.343  29.500  0.0155 -0.0612 -0.1151
90686W        W33598  19.281  14.411  27.836  0.3801  0.0864  0.0863
90687W        W33599  19.423  17.083  25.892 -0.1230  0.0380  0.0098
90688W        W33600  19.385  17.146  28.819 -0.2017  0.0134 -0.1674
90689W        W33601  19.238  15.606  24.859  0.1733 -0.1354  0.3425
90690W        W33602  19.458  17.355  26.831  0.0718  0.0914 -0.0934
90691W        W33603  18.843  15.977  29.516  0.1167  0.4866 -0.0248
90692W        W33604  20.412  17.333  28.703  0.0878 -0.2558 -0.2430
90693W        W33605  20.760  15.195  29.948  0.2210  0.1163 -0.0808
90694W        W33606  18.422  15.170  27.605 -0.2546  0.3910 -0.0104
90695W        W33607  17.899  15.551  27.912 -0.0577  0.1281  0.0388
90696W        W33608  20.500  17.526  29.157 -0.4031  0.3384 -0.1891
90697W        W33609  19.763  14.755  29.786 -0.0132  0.2289  0.2078
90698W        W33610  18.558  16.981  30.702  0.0832  0.0380 -0.0164
90699W        W33611  20.060  13.951  29.333 -0.0144 -0.3882 -0.1125
90700W        W33612  22.666  17.447  25.931 -0.2259 -0.0778 -0.0899
90701W        W33613  20.879  16.369  27.693 -0.2110  0.1679  0.0822
90702W        W33614  18.790  16.584  24.889 -0.2816 -0.1789 -0.0306
90703W        W33615  19.417  15.734  28.543 -0.3560  0.0001 -0.0445
90704W        W33616  19.628  16.155  25.519 -0.1614  0.0368 -0.0813
90705W        W33617  19.415  15.264  29.409 -0.2347 -0.0600  0.1275
90706W        W33618  18.874  15.754  26.609  0.0040  0.3419 -0.1807
90707W        W33619  18.432  16.726  29.577  0.1900  0.0341 -0.1457
90708W        W33620  21.398  14.491  27.861  0.0866  0.2401 -0.3015
90709W        W33621  19.891  17.585  27.147  0.1433  0.2171  0.0900
90710W        W33622  19.829  14.982  27.500 -0.1621 -0.3570 -0.1257
90711W        W33623  21.681  14.413  30.231 -0.1064 -0.1352 -0.0915
90712W        W33624  20.555  16.423  27.243  0.1074 -0.2124  0.2088
90713W        W33625  21.257  14.124  31.002  0.0667 -0.3564 -0.1905
90714W        W33626  18.378  14.625  28.404  0.2695  0.3038  0.1430
90715W        W33627  21.299  16.944  26.973  0.1655  0.2243 -0.2009
90716W        W33628  17.253  14.183  29.460 -0.3815 -0.0697 -0.0053
90717W        W33629  19.511  17.656  31.542  0.1715  0.3972  0.2319
90718W        W33630  18.403  15.723  29.542  0.2374  0.4375  0.1102
90719W        W33631  19.607  15.975  27.218  0.0770  0.0116 -0.1755
90720W        W33632  19.314  15.090  25.984  0.0597 -0.1853  0.0376
90721W        W33633  19.247  16.286  29.322  0.3472  0.0549 -0.0537
90722W        W33634  20.784  16.751  28.442 -0.2915  0.1107  0.2388
90723W        W33635  20.294  16.592  26.144 -0.0133 -0.0937  0.2416
90724W        W33636  21.429  16.653  25.428  0.2240  0.1146 -0.0871
90725W        W33637  19.007  16.251  27.961 -0.1999  0.0010  0.1344
90726W        W33638  20.074  16.717  27.954  0.2266  0.2076 -0.1424
90727W        W33639  21.607  17.270  27.333  0.0224 -0.0224 -0.1696
90728W        W33640  19.193  17.127  27.901 -0.0018  0.0053  0.1013
90729W        W33641  18.840  14.326  29.582 -0.0809 -0.0106  0.0034
90730W        W33642  22.106  17.743  29.160  0.1451 -0.1783  0.0617
90731W        W33643  20.640  15.889  27.838 -0.1661 -0.0982  0.1464
90732W        W33644  21.625  14.834  29.908 -0.0761 -0.0220 -0.0488
90733W        W33645  19.978  15.619  29.490  0.1412 -0.0286  0.0257
90734W        W33646  17.817  15.391  29.418 -0.0786 -0.2151 -0.1179
90735W        W33647  19.016  16.121  30.314  0.1023  0.0938 -0.2289
90736W        W33648  19.995  17.336  28.401  0.1739  0.1074  0.3258
90737W        W33649  22.014  15.032  26.006 -0.0791  0.3496  0.0161
90738W        W33650  21.281  15.251  29.994 -0.0703 -0.3110  0.0841
90739W        W33651  22.390  16.134  27.629 -0.3782  0.0945  0.1310
90740W        W33652  20.818  15.722  28.323  0.1088  0.0508  0.2925
90741W        W33653  18.231  15.342  27.110 -0.0339 -0.0505  0.0238
90742W        W33654  20.869  16.231  30.215 -0.1636  0.3608  0.0364
90743W        W33655  19.971  15.131  25.426 -0.4399  0.1474 -0.0811
90744W        W33656  19.780  15.205  31.117  0.2689 -0.2407  0.1914
90745W        W33657  19.599  16.690  25.606 -0.0115  0.2228 -0.1945
90746W        W33658  21.628  18.489  29.845 -0.1559  0.1865 -0.1180
90747W        W33659  20.310  15.517  28.075  0.0372 -0.0290 -0.0302
90748W        W33660  19.055  15.358  26.971  0.2095 -0.4611 -0.2450
90749W        W33661  19.085  17.151  29.449  0.4277 -0.0137  0.3817
90750W        W33662  18.830  14.803  24.722 -0.1554 -0.2206  0.3282
90751W        W33663  20.154  16.766  27.465 -0.4140 -0.0358  0.1743
90752W        W33664  19.707  16.126  28.078 -0.1145  0.2102 -0.0571
90753W        W33665  22.406  15.354  31.509  0.2122  0.0729 -0.2465
90754W        W33666  19.248  15.785  27.879 -0.0052 -0.3712 -0.1166
90755W        W33667  21.837  16.120  29.171  0.1806  0.1740 -0.1112
90756W        W33668  19.342  17.750  27.735 -0.2936 -0.0537 -0.0319
90757W        W33669  19.854  14.645  29.180  0.3468 -0.0219  0.1643
90758W        W33670  19.652  17.206  29.448 -0.0360 -0.0485  0.2321
90759W        W33671  19.320  15.597  26.139  0.0258  0.2443 -0.0299
90760W        W33672  18.762  17.246  27.571  0.0525 -0.0512 -0.0455
90761W        W33673  19.929  14.941  30.399  0.1025 -0.0951  0.1005
90762W        W33674  21.126  16.517  28.108  0.1622 -0.1530 -0.0703
90763W        W33675  20.706  16.286  28.263 -0.0721 -0.0514 -0.1266
90764W        W33676  20.604  16.209  29.792  0.0398 -0.2804 -0.0721
90765W        W33677  18.974  16.633  29.546  0.1677 -0.1524 -0.2164
90766W        W33678  18.791  15.838  27.671  0.0651 -0.0660  0.0987
90767W        W33679  20.152  18.015  30.873  0.2106 -0.2177  0.0597
90768W        W33680  21.795  16.171  27.740 -0.1398  0.0904 -0.1522
90769W        W33681  18.977  17.159  26.947 -0.1784  0.0055 -0.2900
90770W        W33682  17.858  15.844  29.031 -0.1254 -0.0366  0.0711
90771W        W33683  19.769  16.069   0.095 -0.1770  0.0445 -0.1652
90772W        W33684  19.866  16.541  28.366  0.0246  0.0945 -0.1957
90773W        W33685  18.823  13.512  26.848  0.1063  0.3145 -0.1997
90774W        W33686  19.665  16.943  24.618 -0.2380 -0.0889  0.2918
90775W        W33687  17.596  16.817  30.476 -0.3894 -0.3204  0.0669
90776W        W33688  17.588  15.586  29.835  0.1587  0.1524  0.2983
90777W        W33689  19.809  18.196  25.173 -0.0704 -0.1625  0.0331
90778W        W33690  21.114  16.036  27.998 -0.2971 -0.0241 -0.0755
90779W        W33691  21.073  17.896  25.376  0.0799 -0.1394 -0.2574
90780W        W33692  19.274  18.255  29.246  0.2799  0.2952  0.2106
90781W        W33693  19.408  15.250  27.360 -0.1073  0.1162 -0.2830
90782W        W33694  18.171  16.823  27.914  0.0376  0.1177 -0.1081
90783W        W33695  21.462  18.363  27.414 -0.2109 -0.1407 -0.1715
90784W        W33696  18.753  17.861  26.339 -0.1193  0.0025 -0.1243
90785W        W33697  20.684  17.375  30.188  0.0377 -0.0637 -0.0624
90786W        W33698  21.387  15.771  26.022 -0.0506 -0.1973  0.2534
90787W        W33699  19.452  17.645  28.601 -0.1194 -0.1021  0.4164
90788W        W33700  21.645  16.306  28.199 -0.1410  0.3618  0.0117
90789W        W33701  19.720  17.481  31.083 -0.1829 -0.3790  0.0448
90790W        W33702  18.021  15.500  28.438  0.0174 -0.1150  0.1796
90791W        W33703  19.848  14.117  23.310 -0.0288  0.2827 -0.0511
90792W        W33704  19.079  16.346  31.439 -0.0556 -0.0153  0.1751
90793W        W33705  22.094  14.760  30.154  0.0201 -0.0595 -0.2031
90794W        W33706  17.849  17.394  29.677 -0.0111 -0.0559  0.0385
90795W        W33707  20.627  17.646  26.663 -0.1504 -0.2266 -0.3107
90796W        W33708  18.412  15.338  24.820 -0.2424  0.3603 -0.1699
90797W        W33709  18.411  16.782  30.229  0.0736 -0.2717  0.0782
90798W        W33710  20.785  15.241  28.305 -0.1104 -0.2297  0.0588
90799W        W33711  19.188  16.139  25.297 -0.0608 -0.0067  0.0854
90800W        W33712  20.785  16.220  29.332  0.0265 -0.1068  0.1823
90801W        W33713  19.185  17.827  26.751  0.1220 -0.3506  0.1344
90802W        W33714  18.478  16.456  26.999 -0.3309 -0.1104  0.3300
90803W        W33715  18.254  17.509  27.657 -0.4042  0.0417 -0.2320
90804W        W33716  18.718  14.708  25.251  0.3981  0.0340 -0.3709
90805W        W33717  21.107  17.131  28.067  0.0509 -0.0923  0.2184
90806W        W33718  18.120  14.866  29.084 -0.3288  0.1062  0.2139
90807W        W33719  20.641  14.750  29.867  0.0222  0.2059  0.2114
90808W        W33720  19.330  16.707  26.215 -0.2711  0.1023  0.1493
90809W        W33721  19.944  15.540  27.273 -0.1466  0.0924 -0.0811
90810W        W33722  20.209  15.785  27.658  0.1345 -0.3864 -0.1142
90811W        W33723  18.290  16.056  29.081  0.0699  0.0691 -0.0265
90812W        W33724  20.338  16.283  27.750 -0.4714  0.1408  0.0392
90813W        W33725  20.919  17.400  28.599  0.1594 -0.0624 -0.1843
90814W        W33726  20.084  16.186  26.365  0.3193  0.1043  0.0478
90815W        W33727  19.631  16.961  30.810  0.1320 -0.0030 -0.5137
90816W        W33728  18.640  14.713  25.967 -0.0208 -0.0128  0.2646
90817W        W33729  19.157  15.719  27.361 -0.1030 -0.0243 -0.1680
90818W        W33730  18.727  15.763  29.043 -0.1684 -0.1604 -0.0602
90819W        W33731  20.223  16.146  29.351 -0.2625  0.1109  0.0099
90820W        W33732  18.842  17.528  30.720 -0.1260 -0.1831  0.1946
90821W        W33733  19.708  14.272  25.815  0.3259  0.4120  0.0859
90822W        W33734  20.853  16.713  26.798 -0.5019 -0.1841  0.0055
90823W        W33735  20.768  17.244  26.982 -0.1569  0.3575 -0.0577
90824W        W33736  20.689  19.348  25.386 -0.2116  0.4544 -0.2208
90825W        W33737  22.127  16.955  28.912  0.2742  0.4057 -0.0650
90826W        W33738  19.211  18.076  28.770  0.2387  0.3194  0.2742
90827W        W33739  18.415  16.230  28.518 -0.0335 -0.1485  0.2478
90828W        W33740  21.121  17.120  29.833  0.0330  0.1556  0.1116
90829W        W33741  21.536  16.777  28.928  0.2088  0.3665  0.1639
90830W        W33742  21.309  15.089  28.507 -0.0889 -0.0454  0.2062
90831W        W33743  19.090  15.365  29.052 -0.2342  0.0319  0.3941
90832W        W33744  19.083  16.867  27.425  0.0463  0.0162  0.1688
90833W        W33745  22.462  15.729  28.601  0.1225  0.3066 -0.2969
90834W        W33746  21.146  15.814  30.244  0.1681 -0.1462  0.3083
90835W        W33747  20.235  18.278  25.567 -0.6361 -0.0438 -0.0278
90836W        W33748  20.301  12.968  30.389  0.2397 -0.1956  0.1403
90837W        W33749  19.352  17.408  30.675 -0.2496  0.0598 -0.3369
90838W        W33750  18.285  15.667  27.647 -0.1060 -0.1168  0.2987
90839W        W33751  19.372  15.731  29.461 -0.2078 -0.0004  0.0388
90840W        W33752  19.356  16.595  27.981  0.0072 -0.0380  0.1466
90841W        W33753  19.391  17.758  27.224  0.2378 -0.2730 -0.3917
90842W        W33754  21.251  18.076  27.976  0.0311  0.1042  0.0582
90843W        W33755  19.704  15.780  27.672 -0.0533  0.2857  0.2889
90844W        W33756  23.681  16.244  28.021  0.1096  0.0530  0.2870
90845W        W33757  18.927  15.265  27.706  0.1808 -0.2175  0.1409
90846W        W33758  21.079  15.914  29.733  0.0604  0.0968 -0.3578
90847W        W33759  21.247  15.257  29.171 -0.0217  0.0785  0.0505
90848W        W33760  18.089  15.410  28.995 -0.1578 -0.2589  0.0468
90849W        W33761  18.692  15.217  25.384 -0.1285 -0.3478 -0.0763
90850W        W33762  19.868  16.030  24.411 -0.2030 -0.1440  0.0993
90851W        W33763  18.302  16.701  28.395  0.1720 -0.1557 -0.0596
90852W        W33764  19.963  14.260  29.716  0.2750 -0.0639 -0.1844
90853W        W33765  16.934  14.441  28.113 -0.0449  0.0782  0.1618
90854W        W33766  17.907  17.001  27.055  0.6606  0.1303  0.0117
90855W        W33767  19.033  15.454  25.701 -0.1119  0.2947  0.1749
90856W        W33768  22.091  17.027  28.020  0.1310 -0.0871  0.0248
90857W        W33769  18.861  14.549  28.104  0.1724  0.0522  0.1653
90858W        W33770  18.676  15.050  28.124  0.3396 -0.0262 -0.1588
90859W        W33771  20.650  17.172  28.208  0.1092 -0.3047  0.0734
90860W        W33772  22.113  17.293  28.539 -0.0329  0.1173  0.0981
90861W        W33773  19.514  15.443  26.739 -0.0832  0.0233  0.0987
90862W        W33774  20.906  17.542  29.564  0.0906  0.2190 -0.1410
90863W        W33775  19.249  16.696  24.916  0.3376 -0.3825 -0.1236
90864W        W33776  20.130  15.013  31.361 -0.2179 -0.1023 -0.1215
90865W        W33777  18.439  15.172  29.559  0.1792  0.0635 -0.0671
90866W        W33778  19.633  13.800  28.244  0.1933  0.2285 -0.1729
90867W        W33779  19.998  15.935  30.466 -0.0213  0.1616 -0.0786
90868W        W33780  20.275  17.622  27.620 -0.1599 -0.0078  0.2515
90869W        W33781  19.768  18.058  26.167 -0.1312 -0.0055 -0.1736
90870W        W33782  18.600  16.693  28.738 -0.1188  0.3154  0.0178
90871W        W33783  19.877  17.188  29.852 -0.1079 -0.1617  0.1288
90872W        W33784  17.449  13.623  30.550 -0.1400  0.0342 -0.2845
90873W        W33785  21.154  17.386  27.268 -0.0201  0.0182 -0.0876
90874W        W33786  18.388  17.939  30.055 -0.2186 -0.5264 -0.2531
90875W        W33787  21.677  17.227  28.789 -0.1526  0.2364  0.2415
90876W        W33788  21.076  14.939  29.485  0.0878  0.3203 -0.1700
90877W        W33789  20.707  16.962  27.380 -0.0712  0.1047  0.0667
90878W        W33790  18.162  14.947  29.843  0.4020  0.2472  0.0891
90879W        W33791  18.757  16.269  29.107 -0.3295  0.1702 -0.1914
90880W        W33792  20.741  17.075  29.003  0.1452 -0.1307 -0.1698
90881W        W33793  18.851  14.989  27.269  0.0015 -0.0535 -0.0501
90882W        W33794  20.359  15.311  27.415  0.0893 -0.1288 -0.1142
90883W        W33795  20.154  17.228  26.011  0.2145 -0.1104 -0.2696
90884W        W33796  18.845  15.574  28.645  0.0069  0.2446 -0.0827
90885W        W33797  20.899  16.345  26.426  0.0129 -0.2026 -0.2410
90886W        W33798  20.212  15.051  29.909 -0.1021 -0.1405  0.2516
90887W        W33799  21.091  16.644  29.024 -0.1873 -0.0109  0.1039
90888W        W33800  19.731  16.076  29.563  0.2276 -0.1658 -0.4996
90889W        W33801  18.682  15.519  27.341  0.1806 -0.1591  0.2120
90890W        W33802  21.566  15.755  27.940  0.1357  0.0303  0.2052
90891W        W33803  19.560  17.747  29.393 -0.0939  0.1156  0.0587
90892W        W33804  21.163  16.699  31.117 -0.3140  0.1982  0.2673
90893W        W33805  19.218  18.518  29.670  0.0084 -0.1787  0.2975
90894W        W33806  20.130  17.451  29.454 -0.2678  0.0222  0.0281
90895W        W33807  18.323  14.172  28.656 -0.1333 -0.1391 -0.2394
90896W        W33808  19.877  16.288  27.544 -0.0949  0.1995  0.1362
90897W        W33809  19.580  16.800  27.575  0.2521  0.1046 -0.4431
90898W        W33810  20.558  16.622  28.830  0.1299 -0.1796  0.0773
90899W        W33811  19.180  14.052  29.126 -0.0773 -0.0671  0.3719
90900W        W33812  20.432  15.990  28.572  0.3086  0.2344 -0.0114
90901W        W33813  18.693  17.419  29.261  0.0359  0.2104 -0.0518
90902W        W33814  19.278  16.097  29.827  0.2286 -0.0856 -0.0208
90903W        W33815  20.504  14.920  30.316 -0.1981 -0.1988  0.1606
90904W        W33816  20.427  16.284  30.927  0.0735  0.1978 -0.0111
90905W        W33817  20.167  15.752  30.058  0.2983  0.3753 -0.1483
90906W        W33818  17.070  16.428  29.950  0.1133  0.3794  0.2237
90907W        W33819  17.860  16.377  30.867  0.4833  0.0657  0.1636
90908W        W33820  19.454  17.441   0.061 -0.1784  0.2442  0.0423
90909W        W33821  21.116  14.999  31.217 -0.0418  0.3005  0.1064
90910W        W33822  19.887  15.078  28.818 -0.3458 -0.1883 -0.0787
90911W        W33823  20.259  14.637  29.572 -0.0819 -0.1212  0.2622
90912W        W33824  22.385  17.259  31.783 -0.0127  0.3459 -0.0682
90913W        W33825  20.494  17.897  31.734 -0.3089 -0.0673  0.0061
90914W        W33826  18.571  13.876  29.526 -0.1263  0.1493  0.2476
90915W        W33827  19.832  16.462  29.214  0.1142  0.0522 -0.0614
90916W        W33828  20.490  16.601  30.505  0.1393  0.1184 -0.0110
90917W        W33829  20.747  15.038   0.670 -0.0037 -0.2657  0.2003
90918W        W33830  19.044  16.867  31.380 -0.0568  0.0195  0.0545
90919W        W33831  17.990  16.979  30.068 -0.0774 -0.0054 -0.2009
90920W        W33832  21.110  15.520  31.765 -0.2455  0.2758 -0.2895
90921W        W33833  18.961  14.584  30.037  0.4720 -0.1557 -0.1333
90922W        W33834  19.107  14.985  31.088 -0.0097  0.0978  0.0043
90923W        W33835  19.757  14.687  31.001  0.0637  0.3062 -0.1679
90924W        W33836  17.024  17.939  29.852  0.0931  0.1417  0.1030
90925W        W33837  21.786  14.425  30.704 -0.0491 -0.0354  0.0172
90926W        W33838  21.827  15.177  30.221 -0.1343  0.1643  0.0818
90927W        W33839  19.638  13.002   1.089  0.0589 -0.0433 -0.0001
90928W        W33840  18.699  15.860  29.989 -0.1894  0.0269 -0.0317
90929W        W33841  20.125  16.349  29.797 -0.0954 -0.0438 -0.1666
90930W        W33842  18.336  17.512  30.851  0.1182  0.0328 -0.2081
90931W        W33843  19.084  15.314  30.716 -0.0009 -0.3390 -0.0252
90932W        W33844  20.929  16.434  30.686 -0.2459 -0.0004 -0.3960
90933W        W33845  19.564  16.523  29.692 -0.0788 -0.0336  0.0387
90934W        W33846  18.931  14.991  29.356  0.1322  0.0218 -0.3050
90935W        W33847  21.439  16.380  31.399 -0.1463  0.2699  0.2423
90936W        W33848  20.669  15.743  30.000 -0.3102 -0.5945 -0.1306
90937W        W33849  18.352  15.017  31.923 -0.0326 -0.1456  0.2763
90938W        W33850  19.520  16.430   0.288 -0.3114  0.0260 -0.1946
90939W        W33851  18.686  17.299  31.137  0.2190 -0.0571  0.2536
90940W        W33852  20.700  16.752  30.997 -0.3247 -0.2608 -0.1093
90941W        W33853  20.047  15.952  30.990  0.0904  0.1253 -0.0420
90942W        W33854  19.594  16.461   0.770  0.1270 -0.1703 -0.4011
90943W        W33855  22.828  15.546  31.273  0.2402  0.4058  0.1885
90944W        W33856  21.220  16.604  29.896  0.1478 -0.2669 -0.0074
90945W        W33857  19.601  13.789  29.816  0.0216  0.3040  0.0987
90946W        W33858  18.928  18.033  30.409  0.0899  0.2152 -0.0360
90947W        W33859  19.427  15.268  30.290  0.2569 -0.0245 -0.0407
90948W        W33860  20.765  17.466  31.669 -0.1965  0.0809  0.2505
90949W        W33861  20.462  15.693  29.562 -0.0070 -0.0224 -0.1739
90950W        W33862  19.828  17.378  30.443  0.0377  0.2330 -0.0912
90951W        W33863  19.956  16.541  31.063  0.3541  0.2812 -0.2766
90952W        W33864  16.769  16.720  29.703 -0.1202 -0.0565 -0.1123
90953W        W33865  21.154  17.701  31.891  0.1386 -0.0512 -0.1090
90954W        W33866  20.669  13.914  31.812 -0.0870 -0.0623 -0.3147
90955W        W33867  18.292  13.259  29.070  0.0939 -0.1080  0.0265
90956W        W33868  20.867  16.750  30.234 -0.0151  0.1110  0.1657
90957W        W33869  21.491  15.425  30.465  0.1374  0.1542 -0.2982
90958W        W33870  20.455  16.606  29.421 -0.2441 -0.1408 -0.2788
90959W        W33871  21.040  15.430  30.842 -0.0387  0.1328  0.1572
90960W        W33872  18.098  19.290  30.117 -0.2344  0.0129 -0.0557
90961W        W33873  18.254  17.751  31.397  0.0904  0.1807  0.1220
90962W        W33874  17.795  15.821  30.274 -0.1695 -0.0949 -0.1066
90963W        W33875  18.549  15.338  30.017  0.1145  0.0451 -0.1335
90964W        W33876  18.750  16.845  29.169 -0.0398 -0.0357  0.1746
90965W        W33877  18.164  15.101  30.333  0.0650  0.2571  0.3739
90966W        W33878  19.571  14.224  29.423  0.0630  0.2583 -0.2929
90967W        W33879  21.933  15.983  29.765  0.0476 -0.1252 -0.2644
90968W        W33880  21.321  16.808  31.679 -0.0050  0.0515 -0.2105
90969W        W33881  22.655  17.187  30.379 -0.0835  0.1033 -0.2401
90970W        W33882  19.897  21.765  16.752 -0.1842  0.0497  0.0630
90971W        W33883  18.724  19.082  16.679  0.1820 -0.1596 -0.0009
90972W        W33884  20.915  18.476  15.216 -0.2547 -0.2128 -0.1913
90973W        W33885  20.499  20.437  15.393 -0.1912  0.0624  0.0695
90974W        W33886  17.281  18.945  16.778 -0.2486 -0.1042  0.2744
90975W        W33887  20.544  22.206  15.848  0.1271 -0.1275 -0.2948
90976W        W33888  19.168  20.445  16.715  0.3590 -0.1826 -0.2916
90977W        W33889  20.500  21.750  16.646 -0.1032  0.1843  0.2945
90978W        W33890  21.324  22.871  18.337 -0.1020 -0.3183  0.3822
90979W        W33891  20.662  21.556  14.444  0.1000 -0.0487 -0.1420
90980W        W33892  20.173  20.407  16.918  0.1082  0.1962  0.3582
90981W        W33893  20.644  22.167  16.839 -0.1626  0.2998 -0.0353
90982W        W33894  19.846  18.365  16.719  0.0107  0.0518  0.1067
90983W        W33895  19.177  18.249  16.255 -0.0961 -0.2907 -0.3149
90984W        W33896  20.279  20.243  17.545  0.3259 -0.0125  0.1799
90985W        W33897  19.460  20.931  16.601  0.1409  0.3889  0.2653
90986W        W33898  21.125  21.248  16.131  0.2947 -0.0215 -0.0344
90987W        W33899  21.733  20.926  16.793  0.2893 -0.2179 -0.0782
90988W        W33900  19.486  22.461  15.536 -0.1446  0.3054  0.0662
90989W        W33901  19.770  19.006  17.162  0.3133 -0.2141 -0.2663
90990W        W33902  21.218  19.837  17.033 -0.1566  0.1684  0.1773
90991W        W33903  19.439  22.211  15.941  0.4564 -0.2149 -0.0164
90992W        W33904  19.654  20.313  14.822 -0.0183 -0.0494 -0.2982
90993W        W33905  19.404  19.398  16.904 -0.1462  0.0067  0.0133
90994W        W33906  20.296  21.327  15.489  0.0637 -0.1929 -0.2942
90995W        W33907  20.291  19.484  16.440  0.1086  0.2130 -0.0812
90996W        W33908  21.916  20.169  16.224  0.3086 -0.4296 -0.2647
90997W        W33909  21.526  23.181  18.050 -0.1697 -0.2493  0.1365
90998W        W33910  19.596  20.669  17.027 -0.1940 -0.0023 -0.1412
90999W        W33911  21.637  20.996  19.597 -0.2171 -0.1078 -0.0004
91000W        W33912  19.924  20.749  16.644  0.0247  0.4759  0.1410
91001W        W33913  17.245  21.600  15.942 -0.4840  0.2325  0.0714
91002W        W33914  19.777  22.364  16.406 -0.0757  0.0078  0.0531
91003W        W33915  21.689  21.548  15.954 -0.0965  0.3945 -0.0761
91004W        W33916  21.725  21.336  18.637  0.1521  0.1211  0.0832
91005W        W33917  19.910  21.882  18.636 -0.1635 -0.2484 -0.4155
91006W        W33918  18.804  21.656  15.936  0.2489  0.1109  0.0905
91007W        W33919  20.169  23.424  18.595  0.2618  0.1713  0.0165
91008W        W33920  20.210  21.207  17.498 -0.3367  0.3867 -0.1834
91009W        W33921  21.120  20.256  16.661  0.2654  0.2239 -0.2860
91010W        W33922  21.135  21.745  17.525  0.1297  0.0514  0.1142
91011W        W33923  19.968  21.103  16.050  0.0072 -0.1735 -0.1024
91012W        W33924  21.275  21.254  17.537  0.1788  0.0113  0.0536
91013W        W33925  20.511  22.039  19.305  0.2150  0.3779 -0.0046
91014W        W33926  18.183  22.590  16.283  0.2877  0.1235 -0.2193
91015W        W33927  21.819  20.080  18.890  0.0297  0.0012 -0.3537
91016W        W33928  19.455  21.188  17.057 -0.3651 -0.0307 -0.0413
91017W        W33929  21.590  19.513  14.849  0.1870 -0.1261 -0.1014
91018W        W33930  18.591  20.332  15.038 -0.0964 -0.0350 -0.0932
91019W        W33931  21.764  17.911  15.950  0.2837 -0.0374  0.1588
91020W        W33932  18.926  18.702  16.403  0.3783  0.1156  0.1252
91021W        W33933  20.168  23.134  18.150 -0.0945  0.2705  0.0657
91022W        W33934  20.690  17.943  16.298  0.0970 -0.1609  0.1485
91023W        W33935  23.598  22.028  19.244  0.0351  0.0759 -0.0606
91024W        W33936  20.219  19.546  14.912  0.0953  0.0510 -0.1331
91025W        W33937  21.238  19.737  16.496 -0.0063  0.1619  0.2939
91026W        W33938  19.042  21.540  16.971  0.1035 -0.3927  0.0466
91027W        W33939  18.746  19.850  17.248  0.0668 -0.1233  0.0698
91028W        W33940  20.135  24.408  16.249  0.1776  0.2022  0.0317
91029W        W33941  21.518  22.905  16.503 -0.0904  0.3857  0.0550
91030W        W33942  19.808  21.119  14.424  0.0467 -0.2404 -0.0925
91031W        W33943  18.991  19.767  15.080  0.0733 -0.0506 -0.2211
91032W        W33944  17.289  20.354  17.845  0.1520 -0.2218  0.1107
91033W        W33945  18.272  20.958  17.370  0.0123  0.0916 -0.1652
91034W        W33946  20.569  18.744  15.381  0.0595 -0.4004  0.5248
91035W        W33947  23.565  20.877  19.885  0.1693  0.0772  0.2643
91036W        W33948  19.823  21.971  17.369 -0.3084 -0.0061 -0.2492
91037W        W33949  22.503  19.131  17.114 -0.1216 -0.0434  0.2025
91038W        W33950  20.485  20.814  16.892  0.2139 -0.3932 -0.1757
91039W        W33951  22.585  23.053  17.368  0.0061 -0.1129  0.2600
91040W        W33952  20.909  20.051  15.370 -0.1342 -0.0892  0.0453
91041W        W33953  20.911  20.432  16.081 -0.3073 -0.0513 -0.1067
91042W        W33954  23.035  18.798  17.271  0.2762  0.1899  0.1110
91043W        W33955  20.541  21.098  14.640 -0.1102  0.0988 -0.2490
91044W        W33956  20.362  20.900  15.749  0.0386  0.0412  0.0163
91045W        W33957  23.301  23.001  19.527 -0.1650  0.3153  0.2494
91046W        W33958  20.988  20.445  15.040  0.1793  0.1287  0.0732
91047W        W33959  19.617  22.749  16.853  0.0294  0.0900  0.0402
91048W        W33960  19.274  19.784  17.360  0.4153 -0.1496 -0.3230
91049W        W33961  22.398  22.076  18.949  0.2391 -0.3136 -0.3348
91050W        W33962  18.960  21.075  15.094 -0.0894 -0.0366  0.2937
91051W        W33963  17.844  19.865  17.274  0.0048 -0.2969 -0.2478
91052W        W33964  19.170  20.721  16.248  0.0331  0.0751  0.1211
91053W        W33965  19.327  19.031  16.505 -0.0014  0.0204  0.1619
91054W        W33966  20.495  22.121  17.949 -0.0144  0.2471  0.0081
91055W        W33967  22.250  19.158  16.414 -0.3377 -0.2860  0.1813
91056W        W33968  19.057  19.424  17.917 -0.2465 -0.0768 -0.1632
91057W        W33969  23.207  19.536  16.907 -0.1833 -0.1686 -0.0331
91058W        W33970  20.364  20.792  16.348 -0.0263  0.3544 -0.1394
91059W        W33971  21.102  20.502  15.600 -0.0480 -0.3314 -0.0615
91060W        W33972  19.934  20.028  15.148 -0.0986 -0.0087 -0.0076
91061W        W33973  20.957  21.494  14.832  0.1566 -0.1557  0.5666
91062W        W33974  17.924  20.553  16.457  0.1009 -0.0195  0.1565
91063W        W33975  19.585  20.441  16.343 -0.0672 -0.2518 -0.0622
91064W        W33976  20.406  19.273  18.144 -0.0614  0.1644  0.1768
91065W        W33977  19.259  19.739  15.973  0.0736  0.0352  0.2315
91066W        W33978  22.080  19.522  20.250  0.0882  0.1742 -0.2258
91067W        W33979  18.183  19.596  15.370 -0.0562 -0.1316  0.2498
91068W        W33980  21.420  19.239  15.865 -0.1821  0.1166 -0.0413
91069W        W33981  20.097  20.291  16.386 -0.0085 -0.0594 -0.1061
91070W        W33982  18.579  20.823  15.939  0.0820 -0.3122 -0.1065
91071W        W33983  21.077  19.105  20.056  0.1982  0.0689  0.1663
91072W        W33984  20.183  22.032  16.442  0.0365  0.1126  0.2816
91073W        W33985  22.701  23.328  19.291  0.1402 -0.0880 -0.0706
91074W        W33986  19.933  22.086  15.964  0.4064 -0.0133  0.0912
91075W        W33987  21.012  20.683  16.996 -0.0046 -0.2806  0.1020
91076W        W33988  20.106  19.079  15.210 -0.2066 -0.1077 -0.0253
91077W        W33989  19.819  22.856  17.412 -0.1900  0.0034 -0.2148
91078W        W33990  19.792  22.220  16.888  0.1586  0.0040 -0.1921
91079W        W33991  18.881  18.415  15.516  0.3670 -0.4733 -0.0985
91080W        W33992  22.115  22.371  16.785  0.1189  0.3353  0.2291
91081W        W33993  19.671  19.949  16.183 -0.0581 -0.2627 -0.0988
91082W        W33994  17.374  22.701  18.147  0.2779 -0.2898 -0.0020
91083W        W33995  20.661  20.589  17.363  0.0987 -0.0013 -0.1321
91084W        W33996  21.943  20.855  18.088 -0.1468  0.2157  0.0801
91085W        W33997  20.778  20.901  16.071  0.1117  0.1196 -0.0635
91086W        W33998  19.026  20.295  17.206  0.1415  0.0031  0.1884
91087W        W33999  20.397  23.688  17.706  0.0098  0.1212  0.1414
91088W        W34000  18.756  21.870  15.453 -0.1912 -0.1477 -0.0360
91089W        W34001  19.244  20.098  16.347 -0.1273 -0.0680 -0.1195
91090W        W34002  19.440  21.300  15.659 -0.0968 -0.0663  0.0021
91091W        W34003  22.626  19.497  16.478  0.0328  0.1687 -0.0473
91092W        W34004  17.201  21.758  18.344  0.2546  0.1271  0.3098
91093W        W34005  20.796  19.654  17.559  0.0953 -0.1398  0.0321
91094W        W34006  19.635  20.163  16.726  0.2702 -0.2479  0.0652
91095W        W34007  19.580  22.418  17.339 -0.0133  0.2282 -0.1527
91096W        W34008  20.639  19.536  16.079 -0.0137 -0.1309  0.2279
91097W        W34009  22.223  18.924  15.190  0.0862 -0.0028 -0.3222
91098W        W34010  22.471  22.775  18.099  0.2698  0.1043  0.3693
91099W        W34011  21.904  22.607  17.233 -0.2536 -0.1475  0.3920
91100W        W34012  21.679  17.905  15.411 -0.4311 -0.3111  0.3546
91101W        W34013  21.954  19.296  15.995  0.2800  0.0373  0.0439
91102W        W34014  19.454  20.811  17.846 -0.3098  0.0769  0.0218
91103W        W34015  20.080  23.017  16.564  0.0803  0.0434 -0.0709
91104W        W34016  22.392  21.956  16.893 -0.2275  0.1103 -0.2020
91105W        W34017  19.217  18.529  14.699  0.2161  0.3476  0.1604
91106W        W34018  21.610  20.673  15.594 -0.0083  0.1147  0.0720
91107W        W34019  18.770  21.151  17.173  0.2648  0.1325  0.1206
91108W        W34020  22.104  21.286  19.333  0.0522 -0.0455 -0.2157
91109W        W34021  20.775  21.348  15.771 -0.2749  0.1398 -0.0602
91110W        W34022  20.457  19.055  16.282  0.0573 -0.0975  0.2257
91111W        W34023  19.213  19.023  15.568  0.1071  0.1034  0.2920
91112W        W34024  20.256  19.085  17.299  0.2514 -0.4560 -0.0293
91113W        W34025  16.343  20.919  16.492  0.0157 -0.3485 -0.1613
91114W        W34026  21.636  19.990  17.287  0.0218  0.0896  0.5582
91115W        W34027  19.087  19.096  16.089 -0.0968  0.1371  0.2414
91116W        W34028  21.132  18.899  17.546  0.2033 -0.0626 -0.0898
91117W        W34029  21.779  19.921  20.213  0.2531  0.0327 -0.0490
91118W        W34030  20.540  20.784  15.037 -0.0713 -0.0940  0.1900
91119W        W34031  21.200  21.480  17.956 -0.1101 -0.4932  0.1446
91120W        W34032  19.872  20.952  15.593  0.3786 -0.1787 -0.0735
91121W        W34033  21.939  18.416  17.683  0.1737 -0.1770 -0.1857
91122W        W34034  19.321  20.368  18.143 -0.2347  0.1806 -0.2391
91123W        W34035  17.400  21.048  17.139 -0.1652  0.0789  0.2625
91124W        W34036  21.502  23.223  18.660  0.0327 -0.0605 -0.0436
91125W        W34037  20.616  19.976  15.740 -0.0297  0.0850  0.2102
91126W        W34038  20.136  18.610  17.253 -0.1103 -0.1726 -0.0010
91127W        W34039  20.633  19.248  15.084  0.1928 -0.2725  0.5917
91128W        W34040  18.971  21.154  16.522 -0.3143 -0.5590  0.2347
91129W        W34041  18.808  19.495  15.470 -0.1148 -0.1474  0.0213
91130W        W34042  19.813  18.203  16.268  0.1203 -0.1442  0.2820
91131W        W34043  21.627  21.748  18.186 -0.0630 -0.0106 -0.0337
91132W        W34044  18.920  21.342  15.561 -0.0728 -0.1222  0.2317
91133W        W34045  21.340  21.612  16.913  0.0724 -0.0307  0.2423
91134W        W34046  20.656  21.172  16.476 -0.4399  0.1548 -0.3352
91135W        W34047  22.465  19.766  17.197 -0.0703  0.1438  0.0401
91136W        W34048  18.899  21.631  16.488  0.0406  0.1510 -0.0975
91137W        W34049  19.735  19.590  15.050 -0.1688 -0.2308 -0.1123
91138W        W34050  18.842  19.544  14.619  0.0778 -0.1099 -0.0958
91139W        W34051  21.931  19.563  17.238 -0.1035 -0.0292 -0.3340
91140W        W34052  21.199  21.610  15.719  0.2199  0.0767 -0.0621
91141W        W34053  19.022  18.490  16.952  0.1696 -0.3191  0.2166
91142W        W34054  20.348  18.827  15.884  0.1005 -0.3538 -0.2521
91143W        W34055  17.777  22.308  17.062 -0.1731 -0.3042  0.0343
91144W        W34056  21.647  20.942  17.702 -0.2370  0.2671  0.0760
91145W        W34057  20.733  17.900  15.758  0.2499  0.0039 -0.2830
91146W        W34058  21.690  22.282  17.702 -0.2161 -0.1634 -0.1592
91147W        W34059  20.271  21.799  17.637  0.0020  0.1459  0.0304
91148W        W34060  19.301  19.492  15.521 -0.1205 -0.1938  0.1970
91149W        W34061  21.112  20.667  17.605 -0.2908 -0.0073  0.1619
91150W        W34062  19.940  19.029  15.699  0.2239  0.2462 -0.1113
91151W        W34063  19.233  21.656  16.124  0.1623 -0.1538  0.3662
91152W        W34064  20.818  22.652  18.590 -0.0294 -0.0072 -0.1054
91153W        W34065  17.546  20.213  15.320 -0.0005  0.1271  0.0005
91154W        W34066  19.051  20.795  15.601  0.0173 -0.2200 -0.0585
91155W        W34067  18.243  19.821  16.957 -0.0945 -0.0229  0.0408
91156W        W34068  22.484  21.331  17.966  0.1003 -0.0489  0.1580
91157W        W34069  19.973  21.050  17.086  0.1222  0.1310  0.2395
91158W        W34070  19.493  19.330  15.973 -0.0719 -0.2639  0.0030
91159W        W34071  20.446  19.464  16.959  0.0295  0.1907 -0.3652
91160W        W34072  20.575  20.375  16.581  0.2246 -0.0495 -0.0952
91161W        W34073  21.300  20.729  16.049  0.0991  0.0871  0.1433
91162W        W34074  19.850  22.228  17.877  0.1219 -0.2441 -0.0643
91163W        W34075  18.826  17.834  16.840 -0.0308  0.0537 -0.2684
91164W        W34076  21.621  22.051  15.710 -0.3211  0.0911  0.0258
91165W        W34077  21.263  20.172  18.706  0.0729  0.4668  0.0258
91166W        W34078  18.628  20.747  15.302 -0.0519 -0.1819  0.4673
91167W        W34079  17.215  21.108  16.621 -0.1026  0.1461  0.1066
91168W        W34080  20.347  21.358  16.034  0.3941  0.1783  0.2078
91169W        W34081  20.870  21.170  17.069 -0.1849 -0.2246  0.0397
91170W        W34082  18.674  21.219  18.207 -0.0529 -0.0072  0.3566
91171W        W34083  19.287  20.228  15.816  0.0386 -0.2448  0.1253
91172W        W34084  19.408  21.679  17.352  0.0438 -0.1932 -0.1929
91173W        W34085  23.012  18.158  16.121 -0.1011 -0.2507 -0.0330
91174W        W34086  20.936  21.535  16.644 -0.1730 -0.1057 -0.4051
91175W        W34087  19.043  19.913  15.572  0.0841  0.1554  0.0592
91176W        W34088  21.279  19.904  17.602  0.1286 -0.2733  0.0102
91177W        W34089  20.041  20.613  15.070  0.0940 -0.0438  0.2373
91178W        W34090  21.521  18.067  17.611 -0.0473 -0.3251 -0.1152
91179W        W34091  20.351  20.313  18.093  0.0537 -0.0279 -0.0423
91180W        W34092  21.042  22.265  17.139 -0.3110  0.2042 -0.0381
91181W        W34093  18.008  21.231  17.003  0.0769  0.0830  0.1892
91182W        W34094  22.191  23.355  19.263  0.2579 -0.2018  0.0138
91183W        W34095  19.756  19.462  17.370  0.2156 -0.2248 -0.1194
91184W        W34096  20.488  19.774  15.301 -0.1303 -0.0232  0.1262
91185W        W34097  17.879  17.291  15.828 -0.2521 -0.1426  0.2844
91186W        W34098  20.727  21.645  17.945 -0.3921 -0.1232 -0.1994
91187W        W34099  22.389  20.501  17.374 -0.1215 -0.1089 -0.0926
91188W        W34100  20.854  19.997  16.281 -0.1825  0.0068 -0.1372
91189W        W34101  21.452  20.447  16.954 -0.0633  0.5608  0.0760
91190W        W34102  19.164  19.941  16.840 -0.0510  0.0890 -0.1452
91191W        W34103  21.945  20.132  15.654 -0.2085 -0.3552  0.2019
91192W        W34104  20.071  20.513  15.599  0.2553 -0.0343 -0.1068
91193W        W34105  21.444  20.910  17.251  0.1175 -0.1220 -0.0314
91194W        W34106  19.162  18.952  17.000 -0.3164 -0.0553 -0.0053
91195W        W34107  22.795  22.553  17.614 -0.2734 -0.1131 -0.0560
91196W        W34108  20.929  18.999  15.837  0.3390  0.1988 -0.0054
91197W        W34109  21.492  18.697  16.783  0.1323  0.1474 -0.0783
91198W        W34110  22.792  20.835  19.362  0.1931 -0.2388  0.3117
91199W        W34111  19.719  20.000  17.227  0.0491  0.0914  0.2927
91200W        W34112  18.266  19.641  17.417 -0.1749  0.0358  0.3037
91201W        W34113  21.492  23.083  19.139 -0.0992  0.2216 -0.0523
91202W        W34114  21.019  19.035  15.353  0.1208  0.0640 -0.1304
91203W        W34115  20.961  20.598  18.894  0.1887  0.1519 -0.1958
91204W        W34116  21.596  20.591  16.464 -0.1187  0.0541  0.1264
91205W        W34117  20.890  19.514  15.508 -0.3907 -0.1881  0.0056
91206W        W34118  19.974  20.607  16.059 -0.0326  0.0367 -0.0977
91207W        W34119  21.555  20.409  17.437  0.1804  0.1062 -0.1227
91208W        W34120  21.403  19.327  15.326 -0.0858  0.3011 -0.0633
91209W        W34121  21.130  18.340  17.783 -0.0849  0.0205 -0.2260
91210W        W34122  18.763  22.707  16.391  0.0927  0.0759 -0.1846
91211W        W34123  22.112  22.405  16.196  0.0371  0.0051 -0.1545
91212W        W34124  21.318  19.763  15.468 -0.0031  0.2635  0.1047
91213W        W34125  18.548  19.201  16.265 -0.0047  0.1366  0.1343
91214W        W34126  19.495  21.232  18.081 -0.0231 -0.0160 -0.0026
91215W        W34127  19.310  20.124  15.155  0.0990 -0.2771 -0.2603
91216W        W34128  18.978  21.167  16.008 -0.1787 -0.2586  0.0681
91217W        W34129  22.047  21.961  17.392 -0.2119  0.0636  0.1361
91218W        W34130  21.649  19.145  18.042 -0.2160  0.1493 -0.0824
91219W        W34131  19.648  18.384  14.914 -0.0672 -0.4869  0.4614
91220W        W34132  20.785  20.163  18.358  0.1139  0.3443 -0.0334
91221W        W34133  19.463  20.875  15.832  0.3706 -0.1041 -0.5771
91222W        W34134  19.594  18.717  15.401 -0.0129 -0.2167  0.0354
91223W        W34135  20.585  21.482  17.393 -0.0316  0.0510 -0.1299
91224W        W34136  18.772  21.087  17.757 -0.1817  0.1938  0.0549
91225W        W34137  21.159  22.569  16.431  0.2147 -0.1008  0.1192
91226W        W34138  19.914  19.467  16.890 -0.1275 -0.5850 -0.2903
91227W        W34139  21.244  21.094  16.725 -0.0910  0.0390 -0.1841
91228W        W34140  21.898  21.743  16.839  0.0348 -0.1576  0.4002
91229W        W34141  21.692  20.101  17.793 -0.2696 -0.0324  0.2390
91230W        W34142  21.962  21.376  17.854 -0.0857 -0.1664 -0.1192
91231W        W34143  20.017  20.058  15.781  0.0861  0.1145 -0.3132
91232W        W34144  20.795  23.910  19.075  0.0852  0.0491  0.0172
91233W        W34145  21.408  21.587  16.376  0.1029  0.0414  0.1849
91234W        W34146  19.698  21.393  17.617  0.0749  0.4135  0.4001
91235W        W34147  19.066  20.965  18.175  0.1771  0.0864  0.0171
91236W        W34148  21.090  20.303  17.320  0.2316 -0.1924  0.3381
91237W        W34149  21.389  22.554  16.922 -0.0064  0.1045  0.2059
91238W        W34150  18.408  18.631  15.221  0.4701  0.3275  0.1227
91239W        W34151  19.422  21.001  15.275  0.2683 -0.1581 -0.2876
91240W        W34152  19.707  22.708  18.236  0.4195  0.0919  0.0120
91241W        W34153  20.431  20.424  16.027 -0.2052 -0.1444  0.1251
91242W        W34154  19.210  23.173  17.557 -0.3489  0.1997  0.0864
91243W        W34155  22.071  22.636  17.755 -0.0132  0.0312  0.0272
91244W        W34156  21.244  20.805  15.180 -0.4126 -0.2324 -0.1364
91245W        W34157  22.052  23.063  18.072 -0.0583  0.3126  0.1115
91246W        W34158  20.784  18.473  15.710  0.1438 -0.4675  0.1881
91247W        W34159  19.378  21.923  16.798  0.1454  0.1413 -0.4585
91248W        W34160  17.626  21.355  16.293 -0.3863  0.3338  0.0617
91249W        W34161  19.503  22.961  15.638  0.1132  0.1431 -0.1171
91250W        W34162  19.669  22.856  16.284  0.0909  0.0264  0.1681
91251W        W34163  22.012  22.117  19.893 -0.3352 -0.0118  0.0971
91252W        W34164  21.359  18.702  15.521  0.2080 -0.2484 -0.2657
91253W        W34165  21.672  19.998  16.612  0.3674  0.4594  0.0878
91254W        W34166  22.829  19.819  16.766 -0.0952 -0.1051  0.1810
91255W        W34167  21.948  23.033  18.901  0.1123  0.0836 -0.0513
91256W        W34168  19.994  21.541  17.186 -0.4622 -0.1018 -0.1718
91257W        W34169  20.541  16.251  16.496  0.4535 -0.0730 -0.3910
91258W        W34170  20.085  20.721  17.494  0.2821 -0.1639  0.1245
91259W        W34171  22.188  17.948  19.300 -0.0195  0.0386 -0.1565
91260W        W34172  18.871  22.015  17.840 -0.2082 -0.1881  0.0865
91261W        W34173  20.277  21.786  15.664  0.1659  0.2404 -0.1020
91262W        W34174  18.916  19.450  16.999 -0.0978  0.1659  0.2749
91263W        W34175  19.980  19.611  16.069 -0.1213 -0.0502  0.2753
91264W        W34176  22.363  17.520  16.982 -0.0950 -0.0368 -0.1994
91265W        W34177  20.105  21.081  15.135  0.0158  0.1037 -0.1241
91266W        W34178  21.193  19.214  16.768 -0.2623 -0.0242 -0.0569
91267W        W34179  20.853  24.017  17.025 -0.2027 -0.4975 -0.0738
91268W        W34180  20.027  23.614  18.120 -0.3815  0.0340  0.3197
91269W        W34181  21.247  22.002  17.964  0.0169 -0.1083  0.3375
91270W        W34182  19.104  18.708  15.190 -0.0761 -0.1515  0.2923
91271W        W34183  23.025  21.164  17.974  0.3010 -0.0446 -0.2961
91272W        W34184  21.191  21.442  18.525 -0.0437  0.0634 -0.0229
91273W        W34185  21.458  19.638  17.957  0.0730 -0.1747 -0.2707
91274W        W34186  19.969  19.846  16.560 -0.1160 -0.1948  0.1684
91275W        W34187  21.482  20.243  15.785  0.1129  0.0847 -0.1569
91276W        W34188  22.837  21.504  18.320  0.1772 -0.0512 -0.0087
91277W        W34189  19.464  19.862  17.907  0.3233 -0.0454 -0.1027
91278W        W34190  20.674  19.615  14.783 -0.0403  0.0574  0.3593
91279W        W34191  22.522  20.246  18.557 -0.0351 -0.0039  0.0206
91280W        W34192  21.854  18.829  15.489  0.0231 -0.1829 -0.1314
91281W        W34193  20.923  22.882  19.268 -0.2544 -0.6080  0.1360
91282W        W34194  20.176  19.904  17.062 -0.3364 -0.5057  0.0846
91283W        W34195  20.532  18.937  14.279 -0.2029 -0.0840  0.1750
91284W        W34196  20.839  19.215  17.250 -0.1281  0.1418  0.1785
91285W        W34197  20.799  20.193  17.781 -0.2415  0.1070  0.0817
91286W        W34198  22.906  22.645  19.699  0.3634 -0.0145  0.0168
91287W        W34199  18.727  18.314  15.984 -0.1323  0.3175 -0.1420
91288W        W34200  22.212  19.319  15.545  0.3126 -0.1912 -0.0029
91289W        W34201  21.785  21.463  17.320 -0.0585  0.0221  0.0121
91290W        W34202  19.000  22.240  15.727  0.0219  0.2927 -0.0481
91291W        W34203  21.633  21.109  16.141 -0.1133 -0.1932  0.2029
91292W        W34204  21.151  22.430  18.344 -0.0275 -0.0753 -0.0969
91293W        W34205  18.599  20.247  17.570 -0.5099  0.0508 -0.3587
91294W        W34206  21.227  22.397  17.625  0.2499 -0.0340 -0.1735
91295W        W34207  22.285  22.901  17.032  0.0900 -0.2662 -0.2424
91296W        W34208  20.325  19.384  14.428 -0.0232  0.1151 -0.3762
91297W        W34209  20.692  20.073  17.060  0.3352  0.0297 -0.1160
91298W        W34210  17.932  21.720  16.914  0.0724 -0.1350  0.0282
91299W        W34211  21.888  18.594  16.489  0.1037  0.1616 -0.1365
91300W        W34212  20.479  19.873  16.653 -0.0404  0.0547 -0.1738
91301W        W34213  19.491  21.254  16.186 -0.0016 -0.1863 -0.2125
91302W        W34214  21.865  18.277  18.606 -0.1449 -0.0421 -0.3361
91303W        W34215  21.809  22.802  18.520  0.0476 -0.2094 -0.4422
91304W        W34216  21.716  22.640  19.178  0.0215  0.4379  0.1431
91305W        W34217  17.565  20.971  15.550 -0.1263 -0.1073 -0.0568
91306W        W34218  21.178  20.981  18.009  0.0911 -0.1063  0.2597
91307W        W34219  19.848  21.542  15.816  0.0927 -0.2006  0.3125
91308W        W34220  19.423  21.440  16.626 -0.1349 -0.1127  0.3267
91309W        W34221  22.021  22.405  18.209 -0.0712  0.1321 -0.0562
91310W        W34222  20.340  19.939  16.171  0.1138  0.1537 -0.1841
91311W        W34223  22.794  22.209  17.103  0.1358  0.4534 -0.3167
91312W        W34224  19.305  17.340  15.962 -0.1359  0.5023 -0.1994
91313W        W34225  21.515  19.772  15.971 -0.0513  0.0083  0.0637
91314W        W34226  21.622  19.530  16.829  0.0300  0.1045 -0.0631
91315W        W34227  19.903  21.048  17.882 -0.2935  0.2571 -0.0951
91316W        W34228  17.767  19.175  14.774  0.1090  0.0535 -0.1746
91317W        W34229  19.576  20.484  15.309 -0.1464  0.0067  0.3026
91318W        W34230  20.063  21.336  16.487  0.0473  0.2633  0.0171
91319W        W34231  20.650  19.195  17.721  0.4550 -0.0567  0.0791
91320W        W34232  18.143  20.041  17.682  0.1079  0.2057 -0.0480
91321W        W34233  18.612  20.617  17.118 -0.2247 -0.2855  0.3040
91322W        W34234  17.907  18.529  16.196  0.1490  0.0550  0.0382
91323W        W34235  20.247  22.528  16.122 -0.1608  0.2812 -0.1609
91324W        W34236  20.811  19.448  16.546 -0.1951 -0.0938  0.2763
91325W        W34237  18.348  17.400  15.803 -0.2544  0.0019  0.3601
91326W        W34238  19.887  23.154  15.917 -0.1293 -0.0558 -0.0592
91327W        W34239  18.978  22.104  16.215  0.0683  0.1217 -0.1266
91328W        W34240  18.329  18.165  15.487  0.0939 -0.0016 -0.2343
91329W        W34241  21.683  24.030  19.487 -0.1774 -0.0152 -0.1442
91330W        W34242  17.853  21.274  15.808  0.2981  0.1787  0.3192
91331W        W34243  20.286  18.767  17.844  0.0904 -0.0443  0.2708
91332W        W34244  19.916  19.556  15.542  0.3326 -0.1195 -0.0162
91333W        W34245  19.035  19.230  15.055  0.3356  0.2262 -0.1499
91334W        W34246  21.109  19.485  16.142 -0.2943 -0.0392 -0.0282
91335W        W34247  20.464  21.832  16.097 -0.5549 -0.2907 -0.0853
91336W        W34248  20.131  22.926  15.548 -0.1308  0.0501 -0.2707
91337W        W34249  20.781  21.158  17.747  0.0376  0.0509  0.0829
91338W        W34250  21.296  22.655  18.866 -0.2577  0.0022  0.1108
91339W        W34251  20.059  18.628  16.267 -0.1014  0.3300  0.0616
91340W        W34252  20.925  21.687  16.174 -0.3222 -0.2560 -0.0428
91341W        W34253  21.327  20.994  18.657 -0.1660  0.4039 -0.1435
91342W        W34254  21.716  21.043  15.239 -0.0006  0.2326  0.1087
91343W        W34255  22.434  20.245  16.954  0.1260 -0.3026  0.0511
91344W        W34256  19.633  19.958  15.522  0.2414 -0.0114 -0.1260
91345W        W34257  18.700  18.293  16.512  0.0837 -0.3148  0.0246
91346W        W34258  20.733  21.218  18.229 -0.0891 -0.0619  0.3354
91347W        W34259  23.435  21.484  19.674 -0.0069 -0.2990 -0.0269
91348W        W34260  18.742  18.930  15.417 -0.0070 -0.1564 -0.2805
91349W        W34261  21.845  20.650  16.038  0.1252  0.3006  0.1615
91350W        W34262  20.831  20.903  15.489  0.0018  0.0017  0.1418
91351W        W34263  20.929  20.771  16.511  0.1234  0.1453  0.1975
91352W        W34264  19.651  19.197  15.327 -0.2312 -0.0555  0.1436
91353W        W34265  22.045  19.929  16.937  0.0324  0.0260  0.1744
91354W        W34266  20.198  22.653  17.146  0.0621  0.1423 -0.0309
91355W        W34267  22.253  19.834  18.359  0.1167 -0.1938  0.1885
91356W        W34268  19.140  18.621  15.886  0.0890  0.1703  0.1090
91357W        W34269  21.778  19.855  15.137  0.0882 -0.2282  0.1547
91358W        W34270  20.905  23.101  18.800  0.1785 -0.3755 -0.0853
91359W        W34271  21.543  22.241  19.954  0.0312 -0.1256 -0.0293
91360W        W34272  20.737  22.044  17.486  0.1910  0.1979  0.0647
91361W        W34273  22.487  21.063  17.289 -0.3415 -0.1021  0.3335
91362W        W34274  18.631  18.776  15.858 -0.1278 -0.1508 -0.0303
91363W        W34275  19.846  21.485  15.294  0.1772 -0.2828 -0.1879
91364W        W34276  20.370  21.267  16.878 -0.0588  0.0367 -0.1864
91365W        W34277  21.065  19.903  15.888 -0.0277  0.2539  0.1006
91366W        W34278  18.790  19.551  15.999 -0.0515 -0.0962 -0.4022
91367W        W34279  21.236  18.213  15.617  0.2543 -0.0774 -0.0326
91368W        W34280  20.769  22.574  17.636  0.0038 -0.0800 -0.1312
91369W        W34281  19.410  21.995  17.797  0.1079 -0.1753 -0.1175
91370W        W34282  20.397  21.271  20.773 -0.1113 -0.1630  0.0915
91371W        W34283  20.532  22.501  19.424  0.0798 -0.1825 -0.0513
91372W        W34284  23.331  18.980  20.171 -0.1617  0.1044 -0.0964
91373W        W34285  21.807  20.560  19.391 -0.0548  0.0171 -0.2393
91374W        W34286  19.828  18.835  17.627 -0.3297 -0.1754  0.0159
91375W        W34287  22.451  21.489  19.730 -0.1600 -0.1582  0.1992
91376W        W34288  20.140  18.063  20.555  0.0822  0.1794 -0.1031
91377W        W34289  21.446  22.044  21.129 -0.0970 -0.0066  0.1167
91378W        W34290  22.106  22.597  21.708  0.3209  0.1607  0.0394
91379W        W34291  20.430  20.799  17.862 -0.1919 -0.1028 -0.2167
91380W        W34292  20.874  20.015  20.445  0.0796  0.2490 -0.0207
91381W        W34293  20.721  20.431  21.838 -0.1286  0.1823  0.3095
91382W        W34294  21.111  18.345  18.732 -0.2318 -0.1754  0.2975
91383W        W34295  18.846  18.721  18.423  0.2250  0.1242 -0.0904
91384W        W34296  21.727  20.804  20.989 -0.5877 -0.1036 -0.0565
91385W        W34297  19.590  21.705  18.309  0.2647 -0.0218  0.0141
91386W        W34298  19.524  19.946  19.329 -0.4214  0.3389  0.1427
91387W        W34299  20.659  18.159  18.873 -0.0585 -0.1111 -0.0911
91388W        W34300  21.728  20.240  19.774  0.1945  0.1786 -0.0045
91389W        W34301  20.634  19.825  20.045  0.0351 -0.0140  0.0340
91390W        W34302  22.285  18.551  21.164  0.1585 -0.1060 -0.1204
91391W        W34303  21.654  20.894  20.114  0.3273  0.2087  0.2682
91392W        W34304  18.994  20.681  17.553 -0.0738 -0.1816 -0.1484
91393W        W34305  16.697  22.838  19.860 -0.2224 -0.0269  0.2454
91394W        W34306  18.757  20.688  18.825  0.0332  0.0581 -0.2122
91395W        W34307  22.632  20.146  20.712  0.1362 -0.4006  0.1739
91396W        W34308  21.805  20.191  20.605 -0.0314  0.0438  0.0232
91397W        W34309  21.660  22.215  19.499 -0.0134  0.0541  0.2542
91398W        W34310  20.973  22.171  21.947 -0.1121 -0.0652  0.3412
91399W        W34311  21.511  19.923  22.411  0.1532  0.0466 -0.0257
91400W        W34312  18.249  20.646  18.947 -0.1307 -0.0934 -0.1811
91401W        W34313  17.748  22.350  19.042 -0.0039  0.0025  0.0866
91402W        W34314  21.104  21.974  20.700  0.1638  0.1428  0.1842
91403W        W34315  22.008  21.265  19.814  0.0745  0.1146  0.3170
91404W        W34316  21.837  20.856  23.028  0.0336  0.0322  0.1701
91405W        W34317  20.304  21.452  21.974 -0.1475  0.2903  0.0043
91406W        W34318  18.714  22.045  18.746  0.0414 -0.0263 -0.2531
91407W        W34319  19.865  22.964  21.589 -0.3056 -0.3968  0.3051
91408W        W34320  19.581  20.977  19.473 -0.1019 -0.1910  0.2303
91409W        W34321  20.810  20.762  19.469 -0.1703 -0.0476  0.1193
91410W        W34322  20.569  19.396  18.829 -0.0550 -0.2799 -0.0027
91411W        W34323  22.108  21.830  17.942  0.0064 -0.1408  0.1221
91412W        W34324  21.223  21.548  20.929 -0.1913  0.0707 -0.1566
91413W        W34325  17.561  21.141  19.381  0.1153 -0.1508  0.0069
91414W        W34326  21.156  17.144  21.713 -0.1616  0.3160 -0.1025
91415W        W34327  20.272  22.256  18.884  0.1763 -0.2587  0.0259
91416W        W34328  21.839  19.672  19.315 -0.3292  0.1760 -0.2171
91417W        W34329  19.854  20.496  17.913 -0.1026  0.0227 -0.1445
91418W        W34330  22.900  19.207  20.529  0.1773  0.0720  0.3379
91419W        W34331  21.350  18.702  18.024 -0.0691 -0.0995 -0.0684
91420W        W34332  19.099  22.351  19.702  0.4188 -0.2679 -0.1048
91421W        W34333  20.477  18.927  19.517  0.1304 -0.1657 -0.1624
91422W        W34334  21.069  20.044  21.359  0.0466  0.0993 -0.1228
91423W        W34335  19.839  20.047  18.204  0.1370  0.0677  0.0061
91424W        W34336  21.947  19.207  20.964 -0.0246  0.1372  0.3012
91425W        W34337  18.459  21.604  19.229 -0.3139  0.1258  0.1893
91426W        W34338  18.616  20.636  17.917  0.0975  0.1624  0.2393
91427W        W34339  22.312  20.994  20.159  0.1893  0.1041 -0.0220
91428W        W34340  22.115  22.425  19.509 -0.0991  0.0621 -0.1321
91429W        W34341  21.244  21.926  19.362 -0.0963  0.2010 -0.2258
91430W        W34342  19.808  20.169  18.909 -0.2465 -0.0549  0.1055
91431W        W34343  19.040  20.204  17.775 -0.1127  0.2024  0.1189
91432W        W34344  20.839  20.147  22.259  0.0444  0.2262 -0.1115
91433W        W34345  19.108  21.696  19.813  0.0115  0.1469  0.0252
91434W        W34346  23.866  21.290  19.963 -0.2127  0.0449  0.2660
91435W        W34347  20.384  20.613  19.762 -0.1735  0.1240 -0.0004
91436W        W34348  22.131  23.231  21.178 -0.0596  0.2920  0.2481
91437W        W34349  22.337  21.750  20.421 -0.0201 -0.1261 -0.1514
91438W        W34350  22.313  20.526  19.427 -0.4107  0.1981 -0.1095
91439W        W34351  21.254  18.140  20.020 -0.0269 -0.0804  0.0339
91440W        W34352  19.880  21.754  17.913 -0.0769 -0.2266 -0.0596
91441W        W34353  20.564  20.688  18.547  0.0515  0.2042  0.1987
91442W        W34354  22.089  20.750  21.923  0.2225  0.1592 -0.2753
91443W        W34355  22.899  19.098  20.042 -0.0282 -0.1103 -0.2589
91444W        W34356  19.325  22.816  19.788 -0.1576  0.1263 -0.0648
91445W        W34357  20.666  18.772  20.941 -0.1560 -0.1278  0.0165
91446W        W34358  20.665  19.950  20.984  0.1577 -0.0828  0.2817
91447W        W34359  20.232  22.022  17.096  0.1420 -0.2101  0.1652
91448W        W34360  18.908  21.186  18.958  0.1705 -0.1388 -0.1831
91449W        W34361  19.955  21.247  18.316 -0.1594 -0.1241  0.0187
91450W        W34362  18.521  18.335  19.458  0.0465  0.2827 -0.1600
91451W        W34363  19.264  21.384  19.375  0.1502 -0.0197  0.2388
91452W        W34364  22.577  19.658  20.334 -0.1310  0.1533 -0.0396
91453W        W34365  21.806  18.800  18.804  0.0228  0.0073 -0.2529
91454W        W34366  19.063  21.485  18.537  0.1748  0.3665  0.1885
91455W        W34367  23.547  23.288  21.606 -0.1509  0.0576  0.1109
91456W        W34368  22.933  20.547  20.772 -0.0793 -0.3779 -0.2293
91457W        W34369  21.580  21.257  18.160 -0.1295 -0.2697  0.1960
91458W        W34370  20.151  20.754  18.256 -0.3168 -0.0910 -0.2760
91459W        W34371  20.042  18.416  20.168  0.0697 -0.0150 -0.2888
91460W        W34372  19.416  18.945  19.124 -0.0307 -0.1767 -0.0485
91461W        W34373  22.659  19.968  21.346 -0.1129 -0.2067 -0.1905
91462W        W34374  19.899  19.550  18.150  0.2922  0.2328 -0.1957
91463W        W34375  21.971  19.651  19.776 -0.1682  0.0450  0.2232
91464W        W34376  20.097  20.647  18.793 -0.1990  0.5396 -0.2019
91465W        W34377  17.456  20.941  18.644  0.2009 -0.1776  0.1097
91466W        W34378  22.319  19.017  21.284 -0.0710 -0.0871 -0.5814
91467W        W34379  22.131  21.682  18.812 -0.1394 -0.1317 -0.2545
91468W        W34380  21.933  22.168  22.008  0.0602  0.1817  0.2384
91469W        W34381  20.152  21.511  20.434  0.1737  0.1798  0.0501
91470W        W34382  19.335  19.527  20.104 -0.3967 -0.1408  0.1870
91471W        W34383  19.416  19.629  18.349  0.0024  0.1325  0.3413
91472W        W34384  20.270  22.117  20.409  0.1115 -0.1605 -0.0042
91473W        W34385  21.256  20.498  19.383  0.3757 -0.3240  0.1451
91474W        W34386  21.307  19.474  17.378 -0.4634 -0.0315  0.0759
91475W        W34387  22.856  22.862  20.996 -0.0236 -0.0568 -0.0022
91476W        W34388  21.013  20.098  19.182  0.2741 -0.0658  0.0636
91477W        W34389  19.381  21.609  20.544 -0.2160  0.2295  0.1533
91478W        W34390  22.606  18.146  21.299  0.1102  0.1299  0.2987
91479W        W34391  22.063  21.074  21.515  0.1604  0.1882 -0.0377
91480W        W34392  21.014  21.298  19.905  0.1791  0.1845  0.1058
91481W        W34393  19.264  19.318  17.384  0.1968  0.2058 -0.0384
91482W        W34394  21.417  22.969  20.727 -0.0305 -0.0043  0.1293
91483W        W34395  19.636  22.243  18.863 -0.1246  0.1423 -0.1315
91484W        W34396  17.216  20.888  19.119 -0.3570  0.0682  0.0067
91485W        W34397  20.076  21.720  20.014 -0.0101 -0.1218 -0.2423
91486W        W34398  21.092  17.653  20.266  0.2019  0.1007 -0.0463
91487W        W34399  22.713  18.668  21.470  0.1265  0.1943 -0.2168
91488W        W34400  21.103  21.552  20.407  0.2085 -0.2619  0.1541
91489W        W34401  19.730  21.364  20.177 -0.1196  0.2077  0.0174
91490W        W34402  21.117  19.375  18.785 -0.0802 -0.0190  0.2448
91491W        W34403  22.674  19.748  18.704 -0.0211  0.0867  0.0248
91492W        W34404  20.910  19.253  20.947 -0.0545 -0.1019  0.2286
91493W        W34405  21.701  21.582  20.814 -0.0640  0.0475  0.1180
91494W        W34406  21.294  19.662  19.290  0.1094 -0.1172  0.1841
91495W        W34407  20.743  18.799  18.753  0.1046  0.1593 -0.1563
91496W        W34408  18.622  21.120  19.937 -0.2671  0.0064 -0.1959
91497W        W34409  22.581  22.472  19.348 -0.0798  0.0389 -0.3954
91498W        W34410  19.634  20.657  18.935 -0.0875  0.1110 -0.1644
91499W        W34411  21.188  19.245  17.948  0.2912 -0.0907  0.1210
91500W        W34412  22.985  22.100  20.906 -0.0233  0.0516  0.3810
91501W        W34413  18.092  21.464  18.936 -0.0292 -0.1584 -0.0050
91502W        W34414  20.163  20.546  22.288 -0.0507 -0.1997 -0.0583
91503W        W34415  22.378  22.577  20.834 -0.1706 -0.0745 -0.1141
91504W        W34416  20.303  21.381  19.214 -0.3654  0.2424  0.3979
91505W        W34417  20.331  21.311  17.959  0.1753  0.2469 -0.4106
91506W        W34418  20.349  18.452  19.747 -0.0014 -0.0999 -0.0447
91507W        W34419  19.080  21.524  18.051 -0.0086  0.2918 -0.3420
91508W        W34420  21.319  19.139  20.470  0.0267  0.4366  0.0725
91509W        W34421  20.884  18.881  20.447 -0.2598 -0.2814  0.1929
91510W        W34422  20.645  17.927  20.487  0.1201 -0.0379 -0.1172
91511W        W34423  22.453  18.944  22.453  0.2582 -0.2143 -0.0296
91512W        W34424  21.256  22.181  18.876  0.0528 -0.1478  0.1407
91513W        W34425  20.620  21.349  20.265 -0.0477 -0.0451  0.3639
91514W        W34426  20.261  19.575  17.407  0.2994 -0.0003 -0.0130
91515W        W34427  21.268  19.524  21.289 -0.3067 -0.2926  0.0394
91516W        W34428  19.429  22.093  20.592 -0.3313  0.1861  0.1357
91517W        W34429  21.609  21.447  22.262  0.2766 -0.1794 -0.1535
91518W        W34430  22.112  21.458  18.326 -0.1911 -0.1105  0.4917
91519W        W34431  21.113  19.723  20.869 -0.1038  0.0341  0.1003
91520W        W34432  21.024  17.884  17.509  0.1010 -0.1618  0.1774
91521W        W34433  20.813  21.128  18.694 -0.1573 -0.1085 -0.3087
91522W        W34434  21.474  21.392  20.100  0.0954  0.1803 -0.0495
91523W        W34435  20.111  18.259  19.329 -0.0337  0.0057 -0.0467
91524W        W34436  21.509  22.357  20.609 -0.0830 -0.0957 -0.1492
91525W        W34437  20.239  21.759  18.281  0.0255  0.1219  0.0185
91526W        W34438  20.315  20.597  20.266  0.0800  0.2152 -0.0283
91527W        W34439  20.528  23.066  20.118 -0.3869 -0.3530  0.2848
91528W        W34440  21.149  18.592  20.137  0.2387  0.0128  0.0814
91529W        W34441  17.729  22.518  19.847  0.0725  0.2645 -0.2671
91530W        W34442  19.432  18.397  17.597 -0.1188 -0.2756  0.0772
91531W        W34443  18.474  20.728  18.375 -0.2390  0.3025  0.0048
91532W        W34444  20.931  18.795  19.638 -0.2402  0.1282 -0.1638
91533W        W34445  23.687  22.233  18.760  0.1234  0.0266  0.1086
91534W        W34446  21.489  18.885  19.490  0.3342 -0.1626  0.1377
91535W        W34447  18.627  21.645  20.108  0.1809  0.0113  0.0403
91536W        W34448  21.637  19.926  21.119  0.0343  0.5604  0.0475
91537W        W34449  22.406  19.442  19.872  0.0802 -0.2552 -0.2537
91538W        W34450  20.734  21.881  20.234  0.2653  0.2866 -0.1256
91539W        W34451  18.849  20.428  18.282 -0.2000  0.0049 -0.0715
91540W        W34452  21.453  19.495  22.088 -0.0996 -0.2485 -0.1372
91541W        W34453  21.596  19.430  20.101 -0.2589 -0.1808 -0.0190
91542W        W34454  19.063  22.283  19.030 -0.1867  0.0703 -0.2105
91543W        W34455  22.235  22.686  20.329 -0.1242  0.1119 -0.0819
91544W        W34456  19.942  21.177  18.825 -0.2414 -0.1027 -0.0014
91545W        W34457  17.749  20.361  18.067 -0.0917  0.1355 -0.1232
91546W        W34458  22.932  20.214  22.588  0.3024  0.3095 -0.1880
91547W        W34459  20.633  20.268  19.472 -0.0052  0.2086  0.0309
91548W        W34460  19.532  19.286  17.920  0.1567  0.2761  0.4566
91549W        W34461  20.107  19.315  18.613  0.0863  0.1304 -0.1148
91550W        W34462  20.879  19.468  20.524 -0.1201  0.1240 -0.2813
91551W        W34463  21.132  18.591  21.296  0.0910  0.2628  0.1746
91552W        W34464  20.246  21.045  20.083  0.0299  0.2857  0.0884
91553W        W34465  20.194  19.638  20.020 -0.1825 -0.0143 -0.0757
91554W        W34466  22.445  21.973  20.824 -0.1070 -0.2623 -0.1115
91555W        W34467  22.047  21.618  22.428 -0.1200  0.1112  0.0644
91556W        W34468  19.365  21.864  19.410  0.0386  0.2940 -0.0790
91557W        W34469  18.203  21.709  18.366 -0.0444  0.1715 -0.1620
91558W        W34470  20.513  20.954  19.170 -0.2345 -0.0547  0.1481
91559W        W34471  20.244  19.880  19.002 -0.1072  0.1100  0.3309
91560W        W34472  20.401  22.165  19.864  0.0436  0.0176  0.2032
91561W        W34473  19.471  21.784  18.887  0.2418 -0.0738 -0.2739
91562W        W34474  20.845  22.884  20.510 -0.0553 -0.0483 -0.0267
91563W        W34475  23.062  19.629  20.271  0.3235 -0.1679  0.2510
91564W        W34476  22.517  23.143  18.463  0.2105 -0.2578 -0.4132
91565W        W34477  20.273  19.136  19.092  0.0824 -0.0206  0.2912
91566W        W34478  23.238  18.724  22.206 -0.2817 -0.1004  0.0844
91567W        W34479  21.323  21.440  19.528  0.0701  0.1127 -0.1050
91568W        W34480  22.072  18.099  21.298  0.1502  0.1973  0.1213
91569W        W34481  21.686  23.050  20.189  0.1798 -0.1157 -0.0195
91570W        W34482  20.194  21.890  22.806 -0.2728  0.1735 -0.0619
91571W        W34483  20.812  19.190  18.362  0.2251  0.1215 -0.1895
91572W        W34484  19.417  20.122  18.569  0.1050 -0.1551  0.1163
91573W        W34485  19.739  21.458  19.203 -0.1678  0.0701  0.1508
91574W        W34486  23.211  22.847  22.389  0.1315  0.0631  0.1119
91575W        W34487  21.494  20.531  18.945 -0.1405 -0.2834  0.0019
91576W        W34488  22.244  19.993  20.453  0.0217 -0.0124  0.1320
91577W        W34489  21.864  22.616  20.014 -0.1114  0.4629  0.0679
91578W        W34490  20.707  20.897  19.987 -0.1079  0.0360  0.1534
91579W        W34491  20.843  19.799  18.793  0.2033 -0.1672  0.2398
91580W        W34492  19.887  21.924  19.156  0.0107 -0.1725  0.0545
91581W        W34493  20.263  19.485  19.482 -0.2150 -0.1810  0.1172
91582W        W34494  21.221  20.196  20.829  0.1094  0.0282  0.1058
91583W        W34495  22.848  20.196  20.197  0.3139  0.1897  0.2812
91584W        W34496  21.771  19.471  21.351 -0.1800 -0.0961  0.0090
91585W        W34497  21.160  20.586  22.194  0.0080  0.1413  0.2010
91586W        W34498  20.692  19.408  19.775  0.0827 -0.1079  0.3146
91587W        W34499  20.990  23.732  21.905 -0.0769 -0.1960  0.3494
91588W        W34500  24.110  20.468  19.689  0.4294  0.1563  0.0409
91589W        W34501  21.841  16.858  20.952 -0.2286  0.3487 -0.2850
91590W        W34502  22.213  20.423  20.903  0.0160  0.2884  0.0987
91591W        W34503  21.813  19.553  18.403 -0.2723 -0.2612  0.1107
91592W        W34504  19.589  19.189  18.416 -0.0273  0.0677 -0.2307
91593W        W34505  22.942  21.323  24.069  0.0550 -0.0290  0.2202
91594W        W34506  19.625  19.484  16.455 -0.0468 -0.1553  0.0173
91595W        W34507  21.475  19.245  21.668 -0.3427  0.0773 -0.1992
91596W        W34508  20.774  22.321  18.976 -0.1709 -0.2897  0.0092
91597W        W34509  20.694  20.326  20.044 -0.0739 -0.0378 -0.0452
91598W        W34510  21.614  19.618  18.822  0.0413 -0.2505 -0.0223
91599W        W34511  17.199  20.382  19.339  0.0634 -0.2182  0.1142
91600W        W34512  20.985  20.924  21.908  0.2237 -0.0928  0.1934
91601W        W34513  20.345  21.274  18.564 -0.3361 -0.2499 -0.0706
91602W        W34514  22.369  20.993  19.063  0.1943  0.0017  0.0352
91603W        W34515  20.673  20.851  20.479  0.0335  0.2715  0.1748
91604W        W34516  22.822  22.150  23.019  0.2115 -0.1177  0.0101
91605W        W34517  22.570  17.147  17.805  0.0253  0.2937  0.0426
91606W        W34518  22.412  20.463  22.167 -0.0626  0.1550 -0.0239
91607W        W34519  17.931  22.524  18.132  0.0983 -0.1556  0.2618
91608W        W34520  21.249  18.447  19.623  0.0059  0.0311  0.1511
91609W        W34521  19.782  22.833  20.176 -0.2268 -0.2633 -0.2640
91610W        W34522  17.792  21.179  19.824  0.0702  0.0006  0.1237
91611W        W34523  18.857  21.962  19.478  0.0236  0.1104 -0.1277
91612W        W34524  22.751  18.533  20.995 -0.0787  0.3077 -0.2276
91613W        W34525  21.474  19.737  19.752 -0.0628 -0.0767  0.0105
91614W        W34526  22.783  19.797  19.861 -0.2085 -0.0582  0.1374
91615W        W34527  22.596  21.275  21.267 -0.1058 -0.0291 -0.3120
91616W        W34528  20.822  21.873  21.535 -0.0791 -0.1055 -0.1406
91617W        W34529  20.936  21.199  19.186 -0.3205  0.0250 -0.0907
91618W        W34530  21.067  22.902  21.125  0.0609  0.1055 -0.1242
91619W        W34531  21.863  21.721  21.881 -0.2370 -0.4809  0.1400
91620W        W34532  21.307  22.696  20.127 -0.2445  0.0479  0.0925
91621W        W34533  18.862  19.358  19.796 -0.1310 -0.4241 -0.1081
91622W        W34534  21.339  20.168  21.954  0.3297  0.0360 -0.1972
91623W        W34535  23.064  20.847  20.329  0.2085 -0.0899  0.0188
91624W        W34536  19.915  18.945  18.132 -0.0169 -0.0590  0.0782
91625W        W34537  22.148  21.854  19.500 -0.2928 -0.0415 -0.0374
91626W        W34538  20.919  22.216  19.691  0.1334 -0.2284 -0.1172
91627W        W34539  21.798  20.979  19.034  0.0730 -0.0475 -0.2953
91628W        W34540  21.848  22.143  19.015  0.0605  0.1184  0.3176
91629W        W34541  20.162  22.366  22.185  0.1799  0.1279  0.1346
91630W        W34542  20.062  19.242  17.766  0.2450 -0.0035  0.0600
91631W        W34543  19.896  22.594  19.118  0.1682 -0.3579  0.0524
91632W        W34544  18.841  22.752  18.052  0.1023 -0.1252 -0.1805
91633W        W34545  21.554  20.107  19.324 -0.2278 -0.0359 -0.0487
91634W        W34546  18.493  23.255  19.661  0.3282  0.1113  0.1152
91635W        W34547  20.909  21.208  20.801  0.1098  0.3035  0.0662
91636W        W34548  21.450  18.614  18.520  0.1466 -0.0781  0.4871
91637W        W34549  22.203  19.926  21.022 -0.0754 -0.1757 -0.2109
91638W        W34550  24.027  19.975  19.888  0.1519 -0.0548  0.1144
91639W        W34551  20.471  20.688  20.882  0.1445 -0.0718 -0.0029
91640W        W34552  20.239  20.022  19.604 -0.2181 -0.1824  0.0183
91641W        W34553  21.286  19.765  18.458 -0.0714 -0.1340  0.0791
91642W        W34554  22.588  18.968  22.925 -0.1249 -0.0397 -0.1391
91643W        W34555  19.564  21.829  20.123 -0.1405  0.1511 -0.0348
91644W        W34556  22.503  22.932  19.510  0.3956  0.1949 -0.2544
91645W        W34557  19.902  19.798  18.599 -0.2770  0.1039 -0.1561
91646W        W34558  19.281  20.314  19.019  0.0718  0.0586  0.2644
91647W        W34559  21.977  18.218  20.422  0.1240  0.0180 -0.4179
91648W        W34560  20.759  21.673  18.478 -0.1298 -0.2861  0.1807
91649W        W34561  21.835  19.702  20.677  0.0737  0.2441  0.0351
91650W        W34562  20.201  21.879  20.944 -0.1226  0.0889 -0.2045
91651W        W34563  19.408  21.211  18.829  0.1636 -0.2126 -0.0259
91652W        W34564  20.181  22.445  20.820  0.0385  0.1209 -0.2826
91653W        W34565  18.354  18.904  17.955  0.0554  0.0736 -0.3274
91654W        W34566  20.550  18.821  20.072  0.1012 -0.0274 -0.4083
91655W        W34567  22.345  18.205  20.756  0.0352 -0.0410  0.2248
91656W        W34568  20.245  20.159  18.531  0.1350 -0.1414 -0.5018
91657W        W34569  22.416  20.973  19.675  0.1319 -0.0195 -0.0018
91658W        W34570  20.156  20.419  19.317  0.0430  0.4183  0.1716
91659W        W34571  19.483  20.444  19.478  0.0070 -0.0917 -0.1281
91660W        W34572  21.207  20.142  18.084  0.3919  0.0080 -0.1819
91661W        W34573  21.545  19.755  21.644 -0.3185 -0.1857  0.0102
91662W        W34574  21.982  20.498  17.729  0.3809 -0.0292 -0.1589
91663W        W34575  22.491  22.026  22.147 -0.0520  0.1214  0.0693
91664W        W34576  20.778  18.796  17.950 -0.4278 -0.1575 -0.1193
91665W        W34577  19.137  22.035  18.520 -0.1651 -0.2392  0.2845
91666W        W34578  20.042  21.267  19.688 -0.1485  0.3494 -0.1629
91667W        W34579  22.321  22.201  23.019 -0.0833 -0.1240  0.1633
91668W        W34580  21.687  21.709  19.701  0.0558 -0.2262  0.0393
91669W        W34581  21.060  19.619  21.779 -0.1912 -0.0611  0.0761
91670W        W34582  19.395  23.945  19.091  0.2217 -0.1640 -0.1327
91671W        W34583  21.531  20.625  20.558  0.2788 -0.1788  0.1450
91672W        W34584  20.747  21.528  21.149 -0.2724 -0.3596  0.1903
91673W        W34585  19.101  19.126  18.296 -0.0980  0.0433  0.1856
91674W        W34586  22.148  22.581  22.252 -0.0445  0.4496  0.2426
91675W        W34587  21.967  22.237  20.337  0.0147 -0.1522 -0.0856
91676W        W34588  21.322  19.294  19.673 -0.1172 -0.1233  0.0389
91677W        W34589  19.246  20.592  18.561  0.2161 -0.2711 -0.0947
91678W        W34590  18.732  22.785  19.735 -0.1339 -0.0921  0.1294
91679W        W34591  22.269  20.007  19.919 -0.0256 -0.2837 -0.1326
91680W        W34592  23.361  18.966  22.581  0.0867  0.2163  0.0340
91681W        W34593  22.452  22.523  19.899  0.2974 -0.0892 -0.1581
91682W        W34594  22.614  16.574  21.543 -0.1610 -0.1853  0.0051
91683W        W34595  21.169  21.460  21.431  0.0870 -0.0864  0.3177
91684W        W34596  20.622  21.120  22.740 -0.0378  0.3454  0.1203
91685W        W34597  19.782  20.442  18.467 -0.0031 -0.1399  0.3294
91686W        W34598  21.020  20.502  20.443  0.1132 -0.2274 -0.4848
91687W        W34599  20.521  21.146  19.608  0.0506 -0.0186  0.0040
91688W        W34600  21.478  21.189  20.619 -0.3551  0.0399 -0.0909
91689W        W34601  21.899  23.902  20.603  0.2350  0.1426 -0.0774
91690W        W34602  21.831  19.112  20.513 -0.2628 -0.2513 -0.0849
91691W        W34603  22.724  21.814  21.252  0.2941 -0.0483  0.1079
91692W        W34604  19.707  19.252  18.889  0.5380  0.0313 -0.2861
91693W        W34605  22.027  19.094  19.968  0.0086  0.4517 -0.0151
91694W        W34606  21.663  18.384  19.914 -0.0267  0.0929 -0.0659
91695W        W34607  19.221  20.832  19.119  0.0885 -0.1656 -0.0828
91696W        W34608  19.593  20.933  18.474  0.3494 -0.1444  0.1459
91697W        W34609  17.941  21.922  17.872  0.4067  0.0333 -0.0536
91698W        W34610  18.800  21.399  19.531 -0.0634  0.1616  0.1032
91699W        W34611  20.361  17.198  21.020 -0.1883  0.0513  0.2391
91700W        W34612  18.980  19.070  20.209 -0.0131 -0.2234  0.1313
91701W        W34613  18.775  19.288  18.791  0.0559 -0.1534  0.3096
91702W        W34614  20.436  19.764  18.000 -0.3138 -0.0606 -0.3280
91703W        W34615  22.026  21.393  20.506 -0.0059  0.1558 -0.0105
91704W        W34616  18.689  19.300  17.617  0.0566  0.1765  0.2334
91705W        W34617  21.885  22.348  20.912 -0.3987 -0.0208  0.3464
91706W        W34618  21.173  20.633  19.870 -0.0699  0.1076 -0.1021
91707W        W34619  19.320  18.130  17.187  0.1451  0.0415 -0.0734
91708W        W34620  22.029  21.804  22.919 -0.1713 -0.0502 -0.1631
91709W        W34621  18.451  21.561  17.819  0.1238  0.3257  0.0269
91710W        W34622  20.426  19.746  20.517 -0.1430 -0.1314  0.0781
91711W        W34623  21.527  18.940  20.058 -0.0926  0.1416 -0.0302
91712W        W34624  17.827  18.494  17.254 -0.1195  0.0497 -0.0111
91713W        W34625  21.024  20.068  19.689 -0.1088  0.2364  0.0658
91714W        W34626  21.898  21.695  20.128  0.0741  0.2290  0.0005
91715W        W34627  20.100  22.335  19.465  0.1782 -0.2864 -0.0285
91716W        W34628  21.114  22.228  20.263  0.1578 -0.1125  0.0747
91717W        W34629  20.703  22.469  20.100  0.3936 -0.1829  0.0616
91718W        W34630  21.306  20.209  20.185  0.2587  0.3071  0.0741
91719W        W34631  20.193  21.761  19.551  0.1180  0.0129  0.2658
91720W        W34632  23.888  22.603  19.037  0.0690 -0.2148 -0.0986
91721W        W34633  23.976  18.765  20.603 -0.1529  0.1662  0.0946
91722W        W34634  23.097  20.091  20.631  0.0918 -0.0081 -0.0416
91723W        W34635  19.514  20.944  20.344 -0.1416  0.0415  0.0479
91724W        W34636  20.659  21.765  20.679  0.0987 -0.1353 -0.0123
91725W        W34637  21.053  19.635  20.058 -0.3292  0.0668 -0.0042
91726W        W34638  22.956  21.248  19.524 -0.0088 -0.1224 -0.1792
91727W        W34639  17.889  21.004  19.041  0.1541  0.0263 -0.1392
91728W        W34640  20.909  19.737  18.015 -0.0598 -0.1700 -0.0527
91729W        W34641  21.404  19.730  20.501  0.0692  0.0350  0.1189
91730W        W34642  21.563  21.333  21.699 -0.0129  0.2569  0.0579
91731W        W34643  22.088  21.267  22.761 -0.2155 -0.5158 -0.0817
91732W        W34644  21.355  20.962  19.197 -0.1875  0.0327 -0.0397
91733W        W34645  22.013  20.707  19.808  0.0252 -0.1605 -0.1298
91734W        W34646  21.882  22.863  20.719  0.0413  0.2672 -0.3097
91735W        W34647  22.977  22.334  24.270  0.1100  0.0334 -0.2895
91736W        W34648  21.186  20.956  20.261 -0.0985  0.0639  0.0092
91737W        W34649  22.098  20.419  20.251  0.1631  0.0637 -0.0083
91738W        W34650  20.606  21.638  19.877  0.2872 -0.1970  0.2572
91739W        W34651  20.045  20.914  19.254 -0.0225  0.0077 -0.1736
91740W        W34652  21.960  17.111  20.366  0.0887 -0.0817  0.0686
91741W        W34653  20.803  19.599  19.349 -0.0582  0.1954  0.1065
91742W        W34654  19.855  21.890  21.375 -0.2367  0.0508  0.0892
91743W        W34655  20.520  20.376  18.896 -0.2331 -0.0013  0.2284
91744W        W34656  19.605  21.463  23.776  0.1400  0.0293 -0.0190
91745W        W34657  21.923  18.895  21.651 -0.0647  0.1107 -0.0232
91746W        W34658  21.682  19.010  23.396 -0.6452  0.0867  0.0181
91747W        W34659  21.728  21.896  23.959 -0.0827 -0.2015 -0.0516
91748W        W34660  20.026  18.434  24.712  0.0705 -0.2409  0.0127
91749W        W34661  21.386  21.615  25.295 -0.0039 -0.2787  0.2492
91750W        W34662  22.267  21.328  24.656  0.3303 -0.2619 -0.2944
91751W        W34663  21.143  20.719  21.464 -0.0097 -0.1374 -0.0551
91752W        W34664  19.038  22.023  25.242  0.0743 -0.1442  0.3983
91753W        W34665  20.050  18.528  21.584  0.1208  0.3397 -0.0484
91754W        W34666  18.374  17.677  22.711  0.2280 -0.0319  0.2298
91755W        W34667  21.822  19.941  24.304 -0.0458 -0.0787 -0.1546
91756W        W34668  20.093  20.128  23.188  0.4182  0.2185 -0.0529
91757W        W34669  20.186  19.476  21.480  0.0115 -0.0333 -0.0170
91758W        W34670  20.673  22.493  23.769  0.0067  0.1539  0.1713
91759W        W34671  20.539  18.321  22.568 -0.1903  0.2830  0.2272
91760W        W34672  20.150  18.018  23.995 -0.1497  0.2918 -0.4599
91761W        W34673  21.261  19.782  22.876  0.2179  0.1002  0.0189
91762W        W34674  18.677  19.930  20.399 -0.2756 -0.1632 -0.0394
91763W        W34675  18.163  19.802  23.020  0.0250  0.2588  0.3433
91764W        W34676  21.858  19.420  24.196 -0.1208  0.0696  0.0661
91765W        W34677  20.870  19.344  23.467  0.2890 -0.0301 -0.2347
91766W        W34678  21.171  20.675  24.012  0.1572 -0.0683  0.2479
91767W        W34679  20.275  22.568  24.500  0.2959  0.0135  0.0621
91768W        W34680  20.391  21.325  23.571 -0.0729 -0.1168 -0.1110
91769W        W34681  22.196  19.599  24.514  0.2764  0.0547  0.1629
91770W        W34682  18.751  22.279  23.468 -0.3799  0.2004  0.3949
91771W        W34683  20.637  20.634  22.309 -0.1073  0.1675 -0.0425
91772W        W34684  21.526  21.007  23.924  0.1227  0.2028 -0.0740
91773W        W34685  21.049  20.449  25.800 -0.0310  0.0547  0.2130
91774W        W34686  20.279  21.901  26.511  0.3046  0.2276 -0.0398
91775W        W34687  19.732  21.312  20.709  0.0236  0.3631  0.0162
91776W        W34688  19.067  21.306  27.029 -0.3289  0.1169 -0.1912
91777W        W34689  19.897  21.508  24.377  0.0210  0.1325  0.1531
91778W        W34690  20.190  21.021  22.443 -0.0206 -0.1573 -0.0991
91779W        W34691  20.892  20.204  23.040  0.1603  0.0030 -0.1722
91780W        W34692  20.787  21.919  22.784 -0.1273  0.0183 -0.0201
91781W        W34693  20.533  19.944  23.256  0.0413  0.2753  0.0111
91782W        W34694  19.446  21.441  26.067 -0.2748 -0.0384 -0.0846
91783W        W34695  21.519  18.650  25.197 -0.0909 -0.1315  0.1754
91784W        W34696  20.720  21.364  21.689  0.0170  0.1646  0.0306
91785W        W34697  21.698  18.609  23.108 -0.0256  0.1563 -0.0494
91786W        W34698  22.069  18.188  22.210 -0.1150  0.1995 -0.2111
91787W        W34699  21.532  18.060  23.142  0.0056  0.0506  0.2265
91788W        W34700  20.326  18.520  22.044  0.0596  0.0637  0.0425
91789W        W34701  20.214  22.756  23.658  0.0170 -0.5668  0.2147
91790W        W34702  23.044  19.789  24.571 -0.2331 -0.0387 -0.1390
91791W        W34703  21.658  19.021  22.054 -0.3250 -0.0388  0.3623
91792W        W34704  21.553  19.049  24.250 -0.2174  0.1107  0.0233
91793W        W34705  19.456  20.968  23.468  0.0673  0.0414  0.0161
91794W        W34706  19.553  21.143  22.490 -0.1951  0.4320 -0.1101
91795W        W34707  22.735  19.748  24.140  0.0140  0.1145  0.4640
91796W        W34708  22.465  21.790  23.257  0.1669  0.0898  0.0724
91797W        W34709  18.561  20.652  23.651 -0.1425  0.2605  0.1611
91798W        W34710  18.383  20.275  24.505 -0.4129 -0.2360  0.0692
91799W        W34711  20.382  19.077  20.652  0.0479  0.1906  0.0671
91800W        W34712  21.514  20.055  24.698  0.0230  0.3977  0.1337
91801W        W34713  18.695  22.499  24.266 -0.0316  0.4743  0.4628
91802W        W34714  22.339  19.576  23.637 -0.1998 -0.1018  0.2771
91803W        W34715  20.648  19.799  24.486 -0.1107 -0.2765  0.0139
91804W        W34716  22.500  21.550  22.293  0.3053  0.1786  0.1415
91805W        W34717  22.006  19.163  23.764  0.0295  0.0049  0.1398
91806W        W34718  22.005  18.049  23.511 -0.2048  0.2060 -0.3821
91807W        W34719  20.046  20.440  20.908  0.1282  0.0729 -0.1031
91808W        W34720  20.405  20.840  21.783  0.0419  0.0399 -0.2600
91809W        W34721  21.764  21.723  26.267  0.2402 -0.1396 -0.0535
91810W        W34722  22.029  18.752  22.317  0.2392  0.0557 -0.0225
91811W        W34723  19.233  21.927  23.591  0.4274 -0.1193  0.2163
91812W        W34724  20.471  20.345  24.331 -0.0757  0.0081 -0.3509
91813W        W34725  19.094  22.577  22.446  0.0545 -0.0871  0.1370
91814W        W34726  19.750  20.286  21.269 -0.0218  0.3207  0.1581
91815W        W34727  19.697  21.873  23.459  0.0005 -0.2404  0.0328
91816W        W34728  21.699  17.975  22.542 -0.2194 -0.0367  0.1996
91817W        W34729  19.592  18.702  24.213  0.1511 -0.0619 -0.3705
91818W        W34730  21.686  18.726  23.878 -0.0081  0.1376  0.0161
91819W        W34731  20.765  22.673  24.616 -0.1011 -0.2724  0.0590
91820W        W34732  22.423  18.445  22.529 -0.1466  0.0194  0.0140
91821W        W34733  21.812  20.259  21.761  0.0669 -0.2026 -0.1360
91822W        W34734  17.321  19.687  23.310  0.0306  0.3144 -0.3832
91823W        W34735  18.558  19.125  22.245 -0.3967  0.0097 -0.0710
91824W        W34736  21.361  19.861  23.783 -0.0307  0.3014  0.3036
91825W        W34737  19.162  17.068  19.663 -0.1450 -0.0092 -0.0007
91826W        W34738  21.714  18.427  21.786  0.4052  0.1057 -0.0873
91827W        W34739  19.980  19.932  21.633 -0.2753  0.1894  0.1089
91828W        W34740  20.203  18.561  25.192  0.1906 -0.2533 -0.1118
91829W        W34741  21.477  20.708  23.499 -0.0334  0.0230  0.2104
91830W        W34742  21.767  21.991  25.380  0.3220 -0.0593 -0.1106
91831W        W34743  21.234  20.710  24.868  0.0222  0.0896 -0.1411
91832W        W34744  19.688  18.967  20.860  0.0397 -0.0350 -0.2547
91833W        W34745  18.923  21.879  24.299 -0.0338  0.0438 -0.0271
91834W        W34746  20.400  20.138  23.869 -0.3191 -0.0431 -0.0500
91835W        W34747  20.748  18.787  21.666  0.0266  0.1858  0.0109
91836W        W34748  23.345  23.112  23.822  0.2458 -0.1392 -0.0068
91837W        W34749  20.568  20.034  21.601 -0.0715 -0.2247  0.1120
91838W        W34750  19.099  21.423  23.894  0.0054  0.0964  0.2447
91839W        W34751  20.555  18.527  24.054  0.2037  0.0773  0.0633
91840W        W34752  23.915  20.737  24.865  0.2831  0.1272  0.1959
91841W        W34753  21.427  19.525  23.298  0.0642 -0.0276  0.1812
91842W        W34754  19.296  18.428  20.873  0.3361  0.2461 -0.0579
91843W        W34755  19.829  22.112  24.955 -0.0298  0.0557  0.2739
91844W        W34756  19.916  21.748  21.858 -0.1308 -0.4584  0.1592
91845W        W34757  18.929  20.279  20.752 -0.2707 -0.0238 -0.2015
91846W        W34758  20.519  21.364  24.062  0.0846 -0.4378 -0.1760
91847W        W34759  22.344  19.119  23.380  0.3195  0.1358  0.3528
91848W        W34760  20.838  20.948  24.571 -0.0066  0.1747  0.1572
91849W        W34761  18.002  20.600  20.980 -0.2386  0.0468 -0.2532
91850W        W34762  18.872  22.655  23.084  0.0411  0.0135 -0.0647
91851W        W34763  20.661  17.976  23.961  0.1204 -0.0007  0.1181
91852W        W34764  21.923  17.049  21.994  0.0925 -0.1065  0.1656
91853W        W34765  22.116  18.006  26.436 -0.2091 -0.0365 -0.1717
91854W        W34766  22.134  20.011  23.613  0.1395  0.2761 -0.1104
91855W        W34767  22.218  17.773  22.364  0.2518  0.0125  0.1833
91856W        W34768  21.168  18.832  20.861  0.2702  0.3171  0.0946
91857W        W34769  18.658  21.378  24.209 -0.2572  0.2345  0.0682
91858W        W34770  21.124  21.084  22.386 -0.1097  0.0638 -0.2140
91859W        W34771  20.300  20.959  23.183 -0.2359 -0.1151 -0.1636
91860W        W34772  21.043  19.096  21.403 -0.0549 -0.0073 -0.0991
91861W        W34773  20.627  20.905  23.660  0.0788 -0.1085 -0.3371
91862W        W34774  19.056  21.263  22.352  0.1438  0.2536 -0.0509
91863W        W34775  21.217  19.693  25.265  0.0222  0.0154 -0.0725
91864W        W34776  22.579  20.724  24.207 -0.2188  0.2047  0.2016
91865W        W34777  21.269  18.845  23.629 -0.1816  0.0589 -0.0812
91866W        W34778  21.054  18.262  22.079  0.0257  0.4623 -0.0147
91867W        W34779  18.967  22.416  21.226  0.0892 -0.4624 -0.3186
91868W        W34780  21.066  19.206  23.942 -0.4022  0.1543 -0.0018
91869W        W34781  21.156  18.390  23.324  0.3735  0.2710  0.1650
91870W        W34782  20.647  18.284  25.307  0.1138  0.1944  0.0199
91871W        W34783  21.154  19.667  24.753  0.0022  0.3380 -0.0988
91872W        W34784  21.097  19.626  22.417  0.4416 -0.1039 -0.1366
91873W        W34785  23.055  20.951  24.978 -0.0203 -0.1971  0.1559
91874W        W34786  19.440  20.073  23.672  0.1433  0.0201 -0.1299
91875W        W34787  18.473  22.516  25.169 -0.4772  0.0537  0.2111
91876W        W34788  19.640  20.501  24.479  0.0795 -0.2969  0.1072
91877W        W34789  21.321  19.316  22.819 -0.4610  0.0985 -0.1230
91878W        W34790  20.847  18.757  22.208 -0.0769  0.0084 -0.2228
91879W        W34791  21.180  21.548  21.930  0.0857  0.1463  0.1782
91880W        W34792  20.722  21.002  21.273  0.1506 -0.1234 -0.0693
91881W        W34793  20.387  18.809  22.791  0.0738  0.0560  0.2613
91882W        W34794  20.680  21.429  24.533 -0.2627  0.0218 -0.3054
91883W        W34795  21.085  21.314  22.904  0.0734 -0.2038  0.0079
91884W        W34796  23.261  19.633  24.980  0.1472  0.0858  0.0696
91885W        W34797  20.133  22.426  22.718  0.0753  0.0874 -0.2264
91886W        W34798  22.997  18.774  24.229  0.1563 -0.0698  0.2944
91887W        W34799  18.148  23.007  25.169  0.1026 -0.0495 -0.3434
91888W        W34800  17.488  19.813  22.848 -0.0313 -0.1165  0.0494
91889W        W34801  20.656  19.710  22.025 -0.1012  0.0550 -0.0710
91890W        W34802  22.093  20.633  22.588  0.0779 -0.0212 -0.1465
91891W        W34803  18.072  19.239  22.308 -0.1338 -0.2523 -0.0337
91892W        W34804  19.744  19.312  21.663  0.1672 -0.1483  0.0744
91893W        W34805  20.010  21.721  25.423  0.0213 -0.2181  0.1010
91894W        W34806  21.135  19.969  25.734  0.0345 -0.0646 -0.2030
91895W        W34807  22.343  17.685  21.072 -0.0542 -0.1629  0.1804
91896W        W34808  20.956  20.741  22.867  0.3720 -0.2913  0.1487
91897W        W34809  20.572  20.309  25.630 -0.1241  0.0506  0.0280
91898W        W34810  18.364  19.556  20.827 -0.0531 -0.1351  0.3646
91899W        W34811  22.489  20.010  24.696 -0.0117 -0.0407 -0.0796
91900W        W34812  19.096  21.768  22.176  0.2004  0.0701 -0.2055
91901W        W34813  19.969  21.818  23.860  0.0396  0.1863  0.0878
91902W        W34814  19.379  20.965  22.048  0.1627 -0.1385  0.0234
91903W        W34815  23.373  20.454  24.890  0.0440 -0.1800  0.0132
91904W        W34816  20.041  20.534  22.971  0.2783  0.2175 -0.4081
91905W        W34817  20.324  19.621  22.505  0.1066 -0.2650  0.0278
91906W        W34818  20.650  19.773  25.048 -0.2491  0.0508 -0.1875
91907W        W34819  20.420  20.144  24.861 -0.0894  0.0059 -0.2886
91908W        W34820  18.515  20.957  25.363  0.1104  0.0024  0.3714
91909W        W34821  20.306  16.803  23.551 -0.0490  0.1794  0.2404
91910W        W34822  22.177  22.252  25.038  0.0002 -0.2090 -0.0850
91911W        W34823  20.420  18.541  26.543 -0.0396  0.0731  0.0244
91912W        W34824  19.652  20.761  20.785 -0.0305  0.3741  0.1024
91913W        W34825  17.963  21.070  22.133 -0.0921  0.0104 -0.2950
91914W        W34826  21.169  18.922  23.131 -0.2106 -0.3535 -0.0470
91915W        W34827  19.931  21.088  22.840 -0.0673 -0.1725  0.0570
91916W        W34828  21.367  20.418  23.072  0.2046 -0.2237 -0.0104
91917W        W34829  18.959  21.679  22.678  0.1980  0.1132  0.2543
91918W        W34830  22.247  17.868  23.884  0.1765 -0.0240 -0.0421
91919W        W34831  20.275  20.135  21.200  0.2513  0.2704  0.0028
91920W        W34832  21.988  19.310  22.883 -0.3088 -0.2455 -0.0066
91921W        W34833  22.127  17.958  25.042 -0.2353 -0.0295 -0.1269
91922W        W34834  22.119  19.408  21.772 -0.0280 -0.0758  0.1876
91923W        W34835  21.264  18.122  25.951  0.1942 -0.0259  0.1122
91924W        W34836  21.228  20.256  22.633  0.1234  0.3897 -0.1355
91925W        W34837  20.554  20.892  24.180 -0.0789 -0.3102 -0.0395
91926W        W34838  20.824  19.238  22.943  0.1438  0.2678 -0.0861
91927W        W34839  20.204  18.023  21.508 -0.1125 -0.0249  0.2337
91928W        W34840  20.254  21.361  25.154 -0.0650  0.1595 -0.1376
91929W        W34841  21.738  19.732  22.938 -0.0502 -0.0461 -0.0954
91930W        W34842  20.291  21.191  21.451 -0.0875 -0.0350 -0.0489
91931W        W34843  22.094  19.209  22.211 -0.3736 -0.0207 -0.2233
91932W        W34844  19.201  20.155  23.223  0.1783 -0.0908 -0.0700
91933W        W34845  20.988  19.963  23.482  0.0207 -0.1823  0.2231
91934W        W34846  20.468  20.294  20.595 -0.0798  0.1807 -0.3353
91935W        W34847  19.607  17.676  25.059 -0.0128 -0.1775 -0.2419
91936W        W34848  21.251  20.341  23.643  0.0916 -0.2283 -0.3009
91937W        W34849  20.408  19.347  23.165  0.1221  0.0929 -0.1179
91938W        W34850  21.034  18.932  24.330 -0.0353  0.0146 -0.0814
91939W        W34851  21.419  19.239  24.660 -0.2748  0.1237  0.0148
91940W        W34852  19.058  21.128  24.331 -0.2973 -0.0959  0.0015
91941W        W34853  21.386  20.687  26.717 -0.2520 -0.0811 -0.1892
91942W        W34854  22.151  17.595  23.324  0.0128  0.2411 -0.0658
91943W        W34855  22.243  18.698  24.703  0.0375 -0.0002 -0.0477
91944W        W34856  20.966  20.484  24.439 -0.6918  0.2278  0.0703
91945W        W34857  21.547  18.925  21.218 -0.0690 -0.1567  0.1620
91946W        W34858  18.513  19.621  22.160 -0.1885  0.1118 -0.3826
91947W        W34859  20.162  17.700  26.397 -0.1642 -0.2149 -0.1600
91948W        W34860  19.676  18.392  20.595 -0.0127  0.1212  0.0578
91949W        W34861  21.267  18.601  26.133 -0.1698 -0.3502 -0.0501
91950W        W34862  20.274  22.837  22.437  0.1120  0.3562 -0.1155
91951W        W34863  21.305  21.275  24.915 -0.1394 -0.1081  0.0559
91952W        W34864  21.030  18.019  21.199 -0.0453  0.2872 -0.1648
91953W        W34865  18.359  19.297  22.722 -0.1576 -0.0347 -0.6041
91954W        W34866  19.048  21.603  26.653 -0.0740  0.2064  0.2318
91955W        W34867  19.974  19.373  20.643  0.1548 -0.0405  0.0041
91956W        W34868  20.295  19.564  20.998 -0.2197  0.0054  0.0843
91957W        W34869  21.070  20.019  24.200 -0.1288 -0.0051  0.1222
91958W        W34870  21.633  20.768  26.222  0.1600 -0.0057  0.3056
91959W        W34871  21.902  17.594  22.054  0.2877 -0.1909  0.1711
91960W        W34872  21.874  18.378  24.947  0.1222 -0.1496 -0.0257
91961W        W34873  20.705  19.250  22.427 -0.0643 -0.2084  0.2899
91962W        W34874  19.282  21.799  23.089  0.0374 -0.0812 -0.0023
91963W        W34875  20.426  21.443  23.021  0.1472  0.3333  0.0937
91964W        W34876  20.759  17.926  24.884  0.1870 -0.2751  0.3460
91965W        W34877  20.617  18.668  25.614  0.0892  0.1704  0.1435
91966W        W34878  21.357  19.613  24.265 -0.1307  0.2395  0.0692
91967W        W34879  22.188  19.394  25.816  0.1133 -0.3207 -0.0324
91968W        W34880  19.684  21.025  24.452  0.2383 -0.1712 -0.2587
91969W        W34881  19.455  21.584  22.682 -0.0875 -0.2273 -0.2187
91970W        W34882  21.590  19.987  25.569  0.0327 -0.0413 -0.1303
91971W        W34883  22.376  18.853  21.886 -0.1565  0.2195 -0.0549
91972W        W34884  19.423  21.184  22.975  0.0308 -0.3053  0.1666
91973W        W34885  19.603  19.642  25.498 -0.0887 -0.1912  0.1479
91974W        W34886  20.958  20.637  23.410  0.0429  0.1909  0.1198
91975W        W34887  21.494  20.839  22.652  0.0332  0.2592 -0.1389
91976W        W34888  18.711  20.533  24.855  0.3189  0.3688 -0.2029
91977W        W34889  18.993  23.847  22.470 -0.1609 -0.2180  0.0069
91978W        W34890  22.139  19.634  22.440  0.1293  0.0991  0.3553
91979W        W34891  20.332  20.063  22.137  0.2371  0.1027 -0.4911
91980W        W34892  20.633  23.739  24.073 -0.2376 -0.0942  0.0367
91981W        W34893  18.915  21.250  22.911  0.3594  0.1197 -0.2229
91982W        W34894  21.203  21.895  23.573  0.2076 -0.0918 -0.2771
91983W        W34895  19.970  21.506  22.518  0.3166 -0.2263 -0.0308
91984W        W34896  21.978  20.245  25.393  0.0312 -0.1901 -0.0750
91985W        W34897  22.106  17.572  21.494 -0.1210  0.5682  0.0723
91986W        W34898  22.157  20.052  22.810 -0.0115 -0.3518 -0.2303
91987W        W34899  22.455  18.862  23.890  0.0559  0.4138 -0.2435
91988W        W34900  20.790  21.331  25.907 -0.0608  0.0670 -0.0116
91989W        W34901  20.867  19.385  24.416 -0.1073  0.2480  0.0175
91990W        W34902  20.584  19.292  21.766 -0.4447  0.0346  0.0245
91991W        W34903  19.718  20.518  25.622 -0.1274  0.2689 -0.0612
91992W        W34904  21.076  18.459  25.614 -0.0434 -0.1468 -0.0054
91993W        W34905  18.749  21.166  25.788 -0.1466  0.0192  0.2251
91994W        W34906  20.285  21.181  24.618  0.1659  0.0746  0.1705
91995W        W34907  18.069  19.806  21.977  0.0843  0.0157  0.0021
91996W        W34908  20.041  19.671  22.952  0.1404 -0.3074 -0.1893
91997W        W34909  21.586  18.304  23.569  0.2404  0.0690  0.0704
91998W        W34910  20.798  20.446  21.154  0.2604  0.2457 -0.2558
91999W        W34911  20.769  19.730  22.849 -0.0195 -0.1873  0.2707
92000W        W34912  20.617  21.159  22.185  0.0627 -0.1652  0.1118
92001W        W34913  19.410  21.487  24.499  0.1701 -0.4013  0.1124
92002W        W34914  19.347  21.849  24.036 -0.0304 -0.0920  0.0601
92003W        W34915  21.910  19.444  23.331  0.2008  0.0101 -0.0950
92004W        W34916  20.162  19.927  24.455 -0.0524  0.1015 -0.2026
92005W        W34917  20.915  18.343  24.587 -0.1220 -0.2522  0.0605
92006W        W34918  22.059  18.865  24.179  0.1457 -0.1473  0.0577
92007W        W34919  21.364  20.297  25.179 -0.1905  0.3214  0.3203
92008W        W34920  19.624  20.536  23.780 -0.2507 -0.0610  0.0264
92009W        W34921  20.461  18.562  21.329 -0.1151 -0.1127 -0.0873
92010W        W34922  22.970  19.309  25.441  0.1356 -0.1253 -0.0738
92011W        W34923  21.407  18.569  22.289  0.1652  0.0579  0.0356
92012W        W34924  21.849  21.225  26.206 -0.0822 -0.0364 -0.0287
92013W        W34925  21.115  18.214  22.603 -0.1069  0.0840  0.3062
92014W        W34926  20.160  20.021  25.434 -0.1519 -0.2372  0.0095
92015W        W34927  21.009  19.503  25.816 -0.2318 -0.0234  0.1520
92016W        W34928  19.103  18.184  21.613  0.3024  0.4140  0.0949
92017W        W34929  22.873  20.779  22.790 -0.1006  0.1634 -0.0082
92018W        W34930  22.233  19.819  24.086 -0.0666  0.2556  0.0591
92019W        W34931  19.784  22.822  22.050 -0.0853 -0.0831 -0.3214
92020W        W34932  22.436  20.185  23.303 -0.3192  0.1662  0.0802
92021W        W34933  20.228  21.725  24.736  0.0366 -0.4326  0.0870
92022W        W34934  20.354  21.817  25.815 -0.0078 -0.0426  0.2148
92023W        W34935  20.445  20.885  25.352 -0.1664 -0.1215  0.0738
92024W        W34936  20.592  18.814  23.252  0.0755 -0.2980  0.1115
92025W        W34937  19.824  19.565  22.544  0.1368 -0.3313  0.3061
92026W        W34938  18.848  23.503  24.020  0.2335 -0.2312 -0.2177
92027W        W34939  20.418  19.680  23.662  0.1367 -0.1131  0.2356
92028W        W34940  21.129  18.765  24.797 -0.1257  0.0043 -0.0103
92029W        W34941  21.143  22.530  22.347  0.2406  0.1410 -0.1740
92030W        W34942  20.420  17.074  26.399  0.0334 -0.1159  0.3328
92031W        W34943  19.765  20.750  24.865  0.3636  0.2350 -0.0946
92032W        W34944  19.332  21.478  25.051 -0.0139 -0.2919  0.2503
92033W        W34945  19.317  20.487  21.002 -0.0892  0.2175 -0.1367
92034W        W34946  19.179  20.794  25.957 -0.3362 -0.0306 -0.1521
92035W        W34947  19.384  22.496  22.856 -0.0140  0.0028  0.0591
92036W        W34948  20.022  20.701  23.533 -0.1715 -0.3944  0.2445
92037W        W34949  20.430  22.257  24.830  0.0631 -0.2892 -0.1055
92038W        W34950  21.666  19.428  22.500  0.2450  0.1677 -0.0052
92039W        W34951  21.143  21.192  23.631  0.1872 -0.0138 -0.0759
92040W        W34952  19.269  18.540  21.979  0.2545  0.0549  0.0842
92041W        W34953  23.110  18.922  23.029  0.2253  0.2548 -0.0744
92042W        W34954  21.340  18.576  22.776 -0.0613  0.0982  0.1023
92043W        W34955  19.454  21.021  23.950 -0.0475  0.1171 -0.1891
92044W        W34956  20.075  20.889  20.585  0.0554  0.3251 -0.0450
92045W        W34957  20.294  18.370  27.001 -0.0429 -0.0888  0.1574
92046W        W34958  20.003  18.966  24.833 -0.0876  0.3028 -0.0321
92047W        W34959  21.610  21.308  22.721  0.1516 -0.2395  0.1657
92048W        W34960  20.989  21.123  24.122 -0.1306 -0.0111 -0.2400
92049W        W34961  21.340  20.978  23.135  0.2442  0.2847  0.2224
92050W        W34962  20.469  18.068  21.969  0.0457  0.0549 -0.0203
92051W        W34963  21.144  20.892  25.992  0.0892 -0.1086  0.0055
92052W        W34964  19.096  21.086  19.793 -0.0500 -0.1474  0.0491
92053W        W34965  20.107  19.817  25.009  0.3308 -0.0949  0.1146
92054W        W34966  20.889  18.830  25.260  0.0227 -0.2943 -0.2106
92055W        W34967  20.523  20.470  23.509 -0.5418 -0.0726  0.3063
92056W        W34968  21.377  21.440  23.327  0.0296  0.0451 -0.1020
92057W        W34969  22.554  21.620  23.810 -0.1297  0.3917 -0.0172
92058W        W34970  19.940  20.965  25.415 -0.0781 -0.3212  0.3422
92059W        W34971  20.265  21.394  26.354 -0.2203  0.1478  0.0936
92060W        W34972  19.835  18.950  23.630  0.1830 -0.0224 -0.2003
92061W        W34973  20.509  20.615  22.860  0.2384 -0.1447  0.0750
92062W        W34974  20.080  21.244  23.965  0.3187  0.0975  0.0005
92063W        W34975  21.911  20.319  23.157 -0.2706  0.2926 -0.0474
92064W        W34976  21.277  18.022  24.251 -0.2101 -0.2227  0.0711
92065W        W34977  20.523  20.150  22.633  0.2049  0.2566  0.1034
92066W        W34978  19.136  21.388  23.327  0.0131 -0.0125  0.2474
92067W        W34979  22.182  21.031  25.565  0.0115 -0.0282  0.0392
92068W        W34980  19.593  18.330  21.598 -0.1351  0.0225  0.0461
92069W        W34981  22.121  18.867  23.080 -0.0980  0.1223 -0.1828
92070W        W34982  21.345  21.903  21.586 -0.2734  0.2961 -0.1542
92071W        W34983  19.663  20.361  23.347 -0.0402  0.1961  0.1014
92072W        W34984  21.519  18.040  22.053  0.2508  0.3550 -0.1133
92073W        W34985  20.726  21.121  25.029 -0.1461 -0.0583  0.3955
92074W        W34986  20.934  21.775  25.342 -0.0720 -0.3308 -0.0708
92075W        W34987  22.490  19.477  25.417 -0.1942  0.0352  0.2898
92076W        W34988  20.708  19.555  21.390 -0.1598  0.3153  0.2294
92077W        W34989  21.675  18.961  22.678 -0.2360 -0.1414  0.1985
92078W        W34990  21.722  22.173  25.914 -0.1050 -0.3221 -0.0911
92079W        W34991  20.725  20.584  24.989 -0.0802  0.3888 -0.2189
92080W        W34992  20.622  20.785  25.850 -0.1403 -0.2402  0.0116
92081W        W34993  20.952  20.121  24.826 -0.0430  0.1363  0.0497
92082W        W34994  19.347  18.239  24.254  0.1886  0.2642  0.2831
92083W        W34995  20.008  20.086  22.641 -0.0443  0.0972 -0.1223
92084W        W34996  21.555  19.199  25.146  0.0466 -0.1398 -0.0966
92085W        W34997  20.682  17.389  21.790 -0.3011  0.2536 -0.0941
92086W        W34998  20.567  20.447  26.209  0.0672  0.3250 -0.2536
92087W        W34999  20.775  20.430  23.930 -0.1745  0.0718 -0.1550
92088W        W35000  19.428  19.658  29.322 -0.1670 -0.1281 -0.0020
92089W        W35001  21.822  17.746  25.368 -0.0260  0.0624 -0.0704
92090W        W35002  21.521  19.417  26.526  0.2208 -0.0931 -0.0930
92091W        W35003  21.116  21.324  27.523  0.0141 -0.1507  0.3066
92092W        W35004  18.229  17.768  28.669 -0.1526 -0.1049  0.2398
92093W        W35005  20.528  21.409  29.257 -0.0214  0.1677 -0.0003
92094W        W35006  20.073  21.623  29.276  0.0784 -0.2856  0.1322
92095W        W35007  20.764  18.554  26.195  0.1840  0.0508 -0.1696
92096W        W35008  19.425  19.173  28.399 -0.3390 -0.1578  0.0778
92097W        W35009  19.219  21.514  28.696 -0.0761 -0.1667  0.2485
92098W        W35010  19.951  18.605  27.341 -0.0625 -0.2892  0.1046
92099W        W35011  19.583  18.573  29.011  0.1771 -0.1781 -0.3245
92100W        W35012  19.333  20.463  26.486 -0.0933  0.2064  0.0590
92101W        W35013  18.654  17.598  28.497 -0.0837  0.2141  0.0357
92102W        W35014  19.720  20.053  25.738 -0.0090  0.1013 -0.2119
92103W        W35015  20.199  20.953  27.626  0.0100 -0.0238  0.2464
92104W        W35016  19.694  18.622  26.923 -0.0582 -0.1195  0.1842
92105W        W35017  19.975  17.878  28.553  0.1592  0.0328 -0.0513
92106W        W35018  19.441  20.946  25.174  0.2582  0.0031 -0.1042
92107W        W35019  18.762  18.113  27.021  0.2201  0.2070  0.0991
92108W        W35020  17.646  19.030  28.284 -0.0723  0.0067  0.1755
92109W        W35021  19.641  18.621  29.910 -0.1235  0.1080  0.0164
92110W        W35022  20.391  19.704  28.066 -0.0564  0.0390 -0.1951
92111W        W35023  20.338  21.044  27.135 -0.0338  0.0184 -0.0227
92112W        W35024  20.662  20.984  28.378 -0.1584  0.3537 -0.0073
92113W        W35025  22.068  19.061  29.657 -0.0576 -0.1857 -0.0707
92114W        W35026  18.833  20.957  27.295  0.3965  0.1930 -0.1646
92115W        W35027  18.661  21.235  28.236  0.0072  0.2780  0.0014
92116W        W35028  20.466  19.774  26.630  0.0055  0.5242  0.0787
92117W        W35029  21.448  21.052  28.410 -0.2210 -0.0611 -0.0130
92118W        W35030  22.535  21.043  30.831  0.0254  0.0798 -0.3087
92119W        W35031  20.519  21.384  28.697 -0.1064  0.1773  0.1833
92120W        W35032  20.186  20.055  25.999 -0.0813  0.1034 -0.1847
92121W        W35033  20.801  20.552  29.468  0.0406  0.0431 -0.0203
92122W        W35034  19.629  21.379  29.658 -0.1790  0.1782 -0.1500
92123W        W35035  18.530  18.680  28.559  0.1221 -0.2021 -0.2277
92124W        W35036  20.158  20.094  27.015  0.0044 -0.1294 -0.3454
92125W        W35037  18.649  21.047  24.651 -0.4041  0.0387 -0.3577
92126W        W35038  19.029  20.822  26.804 -0.2027 -0.1353  0.3933
92127W        W35039  18.537  19.376  29.347 -0.4223 -0.3024 -0.0665
92128W        W35040  18.464  21.332  27.269  0.2491 -0.1472  0.2857
92129W        W35041  20.034  18.283  28.891  0.1441 -0.2898  0.0423
92130W        W35042  18.956  21.300  26.236  0.4825  0.0481  0.1189
92131W        W35043  21.498  18.113  25.192  0.2344  0.1105 -0.1677
92132W        W35044  20.840  19.680  23.899 -0.1170  0.0439 -0.0578
92133W        W35045  19.817  17.741  27.695 -0.2492  0.1140  0.2267
92134W        W35046  19.299  18.274  27.053  0.3637  0.0602 -0.0091
92135W        W35047  18.919  21.495  27.449 -0.1240  0.0123 -0.2421
92136W        W35048  18.533  17.329  28.061  0.2711 -0.0300 -0.0901
92137W        W35049  20.101  18.590  29.675  0.1940 -0.1882  0.2312
92138W        W35050  20.753  18.539  29.304 -0.2134  0.2185  0.2358
92139W        W35051  18.146  21.916  28.785  0.4639 -0.0177 -0.2388
92140W        W35052  18.976  19.017  27.072 -0.1312  0.1244 -0.1491
92141W        W35053  21.877  21.290  27.253  0.1469  0.1706 -0.0065
92142W        W35054  21.894  20.830  28.298  0.1013 -0.0624 -0.3609
92143W        W35055  20.061  20.100  26.518  0.0120 -0.0505  0.0842
92144W        W35056  18.315  18.522  29.462 -0.1793 -0.5279 -0.2389
92145W        W35057  18.606  18.901  29.023  0.3857 -0.0810 -0.0533
92146W        W35058  19.584  17.703  25.609 -0.2827 -0.0682  0.1671
92147W        W35059  20.026  20.006  29.399 -0.1068 -0.1738 -0.3461
92148W        W35060  17.964  19.483  28.312  0.1508 -0.2957 -0.0037
92149W        W35061  19.969  18.637  26.394 -0.2799  0.1610  0.0186
92150W        W35062  19.346  18.933  27.416 -0.2370  0.0797  0.2857
92151W        W35063  20.339  21.757  28.258 -0.0064  0.2662 -0.3312
92152W        W35064  20.855  19.482  26.797  0.1625  0.1836 -0.1557
92153W        W35065  20.952  17.907  28.642  0.0557 -0.2126  0.2962
92154W        W35066  19.176  19.030  27.987  0.0118 -0.2371  0.0629
92155W        W35067  19.952  20.254  24.126 -0.0161 -0.0016 -0.0270
92156W        W35068  21.621  19.589  29.588  0.1413 -0.4383  0.2750
92157W        W35069  21.476  19.700  26.043 -0.2428 -0.1568  0.1664
92158W        W35070  18.188  22.132  27.727 -0.0533  0.0855  0.0945
92159W        W35071  18.273  19.978  29.844 -0.1925 -0.2718 -0.2751
92160W        W35072  18.855  21.587  29.997  0.0721  0.0824 -0.2893
92161W        W35073  18.471  21.339  25.008 -0.0207 -0.2038 -0.0235
92162W        W35074  18.782  19.715  27.777  0.0295 -0.1477 -0.1736
92163W        W35075  18.610  16.493  28.143 -0.1075  0.0103 -0.1278
92164W        W35076  20.678  20.479  28.356 -0.1565  0.0906  0.1965
92165W        W35077  21.374  17.346  26.634 -0.2652 -0.0205 -0.0998
92166W        W35078  19.172  17.592  29.031  0.0435 -0.0271  0.1590
92167W        W35079  21.870  18.264  28.536 -0.1638  0.0076  0.2868
92168W        W35080  18.484  20.402  26.243 -0.0721  0.2252  0.1806
92169W        W35081  21.519  20.962  27.550  0.1820 -0.1467 -0.1687
92170W        W35082  21.076  17.646  26.826  0.0968 -0.2915  0.2235
92171W        W35083  20.901  20.234  25.305 -0.0418 -0.0779 -0.4145
92172W        W35084  18.221  19.640  27.917  0.1552  0.3943 -0.2341
92173W        W35085  20.182  17.730  25.872 -0.1258 -0.2944  0.0985
92174W        W35086  18.942  18.557  27.761  0.1158  0.1033 -0.0374
92175W        W35087  18.908  16.879  28.425  0.1932 -0.0001 -0.2061
92176W        W35088  20.771  17.968  30.131  0.1720 -0.0094  0.0600
92177W        W35089  19.190  19.742  26.067 -0.0301  0.1839 -0.1265
92178W        W35090  19.065  19.105  26.546  0.1154 -0.1278  0.1155
92179W        W35091  19.218  21.209  25.608  0.1326  0.3977 -0.3734
92180W        W35092  22.412  18.157  29.342  0.0952 -0.2118  0.2848
92181W        W35093  19.720  20.945  25.877 -0.0725 -0.1931 -0.1873
92182W        W35094  21.669  21.595  28.668  0.0141  0.3068 -0.1728
92183W        W35095  22.238  20.367  29.317  0.0659 -0.1663  0.1250
92184W        W35096  19.174  18.850  29.292 -0.1260  0.0422 -0.5015
92185W        W35097  19.729  21.206  27.706 -0.2212  0.1671 -0.0036
92186W        W35098  19.539  19.361  27.889  0.1854 -0.4105 -0.1361
92187W        W35099  20.013  18.704  25.645  0.0933  0.1404 -0.0721
92188W        W35100  19.562  20.784  27.637  0.0365  0.0272 -0.0576
92189W        W35101  19.891  19.634  26.954 -0.0159 -0.0455  0.0313
92190W        W35102  21.058  20.703  28.619  0.2748 -0.2311  0.2795
92191W        W35103  21.230  16.970  28.583  0.0563 -0.1142 -0.2195
92192W        W35104  21.693  20.147  30.413  0.0962 -0.1775  0.0014
92193W        W35105  19.958  19.128  26.175  0.2876  0.3109 -0.1465
92194W        W35106  20.938  20.727  27.923 -0.0373  0.1152 -0.3231
92195W        W35107  17.079  21.845  26.669 -0.2573  0.0806 -0.2524
92196W        W35108  18.837  20.338  26.698  0.1459 -0.0478 -0.0055
92197W        W35109  20.243  17.966  28.032  0.1698  0.4359 -0.1392
92198W        W35110  18.251  18.926  29.768 -0.3691 -0.0663 -0.3525
92199W        W35111  20.118  18.370  28.347  0.1940 -0.0253  0.2781
92200W        W35112  20.364  20.767  28.715 -0.0002 -0.0316  0.1014
92201W        W35113  19.772  19.242  28.797 -0.2037  0.0478  0.0803
92202W        W35114  21.771  18.811  26.112 -0.0224  0.1049 -0.2796
92203W        W35115  21.301  20.402  30.819  0.0549 -0.2004  0.1088
92204W        W35116  21.720  20.283  27.995  0.2656  0.0111  0.1674
92205W        W35117  22.233  17.959  27.109 -0.0793  0.0909 -0.1175
92206W        W35118  21.027  19.212  26.410  0.4200  0.2050  0.1044
92207W        W35119  18.948  20.674  29.512  0.1418  0.2062  0.1305
92208W        W35120  19.965  21.306  26.841 -0.0946  0.0636  0.0713
92209W        W35121  18.679  18.914  28.042  0.0060 -0.0388 -0.1749
92210W        W35122  20.755  18.912  26.809 -0.0050  0.0535  0.3152
92211W        W35123  22.261  21.472  26.472  0.1978 -0.1797 -0.1982
92212W        W35124  18.880  20.038  28.175  0.1537  0.3120  0.3543
92213W        W35125  21.485  21.155  28.954 -0.0829  0.2566  0.0977
92214W        W35126  21.745  19.894  27.681  0.1624  0.2817 -0.3490
92215W        W35127  19.208  17.523  25.895  0.1175 -0.1055  0.1332
92216W        W35128  20.165  20.468  25.220 -0.3821  0.1439  0.0595
92217W        W35129  19.290  18.072  25.813 -0.1620  0.1357  0.0340
92218W        W35130  17.713  22.240  25.609 -0.1446 -0.1802 -0.2036
92219W        W35131  21.182  19.103  26.861  0.1727  0.0788  0.0778
92220W        W35132  20.771  17.804  27.801 -0.2808 -0.0869 -0.1535
92221W        W35133  18.953  17.583  28.031  0.0796  0.4420  0.3324
92222W        W35134  20.747  18.750  30.728  0.0186  0.2674  0.1977
92223W        W35135  20.264  17.861  27.024 -0.0051 -0.0290  0.4162
92224W        W35136  19.627  18.771  28.228  0.1256 -0.1902  0.1449
92225W        W35137  20.096  20.734  24.139 -0.0786 -0.0610 -0.1589
92226W        W35138  19.755  17.785  30.675 -0.1732  0.1158 -0.0147
92227W        W35139  18.615  19.903  30.238  0.1652 -0.2470 -0.3793
92228W        W35140  18.149  21.229  28.395 -0.3613  0.0130  0.0437
92229W        W35141  21.962  22.662  29.852 -0.1716 -0.0741  0.3256
92230W        W35142  19.940  19.180  26.696 -0.1325  0.1671 -0.0898
92231W        W35143  19.032  19.648  28.563  0.0698 -0.1383  0.1100
92232W        W35144  20.542  17.529  26.137 -0.1677  0.0226 -0.0275
92233W        W35145  21.557  20.533  25.600  0.0895  0.2810  0.1934
92234W        W35146  19.977  19.626  25.807 -0.1553  0.3505 -0.0658
92235W        W35147  17.870  17.196  27.884  0.1314 -0.1469  0.2019
92236W        W35148  20.155  20.429  28.342  0.0973 -0.3903 -0.1663
92237W        W35149  18.880  21.414  25.347 -0.1118  0.0386 -0.1017
92238W        W35150  21.255  19.790  29.298 -0.2331  0.1282  0.0521
92239W        W35151  18.478  20.748  26.836 -0.0688 -0.3223  0.0833
92240W        W35152  20.107  17.814  29.083 -0.0575 -0.0527 -0.0540
92241W        W35153  19.809  21.833  27.484  0.1532 -0.1550  0.1161
92242W        W35154  19.460  20.128  24.792 -0.2017 -0.0350  0.1780
92243W        W35155  18.498  19.096  25.096 -0.1732 -0.0924 -0.2044
92244W        W35156  19.636  18.051  28.158  0.0962 -0.1649  0.2914
92245W        W35157  21.065  20.290  26.956  0.5119 -0.3205 -0.1716
92246W        W35158  18.416  17.852  27.276 -0.0551 -0.0470 -0.2360
92247W        W35159  18.704  18.091  28.436 -0.3134 -0.1991  0.0790
92248W        W35160  18.636  20.929  28.640 -0.1355  0.0433  0.0943
92249W        W35161  19.074  21.062  28.516  0.3502  0.1950  0.1814
92250W        W35162  21.331  17.858  27.353 -0.0140 -0.1271 -0.0582
92251W        W35163  20.913  19.662  28.191  0.2867  0.0694 -0.1964
92252W        W35164  19.180  19.313  29.546 -0.0889 -0.0632  0.0028
92253W        W35165  20.329  18.252  30.183  0.2866  0.0244  0.0423
92254W        W35166  19.639  19.498  27.330 -0.0415 -0.2125  0.1553
92255W        W35167  18.797  20.633  27.877  0.0346  0.0769 -0.0376
92256W        W35168  20.039  21.410  27.388  0.1892  0.0190 -0.2006
92257W        W35169  19.064  21.725  25.651 -0.0962  0.0253  0.5208
92258W        W35170  19.537  18.196   1.997 -0.2527  0.1612  0.0186
92259W        W35171  20.487  18.728  28.529 -0.1207  0.0126 -0.1214
92260W        W35172  18.477  18.968  27.185 -0.0574  0.1820 -0.0834
92261W        W35173  19.637  20.264  26.787  0.0216 -0.0997  0.1050
92262W        W35174  21.376  21.606  28.177 -0.2602  0.2434  0.0845
92263W        W35175  19.772  19.523  29.603 -0.2366 -0.5111 -0.0308
92264W        W35176  18.583  21.068  29.909 -0.0937 -0.0034 -0.2076
92265W        W35177  19.868  19.045  27.227 -0.0496 -0.2378 -0.3249
92266W        W35178  23.374  20.471  27.994 -0.0309  0.1912 -0.0471
92267W        W35179  19.987  20.000  28.121 -0.0714 -0.0875 -0.0823
92268W        W35180  19.601  19.996  26.308  0.2694  0.4654  0.0532
92269W        W35181  19.334  20.716  28.090  0.1224 -0.2515  0.0333
92270W        W35182  18.901  18.580  27.201 -0.1159 -0.1935  0.0361
92271W        W35183  18.913  21.535  24.743  0.1208 -0.2491 -0.1141
92272W        W35184  21.118  20.449  26.313 -0.0058 -0.0510  0.1476
92273W        W35185  19.147  20.571  27.545  0.3320  0.3373 -0.0366
92274W        W35186  22.630  17.786  26.326 -0.1394  0.2652 -0.1310
92275W        W35187  20.285  22.443  26.894 -0.0360 -0.1790  0.1707
92276W        W35188  19.481  18.253  26.551 -0.1461 -0.0443 -0.1704
92277W        W35189  20.264  17.601  29.908 -0.2238  0.2486 -0.0212
92278W        W35190  19.317  20.312  25.889 -0.1487 -0.0028 -0.2633
92279W        W35191  20.486  17.106  29.534  0.1340  0.2227  0.1783
92280W        W35192  17.588  17.941  28.080  0.2422 -0.0676  0.3088
92281W        W35193  21.973  19.783  28.694  0.0244 -0.2165 -0.1873
92282W        W35194  18.155  18.494  30.022  0.2230  0.2187 -0.3187
92283W        W35195  20.438  20.288  29.695  0.0671 -0.4710  0.1770
92284W        W35196  20.344  19.655  29.769 -0.2002  0.0652 -0.0858
92285W        W35197  19.440  19.160  26.108 -0.0868  0.0252 -0.1101
92286W        W35198  21.045  19.220  25.034  0.1002  0.2442  0.1206
92287W        W35199  20.077  20.242  28.894  0.1270 -0.1282 -0.4437
92288W        W35200  21.718  20.653  30.419 -0.0846  0.1506  0.0682
92289W        W35201  20.611  19.431  26.262  0.1900 -0.2535 -0.0037
92290W        W35202  20.774  18.813  27.710 -0.4220  0.2096  0.1043
92291W        W35203  19.157  19.514  27.512 -0.1813 -0.0928 -0.0217
92292W        W35204  19.808  20.346  27.818 -0.0987  0.0853 -0.2456
92293W        W35205  20.243  19.047  25.349 -0.0982  0.1682 -0.0982
92294W        W35206  20.080  19.660  26.287  0.1128  0.1357  0.1295
92295W        W35207  18.530  18.372  29.019  0.0527  0.1314  0.0074
92296W        W35208  20.177  20.499  27.397  0.1912 -0.0076 -0.1566
92297W        W35209  19.778  19.117  25.613  0.2914 -0.1611 -0.1811
92298W        W35210  20.297  19.293  27.090 -0.0321  0.1541 -0.1119
92299W        W35211  20.156  18.058  27.448 -0.1177 -0.1917 -0.4735
92300W        W35212  18.990  18.104  27.976  0.0394 -0.2005  0.1982
92301W        W35213  18.303  18.669  27.689  0.0101 -0.2225  0.2407
92302W        W35214  21.304  21.769  29.721  0.1299  0.2942  0.0829
92303W        W35215  21.736  19.718  25.157  0.0129  0.1504 -0.2586
92304W        W35216  21.278  18.118  29.144  0.2948 -0.0700  0.0234
92305W        W35217  20.027  19.475  27.735 -0.3107  0.1019  0.0569
92306W        W35218  21.188  18.595  26.636 -0.0048  0.1106  0.1050
92307W        W35219  20.897  21.332   0.333 -0.0266  0.0330  0.1190
92308W        W35220  20.518  19.084  24.914 -0.0075  0.4646  0.4059
92309W        W35221  20.963  18.945  29.558 -0.1179  0.1951 -0.0535
92310W        W35222  19.781  20.494  26.220  0.2655 -0.0493 -0.3106
92311W        W35223  20.878  19.832  28.890 -0.0428 -0.2284 -0.0750
92312W        W35224  21.136  20.674  27.255  0.0359 -0.1102  0.1450
92313W        W35225  18.198  20.164  28.858  0.2422  0.0914 -0.2072
92314W        W35226  19.579  19.233  24.664  0.0043  0.0233  0.1755
92315W        W35227  19.752  20.130  25.181 -0.0216 -0.0687 -0.1137
92316W        W35228  20.151  21.275  28.306  0.0007 -0.2436  0.2180
92317W        W35229  20.753  19.508  30.200 -0.1840 -0.1432 -0.1214
92318W        W35230  19.670  17.721  26.598 -0.0011  0.0192 -0.0169
92319W        W35231  20.683  19.956  30.065 -0.2139 -0.0615  0.0740
92320W        W35232  18.930  20.858  25.127 -0.2516 -0.0688  0.0890
92321W        W35233  19.932  19.398  28.259  0.2480  0.1545  0.2036
92322W        W35234  19.177  21.065  27.685  0.3065 -0.1465  0.0602
92323W        W35235  18.748  20.220  27.637  0.1613 -0.0438 -0.2124
92324W        W35236  18.820  22.538  27.208 -0.0041  0.0718 -0.2482
92325W        W35237  19.238  18.668  26.696 -0.0561  0.1212  0.0304
92326W        W35238  19.488  18.461  28.573  0.1726 -0.2549  0.1227
92327W        W35239  19.213  20.415  27.084  0.0693 -0.3675 -0.0465
92328W        W35240  23.115  20.631  30.149  0.2270  0.0621  0.0605
92329W        W35241  21.212  19.552  28.665  0.1262  0.1356 -0.3279
92330W        W35242  19.547  19.949  27.155 -0.2044 -0.1016 -0.4518
92331W        W35243  21.203  20.386  30.145  0.1746 -0.1938 -0.0431
92332W        W35244  22.457  20.113  28.893 -0.1335  0.2407  0.1652
92333W        W35245  19.516  19.514  26.453  0.1108 -0.1497  0.0159
92334W        W35246  17.731  19.163  30.476  0.1141 -0.4202  0.0159
92335W        W35247  21.249  18.564  27.852 -0.1405  0.4391  0.2389
92336W        W35248  20.712  20.936  29.041 -0.2471  0.0947 -0.3878
92337W        W35249  18.858  17.900  25.813 -0.1332 -0.0824  0.2345
92338W        W35250  21.731  19.858  26.426  0.0963 -0.1832 -0.0267
92339W        W35251  18.762  18.475  29.914  0.1416  0.0452  0.0787
92340W        W35252  18.100  19.950  30.813 -0.0773 -0.1355  0.0346
92341W        W35253  18.980  20.166  26.226  0.0984  0.1098  0.1844
92342W        W35254  20.319  18.826  26.040 -0.1149  0.0781  0.0770
92343W        W35255  20.801  20.136  26.590 -0.1929 -0.1651 -0.0933
92344W        W35256  21.309  20.569  28.161  0.2272 -0.2484  0.1863
92345W        W35257  19.907  19.363  25.170  0.1039  0.0539  0.1292
92346W        W35258  18.106  21.060  25.906 -0.0249  0.0930 -0.2113
92347W        W35259  17.681  21.540  26.216  0.1153 -0.0309 -0.0097
92348W        W35260  20.367  20.460  26.673  0.0490  0.0263  0.1494
92349W        W35261  18.638  21.066  27.696 -0.1339  0.0405  0.4350
92350W        W35262  21.283  20.524  29.568 -0.0060  0.2770 -0.0579
92351W        W35263  21.843  18.248  26.023  0.0017 -0.1091  0.1245
92352W        W35264  20.533  20.207  27.958 -0.1166 -0.0034  0.0880
92353W        W35265  22.019  19.445  26.741 -0.0027 -0.3142 -0.1473
92354W        W35266  20.068  21.215  28.944 -0.1249  0.1921  0.0089
92355W        W35267  19.067  18.662  28.330 -0.2586 -0.3125 -0.1195
92356W        W35268  21.524  19.466  25.583  0.0211 -0.1825  0.2754
92357W        W35269  18.231  20.260  30.341  0.0132  0.0795  0.3390
92358W        W35270  20.804  18.027  29.161 -0.1261  0.2865  0.2414
92359W        W35271  18.566  20.169  29.293  0.1917 -0.0732  0.2202
92360W        W35272  20.717  20.964  26.271 -0.0319  0.1550  0.0916
92361W        W35273  19.570  18.944  26.514  0.2034  0.1724 -0.1351
92362W        W35274  20.603  18.204  28.354 -0.0640 -0.1819  0.0447
92363W        W35275  19.944  20.269  24.772 -0.1595  0.3609 -0.2430
92364W        W35276  19.557  18.954  29.559 -0.1601 -0.0620 -0.1314
92365W        W35277  18.651  21.654  25.934 -0.1673  0.0971 -0.2573
92366W        W35278  19.339  20.234  27.870 -0.0118  0.0716  0.4330
92367W        W35279  19.603  21.807  28.926 -0.1010 -0.0890  0.2651
92368W        W35280  21.251  18.812  29.127 -0.1533  0.2055 -0.1166
92369W        W35281  19.121  19.567  28.114 -0.0863 -0.1076  0.1125
92370W        W35282  20.220  17.813  30.387 -0.1728  0.1026  0.1256
92371W        W35283  19.172  19.403  25.681  0.1154  0.0907 -0.2962
92372W        W35284  19.959  19.849  28.616  0.0348  0.2032 -0.2544
92373W        W35285  20.544  19.864  29.347 -0.3072  0.2717 -0.0410
92374W        W35286  19.008  19.379  28.972  0.3777 -0.2531  0.1577
92375W        W35287  20.650  19.787  25.564  0.2013  0.0559  0.2731
92376W        W35288  22.378  21.257  31.307 -0.2648 -0.1980  0.2348
92377W        W35289  21.355  19.208  26.042 -0.0909 -0.1338  0.0540
92378W        W35290  22.290  20.621  30.642 -0.1273  0.0561  0.3361
92379W        W35291  20.368  19.029  26.520  0.3451  0.1921 -0.1303
92380W        W35292  19.174  19.904  26.690 -0.1826 -0.2219 -0.1607
92381W        W35293  19.631  20.346  28.297 -0.0867  0.0246  0.3187
92382W        W35294  20.455  23.027  30.389  0.1541  0.0283  0.1791
92383W        W35295  21.047  20.720  25.364 -0.1402  0.2606 -0.0921
92384W        W35296  20.733  19.358  28.628 -0.0029  0.0675  0.0033
92385W        W35297  20.579  21.580  27.290  0.3754 -0.2915 -0.0468
92386W        W35298  21.177  19.241  28.301  0.1061  0.1024 -0.2948
92387W        W35299  21.142  20.673  29.080 -0.1307 -0.0199 -0.0806
92388W        W35300  18.802  19.035  27.585 -0.1034 -0.0058 -0.2083
92389W        W35301  22.040  21.934  28.158 -0.0158  0.1002 -0.2636
92390W        W35302  22.149  19.952  30.206 -0.0684 -0.1932 -0.0187
92391W        W35303  20.022  18.154  26.644  0.1698  0.2658 -0.1545
92392W        W35304  19.502  19.129  26.935 -0.0177 -0.2796  0.1492
92393W        W35305  18.267  20.834  27.354 -0.0724  0.1420 -0.2655
92394W        W35306  22.048  18.102  28.098  0.2033 -0.3599  0.1029
92395W        W35307  19.454  18.006  29.772 -0.0232  0.0785  0.3313
92396W        W35308  19.647  22.279  26.182 -0.4252  0.0771 -0.3142
92397W        W35309  20.225  18.690  29.029  0.0609  0.0872  0.0238
92398W        W35310  19.099  21.482  28.166 -0.1807  0.1336  0.0102
92399W        W35311  19.566  20.026  29.623 -0.0814 -0.0990 -0.2686
92400W        W35312  18.225  20.768  24.977  0.4540  0.0107 -0.2451
92401W        W35313  19.494  21.203  28.135  0.1168  0.1244  0.1395
92402W        W35314  20.166  20.631  25.820 -0.0460  0.3653 -0.0548
92403W        W35315  19.122  22.445  26.242  0.0439 -0.1125 -0.2101
92404W        W35316  22.207  19.341  28.350  0.2939 -0.4179 -0.0497
92405W        W35317  20.665  19.989  26.090  0.2538  0.0302  0.3896
92406W        W35318  21.523  20.058  28.429 -0.1046 -0.2275 -0.1672
92407W        W35319  19.716  18.715  25.234 -0.1084 -0.0332 -0.1309
92408W        W35320  20.710  17.697  27.266  0.0799 -0.0287  0.1613
92409W        W35321  20.833  19.015  25.924  0.2956 -0.4102  0.1731
92410W        W35322  18.665  19.454  27.140 -0.1003 -0.1852  0.4301
92411W        W35323  18.249  21.368  27.748 -0.1520  0.0543 -0.0940
92412W        W35324  19.402  17.907  30.292 -0.1992  0.0916 -0.0176
92413W        W35325  18.058  17.600  30.139 -0.0670 -0.1523  0.0186
92414W        W35326  18.781  19.630  26.441 -0.4314 -0.1626  0.0716
92415W        W35327  21.110  18.180  26.431  0.0101 -0.0756  0.1409
92416W        W35328  18.162  17.246  28.372  0.1945  0.3162  0.0763
92417W        W35329  21.100  20.179  28.006 -0.1293 -0.0134 -0.0549
92418W        W35330  21.941  21.178  28.697 -0.1936  0.0600 -0.0714
92419W        W35331  19.655  18.688  26.017  0.0610 -0.2162  0.0240
92420W        W35332  21.550  22.662  30.702 -0.1599  0.0255  0.0487
92421W        W35333  18.469  20.748  25.871 -0.0396 -0.0083 -0.0116
92422W        W35334  19.993  18.750  28.607 -0.3245  0.3415 -0.0789
92423W        W35335  18.825  18.271  29.414 -0.0817 -0.2059 -0.1637
92424W        W35336  18.121  19.146  29.151 -0.1850  0.0321 -0.2585
92425W        W35337  18.685  21.707  26.998 -0.2964  0.1382 -0.0523
92426W        W35338  21.084  21.455  26.687 -0.3233 -0.1909  0.0271
92427W        W35339  19.652  21.039  29.280  0.0523 -0.2538  0.2447
92428W        W35340  18.765  19.726  29.622  0.0517  0.0064  0.1034
92429W        W35341  17.085  18.171  28.033 -0.1766  0.2398  0.2465
92430W        W35342  19.843  20.963  27.244 -0.1318 -0.3407 -0.1529
92431W        W35343  19.318  20.114  28.610  0.0437 -0.0063 -0.0349
92432W        W35344  21.291  19.680  27.001 -0.0595 -0.1256  0.3271
92433W        W35345  21.554  18.434  28.193 -0.0990  0.1606  0.1166
92434W        W35346  20.650  20.554  27.141  0.0461 -0.0835  0.6038
92435W        W35347  19.024  17.834  29.405  0.0910  0.1790 -0.1796
92436W        W35348  18.783  19.954  28.817 -0.1675  0.3172  0.1787
92437W        W35349  20.954  20.235  29.764 -0.3741 -0.1905 -0.0858
92438W        W35350  18.867  17.227  28.787 -0.0347 -0.2690  0.2144
92439W        W35351  20.200  19.955  27.569  0.1040  0.3142 -0.2240
92440W        W35352  21.325  19.996  27.433 -0.1759  0.1683  0.2801
92441W        W35353  19.345  20.411  29.299  0.0280  0.1052 -0.0408
92442W        W35354  20.381  19.346  25.796  0.2350  0.0616 -0.0365
92443W        W35355  19.649  20.063  29.031  0.0114 -0.0470  0.1703
92444W        W35356  20.156  18.932  28.050 -0.2401 -0.0874 -0.3383
92445W        W35357  20.530  18.305  28.835 -0.0845 -0.0441 -0.3238
92446W        W35358  22.097  20.246  26.322  0.0827  0.2154 -0.2064
92447W        W35359  19.861  21.577  27.997  0.1120 -0.1596  0.2180
92448W        W35360  20.999  21.495  31.368 -0.1482 -0.1644 -0.1840
92449W        W35361  20.629  20.332  28.857 -0.0156 -0.0867  0.1734
92450W        W35362  20.903  19.601  29.574  0.0868 -0.2727  0.4851
92451W        W35363  19.418  16.737  28.495  0.0749 -0.0186 -0.3489
92452W        W35364  19.658  20.414  27.337  0.0896 -0.0399  0.3618
92453W        W35365  19.481  20.794  26.954 -0.0021  0.0350  0.0886
92454W        W35366  20.270  18.830  26.988 -0.2031  0.0378  0.1666
92455W        W35367  19.111  18.685  26.118  0.0575 -0.2104 -0.2030
92456W        W35368  20.565  18.011  26.364 -0.0070 -0.1813 -0.0614
92457W        W35369  19.175  20.975  29.177 -0.4699 -0.0207 -0.1048
92458W        W35370  20.599  19.170  28.179 -0.3359  0.0107  0.2359
92459W        W35371  18.770  18.876  29.575 -0.0119  0.1625 -0.1830
92460W        W35372  21.236  19.686  27.812 -0.2404  0.0089 -0.0021
92461W        W35373  19.806  19.282  30.711  0.0377 -0.2067 -0.3542
92462W        W35374  17.772  19.482  29.224  0.0595  0.3597 -0.1248
92463W        W35375  18.020  19.618  28.790  0.2406  0.1233 -0.6465
92464W        W35376  18.903  20.289  30.408  0.0651 -0.0573 -0.0353
92465W        W35377  19.896  18.397  31.217 -0.1073 -0.0345 -0.2072
92466W        W35378  19.485  19.661  28.761  0.1223  0.3166  0.2226
92467W        W35379  20.044  18.057  29.752  0.2786 -0.0950 -0.3646
92468W        W35380  22.018  21.845  30.358  0.2532 -0.1426 -0.0137
92469W        W35381  19.545  21.007  30.074  0.0494  0.1431  0.1985
92470W        W35382  18.830  19.066  28.510  0.0671  0.1700  0.1748
92471W        W35383  21.003  20.182  29.250  0.2984 -0.1086 -0.1366
92472W        W35384  19.098  19.319  30.236 -0.2622  0.1981  0.1457
92473W        W35385  21.835  19.542  30.573 -0.3614  0.0094 -0.0388
92474W        W35386  20.655  21.019  29.553  0.3429 -0.2200  0.0441
92475W        W35387  17.489  18.202  29.813  0.2918  0.1259 -0.1211
92476W        W35388  22.409  22.046  31.776  0.1146  0.2069  0.1277
92477W        W35389  18.380  18.520  30.929 -0.2944  0.2586  0.0686
92478W        W35390  19.217  17.825  31.210  0.3275 -0.0436  0.2485
92479W        W35391  19.261  17.923  30.775 -0.2864 -0.0024  0.0405
92480W        W35392  18.314  20.511  30.813  0.1813 -0.0469  0.1840
92481W        W35393  21.418  18.071  31.151 -0.1985 -0.2173  0.1396
92482W        W35394  20.439  18.897  31.899 -0.0374  0.0200 -0.4153
92483W        W35395  18.943  17.024  30.290 -0.0692 -0.0526  0.2492
92484W        W35396  19.228  18.670  31.535 -0.5109 -0.0794 -0.1621
92485W        W35397  18.973  20.184  29.630  0.4259 -0.0927  0.2518
92486W        W35398  17.742  20.906  29.805  0.0313 -0.0542 -0.2012
92487W        W35399  19.954  19.930  29.943  0.3644  0.1701  0.1679
92488W        W35400  20.005  19.776  30.708 -0.0426 -0.1772  0.0971
92489W        W35401  20.131  19.184  29.820  0.2475  0.0154  0.0445
92490W        W35402  19.305  18.932  28.805  0.2249 -0.4287 -0.2089
92491W        W35403  20.749  20.314  30.565  0.1332 -0.0379 -0.0967
92492W        W35404  20.471  18.417  27.459  0.0254  0.3084 -0.4300
92493W        W35405  18.136  18.764  30.467 -0.2353  0.0297 -0.0908
92494W        W35406  18.434  19.123  30.689 -0.0203 -0.0171  0.3078
92495W        W35407  19.503  19.927  30.662 -0.0608  0.1744  0.1037
92496W        W35408  19.842  18.201  30.283  0.0309  0.3174  0.0527
92497W        W35409  22.365  20.250  31.342  0.0252  0.1161  0.0893
92498W        W35410  19.726  19.065  30.071  0.1245  0.1575 -0.1083
92499W        W35411  20.624  19.130  29.824 -0.1607  0.1051  0.0802
92500W        W35412  20.561  19.734  30.624 -0.1123 -0.1185 -0.2654
92501W        W35413  19.294  19.298  30.745  0.0031  0.3326  0.1438
92502W        W35414  20.619  20.462  30.093 -0.2394 -0.0585  0.2597
92503W        W35415  18.682  18.518  30.504  0.1979  0.0060 -0.2239
92504W        W35416  19.994  20.394  29.697 -0.5027  0.0280 -0.0837
92505W        W35417  20.255  18.488  30.762  0.1005 -0.0167 -0.1552
92506W        W35418  19.872  19.593  29.117 -0.0173  0.0600 -0.1265
92507W        W35419  19.812  20.525  29.186  0.3368 -0.1797 -0.2015
92508W        W35420  18.258  19.792  29.217 -0.1639  0.2186 -0.1461
92509W        W35421  21.307  23.312  28.388  0.1467 -0.1080  0.0445
92510W        W35422  19.512  18.810  30.442 -0.3615  0.2176 -0.0813
92511W        W35423  19.643  18.295  30.725 -0.0622 -0.2200  0.0190
92512W        W35424  19.353  20.593  28.754 -0.2635 -0.0524 -0.0718
92513W        W35425  20.992  19.097  30.418  0.2695 -0.0213 -0.2170
92514W        W35426  21.428  19.046  30.811  0.0238 -0.2320 -0.1525
92515W        W35427  20.159  21.156  29.468 -0.2750 -0.1534 -0.3262
92516W        W35428  19.748  21.471  28.534 -0.0607  0.2559 -0.1427
92517W        W35429  19.427  20.080  30.099 -0.2152  0.1597 -0.1399
92518W        W35430  17.713  17.843  28.535  0.2134  0.1217 -0.0484
92519W        W35431  18.582  18.899  30.118 -0.0732 -0.1658 -0.0887
92520W        W35432  19.018  19.851  30.901  0.0976 -0.0745 -0.3409
92521W        W35433  17.747  18.847  27.754  0.0052  0.1336 -0.1612
92522W        W35434  18.037  18.675  29.068  0.1421  0.0406  0.3777
92523W        W35435  19.872  20.884  31.079 -0.0298  0.1631  0.0269
92524W        W35436  22.288  21.990  31.024 -0.0270 -0.0225  0.1435
92525W        W35437  21.244  20.978   0.431 -0.2622 -0.2227  0.3039
92526W        W35438  19.077  24.567  18.770  0.0101  0.2217  0.1723
92527W        W35439  18.596  23.687  17.626  0.1408 -0.0542 -0.0089
92528W        W35440  20.679  23.587  16.040 -0.5865  0.1494 -0.2045
92529W        W35441  20.812  24.308  16.401  0.5323  0.1271 -0.0628
92530W        W35442  20.065  23.621  17.328 -0.2163  0.0295  0.0862
92531W        W35443  20.823  26.642  15.553 -0.0263 -0.1072 -0.0620
92532W        W35444  20.089  22.288  18.357  0.1714 -0.2844  0.1406
92533W        W35445  19.062  24.807  18.002 -0.1655  0.3348 -0.1330
92534W        W35446  19.982  25.319  20.388  0.1223 -0.0621 -0.0910
92535W        W35447  21.434  24.815  15.434 -0.1851 -0.1981 -0.0069
92536W        W35448  19.577  24.244  17.825 -0.0291 -0.1371 -0.2041
92537W        W35449  19.756  25.285  18.706  0.1446  0.2372 -0.2625
92538W        W35450  18.919  22.419  15.002 -0.1520 -0.3303  0.0006
92539W        W35451  18.275  23.410  17.351 -0.2987 -0.2835  0.2690
92540W        W35452  20.397  23.946  18.678  0.0965  0.1337 -0.1350
92541W        W35453  18.113  24.144  15.895 -0.3228  0.1471  0.0043
92542W        W35454  18.164  23.131  19.379  0.3701 -0.2223  0.2637
92543W        W35455  19.086  24.012  17.550  0.0881  0.4929 -0.0785
92544W        W35456  20.293  25.993  16.913  0.0839 -0.0309 -0.1119
92545W        W35457  20.159  22.658  17.963 -0.1439  0.5674 -0.3568
92546W        W35458  20.578  23.261  19.155  0.2228 -0.1706 -0.0759
92547W        W35459  19.564  26.339  18.506  0.0313  0.3096 -0.0630
92548W        W35460  19.284  24.386  15.380 -0.0049  0.1664 -0.1706
92549W        W35461  16.987  24.416  18.150 -0.1846  0.0478 -0.2980
92550W        W35462  18.770  24.451  17.791  0.1166 -0.0005  0.0483
92551W        W35463  22.992  22.978  18.411  0.0194  0.1777  0.0797
92552W        W35464  21.419  23.578  17.773 -0.3943  0.1003 -0.3833
92553W        W35465  19.739  26.149  19.212 -0.3782 -0.2673  0.2273
92554W        W35466  19.726  26.123  17.278 -0.2112 -0.2354  0.1708
92555W        W35467  20.123  23.286  19.417  0.0188 -0.3260  0.1232
92556W        W35468  17.433  24.524  16.668  0.1324  0.0306 -0.1206
92557W        W35469  18.094  26.026  17.639 -0.0689 -0.1128 -0.0485
92558W        W35470  19.313  25.268  15.862 -0.0658 -0.3359  0.0027
92559W        W35471  22.340  25.329  17.104  0.1926  0.0919  0.0947
92560W        W35472  20.771  24.396  18.991  0.3201 -0.0086  0.0471
92561W        W35473  19.483  25.706  20.535 -0.0409 -0.1808  0.1001
92562W        W35474  18.286  25.213  16.689 -0.0556  0.2135  0.0125
92563W        W35475  19.793  24.960  20.836 -0.0608 -0.2198  0.4419
92564W        W35476  17.897  25.243  19.644 -0.1196  0.4792 -0.0442
92565W        W35477  18.753  24.186  17.144  0.0682 -0.0254  0.1579
92566W        W35478  20.726  24.682  16.700  0.1290 -0.3179  0.1184
92567W        W35479  17.919  25.147  17.618  0.1633 -0.0784  0.0084
92568W        W35480  19.640  25.183  16.252  0.1468 -0.1048 -0.0199
92569W        W35481  18.426  25.142  19.787  0.1697  0.2081 -0.0783
92570W        W35482  18.969  26.005  18.760  0.0532  0.0775  0.1238
92571W        W35483  22.023  22.927  19.464  0.1384  0.1045  0.3028
92572W        W35484  18.720  25.916  16.960  0.1699  0.0135 -0.0676
92573W        W35485  20.788  23.767  16.578 -0.0146 -0.1535  0.0421
92574W        W35486  19.094  24.047  15.789  0.1558  0.1700 -0.5768
92575W        W35487  20.533  23.898  15.646  0.0686 -0.1892  0.0861
92576W        W35488  20.101  24.170  17.571  0.2388  0.0205  0.2839
92577W        W35489  18.445  26.290  16.778 -0.0705  0.1987  0.1540
92578W        W35490  19.631  23.231  16.787 -0.1340  0.1522 -0.0599
92579W        W35491  20.855  25.308  16.837 -0.1199 -0.2271  0.0132
92580W        W35492  18.917  23.390  16.609 -0.1279 -0.2768 -0.2112
92581W        W35493  20.561  23.540  18.294 -0.0007 -0.0541 -0.2302
92582W        W35494  19.468  26.640  19.297 -0.0330  0.0567 -0.0183
92583W        W35495  19.370  23.712  17.103  0.0241  0.0769  0.0312
92584W        W35496  22.524  26.030  15.990  0.0564  0.3474 -0.2565
92585W        W35497  22.377  25.245  18.202 -0.2884  0.1320 -0.2000
92586W        W35498  20.001  26.912  15.841 -0.2188 -0.0742 -0.0743
92587W        W35499  18.627  24.384  16.686  0.1397 -0.1217 -0.0478
92588W        W35500  18.701  23.402  20.096 -0.0063  0.1668  0.1743
92589W        W35501  19.040  24.054  18.042  0.0842 -0.3134  0.3223
92590W        W35502  18.017  22.592  15.738 -0.1331 -0.2074 -0.0861
92591W        W35503  21.830  24.411  20.598  0.0214  0.1910 -0.1257
92592W        W35504  18.240  25.859  19.686  0.2538 -0.0079  0.1108
92593W        W35505  22.274  23.423  17.123 -0.0679 -0.2072  0.5303
92594W        W35506  19.672  25.779  16.879  0.0972  0.0360  0.2934
92595W        W35507  20.650  24.307  18.493 -0.1763  0.2380 -0.1461
92596W        W35508  20.915  24.811  17.226  0.1406 -0.0229  0.1476
92597W        W35509  22.338  22.676  18.559  0.2576 -0.1628  0.0912
92598W        W35510  21.238  23.533  17.245 -0.0748  0.1299  0.2275
92599W        W35511  19.253  24.891  16.352  0.2364  0.1705  0.2972
92600W        W35512  19.049  24.593  16.811  0.1597  0.0299  0.0089
92601W        W35513  22.395  25.337  18.674  0.0011 -0.0240 -0.0752
92602W        W35514  21.227  24.025  16.363 -0.0580 -0.2013  0.1157
92603W        W35515  19.609  24.770  18.582  0.0975 -0.2389  0.1286
92604W        W35516  20.102  23.038  19.000 -0.0063  0.0435 -0.0691
92605W        W35517  20.051  25.616  19.050 -0.0312 -0.0595 -0.1023
92606W        W35518  17.270  25.263  15.259  0.0843 -0.0985  0.0055
92607W        W35519  17.556  24.758  17.689  0.4406  0.2431 -0.0024
92608W        W35520  18.366  24.596  15.347 -0.0984 -0.0234 -0.0187
92609W        W35521  19.692  24.003  18.291 -0.0149  0.0765  0.0155
92610W        W35522  19.463  25.480  17.216 -0.1098  0.0875 -0.1431
92611W        W35523  21.698  22.920  16.960 -0.0388  0.2317 -0.1056
92612W        W35524  19.619  23.203  18.252  0.0573  0.1069 -0.2133
92613W        W35525  21.123  23.045  16.251  0.0279  0.3971 -0.2813
92614W        W35526  17.603  25.770  17.332 -0.0962 -0.2876 -0.0330
92615W        W35527  21.347  25.517  16.761 -0.0507  0.2211  0.2053
92616W        W35528  21.224  23.491  16.229  0.2024 -0.1424 -0.0702
92617W        W35529  21.872  26.370  16.512  0.0151 -0.2600 -0.0382
92618W        W35530  17.506  22.696  16.231  0.1097  0.4123 -0.1582
92619W        W35531  19.176  22.694  17.374 -0.0467  0.1495 -0.1456
92620W        W35532  19.687  22.493  19.660 -0.1097 -0.0206 -0.1136
92621W        W35533  18.327  22.731  18.344 -0.1229  0.1077  0.0701
92622W        W35534  22.336  25.080  19.836  0.2350  0.1693  0.1078
92623W        W35535  19.304  22.430  16.448  0.0377  0.5361  0.2245
92624W        W35536  21.551  22.021  17.177 -0.0788  0.0141  0.0222
92625W        W35537  19.339  23.675  16.590  0.0146  0.1229  0.1818
92626W        W35538  17.800  24.874  16.397 -0.0763  0.2330  0.2312
92627W        W35539  20.542  22.758  18.941  0.4516 -0.1566 -0.0325
92628W        W35540  19.392  25.869  17.947 -0.0107  0.1102 -0.2558
92629W        W35541  22.678  25.560  19.649  0.0184 -0.0677  0.2036
92630W        W35542  22.171  24.798  18.121  0.0404 -0.1420 -0.0752
92631W        W35543  21.181  21.972  18.438  0.1601 -0.0678 -0.1961
92632W        W35544  19.418  23.288  16.090 -0.0701  0.0125 -0.3147
92633W        W35545  18.790  27.139  17.199 -0.1269  0.0928 -0.0269
92634W        W35546  19.721  25.128  17.578 -0.0977 -0.0137 -0.0181
92635W        W35547  19.746  23.398  15.518  0.1836 -0.1180 -0.0094
92636W        W35548  21.727  25.703  17.898  0.3899 -0.0448  0.2011
92637W        W35549  19.973  24.533  15.737 -0.0293 -0.2201  0.2243
92638W        W35550  17.054  24.404  18.945  0.0817  0.3167 -0.0951
92639W        W35551  21.068  22.853  17.307  0.0663 -0.1993  0.3336
92640W        W35552  19.652  23.349  18.748 -0.2291 -0.0306 -0.1361
92641W        W35553  20.581  24.040  17.427 -0.0815 -0.1277 -0.1823
92642W        W35554  18.990  23.745  16.181  0.0903 -0.4523 -0.0534
92643W        W35555  20.474  24.544  17.593 -0.1240 -0.1807  0.0124
92644W        W35556  18.430  25.045  15.810 -0.0758  0.1106 -0.1899
92645W        W35557  18.446  22.933  17.102 -0.0845  0.2994 -0.3343
92646W        W35558  17.809  24.980  16.905 -0.0773 -0.3110 -0.1108
92647W        W35559  23.014  23.485  17.148 -0.1578  0.0072  0.2084
92648W        W35560  17.492  24.392  19.514 -0.0983 -0.2512  0.2236
92649W        W35561  19.807  24.214  19.854  0.0456 -0.0352  0.2264
92650W        W35562  19.713  23.708  15.944 -0.0843  0.0112 -0.1195
92651W        W35563  19.214  25.035  18.442  0.1024 -0.1344 -0.0863
92652W        W35564  20.555  23.252  17.878  0.0837  0.2836 -0.1687
92653W        W35565  20.143  22.354  15.531  0.0427  0.1573 -0.3118
92654W        W35566  22.080  25.954  18.697  0.3675 -0.0204  0.3922
92655W        W35567  22.636  24.722  17.906 -0.0817 -0.3238  0.1342
92656W        W35568  21.398  24.353  15.729  0.0766  0.1181  0.2694
92657W        W35569  18.489  22.029  15.861 -0.0019 -0.1232 -0.1591
92658W        W35570  19.656  23.335  20.256  0.1946 -0.5562  0.1014
92659W        W35571  19.058  25.483  18.257 -0.2708 -0.1254  0.3390
92660W        W35572  21.779  24.999  17.121  0.2945 -0.0495  0.0528
92661W        W35573  20.298  23.486  16.572  0.0729  0.3610  0.0534
92662W        W35574  22.147  26.976  17.553 -0.0113  0.0627  0.3209
92663W        W35575  18.020  26.111  19.224 -0.0298 -0.0617 -0.0240
92664W        W35576  19.404  24.476  19.171  0.0604 -0.1976  0.0165
92665W        W35577  20.185  24.623  16.755  0.2799 -0.0063  0.1648
92666W        W35578  21.656  22.722  17.979  0.0798  0.1760  0.2992
92667W        W35579  19.583  24.246  15.778  0.0603  0.1864  0.2400
92668W        W35580  20.702  22.735  16.130 -0.0857 -0.3266 -0.2360
92669W        W35581  17.061  25.238  15.750  0.0453  0.1590 -0.0457
92670W        W35582  21.781  23.398  17.261  0.1832  0.0207  0.3215
92671W        W35583  21.473  23.043  17.499  0.0934 -0.1932  0.3837
92672W        W35584  20.276  25.158  18.822  0.1516  0.1263 -0.2695
92673W        W35585  22.274  25.354  19.375  0.2622  0.1016  0.1831
92674W        W35586  20.988  22.382  15.899  0.0191  0.0731 -0.1731
92675W        W35587  20.496  23.969  18.161 -0.1905  0.0123  0.2003
92676W        W35588  17.411  23.812  15.533  0.2144 -0.4920 -0.0810
92677W        W35589  18.433  24.027  19.079 -0.0990  0.2180  0.0289
92678W        W35590  18.658  23.736  19.583 -0.1395 -0.1204 -0.0896
92679W        W35591  19.515  25.877  18.823  0.2925  0.1125 -0.3001
92680W        W35592  20.742  24.884  19.005  0.0496 -0.3329 -0.0305
92681W        W35593  20.381  24.114  16.632 -0.2178 -0.0685 -0.0500
92682W        W35594  20.226  24.154  19.086 -0.1253 -0.0059  0.2357
92683W        W35595  20.082  23.209  17.044  0.1352  0.0301 -0.0116
92684W        W35596  19.948  25.361  16.699  0.3153 -0.0680  0.0246
92685W        W35597  19.646  24.726  16.104  0.0749 -0.3214 -0.1440
92686W        W35598  20.847  21.804  17.039 -0.0539 -0.0091 -0.1277
92687W        W35599  20.446  25.292  18.254 -0.1040  0.2083 -0.0524
92688W        W35600  18.178  24.644  16.723  0.1236  0.2754  0.1265
92689W        W35601  19.870  23.697  19.856  0.2622 -0.1293 -0.1577
92690W        W35602  19.167  24.563  15.920  0.0863  0.1535  0.3196
92691W        W35603  21.830  24.031  17.627  0.2151  0.1729 -0.1259
92692W        W35604  18.878  25.039  17.442 -0.1639  0.1617 -0.4346
92693W        W35605  20.031  24.147  17.035  0.1115  0.0482 -0.0755
92694W        W35606  18.912  23.233  16.117 -0.1262 -0.0551  0.1905
92695W        W35607  21.755  25.022  17.713  0.2290  0.0645  0.2188
92696W        W35608  21.727  24.657  16.840 -0.0015 -0.0476  0.0694
92697W        W35609  18.573  23.507  18.642 -0.1390  0.0173  0.0295
92698W        W35610  21.065  23.843  18.034 -0.1068 -0.1492 -0.1463
92699W        W35611  17.633  26.079  18.267  0.1136  0.0412  0.2461
92700W        W35612  20.599  23.052  18.366  0.0783  0.2002  0.0786
92701W        W35613  20.529  22.657  15.633 -0.2977  0.2079  0.3260
92702W        W35614  21.110  25.212  18.736 -0.2268  0.1676  0.0264
92703W        W35615  19.299  24.453  19.682 -0.1349 -0.0400 -0.0459
92704W        W35616  18.658  23.869  16.514  0.1720  0.1790  0.2144
92705W        W35617  21.004  23.969  18.622  0.3851  0.1082 -0.0722
92706W        W35618  19.209  23.625  17.889  0.0338  0.0598 -0.1896
92707W        W35619  17.470  25.188  16.167  0.0546  0.1355  0.1789
92708W        W35620  20.418  24.533  18.104  0.0129  0.2202 -0.0180
92709W        W35621  18.263  24.976  17.134 -0.1280  0.3043 -0.1283
92710W        W35622  17.170  26.046  17.421  0.1690 -0.1364 -0.1883
92711W        W35623  20.239  23.622  19.050 -0.2660 -0.0512 -0.0781
92712W        W35624  19.791  24.662  19.518  0.0568  0.2479  0.2306
92713W        W35625  19.103  24.136  16.717 -0.0516  0.1609 -0.2495
92714W        W35626  18.391  22.994  16.002 -0.1270  0.2520  0.0409
92715W        W35627  18.871  23.749  16.950  0.2126 -0.1819  0.2778
92716W        W35628  19.909  23.855  18.757 -0.0935 -0.4067 -0.0499
92717W        W35629  19.560  24.256  18.701 -0.1317 -0.3398  0.1451
92718W        W35630  18.017  25.709  20.129  0.2722  0.2121 -0.0112
92719W        W35631  22.484  23.012  18.962  0.1250  0.0363  0.0928
92720W        W35632  21.989  25.919  16.036  0.0609 -0.1471  0.5192
92721W        W35633  21.102  22.814  17.879  0.0328  0.4850 -0.1309
92722W        W35634  18.288  24.356  17.115  0.0411 -0.1895  0.2143
92723W        W35635  17.845  24.652  18.508  0.0771 -0.1138  0.2247
92724W        W35636  17.593  26.006  17.794  0.1882  0.2150  0.1943
92725W        W35637  19.907  24.515  19.068 -0.0007  0.0314  0.2348
92726W        W35638  19.756  25.854  18.270  0.2493 -0.4330  0.2435
92727W        W35639  18.632  22.561  15.926 -0.1737 -0.3635 -0.0917
92728W        W35640  17.029  25.802  20.154  0.0474  0.0225 -0.1662
92729W        W35641  21.031  21.971  15.012 -0.2327  0.0750 -0.0615
92730W        W35642  21.107  25.666  17.168  0.3657 -0.0517  0.0261
92731W        W35643  20.991  23.829  17.593 -0.2229  0.0231  0.2656
92732W        W35644  22.117  24.566  19.822 -0.0816  0.2399  0.3610
92733W        W35645  18.332  24.346  16.257 -0.1055 -0.0514 -0.0679
92734W        W35646  21.147  23.400  19.132 -0.2332 -0.1220  0.0044
92735W        W35647  19.204  22.700  18.396  0.0056  0.0508  0.2227
92736W        W35648  19.095  24.553  17.340 -0.1737  0.0291 -0.1358
92737W        W35649  19.738  21.988  19.650 -0.0063  0.4167 -0.0873
92738W        W35650  20.567  26.559  20.616  0.2512 -0.0906  0.1592
92739W        W35651  18.629  25.033  19.364  0.0592  0.1339  0.1785
92740W        W35652  20.695  22.610  17.096 -0.0683  0.2488 -0.3734
92741W        W35653  18.510  22.252  16.352  0.2135  0.1294  0.3484
92742W        W35654  20.964  25.806  18.588  0.0462 -0.1808  0.0634
92743W        W35655  20.973  23.203  17.601  0.0225  0.0665 -0.0236
92744W        W35656  19.252  25.447  16.393  0.1837  0.1638  0.0059
92745W        W35657  20.503  23.075  16.871  0.0498 -0.2371 -0.0510
92746W        W35658  17.930  23.913  18.276  0.2810  0.2149 -0.1870
92747W        W35659  19.414  24.477  16.433  0.0194 -0.1327  0.1008
92748W        W35660  21.325  24.766  15.952 -0.1101  0.4071 -0.0059
92749W        W35661  19.826  25.056  17.025  0.0227 -0.2371 -0.0028
92750W        W35662  18.731  22.448  17.204  0.2312  0.1686  0.0922
92751W        W35663  20.462  24.962  17.264 -0.0768 -0.1021  0.0799
92752W        W35664  19.508  23.873  15.440 -0.0300 -0.0717  0.1254
92753W        W35665  21.044  23.241  18.078  0.0312  0.3434 -0.0220
92754W        W35666  19.715  23.553  19.241  0.0398  0.1520  0.0566
92755W        W35667  18.706  24.676  19.850 -0.1326 -0.2639 -0.1858
92756W        W35668  19.502  22.236  18.253 -0.1912  0.1019  0.4471
92757W        W35669  20.794  26.334  18.470  0.0123 -0.2016  0.1191
92758W        W35670  21.612  23.651  16.462  0.0984  0.4120 -0.0240
92759W        W35671  21.263  24.255  18.934  0.2161  0.0274  0.2742
92760W        W35672  21.454  24.620  17.317 -0.4458 -0.0452  0.2671
92761W        W35673  19.490  24.546  16.961 -0.0693  0.4822  0.0038
92762W        W35674  19.385  24.466  18.259  0.0676 -0.1504  0.1907
92763W        W35675  20.379  24.017  20.039  0.2274  0.1314 -0.0673
92764W        W35676  19.736  21.966  15.499  0.1432 -0.0467  0.0783
92765W        W35677  21.804  23.525  18.947  0.2137  0.2173  0.2624
92766W        W35678  20.690  26.084  15.619  0.3794 -0.0995  0.3656
92767W        W35679  19.733  24.810  16.606  0.2283 -0.0964  0.0394
92768W        W35680  20.515  24.350  15.734  0.1056 -0.0552  0.2518
92769W        W35681  18.455  23.837  18.060  0.0002 -0.0646  0.1255
92770W        W35682  18.704  25.552  19.648  0.1920 -0.1226  0.0432
92771W        W35683  18.387  22.913  15.505 -0.1502  0.1620  0.1404
92772W        W35684  19.417  24.010  16.219  0.3476  0.1701  0.0959
92773W        W35685  19.400  25.021  18.969  0.0880  0.0564  0.1569
92774W        W35686  20.449  25.399  20.116 -0.2976 -0.0080  0.1978
92775W        W35687  18.421  22.280  15.415  0.0669  0.1120  0.1481
92776W        W35688  21.729  24.073  18.993  0.2056 -0.0205 -0.0185
92777W        W35689  18.323  25.694  16.728 -0.1736 -0.1891 -0.3934
92778W        W35690  20.670  22.688  16.620  0.0999  0.0273  0.1555
92779W        W35691  20.309  25.417  17.601 -0.3272  0.0601  0.1347
92780W        W35692  17.332  26.003  19.231 -0.1057 -0.0055 -0.1302
92781W        W35693  18.520  25.810  18.548 -0.2135 -0.1296 -0.1189
92782W        W35694  21.383  23.759  18.868  0.1617 -0.0503  0.1251
92783W        W35695  21.432  24.071  17.302  0.0714  0.1136  0.1883
92784W        W35696  19.656  24.108  16.702 -0.1999 -0.1005  0.0335
92785W        W35697  22.752  23.616  18.463 -0.1318  0.2665  0.1118
92786W        W35698  19.893  24.631  18.015 -0.0539  0.1023  0.1741
92787W        W35699  17.847  24.394  16.307 -0.1303 -0.0599  0.0025
92788W        W35700  20.175  25.827  19.963  0.0940  0.1415  0.2490
92789W        W35701  23.119  24.981  16.927  0.1255 -0.0376 -0.0523
92790W        W35702  17.345  25.277  18.499  0.0729  0.0440 -0.0004
92791W        W35703  20.284  22.324  17.572  0.1549  0.1474  0.0095
92792W        W35704  20.305  24.856  19.237 -0.1213  0.1953 -0.0706
92793W        W35705  20.873  24.292  17.932  0.1258  0.2079 -0.2328
92794W        W35706  18.779  22.582  15.433  0.1106 -0.0540  0.1453
92795W        W35707  20.106  25.004  16.328  0.0650 -0.1771 -0.0716
92796W        W35708  17.709  25.661  19.258  0.2812  0.0731  0.0399
92797W        W35709  18.014  24.789  18.013  0.0564  0.1438 -0.1078
92798W        W35710  18.673  26.270  16.327  0.2646 -0.2740 -0.0488
92799W        W35711  21.282  24.944  16.769  0.0794  0.0700 -0.1264
92800W        W35712  20.504  24.401  17.088 -0.0600 -0.2299  0.2515
92801W        W35713  20.929  26.010  18.025  0.0181 -0.1145  0.3485
92802W        W35714  19.146  22.691  15.945  0.1642 -0.1676 -0.0322
92803W        W35715  20.158  24.926  18.385 -0.1841  0.1861 -0.0256
92804W        W35716  17.549  25.044  15.659 -0.1066  0.1465 -0.1152
92805W        W35717  21.596  25.023  16.392  0.1259 -0.4072  0.3455
92806W        W35718  18.721  26.752  16.549 -0.3045 -0.0560  0.1220
92807W        W35719  21.766  24.070  20.019  0.0823  0.0934 -0.0461
92808W        W35720  20.633  21.275  15.143 -0.4419  0.2231 -0.0088
92809W        W35721  21.133  24.709  18.164 -0.0327 -0.0774 -0.2116
92810W        W35722  21.379  23.305  16.761  0.1368  0.2925 -0.1155
92811W        W35723  21.006  25.089  19.625  0.3611 -0.2534  0.1184
92812W        W35724  19.985  25.351  18.013  0.0531 -0.0436 -0.0743
92813W        W35725  20.687  23.213  16.379 -0.0015  0.0799  0.3197
92814W        W35726  19.514  25.014  18.015  0.1370  0.0421 -0.2776
92815W        W35727  21.216  23.818  19.513 -0.1412  0.0461  0.0828
92816W        W35728  16.886  25.337  18.728 -0.0626 -0.0483 -0.3335
92817W        W35729  21.250  26.279  15.590  0.0371 -0.0724 -0.0211
92818W        W35730  18.804  23.188  15.504  0.0555 -0.0459  0.0818
92819W        W35731  19.536  24.169  17.311 -0.0162 -0.0901 -0.0156
92820W        W35732  22.109  23.101  17.523  0.0879 -0.1559 -0.2265
92821W        W35733  19.414  25.133  16.782  0.2529  0.2561 -0.0900
92822W        W35734  23.248  22.601  17.849 -0.2842 -0.0559  0.1938
92823W        W35735  17.494  25.191  17.331  0.0311  0.1385 -0.2131
92824W        W35736  20.263  24.960  17.783  0.0301 -0.0910 -0.5535
92825W        W35737  20.914  25.372  18.046  0.2491  0.0366  0.2081
92826W        W35738  18.000  22.172  16.100  0.2685  0.0548  0.0223
92827W        W35739  22.268  24.009  17.106  0.0956 -0.0100  0.0970
92828W        W35740  19.724  23.759  17.769 -0.0113 -0.0097 -0.0438
92829W        W35741  21.863  23.910  18.567  0.1918 -0.0870  0.0854
92830W        W35742  20.064  24.174  18.054 -0.1448  0.0688 -0.0639
92831W        W35743  21.799  24.130  18.083 -0.0414 -0.0427 -0.0122
92832W        W35744  20.422  25.306  19.606  0.0202 -0.0993 -0.3274
92833W        W35745  18.455  24.184  17.552 -0.0922 -0.0777  0.4515
92834W        W35746  18.872  25.147  16.948 -0.3649 -0.0947  0.3240
92835W        W35747  22.552  24.999  20.427 -0.0215  0.0123 -0.0518
92836W        W35748  20.481  24.009  16.107 -0.3743 -0.0710 -0.1513
92837W        W35749  21.202  25.567  19.546 -0.1441  0.1994  0.1122
92838W        W35750  18.468  23.441  16.837  0.3010 -0.0044  0.0433
92839W        W35751  21.046  22.929  16.776 -0.0691  0.0173  0.1746
92840W        W35752  18.900  22.732  16.864 -0.0115  0.2581  0.1563
92841W        W35753  19.593  24.642  17.523  0.2879 -0.1520  0.3137
92842W        W35754  21.557  25.461  18.604 -0.0834  0.1152 -0.2147
92843W        W35755  19.225  23.528  15.731 -0.0159 -0.1060  0.0332
92844W        W35756  22.934  24.326  15.639  0.2201 -0.2864 -0.3855
92845W        W35757  21.227  24.266  18.340 -0.3107 -0.0330  0.0530
92846W        W35758  20.220  25.740  15.657 -0.2233  0.0635  0.1885
92847W        W35759  21.359  24.148  17.825 -0.0281 -0.1093  0.0900
92848W        W35760  21.355  25.190  18.138 -0.2767 -0.2193  0.0837
92849W        W35761  18.844  23.642  18.286 -0.0351 -0.1186 -0.0628
92850W        W35762  19.987  24.594  17.193 -0.3050 -0.0953 -0.1431
92851W        W35763  23.050  25.058  17.447  0.1195 -0.1984  0.1684
92852W        W35764  19.870  23.653  16.860 -0.1185  0.2025 -0.1115
92853W        W35765  17.907  24.097  17.257  0.0872  0.0818 -0.0551
92854W        W35766  19.315  26.361  18.947 -0.0111  0.1498  0.0010
92855W        W35767  21.114  24.430  16.940  0.1001  0.2087  0.1592
92856W        W35768  21.453  24.946  19.563  0.1787  0.3939  0.1994
92857W        W35769  19.109  25.707  15.950  0.4512  0.4955 -0.0918
92858W        W35770  21.730  21.673  19.191 -0.1522  0.1404  0.1026
92859W        W35771  20.278  24.370  19.560 -0.0583  0.2290  0.0431
92860W        W35772  18.581  24.976  17.970 -0.3055  0.1705  0.0985
92861W        W35773  18.132  23.777  16.213  0.1352 -0.0659  0.1025
92862W        W35774  20.006  24.388  18.522 -0.1512  0.1423  0.1214
92863W        W35775  18.706  25.092  18.423 -0.0072 -0.0461 -0.1168
92864W        W35776  18.924  25.519  17.327 -0.3329  0.0287 -0.1496
92865W        W35777  21.822  25.498  16.936  0.4374  0.0489  0.3550
92866W        W35778  18.963  24.251  16.254  0.3666 -0.3360 -0.0003
92867W        W35779  22.698  25.917  16.791  0.1211  0.0934 -0.2525
92868W        W35780  19.665  23.349  17.317 -0.2257 -0.1106  0.3427
92869W        W35781  20.368  23.067  16.022  0.0796  0.1891 -0.0917
92870W        W35782  20.375  22.653  15.134  0.2099  0.1779  0.0639
92871W        W35783  19.328  24.996  17.227 -0.2345 -0.1863  0.0116
92872W        W35784  17.652  24.606  15.850 -0.0947 -0.2055  0.1933
92873W        W35785  18.046  22.637  17.228  0.2933  0.1771 -0.2812
92874W        W35786  18.262  24.017  16.715 -0.3828 -0.0135 -0.1985
92875W        W35787  20.755  23.599  19.445  0.1250 -0.1132 -0.3087
92876W        W35788  20.659  22.553  18.128  0.2236 -0.1445  0.3103
92877W        W35789  16.533  25.317  18.238 -0.0421 -0.1273 -0.1217
92878W        W35790  18.337  23.020  16.591  0.3661 -0.3768  0.0122
92879W        W35791  22.167  24.634  17.116 -0.4058 -0.0606 -0.0690
92880W        W35792  20.004  23.297  17.681 -0.0355  0.0413 -0.2223
92881W        W35793  18.363  23.884  17.220 -0.0831  0.0421 -0.1828
92882W        W35794  21.686  24.420  15.282 -0.1927  0.1169  0.0029
92883W        W35795  20.800  25.919  16.748 -0.1897  0.0723  0.0735
92884W        W35796  19.869  23.387  16.362 -0.1738  0.1932 -0.2965
92885W        W35797  21.193  25.688  18.986 -0.4211  0.1585  0.0999
92886W        W35798  16.557  24.343  16.698 -0.0161  0.2984  0.1397
92887W        W35799  19.343  23.655  18.391 -0.0779 -0.1647  0.1321
92888W        W35800  20.217  22.749  18.552  0.1760 -0.3662 -0.0629
92889W        W35801  17.942  22.983  16.167 -0.2247  0.3390  0.1685
92890W        W35802  20.569  23.394  17.379 -0.1115  0.0677  0.2503
92891W        W35803  19.878  26.352  16.858 -0.0702  0.0109 -0.0011
92892W        W35804  20.961  24.960  16.331  0.5072  0.0475  0.0788
92893W        W35805  21.004  24.340  17.476 -0.0227 -0.1664 -0.0624
92894W        W35806  18.988  25.154  19.809 -0.0587  0.2855 -0.0391
92895W        W35807  18.761  23.285  17.327 -0.2452 -0.0844 -0.2203
92896W        W35808  20.002  25.536  17.199 -0.0212  0.0467 -0.0746
92897W        W35809  19.041  25.856  19.905  0.1795 -0.0410  0.0225
92898W        W35810  21.877  25.498  16.424  0.1240 -0.3693  0.0177
92899W        W35811  22.182  24.349  19.287 -0.1839  0.0269  0.2916
92900W        W35812  20.853  23.432  16.936 -0.0933  0.0356  0.1087
92901W        W35813  17.847  23.005  18.303 -0.1335 -0.0319 -0.0635
92902W        W35814  18.678  25.511  19.105  0.1321  0.1684 -0.1524
92903W        W35815  21.626  24.419  18.629  0.3696 -0.2142  0.2219
92904W        W35816  20.422  22.929  17.517 -0.2765 -0.3447  0.0999
92905W        W35817  21.274  23.805  16.819  0.0256  0.3015 -0.3963
92906W        W35818  20.569  25.244  16.197  0.1217  0.0776  0.2110
92907W        W35819  18.242  24.332  18.147  0.2493  0.2811  0.0461
92908W        W35820  19.923  23.990  16.333 -0.0270 -0.0765  0.1350
92909W        W35821  19.827  24.694  20.432  0.1707  0.0624 -0.1556
92910W        W35822  20.417  25.124  16.761 -0.3767 -0.1383 -0.0563
92911W        W35823  21.133  24.688  18.695  0.0136 -0.1451 -0.1406
92912W        W35824  20.209  23.588  15.993 -0.2077  0.1712  0.1544
92913W        W35825  23.064  24.001  16.628 -0.4388  0.3878 -0.0080
92914W        W35826  22.278  25.727  18.008 -0.0542 -0.0604 -0.1624
92915W        W35827  21.675  27.069  18.847  0.0830  0.2013  0.1410
92916W        W35828  19.847  25.791  19.524 -0.0686 -0.2082 -0.2556
92917W        W35829  20.744  24.897  17.901  0.1190 -0.0061 -0.0023
92918W        W35830  18.681  21.827  18.330 -0.1762  0.2637  0.0495
92919W        W35831  18.771  24.895  16.526  0.1051  0.0296 -0.2589
92920W        W35832  18.683  24.727  17.107  0.4017  0.0468  0.1694
92921W        W35833  22.032  24.880  19.434 -0.1676  0.1715  0.1636
92922W        W35834  19.288  22.417  16.941 -0.0032 -0.2755  0.2750
92923W        W35835  20.401  23.759  17.002 -0.0803 -0.1047 -0.1810
92924W        W35836  19.993  26.010  18.719 -0.0423 -0.1275 -0.1639
92925W        W35837  20.646  23.545  18.784  0.1826 -0.2106 -0.1462
92926W        W35838  18.963  24.693  22.483  0.1997  0.0488 -0.0856
92927W        W35839  18.249  23.724  20.483  0.3469 -0.0789 -0.2630
92928W        W35840  22.208  24.074  19.750  0.0763 -0.0364 -0.2043
92929W        W35841  22.899  25.820  21.168 -0.0720  0.3091 -0.0953
92930W        W35842  17.687  23.289  20.315  0.2018  0.3346 -0.1127
92931W        W35843  20.798  25.824  20.225  0.3056 -0.1449  0.0056
92932W        W35844  18.515  22.068  21.202  0.0753 -0.2788  0.2767
92933W        W35845  20.993  24.322  21.687 -0.0100 -0.1371  0.0335
92934W        W35846  20.428  25.475  20.674 -0.1611 -0.3296  0.0259
92935W        W35847  19.720  24.461  20.861 -0.0366 -0.1467 -0.1954
92936W        W35848  19.650  23.990  21.235  0.1953 -0.0212 -0.2190
92937W        W35849  20.495  24.391  24.085 -0.0632  0.0964 -0.2783
92938W        W35850  19.906  22.327  20.089 -0.1039  0.1839  0.3874
92939W        W35851  19.140  23.638  20.459  0.1251 -0.0594  0.0118
92940W        W35852  20.449  23.571  21.948 -0.1917 -0.0845 -0.0799
92941W        W35853  19.442  23.926  20.200 -0.4124 -0.0225  0.1448
92942W        W35854  20.504  22.580  21.146  0.1207  0.2052  0.0266
92943W        W35855  21.586  23.500  19.372  0.0261 -0.0842  0.0539
92944W        W35856  17.618  24.848  20.750 -0.0353 -0.1429  0.1733
92945W        W35857  21.149  21.641  22.469 -0.0989 -0.0387  0.0320
92946W        W35858  21.557  22.824  21.567 -0.0227  0.1811 -0.1707
92947W        W35859  19.140  25.192  20.973 -0.0034 -0.2020 -0.1072
92948W        W35860  17.932  24.576  19.225 -0.1839 -0.2036 -0.4325
92949W        W35861  18.184  23.458  21.570  0.1051  0.1916  0.0964
92950W        W35862  18.348  25.326  20.572  0.2008  0.0880 -0.1772
92951W        W35863  20.891  22.750  19.752  0.1475  0.0524 -0.1000
92952W        W35864  21.981  24.358  21.948 -0.2404  0.0429  0.0596
92953W        W35865  19.985  26.565  22.548  0.1406 -0.1951  0.1476
92954W        W35866  19.431  24.905  21.709  0.3801 -0.0018 -0.0332
92955W        W35867  21.217  23.583  23.199  0.0170  0.2724  0.2172
92956W        W35868  18.596  24.473  21.586  0.0738  0.0799 -0.2961
92957W        W35869  17.661  25.363  21.709  0.1612  0.0276  0.0881
92958W        W35870  19.130  26.047  22.355 -0.0453  0.0759 -0.2682
92959W        W35871  22.697  24.510  21.661  0.1880  0.3585 -0.0531
92960W        W35872  21.541  24.352  22.889  0.0502  0.0542  0.1484
92961W        W35873  19.118  25.526  24.611  0.0539  0.1772  0.0617
92962W        W35874  18.777  24.481  20.363  0.0016  0.2919 -0.2126
92963W        W35875  19.900  24.607  24.658  0.4430 -0.0823 -0.0216
92964W        W35876  20.319  24.862  24.972  0.2064 -0.2148  0.2594
92965W        W35877  21.094  22.699  21.756 -0.2309 -0.0259  0.1856
92966W        W35878  19.661  24.461  21.373 -0.0446  0.0281 -0.0874
92967W        W35879  19.964  25.907  20.483  0.0295  0.1085  0.0584
92968W        W35880  20.386  25.020  22.420  0.3552  0.1706  0.0585
92969W        W35881  20.867  24.185  23.725  0.0756  0.2721  0.3364
92970W        W35882  19.987  26.146  22.253  0.1294 -0.0949 -0.0129
92971W        W35883  21.536  22.455  21.925  0.0002  0.0924 -0.1138
92972W        W35884  20.609  26.052  20.632 -0.0965 -0.0899  0.0577
92973W        W35885  21.524  24.306  20.969 -0.2821  0.0883  0.0469
92974W        W35886  20.860  21.834  18.924  0.3334 -0.1782  0.0263
92975W        W35887  21.876  23.742  21.125  0.0998 -0.0781  0.0495
92976W        W35888  19.368  22.566  20.937 -0.0983  0.1229  0.0734
92977W        W35889  18.568  25.106  21.089 -0.2024  0.1673 -0.1023
92978W        W35890  20.308  21.672  21.479  0.1153 -0.0635  0.1069
92979W        W35891  21.618  23.967  23.316  0.1670  0.0607  0.0838
92980W        W35892  19.499  23.955  20.728  0.0329  0.0375 -0.0821
92981W        W35893  21.528  23.561  21.414  0.1161  0.0159 -0.1970
92982W        W35894  19.225  24.959  23.370  0.1582  0.0523 -0.1735
92983W        W35895  17.447  23.534  21.102 -0.2988 -0.2207  0.0065
92984W        W35896  20.654  25.718  19.700 -0.0245  0.3714 -0.0576
92985W        W35897  21.932  24.664  21.161 -0.0199 -0.0474  0.0310
92986W        W35898  20.763  25.268  21.041 -0.1150  0.0104 -0.0437
92987W        W35899  18.139  24.124  20.983 -0.1479 -0.0621  0.5103
92988W        W35900  19.416  24.453  23.337  0.0369 -0.0942  0.0490
92989W        W35901  19.471  23.387  23.011  0.0625  0.1360  0.1536
92990W        W35902  19.842  24.052  19.421  0.3341  0.0504 -0.6333
92991W        W35903  21.371  24.876  23.370 -0.0272 -0.0549 -0.2155
92992W        W35904  19.490  25.148  22.976 -0.0221  0.1688  0.2848
92993W        W35905  22.987  23.772  22.216  0.2474 -0.0938 -0.2607
92994W        W35906  19.462  25.409  21.928  0.0374 -0.0416 -0.1268
92995W        W35907  20.770  26.657  22.036 -0.0314 -0.0569  0.0547
92996W        W35908  21.203  24.732  19.157 -0.1241 -0.3078 -0.2698
92997W        W35909  21.078  22.520  20.874 -0.0013  0.0679  0.1684
92998W        W35910  22.163  23.096  21.664 -0.1371  0.0728  0.1905
92999W        W35911  19.437  23.980  19.663 -0.1965 -0.2582  0.0634
93000W        W35912  19.521  25.635  21.056 -0.3268  0.1600  0.2012
93001W        W35913  22.574  25.009  22.617 -0.0731 -0.0098  0.1320
93002W        W35914  21.340  24.231  20.377 -0.1347 -0.4159 -0.1471
93003W        W35915  20.145  24.541  22.167 -0.0837 -0.1203 -0.1250
93004W        W35916  19.376  23.024  22.323  0.0667 -0.1301 -0.0739
93005W        W35917  22.092  24.404  24.080 -0.1346 -0.0798 -0.0918
93006W        W35918  18.547  25.604  20.136 -0.2166  0.3003  0.1890
93007W        W35919  19.005  24.715  22.001  0.2378  0.0667 -0.0058
93008W        W35920  17.494  26.160  20.151  0.0658 -0.2456  0.1824
93009W        W35921  19.785  22.444  20.560  0.2255 -0.3186  0.0303
93010W        W35922  20.603  25.324  22.789  0.4587  0.1843  0.4232
93011W        W35923  21.644  23.119  21.162 -0.1534 -0.3068 -0.2152
93012W        W35924  19.870  21.918  20.490  0.2262 -0.0759 -0.0859
93013W        W35925  22.569  23.073  20.203  0.1815  0.1820  0.0510
93014W        W35926  18.044  25.636  21.816 -0.0436  0.1826 -0.3354
93015W        W35927  21.225  24.815  21.706 -0.2530 -0.1152 -0.0385
93016W        W35928  22.357  23.799  20.141  0.0361 -0.0451  0.1495
93017W        W35929  20.338  24.590  18.824  0.1105 -0.0877 -0.0207
93018W        W35930  17.338  25.252  20.899  0.2132 -0.3485 -0.2771
93019W        W35931  18.956  24.207  19.976  0.0709  0.0728  0.0240
93020W        W35932  19.342  23.466  22.542  0.0854 -0.2903 -0.2067
93021W        W35933  19.122  24.188  20.657  0.0223  0.3758  0.0582
93022W        W35934  21.677  23.384  21.845 -0.2352  0.0190 -0.2919
93023W        W35935  19.148  22.451  17.823 -0.0877  0.2049  0.2850
93024W        W35936  22.083  23.585  21.524  0.1291  0.0816 -0.3152
93025W        W35937  19.194  24.173  21.134  0.0404 -0.2516  0.2008
93026W        W35938  18.717  23.939  20.330 -0.0512  0.0624  0.1736
93027W        W35939  20.679  22.668  22.054  0.0116  0.1078  0.0477
93028W        W35940  19.953  25.878  21.178 -0.1601  0.1652 -0.1886
93029W        W35941  22.318  23.967  23.458  0.1366 -0.1227 -0.0195
93030W        W35942  19.908  25.656  22.108  0.4979 -0.0192  0.2194
93031W        W35943  19.620  23.616  21.638  0.0627  0.2667 -0.1498
93032W        W35944  18.513  24.208  19.597 -0.1864 -0.2390 -0.1670
93033W        W35945  19.152  26.415  22.061 -0.0841 -0.0336  0.1621
93034W        W35946  20.153  24.800  21.732 -0.4866  0.3045 -0.0402
93035W        W35947  17.249  24.469  20.400 -0.1523 -0.0629  0.3839
93036W        W35948  20.071  26.211  21.725 -0.1818  0.0361 -0.2627
93037W        W35949  19.869  24.128  20.449  0.3340 -0.1134  0.2446
93038W        W35950  20.557  24.260  21.003 -0.1575 -0.0160  0.1750
93039W        W35951  21.794  22.179  21.499  0.2563 -0.0107 -0.5492
93040W        W35952  21.871  23.852  21.933  0.1604 -0.1443 -0.0966
93041W        W35953  21.345  23.998  21.726  0.0625 -0.0630  0.0718
93042W        W35954  18.578  24.404  18.841  0.0876  0.0685  0.0667
93043W        W35955  18.958  24.079  21.605  0.3239 -0.0196  0.4859
93044W        W35956  18.437  25.836  21.430  0.1851 -0.0805 -0.0503
93045W        W35957  18.358  23.794  22.279 -0.1605  0.4101 -0.5350
93046W        W35958  18.422  26.702  22.751 -0.2594 -0.0247  0.0322
93047W        W35959  21.351  23.028  22.067 -0.0628 -0.0910  0.0023
93048W        W35960  18.850  24.715  22.977 -0.0417 -0.0578  0.1180
93049W        W35961  21.654  21.855  22.558 -0.1882 -0.1498  0.0424
93050W        W35962  16.115  24.356  19.634  0.0863 -0.0588 -0.1381
93051W        W35963  19.344  25.244  24.203  0.1195  0.1891 -0.1704
93052W        W35964  20.113  23.458  21.611 -0.0863  0.1503 -0.1607
93053W        W35965  21.258  24.118  19.882  0.0858 -0.1132 -0.1028
93054W        W35966  20.307  24.595  23.478 -0.0056  0.1028  0.3441
93055W        W35967  21.907  25.619  20.033  0.3088  0.2085  0.0873
93056W        W35968  22.316  23.480  18.755  0.1870  0.0857  0.0143
93057W        W35969  21.677  24.496  19.259  0.0863 -0.1585 -0.0059
93058W        W35970  20.265  23.691  23.384  0.1582 -0.0038  0.0534
93059W        W35971  19.252  24.686  20.568 -0.3285 -0.1042  0.2020
93060W        W35972  20.209  24.561  20.693 -0.0030 -0.1125 -0.0064
93061W        W35973  21.521  22.691  19.641 -0.2473 -0.2923  0.2053
93062W        W35974  22.273  25.384  20.286  0.0116  0.0344 -0.1101
93063W        W35975  20.392  25.092  23.288 -0.3114  0.1414  0.2473
93064W        W35976  20.830  24.236  22.755  0.0232  0.2383  0.1779
93065W        W35977  20.444  25.828  22.205 -0.0769  0.0861  0.0604
93066W        W35978  20.665  22.404  21.636 -0.1939 -0.2814 -0.0114
93067W        W35979  19.575  23.375  19.677 -0.1871 -0.1658 -0.4095
93068W        W35980  20.229  22.212  21.293  0.0472 -0.0093 -0.0861
93069W        W35981  17.250  25.224  19.884  0.0130 -0.2959  0.2172
93070W        W35982  21.468  22.873  22.523  0.0396 -0.0464 -0.2458
93071W        W35983  21.686  22.450  22.463 -0.0173 -0.0225 -0.0204
93072W        W35984  21.084  22.382  21.356 -0.3491 -0.0580 -0.0261
93073W        W35985  21.268  22.199  23.184  0.4465 -0.1307 -0.0295
93074W        W35986  20.743  24.110  19.517  0.0104  0.0109  0.0796
93075W        W35987  20.483  24.057  22.000  0.1637 -0.0626  0.3592
93076W        W35988  18.077  23.709  19.515 -0.2771  0.0204 -0.0324
93077W        W35989  21.005  23.396  22.420 -0.0393  0.0605  0.3187
93078W        W35990  18.657  24.190  22.084 -0.0101 -0.0014 -0.0432
93079W        W35991  19.194  24.255  22.090 -0.2135  0.1018  0.2501
93080W        W35992  21.170  25.264  21.922 -0.3449 -0.1263  0.1351
93081W        W35993  20.659  24.741  20.749  0.2243 -0.2048 -0.0467
93082W        W35994  20.347  24.074  23.714 -0.2044  0.2734 -0.0183
93083W        W35995  20.756  21.626  19.429  0.1634 -0.0119 -0.1927
93084W        W35996  18.264  25.455  19.369  0.3540 -0.2162 -0.2633
93085W        W35997  20.241  25.687  21.668 -0.0675  0.0634 -0.2293
93086W        W35998  18.818  22.404  20.752  0.0456 -0.0427  0.1364
93087W        W35999  19.564  25.197  23.616 -0.1518 -0.0023  0.4190
93088W        W36000  19.401  24.974  19.540 -0.0484  0.2260 -0.1384
93089W        W36001  20.867  23.563  22.864  0.1254  0.0973 -0.1531
93090W        W36002  18.047  26.724  22.368 -0.1597  0.1302  0.2481
93091W        W36003  21.953  23.104  22.489 -0.2507 -0.1848 -0.1493
93092W        W36004  19.008  25.210  21.893 -0.1943 -0.2427  0.0231
93093W        W36005  20.406  22.903  20.812 -0.1944 -0.3822  0.3261
93094W        W36006  17.932  25.164  20.200  0.4381 -0.0156  0.4228
93095W        W36007  22.120  23.349  20.333 -0.2240  0.5079  0.2552
93096W        W36008  21.533  24.469  21.544  0.1515 -0.1429  0.0406
93097W        W36009  19.675  23.763  22.156 -0.2282  0.0418 -0.2944
93098W        W36010  19.876  22.916  20.688 -0.1706 -0.0867 -0.2380
93099W        W36011  18.690  25.156  22.230 -0.3917 -0.0023  0.2074
93100W        W36012  20.136  23.815  22.299  0.0717 -0.0268  0.0416
93101W        W36013  22.837  21.675  20.390 -0.1885 -0.0432 -0.0962
93102W        W36014  20.675  24.857  21.942 -0.0364 -0.0882 -0.2143
93103W        W36015  20.894  25.250  23.249  0.3592 -0.2249  0.0707
93104W        W36016  18.336  23.131  18.866 -0.1116 -0.3124  0.3008
93105W        W36017  19.993  23.910  21.813  0.2736  0.1874 -0.0039
93106W        W36018  20.897  23.264  19.811 -0.3860  0.0789  0.1274
93107W        W36019  19.729  25.413  22.513 -0.1182 -0.4336  0.3701
93108W        W36020  20.732  25.380  22.259 -0.4549  0.2039  0.1806
93109W        W36021  19.926  23.629  20.715  0.1100  0.2172 -0.0494
93110W        W36022  18.574  25.606  21.880 -0.3966  0.1718  0.0079
93111W        W36023  20.173  22.584  21.682 -0.0165 -0.3080  0.0308
93112W        W36024  20.594  24.760  22.971 -0.0432  0.0731  0.0541
93113W        W36025  20.411  23.800  20.614 -0.2853  0.0982  0.0226
93114W        W36026  20.242  22.656  20.365  0.4057 -0.0812  0.0091
93115W        W36027  21.011  23.817  20.452  0.1052 -0.3393  0.1142
93116W        W36028  21.546  24.842  22.649  0.0193 -0.0617 -0.0378
93117W        W36029  20.990  22.924  22.506  0.1843 -0.1994 -0.1717
93118W        W36030  18.731  24.962  25.157  0.2423 -0.0422  0.0603
93119W        W36031  19.028  22.731  19.358 -0.0031  0.1607  0.1125
93120W        W36032  21.432  26.107  19.332 -0.3197 -0.1116  0.2114
93121W        W36033  20.276  23.047  21.297  0.2146 -0.0483  0.1111
93122W        W36034  18.945  24.542  20.965  0.1166  0.1312  0.2789
93123W        W36035  18.501  25.043  21.702 -0.0362  0.0450 -0.0433
93124W        W36036  18.930  26.039  21.332  0.2041  0.0341 -0.0611
93125W        W36037  20.324  22.071  21.841  0.0945 -0.1783 -0.2432
93126W        W36038  20.057  24.313  21.539  0.1623  0.2035  0.2060
93127W        W36039  19.617  25.744  21.604 -0.2981 -0.3229  0.0460
93128W        W36040  19.271  25.388  21.409  0.1809 -0.3690 -0.3386
93129W        W36041  22.009  22.743  21.229  0.1199  0.0819 -0.0409
93130W        W36042  17.657  26.046  19.588  0.1846  0.1391  0.1270
93131W        W36043  20.485  23.006  19.591 -0.1268  0.0726 -0.0456
93132W        W36044  21.927  23.136  23.461  0.3397 -0.3215  0.0441
93133W        W36045  20.442  23.535  19.970  0.0580  0.2030 -0.1416
93134W        W36046  19.975  23.304  22.080  0.1220 -0.6229 -0.1982
93135W        W36047  20.743  22.055  21.091  0.0744  0.0827  0.2884
93136W        W36048  20.756  23.784  21.013 -0.0565 -0.1873  0.1120
93137W        W36049  18.424  23.102  20.938  0.2097 -0.0100  0.0709
93138W        W36050  20.088  25.756  24.486 -0.0482  0.0863  0.0967
93139W        W36051  18.516  25.078  22.801 -0.0473 -0.1747  0.0717
93140W        W36052  22.170  23.024  19.886 -0.1497  0.0844 -0.2268
93141W        W36053  21.267  21.503  18.996 -0.3499 -0.0011  0.1354
93142W        W36054  19.212  23.764  21.969 -0.4438 -0.1814  0.1522
93143W        W36055  21.837  25.078  19.930  0.1810 -0.2599  0.2875
93144W        W36056  20.024  23.181  19.902  0.0528  0.0516 -0.2410
93145W        W36057  20.698  22.909  21.524  0.1155 -0.1612  0.0993
93146W        W36058  20.180  24.648  22.738  0.2350  0.1507  0.3335
93147W        W36059  21.064  23.705  21.418 -0.2551 -0.4039 -0.2202
93148W        W36060  19.419  24.454  20.192  0.1037  0.1325 -0.2397
93149W        W36061  18.867  26.557  22.871  0.0163 -0.0140  0.0192
93150W        W36062  19.725  22.036  22.741  0.1672 -0.0536  0.4405
93151W        W36063  20.666  24.274  23.270 -0.0255 -0.0794  0.2215
93152W        W36064  20.531  24.469  21.603 -0.2028 -0.0492 -0.0946
93153W        W36065  20.985  24.103  22.252  0.1548  0.0411 -0.0896
93154W        W36066  21.236  23.928  20.878  0.0246 -0.0942 -0.0894
93155W        W36067  19.287  23.234  23.884  0.5006  0.0223 -0.2415
93156W        W36068  18.833  22.858  21.041 -0.0975  0.0025  0.0584
93157W        W36069  20.660  24.578  22.380  0.2554  0.0923  0.0012
93158W        W36070  21.017  24.666  20.336 -0.1590  0.0219  0.1033
93159W        W36071  20.527  23.311  22.382  0.0330  0.2169  0.1351
93160W        W36072  22.448  23.766  21.251  0.0297  0.0924 -0.1792
93161W        W36073  18.922  24.123  19.139  0.1138  0.1215 -0.3993
93162W        W36074  19.523  23.571  21.037  0.1161  0.0158 -0.0852
93163W        W36075  21.110  23.098  22.997 -0.1575  0.0500 -0.2409
93164W        W36076  19.527  22.886  17.830 -0.3648  0.0020 -0.2822
93165W        W36077  19.902  23.397  22.610  0.0121 -0.1696  0.2908
93166W        W36078  18.956  24.673  19.270  0.0556  0.3169  0.1871
93167W        W36079  19.880  24.861  21.291 -0.1074 -0.2228 -0.1558
93168W        W36080  20.683  24.373  19.988 -0.0301 -0.2198  0.0183
93169W        W36081  18.640  23.485  20.662  0.0781 -0.0187  0.0558
93170W        W36082  18.666  25.543  23.173  0.0302  0.1504 -0.0338
93171W        W36083  18.822  23.202  19.185 -0.2238 -0.2390 -0.1393
93172W        W36084  20.666  25.431  18.727  0.0224  0.0672  0.1097
93173W        W36085  19.795  24.311  22.874 -0.1120 -0.1679 -0.1479
93174W        W36086  22.570  23.586  23.677 -0.0314  0.2535  0.2012
93175W        W36087  19.611  21.452  19.727 -0.2043 -0.3265  0.0866
93176W        W36088  21.719  23.863  22.856 -0.0139  0.0374  0.1731
93177W        W36089  16.694  26.717  20.101 -0.1021 -0.3285  0.2775
93178W        W36090  21.222  23.433  20.895 -0.0563 -0.0508  0.0217
93179W        W36091  18.772  26.362  22.412  0.0358 -0.1045  0.2097
93180W        W36092  19.405  24.439  24.883  0.0439  0.2272  0.0648
93181W        W36093  19.586  26.472  21.758 -0.2064 -0.0917 -0.0239
93182W        W36094  21.194  23.242  21.620  0.0030 -0.1607 -0.0395
93183W        W36095  21.967  24.782  20.257  0.0992 -0.1189  0.0606
93184W        W36096  20.072  24.099  20.936 -0.0054  0.0229 -0.1410
93185W        W36097  22.968  21.672  23.020 -0.1702 -0.0636  0.0723
93186W        W36098  20.788  23.768  23.333  0.0446 -0.5129  0.1773
93187W        W36099  19.497  24.114  21.733 -0.1045  0.0691 -0.2555
93188W        W36100  20.400  26.581  21.539 -0.0827  0.2920 -0.1282
93189W        W36101  22.235  24.375  21.501 -0.4007 -0.2008 -0.0674
93190W        W36102  19.108  25.768  21.760  0.0318  0.0269  0.1567
93191W        W36103  19.030  23.248  21.631  0.0907 -0.0026  0.0538
93192W        W36104  19.529  23.944  23.280 -0.1313 -0.0834 -0.2505
93193W        W36105  20.354  23.053  21.876  0.2491 -0.2051 -0.2061
93194W        W36106  19.033  23.229  19.646 -0.0353 -0.0405  0.1250
93195W        W36107  19.096  25.380  18.813 -0.0550 -0.0827  0.0461
93196W        W36108  19.757  25.920  23.923 -0.0356 -0.0481  0.1339
93197W        W36109  20.117  25.152  22.827  0.0810  0.2375 -0.0100
93198W        W36110  19.226  26.182  20.776  0.1184 -0.1493  0.1306
93199W        W36111  20.303  24.615  21.170 -0.2051 -0.2697  0.0191
93200W        W36112  19.358  24.753  21.124 -0.1509 -0.2590  0.0665
93201W        W36113  20.982  24.187  21.190  0.0316 -0.0220 -0.3116
93202W        W36114  20.159  23.262  20.470  0.3696 -0.1036 -0.0663
93203W        W36115  19.307  25.137  22.335 -0.3735  0.0348 -0.0934
93204W        W36116  16.649  25.902  19.504 -0.2856 -0.1069  0.0504
93205W        W36117  21.748  25.501  19.541  0.1820 -0.3654  0.2350
93206W        W36118  18.123  25.028  20.872 -0.1652  0.2041 -0.0728
93207W        W36119  21.618  23.742  24.033  0.0506  0.2293 -0.0896
93208W        W36120  21.231  22.433  19.361  0.3138  0.0062  0.1726
93209W        W36121  22.316  24.005  21.776 -0.3176  0.0492  0.1108
93210W        W36122  22.640  23.247  21.280  0.0800 -0.0127 -0.1512
93211W        W36123  19.910  25.711  22.931 -0.2143 -0.0612 -0.4115
93212W        W36124  19.045  23.291  20.932  0.2639 -0.3278  0.0595
93213W        W36125  21.469  23.590  20.119 -0.0371  0.1180  0.0376
93214W        W36126  19.399  24.625  22.306  0.3984 -0.0144 -0.0748
93215W        W36127  21.416  21.950  22.119 -0.1967 -0.0125 -0.1720
93216W        W36128  17.780  25.726  23.375  0.2885 -0.0786 -0.0597
93217W        W36129  20.919  25.684  20.797 -0.2078 -0.0947  0.0551
93218W        W36130  19.206  23.155  20.145 -0.0088 -0.2735  0.1197
93219W        W36131  18.506  23.939  21.332  0.2001 -0.0912 -0.0882
93220W        W36132  21.458  23.367  22.619  0.2935  0.1007  0.0379
93221W        W36133  19.850  25.062  19.140  0.0276 -0.1271  0.0012
93222W        W36134  21.536  22.581  21.116 -0.0699 -0.0990 -0.4704
93223W        W36135  18.635  25.889  22.266  0.1711 -0.0280 -0.1723
93224W        W36136  20.176  27.496  24.114 -0.0598 -0.2253  0.3021
93225W        W36137  18.428  24.543  23.127 -0.0883  0.1432 -0.0552
93226W        W36138  18.409  23.512  19.142 -0.1073  0.0511  0.0821
93227W        W36139  23.171  23.365  21.010 -0.0270  0.0044 -0.2890
93228W        W36140  19.243  24.234  22.611  0.0518 -0.3586  0.2133
93229W        W36141  22.328  23.094  22.949 -0.1564 -0.1029  0.2750
93230W        W36142  18.981  24.949  20.269  0.0067  0.2097 -0.0354
93231W        W36143  22.074  24.166  21.008 -0.1289  0.2989  0.1635
93232W        W36144  18.662  23.340  21.263 -0.2485  0.1770 -0.2440
93233W        W36145  18.990  25.261  22.943  0.1653  0.1426 -0.1309
93234W        W36146  19.790  22.962  19.570  0.1685 -0.0901  0.0329
93235W        W36147  21.902  24.046  23.717 -0.2111 -0.1727 -0.3108
93236W        W36148  20.328  25.105  20.970 -0.1892 -0.0767 -0.1098
93237W        W36149  20.819  25.865  22.527  0.1000  0.0538  0.0428
93238W        W36150  19.379  23.186  19.266 -0.2303  0.2745  0.1722
93239W        W36151  20.255  23.801  19.579  0.0658 -0.3684  0.0123
93240W        W36152  18.398  24.943  20.253 -0.3269 -0.0014  0.0839
93241W        W36153  19.836  22.627  21.133 -0.1661  0.1159  0.0996
93242W        W36154  20.316  24.156  22.567 -0.0352 -0.0063  0.1200
93243W        W36155  19.089  23.617  18.862  0.0744 -0.0205  0.3104
93244W        W36156  21.418  25.862  19.901 -0.3461 -0.0587 -0.1092
93245W        W36157  21.867  23.653  22.359  0.1316  0.1495 -0.2985
93246W        W36158  19.536  25.473  19.131 -0.2374  0.0636  0.2920
93247W        W36159  21.397  23.620  22.187 -0.1865 -0.0952 -0.1305
93248W        W36160  21.338  25.471  22.482 -0.2985 -0.3295  0.0917
93249W        W36161  19.169  23.630  19.922 -0.3785  0.0447  0.2760
93250W        W36162  21.747  26.239  22.750  0.0594 -0.2934 -0.2501
93251W        W36163  22.441  24.893  21.288  0.2453 -0.0255 -0.0712
93252W        W36164  21.499  21.804  20.389 -0.0087  0.0998  0.1101
93253W        W36165  18.183  24.725  19.729  0.1409 -0.0693 -0.0596
93254W        W36166  17.213  25.215  21.450  0.0805 -0.0160 -0.2507
93255W        W36167  21.828  24.082  21.483 -0.0205  0.0233 -0.0349
93256W        W36168  22.512  23.692  23.078 -0.0273 -0.1790  0.2828
93257W        W36169  19.927  25.351  21.114 -0.1608 -0.1469 -0.0331
93258W        W36170  21.539  22.232  23.545 -0.0764  0.2928 -0.0899
93259W        W36171  19.820  24.689  23.618 -0.0284  0.0179  0.2351
93260W        W36172  18.804  26.192  23.462 -0.1123  0.0157  0.1206
93261W        W36173  20.237  24.485  20.167  0.0666  0.0339 -0.0439
93262W        W36174  18.770  23.678  21.736  0.0114  0.1632 -0.1564
93263W        W36175  19.173  24.514  21.592 -0.1453  0.0196  0.1587
93264W        W36176  19.057  25.688  20.976 -0.1441 -0.0099 -0.1038
93265W        W36177  21.799  25.476  21.086  0.0204  0.1803 -0.0331
93266W        W36178  20.742  23.243  21.016  0.0708 -0.0030 -0.2219
93267W        W36179  23.096  24.380  21.328 -0.1523  0.5038  0.1163
93268W        W36180  21.456  23.167  19.696  0.0879 -0.2191 -0.0529
93269W        W36181  22.815  23.563  20.201  0.1592  0.0281  0.2574
93270W        W36182  20.695  22.362  20.570 -0.0454  0.3990 -0.3715
93271W        W36183  19.715  24.535  21.876 -0.3795  0.0083 -0.1562
93272W        W36184  18.457  24.589  19.298 -0.0832  0.1109  0.0890
93273W        W36185  17.806  24.618  20.346 -0.0065 -0.3452 -0.1684
93274W        W36186  19.731  24.898  22.585  0.1518 -0.1169 -0.0042
93275W        W36187  21.366  22.573  22.902  0.1812 -0.1574  0.3509
93276W        W36188  18.856  22.980  20.539 -0.2916 -0.4360 -0.2776
93277W        W36189  17.687  24.661  21.317  0.0860 -0.1010 -0.0086
93278W        W36190  20.227  22.677  19.841 -0.1983  0.1226  0.0135
93279W        W36191  20.778  24.698  21.235 -0.2097  0.0280 -0.0735
93280W        W36192  19.873  23.244  21.093 -0.0575  0.0715  0.1345
93281W        W36193  18.242  22.790  19.857  0.0180 -0.0345  0.0655
93282W        W36194  20.657  23.956  21.549  0.1863 -0.1770 -0.0401
93283W        W36195  21.174  24.890  20.981  0.0302 -0.2294  0.2472
93284W        W36196  21.121  23.232  20.240 -0.1191 -0.0780  0.1193
93285W        W36197  21.133  24.147  23.134 -0.2464  0.0832 -0.1314
93286W        W36198  17.026  24.566  19.410  0.2346  0.1238 -0.1121
93287W        W36199  19.420  24.237  23.810  0.1053  0.0345  0.1778
93288W        W36200  19.442  23.237  21.914 -0.3325  0.0918 -0.4158
93289W        W36201  17.532  22.753  18.755  0.0929 -0.3207  0.0922
93290W        W36202  18.919  23.799  20.916  0.2012  0.1657  0.0974
93291W        W36203  18.548  25.606  20.974  0.0387  0.0982 -0.3000
93292W        W36204  19.740  26.179  19.837  0.0838  0.1620  0.0619
93293W        W36205  19.826  24.217  22.354 -0.1768 -0.0297  0.0878
93294W        W36206  19.787  25.439  24.033  0.1148  0.1578  0.1749
93295W        W36207  19.187  23.688  21.444  0.0484  0.1002 -0.0031
93296W        W36208  21.194  24.341  19.430 -0.1457  0.0852 -0.0967
93297W        W36209  20.920  24.964  22.529  0.1322  0.2505  0.1237
93298W        W36210  21.149  24.641  19.835  0.0202  0.0748  0.2905
93299W        W36211  21.805  22.306  23.032  0.3463 -0.0793 -0.1164
93300W        W36212  20.071  25.573  18.527 -0.1208  0.2131  0.0177
93301W        W36213  19.383  22.767  20.447  0.0940  0.0858 -0.1105
93302W        W36214  19.348  24.628  22.885  0.1643  0.0526 -0.0586
93303W        W36215  21.642  24.114  22.302  0.1785  0.0586 -0.1660
93304W        W36216  20.615  22.138  18.480 -0.0546 -0.1574  0.0164
93305W        W36217  21.832  23.374  20.770 -0.1634 -0.2286 -0.2092
93306W        W36218  21.052  24.419  20.763  0.1974  0.1402 -0.2753
93307W        W36219  18.625  24.199  20.790 -0.0034  0.0664 -0.3542
93308W        W36220  20.659  23.385  20.558  0.0262 -0.3031 -0.1064
93309W        W36221  19.956  24.229  23.331  0.0048 -0.5218  0.2142
93310W        W36222  19.445  23.190  21.373  0.1309  0.2029 -0.1624
93311W        W36223  20.795  23.289  23.341 -0.0885  0.0141 -0.0418
93312W        W36224  19.195  23.640  19.387  0.2136  0.2546 -0.2683
93313W        W36225  20.118  24.917  19.946  0.0006  0.0355 -0.1002
93314W        W36226  20.900  27.064  22.784 -0.0686 -0.0768 -0.0617
93315W        W36227  22.384  24.551  23.660  0.0482 -0.3600 -0.0120
93316W        W36228  19.903  25.261  21.634  0.0689 -0.0386  0.3507
93317W        W36229  22.220  23.549  22.688  0.1044  0.0159  0.2815
93318W        W36230  19.815  22.161  20.943  0.0375  0.2054  0.0060
93319W        W36231  19.492  23.189  20.704  0.2026  0.1204 -0.1659
93320W        W36232  18.918  24.890  21.367  0.1342 -0.1203  0.2356
93321W        W36233  20.281  23.528  21.098 -0.2218 -0.4234 -0.1425
93322W        W36234  21.194  21.826  19.831  0.0175  0.2978 -0.0490
93323W        W36235  20.925  23.732  19.933  0.3885  0.3187 -0.0519
93324W        W36236  19.360  25.913  24.267  0.1090  0.0651  0.0422
93325W        W36237  20.840  23.173  22.004 -0.0737  0.1671  0.0556
93326W        W36238  20.094  23.574  25.556  0.3158 -0.0155  0.1966
93327W        W36239  19.064  22.918  25.103 -0.0745 -0.3243  0.2575
93328W        W36240  21.228  22.142  22.604 -0.0168 -0.2762 -0.3806
93329W        W36241  21.206  21.723  24.759  0.4089 -0.1328  0.1805
93330W        W36242  18.259  22.249  20.678 -0.1085 -0.0780 -0.0221
93331W        W36243  20.715  25.939  24.545 -0.0139 -0.4163 -0.0403
93332W        W36244  19.406  21.208  26.610 -0.1574  0.0209 -0.0376
93333W        W36245  21.252  25.196  25.699  0.0850  0.1204 -0.2028
93334W        W36246  20.741  26.967  25.827 -0.0440  0.0909 -0.0592
93335W        W36247  19.623  23.935  24.193  0.0575 -0.0152 -0.1725
93336W        W36248  20.237  24.914  25.474  0.2430  0.3319  0.1112
93337W        W36249  17.490  25.719  24.648 -0.2786 -0.1042  0.2543
93338W        W36250  19.259  22.069  22.633  0.1520  0.2744 -0.3191
93339W        W36251  19.864  21.407  24.866  0.2160  0.0044  0.1721
93340W        W36252  21.030  23.301  25.485 -0.0378  0.1433 -0.1663
93341W        W36253  19.049  23.411  24.827 -0.0898  0.0731 -0.0889
93342W        W36254  20.459  22.982  26.200 -0.0970 -0.1092 -0.2980
93343W        W36255  19.706  23.368  24.179 -0.1550 -0.0022 -0.2703
93344W        W36256  20.236  24.772  26.700  0.0804  0.0816 -0.3843
93345W        W36257  19.791  21.117  26.333 -0.0122  0.0926 -0.1456
93346W        W36258  19.934  21.430  25.965 -0.1013 -0.0945 -0.0697
93347W        W36259  21.497  24.728  24.823 -0.0983  0.0360  0.0538
93348W        W36260  18.059  24.231  23.793 -0.3024 -0.2796 -0.0774
93349W        W36261  19.460  23.754  24.860 -0.0543  0.2299  0.0264
93350W        W36262  19.153  23.077  25.631 -0.0699 -0.4011  0.2118
93351W        W36263  20.550  22.554  25.893  0.0362 -0.1689 -0.2304
93352W        W36264  21.030  22.150  23.959  0.0033 -0.0689 -0.2972
93353W        W36265  19.879  23.409  25.122 -0.0609  0.0474 -0.4215
93354W        W36266  21.972  25.719  26.114 -0.0183 -0.0891  0.0589
93355W        W36267  20.070  22.720  26.603  0.1227 -0.0260 -0.0290
93356W        W36268  17.550  24.358  24.407 -0.1839  0.1342 -0.1610
93357W        W36269  16.501  25.340  25.613  0.0566 -0.0584 -0.0366
93358W        W36270  18.408  23.862  23.987 -0.3783  0.0504  0.0935
93359W        W36271  21.311  25.370  24.525  0.1130 -0.1144  0.1136
93360W        W36272  21.803  25.102  25.893  0.1496 -0.2044  0.3502
93361W        W36273  20.047  26.235  27.905 -0.0702 -0.2542 -0.5556
93362W        W36274  19.436  24.529  24.373  0.0036 -0.0038  0.0084
93363W        W36275  21.567  26.582  26.458  0.0089  0.4360  0.0547
93364W        W36276  18.282  26.354  26.671 -0.2319  0.1430 -0.0543
93365W        W36277  20.884  22.080  24.594 -0.0287  0.0460  0.3428
93366W        W36278  19.589  23.736  25.577  0.0729  0.1138  0.0050
93367W        W36279  20.566  24.893  23.835 -0.1801  0.4227 -0.0417
93368W        W36280  20.592  24.432  26.924 -0.1419  0.0588 -0.0531
93369W        W36281  18.759  24.119  25.451  0.1245 -0.2057 -0.3387
93370W        W36282  19.974  24.072  25.606  0.2605 -0.1902  0.1867
93371W        W36283  21.815  22.183  26.432 -0.0045 -0.0840 -0.2606
93372W        W36284  19.774  24.911  24.122  0.0275 -0.0911  0.2950
93373W        W36285  20.306  23.231  23.420 -0.4106  0.2407  0.0066
93374W        W36286  19.670  23.845  22.682 -0.2136 -0.2827  0.1643
93375W        W36287  22.080  23.533  23.726  0.2014 -0.1117  0.4857
93376W        W36288  19.369  22.715  23.710  0.0099  0.0449  0.1072
93377W        W36289  18.573  25.206  25.635 -0.3430  0.1269 -0.3648
93378W        W36290  20.174  24.216  26.661  0.3216 -0.3044  0.2050
93379W        W36291  21.056  22.704  28.046 -0.0443 -0.1803  0.0221
93380W        W36292  19.766  22.346  23.717 -0.0060  0.0217  0.0288
93381W        W36293  19.875  22.663  24.165 -0.0315 -0.0383  0.0898
93382W        W36294  17.137  24.678  25.007  0.1035  0.2519 -0.0135
93383W        W36295  19.810  23.578  26.034  0.1516 -0.1746  0.4059
93384W        W36296  21.623  25.764  23.053  0.1428 -0.0166  0.1213
93385W        W36297  21.644  25.394  25.483  0.1867 -0.0643  0.0611
93386W        W36298  20.724  25.120  24.645 -0.1396 -0.0522 -0.2004
93387W        W36299  18.035  23.416  25.472  0.1623 -0.1034  0.0639
93388W        W36300  18.316  25.297  25.185 -0.1238  0.1732 -0.0681
93389W        W36301  17.996  22.671  25.532  0.0752  0.3166 -0.0422
93390W        W36302  19.615  21.902  22.249 -0.2103 -0.0688 -0.0702
93391W        W36303  22.851  24.724  25.774 -0.1295 -0.0097 -0.0843
93392W        W36304  17.860  25.135  25.370  0.4194 -0.2968 -0.1457
93393W        W36305  22.506  22.590  23.933 -0.3552 -0.2434 -0.0628
93394W        W36306  19.958  23.573  24.614  0.0706 -0.0495 -0.0318
93395W        W36307  21.294  24.211  25.778 -0.4102 -0.4967 -0.1647
93396W        W36308  21.559  23.546  23.602  0.1327  0.1552  0.0414
93397W        W36309  19.510  22.030  24.620  0.0898  0.0916  0.1485
93398W        W36310  21.306  22.514  25.307 -0.1563  0.0727 -0.0089
93399W        W36311  19.857  23.930  23.760 -0.2189 -0.0169  0.2654
93400W        W36312  18.918  24.012  23.912 -0.1431 -0.4032  0.1786
93401W        W36313  21.166  27.038  25.476  0.0434  0.1336 -0.3245
93402W        W36314  22.450  23.751  24.555 -0.2951  0.0422 -0.0108
93403W        W36315  18.458  24.810  24.713 -0.3743 -0.0300 -0.0789
93404W        W36316  19.764  21.628  26.419 -0.0347 -0.0336 -0.1084
93405W        W36317  20.897  24.750  27.494  0.0814  0.4221  0.1237
93406W        W36318  18.738  25.546  23.682  0.0279  0.0793 -0.0668
93407W        W36319  17.539  24.771  24.717 -0.4121  0.0253  0.2381
93408W        W36320  19.263  23.596  24.297 -0.1065  0.1774  0.3114
93409W        W36321  18.094  22.491  24.193 -0.4887  0.2579 -0.1054
93410W        W36322  18.211  24.834  25.777 -0.0599 -0.1264 -0.0063
93411W        W36323  21.659  22.415  24.046 -0.0267 -0.1720  0.0688
93412W        W36324  19.983  22.105  24.412 -0.0216  0.0078  0.0282
93413W        W36325  20.629  22.783  23.360  0.0741 -0.2250  0.3531
93414W        W36326  18.475  24.265  24.961  0.2245 -0.2735  0.0484
93415W        W36327  21.085  24.995  25.082 -0.2051 -0.0642  0.2804
93416W        W36328  20.854  23.176  24.229  0.1206 -0.1561 -0.3607
93417W        W36329  20.136  25.099  23.743  0.0263  0.3403 -0.1768
93418W        W36330  17.166  23.351  23.714  0.0735 -0.1389  0.2034
93419W        W36331  19.510  21.903  25.304 -0.0328  0.3713  0.3224
93420W        W36332  19.626  22.620  26.688 -0.1724  0.0253 -0.0309
93421W        W36333  17.351  23.593  26.297 -0.0673  0.3685 -0.1711
93422W        W36334  21.989  23.203  28.293 -0.3269  0.0438 -0.0666
93423W        W36335  17.489  22.517  21.335 -0.0588  0.2597 -0.1897
93424W        W36336  20.665  22.345  24.257 -0.0264  0.1416 -0.2875
93425W        W36337  19.111  23.423  23.414 -0.0665 -0.0934 -0.0091
93426W        W36338  17.765  23.848  24.736 -0.2176  0.0245  0.3498
93427W        W36339  20.626  22.048  26.900  0.2945  0.0770  0.1285
93428W        W36340  21.641  25.806  24.556 -0.0985  0.1147 -0.0932
93429W        W36341  22.437  24.804  25.505  0.0384  0.3111 -0.1801
93430W        W36342  20.941  25.797  25.829 -0.0428 -0.1377 -0.2633
93431W        W36343  18.907  22.707  25.905 -0.1146  0.0634 -0.2373
93432W        W36344  19.463  22.317  24.147 -0.1819 -0.1420  0.1658
93433W        W36345  18.456  25.359  26.055  0.0175  0.1924 -0.0902
93434W        W36346  21.826  23.466  24.446 -0.2393 -0.0931  0.0707
93435W        W36347  18.945  22.790  23.978 -0.0267 -0.1693  0.2946
93436W        W36348  22.361  25.094  26.625  0.0075 -0.2236  0.0613
93437W        W36349  20.568  24.011  26.141  0.0838  0.1760  0.0608
93438W        W36350  19.069  24.552  25.844  0.2916 -0.1514 -0.2746
93439W        W36351  21.678  21.377  27.797  0.0863 -0.3131 -0.0566
93440W        W36352  20.404  23.701  26.570  0.0810 -0.0913  0.0980
93441W        W36353  18.593  23.182  23.713 -0.0337  0.0828  0.1217
93442W        W36354  18.567  23.130  23.076 -0.1622  0.0093 -0.1090
93443W        W36355  19.730  25.935  26.569  0.4155 -0.2468  0.0978
93444W        W36356  18.455  25.131  23.314 -0.1064 -0.2223 -0.1399
93445W        W36357  18.739  23.831  24.997  0.0558  0.3324 -0.2071
93446W        W36358  20.734  24.115  24.966  0.1696  0.0130 -0.0291
93447W        W36359  21.384  22.181  24.388  0.1388  0.1216  0.1485
93448W        W36360  18.253  22.694  26.723  0.0353 -0.0933  0.1782
93449W        W36361  20.493  23.372  28.209  0.1686  0.1633  0.2333
93450W        W36362  17.709  24.532  23.934 -0.3372  0.2240 -0.0960
93451W        W36363  17.504  25.657  25.198  0.2030 -0.1120  0.2995
93452W        W36364  20.195  21.872  22.282 -0.2741 -0.2022 -0.1391
93453W        W36365  23.293  22.067  23.858  0.2299 -0.1118 -0.1455
93454W        W36366  20.254  24.687  27.220  0.0965 -0.0304  0.0608
93455W        W36367  22.896  24.046  24.399 -0.0089 -0.1296  0.0130
93456W        W36368  20.734  22.195  23.222  0.0734 -0.2116 -0.2528
93457W        W36369  20.606  22.218  22.356 -0.1235  0.0207  0.0892
93458W        W36370  19.715  24.800  26.651  0.0777  0.0259 -0.0611
93459W        W36371  21.355  24.411  23.515  0.0618  0.0257  0.0406
93460W        W36372  21.576  25.353  26.287 -0.0914 -0.1228  0.1175
93461W        W36373  19.691  22.867  23.293  0.1213  0.0115  0.0789
93462W        W36374  21.800  25.328  24.320 -0.2497  0.1111 -0.2331
93463W        W36375  17.169  24.204  25.266 -0.2239  0.0252  0.3842
93464W        W36376  20.962  24.151  25.414 -0.1262  0.2278  0.0519
93465W        W36377  20.988  25.557  24.841 -0.0319  0.2280 -0.0082
93466W        W36378  19.906  21.228  23.392  0.0659 -0.0058  0.0067
93467W        W36379  19.724  23.424  23.543  0.0749  0.1043 -0.1688
93468W        W36380  19.461  22.909  24.238  0.0765 -0.0533 -0.0999
93469W        W36381  17.967  25.633  23.918  0.2235  0.0145 -0.1677
93470W        W36382  21.030  22.806  25.623  0.2463  0.0900 -0.2674
93471W        W36383  20.870  23.658  25.814 -0.1429 -0.0384 -0.3163
93472W        W36384  21.333  22.003  25.612 -0.0513 -0.0470 -0.3171
93473W        W36385  21.511  22.451  26.775  0.0379  0.0426  0.1193
93474W        W36386  21.430  22.841  23.830 -0.1312 -0.1652  0.2701
93475W        W36387  20.591  23.348  24.785 -0.0087 -0.3052  0.2052
93476W        W36388  18.991  22.974  23.455 -0.1408 -0.1460  0.1185
93477W        W36389  20.314  21.161  25.838 -0.3116 -0.1967  0.3671
93478W        W36390  18.171  23.265  27.561  0.2413  0.0545 -0.2049
93479W        W36391  17.117  25.554  24.332 -0.3305 -0.0138 -0.2796
93480W        W36392  21.509  23.774  25.861  0.0109  0.0727  0.4581
93481W        W36393  19.582  24.455  25.572  0.0337 -0.0558 -0.4253
93482W        W36394  19.608  23.316  26.633 -0.0021  0.1275  0.3585
93483W        W36395  17.720  23.939  24.032  0.1776 -0.1106 -0.0574
93484W        W36396  19.536  25.382  24.979 -0.0057 -0.0228 -0.0718
93485W        W36397  20.198  23.851  25.132  0.2021 -0.0341 -0.1995
93486W        W36398  20.516  21.927  23.792 -0.0016  0.1660 -0.2380
93487W        W36399  21.060  24.914  26.167 -0.0222 -0.0977 -0.4253
93488W        W36400  18.320  25.211  24.348 -0.0648  0.0460 -0.1056
93489W        W36401  21.076  23.934  26.200  0.1683  0.2148 -0.0124
93490W        W36402  19.227  25.034  24.970 -0.0902  0.0999 -0.0772
93491W        W36403  20.558  22.676  25.403  0.0478  0.0246 -0.1198
93492W        W36404  18.025  25.641  25.342  0.0038  0.0556  0.0227
93493W        W36405  20.070  23.039  24.682  0.3977  0.1340 -0.1669
93494W        W36406  18.077  24.049  24.329 -0.3339 -0.2288 -0.2807
93495W        W36407  20.476  22.164  25.327 -0.1478  0.2621 -0.2921
93496W        W36408  22.211  23.514  24.899  0.1512  0.0149 -0.1944
93497W        W36409  19.601  24.088  25.917 -0.1498  0.2059  0.1967
93498W        W36410  19.717  21.906  25.828 -0.0724  0.0006 -0.4324
93499W        W36411  16.884  23.714  25.985  0.2054 -0.0797  0.1779
93500W        W36412  20.853  23.513  26.257 -0.1372  0.0666  0.4475
93501W        W36413  21.295  21.736  22.928 -0.0747 -0.1322  0.0372
93502W        W36414  21.337  24.319  26.352 -0.2126  0.2319 -0.0452
93503W        W36415  21.533  24.566  26.863 -0.3375 -0.2022 -0.0638
93504W        W36416  18.989  24.414  24.230 -0.0307  0.1987  0.1198
93505W        W36417  20.844  22.533  26.908  0.2801  0.0062 -0.0710
93506W        W36418  20.148  23.778  24.187  0.0227 -0.0514  0.0509
93507W        W36419  18.981  25.840  25.816 -0.0072 -0.0912 -0.1059
93508W        W36420  20.643  26.121  26.560  0.4653 -0.1220  0.1441
93509W        W36421  18.053  23.450  24.895  0.3394  0.2446 -0.2618
93510W        W36422  19.227  24.087  24.557 -0.1786 -0.1589 -0.0581
93511W        W36423  20.622  22.493  26.390  0.3470 -0.1008  0.1087
93512W        W36424  20.742  22.073  26.015 -0.1461 -0.2526 -0.3726
93513W        W36425  20.463  23.864  24.666  0.0343 -0.0067 -0.2959
93514W        W36426  18.683  22.899  22.498  0.2207 -0.1130 -0.2329
93515W        W36427  19.662  22.363  25.540  0.1839  0.1144 -0.0148
93516W        W36428  21.972  23.842  26.322  0.2218  0.3060 -0.1079
93517W        W36429  19.900  22.213  26.591 -0.0437  0.0383 -0.0076
93518W        W36430  19.499  26.393  26.741  0.0600 -0.1209  0.2488
93519W        W36431  21.037  21.222  25.385 -0.0253  0.0527  0.1523
93520W        W36432  22.668  25.376  25.704 -0.0841  0.2083  0.1250
93521W        W36433  21.464  24.903  26.428 -0.2087 -0.1040  0.0038
93522W        W36434  19.630  23.233  25.719  0.0454  0.0770 -0.2130
93523W        W36435  18.524  23.417  25.107 -0.0317 -0.0489 -0.1344
93524W        W36436  21.375  23.672  24.552  0.0483 -0.1120 -0.2135
93525W        W36437  21.103  21.735  24.290 -0.2279  0.0939  0.1270
93526W        W36438  18.011  24.855  24.947  0.2248  0.0753 -0.0359
93527W        W36439  19.386  23.724  23.815 -0.2441  0.1358 -0.0794
93528W        W36440  17.626  24.606  25.257 -0.0992  0.1518 -0.1142
93529W        W36441  20.788  22.512  22.844  0.0861  0.1615  0.1174
93530W        W36442  20.267  24.298  24.512 -0.1094 -0.3652  0.3341
93531W        W36443  22.158  21.931  23.675 -0.3608 -0.2547 -0.0578
93532W        W36444  22.279  21.268  26.957  0.2970 -0.1542  0.0379
93533W        W36445  20.638  23.336  23.809  0.1381  0.0451  0.0044
93534W        W36446  20.863  21.071  27.026  0.2416 -0.0708  0.1191
93535W        W36447  19.673  21.366  25.490  0.2177 -0.2099  0.0512
93536W        W36448  21.698  24.238  24.960  0.1052 -0.0157 -0.1409
93537W        W36449  18.973  23.150  24.378  0.0999  0.0482 -0.3542
93538W        W36450  20.299  27.028  26.879  0.0062 -0.0598 -0.2775
93539W        W36451  21.536  23.601  26.316 -0.3381 -0.1165  0.0901
93540W        W36452  21.058  22.612  23.438  0.1062  0.6135  0.2147
93541W        W36453  19.726  23.023  23.810 -0.2217  0.0111 -0.1649
93542W        W36454  21.283  22.444  25.916 -0.1209  0.2936  0.0880
93543W        W36455  22.623  24.010  24.947 -0.1288 -0.0506  0.3216
93544W        W36456  20.997  25.084  24.214 -0.0490  0.0156  0.0541
93545W        W36457  21.953  23.770  25.406 -0.0298 -0.2439  0.0466
93546W        W36458  18.768  23.230  26.039  0.0249  0.1920  0.1327
93547W        W36459  21.008  24.633  24.059  0.0642  0.4170  0.1271
93548W        W36460  21.579  23.421  25.423  0.0326  0.2399 -0.1488
93549W        W36461  21.115  23.550  24.990  0.2216  0.0394 -0.3475
93550W        W36462  20.297  22.215  26.142 -0.0010 -0.1142 -0.1873
93551W        W36463  22.473  24.409  25.828  0.0934  0.1358 -0.1519
93552W        W36464  20.128  23.390  23.860 -0.0417 -0.4178  0.2814
93553W        W36465  20.939  22.314  25.559  0.0610 -0.0836  0.2163
93554W        W36466  21.054  21.939  27.128  0.2105 -0.3457 -0.1498
93555W        W36467  20.532  23.251  25.338  0.0390  0.0311  0.0892
93556W        W36468  18.568  23.419  24.553  0.0568 -0.0291 -0.0722
93557W        W36469  21.547  25.852  26.448 -0.0031  0.2333  0.1248
93558W        W36470  20.409  22.829  24.106 -0.0012  0.3384  0.3929
93559W        W36471  22.313  21.979  26.423 -0.1325  0.1776 -0.1571
93560W        W36472  21.892  22.461  25.523 -0.2771 -0.1126  0.3390
93561W        W36473  20.913  23.606  24.514  0.0830 -0.1032  0.2887
93562W        W36474  20.386  23.531  25.926 -0.0322 -0.0177 -0.2335
93563W        W36475  21.131  23.455  27.127  0.1731 -0.0934  0.2115
93564W        W36476  20.584  21.537  22.478  0.0518  0.0598 -0.1032
93565W        W36477  20.187  21.806  27.032 -0.0496 -0.0570 -0.4252
93566W        W36478  19.725  24.167  24.599 -0.2620 -0.2537  0.0850
93567W        W36479  20.489  24.029  25.658  0.0267 -0.2698  0.3114
93568W        W36480  20.263  22.291  23.464  0.0337  0.0435  0.1346
93569W        W36481  17.549  22.489  24.245  0.0186 -0.2063 -0.3967
93570W        W36482  17.393  26.396  26.516 -0.1024 -0.0762  0.1711
93571W        W36483  18.688  23.666  23.604 -0.1423 -0.1478 -0.1289
93572W        W36484  20.880  24.277  24.456  0.0867  0.0903 -0.0213
93573W        W36485  20.307  25.943  27.413  0.1966 -0.2719  0.2179
93574W        W36486  20.981  25.197  27.615 -0.0835 -0.2117 -0.2629
93575W        W36487  20.238  22.346  23.959  0.5028  0.4390  0.2609
93576W        W36488  21.838  23.039  26.717 -0.0246 -0.0331  0.0514
93577W        W36489  17.161  24.295  24.055  0.2359  0.1862 -0.0246
93578W        W36490  20.714  21.759  24.961  0.0013 -0.0137  0.1249
93579W        W36491  19.865  24.653  25.166 -0.0077  0.0241 -0.0375
93580W        W36492  17.069  24.139  26.189 -0.2375  0.1522  0.1556
93581W        W36493  18.867  23.647  25.634 -0.1632  0.0562 -0.0992
93582W        W36494  21.298  21.928  26.152 -0.2076  0.0623  0.2970
93583W        W36495  22.358  24.218  24.577  0.3066  0.3109 -0.0155
93584W        W36496  21.329  22.566  24.778 -0.0657  0.0300 -0.3476
93585W        W36497  21.794  24.260  27.247  0.1373  0.1709 -0.1495
93586W        W36498  21.213  23.228  25.997 -0.2099 -0.3074 -0.1231
93587W        W36499  19.273  24.059  25.256 -0.0562  0.3727 -0.1807
93588W        W36500  21.205  25.245  26.663  0.0086 -0.0203 -0.2610
93589W        W36501  22.289  24.567  26.334 -0.0299 -0.1283 -0.1601
93590W        W36502  19.440  24.924  25.913 -0.0412 -0.0271 -0.0067
93591W        W36503  19.210  22.220  25.810 -0.3363  0.0755 -0.2432
93592W        W36504  20.368  24.463  26.206  0.1209 -0.1785 -0.2951
93593W        W36505  21.807  24.208  25.959 -0.2354  0.0709 -0.1273
93594W        W36506  19.268  22.381  23.315 -0.0442  0.3861 -0.0719
93595W        W36507  20.557  23.013  22.798 -0.3775  0.3512 -0.0328
93596W        W36508  16.326  23.588  26.621  0.0640 -0.2069 -0.0434
93597W        W36509  17.544  24.261  24.915  0.2071 -0.1623 -0.4130
93598W        W36510  19.043  24.985  24.513  0.2925  0.0278  0.1708
93599W        W36511  20.951  26.401  23.617 -0.0946  0.2767 -0.1386
93600W        W36512  20.738  23.705  25.316  0.1407  0.2364 -0.0060
93601W        W36513  20.441  24.910  26.003  0.0117 -0.0214  0.1595
93602W        W36514  21.380  24.299  24.492  0.0367  0.5413  0.1160
93603W        W36515  21.510  24.677  26.005 -0.0995 -0.0378 -0.2504
93604W        W36516  18.711  24.819  24.235 -0.1882  0.1377 -0.0921
93605W        W36517  20.049  25.392  25.308  0.1375  0.0275  0.0431
93606W        W36518  19.224  25.840  25.065 -0.1493 -0.1543  0.0904
93607W        W36519  21.535  25.357  27.349  0.2251  0.2006 -0.0843
93608W        W36520  23.663  21.907  22.472  0.5413  0.0373  0.2245
93609W        W36521  21.689  23.766  24.958 -0.0905  0.3346 -0.1785
93610W        W36522  20.544  21.836  24.306  0.1235 -0.1379  0.0660
93611W        W36523  21.894  25.698  28.080  0.0545 -0.2977 -0.2225
93612W        W36524  19.894  23.772  26.491 -0.1379  0.1256  0.2036
93613W        W36525  20.194  21.811  23.371 -0.2003  0.0813  0.1458
93614W        W36526  19.351  25.648  26.794 -0.0458 -0.1037  0.0755
93615W        W36527  21.693  21.646  25.803  0.2560 -0.2076 -0.0556
93616W        W36528  17.907  25.058  27.234 -0.4030  0.3160 -0.1327
93617W        W36529  21.213  25.599  23.432  0.2027 -0.2239  0.2807
93618W        W36530  18.909  23.340  22.222 -0.0722  0.0359 -0.2506
93619W        W36531  19.766  22.890  25.007  0.1383 -0.2109  0.1733
93620W        W36532  21.478  21.961  26.778 -0.1714  0.1224  0.0578
93621W        W36533  20.645  23.797  22.400 -0.0811 -0.0614  0.0065
93622W        W36534  20.882  22.409  25.051  0.0759  0.2225 -0.5428
93623W        W36535  20.770  24.432  25.892  0.2169 -0.3330  0.1939
93624W        W36536  18.010  24.242  25.199  0.0745 -0.2653 -0.1793
93625W        W36537  20.094  23.958  27.156  0.0250 -0.3789 -0.1378
93626W        W36538  18.144  22.440  22.827  0.1959  0.1586  0.0450
93627W        W36539  22.761  23.565  25.166  0.0426 -0.0397 -0.0128
93628W        W36540  19.094  24.144  26.298  0.0972 -0.0891 -0.0331
93629W        W36541  21.530  21.494  24.412  0.0573 -0.2200 -0.0731
93630W        W36542  20.064  22.905  25.436  0.0202  0.0638  0.1129
93631W        W36543  22.116  22.277  24.075  0.1537 -0.0357 -0.1169
93632W        W36544  20.709  23.144  25.802  0.0558  0.2927  0.3669
93633W        W36545  18.172  23.327  26.801  0.2763 -0.0898 -0.2261
93634W        W36546  20.650  23.450  21.499  0.3325  0.0636 -0.2642
93635W        W36547  21.472  23.843  27.229 -0.1050  0.1082 -0.1504
93636W        W36548  20.189  22.761  23.144 -0.0510  0.0114 -0.1499
93637W        W36549  19.779  25.459  26.297  0.0720 -0.0667 -0.1422
93638W        W36550  19.118  22.422  24.498 -0.0683  0.2526 -0.1266
93639W        W36551  20.381  23.428  22.906  0.1812  0.2466 -0.0588
93640W        W36552  19.098  24.527  25.326 -0.0054  0.2269  0.1132
93641W        W36553  20.592  24.293  27.407 -0.3729 -0.0067  0.2815
93642W        W36554  21.076  25.521  26.318  0.0898  0.1729  0.3960
93643W        W36555  19.723  22.486  24.615  0.1387 -0.0526 -0.0197
93644W        W36556  21.341  24.938  22.210 -0.1580  0.1665  0.0775
93645W        W36557  22.944  23.647  24.670 -0.2211  0.3475 -0.2874
93646W        W36558  19.248  24.682  23.832 -0.3151 -0.2697 -0.2135
93647W        W36559  23.241  24.231  24.043  0.4622 -0.0491 -0.2633
93648W        W36560  21.458  23.895  25.407  0.1948  0.0228  0.0950
93649W        W36561  18.409  23.168  25.696  0.3970  0.1054  0.1559
93650W        W36562  20.819  25.307  25.916 -0.2754  0.1692 -0.2103
93651W        W36563  21.536  22.888  25.750 -0.0000  0.0311 -0.1078
93652W        W36564  19.714  22.856  22.761 -0.2460 -0.2389  0.0855
93653W        W36565  20.444  22.834  24.959  0.0640 -0.0477  0.1054
93654W        W36566  19.109  26.644  23.800  0.1846  0.0324 -0.1474
93655W        W36567  22.045  22.495  26.841  0.2901 -0.3367 -0.1619
93656W        W36568  22.008  22.800  24.247 -0.2243 -0.1786  0.1208
93657W        W36569  20.834  25.619  24.122  0.2893  0.1101 -0.1011
93658W        W36570  21.607  21.040  25.771  0.0631 -0.0651  0.0323
93659W        W36571  22.011  23.813  27.084  0.1818 -0.1396  0.2081
93660W        W36572  20.751  24.446  28.178 -0.0381 -0.2453  0.1693
93661W        W36573  18.870  24.600  24.863 -0.1946  0.3500 -0.2856
93662W        W36574  20.151  23.320  26.297 -0.3363 -0.2127  0.0131
93663W        W36575  18.729  23.876  24.372  0.2094  0.0496 -0.0621
93664W        W36576  21.064  25.050  23.752  0.0094 -0.2139  0.0642
93665W        W36577  21.448  25.676  25.868 -0.1928 -0.2665 -0.3126
93666W        W36578  19.831  21.540  23.026 -0.2166  0.1422 -0.0002
93667W        W36579  22.736  24.267  26.266  0.0845  0.0582 -0.1597
93668W        W36580  20.069  22.632  26.068 -0.1089  0.2619 -0.1819
93669W        W36581  21.278  21.478  25.776  0.1582 -0.0389  0.1754
93670W        W36582  20.819  21.651  23.299  0.1600  0.2547  0.4017
93671W        W36583  18.635  24.569  26.807 -0.2522 -0.3115  0.2315
93672W        W36584  18.719  23.804  23.129 -0.0333 -0.1388  0.1907
93673W        W36585  19.947  24.411  24.110 -0.0560  0.1601 -0.0304
93674W        W36586  19.513  22.709  25.905  0.1645  0.1738 -0.1687
93675W        W36587  19.268  23.057  26.109  0.2022  0.2215 -0.0149
93676W        W36588  18.529  22.919  24.244 -0.3983  0.2509 -0.0367
93677W        W36589  19.086  24.963  25.542  0.2100 -0.0774  0.0007
93678W        W36590  20.281  23.357  24.346 -0.2961  0.2887 -0.0686
93679W        W36591  21.453  24.774  24.251 -0.0929 -0.0904  0.0483
93680W        W36592  18.385  21.441  25.542  0.2541 -0.3010  0.2992
93681W        W36593  19.177  23.799  22.930 -0.0215 -0.2218 -0.0275
93682W        W36594  21.121  23.079  24.672 -0.0817  0.1326 -0.0516
93683W        W36595  21.357  25.198  22.978 -0.1237 -0.1048 -0.0020
93684W        W36596  17.605  23.052  23.775 -0.0424  0.1482  0.2153
93685W        W36597  21.477  25.676  26.982  0.1576  0.1987  0.0551
93686W        W36598  16.673  24.437  23.949 -0.1569  0.0153 -0.5147
93687W        W36599  21.152  24.067  26.963  0.0404  0.0082 -0.1858
93688W        W36600  20.112  23.107  25.848 -0.3223 -0.0942 -0.4781
93689W        W36601  18.428  23.382  21.990 -0.0818  0.0842  0.1906
93690W        W36602  20.948  22.899  25.128  0.2306  0.0677  0.0828
93691W        W36603  23.073  23.878  25.386 -0.0188 -0.0685 -0.3304
93692W        W36604  20.777  25.996  25.058  0.0315 -0.0001 -0.2023
93693W        W36605  20.767  24.062  26.630 -0.1557 -0.1045  0.0968
93694W        W36606  20.633  25.784  26.246  0.0533 -0.1707 -0.0097
93695W        W36607  20.146  22.248  25.659 -0.0207 -0.0836 -0.1855
93696W        W36608  20.654  25.354  23.706 -0.2055  0.3342  0.1722
93697W        W36609  20.792  24.482  26.403  0.0104 -0.3539  0.0081
93698W        W36610  21.953  24.857  24.206  0.0018 -0.2378  0.0419
93699W        W36611  21.239  22.117  25.069 -0.2183 -0.0053 -0.0022
93700W        W36612  19.533  23.273  24.652 -0.0626  0.0868 -0.0493
93701W        W36613  19.004  22.505  25.455  0.0484 -0.0533 -0.0798
93702W        W36614  18.326  23.744  26.439  0.2152  0.0692 -0.2655
93703W        W36615  20.881  23.081  26.511 -0.3044  0.1294 -0.4096
93704W        W36616  18.628  22.980  26.589  0.0104 -0.5314 -0.0860
93705W        W36617  20.891  22.941  23.791  0.3695 -0.0662 -0.0739
93706W        W36618  20.821  24.714  23.461 -0.4300  0.2190  0.1071
93707W        W36619  19.224  25.433  25.410 -0.1189  0.0892  0.0748
93708W        W36620  19.896  23.614  23.064 -0.0134 -0.1404  0.1928
93709W        W36621  20.056  22.512  25.127  0.0376 -0.1128 -0.0777
93710W        W36622  19.892  25.110  25.795 -0.2051 -0.3053  0.2367
93711W        W36623  21.640  23.534  26.841 -0.0679 -0.1800 -0.0461
93712W        W36624  21.119  23.953  24.141  0.0941 -0.0124  0.0343
93713W        W36625  23.704  23.510  24.053  0.2392 -0.1661 -0.0831
93714W        W36626  21.580  25.327  24.966 -0.0401 -0.0183 -0.1761
93715W        W36627  21.963  26.231  27.105  0.0578  0.1442  0.0126
93716W        W36628  19.146  24.855  26.644  0.3549 -0.0845  0.0557
93717W        W36629  21.692  21.945  24.874 -0.0453 -0.1740  0.2596
93718W        W36630  20.258  20.686  24.683  0.1102  0.3659 -0.1522
93719W        W36631  19.411  23.279  25.255  0.2188 -0.2179 -0.4520
93720W        W36632  19.562  25.050  25.390 -0.1465  0.1352 -0.1066
93721W        W36633  21.819  22.385  24.533 -0.0526  0.2582  0.2273
93722W        W36634  19.356  22.828  24.695 -0.0086  0.1062 -0.1777
93723W        W36635  20.758  21.134  23.249  0.0307 -0.1168 -0.0936
93724W        W36636  21.072  24.574  26.840 -0.1557 -0.1709 -0.0867
93725W        W36637  21.175  23.372  23.864  0.0778 -0.0681 -0.1725
93726W        W36638  19.746  23.814  28.912  0.1522 -0.0967 -0.1039
93727W        W36639  19.824  22.360  27.626  0.1495 -0.1053  0.0389
93728W        W36640  21.257  22.997  26.866 -0.0995 -0.0340  0.2178
93729W        W36641  20.346  22.694  28.302  0.0146 -0.3369  0.1147
93730W        W36642  18.388  22.998  27.134 -0.0147  0.1777  0.2234
93731W        W36643  21.077  26.183  28.978 -0.0649  0.1900  0.2033
93732W        W36644  19.094  22.496  27.930  0.1589 -0.0814 -0.1815
93733W        W36645  19.694  24.668  30.108  0.0180 -0.0052 -0.1208
93734W        W36646  20.267  25.148  31.229  0.1065 -0.0914  0.1076
93735W        W36647  21.433  24.225  28.620  0.0098  0.1457  0.0286
93736W        W36648  21.475  22.655  29.022  0.1079  0.0599  0.0236
93737W        W36649  20.291  24.036  28.834 -0.2286 -0.2260 -0.2986
93738W        W36650  18.343  20.303  26.925 -0.3408 -0.0348 -0.1992
93739W        W36651  18.076  21.708  26.860 -0.1090 -0.1369 -0.2437
93740W        W36652  20.618  23.985  30.267 -0.3006  0.3807 -0.0151
93741W        W36653  18.856  23.091  26.999  0.1818  0.2977 -0.2268
93742W        W36654  18.877  22.045  29.441  0.0736  0.0931 -0.0319
93743W        W36655  19.550  24.073  27.289  0.0256 -0.3381  0.3529
93744W        W36656  20.316  25.574  28.285  0.1558  0.3191 -0.0192
93745W        W36657  19.386  21.497  29.212  0.0237 -0.3562 -0.4693
93746W        W36658  21.070  21.264  29.819 -0.0826  0.1402  0.2460
93747W        W36659  20.844  23.638  28.601 -0.1278  0.0027  0.4600
93748W        W36660  19.081  21.776  26.177  0.0041  0.1349 -0.1827
93749W        W36661  17.684  23.081  29.064  0.0291 -0.1905 -0.2099
93750W        W36662  18.886  22.420  29.118 -0.0427 -0.0897 -0.1743
93751W        W36663  22.545  23.461  29.443 -0.1907  0.1028 -0.0517
93752W        W36664  21.639  22.650  27.579 -0.1459  0.2285  0.2070
93753W        W36665  19.893  25.209  29.319  0.0997  0.2676 -0.1029
93754W        W36666  19.672  25.406  27.771 -0.3228  0.0499  0.0743
93755W        W36667  20.550  21.997  30.036  0.1023 -0.0631 -0.0153
93756W        W36668  18.382  24.857  27.147 -0.2551 -0.0179  0.0205
93757W        W36669  18.482  25.107  28.214 -0.0844 -0.4419 -0.2225
93758W        W36670  19.405  25.002  27.505  0.1213  0.1546  0.2751
93759W        W36671  20.732  24.859  29.207  0.1907  0.1532  0.1139
93760W        W36672  20.907  25.502  31.235  0.0476  0.1442  0.1145
93761W        W36673  18.784  23.433  29.873  0.0244 -0.0978 -0.0565
93762W        W36674  18.020  24.464  28.428 -0.4956  0.2898 -0.1834
93763W        W36675  20.715  24.066  29.663 -0.5088 -0.0210  0.3634
93764W        W36676  19.946  24.146  30.345  0.2199 -0.0002  0.3639
93765W        W36677  20.696  23.415  26.886  0.1746 -0.0449 -0.0400
93766W        W36678  20.650  24.967  26.600  0.1195 -0.1148 -0.3430
93767W        W36679  20.450  25.885  27.866  0.2056  0.2474 -0.2128
93768W        W36680  20.217  25.114  28.595  0.5910 -0.2034  0.1697
93769W        W36681  18.484  23.015  29.683 -0.4649  0.2258  0.2702
93770W        W36682  19.268  22.223  26.843  0.0101  0.2968 -0.0015
93771W        W36683  21.153  21.931  31.067 -0.0531 -0.4227  0.0145
93772W        W36684  19.962  24.927  27.530 -0.0989 -0.2023  0.1306
93773W        W36685  20.642  22.933  27.633  0.2103 -0.0214  0.0910
93774W        W36686  20.204  23.295  26.815  0.1595  0.0472 -0.1491
93775W        W36687  20.651  22.031  27.454 -0.2962  0.1811  0.2970
93776W        W36688  19.552  21.098  28.796  0.0471  0.2093  0.0824
93777W        W36689  20.097  24.326  27.520 -0.0322 -0.0317  0.0947
93778W        W36690  21.517  22.111  28.800 -0.0961 -0.3867  0.0078
93779W        W36691  20.593  24.483  28.890 -0.0473  0.4119  0.1256
93780W        W36692  20.076  23.198  28.460 -0.0703  0.2751  0.4008
93781W        W36693  20.620  23.477  30.366  0.0995 -0.1545  0.0097
93782W        W36694  19.251  24.780  28.887  0.0249 -0.0190 -0.5005
93783W        W36695  17.696  23.272  27.907 -0.0099 -0.0003  0.2180
93784W        W36696  22.037  24.651  25.841 -0.2305 -0.1532 -0.0770
93785W        W36697  22.643  25.050  30.646  0.1117 -0.0188  0.2995
93786W        W36698  20.674  25.786  27.054 -0.0111  0.0159  0.3044
93787W        W36699  18.980  23.316  27.438 -0.3637  0.2312 -0.1855
93788W        W36700  18.853  22.698  30.599 -0.0372 -0.1883 -0.0586
93789W        W36701  19.919  22.938  29.490  0.1592  0.0150 -0.2045
93790W        W36702  20.560  21.487  26.777  0.1170 -0.3913 -0.0688
93791W        W36703  22.417  22.644  30.793 -0.1322  0.4187  0.3405
93792W        W36704  17.896  22.510  30.302 -0.1316  0.2636  0.0097
93793W        W36705  21.335  20.136  28.905 -0.1148  0.1240  0.0415
93794W        W36706  19.938  24.164  29.227 -0.1536  0.2208 -0.2136
93795W        W36707  21.559  25.160  31.666  0.1691 -0.5147 -0.1071
93796W        W36708  20.633  23.937  27.084 -0.1467 -0.0211  0.1392
93797W        W36709  21.204  23.398  28.930  0.1516 -0.0164 -0.1899
93798W        W36710  22.197  22.949  28.660  0.2792  0.2447  0.2061
93799W        W36711  17.697  22.784  27.984  0.2537  0.3102  0.1614
93800W        W36712  20.300  26.156  26.937 -0.2459  0.3411 -0.0294
93801W        W36713  21.914  26.270  31.425  0.0436 -0.0840  0.0619
93802W        W36714  22.146  22.625  27.667  0.2994  0.0651 -0.0453
93803W        W36715  19.822  24.754  28.457 -0.2706  0.1285  0.0296
93804W        W36716  18.309  21.553  29.954 -0.2062 -0.1484  0.0732
93805W        W36717  20.881  24.512  29.732  0.0938 -0.2079 -0.2064
93806W        W36718  17.658  25.186  26.666 -0.0012 -0.1057 -0.0266
93807W        W36719  18.879  23.054  27.953  0.1246 -0.2959  0.0966
93808W        W36720  19.686  24.808  27.138 -0.2318 -0.3755 -0.0551
93809W        W36721  17.824  21.728  27.748 -0.0396  0.0261  0.3107
93810W        W36722  18.092  24.612  27.451 -0.2113  0.0850 -0.2257
93811W        W36723  20.409  20.710  27.997  0.1229  0.0738 -0.1652
93812W        W36724  18.154  21.249  29.568 -0.2588  0.2621  0.1724
93813W        W36725  20.084  22.102  27.931  0.2789 -0.1064 -0.2925
93814W        W36726  18.744  24.059  27.016 -0.0750 -0.1019  0.4008
93815W        W36727  22.403  24.765  28.036  0.3074 -0.0405 -0.2051
93816W        W36728  22.107  21.731  27.249  0.1010 -0.0337 -0.5583
93817W        W36729  21.298  23.782  28.093  0.3588 -0.0120 -0.0496
93818W        W36730  19.039  23.639  29.519 -0.1266  0.1523  0.1347
93819W        W36731  19.320  22.341  27.384 -0.4767 -0.0369  0.1348
93820W        W36732  20.643  21.540  29.800  0.2002  0.2430  0.2607
93821W        W36733  17.782  21.024  27.944 -0.0055 -0.3857  0.2544
93822W        W36734  21.724  22.883  30.250 -0.1853  0.0074  0.0614
93823W        W36735  18.660  22.117  25.588  0.1572  0.0881  0.0673
93824W        W36736  21.949  21.853  26.786  0.0470 -0.0015 -0.1994
93825W        W36737  19.448  22.208  29.316  0.0576 -0.0790  0.0723
93826W        W36738  18.404  24.165  28.546 -0.1726  0.2612 -0.2474
93827W        W36739  20.599  23.684  29.348 -0.0482  0.1441  0.0967
93828W        W36740  19.711  25.828  29.354 -0.0870  0.1131  0.1425
93829W        W36741  19.860  24.547  31.560 -0.1900  0.0438  0.1849
93830W        W36742  22.005  25.656  28.723  0.3999  0.2776  0.0668
93831W        W36743  18.673  20.806  30.292 -0.1461 -0.0460 -0.0440
93832W        W36744  19.076  23.317  26.526  0.3797  0.2086  0.0561
93833W        W36745  21.057  23.653  26.651  0.2158  0.2337 -0.2050
93834W        W36746  19.210  23.053  30.395 -0.0077 -0.0376  0.2982
93835W        W36747  19.550  21.382  27.149 -0.0084  0.2550  0.2134
93836W        W36748  21.283  24.470  27.361 -0.1606 -0.1071  0.3569
93837W        W36749  21.303  24.315  28.114 -0.1980  0.1606 -0.0769
93838W        W36750  19.458  23.386  29.470  0.3839 -0.1347  0.1010
93839W        W36751  21.852  22.494  28.548 -0.2444 -0.0361 -0.2558
93840W        W36752  21.298  25.007  29.245  0.0799 -0.0011 -0.0819
93841W        W36753  21.197  21.874  27.629  0.0228  0.0586  0.0911
93842W        W36754  19.342  21.810  27.241  0.2035 -0.2753  0.1375
93843W        W36755  21.019  25.395  29.284 -0.1546 -0.1317  0.4087
93844W        W36756  19.996  24.952  26.272 -0.0569  0.0689 -0.0497
93845W        W36757  17.750  22.286  27.900 -0.3548 -0.1803  0.1768
93846W        W36758  20.301  22.219  28.439  0.2651 -0.0839  0.4593
93847W        W36759  21.310  20.511  27.696 -0.1033  0.0589  0.1549
93848W        W36760  18.441  22.382  28.760 -0.0016 -0.1248 -0.1470
93849W        W36761  20.445  21.125  29.960 -0.1421 -0.0553 -0.0431
93850W        W36762  19.704  23.000  27.496  0.1122 -0.2381 -0.0104
93851W        W36763  19.331  24.130  27.804 -0.1721  0.1228  0.1321
93852W        W36764  21.208  22.862  27.587  0.0115  0.0122  0.0334
93853W        W36765  20.825  21.716  26.416  0.0902  0.0489 -0.1226
93854W        W36766  20.251  23.275  29.998  0.1158  0.1797 -0.0262
93855W        W36767  21.739  24.092  28.154  0.0370 -0.4339 -0.0653
93856W        W36768  20.814  22.974  28.424 -0.0021  0.2238  0.1539
93857W        W36769  20.354  22.550  27.763 -0.0513  0.1164  0.0878
93858W        W36770  18.455  22.305  30.056 -0.1111 -0.0296 -0.0160
93859W        W36771  20.495  25.105  27.525 -0.1620  0.0328 -0.2124
93860W        W36772  21.484  25.356  29.508 -0.1005  0.0273  0.2005
93861W        W36773  20.829  23.799  27.941 -0.0021  0.0156 -0.2113
93862W        W36774  23.062  24.490  29.295 -0.0654 -0.0392  0.0469
93863W        W36775  18.543  24.605  28.263 -0.0064  0.0191 -0.0177
93864W        W36776  21.202  23.737  31.821  0.0329  0.0925  0.2685
93865W        W36777  19.798  24.112  28.516 -0.0054  0.0479 -0.2673
93866W        W36778  20.553  22.105  29.195 -0.1963  0.0503  0.1776
93867W        W36779  19.641  24.240  26.534 -0.0655 -0.1608  0.2712
93868W        W36780  21.597  22.055  28.248 -0.3368 -0.0849  0.2182
93869W        W36781  17.197  24.965  26.867  0.2184  0.0321  0.1483
93870W        W36782  21.290  21.642  29.067  0.1293  0.0660  0.1522
93871W        W36783  21.920  21.488  28.222  0.0280  0.1208 -0.3893
93872W        W36784  20.128  21.515  29.799  0.2422  0.2046 -0.0282
93873W        W36785  21.680  23.810  29.935 -0.4306  0.0001  0.3650
93874W        W36786  21.731  21.944  27.691  0.3741  0.1410 -0.2147
93875W        W36787  21.044  23.904  28.955  0.1656 -0.2471  0.0344
93876W        W36788  19.751  23.015  26.195  0.2456 -0.2446 -0.0768
93877W        W36789  21.039  22.330  29.057  0.3462 -0.0848  0.1336
93878W        W36790  18.765  21.924  28.238  0.1717 -0.1275 -0.3961
93879W        W36791  18.130  24.134  29.994  0.2880  0.0359 -0.1722
93880W        W36792  21.671  24.694  30.727  0.0110 -0.2211  0.2514
93881W        W36793  21.332  24.794  28.360 -0.1979  0.0315 -0.0149
93882W        W36794  19.957  20.843  28.044  0.1264 -0.2295  0.0046
93883W        W36795  21.097  21.154  28.089 -0.0314 -0.0623 -0.0668
93884W        W36796  19.655  24.471  27.660 -0.1222 -0.0976  0.0661
93885W        W36797  19.308  25.210  27.019  0.1367  0.2791 -0.0797
93886W        W36798  18.735  20.494  27.170  0.0282 -0.3950  0.2159
93887W        W36799  20.476  23.889  28.323 -0.1474 -0.0319  0.0777
93888W        W36800  19.956  25.360  26.807  0.1550  0.0976 -0.0689
93889W        W36801  20.144  23.708  29.180 -0.1594 -0.0226 -0.3921
93890W        W36802  18.854  23.684  26.248  0.2029  0.1138  0.4074
93891W        W36803  19.678  19.864  27.658 -0.1571 -0.0007  0.1032
93892W        W36804  18.370  23.363  28.928  0.3105 -0.1635  0.1501
93893W        W36805  17.279  22.306  28.212 -0.2107  0.1009 -0.1151
93894W        W36806  18.663  24.144  26.545  0.1658 -0.0844  0.1012
93895W        W36807  22.071  23.317  28.949 -0.0250 -0.3691 -0.1459
93896W        W36808  21.078  22.006  28.128 -0.0404  0.1699 -0.0580
93897W        W36809  19.516  22.131  27.922 -0.0634 -0.1494  0.0736
93898W        W36810  20.482  21.290  27.888  0.3080  0.1549 -0.0917
93899W        W36811  19.719  24.623  29.215 -0.1044  0.0562 -0.0503
93900W        W36812  20.615  22.783  29.212 -0.1827  0.0006 -0.3398
93901W        W36813  20.229  20.834  26.261  0.0069  0.0428 -0.1944
93902W        W36814  20.247  23.823  30.573 -0.2947 -0.2948  0.1860
93903W        W36815  20.075  22.386   0.331 -0.1272 -0.3435  0.1154
93904W        W36816  18.934  22.454  24.948 -0.0294 -0.0093  0.2970
93905W        W36817  20.357  24.344  30.095 -0.3915 -0.0205  0.4707
93906W        W36818  21.385  23.492  27.672  0.2892 -0.1690 -0.0987
93907W        W36819  18.578  24.453  27.402 -0.2783  0.0941 -0.0039
93908W        W36820  20.715  25.322  28.538  0.0940  0.1666 -0.1201
93909W        W36821  19.382  23.251  27.091  0.2740  0.1315 -0.2652
93910W        W36822  19.634  23.758  26.920 -0.1118  0.4444  0.3244
93911W        W36823  19.261  22.448  30.760  0.0368  0.2550 -0.0428
93912W        W36824  21.895  25.013  30.160 -0.0040 -0.1537 -0.2114
93913W        W36825  20.405  22.943  28.753  0.2031 -0.0577 -0.0451
93914W        W36826  19.900  23.475  27.303 -0.0126 -0.0504 -0.0278
93915W        W36827  19.828  22.512  28.209 -0.1325 -0.2216  0.0447
93916W        W36828  19.980  23.010  31.000 -0.1156  0.0493  0.1267
93917W        W36829  18.358  21.764  29.223 -0.2447 -0.3205 -0.0311
93918W        W36830  19.266  23.720  29.120 -0.2483  0.0240 -0.1201
93919W        W36831  18.884  22.080  27.290  0.0559  0.0928 -0.2293
93920W        W36832  21.815  24.623  28.236  0.0171  0.0648 -0.0008
93921W        W36833  21.019  23.739  30.163  0.3240 -0.2640 -0.0910
93922W        W36834  19.354  23.262  27.848 -0.1385 -0.1395 -0.1700
93923W        W36835  19.166  22.757  28.972 -0.0046 -0.2242 -0.2672
93924W        W36836  19.836  25.729  28.232 -0.0410 -0.0415  0.2479
93925W        W36837  20.959  24.316  29.298  0.0790 -0.1859  0.0397
93926W        W36838  19.847  23.915  27.666  0.2386 -0.1813 -0.0481
93927W        W36839  18.121  24.089  26.113  0.1890 -0.0539  0.0622
93928W        W36840  19.339  23.714  28.104 -0.3180  0.2414 -0.2367
93929W        W36841  22.688  21.423  27.281  0.0370  0.2544  0.1924
93930W        W36842  21.162  25.329  28.292  0.1530  0.0503  0.1925
93931W        W36843  19.554  23.354  28.909 -0.0653 -0.0059  0.0385
93932W        W36844  21.083  21.282  29.294 -0.1921 -0.0287 -0.1493
93933W        W36845  20.487  22.892  26.788 -0.2332 -0.0908 -0.0730
93934W        W36846  20.101  21.794  30.965  0.5026  0.6373 -0.1297
93935W        W36847  19.812  21.895  29.631 -0.1843 -0.2193  0.1080
93936W        W36848  22.183  23.663  29.677 -0.0607 -0.2167 -0.4485
93937W        W36849  18.659  21.942  28.724 -0.1290  0.0478  0.1241
93938W        W36850  20.014  23.296  30.422  0.0765 -0.0619 -0.0062
93939W        W36851  18.045  22.324  29.792  0.0707 -0.0286  0.0392
93940W        W36852  20.295  21.761  27.666  0.0013  0.0519 -0.1240
93941W        W36853  18.563  21.756  26.513 -0.0569  0.1922 -0.0022
93942W        W36854  20.844  23.151  29.537  0.0480 -0.2448 -0.0185
93943W        W36855  20.802  24.146  28.579 -0.1994  0.0101 -0.2341
93944W        W36856  21.773  25.722  30.199  0.0187 -0.2003  0.0507
93945W        W36857  21.147  21.711  28.580  0.0458  0.3099  0.0857
93946W        W36858  19.107  23.296  28.680  0.0289  0.0257  0.0672
93947W        W36859  20.793  21.547  28.294 -0.4167 -0.0574 -0.2389
93948W        W36860  21.379  24.100  27.657 -0.0552 -0.4009 -0.2369
93949W        W36861  20.420  24.223  29.300  0.2515 -0.2331 -0.0435
93950W        W36862  19.352  20.537  30.448  0.1413 -0.2524  0.0841
93951W        W36863  20.230  24.876  29.180  0.5614  0.0417  0.0607
93952W        W36864  19.939  20.709  26.676  0.0491 -0.3950  0.2443
93953W        W36865  21.276  23.446  29.644  0.1937 -0.1615 -0.1842
93954W        W36866  21.210  22.348  28.487  0.0789  0.0780 -0.1552
93955W        W36867  20.199  22.282  30.980  0.1987  0.1690 -0.1111
93956W        W36868  19.586  21.701  30.077  0.2006 -0.1000 -0.1544
93957W        W36869  21.246  24.227  29.947 -0.2507  0.2032  0.1392
93958W        W36870  22.572  22.894  27.611  0.3602 -0.0672 -0.2050
93959W        W36871  21.580  20.598  28.672 -0.1151  0.3794  0.0822
93960W        W36872  23.028  22.166  27.834  0.1959  0.2258 -0.0898
93961W        W36873  21.611  22.881  27.153  0.0031  0.2076  0.0737
93962W        W36874  18.913  23.472  28.265  0.1989 -0.0816 -0.0328
93963W        W36875  19.921  23.482  29.614 -0.0396  0.1492 -0.0158
93964W        W36876  18.510  22.161  26.890 -0.0366 -0.1728  0.0942
93965W        W36877  20.750  21.942  29.590  0.0084  0.0859 -0.2962
93966W        W36878  18.269  25.353  26.763  0.1568 -0.3053 -0.0459
93967W        W36879  22.156  24.908  30.836  0.0745 -0.1718  0.4306
93968W        W36880  21.064  21.258  28.737  0.1608 -0.1244  0.1216
93969W        W36881  18.879  22.333  28.547 -0.2512  0.1512  0.0071
93970W        W36882  18.868  24.349  30.170 -0.0847  0.0851 -0.0815
93971W        W36883  17.953  23.108  25.861  0.1939  0.1908 -0.1151
93972W        W36884  20.838  23.438  27.572 -0.4307 -0.2695  0.0439
93973W        W36885  21.117  24.552  28.873 -0.2439  0.0158 -0.0041
93974W        W36886  20.650  23.749  31.286  0.1801  0.1404  0.0485
93975W        W36887  19.417  21.604  27.751 -0.1410  0.2326  0.2260
93976W        W36888  20.944  22.718  29.885  0.0853 -0.1346  0.0223
93977W        W36889  20.400  23.151  27.276  0.1338 -0.2017  0.0831
93978W        W36890  18.683  21.217  26.684 -0.0805  0.0314  0.1224
93979W        W36891  19.303  25.557  30.166 -0.1729  0.0990 -0.1998
93980W        W36892  19.582  23.193  30.173 -0.0367 -0.0903  0.1481
93981W        W36893  19.428  25.207  26.515 -0.2256  0.0746 -0.0686
93982W        W36894  21.155  22.770  29.370  0.0354 -0.0061  0.3654
93983W        W36895  21.687  23.287  28.675  0.2924 -0.1995 -0.0258
93984W        W36896  20.594  22.467  28.799 -0.0284 -0.2346 -0.1397
93985W        W36897  21.645  20.652  29.147 -0.0537  0.4242 -0.1115
93986W        W36898  21.456  23.934  30.348  0.0672 -0.0874  0.0002
93987W        W36899  19.337  21.934  28.329 -0.1341 -0.1127  0.0088
93988W        W36900  20.718  24.946  30.117  0.4805  0.0069  0.1041
93989W        W36901  21.794  23.915  28.949  0.1159 -0.1268 -0.1474
93990W        W36902  19.004  24.478  28.374  0.3353  0.1911  0.2550
93991W        W36903  19.436  22.790  29.883  0.0136 -0.0437  0.0155
93992W        W36904  20.015  21.707  30.299  0.2113 -0.2901 -0.0540
93993W        W36905  18.894  23.850  27.768 -0.2180  0.1937 -0.0851
93994W        W36906  19.673  21.817  26.857  0.0162  0.3478  0.2465
93995W        W36907  20.982  23.938  27.421 -0.0705  0.2214  0.0405
93996W        W36908  18.613  22.902  30.971  0.0483  0.0286  0.0306
93997W        W36909  18.759  24.295  27.908 -0.0559  0.5118 -0.0988
93998W        W36910  18.959  23.980  28.361  0.0151 -0.0612 -0.0917
93999W        W36911  21.397  24.221  29.127 -0.2443  0.2145  0.2573
94000W        W36912  20.493  24.681  27.871  0.1526  0.0409  0.1174
94001W        W36913  21.568  25.872  29.664 -0.1867 -0.1534 -0.1608
94002W        W36914  18.485  22.595  25.696 -0.1340 -0.4210 -0.0701
94003W        W36915  20.056  24.485  28.830  0.0269  0.1043  0.3744
94004W        W36916  18.204  23.288  26.280  0.2316  0.1507 -0.1475
94005W        W36917  21.165  25.108  28.778 -0.2670 -0.4446 -0.2197
94006W        W36918  19.774  24.363  26.990 -0.2333 -0.1841  0.0503
94007W        W36919  21.480  23.044   0.082  0.0530 -0.0538  0.0894
94008W        W36920  22.223  22.232  25.883  0.2362 -0.0075 -0.2023
94009W        W36921  20.214  23.303  27.701 -0.2378 -0.0233  0.3079
94010W        W36922  21.624  20.534  27.124  0.0567 -0.2354 -0.2559
94011W        W36923  19.449  24.573  29.624 -0.2684  0.1014 -0.1033
94012W        W36924  19.676  23.916  29.610  0.0524  0.1365 -0.1192
94013W        W36925  18.400  22.744  26.205  0.2560 -0.1998  0.2208
94014W        W36926  19.689  22.076  30.891  0.4022 -0.2151 -0.1198
94015W        W36927  22.383  23.162  29.851  0.2736 -0.2494 -0.0124
94016W        W36928  18.138  25.025  31.135 -0.1654 -0.0019  0.1710
94017W        W36929  22.850  24.862  27.623 -0.3406  0.1908  0.2996
94018W        W36930  20.577  22.045  27.965  0.1933 -0.1228  0.1271
94019W        W36931  20.161  23.632  28.634 -0.2044  0.1519  0.0253
94020W        W36932  21.422  22.053  29.292  0.0590  0.0772  0.2760
94021W        W36933  20.417  23.767  27.518  0.2283  0.0686 -0.1264
94022W        W36934  21.126  22.457  27.330 -0.2127 -0.0601  0.3373
94023W        W36935  19.954  26.283  29.562 -0.1500  0.0821 -0.4455
94024W        W36936  19.790  25.221  28.297  0.1212 -0.1741  0.2347
94025W        W36937  18.901  25.679  29.471  0.0756  0.2789 -0.0602
94026W        W36938  18.699  22.176  26.077 -0.1946 -0.4935  0.2509
94027W        W36939  22.355  22.908  28.093 -0.3331  0.0932  0.2711
94028W        W36940  19.858  22.612  29.103 -0.0014  0.2922  0.0534
94029W        W36941  20.927  21.218  30.272 -0.5007 -0.0416 -0.1582
94030W        W36942  19.974  22.954  27.934  0.3959 -0.1042  0.1101
94031W        W36943  20.725  20.929  27.497 -0.0818  0.2368 -0.0487
94032W        W36944  20.889  24.417  30.243  0.1616 -0.3593 -0.1889
94033W        W36945  19.478  22.409  28.799  0.0107 -0.2358 -0.0631
94034W        W36946  20.575  22.517  27.313 -0.1275 -0.2169 -0.3902
94035W        W36947  21.369  24.594  31.654 -0.1786 -0.0347 -0.3612
94036W        W36948  20.104  22.733  27.308  0.2032  0.1827  0.0379
94037W        W36949  19.126  24.203  31.136 -0.1741 -0.1922  0.2464
94038W        W36950  18.272  22.186  26.402 -0.0777  0.1216  0.0305
94039W        W36951  19.765  22.353  27.126  0.1106  0.0687 -0.1232
94040W        W36952  19.611  24.887  27.975  0.0287  0.2637  0.1615
94041W        W36953  20.700  22.461  29.553  0.1312 -0.1946  0.2277
94042W        W36954  20.371  24.453  31.790 -0.0592 -0.0853 -0.4266
94043W        W36955  19.154  19.990  27.495  0.1053 -0.2312 -0.1067
94044W        W36956  22.910  25.744  27.126  0.1470 -0.4327  0.3842
94045W        W36957  22.483  23.889  28.344 -0.1866 -0.1350  0.2277
94046W        W36958  19.711  25.340  27.309  0.1122  0.0153  0.1463
94047W        W36959  23.062  24.043  28.366 -0.0794  0.1246 -0.1508
94048W        W36960  22.969  25.438  29.778  0.2367  0.0562 -0.2186
94049W        W36961  18.247  22.586  27.914 -0.0453 -0.3662 -0.1238
94050W        W36962  20.386  25.286  29.977  0.1249 -0.0557 -0.2628
94051W        W36963  21.650  24.937  29.695  0.2751  0.5532  0.3331
94052W        W36964  20.194  22.181  27.330  0.0109 -0.1310 -0.0057
94053W        W36965  20.853  22.435  27.733 -0.0357 -0.3108  0.0127
94054W        W36966  19.158  24.606  27.867 -0.3046  0.0670 -0.3108
94055W        W36967  22.247  21.724  29.954  0.0013  0.1699  0.4692
94056W        W36968  21.954  22.667  29.072  0.2676 -0.1124  0.1692
94057W        W36969  21.073  25.445  27.134  0.0250 -0.3432 -0.2384
94058W        W36970  21.062  21.275  30.833  0.0099 -0.2123 -0.4791
94059W        W36971  20.855  25.075  29.664 -0.0942 -0.1267  0.2081
94060W        W36972  19.109  22.842  31.759 -0.0414  0.2032  0.1874
94061W        W36973  18.871  22.559  26.706 -0.1036 -0.0571  0.0956
94062W        W36974  19.012  22.552  30.085  0.1569 -0.1592 -0.1012
94063W        W36975  20.412  24.140  27.919  0.3831  0.1183  0.1568
94064W        W36976  20.624  25.580  27.490  0.1616 -0.2648  0.0006
94065W        W36977  22.645  25.294  28.888 -0.2246  0.1620 -0.1140
94066W        W36978  21.795  23.356  27.371 -0.3541 -0.1436 -0.0092
94067W        W36979  23.163  24.372  28.762  0.1676 -0.0615 -0.0121
94068W        W36980  18.600  21.772  27.755  0.1120  0.2950 -0.1716
94069W        W36981  22.013  20.146  26.811  0.1449 -0.0276  0.0727
94070W        W36982  21.936  21.422  25.402  0.2169 -0.1770 -0.2599
94071W        W36983  19.838  21.966  28.372 -0.2300 -0.2930  0.0827
94072W        W36984  18.675  22.934  25.372 -0.1765  0.1415 -0.1089
94073W        W36985  19.191  24.158  26.848  0.0839  0.0917  0.0381
94074W        W36986  18.550  23.599  27.261  0.0801 -0.2309  0.0501
94075W        W36987  21.588  21.443  30.047  0.0124 -0.2683  0.2383
94076W        W36988  18.642  22.555  29.680  0.3982 -0.1517 -0.2643
94077W        W36989  19.998  24.517  28.044 -0.3477 -0.0309 -0.2483
94078W        W36990  17.932  22.528  26.012 -0.2858 -0.1752 -0.0956
94079W        W36991  21.928  24.896  27.807  0.1582 -0.0272  0.0278
94080W        W36992  19.060  22.020  27.751  0.2854  0.0154 -0.3156
94081W        W36993  17.739  20.622  27.272 -0.1936 -0.0099 -0.0629
94082W        W36994  22.532  25.291  29.481  0.0488  0.0326 -0.2854
94083W        W36995  21.207  25.833  28.209 -0.1392  0.1481  0.2304
94084W        W36996  19.533  22.680  27.842 -0.1081 -0.1526  0.0832
94085W        W36997  20.366  24.596  31.325  0.1836  0.0646  0.2182
94086W        W36998  19.344  23.746  26.483 -0.3111 -0.0168 -0.0802
94087W        W36999  20.125  22.759  30.575 -0.2365 -0.1064 -0.2335
94088W        W37000  19.982  22.075  29.209 -0.3823  0.1119  0.1184
94089W        W37001  17.599  21.453  25.204 -0.2175  0.0824 -0.0952
94090W        W37002  20.188  21.792  28.809  0.0223  0.0012  0.0173
94091W        W37003  20.814  24.807  28.547 -0.0719  0.1659  0.2148
94092W        W37004  21.202  24.949  27.168 -0.2149 -0.1229  0.0405
94093W        W37005  19.909  24.798  29.673 -0.4405 -0.0965 -0.2992
94094W        W37006  18.726  22.997  30.194  0.1921 -0.0147 -0.0459
94095W        W37007  16.978  21.416  27.862 -0.1758 -0.0415 -0.1373
94096W        W37008  20.708  21.984  28.550 -0.1407 -0.2032  0.0248
94097W        W37009  19.807  22.448  29.666 -0.0244  0.0034 -0.0597
94098W        W37010  21.730  24.459  27.712  0.0921  0.2289  0.1684
94099W        W37011  22.972  21.102  30.209 -0.1696 -0.0917  0.1301
94100W        W37012  19.421  23.658  27.515  0.0942  0.0989  0.2135
94101W        W37013  17.912  21.515  29.179 -0.2138  0.2724 -0.0361
94102W        W37014  20.016  22.114  30.045 -0.1777 -0.0482  0.0568
94103W        W37015  22.348  24.943  29.136 -0.3170  0.1462 -0.0903
94104W        W37016  19.288  22.747  27.045  0.4295  0.6122 -0.1444
94105W        W37017  21.373  21.142  26.999  0.2044  0.1843 -0.0471
94106W        W37018  21.277  23.928  29.513  0.0323 -0.1170  0.3839
94107W        W37019  19.127  22.829  27.511  0.2163 -0.2539 -0.0545
94108W        W37020  19.927  22.255  28.752 -0.3023  0.1228  0.1168
94109W        W37021  20.653  23.315  28.975  0.0257  0.1366 -0.2638
94110W        W37022  20.433  26.186  29.494  0.0418 -0.0987 -0.3441
94111W        W37023  21.412  22.911  29.818 -0.0110  0.3675  0.1804
94112W        W37024  19.798  22.984  26.977 -0.2269  0.0259 -0.1433
94113W        W37025  21.720  23.541  28.099  0.1939  0.0739 -0.1275
94114W        W37026  21.781  24.121  30.710 -0.2444 -0.0453 -0.0331
94115W        W37027  21.196  24.190  31.404  0.0984 -0.1275 -0.2417
94116W        W37028  20.412  24.780  30.822  0.0148 -0.3642 -0.4355
94117W        W37029  21.026  22.942  28.925  0.0165 -0.1455 -0.2992
94118W        W37030  19.894  20.819  28.503  0.2504  0.1981 -0.1109
94119W        W37031  20.901  22.953  27.203  0.0323 -0.2064  0.1266
94120W        W37032  19.824  23.447  27.870 -0.1289  0.2311 -0.0197
94121W        W37033  21.436  23.734  28.624  0.2601 -0.0639 -0.2817
94122W        W37034  20.335  23.170  29.339 -0.0138  0.0426  0.0981
94123W        W37035  20.423  21.008  26.671 -0.2522  0.1820  0.0056
94124W        W37036  19.372  25.073  29.856  0.0844  0.2228  0.0876
94125W        W37037  20.002  23.792  28.146 -0.2469 -0.0992  0.1116
94126W        W37038  21.345  23.425  30.127 -0.0393  0.2208 -0.3306
94127W        W37039  20.053  21.191  30.256  0.0176  0.0167  0.2032
94128W        W37040  17.694  23.523  29.367  0.1186  0.3722 -0.1113
94129W        W37041  17.939  23.781  31.366  0.1674 -0.2486  0.1507
94130W        W37042  19.124  22.681   0.237  0.0149 -0.1905  0.2709
94131W        W37043  20.056  23.258  28.931 -0.3162 -0.1056  0.1744
94132W        W37044  20.435  21.994  30.574  0.0758  0.1089 -0.2761
94133W        W37045  19.424  22.295  29.940 -0.0600 -0.0462  0.1416
94134W        W37046  20.449  22.797  30.998  0.0026  0.1534 -0.1653
94135W        W37047  21.465  23.937   0.280 -0.4087  0.0679 -0.1011
94136W        W37048  20.923  23.124  30.660 -0.0048  0.0049  0.1039
94137W        W37049  19.135  21.269  29.677  0.0552 -0.2058  0.1244
94138W        W37050  21.704  24.414   0.195  0.0496 -0.2358  0.2227
94139W        W37051  19.665  23.007  30.658  0.1512 -0.1419 -0.0558
94140W        W37052  20.394  22.489  30.133  0.1308  0.2474  0.1747
94141W        W37053  19.021  24.375  30.644  0.4293  0.0360  0.5782
94142W        W37054  19.393  22.932   0.587  0.1472 -0.0633  0.3891
94143W        W37055  20.830  25.382  30.271 -0.2986  0.3150 -0.3910
94144W        W37056  18.580  21.300  30.322  0.1869  0.1887  0.1822
94145W        W37057  19.112  22.493  29.560 -0.1884  0.0531 -0.2485
94146W        W37058  20.296  22.180  29.659  0.0740 -0.0150 -0.3517
94147W        W37059  17.729  25.382  30.814  0.4700 -0.3281 -0.1371
94148W        W37060  21.199  23.489   0.840 -0.2513  0.0681  0.0153
94149W        W37061  20.632  20.819  30.448 -0.0434 -0.1879  0.0811
94150W        W37062  21.503  21.060  29.548 -0.0543  0.1108  0.0232
94151W        W37063  19.761  20.833  30.465 -0.1182 -0.1706  0.0493
94152W        W37064  20.982  22.403  31.345 -0.3182 -0.1442 -0.0623
94153W        W37065  17.766  25.474  31.376 -0.0113  0.3463 -0.0487
94154W        W37066  19.520  22.873  31.427  0.1951 -0.2432  0.0803
94155W        W37067  18.958  23.903  29.996 -0.0404  0.0588 -0.1337
94156W        W37068  20.421  22.812   0.120  0.0403 -0.4225 -0.0052
94157W        W37069  19.645  22.234  31.394 -0.0931 -0.1901  0.0023
94158W        W37070  22.629  23.266   0.692 -0.0321 -0.1872 -0.1328
94159W        W37071  21.484  21.466  31.038 -0.3740 -0.0550  0.2498
94160W        W37072  19.459  20.734  31.311  0.0173  0.1487 -0.0036
94161W        W37073  19.619  22.639   0.251  0.2488 -0.2487  0.3214
94162W        W37074  19.778  23.783  30.123 -0.2710 -0.3175  0.0890
94163W        W37075  21.615  24.021  31.733  0.0516 -0.3467 -0.1672
94164W        W37076  21.220  24.805  29.935  0.0161  0.0793 -0.1617
94165W        W37077  20.655  23.258  31.105 -0.0583  0.2486  0.1711
94166W        W37078  20.526  21.481  30.794  0.4295  0.3708 -0.0137
94167W        W37079  18.810  21.180  30.729  0.1061  0.1731  0.0860
94168W        W37080  18.864  22.056  29.914 -0.3836 -0.0940  0.1148
94169W        W37081  19.262  23.931  30.436 -0.0398 -0.1490  0.2109
94170W        W37082  19.624  20.471  30.873  0.0334 -0.0223  0.3088
94171W        W37083  19.280  23.309  31.504  0.0302  0.2367  0.1323
94172W        W37084  19.076  20.611  30.000 -0.0655  0.2234 -0.1454
94173W        W37085  20.728  23.700  30.818  0.2423  0.0200  0.0210
94174W        W37086  21.774  25.966   0.905  0.3503  0.3686  0.1608
94175W        W37087  18.211  23.464  29.809 -0.0873  0.0308 -0.0397
94176W        W37088  21.491  24.850   0.048 -0.0761 -0.0859  0.0074
94177W        W37089  20.089  21.391   0.685  0.0698 -0.1043 -0.2606
94178W        W37090  18.617  21.619  30.715  0.1795  0.1796 -0.2423
94179W        W37091  20.236  23.910  29.689 -0.2806 -0.0574  0.0117
94180W        W37092  20.635  21.576   0.663  0.0080  0.0371  0.0590
94181W        W37093  20.961  22.229  30.137 -0.2126  0.2728  0.2980
94182W        W37094  21.285  23.868  30.994  0.1552  0.0341  0.2202
94183W        W37095  19.529  25.122  30.356 -0.4403  0.3268  0.0067
94184W        W37096  20.394  24.734  29.632  0.0277 -0.2579  0.0012
94185W        W37097  19.289  23.688  31.969  0.0401 -0.0218  0.0704
94186W        W37098  19.099  21.556  31.441  0.2802  0.1210 -0.1015
94187W        W37099  18.644  22.817  29.215 -0.4028  0.0907 -0.1212
94188W        W37100  19.190  22.025  31.274 -0.1389 -0.0306  0.0887
94189W        W37101  18.767  20.680  30.745  0.0401 -0.1547  0.0503
94190W        W37102  20.505  24.951  31.670 -0.0817  0.1708  0.0657
94191W        W37103  22.024  25.159  31.638  0.0476  0.1347 -0.1154
94192W        W37104  21.651  24.121  31.214 -0.1809 -0.2635  0.0672
94193W        W37105  18.658  28.620  18.613  0.1457  0.1266  0.2866
94194W        W37106  19.918  26.783  17.221  0.1414  0.0237  0.1463
94195W        W37107  21.508  25.916  15.792 -0.2686 -0.2853  0.3000
94196W        W37108  20.987  27.251  16.898 -0.0339  0.0228 -0.2410
94197W        W37109  18.920  25.923  16.529 -0.3271  0.2118 -0.3510
94198W        W37110  20.988  29.483  17.591  0.3739  0.0374  0.2496
94199W        W37111  18.616  26.101  20.063 -0.1137 -0.2616  0.0711
94200W        W37112  21.200  28.365  19.716  0.0530  0.2660  0.0705
94201W        W37113  21.727  29.172  18.765 -0.1072 -0.0195  0.4073
94202W        W37114  21.149  27.553  16.423 -0.0420 -0.1538 -0.1909
94203W        W37115  20.039  27.693  18.726 -0.1162 -0.1737  0.3510
94204W        W37116  18.948  29.070  17.878  0.4565 -0.0709 -0.0114
94205W        W37117  19.136  25.631  16.845 -0.1439  0.2095  0.1305
94206W        W37118  17.307  26.450  19.506  0.0669 -0.0894  0.0103
94207W        W37119  20.437  26.939  18.450 -0.0076 -0.0183 -0.1335
94208W        W37120  17.005  27.861  17.229 -0.2663 -0.0120 -0.2909
94209W        W37121  19.106  26.170  18.240  0.0320  0.0766 -0.2795
94210W        W37122  19.115  26.479  16.602  0.0229  0.5594  0.1252
94211W        W37123  20.638  30.242  17.516 -0.1512  0.2631 -0.0081
94212W        W37124  18.582  26.572  19.303 -0.0111 -0.2216 -0.2029
94213W        W37125  20.194  27.349  19.795 -0.1660  0.0022  0.3220
94214W        W37126  20.712  28.340  16.483 -0.0292 -0.2641 -0.4119
94215W        W37127  19.522  26.869  15.948 -0.2741 -0.2221 -0.0600
94216W        W37128  18.692  27.982  17.893 -0.0748 -0.2164  0.0626
94217W        W37129  20.053  27.276  18.341  0.0889  0.2143 -0.0123
94218W        W37130  20.628  25.694  17.807 -0.0178 -0.0350  0.0091
94219W        W37131  21.654  27.070  19.339 -0.0960 -0.2714  0.3089
94220W        W37132  20.228  28.698  17.721 -0.0704  0.2683 -0.0962
94221W        W37133  20.463  29.371  18.223  0.3519  0.0806 -0.0178
94222W        W37134  19.823  27.605  19.639 -0.1581  0.3283  0.1673
94223W        W37135  16.820  26.995  17.120  0.1539 -0.0715  0.1490
94224W        W37136  18.422  28.925  18.290 -0.1636 -0.1887  0.1743
94225W        W37137  20.081  28.380  17.344 -0.0185  0.1311  0.0963
94226W        W37138  21.612  29.523  16.912 -0.2047  0.0969 -0.1143
94227W        W37139  21.823  29.323  18.225  0.0167 -0.0306 -0.2681
94228W        W37140  19.101  28.240  17.835 -0.2565  0.3069 -0.0032
94229W        W37141  18.399  29.377  17.197  0.2010 -0.0584 -0.2314
94230W        W37142  20.158  29.557  19.801 -0.0871  0.3700 -0.0957
94231W        W37143  19.124  29.751  20.864  0.2340  0.2805  0.0839
94232W        W37144  20.800  26.871  19.405  0.0233 -0.0887 -0.3783
94233W        W37145  21.294  28.535  18.233  0.1244  0.0138  0.0277
94234W        W37146  19.928  29.003  15.875 -0.1767  0.0550  0.1889
94235W        W37147  21.286  27.289  17.354  0.0094 -0.0652 -0.1928
94236W        W37148  19.699  28.029  17.984 -0.1894 -0.2323  0.2396
94237W        W37149  18.771  28.558  17.620 -0.1443  0.0250  0.0050
94238W        W37150  21.305  26.352  19.846  0.0345 -0.0449 -0.2378
94239W        W37151  19.940  28.717  16.850  0.4174 -0.2205  0.2525
94240W        W37152  21.009  27.336  15.574  0.2042 -0.0498 -0.0181
94241W        W37153  19.625  27.092  15.490 -0.0721  0.1956 -0.0873
94242W        W37154  20.304  27.074  16.164 -0.3281 -0.0975 -0.4680
94243W        W37155  19.266  25.350  17.658 -0.0956  0.0712 -0.0032
94244W        W37156  18.988  27.397  16.715  0.1423  0.3424  0.0933
94245W        W37157  20.520  25.773  18.306  0.2111 -0.0637 -0.1650
94246W        W37158  21.543  27.542  16.779  0.2327 -0.6414  0.0001
94247W        W37159  20.448  27.829  17.686  0.1941  0.0576 -0.4333
94248W        W37160  20.757  24.582  19.491  0.0297 -0.0112 -0.2004
94249W        W37161  19.919  28.138  18.417  0.0511 -0.4054 -0.2392
94250W        W37162  18.278  27.918  16.803  0.0572 -0.2572 -0.1719
94251W        W37163  22.430  28.554  16.507 -0.1494  0.2553  0.0157
94252W        W37164  21.526  29.687  17.440 -0.0250 -0.0526  0.1641
94253W        W37165  20.790  28.532  17.051 -0.1783 -0.0716  0.3029
94254W        W37166  18.030  28.257  17.144 -0.0932 -0.3091 -0.1881
94255W        W37167  19.062  27.197  18.666 -0.1670 -0.0259  0.0480
94256W        W37168  16.771  28.368  19.082  0.0336  0.1197  0.3276
94257W        W37169  19.287  25.903  15.546 -0.1735  0.3011  0.1153
94258W        W37170  21.379  26.031  20.836  0.0300 -0.0004 -0.1118
94259W        W37171  19.499  27.828  18.571  0.2765  0.2508  0.1694
94260W        W37172  22.742  25.330  19.118 -0.2057 -0.1488 -0.0770
94261W        W37173  20.259  27.645  19.215 -0.1388 -0.1108 -0.1041
94262W        W37174  21.810  28.878  19.213 -0.0645 -0.1224  0.1401
94263W        W37175  21.692  27.389  16.190 -0.2079  0.2659  0.1679
94264W        W37176  20.154  25.808  17.990 -0.1656  0.1693  0.0535
94265W        W37177  20.940  25.342  19.178 -0.0961  0.0287 -0.1336
94266W        W37178  20.112  27.870  15.561  0.1279 -0.0016  0.0377
94267W        W37179  20.958  29.044  17.194 -0.1792  0.2014 -0.2311
94268W        W37180  22.000  29.497  19.563  0.1418  0.2412 -0.1049
94269W        W37181  22.452  27.360  15.934  0.0114  0.1183 -0.0055
94270W        W37182  19.381  28.248  18.260  0.1634  0.1410  0.0533
94271W        W37183  19.937  26.487  19.508  0.1107  0.1245 -0.0886
94272W        W37184  22.466  29.802  20.459  0.0559  0.0350 -0.0956
94273W        W37185  19.980  29.752  17.010 -0.0588 -0.1013 -0.0532
94274W        W37186  19.359  26.970  17.291 -0.0682 -0.1589 -0.0132
94275W        W37187  19.383  27.805  16.712  0.0826  0.0206  0.0979
94276W        W37188  18.506  25.437  17.141 -0.0772  0.2210 -0.0398
94277W        W37189  21.040  28.761  17.898  0.1047  0.2357  0.2225
94278W        W37190  21.513  26.366  16.101 -0.2486 -0.0075  0.1760
94279W        W37191  20.222  26.476  18.650 -0.1299  0.1604  0.0255
94280W        W37192  20.652  26.584  17.517  0.0138 -0.0663  0.1044
94281W        W37193  19.474  28.551  16.639 -0.1694 -0.1353  0.1424
94282W        W37194  21.336  29.631  17.923  0.0188  0.0000  0.0133
94283W        W37195  20.689  27.202  16.485  0.4804  0.0957  0.1023
94284W        W37196  20.541  26.711  16.397  0.0731 -0.2160  0.1848
94285W        W37197  18.804  26.694  18.074  0.0634 -0.0778  0.1251
94286W        W37198  19.597  26.612  18.073 -0.1159  0.1485  0.1540
94287W        W37199  20.570  27.512  18.218  0.2529  0.0042 -0.1401
94288W        W37200  19.049  25.811  19.235 -0.1678  0.0144  0.1258
94289W        W37201  20.747  26.621  18.863  0.5436  0.2379 -0.0210
94290W        W37202  18.836  25.220  16.090  0.1081 -0.1036  0.0634
94291W        W37203  20.247  27.013  17.511  0.0553 -0.0206  0.1841
94292W        W37204  19.426  26.517  17.110 -0.0677  0.0624 -0.2981
94293W        W37205  19.317  26.858  17.820  0.1269 -0.2662 -0.0019
94294W        W37206  20.960  26.296  20.230 -0.0802  0.1465 -0.1317
94295W        W37207  20.508  28.560  18.778  0.1079 -0.1318  0.2194
94296W        W37208  21.721  28.018  19.119 -0.1529  0.1660  0.0554
94297W        W37209  22.851  30.395  18.370 -0.0685  0.2229 -0.0013
94298W        W37210  19.001  27.749  16.360  0.0375  0.0349  0.0233
94299W        W37211  18.668  27.229  15.717  0.3901 -0.0561 -0.0308
94300W        W37212  20.308  27.908  16.623 -0.0415 -0.1790 -0.1701
94301W        W37213  20.464  27.417  18.720  0.1704 -0.1235  0.4075
94302W        W37214  19.610  26.499  16.366 -0.0970  0.0255 -0.2102
94303W        W37215  21.954  28.935  16.904 -0.1025  0.0649 -0.2690
94304W        W37216  20.801  27.680  17.342 -0.3337  0.1288  0.0841
94305W        W37217  17.432  26.400  18.955  0.2745  0.2816 -0.1148
94306W        W37218  20.455  26.242  20.139 -0.0248  0.1335 -0.1885
94307W        W37219  21.304  26.214  16.820  0.1416  0.1075  0.1268
94308W        W37220  20.398  26.544  16.860  0.0843  0.0829  0.0085
94309W        W37221  18.744  25.455  16.559 -0.2612 -0.4021  0.3702
94310W        W37222  19.738  28.649  18.446 -0.0917  0.1464 -0.3009
94311W        W37223  18.797  29.037  16.437  0.0015 -0.0080  0.1435
94312W        W37224  18.348  26.599  17.904  0.1426  0.0446  0.0940
94313W        W37225  20.535  29.804  18.419 -0.0893 -0.0276  0.0672
94314W        W37226  22.420  26.372  18.831 -0.0251  0.1956 -0.0345
94315W        W37227  19.116  27.635  20.595  0.1772  0.0835 -0.0203
94316W        W37228  21.327  26.315  18.374  0.0680 -0.2144 -0.0124
94317W        W37229  18.155  26.613  16.514 -0.0944 -0.0137 -0.0589
94318W        W37230  19.048  27.254  18.104  0.1796  0.1605 -0.3209
94319W        W37231  20.142  26.394  17.381  0.0496  0.3664 -0.0524
94320W        W37232  20.644  27.578  16.860 -0.2222  0.1199 -0.4318
94321W        W37233  20.042  27.099  18.813 -0.0221  0.1547 -0.0412
94322W        W37234  22.441  27.695  16.405  0.2887 -0.0773 -0.3287
94323W        W37235  20.895  27.319  16.040 -0.1490  0.3072  0.0962
94324W        W37236  19.609  26.805  16.796  0.1618 -0.4409  0.3400
94325W        W37237  19.638  27.531  18.094 -0.2627 -0.1600  0.1440
94326W        W37238  21.432  28.722  18.683  0.0573  0.5846  0.0219
94327W        W37239  21.464  28.981  18.027  0.0007 -0.2845 -0.4249
94328W        W37240  19.424  26.117  16.015 -0.1662 -0.0076  0.0899
94329W        W37241  21.649  28.842  16.039 -0.0407  0.0400 -0.4214
94330W        W37242  18.431  28.408  18.082  0.0623 -0.0595 -0.2902
94331W        W37243  19.812  28.606  17.960 -0.1655  0.1814  0.4175
94332W        W37244  22.063  28.311  17.883  0.0208 -0.0563  0.2754
94333W        W37245  19.490  24.964  20.077  0.2589  0.2550  0.1120
94334W        W37246  20.898  26.777  16.721 -0.1641  0.4770 -0.1109
94335W        W37247  19.836  26.189  17.748  0.1730  0.0059  0.3093
94336W        W37248  18.085  30.023  16.848  0.1823 -0.1329  0.2277
94337W        W37249  19.953  26.395  20.319  0.0560 -0.0373  0.2412
94338W        W37250  20.832  26.363  17.038 -0.2063  0.0138 -0.1491
94339W        W37251  20.581  25.694  19.163 -0.0505 -0.3089  0.3156
94340W        W37252  22.010  26.862  19.713 -0.2989 -0.0871 -0.1053
94341W        W37253  20.471  27.023  16.929  0.0650  0.1572 -0.1285
94342W        W37254  21.645  28.184  18.133 -0.4056  0.0646  0.0291
94343W        W37255  19.454  27.549  16.280  0.1773  0.0586 -0.0036
94344W        W37256  19.239  25.373  20.133  0.1385 -0.0940  0.1853
94345W        W37257  19.101  28.141  18.746  0.5845  0.1168 -0.1100
94346W        W37258  18.425  28.983  18.835  0.0007 -0.1237  0.3010
94347W        W37259  20.899  27.704  18.593  0.0143  0.0359 -0.3952
94348W        W37260  21.434  27.701  17.840 -0.0376  0.0907  0.4653
94349W        W37261  19.467  26.137  20.303 -0.1222  0.0369  0.2499
94350W        W37262  20.991  25.522  16.362 -0.1528 -0.2046 -0.0307
94351W        W37263  18.937  28.887  17.191  0.0230  0.0141  0.1059
94352W        W37264  20.131  28.365  16.436 -0.2013  0.4031 -0.0442
94353W        W37265  18.443  25.373  17.714  0.1867  0.1737 -0.4815
94354W        W37266  19.449  28.959  18.166  0.1014 -0.0594 -0.0283
94355W        W37267  19.605  29.167  16.241 -0.0738 -0.2944 -0.1772
94356W        W37268  20.013  28.153  19.099 -0.0075  0.1779 -0.1398
94357W        W37269  18.613  29.090  17.518  0.3595 -0.2165 -0.0259
94358W        W37270  21.749  25.714  19.075  0.0405 -0.0930  0.1671
94359W        W37271  17.950  29.617  18.676  0.0800 -0.0500  0.1597
94360W        W37272  19.122  26.541  16.074 -0.3791  0.0770  0.1552
94361W        W37273  18.213  26.735  18.390 -0.1967  0.3004  0.2434
94362W        W37274  21.079  25.948  16.079  0.0202  0.2845 -0.1267
94363W        W37275  21.654  28.067  16.601 -0.3102 -0.1628  0.0019
94364W        W37276  18.812  24.547  18.356  0.1231  0.3498  0.0275
94365W        W37277  20.691  26.029  17.375  0.1139 -0.0940  0.0688
94366W        W37278  18.396  28.562  19.110  0.1193  0.1080 -0.3253
94367W        W37279  20.042  26.286  18.196 -0.2390 -0.2839  0.0402
94368W        W37280  20.460  25.603  16.563  0.0348  0.2266 -0.1131
94369W        W37281  22.378  28.103  19.035  0.1312 -0.0207  0.2172
94370W        W37282  18.942  27.471  19.439  0.0673 -0.0072 -0.0954
94371W        W37283  17.684  27.952  16.823  0.1383  0.1325  0.1297
94372W        W37284  22.517  27.829  18.579 -0.1543  0.3498 -0.0080
94373W        W37285  18.538  25.822  17.463  0.1908  0.0456  0.0774
94374W        W37286  17.910  28.795  17.393  0.0513  0.0105  0.0270
94375W        W37287  20.148  29.169  17.685  0.0128  0.0644 -0.3012
94376W        W37288  19.449  27.503  17.249  0.1365 -0.1918  0.2720
94377W        W37289  18.054  28.269  16.485  0.3751  0.1266  0.2263
94378W        W37290  17.394  27.475  19.744 -0.1513 -0.0355  0.1389
94379W        W37291  21.285  26.679  20.207 -0.0423  0.1380  0.2331
94380W        W37292  20.025  26.765  18.299  0.0437  0.0761 -0.0482
94381W        W37293  20.697  26.374  19.325 -0.0089 -0.0770  0.0494
94382W        W37294  21.367  26.845  16.922 -0.4618 -0.0365  0.2682
94383W        W37295  21.173  27.983  18.319 -0.3184 -0.0396  0.4467
94384W        W37296  20.796  26.869  20.323  0.0167 -0.0101  0.3227
94385W        W37297  22.011  27.235  20.611  0.0610  0.6151  0.1614
94386W        W37298  18.872  25.635  17.843  0.0509 -0.1036 -0.0394
94387W        W37299  21.659  30.565  17.464  0.0274  0.0293  0.2910
94388W        W37300  21.781  27.590  19.551  0.3225  0.0508 -0.0172
94389W        W37301  20.381  28.353  16.892  0.2084  0.2617 -0.0820
94390W        W37302  18.114  28.476  18.616  0.3003 -0.0701  0.0356
94391W        W37303  19.772  27.071  17.833  0.0697  0.0825  0.1164
94392W        W37304  20.439  26.206  17.793  0.0701 -0.2804  0.0024
94393W        W37305  18.991  27.712  17.268  0.1127  0.3242 -0.1069
94394W        W37306  20.638  28.402  17.846  0.0874  0.0927 -0.2185
94395W        W37307  18.595  28.150  18.762  0.1583  0.1300 -0.0178
94396W        W37308  20.884  25.631  15.756  0.2329  0.0970 -0.2486
94397W        W37309  21.541  30.089  17.722 -0.1868 -0.0139 -0.2867
94398W        W37310  20.089  26.626  17.792  0.1164 -0.0251  0.0874
94399W        W37311  21.005  26.152  18.994  0.0345 -0.3346  0.0460
94400W        W37312  20.713  27.717  16.382  0.2230 -0.0632 -0.0368
94401W        W37313  20.353  24.918  20.386 -0.0620  0.0183 -0.0213
94402W        W37314  20.696  24.809  18.477 -0.1912 -0.1889  0.0909
94403W        W37315  21.835  28.558  16.536  0.2587  0.1769 -0.2013
94404W        W37316  17.927  25.698  18.011  0.0736 -0.1457 -0.3347
94405W        W37317  21.581  30.467  19.981 -0.1126  0.1171  0.0616
94406W        W37318  18.739  28.733  19.501  0.3229  0.1142  0.3228
94407W        W37319  20.503  25.547  17.106 -0.1704 -0.0496 -0.2026
94408W        W37320  19.783  25.633  17.689 -0.0788 -0.0553 -0.1635
94409W        W37321  19.830  27.246  17.354 -0.0783 -0.0096  0.1079
94410W        W37322  21.435  29.082  17.005 -0.0797  0.1934 -0.1954
94411W        W37323  21.224  27.777  17.033 -0.1122 -0.0502  0.3616
94412W        W37324  21.563  25.891  16.334 -0.2082 -0.0654 -0.3326
94413W        W37325  17.731  26.886  18.968 -0.1007 -0.1265  0.2462
94414W        W37326  21.321  26.565  16.514  0.0886  0.0257 -0.1621
94415W        W37327  20.834  28.080  16.863  0.4846 -0.2104 -0.0674
94416W        W37328  19.635  28.307  17.569 -0.1040  0.1421 -0.1910
94417W        W37329  20.321  26.786  19.104  0.1377 -0.1758 -0.1643
94418W        W37330  20.701  28.857  16.345 -0.2226  0.1543  0.1219
94419W        W37331  20.195  25.923  17.458 -0.0666 -0.0788 -0.1061
94420W        W37332  19.691  26.555  20.788 -0.0939 -0.0126  0.0908
94421W        W37333  19.560  27.518  20.215 -0.2573  0.3293  0.0698
94422W        W37334  20.878  28.212  18.742  0.2323  0.0318 -0.0073
94423W        W37335  18.835  27.491  17.716 -0.0118 -0.0206  0.0310
94424W        W37336  21.264  29.096  18.981  0.0180 -0.0050  0.0926
94425W        W37337  22.921  26.370  16.700 -0.1365  0.1243  0.3220
94426W        W37338  20.966  26.055  19.559  0.0104 -0.0630 -0.0847
94427W        W37339  20.815  25.285  17.460  0.3158 -0.1222  0.0865
94428W        W37340  20.085  26.763  16.515  0.1922  0.1876  0.2509
94429W        W37341  19.630  27.715  19.188 -0.3652  0.2991  0.3859
94430W        W37342  21.233  27.450  19.196 -0.2145 -0.0090 -0.2244
94431W        W37343  19.240  26.436  15.628 -0.2348 -0.3042 -0.1557
94432W        W37344  20.336  26.786  20.150  0.3777  0.0255  0.1568
94433W        W37345  21.736  28.330  16.050  0.1247 -0.2680 -0.0141
94434W        W37346  20.137  27.738  18.228 -0.1412 -0.0450  0.0285
94435W        W37347  20.923  26.289  16.451  0.1189 -0.0669 -0.0420
94436W        W37348  18.073  26.229  18.191  0.3884  0.0226  0.2771
94437W        W37349  18.959  29.618  18.583  0.0395  0.0618 -0.0804
94438W        W37350  19.584  25.678  16.065 -0.3091  0.1835 -0.1077
94439W        W37351  20.862  28.191  17.411 -0.3543  0.0144 -0.0059
94440W        W37352  21.326  29.375  18.450 -0.0421 -0.0784 -0.0347
94441W        W37353  20.670  29.188  18.999 -0.0376  0.3156  0.1491
94442W        W37354  20.092  25.602  16.148 -0.2156  0.0783 -0.1365
94443W        W37355  21.544  26.538  18.972  0.2532  0.1587 -0.0924
94444W        W37356  19.352  27.890  17.571 -0.1035  0.3664  0.2688
94445W        W37357  21.555  24.966  18.748 -0.0596  0.2148 -0.0861
94446W        W37358  19.624  29.164  17.790  0.1415  0.2358 -0.2343
94447W        W37359  17.581  27.453  18.146  0.0943 -0.0155 -0.0113
94448W        W37360  19.672  27.838  15.954 -0.0682 -0.3119 -0.1923
94449W        W37361  21.321  25.694  18.259 -0.0703 -0.2573 -0.0961
94450W        W37362  21.707  25.397  17.393  0.0914 -0.1452  0.1769
94451W        W37363  20.438  27.990  18.843 -0.1577  0.0387 -0.3561
94452W        W37364  21.257  27.325  18.702 -0.0503 -0.1027  0.1286
94453W        W37365  21.116  27.480  18.187  0.2566 -0.0367 -0.2543
94454W        W37366  18.537  27.135  16.796 -0.0038  0.0921  0.2114
94455W        W37367  21.268  27.882  18.901 -0.2478  0.2521 -0.1196
94456W        W37368  22.022  29.796  17.694  0.3380 -0.0409 -0.1670
94457W        W37369  19.906  28.195  16.901  0.2630 -0.0204  0.1744
94458W        W37370  18.016  25.529  20.902 -0.0583  0.1111  0.1369
94459W        W37371  20.570  28.061  18.195  0.0036 -0.0081  0.3023
94460W        W37372  20.353  27.045  17.954  0.0384  0.3531  0.1322
94461W        W37373  19.811  27.138  16.351 -0.3109 -0.0463 -0.0530
94462W        W37374  21.404  28.504  16.364 -0.3669 -0.1652 -0.1297
94463W        W37375  19.284  29.128  18.643 -0.0567 -0.1954 -0.0124
94464W        W37376  16.356  28.567  18.843 -0.1769 -0.1906 -0.0979
94465W        W37377  18.386  29.042  16.805 -0.1742 -0.0046  0.0736
94466W        W37378  21.163  28.034  16.377  0.0772 -0.0953 -0.0858
94467W        W37379  21.202  28.661  17.397  0.1068  0.0326 -0.1991
94468W        W37380  20.255  28.496  18.187  0.2322 -0.0030  0.0845
94469W        W37381  20.472  25.293  15.712  0.0564 -0.1008  0.1394
94470W        W37382  18.529  27.591  17.300 -0.0488  0.2689  0.0599
94471W        W37383  17.600  28.665  15.738 -0.1717 -0.0317 -0.0791
94472W        W37384  21.048  28.696  16.665  0.0503 -0.0258 -0.1250
94473W        W37385  18.841  29.837  16.392  0.0140  0.1482  0.0000
94474W        W37386  21.791  28.446  19.498  0.0492 -0.0438 -0.0775
94475W        W37387  21.396  25.427  16.086 -0.1815  0.1262 -0.0430
94476W        W37388  21.360  27.228  17.851  0.0799 -0.3310  0.2475
94477W        W37389  21.724  26.848  16.209 -0.0936  0.2428  0.2538
94478W        W37390  19.484  29.788  19.945 -0.3344 -0.3927 -0.2777
94479W        W37391  21.550  27.710  18.380 -0.0474  0.0712  0.2997
94480W        W37392  20.613  27.105  15.620 -0.1864  0.0344 -0.1765
94481W        W37393  17.775  26.582  19.401  0.0934 -0.0865 -0.1852
94482W        W37394  21.830  26.115  19.685  0.1371 -0.0366 -0.0588
94483W        W37395  19.756  26.873  20.407 -0.1054 -0.1579  0.1703
94484W        W37396  20.247  30.441  17.868  0.1803  0.0009 -0.1917
94485W        W37397  18.543  26.713  17.039 -0.0132  0.3019  0.0998
94486W        W37398  19.882  27.910  17.460 -0.0294 -0.3196  0.3619
94487W        W37399  21.987  25.245  18.894  0.0287  0.0496  0.0788
94488W        W37400  20.348  27.978  17.173 -0.0081 -0.1341 -0.0569
94489W        W37401  21.181  26.768  17.434  0.0372 -0.1406 -0.0569
94490W        W37402  19.795  29.835  16.121 -0.3086  0.0010  0.0766
94491W        W37403  19.506  28.303  18.987  0.1966  0.3978 -0.0393
94492W        W37404  19.854  29.189  18.605 -0.0445 -0.1645 -0.0225
94493W        W37405  17.997  24.929  15.471  0.0061 -0.0465  0.0807
94494W        W37406  22.845  27.459  17.576  0.1438 -0.2421 -0.1519
94495W        W37407  19.634  26.608  17.568 -0.3861 -0.0612 -0.1908
94496W        W37408  21.324  25.322  17.644  0.0648 -0.4670  0.2609
94497W        W37409  19.863  26.640  18.987 -0.1065 -0.0980 -0.2651
94498W        W37410  20.957  26.480  17.948  0.0470 -0.0065 -0.2591
94499W        W37411  20.927  27.855  17.886  0.1289  0.0153 -0.1876
94500W        W37412  19.306  27.162  19.232 -0.0379  0.5036 -0.0771
94501W        W37413  20.229  27.934  16.074 -0.1577 -0.2783  0.2588
94502W        W37414  22.303  27.583  19.035 -0.0174 -0.0298 -0.0622
94503W        W37415  19.302  26.934  16.358  0.1151  0.0751 -0.3141
94504W        W37416  21.993  28.916  19.683 -0.0855 -0.1029  0.0071
94505W        W37417  19.352  27.394  17.689  0.2436  0.2324 -0.1362
94506W        W37418  20.684  27.395  17.747  0.0650  0.0097 -0.0622
94507W        W37419  20.252  27.452  17.240 -0.2070 -0.2312  0.0417
94508W        W37420  20.899  27.011  17.860 -0.0861  0.2138  0.3407
94509W        W37421  20.473  28.235  19.271 -0.1531 -0.3541 -0.0556
94510W        W37422  18.580  26.701  18.721  0.2046 -0.1407  0.0467
94511W        W37423  22.627  27.888  15.948  0.2017  0.1291  0.1846
94512W        W37424  20.772  28.535  18.321 -0.2329  0.2006  0.1137
94513W        W37425  19.193  28.970  16.714  0.0718 -0.0480 -0.0125
94514W        W37426  22.159  27.278  16.329  0.1922  0.2137  0.2373
94515W        W37427  21.614  29.649  19.103  0.0443  0.0256 -0.0339
94516W        W37428  18.753  26.161  17.920 -0.0616 -0.2092 -0.2453
94517W        W37429  22.072  27.803  17.675  0.3140 -0.1988 -0.0673
94518W        W37430  21.572  28.179  18.620 -0.0015  0.0553 -0.1725
94519W        W37431  19.205  26.107  16.938 -0.0713 -0.0012 -0.0346
94520W        W37432  19.860  27.662  16.869 -0.1684 -0.0335  0.3433
94521W        W37433  18.806  27.922  16.892 -0.0601 -0.0450 -0.0067
94522W        W37434  22.651  27.123  18.464  0.4815 -0.1219 -0.1047
94523W        W37435  20.839  26.580  19.827  0.1695 -0.3608  0.0614
94524W        W37436  19.780  28.629  16.234  0.9094 -0.0403 -0.2756
94525W        W37437  20.593  26.026  18.800  0.0580 -0.2132 -0.0498
94526W        W37438  20.946  26.855  18.427  0.1355  0.3091  0.0116
94527W        W37439  19.236  29.140  19.501 -0.0506 -0.1976 -0.1259
94528W        W37440  19.063  26.906  15.693  0.1389  0.0156  0.2854
94529W        W37441  20.557  27.141  20.732 -0.0064  0.4363  0.3037
94530W        W37442  20.429  28.817  16.752 -0.2565 -0.0281  0.3202
94531W        W37443  20.567  29.755  17.824 -0.1693 -0.0159  0.0526
94532W        W37444  22.003  28.591  17.386 -0.0219 -0.0915  0.3586
94533W        W37445  19.346  25.915  17.435 -0.0908 -0.2169 -0.1769
94534W        W37446  21.746  29.349  17.727  0.2832  0.1515  0.0338
94535W        W37447  19.429  26.875  18.797  0.1058 -0.0083  0.1543
94536W        W37448  22.536  25.429  16.711 -0.2074  0.1663 -0.2713
94537W        W37449  21.598  25.885  17.080 -0.1300  0.1510  0.1577
94538W        W37450  19.141  27.742  18.008  0.1175 -0.3739  0.0065
94539W        W37451  17.777  27.622  17.733 -0.2802  0.0617 -0.0204
94540W        W37452  17.591  27.970  16.340  0.0311 -0.1733 -0.2270
94541W        W37453  19.070  26.855  16.874 -0.1127  0.2104 -0.0151
94542W        W37454  20.647  24.321  20.503 -0.0523 -0.0984 -0.2463
94543W        W37455  19.535  27.382  18.691  0.0625  0.1709  0.2582
94544W        W37456  19.519  27.112  18.273  0.2785 -0.1584  0.1964
94545W        W37457  19.411  26.039  16.509  0.0458 -0.1739  0.0457
94546W        W37458  21.159  27.721  15.834  0.1147 -0.1367  0.2251
94547W        W37459  19.859  25.323  19.692 -0.0517  0.1674  0.3153
94548W        W37460  18.980  26.344  17.294 -0.1636 -0.0908  0.2267
94549W        W37461  21.034  29.763  18.248  0.1504 -0.0152 -0.0491
94550W        W37462  20.920  29.995  16.747  0.3204  0.0078 -0.1377
94551W        W37463  20.171  28.213  17.783  0.0743 -0.3009  0.0301
94552W        W37464  21.582  28.694  19.865 -0.0175 -0.2324  0.0995
94553W        W37465  16.877  28.056  15.808  0.0093  0.4285 -0.0844
94554W        W37466  20.806  27.711  19.121  0.3799 -0.0591 -0.1848
94555W        W37467  20.318  26.169  19.595  0.0485  0.1850  0.0140
94556W        W37468  18.649  25.804  16.110 -0.0047 -0.2233 -0.1836
94557W        W37469  20.820  27.251  18.971 -0.1456 -0.1079 -0.1587
94558W        W37470  20.333  29.480  17.289 -0.1697 -0.0524  0.0682
94559W        W37471  20.616  29.489  16.467  0.1710 -0.1020 -0.0475
94560W        W37472  19.260  29.419  18.233  0.2132 -0.0866  0.3703
94561W        W37473  19.171  28.630  18.663  0.0575  0.2248  0.3309
94562W        W37474  18.711  26.165  21.769 -0.0056  0.2631  0.1150
94563W        W37475  22.450  27.497  16.860 -0.1001  0.1272 -0.0823
94564W        W37476  20.345  28.664  19.280  0.0495  0.1256  0.3071
94565W        W37477  21.292  28.250  16.863 -0.1862  0.0675  0.3322
94566W        W37478  21.984  26.403  18.591 -0.1027  0.2099  0.2555
94567W        W37479  20.222  27.435  16.511 -0.1568 -0.1455 -0.2400
94568W        W37480  17.489  26.772  19.851 -0.4059 -0.1215  0.1031
94569W        W37481  19.254  28.621  19.318 -0.0179  0.0889  0.0959
94570W        W37482  21.963  30.321  17.790  0.0557  0.2695  0.1460
94571W        W37483  19.221  26.352  17.801 -0.0204 -0.0615  0.2732
94572W        W37484  20.383  26.169  16.433  0.1625 -0.0709  0.0859
94573W        W37485  20.956  29.196  18.108 -0.0852 -0.0501  0.1890
94574W        W37486  17.614  26.673  18.177  0.3573  0.1113 -0.1959
94575W        W37487  20.010  27.159  16.845  0.1008 -0.1746  0.3480
94576W        W37488  19.399  27.452  21.072 -0.0374  0.1110  0.1880
94577W        W37489  20.814  29.423  18.553  0.0854 -0.0431 -0.0547
94578W        W37490  21.116  27.212  20.181  0.3051  0.2620  0.3642
94579W        W37491  21.333  27.075  16.454  0.2508  0.0449 -0.0254
94580W        W37492  23.086  26.666  15.919  0.1794 -0.0397  0.1537
94581W        W37493  18.955  28.972  19.009 -0.0466 -0.0217  0.1088
94582W        W37494  22.675  28.136  19.532 -0.0682  0.0210  0.3178
94583W        W37495  20.993  28.232  19.299 -0.2663  0.0947  0.3885
94584W        W37496  21.734  27.464  17.469 -0.1275  0.0175 -0.1361
94585W        W37497  19.080  26.677  18.490  0.0594 -0.0805  0.0472
94586W        W37498  19.494  27.247  16.803  0.0603 -0.1172 -0.4040
94587W        W37499  21.173  28.270  17.786 -0.1094  0.0742 -0.3244
94588W        W37500  20.508  26.584  18.114  0.1764  0.0656  0.3347
94589W        W37501  18.741  26.772  17.535  0.1199  0.2356  0.3157
94590W        W37502  20.530  25.860  16.044 -0.2803 -0.1303  0.1710
94591W        W37503  19.820  29.550  18.923 -0.1808  0.2911  0.2281
94592W        W37504  20.718  28.736  17.505  0.1222  0.3540  0.4102
94593W        W37505  19.383  27.972  20.985  0.1520  0.2326 -0.2320
94594W        W37506  18.376  27.050  20.781  0.4407  0.1010  0.0360
94595W        W37507  20.677  27.072  19.869  0.0960 -0.3105 -0.1268
94596W        W37508  19.624  27.949  19.969 -0.0850 -0.1115  0.1809
94597W        W37509  18.257  27.492  21.536 -0.0032  0.3309 -0.0613
94598W        W37510  20.944  29.198  20.763 -0.1709  0.1327 -0.3480
94599W        W37511  18.677  25.531  22.634  0.0293 -0.0152 -0.1122
94600W        W37512  19.740  27.403  22.623  0.2196  0.1470 -0.0555
94601W        W37513  22.227  28.839  21.819 -0.0715 -0.0697 -0.0494
94602W        W37514  21.383  27.903  19.496  0.5486  0.2226  0.0839
94603W        W37515  19.605  27.064  23.043  0.1144  0.0712  0.3016
94604W        W37516  19.865  30.164  24.754 -0.0882 -0.0323  0.1541
94605W        W37517  18.715  26.933  20.435 -0.3403  0.1366  0.3443
94606W        W37518  17.208  25.685  21.627  0.3121  0.1538 -0.0448
94607W        W37519  20.211  29.017  22.009  0.0555  0.0499 -0.1436
94608W        W37520  17.536  27.735  21.588 -0.1114 -0.2338  0.1401
94609W        W37521  20.464  27.382  23.410  0.1529 -0.3044 -0.2488
94610W        W37522  19.296  26.601  20.420  0.2069  0.0671  0.1011
94611W        W37523  19.270  29.197  22.910 -0.1241 -0.0272 -0.1599
94612W        W37524  20.059  26.992  22.819 -0.0106  0.3092 -0.3352
94613W        W37525  19.877  26.206  24.283  0.0399 -0.3998 -0.3169
94614W        W37526  19.580  28.855  20.946  0.1265 -0.2821 -0.2727
94615W        W37527  17.806  27.742  19.911  0.0500  0.1594 -0.2450
94616W        W37528  18.590  28.422  21.286 -0.3286  0.0257  0.2483
94617W        W37529  20.793  27.812  23.835  0.0487 -0.3043 -0.2453
94618W        W37530  21.450  26.160  20.291  0.3536 -0.3463 -0.0032
94619W        W37531  21.783  26.892  20.973  0.1227  0.0435  0.0029
94620W        W37532  19.885  30.009  22.981 -0.0740  0.0174  0.1913
94621W        W37533  21.189  27.806  21.096 -0.2251  0.2455  0.0146
94622W        W37534  20.448  27.340  22.898 -0.1239  0.2250 -0.1202
94623W        W37535  19.641  29.490  22.208  0.1956  0.2831  0.0455
94624W        W37536  17.304  29.630  21.855  0.2068 -0.0477 -0.0220
94625W        W37537  18.498  29.006  21.225  0.0807 -0.2009 -0.1555
94626W        W37538  21.391  28.985  21.277 -0.2341  0.5264  0.0925
94627W        W37539  20.775  29.951  23.691 -0.0545 -0.1415 -0.1058
94628W        W37540  19.174  30.654  23.208  0.0725  0.0671 -0.0947
94629W        W37541  18.551  28.418  19.815 -0.1962 -0.3606  0.1922
94630W        W37542  20.020  28.681  21.686 -0.2256  0.0760 -0.0011
94631W        W37543  17.880  29.042  23.464  0.2161  0.2661 -0.2782
94632W        W37544  19.377  27.705  23.848  0.2718 -0.2426 -0.0810
94633W        W37545  20.082  27.726  20.215 -0.2486 -0.1767 -0.0887
94634W        W37546  19.093  28.341  19.742  0.1388 -0.0371 -0.2299
94635W        W37547  20.691  28.172  21.090  0.1375  0.2876  0.1487
94636W        W37548  18.250  28.415  22.863  0.0892  0.3051 -0.3488
94637W        W37549  17.122  28.494  21.081 -0.0894 -0.1902  0.0970
94638W        W37550  20.348  25.381  24.166 -0.1893  0.1329 -0.2493
94639W        W37551  18.759  28.961  20.573  0.1323 -0.1172  0.4095
94640W        W37552  20.734  27.407  19.498 -0.0245 -0.0746  0.1220
94641W        W37553  18.118  26.619  19.016 -0.3458 -0.1096 -0.0328
94642W        W37554  19.443  27.998  21.521 -0.1933 -0.0647  0.1256
94643W        W37555  19.770  27.301  21.464 -0.3156  0.2009 -0.0184
94644W        W37556  18.017  29.137  21.336  0.0545  0.1834  0.2605
94645W        W37557  19.136  26.110  24.679  0.3397 -0.1122  0.0202
94646W        W37558  19.847  29.525  22.628 -0.0723  0.4289  0.0334
94647W        W37559  18.804  26.957  19.547  0.0298 -0.1054  0.2513
94648W        W37560  20.223  27.081  23.811 -0.2769 -0.1594  0.2086
94649W        W37561  18.329  29.376  22.575 -0.2896 -0.2128  0.0395
94650W        W37562  17.537  27.541  21.154  0.1685 -0.1481  0.2230
94651W        W37563  22.760  30.478  20.870 -0.1384  0.0168  0.1892
94652W        W37564  22.060  29.735  21.918 -0.1886 -0.0645 -0.1455
94653W        W37565  18.861  29.086  18.390 -0.2096 -0.3670 -0.2229
94654W        W37566  17.237  28.793  20.670 -0.1322 -0.1564 -0.2209
94655W        W37567  18.961  28.158  21.764  0.1365  0.1787  0.1184
94656W        W37568  19.202  27.066  24.994  0.1532  0.0187  0.1306
94657W        W37569  18.687  24.925  18.864  0.1188 -0.0543 -0.2366
94658W        W37570  20.975  27.972  23.352  0.1805 -0.3371 -0.2181
94659W        W37571  17.734  27.873  24.392  0.1994 -0.2575  0.3614
94660W        W37572  21.259  26.772  21.084 -0.1089  0.0904 -0.1742
94661W        W37573  19.825  27.733  21.134 -0.0654 -0.0989 -0.1356
94662W        W37574  21.742  27.933  22.340 -0.0039 -0.0262  0.2708
94663W        W37575  21.973  27.870  19.948  0.3925  0.0775 -0.1849
94664W        W37576  21.228  26.111  22.709 -0.0716 -0.1937  0.2278
94665W        W37577  19.409  26.166  21.268 -0.1682  0.0322 -0.0586
94666W        W37578  19.000  26.768  19.100 -0.0330 -0.2498 -0.0523
94667W        W37579  19.819  27.075  19.913  0.1119  0.1278  0.2821
94668W        W37580  20.925  28.477  22.428  0.0169  0.0581  0.1244
94669W        W37581  22.132  27.926  19.461  0.0984  0.0383  0.2705
94670W        W37582  18.211  28.954  22.196  0.0191 -0.2461  0.0932
94671W        W37583  20.476  26.502  23.425 -0.1257 -0.3004 -0.0745
94672W        W37584  19.561  29.538  23.265  0.2870 -0.0028 -0.1403
94673W        W37585  18.071  29.091  20.821 -0.6022  0.4183  0.0557
94674W        W37586  17.464  28.247  20.678  0.1633 -0.1238  0.1957
94675W        W37587  18.671  27.737  19.063 -0.1676  0.0470  0.1122
94676W        W37588  19.198  25.517  23.315  0.5611  0.1841 -0.2954
94677W        W37589  19.923  28.248  22.484 -0.2869  0.1842  0.0533
94678W        W37590  21.179  26.944  19.699  0.1504 -0.0574  0.2262
94679W        W37591  19.380  26.858  23.402 -0.2873 -0.0489  0.4187
94680W        W37592  21.391  24.442  22.034 -0.2508 -0.4451  0.0773
94681W        W37593  18.921  28.071  20.712  0.2580 -0.0355 -0.0129
94682W        W37594  21.230  29.325  20.370  0.0932 -0.3400 -0.0897
94683W        W37595  22.525  27.192  20.492  0.2552  0.0495 -0.0041
94684W        W37596  21.146  27.409  19.736  0.0980  0.0700 -0.3824
94685W        W37597  19.133  28.389  23.323 -0.0608 -0.0337  0.3222
94686W        W37598  18.862  26.755  23.389  0.2611 -0.0560 -0.3358
94687W        W37599  19.112  26.981  22.971  0.3191 -0.1883  0.0766
94688W        W37600  18.267  27.131  22.531  0.0519  0.0118 -0.2577
94689W        W37601  20.529  28.430  23.471  0.5988  0.0287  0.0961
94690W        W37602  18.194  27.293  20.394  0.0886  0.4822 -0.3384
94691W        W37603  20.326  27.840  21.329  0.4015  0.3144  0.4886
94692W        W37604  18.738  27.887  19.710  0.1258 -0.0568 -0.0683
94693W        W37605  17.377  27.450  22.604  0.0818  0.2467  0.5324
94694W        W37606  20.639  26.100  21.849 -0.1750 -0.0696  0.0510
94695W        W37607  20.459  28.925  19.859  0.0420 -0.3206 -0.0992
94696W        W37608  21.458  28.946  23.243  0.2861  0.0716  0.0148
94697W        W37609  20.969  29.712  20.876  0.1521  0.1063  0.1110
94698W        W37610  19.666  25.681  23.456  0.1027 -0.2197 -0.1861
94699W        W37611  18.380  27.418  19.412 -0.0142  0.0152 -0.3679
94700W        W37612  17.598  28.674  21.048  0.0137 -0.0491 -0.0602
94701W        W37613  18.512  29.744  22.787 -0.0364 -0.1462 -0.0813
94702W        W37614  18.825  27.314  20.850  0.3601  0.1951  0.1646
94703W        W37615  20.269  29.079  20.476 -0.1150 -0.0533  0.2642
94704W        W37616  21.121  27.725  20.158 -0.0547  0.0769 -0.0718
94705W        W37617  19.194  27.386  22.707 -0.0640  0.0588  0.1406
94706W        W37618  20.724  25.539  21.795  0.0495 -0.0214  0.1556
94707W        W37619  22.461  26.981  22.435 -0.0218  0.0125 -0.0055
94708W        W37620  21.136  26.923  20.659  0.2112 -0.1148 -0.3137
94709W        W37621  20.334  27.189  19.365 -0.1635  0.0500 -0.1982
94710W        W37622  19.955  29.000  21.367 -0.0032  0.2265 -0.3314
94711W        W37623  18.436  29.503  20.798  0.0291 -0.0753  0.0273
94712W        W37624  19.904  27.660  20.657 -0.0343  0.0213  0.0072
94713W        W37625  19.432  28.681  21.950  0.1534 -0.1213  0.0591
94714W        W37626  22.149  25.552  20.752 -0.0931  0.1907 -0.3486
94715W        W37627  19.667  27.354  24.070  0.2577  0.0810  0.0457
94716W        W37628  19.046  27.519  23.151  0.0599 -0.1201 -0.0520
94717W        W37629  18.079  26.084  22.149 -0.0989  0.2132  0.3772
94718W        W37630  18.939  28.435  22.294 -0.0221 -0.2033 -0.0090
94719W        W37631  21.426  26.434  22.391 -0.0928 -0.1325  0.1437
94720W        W37632  21.240  28.598  20.244 -0.0628 -0.1189  0.1078
94721W        W37633  20.560  27.873  24.286  0.2461 -0.0026  0.1467
94722W        W37634  21.761  28.422  20.320  0.0791  0.0178 -0.1450
94723W        W37635  19.601  25.700  20.047 -0.1163  0.2157  0.0511
94724W        W37636  20.170  26.332  20.829  0.3665 -0.1105 -0.2350
94725W        W37637  17.680  28.735  22.968  0.0372 -0.0691  0.0251
94726W        W37638  20.407  27.743  20.630  0.2621  0.3243  0.3700
94727W        W37639  19.269  29.451  24.087 -0.3539  0.2341 -0.1355
94728W        W37640  20.145  26.800  20.695 -0.1233 -0.1215 -0.2330
94729W        W37641  22.262  28.300  19.782  0.2184  0.1249  0.2028
94730W        W37642  19.113  28.332  21.231  0.0160 -0.2409 -0.2115
94731W        W37643  20.591  29.396  22.815 -0.1719  0.1486  0.2744
94732W        W37644  20.915  28.165  20.153 -0.0315 -0.1011 -0.1064
94733W        W37645  18.927  25.082  23.721 -0.0441  0.0526 -0.1159
94734W        W37646  18.713  27.040  18.404 -0.2342 -0.0120  0.1131
94735W        W37647  18.739  25.436  21.389 -0.0811 -0.1426 -0.0476
94736W        W37648  18.215  28.080  19.849  0.0095  0.1558  0.0555
94737W        W37649  20.399  26.476  22.957  0.2563 -0.1407  0.0151
94738W        W37650  19.588  26.434  22.286  0.0631 -0.1381 -0.1078
94739W        W37651  19.914  26.159  22.815 -0.0823 -0.0733 -0.0301
94740W        W37652  20.440  25.644  24.831  0.2470 -0.0137  0.0590
94741W        W37653  19.861  27.181  20.787 -0.2619 -0.2885 -0.0408
94742W        W37654  20.667  27.255  22.378  0.2969 -0.0935  0.3266
94743W        W37655  19.460  26.646  19.885 -0.0328 -0.1048 -0.0953
94744W        W37656  20.239  24.883  24.451  0.1812 -0.4334 -0.0476
94745W        W37657  18.133  27.266  23.028  0.1433  0.0768 -0.2449
94746W        W37658  18.437  28.458  22.390  0.1196 -0.3558 -0.2182
94747W        W37659  20.909  29.047  22.552 -0.0057  0.2772  0.3848
94748W        W37660  20.609  27.546  20.056 -0.0586  0.1513 -0.4907
94749W        W37661  20.014  26.619  23.481  0.2235  0.0873 -0.1341
94750W        W37662  20.465  26.111  21.224 -0.0937  0.2565  0.1642
94751W        W37663  18.311  28.577  20.416  0.0825 -0.1181  0.0516
94752W        W37664  20.071  27.474  17.738  0.0443  0.1069 -0.0170
94753W        W37665  21.333  25.687  21.767  0.3554  0.3898  0.2420
94754W        W37666  19.477  28.388  22.355  0.0776  0.0777 -0.2103
94755W        W37667  19.130  28.099  19.300 -0.0406 -0.1972  0.0107
94756W        W37668  21.403  27.525  21.604  0.0401  0.1388  0.0699
94757W        W37669  19.189  29.108  22.071  0.1801  0.0944  0.2273
94758W        W37670  20.308  25.316  22.036  0.3308 -0.1188 -0.1395
94759W        W37671  19.960  28.661  20.680 -0.5097 -0.0935  0.0032
94760W        W37672  18.319  27.535  19.958 -0.2875  0.2350  0.1648
94761W        W37673  17.876  27.860  20.884 -0.3784 -0.1395 -0.2052
94762W        W37674  21.288  26.653  21.955 -0.0049 -0.0028 -0.1744
94763W        W37675  21.474  28.074  20.129  0.0192 -0.3293 -0.0210
94764W        W37676  18.469  26.506  23.222  0.0457  0.0970 -0.2220
94765W        W37677  19.943  27.806  22.221 -0.2941 -0.0205 -0.1653
94766W        W37678  17.494  28.357  22.053  0.3654 -0.2798  0.0136
94767W        W37679  20.473  28.230  22.495  0.1964  0.1181  0.0674
94768W        W37680  21.524  26.529  20.776 -0.3470  0.2587  0.1513
94769W        W37681  20.227  28.572  22.759 -0.1626 -0.1302 -0.2812
94770W        W37682  19.452  27.142  24.527 -0.0761  0.0005  0.0063
94771W        W37683  19.369  26.089  19.519 -0.2089  0.4202 -0.2278
94772W        W37684  20.961  26.125  24.076  0.0930 -0.0301  0.0802
94773W        W37685  19.128  26.546  21.522  0.0995 -0.1869  0.0952
94774W        W37686  18.816  28.409  20.311  0.0182  0.0791 -0.1339
94775W        W37687  21.053  27.720  21.885  0.5217  0.2244 -0.0156
94776W        W37688  18.167  27.710  20.548  0.0896 -0.1817 -0.2689
94777W        W37689  20.001  28.176  21.454  0.2172 -0.1022  0.1137
94778W        W37690  19.504  26.846  22.590  0.1262 -0.0854  0.1687
94779W        W37691  19.896  27.490  23.611 -0.1661 -0.0876 -0.0964
94780W        W37692  18.651  27.487  20.432  0.0041  0.1401 -0.1659
94781W        W37693  19.042  27.076  21.284 -0.1164 -0.1009 -0.0150
94782W        W37694  19.963  27.394  21.968  0.2479 -0.1723  0.0096
94783W        W37695  21.688  27.845  21.215 -0.1270 -0.3137 -0.0226
94784W        W37696  20.917  26.510  22.729 -0.0099  0.2216 -0.1722
94785W        W37697  18.455  29.225  23.691 -0.0309 -0.0651 -0.0717
94786W        W37698  21.377  25.422  20.828  0.0264 -0.1235 -0.1705
94787W        W37699  21.752  29.515  21.271 -0.1827 -0.0078 -0.2014
94788W        W37700  20.555  26.924  23.162  0.0925 -0.2042  0.3428
94789W        W37701  18.860  28.459  19.048  0.1362 -0.3741 -0.0667
94790W        W37702  18.855  28.990  22.937 -0.2539  0.0915 -0.2410
94791W        W37703  19.489  28.008  20.523 -0.0195 -0.2557  0.0912
94792W        W37704  19.979  26.834  21.645  0.0235 -0.0583 -0.1040
94793W        W37705  17.735  28.216  22.848 -0.1999  0.2091  0.1145
94794W        W37706  20.020  28.173  20.440 -0.1061  0.0618  0.0684
94795W        W37707  18.517  29.347  23.078  0.3361  0.1892  0.0367
94796W        W37708  21.488  25.878  21.310 -0.0768  0.0537  0.2991
94797W        W37709  21.000  28.944  19.833  0.2079  0.1802 -0.1940
94798W        W37710  19.607  26.037  21.970 -0.0912  0.1302  0.1301
94799W        W37711  20.796  26.136  23.199  0.0293 -0.0831  0.2605
94800W        W37712  20.315  27.822  19.720  0.0132  0.0638 -0.3041
94801W        W37713  19.599  25.046  24.621 -0.1688  0.1137 -0.1522
94802W        W37714  20.439  25.960  22.847  0.1866  0.0540 -0.0224
94803W        W37715  20.745  27.628  21.003 -0.1983 -0.0945  0.2036
94804W        W37716  19.278  27.502  21.559 -0.0583  0.1998  0.0404
94805W        W37717  19.899  27.885  24.269 -0.0119 -0.0303 -0.0460
94806W        W37718  18.469  26.584  24.426  0.0306 -0.0907  0.1217
94807W        W37719  20.396  25.611  21.218 -0.0866 -0.2349  0.3996
94808W        W37720  19.070  26.506  19.544 -0.0172 -0.2304 -0.0556
94809W        W37721  19.987  28.194  23.026  0.0656 -0.0685 -0.0399
94810W        W37722  21.164  28.693  22.062 -0.0121  0.0190 -0.3038
94811W        W37723  19.864  27.244  19.256  0.0590 -0.1855  0.0594
94812W        W37724  20.590  27.483  21.925 -0.4953  0.1620  0.1408
94813W        W37725  20.192  27.275  20.396 -0.0437 -0.1873  0.0725
94814W        W37726  20.922  27.428  20.623  0.1199  0.2336  0.0474
94815W        W37727  19.021  26.790  20.026 -0.0621 -0.0708  0.1753
94816W        W37728  18.681  28.781  22.063 -0.0459  0.0945 -0.0869
94817W        W37729  20.210  25.608  23.696  0.0568 -0.2199  0.1804
94818W        W37730  20.101  27.775  22.740  0.1292  0.3525  0.2450
94819W        W37731  21.092  26.843  22.376 -0.2143  0.0618 -0.2659
94820W        W37732  20.238  26.147  23.781 -0.1529 -0.1658  0.2595
94821W        W37733  21.398  26.475  23.008  0.3612 -0.0121  0.2376
94822W        W37734  20.233  25.531  22.551  0.4205  0.1111  0.2124
94823W        W37735  17.953  25.247  23.327 -0.2643  0.2258  0.0302
94824W        W37736  20.834  27.108  21.112  0.0033 -0.0059  0.0720
94825W        W37737  22.576  28.732  19.698  0.0486  0.2026 -0.0585
94826W        W37738  21.660  25.350  21.672 -0.2889  0.1348 -0.0234
94827W        W37739  21.616  28.530  21.083 -0.4149  0.2571 -0.1128
94828W        W37740  21.042  26.430  20.694 -0.0324 -0.0484 -0.3204
94829W        W37741  18.561  27.860  21.675 -0.1701  0.0739 -0.2860
94830W        W37742  21.282  28.211  21.965  0.0314 -0.2605  0.0693
94831W        W37743  18.383  25.919  20.484  0.0912 -0.1034 -0.1788
94832W        W37744  20.457  26.307  22.451 -0.1707  0.4323  0.3779
94833W        W37745  19.327  28.465  20.134  0.1372 -0.1907  0.0018
94834W        W37746  19.705  28.334  21.063  0.1943 -0.1612 -0.0759
94835W        W37747  19.917  26.383  21.296 -0.2514 -0.3135  0.2925
94836W        W37748  18.819  27.006  22.508  0.2043  0.0903 -0.0954
94837W        W37749  19.417  30.072  24.381 -0.2691  0.2577  0.1189
94838W        W37750  20.234  26.248  19.082  0.1988 -0.1309 -0.0986
94839W        W37751  19.228  27.777  19.685 -0.1446  0.0919 -0.2478
94840W        W37752  19.849  28.745  22.280 -0.1512 -0.2078  0.1628
94841W        W37753  19.747  28.685  22.779  0.1727  0.0556  0.2004
94842W        W37754  19.029  27.189  21.887  0.2147  0.0421  0.0269
94843W        W37755  20.969  26.623  24.136  0.1433  0.0442  0.0997
94844W        W37756  19.395  27.012  20.793 -0.0570  0.0531 -0.0645
94845W        W37757  21.325  25.377  21.310 -0.1285  0.2979 -0.0983
94846W        W37758  17.963  28.682  22.566  0.0686 -0.0723 -0.1625
94847W        W37759  18.396  28.134  20.747  0.0358  0.0264  0.0633
94848W        W37760  18.844  29.394  22.650  0.0310  0.0941  0.1320
94849W        W37761  19.651  26.576  23.029 -0.0855  0.0441  0.2584
94850W        W37762  20.329  27.944  23.329 -0.0382 -0.0688 -0.0690
94851W        W37763  20.648  27.787  22.980  0.0662 -0.0968  0.1756
94852W        W37764  22.718  25.942  22.898 -0.0765 -0.2668 -0.2123
94853W        W37765  20.126  29.118  23.567  0.3567  0.2004 -0.3201
94854W        W37766  19.270  28.720  22.873 -0.0654  0.0699 -0.0423
94855W        W37767  19.549  28.256  22.822  0.3771  0.2363 -0.1253
94856W        W37768  21.614  27.398  20.987  0.0705 -0.3176  0.2855
94857W        W37769  17.621  30.271  22.912 -0.0780 -0.4230 -0.2028
94858W        W37770  18.662  27.201  23.031  0.1240  0.1823 -0.0771
94859W        W37771  21.138  27.859  25.470 -0.0669 -0.3089 -0.0785
94860W        W37772  21.149  28.364  21.032 -0.2690  0.4854  0.1799
94861W        W37773  18.811  26.377  20.467 -0.0205  0.3009 -0.1369
94862W        W37774  20.701  28.413  19.709 -0.0009 -0.0343 -0.0407
94863W        W37775  17.693  28.826  24.299 -0.4403  0.0980 -0.3889
94864W        W37776  19.061  28.025  22.999  0.0945  0.1370 -0.1999
94865W        W37777  18.715  28.540  20.771 -0.3373 -0.0690  0.1106
94866W        W37778  20.361  26.772  19.677 -0.0520 -0.2774 -0.0575
94867W        W37779  20.509  28.321  20.596  0.0767 -0.0190 -0.1007
94868W        W37780  20.737  28.251  22.009 -0.0743 -0.3836  0.1098
94869W        W37781  18.250  26.899  19.452 -0.1055 -0.0278 -0.1345
94870W        W37782  18.233  30.129  22.654 -0.1340  0.0217  0.0621
94871W        W37783  16.185  29.069  21.516 -0.3446 -0.0261 -0.1961
94872W        W37784  21.499  28.758  20.620  0.2765  0.2314  0.3113
94873W        W37785  18.392  29.357  21.839  0.0439  0.2178 -0.0021
94874W        W37786  19.636  27.950  23.493 -0.0238 -0.2310  0.3303
94875W        W37787  20.760  25.224  20.453 -0.0548  0.3978  0.0050
94876W        W37788  22.673  26.978  21.602  0.4511  0.0958  0.3918
94877W        W37789  21.948  25.982  21.083 -0.2202 -0.2442 -0.2362
94878W        W37790  21.957  28.380  22.444  0.0607  0.3282 -0.3956
94879W        W37791  20.158  27.385  22.400 -0.1350 -0.0581 -0.0496
94880W        W37792  19.083  25.281  19.282 -0.1011  0.2133 -0.5416
94881W        W37793  20.955  27.315  23.193 -0.0401  0.1414  0.0249
94882W        W37794  21.365  27.084  22.960  0.2298  0.0092 -0.0299
94883W        W37795  18.493  28.889  22.599 -0.2067 -0.2005 -0.0076
94884W        W37796  21.279  28.069  21.514 -0.0670  0.3970 -0.2187
94885W        W37797  18.436  28.373  21.830 -0.2630 -0.0102 -0.0943
94886W        W37798  19.585  28.573  21.477  0.3116  0.1413  0.2157
94887W        W37799  21.800  26.752  22.050  0.0582  0.0083  0.5084
94888W        W37800  19.568  28.215  19.529 -0.1225 -0.0886 -0.1717
94889W        W37801  19.379  27.869  22.030 -0.1856 -0.1012 -0.1003
94890W        W37802  19.286  29.626  19.529 -0.1498 -0.1620  0.0003
94891W        W37803  19.805  28.232  21.947  0.0983  0.0287  0.0887
94892W        W37804  21.205  29.543  22.606  0.0313  0.2248  0.0637
94893W        W37805  18.779  27.448  21.527  0.1969  0.0655 -0.0447
94894W        W37806  21.148  27.320  22.382 -0.1277  0.0520  0.3511
94895W        W37807  19.446  27.344  23.450 -0.2191  0.0501 -0.0864
94896W        W37808  20.954  25.669  22.944 -0.2869 -0.0237  0.0907
94897W        W37809  19.914  27.776  21.651 -0.3255  0.2029  0.1105
94898W        W37810  21.244  26.184  21.702 -0.0311 -0.0732  0.2396
94899W        W37811  19.548  27.831  22.504 -0.2799 -0.2350 -0.0348
94900W        W37812  20.489  26.799  22.448  0.1146 -0.0634  0.0864
94901W        W37813  21.217  26.908  19.059  0.3910  0.0182 -0.1451
94902W        W37814  21.492  28.307  22.675 -0.1517  0.0340 -0.1534
94903W        W37815  21.161  26.518  19.360 -0.1499 -0.0490 -0.1175
94904W        W37816  20.865  30.812  23.876 -0.1236 -0.0733  0.0122
94905W        W37817  19.703  26.834  21.190  0.1736 -0.1132  0.1468
94906W        W37818  20.716  26.578  21.099 -0.0400 -0.0436 -0.0121
94907W        W37819  18.834  27.800  22.149 -0.2487  0.0220  0.1553
94908W        W37820  19.216  28.087  24.752  0.0150 -0.0347 -0.1324
94909W        W37821  19.502  27.700  22.996 -0.0906  0.2233 -0.2473
94910W        W37822  18.702  26.044  20.801  0.1288 -0.0574 -0.0088
94911W        W37823  22.321  27.632  20.239 -0.2151 -0.3196 -0.3709
94912W        W37824  20.157  26.588  22.028  0.0602 -0.3620  0.2250
94913W        W37825  19.981  29.082  20.012 -0.2663  0.0697 -0.3582
94914W        W37826  21.608  27.567  20.104 -0.0597  0.1499  0.1936
94915W        W37827  20.718  28.999  22.078  0.3874 -0.0502 -0.0634
94916W        W37828  17.052  26.894  21.238 -0.1521 -0.0930 -0.0347
94917W        W37829  22.496  27.892  22.284 -0.0981  0.1935  0.1536
94918W        W37830  21.639  27.565  22.598 -0.0467 -0.2567  0.0355
94919W        W37831  20.236  26.845  21.185 -0.1181  0.1329 -0.1259
94920W        W37832  19.211  27.137  20.341  0.2332  0.1640  0.3598
94921W        W37833  18.348  28.847  21.683  0.0966  0.1770  0.2339
94922W        W37834  20.963  27.139  21.919 -0.0248  0.1494 -0.0996
94923W        W37835  20.361  26.370  25.158 -0.0176 -0.0662 -0.2797
94924W        W37836  18.457  29.828  18.849  0.0006 -0.0085  0.0306
94925W        W37837  19.282  25.618  23.850  0.2757 -0.1224 -0.2724
94926W        W37838  19.676  29.007  23.167 -0.1430 -0.1702 -0.1056
94927W        W37839  19.268  28.892  23.365 -0.2784 -0.0980 -0.1485
94928W        W37840  19.167  27.621  19.020  0.0233 -0.1607 -0.1925
94929W        W37841  18.965  27.910  24.324 -0.0746 -0.1466  0.1684
94930W        W37842  19.308  28.393  20.722 -0.1312 -0.2324  0.1098
94931W        W37843  20.075  28.225  19.596  0.0960  0.1542 -0.1841
94932W        W37844  20.845  29.471  21.792 -0.0564  0.0683  0.1491
94933W        W37845  19.777  26.973  22.132 -0.0051  0.0955  0.0351
94934W        W37846  20.136  29.074  22.904  0.1610  0.1499 -0.0231
94935W        W37847  19.586  25.946  22.492  0.3142 -0.2553  0.1759
94936W        W37848  21.810  25.910  20.533 -0.0815  0.0010 -0.0200
94937W        W37849  21.009  26.580  21.548 -0.0317 -0.1992 -0.2360
94938W        W37850  18.671  28.742  23.344 -0.1631 -0.0760  0.4315
94939W        W37851  19.074  28.001  20.184  0.0806 -0.1046  0.0706
94940W        W37852  20.236  28.599  20.203 -0.1191  0.0197  0.1061
94941W        W37853  17.463  27.819  22.964 -0.2352  0.0135  0.2121
94942W        W37854  19.979  25.385  23.291  0.3481  0.1353  0.1167
94943W        W37855  19.399  29.267  23.660 -0.0764 -0.0729  0.0981
94944W        W37856  18.153  28.053  21.323 -0.0228  0.1544  0.5290
94945W        W37857  18.676  27.195  18.975  0.1767  0.1249  0.0899
94946W        W37858  21.426  29.453  21.659 -0.1048  0.0377 -0.1434
94947W        W37859  19.682  26.042  20.853  0.0092  0.2276 -0.2579
94948W        W37860  19.460  27.397  22.214  0.1239  0.1125  0.2637
94949W        W37861  20.461  28.428  21.638  0.2048  0.1240  0.1445
94950W        W37862  20.819  29.416  21.317 -0.0855 -0.4275 -0.0883
94951W        W37863  19.344  25.542  19.644  0.0368  0.2581  0.0462
94952W        W37864  21.720  29.266  24.510  0.2222 -0.0945 -0.1627
94953W        W37865  17.957  27.698  18.502  0.2568  0.4010 -0.0656
94954W        W37866  20.070  26.709  24.060 -0.0846 -0.0302 -0.1524
94955W        W37867  18.704  25.849  24.487 -0.3140 -0.0044  0.0722
94956W        W37868  18.191  26.716  21.102  0.2232 -0.2213  0.0845
94957W        W37869  21.830  28.167  20.839  0.3203 -0.1586  0.2243
94958W        W37870  19.151  30.408  22.110  0.1964 -0.0997  0.0396
94959W        W37871  21.700  30.421  21.276  0.3168  0.2173 -0.2196
94960W        W37872  19.467  29.059  22.455 -0.0780 -0.0146 -0.3693
94961W        W37873  18.570  29.747  23.417 -0.0187  0.1317 -0.1664
94962W        W37874  18.882  25.931  24.048 -0.0396 -0.0606 -0.0799
94963W        W37875  20.887  27.971  20.608 -0.3228  0.1692  0.4595
94964W        W37876  20.112  29.470  25.274 -0.0076 -0.1806  0.0996
94965W        W37877  21.388  29.766  20.472 -0.2016  0.0300  0.1509
94966W        W37878  20.972  26.222  22.188  0.2610 -0.2247 -0.1715
94967W        W37879  18.895  27.336  19.978  0.0825 -0.1192 -0.1581
94968W        W37880  19.356  26.315  22.715  0.1642 -0.4321  0.0695
94969W        W37881  18.984  28.926  22.446 -0.3833 -0.2358  0.4163
94970W        W37882  21.850  27.353  21.437  0.1524 -0.1611  0.2086
94971W        W37883  19.419  26.959  21.613 -0.3393  0.1113  0.1046
94972W        W37884  21.088  26.202  21.181 -0.3264 -0.0386  0.1201
94973W        W37885  20.858  27.881  19.630 -0.1926 -0.4337  0.0658
94974W        W37886  18.789  26.723  20.900  0.0964 -0.4325 -0.0629
94975W        W37887  20.284  27.350  21.551  0.1762  0.3191 -0.0416
94976W        W37888  20.441  28.753  24.289 -0.0172  0.0976 -0.0172
94977W        W37889  20.893  27.432  21.470  0.0275 -0.1270 -0.2960
94978W        W37890  20.097  28.716  23.226 -0.1229  0.2632 -0.0364
94979W        W37891  19.242  26.632  21.017  0.4392  0.3854 -0.1668
94980W        W37892  21.883  27.710  20.542 -0.2741  0.0700 -0.0484
94981W        W37893  19.612  28.529  23.246  0.0286 -0.0757  0.1131
94982W        W37894  22.019  29.354  24.017  0.0193 -0.0296  0.1163
94983W        W37895  20.249  28.513  22.089 -0.2254  0.0603  0.2157
94984W        W37896  20.213  28.085  20.911 -0.1006  0.2866 -0.2106
94985W        W37897  19.861  25.011  22.097  0.2790 -0.0054  0.1184
94986W        W37898  19.543  28.803  19.746 -0.2834 -0.3340 -0.0340
94987W        W37899  19.418  29.043  21.365 -0.0186 -0.0487 -0.1353
94988W        W37900  22.086  27.617  22.426  0.0083  0.1817 -0.3193
94989W        W37901  19.131  28.087  22.532 -0.0028  0.0490  0.0475
94990W        W37902  20.415  25.155  21.516 -0.3463 -0.0506  0.2055
94991W        W37903  18.989  29.174  24.414 -0.1295  0.0828  0.0788
94992W        W37904  19.964  27.472  23.122  0.0362 -0.1731  0.1083
94993W        W37905  18.224  26.805  26.403 -0.0522 -0.0893 -0.0944
94994W        W37906  18.211  27.874  26.160  0.0632  0.0518 -0.3600
94995W        W37907  21.696  27.249  23.476 -0.0855  0.0099 -0.2640
94996W        W37908  22.180  28.424  24.869  0.1132 -0.2617 -0.0529
94997W        W37909  16.951  24.688  24.294  0.0101 -0.1264 -0.2466
94998W        W37910  21.243  28.737  25.044  0.0179 -0.4314 -0.0819
94999W        W37911  18.445  25.711  25.605 -0.0875  0.0054 -0.0731
95000W        W37912  21.684  27.829  25.452  0.0045  0.2477 -0.0576
95001W        W37913  23.035  27.285  25.690  0.2233 -0.0782  0.2078
95002W        W37914  21.476  28.416  23.238  0.1145 -0.5038  0.2498
95003W        W37915  19.204  27.848  26.423 -0.1853 -0.0476 -0.1489
95004W        W37916  18.687  27.023  24.931  0.2363 -0.1242  0.1142
95005W        W37917  20.073  25.281  24.737  0.0969  0.0348 -0.0583
95006W        W37918  17.857  25.002  24.396  0.3236 -0.0407 -0.2013
95007W        W37919  21.784  27.644  24.335 -0.2333 -0.0449  0.2202
95008W        W37920  19.813  26.608  24.573 -0.1261  0.0738  0.1117
95009W        W37921  16.331  27.482  26.870  0.1271  0.0373  0.1823
95010W        W37922  20.582  26.469  23.910 -0.2437  0.2805  0.0996
95011W        W37923  20.229  29.194  24.483 -0.1291 -0.0817 -0.3341
95012W        W37924  18.868  26.568  28.417  0.1540  0.1385 -0.0036
95013W        W37925  20.178  26.259  26.443  0.1048  0.0071 -0.0046
95014W        W37926  20.508  29.541  23.570  0.3458  0.1788 -0.0919
95015W        W37927  18.666  27.346  23.516 -0.2130  0.2098  0.2228
95016W        W37928  18.287  27.163  25.247 -0.0037 -0.0003  0.1645
95017W        W37929  18.502  26.447  26.184 -0.3817 -0.0492 -0.1031
95018W        W37930  19.508  27.321  25.804  0.0093 -0.1650  0.3125
95019W        W37931  20.382  26.032  25.876 -0.2201 -0.1124 -0.0057
95020W        W37932  20.379  28.808  25.593 -0.1432  0.2361  0.2187
95021W        W37933  20.400  28.277  26.092 -0.1214 -0.0309 -0.2364
95022W        W37934  19.879  27.169  25.484  0.0889  0.0778 -0.2681
95023W        W37935  17.968  27.194  24.842 -0.0521 -0.0421 -0.2132
95024W        W37936  18.277  28.145  25.483  0.0654 -0.1242 -0.1085
95025W        W37937  19.320  28.654  23.773  0.1068 -0.2170 -0.4125
95026W        W37938  22.875  29.835  24.119  0.3286 -0.0415  0.1650
95027W        W37939  22.347  29.819  25.697  0.2259  0.1391 -0.4914
95028W        W37940  20.246  30.136  28.722 -0.1249  0.1426  0.0717
95029W        W37941  17.811  29.887  24.914 -0.1300 -0.0181 -0.0420
95030W        W37942  19.527  30.127  27.472 -0.0986 -0.1476  0.2101
95031W        W37943  19.995  29.323  27.517  0.1823 -0.1626 -0.0557
95032W        W37944  20.456  27.147  26.414 -0.2163  0.0488  0.1001
95033W        W37945  19.214  26.775  26.420 -0.0651  0.1396  0.0642
95034W        W37946  19.985  28.318  23.561 -0.2584  0.0418  0.0311
95035W        W37947  19.807  27.472  24.619 -0.0341  0.3768 -0.0549
95036W        W37948  19.727  28.074  27.834 -0.3203  0.2163  0.0024
95037W        W37949  19.383  28.425  26.599 -0.0831  0.2693 -0.1084
95038W        W37950  20.006  27.658  25.763 -0.0847  0.0138 -0.0214
95039W        W37951  18.874  28.927  23.760  0.0170 -0.1273 -0.0859
95040W        W37952  21.029  28.286  23.743 -0.2866  0.0751 -0.2019
95041W        W37953  19.864  28.211  24.698 -0.1593 -0.2502  0.2146
95042W        W37954  22.137  26.538  24.897 -0.0827  0.3133  0.1301
95043W        W37955  18.827  25.388  24.198  0.0046  0.1436 -0.1226
95044W        W37956  18.528  28.085  25.067 -0.1474 -0.3182 -0.0473
95045W        W37957  18.990  26.283  27.129 -0.0423  0.0899  0.2034
95046W        W37958  21.684  27.141  25.301  0.0121  0.2536  0.2043
95047W        W37959  20.075  28.006  25.365 -0.1820  0.2601 -0.1188
95048W        W37960  21.231  28.397  24.649  0.0664  0.2854  0.6660
95049W        W37961  18.733  27.885  26.172 -0.5334 -0.1444  0.0359
95050W        W37962  18.375  26.110  24.239  0.0085 -0.0285  0.1251
95051W        W37963  22.342  28.983  23.913  0.0134  0.0256 -0.0180
95052W        W37964  22.434  28.003  24.757 -0.0734  0.1611  0.0525
95053W        W37965  19.731  28.384  23.999 -0.0616 -0.0025 -0.1314
95054W        W37966  19.452  26.806  24.171  0.0243  0.0783  0.1795
95055W        W37967  18.843  27.822  27.031  0.0260  0.1487 -0.0345
95056W        W37968  17.340  26.902  26.708 -0.1489 -0.0762  0.0584
95057W        W37969  19.804  26.181  23.441  0.1089  0.0485  0.1513
95058W        W37970  21.073  27.590  27.519 -0.0540  0.0831  0.2514
95059W        W37971  17.603  27.882  26.930 -0.3187  0.1563  0.1008
95060W        W37972  21.696  25.749  24.027 -0.4307 -0.3441  0.0688
95061W        W37973  19.626  27.663  25.431 -0.0026  0.2266 -0.0720
95062W        W37974  23.762  29.450  25.026 -0.0375 -0.0148  0.1197
95063W        W37975  20.602  28.375  24.006  0.2394  0.1290 -0.1364
95064W        W37976  20.673  24.645  25.259  0.2662  0.1014 -0.0288
95065W        W37977  19.554  27.110  26.369 -0.0465  0.2033  0.3286
95066W        W37978  20.537  26.900  24.225 -0.0729 -0.2963  0.0665
95067W        W37979  20.799  28.198  25.132  0.1049 -0.0408 -0.1263
95068W        W37980  22.137  28.955  25.640  0.1313  0.0520  0.7129
95069W        W37981  21.840  27.293  22.933 -0.0669  0.0120  0.0114
95070W        W37982  18.599  28.663  25.479 -0.2603  0.3807  0.1328
95071W        W37983  18.716  26.026  26.700 -0.0961  0.0486  0.1626
95072W        W37984  19.721  27.530  26.208 -0.0731 -0.0427 -0.2016
95073W        W37985  18.554  28.271  23.318 -0.4344  0.2209 -0.2652
95074W        W37986  17.727  27.249  25.775 -0.0513 -0.2372 -0.0721
95075W        W37987  18.912  27.412  24.504  0.0172  0.1766  0.1536
95076W        W37988  17.872  28.060  26.566  0.1400  0.2217  0.1421
95077W        W37989  19.595  26.374  25.653  0.1233  0.1005  0.2927
95078W        W37990  22.391  25.865  25.751  0.1131 -0.3273  0.1956
95079W        W37991  16.275  26.974  25.383  0.0458  0.1670 -0.0286
95080W        W37992  21.067  26.485  25.647 -0.2610 -0.0748  0.3145
95081W        W37993  18.375  27.089  24.500  0.1139  0.1290  0.0470
95082W        W37994  20.797  29.022  24.638  0.2155  0.1340  0.4288
95083W        W37995  22.130  27.120  23.804 -0.0621 -0.2479 -0.3091
95084W        W37996  20.950  29.344  23.707  0.3037 -0.0730 -0.2867
95085W        W37997  17.836  26.749  26.079 -0.0589 -0.0305 -0.4456
95086W        W37998  18.291  26.729  24.839 -0.0502  0.0689  0.1952
95087W        W37999  18.551  26.757  26.874  0.1539  0.0222  0.0315
95088W        W38000  18.837  26.038  25.286  0.1266 -0.0204 -0.2750
95089W        W38001  21.772  27.730  25.989 -0.0461 -0.0793 -0.1959
95090W        W38002  19.021  28.293  26.270  0.0586 -0.2695 -0.1293
95091W        W38003  19.670  25.532  24.486  0.1683  0.0533  0.4131
95092W        W38004  19.610  26.048  24.699 -0.0275  0.0407 -0.1683
95093W        W38005  18.857  26.875  24.487  0.0036 -0.1463 -0.2730
95094W        W38006  20.449  26.628  25.649  0.2248 -0.2028 -0.3682
95095W        W38007  22.002  28.154  26.145 -0.1086 -0.0930 -0.0900
95096W        W38008  21.067  27.797  27.015  0.2169 -0.0120  0.2295
95097W        W38009  21.556  28.436  26.186 -0.0763 -0.1392  0.0470
95098W        W38010  20.009  26.342  25.948 -0.3988 -0.0153  0.0871
95099W        W38011  19.736  24.126  25.148  0.1363 -0.0073 -0.0404
95100W        W38012  18.228  29.672  24.571 -0.1155 -0.1777 -0.0974
95101W        W38013  19.074  28.170  25.836 -0.0052  0.3201 -0.0631
95102W        W38014  20.302  26.799  24.678 -0.0624 -0.0644  0.0433
95103W        W38015  22.659  30.039  25.235  0.2116 -0.1587  0.0159
95104W        W38016  19.725  28.382  25.169  0.2041  0.3143 -0.2929
95105W        W38017  18.609  28.294  25.872 -0.1100  0.0035 -0.2306
95106W        W38018  21.121  25.950  27.221 -0.1919 -0.0147 -0.0778
95107W        W38019  20.165  27.766  26.237 -0.2219  0.0135 -0.4377
95108W        W38020  19.985  26.666  25.427 -0.0727 -0.1682  0.2799
95109W        W38021  18.703  27.056  24.084  0.2789  0.2652  0.0207
95110W        W38022  21.213  29.150  25.677 -0.2188  0.2727  0.1650
95111W        W38023  17.979  29.847  25.440  0.2052  0.0224  0.0088
95112W        W38024  17.924  26.873  25.330 -0.1325 -0.1063  0.0828
95113W        W38025  19.712  28.664  24.760 -0.1791  0.0021 -0.0762
95114W        W38026  19.351  27.556  27.203  0.2211  0.0150 -0.0751
95115W        W38027  17.520  27.344  26.834 -0.0566  0.1003  0.0495
95116W        W38028  18.736  26.935  26.273 -0.0330 -0.1782  0.1092
95117W        W38029  17.978  26.997  23.464  0.1839  0.0002  0.3316
95118W        W38030  18.396  28.290  27.566 -0.0430 -0.0675 -0.1036
95119W        W38031  20.749  26.145  25.546  0.1337  0.1153 -0.0520
95120W        W38032  20.775  27.398  24.374 -0.2666 -0.3865  0.0171
95121W        W38033  19.980  26.289  27.336  0.2643  0.3438  0.1700
95122W        W38034  22.331  28.507  25.761  0.1737  0.1560  0.1225
95123W        W38035  20.644  25.920  23.661  0.2743  0.0246 -0.0568
95124W        W38036  20.650  24.618  24.752  0.1268 -0.0427  0.1150
95125W        W38037  18.753  27.936  27.526  0.1136 -0.2362  0.0200
95126W        W38038  20.230  27.747  24.630  0.0701 -0.0817 -0.2498
95127W        W38039  18.546  27.801  25.752  0.0931  0.0648  0.0629
95128W        W38040  20.903  26.378  24.549  0.0925 -0.2599 -0.1403
95129W        W38041  22.921  27.919  24.936 -0.0908 -0.0244 -0.1707
95130W        W38042  17.356  28.173  26.620  0.0812  0.1457 -0.0742
95131W        W38043  21.088  28.565  27.182 -0.0837  0.0918  0.2907
95132W        W38044  21.402  28.085  25.847 -0.1434  0.0604  0.1021
95133W        W38045  19.472  26.826  25.359 -0.0027  0.0280 -0.0421
95134W        W38046  18.630  27.779  23.149  0.1793  0.1745  0.0889
95135W        W38047  18.426  25.735  24.910  0.1296 -0.0424 -0.1859
95136W        W38048  17.690  29.427  25.472 -0.2722 -0.3570  0.2940
95137W        W38049  20.524  27.801  25.637  0.1034 -0.1326  0.2985
95138W        W38050  20.336  25.391  25.814  0.1765  0.0377 -0.0856
95139W        W38051  18.286  25.882  26.934  0.0080 -0.3088 -0.1879
95140W        W38052  20.839  26.927  26.780 -0.2367  0.0366 -0.3146
95141W        W38053  21.278  28.017  25.002  0.1351  0.3437 -0.2628
95142W        W38054  20.059  27.516  25.158 -0.2435  0.2262 -0.1893
95143W        W38055  19.735  26.959  23.762  0.1565 -0.1745  0.2042
95144W        W38056  19.986  26.644  26.976 -0.1106 -0.0872  0.1053
95145W        W38057  17.050  27.261  27.563  0.1171 -0.1239 -0.0614
95146W        W38058  18.535  27.365  26.811  0.0924  0.0537  0.1905
95147W        W38059  20.375  28.661  26.465  0.0387 -0.0918 -0.0345
95148W        W38060  21.122  27.733  25.997  0.0520 -0.1808 -0.0974
95149W        W38061  20.760  25.079  27.136 -0.1176 -0.0862  0.0637
95150W        W38062  19.628  26.449  23.857  0.1401  0.0474  0.1432
95151W        W38063  18.998  28.972  25.093  0.1082 -0.0657  0.1146
95152W        W38064  19.207  27.731  25.120 -0.1131 -0.2053  0.0820
95153W        W38065  18.432  25.649  24.118 -0.2791  0.1071 -0.2403
95154W        W38066  18.670  27.484  25.356  0.0852  0.3339 -0.1999
95155W        W38067  19.736  28.834  23.661 -0.1732  0.0721 -0.0462
95156W        W38068  18.891  27.007  25.416 -0.0973  0.0788 -0.1160
95157W        W38069  18.622  29.068  24.131 -0.0912 -0.0773  0.0867
95158W        W38070  19.922  26.781  26.475  0.0667  0.3994 -0.3037
95159W        W38071  19.863  28.484  25.662  0.0890  0.0322  0.0307
95160W        W38072  19.570  27.371  25.023 -0.2974 -0.1778  0.0046
95161W        W38073  18.510  27.882  23.615  0.0350  0.5340  0.0594
95162W        W38074  21.204  27.569  24.275 -0.2130 -0.0186  0.1137
95163W        W38075  22.477  28.687  25.309  0.1918 -0.0828  0.1001
95164W        W38076  17.713  26.053  24.250 -0.0897 -0.0239  0.0147
95165W        W38077  20.646  25.385  25.182 -0.5702 -0.1539 -0.0648
95166W        W38078  16.937  28.814  26.850  0.0318  0.1384  0.0532
95167W        W38079  19.913  27.197  27.957 -0.1224  0.0989  0.0180
95168W        W38080  22.001  25.497  24.790 -0.0975 -0.0996  0.1690
95169W        W38081  21.183  27.864  26.559  0.3191 -0.0192 -0.0601
95170W        W38082  20.542  27.656  28.092  0.1140  0.0714  0.0011
95171W        W38083  17.462  25.805  23.909  0.1449  0.0117 -0.0207
95172W        W38084  21.202  26.203  26.042  0.0985 -0.2260 -0.0793
95173W        W38085  20.286  24.473  25.729 -0.1260 -0.0323 -0.0726
95174W        W38086  18.825  27.791  24.835 -0.1056 -0.2777 -0.1989
95175W        W38087  19.822  28.582  26.484 -0.0571  0.2726 -0.1045
95176W        W38088  18.462  26.240  24.716  0.1719 -0.0790  0.2401
95177W        W38089  18.247  28.957  24.939  0.1201  0.0120 -0.0868
95178W        W38090  18.964  25.714  27.067 -0.3030 -0.2331 -0.2922
95179W        W38091  18.988  27.241  27.723 -0.0764  0.0270 -0.4434
95180W        W38092  19.600  26.476  26.220  0.1334 -0.0658  0.0131
95181W        W38093  18.651  25.296  24.701 -0.0516  0.2230  0.2073
95182W        W38094  19.112  26.333  26.020 -0.2982  0.0305 -0.0170
95183W        W38095  19.862  27.257  27.100  0.2883 -0.1625  0.1064
95184W        W38096  20.411  27.326  25.483  0.1326  0.3438 -0.1447
95185W        W38097  19.093  27.236  26.759  0.1457  0.2823 -0.2014
95186W        W38098  20.306  24.355  25.128  0.1142  0.1120 -0.0611
95187W        W38099  21.507  29.463  23.214  0.2878 -0.0577 -0.0575
95188W        W38100  21.084  27.021  28.735 -0.0693  0.0247  0.1216
95189W        W38101  19.123  28.706  24.716 -0.0889 -0.0421  0.0475
95190W        W38102  16.939  27.186  26.340 -0.2738  0.0632  0.1789
95191W        W38103  18.901  29.344  23.393  0.3254  0.1669  0.1166
95192W        W38104  20.105  25.837  26.219 -0.2048  0.0828 -0.5068
95193W        W38105  18.500  29.057  25.834  0.0547  0.0234 -0.1483
95194W        W38106  18.045  28.214  23.657  0.0811  0.1889  0.0012
95195W        W38107  17.297  27.453  26.041  0.1065 -0.3656  0.6241
95196W        W38108  22.699  25.434  23.445 -0.0414  0.2214 -0.0838
95197W        W38109  21.026  28.645  24.259  0.0782  0.0574 -0.1725
95198W        W38110  20.396  26.385  24.412  0.0858 -0.0251  0.4925
95199W        W38111  21.740  26.689  27.054  0.2508  0.4676  0.0871
95200W        W38112  21.113  28.120  24.178 -0.0663  0.0632  0.3015
95201W        W38113  21.187  26.325  27.567 -0.1040 -0.2130 -0.2321
95202W        W38114  17.999  26.383  24.540 -0.1323 -0.5720  0.0876
95203W        W38115  21.253  26.781  24.546  0.0091  0.2180  0.0195
95204W        W38116  18.333  24.261  25.657  0.1632  0.0874  0.0238
95205W        W38117  19.505  30.216  28.063 -0.0011 -0.0819 -0.0859
95206W        W38118  19.084  26.716  26.934  0.0006  0.0162 -0.0931
95207W        W38119  21.107  26.405  24.985 -0.0024 -0.2147  0.1475
95208W        W38120  20.521  25.600  23.280 -0.0903 -0.0223  0.1699
95209W        W38121  18.408  27.965  26.654 -0.0320 -0.2423  0.1388
95210W        W38122  22.520  30.522  26.268 -0.0986 -0.0707  0.1372
95211W        W38123  18.431  27.508  24.260  0.1105 -0.1709  0.0553
95212W        W38124  21.134  27.340  24.742 -0.3418  0.1757 -0.2238
95213W        W38125  19.133  27.635  25.622 -0.0046  0.0980  0.0182
95214W        W38126  20.326  26.942  25.185 -0.1450 -0.0158  0.0786
95215W        W38127  20.748  28.330  24.551  0.0198  0.1262  0.2112
95216W        W38128  18.396  27.469  24.842 -0.1871 -0.1712  0.1067
95217W        W38129  18.616  24.899  26.000  0.0920 -0.5879  0.2931
95218W        W38130  20.747  28.710  25.936 -0.1407  0.2186 -0.0560
95219W        W38131  20.797  26.894  24.690 -0.3745 -0.6580  0.4198
95220W        W38132  20.463  26.612  26.628  0.1441  0.1654 -0.5893
95221W        W38133  20.758  26.722  25.252  0.2402  0.0607 -0.0694
95222W        W38134  21.196  26.446  27.088 -0.0918 -0.3748  0.1766
95223W        W38135  18.509  24.950  26.489  0.3207  0.0143  0.3976
95224W        W38136  20.997  29.296  27.672  0.0156 -0.0556 -0.2176
95225W        W38137  20.293  26.051  23.306  0.0852  0.3151  0.1100
95226W        W38138  22.311  26.421  26.623 -0.0235 -0.0751  0.0804
95227W        W38139  21.340  27.654  23.211 -0.1623  0.3541  0.1689
95228W        W38140  20.761  26.957  23.687 -0.2107 -0.0986 -0.0786
95229W        W38141  18.479  26.661  25.252 -0.0478  0.0373 -0.1458
95230W        W38142  20.613  27.438  26.028 -0.0495 -0.0138 -0.0091
95231W        W38143  20.103  27.047  23.352  0.0417 -0.0605  0.2207
95232W        W38144  20.718  25.421  26.691  0.1716  0.0971  0.1014
95233W        W38145  18.684  28.369  24.510  0.3415  0.1008  0.1029
95234W        W38146  21.723  28.496  23.711 -0.2668 -0.2183 -0.1634
95235W        W38147  21.665  26.322  24.845  0.1470 -0.0914  0.0565
95236W        W38148  18.083  25.790  24.492  0.0782 -0.0111  0.0645
95237W        W38149  18.104  29.243  27.463 -0.0146 -0.0935  0.0953
95238W        W38150  19.200  26.385  23.215 -0.0219  0.0376  0.0106
95239W        W38151  18.755  28.279  23.784  0.2194  0.1298  0.1842
95240W        W38152  19.851  28.293  26.925 -0.0238  0.2705  0.1587
95241W        W38153  21.696  28.031  27.787 -0.1772 -0.1025 -0.2359
95242W        W38154  20.427  23.901  22.963 -0.1337  0.1020  0.1104
95243W        W38155  21.332  27.086  26.375 -0.1061  0.3849 -0.3282
95244W        W38156  18.102  28.256  24.964 -0.3677 -0.1272 -0.0477
95245W        W38157  21.072  24.746  24.548  0.1871  0.1883  0.2084
95246W        W38158  19.622  28.068  26.430  0.0838  0.0698 -0.4091
95247W        W38159  17.718  28.470  26.476 -0.1114  0.0462 -0.0968
95248W        W38160  19.415  29.142  24.728  0.3131  0.2984  0.2514
95249W        W38161  20.309  25.363  26.389 -0.1844 -0.1139 -0.1254
95250W        W38162  20.884  27.893  24.702 -0.0411 -0.0536 -0.0394
95251W        W38163  19.231  28.432  25.138 -0.0211  0.1139 -0.0821
95252W        W38164  21.774  27.254  26.528  0.0461 -0.1361 -0.2414
95253W        W38165  19.445  27.869  25.987  0.3008 -0.0350 -0.1213
95254W        W38166  18.133  26.153  26.168 -0.2939 -0.1784 -0.2545
95255W        W38167  18.937  28.230  26.754  0.1289 -0.2256 -0.0860
95256W        W38168  20.624  27.390  23.870  0.2114  0.2429  0.1827
95257W        W38169  18.851  27.991  25.414  0.0086  0.4114  0.1822
95258W        W38170  17.435  27.027  27.242 -0.0355  0.0444 -0.2195
95259W        W38171  21.028  27.784  27.987  0.1197  0.0773  0.2860
95260W        W38172  20.355  28.166  24.881 -0.1434 -0.0799  0.2384
95261W        W38173  19.912  26.141  25.352  0.3610  0.0541  0.1291
95262W        W38174  18.811  28.521  22.827  0.2266 -0.0435  0.0079
95263W        W38175  17.414  28.202  27.941 -0.0165  0.0666 -0.2081
95264W        W38176  17.346  27.584  27.256 -0.2266  0.1877 -0.1736
95265W        W38177  18.801  29.498  23.871 -0.0810 -0.2817 -0.0777
95266W        W38178  21.520  27.435  25.706 -0.0027 -0.0044  0.3454
95267W        W38179  21.835  28.002  24.695  0.1038 -0.3357  0.0550
95268W        W38180  21.101  29.090  26.209  0.1667  0.1247  0.1037
95269W        W38181  19.446  26.275  25.128 -0.0173  0.0018  0.0725
95270W        W38182  17.349  27.892  25.803  0.1333  0.0027 -0.0837
95271W        W38183  17.417  29.195  24.469 -0.0018 -0.2122  0.1714
95272W        W38184  22.694  29.062  24.351 -0.1554 -0.0763 -0.0069
95273W        W38185  18.196  28.510  26.786 -0.2046  0.0155  0.3458
95274W        W38186  21.125  28.103  27.550  0.2384  0.0083  0.1170
95275W        W38187  20.308  26.737  26.126 -0.0924 -0.0994 -0.0300
95276W        W38188  21.314  27.484  25.222 -0.1832 -0.3563 -0.1348
95277W        W38189  21.679  26.802  24.054 -0.5347  0.0327 -0.0984
95278W        W38190  19.315  29.709  27.280  0.0028  0.0594  0.1193
95279W        W38191  19.960  25.766  25.022 -0.2430  0.1705  0.1266
95280W        W38192  20.065  26.260  24.776 -0.0954  0.0972 -0.0913
95281W        W38193  18.852  26.466  26.548  0.1730  0.0311 -0.0964
95282W        W38194  21.072  26.363  26.636  0.1344 -0.0470 -0.0397
95283W        W38195  16.506  28.788  27.929 -0.1366 -0.2047 -0.2455
95284W        W38196  21.259  29.242  25.221  0.0410 -0.2283  0.1563
95285W        W38197  18.070  27.788  24.009 -0.3666  0.1077 -0.2291
95286W        W38198  19.320  26.610  24.619  0.3597 -0.1116  0.1712
95287W        W38199  20.706  26.348  26.076  0.1679  0.1108  0.0484
95288W        W38200  18.962  28.687  24.199 -0.3103  0.0301 -0.2399
95289W        W38201  19.477  27.110  27.385 -0.0288  0.3032  0.1083
95290W        W38202  18.748  28.495  25.062  0.1154  0.0053 -0.1052
95291W        W38203  18.758  28.728  26.065 -0.0617  0.1520 -0.1090
95292W        W38204  19.467  28.874  25.151  0.2233  0.0380  0.0856
95293W        W38205  18.942  26.425  24.279 -0.0879  0.1948  0.2965
95294W        W38206  20.917  27.431  25.625 -0.3042 -0.1872  0.3082
95295W        W38207  20.380  26.494  27.543 -0.4004 -0.1110 -0.0287
95296W        W38208  21.259  25.978  24.801 -0.1669  0.2377 -0.1674
95297W        W38209  17.798  27.651  26.287  0.1580 -0.1131  0.2167
95298W        W38210  21.640  25.871  25.117  0.1915  0.0540 -0.0857
95299W        W38211  20.407  26.993  27.389  0.1653 -0.0642  0.1783
95300W        W38212  18.298  26.078  25.280 -0.0878 -0.4628 -0.1225
95301W        W38213  20.157  28.591  25.180  0.2903 -0.0190 -0.0396
95302W        W38214  20.257  27.615  27.147  0.1923  0.0214  0.1223
95303W        W38215  19.312  28.167  23.901  0.1815 -0.2876 -0.3094
95304W        W38216  20.085  29.217  26.997 -0.0498 -0.1896 -0.1085
95305W        W38217  19.076  26.529  25.464  0.0507 -0.1101  0.0804
95306W        W38218  22.264  26.276  23.514  0.1400  0.2620  0.0088
95307W        W38219  19.533  26.000  26.069  0.5058 -0.1141 -0.1365
95308W        W38220  20.772  26.234  26.973  0.0215 -0.0606 -0.1588
95309W        W38221  23.129  28.785  27.806  0.1042  0.1402  0.1019
95310W        W38222  17.615  25.402  24.193 -0.0861  0.1124 -0.2446
95311W        W38223  21.148  27.446  23.744  0.1439 -0.2912  0.3150
95312W        W38224  20.068  27.193  26.067 -0.0800 -0.1109  0.2191
95313W        W38225  19.766  30.326  25.498 -0.3332 -0.0257  0.0488
95314W        W38226  22.745  27.711  24.403 -0.1583 -0.0368 -0.1270
95315W        W38227  21.572  28.995  25.984  0.1265  0.0323 -0.0396
95316W        W38228  18.789  26.689  25.869 -0.1387  0.2649 -0.4316
95317W        W38229  20.410  27.771  26.691  0.0504  0.0868 -0.0686
95318W        W38230  20.940  27.364  26.441  0.1945  0.2198 -0.0437
95319W        W38231  19.679  27.893  25.009 -0.0617  0.2651 -0.0785
95320W        W38232  19.194  25.690  26.263  0.2147 -0.0717  0.1996
95321W        W38233  19.131  29.737  23.580 -0.0041  0.0525 -0.1341
95322W        W38234  21.162  25.485  25.307 -0.0128 -0.2215 -0.1188
95323W        W38235  19.505  28.164  25.564 -0.1779  0.3554 -0.2958
95324W        W38236  20.259  28.727  24.703 -0.2005  0.1271  0.1920
95325W        W38237  21.558  26.189  26.835 -0.0554  0.3817  0.2840
95326W        W38238  20.008  27.335  26.568 -0.1863 -0.0540  0.1888
95327W        W38239  20.643  28.610  26.907 -0.1774 -0.0449  0.2463
95328W        W38240  18.807  27.560  23.947 -0.0844  0.3219  0.3870
95329W        W38241  19.567  29.320  26.504 -0.1151 -0.0519  0.0878
95330W        W38242  19.923  29.003  25.359 -0.1966  0.1276 -0.0637
95331W        W38243  19.967  28.681  24.334 -0.2572 -0.0388 -0.0469
95332W        W38244  22.582  29.592  26.938  0.2657  0.0892  0.2963
95333W        W38245  20.389  27.295  24.760 -0.1301 -0.1870 -0.0938
95334W        W38246  22.460  28.464  26.235 -0.0384 -0.0718 -0.0694
95335W        W38247  20.353  25.848  25.391  0.4037  0.2261  0.3851
95336W        W38248  21.892  23.968  24.423 -0.1017 -0.0150 -0.1958
95337W        W38249  20.741  25.024  25.520  0.0056 -0.0915 -0.2039
95338W        W38250  18.748  28.663  26.936 -0.1597  0.0725  0.2376
95339W        W38251  17.970  26.862  24.373  0.0482  0.1449 -0.0281
95340W        W38252  18.644  28.071  22.700  0.0493  0.1931  0.0518
95341W        W38253  17.660  28.061  25.125 -0.0272  0.1846 -0.2827
95342W        W38254  19.224  25.562  27.443 -0.2470 -0.1613 -0.3483
95343W        W38255  18.333  26.624  27.516  0.0093  0.1365 -0.0849
95344W        W38256  18.291  26.934  25.833  0.0039  0.3084  0.0387
95345W        W38257  19.276  26.103  23.716  0.0859  0.0273  0.1183
95346W        W38258  22.186  28.188  23.558  0.0784  0.1932 -0.1112
95347W        W38259  18.906  26.539  24.925  0.0080  0.0374  0.3793
95348W        W38260  17.860  25.949  24.946 -0.1227  0.0698  0.0251
95349W        W38261  21.996  28.621  23.348  0.3129  0.0462  0.2227
95350W        W38262  21.390  28.311  25.366 -0.1944 -0.0478  0.0207
95351W        W38263  21.051  24.481  25.005  0.2390  0.0512 -0.2743
95352W        W38264  22.008  27.627  27.972 -0.0578  0.2816 -0.0806
95353W        W38265  18.319  27.952  24.646  0.0116 -0.0568  0.2504
95354W        W38266  19.008  25.300  26.072 -0.0124 -0.0872 -0.1224
95355W        W38267  20.218  25.061  28.074 -0.0237  0.1963  0.1041
95356W        W38268  18.664  26.430  23.852  0.0562  0.2965  0.1166
95357W        W38269  19.527  25.484  25.850  0.2784 -0.2863  0.3242
95358W        W38270  21.659  28.363  24.915 -0.1326  0.1943 -0.3855
95359W        W38271  21.000  29.178  24.165 -0.0225  0.1207  0.0221
95360W        W38272  19.232  27.911  27.514  0.1806  0.1116  0.1584
95361W        W38273  19.796  27.746  26.856  0.1138  0.0042  0.1263
95362W        W38274  18.042  27.060  26.904  0.3436 -0.1456  0.2758
95363W        W38275  21.557  28.384  24.244  0.0044 -0.5379  0.2071
95364W        W38276  19.540  26.926  26.835  0.1858 -0.0397 -0.1013
95365W        W38277  21.004  28.643  23.344 -0.0181  0.1187  0.1584
95366W        W38278  21.330  25.948  23.743 -0.1357 -0.0483 -0.2256
95367W        W38279  21.114  27.082  24.171  0.2131  0.1643  0.0395
95368W        W38280  18.692  24.092  25.965 -0.0555  0.0814 -0.1536
95369W        W38281  19.108  27.673  27.998  0.2408 -0.1302  0.0569
95370W        W38282  21.573  29.693  25.082  0.4633 -0.1268 -0.2898
95371W        W38283  19.459  25.880  25.547 -0.4266  0.3106 -0.0872
95372W        W38284  21.175  26.957  25.005 -0.3264  0.0523  0.0448
95373W        W38285  21.460  28.839  24.452  0.3123 -0.3245  0.0844
95374W        W38286  18.984  28.339  27.263  0.2383 -0.1790  0.1245
95375W        W38287  21.895  24.977  24.701 -0.0482 -0.1888  0.0784
95376W        W38288  19.122  26.376  27.939 -0.0823 -0.2340 -0.1010
95377W        W38289  20.540  27.745  25.044  0.1892 -0.0063  0.0338
95378W        W38290  20.728  27.875  26.299  0.4713 -0.3111  0.1306
95379W        W38291  18.636  28.863  24.606 -0.1558  0.2130  0.0173
95380W        W38292  21.563  28.738  22.395  0.2041  0.0742 -0.0390
95381W        W38293  21.060  28.325  26.221  0.2270 -0.3785  0.2971
95382W        W38294  21.232  28.905  28.122 -0.0062  0.3259  0.0062
95383W        W38295  20.763  28.157  26.699 -0.1040 -0.1752 -0.0051
95384W        W38296  22.001  27.072  24.284 -0.0560 -0.0129  0.1719
95385W        W38297  18.742  26.032  26.199  0.1144  0.1068  0.2558
95386W        W38298  19.826  26.926  24.958  0.1057 -0.4034 -0.1717
95387W        W38299  17.747  26.691  24.829 -0.0753  0.0663  0.2766
95388W        W38300  19.202  26.142  26.433  0.1701 -0.1498 -0.1570
95389W        W38301  19.947  25.776  25.764  0.1451  0.1596 -0.0295
95390W        W38302  21.341  26.921  23.599  0.3512 -0.2473  0.3101
95391W        W38303  19.056  28.623  25.679  0.3040 -0.1894  0.0850
95392W        W38304  20.816  29.027  25.282  0.3074  0.0651  0.2607
95393W        W38305  19.458  26.306  29.243 -0.1154  0.0420 -0.2536
95394W        W38306  18.400  25.594  28.495  0.1850 -0.3666 -0.2524
95395W        W38307  21.239  28.352  26.673  0.1849 -0.0542 -0.0729
95396W        W38308  21.573  26.494  25.703 -0.0307 -0.2554 -0.1496
95397W        W38309  19.323  25.130  28.516  0.0967 -0.1900  0.3952
95398W        W38310  19.304  26.760  27.680 -0.1112 -0.2875 -0.3468
95399W        W38311  18.853  24.436  28.830  0.0381 -0.0232 -0.1087
95400W        W38312  21.082  29.195  29.788  0.1373 -0.1740  0.1143
95401W        W38313  20.302  28.728  30.266  0.0778 -0.0596 -0.2064
95402W        W38314  19.372  26.687  28.291  0.0044 -0.0403 -0.0528
95403W        W38315  19.629  24.231  31.174 -0.2280 -0.1013 -0.1111
95404W        W38316  19.817  27.402  30.196  0.0299  0.1143 -0.1299
95405W        W38317  18.773  25.718  27.554 -0.2211 -0.0507  0.0988
95406W        W38318  18.086  25.136  28.547 -0.4250  0.2309 -0.0197
95407W        W38319  22.568  25.815  29.834 -0.1074 -0.0713 -0.2036
95408W        W38320  18.763  25.283  27.762 -0.0451 -0.3015 -0.1898
95409W        W38321  19.434  25.036  29.347  0.0193 -0.0350 -0.0034
95410W        W38322  18.899  25.155  27.314  0.1264 -0.0740  0.0760
95411W        W38323  19.210  26.992  29.589 -0.1640  0.0740 -0.2335
95412W        W38324  18.742  24.799  30.392  0.0586  0.1606  0.2608
95413W        W38325  20.209  24.859  30.150 -0.3657  0.0935  0.1259
95414W        W38326  19.602  27.357  29.278  0.2561 -0.2231  0.0248
95415W        W38327  18.049  27.286  26.149  0.0977 -0.2133 -0.4146
95416W        W38328  19.369  25.519  29.625  0.0587  0.2708  0.0899
95417W        W38329  20.182  26.088  29.979  0.1325  0.0049  0.0947
95418W        W38330  19.939  24.774  30.602  0.0897 -0.0498  0.0196
95419W        W38331  22.482  26.571  29.668 -0.1776 -0.3205  0.1475
95420W        W38332  19.589  27.797  29.898 -0.0450 -0.0121 -0.0970
95421W        W38333  18.855  28.391  28.507  0.1345 -0.1678 -0.0892
95422W        W38334  20.047  27.812  30.662  0.0448 -0.4371 -0.1636
95423W        W38335  17.333  27.168  28.213  0.1722 -0.3593  0.0111
95424W        W38336  18.458  29.380  27.767 -0.0552  0.0763 -0.0469
95425W        W38337  18.982  29.192  29.114  0.1375 -0.1195 -0.3473
95426W        W38338  21.728  26.972  28.613 -0.1368 -0.3508  0.1298
95427W        W38339  21.823  29.840  30.957 -0.0571  0.0009 -0.0596
95428W        W38340  19.801  29.204  31.209  0.0054 -0.2523  0.2509
95429W        W38341  17.639  28.500  27.583  0.2866  0.2351 -0.0743
95430W        W38342  20.729  27.718  29.327  0.0843 -0.0154  0.0493
95431W        W38343  18.562  29.091   0.223 -0.0622 -0.0868 -0.0258
95432W        W38344  20.285  27.253  30.024  0.0117  0.2162 -0.0442
95433W        W38345  19.430  26.020  27.117 -0.1509  0.2897 -0.1647
95434W        W38346  18.497  29.021  28.911 -0.0601 -0.0108 -0.1879
95435W        W38347  19.146  27.010  28.601  0.0649  0.0874 -0.2782
95436W        W38348  17.254  28.980  30.622  0.1961  0.2171 -0.2065
95437W        W38349  18.249  28.808  30.387 -0.1003  0.0697  0.2044
95438W        W38350  21.465  26.532  31.298 -0.0061 -0.1820 -0.0466
95439W        W38351  19.421  28.779  28.304  0.0493  0.0690 -0.2345
95440W        W38352  21.570  25.995  27.483  0.2059 -0.1756 -0.0959
95441W        W38353  19.421  25.623  28.462 -0.0590 -0.1440 -0.1478
95442W        W38354  21.764  26.442  27.610  0.0340 -0.1199  0.0830
95443W        W38355  19.954  25.669  28.729 -0.1815 -0.1910 -0.1957
95444W        W38356  19.198  28.121  29.521 -0.0492 -0.1610  0.1136
95445W        W38357  19.312  23.742  31.116 -0.3134 -0.0339 -0.2007
95446W        W38358  20.369  27.512  30.577 -0.0806  0.0488 -0.0367
95447W        W38359  19.173  27.400  26.193  0.1793 -0.2445 -0.0261
95448W        W38360  20.399  28.088  31.073  0.1205  0.1486 -0.0414
95449W        W38361  19.327  27.367  29.947  0.2309 -0.0053  0.0509
95450W        W38362  18.409  26.513  28.621 -0.0492  0.1374  0.1043
95451W        W38363  20.539  29.086  26.782  0.1770  0.1789  0.0668
95452W        W38364  19.778  27.139  29.743  0.3484 -0.1102  0.0363
95453W        W38365  20.330  26.868  27.875 -0.2639 -0.0053  0.1384
95454W        W38366  18.474  27.463  26.307  0.0521 -0.0207 -0.1145
95455W        W38367  18.039  27.080  31.256  0.2776 -0.0363 -0.2286
95456W        W38368  18.715  25.639  28.981  0.2734 -0.0459 -0.2271
95457W        W38369  18.746  25.163  26.863 -0.0366 -0.0953 -0.3172
95458W        W38370  21.002  28.304  31.418  0.0004  0.0122 -0.0512
95459W        W38371  19.063  27.917  30.192  0.0973  0.1332 -0.0430
95460W        W38372  21.861  25.709  29.265 -0.0301  0.0693  0.1580
95461W        W38373  17.938  28.349  28.783  0.2896 -0.1784 -0.1522
95462W        W38374  21.548  27.740  29.751 -0.1361 -0.1687  0.1895
95463W        W38375  20.629  28.899  27.939  0.1034 -0.2012  0.2481
95464W        W38376  21.704  25.187  30.602  0.2370 -0.1888  0.3900
95465W        W38377  21.894  25.709  30.706  0.1005 -0.1648 -0.3642
95466W        W38378  18.044  27.572  26.779  0.2665 -0.1219  0.1332
95467W        W38379  19.472  28.369  27.523 -0.0090  0.3445 -0.0601
95468W        W38380  19.868  27.796  31.455 -0.0348  0.1006  0.3173
95469W        W38381  22.428  28.503  27.208 -0.0828 -0.2427  0.1594
95470W        W38382  18.140  28.175  29.670  0.1556 -0.0396  0.1300
95471W        W38383  19.773  25.264  31.351  0.0973  0.0092 -0.0620
95472W        W38384  21.671  28.839  31.074  0.0344 -0.1141 -0.0974
95473W        W38385  19.443  29.495  29.128  0.3606 -0.1887  0.1912
95474W        W38386  18.128  26.890  28.390 -0.1733  0.2357 -0.0703
95475W        W38387  19.231  27.604  29.502  0.0810 -0.1929  0.1408
95476W        W38388  17.923  25.802  29.554 -0.0055  0.3245  0.1180
95477W        W38389  18.557  26.098  30.180 -0.0468 -0.1958 -0.2315
95478W        W38390  21.885  25.510  27.626 -0.3443  0.0614  0.2275
95479W        W38391  18.989  24.727  29.824  0.0824 -0.0689  0.0607
95480W        W38392  21.016  26.287  28.050 -0.0300  0.0543  0.2070
95481W        W38393  18.323  25.536  27.891  0.1221 -0.1866  0.0060
95482W        W38394  20.892  28.520  28.836 -0.1192 -0.3082 -0.0822
95483W        W38395  21.493  26.266  29.243 -0.1933  0.3087 -0.2009
95484W        W38396  20.907  29.036  27.135 -0.0466  0.0030  0.2815
95485W        W38397  18.416  27.204  30.373  0.0851  0.2059  0.1353
95486W        W38398  17.926  26.383  28.299 -0.3399 -0.2239  0.1683
95487W        W38399  19.120  26.478  29.819 -0.0722  0.1323 -0.1323
95488W        W38400  19.487  24.445  28.234 -0.1268  0.4027 -0.0978
95489W        W38401  21.042  26.139  29.509  0.2754 -0.1523 -0.1944
95490W        W38402  17.793  24.393  25.680 -0.2298  0.0084  0.0340
95491W        W38403  20.502  26.355  29.034  0.1153 -0.2465 -0.1068
95492W        W38404  18.461  26.290  27.161 -0.0509 -0.3332 -0.3413
95493W        W38405  17.418  28.068  28.887  0.2093  0.0091 -0.1618
95494W        W38406  20.740  27.063  31.881 -0.1262 -0.0268  0.1566
95495W        W38407  19.483  28.243  28.207 -0.1908  0.0348 -0.0253
95496W        W38408  20.446  29.579  30.283  0.1691  0.2549  0.1518
95497W        W38409  19.362  27.760  29.025  0.1725 -0.1042  0.2073
95498W        W38410  19.641  23.391  31.040  0.3279  0.2470  0.0539
95499W        W38411  18.160  26.180  27.903 -0.0851 -0.2280  0.0492
95500W        W38412  18.397  28.530  28.094  0.2177  0.1097 -0.2928
95501W        W38413  19.410  27.122  28.005 -0.2048  0.0425 -0.3401
95502W        W38414  20.756  26.799  28.253  0.1698  0.0662 -0.0889
95503W        W38415  21.504  28.964  27.615  0.1013 -0.0858  0.1789
95504W        W38416  20.802  26.736  27.676  0.0451 -0.0486  0.1888
95505W        W38417  18.251  26.071  28.858 -0.1175 -0.0527 -0.0124
95506W        W38418  20.286  25.360  30.592 -0.0695  0.0901 -0.1799
95507W        W38419  21.926  26.669  30.459 -0.2966 -0.0265  0.2636
95508W        W38420  20.009  27.529  29.565  0.1548  0.2398  0.0176
95509W        W38421  19.168  24.576  27.058  0.3024 -0.1875  0.1856
95510W        W38422  19.368  28.994  31.188 -0.2949 -0.1924  0.1521
95511W        W38423  18.896  28.874  27.348  0.2488  0.1300 -0.1012
95512W        W38424  17.797  27.592  28.462  0.2499 -0.2769 -0.2035
95513W        W38425  19.063  26.529  29.338 -0.0502 -0.2398  0.0744
95514W        W38426  19.917  24.806  31.119  0.3564  0.1744 -0.2735
95515W        W38427  18.714  26.277  30.832 -0.2166  0.2139 -0.3879
95516W        W38428  19.533  23.284  28.340 -0.0094 -0.1915  0.0577
95517W        W38429  17.967  26.966  27.424 -0.0233  0.3373  0.0639
95518W        W38430  17.836  27.468  30.974  0.1390 -0.1254 -0.0666
95519W        W38431  20.738  25.874  29.257  0.0839 -0.0862  0.2206
95520W        W38432  21.551  26.238  28.298  0.0915  0.0460  0.1171
95521W        W38433  20.548  25.839  30.399  0.1344  0.0062 -0.0065
95522W        W38434  21.469  27.328  27.296  0.3604  0.1057  0.0187
95523W        W38435  22.047  27.521  25.585 -0.0379  0.1348  0.1788
95524W        W38436  20.830  27.282  28.411 -0.2836  0.0184 -0.1569
95525W        W38437  18.766  27.414  29.566  0.3849  0.1341  0.2354
95526W        W38438  18.292  27.439  28.385  0.0825 -0.1882  0.0721
95527W        W38439  18.586  26.604  29.910 -0.1239  0.0016  0.0905
95528W        W38440  20.274  25.727  26.712  0.4176  0.0326 -0.0485
95529W        W38441  20.409  28.226  28.470  0.2066 -0.0037  0.0867
95530W        W38442  18.431  28.251  30.073 -0.0574 -0.3971 -0.0561
95531W        W38443  20.588  28.057   0.153  0.1746 -0.2862 -0.0024
95532W        W38444  19.490  26.822  29.117  0.0561 -0.0855 -0.0158
95533W        W38445  20.411  25.705  31.173  0.0604  0.2417  0.1047
95534W        W38446  19.740  26.885  25.903 -0.1113  0.0184  0.1522
95535W        W38447  20.619  25.750  29.788 -0.1925  0.0434 -0.2383
95536W        W38448  18.402  28.812  27.242  0.0089 -0.0267  0.0781
95537W        W38449  20.306  25.248   0.130 -0.2021  0.3793  0.5531
95538W        W38450  20.120  25.616  29.650  0.2124 -0.1821  0.0111
95539W        W38451  19.951  24.311  29.783 -0.2051  0.0233  0.0982
95540W        W38452  21.770  26.184  30.800  0.2117 -0.0336  0.0496
95541W        W38453  22.573  26.274  27.106  0.1530  0.1288  0.0651
95542W        W38454  20.624  26.243  30.014  0.1870 -0.0400  0.1058
95543W        W38455  18.669  26.249  27.647 -0.1243 -0.0781 -0.1469
95544W        W38456  20.600  26.372  31.384  0.0285 -0.0686  0.1361
95545W        W38457  19.058  27.758  30.776  0.2004 -0.0091  0.1082
95546W        W38458  18.012  28.944  30.961  0.2968  0.2558  0.0135
95547W        W38459  20.621  29.818  31.358  0.1513 -0.1303 -0.2560
95548W        W38460  19.779  26.689  27.948  0.2631  0.2855  0.2931
95549W        W38461  18.627  25.283  31.212 -0.2566 -0.0670  0.0418
95550W        W38462  18.925  25.814  28.117  0.2835 -0.2737 -0.2723
95551W        W38463  19.046  29.321  28.515 -0.5424 -0.3849 -0.2979
95552W        W38464  18.556  27.558  28.878 -0.1487 -0.1702  0.0389
95553W        W38465  19.847  25.282  29.913 -0.0496  0.0135 -0.1779
95554W        W38466  19.359  26.823  30.094  0.1648  0.1499  0.0209
95555W        W38467  19.767  28.583  27.904  0.1179 -0.2277 -0.0856
95556W        W38468  19.158  29.030  31.863  0.2505  0.1489 -0.0752
95557W        W38469  19.473  27.361  28.710  0.3102  0.1728  0.0211
95558W        W38470  20.872  24.611  31.737 -0.1235  0.1431  0.2207
95559W        W38471  19.532  28.405  29.259  0.4206 -0.2937  0.0267
95560W        W38472  18.448  25.309  27.299  0.1590  0.3461  0.0437
95561W        W38473  18.505  26.476  28.026 -0.1737  0.2102  0.3270
95562W        W38474  20.728  25.426  27.996 -0.1203 -0.0576  0.0819
95563W        W38475  20.632  27.727  27.430 -0.1473 -0.0994  0.0249
95564W        W38476  21.161  24.994  30.414  0.1883  0.0484 -0.3231
95565W        W38477  18.187  24.421  26.864 -0.0965  0.2630  0.0363
95566W        W38478  18.634  28.250  29.520 -0.2200  0.2453 -0.0248
95567W        W38479  20.875  27.400  31.447  0.0827  0.2958 -0.2193
95568W        W38480  21.173  26.781  28.016  0.1192  0.0836  0.1771
95569W        W38481  21.420  27.612  28.723 -0.0422  0.2466 -0.1663
95570W        W38482  18.227  28.560   0.125 -0.1881  0.0461 -0.1986
95571W        W38483  17.920  25.784  28.564  0.4123 -0.1985 -0.0995
95572W        W38484  20.887  26.024  31.245 -0.1581  0.0962  0.0177
95573W        W38485  19.595  26.514  28.746  0.1264  0.1046  0.0960
95574W        W38486  16.995  29.097  29.294  0.3004 -0.1032  0.0056
95575W        W38487  21.158  28.050  29.369  0.1287 -0.1393 -0.1230
95576W        W38488  19.013  27.596  28.747 -0.0890  0.4996 -0.2480
95577W        W38489  17.461  28.527  28.568  0.0417  0.0910  0.1128
95578W        W38490  19.478  24.858  30.855  0.1762  0.1053 -0.1393
95579W        W38491  20.008  27.144  29.277  0.0381  0.3697 -0.1179
95580W        W38492  17.789  25.806  27.984 -0.0976  0.4265  0.0503
95581W        W38493  18.285  25.866  27.518 -0.0693  0.0692 -0.3190
95582W        W38494  20.756  26.621  29.719  0.0998 -0.1853  0.0740
95583W        W38495  21.167  28.696  31.018 -0.0152 -0.0858  0.0551
95584W        W38496  21.167  27.438  29.985  0.0676  0.3552 -0.1990
95585W        W38497  18.337  27.260  29.869  0.0852  0.1816 -0.1049
95586W        W38498  20.497  25.420  29.075 -0.1976  0.1338 -0.0502
95587W        W38499  21.045  28.782  27.654  0.2170 -0.2359  0.0431
95588W        W38500  19.454  27.684  30.485 -0.0713 -0.0982 -0.2496
95589W        W38501  19.282  29.199  27.440  0.1714  0.1191 -0.1968
95590W        W38502  17.630  24.967  27.729 -0.0011 -0.0173 -0.0822
95591W        W38503  18.534  28.907  27.735 -0.1731 -0.0283  0.1793
95592W        W38504  19.864  25.573  30.337  0.1378  0.0628 -0.0654
95593W        W38505  18.341  27.765  29.413 -0.3014 -0.0468  0.0117
95594W        W38506  18.474  27.006  27.788 -0.0622 -0.1202 -0.1976
95595W        W38507  18.082  27.321  28.922  0.0040  0.3028 -0.3099
95596W        W38508  22.498  25.471  28.457 -0.2009  0.0086 -0.0068
95597W        W38509  20.215  28.022  27.561  0.1617  0.2736 -0.3382
95598W        W38510  20.155  25.764  29.167  0.2741 -0.2965 -0.5877
95599W        W38511  22.258  25.619  31.425  0.0983 -0.2313 -0.0417
95600W        W38512  21.532  27.832  27.396 -0.1112 -0.0957 -0.0642
95601W        W38513  20.247  26.910  31.901  0.4122 -0.0044  0.1875
95602W        W38514  19.068  25.171  29.076 -0.3589 -0.0941  0.0596
95603W        W38515  20.785  28.342  29.422  0.1454 -0.2133 -0.0448
95604W        W38516  17.739  26.319  30.158 -0.1507 -0.0181 -0.1919
95605W        W38517  20.112  27.753  31.908  0.0552 -0.2131  0.0835
95606W        W38518  18.875  25.854  30.493 -0.2330 -0.3165 -0.0296
95607W        W38519  21.039  25.865  27.689 -0.2636 -0.2181  0.1988
95608W        W38520  18.957  24.969  28.091  0.0477  0.3195 -0.4686
95609W        W38521  18.205  26.217  29.821 -0.1103  0.3178  0.0531
95610W        W38522  20.301  26.629  30.107  0.0841  0.1044  0.2983
95611W        W38523  19.475  29.364  26.978  0.1149  0.0987 -0.2906
95612W        W38524  23.342  26.400  29.226 -0.1264 -0.2211  0.2219
95613W        W38525  18.399  27.187  29.287 -0.3821  0.0990 -0.2925
95614W        W38526  19.557  25.991  28.842  0.4471  0.0817  0.0944
95615W        W38527  20.101  27.521  27.568 -0.1414  0.0313 -0.0445
95616W        W38528  18.809  26.008  28.636 -0.1240  0.2203 -0.0696
95617W        W38529  19.293  24.221  28.641 -0.1835  0.5052 -0.2280
95618W        W38530  20.014  26.830  28.344  0.0346 -0.3618 -0.1996
95619W        W38531  19.989  27.232  30.649 -0.0476  0.1228 -0.0254
95620W        W38532  21.467  26.704  30.225 -0.0495  0.3672 -0.0066
95621W        W38533  19.648  26.716  31.748  0.0024  0.1499 -0.0619
95622W        W38534  20.566  27.007  31.365  0.1559 -0.0905 -0.2098
95623W        W38535  17.222  25.467  30.879  0.1233 -0.2452  0.1549
95624W        W38536  20.284  29.001   0.531 -0.0028  0.2953 -0.3947
95625W        W38537  20.934  27.251  27.904  0.0286  0.0294  0.0106
95626W        W38538  19.792  24.316   0.604  0.1476 -0.1237 -0.2021
95627W        W38539  20.312  26.543  28.630 -0.1882 -0.1109  0.3011
95628W        W38540  20.738  26.118  27.486 -0.0117 -0.4216  0.1153
95629W        W38541  19.638  26.682  29.589  0.0516 -0.1815  0.1063
95630W        W38542  20.748  27.160  30.886 -0.0326 -0.2109 -0.0812
95631W        W38543  18.470  25.354  29.401 -0.3185  0.1464 -0.2665
95632W        W38544  20.207  25.429  31.624 -0.1459 -0.0420 -0.0733
95633W        W38545  20.183  30.954  28.227 -0.0789 -0.0176 -0.1764
95634W        W38546  17.949  27.339  29.466 -0.2320 -0.3004  0.2080
95635W        W38547  21.217  26.559  28.488 -0.0262 -0.2738 -0.2204
95636W        W38548  18.506  25.214  28.866  0.0395  0.2903  0.0447
95637W        W38549  19.873  28.742  31.177 -0.1708  0.1046 -0.3851
95638W        W38550  17.537  26.212  27.909 -0.0580 -0.1258  0.0479
95639W        W38551  20.254  26.058  28.435 -0.0429 -0.1741 -0.2817
95640W        W38552  19.052  26.389  28.857 -0.3995 -0.0683 -0.2578
95641W        W38553  21.911  26.616   0.279 -0.3251  0.1466  0.0665
95642W        W38554  20.540  26.361  28.028  0.0066 -0.2349 -0.2368
95643W        W38555  20.329  26.028  31.652 -0.5385 -0.1767 -0.0483
95644W        W38556  17.555  29.008  27.774 -0.1697 -0.0594  0.0918
95645W        W38557  20.514  25.835  28.784 -0.0213 -0.1254  0.0581
95646W        W38558  19.040  27.252  29.157  0.0595 -0.0284 -0.0040
95647W        W38559  18.612  26.776  29.396  0.2158  0.2051 -0.3499
95648W        W38560  19.514  26.302  27.677  0.0960 -0.2300 -0.0219
95649W        W38561  20.959  24.904  28.037 -0.2150 -0.3917 -0.0116
95650W        W38562  21.182  26.252  30.875  0.0946  0.2396 -0.0152
95651W        W38563  20.627  27.063  30.407 -0.3744 -0.1775 -0.1710
95652W        W38564  20.751  25.110  30.714  0.0842 -0.2574 -0.3004
95653W        W38565  19.438  27.152  30.473  0.0071 -0.1125  0.0295
95654W        W38566  18.402  25.931  29.347 -0.3143  0.1807 -0.1856
95655W        W38567  20.277  28.735  30.776  0.2591 -0.4742  0.0862
95656W        W38568  21.732  27.249  29.951  0.0073  0.0816 -0.1380
95657W        W38569  18.402  27.663  30.137  0.1863  0.0418 -0.2955
95658W        W38570  19.253  26.047  30.193  0.2572  0.0394  0.1706
95659W        W38571  21.466  26.598  30.772  0.2949 -0.2520  0.0324
95660W        W38572  20.796  27.961  29.824  0.0188 -0.0953 -0.3006
95661W        W38573  19.767  26.238  28.354 -0.1819  0.0263 -0.1274
95662W        W38574  18.588  29.947  27.924  0.1763  0.0410 -0.0185
95663W        W38575  18.030  28.465  31.210 -0.0970 -0.1176 -0.1880
95664W        W38576  17.603  27.214  28.707  0.0063 -0.2345 -0.1192
95665W        W38577  18.098  28.726  27.743  0.1925  0.0372 -0.4625
95666W        W38578  20.681  28.507  27.510 -0.1468 -0.1359  0.4982
95667W        W38579  19.589  27.511  27.705  0.1628 -0.1182  0.1182
95668W        W38580  20.849  28.536  30.003 -0.1985 -0.2454 -0.2700
95669W        W38581  19.911  25.799  27.054 -0.0554 -0.1374  0.1346
95670W        W38582  18.153  27.850  27.599 -0.0102 -0.5816  0.0983
95671W        W38583  18.530  28.218  27.072  0.2594 -0.1703  0.0226
95672W        W38584  20.403  28.565  28.838  0.0827 -0.0236  0.1132
95673W        W38585  19.540  28.386  28.766  0.1550 -0.0160 -0.0921
95674W        W38586  20.405  27.493  31.065  0.1579 -0.0814 -0.2111
95675W        W38587  21.511  27.521  27.848  0.1451  0.2546  0.0486
95676W        W38588  20.488  27.302  29.434  0.0914 -0.0371  0.1265
95677W        W38589  22.231  27.253  28.301  0.2913  0.0030 -0.0241
95678W        W38590  20.726  29.509  30.993 -0.1037  0.0294 -0.3364
95679W        W38591  20.926  26.710  30.163 -0.0263 -0.0911  0.0389
95680W        W38592  21.456  25.584  27.838  0.0049 -0.0495 -0.0262
95681W        W38593  18.971  26.665  30.914 -0.1463 -0.0907 -0.1142
95682W        W38594  20.493  24.348  30.604  0.1451 -0.0771  0.1856
95683W        W38595  18.850  28.726  31.374 -0.1738 -0.1270 -0.0144
95684W        W38596  20.367  27.201  28.372 -0.0434 -0.2368  0.0694
95685W        W38597  17.939  25.307  28.068  0.0900  0.1494  0.4214
95686W        W38598  19.846  25.809  27.535 -0.1671  0.1820 -0.3509
95687W        W38599  20.889  25.753  30.757 -0.0453 -0.1526  0.2320
95688W        W38600  18.820  27.311  28.238  0.0967 -0.0304 -0.3589
95689W        W38601  20.539  26.138  30.807  0.3198  0.0778  0.1661
95690W        W38602  19.092  28.176  28.936 -0.0071  0.0509 -0.0135
95691W        W38603  18.067  28.408  30.676  0.2390  0.0791 -0.0705
95692W        W38604  20.607  27.595  30.147  0.0126 -0.4664  0.0409
95693W        W38605  18.851  26.813  27.471 -0.0656 -0.0626  0.0228
95694W        W38606  22.477  27.146  29.240  0.0471  0.1132  0.0801
95695W        W38607  20.341  24.392  28.372  0.0104  0.2389 -0.1703
95696W        W38608  20.927  24.638  30.752 -0.1569 -0.0944 -0.3831
95697W        W38609  18.311  26.020  28.301 -0.0250 -0.0834 -0.1990
95698W        W38610  19.245  26.143  28.433 -0.1649  0.1128 -0.1395
95699W        W38611  20.129  26.383  30.642  0.0188 -0.4259  0.2610
95700W        W38612  19.226  25.395  28.069 -0.1261 -0.0617 -0.2282
95701W        W38613  21.225  26.878  25.943  0.1799  0.2273  0.2351
95702W        W38614  21.790  27.972  31.261  0.2962  0.5044 -0.1462
95703W        W38615  20.646  26.665  27.158 -0.2540 -0.3161  0.0347
95704W        W38616  19.548  29.191  31.645 -0.0904 -0.0199  0.0532
95705W        W38617  17.849  26.123  26.998 -0.0428  0.1182  0.1654
95706W        W38618  19.544  26.628  27.228  0.0123 -0.0065 -0.1005
95707W        W38619  19.130  25.968  29.118  0.0078  0.1643 -0.2085
95708W        W38620  18.058  27.989  30.286 -0.0716 -0.0943  0.4229
95709W        W38621  21.468  29.542   0.126 -0.0813 -0.1889  0.0221
95710W        W38622  18.064  25.085  26.243  0.1713 -0.0851 -0.5061
95711W        W38623  20.870  29.976  27.107  0.0541  0.0798  0.0650
95712W        W38624  21.304  26.610  29.646  0.1393  0.2750 -0.1095
95713W        W38625  19.776  27.799  28.777  0.1563 -0.5169 -0.0367
95714W        W38626  21.504  27.044  27.667  0.0218  0.1094  0.0793
95715W        W38627  20.425  28.240  30.084  0.1567  0.0424  0.1298
95716W        W38628  18.767  26.189  29.610 -0.1043 -0.4000  0.1350
95717W        W38629  20.671  29.235   0.379  0.3056  0.0283 -0.2914
95718W        W38630  20.986  28.283  30.872 -0.3042 -0.0176 -0.2624
95719W        W38631  20.168  25.437  27.689 -0.1377 -0.3745 -0.0085
95720W        W38632  18.614  26.401  29.117 -0.1392  0.0983  0.0609
95721W        W38633  19.592  29.545  27.706 -0.0787 -0.2275  0.1400
95722W        W38634  21.451  25.283  30.030 -0.1888 -0.4211 -0.1709
95723W        W38635  21.079  25.683  29.682  0.1329 -0.1551 -0.0013
95724W        W38636  19.672  29.094  27.896 -0.0269  0.3564 -0.1220
95725W        W38637  19.537  24.370  30.523 -0.1006 -0.0500 -0.4303
95726W        W38638  20.291  28.379  31.465  0.1030 -0.1916  0.1630
95727W        W38639  19.330  30.206  30.935  0.0476 -0.3403 -0.1362
95728W        W38640  19.719  27.991  27.332  0.3102 -0.1313 -0.0130
95729W        W38641  19.702  26.907  30.899  0.2986 -0.2338  0.0883
95730W        W38642  18.579  27.032  28.572 -0.0378 -0.1886 -0.0834
95731W        W38643  21.197  28.964  28.694  0.0355 -0.1885  0.6574
95732W        W38644  20.253  29.347  30.842 -0.1239  0.1345  0.1070
95733W        W38645  20.013  26.219  28.873  0.0582 -0.2540  0.3545
95734W        W38646  20.723  29.099  30.216  0.2477  0.4495  0.2778
95735W        W38647  18.392  25.635  30.337  0.0052  0.1578 -0.1560
95736W        W38648  22.369  26.060  29.401 -0.0435 -0.2441  0.1454
95737W        W38649  22.397  25.146  27.689 -0.2046  0.0778 -0.3141
95738W        W38650  18.776  28.018  31.333 -0.2345  0.0468  0.0152
95739W        W38651  17.245  26.229  27.366  0.1302 -0.2193  0.1161
95740W        W38652  18.844  28.470  27.686 -0.1089 -0.0889  0.0448
95741W        W38653  18.164  28.047  28.334 -0.0955  0.1976 -0.0133
95742W        W38654  18.992  22.957  29.665 -0.2644  0.1899 -0.0130
95743W        W38655  19.691  26.365  30.065  0.2084  0.0977 -0.0905
95744W        W38656  18.868  25.461  28.471  0.0016  0.0608 -0.4368
95745W        W38657  18.844  24.956  28.596  0.0218 -0.2720  0.0601
95746W        W38658  20.887  27.131  27.380 -0.1468 -0.0004 -0.2576
95747W        W38659  19.007  24.591  29.278 -0.1588  0.0376 -0.1737
95748W        W38660  18.192  24.151  29.453 -0.0629 -0.3642 -0.0742
95749W        W38661  19.549  27.613  28.221  0.5262  0.2885  0.0042
95750W        W38662  20.089  27.662  28.040 -0.0147 -0.2268 -0.0514
95751W        W38663  21.607  25.140  28.091 -0.1237 -0.2069 -0.1027
95752W        W38664  21.306  28.156  29.918  0.1596  0.2029  0.0300
95753W        W38665  17.513  26.520  27.014 -0.2837 -0.1040  0.0627
95754W        W38666  18.474  26.747  30.505 -0.4268  0.1443  0.0946
95755W        W38667  19.122  24.205  29.610 -0.2400 -0.0346 -0.0806
95756W        W38668  17.311  24.582  26.351 -0.1396 -0.0700 -0.0048
95757W        W38669  21.119  26.259  29.970  0.3695  0.1529  0.1796
95758W        W38670  20.407  27.766  29.733 -0.2036 -0.0660 -0.3183
95759W        W38671  21.435  28.470  28.665 -0.0714 -0.0749 -0.1891
95760W        W38672  21.248  27.385  30.874 -0.2115  0.0630  0.1890
95761W        W38673  19.926  28.215  31.034  0.0596 -0.0188 -0.2832
95762W        W38674  18.448  24.593  29.989 -0.1834  0.0435  0.4401
95763W        W38675  20.722  28.167  27.869 -0.2731  0.2825  0.1058
95764W        W38676  20.138  27.836  30.174  0.0190 -0.0249  0.0143
95765W        W38677  21.636  26.380  28.750  0.0326  0.1559 -0.0333
95766W        W38678  20.424  25.169  29.510  0.0838 -0.1951  0.0947
95767W        W38679  19.387  25.858  27.805 -0.0038  0.3545 -0.0972
95768W        W38680  18.158  25.702  31.181  0.1891 -0.3883 -0.1987
95769W        W38681  18.953  26.941  30.420  0.1005 -0.0289  0.3215
95770W        W38682  20.639  29.901  30.527 -0.2357 -0.2865 -0.0575
95771W        W38683  20.154  26.763  29.616  0.1660  0.3228  0.0241
95772W        W38684  21.041  25.828  26.734  0.2338  0.1227  0.0241
95773W        W38685  19.348  28.039  27.014  0.1272  0.1328  0.1992
95774W        W38686  18.077  27.374  27.796 -0.0756 -0.0554  0.0488
95775W        W38687  20.743  25.828  28.315  0.0494  0.0780 -0.1032
95776W        W38688  20.026  27.142  31.226 -0.0203  0.1136 -0.3030
95777W        W38689  18.985  26.384  30.437  0.0974 -0.3277  0.0516
95778W        W38690  18.737  27.327  30.717 -0.3664  0.0984 -0.3143
95779W        W38691  19.945  26.840  27.474 -0.0087 -0.0885  0.1344
95780W        W38692  21.881  27.426  27.486  0.0212  0.0317 -0.1720
95781W        W38693  20.375  28.942  31.236 -0.1646  0.1726  0.0319
95782W        W38694  21.445  31.145  31.691  0.0551  0.3733 -0.2742
95783W        W38695  19.178  29.752  30.839 -0.0680 -0.0413  0.0691
95784W        W38696  21.138  27.156  30.429 -0.3152  0.1159 -0.2040
95785W        W38697  19.415  25.551  29.063  0.0690  0.4262  0.2407
95786W        W38698  18.440  27.153  27.245 -0.4979 -0.1067 -0.0501
95787W        W38699  18.803  26.824  28.957 -0.1564 -0.0148 -0.0863
95788W        W38700  20.718  26.740  28.841 -0.2509  0.0088 -0.0351
95789W        W38701  20.036  26.662  29.086 -0.2155 -0.2843  0.0354
95790W        W38702  20.299  25.364  27.123  0.1755  0.0150 -0.0417
95791W        W38703  19.400  28.523  31.015 -0.0549 -0.1164  0.0032
95792W        W38704  19.881  26.819  30.338  0.0633  0.0099  0.1890
95793W        W38705  20.248  27.405   0.251  0.0332  0.2174  0.0812
95794W        W38706  19.568  28.421   0.062 -0.1521 -0.2073  0.0877
95795W        W38707  18.324  25.049  30.331  0.3701 -0.1605 -0.2188
95796W        W38708  18.820  27.464  30.231 -0.1169  0.0378  0.0185
95797W        W38709  18.097  28.000   0.078 -0.0551  0.2801 -0.0067
95798W        W38710  17.777  29.331  31.391 -0.2009  0.1284  0.0673
95799W        W38711  20.294  27.330  31.653 -0.2238  0.0122  0.3061
95800W        W38712  19.822  25.243  30.805  0.2285  0.2583  0.5207
95801W        W38713  20.522  25.824   0.178 -0.2759  0.3064 -0.2298
95802W        W38714  21.738  27.617  30.921 -0.0368 -0.1326 -0.0792
95803W        W38715  21.161  28.851  31.768 -0.1139  0.1317 -0.2005
95804W        W38716  18.664  26.030  31.325  0.0971 -0.0611 -0.0391
95805W        W38717  19.737  27.520   0.232 -0.1587  0.1659 -0.0637
95806W        W38718  20.003  26.684  31.404 -0.0216 -0.5050 -0.1944
95807W        W38719  22.184  27.820  31.008 -0.1605  0.0924 -0.1815
95808W        W38720  18.155  29.358   0.237  0.0339 -0.4151 -0.0454
95809W        W38721  18.255  27.615  30.741 -0.1366  0.3388  0.2192
95810W        W38722  19.813  28.268  31.618 -0.0854 -0.0101  0.3944
95811W        W38723  18.452  24.809  30.789 -0.2340  0.5676 -0.2292
95812W        W38724  17.675  25.083   0.989 -0.0193 -0.0831 -0.2077
95813W        W38725  18.477  23.818  30.103 -0.1732  0.2862 -0.1060
95814W        W38726  17.014  28.156  31.577  0.3020  0.1280 -0.0583
95815W        W38727  22.332  24.683  31.426  0.0803 -0.0019  0.0274
95816W        W38728  20.177  26.162  31.163  0.0692  0.2530 -0.1366
95817W        W38729  19.355  24.217  30.057  0.0516  0.1439 -0.2425
95818W        W38730  19.555  25.681  31.045 -0.1290  0.0542 -0.2093
95819W        W38731  18.557  26.967  31.122 -0.0414 -0.3884 -0.0183
95820W        W38732  17.561  29.662  29.680 -0.0100  0.1716 -0.5343
95821W        W38733  18.966  27.817  31.956  0.0112  0.0615  0.1660
95822W        W38734  19.451  27.682  31.782  0.1338 -0.1043  0.1244
95823W        W38735  18.777  27.824  29.820  0.0418  0.2548  0.1333
95824W        W38736  18.176  27.090  30.811  0.1087  0.0044 -0.1011
95825W        W38737  21.854  30.289   0.490  0.0335 -0.1875 -0.2350
95826W        W38738  19.488  26.196  31.977  0.1171  0.1180 -0.0026
95827W        W38739  18.743  24.266  31.502 -0.2071 -0.1090 -0.2053
95828W        W38740  18.375  29.196  31.307  0.2823 -0.1810  0.0690
95829W        W38741  18.791  28.663   0.028 -0.0559  0.2398  0.0349
95830W        W38742  21.235  26.993   0.674  0.0426  0.2827 -0.2854
95831W        W38743  19.508  26.593  30.560 -0.0915  0.1724 -0.0868
95832W        W38744  21.433  25.608  31.045  0.2072 -0.1566 -0.1465
95833W        W38745  21.290  25.485  30.526 -0.1862  0.0486 -0.0683
95834W        W38746  19.369  24.104  31.618  0.0236 -0.0911 -0.0838
95835W        W38747  17.712  24.107  31.845  0.2068 -0.1341 -0.1310
95836W        W38748  22.236  28.666   0.267 -0.0381 -0.1287  0.0169
95837W        W38749  19.243  24.722  30.305 -0.3502 -0.0814  0.3009
95838W        W38750  21.011  26.683  31.290  0.1505  0.3230  0.1569
95839W        W38751  19.278  23.546  30.011 -0.0873  0.0930  0.0199
95840W        W38752  20.497  27.744  31.451  0.0204 -0.2801  0.1897
95841W        W38753  20.169  27.931   1.560 -0.0753  0.1319  0.1001
95842W        W38754  17.485  27.665  30.190 -0.0038  0.1074  0.3319
95843W        W38755  19.683  27.520  30.905  0.0496 -0.4714 -0.0848
95844W        W38756  21.300  24.430  30.989  0.0425 -0.2271 -0.1414
95845W        W38757  20.037  24.830   0.643 -0.2787 -0.2010 -0.0780
95846W        W38758  20.874  29.085  31.302 -0.0776 -0.1214 -0.1511
95847W        W38759  18.956  25.623  31.479  0.0971  0.1824  0.0068
95848W        W38760  19.787  26.209  31.561  0.1771 -0.1754 -0.0584
95849W        W38761  21.099  29.033   0.569  0.2403 -0.1135 -0.1536
95850W        W38762  18.653  29.610  31.596  0.1231 -0.2862 -0.1083
95851W        W38763  20.238  29.472  31.432  0.2930 -0.0126  0.3357
95852W        W38764  18.317  28.010  31.545  0.3041  0.1360  0.2036
95853W        W38765  18.799  24.799  31.363  0.1855 -0.1460  0.3422
95854W        W38766  18.990  28.217  30.934  0.0712 -0.1574  0.1016
95855W        W38767  18.209  27.521  31.344 -0.0859 -0.3001  0.0838
95856W        W38768  18.767  23.851  31.111 -0.0438  0.0450 -0.0013
95857W        W38769  22.493  31.220   0.368  0.0654  0.1362  0.0201
95858W        W38770  22.372  28.261  30.889 -0.0678  0.0852 -0.0088
95859W        W38771  21.991  27.227  31.158  0.0053  0.0497  0.1542
95860W        W38772  19.829  30.407  18.854  0.0077 -0.1577 -0.0755
95861W        W38773  18.994  30.518  17.630  0.1869 -0.2441 -0.0574
95862W        W38774  20.936  29.686  16.138  0.0107  0.0330 -0.0893
95863W        W38775  21.145  30.983  16.958 -0.2950  0.1637 -0.1360
95864W        W38776  19.140  30.924  18.058  0.1115 -0.3461  0.0519
95865W        W38777  20.709  33.450  16.813  0.2925  0.0860 -0.0580
95866W        W38778  18.845  28.166  18.319 -0.1921  0.1741  0.1495
95867W        W38779  19.999  30.964  17.743 -0.3629 -0.1885 -0.1382
95868W        W38780  21.920  32.239  18.447  0.2392 -0.1452 -0.1324
95869W        W38781  20.676  30.951  16.153 -0.0026  0.1325 -0.1313
95870W        W38782  18.668  29.929  18.356 -0.2962  0.2393  0.2087
95871W        W38783  19.717  33.574  17.765 -0.0538  0.0171 -0.3403
95872W        W38784  20.623  29.166  17.637 -0.0948 -0.0366  0.2229
95873W        W38785  17.621  29.101  17.773 -0.0719 -0.1802  0.0114
95874W        W38786  20.403  30.436  19.336 -0.1480 -0.1510  0.1058
95875W        W38787  18.331  31.998  16.779 -0.0392 -0.0598  0.0519
95876W        W38788  19.403  30.336  17.343 -0.1007  0.1436 -0.2098
95877W        W38789  18.758  29.567  17.912 -0.0708  0.1777  0.1925
95878W        W38790  20.395  33.116  16.560  0.1067  0.3851  0.0901
95879W        W38791  19.744  31.142  19.516  0.1006 -0.1246 -0.1612
95880W        W38792  19.699  30.098  20.377  0.0314 -0.0129  0.0401
95881W        W38793  19.776  32.071  15.788 -0.0917  0.1856 -0.2016
95882W        W38794  20.403  31.339  17.648 -0.0034 -0.0356  0.0334
95883W        W38795  17.750  29.630  18.150 -0.2519  0.0876  0.0743
95884W        W38796  18.215  29.388  19.069 -0.1063 -0.0063 -0.4184
95885W        W38797  20.104  29.899  17.974  0.0696  0.0235  0.1480
95886W        W38798  19.878  30.812  19.171 -0.1383 -0.0395  0.2979
95887W        W38799  19.959  33.181  17.609  0.0268  0.1092 -0.0439
95888W        W38800  20.451  33.850  18.368  0.3217  0.2299 -0.1760
95889W        W38801  21.137  29.401  19.390 -0.0571  0.1984  0.2863
95890W        W38802  19.456  31.195  18.496 -0.1754 -0.0905 -0.0554
95891W        W38803  17.697  32.336  17.291 -0.1464  0.0867  0.1998
95892W        W38804  19.147  31.895  18.178  0.0705  0.0553 -0.1986
95893W        W38805  20.241  31.860  16.670  0.0755 -0.3849  0.0227
95894W        W38806  20.768  31.296  19.047 -0.2525  0.5094 -0.1160
95895W        W38807  19.571  32.352  19.709 -0.0834  0.2358  0.1685
95896W        W38808  19.307  30.740  16.076  0.0212  0.1576  0.3112
95897W        W38809  19.950  31.999  18.556  0.2678 -0.2507 -0.3024
95898W        W38810  20.454  32.085  21.243  0.3917 -0.1790 -0.2662
95899W        W38811  20.380  31.847  18.334  0.2084 -0.2247 -0.4710
95900W        W38812  20.878  31.077  18.416  0.1212 -0.1061 -0.1634
95901W        W38813  20.793  31.798  16.575  0.0164 -0.1549 -0.2185
95902W        W38814  19.808  30.534  17.722  0.3256 -0.2978 -0.0711
95903W        W38815  18.865  31.292  19.985  0.1010 -0.0636  0.5385
95904W        W38816  18.702  32.475  18.778  0.2968  0.1235 -0.2587
95905W        W38817  20.740  29.159  20.288 -0.0138  0.0751 -0.0130
95906W        W38818  18.400  31.521  17.091 -0.2355 -0.2264  0.0439
95907W        W38819  20.284  30.368  15.978  0.0232  0.0785 -0.1678
95908W        W38820  20.202  30.784  16.304  0.1501 -0.3374 -0.1430
95909W        W38821  22.016  30.766  16.371  0.0554  0.1031  0.0453
95910W        W38822  19.428  28.639  17.135  0.0603  0.0296  0.0802
95911W        W38823  19.808  31.766  17.368  0.0268 -0.2405 -0.2830
95912W        W38824  20.505  28.900  18.094 -0.0840 -0.1187 -0.2827
95913W        W38825  21.632  32.524  19.660  0.1065  0.3386  0.0196
95914W        W38826  20.007  30.277  17.214 -0.2819 -0.0681  0.0009
95915W        W38827  19.781  31.411  19.935 -0.1351 -0.0002  0.0439
95916W        W38828  19.811  32.866  18.361 -0.4395  0.2676  0.3779
95917W        W38829  17.865  29.786  16.390  0.0576  0.4369  0.0372
95918W        W38830  22.074  31.483  18.032  0.0423  0.0983 -0.1531
95919W        W38831  22.491  32.422  17.781  0.0182  0.2511  0.2768
95920W        W38832  20.416  31.823  17.780 -0.0563  0.0942 -0.3441
95921W        W38833  19.273  31.462  16.678  0.0303 -0.1955 -0.0817
95922W        W38834  18.156  30.720  18.015 -0.1907  0.1842 -0.1454
95923W        W38835  18.601  31.089  19.029 -0.2104 -0.1398  0.1272
95924W        W38836  19.363  29.104  17.316  0.1759 -0.0034  0.0294
95925W        W38837  21.697  31.213  18.326  0.0864 -0.3273 -0.0538
95926W        W38838  18.148  32.566  18.590 -0.1995 -0.2668  0.1296
95927W        W38839  20.621  30.234  18.115  0.1047 -0.1377  0.1183
95928W        W38840  18.919  31.863  17.279  0.1385 -0.0526 -0.2447
95929W        W38841  20.594  31.611  20.089 -0.0905 -0.1173  0.0496
95930W        W38842  20.416  31.517  16.274  0.1286 -0.0619  0.0708
95931W        W38843  20.548  30.103  18.984  0.2157 -0.0133 -0.1627
95932W        W38844  20.055  29.784  18.467 -0.1163  0.2187 -0.1023
95933W        W38845  18.403  31.009  16.434 -0.1458  0.0858  0.2661
95934W        W38846  20.855  31.707  18.206 -0.1581  0.3872  0.0031
95935W        W38847  20.878  32.114  19.619  0.2352 -0.3118 -0.1532
95936W        W38848  20.963  30.856  16.522 -0.0700 -0.0105  0.3107
95937W        W38849  17.580  32.158  16.803  0.0020 -0.1521  0.0130
95938W        W38850  19.596  28.808  18.941 -0.1826 -0.1845  0.0566
95939W        W38851  20.838  31.998  21.533 -0.0947 -0.0393 -0.0252
95940W        W38852  19.832  32.009  16.305 -0.2267 -0.1309 -0.1231
95941W        W38853  17.881  30.260  19.376 -0.2032 -0.2360  0.2474
95942W        W38854  17.813  31.208  16.925  0.0447 -0.1417  0.1715
95943W        W38855  19.167  29.999  17.590  0.0562 -0.3004  0.1459
95944W        W38856  20.064  32.160  19.006 -0.0666  0.5549  0.1909
95945W        W38857  21.042  29.166  16.522 -0.0935  0.0366 -0.2394
95946W        W38858  18.417  30.408  19.610 -0.0360  0.1996 -0.1878
95947W        W38859  22.192  29.038  18.632  0.1907  0.1692 -0.2726
95948W        W38860  18.161  30.882  17.152  0.1880  0.0592 -0.2275
95949W        W38861  20.854  32.697  17.496 -0.0090 -0.3249 -0.1452
95950W        W38862  21.072  29.993  17.685 -0.1148  0.1161  0.2397
95951W        W38863  20.912  30.597  17.122  0.0795  0.0144 -0.1111
95952W        W38864  18.238  29.694  18.238  0.1224  0.3239  0.0730
95953W        W38865  19.749  29.514  18.142 -0.1074  0.0428  0.1602
95954W        W38866  19.830  29.527  20.171 -0.0510 -0.0017 -0.0874
95955W        W38867  19.889  29.688  19.430  0.0056 -0.4080  0.2234
95956W        W38868  20.054  30.700  19.645  0.0338  0.2930  0.1528
95957W        W38869  18.637  30.698  16.925  0.2545  0.2473 -0.2410
95958W        W38870  21.282  30.213  18.189 -0.0916 -0.0548  0.1991
95959W        W38871  18.376  30.233  17.563  0.3196 -0.0973 -0.1308
95960W        W38872  17.138  30.638  16.081 -0.0123  0.0154 -0.2042
95961W        W38873  21.176  29.912  18.721 -0.0908 -0.2188 -0.0031
95962W        W38874  21.005  32.473  17.099 -0.2280  0.2447 -0.1795
95963W        W38875  21.231  33.344  19.371 -0.0690 -0.1480  0.0903
95964W        W38876  21.096  33.646  17.868 -0.2226 -0.0464 -0.2145
95965W        W38877  18.420  30.249  19.156 -0.1871 -0.0743 -0.4117
95966W        W38878  19.406  29.931  16.427 -0.0363  0.2158 -0.3272
95967W        W38879  18.696  32.239  16.574  0.0881  0.0249 -0.1571
95968W        W38880  18.510  31.513  17.566 -0.0228  0.0575 -0.1546
95969W        W38881  20.797  29.863  17.244  0.1006 -0.1805  0.2603
95970W        W38882  23.622  31.676  18.083 -0.1372  0.5519  0.0077
95971W        W38883  20.311  31.903  17.206 -0.1531 -0.0508  0.0395
95972W        W38884  19.333  32.195  17.408 -0.1691  0.1496 -0.0287
95973W        W38885  21.007  29.904  19.505  0.1169 -0.2766 -0.0031
95974W        W38886  21.591  30.905  19.494  0.3530 -0.0022  0.2971
95975W        W38887  20.031  30.631  18.266  0.0900  0.0645 -0.2844
95976W        W38888  18.700  30.290  16.632  0.0466  0.0675  0.0173
95977W        W38889  20.080  32.358  16.609 -0.4255 -0.0890  0.1593
95978W        W38890  19.394  31.772  16.138  0.2899  0.0257 -0.0548
95979W        W38891  18.917  29.442  17.450 -0.3401 -0.1186  0.0506
95980W        W38892  19.289  33.129  16.770 -0.3211  0.4130  0.0473
95981W        W38893  22.638  30.448  16.941  0.1993  0.2461  0.0986
95982W        W38894  17.303  30.212  20.051 -0.1580  0.1056  0.2701
95983W        W38895  20.352  29.597  18.813 -0.1221  0.1862 -0.0913
95984W        W38896  19.668  30.710  17.165  0.0421 -0.3823 -0.1208
95985W        W38897  18.559  31.185  18.104  0.3500  0.2250 -0.2132
95986W        W38898  19.773  29.603  16.520  0.1258  0.0139 -0.0098
95987W        W38899  21.227  30.017  17.145  0.1579  0.0578 -0.3045
95988W        W38900  18.825  30.609  19.187 -0.2524 -0.2218 -0.3377
95989W        W38901  21.188  32.132  18.255 -0.1522 -0.0396  0.0600
95990W        W38902  19.755  30.717  15.577  0.0153 -0.2526  0.1646
95991W        W38903  20.400  30.782  16.884 -0.0487  0.5300 -0.1534
95992W        W38904  18.841  30.215  18.723  0.1944  0.3137 -0.3581
95993W        W38905  19.954  31.916  18.015 -0.0263  0.1814  0.3552
95994W        W38906  19.801  30.907  18.696  0.0391  0.3034  0.3770
95995W        W38907  19.889  30.736  16.707  0.1823  0.2805  0.1185
95996W        W38908  22.022  32.463  16.396 -0.2123  0.1283 -0.1878
95997W        W38909  18.031  30.603  17.553 -0.1367  0.1370  0.1370
95998W        W38910  21.171  32.616  20.985 -0.1483 -0.3325  0.0662
95999W        W38911  21.758  32.360  17.382  0.2700  0.1643 -0.6634
96000W        W38912  21.337  28.756  19.439  0.0283  0.1562  0.1934
96001W        W38913  19.998  30.294  16.459 -0.1389  0.0333  0.2498
96002W        W38914  20.346  29.023  18.571 -0.0673  0.0795  0.0620
96003W        W38915  18.079  32.274  15.942  0.1450  0.0982  0.0033
96004W        W38916  20.767  30.819  19.372  0.5012 -0.0516  0.3775
96005W        W38917  20.524  30.676  18.351 -0.2474  0.1682  0.2224
96006W        W38918  20.706  28.941  19.439 -0.3215  0.2340 -0.2176
96007W        W38919  22.170  31.593  20.776 -0.0507 -0.0022 -0.1971
96008W        W38920  20.477  29.781  16.883  0.4399  0.1199 -0.0061
96009W        W38921  19.497  31.445  18.021 -0.1101 -0.3824 -0.0538
96010W        W38922  19.532  31.067  16.678 -0.0186 -0.1318  0.1576
96011W        W38923  19.162  29.961  20.296 -0.1742  0.1907  0.1940
96012W        W38924  17.674  29.248  18.928 -0.4481 -0.2894 -0.0601
96013W        W38925  18.153  32.897  19.725 -0.2839  0.1190 -0.0423
96014W        W38926  21.945  31.506  19.753  0.3125  0.1766 -0.0835
96015W        W38927  21.360  30.095  19.183 -0.0421  0.0412 -0.4004
96016W        W38928  19.513  31.211  19.101  0.0293  0.4345  0.0027
96017W        W38929  19.284  29.931  15.818 -0.0455 -0.0676 -0.2006
96018W        W38930  20.732  32.389  16.074  0.4232  0.1810  0.0749
96019W        W38931  19.104  30.804  17.150  0.0434 -0.0125 -0.2138
96020W        W38932  19.877  29.597  17.577  0.2005 -0.0840 -0.1052
96021W        W38933  19.048  31.204  18.864  0.0022 -0.2871  0.0254
96022W        W38934  19.216  32.649  16.521  0.1299  0.5118 -0.0640
96023W        W38935  20.824  31.278  17.863 -0.0181  0.1265  0.0102
96024W        W38936  19.637  33.033  17.147 -0.4158 -0.1889  0.0687
96025W        W38937  21.154  30.461  17.568  0.2640 -0.1583 -0.1966
96026W        W38938  17.782  31.743  17.029 -0.0855 -0.1671  0.0379
96027W        W38939  19.815  28.849  17.458  0.1317  0.0211 -0.1008
96028W        W38940  17.951  30.867  16.621  0.0940 -0.0079 -0.0657
96029W        W38941  21.559  30.650  18.154 -0.0155  0.0006  0.0881
96030W        W38942  22.665  31.011  16.440  0.0944 -0.1069  0.2932
96031W        W38943  19.531  29.938  19.027  0.0753 -0.1064 -0.1686
96032W        W38944  21.286  29.106  17.598 -0.0505  0.2628 -0.2833
96033W        W38945  17.019  31.403  18.021 -0.0674 -0.1327  0.1077
96034W        W38946  20.199  29.978  20.216 -0.1378 -0.2410 -0.1789
96035W        W38947  21.157  29.499  17.056  0.1087 -0.0491 -0.0515
96036W        W38948  21.750  31.898  17.997 -0.1346 -0.2121  0.0839
96037W        W38949  19.529  31.325  21.189 -0.1901 -0.1870  0.3710
96038W        W38950  19.806  31.272  17.047 -0.1330  0.0840 -0.0146
96039W        W38951  21.222  30.779  19.819  0.2930  0.0043  0.1690
96040W        W38952  20.062  29.017  19.030 -0.0690 -0.0789 -0.0980
96041W        W38953  19.800  32.203  17.626 -0.0285  0.3277  0.0078
96042W        W38954  20.416  32.818  18.337  0.0995 -0.2316  0.0429
96043W        W38955  19.342  31.766  17.083  0.1734 -0.0805  0.2841
96044W        W38956  21.273  32.840  17.270  0.1792 -0.3030  0.1255
96045W        W38957  20.628  31.103  21.029  0.2076  0.4720  0.2170
96046W        W38958  21.163  32.309  19.262 -0.1611  0.0307  0.0755
96047W        W38959  20.508  29.872  19.413 -0.0126  0.2032  0.0380
96048W        W38960  17.984  29.753  17.780  0.1067 -0.0640 -0.2516
96049W        W38961  20.251  29.925  17.491 -0.0417 -0.2330 -0.0399
96050W        W38962  19.725  30.845  19.973 -0.1340  0.0645 -0.2702
96051W        W38963  20.615  29.406  19.617  0.1001 -0.0086 -0.1702
96052W        W38964  18.042  31.322  18.466 -0.0849 -0.0936  0.1005
96053W        W38965  20.282  30.238  18.472 -0.1922 -0.1220  0.1214
96054W        W38966  21.374  34.022  16.454 -0.1692  0.0564 -0.4592
96055W        W38967  20.058  31.464  19.320 -0.1227 -0.2066 -0.2704
96056W        W38968  20.396  32.340  17.062 -0.0168 -0.0304 -0.4223
96057W        W38969  17.444  30.634  20.419  0.3389  0.1047  0.3175
96058W        W38970  21.265  30.926  17.757  0.0475 -0.3071 -0.3809
96059W        W38971  21.480  29.724  19.553  0.0924  0.2494 -0.4363
96060W        W38972  21.009  31.746  18.714 -0.1657 -0.2563  0.1007
96061W        W38973  20.690  32.768  16.755 -0.4656  0.0383  0.2448
96062W        W38974  18.143  31.657  18.897  0.0450  0.0517  0.0572
96063W        W38975  21.859  30.490  16.841  0.3433 -0.1687 -0.0252
96064W        W38976  19.750  31.719  16.783  0.0978  0.0183 -0.0595
96065W        W38977  19.641  30.020  17.808  0.0582  0.2953 -0.0698
96066W        W38978  22.347  30.127  19.568 -0.0371 -0.0394 -0.1548
96067W        W38979  20.814  30.453  16.203 -0.0403  0.0895  0.2232
96068W        W38980  20.868  29.749  20.386 -0.0197 -0.0988  0.0478
96069W        W38981  19.362  30.447  17.919  0.1523 -0.1392 -0.1021
96070W        W38982  21.245  30.802  18.607 -0.0451 -0.2759 -0.0513
96071W        W38983  19.047  30.512  20.521 -0.0476 -0.1488  0.0498
96072W        W38984  20.469  32.113  19.391  0.0912 -0.0386  0.3645
96073W        W38985  16.952  29.822  19.662 -0.0085 -0.0208  0.0196
96074W        W38986  20.823  30.882  17.537 -0.2333 -0.1915 -0.0635
96075W        W38987  19.254  29.430  16.433  0.1145  0.1161 -0.3207
96076W        W38988  19.003  30.396  18.296  0.0710  0.0483  0.2526
96077W        W38989  20.298  30.635  18.824 -0.2296  0.2553  0.1428
96078W        W38990  19.477  32.081  19.254 -0.1314  0.2626  0.3338
96079W        W38991  22.301  30.175  18.588  0.3376  0.2673 -0.0279
96080W        W38992  18.510  32.280  18.326 -0.3796 -0.0652 -0.0667
96081W        W38993  20.946  30.668  18.095  0.4719 -0.1855  0.0744
96082W        W38994  18.892  31.110  16.736 -0.1172 -0.1615  0.1616
96083W        W38995  18.549  32.368  17.097 -0.0301 -0.1737 -0.0222
96084W        W38996  18.173  30.085  18.542 -0.3090 -0.3544  0.2701
96085W        W38997  21.017  31.857  19.216  0.0620  0.0689  0.0756
96086W        W38998  19.795  30.140  18.271  0.2742 -0.3986  0.0391
96087W        W38999  20.716  29.874  19.919 -0.4778 -0.0886 -0.0635
96088W        W39000  20.262  29.401  19.257  0.1379 -0.0179 -0.0901
96089W        W39001  20.025  28.547  18.831  0.1922  0.1294 -0.3335
96090W        W39002  17.965  29.495  20.562 -0.0322 -0.0787 -0.1202
96091W        W39003  20.827  33.037  19.525  0.2477 -0.0312  0.1977
96092W        W39004  21.647  31.278  16.126 -0.1648 -0.0110 -0.2523
96093W        W39005  22.699  30.524  18.797 -0.0819  0.1806 -0.0052
96094W        W39006  22.643  31.017  18.797 -0.1850  0.2663  0.4044
96095W        W39007  20.770  31.650  17.377  0.0308  0.2171 -0.0404
96096W        W39008  19.001  29.860  19.860  0.1107 -0.0576  0.0109
96097W        W39009  19.052  30.870  19.763  0.0977  0.0145 -0.0135
96098W        W39010  19.360  29.465  16.919  0.0224  0.1317  0.0067
96099W        W39011  21.531  29.179  19.732 -0.1487  0.0918 -0.0642
96100W        W39012  19.852  32.179  17.080 -0.4030  0.1479  0.3094
96101W        W39013  21.251  31.456  18.271  0.1619  0.1451 -0.0444
96102W        W39014  21.407  30.328  18.693  0.4547  0.1283  0.1336
96103W        W39015  18.114  30.175  18.041  0.0054  0.0872  0.0073
96104W        W39016  19.961  32.094  19.544 -0.3670  0.0687  0.0879
96105W        W39017  18.368  30.292  15.779 -0.1197  0.3596  0.0995
96106W        W39018  18.868  30.293  17.191 -0.1039  0.0821 -0.0421
96107W        W39019  20.591  32.227  18.850 -0.0254  0.1138  0.1490
96108W        W39020  22.053  32.547  20.849  0.0524 -0.0009  0.0338
96109W        W39021  19.784  29.324  17.188  0.0200 -0.1759  0.0292
96110W        W39022  21.335  30.325  19.606  0.3354  0.2658  0.0992
96111W        W39023  19.500  32.131  16.624 -0.1673  0.2820  0.0601
96112W        W39024  20.878  28.927  18.592  0.2622 -0.0118  0.0935
96113W        W39025  19.683  32.630  16.773  0.1458 -0.0755  0.2993
96114W        W39026  18.593  31.603  19.147  0.0610  0.1791 -0.0676
96115W        W39027  20.341  32.755  17.395 -0.1085  0.1786 -0.0529
96116W        W39028  19.834  30.283  19.385  0.0176 -0.0028  0.0397
96117W        W39029  20.902  30.348  19.252  0.2694  0.0445 -0.0981
96118W        W39030  19.194  29.957  18.156 -0.4091  0.0060  0.0089
96119W        W39031  21.483  31.281  19.802  0.0860 -0.0730  0.2309
96120W        W39032  20.296  32.579  19.190 -0.6344 -0.1243 -0.0172
96121W        W39033  17.505  29.639  17.748  0.2222  0.3668  0.3658
96122W        W39034  20.525  31.719  19.015  0.2326 -0.0682  0.2630
96123W        W39035  21.793  32.392  17.903  0.1468 -0.0804 -0.2759
96124W        W39036  19.837  32.450  18.068 -0.1565 -0.0885  0.1554
96125W        W39037  19.363  30.395  19.170 -0.1800 -0.2841 -0.3814
96126W        W39038  21.916  31.141  20.735 -0.3659 -0.2999  0.1078
96127W        W39039  19.343  30.242  18.628  0.0286 -0.0758 -0.0397
96128W        W39040  19.132  31.334  17.154 -0.1049  0.2478 -0.0376
96129W        W39041  21.565  31.527  17.129  0.3063 -0.0516 -0.0813
96130W        W39042  19.188  31.710  19.622  0.0324  0.1792 -0.3264
96131W        W39043  19.167  30.687  18.776 -0.0184  0.1048  0.3275
96132W        W39044  19.079  31.892  16.518  0.0190 -0.1038  0.1514
96133W        W39045  21.191  32.094  16.311 -0.0132  0.1718  0.0884
96134W        W39046  20.176  31.041  17.288  0.0888  0.1597 -0.0184
96135W        W39047  20.594  33.561  17.395  0.2246  0.1025  0.1175
96136W        W39048  19.477  30.543  16.473  0.0462  0.2041  0.1405
96137W        W39049  21.279  33.026  17.930  0.1430  0.0984  0.1025
96138W        W39050  19.255  32.668  15.937  0.0789  0.0884 -0.4973
96139W        W39051  21.010  31.441  16.940  0.1459  0.0084 -0.4496
96140W        W39052  19.926  32.849  16.066  0.0682 -0.2217  0.3178
96141W        W39053  19.669  32.481  18.631 -0.3484  0.1820 -0.2583
96142W        W39054  21.857  29.282  15.947  0.1848 -0.1385  0.0922
96143W        W39055  22.735  31.755  18.176  0.1436 -0.3420 -0.0192
96144W        W39056  22.611  29.986  18.222 -0.1361 -0.0128 -0.1446
96145W        W39057  21.347  32.227  20.054 -0.1264 -0.0986  0.1729
96146W        W39058  19.363  30.948  20.823 -0.0613  0.1707  0.3116
96147W        W39059  20.263  28.966  17.211  0.0734 -0.0790  0.0803
96148W        W39060  18.728  30.248  20.214 -0.0957 -0.0567  0.5140
96149W        W39061  21.155  30.110  20.053  0.4682  0.5110  0.0127
96150W        W39062  19.191  31.697  19.038 -0.2363  0.1814  0.0998
96151W        W39063  20.588  32.257  16.650  0.1360  0.1202 -0.0220
96152W        W39064  19.396  29.586  17.771 -0.1781 -0.1697  0.0928
96153W        W39065  19.343  32.675  17.100  0.1086 -0.0563  0.0938
96154W        W39066  21.637  29.536  20.066 -0.0847 -0.1438 -0.0129
96155W        W39067  18.850  30.771  16.288  0.0107  0.0618  0.0637
96156W        W39068  20.924  28.681  19.057  0.2439  0.7444  0.1652
96157W        W39069  19.963  33.695  16.738  0.0644  0.3702  0.2209
96158W        W39070  19.349  32.329  17.913 -0.0798  0.0264 -0.6564
96159W        W39071  20.202  32.437  18.594  0.0689 -0.1873  0.0872
96160W        W39072  18.386  30.329  17.080  0.0359  0.0405 -0.2300
96161W        W39073  22.964  31.039  17.627 -0.1046 -0.1099 -0.2892
96162W        W39074  18.761  30.128  17.822  0.0323 -0.1163 -0.1814
96163W        W39075  23.101  30.311  18.982 -0.2780  0.1930  0.1572
96164W        W39076  18.675  31.137  17.195  0.1858 -0.1832 -0.2048
96165W        W39077  22.064  31.526  17.530  0.1128  0.0852 -0.1300
96166W        W39078  19.111  32.226  18.690 -0.3140  0.0571 -0.0254
96167W        W39079  18.350  29.371  19.801  0.0661 -0.1217  0.1675
96168W        W39080  20.076  31.218  16.031  0.0021  0.1512 -0.2332
96169W        W39081  21.077  31.572  19.796 -0.1210  0.1253  0.0764
96170W        W39082  21.442  29.966  16.662  0.0898 -0.1416  0.2106
96171W        W39083  19.751  31.729  18.977 -0.0763 -0.1226  0.2125
96172W        W39084  18.512  29.837  16.825  0.3147 -0.0275 -0.2525
96173W        W39085  20.482  30.284  17.031  0.1051  0.0605 -0.1197
96174W        W39086  19.496  31.373  17.493 -0.2874  0.1984 -0.0701
96175W        W39087  19.874  29.376  21.008 -0.0189 -0.3471  0.1435
96176W        W39088  20.451  33.387  19.478  0.4426  0.0215 -0.3612
96177W        W39089  19.068  28.301  17.282  0.1253 -0.1108 -0.2514
96178W        W39090  21.356  31.784  16.698 -0.3318  0.1740 -0.0000
96179W        W39091  22.054  31.201  18.689 -0.3465 -0.1697  0.3327
96180W        W39092  20.092  32.358  16.066  0.1002  0.0753  0.4774
96181W        W39093  21.130  31.945  17.089  0.1487  0.1474 -0.0451
96182W        W39094  20.757  33.903  19.908  0.0291  0.0160 -0.2416
96183W        W39095  18.150  29.981  20.744 -0.2354 -0.2655  0.1475
96184W        W39096  20.144  31.682  19.810 -0.0611 -0.2443 -0.0691
96185W        W39097  20.312  32.259  17.612 -0.0528  0.4058 -0.0694
96186W        W39098  20.577  31.482  18.606 -0.2038 -0.2868 -0.1873
96187W        W39099  18.555  30.588  18.769  0.0289 -0.0897  0.0751
96188W        W39100  18.215  31.496  16.613  0.0535  0.1276 -0.1861
96189W        W39101  22.004  31.125  19.276  0.3163  0.1334 -0.2066
96190W        W39102  22.087  29.243  19.144  0.0359  0.0824  0.2786
96191W        W39103  20.293  30.915  15.707  0.2479 -0.5473 -0.0377
96192W        W39104  22.043  29.565  18.689  0.2645 -0.0949  0.2274
96193W        W39105  20.157  32.796  16.872 -0.1075 -0.1091  0.0170
96194W        W39106  19.317  32.766  19.495  0.4565 -0.2118  0.1065
96195W        W39107  19.557  30.122  16.852  0.0694  0.5532 -0.1504
96196W        W39108  19.877  31.693  20.900  0.1369  0.4163  0.1727
96197W        W39109  20.783  30.752  18.837 -0.0325 -0.2186 -0.1337
96198W        W39110  20.168  31.766  15.911 -0.0683  0.1432  0.1115
96199W        W39111  21.766  32.941  17.132 -0.0890 -0.1745 -0.1182
96200W        W39112  20.678  29.348  16.949  0.1577 -0.0870  0.1480
96201W        W39113  22.181  31.263  16.500 -0.2230  0.1308  0.1993
96202W        W39114  19.510  29.797  17.306 -0.0418 -0.0009  0.0318
96203W        W39115  21.644  29.787  18.390  0.0779  0.0561 -0.0532
96204W        W39116  21.390  30.535  17.074  0.3597 -0.0853 -0.2584
96205W        W39117  18.920  30.332  19.687  0.0083 -0.1250 -0.1376
96206W        W39118  18.760  29.369  16.881 -0.1954  0.2205 -0.0137
96207W        W39119  19.130  30.454  16.789  0.0190 -0.0404 -0.0026
96208W        W39120  18.684  31.738  18.058  0.3163 -0.1942 -0.0165
96209W        W39121  20.369  30.206  19.757 -0.0359  0.1619  0.0983
96210W        W39122  19.653  29.217  19.191  0.2213 -0.0866  0.0876
96211W        W39123  17.546  30.422  17.979 -0.2311  0.1005 -0.0622
96212W        W39124  17.829  30.290  17.140 -0.1521 -0.0846 -0.0220
96213W        W39125  21.556  32.542  16.917 -0.1046 -0.0222 -0.1060
96214W        W39126  17.916  28.759  18.232 -0.2428 -0.0078  0.1226
96215W        W39127  18.529  30.391  18.321 -0.0263 -0.0163 -0.2419
96216W        W39128  20.792  32.189  17.392  0.2261 -0.1581 -0.1375
96217W        W39129  21.018  32.821  18.326  0.2727  0.0374  0.1883
96218W        W39130  18.159  29.544  16.801  0.0383 -0.1726  0.1957
96219W        W39131  21.152  31.588  21.317 -0.3788 -0.2349 -0.4052
96220W        W39132  18.715  31.141  16.036 -0.1723 -0.0659  0.2874
96221W        W39133  20.001  30.879  20.397 -0.1177  0.2288 -0.2017
96222W        W39134  21.020  30.685  20.255  0.1730  0.2939  0.0398
96223W        W39135  19.688  29.120  16.712  0.0795  0.2769 -0.0819
96224W        W39136  19.787  31.563  18.463  0.0845  0.2277 -0.1335
96225W        W39137  21.467  32.576  18.218 -0.0376 -0.0662  0.2688
96226W        W39138  20.448  32.003  16.217  0.0142  0.4895 -0.0532
96227W        W39139  19.577  32.147  18.289  0.1787  0.3670  0.0510
96228W        W39140  19.802  31.139  18.164 -0.1396  0.3609  0.0445
96229W        W39141  19.240  29.505  18.994  0.0154  0.2283  0.0914
96230W        W39142  20.088  31.264  16.602 -0.2305 -0.5320  0.0084
96231W        W39143  19.032  31.321  19.356 -0.1434  0.0912  0.3117
96232W        W39144  22.438  32.395  17.288 -0.1090 -0.1418 -0.2203
96233W        W39145  22.468  29.696  18.720  0.1170  0.3702  0.0982
96234W        W39146  22.437  31.400  18.375  0.4805  0.0226  0.2367
96235W        W39147  19.380  30.158  19.613 -0.0279  0.2132 -0.1147
96236W        W39148  18.828  30.912  18.446  0.0943 -0.0564  0.0326
96237W        W39149  23.846  32.009  17.748 -0.0307  0.3328 -0.0286
96238W        W39150  18.504  29.416  18.525 -0.1759 -0.1592  0.2496
96239W        W39151  20.181  29.331  16.744  0.1529 -0.0458 -0.0310
96240W        W39152  21.612  32.388  18.777  0.1323  0.2065 -0.2965
96241W        W39153  17.689  31.460  19.172 -0.3269  0.1482  0.2318
96242W        W39154  18.664  29.874  17.367 -0.3145 -0.0005  0.0223
96243W        W39155  19.917  29.983  19.790  0.1362 -0.1727  0.0465
96244W        W39156  20.033  29.975  18.986 -0.0596  0.0913  0.2242
96245W        W39157  20.948  31.953  20.144  0.3434 -0.3803  0.0659
96246W        W39158  19.943  31.463  17.763 -0.2236  0.0550  0.0351
96247W        W39159  22.470  30.555  16.426  0.1004  0.0254  0.0520
96248W        W39160  20.694  32.827  17.920 -0.2656 -0.0538 -0.0210
96249W        W39161  21.232  33.659  20.181 -0.1057 -0.1790  0.1401
96250W        W39162  20.088  33.779  18.040  0.0746 -0.0996 -0.1217
96251W        W39163  21.216  31.346  18.797  0.0179 -0.2943 -0.0578
96252W        W39164  19.995  29.057  18.121  0.0353  0.1789  0.0800
96253W        W39165  17.594  30.633  17.413 -0.2006  0.2459 -0.0770
96254W        W39166  20.156  31.477  18.836 -0.1900  0.3931 -0.3207
96255W        W39167  20.883  30.453  19.803  0.1542  0.0776  0.2623
96256W        W39168  20.344  31.060  19.138 -0.1499 -0.1347  0.1086
96257W        W39169  20.499  30.901  17.911  0.1046  0.0665  0.1551
96258W        W39170  19.625  32.903  18.995 -0.0101  0.2310 -0.1184
96259W        W39171  19.499  31.842  17.760 -0.2413 -0.0323 -0.1938
96260W        W39172  19.366  31.613  22.537 -0.2277 -0.1337  0.0158
96261W        W39173  19.000  30.383  20.974 -0.0567 -0.0431 -0.1947
96262W        W39174  21.577  29.413  20.792 -0.0675 -0.1706 -0.1560
96263W        W39175  20.754  32.600  19.207 -0.0187  0.0828 -0.1960
96264W        W39176  17.462  29.906  21.461  0.0253  0.0214  0.0677
96265W        W39177  21.039  30.847  20.937 -0.2557 -0.1001  0.1717
96266W        W39178  18.256  29.480  24.032  0.2041  0.0810  0.0385
96267W        W39179  19.912  30.330  24.244  0.3433 -0.2772  0.1913
96268W        W39180  22.722  32.056  23.060  0.0738  0.1406 -0.0009
96269W        W39181  19.927  31.696  20.358  0.1804  0.4448 -0.0565
96270W        W39182  19.938  30.854  23.637 -0.0075  0.0957 -0.1383
96271W        W39183  18.655  31.319  22.278  0.0773  0.1139  0.0480
96272W        W39184  19.650  29.323  19.713  0.1567  0.1677 -0.0239
96273W        W39185  18.189  30.341  21.562  0.3990  0.1807 -0.1883
96274W        W39186  20.723  30.236  22.339  0.2148  0.2405  0.2431
96275W        W39187  19.216  30.947  20.317  0.0355  0.1884 -0.1203
96276W        W39188  19.501  31.200  23.465 -0.0032  0.1362  0.3290
96277W        W39189  20.148  31.083  22.325 -0.0111 -0.3330  0.0674
96278W        W39190  20.720  32.585  22.156 -0.1067  0.2644  0.0915
96279W        W39191  20.372  30.821  22.983  0.2890  0.6415  0.0878
96280W        W39192  20.377  30.216  24.039 -0.2714  0.2941 -0.0349
96281W        W39193  19.926  31.042  21.442 -0.0807  0.0125 -0.2876
96282W        W39194  17.825  30.877  20.666  0.2594  0.0842 -0.1007
96283W        W39195  18.799  29.662  21.856 -0.0991  0.2668 -0.0789
96284W        W39196  18.605  29.775  22.305 -0.1052  0.0982  0.0035
96285W        W39197  20.519  29.042  21.442  0.2194  0.1009  0.1968
96286W        W39198  20.967  31.659  22.221 -0.1261  0.0688  0.0584
96287W        W39199  19.039  31.337  21.009 -0.0323 -0.2253  0.0939
96288W        W39200  20.421  31.562  22.280 -0.0150  0.1161  0.1488
96289W        W39201  20.901  29.703  23.289 -0.0428  0.2946  0.0627
96290W        W39202  19.548  31.864  22.046 -0.3238  0.0486  0.0830
96291W        W39203  18.812  31.944  21.739  0.2886 -0.0650 -0.0662
96292W        W39204  19.803  31.968  22.479 -0.0429  0.2740  0.2743
96293W        W39205  22.210  31.250  21.750  0.1616 -0.0169 -0.0956
96294W        W39206  21.027  30.810  22.762  0.1203 -0.0887  0.1157
96295W        W39207  19.521  31.921  23.357  0.3439  0.0102 -0.0384
96296W        W39208  18.488  31.936  20.586  0.2761 -0.0450  0.0161
96297W        W39209  19.118  32.824  24.513 -0.4491  0.1066 -0.0012
96298W        W39210  19.117  31.225  23.822  0.1109  0.3168 -0.0099
96299W        W39211  20.397  31.584  24.369  0.1280  0.3245  0.2846
96300W        W39212  19.291  31.805  21.110  0.1728 -0.1884  0.0925
96301W        W39213  20.211  32.713  21.947 -0.1186 -0.0847  0.2587
96302W        W39214  18.858  31.432  20.518 -0.0438 -0.0502  0.0952
96303W        W39215  18.302  31.609  23.858  0.0151  0.0889  0.1186
96304W        W39216  18.749  30.791  21.754  0.2457  0.1550 -0.0280
96305W        W39217  20.723  31.201  23.637 -0.1055  0.1147  0.0078
96306W        W39218  19.652  31.650  19.511  0.0143 -0.3114 -0.0550
96307W        W39219  20.499  30.766  19.836  0.1650 -0.1681  0.1744
96308W        W39220  20.332  29.502  21.697  0.0230 -0.0328  0.0682
96309W        W39221  20.716  30.436  20.715 -0.0659 -0.0871  0.0040
96310W        W39222  18.526  29.510  21.311  0.0288  0.4007  0.0112
96311W        W39223  18.465  32.814  21.081  0.1240  0.0571 -0.1473
96312W        W39224  19.980  29.808  21.900  0.0527  0.2835  0.1863
96313W        W39225  21.147  31.343  23.485  0.2188  0.0383  0.0335
96314W        W39226  20.396  29.945  21.490 -0.1196  0.1269  0.0688
96315W        W39227  19.977  29.963  22.420 -0.0225  0.0049 -0.0618
96316W        W39228  18.197  33.472  22.069 -0.0507 -0.3377 -0.2867
96317W        W39229  18.345  31.413  20.171  0.1115  0.0317  0.3310
96318W        W39230  21.814  32.448  20.352 -0.1099  0.0080  0.0438
96319W        W39231  22.032  32.347  21.677  0.0470 -0.0306  0.0865
96320W        W39232  20.249  31.283  21.794 -0.1818 -0.1718  0.2442
96321W        W39233  17.996  30.965  20.197  0.1469  0.1330  0.0691
96322W        W39234  16.834  33.061  23.329  0.1352  0.0781  0.0354
96323W        W39235  16.532  31.372  23.250  0.1116 -0.0289  0.0171
96324W        W39236  19.525  29.705  18.573 -0.4476  0.1140 -0.1287
96325W        W39237  21.703  30.956  24.019  0.2020 -0.3152  0.2516
96326W        W39238  17.339  31.600  24.555 -0.0956  0.0211 -0.1206
96327W        W39239  20.764  31.154  20.089  0.1210 -0.4015 -0.2446
96328W        W39240  18.477  31.749  23.066 -0.0185 -0.0693  0.1391
96329W        W39241  20.733  31.171  23.084 -0.5364 -0.3166 -0.0992
96330W        W39242  21.483  29.912  20.954 -0.4351  0.3625 -0.2707
96331W        W39243  20.737  28.665  20.243  0.2619  0.1521  0.0019
96332W        W39244  19.833  31.470  22.407 -0.3159  0.1393  0.0152
96333W        W39245  19.069  29.995  21.310  0.1843  0.3497  0.0064
96334W        W39246  18.788  31.387  21.834 -0.1205 -0.1475 -0.2686
96335W        W39247  21.006  32.165  24.691  0.1874  0.0069 -0.0384
96336W        W39248  20.134  31.722  21.496 -0.1733 -0.1566 -0.0648
96337W        W39249  17.922  30.077  21.295  0.2436  0.3325  0.2853
96338W        W39250  18.202  29.573  25.121 -0.1605 -0.0440  0.3155
96339W        W39251  18.033  32.711  24.969 -0.4289 -0.1429  0.1002
96340W        W39252  18.326   0.054  21.479  0.0714 -0.1558 -0.0312
96341W        W39253  17.735  31.659  20.862  0.1039  0.2619  0.1628
96342W        W39254  18.057  30.514  18.914  0.0219  0.1604  0.0297
96343W        W39255  19.940  30.328  23.756 -0.2038 -0.1871  0.0582
96344W        W39256  19.072  31.156  22.586  0.3776  0.2545 -0.0295
96345W        W39257  23.119  30.167  21.108 -0.0065  0.1445  0.1948
96346W        W39258  18.589  29.921  24.037 -0.3550  0.1144  0.0236
96347W        W39259  21.137  31.334  20.849 -0.1361 -0.0749  0.1433
96348W        W39260  18.520  30.361  20.628  0.0901 -0.0948  0.1107
96349W        W39261  22.396  32.667  20.361  0.3084  0.5350  0.1226
96350W        W39262  21.818  31.112  20.206 -0.3231  0.2976  0.1983
96351W        W39263  21.650  31.737  20.911  0.3555  0.3612 -0.1623
96352W        W39264  18.399  30.565  22.819  0.0581 -0.1295  0.0550
96353W        W39265  18.666  30.187  21.497  0.3529 -0.1946  0.2182
96354W        W39266  18.929  30.343  24.020 -0.1199  0.0112 -0.1694
96355W        W39267  18.646  30.929  22.566 -0.0888 -0.2573  0.2770
96356W        W39268  20.291  31.692  23.753 -0.2171  0.2052 -0.1242
96357W        W39269  18.858  29.302  20.918 -0.0583 -0.1024 -0.1462
96358W        W39270  21.087  29.890  22.097  0.0651  0.1444 -0.0998
96359W        W39271  19.518  32.091  21.567  0.4085  0.0596 -0.0874
96360W        W39272  18.849  30.927  20.728 -0.1566 -0.1609  0.3501
96361W        W39273  22.436  29.759  23.462 -0.2126 -0.0475  0.0871
96362W        W39274  20.615  32.008  22.351 -0.2064  0.0123 -0.0659
96363W        W39275  21.693  31.296  21.673  0.2659 -0.4131 -0.2520
96364W        W39276  21.816  32.281  22.380  0.2780  0.0174  0.0345
96365W        W39277  18.891  30.526  22.562 -0.0638  0.0429 -0.1417
96366W        W39278  18.607  29.957  21.024  0.1018 -0.1162  0.0635
96367W        W39279  18.522  32.087  21.345  0.0332 -0.1743 -0.1116
96368W        W39280  20.716  31.699  22.787 -0.1005 -0.0850 -0.3364
96369W        W39281  19.157  29.596  22.228  0.2668  0.1482  0.2343
96370W        W39282  21.205  32.284  21.411 -0.2058 -0.0212  0.0015
96371W        W39283  19.055  31.786  22.184  0.0960  0.0527 -0.0718
96372W        W39284  18.173  30.871  23.513 -0.1276  0.2730 -0.0543
96373W        W39285  22.056  29.926  22.441 -0.0335  0.0650 -0.0959
96374W        W39286  21.935  30.627  23.417 -0.1043 -0.2911 -0.4920
96375W        W39287  20.099  30.461  22.780  0.1409  0.1894 -0.0792
96376W        W39288  17.995  28.563  21.987 -0.1004 -0.1749  0.1470
96377W        W39289  21.764  30.487  22.565  0.0197 -0.0706 -0.0688
96378W        W39290  19.250  31.576  20.160  0.0264 -0.1032  0.0122
96379W        W39291  17.958  31.357  19.868  0.0547  0.0453  0.1197
96380W        W39292  19.334  31.241  19.761 -0.1648 -0.1817 -0.0203
96381W        W39293  20.854  29.919  22.822 -0.0575 -0.2681 -0.1116
96382W        W39294  17.107  30.529  24.506  0.1226 -0.3964  0.2130
96383W        W39295  21.307  29.788  23.660  0.1657  0.1107 -0.0288
96384W        W39296  18.111  31.295  19.350 -0.2574  0.1003  0.0922
96385W        W39297  18.697  30.837  24.172  0.2354 -0.0622  0.1267
96386W        W39298  19.852  30.506  22.340  0.0047  0.1753  0.1811
96387W        W39299  22.785  28.555  21.622  0.1285  0.2114  0.0204
96388W        W39300  18.302  31.068  24.393  0.1904 -0.1167 -0.2328
96389W        W39301  20.677  31.265  21.983 -0.0743 -0.0850 -0.1317
96390W        W39302  20.076  30.469  20.063  0.3118  0.1899  0.1079
96391W        W39303  20.753  30.547  21.264  0.0620 -0.3529 -0.1345
96392W        W39304  16.860  31.574  24.349 -0.0382  0.1972 -0.4907
96393W        W39305  21.055  31.043  21.401 -0.0118 -0.1855 -0.2900
96394W        W39306  19.235  31.401  22.968  0.1184 -0.1539  0.2162
96395W        W39307  20.329  30.701  20.933  0.1587 -0.2041  0.1312
96396W        W39308  21.587  32.235  20.892  0.0095 -0.3140  0.0294
96397W        W39309  16.255  31.400  24.305  0.1110  0.0484 -0.1074
96398W        W39310  19.149  32.046  23.648 -0.1253  0.2586 -0.1404
96399W        W39311  21.055  32.051  22.580  0.0874  0.1648  0.1265
96400W        W39312  19.357  31.619  23.773  0.0189  0.1114 -0.2715
96401W        W39313  19.643  29.991  21.630  0.1330 -0.0483  0.0643
96402W        W39314  20.736  30.056  21.105  0.0682 -0.0489 -0.0718
96403W        W39315  18.765  33.016  20.301 -0.0298 -0.2934 -0.1227
96404W        W39316  20.928  28.501  21.645 -0.1459  0.0666 -0.0426
96405W        W39317  20.530  28.758  20.785  0.4584 -0.4054  0.3759
96406W        W39318  20.238  28.679  23.822 -0.6460 -0.1416 -0.2977
96407W        W39319  22.188  29.714  23.027 -0.2722  0.2136 -0.0937
96408W        W39320  21.521  30.375  21.860 -0.2527  0.2462  0.3619
96409W        W39321  21.891  31.376  22.939 -0.0574 -0.1318 -0.1555
96410W        W39322  19.007  29.345  19.933  0.0213  0.1664  0.0725
96411W        W39323  20.139  29.578  24.793  0.0313 -0.2755  0.2432
96412W        W39324  18.362  31.049  21.977 -0.2751  0.0436  0.4162
96413W        W39325  19.984  33.178  21.962  0.1741 -0.1882  0.2272
96414W        W39326  21.189  31.539  23.044  0.0315  0.0948  0.0058
96415W        W39327  19.976  32.287  21.590  0.0238  0.0213  0.3933
96416W        W39328  20.388  30.039  22.683  0.2800 -0.2423  0.0572
96417W        W39329  19.831  28.589  19.339 -0.1247 -0.2912 -0.1324
96418W        W39330  19.657  31.236  20.380 -0.0365 -0.0517  0.0449
96419W        W39331  17.930  30.738  19.734 -0.2424  0.0301  0.0300
96420W        W39332  19.865  29.967  20.901  0.0410  0.1689  0.1712
96421W        W39333  18.897  32.277  22.735  0.1499 -0.0934 -0.1792
96422W        W39334  18.316  30.815  20.661  0.1898 -0.2180 -0.1124
96423W        W39335  21.188  31.827  23.471  0.0913  0.3025 -0.2550
96424W        W39336  18.782  32.449  21.685 -0.0224 -0.0096  0.1372
96425W        W39337  19.915  29.543  23.672 -0.1667  0.0175 -0.0656
96426W        W39338  18.100  33.050  22.315  0.1280  0.0800 -0.0332
96427W        W39339  20.526  30.820  20.442 -0.1102 -0.1675 -0.0498
96428W        W39340  17.098  29.517  21.095  0.1021 -0.2221  0.0255
96429W        W39341  20.449  29.548  20.189  0.1627  0.0197  0.1100
96430W        W39342  21.640  31.996  20.434 -0.1461  0.1555 -0.2631
96431W        W39343  18.235  30.110  22.185 -0.3129 -0.0810 -0.0996
96432W        W39344  20.418  28.938  22.471 -0.0896  0.1134  0.3038
96433W        W39345  18.461  33.945  21.930  0.0553  0.2116 -0.1975
96434W        W39346  20.252  29.946  23.612 -0.0245 -0.0065  0.0478
96435W        W39347  19.337  30.457  20.012 -0.0187 -0.1174  0.0893
96436W        W39348  21.154  31.950  23.993 -0.1447 -0.0243  0.0275
96437W        W39349  18.736  30.759  24.697  0.1581  0.0331 -0.3669
96438W        W39350  18.680  29.762  20.471 -0.4329 -0.2111  0.2118
96439W        W39351  21.016  29.210  23.097 -0.0474  0.0413  0.1282
96440W        W39352  19.146  31.102  21.659  0.5692  0.0454 -0.0332
96441W        W39353  18.444  31.199  21.389 -0.0001 -0.1029  0.0428
96442W        W39354  19.780  31.599  22.990  0.0462  0.0871  0.3759
96443W        W39355  18.962  29.960  19.239 -0.1170 -0.1637  0.1015
96444W        W39356  19.025  32.152  21.347  0.0424 -0.2230 -0.1491
96445W        W39357  17.749  29.765  23.877  0.2190 -0.1317 -0.1320
96446W        W39358  21.759  31.118  23.385 -0.1771  0.0424 -0.0953
96447W        W39359  19.030  30.950  22.140 -0.0169 -0.1566  0.0290
96448W        W39360  19.108  28.827  21.030  0.0070  0.4299  0.0250
96449W        W39361  18.952  31.689  24.037  0.0938 -0.0466  0.0569
96450W        W39362  19.523  31.094  22.723  0.0816  0.3882 -0.0289
96451W        W39363  20.349  30.456  21.544  0.0272 -0.0021  0.3164
96452W        W39364  18.750  32.202  22.223  0.1699 -0.0030  0.1359
96453W        W39365  20.258  28.042  21.869  0.0480  0.0150 -0.0225
96454W        W39366  20.682  31.708  21.074  0.1127 -0.0439 -0.2766
96455W        W39367  20.854  30.729  23.251 -0.0481  0.1738  0.0056
96456W        W39368  19.091  29.421  20.468  0.0515 -0.1153 -0.0281
96457W        W39369  17.533  31.040  21.662 -0.3775 -0.0409  0.0000
96458W        W39370  18.235  31.800  21.045 -0.0156 -0.0431  0.1153
96459W        W39371  20.414  30.946  21.439 -0.0412 -0.0350  0.2497
96460W        W39372  18.217  33.047  21.788  0.0740 -0.0472 -0.0571
96461W        W39373  19.084  32.049  20.488  0.3491 -0.1131  0.0551
96462W        W39374  16.450  33.094  23.719 -0.1530 -0.1538 -0.2869
96463W        W39375  20.562  30.305  20.249 -0.2956  0.0176 -0.0460
96464W        W39376  19.871  31.016  20.868 -0.1554  0.0943  0.1659
96465W        W39377  20.325  29.617  21.140 -0.0685  0.1404 -0.3902
96466W        W39378  20.567  28.917  22.983 -0.1192  0.1742  0.1211
96467W        W39379  20.656  31.616  19.543 -0.1480 -0.0467 -0.1866
96468W        W39380  19.041  30.021  24.774  0.0049  0.0190 -0.2346
96469W        W39381  19.846  29.106  24.042  0.2651  0.3184  0.0107
96470W        W39382  22.408  31.564  19.912 -0.0008  0.0034 -0.0163
96471W        W39383  17.608  31.475  24.055  0.1078 -0.0745 -0.1237
96472W        W39384  20.443  32.685  24.000 -0.1069 -0.2654 -0.1145
96473W        W39385  18.320  31.213  26.242 -0.0066 -0.0059  0.2629
96474W        W39386  19.612  30.530  21.913  0.0493 -0.0766  0.1186
96475W        W39387  19.813  28.409  19.956  0.0384  0.2382 -0.0032
96476W        W39388  19.603  31.198  23.977 -0.2378 -0.0882 -0.0682
96477W        W39389  21.631  32.259  21.955 -0.1883 -0.2579  0.1723
96478W        W39390  19.556  30.602  20.427  0.2010 -0.1077  0.0992
96479W        W39391  21.574  29.874  21.974  0.1059  0.1273 -0.2344
96480W        W39392  18.482  31.788  22.136 -0.0189 -0.0416  0.2666
96481W        W39393  20.322  30.218  21.957  0.1682 -0.1300  0.0866
96482W        W39394  19.495  30.722  19.526  0.2912 -0.0200 -0.0040
96483W        W39395  19.511  30.862  22.281 -0.0758  0.0679  0.0944
96484W        W39396  19.184  30.220  23.517  0.0076  0.1897 -0.0981
96485W        W39397  20.451  30.701  22.303  0.0622  0.1355  0.0585
96486W        W39398  19.784  31.991  23.801  0.1673  0.3101 -0.0106
96487W        W39399  19.433  30.596  22.768  0.1907  0.2012 -0.1129
96488W        W39400  20.221  30.725  24.181 -0.0209 -0.0936 -0.0253
96489W        W39401  20.194  29.608  23.190  0.0557  0.0806  0.2673
96490W        W39402  18.204  29.988  23.650  0.1054  0.0466 -0.1416
96491W        W39403  20.516  33.562  21.925  0.0044  0.1920 -0.1380
96492W        W39404  20.467  30.036  20.695  0.1328 -0.0925  0.2289
96493W        W39405  21.421  30.549  23.108 -0.1702 -0.0087  0.2060
96494W        W39406  20.141  30.303  21.140 -0.0645 -0.3509  0.1474
96495W        W39407  20.110  29.681  20.604 -0.0334  0.3324 -0.1902
96496W        W39408  18.110  29.614  22.218  0.2007 -0.2268 -0.5715
96497W        W39409  20.742  30.401  25.022  0.4091  0.0627 -0.1336
96498W        W39410  19.142  30.486  21.504 -0.0736  0.2634 -0.1019
96499W        W39411  20.277  27.953  23.832 -0.5023 -0.2777  0.2044
96500W        W39412  20.890  32.476  20.132  0.3662  0.0220 -0.0902
96501W        W39413  21.030  30.972  22.138  0.2039  0.2834  0.1158
96502W        W39414  20.821  30.203  21.789  0.2438  0.3669  0.0470
96503W        W39415  18.379  29.883  21.750 -0.2515 -0.1523  0.1243
96504W        W39416  17.523  32.753  22.209 -0.1901 -0.1792  0.1230
96505W        W39417  20.168  30.394  20.541  0.1276 -0.1823  0.0692
96506W        W39418  19.675  31.550  21.702 -0.1114  0.1727  0.0437
96507W        W39419  20.548  32.085  23.090 -0.1558 -0.0602 -0.1113
96508W        W39420  21.149  31.199  25.042  0.1140 -0.0702 -0.2678
96509W        W39421  20.416  28.050  20.120 -0.1769 -0.1949  0.0957
96510W        W39422  22.137  29.816  23.879 -0.1188 -0.2258 -0.0265
96511W        W39423  18.724  31.610  21.332  0.0170 -0.0094  0.0969
96512W        W39424  21.012  28.691  20.682 -0.0223 -0.0399  0.1020
96513W        W39425  17.938  31.852  21.890  0.2173  0.1840 -0.3932
96514W        W39426  17.556  31.884  23.117  0.0055  0.2049  0.1693
96515W        W39427  18.164  31.028  22.531  0.0929 -0.0953  0.3690
96516W        W39428  19.544  30.121  22.618  0.3842 -0.1101  0.0697
96517W        W39429  22.455  30.575  23.528 -0.1056 -0.2203  0.0539
96518W        W39430  20.210  31.302  20.588 -0.2655 -0.1086  0.0880
96519W        W39431  22.518  30.223  23.211  0.0093 -0.3134  0.0041
96520W        W39432  19.376  32.061  24.114 -0.1091  0.3920 -0.3010
96521W        W39433  19.625  30.411  23.250  0.1093  0.1240 -0.0078
96522W        W39434  20.266  31.584  23.126  0.3160  0.0797 -0.0102
96523W        W39435  20.599  31.127  22.469  0.0798  0.4046 -0.0952
96524W        W39436  18.322  31.581  22.630  0.1513  0.0011 -0.0185
96525W        W39437  17.663  30.720  24.835 -0.1215 -0.4717  0.2430
96526W        W39438  20.363  31.021  24.636  0.0505 -0.1414 -0.0940
96527W        W39439  21.144  30.155  23.294 -0.2723  0.2340 -0.2130
96528W        W39440  19.279  28.935  20.524  0.0280  0.2975  0.2688
96529W        W39441  18.732  30.788  20.176 -0.0437 -0.0471  0.0663
96530W        W39442  18.394  32.298  22.976 -0.2375 -0.1277  0.0349
96531W        W39443  17.922  30.650  23.013 -0.1407  0.2048 -0.0468
96532W        W39444  19.458  32.831  20.933 -0.1255 -0.0062  0.1378
96533W        W39445  20.685  32.171  20.490  0.2950  0.0083 -0.0622
96534W        W39446  20.081  31.927  22.046  0.0228 -0.3074  0.3093
96535W        W39447  19.596  33.068  22.627  0.0052  0.0020  0.1833
96536W        W39448  20.542  29.488  20.688  0.1307  0.0664 -0.2320
96537W        W39449  19.173  32.209  21.945  0.1036  0.0256 -0.0354
96538W        W39450  18.673  32.572  20.466  0.0100  0.4250  0.2674
96539W        W39451  20.727  33.734  22.489 -0.2402  0.1718 -0.0417
96540W        W39452  19.229  33.839  21.941 -0.1044 -0.0813 -0.2101
96541W        W39453  20.441  30.654  23.686  0.1251 -0.1763  0.1879
96542W        W39454  20.803  29.699  19.099 -0.3347 -0.0283  0.2078
96543W        W39455  23.139  31.810  21.350 -0.0381  0.2557  0.0720
96544W        W39456  21.431  30.915  21.852 -0.0402  0.0734  0.1038
96545W        W39457  20.553  31.892  24.802 -0.3651  0.0561  0.3210
96546W        W39458  19.437  32.041  22.849 -0.2849 -0.0369  0.0068
96547W        W39459  19.882  29.486  21.470 -0.1261 -0.2236  0.0726
96548W        W39460  18.984  30.910  21.244  0.1707 -0.1467 -0.1315
96549W        W39461  22.468  29.283  22.922 -0.2111 -0.0069 -0.0573
96550W        W39462  17.850  32.773  22.689 -0.0515  0.0579 -0.1095
96551W        W39463  20.744  32.793  20.534  0.0878 -0.0340  0.1597
96552W        W39464  17.552  30.908  19.988  0.0437  0.1271 -0.2396
96553W        W39465  19.823  31.155  21.936 -0.0362  0.2351  0.0227
96554W        W39466  21.232  30.365  22.637  0.1712 -0.1349 -0.1216
96555W        W39467  20.209  31.220  20.085  0.2484  0.1250  0.1546
96556W        W39468  19.884  30.527  21.507 -0.2388 -0.3275 -0.3347
96557W        W39469  19.886  32.097  21.112  0.2263 -0.0516 -0.1668
96558W        W39470  18.960  29.953  22.624 -0.0022  0.2903 -0.1871
96559W        W39471  21.073  31.316  22.583 -0.1319  0.0878  0.1915
96560W        W39472  17.848  29.269  21.977  0.1561  0.0033 -0.1944
96561W        W39473  22.358  30.217  22.114 -0.1852 -0.0393  0.4215
96562W        W39474  17.177  30.838  23.520  0.0132  0.2971  0.1068
96563W        W39475  20.856  29.437  22.256  0.0186  0.0463 -0.0506
96564W        W39476  19.464  31.607  20.612 -0.1882 -0.1353  0.1919
96565W        W39477  21.583  31.470  20.482  0.1409  0.3261 -0.1783
96566W        W39478  20.676  31.999  23.679 -0.1085  0.0153  0.1230
96567W        W39479  18.981  31.145  23.322 -0.1202  0.1855  0.3117
96568W        W39480  20.103  31.207  22.849  0.0840  0.0668  0.1108
96569W        W39481  22.254  31.093  23.300 -0.3286  0.1421  0.0876
96570W        W39482  21.084  31.459  20.323 -0.1589  0.3094 -0.1365
96571W        W39483  20.714  32.024  24.309 -0.0160  0.0135 -0.2119
96572W        W39484  17.721  28.889  21.630 -0.1723  0.0314  0.0186
96573W        W39485  19.759  29.126  21.889 -0.0222  0.0572 -0.0599
96574W        W39486  17.970  30.498  22.035 -0.0521 -0.0040 -0.3669
96575W        W39487  18.823  31.687  22.707  0.2578 -0.1681  0.0500
96576W        W39488  21.342  32.309  23.694 -0.2460 -0.0364  0.1740
96577W        W39489  18.817  29.176  21.661  0.0157 -0.3299  0.3184
96578W        W39490  20.938  32.179  21.019  0.1136 -0.0447 -0.1102
96579W        W39491  22.494  30.593  21.791 -0.0416 -0.0247 -0.1461
96580W        W39492  20.363  32.636  20.180 -0.1442 -0.0090 -0.1396
96581W        W39493  21.968  31.685  20.218 -0.0983  0.1078  0.0439
96582W        W39494  19.891  33.315  23.731  0.3419  0.1647  0.1389
96583W        W39495  17.147  31.379  20.880  0.0628  0.5348  0.0581
96584W        W39496  21.401  31.039  22.990  0.2966  0.0111  0.2817
96585W        W39497  21.875  31.823  21.674  0.4329 -0.2994 -0.2177
96586W        W39498  20.292  28.546  21.153  0.0281  0.1574 -0.1720
96587W        W39499  19.341  30.697  23.657 -0.2176  0.0567 -0.1182
96588W        W39500  18.964  32.855  20.846  0.0932  0.0842  0.0179
96589W        W39501  20.296  29.480  22.330 -0.0593  0.1765  0.2204
96590W        W39502  20.761  30.727  24.559  0.0990 -0.2412 -0.0202
96591W        W39503  20.580  32.546  19.678  0.0384  0.1480 -0.1536
96592W        W39504  21.465  29.305  24.066  0.0039 -0.0354 -0.2176
96593W        W39505  19.214  32.709  23.538 -0.0325  0.1634 -0.1682
96594W        W39506  18.255  32.230  23.857 -0.0868  0.1645  0.3245
96595W        W39507  18.351  31.429  20.706  0.0671  0.2109  0.2721
96596W        W39508  20.209  31.759  22.651  0.0271 -0.0624  0.5301
96597W        W39509  18.529  30.668  21.315  0.1051  0.1080  0.0826
96598W        W39510  20.365  31.820  20.587 -0.1387 -0.1902 -0.0990
96599W        W39511  21.655  32.508  21.335  0.0535 -0.3404 -0.1238
96600W        W39512  19.316  31.314  22.070  0.2230 -0.0693  0.0282
96601W        W39513  19.749  32.795  21.730 -0.0460 -0.2571 -0.1090
96602W        W39514  20.741  27.907  21.584  0.1882  0.1553  0.0200
96603W        W39515  22.343  29.271  22.026 -0.1269  0.0692 -0.2968
96604W        W39516  19.789  29.171  20.525  0.0798  0.2354 -0.2120
96605W        W39517  18.591  31.154  23.632  0.1662 -0.1251 -0.1273
96606W        W39518  16.496  30.898  20.434  0.1137 -0.0441  0.1257
96607W        W39519  18.285  30.537  20.127  0.2213 -0.0460 -0.3459
96608W        W39520  18.102  30.845  21.586  0.0101  0.0784 -0.0071
96609W        W39521  21.233  28.567  25.800  0.0639  0.0739 -0.1137
96610W        W39522  17.721  31.701  23.529 -0.0640  0.0322  0.0812
96611W        W39523  17.540  33.122  22.601 -0.0252 -0.1741  0.1090
96612W        W39524  19.684  28.724  20.287  0.0795 -0.1588 -0.3174
96613W        W39525  21.913  33.851  19.656 -0.1122 -0.1602  0.0625
96614W        W39526  19.762  30.868  23.106 -0.0726 -0.2111 -0.0462
96615W        W39527  19.099  29.448  21.328  0.1865  0.1229 -0.1262
96616W        W39528  20.548  29.786  22.031 -0.1602  0.0851  0.0210
96617W        W39529  19.667  32.384  21.997 -0.2499  0.0705  0.1490
96618W        W39530  19.483  30.262  21.264 -0.4590 -0.1286  0.0699
96619W        W39531  22.450  32.569  23.777 -0.0627  0.2508 -0.2054
96620W        W39532  18.751  31.902  19.674  0.2359 -0.1641  0.0601
96621W        W39533  18.643  30.788  23.228 -0.1095 -0.0464  0.0758
96622W        W39534  20.488  30.146  23.179  0.0677  0.1293  0.0901
96623W        W39535  19.407  30.141  20.750  0.2245 -0.0950  0.0079
96624W        W39536  20.648  30.764  21.849  0.1235 -0.1054 -0.2428
96625W        W39537  20.039  32.003  23.276 -0.1885 -0.1148 -0.3348
96626W        W39538  19.275  33.845  20.296 -0.3067 -0.2867  0.2882
96627W        W39539  18.639  31.285  22.960 -0.1155  0.3212  0.4799
96628W        W39540  17.888  31.882  23.971  0.0527 -0.0062 -0.1573
96629W        W39541  17.627  29.453  23.511 -0.2791  0.0158  0.0908
96630W        W39542  22.212  30.789  18.944  0.1983 -0.3723 -0.1917
96631W        W39543  19.669  31.173  26.498  0.2276  0.0465 -0.0308
96632W        W39544  21.126  31.403  21.803  0.2148  0.1866 -0.0956
96633W        W39545  22.596  29.316  22.486  0.0998 -0.0017  0.0161
96634W        W39546  20.272  31.427  21.124 -0.1996  0.3733  0.0013
96635W        W39547  19.167  29.619  24.512 -0.1712 -0.3418  0.2836
96636W        W39548  18.702  30.220  23.577  0.0797  0.2204  0.1498
96637W        W39549  20.676  30.424  22.842  0.0838  0.2904  0.1330
96638W        W39550  18.658  29.269  22.226  0.0341  0.2679 -0.0487
96639W        W39551  21.775  29.943  21.526  0.0645 -0.1472 -0.1961
96640W        W39552  21.441  32.497  22.794 -0.1642  0.1224  0.0764
96641W        W39553  18.310  31.682  21.592 -0.2385  0.0750  0.1889
96642W        W39554  19.469  30.823  21.305 -0.2745 -0.0646  0.2126
96643W        W39555  19.915  31.601  24.092  0.1054 -0.2282  0.2476
96644W        W39556  21.287  32.422  22.321 -0.1833  0.0027  0.1654
96645W        W39557  21.593  30.072  22.985  0.1811 -0.4179 -0.1668
96646W        W39558  19.766  30.516  20.897 -0.1386  0.1150  0.0890
96647W        W39559  21.733  31.505  18.877 -0.0316 -0.0243  0.2306
96648W        W39560  19.688  32.835  23.040  0.0271 -0.2177 -0.1138
96649W        W39561  19.517  32.347  23.628  0.0136  0.1529 -0.1262
96650W        W39562  20.559  32.983  22.729 -0.3465 -0.0652  0.3720
96651W        W39563  20.745  31.623  23.935 -0.2155  0.0110 -0.4371
96652W        W39564  18.678  30.230  22.012  0.1208 -0.2697 -0.0615
96653W        W39565  17.793  30.298  19.985 -0.2150  0.0020  0.2870
96654W        W39566  20.375  31.182  19.628 -0.1467 -0.1592  0.0541
96655W        W39567  21.605  30.207  23.476 -0.0221  0.0464 -0.0055
96656W        W39568  18.850  31.597  23.561  0.1597 -0.5817  0.1787
96657W        W39569  19.520  29.752  21.229  0.0968 -0.0718  0.1758
96658W        W39570  18.683  32.925  21.620  0.2601 -0.1204  0.0832
96659W        W39571  20.093  30.770  21.909 -0.0215  0.1739 -0.0549
96660W        W39572  18.970  31.269  25.762 -0.0069  0.3076 -0.0094
96661W        W39573  17.730  30.818  25.315  0.1125  0.1162 -0.1933
96662W        W39574  21.708  29.096  24.978  0.1245 -0.1464  0.2238
96663W        W39575  19.633  29.690  24.844  0.0521 -0.1641 -0.1634
96664W        W39576  18.122  28.691  25.806  0.1699  0.2731  0.3017
96665W        W39577  19.742  31.800  25.078 -0.1099  0.1883 -0.0941
96666W        W39578  19.165  29.029  26.016 -0.2769 -0.0428 -0.0583
96667W        W39579  20.390  31.448  26.278 -0.1596 -0.3667 -0.0797
96668W        W39580  20.097  31.449  26.717  0.0002  0.1622 -0.0995
96669W        W39581  19.463  31.507  24.798 -0.2734  0.2127  0.1958
96670W        W39582  19.432  30.895  25.410 -0.2067  0.3891  0.0608
96671W        W39583  18.606  31.978  26.834  0.4294 -0.0618 -0.2350
96672W        W39584  20.248  28.278  24.406  0.0688 -0.2617 -0.0771
96673W        W39585  18.019  28.647  25.288  0.3394 -0.0734 -0.0682
96674W        W39586  21.514  32.205  24.927 -0.6127  0.1803 -0.2511
96675W        W39587  17.570  32.433  23.182  0.0669 -0.3179  0.3112
96676W        W39588  18.644  31.489  26.025 -0.1345  0.0771 -0.0863
96677W        W39589  20.702  29.966  25.291  0.0230 -0.1674  0.1652
96678W        W39590  19.917  32.698  25.537 -0.1472 -0.0551  0.3506
96679W        W39591  20.283  29.795  27.538 -0.1157 -0.0884  0.2608
96680W        W39592  20.774  29.757  27.537 -0.0717  0.1484 -0.0490
96681W        W39593  20.202  31.192  23.943 -0.2603  0.2852  0.0557
96682W        W39594  18.140  31.125  24.871 -0.0223  0.0003  0.1013
96683W        W39595  17.330  29.500  26.277 -0.3502  0.0291  0.2010
96684W        W39596  19.009  30.382  26.007  0.1088 -0.1047  0.0816
96685W        W39597  20.708  29.237  25.732  0.2411  0.3324 -0.0826
96686W        W39598  20.901  31.520  26.268  0.1393 -0.1019  0.0095
96687W        W39599  20.790  32.579  24.398 -0.0481 -0.0278 -0.0189
96688W        W39600  20.678  32.174  25.582  0.1854  0.0512  0.3105
96689W        W39601  22.233  30.941  27.789 -0.2576 -0.0385  0.0601
96690W        W39602  16.951  30.684  26.027  0.0415  0.1416  0.4706
96691W        W39603  18.264  33.770  24.515  0.0291  0.2223 -0.2122
96692W        W39604  18.601  32.079  24.172 -0.0381  0.0739 -0.1544
96693W        W39605  22.523  31.085  24.157  0.1094  0.1619  0.1451
96694W        W39606  21.961  33.384  26.609  0.0821 -0.1257  0.0095
96695W        W39607  18.403  33.296  27.071 -0.0079  0.2141 -0.1833
96696W        W39608  18.691  32.583  24.282  0.1922 -0.3112  0.0038
96697W        W39609  19.648  33.025  27.849  0.0846 -0.0067 -0.1516
96698W        W39610  20.061  32.884  26.887 -0.1560 -0.1232  0.0607
96699W        W39611  20.475  29.349  27.697  0.0233  0.1879  0.0989
96700W        W39612  20.518  29.150  26.261 -0.0465 -0.2236  0.3246
96701W        W39613  20.009  32.397  23.750  0.0884  0.0287  0.0035
96702W        W39614  19.986  30.705  24.644  0.2414 -0.2054 -0.2333
96703W        W39615  19.490  31.112  25.879 -0.1717  0.2141  0.1072
96704W        W39616  17.946  31.838  26.759  0.0260  0.0743  0.3516
96705W        W39617  21.207  30.915  26.855 -0.1481 -0.1787 -0.1590
96706W        W39618  19.227  32.357  24.484 -0.0051 -0.3198  0.1030
96707W        W39619  21.052  29.664  25.077  0.0619  0.0863  0.0743
96708W        W39620  18.840  30.725  23.727 -0.2354 -0.0026  0.1456
96709W        W39621  20.500  29.151  23.980 -0.0206  0.2994  0.3287
96710W        W39622  19.908  29.116  24.858  0.1955  0.1770 -0.3243
96711W        W39623  18.493  32.483  25.124  0.1227 -0.0913  0.3348
96712W        W39624  18.129  30.605  24.870 -0.3063  0.0311 -0.0477
96713W        W39625  20.932  31.281  27.164 -0.1946 -0.3578  0.1310
96714W        W39626  20.451  30.346  25.937  0.1668 -0.0805 -0.1816
96715W        W39627  20.610  29.815  28.007  0.0982  0.3472  0.0841
96716W        W39628  18.872  32.199  25.837 -0.1562 -0.1896 -0.2710
96717W        W39629  19.292  30.368  25.448  0.0440 -0.2353  0.1564
96718W        W39630  21.379  32.298  24.384  0.1934 -0.0836 -0.1465
96719W        W39631  21.791  32.188  25.683 -0.3882 -0.1132  0.3613
96720W        W39632  19.703  32.785  24.512  0.1972 -0.2165 -0.2067
96721W        W39633  18.648  30.331  25.046 -0.1292 -0.1183  0.1329
96722W        W39634  18.710  30.544  27.240 -0.1535  0.0300  0.0277
96723W        W39635  18.546  32.686  27.535 -0.0459  0.1409 -0.3591
96724W        W39636  18.943  29.762  23.073  0.1680  0.2289  0.0720
96725W        W39637  21.310  30.097  25.778  0.0896 -0.0247  0.1049
96726W        W39638  18.287  31.545  26.902 -0.2063 -0.1408  0.1001
96727W        W39639  22.110  30.810  25.301  0.1466  0.0857  0.2997
96728W        W39640  19.457  28.860  24.275 -0.0601  0.0341 -0.1862
96729W        W39641  20.566  31.645  25.767 -0.1510 -0.3007  0.3146
96730W        W39642  19.772  31.268  25.476  0.3576 -0.2065 -0.1866
96731W        W39643  20.137  28.954  27.868 -0.0583 -0.3371  0.1261
96732W        W39644  21.020  29.204  26.681  0.0889  0.1333 -0.0332
96733W        W39645  18.364  30.080  25.356  0.0100 -0.1117  0.0276
96734W        W39646  19.068  29.902  24.086  0.2510  0.1906  0.1039
96735W        W39647  20.402  32.156  26.948 -0.2865 -0.1018 -0.0021
96736W        W39648  21.287  30.619  24.708  0.2497 -0.1896  0.1499
96737W        W39649  17.248  32.720  26.922 -0.1622  0.2784  0.1202
96738W        W39650  18.955  29.648  27.696  0.6300  0.0141 -0.0111
96739W        W39651  19.908  30.939  27.619  0.1411 -0.3529 -0.1023
96740W        W39652  17.260  33.586  22.515 -0.0548  0.2813 -0.1490
96741W        W39653  17.752  30.714  27.104  0.0927 -0.0675 -0.4306
96742W        W39654  17.972  30.983  25.769 -0.0824 -0.0373  0.0175
96743W        W39655  18.276  29.633  27.077  0.0181 -0.5028 -0.1382
96744W        W39656  19.445  31.927  24.578 -0.0893 -0.1752  0.0610
96745W        W39657  19.873  30.233  26.025 -0.2775  0.1010  0.2590
96746W        W39658  18.791  29.187  26.374  0.2460  0.0380 -0.2666
96747W        W39659  20.775  30.019  26.172 -0.1993 -0.0029  0.0781
96748W        W39660  17.672  31.318  25.747  0.1936  0.4438  0.1795
96749W        W39661  21.542  32.760  23.757 -0.2010 -0.0748 -0.1275
96750W        W39662  21.615  29.868  24.047 -0.0008  0.2517 -0.1238
96751W        W39663  20.254  31.420  24.916 -0.4761  0.1388 -0.0495
96752W        W39664  18.923  29.523  26.753 -0.2442 -0.1237  0.2080
96753W        W39665  18.968  30.018  25.311  0.1851  0.0295  0.0866
96754W        W39666  18.195  30.290  28.100  0.2192 -0.2658  0.3424
96755W        W39667  18.836  29.568  25.353 -0.0162  0.1724  0.0072
96756W        W39668  20.963  30.164  27.962 -0.0713  0.1609 -0.0428
96757W        W39669  18.158  28.598  24.549  0.1221  0.0535 -0.1185
96758W        W39670  20.381  30.945  25.744  0.0036  0.1698  0.6050
96759W        W39671  18.611  30.097  24.501 -0.1216  0.0326 -0.2153
96760W        W39672  16.951  31.889  26.620  0.0179 -0.0870 -0.1919
96761W        W39673  20.404  30.226  27.802  0.1084  0.1630  0.2319
96762W        W39674  20.773  31.321  24.727 -0.1822 -0.4209  0.1555
96763W        W39675  20.643  33.559  26.341  0.1919  0.0114 -0.0888
96764W        W39676  21.149  32.414  26.122  0.3322  0.2305 -0.0759
96765W        W39677  18.522  29.049  26.749 -0.3038  0.0358  0.0618
96766W        W39678  18.221  29.133  24.501 -0.0281 -0.0699  0.1111
96767W        W39679  17.944  33.178  25.311  0.1147  0.2992  0.0481
96768W        W39680  19.752  32.255  24.387 -0.0701 -0.2618  0.0708
96769W        W39681  19.408  28.382  24.363 -0.0070  0.1731  0.2683
96770W        W39682  22.095  32.903  25.992 -0.0090  0.1469 -0.2527
96771W        W39683  19.934  29.920  25.205  0.1568 -0.2636  0.0287
96772W        W39684  18.419  32.275  25.560  0.1874 -0.0281 -0.0737
96773W        W39685  20.351  28.228  27.092  0.0867  0.0857 -0.1070
96774W        W39686  20.874  30.649  25.899 -0.2148 -0.2284  0.0174
96775W        W39687  20.236  29.509  26.559 -0.1768 -0.0680  0.0566
96776W        W39688  19.583  29.976  23.563  0.2057  0.0695 -0.0142
96777W        W39689  21.625  33.521  23.881 -0.0859  0.2487  0.3544
96778W        W39690  18.560  32.606  23.696  0.0695  0.0825 -0.2877
96779W        W39691  17.903  30.625  26.201 -0.0037 -0.1980 -0.2059
96780W        W39692  19.937  31.668  24.633  0.1193 -0.1562 -0.1097
96781W        W39693  23.581  29.433  23.671 -0.1952 -0.0178 -0.2694
96782W        W39694  16.867  32.972  26.621 -0.5842  0.1510 -0.0587
96783W        W39695  21.554  30.321  27.398  0.3398  0.2583 -0.2088
96784W        W39696  17.309  31.876  24.032 -0.1526 -0.0621 -0.1635
96785W        W39697  18.611  31.146  27.171  0.0722  0.1721 -0.1609
96786W        W39698  20.265  30.128  25.503 -0.0242  0.0729 -0.0238
96787W        W39699  20.682  28.671  24.982 -0.1990 -0.2775  0.0528
96788W        W39700  19.023  32.044  27.483  0.0497  0.1631  0.2878
96789W        W39701  21.778  30.454  23.899  0.3060  0.1381 -0.1984
96790W        W39702  20.651  29.677  24.840  0.1299  0.2861 -0.0444
96791W        W39703  18.334  30.532  24.365 -0.3236  0.6560 -0.0116
96792W        W39704  18.942  30.731  27.614  0.0242  0.2952 -0.2881
96793W        W39705  21.204  32.587  24.740  0.2585 -0.1402 -0.1041
96794W        W39706  18.455  30.847  25.150 -0.2710  0.0082 -0.0469
96795W        W39707  20.616  29.488  25.294  0.0129 -0.1927 -0.0140
96796W        W39708  21.958  32.564  24.778 -0.0720  0.2074  0.1883
96797W        W39709  18.068  29.148  26.987 -0.2024 -0.2850 -0.1427
96798W        W39710  21.155  30.820  27.336  0.0332  0.2310  0.0222
96799W        W39711  20.980  31.584  24.365  0.0257  0.1428 -0.0827
96800W        W39712  20.389  28.905  27.402 -0.0371  0.0029  0.1804
96801W        W39713  19.065  31.239  24.457 -0.0874  0.2668 -0.5379
96802W        W39714  19.517  28.875  25.672 -0.0975  0.0050 -0.0087
96803W        W39715  15.860  32.630  23.780  0.1237 -0.0134  0.2081
96804W        W39716  20.711  29.650  26.671 -0.5172  0.0001  0.3423
96805W        W39717  19.739  28.900  26.857  0.0613  0.1265 -0.1448
96806W        W39718  20.554  29.403  27.170 -0.1593 -0.4479 -0.1335
96807W        W39719  21.464  29.903  27.081  0.1865  0.4944  0.0499
96808W        W39720  21.065  29.634  25.627  0.1472  0.0477  0.0758
96809W        W39721  21.680  30.076  26.662  0.0860  0.0758  0.0977
96810W        W39722  18.024  30.808  24.051  0.1445  0.0301  0.2879
96811W        W39723  20.425  31.189  27.887 -0.1115 -0.1392  0.2526
96812W        W39724  18.869  30.595  26.494 -0.0218 -0.2221 -0.0474
96813W        W39725  18.439  31.928  25.909  0.3216 -0.2027  0.1578
96814W        W39726  20.343  32.063  28.515  0.1626  0.0327 -0.0568
96815W        W39727  21.721  30.448  25.349  0.1446 -0.0639  0.2760
96816W        W39728  20.802  30.488  27.567 -0.4943  0.2745 -0.2039
96817W        W39729  19.141  29.610  25.002  0.1359  0.1482 -0.1390
96818W        W39730  17.523  33.710  23.891  0.1488 -0.1546 -0.3663
96819W        W39731  18.150  31.466  23.366  0.0918  0.1255 -0.0096
96820W        W39732  19.508  28.461  26.021  0.2363 -0.1816  0.2225
96821W        W39733  19.714  33.456  26.030  0.0373  0.0042 -0.1754
96822W        W39734  18.549  32.095  23.470 -0.0928 -0.1297  0.0897
96823W        W39735  19.371  31.725  26.346 -0.1816 -0.0445  0.0170
96824W        W39736  18.755  32.165  24.669 -0.1844  0.0300 -0.0523
96825W        W39737  20.970  29.558  26.179  0.2378 -0.0670  0.2889
96826W        W39738  17.930  32.458  25.888 -0.0466  0.1556  0.1668
96827W        W39739  18.730  30.465  25.520 -0.2943 -0.2741  0.4168
96828W        W39740  18.120  30.048  24.155 -0.2270  0.1237  0.1627
96829W        W39741  20.740  29.499  24.405  0.1514  0.2968  0.0427
96830W        W39742  21.514  30.948  25.236  0.0006  0.0479  0.2635
96831W        W39743  18.556  29.122  25.335  0.0495  0.2049 -0.3708
96832W        W39744  20.112  28.203  26.479  0.1127 -0.0187 -0.0491
96833W        W39745  17.888  32.665  26.420 -0.1566  0.1249 -0.1260
96834W        W39746  19.230  30.802  26.233 -0.1786  0.1477 -0.0090
96835W        W39747  21.789  28.327  25.715 -0.0987 -0.1042  0.0919
96836W        W39748  20.694  31.568  27.505 -0.1532  0.1486 -0.2009
96837W        W39749  18.037  31.171  27.106 -0.2714 -0.1514  0.1359
96838W        W39750  19.541  29.974  22.122  0.3123 -0.2861 -0.2764
96839W        W39751  22.078  30.679  26.877 -0.0722 -0.1431  0.0439
96840W        W39752  19.834  30.156  26.509  0.3712 -0.0125  0.3699
96841W        W39753  17.880  33.144  26.190 -0.0842 -0.2326  0.1273
96842W        W39754  20.101  32.503  27.249 -0.1504  0.1764  0.5585
96843W        W39755  18.620  31.316  24.799 -0.2243 -0.0038 -0.1377
96844W        W39756  17.912  32.257  25.406  0.1044 -0.0412  0.0753
96845W        W39757  20.238  29.948  26.268 -0.0980 -0.0619 -0.0110
96846W        W39758  19.853  30.791  26.759 -0.1074  0.4291 -0.1281
96847W        W39759  20.649  31.236  26.699 -0.0586  0.1014  0.2857
96848W        W39760  19.503  29.364  25.327 -0.1035  0.1265 -0.2539
96849W        W39761  20.175  30.565  26.360 -0.0734  0.0067  0.0471
96850W        W39762  22.032  30.271  25.692 -0.0957  0.0405 -0.2480
96851W        W39763  20.784  32.075  27.605 -0.1990  0.2739 -0.0659
96852W        W39764  19.840  32.135  27.382  0.2205  0.1236 -0.0240
96853W        W39765  19.613  28.915  26.204  0.1218 -0.4833 -0.2434
96854W        W39766  22.161  32.953  24.572  0.1036 -0.1522 -0.0181
96855W        W39767  20.561  30.276  26.609  0.4452 -0.1973  0.2982
96856W        W39768  18.983  30.963  25.273  0.0200  0.0325  0.0000
96857W        W39769  18.679  29.909  26.842  0.0498  0.2894 -0.1369
96858W        W39770  20.177  31.999  24.202 -0.0501 -0.0108  0.0808
96859W        W39771  20.526  30.354  27.192 -0.0628  0.1224 -0.0998
96860W        W39772  18.246  32.776  25.537 -0.1235  0.1733 -0.1299
96861W        W39773  18.477  31.652  24.486 -0.2263  0.2271  0.1333
96862W        W39774  19.006  31.726  24.562  0.1711 -0.1325  0.1472
96863W        W39775  21.391  29.629  24.525 -0.1142 -0.2517  0.0003
96864W        W39776  18.662  31.302  24.151  0.0825  0.2250 -0.1181
96865W        W39777  20.559  29.772  25.740  0.1548  0.0828  0.0669
96866W        W39778  22.571  31.502  27.005 -0.1005 -0.0666 -0.0429
96867W        W39779  20.717  31.166  24.246 -0.0110  0.3878 -0.0225
96868W        W39780  20.769  29.277  28.810  0.0330 -0.1483  0.2195
96869W        W39781  20.089  28.707  26.065 -0.0609  0.0630 -0.0034
96870W        W39782  20.551  30.555  25.453  0.0538 -0.3705  0.1877
96871W        W39783  16.891  29.382  25.933 -0.1185  0.1581  0.1977
96872W        W39784  20.832  32.811  28.425  0.1105 -0.0179 -0.0458
96873W        W39785  19.235  32.156  26.144  0.0421  0.5626  0.1727
96874W        W39786  20.886  28.554  25.472  0.2522  0.0215  0.2094
96875W        W39787  20.816  28.138  25.822 -0.1586  0.1602  0.0305
96876W        W39788  19.359  31.718  25.458 -0.0943 -0.0113 -0.1455
96877W        W39789  21.518  31.786  24.527  0.0829 -0.1857 -0.3405
96878W        W39790  19.659  32.106  25.826 -0.0689 -0.1651  0.0226
96879W        W39791  21.261  31.076  25.703 -0.2266 -0.2338 -0.1760
96880W        W39792  18.772  31.015  26.146 -0.0532 -0.0966 -0.0424
96881W        W39793  22.337  31.597  25.183  0.1014  0.1037 -0.0105
96882W        W39794  19.654  30.598  25.084 -0.3826 -0.1496  0.0034
96883W        W39795  18.258  31.368  25.706  0.3037  0.3477  0.2777
96884W        W39796  18.957  28.186  28.105 -0.1999 -0.0593  0.0958
96885W        W39797  20.839  31.110  25.461 -0.2042  0.2835  0.0871
96886W        W39798  20.400  28.339  25.553 -0.1622 -0.0929  0.0567
96887W        W39799  19.852  29.660  26.877  0.2453  0.2421 -0.2420
96888W        W39800  19.875  29.957  27.805 -0.0751 -0.1219 -0.0469
96889W        W39801  19.721  30.713  26.276  0.1798  0.1712 -0.1216
96890W        W39802  17.235  29.052  26.467  0.1773 -0.0908  0.0269
96891W        W39803  20.693  32.651  26.289 -0.2648 -0.0369 -0.2879
96892W        W39804  21.228  30.330  23.746  0.0230 -0.0803 -0.2035
96893W        W39805  21.062  29.511  27.210 -0.1275  0.1887  0.0404
96894W        W39806  21.599  30.125  24.580 -0.2227  0.3141  0.1260
96895W        W39807  19.546  31.041  24.542 -0.1800  0.2878  0.3482
96896W        W39808  19.453  29.888  25.447 -0.1518  0.3335 -0.1624
96897W        W39809  21.135  30.450  26.996 -0.2193 -0.2088 -0.0397
96898W        W39810  19.391  30.310  23.983 -0.2069 -0.0284  0.1263
96899W        W39811  20.714  30.721  28.770  0.1319 -0.0612 -0.2105
96900W        W39812  19.603  32.287  24.901 -0.0591 -0.1956 -0.1673
96901W        W39813  20.284  31.347  25.384  0.1393  0.1121 -0.0016
96902W        W39814  20.864  30.232  25.663  0.1427 -0.1921  0.1228
96903W        W39815  17.941  29.147  25.854  0.1672 -0.0018  0.1043
96904W        W39816  18.261  33.216  25.774 -0.1850  0.1140 -0.0252
96905W        W39817  19.273  31.003  24.907  0.0701 -0.1305 -0.1141
96906W        W39818  18.249  30.121  24.856  0.0255  0.1125  0.0015
96907W        W39819  19.940  31.722  25.560 -0.1061 -0.5683 -0.0709
96908W        W39820  19.810  31.629  27.221 -0.1642 -0.0888  0.2254
96909W        W39821  20.445  29.128  24.974 -0.1674 -0.1107  0.1682
96910W        W39822  19.377  31.972  27.156  0.2825 -0.0960 -0.0195
96911W        W39823  18.067  31.620  24.866 -0.0236  0.0141  0.1323
96912W        W39824  18.697  27.280  25.848  0.0211  0.1193 -0.0798
96913W        W39825  18.416  31.754  26.401  0.0229  0.1713  0.1325
96914W        W39826  18.269  32.965  26.614  0.1056 -0.0576 -0.2201
96915W        W39827  19.024  33.257  24.735  0.1745 -0.0399  0.1096
96916W        W39828  20.075  29.043  26.453  0.4211 -0.0926  0.1399
96917W        W39829  20.342  29.882  26.878 -0.0829  0.1693  0.2586
96918W        W39830  19.361  30.682  26.753 -0.6594 -0.3621  0.1964
96919W        W39831  22.232  30.314  25.221 -0.0188  0.0163 -0.2443
96920W        W39832  18.203  32.220  26.369  0.1683 -0.0230  0.1804
96921W        W39833  19.050  30.817  25.747 -0.0435  0.1726  0.1045
96922W        W39834  20.455  32.472  27.661  0.0388 -0.1498  0.1883
96923W        W39835  21.518  31.878  25.339  0.2004  0.0804 -0.3891
96924W        W39836  19.420  32.626  23.994 -0.1733  0.0087  0.0091
96925W        W39837  19.041  30.104  28.292 -0.2088  0.0402 -0.0252
96926W        W39838  19.942  30.463  27.926  0.1814  0.3361  0.1564
96927W        W39839  19.610  31.600  25.888 -0.3519 -0.0722 -0.0227
96928W        W39840  17.519  29.079  25.163  0.1017  0.1219 -0.2631
96929W        W39841  20.375  30.408  24.524  0.0545 -0.0115  0.1295
96930W        W39842  20.104  32.813  27.700 -0.4702  0.2146 -0.1094
96931W        W39843  18.259  33.607  26.027  0.1568  0.1083  0.0294
96932W        W39844  17.555  34.482  24.451  0.1257 -0.0180  0.1129
96933W        W39845  21.067  32.127  25.250  0.2181 -0.0536 -0.0996
96934W        W39846  18.986  32.398  24.007 -0.0855 -0.0501 -0.0577
96935W        W39847  20.162  32.250  25.635 -0.1355 -0.3269  0.1056
96936W        W39848  19.127  30.538  24.981  0.0945  0.2147 -0.2305
96937W        W39849  19.408  31.522  24.274 -0.0711 -0.1565  0.1614
96938W        W39850  18.022  32.040  23.356 -0.0781 -0.0882 -0.0983
96939W        W39851  21.794  30.589  24.859 -0.0376  0.4144 -0.2863
96940W        W39852  17.517  32.605  26.066 -0.0339 -0.3716 -0.1515
96941W        W39853  20.832  32.451  28.019 -0.2227 -0.0754 -0.1273
96942W        W39854  21.266  28.750  23.771 -0.0647  0.0983  0.0964
96943W        W39855  23.190  29.488  25.717  0.0867 -0.2753 -0.1058
96944W        W39856  20.226  29.576  24.106 -0.3226  0.0307 -0.0372
96945W        W39857  19.573  31.625  26.778  0.2961 -0.1268  0.1016
96946W        W39858  19.497  30.489  25.878 -0.3787  0.0286 -0.0308
96947W        W39859  18.675  29.566  24.375 -0.0923 -0.0516 -0.3979
96948W        W39860  21.218  30.346  26.208 -0.0481 -0.1362  0.1540
96949W        W39861  20.856  28.704  26.440 -0.1937  0.0475 -0.3625
96950W        W39862  18.748  33.877  25.284  0.1298 -0.4982 -0.0138
96951W        W39863  20.235  31.951  25.209  0.0572 -0.0480  0.0120
96952W        W39864  17.288  30.350  25.832  0.0363 -0.1352 -0.4378
96953W        W39865  18.652  31.755  24.989  0.0835  0.1351 -0.0771
96954W        W39866  21.114  30.131  26.629  0.0795 -0.1171 -0.2927
96955W        W39867  20.061  30.855  25.382 -0.1792  0.0507 -0.0723
96956W        W39868  21.859  29.873  26.102  0.2822  0.1940  0.0823
96957W        W39869  20.051  32.131  24.757 -0.2729  0.4301 -0.1224
96958W        W39870  19.186  31.965  25.037 -0.1080  0.4132 -0.2548
96959W        W39871  19.102  31.740  25.945  0.1096  0.2373 -0.1417
96960W        W39872  18.534  30.230  26.238  0.0170  0.1063 -0.1408
96961W        W39873  22.724  30.816  25.805  0.0934 -0.1200 -0.1806
96962W        W39874  18.560  30.947  25.684 -0.1498  0.2190 -0.2239
96963W        W39875  20.179  28.711  26.980 -0.0259 -0.1309 -0.0221
96964W        W39876  19.118  29.146  25.553 -0.3024 -0.0212 -0.1274
96965W        W39877  19.287  29.987  25.930  0.1289 -0.0959 -0.4420
96966W        W39878  20.362  31.947  27.371  0.3642  0.1967  0.1307
96967W        W39879  19.079  30.139  27.776  0.1080 -0.1238 -0.2254
96968W        W39880  20.115  30.521  23.310 -0.1037  0.0965 -0.2531
96969W        W39881  22.260  30.725  25.841  0.2811 -0.1432 -0.1206
96970W        W39882  19.729  29.820  24.040  0.1362 -0.0884  0.0572
96971W        W39883  21.853  32.746  27.567 -0.1761  0.0785  0.1552
96972W        W39884  18.041  29.125  25.302  0.0229  0.4068 -0.1862
96973W        W39885  21.119  30.098  24.847  0.0744 -0.0514  0.1578
96974W        W39886  17.985  29.409  26.329 -0.0399 -0.0620 -0.1679
96975W        W39887  20.134  30.366  26.839  0.0506  0.2141  0.0264
96976W        W39888  20.373  33.189  28.251 -0.0025 -0.1448 -0.0563
96977W        W39889  17.739  29.643  25.931 -0.0628 -0.1975 -0.3094
96978W        W39890  21.425  30.752  23.627 -0.0880 -0.0136 -0.0693
96979W        W39891  21.226  30.302  25.265 -0.1522  0.0042 -0.0175
96980W        W39892  19.000  33.437  24.204  0.0249  0.1514  0.2870
96981W        W39893  20.942  30.622  26.548 -0.1798 -0.0514  0.1493
96982W        W39894  20.362  32.313  26.160  0.2182 -0.1881 -0.1918
96983W        W39895  17.867  28.956  26.450 -0.1163  0.0222  0.2399
96984W        W39896  20.109  31.051  26.367 -0.0460 -0.1222 -0.0374
96985W        W39897  20.948  31.982  27.154 -0.3226 -0.0085 -0.0507
96986W        W39898  19.757  29.401  24.397  0.0498 -0.2840 -0.3228
96987W        W39899  19.617  29.751  26.239 -0.1861 -0.0149 -0.2486
96988W        W39900  17.455  32.695  23.627  0.0304 -0.2713 -0.0532
96989W        W39901  21.933  29.999  25.000 -0.1939  0.2787  0.1995
96990W        W39902  21.196  29.660  26.698  0.0714  0.1524 -0.0293
96991W        W39903  18.958  32.713  22.207  0.3537 -0.1205 -0.0501
96992W        W39904  19.874  28.008  28.352 -0.0465 -0.3245 -0.2302
96993W        W39905  19.174  32.683  25.934  0.1059  0.3316 -0.1019
96994W        W39906  18.943  32.998  26.290 -0.1948  0.0365  0.1587
96995W        W39907  17.549  29.973  24.298 -0.3019 -0.1897 -0.0786
96996W        W39908  20.544  30.944  26.251 -0.2575  0.1203 -0.2878
96997W        W39909  20.824  31.179  25.917  0.1794 -0.1032  0.1730
96998W        W39910  19.412  33.609  24.502 -0.0318  0.1809  0.0375
96999W        W39911  20.735  31.996  26.168  0.0229  0.2963 -0.1179
97000W        W39912  19.034  30.412  24.506  0.2916 -0.4347  0.0646
97001W        W39913  22.033  31.281  26.082  0.2736 -0.1556  0.1237
97002W        W39914  19.458  30.165  25.013 -0.0819 -0.0684  0.4608
97003W        W39915  22.646  30.180  24.336 -0.0016 -0.1439 -0.1294
97004W        W39916  21.371  30.577  25.711  0.1533 -0.0161 -0.1060
97005W        W39917  18.716  31.415  26.644 -0.0097 -0.1916  0.1657
97006W        W39918  17.891  30.279  24.568 -0.2226  0.1769 -0.2940
97007W        W39919  17.999  31.240  23.827  0.1556 -0.4250  0.4143
97008W        W39920  18.346  30.627  26.041  0.1714 -0.0199  0.1360
97009W        W39921  19.059  29.092  26.871 -0.0157  0.2009 -0.2166
97010W        W39922  19.660  30.328  26.996  0.2936  0.0521  0.4711
97011W        W39923  19.059  30.273  26.917  0.2215  0.2530  0.0578
97012W        W39924  19.743  29.298  25.761  0.0516  0.0667 -0.3327
97013W        W39925  21.741  31.370  24.361 -0.3504  0.0803  0.1221
97014W        W39926  18.473  30.978  26.693  0.2450 -0.0827 -0.0535
97015W        W39927  17.668  28.196  26.034 -0.0553  0.0079 -0.0442
97016W        W39928  20.243  30.458  25.041 -0.2621  0.5899  0.2922
97017W        W39929  19.890  31.634  26.343  0.0590  0.0615 -0.0805
97018W        W39930  18.685  29.957  25.723  0.3176 -0.0491  0.1325
97019W        W39931  21.592  30.670  27.077 -0.0022 -0.1518 -0.1585
97020W        W39932  18.972  32.915  23.958 -0.2923  0.0420  0.1111
97021W        W39933  20.133  30.065  28.184 -0.0285  0.1150  0.2211
97022W        W39934  19.413  29.823  26.711  0.1484 -0.1449  0.1136
97023W        W39935  17.753  30.452  25.704  0.0609 -0.0557 -0.0857
97024W        W39936  22.101  30.304  26.397  0.2771 -0.4284  0.0165
97025W        W39937  19.944  31.209  24.351 -0.1695 -0.1019 -0.0381
97026W        W39938  20.695  33.056  24.265 -0.0341  0.2642  0.0929
97027W        W39939  19.160  31.266  26.281 -0.3716  0.1075 -0.2079
97028W        W39940  19.103  31.833  26.776  0.2787  0.2123  0.3252
97029W        W39941  17.998  28.244  27.881  0.0332  0.2989 -0.0088
97030W        W39942  19.688  30.739  24.054 -0.1208 -0.3226 -0.2046
97031W        W39943  19.369  30.287  26.388  0.1399  0.0443 -0.1597
97032W        W39944  22.803  31.348  24.565 -0.1257 -0.1017  0.0671
97033W        W39945  23.095  30.934  26.632 -0.2048 -0.2252 -0.1126
97034W        W39946  20.057  31.270  25.929  0.0868  0.1576  0.0432
97035W        W39947  19.170  28.818  26.475 -0.0172  0.2500  0.1967
97036W        W39948  19.038  32.276  26.877 -0.0848  0.1339 -0.2806
97037W        W39949  21.929  31.065  27.121 -0.0878 -0.0764  0.0308
97038W        W39950  18.638  29.822  24.959 -0.2028  0.0657  0.2177
97039W        W39951  20.307  29.909  24.443 -0.1524  0.0438  0.0132
97040W        W39952  19.767  31.113  24.957 -0.2995  0.1808 -0.0455
97041W        W39953  17.921  32.722  26.919  0.0625 -0.0859  0.3719
97042W        W39954  20.321  30.000  24.953 -0.3094  0.3319 -0.2716
97043W        W39955  19.170  31.260  26.797 -0.1568  0.3302  0.1866
97044W        W39956  21.881  29.800  25.598 -0.1700  0.1118  0.2298
97045W        W39957  20.817  31.774  28.561 -0.0281 -0.3591  0.1746
97046W        W39958  19.506  30.518  24.575  0.0367  0.2063 -0.0317
97047W        W39959  21.780  30.936  25.687 -0.0337  0.1625  0.2211
97048W        W39960  18.811  32.028  26.342  0.1408  0.1352  0.1809
97049W        W39961  21.513  31.745  27.809  0.1940 -0.0391 -0.2245
97050W        W39962  20.121  33.186  26.005  0.2375 -0.0195 -0.0500
97051W        W39963  21.190  30.745  27.940  0.0681  0.0226  0.1164
97052W        W39964  18.260  27.675  25.262  0.2803 -0.4217  0.2538
97053W        W39965  19.189  30.832  24.160  0.0640  0.2463 -0.0297
97054W        W39966  20.002  30.650  25.810  0.0819 -0.1235  0.1162
97055W        W39967  20.780  30.799  27.065 -0.0472  0.1103  0.2114
97056W        W39968  20.241  29.357  25.746 -0.1157  0.0558  0.1419
97057W        W39969  20.794  30.026  24.452  0.1006  0.2427 -0.1500
97058W        W39970  20.191  31.877  25.986  0.0807  0.1535 -0.3779
97059W        W39971  21.167  31.724  24.940 -0.1504  0.2994  0.1003
97060W        W39972  19.374  32.761  30.829  0.5340  0.2157 -0.0910
97061W        W39973  18.857  29.268  30.020 -0.1649  0.0284  0.2398
97062W        W39974  20.824  29.468  29.423  0.2388  0.0008 -0.0468
97063W        W39975  21.139  30.867  29.405 -0.0266 -0.2771  0.4584
97064W        W39976  17.726  30.636  28.011 -0.0888  0.0070 -0.1776
97065W        W39977  19.491  32.557  29.575  0.2641 -0.0256  0.0122
97066W        W39978  19.262  28.843  29.968  0.2865 -0.2774  0.2540
97067W        W39979  20.697  32.590  29.746 -0.2611 -0.1233  0.1066
97068W        W39980  21.791  31.831  30.025  0.1950 -0.0612  0.0381
97069W        W39981  20.411  30.780  26.767 -0.0216  0.1223 -0.2578
97070W        W39982  19.789  28.534  30.566 -0.1972 -0.0322 -0.4827
97071W        W39983  19.781  31.246  29.727  0.2126  0.3592 -0.2414
97072W        W39984  18.932  29.708  29.303 -0.0161  0.2362  0.1884
97073W        W39985  17.930  28.580  28.190  0.0674  0.0077  0.0078
97074W        W39986  20.098  29.690  29.929  0.1317 -0.0425  0.3460
97075W        W39987  19.198  32.785  27.867  0.0772 -0.1519 -0.2537
97076W        W39988  18.011  29.460  29.561  0.1235 -0.2238 -0.2870
97077W        W39989  19.203  28.458  30.515 -0.2018 -0.0299 -0.1770
97078W        W39990  19.415  32.106  28.809 -0.2245  0.4196 -0.0014
97079W        W39991  19.197  31.290  30.448 -0.0411 -0.0304  0.2249
97080W        W39992  18.697  29.576   0.139  0.0254 -0.4789  0.0895
97081W        W39993  19.587  32.517  27.969  0.1614 -0.2309  0.0395
97082W        W39994  18.564  32.198  27.661  0.2398  0.1758  0.2822
97083W        W39995  16.906  30.891  28.155  0.1804  0.2844  0.3049
97084W        W39996  19.258  30.633  29.407  0.1216 -0.0720  0.0538
97085W        W39997  20.539  30.985  30.594  0.0365  0.0170 -0.1071
97086W        W39998  18.876  30.228  29.492 -0.3918  0.1411 -0.0404
97087W        W39999  21.130  33.080  28.710 -0.2329 -0.3413  0.2224
97088W        W40000  18.562  32.170  31.140 -0.2369  0.3352 -0.2197
97089W        W40001  21.020  29.259   0.012  0.1282 -0.0779 -0.0363
97090W        W40002  17.869  29.695  28.978 -0.0713 -0.1126 -0.0698
97091W        W40003  17.732  32.376  28.657  0.0036 -0.1189  0.3538
97092W        W40004  19.461  31.488  29.316 -0.0510 -0.4291  0.1465
97093W        W40005  21.387  30.005  28.372  0.1833 -0.4329  0.0192
97094W        W40006  20.525  33.143   0.071 -0.1545  0.2297  0.0128
97095W        W40007  18.955  32.371   0.319  0.4435 -0.2353 -0.2062
97096W        W40008  18.869  31.247  27.638  0.1558  0.2454  0.1446
97097W        W40009  20.168  31.472  31.930  0.0634  0.0605  0.0458
97098W        W40010  18.444  33.108  31.028 -0.0612 -0.0550 -0.4704
97099W        W40011  18.779  31.500  29.081  0.0255  0.0629  0.3342
97100W        W40012  21.181  29.404  28.350 -0.0623  0.0962 -0.0442
97101W        W40013  19.114  31.144  29.164 -0.1435  0.1388  0.0564
97102W        W40014  18.717  31.308  28.632  0.1276  0.3032  0.2413
97103W        W40015  17.931  31.447  30.197 -0.1284  0.2065  0.0566
97104W        W40016  18.986  33.765  28.072  0.0099  0.1136  0.0449
97105W        W40017  21.555  30.114  31.267 -0.0889  0.1386  0.2016
97106W        W40018  18.440  32.780  27.065  0.1621  0.0668 -0.0447
97107W        W40019  21.436  30.259  29.342  0.2671 -0.1189  0.2514
97108W        W40020  19.289  29.719  28.671  0.0882  0.1853  0.3699
97109W        W40021  19.996  28.506  28.462  0.2857  0.3096 -0.2186
97110W        W40022  20.308  29.109  28.831  0.0824  0.4919 -0.0930
97111W        W40023  17.963  32.195  30.068  0.0857  0.1917 -0.1474
97112W        W40024  19.609  30.060  30.021  0.0276 -0.0108 -0.0334
97113W        W40025  19.540  30.876  30.540 -0.1356  0.1801  0.1639
97114W        W40026  20.348  30.772  27.320 -0.2058 -0.0654 -0.2659
97115W        W40027  20.082  30.729  30.585 -0.0882  0.2786 -0.3115
97116W        W40028  18.615  32.795  31.347 -0.1469 -0.0560 -0.2116
97117W        W40029  17.937  29.985  28.558  0.1333 -0.6060 -0.1649
97118W        W40030  21.775  32.046  29.392  0.1438 -0.4566  0.1328
97119W        W40031  21.755  31.893  28.387 -0.0319  0.1116  0.1108
97120W        W40032  19.552  31.316  28.360  0.0214 -0.0193  0.1678
97121W        W40033  18.666  29.609  28.293 -0.1429 -0.3391  0.0268
97122W        W40034  17.908  29.204  30.506 -0.1021 -0.1900  0.0651
97123W        W40035  18.204  30.354  30.324 -0.0721 -0.1363 -0.1078
97124W        W40036  18.680  30.177  28.966 -0.0080 -0.0942  0.0684
97125W        W40037  21.938  31.228  31.756  0.1855  0.1321  0.2496
97126W        W40038  17.458  33.294  30.769 -0.1000  0.0222  0.1030
97127W        W40039  20.780  30.386  29.568  0.1536 -0.2191 -0.1333
97128W        W40040  18.696  31.322  31.372 -0.2127 -0.0247 -0.3121
97129W        W40041  19.924  30.452  30.107  0.0404  0.1192  0.0031
97130W        W40042  20.236  31.305  27.379 -0.0196  0.1801 -0.0619
97131W        W40043  19.965  28.489  30.025  0.3073  0.3147 -0.1715
97132W        W40044  20.309  28.060  29.351 -0.1185  0.1385 -0.2140
97133W        W40045  18.388  31.522  27.620 -0.0064 -0.0211 -0.0462
97134W        W40046  19.587  30.339  29.157 -0.1663  0.0152 -0.1698
97135W        W40047  19.730  30.077  30.567 -0.0786  0.0409  0.0744
97136W        W40048  21.307  30.754  28.707 -0.3419  0.3365 -0.0170
97137W        W40049  18.081  31.983  28.633 -0.0133 -0.2494 -0.0105
97138W        W40050  18.680  29.161  31.705  0.2452 -0.1807 -0.0936
97139W        W40051  19.749  31.253  30.784  0.0234  0.0203 -0.1730
97140W        W40052  19.170  33.716  27.578 -0.0784 -0.2620 -0.0624
97141W        W40053  17.627  32.422  29.720  0.0551 -0.1618  0.1312
97142W        W40054  19.284  31.522  27.318  0.0785 -0.1661  0.0680
97143W        W40055  18.833  29.486  30.500  0.0223 -0.2866 -0.1723
97144W        W40056  19.193  31.966  29.782 -0.0620  0.3060  0.1644
97145W        W40057  20.597  28.882  29.773 -0.0054 -0.2146  0.0891
97146W        W40058  18.626  30.033  30.307 -0.0061 -0.0671  0.1046
97147W        W40059  20.261  28.503  27.875  0.2061  0.0490  0.0658
97148W        W40060  18.115  31.511  28.749 -0.3911  0.2573  0.2213
97149W        W40061  21.213  32.523  30.046 -0.0366  0.2343 -0.2459
97150W        W40062  21.961  29.521  27.748 -0.3631  0.1246 -0.1352
97151W        W40063  19.950  32.006  26.852  0.0093 -0.2590 -0.2102
97152W        W40064  18.196  30.254  28.957 -0.0469 -0.2501  0.2048
97153W        W40065  18.143  29.464  28.450  0.2879  0.0734  0.1280
97154W        W40066  19.021  29.244  31.374 -0.1137  0.0780  0.2035
97155W        W40067  19.436  29.581  29.810  0.1403 -0.1592  0.1797
97156W        W40068  19.807  29.641  31.671  0.2002  0.0285 -0.1722
97157W        W40069  18.626  30.427  28.149 -0.1457 -0.1321 -0.0678
97158W        W40070  19.747  29.512  28.337 -0.0378 -0.0327 -0.0159
97159W        W40071  18.392  30.052  29.402 -0.0944  0.0937 -0.3181
97160W        W40072  17.768  30.335  26.565  0.0929  0.2689 -0.2488
97161W        W40073  21.552  29.828  29.931 -0.0362  0.0491  0.0758
97162W        W40074  20.384  33.776  27.874 -0.0532 -0.1361 -0.1195
97163W        W40075  20.330  32.419  31.670  0.0407  0.1796  0.0475
97164W        W40076  21.361  31.646  28.251 -0.0708 -0.1970  0.0304
97165W        W40077  18.664  30.033  30.907  0.3375 -0.1070  0.1106
97166W        W40078  18.700  28.858  28.431 -0.0514 -0.2388  0.0284
97167W        W40079  18.738  32.951  29.658  0.3533 -0.0559 -0.1573
97168W        W40080  18.309  31.546  30.543  0.1594 -0.2472  0.1522
97169W        W40081  19.891  28.788  28.873 -0.2486 -0.2251  0.0941
97170W        W40082  22.345  31.848  30.108  0.1083  0.0981 -0.2445
97171W        W40083  19.677  31.457  27.674 -0.0217 -0.2531  0.0622
97172W        W40084  18.774  31.084  30.569 -0.2326  0.0007 -0.2664
97173W        W40085  20.052  30.955   0.619 -0.0097 -0.2434  0.1526
97174W        W40086  20.700  30.105  31.873 -0.2287 -0.3621  0.0020
97175W        W40087  20.194  30.878  28.732  0.1610  0.0599  0.1821
97176W        W40088  17.150  30.701  27.623  0.1308  0.1602 -0.3068
97177W        W40089  20.682  31.620  29.701 -0.1347  0.1421 -0.3881
97178W        W40090  19.977  32.830  28.196 -0.0579  0.1922 -0.1954
97179W        W40091  17.619  31.462  27.800 -0.1616  0.1074 -0.1510
97180W        W40092  19.523  34.015  29.432  0.0319 -0.0129 -0.1302
97181W        W40093  21.345  31.001  31.179  0.1701  0.3599 -0.0579
97182W        W40094  18.185  31.880  31.517  0.2984 -0.0913 -0.2643
97183W        W40095  19.714  29.938   0.366  0.0983  0.0827  0.2077
97184W        W40096  18.537  31.773  28.495  0.0174  0.0831 -0.2705
97185W        W40097  17.458  32.809  30.986 -0.1015  0.0633  0.1142
97186W        W40098  20.200  28.257  30.584  0.0774 -0.1949  0.1012
97187W        W40099  22.411  29.016  27.112  0.1490  0.0554 -0.0595
97188W        W40100  20.628  31.174  31.838  0.1660 -0.0258 -0.2978
97189W        W40101  20.924  30.193  28.741  0.1174 -0.1556  0.1521
97190W        W40102  19.690  30.913  28.666 -0.0068  0.2940 -0.2878
97191W        W40103  19.468  29.097  28.687  0.1117  0.2869  0.2088
97192W        W40104  18.396  31.435  29.965 -0.2032 -0.3052  0.0697
97193W        W40105  21.109  29.711  28.980  0.0283  0.0043 -0.0278
97194W        W40106  18.944  31.925  28.874  0.2466  0.1555 -0.0685
97195W        W40107  20.739  31.623  29.027  0.0329  0.4486 -0.1729
97196W        W40108  22.391  32.589  29.229  0.0741  0.0185 -0.3156
97197W        W40109  17.559  30.879  30.846 -0.0183 -0.0373  0.0316
97198W        W40110  19.073  33.032  30.553  0.0772 -0.2860 -0.1821
97199W        W40111  20.304  31.875  29.322 -0.2910  0.0746  0.3944
97200W        W40112  19.693  28.087  30.296 -0.2112 -0.2908 -0.0021
97201W        W40113  20.036  30.530  28.432 -0.0347  0.1834 -0.5068
97202W        W40114  20.326  29.034  29.315 -0.1884 -0.0771 -0.1331
97203W        W40115  18.729  33.507  27.655 -0.1020 -0.0082 -0.4107
97204W        W40116  20.292  30.539  29.579  0.0738  0.4825  0.1196
97205W        W40117  19.233  29.838  30.330  0.0997  0.2782 -0.2165
97206W        W40118  18.735  28.955  30.467 -0.2127  0.0064 -0.2007
97207W        W40119  21.500  29.706  31.670  0.1247  0.1231  0.3285
97208W        W40120  21.955  31.416  27.984 -0.4185 -0.2456  0.1179
97209W        W40121  19.323  30.530  29.895 -0.1651  0.0079  0.0263
97210W        W40122  18.448  30.518  28.645 -0.3463  0.4410 -0.0207
97211W        W40123  19.106  29.247  30.856  0.1089 -0.3209  0.1179
97212W        W40124  18.276  31.052  30.366  0.2024  0.3146 -0.3931
97213W        W40125  17.824  31.890  30.464  0.1068  0.0497 -0.3415
97214W        W40126  20.118  31.133  31.484 -0.2205  0.0499 -0.5524
97215W        W40127  21.178  31.390  29.486 -0.3656  0.0915 -0.0949
97216W        W40128  19.417  29.612   0.648  0.5769  0.3004  0.1523
97217W        W40129  19.877  29.004  28.396  0.1963 -0.0065  0.0442
97218W        W40130  19.555  32.601  28.593 -0.2122 -0.1560 -0.0775
97219W        W40131  20.537  31.455  28.329 -0.1496 -0.0329 -0.1289
97220W        W40132  18.372  29.347  30.236 -0.1057  0.1059 -0.1416
97221W        W40133  20.564  31.189  30.151 -0.0063 -0.1007  0.3446
97222W        W40134  19.364  31.562  28.799 -0.1266  0.0353  0.1631
97223W        W40135  19.368  30.242   0.080  0.0130 -0.0041  0.2367
97224W        W40136  18.266  33.387  28.199  0.0899 -0.0518  0.0162
97225W        W40137  21.540  29.564  30.676  0.3604 -0.0228 -0.0972
97226W        W40138  19.417  32.964  28.287  0.0126 -0.2650 -0.2373
97227W        W40139  18.304  30.835  28.126 -0.4063  0.0794  0.0602
97228W        W40140  15.739  30.639  28.102  0.0508 -0.2064 -0.0404
97229W        W40141  19.720  29.466  30.253 -0.2195 -0.1030 -0.0472
97230W        W40142  21.661  30.900  27.509  0.0914  0.2309  0.4604
97231W        W40143  18.454  29.245  29.739 -0.1441 -0.3547 -0.0481
97232W        W40144  18.813  27.797  29.248 -0.4991  0.0748  0.0545
97233W        W40145  18.720  31.769  29.797 -0.0005 -0.1100  0.0490
97234W        W40146  20.735  31.683  30.203 -0.0086  0.2224 -0.2888
97235W        W40147  19.736  30.041  28.540  0.0966 -0.1708  0.0446
97236W        W40148  20.097  33.212  31.358  0.2232  0.0134  0.1319
97237W        W40149  21.213  31.570  31.052  0.1288  0.3680 -0.2039
97238W        W40150  17.677  29.913  27.616  0.0398 -0.3947  0.1339
97239W        W40151  20.849  30.002  30.965 -0.0787  0.1002  0.1470
97240W        W40152  20.374  28.451  29.637  0.2394  0.0504  0.2485
97241W        W40153  18.032  32.482  27.927  0.0777  0.0685  0.0148
97242W        W40154  19.078  32.878  28.657  0.1890 -0.1159 -0.1693
97243W        W40155  19.660  31.187  27.013 -0.0976 -0.0790 -0.1120
97244W        W40156  18.485  30.379  27.665  0.1713 -0.1218  0.1615
97245W        W40157  18.819  31.300   0.365 -0.1901 -0.2329  0.1040
97246W        W40158  20.078  31.057  30.286  0.3497  0.1725 -0.1657
97247W        W40159  19.469  28.117  31.222 -0.0894  0.2052 -0.0477
97248W        W40160  18.508  29.462  29.299  0.1588 -0.1116  0.1449
97249W        W40161  19.789  30.219  31.117 -0.0067  0.0153  0.4016
97250W        W40162  18.949  30.911  31.703 -0.1802  0.0345  0.0701
97251W        W40163  20.644  30.407  30.639  0.1497 -0.0867  0.0265
97252W        W40164  18.819  33.404  30.762  0.0815  0.0553 -0.0114
97253W        W40165  19.786  29.201  29.316  0.1071  0.1283  0.2257
97254W        W40166  20.682  32.610  28.902 -0.1751 -0.4672 -0.0821
97255W        W40167  21.112  30.009  31.498 -0.0417 -0.1979  0.2609
97256W        W40168  18.788  31.607  27.234  0.0478 -0.2629 -0.1937
97257W        W40169  19.258  29.266  30.329  0.1672  0.0065 -0.2431
97258W        W40170  19.159  31.040  27.200  0.1528 -0.2116 -0.3496
97259W        W40171  19.735  27.986  29.328 -0.0014 -0.2720  0.0711
97260W        W40172  19.169  32.665  29.914 -0.0374  0.0086 -0.1294
97261W        W40173  19.138  32.569  27.422  0.2466  0.0924 -0.1840
97262W        W40174  18.153  30.499  31.448  0.2197  0.4048 -0.2346
97263W        W40175  22.555  28.897  27.654  0.1840 -0.1458 -0.2268
97264W        W40176  19.400  30.525  27.702 -0.0625 -0.0379  0.2629
97265W        W40177  19.597  31.018  29.180  0.4332  0.0979 -0.3152
97266W        W40178  21.838  29.996  30.324 -0.0795 -0.1184  0.3621
97267W        W40179  19.125  30.657  28.152  0.0392 -0.3818  0.0039
97268W        W40180  21.536  28.566  31.506  0.0952 -0.1599 -0.0006
97269W        W40181  20.105  28.863  29.708  0.2438  0.1763  0.0930
97270W        W40182  20.036  31.460  28.259 -0.0790 -0.2405 -0.2366
97271W        W40183  18.554  28.057  28.908  0.1211 -0.0260  0.3431
97272W        W40184  20.133  32.864  31.846  0.3086  0.2066  0.0514
97273W        W40185  17.886  30.019  30.511  0.0943  0.1857 -0.0732
97274W        W40186  19.138  28.717  28.786 -0.1269 -0.1387  0.0524
97275W        W40187  19.427  28.298  29.951 -0.1357 -0.0569 -0.1917
97276W        W40188  18.605  30.321  31.289  0.2202 -0.2169 -0.1239
97277W        W40189  19.015  31.465  29.553 -0.2513  0.1881  0.1017
97278W        W40190  19.035  32.280  27.877  0.0277 -0.2451 -0.0554
97279W        W40191  21.830  29.103  26.694  0.1756  0.1954  0.0773
97280W        W40192  18.340  30.752  29.883 -0.1676  0.0045  0.0692
97281W        W40193  20.087  29.497  28.025  0.2836 -0.2079 -0.0413
97282W        W40194  19.554  30.755  27.241  0.2163 -0.0460  0.2968
97283W        W40195  18.837  31.556  30.835 -0.1149  0.1739  0.1441
97284W        W40196  19.467  28.676  31.561 -0.1181 -0.0047 -0.3696
97285W        W40197  19.791  30.218  29.580 -0.2169  0.0210 -0.0740
97286W        W40198  20.172  29.202  30.103 -0.1431 -0.1584  0.1494
97287W        W40199  20.171  30.300  30.803 -0.1183  0.0144  0.1215
97288W        W40200  20.341  29.864  30.971  0.0298  0.1575 -0.2333
97289W        W40201  20.333  30.124   0.284  0.0707  0.4395 -0.1578
97290W        W40202  18.960  29.730  29.839  0.0051  0.0868 -0.1216
97291W        W40203  21.422  34.038  30.204  0.0955  0.0116  0.0521
97292W        W40204  21.633  31.060  28.120 -0.1210  0.2492  0.2212
97293W        W40205  21.092  30.716  31.476 -0.1251  0.0566 -0.2313
97294W        W40206  21.005  30.520  28.375 -0.0228  0.2881 -0.2030
97295W        W40207  19.915  29.953  29.105 -0.0273  0.0362  0.1053
97296W        W40208  18.079  29.226  29.015  0.1389  0.1941  0.2081
97297W        W40209  19.424  30.366  30.400 -0.0868  0.0250 -0.1011
97298W        W40210  19.299  29.726  28.116  0.1353 -0.0211  0.0406
97299W        W40211  19.619  29.376   0.166 -0.0714 -0.3263 -0.4358
97300W        W40212  20.339  32.495  28.175  0.2647  0.0644  0.0418
97301W        W40213  22.159  30.308  29.622  0.1461  0.1718  0.2086
97302W        W40214  20.285  29.559  29.191 -0.3201  0.1234 -0.1207
97303W        W40215  18.340  29.650  28.871  0.0456 -0.0880  0.1191
97304W        W40216  19.102  30.748  30.691  0.0427 -0.1533  0.0756
97305W        W40217  18.948  29.895  26.376 -0.0317 -0.0792 -0.0759
97306W        W40218  19.487  32.057  27.731 -0.3572 -0.1528  0.0247
97307W        W40219  20.155  30.924  29.823  0.1518 -0.2959  0.1388
97308W        W40220  20.477  30.631  31.036  0.2845 -0.1409  0.0888
97309W        W40221  19.387  28.915  29.175 -0.1755 -0.2401 -0.1012
97310W        W40222  21.159  30.327  31.835 -0.0447  0.0247 -0.1802
97311W        W40223  17.297  30.386  28.004  0.0635  0.1554  0.0664
97312W        W40224  19.684  28.879  30.213  0.2417 -0.1217  0.0385
97313W        W40225  18.831  32.166  30.116  0.1329  0.3636  0.1294
97314W        W40226  18.450  31.183  30.905  0.0521 -0.0407 -0.0936
97315W        W40227  18.470  31.877  28.974 -0.3031 -0.0082 -0.2195
97316W        W40228  20.000  29.066  30.542  0.1302  0.0090  0.1383
97317W        W40229  21.113  30.395  30.542  0.3036 -0.0506  0.3659
97318W        W40230  19.192  31.134  28.667  0.4489 -0.1422  0.2507
97319W        W40231  20.189  30.123  30.319  0.0103  0.2370 -0.1837
97320W        W40232  20.698  31.734  30.963 -0.0013 -0.3116 -0.1027
97321W        W40233  18.788  30.755  29.025  0.3148 -0.2281 -0.0663
97322W        W40234  19.808  31.829  28.545 -0.0902 -0.0318  0.0453
97323W        W40235  21.016  31.086  28.925 -0.0582  0.0495  0.1406
97324W        W40236  18.250  32.097  29.650 -0.0134  0.0600 -0.0801
97325W        W40237  17.599  30.648   0.103 -0.1021 -0.4043  0.0901
97326W        W40238  18.993  30.699   0.218 -0.0617  0.2654 -0.3994
97327W        W40239  20.638  30.783  29.282 -0.0727  0.2615 -0.1496
97328W        W40240  18.913  28.304  29.911  0.2184 -0.1801 -0.1574
97329W        W40241  19.286  33.074  27.421  0.0246 -0.3350  0.0088
97330W        W40242  18.445  30.936  31.762 -0.2583 -0.1890 -0.0926
97331W        W40243  17.268  30.538  30.128 -0.5659 -0.1263  0.0080
97332W        W40244  19.532  33.452  29.454  0.3703 -0.0835  0.0443
97333W        W40245  20.821  31.029  28.441 -0.1350 -0.0455  0.0938
97334W        W40246  20.713  32.102  28.961 -0.7460  0.2948  0.3960
97335W        W40247  19.001  32.389  29.543  0.2243  0.2799  0.2518
97336W        W40248  19.953  30.445  27.446  0.0578  0.2090 -0.0472
97337W        W40249  20.057  31.436  29.246  0.2838  0.4111 -0.1261
97338W        W40250  17.631  31.970  29.411  0.0380 -0.0417  0.0011
97339W        W40251  21.332  31.197  28.459  0.1255  0.1691  0.2250
97340W        W40252  17.765  33.182  28.364  0.2073 -0.1771 -0.1486
97341W        W40253  21.966  31.179  30.336  0.0157  0.2345  0.0745
97342W        W40254  21.914  28.618  27.202  0.3807 -0.1107 -0.3877
97343W        W40255  20.938  30.862  30.346 -0.1606 -0.0777 -0.1201
97344W        W40256  19.218  31.638  27.820  0.3176  0.3111 -0.1268
97345W        W40257  20.944  32.070   0.697  0.1511  0.3247 -0.1164
97346W        W40258  20.567  31.570   0.220  0.2274 -0.1383 -0.1357
97347W        W40259  19.441  30.467  28.534 -0.1411 -0.3793 -0.0756
97348W        W40260  17.737  30.464  31.028  0.0227  0.1611 -0.0864
97349W        W40261  21.464  29.611  31.210 -0.3028 -0.0933  0.1508
97350W        W40262  17.814  31.757   1.029 -0.1200  0.4249 -0.2024
97351W        W40263  21.219  31.566  28.845 -0.1501  0.0260  0.0176
97352W        W40264  17.666  29.202  28.734  0.0264  0.0087  0.1691
97353W        W40265  17.965  30.572  28.498 -0.0165 -0.1335  0.0445
97354W        W40266  21.188  30.426  31.093  0.2397 -0.0819  0.2324
97355W        W40267  20.204  31.633  27.808 -0.1090 -0.1695 -0.0901
97356W        W40268  19.848  29.711  29.511  0.0120 -0.0255 -0.0896
97357W        W40269  19.010  32.409  28.807  0.0094 -0.0146  0.2521
97358W        W40270  19.176  31.672  28.332 -0.0199 -0.2613 -0.0618
97359W        W40271  21.369  31.602  30.324 -0.4258 -0.0712  0.1890
97360W        W40272  19.325  28.688  27.103  0.0297  0.0749 -0.2135
97361W        W40273  20.597  30.340  29.101  0.0031  0.0041 -0.0582
97362W        W40274  20.095  29.695  30.567 -0.0573  0.2339  0.3260
97363W        W40275  20.923  29.429  30.536  0.0164 -0.2480 -0.2708
97364W        W40276  19.291  30.707  28.901 -0.0951 -0.0370 -0.1749
97365W        W40277  19.737  30.725  29.613 -0.1779  0.1072  0.0450
97366W        W40278  19.597  30.909  30.036 -0.0167  0.2624 -0.2792
97367W        W40279  18.169  30.822  28.990 -0.4578 -0.3246  0.1165
97368W        W40280  18.458  31.004  27.666  0.1160  0.2055 -0.0840
97369W        W40281  18.980  29.887  31.268 -0.0637  0.0222 -0.1649
97370W        W40282  20.779  31.059  27.604 -0.0482  0.1506 -0.0184
97371W        W40283  21.246  33.312  31.215  0.0420 -0.1081  0.1219
97372W        W40284  19.050  31.211  28.168 -0.1738  0.0272  0.2036
97373W        W40285  19.941  29.547  28.843 -0.1027  0.1820  0.0440
97374W        W40286  19.180  30.125  28.928 -0.1672  0.0054 -0.0947
97375W        W40287  18.847  30.649  29.797 -0.2038  0.1291  0.2457
97376W        W40288  21.830  32.268   0.089  0.0414 -0.0216  0.0864
97377W        W40289  18.249  29.040  28.124 -0.0942 -0.3428  0.1680
97378W        W40290  22.443  30.318  28.041  0.0291  0.2189  0.2992
97379W        W40291  21.186  29.936  30.359 -0.1287  0.0768 -0.0187
97380W        W40292  18.878  34.158  27.685 -0.5267  0.0015 -0.3389
97381W        W40293  20.546  31.196  28.907 -0.0129 -0.0806  0.3851
97382W        W40294  20.876  33.421  28.464 -0.0169 -0.1856  0.0402
97383W        W40295  18.658  29.517  31.051 -0.0343 -0.4067  0.0721
97384W        W40296  18.772  32.886  30.148  0.0553 -0.0987 -0.0407
97385W        W40297  22.898  30.441  28.881  0.2013  0.2557  0.2445
97386W        W40298  19.227  29.183  29.588  0.2579  0.1042 -0.0753
97387W        W40299  18.425  30.045  28.503  0.0701  0.2175 -0.1390
97388W        W40300  19.902  32.247  28.252  0.2062  0.2171  0.0111
97389W        W40301  21.189  30.530  29.979 -0.1731 -0.1695  0.0450
97390W        W40302  20.642  29.031  30.803 -0.4427  0.2614 -0.3422
97391W        W40303  19.411  32.147  28.240 -0.1583  0.0874 -0.0174
97392W        W40304  21.069  29.501  31.535  0.1810 -0.1905 -0.1860
97393W        W40305  20.091  31.610  30.133  0.2215  0.0005  0.1889
97394W        W40306  18.403  31.674  31.034  0.0861 -0.1015  0.0420
97395W        W40307  19.997  30.001  27.174  0.1310  0.0768 -0.0103
97396W        W40308  19.212  31.874  30.493 -0.1602  0.2714 -0.0481
97397W        W40309  20.084  30.983  29.191  0.2298  0.2473 -0.1529
97398W        W40310  20.806  34.009  27.571  0.5128  0.0607 -0.0529
97399W        W40311  21.453  32.113  30.269  0.1119 -0.1589  0.0812
97400W        W40312  20.876  28.416  28.387 -0.0606 -0.2039 -0.1725
97401W        W40313  21.575  32.728  29.177  0.1415  0.3629  0.1091
97402W        W40314  20.036  28.458  29.279  0.1085  0.1854  0.1807
97403W        W40315  21.655  28.238  26.937  0.2814  0.1264 -0.1349
97404W        W40316  20.687  28.074  28.958  0.1645 -0.0096 -0.1183
97405W        W40317  17.520  32.284   0.018  0.1971 -0.2405 -0.0285
97406W        W40318  17.395  31.943  28.032  0.2189 -0.1643  0.1870
97407W        W40319  18.658  32.337  27.151 -0.4403  0.2826 -0.1985
97408W        W40320  18.886  32.089  28.362  0.0961 -0.0475  0.1349
97409W        W40321  20.111  28.822  31.651 -0.0824 -0.0865 -0.5109
97410W        W40322  19.194  31.200  30.989 -0.1253  0.1101  0.1178
97411W        W40323  17.205  29.945  28.314 -0.1610  0.0324 -0.1348
97412W        W40324  18.905  29.199  28.087  0.1129 -0.1002 -0.0021
97413W        W40325  19.668  31.755  28.062 -0.0558 -0.0717  0.2627
97414W        W40326  18.181  28.969  31.760 -0.3924 -0.1235  0.2521
97415W        W40327  18.070  29.642  27.979 -0.0425  0.2475  0.0275
97416W        W40328  20.572  30.661  28.097 -0.0111 -0.2601  0.4128
97417W        W40329  20.586  31.926  28.079  0.1122 -0.0091  0.2243
97418W        W40330  19.981  28.087  29.768 -0.1975 -0.0051 -0.2252
97419W        W40331  21.042  32.535  30.530 -0.0451 -0.2291  0.0091
97420W        W40332  16.403  31.886  27.556 -0.0010  0.3284  0.0707
97421W        W40333  20.451  30.590   0.469 -0.4353  0.1590 -0.0391
97422W        W40334  20.056  28.233   0.038  0.1587 -0.2026 -0.0767
97423W        W40335  16.820  31.159  27.128 -0.2146 -0.0258 -0.0550
97424W        W40336  20.151  30.992  31.040 -0.0777 -0.0971  0.2367
97425W        W40337  18.910  31.909  29.331  0.1574  0.2801 -0.7114
97426W        W40338  21.326  32.678  28.479 -0.1318 -0.0443 -0.0196
97427W        W40339  19.400  31.605  30.816 -0.0307  0.1887 -0.0025
97428W        W40340  19.362  32.284  30.154  0.2120 -0.0585 -0.2657
97429W        W40341  19.004  30.597  31.206  0.1184 -0.0774  0.0563
97430W        W40342  19.386  31.067  27.691 -0.0190  0.1138 -0.0727
97431W        W40343  21.424  31.969  30.745 -0.0883  0.1295 -0.3856
97432W        W40344  20.946  31.280  28.061  0.1346  0.0976  0.1177
97433W        W40345  20.434  30.629  30.138 -0.0171 -0.1081  0.0040
97434W        W40346  20.725  29.371  28.237  0.0496 -0.0005 -0.2538
97435W        W40347  18.457  28.620  30.963  0.1802  0.0813 -0.1790
97436W        W40348  18.307  31.888  30.180 -0.1311  0.1452 -0.1482
97437W        W40349  21.016  31.219  30.002  0.2536 -0.3170  0.0497
97438W        W40350  19.666  28.655  29.685  0.1012 -0.1756 -0.1977
97439W        W40351  20.208  27.615  29.119  0.1827 -0.1806 -0.1027
97440W        W40352  19.409  32.085  29.301  0.0787 -0.2785 -0.2289
97441W        W40353  18.825  31.123  30.086  0.0088 -0.2526  0.1614
97442W        W40354  19.760  29.224  29.834 -0.1552 -0.2989 -0.0032
97443W        W40355  19.245  31.059  29.677  0.2771  0.0560 -0.1355
97444W        W40356  20.584  31.270  29.400 -0.1790 -0.3279 -0.1478
97445W        W40357  20.441  32.049  31.326  0.1074  0.1890  0.1440
97446W        W40358  19.324  30.009  29.546 -0.0825 -0.0356 -0.0984
97447W        W40359  21.830  31.455  27.521  0.0233 -0.0318 -0.0440
97448W        W40360  21.688  30.589  30.208 -0.0012 -0.2286 -0.2951
97449W        W40361  21.914  32.263  31.556 -0.1852 -0.0689  0.2280
97450W        W40362  19.898  31.721  30.622  0.2514 -0.0081 -0.1330
97451W        W40363  20.715  30.863  29.748 -0.3469  0.2499 -0.1707
97452W        W40364  19.652  28.901  27.440 -0.0627 -0.2524  0.1238
97453W        W40365  18.727  30.875  28.362 -0.1056 -0.3304  0.2303
97454W        W40366  19.629  30.743  28.156 -0.0801 -0.2192 -0.0945
97455W        W40367  21.637  30.537  29.710  0.2387  0.0288  0.2405
97456W        W40368  18.825  29.659  28.830 -0.0194 -0.2190 -0.1766
97457W        W40369  21.213  28.406  27.902  0.0840  0.0360  0.1641
97458W        W40370  17.503  31.285  31.079 -0.0961  0.1236 -0.1014
97459W        W40371  19.157  30.828  30.235  0.0972  0.2476  0.2847
97460W        W40372  19.850  29.736  31.122  0.0863 -0.0476  0.2957
97461W        W40373  20.008  31.712  31.476  0.0554 -0.0367  0.3129
97462W        W40374  18.157  29.529  31.711  0.0913  0.0163  0.3544
97463W        W40375  18.382  32.548   0.186 -0.1269  0.1115 -0.0865
97464W        W40376  19.560  31.879  31.236 -0.0746 -0.1790 -0.0747
97465W        W40377  18.009  31.429  31.181  0.0055 -0.1108 -0.0814
97466W        W40378  22.085  31.968   0.369 -0.1750 -0.3271  0.1925
97467W        W40379  18.819  30.078   0.226 -0.2529  0.0251 -0.3263
97468W        W40380  20.189  30.016  31.489  0.0553  0.0281 -0.1782
97469W        W40381  21.680  31.454  31.182 -0.1681 -0.1458 -0.1172
97470W        W40382  19.867  33.012  30.874  0.0426  0.2984 -0.0783
97471W        W40383  18.839  27.031  29.904 -0.0553 -0.2240  0.0164
97472W        W40384  20.951  31.302  31.420 -0.1909  0.0627  0.2562
97473W        W40385  20.098  31.544  31.028 -0.2133 -0.1066 -0.1715
97474W        W40386  21.443  30.529   0.360 -0.2500  0.0560 -0.3612
97475W        W40387  17.419  32.640   0.356  0.0871  0.2633  0.0902
97476W        W40388  19.714  31.362  31.749  0.3755 -0.2650  0.2305
97477W        W40389  19.714  31.245   0.324 -0.1209  0.0122 -0.0366
97478W        W40390  17.728  27.769  30.623 -0.0143 -0.4194  0.3677
97479W        W40391  17.347  30.092  31.288  0.2600 -0.1285 -0.0557
97480W        W40392  18.686  28.435  30.503 -0.1472  0.1120 -0.0277
97481W        W40393  17.986  32.894  31.188 -0.2026  0.1818  0.0140
97482W        W40394  21.421  29.151  31.405  0.1158 -0.0733  0.4241
97483W        W40395  19.211  29.590  31.689  0.1069 -0.0155 -0.0381
97484W        W40396  20.359  29.391   0.869 -0.0131  0.0639  0.0034
97485W        W40397  21.078  29.541   0.555  0.0049  0.2235  0.2479
97486W        W40398  19.036  30.159  31.671 -0.0605  0.0716 -0.0665
97487W        W40399  17.081  32.808   1.209  0.1287 -0.0880  0.2063
97488W        W40400  18.394  30.020  31.726  0.2703  0.4528 -0.0813
97489W        W40401  19.393  31.528   1.169  0.1500  0.0732 -0.4176
97490W        W40402  18.753  31.613  30.270 -0.3309  0.1388 -0.2859
97491W        W40403  17.937  30.558  29.366 -0.0883 -0.2925 -0.0573
97492W        W40404  20.422  31.527  30.602  0.1337  0.0008 -0.0652
97493W        W40405  21.262  30.017   0.394  0.0367 -0.3038 -0.1728
97494W        W40406  17.968  31.425   0.548 -0.1548  0.0740 -0.0363
97495W        W40407  19.643  31.382  31.221  0.6627  0.3126  0.0701
97496W        W40408  19.352  32.264  30.775  0.1096  0.3126  0.1286
97497W        W40409  19.734  32.452  31.008  0.0294  0.0261 -0.0508
97498W        W40410  20.582  30.950   0.913 -0.2169 -0.0691  0.3288
97499W        W40411  19.868  30.247  31.928  0.1386 -0.2172  0.1819
97500W        W40412  21.648  30.127   0.027 -0.3206  0.1490  0.2567
97501W        W40413  20.095  30.356   0.778 -0.2668  0.2630 -0.1917
97502W        W40414  19.406  30.514  31.646  0.0402 -0.2926 -0.0697
97503W        W40415  21.314  31.691   0.713  0.5447  0.1256  0.3514
97504W        W40416  16.945  29.865  31.537 -0.2487 -0.1642  0.1169
97505W        W40417  17.985  31.014  31.596 -0.3578 -0.3127  0.1028
97506W        W40418  21.199  29.301  30.924  0.0244  0.0493 -0.0823
97507W        W40419  18.948  30.285  30.593  0.0553  0.0702  0.1397
97508W        W40420  20.908  31.885  31.455 -0.2629  0.2822 -0.2236
97509W        W40421  19.522  32.501  31.480 -0.0688 -0.2600 -0.0006
97510W        W40422  22.092  31.542  29.770  0.3112 -0.0152  0.1048
97511W        W40423  20.704  28.689  31.590  0.2641 -0.2740 -0.2315
97512W        W40424  19.197  29.732   0.198  0.0031 -0.1033  0.3334
97513W        W40425  18.619  30.438  31.827  0.0711 -0.2015 -0.4202
97514W        W40426  19.696  31.193   0.942  0.0978 -0.0776  0.2567
97515W        W40427  19.444  30.607   0.550 -0.2245 -0.1677 -0.1149
97516W        W40428  21.989  31.186  29.479  0.2062 -0.2014  0.1264
97517W        W40429  19.272  32.563  31.911  0.1636 -0.0550 -0.0042
97518W        W40430  20.250  32.097  30.379 -0.3486  0.3603 -0.1416
97519W        W40431  19.262  31.103   0.543 -0.1018 -0.0240  0.0294
97520W        W40432  17.698  30.370  31.643 -0.0261  0.5059 -0.2039
97521W        W40433  17.271  29.593  31.283  0.0741 -0.0464  0.0879
97522W        W40434  18.515  30.836  31.233  0.0014  0.2289  0.1009
97523W        W40435  18.643  27.868  30.487  0.0364 -0.4107 -0.0584
97524W        W40436  20.429  32.842  31.480 -0.1311  0.1066  0.0485
97525W        W40437  21.974  33.153  31.825  0.0836  0.3056 -0.2203
97526W        W40438  19.727  30.859  31.585 -0.2875 -0.4530 -0.3408
97527W        W40439  18.704  33.234  17.055 -0.2527 -0.2373 -0.1619
97528W        W40440  19.946  33.331  16.256 -0.2855  0.1455  0.1953
97529W        W40441  21.582   0.078  17.267  0.1812  0.0375 -0.0575
97530W        W40442  19.320  33.950  17.046  0.0455  0.1044 -0.0035
97531W        W40443  19.791  32.529  19.269  0.0555  0.4229  0.0167
97532W        W40444  20.577   0.478  17.298 -0.2020 -0.0004 -0.0165
97533W        W40445  20.053  33.224  19.120  0.2468 -0.0273  0.1509
97534W        W40446  19.787  34.030  16.348 -0.2017  0.0518 -0.0342
97535W        W40447  17.906  33.681  17.573 -0.2575  0.2390  0.0390
97536W        W40448  20.666  34.345  17.073  0.3445  0.1626 -0.2049
97537W        W40449  19.864  34.535  16.397  0.1662 -0.2249 -0.3146
97538W        W40450  19.378  33.263  17.562  0.3664  0.1165  0.3300
97539W        W40451  20.100  33.267  15.748 -0.0212  0.3309 -0.0422
97540W        W40452  19.177  33.184  18.404  0.1879 -0.0848 -0.4686
97541W        W40453  19.073  32.776  18.728 -0.3083  0.1971 -0.0776
97542W        W40454  18.509  34.016  15.812 -0.0208 -0.1523 -0.1968
97543W        W40455  18.284  31.773  18.412 -0.2312  0.1313 -0.2229
97544W        W40456  20.325  34.206  18.012 -0.2293  0.1137  0.2406
97545W        W40457  20.895   0.006  18.430 -0.0760  0.1342  0.0340
97546W        W40458  21.480  33.972  17.970 -0.3799 -0.1976 -0.0451
97547W        W40459  20.683  33.268  20.851 -0.1604 -0.0797 -0.1833
97548W        W40460  19.317   1.232  18.656  0.1465  0.0263  0.3512
97549W        W40461  20.563   0.328  16.736  0.0819  0.0541 -0.0222
97550W        W40462  20.903  34.555  19.937  0.1228  0.2430  0.0476
97551W        W40463  20.898  33.909  17.176  0.3768  0.2023  0.3808
97552W        W40464  17.554  33.788  15.167 -0.1244  0.0774 -0.0579
97553W        W40465  21.042  33.395  17.153 -0.2899 -0.0462 -0.0261
97554W        W40466  20.104  32.895  18.784 -0.0214 -0.3339  0.1187
97555W        W40467  18.650  32.575  17.759 -0.3311 -0.2159  0.1390
97556W        W40468  19.534  34.061  19.125 -0.1498  0.4060  0.0222
97557W        W40469  20.275   0.604  16.522  0.0434  0.2163  0.0356
97558W        W40470  18.346  32.856  16.859  0.1247  0.0327 -0.0667
97559W        W40471  19.570  34.096  15.454  0.2074 -0.0396  0.1644
97560W        W40472  19.228  33.793  19.741 -0.4222  0.0597  0.3236
97561W        W40473  18.494  33.628  21.004 -0.1076 -0.0312  0.3257
97562W        W40474  19.735  31.486  16.358 -0.4303 -0.3331 -0.1431
97563W        W40475  21.617  34.256  17.570  0.3372  0.1578 -0.0460
97564W        W40476  21.186  32.840  19.225  0.3798  0.3700  0.4308
97565W        W40477  21.119  32.943  20.024  0.1556 -0.0172 -0.0390
97566W        W40478  21.790  34.237  16.513 -0.0444 -0.3925  0.1054
97567W        W40479  20.020  33.396  19.724 -0.0439 -0.2824 -0.1419
97568W        W40480  18.023  34.592  17.795 -0.1395  0.4431  0.3530
97569W        W40481  22.001  34.629  16.210  0.0606 -0.3612  0.0590
97570W        W40482  19.475  33.118  18.055 -0.1486 -0.2044  0.2585
97571W        W40483  20.290  31.294  18.163 -0.0279  0.1801 -0.1280
97572W        W40484  22.390  33.612  16.632 -0.0059 -0.3511  0.0880
97573W        W40485  16.584  33.311  17.831  0.1997  0.0241  0.0559
97574W        W40486  18.202  32.053  18.026 -0.3550 -0.2827  0.0668
97575W        W40487  20.220  32.923  19.520 -0.0387 -0.3665  0.1072
97576W        W40488  18.992  32.358  18.209  0.1655  0.0413 -0.2761
97577W        W40489  21.076   0.211  17.998 -0.2512 -0.1743 -0.0792
97578W        W40490  18.978  33.184  16.132 -0.0613  0.0905 -0.2317
97579W        W40491  19.533  34.409  18.157 -0.2532 -0.0176  0.0004
97580W        W40492  19.759   0.710  16.881 -0.1534 -0.1062 -0.1199
97581W        W40493  20.629  34.159  19.213 -0.0968 -0.2526  0.0962
97582W        W40494  20.171  33.876  19.794 -0.2257 -0.2550  0.2070
97583W        W40495  18.260  34.320  15.416 -0.2260  0.3150 -0.1260
97584W        W40496  19.438  33.021  16.305 -0.0205 -0.0797  0.1014
97585W        W40497  20.490  32.127  19.967 -0.2803 -0.1704  0.2200
97586W        W40498  19.313  33.766  17.667  0.0300 -0.0041 -0.2040
97587W        W40499  19.618  32.451  16.268 -0.1994 -0.0394 -0.1823
97588W        W40500  19.737  34.643  15.673  0.0216 -0.1661 -0.0837
97589W        W40501  20.746  32.758  18.759  0.0267  0.2856 -0.3122
97590W        W40502  18.562  34.416  18.656  0.1087  0.0654  0.1365
97591W        W40503  20.953  34.053  18.132  0.3152 -0.0001 -0.0674
97592W        W40504  19.956  34.219  15.774  0.0568 -0.1272  0.1871
97593W        W40505  21.809  33.290  16.293  0.0327  0.2929 -0.0703
97594W        W40506  21.358  33.543  16.149  0.0699 -0.1638  0.1615
97595W        W40507  19.982   0.242  16.014 -0.0272 -0.1781 -0.1144
97596W        W40508  19.136  33.390  15.702  0.1313  0.1413 -0.2353
97597W        W40509  21.344  34.292  15.772 -0.0722  0.1795 -0.0367
97598W        W40510  20.156  33.338  17.165 -0.4115 -0.0353 -0.4406
97599W        W40511  19.064  33.668  16.167 -0.0622  0.1172 -0.2487
97600W        W40512  20.415  33.272  17.757  0.5100  0.1352 -0.2470
97601W        W40513  20.218  33.321  18.233  0.0279 -0.3729 -0.0386
97602W        W40514  20.735  33.355  18.147  0.2903  0.1768 -0.0924
97603W        W40515  19.840  32.667  17.424  0.1395 -0.2294 -0.0352
97604W        W40516  21.163  33.673  18.561  0.3022 -0.2521  0.0972
97605W        W40517  20.383   0.171  16.331 -0.0222  0.2348 -0.0768
97606W        W40518  19.308  34.263  17.714 -0.0332  0.1872 -0.0282
97607W        W40519  18.883   0.927  16.304  0.5451 -0.1862 -0.1326
97608W        W40520  20.558  33.767  17.871 -0.0109  0.0396  0.1593
97609W        W40521  20.088  33.086  20.110 -0.2672 -0.0677 -0.2069
97610W        W40522  19.503  34.297  15.981  0.1578 -0.1746  0.0803
97611W        W40523  20.281  34.119  16.642 -0.2793  0.2323  0.3576
97612W        W40524  21.125  32.549  19.683  0.2015  0.1819  0.0442
97613W        W40525  18.634  33.911  16.267 -0.2006  0.0475 -0.1977
97614W        W40526  18.052  32.963  17.701  0.4267  0.0751  0.2243
97615W        W40527  21.227  32.567  17.779  0.1460  0.0317  0.1311
97616W        W40528  18.629  32.231  20.071  0.0382  0.2435 -0.2189
97617W        W40529  19.721  34.050  17.876 -0.1215  0.0820 -0.0903
97618W        W40530  21.025  34.404  18.929 -0.1394  0.0328  0.0941
97619W        W40531  21.439  32.997  16.232  0.1708 -0.1003  0.2579
97620W        W40532  17.798   0.783  20.333 -0.0720  0.1380  0.0920
97621W        W40533  18.866  34.150  16.666  0.1107 -0.0166 -0.3483
97622W        W40534  20.857  33.690  19.481 -0.2010  0.1427 -0.1578
97623W        W40535  18.882  33.439  17.552  0.1229  0.0425 -0.1215
97624W        W40536  18.995   0.069  15.212 -0.1936 -0.0696 -0.0672
97625W        W40537  19.745  33.017  19.500 -0.1796  0.1522 -0.1208
97626W        W40538  20.713   1.471  18.809  0.1146  0.2368 -0.1640
97627W        W40539  20.977  33.077  16.518 -0.3537  0.2110  0.0127
97628W        W40540  19.652   0.439  17.401 -0.0591 -0.2839  0.4518
97629W        W40541  19.405  34.525  18.951 -0.0735  0.1500  0.0513
97630W        W40542  20.773  34.088  18.656  0.0567 -0.2082  0.2041
97631W        W40543  22.062   2.207  21.274 -0.3297 -0.1021  0.1928
97632W        W40544  19.713  33.931  19.632 -0.2594 -0.2619 -0.1001
97633W        W40545  21.535  32.745  15.636  0.0553  0.2169 -0.1729
97634W        W40546  20.010  33.769  18.623 -0.2402  0.2519 -0.1957
97635W        W40547  21.470  33.334  18.912 -0.1534 -0.2058  0.0517
97636W        W40548  21.582   0.149  16.431  0.2080 -0.1417 -0.2337
97637W        W40549  19.587  33.445  20.053  0.0948 -0.1752  0.3378
97638W        W40550  18.486  32.517  19.555  0.2435  0.0937 -0.1386
97639W        W40551  18.135  32.566  17.995  0.1249 -0.0728  0.2494
97640W        W40552  17.955  34.311  19.969  0.1174 -0.1674  0.4657
97641W        W40553  20.411  33.621  15.937 -0.1432  0.1902 -0.1219
97642W        W40554  18.968  32.968  17.354  0.1124 -0.0496 -0.2038
97643W        W40555  19.958   3.136  18.175  0.0059 -0.1111  0.0094
97644W        W40556  21.901  33.676  16.662 -0.2491 -0.0958 -0.1775
97645W        W40557  18.932  34.365  18.046 -0.0555  0.1933  0.3673
97646W        W40558  21.387  33.946  16.927 -0.1598 -0.0618  0.2432
97647W        W40559  18.962  32.986  19.248  0.0788  0.1789 -0.1473
97648W        W40560  19.627  33.331  15.900 -0.0202 -0.1690  0.0347
97649W        W40561  20.448  33.229  18.659 -0.0567 -0.2961  0.0293
97650W        W40562  20.573  34.682  18.839  0.4784 -0.0448  0.0066
97651W        W40563  19.960   0.784  19.119 -0.1051  0.1161 -0.0098
97652W        W40564  18.973  32.076  17.758 -0.1282  0.0882 -0.0867
97653W        W40565  22.029   0.260  16.543 -0.0271 -0.0364  0.1115
97654W        W40566  21.339  34.142  18.624  0.2299  0.1000 -0.1688
97655W        W40567  22.859  32.595  17.008 -0.1262  0.0513  0.3725
97656W        W40568  19.715  33.535  17.208  0.1757 -0.1505  0.1369
97657W        W40569  19.894  33.773  15.966  0.2337  0.1757  0.0405
97658W        W40570  21.030   0.308  19.620 -0.1382 -0.1121  0.1853
97659W        W40571  20.075  34.371  17.118  0.1589 -0.0104 -0.2846
97660W        W40572  20.407  33.494  20.145 -0.0273 -0.2293 -0.0088
97661W        W40573  20.796  34.349  15.875 -0.1099 -0.0724 -0.0056
97662W        W40574  18.539  33.081  17.707  0.1575  0.1886 -0.3090
97663W        W40575  19.074   1.305  16.552 -0.1611 -0.0769  0.1167
97664W        W40576  19.344   0.587  15.976  0.1012 -0.2984 -0.0051
97665W        W40577  18.804  32.745  16.235 -0.2595 -0.2169  0.0536
97666W        W40578  19.321  34.051  20.870 -0.1996 -0.0870 -0.1759
97667W        W40579  20.322  32.290  18.109  0.1515 -0.1376 -0.0636
97668W        W40580  18.902  32.437  17.382  0.1144  0.2515 -0.0668
97669W        W40581  21.529  34.489  16.858 -0.0381  0.2347  0.0807
97670W        W40582  20.167   0.603  17.970 -0.2491  0.3341 -0.1879
97671W        W40583  21.805   0.750  19.155  0.4641 -0.1475  0.0800
97672W        W40584  18.813  32.875  19.712 -0.0012  0.1506  0.0632
97673W        W40585  17.901  33.283  18.495  0.1411  0.0933  0.1668
97674W        W40586  18.457  33.563  16.717 -0.1488 -0.1512  0.1416
97675W        W40587  20.055  34.359  17.641 -0.2244 -0.3640  0.1870
97676W        W40588  20.913  32.890  16.087 -0.0863 -0.1087  0.2015
97677W        W40589  21.108  33.593  16.560 -0.0162 -0.0302 -0.2124
97678W        W40590  21.900  33.021  15.867  0.0592 -0.0793  0.1667
97679W        W40591  19.524  34.133  18.608 -0.1350  0.1419  0.1496
97680W        W40592  20.063  31.834  15.443  0.1583  0.2658  0.1757
97681W        W40593  20.181  32.792  17.909 -0.2061  0.0276  0.0011
97682W        W40594  21.099  34.152  19.396 -0.2309  0.1107  0.2076
97683W        W40595  18.513  34.654  16.808 -0.0957  0.2656  0.2044
97684W        W40596  19.167  33.453  17.083 -0.1554  0.0178 -0.3763
97685W        W40597  21.832  32.944  18.064  0.0627  0.0712 -0.3413
97686W        W40598  19.520  33.677  18.280  0.0394  0.2888  0.2952
97687W        W40599  18.342  34.148  16.612 -0.2534 -0.1228 -0.2928
97688W        W40600  21.993   0.113  18.359  0.1219  0.0620 -0.1140
97689W        W40601  19.180  34.470  18.532 -0.1091  0.0768 -0.0698
97690W        W40602  20.576  33.703  18.829 -0.2665 -0.0624  0.0023
97691W        W40603  20.921   0.163  16.151 -0.2399  0.0242 -0.2821
97692W        W40604  20.609  34.130  17.534 -0.4165 -0.1612  0.0585
97693W        W40605  19.523  33.435  19.253  0.2967  0.2193  0.0491
97694W        W40606  20.282  34.211  16.169 -0.1442 -0.3072  0.4094
97695W        W40607  21.290  34.444  18.019  0.1011 -0.0276  0.2359
97696W        W40608  20.512   1.982  17.686  0.0035 -0.0934 -0.0815
97697W        W40609  20.370  33.669  16.455  0.4202 -0.1040 -0.0555
97698W        W40610  20.433  34.135  15.571  0.0168 -0.3974  0.2361
97699W        W40611  20.093   0.158  17.794 -0.1413 -0.1586  0.3397
97700W        W40612  18.924  33.433  19.566 -0.2706 -0.2137 -0.2356
97701W        W40613  19.084  32.208  16.961 -0.0759 -0.5837 -0.0401
97702W        W40614  21.860   0.380  17.621 -0.2550  0.3388  0.1730
97703W        W40615  19.740   0.906  17.326 -0.1994 -0.3985  0.0291
97704W        W40616  19.028  32.990  17.907  0.1946  0.1235  0.3445
97705W        W40617  20.198   0.358  15.452 -0.0583  0.1086 -0.1291
97706W        W40618  18.733  32.787  18.333  0.0404 -0.0242  0.1015
97707W        W40619  20.412  32.663  16.383  0.1694 -0.4365  0.5349
97708W        W40620  19.807  33.327  18.731 -0.2163 -0.2730 -0.0944
97709W        W40621  21.066  32.292  18.781  0.1385  0.5495 -0.1206
97710W        W40622  21.267  32.217  17.449 -0.1589  0.1157  0.2562
97711W        W40623  20.073  33.898  17.488 -0.1168  0.1211 -0.0498
97712W        W40624  21.474  33.254  16.726  0.0595  0.0799  0.1630
97713W        W40625  21.633  32.853  17.606  0.0456  0.1884 -0.0038
97714W        W40626  19.136  33.995  18.326 -0.0431  0.1502  0.3514
97715W        W40627  18.291  34.472  15.883 -0.2068  0.1459  0.4177
97716W        W40628  18.410  32.671  20.049  0.1083  0.1409 -0.0368
97717W        W40629  18.504  33.333  19.917  0.0909  0.3516  0.1895
97718W        W40630  20.032  34.584  18.202 -0.1917 -0.2133 -0.0840
97719W        W40631  19.168  32.243  16.245  0.1966  0.1456  0.0058
97720W        W40632  18.962  32.403  19.545  0.0990 -0.5575 -0.0661
97721W        W40633  17.394  33.656  17.354  0.3744 -0.2700 -0.0329
97722W        W40634  18.965  33.495  16.596 -0.4367  0.2173 -0.1275
97723W        W40635  19.447   0.230  19.351 -0.5041  0.0483  0.3793
97724W        W40636  19.355  31.688  18.575  0.3166  0.0047 -0.3484
97725W        W40637  18.923  34.661  16.516 -0.0442 -0.2561  0.2287
97726W        W40638  19.400  32.717  17.595  0.0838 -0.6782  0.0352
97727W        W40639  18.741  33.901  19.573  0.1333 -0.0551 -0.1289
97728W        W40640  20.295  33.859  17.073 -0.1350 -0.0279  0.0560
97729W        W40641  20.270  34.630  16.762 -0.0466 -0.2060 -0.0780
97730W        W40642  19.509  32.878  20.002  0.0141  0.1188 -0.1090
97731W        W40643  19.545  33.484  16.456 -0.1510 -0.2992  0.1972
97732W        W40644  20.885  33.407  16.183  0.0440 -0.0877 -0.3432
97733W        W40645  18.676  33.526  19.156 -0.2433  0.1884  0.1480
97734W        W40646  19.845  33.194  16.741  0.4046  0.0113 -0.2689
97735W        W40647  19.933  33.782  19.178 -0.2851 -0.0057  0.1028
97736W        W40648  19.782   0.536  15.694  0.1653 -0.0402  0.0396
97737W        W40649  20.116   1.998  16.762 -0.5064  0.2001 -0.1323
97738W        W40650  18.827  32.072  19.085  0.0705 -0.2399  0.1147
97739W        W40651  19.137   0.045  15.934  0.3951 -0.1812  0.1392
97740W        W40652  19.266   0.840  17.235 -0.1909 -0.1636  0.0775
97741W        W40653  21.070  33.851  19.004 -0.0735  0.0791 -0.3577
97742W        W40654  19.724  34.162  16.825 -0.0670  0.3299 -0.1222
97743W        W40655  21.050  32.496  16.508 -0.0470 -0.0311 -0.1275
97744W        W40656  18.419  33.557  20.357  0.1908 -0.1840  0.2724
97745W        W40657  20.527   0.430  19.558 -0.0132  0.0338 -0.2452
97746W        W40658  20.225  34.340  21.586  0.1662 -0.0450  0.3316
97747W        W40659  18.062  33.923  19.127 -0.3681  0.3722  0.0693
97748W        W40660  18.385  32.188  21.860 -0.0704 -0.0984 -0.4290
97749W        W40661  20.351  34.610  19.322 -0.2349 -0.1707 -0.2953
97750W        W40662  18.556  33.776  22.392 -0.0186 -0.0341  0.2174
97751W        W40663  20.548  32.438  22.709  0.0375 -0.0898  0.1683
97752W        W40664  18.070  32.405  22.352 -0.1896  0.0150 -0.3482
97753W        W40665  21.341   0.423  21.880 -0.0847  0.1695 -0.0036
97754W        W40666  17.924  33.903  19.632  0.2335  0.1514  0.1650
97755W        W40667  19.638  34.419  22.674  0.1872  0.2522  0.2882
97756W        W40668  19.927  32.740  20.391  0.1508 -0.0637  0.1140
97757W        W40669  17.560  32.211  23.645 -0.2292 -0.0453 -0.1538
97758W        W40670  20.276  33.896  22.655 -0.0562  0.2234 -0.0066
97759W        W40671  19.211  33.264  18.879 -0.0927 -0.0326 -0.0657
97760W        W40672  17.443  33.704  20.908 -0.2523  0.0366  0.1866
97761W        W40673  19.451  33.769  21.472 -0.0004 -0.0826  0.2734
97762W        W40674  21.762  34.300  21.736  0.0997 -0.1745  0.0567
97763W        W40675  20.508  33.869  21.518  0.1740  0.1456  0.1763
97764W        W40676  19.521   0.904  24.131  0.4142  0.0008  0.5533
97765W        W40677  19.818   1.358  22.774 -0.0047  0.0887 -0.0198
97766W        W40678  20.349  33.476  21.222 -0.0177  0.0177  0.2699
97767W        W40679  22.700  33.165  23.796 -0.0320  0.0862  0.4342
97768W        W40680  19.529  34.284  20.412  0.1528  0.1233 -0.4176
97769W        W40681  20.643  32.528  21.135 -0.0614  0.3048 -0.0800
97770W        W40682  21.168  31.865  20.721  0.3577  0.2666  0.1798
97771W        W40683  19.553  32.499  21.301  0.3494  0.0452 -0.1071
97772W        W40684  19.342  34.488  21.328  0.0412 -0.0882  0.1681
97773W        W40685  19.900  34.100  20.736 -0.0409 -0.3108  0.0430
97774W        W40686  19.143  34.372  22.672 -0.2352  0.2944  0.4702
97775W        W40687  18.129  33.997  20.440  0.2810 -0.2714  0.0925
97776W        W40688  19.025  34.651  20.919  0.1423 -0.2212 -0.0268
97777W        W40689  18.612  33.099  22.371 -0.0691 -0.1737 -0.1313
97778W        W40690  19.253   0.181  22.529  0.0335  0.2848 -0.4128
97779W        W40691  17.497  33.331  20.136 -0.1565  0.1020  0.1900
97780W        W40692  20.949  33.749  21.736 -0.0418 -0.2743  0.0010
97781W        W40693  20.379  32.984  21.063  0.0572  0.2623 -0.2328
97782W        W40694  20.206  32.462  24.348  0.4573  0.2249 -0.0052
97783W        W40695  20.766  33.851  20.496 -0.0364  0.2836  0.1096
97784W        W40696  18.807  33.472  22.696 -0.2632 -0.1441 -0.5087
97785W        W40697  20.197  33.983  21.191 -0.2303  0.0339  0.0449
97786W        W40698  22.284  34.199  20.572 -0.2208  0.1357 -0.0339
97787W        W40699  18.003  32.578  23.431  0.2679  0.1292 -0.0528
97788W        W40700  20.918  32.939  21.304  0.2505 -0.0650  0.2318
97789W        W40701  20.637  34.246  21.217  0.3688  0.2400 -0.1533
97790W        W40702  18.818  33.037  23.436 -0.1532  0.1033  0.1059
97791W        W40703  19.413  33.383  21.037 -0.1342  0.3875  0.0999
97792W        W40704  19.477  32.819  22.207  0.0720 -0.0235 -0.3241
97793W        W40705  17.977  33.426  20.955  0.0297  0.1264  0.0555
97794W        W40706  20.987  33.615  22.892  0.0024 -0.0987 -0.0263
97795W        W40707  18.468   0.655  20.251 -0.2398 -0.3256 -0.1374
97796W        W40708  19.604  33.661  20.639  0.0146 -0.0621 -0.1163
97797W        W40709  19.321   0.284  21.241  0.1872 -0.0022 -0.0810
97798W        W40710  21.442  33.352  22.911  0.3606 -0.5812  0.0038
97799W        W40711  19.668  33.278  23.266 -0.3565 -0.0291  0.1797
97800W        W40712  19.866  32.529  20.831 -0.0352  0.0724  0.3691
97801W        W40713  19.944  33.206  20.915  0.1847  0.4817  0.1850
97802W        W40714  19.919  31.427  23.537 -0.0694 -0.1230 -0.1946
97803W        W40715  20.245  33.987  21.946 -0.0719  0.3490  0.1360
97804W        W40716  18.348  33.176  20.747  0.2220  0.0005  0.2268
97805W        W40717  19.796   0.580  21.374 -0.2409  0.0683  0.5055
97806W        W40718  20.153  33.603  20.741 -0.1733  0.0752  0.0547
97807W        W40719  19.155  33.110  22.450 -0.0135  0.1401  0.1819
97808W        W40720  20.843  33.843  23.362 -0.0995  0.0697 -0.0855
97809W        W40721  19.333   1.139  21.082  0.4435  0.2707  0.2384
97810W        W40722  20.788  34.280  21.677  0.2889 -0.0058 -0.0546
97811W        W40723  21.850  33.367  20.226  0.2115  0.0324 -0.1073
97812W        W40724  21.502  33.636  21.067 -0.1593 -0.2535  0.1624
97813W        W40725  20.923  33.414  19.889 -0.0054 -0.0963  0.1660
97814W        W40726  20.605  33.021  19.993 -0.2380  0.0793 -0.1330
97815W        W40727  19.086  33.087  21.932  0.2927  0.1565 -0.2887
97816W        W40728  19.145  34.162  19.366 -0.0115  0.0292  0.1333
97817W        W40729  20.658  31.742  21.879  0.2198 -0.1511 -0.0952
97818W        W40730  21.118  32.994  22.923  0.3013  0.1137  0.0916
97819W        W40731  19.232  33.037  23.134  0.0565 -0.2216  0.3446
97820W        W40732  16.919  33.875  21.433 -0.1789  0.2477  0.1314
97821W        W40733  21.871   0.608  23.453 -0.1013  0.1545  0.4043
97822W        W40734  22.457  33.411  19.076  0.0781 -0.4257  0.3344
97823W        W40735  20.611  33.782  20.979  0.1236  0.2132 -0.0632
97824W        W40736  18.278  34.245  19.518  0.1584 -0.2344  0.0754
97825W        W40737  19.848  32.405  23.219  0.2082  0.3001 -0.2320
97826W        W40738  20.027  33.653  23.103 -0.0944 -0.2517 -0.0818
97827W        W40739  19.777  33.227  20.446  0.2103  0.0147  0.3241
97828W        W40740  19.710  32.533  22.578  0.0387  0.0348 -0.0266
97829W        W40741  20.977  32.272  23.030  0.1039  0.0498 -0.1750
97830W        W40742  18.927  33.365  20.741 -0.2455 -0.1274 -0.3049
97831W        W40743  17.916  33.927  20.839 -0.1509 -0.0237  0.0222
97832W        W40744  20.161  33.932  20.350  0.0322 -0.0271 -0.1456
97833W        W40745  18.445  34.103  21.294  0.1699 -0.0227 -0.0104
97834W        W40746  20.045  32.731  21.262  0.1321 -0.1902 -0.1638
97835W        W40747  20.105  32.863  22.588 -0.1998 -0.0096  0.1610
97836W        W40748  21.216  32.363  20.566 -0.2098  0.2528  0.1666
97837W        W40749  19.412  34.522  23.089 -0.1268 -0.1724  0.0167
97838W        W40750  18.026   0.324  19.493  0.1143  0.0766  0.1289
97839W        W40751  21.663  33.158  24.176  0.1415  0.0997 -0.0602
97840W        W40752  20.039  33.612  22.163 -0.1846 -0.3919  0.5203
97841W        W40753  18.739  34.401  19.753  0.3219  0.1712 -0.0049
97842W        W40754  18.948  33.453  22.208  0.3214  0.2601  0.1463
97843W        W40755  19.949  34.245  22.243 -0.4396 -0.0927  0.4765
97844W        W40756  18.618  34.250  20.277 -0.1320 -0.2282 -0.0912
97845W        W40757  21.075  32.900  22.175  0.2780 -0.4296 -0.0290
97846W        W40758  18.470  33.550  23.531 -0.0250  0.5106  0.3384
97847W        W40759  20.176  32.365  22.305 -0.1085 -0.0064 -0.2364
97848W        W40760  19.943   0.027  23.058  0.0424 -0.3187  0.0168
97849W        W40761  21.832  33.091  23.501 -0.0616  0.1064  0.0810
97850W        W40762  21.390  31.799  21.795 -0.2881 -0.4220  0.0276
97851W        W40763  19.677  33.857  21.926  0.1243  0.0441  0.0119
97852W        W40764  21.392  33.765  24.245  0.0829  0.1284  0.2072
97853W        W40765  21.034  34.627  20.433  0.4749 -0.1286 -0.2636
97854W        W40766  20.636  32.882  24.774 -0.1743 -0.3533 -0.2565
97855W        W40767  18.706  32.900  22.895 -0.3155  0.1550  0.0665
97856W        W40768  17.758  33.610  22.752 -0.1705  0.0321  0.2415
97857W        W40769  19.408  33.702  23.431 -0.0607  0.0089 -0.1983
97858W        W40770  19.797  34.203  21.293  0.1144  0.0420 -0.0454
97859W        W40771  19.666  31.931  20.007  0.0549  0.0854  0.0836
97860W        W40772  19.258   0.972  22.033  0.0325 -0.1743  0.0788
97861W        W40773  21.747  34.303  21.174 -0.0896  0.0241 -0.2785
97862W        W40774  18.796   0.592  21.692 -0.0024 -0.0910 -0.0271
97863W        W40775  20.029  34.487  20.480 -0.1075 -0.0377 -0.1608
97864W        W40776  19.208  32.672  22.673 -0.0994 -0.3337  0.0343
97865W        W40777  20.283  32.613  23.117  0.4088  0.0228  0.1910
97866W        W40778  20.159  33.161  23.090  0.3874 -0.0201  0.3649
97867W        W40779  20.656  34.077  22.975  0.0790  0.0124 -0.0804
97868W        W40780  20.041  33.424  22.609  0.2116  0.0421 -0.1339
97869W        W40781  18.218  32.559  24.257  0.0749 -0.0189  0.5568
97870W        W40782  19.173  32.578  20.528  0.0893 -0.2596  0.0875
97871W        W40783  21.901  33.236  22.769  0.0394  0.1054 -0.0093
97872W        W40784  19.283  34.253  19.975  0.0998  0.3177 -0.1368
97873W        W40785  19.941  33.182  21.465  0.0140 -0.0747 -0.1303
97874W        W40786  17.796  33.823  20.131 -0.0928 -0.1228 -0.1981
97875W        W40787  20.952  34.680  22.742 -0.2683 -0.0596 -0.3247
97876W        W40788  20.075  32.244  20.267 -0.1528  0.2777 -0.2692
97877W        W40789  19.033  31.864  23.161  0.1766  0.0556 -0.0472
97878W        W40790  20.354  32.502  20.679 -0.0366 -0.1152  0.1519
97879W        W40791  18.035  34.370  22.380 -0.3415 -0.1619 -0.2988
97880W        W40792  20.033  32.532  19.776 -0.0664  0.0479 -0.4159
97881W        W40793  19.185  34.613  19.562 -0.1128  0.1398 -0.0600
97882W        W40794  19.222  31.714  21.642 -0.1531 -0.0090  0.3192
97883W        W40795  22.174  33.447  23.733  0.1740  0.0803 -0.1522
97884W        W40796  19.384  33.445  22.836 -0.1690  0.1647 -0.1725
97885W        W40797  20.115  32.253  22.807  0.0168  0.4504 -0.0496
97886W        W40798  21.254  34.179  20.371 -0.0212  0.1700 -0.1683
97887W        W40799  20.310  33.519  23.576 -0.0009  0.2130 -0.2483
97888W        W40800  22.226  33.603  23.061  0.0028  0.2759 -0.0892
97889W        W40801  18.920   1.109  21.617 -0.1855 -0.0523 -0.3639
97890W        W40802  18.455   0.399  22.114  0.1330  0.1635 -0.0480
97891W        W40803  20.014  33.660  21.573  0.1988  0.2588  0.1352
97892W        W40804  20.453  32.220  21.816  0.2181  0.3158 -0.5530
97893W        W40805  21.417  34.206  19.911 -0.1618 -0.1970  0.2528
97894W        W40806  20.887  33.171  21.840  0.2061  0.1718  0.1641
97895W        W40807  21.599  33.157  20.814  0.2378  0.0588  0.0255
97896W        W40808  19.518  33.386  21.824  0.0550  0.0176 -0.0459
97897W        W40809  20.389  33.131  22.218  0.0627 -0.0532  0.1411
97898W        W40810  18.802   0.041  22.257  0.1249  0.1239 -0.2046
97899W        W40811  21.929  32.309  22.914  0.0098 -0.1043 -0.0245
97900W        W40812  19.586  32.407  20.174  0.2537  0.3222  0.2736
97901W        W40813  19.577  34.454  20.872  0.0978  0.0630  0.2291
97902W        W40814  21.612  32.849  23.108 -0.0100  0.0689  0.0939
97903W        W40815  20.239  34.598  23.415 -0.2166  0.2094 -0.2911
97904W        W40816  19.284  32.538  19.097  0.0817 -0.1702  0.3223
97905W        W40817  21.087  33.698  20.786  0.0069  0.0423 -0.0487
97906W        W40818  19.059  33.515  21.575  0.2475 -0.1348  0.3713
97907W        W40819  20.233  32.974  23.532 -0.0411  0.1426  0.0916
97908W        W40820  19.067   0.260  18.680  0.0971 -0.1234  0.2710
97909W        W40821  21.532  33.633  20.578  0.1694 -0.0412  0.2411
97910W        W40822  18.432  32.706  22.070 -0.1600  0.0397 -0.2464
97911W        W40823  19.273  33.170  19.723  0.3819 -0.2794 -0.1490
97912W        W40824  21.562  33.533  22.449 -0.2341  0.0176  0.0372
97913W        W40825  20.051  34.193  19.368 -0.0599  0.4464 -0.0592
97914W        W40826  17.790  32.445  20.647  0.2021  0.0551  0.2720
97915W        W40827  21.472  34.068  20.844 -0.4056  0.1164  0.0787
97916W        W40828  19.597   0.373  21.770  0.0257  0.0376 -0.1559
97917W        W40829  19.571   0.318  24.093  0.2366 -0.2395  0.0348
97918W        W40830  17.383  33.312  21.679  0.1039 -0.2732 -0.2535
97919W        W40831  22.531   0.274  21.638  0.3072  0.2574 -0.0721
97920W        W40832  21.412   0.675  21.046 -0.2402  0.0652  0.0149
97921W        W40833  19.556  33.463  22.292 -0.0157  0.2828  0.0585
97922W        W40834  19.279  32.688  21.759 -0.0055  0.2266 -0.0547
97923W        W40835  18.906  34.258  21.985 -0.1027  0.2370  0.0390
97924W        W40836  21.887  33.354  21.835 -0.0190  0.1837  0.0744
97925W        W40837  18.588  33.659  24.147  0.1354  0.2699 -0.1905
97926W        W40838  18.565  33.363  23.094 -0.0935 -0.0258  0.0334
97927W        W40839  19.026  33.370  20.144 -0.2351 -0.2468 -0.0287
97928W        W40840  18.551  34.584  21.028  0.2026  0.2148  0.0349
97929W        W40841  22.108  34.155  20.091 -0.2167  0.0400  0.1686
97930W        W40842  19.736  33.911  20.162 -0.4667  0.1177 -0.2558
97931W        W40843  19.184  34.687  21.875  0.0877 -0.1692  0.2629
97932W        W40844  17.066   0.240  19.677  0.0011  0.1540 -0.0076
97933W        W40845  19.375  32.224  22.443  0.1772 -0.0812  0.2913
97934W        W40846  18.697  34.247  22.418  0.0025 -0.1413 -0.1878
97935W        W40847  18.714   0.103  21.778 -0.0755  0.0291 -0.0438
97936W        W40848  20.328  33.047  20.547  0.1555 -0.1288 -0.0671
97937W        W40849  19.123  32.595  19.975 -0.2422 -0.2190 -0.1675
97938W        W40850  17.400  33.794  21.393  0.1554  0.1899 -0.0113
97939W        W40851  19.409  33.167  23.688  0.1415  0.1768  0.0942
97940W        W40852  19.423  33.614  23.956 -0.3012 -0.0324 -0.3178
97941W        W40853  18.106  33.696  23.073 -0.1426 -0.3945  0.2085
97942W        W40854  17.847  32.394  18.944 -0.3341 -0.0069  0.1733
97943W        W40855  19.995   0.288  23.614  0.1611 -0.0407 -0.0765
97944W        W40856  19.661  33.901  22.591 -0.0695  0.0699  0.0698
97945W        W40857  20.467  33.506  22.867 -0.1573  0.3099 -0.0499
97946W        W40858  19.320  34.692  20.516  0.2138  0.0053  0.2228
97947W        W40859  18.167  32.036  24.435  0.0395 -0.0746  0.2942
97948W        W40860  18.869  34.200  21.020  0.1323 -0.2298  0.2428
97949W        W40861  21.128  33.117  20.826  0.3858  0.1305  0.1157
97950W        W40862  18.119  34.339  21.634 -0.2633 -0.0348  0.1518
97951W        W40863  19.327  33.143  20.552 -0.6602 -0.2390 -0.1413
97952W        W40864  20.084  34.269  22.931 -0.0358 -0.4303  0.1871
97953W        W40865  18.800  33.864  20.605 -0.1246  0.0234 -0.1577
97954W        W40866  21.664   0.216  20.476  0.2372 -0.0519  0.2585
97955W        W40867  17.746  33.213  21.936  0.0372  0.2240 -0.0827
97956W        W40868  19.920   0.800  21.943  0.4147 -0.2435 -0.3295
97957W        W40869  20.899  34.601  22.300 -0.1022  0.2136 -0.0894
97958W        W40870  21.531  34.636  22.035  0.3173  0.3118  0.0660
97959W        W40871  18.986  33.717  21.095 -0.4019  0.2756  0.1133
97960W        W40872  20.617  34.341  20.286  0.0613  0.1975  0.1256
97961W        W40873  18.002  34.627  22.902 -0.1475 -0.2362 -0.0083
97962W        W40874  22.189  33.310  24.243  0.2678  0.0115  0.3441
97963W        W40875  19.854  33.291  24.307  0.2903  0.0781 -0.4835
97964W        W40876  17.028  33.569  24.122  0.2221 -0.2166  0.0528
97965W        W40877  19.517  32.150  26.635  0.0717 -0.2299  0.1669
97966W        W40878  20.624  34.319  23.576 -0.0101 -0.2101 -0.2347
97967W        W40879  18.908  34.118  24.889 -0.0327 -0.0364  0.0722
97968W        W40880  19.040  31.431  25.116 -0.1253  0.2891 -0.0986
97969W        W40881  17.200  33.307  26.822  0.1124  0.0413  0.2183
97970W        W40882  21.520  34.378  25.569  0.0566  0.0070 -0.3714
97971W        W40883  18.252  33.370  22.645 -0.0197 -0.1043  0.2227
97972W        W40884  17.302   0.347  25.103  0.0727 -0.1327  0.0877
97973W        W40885  17.851  34.001  23.620  0.0864 -0.2376 -0.1045
97974W        W40886  19.605  32.644  27.383 -0.1714  0.1060  0.3180
97975W        W40887  20.311  32.716  28.576 -0.0777 -0.2160 -0.1378
97976W        W40888  17.913  34.000  21.891  0.0071 -0.0226  0.1689
97977W        W40889  16.495   0.812  25.257  0.3819  0.1169 -0.1104
97978W        W40890  18.870   1.655  25.366  0.3694  0.2496 -0.1139
97979W        W40891  20.583  33.106  26.473 -0.0337 -0.2454 -0.0877
97980W        W40892  21.923  34.389  26.931  0.0269  0.0497  0.0849
97981W        W40893  20.432  34.120  26.194  0.0420 -0.1880  0.1878
97982W        W40894  20.002  33.870  25.704  0.0773  0.0655 -0.1320
97983W        W40895  18.600   0.260  25.174  0.1468  0.3230  0.1393
97984W        W40896  21.234  32.919  26.011 -0.0836 -0.0519  0.1219
97985W        W40897  21.711  34.242  23.382  0.0409 -0.3025  0.1239
97986W        W40898  19.592  34.074  23.961 -0.1123  0.0936  0.1748
97987W        W40899  21.126  33.531  22.159 -0.0631 -0.1369  0.0707
97988W        W40900  18.863  31.797  25.478 -0.1493  0.0427 -0.0833
97989W        W40901  18.975  33.437  25.245 -0.0563 -0.1401 -0.0365
97990W        W40902  20.091  34.222  23.783  0.1604 -0.0031 -0.0993
97991W        W40903  20.675  33.205  25.995 -0.1010 -0.2859 -0.2272
97992W        W40904  17.715  34.151  22.874  0.1086  0.0003 -0.0373
97993W        W40905  18.997  34.371  23.826  0.2578 -0.2150  0.0490
97994W        W40906  18.204   1.028  27.506  0.0139 -0.1930  0.0495
97995W        W40907  17.714   0.730  26.882  0.1098  0.1285  0.1002
97996W        W40908  18.779  32.515  23.231  0.2001 -0.1095  0.0355
97997W        W40909  20.215  33.478  24.717 -0.1328 -0.0016 -0.1805
97998W        W40910  19.877  32.140  26.289 -0.0334  0.2819 -0.1177
97999W        W40911  19.002   0.484  26.718 -0.0102 -0.1981 -0.1441
98000W        W40912  21.716  33.574  23.340  0.0160 -0.3569  0.0775
98001W        W40913  19.111  33.563  26.254 -0.2666  0.2963  0.2437
98002W        W40914  17.856  33.430  25.744 -0.1483  0.1909 -0.0902
98003W        W40915  20.331  32.791  25.866 -0.0174  0.1141  0.0182
98004W        W40916  18.932  32.814  26.977 -0.1695  0.0518  0.0245
98005W        W40917  21.265  32.220  25.688  0.1640 -0.1765 -0.4926
98006W        W40918  20.695  34.355  24.540 -0.0838 -0.0245  0.1747
98007W        W40919  16.421   0.410  25.020  0.2620 -0.1878  0.1898
98008W        W40920  18.052  32.883  23.918 -0.0099 -0.1333 -0.2361
98009W        W40921  16.401   0.580  25.668  0.1441 -0.3386 -0.0119
98010W        W40922  18.580  33.251  24.549 -0.1634  0.0507  0.1541
98011W        W40923  22.154  33.382  27.037  0.1735  0.0759 -0.1239
98012W        W40924  17.442  33.235  25.943 -0.5081 -0.3001 -0.3002
98013W        W40925  19.474  34.225  25.722 -0.1598  0.0004  0.1079
98014W        W40926  18.653   0.295  23.678  0.3536  0.0767  0.0989
98015W        W40927  22.316  32.551  28.538  0.1589  0.1549 -0.2608
98016W        W40928  18.254  33.988  26.465  0.2110 -0.1694  0.1475
98017W        W40929  18.133  32.992  24.562  0.1633 -0.2166  0.3092
98018W        W40930  17.998  34.249  24.355  0.0394  0.0153 -0.3556
98019W        W40931  20.276  34.073  27.508  0.2396 -0.1299  0.3739
98020W        W40932  19.630   0.372  25.443 -0.2628  0.0413  0.0013
98021W        W40933  18.788  32.796  25.413 -0.0786 -0.4174 -0.1747
98022W        W40934  17.312  34.259  23.586 -0.1839  0.1050 -0.0338
98023W        W40935  20.495  31.585  27.064 -0.2724  0.3440  0.1549
98024W        W40936  17.702   0.174  26.837  0.0235  0.2525 -0.0897
98025W        W40937  18.797   0.161  25.978  0.0306 -0.0883 -0.0634
98026W        W40938  18.046  33.875  22.402  0.0223 -0.1480  0.0997
98027W        W40939  20.711  33.250  23.723  0.0588 -0.0871  0.0139
98028W        W40940  21.272  33.210  23.372 -0.0341 -0.3586 -0.5154
98029W        W40941  20.762  33.539  24.203 -0.0493  0.0588 -0.0190
98030W        W40942  19.312  32.412  23.111  0.0980 -0.0184  0.0032
98031W        W40943  19.704  34.469  24.303 -0.0329 -0.1404  0.0345
98032W        W40944  20.460  32.691  25.311 -0.1641  0.1252 -0.0822
98033W        W40945  18.655  33.895  22.967  0.2374 -0.0687  0.0658
98034W        W40946  20.774  32.212  26.627 -0.2541  0.0745  0.1254
98035W        W40947  20.451  33.279  27.654  0.0040  0.1085  0.0648
98036W        W40948  18.981  32.317  25.391  0.3535 -0.2653  0.1539
98037W        W40949  18.790  33.079  27.372 -0.0518  0.2379 -0.2488
98038W        W40950  21.351  32.921  27.259 -0.2714 -0.0200  0.0091
98039W        W40951  20.985  32.686  23.781 -0.1552 -0.2316  0.1436
98040W        W40952  20.388  33.631  25.875  0.0281  0.1068 -0.1349
98041W        W40953  18.226  32.161  24.904 -0.4270 -0.1313  0.0436
98042W        W40954  18.687  33.773  26.323 -0.3467  0.0771  0.0288
98043W        W40955  20.042  34.307  25.922  0.1312  0.3771  0.0616
98044W        W40956  19.979  33.733  24.019  0.1296  0.1097  0.1938
98045W        W40957  18.762  33.477  25.826  0.1713 -0.5176  0.0483
98046W        W40958  20.322  31.916  26.509  0.1691  0.1221  0.0299
98047W        W40959  18.214   0.489  22.936 -0.0300  0.2475  0.1083
98048W        W40960  19.823   0.543  24.423  0.0325 -0.0956 -0.2019
98049W        W40961  21.762  32.288  24.039  0.0608  0.0509 -0.0712
98050W        W40962  19.327  33.664  25.549 -0.1010 -0.2298 -0.0837
98051W        W40963  19.428  33.037  26.133 -0.1104  0.1819  0.0817
98052W        W40964  22.637  33.416  26.940  0.0304  0.1300 -0.1536
98053W        W40965  21.206  33.213  23.878 -0.0010 -0.0325 -0.0278
98054W        W40966  19.504   0.853  25.585 -0.1861  0.1468 -0.3864
98055W        W40967  17.876   0.397  23.276  0.1599 -0.3684  0.0756
98056W        W40968  22.536  32.184  28.772 -0.0277  0.3826  0.2051
98057W        W40969  19.251  33.804  25.074  0.0011  0.2321  0.3277
98058W        W40970  17.482  34.521  22.597  0.4073  0.2059 -0.3789
98059W        W40971  18.307  34.513  26.228 -0.1747  0.0365 -0.1076
98060W        W40972  19.775  33.847  26.714  0.1857  0.1017  0.1964
98061W        W40973  19.389  34.092  24.657  0.1063 -0.0399 -0.2290
98062W        W40974  19.840  34.263  24.839 -0.0673 -0.0926  0.0631
98063W        W40975  20.164  32.757  26.370  0.2121 -0.2778  0.2090
98064W        W40976  19.644  32.531  26.065  0.2943  0.0128 -0.0879
98065W        W40977  20.426  34.055  29.303 -0.2260 -0.0168  0.0549
98066W        W40978  19.913  33.436  26.970  0.0359  0.0355  0.1407
98067W        W40979  21.916  32.137  24.515  0.1132 -0.1915 -0.5941
98068W        W40980  19.747  33.224  24.758 -0.1345 -0.0576 -0.1781
98069W        W40981  22.159  32.642  27.953 -0.0177 -0.0547  0.0837
98070W        W40982  20.178  34.249  24.475 -0.2550 -0.0577 -0.1118
98071W        W40983  20.834  32.345  28.522 -0.0571 -0.2552 -0.0593
98072W        W40984  18.577  31.391  25.341 -0.0703 -0.2738  0.2578
98073W        W40985  17.793  34.235  26.114 -0.3323 -0.0990  0.1546
98074W        W40986  18.833   0.921  25.818 -0.3158 -0.1481  0.0510
98075W        W40987  19.782  32.841  23.504 -0.0711 -0.0320  0.0865
98076W        W40988  18.732  33.014  25.884 -0.0056  0.2389  0.0029
98077W        W40989  20.357   0.281  25.312  0.0560  0.1007  0.2862
98078W        W40990  19.075   0.487  25.632  0.0048 -0.0457 -0.1574
98079W        W40991  18.014   0.462  26.498 -0.3108 -0.0593 -0.0724
98080W        W40992  19.723  33.140  25.650 -0.0242  0.1438 -0.0509
98081W        W40993  18.908  33.491  27.157 -0.0438  0.0011  0.1593
98082W        W40994  20.530  32.693  26.799 -0.0008 -0.1912 -0.0095
98083W        W40995  18.158   0.361  27.021  0.1163 -0.3086  0.2355
98084W        W40996  21.215  34.346  26.578 -0.0026  0.1023 -0.1717
98085W        W40997  20.482  33.831  24.497 -0.1681  0.1383 -0.2799
98086W        W40998  17.744  33.126  26.700  0.2591  0.2303  0.3180
98087W        W40999  22.836   0.870  23.588  0.3593  0.2711  0.2553
98088W        W41000  21.216  33.716  27.151  0.0465  0.0313 -0.1258
98089W        W41001  21.897   0.034  24.476 -0.2836  0.0728  0.0576
98090W        W41002  19.764  33.729  24.858  0.1232  0.4792 -0.0996
98091W        W41003  18.453  34.291  24.668  0.4267  0.0596 -0.1641
98092W        W41004  19.963   0.229  28.611  0.3505  0.3543 -0.2313
98093W        W41005  19.011   0.203  24.011  0.2065  0.0228  0.4164
98094W        W41006  19.967  33.169  27.394 -0.1175  0.2476 -0.0230
98095W        W41007  18.989  32.617  24.915  0.0517  0.0766 -0.1318
98096W        W41008  17.616   0.207  26.032 -0.0678 -0.0021  0.2869
98097W        W41009  18.352   0.144  22.564 -0.3575  0.0918  0.0244
98098W        W41010  19.825  33.927  24.421  0.1164 -0.1164 -0.0511
98099W        W41011  19.960  32.871  24.009  0.1143  0.0168  0.1377
98100W        W41012  21.679  33.213  26.055  0.2861  0.2217 -0.0890
98101W        W41013  19.579  32.207  25.376 -0.1418 -0.3050 -0.0584
98102W        W41014  19.141  33.820  26.712 -0.1260  0.0247  0.3596
98103W        W41015  19.448  33.229  25.181 -0.1834 -0.3010  0.3692
98104W        W41016  19.867  34.671  25.302 -0.1205  0.0958  0.0784
98105W        W41017  21.397  34.598  27.779  0.1179 -0.0119  0.1423
98106W        W41018  17.630  34.627  25.180 -0.3879 -0.0174  0.1005
98107W        W41019  18.034  33.878  27.014  0.0600 -0.1181  0.0359
98108W        W41020  17.929  34.437  24.810  0.1454 -0.1659  0.0062
98109W        W41021  19.864  33.790  23.529 -0.2434 -0.2037 -0.0096
98110W        W41022  20.689  32.462  23.432  0.1081  0.0074 -0.0463
98111W        W41023  22.243  34.161  25.045 -0.2697  0.2162  0.0933
98112W        W41024  21.946  32.632  23.465  0.0241  0.0157 -0.1628
98113W        W41025  19.005   0.055  26.435  0.1673  0.0902 -0.1814
98114W        W41026  17.911  33.780  24.161  0.1022  0.0219  0.2245
98115W        W41027  17.480   0.417  26.465 -0.0020 -0.1512  0.0074
98116W        W41028  21.924  33.619  27.982  0.1058  0.1506  0.1521
98117W        W41029  18.291  34.153  23.300 -0.0842  0.0723  0.2234
98118W        W41030  18.112   0.113  24.293  0.3736 -0.0882  0.0458
98119W        W41031  21.208  33.139  25.452  0.3270 -0.3298 -0.0697
98120W        W41032  18.522  33.185  23.927 -0.0203  0.0726  0.1299
98121W        W41033  17.870  32.380  24.635 -0.1389  0.2397  0.1667
98122W        W41034  20.754  33.061  25.233 -0.0640  0.0294  0.0046
98123W        W41035  18.368   0.087  25.601 -0.1153 -0.0531  0.1413
98124W        W41036  19.586  33.957  26.231 -0.0931  0.0156 -0.0110
98125W        W41037  19.172  34.405  24.349 -0.2328  0.0120 -0.1252
98126W        W41038  20.200  32.978  24.536  0.0205  0.2465 -0.4208
98127W        W41039  18.192   0.064  27.392  0.1653 -0.0090  0.0633
98128W        W41040  18.910   2.145  24.929  0.1259  0.1724  0.0490
98129W        W41041  21.716   0.334  27.058  0.1640 -0.0638 -0.4199
98130W        W41042  20.906  34.506  23.258  0.1880 -0.0762 -0.1772
98131W        W41043  18.700  33.632  24.809  0.4611 -0.2114 -0.1080
98132W        W41044  19.328  32.703  25.441  0.0257  0.0702 -0.0688
98133W        W41045  18.128   0.090  25.177 -0.0548  0.0699  0.2685
98134W        W41046  17.582   0.357  25.535  0.0056  0.1959 -0.1962
98135W        W41047  17.761  32.485  24.049  0.3070 -0.1133  0.0274
98136W        W41048  20.540  33.938  25.505 -0.3125  0.1401  0.1571
98137W        W41049  21.512   0.145  24.813  0.0354  0.2832  0.1305
98138W        W41050  18.220  34.314  25.789  0.3647 -0.4681  0.1519
98139W        W41051  19.020  33.494  23.651 -0.0069 -0.0227 -0.0326
98140W        W41052  18.548   0.330  26.472 -0.0608 -0.1490 -0.0396
98141W        W41053  20.603  34.350  27.145 -0.0215 -0.2118  0.4657
98142W        W41054  19.591  33.421  26.526 -0.3028 -0.0052  0.0897
98143W        W41055  19.689  32.812  26.510 -0.1523  0.1651  0.0782
98144W        W41056  20.017  32.654  24.916 -0.0216  0.0163  0.0468
98145W        W41057  18.038  33.490  23.754 -0.2386  0.0557 -0.1910
98146W        W41058  21.042  32.670  25.231 -0.2511  0.0797 -0.0906
98147W        W41059  19.941  33.433  25.210 -0.1335 -0.0441 -0.2550
98148W        W41060  18.670   0.390  27.119  0.0309  0.1189  0.2093
98149W        W41061  19.132   0.846  22.583 -0.1653  0.0357 -0.1613
98150W        W41062  20.410  33.242  26.951 -0.4225 -0.0447  0.0014
98151W        W41063  17.791  33.686  26.229 -0.1110  0.2022 -0.0214
98152W        W41064  17.611  34.233  24.034  0.1785 -0.0019  0.2965
98153W        W41065  18.184  33.406  24.821  0.0167  0.1335  0.2187
98154W        W41066  18.022  34.292  25.308 -0.0839 -0.1525  0.2217
98155W        W41067  18.944  33.892  24.452 -0.1987  0.2182 -0.0203
98156W        W41068  19.459  32.763  24.957 -0.6557 -0.0332 -0.1870
98157W        W41069  19.602  33.077  26.952  0.1194 -0.0411 -0.1923
98158W        W41070  18.566  33.747  26.787 -0.3597 -0.0558 -0.0443
98159W        W41071  19.092  33.906  22.473 -0.2577  0.0662 -0.2325
98160W        W41072  21.162  33.434  25.900  0.0201 -0.0346  0.2001
98161W        W41073  18.588  32.485  26.655  0.1127  0.1532  0.1600
98162W        W41074  22.075  33.802  26.257  0.1176 -0.0942  0.3218
98163W        W41075  18.602  34.165  24.162 -0.2401 -0.1005  0.3130
98164W        W41076  17.385  33.444  28.156  0.0573 -0.0918  0.3652
98165W        W41077  17.718  32.881  25.673  0.0789  0.0171  0.1338
98166W        W41078  21.253  32.780  24.281 -0.4858 -0.1778  0.2311
98167W        W41079  18.300  33.930  25.013  0.1747  0.3150  0.1781
98168W        W41080  18.321  33.910  23.837 -0.1767 -0.0155 -0.3083
98169W        W41081  20.094   0.860  26.405  0.1193 -0.0651 -0.2852
98170W        W41082  19.625  34.559  23.789  0.1178 -0.0182 -0.0434
98171W        W41083  23.287   0.225  22.673  0.0388 -0.3718  0.1085
98172W        W41084  18.066  33.887  25.569 -0.0707  0.0814 -0.0577
98173W        W41085  18.647   0.283  23.135  0.0477  0.3668  0.0326
98174W        W41086  19.311   0.123  24.490 -0.0077 -0.0014 -0.1456
98175W        W41087  21.312  33.806  26.223  0.0299  0.0284  0.2213
98176W        W41088  19.033  33.898  23.974 -0.1912 -0.0530 -0.0389
98177W        W41089  20.294  33.277  24.048 -0.0034 -0.1045 -0.0752
98178W        W41090  17.824  33.419  27.171 -0.1508  0.0018  0.2978
98179W        W41091  21.042  34.149  26.994  0.2276 -0.0753  0.1723
98180W        W41092  20.182  34.185  28.071 -0.1169 -0.2426 -0.1316
98181W        W41093  16.845  33.432  28.327  0.1961  0.3300 -0.0652
98182W        W41094  18.008  31.646  29.759  0.0208  0.0030 -0.1087
98183W        W41095  19.677  33.509  27.581 -0.2378 -0.0599 -0.0106
98184W        W41096  18.442  32.957  30.511  0.0469  0.0756  0.2980
98185W        W41097  19.427  33.581  27.175 -0.0606  0.0342 -0.0788
98186W        W41098  17.443  31.336  30.467  0.1804  0.0170  0.2463
98187W        W41099  20.933   0.701  30.020  0.0600 -0.3253 -0.0617
98188W        W41100  17.816   0.425  28.352  0.2799 -0.0090  0.2443
98189W        W41101  19.861  33.019  30.293  0.1006  0.1222 -0.1345
98190W        W41102  19.075  33.857  28.603  0.0250  0.0565  0.3023
98191W        W41103  18.369  33.520  30.583 -0.0908  0.2212  0.0314
98192W        W41104  21.413  33.449  31.717 -0.2491  0.2467  0.0400
98193W        W41105  17.797  34.091  26.608  0.3420 -0.3672 -0.0969
98194W        W41106  18.265   0.449  29.338 -0.0768 -0.0040  0.0920
98195W        W41107  20.212   0.103  31.565  0.0581 -0.2299 -0.1323
98196W        W41108  20.046  34.089  29.760 -0.2194  0.2767  0.0248
98197W        W41109  21.175   0.220  28.937  0.6278  0.0808  0.0221
98198W        W41110  20.774  34.679  29.882  0.1439  0.2517 -0.0914
98199W        W41111  19.862  34.429  30.287 -0.2679 -0.2268 -0.2126
98200W        W41112  19.605  33.889  28.735  0.0995  0.0835 -0.0735
98201W        W41113  23.717  33.456   0.329  0.2903  0.3469 -0.1573
98202W        W41114  22.207  34.317  27.302  0.0635 -0.1112 -0.1231
98203W        W41115  19.269  33.700  29.067 -0.1273 -0.2263 -0.0139
98204W        W41116  21.198  33.256  27.733  0.3178  0.1469 -0.0813
98205W        W41117  18.832  33.203  29.247 -0.1833  0.0405 -0.1467
98206W        W41118  19.088  33.116  31.099 -0.2429 -0.2919  0.0306
98207W        W41119  19.167   0.309  29.534 -0.0854 -0.3183 -0.0426
98208W        W41120  20.221  34.427  31.252  0.3781 -0.0849  0.0594
98209W        W41121  17.808  33.480  29.938 -0.0319  0.1063  0.1414
98210W        W41122  18.506   1.298  29.369  0.0540 -0.0347 -0.1356
98211W        W41123  17.720  34.629  31.244  0.1599  0.0113 -0.0363
98212W        W41124  18.339  34.149  30.975  0.0267  0.1352  0.2219
98213W        W41125  19.192  33.208  25.721  0.0642  0.1408  0.2181
98214W        W41126  20.878  32.851  30.166 -0.1475 -0.1845 -0.3400
98215W        W41127  20.339  32.389  29.373  0.1030  0.0549 -0.0457
98216W        W41128  20.819  32.098  29.856  0.1200 -0.1803  0.2880
98217W        W41129  20.670  34.064  28.211  0.2343 -0.0277  0.1825
98218W        W41130  20.018  33.982  31.303 -0.0957  0.0260  0.0988
98219W        W41131  18.707  32.042  30.567 -0.2158  0.4870  0.4088
98220W        W41132  21.650  32.309  28.699  0.0329 -0.2638  0.0269
98221W        W41133  17.857  33.042  29.115 -0.0870 -0.3372  0.0489
98222W        W41134  19.804  31.816  29.024 -0.2305 -0.2108  0.0954
98223W        W41135  20.174  33.914  28.886 -0.0743  0.1068  0.1504
98224W        W41136  18.282  33.225  30.112  0.0460  0.2211 -0.0870
98225W        W41137  18.732  33.822  28.965  0.1622 -0.0749 -0.0953
98226W        W41138  18.957  34.637  31.970  0.1225 -0.3265 -0.3939
98227W        W41139  17.610  32.822  28.708 -0.0600 -0.3476 -0.0802
98228W        W41140  21.086  34.622  30.263  0.2526 -0.1151 -0.3391
98229W        W41141  18.078  33.989  29.207  0.2398  0.2000 -0.0071
98230W        W41142  20.352   0.932  30.271 -0.3384  0.0397  0.0187
98231W        W41143  19.086  34.436  28.546  0.1170  0.2490 -0.0129
98232W        W41144  20.907  32.922  31.047  0.3823  0.0016  0.0471
98233W        W41145  19.911  33.619  30.506 -0.1214 -0.2592  0.1259
98234W        W41146  18.808  34.268  26.272  0.1217  0.0520 -0.0608
98235W        W41147  19.298  33.191  29.008 -0.1028 -0.0871 -0.1580
98236W        W41148  21.968  32.069  31.013 -0.0787 -0.0383  0.2396
98237W        W41149  19.257   0.733  29.851 -0.2359 -0.2297 -0.0356
98238W        W41150  18.762  33.002  28.016  0.1341 -0.1006  0.2031
98239W        W41151  18.571  34.616  28.499  0.0250 -0.0876  0.1898
98240W        W41152  21.252  31.793  29.767  0.0382  0.1008 -0.0222
98241W        W41153  19.116  34.650  31.040 -0.0458 -0.4373 -0.0270
98242W        W41154  19.711  33.667  31.555  0.1063  0.1724 -0.2946
98243W        W41155  18.607   0.818  27.388 -0.0027  0.0304 -0.0896
98244W        W41156  20.195  32.806  29.045  0.0615 -0.0038  0.3973
98245W        W41157  21.152  33.066  28.199  0.0070  0.1922 -0.0251
98246W        W41158  20.592  33.844  27.155  0.1185 -0.2353  0.1066
98247W        W41159  19.909  33.741  28.394  0.2661  0.3708  0.0749
98248W        W41160  20.291  34.617  30.124  0.0731 -0.2145  0.0939
98249W        W41161  19.666  31.848  30.041 -0.1083  0.2710 -0.1117
98250W        W41162  19.693  33.996  25.304 -0.0301 -0.0237  0.0799
98251W        W41163  19.426  32.561  29.117  0.2172 -0.1301 -0.1070
98252W        W41164  20.392  32.547  31.028 -0.2326  0.1182 -0.0197
98253W        W41165  20.152  33.419  28.693  0.0621  0.1819  0.1122
98254W        W41166  19.654  31.425  30.274 -0.2694 -0.0323  0.0704
98255W        W41167  21.884  34.086  31.457  0.0973 -0.0963  0.0647
98256W        W41168  21.490  32.592  27.921 -0.1550  0.0539 -0.2205
98257W        W41169  21.521  34.461  29.840 -0.0134  0.0456  0.1605
98258W        W41170  18.910   0.956  26.912  0.0076 -0.0485 -0.1019
98259W        W41171  19.981  32.678  31.380  0.1140 -0.3935 -0.1338
98260W        W41172  21.274  32.901   0.387  0.1557  0.1248 -0.1265
98261W        W41173  18.940  34.012  27.194  0.1370  0.2647  0.1410
98262W        W41174  20.327  32.009  29.854  0.1452  0.1777  0.2111
98263W        W41175  21.422  31.036  30.329  0.2454 -0.0802 -0.3908
98264W        W41176  19.417   0.782  26.990  0.3337 -0.1723 -0.0649
98265W        W41177  18.138   0.247  28.739 -0.0257 -0.2015 -0.3798
98266W        W41178  21.776  33.495  29.250  0.1786  0.1258 -0.0596
98267W        W41179  17.875  33.897  29.699 -0.0379  0.4020 -0.0817
98268W        W41180  20.329  32.567  30.125  0.1654  0.0306  0.0688
98269W        W41181  20.336   1.907  29.955 -0.2333 -0.1261  0.1760
98270W        W41182  19.866  32.394  29.321 -0.0184  0.1651 -0.0058
98271W        W41183  17.670   0.521  31.957 -0.3635 -0.0345 -0.2800
98272W        W41184  17.212  34.076  26.700  0.0130  0.0317 -0.0763
98273W        W41185  20.051  32.582  30.584 -0.0172  0.0583 -0.3763
98274W        W41186  19.992  34.337  28.713  0.0903  0.1271  0.4985
98275W        W41187  18.110  34.608  26.846  0.1158 -0.0634  0.0628
98276W        W41188  18.476  33.648  31.105 -0.0837  0.0116 -0.1582
98277W        W41189  19.483  34.098  31.261  0.0190 -0.0408 -0.0950
98278W        W41190  19.394  33.456  28.591  0.2870  0.0158 -0.0817
98279W        W41191  19.029  33.295  29.816 -0.1465 -0.0545  0.1914
98280W        W41192  20.769  33.781  30.014 -0.2928 -0.0009 -0.4244
98281W        W41193  19.860  32.360  29.963 -0.2767  0.2165  0.0286
98282W        W41194  20.610  34.550  31.562  0.2225 -0.3382 -0.1098
98283W        W41195  20.315  34.061  30.173  0.0858 -0.0133 -0.0533
98284W        W41196  22.135  32.959  28.399 -0.2777 -0.1890 -0.1354
98285W        W41197  19.491  33.674  28.132  0.0426 -0.0255 -0.3052
98286W        W41198  20.685  33.493  30.794  0.2293 -0.0341 -0.1480
98287W        W41199  21.080  34.214  27.934 -0.0241 -0.0683  0.1960
98288W        W41200  20.212  32.058  30.896 -0.1555 -0.0804  0.2653
98289W        W41201  18.996  33.703  29.539 -0.0473 -0.1348  0.0189
98290W        W41202  19.081  33.671  30.449 -0.3507 -0.2920  0.1532
98291W        W41203  17.324  33.789  31.960 -0.0685  0.0851  0.3087
98292W        W41204  18.374  33.738  27.319  0.1182 -0.1817  0.0737
98293W        W41205  19.209  33.318  27.869 -0.3821  0.0045  0.1294
98294W        W41206  20.796   1.029  30.574 -0.3892 -0.3169 -0.2211
98295W        W41207  20.072  32.805  29.739  0.0349  0.0049 -0.1261
98296W        W41208  17.617   0.018  30.490  0.3198 -0.2145 -0.3726
98297W        W41209  20.902  33.352  29.231  0.0564 -0.0706 -0.2214
98298W        W41210  19.107  32.149  31.677  0.3512  0.4705  0.0655
98299W        W41211  20.676  34.455  29.370  0.0329  0.0577 -0.1743
98300W        W41212  19.757  33.660  29.893 -0.2635  0.1967  0.1021
98301W        W41213  20.633  34.053  31.404  0.1502  0.0540  0.3082
98302W        W41214  18.881   0.014  29.910  0.0408 -0.1006  0.1499
98303W        W41215  19.465   0.386  31.684  0.0790  0.0056  0.2922
98304W        W41216  20.909  33.938  26.545 -0.2071 -0.0301  0.0825
98305W        W41217  22.298  34.639   0.244 -0.1261  0.0576  0.1348
98306W        W41218  21.704  33.932  29.016 -0.0371 -0.1736  0.0067
98307W        W41219  20.799  33.426  27.330 -0.1196  0.2334 -0.2236
98308W        W41220  17.559  34.328  29.546  0.0660  0.1189  0.1098
98309W        W41221  20.263   0.610  30.988  0.0523  0.2917 -0.0910
98310W        W41222  18.277  32.809  26.067  0.1706  0.1156  0.0954
98311W        W41223  20.313  33.089  30.070  0.0085  0.0526 -0.2589
98312W        W41224  20.022  32.224  28.850 -0.1090 -0.3858  0.3522
98313W        W41225  17.968  33.909  27.570  0.1353  0.2391  0.1113
98314W        W41226  18.519  33.278  26.290 -0.0240  0.2160  0.1869
98315W        W41227  18.332   0.409  26.038 -0.0581  0.2040 -0.1893
98316W        W41228  20.022  33.432  27.911 -0.2928 -0.1054 -0.2243
98317W        W41229  19.929   0.230  30.149 -0.1153  0.1195  0.1136
98318W        W41230  21.019  32.031  30.511  0.1836  0.1755  0.0608
98319W        W41231  19.179  31.532  29.997 -0.0928 -0.4215 -0.2270
98320W        W41232  20.202   0.501  29.822  0.0489  0.0805  0.1199
98321W        W41233  19.393  34.280  29.016  0.1117 -0.5060 -0.1128
98322W        W41234  20.974  34.343  30.707 -0.1301 -0.0637  0.1314
98323W        W41235  18.221  33.747  30.124  0.0162  0.1501 -0.0342
98324W        W41236  19.493  32.731  30.361 -0.0231  0.3809 -0.0885
98325W        W41237  19.233  32.962  29.447 -0.1521 -0.1405 -0.0323
98326W        W41238  18.365  33.798  27.885 -0.4282  0.6223  0.0419
98327W        W41239  20.624  33.082  28.782 -0.3050 -0.4203  0.1563
98328W        W41240  19.810   0.933  29.931  0.2857 -0.3330  0.2088
98329W        W41241  21.329  33.752  27.687 -0.0768 -0.0194 -0.0808
98330W        W41242  17.635  33.941  28.879  0.2842 -0.0734  0.1373
98331W        W41243  18.543  34.445  26.677  0.0513 -0.1822  0.1792
98332W        W41244  19.956  33.500  30.997 -0.0252  0.1242  0.1122
98333W        W41245  22.022  32.554  29.985 -0.2663 -0.0500 -0.1120
98334W        W41246  18.086  34.666  28.317  0.1021  0.1879 -0.0944
98335W        W41247  18.623  33.630  28.503  0.2586 -0.0375  0.1149
98336W        W41248  21.484  30.739  30.739  0.1771  0.1986 -0.2600
98337W        W41249  19.756  32.188  30.412 -0.0082  0.0541 -0.0647
98338W        W41250  17.315  34.301  29.105 -0.0705  0.0321 -0.0612
98339W        W41251  22.195  33.951  28.305 -0.0396 -0.0275 -0.0518
98340W        W41252  19.466  33.834  30.807 -0.0731 -0.0838 -0.0658
98341W        W41253  21.050  33.160  30.636 -0.1175  0.0046  0.2501
98342W        W41254  19.738  33.472  28.965  0.1316  0.0356 -0.1951
98343W        W41255  20.342  33.653  29.702  0.0426  0.0668 -0.3849
98344W        W41256  20.180   0.988  31.790  0.0076  0.2251 -0.0979
98345W        W41257  19.063  34.619  27.677 -0.0429 -0.2428 -0.1850
98346W        W41258  21.027  33.821  31.027 -0.1279  0.0814 -0.2791
98347W        W41259  20.317  33.807  26.631  0.1129 -0.1350 -0.1533
98348W        W41260  19.578  32.969  29.872  0.0949  0.1559 -0.3417
98349W        W41261  20.844  32.422  29.323 -0.1404  0.1001 -0.0274
98350W        W41262  17.920  34.460  27.804  0.3680  0.1100  0.0309
98351W        W41263  20.421  33.129  29.510 -0.1666 -0.2453 -0.2123
98352W        W41264  18.740  34.281  29.728 -0.0631  0.1080 -0.1917
98353W        W41265  21.416  33.186  29.128  0.0061  0.1234 -0.0034
98354W        W41266  21.355  33.126  30.100  0.0464 -0.1150  0.1725
98355W        W41267  18.839  34.297  30.274 -0.0232 -0.3479 -0.3747
98356W        W41268  20.235  33.590  27.347  0.0595 -0.4515 -0.1890
98357W        W41269  17.636  34.316  28.474  0.3499  0.0374 -0.3700
98358W        W41270  19.965  33.341  29.556  0.1147  0.1402 -0.0612
98359W        W41271  21.052   0.234  30.819 -0.2370  0.1489 -0.2043
98360W        W41272  20.630  32.809  30.598  0.4253  0.2179  0.1041
98361W        W41273  19.784  33.287  28.323  0.1446  0.1862  0.0523
98362W        W41274  20.131  32.157  27.812 -0.1433 -0.1408  0.2934
98363W        W41275  20.920  32.888  29.297 -0.1419 -0.2375  0.0239
98364W        W41276  21.251  31.824  29.257  0.1013  0.0172 -0.0735
98365W        W41277  19.044   0.558  30.264  0.0769  0.0228  0.4706
98366W        W41278  17.373   0.400  27.882  0.1268  0.0442  0.1496
98367W        W41279  19.956  32.193  31.394  0.4983 -0.2069  0.2484
98368W        W41280  18.032  34.562  30.740  0.0525  0.2221  0.0293
98369W        W41281  18.751   0.791  29.347  0.0899  0.2767  0.1742
98370W        W41282  16.484  34.186  27.737  0.1103 -0.1363 -0.1196
98371W        W41283  19.722  33.012  29.220 -0.0090  0.1336  0.1964
98372W        W41284  18.873  33.321  28.813  0.0795  0.0060  0.1409
98373W        W41285  19.772  33.003  28.708  0.0232  0.1053 -0.1618
98374W        W41286  19.443   0.354  31.157  0.0711 -0.1649  0.0613
98375W        W41287  20.295  33.261  30.588 -0.0340  0.0217 -0.3051
98376W        W41288  17.341  33.513  27.300  0.0402 -0.1579  0.2543
98377W        W41289  20.710  32.294  30.268 -0.1855 -0.0444 -0.2860
98378W        W41290  18.998  32.521  30.504 -0.0310  0.1148 -0.2909
98379W        W41291  21.971  32.196  30.353  0.0138 -0.1430 -0.1607
98380W        W41292  19.283  33.717  30.011 -0.0184  0.2546  0.2364
98381W        W41293  17.988  32.344  31.221 -0.2384 -0.2093 -0.2753
98382W        W41294  18.994  33.315  28.347  0.1438 -0.2663 -0.0561
98383W        W41295  19.972  33.762  29.345 -0.0299  0.0044 -0.2781
98384W        W41296  18.637  34.112  28.409  0.1089  0.1418 -0.1143
98385W        W41297  19.277  34.376  30.079  0.2176 -0.4211  0.0745
98386W        W41298  20.689  33.919  30.560  0.1025 -0.0607  0.1615
98387W        W41299  18.135  34.143  28.270 -0.2351  0.0219  0.0770
98388W        W41300  21.396   1.312  27.982 -0.0304 -0.4148  0.1378
98389W        W41301  18.209  32.198  30.646  0.4050 -0.1513 -0.1841
98390W        W41302  18.563   0.373  27.608 -0.0588 -0.2410  0.0798
98391W        W41303  18.794  34.495  28.079  0.2752  0.1011  0.1056
98392W        W41304  21.209  33.570  30.348 -0.0203  0.0853  0.2566
98393W        W41305  20.289  33.587  30.189 -0.1465  0.1854  0.2532
98394W        W41306  21.226  32.060  28.741  0.0759 -0.1144  0.2237
98395W        W41307  21.929  33.870  31.900  0.2164  0.3183 -0.2066
98396W        W41308  20.845   0.238   0.216 -0.0913 -0.2423  0.0104
98397W        W41309  18.486  34.046  31.538  0.0581 -0.0136  0.0772
98398W        W41310  21.457  34.162  31.818  0.1499  0.0011 -0.0519
98399W        W41311  20.143  32.757   0.698 -0.0692  0.3889 -0.1030
98400W        W41312  20.743  33.384  30.303  0.0160  0.1151 -0.1204
98401W        W41313  19.459  33.336  30.716 -0.0707 -0.0093  0.3786
98402W        W41314  21.422   0.204  31.246 -0.1704 -0.4386 -0.1778
98403W        W41315  19.128  32.875  31.573  0.1815  0.2853  0.0450
98404W        W41316  18.312  32.593  30.903  0.1448  0.0512  0.0869
98405W        W41317  18.049  33.266   0.131 -0.1312 -0.1072 -0.0190
98406W        W41318  21.044  33.160  31.958  0.3391  0.3990 -0.2812
98407W        W41319  22.038  34.420  31.854 -0.3626 -0.2042  0.0513
98408W        W41320  21.478  33.768  31.273  0.0615  0.1030 -0.2278
98409W        W41321  22.230  32.749  31.885  0.2010 -0.0939  0.0098
98410W        W41322  20.005  33.837  31.976  0.0113  0.0473 -0.2547
98411W        W41323  18.370  34.373  30.133 -0.1193  0.0589 -0.0672
98412W        W41324  19.757  34.464  31.557  0.1816 -0.1087 -0.1702
98413W        W41325  20.382  32.597   0.168 -0.1609 -0.3506  0.0179
98414W        W41326  18.364  33.126  31.757 -0.2829 -0.1096 -0.1865
98415W        W41327  21.106   0.641  30.595 -0.1289  0.1061 -0.4515
98416W        W41328  22.301  34.426   1.173  0.0706  0.1435  0.0045
98417W        W41329  21.809  32.766   0.266  0.1917 -0.0468 -0.0858
98418W        W41330  18.652  32.958   0.199  0.0489 -0.4285 -0.2221
98419W        W41331  18.163  34.432   0.436  0.0836  0.1564 -0.2127
98420W        W41332  20.554  33.660   1.230  0.0179  0.0068 -0.0266
98421W        W41333  21.433  32.728   0.868 -0.1183 -0.1333 -0.2090
98422W        W41334  21.216  33.410   0.364 -0.0266 -0.0305 -0.2471
98423W        W41335  20.439  33.580  31.264 -0.1648  0.2370 -0.0044
98424W        W41336  20.771  34.279  30.221  0.1904 -0.1536  0.2116
98425W        W41337  19.607  34.072  31.835  0.1543 -0.0540  0.2052
98426W        W41338  18.700  34.429  30.741 -0.1200  0.0105  0.3023
98427W        W41339  18.734  33.351  30.253  0.2317 -0.0250 -0.1697
98428W        W41340  22.451   0.376  31.375  0.0685  0.1365  0.0749
98429W        W41341  22.868   3.324  18.889 -0.1911 -0.2423 -0.1851
98430W        W41342  23.496   1.118  17.316  0.0044 -0.2273 -0.0518
98431W        W41343  23.999   0.055  15.604 -0.0654  0.0457  0.3916
98432W        W41344  24.725   1.566  16.413 -0.0229 -0.1746  0.2555
98433W        W41345  21.933   0.982  16.747  0.0856  0.0866  0.1434
98434W        W41346  24.068   3.335  17.969  0.0114 -0.0990  0.0389
98435W        W41347  21.171   0.144  18.785  0.0548  0.1318 -0.2001
98436W        W41348  22.997   3.397  18.405 -0.0046  0.0522 -0.0929
98437W        W41349  25.167   2.573  17.615 -0.0087  0.0919 -0.3866
98438W        W41350  23.673   2.637  17.041 -0.2636  0.0697 -0.1565
98439W        W41351  22.390   0.313  17.587 -0.1391 -0.0303 -0.2688
98440W        W41352  23.470   2.535  18.299  0.1878 -0.1975  0.0831
98441W        W41353  22.212  34.200  16.213  0.1081 -0.3523 -0.1055
98442W        W41354  20.872   0.974  18.700 -0.0502 -0.3309  0.1223
98443W        W41355  25.363   0.918  17.635 -0.1111  0.0170  0.1928
98444W        W41356  22.535   3.195  17.622  0.2550 -0.0391  0.1307
98445W        W41357  22.891   1.102  17.532 -0.1594  0.0998  0.0362
98446W        W41358  23.352   0.793  16.570  0.0503  0.0389 -0.0477
98447W        W41359  25.414   3.121  17.540 -0.3924 -0.0814 -0.4264
98448W        W41360  22.453  34.238  17.875  0.0443  0.2127 -0.0659
98449W        W41361  24.035   0.191  18.983 -0.2795 -0.0361 -0.1453
98450W        W41362  22.464   2.768  17.895 -0.0429  0.2613  0.2232
98451W        W41363  20.771   1.355  17.064  0.3009 -0.2037  0.1602
98452W        W41364  22.935   1.511  17.766 -0.1398 -0.1641  0.0522
98453W        W41365  21.387   3.074  18.287 -0.0837  0.0214 -0.2202
98454W        W41366  24.460   1.872  18.434 -0.0565 -0.2016 -0.0976
98455W        W41367  24.900   1.607  18.735  0.4063 -0.0782  0.1360
98456W        W41368  25.436   2.913  19.123 -0.1323  0.1509 -0.3967
98457W        W41369  26.181   1.855  17.985  0.2477 -0.3443 -0.0542
98458W        W41370  22.125   0.395  18.706 -0.1249 -0.0537 -0.1363
98459W        W41371  21.611   2.817  18.782 -0.0141  0.0764  0.1302
98460W        W41372  21.601   3.113  17.806 -0.3203  0.0809 -0.0109
98461W        W41373  22.580   3.109  18.264 -0.3676 -0.2975 -0.0268
98462W        W41374  23.449   3.429  17.545  0.0251 -0.2515 -0.2319
98463W        W41375  25.419   3.585  19.132  0.2702  0.0058 -0.1696
98464W        W41376  24.606   2.535  19.855 -0.0044 -0.1554  0.1270
98465W        W41377  21.324   1.791  16.012  0.1549  0.0350 -0.0268
98466W        W41378  23.931   2.835  17.931 -0.0818 -0.1823 -0.1676
98467W        W41379  23.255   2.879  18.515 -0.1074 -0.0033 -0.0614
98468W        W41380  22.864   2.269  18.452 -0.0743  0.0337 -0.1731
98469W        W41381  23.906   1.408  17.608  0.2085  0.1253 -0.1901
98470W        W41382  23.834   2.122  17.402 -0.0642  0.2245  0.1270
98471W        W41383  23.351   2.004  17.539  0.0465  0.0628  0.1050
98472W        W41384  23.732   2.787  18.636  0.0577  0.3385 -0.2086
98473W        W41385  22.046   2.825  17.623 -0.2066  0.1953  0.1623
98474W        W41386  26.210   1.219  20.765  0.0385 -0.0748  0.4212
98475W        W41387  21.911   3.691  16.746 -0.0446  0.2888  0.1683
98476W        W41388  23.829   1.029  16.526 -0.1363 -0.0684  0.0734
98477W        W41389  21.097   0.878  15.530  0.2875  0.2619 -0.1442
98478W        W41390  25.034   0.855  16.334  0.0578 -0.1175 -0.1349
98479W        W41391  23.967   1.213  17.044  0.0541 -0.1751  0.1167
98480W        W41392  21.506   2.576  17.468  0.1328 -0.0131  0.0627
98481W        W41393  21.577   0.959  18.663 -0.1473  0.1266  0.2670
98482W        W41394  25.761   2.599  18.870  0.2493 -0.0483 -0.0284
98483W        W41395  23.188   2.737  15.921  0.0927 -0.1984  0.0519
98484W        W41396  23.265   1.585  18.214  0.0133 -0.0862  0.1755
98485W        W41397  24.275   3.067  19.768 -0.1697 -0.0581 -0.0812
98486W        W41398  22.196   0.517  18.067 -0.0633  0.0846 -0.0215
98487W        W41399  23.262   1.742  16.705  0.0963 -0.0681  0.1977
98488W        W41400  24.253   3.333  16.963 -0.1656 -0.3130  0.0370
98489W        W41401  24.158   2.398  17.728  0.0295 -0.3400  0.0370
98490W        W41402  23.895   1.387  16.158  0.3971 -0.0672 -0.1393
98491W        W41403  22.818   1.365  19.152 -0.0679  0.4085  0.0193
98492W        W41404  21.372   0.747  20.477 -0.0933  0.0083  0.0312
98493W        W41405  21.858  33.830  16.167  0.0118 -0.1957 -0.0841
98494W        W41406  24.930   2.988  17.574 -0.1011  0.0672  0.1987
98495W        W41407  22.788   2.775  20.010  0.3279 -0.2044  0.1375
98496W        W41408  24.620   0.986  16.037 -0.0972  0.0240 -0.1884
98497W        W41409  22.896   1.362  16.668  0.1101 -0.1378  0.2143
98498W        W41410  25.435   3.244  18.006  0.1282  0.0743 -0.2848
98499W        W41411  23.942   3.512  17.487  0.1535  0.0936  0.2525
98500W        W41412  23.702   0.758  17.084 -0.1688 -0.4585  0.1024
98501W        W41413  23.729   0.488  17.628  0.0874 -0.0916 -0.2304
98502W        W41414  22.587   3.028  15.436 -0.2068 -0.2129 -0.4584
98503W        W41415  23.082   1.577  16.049  0.2485 -0.5685 -0.2445
98504W        W41416  26.589   2.571  17.974 -0.0047  0.4070  0.3905
98505W        W41417  25.444   2.214  15.659  0.2275 -0.0775  0.0521
98506W        W41418  22.478   3.358  19.211  0.2703 -0.0511 -0.4417
98507W        W41419  24.228   0.412  17.885 -0.0762  0.0633 -0.0957
98508W        W41420  23.780   2.844  19.693 -0.0833  0.3100  0.3345
98509W        W41421  21.727   2.843  16.684 -0.0380  0.3413 -0.3007
98510W        W41422  22.568   4.646  19.678  0.1122  0.0509 -0.2766
98511W        W41423  22.700   3.121  17.132 -0.1318 -0.0291 -0.2239
98512W        W41424  20.804   0.478  18.649  0.1489  0.2696 -0.0090
98513W        W41425  23.878   2.225  18.596 -0.1475  0.1971  0.2857
98514W        W41426  24.105   0.959  16.041  0.2810 -0.0547  0.2507
98515W        W41427  21.586   0.027  21.527  0.1241  0.1623  0.4841
98516W        W41428  25.021   0.158  17.614  0.0421 -0.1164  0.1692
98517W        W41429  22.139   1.951  15.658 -0.0511  0.0361 -0.2543
98518W        W41430  26.132   3.987  16.522 -0.1566  0.0051  0.0755
98519W        W41431  25.277   1.537  16.752 -0.1980 -0.3424  0.0932
98520W        W41432  23.866   3.364  15.855  0.0566 -0.0748 -0.2419
98521W        W41433  22.745   1.830  16.943  0.0113  0.2491 -0.4738
98522W        W41434  22.817   1.935  17.639  0.0217 -0.0771  0.1477
98523W        W41435  21.618   0.397  19.738  0.1344 -0.1739  0.0650
98524W        W41436  22.105  34.270  17.485  0.0550 -0.0153 -0.1496
98525W        W41437  25.527   1.659  18.677  0.0357  0.1364  0.0596
98526W        W41438  21.598   1.279  17.509 -0.3688  0.0049  0.0215
98527W        W41439  24.720   0.563  16.768  0.1748 -0.1242  0.2502
98528W        W41440  23.492   2.174  16.504  0.2456  0.0120  0.1632
98529W        W41441  22.542   2.309  17.494 -0.0291  0.4430 -0.1991
98530W        W41442  25.021   0.908  19.868  0.1833 -0.0383  0.1417
98531W        W41443  23.092   3.053  17.452  0.0429  0.3221  0.1646
98532W        W41444  24.913   2.751  18.999  0.1623 -0.0377  0.1486
98533W        W41445  24.700   2.493  18.303 -0.0675  0.2037 -0.0605
98534W        W41446  22.874  34.475  18.488  0.2009 -0.2936 -0.0326
98535W        W41447  22.996  34.652  17.149  0.1573 -0.1623  0.2928
98536W        W41448  22.793   3.964  17.763  0.2690 -0.0384  0.0387
98537W        W41449  23.684   1.727  18.503  0.1084  0.3900 -0.0273
98538W        W41450  21.195   0.881  16.530  0.0666  0.1012 -0.3047
98539W        W41451  25.028   3.443  17.824  0.0780  0.3286  0.2107
98540W        W41452  24.212   2.431  18.302  0.1207  0.1006  0.1569
98541W        W41453  22.318   1.466  18.712 -0.1312 -0.0051  0.3247
98542W        W41454  24.435   0.466  19.163 -0.0689  0.0197  0.2150
98543W        W41455  23.949   1.904  18.167 -0.0753  0.1612 -0.4430
98544W        W41456  24.929   1.761  18.147 -0.1375  0.2108 -0.3706
98545W        W41457  22.221   0.657  15.797 -0.0712  0.1243  0.1388
98546W        W41458  24.462   3.563  17.724 -0.0816 -0.3497  0.2177
98547W        W41459  21.781   3.908  15.878 -0.1777 -0.0503 -0.1079
98548W        W41460  22.311   1.875  17.727 -0.2145 -0.1249  0.3279
98549W        W41461  24.476   4.036  18.474  0.0906  0.2078 -0.0382
98550W        W41462  23.630   1.005  17.786 -0.1338  0.1017 -0.2181
98551W        W41463  20.815   1.885  19.160 -0.0977  0.1784 -0.0162
98552W        W41464  24.775   0.572  18.058  0.1055 -0.0722 -0.2740
98553W        W41465  21.358   2.122  17.213  0.0224 -0.1000  0.0986
98554W        W41466  23.352   3.308  18.773  0.3034 -0.2160  0.0866
98555W        W41467  23.591   0.385  16.749 -0.0627 -0.0598  0.1561
98556W        W41468  24.980   0.828  15.702 -0.0480 -0.0440 -0.2007
98557W        W41469  23.402   1.450  19.220 -0.0344  0.0383  0.0664
98558W        W41470  24.939   2.178  17.223 -0.1386 -0.5188  0.1131
98559W        W41471  25.491   0.800  15.973  0.2665  0.3177  0.2713
98560W        W41472  23.038   0.275  16.774 -0.0322 -0.1169  0.0630
98561W        W41473  22.327   3.049  19.566  0.1598  0.0289 -0.1681
98562W        W41474  23.426   2.025  18.205  0.0638 -0.2392  0.2809
98563W        W41475  22.883   2.728  18.204  0.2362  0.0798  0.0220
98564W        W41476  23.979   0.543  15.760 -0.0841 -0.0727 -0.0237
98565W        W41477  24.697   3.058  15.409  0.0291 -0.1460  0.1295
98566W        W41478  23.687   3.748  17.887  0.0701  0.1773  0.3827
98567W        W41479  23.731   1.814  19.466  0.0403 -0.1520  0.1025
98568W        W41480  23.660   2.316  17.841  0.2441 -0.4892 -0.1592
98569W        W41481  21.706   1.722  17.351  0.1058  0.2029 -0.2501
98570W        W41482  23.443   1.283  16.821 -0.0646  0.1073 -0.3315
98571W        W41483  22.991  34.344  17.549  0.1946 -0.0407 -0.1038
98572W        W41484  21.831   1.999  16.121  0.0398  0.2855  0.0387
98573W        W41485  24.414   1.354  18.879 -0.0963 -0.1342  0.0228
98574W        W41486  24.015   0.938  17.416  0.4476  0.3426 -0.3053
98575W        W41487  21.427   1.747  17.783 -0.1442  0.1199  0.0220
98576W        W41488  24.095   3.004  19.317  0.2005 -0.0474  0.0150
98577W        W41489  25.235   3.829  16.892  0.0300 -0.0207  0.1581
98578W        W41490  24.496   2.720  17.942 -0.1930 -0.3627 -0.1201
98579W        W41491  20.105   1.064  16.451 -0.1560  0.3652 -0.0769
98580W        W41492  22.867   0.494  17.264  0.1113  0.0026 -0.3593
98581W        W41493  21.867   1.253  20.498 -0.1488 -0.1119  0.0352
98582W        W41494  21.741   5.050  18.541 -0.0591  0.1830  0.1017
98583W        W41495  24.384   2.706  18.902  0.1041  0.1595  0.0969
98584W        W41496  23.943   2.176  16.801  0.1897 -0.0958 -0.4006
98585W        W41497  23.475   0.338  18.662 -0.1061  0.0643 -0.1406
98586W        W41498  24.391   0.844  15.614  0.1720  0.2450 -0.2698
98587W        W41499  22.666   2.677  16.802  0.1137 -0.1440 -0.1043
98588W        W41500  23.427   0.827  15.531 -0.0347  0.1106 -0.3044
98589W        W41501  22.513   0.178  17.040 -0.0156 -0.0618  0.1938
98590W        W41502  24.601   2.419  19.253  0.0497  0.0438 -0.2512
98591W        W41503  22.996   3.578  16.236  0.2440 -0.1092  0.0664
98592W        W41504  24.495   1.862  19.319 -0.0626  0.1774 -0.0183
98593W        W41505  22.471   3.216  16.700 -0.0784  0.2875 -0.0018
98594W        W41506  24.328   1.491  17.969  0.1873 -0.0770  0.2434
98595W        W41507  21.021   4.070  17.670 -0.2832 -0.1691 -0.0589
98596W        W41508  22.785   1.778  16.422  0.1309  0.0198 -0.0753
98597W        W41509  22.425   2.103  16.523  0.3916  0.2731 -0.0956
98598W        W41510  25.920   0.036  16.776  0.3071 -0.0200  0.1760
98599W        W41511  24.999   1.267  16.060 -0.2548 -0.0526 -0.0647
98600W        W41512  22.916  34.392  18.008  0.2184  0.2786 -0.0070
98601W        W41513  23.336  34.038  16.785 -0.0028 -0.0890  0.0381
98602W        W41514  21.928   3.177  19.034 -0.0742 -0.0894 -0.3331
98603W        W41515  24.475   0.832  18.704  0.0439 -0.1328  0.1846
98604W        W41516  25.832   0.923  16.288 -0.0054 -0.0558 -0.0662
98605W        W41517  25.737   2.577  19.422  0.2173 -0.4098  0.0184
98606W        W41518  22.571   1.461  19.557 -0.1155 -0.1649  0.3996
98607W        W41519  20.935   2.059  16.216  0.3413  0.3038 -0.1339
98608W        W41520  23.659   1.979  18.986 -0.1497 -0.1812 -0.0948
98609W        W41521  21.451   1.260  16.127  0.1472  0.0278  0.0186
98610W        W41522  22.978   2.205  16.656 -0.1352  0.0900  0.2560
98611W        W41523  23.399   2.292  18.703  0.2380 -0.0331 -0.0298
98612W        W41524  22.072   1.323  16.348 -0.1009 -0.1426 -0.0742
98613W        W41525  22.123   2.896  16.015 -0.1380  0.0295  0.1528
98614W        W41526  22.962   0.831  19.817 -0.1082  0.2837 -0.3902
98615W        W41527  25.682   2.204  17.854  0.0422 -0.0693  0.0659
98616W        W41528  23.129   2.316  17.925 -0.1431  0.0445  0.1885
98617W        W41529  22.578   1.537  17.426  0.2621  0.0748  0.0731
98618W        W41530  24.375   0.930  16.526  0.1242  0.1130 -0.0143
98619W        W41531  24.679   3.331  17.293 -0.1885 -0.0769  0.3809
98620W        W41532  24.165   1.774  18.849  0.1583 -0.4950  0.2205
98621W        W41533  22.793   3.163  19.589  0.3144 -0.0143  0.3711
98622W        W41534  24.125  34.351  17.247 -0.3101 -0.0042  0.0848
98623W        W41535  24.148   3.044  16.172 -0.1507 -0.0974  0.0847
98624W        W41536  24.717   1.933  19.902 -0.0145 -0.4351 -0.3515
98625W        W41537  23.096   2.082  16.164 -0.1196  0.1882  0.0647
98626W        W41538  22.618   0.115  19.129  0.2560 -0.0269 -0.4185
98627W        W41539  22.405   1.567  16.687 -0.3791 -0.2857 -0.2437
98628W        W41540  22.340   0.725  16.931  0.0788 -0.4413  0.2580
98629W        W41541  23.039   2.885  19.023 -0.2500 -0.1198  0.1384
98630W        W41542  22.003   1.518  15.353 -0.0232  0.4527  0.0480
98631W        W41543  21.904   3.144  18.518 -0.2854 -0.0651  0.2717
98632W        W41544  25.270   1.188  15.501 -0.1555  0.2060 -0.0003
98633W        W41545  24.164   1.377  16.557  0.1029  0.0230 -0.2039
98634W        W41546  22.588   1.362  16.145  0.1202 -0.0507  0.0503
98635W        W41547  25.142   2.073  18.544  0.1198  0.0352  0.1059
98636W        W41548  23.935   1.693  15.255 -0.1564  0.1168  0.0421
98637W        W41549  24.031   0.715  19.762  0.1463 -0.0978 -0.4710
98638W        W41550  23.130   0.889  16.982  0.0428 -0.2145 -0.3502
98639W        W41551  24.687   2.405  16.795  0.0703 -0.3353  0.3823
98640W        W41552  20.865  34.587  17.534 -0.0596  0.1786  0.2009
98641W        W41553  25.000   3.392  21.475  0.2233  0.0723 -0.1377
98642W        W41554  21.793   1.380  18.460  0.1020 -0.0491 -0.1115
98643W        W41555  24.466   0.932  17.050 -0.1738 -0.2068  0.0361
98644W        W41556  23.384   0.282  16.319 -0.0243 -0.2432  0.0583
98645W        W41557  21.942   1.774  18.825  0.1555  0.1331 -0.2184
98646W        W41558  24.091   2.800  17.347  0.2300 -0.1814  0.4349
98647W        W41559  22.902   3.016  16.410  0.2735 -0.0508 -0.0630
98648W        W41560  25.433   1.878  18.168  0.1730  0.1439 -0.1355
98649W        W41561  22.833   0.730  16.664 -0.4003 -0.0274 -0.0317
98650W        W41562  24.942   1.144  17.857  0.2767 -0.2549  0.3139
98651W        W41563  24.129   1.839  16.314  0.2980 -0.0186 -0.0086
98652W        W41564  23.487   2.115  17.006  0.2405  0.1336  0.1591
98653W        W41565  22.555  34.089  18.787 -0.0470  0.0453  0.0407
98654W        W41566  24.536   2.125  17.993  0.0404 -0.0731  0.3625
98655W        W41567  24.966   1.125  16.769 -0.2244 -0.0491  0.2955
98656W        W41568  24.068   2.097  19.261  0.1625  0.1880  0.2526
98657W        W41569  26.499   2.155  18.314  0.2084  0.0293 -0.1662
98658W        W41570  22.315   2.261  19.100 -0.0821 -0.1166 -0.2309
98659W        W41571  21.784   0.908  20.163  0.1363  0.0997  0.0805
98660W        W41572  24.738   3.637  18.746 -0.2672 -0.0992  0.3202
98661W        W41573  25.967   1.012  16.838 -0.0860  0.2583 -0.1765
98662W        W41574  24.762  34.475  18.819 -0.2035  0.4760  0.0469
98663W        W41575  24.979   1.623  17.180 -0.1574 -0.0468  0.3412
98664W        W41576  24.034   1.762  15.838  0.0544  0.1005 -0.2015
98665W        W41577  22.473   0.779  17.444  0.0806 -0.0793  0.1555
98666W        W41578  24.396   1.565  19.760  0.0069 -0.0146  0.3021
98667W        W41579  21.825   0.402  15.534 -0.0612  0.3316  0.4592
98668W        W41580  25.197   1.444  18.384  0.2331 -0.0158 -0.2215
98669W        W41581  23.500   3.618  16.103 -0.0442 -0.1929  0.1758
98670W        W41582  24.559   3.216  18.095 -0.2390 -0.2703 -0.0087
98671W        W41583  24.400   1.466  16.062 -0.1385  0.2814 -0.1361
98672W        W41584  21.268   0.650  18.922 -0.1969  0.1686 -0.0016
98673W        W41585  24.698   3.733  18.093 -0.1714  0.2380  0.0876
98674W        W41586  21.606   1.833  16.592 -0.3107  0.1820 -0.1191
98675W        W41587  24.058   2.243  15.995 -0.0645  0.1251  0.0390
98676W        W41588  22.739   1.792  18.171 -0.0570  0.1815  0.1002
98677W        W41589  26.449   2.190  19.571 -0.0533  0.0590 -0.0447
98678W        W41590  26.266   2.064  16.908  0.0513 -0.1231  0.2077
98679W        W41591  23.794   0.586  19.229 -0.1528 -0.1532 -0.2551
98680W        W41592  21.134   2.181  16.666 -0.1596  0.1194  0.1109
98681W        W41593  22.787  34.171  16.248  0.0634 -0.0199 -0.0090
98682W        W41594  23.351   4.184  19.276  0.1952  0.0569 -0.0935
98683W        W41595  21.421   3.802  18.815  0.2386 -0.0639 -0.0263
98684W        W41596  22.372   4.305  17.610 -0.1932  0.0290 -0.0104
98685W        W41597  23.708   0.376  18.161 -0.1620  0.1324 -0.3366
98686W        W41598  22.467   2.032  18.691 -0.1077  0.1333  0.1256
98687W        W41599  22.946   1.369  15.519  0.0534 -0.2820  0.0823
98688W        W41600  25.246   1.616  19.142 -0.2386  0.3015 -0.4136
98689W        W41601  24.396   2.189  18.841 -0.0470 -0.2258  0.1125
98690W        W41602  22.408   2.571  18.354  0.1608 -0.2045 -0.2803
98691W        W41603  25.036   4.845  19.128 -0.1211 -0.0534 -0.1785
98692W        W41604  24.253   2.288  17.153 -0.0613 -0.0339  0.2560
98693W        W41605  22.885   2.451  19.434  0.1060  0.0800 -0.0621
98694W        W41606  20.986   1.903  20.617 -0.0375  0.1716  0.3667
98695W        W41607  24.532   1.062  19.705  0.2367  0.1035 -0.1739
98696W        W41608  25.328   2.145  16.883  0.1660  0.2443 -0.3861
98697W        W41609  21.866   0.419  16.072 -0.2854 -0.1186 -0.1939
98698W        W41610  23.178   2.597  16.398  0.1870 -0.1703 -0.0545
98699W        W41611  23.219   1.557  20.017  0.0545 -0.0274 -0.1689
98700W        W41612  21.371   1.361  20.295 -0.2762  0.2921 -0.0314
98701W        W41613  22.347   3.553  17.041 -0.0938  0.2756 -0.1547
98702W        W41614  23.709   2.645  16.488  0.0322 -0.4375 -0.1527
98703W        W41615  24.562   2.861  16.544 -0.0503 -0.3397  0.0877
98704W        W41616  24.171   3.914  17.951  0.1411 -0.1489  0.0354
98705W        W41617  23.048   0.961  16.223 -0.2331  0.1245  0.1055
98706W        W41618  21.929   2.395  18.431  0.1353  0.1725  0.2872
98707W        W41619  21.682   2.838  16.209  0.1630 -0.1349 -0.1447
98708W        W41620  24.043   1.726  17.134 -0.0446  0.0364 -0.0052
98709W        W41621  23.749   1.716  16.675 -0.0044 -0.0391 -0.2090
98710W        W41622  25.126   2.598  19.462  0.2484  0.2232  0.0920
98711W        W41623  25.685   0.561  16.880 -0.1388  0.1246  0.1710
98712W        W41624  24.560   2.521  17.498  0.2055  0.0342  0.1062
98713W        W41625  24.677   0.523  16.233  0.0530 -0.0438  0.3032
98714W        W41626  23.969   2.560  19.058 -0.0105 -0.1897  0.3526
98715W        W41627  22.592   2.951  15.980 -0.1426 -0.1531 -0.0412
98716W        W41628  21.567   0.041  15.947 -0.0046 -0.0255 -0.0946
98717W        W41629  21.235   0.594  18.355  0.0451 -0.1045  0.1198
98718W        W41630  26.106   0.589  18.335 -0.0217 -0.1921  0.1807
98719W        W41631  21.314   4.665  21.138  0.2035  0.0130 -0.2457
98720W        W41632  24.136   4.627  16.054 -0.3743  0.2400 -0.0038
98721W        W41633  22.564   0.335  16.583 -0.0242 -0.2120 -0.1657
98722W        W41634  23.162   1.858  15.645 -0.0768  0.4266 -0.0683
98723W        W41635  23.301   0.667  18.084 -0.0205  0.1390  0.0946
98724W        W41636  23.745   2.747  16.001  0.2482 -0.0804  0.1368
98725W        W41637  22.662   1.130  17.039 -0.1103 -0.0127  0.1565
98726W        W41638  22.971   3.185  17.940  0.3629 -0.0180 -0.0918
98727W        W41639  22.675   2.278  19.934  0.2925 -0.1056 -0.0528
98728W        W41640  22.647   3.707  18.625  0.1368 -0.1411  0.3633
98729W        W41641  20.384   0.635  15.995  0.0237 -0.0264  0.2286
98730W        W41642  23.657   0.857  18.380 -0.1706 -0.1342  0.0812
98731W        W41643  22.188   0.461  19.278 -0.1153  0.0975  0.1278
98732W        W41644  24.128   0.960  17.873  0.1332  0.0319 -0.0650
98733W        W41645  23.441   1.272  16.282  0.3514 -0.0038  0.1289
98734W        W41646  24.592  34.580  17.418 -0.2437 -0.1866  0.3835
98735W        W41647  22.255   1.529  18.158 -0.3694 -0.0456  0.1400
98736W        W41648  21.760   0.593  18.393 -0.2986  0.1157 -0.1812
98737W        W41649  24.352   0.411  15.369  0.0009 -0.1330 -0.2167
98738W        W41650  24.987   2.067  19.062 -0.2951 -0.0266 -0.1704
98739W        W41651  23.509   2.310  16.010  0.2151 -0.1944  0.0179
98740W        W41652  25.655   3.920  20.031  0.3672  0.1160  0.0270
98741W        W41653  22.121   0.038  17.300 -0.3340  0.2182  0.1594
98742W        W41654  25.464   0.526  16.482 -0.0230  0.1499 -0.0250
98743W        W41655  22.839   2.638  17.630  0.0696 -0.1487 -0.1683
98744W        W41656  21.638   0.317  18.825  0.1943  0.1404  0.1913
98745W        W41657  25.560   2.173  18.964 -0.0119 -0.0952 -0.0777
98746W        W41658  21.274  34.487  16.276  0.0759 -0.2969 -0.1358
98747W        W41659  24.357   1.886  16.760  0.2410 -0.0901 -0.1892
98748W        W41660  24.685   1.654  17.675 -0.2322  0.0981  0.0952
98749W        W41661  22.519   3.816  16.557 -0.5292  0.0521  0.1668
98750W        W41662  26.135   1.704  16.487  0.0388 -0.1644  0.3349
98751W        W41663  24.556   3.711  16.978  0.2367 -0.0827  0.0198
98752W        W41664  21.866  33.824  18.396  0.1267 -0.1455  0.0322
98753W        W41665  26.015   4.892  18.674  0.0325  0.3737 -0.2942
98754W        W41666  26.837   3.315  17.102 -0.2921 -0.0891  0.0369
98755W        W41667  23.861  34.003  16.974  0.2021  0.0576 -0.2624
98756W        W41668  23.389   1.217  18.574  0.2784  0.0180  0.2514
98757W        W41669  21.156   2.040  18.809 -0.1159 -0.0013  0.1451
98758W        W41670  25.690   0.265  18.139  0.3557  0.3761 -0.1280
98759W        W41671  25.255   0.462  19.423  0.2631  0.0853  0.1229
98760W        W41672  23.125   2.825  16.987  0.2748 -0.1324 -0.0350
98761W        W41673  25.018   0.393  19.895 -0.0466 -0.4030 -0.2834
98762W        W41674  24.541   4.069  19.004 -0.1748 -0.0991 -0.3654
98763W        W41675  23.200   1.099  20.272 -0.2376  0.2273  0.0281
98764W        W41676  21.505   1.251  16.601 -0.2231 -0.3108 -0.0374
98765W        W41677  22.564   0.621  18.839  0.1001 -0.0481 -0.0633
98766W        W41678  23.285   2.781  17.908  0.3186  0.0112  0.0134
98767W        W41679  23.796   3.146  17.056  0.1870 -0.1146 -0.0120
98768W        W41680  25.344   3.710  18.647  0.1325 -0.1658 -0.1746
98769W        W41681  21.338   1.477  17.099  0.0546 -0.2120 -0.0936
98770W        W41682  25.575   1.872  16.586  0.2146  0.1349  0.1990
98771W        W41683  23.390   0.294  17.257  0.2362 -0.1778  0.2645
98772W        W41684  24.539   1.850  17.242 -0.0576  0.3372 -0.1232
98773W        W41685  24.079   0.344  17.207 -0.0366  0.2095 -0.1244
98774W        W41686  22.657   2.834  18.720  0.0449  0.5742 -0.0557
98775W        W41687  20.879   0.588  15.863  0.1581 -0.2987  0.0956
98776W        W41688  23.674   1.976  15.570 -0.0244 -0.0976  0.2240
98777W        W41689  21.928   1.491  16.837  0.0860  0.3348 -0.1037
98778W        W41690  23.783  34.663  18.489  0.0072 -0.0966  0.0110
98779W        W41691  22.932  34.437  18.990  0.1033  0.1879  0.3860
98780W        W41692  22.529   2.758  19.184  0.0716 -0.2207 -0.0243
98781W        W41693  22.244  34.071  16.776  0.0351  0.0068  0.2328
98782W        W41694  24.261   3.144  15.245 -0.1273  0.4147 -0.0078
98783W        W41695  21.560  33.961  19.186  0.0197  0.2544  0.0425
98784W        W41696  22.488  33.799  16.170 -0.2772 -0.0302 -0.0541
98785W        W41697  24.259   1.890  17.625  0.1646 -0.0395 -0.2005
98786W        W41698  23.018   3.189  15.847  0.1862 -0.2057  0.2356
98787W        W41699  22.054  34.633  17.831 -0.1179  0.0741  0.2618
98788W        W41700  26.029   2.876  19.877  0.0746 -0.1133 -0.0265
98789W        W41701  22.508   1.423  15.318  0.3029 -0.0373 -0.1823
98790W        W41702  24.215   0.571  18.331  0.2859 -0.3703 -0.1871
98791W        W41703  22.995   0.294  19.955  0.2173  0.1069  0.1130
98792W        W41704  21.644   0.651  16.563 -0.0568 -0.2085  0.0723
98793W        W41705  23.586   1.833  16.144 -0.1231  0.0639  0.0697
98794W        W41706  23.420   1.555  17.741 -0.0659  0.0791 -0.2443
98795W        W41707  23.417   3.750  17.134 -0.2910 -0.2052  0.0991
98796W        W41708  25.161   2.349  18.084  0.1941 -0.2754 -0.1445
98797W        W41709  25.295   2.573  18.737  0.0065 -0.1574 -0.0345
98798W        W41710  20.768  34.693  21.109  0.1560 -0.1944 -0.2475
98799W        W41711  25.003   2.232  15.988  0.1545  0.4494 -0.2040
98800W        W41712  23.262   1.770  18.757  0.2690  0.0013 -0.1122
98801W        W41713  25.604   2.625  15.430  0.1152  0.1409  0.0537
98802W        W41714  23.730  34.662  17.158 -0.0420  0.0728 -0.0708
98803W        W41715  24.528   1.396  16.875  0.1801 -0.2383  0.0355
98804W        W41716  20.558   1.039  19.074  0.0985 -0.2621  0.0276
98805W        W41717  21.317   2.454  18.982 -0.2213  0.0445  0.2732
98806W        W41718  25.767   1.140  17.438  0.0680 -0.1262  0.2177
98807W        W41719  22.576  34.551  17.501 -0.0714 -0.2037 -0.0044
98808W        W41720  23.291   0.691  17.582  0.0635  0.1641 -0.0578
98809W        W41721  23.775   4.004  17.460  0.1517  0.0403  0.0407
98810W        W41722  22.176   2.387  17.806  0.0024 -0.1829  0.0214
98811W        W41723  23.634   0.823  16.007  0.1331  0.1076 -0.0247
98812W        W41724  24.232   1.106  18.369 -0.1369  0.4838  0.1693
98813W        W41725  24.256   2.917  18.406  0.0523 -0.1352  0.2125
98814W        W41726  25.763   1.983  17.093  0.2141  0.1410  0.1074
98815W        W41727  22.500   1.082  16.566  0.1576 -0.1944  0.0435
98816W        W41728  25.702   1.664  17.781  0.2995 -0.0575 -0.1086
98817W        W41729  25.024   3.406  18.345  0.2819 -0.1899  0.1814
98818W        W41730  24.382   3.897  19.476 -0.2088  0.0028  0.3703
98819W        W41731  25.512   2.461  17.262 -0.0373 -0.0523  0.0545
98820W        W41732  26.071   1.882  17.492  0.2586  0.0415  0.0835
98821W        W41733  22.787   0.592  17.786  0.0970 -0.0333 -0.1631
98822W        W41734  21.994   3.273  16.524  0.1588  0.2145  0.1435
98823W        W41735  23.410   3.050  16.673 -0.0873  0.2268 -0.0854
98824W        W41736  24.887   1.094  18.748  0.2239 -0.2728  0.1748
98825W        W41737  22.634   0.729  18.256 -0.0043  0.1776  0.2430
98826W        W41738  24.135  34.133  15.699 -0.2167 -0.0093 -0.1244
98827W        W41739  23.596   2.933  17.456  0.0579  0.2834  0.0208
98828W        W41740  25.503   3.088  19.800 -0.0844 -0.2012  0.1602
98829W        W41741  21.345   2.352  21.722 -0.1301  0.0395  0.0864
98830W        W41742  22.213   0.914  20.471 -0.2468  0.2152  0.0114
98831W        W41743  23.260   0.514  19.092 -0.0528 -0.1621 -0.0474
98832W        W41744  23.925   2.261  20.460 -0.2218  0.1940  0.2347
98833W        W41745  23.061  34.539  20.847  0.1437  0.0159  0.0461
98834W        W41746  23.653   2.954  20.709  0.1690 -0.2190  0.0646
98835W        W41747  22.513  34.142  22.153  0.2762  0.0784 -0.1420
98836W        W41748  23.443   2.961  22.708  0.0225  0.0640 -0.0196
98837W        W41749  25.664   2.999  21.234  0.0335  0.4051  0.2469
98838W        W41750  23.614   1.474  20.287  0.0347  0.2169 -0.0369
98839W        W41751  23.057   0.562  21.384  0.1726 -0.2550 -0.0851
98840W        W41752  23.377   2.243  23.308  0.3197 -0.5251 -0.2633
98841W        W41753  23.512   0.040  19.954 -0.1842  0.1100 -0.1003
98842W        W41754  22.656  34.220  21.685  0.3174 -0.2927 -0.0358
98843W        W41755  23.411   2.321  22.306  0.0293  0.0309 -0.2340
98844W        W41756  22.794   0.666  20.243  0.2936  0.2413 -0.1358
98845W        W41757  22.929   1.300  22.096 -0.0578  0.0049  0.1423
98846W        W41758  23.031   1.306  19.596  0.0283  0.1330  0.2455
98847W        W41759  22.864   3.466  21.405  0.2767  0.1534 -0.0700
98848W        W41760  22.840   1.033  21.009 -0.0384  0.0366  0.0849
98849W        W41761  24.108  34.684  24.442  0.1068  0.1309  0.0201
98850W        W41762  22.586   2.711  21.793  0.2560  0.1101 -0.4333
98851W        W41763  22.137   2.732  18.795  0.2341  0.0059  0.2439
98852W        W41764  21.187   2.002  22.562  0.1739  0.1592  0.0243
98853W        W41765  23.051   0.773  22.363 -0.3051  0.1768  0.1025
98854W        W41766  23.512   1.660  23.940  0.0358  0.1908 -0.2014
98855W        W41767  23.829   1.878  20.940  0.1709 -0.2905 -0.3362
98856W        W41768  23.436   4.030  22.326  0.1996 -0.1444 -0.0852
98857W        W41769  24.770   3.166  22.588 -0.1991  0.1635 -0.0476
98858W        W41770  25.334   1.733  23.698  0.0142  0.2292  0.2354
98859W        W41771  22.844   2.288  22.091  0.4673 -0.0614 -0.0050
98860W        W41772  21.208   3.550  22.156 -0.1758 -0.2550  0.0256
98861W        W41773  22.300   1.489  20.424 -0.1156 -0.1135 -0.1898
98862W        W41774  25.454   2.343  20.328  0.0524  0.5124  0.1899
98863W        W41775  23.152   3.222  22.314 -0.2220  0.2227 -0.2489
98864W        W41776  22.207   3.909  23.537 -0.2546 -0.3199 -0.0897
98865W        W41777  23.388   2.574  19.131  0.4321 -0.2603 -0.1667
98866W        W41778  23.378   4.917  22.315  0.0076  0.0284  0.1482
98867W        W41779  22.083   2.595  21.572 -0.0835  0.0436  0.0482
98868W        W41780  22.095   2.307  22.952  0.0418  0.0028  0.1432
98869W        W41781  22.517   1.409  21.330 -0.1113  0.0075 -0.2477
98870W        W41782  22.794   2.754  20.953  0.0656 -0.1478 -0.3762
98871W        W41783  23.789   2.251  19.708 -0.0541  0.0589 -0.1329
98872W        W41784  22.971   2.045  24.729  0.1812 -0.1046  0.1763
98873W        W41785  22.020   3.153  21.528  0.1513 -0.1392 -0.1822
98874W        W41786  26.400   1.351  22.971  0.0772  0.1716  0.1179
98875W        W41787  22.670   4.031  19.901  0.0077  0.1683 -0.1511
98876W        W41788  22.592   1.712  19.979  0.3702 -0.0567 -0.1224
98877W        W41789  23.729   1.354  18.129  0.0485 -0.0964 -0.0410
98878W        W41790  23.762   0.946  20.173 -0.1350  0.2035 -0.0497
98879W        W41791  22.624  34.510  21.323  0.0977  0.0702  0.0004
98880W        W41792  23.145   3.459  22.969 -0.1496  0.1228  0.0130
98881W        W41793  23.933   0.624  23.368 -0.2023  0.1400  0.1783
98882W        W41794  23.668   1.891  23.157 -0.2076 -0.1602  0.0839
98883W        W41795  22.891   1.556  20.399 -0.0379  0.0010 -0.0539
98884W        W41796  23.260   1.639  22.502  0.0940 -0.2080  0.3781
98885W        W41797  21.603   2.850  21.583 -0.0900  0.2046 -0.0965
98886W        W41798  23.006   0.284  22.077  0.2697  0.1558  0.0987
98887W        W41799  26.923   3.320  19.745 -0.2346 -0.2139  0.1424
98888W        W41800  25.288   3.114  21.829 -0.0701  0.0184  0.0324
98889W        W41801  23.609   2.838  20.244 -0.1863  0.1982  0.1357
98890W        W41802  22.143  34.618  20.277  0.0668  0.0105 -0.0948
98891W        W41803  21.803   2.556  25.281 -0.0214  0.2393  0.0476
98892W        W41804  20.537   0.042  21.519 -0.0237  0.1345  0.2343
98893W        W41805  22.230  34.388  19.704 -0.0133 -0.1133  0.0637
98894W        W41806  25.000   2.998  23.714  0.0088  0.0561 -0.0003
98895W        W41807  21.389   2.900  24.365  0.0409  0.1623  0.1443
98896W        W41808  24.215   0.816  20.348 -0.1169  0.0565  0.0519
98897W        W41809  22.164   1.121  21.462  0.0572  0.2093  0.0298
98898W        W41810  24.084   3.737  22.968  0.0280 -0.2144  0.0491
98899W        W41811  24.775   3.076  19.825 -0.0831  0.2751 -0.0931
98900W        W41812  22.722   1.584  20.886  0.1096  0.2054 -0.1864
98901W        W41813  23.224   1.443  21.725 -0.2281  0.0369 -0.0035
98902W        W41814  23.239   2.109  19.261 -0.0249  0.1658  0.0348
98903W        W41815  24.021   2.564  20.037  0.2688 -0.1550  0.0554
98904W        W41816  24.213   2.000  23.401 -0.0706 -0.1139 -0.4676
98905W        W41817  24.653   1.216  20.408 -0.2422  0.0551  0.2558
98906W        W41818  20.999   2.972  21.380  0.1478  0.0345 -0.1934
98907W        W41819  22.111   0.755  22.986 -0.0434 -0.0901 -0.0607
98908W        W41820  22.683   2.710  23.858  0.1900  0.3834 -0.0281
98909W        W41821  23.096   3.250  20.084 -0.0047 -0.0852  0.1634
98910W        W41822  21.742   1.954  22.207 -0.1217  0.0558 -0.2730
98911W        W41823  22.079   1.658  21.965 -0.2530  0.1482  0.2875
98912W        W41824  23.467   1.455  23.002  0.5828 -0.0386 -0.1256
98913W        W41825  22.533   2.982  23.437 -0.0872 -0.1560 -0.2077
98914W        W41826  24.070   0.396  21.737  0.0006  0.0055 -0.3127
98915W        W41827  23.745   0.270  23.620  0.0495  0.2525 -0.0783
98916W        W41828  23.658   0.584  21.418  0.0825 -0.1338 -0.5426
98917W        W41829  21.849   1.639  19.431 -0.2503 -0.0277 -0.0654
98918W        W41830  25.675   3.984  20.587 -0.0723 -0.2471  0.0639
98919W        W41831  24.142   1.527  19.318  0.3451 -0.2678 -0.0967
98920W        W41832  25.268   1.746  19.647  0.1566  0.1990  0.2577
98921W        W41833  21.901   0.330  21.854  0.0292  0.3289  0.1368
98922W        W41834  22.222  34.538  21.706  0.1084 -0.0420 -0.1880
98923W        W41835  21.965   0.520  24.254  0.2655 -0.0461 -0.0012
98924W        W41836  22.352   0.827  23.660 -0.2385 -0.0660 -0.2004
98925W        W41837  23.921   3.248  23.850  0.3467 -0.1414 -0.0508
98926W        W41838  21.670   0.196  21.044  0.1315 -0.3480 -0.2903
98927W        W41839  24.466   0.968  21.379 -0.1789 -0.0279 -0.2816
98928W        W41840  22.070   1.631  21.434 -0.1254 -0.0616  0.2259
98929W        W41841  21.538   1.941  21.165 -0.0602 -0.0717  0.2007
98930W        W41842  25.419   0.602  23.556  0.1078  0.1517  0.1077
98931W        W41843  24.226   2.576  19.525 -0.2338 -0.0935  0.0518
98932W        W41844  24.591   3.452  23.360  0.1376 -0.1780 -0.0541
98933W        W41845  23.497   4.483  22.015 -0.0217 -0.0372 -0.2726
98934W        W41846  23.672   1.917  22.640 -0.0016 -0.1369  0.0528
98935W        W41847  21.981   0.770  19.691 -0.1050  0.2248  0.1018
98936W        W41848  21.085   4.191  21.292  0.1256 -0.1003 -0.1934
98937W        W41849  23.133   1.849  22.061  0.1439 -0.2364 -0.1048
98938W        W41850  23.100  34.543  20.115  0.2856 -0.1884 -0.1211
98939W        W41851  24.403   4.383  23.550  0.0304 -0.0196  0.2051
98940W        W41852  23.852   0.536  20.900  0.0472 -0.2906  0.2020
98941W        W41853  21.576   1.473  24.339  0.1275 -0.2568 -0.0358
98942W        W41854  24.974   1.078  24.485 -0.1613 -0.3548 -0.0741
98943W        W41855  23.515   2.338  22.832 -0.0664 -0.2641 -0.1255
98944W        W41856  24.704   1.403  21.378 -0.1515 -0.0364 -0.0830
98945W        W41857  19.774  33.713  21.115  0.0200 -0.4163  0.4419
98946W        W41858  22.977   2.820  21.488  0.0233 -0.2670 -0.0685
98947W        W41859  22.013   4.159  20.451 -0.0205 -0.2947  0.0877
98948W        W41860  21.223   1.415  21.808 -0.0916  0.4415  0.1795
98949W        W41861  23.205   2.307  21.309 -0.3113 -0.1046  0.3078
98950W        W41862  23.523   1.838  21.631 -0.1575  0.1330 -0.1948
98951W        W41863  21.573   1.804  25.627 -0.1212  0.1678 -0.4890
98952W        W41864  23.799   2.051  23.670 -0.0881  0.1136  0.1317
98953W        W41865  21.913   1.820  20.500 -0.0521  0.0902  0.0470
98954W        W41866  20.843   1.626  21.946 -0.6005 -0.1914 -0.4187
98955W        W41867  23.350  34.145  20.882 -0.2213 -0.0360 -0.0970
98956W        W41868  27.042   0.843  19.858  0.1893  0.0519 -0.0089
98957W        W41869  22.780   1.620  23.101 -0.2295  0.2102  0.1242
98958W        W41870  24.115   2.259  21.144 -0.1509 -0.2058  0.3508
98959W        W41871  23.065   0.184  17.679  0.0453 -0.1152 -0.1218
98960W        W41872  24.381  34.312  17.883 -0.2714  0.0763 -0.1933
98961W        W41873  22.413   2.310  24.398 -0.1114  0.0548  0.0178
98962W        W41874  23.813   3.228  21.670  0.1306 -0.2251  0.0635
98963W        W41875  23.049   2.236  20.812 -0.0510  0.2151 -0.1748
98964W        W41876  22.977   0.923  19.013  0.2444  0.2588  0.0715
98965W        W41877  26.157   3.892  21.395  0.1932  0.1960  0.0511
98966W        W41878  20.750   2.582  21.849  0.0533 -0.0487 -0.2251
98967W        W41879  24.314   1.510  23.387 -0.3922  0.2650  0.1424
98968W        W41880  24.921   2.606  22.329 -0.2318 -0.0652 -0.1723
98969W        W41881  24.456   0.810  22.021  0.2583 -0.2801  0.0331
98970W        W41882  22.521   0.965  19.543 -0.2252  0.2921  0.0463
98971W        W41883  22.543   0.515  19.857 -0.3202 -0.2633  0.0889
98972W        W41884  22.365   2.776  20.510 -0.2634  0.0525 -0.0356
98973W        W41885  24.109   1.611  22.026  0.2411 -0.1476 -0.0436
98974W        W41886  24.892  33.774  22.090 -0.2131 -0.3331 -0.3038
98975W        W41887  22.890   1.137  21.557  0.0399  0.1819 -0.1600
98976W        W41888  24.216   1.594  22.540  0.2848 -0.1372 -0.2227
98977W        W41889  23.296   0.586  20.235 -0.2889 -0.3513  0.1738
98978W        W41890  22.522  34.628  20.794 -0.0670 -0.0025 -0.0103
98979W        W41891  21.328   1.489  18.722 -0.0202 -0.2534 -0.0133
98980W        W41892  23.928   2.465  22.543  0.0606 -0.1011  0.0250
98981W        W41893  22.603   2.868  22.284 -0.2974  0.3914 -0.1364
98982W        W41894  22.452   1.887  24.649  0.4783 -0.1705  0.1466
98983W        W41895  23.562   3.228  23.184  0.1184 -0.0406 -0.0411
98984W        W41896  24.604   2.458  21.476 -0.1284  0.1642  0.3553
98985W        W41897  23.861   1.258  24.092 -0.1168  0.2945 -0.1007
98986W        W41898  23.077   0.046  19.415 -0.0887 -0.2847  0.0654
98987W        W41899  22.776   2.486  20.441 -0.3591  0.0174  0.1643
98988W        W41900  23.892   2.817  21.122  0.0714 -0.1310  0.0284
98989W        W41901  23.395   0.800  21.059 -0.0371  0.1555 -0.2769
98990W        W41902  22.032   2.855  22.023 -0.0868  0.1452  0.2965
98991W        W41903  24.292   2.083  19.691  0.3441  0.1386  0.0590
98992W        W41904  22.516   2.415  22.672 -0.4665 -0.1401 -0.2130
98993W        W41905  21.987   1.805  22.794 -0.1766 -0.1305 -0.0180
98994W        W41906  25.374   0.525  23.061 -0.1051  0.1391 -0.2085
98995W        W41907  21.164   3.027  21.986  0.1512 -0.1616 -0.0171
98996W        W41908  22.151   1.255  19.420 -0.3130 -0.2748 -0.0228
98997W        W41909  21.194   1.513  22.417 -0.1155  0.1989  0.4491
98998W        W41910  23.629  34.509  21.539 -0.2301 -0.1558 -0.2441
98999W        W41911  25.160   0.966  20.580  0.3159  0.0857  0.5551
99000W        W41912  22.653   0.662  21.970  0.0428  0.2198 -0.1998
99001W        W41913  23.548   0.256  21.730  0.1715 -0.1978  0.1411
99002W        W41914  22.901   2.886  23.015  0.1543 -0.1973 -0.1812
99003W        W41915  23.306   1.614  23.437 -0.0122 -0.0710 -0.0775
99004W        W41916  23.843  34.422  19.194 -0.1454  0.1373  0.0822
99005W        W41917  23.820   2.441  23.302 -0.2562  0.1468 -0.1018
99006W        W41918  22.754   3.207  23.867  0.3069 -0.1423 -0.1949
99007W        W41919  22.872   1.288  18.416 -0.2934  0.2267 -0.3816
99008W        W41920  24.190   2.727  21.546  0.0851  0.1038 -0.0687
99009W        W41921  23.363  34.463  22.006  0.2121  0.0108 -0.2483
99010W        W41922  23.000   3.653  21.928 -0.0130  0.7075 -0.0657
99011W        W41923  22.755   3.215  22.692  0.1714 -0.1238  0.0833
99012W        W41924  22.347   1.641  19.134 -0.0639 -0.2734 -0.1177
99013W        W41925  22.778   2.070  21.673  0.1040 -0.1051  0.2621
99014W        W41926  21.575   1.254  23.546  0.0214 -0.2112 -0.0460
99015W        W41927  24.786   1.379  22.889 -0.1720  0.0561  0.0997
99016W        W41928  24.420   0.292  22.576 -0.3381 -0.1954  0.1597
99017W        W41929  22.253   1.305  20.891 -0.0374 -0.1982  0.1294
99018W        W41930  22.585   1.080  22.313 -0.1340 -0.0266 -0.2887
99019W        W41931  22.564   2.475  23.302  0.1735  0.1897  0.1243
99020W        W41932  21.714   1.935  23.299 -0.2198  0.2183  0.1980
99021W        W41933  21.672   2.030  23.755  0.2618  0.0427  0.0341
99022W        W41934  23.306   0.683  22.818 -0.2108 -0.1866  0.1500
99023W        W41935  26.562   1.644  20.590 -0.0344  0.2342  0.3218
99024W        W41936  24.293   3.480  22.425  0.1818 -0.1406 -0.0128
99025W        W41937  23.161   2.887  20.471  0.0295  0.1659  0.3608
99026W        W41938  21.294   1.914  22.014 -0.2273  0.3630 -0.0787
99027W        W41939  23.082   2.025  20.231 -0.2206 -0.2012  0.2449
99028W        W41940  24.239   0.205  23.633  0.0636 -0.0641  0.0547
99029W        W41941  21.145   3.220  22.540  0.1303 -0.0613  0.1673
99030W        W41942  22.964   1.861  19.662 -0.1357 -0.3638  0.0467
99031W        W41943  22.587   1.732  23.557 -0.1642 -0.0515  0.0498
99032W        W41944  24.449   0.260  18.680 -0.2222  0.0606 -0.2535
99033W        W41945  25.126   2.776  20.093  0.0243  0.0576  0.0750
99034W        W41946  23.325   1.821  21.065  0.1663  0.2471  0.0333
99035W        W41947  26.400   0.966  23.841  0.0688  0.1661  0.0983
99036W        W41948  23.410   1.927  20.611  0.0642  0.1736 -0.0067
99037W        W41949  24.406   0.611  23.394 -0.0905 -0.0462 -0.2133
99038W        W41950  21.421  34.444  24.109 -0.0862 -0.1441 -0.2114
99039W        W41951  23.317   2.230  21.823 -0.2482 -0.1556  0.1172
99040W        W41952  21.645   0.951  23.077 -0.0904  0.0211 -0.1178
99041W        W41953  23.349   3.558  23.515  0.0504  0.0248  0.0059
99042W        W41954  21.274   1.543  26.170  0.0324 -0.3444  0.0438
99043W        W41955  23.288  34.119  19.814  0.2860 -0.0560  0.1550
99044W        W41956  23.369   0.448  19.604 -0.1321 -0.1035 -0.0496
99045W        W41957  22.310   0.836  20.963  0.3578  0.0951  0.2906
99046W        W41958  23.549   2.901  21.445  0.0564  0.1244  0.1150
99047W        W41959  23.569   1.933  20.134  0.2221  0.0719  0.0512
99048W        W41960  24.365   0.370  20.590 -0.2673  0.2802 -0.0700
99049W        W41961  22.064  34.403  22.160 -0.0166 -0.1562  0.0929
99050W        W41962  23.863   0.974  21.141 -0.0152  0.3715 -0.2766
99051W        W41963  23.413   0.404  20.730 -0.0736 -0.0208 -0.1895
99052W        W41964  23.154   1.863  22.942 -0.1632 -0.0568 -0.0384
99053W        W41965  21.220   1.828  23.498 -0.0360 -0.1264  0.3997
99054W        W41966  23.042   2.778  22.045 -0.1227  0.2298 -0.0782
99055W        W41967  23.273  33.135  21.386  0.0087  0.1297 -0.0325
99056W        W41968  22.774   1.503  22.625 -0.3291 -0.0903 -0.1283
99057W        W41969  24.136   1.037  23.343  0.2688 -0.2971  0.1881
99058W        W41970  22.348   0.338  24.581 -0.0111 -0.0891  0.1549
99059W        W41971  21.360   1.536  23.896 -0.0569  0.2426 -0.1049
99060W        W41972  22.393   2.809  22.942 -0.0315  0.1869 -0.0188
99061W        W41973  23.658   1.424  19.786  0.0091 -0.2481 -0.0114
99062W        W41974  23.327   1.370  20.715 -0.0250 -0.1334 -0.0918
99063W        W41975  23.930   1.330  20.794 -0.0200 -0.2354  0.1243
99064W        W41976  24.387   0.460  20.084 -0.1916 -0.0773  0.0235
99065W        W41977  22.904   0.316  20.985 -0.1944 -0.0201  0.1775
99066W        W41978  25.386   0.930  24.697 -0.2711  0.0330  0.1512
99067W        W41979  23.029   0.205  18.776  0.0292  0.2375  0.1357
99068W        W41980  25.369   1.246  24.233  0.0340  0.2559 -0.0922
99069W        W41981  22.859   2.401  18.940  0.1392 -0.2080  0.0957
99070W        W41982  23.339   2.702  21.028 -0.0992  0.2565 -0.1483
99071W        W41983  24.461   1.662  20.267 -0.5162  0.0247  0.0815
99072W        W41984  21.535   1.264  22.696 -0.0432  0.0612  0.2701
99073W        W41985  21.665   3.947  23.817 -0.0709  0.0580 -0.0559
99074W        W41986  21.819   0.142  19.271  0.0008  0.0491  0.2592
99075W        W41987  23.984   1.747  19.913  0.0111  0.1127 -0.0410
99076W        W41988  22.850   1.971  22.527 -0.0346  0.1952  0.2646
99077W        W41989  24.280   2.282  22.892 -0.0687  0.2589 -0.1656
99078W        W41990  23.015   1.443  17.132 -0.1858  0.0479 -0.0231
99079W        W41991  23.410   1.103  22.107  0.1638 -0.2848 -0.0976
99080W        W41992  22.570   2.284  20.888  0.0760 -0.0830 -0.0620
99081W        W41993  23.612   1.418  21.236 -0.0940 -0.0464 -0.5143
99082W        W41994  21.695   3.211  21.952  0.0648 -0.0216 -0.0960
99083W        W41995  20.795   1.874  24.043  0.0311  0.0676 -0.2753
99084W        W41996  21.862   2.263  22.531  0.2015  0.0284 -0.0470
99085W        W41997  23.252  34.593  25.140 -0.1131  0.1330 -0.2619
99086W        W41998  24.215   1.344  21.204  0.0544 -0.2420 -0.1048
99087W        W41999  22.820   2.002  21.191 -0.1423 -0.1237 -0.2192
99088W        W42000  25.501   1.748  24.169  0.2988 -0.0567 -0.0755
99089W        W42001  24.085   2.754  22.963  0.0916 -0.4079 -0.3000
99090W        W42002  22.579   0.865  22.811  0.3040  0.3570  0.1834
99091W        W42003  23.960   2.947  23.438  0.0284  0.1067 -0.3487
99092W        W42004  24.740   2.128  22.056  0.0244  0.1395  0.0835
99093W        W42005  22.243   2.412  22.139  0.1266 -0.0244 -0.1988
99094W        W42006  22.275   0.850  24.802  0.2897 -0.0773  0.1945
99095W        W42007  24.371   1.012  23.800 -0.0113 -0.2109  0.1333
99096W        W42008  22.602   1.807  22.096  0.3334 -0.1987 -0.2922
99097W        W42009  22.138   0.359  20.799  0.1168  0.1515  0.0800
99098W        W42010  22.834   1.895  19.081 -0.0525  0.1758  0.1070
99099W        W42011  22.227   2.898  25.526  0.0638 -0.1955  0.0835
99100W        W42012  21.217   1.319  23.203 -0.1835  0.1845  0.2126
99101W        W42013  23.343   3.454  21.544  0.1507 -0.2250 -0.1253
99102W        W42014  24.825   2.256  20.251 -0.0919 -0.1897 -0.0009
99103W        W42015  24.478   2.465  20.518  0.1389 -0.1034 -0.0121
99104W        W42016  23.016   4.259  22.205 -0.0798 -0.1464  0.0366
99105W        W42017  22.588   0.552  20.674 -0.2031 -0.1267  0.0449
99106W        W42018  22.370   3.686  20.756  0.2006 -0.0058 -0.0472
99107W        W42019  22.107   3.532  19.812  0.0549  0.1408 -0.0104
99108W        W42020  25.543   3.053  20.290  0.2417  0.0151  0.1988
99109W        W42021  22.626   3.452  22.223  0.1871  0.1262 -0.0918
99110W        W42022  24.301   2.832  22.492 -0.1076  0.0081  0.3304
99111W        W42023  24.097  33.868  18.389 -0.0191  0.1974 -0.0154
99112W        W42024  25.122   0.581  21.790 -0.1101  0.0677 -0.0915
99113W        W42025  24.796   0.170  19.448 -0.2060 -0.2804  0.0076
99114W        W42026  23.791   3.774  23.678 -0.1383  0.2290 -0.0629
99115W        W42027  23.410   1.111  23.363 -0.0610 -0.0944  0.0157
99116W        W42028  22.760   0.509  19.376 -0.1030  0.1913 -0.3637
99117W        W42029  21.950   0.912  23.920  0.1733 -0.1089  0.1599
99118W        W42030  26.139  34.646  25.894 -0.0436 -0.0108  0.1073
99119W        W42031  20.987   3.416  24.721  0.4381  0.3456  0.1454
99120W        W42032  23.320   3.655  20.992 -0.1042 -0.1961  0.3023
99121W        W42033  23.601   0.884  20.617 -0.1863  0.2418 -0.1886
99122W        W42034  21.820   1.536  20.940 -0.0017 -0.1024  0.1217
99123W        W42035  25.055  33.891  21.213 -0.3414  0.1498 -0.0342
99124W        W42036  23.360   2.431  20.444 -0.2255  0.0863 -0.0002
99125W        W42037  23.643   1.664  22.157 -0.1518 -0.1990  0.1059
99126W        W42038  22.034   3.231  20.530 -0.1003  0.1777  0.0526
99127W        W42039  21.368   2.380  22.320  0.2019 -0.1987  0.0252
99128W        W42040  22.144   4.820  22.394 -0.1415 -0.1040 -0.2221
99129W        W42041  22.577  34.384  20.048 -0.2866  0.0307  0.0539
99130W        W42042  25.573   0.436  20.712 -0.1391 -0.1536 -0.0395
99131W        W42043  23.000   0.056  21.528 -0.0120  0.0229  0.2529
99132W        W42044  23.417   1.014  21.534 -0.0745 -0.1116 -0.2390
99133W        W42045  21.734   1.446  22.311  0.3879 -0.4032  0.1838
99134W        W42046  23.941   1.759  21.398 -0.2322  0.4490 -0.1766
99135W        W42047  23.092   1.402  21.212  0.0917  0.0654  0.1359
99136W        W42048  22.022   1.683  24.683  0.1367  0.2478  0.0944
99137W        W42049  24.135   1.254  20.066  0.0372 -0.1931 -0.1172
99138W        W42050  26.013   2.686  23.039  0.1964 -0.2843 -0.1263
99139W        W42051  22.622   1.146  18.002 -0.1260  0.1446 -0.2242
99140W        W42052  24.390   3.130  22.939 -0.1704  0.2182  0.1012
99141W        W42053  23.167  34.265  21.598 -0.2496 -0.0458  0.0944
99142W        W42054  23.098   0.741  20.681 -0.1176 -0.3527  0.1015
99143W        W42055  22.711   1.240  20.008 -0.0417 -0.0180  0.1949
99144W        W42056  22.232   1.551  23.241  0.0662  0.0791 -0.1864
99145W        W42057  23.933   3.283  22.843 -0.0521 -0.2434  0.1146
99146W        W42058  21.471  33.765  21.844  0.2730  0.0233 -0.2712
99147W        W42059  25.672   3.536  20.350  0.0147 -0.3792  0.2735
99148W        W42060  24.609   1.543  20.870 -0.1386  0.2063 -0.1772
99149W        W42061  22.168   2.528  20.091  0.1168 -0.1538 -0.1514
99150W        W42062  24.346   3.770  21.542 -0.2331 -0.0708  0.1869
99151W        W42063  22.835   4.127  21.779  0.1352  0.0194  0.1221
99152W        W42064  22.209   1.188  22.802 -0.2549 -0.0399 -0.1688
99153W        W42065  23.082   2.619  22.557  0.1001 -0.2330 -0.1594
99154W        W42066  23.681   3.168  22.304 -0.1528  0.3849 -0.2072
99155W        W42067  24.255  34.025  20.669 -0.0776  0.2453  0.1123
99156W        W42068  22.509   1.305  21.820 -0.1549 -0.1672 -0.1162
99157W        W42069  21.611   3.428  21.000 -0.4029 -0.2146  0.3269
99158W        W42070  24.038   0.884  21.639  0.1010 -0.0448  0.0435
99159W        W42071  23.976   1.739  20.479 -0.0026 -0.0808  0.0005
99160W        W42072  23.466   3.275  19.732 -0.1129 -0.2480 -0.0293
99161W        W42073  25.860   0.922  24.573 -0.0534  0.3185 -0.0453
99162W        W42074  22.942   2.035  23.377 -0.0174  0.0907  0.0392
99163W        W42075  22.384   3.478  24.948 -0.0039 -0.1765 -0.0151
99164W        W42076  22.244   2.049  18.231 -0.2330 -0.2164  0.2861
99165W        W42077  22.521   1.883  24.149 -0.3587  0.0236 -0.2943
99166W        W42078  22.550   0.754  21.415 -0.1761 -0.0347  0.0987
99167W        W42079  22.844   3.517  20.835  0.2041  0.4861 -0.0315
99168W        W42080  24.561   3.347  21.677  0.1421  0.3505 -0.1035
99169W        W42081  23.369   0.126  21.175  0.0356 -0.3879  0.2336
99170W        W42082  23.747   2.293  21.501  0.1532 -0.1868 -0.0120
99171W        W42083  23.635   0.790  22.458 -0.3914  0.2143 -0.0076
99172W        W42084  24.288   1.929  20.750 -0.1401  0.0487 -0.0866
99173W        W42085  24.342  33.837  22.250 -0.2559  0.1293  0.1214
99174W        W42086  22.518   1.938  22.886 -0.0233 -0.0560  0.1856
99175W        W42087  22.316   1.877  19.583  0.0264 -0.1350 -0.0284
99176W        W42088  23.195   2.854  19.629  0.0158 -0.4185  0.0379
99177W        W42089  23.350   1.200  22.613  0.1707 -0.1757  0.0404
99178W        W42090  22.648  34.606  23.674  0.2878 -0.0828  0.0431
99179W        W42091  22.087   2.144  24.980 -0.0779  0.0577  0.1263
99180W        W42092  22.235  34.007  21.794  0.3812 -0.1908  0.1467
99181W        W42093  22.283   0.955  20.026 -0.0544 -0.2873 -0.0100
99182W        W42094  24.839   3.072  20.991 -0.2100 -0.2320 -0.1561
99183W        W42095  21.853  34.501  22.584  0.1181 -0.3917 -0.3816
99184W        W42096  20.835   1.137  21.197 -0.1659  0.0787 -0.2582
99185W        W42097  24.286   0.861  20.828  0.2444  0.0271  0.0011
99186W        W42098  24.133   3.483  21.956  0.0567  0.1122  0.0554
99187W        W42099  23.526   0.870  18.894 -0.3467 -0.2012  0.0666
99188W        W42100  25.183   2.046  23.359 -0.2671 -0.0872 -0.0942
99189W        W42101  21.989   2.726  19.267  0.2850 -0.0349  0.2353
99190W        W42102  24.482   1.829  23.008 -0.2117 -0.0066  0.1425
99191W        W42103  23.786   1.386  22.620  0.1221 -0.2483  0.1193
99192W        W42104  22.081   0.453  20.310 -0.2394  0.0827 -0.1177
99193W        W42105  25.303   0.300  23.961  0.0713 -0.2631  0.1629
99194W        W42106  24.317   3.801  20.573  0.1808 -0.1230  0.3050
99195W        W42107  25.375   3.593  19.656  0.0575  0.0606 -0.0582
99196W        W42108  22.952   2.295  22.950  0.0582 -0.1076  0.3031
99197W        W42109  23.123   3.107  24.426  0.1865 -0.2409 -0.0262
99198W        W42110  22.365  34.669  24.149  0.2186 -0.0800  0.1098
99199W        W42111  23.638   2.302  20.983  0.0045  0.0938 -0.0736
99200W        W42112  22.736   2.197  23.777  0.2393  0.0783 -0.0744
99201W        W42113  25.742   3.073  21.704  0.0761  0.2793  0.3009
99202W        W42114  23.754   1.324  21.736  0.0667 -0.3201  0.1764
99203W        W42115  24.411   2.793  21.013 -0.2115 -0.4305  0.2675
99204W        W42116  21.807  33.317  21.319 -0.0740  0.1000 -0.1058
99205W        W42117  20.166   3.289  25.193  0.0974 -0.1493  0.1251
99206W        W42118  24.971   2.612  21.855 -0.0533  0.3573 -0.1249
99207W        W42119  23.750  33.639  22.239 -0.2105  0.0983 -0.2356
99208W        W42120  24.705   0.026  20.821  0.1630  0.2832  0.3180
99209W        W42121  24.282   2.124  20.167 -0.0201 -0.1551 -0.1034
99210W        W42122  22.686   0.441  22.529  0.0603  0.0695 -0.0073
99211W        W42123  22.608   1.985  20.481  0.1875 -0.1304 -0.1151
99212W        W42124  23.360   2.467  24.486  0.0012  0.0947  0.1992
99213W        W42125  23.838   1.379  23.521  0.1839  0.0301  0.0620
99214W        W42126  24.963   2.482  23.683  0.0359 -0.0057 -0.1546
99215W        W42127  22.540   0.218  20.223 -0.3430 -0.2403  0.2048
99216W        W42128  25.490   1.393  20.606  0.1618 -0.2232  0.0402
99217W        W42129  23.614   2.686  23.676 -0.2027  0.0715 -0.2295
99218W        W42130  24.757   3.399  23.802 -0.1906 -0.6348 -0.1450
99219W        W42131  22.495   4.117  22.124 -0.2926 -0.0388 -0.3081
99220W        W42132  24.225   3.220  21.296 -0.3595  0.0092 -0.0615
99221W        W42133  22.386   0.131  22.133 -0.0859 -0.0487  0.3083
99222W        W42134  23.813   1.161  19.313  0.3169  0.0184 -0.0087
99223W        W42135  22.459   1.064  19.055 -0.2916  0.1600  0.0923
99224W        W42136  22.540   1.161  23.263 -0.2061  0.3405 -0.1184
99225W        W42137  22.191   0.592  22.272 -0.0347  0.1231  0.0567
99226W        W42138  23.369   0.919  19.403 -0.2514  0.0071 -0.1578
99227W        W42139  21.727   3.178  22.831 -0.0747 -0.1432  0.2765
99228W        W42140  24.988   1.934  24.006  0.1373  0.2488  0.1001
99229W        W42141  24.598   3.301  26.250 -0.1054 -0.1789  0.0330
99230W        W42142  23.217   1.922  25.787  0.1312 -0.1006 -0.1936
99231W        W42143  24.497   0.827  22.912 -0.0884  0.0123 -0.1614
99232W        W42144  23.617   0.181  25.101 -0.2257 -0.0137 -0.2147
99233W        W42145  21.067   0.540  25.679 -0.1867  0.1222 -0.0195
99234W        W42146  23.092   3.723  23.911 -0.0517 -0.0155  0.1216
99235W        W42147  22.343  33.919  27.597  0.0115  0.1345  0.3329
99236W        W42148  24.156   3.152  25.650 -0.0682 -0.1700 -0.1159
99237W        W42149  25.448   3.100  26.542  0.1600 -0.1241 -0.0374
99238W        W42150  24.582   1.495  23.911 -0.1092  0.0259  0.1140
99239W        W42151  22.820   0.656  26.470 -0.1027  0.1097  0.1343
99240W        W42152  23.447   1.651  27.185 -0.1364 -0.0183  0.0176
99241W        W42153  23.521  34.483  23.702 -0.1464 -0.0803  0.3105
99242W        W42154  21.060  34.269  25.347  0.3046  0.0947  0.2988
99243W        W42155  23.936   0.635  26.677  0.0346  0.0748  0.0420
99244W        W42156  21.050   2.527  25.719 -0.2362  0.0113  0.2235
99245W        W42157  22.996   1.639  26.140 -0.0442 -0.0891 -0.0370
99246W        W42158  23.321   1.983  26.297 -0.0324 -0.0722  0.4373
99247W        W42159  23.796   3.887  26.049 -0.2818  0.2597 -0.1203
99248W        W42160  25.183   0.254  25.414 -0.0030 -0.0390 -0.0227
99249W        W42161  23.188  33.517  26.055 -0.3756  0.1346 -0.0483
99250W        W42162  23.980   4.273  25.488  0.0916  0.1446 -0.3684
99251W        W42163  21.555   0.466  22.865 -0.1248 -0.0527 -0.1382
99252W        W42164  22.746   0.700  27.526 -0.1865  0.1934 -0.1354
99253W        W42165  22.692   1.674  25.663  0.0097  0.1565 -0.0602
99254W        W42166  23.306   0.307  26.101  0.0880 -0.0262  0.2285
99255W        W42167  26.581   1.221  25.830 -0.2168 -0.0157  0.2435
99256W        W42168  23.428   2.868  25.789 -0.1534 -0.2038  0.1457
99257W        W42169  24.315   3.658  25.680 -0.2666 -0.0962 -0.1079
99258W        W42170  24.451   0.811  26.738  0.2144  0.1635 -0.1594
99259W        W42171  22.022   2.509  25.757  0.1794  0.5329  0.0468
99260W        W42172  24.119   2.758  25.326 -0.0727  0.0457  0.1949
99261W        W42173  24.114   1.480  25.886 -0.0174 -0.1463 -0.2323
99262W        W42174  25.951   1.738  24.042 -0.4867  0.1478 -0.2058
99263W        W42175  24.218   4.022  27.880 -0.2881 -0.1670  0.0434
99264W        W42176  24.766   3.608  27.018  0.3416 -0.0498  0.0728
99265W        W42177  22.195   3.313  24.090  0.1371  0.1378 -0.0725
99266W        W42178  25.687   2.634  27.417 -0.2319  0.5403 -0.2444
99267W        W42179  22.760   2.685  27.791  0.3792  0.1831 -0.0871
99268W        W42180  24.169   3.103  26.389 -0.1039 -0.2140  0.0992
99269W        W42181  23.939   1.126  24.710  0.2189 -0.2701  0.1682
99270W        W42182  23.240   2.095  23.813  0.0276  0.0409 -0.2502
99271W        W42183  23.826   0.946  25.953  0.0773  0.1772 -0.0230
99272W        W42184  23.878   1.140  27.722  0.1237  0.0318  0.1036
99273W        W42185  22.812   2.664  24.362  0.1637  0.1666  0.1811
99274W        W42186  24.059   2.230  28.017 -0.0955 -0.1157 -0.1333
99275W        W42187  22.248   2.045  23.376 -0.1930 -0.2599 -0.0276
99276W        W42188  24.961   1.516  24.274  0.0912  0.1955 -0.0560
99277W        W42189  23.205   0.887  23.918 -0.0172  0.4110 -0.0950
99278W        W42190  24.585   0.951  25.251 -0.2445 -0.1027  0.2705
99279W        W42191  23.488   1.191  26.217 -0.1689  0.0227 -0.1339
99280W        W42192  23.048   2.819  27.232 -0.0011  0.1530  0.0981
99281W        W42193  22.859   1.239  25.467 -0.1434  0.2412 -0.0554
99282W        W42194  25.686   2.773  26.842  0.2416  0.1827  0.0444
99283W        W42195  22.766   3.472  24.327  0.1442  0.0374  0.3762
99284W        W42196  24.212   0.741  26.210 -0.0631 -0.2907  0.1228
99285W        W42197  22.950   2.105  27.075  0.2340  0.0621 -0.2300
99286W        W42198  21.704  34.680  26.549 -0.2194  0.1265 -0.0479
99287W        W42199  25.437   3.147  23.040 -0.1214  0.0285  0.1520
99288W        W42200  26.729   2.533  25.767 -0.1596  0.1467 -0.1557
99289W        W42201  22.791   3.865  23.391 -0.2426  0.1765  0.2166
99290W        W42202  22.339   0.851  25.345 -0.2504 -0.0411 -0.3276
99291W        W42203  22.703   2.405  27.375  0.0342  0.0848  0.0515
99292W        W42204  22.949   1.487  27.381  0.1297  0.0443  0.0631
99293W        W42205  23.647  34.507  24.309  0.0440 -0.1544  0.0720
99294W        W42206  24.299   1.943  27.052 -0.0829 -0.0933 -0.2854
99295W        W42207  23.496   2.430  26.432 -0.2839 -0.2635 -0.0078
99296W        W42208  24.525  34.502  24.968  0.2758 -0.0863  0.1539
99297W        W42209  23.643   1.322  25.072 -0.1820 -0.0424 -0.0648
99298W        W42210  24.403   2.718  26.110  0.0488 -0.0406  0.0725
99299W        W42211  24.647   2.829  23.348 -0.2199 -0.0894  0.3439
99300W        W42212  24.665   0.256  25.134  0.0246  0.0823  0.2526
99301W        W42213  24.469  33.686  26.718 -0.3586 -0.2788 -0.1518
99302W        W42214  22.024   1.701  23.719 -0.0256 -0.2719  0.0032
99303W        W42215  23.207   0.234  24.535 -0.0776  0.0489  0.0544
99304W        W42216  26.263   2.765  26.604 -0.1790 -0.1509 -0.0335
99305W        W42217  25.172   2.419  24.299  0.1822 -0.1775 -0.1798
99306W        W42218  23.023   1.199  26.437  0.2296 -0.3250 -0.5171
99307W        W42219  24.410   0.310  26.488  0.1308 -0.1763 -0.1206
99308W        W42220  24.156   1.205  26.930  0.0422  0.4154 -0.1704
99309W        W42221  22.351   3.946  24.926 -0.1271  0.0218  0.3617
99310W        W42222  22.917   1.792  26.608 -0.0832  0.1853  0.0034
99311W        W42223  22.089   1.420  24.193  0.1536 -0.4650 -0.4613
99312W        W42224  21.907  33.871  25.397  0.1097  0.3727 -0.2093
99313W        W42225  24.776   0.671  25.605 -0.1358 -0.2052 -0.0980
99314W        W42226  25.767   0.110  23.935 -0.3824 -0.0425 -0.0786
99315W        W42227  23.163  33.951  26.397  0.0956 -0.0029  0.1003
99316W        W42228  24.667   0.495  26.019  0.1501  0.0958  0.0105
99317W        W42229  23.579   1.642  26.044 -0.4633 -0.0144 -0.1658
99318W        W42230  25.755   3.587  25.481  0.0457  0.0208  0.0116
99319W        W42231  24.796   1.740  23.387 -0.1447 -0.2909  0.0022
99320W        W42232  25.344   2.542  24.786 -0.0078  0.3831 -0.2040
99321W        W42233  22.740   0.307  27.848  0.2114  0.0210 -0.5070
99322W        W42234  23.760   0.838  24.340 -0.2052 -0.0665  0.1078
99323W        W42235  23.077   0.214  26.499 -0.0846 -0.0646 -0.1751
99324W        W42236  22.167   0.099  26.686  0.0309 -0.2457 -0.0312
99325W        W42237  23.943   1.654  27.906  0.2663  0.0054 -0.0144
99326W        W42238  21.626  34.423  25.067  0.0165 -0.0924 -0.2582
99327W        W42239  23.795   0.415  25.939 -0.0802  0.1039  0.5149
99328W        W42240  23.468   1.303  25.670  0.0035  0.0531  0.4101
99329W        W42241  22.971   1.713  23.928  0.1375  0.2444 -0.0169
99330W        W42242  24.338  34.460  27.190 -0.0260 -0.1892  0.2925
99331W        W42243  24.215   3.122  24.241  0.0099  0.1460  0.1969
99332W        W42244  26.094   2.797  27.085 -0.0978 -0.2056  0.0084
99333W        W42245  24.557   3.688  24.962 -0.0078 -0.0519 -0.0215
99334W        W42246  23.058   0.077  27.324 -0.2300 -0.0429 -0.2388
99335W        W42247  21.661   2.069  24.629 -0.0377  0.3801 -0.0330
99336W        W42248  22.159   2.658  24.903 -0.2278 -0.0162  0.0799
99337W        W42249  23.641   2.908  26.274 -0.1588  0.0242  0.3765
99338W        W42250  22.807   0.553  23.213  0.1839  0.1945  0.0976
99339W        W42251  25.257   3.031  24.887  0.1726  0.1834 -0.0291
99340W        W42252  24.932   1.614  24.929  0.0704  0.1717 -0.0962
99341W        W42253  23.768   2.088  27.229 -0.0311 -0.0325 -0.0754
99342W        W42254  24.572  33.615  26.214  0.2446 -0.3578 -0.0404
99343W        W42255  25.135  33.602  26.803  0.0036  0.3271 -0.1067
99344W        W42256  23.947   2.550  24.376 -0.2345 -0.1683 -0.3298
99345W        W42257  21.353   0.780  23.479 -0.0654 -0.0963 -0.1926
99346W        W42258  22.995   4.048  25.735  0.1177 -0.0592  0.2892
99347W        W42259  22.299   4.808  25.353  0.2371  0.0878 -0.0572
99348W        W42260  22.670   1.087  24.994  0.2394 -0.0273  0.0522
99349W        W42261  24.063   2.776  23.881  0.1879 -0.0869 -0.0032
99350W        W42262  23.918   1.098  25.521 -0.0122 -0.2452  0.2225
99351W        W42263  21.420   2.194  28.645 -0.0125 -0.0152  0.0253
99352W        W42264  24.355  33.938  27.310  0.1163 -0.2269  0.1178
99353W        W42265  21.741   1.471  23.100  0.0172 -0.2811 -0.3843
99354W        W42266  23.173   2.780  26.393 -0.0414  0.2017  0.1543
99355W        W42267  22.876   0.244  24.961 -0.1152 -0.0779 -0.2910
99356W        W42268  25.412   1.068  23.752  0.3426 -0.2224  0.1953
99357W        W42269  23.268   1.877  28.049 -0.4626  0.2369  0.0247
99358W        W42270  25.080   2.480  23.161  0.1840 -0.2801  0.0292
99359W        W42271  23.284   1.266  24.258 -0.1347 -0.3589  0.0411
99360W        W42272  24.239  34.202  24.220  0.2206  0.2243 -0.1510
99361W        W42273  23.396   2.301  28.365 -0.4439 -0.1619 -0.0102
99362W        W42274  23.517   4.624  24.941 -0.0918  0.0838  0.0849
99363W        W42275  24.199   1.240  25.148  0.2267 -0.0411 -0.2467
99364W        W42276  23.045   1.285  23.695  0.0283 -0.0110  0.0956
99365W        W42277  25.490   4.100  24.034 -0.0118  0.0046 -0.2846
99366W        W42278  23.471   2.063  25.392  0.3898 -0.0553 -0.0964
99367W        W42279  23.770   1.044  27.235  0.1603 -0.0118  0.3191
99368W        W42280  23.474   3.295  24.011  0.0646  0.0172 -0.1043
99369W        W42281  22.520   1.439  26.280  0.1835 -0.1817  0.1957
99370W        W42282  22.751   0.636  24.680  0.1178  0.1731  0.0467
99371W        W42283  23.316   0.664  25.764 -0.0494 -0.1028  0.6690
99372W        W42284  22.425   3.031  26.699  0.0048  0.0823 -0.0526
99373W        W42285  25.732   1.253  25.019 -0.0827 -0.0785  0.4744
99374W        W42286  23.670  34.607  26.073 -0.0805 -0.2131 -0.2773
99375W        W42287  23.495  33.656  26.806  0.0161 -0.3085 -0.0916
99376W        W42288  25.081   1.512  27.030 -0.3219  0.1087 -0.2342
99377W        W42289  24.982   0.652  25.143  0.1508  0.0490  0.0807
99378W        W42290  23.322   0.566  24.921  0.0389 -0.1828 -0.1983
99379W        W42291  22.014   1.124  23.378  0.2051 -0.1559  0.2914
99380W        W42292  23.147  33.547  27.593 -0.1383 -0.2815  0.1358
99381W        W42293  22.585   0.929  26.177 -0.1288  0.2539 -0.2570
99382W        W42294  23.021   2.315  26.548  0.0006 -0.1107  0.3531
99383W        W42295  24.549   2.839  26.678  0.0170 -0.1156 -0.2169
99384W        W42296  24.199   3.527  24.628  0.0283 -0.2038  0.0099
99385W        W42297  24.585  33.567  27.505  0.1205  0.2101 -0.1269
99386W        W42298  24.365   1.073  22.475 -0.0386 -0.0793  0.0783
99387W        W42299  23.350   0.923  25.312 -0.3524 -0.0453 -0.2123
99388W        W42300  24.077   1.710  23.915  0.1429  0.1213  0.0981
99389W        W42301  23.092  34.035  25.926 -0.1444 -0.2669  0.0871
99390W        W42302  24.635   3.069  27.613  0.2524  0.0024  0.0065
99391W        W42303  22.533   3.775  21.653  0.0953 -0.4566 -0.0760
99392W        W42304  23.953   1.621  27.309 -0.1917 -0.2244 -0.0875
99393W        W42305  22.889   1.069  24.501 -0.3159 -0.0975  0.2061
99394W        W42306  24.626   0.164  25.600  0.4190 -0.1642 -0.0885
99395W        W42307  24.738   2.216  25.799  0.1636 -0.1354 -0.1394
99396W        W42308  23.903   1.996  25.780 -0.3219  0.1781 -0.3507
99397W        W42309  21.587   1.341  25.372 -0.0264 -0.0828 -0.0271
99398W        W42310  25.787   0.789  25.727 -0.0311  0.0991 -0.1121
99399W        W42311  24.743   1.215  23.383 -0.0885  0.0131  0.1321
99400W        W42312  22.778   0.765  25.772 -0.1504 -0.2576  0.2527
99401W        W42313  24.924   0.176  26.471 -0.2250  0.2970 -0.1109
99402W        W42314  22.510   2.878  25.092 -0.0164  0.2009 -0.2054
99403W        W42315  23.499   0.708  26.291 -0.0855 -0.1047 -0.1604
99404W        W42316  24.363   0.339  24.231 -0.2277  0.0691 -0.0380
99405W        W42317  24.382   3.375  26.727 -0.0754  0.1699  0.1452
99406W        W42318  23.217   1.984  27.492  0.0619 -0.0300 -0.0820
99407W        W42319  22.394   0.461  24.030 -0.3989 -0.1575 -0.1527
99408W        W42320  24.610   0.680  27.185  0.1708 -0.3686 -0.0663
99409W        W42321  23.142  34.468  26.198 -0.3939 -0.0555  0.0394
99410W        W42322  22.857   2.655  25.454  0.1912 -0.0268 -0.2409
99411W        W42323  25.244   3.541  25.746 -0.2229  0.3492  0.0386
99412W        W42324  21.746   0.520  25.708  0.1431 -0.0643  0.3036
99413W        W42325  22.931   2.184  24.218  0.0207  0.0319  0.1043
99414W        W42326  22.485   1.129  26.642  0.2180 -0.0384  0.0817
99415W        W42327  24.227   2.911  27.127  0.0077  0.0116 -0.2160
99416W        W42328  23.552   1.082  26.697  0.0042 -0.1739  0.0935
99417W        W42329  23.679   0.759  21.907 -0.1154  0.1503 -0.1179
99418W        W42330  23.651   1.468  24.517 -0.0047 -0.1064  0.0430
99419W        W42331  25.152   2.724  26.693 -0.1306  0.1278  0.1920
99420W        W42332  23.241   1.031  27.075  0.2534 -0.0351 -0.1593
99421W        W42333  22.711   3.000  28.302  0.3856  0.3647 -0.1884
99422W        W42334  22.675  33.808  24.831 -0.0987 -0.0671  0.0968
99423W        W42335  26.601   3.925  24.176  0.0763 -0.2604  0.1878
99424W        W42336  25.297  34.365  26.406  0.0648  0.0505 -0.1923
99425W        W42337  23.245   1.555  25.277  0.0262 -0.1251  0.2230
99426W        W42338  22.092   2.634  26.748  0.0152 -0.1751  0.1492
99427W        W42339  22.971   1.987  25.298  0.0257 -0.1384  0.0816
99428W        W42340  24.263   0.151  25.995 -0.1236  0.4587  0.0778
99429W        W42341  24.458   3.932  26.684 -0.2788 -0.0733 -0.1379
99430W        W42342  23.169   2.623  23.975 -0.2160 -0.2886  0.3498
99431W        W42343  23.304   3.722  25.980 -0.1542 -0.1328 -0.3366
99432W        W42344  24.509  33.940  24.588  0.3221  0.0822 -0.0218
99433W        W42345  23.269   3.796  24.518 -0.0094 -0.1418 -0.0258
99434W        W42346  21.999   1.182  25.060 -0.3610  0.1415 -0.1494
99435W        W42347  25.459  33.656  28.112 -0.0087 -0.2020  0.0412
99436W        W42348  23.661   0.955  23.715 -0.1003  0.1034  0.1733
99437W        W42349  24.000  33.431  26.793  0.1562 -0.0356  0.0770
99438W        W42350  22.679  34.266  26.225 -0.2730 -0.1152 -0.1302
99439W        W42351  24.522   2.766  24.957  0.1243  0.2423 -0.0996
99440W        W42352  21.651  34.025  25.956  0.1266  0.1147 -0.1556
99441W        W42353  24.063   3.196  28.009 -0.0490 -0.1679  0.2553
99442W        W42354  23.140   2.105  28.770 -0.2514  0.1044 -0.1321
99443W        W42355  23.256   1.584  24.785 -0.1198  0.2382 -0.2086
99444W        W42356  21.851   0.711  25.251  0.0697 -0.0321  0.1648
99445W        W42357  23.878   1.608  25.427  0.1155 -0.0214 -0.0406
99446W        W42358  24.486   2.262  25.308 -0.0223  0.1359  0.0682
99447W        W42359  23.762   3.292  24.429 -0.1806 -0.0433  0.1578
99448W        W42360  25.264   0.692  25.693  0.1588  0.0975 -0.1590
99449W        W42361  23.956   2.746  26.717 -0.1008  0.0122 -0.0366
99450W        W42362  23.378   0.428  23.989  0.0858 -0.1513  0.0471
99451W        W42363  23.185   2.972  23.625 -0.0960 -0.1776  0.3220
99452W        W42364  22.485   1.915  25.175  0.0205  0.1595 -0.1667
99453W        W42365  23.850   0.228  26.984 -0.0089 -0.1376 -0.1613
99454W        W42366  24.543   1.258  24.814 -0.0874 -0.2877 -0.2895
99455W        W42367  23.990  33.932  25.482 -0.2065  0.0356 -0.2070
99456W        W42368  23.529  33.201  26.619  0.1205 -0.0505  0.0760
99457W        W42369  23.829   0.483  25.401 -0.2214  0.0076 -0.2226
99458W        W42370  22.657   1.263  28.254  0.2534  0.1937 -0.1453
99459W        W42371  22.419   0.540  26.769 -0.0984 -0.3562 -0.5721
99460W        W42372  26.219   4.485  25.337  0.0851  0.1051 -0.0614
99461W        W42373  24.583   1.987  23.715  0.1427 -0.3591  0.0180
99462W        W42374  24.610   1.549  27.457 -0.1723  0.1748 -0.0648
99463W        W42375  24.693   0.438  23.870 -0.1800  0.0613 -0.0965
99464W        W42376  24.255   0.582  25.135 -0.0610 -0.3613  0.1393
99465W        W42377  22.969   0.742  27.989  0.2247  0.2081  0.0097
99466W        W42378  24.423   1.268  27.956 -0.0251 -0.1743  0.0632
99467W        W42379  22.423   0.275  23.512  0.0103 -0.6698 -0.1831
99468W        W42380  23.519   0.831  28.856  0.0287 -0.2620 -0.0532
99469W        W42381  23.536   4.126  25.117  0.0982 -0.1911 -0.0825
99470W        W42382  25.725   3.518  26.194 -0.1002  0.1123 -0.1218
99471W        W42383  23.789   0.787  25.013 -0.1797  0.0495 -0.0165
99472W        W42384  22.967  34.367  26.648 -0.1615  0.2518 -0.4350
99473W        W42385  22.489   2.549  28.251 -0.2071  0.1207  0.0588
99474W        W42386  21.516   0.236  23.376  0.0299 -0.3859  0.3933
99475W        W42387  24.652   2.216  24.266  0.0746 -0.0791 -0.0530
99476W        W42388  25.298   4.498  26.936 -0.1280 -0.0970 -0.2759
99477W        W42389  24.478   1.827  27.907  0.1632  0.0633  0.1837
99478W        W42390  23.798   0.320  24.204 -0.0197 -0.0124 -0.0189
99479W        W42391  25.646   0.326  25.870 -0.0786 -0.0789  0.1402
99480W        W42392  22.314   1.903  25.947  0.3223  0.1704  0.0256
99481W        W42393  24.038  34.413  25.798  0.0259 -0.1641 -0.3552
99482W        W42394  23.364   3.453  26.898  0.0304 -0.2248 -0.0388
99483W        W42395  22.621   2.149  26.297 -0.1516 -0.0547  0.1336
99484W        W42396  23.306   2.512  25.525 -0.1408  0.0292 -0.3035
99485W        W42397  23.378   0.128  26.914  0.1291 -0.2577  0.0165
99486W        W42398  26.083   1.757  25.197 -0.5178 -0.0753  0.2847
99487W        W42399  23.906   2.719  25.860 -0.0739  0.1428 -0.3669
99488W        W42400  27.113   2.651  26.351 -0.1335  0.1009 -0.1837
99489W        W42401  23.861   2.188  26.753  0.3056 -0.0671  0.1766
99490W        W42402  23.553   1.984  24.896  0.0942 -0.1308 -0.0619
99491W        W42403  24.096   2.578  27.661 -0.0327  0.0725 -0.2193
99492W        W42404  24.693   1.409  25.414  0.0442 -0.2085 -0.1253
99493W        W42405  24.020   1.617  24.827 -0.3210 -0.2636  0.0394
99494W        W42406  19.961   0.503  26.925 -0.1147 -0.0124  0.3873
99495W        W42407  23.392   1.549  26.641 -0.0803 -0.0723  0.0690
99496W        W42408  24.431   1.802  24.526 -0.0955  0.0161 -0.2942
99497W        W42409  22.807   1.550  25.025 -0.0961  0.0307  0.1490
99498W        W42410  23.593   2.829  24.187  0.1294 -0.3208 -0.2065
99499W        W42411  25.310   3.681  26.341  0.1664  0.1336  0.0196
99500W        W42412  22.039   1.763  27.217  0.0803  0.0998 -0.4392
99501W        W42413  21.569   4.641  25.065  0.0119 -0.1508  0.1054
99502W        W42414  23.047   2.508  23.528  0.1362 -0.0806  0.0904
99503W        W42415  24.886   2.788  24.625  0.1420 -0.1978  0.2107
99504W        W42416  25.787   4.637  26.747 -0.1307 -0.3312 -0.0068
99505W        W42417  23.234   0.718  24.405  0.0452  0.1572 -0.0994
99506W        W42418  23.919   1.899  26.286 -0.0036 -0.0788  0.0446
99507W        W42419  19.995   2.843  24.860  0.2435  0.0683  0.0312
99508W        W42420  24.195   3.933  23.415 -0.0915 -0.0884 -0.1762
99509W        W42421  24.173   2.263  23.928 -0.2188 -0.0457 -0.1818
99510W        W42422  24.669   1.636  25.881 -0.0354 -0.0674 -0.1308
99511W        W42423  24.457  34.631  23.985  0.0946 -0.1079 -0.1617
99512W        W42424  25.010   1.950  26.124 -0.0371 -0.0549  0.3773
99513W        W42425  26.852   0.659  23.700 -0.1363  0.1755 -0.0700
99514W        W42426  25.127   3.018  27.529  0.2128  0.3357  0.0476
99515W        W42427  22.533   1.235  25.842  0.2804 -0.0685 -0.0247
99516W        W42428  21.870   0.559  24.766  0.0385  0.1928 -0.2009
99517W        W42429  23.197   0.542  27.211  0.0763 -0.1764  0.1178
99518W        W42430  24.746  34.480  27.465  0.0230 -0.0118 -0.2418
99519W        W42431  21.014   1.393  28.376  0.1739 -0.0952  0.3307
99520W        W42432  24.530   2.605  23.872 -0.1340  0.0174  0.1969
99521W        W42433  22.580  34.614  25.258  0.1344  0.2008 -0.0341
99522W        W42434  22.645   2.678  26.371  0.1404  0.2376 -0.1418
99523W        W42435  23.900  32.278  26.107  0.2542 -0.3658 -0.1074
99524W        W42436  23.327   1.905  24.349  0.2655 -0.1891 -0.2620
99525W        W42437  24.532  34.141  26.062 -0.1577  0.1438  0.1186
99526W        W42438  23.206   4.259  24.695 -0.0827 -0.2627 -0.0109
99527W        W42439  24.827   4.215  26.927  0.0659  0.1681 -0.1015
99528W        W42440  24.421   4.023  27.212  0.0813  0.0316  0.2160
99529W        W42441  22.019  34.671  23.168 -0.2168  0.1908  0.1404
99530W        W42442  24.978   0.143  24.797 -0.1860  0.3397 -0.0556
99531W        W42443  22.095   0.642  26.370  0.1614 -0.0762 -0.2167
99532W        W42444  24.114  33.847  26.253 -0.2460  0.0847  0.1525
99533W        W42445  23.810   2.425  25.435 -0.0930  0.1827 -0.1102
99534W        W42446  25.577   0.729  24.193 -0.0566  0.1251  0.1794
99535W        W42447  24.746   2.355  26.950  0.1915 -0.3885  0.2148
99536W        W42448  24.031   1.242  26.424  0.3588  0.1869 -0.0334
99537W        W42449  22.348   1.344  23.715  0.0239 -0.0723  0.0099
99538W        W42450  26.231   2.461  28.172 -0.3940  0.2747 -0.1561
99539W        W42451  24.192   0.660  24.574 -0.0308 -0.1423  0.2815
99540W        W42452  26.192   1.882  27.013 -0.1767 -0.4704  0.0693
99541W        W42453  21.776  34.555  25.938  0.0427  0.0646 -0.2354
99542W        W42454  24.312   1.214  24.315  0.0135  0.3205 -0.2525
99543W        W42455  21.893   1.608  26.340 -0.0196 -0.0518  0.2230
99544W        W42456  23.400   2.060  26.808  0.0620  0.1470  0.1226
99545W        W42457  25.824   2.866  26.333  0.4194 -0.4120 -0.0013
99546W        W42458  23.631  34.033  24.540 -0.0048 -0.1596  0.1515
99547W        W42459  25.335   2.735  23.919  0.2593 -0.1219 -0.1992
99548W        W42460  26.386   0.314  25.042 -0.1298 -0.2044  0.2347
99549W        W42461  22.732   3.699  22.910 -0.2461  0.1944  0.1280
99550W        W42462  24.630   0.750  24.782 -0.1247 -0.0227 -0.0126
99551W        W42463  25.595   4.116  26.353 -0.1920 -0.1165 -0.0211
99552W        W42464  22.127   1.177  26.154  0.0383 -0.4480 -0.3008
99553W        W42465  23.875   3.563  27.116  0.0386  0.4467 -0.0762
99554W        W42466  24.338   1.651  26.474  0.0801 -0.1805  0.0830
99555W        W42467  23.769  32.731  23.655 -0.1642 -0.2464 -0.1230
99556W        W42468  22.838   1.383  26.921 -0.0251  0.1141 -0.1341
99557W        W42469  22.084   2.026  25.518  0.0067 -0.1033 -0.2823
99558W        W42470  24.879   0.187  24.281  0.2070 -0.0973 -0.0711
99559W        W42471  24.708   0.309  27.478 -0.1614 -0.0578 -0.1440
99560W        W42472  24.252   3.989  24.387  0.0002 -0.1233 -0.1058
99561W        W42473  25.328   1.041  27.135  0.2278 -0.1445 -0.0878
99562W        W42474  25.308   4.998  26.726  0.2088 -0.1715  0.3062
99563W        W42475  21.947   3.031  28.485 -0.3835 -0.1612 -0.0499
99564W        W42476  21.138   0.781  22.924 -0.1158  0.0864  0.0688
99565W        W42477  23.400  34.139  26.893 -0.1439  0.1577  0.2235
99566W        W42478  22.798   0.262  24.284 -0.3201 -0.1798  0.0526
99567W        W42479  23.254   2.465  25.033  0.3530  0.2325  0.0372
99568W        W42480  25.583   3.886  25.877  0.0313 -0.1536  0.0476
99569W        W42481  24.860   2.142  22.859  0.0922 -0.4397  0.0331
99570W        W42482  26.144   1.097  23.386  0.1529  0.1714  0.3014
99571W        W42483  25.396   0.921  25.222 -0.1977  0.1307 -0.2415
99572W        W42484  25.287  34.410  25.042 -0.3267  0.0676  0.2366
99573W        W42485  25.421   0.496  24.927 -0.2965 -0.0430  0.0462
99574W        W42486  24.142   2.438  27.052  0.1871 -0.3335 -0.2574
99575W        W42487  21.324   2.426  24.441  0.0776  0.1134 -0.1380
99576W        W42488  23.639   2.231  24.111  0.2869  0.0023 -0.0082
99577W        W42489  23.498   2.939  24.729  0.0797  0.0291  0.1984
99578W        W42490  23.789  34.354  27.376  0.1420 -0.1624 -0.4796
99579W        W42491  23.072   1.140  25.934 -0.1997  0.3191 -0.3695
99580W        W42492  22.138   2.035  26.476  0.0589  0.0799 -0.0564
99581W        W42493  23.914  34.364  25.277 -0.2085  0.0456 -0.0373
99582W        W42494  27.059   3.600  24.329 -0.3406  0.0377  0.1969
99583W        W42495  23.649   0.014  25.568  0.1609  0.2981  0.0347
99584W        W42496  20.880   0.388  25.218  0.2598  0.0714  0.3431
99585W        W42497  25.385   2.803  23.446 -0.4042  0.3760  0.0305
99586W        W42498  24.402   3.092  23.669 -0.2461  0.1475  0.0338
99587W        W42499  23.306  34.020  23.679 -0.4263  0.2699  0.0743
99588W        W42500  24.972   3.347  27.889 -0.2838 -0.1090 -0.0415
99589W        W42501  21.562   2.308  25.615  0.2216 -0.1455  0.0323
99590W        W42502  23.293   0.627  26.724  0.0156  0.1226 -0.0948
99591W        W42503  23.833   2.248  29.338  0.2807  0.1569 -0.0099
99592W        W42504  21.245   0.069  25.184 -0.3625 -0.0376 -0.0059
99593W        W42505  23.686   0.276  26.450 -0.2571 -0.0435  0.2487
99594W        W42506  23.247   3.393  24.855  0.0918 -0.2041 -0.3776
99595W        W42507  24.915   4.437  24.726 -0.1316  0.1431  0.0036
99596W        W42508  23.188   3.026  26.767  0.0806  0.2286 -0.0625
99597W        W42509  23.393   3.551  28.195 -0.1269 -0.0992 -0.2393
99598W        W42510  21.944  33.859  26.823  0.1400  0.0160 -0.3112
99599W        W42511  23.751   1.046  22.984  0.0213 -0.2639  0.0720
99600W        W42512  23.989   2.412  26.230 -0.1159 -0.1146 -0.0175
99601W        W42513  25.873   1.165  24.025  0.1370  0.2171  0.3034
99602W        W42514  25.455   0.711  26.717 -0.1088 -0.3348 -0.0603
99603W        W42515  24.008   2.085  25.164  0.1634  0.1069 -0.2402
99604W        W42516  23.521  34.536  26.539  0.0422  0.1382  0.1472
99605W        W42517  23.454   2.460  27.389 -0.4143 -0.1295  0.0696
99606W        W42518  24.599   1.473  26.884 -0.3388 -0.1467  0.1391
99607W        W42519  21.271   0.222  26.675  0.1806 -0.1918 -0.2443
99608W        W42520  23.542  34.257  25.596  0.1242  0.0323  0.2193
99609W        W42521  23.365   2.717  23.135 -0.1082  0.0567  0.0136
99610W        W42522  21.475   1.893  26.509  0.0698  0.1340  0.1543
99611W        W42523  23.204  34.682  24.062 -0.0810  0.1733 -0.1460
99612W        W42524  24.162   0.709  27.652 -0.1778 -0.0536 -0.2958
99613W        W42525  25.228   3.955  27.192 -0.1064  0.0059  0.4072
99614W        W42526  23.509   0.797  28.004 -0.1882 -0.2520  0.0891
99615W        W42527  22.916   1.629  24.470  0.3365  0.1221 -0.2065
99616W        W42528  25.878   1.968  23.579  0.3461  0.2147 -0.0868
99617W        W42529  25.586   4.419  27.341  0.0692  0.2912  0.2490
99618W        W42530  25.592   2.880  27.866 -0.0332 -0.2899  0.1545
99619W        W42531  23.909   3.237  26.773 -0.0819  0.0916  0.3699
99620W        W42532  24.745   1.944  26.601  0.0781  0.1714  0.3040
99621W        W42533  21.369   0.581  25.190  0.0398  0.1422  0.2524
99622W        W42534  22.193   2.357  23.966 -0.0895 -0.0234  0.2178
99623W        W42535  23.396   1.066  24.682 -0.0081  0.0201 -0.0844
99624W        W42536  24.365   2.092  26.153  0.0507 -0.1288 -0.1869
99625W        W42537  22.761  34.439  25.807  0.1501 -0.0373 -0.1011
99626W        W42538  24.150  34.246  24.765 -0.1609  0.0418 -0.3731
99627W        W42539  23.242   3.288  26.173  0.0236 -0.1616  0.2495
99628W        W42540  24.511   1.135  25.823  0.2255  0.2805  0.2678
99629W        W42541  23.811   2.351  30.753  0.2161 -0.1458  0.1563
99630W        W42542  23.199  34.173  28.195  0.3777  0.0608 -0.1420
99631W        W42543  25.010   1.065  28.099  0.4702  0.1418  0.0448
99632W        W42544  25.453   1.122  28.907  0.0828 -0.0991  0.0977
99633W        W42545  20.947   0.122  27.970 -0.1684  0.2747  0.2905
99634W        W42546  25.722   3.552  28.195  0.0772 -0.1825  0.3194
99635W        W42547  22.562  34.419  30.624 -0.1470  0.0426 -0.1630
99636W        W42548  24.221   2.515  29.454 -0.3228 -0.2819 -0.0234
99637W        W42549  24.486   3.722  30.595 -0.2101 -0.2840 -0.2257
99638W        W42550  24.163   2.043  27.541 -0.0905  0.0629  0.2424
99639W        W42551  24.935   2.272  31.661 -0.0864 -0.2326 -0.2256
99640W        W42552  21.963   1.694  30.014  0.2531 -0.0770  0.0072
99641W        W42553  22.917  33.892  26.899 -0.0611  0.1677  0.0803
99642W        W42554  22.140  33.961  29.268 -0.1779 -0.1495 -0.1029
99643W        W42555  25.150   0.986  31.027 -0.2594  0.1446 -0.0423
99644W        W42556  22.270   2.459  28.681  0.1494  0.1744 -0.0313
99645W        W42557  23.594   2.107  31.099  0.0359 -0.0179  0.1240
99646W        W42558  24.380   1.307  28.741  0.3064  0.1435  0.0124
99647W        W42559  23.753   3.223  29.138 -0.1290 -0.0260  0.0094
99648W        W42560  23.580   1.205  30.783 -0.3360 -0.3210  0.1503
99649W        W42561  22.975   0.136  31.456 -0.1841  0.0209 -0.0091
99650W        W42562  22.990   3.158  27.973 -0.1892 -0.1412  0.0367
99651W        W42563  22.295   0.176  27.715 -0.1386  0.1399 -0.0831
99652W        W42564  22.164   0.437  30.045  0.0690 -0.0483  0.1414
99653W        W42565  23.252   2.007  30.014 -0.0204  0.1854  0.1515
99654W        W42566  24.012  34.274  29.584  0.0551 -0.1375  0.1945
99655W        W42567  24.302   2.986  28.682  0.2276 -0.1740  0.2845
99656W        W42568  24.574   3.496  29.693  0.0310  0.2007 -0.1304
99657W        W42569  23.557   3.960  28.780  0.0232  0.0903  0.0832
99658W        W42570  25.901   0.734  30.376 -0.0213  0.1639 -0.0408
99659W        W42571  22.610   2.000  28.760  0.1725 -0.0379 -0.0551
99660W        W42572  20.564   4.712  29.080  0.3892 -0.0104 -0.0491
99661W        W42573  23.048   2.873  28.692  0.0115 -0.4477 -0.0323
99662W        W42574  24.357   2.526  28.955 -0.2442 -0.1754 -0.1757
99663W        W42575  24.610   1.690  29.032  0.0516  0.0524 -0.0036
99664W        W42576  24.700   3.805  30.136 -0.0327  0.3346 -0.2792
99665W        W42577  21.567   2.764  28.124 -0.2035 -0.0104 -0.0479
99666W        W42578  25.032   3.195  30.581 -0.1621 -0.1126  0.1100
99667W        W42579  22.624   3.982  30.693 -0.0811 -0.1529  0.2871
99668W        W42580  24.143   2.184  28.550 -0.3633 -0.3146 -0.1288
99669W        W42581  23.158   1.106  29.626  0.1886  0.0303  0.2398
99670W        W42582  22.631   3.087  28.944  0.2653 -0.2927  0.2890
99671W        W42583  23.420   1.536  29.838  0.1124 -0.1771 -0.0081
99672W        W42584  24.531   1.219  29.759 -0.2213  0.0701  0.2626
99673W        W42585  21.739   2.404  30.135 -0.0502  0.0717  0.0242
99674W        W42586  24.209   0.814  30.006 -0.3007 -0.0810  0.1137
99675W        W42587  22.808   2.132  28.260  0.0048  0.1994 -0.1618
99676W        W42588  24.833   0.649  28.872 -0.1863 -0.0640  0.2055
99677W        W42589  24.568   1.090  26.328  0.3851  0.1113 -0.0134
99678W        W42590  24.800  34.054  27.763 -0.0117  0.5060 -0.3293
99679W        W42591  24.206   1.409  29.153  0.1271  0.0986  0.1230
99680W        W42592  22.302   3.847  29.132 -0.0302  0.0460 -0.2553
99681W        W42593  23.522  32.619  27.249 -0.3064 -0.1759  0.0569
99682W        W42594  25.444   2.549  30.356 -0.0898  0.1725  0.2361
99683W        W42595  24.770   1.317  28.440 -0.1245  0.0208  0.4886
99684W        W42596  25.238   0.295  29.019 -0.2458 -0.3173  0.0865
99685W        W42597  22.565   2.494  30.210  0.2102  0.0104  0.0572
99686W        W42598  21.273   0.267  29.862  0.0768 -0.2018  0.1918
99687W        W42599  25.256   2.753  28.482  0.0174  0.0848  0.2395
99688W        W42600  25.280   3.225  28.781 -0.1864 -0.3673  0.2206
99689W        W42601  24.504   0.971  29.169 -0.0117  0.2910  0.3311
99690W        W42602  22.238   1.154  29.313  0.3983  0.3315 -0.2151
99691W        W42603  23.840   3.145  30.576  0.1019  0.1706 -0.0976
99692W        W42604  23.349   1.631  30.992 -0.1441 -0.1912 -0.2018
99693W        W42605  22.495  34.454  29.162  0.3178  0.0096  0.2224
99694W        W42606  26.102   1.557  30.735 -0.3320  0.0133 -0.0092
99695W        W42607  22.607   2.263  30.718  0.0248 -0.1462 -0.2646
99696W        W42608  25.635   1.103  28.379 -0.1548 -0.0668 -0.0265
99697W        W42609  22.800   1.494  29.790  0.3426  0.4152 -0.0268
99698W        W42610  24.583   2.740  30.224  0.2540  0.1621 -0.1250
99699W        W42611  25.412   3.216  28.262  0.1042 -0.0258  0.1144
99700W        W42612  24.783   0.326  29.268  0.1540  0.0165 -0.1237
99701W        W42613  23.005   0.608  29.385  0.2550 -0.0770 -0.2120
99702W        W42614  23.720   2.195  28.805  0.0113  0.0087  0.3579
99703W        W42615  23.885   2.709  28.997  0.0939  0.1374 -0.0611
99704W        W42616  25.404   2.097  30.272 -0.2711 -0.0020  0.2679
99705W        W42617  23.793   0.362  27.865  0.0675  0.3624 -0.0889
99706W        W42618  22.661   4.570  31.678 -0.2841 -0.2158 -0.0944
99707W        W42619  21.506   0.201  30.356 -0.0781 -0.3964 -0.1896
99708W        W42620  24.233   3.795  31.043 -0.0998  0.3524  0.2205
99709W        W42621  21.809   2.258  27.781 -0.2092  0.3285 -0.0741
99710W        W42622  21.048   1.338  27.595  0.2964  0.3068  0.0476
99711W        W42623  22.997   1.586  28.393  0.0626  0.0519  0.1998
99712W        W42624  20.833  33.331  29.710 -0.0282 -0.0246  0.1079
99713W        W42625  23.805   2.701  30.311 -0.0120  0.1574  0.4467
99714W        W42626  25.963   0.684  27.957  0.1887 -0.0081 -0.0853
99715W        W42627  22.516  34.646  29.686 -0.1707 -0.1404  0.1472
99716W        W42628  25.079   0.574  29.633  0.0380 -0.0802 -0.3273
99717W        W42629  23.089   2.364  29.547 -0.0046  0.2482 -0.2186
99718W        W42630  24.336   4.516  28.616  0.0198  0.1590  0.0544
99719W        W42631  25.474   0.842  27.998  0.2491  0.2281  0.4102
99720W        W42632  24.484   3.580  27.716  0.1434  0.1952  0.0399
99721W        W42633  22.209   2.710  29.892  0.1766 -0.1681  0.2386
99722W        W42634  21.875   1.566  29.338 -0.1041  0.0207  0.1024
99723W        W42635  22.402   1.210  31.481  0.0751 -0.1551 -0.1902
99724W        W42636  22.510  34.022  28.907 -0.0225  0.0283  0.0624
99725W        W42637  26.598   1.239  29.502 -0.2127 -0.0393  0.0584
99726W        W42638  22.681  34.086  27.951  0.2293 -0.2909 -0.0605
99727W        W42639  23.415   2.057  29.232 -0.1929 -0.2900  0.3145
99728W        W42640  22.728   1.353  29.311 -0.0496  0.0994 -0.1110
99729W        W42641  21.952   2.083  29.399 -0.0849  0.1104  0.3145
99730W        W42642  23.715  34.463  30.589 -0.0812 -0.0725 -0.1496
99731W        W42643  25.358   3.682  28.670 -0.0414  0.1489 -0.2508
99732W        W42644  25.832   3.350  30.198  0.0845  0.0697 -0.1903
99733W        W42645  26.199   3.378  28.887  0.5285  0.0205  0.1138
99734W        W42646  22.238   1.955  30.839  0.1156 -0.1419  0.0541
99735W        W42647  22.504   0.248  29.204  0.3248 -0.0987  0.0449
99736W        W42648  22.107   3.050  29.020  0.0260  0.0373  0.1855
99737W        W42649  23.313   2.867  30.123  0.1363 -0.2305  0.0316
99738W        W42650  23.470  34.692  28.207  0.3217 -0.0293  0.0393
99739W        W42651  24.286   4.197  30.693  0.3939  0.1906 -0.1660
99740W        W42652  22.759   1.991  29.910  0.0049  0.0349  0.0893
99741W        W42653  22.182   2.219  29.991 -0.0397 -0.1431 -0.0133
99742W        W42654  23.491  34.589  30.137 -0.4688 -0.2920 -0.0770
99743W        W42655  25.720   0.869  29.242 -0.0992 -0.2805 -0.0161
99744W        W42656  24.215   0.357  28.414  0.1773 -0.1299 -0.2908
99745W        W42657  22.885   0.106  28.339  0.0961 -0.0315 -0.2946
99746W        W42658  24.780   1.826  30.374 -0.1704  0.0487  0.1339
99747W        W42659  21.084   2.642  28.113  0.1513 -0.1121 -0.0312
99748W        W42660  22.744   1.862  29.246 -0.1549 -0.0901  0.1464
99749W        W42661  24.597   2.469  29.810  0.2162  0.0660  0.1102
99750W        W42662  24.018   0.562  28.847 -0.0622  0.0260 -0.2722
99751W        W42663  22.963   1.121  30.074  0.1840  0.1441 -0.2779
99752W        W42664  24.648   0.745  30.781  0.1775 -0.1123  0.1037
99753W        W42665  22.368   1.743  29.661  0.4615  0.0419  0.1653
99754W        W42666  22.961   2.708  30.516 -0.4816 -0.0651  0.0395
99755W        W42667  24.408  34.505  28.553  0.2950  0.0559 -0.0407
99756W        W42668  24.112  33.995  28.674  0.0775 -0.0114  0.2284
99757W        W42669  24.480   1.523  30.133 -0.2668  0.2695 -0.2504
99758W        W42670  23.996   3.052  27.541 -0.0989 -0.2343  0.0283
99759W        W42671  23.384   1.177  27.510  0.0423 -0.2192  0.0216
99760W        W42672  22.621   0.568  28.418  0.1719 -0.0809 -0.3292
99761W        W42673  22.474   4.313  31.014 -0.4216  0.3222  0.0842
99762W        W42674  23.023   2.622  28.251 -0.0244 -0.1565 -0.1695
99763W        W42675  23.113   2.463  30.074 -0.0311 -0.0684  0.3319
99764W        W42676  24.480   1.700  28.470 -0.1925 -0.0374 -0.0156
99765W        W42677  25.770   3.228  28.656  0.1075 -0.0301 -0.0121
99766W        W42678  20.988   3.803  29.843 -0.0644  0.2918  0.0032
99767W        W42679  24.523   3.235  30.616 -0.1041  0.0193 -0.0081
99768W        W42680  24.226   2.088  29.105  0.1301  0.4001  0.3487
99769W        W42681  24.258   1.046  30.789 -0.0936 -0.4263  0.1730
99770W        W42682  22.306   1.743  29.093  0.2732  0.1336  0.0704
99771W        W42683  22.980  34.691  30.012  0.0901 -0.1285  0.3611
99772W        W42684  21.310   2.178  27.859  0.3913 -0.1883 -0.2397
99773W        W42685  23.694   0.575  30.118 -0.0832 -0.1067  0.0170
99774W        W42686  23.485  34.057  30.342 -0.0440 -0.1091  0.0837
99775W        W42687  22.398  33.799  29.794  0.1409 -0.1166  0.0549
99776W        W42688  26.204   1.155   0.200  0.0030 -0.0220  0.0428
99777W        W42689  24.605   2.130  28.721 -0.1314  0.4314  0.2327
99778W        W42690  25.538   2.791  28.873 -0.0961 -0.1538  0.0630
99779W        W42691  22.438   0.135  28.662 -0.5317 -0.1642  0.1076
99780W        W42692  23.848   1.341   0.579 -0.0123 -0.1838 -0.1596
99781W        W42693  23.118   1.279  30.565  0.1661  0.3356 -0.2027
99782W        W42694  22.355   3.727  30.075  0.2045 -0.2231  0.0023
99783W        W42695  23.643   3.899  30.814  0.0560 -0.3001 -0.2163
99784W        W42696  24.556   2.065  29.465 -0.1912 -0.3812  0.1166
99785W        W42697  25.456   2.855  31.652 -0.0402  0.0514  0.2906
99786W        W42698  23.493   1.630  27.688 -0.2061 -0.1447  0.0063
99787W        W42699  22.272   4.767  28.878  0.1341 -0.1560 -0.2238
99788W        W42700  22.157   1.768  27.752 -0.0397  0.1328  0.0373
99789W        W42701  22.213  33.613  30.218 -0.0849  0.0086  0.2607
99790W        W42702  23.561   2.402  29.802  0.0036  0.0104  0.0368
99791W        W42703  22.758   1.495  28.863  0.1170  0.1268  0.3087
99792W        W42704  25.332   2.540   0.048 -0.0945 -0.0941  0.2849
99793W        W42705  22.043   4.299  28.972  0.1482 -0.0333  0.0483
99794W        W42706  25.471  34.367  29.766  0.2128 -0.1290 -0.2744
99795W        W42707  20.993   4.356  29.172 -0.0029  0.0491 -0.0045
99796W        W42708  22.671  34.454  27.570 -0.3427 -0.1437 -0.1400
99797W        W42709  22.294   1.650  28.520  0.2598  0.0261  0.2107
99798W        W42710  24.129   0.944  29.492  0.0295  0.2346  0.1732
99799W        W42711  24.922   1.828  28.250 -0.2253  0.3622 -0.1359
99800W        W42712  22.810   0.494  29.841  0.1422 -0.0961  0.3049
99801W        W42713  23.256   0.206  28.646  0.1281 -0.0649 -0.1380
99802W        W42714  21.079   3.214  30.360  0.2161 -0.3713  0.1219
99803W        W42715  23.761   0.703  30.830 -0.1083  0.0944  0.2042
99804W        W42716  24.622   0.310  27.961  0.0538 -0.2649  0.3374
99805W        W42717  24.238   4.784  31.504 -0.1391 -0.0865 -0.1016
99806W        W42718  24.726   2.718  31.449  0.0875 -0.1120 -0.1907
99807W        W42719  21.249   0.296  28.328  0.1492 -0.3713 -0.0655
99808W        W42720  25.486   1.116  29.602  0.1828  0.0515  0.0062
99809W        W42721  22.061   0.094  29.493 -0.0415  0.0873  0.0496
99810W        W42722  21.832   2.482  29.652 -0.3000  0.1365  0.0448
99811W        W42723  22.162   3.024  29.511 -0.3216  0.2414  0.3204
99812W        W42724  23.553   1.445  28.163  0.0364  0.3393  0.2105
99813W        W42725  22.888   2.144  30.374  0.0710 -0.1135  0.2728
99814W        W42726  24.561   2.139  31.319  0.0253 -0.0091 -0.0952
99815W        W42727  24.515   2.033  29.997  0.0798  0.1404 -0.2419
99816W        W42728  23.280   0.323  30.236  0.0324  0.4252 -0.0312
99817W        W42729  22.022   0.616  29.236 -0.2137 -0.0137  0.0223
99818W        W42730  23.403   0.898  30.368  0.0078  0.0809  0.0990
99819W        W42731  24.772   2.523  29.321 -0.1252  0.3635 -0.0819
99820W        W42732  23.975   1.594  29.950 -0.1136  0.2838 -0.1104
99821W        W42733  22.972   1.761   0.214  0.0630  0.2686  0.0283
99822W        W42734  22.094   0.836  31.313 -0.0503 -0.0267  0.1069
99823W        W42735  25.789   3.568  29.204  0.0796  0.1725 -0.0032
99824W        W42736  25.093   2.055  29.493  0.2129 -0.1351 -0.1029
99825W        W42737  22.261   1.164  28.848 -0.0126 -0.0343  0.1920
99826W        W42738  21.477   1.860  29.096 -0.2861 -0.0705 -0.0274
99827W        W42739  24.228   1.677  29.543 -0.0505  0.1398  0.1192
99828W        W42740  23.270   0.239  30.991 -0.0554 -0.1357 -0.0533
99829W        W42741  22.268   1.340  29.942 -0.0368 -0.0526  0.0448
99830W        W42742  21.378   2.603  29.896  0.1187 -0.0504 -0.2083
99831W        W42743  22.684   3.420  30.649  0.1554 -0.4578  0.1291
99832W        W42744  25.769  34.570  29.424  0.4571  0.3070  0.0542
99833W        W42745  24.782   3.154  28.605 -0.1477  0.2085  0.1022
99834W        W42746  23.662   0.514  28.434  0.1843 -0.1227  0.1964
99835W        W42747  26.373   1.230  31.268  0.1536 -0.0931 -0.0482
99836W        W42748  23.177   1.134  28.116  0.1989  0.1148 -0.2189
99837W        W42749  23.780   0.879  31.306 -0.0364 -0.1416 -0.1283
99838W        W42750  23.145   0.961  31.510 -0.0109 -0.2591  0.1491
99839W        W42751  25.004   2.166  29.035 -0.1822 -0.2253  0.2612
99840W        W42752  22.726   0.976  30.717  0.0246 -0.3531  0.0776
99841W        W42753  25.021   4.373   0.048  0.1523 -0.1279  0.1490
99842W        W42754  22.741   2.136  31.154  0.2913  0.2211 -0.2412
99843W        W42755  23.808   1.312  28.828  0.1234 -0.1058 -0.2675
99844W        W42756  22.561  34.553  28.070  0.2549 -0.5826  0.0438
99845W        W42757  23.762   1.715  29.125 -0.0919  0.0327  0.1118
99846W        W42758  25.706   2.389  29.075  0.0958  0.0554  0.0156
99847W        W42759  22.825   2.968  29.364 -0.2010 -0.0863 -0.0833
99848W        W42760  26.266   1.636  29.554  0.1116  0.2068  0.0796
99849W        W42761  23.984   3.631  30.528 -0.0610  0.1541 -0.0029
99850W        W42762  25.510   2.269  29.527 -0.1195  0.0192 -0.0466
99851W        W42763  22.346   2.267  27.816  0.1315  0.3114 -0.0702
99852W        W42764  23.284   1.543  29.159  0.1440  0.3625 -0.0865
99853W        W42765  21.854   0.628  30.435  0.3232  0.1062  0.0161
99854W        W42766  25.165   0.962  30.498  0.2245 -0.0800 -0.1088
99855W        W42767  23.911  34.307  29.043  0.1293 -0.2180 -0.2410
99856W        W42768  24.021   1.410  30.470  0.0019  0.2334 -0.0722
99857W        W42769  23.714   1.000  29.871 -0.0359 -0.0591 -0.1557
99858W        W42770  23.723   0.803   0.713 -0.0888  0.3047 -0.2454
99859W        W42771  21.747   1.275  31.065 -0.0836  0.1059  0.3267
99860W        W42772  25.649   3.699  30.479  0.2972  0.4370 -0.2287
99861W        W42773  25.751   2.002  27.480 -0.0512 -0.0375  0.1859
99862W        W42774  26.711   0.419  29.820 -0.1841  0.1473 -0.2270
99863W        W42775  25.151   1.149  27.662 -0.1876  0.1296 -0.1784
99864W        W42776  24.511  34.307  29.022 -0.0221 -0.0350 -0.0636
99865W        W42777  24.092   2.172  29.806 -0.1412  0.3709 -0.2460
99866W        W42778  25.905   1.407  29.829  0.0720  0.0126  0.1326
99867W        W42779  22.705   0.084  26.812 -0.0116  0.0602  0.3808
99868W        W42780  25.068   0.012  30.708 -0.2661  0.3037 -0.0142
99869W        W42781  23.767   2.770  29.482  0.0137 -0.0995 -0.3869
99870W        W42782  25.642   1.991  28.550  0.3985  0.2870  0.0892
99871W        W42783  24.288   0.848  28.140  0.2898 -0.2734  0.0179
99872W        W42784  20.700   0.299  31.161  0.2314  0.2288  0.0072
99873W        W42785  22.855   3.814  30.149 -0.2809  0.2073  0.1402
99874W        W42786  21.244   0.878  28.974  0.0716  0.0878  0.0587
99875W        W42787  23.546   1.733  28.694  0.1161 -0.2176  0.3293
99876W        W42788  24.632   2.419  30.658  0.0010 -0.3607  0.1430
99877W        W42789  25.816   1.943  30.518 -0.2086 -0.3038  0.1442
99878W        W42790  24.110   0.118  27.518  0.0993 -0.1849 -0.0006
99879W        W42791  24.972   0.978  29.947 -0.1853 -0.0649  0.3186
99880W        W42792  22.790   3.889  29.248 -0.0857  0.0380  0.0453
99881W        W42793  23.136   1.022  29.126  0.0163 -0.1866  0.0065
99882W        W42794  23.669   3.570  29.728 -0.1317 -0.1056 -0.3681
99883W        W42795  22.559   3.030  30.259 -0.4112  0.1602 -0.0759
99884W        W42796  23.398   2.362  30.427 -0.1684 -0.3946 -0.1450
99885W        W42797  23.389  34.602  29.079 -0.2792  0.3467 -0.2427
99886W        W42798  24.981   1.115  29.442  0.1308 -0.0476  0.0431
99887W        W42799  21.542   0.459  29.175 -0.4113 -0.2572  0.1080
99888W        W42800  25.506   1.253  30.752 -0.0191  0.0071 -0.2149
99889W        W42801  24.249   2.154  30.875 -0.1503 -0.0197  0.0759
99890W        W42802  22.030   0.815  29.782 -0.1148 -0.6698 -0.1982
99891W        W42803  23.771   3.124  30.037 -0.0480  0.2348 -0.4278
99892W        W42804  25.257   2.297  28.658  0.2788  0.2400  0.0953
99893W        W42805  23.564   4.988  30.771 -0.0093 -0.1665 -0.1676
99894W        W42806  22.443   1.893  30.376 -0.1333  0.1435  0.0492
99895W        W42807  24.233   1.662   0.155  0.2194  0.0713 -0.0805
99896W        W42808  23.551   3.448  28.728  0.2144 -0.0732 -0.1878
99897W        W42809  22.834   0.476  28.896 -0.0435  0.1052  0.2123
99898W        W42810  23.651   2.073  27.758 -0.0704 -0.1635  0.3193
99899W        W42811  22.361   3.692  31.443 -0.0845 -0.0040 -0.0640
99900W        W42812  22.979   1.638  30.218 -0.1548 -0.0584 -0.3462
99901W        W42813  22.618   3.671  28.258  0.0330  0.0193  0.2354
99902W        W42814  24.988   3.590  29.212 -0.1271 -0.0575 -0.1626
99903W        W42815  23.711   2.023  30.091 -0.0417 -0.1959  0.0870
99904W        W42816  24.101   3.187  29.663  0.1095  0.2365  0.1543
99905W        W42817  23.865  34.430  26.928  0.0259 -0.1270  0.1404
99906W        W42818  23.040   3.429  29.350  0.2936  0.1624  0.0786
99907W        W42819  21.383   1.726  28.407  0.0614  0.1909  0.0741
99908W        W42820  23.291   4.162  27.598 -0.0806 -0.1191 -0.2550
99909W        W42821  23.341   4.084  30.052  0.3042  0.1032  0.0533
99910W        W42822  25.077   2.563  29.696 -0.3522  0.0324 -0.2459
99911W        W42823  24.929   1.184  26.709 -0.2624 -0.1985 -0.0902
99912W        W42824  25.119   2.345  28.163  0.1943  0.1973 -0.0745
99913W        W42825  24.140   1.347  28.323  0.1155  0.4522 -0.1423
99914W        W42826  24.495   1.472  30.684  0.3935 -0.0820 -0.0873
99915W        W42827  24.151   0.554  31.190 -0.1059  0.0711  0.0149
99916W        W42828  23.650  34.094  26.076 -0.0822  0.0339  0.2769
99917W        W42829  24.622   3.737  31.429  0.0803  0.1577 -0.0096
99918W        W42830  23.795  33.259  31.489 -0.3090  0.1582 -0.2269
99919W        W42831  21.342   2.793  30.418 -0.0237 -0.2496 -0.0032
99920W        W42832  24.582   3.087  28.139  0.3938  0.0656 -0.1578
99921W        W42833  21.210   0.846  28.452 -0.0003  0.0099 -0.0593
99922W        W42834  24.072   1.694  28.734  0.0762  0.0755 -0.0718
99923W        W42835  24.065  34.062  30.479  0.0972 -0.4369  0.0738
99924W        W42836  24.307   1.144  27.409 -0.2426  0.2212  0.0497
99925W        W42837  23.538   0.361  29.262  0.2087 -0.2128  0.3178
99926W        W42838  23.565   3.670  29.199 -0.1823 -0.2242  0.0707
99927W        W42839  23.179   3.522  30.751  0.0517  0.3637  0.1544
99928W        W42840  23.371   3.096  30.593 -0.0514 -0.4577  0.0985
99929W        W42841  21.242  34.063  28.865 -0.0348 -0.1368 -0.1854
99930W        W42842  26.009   0.738  28.450 -0.1835  0.1917  0.1334
99931W        W42843  23.118   2.378  31.318  0.0488 -0.1010  0.0432
99932W        W42844  23.105  32.552  31.457 -0.0202 -0.1113 -0.2587
99933W        W42845  21.255   0.213  27.354 -0.1861 -0.3555 -0.4174
99934W        W42846  25.508   0.398  29.397 -0.0198 -0.1560  0.1114
99935W        W42847  25.025   3.203  29.722 -0.0386  0.0338 -0.0896
99936W        W42848  21.908   0.831  30.858  0.0115  0.1307  0.2276
99937W        W42849  22.714   1.172  27.696 -0.0218 -0.1616  0.2372
99938W        W42850  25.136   2.785  30.849 -0.2451  0.0363  0.0338
99939W        W42851  23.010   1.545  27.844  0.0728  0.1732 -0.3065
99940W        W42852  25.072   2.795  30.122 -0.1327  0.0596  0.2670
99941W        W42853  21.426  34.461  29.082 -0.3991  0.1608  0.0482
99942W        W42854  23.270   0.416  28.210  0.0384 -0.3101  0.2118
99943W        W42855  22.799   2.470  28.641  0.2380 -0.2282  0.2498
99944W        W42856  23.746   1.774  30.769  0.2094  0.1020 -0.0020
99945W        W42857  24.992   1.434  30.120 -0.1585  0.2024  0.3137
99946W        W42858  20.818  33.843  28.989  0.0412  0.0852  0.0190
99947W        W42859  23.379   2.901  27.680 -0.1144 -0.0214 -0.1051
99948W        W42860  25.253   1.546  29.233 -0.0636  0.2633 -0.0902
99949W        W42861  24.135   2.661  28.314 -0.2031  0.1333 -0.0043
99950W        W42862  25.754   1.533  28.759  0.2761 -0.0650 -0.0228
99951W        W42863  24.490   3.962  29.195  0.1939 -0.1699 -0.2631
99952W        W42864  22.827   0.525  30.951  0.1658 -0.0304  0.1387
99953W        W42865  25.017   3.759  30.516 -0.0541 -0.0778 -0.1000
99954W        W42866  25.395   2.448  27.760 -0.1356 -0.1853  0.2099
99955W        W42867  24.190   0.003  28.081  0.0050 -0.3109 -0.0696
99956W        W42868  22.917  34.637  28.912  0.0546 -0.4426 -0.1595
99957W        W42869  21.496   3.965  29.834  0.0592  0.1072 -0.1771
99958W        W42870  24.151   1.843  30.505  0.3453  0.0092 -0.5531
99959W        W42871  24.185   0.371  29.801 -0.1119 -0.0756  0.3584
99960W        W42872  23.939   1.646  26.788 -0.2061 -0.0491  0.1123
99961W        W42873  23.311  34.295  30.848 -0.4419  0.1740  0.2127
99962W        W42874  24.125   2.707  29.884 -0.0144  0.2587 -0.0103
99963W        W42875  23.531   4.481  30.510  0.0101  0.2899  0.1441
99964W        W42876  22.308   0.287  28.171 -0.0688 -0.1001 -0.0889
99965W        W42877  25.294   1.535  31.163  0.6831 -0.3430  0.2018
99966W        W42878  23.912   3.153  28.487 -0.1159 -0.2897 -0.1917
99967W        W42879  22.798   3.195  29.783 -0.1628 -0.2445  0.3574
99968W        W42880  25.286   2.665  29.279  0.0116  0.2031 -0.1027
99969W        W42881  23.577   1.372  30.269 -0.1260  0.0871  0.2427
99970W        W42882  25.934   2.048  28.187  0.4455 -0.1012 -0.1941
99971W        W42883  23.953   0.029  29.249  0.1179 -0.0020  0.0353
99972W        W42884  24.753   0.666  28.306 -0.1431  0.3867 -0.0390
99973W        W42885  23.760   1.021  28.417  0.1411  0.0151  0.1191
99974W        W42886  24.215   3.157  30.956 -0.1074  0.1259 -0.1221
99975W        W42887  22.449   0.725  28.006 -0.2780 -0.2563 -0.2082
99976W        W42888  22.844   2.076  27.781 -0.3659  0.1573 -0.0487
99977W        W42889  23.163   1.839  29.567 -0.0248  0.0247 -0.1239
99978W        W42890  21.839   1.114  31.700  0.2193 -0.2897 -0.0663
99979W        W42891  23.348   0.487  31.472 -0.3367  0.0395  0.0313
99980W        W42892  21.691   2.634  28.591  0.0886 -0.0908  0.1258
99981W        W42893  21.122   0.540  29.435 -0.4545  0.2066  0.0323
99982W        W42894  25.287   2.610  27.168  0.2158  0.1836 -0.0919
99983W        W42895  23.035  34.674  29.463 -0.3486 -0.2821  0.0113
99984W        W42896  21.884  34.378  29.264 -0.2968  0.0663  0.1595
99985W        W42897  23.739   1.355  29.477 -0.0607  0.0563  0.0590
99986W        W42898  24.190   4.032  28.802 -0.1427 -0.1252  0.1542
99987W        W42899  22.743   2.313  29.139 -0.2402 -0.0209  0.0965
99988W        W42900  25.766   3.909  30.924 -0.1710 -0.1670  0.3586
99989W        W42901  23.147   3.226  27.432  0.0977  0.2156 -0.2505
99990W        W42902  22.972   0.656  30.394 -0.2758 -0.0179 -0.1541
99991W        W42903  22.331   0.020  31.030 -0.1356  0.1209 -0.1311
99992W        W42904  19.903   0.030  26.933 -0.2331  0.0970 -0.2285
99993W        W42905  24.662   1.814  31.866  0.0692  0.1034 -0.1781
99994W        W42906  24.247   3.158  30.219  0.2219  0.1050  0.0038
99995W        W42907  25.262   3.553  26.865 -0.1469 -0.0520  0.0965
99996W        W42908  24.340   1.677  31.174 -0.1894  0.0994 -0.1949
99997W        W42909  24.779   3.989  30.943 -0.2131 -0.1525 -0.0747
99998W        W42910  23.021   0.049  30.587  0.1007 -0.0057 -0.0463
99999W        W42911  24.691   2.616  28.488  0.2022  0.1152  0.1225
    0W        W42912  23.900   3.138  31.978  0.2715 -0.5439 -0.1959
    1W        W42913  23.320   3.055  28.294  0.1038  0.1248 -0.1298
    2W        W42914  24.624   1.038  30.340 -0.3142 -0.0129 -0.0817
    3W        W42915  24.997   1.795  28.709  0.1665 -0.1411  0.1318
    4W        W42916  21.081  34.075  31.494 -0.0223 -0.0132 -0.0227
    5W        W42917  23.324   1.873  30.489 -0.1326  0.0087 -0.2211
    6W        W42918  25.567   2.740  29.903  0.2218 -0.0342 -0.3080
    7W        W42919  22.029   0.101  28.922 -0.3728  0.4752 -0.0377
    8W        W42920  24.708   0.168  28.436  0.1803  0.0020 -0.1748
    9W        W42921  24.372   2.965  29.249 -0.0593  0.0356  0.3598
   10W        W42922  22.603   0.975  29.671 -0.0885 -0.1821  0.0723
   11W        W42923  23.184   0.437  27.705  0.2583 -0.2908  0.0762
   12W        W42924  24.992   1.432  30.718  0.2076  0.1024  0.0314
   13W        W42925  23.289   3.071  29.094 -0.1268 -0.0792  0.0427
   14W        W42926  24.957   2.334  30.183 -0.1896  0.3283 -0.2095
   15W        W42927  22.470   2.225  29.564 -0.2275  0.2176  0.0686
   16W        W42928  25.474   1.408  28.004  0.0009 -0.1885  0.2369
   17W        W42929  25.335   3.304  30.183 -0.0858  0.1090 -0.1644
   18W        W42930  25.539   4.298  31.205 -0.0051 -0.0034 -0.0745
   19W        W42931  23.850   4.086  30.373  0.0123 -0.3103  0.0002
   20W        W42932  25.205   0.763  29.162 -0.2421  0.0658 -0.2088
   21W        W42933  21.170  32.544  28.919 -0.2999 -0.4520  0.0816
   22W        W42934  22.268   0.990  28.382 -0.2894 -0.4324  0.3742
   23W        W42935  23.679   1.864  29.611 -0.0270  0.1180  0.0864
   24W        W42936  23.336   0.286  29.764  0.1431  0.1894  0.0194
   25W        W42937  21.895   1.163  30.330  0.1709 -0.0997  0.1065
   26W        W42938  23.520   0.871  29.399 -0.1805 -0.0763 -0.2034
   27W        W42939  24.119   2.289  30.289  0.1226 -0.0128  0.0144
   28W        W42940  24.780   3.328  30.159  0.2556 -0.3135  0.1139
   29W        W42941  24.890   0.547  30.290 -0.1224 -0.0323  0.0404
   30W        W42942  24.007   2.684   0.177 -0.0975  0.0830 -0.3126
   31W        W42943  23.264   0.738  29.939  0.0355  0.0134 -0.1354
   32W        W42944  22.847   1.799   0.684 -0.0825 -0.3309  0.1161
   33W        W42945  25.302   4.549  31.622  0.1414  0.0952 -0.0028
   34W        W42946  22.263   2.965  31.175  0.0397  0.0375  0.0830
   35W        W42947  23.973   1.373  31.633 -0.0724  0.2587 -0.0984
   36W        W42948  24.560   0.808   0.392  0.1973  0.3504 -0.2432
   37W        W42949  23.618   0.237  30.593  0.3985  0.3427 -0.0804
   38W        W42950  25.592   2.997  30.679  0.3104  0.1558 -0.1646
   39W        W42951  25.311   3.713   0.724  0.0893 -0.0157  0.1112
   40W        W42952  22.774  34.188  31.475  0.0872  0.0245 -0.2116
   41W        W42953  25.426   2.316   0.512  0.1542 -0.0835  0.0067
   42W        W42954  23.367   2.662  30.854 -0.0595 -0.3522 -0.3060
   43W        W42955  25.414   2.494  31.323  0.0294  0.1964 -0.0346
   44W        W42956  23.467   4.477  31.456 -0.0780 -0.2466  0.0597
   45W        W42957  22.834   2.415   0.784 -0.1666 -0.0535  0.1507
   46W        W42958  25.162   2.250  30.651  0.3133  0.0633  0.1040
   47W        W42959  25.803   1.500   0.079  0.0080  0.0589  0.1727
   48W        W42960  22.856   1.745  30.746  0.1537  0.0601 -0.0669
   49W        W42961  21.821   1.016   0.568  0.1353 -0.2568  0.1356
   50W        W42962  23.563   2.700  31.842 -0.0732 -0.0769 -0.0254
   51W        W42963  25.784   0.960  31.756 -0.0053  0.2357  0.1879
   52W        W42964  25.546   1.957  31.583  0.0986 -0.2064 -0.1444
   53W        W42965  22.836   0.590  31.674 -0.0323  0.1980  0.2357
   54W        W42966  23.627   3.408  30.937  0.2661  0.0254 -0.0203
   55W        W42967  23.865   1.954   1.099 -0.0786 -0.1464 -0.1136
   56W        W42968  23.287   3.555  31.323  0.0790 -0.0501  0.1548
   57W        W42969  24.899   2.411  31.036 -0.2258  0.0585  0.2123
   58W        W42970  23.866   1.771  31.294  0.1131  0.0909 -0.2137
   59W        W42971  22.809   4.878  30.228  0.0218 -0.4290  0.2098
   60W        W42972  23.096   2.438  31.889 -0.2438  0.4559 -0.1750
   61W        W42973  25.253   2.049  31.112 -0.1160  0.1258  0.0322
   62W        W42974  24.720   1.922  30.891  0.1252  0.2522 -0.4112
   63W        W42975  23.688   2.349   0.246 -0.2243 -0.1214  0.1199
   64W        W42976  24.405   2.626  31.039  0.0183  0.1750 -0.0527
   65W        W42977  23.538   2.566  31.323  0.0622 -0.0117  0.3498
   66W        W42978  24.743   2.977  31.034 -0.0861 -0.0724  0.0602
   67W        W42979  25.522   1.689  29.604 -0.3289  0.0105  0.0067
   68W        W42980  24.065   2.472   1.154 -0.1410 -0.1806 -0.0828
   69W        W42981  25.790   0.733  29.702 -0.1595 -0.0599  0.1003
   70W        W42982  24.114   2.597   0.674 -0.4725 -0.0542 -0.0238
   71W        W42983  23.875   0.086   1.321  0.2380  0.1193  0.0848
   72W        W42984  24.205   3.444  31.395 -0.0136  0.1000  0.0710
   73W        W42985  23.225   0.852  30.962  0.1493 -0.3393  0.1677
   74W        W42986  23.535   2.367   1.239 -0.0158 -0.0810 -0.0249
   75W        W42987  24.688  34.403   0.820 -0.1077 -0.3998  0.0155
   76W        W42988  23.291   5.441  30.900  0.1324 -0.2198  0.1121
   77W        W42989  24.656   3.216  31.479  0.0609 -0.0757 -0.3430
   78W        W42990  22.418   2.807  30.696  0.2815 -0.3486  0.1713
   79W        W42991  25.578   1.598  30.143 -0.0784 -0.2456 -0.1789
   80W        W42992  24.797   0.676  31.363  0.0895 -0.0357 -0.0746
   81W        W42993  24.293   0.098   0.955 -0.0741  0.1079 -0.0667
   82W        W42994  23.729   3.092  31.482  0.0892  0.0669  0.0982
   83W        W42995  25.379   1.739  30.660  0.0615  0.0637  0.1774
   84W        W42996  25.088   0.513  30.742 -0.1365 -0.2170 -0.1793
   85W        W42997  25.653   3.781  31.416  0.2150  0.3038  0.1042
   86W        W42998  23.871   4.339  30.952 -0.0928 -0.3030  0.2755
   87W        W42999  24.561   4.545   0.074  0.0616  0.1126 -0.3515
   88W        W43000  23.538   1.330  31.326  0.0086  0.0895 -0.1839
   89W        W43001  21.532   0.790  31.273  0.2748  0.1237 -0.0378
   90W        W43002  25.323   1.544  31.708  0.0491 -0.2082  0.2214
   91W        W43003  22.989   2.086   1.140 -0.2170  0.3627  0.0340
   92W        W43004  21.736   0.778   0.149 -0.0269  0.1885 -0.0034
   93W        W43005  24.790   3.476  30.965 -0.0038  0.1845 -0.0387
   94W        W43006  25.192   3.055  31.282  0.0288 -0.1332 -0.0667
   95W        W43007  24.042   0.822  31.730  0.3698  0.1449  0.1205
   96W        W43008  22.320   6.624  17.054  0.1945 -0.0917 -0.3645
   97W        W43009  22.921   3.448  16.812  0.1793 -0.0121 -0.1801
   98W        W43010  24.583   6.238  16.693  0.2681 -0.4193 -0.3383
   99W        W43011  24.858   6.474  16.308  0.0896  0.0734  0.0533
  100W        W43012  22.203   3.988  18.616 -0.4238 -0.1133 -0.1243
  101W        W43013  24.384   5.853  18.453 -0.0654  0.1922 -0.1451
  102W        W43014  22.049   4.823  20.508  0.1085  0.3190  0.1359
  103W        W43015  25.065   5.190  18.266 -0.1145  0.0592  0.0463
  104W        W43016  25.591   7.884  18.047  0.0907  0.4233  0.0052
  105W        W43017  23.386   5.003  16.570  0.3422  0.1486 -0.1398
  106W        W43018  23.915   3.816  18.602 -0.0378 -0.1416  0.0289
  107W        W43019  22.663   5.784  19.957 -0.0939 -0.0738  0.0959
  108W        W43020  22.132   3.562  18.279  0.1212  0.1879  0.0404
  109W        W43021  22.193   3.945  17.932 -0.3583  0.2188 -0.2946
  110W        W43022  26.138   5.585  17.837  0.0853  0.3097  0.1786
  111W        W43023  23.261   4.219  17.049 -0.0710  0.3857  0.0629
  112W        W43024  22.731   4.802  19.069 -0.0399  0.0963 -0.5489
  113W        W43025  23.285   4.768  17.799  0.1227  0.1044 -0.0002
  114W        W43026  23.012   6.763  16.985  0.2062 -0.0742  0.3531
  115W        W43027  24.944   4.102  18.339  0.1892 -0.0863 -0.0174
  116W        W43028  24.136   2.966  20.301 -0.1201 -0.1877  0.0673
  117W        W43029  22.541   5.671  16.066 -0.4326  0.0550 -0.0549
  118W        W43030  22.334   4.837  15.844  0.1124  0.1012  0.3197
  119W        W43031  21.190   5.532  17.203 -0.0102 -0.2799  0.1858
  120W        W43032  22.794   5.386  18.711  0.0538  0.1898  0.1029
  121W        W43033  25.239   4.941  16.545 -0.3429  0.1196  0.1356
  122W        W43034  25.277   5.663  18.319  0.0160  0.0148 -0.2279
  123W        W43035  23.027   5.672  17.710  0.5054 -0.3487  0.1160
  124W        W43036  23.291   5.950  18.121  0.1988 -0.0334 -0.3025
  125W        W43037  23.591   4.056  21.225  0.0532 -0.1142  0.0652
  126W        W43038  22.206   5.633  17.028 -0.0309  0.0060  0.1975
  127W        W43039  21.519   7.455  15.865 -0.1137 -0.1308 -0.0160
  128W        W43040  22.972   5.152  16.872  0.0478 -0.0773  0.1881
  129W        W43041  25.486   5.787  16.308  0.0890  0.3366 -0.0429
  130W        W43042  24.184   7.243  19.834 -0.2679 -0.1020  0.3080
  131W        W43043  24.344   7.586  18.790 -0.1847 -0.0852 -0.1165
  132W        W43044  23.030   5.045  15.118  0.1731 -0.3394 -0.1578
  133W        W43045  24.979   6.790  19.404  0.3060  0.1503  0.3178
  134W        W43046  23.035   4.969  20.385 -0.2564  0.0653  0.0573
  135W        W43047  23.553   5.559  18.237  0.0427 -0.0605  0.0033
  136W        W43048  23.845   5.351  17.420 -0.2344 -0.0570 -0.3436
  137W        W43049  22.560   7.258  15.637 -0.1050 -0.0255  0.1955
  138W        W43050  24.009   5.678  16.971  0.2242 -0.0720  0.1479
  139W        W43051  22.513   5.618  20.424 -0.0678 -0.0182  0.0138
  140W        W43052  22.644   6.814  17.505 -0.0433 -0.0631  0.2890
  141W        W43053  25.042   6.062  19.168  0.2729  0.0752 -0.0670
  142W        W43054  20.859   7.165  15.707  0.0046 -0.2404  0.0141
  143W        W43055  25.783   6.423  16.758 -0.4435 -0.2083  0.0984
  144W        W43056  23.528   4.455  17.418  0.0792 -0.2004 -0.2838
  145W        W43057  23.914   3.417  16.463 -0.0384 -0.0377  0.1345
  146W        W43058  23.484   4.319  17.895  0.3659 -0.0910  0.2275
  147W        W43059  23.218   6.832  17.610  0.1202 -0.0288 -0.0295
  148W        W43060  23.651   3.640  18.999  0.1675 -0.0963  0.0312
  149W        W43061  25.471   6.025  18.656  0.0543 -0.0712  0.0287
  150W        W43062  22.908   5.581  16.458  0.2103  0.1293  0.1367
  151W        W43063  24.560   5.590  17.123 -0.3555  0.1135  0.3659
  152W        W43064  22.717   6.332  16.923  0.1746 -0.0855 -0.0097
  153W        W43065  22.037   5.140  17.009  0.0236 -0.0945 -0.3513
  154W        W43066  24.366   6.542  16.301  0.0655  0.4306 -0.0537
  155W        W43067  25.938   6.822  17.066  0.2251  0.0001  0.0612
  156W        W43068  23.529   6.844  15.251  0.2018 -0.2995  0.0131
  157W        W43069  22.775   5.178  16.129 -0.0096  0.0294 -0.1795
  158W        W43070  20.682   5.937  18.901  0.1168  0.1321 -0.0738
  159W        W43071  22.754   5.102  19.471  0.0625  0.0438  0.1603
  160W        W43072  23.391   3.582  15.591 -0.1379 -0.0416 -0.0232
  161W        W43073  24.614   6.456  19.458 -0.0178  0.0631  0.1677
  162W        W43074  21.865   7.313  19.381 -0.0634  0.2826 -0.0829
  163W        W43075  26.483   3.180  17.756  0.0872 -0.4265  0.0777
  164W        W43076  23.009   6.397  17.302 -0.0982 -0.1110 -0.3394
  165W        W43077  25.995   5.951  17.156 -0.3438 -0.0600 -0.2220
  166W        W43078  25.263   6.668  15.886 -0.1169 -0.2526 -0.0036
  167W        W43079  26.013   5.080  17.761 -0.2981 -0.2196  0.0524
  168W        W43080  25.884   3.775  17.881  0.1268 -0.1364  0.1445
  169W        W43081  22.607   3.854  16.074  0.2290  0.3191 -0.2696
  170W        W43082  22.808   6.153  15.949 -0.2030 -0.1126 -0.0004
  171W        W43083  26.338   7.234  19.336 -0.0173 -0.0778 -0.0867
  172W        W43084  24.648   5.814  16.057 -0.2640  0.1743 -0.0536
  173W        W43085  23.117   6.856  16.478  0.0843 -0.0823 -0.3533
  174W        W43086  23.448   3.729  18.356  0.1873 -0.1333  0.2289
  175W        W43087  23.710   5.863  19.695 -0.2489 -0.2186  0.2483
  176W        W43088  22.339   7.955  16.343 -0.1722  0.1792  0.1925
  177W        W43089  21.293   6.866  17.283  0.0310 -0.2963 -0.0048
  178W        W43090  22.971   4.778  16.380 -0.1366  0.3228 -0.1240
  179W        W43091  23.144   4.835  19.887 -0.2535 -0.1839  0.0893
  180W        W43092  23.266   5.177  15.935  0.2965  0.1396 -0.1610
  181W        W43093  26.652   5.069  16.966  0.2838  0.2752 -0.0070
  182W        W43094  22.654   4.116  18.217  0.2632  0.1239  0.2735
  183W        W43095  25.720   4.565  17.727  0.1913  0.1397  0.0085
  184W        W43096  22.182   5.756  15.733 -0.2233 -0.2015 -0.3446
  185W        W43097  24.166   7.477  16.641  0.1840 -0.1965  0.2820
  186W        W43098  24.977   4.363  15.708  0.0261 -0.1253 -0.0911
  187W        W43099  25.358   6.274  16.148 -0.3601 -0.3385  0.0399
  188W        W43100  21.365   6.841  17.941 -0.1200 -0.0375  0.2786
  189W        W43101  23.535   5.690  17.214 -0.1671 -0.3169  0.1177
  190W        W43102  22.440   3.892  19.110  0.1052  0.0576  0.2000
  191W        W43103  20.620   4.420  17.696  0.2302 -0.0831 -0.0977
  192W        W43104  24.441   5.651  19.004 -0.0049  0.1504  0.2649
  193W        W43105  21.872   2.407  16.461 -0.1254  0.0048  0.0018
  194W        W43106  25.735   5.857  18.092  0.2220  0.1940  0.1379
  195W        W43107  23.703   4.843  16.016  0.2076  0.2499  0.2392
  196W        W43108  23.070   4.402  17.541 -0.1095  0.1005 -0.0425
  197W        W43109  24.772   3.939  20.604 -0.0385  0.1669  0.1147
  198W        W43110  23.555   5.905  16.583  0.0733  0.1065 -0.2095
  199W        W43111  25.514   5.665  20.532  0.3528 -0.1781  0.0682
  200W        W43112  25.104   5.514  17.872  0.0349  0.3308 -0.2530
  201W        W43113  23.772   4.467  18.652  0.2792  0.2231 -0.4077
  202W        W43114  23.261   3.935  17.551  0.1302  0.0782  0.4194
  203W        W43115  22.264   8.041  17.992  0.0820  0.1874  0.0922
  204W        W43116  23.764   4.669  18.051  0.2350 -0.1371 -0.2548
  205W        W43117  22.168   3.218  17.951  0.1302  0.3968  0.1799
  206W        W43118  24.942   7.418  18.181  0.2949 -0.1124 -0.3577
  207W        W43119  23.024   4.645  16.849 -0.1657 -0.0944 -0.0715
  208W        W43120  21.776   6.631  17.595  0.3799  0.0022 -0.0175
  209W        W43121  24.486   4.730  16.950 -0.0970  0.0703 -0.2921
  210W        W43122  24.390   6.100  19.241  0.1427  0.0465  0.0272
  211W        W43123  25.197   5.387  16.229  0.3314 -0.1027  0.0446
  212W        W43124  22.082   4.435  15.856 -0.3061  0.0812 -0.0891
  213W        W43125  25.310   6.845  17.048  0.3316 -0.0098 -0.1506
  214W        W43126  22.733   7.787  15.592  0.1265  0.2511 -0.0055
  215W        W43127  21.744   4.697  16.944  0.2082  0.0569  0.0681
  216W        W43128  24.436   6.666  17.834 -0.0145  0.1151 -0.3502
  217W        W43129  25.755   4.527  18.422 -0.2334 -0.1188  0.0198
  218W        W43130  21.396   6.377  20.904  0.1373  0.0499  0.2246
  219W        W43131  24.355   4.476  18.811 -0.0077 -0.0285 -0.1126
  220W        W43132  22.231   3.960  15.772 -0.2306 -0.1214  0.3244
  221W        W43133  23.335   6.965  18.141 -0.0692 -0.0564  0.1632
  222W        W43134  24.814   4.164  16.978  0.1013  0.1015 -0.3147
  223W        W43135  23.887   3.670  17.032  0.0315 -0.1150  0.0197
  224W        W43136  23.134   5.626  18.461 -0.0053 -0.1140 -0.1637
  225W        W43137  25.840   6.203  16.201 -0.2702  0.3250  0.0596
  226W        W43138  24.580   5.709  16.632 -0.2348 -0.0965 -0.1064
  227W        W43139  23.946   4.406  16.507 -0.1475  0.1643  0.1523
  228W        W43140  22.502   5.615  19.520  0.1651  0.0616  0.0826
  229W        W43141  24.007   6.127  16.813 -0.0789 -0.4499 -0.1207
  230W        W43142  21.908   5.209  18.985 -0.0213  0.1772 -0.0734
  231W        W43143  25.207   4.416  16.253  0.0712 -0.2905 -0.3127
  232W        W43144  25.077   6.466  16.787 -0.3637  0.1139  0.2474
  233W        W43145  21.388   6.311  17.709  0.2672  0.2136 -0.0482
  234W        W43146  23.280   6.497  20.626  0.1208 -0.0986 -0.0556
  235W        W43147  25.003   4.725  17.123  0.0880 -0.2687  0.2155
  236W        W43148  24.313   3.919  17.396 -0.0838 -0.1326 -0.1522
  237W        W43149  23.377   4.123  16.091 -0.0861 -0.0263 -0.0075
  238W        W43150  23.331   4.509  18.348 -0.3562 -0.1147 -0.1845
  239W        W43151  21.620   7.025  16.156  0.0377  0.0132  0.3819
  240W        W43152  24.594   6.167  18.797 -0.3538 -0.1877  0.1495
  241W        W43153  24.089   4.434  17.761 -0.0182 -0.1553  0.0493
  242W        W43154  24.258   3.476  18.427  0.0211  0.2962  0.0136
  243W        W43155  24.221   4.371  19.330 -0.0231  0.2882 -0.3260
  244W        W43156  23.872   4.902  16.516  0.1022 -0.1315  0.3338
  245W        W43157  23.646   6.106  17.842 -0.0623  0.1528  0.3207
  246W        W43158  22.876   5.054  15.716 -0.0195 -0.1182 -0.1362
  247W        W43159  24.484   3.236  18.889 -0.0298  0.1208  0.2056
  248W        W43160  23.061   5.668  19.677 -0.0849  0.0167 -0.1490
  249W        W43161  21.569   7.275  18.181 -0.3352  0.0846  0.0493
  250W        W43162  23.840   6.842  19.841  0.1289  0.0970  0.4939
  251W        W43163  25.390   4.967  15.919 -0.0927 -0.0069 -0.0470
  252W        W43164  23.441   4.120  19.788  0.0690  0.0236 -0.0199
  253W        W43165  23.157   3.631  17.921  0.3746 -0.0593 -0.0017
  254W        W43166  22.480   7.553  15.137  0.0529  0.0278 -0.1768
  255W        W43167  24.223   4.277  17.117  0.2167  0.0896  0.0409
  256W        W43168  23.870   4.172  18.262  0.0075 -0.0014 -0.0229
  257W        W43169  22.771   6.057  17.818 -0.1013 -0.3823 -0.0063
  258W        W43170  22.262   6.192  16.062  0.3209  0.0746  0.2274
  259W        W43171  24.991   6.288  17.790  0.0499  0.0209  0.0796
  260W        W43172  22.299   6.306  16.588  0.0739 -0.1402 -0.1886
  261W        W43173  25.277   4.117  17.311  0.0662  0.0031  0.1356
  262W        W43174  22.016   6.631  16.028  0.2808  0.0334 -0.2014
  263W        W43175  24.189   4.126  16.198  0.2677  0.0172 -0.2676
  264W        W43176  22.932   4.164  16.233  0.2276  0.0571  0.0131
  265W        W43177  24.328   4.822  17.870  0.0814 -0.0905  0.4499
  266W        W43178  25.733   4.684  16.751 -0.0454 -0.2162 -0.1138
  267W        W43179  24.057   4.826  18.984 -0.1424 -0.0906  0.0472
  268W        W43180  24.642   5.222  18.038  0.0489 -0.2082  0.0093
  269W        W43181  22.249   5.782  17.913 -0.1496 -0.0276 -0.0963
  270W        W43182  25.248   4.716  18.392  0.1333 -0.2995  0.2351
  271W        W43183  24.573   3.030  15.869 -0.2838  0.0610 -0.1993
  272W        W43184  24.683   5.445  18.484  0.0729 -0.2775 -0.0882
  273W        W43185  22.283   5.173  17.867  0.0120 -0.2031 -0.1338
  274W        W43186  21.391   4.748  16.229  0.1700  0.4505 -0.0639
  275W        W43187  26.056   5.360  18.292  0.0262 -0.1798 -0.1170
  276W        W43188  23.343   5.248  17.525  0.2213 -0.5032  0.0067
  277W        W43189  22.578   7.536  16.154  0.3398  0.0989  0.0269
  278W        W43190  24.252   7.530  17.493  0.1626  0.0097  0.1508
  279W        W43191  23.739   4.357  15.899 -0.0628 -0.0575 -0.2170
  280W        W43192  22.859   7.034  16.117 -0.1778 -0.1210 -0.0013
  281W        W43193  24.501   5.052  19.147  0.1639 -0.0287  0.0974
  282W        W43194  25.588   6.950  18.844  0.2578 -0.2047  0.2398
  283W        W43195  23.027   3.780  19.003  0.3749 -0.1210 -0.1138
  284W        W43196  24.313   5.140  18.736  0.0126 -0.1187  0.1021
  285W        W43197  24.719   5.337  17.524 -0.0814  0.1565  0.0999
  286W        W43198  24.796   4.865  17.644 -0.2466  0.0715  0.0804
  287W        W43199  23.828   5.223  16.872  0.1876 -0.0232 -0.1438
  288W        W43200  22.700   6.025  18.969  0.0218 -0.2097 -0.3550
  289W        W43201  22.916   4.489  18.080 -0.0809 -0.2334  0.0444
  290W        W43202  24.920   8.716  15.882 -0.1483  0.0459 -0.0144
  291W        W43203  24.774   4.879  18.630 -0.2978 -0.0145 -0.0583
  292W        W43204  23.651   5.446  16.169 -0.0290 -0.0953  0.2138
  293W        W43205  22.116   6.131  17.010 -0.0122 -0.1381  0.1467
  294W        W43206  23.450   4.783  17.034 -0.0726  0.2941 -0.2481
  295W        W43207  22.673   4.673  18.577  0.0331 -0.1222 -0.0821
  296W        W43208  22.788   5.967  17.331  0.2682  0.3207  0.0431
  297W        W43209  22.383   6.825  15.567  0.1389 -0.0616  0.1864
  298W        W43210  23.056   6.567  18.318 -0.1164 -0.1685  0.1393
  299W        W43211  26.036   4.337  16.984 -0.0975 -0.0059 -0.2173
  300W        W43212  23.464   6.722  15.804 -0.3169  0.1810  0.0950
  301W        W43213  24.623   3.296  16.326 -0.1533 -0.1105  0.0494
  302W        W43214  24.663   3.817  20.139  0.0048  0.0507  0.0695
  303W        W43215  24.273   5.286  17.729  0.1737 -0.0755  0.0829
  304W        W43216  24.585   2.913  19.362 -0.1185  0.1636 -0.0285
  305W        W43217  23.187   3.311  19.270  0.2076  0.0054 -0.2704
  306W        W43218  25.712   6.378  17.295 -0.3075 -0.0033  0.2926
  307W        W43219  22.735   3.871  17.115  0.1048 -0.0143 -0.2035
  308W        W43220  25.039   7.230  20.591  0.1563 -0.0657  0.0012
  309W        W43221  21.911   7.038  18.463 -0.3163  0.2380  0.1650
  310W        W43222  24.404   4.838  16.478 -0.0986  0.2605  0.0489
  311W        W43223  22.276   4.061  17.037  0.0493  0.4941  0.0428
  312W        W43224  23.668   5.643  17.765 -0.0509 -0.3079 -0.0989
  313W        W43225  25.384   6.025  16.712 -0.2260  0.1610  0.0336
  314W        W43226  23.064   6.555  16.072  0.2346 -0.1174 -0.4611
  315W        W43227  25.121   5.491  17.227  0.1817 -0.0926 -0.0601
  316W        W43228  21.571   5.847  17.917  0.2400 -0.1739  0.2691
  317W        W43229  26.109   4.828  17.037 -0.0596  0.1679 -0.1162
  318W        W43230  24.865   4.657  16.575 -0.0870  0.0211 -0.1058
  319W        W43231  22.752   6.042  16.454 -0.1257  0.0499 -0.1984
  320W        W43232  23.412   3.709  19.443  0.1111 -0.1767  0.0021
  321W        W43233  24.865   5.891  17.394 -0.0518 -0.0486  0.2595
  322W        W43234  24.090   5.630  18.040 -0.0615 -0.4519 -0.3298
  323W        W43235  23.028   4.039  18.514  0.1833  0.0705 -0.0100
  324W        W43236  24.703   4.710  18.166 -0.1400  0.1336  0.0233
  325W        W43237  23.463   5.618  19.257 -0.0814 -0.1212  0.1366
  326W        W43238  23.450   4.465  20.153  0.1740  0.1314 -0.2680
  327W        W43239  24.916   7.413  19.323  0.1866  0.0507 -0.1249
  328W        W43240  25.194   3.979  15.988  0.0823  0.1155  0.4284
  329W        W43241  26.405   3.964  18.293 -0.0562 -0.2673  0.4355
  330W        W43242  26.644   4.667  16.510  0.2542 -0.0409  0.1668
  331W        W43243  23.207   5.975  16.208 -0.1572 -0.0932 -0.1096
  332W        W43244  21.751   5.071  17.447 -0.1234 -0.2647 -0.1479
  333W        W43245  24.938   5.335  19.238  0.3145  0.4637 -0.0990
  334W        W43246  22.564   3.814  15.474 -0.2080  0.0686  0.0714
  335W        W43247  23.546   5.196  20.019  0.0287 -0.1051 -0.3087
  336W        W43248  23.508   7.216  17.113 -0.0469  0.0832  0.1212
  337W        W43249  24.579   6.861  16.800 -0.0971  0.1297  0.0091
  338W        W43250  24.705   5.317  16.299  0.0305 -0.0987  0.0615
  339W        W43251  22.219   4.385  18.189 -0.1541  0.0988  0.2515
  340W        W43252  20.375   7.934  18.402  0.0411 -0.1405 -0.0939
  341W        W43253  22.997   3.923  15.786  0.1885 -0.0685 -0.1796
  342W        W43254  23.247   4.876  15.498  0.0531 -0.0003  0.0487
  343W        W43255  25.943   6.227  18.410 -0.0734  0.0065 -0.2813
  344W        W43256  25.233   5.198  19.613  0.0055 -0.2717  0.1007
  345W        W43257  23.383   4.425  16.483 -0.1313  0.0421  0.0925
  346W        W43258  26.041   6.960  19.914  0.2481  0.0383  0.0807
  347W        W43259  20.483   6.184  16.375  0.0179  0.1849  0.4217
  348W        W43260  24.502   3.784  16.409 -0.1131 -0.1909 -0.5474
  349W        W43261  22.224   6.609  17.808  0.0521  0.3141  0.2425
  350W        W43262  22.084   5.946  17.441 -0.2321  0.0544  0.1549
  351W        W43263  23.325   6.028  17.502 -0.1199 -0.1674 -0.0216
  352W        W43264  23.771   3.341  18.380 -0.2699 -0.0783  0.2061
  353W        W43265  24.182   5.764  17.453  0.2930  0.1962  0.3842
  354W        W43266  24.698   4.412  17.428 -0.2378 -0.0074 -0.1717
  355W        W43267  25.784   4.418  19.029  0.1074  0.1839 -0.0106
  356W        W43268  22.906   5.635  19.195 -0.2450  0.1271 -0.1237
  357W        W43269  22.512   5.592  17.555 -0.0177 -0.1167 -0.0487
  358W        W43270  23.149   6.781  19.142  0.0933  0.0550 -0.1578
  359W        W43271  24.978   6.948  16.555 -0.2724  0.5086 -0.0446
  360W        W43272  23.535   6.411  16.941 -0.1491 -0.1908  0.4157
  361W        W43273  21.513   6.111  19.290 -0.1743 -0.3443  0.0089
  362W        W43274  22.827   4.584  20.197  0.1212 -0.1837  0.0305
  363W        W43275  25.933   5.979  17.654  0.2194 -0.0911 -0.0437
  364W        W43276  22.091   3.318  17.470  0.2496  0.0107  0.0412
  365W        W43277  23.841   5.889  16.142  0.1187  0.2041  0.1602
  366W        W43278  22.239   6.712  19.312 -0.0081 -0.0434  0.0542
  367W        W43279  22.131   4.922  18.304 -0.1528 -0.0591 -0.1103
  368W        W43280  20.750   7.574  17.027  0.2552 -0.4109  0.0612
  369W        W43281  25.903   5.938  16.653  0.1204  0.2288 -0.1788
  370W        W43282  24.064   6.453  17.573 -0.1398 -0.1656  0.1531
  371W        W43283  23.977   5.459  18.498  0.0069 -0.0480  0.3453
  372W        W43284  23.415   3.120  16.197 -0.1361 -0.0982 -0.0617
  373W        W43285  23.354   5.503  16.718 -0.0716  0.1255  0.1403
  374W        W43286  21.820   7.077  15.716 -0.1861 -0.1409  0.0866
  375W        W43287  23.832   6.069  17.261  0.1057  0.2002 -0.3137
  376W        W43288  22.086   7.071  16.869  0.2002 -0.0022 -0.0425
  377W        W43289  24.629   6.751  20.382 -0.0019  0.0930  0.0665
  378W        W43290  22.984   3.545  17.339 -0.3151  0.3762  0.0965
  379W        W43291  25.977   7.023  17.887  0.0706  0.0640 -0.1224
  380W        W43292  24.826   3.795  17.391  0.0191 -0.1277  0.0200
  381W        W43293  24.656   7.937  20.509  0.1246  0.1187  0.0000
  382W        W43294  23.826   5.212  17.981  0.1198  0.2928 -0.2463
  383W        W43295  22.463   3.372  16.214 -0.0826  0.4349  0.0882
  384W        W43296  21.961   5.508  17.592 -0.0543 -0.1917 -0.0705
  385W        W43297  28.329   4.678  18.680 -0.0886 -0.2214 -0.0324
  386W        W43298  22.691   7.561  19.419  0.0386 -0.0008  0.0614
  387W        W43299  24.883   7.338  15.977 -0.1829  0.1248 -0.1226
  388W        W43300  21.724   3.622  17.260  0.0539  0.2312 -0.0077
  389W        W43301  23.760   4.185  16.968 -0.1536 -0.0729 -0.0515
  390W        W43302  24.893   3.498  19.221 -0.0916  0.2391 -0.2745
  391W        W43303  22.121   7.207  15.367  0.0305  0.0700 -0.2852
  392W        W43304  24.563   4.227  18.008  0.2603 -0.0622  0.2740
  393W        W43305  23.306   7.860  15.934 -0.3658  0.3469 -0.1039
  394W        W43306  23.312   6.114  19.484 -0.1282 -0.3570 -0.0850
  395W        W43307  21.891   5.452  18.117  0.3869 -0.2633 -0.1765
  396W        W43308  22.593   3.613  17.997 -0.0214  0.0963 -0.0460
  397W        W43309  26.393   4.797  18.026 -0.0825  0.1890  0.0321
  398W        W43310  23.969   4.619  20.361  0.0630 -0.0643  0.2456
  399W        W43311  26.224   5.709  20.146 -0.0258  0.0447  0.1646
  400W        W43312  24.368   4.896  17.376  0.1472  0.1876 -0.1841
  401W        W43313  24.777   5.137  16.843 -0.2048  0.0909  0.0024
  402W        W43314  23.580   6.286  19.063 -0.1687  0.0111  0.3272
  403W        W43315  23.202   4.530  18.849 -0.2066 -0.0787  0.0995
  404W        W43316  23.816   3.827  15.800  0.1785 -0.2547  0.3365
  405W        W43317  22.783   6.464  19.186 -0.0079 -0.1415  0.2323
  406W        W43318  23.692   4.665  15.534 -0.0307  0.2937  0.3336
  407W        W43319  24.024   5.952  20.130 -0.0774  0.0624  0.1264
  408W        W43320  23.970   5.540  16.520 -0.0901 -0.2024 -0.0076
  409W        W43321  23.527   3.717  16.634 -0.0386 -0.5548  0.1143
  410W        W43322  22.614   4.323  16.680 -0.1925 -0.0662 -0.0408
  411W        W43323  24.041   4.109  18.956 -0.0680 -0.1185 -0.2648
  412W        W43324  24.077   6.049  18.851 -0.0868  0.2970 -0.0636
  413W        W43325  21.870   3.644  18.730 -0.2419  0.3692  0.1472
  414W        W43326  24.189   7.011  16.503 -0.0184  0.0873  0.2157
  415W        W43327  25.931   5.238  16.945  0.2867 -0.0364 -0.0907
  416W        W43328  24.295   6.005  16.327 -0.1226  0.1845 -0.1723
  417W        W43329  24.922   4.870  16.083 -0.2320 -0.0227 -0.1261
  418W        W43330  25.293   6.250  18.209 -0.1634  0.5265  0.0848
  419W        W43331  22.851   4.161  19.323  0.2567  0.0202 -0.2682
  420W        W43332  23.946   6.461  18.471  0.1081  0.1549 -0.1513
  421W        W43333  25.636   5.687  16.996  0.0097 -0.0335  0.3068
  422W        W43334  22.411   2.748  17.292  0.2240 -0.1195 -0.1312
  423W        W43335  24.308   5.253  16.764  0.1918  0.1059  0.2390
  424W        W43336  23.019   7.498  16.296  0.0623 -0.1370 -0.0253
  425W        W43337  25.216   4.566  17.559 -0.1589  0.3730 -0.1073
  426W        W43338  25.680   3.635  17.212 -0.4225  0.0263  0.2144
  427W        W43339  22.281   5.268  16.237  0.1260  0.1673 -0.0420
  428W        W43340  24.189   3.229  20.782  0.2780 -0.0095  0.1663
  429W        W43341  25.353   5.987  17.275  0.0421 -0.1822 -0.0583
  430W        W43342  22.503   7.013  20.655 -0.0044  0.0477 -0.1360
  431W        W43343  22.573   4.406  15.839  0.1396 -0.1225  0.1364
  432W        W43344  23.304   5.812  20.714 -0.2561  0.0087  0.1074
  433W        W43345  22.659   6.646  16.432 -0.1005 -0.2329  0.3358
  434W        W43346  23.068   6.916  15.476 -0.1289 -0.2710 -0.1765
  435W        W43347  26.487   6.771  17.251  0.0021  0.3563 -0.0829
  436W        W43348  23.501   3.249  17.997  0.4243 -0.1230 -0.1323
  437W        W43349  26.102   6.691  17.563  0.1625 -0.0387 -0.2225
  438W        W43350  23.622   5.061  18.554 -0.0043 -0.1828  0.3304
  439W        W43351  25.499   3.930  16.404 -0.0611  0.1757  0.0838
  440W        W43352  24.446   4.317  16.644 -0.0565  0.1258  0.0043
  441W        W43353  23.811   4.874  17.595 -0.3153 -0.1730  0.2516
  442W        W43354  21.595   6.275  15.298 -0.1964  0.0386  0.1106
  443W        W43355  23.225   4.594  15.938  0.1335 -0.2080 -0.1361
  444W        W43356  21.763   6.625  17.132 -0.2107 -0.1026  0.1066
  445W        W43357  23.957   3.264  18.872  0.1403 -0.2189  0.0682
  446W        W43358  22.244   4.876  20.033 -0.3538  0.2830 -0.1967
  447W        W43359  23.115   6.068  16.952  0.3305  0.1183  0.3090
  448W        W43360  21.390   3.837  16.746  0.2357 -0.0236 -0.2200
  449W        W43361  25.483   7.223  16.619  0.3998  0.0017  0.0188
  450W        W43362  22.842   3.682  19.458  0.0109 -0.0587  0.3815
  451W        W43363  22.196   4.113  19.643  0.0270  0.0114 -0.1533
  452W        W43364  24.544   5.799  15.574  0.1350 -0.0914  0.0212
  453W        W43365  25.352   5.903  17.807  0.0834  0.0310  0.2752
  454W        W43366  24.951   5.706  18.768 -0.0559 -0.1965  0.0494
  455W        W43367  24.874   6.674  19.902 -0.0283 -0.2203  0.0237
  456W        W43368  22.792   6.114  15.162 -0.4443 -0.0664  0.0066
  457W        W43369  23.731   4.487  19.167 -0.0334  0.0566  0.0374
  458W        W43370  23.583   3.029  19.204 -0.0215  0.0594 -0.4589
  459W        W43371  21.538   3.599  16.347  0.2147 -0.1027 -0.2164
  460W        W43372  25.007   4.110  17.759 -0.2444 -0.2872  0.0324
  461W        W43373  24.151   6.101  17.890 -0.3951 -0.2475  0.1040
  462W        W43374  23.986   6.591  16.606 -0.0555 -0.2181  0.0580
  463W        W43375  23.254   5.294  18.911  0.2098  0.1609  0.3173
  464W        W43376  23.097   6.403  18.840 -0.1196 -0.1948  0.2554
  465W        W43377  22.692   3.113  20.368 -0.0446 -0.0671  0.1692
  466W        W43378  25.327   7.642  16.914 -0.2535 -0.0246 -0.2144
  467W        W43379  23.555   5.001  19.153 -0.0112 -0.1458  0.0704
  468W        W43380  25.657   5.879  15.805  0.1207 -0.0137  0.1636
  469W        W43381  25.212   5.132  17.545 -0.1122  0.2438  0.1076
  470W        W43382  24.529   6.204  17.651  0.0555  0.2783  0.1394
  471W        W43383  23.608   4.757  19.626 -0.0229 -0.1396  0.1354
  472W        W43384  21.330   4.999  19.211  0.0095  0.0873 -0.1279
  473W        W43385  26.376   6.686  19.288 -0.1234  0.0034 -0.2306
  474W        W43386  23.306   2.512  17.409 -0.0594 -0.2557 -0.1959
  475W        W43387  24.859   4.147  16.488 -0.1853 -0.1108 -0.1793
  476W        W43388  24.195   6.967  17.441 -0.1844  0.3036  0.3802
  477W        W43389  23.060   4.935  18.531 -0.0605  0.0274  0.1266
  478W        W43390  24.006   4.698  17.044  0.1328 -0.0710  0.0457
  479W        W43391  25.553   5.139  18.512  0.0949  0.0483 -0.1083
  480W        W43392  24.377   6.544  17.210 -0.1469  0.1655 -0.0330
  481W        W43393  25.313   6.536  17.484  0.2315  0.1446  0.0035
  482W        W43394  24.112   3.960  16.669 -0.1806 -0.1345 -0.1391
  483W        W43395  26.256   5.985  16.019 -0.1375 -0.0399 -0.2827
  484W        W43396  24.881   7.574  20.014 -0.0278  0.1803  0.0981
  485W        W43397  25.928   6.422  20.839 -0.0187 -0.1501 -0.1191
  486W        W43398  23.145   6.344  17.836  0.2595  0.0952  0.1893
  487W        W43399  26.166   5.184  19.964  0.0316 -0.1547  0.0315
  488W        W43400  22.365   3.257  18.691  0.0454 -0.0767 -0.2862
  489W        W43401  23.050   5.529  17.204  0.1972 -0.0527 -0.1045
  490W        W43402  23.109   5.265  18.104  0.0891  0.1481  0.0661
  491W        W43403  25.062   5.715  19.513 -0.1629 -0.1374  0.3350
  492W        W43404  22.714   4.737  17.691  0.0256 -0.2582 -0.0571
  493W        W43405  24.254   4.529  18.280 -0.2457 -0.0631 -0.2375
  494W        W43406  22.220   8.142  20.231 -0.2739 -0.1799  0.1223
  495W        W43407  24.553   5.754  17.820 -0.1482  0.2112  0.1123
  496W        W43408  23.582   5.797  22.275 -0.1954  0.0768  0.0257
  497W        W43409  23.417   4.426  21.012  0.2863 -0.0203  0.2451
  498W        W43410  23.992   5.357  19.057 -0.0009  0.1154 -0.1001
  499W        W43411  24.957   4.999  20.032  0.2821  0.1391 -0.0699
  500W        W43412  22.032   5.346  20.471  0.1730 -0.0690 -0.1316
  501W        W43413  25.150   5.966  20.732  0.3364  0.3269  0.1263
  502W        W43414  22.027   5.558  23.170  0.0106 -0.1207 -0.0447
  503W        W43415  24.055   6.875  21.967  0.0751 -0.0175 -0.1313
  504W        W43416  23.632   7.659  22.477 -0.4261  0.1746  0.0733
  505W        W43417  24.139   6.331  19.671 -0.0530  0.0113  0.2088
  506W        W43418  23.516   4.387  23.128 -0.1209  0.2429 -0.1964
  507W        W43419  22.894   6.124  21.929 -0.0743 -0.0689 -0.0245
  508W        W43420  23.099   3.193  21.086  0.0168 -0.0044 -0.0470
  509W        W43421  21.637   3.423  22.436 -0.0126  0.3462 -0.0158
  510W        W43422  24.236   5.160  21.218 -0.1492  0.0461  0.3921
  511W        W43423  23.267   3.333  20.579  0.0941 -0.1333 -0.1824
  512W        W43424  21.927   3.625  23.226  0.1951 -0.0991 -0.2085
  513W        W43425  22.464   2.987  21.373  0.0326 -0.2691 -0.1007
  514W        W43426  24.068   6.526  21.303  0.0043 -0.0311  0.0892
  515W        W43427  23.174   4.734  23.003  0.0817  0.4111  0.1708
  516W        W43428  22.822   3.672  24.791  0.0267  0.2599 -0.1967
  517W        W43429  22.277   6.643  20.298 -0.1156  0.1668 -0.1234
  518W        W43430  21.621   4.858  19.561 -0.0572  0.3645  0.1072
  519W        W43431  21.812   4.178  23.193  0.1697 -0.0237 -0.0832
  520W        W43432  22.422   6.004  22.515  0.0724  0.3258 -0.3194
  521W        W43433  23.843   4.266  23.511  0.0516 -0.0845  0.0723
  522W        W43434  26.108   3.179  20.789 -0.0116  0.0827  0.0292
  523W        W43435  23.776   5.728  20.474  0.0477 -0.0828  0.0777
  524W        W43436  21.929   6.340  22.195 -0.0768 -0.1953 -0.0611
  525W        W43437  24.442   4.759  21.642  0.1444  0.1697 -0.1837
  526W        W43438  21.378   4.449  22.162 -0.0783 -0.1368 -0.0521
  527W        W43439  22.124   7.966  22.194  0.0651 -0.0795 -0.0357
  528W        W43440  22.587   6.156  21.485 -0.3250 -0.1884 -0.2453
  529W        W43441  26.833   6.447  20.154 -0.1010 -0.1946  0.0914
  530W        W43442  25.293   7.611  23.057  0.1270 -0.3892  0.1181
  531W        W43443  22.317   7.506  23.737  0.1897  0.0994  0.0583
  532W        W43444  22.062   5.800  20.108 -0.3727  0.1080  0.0611
  533W        W43445  24.210   7.007  23.054  0.2274 -0.0652  0.5664
  534W        W43446  23.117   5.933  22.328  0.1783  0.2762  0.1759
  535W        W43447  23.859   5.861  21.867  0.1575  0.1396 -0.0045
  536W        W43448  24.324   4.147  20.038 -0.4058 -0.1459  0.0829
  537W        W43449  23.942   4.709  21.434  0.0181 -0.0741  0.2638
  538W        W43450  24.144   5.498  19.923 -0.2881  0.3021  0.1203
  539W        W43451  23.510   6.698  23.642 -0.0340 -0.1705  0.4163
  540W        W43452  22.169   5.938  21.260 -0.0402 -0.1981 -0.2188
  541W        W43453  23.507   4.989  23.951 -0.1229  0.0380 -0.0357
  542W        W43454  21.802   6.454  20.535  0.0389 -0.0392 -0.0027
  543W        W43455  24.801   4.391  20.174 -0.1311  0.1814  0.4292
  544W        W43456  23.736   3.709  19.838 -0.0077 -0.1822 -0.1394
  545W        W43457  24.016   4.500  19.766 -0.1501  0.0612 -0.2364
  546W        W43458  23.510   3.581  22.622  0.1068  0.1710 -0.0297
  547W        W43459  21.857   6.099  22.662  0.0306  0.0893  0.1272
  548W        W43460  23.109   4.012  22.949 -0.1806 -0.0210  0.0530
  549W        W43461  24.861   4.734  23.411 -0.0407 -0.5677 -0.0939
  550W        W43462  22.956   4.724  21.994  0.1079  0.0542  0.0811
  551W        W43463  22.573   4.559  22.352 -0.1111  0.1562  0.1961
  552W        W43464  22.909   6.615  22.824  0.1325  0.0926  0.1349
  553W        W43465  21.807   5.145  21.253  0.0424 -0.2591  0.0147
  554W        W43466  24.731   6.119  19.785 -0.0768 -0.1064  0.0572
  555W        W43467  24.666   5.251  21.442 -0.2324 -0.0333  0.1721
  556W        W43468  25.075   6.553  21.179  0.1332 -0.0324  0.1283
  557W        W43469  22.290   4.239  21.411 -0.0266  0.2113 -0.1090
  558W        W43470  21.274   6.467  23.393  0.0975 -0.0473  0.1607
  559W        W43471  22.066   4.544  22.912 -0.0581  0.4288 -0.2224
  560W        W43472  22.333   4.378  19.186 -0.0466  0.1208 -0.0857
  561W        W43473  24.938   6.612  23.790  0.2082 -0.1833 -0.1072
  562W        W43474  22.638   6.567  21.928  0.1814  0.0444  0.2222
  563W        W43475  26.543   4.322  21.612 -0.1359  0.3204  0.0235
  564W        W43476  22.562   5.658  22.226 -0.2547 -0.0562  0.0936
  565W        W43477  25.893   5.933  22.040  0.1561 -0.0125  0.0146
  566W        W43478  24.326   6.330  20.294  0.1743 -0.1144 -0.0654
  567W        W43479  25.480   3.445  21.404 -0.1506  0.2764  0.1677
  568W        W43480  23.762   3.799  21.580 -0.2940  0.0365 -0.0550
  569W        W43481  22.481   5.616  20.935 -0.1572 -0.0310  0.2071
  570W        W43482  22.483   5.108  20.391  0.2029  0.1688 -0.0490
  571W        W43483  25.490   5.561  22.193  0.0671  0.0930  0.0582
  572W        W43484  25.940   6.067  19.880 -0.1277 -0.1427 -0.0245
  573W        W43485  21.386   5.167  22.809  0.2843  0.2906  0.3011
  574W        W43486  23.384   4.048  23.499 -0.1246  0.1637 -0.2062
  575W        W43487  23.449   4.039  24.029 -0.2640 -0.0088 -0.1379
  576W        W43488  22.543   6.559  19.682  0.1219  0.1446 -0.2961
  577W        W43489  20.655   5.642  21.849  0.0242 -0.0817  0.1878
  578W        W43490  22.195   5.475  21.840  0.0095 -0.0168  0.0285
  579W        W43491  20.544   3.932  22.594 -0.7331 -0.0390 -0.0290
  580W        W43492  23.270   5.321  21.588 -0.1712 -0.3798  0.0878
  581W        W43493  24.570   3.536  21.166  0.1352  0.0000  0.1123
  582W        W43494  22.310   2.775  24.240 -0.2089 -0.2998 -0.2474
  583W        W43495  24.592   2.968  20.505  0.2324  0.0027  0.2917
  584W        W43496  23.242   6.601  20.110  0.0797 -0.2256 -0.2548
  585W        W43497  26.326   6.221  21.039 -0.0088 -0.1563 -0.0178
  586W        W43498  23.486   4.026  20.655  0.0841  0.1301  0.0120
  587W        W43499  23.784   6.745  20.742 -0.1168  0.0428  0.2326
  588W        W43500  21.240   5.379  24.750  0.2463  0.2053  0.0102
  589W        W43501  22.632   5.296  22.497 -0.1656 -0.0187 -0.0132
  590W        W43502  22.283   3.898  23.009  0.0494  0.2023  0.2234
  591W        W43503  21.500   4.675  23.079  0.1743 -0.0845  0.0680
  592W        W43504  23.991   4.756  23.140 -0.1403  0.2262  0.0242
  593W        W43505  22.178   3.694  20.273  0.2355  0.0615 -0.2387
  594W        W43506  23.842   4.636  20.875 -0.0456  0.1499 -0.0448
  595W        W43507  22.994   5.470  20.210 -0.0402 -0.1751  0.2215
  596W        W43508  22.330   6.111  20.441 -0.0079 -0.1938  0.0451
  597W        W43509  24.793   4.965  22.857 -0.1448  0.0716  0.0340
  598W        W43510  24.232   6.153  21.040  0.0486  0.3934 -0.0137
  599W        W43511  24.900   8.202  23.780 -0.3303  0.1737  0.0619
  600W        W43512  23.815   6.512  20.188 -0.0381  0.2386  0.2304
  601W        W43513  22.231   3.348  22.925 -0.0752 -0.1894 -0.2214
  602W        W43514  22.293   3.605  21.272  0.2686  0.3517 -0.0052
  603W        W43515  22.999   8.395  22.456  0.1046 -0.0198  0.0622
  604W        W43516  23.032   5.662  21.854 -0.2062 -0.1148 -0.1636
  605W        W43517  21.786   2.947  21.113 -0.1764 -0.0224 -0.1562
  606W        W43518  23.379   5.268  20.975 -0.0309 -0.1623  0.0872
  607W        W43519  22.854   5.352  20.726  0.4347 -0.0930  0.1423
  608W        W43520  22.873   5.162  23.096  0.1471 -0.0031  0.0861
  609W        W43521  23.015   4.814  21.447 -0.0229  0.4231  0.1490
  610W        W43522  25.254   6.618  22.164  0.1117 -0.2312 -0.1587
  611W        W43523  25.668   4.044  21.574 -0.3466 -0.1689 -0.4608
  612W        W43524  22.879   3.672  20.354  0.1349  0.1277 -0.0442
  613W        W43525  23.056   6.052  21.466 -0.3093 -0.2947 -0.2565
  614W        W43526  21.688   6.263  21.316  0.1140 -0.0744  0.1448
  615W        W43527  22.506   5.006  22.088  0.3487  0.1188  0.1681
  616W        W43528  22.765   4.456  21.288  0.0677  0.2926 -0.0583
  617W        W43529  24.253   3.987  22.630  0.0355 -0.1265  0.1859
  618W        W43530  20.585   4.592  24.255 -0.0381  0.0973  0.1791
  619W        W43531  24.403   5.267  22.958 -0.1226 -0.0575  0.2065
  620W        W43532  23.240   5.197  19.544  0.1205  0.0624 -0.2085
  621W        W43533  23.101   4.934  24.286  0.3661 -0.1723 -0.0199
  622W        W43534  22.546   4.552  21.759 -0.0893 -0.2487  0.1460
  623W        W43535  24.757   5.132  20.950 -0.1152  0.4356 -0.2640
  624W        W43536  23.904   5.724  22.825  0.1592  0.0662  0.0152
  625W        W43537  24.826   5.480  19.917 -0.1621  0.1822  0.0267
  626W        W43538  24.767   4.432  19.250  0.0466 -0.0507  0.0334
  627W        W43539  22.203   4.390  20.969  0.1216  0.0143  0.0433
  628W        W43540  23.050   6.424  23.796 -0.2999  0.0661 -0.2595
  629W        W43541  23.601   6.410  19.740 -0.0851 -0.3721  0.1041
  630W        W43542  22.654   4.549  20.729 -0.1111  0.1410  0.1773
  631W        W43543  22.560   4.051  20.415 -0.2130 -0.1145 -0.1111
  632W        W43544  26.564   4.830  20.450  0.2493  0.0588 -0.3013
  633W        W43545  21.090   4.294  22.570  0.0154  0.0129 -0.1386
  634W        W43546  23.833   7.081  23.683 -0.1601 -0.0377  0.1738
  635W        W43547  24.762   5.565  20.783 -0.2515 -0.0322 -0.0989
  636W        W43548  22.083   2.600  23.405 -0.5150 -0.0525 -0.1306
  637W        W43549  23.046   3.930  21.318  0.0545  0.3377  0.1313
  638W        W43550  23.524   4.893  21.269 -0.2488 -0.2334 -0.1173
  639W        W43551  21.618   8.168  21.496 -0.1981 -0.0539  0.0283
  640W        W43552  23.913   4.871  22.243  0.2771  0.0198  0.3315
  641W        W43553  23.613   3.623  22.030  0.1796  0.0526 -0.1781
  642W        W43554  23.011   3.741  22.440  0.2401 -0.2794  0.2034
  643W        W43555  25.447   6.653  23.976 -0.1945  0.1737  0.1128
  644W        W43556  24.978   3.460  22.091 -0.4333  0.2157 -0.0223
  645W        W43557  23.451   4.921  21.788  0.3896 -0.0324  0.1594
  646W        W43558  21.953   5.246  19.650  0.2340  0.0110 -0.1866
  647W        W43559  24.035   4.277  24.928 -0.0540  0.1262 -0.0948
  648W        W43560  23.363   5.991  22.825  0.2204  0.3441 -0.2438
  649W        W43561  22.564   6.090  23.471  0.0571  0.0070  0.1288
  650W        W43562  24.407   6.579  23.109 -0.0235 -0.3616 -0.0497
  651W        W43563  23.940   5.201  20.294  0.0300  0.1240  0.2763
  652W        W43564  23.377   4.523  23.629 -0.2204  0.1790 -0.1837
  653W        W43565  24.245   3.595  19.847 -0.2912  0.5029 -0.0595
  654W        W43566  23.881   5.977  18.290  0.0481  0.1252  0.3143
  655W        W43567  23.355   5.342  20.461  0.0129 -0.0198 -0.2127
  656W        W43568  22.797   3.207  21.818  0.0044  0.1003 -0.1237
  657W        W43569  22.782   6.631  21.396 -0.2174  0.0479  0.1380
  658W        W43570  23.177   5.937  18.866 -0.4632 -0.2155 -0.0994
  659W        W43571  23.629   5.371  21.959 -0.1879 -0.1755  0.2089
  660W        W43572  21.851   6.922  21.449  0.1597 -0.0442 -0.1177
  661W        W43573  24.058   3.005  22.007 -0.0452  0.1948  0.0417
  662W        W43574  21.958   6.085  21.685  0.2792  0.1019 -0.1007
  663W        W43575  23.123   4.749  19.360  0.4448  0.4197 -0.2103
  664W        W43576  21.533   3.307  21.467  0.1342  0.1629 -0.0370
  665W        W43577  24.653   4.138  21.478 -0.0817  0.1356  0.1084
  666W        W43578  25.269   4.422  19.178  0.2615  0.1244  0.2837
  667W        W43579  22.673   4.512  22.914  0.0950 -0.0143  0.1934
  668W        W43580  22.195   4.234  22.551 -0.2214  0.1588 -0.1989
  669W        W43581  20.837   6.205  22.379 -0.1851  0.2766 -0.1104
  670W        W43582  23.669   5.295  22.456  0.1165  0.0181  0.2178
  671W        W43583  23.790   3.358  20.192 -0.2009  0.0855 -0.2523
  672W        W43584  25.024   7.690  22.620 -0.3552  0.1923 -0.0583
  673W        W43585  23.766   5.324  23.520 -0.3697  0.3251  0.1055
  674W        W43586  21.874   3.954  19.947 -0.0854 -0.2361 -0.4270
  675W        W43587  24.699   3.441  20.709 -0.2162  0.0091  0.0171
  676W        W43588  23.521   4.463  21.537  0.1194 -0.0125  0.0696
  677W        W43589  21.101   5.898  20.114 -0.0587  0.0528  0.1461
  678W        W43590  23.444   5.929  24.226  0.2889 -0.2762  0.1632
  679W        W43591  22.736   5.037  19.994 -0.0042 -0.1540 -0.1716
  680W        W43592  23.455   5.716  21.250  0.0020  0.3044  0.1466
  681W        W43593  23.196   4.409  22.648  0.3041  0.1343 -0.1472
  682W        W43594  23.909   4.435  22.448 -0.5627 -0.0581  0.0691
  683W        W43595  21.868   3.716  21.471 -0.1179  0.3309  0.3942
  684W        W43596  21.467   4.100  20.283 -0.0109 -0.3052 -0.2766
  685W        W43597  22.919   4.890  22.600  0.0944 -0.0503 -0.1141
  686W        W43598  24.704   7.027  22.243  0.0391 -0.0825 -0.0296
  687W        W43599  24.019   5.140  21.753 -0.0699  0.1242 -0.3088
  688W        W43600  22.464   6.752  22.959  0.2051  0.1331 -0.1672
  689W        W43601  22.209   3.227  22.436 -0.2742 -0.3309 -0.1856
  690W        W43602  25.276   7.453  21.126 -0.0342 -0.0706  0.0795
  691W        W43603  24.071   4.245  24.028 -0.0208 -0.3370 -0.0056
  692W        W43604  21.713   5.740  21.451  0.0861 -0.0587  0.1359
  693W        W43605  21.561   5.960  21.968 -0.2001  0.1996  0.2418
  694W        W43606  22.911   5.789  21.052  0.0879  0.2854  0.0892
  695W        W43607  22.026   5.009  21.886 -0.0077  0.0787 -0.1172
  696W        W43608  23.450   6.261  22.207 -0.1160 -0.2702 -0.0463
  697W        W43609  22.076   6.652  19.878  0.1085  0.0510 -0.2347
  698W        W43610  24.220   4.892  22.641 -0.0104  0.0565  0.1458
  699W        W43611  25.082   3.178  20.548 -0.2367 -0.2164 -0.2708
  700W        W43612  24.265   5.409  20.635  0.0078  0.0553 -0.2431
  701W        W43613  24.453   4.040  20.992  0.1882 -0.2240  0.1246
  702W        W43614  24.999   4.255  23.321  0.0754 -0.0845 -0.3402
  703W        W43615  24.053   4.949  19.508  0.2407 -0.1243 -0.1524
  704W        W43616  23.823   3.696  24.203 -0.0624  0.0901  0.2541
  705W        W43617  23.544   4.931  23.287 -0.1029 -0.3548 -0.0009
  706W        W43618  25.396   5.642  22.841  0.1189 -0.1103 -0.0398
  707W        W43619  22.730   4.767  23.340 -0.1184 -0.0011  0.0488
  708W        W43620  24.081   8.790  24.295 -0.0217  0.0578  0.0960
  709W        W43621  23.052   5.878  24.523 -0.0725 -0.3965  0.2529
  710W        W43622  24.029   4.250  23.009 -0.2337  0.2106  0.3208
  711W        W43623  22.250   3.070  20.116  0.1515 -0.1634  0.0830
  712W        W43624  22.899   4.704  23.819  0.0079 -0.0601  0.0089
  713W        W43625  25.724   4.985  23.048 -0.2323  0.2214  0.0450
  714W        W43626  23.767   5.378  19.550 -0.0345  0.0218 -0.0680
  715W        W43627  24.907   4.653  21.362  0.0849  0.2289 -0.1908
  716W        W43628  22.578   6.240  23.012  0.2018  0.2087 -0.0610
  717W        W43629  24.202   4.877  19.985  0.0705  0.3329  0.2356
  718W        W43630  23.382   6.971  19.744  0.0007  0.1323 -0.0935
  719W        W43631  23.558   4.889  20.494 -0.0958 -0.1342  0.1161
  720W        W43632  22.334   3.310  21.849 -0.0308 -0.0616  0.1612
  721W        W43633  24.032   4.596  21.863  0.0279  0.0546 -0.0209
  722W        W43634  23.919   4.146  21.941  0.0978  0.3645 -0.0566
  723W        W43635  22.251   4.998  24.615  0.0250 -0.0473 -0.4436
  724W        W43636  24.379   4.778  22.156 -0.3487 -0.3553 -0.1880
  725W        W43637  23.354   5.598  23.800 -0.0444  0.3340  0.1189
  726W        W43638  22.337   5.844  24.013 -0.0617 -0.1871  0.0191
  727W        W43639  24.344   7.010  23.614 -0.0816  0.1003 -0.1536
  728W        W43640  24.264   3.650  18.986  0.1385 -0.0659  0.0443
  729W        W43641  25.740   4.490  22.902 -0.2818  0.1227  0.2853
  730W        W43642  25.601   7.039  20.126 -0.0399  0.1099  0.0912
  731W        W43643  22.963   4.022  20.699  0.3505 -0.0538 -0.0687
  732W        W43644  21.574   5.684  22.796 -0.4596 -0.1204  0.1699
  733W        W43645  24.928   5.490  22.776 -0.0615  0.1300  0.3131
  734W        W43646  24.020   4.118  20.781 -0.0341  0.0281 -0.2406
  735W        W43647  23.036   5.594  22.781  0.2515 -0.1100  0.0966
  736W        W43648  23.097   6.094  19.966 -0.0021 -0.0591  0.3656
  737W        W43649  25.079   5.511  21.148 -0.2035 -0.3395  0.0312
  738W        W43650  23.090   4.867  20.860  0.1437  0.2372  0.1480
  739W        W43651  21.667   4.896  22.476  0.0257  0.1735 -0.1319
  740W        W43652  22.902   7.035  23.086 -0.0379  0.0267  0.1026
  741W        W43653  22.936   5.293  21.238 -0.0707  0.0969 -0.1862
  742W        W43654  23.181   4.449  20.554  0.1356  0.1120  0.1341
  743W        W43655  23.393   6.037  21.782 -0.1029  0.0045 -0.0242
  744W        W43656  24.473   6.659  24.042  0.2489 -0.0272  0.0878
  745W        W43657  23.852   3.459  19.430  0.2124 -0.0724 -0.0739
  746W        W43658  24.845   5.048  21.955  0.0109 -0.1416  0.0907
  747W        W43659  21.714   5.483  21.853  0.1706 -0.0674  0.0072
  748W        W43660  23.890   3.758  22.392  0.0197 -0.1256 -0.2858
  749W        W43661  22.521   7.031  22.107  0.1300  0.1735  0.1645
  750W        W43662  21.047   5.480  24.236 -0.4741 -0.0558  0.0771
  751W        W43663  22.427   5.008  22.876 -0.1847  0.0412  0.2316
  752W        W43664  22.687   4.102  22.635 -0.0364  0.1200 -0.1617
  753W        W43665  24.494   3.997  23.955 -0.0593  0.2862 -0.0307
  754W        W43666  23.731   5.335  21.421  0.2091 -0.3203 -0.2065
  755W        W43667  24.264   5.855  23.738  0.0421 -0.0512 -0.1365
  756W        W43668  24.338   6.215  22.644  0.0733 -0.2136  0.2803
  757W        W43669  23.377   3.102  21.904 -0.1974 -0.2955 -0.0304
  758W        W43670  23.859   6.653  22.914 -0.0610 -0.0565  0.2238
  759W        W43671  25.908   5.573  21.036 -0.4279 -0.3838 -0.0290
  760W        W43672  20.902   4.647  22.904  0.1030 -0.2400 -0.1908
  761W        W43673  22.734   4.191  24.755  0.1823 -0.0847  0.0006
  762W        W43674  24.916   5.921  24.442 -0.1169  0.2046 -0.2310
  763W        W43675  24.665   5.202  23.824 -0.0165 -0.0309 -0.1170
  764W        W43676  21.612   2.781  22.219  0.2057  0.1359 -0.1786
  765W        W43677  23.512   6.089  20.205  0.1940 -0.2593 -0.2587
  766W        W43678  22.971   6.903  23.701  0.2856  0.1401 -0.1357
  767W        W43679  22.364   4.357  23.305 -0.1401 -0.1232 -0.0490
  768W        W43680  21.527   7.904  19.682  0.0132  0.0983 -0.1640
  769W        W43681  25.415   5.902  19.992  0.1758  0.2814 -0.0015
  770W        W43682  24.399   5.664  21.070  0.0737  0.3777  0.2119
  771W        W43683  21.997   6.479  22.882 -0.1930  0.3164  0.2651
  772W        W43684  23.937   3.932  20.232 -0.4802 -0.1224 -0.0408
  773W        W43685  22.557   5.739  22.986 -0.3758  0.2916  0.0388
  774W        W43686  21.769   7.319  20.357 -0.1683 -0.2638 -0.5023
  775W        W43687  24.304   6.613  20.790  0.0131 -0.0966  0.1014
  776W        W43688  21.682   6.654  21.875 -0.1621  0.1505  0.3288
  777W        W43689  24.877   5.576  22.090  0.1311 -0.1122 -0.1265
  778W        W43690  25.215   3.376  20.085  0.1069  0.0273 -0.1308
  779W        W43691  23.866   5.157  20.797 -0.1982 -0.1724  0.1282
  780W        W43692  24.299   5.414  19.464 -0.1256  0.0697  0.1087
  781W        W43693  25.229   7.067  23.805 -0.1628  0.2674  0.2709
  782W        W43694  22.869   6.046  22.717  0.2309 -0.1978 -0.3758
  783W        W43695  24.526   4.538  19.709  0.1070 -0.3107 -0.2357
  784W        W43696  21.577   5.476  24.280  0.0269  0.1768  0.1851
  785W        W43697  24.927   3.268  23.069 -0.3337 -0.1141  0.3831
  786W        W43698  22.342   6.510  22.356  0.0169  0.0309 -0.1395
  787W        W43699  25.784   5.526  19.963  0.1226  0.1088 -0.1341
  788W        W43700  21.054   5.816  21.050  0.3456 -0.0918 -0.0532
  789W        W43701  23.210   5.430  22.379  0.0774 -0.2504 -0.1996
  790W        W43702  23.677   4.519  24.075  0.0541  0.0814  0.1074
  791W        W43703  22.788   6.093  19.532 -0.2059  0.1874  0.4804
  792W        W43704  23.616   3.774  23.133  0.0971  0.0336 -0.1684
  793W        W43705  23.057   6.522  19.635 -0.0212  0.1703 -0.0182
  794W        W43706  22.515   7.126  21.143  0.0086  0.0654 -0.0979
  795W        W43707  22.890   6.975  22.462  0.1517  0.3020 -0.2292
  796W        W43708  21.872   4.462  19.999 -0.1841 -0.1083  0.2398
  797W        W43709  25.559   7.070  22.079  0.2638 -0.3234  0.1488
  798W        W43710  22.385   4.694  23.740  0.0354  0.0516  0.1375
  799W        W43711  24.525   3.612  24.251  0.4147 -0.3518  0.1405
  800W        W43712  21.802   4.759  20.939 -0.0011  0.4359  0.2433
  801W        W43713  25.037   4.595  19.674 -0.1040 -0.2552  0.2314
  802W        W43714  23.905   4.733  23.657  0.0596  0.0311  0.0059
  803W        W43715  23.019   4.214  23.856  0.1924 -0.1451 -0.1852
  804W        W43716  23.790   4.011  19.404 -0.2609 -0.0407  0.0792
  805W        W43717  24.272   6.892  22.467 -0.1181 -0.0348  0.0127
  806W        W43718  24.582   5.033  19.636 -0.1428  0.1187 -0.0968
  807W        W43719  25.096   6.857  24.232 -0.2245 -0.0922  0.0917
  808W        W43720  22.332   3.763  22.549 -0.3072  0.0995 -0.2004
  809W        W43721  24.074   3.689  21.097 -0.0019 -0.0781 -0.2206
  810W        W43722  22.613   4.921  21.080  0.1536 -0.2792 -0.2926
  811W        W43723  24.428   6.394  23.577  0.0537  0.0168 -0.0786
  812W        W43724  24.055   8.128  22.948  0.0315 -0.2369  0.1858
  813W        W43725  23.111   3.709  19.876  0.0472 -0.1622  0.1070
  814W        W43726  25.009   7.107  20.048  0.0112 -0.1843  0.1046
  815W        W43727  24.837   4.448  20.937 -0.1186  0.0730 -0.0015
  816W        W43728  21.939   6.391  19.039  0.2020  0.0988  0.0839
  817W        W43729  24.730   4.740  20.474  0.1985  0.0712 -0.0235
  818W        W43730  23.702   7.315  22.044  0.1634  0.1259  0.2477
  819W        W43731  23.490   5.877  23.376 -0.1259  0.2342  0.1340
  820W        W43732  23.987   7.401  22.920 -0.3528 -0.0403  0.2742
  821W        W43733  25.503   7.950  23.379 -0.1934  0.1378  0.0356
  822W        W43734  23.646   3.256  21.065  0.0147  0.0173 -0.0182
  823W        W43735  22.609   5.096  21.575 -0.0432  0.1825 -0.4835
  824W        W43736  22.187   6.638  21.855 -0.0303  0.0718 -0.0305
  825W        W43737  24.628   5.244  22.479 -0.0416 -0.0398  0.0852
  826W        W43738  23.654   4.104  22.711 -0.1828  0.0355  0.0948
  827W        W43739  24.663   7.145  19.672 -0.2172  0.0938  0.1777
  828W        W43740  24.263   3.630  23.792  0.1006  0.0706  0.0993
  829W        W43741  23.897   6.215  23.637  0.0451  0.1150  0.2122
  830W        W43742  23.322   7.133  23.382  0.1045  0.1244 -0.1476
  831W        W43743  22.892   5.950  20.440 -0.2864  0.3167  0.0579
  832W        W43744  23.745   7.069  23.189 -0.1854 -0.2699  0.1038
  833W        W43745  23.416   5.657  20.028  0.2193  0.3569  0.0408
  834W        W43746  23.487   7.047  20.346  0.0472 -0.2215 -0.3358
  835W        W43747  24.421   5.374  22.014  0.1438 -0.2304 -0.0609
  836W        W43748  24.385   4.530  21.171 -0.1892  0.1174  0.1152
  837W        W43749  25.149   5.314  20.625 -0.1355  0.0040 -0.3388
  838W        W43750  21.802   2.342  21.955  0.1604  0.1836 -0.1257
  839W        W43751  23.740   3.586  20.700  0.2575  0.0630 -0.3308
  840W        W43752  24.378   3.398  19.383 -0.0380  0.1353  0.0187
  841W        W43753  23.906   5.198  22.918 -0.0642 -0.1892  0.2453
  842W        W43754  21.694   6.829  20.211  0.2183  0.2642 -0.1732
  843W        W43755  22.331   5.337  18.483 -0.1596  0.2251  0.1801
  844W        W43756  21.808   4.473  21.369 -0.2040  0.1002  0.2324
  845W        W43757  22.251   3.691  24.498 -0.1886  0.0062  0.4709
  846W        W43758  22.034   4.324  23.743 -0.0129 -0.1142  0.1363
  847W        W43759  21.519   5.905  21.010  0.3157 -0.0676 -0.3594
  848W        W43760  22.176   3.744  21.996 -0.1503  0.1549  0.1800
  849W        W43761  25.055   3.889  19.379  0.0538  0.0741  0.2458
  850W        W43762  20.684   4.342  20.588  0.0702 -0.4172  0.2333
  851W        W43763  21.056   4.024  22.072 -0.0160  0.1445 -0.0074
  852W        W43764  23.924   5.655  20.972  0.0494 -0.0895 -0.3783
  853W        W43765  25.330   5.332  20.160 -0.0379 -0.1636 -0.3911
  854W        W43766  22.610   3.982  21.085  0.2187  0.2079 -0.3120
  855W        W43767  25.970   5.687  22.513 -0.1663 -0.2039 -0.2758
  856W        W43768  22.330   4.964  18.838 -0.1295 -0.0359 -0.1515
  857W        W43769  22.733   5.077  24.614 -0.1437  0.0440 -0.0473
  858W        W43770  23.499   4.834  25.516  0.3574  0.1221  0.2502
  859W        W43771  22.321   4.333  20.080  0.1760  0.3091  0.0181
  860W        W43772  23.325   5.116  22.775 -0.0144  0.0744 -0.2725
  861W        W43773  23.907   6.188  20.626  0.0662 -0.0998  0.1558
  862W        W43774  24.109   6.876  20.362  0.0137 -0.0907 -0.0499
  863W        W43775  23.516   6.205  21.004 -0.2982 -0.2755  0.0199
  864W        W43776  23.638   7.664  24.093  0.1043  0.1704  0.1628
  865W        W43777  22.406   3.491  23.343  0.2913  0.1004  0.3740
  866W        W43778  24.448   5.997  22.029  0.0041  0.1459  0.1291
  867W        W43779  24.352   6.471  22.107 -0.1758  0.3391  0.2283
  868W        W43780  24.426   5.934  20.631 -0.1435 -0.2031  0.0929
  869W        W43781  25.978   3.364  21.362 -0.1676 -0.1006  0.1377
  870W        W43782  24.306   4.881  20.793 -0.0872 -0.0263 -0.0124
  871W        W43783  22.007   4.322  25.183 -0.1169 -0.2295 -0.0685
  872W        W43784  23.169   5.199  23.514  0.0726 -0.2156 -0.0893
  873W        W43785  24.914   6.403  23.191 -0.0431 -0.0162 -0.1836
  874W        W43786  21.638   2.783  23.246 -0.1523 -0.3527  0.1328
  875W        W43787  23.844   2.151  22.015  0.4018  0.1560  0.0042
  876W        W43788  24.828   6.955  21.387 -0.1335 -0.3624  0.0165
  877W        W43789  21.721   5.144  23.234  0.1766  0.1518  0.1858
  878W        W43790  22.591   3.514  19.960 -0.3631 -0.0206 -0.1956
  879W        W43791  23.514   5.451  23.070  0.0460  0.2072  0.0770
  880W        W43792  24.936   4.709  22.418 -0.1248 -0.2199  0.3504
  881W        W43793  24.550   5.743  22.510 -0.0246 -0.0142 -0.1760
  882W        W43794  23.465   3.753  20.242 -0.0911  0.2022  0.2621
  883W        W43795  26.436   4.912  19.598 -0.1634 -0.1237  0.3865
  884W        W43796  23.503   8.147  22.189 -0.0232  0.0361  0.1849
  885W        W43797  24.461   7.774  23.131 -0.2235 -0.2708 -0.2138
  886W        W43798  24.165   6.149  23.112 -0.0224  0.0278  0.0209
  887W        W43799  26.305   5.508  22.012 -0.1114  0.1641 -0.0130
  888W        W43800  21.445   2.031  24.207 -0.2712 -0.0906 -0.0204
  889W        W43801  22.779   6.588  20.679 -0.2056 -0.2482  0.1982
  890W        W43802  22.212   5.345  21.391  0.1611 -0.0598 -0.0791
  891W        W43803  25.387   4.841  22.681  0.0334  0.2629  0.0717
  892W        W43804  22.617   5.663  21.487  0.0054  0.2325 -0.1405
  893W        W43805  26.360   2.800  20.479 -0.0126  0.0346  0.0089
  894W        W43806  22.227   6.573  21.304  0.5729 -0.3677  0.2000
  895W        W43807  24.057   5.580  22.226 -0.2968  0.1555 -0.1825
  896W        W43808  23.945   5.546  27.134  0.0080  0.0194 -0.0175
  897W        W43809  22.518   5.125  25.063 -0.4517  0.0158  0.1470
  898W        W43810  25.048   3.760  23.148 -0.2531 -0.0853 -0.1768
  899W        W43811  23.949   4.903  24.180  0.0180  0.0386 -0.3652
  900W        W43812  21.340   4.347  24.522 -0.2632 -0.0337  0.1594
  901W        W43813  25.035   7.812  26.214 -0.0515  0.2445  0.2394
  902W        W43814  22.410   3.326  27.916  0.0763 -0.2065  0.0192
  903W        W43815  24.916   7.110  24.863 -0.0680  0.2630  0.4546
  904W        W43816  24.682   7.182  26.785  0.0833 -0.0618 -0.2915
  905W        W43817  24.794   5.277  23.298 -0.1057 -0.1658  0.0508
  906W        W43818  23.790   3.591  25.618  0.1993 -0.1885 -0.0191
  907W        W43819  23.370   5.024  26.879 -0.0184  0.0031  0.1474
  908W        W43820  22.947   4.721  26.297 -0.0116 -0.2552 -0.2042
  909W        W43821  21.150   2.790  26.704  0.0280  0.0941 -0.1904
  910W        W43822  25.604   4.604  26.280  0.1231  0.2905 -0.1189
  911W        W43823  21.435   6.056  25.121 -0.0195  0.1100  0.2043
  912W        W43824  23.517   4.106  25.640  0.2895  0.2832 -0.1655
  913W        W43825  23.739   4.428  25.953  0.2043 -0.1176  0.2204
  914W        W43826  23.827   8.036  24.672  0.2321  0.3814  0.1103
  915W        W43827  23.209   3.946  26.365 -0.1742 -0.1283 -0.1164
  916W        W43828  24.338   3.379  27.275 -0.1616  0.0794 -0.3009
  917W        W43829  24.573   7.031  25.318  0.0427  0.1398 -0.0667
  918W        W43830  20.865   7.405  24.250  0.0684  0.1862  0.1688
  919W        W43831  21.612   4.031  26.033  0.0331  0.1028 -0.1539
  920W        W43832  23.587   3.706  26.512  0.0723  0.0600 -0.4010
  921W        W43833  23.969   3.831  25.176 -0.2187 -0.1934  0.1532
  922W        W43834  24.533   4.964  25.981 -0.1326 -0.0167 -0.1529
  923W        W43835  23.239   5.999  26.768 -0.2015  0.2708 -0.0203
  924W        W43836  24.377   6.421  25.299 -0.2018  0.0914  0.2535
  925W        W43837  25.267   5.890  27.133 -0.0305 -0.5585 -0.3286
  926W        W43838  22.939   4.724  27.001  0.0776  0.1528 -0.0730
  927W        W43839  22.707   6.573  25.341 -0.1844  0.1390 -0.1706
  928W        W43840  23.890   6.615  22.362 -0.3055 -0.1140 -0.5839
  929W        W43841  26.980   7.203  25.633  0.1380  0.0638  0.1724
  930W        W43842  25.513   6.319  26.876 -0.3572  0.3089 -0.1944
  931W        W43843  24.068   8.258  26.683 -0.2398 -0.1474 -0.1598
  932W        W43844  21.228   6.012  24.201  0.1022 -0.0104 -0.3703
  933W        W43845  25.105   6.976  27.533 -0.2447  0.1171  0.2611
  934W        W43846  22.184   5.894  27.446  0.0816 -0.1408  0.1969
  935W        W43847  23.375   5.986  26.239  0.1090 -0.0512 -0.1633
  936W        W43848  24.851   6.571  25.495 -0.0032  0.3138  0.0733
  937W        W43849  23.605   6.943  24.831 -0.0685  0.0550  0.1469
  938W        W43850  25.031   4.513  25.297 -0.1097  0.1653  0.3169
  939W        W43851  23.963   7.010  27.410 -0.1224  0.0044 -0.0835
  940W        W43852  23.465   5.557  26.029 -0.0982 -0.3792  0.1221
  941W        W43853  26.030   4.520  27.170 -0.0530  0.2017 -0.3279
  942W        W43854  21.687   6.849  24.071 -0.1015  0.0142 -0.0139
  943W        W43855  24.833   5.396  24.346  0.0793  0.0312 -0.0680
  944W        W43856  23.025   5.621  23.315 -0.1442  0.1878  0.3001
  945W        W43857  22.663   4.495  24.189  0.5748  0.1613 -0.0542
  946W        W43858  23.250   2.987  25.343  0.1562 -0.0999  0.3366
  947W        W43859  23.287   7.426  26.594  0.3328  0.0708  0.0003
  948W        W43860  24.114   4.751  27.581 -0.3780 -0.0539  0.1503
  949W        W43861  25.252   6.015  26.586  0.2444 -0.0734 -0.3835
  950W        W43862  23.308   6.168  24.918 -0.0551  0.2805  0.1500
  951W        W43863  25.574   5.414  26.721  0.1592  0.2622  0.0084
  952W        W43864  21.730   6.154  25.665  0.0023  0.2064 -0.1830
  953W        W43865  23.407   4.358  26.330  0.1437  0.0763  0.1841
  954W        W43866  25.474   6.126  22.237  0.1221  0.0653  0.2506
  955W        W43867  25.611   5.446  23.263 -0.1042  0.0834 -0.0472
  956W        W43868  24.920   7.660  23.890 -0.2653 -0.1035  0.0193
  957W        W43869  22.594   5.660  25.628  0.0137  0.2353 -0.1189
  958W        W43870  23.437   4.529  26.850  0.1409 -0.1507 -0.0121
  959W        W43871  22.002   4.903  27.660  0.0155  0.1320  0.0355
  960W        W43872  21.911   2.474  24.396  0.0642  0.2563  0.2473
  961W        W43873  25.460   7.240  27.371  0.0807  0.1276 -0.0016
  962W        W43874  23.339   6.119  27.231  0.1664  0.1034  0.0527
  963W        W43875  24.946   4.062  25.055 -0.0599  0.2026  0.0883
  964W        W43876  23.707   6.231  24.484 -0.2356  0.1065 -0.2196
  965W        W43877  24.129   6.644  26.482  0.2094 -0.0717 -0.1672
  966W        W43878  24.751   6.504  24.412  0.1514  0.0165 -0.0847
  967W        W43879  25.241   4.070  26.716  0.3167 -0.3356 -0.0024
  968W        W43880  24.846   3.701  26.012  0.2691 -0.0932 -0.0338
  969W        W43881  21.903   4.978  23.688  0.0078 -0.0852 -0.2420
  970W        W43882  23.484   5.855  25.596  0.0842  0.2079 -0.0187
  971W        W43883  25.613   7.052  26.746  0.0310 -0.0198 -0.2003
  972W        W43884  24.950   4.725  24.023  0.2472 -0.2989 -0.0856
  973W        W43885  21.801   5.590  26.362  0.5646  0.0324 -0.1952
  974W        W43886  23.927   4.255  26.438  0.4390  0.0262  0.1737
  975W        W43887  23.666   5.725  26.740  0.1285  0.2539 -0.5570
  976W        W43888  23.813   8.533  22.544  0.1030  0.0321 -0.0229
  977W        W43889  20.211   5.239  26.289  0.2477 -0.5456 -0.3521
  978W        W43890  23.789   5.644  23.960  0.0686  0.4349 -0.0421
  979W        W43891  23.601   3.101  27.197 -0.1558  0.0483 -0.0314
  980W        W43892  24.234   4.950  27.068  0.0301 -0.1711 -0.1936
  981W        W43893  25.745   4.892  24.490  0.1491  0.0218  0.3676
  982W        W43894  21.805   4.687  25.502  0.1377  0.0860 -0.2967
  983W        W43895  25.838   3.748  24.375 -0.1149  0.0946  0.0969
  984W        W43896  22.212   6.035  25.879  0.2886 -0.1725 -0.0750
  985W        W43897  25.908   8.805  24.735 -0.0287 -0.0001 -0.2715
  986W        W43898  26.048   5.247  24.678  0.3221  0.1253  0.0405
  987W        W43899  24.706   6.957  23.301  0.1431  0.1360  0.1195
  988W        W43900  22.961   4.366  26.703  0.1022 -0.0365  0.4087
  989W        W43901  22.644   4.003  26.482  0.0447 -0.0897  0.0659
  990W        W43902  22.772   4.548  28.071  0.0667  0.1841 -0.2577
  991W        W43903  24.216   2.378  25.723 -0.2241 -0.0485 -0.0826
  992W        W43904  24.430   5.206  25.031  0.0666  0.3431 -0.1841
  993W        W43905  22.156   3.889  25.394 -0.1984 -0.0737  0.0055
  994W        W43906  24.477   4.275  25.284  0.1936  0.1914 -0.0371
  995W        W43907  23.855   5.636  25.007  0.2673 -0.0273 -0.1985
  996W        W43908  21.661   5.220  25.620  0.2403  0.4633  0.0155
  997W        W43909  26.125   4.969  27.365 -0.3562  0.0527 -0.0128
  998W        W43910  24.007   6.158  24.090  0.1440  0.2200 -0.2170
  999W        W43911  25.106   7.622  27.224  0.0272  0.2111 -0.0556
 1000W        W43912  25.665   9.008  25.102  0.3487  0.1258  0.1188
 1001W        W43913  23.333   4.639  27.313 -0.1793 -0.1540  0.0020
 1002W        W43914  22.955   4.287  23.378 -0.1879 -0.0083  0.0973
 1003W        W43915  22.147   7.759  26.333 -0.1457 -0.2226 -0.0229
 1004W        W43916  23.279   6.601  27.141  0.6530  0.3085  0.0479
 1005W        W43917  23.478   5.356  25.454 -0.0360 -0.2741 -0.1971
 1006W        W43918  25.988   6.067  25.899 -0.1230  0.1918  0.1573
 1007W        W43919  24.440   4.708  25.025  0.2825 -0.0965  0.0747
 1008W        W43920  21.969   4.407  26.746 -0.0658  0.0949 -0.0633
 1009W        W43921  23.904   4.795  26.209 -0.0248 -0.0475 -0.1663
 1010W        W43922  25.856   5.310  25.127  0.2963  0.1517  0.0564
 1011W        W43923  23.920   5.450  25.716 -0.0823  0.0422 -0.1981
 1012W        W43924  22.555   3.686  23.874  0.1962  0.0047 -0.0276
 1013W        W43925  25.747   7.992  25.432 -0.0262  0.0796 -0.1643
 1014W        W43926  22.664   6.705  24.163 -0.2838  0.0568  0.1806
 1015W        W43927  22.312   5.080  23.350  0.0212 -0.3115  0.0724
 1016W        W43928  24.518   6.716  24.813  0.2344 -0.1942 -0.0847
 1017W        W43929  24.897   4.986  26.331  0.0905  0.0717  0.1101
 1018W        W43930  21.530   4.708  26.790  0.2672 -0.1882  0.0514
 1019W        W43931  24.859   5.027  27.268 -0.2698 -0.1316  0.0029
 1020W        W43932  21.728   5.713  25.522 -0.2125  0.1721  0.0592
 1021W        W43933  23.459   5.329  26.463 -0.3219  0.0606  0.2532
 1022W        W43934  24.376   5.166  25.545 -0.1123 -0.1190 -0.2057
 1023W        W43935  26.616   3.892  24.687 -0.0459 -0.1303 -0.2046
 1024W        W43936  24.302   7.111  26.226  0.2280  0.1096 -0.2846
 1025W        W43937  25.987   5.720  24.489 -0.0622 -0.1644  0.3336
 1026W        W43938  24.486   4.178  24.835 -0.3900 -0.0803  0.1209
 1027W        W43939  22.863   3.999  24.282 -0.0086  0.4439  0.1378
 1028W        W43940  22.071   6.374  27.669  0.0368  0.2041  0.0846
 1029W        W43941  22.772   6.190  24.908 -0.2360  0.0417 -0.0487
 1030W        W43942  22.267   6.453  26.147  0.2411 -0.1841 -0.1562
 1031W        W43943  23.551   4.813  24.461 -0.0221  0.0688 -0.1880
 1032W        W43944  26.632   6.546  21.998 -0.1347 -0.2724  0.3756
 1033W        W43945  21.594   4.711  25.924  0.1666  0.3588  0.0438
 1034W        W43946  23.959   4.718  26.720  0.0019 -0.0880 -0.2272
 1035W        W43947  25.748   7.176  25.093  0.0365 -0.0905 -0.0026
 1036W        W43948  24.830   4.704  26.786  0.0701  0.1790 -0.0180
 1037W        W43949  25.278   5.024  24.480  0.1211 -0.0080  0.0254
 1038W        W43950  23.766   3.125  25.382  0.1767  0.0304 -0.2082
 1039W        W43951  22.120   6.209  24.313 -0.1456 -0.2203 -0.1673
 1040W        W43952  25.684   3.730  26.662  0.3708  0.1069 -0.0564
 1041W        W43953  25.378   3.913  24.542  0.0169 -0.3154  0.2260
 1042W        W43954  23.690   3.817  27.916 -0.2343 -0.0971 -0.2552
 1043W        W43955  25.429   3.950  28.165 -0.1606  0.1692  0.1558
 1044W        W43956  24.892   4.946  24.997  0.2022  0.0800 -0.1769
 1045W        W43957  23.894   5.243  26.679 -0.0595 -0.2005 -0.1221
 1046W        W43958  22.092   5.647  22.701  0.2481 -0.2247  0.2957
 1047W        W43959  22.566   3.540  27.477  0.0428 -0.2446  0.3230
 1048W        W43960  22.454   4.049  25.838  0.3536 -0.1208 -0.2168
 1049W        W43961  21.751   6.617  27.284  0.0128  0.0506  0.4543
 1050W        W43962  23.103   7.049  27.086 -0.2715  0.0927 -0.0713
 1051W        W43963  24.800   4.833  24.442  0.1606  0.4212 -0.2635
 1052W        W43964  24.337   4.893  26.511 -0.0556 -0.1297 -0.0079
 1053W        W43965  25.328   3.787  25.307  0.0073 -0.0779 -0.0220
 1054W        W43966  24.806   9.042  24.136  0.0759  0.3879  0.0618
 1055W        W43967  22.928   5.400  24.147  0.0577 -0.0035 -0.0792
 1056W        W43968  24.873   2.756  26.262 -0.0517 -0.0240 -0.3040
 1057W        W43969  23.075   5.635  26.416 -0.4113 -0.3337 -0.1814
 1058W        W43970  23.459   6.648  24.400 -0.0673  0.0329 -0.1873
 1059W        W43971  25.444   6.188  26.102 -0.1087 -0.2292  0.3936
 1060W        W43972  22.157   6.717  24.257 -0.0282  0.2073 -0.1167
 1061W        W43973  25.178   4.093  26.055  0.1504  0.0139 -0.2913
 1062W        W43974  22.138   5.963  26.561 -0.1903 -0.1791  0.0406
 1063W        W43975  24.014   4.845  24.685  0.1372  0.1571 -0.0087
 1064W        W43976  22.040   5.522  25.884 -0.0830 -0.3014 -0.4889
 1065W        W43977  24.743   4.316  24.271 -0.1795  0.0902  0.0207
 1066W        W43978  24.788   5.758  23.973  0.2142 -0.1649  0.0714
 1067W        W43979  21.788   3.992  27.160  0.1164 -0.0400 -0.0360
 1068W        W43980  24.997   3.472  27.428 -0.4423  0.2888 -0.1372
 1069W        W43981  22.647   5.810  26.718 -0.0129 -0.2039 -0.1051
 1070W        W43982  23.416   4.838  26.413 -0.3064  0.0504  0.1007
 1071W        W43983  23.740   3.804  24.698 -0.3644  0.2206 -0.0355
 1072W        W43984  25.022   7.098  25.615 -0.1015 -0.0188 -0.1023
 1073W        W43985  23.842   7.558  26.922 -0.0571  0.2384  0.2929
 1074W        W43986  22.832   4.823  25.491  0.0725 -0.1351  0.0586
 1075W        W43987  25.756   4.373  25.845  0.0240  0.1115  0.0045
 1076W        W43988  22.966   2.978  25.935 -0.1271  0.1952  0.0906
 1077W        W43989  22.658   5.767  25.072  0.0351  0.0354 -0.1748
 1078W        W43990  23.660   6.634  25.305  0.0103 -0.1162 -0.0740
 1079W        W43991  20.900   5.025  24.305 -0.0532  0.2388 -0.1437
 1080W        W43992  23.974   6.571  24.912  0.0867 -0.0068  0.1907
 1081W        W43993  24.898   4.403  28.105 -0.0434 -0.1142 -0.1074
 1082W        W43994  25.779   5.051  27.027 -0.2814  0.0061 -0.0834
 1083W        W43995  24.986   4.392  27.350  0.2908 -0.0175 -0.2838
 1084W        W43996  21.939   4.982  25.065  0.3810 -0.0580 -0.0894
 1085W        W43997  24.223   5.791  25.506 -0.0100 -0.0684  0.1383
 1086W        W43998  23.135   6.919  26.036  0.3660 -0.2382  0.1625
 1087W        W43999  22.572   5.241  26.002 -0.2372 -0.1304  0.2100
 1088W        W44000  23.622   5.991  27.645 -0.1199  0.3074  0.1555
 1089W        W44001  24.356   3.872  26.140 -0.1811 -0.1267  0.0819
 1090W        W44002  26.701   7.096  24.065  0.0581 -0.1783  0.0321
 1091W        W44003  24.380   4.443  26.754  0.1494  0.0362 -0.1288
 1092W        W44004  22.241   5.319  24.184 -0.0196 -0.0309  0.2022
 1093W        W44005  21.358   4.255  26.466 -0.0423 -0.0632 -0.0090
 1094W        W44006  23.223   6.640  23.274  0.3079  0.0307 -0.3603
 1095W        W44007  24.030   3.620  27.610  0.2396  0.0296 -0.0178
 1096W        W44008  21.164   5.945  26.701 -0.0323  0.2641  0.2103
 1097W        W44009  22.420   6.384  23.892  0.0522  0.0288  0.1184
 1098W        W44010  22.130   5.510  26.819 -0.0402  0.0796 -0.4629
 1099W        W44011  25.282   4.543  24.412  0.1901 -0.1312 -0.0747
 1100W        W44012  25.319   5.856  24.787  0.1770 -0.1572 -0.0639
 1101W        W44013  23.769   3.388  26.113 -0.1894  0.0272 -0.1900
 1102W        W44014  26.516   4.733  26.245  0.2687  0.2885 -0.0455
 1103W        W44015  24.950   5.456  24.837  0.0454 -0.1845 -0.0164
 1104W        W44016  24.822   4.614  28.579  0.1734  0.0420 -0.0756
 1105W        W44017  23.499   2.306  25.939  0.0718 -0.0684  0.2368
 1106W        W44018  23.460   6.372  25.691 -0.1308 -0.2219  0.0661
 1107W        W44019  23.123   3.377  25.713 -0.2470  0.1538 -0.0426
 1108W        W44020  23.716   6.707  26.190  0.2639 -0.1970 -0.1436
 1109W        W44021  24.521   4.601  27.195  0.1254 -0.0676  0.0238
 1110W        W44022  23.897   4.739  25.223 -0.1790 -0.1157 -0.0561
 1111W        W44023  22.868   3.317  23.317  0.0754 -0.0516 -0.0878
 1112W        W44024  22.802   4.278  26.134 -0.1341 -0.0879  0.2834
 1113W        W44025  24.175   6.262  26.138  0.0831 -0.4816  0.0120
 1114W        W44026  23.468   5.177  24.882  0.1143 -0.0205 -0.3059
 1115W        W44027  26.222   4.203  24.462 -0.0588 -0.0942  0.2276
 1116W        W44028  23.080   5.050  25.957  0.0022  0.0660  0.3286
 1117W        W44029  23.968   4.951  25.706 -0.3036  0.2448 -0.2536
 1118W        W44030  23.931   6.700  23.980 -0.0649  0.0788  0.0216
 1119W        W44031  23.097   6.308  24.271  0.0700  0.1628  0.2196
 1120W        W44032  22.473   1.969  27.278 -0.0412  0.0277  0.2043
 1121W        W44033  24.662   5.418  26.162  0.1185  0.0049 -0.2141
 1122W        W44034  24.105   2.964  24.752 -0.3699  0.0227  0.1043
 1123W        W44035  25.157   4.171  27.755 -0.0524  0.0153  0.3309
 1124W        W44036  24.350   4.439  26.234  0.1902  0.3590 -0.1302
 1125W        W44037  23.796   4.593  27.180 -0.1318  0.0917 -0.0149
 1126W        W44038  20.912   4.077  27.990  0.0066  0.0166 -0.0932
 1127W        W44039  24.661   7.685  26.933  0.2292  0.0252  0.1684
 1128W        W44040  25.226   5.168  23.033  0.2148 -0.1660 -0.0122
 1129W        W44041  24.364   4.556  25.703  0.0792  0.0875  0.0968
 1130W        W44042  26.969   4.634  24.808  0.1409  0.3984 -0.0837
 1131W        W44043  24.195   6.017  25.004 -0.0313 -0.1151 -0.1551
 1132W        W44044  22.261   4.266  26.271  0.0635 -0.1001 -0.1625
 1133W        W44045  25.172   6.681  26.807  0.2274  0.1137  0.0455
 1134W        W44046  22.515   4.231  23.783  0.0683  0.0211 -0.1637
 1135W        W44047  24.000   4.112  26.962  0.0385  0.4033 -0.1348
 1136W        W44048  24.285   5.540  24.167 -0.2651  0.0375 -0.2150
 1137W        W44049  25.067   7.283  24.406  0.0615 -0.3807  0.2350
 1138W        W44050  24.383   4.687  24.012 -0.3052  0.2434 -0.2025
 1139W        W44051  21.592   4.447  24.046  0.1665 -0.2112 -0.1002
 1140W        W44052  22.162   7.240  27.687  0.1741 -0.2642  0.0618
 1141W        W44053  22.658   3.733  25.381 -0.0649  0.1459 -0.3309
 1142W        W44054  22.961   5.355  25.546  0.1934  0.1198 -0.0995
 1143W        W44055  25.273   7.378  25.102 -0.2496 -0.0307 -0.2184
 1144W        W44056  24.900   6.805  26.037  0.0357 -0.2484  0.4041
 1145W        W44057  22.881   3.357  25.170  0.2042  0.3810  0.1814
 1146W        W44058  26.573   4.152  27.531  0.3557 -0.2041  0.0889
 1147W        W44059  23.012   5.808  25.894 -0.2909 -0.2909  0.3770
 1148W        W44060  24.470   1.733  25.078  0.0433  0.1324 -0.2335
 1149W        W44061  23.457   7.755  27.554 -0.1659 -0.0576  0.3010
 1150W        W44062  22.634   5.504  27.303 -0.4043  0.0742 -0.3113
 1151W        W44063  21.501   6.413  26.037  0.1650  0.0605  0.1363
 1152W        W44064  24.620   4.317  27.712 -0.2987  0.1285 -0.0684
 1153W        W44065  26.162   4.660  24.688  0.0318  0.1683 -0.0237
 1154W        W44066  24.658   5.727  25.130  0.2543 -0.0681 -0.0068
 1155W        W44067  26.525   5.577  25.847  0.0504  0.1304 -0.1033
 1156W        W44068  23.862   5.612  26.273 -0.2112  0.1303  0.0679
 1157W        W44069  23.573   5.119  25.981  0.0340 -0.2119  0.2808
 1158W        W44070  23.291   6.463  26.190 -0.1649  0.0893 -0.0157
 1159W        W44071  25.499   6.351  25.114  0.3543 -0.1896  0.0362
 1160W        W44072  23.174   4.536  25.764 -0.2147  0.2318 -0.4188
 1161W        W44073  21.141   3.352  27.640  0.0880 -0.0457  0.0888
 1162W        W44074  24.316   5.526  26.661 -0.0282  0.3097  0.2229
 1163W        W44075  24.532   6.113  24.152 -0.1761 -0.1359 -0.3276
 1164W        W44076  22.112   4.970  25.851  0.0493 -0.3840  0.0201
 1165W        W44077  23.427   5.344  24.332 -0.0979  0.0367 -0.0705
 1166W        W44078  22.882   6.642  27.349 -0.1068 -0.2191  0.0224
 1167W        W44079  20.624   3.878  27.211 -0.2018  0.0835  0.0818
 1168W        W44080  22.771   6.695  24.880  0.0027 -0.3271 -0.2315
 1169W        W44081  24.859   3.911  24.553 -0.3485  0.0463 -0.0266
 1170W        W44082  24.004   6.755  24.442 -0.3882  0.2003  0.0464
 1171W        W44083  23.458   6.623  26.668 -0.2158  0.0590 -0.1499
 1172W        W44084  23.091   5.419  24.688 -0.1837  0.0587 -0.0950
 1173W        W44085  22.714   7.109  26.209  0.0981  0.3439 -0.4655
 1174W        W44086  21.472   5.806  24.642  0.3479  0.3680 -0.0542
 1175W        W44087  24.451   7.681  24.742  0.1660 -0.0054  0.2431
 1176W        W44088  23.149   6.980  24.641 -0.0757 -0.2074  0.1871
 1177W        W44089  25.098   6.364  27.238 -0.0496  0.0430 -0.3072
 1178W        W44090  26.022   3.052  23.950  0.1348 -0.3076 -0.0978
 1179W        W44091  25.614   4.561  25.393  0.0871 -0.2775 -0.0194
 1180W        W44092  25.776   4.314  24.541  0.0492  0.0493 -0.1274
 1181W        W44093  23.882   6.623  26.954 -0.2030 -0.0432 -0.0425
 1182W        W44094  24.772   4.842  25.564  0.0638  0.2933  0.1572
 1183W        W44095  22.605   4.955  24.169  0.2412 -0.0259 -0.0819
 1184W        W44096  24.328   5.763  26.081 -0.0982  0.1859 -0.0211
 1185W        W44097  26.020   4.491  27.662 -0.0597  0.2369  0.2325
 1186W        W44098  22.006   6.168  27.013 -0.1946 -0.1169  0.1054
 1187W        W44099  25.952   6.734  23.994  0.0043 -0.4441 -0.0253
 1188W        W44100  21.771   5.200  24.626  0.1191 -0.2221 -0.0796
 1189W        W44101  23.675   4.322  24.531  0.2076  0.0486  0.1974
 1190W        W44102  25.336   3.685  27.742  0.0207  0.0472  0.0133
 1191W        W44103  23.109   6.152  25.379  0.3463 -0.1710  0.3604
 1192W        W44104  25.092   4.534  26.428  0.2317 -0.1893  0.1952
 1193W        W44105  23.457   5.744  24.738  0.0165 -0.0009 -0.0523
 1194W        W44106  22.789   4.020  27.592 -0.0279 -0.2331  0.0574
 1195W        W44107  24.066   6.879  25.869  0.2501 -0.0873  0.0511
 1196W        W44108  21.540   3.444  25.302 -0.1390 -0.2122 -0.2291
 1197W        W44109  25.959   5.444  25.920 -0.4711 -0.1401 -0.1307
 1198W        W44110  22.057   4.793  27.017 -0.1131  0.0492 -0.1297
 1199W        W44111  26.856   4.434  27.944  0.2025  0.1271 -0.0084
 1200W        W44112  22.401   4.811  26.307  0.0656 -0.2459 -0.1200
 1201W        W44113  23.983   6.656  23.386  0.2900  0.1502  0.1460
 1202W        W44114  24.203   5.929  26.523 -0.3047 -0.2546 -0.0781
 1203W        W44115  21.056   3.989  27.492  0.0213 -0.0214  0.1287
 1204W        W44116  25.361   5.655  24.242  0.1393  0.0969 -0.4010
 1205W        W44117  24.643   5.573  25.667 -0.2467 -0.0052  0.3553
 1206W        W44118  24.280   4.520  24.465 -0.0251  0.1902  0.0509
 1207W        W44119  23.155   6.900  27.679  0.0199  0.2818  0.1991
 1208W        W44120  22.797   3.579  26.030  0.0812 -0.1331 -0.1966
 1209W        W44121  24.095   5.656  23.257  0.0483 -0.1492 -0.0107
 1210W        W44122  22.146   5.321  25.486 -0.1842 -0.3592  0.0495
 1211W        W44123  25.049   5.200  25.839  0.2316 -0.2964 -0.1052
 1212W        W44124  24.418   7.264  27.999  0.3667  0.1375  0.1634
 1213W        W44125  23.957   2.037  24.515  0.0765  0.1583  0.0165
 1214W        W44126  25.205   5.052  23.572 -0.1280  0.0429  0.3562
 1215W        W44127  25.280   4.200  25.575 -0.0495  0.1851  0.0247
 1216W        W44128  24.717   7.127  23.911 -0.3073 -0.1799  0.0849
 1217W        W44129  24.398   5.119  24.311  0.1138  0.0333 -0.3128
 1218W        W44130  24.634   6.623  26.479  0.1243 -0.0596 -0.0842
 1219W        W44131  22.297   3.403  27.064 -0.0390  0.1232 -0.1174
 1220W        W44132  24.786   8.570  27.137  0.1423 -0.0065  0.4443
 1221W        W44133  25.073   6.232  25.807 -0.2876  0.0583 -0.1872
 1222W        W44134  24.907   4.579  25.993 -0.1222 -0.3554 -0.0654
 1223W        W44135  23.747   6.152  25.300 -0.1549  0.0668 -0.0411
 1224W        W44136  21.828   6.443  25.274  0.2091 -0.1377 -0.3353
 1225W        W44137  25.539   5.147  26.246  0.2217 -0.2278 -0.0195
 1226W        W44138  24.776   4.211  26.293  0.2418  0.0478  0.0385
 1227W        W44139  24.806   7.414  23.074 -0.0828 -0.2072 -0.2417
 1228W        W44140  25.753   3.289  26.995 -0.0423  0.1064  0.3256
 1229W        W44141  24.047   6.250  25.639 -0.0780 -0.2702 -0.1442
 1230W        W44142  22.370   7.792  27.816  0.0714 -0.1366 -0.1754
 1231W        W44143  21.727   5.888  23.992 -0.1382 -0.0141  0.0334
 1232W        W44144  24.716   3.918  28.037 -0.2276  0.0207 -0.0184
 1233W        W44145  23.893   5.291  24.450  0.3343  0.2770 -0.0777
 1234W        W44146  24.225   6.260  24.594  0.1071 -0.1445  0.1348
 1235W        W44147  25.522   7.455  26.435 -0.2833  0.1099 -0.3665
 1236W        W44148  24.261   3.246  25.159 -0.3329  0.0479 -0.0400
 1237W        W44149  25.384   6.630  25.841  0.2724  0.2285  0.0456
 1238W        W44150  24.845   3.216  25.741  0.2613 -0.2672 -0.2103
 1239W        W44151  26.746   3.666  25.459  0.2769  0.1635 -0.0342
 1240W        W44152  26.086   4.208  24.969 -0.3317 -0.4925 -0.2908
 1241W        W44153  24.171   5.271  26.127  0.1362  0.0158  0.2223
 1242W        W44154  21.615   5.639  23.589  0.0128  0.1480 -0.1513
 1243W        W44155  23.088   6.183  23.168 -0.1488 -0.2436  0.1486
 1244W        W44156  22.204   5.813  25.322 -0.1153  0.1029 -0.1008
 1245W        W44157  23.573   2.726  28.617 -0.2222  0.4219 -0.0667
 1246W        W44158  21.954   2.698  27.530  0.0643  0.1031  0.0765
 1247W        W44159  22.423   5.684  26.179 -0.0192  0.1772  0.0080
 1248W        W44160  22.631   4.402  25.345 -0.1352 -0.2328 -0.1361
 1249W        W44161  25.650   6.970  23.575  0.1616  0.0111 -0.2305
 1250W        W44162  23.737   2.479  24.867 -0.1233 -0.2064 -0.0169
 1251W        W44163  21.884   3.459  26.770 -0.2360 -0.3133 -0.2966
 1252W        W44164  25.522   6.215  24.154  0.0768  0.2653  0.3913
 1253W        W44165  24.972   6.589  25.000  0.1217 -0.1482 -0.1015
 1254W        W44166  23.110   4.509  25.203  0.0515  0.3099  0.0979
 1255W        W44167  25.069   5.487  27.490  0.1720  0.0610  0.0601
 1256W        W44168  23.133   5.698  25.149 -0.2637  0.0538 -0.0396
 1257W        W44169  24.443   5.095  27.548  0.0996  0.1731 -0.2114
 1258W        W44170  23.646   3.364  27.763  0.1227  0.3966  0.1678
 1259W        W44171  21.470   3.752  23.354  0.0127 -0.0533 -0.1164
 1260W        W44172  24.709   5.184  26.764  0.1286  0.2657  0.1168
 1261W        W44173  24.590   6.128  25.676 -0.0596 -0.2729 -0.1471
 1262W        W44174  23.599   6.340  23.178  0.2148 -0.1578  0.0006
 1263W        W44175  23.835   6.044  27.143  0.1280 -0.2287  0.1346
 1264W        W44176  23.792   6.228  26.551  0.1497  0.3318  0.1832
 1265W        W44177  21.468   2.184  27.406 -0.2481  0.1333 -0.1292
 1266W        W44178  23.082   4.733  24.733  0.0036  0.0298 -0.2076
 1267W        W44179  24.632   6.151  27.836  0.1212  0.1902  0.0207
 1268W        W44180  25.742   6.180  24.692 -0.1041  0.1880 -0.1551
 1269W        W44181  26.506   3.265  25.683 -0.2741  0.0256  0.1142
 1270W        W44182  22.939   6.321  25.891 -0.0007  0.0706 -0.2989
 1271W        W44183  22.387   3.260  28.510 -0.0883 -0.3349  0.1138
 1272W        W44184  24.287   6.906  26.995 -0.0198 -0.1547 -0.2150
 1273W        W44185  25.396   4.726  25.839  0.0748  0.0327 -0.0538
 1274W        W44186  23.374   3.614  25.258  0.1470 -0.0216  0.0512
 1275W        W44187  23.143   4.442  24.257 -0.4319 -0.0057 -0.1061
 1276W        W44188  25.455   7.470  24.076  0.1662 -0.3959  0.1462
 1277W        W44189  20.873   4.666  27.054 -0.0050 -0.2740 -0.2049
 1278W        W44190  23.988   5.200  25.263  0.0706  0.3011 -0.0083
 1279W        W44191  24.734   5.745  26.748 -0.0419  0.0188  0.0803
 1280W        W44192  23.796   5.936  25.949 -0.1059  0.2338  0.2681
 1281W        W44193  24.823   6.245  26.839  0.2348  0.0784  0.1244
 1282W        W44194  24.791   6.187  24.831 -0.1329 -0.3473 -0.1117
 1283W        W44195  25.316   4.960  25.433 -0.1791  0.0578  0.3067
 1284W        W44196  25.626   8.764  27.302 -0.1708  0.1467 -0.1184
 1285W        W44197  25.122   7.117  27.033  0.0247 -0.2036 -0.1175
 1286W        W44198  23.147   6.746  25.556  0.2919  0.0146 -0.1793
 1287W        W44199  26.345   6.433  25.482  0.2718 -0.1963  0.2563
 1288W        W44200  22.951   3.584  26.598  0.0248  0.2653 -0.4149
 1289W        W44201  23.400   7.842  24.973  0.0878 -0.0174  0.3391
 1290W        W44202  22.419   6.836  26.495 -0.1265 -0.0303 -0.2054
 1291W        W44203  25.397   4.402  24.916  0.0808 -0.2285  0.1678
 1292W        W44204  23.794   3.415  24.945 -0.1207 -0.1780  0.0735
 1293W        W44205  24.996   3.860  24.055  0.1176 -0.1383 -0.1939
 1294W        W44206  22.080   6.662  26.907  0.2547 -0.0510  0.0312
 1295W        W44207  24.738   7.372  26.288  0.4692  0.1589 -0.1731
 1296W        W44208  21.969   6.313  29.514  0.1880  0.0573 -0.1031
 1297W        W44209  22.058   3.244  27.577 -0.2129 -0.1794 -0.3287
 1298W        W44210  24.336   6.369  26.821  0.2386  0.1515  0.1391
 1299W        W44211  24.429   5.197  28.738  0.0862 -0.0395  0.0625
 1300W        W44212  21.727   3.893  28.993 -0.0097 -0.1543 -0.0469
 1301W        W44213  25.092   6.741  28.878  0.2109  0.1274 -0.0341
 1302W        W44214  22.960   4.138  29.751  0.0371  0.1828  0.2686
 1303W        W44215  25.212   7.611  30.918 -0.2342 -0.1311  0.0529
 1304W        W44216  25.113   8.323  30.240 -0.1871 -0.0064  0.2811
 1305W        W44217  24.755   7.746  27.979  0.2227  0.3536 -0.0562
 1306W        W44218  23.314   4.316  28.968  0.2594  0.0293  0.1674
 1307W        W44219  23.161   7.827  30.108 -0.0641 -0.1225 -0.3306
 1308W        W44220  24.386   4.489  28.124 -0.1394  0.1501 -0.0380
 1309W        W44221  23.551   3.582  30.301 -0.0620  0.0620 -0.0551
 1310W        W44222  25.010   4.173  29.383  0.3325  0.1201 -0.2474
 1311W        W44223  22.501   5.101  27.565 -0.1835  0.0138  0.0293
 1312W        W44224  23.287   4.742  30.112 -0.2343 -0.0465  0.0228
 1313W        W44225  21.845   5.927  28.680  0.1554 -0.2903  0.1777
 1314W        W44226  23.318   7.236  30.708  0.1938 -0.0138  0.5087
 1315W        W44227  22.740   6.129  29.938 -0.0630  0.0578  0.1603
 1316W        W44228  25.167   5.277  30.148  0.0626  0.1731  0.0753
 1317W        W44229  23.816   7.102  29.283  0.0729  0.0964  0.2207
 1318W        W44230  22.273   2.838  27.909 -0.0184  0.1151  0.0538
 1319W        W44231  21.635   4.430  29.216 -0.2255  0.1963  0.0001
 1320W        W44232  22.334   4.877  28.073  0.0475  0.2176  0.0159
 1321W        W44233  24.599   5.101  30.346  0.0076  0.0131  0.0192
 1322W        W44234  25.044   3.540  28.347  0.1674 -0.3023  0.1480
 1323W        W44235  23.491   5.374  27.750 -0.0247  0.0159  0.1911
 1324W        W44236  25.294   7.025  28.292  0.0276  0.0476  0.2441
 1325W        W44237  23.117   4.922  30.896  0.0406 -0.0103 -0.1347
 1326W        W44238  23.061   6.283  28.551  0.1439 -0.4300 -0.1156
 1327W        W44239  21.654   6.405  28.596 -0.1259  0.0790 -0.3739
 1328W        W44240  23.166   5.858  27.667  0.4552 -0.0845  0.2129
 1329W        W44241  25.351   6.171  28.049  0.1476 -0.0704  0.0667
 1330W        W44242  24.431   8.023  30.986 -0.3186  0.0634 -0.0788
 1331W        W44243  24.726   7.583  31.883 -0.0811 -0.3515 -0.2697
 1332W        W44244  20.631   5.128  27.212  0.0656  0.1188 -0.0864
 1333W        W44245  24.470   8.002   0.101 -0.0287  0.0834 -0.2971
 1334W        W44246  22.385   7.498  30.765  0.1828 -0.0620 -0.0257
 1335W        W44247  25.566   6.563  29.952  0.0829  0.0099  0.3177
 1336W        W44248  25.350   5.571  29.311 -0.0597  0.0328 -0.0812
 1337W        W44249  21.670   6.100  27.462  0.1419  0.1871  0.0168
 1338W        W44250  24.330   5.259  27.979  0.2742  0.0454 -0.0076
 1339W        W44251  22.456   6.481   0.053  0.2972  0.1666  0.1871
 1340W        W44252  21.806   4.620  30.005 -0.1619 -0.0361 -0.0685
 1341W        W44253  24.475   4.642   0.928  0.0064  0.1402  0.1707
 1342W        W44254  23.665   6.595  27.952 -0.3347 -0.0703 -0.1554
 1343W        W44255  24.574   5.417  27.194 -0.3715 -0.0324 -0.2572
 1344W        W44256  24.560   4.977  28.336  0.1521  0.1419  0.2034
 1345W        W44257  26.474   5.716  26.744  0.2955 -0.0309 -0.1827
 1346W        W44258  22.575   6.029  28.471  0.1147  0.2034 -0.0176
 1347W        W44259  22.608   6.220  29.105  0.2529 -0.1510 -0.0377
 1348W        W44260  23.408   5.601  29.530 -0.3007 -0.2222 -0.1268
 1349W        W44261  23.817   6.211  31.374 -0.0941  0.0535  0.2334
 1350W        W44262  25.407   4.384  28.454  0.1335  0.0796  0.1495
 1351W        W44263  23.862   4.006  29.878 -0.1557 -0.0963  0.0494
 1352W        W44264  23.627   6.892  30.549  0.3643 -0.1705 -0.2347
 1353W        W44265  23.159   5.043  28.030 -0.0221  0.0197 -0.3821
 1354W        W44266  25.539   7.480  28.230  0.2269  0.0464 -0.1942
 1355W        W44267  24.722   7.461  28.967 -0.0134  0.2125 -0.1004
 1356W        W44268  25.185   5.610  28.018  0.2403 -0.1695  0.1638
 1357W        W44269  21.144   3.576  27.188  0.1446  0.0036 -0.1904
 1358W        W44270  22.388   5.623  28.727 -0.1810  0.3931 -0.1243
 1359W        W44271  21.393   5.439  31.574 -0.0679  0.0823 -0.1922
 1360W        W44272  23.407   2.586  29.181 -0.0674 -0.1461 -0.2690
 1361W        W44273  25.582   6.161  30.336  0.4387 -0.0329 -0.1657
 1362W        W44274  22.649   6.726  30.078 -0.1577 -0.4286  0.0962
 1363W        W44275  24.738   5.435  29.079 -0.1548 -0.3183  0.0809
 1364W        W44276  23.651   6.129  29.817 -0.1368  0.1384 -0.1059
 1365W        W44277  24.769   6.088  30.413 -0.0524 -0.1350 -0.2715
 1366W        W44278  26.056   4.929  27.917  0.0269  0.0604 -0.0524
 1367W        W44279  24.175   2.720  30.631 -0.4764  0.0490 -0.0646
 1368W        W44280  24.506   4.637  30.506 -0.2693  0.1572 -0.1194
 1369W        W44281  24.772   6.582  27.606 -0.1754 -0.1211  0.0888
 1370W        W44282  22.436   6.301  26.719  0.1214 -0.1376 -0.0600
 1371W        W44283  24.511   6.755  30.979  0.0099 -0.0998 -0.0240
 1372W        W44284  25.114   4.831  28.223 -0.0593 -0.1109  0.0290
 1373W        W44285  23.761   7.255  31.004 -0.0686 -0.0243 -0.2886
 1374W        W44286  22.140   5.456  30.045  0.1113  0.1007  0.3793
 1375W        W44287  24.477   6.580   0.233 -0.2339  0.3449 -0.2345
 1376W        W44288  24.264   6.965  28.509 -0.0258 -0.1196  0.1254
 1377W        W44289  21.736   5.818  29.197 -0.4423  0.0075  0.0916
 1378W        W44290  22.951   5.103  26.602 -0.1163 -0.0337 -0.1175
 1379W        W44291  21.375   6.387  30.884 -0.1394  0.1186  0.1452
 1380W        W44292  22.941   5.318  29.347  0.1090  0.3773  0.0740
 1381W        W44293  22.927   3.977  28.572  0.2200  0.0355 -0.3860
 1382W        W44294  24.173   5.244  30.608  0.5646 -0.1869  0.0958
 1383W        W44295  25.333   4.215  29.799  0.0306 -0.1110  0.2219
 1384W        W44296  21.567   4.731  27.799  0.0569  0.1410 -0.1110
 1385W        W44297  24.386   6.301  28.288 -0.2647 -0.1214 -0.0135
 1386W        W44298  26.304   5.284  28.196 -0.0540  0.0130 -0.3397
 1387W        W44299  25.436   6.710  27.880  0.1928  0.0921 -0.1463
 1388W        W44300  23.197   5.205  29.799  0.2892  0.1590  0.2564
 1389W        W44301  22.964   4.742  29.706  0.0297  0.3252 -0.1926
 1390W        W44302  23.502   5.985  28.896  0.0927  0.0564 -0.0503
 1391W        W44303  22.317   4.869  30.214 -0.2330 -0.1275  0.0594
 1392W        W44304  25.160   6.272  30.594 -0.2106 -0.1326  0.0766
 1393W        W44305  22.602   3.634  28.788 -0.3926 -0.2089 -0.1113
 1394W        W44306  26.693   3.281  28.621  0.0495  0.1432 -0.2214
 1395W        W44307  24.142   5.932  27.536 -0.2117 -0.0963  0.3480
 1396W        W44308  21.239   6.445  27.688  0.0401  0.3233 -0.1133
 1397W        W44309  26.195   3.007  31.427 -0.1875  0.2064  0.1738
 1398W        W44310  24.035   6.230  27.925 -0.0609 -0.0905  0.2214
 1399W        W44311  25.013   6.787  30.706  0.0917  0.0367  0.4205
 1400W        W44312  25.812   7.549  29.598  0.0420 -0.2273 -0.0897
 1401W        W44313  22.694   5.113  29.814  0.0748  0.0846  0.2351
 1402W        W44314  22.351   4.421  27.762 -0.2027 -0.0165 -0.1313
 1403W        W44315  23.503   6.945  28.407  0.0675  0.3497 -0.0198
 1404W        W44316  23.907   6.052  28.414  0.2668  0.1815 -0.0371
 1405W        W44317  22.686   4.888  28.436 -0.2732 -0.1761  0.1089
 1406W        W44318  26.119   7.477  29.238  0.1954  0.1606 -0.2535
 1407W        W44319  24.963   5.108  28.663 -0.1701 -0.0233 -0.2404
 1408W        W44320  22.038   6.446  28.182 -0.1751 -0.0251  0.0188
 1409W        W44321  25.694   4.272  31.706 -0.2167  0.2250 -0.2147
 1410W        W44322  25.718   5.208  31.225 -0.0017 -0.1620  0.1820
 1411W        W44323  25.146   6.782  29.791 -0.2014 -0.0681  0.1184
 1412W        W44324  22.023   2.464  28.192  0.1032 -0.1591  0.2891
 1413W        W44325  24.286   7.270  28.879 -0.1602  0.0383  0.0810
 1414W        W44326  20.801   6.324  27.911 -0.3541  0.0344 -0.1643
 1415W        W44327  20.899   5.818  28.182 -0.1629  0.1515  0.0457
 1416W        W44328  23.983   6.552  28.446 -0.3757 -0.4323  0.3179
 1417W        W44329  25.826   4.313  29.806  0.0631  0.0346  0.3356
 1418W        W44330  21.538   5.188   0.230  0.0204 -0.1985  0.1727
 1419W        W44331  24.446   4.281  30.082 -0.0030  0.1372 -0.1123
 1420W        W44332  21.530   3.732  27.588  0.3276 -0.2829 -0.0206
 1421W        W44333  22.969   6.853  28.492 -0.1680  0.1787 -0.1295
 1422W        W44334  24.446   3.429  29.217 -0.2721  0.3725 -0.1505
 1423W        W44335  25.212   4.831  27.724  0.0376 -0.1641  0.3278
 1424W        W44336  22.980   6.134  30.368 -0.0258 -0.2348  0.2034
 1425W        W44337  25.812   5.196  29.378  0.2814  0.2268  0.0391
 1426W        W44338  25.356   4.963  27.239  0.1520  0.1190 -0.1742
 1427W        W44339  23.558   4.772  28.256 -0.1118  0.0922  0.1901
 1428W        W44340  23.044   8.491  30.757  0.2766  0.0926  0.3696
 1429W        W44341  24.262   6.777  29.407  0.1336  0.0519  0.1821
 1430W        W44342  22.435   7.489  29.734 -0.2265  0.1870  0.4687
 1431W        W44343  24.645   5.492  28.331 -0.1313 -0.1616  0.0928
 1432W        W44344  25.836   6.770  27.644 -0.1057  0.2431 -0.0913
 1433W        W44345  21.585   5.290  29.423 -0.1540  0.3259  0.3009
 1434W        W44346  23.980   6.845   0.307  0.0870 -0.0488 -0.0931
 1435W        W44347  25.639   6.754  28.689  0.3687 -0.1442  0.1879
 1436W        W44348  23.523   4.363  29.636  0.1486  0.1382  0.0867
 1437W        W44349  24.061   3.685  26.488  0.1386  0.1588 -0.2440
 1438W        W44350  23.789   4.508  28.739  0.1540 -0.0031 -0.0484
 1439W        W44351  22.897   6.413  26.850  0.1063 -0.2132 -0.0682
 1440W        W44352  25.239   3.936  31.039  0.1369 -0.0444 -0.0826
 1441W        W44353  24.980   4.193  31.335  0.2795  0.0391  0.2182
 1442W        W44354  24.172   3.629  29.951 -0.0737  0.0617 -0.0862
 1443W        W44355  26.071   5.103   0.073  0.1524  0.1851 -0.1358
 1444W        W44356  24.807   3.929  27.488  0.0483  0.2207 -0.1428
 1445W        W44357  23.885   5.717  27.991  0.1900  0.1749 -0.1969
 1446W        W44358  21.936   3.050  27.126  0.0106  0.2120  0.0185
 1447W        W44359  24.449   4.008  29.702 -0.2974  0.0841 -0.1846
 1448W        W44360  23.601   4.955  29.771  0.1457  0.1863 -0.1007
 1449W        W44361  23.005   6.256  29.500  0.1498 -0.2051 -0.1066
 1450W        W44362  24.800   7.654  29.695  0.1617  0.0734  0.1636
 1451W        W44363  25.607   6.725  29.473  0.3024  0.0354 -0.0436
 1452W        W44364  24.816   4.768  30.003  0.1632 -0.1393  0.2936
 1453W        W44365  24.495   3.549  28.310  0.0678  0.4138 -0.1203
 1454W        W44366  23.230   6.429  27.660  0.4308  0.0686  0.0294
 1455W        W44367  23.181   6.888  29.343 -0.2341  0.4225 -0.5529
 1456W        W44368  23.343   3.038  29.627 -0.0071  0.2988 -0.0948
 1457W        W44369  23.031   7.833  29.141 -0.0109  0.1800 -0.2276
 1458W        W44370  23.736   6.560  27.490  0.0981  0.1186  0.1968
 1459W        W44371  23.649   7.619  30.661 -0.2845 -0.4582 -0.0911
 1460W        W44372  21.706   6.703  27.768 -0.3453 -0.3521 -0.1365
 1461W        W44373  22.935   4.465  30.699 -0.1040  0.2038  0.0496
 1462W        W44374  21.751   5.641  27.219  0.0267 -0.0430 -0.1281
 1463W        W44375  23.140   3.628  27.737 -0.0068 -0.0924 -0.2992
 1464W        W44376  21.612   3.119  27.716  0.1707 -0.0271  0.0893
 1465W        W44377  24.092   4.968  29.042 -0.0022  0.2150  0.3691
 1466W        W44378  24.035   4.885  28.538 -0.0122 -0.0033  0.0809
 1467W        W44379  22.179   4.537  31.514  0.0833 -0.2383 -0.1520
 1468W        W44380  23.717   4.677  29.295  0.2325  0.2098 -0.0781
 1469W        W44381  22.794   8.068  30.991 -0.1349  0.1993 -0.2091
 1470W        W44382  23.921   5.683  29.483 -0.3510  0.0756 -0.0553
 1471W        W44383  24.878   3.724  26.529 -0.1489 -0.0809 -0.0665
 1472W        W44384  24.724   5.284  29.852  0.2390  0.0956 -0.0659
 1473W        W44385  22.442   4.870   0.009 -0.2515  0.0411 -0.2387
 1474W        W44386  20.226   3.826  27.877 -0.1191 -0.0063  0.3667
 1475W        W44387  24.923   6.526  30.204 -0.0593 -0.1264  0.1095
 1476W        W44388  21.245   4.456  29.636 -0.1032 -0.1129 -0.0005
 1477W        W44389  21.248   5.288  27.293  0.1943 -0.0683  0.1437
 1478W        W44390  23.249   7.325  28.589 -0.3478  0.1973  0.3004
 1479W        W44391  21.737   3.501  27.235 -0.0999  0.0292  0.0221
 1480W        W44392  22.151   5.675  28.262  0.0827  0.3657  0.0004
 1481W        W44393  22.806   5.240  31.791  0.0506 -0.1275  0.2078
 1482W        W44394  24.908   5.813  30.814  0.0810  0.1092 -0.1613
 1483W        W44395  23.242   4.003  29.369  0.2001 -0.1035  0.1186
 1484W        W44396  22.425   4.099  29.536 -0.1402  0.2524 -0.2628
 1485W        W44397  23.986   5.601  28.901 -0.0364  0.0325 -0.2218
 1486W        W44398  24.994   6.447  29.389  0.2034 -0.1430  0.4078
 1487W        W44399  22.789   5.333  28.727 -0.2314 -0.1454  0.2141
 1488W        W44400  24.374   5.636  29.712 -0.1690  0.0422  0.2084
 1489W        W44401  23.181   4.049  30.514 -0.0492 -0.1864 -0.0260
 1490W        W44402  25.778   6.103  29.322  0.2710  0.2879  0.2116
 1491W        W44403  22.934   6.871  30.930  0.4301  0.0000 -0.1275
 1492W        W44404  23.014   5.531  26.909  0.0602  0.1251  0.0303
 1493W        W44405  21.006   4.926  29.250 -0.0388  0.2062  0.2522
 1494W        W44406  23.521   5.655  27.245  0.1171  0.0142 -0.0828
 1495W        W44407  24.522   4.911  29.510 -0.1185 -0.0150 -0.1057
 1496W        W44408  24.426   6.283  29.508  0.2369  0.1481  0.0522
 1497W        W44409  20.608   6.550  28.561 -0.0844 -0.1879 -0.1849
 1498W        W44410  22.593   5.662  29.220 -0.2994  0.0131  0.0061
 1499W        W44411  24.698   4.341  28.984 -0.0570  0.1412  0.0016
 1500W        W44412  24.267   7.439  27.186  0.2092 -0.2480  0.0503
 1501W        W44413  23.693   5.260  28.237  0.0698  0.2338  0.0018
 1502W        W44414  26.083   4.587  30.268 -0.0497 -0.0858  0.4068
 1503W        W44415  24.723   5.913  27.339  0.4493 -0.0527  0.0561
 1504W        W44416  26.568   3.275  31.772 -0.0773 -0.3051 -0.2037
 1505W        W44417  24.643   4.470  30.997  0.0702 -0.2512  0.0461
 1506W        W44418  24.802   5.987  28.842 -0.0084  0.0919  0.1276
 1507W        W44419  23.028   5.789  28.606 -0.0657  0.0049 -0.1659
 1508W        W44420  25.407   7.318  31.281  0.1820  0.1975 -0.1038
 1509W        W44421  23.650   5.400  29.985  0.2378  0.1255  0.0553
 1510W        W44422  22.909   6.149  28.102 -0.2695 -0.2594  0.2716
 1511W        W44423  21.917   4.621  28.203  0.1138 -0.3028  0.0117
 1512W        W44424  23.404   6.958  28.891  0.0435  0.1597 -0.0738
 1513W        W44425  25.748   5.683  30.160 -0.1503 -0.0263  0.2208
 1514W        W44426  25.091   5.458  26.998  0.2707  0.4736 -0.0134
 1515W        W44427  25.906   4.555  28.306 -0.0726  0.0657  0.1902
 1516W        W44428  23.388   6.447  30.154  0.1046  0.2751  0.1850
 1517W        W44429  25.422   5.261  27.711  0.0196 -0.1785 -0.0268
 1518W        W44430  24.348   5.804  28.159  0.4260 -0.4308  0.0205
 1519W        W44431  22.200   5.418  27.864  0.0699 -0.2070  0.0058
 1520W        W44432  23.791   4.934  30.260 -0.1308  0.2043 -0.1304
 1521W        W44433  25.085   5.256  29.501  0.3583 -0.1016 -0.1148
 1522W        W44434  22.957   4.467  29.226  0.0935  0.1272  0.2509
 1523W        W44435  23.680   5.200  28.770 -0.2687  0.0927 -0.0946
 1524W        W44436  24.597   6.930  28.978  0.1774  0.1420  0.1417
 1525W        W44437  23.754   5.917  30.243  0.1935 -0.1720 -0.0172
 1526W        W44438  22.321   5.516  30.532  0.0031  0.0579 -0.0776
 1527W        W44439  25.608   6.617  30.734 -0.1819 -0.2183  0.0606
 1528W        W44440  25.687   4.821  27.618  0.0101  0.1802  0.1264
 1529W        W44441  25.633   4.763  31.246 -0.1162  0.0723 -0.0835
 1530W        W44442  25.734   4.065  29.319  0.0792  0.1628  0.0036
 1531W        W44443  24.319   5.938  27.030  0.0894  0.0477  0.1190
 1532W        W44444  21.141   5.027  27.939 -0.3148  0.2471  0.0461
 1533W        W44445  23.776   5.589   0.123  0.1696  0.1458  0.0246
 1534W        W44446  22.999   4.460  28.547 -0.0916  0.0056 -0.0328
 1535W        W44447  26.562   4.016  30.455 -0.1081 -0.0994  0.2630
 1536W        W44448  24.901   7.201  27.967 -0.1155  0.2742 -0.2872
 1537W        W44449  24.124   5.421  28.429 -0.0096 -0.3351 -0.0711
 1538W        W44450  25.791   3.906  28.544  0.0334  0.2196  0.2919
 1539W        W44451  22.679   2.679  29.683  0.1192 -0.1614 -0.3789
 1540W        W44452  22.404   6.972  30.904 -0.0411 -0.0292  0.0013
 1541W        W44453  20.732   3.653  27.770  0.1241 -0.1751 -0.0177
 1542W        W44454  24.697   4.824  27.900  0.0965 -0.4289  0.0017
 1543W        W44455  24.089   6.906  31.345 -0.1154  0.2614  0.1909
 1544W        W44456  24.827   6.307  31.023 -0.2961  0.1964 -0.1402
 1545W        W44457  24.995   2.807  28.876 -0.0277  0.1356 -0.0629
 1546W        W44458  26.219   3.615   0.172  0.1052  0.1639 -0.0879
 1547W        W44459  22.545   5.012  27.000  0.1832 -0.1563  0.1037
 1548W        W44460  23.911   3.808  28.395 -0.1254 -0.3391  0.2649
 1549W        W44461  24.261   5.987  30.296 -0.2401 -0.1125  0.3578
 1550W        W44462  22.218   5.877  29.481  0.3355 -0.2698 -0.0214
 1551W        W44463  23.239   5.302  28.544 -0.5599  0.0835  0.1682
 1552W        W44464  25.142   4.614  31.088 -0.2007 -0.0513 -0.2352
 1553W        W44465  25.397   5.276  28.382 -0.2852  0.1852  0.0558
 1554W        W44466  25.145   6.297  28.662  0.1610 -0.1420  0.1538
 1555W        W44467  25.678   4.982  30.141  0.1442  0.1538 -0.1793
 1556W        W44468  24.128   5.770  31.143  0.0470 -0.0484 -0.1138
 1557W        W44469  23.484   4.015  26.960  0.0714  0.0806  0.1494
 1558W        W44470  24.689   5.618  30.212 -0.1829  0.1731  0.1287
 1559W        W44471  26.040   7.092  29.629 -0.1942 -0.2252 -0.1820
 1560W        W44472  22.715   6.938  27.965  0.1770 -0.0038 -0.0953
 1561W        W44473  22.157   3.216  29.944 -0.0666 -0.2415  0.0305
 1562W        W44474  24.374   6.400  31.296  0.0912 -0.1027  0.0260
 1563W        W44475  24.042   6.798  28.936 -0.3731 -0.1874 -0.0928
 1564W        W44476  23.242   4.544  28.009 -0.0776 -0.1365 -0.2088
 1565W        W44477  24.470   6.951  27.531  0.1513 -0.1176 -0.1258
 1566W        W44478  23.466   8.611   0.700  0.2481 -0.1407 -0.1716
 1567W        W44479  21.857   5.660   0.048  0.1353  0.1251 -0.2111
 1568W        W44480  23.878   7.174  28.066  0.2503  0.1940  0.1342
 1569W        W44481  24.762   6.805  27.149 -0.1617  0.3356 -0.2248
 1570W        W44482  25.068   5.586  28.598 -0.0517  0.1977  0.2268
 1571W        W44483  24.214   8.066  29.066  0.0159  0.1783 -0.0991
 1572W        W44484  23.773   4.044  27.446 -0.0223 -0.3832 -0.1855
 1573W        W44485  22.059   6.725  30.341 -0.0631  0.4526  0.1487
 1574W        W44486  21.607   5.357  27.667 -0.1389 -0.3844  0.3171
 1575W        W44487  24.243   6.414  27.441 -0.1458  0.0951 -0.0949
 1576W        W44488  22.278   6.091  27.977  0.0121  0.0761  0.0504
 1577W        W44489  24.934   5.952  31.847 -0.0132  0.2714 -0.0693
 1578W        W44490  26.304   3.690  28.440  0.0841  0.1963 -0.0557
 1579W        W44491  24.825   5.788  29.430 -0.3714  0.1821 -0.0882
 1580W        W44492  24.042   5.099  29.604 -0.0019  0.0307 -0.3181
 1581W        W44493  25.302   8.618  30.898 -0.3075 -0.0232  0.1748
 1582W        W44494  22.983   4.007  28.057  0.0341 -0.3531  0.2849
 1583W        W44495  23.787   1.907  28.318  0.1794 -0.2452 -0.0207
 1584W        W44496  23.986   6.521  29.827  0.0919 -0.0465 -0.2003
 1585W        W44497  26.282   3.927  30.872 -0.1693  0.0147  0.3600
 1586W        W44498  22.865   7.389  29.378  0.0557  0.6079 -0.0336
 1587W        W44499  25.724   7.766  27.851 -0.1418 -0.0259  0.1523
 1588W        W44500  21.728   2.892  29.971 -0.2182 -0.1993  0.0550
 1589W        W44501  22.567   4.046  27.111  0.0751 -0.0133 -0.1767
 1590W        W44502  24.855   3.094  29.245  0.1706 -0.3361  0.1092
 1591W        W44503  24.461   6.456  28.876  0.0419  0.0420 -0.2596
 1592W        W44504  23.994   6.265  28.869  0.4187 -0.0547  0.2384
 1593W        W44505  23.609   8.719  29.134  0.0196  0.0003 -0.0527
 1594W        W44506  23.600   6.660  29.600  0.1690 -0.0174  0.1463
 1595W        W44507  22.943   4.827  27.520  0.1859  0.1608 -0.0552
 1596W        W44508  20.510   3.366  28.486 -0.1849  0.0201  0.1544
 1597W        W44509  26.426   5.502  30.111 -0.1972  0.3100 -0.1388
 1598W        W44510  20.900   4.575  30.128  0.0382  0.0547  0.0516
 1599W        W44511  25.001   3.007  31.757  0.1530  0.2992  0.3543
 1600W        W44512  22.498   5.152  29.139 -0.0352  0.2706 -0.2624
 1601W        W44513  25.168   4.612  28.932  0.0276  0.2285  0.0422
 1602W        W44514  24.310   5.915  29.143  0.1560  0.1406 -0.0099
 1603W        W44515  21.955   5.111  30.460 -0.0832 -0.3221  0.3264
 1604W        W44516  23.554   4.859  27.777  0.0723  0.3986 -0.1027
 1605W        W44517  24.981   5.309  30.599  0.0102  0.0893  0.2567
 1606W        W44518  22.983   4.300  27.219 -0.0553  0.2991 -0.2096
 1607W        W44519  25.552   7.379  30.324  0.0542  0.0460  0.0345
 1608W        W44520  21.420   3.508  29.422  0.0012 -0.0229 -0.2458
 1609W        W44521  24.632   5.563  27.737  0.4827  0.0656  0.0355
 1610W        W44522  23.695   5.087  27.235  0.1093 -0.2157  0.0613
 1611W        W44523  22.257   5.191  28.488  0.0632  0.0381  0.0091
 1612W        W44524  25.363   6.875  30.342 -0.1756  0.4351 -0.0134
 1613W        W44525  20.513   4.986  28.647  0.0395  0.1355 -0.1507
 1614W        W44526  25.918   7.071  28.225 -0.0681 -0.0049 -0.1130
 1615W        W44527  24.928   4.250  30.065  0.0271  0.1214 -0.1217
 1616W        W44528  23.990   7.587  27.595  0.3810 -0.0778  0.0258
 1617W        W44529  26.311   4.189  28.471  0.0136  0.0044  0.1115
 1618W        W44530  24.484   7.274  29.781 -0.1902  0.1294 -0.1637
 1619W        W44531  22.768   4.434   0.201 -0.3537 -0.0577 -0.0292
 1620W        W44532  24.429   6.408  30.058  0.0405 -0.0592  0.3244
 1621W        W44533  25.652   8.309  30.198  0.3236  0.0623 -0.2879
 1622W        W44534  24.190   3.470  28.780  0.0142 -0.0114  0.1193
 1623W        W44535  22.104   3.580  28.249 -0.0412 -0.0099 -0.0951
 1624W        W44536  23.088   6.602  28.112 -0.0683  0.3928 -0.2190
 1625W        W44537  23.748   4.143  29.181 -0.0392 -0.1276 -0.1160
 1626W        W44538  25.731   3.784  29.943  0.0012  0.2221 -0.1172
 1627W        W44539  22.239   6.771  27.906  0.1426  0.0108 -0.0957
 1628W        W44540  24.813   1.643  29.486 -0.2308 -0.3438  0.1543
 1629W        W44541  24.088   7.186  30.691 -0.3455  0.1779 -0.0323
 1630W        W44542  22.814   5.458  30.143  0.0234 -0.0964  0.2160
 1631W        W44543  22.222   3.928  26.786 -0.0357  0.0922 -0.3207
 1632W        W44544  23.589   6.513  29.077 -0.1420 -0.1318  0.0456
 1633W        W44545  23.991   5.392  27.584 -0.0379 -0.1016  0.0646
 1634W        W44546  22.928   5.383  27.690 -0.2135 -0.0214  0.1283
 1635W        W44547  26.116   7.660  30.389  0.3675 -0.3949 -0.1752
 1636W        W44548  25.360   4.091  28.959  0.1787 -0.1250 -0.4333
 1637W        W44549  24.763   7.009  30.153  0.0589  0.0675  0.2772
 1638W        W44550  23.158   4.912  29.307  0.0942  0.0245 -0.1062
 1639W        W44551  25.025   4.084  28.551 -0.1804 -0.0814  0.0740
 1640W        W44552  23.988   4.344  28.329  0.1896 -0.0179  0.2773
 1641W        W44553  24.158   6.035  29.837  0.4009  0.5089  0.1881
 1642W        W44554  22.033   3.729  27.722  0.0635  0.0429 -0.0478
 1643W        W44555  22.867   5.994  27.196  0.1731 -0.0168 -0.0814
 1644W        W44556  21.498   4.891  29.659 -0.1436 -0.0901 -0.0223
 1645W        W44557  24.775   4.607  31.608 -0.1412  0.0766  0.1454
 1646W        W44558  23.684   5.414  30.498 -0.1219  0.0286  0.2731
 1647W        W44559  23.314   5.480  29.003  0.0601  0.0925 -0.3266
 1648W        W44560  21.053   4.539  27.832 -0.0740  0.1004  0.0356
 1649W        W44561  25.851   6.589  28.148  0.1505 -0.1242 -0.0750
 1650W        W44562  23.018   3.410  28.516 -0.2502 -0.1384  0.0337
 1651W        W44563  21.337   3.364  30.715 -0.1877 -0.1534 -0.1321
 1652W        W44564  24.951   4.766  29.381 -0.1181  0.0940  0.0400
 1653W        W44565  25.068   6.406  26.341 -0.0137  0.0280 -0.2775
 1654W        W44566  23.389   4.057  28.305  0.0719  0.0428 -0.1519
 1655W        W44567  25.773   6.167  31.132 -0.0293 -0.0966  0.0924
 1656W        W44568  23.507   7.115  26.898 -0.0040  0.0873  0.0124
 1657W        W44569  23.471   5.070  31.264 -0.1578 -0.3326 -0.0483
 1658W        W44570  23.406   6.058  30.614  0.0383  0.2429  0.0905
 1659W        W44571  19.824   4.164  29.426  0.1464  0.1013  0.0274
 1660W        W44572  24.126   4.547  29.599 -0.0526  0.1192  0.0730
 1661W        W44573  25.489   7.158  29.853 -0.2693 -0.0620  0.2279
 1662W        W44574  25.195   8.049  27.987  0.0829  0.0373  0.1098
 1663W        W44575  24.366   7.279  31.118  0.0599 -0.2736 -0.1751
 1664W        W44576  24.046   6.870  30.301 -0.1020  0.1743 -0.2220
 1665W        W44577  21.392   4.896  30.357 -0.0649  0.0259 -0.0257
 1666W        W44578  23.296   4.838  28.742  0.0910  0.2343  0.1241
 1667W        W44579  24.729   7.637  31.391  0.1644 -0.1613  0.0120
 1668W        W44580  26.011   6.000  28.859  0.0308 -0.0281 -0.2415
 1669W        W44581  25.143   3.669  29.852  0.0831 -0.1677 -0.0997
 1670W        W44582  25.262   5.060  29.086 -0.1626 -0.2108  0.1275
 1671W        W44583  22.752   5.174  30.614  0.0423  0.3839 -0.2570
 1672W        W44584  23.095   6.722  29.824  0.1222  0.2099 -0.0539
 1673W        W44585  25.231   5.988  31.212  0.0474 -0.4035 -0.0516
 1674W        W44586  22.142   4.349  27.269  0.1583 -0.2253 -0.0222
 1675W        W44587  24.136   4.447  29.078 -0.0843  0.0697  0.0125
 1676W        W44588  24.392   5.819  28.645  0.0161  0.2316  0.2754
 1677W        W44589  22.992   5.741  29.696  0.3084  0.2605 -0.1470
 1678W        W44590  23.842   4.430  27.836  0.0426 -0.2561  0.0106
 1679W        W44591  24.581   4.423  29.471  0.0155 -0.1366  0.1248
 1680W        W44592  23.014   6.628  28.963  0.0714 -0.0117  0.0277
 1681W        W44593  23.990   5.879  31.716  0.2637 -0.1902  0.1802
 1682W        W44594  22.586   4.259  28.913 -0.2378  0.1256  0.0254
 1683W        W44595  25.507   5.735  28.386  0.0556  0.1892 -0.1381
 1684W        W44596  23.682   7.838  29.967 -0.2304  0.1302  0.0010
 1685W        W44597  25.681   7.502  30.778  0.0629 -0.0846  0.1082
 1686W        W44598  24.365   6.153  30.813  0.0581  0.1539  0.2221
 1687W        W44599  24.323   4.778  30.005  0.0334 -0.1146  0.0776
 1688W        W44600  23.207   3.648  29.766 -0.0561  0.0322 -0.1728
 1689W        W44601  21.803   4.229  27.626 -0.0824 -0.3072 -0.0711
 1690W        W44602  24.883   5.981  28.279  0.0820 -0.1625  0.0378
 1691W        W44603  26.152   3.522  29.861  0.1073  0.0335 -0.0069
 1692W        W44604  21.838   4.949  29.173  0.0708 -0.2925 -0.0237
 1693W        W44605  24.913   5.235  27.929  0.2894  0.0054  0.0119
 1694W        W44606  24.083   7.660  31.100  0.0731  0.0956 -0.0429
 1695W        W44607  25.289   7.041  29.334 -0.0679  0.1133  0.2752
 1696W        W44608  26.065   4.296  31.315  0.0550 -0.1713 -0.0968
 1697W        W44609  25.323   5.006  30.819  0.1513  0.3403  0.0602
 1698W        W44610  20.413   5.393  31.341 -0.1559  0.0524 -0.0858
 1699W        W44611  22.206   6.437  29.994  0.0120  0.3427 -0.0580
 1700W        W44612  22.975   6.229  31.457 -0.1887  0.0479  0.1397
 1701W        W44613  22.494   7.824   0.809  0.3353  0.2647 -0.3733
 1702W        W44614  24.273   5.377  31.347 -0.1958  0.1612  0.2781
 1703W        W44615  24.926   4.395  30.582  0.0944  0.0153  0.0634
 1704W        W44616  25.691   4.618   0.121  0.1078  0.1851 -0.1292
 1705W        W44617  26.421   7.960   1.011 -0.3470  0.2643  0.2076
 1706W        W44618  24.327   7.669  31.635  0.2875 -0.0927 -0.0483
 1707W        W44619  23.981   4.648  30.612 -0.2976 -0.0019  0.0206
 1708W        W44620  25.001   8.054  30.703  0.0910 -0.1636 -0.1916
 1709W        W44621  24.128   5.454  30.125 -0.0706 -0.2428  0.4027
 1710W        W44622  23.903   6.272  29.405 -0.0295 -0.0797  0.3136
 1711W        W44623  22.626   6.535  31.176 -0.0223 -0.0832  0.0563
 1712W        W44624  22.561   5.787  31.032 -0.0686  0.1078  0.0342
 1713W        W44625  23.408   5.935  31.514  0.0892  0.1123  0.1015
 1714W        W44626  23.083   4.827  31.505 -0.0553  0.4002  0.0523
 1715W        W44627  22.899   3.373   0.948 -0.1216 -0.1382 -0.3237
 1716W        W44628  22.639   5.290  31.156 -0.2505 -0.0701  0.1693
 1717W        W44629  22.954   5.699  30.632 -0.0882  0.0603 -0.2205
 1718W        W44630  26.609   5.062   0.289 -0.1725 -0.1251 -0.2656
 1719W        W44631  24.636   5.327  30.990  0.1746 -0.2842 -0.0255
 1720W        W44632  23.864   3.381   0.998 -0.5146 -0.0217 -0.2730
 1721W        W44633  24.661   4.895   0.436 -0.0176 -0.1842  0.1735
 1722W        W44634  22.571   5.923  30.368  0.1720 -0.1454 -0.0697
 1723W        W44635  21.572   6.314  31.927  0.0760  0.0194  0.2081
 1724W        W44636  21.748   5.406  31.264  0.0278  0.0168  0.0324
 1725W        W44637  23.569   5.819  31.042 -0.1799 -0.2721  0.0923
 1726W        W44638  22.050   5.049   0.366  0.1817 -0.0217 -0.0418
 1727W        W44639  23.461   5.171  31.920 -0.0315 -0.0100 -0.0447
 1728W        W44640  24.728   4.963  31.280 -0.0559  0.0963  0.0353
 1729W        W44641  24.419   5.709   0.743 -0.2207 -0.1139  0.1180
 1730W        W44642  20.740   4.291  31.357  0.0355 -0.0498 -0.0607
 1731W        W44643  23.223   5.231  30.368 -0.0327  0.0395  0.0105
 1732W        W44644  22.775   6.824   1.219 -0.0351 -0.2250 -0.1019
 1733W        W44645  23.576   6.732  31.597  0.0010 -0.1534  0.4275
 1734W        W44646  23.752   6.349   0.541  0.2005  0.0484 -0.3403
 1735W        W44647  24.447   5.647  31.761  0.1522 -0.1792  0.2783
 1736W        W44648  25.207   5.473  31.026  0.2768 -0.0129 -0.1985
 1737W        W44649  23.711   5.478  31.402 -0.4692  0.0630  0.0309
 1738W        W44650  22.710   4.756  31.216 -0.1302  0.2302 -0.1562
 1739W        W44651  24.422   7.094   0.434  0.0158  0.2922  0.2350
 1740W        W44652  23.216   5.753  30.151 -0.0998 -0.0656 -0.1131
 1741W        W44653  24.535   5.152  31.693  0.1819 -0.0518 -0.1105
 1742W        W44654  24.025   3.613   0.270  0.1258  0.2777  0.0364
 1743W        W44655  23.128   6.701  31.342 -0.1760 -0.0320 -0.0972
 1744W        W44656  25.358   7.132   0.353 -0.0369  0.0133  0.1090
 1745W        W44657  23.409   6.331  31.135 -0.0359  0.0003  0.0159
 1746W        W44658  22.599   6.836   0.681 -0.0850 -0.0361  0.0491
 1747W        W44659  25.152   3.879   1.220  0.0412 -0.0747 -0.2290
 1748W        W44660  23.896   4.494  30.067  0.2827 -0.0760  0.2842
 1749W        W44661  22.704   6.884   0.054 -0.1387 -0.0792  0.0856
 1750W        W44662  22.125   5.592  31.003 -0.0200  0.2368 -0.2652
 1751W        W44663  23.953   5.786  30.638 -0.1381 -0.0527  0.1744
 1752W        W44664  25.541   6.764  31.230 -0.4699 -0.1563 -0.4589
 1753W        W44665  23.157   6.886  31.838 -0.0860  0.1042  0.2521
 1754W        W44666  24.483   6.681  30.479  0.2311 -0.1334 -0.0463
 1755W        W44667  22.160   3.828   0.612  0.2573 -0.0876  0.2774
 1756W        W44668  21.285   5.069  31.043 -0.1204 -0.1009 -0.4084
 1757W        W44669  21.137   4.287  31.054  0.2749  0.0831 -0.1770
 1758W        W44670  21.845   6.254  30.336 -0.2910 -0.0509  0.0354
 1759W        W44671  21.091   3.891  31.381  0.1467  0.0753  0.2417
 1760W        W44672  25.680   7.620  31.743  0.2166  0.4523  0.2290
 1761W        W44673  24.881   6.389  31.602  0.3285  0.0024 -0.0136
 1762W        W44674  25.006   7.205  31.695 -0.3668 -0.2462  0.0546
 1763W        W44675  23.030   8.391  18.887  0.0356  0.0756  0.0088
 1764W        W44676  22.521   6.603  15.967  0.2546 -0.0576 -0.2788
 1765W        W44677  24.353   8.711  15.294 -0.0136 -0.4325 -0.0174
 1766W        W44678  25.050   9.211  17.294  0.1848 -0.1345 -0.0251
 1767W        W44679  22.132   7.157  17.371 -0.4305 -0.1165  0.1921
 1768W        W44680  22.977  11.192  16.871  0.0961 -0.0227 -0.1132
 1769W        W44681  22.895   7.267  19.043  0.1427 -0.3240 -0.1906
 1770W        W44682  24.812   9.691  17.358  0.1881  0.1565 -0.4959
 1771W        W44683  24.758   8.914  18.650 -0.1749 -0.2091 -0.4278
 1772W        W44684  24.252   7.901  16.177 -0.2137 -0.0576 -0.2157
 1773W        W44685  23.660   7.349  18.041  0.3084 -0.1894  0.1813
 1774W        W44686  23.800   9.095  18.624  0.0142  0.0535 -0.3222
 1775W        W44687  22.456   8.068  15.151 -0.0860  0.0084 -0.0890
 1776W        W44688  22.803   5.218  17.716 -0.2355 -0.0740  0.0415
 1777W        W44689  24.348   8.402  16.435 -0.2349 -0.1576 -0.4104
 1778W        W44690  22.348   7.514  16.604 -0.0040  0.1515  0.2188
 1779W        W44691  23.591   8.627  18.068  0.1137 -0.0763 -0.3309
 1780W        W44692  23.867   7.672  15.921 -0.0440 -0.0268  0.2162
 1781W        W44693  24.806  10.065  17.026 -0.0749  0.1102  0.2100
 1782W        W44694  24.113   7.332  19.171 -0.0195  0.2258  0.1190
 1783W        W44695  24.252   6.837  19.395 -0.0753  0.0763 -0.0670
 1784W        W44696  22.563  10.878  17.683 -0.1862  0.1749  0.2984
 1785W        W44697  21.914   8.709  15.311 -0.1940 -0.0672  0.2312
 1786W        W44698  22.122   7.592  17.719 -0.1729  0.3806 -0.0562
 1787W        W44699  21.897   7.974  18.845  0.2447 -0.1916 -0.1864
 1788W        W44700  24.730   7.550  17.455 -0.2778 -0.0691  0.0243
 1789W        W44701  24.853   7.255  18.643  0.0811  0.0306 -0.2070
 1790W        W44702  22.327  11.421  17.404 -0.1310 -0.2055  0.0828
 1791W        W44703  24.111   9.725  17.131  0.3286  0.2735 -0.0298
 1792W        W44704  24.024   7.849  20.362  0.2204 -0.0513 -0.2839
 1793W        W44705  21.657  10.534  17.483 -0.0815 -0.0005 -0.0190
 1794W        W44706  21.271  10.999  19.569 -0.0586 -0.4858  0.1981
 1795W        W44707  22.329  10.158  16.178 -0.0565  0.1234  0.0574
 1796W        W44708  23.730  10.434  16.727 -0.2126  0.0293  0.0676
 1797W        W44709  25.042  10.028  18.578 -0.3099  0.2104 -0.0303
 1798W        W44710  24.053  12.454  18.214 -0.3659 -0.0260  0.1858
 1799W        W44711  21.330   9.714  18.274  0.2095  0.0795 -0.0354
 1800W        W44712  23.336   9.579  20.086  0.0041  0.0352 -0.3652
 1801W        W44713  22.011   8.219  17.619  0.0271  0.1533  0.2390
 1802W        W44714  25.244   6.266  19.645 -0.1782 -0.2228  0.0788
 1803W        W44715  23.358   7.735  17.277  0.1495  0.0737 -0.0555
 1804W        W44716  23.561  10.920  16.681 -0.0010 -0.2881 -0.3959
 1805W        W44717  23.252   8.297  17.874 -0.1010 -0.0566 -0.2297
 1806W        W44718  22.548   8.608  19.064 -0.2256 -0.0918  0.0838
 1807W        W44719  22.393  10.535  17.179  0.1096 -0.1304 -0.1633
 1808W        W44720  24.496   8.014  21.109  0.1274  0.2751  0.1981
 1809W        W44721  21.630  10.220  15.178  0.0577 -0.3629 -0.2920
 1810W        W44722  23.989   8.435  15.627 -0.1344 -0.0556 -0.1726
 1811W        W44723  22.790   8.789  15.855  0.3810 -0.1922  0.1276
 1812W        W44724  24.847   6.629  18.146 -0.2928  0.0340  0.1010
 1813W        W44725  22.336   7.006  16.273  0.3493 -0.0262 -0.0504
 1814W        W44726  23.189   9.987  16.868  0.4148  0.0823 -0.1159
 1815W        W44727  23.639   7.043  18.986  0.0886  0.2495  0.1286
 1816W        W44728  24.760   9.845  19.507  0.0551 -0.1763  0.0447
 1817W        W44729  22.693   8.260  15.565  0.0901 -0.2095  0.0429
 1818W        W44730  24.436   6.629  18.912 -0.1219  0.3184 -0.0488
 1819W        W44731  22.206   9.455  18.038  0.0711 -0.3122  0.0732
 1820W        W44732  22.810   7.732  17.198  0.0701  0.3570  0.1352
 1821W        W44733  24.867  10.218  15.725  0.2575  0.0111  0.2652
 1822W        W44734  24.438   9.020  17.677  0.1159 -0.1464  0.1009
 1823W        W44735  25.025   8.928  16.367 -0.0653 -0.0298  0.0559
 1824W        W44736  21.455   8.009  16.578  0.1754  0.1835  0.0871
 1825W        W44737  22.954   7.947  18.257 -0.4215 -0.0815  0.1385
 1826W        W44738  23.015   8.187  17.431 -0.4934  0.2593  0.0872
 1827W        W44739  22.925   7.411  15.270 -0.2007 -0.3816  0.0256
 1828W        W44740  24.429   8.598  18.981  0.0459  0.3073 -0.0080
 1829W        W44741  22.040   9.215  18.453  0.0824 -0.0286  0.0577
 1830W        W44742  25.033   8.337  17.350  0.4249  0.0144  0.0517
 1831W        W44743  23.638  10.061  17.051 -0.1149  0.0206 -0.3476
 1832W        W44744  24.081   8.709  18.014 -0.3125 -0.1010 -0.2052
 1833W        W44745  24.775   9.092  16.788 -0.2796 -0.2240  0.3526
 1834W        W44746  24.004   7.311  17.108  0.2481  0.1145  0.2987
 1835W        W44747  25.571   6.512  18.604  0.0584 -0.0104  0.1136
 1836W        W44748  23.468   8.297  17.300  0.0493 -0.3377 -0.4618
 1837W        W44749  23.071   8.321  15.939 -0.1845 -0.0991  0.2264
 1838W        W44750  25.108   9.273  18.719 -0.1083  0.0551  0.1793
 1839W        W44751  24.270   8.687  16.990  0.0870  0.1804 -0.1203
 1840W        W44752  22.706   8.225  17.817  0.0109 -0.1141  0.1655
 1841W        W44753  22.112   8.754  19.331  0.3988 -0.2435  0.0061
 1842W        W44754  24.342   9.622  19.195  0.2644  0.0713 -0.1787
 1843W        W44755  21.525  11.038  15.947  0.3292 -0.0367  0.0856
 1844W        W44756  21.773   7.950  17.952 -0.0517 -0.3456 -0.0928
 1845W        W44757  22.534   9.225  15.781  0.0714  0.0348  0.2094
 1846W        W44758  21.456   7.504  16.527  0.1630  0.1613 -0.1405
 1847W        W44759  22.880   8.812  18.674 -0.0866  0.0438 -0.3728
 1848W        W44760  25.638   7.275  17.734 -0.0340  0.0010  0.1209
 1849W        W44761  22.247   8.605  19.985 -0.0823  0.0248  0.0319
 1850W        W44762  25.617   6.920  17.408 -0.0778  0.0313  0.1259
 1851W        W44763  22.960   9.147  17.196  0.3520  0.1329  0.0253
 1852W        W44764  24.793   9.735  15.523 -0.1105  0.1356 -0.1297
 1853W        W44765  24.562   8.473  17.756  0.1831 -0.2094 -0.0802
 1854W        W44766  24.611   8.765  16.226  0.0572 -0.2578 -0.2111
 1855W        W44767  21.312   9.059  18.643 -0.2360  0.1370  0.0241
 1856W        W44768  22.848   7.081  17.885 -0.2053  0.0844  0.2202
 1857W        W44769  22.398   7.828  19.768 -0.1844 -0.1411  0.0343
 1858W        W44770  22.380   7.098  17.863 -0.1188 -0.1395 -0.1669
 1859W        W44771  24.787   8.443  18.709  0.0737  0.0299  0.0959
 1860W        W44772  20.402   8.722  17.299  0.3324  0.0630 -0.0728
 1861W        W44773  24.874   6.414  17.200  0.0355 -0.0019 -0.0264
 1862W        W44774  23.318   7.807  16.589  0.0076 -0.1756  0.2208
 1863W        W44775  22.672   9.969  16.855  0.3268  0.0483  0.3756
 1864W        W44776  24.644   7.237  21.787  0.0722  0.1766  0.1563
 1865W        W44777  23.836   9.661  16.723  0.0127 -0.0646  0.0960
 1866W        W44778  24.371  11.710  18.830  0.0086 -0.0502  0.1275
 1867W        W44779  24.074  11.083  17.262  0.1500 -0.2695  0.0304
 1868W        W44780  23.113   6.978  18.690  0.1084  0.2608  0.0012
 1869W        W44781  21.965   8.231  16.061  0.1689  0.2307 -0.0119
 1870W        W44782  21.770  10.719  19.642 -0.3161 -0.1593  0.0881
 1871W        W44783  23.812   8.471  16.641 -0.0292 -0.1113  0.4438
 1872W        W44784  22.863   7.930  16.134 -0.1754  0.0375 -0.2207
 1873W        W44785  24.601  10.271  17.876  0.0709  0.0070 -0.2802
 1874W        W44786  23.363   8.551  16.768  0.0619 -0.5354 -0.1967
 1875W        W44787  22.788   9.313  17.590  0.0332  0.2794 -0.1648
 1876W        W44788  23.784   8.133  18.212  0.2182  0.1776 -0.0056
 1877W        W44789  24.835   8.939  19.149  0.1329  0.0493  0.3265
 1878W        W44790  23.572   8.065  16.874 -0.0671  0.1312  0.1385
 1879W        W44791  22.037   7.968  16.714  0.2205 -0.2218  0.0056
 1880W        W44792  24.949  10.788  17.127  0.1422  0.3881 -0.0608
 1881W        W44793  21.328  11.768  15.669  0.0363  0.1437 -0.2290
 1882W        W44794  21.095   9.158  16.716 -0.0332 -0.2078  0.0920
 1883W        W44795  21.576   8.213  17.016  0.0331  0.2328 -0.0236
 1884W        W44796  25.834   7.093  19.424 -0.0467 -0.0778  0.0009
 1885W        W44797  21.687   9.674  19.496  0.1927  0.1860  0.2137
 1886W        W44798  23.300   7.245  19.318 -0.0049  0.3312  0.1129
 1887W        W44799  21.290   8.870  16.367  0.0636  0.0849 -0.1347
 1888W        W44800  21.462   9.266  19.220  0.1037 -0.2691 -0.3830
 1889W        W44801  23.975   6.559  19.026 -0.3683  0.0154 -0.3516
 1890W        W44802  24.780   9.171  15.970 -0.1016 -0.1636  0.0538
 1891W        W44803  22.063   8.338  20.870  0.0939 -0.1028 -0.1633
 1892W        W44804  24.292   9.456  15.864  0.2283  0.1942 -0.0884
 1893W        W44805  24.806   8.145  15.707  0.2728 -0.0086 -0.2554
 1894W        W44806  24.647   6.885  16.013 -0.0747 -0.2528  0.0250
 1895W        W44807  21.082   9.573  19.440 -0.3462  0.1225 -0.4630
 1896W        W44808  23.431   9.612  16.316  0.0825 -0.0012  0.2960
 1897W        W44809  24.371   9.356  18.066 -0.3493 -0.2478 -0.1268
 1898W        W44810  23.947   8.299  16.147 -0.0522  0.0628 -0.0876
 1899W        W44811  24.516  10.390  16.698 -0.0113  0.0800  0.0328
 1900W        W44812  23.323   9.415  17.995 -0.3819  0.2778  0.0483
 1901W        W44813  25.183   9.713  20.723 -0.0577  0.1228 -0.1431
 1902W        W44814  24.132  10.411  16.386  0.2927 -0.2958  0.1095
 1903W        W44815  23.508   6.663  18.671 -0.2200 -0.0842 -0.4846
 1904W        W44816  21.734   8.446  15.722  0.1237 -0.0462  0.3026
 1905W        W44817  24.196   5.092  18.261  0.0904  0.1254  0.1594
 1906W        W44818  22.599  10.390  17.671  0.1818  0.2443  0.0132
 1907W        W44819  24.863   8.011  17.802  0.2868 -0.1924  0.1989
 1908W        W44820  24.849   5.957  18.283  0.1917  0.3235 -0.0082
 1909W        W44821  25.018   6.429  18.590  0.3576  0.2005  0.0711
 1910W        W44822  25.634   7.933  20.335  0.0296  0.0968  0.5875
 1911W        W44823  23.947   8.916  15.872  0.0440  0.0061 -0.2632
 1912W        W44824  24.383   7.311  16.072  0.0807  0.3312 -0.0549
 1913W        W44825  22.291   9.038  15.264  0.1959  0.1232 -0.1236
 1914W        W44826  22.871   9.087  18.122 -0.2136 -0.1094  0.0792
 1915W        W44827  22.384   7.323  18.598 -0.0616  0.1874 -0.0206
 1916W        W44828  21.708   9.957  18.659 -0.2919  0.0689 -0.1948
 1917W        W44829  22.516   9.629  18.974 -0.0196  0.1616 -0.3550
 1918W        W44830  23.868   9.124  17.433 -0.3005  0.0427 -0.2699
 1919W        W44831  23.805   8.050  19.303 -0.0742 -0.3583  0.0670
 1920W        W44832  23.945   6.496  15.891  0.2802 -0.0304 -0.5099
 1921W        W44833  23.559  11.115  17.150  0.0681  0.1973 -0.1010
 1922W        W44834  23.063   9.223  15.663 -0.3793 -0.0614 -0.3397
 1923W        W44835  22.678   5.080  18.249 -0.4198 -0.1405  0.2674
 1924W        W44836  23.088   8.691  17.164  0.0165  0.1742  0.0781
 1925W        W44837  21.946  10.527  16.794  0.3641  0.1842 -0.0907
 1926W        W44838  23.882   9.550  18.864  0.0109  0.0396  0.2811
 1927W        W44839  23.589  10.541  16.231  0.0755 -0.4334  0.1584
 1928W        W44840  23.488   6.463  17.483 -0.1308 -0.1441 -0.3797
 1929W        W44841  22.738  10.276  18.240 -0.1333 -0.0209  0.0483
 1930W        W44842  23.668   7.974  16.275 -0.2172  0.3877  0.0951
 1931W        W44843  21.001   8.325  16.260 -0.0438  0.1534 -0.2123
 1932W        W44844  24.557   7.993  16.607  0.1675 -0.2126 -0.4351
 1933W        W44845  25.372   9.207  16.808 -0.0184 -0.0656  0.1389
 1934W        W44846  23.496   6.123  18.528 -0.0294 -0.3397 -0.4203
 1935W        W44847  21.887   6.513  18.545 -0.1581 -0.2907  0.1465
 1936W        W44848  21.986   9.508  19.877  0.1351  0.1677 -0.2971
 1937W        W44849  24.012   7.788  17.917 -0.2690 -0.2322 -0.1858
 1938W        W44850  24.673   7.306  16.498 -0.1830 -0.0342 -0.1069
 1939W        W44851  23.190   9.962  18.280 -0.1245 -0.0864 -0.1074
 1940W        W44852  23.141   9.217  18.813  0.2347  0.0806 -0.0955
 1941W        W44853  22.051   8.267  18.445  0.2777 -0.1141 -0.1087
 1942W        W44854  25.115   8.971  18.299 -0.1824 -0.0487 -0.1108
 1943W        W44855  23.792   8.678  17.069 -0.1257 -0.0441  0.0103
 1944W        W44856  22.056   9.342  16.902  0.2120 -0.0766 -0.1595
 1945W        W44857  23.462   8.756  18.735  0.1442  0.3839  0.0019
 1946W        W44858  21.393   8.815  15.382 -0.0803 -0.2247  0.0535
 1947W        W44859  21.931   8.793  16.941  0.0013  0.2160  0.0289
 1948W        W44860  20.663   7.832  19.386  0.2514 -0.0815  0.0812
 1949W        W44861  23.522   8.162  18.734  0.4665 -0.0517 -0.2707
 1950W        W44862  23.394   7.140  16.137 -0.1088  0.0298 -0.1405
 1951W        W44863  21.854   7.532  16.832  0.0293 -0.1835  0.2432
 1952W        W44864  22.389   7.950  17.504 -0.2558 -0.1217  0.2302
 1953W        W44865  25.365   9.785  17.440  0.0025 -0.0192 -0.0531
 1954W        W44866  22.301   6.768  18.271 -0.0156  0.1596 -0.1389
 1955W        W44867  22.703  10.499  20.427 -0.1355  0.1780  0.1017
 1956W        W44868  23.605   5.683  18.761 -0.3003  0.0140  0.0581
 1957W        W44869  26.075  11.203  17.532  0.1235 -0.3956  0.0265
 1958W        W44870  23.965   5.814  19.253  0.2832  0.0281 -0.0368
 1959W        W44871  21.848   9.273  15.266 -0.0045 -0.1347 -0.1169
 1960W        W44872  22.732   6.994  18.360 -0.2348 -0.0171 -0.0284
 1961W        W44873  23.110   8.721  16.236 -0.0082 -0.2525  0.4387
 1962W        W44874  24.459   7.383  18.346 -0.2488 -0.4199 -0.1449
 1963W        W44875  22.774   7.828  18.694  0.3376 -0.0900 -0.2618
 1964W        W44876  23.081   9.667  17.271 -0.1212 -0.0208 -0.1557
 1965W        W44877  20.597   9.902  19.457  0.1237 -0.2507  0.1378
 1966W        W44878  24.830   7.718  17.018 -0.0571  0.1947 -0.2597
 1967W        W44879  23.530   9.026  16.622  0.1008  0.1072  0.1050
 1968W        W44880  22.639   8.588  16.823 -0.0188  0.1183  0.1671
 1969W        W44881  25.198   7.907  20.578  0.3651  0.3752  0.0481
 1970W        W44882  24.509   7.330  17.020 -0.0638 -0.1054  0.0314
 1971W        W44883  23.777   7.194  19.499 -0.1015  0.0117  0.0525
 1972W        W44884  21.901   6.222  17.858 -0.2883 -0.1665  0.2615
 1973W        W44885  24.972   9.044  17.758  0.2035 -0.1479 -0.1777
 1974W        W44886  22.261   7.329  19.653 -0.0493  0.1129 -0.1278
 1975W        W44887  24.543  10.784  20.198 -0.3005 -0.2584  0.1359
 1976W        W44888  22.142   7.692  20.429  0.1113 -0.1755  0.0319
 1977W        W44889  23.763   6.788  17.799  0.2368  0.1236 -0.2796
 1978W        W44890  22.907   7.875  15.069 -0.0129 -0.2150 -0.3007
 1979W        W44891  21.592   9.235  16.142 -0.2195  0.2453  0.1356
 1980W        W44892  24.550   8.221  17.144 -0.0383 -0.0781  0.1337
 1981W        W44893  21.611   9.255  16.632  0.1165  0.1739  0.0865
 1982W        W44894  24.281   9.420  18.593 -0.1177 -0.0806  0.4522
 1983W        W44895  23.545   8.719  17.518  0.0026  0.0246 -0.2575
 1984W        W44896  23.258   8.216  16.384 -0.0454  0.3245  0.1116
 1985W        W44897  23.651   8.722  16.206  0.1504  0.0585 -0.0261
 1986W        W44898  23.956   9.172  16.899 -0.2190 -0.2337 -0.1296
 1987W        W44899  23.183   7.781  20.744  0.1950  0.0901  0.2297
 1988W        W44900  23.890   7.821  17.339  0.0453 -0.1020 -0.0328
 1989W        W44901  25.028   6.856  18.888  0.1625  0.0241  0.1312
 1990W        W44902  24.573   7.661  17.915 -0.1200  0.2642  0.0796
 1991W        W44903  23.882   8.590  18.541 -0.1905  0.2109 -0.4185
 1992W        W44904  23.176   8.840  17.822 -0.2136  0.3527  0.0669
 1993W        W44905  22.351   8.678  21.214  0.1966  0.0562 -0.0754
 1994W        W44906  23.853  11.972  18.372  0.2930  0.1034  0.0422
 1995W        W44907  24.105   8.814  16.381 -0.0238 -0.2183 -0.0149
 1996W        W44908  24.849   8.352  18.197  0.1166 -0.2165 -0.1567
 1997W        W44909  25.629   9.552  17.084 -0.2334  0.1146  0.1435
 1998W        W44910  23.534   8.312  15.891 -0.1475  0.0979 -0.0159
 1999W        W44911  22.664   8.719  17.697 -0.0263 -0.0761  0.1929
 2000W        W44912  24.620   9.398  19.550  0.2529  0.4176 -0.0195
 2001W        W44913  21.820   7.916  15.751  0.1455  0.1598 -0.0823
 2002W        W44914  25.296   9.081  19.255 -0.0111  0.1481  0.0066
 2003W        W44915  23.730  10.024  15.477  0.0652 -0.1809 -0.0402
 2004W        W44916  24.036   8.248  17.156  0.2186  0.0354 -0.2898
 2005W        W44917  22.603   9.320  16.357 -0.2062 -0.1481  0.4393
 2006W        W44918  20.687   7.664  15.360  0.0319  0.1687 -0.1282
 2007W        W44919  21.866  12.653  19.888  0.2391 -0.2478  0.1832
 2008W        W44920  21.847   7.786  16.262  0.5082  0.0959 -0.0590
 2009W        W44921  24.430   8.262  15.422  0.0622 -0.2402  0.0621
 2010W        W44922  24.240   9.839  17.816 -0.0029 -0.4754 -0.0003
 2011W        W44923  24.819   9.252  19.965  0.1986 -0.0785 -0.1682
 2012W        W44924  23.511   6.207  15.911  0.2348  0.1246  0.0038
 2013W        W44925  26.014   7.560  20.677 -0.0533 -0.0663  0.1573
 2014W        W44926  21.838   9.709  16.436 -0.0358 -0.0912 -0.0352
 2015W        W44927  23.529   6.464  18.129 -0.2987  0.1879  0.2036
 2016W        W44928  23.067   8.883  19.145 -0.1769  0.1156  0.2320
 2017W        W44929  20.755   8.825  18.553 -0.0186  0.0814 -0.0908
 2018W        W44930  22.591   9.687  15.998 -0.0353  0.1305  0.3699
 2019W        W44931  24.493   6.362  18.255  0.0389  0.3011  0.1055
 2020W        W44932  23.737   7.087  16.675 -0.1366  0.1704 -0.0959
 2021W        W44933  23.743   7.219  17.539 -0.0533  0.1479 -0.0393
 2022W        W44934  24.581   8.051  18.997  0.0311 -0.0423 -0.2578
 2023W        W44935  23.308   9.088  18.360  0.2400 -0.0375  0.1288
 2024W        W44936  21.510   8.123  17.514  0.1966 -0.1086  0.1795
 2025W        W44937  22.597   9.102  18.991 -0.3013  0.1750 -0.1558
 2026W        W44938  24.298  10.919  18.479 -0.2476 -0.0643  0.3211
 2027W        W44939  23.017   8.944  16.718  0.0420  0.1933 -0.0349
 2028W        W44940  22.360   8.120  18.859 -0.1618  0.0026 -0.0610
 2029W        W44941  23.965   7.669  19.587  0.3049 -0.1786  0.0320
 2030W        W44942  22.961   7.750  17.733 -0.1942  0.1405 -0.0351
 2031W        W44943  23.596   6.611  16.323 -0.0073  0.2579 -0.0952
 2032W        W44944  23.430   8.810  15.733  0.3178 -0.2620  0.1079
 2033W        W44945  21.878   9.928  20.288  0.0599 -0.0434  0.0933
 2034W        W44946  22.609   7.446  17.509 -0.1741 -0.4332  0.0619
 2035W        W44947  21.923  11.307  17.140 -0.1678 -0.0115  0.1522
 2036W        W44948  24.761   8.520  16.663  0.2208  0.1721  0.1718
 2037W        W44949  23.881   9.298  16.250 -0.0515  0.0259 -0.0926
 2038W        W44950  24.021  10.446  17.657  0.0916 -0.2370 -0.0359
 2039W        W44951  22.801   7.631  16.708  0.5467  0.0077 -0.0709
 2040W        W44952  22.178   9.213  17.590 -0.1927  0.2685 -0.4225
 2041W        W44953  22.034   9.461  15.889  0.1124  0.0277  0.1062
 2042W        W44954  23.172  10.323  16.463 -0.2343 -0.0523 -0.0425
 2043W        W44955  23.604   9.579  17.225  0.2442  0.1465 -0.4547
 2044W        W44956  24.917  10.013  19.062  0.1234 -0.0900 -0.1289
 2045W        W44957  24.584   6.337  15.865  0.1339  0.0861  0.0972
 2046W        W44958  25.764   8.604  17.143 -0.0088  0.0597  0.0543
 2047W        W44959  25.193   7.249  17.446 -0.2014 -0.0644 -0.2379
 2048W        W44960  24.565  10.625  19.011 -0.0166 -0.1298 -0.1145
 2049W        W44961  24.394   6.863  18.370  0.1378 -0.0349 -0.0950
 2050W        W44962  22.790   8.459  15.063  0.0765  0.0333  0.2308
 2051W        W44963  23.299   9.297  20.567  0.1584  0.1293 -0.2222
 2052W        W44964  25.586   7.276  20.681  0.3389  0.1558  0.0211
 2053W        W44965  21.304   9.794  20.217  0.3219 -0.1196 -0.0190
 2054W        W44966  25.007  10.898  16.493 -0.1323  0.0536  0.1962
 2055W        W44967  22.153   7.446  15.883 -0.1797 -0.1080  0.0690
 2056W        W44968  22.709   8.286  16.495 -0.1313 -0.1783  0.3392
 2057W        W44969  25.222   6.878  18.392 -0.4633 -0.3444  0.2635
 2058W        W44970  23.102   9.205  16.176  0.2193 -0.0698 -0.1664
 2059W        W44971  23.300   7.402  17.677  0.0038  0.0333 -0.0068
 2060W        W44972  22.088  11.155  19.231  0.0956  0.1174  0.0612
 2061W        W44973  23.987  10.912  16.370 -0.1357 -0.0565 -0.2336
 2062W        W44974  22.251   9.962  17.924  0.1504 -0.3121 -0.2781
 2063W        W44975  20.182   6.990  16.719  0.3136 -0.1952 -0.3797
 2064W        W44976  27.360  10.021  17.863  0.4398  0.2788  0.2676
 2065W        W44977  23.826   6.888  18.281 -0.1005 -0.1737  0.0376
 2066W        W44978  24.339   7.998  19.489 -0.2142 -0.1426  0.1897
 2067W        W44979  23.031   7.281  17.286  0.0666 -0.0093 -0.0249
 2068W        W44980  24.910   6.887  17.371 -0.0026 -0.1700 -0.0409
 2069W        W44981  23.268   7.309  16.672 -0.1086 -0.0634  0.1258
 2070W        W44982  22.938   7.947  19.735 -0.2945 -0.2399 -0.0854
 2071W        W44983  23.719   7.613  16.831 -0.1678 -0.0910 -0.2510
 2072W        W44984  24.158   9.096  19.008 -0.3594 -0.3163  0.2378
 2073W        W44985  24.408   8.367  15.903  0.1071 -0.0469  0.1567
 2074W        W44986  24.206   9.330  20.004 -0.0292 -0.1279  0.0283
 2075W        W44987  22.344   7.662  17.063  0.2302  0.0112  0.0290
 2076W        W44988  23.853   6.973  16.144  0.1004 -0.0111 -0.2499
 2077W        W44989  22.070   9.203  16.342 -0.2660  0.0092 -0.0087
 2078W        W44990  24.029   7.987  16.652  0.0314 -0.0101 -0.0436
 2079W        W44991  25.029  11.442  18.138  0.2501  0.1228 -0.2657
 2080W        W44992  22.555   7.540  17.993 -0.2222 -0.1162  0.0155
 2081W        W44993  24.136   8.665  17.525  0.2993 -0.0705 -0.0552
 2082W        W44994  25.905   7.457  18.473  0.0029  0.1777 -0.1606
 2083W        W44995  22.824   9.988  16.305 -0.2128 -0.1139 -0.0546
 2084W        W44996  24.401   9.282  17.193 -0.1734  0.0985  0.3488
 2085W        W44997  24.063  10.029  18.958  0.0935  0.0682 -0.0519
 2086W        W44998  21.169   8.054  19.059 -0.0721 -0.6364 -0.0456
 2087W        W44999  23.498   9.697  19.178 -0.0669  0.0181  0.2204
 2088W        W45000  25.088  10.472  18.224  0.3704  0.0136  0.2232
 2089W        W45001  22.652   7.052  15.104 -0.0273  0.4155  0.2224
 2090W        W45002  23.381   9.835  17.694  0.0425  0.0928 -0.1184
 2091W        W45003  22.711  10.485  16.214 -0.2883 -0.0084  0.2196
 2092W        W45004  25.335   7.684  19.187 -0.1648  0.2124 -0.0488
 2093W        W45005  24.355   8.144  18.091 -0.1267 -0.3172 -0.2053
 2094W        W45006  22.994   9.617  16.556 -0.3030  0.1727 -0.0807
 2095W        W45007  23.460   7.656  19.608  0.1360  0.0034  0.0945
 2096W        W45008  23.828   9.975  17.507  0.3031  0.1046  0.0528
 2097W        W45009  22.051   8.473  18.927  0.1749  0.0190  0.0689
 2098W        W45010  21.451   9.288  15.597  0.0560  0.3454 -0.1152
 2099W        W45011  23.783   7.637  18.898 -0.0660  0.0454  0.3051
 2100W        W45012  23.389  10.252  17.426 -0.1087 -0.0532 -0.0602
 2101W        W45013  22.165   9.724  18.561  0.0351  0.2082  0.0091
 2102W        W45014  24.197  10.039  16.731 -0.2028  0.1582 -0.0015
 2103W        W45015  24.092   7.239  17.902  0.0529 -0.0706  0.0023
 2104W        W45016  25.651  10.127  16.495 -0.0235  0.0025 -0.2595
 2105W        W45017  22.703   6.583  17.923 -0.2497 -0.0356 -0.1052
 2106W        W45018  26.297   7.773  16.935  0.1340 -0.0073  0.2184
 2107W        W45019  23.125   6.354  16.538  0.1838  0.1835 -0.4684
 2108W        W45020  23.524   9.510  18.474  0.2410  0.0972  0.1317
 2109W        W45021  21.229   8.299  15.749 -0.0615  0.1087 -0.1390
 2110W        W45022  21.524   8.366  16.201 -0.0932 -0.0093 -0.2259
 2111W        W45023  22.589   9.785  18.245 -0.0166 -0.3585  0.0123
 2112W        W45024  24.377   5.868  19.685 -0.1175 -0.1973  0.0594
 2113W        W45025  21.923   7.812  21.225 -0.3108 -0.0430  0.1484
 2114W        W45026  22.217   8.500  16.371 -0.2026  0.1570 -0.0049
 2115W        W45027  23.033   7.411  15.786  0.3729 -0.1142  0.2260
 2116W        W45028  24.249   9.763  16.280  0.1513 -0.0386 -0.1271
 2117W        W45029  23.499   7.874  17.700 -0.3948  0.0520  0.1041
 2118W        W45030  21.476   6.782  18.452 -0.1574  0.0216  0.1978
 2119W        W45031  23.458   9.050  17.118 -0.3022 -0.0876  0.3564
 2120W        W45032  24.492   9.566  16.755  0.0563 -0.1320  0.0218
 2121W        W45033  23.632   7.484  16.379  0.0431 -0.0253 -0.1604
 2122W        W45034  25.722   8.420  18.800  0.3535 -0.0661 -0.1227
 2123W        W45035  22.783   9.737  15.549 -0.0888 -0.0138  0.1316
 2124W        W45036  24.543   7.258  20.216 -0.2210  0.0023 -0.2001
 2125W        W45037  22.824   8.072  21.498  0.2934 -0.3648  0.0738
 2126W        W45038  20.458   7.222  15.416  0.3766 -0.1637 -0.2078
 2127W        W45039  23.891   6.782  17.079  0.2825  0.0188 -0.1901
 2128W        W45040  23.323   9.251  17.542 -0.1680  0.0483  0.1214
 2129W        W45041  23.772  10.941  15.927 -0.0356  0.0758 -0.0183
 2130W        W45042  23.756   9.110  18.136 -0.0580  0.0008 -0.0385
 2131W        W45043  24.049  10.509  18.707  0.0351 -0.1538 -0.3073
 2132W        W45044  21.998   7.499  18.186 -0.0148  0.2309 -0.0907
 2133W        W45045  23.752   9.766  15.940 -0.2360 -0.0241  0.0009
 2134W        W45046  23.686   9.076  19.185  0.0235 -0.0343  0.0466
 2135W        W45047  25.028  10.063  17.743 -0.4242 -0.0799 -0.1028
 2136W        W45048  24.016   7.615  18.403 -0.0159  0.2467  0.0651
 2137W        W45049  21.796   8.800  16.318  0.0513  0.0679  0.3302
 2138W        W45050  22.312   6.081  19.283  0.1104 -0.0628  0.0524
 2139W        W45051  22.524   9.347  18.498 -0.2821 -0.0906 -0.0633
 2140W        W45052  24.690   8.741  17.275 -0.0686  0.0199 -0.1354
 2141W        W45053  23.231   8.364  18.388 -0.4129  0.1352 -0.3273
 2142W        W45054  25.022   7.200  16.989  0.0348 -0.1091 -0.4265
 2143W        W45055  23.672  10.025  16.419  0.1623  0.1585  0.0233
 2144W        W45056  23.016   9.486  18.373 -0.0060 -0.0015 -0.1301
 2145W        W45057  23.472   7.209  15.653 -0.0814 -0.3016 -0.0424
 2146W        W45058  23.621   6.741  19.380 -0.1596  0.2254  0.7729
 2147W        W45059  24.743   7.765  16.199 -0.0591 -0.2392  0.3182
 2148W        W45060  24.346   7.997  17.569  0.3969 -0.0751  0.1681
 2149W        W45061  21.909   7.304  16.402  0.1331  0.1096  0.2229
 2150W        W45062  24.813   8.276  16.193  0.0066  0.1039  0.2226
 2151W        W45063  23.922   9.861  18.514  0.0231 -0.0410  0.0621
 2152W        W45064  26.503  10.088  18.190  0.0180  0.2406  0.1642
 2153W        W45065  23.772  10.655  17.192 -0.2774  0.2628 -0.0279
 2154W        W45066  24.275   7.770  17.037 -0.3469 -0.1193  0.0962
 2155W        W45067  23.470   7.259  18.542  0.0630  0.2024 -0.1676
 2156W        W45068  22.630   8.834  16.338 -0.0925 -0.0557 -0.2616
 2157W        W45069  23.066   9.675  15.940 -0.0042 -0.0360  0.0741
 2158W        W45070  24.055   7.100  18.701  0.0275  0.0430 -0.1836
 2159W        W45071  23.025   7.421  18.216  0.1578 -0.2507 -0.0254
 2160W        W45072  25.243   8.247  15.953  0.3698 -0.1281  0.0446
 2161W        W45073  22.876  10.521  19.169  0.1266  0.1806 -0.1099
 2162W        W45074  25.082   7.011  17.903 -0.2937 -0.0412 -0.1224
 2163W        W45075  23.280   9.212  23.495 -0.4764  0.2097  0.0429
 2164W        W45076  23.752   7.094  21.252 -0.2444  0.0426  0.0688
 2165W        W45077  24.412   7.759  20.041 -0.1900 -0.2651 -0.1247
 2166W        W45078  26.998   9.016  20.306  0.0046 -0.3929 -0.3297
 2167W        W45079  21.962   8.481  22.075 -0.2942 -0.1843  0.1603
 2168W        W45080  25.384  10.402  19.267 -0.2519 -0.4048  0.0174
 2169W        W45081  23.137   7.858  24.082  0.0844 -0.1263 -0.0952
 2170W        W45082  24.010   9.788  21.622  0.0824 -0.2533  0.2213
 2171W        W45083  25.855  11.955  22.829 -0.0330  0.2562  0.2687
 2172W        W45084  24.470   7.548  19.434  0.1632  0.0729 -0.0991
 2173W        W45085  23.530   8.424  21.349  0.0542  0.2286 -0.5049
 2174W        W45086  23.040   9.405  21.515  0.2939  0.2213  0.3247
 2175W        W45087  22.990   7.111  20.544  0.0349  0.3057 -0.0356
 2176W        W45088  22.759   6.552  23.395  0.0798  0.0202 -0.0931
 2177W        W45089  24.344   9.040  21.359  0.0831 -0.1111 -0.1473
 2178W        W45090  22.916   9.395  19.258  0.0453 -0.1420  0.2906
 2179W        W45091  23.235   7.524  21.972  0.3983 -0.3642 -0.1638
 2180W        W45092  23.305   8.309  20.789 -0.0442  0.1446 -0.1306
 2181W        W45093  23.891  10.582  21.174 -0.1830 -0.3018 -0.1150
 2182W        W45094  23.480   8.054  23.212  0.1058  0.3638  0.0066
 2183W        W45095  24.978   8.932  23.316  0.0151 -0.0901 -0.0904
 2184W        W45096  23.128  10.632  20.075  0.1335 -0.1743 -0.0680
 2185W        W45097  22.137   7.366  21.410 -0.1548  0.3323  0.0639
 2186W        W45098  22.047   8.390  21.591  0.0299  0.0161  0.0796
 2187W        W45099  22.955   8.378  21.147 -0.0600 -0.2004  0.1074
 2188W        W45100  24.573   8.700  21.704 -0.1882 -0.1636 -0.0357
 2189W        W45101  24.932   8.917  20.743 -0.3650 -0.1976 -0.2016
 2190W        W45102  22.596  10.997  21.720  0.1470  0.1444 -0.3093
 2191W        W45103  23.273  10.479  22.748 -0.0392  0.3019  0.5148
 2192W        W45104  24.202   8.606  22.051  0.0406 -0.4489  0.2047
 2193W        W45105  22.188   9.810  21.847 -0.1494  0.0430 -0.0504
 2194W        W45106  21.804  11.345  22.273  0.1430  0.4169  0.2254
 2195W        W45107  23.356  11.070  18.664 -0.0776  0.3302 -0.1195
 2196W        W45108  25.670   9.951  22.138  0.0468  0.1370 -0.1085
 2197W        W45109  24.710   9.897  21.619  0.2527 -0.1065 -0.2040
 2198W        W45110  24.105  10.157  23.102  0.0029 -0.1805 -0.0919
 2199W        W45111  20.630  10.394  19.557 -0.0361 -0.2484  0.2595
 2200W        W45112  23.050   9.679  23.162  0.2026  0.0812  0.1607
 2201W        W45113  23.938  10.076  23.574  0.0347 -0.1101  0.0511
 2202W        W45114  23.423   9.521  21.831 -0.3730 -0.0408  0.4659
 2203W        W45115  23.240   8.024  19.201  0.1187  0.0149 -0.3345
 2204W        W45116  23.121   8.972  20.117  0.1746 -0.0271 -0.0764
 2205W        W45117  24.212   9.759  19.687 -0.1086  0.0250  0.0191
 2206W        W45118  23.107   9.029  22.997  0.4022 -0.0082  0.0216
 2207W        W45119  22.784   8.855  21.106 -0.3131 -0.0108 -0.2671
 2208W        W45120  24.325   8.516  22.688 -0.0341 -0.1264 -0.0005
 2209W        W45121  23.427  10.592  21.776  0.0717  0.4123  0.0969
 2210W        W45122  24.533   8.221  21.551 -0.0283 -0.0949  0.1182
 2211W        W45123  23.785   8.472  20.820  0.3226 -0.0212  0.3706
 2212W        W45124  24.977   5.682  20.330  0.1245 -0.2425  0.0516
 2213W        W45125  24.089   7.251  21.622 -0.0798  0.1941 -0.0792
 2214W        W45126  22.868  10.136  23.370 -0.0181  0.0116  0.0345
 2215W        W45127  23.286   8.685  22.732 -0.1619  0.2964  0.1913
 2216W        W45128  25.615   9.299  23.404 -0.2334 -0.4121  0.1611
 2217W        W45129  24.081   7.377  20.344 -0.4593 -0.1821 -0.4366
 2218W        W45130  24.242   7.716  20.818  0.0048 -0.0480 -0.1947
 2219W        W45131  23.561  10.406  22.275 -0.1711  0.0983 -0.2340
 2220W        W45132  22.529   9.817  20.403  0.2178 -0.1026 -0.5583
 2221W        W45133  25.686  10.878  21.658 -0.1425 -0.0792  0.1003
 2222W        W45134  27.019   9.924  21.384 -0.3774 -0.1656  0.1950
 2223W        W45135  24.976  10.433  20.118  0.2625 -0.0326 -0.1819
 2224W        W45136  22.754   9.346  19.975  0.0430 -0.1168 -0.2645
 2225W        W45137  21.719   9.976  23.844 -0.1224  0.0080  0.0334
 2226W        W45138  22.869   9.256  23.836 -0.1255 -0.5219  0.1582
 2227W        W45139  22.558   6.447  18.648  0.0514  0.2974  0.0227
 2228W        W45140  24.420   9.228  22.915  0.0399 -0.1363 -0.4030
 2229W        W45141  22.576   9.750  23.391 -0.2920 -0.3314 -0.1587
 2230W        W45142  24.230   8.458  21.239 -0.1834 -0.1326  0.1929
 2231W        W45143  24.100   8.877  20.424 -0.2173  0.2842  0.3177
 2232W        W45144  26.809   9.533  21.044 -0.2593  0.2406 -0.0888
 2233W        W45145  25.301   9.542  20.258  0.0654 -0.2075 -0.1575
 2234W        W45146  24.044   6.076  22.267  0.0669  0.2790 -0.0166
 2235W        W45147  23.808   6.215  22.679  0.1901  0.1738  0.2826
 2236W        W45148  21.899   9.177  19.445  0.1434  0.3903 -0.0776
 2237W        W45149  22.233   8.185  19.366  0.2689  0.0793 -0.1698
 2238W        W45150  24.917  10.540  22.753 -0.1183  0.4113  0.0602
 2239W        W45151  25.759  10.075  19.316  0.2039  0.1779  0.0071
 2240W        W45152  22.309   9.182  21.334  0.1269 -0.1498  0.0022
 2241W        W45153  23.217   7.955  23.631  0.2027 -0.0986  0.2289
 2242W        W45154  24.004  10.783  23.119 -0.2664 -0.2414 -0.1528
 2243W        W45155  22.994   9.980  19.274 -0.2932 -0.3242 -0.1500
 2244W        W45156  20.840   9.641  19.866 -0.0727  0.0730  0.1666
 2245W        W45157  22.264   9.267  20.219 -0.0825  0.1040  0.2454
 2246W        W45158  22.359   7.499  21.999  0.1557 -0.1795  0.0802
 2247W        W45159  23.086   8.598  21.562  0.0676 -0.1948 -0.0242
 2248W        W45160  24.991   8.177  22.406 -0.0861 -0.3880 -0.1104
 2249W        W45161  23.089   7.575  23.293  0.1499 -0.0832  0.1891
 2250W        W45162  25.748   6.895  21.227 -0.1585 -0.2851  0.1264
 2251W        W45163  21.898   8.937  20.854 -0.1130  0.2259  0.2236
 2252W        W45164  25.879  10.419  20.241 -0.0115 -0.0902 -0.1397
 2253W        W45165  24.977   8.753  20.134  0.1570 -0.0390 -0.1152
 2254W        W45166  24.231   9.979  20.231 -0.1483  0.0193 -0.1850
 2255W        W45167  21.219   8.062  24.188 -0.1662 -0.0477  0.0071
 2256W        W45168  22.595   7.890  22.418 -0.0886 -0.0439  0.2632
 2257W        W45169  22.706   7.847  23.677 -0.3627  0.0499  0.1443
 2258W        W45170  21.827   7.957  20.665  0.3342 -0.2228  0.7704
 2259W        W45171  24.406   9.659  22.653 -0.0246  0.0587 -0.0504
 2260W        W45172  22.704   7.961  20.188 -0.0350  0.2805 -0.2172
 2261W        W45173  25.883   8.620  22.136 -0.1569  0.2325 -0.1153
 2262W        W45174  23.457   8.499  20.010 -0.0014 -0.0370 -0.0254
 2263W        W45175  22.012   9.667  21.420 -0.2194 -0.1379  0.3521
 2264W        W45176  23.623   8.440  23.013 -0.0558 -0.1476 -0.2767
 2265W        W45177  24.689   9.821  23.210  0.3504 -0.0201  0.2380
 2266W        W45178  27.170  10.793  22.250  0.1309 -0.4536  0.1486
 2267W        W45179  25.861   9.645  20.816 -0.0702 -0.2204 -0.0283
 2268W        W45180  23.687   8.543  24.551 -0.0178  0.1120 -0.1871
 2269W        W45181  22.757   7.334  21.723  0.1957  0.0257  0.0574
 2270W        W45182  22.378  10.002  21.276 -0.0451  0.0169 -0.0345
 2271W        W45183  22.390   9.095  20.807  0.3328  0.3031  0.0199
 2272W        W45184  24.339   7.022  21.230 -0.1787 -0.2581 -0.1867
 2273W        W45185  24.947  11.881  22.056  0.2254  0.0235  0.0804
 2274W        W45186  24.091   8.219  19.865 -0.2754  0.1890  0.1882
 2275W        W45187  23.586   8.404  23.557  0.2054 -0.2698  0.0277
 2276W        W45188  24.524   7.404  22.668  0.0852  0.0855  0.1909
 2277W        W45189  25.153  10.034  22.830  0.0878  0.0296  0.1538
 2278W        W45190  24.730   8.661  21.184 -0.0234 -0.0152  0.2812
 2279W        W45191  22.394   6.955  21.584 -0.0023  0.3590 -0.1691
 2280W        W45192  24.161  10.164  21.216 -0.0372  0.0665 -0.0696
 2281W        W45193  23.184  10.851  19.602  0.2086  0.4337  0.1704
 2282W        W45194  23.017   8.242  22.017  0.2967 -0.0124  0.1020
 2283W        W45195  22.840   9.796  21.143  0.0697 -0.3632 -0.3124
 2284W        W45196  24.833   7.655  20.915 -0.1935 -0.0915  0.0380
 2285W        W45197  22.407   8.560  23.517 -0.3657  0.3019 -0.2361
 2286W        W45198  24.777   8.513  22.847 -0.1634 -0.1760 -0.0885
 2287W        W45199  22.829   8.328  20.491 -0.0762  0.2165 -0.2203
 2288W        W45200  24.414   9.678  23.673  0.1423  0.2273  0.1282
 2289W        W45201  24.464   6.745  21.689 -0.2377 -0.0753  0.3741
 2290W        W45202  25.637   7.817  20.886 -0.1299 -0.1258  0.0551
 2291W        W45203  24.024   8.840  22.928  0.0364 -0.0253 -0.4168
 2292W        W45204  26.166   8.800  20.473  0.0890 -0.2241 -0.2158
 2293W        W45205  25.499   6.153  20.428 -0.1732 -0.3234 -0.3330
 2294W        W45206  24.509   7.300  20.702  0.1090 -0.2414  0.1458
 2295W        W45207  22.724   9.322  23.315  0.1806  0.1303  0.0019
 2296W        W45208  24.181   8.584  19.432  0.1459  0.1995  0.1774
 2297W        W45209  24.205  10.503  20.328  0.0286  0.0627  0.1309
 2298W        W45210  23.625   7.949  19.999  0.0940 -0.1793  0.1762
 2299W        W45211  24.901  11.224  19.842  0.0163 -0.0348 -0.1045
 2300W        W45212  22.519  10.193  21.804  0.2047 -0.2000  0.1029
 2301W        W45213  23.824   9.319  21.560 -0.0269 -0.1768 -0.1493
 2302W        W45214  23.370  10.966  22.455 -0.0410 -0.0675  0.1877
 2303W        W45215  23.196   6.503  21.695  0.1001 -0.2325  0.0301
 2304W        W45216  22.552   8.296  19.729 -0.1909  0.2802 -0.0463
 2305W        W45217  23.870   6.443  21.885 -0.0049 -0.4089  0.0120
 2306W        W45218  22.569  10.709  19.517 -0.1558  0.0161 -0.1255
 2307W        W45219  23.656   7.951  20.711  0.0899 -0.3136  0.2827
 2308W        W45220  23.602   7.546  23.342  0.0036 -0.2350  0.2183
 2309W        W45221  22.944   6.499  22.293 -0.4189  0.0540 -0.1919
 2310W        W45222  25.565   7.384  22.562 -0.0468 -0.1283  0.3499
 2311W        W45223  23.831   8.343  20.307  0.0177  0.3158  0.0792
 2312W        W45224  24.955   7.866  23.343  0.1123 -0.4482  0.0629
 2313W        W45225  22.022   9.430  20.738  0.1747 -0.1105 -0.0975
 2314W        W45226  24.618   8.749  22.323 -0.4808  0.1708 -0.2789
 2315W        W45227  23.906   9.361  22.736  0.0027 -0.0126  0.1224
 2316W        W45228  22.761  10.432  22.587 -0.0835  0.1225 -0.2105
 2317W        W45229  23.952   9.844  22.765  0.0404 -0.0318  0.0911
 2318W        W45230  23.915   7.224  20.766  0.0692 -0.0740  0.6043
 2319W        W45231  24.986   8.681  24.583 -0.0135  0.3630  0.1849
 2320W        W45232  24.161   7.781  21.625  0.1584 -0.0261 -0.3194
 2321W        W45233  23.353   9.821  19.642  0.2044 -0.0241  0.0034
 2322W        W45234  21.371  10.403  20.395 -0.0263  0.1825  0.0104
 2323W        W45235  23.375   6.935  22.857 -0.2849 -0.3394  0.0532
 2324W        W45236  24.419   9.535  22.048 -0.3203 -0.2003 -0.2027
 2325W        W45237  22.921   8.408  19.416 -0.1019 -0.0708  0.2260
 2326W        W45238  24.666   9.349  23.385  0.2925 -0.1774  0.2510
 2327W        W45239  23.426  10.083  21.882 -0.0307  0.0054 -0.1277
 2328W        W45240  25.110   8.086  22.913 -0.0913 -0.0820  0.3255
 2329W        W45241  21.944  10.552  21.521 -0.3167  0.3257 -0.1482
 2330W        W45242  22.871   7.007  19.580 -0.0048  0.0641 -0.2741
 2331W        W45243  21.391   8.400  19.948 -0.1777 -0.0908  0.2800
 2332W        W45244  24.235   7.418  22.147 -0.3265  0.0633  0.2235
 2333W        W45245  25.621   9.593  19.282  0.1486  0.1356  0.2162
 2334W        W45246  23.631   7.449  21.584  0.3819  0.2252 -0.0114
 2335W        W45247  23.181   7.382  20.090 -0.2184  0.0649  0.1761
 2336W        W45248  21.812  12.409  22.239  0.0141 -0.1488  0.0469
 2337W        W45249  23.645   9.020  20.734  0.1927 -0.3716  0.2573
 2338W        W45250  25.288   6.950  20.953  0.0993 -0.0269 -0.1036
 2339W        W45251  24.201   9.607  23.203  0.0100  0.1495 -0.1646
 2340W        W45252  24.229  10.438  24.631  0.1727  0.0634  0.0491
 2341W        W45253  22.360   8.800  18.530  0.0809 -0.1535 -0.2762
 2342W        W45254  25.921   6.566  23.518 -0.1504 -0.4751 -0.0124
 2343W        W45255  23.358   8.222  19.625  0.1471  0.0991  0.0169
 2344W        W45256  21.620  10.537  21.109 -0.1358 -0.0951  0.1692
 2345W        W45257  23.290  10.182  20.324 -0.0373  0.1487  0.0772
 2346W        W45258  22.190   9.788  19.480 -0.0981 -0.2878  0.0832
 2347W        W45259  23.641   9.022  20.127 -0.3625 -0.0076 -0.0475
 2348W        W45260  23.199   8.886  23.870  0.3480 -0.0432 -0.3087
 2349W        W45261  24.510   8.823  23.170  0.1502  0.2082  0.0427
 2350W        W45262  23.327   7.253  22.404  0.1133 -0.1645  0.1262
 2351W        W45263  23.630   6.860  21.743 -0.0146 -0.2613  0.3740
 2352W        W45264  24.622   8.215  22.084 -0.1239  0.0315 -0.1736
 2353W        W45265  24.161  10.540  21.789 -0.0650 -0.2331  0.0571
 2354W        W45266  24.030   8.150  22.274  0.1172 -0.1779  0.0650
 2355W        W45267  24.847  10.454  24.973  0.0875 -0.1087 -0.0937
 2356W        W45268  22.488   6.210  20.959 -0.1791 -0.3546 -0.0802
 2357W        W45269  24.385  11.406  21.402 -0.0946  0.1006  0.0462
 2358W        W45270  24.315   9.627  21.202  0.5428 -0.4775 -0.1055
 2359W        W45271  22.819   9.681  19.658  0.1769 -0.1020 -0.1038
 2360W        W45272  22.432   8.200  23.142 -0.0749  0.0951  0.0394
 2361W        W45273  24.521   8.908  19.571  0.3697  0.0911  0.6098
 2362W        W45274  23.026   6.923  21.949 -0.2118 -0.1980  0.3052
 2363W        W45275  23.240   8.629  23.343  0.3348  0.0579  0.2813
 2364W        W45276  23.771   9.631  19.809 -0.0955  0.1284  0.0271
 2365W        W45277  22.541  11.414  22.623 -0.0779  0.0416  0.1992
 2366W        W45278  23.691   7.336  19.983 -0.0213 -0.0438  0.0860
 2367W        W45279  22.920   9.956  20.063 -0.1125 -0.1732 -0.0537
 2368W        W45280  23.885   9.030  19.672  0.0694 -0.3691 -0.1263
 2369W        W45281  26.957   8.204  24.084  0.0956  0.1108 -0.2013
 2370W        W45282  24.181   8.755  19.961 -0.1670 -0.2733 -0.2729
 2371W        W45283  25.425   8.315  23.738 -0.0483  0.1126  0.1864
 2372W        W45284  22.368   6.032  21.927  0.0621 -0.1093 -0.0495
 2373W        W45285  25.336   9.058  20.008 -0.0609  0.3054 -0.1347
 2374W        W45286  22.336   6.960  23.810 -0.2802 -0.0253 -0.0253
 2375W        W45287  23.651  10.693  23.569 -0.3232 -0.1189 -0.3162
 2376W        W45288  22.008   9.444  23.196 -0.1438 -0.0381 -0.3456
 2377W        W45289  23.593   7.536  21.072  0.0868 -0.0140  0.1364
 2378W        W45290  22.609   7.459  20.071 -0.0418  0.1296  0.0422
 2379W        W45291  23.354   9.826  21.380  0.1564  0.0419  0.2271
 2380W        W45292  24.726  10.388  21.780  0.1693 -0.0435  0.1717
 2381W        W45293  23.408   8.724  20.460  0.2648 -0.1734 -0.3908
 2382W        W45294  26.044   7.081  22.261 -0.2967  0.1172 -0.0428
 2383W        W45295  22.848   8.747  22.058  0.3270 -0.0343  0.1486
 2384W        W45296  23.516   8.884  21.518  0.1067  0.2367 -0.2581
 2385W        W45297  24.765   8.438  19.375  0.0086  0.0553  0.0814
 2386W        W45298  23.728   8.556  19.620  0.1042 -0.0570 -0.1624
 2387W        W45299  22.864   7.400  23.866 -0.0244  0.0586 -0.0851
 2388W        W45300  24.367  10.582  20.981  0.1885  0.1620  0.1177
 2389W        W45301  24.647   6.879  22.778  0.1828  0.2166 -0.6729
 2390W        W45302  25.352   7.555  23.620 -0.0107 -0.0025 -0.0463
 2391W        W45303  25.470   8.455  22.365  0.1342  0.1850  0.0224
 2392W        W45304  23.836   9.141  23.929  0.2854 -0.3572  0.0641
 2393W        W45305  23.548   6.358  24.005 -0.1672  0.0220 -0.0776
 2394W        W45306  24.257  11.160  21.860 -0.0602 -0.2565  0.0682
 2395W        W45307  24.663   8.461  19.845 -0.1499  0.1513  0.2255
 2396W        W45308  24.567   8.078  22.716 -0.0584  0.1245 -0.0739
 2397W        W45309  25.402   8.779  20.434 -0.1238  0.2640 -0.1723
 2398W        W45310  24.600   8.898  20.372  0.2860  0.2988 -0.0890
 2399W        W45311  22.805   7.401  22.232 -0.1167 -0.0051 -0.3054
 2400W        W45312  24.680   9.243  22.446 -0.1830 -0.2709  0.4343
 2401W        W45313  22.753   7.573  20.572 -0.4333  0.1938  0.1912
 2402W        W45314  23.642   8.970  22.518  0.0930  0.1255 -0.0117
 2403W        W45315  24.562  11.870  21.196 -0.0093 -0.0119 -0.2495
 2404W        W45316  26.561  11.384  23.267  0.0441 -0.0576  0.1268
 2405W        W45317  23.891   8.061  21.233  0.0510  0.0901 -0.1731
 2406W        W45318  23.093   7.681  21.457  0.0698  0.2579  0.2101
 2407W        W45319  22.378   9.706  22.877  0.0746 -0.0663 -0.1077
 2408W        W45320  22.970   8.908  20.627 -0.2451  0.0403  0.2638
 2409W        W45321  24.253   8.971  18.413  0.0480  0.1266 -0.2044
 2410W        W45322  24.227   9.062  21.924 -0.1383  0.2014  0.0755
 2411W        W45323  24.890  10.303  24.064  0.1261  0.0315  0.4306
 2412W        W45324  23.942   6.029  21.399  0.0336 -0.4060  0.2245
 2413W        W45325  26.253   8.892  22.583  0.0391 -0.0831  0.0856
 2414W        W45326  21.922   9.975  20.998  0.3161 -0.2371  0.1712
 2415W        W45327  24.423   6.196  21.588  0.3948 -0.0423 -0.1476
 2416W        W45328  23.884  11.761  22.706 -0.1248  0.1335 -0.1018
 2417W        W45329  21.656  11.087  21.769  0.0473  0.1948  0.1197
 2418W        W45330  23.884   9.477  19.388  0.0727 -0.1764 -0.0883
 2419W        W45331  23.341   7.584  22.850 -0.1439  0.2442 -0.2603
 2420W        W45332  25.430   8.583  21.586  0.1038  0.2258  0.1998
 2421W        W45333  24.579   9.845  20.614  0.0269  0.4208 -0.0816
 2422W        W45334  25.316   8.497  22.906  0.2596 -0.0978  0.1971
 2423W        W45335  24.874   9.983  23.660  0.2311  0.2425 -0.3376
 2424W        W45336  23.323   8.684  22.197 -0.0808  0.0018  0.0565
 2425W        W45337  23.693  10.210  21.526  0.1523 -0.2551  0.0779
 2426W        W45338  23.711   9.903  20.292  0.0429 -0.1821  0.1644
 2427W        W45339  22.602   8.514  21.651 -0.0422  0.1525  0.1985
 2428W        W45340  22.044   7.734  23.241 -0.1431  0.2809 -0.0924
 2429W        W45341  23.946   8.274  24.226 -0.1152 -0.2141  0.1408
 2430W        W45342  24.006   9.265  20.899 -0.0063  0.0453 -0.1969
 2431W        W45343  23.493   9.334  21.236 -0.1540  0.1111  0.1277
 2432W        W45344  23.021   9.732  20.520 -0.0880  0.2976  0.2029
 2433W        W45345  22.695   9.903  22.534 -0.2341 -0.0506  0.2897
 2434W        W45346  22.234   8.118  23.605 -0.0306  0.3292  0.2453
 2435W        W45347  23.967  10.262  19.798  0.2068  0.0844  0.2886
 2436W        W45348  25.295   9.264  20.857  0.4463 -0.1231  0.1339
 2437W        W45349  25.022  10.043  20.434  0.0511  0.1840  0.1254
 2438W        W45350  25.333  10.466  21.349 -0.1956  0.4436 -0.2803
 2439W        W45351  23.370   7.983  21.176 -0.1320 -0.1965  0.1619
 2440W        W45352  21.893  10.399  22.431 -0.2003  0.0340  0.0282
 2441W        W45353  20.624   9.403  19.362  0.2633  0.0017  0.1941
 2442W        W45354  24.262   9.330  20.487  0.1824 -0.0004  0.1224
 2443W        W45355  23.220  10.146  20.853  0.0971  0.0397 -0.0330
 2444W        W45356  24.278  10.528  22.729  0.0140 -0.0330  0.0986
 2445W        W45357  25.027   6.217  20.178  0.1353 -0.5656  0.1732
 2446W        W45358  25.003   9.601  21.998 -0.1199 -0.0390 -0.0316
 2447W        W45359  24.970   8.921  19.626 -0.0833  0.1082  0.0410
 2448W        W45360  23.664  10.342  24.441 -0.1898  0.5489 -0.0642
 2449W        W45361  21.995   7.092  20.847  0.2591  0.3263 -0.1633
 2450W        W45362  23.416   7.111  20.889 -0.0415 -0.3265 -0.0764
 2451W        W45363  23.574   9.030  23.035 -0.1831 -0.0994  0.0053
 2452W        W45364  25.451   7.975  24.220 -0.1180 -0.1671  0.1819
 2453W        W45365  22.392  10.223  22.286  0.0892  0.0921  0.0627
 2454W        W45366  23.955  10.441  19.263 -0.2154 -0.3967 -0.1029
 2455W        W45367  21.518   7.156  20.978  0.0760  0.3862 -0.1201
 2456W        W45368  23.994   8.724  21.582 -0.1505 -0.0118  0.1623
 2457W        W45369  25.168   7.104  23.344  0.2302 -0.0255  0.0342
 2458W        W45370  24.619   9.343  18.948 -0.0823 -0.0975 -0.0174
 2459W        W45371  23.493   7.993  21.692 -0.4839  0.3265  0.3221
 2460W        W45372  24.080   9.770  20.699  0.1645  0.2181 -0.1944
 2461W        W45373  23.496   9.950  22.423 -0.1597  0.3692 -0.2840
 2462W        W45374  23.132   9.625  22.297 -0.0540  0.0875  0.1922
 2463W        W45375  22.769   7.827  21.007 -0.0053  0.1987 -0.0829
 2464W        W45376  26.385   8.370  20.490  0.0849  0.0759 -0.1642
 2465W        W45377  22.656   8.885  22.471  0.0044  0.0918 -0.1837
 2466W        W45378  23.304   8.143  22.748 -0.3158  0.0595  0.1196
 2467W        W45379  23.446   8.460  19.145 -0.0615 -0.0812  0.2402
 2468W        W45380  25.552   8.225  21.952  0.1032  0.1497  0.1905
 2469W        W45381  22.443   9.361  22.361  0.2476  0.2024 -0.0614
 2470W        W45382  22.780   7.792  21.902 -0.0006 -0.1931 -0.0081
 2471W        W45383  24.223   8.191  20.729 -0.0853 -0.0128  0.2172
 2472W        W45384  24.196   9.090  23.424 -0.0924  0.0347  0.1006
 2473W        W45385  22.734   8.835  19.553  0.2281  0.0557 -0.0887
 2474W        W45386  25.118  10.317  23.267 -0.1547 -0.2887  0.0277
 2475W        W45387  22.276   5.042  19.339 -0.1204  0.0718  0.0596
 2476W        W45388  24.804   8.484  20.569 -0.0445 -0.1496 -0.1706
 2477W        W45389  22.003   8.885  21.633  0.1311 -0.0660 -0.0832
 2478W        W45390  22.595   7.671  24.198 -0.0121 -0.1033  0.1071
 2479W        W45391  24.681  11.772  23.992  0.1412  0.1290  0.3976
 2480W        W45392  21.644   7.271  19.861  0.2281 -0.3940 -0.0838
 2481W        W45393  25.014  11.014  20.247  0.0630  0.2210 -0.2943
 2482W        W45394  25.280   8.787  21.107 -0.3192 -0.1082 -0.1614
 2483W        W45395  23.582  10.043  18.892 -0.0050  0.1775  0.1704
 2484W        W45396  24.609   9.708  20.057  0.0655  0.0213  0.1705
 2485W        W45397  24.697  10.409  20.527  0.1140 -0.3301 -0.1947
 2486W        W45398  21.960   6.951  22.840  0.0687 -0.3612 -0.1060
 2487W        W45399  24.259  10.897  22.385 -0.1269 -0.1423 -0.0012
 2488W        W45400  24.364  10.115  21.971 -0.0184  0.0034  0.1285
 2489W        W45401  23.395   6.709  21.297 -0.0989  0.0926 -0.0119
 2490W        W45402  21.473   8.656  20.793  0.1040  0.2003  0.0077
 2491W        W45403  22.914  10.256  21.282 -0.1537  0.0468 -0.0164
 2492W        W45404  25.101   6.016  21.810  0.1927 -0.1148 -0.0121
 2493W        W45405  24.521   8.742  23.668  0.0028  0.2137 -0.0978
 2494W        W45406  22.924  10.908  20.497  0.1925 -0.1304  0.3367
 2495W        W45407  25.141   8.349  24.233  0.0119 -0.0767 -0.0718
 2496W        W45408  23.437   9.480  22.693  0.1308 -0.2275  0.1556
 2497W        W45409  23.204   9.071  21.856  0.1197 -0.1337 -0.1098
 2498W        W45410  20.640   8.792  19.211 -0.1941 -0.1630 -0.2415
 2499W        W45411  24.071   8.455  23.352 -0.1909  0.1078 -0.1591
 2500W        W45412  24.872   9.352  20.502  0.0160 -0.1185  0.1946
 2501W        W45413  23.613  10.848  19.845  0.2321 -0.0730  0.1977
 2502W        W45414  25.522   9.583  21.158  0.1357 -0.0242 -0.4858
 2503W        W45415  26.144  10.173  20.546  0.0798 -0.0290 -0.1308
 2504W        W45416  25.831  10.316  21.436  0.3037  0.0944  0.0038
 2505W        W45417  23.554   7.528  20.425 -0.1669  0.2940 -0.0486
 2506W        W45418  24.035   8.208  21.736 -0.1608  0.1475  0.0299
 2507W        W45419  24.569   7.509  21.325 -0.1038 -0.2400  0.3076
 2508W        W45420  22.805   9.472  22.695 -0.0736 -0.1233 -0.0968
 2509W        W45421  22.208  10.416  21.079  0.1658  0.1725  0.0596
 2510W        W45422  21.569   8.340  18.844  0.1104 -0.2116  0.1812
 2511W        W45423  22.664   8.995  21.594 -0.1081 -0.4647 -0.1875
 2512W        W45424  23.406   6.519  22.674 -0.0279 -0.3619  0.2785
 2513W        W45425  22.846   7.899  22.881 -0.0033 -0.1132 -0.1973
 2514W        W45426  21.621  10.064  21.388 -0.3216 -0.5400  0.0399
 2515W        W45427  23.104   7.137  21.450  0.1608  0.1588 -0.0080
 2516W        W45428  24.530  10.256  19.849 -0.1192  0.0567 -0.1252
 2517W        W45429  22.542   7.668  21.429 -0.0952 -0.0057 -0.0528
 2518W        W45430  22.063   6.966  22.314  0.2589 -0.1332 -0.2598
 2519W        W45431  22.284   9.274  21.873 -0.1218  0.0325 -0.1784
 2520W        W45432  25.742   9.830  21.535  0.1563  0.1483 -0.1933
 2521W        W45433  22.194   7.114  20.168  0.0958 -0.2344  0.0401
 2522W        W45434  24.791  10.482  23.626 -0.3279 -0.1249 -0.1010
 2523W        W45435  21.561   9.251  19.837 -0.0234 -0.0256 -0.1479
 2524W        W45436  23.614   9.981  23.134  0.2693  0.3239  0.0179
 2525W        W45437  23.097   7.857  22.367 -0.3911 -0.0400  0.0455
 2526W        W45438  21.912   8.181  19.820 -0.1383 -0.0494 -0.1336
 2527W        W45439  22.003   7.179  21.885 -0.1315 -0.0259  0.3763
 2528W        W45440  23.248   8.731  19.598  0.1889  0.1308  0.2610
 2529W        W45441  23.851  11.791  18.911  0.4393  0.0175 -0.0403
 2530W        W45442  23.029  10.109  22.206  0.1470  0.0127 -0.1218
 2531W        W45443  23.704   9.523  22.250  0.0201  0.2086 -0.2500
 2532W        W45444  21.910   8.118  23.004  0.3586  0.0368 -0.3532
 2533W        W45445  25.486   9.078  21.472  0.1171 -0.0311 -0.2341
 2534W        W45446  23.194  10.173  24.743 -0.2363 -0.0424  0.3391
 2535W        W45447  25.099   9.533  19.737 -0.1769 -0.2002  0.2593
 2536W        W45448  24.624   7.786  22.347  0.3063 -0.0765 -0.1911
 2537W        W45449  23.908   8.636  19.014 -0.1875 -0.0387 -0.2042
 2538W        W45450  21.610   8.044  24.555 -0.3848 -0.0450 -0.3659
 2539W        W45451  22.289   9.129  23.479 -0.0578  0.0854  0.3876
 2540W        W45452  25.315   9.734  22.400 -0.1569 -0.1410  0.1239
 2541W        W45453  23.012   6.894  21.011  0.0540  0.2050  0.2515
 2542W        W45454  25.034   8.225  21.060  0.2005  0.0125 -0.2883
 2543W        W45455  25.928  11.385  19.796  0.0444  0.1369  0.0711
 2544W        W45456  22.344   8.006  21.731 -0.2136  0.0847  0.1722
 2545W        W45457  24.415   8.401  20.264  0.0614  0.2322 -0.0509
 2546W        W45458  23.410   6.795  22.248 -0.0717  0.2168  0.1215
 2547W        W45459  23.856   9.697  21.148 -0.1388  0.1842 -0.1202
 2548W        W45460  24.650   9.380  21.586  0.1382 -0.0827 -0.0455
 2549W        W45461  22.730   9.308  20.501 -0.3134 -0.0718 -0.2685
 2550W        W45462  26.467   8.663  21.565 -0.0896  0.4729 -0.3766
 2551W        W45463  23.887  11.248  22.352 -0.1347 -0.4062 -0.0013
 2552W        W45464  24.610  10.457  22.323 -0.3964 -0.4648 -0.0636
 2553W        W45465  23.615  10.446  23.103 -0.3132  0.0366 -0.0205
 2554W        W45466  25.294  10.234  22.432  0.3624  0.1287 -0.0347
 2555W        W45467  24.116   7.353  23.372 -0.2555  0.2161  0.3716
 2556W        W45468  22.685   8.026  19.249 -0.1193 -0.0903  0.5082
 2557W        W45469  23.331   9.246  19.648 -0.1513 -0.1115  0.0671
 2558W        W45470  23.798   7.118  22.496 -0.1719  0.0707  0.0861
 2559W        W45471  22.976   6.307  20.993  0.3073 -0.1366 -0.0936
 2560W        W45472  24.103   7.442  21.216 -0.2475 -0.0721  0.1372
 2561W        W45473  22.450  11.551  23.811  0.1880 -0.0596 -0.2236
 2562W        W45474  23.236   8.828  21.020  0.3169 -0.0374  0.1390
 2563W        W45475  23.073  10.247  25.898  0.1424 -0.1631  0.2059
 2564W        W45476  24.174   8.581  27.110  0.0344  0.1807 -0.4754
 2565W        W45477  25.697   8.365  23.253 -0.1079  0.4403  0.1547
 2566W        W45478  24.446   9.247  24.912 -0.4433 -0.1009 -0.2748
 2567W        W45479  21.342   7.070  25.221 -0.0780 -0.1335 -0.2941
 2568W        W45480  23.958  10.261  25.018 -0.1629  0.0210  0.0733
 2569W        W45481  22.494   4.613  25.811  0.0688  0.0246 -0.2323
 2570W        W45482  23.441  10.265  26.443  0.1536 -0.1225  0.4653
 2571W        W45483  25.288  10.109  25.456  0.0150  0.1192  0.0795
 2572W        W45484  25.423   9.609  23.831  0.3855  0.3170 -0.2684
 2573W        W45485  23.439   9.430  28.222 -0.0169 -0.1700 -0.1191
 2574W        W45486  22.654   9.319  26.930  0.1122 -0.1751  0.0059
 2575W        W45487  23.028   7.435  24.400  0.1596  0.1206  0.3201
 2576W        W45488  23.722   7.252  25.302 -0.1741 -0.0159  0.0123
 2577W        W45489  26.877   8.357  28.498  0.0834 -0.2049 -0.4473
 2578W        W45490  24.471  10.126  24.357 -0.0826  0.0111 -0.1531
 2579W        W45491  23.491   7.281  26.123  0.0727 -0.2418  0.2212
 2580W        W45492  22.731   7.409  24.826  0.2304  0.1287 -0.0422
 2581W        W45493  24.542  10.872  25.454 -0.0882  0.0205  0.0579
 2582W        W45494  23.667   7.783  26.553  0.4018 -0.2058 -0.0223
 2583W        W45495  23.849   7.624  29.068  0.3643 -0.1102 -0.0520
 2584W        W45496  23.605   9.858  24.710 -0.0487 -0.2174 -0.0289
 2585W        W45497  22.427   9.210  22.876 -0.2369  0.1307 -0.0611
 2586W        W45498  23.587   9.311  24.882  0.1691 -0.2910 -0.0420
 2587W        W45499  22.815   8.786  24.603  0.4709  0.1140  0.0898
 2588W        W45500  25.009   9.039  25.700 -0.1113 -0.1198  0.0923
 2589W        W45501  25.510   9.099  25.601 -0.1914 -0.0803 -0.1292
 2590W        W45502  23.096  11.242  25.398 -0.1833 -0.0984 -0.1850
 2591W        W45503  23.667  10.774  25.793 -0.0993 -0.2068  0.2433
 2592W        W45504  24.547   9.706  27.986 -0.0351 -0.0097 -0.2378
 2593W        W45505  22.794   8.664  24.039 -0.1635  0.3041 -0.0232
 2594W        W45506  21.132   9.660  25.008 -0.2680 -0.0171 -0.0363
 2595W        W45507  23.393   9.874  23.579 -0.2253  0.0701 -0.2482
 2596W        W45508  23.189   9.041  25.895 -0.0776  0.3337 -0.0876
 2597W        W45509  24.995  10.664  26.452 -0.5351 -0.3867 -0.0711
 2598W        W45510  22.958   9.996  29.031 -0.2480 -0.2793  0.0636
 2599W        W45511  23.183   9.901  24.144  0.1621  0.3090  0.3084
 2600W        W45512  24.823  11.727  26.292  0.0251  0.2408  0.1259
 2601W        W45513  23.520   9.564  26.583 -0.2180  0.0402  0.0195
 2602W        W45514  22.423   9.222  27.432  0.4417  0.0269  0.3231
 2603W        W45515  23.975   9.678  26.006 -0.0087 -0.1738  0.1407
 2604W        W45516  22.598   8.381  24.772 -0.0790  0.2074  0.1003
 2605W        W45517  22.843   8.995  26.655 -0.1172  0.3003  0.1798
 2606W        W45518  23.676   9.716  28.579  0.1696  0.0546 -0.3590
 2607W        W45519  22.635   9.011  25.568  0.2310  0.2673  0.1628
 2608W        W45520  26.419   6.832  27.425 -0.1718  0.0736  0.0862
 2609W        W45521  23.555  10.557  24.888 -0.1673 -0.0241  0.1883
 2610W        W45522  24.685   9.543  24.133 -0.0950  0.2039  0.0552
 2611W        W45523  24.066   8.698  23.778 -0.0145 -0.0173 -0.1631
 2612W        W45524  24.190   7.789  24.277  0.1046  0.1776  0.2294
 2613W        W45525  23.693   7.214  24.404  0.0084 -0.2007  0.0726
 2614W        W45526  22.338  10.793  25.624 -0.2670 -0.2462  0.0909
 2615W        W45527  23.648   7.843  26.016 -0.1648 -0.1161 -0.2129
 2616W        W45528  26.188  10.352  26.520 -0.2863  0.2607 -0.0978
 2617W        W45529  24.340   7.714  25.983  0.0961  0.0098 -0.4198
 2618W        W45530  23.833   7.419  25.742 -0.0741  0.0751 -0.0430
 2619W        W45531  22.051  10.153  27.281 -0.1702 -0.1363  0.0896
 2620W        W45532  22.852   7.243  25.692 -0.0136  0.0489  0.0340
 2621W        W45533  24.276  10.853  24.348 -0.1566  0.0355  0.0146
 2622W        W45534  24.214   8.867  26.281 -0.1543  0.0857  0.2463
 2623W        W45535  24.502  10.935  23.605  0.2096 -0.3689 -0.0762
 2624W        W45536  24.471   8.342  25.639  0.4179  0.0602  0.2313
 2625W        W45537  22.864  10.470  27.597  0.0066  0.2105 -0.1791
 2626W        W45538  22.862   8.425  26.549 -0.0582 -0.0500 -0.0902
 2627W        W45539  23.362   7.407  23.779 -0.0545 -0.0670  0.1588
 2628W        W45540  24.819  10.085  27.247 -0.1915  0.2163 -0.1083
 2629W        W45541  21.943   9.275  27.316  0.0329  0.3074  0.0474
 2630W        W45542  25.929   7.539  25.527  0.1803 -0.0849  0.0766
 2631W        W45543  22.204   8.081  25.729  0.2675  0.1090  0.0506
 2632W        W45544  24.283  10.741  25.926 -0.3822  0.0198  0.0579
 2633W        W45545  24.542  10.137  22.829 -0.0913  0.1509  0.1618
 2634W        W45546  25.621   8.511  25.309 -0.3623 -0.0033 -0.0806
 2635W        W45547  25.872   7.867  26.783  0.0334 -0.1626 -0.0726
 2636W        W45548  22.324   9.469  23.891  0.1568  0.1070 -0.1124
 2637W        W45549  22.547   9.105  24.182  0.2121 -0.1572  0.0724
 2638W        W45550  25.170  11.198  26.907 -0.1862  0.4569 -0.1480
 2639W        W45551  25.429   8.834  23.418 -0.1182 -0.5045 -0.2248
 2640W        W45552  22.913   8.163  25.169 -0.0810  0.0225 -0.1185
 2641W        W45553  22.765   7.884  28.203 -0.0082  0.1316 -0.1645
 2642W        W45554  23.294  11.101  26.907  0.1445  0.0672  0.1190
 2643W        W45555  22.806  10.695  23.540  0.2260 -0.1389 -0.0966
 2644W        W45556  20.681   8.183  25.690  0.1656  0.3052  0.0755
 2645W        W45557  23.225   9.999  22.830  0.2075  0.0706  0.2103
 2646W        W45558  21.859   8.123  26.497  0.1604 -0.3974  0.2329
 2647W        W45559  21.847  11.081  26.491 -0.1824 -0.0167  0.2886
 2648W        W45560  24.505   8.779  24.598 -0.2541 -0.0637  0.0174
 2649W        W45561  23.176   8.463  28.172 -0.1665 -0.2443 -0.4541
 2650W        W45562  26.399   6.673  26.861 -0.0301 -0.0563 -0.1432
 2651W        W45563  22.083   9.835  24.199 -0.0436 -0.2104  0.0389
 2652W        W45564  26.195  12.896  25.561  0.0522 -0.5643  0.1762
 2653W        W45565  25.369   8.109  25.113 -0.3244 -0.0480 -0.0408
 2654W        W45566  25.834   8.990  24.272  0.3602  0.0017  0.1644
 2655W        W45567  22.647   8.892  27.124 -0.2604  0.2935  0.2261
 2656W        W45568  23.819   7.561  24.900  0.4501 -0.1043  0.4457
 2657W        W45569  22.741   7.401  27.918  0.1881 -0.0198  0.0959
 2658W        W45570  22.250   7.073  26.083  0.0437 -0.1857  0.3236
 2659W        W45571  25.269   7.637  27.750  0.0102 -0.0177 -0.1133
 2660W        W45572  22.384   6.903  25.083 -0.1535  0.0005  0.0566
 2661W        W45573  25.962   8.747  26.465  0.1010  0.0058 -0.0699
 2662W        W45574  23.736   7.757  25.365  0.1247 -0.1638  0.1385
 2663W        W45575  20.749  10.080  24.361  0.1544 -0.0573 -0.0596
 2664W        W45576  24.724  10.364  28.974 -0.0451 -0.1322 -0.1559
 2665W        W45577  24.519   9.755  25.826  0.1994 -0.1855  0.5321
 2666W        W45578  24.054  11.106  26.191  0.2967  0.1158  0.3544
 2667W        W45579  23.135   9.770  25.634  0.1274  0.0810  0.0854
 2668W        W45580  23.474   8.593  27.071 -0.2034  0.1725  0.2296
 2669W        W45581  22.131   7.825  24.035 -0.4569  0.1375  0.1342
 2670W        W45582  22.034   9.321  24.889  0.0307  0.2668  0.2660
 2671W        W45583  22.288   9.543  26.163  0.2177  0.0221  0.2263
 2672W        W45584  24.242   7.249  24.043  0.3107 -0.1332  0.3412
 2673W        W45585  24.555  11.238  26.073 -0.1375  0.0032  0.0844
 2674W        W45586  24.537   8.186  26.896 -0.0972 -0.1172  0.0969
 2675W        W45587  22.306   9.740  27.123 -0.0594  0.3732  0.0778
 2676W        W45588  25.384   7.966  26.556  0.1669  0.2193 -0.0710
 2677W        W45589  25.892   9.995  27.771  0.0609  0.0126 -0.0086
 2678W        W45590  24.462   8.671  26.703 -0.2191  0.4376  0.1673
 2679W        W45591  23.361   7.361  25.052 -0.0997 -0.1047  0.1054
 2680W        W45592  23.567   8.757  25.700  0.1512  0.0009  0.5070
 2681W        W45593  21.048   9.197  24.789 -0.1781 -0.1343 -0.0664
 2682W        W45594  23.072   9.099  24.285 -0.1115 -0.1761  0.0739
 2683W        W45595  22.370   9.196  26.498  0.2908 -0.0050 -0.1149
 2684W        W45596  25.217   7.344  26.044  0.1013  0.0645 -0.0521
 2685W        W45597  21.465   9.341  27.629 -0.0256  0.2594 -0.0383
 2686W        W45598  25.498   7.500  26.965  0.0050 -0.3238  0.1139
 2687W        W45599  22.376   8.034  24.455  0.1785  0.0266  0.0224
 2688W        W45600  23.183  11.247  26.439 -0.0828  0.0400 -0.3009
 2689W        W45601  24.887   7.634  25.691 -0.1342  0.0708  0.0474
 2690W        W45602  23.268   9.531  24.463 -0.3251  0.1847 -0.2203
 2691W        W45603  25.630   7.805  27.372 -0.0643 -0.2698 -0.3107
 2692W        W45604  25.670   9.456  24.323 -0.2478  0.0030 -0.1430
 2693W        W45605  24.575   7.472  23.523  0.2582  0.2402  0.0372
 2694W        W45606  23.613   8.460  21.825 -0.0397  0.2606 -0.2364
 2695W        W45607  22.862  10.134  28.517  0.2674 -0.2551  0.2160
 2696W        W45608  22.471   8.648  26.752  0.0386 -0.4516 -0.0255
 2697W        W45609  22.987  10.259  26.820  0.1137 -0.1129 -0.0905
 2698W        W45610  23.600   8.990  24.360 -0.1722 -0.2343  0.0351
 2699W        W45611  24.721  11.064  24.504  0.1088  0.3773  0.2797
 2700W        W45612  22.208   8.455  26.350  0.0483 -0.0516 -0.0568
 2701W        W45613  24.786  10.979  27.529 -0.1372  0.1376 -0.2759
 2702W        W45614  24.484   9.045  25.872  0.3049  0.0394 -0.1328
 2703W        W45615  22.827   7.467  26.960 -0.0245  0.2068 -0.1274
 2704W        W45616  24.820   8.005  25.310  0.1974  0.1935  0.1784
 2705W        W45617  24.485   6.580  25.857  0.0181 -0.1018 -0.1469
 2706W        W45618  23.678   9.884  24.228 -0.0107 -0.1694 -0.0535
 2707W        W45619  24.683   8.280  27.905  0.0136 -0.0739  0.2697
 2708W        W45620  24.571   8.074  24.144 -0.1090 -0.2958  0.0356
 2709W        W45621  24.259   8.425  28.241  0.0763 -0.0514 -0.1692
 2710W        W45622  25.869   8.949  27.763 -0.0451 -0.2522  0.0039
 2711W        W45623  24.078   7.974  25.714 -0.0153 -0.1376 -0.0187
 2712W        W45624  23.767   8.946  27.233  0.2295  0.0860 -0.0014
 2713W        W45625  23.648   8.631  23.999  0.0274  0.0812 -0.2175
 2714W        W45626  22.613   7.071  27.503  0.1266 -0.1525 -0.2079
 2715W        W45627  22.155   8.861  27.068  0.2802 -0.0806  0.1802
 2716W        W45628  22.602  10.147  27.370 -0.0399  0.0220 -0.0801
 2717W        W45629  25.769  10.132  26.275 -0.1481 -0.0023  0.1784
 2718W        W45630  23.831   9.969  26.415  0.1160  0.0122 -0.0475
 2719W        W45631  24.669   8.785  27.564  0.1101  0.0681 -0.0264
 2720W        W45632  23.618   8.816  25.151 -0.0602 -0.0311  0.2213
 2721W        W45633  23.025   9.860  26.495 -0.1598  0.1027  0.4819
 2722W        W45634  22.797   9.522  24.228  0.1172 -0.0287  0.2648
 2723W        W45635  24.284   7.576  26.608 -0.1831 -0.1056 -0.0812
 2724W        W45636  23.141  10.713  25.735  0.0066  0.3463 -0.1322
 2725W        W45637  24.004  10.245  24.100 -0.0019  0.2235  0.1433
 2726W        W45638  23.237   9.545  26.129 -0.0387  0.2004 -0.1222
 2727W        W45639  22.811  10.859  24.462  0.0355  0.0478  0.2298
 2728W        W45640  26.050   7.485  27.219  0.0418  0.1470 -0.2328
 2729W        W45641  21.840   8.364  25.957  0.1906  0.0950 -0.1927
 2730W        W45642  23.712   8.032  23.796  0.3896 -0.2853 -0.1197
 2731W        W45643  22.470   7.857  24.931  0.2212 -0.1738  0.0745
 2732W        W45644  25.222   8.803  25.197 -0.1283 -0.4150 -0.1747
 2733W        W45645  25.355   9.180  24.758  0.1450 -0.0326 -0.1729
 2734W        W45646  22.087   9.329  26.859 -0.0311 -0.1058  0.1434
 2735W        W45647  24.608   7.017  24.397  0.1334 -0.0726 -0.0060
 2736W        W45648  21.442  10.512  25.247  0.0512  0.0286  0.1363
 2737W        W45649  24.843   8.938  26.816 -0.4020  0.0582 -0.3561
 2738W        W45650  24.119   7.614  23.771 -0.1556  0.0539 -0.0377
 2739W        W45651  24.001   9.376  27.244 -0.2574 -0.3112  0.2076
 2740W        W45652  22.989   9.712  28.192 -0.0290 -0.3232  0.5506
 2741W        W45653  21.305   8.491  24.376  0.1250 -0.0929  0.0528
 2742W        W45654  24.464   8.368  26.229  0.1535 -0.3031 -0.1493
 2743W        W45655  23.167   8.122  25.641 -0.2495 -0.2333  0.1421
 2744W        W45656  22.914   9.340  24.789 -0.2782 -0.1033 -0.0697
 2745W        W45657  23.048  10.758  26.541 -0.1151 -0.0171  0.3833
 2746W        W45658  23.736   8.895  23.503 -0.0649  0.0232  0.1547
 2747W        W45659  21.418   9.260  25.299  0.0116  0.2569  0.1729
 2748W        W45660  22.611   8.643  29.053 -0.0527  0.0138  0.0147
 2749W        W45661  25.629   8.951  28.471  0.3331  0.0584  0.3514
 2750W        W45662  23.329   8.651  26.583  0.1912 -0.0806 -0.0912
 2751W        W45663  22.665   6.751  25.854 -0.0962  0.0430 -0.0216
 2752W        W45664  23.255   9.075  26.381  0.0545 -0.0380 -0.1096
 2753W        W45665  23.884   8.740  26.697  0.0749  0.0052 -0.1383
 2754W        W45666  23.781   8.405  28.087 -0.2604 -0.3376  0.0462
 2755W        W45667  24.265  10.186  27.152 -0.1445 -0.2337 -0.2464
 2756W        W45668  24.089   7.993  26.279  0.1470  0.1509  0.1264
 2757W        W45669  25.245  12.707  25.832  0.0829 -0.0626  0.0181
 2758W        W45670  25.029   9.378  27.146  0.2080  0.2897 -0.1859
 2759W        W45671  24.350   9.274  24.379  0.2653 -0.1597 -0.3357
 2760W        W45672  22.194   8.646  25.695 -0.0326 -0.0468  0.0313
 2761W        W45673  23.893   9.609  23.745 -0.0730 -0.2361  0.2991
 2762W        W45674  23.673   8.794  27.721 -0.1529  0.0609 -0.2257
 2763W        W45675  22.536   8.194  23.973 -0.2613  0.0278  0.1655
 2764W        W45676  22.811   9.638  25.209 -0.3056  0.0423 -0.0249
 2765W        W45677  23.178  10.140  27.846  0.0335 -0.0686 -0.1408
 2766W        W45678  25.901   7.053  24.628  0.2157 -0.2462  0.3826
 2767W        W45679  24.496  11.209  24.050 -0.1032  0.2336  0.1626
 2768W        W45680  24.737   8.988  26.312 -0.0855 -0.1386  0.0772
 2769W        W45681  25.895   8.263  27.355  0.0199  0.0793  0.3052
 2770W        W45682  23.631  10.750  24.083  0.0029 -0.1726 -0.2804
 2771W        W45683  25.170   9.579  28.626  0.1327  0.1020  0.0008
 2772W        W45684  23.039   7.357  27.495  0.1443  0.2272  0.0229
 2773W        W45685  23.978   8.996  24.772 -0.3759 -0.0395 -0.1222
 2774W        W45686  23.051   8.660  25.483  0.0054 -0.2878 -0.0679
 2775W        W45687  23.037  10.654  28.033  0.1994  0.1640  0.0296
 2776W        W45688  23.436  10.274  29.325 -0.1070 -0.0019  0.1528
 2777W        W45689  25.513   7.816  26.045 -0.1539  0.2513 -0.0523
 2778W        W45690  24.235   7.209  24.627  0.1181  0.3072  0.0135
 2779W        W45691  23.397   9.223  28.682 -0.1657 -0.0431  0.0703
 2780W        W45692  24.186   9.624  26.852  0.1103  0.4337 -0.2833
 2781W        W45693  23.608   9.210  25.497  0.3264  0.2291  0.1001
 2782W        W45694  24.838   8.142  25.930 -0.0396 -0.0678  0.0764
 2783W        W45695  22.701   8.427  25.746  0.0003 -0.4059  0.0268
 2784W        W45696  22.712   8.966  26.116 -0.1115 -0.0132  0.0205
 2785W        W45697  24.858   8.659  25.942 -0.0688  0.1233 -0.0215
 2786W        W45698  23.368   9.874  25.141 -0.0429  0.1569 -0.1346
 2787W        W45699  22.609   8.066  28.905  0.1114 -0.1494 -0.0888
 2788W        W45700  24.322   9.368  26.235  0.0294  0.0676 -0.3207
 2789W        W45701  26.105   8.368  25.479  0.0232 -0.0737 -0.0925
 2790W        W45702  24.023   8.091  27.734 -0.1051  0.0046  0.0330
 2791W        W45703  23.934   7.478  26.232  0.2325  0.1561  0.3095
 2792W        W45704  23.884   9.602  28.147  0.0056 -0.0360 -0.0043
 2793W        W45705  23.665   8.034  26.971  0.2281  0.4532  0.0584
 2794W        W45706  25.166  12.478  27.353 -0.2625 -0.2606 -0.2269
 2795W        W45707  24.057   9.989  24.592  0.0428  0.0671 -0.2238
 2796W        W45708  26.180   8.363  26.060 -0.1812 -0.2784  0.3199
 2797W        W45709  24.377   9.677  25.149  0.2100  0.1536  0.0564
 2798W        W45710  24.529   8.403  25.173  0.0789  0.2840  0.2432
 2799W        W45711  24.247   7.664  25.407 -0.1996  0.1392  0.1111
 2800W        W45712  25.755   9.732  29.059 -0.1451  0.1759  0.0320
 2801W        W45713  23.459   8.166  24.314 -0.3167 -0.2063 -0.0648
 2802W        W45714  24.732   7.320  27.347 -0.1907  0.4171  0.1671
 2803W        W45715  22.710  10.368  24.546  0.1743 -0.0327 -0.0670
 2804W        W45716  23.969   8.488  25.369  0.1926 -0.3054  0.1238
 2805W        W45717  24.782   7.513  25.218  0.0236 -0.3467 -0.1798
 2806W        W45718  22.356   8.616  24.307  0.1707 -0.1124 -0.0705
 2807W        W45719  22.888   9.837  27.565 -0.1663  0.2040  0.2916
 2808W        W45720  23.192   8.380  23.912 -0.1734 -0.1029  0.1750
 2809W        W45721  23.323   9.478  23.968  0.0699  0.2027  0.2943
 2810W        W45722  22.960   9.434  27.317 -0.2288 -0.0149 -0.1630
 2811W        W45723  25.383   8.814  27.997 -0.1117 -0.2099 -0.4418
 2812W        W45724  23.968   7.891  23.383 -0.5223  0.0885 -0.2134
 2813W        W45725  25.591   8.341  27.703 -0.1735 -0.2184  0.1329
 2814W        W45726  22.450   9.531  24.646 -0.2105 -0.3744  0.0761
 2815W        W45727  23.027   7.000  26.600 -0.1031  0.0473 -0.1350
 2816W        W45728  23.714  12.002  24.960  0.3107  0.0301  0.2193
 2817W        W45729  21.944  10.568  28.020  0.2134 -0.0456  0.1693
 2818W        W45730  21.415   9.731  27.324 -0.2412 -0.0101  0.1912
 2819W        W45731  24.891   7.988  27.522 -0.2002  0.2400  0.1759
 2820W        W45732  25.266   8.590  26.998 -0.1943 -0.1890 -0.0934
 2821W        W45733  23.274   9.135  27.649  0.0216  0.0802 -0.1190
 2822W        W45734  25.442   6.744  27.246  0.0277 -0.1133 -0.0023
 2823W        W45735  24.717   9.441  26.614 -0.1022 -0.2015 -0.0717
 2824W        W45736  22.731   8.754  25.082 -0.1002 -0.1153 -0.0639
 2825W        W45737  23.912  10.926  25.108  0.0006 -0.3470 -0.0498
 2826W        W45738  25.241  10.234  26.468 -0.3092  0.0491  0.0977
 2827W        W45739  22.788  10.322  26.342  0.3244  0.1061  0.2184
 2828W        W45740  22.215   9.091  25.952 -0.1610  0.2853 -0.0429
 2829W        W45741  25.188   9.780  29.616 -0.0858 -0.2172  0.0755
 2830W        W45742  23.921  10.649  26.358  0.1027 -0.0206  0.1961
 2831W        W45743  23.569   6.957  25.693 -0.0135 -0.0035  0.0897
 2832W        W45744  25.291   9.727  23.386 -0.3480  0.1951 -0.0068
 2833W        W45745  22.300  10.576  27.166 -0.0669 -0.0364 -0.1529
 2834W        W45746  22.793   8.423  27.790 -0.1642  0.0325  0.2022
 2835W        W45747  22.068   9.960  25.779 -0.0098  0.0437  0.3552
 2836W        W45748  24.232   9.746  24.201 -0.2935 -0.1305  0.0363
 2837W        W45749  23.261   8.824  24.810  0.1762 -0.1243  0.2021
 2838W        W45750  22.908  11.129  28.112 -0.3738 -0.2920 -0.1366
 2839W        W45751  24.163   8.070  25.179  0.3471 -0.1275  0.0865
 2840W        W45752  21.885  10.745  26.970 -0.3494  0.1645  0.1245
 2841W        W45753  22.452  10.277  22.931  0.1495 -0.1829 -0.1674
 2842W        W45754  22.847   9.845  24.647 -0.1665 -0.2499 -0.0729
 2843W        W45755  20.576  10.318  25.059 -0.0612 -0.1945 -0.0273
 2844W        W45756  24.931  10.567  25.533 -0.2126  0.1424 -0.5039
 2845W        W45757  24.649   8.191  24.664  0.2378 -0.0550  0.0515
 2846W        W45758  25.339   8.660  25.716 -0.0306 -0.0775 -0.0932
 2847W        W45759  26.441   9.213  25.526  0.0770  0.0863  0.1069
 2848W        W45760  25.034  11.190  27.966  0.1542  0.0548  0.0145
 2849W        W45761  24.160   9.386  25.677 -0.2239  0.0735  0.2180
 2850W        W45762  24.338   9.209  23.882 -0.2652 -0.1416  0.1230
 2851W        W45763  22.382  10.191  26.865  0.0375 -0.0395  0.1193
 2852W        W45764  25.659   6.202  28.542  0.1569 -0.0936 -0.0271
 2853W        W45765  21.618  10.407  25.673  0.1863 -0.0756  0.2135
 2854W        W45766  25.155  11.437  25.208  0.0096 -0.3775  0.0903
 2855W        W45767  24.495   7.180  25.830  0.0765 -0.1154  0.0576
 2856W        W45768  24.390  10.051  27.595  0.3270 -0.2163  0.0651
 2857W        W45769  26.480   6.383  27.865 -0.1999  0.0732  0.1794
 2858W        W45770  23.329  10.874  24.575 -0.2337 -0.1768  0.1090
 2859W        W45771  24.944   8.442  25.512 -0.2067  0.2571  0.2080
 2860W        W45772  22.344  10.115  26.287 -0.0332  0.0988 -0.0374
 2861W        W45773  22.789   9.882  26.046  0.0244 -0.3028 -0.0757
 2862W        W45774  22.784  10.175  25.050 -0.4556 -0.2626 -0.0926
 2863W        W45775  23.429   7.621  24.542 -0.0580 -0.2631 -0.1442
 2864W        W45776  25.715   9.141  26.309  0.2289 -0.2917 -0.2651
 2865W        W45777  23.368   8.257  27.765 -0.2732 -0.4240  0.1927
 2866W        W45778  26.170   6.983  25.453  0.0393  0.1423  0.1250
 2867W        W45779  23.187   8.375  24.772  0.1442 -0.0697  0.1258
 2868W        W45780  24.564   9.661  24.620 -0.0183 -0.2652 -0.0246
 2869W        W45781  24.427   7.785  27.553  0.2351  0.0232 -0.2463
 2870W        W45782  22.664   8.861  27.657  0.0094 -0.0314  0.1560
 2871W        W45783  23.701   9.418  23.310 -0.3616 -0.1287  0.0943
 2872W        W45784  25.470   8.587  26.497  0.0280  0.4376  0.0624
 2873W        W45785  24.081   9.511  24.739  0.1565 -0.0445  0.0195
 2874W        W45786  24.693  10.992  26.843  0.0746 -0.0375  0.1653
 2875W        W45787  23.002   7.582  26.051 -0.3654 -0.1317 -0.4152
 2876W        W45788  24.583   8.544  24.136  0.1054 -0.0463 -0.1746
 2877W        W45789  23.262   7.983  26.305 -0.1763  0.2021  0.1398
 2878W        W45790  23.111   9.400  26.797  0.0981 -0.0497  0.3955
 2879W        W45791  24.899   9.835  26.260 -0.0067  0.0369 -0.1549
 2880W        W45792  23.983   5.828  24.541  0.0719  0.0821 -0.1287
 2881W        W45793  26.658  10.788  24.357  0.1301  0.1230  0.1347
 2882W        W45794  25.979   9.423  25.332  0.3418  0.2761 -0.3724
 2883W        W45795  24.866   9.184  24.585 -0.1323 -0.1498  0.0195
 2884W        W45796  23.790   9.420  24.307  0.0169  0.1027 -0.0688
 2885W        W45797  24.921   8.460  26.625 -0.1243  0.1307 -0.2172
 2886W        W45798  22.614   8.098  26.118 -0.0277  0.1278  0.1631
 2887W        W45799  25.318  12.079  26.916  0.0311  0.2998  0.0525
 2888W        W45800  25.003   9.253  25.249 -0.0316 -0.1445  0.3330
 2889W        W45801  23.361   6.958  24.020 -0.1416 -0.1300  0.1563
 2890W        W45802  22.869   8.283  24.363 -0.2438 -0.0661  0.1795
 2891W        W45803  22.323   9.961  23.800 -0.0150 -0.1483  0.0147
 2892W        W45804  25.540   8.997  26.800 -0.1485 -0.0009  0.2541
 2893W        W45805  24.088   8.435  25.943  0.0507 -0.2268 -0.0457
 2894W        W45806  24.170   9.003  22.437 -0.2999  0.0528  0.1265
 2895W        W45807  25.082   8.530  27.609 -0.2323 -0.1219  0.3111
 2896W        W45808  23.525   9.092  26.776 -0.3129 -0.2957 -0.1449
 2897W        W45809  22.734  10.636  28.438 -0.0200  0.0953 -0.3354
 2898W        W45810  22.967   8.391  22.999  0.1084 -0.2273 -0.2037
 2899W        W45811  23.198  10.161  27.319  0.2449 -0.3379 -0.1222
 2900W        W45812  22.483  10.431  25.928  0.3657  0.1651  0.2250
 2901W        W45813  23.702  10.247  25.472 -0.2753  0.1426  0.3486
 2902W        W45814  24.338  10.360  26.480  0.2992  0.1524  0.4636
 2903W        W45815  23.882   9.228  26.407 -0.0181 -0.0647  0.1622
 2904W        W45816  25.450   9.592  25.115  0.3679 -0.0929  0.1887
 2905W        W45817  23.650   8.290  25.708 -0.0252  0.0583 -0.2556
 2906W        W45818  25.924   6.567  25.978 -0.0115 -0.0796 -0.0025
 2907W        W45819  25.256   8.027  25.617  0.1274 -0.0845 -0.0008
 2908W        W45820  23.152   8.649  27.521  0.0361  0.0325  0.0048
 2909W        W45821  22.376   9.043  24.668 -0.0226 -0.1668 -0.0798
 2910W        W45822  23.516  10.278  23.893 -0.1043 -0.2966 -0.3598
 2911W        W45823  23.204   8.651  24.334 -0.1333 -0.0476 -0.0787
 2912W        W45824  24.157   8.622  27.760 -0.1647 -0.3866  0.0086
 2913W        W45825  22.539   7.554  27.447 -0.1640 -0.1693 -0.1101
 2914W        W45826  21.391   8.266  26.199 -0.0230  0.0711 -0.1642
 2915W        W45827  23.204   8.120  26.770  0.0126  0.0498 -0.0492
 2916W        W45828  24.939  10.084  24.528  0.0418  0.1305 -0.2386
 2917W        W45829  21.796   6.502  26.444  0.2599  0.3356 -0.1522
 2918W        W45830  22.347   6.986  25.589  0.1303  0.1641  0.0688
 2919W        W45831  25.044   8.025  26.916  0.2194  0.3495  0.2001
 2920W        W45832  23.911  10.805  24.645 -0.2056  0.0672 -0.2142
 2921W        W45833  24.114   6.841  25.336  0.2394 -0.1598 -0.3199
 2922W        W45834  26.142  10.502  27.622 -0.2512 -0.0185  0.1343
 2923W        W45835  22.617  10.017  24.203  0.5941 -0.0059  0.0607
 2924W        W45836  24.350   9.448  28.355  0.3448 -0.1386  0.1386
 2925W        W45837  24.189   7.940  27.152  0.0226 -0.1538 -0.1483
 2926W        W45838  22.654   6.153  24.355 -0.0589  0.0940  0.1471
 2927W        W45839  24.469   8.962  27.124 -0.4042 -0.2457  0.0280
 2928W        W45840  24.031  10.595  25.499 -0.2296 -0.0602  0.2183
 2929W        W45841  24.001  11.119  23.785  0.1536  0.3436  0.1502
 2930W        W45842  23.385  10.685  26.162 -0.2640  0.1393 -0.3428
 2931W        W45843  24.200   9.179  27.713 -0.0288  0.1427 -0.0131
 2932W        W45844  23.972   7.098  26.655  0.4083  0.0748  0.0098
 2933W        W45845  24.308   8.841  25.341 -0.0035 -0.0172 -0.2420
 2934W        W45846  24.769  10.757  27.983  0.1460 -0.0550  0.1382
 2935W        W45847  25.954   9.283  24.828 -0.1970  0.2266  0.0263
 2936W        W45848  26.340   7.791  25.384 -0.2658  0.1135 -0.0704
 2937W        W45849  23.630   8.314  26.440 -0.3594  0.0341  0.2131
 2938W        W45850  21.860   5.787  27.813  0.1274  0.0185 -0.0361
 2939W        W45851  23.743  11.195  27.091 -0.0885 -0.1102  0.0371
 2940W        W45852  24.990  10.386  27.695 -0.1673  0.3848  0.1762
 2941W        W45853  22.835   7.729  26.480  0.6211 -0.0997  0.4238
 2942W        W45854  24.960   8.396  25.000 -0.0923 -0.0796 -0.0648
 2943W        W45855  22.771   9.448  26.412 -0.0298  0.0109  0.0779
 2944W        W45856  22.694   8.063  27.025  0.1720  0.1846  0.0192
 2945W        W45857  24.211   8.183  23.775 -0.2006  0.0801  0.0806
 2946W        W45858  23.928   9.041  28.206 -0.1773 -0.0619  0.2301
 2947W        W45859  25.228   8.378  26.114  0.1144 -0.2992 -0.0671
 2948W        W45860  25.963   9.823  27.078 -0.0203 -0.0380 -0.0314
 2949W        W45861  24.124   8.506  24.850  0.0728  0.1382  0.1596
 2950W        W45862  23.885   9.771  25.076  0.0120 -0.2029 -0.2346
 2951W        W45863  25.301  10.454  26.041 -0.3522 -0.1715  0.0260
 2952W        W45864  26.852  10.490  27.762  0.0929 -0.2318  0.1329
 2953W        W45865  23.351  11.629  25.120  0.0756 -0.1696 -0.1873
 2954W        W45866  26.037  10.908  26.534  0.1497 -0.1745 -0.2667
 2955W        W45867  22.274   6.465  25.641  0.0550  0.0572 -0.2804
 2956W        W45868  24.016   8.896  25.741 -0.0358  0.1345 -0.2372
 2957W        W45869  23.761   8.729  26.150 -0.0942  0.2093 -0.1132
 2958W        W45870  25.095   7.510  26.697 -0.3757 -0.3174 -0.1046
 2959W        W45871  23.352   7.531  25.636  0.0807 -0.2610 -0.1108
 2960W        W45872  24.594   7.517  24.243  0.4367 -0.1530  0.1239
 2961W        W45873  22.754  10.515  25.453  0.1010  0.2163  0.0769
 2962W        W45874  25.240   9.238  26.499 -0.0145 -0.0138  0.0864
 2963W        W45875  21.556   8.972   0.204 -0.3584 -0.1303  0.6075
 2964W        W45876  21.904   7.109  28.083 -0.2637 -0.1097 -0.1222
 2965W        W45877  25.538   7.967  28.335  0.1797  0.0461 -0.0049
 2966W        W45878  26.082   9.735  28.586  0.1489 -0.1018 -0.0363
 2967W        W45879  23.053   5.901  29.141 -0.1271 -0.3194 -0.0106
 2968W        W45880  24.936  10.354  26.872 -0.0771 -0.1982  0.4863
 2969W        W45881  23.022   7.447  31.724 -0.0248 -0.2760 -0.0043
 2970W        W45882  24.512  11.562  30.078 -0.0378  0.0220  0.0444
 2971W        W45883  24.587  10.248  30.105 -0.1133  0.0500 -0.0441
 2972W        W45884  24.308  10.696  28.600 -0.0349  0.1565  0.2751
 2973W        W45885  23.325   7.370  29.659  0.1154 -0.1151 -0.0577
 2974W        W45886  22.352   9.884  31.465  0.0453 -0.0006 -0.0706
 2975W        W45887  22.562   6.516  28.253 -0.1904 -0.1880 -0.2543
 2976W        W45888  22.695   7.146  30.451 -0.0506 -0.1772 -0.0152
 2977W        W45889  23.333   8.846  31.105 -0.0469 -0.0006  0.0751
 2978W        W45890  21.811   7.709  30.789  0.2364 -0.1097 -0.1754
 2979W        W45891  23.599   8.319  29.489  0.0887  0.0190  0.0688
 2980W        W45892  24.202   7.497  28.437  0.0299 -0.3732 -0.0012
 2981W        W45893  23.892  10.072  29.149  0.0471  0.3077 -0.0585
 2982W        W45894  22.935   7.931  29.647 -0.1256 -0.0750  0.0099
 2983W        W45895  24.075   8.925  31.315  0.0037  0.0093 -0.4406
 2984W        W45896  25.164  10.887  28.390 -0.0707  0.0938  0.1703
 2985W        W45897  22.823   9.353  27.909 -0.0112  0.0665 -0.0683
 2986W        W45898  23.206   7.344  30.172  0.2122 -0.3168 -0.0694
 2987W        W45899  23.413   7.845  29.479  0.2846 -0.2759 -0.2347
 2988W        W45900  24.110   8.944  29.041  0.2551 -0.0962 -0.1513
 2989W        W45901  24.449   8.688  30.794  0.0111  0.3650  0.0914
 2990W        W45902  22.919  10.890  30.150  0.2695  0.0887  0.1197
 2991W        W45903  22.761  10.707  31.140  0.3613  0.1078  0.1413
 2992W        W45904  24.703   7.613  30.761  0.0391  0.1366  0.1715
 2993W        W45905  24.080   9.649  30.612 -0.2749  0.1608 -0.1609
 2994W        W45906  21.961  10.356  28.997  0.0365 -0.0048 -0.1260
 2995W        W45907  22.401  10.926  28.940  0.0382  0.3335  0.0109
 2996W        W45908  26.997  10.071  28.197  0.3022  0.0865  0.1102
 2997W        W45909  25.734  10.801  30.633 -0.0869  0.2982 -0.2567
 2998W        W45910  23.922  11.312   0.991 -0.0048  0.0811 -0.2259
 2999W        W45911  23.454  11.347  28.687 -0.1611 -0.2706 -0.1293
 3000W        W45912  23.314  10.638  31.160 -0.2071 -0.1109 -0.1331
 3001W        W45913  23.926   8.781  30.879 -0.0900 -0.0751 -0.1286
 3002W        W45914  22.736   9.587  31.429 -0.2796 -0.0389 -0.2746
 3003W        W45915  23.664   8.797  29.701 -0.0482  0.0535  0.0956
 3004W        W45916  23.890  10.311  26.798 -0.2528 -0.1348 -0.1166
 3005W        W45917  23.883   9.197  29.516 -0.3445  0.0846  0.0425
 3006W        W45918  22.584   9.747  31.897 -0.3267 -0.2893 -0.1057
 3007W        W45919  21.906   9.863  29.233 -0.3169 -0.0023  0.0459
 3008W        W45920  26.332   6.997  30.355 -0.5330 -0.0398  0.1589
 3009W        W45921  23.221  11.311  29.132  0.2145  0.0386  0.1664
 3010W        W45922  26.286   9.855  28.093 -0.0060  0.1466 -0.0415
 3011W        W45923  24.023   8.030  28.601 -0.4082 -0.1529 -0.1159
 3012W        W45924  24.940   8.376  28.891 -0.0104  0.1771 -0.0277
 3013W        W45925  23.420   6.076  28.137 -0.1818 -0.4025  0.0342
 3014W        W45926  23.825  10.744  29.365 -0.1916 -0.0507  0.0712
 3015W        W45927  24.672   6.678  29.705 -0.2246 -0.1411 -0.0896
 3016W        W45928  24.778  10.874  30.499 -0.1187 -0.1580 -0.0658
 3017W        W45929  24.457   8.930  28.028 -0.1720 -0.5729  0.0067
 3018W        W45930  23.483   6.964  29.968 -0.1286  0.1928  0.1031
 3019W        W45931  22.392  10.402  31.636 -0.0149  0.1698 -0.2075
 3020W        W45932  23.700   8.178  28.960 -0.0921 -0.1271 -0.0237
 3021W        W45933  24.997  11.623  26.796  0.0419  0.0001  0.0095
 3022W        W45934  26.740  10.222  29.179  0.0535 -0.0399 -0.1553
 3023W        W45935  24.592  10.569  27.292  0.2365 -0.0088  0.0650
 3024W        W45936  22.432   8.598  29.518  0.0283 -0.0576  0.3291
 3025W        W45937  22.230   9.133  30.375 -0.2193  0.0180  0.1643
 3026W        W45938  22.295   8.512  30.196  0.0141 -0.1777  0.0836
 3027W        W45939  22.628   6.416  27.754 -0.1384 -0.0497 -0.0964
 3028W        W45940  26.000   9.585  31.684 -0.1654  0.3453 -0.2068
 3029W        W45941  21.622  10.238  30.981 -0.0472  0.0321  0.0741
 3030W        W45942  26.083   7.836  31.060 -0.1459  0.1110  0.0919
 3031W        W45943  25.657   9.611  29.569  0.3397 -0.0675  0.1728
 3032W        W45944  25.224  10.249  29.793  0.4253 -0.0530 -0.1962
 3033W        W45945  24.706  10.164  28.071 -0.0163  0.1071 -0.0819
 3034W        W45946  25.791   7.294  28.647 -0.6077 -0.1912  0.3155
 3035W        W45947  24.791   7.213  29.409  0.2658 -0.2861  0.2098
 3036W        W45948  21.645   8.838  27.638 -0.0850  0.0700 -0.0184
 3037W        W45949  24.204   9.964  28.184  0.4467 -0.0955  0.1987
 3038W        W45950  24.330  11.026  30.668  0.1538  0.0577 -0.0667
 3039W        W45951  27.196   7.868  27.641 -0.0880 -0.0037 -0.0650
 3040W        W45952  22.612  10.185  29.845  0.0011  0.0535 -0.1753
 3041W        W45953  23.610   9.094  31.479 -0.4250 -0.0392  0.0502
 3042W        W45954  22.944   9.717  31.000  0.2065 -0.2074  0.0616
 3043W        W45955  22.299  11.404  27.470 -0.1935 -0.1467 -0.0358
 3044W        W45956  22.217   8.703  28.177 -0.2560 -0.1228 -0.3370
 3045W        W45957  23.432   9.783  29.130 -0.0759 -0.0579 -0.3335
 3046W        W45958  23.885   7.421  30.251  0.3394  0.0963  0.1190
 3047W        W45959  22.850   9.904  30.556  0.2612  0.1214  0.1525
 3048W        W45960  26.378   6.924  29.317 -0.0434  0.2521  0.3743
 3049W        W45961  23.459   7.721  31.255  0.0672 -0.1275  0.1763
 3050W        W45962  24.944   7.879  29.210  0.0265  0.0957 -0.1429
 3051W        W45963  22.072  10.271  28.433 -0.2630  0.0679  0.1526
 3052W        W45964  24.545  12.701  27.702  0.1370 -0.3135  0.0145
 3053W        W45965  26.033   8.721  29.027 -0.1321 -0.0390 -0.1744
 3054W        W45966  24.132  10.486  27.637 -0.0959 -0.0085  0.3716
 3055W        W45967  22.345   8.943  29.927 -0.3647 -0.1368  0.0030
 3056W        W45968  22.263   8.601  28.676  0.0618 -0.2631 -0.0370
 3057W        W45969  21.833   8.002  31.237 -0.0173 -0.1404 -0.3029
 3058W        W45970  23.511   7.255  27.711 -0.1058 -0.0451 -0.0188
 3059W        W45971  24.196   8.437  31.147  0.4051 -0.0926  0.2262
 3060W        W45972  24.854   8.262  28.444  0.2402  0.1266 -0.0906
 3061W        W45973  25.147  10.417  28.154  0.2273 -0.2427  0.0443
 3062W        W45974  23.826  10.214  28.646 -0.0565  0.0751  0.0507
 3063W        W45975  21.799   8.477  27.922 -0.3774 -0.1674  0.1408
 3064W        W45976  25.935   7.428  31.291  0.2406  0.2675  0.2853
 3065W        W45977  24.711  11.644  28.527 -0.0554  0.0145 -0.0020
 3066W        W45978  25.363  10.663   0.080 -0.0248  0.1863 -0.1633
 3067W        W45979  24.150  11.147  29.433  0.0775 -0.2681 -0.1066
 3068W        W45980  23.161   8.614  29.690 -0.0591  0.2570  0.0833
 3069W        W45981  21.911   8.404  27.356  0.1471  0.1946  0.1753
 3070W        W45982  22.882  10.956  28.963  0.0025 -0.0714  0.4124
 3071W        W45983  23.123  10.761  29.709 -0.0030 -0.2156 -0.0347
 3072W        W45984  23.232   8.571  30.272  0.1014  0.0050 -0.2196
 3073W        W45985  25.778  11.975  30.691 -0.0111  0.1736 -0.2142
 3074W        W45986  24.169   9.809  28.645 -0.3573 -0.1053  0.0058
 3075W        W45987  21.446   8.552  30.569 -0.2545  0.1627  0.2464
 3076W        W45988  24.653   8.026  30.064  0.1426  0.1449 -0.0685
 3077W        W45989  24.724   9.798  29.908 -0.3744  0.2700 -0.0309
 3078W        W45990  24.777   9.848  28.940 -0.1362 -0.2844  0.0304
 3079W        W45991  22.320   7.773  28.606 -0.1013  0.1394  0.0979
 3080W        W45992  23.905  10.949  28.911 -0.0985 -0.0201  0.1519
 3081W        W45993  22.182   9.975  28.877 -0.2106  0.1225  0.0166
 3082W        W45994  22.423   9.137  28.617  0.0582 -0.1160  0.4028
 3083W        W45995  22.507  11.227  30.166  0.0249  0.0957  0.1118
 3084W        W45996  24.070   8.459  29.284 -0.2078  0.2482  0.1596
 3085W        W45997  21.703   9.372  31.093 -0.0051  0.0363 -0.0443
 3086W        W45998  24.571   8.105  31.435  0.0822  0.1554 -0.2183
 3087W        W45999  22.090   8.121  28.197  0.0984 -0.1385  0.0438
 3088W        W46000  22.181   9.436  31.189 -0.0547  0.0761 -0.0751
 3089W        W46001  24.668   7.924  28.795  0.0248  0.0525  0.1798
 3090W        W46002  25.808   8.433  28.556 -0.1043  0.1966  0.1746
 3091W        W46003  24.330   9.944  31.541  0.2940  0.3594 -0.1411
 3092W        W46004  25.643  10.746  27.331 -0.0365 -0.3422  0.0873
 3093W        W46005  24.847   8.819  28.579 -0.0084  0.0320  0.3854
 3094W        W46006  24.240   6.734  27.982 -0.2516  0.2874  0.2553
 3095W        W46007  21.527   9.156  31.505 -0.1580  0.0892  0.1067
 3096W        W46008  24.773  10.074  29.411  0.1649  0.1271 -0.2488
 3097W        W46009  22.363   9.320  31.664 -0.1071 -0.1691  0.3669
 3098W        W46010  23.381   7.415  29.155  0.4845  0.2570 -0.3801
 3099W        W46011  25.579  10.634  28.515  0.4650 -0.1289  0.1505
 3100W        W46012  22.563   9.340  30.726  0.1360  0.0755  0.0579
 3101W        W46013  23.808   9.897  31.402  0.2732  0.1453  0.0468
 3102W        W46014  23.592  10.542  28.912  0.0743  0.0575 -0.0850
 3103W        W46015  24.262   5.392  29.233  0.4843  0.0410 -0.0172
 3104W        W46016  23.813  10.661  28.051  0.0799 -0.1962 -0.0902
 3105W        W46017  23.554   6.823  31.029 -0.2772 -0.1067 -0.2191
 3106W        W46018  21.145  10.676  28.831 -0.0905  0.2948  0.0061
 3107W        W46019  25.255   7.521  29.451  0.3229  0.1813 -0.3941
 3108W        W46020  24.236   7.318  29.360 -0.0476  0.0969 -0.0394
 3109W        W46021  23.818   8.024  30.934  0.3022 -0.1357  0.1081
 3110W        W46022  25.077   7.320  30.527 -0.2623 -0.2910 -0.0805
 3111W        W46023  25.520   7.853  29.177 -0.3166 -0.0345  0.0133
 3112W        W46024  24.219   8.681  29.727  0.0798 -0.0677 -0.0157
 3113W        W46025  23.727   8.301  27.432 -0.0580 -0.0454  0.0155
 3114W        W46026  24.607   9.077  29.947 -0.2231 -0.0703 -0.0099
 3115W        W46027  22.903   7.606  30.813  0.1057  0.0835 -0.0968
 3116W        W46028  21.464  10.508  31.647 -0.1698 -0.0545  0.0961
 3117W        W46029  23.386  10.757  31.739  0.1755 -0.1886  0.1867
 3118W        W46030  24.301   9.968  29.633  0.0112  0.0506  0.0482
 3119W        W46031  24.507   8.227   0.620 -0.0868  0.0114  0.1747
 3120W        W46032  25.247   9.289  28.231  0.1442  0.1435  0.0160
 3121W        W46033  21.773  11.004  28.321 -0.1033 -0.0371 -0.3630
 3122W        W46034  23.293   9.626  27.786  0.0066 -0.1317  0.0619
 3123W        W46035  22.495   7.907  29.393  0.2239  0.1378  0.0019
 3124W        W46036  23.870   9.767  29.573 -0.3467 -0.2290  0.2807
 3125W        W46037  22.875   9.273  28.515  0.1126 -0.1203 -0.2518
 3126W        W46038  24.630   9.587  30.783  0.1071  0.1432  0.4502
 3127W        W46039  22.021  10.701  28.670  0.0428 -0.1718  0.1656
 3128W        W46040  25.881   6.980  30.158  0.3796 -0.0020 -0.1200
 3129W        W46041  22.290  10.544  29.364 -0.0230  0.1145  0.2965
 3130W        W46042  24.477  10.222  28.532  0.0340 -0.1180  0.1399
 3131W        W46043  21.829   7.996  27.740 -0.1185  0.1010  0.2068
 3132W        W46044  24.448   8.417  28.769  0.0801  0.0264 -0.0794
 3133W        W46045  24.303  10.498  28.141 -0.2474 -0.1085  0.1188
 3134W        W46046  24.038   6.711  30.835  0.1211 -0.0437 -0.2325
 3135W        W46047  23.667   8.111  30.476  0.2907  0.2654  0.2618
 3136W        W46048  21.456  10.120  30.382 -0.0196 -0.0727  0.0440
 3137W        W46049  24.067   9.448  31.641  0.0843 -0.2147  0.2050
 3138W        W46050  24.426   8.267  27.484 -0.0585  0.1248 -0.2137
 3139W        W46051  24.811   9.858  30.361 -0.1388 -0.1348  0.0767
 3140W        W46052  22.455   8.396  30.802 -0.3281 -0.0196  0.1755
 3141W        W46053  22.447   8.448  27.312 -0.1779  0.0522  0.1085
 3142W        W46054  24.758   8.734  29.584  0.2327 -0.1121 -0.0101
 3143W        W46055  23.570   8.808  28.500  0.1272  0.0194 -0.2027
 3144W        W46056  21.919  11.343  28.686 -0.0982 -0.0942  0.2152
 3145W        W46057  23.898  10.303  29.600  0.2521 -0.0642 -0.0862
 3146W        W46058  21.986   8.146  28.734 -0.0071  0.2693  0.0035
 3147W        W46059  23.153  10.977  28.536 -0.0552  0.1526 -0.2566
 3148W        W46060  22.847   8.886  30.098 -0.0460  0.0340  0.0920
 3149W        W46061  24.337   8.209  29.651 -0.1082  0.2644 -0.0189
 3150W        W46062  23.343   9.147  29.679  0.1055  0.0245 -0.2104
 3151W        W46063  23.174   8.323  29.054 -0.0890 -0.0122 -0.4516
 3152W        W46064  24.463   9.429  28.846 -0.2242 -0.0923  0.1449
 3153W        W46065  24.708  10.590  30.954  0.0781 -0.3897 -0.1246
 3154W        W46066  23.749   8.696  30.250 -0.1151  0.2665  0.2929
 3155W        W46067  22.881  10.020  31.576 -0.0994 -0.2858  0.0655
 3156W        W46068  22.829   7.170  29.836  0.2907 -0.1859 -0.1380
 3157W        W46069  24.850  11.166  28.785 -0.0390  0.0490 -0.0657
 3158W        W46070  24.663   9.053   0.148  0.0299  0.2129  0.0225
 3159W        W46071  22.658  10.032  28.004  0.0634 -0.0915  0.2319
 3160W        W46072  22.535  10.705  29.831 -0.0350  0.1626 -0.1907
 3161W        W46073  22.010   9.474  28.826 -0.0353  0.0710  0.0140
 3162W        W46074  24.118   8.048  30.226  0.0576 -0.0852 -0.0107
 3163W        W46075  21.308  10.633  31.185 -0.2017 -0.3405  0.0505
 3164W        W46076  22.660   9.681  28.764  0.1931  0.1358  0.1203
 3165W        W46077  21.608   9.764  30.819  0.1301  0.3013 -0.2886
 3166W        W46078  25.436   8.197  28.787  0.1929  0.1537 -0.0078
 3167W        W46079  24.519  10.027  26.772 -0.1384  0.2094  0.0559
 3168W        W46080  25.664   9.452  28.631 -0.1194 -0.2465  0.1273
 3169W        W46081  25.592   8.812  30.261 -0.2728 -0.3469 -0.3708
 3170W        W46082  25.003  10.145  28.549 -0.1894  0.0371 -0.1002
 3171W        W46083  23.532   8.451  30.816  0.2861 -0.3533 -0.0702
 3172W        W46084  24.742   6.018  29.935 -0.2480  0.0360 -0.0415
 3173W        W46085  25.521  10.017  28.529 -0.1558  0.1188  0.5649
 3174W        W46086  21.679   8.078  30.320 -0.1631  0.1345  0.2350
 3175W        W46087  23.743  10.430  31.259 -0.6065  0.0832  0.0225
 3176W        W46088  22.680   8.771  30.570 -0.2078 -0.0859 -0.2450
 3177W        W46089  24.893   8.740  28.110 -0.0576  0.1358 -0.1421
 3178W        W46090  23.790   7.229  28.707 -0.2985 -0.0522 -0.0749
 3179W        W46091  22.756   8.434  29.957  0.4224 -0.2498 -0.1587
 3180W        W46092  25.648  10.507  30.177  0.2463  0.1665  0.1309
 3181W        W46093  24.139  10.490  29.002 -0.2193  0.1580 -0.1622
 3182W        W46094  24.896   9.298  29.008  0.0878  0.1575  0.0688
 3183W        W46095  22.031   9.483  30.725  0.0933 -0.1050 -0.0116
 3184W        W46096  24.640   8.823  29.075  0.0497 -0.1710 -0.3063
 3185W        W46097  24.288   9.463  29.735  0.2341  0.1564  0.3390
 3186W        W46098  23.574   9.596  30.613 -0.0700 -0.0320  0.2432
 3187W        W46099  24.266   9.231  30.842 -0.0349 -0.1347  0.0257
 3188W        W46100  24.807  10.301  30.554 -0.0026 -0.1898 -0.0850
 3189W        W46101  23.946   8.559  28.720 -0.3767 -0.0470 -0.2274
 3190W        W46102  24.579   7.152  30.623 -0.1210  0.2017  0.0955
 3191W        W46103  24.282   8.482  31.679  0.1638  0.0452  0.2321
 3192W        W46104  23.574   9.573  31.710  0.1864  0.2454 -0.0758
 3193W        W46105  22.300   7.140  30.064  0.2589  0.1999  0.1788
 3194W        W46106  25.315   9.944  29.035 -0.3151 -0.2859 -0.2861
 3195W        W46107  26.605   8.012  28.693 -0.3827  0.1176 -0.4416
 3196W        W46108  25.487   9.108  29.494  0.0470 -0.0190 -0.1803
 3197W        W46109  25.585   9.654  28.126 -0.1060  0.2139 -0.2263
 3198W        W46110  25.299   9.899  30.166 -0.0749  0.0523 -0.0466
 3199W        W46111  22.855   8.392  29.417  0.1650 -0.0078 -0.0639
 3200W        W46112  25.328   7.834  30.401  0.1109 -0.2969 -0.3481
 3201W        W46113  23.233   9.011  27.158 -0.1634 -0.2470 -0.0936
 3202W        W46114  24.508   7.531  30.296  0.0347 -0.0515 -0.1213
 3203W        W46115  23.808  11.256  27.988  0.0789 -0.0490 -0.0460
 3204W        W46116  23.313   9.657  29.787  0.0617 -0.2943  0.0128
 3205W        W46117  23.992   9.298  28.649  0.2365  0.2061 -0.2561
 3206W        W46118  22.160   7.682  29.114  0.0959  0.0225 -0.1964
 3207W        W46119  23.309  10.093  30.784 -0.1023 -0.0548  0.3190
 3208W        W46120  23.776   7.794  28.098  0.2190  0.4023  0.1360
 3209W        W46121  23.512   9.418  27.130  0.0132  0.2387  0.3383
 3210W        W46122  24.324   8.860  30.309 -0.0865 -0.1804 -0.1657
 3211W        W46123  24.561   9.249  31.275  0.1049 -0.0773  0.1267
 3212W        W46124  25.260   9.450  27.759  0.1659  0.2664  0.2952
 3213W        W46125  24.650   8.553  30.113  0.0189  0.0521 -0.0247
 3214W        W46126  22.077   9.405  28.340  0.1997  0.0056 -0.2323
 3215W        W46127  24.444   7.751  29.380  0.1226 -0.0882 -0.0218
 3216W        W46128  22.931   9.816  29.547  0.0027 -0.0824 -0.0189
 3217W        W46129  22.059   8.360  29.755 -0.0896 -0.0413  0.0278
 3218W        W46130  22.656  10.993  29.423 -0.3532 -0.4043  0.1201
 3219W        W46131  24.145   7.728  30.604 -0.2952 -0.0080 -0.2616
 3220W        W46132  23.842   7.488  29.585 -0.0010  0.1179  0.0880
 3221W        W46133  24.661   9.575  29.413  0.0672  0.1682 -0.0510
 3222W        W46134  24.082   8.349  30.675  0.1707 -0.1055  0.5277
 3223W        W46135  24.389   9.395  30.264 -0.1685 -0.2732  0.0412
 3224W        W46136  23.917   8.309  29.882  0.0813 -0.1114 -0.2662
 3225W        W46137  25.696  10.397  31.791  0.0500 -0.0296 -0.1539
 3226W        W46138  25.946   9.228  28.232 -0.1676  0.1514  0.0188
 3227W        W46139  22.391  10.407  28.782 -0.0302  0.1135 -0.4185
 3228W        W46140  21.469   8.102  30.861 -0.1889 -0.1132 -0.0793
 3229W        W46141  24.378  10.021  30.550 -0.1175  0.2363 -0.0439
 3230W        W46142  23.170   9.669  28.667  0.4509  0.1526  0.1753
 3231W        W46143  24.311   7.912  28.158  0.0171 -0.1378  0.2454
 3232W        W46144  23.460  11.613  26.749  0.0246 -0.1292 -0.0576
 3233W        W46145  22.459   9.857   0.373 -0.1371 -0.3897  0.1500
 3234W        W46146  23.523   9.267  29.166  0.2354  0.4502  0.1152
 3235W        W46147  22.182  10.835  30.332  0.2179  0.2023 -0.2475
 3236W        W46148  25.595  10.088  29.469  0.1535 -0.0631  0.1496
 3237W        W46149  25.393  10.346  27.142 -0.0225  0.0991 -0.0803
 3238W        W46150  23.883  10.862   0.030  0.4843  0.4306  0.0348
 3239W        W46151  23.273   7.512  28.115  0.1191 -0.1089  0.0238
 3240W        W46152  23.555  10.613  29.836 -0.2107 -0.1470 -0.1964
 3241W        W46153  21.500  11.918  27.594  0.3613  0.3847  0.0251
 3242W        W46154  25.163  10.760  27.112 -0.1973 -0.0469  0.1612
 3243W        W46155  23.413  11.170  30.029  0.1971 -0.0580  0.1008
 3244W        W46156  25.066   9.624  31.887  0.0785  0.2075 -0.2341
 3245W        W46157  25.536   8.654  28.929 -0.1417 -0.0604  0.3854
 3246W        W46158  24.022   9.078  29.993 -0.0791  0.1089  0.1085
 3247W        W46159  26.528   9.528  27.776 -0.1105  0.0661 -0.0219
 3248W        W46160  24.741  10.593   0.876  0.0939 -0.0155 -0.2392
 3249W        W46161  23.223   9.200  30.135 -0.0792  0.0875  0.1024
 3250W        W46162  24.579   9.631  27.104 -0.1726  0.2318  0.1295
 3251W        W46163  23.344   9.336  30.951  0.2649 -0.3191  0.0717
 3252W        W46164  25.073   7.472  30.035 -0.2924  0.1891  0.1769
 3253W        W46165  23.057  11.074  31.348 -0.0482  0.0597 -0.0264
 3254W        W46166  25.351  10.777  27.833 -0.1475 -0.0048 -0.4967
 3255W        W46167  21.857   7.668  28.396 -0.1198  0.0187  0.1138
 3256W        W46168  22.495   9.215  29.464 -0.3322 -0.0754  0.0090
 3257W        W46169  26.379   6.801  29.878  0.0606  0.1568 -0.1138
 3258W        W46170  25.112   8.931  27.341  0.0198 -0.1125 -0.0476
 3259W        W46171  24.619   8.358  29.238 -0.1012  0.1475  0.1010
 3260W        W46172  23.606  11.982  28.464  0.0456  0.1581 -0.1578
 3261W        W46173  23.033   9.512  29.183 -0.1856  0.0738 -0.1557
 3262W        W46174  24.594  10.467  31.508  0.0237 -0.0981 -0.3330
 3263W        W46175  23.552   8.241  28.471 -0.0259 -0.0712 -0.1493
 3264W        W46176  25.689   9.776  30.802 -0.2627 -0.2449  0.1338
 3265W        W46177  22.843   8.095  30.428  0.0957  0.0832  0.0259
 3266W        W46178  25.940   7.079  30.642 -0.1377  0.2290  0.0559
 3267W        W46179  23.203   8.951  30.618  0.1107 -0.0221  0.1534
 3268W        W46180  25.747   7.793  30.065  0.3864  0.3862  0.0131
 3269W        W46181  23.323  10.035  31.285  0.2200 -0.0576  0.0547
 3270W        W46182  22.587   9.371  30.188 -0.0009  0.1849 -0.2901
 3271W        W46183  23.749  10.951  27.585 -0.0611 -0.1120 -0.0831
 3272W        W46184  25.215  10.456  31.028 -0.0498 -0.0342  0.1001
 3273W        W46185  24.672   9.766  28.475 -0.0567  0.1299  0.0772
 3274W        W46186  24.828  11.737  30.835 -0.1232  0.2041  0.1363
 3275W        W46187  23.339   8.205  29.903 -0.0348 -0.0000 -0.0001
 3276W        W46188  26.122   8.786  28.341  0.1556 -0.1285  0.1360
 3277W        W46189  24.367  10.020  29.100  0.0894 -0.0393 -0.4478
 3278W        W46190  24.370   9.124  29.389 -0.5282 -0.2972  0.0520
 3279W        W46191  23.859  10.083  30.490 -0.4288 -0.2022  0.2919
 3280W        W46192  21.313   5.918  27.816 -0.1963 -0.2439  0.0046
 3281W        W46193  26.693  10.010  27.776 -0.1396  0.0504  0.1648
 3282W        W46194  25.372   9.216  29.999 -0.0733 -0.3630 -0.1769
 3283W        W46195  23.797  10.110  27.365 -0.3896 -0.3348  0.0277
 3284W        W46196  24.379  10.417  29.397  0.0702  0.1417 -0.1142
 3285W        W46197  23.651  10.922  28.443  0.1092  0.1993  0.0436
 3286W        W46198  22.373   7.926  29.931 -0.2124 -0.0236  0.0142
 3287W        W46199  25.134   9.972  30.723  0.0289  0.2327 -0.0931
 3288W        W46200  25.737  10.022  30.326 -0.0347  0.0985  0.1385
 3289W        W46201  23.923   7.951  29.476 -0.1725 -0.1158 -0.1120
 3290W        W46202  24.940   9.407  30.143  0.0155 -0.0587  0.2750
 3291W        W46203  21.581  10.154  29.918  0.2963  0.4695 -0.2187
 3292W        W46204  27.174   7.493  29.826 -0.1026 -0.0442  0.2211
 3293W        W46205  24.844   8.175  29.647 -0.1348  0.3186  0.2014
 3294W        W46206  25.753  10.516  26.633  0.4367  0.1585 -0.0671
 3295W        W46207  26.373   8.268  31.699  0.0518 -0.1530  0.0490
 3296W        W46208  23.112  10.227  29.799 -0.1700  0.0649  0.1492
 3297W        W46209  22.731  11.180   0.389 -0.1171  0.1466 -0.1527
 3298W        W46210  20.910   8.484  28.161  0.0489  0.2461 -0.1090
 3299W        W46211  22.900  10.289  30.288 -0.3086  0.3071 -0.2032
 3300W        W46212  22.867  10.471  29.384 -0.0851  0.1268 -0.0723
 3301W        W46213  23.011  10.488  28.829  0.0689 -0.3752  0.0134
 3302W        W46214  25.527  10.581  29.638 -0.1663 -0.0953  0.0667
 3303W        W46215  24.096   9.651  27.743  0.2226  0.3871 -0.0880
 3304W        W46216  26.151  10.097  28.957  0.2284 -0.0554 -0.3437
 3305W        W46217  22.743   9.158  28.991 -0.2058  0.1172  0.1585
 3306W        W46218  26.575   7.270  29.029  0.0524 -0.1961 -0.0268
 3307W        W46219  24.987   6.525  28.075  0.1409  0.0481  0.0570
 3308W        W46220  23.061   9.428  30.547  0.3242 -0.1710  0.0485
 3309W        W46221  20.916   8.374  27.622  0.1330  0.0379 -0.4831
 3310W        W46222  23.377  10.710  27.149  0.1172  0.0372  0.1909
 3311W        W46223  22.514   9.692  29.753  0.1148  0.2005 -0.0128
 3312W        W46224  23.864   7.307  31.477  0.1589  0.0540 -0.0412
 3313W        W46225  23.963   7.006  29.819 -0.0236 -0.1497 -0.1587
 3314W        W46226  23.043   8.800  28.669  0.0025  0.0654 -0.0888
 3315W        W46227  22.258   7.238  29.303 -0.0653  0.3224 -0.1714
 3316W        W46228  25.025  12.522  27.930  0.0630  0.1130 -0.0835
 3317W        W46229  23.266   8.018  30.802 -0.2599 -0.2239 -0.2870
 3318W        W46230  22.555   6.718  28.765  0.0706 -0.1550  0.0869
 3319W        W46231  25.157  10.364  29.302 -0.2144  0.0693  0.0171
 3320W        W46232  26.112   9.174  28.722  0.2821  0.0658  0.2689
 3321W        W46233  24.390   8.896  28.579 -0.0487  0.0562  0.1575
 3322W        W46234  24.885   9.099  31.647 -0.1089  0.0993 -0.2188
 3323W        W46235  22.198   8.776  27.660 -0.0380 -0.0568 -0.0159
 3324W        W46236  24.550   8.120  30.532 -0.0279 -0.3134  0.2391
 3325W        W46237  23.994   8.035  31.410  0.0858 -0.0201  0.1352
 3326W        W46238  23.208   7.989  28.142 -0.0086  0.1245 -0.0873
 3327W        W46239  23.362  10.511  28.353  0.3365  0.0860  0.1640
 3328W        W46240  23.832  10.675  27.136 -0.0844 -0.2277  0.1755
 3329W        W46241  24.613  11.132  28.276  0.0326  0.0706  0.1253
 3330W        W46242  22.763  11.376  30.596  0.1590 -0.0767  0.0875
 3331W        W46243  22.046   9.930  29.804 -0.0010  0.2114  0.0446
 3332W        W46244  21.497   7.580  30.398 -0.1590  0.2942  0.2430
 3333W        W46245  24.796  10.515  29.624  0.0601  0.1933 -0.5139
 3334W        W46246  23.848   9.399  31.071  0.3065 -0.3074 -0.0651
 3335W        W46247  24.483  11.824  27.248 -0.0095 -0.0570  0.1954
 3336W        W46248  25.333   7.862  29.854  0.1132  0.3201  0.0060
 3337W        W46249  25.842   9.182  29.814 -0.1886 -0.2056  0.0110
 3338W        W46250  23.685   8.513  31.317 -0.3096 -0.0408  0.0645
 3339W        W46251  22.686   8.569  31.163 -0.2330  0.0471 -0.0081
 3340W        W46252  23.489  10.648   0.272  0.1875  0.1037 -0.4297
 3341W        W46253  22.201   6.810  27.413 -0.0577 -0.1673  0.2303
 3342W        W46254  25.869   7.885  28.721  0.1532 -0.2762 -0.1103
 3343W        W46255  25.167  11.429  28.460 -0.4257  0.0468  0.2223
 3344W        W46256  23.074   8.825  29.147 -0.1243  0.1398 -0.3147
 3345W        W46257  23.718   9.305  27.740 -0.1758  0.4374 -0.2152
 3346W        W46258  24.250   9.670  31.160 -0.4975  0.2263 -0.0941
 3347W        W46259  23.708   9.471  30.075  0.1440  0.0673 -0.0510
 3348W        W46260  24.474   9.518  31.928 -0.0599  0.1657 -0.0812
 3349W        W46261  23.598   7.749  28.610 -0.0869  0.2846  0.0645
 3350W        W46262  27.312  10.435  27.522  0.2458  0.2387  0.1275
 3351W        W46263  23.399  10.901  30.483 -0.0333  0.1511  0.1173
 3352W        W46264  23.547  12.028   0.446 -0.2155 -0.1681  0.2336
 3353W        W46265  24.089  10.337  30.024  0.1593  0.3094 -0.0845
 3354W        W46266  25.604  10.301  30.735  0.2945  0.2797 -0.0403
 3355W        W46267  22.670   7.567  30.168 -0.0394  0.3029  0.4582
 3356W        W46268  22.544   9.590  28.302  0.0004  0.0732  0.2577
 3357W        W46269  24.008   9.545  29.056 -0.0588  0.2374  0.1158
 3358W        W46270  24.781   9.265  28.419 -0.1959 -0.1568 -0.3300
 3359W        W46271  25.090   7.837  28.611 -0.1609  0.2146 -0.1851
 3360W        W46272  24.684   7.481  28.453  0.0645  0.1654 -0.2146
 3361W        W46273  22.621  10.239   0.055 -0.2620 -0.0106 -0.0303
 3362W        W46274  22.927   9.117  31.495 -0.4151 -0.1430 -0.3851
 3363W        W46275  25.936   5.602  31.771  0.1178 -0.2700 -0.2721
 3364W        W46276  24.242   9.787   0.342  0.0178  0.2392 -0.0646
 3365W        W46277  21.314   8.618   0.617 -0.1880  0.1306 -0.1816
 3366W        W46278  24.027  11.148  31.054  0.3523 -0.0652 -0.2679
 3367W        W46279  22.843  10.254   0.517 -0.2758  0.1592 -0.2111
 3368W        W46280  23.112  10.561  30.687  0.0238 -0.1492 -0.4010
 3369W        W46281  24.081   9.032   0.318 -0.0627  0.1451 -0.0791
 3370W        W46282  24.232   8.998  31.808  0.1331 -0.1193 -0.0578
 3371W        W46283  25.451   7.084  30.816 -0.1541 -0.3752 -0.0096
 3372W        W46284  25.901   9.598  31.197 -0.2362 -0.0075  0.1536
 3373W        W46285  22.907   9.773   0.404  0.2088  0.2105 -0.0820
 3374W        W46286  22.320   7.818  31.726 -0.3663  0.1580  0.0401
 3375W        W46287  26.347   9.780  31.387  0.0805  0.1426  0.1088
 3376W        W46288  23.731   9.221  31.974 -0.3524 -0.0530  0.0424
 3377W        W46289  23.863   9.503   0.455 -0.1856 -0.0100 -0.0417
 3378W        W46290  23.824  11.274  31.677 -0.0359  0.0316 -0.1198
 3379W        W46291  22.147   9.270   0.695  0.0702  0.1862 -0.2200
 3380W        W46292  24.618  11.030  31.267  0.4463 -0.0902 -0.1213
 3381W        W46293  21.836   7.933   0.198 -0.0928 -0.1785 -0.0592
 3382W        W46294  22.903   7.627   0.524  0.0845 -0.2950  0.1960
 3383W        W46295  22.518   7.249  31.742 -0.5055  0.0117 -0.2970
 3384W        W46296  21.907   9.608  31.607  0.1481 -0.0058  0.2390
 3385W        W46297  25.609   8.800   0.083 -0.1041 -0.0157  0.0186
 3386W        W46298  23.989   7.855  31.947 -0.1773  0.2636 -0.0232
 3387W        W46299  24.932   8.652  30.580  0.0535 -0.1495 -0.0241
 3388W        W46300  23.811   7.463   0.425 -0.0433 -0.1243 -0.0071
 3389W        W46301  21.977   9.283  31.967 -0.1070  0.0781 -0.0218
 3390W        W46302  23.775   9.900  30.937  0.1968 -0.2473 -0.1630
 3391W        W46303  23.346   8.529  31.762 -0.1968 -0.1776 -0.0990
 3392W        W46304  24.000   9.882  31.934  0.0132 -0.0895 -0.1823
 3393W        W46305  23.427  10.048   1.019 -0.1443 -0.1148 -0.0847
 3394W        W46306  21.773   8.834   0.679 -0.0300 -0.2771  0.1595
 3395W        W46307  24.753   9.660   0.321  0.0573  0.4938 -0.0329
 3396W        W46308  25.570   7.773  31.228 -0.0489 -0.2358 -0.0371
 3397W        W46309  22.703   7.556  31.325  0.0239 -0.2434 -0.0840
 3398W        W46310  21.940  10.058   1.063  0.0608 -0.0850 -0.1971
 3399W        W46311  23.007   9.813   0.886 -0.2194 -0.1022  0.0382
 3400W        W46312  22.429   9.941   1.129 -0.0582  0.1668 -0.0903
 3401W        W46313  24.719   9.965  31.869 -0.0546  0.0182  0.0690
 3402W        W46314  22.557   8.168  31.441  0.2640  0.1370 -0.0460
 3403W        W46315  25.755  10.469  31.212  0.0542  0.2353 -0.1064
 3404W        W46316  25.562   8.167  30.866 -0.2995 -0.1821 -0.2538
 3405W        W46317  23.829   6.377  30.348 -0.0098 -0.2655 -0.0662
 3406W        W46318  22.162   9.474   1.154  0.0065 -0.3480 -0.1558
 3407W        W46319  22.969   8.569   0.196 -0.2685 -0.1674  0.1679
 3408W        W46320  23.670   9.392   1.088  0.1952 -0.2311 -0.0078
 3409W        W46321  22.542   8.350   0.457 -0.1380 -0.2155 -0.1072
 3410W        W46322  22.849   8.600  31.659  0.0141  0.1665  0.1432
 3411W        W46323  23.711  10.325  31.887 -0.0912  0.0079  0.2307
 3412W        W46324  21.822  10.124  31.533  0.1122 -0.1763 -0.1985
 3413W        W46325  24.144  11.276   0.061  0.3381  0.0434 -0.2530
 3414W        W46326  26.469   7.680   0.529  0.1992 -0.0712  0.2061
 3415W        W46327  23.593   8.103  31.711 -0.1011  0.0119  0.1473
 3416W        W46328  22.905   9.796  30.066  0.2718 -0.0020  0.2066
 3417W        W46329  23.288   8.490   1.152 -0.0664 -0.1422  0.0397
 3418W        W46330  24.571   8.731  31.368 -0.0976  0.0001  0.0287
 3419W        W46331  26.201  10.517  31.509  0.2849 -0.1235  0.2037
 3420W        W46332  23.818  12.105  30.800  0.0368 -0.3557 -0.1310
 3421W        W46333  22.049   9.751   0.640  0.2564 -0.0600  0.0064
 3422W        W46334  22.594   8.880   0.408  0.1539 -0.1375 -0.0132
 3423W        W46335  23.049   7.926  31.423  0.0770 -0.1415 -0.2577
 3424W        W46336  22.248   8.654  31.674  0.2371  0.0288  0.3389
 3425W        W46337  21.997   9.022  31.412 -0.0417  0.0062  0.1582
 3426W        W46338  22.311   6.301  30.466 -0.1663 -0.1341  0.0447
 3427W        W46339  23.902   9.177  30.495 -0.0607  0.0979 -0.0836
 3428W        W46340  25.880  10.034  31.515 -0.1338 -0.0214 -0.0771
 3429W        W46341  25.126   9.451   0.665  0.0677  0.1010  0.0429
 3430W        W46342  22.946  12.781  17.742 -0.0817  0.0047  0.2031
 3431W        W46343  21.751  11.374  16.649 -0.0267  0.1093  0.0129
 3432W        W46344  23.638  11.468  15.784 -0.1405 -0.1892  0.1475
 3433W        W46345  25.208  12.257  15.843 -0.1158  0.0157 -0.0563
 3434W        W46346  20.974  11.326  17.337 -0.1738  0.1184  0.1169
 3435W        W46347  24.787  14.745  16.173 -0.0173  0.3584  0.0112
 3436W        W46348  20.963  10.145  19.156  0.1263  0.0948  0.4015
 3437W        W46349  24.746  14.888  17.733  0.0428 -0.1574  0.1339
 3438W        W46350  26.387  13.426  18.588  0.0326  0.1863 -0.0218
 3439W        W46351  23.712  12.970  15.248  0.0910  0.0086  0.0522
 3440W        W46352  24.185  11.432  19.191  0.1505  0.1315  0.0938
 3441W        W46353  23.627  13.131  18.818 -0.2228  0.2854 -0.1455
 3442W        W46354  22.418  10.222  15.694  0.0437 -0.2560 -0.0911
 3443W        W46355  22.408  10.818  20.648  0.1355  0.1526 -0.1406
 3444W        W46356  25.938  12.721  16.532  0.0240 -0.1046 -0.0431
 3445W        W46357  22.575  11.612  17.022  0.3306 -0.2987 -0.0600
 3446W        W46358  23.826   9.527  17.753 -0.3065  0.0786  0.1596
 3447W        W46359  23.003  12.819  16.575  0.2984  0.1848  0.3447
 3448W        W46360  23.442  13.480  17.299  0.0187  0.1480  0.0656
 3449W        W46361  23.722   9.953  18.061 -0.2207 -0.0203  0.1799
 3450W        W46362  23.530  10.765  19.256 -0.0490 -0.0629 -0.2292
 3451W        W46363  24.330  14.081  16.003 -0.1463  0.0281 -0.0511
 3452W        W46364  22.551  12.032  15.824 -0.2621 -0.2081  0.0932
 3453W        W46365  21.493  12.320  19.712  0.0731 -0.5309 -0.2243
 3454W        W46366  22.156  10.150  18.950 -0.0849  0.1362  0.1644
 3455W        W46367  24.551  11.025  16.914 -0.0738 -0.1915  0.0048
 3456W        W46368  25.292  11.384  17.120 -0.1379  0.3618 -0.0195
 3457W        W46369  22.723  14.068  16.829 -0.1439  0.2304 -0.2318
 3458W        W46370  23.529  13.664  18.087  0.2057 -0.3897  0.0811
 3459W        W46371  25.255  10.792  19.643 -0.1963 -0.1586 -0.1896
 3460W        W46372  22.436  11.418  16.551 -0.1059 -0.0064 -0.0902
 3461W        W46373  21.713  12.500  17.052  0.2077  0.2200 -0.0875
 3462W        W46374  23.383  14.894  15.393 -0.2562 -0.1110  0.0379
 3463W        W46375  24.932  12.990  17.298 -0.2077  0.1544 -0.4874
 3464W        W46376  25.027  13.518  19.165  0.3380 -0.1196  0.0242
 3465W        W46377  24.458  13.674  18.348  0.1401 -0.0679  0.0495
 3466W        W46378  22.560  14.949  15.979 -0.1756 -0.4419  0.1507
 3467W        W46379  24.016  12.893  18.601  0.0274 -0.0374  0.1682
 3468W        W46380  22.905  11.482  19.573 -0.1270  0.1109  0.2289
 3469W        W46381  22.996  12.856  18.446  0.0326  0.1500  0.1720
 3470W        W46382  23.062  11.784  16.776 -0.1305  0.0852 -0.0792
 3471W        W46383  23.081  14.611  16.096 -0.4286 -0.0446  0.0943
 3472W        W46384  24.829  11.510  17.298  0.2062 -0.3419  0.0850
 3473W        W46385  23.474  12.702  18.569 -0.2618 -0.1577 -0.1641
 3474W        W46386  22.696  13.589  16.884 -0.1860 -0.0528 -0.0402
 3475W        W46387  26.453  12.356  18.146  0.1888  0.0264  0.2537
 3476W        W46388  22.544  13.618  15.576 -0.3768 -0.2022 -0.0404
 3477W        W46389  24.409  12.164  16.265  0.1432 -0.0164  0.2032
 3478W        W46390  21.929  10.293  16.376  0.1511  0.0131  0.1187
 3479W        W46391  23.539  12.123  15.686  0.0997  0.1937  0.0959
 3480W        W46392  23.362   9.450  16.832 -0.0538  0.3039  0.0776
 3481W        W46393  23.519  15.336  16.104  0.0556 -0.0701 -0.2630
 3482W        W46394  23.672  12.275  17.983 -0.2200 -0.2796 -0.0777
 3483W        W46395  25.453  13.934  19.856 -0.3854 -0.1513 -0.1054
 3484W        W46396  22.160  12.222  17.167 -0.0954  0.0038  0.2898
 3485W        W46397  23.376  11.546  17.841 -0.0334 -0.0921  0.0452
 3486W        W46398  24.363  13.273  18.631  0.0945 -0.3459 -0.1584
 3487W        W46399  22.079  11.103  17.664  0.0726  0.2134 -0.4530
 3488W        W46400  25.673  13.407  17.825  0.1786  0.0581 -0.0200
 3489W        W46401  24.931  13.496  16.346  0.0166 -0.1147 -0.4007
 3490W        W46402  23.469  15.476  15.052 -0.0217 -0.4490 -0.0807
 3491W        W46403  22.546  12.573  16.752  0.2739 -0.1400 -0.1970
 3492W        W46404  22.647  14.627  18.143  0.0794  0.1208  0.4748
 3493W        W46405  22.565  11.510  18.339  0.2460 -0.1062  0.1118
 3494W        W46406  23.356  10.111  16.047  0.2014 -0.2827  0.2764
 3495W        W46407  24.152  12.923  19.517  0.0605  0.2480  0.1929
 3496W        W46408  22.588  13.179  17.735  0.1903 -0.1575  0.1191
 3497W        W46409  25.108  11.091  17.548  0.0893  0.2330 -0.0010
 3498W        W46410  24.502  13.402  16.557 -0.1492 -0.1196 -0.3601
 3499W        W46411  25.803  13.069  18.744  0.3965 -0.0284 -0.0705
 3500W        W46412  23.984  14.169  15.089  0.1564  0.1303  0.0974
 3501W        W46413  24.681  10.819  15.946  0.1323 -0.0094 -0.0997
 3502W        W46414  23.960  11.201  18.175  0.0676 -0.2159  0.0709
 3503W        W46415  23.034  12.738  15.950  0.0247 -0.0002 -0.0020
 3504W        W46416  23.351  13.099  16.182 -0.1839 -0.1318 -0.3005
 3505W        W46417  26.768  13.257  17.652  0.1839  0.0705  0.1497
 3506W        W46418  25.121  11.800  15.658  0.2877 -0.1537 -0.1293
 3507W        W46419  22.121  12.834  16.953 -0.2686 -0.0095  0.1664
 3508W        W46420  23.632  11.333  19.168  0.1521 -0.0060 -0.2745
 3509W        W46421  25.785  11.809  18.396 -0.3143  0.0373 -0.0797
 3510W        W46422  22.763  14.571  15.653  0.0279  0.0264 -0.0318
 3511W        W46423  21.491  11.838  16.985  0.4493 -0.1410  0.3453
 3512W        W46424  23.297  15.025  16.414  0.0543 -0.1811  0.1238
 3513W        W46425  21.958  12.188  19.666 -0.2376 -0.0920  0.2372
 3514W        W46426  24.077  12.259  19.290 -0.1318 -0.1962  0.1010
 3515W        W46427  24.729  11.264  16.266  0.0647 -0.1775 -0.1603
 3516W        W46428  22.552  10.144  19.441 -0.0655  0.0672  0.2050
 3517W        W46429  24.749   9.836  18.115 -0.0223 -0.0515  0.0300
 3518W        W46430  22.756  13.067  16.981  0.1537  0.1269 -0.0909
 3519W        W46431  23.799  15.181  16.614 -0.1709  0.3247 -0.1231
 3520W        W46432  23.750  11.760  17.179  0.1044  0.3047  0.1019
 3521W        W46433  25.335  13.068  16.993 -0.0836  0.4928  0.0474
 3522W        W46434  22.542  11.824  18.708 -0.0006 -0.0617 -0.0813
 3523W        W46435  21.172  11.630  17.880  0.1063  0.2520  0.3331
 3524W        W46436  23.693  11.774  20.841  0.2139 -0.1769  0.0960
 3525W        W46437  22.495  11.313  17.878  0.3172  0.1087 -0.2116
 3526W        W46438  23.525  12.737  18.077 -0.1111 -0.4877  0.1042
 3527W        W46439  22.384   9.749  16.437 -0.0237 -0.1200 -0.1106
 3528W        W46440  25.818  12.119  17.186  0.3703  0.1839 -0.3554
 3529W        W46441  22.957  13.810  16.503  0.0231 -0.0230  0.1273
 3530W        W46442  21.746  13.399  16.014 -0.0509  0.0438  0.2577
 3531W        W46443  25.627   9.449  18.819  0.4325 -0.1002 -0.1897
 3532W        W46444  23.146  13.764  15.774 -0.2525 -0.1621  0.1500
 3533W        W46445  26.179  13.248  19.023  0.0352 -0.1586  0.0233
 3534W        W46446  24.995  13.886  17.251  0.0813 -0.2620 -0.2265
 3535W        W46447  21.732  11.376  18.974  0.4470 -0.0984  0.1516
 3536W        W46448  21.415  11.666  16.509  0.3706 -0.1820 -0.2523
 3537W        W46449  22.598  15.017  17.793  0.2126  0.5594 -0.1972
 3538W        W46450  22.747  14.181  17.941  0.2335  0.4868  0.0823
 3539W        W46451  22.580  11.996  16.686  0.0763 -0.3131  0.1315
 3540W        W46452  25.745  14.646  16.921 -0.0092  0.0132  0.0208
 3541W        W46453  23.941  12.248  16.727  0.3108 -0.2487 -0.5275
 3542W        W46454  21.706  13.448  17.915 -0.1385  0.2656 -0.1791
 3543W        W46455  23.617  12.119  19.242 -0.3139  0.0038 -0.0606
 3544W        W46456  25.009  12.028  20.145 -0.2458  0.0120  0.0648
 3545W        W46457  23.789  11.854  16.098 -0.0699 -0.1821 -0.2008
 3546W        W46458  21.052  12.075  16.503  0.4439  0.2961  0.3052
 3547W        W46459  24.753  13.571  17.594  0.0412  0.2410  0.0256
 3548W        W46460  23.198  14.407  15.666  0.0711  0.2065 -0.0123
 3549W        W46461  22.136  11.751  16.874  0.1429  0.0102  0.1621
 3550W        W46462  22.788  14.089  15.496  0.0551  0.1671  0.0242
 3551W        W46463  25.185  10.973  18.055 -0.0538 -0.1436  0.3213
 3552W        W46464  22.033  11.619  19.896 -0.1580  0.0800 -0.1015
 3553W        W46465  23.139  11.216  19.167 -0.1101  0.0311 -0.0968
 3554W        W46466  21.648  11.896  17.710 -0.1706 -0.1739  0.1601
 3555W        W46467  21.797  13.243  17.177  0.1866 -0.1512 -0.0248
 3556W        W46468  23.396  10.969  15.545 -0.0705 -0.1891 -0.0803
 3557W        W46469  25.557  11.776  16.793  0.0090 -0.1063  0.0653
 3558W        W46470  24.340  12.643  19.095  0.2107  0.1124  0.4692
 3559W        W46471  24.729  13.950  16.447 -0.1183 -0.1104  0.0909
 3560W        W46472  22.938  11.054  15.868 -0.1756  0.3175 -0.0266
 3561W        W46473  24.061  11.060  15.535 -0.1415 -0.8049  0.0792
 3562W        W46474  22.912  14.405  18.460  0.0840  0.0700 -0.4320
 3563W        W46475  23.610  13.538  15.758 -0.0594 -0.0147 -0.2065
 3564W        W46476  22.057  13.186  17.608 -0.1408 -0.0424 -0.1366
 3565W        W46477  24.299  11.488  17.126  0.1069  0.2366  0.1013
 3566W        W46478  25.318  13.381  16.599  0.0111  0.0606 -0.1002
 3567W        W46479  22.305  14.291  15.785 -0.0974 -0.0108 -0.0403
 3568W        W46480  24.513  12.236  18.348 -0.0514 -0.1627 -0.1561
 3569W        W46481  23.761  14.915  16.142  0.1529 -0.0878  0.1127
 3570W        W46482  23.022   9.743  18.830 -0.1616 -0.2509  0.0879
 3571W        W46483  23.293  12.032  16.128  0.0809  0.0757  0.0265
 3572W        W46484  23.358  11.744  18.822  0.0932 -0.2326 -0.0060
 3573W        W46485  21.959  14.421  15.461 -0.1308 -0.1545  0.0437
 3574W        W46486  24.510  11.103  18.896 -0.2256  0.3261  0.1800
 3575W        W46487  24.185  10.997  17.786 -0.1627 -0.0026 -0.2637
 3576W        W46488  22.942  10.358  19.677 -0.0360  0.1172  0.1540
 3577W        W46489  24.330  10.612  19.523 -0.2950 -0.0698  0.0596
 3578W        W46490  24.145  11.533  15.633  0.5295 -0.1158  0.0978
 3579W        W46491  22.833  10.743  18.063 -0.4978  0.0375 -0.1360
 3580W        W46492  21.362  14.067  15.395  0.1303 -0.0376 -0.2390
 3581W        W46493  23.848   9.968  19.413  0.0587  0.0980 -0.0775
 3582W        W46494  23.115  12.097  19.067 -0.0717  0.0611 -0.0651
 3583W        W46495  22.640  15.532  17.929 -0.3653  0.1706 -0.2202
 3584W        W46496  24.841  13.078  18.425  0.1857 -0.2211 -0.0825
 3585W        W46497  24.340  11.491  17.645 -0.0785  0.0672  0.2399
 3586W        W46498  23.422  10.569  18.791  0.1587 -0.2656  0.1309
 3587W        W46499  22.234  10.675  16.268 -0.2077 -0.0728  0.0716
 3588W        W46500  23.332  14.936  15.869 -0.3786 -0.2232  0.0781
 3589W        W46501  22.117  12.416  16.654 -0.1291  0.1927 -0.1202
 3590W        W46502  22.438  11.137  16.110 -0.0351 -0.2004  0.2327
 3591W        W46503  23.968  13.881  17.117 -0.1773  0.0332 -0.2796
 3592W        W46504  22.411  14.495  14.671  0.2104  0.1497 -0.0202
 3593W        W46505  24.799  13.537  20.391 -0.1548 -0.1361 -0.0662
 3594W        W46506  23.463  13.983  17.231 -0.0125 -0.1133  0.1250
 3595W        W46507  23.981  10.694  18.090 -0.3284 -0.0308  0.2405
 3596W        W46508  21.743  14.246  16.713 -0.1510 -0.3726 -0.0428
 3597W        W46509  21.774  12.404  16.263  0.4413  0.2106 -0.1343
 3598W        W46510  21.663  11.373  17.825  0.1827  0.3131  0.1291
 3599W        W46511  23.006  11.923  17.444  0.4432 -0.0513 -0.0433
 3600W        W46512  24.125  13.697  15.789  0.1924  0.0304 -0.2360
 3601W        W46513  23.395  10.249  19.296 -0.2854 -0.3712 -0.0383
 3602W        W46514  23.766  10.822  18.519 -0.2952 -0.3298 -0.1290
 3603W        W46515  21.373  14.899  17.593  0.0038 -0.2478 -0.0123
 3604W        W46516  23.838  11.381  17.642  0.2840 -0.2519 -0.0008
 3605W        W46517  24.277  11.728  16.149  0.3010  0.0977  0.0037
 3606W        W46518  25.217  13.731  17.801  0.0308  0.2498 -0.1078
 3607W        W46519  24.722  12.682  18.133  0.0181  0.2025 -0.1680
 3608W        W46520  21.411  11.572  17.377 -0.3173 -0.1275  0.1737
 3609W        W46521  24.382  11.507  19.684 -0.0904 -0.0214 -0.2308
 3610W        W46522  23.074  10.849  16.489  0.1182 -0.4965 -0.0259
 3611W        W46523  22.174  12.648  16.139 -0.0153 -0.3386 -0.3194
 3612W        W46524  23.926  13.020  17.678  0.3525  0.1010 -0.0498
 3613W        W46525  22.801  11.863  16.235 -0.2042  0.2039 -0.2384
 3614W        W46526  22.450  14.009  16.347 -0.3485  0.1413 -0.2462
 3615W        W46527  22.518  11.847  17.520  0.1938 -0.0106  0.4629
 3616W        W46528  25.168  11.728  17.745 -0.0953 -0.3239 -0.0127
 3617W        W46529  23.960  12.725  16.803  0.1451 -0.0531 -0.1525
 3618W        W46530  23.558  10.427  17.943 -0.1203  0.0277  0.0918
 3619W        W46531  22.846   9.845  17.748 -0.2343 -0.0849  0.0112
 3620W        W46532  24.462  11.848  19.342  0.2089  0.4809  0.4089
 3621W        W46533  23.852  11.846  17.863 -0.2865 -0.1842  0.1776
 3622W        W46534  22.914  12.576  19.863 -0.2760 -0.3021  0.5055
 3623W        W46535  22.469   9.333  19.452 -0.3461 -0.1446  0.1864
 3624W        W46536  26.460  13.402  15.624 -0.2452  0.0227  0.5423
 3625W        W46537  24.143  12.010  20.009 -0.1067 -0.1238  0.1629
 3626W        W46538  21.515  13.548  15.410 -0.1872  0.3783 -0.0743
 3627W        W46539  21.243  12.143  18.009 -0.1320 -0.3316  0.3146
 3628W        W46540  23.132  13.976  15.173  0.1398 -0.1129  0.1898
 3629W        W46541  23.596  11.460  18.370 -0.0580 -0.0375  0.0680
 3630W        W46542  23.337  13.256  17.864 -0.3590  0.0342 -0.0639
 3631W        W46543  21.996  13.565  15.616  0.1217  0.1911  0.0601
 3632W        W46544  21.914  13.644  17.487 -0.2341 -0.2497 -0.1263
 3633W        W46545  24.834  12.171  16.572 -0.1764 -0.1808 -0.0772
 3634W        W46546  24.115  14.750  16.535  0.2332 -0.1606  0.1365
 3635W        W46547  23.937  13.032  15.904 -0.2352  0.0451 -0.1999
 3636W        W46548  24.956  11.919  19.222  0.2618 -0.0757  0.1558
 3637W        W46549  23.966  12.615  15.702 -0.1347  0.1175 -0.1381
 3638W        W46550  25.011  11.688  19.642  0.0893 -0.2283  0.4810
 3639W        W46551  22.267   9.009  19.797 -0.2269 -0.0711 -0.0216
 3640W        W46552  25.183  13.108  16.119  0.0558 -0.1532 -0.2771
 3641W        W46553  23.080  11.131  17.831 -0.1933 -0.0481 -0.1349
 3642W        W46554  23.672  13.031  19.329  0.0263 -0.1184  0.2731
 3643W        W46555  23.407  11.034  20.365 -0.1685  0.2034  0.2370
 3644W        W46556  23.536  12.560  16.034 -0.0529 -0.0389  0.0357
 3645W        W46557  22.535  10.746  15.768  0.1486 -0.0692 -0.1667
 3646W        W46558  23.464  12.779  16.941 -0.0961  0.2769  0.0722
 3647W        W46559  25.818  13.862  17.763 -0.1868 -0.0106  0.0251
 3648W        W46560  23.021  13.286  15.833 -0.1298 -0.0581  0.4147
 3649W        W46561  24.655  12.081  15.670 -0.0899 -0.0554  0.0087
 3650W        W46562  21.438  13.105  16.272  0.1618  0.0456 -0.1761
 3651W        W46563  25.057  12.600  16.221  0.2012 -0.0157 -0.2849
 3652W        W46564  22.971  13.502  15.245 -0.2287  0.0280 -0.2238
 3653W        W46565  22.793  13.659  17.798 -0.3209  0.1685  0.2483
 3654W        W46566  22.093  11.624  18.685 -0.0540 -0.4602 -0.1992
 3655W        W46567  24.305  13.436  17.768 -0.2802 -0.0399  0.0604
 3656W        W46568  24.566  10.729  18.004  0.1997  0.0489 -0.2863
 3657W        W46569  24.535  12.264  17.782  0.2879  0.1814 -0.1071
 3658W        W46570  25.011  12.517  18.573  0.0148  0.0540  0.0664
 3659W        W46571  22.777  12.207  17.077  0.1025 -0.1981  0.4494
 3660W        W46572  23.011  11.280  20.051 -0.0389 -0.1553 -0.1871
 3661W        W46573  25.629  13.193  18.311  0.2861 -0.0132 -0.1463
 3662W        W46574  24.416  12.480  15.390  0.0112 -0.2610  0.2520
 3663W        W46575  25.056  11.265  19.276  0.2824 -0.0941  0.1573
 3664W        W46576  24.989  12.816  15.729  0.2017  0.0191  0.0866
 3665W        W46577  24.200  12.643  16.108 -0.2122  0.1335 -0.0274
 3666W        W46578  23.273  12.111  17.036 -0.2140  0.2552  0.0754
 3667W        W46579  25.400  12.221  20.368 -0.1836 -0.1260 -0.2650
 3668W        W46580  22.422  10.350  16.612  0.1993 -0.1000  0.0871
 3669W        W46581  23.335  11.721  19.323 -0.0365 -0.1441 -0.3853
 3670W        W46582  23.076  15.158  15.051  0.0650 -0.1188  0.0140
 3671W        W46583  24.024  13.746  18.116  0.0528  0.0205 -0.1567
 3672W        W46584  24.298  11.295  16.547 -0.1567  0.1220 -0.1224
 3673W        W46585  21.559  10.078  16.739  0.0206  0.1563 -0.0921
 3674W        W46586  23.251  14.017  18.561 -0.0697  0.0430  0.0044
 3675W        W46587  21.629  11.528  15.972 -0.0799 -0.3318  0.0124
 3676W        W46588  24.503  13.510  16.024 -0.0413  0.3034 -0.0247
 3677W        W46589  23.700  12.403  17.129 -0.0323  0.1040  0.3366
 3678W        W46590  26.113  12.687  20.544 -0.2612  0.1937 -0.1507
 3679W        W46591  23.924  10.201  15.932 -0.1218  0.1931 -0.2055
 3680W        W46592  24.977  12.228  17.667 -0.1279 -0.0441  0.4059
 3681W        W46593  22.225  14.708  16.298  0.1512  0.0508 -0.1256
 3682W        W46594  23.297  10.568  16.935  0.1063 -0.1064 -0.1511
 3683W        W46595  25.306  14.189  17.611 -0.1132  0.1524 -0.3236
 3684W        W46596  22.578  12.351  17.509 -0.2179 -0.3752  0.2225
 3685W        W46597  22.920  13.201  18.085  0.0098  0.0214  0.0216
 3686W        W46598  22.637  11.610  19.176 -0.0790  0.2159 -0.0208
 3687W        W46599  24.360  12.441  16.908  0.1487  0.1171  0.0234
 3688W        W46600  23.677  13.277  16.596 -0.2695 -0.2375 -0.0308
 3689W        W46601  24.864  11.463  18.784 -0.2101  0.2084 -0.0688
 3690W        W46602  25.105  12.946  18.869 -0.1426 -0.0741  0.0025
 3691W        W46603  22.094  11.690  17.733 -0.1207  0.2694  0.1351
 3692W        W46604  25.185  13.514  18.253  0.0204  0.0368  0.3509
 3693W        W46605  25.212  11.999  18.791 -0.0299  0.1454  0.3594
 3694W        W46606  22.457  13.460  17.368 -0.0961 -0.4825 -0.1728
 3695W        W46607  22.166  12.162  18.678 -0.0593  0.2366 -0.3423
 3696W        W46608  23.898  12.250  20.600  0.1590  0.1241  0.0987
 3697W        W46609  22.906  11.291  17.331  0.0121 -0.1428 -0.1649
 3698W        W46610  23.368  11.107  16.206 -0.0888 -0.0006  0.2592
 3699W        W46611  22.631  13.574  16.039 -0.1497  0.0006  0.2396
 3700W        W46612  21.863  13.637  19.669  0.0261  0.0244 -0.2458
 3701W        W46613  22.860  11.647  17.848  0.1847 -0.2728  0.0462
 3702W        W46614  23.040  15.458  16.542  0.0392 -0.2129  0.0738
 3703W        W46615  23.519  13.990  15.533  0.0043 -0.1138  0.1743
 3704W        W46616  23.906  12.301  16.229  0.1482 -0.1301 -0.1225
 3705W        W46617  23.317  14.319  18.106 -0.0450 -0.1512  0.0114
 3706W        W46618  24.119  11.783  16.655  0.1983 -0.1136  0.0015
 3707W        W46619  23.108  14.550  16.641 -0.3556  0.1482  0.0709
 3708W        W46620  22.175  13.177  15.996 -0.0766 -0.1867  0.2032
 3709W        W46621  24.173  13.963  16.464  0.2420 -0.0535 -0.1353
 3710W        W46622  21.401  14.258  16.030  0.0401 -0.1355 -0.2350
 3711W        W46623  25.502  11.424  18.052  0.0000 -0.1552  0.0620
 3712W        W46624  24.251  11.181  16.005  0.0596  0.1209  0.1299
 3713W        W46625  24.471  12.912  17.722  0.0401  0.1751 -0.2830
 3714W        W46626  25.626  11.763  16.174  0.1690 -0.2630  0.0965
 3715W        W46627  25.606  13.929  18.683  0.1425 -0.1890  0.1794
 3716W        W46628  22.309  12.187  16.234  0.3045 -0.0834  0.0531
 3717W        W46629  23.353  11.566  16.171  0.1015  0.2062 -0.1711
 3718W        W46630  23.665  12.591  19.544  0.1298  0.0108  0.0309
 3719W        W46631  25.423   9.881  18.873 -0.1407  0.0177 -0.1232
 3720W        W46632  22.166  14.523  18.438 -0.2142  0.3663 -0.4092
 3721W        W46633  23.770  14.135  17.863 -0.2349  0.0237 -0.0316
 3722W        W46634  21.870  13.372  16.557 -0.0055  0.0339 -0.1015
 3723W        W46635  24.475  13.774  17.136  0.0357 -0.0261  0.0368
 3724W        W46636  24.102  10.743  16.820  0.0189 -0.0992 -0.2245
 3725W        W46637  24.200  13.037  16.482 -0.1767  0.0530  0.0124
 3726W        W46638  23.829  11.362  16.223 -0.2411  0.0954  0.1596
 3727W        W46639  22.807  14.137  16.022  0.3473  0.1589  0.1861
 3728W        W46640  23.370  12.962  17.469 -0.1700  0.0759  0.1693
 3729W        W46641  22.818  13.871  18.692 -0.2708 -0.0812 -0.0277
 3730W        W46642  23.037  10.666  15.591 -0.1674 -0.0662 -0.0903
 3731W        W46643  23.533  11.915  16.584 -0.1478 -0.2345  0.0597
 3732W        W46644  22.475  12.886  17.365 -0.0326  0.0334 -0.2508
 3733W        W46645  25.190  11.052  18.790  0.1894 -0.1157 -0.0946
 3734W        W46646  23.201  14.096  16.817 -0.2559  0.0858 -0.3721
 3735W        W46647  25.457  13.615  15.985 -0.2369  0.0126  0.1976
 3736W        W46648  24.782  13.306  17.992  0.0210 -0.3575  0.0609
 3737W        W46649  22.835  12.145  17.838 -0.2393  0.1846 -0.1162
 3738W        W46650  23.765  12.808  16.368  0.0099  0.0492 -0.0231
 3739W        W46651  26.257  12.696  20.033 -0.1062 -0.2139  0.0162
 3740W        W46652  22.705  11.510  15.785 -0.4536 -0.2962  0.0368
 3741W        W46653  24.305  13.866  19.779 -0.1550  0.4936  0.1200
 3742W        W46654  23.320  11.539  17.348 -0.1746 -0.1226  0.1875
 3743W        W46655  22.922  11.002  15.150 -0.0136  0.0847 -0.0437
 3744W        W46656  22.310  11.643  16.149  0.3638  0.2871 -0.1931
 3745W        W46657  25.462  12.364  17.793 -0.2704  0.2750 -0.1106
 3746W        W46658  24.473  13.546  19.138  0.3672 -0.0331 -0.1669
 3747W        W46659  21.389   9.919  17.811 -0.2046  0.0671 -0.1653
 3748W        W46660  23.925  14.319  16.271  0.0244 -0.1029  0.0496
 3749W        W46661  24.554  11.963  17.426  0.0646 -0.1764 -0.0060
 3750W        W46662  22.821  14.181  14.844  0.0671 -0.0146  0.1675
 3751W        W46663  24.509  12.627  16.502  0.1103  0.3212  0.2455
 3752W        W46664  24.157  14.368  16.847 -0.1014 -0.3130  0.0058
 3753W        W46665  23.512  12.447  16.617 -0.0149  0.1198  0.1354
 3754W        W46666  24.351  14.182  17.966  0.0482  0.1619  0.3271
 3755W        W46667  26.561  13.694  17.053  0.4243  0.0527  0.3450
 3756W        W46668  22.824  10.423  16.835 -0.1721 -0.0534  0.0536
 3757W        W46669  23.059  12.221  16.611 -0.0805 -0.2080  0.0221
 3758W        W46670  22.309  14.731  15.542 -0.1591  0.0463  0.3540
 3759W        W46671  25.327  12.250  16.885 -0.0930 -0.0502 -0.0960
 3760W        W46672  24.836  11.854  18.473  0.2501  0.2012 -0.3138
 3761W        W46673  24.652  12.542  15.927  0.0724 -0.1360  0.0369
 3762W        W46674  24.994  10.752  19.236 -0.0567 -0.0315  0.3869
 3763W        W46675  25.452  14.412  18.722  0.0637 -0.2544 -0.0166
 3764W        W46676  22.940  13.781  19.255 -0.0032  0.1118  0.3381
 3765W        W46677  22.031  12.264  15.695  0.1121  0.1019  0.0006
 3766W        W46678  23.298  12.467  17.666 -0.1538  0.2562  0.1853
 3767W        W46679  22.901  13.311  16.489  0.2621 -0.1774  0.3297
 3768W        W46680  22.333  13.474  16.394 -0.1046 -0.1833  0.1679
 3769W        W46681  25.487  14.127  18.052  0.0282  0.0245 -0.1424
 3770W        W46682  24.492  10.827  16.401 -0.0682 -0.1738  0.0154
 3771W        W46683  25.816  13.832  18.237 -0.1862  0.0440  0.0902
 3772W        W46684  23.142  10.644  16.045  0.0829 -0.2010  0.1225
 3773W        W46685  24.092  10.283  17.127  0.0024 -0.2882 -0.2102
 3774W        W46686  24.515  10.360  16.120  0.2149  0.0128  0.2148
 3775W        W46687  22.887  12.509  19.258  0.1017  0.1790  0.1611
 3776W        W46688  21.879  12.889  16.508  0.0632 -0.1882 -0.0042
 3777W        W46689  21.744  13.956  15.787 -0.0967 -0.1255  0.1763
 3778W        W46690  22.960  13.312  17.464 -0.1181 -0.0364 -0.0172
 3779W        W46691  23.767  10.880  17.622  0.0006 -0.4666 -0.2185
 3780W        W46692  23.271  11.955  18.045  0.1021  0.0520  0.1246
 3781W        W46693  22.598  10.906  16.572 -0.1239  0.1090 -0.1922
 3782W        W46694  21.993  10.930  15.853  0.1242 -0.0001  0.1325
 3783W        W46695  25.943  13.428  15.971 -0.0244  0.1017 -0.2320
 3784W        W46696  23.030  10.246  18.721 -0.1238  0.2999  0.2441
 3785W        W46697  22.829  10.701  17.224  0.2653  0.3034 -0.0903
 3786W        W46698  24.532  12.993  16.952  0.1734  0.1085  0.0439
 3787W        W46699  25.317  14.779  17.144 -0.1127  0.3059 -0.1072
 3788W        W46700  24.494  11.895  16.931  0.2365 -0.0857  0.5121
 3789W        W46701  25.114  12.210  19.615 -0.0654  0.2909 -0.1847
 3790W        W46702  22.474  14.337  15.173  0.0082 -0.2261  0.3590
 3791W        W46703  24.529  11.038  19.415 -0.2166 -0.0693  0.0640
 3792W        W46704  22.432  11.337  20.116 -0.1100  0.2114  0.1978
 3793W        W46705  21.395  10.700  17.961 -0.0857  0.0091 -0.1790
 3794W        W46706  24.049  12.451  17.693  0.0710  0.0311 -0.0381
 3795W        W46707  24.363  13.272  17.256 -0.2491 -0.4786 -0.1478
 3796W        W46708  25.072  14.987  15.430  0.0091  0.0537  0.6920
 3797W        W46709  23.738  13.118  17.122  0.1048  0.1213  0.2334
 3798W        W46710  24.354  13.121  21.202 -0.1298 -0.2183  0.0461
 3799W        W46711  22.208  10.125  17.427  0.5884  0.1892  0.1499
 3800W        W46712  24.814  12.725  15.167  0.0545  0.1069  0.0405
 3801W        W46713  24.089  12.104  17.295 -0.0358 -0.1592  0.0825
 3802W        W46714  24.541  13.072  16.119 -0.2104 -0.1510 -0.0658
 3803W        W46715  25.230  11.618  16.409  0.2132 -0.0057  0.0441
 3804W        W46716  23.423  13.648  16.327 -0.0460  0.1274 -0.0631
 3805W        W46717  22.578   8.896  20.270 -0.0818 -0.0003  0.1590
 3806W        W46718  23.016  13.789  17.197 -0.2163  0.0900  0.0535
 3807W        W46719  24.392  13.065  18.219  0.1736 -0.1625  0.1802
 3808W        W46720  22.528   9.723  17.347  0.4241 -0.1490  0.2250
 3809W        W46721  24.218  10.633  15.869 -0.0665 -0.0612  0.1737
 3810W        W46722  23.041  14.608  17.796 -0.0484 -0.3208 -0.0764
 3811W        W46723  22.005  12.723  17.384  0.2315 -0.3839 -0.4530
 3812W        W46724  22.690  12.468  16.254 -0.2974 -0.1583  0.1313
 3813W        W46725  23.011  12.632  17.130 -0.2648  0.1180 -0.3955
 3814W        W46726  24.068  13.459  16.810  0.1601 -0.2808 -0.1159
 3815W        W46727  25.279  13.148  17.897 -0.0347  0.2192  0.0995
 3816W        W46728  22.912  11.346  16.328 -0.2531 -0.0862 -0.3112
 3817W        W46729  25.310  12.642  15.208  0.2517 -0.0063 -0.0340
 3818W        W46730  25.168  14.019  18.990 -0.2418  0.2412  0.0928
 3819W        W46731  24.045  13.415  20.968  0.4152  0.1091  0.0780
 3820W        W46732  23.736  14.656  18.039  0.0618 -0.0059  0.3573
 3821W        W46733  24.704  11.797  17.895  0.0337  0.0479  0.2876
 3822W        W46734  23.246  10.582  18.339  0.1097 -0.0128  0.0692
 3823W        W46735  22.246  13.842  17.087  0.0810 -0.0307  0.0423
 3824W        W46736  22.651  13.067  16.127  0.0478 -0.0398  0.0141
 3825W        W46737  23.273  10.727  17.457 -0.1687  0.3141  0.1050
 3826W        W46738  23.379  11.413  16.658 -0.3838  0.1202  0.1145
 3827W        W46739  23.504  12.051  17.534 -0.0450  0.0243  0.2452
 3828W        W46740  23.074  13.843  18.156  0.1052  0.0316  0.0911
 3829W        W46741  23.878  11.409  16.866  0.2230  0.0771 -0.1310
 3830W        W46742  24.052  13.206  23.298 -0.0974 -0.0230 -0.2916
 3831W        W46743  23.608  12.695  20.493  0.4000 -0.1543  0.0524
 3832W        W46744  24.510  10.241  19.317  0.1268 -0.0802 -0.1532
 3833W        W46745  25.295  13.355  21.632 -0.1231 -0.3395 -0.3039
 3834W        W46746  22.403  11.233  19.576  0.1568  0.3732  0.0473
 3835W        W46747  23.998  14.218  20.087  0.0161 -0.0020  0.0038
 3836W        W46748  21.489  10.544  21.802 -0.0935 -0.2099  0.0770
 3837W        W46749  24.635  12.470  22.548 -0.1031  0.2571 -0.1934
 3838W        W46750  25.703  13.537  21.930 -0.1175  0.0630  0.1070
 3839W        W46751  25.409  12.572  19.424 -0.0216 -0.0821  0.1102
 3840W        W46752  23.221  11.593  23.243 -0.0064  0.1385  0.0647
 3841W        W46753  23.662  14.369  21.105 -0.1237  0.2646 -0.3107
 3842W        W46754  23.471  11.498  22.718  0.0500  0.0141 -0.1335
 3843W        W46755  21.866  11.836  22.180  0.0833  0.3173  0.3482
 3844W        W46756  22.208  12.472  21.423  0.0935 -0.2295 -0.1125
 3845W        W46757  21.718  11.844  21.032 -0.3023  0.0200  0.0937
 3846W        W46758  22.496  12.408  22.727 -0.2425  0.0632  0.1035
 3847W        W46759  24.081  11.797  21.604 -0.1712  0.0219 -0.0122
 3848W        W46760  23.755  12.637  21.936 -0.0364  0.1375  0.3181
 3849W        W46761  23.000  10.299  23.826  0.2103  0.3333 -0.1465
 3850W        W46762  24.423  11.445  23.616  0.1858 -0.1891  0.4590
 3851W        W46763  23.806  14.053  18.827 -0.2352  0.0121  0.1896
 3852W        W46764  23.281  11.779  19.793 -0.1357 -0.0566  0.1496
 3853W        W46765  22.654  12.271  21.571 -0.3510 -0.1039 -0.1529
 3854W        W46766  23.001  12.985  21.485 -0.1546  0.0107 -0.1343
 3855W        W46767  24.082  12.745  23.099  0.0346  0.3415  0.1267
 3856W        W46768  24.829   9.787  22.519 -0.1412 -0.2435  0.2099
 3857W        W46769  22.885  13.156  20.470 -0.1406  0.0913  0.1451
 3858W        W46770  24.085  12.805  21.585  0.0818  0.0418  0.0800
 3859W        W46771  23.557  12.754  23.974 -0.0103  0.0708  0.0939
 3860W        W46772  22.583  12.795  21.732 -0.0183  0.2299  0.2917
 3861W        W46773  21.990  13.684  20.291  0.1052  0.0363  0.2930
 3862W        W46774  23.913  13.279  18.274  0.1239  0.0048  0.3480
 3863W        W46775  24.493  13.978  21.438 -0.2264  0.0896 -0.0965
 3864W        W46776  26.055  13.786  23.222 -0.0739 -0.5428 -0.0666
 3865W        W46777  22.363  13.886  23.311  0.0126  0.1111 -0.1660
 3866W        W46778  23.177  13.744  20.312 -0.0628 -0.1941 -0.1683
 3867W        W46779  23.124  13.648  22.971 -0.0656  0.0546 -0.1847
 3868W        W46780  21.984  13.851  22.938  0.0433  0.3328 -0.0313
 3869W        W46781  22.755  12.853  22.582  0.2295  0.1123  0.3074
 3870W        W46782  22.351  11.466  21.467  0.0224 -0.1956 -0.1254
 3871W        W46783  23.166  12.416  18.233  0.2866  0.1619 -0.1018
 3872W        W46784  24.044  12.028  21.127 -0.0402  0.1424  0.1523
 3873W        W46785  23.814  14.053  24.854  0.1756 -0.0138 -0.0350
 3874W        W46786  22.198  13.424  23.079 -0.0035 -0.1250 -0.0499
 3875W        W46787  25.695  12.428  21.946 -0.0732 -0.2348 -0.1636
 3876W        W46788  22.533  13.645  18.236 -0.0006  0.1160  0.2907
 3877W        W46789  25.956  11.635  18.925 -0.0602  0.2469 -0.2295
 3878W        W46790  23.981  11.408  20.698  0.3546  0.2263  0.0669
 3879W        W46791  26.370  11.088  18.545 -0.0436  0.2511  0.0778
 3880W        W46792  23.813   9.424  20.382 -0.0779  0.0007  0.2788
 3881W        W46793  23.060  13.593  21.402  0.0285  0.1410 -0.1940
 3882W        W46794  22.266  13.331  22.607 -0.1499  0.1934  0.1870
 3883W        W46795  24.530  13.697  23.368  0.2196 -0.0650 -0.0893
 3884W        W46796  24.371  12.246  21.532 -0.1522 -0.0481 -0.0745
 3885W        W46797  24.646  10.980  22.712 -0.2710  0.0268 -0.0421
 3886W        W46798  24.081  13.915  23.064 -0.0584  0.2335  0.0578
 3887W        W46799  22.055  11.511  22.718  0.1389 -0.4743  0.3104
 3888W        W46800  23.893  13.089  20.390 -0.2640 -0.2013  0.0652
 3889W        W46801  25.517  12.999  21.368 -0.0141 -0.0974  0.0466
 3890W        W46802  23.693  13.650  18.528 -0.0549  0.2859 -0.0456
 3891W        W46803  22.054  11.051  20.023 -0.1140 -0.1274  0.1224
 3892W        W46804  21.257  14.049  22.971 -0.0563  0.4376  0.1828
 3893W        W46805  21.423  12.364  22.563  0.2835 -0.5295  0.1264
 3894W        W46806  22.470  11.258  20.810  0.0455  0.0148  0.3216
 3895W        W46807  25.729  13.547  23.603 -0.1482 -0.2356  0.1076
 3896W        W46808  24.808  12.931  23.680 -0.0905  0.1047 -0.1335
 3897W        W46809  24.312  11.971  22.802  0.1123  0.1503 -0.0682
 3898W        W46810  22.571  12.555  22.170 -0.0297 -0.2005  0.1411
 3899W        W46811  24.686  13.566  22.106  0.1879  0.1973  0.1211
 3900W        W46812  24.633  12.914  19.425  0.0717 -0.0711  0.4420
 3901W        W46813  23.760  10.138  20.905  0.2267 -0.1472 -0.0138
 3902W        W46814  23.562   9.680  20.748  0.0044 -0.0939 -0.2585
 3903W        W46815  24.159  14.293  21.247  0.0535  0.2356 -0.1018
 3904W        W46816  24.395  13.324  19.881  0.1685  0.0632  0.1612
 3905W        W46817  25.291  12.853  20.918  0.4676 -0.0154  0.3422
 3906W        W46818  24.586  12.060  19.798  0.0780  0.2141 -0.1253
 3907W        W46819  21.481  13.746  20.422  0.0122 -0.1585  0.0444
 3908W        W46820  22.837  12.245  22.425 -0.2217 -0.2896  0.0179
 3909W        W46821  24.537  14.211  24.023  0.0856  0.0177  0.2257
 3910W        W46822  23.710  14.143  18.355  0.0640 -0.0195  0.0900
 3911W        W46823  21.105  13.225  22.228  0.0400 -0.3292  0.2500
 3912W        W46824  22.781  12.603  20.367  0.0278 -0.0874 -0.0131
 3913W        W46825  22.321  12.056  22.263 -0.0999  0.0658  0.1379
 3914W        W46826  23.278  12.468  22.186  0.1549 -0.1371  0.0158
 3915W        W46827  24.087  10.747  19.905  0.1432 -0.0651  0.0986
 3916W        W46828  21.529  11.477  22.786  0.0764 -0.0801  0.0779
 3917W        W46829  23.449  10.260  19.795  0.1842 -0.2470  0.2087
 3918W        W46830  22.539  12.849  20.744 -0.1026 -0.0922 -0.1103
 3919W        W46831  25.372  15.121  21.070  0.1790 -0.2376  0.0565
 3920W        W46832  25.672  11.774  19.559 -0.0361 -0.1712  0.0815
 3921W        W46833  24.687  13.134  18.970  0.0160 -0.1018 -0.1452
 3922W        W46834  23.273  11.658  21.868 -0.3089 -0.0894 -0.1400
 3923W        W46835  22.419  11.855  20.195 -0.1627  0.2066 -0.2828
 3924W        W46836  21.838  13.171  23.332 -0.1695 -0.2305  0.0356
 3925W        W46837  21.751  12.098  21.731 -0.2008  0.0623  0.1756
 3926W        W46838  24.408  12.498  24.435 -0.0015 -0.3894 -0.1802
 3927W        W46839  23.233  11.542  20.542  0.1788 -0.3994  0.0455
 3928W        W46840  24.618  10.216  21.006 -0.2210  0.1815 -0.0090
 3929W        W46841  23.107  12.445  20.702 -0.2060 -0.0004 -0.2121
 3930W        W46842  21.926  12.641  19.353  0.3278  0.1745 -0.0056
 3931W        W46843  23.888  11.216  22.884  0.3878  0.7084  0.0504
 3932W        W46844  23.427  13.137  20.661 -0.2636 -0.1681  0.3169
 3933W        W46845  26.149  13.686  22.178 -0.1095 -0.0169 -0.2488
 3934W        W46846  24.403  13.856  20.275 -0.1960 -0.0551 -0.0154
 3935W        W46847  22.209  11.773  23.283 -0.1147 -0.1355  0.2109
 3936W        W46848  24.505  12.189  20.305 -0.0229 -0.0007 -0.3271
 3937W        W46849  23.230  13.556  20.837 -0.0320 -0.0964  0.2666
 3938W        W46850  23.950  13.225  21.895  0.4131 -0.4582  0.0979
 3939W        W46851  23.400  11.406  22.229 -0.1952  0.1931  0.0678
 3940W        W46852  25.474  13.858  21.593 -0.0050 -0.0217  0.0771
 3941W        W46853  23.511  12.268  20.991  0.0351 -0.1919 -0.0634
 3942W        W46854  23.043  12.902  22.168 -0.1149  0.1479  0.0516
 3943W        W46855  24.288  10.076  22.434 -0.3240 -0.0969 -0.2500
 3944W        W46856  26.766  10.636  22.512  0.0623  0.1965 -0.3204
 3945W        W46857  23.324  11.507  21.187  0.2677 -0.2971  0.3838
 3946W        W46858  23.981  10.900  18.985  0.1272  0.1658 -0.0759
 3947W        W46859  22.946  14.402  22.165  0.0338 -0.2597 -0.1721
 3948W        W46860  22.549  14.354  18.843  0.0205  0.2638  0.0431
 3949W        W46861  22.319  12.794  20.256  0.0591 -0.1841 -0.0226
 3950W        W46862  23.854  12.607  18.998 -0.4733 -0.0952  0.1409
 3951W        W46863  24.769  11.101  21.340  0.2549 -0.0748  0.3056
 3952W        W46864  22.162  12.381  24.394 -0.0371 -0.1281  0.1866
 3953W        W46865  22.617  11.152  24.061  0.4726 -0.1411 -0.0676
 3954W        W46866  22.289  13.371  19.343 -0.1687  0.2349  0.0958
 3955W        W46867  22.588  14.092  22.348 -0.2572  0.0203  0.1072
 3956W        W46868  23.784  10.866  22.089  0.1673  0.1013  0.1752
 3957W        W46869  23.872  11.037  20.254 -0.2133  0.0152  0.0964
 3958W        W46870  22.799  13.875  23.561  0.2354 -0.0168  0.3117
 3959W        W46871  24.714  12.576  19.907 -0.0743  0.2827  0.1384
 3960W        W46872  23.073  12.445  21.241 -0.1388  0.0629  0.0981
 3961W        W46873  22.843  10.715  18.585  0.1881  0.0383 -0.0469
 3962W        W46874  22.948  13.855  24.565  0.0496 -0.0105  0.0515
 3963W        W46875  24.788  13.501  19.615  0.2313  0.1243  0.1340
 3964W        W46876  24.145  12.418  22.493 -0.5090  0.0020  0.2857
 3965W        W46877  23.885  10.933  21.563  0.2872 -0.1530 -0.2653
 3966W        W46878  25.965  14.012  20.037 -0.0166  0.3083  0.0566
 3967W        W46879  22.201  12.818  22.429  0.3981 -0.0118  0.5189
 3968W        W46880  23.911  13.937  22.077 -0.1344 -0.2918 -0.0635
 3969W        W46881  23.710  14.081  21.536  0.1995  0.3028 -0.2079
 3970W        W46882  22.900  11.337  22.185  0.1598 -0.0644  0.2356
 3971W        W46883  24.099  12.281  18.681  0.2302  0.0054 -0.2672
 3972W        W46884  22.538  10.580  21.466 -0.0044 -0.1028 -0.1536
 3973W        W46885  21.504  14.064  17.247  0.1761  0.0058  0.1091
 3974W        W46886  24.811   9.598  21.093 -0.1116 -0.1127 -0.1714
 3975W        W46887  24.858  11.571  21.465  0.0682 -0.0167  0.0445
 3976W        W46888  22.218  11.130  22.932  0.0622 -0.1216 -0.2377
 3977W        W46889  24.523  12.309  23.962  0.4025  0.2715  0.0794
 3978W        W46890  25.147  11.531  20.159 -0.0399  0.2239 -0.0430
 3979W        W46891  23.073  11.880  20.932 -0.0702  0.0559  0.0762
 3980W        W46892  24.252  11.737  18.141 -0.1607 -0.3883  0.3416
 3981W        W46893  23.863  12.723  23.574  0.0744 -0.1823  0.0749
 3982W        W46894  23.042  13.353  23.498  0.0556  0.0714 -0.0973
 3983W        W46895  21.992  12.531  22.728  0.2170  0.2616  0.2493
 3984W        W46896  24.146  14.280  21.780 -0.0617 -0.0598 -0.1076
 3985W        W46897  24.869  12.684  21.786 -0.4959  0.0548  0.2796
 3986W        W46898  22.832  11.762  23.585  0.4045  0.0283  0.2287
 3987W        W46899  26.279  10.100  19.096 -0.2123  0.1083  0.1134
 3988W        W46900  23.737  13.906  19.720  0.1307 -0.1178  0.1318
 3989W        W46901  22.405  12.551  19.366  0.0866 -0.0403 -0.0391
 3990W        W46902  22.997  11.191  22.771  0.1332 -0.2948 -0.0691
 3991W        W46903  23.767  12.375  21.470 -0.0690 -0.0746 -0.0813
 3992W        W46904  22.700  12.958  19.358 -0.2064 -0.2768 -0.0230
 3993W        W46905  23.804  13.782  24.172  0.1096 -0.0700 -0.1426
 3994W        W46906  23.387  13.852  22.024 -0.0442 -0.3929 -0.0306
 3995W        W46907  24.370  10.867  21.447  0.1045  0.0823 -0.0196
 3996W        W46908  22.911  13.836  21.877  0.3138 -0.0901  0.0059
 3997W        W46909  24.215  11.443  20.185  0.0111  0.1826 -0.0281
 3998W        W46910  22.761  11.544  20.446  0.1575  0.0934  0.1569
 3999W        W46911  23.152  10.978  21.956  0.1794  0.0878 -0.1347
 4000W        W46912  25.606  13.133  20.473  0.0211  0.0130 -0.0431
 4001W        W46913  22.265  10.666  22.651 -0.0765  0.1519  0.0085
 4002W        W46914  22.714  10.905  22.466 -0.2616  0.0994 -0.5407
 4003W        W46915  21.532  13.078  21.968 -0.0961 -0.2396  0.0865
 4004W        W46916  22.992  11.707  22.771 -0.3643 -0.0399  0.4053
 4005W        W46917  24.983  10.327  19.534  0.3461 -0.2636 -0.0540
 4006W        W46918  24.333  13.943  22.379  0.0370  0.0148 -0.1840
 4007W        W46919  23.594  12.184  24.050 -0.3501 -0.0281 -0.3313
 4008W        W46920  23.049  11.218  20.903  0.1122 -0.0813  0.0646
 4009W        W46921  24.882  12.901  22.729 -0.2788  0.2507 -0.0672
 4010W        W46922  24.475  11.418  20.849 -0.0082  0.5283 -0.0026
 4011W        W46923  22.224  11.943  21.179  0.2738 -0.2276  0.0003
 4012W        W46924  24.212  13.097  22.814  0.2061  0.1442  0.0512
 4013W        W46925  22.356  11.802  20.715 -0.1197 -0.1087  0.4447
 4014W        W46926  23.321  12.287  20.081  0.0944  0.0762  0.0367
 4015W        W46927  22.428  12.511  23.244  0.1905  0.1312 -0.1095
 4016W        W46928  24.941  13.463  23.459  0.0583 -0.0151  0.0436
 4017W        W46929  23.275  12.213  22.829  0.2394 -0.2862 -0.0927
 4018W        W46930  22.418  11.755  19.622 -0.0128  0.0485 -0.0102
 4019W        W46931  24.206  12.591  20.435  0.1065  0.1412 -0.0781
 4020W        W46932  25.293  13.866  22.128 -0.2220  0.0672 -0.0725
 4021W        W46933  23.146  11.118  23.269 -0.1536 -0.0051 -0.0711
 4022W        W46934  24.390  13.901  24.852 -0.0212 -0.1526 -0.0930
 4023W        W46935  23.812  10.311  22.674  0.2160  0.0378 -0.2561
 4024W        W46936  24.909  14.056  20.599  0.0912  0.1661  0.0357
 4025W        W46937  23.412  14.002  23.925  0.1710  0.2556 -0.0523
 4026W        W46938  22.393  13.297  20.302  0.0106  0.0486  0.2581
 4027W        W46939  21.547  11.656  21.875  0.0085  0.2663 -0.0116
 4028W        W46940  23.584  12.800  21.451  0.3897 -0.1061  0.1958
 4029W        W46941  22.666  11.696  21.800  0.0106  0.0098 -0.0119
 4030W        W46942  21.902  13.178  23.799 -0.0430 -0.0903 -0.0165
 4031W        W46943  23.298  14.394  20.189  0.3150 -0.0474  0.0690
 4032W        W46944  22.378  14.343  21.382 -0.2967  0.0014  0.1174
 4033W        W46945  25.095   9.563  19.201 -0.1266  0.1932 -0.1386
 4034W        W46946  24.031  13.401  19.443 -0.4058  0.0931 -0.1710
 4035W        W46947  24.555  13.237  23.203  0.1858  0.0150  0.1176
 4036W        W46948  26.099  11.210  24.798  0.4126  0.2029 -0.2106
 4037W        W46949  23.183  12.826  20.218 -0.2350  0.2026  0.0553
 4038W        W46950  23.774  11.603  23.648 -0.5957 -0.2323  0.0081
 4039W        W46951  21.852  11.336  23.164  0.2147  0.0660  0.0259
 4040W        W46952  25.195  14.320  20.221  0.3710  0.2480  0.1647
 4041W        W46953  23.076  12.536  21.755  0.3123  0.1163 -0.4681
 4042W        W46954  24.966  14.426  23.930 -0.0091 -0.2743  0.1320
 4043W        W46955  22.013  13.262  22.187  0.1859 -0.4063 -0.0827
 4044W        W46956  23.012  10.782  21.436  0.5023  0.0452 -0.4254
 4045W        W46957  23.398  11.268  19.609  0.0933 -0.0527 -0.0188
 4046W        W46958  22.609  12.291  20.982  0.1897 -0.1917 -0.2116
 4047W        W46959  23.518  11.227  21.714 -0.2854  0.1329 -0.4485
 4048W        W46960  23.227  13.371  19.261  0.2159 -0.2047  0.0016
 4049W        W46961  24.260  11.815  20.667 -0.1385 -0.1568 -0.0894
 4050W        W46962  23.492  12.122  21.874 -0.1317  0.0705 -0.0806
 4051W        W46963  24.302  10.978  20.547 -0.0790 -0.2076 -0.0589
 4052W        W46964  24.641  12.370  19.393  0.2489  0.1606  0.1476
 4053W        W46965  23.289  12.907  22.651 -0.0191 -0.0905  0.0904
 4054W        W46966  21.752  10.860  23.289  0.0439 -0.2028  0.2574
 4055W        W46967  24.517  13.643  22.810  0.0571  0.3229  0.0390
 4056W        W46968  22.667  11.019  23.103  0.2129  0.0798  0.2951
 4057W        W46969  23.914  12.243  23.000  0.1836  0.0719  0.0788
 4058W        W46970  23.003  12.549  23.152  0.3268  0.1354  0.0053
 4059W        W46971  22.771  12.116  23.085 -0.0044  0.0745  0.0007
 4060W        W46972  21.835  12.157  23.535  0.0966  0.0392  0.0968
 4061W        W46973  26.749  13.996  23.178  0.1679  0.1611  0.1545
 4062W        W46974  26.231  12.917  18.255  0.2735  0.1663  0.0122
 4063W        W46975  23.936  13.121  23.916  0.0374  0.0343  0.0399
 4064W        W46976  25.116  12.021  21.114  0.2778  0.0068  0.0444
 4065W        W46977  25.235  10.318  20.830 -0.3273  0.1123  0.2216
 4066W        W46978  23.101  10.598  22.243  0.0192 -0.0684 -0.0914
 4067W        W46979  25.732  11.538  23.630  0.0944 -0.1603  0.3392
 4068W        W46980  23.800  11.343  21.255  0.2376 -0.0571  0.2197
 4069W        W46981  23.617  11.833  23.105 -0.0028 -0.0499  0.3108
 4070W        W46982  24.111  13.134  19.036  0.0817  0.0018  0.0620
 4071W        W46983  24.505  12.316  20.871  0.0460  0.0619  0.0907
 4072W        W46984  22.968  11.292  21.591 -0.3885 -0.0363  0.1492
 4073W        W46985  22.422  12.270  20.484  0.1662 -0.0125 -0.2388
 4074W        W46986  22.801  14.094  24.110 -0.0180 -0.0396  0.0287
 4075W        W46987  24.631  12.186  18.855 -0.0093  0.3170  0.1554
 4076W        W46988  23.678  12.054  19.793 -0.0232 -0.3704  0.0582
 4077W        W46989  24.340  12.324  23.196  0.0114  0.0701  0.3218
 4078W        W46990  26.040  12.293  24.125  0.1603  0.1253 -0.0000
 4079W        W46991  26.538   9.654  18.861  0.0521  0.3584 -0.1420
 4080W        W46992  24.062  11.616  23.208 -0.1908  0.1716 -0.1230
 4081W        W46993  23.489  13.351  20.200 -0.0267 -0.3229 -0.0354
 4082W        W46994  23.854  10.629  20.652 -0.4420  0.2333 -0.1868
 4083W        W46995  21.224  13.948  21.179 -0.1189  0.2574 -0.0658
 4084W        W46996  22.635  13.393  21.769  0.1424  0.2268  0.0908
 4085W        W46997  23.565  13.380  19.702 -0.0589  0.2567 -0.4387
 4086W        W46998  23.183   9.124  22.445  0.0738 -0.0015 -0.0643
 4087W        W46999  25.219  12.322  22.087 -0.3527  0.2235 -0.0797
 4088W        W47000  22.190  12.331  21.858  0.2125  0.0320  0.1716
 4089W        W47001  24.656  14.301  24.478  0.1126  0.2824  0.1038
 4090W        W47002  24.712  13.329  24.125 -0.0709 -0.1788  0.0101
 4091W        W47003  23.282  12.112  23.313  0.1030 -0.0767 -0.0399
 4092W        W47004  24.522  14.390  22.453 -0.1085  0.2420 -0.2418
 4093W        W47005  26.879  12.462  22.626  0.1249 -0.1265 -0.0275
 4094W        W47006  22.229  13.623  21.882  0.1887  0.0996  0.1060
 4095W        W47007  22.376  12.122  23.638  0.1279  0.0069  0.4270
 4096W        W47008  23.549  11.711  24.164 -0.1574 -0.0759 -0.1053
 4097W        W47009  24.176  13.469  22.268 -0.0091  0.1543  0.0181
 4098W        W47010  23.595  10.511  20.244 -0.0191  0.1347  0.0073
 4099W        W47011  23.113  12.974  18.994 -0.2312  0.6686  0.2688
 4100W        W47012  21.820  15.331  24.090  0.0247 -0.0566 -0.3818
 4101W        W47013  21.583  12.979  24.102  0.3127  0.1290 -0.0027
 4102W        W47014  23.583  14.471  19.592  0.2023  0.1456  0.1776
 4103W        W47015  25.177  13.051  19.323 -0.0783  0.0981 -0.2318
 4104W        W47016  24.644  11.721  20.151 -0.3229 -0.0463 -0.1486
 4105W        W47017  25.466  13.940  20.783  0.2555  0.2531  0.1240
 4106W        W47018  23.461  10.932  21.294  0.0538 -0.4391  0.2201
 4107W        W47019  22.539  13.829  21.556  0.0100  0.0040  0.1718
 4108W        W47020  22.057  13.404  18.360  0.1784  0.1991  0.0821
 4109W        W47021  23.938  13.494  20.025 -0.0860 -0.3311 -0.2271
 4110W        W47022  23.089  14.191  18.970  0.3115 -0.1269  0.0264
 4111W        W47023  23.427  13.305  24.023 -0.0867  0.2799  0.0494
 4112W        W47024  25.560  10.056  21.080  0.3034  0.0264 -0.1186
 4113W        W47025  23.849  12.488  20.077  0.0425 -0.0934  0.0594
 4114W        W47026  24.658  11.331  20.438  0.3657 -0.1362  0.2275
 4115W        W47027  24.537  14.123  22.936  0.0178 -0.0664 -0.1194
 4116W        W47028  22.207  11.816  21.819  0.5208  0.1009 -0.0348
 4117W        W47029  23.866  11.358  19.755  0.0428 -0.3163 -0.3072
 4118W        W47030  21.703  13.787  23.343  0.2288  0.1474 -0.0359
 4119W        W47031  25.979  10.753  23.678 -0.1256  0.1154 -0.1235
 4120W        W47032  22.237  13.940  24.334  0.0460  0.0539  0.0654
 4121W        W47033  24.867  13.539  18.645  0.1018 -0.1207  0.3588
 4122W        W47034  22.870  11.982  19.474  0.0324 -0.2151  0.1443
 4123W        W47035  21.934  13.227  20.112  0.0383 -0.0710 -0.0144
 4124W        W47036  23.842  10.784  22.641  0.1505 -0.2173  0.2339
 4125W        W47037  23.222  12.262  19.576 -0.6600  0.1791 -0.1013
 4126W        W47038  24.189  11.856  22.282 -0.0386 -0.0118 -0.3356
 4127W        W47039  22.789  13.552  20.094 -0.2055 -0.1066  0.2870
 4128W        W47040  23.697  12.206  22.334  0.2274  0.1784  0.0305
 4129W        W47041  23.334  13.203  21.819  0.0437  0.2328  0.0935
 4130W        W47042  22.624  10.895  20.061  0.1825  0.2384 -0.1511
 4131W        W47043  26.314  11.282  19.002 -0.2083  0.1100  0.2322
 4132W        W47044  22.353  12.621  23.752 -0.0940  0.0186  0.1021
 4133W        W47045  24.841  11.063  23.302 -0.4780  0.0021  0.1388
 4134W        W47046  22.073  12.566  20.919 -0.1403  0.0579  0.2551
 4135W        W47047  23.527  11.459  20.113 -0.1717 -0.1469 -0.4675
 4136W        W47048  24.383  13.271  23.763 -0.0823  0.2339  0.0969
 4137W        W47049  23.534  12.950  22.173 -0.1175  0.0236  0.3017
 4138W        W47050  23.841  11.802  20.389 -0.1436  0.2074  0.0947
 4139W        W47051  25.022  12.608  23.967  0.2038 -0.2026 -0.1998
 4140W        W47052  24.041  13.711  21.390  0.1697 -0.2148 -0.2386
 4141W        W47053  25.018  13.030  21.397  0.0562 -0.0626 -0.0557
 4142W        W47054  21.976  11.392  21.062  0.0081 -0.2200  0.1673
 4143W        W47055  23.901  11.727  19.460  0.0054 -0.4258 -0.1177
 4144W        W47056  22.590  12.757  21.224  0.0460  0.1476  0.0702
 4145W        W47057  23.583  11.897  21.371 -0.0362 -0.0417  0.1548
 4146W        W47058  25.310  14.767  24.090 -0.2108 -0.0477  0.0499
 4147W        W47059  21.876  11.642  21.483  0.1284 -0.0341 -0.1680
 4148W        W47060  25.063  12.469  19.096  0.2379 -0.0973 -0.0535
 4149W        W47061  24.714  11.297  22.023  0.0860  0.0026  0.0418
 4150W        W47062  22.962  12.482  18.760  0.0592  0.0111  0.1581
 4151W        W47063  24.517  13.739  20.986 -0.0931 -0.1685 -0.0536
 4152W        W47064  24.426  12.698  21.989  0.2899  0.1754 -0.0008
 4153W        W47065  22.765  11.768  22.331 -0.0649 -0.0129  0.0667
 4154W        W47066  25.029  14.031  21.049 -0.2005  0.1473 -0.0294
 4155W        W47067  26.079  13.166  21.359 -0.2461 -0.4232 -0.0649
 4156W        W47068  24.216  10.227  20.694  0.1742  0.1114  0.1538
 4157W        W47069  22.673  11.064  21.242 -0.1300 -0.2652 -0.0566
 4158W        W47070  23.411  14.028  20.747 -0.2408 -0.0116  0.0356
 4159W        W47071  24.909  11.524  22.439  0.1260  0.1633 -0.1047
 4160W        W47072  24.962  11.006  22.298 -0.2636 -0.1091  0.1047
 4161W        W47073  24.196  12.461  19.757 -0.0343 -0.2341 -0.0384
 4162W        W47074  25.057  11.793  24.323  0.0856  0.2271  0.0064
 4163W        W47075  23.063  13.616  23.939 -0.2196 -0.1786 -0.0477
 4164W        W47076  23.347  14.876  24.497  0.4203 -0.3448  0.1998
 4165W        W47077  23.415  12.040  20.546  0.0468  0.2961 -0.0539
 4166W        W47078  22.859  12.383  23.620 -0.1221 -0.0608  0.0442
 4167W        W47079  23.342  12.572  19.111  0.2233  0.0487 -0.3143
 4168W        W47080  23.609  12.894  19.941 -0.1227  0.0413  0.1486
 4169W        W47081  23.911  13.225  21.426 -0.0064  0.1709 -0.4111
 4170W        W47082  24.565  12.681  21.409 -0.0213  0.0536  0.0166
 4171W        W47083  25.978  13.999  21.234 -0.0988 -0.0755  0.3674
 4172W        W47084  22.711  10.621  20.999 -0.0442 -0.2908  0.4404
 4173W        W47085  25.256  10.758  20.648 -0.2000  0.2430  0.1784
 4174W        W47086  24.107  11.034  20.998  0.4007  0.1048  0.0392
 4175W        W47087  22.069  12.859  24.166  0.0167 -0.0962 -0.2876
 4176W        W47088  21.602  11.889  19.512  0.0857  0.0806  0.1466
 4177W        W47089  23.206  12.879  19.591  0.1306  0.0129 -0.0540
 4178W        W47090  23.394  13.249  21.218  0.1544 -0.0672  0.1998
 4179W        W47091  24.206  10.464  23.513  0.2711  0.0695  0.3344
 4180W        W47092  23.282  11.887  22.397 -0.0741  0.1298 -0.0972
 4181W        W47093  23.047  11.948  21.446 -0.1037  0.0427  0.0131
 4182W        W47094  23.234  10.680  20.805 -0.0036 -0.0412 -0.0737
 4183W        W47095  24.277  13.439  20.507 -0.1896 -0.2738 -0.0682
 4184W        W47096  22.139  11.196  21.907 -0.1358  0.3512 -0.3620
 4185W        W47097  21.273  11.178  22.048 -0.0168  0.2481  0.2578
 4186W        W47098  24.673  12.280  22.097  0.4956 -0.1838  0.1483
 4187W        W47099  23.971  13.985  20.832 -0.2363  0.0894  0.0371
 4188W        W47100  23.376  10.435  21.241  0.1308 -0.2257  0.1151
 4189W        W47101  24.682  14.493  23.350  0.1610 -0.2133  0.1482
 4190W        W47102  22.629  13.045  19.906  0.0729 -0.1696 -0.0710
 4191W        W47103  23.795  12.131  23.456  0.0922 -0.0325  0.0136
 4192W        W47104  23.055  10.912  23.923  0.0659  0.0348 -0.0781
 4193W        W47105  21.096  12.009  19.495 -0.0648 -0.2089 -0.1640
 4194W        W47106  24.060  12.573  21.099 -0.2951  0.0791 -0.1824
 4195W        W47107  24.450  14.371  19.672  0.0224 -0.0806 -0.0120
 4196W        W47108  25.309  13.481  19.711  0.0565 -0.1084  0.2063
 4197W        W47109  23.750  12.698  22.608 -0.1732 -0.2981 -0.1952
 4198W        W47110  21.890  14.214  22.595 -0.0161 -0.1519 -0.0915
 4199W        W47111  21.228  11.858  22.980 -0.4124  0.0769  0.0619
 4200W        W47112  25.209  12.625  19.951 -0.0333  0.1553  0.2095
 4201W        W47113  21.784  14.160  24.446 -0.1064  0.0010  0.0953
 4202W        W47114  26.440  13.276  20.527  0.1388 -0.3386 -0.1467
 4203W        W47115  23.886  10.032  22.072  0.2092 -0.0043  0.0745
 4204W        W47116  24.611  12.788  20.938  0.2070 -0.2288 -0.0810
 4205W        W47117  21.927   9.761  24.702 -0.0050 -0.0683 -0.1047
 4206W        W47118  22.705  13.340  23.145 -0.1588  0.0524  0.1848
 4207W        W47119  25.172  13.353  23.024 -0.1741  0.0671  0.0828
 4208W        W47120  22.354  10.698  22.092  0.1387  0.1608 -0.0342
 4209W        W47121  23.542  11.135  20.837 -0.2855 -0.0198  0.2664
 4210W        W47122  24.949  13.064  19.806  0.0818 -0.1064  0.0548
 4211W        W47123  23.050  13.362  22.226 -0.2521 -0.2838  0.1365
 4212W        W47124  24.488  11.836  21.820  0.2305  0.0485  0.2565
 4213W        W47125  23.147  13.079  23.113 -0.0109 -0.3564  0.1119
 4214W        W47126  24.895  13.195  21.881 -0.0650  0.0059 -0.1770
 4215W        W47127  24.764  12.618  24.912  0.1273  0.0682  0.3612
 4216W        W47128  23.271  12.807  21.022 -0.0726  0.1809 -0.4105
 4217W        W47129  24.614  14.340  20.992  0.1292 -0.2035 -0.2340
 4218W        W47130  24.075  12.896  22.261 -0.3267 -0.1867  0.0473
 4219W        W47131  26.473  14.751  25.309  0.2600 -0.0279  0.0962
 4220W        W47132  22.554  13.549  22.310 -0.0830  0.4543 -0.1275
 4221W        W47133  25.466  14.375  21.873 -0.1073 -0.1961  0.0914
 4222W        W47134  21.858  10.758  22.062  0.0785  0.0040 -0.1374
 4223W        W47135  22.884  13.173  21.021 -0.3891  0.2666 -0.2578
 4224W        W47136  21.698  13.649  21.963 -0.1304 -0.0930  0.2016
 4225W        W47137  23.243  10.546  23.401 -0.0739  0.0249  0.1501
 4226W        W47138  22.968  12.088  22.002 -0.2240  0.0534  0.0135
 4227W        W47139  24.803  10.921  20.748 -0.1179  0.0289 -0.2370
 4228W        W47140  22.652  13.770  22.813 -0.2920 -0.1278  0.2385
 4229W        W47141  24.655  10.861  21.928 -0.2145 -0.0209 -0.0088
 4230W        W47142  22.064  13.455  25.367 -0.0749  0.0416 -0.4984
 4231W        W47143  23.391  12.021  24.502  0.2180  0.0266  0.0472
 4232W        W47144  25.054  11.491  23.201  0.1191  0.1419 -0.2178
 4233W        W47145  25.122  13.771  26.060 -0.0866  0.0256  0.0369
 4234W        W47146  21.635   9.700  24.291  0.0856 -0.2118 -0.0188
 4235W        W47147  25.041  14.562  24.464  0.3090 -0.0126 -0.0109
 4236W        W47148  22.370   9.685  27.666 -0.3081 -0.3129  0.0828
 4237W        W47149  25.691  12.725  25.456  0.0449  0.0652 -0.0143
 4238W        W47150  26.575  14.998  26.705 -0.0075 -0.1108 -0.1168
 4239W        W47151  23.722  11.816  25.465 -0.1169 -0.1535 -0.2478
 4240W        W47152  23.735  12.842  26.261  0.2273 -0.1540  0.0675
 4241W        W47153  23.475  14.977  25.665  0.1217  0.1305  0.2998
 4242W        W47154  23.841  11.222  24.249  0.0100  0.0041  0.0505
 4243W        W47155  21.958  10.667  25.202 -0.1793  0.0599 -0.2598
 4244W        W47156  23.315  12.850  26.675  0.1370 -0.0207 -0.0529
 4245W        W47157  23.030  12.026  24.805 -0.1016  0.1307 -0.0091
 4246W        W47158  21.905  12.025  28.070  0.0204 -0.1230 -0.1880
 4247W        W47159  23.010  11.221  24.905 -0.2456  0.1999 -0.1580
 4248W        W47160  24.312  15.058  24.374  0.0625  0.0045 -0.2519
 4249W        W47161  23.217  12.473  27.145  0.0691  0.1099 -0.1335
 4250W        W47162  24.342  10.667  26.851  0.0409  0.1886  0.0343
 4251W        W47163  24.557  13.658  24.467 -0.0820  0.1014  0.2144
 4252W        W47164  22.589  11.527  23.133  0.2768  0.0071  0.0733
 4253W        W47165  21.824  11.246  25.019 -0.0482  0.0130  0.1116
 4254W        W47166  22.137  12.719  26.205  0.3494  0.3111 -0.2473
 4255W        W47167  25.173  12.688  25.176 -0.0826  0.3126  0.4395
 4256W        W47168  24.068  11.707  26.475  0.1717 -0.0260 -0.0177
 4257W        W47169  23.851  13.514  25.682 -0.1016  0.0783 -0.1788
 4258W        W47170  24.122  15.076  26.309  0.2586 -0.1822  0.0196
 4259W        W47171  24.053  12.913  26.794  0.2311  0.0180 -0.0864
 4260W        W47172  21.391  13.910  25.057  0.0099 -0.1082 -0.0715
 4261W        W47173  22.020  14.564  24.546  0.0338  0.0448 -0.0382
 4262W        W47174  23.730  14.268  24.322  0.1651 -0.0090  0.1630
 4263W        W47175  25.874  13.729  26.314  0.2113  0.1902  0.1154
 4264W        W47176  23.926  14.154  27.053  0.2147  0.2972  0.0302
 4265W        W47177  22.862  14.414  27.396  0.0416 -0.0792 -0.1026
 4266W        W47178  22.156  14.379  24.078 -0.2308 -0.0695 -0.0129
 4267W        W47179  24.037  15.021  25.741  0.0772  0.2123 -0.0499
 4268W        W47180  22.379  13.524  26.614  0.1582 -0.3965 -0.1171
 4269W        W47181  23.209  12.788  25.370 -0.0587 -0.1121 -0.2487
 4270W        W47182  23.985  12.138  24.318 -0.0753  0.0583  0.1695
 4271W        W47183  23.991  12.666  24.191  0.0146 -0.1808  0.2289
 4272W        W47184  23.808  13.218  24.972  0.1696  0.0609  0.2606
 4273W        W47185  22.881  13.694  26.308  0.1252 -0.0423  0.0860
 4274W        W47186  22.394  13.627  26.146  0.0235  0.0788 -0.0522
 4275W        W47187  24.765  13.039  26.661 -0.2861  0.0003 -0.1317
 4276W        W47188  22.550  13.414  23.615  0.0616 -0.1022  0.1573
 4277W        W47189  24.878  12.866  24.373  0.4484 -0.0627  0.1419
 4278W        W47190  23.449  10.922  22.955 -0.0854 -0.1795 -0.0395
 4279W        W47191  24.192  11.646  24.054  0.0549 -0.5381 -0.0943
 4280W        W47192  23.459  11.105  25.026 -0.2065 -0.1499 -0.1356
 4281W        W47193  22.831  14.713  24.612 -0.2411  0.0248  0.2358
 4282W        W47194  23.730  12.477  25.853 -0.1024  0.0402 -0.0764
 4283W        W47195  26.047  12.292  26.304 -0.0206 -0.0504  0.1814
 4284W        W47196  22.963  13.301  24.309  0.0437  0.2082  0.2363
 4285W        W47197  24.481  10.808  26.421  0.0016 -0.2940  0.1710
 4286W        W47198  22.378  13.857  25.282 -0.0631 -0.2451 -0.1128
 4287W        W47199  21.606   9.908  25.993 -0.1854 -0.1174 -0.1063
 4288W        W47200  24.449  13.760  23.981  0.0635  0.1737  0.0267
 4289W        W47201  25.117  15.183  26.389  0.0706  0.1157 -0.1939
 4290W        W47202  25.087  14.283  23.413  0.1004  0.0551 -0.1411
 4291W        W47203  22.317  11.590  24.890 -0.0657 -0.0796 -0.0804
 4292W        W47204  22.319  13.988  26.842 -0.3364  0.0363 -0.1036
 4293W        W47205  22.081  12.486  26.721 -0.1101  0.0542 -0.2345
 4294W        W47206  21.911  10.864  23.781  0.0113  0.1508  0.0944
 4295W        W47207  24.637  14.332  28.007 -0.1293  0.2417  0.0945
 4296W        W47208  20.993  13.635  26.418  0.0111 -0.0778  0.0144
 4297W        W47209  25.519  10.679  25.612 -0.0747  0.0152 -0.0597
 4298W        W47210  22.100  12.831  24.665  0.0063  0.3962  0.0608
 4299W        W47211  26.246  14.064  26.606 -0.1756 -0.0946 -0.1054
 4300W        W47212  25.086  12.117  23.906 -0.0255 -0.1305 -0.0294
 4301W        W47213  23.898  11.497  25.802  0.3548  0.1579 -0.2702
 4302W        W47214  23.522  12.129  26.874  0.1511 -0.1124  0.2177
 4303W        W47215  21.964  11.855  25.089  0.7523 -0.3610 -0.3147
 4304W        W47216  23.103  12.288  24.166  0.2468 -0.1544  0.1803
 4305W        W47217  27.357  13.439  26.249 -0.2335  0.2580 -0.1879
 4306W        W47218  24.428  12.916  24.101 -0.1682 -0.1551 -0.0173
 4307W        W47219  23.390  12.434  26.297 -0.0756 -0.0034  0.0383
 4308W        W47220  22.785  11.134  26.740  0.1674 -0.2432  0.1744
 4309W        W47221  23.775  13.661  26.681 -0.1995 -0.0194  0.0526
 4310W        W47222  21.992  15.600  23.493 -0.0013  0.0789  0.2918
 4311W        W47223  21.452  11.829  25.181  0.1578 -0.4071 -0.0856
 4312W        W47224  21.538  12.619  24.509  0.0083 -0.4354 -0.0950
 4313W        W47225  21.672  10.893  25.554  0.2768 -0.0021  0.2179
 4314W        W47226  23.733  14.612  26.950  0.0927  0.2596 -0.2020
 4315W        W47227  24.349  11.133  23.166  0.0699  0.0456  0.0831
 4316W        W47228  22.434  10.554  24.926 -0.2314  0.1073 -0.0512
 4317W        W47229  25.358  11.216  23.759  0.1687 -0.0847  0.0997
 4318W        W47230  22.285  14.347  24.891 -0.2107 -0.0198 -0.0236
 4319W        W47231  25.733  14.673  25.517 -0.2202  0.0479  0.1680
 4320W        W47232  25.166  11.948  22.882 -0.0717  0.0760  0.2713
 4321W        W47233  24.207  12.909  24.565 -0.1281  0.1573 -0.0409
 4322W        W47234  21.509  13.307  26.305  0.0925 -0.0209 -0.1539
 4323W        W47235  22.764  11.264  23.570 -0.0803 -0.2191 -0.0027
 4324W        W47236  22.268  12.337  27.250 -0.0712 -0.1259 -0.0438
 4325W        W47237  22.300  10.279  25.418  0.2001  0.1086  0.0617
 4326W        W47238  24.233  12.656  28.407  0.3402 -0.0442  0.0853
 4327W        W47239  22.880  10.521  23.068 -0.0451 -0.1813 -0.0011
 4328W        W47240  24.696  11.326  25.546  0.0198 -0.0608 -0.0484
 4329W        W47241  23.629  11.253  25.445 -0.2021 -0.1247  0.1843
 4330W        W47242  23.423  13.884  24.576  0.0684 -0.1995  0.1860
 4331W        W47243  24.641  13.698  27.422  0.0791  0.1171  0.2528
 4332W        W47244  25.109  15.459  24.347  0.0010 -0.2304 -0.2739
 4333W        W47245  24.870  14.791  28.124 -0.2201  0.4805 -0.0718
 4334W        W47246  24.330  13.646  25.433  0.3331 -0.0300 -0.0183
 4335W        W47247  23.500  10.436  27.615 -0.3586 -0.2042  0.2296
 4336W        W47248  23.297  11.355  23.738  0.0973  0.3744  0.1856
 4337W        W47249  21.992  14.266  25.384  0.0342  0.0089  0.0021
 4338W        W47250  24.658  13.978  25.231  0.1732  0.2117  0.0304
 4339W        W47251  23.158  10.453  24.341  0.1796  0.0265  0.0778
 4340W        W47252  25.023  14.686  25.440 -0.1662  0.2755 -0.3339
 4341W        W47253  23.380  12.416  24.986  0.0216  0.0413 -0.2115
 4342W        W47254  22.830  12.737  26.881 -0.1225  0.0024  0.4566
 4343W        W47255  23.950  12.019  25.950  0.0521 -0.1067 -0.2128
 4344W        W47256  25.216  12.420  26.548 -0.1783 -0.0039 -0.2396
 4345W        W47257  24.143  13.196  25.388  0.5229 -0.1601 -0.0958
 4346W        W47258  22.264  10.686  23.235 -0.0769 -0.0699 -0.0494
 4347W        W47259  24.271  16.389  25.339  0.0132 -0.0458 -0.1466
 4348W        W47260  21.517  13.839  22.623  0.2614  0.2810 -0.2820
 4349W        W47261  22.571  12.854  24.489  0.1688 -0.0826 -0.2297
 4350W        W47262  25.157  13.928  25.179  0.0740 -0.1075  0.2068
 4351W        W47263  24.182  12.487  26.098  0.1059 -0.3325 -0.0222
 4352W        W47264  24.011  12.355  27.001 -0.0661 -0.1975 -0.2647
 4353W        W47265  24.740  10.298  26.223 -0.0305  0.2399  0.0305
 4354W        W47266  22.469  12.083  25.086  0.2836 -0.0601 -0.0682
 4355W        W47267  23.216  13.066  27.153  0.0264 -0.0829 -0.1444
 4356W        W47268  24.831  13.644  25.541 -0.1418  0.3167 -0.3923
 4357W        W47269  25.515  11.788  23.257 -0.4496  0.0333 -0.0686
 4358W        W47270  23.961  12.864  27.545  0.1571  0.1736  0.0951
 4359W        W47271  26.321  13.828  25.997 -0.2775  0.2279 -0.0848
 4360W        W47272  24.452  12.039  24.387 -0.3759  0.3425  0.1021
 4361W        W47273  23.963  11.635  24.558  0.0756  0.0290  0.1032
 4362W        W47274  21.362  12.519  26.932  0.0443 -0.0805  0.0621
 4363W        W47275  24.916  13.306  26.032  0.1692  0.3003  0.2394
 4364W        W47276  23.747  13.356  26.215 -0.1259  0.0944 -0.1609
 4365W        W47277  25.127  11.257  24.221 -0.2035  0.1847  0.2475
 4366W        W47278  26.797  14.067  25.315 -0.0167  0.1319 -0.1853
 4367W        W47279  22.518  14.307  24.482  0.3830  0.2373  0.3012
 4368W        W47280  24.247  14.042  26.660 -0.0087 -0.1277  0.2126
 4369W        W47281  23.689  13.958  25.574 -0.1270 -0.1321  0.0097
 4370W        W47282  24.178  11.192  26.834  0.2494 -0.1189 -0.3304
 4371W        W47283  23.513  13.235  25.395 -0.3096 -0.0185  0.0548
 4372W        W47284  24.041  10.206  26.034  0.1410 -0.2734 -0.0298
 4373W        W47285  23.414  13.592  25.004  0.1285 -0.2658  0.0879
 4374W        W47286  25.302  11.888  26.478  0.0938  0.0174 -0.0581
 4375W        W47287  22.903  12.327  26.159 -0.0398 -0.0291 -0.1067
 4376W        W47288  23.485   9.938  26.932  0.4022  0.0570 -0.0415
 4377W        W47289  25.769  13.289  26.573  0.1371  0.0545 -0.2601
 4378W        W47290  26.233  13.300  26.790 -0.1314  0.0866 -0.1421
 4379W        W47291  23.942  13.847  26.197  0.2997  0.0195 -0.0119
 4380W        W47292  23.012  11.758  24.296 -0.4246  0.0274  0.0212
 4381W        W47293  23.723  11.172  26.577 -0.1151  0.1429  0.0132
 4382W        W47294  23.158  11.936  26.440 -0.4531  0.4535  0.0042
 4383W        W47295  24.328  14.429  24.879  0.1086  0.0994  0.1343
 4384W        W47296  24.414  14.427  27.079 -0.3840  0.0945  0.0730
 4385W        W47297  24.239  12.618  25.614  0.3010 -0.0366  0.0343
 4386W        W47298  23.025  10.926  27.597 -0.1065  0.4061 -0.1949
 4387W        W47299  25.225  11.203  24.736  0.3798  0.0418  0.0456
 4388W        W47300  22.093  15.377  24.921  0.0785  0.3178 -0.0170
 4389W        W47301  21.557  13.470  23.707 -0.0232  0.2667 -0.1296
 4390W        W47302  22.619  11.106  25.278  0.2371 -0.0461  0.1236
 4391W        W47303  23.333  11.583  25.685 -0.2204  0.2198 -0.0489
 4392W        W47304  24.358  12.706  23.644  0.2054  0.0764 -0.2910
 4393W        W47305  24.529  12.261  25.736 -0.0464 -0.0967  0.1274
 4394W        W47306  23.008  13.364  24.824  0.0296 -0.1143  0.0222
 4395W        W47307  24.135  11.101  25.637  0.3010  0.0953  0.0313
 4396W        W47308  21.936  13.653  25.861 -0.1310 -0.0769  0.2153
 4397W        W47309  22.302  11.668  24.269 -0.1127 -0.3375  0.0260
 4398W        W47310  22.556  12.067  24.568  0.1805  0.0419 -0.0713
 4399W        W47311  26.010  11.559  25.774 -0.1076  0.1069  0.4274
 4400W        W47312  25.496  13.020  25.033 -0.2179 -0.1425  0.1132
 4401W        W47313  22.409  11.051  27.083 -0.0567  0.0227  0.0442
 4402W        W47314  23.568  11.194  26.040  0.1214  0.0691  0.2098
 4403W        W47315  22.058  13.096  25.830  0.1350 -0.4825  0.0930
 4404W        W47316  23.409  12.060  25.939 -0.0270  0.3236 -0.0966
 4405W        W47317  25.645  12.409  24.934  0.1562 -0.5119  0.1351
 4406W        W47318  25.843  14.196  27.315  0.0040  0.1565 -0.3133
 4407W        W47319  23.758  13.759  27.556  0.1158 -0.2451 -0.2777
 4408W        W47320  21.270  13.171  24.623  0.0577  0.2435  0.4052
 4409W        W47321  24.982  13.305  27.004 -0.1360 -0.0457 -0.0466
 4410W        W47322  22.867  13.190  26.648  0.1711 -0.2499 -0.1844
 4411W        W47323  22.875  14.253  24.872 -0.0353 -0.1836 -0.4984
 4412W        W47324  23.318  14.536  26.656  0.0347  0.2866  0.1316
 4413W        W47325  22.040  11.298  23.925 -0.5350 -0.0367  0.2139
 4414W        W47326  22.807  14.159  25.466  0.0044  0.2028  0.1840
 4415W        W47327  22.184   9.860  28.188  0.0037 -0.2339  0.1354
 4416W        W47328  23.392  13.743  26.310 -0.2322 -0.1444 -0.1932
 4417W        W47329  22.529  12.619  26.479 -0.0582  0.0479  0.0749
 4418W        W47330  23.130  11.243  24.295 -0.4864  0.1845  0.2726
 4419W        W47331  24.295  13.392  24.893  0.2115  0.0965  0.3444
 4420W        W47332  24.695  13.819  26.330  0.0255 -0.1661  0.2081
 4421W        W47333  23.920  11.838  27.107 -0.3483 -0.0723 -0.0870
 4422W        W47334  21.431  12.720  27.370  0.1930  0.1102  0.0071
 4423W        W47335  23.038  11.184  25.926 -0.0043  0.2448  0.0973
 4424W        W47336  26.347  15.990  25.394 -0.0685  0.0194  0.1732
 4425W        W47337  24.721  11.646  27.931  0.0487 -0.0934 -0.1504
 4426W        W47338  21.572  13.768  24.635  0.2559 -0.1252 -0.1472
 4427W        W47339  23.405  11.450  24.619  0.0313 -0.1616  0.3595
 4428W        W47340  23.229  13.944  25.802 -0.0795 -0.1584 -0.1381
 4429W        W47341  23.422  12.293  25.484 -0.5183  0.1062 -0.3282
 4430W        W47342  22.900  13.169  25.276 -0.1906  0.1431 -0.3698
 4431W        W47343  22.528  13.855  24.809  0.1295  0.2119 -0.3838
 4432W        W47344  22.801  13.735  26.799 -0.0400  0.0756  0.1271
 4433W        W47345  24.455  10.594  23.968  0.0019 -0.1380  0.1395
 4434W        W47346  23.917  13.522  24.605  0.3208 -0.2593 -0.0958
 4435W        W47347  23.038  12.943  23.882 -0.0362 -0.2389  0.0391
 4436W        W47348  25.946  10.907  27.823 -0.3971 -0.0038  0.2758
 4437W        W47349  24.598  11.556  22.904 -0.0734  0.1511  0.1197
 4438W        W47350  24.655  11.373  27.136  0.0526  0.3184 -0.0879
 4439W        W47351  22.524  10.905  27.538  0.0779 -0.1444 -0.0859
 4440W        W47352  24.944  14.244  26.174  0.0215  0.0096  0.0819
 4441W        W47353  23.022  12.362  26.678  0.0501  0.0872  0.1031
 4442W        W47354  23.618  13.881  28.385  0.0910  0.0457  0.0894
 4443W        W47355  22.596  12.091  26.743  0.0869  0.0111  0.2184
 4444W        W47356  23.065  10.740  24.960 -0.0903 -0.0447  0.1447
 4445W        W47357  22.383  10.838  23.695 -0.3694  0.0667  0.0314
 4446W        W47358  24.312  12.973  26.260 -0.1235  0.4199  0.1732
 4447W        W47359  25.276  13.517  24.903 -0.2108  0.0052  0.2323
 4448W        W47360  23.482  12.516  24.475  0.0955  0.0395 -0.1024
 4449W        W47361  26.401  12.372  25.929  0.4472  0.4118  0.1535
 4450W        W47362  22.511  13.256  25.587 -0.1115 -0.1092  0.0755
 4451W        W47363  25.515  13.709  24.229  0.0223 -0.1744 -0.0838
 4452W        W47364  23.543  12.547  23.140  0.0973 -0.0100 -0.0827
 4453W        W47365  23.156  12.893  24.568  0.0692 -0.0840 -0.1537
 4454W        W47366  22.361  11.307  27.948 -0.1790 -0.1396 -0.3575
 4455W        W47367  24.620  14.074  25.803 -0.1920  0.0854  0.4513
 4456W        W47368  24.297  11.782  25.402 -0.4178  0.1360 -0.0321
 4457W        W47369  22.799  11.332  27.706 -0.1134 -0.3077  0.1148
 4458W        W47370  24.064  13.661  27.070 -0.0202  0.1229  0.3612
 4459W        W47371  23.671  12.717  27.019 -0.0085 -0.0812 -0.3110
 4460W        W47372  21.947  11.468  28.176 -0.2777  0.0806  0.3700
 4461W        W47373  26.834  12.707  25.808  0.1553 -0.1887  0.2107
 4462W        W47374  24.795  11.855  23.484 -0.0632 -0.1636  0.1347
 4463W        W47375  24.814  12.170  26.659 -0.0588  0.2508  0.1919
 4464W        W47376  25.557  12.279  26.190  0.0056 -0.1498  0.0644
 4465W        W47377  23.696  11.170  23.377  0.0721 -0.1061 -0.2853
 4466W        W47378  22.289  11.050  24.858 -0.2102 -0.0167 -0.0547
 4467W        W47379  24.445  11.425  27.623  0.0643 -0.0401 -0.1205
 4468W        W47380  22.272  11.207  23.431  0.0868  0.3048 -0.1392
 4469W        W47381  24.862  12.139  27.145  0.4214  0.0549  0.1267
 4470W        W47382  23.837  14.923  24.441  0.1586  0.2809  0.1308
 4471W        W47383  22.997  12.448  25.674 -0.0766 -0.2780 -0.0284
 4472W        W47384  24.779  11.712  25.204 -0.0430 -0.0429 -0.0100
 4473W        W47385  20.970  11.889  24.947  0.2965 -0.1441 -0.1323
 4474W        W47386  22.939  12.804  26.311 -0.3952 -0.0397 -0.1239
 4475W        W47387  21.499  11.175  24.581  0.1640  0.0025  0.0340
 4476W        W47388  23.697  13.009  23.050 -0.0491 -0.2775 -0.0382
 4477W        W47389  23.695  14.165  26.638  0.2482  0.1949 -0.0146
 4478W        W47390  25.319  14.238  27.434 -0.3027  0.1729 -0.0079
 4479W        W47391  24.889  11.361  23.776  0.0176 -0.1328  0.0845
 4480W        W47392  24.560  12.485  26.970 -0.1100 -0.1736  0.0278
 4481W        W47393  23.893  13.654  25.202 -0.2007 -0.1341 -0.1791
 4482W        W47394  25.416  11.893  25.416 -0.4508 -0.0649 -0.3009
 4483W        W47395  23.132  14.220  26.332  0.2630 -0.1067 -0.1574
 4484W        W47396  20.345  14.809  24.552  0.2377 -0.5630 -0.2442
 4485W        W47397  24.159  15.018  24.870 -0.1960  0.0906  0.0264
 4486W        W47398  23.262  13.257  26.359 -0.0163  0.1231 -0.0070
 4487W        W47399  24.766  12.695  25.441  0.0980 -0.0905  0.1376
 4488W        W47400  22.582  12.119  25.728 -0.1209 -0.1113 -0.2644
 4489W        W47401  24.501  13.864  27.914  0.1087 -0.1723  0.0585
 4490W        W47402  24.592  13.214  25.619 -0.0474  0.2908  0.1579
 4491W        W47403  21.876  10.822  24.710 -0.0500 -0.0759  0.1081
 4492W        W47404  25.083  13.822  26.776  0.0622  0.1869  0.0262
 4493W        W47405  26.972  12.585  26.728  0.0796 -0.2325  0.2703
 4494W        W47406  23.705  15.206  26.090 -0.0863 -0.3548  0.0483
 4495W        W47407  21.661  13.176  25.504 -0.0227 -0.0687 -0.1691
 4496W        W47408  23.678  13.219  26.867 -0.2817 -0.1545 -0.0671
 4497W        W47409  23.941  13.029  25.842  0.1142  0.0174 -0.0327
 4498W        W47410  22.371   9.479  25.605  0.0603  0.1475  0.0151
 4499W        W47411  23.475  13.572  23.486 -0.0147 -0.1549 -0.1261
 4500W        W47412  21.867  13.569  26.728  0.0499 -0.3883  0.2540
 4501W        W47413  21.848  12.403  24.838 -0.0805 -0.2291 -0.0555
 4502W        W47414  23.863  14.573  24.811 -0.2648  0.0481  0.0848
 4503W        W47415  23.775  12.837  25.410  0.2004  0.1740  0.0423
 4504W        W47416  23.350  12.544  23.592  0.2146 -0.1721 -0.2306
 4505W        W47417  23.337  12.792  25.927 -0.0102  0.2050  0.0665
 4506W        W47418  24.029  12.319  23.809  0.0089 -0.2342 -0.0495
 4507W        W47419  23.441  15.392  25.283 -0.1590  0.1343  0.0099
 4508W        W47420  21.972  14.218  23.612 -0.1697 -0.1911 -0.2094
 4509W        W47421  25.318  14.040  25.615 -0.0247 -0.1477 -0.0089
 4510W        W47422  23.145  13.446  25.901  0.0952 -0.1109 -0.0318
 4511W        W47423  24.956  13.434  27.939  0.1606  0.1404 -0.1903
 4512W        W47424  24.346  11.355  22.497  0.1660  0.1036 -0.0935
 4513W        W47425  26.549  11.439  25.250  0.1762  0.1902  0.0393
 4514W        W47426  24.837  12.344  22.961  0.1968 -0.0671  0.2024
 4515W        W47427  23.365  14.198  27.151  0.1136 -0.1779  0.2980
 4516W        W47428  23.073  11.949  25.424  0.2598  0.0580  0.0425
 4517W        W47429  23.269  11.879  23.776 -0.2595 -0.0017  0.1466
 4518W        W47430  21.494  12.434  26.369  0.1467  0.1123 -0.1399
 4519W        W47431  26.354  11.897  26.062  0.2177  0.0034 -0.0266
 4520W        W47432  23.412  12.955  24.950  0.3012 -0.0898 -0.1231
 4521W        W47433  25.549  14.614  24.741 -0.3253 -0.0039  0.0486
 4522W        W47434  22.416  11.744  25.453 -0.1244  0.0064  0.1232
 4523W        W47435  22.829  12.449  24.616 -0.2725  0.1328  0.2878
 4524W        W47436  24.249  12.035  26.748  0.3185 -0.1904 -0.3034
 4525W        W47437  23.401  13.373  24.570 -0.2022  0.0090  0.1316
 4526W        W47438  25.100  12.306  25.562  0.0076  0.1413 -0.1740
 4527W        W47439  23.569  14.173  26.092 -0.2291  0.1463 -0.2180
 4528W        W47440  24.180  14.124  25.293 -0.0388  0.4401  0.0543
 4529W        W47441  22.964  11.717  26.005  0.0097  0.2668  0.0213
 4530W        W47442  21.938  12.614  23.393 -0.0442  0.2133 -0.0172
 4531W        W47443  25.872  11.948  25.279  0.0084  0.0745 -0.2238
 4532W        W47444  22.901  12.799  24.971  0.2397 -0.1004 -0.0870
 4533W        W47445  24.395  12.001  26.251  0.1134  0.1456  0.0388
 4534W        W47446  22.632  11.350  24.547 -0.1505  0.3820  0.0057
 4535W        W47447  24.632  12.182  25.252 -0.2385  0.0389 -0.0334
 4536W        W47448  22.851  14.604  26.309  0.0232 -0.0409  0.1549
 4537W        W47449  22.094  11.987  26.581 -0.1445 -0.4042 -0.0755
 4538W        W47450  24.284  12.186  24.868 -0.1491  0.0817 -0.2043
 4539W        W47451  25.605  13.728  27.396 -0.0420 -0.2395 -0.0684
 4540W        W47452  23.818  11.623  21.973 -0.3846 -0.1122  0.0020
 4541W        W47453  23.991  15.891  26.933 -0.0449  0.0082 -0.0536
 4542W        W47454  22.611  10.542  24.062 -0.0525  0.2295 -0.0298
 4543W        W47455  24.252  11.239  24.719  0.4517 -0.0605  0.1463
 4544W        W47456  21.561  11.241  23.675  0.0795  0.0295  0.0260
 4545W        W47457  23.076  11.916  27.006  0.2350  0.3440 -0.2336
 4546W        W47458  25.358  14.102  28.180 -0.0898  0.0030 -0.1228
 4547W        W47459  22.376  10.041  24.719 -0.1644 -0.0775  0.1708
 4548W        W47460  26.125  14.556  24.629  0.0454  0.0100 -0.0357
 4549W        W47461  25.934  12.068  25.867  0.0942  0.0746  0.0485
 4550W        W47462  23.222  14.288  24.336  0.0529 -0.0639 -0.0567
 4551W        W47463  25.333  12.945  24.208 -0.2265 -0.1043  0.2690
 4552W        W47464  25.321  14.539  25.808 -0.0269  0.0070  0.2312
 4553W        W47465  23.423  10.765  25.329 -0.0137 -0.1174  0.1239
 4554W        W47466  25.469  14.625  26.284 -0.4218 -0.1647 -0.2057
 4555W        W47467  25.948  13.250  26.097 -0.0550 -0.1469 -0.3415
 4556W        W47468  23.710   9.720  25.607 -0.1120  0.1438 -0.3783
 4557W        W47469  22.647  10.855  26.009  0.0326  0.0939  0.1068
 4558W        W47470  24.166  14.020  24.335  0.1908 -0.0242 -0.2575
 4559W        W47471  24.466  11.651  25.873  0.1268  0.1278  0.0523
 4560W        W47472  24.949  11.639  27.498 -0.0662 -0.2730  0.2589
 4561W        W47473  23.371  14.435  24.806  0.1078  0.1102 -0.1233
 4562W        W47474  26.611  10.696  27.325 -0.1511 -0.0820 -0.2161
 4563W        W47475  22.832  14.656  25.780  0.2693  0.1775 -0.0093
 4564W        W47476  23.156  13.567  27.307  0.2542  0.1739  0.0061
 4565W        W47477  22.496  13.072  23.987  0.1651  0.4480 -0.0211
 4566W        W47478  23.684  12.069  26.398 -0.1935  0.2737  0.1905
 4567W        W47479  24.248  12.657  25.054 -0.0212 -0.2834  0.1535
 4568W        W47480  24.606  14.820  24.719 -0.0750  0.0632  0.4749
 4569W        W47481  25.056  14.808  24.884  0.2066 -0.3031 -0.0871
 4570W        W47482  24.573  13.064  25.110  0.0329 -0.1765  0.0595
 4571W        W47483  26.308  14.666  26.400  0.0599 -0.1101  0.1972
 4572W        W47484  23.214  10.351  25.279  0.1930 -0.0426  0.0732
 4573W        W47485  25.923  10.558  24.293  0.2593 -0.2148 -0.0019
 4574W        W47486  24.610  10.600  23.165 -0.2351  0.0135  0.0292
 4575W        W47487  22.599  11.547  27.084  0.1001 -0.2295 -0.1803
 4576W        W47488  20.703  12.849  24.870 -0.0986  0.0308 -0.0732
 4577W        W47489  21.782  13.250  24.510 -0.6616 -0.2354 -0.2735
 4578W        W47490  21.655  12.291  25.264 -0.1274  0.2259 -0.2054
 4579W        W47491  22.976  11.280  27.276 -0.1036  0.1795  0.0693
 4580W        W47492  22.157  11.838  27.099 -0.0611 -0.1137  0.1391
 4581W        W47493  22.856  12.373  25.217  0.3840  0.2381 -0.0314
 4582W        W47494  22.217  10.479  24.440  0.2823  0.0173 -0.0475
 4583W        W47495  24.606  14.438  25.428 -0.1702  0.1565  0.2105
 4584W        W47496  22.771  11.634  25.141 -0.0651  0.0152 -0.0469
 4585W        W47497  21.963  10.297  24.830 -0.2717 -0.3006  0.2275
 4586W        W47498  23.750  14.110  23.376  0.2315  0.4329  0.1665
 4587W        W47499  25.466  14.131  26.164 -0.3630 -0.1355  0.2625
 4588W        W47500  22.664  10.067  25.604  0.0612  0.1184 -0.2139
 4589W        W47501  24.999  13.430  26.491  0.0182 -0.1916  0.0146
 4590W        W47502  22.646  12.472  24.091  0.2056  0.1540  0.0990
 4591W        W47503  22.884  11.595  26.636 -0.0018  0.0565 -0.0720
 4592W        W47504  22.579  11.155  28.561 -0.2331  0.2110  0.3096
 4593W        W47505  21.610  10.807  24.259 -0.3367  0.0203  0.0788
 4594W        W47506  24.973  11.755  25.705 -0.0084  0.2834  0.0638
 4595W        W47507  24.126  14.072  25.772 -0.0602  0.4273 -0.3758
 4596W        W47508  25.218  14.709  23.033  0.1552  0.1705 -0.0259
 4597W        W47509  24.567  12.614  26.428  0.1217  0.2607  0.0170
 4598W        W47510  22.837  14.424  26.882  0.0545 -0.1028 -0.0479
 4599W        W47511  22.005  11.344  25.604  0.0743  0.1854  0.0994
 4600W        W47512  25.592  12.283  25.636  0.1236 -0.0434 -0.1277
 4601W        W47513  23.242  13.449  26.832  0.2707  0.0323  0.1024
 4602W        W47514  24.787  13.502  25.017 -0.3684  0.1196 -0.0157
 4603W        W47515  26.975  12.155  26.438  0.3287  0.2217 -0.1694
 4604W        W47516  25.033  13.046  24.866  0.0348 -0.0972  0.0037
 4605W        W47517  23.547  10.723  26.681 -0.1320  0.0470  0.3879
 4606W        W47518  23.140  12.309  27.635  0.1875 -0.0439 -0.0526
 4607W        W47519  25.456  13.665  26.510 -0.1546 -0.0879 -0.0257
 4608W        W47520  22.838   9.426  25.817 -0.0756 -0.0082  0.0881
 4609W        W47521  25.305  12.680  24.653 -0.2652 -0.0536  0.2326
 4610W        W47522  25.140  13.180  25.444  0.0600 -0.1789  0.0040
 4611W        W47523  21.017  11.329  25.036 -0.0190 -0.0340  0.0016
 4612W        W47524  24.526  11.556  24.430 -0.4106  0.0332  0.0447
 4613W        W47525  23.891  12.527  26.557  0.0993  0.1339  0.0695
 4614W        W47526  23.506  15.861  25.915 -0.0469 -0.2944  0.1340
 4615W        W47527  25.626  13.168  25.671 -0.3099 -0.1350 -0.0944
 4616W        W47528  23.848  11.527  25.024  0.3439 -0.2638 -0.0632
 4617W        W47529  26.308  13.298  24.984  0.0881 -0.1728 -0.1686
 4618W        W47530  24.578  14.654  26.207  0.1103 -0.0548 -0.1715
 4619W        W47531  24.926  14.405  28.442 -0.2776  0.0510 -0.0520
 4620W        W47532  24.358  14.174  26.183 -0.1263 -0.2062 -0.1924
 4621W        W47533  25.885  12.565  25.917  0.0571 -0.1989 -0.2714
 4622W        W47534  22.202  12.336  25.515 -0.0173  0.0484  0.0573
 4623W        W47535  24.321  11.250  25.203 -0.1332 -0.0382 -0.0899
 4624W        W47536  22.494  13.357  24.598  0.2757  0.3775  0.1615
 4625W        W47537  25.491  13.569  25.365 -0.0409  0.2772 -0.1091
 4626W        W47538  23.784  12.696  24.819 -0.2461 -0.3506  0.4427
 4627W        W47539  24.425  10.805  24.938 -0.1063 -0.0315  0.0327
 4628W        W47540  23.744  14.827  26.487 -0.4776 -0.0262 -0.0758
 4629W        W47541  24.703  12.717  25.910  0.1182  0.1303 -0.2634
 4630W        W47542  22.324  12.730  29.636  0.3056  0.2375 -0.0474
 4631W        W47543  22.826  12.339  28.583 -0.2419 -0.2718 -0.2712
 4632W        W47544  24.693  13.214  27.517 -0.1257 -0.0909 -0.2292
 4633W        W47545  25.250  13.151  28.930  0.0181  0.0047  0.0845
 4634W        W47546  21.158  11.717  29.270  0.0391  0.0410  0.0149
 4635W        W47547  23.313  13.019  29.250 -0.1469 -0.0654  0.1740
 4636W        W47548  22.226  11.022  31.530 -0.1297  0.2705  0.3067
 4637W        W47549  24.337  14.279  30.161 -0.0607 -0.3906  0.2006
 4638W        W47550  25.876  13.612  29.383 -0.3316  0.0112 -0.7655
 4639W        W47551  24.613  13.976  26.979  0.0457  0.2149  0.2343
 4640W        W47552  22.219  13.289  28.691 -0.0513  0.2177 -0.1473
 4641W        W47553  23.736  13.399  29.329 -0.1574  0.1823 -0.1824
 4642W        W47554  23.484   9.967  28.230 -0.2651 -0.1232  0.0385
 4643W        W47555  22.156   9.463  29.998  0.2377 -0.2896 -0.1017
 4644W        W47556  24.973  12.730  31.817 -0.0198  0.1617 -0.3462
 4645W        W47557  21.260  14.218  27.472  0.0749 -0.0560  0.2591
 4646W        W47558  22.286  12.259  29.684  0.2628 -0.1083 -0.2007
 4647W        W47559  22.773  11.930  29.004 -0.0038  0.0179 -0.2487
 4648W        W47560  23.345  14.583  27.574 -0.1832 -0.1048 -0.1353
 4649W        W47561  23.593  11.097  29.556 -0.0946 -0.0915 -0.0453
 4650W        W47562  24.178  10.705  31.206 -0.0396 -0.3056  0.0124
 4651W        W47563  23.975  13.019  28.595  0.0503  0.2329 -0.0488
 4652W        W47564  22.768  12.275  27.196  0.2356 -0.2039 -0.1038
 4653W        W47565  21.618  12.547  29.103 -0.0145 -0.0975 -0.1109
 4654W        W47566  21.579  12.777  30.400 -0.3947 -0.2055  0.1309
 4655W        W47567  25.303  11.660  30.679 -0.1094 -0.0056 -0.1233
 4656W        W47568  25.898  13.413  28.916 -0.1273 -0.1037  0.0188
 4657W        W47569  23.325  12.873  29.709 -0.1331  0.1478  0.1494
 4658W        W47570  26.866  12.360  30.418 -0.1744  0.1720  0.3934
 4659W        W47571  25.538  11.597   0.480  0.0201 -0.1905 -0.0118
 4660W        W47572  21.382  13.826  28.608 -0.0735  0.4477 -0.3913
 4661W        W47573  22.046  14.300  29.861  0.2101 -0.0038  0.1126
 4662W        W47574  22.868  13.971  27.246  0.1405  0.1687  0.0924
 4663W        W47575  26.023  13.648  28.457  0.1384 -0.0896  0.2583
 4664W        W47576  25.260  15.013  30.246 -0.0595 -0.0091 -0.2493
 4665W        W47577  22.925  14.700  29.745  0.3380  0.1691 -0.0124
 4666W        W47578  22.368  13.406  27.706 -0.0121 -0.0540 -0.0597
 4667W        W47579  21.888  14.828   0.003  0.0113 -0.0451  0.0719
 4668W        W47580  22.420  14.588  29.820  0.0337  0.0843 -0.0459
 4669W        W47581  25.625  13.905  30.044 -0.2343  0.2477 -0.6229
 4670W        W47582  23.557  12.528  29.306  0.1860 -0.3163  0.3901
 4671W        W47583  22.442  12.918  27.580 -0.0343  0.0661  0.2222
 4672W        W47584  24.316  12.527  30.521 -0.0169  0.1377  0.0769
 4673W        W47585  22.374  14.943  30.566 -0.1263  0.0495 -0.0108
 4674W        W47586  20.876  13.967  28.677 -0.1102 -0.0116  0.1062
 4675W        W47587  26.308  11.007  31.442  0.1546 -0.0263  0.0922
 4676W        W47588  21.409  12.992  29.298 -0.0926 -0.0165  0.0624
 4677W        W47589  24.409  12.912  27.216  0.0001 -0.0334 -0.0178
 4678W        W47590  22.307  10.879  28.228 -0.1731 -0.0571  0.0619
 4679W        W47591  24.167  13.381  26.516 -0.4091 -0.3399 -0.1445
 4680W        W47592  23.345  11.714  31.403 -0.1144 -0.3933 -0.1962
 4681W        W47593  22.729  13.569  28.191 -0.0073 -0.0423 -0.0116
 4682W        W47594  23.301  11.417  30.561 -0.3079  0.0785  0.0330
 4683W        W47595  23.175  14.028  30.878  0.0089  0.1487  0.2865
 4684W        W47596  22.517  11.900  27.450  0.0231 -0.0088 -0.1921
 4685W        W47597  24.890  12.044  29.282  0.2652 -0.1004 -0.1461
 4686W        W47598  22.841  14.465  29.281 -0.3143 -0.1079  0.1932
 4687W        W47599  23.009  12.672  29.018  0.0512  0.4212  0.1871
 4688W        W47600  23.788  14.361  28.436  0.1481  0.1623 -0.1148
 4689W        W47601  25.444  14.371  28.715  0.2591 -0.1222  0.0810
 4690W        W47602  23.201  13.197  27.670  0.1182  0.0031  0.2864
 4691W        W47603  22.090  13.639  29.094 -0.1157 -0.1215 -0.1446
 4692W        W47604  22.349  11.604  30.837  0.0862  0.2886 -0.3060
 4693W        W47605  20.762  11.367  28.360  0.1605 -0.3723 -0.0550
 4694W        W47606  22.925  11.415  28.696  0.1805 -0.1925 -0.0952
 4695W        W47607  24.254  13.514  30.556  0.1055  0.1927 -0.0965
 4696W        W47608  19.349  13.455  28.577 -0.2322 -0.0605  0.0320
 4697W        W47609  25.049  12.445  29.052 -0.1457 -0.0726 -0.1355
 4698W        W47610  23.739  14.430  30.359  0.2239 -0.0169 -0.3573
 4699W        W47611  24.147  13.022  30.735  0.2828 -0.1704 -0.0363
 4700W        W47612  23.477  11.656  26.203  0.1350  0.1451  0.1338
 4701W        W47613  24.389  10.734  30.170 -0.2456 -0.1784  0.0395
 4702W        W47614  24.307  11.336  28.778  0.0132 -0.1115 -0.2207
 4703W        W47615  21.693  12.209  27.200  0.1522 -0.0040 -0.1600
 4704W        W47616  22.749  12.139  28.086 -0.1046  0.1496  0.1280
 4705W        W47617  25.025  14.019  31.575  0.4152  0.1797 -0.0153
 4706W        W47618  24.817  12.099  28.764  0.1225  0.2596 -0.1881
 4707W        W47619  23.240  14.562  30.206 -0.0649  0.2115  0.0744
 4708W        W47620  24.171  11.638  30.497  0.0467 -0.0820 -0.2037
 4709W        W47621  23.665  13.944  31.896 -0.0011 -0.3477  0.0879
 4710W        W47622  21.610  14.107  26.263  0.1719  0.0391 -0.1073
 4711W        W47623  21.789  13.091  28.962 -0.0668  0.1105 -0.0800
 4712W        W47624  21.346  12.737  28.207  0.2187  0.0714  0.3902
 4713W        W47625  23.298  10.809  29.202 -0.0904 -0.1368  0.1826
 4714W        W47626  22.230  13.633  29.634  0.0232 -0.1265  0.2293
 4715W        W47627  25.295  11.419  29.889  0.2693  0.1503 -0.1010
 4716W        W47628  21.274  11.181  29.432  0.1994 -0.2931  0.1668
 4717W        W47629  24.142  11.005  28.305 -0.0951  0.0331  0.0155
 4718W        W47630  21.641  12.708  28.645 -0.1384 -0.1550  0.1330
 4719W        W47631  26.417  15.217  30.564  0.2142 -0.0932 -0.1812
 4720W        W47632  24.864  13.480  28.504 -0.0558  0.4658 -0.2158
 4721W        W47633  23.219  13.954  26.737 -0.2827 -0.2076 -0.0965
 4722W        W47634  21.413  11.926  29.715  0.3702 -0.3003  0.2162
 4723W        W47635  23.309   9.947  30.305 -0.1960 -0.0223 -0.2044
 4724W        W47636  22.108  11.033  29.853 -0.2707  0.0406  0.0977
 4725W        W47637  22.417   9.858  30.279  0.0661  0.2205 -0.2767
 4726W        W47638  25.174  13.195  31.632 -0.2894 -0.1623  0.1199
 4727W        W47639  23.073  11.902  28.596 -0.2748 -0.2471  0.0429
 4728W        W47640  23.617  12.243  27.937  0.3882 -0.1881 -0.1216
 4729W        W47641  24.497  13.101  28.555 -0.4252 -0.0449 -0.0228
 4730W        W47642  21.889  14.046  28.684  0.1764 -0.1357  0.0806
 4731W        W47643  26.276  12.632  29.685 -0.3531 -0.0662 -0.2583
 4732W        W47644  24.196  14.483  28.815 -0.0795  0.0474  0.0002
 4733W        W47645  24.423  13.116  29.330  0.0478 -0.1181 -0.2159
 4734W        W47646  24.662  15.712  29.196 -0.1119 -0.0567 -0.2473
 4735W        W47647  22.103  12.060  30.126  0.2126  0.0812  0.4039
 4736W        W47648  22.808   9.823  27.038  0.1518  0.1823 -0.1072
 4737W        W47649  22.516  14.514  28.827  0.1386  0.0258  0.1317
 4738W        W47650  24.057  14.008  28.910 -0.0345 -0.0171  0.2391
 4739W        W47651  23.395  10.988  27.988 -0.2887  0.3130 -0.1726
 4740W        W47652  25.446  13.668  28.964  0.0866 -0.1468 -0.1973
 4741W        W47653  23.723  12.585  28.340  0.0068 -0.1813  0.0853
 4742W        W47654  21.376  14.186  29.748  0.2901  0.0214 -0.0202
 4743W        W47655  26.432  12.186  30.603 -0.1351  0.1411 -0.0458
 4744W        W47656  25.139  12.240  31.194 -0.0515  0.0375 -0.2251
 4745W        W47657  24.067  12.460  27.924  0.0264 -0.2923 -0.0078
 4746W        W47658  23.827  10.180  27.912  0.0893 -0.0257 -0.2562
 4747W        W47659  25.871  12.823  30.052  0.1374  0.2975  0.1409
 4748W        W47660  21.934  14.660  27.956  0.0501  0.2194 -0.0130
 4749W        W47661  21.629  14.810  27.449 -0.3106  0.1718 -0.3199
 4750W        W47662  21.731  13.417  27.882  0.0721  0.1768 -0.0731
 4751W        W47663  24.990  11.834  29.787  0.1598  0.2351  0.1167
 4752W        W47664  22.275  12.465  30.974 -0.2163  0.0909  0.1619
 4753W        W47665  24.222  12.922  31.216  0.0808 -0.2698 -0.1095
 4754W        W47666  22.263  12.369  27.988  0.2744 -0.0078  0.1391
 4755W        W47667  22.949  11.842  30.508  0.0828 -0.0266 -0.0189
 4756W        W47668  24.110  11.890  28.804 -0.2761 -0.1527 -0.3182
 4757W        W47669  25.810  11.532  29.384  0.4946  0.2754  0.0147
 4758W        W47670  22.894  13.103  30.351 -0.1042  0.1006 -0.1798
 4759W        W47671  25.426  13.146  28.010 -0.2190  0.0210 -0.0808
 4760W        W47672  24.105  12.088  28.354 -0.0638 -0.0604  0.3013
 4761W        W47673  25.175  12.085  27.696  0.0390 -0.0616 -0.0092
 4762W        W47674  20.448  13.025  29.578  0.1772  0.1151 -0.2821
 4763W        W47675  22.804  11.630  28.254  0.2431  0.2188 -0.0563
 4764W        W47676  23.329  13.860  29.917 -0.4554  0.2817 -0.0367
 4765W        W47677  24.880  12.039  28.209 -0.2377 -0.0387  0.1763
 4766W        W47678  24.680  14.209  29.430  0.1824 -0.1489 -0.1365
 4767W        W47679  23.369  12.301  30.462  0.2352  0.3179  0.1509
 4768W        W47680  23.527  13.628  30.831  0.2025  0.1069 -0.2200
 4769W        W47681  23.634  12.517  30.105  0.3540 -0.0069 -0.2231
 4770W        W47682  24.168   9.819  30.125 -0.0516  0.0108  0.1336
 4771W        W47683  22.919  12.790  27.410 -0.1998 -0.0477  0.1468
 4772W        W47684  25.538  12.712  28.212  0.4390 -0.1779  0.0520
 4773W        W47685  21.674  13.808  25.476  0.0107  0.3345  0.2014
 4774W        W47686  25.434  11.084  28.745 -0.2765 -0.0329  0.2468
 4775W        W47687  24.765  10.650  28.552 -0.0320 -0.0533 -0.0708
 4776W        W47688  23.026  11.471  30.155  0.0196 -0.1403 -0.1326
 4777W        W47689  25.316  14.422  30.594  0.0043 -0.2004 -0.0174
 4778W        W47690  24.958  12.255  30.052 -0.2989  0.0829  0.2173
 4779W        W47691  24.499  12.538  29.999  0.0706  0.1825  0.0634
 4780W        W47692  23.706  12.334  27.463  0.0852 -0.0796  0.1103
 4781W        W47693  24.544  12.056  29.847  0.2686  0.4935  0.2396
 4782W        W47694  21.261  12.459  27.773 -0.1539  0.3549  0.1140
 4783W        W47695  22.851  14.245  30.012  0.1520  0.1083  0.1316
 4784W        W47696  24.191  14.591  30.581  0.1503  0.2113 -0.1330
 4785W        W47697  23.857  12.867  29.675  0.1573 -0.1348  0.2492
 4786W        W47698  24.740  11.851  31.339 -0.1592 -0.0802  0.1772
 4787W        W47699  23.396  11.606  29.759 -0.2604  0.1255  0.3051
 4788W        W47700  23.277  14.985  27.893  0.1684 -0.1656  0.1495
 4789W        W47701  23.121  13.268  28.187 -0.2009  0.1503 -0.3573
 4790W        W47702  23.723  10.759  30.866 -0.3235 -0.2315 -0.0347
 4791W        W47703  23.648  13.881  30.438 -0.3048  0.0592 -0.1122
 4792W        W47704  22.751  13.139  27.892  0.3033 -0.0901  0.0151
 4793W        W47705  24.073  12.395  29.847  0.0655  0.2341  0.0486
 4794W        W47706  22.830  13.695  27.677  0.2079 -0.1681  0.2238
 4795W        W47707  24.193  10.216  31.100 -0.0345 -0.1727  0.1916
 4796W        W47708  22.001  14.417  28.954  0.0976  0.1938 -0.0650
 4797W        W47709  22.699  12.688  28.142 -0.1304  0.1333  0.1754
 4798W        W47710  21.935  14.075  27.131  0.2405  0.3343 -0.2956
 4799W        W47711  23.909  12.925  29.152  0.1379 -0.3049  0.1115
 4800W        W47712  25.073  14.431  27.825 -0.1868 -0.1847 -0.0692
 4801W        W47713  22.462  12.168  30.421 -0.0712  0.2021 -0.4135
 4802W        W47714  23.794  11.656  31.280 -0.0021 -0.4977 -0.1821
 4803W        W47715  22.123  14.976  29.717 -0.0049  0.2097  0.2148
 4804W        W47716  24.249  11.468  28.190 -0.0198 -0.0627 -0.3086
 4805W        W47717  24.242  12.332  27.423  0.2454 -0.2219 -0.2822
 4806W        W47718  24.648  14.723  28.900 -0.3723 -0.0240  0.2331
 4807W        W47719  22.422  13.315  30.612  0.0240 -0.0522  0.2301
 4808W        W47720  21.780  11.795  28.544 -0.0201 -0.0235  0.0615
 4809W        W47721  24.601  12.093  30.347  0.2698  0.0389 -0.1318
 4810W        W47722  24.612  12.958  30.546 -0.1466 -0.0842 -0.1124
 4811W        W47723  22.466  14.701  28.105 -0.1294  0.0809 -0.0845
 4812W        W47724  24.232  14.781  30.097 -0.1538 -0.0054 -0.2186
 4813W        W47725  22.474  13.102  28.292  0.0409  0.2621 -0.0690
 4814W        W47726  23.203  13.381  28.913  0.1962  0.1007 -0.0880
 4815W        W47727  21.252  11.477  29.895 -0.2131 -0.0459  0.1092
 4816W        W47728  24.449  13.334  30.978  0.1425  0.1917 -0.0864
 4817W        W47729  24.512  11.786  29.047 -0.0744 -0.0894  0.2382
 4818W        W47730  23.860  11.501  28.495  0.0534 -0.0421 -0.1811
 4819W        W47731  23.836  13.234  31.035  0.0145 -0.1014  0.0864
 4820W        W47732  23.540  13.918  29.353 -0.0368  0.0124  0.0457
 4821W        W47733  26.196  12.757  30.685  0.0305  0.2274  0.2853
 4822W        W47734  22.430  13.318  30.093 -0.2513 -0.0176  0.0974
 4823W        W47735  23.929  11.622  29.583  0.1096 -0.1078  0.0896
 4824W        W47736  26.094  14.728  27.389 -0.0892  0.3659 -0.0551
 4825W        W47737  24.687  12.833  31.006  0.0351 -0.1639  0.1957
 4826W        W47738  23.663  13.235  27.463 -0.1578 -0.0511 -0.0583
 4827W        W47739  20.126  13.093  29.070  0.0585  0.0095 -0.1475
 4828W        W47740  23.191  12.751  28.019  0.2181 -0.3483  0.3353
 4829W        W47741  25.401  11.261  29.217 -0.0536 -0.0438  0.0300
 4830W        W47742  22.007  14.060  29.346 -0.0228 -0.0752  0.0540
 4831W        W47743  20.813  14.305  27.336  0.0285 -0.1415 -0.1277
 4832W        W47744  22.177  13.065  30.953 -0.3011 -0.3469  0.1838
 4833W        W47745  24.661  12.183  27.645  0.2349  0.1109  0.0503
 4834W        W47746  23.222  13.532  29.394 -0.0255 -0.3971 -0.0050
 4835W        W47747  23.712  12.031  29.278 -0.3059 -0.3716 -0.2257
 4836W        W47748  26.977  10.288   0.061  0.1867  0.1200 -0.1626
 4837W        W47749  24.093  12.978  28.055  0.0241 -0.2590 -0.0255
 4838W        W47750  24.671  13.118  31.474 -0.2419 -0.4599 -0.0416
 4839W        W47751  22.629  10.321  30.690 -0.0279  0.0344  0.1167
 4840W        W47752  24.944  13.794  29.189  0.0469 -0.0414 -0.4153
 4841W        W47753  22.323  10.378  30.288  0.0799  0.0744  0.2446
 4842W        W47754  24.056  15.081  31.089 -0.1432 -0.0363 -0.3059
 4843W        W47755  22.590  13.190  29.655  0.2523  0.2944 -0.3028
 4844W        W47756  23.431  11.633  27.237  0.0664  0.1784 -0.1131
 4845W        W47757  23.777  11.813  28.035  0.1313 -0.1001  0.0637
 4846W        W47758  23.727  11.443  29.119 -0.3065  0.3896 -0.2111
 4847W        W47759  24.835  13.945  28.263 -0.0879 -0.0855  0.1628
 4848W        W47760  22.605  12.435  27.665  0.2877 -0.0839 -0.0239
 4849W        W47761  26.435  11.966  29.117  0.2234 -0.2145 -0.0264
 4850W        W47762  20.715  12.512  29.556 -0.1298 -0.2643 -0.1339
 4851W        W47763  24.848  12.585  28.385  0.0934  0.0559 -0.1459
 4852W        W47764  23.966  12.328  28.806  0.3525 -0.2177  0.1765
 4853W        W47765  23.430  11.856  28.949  0.1312 -0.1442  0.4662
 4854W        W47766  24.302  12.040  30.791 -0.0311  0.1894  0.0532
 4855W        W47767  24.882  12.870  28.819  0.1068 -0.0002 -0.1658
 4856W        W47768  25.122  12.381  29.619 -0.3190 -0.1850  0.0679
 4857W        W47769  24.915  12.223  31.663  0.0946 -0.3242 -0.2844
 4858W        W47770  24.156  11.236  30.038 -0.1713 -0.0869  0.1708
 4859W        W47771  22.957  11.548  31.054  0.0610  0.2169 -0.0590
 4860W        W47772  21.049  10.735  29.717  0.1125 -0.0856 -0.1272
 4861W        W47773  24.486  15.263  29.980 -0.2298 -0.1439  0.2120
 4862W        W47774  25.466  12.211  28.857 -0.0440 -0.0188  0.2645
 4863W        W47775  25.354  12.593  30.304 -0.1988 -0.1865  0.0272
 4864W        W47776  25.759  12.360  28.451 -0.0098 -0.0720 -0.0669
 4865W        W47777  23.324  11.353  27.661  0.0014  0.1076  0.0666
 4866W        W47778  22.605  12.844  28.777 -0.1194 -0.1471 -0.2922
 4867W        W47779  25.829  12.402  30.448 -0.2954  0.0276 -0.0551
 4868W        W47780  22.349  11.817  27.945 -0.1715 -0.1160 -0.1101
 4869W        W47781  24.703  11.347  30.452 -0.0455 -0.2394  0.1782
 4870W        W47782  23.373  14.717  28.342 -0.0065  0.0415  0.1629
 4871W        W47783  24.247  12.662  29.480 -0.1430 -0.0846 -0.0322
 4872W        W47784  24.550  10.821  29.026 -0.0898  0.0589 -0.2668
 4873W        W47785  23.147  12.006  30.048 -0.1482  0.1372 -0.1005
 4874W        W47786  22.089  13.066  30.365 -0.0076 -0.0270 -0.0556
 4875W        W47787  22.371  12.832  27.088 -0.6294  0.0822 -0.0235
 4876W        W47788  22.400  13.811  27.995  0.0007 -0.2558 -0.3537
 4877W        W47789  23.835  12.574  30.576 -0.1772  0.1649 -0.2182
 4878W        W47790  22.767  12.273  29.741 -0.2719  0.2219  0.0554
 4879W        W47791  24.270  11.006  27.323 -0.0655 -0.0106  0.0832
 4880W        W47792  25.547  11.897  29.764 -0.1520  0.0019 -0.0482
 4881W        W47793  22.407  14.561  26.625 -0.0973 -0.2338 -0.0597
 4882W        W47794  23.896  11.200  30.555 -0.1455 -0.2623  0.1993
 4883W        W47795  22.761  14.028  28.631  0.0280 -0.0844  0.0644
 4884W        W47796  22.009  12.622  30.000 -0.1640  0.1643  0.0300
 4885W        W47797  22.309  13.798  28.456  0.3731 -0.0357  0.0093
 4886W        W47798  23.599  10.092  29.949 -0.4899 -0.0665 -0.1612
 4887W        W47799  24.481  12.260  28.087  0.1385  0.1478  0.3552
 4888W        W47800  23.068  12.832  28.498 -0.1154 -0.1649 -0.3414
 4889W        W47801  27.108  11.759  31.838  0.1402  0.2901 -0.0750
 4890W        W47802  23.842  13.956  29.946  0.2288  0.3049  0.0654
 4891W        W47803  23.377  11.358  31.032  0.2949 -0.2087  0.0108
 4892W        W47804  23.909  15.189  31.772 -0.1075  0.0190 -0.1651
 4893W        W47805  25.545  12.361  29.333 -0.0608  0.1157  0.2709
 4894W        W47806  21.616  13.360  29.847  0.1114  0.2215  0.1663
 4895W        W47807  22.046  12.072  30.647  0.0547 -0.0731  0.0367
 4896W        W47808  25.498  13.896  30.777 -0.1186  0.1970 -0.3185
 4897W        W47809  24.471  13.759  29.224  0.1888  0.1402 -0.0762
 4898W        W47810  23.352  11.469  28.238  0.2544 -0.0173 -0.1300
 4899W        W47811  23.584  13.043  28.016  0.0113 -0.0605  0.0411
 4900W        W47812  22.410  14.390  31.406  0.1844 -0.1311 -0.1445
 4901W        W47813  20.254  10.382  30.888 -0.0861  0.0430  0.2471
 4902W        W47814  22.453  15.232  28.987 -0.4351 -0.1605  0.0707
 4903W        W47815  25.033  14.000  28.735  0.1887  0.1389  0.5593
 4904W        W47816  25.872  13.341  27.657 -0.1228 -0.4195 -0.0669
 4905W        W47817  23.551  15.098  31.420 -0.3818 -0.2733 -0.0375
 4906W        W47818  23.982  11.485  27.461 -0.1538  0.1967  0.0954
 4907W        W47819  22.846  13.751  29.979  0.0202  0.0809 -0.2841
 4908W        W47820  20.633  14.089  28.227  0.0462 -0.0568  0.1478
 4909W        W47821  23.944  13.463  28.094 -0.3868 -0.1678 -0.1146
 4910W        W47822  22.034  14.354  27.582 -0.0928 -0.2197  0.0360
 4911W        W47823  24.666  14.244  30.555 -0.5649  0.1009  0.1863
 4912W        W47824  24.755  12.966  28.161 -0.2699 -0.0512  0.1442
 4913W        W47825  25.418  12.723  28.768 -0.1716  0.2111  0.2037
 4914W        W47826  25.028  10.853  29.245 -0.0086  0.3243  0.0405
 4915W        W47827  23.733  14.061  30.951  0.3244 -0.0343  0.0120
 4916W        W47828  21.198  13.019  30.161 -0.1514  0.2664 -0.1266
 4917W        W47829  23.646  11.866  27.579 -0.0940 -0.1876 -0.1478
 4918W        W47830  22.052  13.110  29.866 -0.1017  0.1263  0.1832
 4919W        W47831  25.236  10.829  30.704  0.0678  0.1634 -0.1683
 4920W        W47832  22.126  15.733  29.392  0.0057 -0.2235 -0.1687
 4921W        W47833  23.537  13.309  28.487  0.1714 -0.1593 -0.4776
 4922W        W47834  21.158  12.442  28.538  0.2690 -0.0079 -0.0807
 4923W        W47835  22.545  13.603  28.894  0.1502  0.1201  0.2203
 4924W        W47836  25.637  11.022  30.169  0.0171 -0.0124  0.0927
 4925W        W47837  23.159  13.699  28.466 -0.4284 -0.1096  0.3334
 4926W        W47838  25.453  12.021  30.322 -0.3699  0.1052  0.2005
 4927W        W47839  22.886  14.663  28.477 -0.0346  0.0773  0.0540
 4928W        W47840  22.492  14.051  29.731  0.1001  0.0827  0.1420
 4929W        W47841  22.493  14.015  29.157  0.1545 -0.0597  0.1979
 4930W        W47842  22.156  10.187  27.812 -0.4030  0.3139  0.0564
 4931W        W47843  25.932  11.994  29.169 -0.1323 -0.1074  0.1296
 4932W        W47844  23.300  12.787  30.646 -0.1778 -0.2565 -0.3197
 4933W        W47845  25.164  11.236  30.322 -0.1368 -0.0487  0.0386
 4934W        W47846  22.581  11.438  29.659 -0.0132  0.0169 -0.2733
 4935W        W47847  24.173  13.505  27.573 -0.2981  0.2202  0.3378
 4936W        W47848  23.379  14.906  29.616 -0.0283 -0.2180 -0.0302
 4937W        W47849  21.651  11.980  29.181  0.0811 -0.0461 -0.2000
 4938W        W47850  23.456  12.765  27.523 -0.1843 -0.0255 -0.0466
 4939W        W47851  24.953  14.017  31.055  0.1915  0.1319 -0.1023
 4940W        W47852  23.472  13.624  27.923  0.0781  0.0235 -0.2452
 4941W        W47853  24.001  15.877  31.670  0.0452 -0.0037  0.0302
 4942W        W47854  22.405  11.812  29.447  0.0436 -0.2040  0.1076
 4943W        W47855  25.433  11.901  29.268 -0.1169  0.1169 -0.0749
 4944W        W47856  21.499  12.841  29.789  0.0851  0.1372 -0.0616
 4945W        W47857  24.483  12.503  31.381 -0.0132 -0.0896  0.2705
 4946W        W47858  23.690  14.367  31.333  0.0106  0.2154 -0.0329
 4947W        W47859  22.607  10.795  30.641 -0.1672  0.6263  0.3009
 4948W        W47860  25.222  13.393  27.512 -0.1744 -0.1711  0.0817
 4949W        W47861  25.107  12.653  30.805  0.0978 -0.3237  0.0355
 4950W        W47862  22.708  13.318  27.114 -0.1994 -0.1650  0.1721
 4951W        W47863  24.473  13.724  28.730  0.0982 -0.0585 -0.0495
 4952W        W47864  25.652  13.264  28.484  0.2388  0.0469  0.0559
 4953W        W47865  21.896  12.236  28.763 -0.0334 -0.5696 -0.2226
 4954W        W47866  24.911  14.293  30.152  0.0965  0.0850 -0.1362
 4955W        W47867  25.695  14.797  29.795 -0.3949  0.3253  0.2900
 4956W        W47868  23.337  10.168  28.739  0.2504 -0.2752  0.3184
 4957W        W47869  22.959  11.753  29.525 -0.1420 -0.0702 -0.0725
 4958W        W47870  21.387  15.136  27.655  0.0750  0.1079  0.1374
 4959W        W47871  25.139  13.026  30.501  0.0359  0.0031 -0.0856
 4960W        W47872  24.823  11.208  29.864 -0.1502  0.0939  0.2343
 4961W        W47873  23.567  14.231  27.961 -0.2475 -0.0633  0.1928
 4962W        W47874  25.580  10.800  31.534 -0.2957 -0.0928  0.1203
 4963W        W47875  22.965  15.249  29.683  0.0593  0.0192 -0.1210
 4964W        W47876  21.673  15.922  30.430 -0.2332 -0.2159  0.2967
 4965W        W47877  21.812  12.502  28.234  0.3234  0.3468  0.1483
 4966W        W47878  23.018  11.034  30.862  0.1073 -0.0266 -0.1337
 4967W        W47879  23.346  12.377  29.728  0.1393  0.2520 -0.1741
 4968W        W47880  23.251  12.342  28.280 -0.0404  0.3382 -0.0960
 4969W        W47881  24.647  12.354  30.883 -0.2166 -0.1061 -0.2933
 4970W        W47882  24.196  11.888  27.684 -0.0141  0.0391 -0.3865
 4971W        W47883  26.742  13.245  29.674  0.2045  0.1081  0.1793
 4972W        W47884  24.259  12.109  29.433 -0.1835  0.1378 -0.0266
 4973W        W47885  27.232  11.022  28.638 -0.1751 -0.0339  0.3565
 4974W        W47886  24.249  10.929  27.809 -0.0145  0.1660  0.0557
 4975W        W47887  22.975  12.681  30.027 -0.0131  0.1901 -0.1238
 4976W        W47888  21.711  13.469  28.619  0.3406  0.1347  0.0588
 4977W        W47889  21.586  12.858  26.026 -0.0217 -0.1148  0.1594
 4978W        W47890  21.412  13.440  28.996  0.1263  0.0687 -0.0169
 4979W        W47891  23.515  11.123   0.755  0.1733  0.0075 -0.1543
 4980W        W47892  20.803  11.284  29.856 -0.0002  0.1315 -0.0919
 4981W        W47893  23.504  14.370  29.727  0.3294 -0.0997 -0.0503
 4982W        W47894  22.101  12.653  28.981  0.0366  0.0443  0.2479
 4983W        W47895  24.435  13.491  28.234  0.0200 -0.4452 -0.0214
 4984W        W47896  24.593  11.023  29.495 -0.2965  0.2101 -0.0462
 4985W        W47897  21.991  11.542  30.022 -0.2552 -0.1478  0.2958
 4986W        W47898  24.778  12.793  29.359 -0.1696 -0.0399 -0.2034
 4987W        W47899  24.657  13.521  29.658  0.2231 -0.0114  0.3135
 4988W        W47900  24.300  12.802  28.905  0.0165 -0.0356 -0.0230
 4989W        W47901  24.657  13.781  30.162 -0.1307 -0.1314 -0.1658
 4990W        W47902  20.199  14.407  28.171  0.3268 -0.0812  0.0756
 4991W        W47903  26.164  11.757  30.511 -0.3006  0.3756  0.0070
 4992W        W47904  22.139  11.281  30.489 -0.1007 -0.1652  0.0682
 4993W        W47905  22.343  11.618  28.473 -0.2177 -0.1195  0.0649
 4994W        W47906  23.196  11.854  28.017  0.2157 -0.0693  0.1463
 4995W        W47907  23.635  13.670  28.881 -0.1901 -0.1361 -0.0752
 4996W        W47908  24.147  14.569  26.640 -0.3268  0.2865 -0.4921
 4997W        W47909  23.171  12.226  29.264  0.0581  0.0863 -0.0089
 4998W        W47910  23.358  14.428  30.739 -0.0638 -0.1342  0.2522
 4999W        W47911  21.973   9.897  30.486  0.1304 -0.1660  0.1728
 5000W        W47912  25.626  13.729  28.005 -0.1986  0.3242 -0.3171
 5001W        W47913  23.692  13.241  30.528 -0.1179 -0.0524 -0.0468
 5002W        W47914  27.191  11.886  27.754  0.2463 -0.3332 -0.1707
 5003W        W47915  24.995  11.476  29.435  0.3235  0.2477  0.2802
 5004W        W47916  23.540  12.780  28.737 -0.0432  0.2805 -0.2566
 5005W        W47917  23.342  10.433  30.291  0.1748  0.1339  0.0487
 5006W        W47918  21.880  12.862  29.429  0.1412  0.0195 -0.4306
 5007W        W47919  24.426  13.286  30.163 -0.1946  0.1896  0.0103
 5008W        W47920  21.698  11.248  29.630  0.2418 -0.0111 -0.2944
 5009W        W47921  24.044  13.622  28.567  0.2456 -0.2022  0.1248
 5010W        W47922  24.618  13.032  29.776 -0.0423  0.0968  0.2759
 5011W        W47923  22.707  13.667  29.480 -0.0312 -0.0198  0.0618
 5012W        W47924  23.042  11.783  27.545  0.0401 -0.2698  0.0916
 5013W        W47925  22.695  11.389  31.414 -0.0950  0.0982 -0.1487
 5014W        W47926  23.123  14.398  28.844  0.0584  0.0563 -0.2632
 5015W        W47927  23.383  14.499  29.277 -0.0502 -0.2800 -0.0159
 5016W        W47928  23.077  11.253  29.664  0.0888  0.0407  0.2489
 5017W        W47929  25.159  13.021  28.461  0.1665  0.1711  0.2314
 5018W        W47930  24.016  13.790  29.522  0.0253  0.0160  0.3579
 5019W        W47931  24.316  15.357  31.510  0.0610 -0.2343 -0.1163
 5020W        W47932  23.845  15.932  30.965 -0.0755 -0.0620 -0.0946
 5021W        W47933  24.841  12.578  30.379 -0.1634  0.1278 -0.0209
 5022W        W47934  22.436   9.831  30.783 -0.1128 -0.0626 -0.2013
 5023W        W47935  23.626  11.755  30.294  0.0279  0.1719  0.0244
 5024W        W47936  22.795  13.319  28.595 -0.2982  0.1688  0.1158
 5025W        W47937  24.725  13.469  30.544 -0.1450 -0.2452 -0.0133
 5026W        W47938  22.615  11.426  29.127 -0.0210  0.1135  0.1284
 5027W        W47939  25.595  10.369  27.607 -0.1358 -0.1694 -0.1512
 5028W        W47940  22.773  14.239  30.636  0.0176  0.0669  0.1811
 5029W        W47941  26.047  12.000  30.096  0.2731 -0.1070  0.1031
 5030W        W47942  24.907  11.230  30.870 -0.0580  0.0757 -0.2639
 5031W        W47943  23.293  12.951  31.166  0.3486 -0.1153  0.0526
 5032W        W47944  20.981  11.605  30.945  0.2010  0.0184 -0.1355
 5033W        W47945  22.403  12.821  31.328 -0.2439  0.0879 -0.2217
 5034W        W47946  23.810  14.693  31.776  0.2520  0.0490  0.4687
 5035W        W47947  23.322  14.021   0.254  0.0768  0.3208 -0.2033
 5036W        W47948  25.176  11.745  31.180 -0.1123 -0.0318 -0.0332
 5037W        W47949  22.569  11.870  30.021 -0.0153 -0.1336  0.1231
 5038W        W47950  25.903  11.649   0.064  0.2175  0.0553 -0.0288
 5039W        W47951  24.315  14.970  31.954 -0.3789  0.2613  0.0241
 5040W        W47952  23.194  14.051  31.765  0.1656 -0.1480 -0.1844
 5041W        W47953  21.771  10.892  31.825  0.3778  0.0573  0.1088
 5042W        W47954  25.010  12.862  30.000  0.0609  0.3627 -0.0743
 5043W        W47955  23.379  12.449  30.957  0.1689 -0.1045  0.0054
 5044W        W47956  25.566  13.160  31.956  0.1550  0.0361 -0.0655
 5045W        W47957  23.238  13.499  30.303  0.1009 -0.2567  0.1274
 5046W        W47958  21.942  11.190  30.941  0.1624  0.0580  0.2161
 5047W        W47959  24.843  13.595  31.340  0.1619 -0.1206  0.0536
 5048W        W47960  22.611  11.092  31.819 -0.2121  0.2435 -0.2133
 5049W        W47961  23.376  11.908  30.925  0.2609 -0.0019  0.2171
 5050W        W47962  23.994  11.797  31.722 -0.3513  0.0102  0.1724
 5051W        W47963  21.935  14.456  31.178 -0.0566 -0.0553  0.2397
 5052W        W47964  27.066  11.299   0.366  0.1505 -0.3981 -0.1175
 5053W        W47965  24.439  11.602   0.298 -0.3742  0.1097  0.1290
 5054W        W47966  23.897  10.682  30.377 -0.0579  0.3446 -0.2933
 5055W        W47967  23.775  11.628  30.756  0.1486 -0.3272  0.1587
 5056W        W47968  24.356  11.435  30.885 -0.4497  0.3235  0.1029
 5057W        W47969  22.468  13.755   0.745  0.0727  0.1319 -0.0604
 5058W        W47970  23.750  12.010  29.822  0.0714  0.3357  0.1919
 5059W        W47971  23.511  13.910  31.386  0.1164 -0.1032  0.0966
 5060W        W47972  23.134  14.040  30.362  0.0659  0.0352 -0.2442
 5061W        W47973  23.753  12.454   0.018  0.2465  0.0159 -0.1389
 5062W        W47974  25.466  13.430   0.350 -0.0806 -0.1059 -0.0180
 5063W        W47975  24.208  10.746  29.713  0.0093  0.0781 -0.1463
 5064W        W47976  22.559  12.850  30.705  0.4110  0.2210  0.0072
 5065W        W47977  22.416  14.010  30.217  0.2741 -0.1227  0.2337
 5066W        W47978  23.342  13.451  31.370 -0.3612  0.1019 -0.3112
 5067W        W47979  23.940  15.036  30.552  0.1420  0.1761 -0.0324
 5068W        W47980  23.765  12.771  31.097  0.2247 -0.2763  0.2344
 5069W        W47981  22.940  13.687  31.116 -0.3699 -0.0940 -0.0746
 5070W        W47982  26.361  12.714   0.080  0.1182 -0.1868  0.2394
 5071W        W47983  23.206  13.060  31.714 -0.1649 -0.0496 -0.0063
 5072W        W47984  22.871  10.224  31.146  0.0747  0.0462 -0.0895
 5073W        W47985  22.952  16.110  31.250 -0.3517  0.0670  0.1888
 5074W        W47986  22.543  11.858  31.224 -0.1450 -0.0977 -0.1318
 5075W        W47987  23.108  12.865   0.783 -0.0987  0.7601  0.2154
 5076W        W47988  23.919  10.849   0.550 -0.2725  0.0417  0.1438
 5077W        W47989  24.104  12.883  30.162  0.1535 -0.3505  0.1485
 5078W        W47990  24.661  13.751   0.279  0.1073  0.0381  0.2297
 5079W        W47991  21.239  14.469  30.519 -0.2499 -0.2460  0.0710
 5080W        W47992  24.365  13.975   0.667  0.0915 -0.2463  0.1841
 5081W        W47993  25.029  12.728  31.322  0.4136 -0.0547  0.0389
 5082W        W47994  24.270  11.483  31.414  0.0342  0.0862  0.0529
 5083W        W47995  23.537  13.429  29.800  0.2043 -0.1176 -0.1882
 5084W        W47996  24.979  11.734  30.325 -0.2302  0.3460 -0.1148
 5085W        W47997  24.511  11.546  29.559  0.0378  0.1137 -0.0533
 5086W        W47998  22.747  12.231  30.883 -0.2004 -0.0112 -0.2918
 5087W        W47999  22.947  14.777  30.674 -0.1340  0.1544  0.0414
 5088W        W48000  24.515  13.847  30.810  0.0162  0.1266  0.2738
 5089W        W48001  23.221  12.756   0.102 -0.0255  0.0810 -0.0892
 5090W        W48002  22.766  12.221  31.823 -0.0167  0.0929  0.0101
 5091W        W48003  22.913  12.449  30.430 -0.2361 -0.0959 -0.0790
 5092W        W48004  22.586  12.367  31.367 -0.3058  0.1069 -0.0673
 5093W        W48005  22.306  11.990  31.675  0.0841  0.0937  0.1132
 5094W        W48006  24.196  14.933   0.473 -0.1948  0.0232 -0.1737
 5095W        W48007  25.278  12.838   0.199  0.0823  0.2241 -0.0174
 5096W        W48008  25.635  13.324  31.291  0.2417 -0.3863 -0.1315
 5097W        W48009  23.460  16.331  19.311 -0.0547  0.1298 -0.0313
 5098W        W48010  23.238  16.777  16.095 -0.5744 -0.1142 -0.0960
 5099W        W48011  24.998  16.785  16.758 -0.1283  0.0373 -0.0764
 5100W        W48012  24.347  15.630  17.044 -0.0209 -0.0524 -0.2031
 5101W        W48013  21.934  14.565  17.129 -0.2144 -0.0906 -0.0734
 5102W        W48014  22.962  19.344  17.814  0.0768 -0.1556 -0.2406
 5103W        W48015  23.260  13.227  16.952 -0.0674 -0.1121  0.0232
 5104W        W48016  24.651  17.118  18.225 -0.3813  0.0879 -0.2272
 5105W        W48017  25.894  17.936  17.442 -0.2998 -0.0722 -0.4157
 5106W        W48018  23.586  18.117  15.848 -0.3176 -0.4211  0.0124
 5107W        W48019  24.569  15.996  18.343  0.0556  0.2555  0.0686
 5108W        W48020  24.358  17.340  17.803  0.0105  0.0071 -0.1773
 5109W        W48021  22.898  15.076  15.622 -0.0159 -0.3511 -0.0721
 5110W        W48022  21.092  15.725  15.966 -0.0103 -0.2207  0.0195
 5111W        W48023  26.749  15.214  18.284 -0.2571  0.1724 -0.3101
 5112W        W48024  22.647  16.353  14.894 -0.2094 -0.1307 -0.1079
 5113W        W48025  23.167  17.063  17.080  0.3010  0.0516  0.1544
 5114W        W48026  23.808  15.694  16.513 -0.1543 -0.0069  0.0934
 5115W        W48027  24.045  18.846  19.077  0.1726 -0.1635 -0.3706
 5116W        W48028  23.552  15.965  19.684  0.1327  0.0678  0.1874
 5117W        W48029  24.274  15.096  19.524  0.0712  0.3939 -0.1427
 5118W        W48030  23.265  17.654  16.335 -0.2293  0.0098  0.0688
 5119W        W48031  22.362  15.188  16.372  0.2019 -0.3030 -0.1889
 5120W        W48032  22.022  15.308  16.738  0.0280 -0.0073  0.0587
 5121W        W48033  23.424  17.174  17.604 -0.2324  0.1543 -0.0821
 5122W        W48034  24.942  14.535  18.494  0.0606 -0.0947 -0.5115
 5123W        W48035  24.186  14.700  17.812 -0.1528 -0.1596 -0.1568
 5124W        W48036  24.350  16.838  18.670 -0.1828 -0.0637 -0.0091
 5125W        W48037  25.007  17.914  18.306 -0.1724  0.0563 -0.2227
 5126W        W48038  25.243  16.521  20.724 -0.2093 -0.1722 -0.1165
 5127W        W48039  22.175  17.707  16.110  0.0873 -0.0571 -0.3260
 5128W        W48040  22.529  18.047  16.292  0.1679 -0.3670 -0.1360
 5129W        W48041  25.151  17.461  18.485  0.2153 -0.3488 -0.1871
 5130W        W48042  25.324  17.658  18.033 -0.3365 -0.0446 -0.0038
 5131W        W48043  26.065  16.917  18.980 -0.0238 -0.0585  0.1435
 5132W        W48044  22.742  18.951  18.607 -0.1064 -0.0905 -0.0987
 5133W        W48045  21.463  18.336  15.177 -0.0865 -0.0874  0.3075
 5134W        W48046  24.115  17.373  19.328  0.0559 -0.1888 -0.1491
 5135W        W48047  24.628  17.431  18.586  0.0728  0.2269  0.3522
 5136W        W48048  23.020  16.432  18.493 -0.0130  0.3560  0.3138
 5137W        W48049  23.865  16.724  17.101 -0.1055 -0.1186  0.1849
 5138W        W48050  23.200  19.012  16.304  0.3057  0.0822 -0.1439
 5139W        W48051  23.633  17.185  17.152 -0.0927 -0.0714 -0.0193
 5140W        W48052  22.851  17.631  19.118  0.1788  0.0510  0.0063
 5141W        W48053  22.092  17.788  18.780  0.2113 -0.1256  0.3058
 5142W        W48054  24.270  14.649  19.270  0.0486  0.0121  0.1753
 5143W        W48055  23.518  18.894  15.940  0.0359 -0.0384  0.3852
 5144W        W48056  24.500  16.933  17.393  0.1248  0.2266  0.0087
 5145W        W48057  24.011  14.793  17.005 -0.0198 -0.0640  0.0389
 5146W        W48058  24.684  14.727  16.703  0.0152 -0.1232  0.1687
 5147W        W48059  22.868  16.036  18.260  0.0111 -0.0470  0.2576
 5148W        W48060  23.806  20.150  16.927 -0.3308 -0.3424  0.2514
 5149W        W48061  23.386  15.437  18.820 -0.3225  0.0409 -0.2712
 5150W        W48062  25.664  16.544  19.706 -0.0603 -0.1721  0.1092
 5151W        W48063  24.703  15.551  17.431  0.1435  0.2515 -0.0474
 5152W        W48064  25.154  16.176  18.926 -0.2237 -0.1148 -0.0441
 5153W        W48065  23.418  20.609  16.389  0.0783  0.1516  0.2291
 5154W        W48066  22.850  17.460  17.037 -0.0891  0.0803  0.0285
 5155W        W48067  24.912  17.815  15.992 -0.1672 -0.1838  0.1708
 5156W        W48068  25.085  15.344  18.555  0.1209 -0.1661  0.0105
 5157W        W48069  24.016  17.893  17.900 -0.1924 -0.0728 -0.0547
 5158W        W48070  22.688  17.021  16.796  0.1391 -0.0016  0.0196
 5159W        W48071  21.272  16.680  16.278  0.0737  0.0286  0.0537
 5160W        W48072  23.759  15.452  19.255 -0.0886  0.1242 -0.1224
 5161W        W48073  23.568  14.868  14.904 -0.0418  0.2333 -0.2080
 5162W        W48074  24.542  17.244  19.076  0.3592 -0.0979  0.4425
 5163W        W48075  22.087  17.396  18.470 -0.1875  0.0107 -0.0205
 5164W        W48076  24.360  14.450  17.403  0.0216  0.2772 -0.0859
 5165W        W48077  23.448  16.732  17.438  0.0665  0.1031  0.2763
 5166W        W48078  26.242  16.376  19.832  0.1700  0.2435  0.0479
 5167W        W48079  24.645  16.604  15.907  0.1641 -0.1883  0.0157
 5168W        W48080  24.987  14.434  17.964 -0.0197 -0.0020 -0.1604
 5169W        W48081  24.647  14.110  17.523  0.3329 -0.1700  0.3802
 5170W        W48082  22.525  17.221  15.389  0.1836  0.0701  0.0899
 5171W        W48083  24.429  16.735  16.879  0.3619  0.1333 -0.0421
 5172W        W48084  25.601  17.646  18.943 -0.0082 -0.0010 -0.1614
 5173W        W48085  25.384  16.021  16.340  0.1854 -0.2262  0.0745
 5174W        W48086  22.816  19.444  17.275 -0.1053  0.3254 -0.1001
 5175W        W48087  24.325  15.576  19.204  0.2610  0.1006  0.1100
 5176W        W48088  24.961  16.456  19.368  0.2139 -0.2614 -0.0546
 5177W        W48089  22.297  17.928  15.524  0.4798 -0.1384  0.1435
 5178W        W48090  23.952  17.605  17.082  0.3105  0.1269 -0.0217
 5179W        W48091  21.843  15.812  15.160 -0.2400  0.4635 -0.0008
 5180W        W48092  22.666  15.261  16.857  0.0741 -0.0535  0.1557
 5181W        W48093  22.552  17.969  18.884 -0.1055  0.1371 -0.0929
 5182W        W48094  25.159  15.634  16.508 -0.0088  0.0222 -0.2346
 5183W        W48095  23.372  14.547  18.604  0.0756  0.0671 -0.1459
 5184W        W48096  25.396  15.200  17.930  0.0706  0.0049 -0.2044
 5185W        W48097  23.446  15.485  16.860 -0.0407 -0.0079 -0.1130
 5186W        W48098  25.374  19.084  18.223 -0.2654 -0.0725  0.1929
 5187W        W48099  23.861  15.361  17.100 -0.0633  0.0050  0.1546
 5188W        W48100  24.899  17.363  15.721 -0.1167  0.1686 -0.2620
 5189W        W48101  23.057  16.136  16.798 -0.0908  0.0747  0.1266
 5190W        W48102  21.841  15.015  17.168  0.0359 -0.0470 -0.0004
 5191W        W48103  23.591  15.586  20.090  0.1299 -0.0723 -0.2573
 5192W        W48104  23.245  14.538  17.112 -0.0208 -0.1828  0.1233
 5193W        W48105  25.914  15.256  18.087  0.0986 -0.2852  0.1007
 5194W        W48106  22.287  15.990  15.511 -0.0410 -0.1613 -0.0886
 5195W        W48107  24.695  14.173  16.909 -0.1836 -0.2341 -0.0695
 5196W        W48108  24.395  15.124  16.882  0.1883  0.0774  0.2802
 5197W        W48109  23.488  17.137  16.368  0.1256  0.1371 -0.3268
 5198W        W48110  24.708  13.946  18.901 -0.3594  0.2019 -0.1464
 5199W        W48111  24.217  18.601  16.997 -0.0946 -0.0375 -0.2191
 5200W        W48112  25.119  18.249  18.743 -0.0748  0.1867 -0.2370
 5201W        W48113  23.621  19.001  18.449 -0.1236  0.0182  0.0855
 5202W        W48114  24.428  15.702  19.711  0.2356 -0.0868  0.3577
 5203W        W48115  23.259  15.335  17.313  0.2347  0.2496 -0.1833
 5204W        W48116  22.672  18.110  15.790  0.0616 -0.0564 -0.0340
 5205W        W48117  23.822  18.467  18.380  0.0832  0.0849 -0.0033
 5206W        W48118  23.889  14.945  17.487 -0.0928 -0.1597  0.0770
 5207W        W48119  25.469  17.914  18.486 -0.0008  0.0700  0.1924
 5208W        W48120  24.801  16.401  17.164 -0.0928  0.0311  0.2975
 5209W        W48121  22.247  17.490  17.957  0.5321 -0.4334 -0.1957
 5210W        W48122  24.556  14.719  18.192 -0.1022 -0.0799 -0.2880
 5211W        W48123  25.441  16.182  19.374 -0.0209 -0.2635 -0.0358
 5212W        W48124  24.400  15.700  17.870 -0.1044  0.0298 -0.0023
 5213W        W48125  22.706  14.799  15.186 -0.0716 -0.1569  0.0780
 5214W        W48126  23.419  19.510  17.691  0.0372  0.1442 -0.1645
 5215W        W48127  23.145  17.838  15.729 -0.2733  0.0611  0.1413
 5216W        W48128  22.586  16.607  16.517  0.1326 -0.1379  0.0271
 5217W        W48129  23.066  17.339  16.639 -0.1231  0.1042  0.0913
 5218W        W48130  23.412  14.325  17.612  0.1995 -0.0352  0.3596
 5219W        W48131  23.690  15.020  19.935 -0.4525  0.0989  0.0965
 5220W        W48132  24.759  15.008  19.148 -0.1556 -0.2600  0.0204
 5221W        W48133  23.971  17.284  16.150  0.1330  0.0451 -0.4047
 5222W        W48134  24.123  17.277  18.807 -0.0155  0.1418  0.0160
 5223W        W48135  24.032  15.389  16.172  0.2456 -0.1151  0.0892
 5224W        W48136  25.246  15.135  16.306 -0.1474  0.1188 -0.2905
 5225W        W48137  24.124  16.787  19.070  0.0150 -0.2139 -0.1072
 5226W        W48138  25.318  16.462  16.587  0.2338  0.1149  0.3762
 5227W        W48139  24.197  15.434  15.712 -0.0348 -0.0133 -0.2510
 5228W        W48140  24.881  14.076  15.378  0.1500  0.3112 -0.2591
 5229W        W48141  23.017  18.058  19.164  0.2404 -0.2318 -0.0518
 5230W        W48142  24.279  17.623  18.281  0.0238  0.2816  0.1105
 5231W        W48143  24.050  18.037  18.428  0.0002  0.1315 -0.0215
 5232W        W48144  24.565  14.908  15.668  0.0828  0.0648 -0.0128
 5233W        W48145  23.946  19.433  17.467 -0.2045  0.0775  0.1828
 5234W        W48146  24.067  17.117  18.240  0.4646  0.0844  0.1843
 5235W        W48147  23.661  16.616  20.288  0.0926  0.1233 -0.1776
 5236W        W48148  25.654  17.394  18.373  0.2261  0.0327 -0.0354
 5237W        W48149  23.736  13.884  16.671  0.1927 -0.1980  0.3246
 5238W        W48150  23.924  16.166  16.233 -0.0731 -0.0177  0.2150
 5239W        W48151  24.466  15.233  17.983 -0.3918  0.2532  0.1743
 5240W        W48152  21.750  18.099  14.840 -0.0776  0.1577 -0.1813
 5241W        W48153  24.419  15.252  18.876  0.0642 -0.1450 -0.0325
 5242W        W48154  24.164  13.704  18.756 -0.3570 -0.0161  0.0563
 5243W        W48155  22.523  14.399  19.855 -0.1800 -0.0830  0.1943
 5244W        W48156  24.727  16.411  18.780  0.1309 -0.2194  0.2123
 5245W        W48157  24.231  16.011  16.654 -0.0512  0.0079  0.0843
 5246W        W48158  25.286  15.702  17.717  0.3152 -0.0329  0.2233
 5247W        W48159  23.024  15.591  15.252 -0.4899 -0.1694 -0.1189
 5248W        W48160  24.242  15.059  18.460  0.0035 -0.0871  0.0987
 5249W        W48161  22.023  16.870  17.729 -0.0043  0.0038  0.0886
 5250W        W48162  23.040  18.128  17.952 -0.3477 -0.0341  0.0192
 5251W        W48163  24.869  17.678  19.915 -0.0802  0.0666 -0.0487
 5252W        W48164  23.241  16.263  17.549  0.2864 -0.1578  0.1394
 5253W        W48165  23.520  14.398  19.093  0.1431  0.0750 -0.0070
 5254W        W48166  23.317  15.344  15.592  0.2218  0.0136 -0.0086
 5255W        W48167  23.106  17.271  15.967 -0.2588  0.0145 -0.1709
 5256W        W48168  22.784  17.673  14.776  0.1820  0.1550 -0.1367
 5257W        W48169  22.828  16.318  17.870  0.2712 -0.4488 -0.2622
 5258W        W48170  24.681  16.542  17.691  0.1156  0.2358  0.1162
 5259W        W48171  22.421  19.384  17.637  0.5894  0.0235 -0.0194
 5260W        W48172  25.139  15.244  19.301  0.1542 -0.1124  0.5710
 5261W        W48173  22.307  17.133  16.429 -0.4908  0.0631  0.0714
 5262W        W48174  25.847  14.816  17.961 -0.0321 -0.0867  0.0798
 5263W        W48175  22.644  20.128  17.553  0.1094  0.1551  0.2794
 5264W        W48176  22.918  16.225  16.282 -0.2393 -0.2688 -0.0535
 5265W        W48177  21.916  16.047  16.115  0.1052 -0.1164 -0.2085
 5266W        W48178  23.877  14.349  17.309  0.0819  0.1975 -0.1290
 5267W        W48179  25.436  16.261  17.078 -0.0388  0.1810 -0.0531
 5268W        W48180  24.073  14.576  18.402 -0.0660 -0.0751 -0.0515
 5269W        W48181  24.631  13.988  19.367 -0.1458  0.0638 -0.0107
 5270W        W48182  22.447  17.106  17.350  0.1999 -0.1132 -0.0678
 5271W        W48183  24.010  17.051  17.572  0.0304 -0.2094 -0.1585
 5272W        W48184  24.907  15.247  15.920 -0.0879  0.0267  0.0143
 5273W        W48185  24.615  17.989  17.380  0.2118  0.1214  0.2327
 5274W        W48186  21.842  17.582  19.680 -0.0005  0.3953 -0.3147
 5275W        W48187  22.704  15.554  15.740  0.4228  0.0694  0.1077
 5276W        W48188  26.854  14.264  20.303 -0.0542 -0.1403  0.0575
 5277W        W48189  23.284  16.491  17.046  0.2109 -0.1488 -0.2359
 5278W        W48190  22.368  18.627  16.269  0.0417 -0.0278  0.1208
 5279W        W48191  23.491  18.782  17.551  0.0657 -0.1798  0.0041
 5280W        W48192  23.917  15.839  17.011 -0.2508 -0.2676  0.3043
 5281W        W48193  22.689  19.064  16.236  0.1686 -0.2943 -0.0187
 5282W        W48194  23.754  17.667  18.546  0.0015 -0.0446 -0.4459
 5283W        W48195  24.229  16.305  19.100  0.4466 -0.2662  0.2473
 5284W        W48196  23.933  13.445  17.419 -0.2880 -0.1468 -0.0438
 5285W        W48197  22.437  14.305  17.175  0.1187 -0.2140 -0.3406
 5286W        W48198  24.081  15.420  17.648  0.0145  0.2793  0.0154
 5287W        W48199  24.922  16.925  18.600  0.3536  0.5233  0.1924
 5288W        W48200  24.244  16.336  18.548 -0.0833 -0.0876 -0.1991
 5289W        W48201  22.908  17.773  19.898 -0.2920 -0.0147  0.2700
 5290W        W48202  22.426  13.940  17.588  0.1141 -0.1476 -0.0024
 5291W        W48203  25.238  17.810  16.406  0.3503  0.0677  0.3314
 5292W        W48204  24.156  15.808  20.213  0.0565 -0.0155 -0.1726
 5293W        W48205  21.485  15.453  15.427 -0.0417  0.2489 -0.0408
 5294W        W48206  22.794  16.536  16.940  0.1554 -0.2762  0.1375
 5295W        W48207  23.957  17.057  16.662  0.0350  0.0744  0.2000
 5296W        W48208  24.120  15.668  18.340 -0.0688  0.3604 -0.0827
 5297W        W48209  22.896  16.796  17.515 -0.0967  0.1035 -0.0051
 5298W        W48210  22.775  16.620  16.002 -0.1348  0.2324 -0.0439
 5299W        W48211  22.001  17.857  17.284 -0.2123  0.1631 -0.0121
 5300W        W48212  26.105  13.869  16.222  0.1167 -0.1533 -0.2753
 5301W        W48213  24.519  17.891  15.715  0.0541 -0.0672  0.0540
 5302W        W48214  24.410  14.724  18.796 -0.3183 -0.1144  0.2216
 5303W        W48215  25.223  14.930  20.564  0.0858 -0.2656  0.2155
 5304W        W48216  24.568  17.194  16.588  0.0971 -0.0366  0.0247
 5305W        W48217  25.108  13.965  19.483  0.2995 -0.2938  0.3477
 5306W        W48218  23.770  14.940  19.415 -0.1115  0.1044 -0.1933
 5307W        W48219  24.190  15.977  17.469  0.1381  0.0490 -0.3967
 5308W        W48220  22.489  16.446  18.227  0.2706 -0.1843  0.1378
 5309W        W48221  24.000  18.778  19.564 -0.4783  0.2162  0.0572
 5310W        W48222  22.400  17.985  20.224 -0.1758 -0.1534  0.1278
 5311W        W48223  23.125  15.058  16.883 -0.0231  0.0157  0.0430
 5312W        W48224  23.561  14.951  17.063 -0.1389 -0.1251 -0.3006
 5313W        W48225  23.076  15.749  17.531  0.5652  0.2306 -0.6018
 5314W        W48226  24.584  16.584  18.307  0.0983  0.0448  0.5584
 5315W        W48227  24.210  16.522  17.512 -0.0619 -0.1699  0.3627
 5316W        W48228  24.912  15.521  17.932 -0.2602  0.1239 -0.0067
 5317W        W48229  23.679  16.938  17.940  0.3181  0.0771  0.1625
 5318W        W48230  24.760  15.271  16.536  0.4131  0.1327 -0.2890
 5319W        W48231  23.638  15.902  17.619  0.0249 -0.0958  0.0502
 5320W        W48232  23.347  17.539  17.225 -0.0352 -0.1979  0.0604
 5321W        W48233  23.857  15.189  18.055 -0.0099 -0.0485  0.1225
 5322W        W48234  25.246  15.485  17.261  0.3150  0.1080 -0.4840
 5323W        W48235  22.477  14.143  18.349 -0.0492 -0.1688 -0.2330
 5324W        W48236  24.664  16.065  19.161 -0.0693  0.1515  0.2721
 5325W        W48237  23.479  16.594  18.455 -0.1622  0.0796  0.3389
 5326W        W48238  23.644  16.877  19.088 -0.2693 -0.1546  0.1122
 5327W        W48239  22.082  14.829  17.672 -0.1850  0.0956 -0.3607
 5328W        W48240  23.791  18.697  20.143  0.4312  0.0156  0.0687
 5329W        W48241  26.058  14.887  16.180  0.1042  0.2105 -0.1041
 5330W        W48242  24.728  15.008  18.569  0.4007 -0.0411 -0.1519
 5331W        W48243  24.396  15.083  17.429  0.1889 -0.1109 -0.0935
 5332W        W48244  24.178  14.617  15.950 -0.2950 -0.1570  0.1195
 5333W        W48245  22.748  15.357  17.380  0.0189  0.2495  0.1337
 5334W        W48246  24.934  17.815  20.564 -0.2355 -0.0146 -0.0732
 5335W        W48247  23.146  15.752  15.860 -0.0818  0.2175 -0.1170
 5336W        W48248  24.630  15.500  18.371  0.0590 -0.0447  0.1386
 5337W        W48249  22.803  17.689  16.054  0.1147  0.0149  0.2074
 5338W        W48250  25.034  14.970  18.178  0.1905 -0.1578  0.0488
 5339W        W48251  24.650  15.881  16.450  0.2330  0.2644 -0.0772
 5340W        W48252  23.480  15.502  17.807 -0.1098 -0.0210  0.1630
 5341W        W48253  22.333  18.807  18.868  0.0758  0.5455 -0.4907
 5342W        W48254  23.672  16.415  15.765 -0.0939  0.0678 -0.1471
 5343W        W48255  24.063  16.496  16.672 -0.1184 -0.1675  0.0867
 5344W        W48256  23.573  18.132  18.659  0.2270  0.0772 -0.0707
 5345W        W48257  23.786  16.971  20.638 -0.1715  0.1605 -0.1730
 5346W        W48258  22.384  12.989  16.543 -0.2689 -0.0717 -0.0144
 5347W        W48259  26.450  15.143  19.754 -0.2374 -0.2233 -0.2575
 5348W        W48260  21.138  17.298  15.787 -0.1326  0.3529  0.3262
 5349W        W48261  25.483  13.727  19.277  0.0999  0.2223 -0.0666
 5350W        W48262  22.392  18.347  18.615 -0.0146  0.2527 -0.0423
 5351W        W48263  21.450  16.333  16.679 -0.0700 -0.0936  0.4904
 5352W        W48264  23.023  17.875  17.296 -0.5829 -0.1334 -0.3816
 5353W        W48265  25.158  13.961  18.436  0.1865  0.0874 -0.1022
 5354W        W48266  24.281  15.512  16.572  0.2698 -0.3825  0.4548
 5355W        W48267  23.678  16.287  17.288  0.0302  0.0442  0.1531
 5356W        W48268  26.260  16.459  20.378 -0.0664  0.1433  0.0384
 5357W        W48269  24.812  16.782  19.792 -0.1694 -0.2612  0.0970
 5358W        W48270  22.947  14.915  17.377  0.0763  0.0142  0.1860
 5359W        W48271  25.265  16.727  18.975  0.1823  0.0734 -0.1507
 5360W        W48272  25.224  17.184  18.118 -0.0141  0.0670  0.0088
 5361W        W48273  23.943  16.571  18.195 -0.3421  0.3174 -0.3469
 5362W        W48274  23.043  15.566  18.245  0.2118 -0.0250 -0.0594
 5363W        W48275  23.591  15.897  18.996 -0.2172 -0.0172 -0.1178
 5364W        W48276  24.355  16.778  16.377 -0.0534  0.0520  0.3292
 5365W        W48277  22.711  14.484  16.422 -0.1240 -0.3325 -0.0057
 5366W        W48278  23.741  15.748  15.993  0.2423  0.0720 -0.0815
 5367W        W48279  22.451  18.486  19.388 -0.3249 -0.0118 -0.2722
 5368W        W48280  23.780  16.949  18.600 -0.2000 -0.4993  0.1877
 5369W        W48281  22.587  17.558  16.540 -0.0701  0.1031  0.1623
 5370W        W48282  25.650  17.264  17.871  0.4147  0.3572  0.0542
 5371W        W48283  25.588  16.595  18.129  0.0041 -0.2850 -0.0174
 5372W        W48284  24.103  17.567  16.545 -0.0339 -0.0432 -0.1699
 5373W        W48285  22.675  16.074  15.904  0.1920 -0.0065 -0.0493
 5374W        W48286  23.449  18.600  17.028 -0.2702 -0.3852  0.1686
 5375W        W48287  22.448  16.181  16.351 -0.1392 -0.0316 -0.0611
 5376W        W48288  23.515  18.145  15.330  0.1833 -0.0928  0.1130
 5377W        W48289  22.164  17.891  16.722 -0.0193 -0.2913  0.0508
 5378W        W48290  25.370  17.652  20.243  0.1455 -0.0720  0.2461
 5379W        W48291  23.948  13.764  15.364 -0.2087 -0.0410  0.1042
 5380W        W48292  25.179  14.291  16.987  0.0854  0.2415  0.1385
 5381W        W48293  25.657  14.095  16.167  0.2128 -0.1665 -0.1250
 5382W        W48294  25.119  16.478  18.482 -0.0651  0.0226  0.0974
 5383W        W48295  24.165  16.277  17.087 -0.0345  0.0297 -0.1102
 5384W        W48296  23.814  15.130  15.208  0.0517 -0.1936 -0.2716
 5385W        W48297  22.608  15.409  19.159 -0.1196  0.2167  0.0217
 5386W        W48298  24.970  12.228  18.143 -0.0492 -0.1091  0.2206
 5387W        W48299  22.773  17.676  17.856  0.0035 -0.0975  0.1118
 5388W        W48300  24.541  18.369  16.679 -0.0813 -0.1037  0.3786
 5389W        W48301  23.399  16.361  16.426 -0.2890  0.0093  0.3028
 5390W        W48302  23.652  16.187  16.803 -0.3013 -0.1804 -0.0728
 5391W        W48303  26.075  14.450  19.797  0.0855  0.1450 -0.1357
 5392W        W48304  24.453  17.149  16.038 -0.2325  0.2148 -0.0299
 5393W        W48305  23.887  14.554  18.838 -0.1019 -0.1897  0.2591
 5394W        W48306  23.715  19.944  17.790 -0.4042  0.1680  0.0489
 5395W        W48307  23.600  17.983  18.176 -0.0619  0.2324  0.1104
 5396W        W48308  24.193  17.118  17.094  0.0079  0.0224  0.0668
 5397W        W48309  22.964  15.635  17.042  0.4113  0.1094  0.0356
 5398W        W48310  25.378  15.650  18.209 -0.0196 -0.1481  0.1045
 5399W        W48311  22.211  15.315  17.597 -0.2309 -0.1033 -0.3370
 5400W        W48312  26.590  13.846  20.312  0.0762  0.1511  0.1153
 5401W        W48313  23.550  16.824  16.768 -0.0834 -0.3600  0.0563
 5402W        W48314  25.662  13.136  16.279 -0.2466  0.0158 -0.0755
 5403W        W48315  25.069  15.950  18.471  0.3779 -0.0436 -0.3870
 5404W        W48316  23.637  16.365  17.821 -0.1882 -0.2167  0.0656
 5405W        W48317  24.360  15.018  16.216  0.4446 -0.1151  0.2938
 5406W        W48318  26.167  15.856  19.733 -0.5074  0.2862 -0.1073
 5407W        W48319  23.983  16.062  15.701 -0.1901  0.2397  0.2548
 5408W        W48320  25.573  19.090  19.568  0.0998 -0.1792 -0.0942
 5409W        W48321  21.711  14.825  16.768 -0.0881  0.0835 -0.2244
 5410W        W48322  24.438  14.447  16.351  0.0475  0.0108 -0.0415
 5411W        W48323  22.572  17.962  18.323  0.2031 -0.1226  0.3590
 5412W        W48324  23.092  15.324  19.217 -0.4000 -0.2366 -0.0911
 5413W        W48325  24.831  17.544  18.065  0.2587  0.0654 -0.0320
 5414W        W48326  22.930  14.214  17.465  0.0019 -0.1415 -0.2281
 5415W        W48327  25.478  16.928  16.735  0.3754  0.1305 -0.2363
 5416W        W48328  25.214  15.700  19.171 -0.1268  0.3512 -0.0153
 5417W        W48329  24.786  17.207  16.996  0.1173  0.0327  0.3005
 5418W        W48330  25.142  16.361  17.561 -0.2825 -0.0987 -0.1666
 5419W        W48331  25.532  17.655  16.783  0.2654 -0.0325  0.1606
 5420W        W48332  20.831  15.748  17.070  0.0982 -0.1890 -0.0570
 5421W        W48333  25.370  18.113  20.454 -0.0780  0.0704 -0.1315
 5422W        W48334  25.632  16.539  18.660  0.2520 -0.1983  0.4096
 5423W        W48335  23.777  13.920  15.993  0.3062 -0.4242 -0.0845
 5424W        W48336  23.822  16.471  18.815 -0.2541 -0.1325  0.3267
 5425W        W48337  22.005  17.100  15.979  0.1812  0.2391 -0.0273
 5426W        W48338  25.422  15.679  18.698  0.2138 -0.0161 -0.2740
 5427W        W48339  24.728  14.800  19.583 -0.1908 -0.1900 -0.0542
 5428W        W48340  23.132  17.789  15.229 -0.1544  0.2781  0.0765
 5429W        W48341  25.838  14.385  18.280 -0.0519 -0.4235 -0.0388
 5430W        W48342  25.053  17.775  17.620 -0.3631 -0.1835  0.0540
 5431W        W48343  23.063  18.546  19.330 -0.1845  0.0427  0.1563
 5432W        W48344  23.800  16.806  16.232  0.1680 -0.1393 -0.0220
 5433W        W48345  23.691  16.131  18.491 -0.0098  0.0364  0.1541
 5434W        W48346  23.597  17.572  16.773 -0.2615  0.0649 -0.0298
 5435W        W48347  22.782  18.615  15.904  0.0039  0.1120 -0.1822
 5436W        W48348  24.719  17.459  17.468  0.1564  0.4936 -0.1692
 5437W        W48349  23.347  15.777  16.343  0.0360  0.1448  0.2094
 5438W        W48350  24.842  17.006  17.738 -0.2226 -0.0385 -0.0051
 5439W        W48351  23.229  14.892  18.124 -0.1067 -0.1160  0.0790
 5440W        W48352  25.118  13.815  16.764  0.1883 -0.1339  0.3158
 5441W        W48353  24.793  13.916  15.935  0.0992  0.0941 -0.2473
 5442W        W48354  22.927  16.105  20.133 -0.0539  0.0967 -0.1578
 5443W        W48355  23.222  16.480  15.651  0.0773  0.1152  0.1017
 5444W        W48356  23.414  16.119  16.018 -0.0351  0.3277 -0.1224
 5445W        W48357  23.623  17.994  17.592  0.1402  0.0283  0.0012
 5446W        W48358  23.135  13.206  19.904 -0.1567 -0.2450 -0.0137
 5447W        W48359  23.944  15.461  18.761 -0.2718  0.0661 -0.3649
 5448W        W48360  23.118  16.735  16.581 -0.1948  0.2107  0.0943
 5449W        W48361  22.256  14.884  16.794 -0.0651 -0.0313  0.1412
 5450W        W48362  23.748  17.750  16.293  0.3721 -0.1506 -0.3076
 5451W        W48363  22.706  14.710  16.936 -0.0602 -0.0485 -0.1377
 5452W        W48364  22.961  15.307  16.090  0.2295 -0.0841 -0.0211
 5453W        W48365  24.476  17.603  17.050  0.0465 -0.0647  0.1053
 5454W        W48366  24.615  18.638  17.757  0.0342  0.1049 -0.0513
 5455W        W48367  22.306  14.304  16.721 -0.2683 -0.2295 -0.0006
 5456W        W48368  23.608  18.741  19.240  0.2311  0.0764  0.0585
 5457W        W48369  22.417  16.831  15.629  0.0286 -0.2565  0.0345
 5458W        W48370  23.321  17.245  19.167 -0.1345 -0.2790 -0.1062
 5459W        W48371  23.483  14.870  18.958  0.2947 -0.0743  0.2632
 5460W        W48372  21.772  14.956  15.611 -0.1924  0.0460 -0.0073
 5461W        W48373  25.049  16.724  18.083  0.0454  0.2657  0.2450
 5462W        W48374  25.005  17.712  17.132 -0.0581 -0.1983  0.0024
 5463W        W48375  24.471  18.308  16.053  0.0396  0.1045  0.1120
 5464W        W48376  23.482  18.148  19.214 -0.0993  0.0457  0.1142
 5465W        W48377  24.351  16.231  17.952 -0.0964 -0.1586  0.1202
 5466W        W48378  23.244  13.795  17.656 -0.2549  0.0948  0.0724
 5467W        W48379  24.920  16.224  18.042 -0.1988  0.2651  0.0258
 5468W        W48380  23.686  17.465  18.083  0.1216  0.2186  0.0269
 5469W        W48381  25.065  16.056  16.758  0.3386 -0.1995 -0.0138
 5470W        W48382  24.352  14.200  18.516  0.0371 -0.4172  0.1477
 5471W        W48383  23.983  17.811  15.866 -0.0130  0.2351 -0.1305
 5472W        W48384  22.858  15.417  18.689  0.0637 -0.0504 -0.0650
 5473W        W48385  21.575  16.919  16.771  0.0600  0.2933  0.0206
 5474W        W48386  25.400  16.867  17.652 -0.1468 -0.0234 -0.0520
 5475W        W48387  23.526  15.400  18.329 -0.0443 -0.3159  0.3205
 5476W        W48388  23.603  14.649  16.520 -0.0444  0.0424  0.2532
 5477W        W48389  24.134  17.870  17.428  0.1249 -0.1681 -0.0029
 5478W        W48390  23.859  15.950  18.037 -0.0428  0.2539  0.1128
 5479W        W48391  23.699  14.541  15.765 -0.0721  0.1878 -0.0242
 5480W        W48392  23.968  15.930  19.347  0.1191  0.2387 -0.2169
 5481W        W48393  23.024  18.262  16.924  0.1516  0.1065 -0.0618
 5482W        W48394  24.607  17.373  20.805 -0.2413  0.2260  0.0374
 5483W        W48395  23.386  14.895  17.584  0.2582 -0.2336  0.2845
 5484W        W48396  24.964  14.365  16.539 -0.1434  0.2712  0.0704
 5485W        W48397  25.913  18.381  18.439  0.1935  0.0421  0.1677
 5486W        W48398  25.244  18.352  20.004 -0.0625  0.1325  0.0535
 5487W        W48399  24.494  17.814  17.786 -0.0665 -0.0693 -0.1998
 5488W        W48400  24.657  16.016  17.640  0.0592  0.2353 -0.1387
 5489W        W48401  21.143  13.724  17.192  0.2944  0.0637  0.1091
 5490W        W48402  21.859  18.146  16.397 -0.3279 -0.1065 -0.0090
 5491W        W48403  22.986  17.651  18.276 -0.5241  0.1630 -0.1163
 5492W        W48404  23.197  15.836  19.258  0.3149 -0.1311  0.1010
 5493W        W48405  22.197  14.341  17.965  0.1014 -0.3979  0.0064
 5494W        W48406  23.913  13.477  16.211 -0.0337  0.1591 -0.2871
 5495W        W48407  23.394  19.233  17.275  0.1232 -0.1337  0.2011
 5496W        W48408  24.374  16.846  17.894  0.1222 -0.2316 -0.0714
 5497W        W48409  23.457  16.417  22.442  0.3646  0.2859 -0.0807
 5498W        W48410  22.227  15.259  20.480  0.1869  0.2728  0.0672
 5499W        W48411  25.265  15.264  20.065  0.4838 -0.4180 -0.3355
 5500W        W48412  24.908  15.909  20.668 -0.1637 -0.1447 -0.0075
 5501W        W48413  22.618  14.969  20.474  0.2515  0.2485  0.1281
 5502W        W48414  25.231  18.637  21.254  0.0469 -0.1618 -0.2152
 5503W        W48415  22.158  14.739  23.657  0.0868 -0.1970 -0.1924
 5504W        W48416  24.469  17.358  22.217 -0.0684 -0.1853  0.1398
 5505W        W48417  25.194  18.102  22.051  0.1815  0.1394  0.0859
 5506W        W48418  24.647  17.280  19.610  0.0861 -0.0514 -0.2197
 5507W        W48419  23.436  15.294  23.428 -0.1004  0.3030 -0.1243
 5508W        W48420  23.851  16.791  21.099 -0.1026  0.0422  0.0459
 5509W        W48421  23.827  14.959  20.702 -0.0116  0.0520  0.0404
 5510W        W48422  24.438  13.163  21.809  0.0832 -0.3205  0.3252
 5511W        W48423  23.934  15.594  23.589  0.0126  0.1911 -0.0592
 5512W        W48424  22.790  15.380  19.650  0.0518  0.1732 -0.2308
 5513W        W48425  23.397  14.676  20.791 -0.2430  0.0366  0.4451
 5514W        W48426  23.784  15.049  21.866  0.0362  0.0840 -0.2012
 5515W        W48427  24.161  17.674  20.977  0.1160  0.0358 -0.0156
 5516W        W48428  23.332  15.380  21.856 -0.1779  0.4077 -0.0724
 5517W        W48429  22.721  14.810  23.142  0.1601  0.2736  0.0328
 5518W        W48430  23.641  19.117  18.919  0.3563  0.0221 -0.2102
 5519W        W48431  22.663  13.953  19.653  0.0509  0.0940 -0.0431
 5520W        W48432  22.701  15.475  20.210  0.2548  0.0717 -0.0110
 5521W        W48433  23.642  16.009  21.001  0.2499  0.1383  0.1236
 5522W        W48434  24.033  14.222  22.619  0.0127 -0.2126 -0.2616
 5523W        W48435  25.333  15.393  21.503  0.1098  0.0285 -0.2033
 5524W        W48436  23.351  17.786  20.821 -0.1215  0.3484 -0.0167
 5525W        W48437  23.182  17.371  21.149  0.2005  0.1310 -0.0516
 5526W        W48438  24.415  14.947  23.251  0.2346  0.5646 -0.3430
 5527W        W48439  24.091  18.356  20.942 -0.1286  0.0517  0.0166
 5528W        W48440  22.742  19.054  21.016 -0.1053  0.4304  0.2970
 5529W        W48441  23.795  17.629  20.139 -0.3072  0.1575 -0.0401
 5530W        W48442  25.207  17.304  19.871 -0.1991  0.3630  0.1121
 5531W        W48443  24.944  16.902  23.013 -0.0862 -0.0806  0.1109
 5532W        W48444  24.243  18.100  21.962  0.0704 -0.1615  0.0113
 5533W        W48445  22.304  18.865  20.759  0.1482 -0.0996  0.0775
 5534W        W48446  24.051  17.683  22.238 -0.0390  0.1438  0.0545
 5535W        W48447  22.587  17.040  22.759  0.0334  0.1286 -0.1232
 5536W        W48448  25.251  16.125  23.574  0.1119 -0.1308 -0.2863
 5537W        W48449  24.026  15.879  21.307 -0.0436 -0.1356  0.0786
 5538W        W48450  23.898  18.307  19.444 -0.0905 -0.0034 -0.1363
 5539W        W48451  24.484  17.604  21.337 -0.1363  0.2736  0.1071
 5540W        W48452  22.842  15.540  22.587 -0.2836  0.0245 -0.1467
 5541W        W48453  23.269  18.382  20.770 -0.0830 -0.0797  0.0238
 5542W        W48454  26.053  14.504  23.629  0.2817 -0.3012  0.0198
 5543W        W48455  23.897  17.841  19.310 -0.0985 -0.0210  0.3817
 5544W        W48456  24.504  16.287  19.577  0.0943 -0.2005  0.2960
 5545W        W48457  23.119  16.104  20.675 -0.0492  0.0465  0.2769
 5546W        W48458  25.548  14.785  20.156 -0.2187 -0.1986  0.0591
 5547W        W48459  24.592  14.117  22.009 -0.1984  0.0050 -0.4559
 5548W        W48460  22.459  19.129  20.293  0.2544  0.0203 -0.0584
 5549W        W48461  23.895  15.249  20.297 -0.0525 -0.3613  0.6294
 5550W        W48462  25.333  17.834  22.953 -0.0622  0.2908  0.2032
 5551W        W48463  24.926  15.351  20.909  0.0471  0.3356  0.1339
 5552W        W48464  24.517  15.147  22.709  0.0636 -0.3599  0.1272
 5553W        W48465  22.256  17.083  21.121  0.1656  0.1518  0.2607
 5554W        W48466  23.041  15.223  20.537 -0.1277  0.0367 -0.0815
 5555W        W48467  25.919  16.138  20.216 -0.0979 -0.1500  0.1260
 5556W        W48468  25.362  16.979  20.605  0.2455  0.1296 -0.1704
 5557W        W48469  25.016  17.323  20.408  0.1375 -0.1726  0.2783
 5558W        W48470  22.668  17.305  20.909  0.0327 -0.3104 -0.0216
 5559W        W48471  22.241  15.599  22.672  0.2786 -0.1902  0.2210
 5560W        W48472  22.795  16.121  23.133  0.5561  0.0087 -0.1158
 5561W        W48473  23.324  13.183  18.385  0.2250 -0.0555 -0.3246
 5562W        W48474  25.156  17.541  23.420 -0.0524 -0.1173  0.2522
 5563W        W48475  22.615  17.540  23.451 -0.1223  0.1469  0.0206
 5564W        W48476  26.016  14.991  22.603  0.1277 -0.1369  0.0109
 5565W        W48477  22.819  15.245  22.021  0.1785 -0.3924  0.1222
 5566W        W48478  24.592  17.942  23.504 -0.0808 -0.0383  0.3371
 5567W        W48479  23.253  16.768  19.338  0.1238  0.1840 -0.2426
 5568W        W48480  24.503  14.398  20.186 -0.0897  0.0602  0.1561
 5569W        W48481  24.265  13.662  21.828  0.0664  0.2814 -0.1854
 5570W        W48482  23.677  17.514  19.695 -0.4118 -0.0828  0.0574
 5571W        W48483  24.702  14.859  22.356 -0.0072  0.0934  0.0716
 5572W        W48484  26.318  16.465  23.040  0.0666  0.2512 -0.3524
 5573W        W48485  24.975  16.658  21.183 -0.0300  0.2014 -0.2734
 5574W        W48486  22.673  17.500  22.484 -0.0816 -0.0412 -0.1593
 5575W        W48487  22.948  15.569  23.694  0.6906  0.1917 -0.1012
 5576W        W48488  24.669  16.844  23.482  0.0620  0.3051 -0.1313
 5577W        W48489  22.168  19.742  18.929  0.0612  0.1047 -0.1361
 5578W        W48490  22.612  15.634  21.199 -0.0128  0.1991 -0.2784
 5579W        W48491  23.525  16.474  19.822  0.0572  0.1038  0.2474
 5580W        W48492  22.799  13.984  21.092 -0.0322 -0.0947  0.0999
 5581W        W48493  24.023  17.423  20.523 -0.2482 -0.2709 -0.0662
 5582W        W48494  24.567  14.975  20.521  0.0677 -0.4907 -0.0028
 5583W        W48495  23.278  14.070  21.332 -0.3565  0.1137  0.0638
 5584W        W48496  25.923  15.111  20.399  0.2281 -0.0274  0.0631
 5585W        W48497  24.375  15.170  20.948 -0.3103  0.1120  0.0469
 5586W        W48498  26.115  19.709  21.123  0.1746 -0.2796  0.1672
 5587W        W48499  24.700  17.144  20.081 -0.1949  0.0529 -0.2599
 5588W        W48500  24.870  16.917  20.704  0.1483  0.0273 -0.3601
 5589W        W48501  21.524  13.422  22.397 -0.3584  0.3925  0.2818
 5590W        W48502  22.157  14.503  22.239 -0.0788 -0.3025 -0.1136
 5591W        W48503  21.979  13.935  21.613  0.0995  0.1581  0.0711
 5592W        W48504  22.061  15.915  22.229  0.1388 -0.1285  0.0926
 5593W        W48505  26.056  16.146  23.445  0.1178  0.1765 -0.5629
 5594W        W48506  23.911  15.616  19.703 -0.3728  0.2054  0.4119
 5595W        W48507  23.744  15.746  22.659 -0.0317  0.1743  0.1477
 5596W        W48508  24.213  15.070  22.218 -0.2614 -0.0471  0.3827
 5597W        W48509  23.739  17.541  19.008  0.1406  0.0592  0.0106
 5598W        W48510  24.539  13.100  22.364  0.0702  0.1656  0.0369
 5599W        W48511  24.329  17.948  20.647 -0.1968 -0.1858  0.2016
 5600W        W48512  25.876  17.629  24.015 -0.2580 -0.1625  0.0450
 5601W        W48513  25.078  18.500  22.586 -0.0203 -0.0048 -0.3292
 5602W        W48514  22.541  14.847  22.282 -0.0649 -0.0729 -0.0030
 5603W        W48515  23.431  15.612  21.267  0.0203 -0.0069  0.3756
 5604W        W48516  23.273  17.499  20.092 -0.2000 -0.0515 -0.2705
 5605W        W48517  24.795  16.795  21.641  0.3477  0.0906  0.0559
 5606W        W48518  25.654  14.208  20.373 -0.1446  0.0054  0.0494
 5607W        W48519  23.704  18.524  21.483 -0.2614  0.0573  0.0021
 5608W        W48520  24.636  17.152  21.263  0.0899  0.0289 -0.1189
 5609W        W48521  23.288  15.338  22.373 -0.4204  0.0380 -0.4037
 5610W        W48522  24.994  14.303  22.777  0.1689 -0.1351  0.0203
 5611W        W48523  24.862  15.404  23.907 -0.0922  0.0736  0.1775
 5612W        W48524  24.146  15.505  22.513  0.3385  0.0966 -0.0845
 5613W        W48525  24.884  14.554  20.507 -0.0788  0.0480 -0.1761
 5614W        W48526  26.472  18.193  21.513  0.0031  0.1291  0.1801
 5615W        W48527  23.138  18.843  21.196 -0.0832  0.2416  0.1024
 5616W        W48528  22.511  14.924  19.965 -0.0040  0.2073 -0.4271
 5617W        W48529  24.209  17.134  20.921  0.0569  0.0746  0.2580
 5618W        W48530  24.401  14.656  21.941  0.0510 -0.0111  0.2045
 5619W        W48531  20.983  16.606  22.752  0.1198  0.1340 -0.2461
 5620W        W48532  24.648  14.656  22.863 -0.1712 -0.3611  0.0083
 5621W        W48533  23.448  15.002  20.339 -0.2634 -0.0672  0.1635
 5622W        W48534  22.940  16.622  21.959  0.1712  0.0895  0.1351
 5623W        W48535  24.255  12.997  20.696  0.0007 -0.0598  0.1106
 5624W        W48536  25.197  15.566  19.675  0.0082 -0.1182 -0.1994
 5625W        W48537  23.991  16.576  22.103  0.0079 -0.0349  0.3033
 5626W        W48538  24.067  16.179  21.787  0.0327  0.2281  0.0865
 5627W        W48539  23.995  14.260  19.434  0.2196 -0.3028 -0.1186
 5628W        W48540  25.003  16.254  20.355  0.2014 -0.1227 -0.0589
 5629W        W48541  21.240  16.792  20.481  0.1123  0.3365  0.0406
 5630W        W48542  24.478  15.506  23.497 -0.2786 -0.3904 -0.0544
 5631W        W48543  24.691  15.929  23.550 -0.0817 -0.0990  0.2845
 5632W        W48544  22.671  16.645  20.214  0.2947  0.1574 -0.1046
 5633W        W48545  27.087  16.621  20.744  0.0796  0.2548  0.2115
 5634W        W48546  22.469  16.036  22.757 -0.2038 -0.1924 -0.1323
 5635W        W48547  24.699  17.372  23.518  0.0569 -0.0576 -0.0543
 5636W        W48548  25.305  16.737  21.553  0.1319 -0.1853  0.1032
 5637W        W48549  23.614  13.957  20.273  0.0855 -0.2147 -0.1251
 5638W        W48550  23.809  17.029  19.557 -0.2427 -0.0902  0.0446
 5639W        W48551  24.634  15.559  22.342  0.0866  0.1635 -0.0743
 5640W        W48552  21.604  17.230  18.535  0.0947 -0.2022  0.3913
 5641W        W48553  24.015  13.675  23.616  0.1102  0.0945 -0.2288
 5642W        W48554  25.325  14.292  21.327  0.2422  0.2362 -0.0278
 5643W        W48555  23.253  14.228  23.432 -0.1017 -0.1738 -0.2928
 5644W        W48556  25.031  14.005  24.274 -0.0404 -0.1817  0.1688
 5645W        W48557  24.430  16.084  20.502 -0.0623  0.2512 -0.1669
 5646W        W48558  24.867  15.115  23.159 -0.1289  0.2217  0.2670
 5647W        W48559  23.296  16.960  20.787  0.0343  0.2400  0.0223
 5648W        W48560  23.756  14.597  21.550 -0.0748 -0.3435 -0.0133
 5649W        W48561  24.135  15.462  23.133 -0.0071  0.1903  0.2051
 5650W        W48562  22.670  16.777  21.127 -0.0356 -0.1523 -0.0083
 5651W        W48563  26.288  17.537  23.642  0.1648  0.2663  0.1373
 5652W        W48564  23.000  15.738  22.122 -0.0226 -0.1055 -0.1157
 5653W        W48565  23.540  14.193  22.376  0.4116  0.1687  0.1402
 5654W        W48566  24.361  15.365  20.097 -0.1167 -0.0028 -0.1506
 5655W        W48567  22.934  18.240  20.330 -0.1537  0.2426  0.0146
 5656W        W48568  23.351  16.967  20.292  0.1564  0.1936  0.0415
 5657W        W48569  23.762  13.754  22.550  0.1986  0.2632  0.1797
 5658W        W48570  23.300  17.750  21.517  0.0820 -0.0549  0.3456
 5659W        W48571  23.809  17.118  20.161  0.2194  0.2732 -0.1441
 5660W        W48572  25.567  17.359  22.998  0.1712 -0.0905 -0.0281
 5661W        W48573  22.578  18.357  19.907  0.0401 -0.0065  0.0454
 5662W        W48574  25.786  14.032  22.081  0.1676 -0.0760 -0.1161
 5663W        W48575  21.580  17.399  20.090  0.1286 -0.2270 -0.2556
 5664W        W48576  23.205  16.224  22.040 -0.2967 -0.0133  0.2892
 5665W        W48577  22.726  14.520  20.339 -0.2644  0.0301  0.0120
 5666W        W48578  25.324  14.828  21.541 -0.0101  0.0456 -0.1202
 5667W        W48579  23.541  17.447  20.549  0.0574  0.0913 -0.0355
 5668W        W48580  23.705  13.588  20.607  0.3385  0.0203 -0.1117
 5669W        W48581  24.984  14.300  21.691  0.0191 -0.1739  0.1699
 5670W        W48582  21.584  16.010  20.672 -0.0328 -0.0254  0.0722
 5671W        W48583  23.531  16.626  23.068  0.1821  0.2300  0.0577
 5672W        W48584  26.123  13.604  20.267 -0.0314 -0.0645  0.0735
 5673W        W48585  23.920  15.961  24.127 -0.0426 -0.3402 -0.1187
 5674W        W48586  23.402  15.277  22.918  0.1067 -0.1600  0.3366
 5675W        W48587  22.093  14.725  18.869 -0.3001 -0.4020  0.2779
 5676W        W48588  24.905  15.575  23.226  0.0703  0.1935 -0.0569
 5677W        W48589  24.459  15.716  21.078 -0.0860 -0.3530  0.0661
 5678W        W48590  22.484  18.534  20.353 -0.0025 -0.0899 -0.0234
 5679W        W48591  24.544  18.197  21.099  0.1752 -0.0546 -0.1019
 5680W        W48592  22.057  17.094  18.913  0.0032 -0.0096 -0.1266
 5681W        W48593  23.528  16.391  21.293  0.0654 -0.0142 -0.1749
 5682W        W48594  24.094  14.556  23.539 -0.0670  0.2224  0.1637
 5683W        W48595  25.923  16.625  23.251  0.1003 -0.1513 -0.3103
 5684W        W48596  23.216  14.634  21.336  0.3032  0.1008 -0.1941
 5685W        W48597  23.795  15.379  21.027  0.0624 -0.2709 -0.2547
 5686W        W48598  23.804  15.411  22.182  0.0597  0.2767  0.1873
 5687W        W48599  25.732  17.682  22.616  0.0372  0.0533  0.1815
 5688W        W48600  23.640  14.646  22.785  0.0214 -0.0450  0.1115
 5689W        W48601  22.905  17.967  23.523  0.2514 -0.1377 -0.0209
 5690W        W48602  23.907  14.492  22.207  0.0606  0.0004  0.2093
 5691W        W48603  26.909  18.472  19.424  0.2932 -0.1059  0.1662
 5692W        W48604  23.282  16.262  23.857  0.1086  0.1426  0.0230
 5693W        W48605  22.681  17.076  22.110  0.1011  0.1571 -0.2883
 5694W        W48606  22.572  15.871  19.872  0.2827 -0.1900 -0.2822
 5695W        W48607  22.896  17.199  20.113 -0.1426  0.1706  0.1768
 5696W        W48608  23.077  14.861  21.933  0.1705  0.3289  0.2536
 5697W        W48609  22.151  17.651  20.596 -0.0947  0.0236 -0.1025
 5698W        W48610  23.363  17.961  20.297 -0.1252 -0.2449  0.2879
 5699W        W48611  23.097  16.317  21.576 -0.2423 -0.1438 -0.1461
 5700W        W48612  26.114  15.376  19.496 -0.0734 -0.1823 -0.0013
 5701W        W48613  25.684  17.462  19.885  0.1193  0.1719  0.0674
 5702W        W48614  23.310  14.366  21.850  0.3581 -0.0611 -0.1489
 5703W        W48615  26.664  14.482  23.780  0.1138  0.2603  0.2247
 5704W        W48616  24.613  16.756  19.162 -0.1840 -0.1707 -0.1973
 5705W        W48617  25.425  15.338  24.898  0.2066 -0.1135  0.0890
 5706W        W48618  24.733  13.429  21.447  0.2627  0.1148 -0.1053
 5707W        W48619  24.148  16.472  20.733 -0.2040 -0.2620 -0.3610
 5708W        W48620  23.718  13.509  23.002  0.1118 -0.0121  0.0300
 5709W        W48621  24.066  17.089  21.949 -0.2538  0.1115  0.1566
 5710W        W48622  22.433  16.865  23.226  0.2613 -0.0530 -0.0705
 5711W        W48623  25.240  14.428  20.858 -0.0738 -0.2044 -0.1293
 5712W        W48624  23.753  13.503  19.089 -0.1851  0.0147  0.3750
 5713W        W48625  23.079  15.812  21.597  0.0769 -0.0120 -0.2029
 5714W        W48626  23.974  16.308  22.583 -0.0896  0.1635 -0.0687
 5715W        W48627  24.571  16.262  20.068 -0.1169  0.1167  0.0319
 5716W        W48628  26.287  14.830  22.205  0.0588  0.1603 -0.0605
 5717W        W48629  23.521  15.812  21.946 -0.1710  0.0504 -0.0241
 5718W        W48630  25.306  15.672  20.979  0.1235 -0.2159  0.3722
 5719W        W48631  22.933  17.361  18.714  0.1367  0.0574  0.0370
 5720W        W48632  23.411  16.740  22.102 -0.3027  0.0169  0.2712
 5721W        W48633  22.156  14.686  22.796 -0.4431 -0.0795  0.2660
 5722W        W48634  24.315  16.820  22.511  0.1077  0.0468  0.1325
 5723W        W48635  23.199  14.396  22.613  0.2040 -0.1466  0.0513
 5724W        W48636  24.186  14.745  22.629  0.0006 -0.1517 -0.0632
 5725W        W48637  25.796  15.010  23.753  0.1604 -0.3308  0.3846
 5726W        W48638  23.563  16.198  22.866  0.1538 -0.2625  0.1615
 5727W        W48639  24.344  14.240  20.571  0.0979  0.0049 -0.0770
 5728W        W48640  24.363  17.899  23.035  0.2994  0.0160  0.2144
 5729W        W48641  26.335  14.504  18.247 -0.1117 -0.1358 -0.0893
 5730W        W48642  25.554  14.986  25.195  0.0185 -0.0783 -0.1492
 5731W        W48643  24.963  14.682  21.175 -0.1705  0.1407  0.1209
 5732W        W48644  24.780  15.683  18.794  0.1589  0.1154 -0.2111
 5733W        W48645  22.369  15.352  22.246  0.0752  0.0475  0.1396
 5734W        W48646  23.865  15.916  24.662 -0.2336  0.3080  0.1717
 5735W        W48647  23.476  15.345  19.621 -0.1576 -0.2964  0.0303
 5736W        W48648  24.381  15.114  23.813  0.1940 -0.1362 -0.1572
 5737W        W48649  24.460  18.774  19.306 -0.1907 -0.0293 -0.3547
 5738W        W48650  25.573  18.230  21.162 -0.2004 -0.1630 -0.0341
 5739W        W48651  23.549  15.572  20.678  0.0109 -0.1351  0.4039
 5740W        W48652  22.545  15.709  21.669  0.0149  0.0117 -0.0537
 5741W        W48653  22.280  16.772  20.583  0.3166 -0.1175 -0.0679
 5742W        W48654  22.520  14.721  19.145  0.1276  0.0480  0.1812
 5743W        W48655  23.412  16.098  20.238 -0.1435 -0.0822  0.0575
 5744W        W48656  25.495  16.847  23.012 -0.0354  0.1068 -0.1169
 5745W        W48657  25.705  15.765  23.719  0.1205  0.0773 -0.2202
 5746W        W48658  23.000  14.717  18.985 -0.2644 -0.1421 -0.1748
 5747W        W48659  24.737  16.990  24.120  0.0057  0.1398  0.0820
 5748W        W48660  22.916  18.053  20.756 -0.0275 -0.1931 -0.1188
 5749W        W48661  23.827  15.588  21.634  0.1565  0.1384  0.0452
 5750W        W48662  22.349  17.482  21.991  0.2847  0.0282  0.3580
 5751W        W48663  22.055  15.586  21.824 -0.0269 -0.1313  0.0585
 5752W        W48664  23.750  16.857  21.614 -0.3025  0.2342 -0.0417
 5753W        W48665  23.549  14.018  22.898  0.3052  0.0538 -0.2349
 5754W        W48666  24.702  15.447  21.855 -0.0696 -0.1749  0.3013
 5755W        W48667  25.346  15.283  23.156 -0.1902 -0.0648  0.2170
 5756W        W48668  25.215  15.792  24.756 -0.1413  0.5227 -0.0408
 5757W        W48669  23.533  18.631  22.974 -0.0695 -0.0522  0.0814
 5758W        W48670  22.563  15.836  22.304 -0.1252 -0.0368  0.1450
 5759W        W48671  24.649  17.303  21.739 -0.0265 -0.1317 -0.1147
 5760W        W48672  25.508  16.515  20.293  0.1259 -0.2780  0.0341
 5761W        W48673  23.586  18.104  19.772  0.3421 -0.0768 -0.0497
 5762W        W48674  21.844  15.488  22.266  0.3390 -0.0335  0.1298
 5763W        W48675  23.863  15.979  22.231  0.0005  0.1853  0.1395
 5764W        W48676  24.542  16.417  21.870 -0.3191 -0.0164  0.1144
 5765W        W48677  23.266  14.163  19.771  0.2301 -0.0954 -0.1141
 5766W        W48678  23.131  18.158  19.647 -0.1129 -0.0490  0.2049
 5767W        W48679  22.830  16.995  21.655 -0.1206  0.0800 -0.0619
 5768W        W48680  23.548  15.139  21.396  0.2901 -0.3160  0.1563
 5769W        W48681  21.442  17.872  19.607 -0.1042  0.0654 -0.0236
 5770W        W48682  24.353  16.919  19.592 -0.0428 -0.1197  0.2925
 5771W        W48683  25.153  15.791  20.191 -0.0949  0.1612 -0.0307
 5772W        W48684  23.764  17.548  21.362 -0.1486  0.1155 -0.2485
 5773W        W48685  23.422  13.922  19.300  0.0817 -0.0763  0.0146
 5774W        W48686  24.618  18.673  21.869 -0.1419  0.0418  0.0365
 5775W        W48687  21.847  18.663  18.109 -0.2921 -0.0850 -0.0290
 5776W        W48688  24.336  18.474  20.429 -0.1987  0.2012 -0.0733
 5777W        W48689  24.470  18.069  20.084  0.1415 -0.1580  0.0176
 5778W        W48690  24.819  18.216  24.199  0.2074 -0.0805 -0.1647
 5779W        W48691  25.733  14.750  20.734 -0.1219  0.0995 -0.1324
 5780W        W48692  24.899  16.015  23.089  0.2250 -0.0479  0.1558
 5781W        W48693  24.597  16.564  20.502  0.0541 -0.1127  0.1120
 5782W        W48694  24.559  17.778  24.372  0.1874 -0.0029 -0.0787
 5783W        W48695  24.767  15.148  21.355 -0.1138 -0.1405  0.1380
 5784W        W48696  24.437  14.908  19.961  0.1913 -0.1082  0.0169
 5785W        W48697  25.608  14.675  22.769  0.2153  0.2091 -0.2083
 5786W        W48698  26.127  13.523  22.699  0.1158  0.3067 -0.2101
 5787W        W48699  21.272  18.167  21.575  0.4008  0.0536  0.2432
 5788W        W48700  25.234  17.108  21.070  0.1395 -0.2513 -0.0412
 5789W        W48701  22.964  16.027  21.126 -0.2879  0.0501  0.1301
 5790W        W48702  23.115  15.164  19.992  0.0659  0.0023  0.0622
 5791W        W48703  25.294  14.925  23.535 -0.2672  0.0956  0.1506
 5792W        W48704  24.529  17.582  20.306  0.2980  0.0878 -0.0591
 5793W        W48705  25.655  14.617  21.229  0.2899  0.3481 -0.0470
 5794W        W48706  25.390  19.103  20.636  0.2039 -0.1293  0.2318
 5795W        W48707  23.780  18.517  21.979  0.4956 -0.1930 -0.2194
 5796W        W48708  25.538  16.363  21.789 -0.3003 -0.0772  0.2384
 5797W        W48709  22.973  14.075  20.605  0.1427 -0.0444 -0.1659
 5798W        W48710  25.628  15.186  19.570  0.0909 -0.5150  0.0957
 5799W        W48711  22.736  15.029  23.782  0.2154  0.0020  0.3106
 5800W        W48712  25.550  14.496  23.750  0.0074  0.4732 -0.0687
 5801W        W48713  23.230  16.794  21.313 -0.1135 -0.0687  0.1559
 5802W        W48714  24.985  15.003  22.697 -0.2080 -0.0445  0.0533
 5803W        W48715  23.357  15.924  22.402  0.1801 -0.0927 -0.0278
 5804W        W48716  22.372  15.185  21.655  0.0863 -0.1080  0.1962
 5805W        W48717  24.670  15.755  20.144  0.3308 -0.1058 -0.0674
 5806W        W48718  24.199  16.609  23.719  0.3839  0.0942 -0.1493
 5807W        W48719  24.655  16.292  20.945  0.2362 -0.2187  0.0803
 5808W        W48720  24.194  16.852  24.155 -0.2470  0.1015  0.0714
 5809W        W48721  22.952  14.561  19.860  0.1064  0.0853  0.0791
 5810W        W48722  24.278  14.180  19.071 -0.6635  0.3863  0.0727
 5811W        W48723  22.850  17.724  20.381 -0.0843 -0.1642  0.0869
 5812W        W48724  23.562  16.526  20.787  0.0468 -0.0331 -0.0862
 5813W        W48725  25.575  17.550  24.380  0.2738  0.0727  0.0498
 5814W        W48726  22.408  13.360  18.670  0.0712  0.0679 -0.2689
 5815W        W48727  25.672  16.646  19.222  0.0002 -0.0613 -0.0141
 5816W        W48728  24.521  16.382  23.306 -0.2186 -0.1947  0.3156
 5817W        W48729  22.406  19.793  19.478 -0.0814 -0.0575  0.1653
 5818W        W48730  24.527  15.562  20.634 -0.3895 -0.0088 -0.1722
 5819W        W48731  24.859  17.709  22.125  0.2899 -0.2772 -0.0470
 5820W        W48732  22.507  14.559  21.823 -0.1409 -0.1071  0.1756
 5821W        W48733  24.630  16.881  22.081  0.1588 -0.0198  0.2201
 5822W        W48734  25.129  16.723  22.052 -0.1172 -0.1609 -0.3648
 5823W        W48735  23.030  16.626  19.924  0.4583  0.1555 -0.0602
 5824W        W48736  23.050  15.237  21.475 -0.0067 -0.2531  0.0463
 5825W        W48737  22.878  17.793  21.184 -0.0256 -0.1722  0.2452
 5826W        W48738  24.166  14.487  23.074 -0.1324 -0.0577 -0.4477
 5827W        W48739  24.797  14.860  23.630  0.1089 -0.0949  0.0409
 5828W        W48740  24.247  17.721  18.987 -0.1930  0.0448  0.0956
 5829W        W48741  25.386  12.941  23.677  0.2411  0.0753  0.0301
 5830W        W48742  23.811  16.996  22.404 -0.0937  0.1321  0.3085
 5831W        W48743  22.893  16.713  22.459  0.4503  0.0699  0.2066
 5832W        W48744  23.951  16.518  19.463  0.3061 -0.0372 -0.2731
 5833W        W48745  23.977  15.982  23.229 -0.0264 -0.2351  0.2982
 5834W        W48746  25.012  17.747  21.650 -0.0104  0.1186 -0.0244
 5835W        W48747  25.379  18.461  20.779 -0.1582  0.0120  0.2444
 5836W        W48748  25.464  18.547  21.654  0.3948 -0.2698 -0.1118
 5837W        W48749  23.845  16.154  20.449 -0.0513  0.3973 -0.0487
 5838W        W48750  25.153  16.484  23.243 -0.0350 -0.3365 -0.1161
 5839W        W48751  24.082  14.761  20.304 -0.3263 -0.1240 -0.0186
 5840W        W48752  26.776  14.772  22.148  0.1381 -0.0632 -0.0099
 5841W        W48753  25.123  13.548  21.184  0.1249 -0.0830 -0.1429
 5842W        W48754  22.484  15.078  22.763  0.1854  0.0580 -0.0191
 5843W        W48755  22.834  16.907  20.636 -0.0586 -0.2026  0.0940
 5844W        W48756  22.744  19.387  19.561  0.3755 -0.1439  0.1633
 5845W        W48757  24.057  15.756  20.687 -0.1276 -0.1937  0.1135
 5846W        W48758  24.342  14.138  23.521  0.0486  0.0429  0.0222
 5847W        W48759  21.841  16.539  22.191 -0.3316 -0.0918 -0.2918
 5848W        W48760  22.297  14.143  21.967  0.4445 -0.1120 -0.1558
 5849W        W48761  22.806  14.964  19.470 -0.3321  0.0048  0.0022
 5850W        W48762  24.121  16.134  19.851 -0.2386 -0.3159 -0.1986
 5851W        W48763  23.631  13.668  21.115  0.0408  0.2029 -0.1889
 5852W        W48764  23.757  13.175  22.555  0.3117  0.3564  0.1386
 5853W        W48765  24.401  17.083  20.482 -0.0934 -0.0344  0.0504
 5854W        W48766  25.231  16.237  21.142  0.2092  0.0906 -0.2967
 5855W        W48767  23.262  15.142  20.976 -0.1953  0.1119 -0.0900
 5856W        W48768  26.345  18.418  24.184  0.1816 -0.1918 -0.0328
 5857W        W48769  23.286  14.860  19.606 -0.4658 -0.2963  0.0917
 5858W        W48770  23.698  16.252  23.593  0.0494  0.0711  0.1235
 5859W        W48771  23.625  14.702  23.256 -0.1545 -0.0937 -0.1690
 5860W        W48772  21.897  14.385  19.197 -0.1455 -0.0085  0.1148
 5861W        W48773  23.755  15.081  22.544  0.0241 -0.1312  0.2482
 5862W        W48774  25.105  18.234  21.554  0.0822 -0.0620 -0.0318
 5863W        W48775  24.716  19.393  20.753 -0.2388 -0.0095 -0.2623
 5864W        W48776  24.398  16.730  22.974  0.2770 -0.0574  0.0629
 5865W        W48777  21.787  17.028  22.640  0.1166  0.0683 -0.0016
 5866W        W48778  22.577  15.692  23.097 -0.0478  0.1394 -0.0913
 5867W        W48779  25.484  16.042  19.892  0.1829 -0.1006 -0.0384
 5868W        W48780  22.935  16.675  23.109  0.0143  0.1383 -0.0855
 5869W        W48781  24.062  16.391  21.319  0.2161 -0.1190  0.3842
 5870W        W48782  25.224  13.793  22.747  0.2968  0.1962 -0.2003
 5871W        W48783  24.953  15.363  20.427 -0.0435 -0.1530  0.0280
 5872W        W48784  22.738  14.439  23.679 -0.1024 -0.2125 -0.0532
 5873W        W48785  22.324  16.993  23.742 -0.1659 -0.1419  0.0514
 5874W        W48786  25.125  16.992  23.743 -0.0402  0.0103  0.1844
 5875W        W48787  23.821  12.983  21.007  0.0339  0.0728  0.2758
 5876W        W48788  23.984  15.042  18.953  0.2931  0.4736 -0.1924
 5877W        W48789  24.140  16.518  20.177 -0.0837 -0.6058 -0.2703
 5878W        W48790  23.152  15.654  20.323 -0.0076  0.0955  0.1930
 5879W        W48791  24.849  13.946  20.007  0.3273  0.2201  0.0108
 5880W        W48792  23.885  16.886  22.860  0.2028 -0.1811  0.1841
 5881W        W48793  24.116  17.224  21.483  0.3823  0.0676  0.0790
 5882W        W48794  23.577  17.308  22.746 -0.3247  0.0854  0.3295
 5883W        W48795  22.586  16.409  20.780 -0.0838  0.1938  0.0009
 5884W        W48796  25.885  15.506  20.843  0.1379 -0.0291  0.0087
 5885W        W48797  24.656  19.325  23.100  0.0297 -0.2452  0.1040
 5886W        W48798  25.836  17.866  23.130  0.1892 -0.1609  0.2541
 5887W        W48799  25.028  19.028  20.954 -0.0261  0.0775  0.0007
 5888W        W48800  24.807  15.984  22.555 -0.1909  0.1764 -0.0853
 5889W        W48801  23.528  13.084  23.516 -0.0365  0.0123 -0.3668
 5890W        W48802  24.221  16.690  21.639 -0.0209  0.1057  0.1437
 5891W        W48803  24.221  15.278  21.588 -0.1126 -0.0102 -0.2460
 5892W        W48804  25.609  15.671  24.403 -0.0813 -0.0286 -0.1369
 5893W        W48805  24.064  14.738  21.119  0.2583  0.3900  0.3367
 5894W        W48806  23.853  14.479  20.599  0.1752 -0.2408 -0.1688
 5895W        W48807  23.081  17.382  20.637  0.2528 -0.2029 -0.0630
 5896W        W48808  25.271  17.005  24.258  0.1966 -0.0542  0.2963
 5897W        W48809  23.564  17.784  26.521 -0.0258  0.0274  0.3946
 5898W        W48810  22.263  15.146  23.885  0.1499 -0.3024 -0.0926
 5899W        W48811  25.494  14.289  24.293  0.0622 -0.1749  0.1745
 5900W        W48812  24.242  15.969  24.998 -0.1664 -0.2413  0.1579
 5901W        W48813  21.776  14.247  23.092  0.0557 -0.3843  0.0563
 5902W        W48814  24.421  18.382  24.477  0.1121 -0.0546 -0.0160
 5903W        W48815  21.494  14.971  26.686  0.3178  0.2282 -0.2478
 5904W        W48816  25.259  16.105  26.045 -0.1587  0.2310  0.0690
 5905W        W48817  25.054  18.161  25.800  0.0682 -0.0036 -0.0202
 5906W        W48818  25.131  16.618  24.613  0.3540  0.0563 -0.2677
 5907W        W48819  23.776  14.855  27.406  0.1590 -0.0268 -0.0889
 5908W        W48820  22.578  15.754  27.331  0.1032 -0.1170  0.2991
 5909W        W48821  22.533  14.690  24.041  0.2506  0.2070  0.0127
 5910W        W48822  21.731  14.365  24.908 -0.2943 -0.1633 -0.1262
 5911W        W48823  24.889  15.783  26.515 -0.4184 -0.1063 -0.2161
 5912W        W48824  23.003  15.622  25.445  0.0445 -0.2615 -0.0912
 5913W        W48825  22.645  15.549  25.766  0.0976 -0.0512 -0.2263
 5914W        W48826  23.559  14.989  23.991  0.2969  0.4551 -0.1290
 5915W        W48827  24.727  17.960  25.446 -0.1426 -0.1389  0.0385
 5916W        W48828  23.332  14.809  26.102  0.1276  0.2035  0.1362
 5917W        W48829  23.809  15.361  27.278  0.1750  0.1216  0.1926
 5918W        W48830  22.828  17.025  23.494 -0.2725  0.2475 -0.1609
 5919W        W48831  21.342  16.924  22.472 -0.0590  0.0138 -0.2443
 5920W        W48832  22.129  15.828  24.727 -0.3468 -0.0739  0.2778
 5921W        W48833  23.028  15.273  24.578  0.0862  0.2491  0.1147
 5922W        W48834  24.754  16.213  26.188 -0.1637 -0.0809 -0.2774
 5923W        W48835  24.426  17.410  26.184 -0.1451 -0.1491  0.0133
 5924W        W48836  24.668  17.851  24.934 -0.0167 -0.0246  0.4232
 5925W        W48837  25.207  18.263  25.313  0.1902 -0.2685 -0.2565
 5926W        W48838  25.116  14.797  27.265  0.3020 -0.4513  0.0788
 5927W        W48839  20.670  16.340  22.439 -0.2636  0.0842 -0.0206
 5928W        W48840  21.566  17.482  23.371  0.0278 -0.1779 -0.0784
 5929W        W48841  23.463  17.442  24.162  0.0588 -0.0057  0.0028
 5930W        W48842  26.569  19.118  25.176 -0.0128  0.1777  0.1525
 5931W        W48843  25.182  18.769  26.987  0.1098 -0.0619 -0.3312
 5932W        W48844  24.101  17.045  26.781  0.2111 -0.0764  0.0021
 5933W        W48845  21.968  16.115  23.524 -0.1901  0.1539 -0.2650
 5934W        W48846  22.877  18.989  26.828 -0.0152 -0.3511 -0.1538
 5935W        W48847  22.416  17.593  26.829 -0.1276  0.1753 -0.0320
 5936W        W48848  23.144  15.772  26.274  0.3807  0.1300  0.0494
 5937W        W48849  24.003  14.767  24.010  0.2490 -0.0933  0.1019
 5938W        W48850  23.135  16.356  22.799  0.0710 -0.2856 -0.2323
 5939W        W48851  25.038  17.195  25.881 -0.1848  0.1648 -0.0249
 5940W        W48852  23.765  16.612  25.228 -0.0454 -0.0296 -0.2872
 5941W        W48853  22.588  15.906  24.995 -0.1619  0.2849  0.1315
 5942W        W48854  24.309  16.384  26.953  0.0695  0.0776  0.2935
 5943W        W48855  22.858  16.227  22.437  0.1537  0.1432 -0.5280
 5944W        W48856  24.561  16.324  24.809  0.0444 -0.2788 -0.1467
 5945W        W48857  23.570  13.560  21.597  0.0704 -0.0698 -0.4030
 5946W        W48858  24.225  16.116  23.686  0.0266  0.2236 -0.2275
 5947W        W48859  24.601  15.257  26.121 -0.1200 -0.0408  0.1615
 5948W        W48860  22.446  18.294  24.821  0.3312 -0.1641  0.0769
 5949W        W48861  23.254  14.465  25.688  0.0060 -0.0607 -0.0406
 5950W        W48862  25.431  16.968  26.799 -0.1311 -0.0474 -0.1405
 5951W        W48863  23.935  15.434  24.484  0.2120 -0.0862  0.0562
 5952W        W48864  23.122  14.734  27.142 -0.0272 -0.0378 -0.1071
 5953W        W48865  22.106  17.404  25.789  0.1370 -0.1894  0.2339
 5954W        W48866  21.430  17.284  24.798 -0.2352  0.0898  0.2826
 5955W        W48867  24.042  17.163  23.779  0.1862 -0.1199 -0.0741
 5956W        W48868  24.440  17.597  23.861 -0.2217 -0.0508 -0.4505
 5957W        W48869  25.001  17.808  23.809 -0.0518 -0.2028 -0.0496
 5958W        W48870  21.844  14.996  24.577 -0.2448 -0.1881  0.2403
 5959W        W48871  21.785  15.906  25.762 -0.1249 -0.0340  0.0130
 5960W        W48872  21.618  14.899  25.379  0.0123 -0.0529  0.0236
 5961W        W48873  22.760  15.083  20.956 -0.1581 -0.1661  0.1244
 5962W        W48874  24.991  17.243  26.953  0.3285  0.0295  0.2507
 5963W        W48875  22.449  17.218  24.807 -0.0418 -0.0005 -0.1065
 5964W        W48876  26.874  15.012  24.128  0.1703 -0.0460 -0.0191
 5965W        W48877  23.224  16.290  25.624 -0.1502  0.2149 -0.0814
 5966W        W48878  26.069  17.028  26.340 -0.0254  0.3104 -0.0338
 5967W        W48879  25.319  17.355  24.860  0.0951 -0.0383 -0.0632
 5968W        W48880  26.048  14.431  25.228  0.3836  0.3785  0.0332
 5969W        W48881  24.529  14.958  26.644  0.0640  0.1848 -0.0264
 5970W        W48882  21.999  16.653  23.375  0.5394 -0.3494 -0.1625
 5971W        W48883  22.431  16.447  24.454 -0.0678  0.1714 -0.0480
 5972W        W48884  25.317  17.923  26.403 -0.3356  0.1808  0.2488
 5973W        W48885  24.666  16.080  25.256  0.1925 -0.0293 -0.2422
 5974W        W48886  21.942  16.638  24.578 -0.1851  0.4006  0.3026
 5975W        W48887  22.631  15.776  26.836 -0.1296 -0.1433 -0.3976
 5976W        W48888  24.218  18.712  25.884  0.0614 -0.2354  0.1983
 5977W        W48889  22.547  16.529  22.821 -0.2820 -0.2602  0.0431
 5978W        W48890  21.389  17.181  23.873  0.3109 -0.3082 -0.2804
 5979W        W48891  22.354  16.219  23.993 -0.0380 -0.0944  0.0361
 5980W        W48892  23.362  15.317  26.396  0.1852  0.0176 -0.1881
 5981W        W48893  23.086  17.633  26.744  0.0326 -0.0118  0.0368
 5982W        W48894  24.929  15.284  24.790  0.0114 -0.3303  0.0622
 5983W        W48895  21.570  13.991  26.707  0.6235 -0.1951 -0.0781
 5984W        W48896  25.690  16.470  24.271 -0.2726  0.1459 -0.1142
 5985W        W48897  20.207  15.985  23.152  0.1065 -0.1737 -0.1400
 5986W        W48898  24.522  19.764  23.285  0.0176  0.1978 -0.0891
 5987W        W48899  26.504  16.679  25.437 -0.2259 -0.0408  0.1271
 5988W        W48900  24.124  16.576  24.930 -0.0679 -0.0989 -0.0106
 5989W        W48901  21.653  16.176  25.352  0.2758 -0.2022  0.3403
 5990W        W48902  22.014  14.760  25.037 -0.0260 -0.2085 -0.0136
 5991W        W48903  22.030  15.065  27.596 -0.1367  0.0574 -0.0696
 5992W        W48904  21.101  14.750  27.443 -0.2658 -0.0133 -0.0431
 5993W        W48905  25.456  17.550  26.748 -0.1605 -0.2235 -0.0140
 5994W        W48906  21.126  14.380  23.380 -0.0116 -0.0246 -0.0985
 5995W        W48907  25.084  16.347  25.476  0.2321  0.0497  0.2471
 5996W        W48908  22.950  15.685  24.306 -0.0612 -0.2136  0.0558
 5997W        W48909  21.302  16.120  22.735  0.0759 -0.1032  0.1343
 5998W        W48910  25.415  14.625  28.280 -0.0418 -0.1015 -0.0113
 5999W        W48911  23.722  16.426  24.126 -0.1454 -0.0813  0.1651
 6000W        W48912  25.323  18.554  25.820  0.0161 -0.0401  0.1192
 6001W        W48913  23.937  18.526  25.443  0.0743 -0.1085 -0.2828
 6002W        W48914  22.983  14.917  26.681 -0.0830  0.0882 -0.0363
 6003W        W48915  24.042  14.283  23.916  0.2266  0.1347  0.2130
 6004W        W48916  23.196  18.317  24.258  0.1015  0.2208  0.0413
 6005W        W48917  22.972  16.072  25.219 -0.1910  0.0429 -0.0505
 6006W        W48918  22.571  16.678  24.027 -0.1779  0.1400 -0.0979
 6007W        W48919  25.601  18.589  25.195  0.0751 -0.0673 -0.0131
 6008W        W48920  23.279  16.558  24.313 -0.1507  0.2983 -0.1035
 6009W        W48921  22.736  16.444  26.831 -0.0394  0.2870  0.0761
 6010W        W48922  23.731  14.272  27.505 -0.3930 -0.0086 -0.5582
 6011W        W48923  26.132  15.630  27.165  0.1266  0.1493 -0.0850
 6012W        W48924  23.573  16.873  24.864 -0.1013 -0.1381  0.1742
 6013W        W48925  22.663  14.544  22.665 -0.3827 -0.2336  0.0418
 6014W        W48926  26.258  19.932  24.052  0.2637  0.1284  0.0745
 6015W        W48927  22.175  17.514  24.469 -0.0601 -0.1234 -0.1788
 6016W        W48928  21.397  17.297  22.145 -0.0429  0.2766  0.2180
 6017W        W48929  23.268  17.272  25.075  0.1149 -0.1577  0.2051
 6018W        W48930  24.528  15.799  26.123 -0.0621  0.1404 -0.1206
 6019W        W48931  21.887  15.693  26.950  0.0555  0.0849  0.0230
 6020W        W48932  22.955  15.085  25.508 -0.1572 -0.0138 -0.1668
 6021W        W48933  21.836  15.102  23.507  0.2241  0.2711  0.2137
 6022W        W48934  23.094  16.834  26.650  0.0287 -0.0518 -0.0458
 6023W        W48935  24.250  14.581  25.861  0.0789  0.0906  0.0401
 6024W        W48936  26.457  14.864  24.416 -0.1188 -0.0184 -0.0926
 6025W        W48937  22.990  17.350  27.486 -0.1233  0.2252  0.0231
 6026W        W48938  25.594  17.038  25.819 -0.0050  0.0205 -0.1034
 6027W        W48939  25.576  15.993  26.464 -0.2960  0.0502 -0.1032
 6028W        W48940  24.704  15.845  24.786  0.0198  0.1335  0.0372
 6029W        W48941  22.329  16.191  26.925 -0.0473  0.1210 -0.0284
 6030W        W48942  22.995  16.164  24.650  0.1102  0.1513  0.1019
 6031W        W48943  22.710  16.974  25.161  0.1618  0.1128 -0.1611
 6032W        W48944  23.930  15.049  23.038  0.1475  0.0340 -0.0696
 6033W        W48945  26.121  17.796  25.079  0.0599 -0.0227 -0.2972
 6034W        W48946  21.073  16.949  24.690 -0.3202 -0.2910  0.3783
 6035W        W48947  25.374  17.489  27.681 -0.1931  0.1039 -0.2172
 6036W        W48948  22.890  16.687  25.639  0.4655 -0.1244  0.0428
 6037W        W48949  22.703  14.978  25.099  0.0938  0.3637  0.0157
 6038W        W48950  23.060  15.272  24.081  0.0311 -0.0174 -0.0661
 6039W        W48951  23.251  15.003  25.054  0.0004  0.1376  0.1014
 6040W        W48952  22.942  17.363  24.714 -0.2486  0.0555  0.1825
 6041W        W48953  25.727  14.138  26.600 -0.1436 -0.2711 -0.3314
 6042W        W48954  24.130  15.506  25.973  0.1889 -0.0628  0.2142
 6043W        W48955  22.773  13.740  25.715  0.1340 -0.1503  0.1348
 6044W        W48956  24.136  15.967  28.098 -0.0465 -0.3118  0.0165
 6045W        W48957  25.418  16.106  25.112 -0.0422  0.0520 -0.2779
 6046W        W48958  23.431  16.001  24.304  0.1606  0.0065  0.1806
 6047W        W48959  22.011  16.182  24.450 -0.2140  0.1783  0.1718
 6048W        W48960  24.023  15.707  26.431  0.2993  0.0624  0.2415
 6049W        W48961  21.261  16.238  25.711 -0.1898  0.0919 -0.0426
 6050W        W48962  22.531  15.450  25.272 -0.2890 -0.0128  0.1217
 6051W        W48963  25.055  17.385  26.348 -0.2746 -0.1790  0.0004
 6052W        W48964  23.315  16.366  25.023 -0.0587  0.2954  0.0180
 6053W        W48965  23.705  15.226  27.772 -0.0620  0.1933 -0.0827
 6054W        W48966  24.629  15.457  24.367 -0.0313 -0.0414 -0.1259
 6055W        W48967  22.751  17.225  24.283 -0.1030 -0.1465  0.2705
 6056W        W48968  23.277  17.063  23.163 -0.1765 -0.0397 -0.0738
 6057W        W48969  24.266  15.282  25.335  0.3910 -0.1870 -0.0069
 6058W        W48970  24.624  18.325  25.170  0.3754  0.1220 -0.0668
 6059W        W48971  23.231  16.354  23.347 -0.3312  0.1457  0.0342
 6060W        W48972  24.302  17.736  25.822  0.0674  0.2999  0.1318
 6061W        W48973  23.789  17.211  23.211  0.2023  0.3106 -0.1979
 6062W        W48974  23.535  14.596  25.258  0.1049  0.2744 -0.1587
 6063W        W48975  21.372  17.521  25.255 -0.3042 -0.3154  0.0193
 6064W        W48976  22.395  14.952  24.669 -0.1433 -0.1920  0.3630
 6065W        W48977  21.709  16.165  23.088  0.1737 -0.0227  0.0193
 6066W        W48978  23.558  15.244  24.803 -0.0320 -0.0110 -0.2867
 6067W        W48979  24.906  17.206  24.583  0.1018 -0.2482  0.0040
 6068W        W48980  20.905  15.928  25.850  0.0803 -0.2311  0.0498
 6069W        W48981  24.224  13.999  27.463  0.4626 -0.2736  0.1655
 6070W        W48982  22.447  17.008  25.670 -0.1155  0.0515 -0.1112
 6071W        W48983  23.883  15.573  25.096  0.0558  0.0149 -0.1039
 6072W        W48984  24.817  13.970  23.679  0.1741  0.0550 -0.1783
 6073W        W48985  23.745  18.188  28.590  0.1229  0.0628  0.0109
 6074W        W48986  22.010  16.129  26.253  0.0524  0.2286 -0.3681
 6075W        W48987  22.073  15.842  23.086 -0.0297  0.0884  0.2458
 6076W        W48988  25.272  15.561  26.755  0.1301 -0.5625 -0.2563
 6077W        W48989  22.055  15.820  24.043 -0.0624  0.1036  0.0646
 6078W        W48990  21.401  15.725  24.087  0.0507  0.0572  0.3709
 6079W        W48991  23.985  19.094  26.920  0.1995  0.0679  0.4756
 6080W        W48992  21.372  15.320  23.676  0.0526  0.1972  0.1864
 6081W        W48993  22.906  16.496  26.305  0.1696 -0.0291  0.3248
 6082W        W48994  22.650  15.742  26.261  0.1673  0.0396 -0.0808
 6083W        W48995  24.177  16.968  26.180  0.1374 -0.1617 -0.1601
 6084W        W48996  23.248  15.456  25.863 -0.2009  0.0065  0.1439
 6085W        W48997  22.231  16.306  24.918 -0.0127 -0.1710  0.2617
 6086W        W48998  23.453  15.529  24.389  0.0928 -0.0038  0.1060
 6087W        W48999  25.088  18.328  27.216  0.0046 -0.2545 -0.0050
 6088W        W49000  23.935  14.457  26.219 -0.1084  0.4301 -0.2534
 6089W        W49001  22.262  17.265  26.276 -0.2046  0.2268 -0.1912
 6090W        W49002  24.625  14.978  25.202 -0.0113  0.0654 -0.2233
 6091W        W49003  24.904  18.223  23.081 -0.1121 -0.2632 -0.1968
 6092W        W49004  21.927  15.384  26.588 -0.4933  0.1109 -0.1204
 6093W        W49005  22.669  16.467  23.451 -0.0043 -0.1426 -0.2143
 6094W        W49006  21.176  15.956  24.663 -0.0083 -0.0410 -0.0017
 6095W        W49007  22.389  16.759  24.839 -0.0785 -0.1903  0.1391
 6096W        W49008  23.019  16.427  27.670  0.0854 -0.2295 -0.1802
 6097W        W49009  22.474  16.509  25.433 -0.2102  0.2990 -0.0911
 6098W        W49010  22.311  16.971  24.321 -0.0708  0.1847 -0.0179
 6099W        W49011  22.316  17.118  26.812  0.0359  0.1792  0.0569
 6100W        W49012  24.219  13.327  24.268 -0.0274 -0.0892 -0.1141
 6101W        W49013  24.618  16.813  24.595 -0.1146 -0.0591  0.1449
 6102W        W49014  24.670  15.544  25.195  0.2778  0.0305  0.1615
 6103W        W49015  25.995  14.497  26.905 -0.0409 -0.1613 -0.2729
 6104W        W49016  24.892  15.926  25.740 -0.0553 -0.1627 -0.0431
 6105W        W49017  25.473  14.893  27.863 -0.1532  0.0707 -0.1754
 6106W        W49018  22.809  15.245  27.214  0.0086 -0.0722  0.0749
 6107W        W49019  24.128  17.841  26.331  0.0392 -0.2385  0.2599
 6108W        W49020  21.195  15.984  25.184 -0.0333 -0.1530  0.0627
 6109W        W49021  23.410  18.311  27.366  0.1419  0.0239  0.1017
 6110W        W49022  23.688  16.876  25.695  0.0038  0.2970  0.3177
 6111W        W49023  24.181  14.664  25.327 -0.2835 -0.0820 -0.1825
 6112W        W49024  21.073  14.308  23.939  0.2645 -0.0334  0.0255
 6113W        W49025  24.289  16.447  26.179  0.1066 -0.1415 -0.0428
 6114W        W49026  25.803  17.377  27.311  0.0022 -0.0173 -0.1264
 6115W        W49027  23.919  15.364  24.008  0.0743 -0.0024  0.1512
 6116W        W49028  26.211  16.542  26.437  0.0468 -0.0613  0.0983
 6117W        W49029  22.215  16.987  25.240  0.2182  0.0530  0.3955
 6118W        W49030  24.604  16.664  26.506  0.0365  0.0118 -0.2091
 6119W        W49031  23.995  16.475  23.198  0.3023 -0.4645 -0.0876
 6120W        W49032  22.351  16.004  25.907 -0.2282  0.2362  0.0558
 6121W        W49033  23.506  15.041  26.938  0.0772 -0.0166  0.2033
 6122W        W49034  24.726  17.004  26.169  0.5884 -0.2037  0.1357
 6123W        W49035  25.422  15.076  25.741  0.0559 -0.1913  0.1539
 6124W        W49036  24.431  15.502  26.540 -0.0966  0.1952  0.0323
 6125W        W49037  25.079  15.698  27.151  0.1151 -0.2951 -0.2427
 6126W        W49038  20.982  15.192  26.651  0.2567  0.2168 -0.1418
 6127W        W49039  21.953  14.365  26.693  0.0356  0.0823  0.0282
 6128W        W49040  24.860  17.966  27.025  0.1581 -0.2473  0.2491
 6129W        W49041  24.566  14.773  24.087 -0.2082 -0.0030  0.2208
 6130W        W49042  23.914  15.325  26.696 -0.1031  0.4124  0.0502
 6131W        W49043  24.780  16.545  25.808 -0.1520  0.0339  0.2014
 6132W        W49044  24.722  14.976  25.741 -0.0016 -0.0210 -0.0979
 6133W        W49045  22.788  14.199  25.968  0.0919 -0.3250  0.1119
 6134W        W49046  23.773  16.344  25.675 -0.2443 -0.1734  0.0489
 6135W        W49047  23.479  14.750  22.281  0.1861 -0.0249  0.0270
 6136W        W49048  23.807  16.466  27.038  0.1919 -0.1580 -0.4405
 6137W        W49049  23.240  16.763  23.662  0.2213  0.1318  0.0793
 6138W        W49050  23.658  17.815  25.987  0.0934 -0.1995 -0.0499
 6139W        W49051  24.308  15.529  24.812 -0.2275 -0.1622  0.0439
 6140W        W49052  21.508  15.816  23.441  0.5333  0.3429 -0.4424
 6141W        W49053  22.514  17.800  24.839  0.0752  0.0645  0.5704
 6142W        W49054  23.000  14.670  24.138 -0.1984 -0.3140 -0.0245
 6143W        W49055  22.811  16.266  24.166  0.1913 -0.1926  0.0669
 6144W        W49056  23.100  17.890  25.647 -0.2239  0.0679  0.2175
 6145W        W49057  24.514  15.841  26.901 -0.2609 -0.0089  0.0990
 6146W        W49058  23.836  16.096  25.214  0.0969 -0.0093  0.1355
 6147W        W49059  25.309  16.032  26.858  0.0251  0.0838  0.1593
 6148W        W49060  21.744  18.013  24.039 -0.2453 -0.3101 -0.3707
 6149W        W49061  25.564  13.271  24.570  0.3617  0.0295  0.0995
 6150W        W49062  21.791  17.963  24.638 -0.3720  0.2286 -0.0640
 6151W        W49063  22.277  17.508  25.199  0.1307 -0.2490 -0.1037
 6152W        W49064  23.104  16.792  24.835 -0.1250 -0.0652  0.2725
 6153W        W49065  24.140  14.871  27.099 -0.1191 -0.0380  0.1682
 6154W        W49066  25.356  15.604  26.219  0.0251 -0.0200  0.2272
 6155W        W49067  23.006  15.429  25.030  0.4242  0.0794  0.0302
 6156W        W49068  25.843  15.158  27.288  0.2252  0.0916  0.0291
 6157W        W49069  23.289  16.770  25.318 -0.2457 -0.1635  0.0319
 6158W        W49070  21.459  17.017  24.365 -0.0833  0.1816  0.1572
 6159W        W49071  25.286  18.967  28.349  0.0042 -0.1087 -0.1406
 6160W        W49072  24.213  16.911  25.292  0.1902  0.3511 -0.0953
 6161W        W49073  23.250  16.771  26.028  0.0130  0.0176  0.2363
 6162W        W49074  21.275  14.865  26.245 -0.2886 -0.0538  0.0422
 6163W        W49075  24.144  17.240  28.123  0.0677  0.0026 -0.0859
 6164W        W49076  23.148  17.698  26.178 -0.0046  0.1254 -0.1104
 6165W        W49077  23.737  14.534  25.706  0.1459 -0.0946  0.4108
 6166W        W49078  23.765  16.824  23.494  0.1085 -0.2255  0.2881
 6167W        W49079  21.239  17.262  26.104  0.1343 -0.0232  0.0860
 6168W        W49080  20.952  16.811  25.614  0.0769 -0.2964  0.3019
 6169W        W49081  23.000  17.401  22.939  0.1050  0.1856 -0.4550
 6170W        W49082  23.745  17.142  25.212  0.1204 -0.0515 -0.2500
 6171W        W49083  25.066  16.938  25.047 -0.0238  0.2614 -0.0606
 6172W        W49084  26.526  18.601  24.966  0.0633  0.0512 -0.1003
 6173W        W49085  22.906  15.262  23.014  0.1055 -0.0179 -0.0919
 6174W        W49086  21.935  17.148  24.744  0.0878  0.1868  0.0030
 6175W        W49087  21.538  16.531  22.682  0.0631 -0.1256  0.2123
 6176W        W49088  25.388  17.394  23.867 -0.0260  0.2755 -0.1584
 6177W        W49089  23.253  17.057  24.370  0.0225  0.0814 -0.0970
 6178W        W49090  25.359  17.099  27.289  0.1516  0.0734  0.0014
 6179W        W49091  25.522  13.215  23.312 -0.0056  0.0474  0.0131
 6180W        W49092  26.698  16.693  26.410  0.0659 -0.0140  0.0566
 6181W        W49093  25.729  16.563  26.620 -0.0530 -0.0799 -0.0721
 6182W        W49094  24.531  17.448  27.080  0.3250 -0.0789  0.2033
 6183W        W49095  23.799  16.208  26.487  0.2239  0.0185  0.0940
 6184W        W49096  23.608  14.527  23.848 -0.1711  0.0064 -0.2743
 6185W        W49097  23.346  16.297  26.140  0.0674  0.1756 -0.3990
 6186W        W49098  26.242  13.511  28.068  0.2621 -0.0203 -0.1646
 6187W        W49099  21.315  16.872  26.415 -0.1618  0.0038  0.0726
 6188W        W49100  24.784  15.843  24.125  0.0710  0.0803  0.0326
 6189W        W49101  21.678  15.753  22.684  0.3311 -0.0723 -0.1048
 6190W        W49102  23.713  16.977  26.403  0.0347 -0.0844  0.2187
 6191W        W49103  27.783  13.997  26.458 -0.1724 -0.1127  0.0720
 6192W        W49104  23.066  17.211  23.878 -0.3093 -0.2695 -0.0018
 6193W        W49105  24.166  15.821  25.497  0.0498 -0.0098 -0.0747
 6194W        W49106  22.839  18.164  25.096 -0.0124 -0.0082  0.3732
 6195W        W49107  23.255  18.313  24.737 -0.0292 -0.1118 -0.0625
 6196W        W49108  23.610  18.537  24.065  0.0186  0.1811  0.0087
 6197W        W49109  20.436  15.020  23.705 -0.0636  0.0068 -0.0183
 6198W        W49110  27.095  16.216  27.080  0.0157 -0.3524  0.1643
 6199W        W49111  23.800  15.503  25.590 -0.2383 -0.2132  0.3355
 6200W        W49112  24.713  15.385  27.378  0.1364 -0.0833  0.0574
 6201W        W49113  22.457  15.955  24.408 -0.1391  0.0992  0.1591
 6202W        W49114  25.125  15.697  25.278 -0.1476  0.1465  0.2613
 6203W        W49115  23.225  15.589  27.228 -0.1963  0.2574  0.0626
 6204W        W49116  22.618  15.966  25.490 -0.1728  0.0255 -0.0108
 6205W        W49117  25.752  15.518  26.589  0.0117  0.0792  0.1289
 6206W        W49118  25.114  16.228  27.236 -0.2218  0.0480  0.1822
 6207W        W49119  24.330  15.951  24.482  0.0017  0.1480 -0.0978
 6208W        W49120  25.274  18.117  28.180  0.1333 -0.0350  0.3178
 6209W        W49121  20.619  13.981  23.991  0.3055  0.0433  0.1752
 6210W        W49122  24.808  14.392  24.943  0.0500  0.2229 -0.0285
 6211W        W49123  20.034  15.137  24.257  0.0788 -0.1551  0.3281
 6212W        W49124  22.612  15.499  24.723  0.3841 -0.0862 -0.1109
 6213W        W49125  25.940  19.062  26.363  0.3134  0.0781  0.0686
 6214W        W49126  22.585  15.155  24.252  0.1713  0.2851  0.1472
 6215W        W49127  26.377  17.459  24.195  0.1308 -0.1645  0.0318
 6216W        W49128  24.287  16.080  26.571  0.1460 -0.1255  0.0642
 6217W        W49129  23.612  17.416  22.267  0.5614  0.1408 -0.0992
 6218W        W49130  23.978  17.246  25.719 -0.1363  0.0325 -0.3241
 6219W        W49131  24.849  19.325  26.160  0.1372  0.0746  0.2548
 6220W        W49132  21.532  14.630  24.457  0.0280 -0.2362  0.3377
 6221W        W49133  25.135  16.832  25.553 -0.0217  0.2433  0.3120
 6222W        W49134  24.759  17.830  26.436  0.0704 -0.0107  0.1481
 6223W        W49135  22.617  13.619  24.204 -0.3247  0.0726 -0.0425
 6224W        W49136  21.215  14.820  23.151  0.0139  0.1817 -0.0238
 6225W        W49137  22.366  18.557  25.274  0.4150 -0.3112  0.2556
 6226W        W49138  25.924  13.738  26.838  0.2671 -0.0239 -0.0435
 6227W        W49139  24.627  14.344  26.584 -0.0959  0.0234  0.2468
 6228W        W49140  24.750  18.220  22.114  0.1193 -0.1417  0.1720
 6229W        W49141  24.271  14.039  28.413 -0.1193  0.0293 -0.0725
 6230W        W49142  22.998  18.043  26.536  0.0541 -0.0089  0.0801
 6231W        W49143  22.039  17.457  27.148 -0.1522 -0.1226  0.1401
 6232W        W49144  21.902  14.795  24.051 -0.0102 -0.4855  0.1892
 6233W        W49145  22.043  15.617  26.059 -0.0080 -0.1681  0.1664
 6234W        W49146  22.875  16.097  26.008  0.0241 -0.0921  0.2662
 6235W        W49147  24.069  17.047  24.836 -0.3496 -0.2591  0.2833
 6236W        W49148  25.648  17.615  25.537  0.2617  0.0660  0.0233
 6237W        W49149  25.075  15.433  25.870  0.2893  0.2668  0.0069
 6238W        W49150  26.177  16.931  25.818 -0.3238  0.2406  0.1353
 6239W        W49151  21.632  15.222  25.030 -0.1048  0.1541 -0.0817
 6240W        W49152  24.921  15.047  24.273  0.0618 -0.1648 -0.2067
 6241W        W49153  23.743  13.031  24.439 -0.2468 -0.1920  0.2171
 6242W        W49154  23.221  17.244  26.364  0.1374  0.0002  0.2091
 6243W        W49155  21.269  16.464  23.143 -0.4239 -0.0131 -0.0952
 6244W        W49156  23.202  15.759  22.884  0.0475  0.1774  0.2700
 6245W        W49157  23.768  17.642  25.082 -0.2185  0.1136  0.1828
 6246W        W49158  22.983  14.583  27.986 -0.2474  0.0355  0.1567
 6247W        W49159  23.556  15.675  26.819 -0.0938 -0.0255  0.1078
 6248W        W49160  22.754  16.493  24.999 -0.2960  0.1854  0.1072
 6249W        W49161  21.658  14.372  24.011 -0.1539  0.0252 -0.2691
 6250W        W49162  25.932  19.614  23.657 -0.0348  0.1112  0.3396
 6251W        W49163  22.283  14.402  26.134  0.2386 -0.0210  0.2656
 6252W        W49164  21.592  14.652  25.824  0.1382 -0.0316  0.0095
 6253W        W49165  25.417  17.570  26.049 -0.1247  0.4271 -0.0487
 6254W        W49166  24.151  16.411  24.480 -0.0453  0.1523  0.1102
 6255W        W49167  23.179  14.749  23.640 -0.4696 -0.0256  0.0214
 6256W        W49168  25.324  16.626  27.526  0.0676  0.2241 -0.2017
 6257W        W49169  22.875  16.049  23.689  0.0508  0.2958  0.2053
 6258W        W49170  22.040  14.742  25.604  0.0489 -0.1743 -0.2141
 6259W        W49171  22.498  14.214  27.692 -0.0039 -0.0808 -0.2725
 6260W        W49172  22.481  15.593  23.989  0.0101  0.1468  0.3385
 6261W        W49173  23.441  15.841  25.397  0.0505 -0.0436  0.2444
 6262W        W49174  24.444  17.098  25.681  0.1130  0.0327 -0.0619
 6263W        W49175  24.580  17.178  25.040 -0.0459 -0.2616 -0.0297
 6264W        W49176  24.237  15.690  27.359 -0.0258 -0.0579 -0.0602
 6265W        W49177  24.049  17.560  26.742  0.0665 -0.2905 -0.2613
 6266W        W49178  22.002  14.867  26.654  0.1819  0.0674  0.2234
 6267W        W49179  24.405  16.153  25.778 -0.0439  0.3671 -0.2953
 6268W        W49180  23.478  17.503  25.479 -0.0110 -0.1735  0.0782
 6269W        W49181  26.499  19.479  23.888  0.0537 -0.3706 -0.3799
 6270W        W49182  25.337  14.489  25.122 -0.1369  0.3478 -0.0055
 6271W        W49183  23.678  16.393  24.673 -0.1084  0.0017 -0.0076
 6272W        W49184  22.004  13.268  26.268 -0.2167  0.0822 -0.0344
 6273W        W49185  23.040  16.080  26.640 -0.1029  0.0513  0.0579
 6274W        W49186  25.599  16.397  27.084  0.0215 -0.1962 -0.3608
 6275W        W49187  23.787  15.031  25.221  0.1976 -0.1853  0.0880
 6276W        W49188  25.746  15.362  26.012 -0.0744 -0.6709 -0.0526
 6277W        W49189  23.608  17.351  24.677  0.2603 -0.3945  0.1040
 6278W        W49190  22.966  14.587  25.281  0.0764  0.1686 -0.3431
 6279W        W49191  22.799  16.742  24.474 -0.1167  0.1450  0.0331
 6280W        W49192  22.497  16.167  26.446 -0.4535  0.1626 -0.0467
 6281W        W49193  23.397  18.771  25.439  0.1975 -0.0859 -0.0328
 6282W        W49194  24.520  17.176  26.620  0.1807  0.1712  0.0901
 6283W        W49195  23.878  15.083  23.574  0.2248  0.0910  0.2246
 6284W        W49196  26.364  16.784  23.516  0.1170  0.1959 -0.1755
 6285W        W49197  23.422  17.274  25.901  0.1997  0.0208  0.1736
 6286W        W49198  24.841  18.814  27.871  0.2025 -0.5213 -0.2130
 6287W        W49199  22.454  17.159  27.385  0.1336  0.2504  0.0016
 6288W        W49200  24.312  15.391  27.017 -0.4276  0.0795 -0.0958
 6289W        W49201  22.371  14.114  25.719  0.1310  0.2149  0.2279
 6290W        W49202  23.779  16.830  24.421 -0.0659  0.2932  0.1037
 6291W        W49203  22.219  16.292  23.091 -0.1455 -0.0614  0.0031
 6292W        W49204  25.479  15.108  26.868  0.1246  0.3564  0.0680
 6293W        W49205  21.061  14.571  25.559 -0.2512 -0.1019 -0.1414
 6294W        W49206  23.481  15.646  23.924 -0.2685  0.0916 -0.1848
 6295W        W49207  22.613  16.809  26.539  0.0487  0.2764 -0.2251
 6296W        W49208  23.428  15.791  24.922  0.0358 -0.0652  0.0821
 6297W        W49209  23.785  15.706  29.694  0.2772  0.0946  0.2373
 6298W        W49210  22.893  15.929  27.708 -0.1388  0.0327  0.1931
 6299W        W49211  24.188  14.590  27.588  0.0501 -0.2500 -0.0138
 6300W        W49212  24.822  16.249  28.128  0.1515 -0.0580 -0.0108
 6301W        W49213  21.700  15.242  28.994 -0.0869 -0.0206 -0.2321
 6302W        W49214  23.600  18.550  28.132  0.0295 -0.1658 -0.2246
 6303W        W49215  22.616  14.627  30.267 -0.2361 -0.0193  0.0817
 6304W        W49216  25.273  18.648  29.676  0.0657 -0.1111  0.2638
 6305W        W49217  23.800  17.684  29.162 -0.1812 -0.1706 -0.3004
 6306W        W49218  23.810  17.390  26.201 -0.0733  0.0124 -0.2190
 6307W        W49219  24.467  17.465  29.084 -0.0124  0.2537 -0.0257
 6308W        W49220  21.286  18.873  27.330  0.0496  0.0906  0.1005
 6309W        W49221  24.029  13.674  31.024  0.3048  0.1026  0.2617
 6310W        W49222  21.077  15.483  28.760  0.2358  0.0382  0.0245
 6311W        W49223  24.355  17.375  27.568 -0.0457  0.1314 -0.0550
 6312W        W49224  23.143  16.298  28.763  0.0343  0.1035  0.0308
 6313W        W49225  23.872  14.879  29.144 -0.0508 -0.0658 -0.1754
 6314W        W49226  22.929  16.010  27.132 -0.1447 -0.1537 -0.1945
 6315W        W49227  22.933  18.599  26.565  0.0172  0.2147 -0.0230
 6316W        W49228  23.090  15.061  30.078 -0.0842 -0.2634  0.0187
 6317W        W49229  24.678  15.878  31.128  0.0947  0.3418  0.2361
 6318W        W49230  22.932  17.857  28.651  0.3668  0.0234 -0.2827
 6319W        W49231  22.089  15.667  27.723 -0.3920 -0.1966 -0.3067
 6320W        W49232  22.662  16.425  27.990  0.0687  0.1484 -0.1890
 6321W        W49233  23.357  15.612  29.490 -0.2147 -0.0905  0.0393
 6322W        W49234  25.024  16.139  29.243 -0.4488  0.2027 -0.1313
 6323W        W49235  24.832  17.058  29.843  0.2049  0.0322  0.1824
 6324W        W49236  23.625  17.336  27.974  0.0745  0.1370  0.2412
 6325W        W49237  21.897  17.585  30.284  0.0216 -0.0663 -0.0951
 6326W        W49238  24.349  14.991  29.519 -0.3059 -0.4036  0.2981
 6327W        W49239  21.452  16.887  29.459  0.1982  0.0770 -0.2820
 6328W        W49240  22.079  17.584  28.080  0.1951 -0.1138 -0.0379
 6329W        W49241  24.332  18.328  29.668 -0.2159 -0.2535  0.1305
 6330W        W49242  25.081  17.129  28.289 -0.1844  0.3140  0.0925
 6331W        W49243  25.222  16.383  30.768 -0.0001 -0.1863 -0.1990
 6332W        W49244  23.258  19.342  30.841  0.0926 -0.0674 -0.0311
 6333W        W49245  21.210  17.511  27.719  0.0790  0.0494  0.0072
 6334W        W49246  22.706  18.687  31.460  0.2323  0.0986 -0.0820
 6335W        W49247  22.846  17.615  29.943 -0.1248  0.1045  0.2416
 6336W        W49248  23.375  17.176  30.725 -0.1026  0.0424 -0.0201
 6337W        W49249  22.464  14.921  29.349  0.0972 -0.3860  0.0684
 6338W        W49250  21.639  17.268  28.313  0.0699  0.2518  0.1718
 6339W        W49251  23.569  15.999  28.654  0.0587 -0.6803  0.0853
 6340W        W49252  23.351  15.809  29.989 -0.2789  0.0254 -0.1400
 6341W        W49253  22.777  18.089  29.740  0.0855 -0.1149 -0.1966
 6342W        W49254  24.636  16.491   1.198  0.0242 -0.2495  0.2430
 6343W        W49255  22.737  17.911  27.057  0.0807 -0.1236 -0.0802
 6344W        W49256  24.393  16.301  27.846 -0.1672  0.1988  0.0078
 6345W        W49257  22.918  13.704  25.135  0.1861 -0.0434  0.2155
 6346W        W49258  24.107  14.368  28.023 -0.0207  0.0912  0.1757
 6347W        W49259  22.494  14.983  28.543 -0.1092  0.0959 -0.0333
 6348W        W49260  22.509  18.288  27.394  0.2908  0.2664 -0.0077
 6349W        W49261  22.934  15.421  27.758  0.0660  0.3780 -0.0249
 6350W        W49262  24.823  16.639  30.530 -0.0020 -0.1809 -0.0514
 6351W        W49263  24.149  16.730  27.263  0.1220 -0.0473  0.0192
 6352W        W49264  23.264  15.428  30.439  0.2261 -0.2811  0.1387
 6353W        W49265  22.533  17.176  29.182 -0.3021 -0.1543 -0.0826
 6354W        W49266  22.915  15.846  28.745 -0.0746 -0.0626  0.0073
 6355W        W49267  23.817  18.998  27.990 -0.0493  0.1531 -0.0470
 6356W        W49268  24.337  18.226  28.465 -0.1492 -0.0072  0.0335
 6357W        W49269  24.040  16.652  27.751 -0.1485  0.1426  0.0199
 6358W        W49270  21.944  16.830  28.495 -0.0020  0.0676  0.2588
 6359W        W49271  22.769  15.485  30.108 -0.3043 -0.1285  0.0167
 6360W        W49272  21.545  15.749  30.866 -0.2165 -0.2695 -0.2612
 6361W        W49273  22.370  14.721  27.602 -0.3499  0.2105 -0.4840
 6362W        W49274  25.306  16.939  31.543  0.1342  0.0548 -0.1279
 6363W        W49275  21.930  18.273  29.019 -0.0521  0.0502 -0.1158
 6364W        W49276  25.507  14.656  29.259  0.1205 -0.2952  0.0863
 6365W        W49277  24.303  16.417  29.903 -0.1303 -0.0915 -0.0258
 6366W        W49278  24.626  17.929  29.630  0.4310 -0.0496 -0.0064
 6367W        W49279  24.528  16.838  26.962  0.1529 -0.2678 -0.0356
 6368W        W49280  24.284  14.578  29.293 -0.3080  0.1429 -0.1291
 6369W        W49281  23.567  14.168  28.840 -0.2815  0.1196  0.0110
 6370W        W49282  23.236  16.438  27.021 -0.3518  0.2474 -0.0448
 6371W        W49283  23.726  15.722  29.208  0.0627 -0.1851  0.0661
 6372W        W49284  25.466  16.849  30.650 -0.1320 -0.1861 -0.2867
 6373W        W49285  24.533  16.903  27.512 -0.0913 -0.2298 -0.1567
 6374W        W49286  20.478  17.913  29.592 -0.0391  0.1092  0.1141
 6375W        W49287  24.026  15.896  30.477  0.1348  0.1044 -0.0968
 6376W        W49288  24.335  17.924  31.288 -0.0891 -0.1558 -0.2594
 6377W        W49289  23.218  17.808  27.270 -0.0151  0.1253  0.2813
 6378W        W49290  22.881  16.663  28.549 -0.1050 -0.4911  0.1015
 6379W        W49291  21.760  16.192  26.822 -0.1060  0.0452 -0.0307
 6380W        W49292  21.514  15.805  29.484  0.1894 -0.1742 -0.1630
 6381W        W49293  22.694  15.846  31.685 -0.1198 -0.1764  0.0142
 6382W        W49294  24.559  15.852  28.327 -0.2443 -0.1548 -0.1680
 6383W        W49295  21.560  15.699  29.961  0.1709 -0.1162 -0.0389
 6384W        W49296  25.157  15.484  29.440 -0.1367 -0.2292 -0.1298
 6385W        W49297  22.041  16.531  28.081 -0.1243 -0.1238  0.0198
 6386W        W49298  26.511  18.771  27.377  0.1016 -0.0777 -0.3006
 6387W        W49299  24.154  15.164  27.558 -0.0257  0.0591  0.1223
 6388W        W49300  24.156  15.482  28.092  0.2421  0.3044  0.0954
 6389W        W49301  22.917  15.892  30.312  0.2075 -0.3517 -0.0605
 6390W        W49302  20.791  15.132  28.989 -0.1212  0.1375 -0.0739
 6391W        W49303  23.100  14.091  29.516 -0.4386  0.0417  0.4812
 6392W        W49304  22.058  15.472  29.803 -0.2617 -0.1968  0.0071
 6393W        W49305  24.580  14.687  30.918  0.0612  0.0227 -0.1960
 6394W        W49306  22.544  14.043  26.382  0.1162 -0.0779 -0.2266
 6395W        W49307  25.209  16.214  27.787  0.1473 -0.1097  0.1829
 6396W        W49308  23.234  16.261  28.265  0.0846 -0.1857 -0.3574
 6397W        W49309  21.263  17.184  29.054  0.2673  0.1483  0.3737
 6398W        W49310  24.088  14.256  29.694 -0.1519  0.0632 -0.3972
 6399W        W49311  22.341  16.727  27.704 -0.1734 -0.2251  0.0514
 6400W        W49312  23.412  20.354  31.263  0.0912  0.2581 -0.2228
 6401W        W49313  24.180  17.818  28.298 -0.0080  0.0643 -0.2775
 6402W        W49314  23.751  15.442  30.768  0.1764  0.3436 -0.0750
 6403W        W49315  22.630  14.789  27.130 -0.0721 -0.2530  0.1315
 6404W        W49316  23.931  17.196  28.947 -0.0009 -0.0251 -0.1544
 6405W        W49317  23.241  17.515  28.449  0.3155 -0.6660 -0.1216
 6406W        W49318  22.303  15.360  27.227 -0.0165 -0.1179 -0.3588
 6407W        W49319  26.258  18.324  29.170  0.4171 -0.0822  0.4219
 6408W        W49320  23.316  15.117  27.435  0.0293  0.1544  0.1186
 6409W        W49321  22.824  15.737  29.615 -0.1250 -0.0959  0.0288
 6410W        W49322  25.255  14.962  29.601  0.1296  0.2534  0.0053
 6411W        W49323  25.982  16.362  31.237  0.0002 -0.1160 -0.2042
 6412W        W49324  24.789  17.164  28.864 -0.0019 -0.1280  0.0021
 6413W        W49325  22.381  15.219  27.946 -0.1092 -0.3679  0.2667
 6414W        W49326  24.519  16.701  29.544 -0.2013 -0.3081  0.2747
 6415W        W49327  22.292  16.552  27.265  0.1351 -0.5596  0.0748
 6416W        W49328  22.058  15.590  28.909  0.1461  0.0130  0.3918
 6417W        W49329  23.896  17.108  27.586 -0.1166  0.1821  0.2508
 6418W        W49330  24.750  16.573  28.982 -0.0986 -0.0957 -0.3774
 6419W        W49331  22.050  16.600  29.746 -0.1071 -0.2762  0.2764
 6420W        W49332  24.745  15.613  31.973  0.2589 -0.2667 -0.1398
 6421W        W49333  21.058  15.472  27.455  0.1989 -0.2257  0.2124
 6422W        W49334  22.282  17.985  29.937 -0.1033  0.1502 -0.4928
 6423W        W49335  24.942  14.356  27.093 -0.1715 -0.0094  0.0577
 6424W        W49336  24.821  15.453  28.274 -0.0607  0.0819  0.1406
 6425W        W49337  23.761  17.483  30.761 -0.1041  0.1468 -0.0765
 6426W        W49338  24.857  16.022  28.775 -0.0771 -0.2727 -0.0318
 6427W        W49339  24.065  16.611  26.562  0.2877 -0.3078  0.0174
 6428W        W49340  23.445  14.761  28.845 -0.2700  0.0818  0.2288
 6429W        W49341  23.368  17.484  29.941  0.2844 -0.0337  0.5237
 6430W        W49342  23.717  17.157  28.468  0.1369 -0.2090  0.2673
 6431W        W49343  23.186  16.568  29.313 -0.4416 -0.1458 -0.1927
 6432W        W49344  23.605  15.669  28.104  0.0157  0.0343 -0.1520
 6433W        W49345  25.545  17.826  28.659  0.0397 -0.0237  0.1213
 6434W        W49346  22.191  16.083  28.873 -0.1314  0.2991  0.1709
 6435W        W49347  24.675  17.564   0.155  0.0865 -0.1078  0.2737
 6436W        W49348  25.005  16.172  30.391  0.2021  0.0449  0.0397
 6437W        W49349  22.281  14.440  29.345 -0.2054  0.0832  0.0700
 6438W        W49350  23.607  16.576  27.503  0.2548  0.0043 -0.1030
 6439W        W49351  24.172  13.447  29.027  0.1049 -0.0954 -0.2613
 6440W        W49352  21.942  17.469  26.621 -0.3158  0.2524 -0.2440
 6441W        W49353  26.188  14.006  30.757 -0.2547 -0.1302  0.3078
 6442W        W49354  23.430  14.926  30.596  0.0615 -0.0855  0.0458
 6443W        W49355  23.764  15.501  30.286  0.5160 -0.3731 -0.2415
 6444W        W49356  24.972  16.357   0.217 -0.0682 -0.0116  0.2377
 6445W        W49357  25.109  14.780  28.715  0.1767  0.1772 -0.0721
 6446W        W49358  24.550  16.227  29.363  0.0984 -0.0780 -0.2743
 6447W        W49359  22.455  14.487  25.347 -0.1251  0.4633 -0.1660
 6448W        W49360  23.287  15.538  31.487  0.2543 -0.1581 -0.1165
 6449W        W49361  23.601  14.876  30.068 -0.1967  0.1855  0.1882
 6450W        W49362  21.300  18.225  30.201  0.0735 -0.3475  0.3725
 6451W        W49363  23.835  17.973  31.246  0.4701  0.0416  0.0696
 6452W        W49364  24.463  16.486  28.604  0.0372  0.1410  0.1645
 6453W        W49365  23.871  15.497  31.323  0.1885 -0.1634  0.3591
 6454W        W49366  23.339  15.719  27.641 -0.0931  0.0113  0.1473
 6455W        W49367  21.733  18.082  27.109  0.0983  0.1667  0.1927
 6456W        W49368  21.514  16.777  28.095  0.0001 -0.2359  0.2335
 6457W        W49369  22.877  15.319  29.218  0.3176  0.1705  0.2026
 6458W        W49370  24.101  16.059  29.593 -0.1584 -0.1613 -0.1760
 6459W        W49371  21.633  17.739  27.870  0.0549 -0.0259  0.4165
 6460W        W49372  24.186  17.383  30.527 -0.1244 -0.0254  0.0702
 6461W        W49373  22.761  17.399  28.353 -0.2725 -0.3177 -0.0850
 6462W        W49374  25.644  14.893  28.803 -0.0682  0.0053 -0.0785
 6463W        W49375  21.768  16.659  27.655  0.1749  0.2854 -0.0681
 6464W        W49376  21.668  15.505  27.397 -0.0634 -0.1410  0.0487
 6465W        W49377  21.365  16.385  27.699  0.0047 -0.0794 -0.2527
 6466W        W49378  24.077  15.403  29.073  0.2547 -0.2497 -0.0262
 6467W        W49379  25.050  17.626  28.179  0.1480 -0.2440  0.3158
 6468W        W49380  22.396  15.174  30.060 -0.3056 -0.0375 -0.0388
 6469W        W49381  22.967  14.091  27.965 -0.0366  0.0959  0.1586
 6470W        W49382  21.446  17.917  29.608  0.2070 -0.0112  0.1726
 6471W        W49383  24.103  17.184  29.401  0.0870  0.0068  0.0788
 6472W        W49384  24.740  13.321  29.042  0.0440 -0.2371  0.0335
 6473W        W49385  23.065  17.475  30.847  0.2910 -0.1248  0.0371
 6474W        W49386  23.185  17.121  31.290  0.1636  0.0784 -0.5109
 6475W        W49387  21.367  16.427  26.726  0.1013 -0.2179  0.5220
 6476W        W49388  25.128  15.662  31.236  0.4497 -0.2360  0.0231
 6477W        W49389  24.268  15.529  29.501  0.0325 -0.2614  0.2930
 6478W        W49390  21.856  17.081  29.803  0.2960  0.2343 -0.2091
 6479W        W49391  24.331  17.002  29.886 -0.1821  0.1511 -0.1377
 6480W        W49392  23.609  15.983  27.296  0.0066  0.6290 -0.0138
 6481W        W49393  23.394  16.967  27.739 -0.0365 -0.0686 -0.1813
 6482W        W49394  23.071  15.046  31.409  0.2815 -0.3503 -0.2055
 6483W        W49395  24.438  16.175  30.306  0.2228  0.0878  0.0146
 6484W        W49396  23.272  15.549  28.919 -0.2817 -0.1177 -0.1549
 6485W        W49397  21.231  14.739  28.964 -0.1694  0.1497 -0.0904
 6486W        W49398  23.276  15.157  28.489 -0.1550  0.0054  0.0797
 6487W        W49399  24.297  17.864  29.288  0.1558 -0.1912 -0.3911
 6488W        W49400  24.813  14.849  29.351 -0.5312 -0.0985  0.0978
 6489W        W49401  23.137  17.445  31.737 -0.0115 -0.2113 -0.1914
 6490W        W49402  24.851  16.123  29.908 -0.0452  0.1728 -0.0179
 6491W        W49403  25.424  20.449  26.621 -0.1424 -0.1423 -0.2961
 6492W        W49404  24.746  17.763  30.988  0.0352  0.0646 -0.1749
 6493W        W49405  22.810  16.656  27.292 -0.1562 -0.1141  0.0328
 6494W        W49406  21.111  15.494  28.000 -0.0058  0.2295 -0.2003
 6495W        W49407  23.666  15.268  28.786  0.2239  0.0819  0.0253
 6496W        W49408  23.905  14.782  29.700  0.1590  0.0409 -0.1393
 6497W        W49409  22.497  16.782  30.037  0.1669 -0.1966 -0.0041
 6498W        W49410  23.143  16.726  28.130 -0.2822  0.2718 -0.2498
 6499W        W49411  21.671  16.699  30.093  0.1024 -0.0330 -0.3017
 6500W        W49412  24.257  14.888  28.090  0.0058 -0.1185  0.0287
 6501W        W49413  24.083  16.125  27.474 -0.0228  0.0850  0.1819
 6502W        W49414  24.022  15.230  29.866 -0.2822 -0.2073  0.0354
 6503W        W49415  24.176  14.541  31.360  0.1484 -0.0696 -0.1025
 6504W        W49416  25.066  16.886  26.493  0.1917 -0.0424 -0.2813
 6505W        W49417  24.507  14.912  31.397  0.1295 -0.1813 -0.3211
 6506W        W49418  23.171  13.867  28.959  0.0240 -0.0592 -0.0507
 6507W        W49419  25.109  17.527  28.647 -0.2144 -0.2128 -0.0884
 6508W        W49420  20.884  16.045  28.779 -0.0899 -0.1941  0.0957
 6509W        W49421  23.265  17.091  29.507 -0.1391  0.0398  0.2714
 6510W        W49422  23.167  16.580  31.152  0.1719 -0.0599 -0.3114
 6511W        W49423  23.215  16.015  29.156  0.3042  0.0549 -0.3820
 6512W        W49424  23.552  13.700  27.094  0.2470 -0.1186  0.0227
 6513W        W49425  23.666  17.219  30.299 -0.2044 -0.3277 -0.2118
 6514W        W49426  25.318  16.836  29.901  0.1486 -0.3320  0.1124
 6515W        W49427  23.639  17.271  26.767 -0.1915 -0.0879  0.1987
 6516W        W49428  24.187  15.980  29.063 -0.2294  0.0788 -0.0212
 6517W        W49429  22.536  15.715  29.111 -0.0826 -0.2757  0.0650
 6518W        W49430  24.738  15.709  29.676  0.2178  0.1039 -0.1444
 6519W        W49431  24.661  14.881  27.117  0.3024  0.0280 -0.1484
 6520W        W49432  22.563  17.054  28.682 -0.2859 -0.2976  0.3151
 6521W        W49433  21.966  15.289  30.683 -0.3270  0.0915  0.4365
 6522W        W49434  24.687  17.258  27.995  0.2539 -0.0633 -0.0514
 6523W        W49435  23.722  15.116  28.256 -0.4263 -0.0189  0.0211
 6524W        W49436  24.553  15.208  29.110 -0.2291  0.0122 -0.0438
 6525W        W49437  25.110  16.978  30.339  0.0520  0.1830  0.2656
 6526W        W49438  23.343  16.542  31.672  0.0344  0.1133 -0.0266
 6527W        W49439  22.021  16.213  30.226 -0.0971  0.0340  0.1765
 6528W        W49440  25.092  18.186  30.766  0.3315  0.0456 -0.1430
 6529W        W49441  25.590  14.437  27.836  0.2548  0.0257  0.1217
 6530W        W49442  25.963  15.291  30.817  0.2491 -0.1567 -0.0439
 6531W        W49443  25.206  15.766  28.436 -0.0794  0.1423 -0.3979
 6532W        W49444  24.823  16.272  26.786  0.1953  0.0919 -0.2253
 6533W        W49445  22.891  15.767  30.808 -0.0418 -0.1035 -0.1286
 6534W        W49446  24.621  17.532  31.478 -0.3645  0.3506  0.0587
 6535W        W49447  22.846  14.883  27.595 -0.2465  0.0213 -0.0832
 6536W        W49448  25.177  15.089  29.099 -0.1141 -0.3342 -0.0585
 6537W        W49449  22.921  18.374  27.060 -0.3756 -0.2896  0.0151
 6538W        W49450  24.207  17.394  28.603  0.3102 -0.2367  0.0392
 6539W        W49451  25.786  15.147  30.269 -0.0265  0.0710  0.1105
 6540W        W49452  21.639  16.530  27.167 -0.0916  0.0440  0.0603
 6541W        W49453  21.490  17.451  30.615  0.0997  0.0426 -0.0153
 6542W        W49454  20.575  15.411  26.103 -0.2330  0.0981  0.0761
 6543W        W49455  22.959  15.428  26.675  0.3224  0.2693 -0.0837
 6544W        W49456  23.429  17.772  31.607  0.1545 -0.0818  0.0519
 6545W        W49457  25.909  17.198  31.808  0.2009  0.3396 -0.0629
 6546W        W49458  22.569  14.298  28.308 -0.0586  0.0215  0.0256
 6547W        W49459  24.693  14.704  30.376 -0.3025  0.0159  0.1129
 6548W        W49460  22.912  17.415  28.856 -0.1197  0.1886 -0.2771
 6549W        W49461  23.214  14.187  28.414  0.2874  0.1001  0.1364
 6550W        W49462  22.505  17.836  28.314  0.0896  0.0537  0.3981
 6551W        W49463  22.342  17.023  29.648  0.0322 -0.3072 -0.1991
 6552W        W49464  22.576  16.912  28.185 -0.1044 -0.5884  0.2351
 6553W        W49465  23.880  14.320  29.254  0.3141  0.1768  0.0319
 6554W        W49466  23.483  15.300  29.875 -0.1769 -0.2544  0.2056
 6555W        W49467  24.386  16.918  29.053 -0.1187  0.0893 -0.0841
 6556W        W49468  25.679  15.743  30.857  0.2259 -0.1355 -0.3350
 6557W        W49469  24.112  18.024  30.836 -0.3525  0.3426 -0.1954
 6558W        W49470  22.620  16.684  29.072 -0.3455  0.1698 -0.1210
 6559W        W49471  24.497  17.829  30.536  0.1935 -0.0532 -0.0241
 6560W        W49472  25.343  16.509  30.318 -0.0210  0.1198 -0.0296
 6561W        W49473  22.980  17.778  28.090 -0.1640 -0.3168  0.2346
 6562W        W49474  21.304  14.271  28.831  0.0138  0.1612  0.0491
 6563W        W49475  24.667  15.353  31.169  0.1988 -0.3078 -0.0668
 6564W        W49476  24.623  17.475  28.435  0.0112 -0.0328 -0.1757
 6565W        W49477  23.149  15.557  28.192 -0.0467 -0.2069  0.1743
 6566W        W49478  23.729  16.961  27.101 -0.2261 -0.0419  0.0945
 6567W        W49479  21.848  16.114  31.092  0.0454 -0.0198  0.0110
 6568W        W49480  21.347  16.185  28.989  0.0546  0.0631  0.3390
 6569W        W49481  22.757  17.331  26.423  0.2360  0.2605 -0.2169
 6570W        W49482  25.908  17.660  27.763 -0.0064  0.5261  0.2699
 6571W        W49483  23.920  15.700  28.524  0.0818 -0.0426  0.0456
 6572W        W49484  24.714  17.845  28.806 -0.1794  0.1693 -0.2370
 6573W        W49485  22.466  14.892  26.181 -0.0234 -0.5689 -0.5769
 6574W        W49486  23.033  16.171  29.904 -0.2870 -0.2496  0.3366
 6575W        W49487  21.777  16.912  26.811 -0.0991 -0.0624  0.1389
 6576W        W49488  23.362  18.635  28.612  0.0869  0.1770  0.0033
 6577W        W49489  22.074  18.875  27.002  0.1086  0.1916  0.0274
 6578W        W49490  24.253  17.843  29.911 -0.3398 -0.0115 -0.1039
 6579W        W49491  24.581  15.227  27.955 -0.0412 -0.1079  0.2528
 6580W        W49492  25.938  16.889  30.917  0.1319 -0.0262 -0.1473
 6581W        W49493  26.003  15.769  29.039  0.0903 -0.1047 -0.2253
 6582W        W49494  24.300  18.260  30.185  0.2194 -0.1540  0.1424
 6583W        W49495  23.988  16.280  28.624  0.1101 -0.1900 -0.2192
 6584W        W49496  23.988  13.914  27.981 -0.0290  0.1887  0.1051
 6585W        W49497  22.417  15.925  30.342  0.2000  0.0945 -0.0080
 6586W        W49498  24.098  13.996  30.476 -0.0129  0.0601 -0.1276
 6587W        W49499  22.318  17.355  30.082  0.1194 -0.1673  0.0416
 6588W        W49500  24.063  17.663  27.791  0.2321 -0.2366 -0.2051
 6589W        W49501  21.795  15.162  27.032 -0.2992 -0.0954 -0.1430
 6590W        W49502  22.824  14.863  28.972 -0.1915  0.3123  0.0015
 6591W        W49503  25.871  13.417  29.922 -0.2779 -0.2189  0.0136
 6592W        W49504  23.521  17.385  27.353  0.0321  0.3383 -0.0182
 6593W        W49505  24.460  15.658  28.789 -0.0972  0.1971 -0.0033
 6594W        W49506  23.340  17.692  27.743  0.2913  0.0021 -0.2868
 6595W        W49507  22.091  17.842  30.806 -0.2884 -0.0519  0.0130
 6596W        W49508  23.388  17.825  28.853  0.1164 -0.2780 -0.0726
 6597W        W49509  21.765  15.287  28.074  0.3028  0.0617  0.3114
 6598W        W49510  25.373  15.841  29.018 -0.0239  0.0004  0.0359
 6599W        W49511  22.502  15.440  30.560 -0.1067 -0.0790  0.2348
 6600W        W49512  24.901  14.830  29.867 -0.2931 -0.0496 -0.1449
 6601W        W49513  23.827  15.763  27.660 -0.1260  0.2630  0.0782
 6602W        W49514  25.283  15.783  29.958  0.1837 -0.0156  0.0932
 6603W        W49515  24.636  15.646  30.695 -0.2639  0.3082  0.0815
 6604W        W49516  21.310  16.308  29.486  0.2196 -0.1082  0.0222
 6605W        W49517  24.245  15.260  28.490  0.1211  0.0790 -0.1154
 6606W        W49518  23.902  17.937  31.765 -0.3002 -0.1161 -0.0996
 6607W        W49519  22.826  15.085  28.162  0.0747  0.1622 -0.0760
 6608W        W49520  23.807  18.554  30.425 -0.0221  0.2104  0.1242
 6609W        W49521  22.633  16.184  28.514  0.0141 -0.1595  0.1362
 6610W        W49522  24.716  15.127  28.630  0.0940  0.0866 -0.1297
 6611W        W49523  21.931  15.051  28.483 -0.0047 -0.3528 -0.0654
 6612W        W49524  23.723  15.266  29.436  0.2171 -0.0528 -0.1554
 6613W        W49525  26.080  16.177  30.517 -0.0666 -0.1294  0.1706
 6614W        W49526  21.012  15.953  27.457  0.4910  0.1564  0.0796
 6615W        W49527  25.927  16.889  27.125 -0.4490  0.0809 -0.0950
 6616W        W49528  24.289  15.450  30.390 -0.1141  0.0077  0.1806
 6617W        W49529  22.838  17.203  27.028 -0.1479  0.1477 -0.2617
 6618W        W49530  25.353  16.794  29.264 -0.1322 -0.2356 -0.1450
 6619W        W49531  23.726  19.626  30.909  0.2355  0.0445  0.0476
 6620W        W49532  22.373  15.451  31.035  0.3226 -0.1093  0.3566
 6621W        W49533  23.909  17.507  29.688 -0.1227  0.1729  0.0865
 6622W        W49534  26.348  17.389  30.548 -0.0425  0.0789  0.1239
 6623W        W49535  23.260  14.012  27.598 -0.3778  0.1150 -0.3483
 6624W        W49536  22.491  15.217  26.692  0.1100 -0.1930  0.0822
 6625W        W49537  22.005  18.391  26.756 -0.0017 -0.2213  0.2099
 6626W        W49538  25.798  16.314  29.607  0.0623 -0.3139  0.0068
 6627W        W49539  24.729  16.269  30.814 -0.2555 -0.0395 -0.0462
 6628W        W49540  23.698  17.920  27.484 -0.1082  0.1342 -0.1157
 6629W        W49541  25.016  13.245  29.453  0.0067  0.0521  0.0175
 6630W        W49542  23.149  17.204  30.284  0.0529 -0.2153  0.1079
 6631W        W49543  22.581  18.837  30.285  0.0862 -0.4062  0.1051
 6632W        W49544  21.673  15.353  25.690 -0.1522 -0.0012 -0.1434
 6633W        W49545  23.443  16.708  30.424 -0.1253  0.2761 -0.2051
 6634W        W49546  23.232  16.910  27.228 -0.1320 -0.1974  0.1269
 6635W        W49547  23.162  19.448  26.752 -0.3268 -0.1064 -0.2351
 6636W        W49548  24.769  18.001  30.094 -0.1257  0.0631  0.0060
 6637W        W49549  23.651  16.787  28.119  0.1777  0.1258  0.3046
 6638W        W49550  23.876  16.630  30.127  0.2401 -0.0878 -0.1043
 6639W        W49551  22.083  14.523  28.482  0.5020 -0.1846  0.0868
 6640W        W49552  25.703  15.517  29.393  0.2049 -0.2892  0.0730
 6641W        W49553  25.051  14.417  29.101  0.0506  0.3771 -0.0925
 6642W        W49554  23.467  16.215  29.502  0.1901  0.0089 -0.3688
 6643W        W49555  22.581  15.790  28.117 -0.1185 -0.0993  0.2145
 6644W        W49556  23.482  16.562  26.545 -0.1315 -0.1172 -0.1748
 6645W        W49557  23.507  16.601  28.683  0.1572  0.1149  0.1078
 6646W        W49558  24.190  16.352  30.846  0.1274  0.2235 -0.2833
 6647W        W49559  21.567  14.861  30.468 -0.1610 -0.3484  0.1588
 6648W        W49560  21.551  15.489  28.477  0.2307 -0.1840  0.2915
 6649W        W49561  21.588  14.346  28.339  0.0311  0.2457  0.0720
 6650W        W49562  24.890  17.435  27.487 -0.0696  0.1685  0.1581
 6651W        W49563  23.327  15.118  29.107 -0.2911 -0.0856 -0.3670
 6652W        W49564  22.715  16.204  29.042 -0.1748  0.2821 -0.1037
 6653W        W49565  24.600  17.838  27.440 -0.1164 -0.0094 -0.1624
 6654W        W49566  24.216  17.917  28.841 -0.1675  0.0896  0.0074
 6655W        W49567  25.066  13.476  30.006  0.0376 -0.4483 -0.0233
 6656W        W49568  23.681  16.832  29.210  0.0239  0.0261  0.1010
 6657W        W49569  22.487  16.465  25.917 -0.1679 -0.0819  0.4491
 6658W        W49570  25.586  18.338  30.758  0.3119  0.1266 -0.1934
 6659W        W49571  23.484  15.864  30.520 -0.0308  0.2144  0.1251
 6660W        W49572  21.328  16.092  27.127  0.1883  0.2147 -0.0612
 6661W        W49573  26.257  15.096  28.250  0.2005  0.0556  0.1281
 6662W        W49574  23.735  16.256  29.097  0.0549 -0.0982 -0.0371
 6663W        W49575  24.154  16.650  28.227  0.3984 -0.2204  0.0675
 6664W        W49576  23.351  16.281  30.255 -0.0455 -0.3309 -0.1768
 6665W        W49577  22.391  17.731  30.380  0.5006 -0.0625 -0.1755
 6666W        W49578  22.301  13.836  30.668  0.1417  0.1012 -0.0929
 6667W        W49579  24.931  16.706  28.548  0.4600  0.4154  0.0356
 6668W        W49580  24.107  19.106  30.257  0.1419 -0.0903  0.1387
 6669W        W49581  24.619  16.761  27.975  0.1562 -0.0475 -0.0883
 6670W        W49582  25.109  13.906  30.442  0.1721  0.2998  0.2123
 6671W        W49583  24.705  16.634  30.072  0.2204 -0.1678 -0.2539
 6672W        W49584  23.793  14.617  30.873 -0.0425  0.0725 -0.2122
 6673W        W49585  22.455  16.270  29.919  0.1002 -0.0278 -0.4032
 6674W        W49586  25.705  15.637  30.198  0.3768 -0.0439 -0.2075
 6675W        W49587  21.733  13.778  28.285 -0.2010 -0.1371 -0.1221
 6676W        W49588  23.982  14.900  28.659  0.3550 -0.0163 -0.1459
 6677W        W49589  23.123  17.227  28.018  0.0218  0.3802 -0.4491
 6678W        W49590  24.201  15.724  29.964  0.4551 -0.0279 -0.1313
 6679W        W49591  23.701  14.676  27.958  0.2298  0.0262  0.1522
 6680W        W49592  24.462  15.148  30.765 -0.3131  0.0736 -0.0587
 6681W        W49593  23.743  17.629  28.569 -0.0269  0.1051 -0.3059
 6682W        W49594  25.440  17.162  31.091  0.2319  0.0520  0.2899
 6683W        W49595  22.204  16.792  26.143 -0.0339  0.3344  0.0949
 6684W        W49596  25.142  16.662  28.003 -0.1252  0.0668  0.3380
 6685W        W49597  24.684  18.550  29.952  0.2266  0.1843 -0.2213
 6686W        W49598  24.260  18.326   0.110  0.1085 -0.0295 -0.1209
 6687W        W49599  24.161  16.481  29.155  0.3093  0.0914 -0.1568
 6688W        W49600  24.706  15.718  30.162  0.0698 -0.0757  0.0464
 6689W        W49601  21.663  14.688  28.732 -0.4345 -0.2397 -0.2039
 6690W        W49602  22.032  15.993  27.307  0.0325  0.3096  0.2616
 6691W        W49603  24.015  16.781  28.729  0.4152 -0.1656  0.2402
 6692W        W49604  25.013  17.758  30.432 -0.0982 -0.0934 -0.2080
 6693W        W49605  22.520  15.390  29.553  0.1542  0.0703  0.0717
 6694W        W49606  24.566  14.228  28.918 -0.1290  0.1177 -0.0043
 6695W        W49607  23.038  17.731  31.324 -0.1608  0.3914 -0.0108
 6696W        W49608  23.805  16.115  30.045 -0.0503  0.2378  0.0954
 6697W        W49609  24.472  16.109   0.083  0.1371 -0.2389 -0.0621
 6698W        W49610  23.209  18.258  31.407 -0.1211  0.1992  0.2310
 6699W        W49611  22.107  15.263  29.322 -0.1729 -0.2147 -0.1086
 6700W        W49612  21.576  17.172  30.210  0.4533 -0.2886  0.0001
 6701W        W49613  21.387  19.021  31.900  0.2835  0.2465  0.1489
 6702W        W49614  22.703  18.090  30.227  0.1665  0.0741 -0.2146
 6703W        W49615  25.017  15.428   0.654  0.0814  0.0104  0.0718
 6704W        W49616  23.735  15.599   0.068 -0.3604  0.0977 -0.0612
 6705W        W49617  23.249  15.588  31.969 -0.1217  0.2235 -0.0803
 6706W        W49618  23.072  19.566  29.654 -0.1557 -0.1112  0.0039
 6707W        W49619  24.376  17.890  31.892  0.1446  0.2174 -0.2118
 6708W        W49620  23.343  14.713  31.619 -0.2737  0.3417  0.0138
 6709W        W49621  23.799  15.185   1.284  0.2412 -0.1167  0.1009
 6710W        W49622  22.162  16.502  31.057  0.4202 -0.2213  0.1315
 6711W        W49623  25.431  17.328  31.916 -0.1216 -0.1410 -0.1335
 6712W        W49624  22.186  17.488  31.275  0.1308 -0.1422 -0.3500
 6713W        W49625  22.235  16.510  31.887 -0.1009 -0.0453  0.0021
 6714W        W49626  25.232  17.605  31.359  0.1151 -0.1969  0.1843
 6715W        W49627  23.718  16.318  31.411 -0.3711  0.0136  0.0510
 6716W        W49628  22.927  13.257  30.828  0.0968  0.1438 -0.0860
 6717W        W49629  22.379  14.484  30.907 -0.1852  0.3946 -0.1307
 6718W        W49630  21.689  16.440  31.985  0.0358  0.0779  0.1882
 6719W        W49631  24.176  14.232  30.930 -0.0958  0.3020  0.0361
 6720W        W49632  24.093  16.649  31.337  0.0940 -0.1073 -0.1759
 6721W        W49633  24.313  16.627  30.408 -0.0150  0.2920  0.0709
 6722W        W49634  22.505  15.366   0.484 -0.0300  0.2215 -0.0410
 6723W        W49635  21.619  15.301  29.522 -0.0312 -0.1843 -0.1086
 6724W        W49636  21.101  17.723  30.495  0.0487 -0.0976 -0.0764
 6725W        W49637  22.261  16.298  30.652 -0.0086 -0.1125 -0.1900
 6726W        W49638  23.612  16.820  31.379  0.0540  0.2332 -0.4817
 6727W        W49639  23.483  17.475  31.232 -0.1141 -0.5298 -0.6359
 6728W        W49640  23.481  14.455   0.077 -0.0519 -0.0902 -0.0014
 6729W        W49641  23.329  16.256  30.797  0.2217  0.0225  0.2235
 6730W        W49642  24.257  14.387  31.858 -0.3052  0.0795  0.0727
 6731W        W49643  23.412  15.121  31.946 -0.0806  0.0439  0.0862
 6732W        W49644  24.388  17.138  31.843  0.1423 -0.0348 -0.0704
 6733W        W49645  23.395  17.604  30.451 -0.2402  0.1204 -0.2175
 6734W        W49646  25.039  16.139  31.294 -0.0882 -0.2238  0.0609
 6735W        W49647  24.582  16.498  31.224 -0.1001 -0.0038  0.1699
 6736W        W49648  22.899  15.258  30.894 -0.2554 -0.0780  0.0919
 6737W        W49649  24.428  16.692   0.610  0.0995  0.0217  0.0181
 6738W        W49650  24.254  16.417  31.718  0.2095 -0.3450  0.2807
 6739W        W49651  23.391  15.785  31.036  0.2750 -0.2336 -0.2614
 6740W        W49652  22.856  17.145  29.861  0.0608  0.0516  0.4025
 6741W        W49653  19.905  15.464  30.517 -0.1362  0.1984  0.4331
 6742W        W49654  22.884  16.224   0.339 -0.2723  0.0530 -0.3488
 6743W        W49655  24.587  14.434   1.879 -0.2039 -0.2118  0.1967
 6744W        W49656  22.429  15.766  29.891  0.0466  0.1038  0.1310
 6745W        W49657  24.914  17.261  31.735 -0.2662  0.0253  0.1748
 6746W        W49658  21.612  17.628  29.087 -0.2238 -0.0110 -0.0442
 6747W        W49659  22.007  17.726  31.707  0.1693 -0.1960  0.1216
 6748W        W49660  22.634  14.916  31.553  0.0500  0.2623 -0.0182
 6749W        W49661  23.293  14.730  31.095  0.4947  0.3116  0.3133
 6750W        W49662  23.911  17.132  31.105 -0.0357  0.1205 -0.1664
 6751W        W49663  22.815  14.468  31.694  0.0646  0.1881  0.0575
 6752W        W49664  23.774  16.333  30.507 -0.1384  0.1091  0.2425
 6753W        W49665  24.895  18.547  31.380 -0.0088  0.2672 -0.2854
 6754W        W49666  21.612  17.952  30.523  0.2683  0.0619 -0.1037
 6755W        W49667  21.196  18.663  30.476 -0.0295 -0.4767  0.1083
 6756W        W49668  23.788  16.960  29.733  0.2202 -0.2559 -0.2165
 6757W        W49669  22.815  16.263  30.663 -0.1005 -0.0013 -0.2852
 6758W        W49670  21.180  16.211  31.803 -0.2756  0.0880 -0.0158
 6759W        W49671  23.034  16.835  30.702 -0.0365  0.0396  0.1804
 6760W        W49672  22.040  13.556  30.306 -0.0555  0.2239 -0.3558
 6761W        W49673  23.732  17.782  30.126  0.0706 -0.0848  0.2805
 6762W        W49674  24.421  18.355  31.529  0.1448  0.2230 -0.1440
 6763W        W49675  25.715  16.361  31.686 -0.0106 -0.1222 -0.2373
 6764W        W49676  23.621  20.319  19.660  0.0749  0.1340  0.0219
 6765W        W49677  23.480  20.206  17.356 -0.2615  0.2497 -0.1723
 6766W        W49678  23.921  19.772  15.730 -0.1023  0.0482  0.1361
 6767W        W49679  24.569  19.478  17.452 -0.0953 -0.1305 -0.2725
 6768W        W49680  22.994  20.633  16.159  0.1113 -0.0311  0.0575
 6769W        W49681  24.165  21.630  17.228 -0.1207 -0.0083 -0.2219
 6770W        W49682  22.788  18.472  18.918 -0.0521 -0.0658 -0.1128
 6771W        W49683  24.324  21.556  18.175  0.0324 -0.1644  0.1100
 6772W        W49684  26.118  22.287  18.697  0.2936 -0.1490 -0.0673
 6773W        W49685  23.740  21.158  15.587  0.0693 -0.0767 -0.2067
 6774W        W49686  23.121  20.666  18.090 -0.4001 -0.2495  0.1758
 6775W        W49687  23.396  21.843  18.810  0.4203  0.1029  0.0738
 6776W        W49688  23.962  20.141  16.403 -0.0564 -0.1970 -0.1310
 6777W        W49689  22.559  21.572  19.215 -0.1792  0.2789  0.0653
 6778W        W49690  26.359  21.391  19.051 -0.0477 -0.1256  0.1525
 6779W        W49691  22.451  20.279  16.013  0.0073 -0.0601  0.0104
 6780W        W49692  23.446  20.901  17.830  0.4084 -0.0715 -0.2200
 6781W        W49693  23.766  20.611  17.239  0.1517  0.1015  0.0935
 6782W        W49694  24.081  21.049  16.997  0.2360  0.1335  0.1886
 6783W        W49695  22.030  19.726  17.898 -0.3034 -0.0023  0.3201
 6784W        W49696  22.926  18.664  19.844 -0.1500  0.1902  0.2527
 6785W        W49697  24.351  20.906  16.588  0.0125  0.0971 -0.1630
 6786W        W49698  22.365  19.946  16.473 -0.3339 -0.0415 -0.0184
 6787W        W49699  22.739  20.816  17.775  0.5119 -0.2094  0.2462
 6788W        W49700  22.490  20.265  19.061  0.3840  0.0699 -0.2702
 6789W        W49701  25.009  18.427  19.194 -0.0258 -0.0047 -0.0062
 6790W        W49702  25.057  20.267  17.497  0.1829  0.0319  0.1415
 6791W        W49703  22.535  22.290  18.358  0.0903  0.0062  0.1524
 6792W        W49704  24.517  22.598  18.323  0.2351  0.1433  0.1475
 6793W        W49705  24.727  21.406  20.929  0.1583  0.2694  0.3493
 6794W        W49706  22.730  21.819  17.435 -0.0011  0.1367  0.2019
 6795W        W49707  23.235  22.578  17.254 -0.0316  0.0849 -0.2053
 6796W        W49708  22.335  21.544  16.557 -0.2033 -0.1468  0.3338
 6797W        W49709  25.553  20.337  17.672  0.1904 -0.0487 -0.0274
 6798W        W49710  26.512  21.155  20.422 -0.1404 -0.1844  0.0283
 6799W        W49711  23.229  23.839  18.855 -0.1462 -0.1046  0.1458
 6800W        W49712  23.372  21.869  15.303  0.1826 -0.1521 -0.1403
 6801W        W49713  25.513  22.814  20.663 -0.2710  0.1139  0.2821
 6802W        W49714  24.738  23.646  19.444  0.2718 -0.0748 -0.1314
 6803W        W49715  23.814  19.456  18.597 -0.4487 -0.0900 -0.3117
 6804W        W49716  23.424  21.028  17.327  0.3493  0.0386 -0.0093
 6805W        W49717  23.377  21.505  15.625  0.1323  0.1585 -0.0803
 6806W        W49718  23.343  21.763  18.247  0.0886  0.1794 -0.2890
 6807W        W49719  24.380  20.493  20.423 -0.1532 -0.1765 -0.0290
 6808W        W49720  23.422  22.220  16.933  0.0627 -0.2913 -0.2492
 6809W        W49721  26.741  18.869  20.520 -0.1095  0.2313  0.3340
 6810W        W49722  22.432  21.837  15.475  0.1234 -0.3040  0.2235
 6811W        W49723  25.277  19.906  16.173  0.0778 -0.1381  0.1778
 6812W        W49724  21.858  18.716  16.008 -0.1766  0.2016  0.2763
 6813W        W49725  23.838  18.010  16.715 -0.0880 -0.1010 -0.0795
 6814W        W49726  23.327  19.556  18.729 -0.1439  0.0067  0.0817
 6815W        W49727  23.263  23.512  17.621  0.2164  0.1012 -0.2003
 6816W        W49728  22.614  19.396  18.331  0.1521  0.3136 -0.1498
 6817W        W49729  25.996  20.369  19.930  0.0478 -0.0204  0.0647
 6818W        W49730  24.856  19.804  17.787  0.0286 -0.2022 -0.0425
 6819W        W49731  24.574  19.568  19.767 -0.0123 -0.2091  0.0627
 6820W        W49732  22.507  21.800  18.506 -0.1968 -0.1897  0.1347
 6821W        W49733  22.438  20.426  17.918 -0.1102 -0.0349  0.1923
 6822W        W49734  24.870  20.762  16.483  0.0634  0.0339  0.1356
 6823W        W49735  25.880  21.219  17.714  0.0047  0.0577  0.0514
 6824W        W49736  24.228  22.197  16.432  0.0027 -0.2547 -0.0844
 6825W        W49737  22.837  21.211  16.268 -0.0182 -0.0178 -0.2408
 6826W        W49738  23.574  20.684  18.263  0.0286  0.0367 -0.0270
 6827W        W49739  23.278  19.981  19.925  0.2485 -0.1315 -0.0189
 6828W        W49740  22.472  18.534  14.986 -0.1399  0.1680 -0.0378
 6829W        W49741  25.092  21.986  20.300 -0.0154  0.0983  0.3741
 6830W        W49742  22.005  21.957  18.448  0.0056  0.0450  0.2767
 6831W        W49743  24.110  19.300  18.940 -0.0558 -0.0247 -0.0103
 6832W        W49744  23.498  21.528  16.988  0.2821  0.1436  0.1568
 6833W        W49745  25.521  21.107  19.417  0.0346 -0.2806  0.3903
 6834W        W49746  24.221  20.564  16.202 -0.3693  0.3386  0.2059
 6835W        W49747  25.968  18.341  17.082  0.2332 -0.1057 -0.1211
 6836W        W49748  24.643  18.443  18.820  0.0664 -0.3756 -0.0862
 6837W        W49749  23.020  20.322  16.613  0.1230 -0.2339  0.1408
 6838W        W49750  23.601  21.387  16.091 -0.1804 -0.1760  0.0901
 6839W        W49751  25.204  22.401  19.028 -0.1890  0.2391  0.3531
 6840W        W49752  25.385  19.333  16.400  0.4392 -0.3469  0.1927
 6841W        W49753  22.935  22.101  18.499 -0.1647 -0.2842  0.1604
 6842W        W49754  23.637  19.929  18.491  0.2424  0.1788 -0.0827
 6843W        W49755  25.146  21.311  19.637  0.1029  0.1102  0.3360
 6844W        W49756  20.716  21.745  15.445  0.2035  0.1409 -0.0286
 6845W        W49757  22.213  20.777  16.929  0.1297  0.0171  0.0386
 6846W        W49758  23.612  21.006  16.849  0.2214 -0.1790  0.3730
 6847W        W49759  22.872  19.038  16.759  0.0624 -0.4083 -0.2412
 6848W        W49760  22.487  21.264  18.635  0.1557 -0.1019  0.2139
 6849W        W49761  24.390  18.227  18.088  0.1113 -0.1563  0.2329
 6850W        W49762  23.011  18.671  17.802  0.1447  0.1396  0.1141
 6851W        W49763  25.133  16.832  15.782  0.0966 -0.0851 -0.0309
 6852W        W49764  22.514  20.577  16.508 -0.2642  0.3867  0.0676
 6853W        W49765  23.963  21.438  16.680  0.2501  0.2236 -0.2699
 6854W        W49766  24.616  19.676  16.917 -0.1851  0.0215 -0.3730
 6855W        W49767  23.077  21.303  16.934 -0.0214 -0.1972 -0.1088
 6856W        W49768  22.517  20.816  18.235  0.2475 -0.2472  0.0702
 6857W        W49769  21.661  21.790  17.680 -0.0754  0.1551  0.2867
 6858W        W49770  22.172  18.253  18.193  0.1358 -0.1946 -0.0444
 6859W        W49771  22.927  20.294  17.180  0.0732 -0.0518 -0.1228
 6860W        W49772  24.305  18.462  19.809 -0.2259  0.0378  0.3406
 6861W        W49773  23.244  19.314  15.841  0.2415  0.0013 -0.0372
 6862W        W49774  23.745  19.360  16.919  0.3466 -0.4013  0.0670
 6863W        W49775  24.726  20.704  17.518 -0.6197  0.1013 -0.0250
 6864W        W49776  23.277  21.072  15.943 -0.2660  0.1485  0.1567
 6865W        W49777  25.333  17.816  19.790  0.0593 -0.2287 -0.0777
 6866W        W49778  23.843  21.974  16.797 -0.1142  0.1444 -0.0418
 6867W        W49779  24.751  22.589  18.835 -0.0013 -0.1793 -0.1197
 6868W        W49780  25.633  20.813  17.880 -0.0686  0.5173  0.2228
 6869W        W49781  22.134  19.250  18.122  0.3221 -0.1307 -0.3135
 6870W        W49782  21.954  19.415  15.134 -0.1967  0.2136  0.2234
 6871W        W49783  21.494  23.754  18.263  0.1257  0.1507 -0.0302
 6872W        W49784  23.534  19.715  16.072  0.1868  0.0376 -0.1126
 6873W        W49785  23.193  19.112  18.169 -0.0416  0.2706 -0.4069
 6874W        W49786  26.298  21.650  20.301 -0.0577  0.0998  0.0024
 6875W        W49787  22.584  21.513  17.055 -0.0048  0.3228 -0.0019
 6876W        W49788  22.865  24.416  16.952  0.1994 -0.0591  0.1041
 6877W        W49789  24.294  20.748  19.268 -0.0592 -0.0496  0.0971
 6878W        W49790  24.903  22.051  19.316 -0.0951 -0.0360  0.1080
 6879W        W49791  23.917  20.065  19.380 -0.0355 -0.0056 -0.0293
 6880W        W49792  22.296  18.954  15.859 -0.2982  0.1355  0.1727
 6881W        W49793  23.924  20.996  18.500  0.0717  0.4671 -0.1745
 6882W        W49794  21.651  20.914  14.714 -0.1155 -0.0841 -0.1388
 6883W        W49795  21.867  21.401  16.514  0.0953 -0.3054  0.2972
 6884W        W49796  23.125  21.686  17.812 -0.1841  0.0108 -0.2061
 6885W        W49797  25.879  19.313  19.895 -0.2592 -0.1423  0.1561
 6886W        W49798  21.948  19.244  19.010  0.2303  0.1026 -0.3072
 6887W        W49799  25.012  19.341  19.771  0.0608  0.1048 -0.1276
 6888W        W49800  22.071  20.422  16.620  0.1590 -0.1452  0.1501
 6889W        W49801  23.888  22.996  18.306  0.0776  0.5286  0.1265
 6890W        W49802  23.815  18.424  17.317 -0.3698 -0.5716 -0.1034
 6891W        W49803  24.297  19.313  15.840 -0.0611  0.2579 -0.0723
 6892W        W49804  25.407  21.618  20.132 -0.1125 -0.2778  0.5718
 6893W        W49805  25.617  20.201  16.810 -0.0343  0.1642  0.0004
 6894W        W49806  23.437  18.252  16.611  0.1473 -0.0491 -0.1784
 6895W        W49807  24.539  18.973  16.740  0.2402  0.1849  0.0594
 6896W        W49808  22.755  22.457  18.835 -0.2380  0.0765 -0.0113
 6897W        W49809  24.135  20.777  17.551 -0.2121 -0.2780  0.0078
 6898W        W49810  23.871  22.473  18.319 -0.1417  0.0368 -0.0092
 6899W        W49811  21.795  18.976  14.939 -0.0177  0.1634  0.1765
 6900W        W49812  24.955  19.837  17.317  0.0119  0.0785 -0.2350
 6901W        W49813  22.860  23.019  17.911 -0.1475  0.0211 -0.0415
 6902W        W49814  24.672  21.393  19.855 -0.2918 -0.3731 -0.2161
 6903W        W49815  24.433  23.348  17.133  0.0099  0.2500 -0.2889
 6904W        W49816  22.804  18.440  18.315  0.0615 -0.1223  0.1965
 6905W        W49817  24.033  20.255  17.450  0.1016 -0.0425 -0.0349
 6906W        W49818  23.197  19.957  17.774 -0.3338  0.0928  0.1029
 6907W        W49819  21.917  20.921  17.312 -0.0488 -0.1100 -0.1688
 6908W        W49820  25.520  19.606  17.734  0.4195  0.2141  0.0367
 6909W        W49821  24.934  17.860  18.978 -0.1184 -0.0517 -0.0305
 6910W        W49822  24.250  20.705  18.193  0.0399  0.0992  0.1259
 6911W        W49823  24.958  19.887  19.990 -0.2064 -0.1784  0.2167
 6912W        W49824  24.046  19.773  18.257  0.1065  0.2494  0.0756
 6913W        W49825  24.282  19.873  17.805  0.0486 -0.0315  0.2060
 6914W        W49826  22.833  19.914  16.235 -0.0231  0.1521  0.1633
 6915W        W49827  24.380  18.210  19.329 -0.0503 -0.1304  0.0102
 6916W        W49828  23.218  21.684  19.258 -0.0303  0.0642 -0.0831
 6917W        W49829  22.972  22.128  17.913  0.1137  0.0184 -0.0553
 6918W        W49830  25.645  20.154  19.594  0.0988  0.1939 -0.2595
 6919W        W49831  24.566  20.136  17.433  0.2581  0.0456 -0.2270
 6920W        W49832  25.203  18.810  19.879  0.0830 -0.2275 -0.2543
 6921W        W49833  24.498  19.872  16.492  0.2117  0.3277  0.3301
 6922W        W49834  22.950  21.872  15.619 -0.0036 -0.1102  0.1109
 6923W        W49835  23.937  21.919  18.242 -0.1037  0.1697  0.1298
 6924W        W49836  23.408  18.515  18.120 -0.0342  0.0591  0.3395
 6925W        W49837  24.377  23.061  18.112 -0.0371 -0.0962 -0.0359
 6926W        W49838  22.774  20.859  15.663  0.0710 -0.1660 -0.2677
 6927W        W49839  24.443  20.105  20.095  0.0800 -0.1491  0.4063
 6928W        W49840  21.169  22.139  15.502 -0.2667 -0.1286  0.0536
 6929W        W49841  24.254  19.320  16.963 -0.1961  0.0527 -0.1519
 6930W        W49842  22.913  22.189  16.549 -0.0079 -0.0700 -0.1762
 6931W        W49843  25.206  19.378  17.407  0.0197  0.1957 -0.1960
 6932W        W49844  21.374  21.134  15.666 -0.0208  0.1349  0.0074
 6933W        W49845  24.684  17.772  16.602  0.1202  0.3479  0.3519
 6934W        W49846  23.832  20.998  16.363  0.0575 -0.0053 -0.0266
 6935W        W49847  23.388  19.031  16.778  0.2522 -0.0464 -0.1052
 6936W        W49848  22.643  18.906  18.084 -0.1267  0.2481  0.1115
 6937W        W49849  22.274  24.014  18.904 -0.3299 -0.0211 -0.2370
 6938W        W49850  24.361  20.249  19.033  0.0585  0.2802  0.2761
 6939W        W49851  24.416  19.090  17.797 -0.5148 -0.2772 -0.2188
 6940W        W49852  24.334  22.621  17.840  0.0333  0.0067 -0.2299
 6941W        W49853  23.725  21.909  19.735  0.0484 -0.0248  0.1706
 6942W        W49854  22.119  19.786  15.949 -0.4364  0.1124  0.2239
 6943W        W49855  23.785  19.650  19.131 -0.0036  0.0396  0.2591
 6944W        W49856  24.059  19.934  18.771 -0.0007  0.1401 -0.0936
 6945W        W49857  22.614  21.786  17.936  0.2682 -0.1326  0.0629
 6946W        W49858  24.328  21.713  19.102 -0.0970  0.0609  0.1267
 6947W        W49859  23.164  19.861  15.704 -0.0858 -0.0335 -0.1811
 6948W        W49860  22.409  22.432  17.308  0.1365  0.3479  0.0609
 6949W        W49861  23.337  19.420  19.201  0.2806 -0.3229 -0.3045
 6950W        W49862  25.303  21.978  18.583 -0.0593 -0.0041  0.1050
 6951W        W49863  22.040  20.491  18.918  0.0598 -0.0919  0.1457
 6952W        W49864  22.234  20.975  17.706  0.1055  0.0949  0.1843
 6953W        W49865  24.386  21.345  17.649 -0.0119 -0.0419  0.0860
 6954W        W49866  25.004  21.582  20.539  0.0398 -0.2144  0.0339
 6955W        W49867  24.970  20.324  19.629 -0.0516 -0.1037 -0.3075
 6956W        W49868  23.284  20.908  19.350 -0.4024 -0.0958  0.2952
 6957W        W49869  24.244  18.319  17.575 -0.1522 -0.0723  0.1077
 6958W        W49870  24.251  21.319  16.274  0.2406  0.1113 -0.4312
 6959W        W49871  24.784  20.597  19.235  0.0406 -0.4890  0.2942
 6960W        W49872  22.856  20.332  15.641  0.0306  0.1574 -0.1060
 6961W        W49873  22.316  21.442  17.491 -0.0807  0.0434  0.1225
 6962W        W49874  22.586  21.126  16.736  0.1216  0.4205 -0.6782
 6963W        W49875  23.472  19.589  18.180 -0.4135  0.1640 -0.1849
 6964W        W49876  23.190  22.099  17.420  0.2844  0.0151 -0.0930
 6965W        W49877  21.447  22.675  16.055 -0.0040 -0.4332 -0.2059
 6966W        W49878  22.202  22.554  19.025  0.0809  0.1917 -0.0483
 6967W        W49879  24.747  19.041  18.181 -0.0539 -0.0560  0.0728
 6968W        W49880  24.220  20.103  15.966  0.2937  0.1377 -0.0939
 6969W        W49881  23.908  20.267  18.173  0.1047  0.2720 -0.1429
 6970W        W49882  26.115  17.756  19.091  0.2073  0.1845 -0.1625
 6971W        W49883  23.919  19.354  17.969 -0.2971  0.1546  0.4567
 6972W        W49884  24.470  17.703  19.471 -0.2959  0.3830 -0.0517
 6973W        W49885  22.855  20.233  18.078  0.2032 -0.0380  0.3319
 6974W        W49886  25.203  20.277  18.334 -0.0805 -0.0721  0.0621
 6975W        W49887  21.210  20.569  18.429  0.1152 -0.0423  0.2806
 6976W        W49888  24.784  23.022  18.477  0.0266  0.1060  0.2567
 6977W        W49889  22.076  20.336  18.274 -0.0541 -0.2914  0.0464
 6978W        W49890  23.561  19.715  17.286  0.0559 -0.0882 -0.0027
 6979W        W49891  22.891  18.485  16.529  0.2108  0.2403 -0.0013
 6980W        W49892  23.877  21.557  19.300 -0.3756 -0.1543  0.3554
 6981W        W49893  25.751  21.440  19.093 -0.1100  0.2056  0.0392
 6982W        W49894  24.068  20.960  15.921 -0.0930  0.1038  0.0286
 6983W        W49895  25.421  19.667  19.930  0.1458  0.1463  0.2749
 6984W        W49896  24.142  22.113  19.814  0.0201  0.1684 -0.0982
 6985W        W49897  25.092  19.435  17.999  0.1067 -0.1665  0.2529
 6986W        W49898  23.580  19.771  16.598  0.2385  0.0876 -0.1953
 6987W        W49899  22.872  21.212  18.988  0.2186 -0.1627 -0.0759
 6988W        W49900  22.263  19.320  18.643  0.3172  0.0953 -0.1713
 6989W        W49901  24.379  21.293  19.402  0.2937 -0.0742 -0.2856
 6990W        W49902  24.012  18.840  17.578  0.1012  0.1179 -0.1995
 6991W        W49903  24.170  17.471  19.895 -0.3923 -0.1055 -0.0252
 6992W        W49904  24.784  20.056  19.188  0.0452  0.0907 -0.1127
 6993W        W49905  24.520  20.096  19.617 -0.2905 -0.4881  0.2184
 6994W        W49906  21.450  19.135  18.497  0.1426  0.0629 -0.0540
 6995W        W49907  24.374  22.473  19.512  0.1386  0.0309 -0.1146
 6996W        W49908  25.330  21.133  16.497  0.1257  0.1145  0.1592
 6997W        W49909  26.176  19.134  19.227 -0.1276  0.0825 -0.0177
 6998W        W49910  24.892  20.368  17.963  0.1131 -0.2832 -0.2149
 6999W        W49911  24.655  20.348  16.413  0.1424 -0.2416 -0.1118
 7000W        W49912  21.949  20.384  17.139  0.2128 -0.0902 -0.1238
 7001W        W49913  23.859  19.490  21.132 -0.2596 -0.0397  0.1879
 7002W        W49914  23.076  19.456  15.384  0.2043 -0.1947 -0.1463
 7003W        W49915  25.118  18.713  20.430 -0.0325 -0.0915 -0.0286
 7004W        W49916  24.064  22.276  15.671 -0.1165 -0.0267  0.0931
 7005W        W49917  24.382  21.117  18.505 -0.0772  0.0522 -0.3015
 7006W        W49918  24.031  18.358  18.946  0.2304 -0.1017  0.0649
 7007W        W49919  23.575  20.084  18.965 -0.1803 -0.1601 -0.0658
 7008W        W49920  23.617  22.900  19.906 -0.0742  0.1830 -0.0923
 7009W        W49921  22.518  20.875  16.087 -0.1336  0.2916  0.3327
 7010W        W49922  22.681  19.647  15.646 -0.3122 -0.1196 -0.0071
 7011W        W49923  23.201  18.935  19.009 -0.1138  0.2281  0.0428
 7012W        W49924  25.116  20.858  19.899  0.0282 -0.1354 -0.1087
 7013W        W49925  23.766  18.960  17.173  0.0616  0.2198 -0.1751
 7014W        W49926  25.749  19.992  19.108  0.2427 -0.0172 -0.1480
 7015W        W49927  23.239  21.360  18.701  0.0666  0.0874 -0.0136
 7016W        W49928  24.245  18.056  16.971  0.2805  0.0612  0.0445
 7017W        W49929  23.752  23.815  17.627 -0.3424  0.3072 -0.0840
 7018W        W49930  23.773  20.571  19.215  0.1180  0.3763 -0.1511
 7019W        W49931  23.651  22.368  17.394 -0.0166 -0.0184  0.0057
 7020W        W49932  23.483  18.081  17.130 -0.0656 -0.3264 -0.4046
 7021W        W49933  24.667  21.079  18.992  0.0421  0.0283 -0.2419
 7022W        W49934  24.102  21.225  18.926 -0.1598  0.1041 -0.0296
 7023W        W49935  25.227  19.877  18.740  0.0138 -0.0943  0.1165
 7024W        W49936  23.951  22.496  20.227 -0.2038  0.2048  0.2662
 7025W        W49937  23.451  21.241  18.231 -0.1509  0.3059  0.2227
 7026W        W49938  24.760  20.984  19.538  0.1661 -0.1636  0.2363
 7027W        W49939  25.434  20.461  17.150  0.1307 -0.1829  0.0066
 7028W        W49940  22.620  20.697  18.703 -0.1198  0.2066 -0.1498
 7029W        W49941  21.642  18.813  17.630 -0.0264  0.1794  0.0875
 7030W        W49942  24.200  19.646  19.514 -0.1310  0.3271  0.5093
 7031W        W49943  24.567  20.975  17.900 -0.1933  0.0657 -0.1805
 7032W        W49944  23.147  19.538  16.329 -0.1282  0.0968 -0.1526
 7033W        W49945  23.253  20.195  16.070 -0.0301 -0.0789  0.0990
 7034W        W49946  22.932  22.902  19.227 -0.0815 -0.1230 -0.0534
 7035W        W49947  23.039  20.401  19.152  0.3520 -0.4032  0.1827
 7036W        W49948  22.191  22.840  15.199  0.2064 -0.0806  0.3457
 7037W        W49949  24.873  19.551  16.422 -0.0564  0.0191 -0.2590
 7038W        W49950  24.047  19.620  16.645  0.0504  0.3561 -0.0665
 7039W        W49951  24.513  21.050  17.236  0.0353 -0.0762 -0.1312
 7040W        W49952  23.688  18.955  17.952  0.2076 -0.1190  0.1769
 7041W        W49953  22.138  21.833  15.943 -0.1097 -0.1271  0.0799
 7042W        W49954  22.036  21.534  15.547 -0.5138 -0.0151 -0.2897
 7043W        W49955  22.468  22.187  17.717  0.0735  0.0980 -0.0933
 7044W        W49956  23.547  22.083  17.807  0.0960  0.3688  0.0903
 7045W        W49957  23.885  21.804  20.732 -0.2384 -0.1192 -0.2253
 7046W        W49958  24.226  18.029  16.387 -0.0688  0.4070  0.1100
 7047W        W49959  26.428  20.071  19.831 -0.2455  0.1429  0.1213
 7048W        W49960  25.549  18.880  16.306 -0.1803 -0.2396  0.0190
 7049W        W49961  25.304  21.759  19.047  0.3792  0.0138  0.1020
 7050W        W49962  22.146  21.270  16.935 -0.1337 -0.0602  0.0165
 7051W        W49963  22.457  21.210  15.558 -0.1016 -0.0926 -0.1347
 7052W        W49964  22.807  19.837  19.208  0.2419 -0.1966  0.0917
 7053W        W49965  25.662  18.499  20.256  0.0345 -0.0879 -0.0298
 7054W        W49966  22.129  23.799  19.362  0.2822  0.4300  0.1036
 7055W        W49967  24.983  20.725  17.085  0.3573  0.0881 -0.0093
 7056W        W49968  22.967  21.284  17.455  0.2968 -0.0109 -0.1623
 7057W        W49969  23.975  21.119  18.014 -0.1184 -0.0158  0.0292
 7058W        W49970  26.068  17.498  17.587  0.2004 -0.0435  0.0890
 7059W        W49971  24.380  19.363  16.420 -0.2210  0.0398  0.2971
 7060W        W49972  24.419  19.684  19.060 -0.3866  0.1574 -0.2117
 7061W        W49973  21.912  21.953  16.361  0.2049  0.0628  0.1644
 7062W        W49974  23.486  21.683  16.526  0.1674 -0.1054 -0.0866
 7063W        W49975  24.181  22.416  18.703  0.1371 -0.2496  0.2994
 7064W        W49976  23.326  20.035  16.911 -0.0420  0.1924 -0.0331
 7065W        W49977  24.422  19.603  18.586 -0.0665  0.1439  0.1730
 7066W        W49978  23.706  20.384  18.621  0.1935 -0.3683 -0.0256
 7067W        W49979  25.764  18.135  19.162  0.1369  0.1578 -0.0467
 7068W        W49980  23.104  23.049  17.434  0.1650 -0.1698  0.1164
 7069W        W49981  25.729  19.418  17.265 -0.1954  0.0465 -0.1087
 7070W        W49982  24.806  19.786  21.052  0.1010  0.0209  0.1701
 7071W        W49983  21.670  20.031  18.332 -0.2161 -0.2198 -0.4940
 7072W        W49984  24.379  20.655  15.661  0.0345 -0.0012 -0.0451
 7073W        W49985  26.895  21.492  19.862 -0.0733 -0.2837  0.1044
 7074W        W49986  24.373  20.619  17.120 -0.2775  0.0267 -0.0771
 7075W        W49987  25.566  21.303  20.580 -0.1680  0.0460 -0.1108
 7076W        W49988  23.361  20.628  16.869 -0.0600  0.1064 -0.0639
 7077W        W49989  24.817  18.617  17.048 -0.0484 -0.1575  0.0258
 7078W        W49990  24.007  21.678  17.817 -0.1417 -0.2143  0.1617
 7079W        W49991  23.666  20.459  17.780  0.0161  0.1349  0.2078
 7080W        W49992  24.587  21.812  20.108  0.1780  0.2630  0.2559
 7081W        W49993  22.431  19.413  16.003 -0.1443 -0.1745 -0.2713
 7082W        W49994  24.587  20.992  16.074 -0.1328  0.0405  0.1448
 7083W        W49995  24.921  19.459  18.973  0.0293  0.2981  0.0221
 7084W        W49996  22.002  21.061  15.714 -0.0528  0.0478  0.1373
 7085W        W49997  24.525  19.511  18.060  0.0674  0.1620 -0.2031
 7086W        W49998  24.981  22.341  18.406 -0.3843 -0.2721  0.0119
 7087W        W49999  21.333  20.182  16.221  0.0971 -0.3392 -0.0383
 7088W        W50000  24.607  21.537  18.711 -0.1800 -0.1692 -0.4382
 7089W        W50001  24.521  20.024  20.640  0.0095 -0.0026  0.0982
 7090W        W50002  23.672  19.298  16.403  0.1381 -0.2203  0.2164
 7091W        W50003  23.154  20.509  17.615 -0.1436  0.1278 -0.0921
 7092W        W50004  21.089  21.310  15.258 -0.1376 -0.2640  0.1060
 7093W        W50005  25.691  20.472  19.020  0.2788 -0.0230  0.0564
 7094W        W50006  25.480  19.145  20.106 -0.0693 -0.0041  0.0578
 7095W        W50007  22.214  20.602  15.731  0.1734 -0.1640 -0.1987
 7096W        W50008  25.454  17.508  19.398 -0.0117  0.0776 -0.1625
 7097W        W50009  24.340  22.785  20.435  0.1811 -0.0871  0.0719
 7098W        W50010  23.475  22.892  20.440 -0.1150 -0.1557  0.3438
 7099W        W50011  24.061  19.657  16.169 -0.1621 -0.3330 -0.2213
 7100W        W50012  22.880  19.341  18.934 -0.3687  0.3274 -0.3587
 7101W        W50013  22.888  21.019  18.487  0.0367 -0.1931 -0.2085
 7102W        W50014  23.510  21.925  16.106 -0.1229 -0.0552  0.0258
 7103W        W50015  24.168  20.618  18.683 -0.2762 -0.1569 -0.1708
 7104W        W50016  24.738  20.664  18.368  0.2146  0.1904 -0.1524
 7105W        W50017  25.468  20.674  18.449 -0.2793  0.0680 -0.2788
 7106W        W50018  23.670  18.752  16.533  0.1544 -0.0728  0.1034
 7107W        W50019  24.871  18.196  17.874  0.0136  0.3727 -0.2945
 7108W        W50020  25.010  18.289  17.410 -0.1174 -0.3704  0.1678
 7109W        W50021  22.860  21.713  18.847 -0.2119  0.1073 -0.2154
 7110W        W50022  21.754  19.555  15.596 -0.0232  0.1451  0.0598
 7111W        W50023  22.093  20.916  16.367  0.3636  0.2492 -0.0665
 7112W        W50024  22.414  23.347  17.942  0.1545 -0.1784 -0.0197
 7113W        W50025  23.796  18.412  17.866  0.0371 -0.0292 -0.1433
 7114W        W50026  24.782  20.301  18.734 -0.0234  0.0835 -0.1112
 7115W        W50027  24.653  21.521  17.222 -0.4765 -0.4193 -0.1499
 7116W        W50028  22.572  19.511  15.212  0.0237  0.0204 -0.0969
 7117W        W50029  24.764  20.337  16.910 -0.0083  0.1341  0.0051
 7118W        W50030  22.997  20.772  17.217 -0.0306  0.1508 -0.1478
 7119W        W50031  22.578  18.017  17.039  0.0693  0.1570  0.2961
 7120W        W50032  25.323  20.786  17.478 -0.0942 -0.0909 -0.1424
 7121W        W50033  24.428  21.382  16.801  0.1759  0.0981  0.1754
 7122W        W50034  23.004  19.757  18.298  0.1740  0.0612  0.0047
 7123W        W50035  25.993  21.298  20.173 -0.1795  0.0988 -0.2994
 7124W        W50036  22.881  21.378  15.750 -0.4697 -0.0739 -0.0030
 7125W        W50037  22.439  19.378  19.126 -0.0723  0.0321  0.0588
 7126W        W50038  23.190  18.727  18.517  0.1421 -0.0005 -0.2293
 7127W        W50039  22.727  17.637  15.531  0.0098  0.0362  0.1273
 7128W        W50040  23.144  20.549  18.615  0.0501  0.2570 -0.0384
 7129W        W50041  23.553  21.432  17.777  0.2166 -0.0570 -0.0208
 7130W        W50042  24.397  22.448  16.881 -0.3572  0.0658 -0.1066
 7131W        W50043  23.580  21.294  19.025 -0.0092 -0.1240  0.3014
 7132W        W50044  24.073  22.125  19.271  0.1680  0.0314  0.2343
 7133W        W50045  21.451  17.647  17.269 -0.2591  0.0476 -0.1470
 7134W        W50046  24.171  19.849  17.168 -0.2243  0.0464 -0.0363
 7135W        W50047  23.153  23.482  19.320 -0.1370 -0.1080 -0.3300
 7136W        W50048  23.283  20.639  15.744 -0.2342 -0.1996 -0.1419
 7137W        W50049  25.776  20.662  19.547  0.0125 -0.0541  0.3399
 7138W        W50050  24.236  19.121  18.295  0.0148 -0.0053  0.0014
 7139W        W50051  22.098  20.055  17.514  0.0431 -0.4822 -0.0164
 7140W        W50052  24.438  20.157  18.368  0.0785 -0.0952 -0.0400
 7141W        W50053  25.055  20.925  18.738 -0.0745 -0.0533  0.0497
 7142W        W50054  22.961  20.865  16.703 -0.1943 -0.1244 -0.1987
 7143W        W50055  25.625  18.405  18.776  0.0893  0.0337 -0.1705
 7144W        W50056  23.272  21.145  16.468  0.0894  0.0649  0.0044
 7145W        W50057  21.718  20.662  18.521  0.1442 -0.1277 -0.0087
 7146W        W50058  22.351  18.518  15.540  0.1134  0.2537  0.0636
 7147W        W50059  24.998  19.315  20.358  0.2004  0.0906 -0.1446
 7148W        W50060  23.893  21.198  17.450 -0.1169 -0.3637 -0.0444
 7149W        W50061  25.505  20.477  19.967  0.0987  0.3074  0.1665
 7150W        W50062  23.822  19.317  15.892  0.0174 -0.2272 -0.3260
 7151W        W50063  26.214  20.925  16.936 -0.0578 -0.1029 -0.0879
 7152W        W50064  24.841  22.764  20.620  0.1167 -0.1157  0.0677
 7153W        W50065  25.088  23.801  19.876  0.0423  0.1492  0.0024
 7154W        W50066  23.709  21.543  18.516 -0.4477 -0.3090 -0.0376
 7155W        W50067  24.582  20.603  19.895 -0.1307 -0.3454 -0.0597
 7156W        W50068  23.079  19.845  17.351 -0.1462 -0.1737  0.0876
 7157W        W50069  23.892  20.626  16.686 -0.5894 -0.2623  0.2626
 7158W        W50070  23.453  22.276  16.481  0.1515 -0.1776  0.0190
 7159W        W50071  24.519  19.303  20.242 -0.1318 -0.3573 -0.1616
 7160W        W50072  23.384  20.207  18.161 -0.1261 -0.2888 -0.2589
 7161W        W50073  23.327  18.542  16.202  0.0899  0.0552  0.2462
 7162W        W50074  22.456  22.241  20.384  0.1971  0.0651  0.1768
 7163W        W50075  23.511  20.810  18.856 -0.1157 -0.0263  0.1147
 7164W        W50076  23.534  22.682  22.822 -0.1692 -0.0044  0.2134
 7165W        W50077  23.391  19.779  20.889 -0.0137  0.2123 -0.2827
 7166W        W50078  24.529  19.073  19.789 -0.3360 -0.0756 -0.1459
 7167W        W50079  25.425  19.911  20.825 -0.1075  0.2008  0.0395
 7168W        W50080  22.933  18.715  20.553  0.1670  0.0291 -0.1934
 7169W        W50081  23.581  21.227  21.170 -0.1515  0.3194  0.2391
 7170W        W50082  23.928  17.689  22.915 -0.5125  0.0639  0.0785
 7171W        W50083  24.838  21.718  21.822 -0.2081 -0.2035  0.0793
 7172W        W50084  24.367  21.772  22.036  0.0276 -0.3466 -0.2137
 7173W        W50085  25.215  20.339  18.985 -0.0135  0.0145 -0.1919
 7174W        W50086  23.446  20.856  22.173 -0.1875 -0.1429  0.0944
 7175W        W50087  23.024  21.180  23.012 -0.0526  0.2120 -0.1410
 7176W        W50088  23.806  18.000  20.742 -0.0966  0.0354  0.1030
 7177W        W50089  22.058  18.666  20.203  0.1394  0.2364  0.0127
 7178W        W50090  24.618  19.128  21.700 -0.1217  0.1993  0.0126
 7179W        W50091  23.382  20.342  20.996  0.3975  0.0938 -0.2627
 7180W        W50092  23.084  19.111  21.625 -0.0739 -0.2027  0.3335
 7181W        W50093  23.423  19.403  21.781  0.1560  0.1024 -0.1101
 7182W        W50094  23.299  21.815  20.532  0.0879 -0.2293  0.0813
 7183W        W50095  23.696  17.620  21.807 -0.0696 -0.2634 -0.2166
 7184W        W50096  24.783  16.947  22.572  0.1096  0.0002 -0.1421
 7185W        W50097  23.880  22.772  20.710 -0.1703  0.1013 -0.1334
 7186W        W50098  23.900  21.043  19.464 -0.1602  0.0316 -0.2948
 7187W        W50099  21.810  18.447  22.651  0.3023 -0.2722  0.1622
 7188W        W50100  23.176  19.967  21.707  0.0018 -0.1873  0.4776
 7189W        W50101  25.211  18.640  22.129 -0.0578 -0.1594 -0.1263
 7190W        W50102  24.055  18.834  21.254  0.0612  0.1578 -0.2789
 7191W        W50103  24.856  23.985  22.785 -0.0254  0.0754  0.1063
 7192W        W50104  23.821  22.042  21.239 -0.1768  0.1606 -0.2331
 7193W        W50105  24.081  18.082  22.571 -0.0088  0.0147  0.3139
 7194W        W50106  22.762  19.570  20.979  0.1061  0.2422  0.4270
 7195W        W50107  23.508  23.926  21.460 -0.0728 -0.1806  0.0593
 7196W        W50108  23.597  22.117  20.191 -0.1105 -0.0366  0.0691
 7197W        W50109  26.663  21.841  21.445  0.0619 -0.3400  0.2289
 7198W        W50110  24.965  21.966  20.878  0.4223 -0.3929  0.2632
 7199W        W50111  24.200  22.100  23.966 -0.1522 -0.4348 -0.0587
 7200W        W50112  23.428  22.324  18.220  0.3226 -0.0425 -0.3402
 7201W        W50113  25.176  22.234  23.607 -0.1052 -0.0151 -0.4694
 7202W        W50114  22.728  21.342  23.400 -0.1305  0.0501 -0.2693
 7203W        W50115  24.877  20.750  22.799  0.0717  0.3506  0.0038
 7204W        W50116  24.072  19.842  21.475 -0.2845 -0.4834 -0.0688
 7205W        W50117  22.770  21.222  20.057  0.0881 -0.1794  0.2583
 7206W        W50118  22.978  21.539  20.901  0.3159 -0.0581 -0.0028
 7207W        W50119  23.956  20.496  23.258 -0.0825  0.0674  0.0854
 7208W        W50120  22.251  22.291  21.248  0.1686  0.1875 -0.0026
 7209W        W50121  25.449  19.649  24.467 -0.0044 -0.3679  0.0157
 7210W        W50122  23.848  20.555  20.167  0.2124 -0.2018  0.1748
 7211W        W50123  24.916  20.379  20.172  0.2279 -0.1662 -0.2491
 7212W        W50124  23.500  18.632  19.738 -0.1376  0.2944 -0.0288
 7213W        W50125  25.705  18.775  21.204  0.1353 -0.1935 -0.0232
 7214W        W50126  23.913  18.206  20.265  0.0668  0.1190 -0.0243
 7215W        W50127  23.108  23.707  22.800  0.2063  0.1055  0.1536
 7216W        W50128  22.804  18.922  22.035 -0.0436  0.0457  0.0125
 7217W        W50129  24.999  21.358  22.647 -0.0558 -0.0587  0.1210
 7218W        W50130  23.853  20.329  21.394 -0.3994 -0.1738 -0.4265
 7219W        W50131  23.881  19.898  22.720  0.0741  0.0904  0.1949
 7220W        W50132  22.109  22.162  22.534  0.0027  0.1452 -0.1776
 7221W        W50133  22.805  20.319  19.629  0.0419 -0.1476  0.3554
 7222W        W50134  25.924  23.165  21.089  0.0197 -0.1079  0.0327
 7223W        W50135  26.331  21.822  21.974 -0.1603  0.2043 -0.1134
 7224W        W50136  24.156  22.091  20.387 -0.2667 -0.4324  0.0226
 7225W        W50137  22.560  20.592  20.096 -0.1141  0.2875  0.1973
 7226W        W50138  24.712  22.866  22.972 -0.0216  0.3616  0.0066
 7227W        W50139  22.587  22.413  23.391 -0.1860 -0.0708  0.2024
 7228W        W50140  22.660  18.885  17.566 -0.3373 -0.2678 -0.1297
 7229W        W50141  26.150  21.473  22.359  0.2308  0.2305  0.2186
 7230W        W50142  23.080  22.320  23.476 -0.2406  0.3061  0.0266
 7231W        W50143  25.915  18.302  20.656 -0.3032 -0.1756  0.0949
 7232W        W50144  22.914  22.048  21.837 -0.0390  0.1926  0.5157
 7233W        W50145  24.813  22.001  23.325  0.5060  0.0912  0.4242
 7234W        W50146  25.587  21.123  19.920 -0.2025  0.1259 -0.0403
 7235W        W50147  25.480  19.136  22.303  0.2916  0.0968  0.2772
 7236W        W50148  25.868  18.304  22.857  0.0501 -0.0394  0.1478
 7237W        W50149  22.710  22.000  19.522  0.1094  0.3085  0.1333
 7238W        W50150  23.411  20.464  20.496 -0.3532 -0.2202 -0.1754
 7239W        W50151  26.613  21.632  22.338  0.3210 -0.5568  0.1139
 7240W        W50152  24.600  21.339  20.429  0.0239 -0.3839  0.1231
 7241W        W50153  22.584  23.006  21.841 -0.0154  0.1175  0.1955
 7242W        W50154  23.022  20.368  23.097  0.1378  0.0479  0.0028
 7243W        W50155  23.358  21.580  24.422  0.1781  0.3221 -0.1046
 7244W        W50156  22.976  23.354  18.832  0.4164  0.1282 -0.2163
 7245W        W50157  22.246  21.620  21.372  0.0653 -0.2447 -0.0974
 7246W        W50158  21.985  21.910  21.064  0.2779  0.1008 -0.0189
 7247W        W50159  23.102  18.563  21.757 -0.1713 -0.1960  0.1111
 7248W        W50160  24.190  22.043  22.439  0.2147  0.0107  0.1314
 7249W        W50161  25.727  17.847  20.804 -0.1303 -0.3132  0.3531
 7250W        W50162  23.784  18.075  22.124  0.1550  0.1700  0.0778
 7251W        W50163  26.168  18.052  19.808 -0.2558 -0.0389 -0.3973
 7252W        W50164  22.498  19.768  21.790  0.0815 -0.1680 -0.2611
 7253W        W50165  24.434  23.190  22.598 -0.1907  0.0642  0.0677
 7254W        W50166  24.234  18.852  20.127 -0.1686 -0.2263  0.2613
 7255W        W50167  23.996  21.530  21.205 -0.1543  0.1212 -0.2871
 7256W        W50168  22.340  19.523  21.318  0.0186  0.2964 -0.2387
 7257W        W50169  23.727  19.633  20.093 -0.1296 -0.1289  0.2170
 7258W        W50170  23.290  21.046  22.612  0.1054 -0.0718 -0.0677
 7259W        W50171  23.129  18.265  22.185  0.2215  0.2214  0.3274
 7260W        W50172  23.385  20.824  23.076 -0.0711  0.4000 -0.2962
 7261W        W50173  23.457  18.779  20.567 -0.1505 -0.1316  0.2389
 7262W        W50174  25.590  19.809  21.738  0.2309  0.1267 -0.0492
 7263W        W50175  23.911  20.585  20.633 -0.1379  0.0601 -0.6527
 7264W        W50176  23.281  20.439  20.029 -0.2393  0.2688  0.0151
 7265W        W50177  24.115  18.038  23.490 -0.1805  0.3541 -0.1878
 7266W        W50178  24.735  22.400  20.925  0.0425  0.0874  0.4205
 7267W        W50179  24.702  21.421  22.189  0.0862  0.2552  0.1645
 7268W        W50180  25.321  23.656  20.543  0.1066 -0.0512 -0.0251
 7269W        W50181  22.915  20.703  22.248  0.1185 -0.0581 -0.0734
 7270W        W50182  22.067  18.347  19.035 -0.2680  0.0096  0.1344
 7271W        W50183  23.368  22.817  20.967  0.1544  0.0311 -0.0241
 7272W        W50184  23.434  21.909  22.000 -0.1382 -0.0773 -0.2443
 7273W        W50185  22.027  18.782  19.264 -0.3317  0.1670 -0.1552
 7274W        W50186  25.151  20.979  21.506 -0.1455  0.0447 -0.1458
 7275W        W50187  24.289  21.027  19.842 -0.2274 -0.3659  0.0928
 7276W        W50188  23.351  19.922  22.694 -0.0053  0.2684 -0.1537
 7277W        W50189  25.013  17.730  24.556 -0.2152 -0.3319 -0.0952
 7278W        W50190  25.752  21.000  23.322 -0.1212 -0.1636 -0.0489
 7279W        W50191  23.834  20.163  20.914 -0.1592 -0.2670 -0.1262
 7280W        W50192  22.255  18.807  18.369  0.2315  0.0230  0.3635
 7281W        W50193  24.271  20.313  21.681  0.1874  0.0610  0.0390
 7282W        W50194  22.753  22.663  20.475 -0.0014  0.1606 -0.1360
 7283W        W50195  22.400  20.883  21.026  0.1428 -0.1081 -0.1259
 7284W        W50196  23.855  21.092  22.007  0.2645  0.1008  0.3179
 7285W        W50197  24.343  19.103  22.202 -0.0417 -0.0565 -0.0581
 7286W        W50198  22.604  19.255  21.664 -0.1782  0.2346 -0.0956
 7287W        W50199  22.875  19.160  22.552  0.0737 -0.0597 -0.0354
 7288W        W50200  22.502  18.913  19.755 -0.0685  0.2904 -0.0595
 7289W        W50201  23.196  21.521  22.579  0.1452  0.1131 -0.0434
 7290W        W50202  25.127  18.119  21.026  0.2936 -0.0646  0.2619
 7291W        W50203  25.892  20.822  20.222 -0.4545 -0.0817 -0.0079
 7292W        W50204  24.234  21.329  22.327 -0.1294 -0.0556  0.1921
 7293W        W50205  24.983  20.997  20.740  0.1389 -0.0057 -0.1111
 7294W        W50206  24.847  19.595  21.850  0.0137 -0.1939  0.1413
 7295W        W50207  24.732  18.690  20.093 -0.2897  0.0848  0.1912
 7296W        W50208  22.622  21.337  22.772  0.2972 -0.1175 -0.1153
 7297W        W50209  23.465  20.939  21.670 -0.0786 -0.0848  0.1150
 7298W        W50210  23.555  21.361  22.915  0.2944 -0.0906 -0.0343
 7299W        W50211  24.558  19.294  19.300  0.0006 -0.0622  0.1405
 7300W        W50212  26.725  22.276  22.287 -0.1962 -0.3015  0.1573
 7301W        W50213  22.806  20.126  21.979  0.2324  0.2820  0.2822
 7302W        W50214  24.611  21.786  22.530 -0.0718  0.0543  0.2867
 7303W        W50215  25.719  21.661  21.397 -0.1336  0.0194 -0.0216
 7304W        W50216  22.875  17.524  21.768  0.0356 -0.3754 -0.0776
 7305W        W50217  23.215  20.033  19.469 -0.0910  0.1360  0.2055
 7306W        W50218  23.384  19.753  22.205  0.0496  0.0074  0.0431
 7307W        W50219  22.462  21.946  19.964  0.2463  0.0731 -0.1254
 7308W        W50220  23.798  19.057  22.281 -0.0962 -0.0255 -0.2593
 7309W        W50221  23.296  19.249  23.438  0.1477  0.0173  0.0531
 7310W        W50222  24.147  17.283  22.738  0.0009 -0.0765  0.3954
 7311W        W50223  24.055  20.096  22.098  0.0165 -0.0894 -0.0898
 7312W        W50224  25.309  21.365  21.086 -0.2614 -0.0543  0.0485
 7313W        W50225  24.648  19.390  22.494  0.0921  0.0719  0.1894
 7314W        W50226  23.826  19.212  19.341  0.1112  0.0417  0.3545
 7315W        W50227  23.094  17.722  22.591 -0.0136 -0.1970  0.2860
 7316W        W50228  22.427  20.784  21.498 -0.0291 -0.3971 -0.0059
 7317W        W50229  22.525  21.859  22.691 -0.1007  0.4395  0.2110
 7318W        W50230  24.069  21.172  22.757  0.1319  0.0789  0.0702
 7319W        W50231  24.423  20.587  22.570  0.0651  0.1044  0.0475
 7320W        W50232  25.308  19.834  23.816 -0.1186 -0.1047  0.1387
 7321W        W50233  23.881  19.638  20.631 -0.2734 -0.0036 -0.0689
 7322W        W50234  22.515  20.693  20.597 -0.2641  0.3450  0.0746
 7323W        W50235  22.112  20.942  18.546  0.2123  0.5895  0.1655
 7324W        W50236  23.689  17.291  21.003  0.1572  0.1605  0.0411
 7325W        W50237  23.855  21.594  22.012  0.0015  0.3807  0.2205
 7326W        W50238  21.139  20.741  20.867  0.1006 -0.1231 -0.3848
 7327W        W50239  23.735  21.291  23.700 -0.0582 -0.1440  0.1684
 7328W        W50240  23.416  20.979  20.771  0.0715 -0.1483  0.2825
 7329W        W50241  24.491  19.159  21.203  0.1712  0.2390  0.2292
 7330W        W50242  23.268  22.517  21.926  0.0945 -0.0352 -0.1863
 7331W        W50243  22.706  18.977  19.209 -0.0681 -0.1659 -0.2444
 7332W        W50244  22.035  20.095  19.366  0.0464 -0.0998  0.1361
 7333W        W50245  25.714  18.389  22.080  0.1078  0.2091  0.0218
 7334W        W50246  24.877  21.831  18.263  0.1688  0.4172  0.1324
 7335W        W50247  23.609  18.436  22.474 -0.1063  0.0137  0.1222
 7336W        W50248  23.780  19.069  22.810  0.2681  0.1741 -0.1087
 7337W        W50249  21.831  22.885  22.018  0.2845 -0.0720 -0.1082
 7338W        W50250  24.139  18.549  22.296 -0.5226 -0.2085 -0.2777
 7339W        W50251  26.041  18.592  19.293  0.2248 -0.0727  0.2138
 7340W        W50252  23.294  20.556  22.549 -0.1121 -0.0315 -0.0480
 7341W        W50253  23.743  20.849  22.748 -0.3335 -0.0927 -0.1999
 7342W        W50254  23.241  19.462  19.831  0.0387 -0.0304 -0.1076
 7343W        W50255  25.033  19.099  22.095 -0.0527 -0.0670 -0.1097
 7344W        W50256  23.717  19.087  20.816 -0.3008 -0.0252 -0.1839
 7345W        W50257  23.221  22.527  21.351 -0.0127  0.2160  0.0992
 7346W        W50258  24.091  20.975  20.949 -0.2757  0.0055  0.2391
 7347W        W50259  23.869  19.168  20.278  0.1075 -0.1981 -0.2138
 7348W        W50260  22.915  21.049  20.832  0.2402 -0.2474  0.0692
 7349W        W50261  22.723  19.958  22.966 -0.3051  0.2361  0.0829
 7350W        W50262  25.211  21.252  22.173 -0.0412 -0.2885  0.1509
 7351W        W50263  23.438  18.147  21.722  0.1009 -0.2763  0.1164
 7352W        W50264  22.351  19.426  20.713  0.1336  0.0625  0.1360
 7353W        W50265  24.901  19.855  22.273  0.1823 -0.0971  0.2314
 7354W        W50266  23.480  21.696  21.071  0.1130  0.0034 -0.0000
 7355W        W50267  24.582  20.110  23.657  0.0159 -0.0245 -0.0300
 7356W        W50268  22.285  21.239  23.235  0.1219 -0.1555  0.2561
 7357W        W50269  24.012  17.983  21.425 -0.1307 -0.0523  0.1208
 7358W        W50270  25.337  22.400  19.526  0.0167 -0.2001  0.2493
 7359W        W50271  24.816  20.011  22.963 -0.2346 -0.1394  0.1451
 7360W        W50272  24.127  21.050  20.357 -0.1757  0.0446  0.1243
 7361W        W50273  21.661  20.770  21.592 -0.1203 -0.0314 -0.0549
 7362W        W50274  23.196  20.797  21.223  0.0131  0.1734  0.0178
 7363W        W50275  23.556  18.920  21.812 -0.0910  0.0507  0.2346
 7364W        W50276  21.991  21.225  21.022 -0.2592  0.1135 -0.1329
 7365W        W50277  23.999  20.139  20.397 -0.3238  0.1040  0.0550
 7366W        W50278  21.503  21.006  22.075  0.3807  0.1467  0.0843
 7367W        W50279  25.681  19.431  20.850 -0.0115  0.0900  0.4240
 7368W        W50280  22.929  20.799  19.836  0.0004 -0.0235  0.3600
 7369W        W50281  24.663  18.687  21.346  0.3898  0.1741 -0.0658
 7370W        W50282  26.037  18.889  21.552  0.1860  0.0879  0.0231
 7371W        W50283  25.045  21.293  20.173  0.1254 -0.0943  0.0089
 7372W        W50284  24.869  18.338  23.588 -0.1233 -0.0391 -0.1539
 7373W        W50285  22.746  17.849  22.129  0.1568 -0.3608 -0.0502
 7374W        W50286  22.918  21.005  21.534  0.1595  0.2890  0.1226
 7375W        W50287  23.158  19.433  22.828 -0.0122  0.0875  0.1098
 7376W        W50288  25.163  21.132  23.531 -0.1779  0.0656 -0.1742
 7377W        W50289  23.919  20.761  23.831  0.1010  0.0990  0.2756
 7378W        W50290  24.949  19.428  21.322 -0.0596 -0.0517  0.1732
 7379W        W50291  24.053  18.018  19.785  0.3414  0.2463 -0.0933
 7380W        W50292  22.088  21.323  21.941  0.1776  0.0883 -0.3853
 7381W        W50293  24.665  20.582  21.594  0.2597  0.2169 -0.1459
 7382W        W50294  23.759  21.336  20.675 -0.2316 -0.6260  0.0227
 7383W        W50295  25.833  18.844  20.682 -0.1490 -0.1670 -0.1023
 7384W        W50296  22.022  20.563  21.336  0.2059  0.0428  0.2738
 7385W        W50297  24.031  20.814  22.362  0.1988  0.1525 -0.2974
 7386W        W50298  24.241  19.691  20.305 -0.1453 -0.3188 -0.1848
 7387W        W50299  22.265  22.014  21.680 -0.0085 -0.1039 -0.0924
 7388W        W50300  22.598  18.470  23.588 -0.0469 -0.1542 -0.1309
 7389W        W50301  23.618  20.001  21.831 -0.1758 -0.1851  0.2682
 7390W        W50302  24.195  19.247  20.700 -0.0867 -0.0740 -0.0377
 7391W        W50303  23.662  19.511  22.993  0.0453  0.0748  0.1028
 7392W        W50304  24.191  19.540  22.995  0.2176 -0.1411  0.1803
 7393W        W50305  23.736  18.103  23.074  0.3940 -0.1601  0.0447
 7394W        W50306  23.858  21.095  23.228  0.0947 -0.2159  0.0662
 7395W        W50307  25.990  21.042  22.200 -0.3661 -0.1683 -0.1043
 7396W        W50308  25.461  19.197  21.282  0.0264  0.0523 -0.0827
 7397W        W50309  25.083  18.899  21.649  0.3551  0.0086 -0.0042
 7398W        W50310  25.190  20.467  21.542 -0.1279 -0.0097 -0.0943
 7399W        W50311  25.638  19.662  21.248 -0.2113 -0.2612  0.0556
 7400W        W50312  23.264  19.205  20.942  0.3736 -0.1851 -0.1130
 7401W        W50313  23.839  19.608  21.995 -0.0481 -0.0619 -0.0025
 7402W        W50314  23.353  17.093  19.756  0.0874 -0.0265  0.0512
 7403W        W50315  25.174  19.056  22.706 -0.0071  0.0755  0.2041
 7404W        W50316  23.201  21.321  20.423  0.1683  0.0746 -0.0081
 7405W        W50317  23.443  21.704  23.321  0.0021 -0.0113 -0.0146
 7406W        W50318  24.807  20.035  21.611  0.0123  0.2702 -0.1686
 7407W        W50319  23.596  19.055  21.304 -0.0570  0.1063  0.1529
 7408W        W50320  22.753  22.158  23.842  0.0159  0.0138  0.0540
 7409W        W50321  23.112  20.083  18.742  0.0764 -0.0194 -0.0827
 7410W        W50322  24.256  20.634  21.266  0.1924  0.0869  0.3772
 7411W        W50323  24.857  22.400  22.892  0.0892  0.0752  0.0213
 7412W        W50324  24.973  21.593  24.062  0.0676  0.5760 -0.0094
 7413W        W50325  22.410  17.699  19.784 -0.0862 -0.3016  0.1323
 7414W        W50326  25.270  19.358  23.937  0.1505 -0.3470 -0.0742
 7415W        W50327  22.769  22.377  21.253  0.2327 -0.0140  0.2936
 7416W        W50328  24.154  19.300  21.553 -0.1524 -0.5396  0.1952
 7417W        W50329  22.758  22.802  23.147  0.0732  0.1555 -0.1114
 7418W        W50330  21.716  20.585  22.210  0.2288  0.0281 -0.0622
 7419W        W50331  24.387  23.124  21.439 -0.2633  0.1396  0.0191
 7420W        W50332  22.703  19.910  23.606  0.2491  0.2086 -0.0260
 7421W        W50333  24.850  20.685  21.117  0.3875 -0.0530 -0.0002
 7422W        W50334  23.281  20.348  22.040 -0.0225  0.2092 -0.0489
 7423W        W50335  25.489  19.406  22.858  0.4180  0.2478 -0.4645
 7424W        W50336  24.435  21.516  22.943 -0.3352  0.3754  0.2142
 7425W        W50337  23.707  20.766  21.200  0.2585  0.3607  0.2649
 7426W        W50338  24.990  21.868  22.862  0.2493  0.1765  0.1401
 7427W        W50339  25.624  20.958  20.925  0.1980  0.1607  0.0575
 7428W        W50340  23.217  21.946  21.423  0.1561  0.2122  0.0285
 7429W        W50341  22.885  19.762  22.419  0.4511 -0.2178 -0.2876
 7430W        W50342  24.350  22.009  22.984 -0.0354 -0.0917  0.1504
 7431W        W50343  23.972  21.659  22.747  0.3737 -0.1261  0.0631
 7432W        W50344  24.711  18.943  20.560  0.0322  0.2460  0.3885
 7433W        W50345  23.547  21.574  20.182 -0.0612  0.0559  0.0023
 7434W        W50346  21.912  21.066  22.344  0.1650 -0.1285 -0.1001
 7435W        W50347  23.025  21.638  22.107 -0.2400 -0.0166 -0.0702
 7436W        W50348  22.564  21.276  20.506  0.0607 -0.1643  0.0485
 7437W        W50349  24.529  20.889  20.727 -0.0483 -0.0966  0.1005
 7438W        W50350  25.434  21.807  20.724 -0.1958  0.1544 -0.1077
 7439W        W50351  24.625  23.049  21.971 -0.1091 -0.2138 -0.1076
 7440W        W50352  23.404  18.399  20.230  0.1611 -0.1645  0.2321
 7441W        W50353  23.089  21.465  21.492 -0.0730  0.4562 -0.0324
 7442W        W50354  23.082  21.780  19.963  0.0025 -0.0815 -0.1490
 7443W        W50355  24.535  21.881  20.592 -0.2850  0.2856 -0.0450
 7444W        W50356  23.076  22.558  22.791 -0.0603 -0.4639  0.1776
 7445W        W50357  24.075  19.507  23.449 -0.0707 -0.1336 -0.2549
 7446W        W50358  24.872  18.559  20.882  0.0400  0.3164  0.0942
 7447W        W50359  25.686  20.054  22.318 -0.2030 -0.1303  0.0998
 7448W        W50360  25.705  20.400  20.446 -0.1160 -0.1051  0.0268
 7449W        W50361  24.042  21.600  23.266  0.2516  0.3885  0.0072
 7450W        W50362  23.941  20.006  23.182  0.1210 -0.0518  0.0865
 7451W        W50363  23.588  19.682  19.587  0.1728 -0.2199  0.2253
 7452W        W50364  23.256  19.570  24.185 -0.0342 -0.2671 -0.0050
 7453W        W50365  24.597  18.224  22.687 -0.2242 -0.3682  0.0705
 7454W        W50366  20.726  21.780  22.061  0.0555 -0.1205 -0.3548
 7455W        W50367  26.115  22.610  21.514  0.0628 -0.1135  0.3742
 7456W        W50368  22.691  20.456  21.178  0.1032 -0.0950 -0.2943
 7457W        W50369  22.532  19.445  22.197  0.1782 -0.0284  0.1740
 7458W        W50370  25.952  18.000  23.641 -0.0897 -0.2282  0.1446
 7459W        W50371  24.313  19.662  20.968 -0.2042 -0.1208  0.1083
 7460W        W50372  26.365  19.186  19.996  0.1874 -0.2143  0.0843
 7461W        W50373  23.983  22.487  21.661 -0.0853 -0.4240  0.2575
 7462W        W50374  22.387  23.050  22.287  0.1051 -0.0650  0.0227
 7463W        W50375  24.269  22.285  21.344  0.0786 -0.2892 -0.1047
 7464W        W50376  23.473  19.389  20.491 -0.2591  0.2983 -0.1595
 7465W        W50377  25.647  20.196  21.277 -0.0618 -0.3480 -0.0021
 7466W        W50378  23.947  20.366  22.743  0.1097  0.3018  0.0147
 7467W        W50379  24.239  17.009  23.349 -0.2008  0.1993  0.2109
 7468W        W50380  22.290  20.179  21.656  0.0039  0.1111 -0.0404
 7469W        W50381  25.794  19.890  20.231  0.2034 -0.1398  0.1599
 7470W        W50382  22.555  19.521  22.714 -0.1001  0.0757  0.0483
 7471W        W50383  22.609  18.381  22.038  0.1076 -0.1893 -0.0570
 7472W        W50384  24.911  20.435  20.686 -0.1890 -0.0407  0.0020
 7473W        W50385  24.252  20.778  21.855 -0.0086  0.0699  0.0209
 7474W        W50386  23.583  18.585  18.814  0.0120 -0.0317 -0.0340
 7475W        W50387  25.480  21.426  23.212 -0.0636 -0.1508  0.1342
 7476W        W50388  22.936  18.101  21.747 -0.1424  0.1551 -0.2695
 7477W        W50389  24.331  20.158  21.183 -0.1407  0.1365  0.0625
 7478W        W50390  21.915  19.818  21.983 -0.1941  0.1736 -0.0635
 7479W        W50391  24.554  21.460  23.425 -0.0551  0.0563  0.1124
 7480W        W50392  26.187  21.203  23.624  0.1962  0.1514  0.3496
 7481W        W50393  23.633  18.613  21.000  0.1599  0.2353  0.0403
 7482W        W50394  26.276  20.227  20.330 -0.0393 -0.0858  0.1078
 7483W        W50395  24.240  19.072  22.677 -0.2627 -0.0261  0.0657
 7484W        W50396  24.634  23.252  20.654  0.2301 -0.3097  0.0540
 7485W        W50397  24.486  21.094  21.385 -0.0476 -0.2608  0.1751
 7486W        W50398  25.311  21.442  21.675  0.1366 -0.1076 -0.2796
 7487W        W50399  22.238  19.697  23.102 -0.3544 -0.0799 -0.0269
 7488W        W50400  25.405  22.971  21.793 -0.1983 -0.2232 -0.1139
 7489W        W50401  26.638  20.377  21.500  0.0204  0.1442 -0.0588
 7490W        W50402  24.200  18.424  21.474  0.1760 -0.1265  0.2144
 7491W        W50403  23.111  19.552  21.326 -0.2696 -0.1080 -0.0939
 7492W        W50404  21.473  21.199  21.182 -0.0969 -0.0460 -0.1198
 7493W        W50405  25.750  18.066  20.037  0.1092  0.1110 -0.0624
 7494W        W50406  24.446  18.372  23.191  0.0857  0.1431 -0.0325
 7495W        W50407  24.198  21.600  19.719 -0.0501  0.2045 -0.0994
 7496W        W50408  26.272  20.312  24.712  0.0744  0.0641  0.0584
 7497W        W50409  23.585  22.233  21.658 -0.2024 -0.1761 -0.0479
 7498W        W50410  24.333  21.589  24.697 -0.3340  0.0003  0.2753
 7499W        W50411  23.632  20.993  20.343  0.1045 -0.0943 -0.1062
 7500W        W50412  22.908  20.515  21.698 -0.2884 -0.0683  0.0924
 7501W        W50413  23.402  21.358  22.108 -0.0172  0.0609  0.1322
 7502W        W50414  23.215  22.451  20.590 -0.3952  0.1522 -0.2853
 7503W        W50415  25.740  21.141  21.349  0.0345 -0.0729  0.0799
 7504W        W50416  23.154  19.019  19.542  0.0155 -0.1968 -0.0657
 7505W        W50417  25.588  21.038  21.843  0.2131 -0.0877 -0.0174
 7506W        W50418  24.528  19.632  21.404  0.1338  0.2362  0.1001
 7507W        W50419  26.067  17.827  21.574  0.0244  0.0951 -0.2739
 7508W        W50420  25.328  20.112  20.315 -0.0497  0.0914 -0.0255
 7509W        W50421  23.547  19.950  20.449  0.1818 -0.1476  0.0496
 7510W        W50422  21.994  20.844  20.576  0.1004 -0.5190 -0.3073
 7511W        W50423  21.577  21.831  18.699 -0.1717 -0.1847 -0.1044
 7512W        W50424  22.563  22.387  21.719  0.1427 -0.1202  0.1539
 7513W        W50425  22.933  17.930  23.034 -0.1738  0.0279 -0.0424
 7514W        W50426  23.844  22.184  22.098  0.2505  0.0530 -0.2003
 7515W        W50427  23.374  20.429  21.486 -0.2062 -0.0838 -0.1545
 7516W        W50428  22.657  15.988  20.511 -0.3032  0.0935 -0.1655
 7517W        W50429  25.667  22.286  21.447  0.1797 -0.1098 -0.0143
 7518W        W50430  24.132  18.850  21.759  0.0250  0.0847 -0.0455
 7519W        W50431  21.899  18.535  20.823 -0.1507  0.1228  0.0999
 7520W        W50432  23.425  22.284  21.026  0.1620  0.1754  0.1407
 7521W        W50433  25.295  20.462  20.983  0.1123  0.0694 -0.0181
 7522W        W50434  24.386  18.750  20.903 -0.0391  0.0775 -0.2544
 7523W        W50435  26.243  21.719  24.304 -0.0006  0.1091  0.1289
 7524W        W50436  23.058  22.134  19.104  0.0095 -0.1106  0.2259
 7525W        W50437  23.619  17.870  22.527  0.0305 -0.0330 -0.4688
 7526W        W50438  23.208  18.201  22.674 -0.0866 -0.1751 -0.0221
 7527W        W50439  22.318  18.618  17.862  0.0138 -0.0872  0.0682
 7528W        W50440  24.378  19.654  21.852  0.1730  0.0854  0.1231
 7529W        W50441  23.943  21.100  21.512  0.0486  0.2369  0.0693
 7530W        W50442  25.868  22.515  22.394  0.0001  0.0676 -0.3599
 7531W        W50443  22.869  21.170  22.376 -0.1434 -0.0036 -0.0070
 7532W        W50444  24.315  22.874  23.380 -0.0759 -0.2658  0.1209
 7533W        W50445  21.802  17.898  21.661 -0.1010 -0.0408  0.1346
 7534W        W50446  24.388  21.612  21.454 -0.2944 -0.2938 -0.2834
 7535W        W50447  24.373  22.471  22.735 -0.0182  0.2211  0.2224
 7536W        W50448  25.570  21.590  19.618  0.1393  0.0678 -0.0985
 7537W        W50449  24.609  18.089  21.601  0.0666  0.2677 -0.5829
 7538W        W50450  24.238  21.440  20.744 -0.0058 -0.1028  0.0858
 7539W        W50451  22.556  17.380  21.383 -0.0502  0.0418  0.0223
 7540W        W50452  22.982  21.788  23.509 -0.2129 -0.2888  0.1586
 7541W        W50453  26.645  19.386  21.828  0.2690 -0.3595  0.0732
 7542W        W50454  21.849  16.992  21.460 -0.1790 -0.0489 -0.0713
 7543W        W50455  24.172  21.590  20.273  0.1497  0.0196  0.1934
 7544W        W50456  25.786  22.361  20.408 -0.0506 -0.1555 -0.1746
 7545W        W50457  22.493  20.045  22.465  0.1981 -0.2302  0.0118
 7546W        W50458  23.655  19.067  19.781 -0.5200  0.1687  0.1149
 7547W        W50459  23.210  19.857  23.192 -0.3142  0.0169 -0.5480
 7548W        W50460  22.574  21.104  21.891 -0.1471 -0.1727 -0.0021
 7549W        W50461  24.410  20.026  22.484  0.0353  0.3870  0.0679
 7550W        W50462  24.091  19.352  19.872 -0.1623  0.2363 -0.0219
 7551W        W50463  25.877  21.762  20.522 -0.0697  0.1053 -0.3498
 7552W        W50464  24.251  22.409  20.782 -0.1166 -0.3451  0.0502
 7553W        W50465  25.872  21.851  24.652  0.1862  0.1497  0.0693
 7554W        W50466  24.459  22.639  21.670 -0.1575  0.0220 -0.2197
 7555W        W50467  25.104  19.667  23.160  0.3060 -0.0921 -0.0516
 7556W        W50468  23.219  17.160  21.947 -0.0530  0.2032  0.0830
 7557W        W50469  23.499  19.880  21.344  0.3582  0.0047 -0.0224
 7558W        W50470  24.760  21.106  21.842 -0.0197 -0.2116 -0.2056
 7559W        W50471  24.180  19.592  22.381  0.0486 -0.2201 -0.0232
 7560W        W50472  23.544  18.100  21.186 -0.1617 -0.0105  0.0516
 7561W        W50473  22.665  18.021  19.479 -0.1656 -0.1809 -0.2139
 7562W        W50474  23.408  22.356  22.376  0.0984  0.2367 -0.0559
 7563W        W50475  23.266  19.250  22.188 -0.2855 -0.0818 -0.2983
 7564W        W50476  23.056  19.320  26.258  0.1790 -0.2278  0.3514
 7565W        W50477  23.134  20.061  24.101  0.1100  0.1422 -0.0264
 7566W        W50478  24.777  18.774  22.921 -0.0780 -0.1908 -0.3451
 7567W        W50479  25.528  20.569  25.275 -0.0530 -0.2992 -0.1348
 7568W        W50480  21.795  17.556  22.943 -0.1906 -0.2279  0.0786
 7569W        W50481  24.721  20.889  24.756 -0.2169  0.0127  0.2127
 7570W        W50482  21.797  18.508  24.397 -0.2121 -0.1945 -0.1794
 7571W        W50483  25.646  20.770  25.807 -0.1671 -0.0163 -0.1947
 7572W        W50484  23.507  21.525  26.281 -0.0913 -0.0451  0.2194
 7573W        W50485  24.100  19.995  23.672 -0.1917 -0.2336 -0.2424
 7574W        W50486  23.267  18.836  24.965  0.2602 -0.3891 -0.1054
 7575W        W50487  23.019  20.085  24.992 -0.0045 -0.1233  0.0224
 7576W        W50488  23.484  17.274  23.651  0.0862  0.2399  0.1217
 7577W        W50489  21.901  19.188  24.616 -0.2409 -0.1426  0.2018
 7578W        W50490  24.636  19.306  24.823  0.0249  0.0341 -0.1357
 7579W        W50491  22.221  20.598  23.375 -0.0782 -0.0649 -0.2082
 7580W        W50492  21.500  17.727  25.724  0.5445 -0.1392  0.2477
 7581W        W50493  24.413  19.627  23.823  0.1918 -0.0462 -0.2404
 7582W        W50494  23.479  21.095  24.703 -0.3031 -0.2580 -0.4192
 7583W        W50495  23.323  18.294  25.217  0.0559  0.0415 -0.0754
 7584W        W50496  24.493  18.324  27.211 -0.0943 -0.1067  0.1748
 7585W        W50497  25.500  21.496  24.423  0.0517 -0.3004 -0.0576
 7586W        W50498  22.023  20.167  22.329 -0.0490 -0.0034 -0.2906
 7587W        W50499  22.789  19.277  23.802 -0.1462 -0.3652 -0.0812
 7588W        W50500  23.239  19.258  24.549 -0.1048 -0.1930 -0.0435
 7589W        W50501  24.860  18.664  25.480 -0.0313 -0.0098 -0.2213
 7590W        W50502  24.462  20.185  25.784 -0.0052 -0.0365  0.0887
 7591W        W50503  22.683  20.466  24.927 -0.0735 -0.1951 -0.0177
 7592W        W50504  23.819  21.710  25.286  0.5012 -0.0695 -0.0937
 7593W        W50505  24.472  20.050  26.749  0.1451 -0.1112 -0.0710
 7594W        W50506  22.410  20.951  23.733  0.2038  0.0447  0.3334
 7595W        W50507  22.198  22.604  26.378 -0.1771  0.2676 -0.1205
 7596W        W50508  23.417  20.621  24.453 -0.0439  0.0599  0.0222
 7597W        W50509  25.730  20.974  24.232 -0.3323 -0.0256  0.0403
 7598W        W50510  23.826  20.693  26.209  0.3107 -0.3106  0.1081
 7599W        W50511  23.283  23.751  24.267 -0.0053 -0.1810  0.0660
 7600W        W50512  21.960  21.702  24.547  0.4798  0.0620  0.1873
 7601W        W50513  23.436  19.755  26.363  0.0578 -0.1459  0.1696
 7602W        W50514  22.180  21.436  25.922 -0.1753 -0.0169 -0.0303
 7603W        W50515  23.424  19.150  25.806  0.3608  0.0601  0.2378
 7604W        W50516  23.738  18.713  25.018 -0.1510  0.0248  0.3583
 7605W        W50517  23.723  21.995  24.865  0.0966  0.0507  0.1121
 7606W        W50518  25.262  21.046  22.932  0.0676  0.0285 -0.2509
 7607W        W50519  23.943  20.426  25.787 -0.2958 -0.3528  0.1797
 7608W        W50520  23.101  20.594  24.009 -0.2844  0.0365  0.1354
 7609W        W50521  25.386  20.736  27.980 -0.0939  0.1012 -0.2984
 7610W        W50522  21.897  20.982  23.534 -0.0371  0.0981 -0.0732
 7611W        W50523  24.617  20.613  24.123  0.2385 -0.0994  0.1875
 7612W        W50524  24.170  18.545  22.786 -0.0322 -0.2786  0.3190
 7613W        W50525  23.678  20.318  22.345 -0.2602 -0.2193 -0.0172
 7614W        W50526  23.975  17.405  24.275  0.0281  0.1037 -0.0257
 7615W        W50527  23.499  20.071  24.482  0.4510 -0.2045  0.0203
 7616W        W50528  22.498  18.413  24.266  0.1065 -0.0339 -0.1754
 7617W        W50529  24.859  20.911  27.433  0.1469 -0.0293 -0.3527
 7618W        W50530  24.772  18.866  23.493 -0.1037 -0.3565  0.0345
 7619W        W50531  23.952  19.911  25.403 -0.2262  0.1865  0.0117
 7620W        W50532  22.096  20.937  24.348  0.0539  0.1023 -0.1108
 7621W        W50533  23.390  18.960  23.899 -0.2833  0.0977  0.2885
 7622W        W50534  25.061  20.157  23.415 -0.3644 -0.2741  0.2004
 7623W        W50535  26.103  21.327  24.587 -0.1496  0.2900 -0.4177
 7624W        W50536  24.989  22.717  23.389 -0.1729 -0.0115  0.2174
 7625W        W50537  22.180  18.474  21.694  0.0134 -0.2935  0.4188
 7626W        W50538  21.990  20.411  25.851 -0.2165 -0.0511 -0.2999
 7627W        W50539  21.695  19.617  24.621 -0.0087 -0.2375 -0.1049
 7628W        W50540  22.931  18.632  22.588  0.1195 -0.0128  0.0301
 7629W        W50541  24.581  21.625  27.442 -0.1571 -0.3349 -0.3203
 7630W        W50542  21.984  19.317  25.367 -0.1003 -0.0726 -0.1805
 7631W        W50543  24.487  19.038  24.420  0.0803 -0.1422 -0.0225
 7632W        W50544  23.679  19.152  24.782 -0.2704  0.0460 -0.0898
 7633W        W50545  25.037  21.328  25.460 -0.1423  0.0883 -0.2505
 7634W        W50546  25.539  20.531  23.299 -0.2318  0.1208  0.3189
 7635W        W50547  26.656  17.415  25.182  0.3289  0.1280  0.0948
 7636W        W50548  25.029  18.293  26.284 -0.2811 -0.1317  0.1794
 7637W        W50549  22.220  21.740  24.114  0.2198  0.1792  0.0169
 7638W        W50550  23.651  19.704  23.492  0.0182 -0.1437  0.3544
 7639W        W50551  24.187  21.750  27.137 -0.1339  0.4406  0.1896
 7640W        W50552  24.827  19.708  25.074 -0.0444  0.0728 -0.0316
 7641W        W50553  23.287  21.221  23.465  0.0180  0.1416 -0.0379
 7642W        W50554  22.413  19.193  26.845 -0.1751  0.1494  0.4611
 7643W        W50555  23.107  20.998  26.842 -0.0721  0.0846 -0.0762
 7644W        W50556  23.121  21.910  24.739  0.3169 -0.3909  0.1331
 7645W        W50557  21.495  20.008  23.275 -0.0629  0.1292 -0.1850
 7646W        W50558  21.708  20.316  22.709 -0.0088  0.0895  0.2172
 7647W        W50559  22.151  18.379  23.944  0.1033  0.0923 -0.2450
 7648W        W50560  23.489  20.834  25.185  0.0192 -0.3130 -0.2354
 7649W        W50561  25.394  18.958  24.219 -0.1742  0.1072  0.1432
 7650W        W50562  21.342  17.192  25.630 -0.1463 -0.0325 -0.1146
 7651W        W50563  24.960  18.693  24.463 -0.1581 -0.2163 -0.3298
 7652W        W50564  21.744  21.868  23.295  0.1938 -0.0237 -0.0838
 7653W        W50565  25.746  23.232  25.976  0.0870 -0.0854 -0.0251
 7654W        W50566  24.168  19.247  24.125  0.0008  0.0270 -0.0011
 7655W        W50567  24.733  21.040  23.174  0.2854 -0.2559  0.2343
 7656W        W50568  22.185  19.681  24.989 -0.0445  0.1955  0.1818
 7657W        W50569  22.712  18.107  23.986 -0.2184 -0.1207  0.1619
 7658W        W50570  23.395  18.356  26.447  0.1974  0.0305 -0.1733
 7659W        W50571  22.359  19.285  24.114  0.0698  0.0010 -0.0763
 7660W        W50572  25.400  19.247  26.661  0.0735  0.0193  0.0578
 7661W        W50573  23.944  17.672  23.815 -0.0073 -0.1336  0.0724
 7662W        W50574  23.902  18.289  24.518  0.1057  0.0719  0.0873
 7663W        W50575  23.097  18.430  23.793 -0.0899  0.0203  0.1078
 7664W        W50576  22.407  20.874  22.911 -0.0952 -0.0801 -0.0480
 7665W        W50577  25.927  18.881  27.568 -0.0842 -0.0298 -0.0218
 7666W        W50578  25.362  22.031  24.520  0.0875  0.1071  0.2229
 7667W        W50579  25.726  22.364  27.630 -0.2239 -0.6080 -0.6018
 7668W        W50580  26.447  21.781  25.341 -0.4156  0.1642 -0.1678
 7669W        W50581  22.892  19.129  24.935  0.2622 -0.1294  0.1396
 7670W        W50582  23.993  18.824  24.477  0.0757  0.4942  0.0972
 7671W        W50583  22.277  20.616  25.141  0.2085 -0.0879  0.3005
 7672W        W50584  24.289  20.972  25.193  0.0672  0.1358 -0.1306
 7673W        W50585  23.463  18.785  24.512  0.4231 -0.3717  0.3383
 7674W        W50586  25.364  21.926  27.612  0.1662 -0.0094  0.0057
 7675W        W50587  23.598  19.900  23.947  0.1460  0.0328  0.0435
 7676W        W50588  23.134  19.751  25.937  0.3711  0.0968  0.1514
 7677W        W50589  24.121  17.807  27.223 -0.2756  0.1368  0.3149
 7678W        W50590  25.066  19.584  25.672 -0.0066 -0.1806 -0.1291
 7679W        W50591  24.945  19.764  24.614  0.1471  0.0981 -0.0514
 7680W        W50592  23.357  16.855  22.699  0.5895 -0.0956  0.1609
 7681W        W50593  24.731  21.325  24.571  0.0867  0.0199 -0.0858
 7682W        W50594  22.029  21.420  23.691  0.1979  0.1477  0.0513
 7683W        W50595  21.534  20.282  24.069 -0.2030 -0.0154  0.2282
 7684W        W50596  24.498  21.022  23.618 -0.2410  0.0231 -0.1496
 7685W        W50597  25.166  17.737  25.573 -0.0976 -0.2093  0.2049
 7686W        W50598  22.145  20.840  26.035  0.3009  0.1538  0.0171
 7687W        W50599  24.614  19.066  25.768  0.1315  0.2856  0.0442
 7688W        W50600  22.386  20.997  22.335  0.2809 -0.0920 -0.1206
 7689W        W50601  22.581  18.578  25.762 -0.1424 -0.0444 -0.3261
 7690W        W50602  24.041  18.341  24.022  0.0479 -0.0386 -0.1474
 7691W        W50603  25.460  16.622  25.176  0.0590  0.0918  0.1249
 7692W        W50604  24.711  19.639  26.548 -0.1138 -0.0931 -0.1496
 7693W        W50605  24.998  20.662  23.626 -0.2682  0.0679 -0.0486
 7694W        W50606  24.219  17.636  21.804  0.1067  0.1100 -0.3500
 7695W        W50607  24.474  17.835  22.413  0.3439  0.2193  0.1712
 7696W        W50608  22.268  19.782  26.497  0.0834 -0.1186 -0.1770
 7697W        W50609  24.256  19.018  23.199 -0.1863 -0.0614  0.1232
 7698W        W50610  24.894  20.368  24.521  0.3202  0.3591 -0.1169
 7699W        W50611  23.315  17.768  22.109  0.0951 -0.0983 -0.3241
 7700W        W50612  26.033  22.304  24.696 -0.1001  0.3077  0.0837
 7701W        W50613  23.550  20.412  24.068  0.2773  0.1410  0.0890
 7702W        W50614  23.622  19.614  26.891 -0.0874 -0.2513  0.2021
 7703W        W50615  25.277  20.134  24.364 -0.3469  0.3645  0.0233
 7704W        W50616  23.029  17.207  25.577  0.0459  0.0374 -0.0480
 7705W        W50617  23.155  19.745  23.692 -0.2290  0.0571 -0.1424
 7706W        W50618  23.650  19.205  24.248 -0.0450 -0.0329 -0.2046
 7707W        W50619  21.411  21.523  23.940  0.1181  0.0970  0.0651
 7708W        W50620  25.955  20.872  26.131 -0.0955 -0.0787  0.0597
 7709W        W50621  23.182  17.851  24.908  0.2261  0.1259  0.0354
 7710W        W50622  23.681  17.708  27.036 -0.1888  0.2300  0.0432
 7711W        W50623  25.517  20.122  26.997  0.0495  0.0397 -0.1559
 7712W        W50624  24.704  19.133  23.968 -0.3570 -0.0889 -0.2829
 7713W        W50625  23.684  20.010  24.903 -0.0675  0.1850 -0.3649
 7714W        W50626  23.261  18.301  23.254 -0.1895 -0.0601  0.1951
 7715W        W50627  25.926  18.597  26.579  0.1589  0.3163  0.0291
 7716W        W50628  23.412  19.876  25.375  0.1288  0.0257  0.0257
 7717W        W50629  21.932  22.633  25.960  0.1357  0.3766 -0.3035
 7718W        W50630  25.035  20.596  26.982  0.3011 -0.1549  0.1040
 7719W        W50631  24.517  19.626  24.448 -0.0419 -0.2967  0.1435
 7720W        W50632  23.979  18.467  26.227  0.0485 -0.0393 -0.0480
 7721W        W50633  24.452  17.271  24.439 -0.2051  0.2002 -0.0333
 7722W        W50634  22.667  21.838  25.225  0.0650  0.3903 -0.0220
 7723W        W50635  24.353  20.569  24.626 -0.1496 -0.2566  0.0338
 7724W        W50636  22.848  18.110  24.610 -0.0569 -0.0303 -0.0340
 7725W        W50637  23.611  21.102  25.967  0.0448  0.0984  0.2529
 7726W        W50638  24.584  22.388  24.187 -0.0731 -0.0128 -0.0393
 7727W        W50639  25.167  21.147  26.358 -0.1816 -0.0671  0.0298
 7728W        W50640  23.332  21.534  23.894 -0.1244 -0.3155  0.1545
 7729W        W50641  25.489  18.262  26.814 -0.1221 -0.0245 -0.1398
 7730W        W50642  23.049  20.956  24.482  0.0591 -0.1551  0.0003
 7731W        W50643  22.931  19.532  21.917 -0.1576 -0.3728  0.0863
 7732W        W50644  22.813  19.400  23.241  0.1377 -0.0454  0.1363
 7733W        W50645  26.143  18.355  25.190 -0.1928  0.0891  0.0172
 7734W        W50646  26.109  20.710  23.669  0.0850 -0.0596 -0.1880
 7735W        W50647  22.330  19.226  24.879 -0.0659  0.1472  0.0335
 7736W        W50648  25.254  17.836  25.040 -0.1345 -0.4255 -0.1271
 7737W        W50649  23.267  21.759  25.574 -0.3138  0.4633  0.3427
 7738W        W50650  25.084  20.519  25.542  0.3183 -0.0172  0.1719
 7739W        W50651  25.244  18.586  23.359  0.3037 -0.2229  0.0937
 7740W        W50652  24.380  19.979  26.265 -0.0852 -0.1294  0.1653
 7741W        W50653  23.383  18.782  27.693  0.6095 -0.0787 -0.1883
 7742W        W50654  23.496  18.688  23.501 -0.1329 -0.0613  0.4323
 7743W        W50655  24.800  20.355  26.469  0.2045 -0.0381  0.2682
 7744W        W50656  22.813  18.692  25.272 -0.1500 -0.1162  0.1458
 7745W        W50657  22.180  20.288  24.187 -0.2708  0.2000 -0.5669
 7746W        W50658  23.218  20.733  26.472 -0.4870  0.2025  0.1264
 7747W        W50659  23.514  20.370  23.028  0.1061  0.1312  0.1768
 7748W        W50660  23.901  20.324  24.524 -0.0306 -0.5253  0.1995
 7749W        W50661  23.061  18.491  25.659  0.2062 -0.0037 -0.3595
 7750W        W50662  24.993  20.372  28.023 -0.0675  0.2643  0.1633
 7751W        W50663  22.878  18.933  25.878 -0.0964  0.0956  0.1270
 7752W        W50664  22.766  18.417  23.031 -0.2504 -0.3975  0.1283
 7753W        W50665  23.885  19.509  25.056  0.0020 -0.1160 -0.1444
 7754W        W50666  26.404  20.925  25.902 -0.1438 -0.1874  0.4630
 7755W        W50667  23.459  19.284  25.323  0.3308  0.2463 -0.0706
 7756W        W50668  23.877  20.842  25.472  0.0054 -0.0842 -0.2506
 7757W        W50669  24.489  18.245  25.825 -0.1702 -0.0308  0.0463
 7758W        W50670  26.412  22.134  24.441  0.0181  0.0771 -0.2820
 7759W        W50671  23.606  19.591  25.816 -0.4045 -0.1777 -0.0649
 7760W        W50672  22.464  20.415  23.777  0.2438 -0.0069 -0.2548
 7761W        W50673  22.258  20.498  24.636 -0.2087 -0.0932  0.1955
 7762W        W50674  23.996  18.798  23.833  0.0305  0.3037 -0.0280
 7763W        W50675  22.598  18.018  25.508 -0.0503  0.0223  0.1913
 7764W        W50676  23.365  22.104  25.194  0.1368 -0.3698  0.0424
 7765W        W50677  22.528  22.177  24.354  0.2204  0.2034  0.2193
 7766W        W50678  21.763  20.500  24.551  0.2406  0.1911  0.0520
 7767W        W50679  24.815  17.529  25.288 -0.1475  0.0977 -0.0752
 7768W        W50680  24.069  21.923  21.668 -0.0422 -0.3636  0.0165
 7769W        W50681  24.186  18.048  24.809  0.1710  0.0917 -0.0656
 7770W        W50682  26.352  18.969  26.100  0.2223 -0.1722  0.1153
 7771W        W50683  24.943  21.467  23.165 -0.0173 -0.3633 -0.1334
 7772W        W50684  23.803  18.882  28.465 -0.1673 -0.1343 -0.1808
 7773W        W50685  23.334  18.228  25.963 -0.2297  0.4919  0.4881
 7774W        W50686  25.987  21.136  25.582  0.0292 -0.0860 -0.0390
 7775W        W50687  21.694  18.973  25.613 -0.1191 -0.0246  0.1587
 7776W        W50688  23.098  22.104  28.406  0.1545 -0.1591  0.0735
 7777W        W50689  21.199  19.923  26.394 -0.1272  0.3055  0.2004
 7778W        W50690  23.413  17.713  23.775  0.0725 -0.0682  0.2897
 7779W        W50691  24.539  17.209  23.039  0.2828 -0.0540  0.0069
 7780W        W50692  23.457  20.692  25.690  0.1221 -0.3173 -0.0818
 7781W        W50693  25.226  21.497  24.928  0.3987  0.0136 -0.2655
 7782W        W50694  24.851  20.259  22.526  0.0806 -0.2767 -0.2947
 7783W        W50695  24.184  18.526  24.925  0.3643 -0.1503 -0.0514
 7784W        W50696  22.659  20.211  24.154  0.2202  0.1887 -0.0383
 7785W        W50697  24.853  21.103  23.990 -0.0035  0.1957  0.0695
 7786W        W50698  25.087  18.652  24.974  0.0974 -0.0304 -0.1042
 7787W        W50699  22.661  19.429  24.490 -0.1788  0.1584 -0.5322
 7788W        W50700  22.860  17.540  25.267 -0.0098  0.2633 -0.1528
 7789W        W50701  24.967  20.242  23.938 -0.1030  0.2664  0.3148
 7790W        W50702  23.641  18.624  25.866  0.4176 -0.0219  0.2384
 7791W        W50703  24.374  18.733  25.434  0.1089 -0.1590  0.1390
 7792W        W50704  24.365  19.310  26.263 -0.0137 -0.0866 -0.1123
 7793W        W50705  23.890  18.180  26.715 -0.1332  0.1292 -0.1051
 7794W        W50706  22.111  18.177  25.518  0.0938  0.3218  0.1448
 7795W        W50707  26.290  21.501  27.985  0.1584  0.0695  0.2498
 7796W        W50708  24.930  19.423  23.620  0.1886  0.0963 -0.2644
 7797W        W50709  25.375  19.712  26.729 -0.0252  0.0734 -0.1875
 7798W        W50710  26.705  21.902  26.485  0.3800  0.1391  0.0909
 7799W        W50711  23.765  19.101  23.327  0.4587 -0.1212 -0.1703
 7800W        W50712  22.565  18.948  24.474 -0.1007  0.0311 -0.1313
 7801W        W50713  26.016  19.968  25.921  0.1886  0.1168  0.1390
 7802W        W50714  22.345  18.015  21.767 -0.1782 -0.0398  0.1044
 7803W        W50715  26.090  18.588  27.157 -0.4180 -0.1663  0.0346
 7804W        W50716  23.435  22.127  24.381  0.1307  0.0737  0.0965
 7805W        W50717  25.226  20.603  24.171 -0.6404  0.0637  0.2351
 7806W        W50718  24.356  18.518  23.649  0.1294 -0.3038 -0.0018
 7807W        W50719  21.846  19.669  23.760  0.3314  0.0297  0.1041
 7808W        W50720  22.450  20.112  25.205 -0.0024  0.1385  0.0950
 7809W        W50721  22.156  18.165  24.460  0.0121  0.2771 -0.0857
 7810W        W50722  24.359  20.237  23.127  0.1713 -0.0022  0.1051
 7811W        W50723  24.319  20.549  23.592 -0.1904  0.1499  0.3264
 7812W        W50724  24.094  19.979  27.854 -0.2669 -0.1806  0.0193
 7813W        W50725  23.527  16.895  24.017 -0.1256 -0.0133  0.0710
 7814W        W50726  25.874  19.402  27.209  0.1003  0.0586 -0.2068
 7815W        W50727  22.407  21.267  24.145 -0.2941  0.1466 -0.4107
 7816W        W50728  24.726  18.658  26.101 -0.1136 -0.0013 -0.3786
 7817W        W50729  22.209  21.864  25.557  0.2202  0.3564 -0.0916
 7818W        W50730  22.000  20.692  23.925 -0.2802 -0.1476 -0.3510
 7819W        W50731  23.860  20.903  24.365  0.0568  0.1111 -0.2022
 7820W        W50732  23.630  18.057  25.533  0.0325  0.1298  0.1699
 7821W        W50733  25.785  18.383  25.660 -0.0970  0.0877 -0.0108
 7822W        W50734  22.060  19.757  25.520 -0.0223 -0.0921 -0.0450
 7823W        W50735  24.800  21.212  26.779  0.1294  0.2934  0.1046
 7824W        W50736  24.140  19.244  25.859  0.1418  0.0923 -0.0764
 7825W        W50737  24.063  19.808  24.648  0.0151  0.0361 -0.0613
 7826W        W50738  24.309  21.786  25.160 -0.1421  0.0377  0.1110
 7827W        W50739  25.189  20.026  25.435 -0.1240 -0.0519  0.0694
 7828W        W50740  22.549  20.939  24.706  0.0319 -0.1749 -0.1527
 7829W        W50741  22.034  18.642  23.541  0.2071 -0.0496  0.1669
 7830W        W50742  23.691  18.721  27.195 -0.0554  0.1019 -0.1288
 7831W        W50743  24.683  20.499  25.111 -0.1021  0.0946 -0.1484
 7832W        W50744  24.186  17.540  24.789 -0.0407  0.0560  0.0966
 7833W        W50745  24.330  20.790  23.007 -0.0946  0.0586  0.0185
 7834W        W50746  21.563  20.995  25.261 -0.0259  0.0770 -0.0697
 7835W        W50747  23.302  20.385  26.198 -0.0385  0.2539  0.0286
 7836W        W50748  21.407  20.953  24.400 -0.2999 -0.1833  0.2264
 7837W        W50749  24.537  20.128  24.169  0.1622  0.0454  0.0960
 7838W        W50750  24.753  20.467  23.205  0.0342  0.1905 -0.2351
 7839W        W50751  24.111  20.378  26.840  0.1629  0.2078 -0.1499
 7840W        W50752  24.610  18.655  24.044 -0.3474  0.1997  0.0620
 7841W        W50753  22.919  20.896  23.669  0.4222 -0.0146 -0.0768
 7842W        W50754  21.811  21.349  23.185  0.1913 -0.0878  0.2809
 7843W        W50755  25.296  20.548  24.731  0.0074  0.1296  0.1908
 7844W        W50756  24.279  21.988  23.487 -0.0864 -0.1977  0.2319
 7845W        W50757  24.547  20.762  26.877 -0.0928  0.1940  0.0683
 7846W        W50758  27.108  18.837  23.952 -0.0612 -0.0024  0.2034
 7847W        W50759  25.917  21.510  25.936 -0.1179 -0.1925  0.0227
 7848W        W50760  25.798  19.253  23.962  0.0357 -0.0064 -0.2178
 7849W        W50761  23.520  21.039  27.133 -0.0683  0.1107 -0.0428
 7850W        W50762  22.860  18.663  24.738  0.0140 -0.1304  0.3181
 7851W        W50763  22.050  18.080  22.872 -0.1756  0.2663  0.0727
 7852W        W50764  23.341  18.077  26.892 -0.0332 -0.0919  0.1079
 7853W        W50765  25.940  19.898  27.396 -0.1806 -0.2986  0.0792
 7854W        W50766  22.498  19.954  25.681  0.0007  0.1500 -0.2593
 7855W        W50767  25.689  22.268  25.523 -0.0868  0.2360 -0.0767
 7856W        W50768  23.110  17.501  23.406 -0.0594  0.0286 -0.1384
 7857W        W50769  24.261  19.173  25.137  0.0485 -0.3007  0.0361
 7858W        W50770  24.445  18.255  26.345  0.0897 -0.0022  0.1877
 7859W        W50771  23.285  22.116  22.977 -0.0036  0.0233 -0.2699
 7860W        W50772  24.193  17.996  25.322  0.1082 -0.1275 -0.1519
 7861W        W50773  25.041  22.151  24.871  0.1785 -0.0824  0.1651
 7862W        W50774  23.664  20.457  26.592  0.0520 -0.3297 -0.2965
 7863W        W50775  23.858  20.567  27.335  0.1499  0.0667  0.1641
 7864W        W50776  22.292  18.426  23.079  0.2764 -0.1203  0.2253
 7865W        W50777  25.030  19.286  24.364 -0.3576  0.3381  0.0770
 7866W        W50778  22.045  18.609  25.726  0.3508 -0.2658  0.0820
 7867W        W50779  24.374  17.974  26.796  0.1228 -0.0141 -0.2066
 7868W        W50780  24.134  19.313  24.644 -0.0955  0.1778  0.0397
 7869W        W50781  25.370  18.442  24.298 -0.1744  0.0593 -0.0655
 7870W        W50782  24.333  19.699  25.050 -0.0010  0.1450  0.2085
 7871W        W50783  22.362  18.982  25.543  0.1129 -0.3150  0.2152
 7872W        W50784  25.745  19.949  24.062  0.2447  0.1566 -0.2572
 7873W        W50785  25.281  21.084  27.188  0.0377  0.2290  0.1635
 7874W        W50786  23.764  19.324  23.783 -0.0381  0.2109  0.1700
 7875W        W50787  23.662  21.137  26.686  0.1525  0.0205 -0.4292
 7876W        W50788  23.661  17.835  24.588 -0.2089 -0.1163  0.1922
 7877W        W50789  23.978  18.624  23.340 -0.0645  0.2980 -0.0532
 7878W        W50790  23.463  20.760  23.606  0.3126  0.1163 -0.1015
 7879W        W50791  22.778  18.176  26.084 -0.0079  0.1245  0.0415
 7880W        W50792  23.472  22.529  26.906 -0.3225 -0.0281  0.0148
 7881W        W50793  22.758  17.632  23.931  0.1312 -0.3565 -0.2299
 7882W        W50794  25.311  21.150  24.136  0.1230 -0.1062  0.2563
 7883W        W50795  25.203  19.287  24.817 -0.0237 -0.0974 -0.2500
 7884W        W50796  23.916  22.898  23.869  0.0206 -0.2814 -0.2707
 7885W        W50797  25.505  21.040  25.366  0.1473 -0.1906 -0.1362
 7886W        W50798  24.353  21.071  24.174  0.2569  0.3170  0.1246
 7887W        W50799  21.798  20.359  23.606  0.1170  0.1721 -0.2065
 7888W        W50800  25.003  21.535  25.981  0.1007  0.0865  0.2876
 7889W        W50801  25.788  21.995  26.188  0.0421 -0.1321 -0.1168
 7890W        W50802  24.275  17.450  25.356  0.0346 -0.0281 -0.1729
 7891W        W50803  22.684  19.631  24.999 -0.0596 -0.1301 -0.2886
 7892W        W50804  20.905  21.599  23.805 -0.1540 -0.2650  0.0946
 7893W        W50805  25.460  18.743  24.684 -0.2813  0.1525 -0.1891
 7894W        W50806  24.738  18.759  27.299 -0.0494  0.3566  0.2887
 7895W        W50807  25.485  21.879  23.950 -0.0335  0.0898  0.1918
 7896W        W50808  24.558  18.225  27.983 -0.1785 -0.3541 -0.0667
 7897W        W50809  24.604  20.735  25.576 -0.2935  0.0553  0.2080
 7898W        W50810  23.798  20.015  27.173  0.1925 -0.1753  0.4404
 7899W        W50811  22.921  20.345  23.611 -0.1456 -0.0945  0.0579
 7900W        W50812  23.405  19.183  27.110 -0.2707 -0.2193 -0.0576
 7901W        W50813  24.648  21.978  24.509 -0.0536  0.1517 -0.0909
 7902W        W50814  22.912  21.457  25.030 -0.2103 -0.0061  0.0679
 7903W        W50815  24.242  20.867  25.936  0.3684 -0.3192 -0.1742
 7904W        W50816  23.610  19.583  24.545  0.1980 -0.1591 -0.2188
 7905W        W50817  26.241  21.269  26.276  0.1826 -0.0904  0.2607
 7906W        W50818  23.741  18.181  25.000  0.0606 -0.1669 -0.1262
 7907W        W50819  26.321  18.942  24.424  0.1326 -0.0469 -0.0050
 7908W        W50820  24.880  18.302  24.749 -0.2764  0.3307  0.0305
 7909W        W50821  23.739  20.368  25.328  0.3515 -0.1312 -0.2616
 7910W        W50822  22.621  17.997  22.616 -0.2691 -0.0113 -0.0211
 7911W        W50823  22.724  20.705  23.287  0.1006 -0.1751 -0.1597
 7912W        W50824  24.145  20.408  24.027 -0.2918  0.2997 -0.1499
 7913W        W50825  24.827  18.408  26.809  0.2551 -0.2230  0.3209
 7914W        W50826  21.568  18.491  25.716  0.2874  0.0060  0.2681
 7915W        W50827  23.717  20.311  23.632  0.2350  0.0879  0.0888
 7916W        W50828  22.454  17.526  22.931 -0.1508  0.0640  0.0148
 7917W        W50829  25.661  20.502  24.351 -0.0637 -0.0310 -0.1420
 7918W        W50830  23.650  18.191  23.654 -0.2358  0.0516  0.0253
 7919W        W50831  21.821  17.564  24.907  0.3953 -0.0756 -0.0923
 7920W        W50832  24.620  21.852  23.796  0.2177  0.3022  0.1650
 7921W        W50833  26.182  22.222  25.257 -0.1616 -0.0875 -0.1245
 7922W        W50834  23.576  18.012  24.149  0.0156 -0.1855 -0.1014
 7923W        W50835  24.061  20.985  27.118 -0.0811 -0.0988  0.0595
 7924W        W50836  21.245  19.032  22.398 -0.2602  0.0474 -0.0170
 7925W        W50837  24.056  17.339  27.197 -0.1677 -0.1108  0.0521
 7926W        W50838  23.797  18.923  26.177 -0.2804  0.0208 -0.0982
 7927W        W50839  22.450  17.991  23.166 -0.1386 -0.0131  0.0972
 7928W        W50840  24.285  18.821  26.398  0.2440  0.0905  0.2008
 7929W        W50841  25.697  21.482  24.958 -0.0506  0.3509  0.0098
 7930W        W50842  24.518  21.095  22.687  0.5555  0.2598 -0.2009
 7931W        W50843  24.137  20.234  25.007  0.0385 -0.3922 -0.2706
 7932W        W50844  23.102  21.255  26.393  0.1060 -0.0350 -0.0723
 7933W        W50845  21.971  18.894  25.143  0.1599 -0.0144 -0.3744
 7934W        W50846  24.577  20.077  24.761  0.0204  0.1025 -0.1031
 7935W        W50847  22.808  20.068  27.005  0.2922 -0.1063 -0.0914
 7936W        W50848  25.563  20.061  24.819 -0.1646 -0.0798 -0.2781
 7937W        W50849  25.458  18.449  27.840 -0.1680  0.1127  0.1342
 7938W        W50850  23.385  17.719  22.982  0.0440 -0.1985  0.0732
 7939W        W50851  23.280  18.815  26.190 -0.1527  0.0651 -0.2504
 7940W        W50852  23.929  19.576  26.379  0.1419 -0.0523 -0.0926
 7941W        W50853  24.602  21.046  26.285  0.0824  0.0180  0.1773
 7942W        W50854  24.231  17.538  23.341 -0.4827 -0.1529  0.1836
 7943W        W50855  24.586  18.810  24.923 -0.1260  0.0054  0.0513
 7944W        W50856  24.484  22.402  23.256  0.4183  0.0940 -0.0296
 7945W        W50857  22.954  18.786  23.479  0.1201  0.1530  0.0830
 7946W        W50858  24.091  17.924  24.256 -0.0231 -0.1615 -0.0879
 7947W        W50859  24.590  19.512  25.485 -0.2655  0.1047  0.0681
 7948W        W50860  24.213  21.393  23.778  0.4337 -0.0108  0.3363
 7949W        W50861  23.879  19.603  27.313  0.0302 -0.1234  0.2658
 7950W        W50862  24.322  19.143  23.652  0.2429  0.0749  0.0679
 7951W        W50863  25.720  19.221  24.531  0.1511  0.1105  0.1825
 7952W        W50864  25.358  22.550  24.778 -0.3240  0.1095 -0.0152
 7953W        W50865  26.422  20.993  28.170 -0.0092 -0.3458  0.0872
 7954W        W50866  22.914  20.111  26.479 -0.3814 -0.0076  0.1472
 7955W        W50867  24.660  19.755  25.932  0.1597  0.1266  0.0678
 7956W        W50868  22.601  17.729  24.360  0.0768 -0.0534  0.2752
 7957W        W50869  22.547  20.379  22.823  0.0709  0.0260 -0.0718
 7958W        W50870  24.058  19.845  24.152 -0.1393  0.0160 -0.0168
 7959W        W50871  24.148  19.762  25.861  0.2030 -0.0131  0.1365
 7960W        W50872  23.079  17.783  24.241 -0.1053  0.0349 -0.2457
 7961W        W50873  23.754  17.708  23.356  0.1614 -0.1658 -0.0607
 7962W        W50874  23.152  20.443  25.370 -0.1826  0.1511 -0.2785
 7963W        W50875  24.662  20.034  25.378 -0.0499 -0.1165  0.1607
 7964W        W50876  23.932  21.379  31.226  0.1242 -0.2689  0.0319
 7965W        W50877  20.728  19.865  27.050 -0.1017  0.1212  0.0912
 7966W        W50878  24.887  19.270  26.786 -0.1265  0.1952 -0.3256
 7967W        W50879  24.779  19.752  28.588 -0.2982 -0.0028  0.1459
 7968W        W50880  20.068  18.423  27.794 -0.0974  0.2994 -0.1594
 7969W        W50881  24.636  21.037  28.419  0.2285  0.1899 -0.1875
 7970W        W50882  22.423  18.457  29.989  0.4023  0.1075  0.1749
 7971W        W50883  23.823  21.334  29.256 -0.0615  0.2752  0.1594
 7972W        W50884  24.819  21.876  30.420 -0.0763  0.0918 -0.3101
 7973W        W50885  25.152  19.070  25.693  0.0512  0.1225 -0.4864
 7974W        W50886  22.556  18.981  29.417 -0.3737  0.0967 -0.3310
 7975W        W50887  22.195  21.630  28.937 -0.1800 -0.0746  0.2351
 7976W        W50888  22.439  18.795  27.404 -0.3048 -0.3480 -0.2498
 7977W        W50889  20.871  18.505  27.183 -0.1547 -0.0428 -0.2778
 7978W        W50890  24.757  20.865  29.411 -0.0338  0.0839  0.1701
 7979W        W50891  21.655  21.414  26.654  0.2907 -0.0013  0.0907
 7980W        W50892  21.994  18.716  28.240  0.3051 -0.1741  0.1984
 7981W        W50893  22.783  18.959  27.780  0.1592  0.2805 -0.0649
 7982W        W50894  23.894  22.220  27.075 -0.1465  0.1980  0.2021
 7983W        W50895  22.138  18.905  29.171  0.1000  0.2432  0.0546
 7984W        W50896  22.812  18.302  28.780 -0.0155 -0.1512 -0.1498
 7985W        W50897  24.088  21.471  27.776  0.2169 -0.1264  0.1962
 7986W        W50898  21.523  19.288  23.801  0.0403 -0.0081 -0.0330
 7987W        W50899  20.795  19.814  27.620 -0.0321 -0.2666 -0.1118
 7988W        W50900  23.083  19.602  30.163  0.0729  0.3284  0.1053
 7989W        W50901  24.966  19.385  28.871  0.0045  0.2770  0.1922
 7990W        W50902  23.673  19.405  28.459 -0.0671  0.0130  0.3206
 7991W        W50903  22.742  20.430  28.570  0.5072  0.2026  0.2484
 7992W        W50904  23.852  20.772  29.095 -0.3382  0.0635  0.1064
 7993W        W50905  24.568  19.286  31.158  0.0300 -0.4203  0.0063
 7994W        W50906  21.206  19.062  27.755 -0.1880  0.1270 -0.0597
 7995W        W50907  21.491  20.113  26.768 -0.0485  0.0043  0.3798
 7996W        W50908  22.811  20.856  27.424 -0.0011  0.0104 -0.1750
 7997W        W50909  26.024  21.386  28.375  0.0551  0.0620  0.0941
 7998W        W50910  24.992  19.918  30.889  0.1609  0.0950 -0.2096
 7999W        W50911  23.060  23.220  31.518  0.1388  0.1569 -0.0589
 8000W        W50912  22.423  20.513  25.612 -0.0372  0.0562 -0.1229
 8001W        W50913  22.316  22.215  30.545  0.5289 -0.1853  0.0630
 8002W        W50914  24.632  21.464  30.650 -0.2031 -0.2290 -0.2494
 8003W        W50915  22.404  19.613  28.792  0.0063  0.1106 -0.0530
 8004W        W50916  22.663  19.300  30.377  0.1223 -0.0595  0.0306
 8005W        W50917  22.749  21.369  26.741  0.1355  0.2806  0.2147
 8006W        W50918  23.476  21.014  28.885 -0.0965  0.0698 -0.4642
 8007W        W50919  22.887  20.111  29.883  0.1732 -0.0268  0.0836
 8008W        W50920  20.924  18.820  28.360 -0.0121  0.1769 -0.2305
 8009W        W50921  26.403  17.973  30.554  0.0534  0.1767  0.0122
 8010W        W50922  23.144  21.043  25.467  0.2052  0.1204 -0.0994
 8011W        W50923  24.417  19.187  27.196  0.0089  0.0908 -0.1165
 8012W        W50924  22.247  18.958  26.002 -0.3902 -0.0736 -0.0095
 8013W        W50925  25.886  19.879  27.883  0.0419  0.0808  0.0245
 8014W        W50926  22.045  19.324  28.924  0.0804 -0.1057 -0.2017
 8015W        W50927  23.242  22.230  29.424 -0.1321 -0.1159 -0.0572
 8016W        W50928  22.965  17.495  29.408 -0.3813 -0.1106  0.0711
 8017W        W50929  23.844  21.026  29.648 -0.0135  0.0740 -0.1898
 8018W        W50930  20.668  18.389  27.930 -0.2926 -0.1161  0.0522
 8019W        W50931  22.940  18.032  29.178 -0.0874 -0.1881 -0.0536
 8020W        W50932  21.882  21.097  30.235 -0.0608 -0.3241  0.0586
 8021W        W50933  20.626  19.957  28.467 -0.0086 -0.0455  0.0355
 8022W        W50934  25.357  21.464  28.833 -0.1435 -0.1844 -0.2600
 8023W        W50935  24.329  21.058  29.275 -0.0420  0.3346 -0.0499
 8024W        W50936  24.260  20.434  26.333  0.1822 -0.1447 -0.0550
 8025W        W50937  22.064  18.927  26.477 -0.1545 -0.1322 -0.3936
 8026W        W50938  22.068  18.159  30.382  0.0491 -0.0388 -0.2907
 8027W        W50939  22.470  19.019  30.784  0.0021 -0.2146 -0.2247
 8028W        W50940  24.022  18.164  25.880 -0.1130  0.2244  0.0706
 8029W        W50941  25.102  19.552  29.322  0.0125 -0.3315 -0.1541
 8030W        W50942  21.270  21.458   1.416 -0.0570 -0.2389  0.2671
 8031W        W50943  25.571  18.510  27.330 -0.1462 -0.1149  0.0248
 8032W        W50944  22.362  18.941  28.734  0.0569 -0.1385  0.0247
 8033W        W50945  22.969  20.457  27.711  0.1952  0.1242 -0.2276
 8034W        W50946  24.608  20.061  27.748  0.2076 -0.0964  0.0309
 8035W        W50947  23.887  18.558  29.496  0.1089 -0.2778  0.1705
 8036W        W50948  23.417  17.791  29.532  0.1229  0.1282 -0.1134
 8037W        W50949  22.600  18.959  26.395 -0.0437  0.2669 -0.0880
 8038W        W50950  23.382  19.571  28.078 -0.1141  0.1090  0.0342
 8039W        W50951  24.347  21.139  30.132 -0.0451 -0.0458 -0.0516
 8040W        W50952  24.831  19.243  27.529 -0.0530  0.0285  0.2338
 8041W        W50953  22.226  19.887  29.323 -0.2016  0.2714  0.3602
 8042W        W50954  22.904  19.667  30.670 -0.2607  0.0403  0.3060
 8043W        W50955  23.475  22.535  31.704 -0.1103 -0.2091  0.0036
 8044W        W50956  22.357  19.360  26.282  0.1133 -0.0498  0.1280
 8045W        W50957  20.877  20.334  27.561 -0.1833 -0.1324 -0.0493
 8046W        W50958  22.825  20.315  25.844 -0.1627  0.1879 -0.3376
 8047W        W50959  20.995  18.463  28.818  0.1082 -0.0035 -0.0203
 8048W        W50960  22.413  19.943  28.337  0.0131 -0.0527  0.1503
 8049W        W50961  24.200  18.670  28.244  0.0943  0.0500  0.0504
 8050W        W50962  20.273  18.296  29.360  0.0551  0.0203 -0.0952
 8051W        W50963  23.780  18.293  30.011  0.1783 -0.0062 -0.1878
 8052W        W50964  21.539  20.202  26.035  0.1444 -0.1964 -0.1921
 8053W        W50965  23.993  21.565  29.700  0.1105  0.1026 -0.1942
 8054W        W50966  25.399  19.821  27.960  0.0304  0.1280  0.0671
 8055W        W50967  23.800  21.412  27.315 -0.2311  0.0017  0.0108
 8056W        W50968  20.226  18.920  27.550  0.0924  0.2389 -0.0450
 8057W        W50969  21.757  19.776  27.199  0.0390  0.0116  0.2138
 8058W        W50970  21.933  17.720  28.648  0.0681 -0.1795  0.0299
 8059W        W50971  20.817  19.002  27.265  0.0714  0.1579 -0.1007
 8060W        W50972  23.959  20.756  30.075 -0.1995 -0.0820 -0.0498
 8061W        W50973  20.730  18.104  26.885  0.2898  0.2208 -0.1366
 8062W        W50974  23.325  19.224  29.871  0.1112  0.1540  0.1307
 8063W        W50975  23.618  20.245  27.613  0.0305  0.0887  0.3108
 8064W        W50976  20.267  19.170  28.553 -0.3780 -0.1466 -0.0430
 8065W        W50977  23.667  20.046  29.125  0.1037 -0.1419  0.3743
 8066W        W50978  23.335  20.845  28.405 -0.1719 -0.0115  0.1300
 8067W        W50979  25.338  20.276  29.178 -0.0485 -0.2801 -0.0860
 8068W        W50980  25.159  20.829  28.460 -0.2402  0.0443 -0.0492
 8069W        W50981  22.115  18.576  29.617  0.3158  0.2753 -0.0318
 8070W        W50982  21.586  17.606  27.013  0.5237 -0.1644  0.2924
 8071W        W50983  22.032  20.936  29.205  0.1633  0.1537 -0.1273
 8072W        W50984  22.017  20.294  28.449  0.0958 -0.2097 -0.4010
 8073W        W50985  22.521  17.676  27.433  0.1237 -0.0200  0.0624
 8074W        W50986  24.367  20.578  29.215 -0.4416  0.1260 -0.0547
 8075W        W50987  24.692  20.936  28.916 -0.0512 -0.1769 -0.1210
 8076W        W50988  21.492  18.420  28.799  0.2709 -0.2038  0.1598
 8077W        W50989  23.562  18.869  30.777 -0.2559  0.2484 -0.1070
 8078W        W50990  24.872  18.978  29.838 -0.0481  0.2255  0.2020
 8079W        W50991  24.305  19.809  28.748  0.3067 -0.0287  0.0767
 8080W        W50992  22.840  17.003  26.014  0.0990  0.2858  0.0835
 8081W        W50993  22.749  22.198  31.265  0.3443  0.0489  0.0885
 8082W        W50994  22.694  20.571  26.277  0.1586  0.2889  0.4030
 8083W        W50995  21.702  19.365  28.504  0.1781  0.1182 -0.1730
 8084W        W50996  23.196  20.175  27.316  0.0141  0.1940  0.0899
 8085W        W50997  25.355  18.292  28.657  0.0276 -0.1074  0.0669
 8086W        W50998  22.755  20.332  30.871  0.0861  0.0096  0.0878
 8087W        W50999  23.217  18.184  28.403 -0.2266  0.1447 -0.1911
 8088W        W51000  21.880  19.335  26.215 -0.2838  0.0437  0.0562
 8089W        W51001  23.447  20.485  29.678  0.1728 -0.1258 -0.0159
 8090W        W51002  22.423  17.977  27.849  0.1155 -0.0150  0.1305
 8091W        W51003  24.354  18.672  27.721 -0.1360 -0.2068 -0.0697
 8092W        W51004  23.067  21.075  30.845 -0.0172  0.2481 -0.0850
 8093W        W51005  23.998  19.814  28.379  0.0655 -0.2263 -0.0499
 8094W        W51006  24.235  18.548  26.803  0.0603 -0.5468  0.0331
 8095W        W51007  22.880  17.932  27.667 -0.2480 -0.0704 -0.0216
 8096W        W51008  22.513  21.582  30.951  0.2771 -0.0195 -0.0476
 8097W        W51009  23.271  19.096  28.846 -0.1266  0.1243  0.1267
 8098W        W51010  22.755  19.212  28.998 -0.1061  0.2275 -0.1553
 8099W        W51011  23.846  19.122  27.485 -0.1554 -0.1098  0.1535
 8100W        W51012  24.694  21.388  28.055 -0.2672 -0.0081  0.2419
 8101W        W51013  21.762  20.578  29.655  0.1889 -0.1304 -0.1815
 8102W        W51014  23.143  19.040  30.353  0.3151  0.0351  0.1280
 8103W        W51015  24.485  21.501  29.234 -0.0365  0.0796  0.0198
 8104W        W51016  23.863  16.493  29.639 -0.0926 -0.1312 -0.0967
 8105W        W51017  22.459  18.162  26.712 -0.2177  0.0814  0.1355
 8106W        W51018  22.016  17.415  27.639  0.0500  0.1418 -0.0579
 8107W        W51019  22.597  20.972  25.866  0.0850 -0.0868 -0.0550
 8108W        W51020  23.831  19.118  29.019  0.4137 -0.0450 -0.2319
 8109W        W51021  25.484  19.703  27.336 -0.4653  0.0211  0.0788
 8110W        W51022  23.923  18.012  29.596 -0.0990 -0.0159  0.2132
 8111W        W51023  24.797  20.483   0.119 -0.2053 -0.2682 -0.0147
 8112W        W51024  24.498  19.323  28.725  0.1235  0.2122 -0.1438
 8113W        W51025  23.221  19.625  28.925 -0.4085  0.0161  0.1483
 8114W        W51026  22.262  18.522  26.186  0.1248  0.0256  0.1595
 8115W        W51027  22.436  18.525  29.065 -0.0291 -0.1085  0.0357
 8116W        W51028  21.691  18.616  29.330  0.0666  0.1467 -0.0935
 8117W        W51029  21.897  19.022  30.696 -0.3756 -0.1177  0.2444
 8118W        W51030  24.213  20.241  30.053 -0.0751 -0.1395  0.0960
 8119W        W51031  22.583  19.384  28.009  0.3659  0.0881 -0.1125
 8120W        W51032  23.002  18.425  31.941  0.1428  0.2120  0.3265
 8121W        W51033  23.338  18.178  27.885 -0.0801 -0.0837 -0.3162
 8122W        W51034  23.468  20.542  27.029  0.3417 -0.0690 -0.0381
 8123W        W51035  24.425  19.582  27.538  0.0422 -0.0657  0.1116
 8124W        W51036  21.845  16.373  28.738  0.0190  0.0247 -0.1717
 8125W        W51037  22.806  20.860  29.768  0.1375 -0.0419 -0.0467
 8126W        W51038  23.882  19.946  26.654 -0.3023 -0.1148 -0.0994
 8127W        W51039  22.467  19.888  30.649 -0.3358  0.2581 -0.1145
 8128W        W51040  21.858  20.536  27.564  0.1369 -0.0630 -0.0022
 8129W        W51041  25.097  18.197  29.573  0.2535  0.5051  0.1461
 8130W        W51042  21.607  20.187  29.409  0.0210 -0.0218 -0.3083
 8131W        W51043  22.066  20.131  27.389  0.0449  0.3896 -0.0433
 8132W        W51044  21.102  19.413  27.395 -0.0239  0.2942  0.1546
 8133W        W51045  23.999  18.225  28.071  0.0237  0.1460  0.5860
 8134W        W51046  25.018  20.281  28.594 -0.0452  0.0184  0.0297
 8135W        W51047  22.492  17.507  29.615 -0.3910  0.1053  0.1796
 8136W        W51048  22.475  18.906  28.206  0.0380  0.0300 -0.1467
 8137W        W51049  21.950  22.015  29.097 -0.0003  0.0904 -0.0160
 8138W        W51050  23.621  19.147  31.231  0.2688 -0.0619  0.0683
 8139W        W51051  23.745  18.721  26.645 -0.2810 -0.0057 -0.0855
 8140W        W51052  22.837  19.864  28.679  0.2843 -0.0859  0.1100
 8141W        W51053  21.462  20.974  30.830 -0.0508  0.0978 -0.4325
 8142W        W51054  22.200  19.670  27.793  0.3152  0.0833  0.1170
 8143W        W51055  24.612  19.231  30.147  0.1034  0.0902  0.2433
 8144W        W51056  21.930  18.080  29.539  0.1260 -0.0701  0.1354
 8145W        W51057  22.733  21.118  27.817  0.2183 -0.1494  0.0714
 8146W        W51058  24.043  21.708  31.576  0.1059  0.0039 -0.0033
 8147W        W51059  22.167  19.151  27.828  0.0246  0.2916  0.0224
 8148W        W51060  21.859  20.981  26.857 -0.3282 -0.0152  0.1125
 8149W        W51061  21.767  19.357  31.096 -0.1156 -0.0089 -0.2789
 8150W        W51062  23.511  19.659  29.885 -0.1136  0.0838 -0.0231
 8151W        W51063  23.545  18.734  29.906 -0.4350  0.2816 -0.1388
 8152W        W51064  21.636  17.160  27.811 -0.1171 -0.4242 -0.0653
 8153W        W51065  22.732  18.563  29.593 -0.2107  0.0441 -0.2178
 8154W        W51066  23.464  20.489  29.207  0.0549 -0.0266 -0.0071
 8155W        W51067  22.967  18.960  30.815  0.0393 -0.2941 -0.2857
 8156W        W51068  21.887  20.625   0.604 -0.1079  0.0958 -0.1113
 8157W        W51069  22.746  18.224  28.113  0.4626  0.2766  0.0723
 8158W        W51070  27.622  21.492  27.551  0.0691  0.0892 -0.1961
 8159W        W51071  23.137  18.955  31.375 -0.2855  0.2413  0.2179
 8160W        W51072  23.285  20.010  26.808  0.4050  0.0732  0.2732
 8161W        W51073  21.796  19.070  31.630 -0.3258 -0.1718 -0.2876
 8162W        W51074  22.473  22.150  27.252  0.0525  0.0750  0.4665
 8163W        W51075  22.918  18.519  27.622 -0.1037 -0.1619  0.5572
 8164W        W51076  22.518  21.823  30.403  0.2267  0.2434  0.1494
 8165W        W51077  22.307  20.936  27.362 -0.1307  0.3319  0.0796
 8166W        W51078  22.089  20.659  28.786 -0.1046  0.3278 -0.0514
 8167W        W51079  24.520  16.975  28.493 -0.2713 -0.0106  0.2293
 8168W        W51080  24.491  21.211  27.198 -0.3960 -0.0519  0.2341
 8169W        W51081  22.408  18.381  28.418 -0.0155 -0.1804 -0.1593
 8170W        W51082  25.640  18.370  30.003 -0.0734  0.0601 -0.0947
 8171W        W51083  25.340  19.319  27.720  0.0092  0.1258 -0.0889
 8172W        W51084  24.071  19.321  31.114 -0.0672 -0.1454 -0.0077
 8173W        W51085  22.469  17.557  28.782 -0.0148  0.0943 -0.3702
 8174W        W51086  23.028  20.673  28.854 -0.1337  0.4778  0.2879
 8175W        W51087  21.748  18.057  30.014 -0.0302 -0.1594  0.2793
 8176W        W51088  24.465  21.449  31.427 -0.1237 -0.0844  0.1726
 8177W        W51089  21.664  18.526  30.442  0.2812 -0.2437  0.2393
 8178W        W51090  24.210  18.068  27.620 -0.0678  0.0886  0.2184
 8179W        W51091  22.859  19.368  27.177  0.0148  0.2223 -0.0241
 8180W        W51092  22.608  19.755  29.706 -0.0055 -0.3489 -0.0526
 8181W        W51093  24.924  19.887  28.147 -0.1420  0.0136  0.2256
 8182W        W51094  22.345  20.569  28.205 -0.1840 -0.3988 -0.0983
 8183W        W51095  25.211  17.956  29.024  0.2164 -0.1856 -0.0071
 8184W        W51096  21.684  19.157  29.302  0.3058 -0.1543  0.3629
 8185W        W51097  23.085  18.595  28.118 -0.0482 -0.4002 -0.1295
 8186W        W51098  24.202  20.069  29.151  0.2066  0.0283  0.0264
 8187W        W51099  21.899  19.804  28.193  0.2082 -0.2856  0.2511
 8188W        W51100  22.477  19.317  29.878  0.1016  0.0713 -0.2614
 8189W        W51101  23.100  19.981  27.808  0.1012  0.1475  0.1735
 8190W        W51102  22.982  19.467  27.666 -0.0874 -0.2691 -0.0019
 8191W        W51103  24.029  19.715  29.398 -0.1754 -0.0214 -0.0151
 8192W        W51104  23.800  18.183  29.104  0.3198  0.1297  0.2689
 8193W        W51105  23.265  18.530  30.442 -0.1844  0.0087 -0.1958
 8194W        W51106  21.583  18.979  28.220 -0.0069 -0.0886 -0.0438
 8195W        W51107  23.886  21.159  28.671 -0.1334 -0.1960  0.0401
 8196W        W51108  25.559  20.196  27.550 -0.1490  0.1249  0.2623
 8197W        W51109  24.061  18.687  29.965  0.1067  0.0049 -0.2142
 8198W        W51110  24.386  18.638  28.768 -0.0647 -0.0597 -0.3730
 8199W        W51111  24.789  18.393  27.603  0.1221 -0.2447  0.1031
 8200W        W51112  20.320  20.571  29.282 -0.1767  0.1159 -0.0495
 8201W        W51113  23.495  19.518  29.350  0.1084  0.1058  0.1034
 8202W        W51114  22.488  18.656  26.864 -0.2147 -0.0762  0.1802
 8203W        W51115  23.535  18.108  30.427 -0.1297  0.0054  0.1834
 8204W        W51116  23.308  21.470  27.100  0.0211 -0.3371 -0.0829
 8205W        W51117  24.979  19.442  28.079  0.0979  0.3070  0.2869
 8206W        W51118  23.889  19.061  25.439  0.0548 -0.3798 -0.2933
 8207W        W51119  21.822  18.552  27.750  0.2703  0.0542 -0.1044
 8208W        W51120  23.215  20.787  31.408 -0.1592  0.0165  0.1658
 8209W        W51121  22.458  20.329  26.724 -0.0602  0.3508 -0.2218
 8210W        W51122  22.621  19.872  26.130 -0.0016  0.3408 -0.3826
 8211W        W51123  23.001  20.587  29.386  0.2621  0.0764  0.2166
 8212W        W51124  24.950  21.320  29.518 -0.1393  0.1132  0.1670
 8213W        W51125  23.065  18.884  27.331 -0.1720  0.0954 -0.1421
 8214W        W51126  24.707  19.525  29.648  0.0389  0.2003  0.1439
 8215W        W51127  22.730  19.630  26.698  0.0155  0.0168  0.0211
 8216W        W51128  23.423  17.352  29.026  0.1366 -0.2612 -0.0966
 8217W        W51129  22.760  20.719  30.566 -0.0834  0.0861 -0.1084
 8218W        W51130  21.573  19.064  30.296  0.0761 -0.0586 -0.3843
 8219W        W51131  23.361  21.075  27.945 -0.0909 -0.1264 -0.2590
 8220W        W51132  23.407  18.294  29.644  0.0065  0.0568  0.0562
 8221W        W51133  24.541  19.716  30.893 -0.2690  0.2223  0.0332
 8222W        W51134  24.689  19.066  28.279  0.0649  0.0675  0.2485
 8223W        W51135  23.105  19.144  29.353  0.2062  0.0044 -0.0469
 8224W        W51136  23.074  21.408   0.109  0.2174 -0.0136 -0.1999
 8225W        W51137  22.065  19.811  26.063  0.2396 -0.0333 -0.1766
 8226W        W51138  23.397  20.925  30.538 -0.0371  0.0045  0.2958
 8227W        W51139  24.960  18.917  28.751 -0.3727  0.0478 -0.2663
 8228W        W51140  21.615  19.418  27.971 -0.1356  0.1428 -0.0071
 8229W        W51141  21.585  19.060  29.738 -0.1649 -0.3626  0.0964
 8230W        W51142  21.733  20.863  31.463  0.1704  0.3626  0.0913
 8231W        W51143  25.157  21.021  29.103  0.1481  0.0774 -0.0923
 8232W        W51144  21.787  18.942  27.383  0.3030  0.2042 -0.1136
 8233W        W51145  24.271  20.006  27.364  0.4015 -0.0015 -0.3078
 8234W        W51146  21.788  22.597  31.539 -0.1256  0.1675 -0.1313
 8235W        W51147  21.148  19.836  29.945  0.0582  0.0931 -0.3027
 8236W        W51148  20.808  20.693  26.720  0.1820  0.0328 -0.0012
 8237W        W51149  24.003  20.476  27.885  0.1888 -0.1167 -0.2076
 8238W        W51150  23.643  19.215  26.533 -0.0800 -0.0760 -0.0061
 8239W        W51151  23.119  20.127  28.969  0.1349  0.2702  0.0986
 8240W        W51152  22.157  20.178  27.917  0.2134  0.3252  0.0755
 8241W        W51153  21.839  20.215  28.977  0.1869  0.2981  0.3753
 8242W        W51154  22.523  20.850  26.833  0.1577  0.2329 -0.1851
 8243W        W51155  24.526  20.514  27.805  0.0060  0.3552 -0.1511
 8244W        W51156  22.844  21.384  29.496  0.0539  0.3424 -0.0238
 8245W        W51157  24.918  20.451  30.275  0.1003 -0.1140  0.0332
 8246W        W51158  26.021  18.547  27.972  0.3249  0.0779 -0.0691
 8247W        W51159  25.578  18.908  27.946  0.0322 -0.2918  0.3057
 8248W        W51160  25.293  18.843  27.508  0.1470 -0.0608 -0.2510
 8249W        W51161  24.144  21.207  31.782  0.1997 -0.0657 -0.2841
 8250W        W51162  23.314  20.002  29.494 -0.1206 -0.2133 -0.2215
 8251W        W51163  23.336  18.582  26.920 -0.2856  0.1423  0.1102
 8252W        W51164  21.711  18.646  31.105 -0.3436  0.1315 -0.2392
 8253W        W51165  24.478  18.712  31.130  0.0458 -0.1599 -0.0337
 8254W        W51166  21.877  22.421  30.420  0.0345  0.0283  0.0196
 8255W        W51167  24.111  20.371  28.353 -0.0403  0.0748  0.2093
 8256W        W51168  21.586  18.894  26.518 -0.0641  0.1065 -0.0589
 8257W        W51169  22.604  20.324  30.287 -0.0737 -0.2972  0.0534
 8258W        W51170  25.407  17.775  29.450 -0.0201  0.1596 -0.0131
 8259W        W51171  22.702  20.213  28.047 -0.2767  0.1029 -0.0450
 8260W        W51172  22.329  17.909  25.907  0.0732  0.0772 -0.0588
 8261W        W51173  22.446  21.046  28.239  0.1828  0.0036  0.1207
 8262W        W51174  22.865  18.824  28.602  0.2495 -0.5174  0.2662
 8263W        W51175  23.345  22.211  30.586  0.1517 -0.0134 -0.0739
 8264W        W51176  22.346  19.797  27.066  0.1308  0.4040 -0.1861
 8265W        W51177  24.216  18.868  29.217 -0.4439 -0.0912  0.1142
 8266W        W51178  21.946  17.918  27.492  0.0385 -0.0480  0.2475
 8267W        W51179  24.521  17.413  29.627  0.0599  0.0798  0.1020
 8268W        W51180  22.530  19.440  27.524  0.2220 -0.0214  0.1539
 8269W        W51181  24.763  18.113  29.206 -0.1414  0.0613 -0.0102
 8270W        W51182  22.057  19.626  29.741  0.2879 -0.1292  0.1390
 8271W        W51183  21.240  18.486  29.547 -0.3418 -0.4275 -0.2720
 8272W        W51184  23.566  19.981  28.616 -0.1190 -0.0327  0.0165
 8273W        W51185  24.465  19.739  30.355 -0.0601 -0.1301  0.0778
 8274W        W51186  23.871  20.081  26.124 -0.1385 -0.3260  0.5506
 8275W        W51187  25.216  20.845  31.173 -0.0128  0.0044  0.0998
 8276W        W51188  21.559  18.586  26.992 -0.0577  0.0326  0.1411
 8277W        W51189  24.556  17.738  27.970 -0.0113  0.3988 -0.1090
 8278W        W51190  21.561  19.364  27.498  0.0841 -0.3578  0.2805
 8279W        W51191  23.697  20.216  30.062  0.0041  0.1608 -0.0764
 8280W        W51192  24.813  21.718  31.745 -0.3465 -0.2410 -0.1331
 8281W        W51193  21.218  18.204  26.906 -0.0647 -0.3833  0.1275
 8282W        W51194  24.296  19.475  26.730 -0.1405  0.0774 -0.2413
 8283W        W51195  24.227  19.354  29.195 -0.0893 -0.0559 -0.2190
 8284W        W51196  22.944  19.831  25.481 -0.0640 -0.0466  0.3818
 8285W        W51197  23.176  20.218  28.321 -0.0514  0.0811  0.1191
 8286W        W51198  23.024  21.618  31.093  0.0137 -0.0088  0.2034
 8287W        W51199  20.774  18.760  30.098 -0.3207  0.1602 -0.0189
 8288W        W51200  23.396  21.411  30.707  0.1412 -0.0622 -0.2021
 8289W        W51201  24.839  22.091  29.915 -0.2793  0.0960  0.1709
 8290W        W51202  24.579  17.043  30.335 -0.0158 -0.1675  0.1149
 8291W        W51203  23.001  19.212  28.304 -0.0311  0.0927 -0.0656
 8292W        W51204  22.399  20.615  27.739  0.0025 -0.1238 -0.1989
 8293W        W51205  24.427  20.178  29.549 -0.2463 -0.1109  0.0535
 8294W        W51206  25.113  18.386  30.154  0.2616  0.1622 -0.1266
 8295W        W51207  23.150  21.312  27.535 -0.1306  0.1409 -0.5405
 8296W        W51208  23.996  18.875  30.971 -0.0135 -0.1409  0.2049
 8297W        W51209  22.909  21.033  29.106  0.3790  0.1955  0.4018
 8298W        W51210  22.595  21.765   0.410 -0.1656 -0.0568  0.1596
 8299W        W51211  22.733  19.452  25.924 -0.2272 -0.0788  0.3435
 8300W        W51212  22.340  19.390  29.379 -0.1109 -0.2138  0.0932
 8301W        W51213  22.974  20.515  26.965  0.0178  0.2570  0.1834
 8302W        W51214  22.922  21.199  28.372  0.0611  0.0791  0.0768
 8303W        W51215  22.756  21.858  29.946 -0.0103 -0.0935  0.0237
 8304W        W51216  22.553  20.054  27.493 -0.0712  0.4025  0.0085
 8305W        W51217  24.355  21.320  28.771 -0.0279  0.4697 -0.2314
 8306W        W51218  23.783  18.472  27.654 -0.2787  0.1800 -0.2123
 8307W        W51219  24.278  19.160  27.758 -0.2632 -0.2439  0.1238
 8308W        W51220  23.671  17.792  28.074  0.2394 -0.3468  0.1292
 8309W        W51221  22.225  19.486  30.816 -0.2917  0.4924  0.2545
 8310W        W51222  21.554  18.354  26.422 -0.0468 -0.1265 -0.0228
 8311W        W51223  22.056  19.391  27.338  0.2980 -0.0869  0.1461
 8312W        W51224  22.747  20.177  29.431  0.2082 -0.0584  0.0164
 8313W        W51225  22.903  18.671  29.121  0.0908  0.0754 -0.1871
 8314W        W51226  21.865  18.922  28.730  0.0936  0.0937  0.0431
 8315W        W51227  20.559  18.490  29.772 -0.0948  0.1358  0.4930
 8316W        W51228  22.059  18.460  27.271 -0.1452  0.1468  0.0000
 8317W        W51229  24.398  20.665  27.341 -0.0161  0.0691 -0.3210
 8318W        W51230  22.431  18.513  27.846 -0.2663 -0.1067 -0.1660
 8319W        W51231  22.573  17.354  27.841  0.0921  0.0673  0.4759
 8320W        W51232  24.212  19.233  28.293  0.3259 -0.3030 -0.2723
 8321W        W51233  24.847  20.489  29.067 -0.3337 -0.0302  0.2503
 8322W        W51234  23.907  18.300  27.190 -0.1219 -0.1233  0.0109
 8323W        W51235  25.787  22.482  30.603  0.1420 -0.2793 -0.2752
 8324W        W51236  21.676  19.212  27.023 -0.2299  0.1113 -0.1331
 8325W        W51237  23.411  18.725  31.757  0.1295  0.0392  0.1267
 8326W        W51238  23.218  17.966  30.041 -0.2057  0.2604  0.3033
 8327W        W51239  21.407  18.395  24.661  0.1617  0.0142 -0.0866
 8328W        W51240  21.585  19.579  29.020 -0.2624 -0.1803 -0.0511
 8329W        W51241  22.559  21.980  28.243 -0.1203 -0.0731 -0.0697
 8330W        W51242  23.340  22.502  28.924  0.0796  0.1603 -0.1955
 8331W        W51243  22.783  22.104  30.758 -0.1051 -0.0029  0.2044
 8332W        W51244  21.960  21.625  30.944  0.0926 -0.0897  0.2921
 8333W        W51245  21.267  17.647  29.986  0.0397  0.1324 -0.1510
 8334W        W51246  23.894  19.650  28.925  0.0895 -0.1329 -0.0714
 8335W        W51247  23.365  21.313  31.262 -0.2301  0.0790  0.1136
 8336W        W51248  24.645  20.511  28.329  0.2147  0.1319  0.1109
 8337W        W51249  23.880  18.624  28.938 -0.1869 -0.0857  0.3075
 8338W        W51250  23.337  19.689  27.278  0.4981  0.3119  0.0531
 8339W        W51251  20.956  18.104  29.654  0.1567  0.1980  0.3217
 8340W        W51252  22.946  17.931  31.818  0.3112 -0.0301  0.2317
 8341W        W51253  24.442  21.758  29.939 -0.2614 -0.0135  0.2823
 8342W        W51254  23.249  17.022  28.586 -0.2421 -0.0546  0.2627
 8343W        W51255  23.671  19.026  29.516 -0.0519 -0.0498 -0.4289
 8344W        W51256  23.522  20.472  28.646 -0.0938  0.0451 -0.2167
 8345W        W51257  20.734  18.896  28.968  0.0407 -0.2692 -0.0052
 8346W        W51258  22.526  20.463  27.276 -0.0786 -0.2869  0.1932
 8347W        W51259  23.196  18.724  29.536 -0.2817 -0.2695  0.1833
 8348W        W51260  23.961  20.530  29.592 -0.0171  0.3035 -0.0136
 8349W        W51261  23.930  20.875  30.580  0.1097 -0.0438  0.1761
 8350W        W51262  23.822  19.480  27.929  0.1690 -0.0698  0.1090
 8351W        W51263  23.958  20.360  28.843  0.0540  0.1161 -0.0433
 8352W        W51264  24.853  21.107  30.941 -0.0446 -0.0020  0.2654
 8353W        W51265  25.949  21.557   0.395  0.3530  0.3325  0.0241
 8354W        W51266  22.509  21.277  29.874  0.3008  0.0052  0.1763
 8355W        W51267  25.292  19.699  28.498  0.1089  0.0410 -0.2713
 8356W        W51268  22.366  18.071  28.822 -0.1098 -0.1299 -0.1122
 8357W        W51269  22.151  20.730  26.499 -0.1798  0.1409 -0.0638
 8358W        W51270  23.665  19.977  28.095  0.1883  0.0106  0.1404
 8359W        W51271  24.933  19.993  29.433 -0.1623  0.1283  0.0621
 8360W        W51272  20.589  19.290  27.597 -0.0557  0.1463 -0.2277
 8361W        W51273  23.299  18.383  29.111 -0.1607 -0.1211 -0.0916
 8362W        W51274  23.536  21.744  30.390 -0.1278  0.3071  0.0314
 8363W        W51275  22.479  20.428  29.824  0.0826  0.0866 -0.0841
 8364W        W51276  24.528  19.769  31.414 -0.0238 -0.3783 -0.0069
 8365W        W51277  23.563  21.841  31.323 -0.1707 -0.2612 -0.3467
 8366W        W51278  19.720  18.353  29.462  0.2105  0.0761  0.0648
 8367W        W51279  22.292  22.412  31.317 -0.2699 -0.1954  0.3030
 8368W        W51280  22.047  23.749  31.571  0.0100 -0.1850 -0.4052
 8369W        W51281  24.247  23.698  31.599  0.1058 -0.2948 -0.0201
 8370W        W51282  24.046  20.380  30.469  0.2089  0.0605 -0.1070
 8371W        W51283  22.404  18.557  31.031 -0.1587 -0.4159 -0.0098
 8372W        W51284  22.460  20.803  30.110  0.1012 -0.0245  0.2815
 8373W        W51285  24.285  20.599  30.908 -0.5294 -0.0287 -0.0621
 8374W        W51286  24.063  19.780  31.689  0.1779 -0.2295  0.1448
 8375W        W51287  21.095  17.211  30.424 -0.0237 -0.0196 -0.0722
 8376W        W51288  23.477  19.769  31.354  0.1479  0.3046  0.1646
 8377W        W51289  22.173  20.211  30.924 -0.0148 -0.3489  0.2891
 8378W        W51290  23.559  19.913  31.860  0.0284 -0.1888 -0.1119
 8379W        W51291  23.649  21.035  30.934  0.4332 -0.1335  0.0946
 8380W        W51292  21.128  19.292  29.093  0.0956 -0.0414  0.4003
 8381W        W51293  22.890  19.708  28.234  0.3375 -0.1669 -0.0081
 8382W        W51294  19.885  16.768  31.645  0.1129 -0.1274 -0.0373
 8383W        W51295  22.289  20.373  31.866  0.0095  0.0845  0.1820
 8384W        W51296  22.066  18.434  31.360 -0.1394 -0.3536 -0.3411
 8385W        W51297  21.388  22.437  30.182  0.4221 -0.2675  0.1525
 8386W        W51298  23.062  18.473  29.978 -0.2146  0.0141  0.0288
 8387W        W51299  23.223  18.287   1.691  0.1776  0.4219 -0.1668
 8388W        W51300  22.607  19.659  31.597  0.0630  0.1950  0.0033
 8389W        W51301  24.752  18.318  30.489  0.1000 -0.3549 -0.4451
 8390W        W51302  21.903  20.348  31.509 -0.0019 -0.1977  0.0818
 8391W        W51303  21.563  21.958  30.740 -0.0048 -0.0815  0.0112
 8392W        W51304  22.049  19.241  30.137 -0.1343 -0.0923  0.0717
 8393W        W51305  21.691  19.721  30.079 -0.2294  0.1412 -0.0473
 8394W        W51306  22.140  18.979  31.213  0.1748  0.0267  0.1714
 8395W        W51307  22.213  17.584   0.164  0.0658 -0.0102  0.1558
 8396W        W51308  25.806  20.334  31.918 -0.3655  0.2600  0.0598
 8397W        W51309  23.687  18.335  30.873  0.1039 -0.0633 -0.1437
 8398W        W51310  21.495  20.589   0.226  0.2430 -0.1672 -0.1640
 8399W        W51311  23.119  20.851  31.892  0.0432 -0.0708 -0.2947
 8400W        W51312  22.964  21.015   0.961 -0.1287  0.2364 -0.0344
 8401W        W51313  24.475  20.676  31.802 -0.0259  0.0498  0.1171
 8402W        W51314  24.013  21.732  30.261 -0.1429 -0.0051 -0.1718
 8403W        W51315  23.436  20.261   0.707 -0.0160  0.2121  0.2361
 8404W        W51316  24.119  20.037  31.062  0.1912 -0.0775  0.0917
 8405W        W51317  23.812  20.081  29.636 -0.0076  0.0371  0.1696
 8406W        W51318  22.889  18.960  29.853  0.0241  0.1126 -0.1086
 8407W        W51319  23.276  22.202  31.081  0.0240 -0.0619  0.0551
 8408W        W51320  21.687  19.551  31.608  0.1531  0.0185 -0.0890
 8409W        W51321  22.413  21.514  31.849 -0.0461  0.0061 -0.0472
 8410W        W51322  22.488  18.152  30.706  0.1031  0.0600  0.0504
 8411W        W51323  24.168  20.678   0.220  0.0946  0.1971 -0.1006
 8412W        W51324  24.593  20.229  31.082  0.1206  0.0308  0.0265
 8413W        W51325  21.845  22.019  31.694  0.1639 -0.2182  0.0949
 8414W        W51326  25.025  21.464   0.195 -0.0978 -0.0175  0.2408
 8415W        W51327  23.807  19.399  31.604  0.0038 -0.1183 -0.0205
 8416W        W51328  24.282  19.757  29.840  0.0445  0.0130  0.0068
 8417W        W51329  24.381  21.100  30.907  0.1242  0.4005 -0.2586
 8418W        W51330  22.632  19.835  30.188  0.1589 -0.2910 -0.0392
 8419W        W51331  23.192  19.952  30.906 -0.3337  0.1519  0.0023
 8420W        W51332  24.256  20.324  31.418 -0.2345 -0.1323  0.1088
 8421W        W51333  24.604  22.980  31.052 -0.0498 -0.5199  0.0683
 8422W        W51334  23.095  20.095  30.358 -0.0167 -0.0145 -0.1093
 8423W        W51335  22.777  18.546  30.626  0.3264  0.4049 -0.1401
 8424W        W51336  21.480  20.523  31.738 -0.2153 -0.1353 -0.2962
 8425W        W51337  22.212  18.611  30.534  0.1783 -0.1425  0.0458
 8426W        W51338  21.338  18.876  28.642  0.0671  0.1264 -0.4269
 8427W        W51339  22.746  18.037   0.971 -0.4835 -0.1719  0.1714
 8428W        W51340  23.353  22.642   0.267 -0.2306  0.3286  0.0344
 8429W        W51341  26.582  22.007  31.897  0.1386  0.0689 -0.0775
 8430W        W51342  24.066  18.957  31.432  0.1289  0.2639  0.0902
 8431W        W51343  24.021  26.018  18.858  0.1322  0.1084  0.3083
 8432W        W51344  23.085  21.822  16.863 -0.2178 -0.1769  0.0783
 8433W        W51345  23.845  22.740  15.774  0.1528 -0.2795  0.0303
 8434W        W51346  24.970  22.974  16.680  0.1666 -0.0306  0.0417
 8435W        W51347  22.010  23.368  16.602 -0.2891  0.1198  0.0845
 8436W        W51348  25.507  24.720  16.474 -0.0450 -0.0291 -0.0709
 8437W        W51349  24.480  22.201  19.009  0.0574  0.0812 -0.4106
 8438W        W51350  25.068  24.368  16.528  0.1127 -0.1473 -0.0173
 8439W        W51351  24.271  25.763  16.701  0.0147 -0.2007 -0.1459
 8440W        W51352  23.770  24.116  15.641  0.2761  0.4057  0.2724
 8441W        W51353  22.481  24.282  18.073  0.1576  0.0478 -0.0251
 8442W        W51354  23.253  26.586  18.999  0.2739  0.1015  0.0974
 8443W        W51355  23.113  21.614  16.121 -0.0639  0.1934  0.3608
 8444W        W51356  21.622  22.364  18.595 -0.2681 -0.2029  0.1452
 8445W        W51357  25.297  24.403  17.903 -0.0804  0.0239 -0.0511
 8446W        W51358  22.548  24.664  16.581 -0.2035  0.1776  0.0332
 8447W        W51359  24.007  23.039  17.809  0.3698 -0.2474 -0.1674
 8448W        W51360  22.824  21.578  16.569 -0.1304  0.0142  0.1027
 8449W        W51361  24.382  24.530  16.499 -0.0864 -0.3498 -0.0411
 8450W        W51362  24.196  22.788  19.923  0.1097 -0.1894 -0.0497
 8451W        W51363  24.876  22.776  19.786 -0.0401 -0.2072  0.1357
 8452W        W51364  25.195  24.685  16.882 -0.1103 -0.1696 -0.1750
 8453W        W51365  22.144  24.822  17.606 -0.0553  0.1576 -0.0100
 8454W        W51366  21.858  25.125  18.305  0.1931  0.0931  0.1697
 8455W        W51367  23.633  23.542  19.068 -0.4852 -0.3488 -0.0923
 8456W        W51368  25.769  23.549  18.261  0.0778 -0.2411 -0.0016
 8457W        W51369  24.899  23.217  17.331  0.0307  0.0589  0.1208
 8458W        W51370  23.772  25.898  17.855  0.0394 -0.0696 -0.2928
 8459W        W51371  23.871  25.562  17.410  0.2716  0.0776  0.1722
 8460W        W51372  24.199  24.009  20.874 -0.0017  0.1028 -0.0109
 8461W        W51373  23.055  24.940  18.239  0.4723 -0.2901 -0.1230
 8462W        W51374  22.174  25.348  17.600  0.1252  0.0007 -0.1605
 8463W        W51375  24.454  24.314  17.313 -0.1692  0.0818 -0.2466
 8464W        W51376  25.429  23.828  16.703  0.2305  0.0828 -0.0237
 8465W        W51377  24.496  27.201  18.637  0.3117  0.3051  0.1554
 8466W        W51378  23.744  27.240  19.033  0.3148 -0.0506 -0.2873
 8467W        W51379  22.535  25.211  15.500  0.0407  0.0495  0.4946
 8468W        W51380  24.437  26.401  19.695 -0.0263  0.0380  0.0495
 8469W        W51381  22.761  26.282  20.272  0.3422  0.3675  0.0479
 8470W        W51382  24.471  24.517  18.572 -0.2223  0.0810 -0.0315
 8471W        W51383  22.711  23.304  16.326 -0.1565 -0.0758  0.1652
 8472W        W51384  23.327  26.240  15.993  0.2686  0.0601 -0.0377
 8473W        W51385  25.287  25.783  17.752  0.2153 -0.0174 -0.3444
 8474W        W51386  22.829  25.335  21.010 -0.1219 -0.2484  0.0300
 8475W        W51387  23.472  24.875  19.502  0.2858  0.1248  0.0663
 8476W        W51388  25.099  24.306  20.006  0.2783  0.0335 -0.1258
 8477W        W51389  23.573  25.858  16.070 -0.1078  0.0427 -0.2424
 8478W        W51390  21.791  22.705  15.606 -0.2451  0.0300 -0.1455
 8479W        W51391  20.968  23.286  15.824  0.0952 -0.0543 -0.0334
 8480W        W51392  24.029  23.443  18.528 -0.0128 -0.0477  0.3487
 8481W        W51393  23.574  22.973  17.507  0.1082 -0.1139  0.0911
 8482W        W51394  22.855  25.385  17.111  0.0188 -0.2109 -0.2956
 8483W        W51395  24.313  21.911  18.639  0.2014  0.0655 -0.1250
 8484W        W51396  25.631  25.452  17.904  0.0590 -0.0600  0.2491
 8485W        W51397  24.047  24.793  16.811 -0.0232  0.3295 -0.2937
 8486W        W51398  24.318  23.050  18.669  0.0284 -0.2106  0.0131
 8487W        W51399  23.920  24.527  18.504  0.0356 -0.0370 -0.1328
 8488W        W51400  22.274  24.921  18.570 -0.1876  0.6216  0.0727
 8489W        W51401  24.741  25.448  16.630 -0.0393 -0.1016 -0.1759
 8490W        W51402  25.940  24.511  16.639  0.2684 -0.0028  0.0999
 8491W        W51403  25.710  26.083  16.336  0.2427 -0.0508  0.1151
 8492W        W51404  22.612  24.956  16.973  0.0882  0.0120  0.1125
 8493W        W51405  20.918  25.410  19.996  0.0976 -0.2512 -0.3780
 8494W        W51406  22.690  24.168  18.565  0.2592  0.3781  0.3321
 8495W        W51407  22.989  21.540  15.252 -0.1278  0.0455 -0.1440
 8496W        W51408  25.604  25.049  18.792  0.1338  0.1959  0.1679
 8497W        W51409  21.165  24.733  17.689  0.1303 -0.1676 -0.1723
 8498W        W51410  23.801  22.393  16.163  0.0703 -0.0747  0.0484
 8499W        W51411  25.036  24.639  19.109 -0.0194 -0.0107  0.3455
 8500W        W51412  24.862  26.687  17.938  0.1871  0.0996  0.0039
 8501W        W51413  24.663  23.693  15.924 -0.0434 -0.3302  0.0302
 8502W        W51414  25.717  22.180  18.439  0.0869  0.0268 -0.2877
 8503W        W51415  24.499  22.362  17.395 -0.1574  0.1094  0.1193
 8504W        W51416  22.799  24.270  16.132  0.0302  0.2334 -0.3452
 8505W        W51417  22.007  22.848  16.560 -0.2345  0.0173  0.1459
 8506W        W51418  25.057  25.643  19.366  0.0801 -0.2527 -0.2300
 8507W        W51419  24.686  23.252  15.697  0.1117  0.3720 -0.0436
 8508W        W51420  22.895  25.158  17.888 -0.2681 -0.3418 -0.0633
 8509W        W51421  23.822  24.168  18.164  0.4617 -0.1130  0.1535
 8510W        W51422  24.396  25.572  18.866  0.1081 -0.1988 -0.3078
 8511W        W51423  22.328  26.855  16.068  0.0379  0.2178 -0.0174
 8512W        W51424  21.308  25.200  17.174 -0.0440  0.2575  0.0856
 8513W        W51425  23.538  25.106  17.579  0.2623 -0.0899  0.0120
 8514W        W51426  21.898  23.504  18.341  0.2860  0.2348 -0.0046
 8515W        W51427  23.447  25.594  18.923 -0.3243  0.1076  0.0535
 8516W        W51428  23.963  21.762  16.277  0.2357 -0.2307  0.1517
 8517W        W51429  23.246  25.079  19.067  0.1558  0.0861 -0.3264
 8518W        W51430  26.120  21.734  17.680 -0.0307  0.0719  0.0625
 8519W        W51431  22.759  25.690  16.281  0.0312  0.1511  0.0133
 8520W        W51432  26.444  27.118  17.259 -0.0318 -0.0782 -0.0469
 8521W        W51433  24.579  22.651  16.399  0.2164 -0.2471 -0.2057
 8522W        W51434  25.032  25.978  15.866  0.0565  0.0442  0.1795
 8523W        W51435  22.714  24.250  19.368 -0.1675 -0.0311 -0.0635
 8524W        W51436  23.485  22.742  16.599 -0.2126 -0.0228 -0.1164
 8525W        W51437  23.188  22.108  19.564  0.0801 -0.0422 -0.0783
 8526W        W51438  22.717  23.936  17.327 -0.5026 -0.0271 -0.1994
 8527W        W51439  24.845  24.186  19.454  0.0327  0.2940  0.0921
 8528W        W51440  22.809  22.701  17.033  0.1626  0.0768 -0.0374
 8529W        W51441  24.061  23.298  16.397 -0.2422 -0.3160 -0.1136
 8530W        W51442  22.624  22.312  15.454  0.3035  0.2932  0.0524
 8531W        W51443  23.217  25.426  16.655 -0.0684 -0.0699 -0.1183
 8532W        W51444  24.974  23.269  19.790  0.1612 -0.1857  0.0078
 8533W        W51445  23.672  26.391  17.698 -0.2568  0.1700 -0.4575
 8534W        W51446  26.338  24.606  21.443 -0.0074  0.1113  0.2922
 8535W        W51447  25.746  23.502  16.894  0.3365  0.1160  0.0178
 8536W        W51448  23.439  24.259  18.712  0.0134 -0.2398  0.1090
 8537W        W51449  21.634  24.149  16.703  0.2418  0.1812  0.1625
 8538W        W51450  23.228  26.779  19.483  0.1104  0.0340 -0.2019
 8539W        W51451  23.183  24.485  19.380 -0.0213 -0.4705 -0.3066
 8540W        W51452  22.473  22.623  16.573 -0.0244 -0.1600 -0.1550
 8541W        W51453  25.924  25.863  16.757 -0.3123 -0.2532 -0.2893
 8542W        W51454  22.996  22.683  16.538 -0.0364 -0.1715  0.1805
 8543W        W51455  22.511  24.541  18.819  0.0867 -0.0342 -0.2337
 8544W        W51456  25.132  21.296  19.074  0.6456  0.0363 -0.0105
 8545W        W51457  25.694  23.016  20.214 -0.3311 -0.2785 -0.0038
 8546W        W51458  25.064  24.087  16.930  0.0160  0.0298  0.2101
 8547W        W51459  21.732  24.415  16.178  0.1254 -0.1204 -0.2554
 8548W        W51460  24.687  25.091  15.775  0.5586 -0.0305  0.0196
 8549W        W51461  22.147  25.016  16.763  0.0326 -0.1189  0.1836
 8550W        W51462  23.162  24.584  16.606 -0.1973 -0.1108 -0.1473
 8551W        W51463  25.101  25.064  16.554 -0.1097 -0.3023 -0.1804
 8552W        W51464  23.444  22.750  18.460 -0.0429 -0.2274  0.1621
 8553W        W51465  22.167  24.253  20.246 -0.1236 -0.2469  0.0677
 8554W        W51466  25.091  25.825  20.806  0.3402 -0.0454  0.3083
 8555W        W51467  22.379  23.654  16.346  0.0521  0.2184 -0.1026
 8556W        W51468  21.635  24.482  19.763  0.0849 -0.0764  0.2030
 8557W        W51469  24.923  23.353  17.889  0.0956 -0.0303  0.2006
 8558W        W51470  24.836  21.701  16.780  0.3024 -0.3233 -0.1224
 8559W        W51471  24.104  23.601  19.385 -0.3109  0.2396 -0.1563
 8560W        W51472  26.423  23.754  17.972  0.1636  0.2956 -0.0090
 8561W        W51473  22.574  21.576  16.132  0.3149 -0.1454 -0.1157
 8562W        W51474  21.951  22.872  16.094 -0.0205 -0.0570  0.1417
 8563W        W51475  23.139  24.639  20.186  0.0161  0.0706  0.0395
 8564W        W51476  24.620  24.963  16.399  0.1996 -0.0193  0.0160
 8565W        W51477  23.848  25.352  16.956 -0.1139  0.1964  0.2068
 8566W        W51478  23.642  22.806  17.067 -0.0739 -0.0436 -0.4809
 8567W        W51479  25.902  25.149  17.439 -0.2771 -0.1824 -0.1439
 8568W        W51480  23.223  25.337  18.524  0.2267  0.1670 -0.0599
 8569W        W51481  24.378  26.184  20.536  0.0907 -0.3049  0.0071
 8570W        W51482  24.218  25.577  18.302  0.1172  0.2159 -0.2571
 8571W        W51483  23.892  21.822  18.889 -0.1381 -0.1746  0.1149
 8572W        W51484  22.120  24.424  16.605  0.0190  0.1727 -0.0807
 8573W        W51485  24.052  22.953  16.917 -0.1375  0.0328 -0.1035
 8574W        W51486  23.058  24.807  16.046 -0.1733  0.0478  0.1135
 8575W        W51487  24.481  22.081  18.104  0.1685  0.6553  0.1759
 8576W        W51488  24.477  21.854  17.644  0.1559 -0.1069  0.0443
 8577W        W51489  24.574  22.307  19.937  0.1251  0.1501  0.1271
 8578W        W51490  26.125  24.636  18.016  0.1664 -0.1842 -0.0873
 8579W        W51491  23.766  23.011  15.255  0.0534  0.0719 -0.0918
 8580W        W51492  25.034  23.940  17.892  0.3399  0.1057 -0.2412
 8581W        W51493  21.233  24.544  16.399  0.2209  0.1784 -0.2416
 8582W        W51494  24.490  23.446  19.843  0.1450  0.0895 -0.0063
 8583W        W51495  22.122  25.804  19.422 -0.0893  0.1386  0.0047
 8584W        W51496  21.505  24.684  20.196  0.1901 -0.1841 -0.0321
 8585W        W51497  24.077  26.064  19.667  0.1926  0.2362 -0.0953
 8586W        W51498  24.704  23.827  17.215  0.1727 -0.1883 -0.2376
 8587W        W51499  24.073  24.178  19.438 -0.0484  0.1584 -0.2258
 8588W        W51500  23.895  22.478  16.806 -0.3474 -0.2720  0.3516
 8589W        W51501  24.322  25.834  17.217  0.0680 -0.1203  0.2798
 8590W        W51502  22.994  22.815  15.733  0.0696 -0.0853 -0.1786
 8591W        W51503  24.819  21.566  19.306 -0.0471  0.2184 -0.0862
 8592W        W51504  24.926  24.836  17.350 -0.2258  0.0171  0.1730
 8593W        W51505  23.931  24.337  16.489  0.3123  0.3438  0.1036
 8594W        W51506  24.567  24.844  18.181  0.0719  0.0410 -0.2441
 8595W        W51507  22.841  25.053  16.530  0.0485  0.1242 -0.1770
 8596W        W51508  24.847  21.959  18.806  0.1611  0.1369 -0.0505
 8597W        W51509  23.369  26.112  18.923  0.2871 -0.0093  0.1362
 8598W        W51510  22.084  23.960  16.623 -0.2667 -0.3413  0.1061
 8599W        W51511  21.795  23.795  16.975 -0.3990  0.3716  0.1109
 8600W        W51512  25.789  22.311  17.061  0.4355 -0.0405 -0.2991
 8601W        W51513  25.411  23.565  17.917  0.2856 -0.0301  0.0675
 8602W        W51514  23.364  23.088  18.968  0.1114  0.1733 -0.1155
 8603W        W51515  23.503  23.364  18.546 -0.1019 -0.1810  0.1421
 8604W        W51516  21.656  26.476  17.064  0.0132  0.1356 -0.1124
 8605W        W51517  24.409  24.493  19.632  0.1174 -0.3505  0.0601
 8606W        W51518  24.906  22.763  17.469 -0.3080 -0.0089 -0.3219
 8607W        W51519  23.741  25.022  18.504 -0.1764 -0.2747 -0.0522
 8608W        W51520  23.910  25.531  18.710 -0.1648 -0.2287 -0.1763
 8609W        W51521  21.872  25.443  15.953  0.0104 -0.1116  0.0773
 8610W        W51522  24.113  22.744  17.387  0.0834  0.2259  0.0715
 8611W        W51523  25.142  23.644  17.475 -0.0256 -0.1678 -0.1864
 8612W        W51524  22.791  23.482  17.552  0.0078  0.0138 -0.2954
 8613W        W51525  23.873  25.873  16.957 -0.2450 -0.2228  0.0101
 8614W        W51526  23.775  23.914  17.098 -0.2941  0.0074  0.0525
 8615W        W51527  23.580  24.672  16.334 -0.2482 -0.1617 -0.2320
 8616W        W51528  23.642  24.703  19.981 -0.0922 -0.0410 -0.0762
 8617W        W51529  25.205  24.703  19.636 -0.0573  0.1201 -0.0480
 8618W        W51530  24.468  23.133  17.641  0.0434  0.1233 -0.1599
 8619W        W51531  22.400  22.018  16.371 -0.1136  0.1409  0.0888
 8620W        W51532  24.067  24.943  18.125 -0.2055  0.1212 -0.0576
 8621W        W51533  24.987  24.667  18.565 -0.1623  0.0754 -0.1059
 8622W        W51534  24.758  24.439  16.966  0.2765 -0.0638 -0.0335
 8623W        W51535  21.526  26.079  18.760  0.2314 -0.3454  0.2722
 8624W        W51536  24.322  22.763  19.100 -0.0870 -0.3239 -0.4308
 8625W        W51537  26.070  25.166  17.984  0.1696  0.1204 -0.1453
 8626W        W51538  24.475  23.998  19.710  0.0627 -0.0148 -0.2445
 8627W        W51539  22.561  24.094  16.556 -0.0762 -0.0159  0.2598
 8628W        W51540  22.268  23.840  18.102 -0.1928 -0.3561  0.0977
 8629W        W51541  24.176  25.242  16.580 -0.1505 -0.0356  0.0078
 8630W        W51542  24.761  24.675  19.961  0.1915 -0.1397  0.1868
 8631W        W51543  22.670  24.676  18.409 -0.1179 -0.1386  0.4553
 8632W        W51544  22.293  22.690  15.668 -0.0646  0.0426 -0.3346
 8633W        W51545  23.219  25.905  18.471 -0.4939 -0.0561  0.0178
 8634W        W51546  23.127  22.199  16.041 -0.3201  0.0567  0.1791
 8635W        W51547  24.200  24.948  15.498  0.2187  0.2898  0.1179
 8636W        W51548  24.527  23.998  17.944 -0.0428 -0.2310  0.0364
 8637W        W51549  25.928  23.601  18.858 -0.0972 -0.1112  0.1121
 8638W        W51550  24.587  23.665  15.439  0.0523 -0.1849  0.2064
 8639W        W51551  25.870  22.513  20.975  0.1363 -0.1860  0.2116
 8640W        W51552  22.957  24.233  18.998 -0.0339  0.1983  0.3154
 8641W        W51553  25.093  25.164  18.604  0.1648 -0.1554  0.3757
 8642W        W51554  23.670  23.870  19.646  0.2039 -0.1710  0.1945
 8643W        W51555  24.695  25.155  19.821  0.1855 -0.2101  0.0070
 8644W        W51556  22.806  25.025  18.739 -0.2260  0.1996  0.0629
 8645W        W51557  24.173  23.807  17.375 -0.0304 -0.1681 -0.0812
 8646W        W51558  22.647  23.071  16.741  0.1657  0.1134  0.4365
 8647W        W51559  24.222  24.882  19.039  0.0220  0.3950 -0.1205
 8648W        W51560  26.473  24.297  17.862  0.0975 -0.1326 -0.1161
 8649W        W51561  24.666  24.071  16.610 -0.0109  0.0161 -0.0163
 8650W        W51562  23.760  23.094  16.070 -0.2556 -0.0629  0.0797
 8651W        W51563  23.458  24.574  18.265 -0.2113 -0.1271  0.1895
 8652W        W51564  26.840  23.711  18.285 -0.0441  0.0830  0.4090
 8653W        W51565  22.529  23.003  15.926 -0.0887  0.1430  0.1404
 8654W        W51566  23.604  24.890  17.103 -0.1603  0.6127 -0.1592
 8655W        W51567  23.906  22.916  19.445  0.3852 -0.0005 -0.0606
 8656W        W51568  25.056  25.297  16.085  0.1156  0.1673  0.3067
 8657W        W51569  23.971  23.315  17.379 -0.0237 -0.1797 -0.2731
 8658W        W51570  24.712  23.972  18.423 -0.0985  0.0534  0.0752
 8659W        W51571  24.625  23.795  20.178  0.1882  0.1594 -0.1286
 8660W        W51572  24.493  24.798  20.530 -0.3563  0.1893 -0.1807
 8661W        W51573  23.610  23.506  20.066 -0.4342 -0.0760  0.1868
 8662W        W51574  25.320  26.592  19.706  0.1180 -0.0400 -0.1761
 8663W        W51575  25.236  22.101  16.834  0.0147  0.2124  0.4951
 8664W        W51576  23.153  23.993  18.414 -0.4735 -0.0519 -0.4294
 8665W        W51577  24.810  24.400  18.153 -0.1240 -0.3694 -0.0150
 8666W        W51578  24.563  22.365  15.638 -0.0940  0.1501  0.2506
 8667W        W51579  21.769  24.516  17.773 -0.1900 -0.1957  0.0695
 8668W        W51580  24.994  24.015  20.424 -0.2455  0.1213 -0.2960
 8669W        W51581  22.581  22.107  15.917  0.0846 -0.2839 -0.0530
 8670W        W51582  24.647  23.074  20.118  0.0891 -0.0205 -0.1549
 8671W        W51583  24.160  23.576  15.978 -0.0824  0.0912  0.3054
 8672W        W51584  23.267  24.232  16.228 -0.0799  0.1079 -0.0268
 8673W        W51585  24.398  23.073  16.157 -0.1146 -0.0329 -0.2330
 8674W        W51586  22.595  23.586  16.779  0.0290  0.0905  0.4393
 8675W        W51587  23.397  27.151  18.155  0.0566  0.1062 -0.1746
 8676W        W51588  22.268  24.251  16.170  0.2092  0.0824 -0.2800
 8677W        W51589  22.644  22.561  16.109  0.0147 -0.0820  0.2341
 8678W        W51590  25.016  24.353  17.415  0.0022 -0.0137 -0.3574
 8679W        W51591  25.961  24.130  20.241 -0.0850  0.2165  0.0450
 8680W        W51592  24.294  22.602  15.976 -0.1571 -0.1134  0.0056
 8681W        W51593  24.504  23.540  18.200 -0.0603  0.2109  0.1664
 8682W        W51594  24.773  24.977  16.880  0.0300 -0.3369  0.2616
 8683W        W51595  25.061  21.801  17.641 -0.1037  0.1767 -0.3145
 8684W        W51596  23.741  26.005  18.393 -0.0781 -0.1306  0.1258
 8685W        W51597  22.847  25.225  20.016  0.0476  0.1694  0.0268
 8686W        W51598  22.082  26.312  17.372 -0.1522  0.3422  0.0099
 8687W        W51599  24.798  20.886  20.267 -0.1082  0.0711 -0.1334
 8688W        W51600  23.994  23.884  19.024  0.1158 -0.2330  0.0016
 8689W        W51601  23.693  25.065  16.625  0.1300 -0.1657  0.0335
 8690W        W51602  26.438  24.261  19.371 -0.0674 -0.1676 -0.1911
 8691W        W51603  24.052  25.093  17.473  0.1035 -0.4473 -0.1814
 8692W        W51604  21.838  24.270  17.128 -0.2352  0.0953 -0.0246
 8693W        W51605  23.551  26.946  18.589 -0.2042 -0.1472 -0.0105
 8694W        W51606  26.188  22.761  17.714 -0.1921  0.4917 -0.2363
 8695W        W51607  23.881  25.318  17.853  0.2639  0.3193  0.0529
 8696W        W51608  21.993  24.713  18.928  0.2797  0.0044  0.1687
 8697W        W51609  24.065  25.057  20.471 -0.0726  0.2638  0.3426
 8698W        W51610  23.213  25.547  16.178 -0.3280 -0.1862 -0.4112
 8699W        W51611  21.244  22.079  16.615 -0.0975 -0.0640 -0.0981
 8700W        W51612  23.414  24.505  15.856 -0.4233 -0.1235 -0.1750
 8701W        W51613  22.745  25.516  20.534 -0.0474 -0.0760  0.0624
 8702W        W51614  23.112  24.624  18.627  0.0051  0.0233  0.0036
 8703W        W51615  22.467  26.425  16.401  0.2376  0.1673 -0.0850
 8704W        W51616  24.762  24.368  16.179  0.1103 -0.0453  0.0312
 8705W        W51617  24.295  23.911  16.872 -0.1936  0.3873  0.2220
 8706W        W51618  25.170  25.666  17.204  0.0242 -0.0510 -0.0478
 8707W        W51619  24.070  22.175  17.706 -0.0101 -0.2397 -0.0491
 8708W        W51620  22.788  26.116  18.165 -0.0853 -0.1997  0.2254
 8709W        W51621  23.256  25.526  17.704 -0.3416 -0.0869 -0.2182
 8710W        W51622  23.966  24.484  15.989 -0.0692  0.0796  0.1728
 8711W        W51623  22.298  26.207  18.230  0.1994 -0.3435  0.1533
 8712W        W51624  24.701  24.868  19.406 -0.0145  0.2568 -0.0163
 8713W        W51625  25.255  20.534  16.690 -0.1708  0.1743 -0.0140
 8714W        W51626  25.542  23.835  19.081 -0.2373  0.1339  0.1929
 8715W        W51627  25.463  23.997  17.646 -0.1427  0.2107 -0.1379
 8716W        W51628  24.332  26.116  18.455 -0.1748 -0.0612  0.3139
 8717W        W51629  23.244  24.716  17.778  0.0186 -0.2213  0.1330
 8718W        W51630  22.136  21.352  16.097  0.0315  0.0241  0.1570
 8719W        W51631  24.313  25.003  18.552  0.3922  0.2619  0.1362
 8720W        W51632  25.364  22.903  19.804  0.1206  0.2214  0.3899
 8721W        W51633  22.611  24.726  19.591 -0.0409 -0.2661 -0.0180
 8722W        W51634  24.318  24.102  16.159  0.1295 -0.1430 -0.2791
 8723W        W51635  22.793  23.874  18.012 -0.1358  0.0004  0.3914
 8724W        W51636  22.908  23.765  16.223 -0.3633 -0.2239  0.3098
 8725W        W51637  24.785  21.436  17.871 -0.1140  0.2506 -0.1773
 8726W        W51638  23.529  23.917  16.597 -0.3161  0.0505 -0.2033
 8727W        W51639  23.527  23.458  17.210 -0.0806 -0.0737  0.1089
 8728W        W51640  22.474  26.336  16.984 -0.0646  0.0494  0.0525
 8729W        W51641  23.441  25.167  18.077  0.0682  0.2818 -0.0835
 8730W        W51642  23.933  24.630  17.694 -0.1277 -0.1447  0.0316
 8731W        W51643  21.441  22.152  16.169  0.0401  0.0595 -0.0206
 8732W        W51644  25.768  23.028  17.236 -0.0918  0.0150  0.0739
 8733W        W51645  23.585  24.265  17.619 -0.1471 -0.0662 -0.2507
 8734W        W51646  24.907  22.381  17.922  0.0862  0.0937  0.1515
 8735W        W51647  23.196  23.168  16.399 -0.1565  0.1668  0.0403
 8736W        W51648  23.996  23.469  16.913 -0.0505 -0.4136  0.3460
 8737W        W51649  24.046  25.172  19.460  0.0268  0.0825  0.0108
 8738W        W51650  23.329  23.911  17.324  0.3378 -0.0065 -0.3368
 8739W        W51651  22.094  22.195  15.614  0.0501 -0.0069  0.0413
 8740W        W51652  26.263  25.072  21.442  0.0010 -0.2629 -0.4103
 8741W        W51653  23.173  23.559  16.669  0.0445  0.0420  0.1765
 8742W        W51654  24.693  26.868  18.991 -0.1908  0.0976 -0.1960
 8743W        W51655  22.321  24.288  17.531 -0.4375 -0.0212  0.1611
 8744W        W51656  25.297  22.724  17.160  0.2440 -0.1032  0.2635
 8745W        W51657  24.162  24.178  17.688  0.2239 -0.0252 -0.0421
 8746W        W51658  22.338  23.714  17.575 -0.2110  0.1457  0.2175
 8747W        W51659  24.542  25.625  21.654 -0.4500 -0.1391  0.2696
 8748W        W51660  20.798  22.112  16.330 -0.4285  0.0416 -0.1144
 8749W        W51661  25.611  24.235  15.630  0.1411 -0.0081 -0.0202
 8750W        W51662  24.540  25.169  17.703 -0.0845 -0.2076  0.3193
 8751W        W51663  23.595  24.465  16.814  0.1522 -0.0291 -0.3549
 8752W        W51664  25.180  24.209  18.425  0.0993 -0.0611  0.3620
 8753W        W51665  24.685  25.098  18.893 -0.0879  0.0048 -0.1546
 8754W        W51666  21.610  24.721  18.236 -0.0028  0.1175 -0.0870
 8755W        W51667  25.416  24.312  18.837 -0.0042  0.1772  0.0425
 8756W        W51668  24.895  24.189  18.825  0.2542  0.1627 -0.1397
 8757W        W51669  23.125  23.535  18.160  0.0181  0.0867 -0.0202
 8758W        W51670  22.979  24.232  17.650 -0.3463  0.1176 -0.0611
 8759W        W51671  23.364  26.652  16.881  0.0665 -0.0891 -0.1227
 8760W        W51672  25.269  23.127  17.585 -0.2363 -0.0645  0.2484
 8761W        W51673  25.037  23.593  18.362  0.2672  0.2797 -0.1373
 8762W        W51674  22.903  26.280  16.215 -0.0286 -0.1217 -0.1872
 8763W        W51675  25.052  21.748  19.788  0.1334 -0.2905  0.0065
 8764W        W51676  25.164  25.134  19.171 -0.2303 -0.0418  0.0598
 8765W        W51677  23.137  26.618  20.197  0.0975  0.3194 -0.0934
 8766W        W51678  23.262  24.561  17.306 -0.0542 -0.3564 -0.3329
 8767W        W51679  23.956  24.712  19.556  0.3213  0.1541  0.0293
 8768W        W51680  23.309  23.947  17.920  0.0161 -0.1107  0.0514
 8769W        W51681  24.059  24.858  16.323  0.0660  0.0746 -0.2361
 8770W        W51682  26.048  23.810  17.279  0.0639  0.0534 -0.2175
 8771W        W51683  23.457  23.137  15.707 -0.1489  0.1964  0.0379
 8772W        W51684  27.404  24.163  18.992  0.1787 -0.4379 -0.0534
 8773W        W51685  24.274  24.457  18.105 -0.0985 -0.3412 -0.0229
 8774W        W51686  24.044  22.195  17.194 -0.1101 -0.1137 -0.0457
 8775W        W51687  23.654  21.875  17.324  0.3209 -0.1370  0.0139
 8776W        W51688  24.788  25.882  20.436  0.2843 -0.1848 -0.0329
 8777W        W51689  22.556  25.057  17.495 -0.0928  0.1498  0.1738
 8778W        W51690  21.698  25.026  15.797  0.0608  0.0358 -0.0696
 8779W        W51691  22.104  24.381  18.432 -0.1412  0.3136 -0.0460
 8780W        W51692  23.783  22.305  20.672  0.2750 -0.0554  0.2879
 8781W        W51693  22.972  23.168  20.579 -0.3159 -0.1159  0.0297
 8782W        W51694  21.126  25.740  17.701 -0.3615 -0.2610  0.3414
 8783W        W51695  23.122  23.073  16.896  0.2283 -0.0587  0.0595
 8784W        W51696  25.565  24.196  16.318 -0.0628 -0.2186 -0.2875
 8785W        W51697  23.371  23.112  18.014 -0.0143  0.1086  0.0992
 8786W        W51698  22.904  22.538  18.211 -0.2674 -0.1794  0.1493
 8787W        W51699  26.331  23.832  16.925  0.2644 -0.2934  0.3448
 8788W        W51700  25.011  23.884  16.272  0.0707  0.1358 -0.2804
 8789W        W51701  23.217  23.053  15.343  0.0031  0.5888  0.3993
 8790W        W51702  24.712  26.355  18.264 -0.1345  0.1761 -0.1153
 8791W        W51703  23.258  23.960  15.786 -0.2578 -0.1567  0.0234
 8792W        W51704  25.424  23.434  20.116 -0.2437 -0.2066  0.1739
 8793W        W51705  23.885  23.137  18.954 -0.0874  0.0590 -0.2144
 8794W        W51706  21.668  23.310  16.124 -0.0072  0.0393  0.2370
 8795W        W51707  24.546  24.675  17.725  0.0211  0.2837 -0.0457
 8796W        W51708  25.452  24.515  17.310 -0.3085 -0.1636  0.0962
 8797W        W51709  24.317  25.508  15.708 -0.2901  0.0633 -0.1175
 8798W        W51710  23.792  25.123  19.038 -0.3036 -0.0741  0.0478
 8799W        W51711  23.875  25.614  19.998  0.0486  0.0633 -0.0892
 8800W        W51712  21.047  23.482  18.513 -0.2166 -0.0325 -0.2257
 8801W        W51713  25.676  23.520  17.435 -0.1330 -0.2599 -0.1022
 8802W        W51714  24.910  25.187  20.242  0.0394 -0.1158 -0.1763
 8803W        W51715  25.476  24.828  15.970 -0.0055 -0.1765  0.0621
 8804W        W51716  25.262  21.237  17.857  0.0047 -0.1905 -0.0811
 8805W        W51717  23.585  23.268  16.692 -0.0269 -0.2639 -0.0467
 8806W        W51718  22.714  23.731  18.973  0.2241  0.1524  0.0480
 8807W        W51719  22.070  25.044  20.847 -0.0855  0.1896  0.2964
 8808W        W51720  26.618  24.144  18.371 -0.1566 -0.0887  0.4457
 8809W        W51721  23.673  23.648  18.163  0.1061  0.1359  0.1256
 8810W        W51722  23.837  22.576  17.836  0.0124 -0.0905 -0.2815
 8811W        W51723  23.999  23.808  16.469  0.1784  0.0781 -0.0345
 8812W        W51724  22.377  24.983  19.076 -0.0480  0.1835  0.1526
 8813W        W51725  24.068  22.777  16.407 -0.0805  0.1305  0.2655
 8814W        W51726  24.499  21.934  19.551 -0.1771  0.1375 -0.0956
 8815W        W51727  24.719  26.672  17.446 -0.0194  0.0177  0.4232
 8816W        W51728  27.767  23.352  20.931  0.1285 -0.2342  0.0373
 8817W        W51729  21.691  22.420  16.493 -0.0050  0.1599 -0.0030
 8818W        W51730  25.506  24.354  16.833 -0.0527 -0.0743  0.2874
 8819W        W51731  23.291  27.578  17.890 -0.0447  0.0227  0.2502
 8820W        W51732  25.066  24.952  21.565  0.1159  0.1047  0.1191
 8821W        W51733  23.942  26.507  18.462 -0.0413  0.1911  0.2883
 8822W        W51734  25.094  22.375  16.392  0.0041 -0.0974  0.2392
 8823W        W51735  21.913  23.536  17.778  0.1460 -0.0203 -0.1846
 8824W        W51736  23.007  23.287  15.942 -0.1285  0.4336  0.2561
 8825W        W51737  24.417  24.797  17.164 -0.0695  0.0838  0.2773
 8826W        W51738  24.600  23.613  17.647 -0.2296  0.0043  0.0301
 8827W        W51739  24.161  23.569  17.822 -0.0886  0.1103 -0.1498
 8828W        W51740  23.384  22.672  16.123 -0.1698 -0.2546  0.1771
 8829W        W51741  22.408  25.688  18.978 -0.0298  0.1213  0.0790
 8830W        W51742  23.967  24.453  19.009 -0.3714  0.2594 -0.2734
 8831W        W51743  22.921  23.693  23.308  0.1361  0.1363  0.0141
 8832W        W51744  22.910  23.965  21.751  0.0828  0.0174  0.2378
 8833W        W51745  25.571  22.058  19.852 -0.0235  0.0387 -0.2190
 8834W        W51746  25.270  24.618  21.114  0.0411  0.0000 -0.1641
 8835W        W51747  23.096  23.824  21.156 -0.4460  0.0489 -0.1745
 8836W        W51748  23.969  24.797  22.385 -0.1655 -0.0396 -0.0210
 8837W        W51749  22.994  22.632  23.856 -0.1162 -0.0835  0.1649
 8838W        W51750  23.968  25.604  23.359  0.0678  0.2712  0.4245
 8839W        W51751  24.689  26.667  23.117 -0.2066 -0.0577  0.0798
 8840W        W51752  24.186  24.509  20.901 -0.0798  0.3225  0.2637
 8841W        W51753  23.775  24.220  23.997  0.1568  0.1471  0.3540
 8842W        W51754  22.386  24.712  24.470  0.0591 -0.3048  0.0090
 8843W        W51755  23.109  22.944  20.093 -0.1280  0.2367 -0.0676
 8844W        W51756  21.690  21.645  21.314 -0.0417 -0.1995  0.0192
 8845W        W51757  23.833  24.297  21.271  0.0452  0.2793 -0.4326
 8846W        W51758  24.236  24.950  21.924  0.0587  0.0473  0.2260
 8847W        W51759  22.157  24.032  22.950  0.3429 -0.3103 -0.0618
 8848W        W51760  24.745  24.616  21.811  0.1194 -0.0230  0.0821
 8849W        W51761  24.199  25.990  21.863  0.1461 -0.0456  0.1039
 8850W        W51762  24.157  22.973  22.262  0.2222 -0.0445 -0.0271
 8851W        W51763  25.523  21.509  22.597 -0.1612 -0.2210 -0.0378
 8852W        W51764  23.992  25.920  20.881 -0.0947  0.3529 -0.2006
 8853W        W51765  21.967  23.605  19.845 -0.1590  0.2110 -0.0703
 8854W        W51766  21.198  24.508  22.552  0.1513  0.1419 -0.0850
 8855W        W51767  22.683  24.240  22.112  0.1961 -0.0930 -0.1506
 8856W        W51768  25.149  21.776  22.291  0.1979  0.1050 -0.0731
 8857W        W51769  24.400  24.466  22.214  0.1907 -0.2797 -0.1904
 8858W        W51770  23.531  25.826  23.155 -0.1043 -0.1459  0.2096
 8859W        W51771  23.672  25.666  22.334 -0.4204 -0.1241  0.1268
 8860W        W51772  24.892  23.802  23.644 -0.2559 -0.1936 -0.1919
 8861W        W51773  22.750  24.521  20.550  0.0322 -0.0187 -0.1123
 8862W        W51774  20.927  25.126  21.480  0.0620 -0.3243 -0.0139
 8863W        W51775  22.307  25.897  20.383 -0.2812 -0.2568  0.0302
 8864W        W51776  26.431  25.497  22.917  0.0864 -0.2216 -0.0957
 8865W        W51777  24.457  27.114  23.488 -0.2456 -0.1254  0.1595
 8866W        W51778  24.195  26.443  23.299  0.1036  0.2378 -0.2848
 8867W        W51779  21.437  25.345  19.957  0.0471  0.2415  0.2202
 8868W        W51780  23.122  25.318  24.242  0.1182  0.2095 -0.0463
 8869W        W51781  23.292  25.515  24.781 -0.1351  0.1500  0.1658
 8870W        W51782  23.460  23.946  22.503  0.1474  0.0188  0.1895
 8871W        W51783  24.844  23.230  21.221  0.0174 -0.0743  0.0027
 8872W        W51784  22.995  25.148  19.535 -0.2187  0.0044 -0.0607
 8873W        W51785  23.852  25.191  23.125 -0.1989  0.0466  0.2026
 8874W        W51786  24.378  24.159  25.148 -0.0386  0.1248 -0.1739
 8875W        W51787  22.287  24.797  21.726  0.0252  0.1501  0.2598
 8876W        W51788  24.408  22.884  23.889  0.1810  0.1697  0.0550
 8877W        W51789  21.771  25.356  20.501 -0.0879 -0.1691 -0.2677
 8878W        W51790  24.652  24.081  21.134 -0.3128  0.0487 -0.1093
 8879W        W51791  23.605  23.354  19.550  0.0603  0.1486 -0.1781
 8880W        W51792  26.208  23.162  20.267  0.0091 -0.1052  0.1388
 8881W        W51793  23.971  23.454  22.337 -0.1894 -0.0513  0.2128
 8882W        W51794  21.760  25.827  22.495  0.2060  0.0949 -0.2504
 8883W        W51795  23.149  24.194  22.931 -0.1364 -0.1287  0.1963
 8884W        W51796  23.573  24.103  24.467  0.0174 -0.1038 -0.4572
 8885W        W51797  24.304  24.829  20.034  0.0003  0.2177 -0.0577
 8886W        W51798  25.357  24.158  23.002 -0.1550  0.1465 -0.1247
 8887W        W51799  22.112  25.683  22.828  0.1384  0.1400  0.0968
 8888W        W51800  22.659  22.644  22.160  0.1294  0.3343  0.1497
 8889W        W51801  25.785  25.688  20.274 -0.1140  0.0546  0.4148
 8890W        W51802  25.802  26.048  21.161 -0.0378  0.1947 -0.1109
 8891W        W51803  23.540  25.963  20.572 -0.0183  0.0889 -0.2374
 8892W        W51804  23.613  23.321  20.738  0.1134 -0.1740  0.0562
 8893W        W51805  21.223  23.875  23.613  0.2565  0.0299 -0.0260
 8894W        W51806  23.773  22.317  24.035 -0.0977 -0.1217 -0.1465
 8895W        W51807  22.743  23.667  20.842  0.2168 -0.1769  0.0027
 8896W        W51808  24.035  26.299  24.061 -0.0182 -0.0839  0.0493
 8897W        W51809  22.357  24.957  24.012  0.1164 -0.2043 -0.0745
 8898W        W51810  25.095  24.537  22.925 -0.1543  0.4803  0.3812
 8899W        W51811  23.304  25.098  21.835  0.0918  0.3748  0.1395
 8900W        W51812  25.619  25.873  22.715 -0.0560  0.2379  0.3126
 8901W        W51813  25.334  25.742  19.868 -0.2901  0.0468  0.0580
 8902W        W51814  26.239  22.093  22.443 -0.0869  0.2190  0.1943
 8903W        W51815  25.144  22.084  21.925  0.3081  0.0450  0.1825
 8904W        W51816  22.989  24.337  18.118 -0.1070  0.2333  0.0064
 8905W        W51817  23.915  25.114  19.992 -0.0195  0.0086 -0.0005
 8906W        W51818  24.833  25.002  24.220 -0.1454  0.0169 -0.4118
 8907W        W51819  25.173  25.195  19.786  0.1644 -0.1016 -0.3870
 8908W        W51820  23.189  24.572  20.844 -0.0594 -0.1980  0.1612
 8909W        W51821  23.216  22.889  23.195 -0.2429 -0.1731  0.0244
 8910W        W51822  23.839  25.328  24.831 -0.0735 -0.2354  0.1160
 8911W        W51823  21.763  26.062  18.313  0.0180  0.2124  0.4581
 8912W        W51824  21.127  24.735  22.959 -0.2768 -0.3595  0.0979
 8913W        W51825  23.568  24.348  19.597 -0.2857  0.1645  0.1534
 8914W        W51826  22.050  22.669  22.750 -0.1412  0.5188 -0.1566
 8915W        W51827  22.898  25.736  23.954  0.0891 -0.2170  0.1003
 8916W        W51828  26.138  21.985  21.507 -0.0013 -0.1884 -0.3202
 8917W        W51829  24.453  24.060  23.596 -0.0479 -0.1070  0.4122
 8918W        W51830  25.672  22.748  23.005  0.1619  0.3103 -0.2504
 8919W        W51831  24.027  24.796  21.388 -0.2039 -0.0588 -0.2069
 8920W        W51832  25.559  26.975  21.174  0.0153  0.3241 -0.0372
 8921W        W51833  25.477  24.204  20.410  0.1404 -0.4317  0.0337
 8922W        W51834  24.038  26.916  18.793 -0.2060 -0.2997  0.1408
 8923W        W51835  22.985  23.191  23.521  0.0935  0.1710 -0.4631
 8924W        W51836  23.215  24.096  19.922 -0.0467 -0.2399  0.2190
 8925W        W51837  23.716  22.885  23.354  0.0868  0.3786  0.2911
 8926W        W51838  22.737  22.970  22.600  0.0541 -0.0519  0.1220
 8927W        W51839  26.555  24.654  24.794  0.0868  0.4133 -0.0267
 8928W        W51840  23.681  23.184  22.034  0.1533 -0.0222 -0.2690
 8929W        W51841  24.725  22.129  21.387 -0.1007 -0.0125 -0.4667
 8930W        W51842  23.824  23.670  21.085 -0.2300  0.0142 -0.0554
 8931W        W51843  22.408  23.100  20.689 -0.2768 -0.1466  0.1385
 8932W        W51844  26.017  23.497  23.451 -0.1024  0.0119  0.0300
 8933W        W51845  24.198  26.003  21.308  0.1416  0.0623 -0.0039
 8934W        W51846  24.522  25.880  23.296 -0.0971 -0.1064 -0.2149
 8935W        W51847  23.734  26.119  20.056 -0.1764 -0.1058 -0.0525
 8936W        W51848  23.813  22.127  22.910  0.1274 -0.0167  0.1002
 8937W        W51849  24.439  22.995  19.508 -0.2152  0.2526  0.2022
 8938W        W51850  22.333  25.563  21.206  0.1109 -0.2601 -0.1532
 8939W        W51851  23.325  25.057  21.013 -0.2102  0.1601 -0.0857
 8940W        W51852  23.588  23.669  21.977  0.2479  0.0624 -0.0570
 8941W        W51853  25.179  25.642  22.553 -0.0201 -0.2387 -0.2039
 8942W        W51854  24.459  25.041  20.966  0.0227 -0.3574  0.3010
 8943W        W51855  23.126  23.648  23.783 -0.1800 -0.3532 -0.1142
 8944W        W51856  24.769  23.214  23.395 -0.1080 -0.1227 -0.2017
 8945W        W51857  23.920  24.661  23.077 -0.0010  0.0900 -0.0999
 8946W        W51858  25.330  23.184  21.291 -0.1309  0.0953  0.0381
 8947W        W51859  23.235  22.567  18.829 -0.0211  0.0994 -0.2138
 8948W        W51860  24.661  25.785  22.626 -0.1541  0.1401 -0.2156
 8949W        W51861  21.868  26.194  19.121 -0.1408  0.0234  0.1595
 8950W        W51862  22.447  24.087  20.646 -0.0455  0.1340  0.3323
 8951W        W51863  23.683  24.683  20.691  0.1828 -0.1455 -0.1674
 8952W        W51864  27.584  21.710  22.491 -0.2368 -0.3788 -0.1727
 8953W        W51865  21.320  23.134  23.415  0.3180  0.3028  0.0359
 8954W        W51866  25.129  25.108  22.687  0.1391  0.2030 -0.3732
 8955W        W51867  22.498  22.785  21.374  0.2821  0.2216  0.0145
 8956W        W51868  22.606  24.452  22.728 -0.0954 -0.1868 -0.1682
 8957W        W51869  24.712  22.355  20.403 -0.0331 -0.1071 -0.2432
 8958W        W51870  25.212  22.383  20.552 -0.0642  0.1480  0.4144
 8959W        W51871  23.950  24.861  24.758 -0.0745  0.0790  0.0023
 8960W        W51872  24.074  25.678  19.295  0.1005  0.0755 -0.0414
 8961W        W51873  23.655  24.089  20.110  0.0831 -0.0900 -0.0488
 8962W        W51874  25.249  21.925  21.419  0.2373 -0.2448 -0.1912
 8963W        W51875  22.746  24.982  24.355  0.0534 -0.0432 -0.0721
 8964W        W51876  23.315  24.259  20.510  0.0895 -0.1314 -0.2441
 8965W        W51877  22.420  25.810  23.266 -0.1280 -0.4026  0.0574
 8966W        W51878  23.806  24.221  20.627 -0.0308 -0.0659 -0.1880
 8967W        W51879  26.091  26.675  19.367 -0.3205 -0.1333  0.0960
 8968W        W51880  23.011  24.855  23.922 -0.0080 -0.0479  0.4625
 8969W        W51881  24.401  25.388  23.387 -0.2585 -0.0360  0.2393
 8970W        W51882  22.688  26.493  23.957 -0.1246  0.1975 -0.1237
 8971W        W51883  21.622  22.752  23.383 -0.0014  0.3275  0.2082
 8972W        W51884  22.735  23.945  19.806 -0.0443 -0.1517 -0.2134
 8973W        W51885  22.562  23.536  21.774  0.3457 -0.3674  0.1301
 8974W        W51886  22.128  27.253  19.290 -0.1660  0.1605 -0.1344
 8975W        W51887  25.749  23.328  23.069 -0.0160 -0.1219  0.1013
 8976W        W51888  25.174  22.872  22.811  0.1575  0.0002  0.1654
 8977W        W51889  24.320  22.502  22.144  0.1116 -0.0592  0.1723
 8978W        W51890  24.909  25.289  23.269 -0.2589 -0.0537 -0.1282
 8979W        W51891  24.165  24.062  20.338 -0.0205  0.0271  0.1889
 8980W        W51892  23.409  24.529  23.231 -0.0613  0.1303  0.1319
 8981W        W51893  24.036  24.325  19.937 -0.0367 -0.1902 -0.1618
 8982W        W51894  24.679  22.761  22.475  0.0058  0.1044 -0.0470
 8983W        W51895  24.485  23.773  24.679 -0.0293  0.1754 -0.2910
 8984W        W51896  21.799  24.840  23.128 -0.2005 -0.0130 -0.0153
 8985W        W51897  24.149  26.098  24.759  0.2385  0.2599  0.0348
 8986W        W51898  25.957  24.685  21.791 -0.0049 -0.2343  0.2198
 8987W        W51899  24.469  24.791  24.827  0.0488  0.2117  0.2950
 8988W        W51900  24.095  22.963  21.756 -0.0055  0.0229 -0.1871
 8989W        W51901  22.764  24.888  20.912  0.0401  0.5455  0.0629
 8990W        W51902  23.525  25.039  20.409 -0.3981 -0.0476 -0.3137
 8991W        W51903  22.972  21.975  22.470 -0.1206 -0.0768  0.0115
 8992W        W51904  22.672  25.322  24.005 -0.2143 -0.1288  0.0005
 8993W        W51905  23.194  25.497  20.732 -0.0111  0.0851 -0.2262
 8994W        W51906  23.897  24.719  23.942  0.0913 -0.0613  0.1372
 8995W        W51907  21.509  25.285  19.139 -0.0370 -0.2054  0.0062
 8996W        W51908  24.677  22.342  23.681  0.0826  0.2765 -0.2187
 8997W        W51909  23.160  25.620  22.117 -0.0825 -0.2548 -0.0605
 8998W        W51910  24.539  23.774  20.669 -0.0153  0.2756 -0.3491
 8999W        W51911  23.189  23.553  19.831  0.0810 -0.0572  0.0187
 9000W        W51912  24.018  22.504  23.174 -0.0824 -0.1321  0.0643
 9001W        W51913  24.515  24.461  19.119 -0.5650 -0.1282  0.0208
 9002W        W51914  23.158  23.204  24.309  0.0347  0.0546  0.0893
 9003W        W51915  22.699  23.445  22.577  0.1031 -0.0992 -0.0357
 9004W        W51916  22.416  24.612  22.325  0.2162  0.1831  0.0126
 9005W        W51917  24.597  25.226  22.826 -0.3453  0.1488 -0.2478
 9006W        W51918  25.974  21.723  19.881 -0.0429  0.0694  0.0886
 9007W        W51919  24.290  24.834  22.717 -0.1161 -0.3117  0.0192
 9008W        W51920  23.866  23.032  24.350  0.3286  0.0792  0.2299
 9009W        W51921  23.112  23.977  19.455 -0.0213  0.2104 -0.0885
 9010W        W51922  24.876  24.303  22.211  0.1192 -0.0802  0.1165
 9011W        W51923  23.710  24.309  21.745  0.0841  0.1532  0.1338
 9012W        W51924  22.907  24.137  20.842 -0.0113  0.0965 -0.1552
 9013W        W51925  24.269  26.117  23.681 -0.2252  0.1869  0.1505
 9014W        W51926  23.617  24.120  19.136 -0.0143 -0.2123  0.0566
 9015W        W51927  22.959  24.875  21.433 -0.0182 -0.2620 -0.0908
 9016W        W51928  23.689  23.040  22.517  0.0505 -0.0997 -0.0508
 9017W        W51929  25.326  23.638  23.451 -0.1991  0.1166  0.1937
 9018W        W51930  23.388  23.436  22.362  0.1660 -0.1939  0.1377
 9019W        W51931  21.733  24.873  21.894  0.2199 -0.2322  0.1366
 9020W        W51932  23.700  24.360  22.740  0.1324 -0.0670 -0.0879
 9021W        W51933  25.658  25.338  22.651 -0.0394 -0.2716  0.0716
 9022W        W51934  25.902  24.380  23.886 -0.0366 -0.2787  0.4991
 9023W        W51935  23.756  24.391  26.010 -0.0173 -0.1660 -0.2419
 9024W        W51936  23.892  22.533  22.505  0.0061 -0.0259 -0.3714
 9025W        W51937  25.378  26.879  22.002 -0.1373 -0.0934  0.1862
 9026W        W51938  24.765  24.505  23.964 -0.0287  0.0780  0.0575
 9027W        W51939  23.788  23.904  18.566 -0.3567  0.0329 -0.1629
 9028W        W51940  22.401  23.774  22.228  0.1689 -0.1472 -0.0464
 9029W        W51941  22.946  25.938  20.649 -0.1236  0.0774 -0.0132
 9030W        W51942  24.427  23.495  22.137  0.0053  0.1267  0.1640
 9031W        W51943  23.442  25.473  22.734  0.5963  0.2164  0.2090
 9032W        W51944  22.736  24.408  20.000 -0.2727  0.0345  0.0849
 9033W        W51945  22.609  24.992  23.518  0.1083  0.3080  0.1841
 9034W        W51946  25.672  21.463  22.135  0.3094 -0.3433 -0.1451
 9035W        W51947  23.288  25.534  20.268  0.1012 -0.1889 -0.1360
 9036W        W51948  24.201  23.861  23.132  0.1915  0.2546 -0.0825
 9037W        W51949  26.199  23.266  22.985  0.0618 -0.1889  0.4844
 9038W        W51950  24.913  25.766  21.253  0.2486  0.0233 -0.2042
 9039W        W51951  27.294  22.383  22.217 -0.0986 -0.0394 -0.0226
 9040W        W51952  24.155  22.510  23.691  0.2762  0.1439  0.0833
 9041W        W51953  26.296  25.378  24.099 -0.5094 -0.0180  0.0257
 9042W        W51954  23.860  21.786  23.876 -0.0099 -0.1190  0.1534
 9043W        W51955  23.788  26.039  24.421 -0.1733 -0.2742 -0.0928
 9044W        W51956  23.158  24.653  24.415  0.0240 -0.0852 -0.2086
 9045W        W51957  25.622  22.760  21.386  0.1431  0.2418  0.4181
 9046W        W51958  23.460  22.577  19.280 -0.3648 -0.0172 -0.1647
 9047W        W51959  24.034  22.898  22.846 -0.0641 -0.3363  0.1435
 9048W        W51960  23.836  25.215  22.151 -0.0998 -0.0427 -0.1242
 9049W        W51961  24.310  25.630  22.925  0.3859  0.0583  0.1086
 9050W        W51962  25.339  23.101  23.301 -0.2230  0.1595  0.0745
 9051W        W51963  23.814  24.353  23.484  0.2530 -0.2341 -0.1645
 9052W        W51964  25.407  24.094  21.336  0.1987  0.0764 -0.1023
 9053W        W51965  25.479  25.102  21.244 -0.1634 -0.1998 -0.0767
 9054W        W51966  22.618  24.434  21.143 -0.0070  0.1917 -0.0989
 9055W        W51967  22.924  21.857  24.250 -0.1457 -0.0107 -0.0018
 9056W        W51968  24.665  24.758  23.483  0.0186 -0.1805 -0.1359
 9057W        W51969  24.381  24.404  23.159  0.0502 -0.0891 -0.2172
 9058W        W51970  24.923  23.303  22.923  0.0095  0.4159 -0.1868
 9059W        W51971  24.185  24.891  23.488 -0.1768 -0.0491  0.1730
 9060W        W51972  25.209  23.589  23.991 -0.0275 -0.1660 -0.0352
 9061W        W51973  23.457  22.961  24.690  0.2820  0.1167  0.1534
 9062W        W51974  26.187  26.733  23.465 -0.0541 -0.0746  0.2071
 9063W        W51975  24.036  23.280  19.862  0.2995  0.2144  0.2271
 9064W        W51976  25.735  23.826  23.204 -0.3117  0.0900  0.1044
 9065W        W51977  24.847  23.485  22.442 -0.1300  0.0823 -0.0825
 9066W        W51978  24.090  23.793  19.922 -0.0827 -0.1968  0.2129
 9067W        W51979  22.658  23.957  22.622 -0.0957  0.0774 -0.3158
 9068W        W51980  26.839  23.308  24.238  0.1977 -0.3799  0.3108
 9069W        W51981  22.882  22.183  20.102 -0.0044 -0.1033 -0.0865
 9070W        W51982  23.858  23.368  23.586 -0.0820 -0.3629  0.0132
 9071W        W51983  23.326  26.374  21.386 -0.1428 -0.1567 -0.0861
 9072W        W51984  24.423  24.474  21.369  0.3588 -0.0234 -0.0177
 9073W        W51985  24.576  22.790  21.083  0.0210  0.0799 -0.1649
 9074W        W51986  22.146  23.400  22.039 -0.2550 -0.2209  0.1265
 9075W        W51987  22.417  25.723  23.785 -0.1996 -0.2148 -0.0084
 9076W        W51988  22.339  21.493  20.880 -0.1464 -0.2799  0.0382
 9077W        W51989  23.555  24.733  21.304 -0.1247 -0.1577  0.1682
 9078W        W51990  23.917  24.006  24.834  0.4320 -0.4148 -0.2024
 9079W        W51991  26.135  25.862  22.700  0.1776 -0.2010  0.0829
 9080W        W51992  24.129  23.223  20.820 -0.1504  0.0427  0.1306
 9081W        W51993  24.385  23.287  23.095 -0.2436  0.1714 -0.1055
 9082W        W51994  22.278  24.626  20.703 -0.1232  0.1057 -0.1545
 9083W        W51995  24.272  21.917  20.987 -0.3193 -0.2876 -0.3836
 9084W        W51996  21.601  24.946  21.359 -0.1525  0.0074  0.1833
 9085W        W51997  21.210  23.864  22.651 -0.4495  0.1972  0.1879
 9086W        W51998  23.321  26.086  21.019 -0.0127 -0.0068  0.3095
 9087W        W51999  23.388  22.678  24.163 -0.2152  0.3974 -0.0372
 9088W        W52000  23.706  23.490  22.775 -0.2973 -0.0223 -0.0765
 9089W        W52001  24.391  24.938  23.997  0.2388  0.2037 -0.0536
 9090W        W52002  25.348  23.522  22.078 -0.2443  0.1310 -0.0889
 9091W        W52003  23.153  24.931  23.421  0.3685  0.0202 -0.0233
 9092W        W52004  22.723  24.181  23.244 -0.1007  0.0015 -0.1449
 9093W        W52005  23.173  25.819  22.623 -0.3046  0.4353 -0.2995
 9094W        W52006  26.029  23.931  24.510  0.2732 -0.3002 -0.0865
 9095W        W52007  23.312  24.147  22.005  0.2603 -0.0597 -0.1947
 9096W        W52008  23.404  21.631  25.025 -0.0762  0.2456  0.1316
 9097W        W52009  23.540  23.856  23.678  0.1223 -0.1661  0.2208
 9098W        W52010  24.678  25.158  21.924  0.1326  0.0102 -0.1729
 9099W        W52011  23.297  22.460  19.918 -0.4059  0.0431  0.1447
 9100W        W52012  23.610  25.364  19.516  0.0927 -0.2528 -0.2060
 9101W        W52013  21.576  24.248  24.018  0.2413  0.0514  0.2948
 9102W        W52014  22.020  24.547  22.771  0.3376  0.0088 -0.3533
 9103W        W52015  23.834  26.097  22.148 -0.1021 -0.0305  0.2226
 9104W        W52016  23.890  26.535  19.750 -0.1304  0.1733  0.0378
 9105W        W52017  24.205  25.491  20.752  0.0428 -0.3973 -0.1832
 9106W        W52018  24.738  25.803  22.075  0.2559  0.3209  0.1091
 9107W        W52019  24.791  24.652  21.059 -0.2012 -0.0502  0.2133
 9108W        W52020  23.275  24.580  21.788 -0.1657  0.1725 -0.2097
 9109W        W52021  20.625  24.967  19.918 -0.2638 -0.0418 -0.0019
 9110W        W52022  23.878  25.694  21.375 -0.0806 -0.0993  0.0252
 9111W        W52023  23.710  25.193  21.450 -0.1333  0.2013  0.1336
 9112W        W52024  24.457  26.193  22.913  0.0924  0.0465 -0.1601
 9113W        W52025  25.213  22.864  19.117 -0.1010  0.0191 -0.0854
 9114W        W52026  25.759  23.866  22.183  0.0537 -0.2181  0.1902
 9115W        W52027  26.308  22.822  21.081  0.1443  0.1712  0.0596
 9116W        W52028  23.570  25.512  24.299 -0.0738  0.0425 -0.0710
 9117W        W52029  22.791  24.677  23.124 -0.1905  0.3737  0.1760
 9118W        W52030  25.255  22.362  20.009  0.3539 -0.3462 -0.2297
 9119W        W52031  23.117  23.508  21.510  0.2200  0.0339  0.1339
 9120W        W52032  26.905  20.482  24.053  0.0941  0.0625  0.1866
 9121W        W52033  21.418  26.438  23.513  0.2738 -0.3782  0.0686
 9122W        W52034  24.938  25.205  21.134 -0.0921 -0.0703  0.2817
 9123W        W52035  22.806  23.173  19.800  0.0585 -0.1218 -0.0413
 9124W        W52036  24.436  23.636  22.741  0.0455  0.0263 -0.0188
 9125W        W52037  24.665  22.188  21.937  0.3083 -0.0843 -0.0221
 9126W        W52038  23.491  24.638  19.043  0.1197  0.0603 -0.4447
 9127W        W52039  23.397  24.701  22.348 -0.0384  0.0864  0.1963
 9128W        W52040  21.661  26.765  21.518 -0.0117  0.3105 -0.2433
 9129W        W52041  23.720  24.794  21.878 -0.0897  0.0117  0.2595
 9130W        W52042  22.221  25.495  22.394  0.2956 -0.1086 -0.0534
 9131W        W52043  23.789  22.466  19.672  0.0811  0.1809 -0.2514
 9132W        W52044  25.044  23.396  21.668 -0.1067  0.0577 -0.0624
 9133W        W52045  23.789  22.691  22.076 -0.3975  0.0566 -0.3517
 9134W        W52046  25.378  22.405  22.774  0.1227  0.0164 -0.0715
 9135W        W52047  22.814  23.264  23.030  0.2358 -0.2304 -0.1878
 9136W        W52048  24.894  23.786  22.046 -0.0289  0.0154 -0.0599
 9137W        W52049  24.075  23.851  23.803 -0.0207  0.2675 -0.0100
 9138W        W52050  22.533  22.465  22.650  0.1342  0.1039 -0.1873
 9139W        W52051  24.605  24.355  20.670 -0.0850  0.0031  0.0424
 9140W        W52052  24.806  24.880  22.411  0.3788 -0.0824  0.1115
 9141W        W52053  24.299  23.494  20.318  0.0434  0.1193  0.2889
 9142W        W52054  23.966  24.426  25.035 -0.0286  0.0096  0.0923
 9143W        W52055  24.130  23.888  21.983 -0.1244 -0.2444  0.2151
 9144W        W52056  23.916  23.114  20.310 -0.4443 -0.0410 -0.2206
 9145W        W52057  24.197  24.342  22.689  0.0076  0.0747 -0.1492
 9146W        W52058  23.542  23.866  23.135 -0.2164 -0.1413 -0.1270
 9147W        W52059  25.355  24.011  24.360 -0.0174  0.1409  0.0965
 9148W        W52060  24.495  23.984  22.383 -0.0772 -0.0770  0.0552
 9149W        W52061  25.846  24.618  18.882 -0.1912 -0.0655 -0.1817
 9150W        W52062  24.884  25.732  23.029  0.0695  0.0211 -0.0542
 9151W        W52063  22.713  26.790  20.735 -0.1332  0.0854  0.5042
 9152W        W52064  24.172  24.489  21.770 -0.4854  0.0702 -0.0411
 9153W        W52065  24.001  25.728  23.993  0.2652 -0.0374 -0.3010
 9154W        W52066  22.772  22.772  24.411 -0.0643  0.2079  0.0488
 9155W        W52067  23.484  25.003  24.033 -0.2293  0.0683 -0.0483
 9156W        W52068  25.884  25.561  23.071  0.0313 -0.0626  0.2518
 9157W        W52069  24.168  23.965  21.454 -0.2769 -0.1844 -0.1296
 9158W        W52070  23.932  23.888  22.612 -0.1143 -0.0628  0.1668
 9159W        W52071  21.588  24.815  20.738  0.2028 -0.0228 -0.1420
 9160W        W52072  24.889  25.371  22.309 -0.2148 -0.1863 -0.1251
 9161W        W52073  25.708  23.409  23.863 -0.4665  0.4468  0.2752
 9162W        W52074  24.375  25.512  19.723  0.0376 -0.0102 -0.0601
 9163W        W52075  25.512  21.922  22.948  0.2948 -0.0897 -0.0906
 9164W        W52076  23.993  25.396  22.657  0.0001  0.0657  0.0390
 9165W        W52077  24.148  25.522  25.514  0.1551 -0.4002  0.0742
 9166W        W52078  22.446  23.543  19.676 -0.0069 -0.0352 -0.1119
 9167W        W52079  22.045  25.127  25.187 -0.1617 -0.1472  0.1277
 9168W        W52080  22.871  24.777  22.112 -0.1363  0.1717  0.0578
 9169W        W52081  23.513  25.546  21.088 -0.1338  0.1956 -0.1469
 9170W        W52082  24.544  25.056  21.491 -0.1539 -0.3186 -0.3228
 9171W        W52083  23.934  23.686  20.533 -0.0637 -0.1983  0.3337
 9172W        W52084  24.605  26.107  21.509  0.0512  0.0220  0.0958
 9173W        W52085  23.057  24.277  22.421 -0.0478 -0.0193 -0.2107
 9174W        W52086  25.808  23.341  22.225  0.2588  0.2197 -0.0889
 9175W        W52087  25.374  23.290  22.607 -0.1039 -0.3937 -0.2504
 9176W        W52088  23.484  25.080  24.582  0.3079 -0.0621 -0.0883
 9177W        W52089  23.347  23.714  20.679  0.0558 -0.1622  0.0607
 9178W        W52090  22.804  24.718  19.137 -0.1590 -0.1762 -0.2666
 9179W        W52091  23.030  24.723  22.666 -0.0196  0.0699  0.2486
 9180W        W52092  24.535  22.558  24.652 -0.0164 -0.0675 -0.1154
 9181W        W52093  22.181  22.684  23.207 -0.0390  0.0363 -0.0218
 9182W        W52094  23.794  24.323  22.254  0.0371 -0.0113  0.3656
 9183W        W52095  23.861  23.090  21.234 -0.0172 -0.0625  0.0390
 9184W        W52096  24.949  24.950  20.718 -0.1887 -0.2620  0.4009
 9185W        W52097  23.273  23.170  22.805  0.1021  0.0517  0.2065
 9186W        W52098  23.018  22.913  21.615 -0.1533 -0.1732  0.0544
 9187W        W52099  24.108  24.531  20.396  0.0309  0.0262  0.0385
 9188W        W52100  25.514  25.258  20.323 -0.0090  0.1827 -0.0451
 9189W        W52101  24.551  24.135  21.831  0.4077 -0.3766  0.2543
 9190W        W52102  25.191  26.159  22.840 -0.0419 -0.0729 -0.0036
 9191W        W52103  21.293  25.088  20.423  0.0530 -0.2142 -0.2117
 9192W        W52104  23.706  24.608  24.384 -0.0290 -0.0481  0.1532
 9193W        W52105  24.802  22.229  22.444  0.0397 -0.0068 -0.0486
 9194W        W52106  22.253  23.590  20.785  0.0718  0.1087 -0.0798
 9195W        W52107  25.064  23.081  22.250 -0.1695 -0.1327 -0.1409
 9196W        W52108  25.524  25.074  21.779  0.2286 -0.0313  0.0599
 9197W        W52109  24.284  25.444  21.226  0.1078 -0.0180  0.1595
 9198W        W52110  23.373  24.563  23.725 -0.1766 -0.2267 -0.2133
 9199W        W52111  22.553  25.423  22.928 -0.0713  0.3103  0.2534
 9200W        W52112  22.485  23.138  23.438 -0.3805 -0.0144  0.0861
 9201W        W52113  24.949  23.434  20.289  0.0834  0.0981  0.1099
 9202W        W52114  22.757  23.606  24.169  0.0027  0.1096 -0.1892
 9203W        W52115  25.854  24.184  21.775 -0.1201  0.0541 -0.0928
 9204W        W52116  28.098  21.558  22.528  0.5011 -0.2476 -0.1812
 9205W        W52117  23.049  25.018  20.509 -0.3408 -0.0380  0.0098
 9206W        W52118  22.589  21.597  21.755 -0.0000 -0.2717  0.0667
 9207W        W52119  23.212  24.716  25.381  0.0782 -0.1418 -0.0949
 9208W        W52120  24.326  25.989  24.229  0.1738  0.2757 -0.0878
 9209W        W52121  23.801  22.539  21.164  0.3989  0.1002 -0.0900
 9210W        W52122  24.486  23.599  21.637  0.0851 -0.0659 -0.0906
 9211W        W52123  25.216  25.337  20.713  0.1797  0.1770  0.3610
 9212W        W52124  23.181  24.117  23.440 -0.0065 -0.1493  0.2782
 9213W        W52125  25.206  24.120  21.794  0.0491 -0.0351 -0.2372
 9214W        W52126  23.369  25.368  23.373  0.3031 -0.1426  0.0669
 9215W        W52127  22.981  25.390  22.605  0.3999 -0.2849 -0.0587
 9216W        W52128  25.751  25.412  24.030  0.2637 -0.1725  0.0826
 9217W        W52129  23.490  24.136  20.989  0.1078 -0.2284 -0.2625
 9218W        W52130  26.818  23.669  20.730  0.3454  0.1809  0.0877
 9219W        W52131  23.089  25.788  24.373  0.1083  0.2343  0.0740
 9220W        W52132  27.913  24.137  24.832 -0.2506 -0.1268  0.1457
 9221W        W52133  24.731  25.278  23.799  0.1066 -0.1234  0.1766
 9222W        W52134  25.546  23.569  21.594 -0.0538  0.2188 -0.0698
 9223W        W52135  22.946  23.234  22.181  0.3966 -0.1031  0.2150
 9224W        W52136  22.875  24.045  20.373 -0.1071  0.2852  0.1882
 9225W        W52137  24.400  25.299  20.195  0.0775  0.0148 -0.2569
 9226W        W52138  24.834  24.226  23.245 -0.1194 -0.2384  0.2274
 9227W        W52139  23.600  22.812  21.627  0.3841  0.0654  0.1687
 9228W        W52140  24.858  21.627  21.345 -0.0058 -0.0013 -0.0557
 9229W        W52141  22.720  25.327  22.072  0.1133 -0.1719 -0.2411
 9230W        W52142  23.694  25.000  23.548 -0.0316 -0.1137  0.0803
 9231W        W52143  22.733  23.594  25.696 -0.1880  0.0939  0.2522
 9232W        W52144  22.827  25.087  25.234  0.1143  0.2252  0.0071
 9233W        W52145  25.933  21.998  23.264  0.0174 -0.1064 -0.2478
 9234W        W52146  23.937  22.409  25.263 -0.0675  0.0155  0.0365
 9235W        W52147  21.770  21.460  24.896  0.1321  0.4247  0.0387
 9236W        W52148  23.197  26.470  25.052 -0.2404 -0.0596  0.2346
 9237W        W52149  23.453  20.149  25.759 -0.0397  0.2642  0.1399
 9238W        W52150  24.919  25.087  26.224  0.1334  0.1037  0.0307
 9239W        W52151  24.540  25.483  26.011 -0.1123 -0.1796  0.0252
 9240W        W52152  24.716  23.301  23.930 -0.0891 -0.0271  0.2756
 9241W        W52153  23.217  22.640  26.525 -0.1247  0.2811 -0.0958
 9242W        W52154  24.606  24.452  26.246  0.3667  0.0899 -0.0417
 9243W        W52155  25.007  22.512  26.276 -0.1607 -0.0783  0.1183
 9244W        W52156  22.163  23.060  24.711  0.0995  0.1183  0.1286
 9245W        W52157  25.335  24.622  25.781 -0.0961  0.0790 -0.0161
 9246W        W52158  22.858  24.506  24.841 -0.1942 -0.0015 -0.1647
 9247W        W52159  22.647  23.063  25.700 -0.0778 -0.3245 -0.1972
 9248W        W52160  23.073  22.775  25.625  0.0178 -0.0653  0.0004
 9249W        W52161  24.656  25.575  25.409  0.1811 -0.0313 -0.1642
 9250W        W52162  23.595  22.109  25.990  0.4197 -0.1590  0.0608
 9251W        W52163  22.708  21.717  27.705 -0.1533 -0.0122  0.1351
 9252W        W52164  23.186  25.362  25.454 -0.1508  0.3595 -0.2529
 9253W        W52165  23.764  22.092  23.431 -0.1262 -0.0528 -0.2914
 9254W        W52166  21.037  22.179  26.536 -0.5770 -0.2179  0.0664
 9255W        W52167  22.910  22.760  26.159  0.0552  0.0563 -0.2917
 9256W        W52168  24.928  21.568  26.494  0.0757  0.0218 -0.0890
 9257W        W52169  26.244  23.008  26.030 -0.2411  0.0534  0.2489
 9258W        W52170  22.406  25.021  26.020 -0.1319 -0.0655  0.2017
 9259W        W52171  23.705  24.864  26.271  0.0161  0.1389 -0.0250
 9260W        W52172  24.404  22.146  27.489 -0.0464 -0.2514 -0.1232
 9261W        W52173  21.206  24.630  25.477 -0.1391  0.0246 -0.1300
 9262W        W52174  22.422  26.152  26.186  0.1291 -0.2070 -0.0994
 9263W        W52175  24.043  26.260  26.001 -0.0233  0.0935  0.0032
 9264W        W52176  25.180  24.843  25.326  0.0395  0.0162  0.2213
 9265W        W52177  25.786  24.565  26.865  0.1651 -0.0666  0.1436
 9266W        W52178  23.322  25.372  27.963 -0.1862  0.4081  0.0492
 9267W        W52179  22.013  24.641  25.061 -0.2520  0.3483 -0.2039
 9268W        W52180  23.940  25.873  27.404 -0.0703 -0.0156  0.4236
 9269W        W52181  22.925  25.417  26.423  0.2125  0.1866  0.2226
 9270W        W52182  24.503  22.702  25.753 -0.1065 -0.1899 -0.0959
 9271W        W52183  24.155  23.317  23.987 -0.3637  0.1834 -0.1153
 9272W        W52184  23.039  25.027  24.759  0.2040 -0.0492 -0.1897
 9273W        W52185  25.696  25.280  25.018  0.2638 -0.1371 -0.1604
 9274W        W52186  23.710  24.668  27.294  0.2941 -0.0032 -0.0182
 9275W        W52187  22.435  23.450  26.095  0.2143  0.2610  0.3047
 9276W        W52188  26.410  22.034  28.202 -0.0436 -0.0903  0.0222
 9277W        W52189  24.195  25.732  25.051  0.2705 -0.0225  0.2769
 9278W        W52190  23.928  22.911  25.674 -0.1580 -0.2478 -0.0430
 9279W        W52191  23.558  22.505  23.617  0.1245  0.1778 -0.0586
 9280W        W52192  25.493  22.626  23.460  0.0276 -0.3414  0.0707
 9281W        W52193  22.418  22.306  25.423  0.0778 -0.0563 -0.1219
 9282W        W52194  21.924  26.873  25.663  0.0253  0.1001 -0.0723
 9283W        W52195  22.340  22.970  26.655  0.1884 -0.3249  0.0518
 9284W        W52196  24.327  24.227  25.789  0.1812 -0.0851  0.0460
 9285W        W52197  24.446  23.727  25.903 -0.0740  0.1213  0.0918
 9286W        W52198  24.081  22.339  25.719  0.0967 -0.3232 -0.1368
 9287W        W52199  22.940  25.870  26.246 -0.0011 -0.0213  0.2049
 9288W        W52200  23.718  24.784  26.752 -0.2064 -0.3526 -0.2279
 9289W        W52201  26.497  25.844  21.986 -0.3058 -0.0798 -0.1295
 9290W        W52202  26.511  24.256  24.440  0.0403 -0.0403 -0.1793
 9291W        W52203  24.298  26.118  25.356  0.0648 -0.1469 -0.1788
 9292W        W52204  22.796  23.069  24.000  0.0855 -0.3384 -0.1289
 9293W        W52205  21.008  22.760  26.182 -0.0529 -0.3586  0.3067
 9294W        W52206  22.318  24.114  26.555 -0.0159  0.1689 -0.0151
 9295W        W52207  23.105  22.444  24.735  0.0216 -0.0152 -0.2209
 9296W        W52208  25.951  24.661  29.019 -0.0855 -0.1490 -0.2014
 9297W        W52209  21.790  24.506  26.438  0.1032  0.3090 -0.0435
 9298W        W52210  24.627  21.910  25.959  0.2557  0.4019 -0.1271
 9299W        W52211  24.314  24.141  26.819  0.0892 -0.1195 -0.0647
 9300W        W52212  26.417  23.537  25.730  0.1057  0.0340  0.0294
 9301W        W52213  25.465  22.395  24.020 -0.0188 -0.0842 -0.0830
 9302W        W52214  25.199  21.082  24.646  0.2872 -0.1592 -0.1455
 9303W        W52215  24.177  22.263  24.807 -0.2617 -0.2007 -0.2065
 9304W        W52216  22.021  23.513  23.173  0.1082  0.1868 -0.1457
 9305W        W52217  23.199  24.603  26.180 -0.1467 -0.1231 -0.0166
 9306W        W52218  25.309  24.848  28.281 -0.2612 -0.2123  0.3076
 9307W        W52219  24.841  24.073  24.602  0.0595  0.2633 -0.0174
 9308W        W52220  22.189  23.428  26.538  0.1072  0.0438 -0.0133
 9309W        W52221  23.475  23.357  27.200 -0.2715 -0.1005 -0.1218
 9310W        W52222  23.536  25.841  28.129  0.0907 -0.4036 -0.0232
 9311W        W52223  21.747  25.339  22.749 -0.0683 -0.2196  0.0553
 9312W        W52224  22.276  23.878  24.063  0.1013 -0.1456 -0.1689
 9313W        W52225  21.611  24.905  25.330 -0.2204  0.1176  0.0977
 9314W        W52226  23.076  22.647  27.528 -0.2617  0.2626  0.2374
 9315W        W52227  25.067  24.583  26.214  0.1240 -0.0761 -0.0015
 9316W        W52228  26.704  21.554  24.379 -0.1455 -0.1252  0.1044
 9317W        W52229  23.303  22.089  26.443 -0.1337  0.0618 -0.0678
 9318W        W52230  25.845  22.121  24.201 -0.1088  0.1128  0.0073
 9319W        W52231  23.754  24.608  25.472  0.0264 -0.2261  0.0492
 9320W        W52232  24.656  26.389  25.940  0.1846 -0.2016  0.1110
 9321W        W52233  25.596  25.618  25.355 -0.0589  0.0007 -0.1193
 9322W        W52234  24.144  25.143  25.187 -0.0280 -0.0362  0.1011
 9323W        W52235  22.146  23.987  25.045 -0.1780  0.0519 -0.3716
 9324W        W52236  22.585  23.153  24.945 -0.1349 -0.2238  0.3898
 9325W        W52237  22.977  22.327  26.945 -0.2261  0.1522 -0.0778
 9326W        W52238  22.859  21.840  26.604 -0.1055 -0.0445 -0.0226
 9327W        W52239  24.085  23.514  26.230  0.0980  0.4412 -0.0562
 9328W        W52240  22.213  23.363  24.201  0.1879  0.1327  0.0615
 9329W        W52241  25.668  22.594  24.414 -0.1556 -0.1506 -0.2374
 9330W        W52242  23.876  21.521  24.660 -0.0222 -0.4722  0.1595
 9331W        W52243  21.887  24.436  24.532 -0.1757 -0.0792 -0.0570
 9332W        W52244  26.629  21.817  27.780 -0.1582  0.2563 -0.1308
 9333W        W52245  24.502  25.474  24.241 -0.1055  0.1433 -0.4650
 9334W        W52246  25.878  26.211  25.279  0.1492 -0.2798  0.2954
 9335W        W52247  25.508  25.266  24.519  0.0818  0.2287  0.0892
 9336W        W52248  23.151  21.337  25.905  0.3172 -0.1899  0.0022
 9337W        W52249  24.565  22.248  25.550 -0.0295 -0.1178  0.0682
 9338W        W52250  22.019  25.365  23.846 -0.0892  0.0501  0.0041
 9339W        W52251  23.170  24.545  26.708  0.2765 -0.3560 -0.2057
 9340W        W52252  24.354  23.515  23.570  0.0772 -0.0227 -0.0556
 9341W        W52253  25.490  24.830  24.887  0.0632 -0.1248  0.1190
 9342W        W52254  24.049  24.802  25.916  0.1158 -0.2653  0.3659
 9343W        W52255  23.151  23.843  27.175  0.0485  0.3096 -0.3172
 9344W        W52256  25.136  21.706  27.969  0.0243  0.0218 -0.0838
 9345W        W52257  24.138  24.216  26.279  0.0025  0.3839  0.1135
 9346W        W52258  24.853  22.565  25.020 -0.3574  0.1702 -0.0559
 9347W        W52259  21.995  22.642  23.707 -0.1766  0.0555 -0.0023
 9348W        W52260  24.260  26.717  26.203 -0.3668 -0.0282 -0.1392
 9349W        W52261  22.126  25.448  25.662  0.2786 -0.1789 -0.0862
 9350W        W52262  21.728  23.047  22.945 -0.0425 -0.1154 -0.0371
 9351W        W52263  23.975  24.150  25.416  0.2815 -0.0133  0.2309
 9352W        W52264  25.511  22.330  26.477  0.1418 -0.0212 -0.1607
 9353W        W52265  20.848  21.607  27.841 -0.0294 -0.1317 -0.0421
 9354W        W52266  24.785  21.787  25.450 -0.3115  0.3306  0.1111
 9355W        W52267  23.019  23.178  25.328  0.1158  0.0336 -0.0190
 9356W        W52268  21.943  23.511  25.798  0.2277 -0.3068  0.2565
 9357W        W52269  25.659  22.094  25.037  0.1335 -0.5145  0.1324
 9358W        W52270  25.724  23.576  25.072  0.2622 -0.0514  0.1641
 9359W        W52271  23.993  23.459  27.191  0.2729  0.0475 -0.0840
 9360W        W52272  23.466  23.107  25.558  0.1998  0.0599 -0.1405
 9361W        W52273  24.420  24.191  24.158  0.2012  0.1432 -0.0251
 9362W        W52274  23.742  21.287  22.459  0.3851  0.0878  0.0842
 9363W        W52275  21.558  23.085  27.889  0.0560 -0.0348  0.1342
 9364W        W52276  23.784  23.671  25.189 -0.0638 -0.3217  0.0850
 9365W        W52277  23.775  23.119  26.086 -0.0273 -0.0008  0.0321
 9366W        W52278  24.731  22.901  24.374 -0.2564 -0.3906 -0.1901
 9367W        W52279  24.378  24.304  24.655  0.0462 -0.0928  0.5799
 9368W        W52280  21.566  23.227  24.814 -0.4219  0.0791  0.2360
 9369W        W52281  23.614  23.616  26.197 -0.1988 -0.3862  0.1506
 9370W        W52282  22.755  24.819  26.340  0.1068 -0.2640  0.3701
 9371W        W52283  23.800  21.932  26.706  0.0530 -0.1612 -0.0316
 9372W        W52284  24.290  24.506  23.776 -0.1437  0.0097 -0.2450
 9373W        W52285  23.908  21.359  24.169 -0.1278  0.1066 -0.2880
 9374W        W52286  21.798  26.301  23.895  0.0666  0.0363  0.0110
 9375W        W52287  24.427  21.618  26.344 -0.2636  0.0451 -0.0163
 9376W        W52288  24.380  21.682  24.196 -0.2608  0.1771  0.2285
 9377W        W52289  24.011  21.299  25.609  0.4973  0.1804  0.2172
 9378W        W52290  25.534  23.820  27.387 -0.0980  0.0015 -0.0058
 9379W        W52291  25.460  25.044  26.046  0.2551  0.1593  0.0462
 9380W        W52292  25.070  22.140  25.713  0.1601  0.1131  0.0312
 9381W        W52293  23.395  23.474  23.378  0.2687 -0.1270 -0.1194
 9382W        W52294  24.624  22.667  26.768  0.1279 -0.0339 -0.0665
 9383W        W52295  22.551  23.147  27.112  0.1556  0.0141 -0.3763
 9384W        W52296  23.179  25.890  27.764  0.1144  0.0909  0.1858
 9385W        W52297  23.642  23.800  27.027 -0.1102  0.1630  0.1383
 9386W        W52298  24.776  23.882  25.146 -0.2910 -0.2139 -0.1062
 9387W        W52299  23.818  22.942  26.638 -0.2350  0.0783 -0.2438
 9388W        W52300  24.421  23.333  24.414 -0.0270  0.0650 -0.1607
 9389W        W52301  23.462  24.527  24.888 -0.1597 -0.1006 -0.1922
 9390W        W52302  23.365  24.371  25.681 -0.1916  0.3185 -0.0026
 9391W        W52303  22.697  20.822  25.343  0.0224  0.0692 -0.2848
 9392W        W52304  24.198  25.890  28.149 -0.0708  0.0403 -0.1437
 9393W        W52305  23.817  25.124  25.585  0.0074  0.2868  0.0733
 9394W        W52306  24.803  23.414  26.114  0.1778  0.3560  0.0933
 9395W        W52307  23.361  25.146  26.448  0.2612 -0.0628  0.2398
 9396W        W52308  23.898  21.197  25.026 -0.4342 -0.0251 -0.0734
 9397W        W52309  22.790  24.418  25.326  0.1769  0.0081 -0.2100
 9398W        W52310  21.088  22.638  24.175 -0.1787  0.3953 -0.0884
 9399W        W52311  21.765  23.206  24.003  0.2802  0.1842 -0.1671
 9400W        W52312  25.066  22.027  26.160 -0.0579 -0.1325  0.0363
 9401W        W52313  24.631  25.433  24.909  0.3389  0.0242 -0.0171
 9402W        W52314  22.443  21.750  26.867 -0.0799 -0.2845  0.1350
 9403W        W52315  23.726  22.392  26.485  0.0021 -0.1099 -0.3761
 9404W        W52316  22.584  25.472  26.869 -0.4746  0.2168  0.1600
 9405W        W52317  23.758  23.425  26.654 -0.0445  0.0055 -0.0645
 9406W        W52318  26.145  22.537  24.272  0.2431  0.1536  0.2231
 9407W        W52319  23.707  25.115  27.684  0.0861  0.0130 -0.2037
 9408W        W52320  24.425  24.473  28.374  0.1726 -0.1666  0.3905
 9409W        W52321  21.949  23.164  25.178  0.2324  0.4225 -0.1741
 9410W        W52322  24.364  24.653  25.387 -0.6781 -0.0077  0.0675
 9411W        W52323  22.670  22.513  25.808 -0.1479  0.2466  0.0574
 9412W        W52324  21.528  25.195  23.862 -0.1608  0.0733  0.3689
 9413W        W52325  23.599  26.365  26.390  0.0991  0.2576 -0.1138
 9414W        W52326  23.472  24.066  25.236 -0.0260 -0.1327 -0.0117
 9415W        W52327  22.458  25.384  25.232  0.0792  0.0705  0.2938
 9416W        W52328  21.697  22.689  26.378  0.1233 -0.1296 -0.2005
 9417W        W52329  24.193  22.624  27.343 -0.1877 -0.3804 -0.1683
 9418W        W52330  24.270  23.214  25.904 -0.2744  0.2018  0.1840
 9419W        W52331  22.319  23.920  25.952 -0.0043  0.5247  0.1320
 9420W        W52332  24.313  23.726  25.386 -0.1184 -0.0659  0.1287
 9421W        W52333  24.554  25.210  28.009 -0.1990 -0.3031  0.0825
 9422W        W52334  23.433  22.777  26.033  0.0488 -0.1214 -0.4857
 9423W        W52335  22.638  23.330  27.894  0.0308 -0.2897 -0.0527
 9424W        W52336  23.566  21.258  25.372  0.2436 -0.1171 -0.1216
 9425W        W52337  26.794  25.018  26.168  0.0869 -0.2032 -0.1556
 9426W        W52338  25.285  23.172  27.960 -0.0136 -0.0982 -0.0332
 9427W        W52339  22.913  24.525  23.596  0.4602 -0.0721  0.2703
 9428W        W52340  21.269  24.021  24.887 -0.1034 -0.1610 -0.1374
 9429W        W52341  23.426  24.876  25.804  0.0965  0.1748  0.1248
 9430W        W52342  23.277  23.563  26.541  0.0443  0.1092 -0.1753
 9431W        W52343  25.225  24.257  27.755 -0.0031 -0.2621 -0.0552
 9432W        W52344  24.280  22.744  25.215 -0.0268  0.1612  0.2486
 9433W        W52345  21.980  24.965  26.348  0.0573  0.2201  0.0357
 9434W        W52346  27.050  22.113  25.488 -0.3852 -0.1673 -0.1195
 9435W        W52347  24.864  25.566  26.434 -0.0288  0.1510 -0.2568
 9436W        W52348  23.273  22.765  25.140  0.2033  0.0563  0.0037
 9437W        W52349  24.027  21.679  28.686  0.2092 -0.0720 -0.0243
 9438W        W52350  25.014  22.465  24.399 -0.2044 -0.0962 -0.1598
 9439W        W52351  23.808  20.933  28.132  0.1676 -0.2038 -0.2831
 9440W        W52352  22.406  21.391  25.287 -0.2054 -0.0958  0.2403
 9441W        W52353  24.127  23.225  25.281  0.2712 -0.0139 -0.0939
 9442W        W52354  21.434  22.952  25.258  0.1222 -0.0259 -0.4055
 9443W        W52355  24.188  24.536  27.428 -0.2758 -0.0088  0.2964
 9444W        W52356  22.821  23.199  26.327 -0.0364  0.0462 -0.3022
 9445W        W52357  25.230  22.391  25.275  0.1390  0.4548  0.1787
 9446W        W52358  23.978  22.031  24.455  0.2557 -0.0329 -0.1676
 9447W        W52359  24.119  22.610  26.772 -0.1844  0.0948 -0.0381
 9448W        W52360  25.208  25.357  25.089 -0.2308  0.1517 -0.0244
 9449W        W52361  23.538  22.580  25.539 -0.3649  0.1458  0.0508
 9450W        W52362  25.428  22.356  25.986 -0.1342  0.0818 -0.2366
 9451W        W52363  22.983  23.652  26.161  0.0607  0.3514  0.1778
 9452W        W52364  24.506  23.724  24.070 -0.2867 -0.4762  0.0970
 9453W        W52365  25.042  23.166  24.870 -0.2489  0.3660  0.0067
 9454W        W52366  24.619  23.378  25.165 -0.0522  0.1538 -0.0839
 9455W        W52367  22.764  21.370  24.528 -0.0147  0.1846  0.0353
 9456W        W52368  25.268  24.934  26.538 -0.4234 -0.1230  0.0701
 9457W        W52369  24.126  22.543  24.312 -0.4176 -0.1491  0.0723
 9458W        W52370  23.507  22.310  27.562 -0.1405 -0.0316  0.2023
 9459W        W52371  24.281  23.027  26.438 -0.0834  0.0207  0.0877
 9460W        W52372  23.547  23.823  28.176  0.1226 -0.0248  0.1904
 9461W        W52373  22.526  22.353  26.724 -0.1336  0.2298 -0.3765
 9462W        W52374  23.350  24.020  26.150  0.0364 -0.0988 -0.1471
 9463W        W52375  26.335  22.979  22.524  0.4332 -0.2514 -0.3526
 9464W        W52376  24.407  22.233  26.947 -0.1013  0.1580  0.0791
 9465W        W52377  26.112  23.187  26.573  0.1381  0.0219 -0.0640
 9466W        W52378  25.979  23.999  25.197  0.0882 -0.1460  0.1651
 9467W        W52379  22.118  22.983  25.654  0.0526 -0.0135  0.1092
 9468W        W52380  24.777  23.794  27.035 -0.2474  0.3298 -0.0775
 9469W        W52381  23.698  22.534  24.612 -0.3669  0.2979 -0.2629
 9470W        W52382  23.873  22.626  27.753 -0.0107 -0.4416  0.3082
 9471W        W52383  24.443  25.919  25.776  0.1049  0.0630  0.1110
 9472W        W52384  25.250  25.461  26.189  0.1619 -0.0517 -0.0291
 9473W        W52385  26.045  20.497  23.199 -0.0241 -0.1902  0.1864
 9474W        W52386  21.352  23.279  24.293 -0.0355  0.1862 -0.0894
 9475W        W52387  23.275  24.899  27.082  0.4532 -0.2147  0.0679
 9476W        W52388  22.260  22.568  24.623 -0.2162 -0.0860  0.1562
 9477W        W52389  23.040  23.169  24.811 -0.1172 -0.0327 -0.1038
 9478W        W52390  24.611  26.476  26.476 -0.2291  0.1466  0.2140
 9479W        W52391  24.839  24.732  28.780 -0.2846  0.2522  0.0653
 9480W        W52392  24.256  21.317  21.836  0.1401  0.0146  0.0700
 9481W        W52393  24.289  23.052  26.965  0.2411 -0.3128  0.1686
 9482W        W52394  21.671  24.434  25.552  0.1717 -0.0277  0.2042
 9483W        W52395  24.254  21.036  24.681  0.1333  0.1243 -0.0265
 9484W        W52396  22.139  25.816  25.308 -0.2158 -0.0912 -0.0402
 9485W        W52397  22.068  25.590  26.633 -0.0612 -0.3223  0.0693
 9486W        W52398  23.012  25.143  26.013  0.1399  0.2135  0.2438
 9487W        W52399  23.785  22.850  25.172 -0.1495  0.0746  0.0302
 9488W        W52400  24.874  24.281  25.506 -0.0204 -0.0640  0.2927
 9489W        W52401  24.147  24.694  26.954  0.2439 -0.0825 -0.0126
 9490W        W52402  25.134  23.387  26.852  0.1807  0.0505 -0.1169
 9491W        W52403  23.250  26.416  27.750 -0.1851 -0.1332  0.0458
 9492W        W52404  22.722  24.485  24.126  0.2337  0.1509  0.0638
 9493W        W52405  25.745  25.519  25.871 -0.1821  0.0496  0.0782
 9494W        W52406  25.913  22.541  26.056 -0.0953 -0.1610 -0.2217
 9495W        W52407  21.886  25.715  27.207 -0.1042 -0.0790  0.0073
 9496W        W52408  23.165  21.791  26.054 -0.1476  0.1264  0.0596
 9497W        W52409  23.056  24.652  28.334 -0.0023  0.4365 -0.5063
 9498W        W52410  24.808  22.923  26.090  0.0299 -0.2252 -0.1677
 9499W        W52411  21.833  22.729  24.915 -0.0770 -0.1825  0.2530
 9500W        W52412  23.536  23.486  24.635 -0.0919 -0.1142  0.1510
 9501W        W52413  22.459  24.327  27.147  0.2056  0.3567 -0.0485
 9502W        W52414  22.663  23.719  26.519  0.1741  0.1336  0.1049
 9503W        W52415  22.997  25.724  25.777 -0.0067 -0.3903 -0.1411
 9504W        W52416  24.084  25.659  24.530  0.2813 -0.0876  0.1303
 9505W        W52417  23.241  23.597  25.032  0.0257  0.2389  0.0683
 9506W        W52418  24.429  25.008  26.153  0.1040  0.3067  0.1340
 9507W        W52419  24.203  21.808  25.661 -0.1482 -0.0047 -0.0674
 9508W        W52420  22.578  24.012  25.452  0.2385  0.0933 -0.1936
 9509W        W52421  21.660  24.731  23.789 -0.0434 -0.0792  0.2127
 9510W        W52422  25.296  24.796  24.417  0.1873  0.0916 -0.1531
 9511W        W52423  21.910  26.317  24.383  0.1232 -0.3355  0.1406
 9512W        W52424  26.569  26.067  28.577  0.0792 -0.0190  0.3601
 9513W        W52425  25.783  22.298  23.656 -0.1085  0.2783  0.1462
 9514W        W52426  25.702  22.678  25.181  0.0237  0.1902 -0.1678
 9515W        W52427  25.213  22.910  25.253 -0.2434  0.2413  0.0582
 9516W        W52428  23.226  24.814  27.926 -0.1154 -0.1169 -0.0779
 9517W        W52429  22.818  22.857  26.811  0.3096 -0.0727 -0.0460
 9518W        W52430  24.915  24.012  24.107 -0.1314  0.2330  0.1856
 9519W        W52431  21.987  22.255  27.391 -0.0302  0.3569  0.0848
 9520W        W52432  26.216  22.699  29.225  0.2636 -0.3205  0.0951
 9521W        W52433  21.735  24.747  27.322 -0.0066 -0.1998  0.0811
 9522W        W52434  25.925  24.924  25.850 -0.3374  0.1403 -0.3164
 9523W        W52435  22.758  24.107  23.840 -0.0207 -0.0690  0.2063
 9524W        W52436  24.016  22.662  26.115 -0.0398 -0.2208 -0.1266
 9525W        W52437  25.503  22.067  28.092  0.1418  0.0362  0.2577
 9526W        W52438  24.084  23.470  24.814  0.0103  0.3851 -0.1591
 9527W        W52439  23.666  21.575  25.827 -0.1303  0.1032  0.2826
 9528W        W52440  24.809  26.101  25.497  0.3290  0.2415 -0.0176
 9529W        W52441  23.419  23.722  25.707 -0.3028  0.1011  0.2330
 9530W        W52442  23.759  26.521  25.385 -0.2852 -0.3350  0.0824
 9531W        W52443  24.056  22.998  24.789  0.1303 -0.0419 -0.2297
 9532W        W52444  25.477  22.821  26.203 -0.0680  0.0576 -0.0496
 9533W        W52445  22.980  23.014  27.271  0.2121  0.0659 -0.0678
 9534W        W52446  24.527  22.519  27.776  0.2213  0.3737 -0.0264
 9535W        W52447  22.348  23.469  25.408 -0.0719  0.2876 -0.2087
 9536W        W52448  25.567  23.184  24.741 -0.2414  0.0530  0.1787
 9537W        W52449  23.890  23.890  26.574 -0.3285  0.0591  0.0046
 9538W        W52450  22.705  22.028  25.721  0.1867 -0.0561  0.3184
 9539W        W52451  25.331  23.946  25.346 -0.0800 -0.4350 -0.0038
 9540W        W52452  24.679  25.042  25.259  0.1114 -0.1083  0.3278
 9541W        W52453  24.713  23.663  23.160 -0.0261 -0.0848 -0.0448
 9542W        W52454  23.486  25.349  25.977  0.1231  0.3493 -0.1252
 9543W        W52455  22.385  22.954  26.125 -0.2982 -0.4450  0.0707
 9544W        W52456  25.018  22.603  23.949  0.0804  0.0732 -0.3711
 9545W        W52457  23.166  24.089  24.830  0.2352  0.0118 -0.0032
 9546W        W52458  24.002  21.807  26.180 -0.0335  0.2519  0.0105
 9547W        W52459  25.089  24.103  27.198  0.2127 -0.1891 -0.2318
 9548W        W52460  22.178  21.742  24.988  0.0150 -0.1723 -0.3546
 9549W        W52461  24.069  23.731  24.328 -0.1735 -0.0864  0.0254
 9550W        W52462  25.296  22.767  27.100 -0.0939  0.0059  0.0506
 9551W        W52463  23.100  25.311  23.763  0.1597 -0.1537  0.0796
 9552W        W52464  25.963  23.723  25.611  0.3601  0.2225  0.2057
 9553W        W52465  24.773  24.795  26.573  0.1737 -0.1093 -0.1178
 9554W        W52466  22.559  21.775  24.702 -0.0412 -0.1257  0.1565
 9555W        W52467  24.616  25.319  27.451 -0.2590 -0.4005 -0.0269
 9556W        W52468  25.234  23.329  26.365  0.2668  0.1711 -0.1551
 9557W        W52469  25.840  21.437  24.046  0.1553 -0.1147  0.0583
 9558W        W52470  22.826  22.191  26.171  0.0944 -0.3420  0.2480
 9559W        W52471  22.264  25.926  26.927  0.2146  0.2984  0.0524
 9560W        W52472  24.757  22.130  26.555 -0.1151 -0.3692  0.2134
 9561W        W52473  24.707  23.197  26.637  0.0036  0.0029  0.1478
 9562W        W52474  23.742  25.687  25.730  0.4198  0.3001  0.1092
 9563W        W52475  23.596  21.958  28.498  0.1586 -0.0370 -0.0606
 9564W        W52476  23.124  23.257  25.868  0.1075  0.4347 -0.1304
 9565W        W52477  23.254  25.190  27.540 -0.2915  0.1423 -0.0326
 9566W        W52478  22.292  23.014  23.836 -0.1523 -0.2184  0.1213
 9567W        W52479  23.675  22.252  28.087  0.0714  0.0644  0.1708
 9568W        W52480  24.914  23.985  26.116 -0.1542  0.1733  0.1059
 9569W        W52481  23.258  25.880  25.109  0.3969 -0.0367 -0.0984
 9570W        W52482  24.691  25.851  24.655 -0.2339  0.2062 -0.0312
 9571W        W52483  22.280  22.741  25.165  0.1486 -0.1484 -0.2180
 9572W        W52484  26.243  25.359  26.592 -0.0196  0.1055 -0.1509
 9573W        W52485  22.096  22.961  27.253  0.1036  0.1543 -0.3034
 9574W        W52486  26.548  22.281  24.931 -0.2413 -0.0738  0.1190
 9575W        W52487  25.699  22.863  23.838  0.2306 -0.2097 -0.1418
 9576W        W52488  23.288  24.003  26.737 -0.2153  0.0838 -0.1509
 9577W        W52489  21.528  22.868  24.447 -0.0438 -0.0958 -0.0107
 9578W        W52490  24.398  25.122  25.671 -0.0984 -0.1218 -0.0668
 9579W        W52491  22.765  22.736  25.162 -0.0897 -0.0488 -0.0704
 9580W        W52492  24.091  20.844  26.643 -0.0675 -0.1318 -0.0837
 9581W        W52493  21.436  23.143  26.436  0.1446  0.1862  0.3172
 9582W        W52494  22.167  24.316  25.437 -0.0470 -0.3331 -0.0408
 9583W        W52495  23.435  21.093  24.050 -0.0273  0.3257 -0.0054
 9584W        W52496  24.222  24.688  24.364  0.2197  0.3255  0.1093
 9585W        W52497  22.938  24.020  25.824  0.3170  0.2036  0.2022
 9586W        W52498  22.002  20.898  24.853  0.1804 -0.1435  0.3557
 9587W        W52499  27.291  24.404  25.426 -0.2740 -0.1593 -0.1092
 9588W        W52500  25.358  23.645  25.897  0.2306  0.1910 -0.1422
 9589W        W52501  22.932  22.293  25.299 -0.1667 -0.1137  0.2453
 9590W        W52502  23.957  25.204  26.649 -0.1873  0.0017 -0.0159
 9591W        W52503  22.600  23.233  24.487  0.0704  0.1193  0.2629
 9592W        W52504  23.187  22.249  25.711  0.0882 -0.1252 -0.0587
 9593W        W52505  23.061  20.806  25.980  0.0058  0.0944  0.3517
 9594W        W52506  22.633  22.279  24.821 -0.0133  0.0681 -0.2106
 9595W        W52507  24.503  22.534  26.273  0.2629  0.0596  0.1763
 9596W        W52508  22.579  24.606  26.736 -0.3374  0.4906 -0.0482
 9597W        W52509  24.325  25.202  24.586 -0.1047 -0.1809 -0.1729
 9598W        W52510  23.344  23.008  26.834  0.0034  0.2553  0.0359
 9599W        W52511  23.306  25.779  26.648  0.2047 -0.2380 -0.2335
 9600W        W52512  22.001  20.148  24.915  0.0489  0.0401 -0.0736
 9601W        W52513  24.813  24.560  25.090 -0.1528  0.0051  0.2076
 9602W        W52514  24.680  24.471  26.995 -0.2396  0.3091  0.0574
 9603W        W52515  26.270  25.598  24.769 -0.2249 -0.1111  0.3476
 9604W        W52516  24.138  21.410  26.721 -0.0234 -0.2057 -0.3284
 9605W        W52517  25.888  24.877  25.233  0.0735 -0.1263 -0.1197
 9606W        W52518  22.547  22.398  27.647  0.1855 -0.0547 -0.0335
 9607W        W52519  22.532  23.776  27.109  0.3118 -0.0954  0.1298
 9608W        W52520  24.682  23.263  25.628 -0.2491 -0.1231 -0.2069
 9609W        W52521  21.843  23.144  26.087  0.0559  0.0970  0.0596
 9610W        W52522  24.914  23.553  24.424  0.3062  0.2156  0.1747
 9611W        W52523  22.463  24.971  24.914 -0.0837  0.1446  0.1964
 9612W        W52524  20.937  24.323  27.753  0.3078  0.0411 -0.1401
 9613W        W52525  25.065  23.467  25.337  0.1027 -0.0727  0.1916
 9614W        W52526  23.863  21.963  27.672 -0.1640 -0.2816  0.3794
 9615W        W52527  24.497  23.930  26.347 -0.0577  0.0697 -0.2791
 9616W        W52528  25.844  24.900  26.362  0.2218  0.4567  0.2523
 9617W        W52529  23.580  23.268  25.068  0.1577  0.0851  0.1237
 9618W        W52530  25.271  24.114  25.835  0.2449  0.0707  0.0258
 9619W        W52531  23.626  24.928  28.272  0.0086 -0.3287 -0.2262
 9620W        W52532  25.408  26.331  27.726 -0.1038  0.0001 -0.0576
 9621W        W52533  24.189  24.714  26.482 -0.2449  0.2614 -0.1497
 9622W        W52534  26.542  23.100  25.461 -0.2591 -0.2382 -0.0049
 9623W        W52535  22.995  20.323  24.564 -0.0807  0.0926 -0.1464
 9624W        W52536  23.618  25.508  25.254  0.2931 -0.0816 -0.1166
 9625W        W52537  23.871  23.937  25.845 -0.2628 -0.0624 -0.1182
 9626W        W52538  24.713  22.898  25.350 -0.0884  0.2660  0.1623
 9627W        W52539  21.931  21.355  24.206 -0.1331 -0.1100  0.0920
 9628W        W52540  25.556  21.349  23.691 -0.0013  0.1741 -0.0752
 9629W        W52541  22.429  24.893  27.173 -0.0835 -0.0976  0.1099
 9630W        W52542  25.077  22.619  25.697  0.2127  0.2301  0.1001
 9631W        W52543  22.650  25.061  29.939 -0.0753  0.1511 -0.2262
 9632W        W52544  23.523  23.869  27.501 -0.2388 -0.0863  0.0155
 9633W        W52545  24.468  20.039  28.298 -0.1991  0.0515  0.3210
 9634W        W52546  25.409  24.356  28.635  0.2274 -0.2702 -0.0267
 9635W        W52547  22.775  22.455  28.158 -0.1549  0.2104 -0.0386
 9636W        W52548  24.967  25.003  27.795  0.0279 -0.5273  0.1491
 9637W        W52549  20.357  19.391  29.326  0.0964  0.1205 -0.1431
 9638W        W52550  24.102  25.498  28.961 -0.2543 -0.0311  0.0918
 9639W        W52551  25.207  26.038  29.539 -0.0512 -0.2215  0.2355
 9640W        W52552  23.933  24.199  28.191 -0.0733 -0.1006 -0.0625
 9641W        W52553  23.109  21.748  29.621 -0.0335  0.1913  0.1651
 9642W        W52554  23.211  23.781  28.829  0.3746 -0.1113  0.1841
 9643W        W52555  23.024  22.978  28.005 -0.0918  0.2437 -0.2226
 9644W        W52556  22.039  20.133  29.738 -0.1428  0.2934 -0.0652
 9645W        W52557  25.506  24.863  28.784 -0.4115  0.1522  0.2851
 9646W        W52558  22.275  23.994  27.534  0.0823 -0.1682 -0.1286
 9647W        W52559  22.037  21.313  29.724  0.0952  0.1895 -0.1147
 9648W        W52560  23.147  23.603  27.801  0.2834 -0.2235  0.1604
 9649W        W52561  24.566  26.119  28.522  0.0017  0.2799  0.0431
 9650W        W52562  21.874  21.432  31.927 -0.1399  0.2399  0.3665
 9651W        W52563  23.112  23.007  30.541 -0.1679 -0.0205  0.0871
 9652W        W52564  22.218  25.967  28.405 -0.2250  0.4212 -0.1040
 9653W        W52565  22.824  23.450  27.463  0.0277 -0.0553 -0.1185
 9654W        W52566  22.427  22.583  29.634  0.2260  0.0177 -0.2780
 9655W        W52567  22.838  22.311  30.250 -0.0975  0.2270  0.0058
 9656W        W52568  24.454  21.709  28.429 -0.0958 -0.0136  0.0160
 9657W        W52569  24.976  22.992  29.800 -0.1026  0.1240  0.3627
 9658W        W52570  22.699  24.557  28.946 -0.3713  0.2360 -0.2740
 9659W        W52571  23.481  24.431  29.586 -0.0632  0.4397  0.0459
 9660W        W52572  24.069  22.501  31.643  0.1836 -0.4039 -0.1944
 9661W        W52573  21.710  25.082  28.590 -0.0763 -0.0467 -0.0167
 9662W        W52574  21.977  26.165  30.385  0.1044  0.5348  0.1453
 9663W        W52575  22.974  26.286  28.177 -0.2698 -0.0667 -0.1084
 9664W        W52576  25.884  24.565  28.460 -0.2940  0.2766  0.2121
 9665W        W52577  24.862  25.801  29.851  0.0749 -0.2159 -0.0935
 9666W        W52578  23.473  25.513  31.192 -0.1352 -0.0152 -0.0336
 9667W        W52579  21.497  22.093  27.252 -0.0188  0.2545  0.2039
 9668W        W52580  24.512  27.013  31.184 -0.0382  0.4567  0.1304
 9669W        W52581  23.250  24.187  31.256 -0.0039 -0.1710  0.1471
 9670W        W52582  22.644  24.698  29.454 -0.0190 -0.2123  0.1557
 9671W        W52583  24.064  23.752  27.977 -0.1731 -0.0839 -0.0581
 9672W        W52584  23.359  24.299  27.099  0.0775  0.3563  0.0428
 9673W        W52585  23.727  26.175  29.080 -0.2688  0.2175  0.3149
 9674W        W52586  22.930  23.944  30.182  0.2494  0.2648  0.0298
 9675W        W52587  22.428  25.191  31.200  0.0493  0.0914 -0.2383
 9676W        W52588  24.937  19.955  30.432 -0.1276  0.0044 -0.2401
 9677W        W52589  21.692  25.109  26.873 -0.0879 -0.0788 -0.1563
 9678W        W52590  24.496  22.984  27.486 -0.0035 -0.1872  0.1472
 9679W        W52591  23.529  22.876  27.319  0.3811  0.0841 -0.1736
 9680W        W52592  25.713  23.337  27.783 -0.1566 -0.0663 -0.0146
 9681W        W52593  22.449  21.051  28.747 -0.2833  0.0064 -0.0993
 9682W        W52594  23.566  24.733  28.724 -0.0714  0.0969  0.3673
 9683W        W52595  21.942  22.382  30.950 -0.0614 -0.1519  0.0261
 9684W        W52596  25.294  25.270  28.577 -0.3458 -0.2285  0.1844
 9685W        W52597  23.334  23.313  28.208 -0.1056  0.2521  0.0272
 9686W        W52598  23.012  23.650  29.287 -0.1787  0.0647  0.2153
 9687W        W52599  23.302  24.264  30.017 -0.2075  0.0168  0.3331
 9688W        W52600  22.671  23.671  28.779 -0.2980  0.1241 -0.0706
 9689W        W52601  25.242  24.665  27.475 -0.2463  0.0296 -0.1656
 9690W        W52602  23.088  25.966  29.624  0.0033 -0.0405 -0.1121
 9691W        W52603  23.888  24.724  29.646 -0.1744 -0.0128 -0.0389
 9692W        W52604  21.408  22.817  28.547  0.3067 -0.4333 -0.1876
 9693W        W52605  22.573  23.654  30.597  0.1199  0.3532 -0.1754
 9694W        W52606  21.605  22.547  29.474 -0.3444 -0.0240 -0.0358
 9695W        W52607  23.335  20.842  27.526  0.0501  0.0773 -0.3043
 9696W        W52608  24.545  24.579  30.471 -0.0716  0.1018  0.1185
 9697W        W52609  23.573  25.348  30.261  0.0424  0.1916  0.1883
 9698W        W52610  24.064  22.155  28.547  0.0299 -0.0050  0.0985
 9699W        W52611  24.243  22.356  29.296  0.1341 -0.3094 -0.1431
 9700W        W52612  24.622  23.712  29.905  0.2880  0.1125 -0.0103
 9701W        W52613  25.409  23.786  26.808 -0.3207 -0.1194 -0.0491
 9702W        W52614  25.106  21.445  28.398  0.2180  0.2593 -0.0679
 9703W        W52615  23.498  23.281  30.452  0.0584 -0.0241 -0.0956
 9704W        W52616  23.882  24.185  27.563  0.0915  0.1132 -0.0692
 9705W        W52617  24.506  23.414  27.300  0.1047  0.1026  0.0833
 9706W        W52618  25.251  25.349  30.239 -0.3588 -0.0701  0.1119
 9707W        W52619  26.057  23.642  27.260  0.0009 -0.0630 -0.0003
 9708W        W52620  21.404  24.542  30.373  0.0586  0.1101 -0.0897
 9709W        W52621  23.767  23.951  30.401 -0.0610 -0.0231  0.1615
 9710W        W52622  24.418  25.591  30.477  0.3318  0.0856  0.4830
 9711W        W52623  24.487  25.882  27.278 -0.1012  0.1600 -0.0885
 9712W        W52624  21.622  25.529  28.426  0.1498  0.0315 -0.0451
 9713W        W52625  22.208  23.638  27.958  0.1035 -0.1665 -0.1876
 9714W        W52626  21.793  21.731  29.694 -0.0086 -0.1054 -0.0876
 9715W        W52627  22.436  23.607  30.107  0.3414  0.0673 -0.2174
 9716W        W52628  24.993  25.165  26.859  0.2383 -0.1261 -0.1193
 9717W        W52629  22.238  21.447  30.538  0.3500  0.0610 -0.1075
 9718W        W52630  25.311  22.872  28.414  0.5143  0.0733  0.1403
 9719W        W52631  22.207  24.197  28.029  0.1439 -0.0701  0.0800
 9720W        W52632  24.237  25.448  28.462  0.3146 -0.1362  0.0527
 9721W        W52633  26.314  23.986  28.521 -0.2206 -0.0991 -0.0557
 9722W        W52634  24.712  23.642  28.670 -0.0237  0.1792 -0.3803
 9723W        W52635  21.836  23.260  29.802 -0.4814  0.2694 -0.2466
 9724W        W52636  22.376  22.371  28.657  0.1422  0.0120  0.1324
 9725W        W52637  22.703  21.733  31.455 -0.1676  0.1383 -0.0378
 9726W        W52638  22.978  20.741  28.124 -0.0033 -0.0465 -0.2136
 9727W        W52639  24.265  24.641  30.033 -0.2079  0.0890  0.0464
 9728W        W52640  23.401  21.786  27.494 -0.1134 -0.1994  0.0218
 9729W        W52641  23.593  22.487  29.866 -0.0369 -0.0521 -0.0735
 9730W        W52642  22.881  23.603  28.264 -0.0846  0.1302 -0.1572
 9731W        W52643  21.862  24.500  29.847  0.0263 -0.2032  0.2253
 9732W        W52644  24.623  21.965  30.835 -0.2233 -0.1438  0.1362
 9733W        W52645  24.320  23.882  27.236  0.1802  0.0211 -0.1329
 9734W        W52646  25.193  26.031  30.534  0.0825  0.1450  0.2838
 9735W        W52647  23.865  26.923  28.347 -0.3997 -0.1327  0.2785
 9736W        W52648  22.248  20.843  29.692 -0.2958 -0.2067  0.0340
 9737W        W52649  22.379  21.538  28.084 -0.1142 -0.2472 -0.1913
 9738W        W52650  22.843  24.105  29.100  0.1836  0.1423 -0.1350
 9739W        W52651  22.241  24.568  27.593  0.0829  0.1692  0.3523
 9740W        W52652  22.481  23.345  28.407  0.1188 -0.0444  0.3668
 9741W        W52653  25.688  26.040  29.662 -0.2249  0.3140  0.0117
 9742W        W52654  23.408  24.954  29.261 -0.0450  0.2333 -0.4934
 9743W        W52655  22.907  24.041  29.665  0.1180 -0.0702  0.2354
 9744W        W52656  24.138  22.847  29.252 -0.5484  0.2002 -0.1520
 9745W        W52657  25.550  23.645  30.760 -0.1644  0.0180 -0.2590
 9746W        W52658  23.461  24.429  28.310 -0.2587  0.0409 -0.1668
 9747W        W52659  22.611  21.691  26.111 -0.2236  0.1260  0.2590
 9748W        W52660  23.751  26.214  27.755 -0.0940 -0.2265 -0.3964
 9749W        W52661  22.894  25.564  27.651 -0.1190  0.4108  0.2562
 9750W        W52662  22.266  21.952  27.715 -0.1554 -0.1100  0.2503
 9751W        W52663  23.810  24.021  29.461  0.1383  0.1584  0.2518
 9752W        W52664  24.388  22.368  30.121 -0.0404 -0.2334  0.0568
 9753W        W52665  23.149  23.691  30.602 -0.1189 -0.2388  0.0231
 9754W        W52666  24.706  24.094  30.563  0.2839 -0.0100  0.0494
 9755W        W52667  22.256  21.393  27.606 -0.1879  0.2411  0.2602
 9756W        W52668  22.382  24.100  29.904 -0.2705  0.0988 -0.0925
 9757W        W52669  22.857  22.413  28.772  0.0457 -0.0208 -0.2044
 9758W        W52670  25.076  22.025  28.957  0.1244  0.0532 -0.2095
 9759W        W52671  22.829  24.094  30.757  0.0129 -0.1737 -0.3786
 9760W        W52672  25.271  24.490  29.122 -0.0030  0.2539  0.2735
 9761W        W52673  24.884  22.096  27.701 -0.0240  0.0173 -0.1040
 9762W        W52674  23.936  21.764  28.184  0.2049  0.2097 -0.3609
 9763W        W52675  21.988  23.769  31.105 -0.0614 -0.2781 -0.0824
 9764W        W52676  23.384  26.602  26.796  0.0033 -0.0785 -0.1986
 9765W        W52677  23.373  23.811  29.634  0.5915 -0.0145 -0.1887
 9766W        W52678  24.299  22.907  28.000 -0.0086  0.2185  0.0080
 9767W        W52679  25.582  24.852  29.344  0.2031 -0.0107  0.1117
 9768W        W52680  22.319  22.693  30.233  0.0395  0.1163 -0.0341
 9769W        W52681  24.762  25.965  30.299  0.3656  0.0852  0.3337
 9770W        W52682  25.231  25.467  27.610 -0.3708 -0.0037  0.1343
 9771W        W52683  23.692  23.237  30.004 -0.0692 -0.0406  0.2322
 9772W        W52684  21.366  22.317  27.784 -0.2805 -0.2347 -0.0153
 9773W        W52685  25.151  21.765  29.344 -0.0715 -0.3390  0.1224
 9774W        W52686  23.561  27.645  26.981  0.1574 -0.1468  0.2401
 9775W        W52687  25.578  20.320  29.647  0.1018 -0.0494 -0.3106
 9776W        W52688  23.878  23.144  29.560  0.0084 -0.0965 -0.5171
 9777W        W52689  22.611  22.558  31.678  0.1534 -0.1839 -0.2743
 9778W        W52690  24.542  22.564  30.578  0.0661  0.0764 -0.3043
 9779W        W52691  25.009  24.292  28.290  0.2115  0.1376 -0.0291
 9780W        W52692  24.418  22.911  28.814 -0.1391  0.0856 -0.2749
 9781W        W52693  21.489  21.581  27.360 -0.1139 -0.2129 -0.1530
 9782W        W52694  24.250  23.883  30.210  0.0232 -0.2733 -0.1724
 9783W        W52695  23.350  24.124  30.785  0.5372  0.0274 -0.0953
 9784W        W52696  22.168  24.873  29.775 -0.0923 -0.0152 -0.0576
 9785W        W52697  23.926  25.836  31.725 -0.2867  0.1236  0.0270
 9786W        W52698  24.331  24.196  27.812  0.1518 -0.0179 -0.0210
 9787W        W52699  24.337  22.360  30.981  0.0272  0.0388 -0.0124
 9788W        W52700  24.208  22.233  28.048 -0.0130  0.2161  0.0049
 9789W        W52701  22.355  25.585  27.893  0.1965 -0.0551 -0.0027
 9790W        W52702  22.184  25.066  28.659  0.2770 -0.0805  0.0854
 9791W        W52703  22.415  22.261  29.179 -0.0061 -0.4701 -0.0696
 9792W        W52704  23.978  24.593  28.412 -0.2250 -0.1449  0.0746
 9793W        W52705  24.189  25.490  27.103 -0.1769 -0.1480 -0.3779
 9794W        W52706  23.987  24.737  30.919  0.0444  0.2951  0.1739
 9795W        W52707  22.579  26.355  28.833 -0.2798  0.0748  0.4032
 9796W        W52708  25.396  22.431  31.099 -0.2527  0.0090  0.3506
 9797W        W52709  22.372  24.217  30.354 -0.0745  0.1230 -0.0398
 9798W        W52710  19.125  23.684  27.009  0.0806  0.1234 -0.0067
 9799W        W52711  21.781  23.790  27.647 -0.0258  0.1264  0.0047
 9800W        W52712  23.684  23.559  29.341 -0.2403  0.0267  0.1143
 9801W        W52713  25.251  24.728  26.992 -0.0079  0.3297  0.3270
 9802W        W52714  21.683  21.912  31.230 -0.0360  0.0362 -0.0944
 9803W        W52715  23.322  22.577  27.943  0.1318 -0.3628  0.2214
 9804W        W52716  21.958  25.247  29.515  0.0558  0.1014  0.0841
 9805W        W52717  24.255  24.133  29.237  0.0675 -0.2395  0.1483
 9806W        W52718  23.798  20.982  27.632 -0.1962 -0.3750  0.1531
 9807W        W52719  24.242  23.972  29.733 -0.2917 -0.1256 -0.0514
 9808W        W52720  22.316  23.394  31.300 -0.1386 -0.1532  0.3425
 9809W        W52721  22.567  22.638  27.183  0.0613  0.1721  0.1549
 9810W        W52722  24.214  23.386  29.850 -0.0833 -0.0236 -0.0627
 9811W        W52723  22.811  23.273  29.019 -0.3253 -0.1038 -0.0649
 9812W        W52724  21.492  25.424  28.971 -0.2539 -0.0430 -0.0449
 9813W        W52725  23.130  24.553  30.932 -0.0153 -0.1480 -0.0443
 9814W        W52726  23.270  24.451  27.544  0.0418 -0.4251 -0.1668
 9815W        W52727  22.866  24.141  26.922  0.2023 -0.0324 -0.0501
 9816W        W52728  21.511  20.138  29.859 -0.1282 -0.3399 -0.2945
 9817W        W52729  24.108  24.842  30.453  0.1458 -0.4000  0.1892
 9818W        W52730  23.189  21.440  29.186  0.3873  0.2172 -0.0385
 9819W        W52731  22.395  21.314  29.277 -0.0965  0.0671 -0.4515
 9820W        W52732  23.158  22.884  29.128  0.3284  0.1774  0.0034
 9821W        W52733  25.498  25.082  27.846 -0.0690  0.3627 -0.1048
 9822W        W52734  24.285  22.897  30.371 -0.1195  0.2218  0.0624
 9823W        W52735  22.650  24.978  31.595  0.2201  0.1237  0.0847
 9824W        W52736  23.109  22.708  29.649  0.0169  0.1382  0.0087
 9825W        W52737  25.366  25.148  27.206 -0.0969 -0.0395 -0.0167
 9826W        W52738  24.008  25.532  29.586  0.0743 -0.0996  0.0558
 9827W        W52739  22.860  25.069  28.038  0.0673 -0.4600  0.0551
 9828W        W52740  21.428  24.513  29.558 -0.1597 -0.3026 -0.3928
 9829W        W52741  22.501  24.480  28.437 -0.1485  0.2441 -0.1150
 9830W        W52742  24.548  21.961  28.833  0.1688 -0.0955  0.0820
 9831W        W52743  22.259  24.300  29.294  0.1612  0.0671  0.1408
 9832W        W52744  20.958  23.221  27.973  0.1081 -0.3006 -0.3085
 9833W        W52745  21.825  23.607  29.340 -0.2829  0.1616  0.1583
 9834W        W52746  25.108  22.384  28.078  0.1087 -0.0912 -0.3212
 9835W        W52747  22.838  25.209  27.265  0.0568 -0.2333 -0.0937
 9836W        W52748  22.673  22.845  28.518 -0.3449  0.0079 -0.1745
 9837W        W52749  24.767  21.390  30.127 -0.2678 -0.1358 -0.3056
 9838W        W52750  24.829  23.725  28.126 -0.0822 -0.2867 -0.0188
 9839W        W52751  24.162  22.138  30.554 -0.4443 -0.0627 -0.3465
 9840W        W52752  22.279  21.756  29.475  0.2182  0.1287 -0.1302
 9841W        W52753  24.693  24.417  29.152  0.2859 -0.0520  0.1383
 9842W        W52754  22.288  22.222  29.987  0.1308  0.2219  0.2308
 9843W        W52755  23.779  25.162  31.034 -0.2142 -0.0237 -0.0833
 9844W        W52756  23.223  22.742  31.327 -0.3016  0.1103  0.0831
 9845W        W52757  23.159  22.020  28.945 -0.4459 -0.0832  0.4168
 9846W        W52758  24.345  23.412  28.259  0.0134  0.1530  0.0079
 9847W        W52759  23.668  22.823  30.302  0.0101 -0.1200 -0.0467
 9848W        W52760  25.346  23.738  27.924  0.0016  0.0030  0.2496
 9849W        W52761  22.708  23.870  27.855  0.3013  0.1658  0.1023
 9850W        W52762  24.461  23.348  30.279  0.1274  0.4135  0.7943
 9851W        W52763  21.165  23.306  31.133 -0.0765  0.3158 -0.1676
 9852W        W52764  24.978  23.260  28.342 -0.4279  0.1034  0.1778
 9853W        W52765  23.087  23.130  28.566 -0.0465  0.1520  0.0374
 9854W        W52766  23.059  24.912  28.818  0.0209 -0.1098  0.2678
 9855W        W52767  22.059  20.504  30.095 -0.4858  0.0232  0.0980
 9856W        W52768  23.915  23.461  30.351 -0.0355 -0.4173 -0.1020
 9857W        W52769  25.151  22.092  30.750 -0.4194  0.2481  0.3099
 9858W        W52770  23.659  21.853  29.908  0.0145  0.1003  0.3144
 9859W        W52771  22.843  23.349  30.247 -0.1049  0.2124  0.0154
 9860W        W52772  24.267  25.064  29.585  0.1490  0.0560  0.1150
 9861W        W52773  22.110  22.839  31.230 -0.0297 -0.0897  0.3022
 9862W        W52774  23.596  25.756  30.814  0.1990 -0.0144 -0.0612
 9863W        W52775  25.009  23.265  29.215 -0.0702 -0.0096  0.0757
 9864W        W52776  24.564  22.476  29.677  0.1628 -0.1543  0.2145
 9865W        W52777  25.722  23.955  28.618  0.0704 -0.0177 -0.0665
 9866W        W52778  24.786  23.709  27.551 -0.3434 -0.0175 -0.0038
 9867W        W52779  23.232  22.135  29.899 -0.1851  0.3349  0.0458
 9868W        W52780  24.883  23.834  31.547 -0.0814 -0.0004  0.1220
 9869W        W52781  21.775  20.580  25.122 -0.1820 -0.1833 -0.5268
 9870W        W52782  23.350  23.330  29.027  0.2125  0.1418  0.2843
 9871W        W52783  23.725  25.577  27.762  0.2143 -0.1754  0.4520
 9872W        W52784  24.254  24.152  28.728  0.0037  0.0613 -0.1227
 9873W        W52785  23.205  21.618  28.483 -0.0527  0.1016 -0.1586
 9874W        W52786  22.822  22.539  29.257 -0.1371  0.1473 -0.1563
 9875W        W52787  22.690  24.387  31.154  0.1581 -0.0698 -0.3235
 9876W        W52788  22.777  21.506  25.616 -0.2847  0.0726  0.2162
 9877W        W52789  24.319  23.371  27.793 -0.1119  0.1023  0.0627
 9878W        W52790  23.818  25.927  29.893  0.1032  0.0740 -0.2740
 9879W        W52791  25.131  24.813  29.573 -0.2666 -0.0519 -0.0509
 9880W        W52792  23.387  21.003  29.364  0.4222  0.1041 -0.0837
 9881W        W52793  24.163  23.568  29.354 -0.3657  0.3143  0.1206
 9882W        W52794  22.641  24.929  28.460  0.0924  0.2500  0.3065
 9883W        W52795  23.643  21.786  29.338  0.1687 -0.2249 -0.2370
 9884W        W52796  21.995  24.514  30.358 -0.1867 -0.0178  0.2357
 9885W        W52797  21.184  23.545  30.624  0.2332  0.0095  0.3163
 9886W        W52798  21.832  25.059  29.089  0.1936  0.1677 -0.1732
 9887W        W52799  23.085  21.885  30.300 -0.1218  0.1086  0.1350
 9888W        W52800  25.761  24.252  29.339  0.1590 -0.0025 -0.0468
 9889W        W52801  23.809  23.876  28.972 -0.2296 -0.0755 -0.1790
 9890W        W52802  25.260  23.012  30.237  0.1868  0.2374 -0.2250
 9891W        W52803  23.544  22.924  28.729  0.0951 -0.2907 -0.1193
 9892W        W52804  22.033  22.248  29.530 -0.1635  0.0206  0.0036
 9893W        W52805  24.662  26.073  29.501  0.1419  0.1386 -0.0101
 9894W        W52806  24.306  24.653  28.883 -0.1218  0.1918  0.0456
 9895W        W52807  22.502  22.808  29.063 -0.1565 -0.4246  0.2196
 9896W        W52808  22.963  23.546  29.826 -0.1382  0.1291  0.2960
 9897W        W52809  24.227  24.381   0.183  0.2868  0.0056  0.0390
 9898W        W52810  23.659  24.526  27.817  0.2907 -0.1324 -0.0343
 9899W        W52811  23.340  21.976  26.943 -0.3428  0.0130 -0.0984
 9900W        W52812  23.425  26.098  28.615 -0.1547  0.0207  0.1084
 9901W        W52813  23.008  25.361  30.987 -0.2504 -0.1939 -0.3033
 9902W        W52814  22.346  24.050  31.871  0.1167 -0.3486 -0.1177
 9903W        W52815  22.079  24.633  26.835  0.0147 -0.0768 -0.2891
 9904W        W52816  25.548  26.518  29.514 -0.0499 -0.2848 -0.0348
 9905W        W52817  24.078  22.990  28.466  0.0329 -0.1190 -0.0825
 9906W        W52818  23.677  25.863  30.340  0.0715 -0.0059 -0.3670
 9907W        W52819  23.984  23.094  27.497  0.3277 -0.0359  0.2508
 9908W        W52820  22.188  25.426  29.106  0.0140 -0.0727 -0.0209
 9909W        W52821  21.708  24.081  26.701  0.2427  0.1811 -0.3676
 9910W        W52822  22.891  24.578  27.144 -0.1686  0.0944 -0.2564
 9911W        W52823  23.100  26.622  29.549 -0.2372 -0.0243  0.0541
 9912W        W52824  24.710  23.881  31.048 -0.0656 -0.1627  0.2900
 9913W        W52825  24.258  20.777  28.606 -0.1738 -0.3914 -0.2694
 9914W        W52826  23.657  23.548  28.640 -0.0662 -0.1139  0.0761
 9915W        W52827  25.312  22.082  30.267 -0.1337  0.1237 -0.1063
 9916W        W52828  23.643  24.956  30.605  0.0100 -0.1441  0.0581
 9917W        W52829  23.415  23.641  30.131  0.1439  0.1251 -0.0405
 9918W        W52830  24.225  22.128  26.500  0.0478  0.0429  0.0167
 9919W        W52831  23.237  23.052  30.058  0.0942  0.0448  0.1531
 9920W        W52832  24.774  20.962  30.453  0.0981 -0.1735 -0.2375
 9921W        W52833  21.929  25.322  31.083  0.0524  0.0344  0.0079
 9922W        W52834  25.133  26.001  26.853 -0.0502  0.1159  0.0066
 9923W        W52835  21.730  22.592  28.043 -0.0844 -0.0015 -0.2944
 9924W        W52836  24.770  23.171  27.870  0.2512 -0.0012 -0.1350
 9925W        W52837  25.564  21.342  30.306  0.3058  0.1316  0.0338
 9926W        W52838  23.280  23.138  27.614  0.2099 -0.1845 -0.0477
 9927W        W52839  23.866  23.300  28.131  0.1769  0.2275 -0.1081
 9928W        W52840  20.768  26.346  28.543  0.1888 -0.2239 -0.0425
 9929W        W52841  21.863  24.627  29.350  0.1376  0.0398 -0.4125
 9930W        W52842  23.564  25.856  29.474  0.1365  0.1310  0.3141
 9931W        W52843  22.322  23.456  27.497  0.0649 -0.0774 -0.1467
 9932W        W52844  24.967  22.952  28.787  0.2197  0.0750  0.1385
 9933W        W52845  23.720  25.308  29.288 -0.2163  0.1510  0.0376
 9934W        W52846  24.109  22.065  29.695  0.0530  0.2341  0.0357
 9935W        W52847  22.253  23.761  29.148 -0.1908 -0.0998  0.5955
 9936W        W52848  24.469  23.298  29.094  0.0577 -0.3566 -0.1937
 9937W        W52849  22.452  24.168  28.865 -0.0407 -0.2314  0.1076
 9938W        W52850  21.786  22.180  29.971  0.0444 -0.0227  0.1489
 9939W        W52851  23.609  22.829  28.224  0.2524  0.1342  0.3687
 9940W        W52852  24.661  24.891  29.806  0.0931  0.1541  0.2257
 9941W        W52853  23.718  24.264  28.692 -0.3260  0.3804 -0.0618
 9942W        W52854  24.347  27.453  30.441 -0.0149  0.2395  0.2579
 9943W        W52855  22.045  20.939  27.776  0.1204 -0.1972 -0.3531
 9944W        W52856  24.647  22.157  28.194 -0.5394  0.0361 -0.1819
 9945W        W52857  22.013  24.248  28.607 -0.1585  0.1045 -0.1530
 9946W        W52858  21.798  24.101  29.463 -0.2532 -0.3537  0.1045
 9947W        W52859  25.851  23.900  30.269  0.1958 -0.0837 -0.2665
 9948W        W52860  22.251  22.377  28.086  0.0720 -0.0739 -0.2098
 9949W        W52861  26.250  24.873  26.880 -0.4069  0.1992  0.0350
 9950W        W52862  24.587  24.225  30.084 -0.1649  0.2147  0.0050
 9951W        W52863  23.699  26.167  26.844 -0.2572 -0.1941  0.0613
 9952W        W52864  24.354  24.937  28.454 -0.0626  0.0964  0.2400
 9953W        W52865  24.753  25.241  28.484  0.0088 -0.4013 -0.1237
 9954W        W52866  23.240  22.608  30.247 -0.0076  0.1748  0.0114
 9955W        W52867  23.070  24.893  29.725  0.1198  0.0096 -0.1458
 9956W        W52868  24.777  24.154  28.706 -0.2535 -0.1726 -0.0597
 9957W        W52869  22.736  21.842  29.247  0.1702 -0.1655 -0.0299
 9958W        W52870  23.338  23.302  29.543  0.4659 -0.1079  0.1841
 9959W        W52871  21.316  25.792  29.201 -0.1056 -0.0943 -0.1338
 9960W        W52872  25.566  23.368  30.284 -0.2159  0.1268  0.0946
 9961W        W52873  25.699  22.677  29.170  0.2139  0.0998  0.0698
 9962W        W52874  24.191  25.555  27.761 -0.0044  0.2897 -0.2110
 9963W        W52875  23.800  21.272  30.156 -0.0160 -0.0023  0.2543
 9964W        W52876  23.273  25.465  29.320  0.2046  0.1788  0.2028
 9965W        W52877  22.229  24.379   0.281  0.1986  0.1000  0.1658
 9966W        W52878  24.157  24.737  27.986 -0.0021  0.2684  0.0033
 9967W        W52879  25.020  26.212  28.683  0.0602  0.0869 -0.1174
 9968W        W52880  23.654  23.434  27.706 -0.1980  0.0843  0.1554
 9969W        W52881  24.039  24.961  29.163  0.1488 -0.1183 -0.0454
 9970W        W52882  23.952  25.089  28.685  0.1193 -0.1080  0.2406
 9971W        W52883  24.910  22.450  28.553 -0.2300 -0.2966  0.0835
 9972W        W52884  24.627  23.794  29.267 -0.0351 -0.3478  0.3722
 9973W        W52885  22.582  21.920  28.787  0.0224 -0.3531 -0.2547
 9974W        W52886  23.194  21.475  30.030 -0.0818  0.0814  0.3077
 9975W        W52887  22.845  21.494  28.866  0.0816 -0.2459 -0.1002
 9976W        W52888  22.691  24.499  30.041  0.0996  0.4477  0.2773
 9977W        W52889  21.315  21.310  26.267 -0.0481 -0.3017 -0.1498
 9978W        W52890  22.819  24.226  27.487  0.5466  0.0438 -0.1680
 9979W        W52891  22.139  22.998  29.409 -0.1765  0.0009 -0.3603
 9980W        W52892  23.714  21.929  30.821 -0.2551  0.1277  0.2587
 9981W        W52893  22.800  23.010  29.476 -0.0967  0.0201  0.2561
 9982W        W52894  22.074  23.718  28.541 -0.1819  0.1848 -0.0387
 9983W        W52895  22.997  21.533  28.006  0.1120  0.3112  0.3013
 9984W        W52896  24.784  24.837  28.238  0.0238  0.3839  0.2042
 9985W        W52897  23.763  22.338  29.408  0.0799  0.0721 -0.2132
 9986W        W52898  21.052  20.199  28.530  0.3033 -0.1469  0.4048
 9987W        W52899  25.604  24.282  27.478 -0.5018  0.2277  0.2133
 9988W        W52900  26.080  25.884  28.315  0.3156  0.0596 -0.2071
 9989W        W52901  23.202  22.603  28.435  0.0621 -0.3025 -0.3419
 9990W        W52902  24.883  24.990  30.256  0.1118  0.1632  0.0922
 9991W        W52903  20.763  22.434  28.302  0.1850  0.2810 -0.2564
 9992W        W52904  23.777  22.292  30.320 -0.0540 -0.1849  0.3195
 9993W        W52905  21.690  21.400  30.571 -0.0712  0.0066  0.0348
 9994W        W52906  22.116  20.582  27.043 -0.0786 -0.0948  0.1946
 9995W        W52907  24.420  22.433  28.851  0.0106  0.1551  0.1017
 9996W        W52908  24.487  27.092  27.155 -0.3225  0.1118 -0.0062
 9997W        W52909  24.722  26.220  27.987  0.1551  0.2051 -0.0001
 9998W        W52910  23.942  23.263  29.030  0.0754  0.0619 -0.1901
 9999W        W52911  23.597  24.439  30.437 -0.0448 -0.2888 -0.2480
10000W        W52912  22.720  19.696  29.179 -0.0096  0.3955 -0.3337
10001W        W52913  24.339  24.570  29.524  0.2217  0.1491  0.2017
10002W        W52914  23.115  24.608  30.410 -0.1659 -0.4012  0.0444
10003W        W52915  26.117  25.031  27.725 -0.1640 -0.2525 -0.1680
10004W        W52916  25.343  22.635  30.618 -0.1013  0.0966 -0.1512
10005W        W52917  23.254  24.086  27.887  0.0028 -0.3464  0.3107
10006W        W52918  21.414  20.907  30.014 -0.1456  0.2737 -0.1504
10007W        W52919  23.865  23.717  29.872 -0.1916  0.0141 -0.0875
10008W        W52920  25.933  24.921  29.962 -0.1752 -0.0425 -0.0442
10009W        W52921  21.804  21.449  29.208 -0.2053 -0.0673  0.0856
10010W        W52922  23.636  22.873  29.251  0.0098 -0.2107 -0.1989
10011W        W52923  24.686  24.310  27.439  0.0842 -0.3364 -0.0513
10012W        W52924  22.798  22.245  29.640 -0.0880  0.0894  0.4312
10013W        W52925  23.888  22.598  28.923  0.0588  0.0870 -0.0272
10014W        W52926  23.865  24.297  29.949 -0.0854  0.0871 -0.1038
10015W        W52927  23.437  24.160  29.145 -0.4946 -0.1211 -0.3666
10016W        W52928  23.982  24.972   0.795 -0.0287  0.1208 -0.1709
10017W        W52929  24.442  24.007  28.271  0.1595  0.1539 -0.0001
10018W        W52930  26.487  24.121  27.876 -0.1856 -0.2259  0.0413
10019W        W52931  23.599  26.863  30.382 -0.0203  0.1497 -0.0341
10020W        W52932  24.681  25.168  31.602 -0.1927  0.0828 -0.1123
10021W        W52933  22.638  24.535  30.649  0.3733 -0.0829 -0.0925
10022W        W52934  26.069  24.084  28.984 -0.1111  0.4271  0.0886
10023W        W52935  22.881  21.464  30.563 -0.0423  0.1360 -0.0297
10024W        W52936  22.020  23.130  27.755  0.0123  0.0770  0.0377
10025W        W52937  24.443  22.992  29.714 -0.0601 -0.0411 -0.1413
10026W        W52938  25.560  24.571  29.739  0.0478  0.0697  0.1788
10027W        W52939  22.966  21.929  27.339 -0.1184 -0.3482  0.2266
10028W        W52940  24.156  21.297  28.300  0.2360 -0.0227  0.2682
10029W        W52941  22.839  26.324  30.451 -0.0126  0.1301  0.2328
10030W        W52942  24.358  22.570  28.393  0.1494  0.0144 -0.0645
10031W        W52943  25.445  23.671  31.630 -0.0894  0.1443 -0.1486
10032W        W52944  24.221  24.091  31.253  0.0466 -0.2287 -0.0962
10033W        W52945  21.526  22.905  31.213 -0.1784  0.1909 -0.0378
10034W        W52946  21.054  22.715  30.904  0.1268  0.1437  0.0889
10035W        W52947  23.957  24.058   0.670 -0.0987 -0.1208 -0.0164
10036W        W52948  20.719  23.915   1.461 -0.1930  0.0967 -0.1662
10037W        W52949  23.958  23.253  31.604  0.0621 -0.1321  0.0500
10038W        W52950  22.904  22.573  30.726  0.0294 -0.3735 -0.0661
10039W        W52951  23.738  22.092  31.724 -0.2563  0.1963 -0.1188
10040W        W52952  24.756  26.006  31.654 -0.1372 -0.0576  0.0668
10041W        W52953  24.301  25.315   0.410 -0.1043  0.0510  0.0267
10042W        W52954  23.178  22.033   0.572  0.2520  0.0497  0.1464
10043W        W52955  24.731  24.335  31.327 -0.0104 -0.0730 -0.1219
10044W        W52956  23.245  23.864  31.628 -0.0777  0.0851  0.1974
10045W        W52957  25.532  25.130   0.377 -0.0549 -0.2346  0.0048
10046W        W52958  21.800  25.260   0.207 -0.0460 -0.2290 -0.1688
10047W        W52959  21.858  24.109   1.031 -0.0865 -0.0956  0.3125
10048W        W52960  24.406  25.199  30.174 -0.1693 -0.2164  0.1179
10049W        W52961  23.559  21.456  31.700 -0.3398  0.0363 -0.1040
10050W        W52962  22.185  24.181  31.410 -0.2130  0.2136  0.1112
10051W        W52963  23.549  21.554  28.824 -0.0683 -0.1675  0.2806
10052W        W52964  22.651  24.536  31.819 -0.1293 -0.0500 -0.1341
10053W        W52965  24.885  23.519   0.408  0.1803 -0.2379 -0.1872
10054W        W52966  24.036  22.662  29.764 -0.1077 -0.0135  0.0872
10055W        W52967  22.537  20.714  29.148  0.2373 -0.4216  0.2041
10056W        W52968  24.902  22.132  31.275 -0.1176 -0.4944  0.1597
10057W        W52969  22.322  23.212  30.346 -0.2013 -0.1166  0.0429
10058W        W52970  20.637  24.224  31.073  0.1699 -0.0248  0.1531
10059W        W52971  22.797  22.854  30.005 -0.0384  0.1599 -0.1514
10060W        W52972  23.433  24.848  31.723 -0.1014 -0.2851 -0.1475
10061W        W52973  23.792  26.589  31.823 -0.0151  0.2519  0.0693
10062W        W52974  24.118  24.348  30.421  0.0539  0.0950  0.1171
10063W        W52975  25.049  22.586  31.444  0.2203  0.0549 -0.2087
10064W        W52976  23.427  22.677  30.802  0.0328  0.2209 -0.0658
10065W        W52977  22.328  24.982   0.537  0.0386 -0.0847  0.0856
10066W        W52978  21.566  23.119  29.298 -0.0388  0.1071  0.1742
10067W        W52979  24.029  24.855   0.312 -0.0252  0.0195 -0.1374
10068W        W52980  24.333  23.367  30.802 -0.0399  0.2912  0.0846
10069W        W52981  23.208  25.031  30.694 -0.2295  0.2456  0.1786
10070W        W52982  22.887  23.505  31.051  0.0049 -0.1504  0.1724
10071W        W52983  25.281  23.417  29.836 -0.1562 -0.0478 -0.0823
10072W        W52984  25.193  23.133   0.275  0.2250  0.1540 -0.0515
10073W        W52985  21.976  22.943  30.739  0.0625  0.3493 -0.2521
10074W        W52986  23.932  26.000   1.424 -0.1474 -0.3179 -0.0038
10075W        W52987  20.655  23.594  29.856  0.0565  0.2943 -0.1278
10076W        W52988  23.506  23.195   0.313  0.4735 -0.3426 -0.0695
10077W        W52989  22.779  22.823  31.233  0.1124 -0.0323 -0.1293
10078W        W52990  23.977  23.546  31.181  0.1727  0.1965  0.0367
10079W        W52991  24.856  24.729  31.630 -0.3408 -0.0788 -0.1069
10080W        W52992  21.055  24.133  30.651 -0.1597 -0.0556  0.2103
10081W        W52993  23.671  24.477   0.337 -0.1760 -0.0683  0.0897
10082W        W52994  25.483  20.731   0.013 -0.0101  0.2595  0.0888
10083W        W52995  25.127  21.467  30.664 -0.0882 -0.1210  0.0016
10084W        W52996  23.169  25.923  31.110  0.1223  0.0628  0.0967
10085W        W52997  24.280  21.758  31.096 -0.1805 -0.2257 -0.0495
10086W        W52998  23.867  24.184  30.833  0.3031  0.1838 -0.2615
10087W        W52999  24.672  24.760  31.078  0.0827  0.4075 -0.2352
10088W        W53000  24.049  23.281   0.116 -0.0530  0.2364 -0.0776
10089W        W53001  24.007  25.532  31.369  0.0176  0.0250  0.0042
10090W        W53002  20.763  22.628  30.393  0.2860  0.1114  0.1679
10091W        W53003  22.639  23.218  31.896 -0.0344 -0.1607  0.2236
10092W        W53004  22.191  23.431  30.823 -0.0710 -0.4352  0.1230
10093W        W53005  21.719  23.634  30.675  0.1591  0.1016 -0.0679
10094W        W53006  21.505  21.871  30.259 -0.2027 -0.2578 -0.0095
10095W        W53007  25.283  25.592   0.251 -0.0564  0.4344  0.0786
10096W        W53008  25.459  24.157   0.041 -0.0501  0.0195  0.1776
10097W        W53009  24.644  23.386  29.583  0.2741 -0.3259  0.0281
10098W        W53010  22.853  29.091  17.971  0.2208  0.2302 -0.2989
10099W        W53011  22.673  27.188  16.445 -0.1976  0.0047 -0.2426
10100W        W53012  24.087  25.673  16.264 -0.2136 -0.1051 -0.0951
10101W        W53013  25.704  26.791  15.809  0.0533  0.0661  0.2108
10102W        W53014  21.011  26.814  16.114 -0.2625  0.0831 -0.1368
10103W        W53015  25.725  28.922  17.025 -0.0215  0.1061  0.2044
10104W        W53016  24.213  25.820  20.293  0.0761  0.2481  0.1862
10105W        W53017  23.089  29.297  17.081  0.0218 -0.0583  0.0259
10106W        W53018  24.125  28.079  17.333 -0.0889  0.1541 -0.0095
10107W        W53019  24.416  27.260  16.023 -0.1375 -0.0521  0.0471
10108W        W53020  22.498  26.141  17.719 -0.0275  0.3378 -0.1997
10109W        W53021  23.291  28.837  18.079  0.1116  0.0685 -0.1057
10110W        W53022  23.735  25.369  16.083 -0.2207 -0.0897  0.1782
10111W        W53023  21.981  25.630  18.343  0.0732  0.0579  0.0588
10112W        W53024  22.464  28.332  18.173 -0.1804 -0.0696  0.4479
10113W        W53025  22.068  27.672  16.088 -0.0768 -0.0275  0.1188
10114W        W53026  22.553  25.795  18.496 -0.2377  0.2416  0.0144
10115W        W53027  23.415  25.035  15.783  0.1367 -0.0305  0.1566
10116W        W53028  24.103  28.032  16.573  0.0501  0.1838  0.0198
10117W        W53029  23.136  26.825  18.351 -0.0960  0.1830 -0.0341
10118W        W53030  23.575  26.660  18.125 -0.1924 -0.1452  0.2680
10119W        W53031  24.271  29.756  16.211 -0.2207  0.2504 -0.0768
10120W        W53032  22.795  25.239  16.027  0.2545  0.4054  0.1061
10121W        W53033  21.426  26.149  17.868  0.0094 -0.1549 -0.2446
10122W        W53034  23.221  27.162  18.994 -0.2084  0.0988  0.1492
10123W        W53035  23.966  27.319  17.830  0.0832 -0.2659 -0.2296
10124W        W53036  23.834  27.606  16.669 -0.1392 -0.1216  0.0515
10125W        W53037  22.273  27.993  16.842 -0.1523 -0.1491  0.1795
10126W        W53038  23.131  31.439  17.346 -0.0895  0.0146  0.0480
10127W        W53039  24.710  28.173  20.435 -0.0514  0.1790  0.1774
10128W        W53040  21.571  27.824  16.193  0.2087 -0.0023  0.1358
10129W        W53041  21.505  28.968  16.522 -0.0748 -0.3292  0.2395
10130W        W53042  23.271  27.047  17.178  0.0240  0.0843 -0.0871
10131W        W53043  24.611  27.330  19.229  0.0567  0.3021  0.1412
10132W        W53044  24.838  27.628  18.526 -0.0251  0.1892 -0.2873
10133W        W53045  22.758  28.546  19.205 -0.3522  0.1133  0.0718
10134W        W53046  23.093  27.055  16.685  0.1253 -0.1905  0.0887
10135W        W53047  23.632  28.732  18.400  0.2498  0.0569  0.1455
10136W        W53048  23.469  28.767  19.822  0.0399  0.1624 -0.0864
10137W        W53049  22.360  28.587  18.791  0.0667  0.1927  0.0401
10138W        W53050  24.238  27.571  17.466  0.2362  0.0917  0.1384
10139W        W53051  23.765  27.957  16.149 -0.1956  0.0138  0.3222
10140W        W53052  23.223  28.442  17.079 -0.0880  0.4038  0.1575
10141W        W53053  24.483  29.841  18.409  0.0285  0.1256 -0.0216
10142W        W53054  22.673  28.137  16.399 -0.0343 -0.2181  0.0528
10143W        W53055  24.695  27.788  19.523 -0.0725  0.2469 -0.1750
10144W        W53056  23.100  28.883  15.725 -0.0167  0.0023  0.0303
10145W        W53057  23.889  26.184  15.059  0.2418 -0.1264 -0.3580
10146W        W53058  22.821  25.693  15.787  0.4518 -0.0455 -0.0033
10147W        W53059  25.110  26.944  15.937 -0.2474  0.1323  0.2639
10148W        W53060  23.480  25.651  18.145 -0.1781 -0.1672 -0.1348
10149W        W53061  22.812  30.025  17.328 -0.0614  0.1018  0.2189
10150W        W53062  24.383  26.536  17.922  0.1287 -0.1587 -0.1709
10151W        W53063  24.098  28.110  18.111  0.1170  0.0881 -0.0664
10152W        W53064  23.642  27.035  16.816 -0.1078 -0.3648 -0.1301
10153W        W53065  23.385  27.530  17.368  0.3060  0.2759 -0.0795
10154W        W53066  22.385  28.590  17.076  0.0154  0.3186  0.0574
10155W        W53067  21.681  26.509  17.628  0.0289 -0.0380  0.0598
10156W        W53068  25.100  29.887  16.717 -0.0144  0.2017  0.3551
10157W        W53069  24.857  27.810  17.466 -0.0635 -0.1067 -0.4072
10158W        W53070  24.660  28.721  17.009 -0.0101 -0.0608 -0.1603
10159W        W53071  22.714  28.238  16.946 -0.1757 -0.0338  0.2838
10160W        W53072  22.840  26.469  19.769  0.1484 -0.0086 -0.0226
10161W        W53073  21.260  26.155  17.404 -0.3674  0.1469  0.1437
10162W        W53074  22.213  25.051  15.841 -0.3619 -0.0090 -0.0138
10163W        W53075  24.415  27.494  18.063  0.1365 -0.1961  0.0359
10164W        W53076  21.560  27.205  18.339 -0.0473 -0.0576 -0.0607
10165W        W53077  25.426  26.015  16.825 -0.1457 -0.1465  0.0166
10166W        W53078  23.120  27.909  17.162 -0.0855  0.0595 -0.1705
10167W        W53079  25.541  27.413  17.124 -0.2101 -0.1478  0.0441
10168W        W53080  25.070  27.119  17.146  0.1087  0.1189 -0.1708
10169W        W53081  26.063  25.609  17.573 -0.2296  0.0799  0.2051
10170W        W53082  24.537  26.023  16.350  0.0271 -0.1508 -0.0395
10171W        W53083  22.123  26.802  16.504 -0.1905  0.0930  0.3743
10172W        W53084  22.914  26.677  17.166 -0.2084  0.3428  0.1288
10173W        W53085  24.661  28.108  18.276 -0.1324  0.1190  0.4492
10174W        W53086  24.902  28.303  17.791 -0.2335  0.4492 -0.1123
10175W        W53087  23.117  29.103  18.488  0.1344 -0.1679 -0.0791
10176W        W53088  23.824  25.125  20.901  0.0724 -0.2915  0.1734
10177W        W53089  24.651  29.659  20.104 -0.2906  0.5227  0.0379
10178W        W53090  22.905  28.690  16.679  0.2190 -0.0084  0.0445
10179W        W53091  21.965  28.864  17.861 -0.1549 -0.2642  0.0701
10180W        W53092  23.013  28.166  15.807 -0.3257  0.1462 -0.0924
10181W        W53093  22.943  25.587  18.194  0.2703 -0.2705  0.0602
10182W        W53094  22.344  27.108  18.035  0.0880 -0.0072 -0.0437
10183W        W53095  23.312  25.789  15.564 -0.1112  0.1632  0.2077
10184W        W53096  22.960  26.013  19.777  0.2373 -0.4343  0.1833
10185W        W53097  24.993  24.925  17.921 -0.0673  0.0626 -0.0063
10186W        W53098  22.894  27.535  16.202 -0.1707  0.1287  0.2258
10187W        W53099  25.931  28.797  16.499 -0.1761  0.0503  0.0768
10188W        W53100  26.182  26.217  16.462 -0.2021  0.0145  0.0460
10189W        W53101  24.474  27.924  15.263  0.3914  0.0264  0.1127
10190W        W53102  21.767  26.517  18.170  0.0044  0.0758  0.4253
10191W        W53103  22.084  25.813  17.454 -0.0586 -0.0408  0.2519
10192W        W53104  22.894  27.575  19.793 -0.2829  0.0048 -0.2768
10193W        W53105  22.611  25.569  17.681 -0.1198  0.1677 -0.1023
10194W        W53106  24.312  28.044  19.777  0.2313 -0.0893 -0.2604
10195W        W53107  22.343  25.354  16.254 -0.1211 -0.3091 -0.2324
10196W        W53108  24.245  26.530  17.439  0.1835 -0.3173 -0.2878
10197W        W53109  23.076  26.486  17.933 -0.0168  0.2846 -0.3893
10198W        W53110  22.176  28.652  16.061  0.0030  0.2925  0.1246
10199W        W53111  24.397  26.775  18.386 -0.0029  0.1490  0.1488
10200W        W53112  24.094  28.822  16.709  0.0901 -0.1167 -0.0139
10201W        W53113  25.134  29.392  17.690 -0.2380  0.2236  0.0517
10202W        W53114  24.636  29.178  17.851 -0.0768  0.0342  0.1308
10203W        W53115  23.346  26.337  19.827  0.1336 -0.1296 -0.1697
10204W        W53116  21.404  27.203  15.870  0.0232 -0.0867  0.0920
10205W        W53117  22.993  30.295  17.912  0.1447 -0.3048  0.1291
10206W        W53118  22.578  29.024  16.798  0.2123 -0.0252 -0.2608
10207W        W53119  23.846  26.554  16.561  0.1347 -0.2238  0.1336
10208W        W53120  26.187  28.555  16.902  0.4453  0.0444  0.3490
10209W        W53121  24.627  27.775  16.087 -0.0066  0.1453 -0.1544
10210W        W53122  22.468  27.106  18.902 -0.0025  0.2372  0.0066
10211W        W53123  25.241  27.695  19.647  0.1592  0.0401 -0.1046
10212W        W53124  23.753  28.276  18.498 -0.1003 -0.1217 -0.0225
10213W        W53125  24.860  26.380  16.583 -0.2153  0.2500  0.3545
10214W        W53126  22.074  25.875  15.555  0.0638  0.2103 -0.1565
10215W        W53127  23.682  28.352  17.380 -0.1554 -0.1425 -0.1308
10216W        W53128  22.292  29.006  17.319 -0.2646 -0.3461 -0.0985
10217W        W53129  22.151  26.398  16.061  0.4074 -0.0679  0.0139
10218W        W53130  23.275  29.082  17.623 -0.1180 -0.1671  0.1173
10219W        W53131  24.440  27.266  16.959 -0.0680  0.0650 -0.0453
10220W        W53132  22.777  26.687  19.194 -0.0752  0.0179  0.1262
10221W        W53133  23.935  27.481  20.548 -0.0624  0.1302  0.1079
10222W        W53134  22.003  27.373  15.357 -0.4405  0.0421 -0.1233
10223W        W53135  23.195  29.206  19.038 -0.2286  0.0649  0.2204
10224W        W53136  24.768  25.655  17.518  0.1212  0.0215  0.3627
10225W        W53137  25.641  26.065  15.825 -0.1715 -0.0011  0.1171
10226W        W53138  24.145  27.741  19.241  0.0262 -0.3428 -0.0650
10227W        W53139  25.070  27.332  16.543  0.1130 -0.1494  0.4432
10228W        W53140  23.758  26.195  15.692  0.3888 -0.1208 -0.0536
10229W        W53141  24.135  24.477  15.454 -0.0625 -0.0029 -0.1806
10230W        W53142  22.535  27.871  19.890 -0.2226 -0.3539  0.0525
10231W        W53143  23.663  27.854  17.136  0.2068 -0.0616  0.0156
10232W        W53144  24.223  27.043  17.453 -0.0602 -0.0513  0.2524
10233W        W53145  23.218  25.980  16.489  0.1114  0.2330  0.1785
10234W        W53146  25.187  28.120  16.137  0.3944 -0.1089 -0.0335
10235W        W53147  21.737  28.980  17.366 -0.0850 -0.3236 -0.1611
10236W        W53148  24.421  27.870  20.198  0.1228 -0.1058  0.0640
10237W        W53149  26.087  28.475  17.397  0.1694  0.1355  0.1629
10238W        W53150  23.745  26.469  18.940  0.1931 -0.0902 -0.2093
10239W        W53151  24.146  26.899  16.135 -0.0578 -0.3976  0.0572
10240W        W53152  23.456  26.176  16.915 -0.3248 -0.1870 -0.0402
10241W        W53153  21.376  29.094  15.689 -0.0259 -0.3524  0.1107
10242W        W53154  24.820  25.882  18.146 -0.1660 -0.0660 -0.1983
10243W        W53155  25.144  25.994  18.652 -0.3543  0.3928 -0.3031
10244W        W53156  23.329  25.156  19.965  0.2344 -0.2105 -0.3590
10245W        W53157  25.534  27.422  19.261 -0.3479 -0.0037  0.0193
10246W        W53158  24.851  26.442  15.622 -0.3528  0.1151 -0.1443
10247W        W53159  23.919  26.807  17.793 -0.0519  0.0356 -0.0152
10248W        W53160  22.572  26.483  15.853  0.3407 -0.0701  0.1603
10249W        W53161  24.068  27.451  18.765 -0.0888 -0.1448 -0.3839
10250W        W53162  21.896  27.525  18.068 -0.0091  0.0477  0.0078
10251W        W53163  22.109  28.671  20.138 -0.1581 -0.0710 -0.6252
10252W        W53164  25.944  28.177  19.756 -0.2540  0.1099 -0.0888
10253W        W53165  23.390  27.492  16.882  0.1008  0.1658 -0.0111
10254W        W53166  23.623  25.898  19.386 -0.2151  0.0850  0.0329
10255W        W53167  22.322  25.934  16.433  0.1721  0.2423 -0.0223
10256W        W53168  21.961  28.345  16.946  0.2666 -0.3108 -0.0247
10257W        W53169  24.844  28.410  15.942 -0.0564 -0.0260 -0.1878
10258W        W53170  24.106  26.123  17.593 -0.1079  0.0316 -0.0595
10259W        W53171  23.603  29.694  18.260 -0.2625 -0.3246 -0.0711
10260W        W53172  23.277  28.458  16.493  0.0355  0.1382 -0.5675
10261W        W53173  23.489  28.417  18.994  0.0321 -0.1668  0.0333
10262W        W53174  22.006  29.037  16.376 -0.2135  0.2018  0.2476
10263W        W53175  26.080  26.812  17.989 -0.1317  0.2081  0.2325
10264W        W53176  21.596  28.616  17.064  0.2523 -0.0787 -0.3852
10265W        W53177  24.424  26.638  16.450  0.3347 -0.0078 -0.0793
10266W        W53178  20.794  27.166  17.347 -0.0864  0.2127 -0.0344
10267W        W53179  26.544  25.575  17.712 -0.1663 -0.2278 -0.1283
10268W        W53180  25.616  26.891  17.102 -0.5434  0.0840  0.1471
10269W        W53181  22.777  26.692  18.696  0.1582  0.2782  0.0614
10270W        W53182  23.741  26.853  17.286  0.2561 -0.2487  0.0448
10271W        W53183  22.853  29.558  18.387  0.1591  0.0356  0.0196
10272W        W53184  23.717  27.847  18.781 -0.0548 -0.2032  0.0184
10273W        W53185  23.637  26.645  15.924  0.0840 -0.0056  0.0218
10274W        W53186  24.070  29.335  18.477 -0.0914 -0.3526  0.0370
10275W        W53187  23.642  28.175  19.860 -0.1901 -0.2652 -0.2499
10276W        W53188  22.078  26.049  16.928 -0.1739  0.0597 -0.3744
10277W        W53189  25.376  25.954  18.182  0.2695  0.2536 -0.1457
10278W        W53190  23.746  26.085  16.453 -0.1180 -0.1535 -0.3233
10279W        W53191  22.586  27.830  17.248 -0.2838 -0.1648 -0.1532
10280W        W53192  23.721  29.968  17.205  0.0423  0.4562  0.0527
10281W        W53193  22.857  26.716  16.383 -0.1925  0.2022 -0.0570
10282W        W53194  23.431  28.862  16.739 -0.1034 -0.0157 -0.1594
10283W        W53195  22.580  26.064  19.340  0.0770 -0.1896 -0.2921
10284W        W53196  25.004  27.247  18.878 -0.1797  0.2462 -0.2338
10285W        W53197  22.553  26.786  16.749 -0.1349 -0.1704  0.0375
10286W        W53198  23.378  26.161  18.027  0.1567  0.0616  0.0946
10287W        W53199  24.030  26.261  18.066  0.0032  0.1385  0.2336
10288W        W53200  23.797  29.362  17.384  0.1935 -0.0082 -0.0992
10289W        W53201  23.756  27.720  17.677 -0.1890 -0.0336 -0.1981
10290W        W53202  23.621  28.058  19.340  0.1457 -0.3290  0.0761
10291W        W53203  22.889  26.180  18.720 -0.3917  0.1242  0.1256
10292W        W53204  24.769  28.900  16.105  0.0374 -0.0309  0.1764
10293W        W53205  24.920  28.087  18.827  0.3574  0.1937 -0.3740
10294W        W53206  23.166  27.974  16.286 -0.1295  0.0140 -0.2491
10295W        W53207  21.821  27.860  17.096 -0.0625 -0.0382  0.1769
10296W        W53208  22.027  27.306  17.087  0.2477  0.1673 -0.0382
10297W        W53209  23.115  25.697  19.370  0.0410 -0.2212  0.0283
10298W        W53210  22.483  28.731  17.644  0.1004 -0.0620  0.1344
10299W        W53211  22.155  28.102  16.353  0.1168 -0.3284  0.0775
10300W        W53212  22.699  29.147  18.846  0.0974 -0.1746  0.2172
10301W        W53213  25.381  25.636  16.038  0.0255 -0.3627 -0.2101
10302W        W53214  24.923  26.874  16.399  0.1876 -0.1823 -0.0519
10303W        W53215  25.103  27.268  19.455 -0.0298  0.0698 -0.2807
10304W        W53216  26.424  27.258  18.756 -0.1050  0.1567  0.2426
10305W        W53217  23.442  27.466  16.300 -0.0238  0.3287 -0.1383
10306W        W53218  23.819  26.813  19.365  0.1115  0.1857  0.2277
10307W        W53219  22.973  25.671  18.864  0.1435  0.1780  0.0303
10308W        W53220  25.749  27.704  18.372  0.0425 -0.2774 -0.1332
10309W        W53221  21.732  27.522  19.074  0.0790  0.2134 -0.2092
10310W        W53222  24.080  29.065  18.969 -0.1163  0.2130  0.0310
10311W        W53223  21.978  27.790  18.731  0.1259  0.1753  0.2456
10312W        W53224  24.533  27.150  16.477 -0.2471 -0.3131  0.0986
10313W        W53225  23.687  25.589  16.509 -0.0545 -0.0767 -0.2444
10314W        W53226  22.161  27.920  18.217  0.1670 -0.3930 -0.0886
10315W        W53227  26.182  26.898  15.850  0.0082  0.0706 -0.2115
10316W        W53228  24.906  27.962  15.669 -0.0529 -0.0886  0.2512
10317W        W53229  23.429  27.473  18.690 -0.2442 -0.3980 -0.2467
10318W        W53230  21.786  26.939  17.927  0.0356 -0.0191 -0.0888
10319W        W53231  25.207  26.467  16.982 -0.1842  0.1793  0.2776
10320W        W53232  22.909  26.044  15.252 -0.2644 -0.0515  0.2719
10321W        W53233  22.885  27.116  18.043  0.1968  0.0124  0.2942
10322W        W53234  23.373  26.403  18.556 -0.0854  0.0016 -0.3224
10323W        W53235  25.141  28.382  18.310 -0.2776  0.0461  0.2289
10324W        W53236  24.780  25.905  16.838 -0.0238 -0.0032 -0.1070
10325W        W53237  25.002  26.156  19.704  0.3050  0.1862 -0.0271
10326W        W53238  24.019  27.118  18.288 -0.1747  0.1970 -0.2261
10327W        W53239  23.473  27.631  19.168 -0.0940  0.1452  0.0523
10328W        W53240  23.114  26.223  19.367  0.1269  0.2276  0.0584
10329W        W53241  24.355  30.310  18.585 -0.1105 -0.2407  0.0904
10330W        W53242  25.877  27.230  16.201  0.0535  0.1239  0.0683
10331W        W53243  24.556  25.896  19.381  0.0819 -0.0279  0.2728
10332W        W53244  24.054  26.417  16.141 -0.0113  0.1028  0.1435
10333W        W53245  25.100  26.414  16.148  0.0684 -0.2051  0.1000
10334W        W53246  22.196  26.642  17.910  0.0383  0.1178  0.1483
10335W        W53247  25.068  27.941  21.392 -0.0340  0.0780  0.1733
10336W        W53248  22.148  24.845  16.305 -0.1523 -0.0089 -0.4130
10337W        W53249  24.431  26.856  20.027 -0.0273 -0.0781 -0.1223
10338W        W53250  24.097  30.416  16.782 -0.3559 -0.3627 -0.1365
10339W        W53251  23.996  28.500  18.901 -0.2545  0.0981  0.0867
10340W        W53252  24.479  25.331  17.188  0.1532  0.1503  0.1950
10341W        W53253  21.765  27.085  16.714 -0.4575  0.0593  0.1656
10342W        W53254  22.241  29.261  17.716  0.0955  0.0541 -0.3072
10343W        W53255  20.637  26.396  16.063 -0.0490  0.0721  0.1286
10344W        W53256  22.552  27.024  17.205 -0.1476 -0.1991  0.2993
10345W        W53257  23.883  27.377  17.166  0.0560 -0.0066  0.3332
10346W        W53258  25.279  29.024  19.293  0.1636 -0.1161  0.2017
10347W        W53259  23.725  25.649  15.210 -0.2217  0.1924  0.0113
10348W        W53260  24.904  26.440  18.766  0.4130  0.3404  0.0991
10349W        W53261  22.548  28.984  16.303  0.0875  0.0598  0.3519
10350W        W53262  24.958  26.222  17.401 -0.1868 -0.3527 -0.2138
10351W        W53263  23.138  29.976  18.303 -0.0719 -0.1869 -0.1548
10352W        W53264  21.801  28.843  18.377 -0.2284  0.1170 -0.2051
10353W        W53265  23.466  27.948  16.673 -0.2018  0.2545 -0.0908
10354W        W53266  24.572  26.126  17.785 -0.2377  0.0365 -0.0851
10355W        W53267  25.239  26.404  18.362 -0.1171  0.3099 -0.0725
10356W        W53268  23.642  26.971  16.301  0.1253  0.0949 -0.1555
10357W        W53269  25.474  26.976  18.917  0.0078  0.1810  0.0021
10358W        W53270  24.670  30.745  18.701  0.1639 -0.0963  0.0739
10359W        W53271  23.343  26.507  17.346  0.2178 -0.1980 -0.0950
10360W        W53272  23.712  27.364  19.512  0.0019 -0.0272  0.1887
10361W        W53273  25.431  27.849  17.915  0.1591 -0.2424  0.0468
10362W        W53274  21.571  28.605  17.723 -0.0399  0.1555  0.1488
10363W        W53275  22.096  26.743  19.026  0.1087 -0.2565  0.4155
10364W        W53276  24.149  26.253  19.259 -0.0073  0.1903 -0.0364
10365W        W53277  24.465  27.803  17.052 -0.2712 -0.1578  0.3686
10366W        W53278  21.953  26.155  17.827  0.0184  0.0598 -0.0521
10367W        W53279  25.396  28.356  15.706  0.2332 -0.0015 -0.1425
10368W        W53280  22.058  28.598  20.683 -0.2568  0.2351 -0.0653
10369W        W53281  21.730  28.134  17.538  0.0206 -0.0084  0.1845
10370W        W53282  22.596  29.573  16.530  0.0460 -0.0292 -0.0660
10371W        W53283  24.646  28.749  17.589  0.0683  0.0747 -0.2028
10372W        W53284  25.761  26.459  17.688 -0.2500  0.0394 -0.0938
10373W        W53285  24.477  29.486  17.524 -0.1345 -0.3425 -0.0397
10374W        W53286  22.162  26.761  17.106 -0.2808  0.0038  0.3236
10375W        W53287  22.101  29.414  16.705 -0.2351 -0.0688  0.1660
10376W        W53288  20.859  30.343  18.534 -0.0115  0.4619 -0.5130
10377W        W53289  25.396  27.791  16.676  0.0057 -0.2766  0.2601
10378W        W53290  21.821  30.119  17.241  0.0208  0.0288 -0.0338
10379W        W53291  23.051  28.740  18.818 -0.0363  0.4487  0.1336
10380W        W53292  25.023  25.970  16.349 -0.0183  0.0498 -0.2257
10381W        W53293  25.293  26.938  16.772 -0.0917 -0.0007  0.1860
10382W        W53294  25.415  27.076  16.323  0.0465  0.3205  0.0269
10383W        W53295  24.367  29.041  19.845 -0.0915 -0.1959 -0.2159
10384W        W53296  23.528  27.157  17.650 -0.1161  0.1048 -0.6417
10385W        W53297  23.746  24.052  16.117  0.1950 -0.3751  0.1564
10386W        W53298  21.732  26.840  20.422  0.1329  0.2982  0.1499
10387W        W53299  25.640  26.771  18.499  0.1314  0.1281 -0.2200
10388W        W53300  22.241  28.510  19.278  0.0979  0.3315 -0.0475
10389W        W53301  25.240  28.829  16.042 -0.0249  0.0669 -0.1957
10390W        W53302  22.910  27.402  17.071 -0.1036 -0.1165  0.2383
10391W        W53303  22.512  28.006  17.792 -0.1703 -0.1681  0.0970
10392W        W53304  25.364  26.445  18.870 -0.2503  0.2585  0.2672
10393W        W53305  23.673  26.574  15.370 -0.3988  0.0097  0.0264
10394W        W53306  22.966  26.184  17.188 -0.0266 -0.1949  0.0987
10395W        W53307  22.424  30.193  17.646 -0.1065 -0.0272  0.0904
10396W        W53308  22.772  28.311  17.410  0.1154  0.0399  0.1357
10397W        W53309  22.588  29.567  17.953  0.1326 -0.1761 -0.1407
10398W        W53310  22.526  24.721  16.050  0.1679 -0.1182  0.2598
10399W        W53311  26.138  26.935  18.555  0.0483 -0.2448 -0.0613
10400W        W53312  22.688  27.155  19.356 -0.2883  0.2076 -0.0452
10401W        W53313  24.870  25.603  19.960  0.0181 -0.1749  0.1274
10402W        W53314  22.807  27.045  16.011 -0.0163 -0.3511 -0.1357
10403W        W53315  24.547  26.365  17.010 -0.1264 -0.0521 -0.0080
10404W        W53316  22.778  28.283  18.708 -0.2042 -0.0400 -0.0713
10405W        W53317  23.042  27.495  18.419  0.0766 -0.0600 -0.2208
10406W        W53318  23.314  26.532  16.364 -0.2134  0.1263  0.1674
10407W        W53319  25.134  26.846  18.546  0.2482 -0.2384  0.2925
10408W        W53320  22.894  27.136  15.561 -0.4201  0.0126 -0.2002
10409W        W53321  24.279  28.441  18.434 -0.0701  0.0076  0.0935
10410W        W53322  21.364  26.700  15.755  0.1125 -0.0554  0.1363
10411W        W53323  24.270  25.134  16.025 -0.0234  0.0657  0.1506
10412W        W53324  22.292  28.212  17.396 -0.1054  0.0065  0.2855
10413W        W53325  23.414  27.772  19.701 -0.3024 -0.0034  0.1201
10414W        W53326  24.062  28.260  19.413 -0.2825  0.0143  0.0513
10415W        W53327  22.793  24.628  17.455 -0.0836 -0.0580  0.0885
10416W        W53328  24.946  28.098  17.024  0.1340  0.1730  0.2973
10417W        W53329  24.720  26.839  16.897  0.2328  0.3655  0.5019
10418W        W53330  23.375  28.860  16.224  0.4319 -0.1658  0.1691
10419W        W53331  25.432  27.335  17.941  0.1117  0.1935 -0.0494
10420W        W53332  23.658  29.735  17.689 -0.0900  0.1099 -0.0038
10421W        W53333  21.308  26.778  18.068  0.2167  0.0992 -0.2146
10422W        W53334  24.259  27.789  18.438 -0.1321  0.0194  0.1295
10423W        W53335  27.436  28.459  17.925 -0.0719  0.3020 -0.3028
10424W        W53336  24.384  25.657  17.861 -0.0967 -0.0811  0.2547
10425W        W53337  22.594  26.649  18.199 -0.2267  0.0796  0.1148
10426W        W53338  23.000  27.705  16.710 -0.0873 -0.0570  0.1816
10427W        W53339  25.049  27.122  17.699 -0.1518  0.0404  0.1461
10428W        W53340  24.414  26.469  18.859 -0.3430  0.1726  0.1218
10429W        W53341  23.955  29.525  15.694  0.0339 -0.3345 -0.2001
10430W        W53342  25.572  25.943  20.744 -0.0312  0.0290 -0.1573
10431W        W53343  24.401  28.670  19.139  0.1173  0.0171  0.0129
10432W        W53344  23.078  28.000  20.116  0.0735 -0.3137  0.1329
10433W        W53345  22.539  26.611  17.535  0.0093 -0.0081  0.0378
10434W        W53346  24.922  28.157  19.945  0.3445 -0.0621 -0.0755
10435W        W53347  23.859  27.354  16.009  0.1085 -0.0308 -0.0442
10436W        W53348  24.915  27.401  15.971 -0.1420 -0.1992  0.0559
10437W        W53349  25.506  28.371  18.728  0.2459  0.0809 -0.1372
10438W        W53350  24.546  27.064  17.831 -0.2007 -0.0158 -0.1104
10439W        W53351  26.094  28.157  16.590 -0.1712  0.0195 -0.1952
10440W        W53352  23.416  25.353  17.199  0.2785  0.0525 -0.1817
10441W        W53353  25.077  25.263  17.561  0.0686 -0.0937  0.0296
10442W        W53354  25.044  24.770  16.165 -0.1878 -0.1626  0.2248
10443W        W53355  22.965  26.968  19.879 -0.1575  0.0620  0.3661
10444W        W53356  19.869  26.034  16.262  0.2239  0.1209  0.0458
10445W        W53357  22.578  28.916  15.763 -0.1566  0.0190  0.2730
10446W        W53358  21.973  27.664  16.613 -0.0022  0.1129  0.1247
10447W        W53359  23.700  26.093  21.653  0.0320  0.0819 -0.2817
10448W        W53360  22.495  26.797  19.705  0.3022 -0.4464  0.0730
10449W        W53361  22.063  28.325  18.501 -0.0917 -0.2013  0.3632
10450W        W53362  22.526  25.930  17.255  0.0706  0.1208 -0.1559
10451W        W53363  23.287  28.575  17.569  0.2198  0.1907 -0.0591
10452W        W53364  22.986  25.917  17.777 -0.0085 -0.1126 -0.0657
10453W        W53365  22.173  26.867  18.488  0.2079 -0.0864  0.0125
10454W        W53366  23.892  28.427  16.376 -0.0225 -0.2957  0.2028
10455W        W53367  24.584  28.303  17.307 -0.0115 -0.0273  0.1585
10456W        W53368  23.934  24.397  17.275 -0.4151 -0.0317 -0.0025
10457W        W53369  24.420  28.913  18.547  0.0044  0.2478 -0.1188
10458W        W53370  22.808  26.572  15.404 -0.0491  0.0026 -0.2354
10459W        W53371  24.290  26.727  19.268  0.1369  0.1796 -0.1802
10460W        W53372  24.531  25.933  20.902  0.3814  0.1744 -0.0185
10461W        W53373  23.332  25.084  16.311  0.2763  0.0872 -0.0500
10462W        W53374  23.717  27.533  18.306  0.0016  0.0668  0.0195
10463W        W53375  23.483  28.333  15.992 -0.2279 -0.1087 -0.0611
10464W        W53376  24.881  29.167  16.802 -0.1965  0.0537 -0.4380
10465W        W53377  23.037  26.881  17.586  0.0752  0.2162  0.2976
10466W        W53378  22.691  28.790  18.472 -0.5734 -0.3609 -0.0949
10467W        W53379  21.402  26.775  18.533 -0.1640  0.2468  0.0586
10468W        W53380  24.186  27.598  16.267  0.1055 -0.0894 -0.1059
10469W        W53381  22.856  28.459  17.917 -0.1040 -0.1953  0.0813
10470W        W53382  25.781  25.949  17.779  0.2961 -0.0672 -0.2067
10471W        W53383  25.486  25.395  17.435 -0.1717  0.2258  0.0911
10472W        W53384  25.435  26.192  17.398  0.0239  0.2658  0.2303
10473W        W53385  23.418  25.741  19.841 -0.0796 -0.3608  0.0129
10474W        W53386  23.202  27.936  18.804 -0.1100  0.0889  0.1660
10475W        W53387  25.738  27.268  18.598  0.0349  0.0792 -0.0483
10476W        W53388  23.211  25.774  17.004 -0.1750 -0.0088 -0.1101
10477W        W53389  24.180  26.243  16.653 -0.2165 -0.0564  0.2720
10478W        W53390  24.695  28.165  16.406  0.3314 -0.2076 -0.1917
10479W        W53391  22.367  27.420  17.428  0.2719 -0.2329  0.1155
10480W        W53392  23.590  26.040  17.365  0.1823  0.2366  0.1401
10481W        W53393  25.296  27.358  18.415 -0.0855  0.2643 -0.1769
10482W        W53394  24.503  27.720  18.897  0.0204  0.1056  0.1369
10483W        W53395  24.877  28.474  20.888 -0.0801 -0.0439  0.1477
10484W        W53396  23.348  26.849  15.535  0.1695 -0.0860  0.1489
10485W        W53397  24.454  28.047  17.734  0.0001  0.1746 -0.0170
10486W        W53398  23.591  29.005  19.313  0.1738 -0.3819  0.0286
10487W        W53399  23.578  28.901  17.224 -0.2136  0.1287 -0.0569
10488W        W53400  22.747  29.086  19.317  0.1648  0.0317  0.1687
10489W        W53401  23.502  28.375  18.019 -0.3491 -0.4588  0.2944
10490W        W53402  21.746  26.924  17.293 -0.0422  0.1833  0.0374
10491W        W53403  23.362  28.052  17.604  0.1108 -0.2513 -0.4991
10492W        W53404  24.178  26.792  16.931 -0.0768  0.1206  0.0202
10493W        W53405  26.480  27.456  18.006 -0.3760 -0.4716  0.0159
10494W        W53406  22.494  27.564  18.033 -0.3820 -0.0833 -0.0580
10495W        W53407  25.418  25.495  16.716  0.2796  0.0684  0.2161
10496W        W53408  23.255  30.192  17.399  0.2299  0.0390 -0.3947
10497W        W53409  23.916  26.368  17.141  0.1278  0.0692  0.0393
10498W        W53410  22.454  28.801  22.642 -0.2468  0.1648  0.0820
10499W        W53411  22.334  26.419  20.065 -0.5072 -0.1068 -0.1104
10500W        W53412  24.722  26.841  19.603 -0.1049 -0.1580  0.4405
10501W        W53413  26.652  27.985  21.332 -0.0906 -0.0336  0.0240
10502W        W53414  21.496  27.132  21.984  0.2714  0.1528 -0.2349
10503W        W53415  25.504  29.210  19.811  0.4385  0.0251 -0.0771
10504W        W53416  21.998  24.433  23.351  0.0158 -0.1027  0.0251
10505W        W53417  24.568  27.444  22.578  0.1368 -0.0693 -0.2457
10506W        W53418  24.444  29.370  22.946  0.0957  0.1780  0.2666
10507W        W53419  23.841  27.247  20.155  0.0306  0.2315 -0.2146
10508W        W53420  22.392  28.476  22.103  0.2752  0.0906 -0.0522
10509W        W53421  22.179  29.128  24.483 -0.0706  0.1240 -0.0081
10510W        W53422  22.445  25.937  20.898 -0.0711  0.1662  0.1622
10511W        W53423  22.097  25.016  22.659  0.4178  0.1360 -0.1981
10512W        W53424  25.025  27.162  22.470  0.0919 -0.1958 -0.3241
10513W        W53425  22.124  28.080  21.972 -0.0317  0.0923  0.0730
10514W        W53426  21.970  27.141  22.391 -0.0535 -0.1793  0.2004
10515W        W53427  23.063  26.754  21.126 -0.2043 -0.1119 -0.2621
10516W        W53428  23.526  28.777  21.076 -0.1333  0.2785 -0.1494
10517W        W53429  23.396  26.594  22.223 -0.3394  0.0603  0.0352
10518W        W53430  23.473  25.930  24.024 -0.2743 -0.0346 -0.1262
10519W        W53431  23.678  27.764  20.249  0.0941  0.0550  0.2176
10520W        W53432  22.817  27.450  18.852  0.0776 -0.0753  0.0573
10521W        W53433  21.525  27.285  20.514  0.2022  0.0844  0.0210
10522W        W53434  23.409  27.880  22.213  0.1338 -0.2460  0.3787
10523W        W53435  23.064  26.415  22.579  0.0776 -0.3388  0.1981
10524W        W53436  26.505  27.314  22.454  0.0794 -0.4836  0.1932
10525W        W53437  24.453  28.784  20.993  0.0711 -0.2165  0.1642
10526W        W53438  24.406  28.741  21.450  0.0309  0.1261  0.1864
10527W        W53439  24.305  27.074  24.020  0.0385 -0.0852 -0.3409
10528W        W53440  21.649  27.086  19.965  0.1642  0.4614  0.2341
10529W        W53441  21.727  29.162  22.646 -0.2018 -0.0716 -0.1740
10530W        W53442  22.525  28.703  20.711  0.0935  0.2548  0.0198
10531W        W53443  25.205  28.754  20.542 -0.0731  0.1316  0.1056
10532W        W53444  25.426  28.704  23.695  0.0004 -0.2071  0.2064
10533W        W53445  24.527  29.244  22.457 -0.0263  0.2357  0.2846
10534W        W53446  22.080  27.346  19.854 -0.2779  0.0765 -0.0388
10535W        W53447  25.197  30.409  23.045  0.1776 -0.0866  0.6239
10536W        W53448  24.114  27.633  22.352  0.2255  0.3142  0.0533
10537W        W53449  24.226  27.315  21.966 -0.2546  0.0515 -0.0659
10538W        W53450  24.551  28.210  21.170 -0.0451 -0.0162 -0.1570
10539W        W53451  22.501  29.543  19.451 -0.1991  0.0883  0.3013
10540W        W53452  24.212  28.254  21.588 -0.0955 -0.0183 -0.3202
10541W        W53453  23.043  29.606  22.578 -0.0467  0.2082 -0.0231
10542W        W53454  22.210  27.601  21.136 -0.0607 -0.0455  0.1951
10543W        W53455  24.789  26.298  24.382 -0.1586  0.1458  0.2070
10544W        W53456  22.575  28.884  20.264 -0.0768  0.1176  0.0549
10545W        W53457  23.993  27.947  20.551 -0.1285  0.0489  0.3797
10546W        W53458  22.893  27.994  18.281  0.1480  0.0754 -0.0758
10547W        W53459  25.028  26.278  20.552  0.3097 -0.0195  0.0666
10548W        W53460  22.238  25.048  22.167  0.2270  0.1355 -0.0360
10549W        W53461  23.555  28.101  21.587 -0.0333 -0.1430 -0.1124
10550W        W53462  21.794  25.300  22.222 -0.3584  0.1773 -0.0162
10551W        W53463  25.664  27.665  22.039  0.0468 -0.2932  0.2742
10552W        W53464  24.114  26.523  20.229  0.0731  0.2462  0.0345
10553W        W53465  23.717  26.548  21.713 -0.2279  0.0358  0.2424
10554W        W53466  24.540  28.485  21.917 -0.1371  0.2751  0.0901
10555W        W53467  21.261  27.049  21.552 -0.1097 -0.2660  0.1984
10556W        W53468  26.460  27.720  19.702 -0.2109 -0.3152 -0.4417
10557W        W53469  24.777  29.618  21.570  0.1767  0.2038  0.0061
10558W        W53470  24.781  29.217  18.295 -0.0047  0.2801  0.1776
10559W        W53471  21.782  26.517  20.022 -0.1231 -0.3499  0.0436
10560W        W53472  23.054  28.996  22.464 -0.2668  0.1275 -0.1860
10561W        W53473  23.379  28.200  21.073  0.1070  0.0087  0.0326
10562W        W53474  23.575  26.583  20.337 -0.3247 -0.1359 -0.2745
10563W        W53475  25.525  27.989  23.803  0.0581  0.0560 -0.1458
10564W        W53476  20.779  28.795  23.820  0.0954 -0.3201 -0.1060
10565W        W53477  24.978  26.204  21.831  0.0009  0.2181 -0.0940
10566W        W53478  23.565  26.186  22.832 -0.0135 -0.2416  0.2172
10567W        W53479  24.159  28.984  22.879  0.1314 -0.0630  0.3184
10568W        W53480  25.069  28.091  19.450 -0.1124  0.0502 -0.0964
10569W        W53481  25.437  25.665  21.137  0.1402  0.0758  0.1773
10570W        W53482  24.118  26.519  22.119 -0.0303 -0.1842  0.1686
10571W        W53483  23.391  27.431  20.535  0.0959 -0.1406 -0.3646
10572W        W53484  24.076  27.053  19.759  0.2166  0.2628 -0.1286
10573W        W53485  25.065  28.090  23.038  0.1548 -0.1837 -0.4504
10574W        W53486  24.813  27.659  20.377 -0.1566  0.1615 -0.2807
10575W        W53487  22.388  28.462  23.053  0.0486  0.1765  0.1106
10576W        W53488  23.440  27.121  24.003 -0.1150 -0.1587  0.4486
10577W        W53489  23.769  28.566  22.639 -0.1460 -0.0161 -0.2197
10578W        W53490  21.598  30.201  20.416 -0.0287  0.0280  0.1223
10579W        W53491  22.417  27.427  21.557  0.0710 -0.1303  0.1980
10580W        W53492  21.388  27.769  20.604 -0.1552  0.3568 -0.2517
10581W        W53493  21.855  25.733  23.540 -0.1829 -0.2849  0.3174
10582W        W53494  22.888  27.694  23.594  0.1775 -0.0179 -0.0847
10583W        W53495  25.941  25.482  21.300 -0.0110 -0.1226 -0.0478
10584W        W53496  21.344  25.919  22.284 -0.2549 -0.2295 -0.0246
10585W        W53497  24.479  26.961  21.003  0.0333 -0.0713  0.1896
10586W        W53498  22.978  27.081  20.370  0.0801 -0.2220 -0.1121
10587W        W53499  24.753  28.131  22.278  0.1817 -0.1195  0.1439
10588W        W53500  25.196  27.371  20.261 -0.1811  0.2689 -0.1232
10589W        W53501  25.560  28.869  20.248  0.1030 -0.2451  0.0132
10590W        W53502  20.304  27.079  22.052  0.0090 -0.1500  0.0285
10591W        W53503  23.619  24.929  22.723 -0.0880  0.2210  0.2239
10592W        W53504  22.598  26.495  22.650 -0.0187  0.1769  0.0720
10593W        W53505  22.358  25.556  21.814  0.1276 -0.0245 -0.2194
10594W        W53506  23.319  27.575  22.582  0.0451 -0.1697 -0.1144
10595W        W53507  22.366  25.964  19.837 -0.0912  0.1342  0.1124
10596W        W53508  24.453  27.132  21.500 -0.0485  0.2710  0.1144
10597W        W53509  22.776  26.481  21.602 -0.0694  0.2266 -0.2246
10598W        W53510  21.787  28.282  21.522  0.0044  0.1006 -0.1207
10599W        W53511  25.329  26.582  24.526  0.1501 -0.3200  0.0382
10600W        W53512  24.167  28.971  20.265  0.0708 -0.0461  0.4542
10601W        W53513  24.935  29.411  22.958 -0.2312  0.0779  0.0121
10602W        W53514  24.727  30.602  19.576 -0.2110 -0.1494  0.1057
10603W        W53515  22.447  27.412  22.154 -0.3194  0.0816 -0.1914
10604W        W53516  22.246  26.388  19.505  0.0140 -0.0347 -0.1480
10605W        W53517  23.548  28.503  21.952  0.4923 -0.0846  0.1210
10606W        W53518  24.292  28.071  22.092 -0.1829 -0.0361 -0.1717
10607W        W53519  21.597  26.353  21.309  0.0542 -0.1329  0.3712
10608W        W53520  23.587  29.237  21.400  0.0982  0.1419 -0.0495
10609W        W53521  23.015  27.857  20.850  0.1963 -0.2243 -0.0852
10610W        W53522  22.290  26.558  22.096  0.0909  0.2540  0.3125
10611W        W53523  23.606  25.532  23.789  0.3554 -0.0444  0.0163
10612W        W53524  26.237  27.962  22.907 -0.3263  0.1123  0.0276
10613W        W53525  25.126  29.198  20.333 -0.1789  0.0428  0.4433
10614W        W53526  23.265  26.998  20.760 -0.0938 -0.0850  0.0098
10615W        W53527  24.212  29.292  20.741  0.0468  0.2219 -0.1250
10616W        W53528  21.947  29.842  20.409 -0.1863  0.1442  0.0418
10617W        W53529  22.628  28.109  21.838  0.0644 -0.0823 -0.0938
10618W        W53530  23.360  28.646  20.664  0.0424 -0.0456  0.0948
10619W        W53531  24.020  26.798  21.203 -0.1097  0.0273  0.0675
10620W        W53532  23.512  27.741  23.100 -0.2042 -0.1572 -0.3640
10621W        W53533  23.801  28.088  22.060 -0.2441  0.0786  0.3841
10622W        W53534  22.712  25.795  21.625  0.1250 -0.0901  0.2484
10623W        W53535  23.128  28.154  21.883  0.0971  0.0474  0.1140
10624W        W53536  23.355  25.248  22.325 -0.0092  0.0249 -0.0365
10625W        W53537  25.343  27.139  21.588 -0.0542  0.1151 -0.1904
10626W        W53538  24.728  28.398  22.706  0.2746 -0.2312  0.3061
10627W        W53539  24.901  27.105  21.336 -0.3299 -0.0117  0.0228
10628W        W53540  24.799  26.311  21.091 -0.2734 -0.0949 -0.1515
10629W        W53541  25.190  26.266  17.863 -0.1181  0.1755  0.0878
10630W        W53542  22.124  29.419  22.545  0.1869  0.1384  0.0844
10631W        W53543  23.873  28.385  20.287 -0.2198  0.0020 -0.1887
10632W        W53544  24.579  26.597  23.589  0.1718 -0.0801  0.3192
10633W        W53545  23.168  27.289  19.533 -0.0558  0.1128 -0.1109
10634W        W53546  24.738  28.978  18.966 -0.0369 -0.1719 -0.1739
10635W        W53547  20.698  27.750  22.378  0.0270  0.0913 -0.3835
10636W        W53548  24.841  26.712  24.643  0.3911  0.3463 -0.0073
10637W        W53549  24.010  28.940  22.389 -0.3209 -0.0118 -0.1192
10638W        W53550  23.204  25.868  23.546 -0.2048 -0.0955  0.0594
10639W        W53551  22.930  27.375  20.806 -0.1076 -0.0712 -0.1622
10640W        W53552  24.686  24.447  22.644  0.0673 -0.2311 -0.1716
10641W        W53553  21.387  28.416  19.074  0.0919  0.2504  0.4040
10642W        W53554  25.429  26.941  22.785  0.0503  0.1937 -0.0599
10643W        W53555  24.099  25.527  21.810 -0.0422 -0.6905 -0.2561
10644W        W53556  23.372  26.074  22.254 -0.1108 -0.0217  0.3560
10645W        W53557  25.851  27.872  24.151  0.1182 -0.0190  0.1022
10646W        W53558  24.586  27.486  21.157 -0.0231  0.1413 -0.1332
10647W        W53559  23.732  27.926  22.575  0.2545 -0.0292 -0.1668
10648W        W53560  22.866  27.565  20.297  0.0997  0.1561  0.2407
10649W        W53561  23.466  26.736  22.768  0.0627 -0.2143 -0.2377
10650W        W53562  22.563  27.867  22.784 -0.3035 -0.1359  0.2305
10651W        W53563  21.280  29.168  22.157  0.0858  0.0165 -0.0513
10652W        W53564  26.317  28.214  23.380 -0.1213  0.2392  0.1110
10653W        W53565  22.036  27.863  21.516 -0.1622 -0.0832 -0.1042
10654W        W53566  22.715  26.097  23.621 -0.0656  0.0447  0.0844
10655W        W53567  24.199  26.932  20.550  0.1410 -0.1263  0.1597
10656W        W53568  22.293  29.109  20.628 -0.0456  0.0605  0.3883
10657W        W53569  24.457  29.218  19.316  0.3828 -0.3463 -0.0282
10658W        W53570  22.191  26.144  22.961 -0.1305  0.1995  0.3847
10659W        W53571  23.990  28.767  20.729  0.0705  0.0826  0.2221
10660W        W53572  24.336  27.497  19.731 -0.0016 -0.1416  0.1274
10661W        W53573  23.896  27.266  24.342 -0.1189 -0.0228  0.1004
10662W        W53574  22.936  28.432  21.120  0.2177 -0.3004 -0.1260
10663W        W53575  25.356  26.299  21.112  0.2277  0.1832 -0.0553
10664W        W53576  22.635  29.090  21.636  0.0016  0.1568 -0.1995
10665W        W53577  23.075  27.212  21.350  0.2009 -0.1704  0.0594
10666W        W53578  22.271  28.701  21.144 -0.3446  0.1118  0.0522
10667W        W53579  23.751  25.476  20.520 -0.0231 -0.2285  0.0978
10668W        W53580  25.443  28.495  19.261 -0.1772  0.1098 -0.0497
10669W        W53581  21.937  26.212  22.258 -0.2575 -0.4258  0.1000
10670W        W53582  23.113  25.618  23.043  0.1205 -0.0635  0.1371
10671W        W53583  23.169  26.851  21.699  0.1949  0.0056 -0.2525
10672W        W53584  23.321  28.786  22.916  0.1235 -0.0474 -0.0032
10673W        W53585  24.125  26.375  21.579 -0.3295 -0.1916  0.1317
10674W        W53586  25.306  27.565  23.380  0.0180  0.0065  0.0540
10675W        W53587  23.205  28.119  23.471  0.3175  0.2161 -0.0704
10676W        W53588  22.458  27.543  19.552  0.0471 -0.1499  0.0991
10677W        W53589  23.993  27.584  22.889 -0.1732 -0.0257  0.0940
10678W        W53590  22.470  26.015  22.427 -0.1398 -0.2143  0.1204
10679W        W53591  21.995  27.549  21.935 -0.1641  0.2203 -0.0629
10680W        W53592  25.153  27.375  21.997 -0.0847 -0.1710 -0.1952
10681W        W53593  23.142  28.149  19.236  0.1099  0.3820 -0.0365
10682W        W53594  22.192  28.160  21.141 -0.3514 -0.0789 -0.1623
10683W        W53595  22.308  26.029  21.820  0.0964  0.0035  0.0853
10684W        W53596  23.668  29.121  22.779  0.1829  0.1053 -0.0633
10685W        W53597  23.600  25.606  21.862  0.0461 -0.0757 -0.0227
10686W        W53598  23.234  26.314  21.855  0.1757 -0.1818 -0.0091
10687W        W53599  25.435  27.647  21.599  0.2904  0.2191 -0.2432
10688W        W53600  23.443  28.281  23.039  0.2591  0.1329 -0.0189
10689W        W53601  22.814  26.561  22.156 -0.1858 -0.0378 -0.0676
10690W        W53602  22.470  27.916  23.876 -0.2493 -0.2624 -0.1292
10691W        W53603  24.035  25.262  23.798 -0.1969  0.2669 -0.1578
10692W        W53604  25.800  30.620  18.956 -0.1347 -0.0648 -0.0238
10693W        W53605  24.198  27.152  22.666  0.2329 -0.3409  0.1610
10694W        W53606  22.142  26.939  20.152 -0.0654 -0.0822  0.0077
10695W        W53607  22.009  26.449  20.493 -0.1600 -0.0971 -0.2105
10696W        W53608  23.182  28.810  19.372 -0.0771  0.0471 -0.2377
10697W        W53609  24.381  26.958  22.237 -0.1991  0.1128 -0.2916
10698W        W53610  22.993  27.578  22.060  0.0714 -0.0891 -0.1288
10699W        W53611  23.329  28.423  20.176  0.1874  0.3082 -0.1200
10700W        W53612  22.988  28.004  22.514 -0.0004  0.0969 -0.0034
10701W        W53613  25.567  26.530  20.718 -0.3281 -0.0815 -0.0772
10702W        W53614  22.425  27.665  20.694 -0.1650  0.1691 -0.0591
10703W        W53615  24.847  27.557  21.607  0.2077  0.0774  0.2163
10704W        W53616  25.402  25.415  23.075 -0.0395  0.3317 -0.0812
10705W        W53617  25.480  28.204  21.530 -0.1289 -0.0601 -0.0871
10706W        W53618  25.451  27.069  23.288  0.0264  0.2410  0.1104
10707W        W53619  20.825  25.779  21.335  0.1581 -0.0634  0.2510
10708W        W53620  22.623  28.105  20.851 -0.0241  0.1842  0.1008
10709W        W53621  22.321  27.253  22.809  0.3825  0.0579 -0.4084
10710W        W53622  24.012  28.073  23.037 -0.0442 -0.2038 -0.1535
10711W        W53623  22.369  28.929  23.263 -0.0817  0.0542 -0.1365
10712W        W53624  23.985  26.029  23.099  0.1372 -0.0227  0.1792
10713W        W53625  22.703  25.329  21.539 -0.3924 -0.1088 -0.2622
10714W        W53626  23.575  28.876  22.268 -0.1004  0.0513 -0.0330
10715W        W53627  24.843  27.664  22.923 -0.1914  0.0256 -0.0203
10716W        W53628  22.878  27.719  19.289  0.0059  0.0853 -0.4593
10717W        W53629  25.034  26.686  22.743  0.1419 -0.0158  0.0401
10718W        W53630  21.646  27.971  22.996  0.0481  0.0639  0.0768
10719W        W53631  23.761  27.671  21.354  0.3541  0.2794  0.3574
10720W        W53632  22.962  28.375  20.593 -0.2959  0.0802  0.3499
10721W        W53633  22.533  27.201  21.085  0.0697 -0.2598 -0.1921
10722W        W53634  22.845  27.065  22.055  0.0578  0.1626  0.1622
10723W        W53635  24.667  29.574  23.375 -0.2533  0.0912  0.2312
10724W        W53636  24.482  27.488  23.162 -0.1030  0.0554  0.0297
10725W        W53637  24.271  26.935  23.073 -0.0766  0.0129 -0.1018
10726W        W53638  24.545  26.513  21.881  0.0216  0.0536 -0.1251
10727W        W53639  22.169  26.615  23.995  0.0747  0.2806 -0.0139
10728W        W53640  21.775  26.226  23.291  0.1253  0.2655 -0.0259
10729W        W53641  26.159  29.318  22.888  0.3203  0.1348  0.4050
10730W        W53642  24.491  30.349  19.255 -0.0817 -0.0275 -0.1670
10731W        W53643  24.939  26.641  22.185 -0.3858 -0.2338 -0.2025
10732W        W53644  25.812  28.481  21.759  0.0057  0.1211 -0.1818
10733W        W53645  23.288  27.354  20.042 -0.0335 -0.0261 -0.0813
10734W        W53646  22.090  26.529  21.560 -0.0585  0.3124 -0.2819
10735W        W53647  24.463  26.554  24.078  0.0117 -0.1516 -0.1113
10736W        W53648  22.562  27.306  19.999  0.0428  0.2161  0.1180
10737W        W53649  23.668  26.326  23.307  0.2997  0.2804  0.2433
10738W        W53650  23.895  27.779  19.749  0.1239 -0.1148 -0.0349
10739W        W53651  24.662  27.601  22.115 -0.1573  0.1135  0.1711
10740W        W53652  24.549  28.617  19.728 -0.0578  0.2111 -0.2610
10741W        W53653  21.332  25.656  20.387  0.1323  0.1488  0.0843
10742W        W53654  24.427  29.705  22.607  0.1028 -0.2817  0.0739
10743W        W53655  22.419  26.190  21.356  0.1489  0.0306  0.0887
10744W        W53656  24.392  28.452  20.200 -0.0562  0.1327  0.2406
10745W        W53657  23.873  27.650  21.854  0.0774 -0.0069 -0.3929
10746W        W53658  25.863  26.811  25.386  0.0746  0.3994  0.0168
10747W        W53659  24.329  26.374  21.003 -0.3869 -0.1838  0.0419
10748W        W53660  25.134  27.075  24.264 -0.2072 -0.1506 -0.2124
10749W        W53661  22.300  28.408  21.554  0.1724  0.1788  0.1481
10750W        W53662  24.779  27.085  22.920  0.0729 -0.1203 -0.0181
10751W        W53663  23.653  27.807  20.850  0.0175  0.3230 -0.0971
10752W        W53664  21.729  28.446  21.998 -0.0929 -0.0384 -0.1115
10753W        W53665  22.611  29.170  21.102  0.0532 -0.1074  0.1425
10754W        W53666  22.133  25.733  24.267 -0.1750  0.0755 -0.0053
10755W        W53667  24.970  26.256  23.347  0.0860 -0.0911 -0.1587
10756W        W53668  24.193  28.992  23.860  0.0994 -0.1373  0.0103
10757W        W53669  25.490  27.393  22.422  0.0950  0.1229  0.1996
10758W        W53670  25.172  27.297  23.805  0.0913  0.2741  0.0130
10759W        W53671  23.419  27.593  21.769 -0.0804  0.1573 -0.1683
10760W        W53672  23.412  29.357  22.345 -0.1462  0.2302  0.2045
10761W        W53673  25.411  29.015  22.057 -0.1789 -0.0700  0.3029
10762W        W53674  24.090  26.861  21.797  0.0325 -0.3763 -0.0830
10763W        W53675  20.431  25.933  24.145  0.0254 -0.2167  0.2441
10764W        W53676  23.386  27.413  23.556 -0.1703  0.1440  0.1742
10765W        W53677  24.215  27.771  21.524 -0.0392 -0.0640 -0.1070
10766W        W53678  22.634  26.761  20.246  0.0100 -0.0237  0.0375
10767W        W53679  24.727  28.757  20.351 -0.0082 -0.1009 -0.0703
10768W        W53680  22.939  28.377  22.895  0.2053  0.3104  0.2355
10769W        W53681  21.471  27.587  22.142  0.2941  0.0003 -0.1589
10770W        W53682  21.888  28.742  21.450 -0.0064 -0.1340 -0.1668
10771W        W53683  24.840  29.119  19.636  0.1559  0.1216  0.2720
10772W        W53684  23.474  27.400  21.072  0.0290 -0.4880  0.1814
10773W        W53685  24.904  29.194  22.106 -0.1242  0.2267  0.1084
10774W        W53686  23.155  26.424  20.654  0.0432 -0.1064  0.0771
10775W        W53687  21.200  27.948  22.384 -0.4068 -0.0319  0.1919
10776W        W53688  20.983  29.034  21.630  0.1179  0.4449 -0.0827
10777W        W53689  25.580  27.842  21.172 -0.1770  0.0649 -0.0971
10778W        W53690  22.752  27.661  21.250  0.1689  0.0052  0.0064
10779W        W53691  24.513  28.001  23.129 -0.2429 -0.0868  0.2152
10780W        W53692  24.873  27.474  19.859 -0.2469 -0.0237 -0.2359
10781W        W53693  24.499  27.447  20.659 -0.1077  0.1278 -0.0317
10782W        W53694  25.355  27.660  20.648 -0.0038 -0.5097 -0.1299
10783W        W53695  25.063  28.435  23.978 -0.1591  0.0154  0.2245
10784W        W53696  23.308  27.097  22.225  0.0669 -0.0903  0.3258
10785W        W53697  23.193  26.061  20.204  0.0562  0.0089  0.1028
10786W        W53698  23.902  29.410  23.134 -0.1296  0.0024  0.0462
10787W        W53699  25.349  26.267  23.674 -0.1428 -0.3065 -0.1297
10788W        W53700  21.125  28.092  22.904  0.0913  0.1452  0.3819
10789W        W53701  26.008  28.875  20.448 -0.0979 -0.0764  0.1638
10790W        W53702  23.211  25.892  21.564 -0.0427  0.0196 -0.2769
10791W        W53703  23.905  27.189  21.475 -0.2114  0.2886  0.2340
10792W        W53704  24.909  25.670  23.573 -0.1779 -0.0798 -0.1328
10793W        W53705  25.567  28.874  18.884 -0.2128 -0.0278  0.1053
10794W        W53706  24.414  26.129  22.273  0.0167  0.0185 -0.0518
10795W        W53707  20.900  28.755  21.203 -0.3762  0.1221  0.1881
10796W        W53708  23.760  28.627  21.511 -0.1527  0.1708  0.0503
10797W        W53709  23.696  29.645  21.700 -0.0041 -0.0450 -0.2313
10798W        W53710  20.237  27.414  21.028 -0.3094  0.2806 -0.1434
10799W        W53711  26.114  26.771  22.025  0.1944  0.0395 -0.0700
10800W        W53712  21.107  27.614  22.781  0.1600  0.0079  0.0016
10801W        W53713  25.258  27.409  22.904  0.3247  0.0888  0.2176
10802W        W53714  23.288  28.415  22.556  0.2987 -0.1620 -0.0456
10803W        W53715  24.083  27.370  21.031  0.1283  0.0820 -0.1019
10804W        W53716  24.050  27.313  23.345 -0.1074  0.2796 -0.1578
10805W        W53717  22.960  26.933  22.617  0.1330 -0.2395 -0.2931
10806W        W53718  24.152  27.223  19.306 -0.3522  0.1639 -0.0396
10807W        W53719  24.913  27.266  23.375 -0.0195 -0.0984  0.1177
10808W        W53720  23.729  27.014  20.635 -0.1515 -0.1973 -0.1373
10809W        W53721  24.937  29.753  23.776  0.1952 -0.0076 -0.0518
10810W        W53722  22.198  24.169  22.404  0.3053 -0.0841  0.0720
10811W        W53723  23.902  26.411  20.708  0.2699 -0.1354  0.1279
10812W        W53724  22.547  26.721  21.192 -0.0915  0.1908 -0.1447
10813W        W53725  22.565  28.316  22.538 -0.0053 -0.4592  0.1392
10814W        W53726  24.865  29.581  22.511  0.1564  0.2852 -0.2153
10815W        W53727  23.170  25.343  21.423  0.1136 -0.0199  0.0181
10816W        W53728  23.987  29.850  18.569  0.0539  0.1654 -0.1349
10817W        W53729  25.787  27.233  21.776  0.1422  0.1121 -0.0445
10818W        W53730  23.258  29.865  19.688  0.0861  0.3644 -0.2448
10819W        W53731  24.764  27.055  21.873 -0.1157  0.0058  0.2955
10820W        W53732  25.386  29.772  20.261 -0.4873  0.0084 -0.2878
10821W        W53733  21.541  26.993  22.524 -0.1723  0.0283  0.1249
10822W        W53734  23.553  30.160  21.915 -0.0660  0.1049 -0.0975
10823W        W53735  24.439  27.932  22.649 -0.0079  0.0872  0.0773
10824W        W53736  23.808  26.904  22.451 -0.0327 -0.0273 -0.0872
10825W        W53737  22.855  26.033  22.055 -0.0706  0.1033  0.1542
10826W        W53738  22.683  27.979  20.370  0.0957 -0.0556  0.2481
10827W        W53739  23.782  26.320  21.213 -0.0857  0.1481 -0.0612
10828W        W53740  25.534  26.701  23.663 -0.0220  0.4242  0.1059
10829W        W53741  23.279  29.434  18.017  0.1117 -0.2851 -0.2914
10830W        W53742  23.610  26.501  23.803 -0.0456  0.0947 -0.1790
10831W        W53743  25.031  28.866  23.168  0.1404  0.2133  0.1895
10832W        W53744  22.679  29.440  23.857 -0.0534  0.2214  0.0911
10833W        W53745  22.165  27.345  18.610  0.0833 -0.0066 -0.0919
10834W        W53746  24.284  28.563  23.427 -0.4245 -0.1371 -0.0043
10835W        W53747  22.914  29.349  22.133 -0.1646  0.2468  0.1365
10836W        W53748  22.265  29.198  19.977  0.2552  0.3937  0.1488
10837W        W53749  25.238  29.814  22.931  0.0642 -0.0780  0.0079
10838W        W53750  23.232  29.144  20.469  0.0026 -0.0816 -0.1672
10839W        W53751  24.324  29.336  21.660  0.2082  0.3008  0.0871
10840W        W53752  23.058  26.657  23.007  0.1402 -0.2187 -0.2417
10841W        W53753  25.400  26.051  21.565 -0.2829  0.0954  0.0857
10842W        W53754  23.487  26.941  21.287 -0.1053 -0.1978  0.3772
10843W        W53755  22.765  28.439  23.460  0.1596  0.0343  0.1232
10844W        W53756  21.847  28.449  18.957  0.1401 -0.1507 -0.0340
10845W        W53757  23.389  28.130  20.548 -0.2058 -0.1012  0.2359
10846W        W53758  23.216  27.821  21.340  0.0191  0.1431  0.0288
10847W        W53759  24.937  24.961  24.809  0.0002  0.4305  0.5846
10848W        W53760  21.769  26.794  23.028 -0.0648 -0.0477 -0.1566
10849W        W53761  22.026  26.475  21.039  0.0537  0.0871  0.1023
10850W        W53762  22.724  25.755  20.126  0.1552 -0.3835  0.2092
10851W        W53763  25.029  28.649  22.302 -0.1522  0.6265  0.4330
10852W        W53764  21.239  26.046  23.180  0.2073  0.1811 -0.0122
10853W        W53765  22.099  25.226  21.486 -0.2602 -0.2768 -0.0172
10854W        W53766  24.065  28.003  21.134 -0.0830 -0.0675 -0.0141
10855W        W53767  23.639  27.085  21.841  0.3511  0.0043 -0.1519
10856W        W53768  22.869  26.274  21.052  0.0298 -0.3957 -0.0499
10857W        W53769  26.011  28.557  23.082  0.0476  0.1850  0.2117
10858W        W53770  22.249  26.819  20.772  0.0328 -0.1345 -0.1814
10859W        W53771  24.516  26.743  22.623  0.1092  0.0377 -0.3053
10860W        W53772  22.077  24.961  23.589  0.0297  0.0498 -0.2440
10861W        W53773  21.691  26.570  19.457 -0.1527  0.1086 -0.0947
10862W        W53774  24.027  26.074  22.601  0.1993  0.0475  0.0395
10863W        W53775  24.889  28.874  21.265  0.1472  0.2485 -0.0583
10864W        W53776  24.177  28.884  18.083  0.1842  0.1527  0.1161
10865W        W53777  24.252  28.475  22.955 -0.0611 -0.0024  0.2441
10866W        W53778  24.633  29.153  24.282 -0.0919  0.0308  0.1719
10867W        W53779  21.845  24.659  22.330 -0.2086 -0.0035 -0.0507
10868W        W53780  25.603  28.036  23.269  0.1215 -0.1949  0.1673
10869W        W53781  23.239  28.835  24.300 -0.1319 -0.0725  0.2066
10870W        W53782  24.337  29.607  19.003  0.1669  0.1766  0.0905
10871W        W53783  25.548  27.842  22.767 -0.2201  0.1138 -0.0465
10872W        W53784  24.536  26.644  21.409  0.0863 -0.2654 -0.0356
10873W        W53785  21.732  26.203  21.772 -0.0446 -0.0872 -0.2287
10874W        W53786  22.974  27.121  23.716  0.0603  0.1173 -0.1563
10875W        W53787  25.887  27.481  21.339  0.1760  0.0730  0.1439
10876W        W53788  21.817  25.719  21.984  0.1024  0.2485  0.1315
10877W        W53789  23.470  26.604  20.955  0.1356  0.0233  0.2719
10878W        W53790  23.785  28.315  20.797 -0.4303 -0.3867  0.1284
10879W        W53791  22.073  27.031  21.787  0.1242  0.0182  0.0505
10880W        W53792  23.492  26.968  19.827  0.1504 -0.1342 -0.1048
10881W        W53793  22.801  27.410  22.508 -0.1353  0.2862 -0.1564
10882W        W53794  23.684  27.407  22.260  0.0290  0.0363 -0.4122
10883W        W53795  25.757  27.200  25.111  0.1340 -0.3050 -0.0004
10884W        W53796  23.136  28.457  19.673  0.0766  0.2926  0.3376
10885W        W53797  24.910  28.424  21.550  0.0196 -0.1995  0.1958
10886W        W53798  23.309  30.054  22.861 -0.2613  0.2959  0.2345
10887W        W53799  26.076  28.785  22.594  0.0749 -0.1673 -0.1909
10888W        W53800  24.047  29.399  22.599 -0.0564 -0.3424  0.2692
10889W        W53801  25.264  27.439  21.197  0.0748  0.1054  0.0245
10890W        W53802  22.321  24.865  23.129  0.0244 -0.1274  0.0565
10891W        W53803  22.148  26.924  21.301 -0.0269  0.1493 -0.0255
10892W        W53804  22.439  26.349  20.668  0.1245 -0.0480  0.1046
10893W        W53805  24.688  27.971  21.744 -0.0563 -0.0943  0.1805
10894W        W53806  21.985  25.723  21.511 -0.0920 -0.1869 -0.1205
10895W        W53807  23.581  26.377  19.381  0.0179  0.0249  0.1382
10896W        W53808  24.437  28.961  21.985  0.0506 -0.0441  0.1705
10897W        W53809  25.068  26.656  21.512 -0.2641  0.0121  0.1445
10898W        W53810  22.600  29.023  26.279 -0.1177 -0.2837  0.0294
10899W        W53811  23.869  27.264  23.795 -0.2836  0.1539 -0.1173
10900W        W53812  25.019  26.395  25.037 -0.0327 -0.2034 -0.2421
10901W        W53813  25.545  26.427  24.906  0.1872 -0.1056  0.0723
10902W        W53814  21.677  26.907  24.828 -0.0202 -0.0786 -0.3102
10903W        W53815  24.805  27.814  23.460 -0.1435 -0.2503  0.1079
10904W        W53816  22.903  23.440  26.939  0.1306  0.0377  0.3576
10905W        W53817  25.698  27.325  28.091  0.1093  0.0156  0.0776
10906W        W53818  25.882  28.583  25.531  0.3293  0.2036  0.0164
10907W        W53819  24.920  27.543  24.314 -0.1792  0.0053 -0.1052
10908W        W53820  22.084  26.585  26.203 -0.0568 -0.0575 -0.0724
10909W        W53821  23.353  29.801  26.182 -0.0628  0.0014  0.0818
10910W        W53822  24.754  26.191  23.859 -0.0771 -0.0845 -0.2043
10911W        W53823  23.066  26.329  26.034 -0.0760  0.1573 -0.3181
10912W        W53824  25.476  28.148  28.017  0.1050 -0.0915 -0.0766
10913W        W53825  23.373  27.868  24.930  0.0297  0.3127  0.0471
10914W        W53826  24.296  27.279  26.035 -0.0126  0.1149 -0.1248
10915W        W53827  23.537  26.925  24.538  0.0373 -0.0450  0.1020
10916W        W53828  24.282  30.185  25.238  0.1461 -0.0438 -0.0785
10917W        W53829  24.541  24.824  27.619 -0.0426 -0.2858  0.1336
10918W        W53830  24.149  25.853  26.704  0.2133 -0.2275  0.1402
10919W        W53831  24.378  27.001  24.533  0.1158  0.2056  0.0269
10920W        W53832  22.194  27.246  23.276 -0.2292 -0.0849  0.0835
10921W        W53833  22.184  27.279  26.139  0.4663  0.1181  0.0714
10922W        W53834  22.504  27.224  24.553 -0.1564 -0.0366  0.3213
10923W        W53835  24.069  25.783  26.108 -0.1579  0.0367 -0.0069
10924W        W53836  25.640  27.012  24.599 -0.1690 -0.0011  0.0905
10925W        W53837  23.185  28.292  25.151 -0.2908 -0.1064  0.2970
10926W        W53838  25.011  28.081  25.117 -0.4479 -0.2278 -0.0359
10927W        W53839  25.429  26.482  28.578 -0.0237 -0.1338 -0.2392
10928W        W53840  22.847  28.350  25.523 -0.1075 -0.2275 -0.1939
10929W        W53841  21.487  29.578  25.886  0.5219  0.0215  0.0141
10930W        W53842  23.746  29.231  24.093  0.1605 -0.0749 -0.2841
10931W        W53843  25.226  28.510  24.440 -0.2954  0.0730  0.4131
10932W        W53844  25.560  29.247  26.575  0.2970  0.0958  0.2070
10933W        W53845  24.037  29.029  27.411  0.1458  0.0660  0.2748
10934W        W53846  23.774  28.270  23.421  0.0220 -0.0344  0.0357
10935W        W53847  24.404  29.036  28.559 -0.2713  0.1943 -0.3215
10936W        W53848  21.426  28.865  26.476 -0.0128  0.3082 -0.2258
10937W        W53849  23.233  29.389  25.167 -0.0379 -0.2008  0.0433
10938W        W53850  24.302  27.016  25.486 -0.2277 -0.1996  0.0718
10939W        W53851  22.866  27.396  24.113 -0.1589 -0.1957  0.1998
10940W        W53852  25.581  28.999  24.455  0.0670  0.0554  0.1898
10941W        W53853  23.027  29.848  26.896 -0.1758  0.1322  0.0634
10942W        W53854  22.935  28.820  25.186 -0.1078 -0.2217 -0.1699
10943W        W53855  24.962  27.116  27.576 -0.0196 -0.2584  0.1774
10944W        W53856  22.811  28.884  23.680  0.1869 -0.0053  0.0092
10945W        W53857  25.273  26.872  25.016 -0.0170 -0.0673 -0.0154
10946W        W53858  22.577  26.725  23.513 -0.2761  0.0730  0.0188
10947W        W53859  26.457  25.534  25.270 -0.0061  0.0182  0.0514
10948W        W53860  21.994  26.088  26.502  0.0524  0.0328  0.0109
10949W        W53861  23.011  27.355  24.723  0.4326  0.1327  0.2875
10950W        W53862  23.109  26.848  26.407 -0.1395 -0.0891  0.0358
10951W        W53863  24.380  29.012  26.444  0.2589  0.0323 -0.2046
10952W        W53864  24.898  27.605  25.229 -0.0069 -0.0497  0.2370
10953W        W53865  22.643  27.596  27.103 -0.0727  0.0406 -0.3150
10954W        W53866  22.248  29.687  25.249  0.0646  0.0706 -0.0945
10955W        W53867  24.012  27.069  24.914 -0.3280 -0.2441  0.0970
10956W        W53868  23.109  26.872  24.818 -0.0833  0.1518 -0.0807
10957W        W53869  25.304  27.326  25.386  0.2059 -0.3178  0.1493
10958W        W53870  24.743  28.890  22.760  0.1954  0.1244 -0.0031
10959W        W53871  22.322  26.785  22.980 -0.0038 -0.2542  0.3221
10960W        W53872  23.527  26.811  26.115  0.0194  0.1278 -0.0531
10961W        W53873  22.440  27.782  26.164  0.1551  0.0902  0.4756
10962W        W53874  23.199  25.088  22.940 -0.0170  0.0492  0.2472
10963W        W53875  25.796  27.768  28.281  0.1321 -0.0223  0.0355
10964W        W53876  20.806  27.933  28.517 -0.1530 -0.0504 -0.2025
10965W        W53877  27.119  25.769  25.880 -0.0936  0.0689 -0.2074
10966W        W53878  23.378  27.519  25.297 -0.0535  0.3278 -0.0717
10967W        W53879  25.760  28.349  26.267  0.0469 -0.1754 -0.2721
10968W        W53880  25.225  26.937  25.848  0.1319 -0.0368 -0.0363
10969W        W53881  25.034  26.654  26.283 -0.4083 -0.2330  0.0316
10970W        W53882  24.337  26.552  25.594  0.1660 -0.0375  0.2877
10971W        W53883  23.755  27.765  23.524 -0.0417  0.1139 -0.1283
10972W        W53884  23.619  28.533  25.319  0.1302  0.3008  0.5574
10973W        W53885  25.775  28.987  27.436 -0.3836 -0.3534  0.0772
10974W        W53886  26.435  27.458  23.845 -0.3080 -0.2851 -0.1561
10975W        W53887  21.667  28.023  26.503 -0.0316 -0.4081  0.1799
10976W        W53888  23.348  27.179  27.563  0.0994 -0.3197  0.1019
10977W        W53889  23.927  29.185  28.362  0.1032 -0.3060 -0.1096
10978W        W53890  22.842  28.814  23.088 -0.0516 -0.1197 -0.1585
10979W        W53891  20.749  27.273  25.101  0.0236  0.0153  0.0816
10980W        W53892  22.034  27.637  23.842  0.0134 -0.2895  0.0955
10981W        W53893  21.208  26.043  25.373 -0.1504  0.0169 -0.2661
10982W        W53894  23.697  29.628  26.538 -0.2360 -0.1309 -0.0806
10983W        W53895  25.412  26.633  25.441  0.1009 -0.2106 -0.2973
10984W        W53896  21.364  26.854  26.803 -0.2432 -0.0833  0.1885
10985W        W53897  25.143  26.042  24.687  0.2554 -0.0254  0.1088
10986W        W53898  22.952  28.085  24.039  0.2692 -0.0576  0.5309
10987W        W53899  26.735  28.986  25.790  0.2032  0.3623  0.0223
10988W        W53900  26.734  26.365  25.373 -0.2078  0.1859 -0.0304
10989W        W53901  24.480  27.723  24.728  0.0643  0.0428 -0.0470
10990W        W53902  22.724  27.333  26.192  0.0919  0.0677 -0.2366
10991W        W53903  22.716  26.412  24.988  0.0195 -0.0748 -0.3827
10992W        W53904  23.477  27.145  26.865  0.0326  0.0100 -0.1024
10993W        W53905  22.534  27.054  25.772  0.1360  0.1292  0.2103
10994W        W53906  26.097  26.867  28.130 -0.2488  0.2254  0.1586
10995W        W53907  21.219  25.802  24.307 -0.3132 -0.2103 -0.1317
10996W        W53908  24.895  25.917  25.989 -0.0588  0.0105  0.1192
10997W        W53909  23.013  28.665  24.715  0.1409  0.2151  0.1181
10998W        W53910  20.013  27.079  24.361 -0.2173 -0.2248  0.0577
10999W        W53911  24.557  26.367  27.287 -0.0943  0.2006  0.1002
11000W        W53912  24.508  28.819  24.762  0.1865  0.1781 -0.3525
11001W        W53913  25.507  28.541  25.878  0.0702 -0.4969  0.3208
11002W        W53914  23.988  29.408  24.572 -0.1468 -0.0731  0.0076
11003W        W53915  22.402  26.264  25.355 -0.1047 -0.2375 -0.1982
11004W        W53916  22.019  26.719  23.513  0.5038  0.0784  0.0498
11005W        W53917  22.685  29.424  25.255  0.4919  0.3567  0.0350
11006W        W53918  24.117  28.618  25.104  0.3472  0.0201 -0.2141
11007W        W53919  25.138  26.635  23.977  0.3330  0.0886  0.2907
11008W        W53920  26.015  29.462  26.781 -0.1903 -0.0607 -0.0501
11009W        W53921  24.444  27.418  25.201  0.0096 -0.1354 -0.4162
11010W        W53922  23.286  27.258  26.142 -0.2199 -0.1878  0.5916
11011W        W53923  25.297  25.943  26.364 -0.1174 -0.1853 -0.0438
11012W        W53924  25.576  29.421  27.140  0.1809  0.1215  0.1052
11013W        W53925  24.198  27.994  24.406  0.0940 -0.2896 -0.2541
11014W        W53926  23.348  26.815  23.488  0.0520  0.3797  0.1409
11015W        W53927  24.286  28.621  25.618  0.0614  0.1529 -0.0762
11016W        W53928  23.659  27.194  22.856 -0.0060  0.3033  0.1355
11017W        W53929  22.332  27.481  24.201 -0.4608 -0.2209  0.0718
11018W        W53930  22.901  30.887  24.874  0.0351  0.3608 -0.4681
11019W        W53931  24.488  25.079  26.887  0.0243 -0.0171  0.1314
11020W        W53932  22.636  28.191  26.889  0.2376 -0.0829  0.1926
11021W        W53933  25.296  25.850  27.967  0.2203 -0.0213 -0.3362
11022W        W53934  23.468  26.454  24.288  0.1211  0.2275  0.2076
11023W        W53935  22.084  28.149  27.406 -0.0259  0.1696  0.1826
11024W        W53936  23.563  25.018  25.142  0.0821  0.2611  0.2617
11025W        W53937  26.562  26.891  24.486 -0.2299  0.1176  0.1281
11026W        W53938  23.730  28.069  26.482 -0.1094  0.1591  0.1306
11027W        W53939  26.291  26.512  24.478  0.0474  0.1135  0.3203
11028W        W53940  24.835  26.621  25.556 -0.2425 -0.1341  0.0018
11029W        W53941  23.752  26.824  23.206  0.2382  0.1830 -0.1731
11030W        W53942  22.988  29.181  27.532 -0.0430 -0.0756 -0.1620
11031W        W53943  25.288  27.799  26.303  0.0683 -0.0679 -0.2157
11032W        W53944  24.054  27.591  24.938 -0.1544  0.0404 -0.1836
11033W        W53945  24.307  25.444  26.430 -0.0189  0.3111 -0.0358
11034W        W53946  26.056  29.368  26.255  0.1342 -0.1870  0.1059
11035W        W53947  22.147  27.597  24.662 -0.3386  0.2187 -0.0159
11036W        W53948  22.931  28.538  26.152  0.0052  0.3288 -0.1435
11037W        W53949  25.405  29.100  24.946  0.2426 -0.0772  0.0660
11038W        W53950  22.781  25.440  24.673 -0.0978  0.0612 -0.0837
11039W        W53951  22.156  25.404  23.363  0.0621 -0.0092  0.2200
11040W        W53952  23.587  26.808  25.017 -0.1664  0.1590 -0.0044
11041W        W53953  21.253  29.243  24.726 -0.1829 -0.2989  0.3625
11042W        W53954  23.091  26.246  26.529 -0.0667 -0.0453 -0.0465
11043W        W53955  23.478  27.596  26.484  0.0829  0.0024 -0.2045
11044W        W53956  22.077  26.304  25.748  0.3998  0.2680  0.0570
11045W        W53957  25.023  27.489  26.670 -0.0311 -0.1026 -0.2072
11046W        W53958  24.121  26.537  25.106  0.0497  0.1696 -0.0073
11047W        W53959  23.771  28.950  24.779 -0.1102  0.1998 -0.0387
11048W        W53960  21.347  26.322  24.321 -0.1076  0.1970  0.0393
11049W        W53961  23.455  27.066  25.667 -0.2233  0.0968  0.1919
11050W        W53962  22.916  27.826  25.461  0.2581 -0.1720  0.2349
11051W        W53963  23.407  29.009  25.522 -0.0638  0.1673  0.2550
11052W        W53964  24.370  27.498  28.625 -0.1085  0.4358  0.0664
11053W        W53965  23.757  27.802  24.555  0.0898 -0.0699 -0.1660
11054W        W53966  23.938  27.308  26.920  0.4459  0.0529 -0.1179
11055W        W53967  23.624  24.302  26.483  0.2001 -0.2940  0.0245
11056W        W53968  23.000  29.742  23.557  0.2084 -0.1078 -0.0952
11057W        W53969  23.789  28.668  23.151 -0.2510  0.4457  0.1715
11058W        W53970  22.557  26.543  25.753 -0.0010  0.0151  0.0992
11059W        W53971  23.885  29.028  26.508 -0.0026 -0.2547  0.0290
11060W        W53972  24.072  28.548  22.039  0.1984  0.1047  0.0988
11061W        W53973  23.790  27.802  25.313  0.2676  0.2814  0.1669
11062W        W53974  23.147  29.328  24.100  0.0297  0.2188  0.1418
11063W        W53975  25.464  26.420  26.314  0.0777 -0.0113 -0.1715
11064W        W53976  22.522  27.566  25.447  0.2188 -0.3632  0.1201
11065W        W53977  23.115  26.360  23.503  0.0758  0.2188 -0.1710
11066W        W53978  21.951  28.079  24.063 -0.3364 -0.0343 -0.2282
11067W        W53979  24.030  25.328  25.970  0.2089 -0.0075 -0.0351
11068W        W53980  24.693  27.479  23.883  0.0642  0.0768  0.0211
11069W        W53981  23.667  25.183  27.114  0.1555 -0.0952  0.0447
11070W        W53982  22.901  26.273  25.494  0.1368  0.1090 -0.2664
11071W        W53983  21.344  29.887  26.225 -0.0514 -0.1830 -0.2486
11072W        W53984  25.302  27.607  27.208 -0.1539 -0.0142  0.0892
11073W        W53985  24.965  25.446  24.515  0.3369 -0.3205 -0.1309
11074W        W53986  24.754  28.018  27.229 -0.0223 -0.0377 -0.2423
11075W        W53987  23.430  27.609  25.826 -0.0332 -0.1359  0.0983
11076W        W53988  21.644  27.310  24.026  0.1769 -0.0170  0.2289
11077W        W53989  25.460  27.253  26.884 -0.1880  0.2433 -0.1807
11078W        W53990  23.115  26.665  23.938 -0.2537  0.2078 -0.2124
11079W        W53991  22.701  28.390  24.996  0.2333  0.2795 -0.0423
11080W        W53992  23.881  26.874  26.960 -0.1464  0.2703 -0.2569
11081W        W53993  22.515  27.380  23.672  0.0661  0.1029  0.3011
11082W        W53994  23.585  27.362  24.854 -0.0073 -0.3153  0.0167
11083W        W53995  21.973  26.929  27.429 -0.4347  0.1154  0.0509
11084W        W53996  24.067  28.214  26.004  0.0551 -0.0487 -0.0772
11085W        W53997  22.889  27.373  26.668  0.1121  0.3484  0.0312
11086W        W53998  22.439  26.689  24.488 -0.3663 -0.1914  0.0023
11087W        W53999  25.552  28.023  25.874 -0.1845  0.1303 -0.0173
11088W        W54000  24.595  28.145  26.772 -0.0032  0.1089 -0.0212
11089W        W54001  22.568  26.899  24.887  0.1055  0.1023 -0.2277
11090W        W54002  22.835  28.657  27.365 -0.0240 -0.3616 -0.0104
11091W        W54003  22.230  27.267  25.175 -0.1398 -0.0036 -0.2175
11092W        W54004  24.237  27.950  23.547  0.2776  0.2786  0.1625
11093W        W54005  24.421  27.678  27.413 -0.0037  0.0465  0.0240
11094W        W54006  24.671  28.275  23.656 -0.0221 -0.0636  0.1176
11095W        W54007  21.465  26.574  25.238 -0.2227 -0.0107  0.2490
11096W        W54008  22.120  27.758  22.939 -0.2081  0.1234 -0.1085
11097W        W54009  23.460  26.014  26.083  0.0539  0.2242  0.4313
11098W        W54010  23.029  29.244  26.124  0.0913 -0.1221  0.2332
11099W        W54011  22.628  27.514  23.155  0.3449  0.1468  0.3026
11100W        W54012  21.639  27.654  26.870 -0.3921 -0.0787 -0.0582
11101W        W54013  25.764  26.295  24.478  0.2039  0.0431 -0.1488
11102W        W54014  24.353  27.750  26.076 -0.0874 -0.0197  0.0497
11103W        W54015  23.990  26.540  22.785 -0.0208 -0.1474 -0.0240
11104W        W54016  25.988  26.987  27.475  0.4390  0.2833 -0.1080
11105W        W54017  24.758  27.428  26.205 -0.2003  0.0859  0.0281
11106W        W54018  25.908  26.059  27.687 -0.0111 -0.2946 -0.0459
11107W        W54019  22.902  25.006  26.765  0.0809  0.0069 -0.2139
11108W        W54020  24.877  28.809  25.595  0.0427  0.1122  0.0509
11109W        W54021  22.814  28.842  25.785 -0.1063  0.0611 -0.1178
11110W        W54022  23.968  28.406  29.007 -0.4678  0.1810 -0.0048
11111W        W54023  22.617  26.943  28.048 -0.2417 -0.0571 -0.0030
11112W        W54024  23.853  26.770  24.151 -0.2869  0.0252  0.1277
11113W        W54025  21.671  25.308  23.399  0.0095 -0.2346 -0.1423
11114W        W54026  24.495  27.904  25.256  0.0268 -0.5046 -0.2411
11115W        W54027  24.528  28.204  25.846 -0.0462  0.2064  0.0221
11116W        W54028  23.313  28.967  23.782 -0.1880 -0.0154 -0.1284
11117W        W54029  26.487  25.680  26.072 -0.0255 -0.2399 -0.0059
11118W        W54030  20.670  27.413  26.929  0.0373 -0.1347  0.1770
11119W        W54031  23.842  27.750  26.078  0.3393  0.2919  0.2538
11120W        W54032  23.516  27.674  23.963 -0.0233 -0.0980 -0.0759
11121W        W54033  23.013  26.826  25.951 -0.1575  0.2073  0.2384
11122W        W54034  22.886  27.127  27.119  0.0197  0.1566 -0.3629
11123W        W54035  25.205  27.110  26.389 -0.2482 -0.2336 -0.0057
11124W        W54036  22.753  25.783  25.283  0.1544  0.1206 -0.1433
11125W        W54037  23.719  25.494  26.356 -0.4353  0.0507  0.0304
11126W        W54038  24.318  27.039  26.594  0.3760 -0.3294 -0.2010
11127W        W54039  21.738  27.098  26.049  0.0147 -0.1177 -0.3671
11128W        W54040  22.452  26.827  27.037 -0.2246 -0.0952  0.1539
11129W        W54041  23.295  28.247  26.568  0.0023 -0.1014 -0.1255
11130W        W54042  26.020  27.219  23.250 -0.1256  0.2994  0.2721
11131W        W54043  24.549  26.134  26.834 -0.0689 -0.2023  0.0291
11132W        W54044  25.723  27.032  25.853  0.0849 -0.0361 -0.2408
11133W        W54045  24.928  27.910  25.716  0.1460 -0.1286  0.3450
11134W        W54046  22.872  26.470  24.471 -0.2433 -0.1939  0.2018
11135W        W54047  24.964  27.363  28.367 -0.1310  0.2751 -0.0219
11136W        W54048  22.894  26.006  24.780 -0.2022  0.0973  0.1768
11137W        W54049  23.705  28.159  26.983  0.2641  0.0109  0.0534
11138W        W54050  23.918  29.871  23.958 -0.0284 -0.2140  0.1073
11139W        W54051  25.733  29.031  25.721 -0.0896 -0.2317  0.0243
11140W        W54052  23.960  26.730  25.848 -0.0617 -0.0741  0.0682
11141W        W54053  22.567  26.983  24.069  0.0419  0.3951 -0.0682
11142W        W54054  23.680  29.445  25.500  0.1323  0.2331 -0.2186
11143W        W54055  21.018  26.716  23.213 -0.1017 -0.0107 -0.2418
11144W        W54056  22.827  27.047  23.155 -0.1715 -0.1694 -0.1913
11145W        W54057  23.870  28.995  25.265 -0.2827 -0.1973  0.1277
11146W        W54058  23.475  28.404  28.010  0.0995 -0.0587 -0.2110
11147W        W54059  24.131  26.760  23.691 -0.0873  0.0633 -0.0234
11148W        W54060  26.481  27.078  27.622 -0.2146 -0.0317  0.2358
11149W        W54061  23.319  28.613  23.380  0.2385  0.0767  0.0235
11150W        W54062  24.830  24.157  26.620 -0.3799 -0.4659 -0.1080
11151W        W54063  23.648  30.239  25.133  0.1573  0.0353 -0.1817
11152W        W54064  22.283  27.328  26.702 -0.0681 -0.2279 -0.0695
11153W        W54065  23.230  28.553  25.694  0.1553 -0.4562  0.1116
11154W        W54066  24.529  25.920  26.340  0.0180 -0.1524 -0.0823
11155W        W54067  24.733  27.353  25.679 -0.3327  0.2868  0.0071
11156W        W54068  24.149  27.640  25.660 -0.1732 -0.0485  0.0269
11157W        W54069  25.812  27.521  27.102 -0.1263 -0.3210 -0.0249
11158W        W54070  22.822  26.612  26.761  0.1348 -0.2542  0.1658
11159W        W54071  22.578  26.995  26.523 -0.0022  0.0887  0.0748
11160W        W54072  24.222  28.170  27.499 -0.0076 -0.0035  0.1981
11161W        W54073  26.264  26.555  25.255 -0.1354 -0.0474  0.0912
11162W        W54074  23.510  28.478  24.725 -0.2281 -0.1260  0.0293
11163W        W54075  22.450  25.629  27.332  0.1976 -0.2141 -0.0833
11164W        W54076  22.314  27.736  27.575  0.1040 -0.0454  0.2360
11165W        W54077  24.524  27.623  26.620  0.1525 -0.0074  0.0145
11166W        W54078  23.126  26.133  23.048  0.0015  0.1576  0.1009
11167W        W54079  24.143  28.291  22.487  0.0753  0.0389 -0.1702
11168W        W54080  22.763  28.070  25.901  0.0541 -0.0175  0.0940
11169W        W54081  21.755  25.951  25.624 -0.0107 -0.2741 -0.3500
11170W        W54082  22.543  29.375  24.716  0.1727 -0.0901  0.1708
11171W        W54083  25.074  29.095  24.580 -0.0171 -0.3549 -0.0156
11172W        W54084  24.927  27.032  25.313  0.1994 -0.1254 -0.2489
11173W        W54085  24.661  28.680  26.759 -0.3462  0.0870 -0.3083
11174W        W54086  22.675  26.314  23.175  0.1339 -0.0084 -0.1664
11175W        W54087  22.461  29.902  24.765 -0.2070  0.0563 -0.0563
11176W        W54088  22.510  28.424  23.927 -0.1716  0.0601  0.3322
11177W        W54089  25.083  27.795  23.907 -0.0411 -0.0830 -0.1935
11178W        W54090  22.266  29.188  25.178  0.0494  0.0327 -0.2157
11179W        W54091  23.304  28.466  27.494 -0.2389  0.0855 -0.0830
11180W        W54092  23.720  26.455  24.698 -0.1551  0.0453  0.4367
11181W        W54093  25.630  27.353  26.248 -0.0618 -0.2060  0.0209
11182W        W54094  27.080  25.935  24.558 -0.0674 -0.3281 -0.0051
11183W        W54095  23.691  28.088  27.590  0.0891  0.1497 -0.0708
11184W        W54096  24.348  27.479  24.276 -0.0065  0.0734  0.1358
11185W        W54097  22.007  26.668  22.580 -0.3108  0.0834 -0.0861
11186W        W54098  22.113  28.935  26.112  0.1366  0.1073 -0.1321
11187W        W54099  25.721  25.267  28.996  0.0195 -0.5239  0.2426
11188W        W54100  19.941  28.104  25.998  0.0953 -0.0461 -0.0874
11189W        W54101  25.893  27.869  25.342  0.0393 -0.3835 -0.0951
11190W        W54102  22.630  25.821  24.368  0.1130 -0.1983 -0.0835
11191W        W54103  24.749  27.006  23.974 -0.0976  0.0914 -0.1749
11192W        W54104  24.810  24.905  27.229 -0.0513 -0.2014  0.3372
11193W        W54105  23.489  28.240  24.186 -0.3155 -0.0381 -0.0316
11194W        W54106  23.576  26.400  25.824  0.0745  0.0479 -0.0743
11195W        W54107  23.981  27.942  23.992  0.1708 -0.3470  0.0924
11196W        W54108  23.500  29.264  24.521 -0.0777 -0.2360 -0.2479
11197W        W54109  24.077  29.254  26.111 -0.1032  0.0213 -0.0154
11198W        W54110  22.033  26.037  24.843  0.0083  0.0829 -0.1470
11199W        W54111  24.665  26.938  25.925  0.5062  0.1464  0.3031
11200W        W54112  22.146  27.752  25.131  0.2055  0.1636  0.2328
11201W        W54113  25.786  26.483  27.452 -0.3875  0.1202  0.1956
11202W        W54114  22.824  28.232  24.531 -0.2095  0.0144 -0.1388
11203W        W54115  24.900  26.483  26.886 -0.3619  0.1629  0.3863
11204W        W54116  22.785  28.102  26.395 -0.0581  0.0185  0.0982
11205W        W54117  21.448  27.533  26.281  0.0003 -0.2148 -0.1234
11206W        W54118  22.560  27.995  23.258  0.1489 -0.1454  0.0236
11207W        W54119  25.857  28.280  27.626 -0.0015 -0.3643  0.2363
11208W        W54120  24.453  27.988  24.003 -0.0336  0.1547 -0.2692
11209W        W54121  24.805  27.502  27.132 -0.2660  0.2236  0.2191
11210W        W54122  21.884  26.305  25.321 -0.0367 -0.0099  0.1351
11211W        W54123  24.524  26.941  25.000  0.3721 -0.1740 -0.0107
11212W        W54124  21.734  27.522  24.930 -0.0333 -0.2828 -0.1530
11213W        W54125  22.830  26.769  25.423 -0.4718 -0.1417  0.0569
11214W        W54126  24.521  28.402  27.975 -0.0550 -0.1100 -0.1072
11215W        W54127  22.476  25.545  26.177  0.3196 -0.5222  0.0454
11216W        W54128  25.232  28.543  22.827  0.0618  0.0915  0.2596
11217W        W54129  25.195  27.972  26.853  0.2987 -0.2370  0.2056
11218W        W54130  24.054  29.012  23.399 -0.0563  0.0738 -0.3070
11219W        W54131  25.568  27.707  24.993 -0.0897  0.2784 -0.0125
11220W        W54132  25.417  28.781  25.407  0.0989  0.4252 -0.1107
11221W        W54133  22.332  26.787  25.356 -0.0650 -0.1990 -0.0868
11222W        W54134  24.508  28.436  26.349  0.0808 -0.2952 -0.0572
11223W        W54135  25.049  28.443  26.970  0.2975  0.2146 -0.0280
11224W        W54136  23.813  26.019  25.292 -0.0351 -0.1001  0.0772
11225W        W54137  22.564  27.501  24.914 -0.1019 -0.0622 -0.0572
11226W        W54138  21.910  28.204  25.268  0.0728  0.3468 -0.1844
11227W        W54139  23.738  25.601  26.872  0.0422  0.0053  0.0728
11228W        W54140  23.830  27.008  26.453  0.0018 -0.1310 -0.0561
11229W        W54141  24.410  28.702  22.414 -0.1259  0.1511  0.2126
11230W        W54142  26.066  24.318  27.581  0.1542 -0.2269 -0.1890
11231W        W54143  23.835  28.515  27.274  0.2986  0.1991 -0.1521
11232W        W54144  22.368  29.213  26.651  0.1619  0.0949  0.1406
11233W        W54145  21.604  27.244  24.513  0.0170  0.1843 -0.0442
11234W        W54146  24.073  28.202  25.456 -0.0230 -0.2421  0.1230
11235W        W54147  24.154  29.847  24.373 -0.2067 -0.0725  0.0220
11236W        W54148  24.196  28.967  24.420  0.0874  0.0000 -0.2031
11237W        W54149  24.716  27.278  24.740 -0.0278 -0.1395 -0.0266
11238W        W54150  23.260  26.607  25.536  0.0155 -0.0593 -0.1741
11239W        W54151  25.345  27.810  25.457 -0.4076 -0.0860  0.0090
11240W        W54152  23.075  26.184  24.074 -0.2427  0.1919  0.2100
11241W        W54153  26.556  25.700  23.845  0.0229 -0.1353 -0.1796
11242W        W54154  25.907  25.747  24.390  0.2274  0.0913 -0.1249
11243W        W54155  22.119  28.122  26.851 -0.2652  0.0214 -0.0516
11244W        W54156  22.406  26.190  24.622  0.1192  0.1470 -0.0235
11245W        W54157  23.006  26.968  24.347 -0.2569 -0.1104  0.1581
11246W        W54158  24.407  29.647  25.882  0.1652 -0.2948  0.2599
11247W        W54159  23.817  27.260  25.966  0.1343 -0.0758 -0.1172
11248W        W54160  23.231  27.850  27.360 -0.3724 -0.1664 -0.0322
11249W        W54161  23.187  28.476  23.880 -0.1611 -0.2118  0.1602
11250W        W54162  23.368  26.144  24.627 -0.4592 -0.1647 -0.0366
11251W        W54163  25.535  28.286  25.315  0.0362  0.0212  0.4422
11252W        W54164  22.116  27.082  24.749 -0.1577  0.0396 -0.2418
11253W        W54165  22.343  25.293  24.488 -0.0184 -0.0789 -0.4523
11254W        W54166  25.227  27.458  25.928 -0.0015 -0.1836 -0.0216
11255W        W54167  25.688  29.061  23.976  0.1135 -0.1669 -0.0597
11256W        W54168  22.446  25.765  24.888 -0.2724  0.1826 -0.3181
11257W        W54169  26.116  26.791  28.713 -0.1091  0.1747  0.1786
11258W        W54170  21.920  27.731  23.391 -0.0912 -0.1800 -0.0968
11259W        W54171  24.329  28.501  27.169 -0.0894  0.2122  0.1588
11260W        W54172  22.738  25.955  26.704 -0.2694 -0.1650  0.0854
11261W        W54173  20.640  26.976  21.582  0.2171  0.2585 -0.2004
11262W        W54174  22.498  27.758  26.680  0.2513  0.1932 -0.1256
11263W        W54175  24.299  28.165  24.911 -0.0631  0.0562 -0.0491
11264W        W54176  25.188  28.282  23.493  0.0935 -0.2688  0.0466
11265W        W54177  24.198  28.017  26.485  0.1895 -0.1422 -0.0467
11266W        W54178  23.005  28.507  28.264 -0.3096 -0.2718  0.2488
11267W        W54179  21.722  26.181  26.097  0.1473  0.1753  0.1574
11268W        W54180  25.753  26.835  26.467  0.2593  0.0660  0.2405
11269W        W54181  24.101  27.779  27.060 -0.0623 -0.1162  0.0662
11270W        W54182  24.988  27.813  24.716  0.1352  0.3797 -0.1371
11271W        W54183  24.790  27.009  26.564  0.0067  0.1246 -0.0378
11272W        W54184  24.117  28.510  24.011  0.2337 -0.1753  0.1620
11273W        W54185  22.842  26.598  27.305 -0.0975  0.1104 -0.1069
11274W        W54186  22.301  27.306  27.317  0.2808 -0.0337 -0.1431
11275W        W54187  25.663  28.035  27.143  0.0653  0.1432  0.0296
11276W        W54188  23.376  26.027  25.553  0.5483 -0.0330  0.2714
11277W        W54189  23.861  27.240  25.396 -0.0998 -0.1252 -0.1200
11278W        W54190  25.081  28.387  25.468  0.1582 -0.1670  0.2347
11279W        W54191  22.667  26.591  26.259  0.3945  0.3491 -0.0402
11280W        W54192  24.184  26.557  24.499  0.2523  0.2721  0.0382
11281W        W54193  23.099  28.270  27.105 -0.2221  0.1088 -0.1404
11282W        W54194  24.022  27.505  26.473 -0.0465 -0.1668 -0.2188
11283W        W54195  25.249  27.140  27.965 -0.0875 -0.2076 -0.0146
11284W        W54196  23.190  27.318  22.995 -0.0036 -0.4094 -0.0860
11285W        W54197  26.112  26.163  24.797  0.1979  0.2635  0.1326
11286W        W54198  23.552  30.510  26.590 -0.0463 -0.1232  0.1446
11287W        W54199  26.319  29.127  28.695  0.1447  0.0299 -0.0850
11288W        W54200  23.845  29.010  25.736  0.2831  0.0133 -0.2811
11289W        W54201  25.968  27.332  26.654  0.1479  0.0381 -0.2005
11290W        W54202  23.208  25.383  26.917  0.1849  0.0381  0.3755
11291W        W54203  23.382  27.449  24.381 -0.0461  0.1616 -0.1626
11292W        W54204  22.998  27.907  23.076 -0.2759  0.3257  0.3086
11293W        W54205  23.804  28.166  24.938  0.0496  0.2236 -0.0203
11294W        W54206  22.822  27.241  25.214 -0.0950  0.1450 -0.2989
11295W        W54207  22.323  26.133  24.088  0.1231 -0.3799  0.0593
11296W        W54208  22.987  28.613  26.707 -0.2670 -0.2318  0.4268
11297W        W54209  23.293  28.141  26.045  0.0619  0.2588  0.0284
11298W        W54210  22.235  27.085  29.651  0.1949 -0.0851 -0.2238
11299W        W54211  22.173  26.668  27.866  0.0197 -0.0835 -0.3726
11300W        W54212  25.177  28.315  26.411 -0.1497  0.1852 -0.2787
11301W        W54213  24.691  27.469  27.800  0.1637 -0.0025  0.0310
11302W        W54214  21.008  25.648  28.757 -0.2344 -0.2826 -0.1250
11303W        W54215  24.627  30.084  28.877 -0.1051  0.2859 -0.2973
11304W        W54216  22.315  25.798  30.350 -0.1811  0.3541 -0.0504
11305W        W54217  24.558  27.906  28.070  0.1099 -0.2649  0.0329
11306W        W54218  23.959  28.784  30.645 -0.0997 -0.2265  0.3276
11307W        W54219  24.367  26.673  26.952 -0.3372 -0.0604 -0.1580
11308W        W54220  23.256  25.838  31.598 -0.1817  0.1847 -0.2251
11309W        W54221  22.675  28.580  30.050 -0.1496  0.1030 -0.1115
11310W        W54222  23.576  26.323  27.283  0.0550 -0.1436 -0.4591
11311W        W54223  20.898  26.222  30.417  0.1738 -0.2417  0.2439
11312W        W54224  24.321  27.318  29.935 -0.0045  0.0314 -0.0080
11313W        W54225  22.263  27.218  27.811  0.1285  0.1306  0.3766
11314W        W54226  23.061  26.731  30.294 -0.0954  0.1355 -0.0908
11315W        W54227  22.928  25.103  29.236  0.3475  0.0549 -0.1386
11316W        W54228  25.102  28.080  31.019 -0.1341 -0.1483 -0.0926
11317W        W54229  23.449  25.241  29.720 -0.1096  0.2447  0.0466
11318W        W54230  23.073  26.683  31.180  0.2796  0.1172  0.0999
11319W        W54231  22.805  28.084  28.276  0.2779  0.0570  0.1630
11320W        W54232  22.203  25.984  27.544 -0.1219  0.0107  0.1637
11321W        W54233  22.153  28.235  29.237  0.1503  0.2677 -0.1195
11322W        W54234  21.861  27.163  30.665 -0.1672  0.0117  0.1182
11323W        W54235  22.014  27.094  28.993 -0.1895 -0.0624 -0.1836
11324W        W54236  24.130  26.777  30.446  0.1683 -0.1556  0.1895
11325W        W54237  23.083  28.727  29.615 -0.1849 -0.1564  0.2075
11326W        W54238  24.169  28.331  30.814  0.0797  0.0353 -0.2753
11327W        W54239  25.260  27.727  30.089 -0.1540 -0.4353 -0.0272
11328W        W54240  21.660  26.332  29.950  0.1692  0.1583  0.1911
11329W        W54241  22.201  28.144  27.940 -0.1538 -0.0589 -0.0844
11330W        W54242  22.346  27.727  28.359 -0.0356 -0.0177  0.0237
11331W        W54243  25.405  27.990  28.650 -0.0532 -0.0393 -0.2413
11332W        W54244  23.916  29.086  31.881  0.1641  0.2609  0.1542
11333W        W54245  23.488  30.198  31.187 -0.3670  0.0392 -0.1098
11334W        W54246  21.927  30.092  27.084 -0.1245 -0.2090 -0.0703
11335W        W54247  23.267  29.824  30.986 -0.0200  0.3131  0.3224
11336W        W54248  21.339  27.899  30.771 -0.3850 -0.4037  0.1582
11337W        W54249  23.944  28.815  29.373  0.0776  0.0794 -0.2408
11338W        W54250  22.705  27.361  28.292  0.0441  0.2421  0.1308
11339W        W54251  22.000  27.794  28.871  0.3823 -0.1974  0.1957
11340W        W54252  22.925  27.667  30.504 -0.1307  0.0118  0.0739
11341W        W54253  22.727  27.677   0.746  0.3895  0.0458  0.0152
11342W        W54254  20.357  29.367  29.684  0.0846  0.1027 -0.0713
11343W        W54255  23.902  24.995  31.487  0.0734  0.1994  0.2491
11344W        W54256  22.669  27.982  27.407  0.0455  0.2187 -0.1041
11345W        W54257  25.313  27.643  28.001 -0.3835 -0.2548 -0.2868
11346W        W54258  24.076  26.393  26.613  0.2842  0.0062  0.0920
11347W        W54259  23.040  26.767  28.455  0.2710 -0.1525 -0.3646
11348W        W54260  23.616  25.696  28.953 -0.3068 -0.4558 -0.0442
11349W        W54261  23.412  28.347  28.820  0.1313 -0.0062  0.2357
11350W        W54262  23.734  26.346  29.539 -0.0623  0.1249 -0.0089
11351W        W54263  23.693  27.864  30.720 -0.0077 -0.0329  0.0127
11352W        W54264  22.808  27.743  28.724  0.2091 -0.1975  0.0664
11353W        W54265  22.794  26.861  30.672  0.0911 -0.1605 -0.1510
11354W        W54266  21.221  27.773  31.230 -0.3286 -0.2465  0.0939
11355W        W54267  22.474  27.391  30.639  0.2612 -0.0175 -0.4038
11356W        W54268  24.247  26.848  28.984 -0.0442  0.1711  0.1160
11357W        W54269  24.972  28.404  28.627 -0.1166  0.1527  0.1962
11358W        W54270  23.030  27.838  26.799 -0.0290  0.1938 -0.0071
11359W        W54271  22.328  26.509  27.434 -0.1615 -0.0644 -0.1819
11360W        W54272  21.872  28.136  30.698  0.0514 -0.2047 -0.3335
11361W        W54273  22.929  26.947   0.038 -0.1975  0.2391 -0.3417
11362W        W54274  23.388  25.758  27.233 -0.3776  0.0757  0.0872
11363W        W54275  25.134  26.955  30.601 -0.3041  0.0610  0.0687
11364W        W54276  21.460  28.534  30.654 -0.0267  0.4213  0.0530
11365W        W54277  26.662  26.610  30.217  0.1505 -0.0347  0.0144
11366W        W54278  21.824  27.538  28.422 -0.1837  0.1756  0.0877
11367W        W54279  25.659  27.558  31.530  0.3804 -0.1113 -0.0446
11368W        W54280  24.268  27.286  28.178 -0.0972 -0.2677  0.0169
11369W        W54281  23.784  27.111  28.816 -0.4418  0.3113  0.4556
11370W        W54282  23.973  25.057  30.033 -0.0120 -0.1406  0.2728
11371W        W54283  22.049  26.830  26.682  0.0843  0.0097  0.2963
11372W        W54284  23.661  28.493  26.308  0.0613 -0.1935  0.1044
11373W        W54285  24.517  29.581  30.834  0.2285  0.1258  0.2029
11374W        W54286  23.802  27.222  27.914 -0.0731  0.0720  0.1244
11375W        W54287  20.337  27.733  28.633  0.1626  0.0238  0.1851
11376W        W54288  22.267  26.050  31.753 -0.3569 -0.1705  0.0008
11377W        W54289  23.555  28.484  30.766 -0.4878 -0.1364 -0.2840
11378W        W54290  23.636  28.610  26.786 -0.0287  0.0133  0.1650
11379W        W54291  22.537  26.463  28.302  0.0685  0.1165  0.1610
11380W        W54292  22.508  26.930  28.745 -0.1214 -0.1879 -0.0033
11381W        W54293  22.191  25.301  30.442  0.3228 -0.0495  0.3336
11382W        W54294  21.557  28.002  30.312  0.0642  0.2839  0.2120
11383W        W54295  24.301  26.098  27.652 -0.1288 -0.1365  0.1233
11384W        W54296  22.506  26.781  31.138  0.0336 -0.1753 -0.0493
11385W        W54297  25.093  26.871  28.354 -0.1949  0.3962 -0.0694
11386W        W54298  22.944  27.192  28.746 -0.0103  0.1033  0.2561
11387W        W54299  24.362  28.604  30.379 -0.1430 -0.2100  0.2694
11388W        W54300  25.672  26.650  29.058  0.0637 -0.1055  0.3160
11389W        W54301  24.156  27.760  28.278  0.1948 -0.3048  0.2732
11390W        W54302  21.462  26.054  30.366  0.0840  0.0356  0.1358
11391W        W54303  22.424  27.408  28.795 -0.4174  0.3926  0.1647
11392W        W54304  22.814  25.870  30.689  0.1911  0.1221  0.3680
11393W        W54305  23.089  28.227  29.772 -0.0199  0.2117 -0.1381
11394W        W54306  26.753  27.193  30.981  0.0665 -0.2105 -0.4512
11395W        W54307  21.600  24.615  28.935 -0.0039  0.0421 -0.1994
11396W        W54308  22.889  25.659  28.155  0.0918  0.5713  0.0875
11397W        W54309  23.043  26.345  28.763  0.1421 -0.1807  0.0391
11398W        W54310  21.151  26.665  29.100 -0.4078 -0.0100 -0.0331
11399W        W54311  23.314  26.637  30.766 -0.2329  0.1990 -0.3540
11400W        W54312  24.239  28.758  28.172  0.0505 -0.0462 -0.0717
11401W        W54313  22.487  28.811  29.549 -0.0082  0.2648 -0.0572
11402W        W54314  25.101  28.146  29.056  0.0479 -0.0928  0.0967
11403W        W54315  22.195  26.567  31.852 -0.1142  0.3924  0.1768
11404W        W54316  22.051  26.546  28.518  0.1473  0.3218  0.2327
11405W        W54317  22.583  29.356  28.542 -0.0977  0.1189 -0.1766
11406W        W54318  20.752  27.201  29.860 -0.0749  0.2006  0.1148
11407W        W54319  24.083  26.660  27.911  0.1912 -0.1603  0.1224
11408W        W54320  26.482  27.902  30.165 -0.0375 -0.0613 -0.1792
11409W        W54321  23.562  27.840  28.047  0.2928 -0.0141  0.0669
11410W        W54322  20.018  28.207  28.823  0.0186  0.0824  0.2879
11411W        W54323  23.694  27.331  29.901 -0.0076 -0.3154 -0.0948
11412W        W54324  24.811  27.187  29.686 -0.0446  0.2533  0.0266
11413W        W54325  22.660  27.837  29.228 -0.1926  0.1844  0.0582
11414W        W54326  22.056  25.205  27.255  0.0666 -0.1037  0.0996
11415W        W54327  21.783  28.459  30.226  0.1572  0.2583  0.0190
11416W        W54328  21.588  27.744  29.204  0.0886  0.1013  0.3052
11417W        W54329  22.571  27.494  29.584 -0.1215  0.2989 -0.0230
11418W        W54330  23.253  29.388  30.233  0.0488  0.1379 -0.1055
11419W        W54331  24.259  27.052  29.447  0.0941 -0.1928  0.0403
11420W        W54332  21.885  26.650  31.001  0.3634 -0.4271 -0.1618
11421W        W54333  23.622  28.097  29.288  0.0505 -0.0655 -0.1328
11422W        W54334  21.337  24.846  27.698  0.1186 -0.1377 -0.1267
11423W        W54335  21.713  29.353  29.798 -0.0689  0.2378  0.2568
11424W        W54336  25.100  25.337  28.133  0.1359  0.2128  0.2748
11425W        W54337  24.672  26.532  28.819  0.2146 -0.1558 -0.2143
11426W        W54338  22.756  29.081  29.862  0.0171 -0.0766  0.0539
11427W        W54339  24.651  27.903  28.606  0.0961  0.2705  0.0759
11428W        W54340  25.021  27.046  27.061 -0.0128 -0.5694  0.0701
11429W        W54341  24.708  24.439  27.938  0.0137 -0.1302 -0.2029
11430W        W54342  21.968  28.653  30.693  0.0483 -0.2979  0.0907
11431W        W54343  24.859  28.833  27.777  0.4362  0.0558  0.0591
11432W        W54344  22.026  27.605  30.460 -0.1455 -0.2643  0.1829
11433W        W54345  22.815  24.429  27.969  0.0072 -0.2032  0.1432
11434W        W54346  26.050  30.293  27.862 -0.1470  0.3025 -0.2571
11435W        W54347  20.467  26.976   0.575 -0.1496  0.0485 -0.1754
11436W        W54348  23.874  27.764  30.204  0.4008  0.0363  0.0033
11437W        W54349  24.958  28.524  29.568 -0.0525 -0.0457  0.1964
11438W        W54350  23.687  24.531  31.263 -0.1815 -0.0541 -0.1975
11439W        W54351  24.020  25.223  28.085  0.3960 -0.0633  0.3395
11440W        W54352  24.318  26.004  29.023 -0.0154  0.0785  0.0567
11441W        W54353  21.311  28.640  29.152 -0.0333 -0.0312  0.0505
11442W        W54354  22.981  27.644  29.865 -0.1485  0.0220 -0.1106
11443W        W54355  23.146  25.941  29.029 -0.0814 -0.1041  0.1353
11444W        W54356  22.926  25.669   0.464  0.0068  0.1249 -0.2893
11445W        W54357  23.953  27.071  31.976  0.1087 -0.2694 -0.2687
11446W        W54358  24.550  27.003  28.573 -0.5489 -0.1240  0.5965
11447W        W54359  23.320  26.238  30.125 -0.2733 -0.0385 -0.0329
11448W        W54360  22.018  27.694  26.468 -0.2350 -0.0018  0.0708
11449W        W54361  22.484  25.484  30.821 -0.1654  0.0927  0.2237
11450W        W54362  22.062  28.050  30.172 -0.1636 -0.0741  0.1574
11451W        W54363  21.748  27.161  28.106 -0.1870 -0.4014 -0.2349
11452W        W54364  23.041  29.492  30.697  0.0153  0.0368 -0.1561
11453W        W54365  23.857  28.778  30.148  0.0712  0.2228 -0.1074
11454W        W54366  23.220  27.097  30.606 -0.1419 -0.2521  0.0448
11455W        W54367  23.683  25.413  28.387  0.0624  0.3757  0.2680
11456W        W54368  20.900  27.549  28.862  0.2497 -0.0384 -0.4218
11457W        W54369  21.869  27.191  26.973 -0.0781  0.1575 -0.0232
11458W        W54370  23.463  25.233  28.818 -0.0078  0.0483 -0.2659
11459W        W54371  22.159  27.712  29.308 -0.2595 -0.0099  0.0187
11460W        W54372  22.405  28.599  26.695  0.1456  0.1118  0.0224
11461W        W54373  23.748  28.304  30.373  0.0675  0.0697 -0.1833
11462W        W54374  21.695  26.726  29.134 -0.0472 -0.1099 -0.2304
11463W        W54375  23.854  25.857  28.509  0.1138  0.2363  0.1116
11464W        W54376  20.649  28.574  31.107 -0.1404  0.2249 -0.1333
11465W        W54377  21.972  26.144  29.056 -0.0220 -0.0506  0.2411
11466W        W54378  21.919  26.314  29.532 -0.0236 -0.1684  0.0754
11467W        W54379  23.465  26.610  28.789  0.1259  0.2440 -0.1834
11468W        W54380  22.594  26.954  27.551  0.0447 -0.1239  0.0203
11469W        W54381  22.871  26.316  30.953 -0.2144  0.2193  0.3507
11470W        W54382  22.081  25.216  28.190 -0.2196  0.0458  0.1526
11471W        W54383  20.357  29.660  28.436  0.0960  0.5066 -0.1304
11472W        W54384  23.224  27.692  30.915 -0.0048  0.3607  0.0314
11473W        W54385  25.536  26.959  28.623  0.4639 -0.0462 -0.3172
11474W        W54386  24.365  27.447   1.073  0.1231 -0.0571 -0.0207
11475W        W54387  22.404  27.708   1.149  0.2443 -0.0749  0.4081
11476W        W54388  23.664  26.740  27.666 -0.1024 -0.1246  0.0086
11477W        W54389  23.684  26.221  30.896 -0.0719  0.3153 -0.1625
11478W        W54390  23.368  27.874  30.048 -0.0585 -0.3420  0.0017
11479W        W54391  20.380  27.100  28.911 -0.0909 -0.2618 -0.1410
11480W        W54392  24.679  28.327  30.650  0.2878  0.6264 -0.3873
11481W        W54393  21.710  26.688  28.112 -0.2212 -0.0733 -0.0676
11482W        W54394  22.222  28.439  29.842 -0.1197 -0.0595 -0.2736
11483W        W54395  21.787  25.686  31.415 -0.3261  0.0665  0.0478
11484W        W54396  24.620  26.761  30.794  0.2219  0.1089 -0.3278
11485W        W54397  23.510  26.174  31.852 -0.2962  0.0657 -0.1486
11486W        W54398  22.464  25.787  28.926 -0.1010 -0.5084  0.1964
11487W        W54399  21.871  26.827  31.467  0.0237 -0.1639 -0.0679
11488W        W54400  24.197  27.940  29.771 -0.1399 -0.0191  0.0598
11489W        W54401  24.456  25.016  30.748 -0.0979 -0.2285 -0.0125
11490W        W54402  21.406  28.060  31.562 -0.2301 -0.0098  0.1203
11491W        W54403  24.386  25.632  29.298 -0.2556 -0.3941 -0.3083
11492W        W54404  25.912  29.159  28.378 -0.2224  0.0012  0.1408
11493W        W54405  20.573  26.575  30.504 -0.1550 -0.1463 -0.0640
11494W        W54406  22.875  27.547  27.575 -0.0299 -0.0348  0.1362
11495W        W54407  22.319  27.161  30.169 -0.0078 -0.2134  0.0221
11496W        W54408  23.448  27.383  29.083  0.2386  0.2178  0.0542
11497W        W54409  23.234  26.938  29.135 -0.1346  0.0767 -0.4256
11498W        W54410  21.109  27.681  30.477 -0.0094  0.1582 -0.3182
11499W        W54411  22.137  27.703  27.082  0.1946  0.1221 -0.2401
11500W        W54412  22.108  27.577  29.839  0.1396 -0.0034  0.2025
11501W        W54413  25.586  25.548  28.346 -0.0201  0.0722  0.1842
11502W        W54414  24.366  27.093  27.740  0.1182  0.1707 -0.0372
11503W        W54415  23.827  27.636  29.458  0.0981  0.1046  0.1233
11504W        W54416  24.887  26.889  31.544 -0.0754  0.0018 -0.1244
11505W        W54417  23.315  27.771  29.541 -0.2643 -0.0859  0.0140
11506W        W54418  23.339  25.686  29.975  0.1254 -0.0885 -0.1337
11507W        W54419  22.043  26.029  29.927  0.0757 -0.0701  0.0713
11508W        W54420  25.829  27.715  28.873 -0.3980 -0.2266 -0.3461
11509W        W54421  20.564  26.474   0.022  0.2007 -0.0271 -0.0018
11510W        W54422  23.233  28.941  30.048 -0.3085  0.1350  0.1239
11511W        W54423  22.923  27.833   0.175  0.0968 -0.2363 -0.1713
11512W        W54424  24.117  26.691  27.358 -0.0727  0.0972 -0.1071
11513W        W54425  23.203  27.250  29.563  0.0044 -0.1544 -0.1893
11514W        W54426  22.838  27.203  30.299  0.1352  0.2275 -0.0027
11515W        W54427  24.451  26.825  29.903 -0.3101 -0.1356 -0.2733
11516W        W54428  22.608  28.410  27.733  0.1193 -0.2207 -0.2613
11517W        W54429  22.739  26.009  28.547  0.0883 -0.2761  0.3691
11518W        W54430  22.612  28.828  30.657  0.1381 -0.0333  0.0478
11519W        W54431  24.224  28.915  29.007  0.0404 -0.0592  0.3003
11520W        W54432  24.116  27.970  28.728  0.0995  0.1256 -0.1202
11521W        W54433  20.527  26.803  29.295  0.0993 -0.3378 -0.4874
11522W        W54434  22.302  24.163  30.872  0.1137 -0.1385 -0.2992
11523W        W54435  24.135  27.970  29.227  0.0921  0.0410  0.2214
11524W        W54436  23.299  27.122  30.059  0.0061 -0.2473 -0.1941
11525W        W54437  22.546  27.614  30.144  0.0300 -0.0917 -0.0577
11526W        W54438  23.795  26.674  29.123 -0.1043  0.0658 -0.2110
11527W        W54439  21.729  27.189   0.335  0.0291 -0.0963  0.3113
11528W        W54440  21.327  25.629  31.601 -0.1429 -0.1523  0.0171
11529W        W54441  25.416  29.626  30.207  0.0041  0.0228 -0.3975
11530W        W54442  24.112  26.192  27.109 -0.2358  0.0998 -0.0955
11531W        W54443  24.591  27.793  30.739 -0.1912 -0.5143  0.3012
11532W        W54444  23.765  27.429  28.400  0.1513  0.2579 -0.1805
11533W        W54445  22.564  26.026  27.998 -0.0169 -0.1546  0.1547
11534W        W54446  22.414  26.446  30.681  0.1933  0.2959 -0.0918
11535W        W54447  23.755  28.086  31.798 -0.0681 -0.0734  0.0026
11536W        W54448  23.210  25.147  28.380 -0.1364 -0.1176 -0.1410
11537W        W54449  23.341  27.162  31.174 -0.1916 -0.1852 -0.4226
11538W        W54450  22.882  28.260  28.773  0.2156  0.2634  0.0211
11539W        W54451  24.143  27.979  30.508 -0.2407 -0.0886 -0.0594
11540W        W54452  21.611  25.910  28.784  0.4275 -0.0949 -0.1182
11541W        W54453  22.435  27.995  29.726  0.1125 -0.1331  0.0182
11542W        W54454  22.498  30.191  31.319 -0.2621 -0.0471 -0.0875
11543W        W54455  22.620  27.821  27.948  0.2024 -0.1347  0.0842
11544W        W54456  24.702  27.051  28.083  0.3997  0.0174 -0.1733
11545W        W54457  21.835  28.204  31.737 -0.3974  0.1242  0.1433
11546W        W54458  25.631  27.380   0.498 -0.1475  0.2129 -0.0409
11547W        W54459  23.123  26.197  27.010  0.1337  0.0675 -0.0097
11548W        W54460  24.603  27.022  30.370 -0.2413 -0.0795 -0.0253
11549W        W54461  19.978  27.401  28.545 -0.0097 -0.0663 -0.2007
11550W        W54462  24.319  26.449  29.267  0.0460  0.0381  0.3152
11551W        W54463  21.653  28.221  29.018 -0.0430 -0.2689 -0.2388
11552W        W54464  20.835  27.765  30.984  0.3691 -0.4023  0.2098
11553W        W54465  23.120  28.280  29.280 -0.3177  0.2209  0.1169
11554W        W54466  22.885  26.382  29.944  0.1340 -0.4005 -0.2160
11555W        W54467  24.074  26.246  30.607  0.3110  0.1748 -0.0859
11556W        W54468  21.754  27.359  29.498  0.2416  0.0688 -0.1119
11557W        W54469  24.548  26.429  30.395  0.1819  0.0699 -0.0524
11558W        W54470  24.509  27.560  31.172 -0.1970  0.3081  0.0468
11559W        W54471  21.534  27.470  30.389  0.2439 -0.0425  0.2031
11560W        W54472  22.655  29.856   0.068 -0.0323  0.3184 -0.0434
11561W        W54473  24.992  27.318  29.248  0.4024 -0.0111 -0.1792
11562W        W54474  22.572  28.531  29.116 -0.0199 -0.0713 -0.1091
11563W        W54475  22.227  25.973  30.976  0.2557  0.0291 -0.1086
11564W        W54476  22.791  25.818  31.705  0.0074 -0.0829 -0.2564
11565W        W54477  23.249  28.029  30.513  0.1316 -0.3148 -0.0759
11566W        W54478  22.787  25.725  29.281 -0.0855 -0.1169 -0.3742
11567W        W54479  23.101  27.127  28.044  0.1620  0.6653  0.3343
11568W        W54480  21.425  28.259  31.109 -0.2160  0.2101 -0.1406
11569W        W54481  20.657  27.919  30.540 -0.2488 -0.2260 -0.1159
11570W        W54482  22.545  28.692  28.116 -0.4542 -0.0207 -0.2511
11571W        W54483  24.875  28.793  29.002 -0.0483 -0.1038  0.0532
11572W        W54484  23.271  28.067  28.400  0.2150  0.0367 -0.2796
11573W        W54485  24.179  29.158  29.651  0.0328 -0.3370  0.2334
11574W        W54486  23.218  25.569  28.598 -0.0350  0.0058 -0.1662
11575W        W54487  20.872  29.820  28.455 -0.2937 -0.1489 -0.1183
11576W        W54488  21.154  30.065  27.518  0.3563 -0.0430  0.0064
11577W        W54489  23.048  27.680  28.112  0.1795 -0.1118  0.0423
11578W        W54490  21.159  29.202  29.173 -0.1431  0.3656  0.4269
11579W        W54491  24.946  27.777   0.203 -0.1365  0.3233  0.1037
11580W        W54492  25.007  26.606  27.377  0.3047  0.2052 -0.0147
11581W        W54493  24.131  26.538  29.744 -0.4876  0.1677  0.1558
11582W        W54494  25.191  27.201  30.088 -0.2007  0.2835 -0.0052
11583W        W54495  24.602  28.650  31.354  0.0711  0.0337  0.0726
11584W        W54496  21.647  24.905   0.640 -0.0886 -0.0556 -0.1603
11585W        W54497  24.606  26.661  27.735  0.1273 -0.0424 -0.2748
11586W        W54498  23.179  26.576  31.820  0.1598  0.0987 -0.0810
11587W        W54499  25.574  25.626  30.591 -0.3508 -0.0048 -0.4157
11588W        W54500  22.036  28.477  31.152  0.0429 -0.0869  0.3673
11589W        W54501  24.788  28.707  28.293  0.2710  0.1284  0.0606
11590W        W54502  22.291  26.666  29.129  0.1481  0.2628 -0.1781
11591W        W54503  23.405  27.128  28.545  0.1590  0.3511  0.0535
11592W        W54504  24.035  25.539  30.134  0.1769  0.0193 -0.1074
11593W        W54505  23.397  28.007  25.566  0.3573 -0.2228  0.0583
11594W        W54506  22.946  27.410  29.180 -0.0838  0.0173 -0.0705
11595W        W54507  23.866  28.633  27.860 -0.3409 -0.0974  0.1783
11596W        W54508  22.077  28.607  28.215  0.2801  0.0313 -0.1146
11597W        W54509  21.702  28.529  29.730  0.2141  0.1699 -0.0009
11598W        W54510  22.723  26.018  27.515  0.0642  0.1739 -0.1788
11599W        W54511  26.288  27.148  29.700  0.0476 -0.6045  0.0446
11600W        W54512  21.167  27.517  29.489 -0.1770  0.2119  0.1013
11601W        W54513  23.270  26.078  30.654  0.0348 -0.2546  0.2746
11602W        W54514  23.274  27.581  28.569  0.0118 -0.1134  0.0402
11603W        W54515  23.678  27.110  29.380  0.0851  0.1674  0.0272
11604W        W54516  22.495  27.387  31.266 -0.1633  0.1760  0.1791
11605W        W54517  22.940  25.912  30.181  0.2454 -0.1619 -0.2873
11606W        W54518  23.323  26.799  27.250  0.1452  0.0828  0.2880
11607W        W54519  25.074  27.659  31.262  0.1273 -0.0656 -0.2512
11608W        W54520  23.084  28.174  27.844  0.3883 -0.1471 -0.2390
11609W        W54521  25.388  29.839  30.666 -0.1175  0.2599  0.0075
11610W        W54522  21.240  27.066  29.599  0.0967  0.1335 -0.1044
11611W        W54523  24.027  27.269  27.391 -0.1154 -0.2388 -0.1569
11612W        W54524  21.306  27.240  28.285  0.0338  0.1167 -0.4821
11613W        W54525  22.316  26.923  30.609  0.3871  0.0686 -0.0344
11614W        W54526  25.156  28.699  31.576 -0.0063  0.0184 -0.5022
11615W        W54527  22.069  24.643  28.895 -0.0911  0.0621  0.1009
11616W        W54528  25.905  28.923  29.827 -0.0675 -0.0068 -0.2283
11617W        W54529  23.734  28.027  29.808  0.1280 -0.1833 -0.1076
11618W        W54530  21.343  28.107  28.327 -0.1012  0.3706 -0.0724
11619W        W54531  24.594  28.285  28.951 -0.2365  0.2621 -0.2282
11620W        W54532  24.246  28.694  29.792 -0.1351 -0.0097 -0.0694
11621W        W54533  22.602  26.707  30.227 -0.0826  0.4194  0.2772
11622W        W54534  24.226  29.178  30.871 -0.0885  0.1571  0.1111
11623W        W54535  24.710  27.752  29.167 -0.1108 -0.2668  0.0391
11624W        W54536  23.043  27.701  26.293  0.0121 -0.1672 -0.2987
11625W        W54537  22.750  25.475  30.263  0.2098 -0.4002 -0.0706
11626W        W54538  19.850  26.976  28.769  0.1702 -0.2915  0.0994
11627W        W54539  25.138  26.877  29.410  0.0369 -0.2511  0.3318
11628W        W54540  23.054  26.271  31.475  0.0355  0.1011  0.0572
11629W        W54541  22.703  28.709  28.664  0.0757  0.0307 -0.2624
11630W        W54542  25.435  25.369  31.040  0.3081  0.2227 -0.3073
11631W        W54543  22.786  28.233  30.577 -0.0531 -0.1577  0.0503
11632W        W54544  23.516  28.913  30.491  0.0422  0.2899 -0.0086
11633W        W54545  20.880  26.696  26.331  0.0204  0.2639 -0.0780
11634W        W54546  22.668  27.759  30.951  0.0506  0.2543 -0.0422
11635W        W54547  23.180  27.854  29.093 -0.1017  0.2792 -0.0104
11636W        W54548  21.197  28.084  28.832  0.2189 -0.2889  0.2057
11637W        W54549  24.444  28.737  30.876  0.0342 -0.0049  0.1686
11638W        W54550  22.683  26.455  27.787 -0.0261  0.2399  0.1094
11639W        W54551  25.277  28.135  29.530 -0.0051  0.2358 -0.1105
11640W        W54552  23.089  25.154  30.198 -0.1179  0.0643 -0.0089
11641W        W54553  23.432  26.757  28.101  0.4745 -0.1792 -0.2977
11642W        W54554  23.889  26.404  28.282 -0.1486 -0.2370  0.0378
11643W        W54555  21.624  27.712  31.945 -0.0417  0.0258 -0.2877
11644W        W54556  22.011  26.151  28.014  0.1724 -0.1499 -0.0935
11645W        W54557  21.924  28.164  28.466  0.5001  0.1139 -0.2909
11646W        W54558  21.913  28.079  29.689  0.3198  0.2538 -0.1025
11647W        W54559  21.966  24.834   0.137  0.1350  0.4834  0.0308
11648W        W54560  22.718  25.671  31.245  0.0542  0.1163 -0.2976
11649W        W54561  20.919  27.138  29.218  0.1739 -0.3497  0.1960
11650W        W54562  22.820  26.275  29.288  0.1001 -0.2067 -0.0569
11651W        W54563  25.004  28.340  28.034 -0.1588  0.0706  0.0998
11652W        W54564  22.328  24.840  30.295  0.0241 -0.0985 -0.1269
11653W        W54565  22.429  26.239  30.167 -0.1592 -0.0617 -0.0205
11654W        W54566  24.349  28.259  28.394  0.0178 -0.1623 -0.1051
11655W        W54567  23.976  26.920  30.019  0.1509 -0.3036  0.0382
11656W        W54568  24.741  25.730  27.742  0.1170  0.0881 -0.1129
11657W        W54569  26.027  29.113  30.307  0.1196  0.5136 -0.3439
11658W        W54570  21.985  29.567  26.926  0.0143 -0.1334 -0.1855
11659W        W54571  22.953  27.606  31.323  0.1483  0.0653  0.2880
11660W        W54572  23.618  25.937  31.314 -0.1488 -0.3449  0.5830
11661W        W54573  23.844  24.306  26.977  0.2095  0.0529  0.0654
11662W        W54574  23.217  25.549  30.527 -0.0881  0.2644  0.2019
11663W        W54575  24.384  28.502  29.340 -0.1521  0.2099 -0.1101
11664W        W54576  25.927  28.205  28.631 -0.1026  0.4781 -0.0030
11665W        W54577  21.418  27.114  29.142 -0.4230 -0.0269  0.1658
11666W        W54578  22.311  28.447  30.413 -0.0578  0.1003  0.0233
11667W        W54579  21.384  24.958  31.084  0.1102 -0.0807 -0.0043
11668W        W54580  24.083  27.371  29.097  0.2466  0.1298  0.0531
11669W        W54581  21.524  28.961  29.500 -0.1243  0.1760 -0.1428
11670W        W54582  24.370  26.493  28.274  0.1404 -0.1626 -0.1730
11671W        W54583  25.469  25.678  29.869 -0.1222  0.0209 -0.0210
11672W        W54584  22.771  26.766  29.173  0.0320  0.1220 -0.0643
11673W        W54585  21.912  23.778   0.238  0.3383  0.4311  0.1238
11674W        W54586  22.721  27.447  31.906  0.1414 -0.3422 -0.1334
11675W        W54587  24.522  27.957   0.244 -0.2447 -0.0998  0.3322
11676W        W54588  24.107  26.069  29.520  0.2037 -0.1879 -0.2641
11677W        W54589  24.410  27.508  29.496  0.2943  0.0424  0.1242
11678W        W54590  24.035  28.190  27.994  0.0523 -0.0175  0.1268
11679W        W54591  22.747  27.026  29.727  0.0188  0.1201  0.2087
11680W        W54592  23.519  26.727  29.840 -0.0024  0.2797  0.1001
11681W        W54593  21.838  27.176  31.785  0.1072 -0.0742 -0.0533
11682W        W54594  23.667  28.811  28.906  0.3422  0.2907 -0.0100
11683W        W54595  21.480  26.973  31.099 -0.2440  0.3596  0.1207
11684W        W54596  23.669  27.760  28.838 -0.0156  0.0652  0.1638
11685W        W54597  25.454  28.645  27.781 -0.2110  0.0346 -0.1203
11686W        W54598  23.684  29.302  30.707 -0.1852 -0.1147 -0.0089
11687W        W54599  25.059  29.465  30.655  0.0812  0.1369  0.1590
11688W        W54600  23.770  29.854  30.969 -0.1955 -0.0629 -0.0567
11689W        W54601  24.022  28.671  31.185 -0.1506  0.2084 -0.0547
11690W        W54602  21.188  25.714  30.125 -0.0965 -0.0147  0.0168
11691W        W54603  21.571  28.400  27.449 -0.2676  0.3696  0.1519
11692W        W54604  21.830  26.797  29.601 -0.2632 -0.0060  0.1191
11693W        W54605  24.306  26.095  30.040 -0.2662  0.1693 -0.1699
11694W        W54606  21.992  24.457  31.047  0.1477  0.2736  0.2222
11695W        W54607  24.609  25.639  26.866 -0.0458 -0.0608  0.2711
11696W        W54608  23.358  30.165  28.923  0.0542 -0.1450 -0.5104
11697W        W54609  22.871  27.302  30.949 -0.0122  0.1063 -0.0818
11698W        W54610  25.844  25.289  31.376 -0.0928  0.1122 -0.1796
11699W        W54611  23.882  28.087  31.146  0.1252  0.1006 -0.0776
11700W        W54612  22.075  26.634  29.988  0.2499 -0.3094  0.1550
11701W        W54613  22.328  29.241  29.364 -0.4711 -0.0164 -0.3729
11702W        W54614  22.970  27.500   1.121  0.2855  0.0419 -0.2548
11703W        W54615  22.170  30.679   0.211 -0.2409 -0.0906  0.2282
11704W        W54616  24.794  27.742  31.696 -0.1156  0.2507  0.1046
11705W        W54617  22.000  26.718   1.239 -0.1517  0.0533 -0.1197
11706W        W54618  24.227  27.147  30.804 -0.1719  0.0848  0.2436
11707W        W54619  24.822  29.178  31.035 -0.0018 -0.0320 -0.2499
11708W        W54620  24.106  29.184  30.358  0.1496  0.0678  0.2052
11709W        W54621  22.109  25.520  29.937  0.0835 -0.0288 -0.2314
11710W        W54622  24.033  27.899   0.210  0.0776  0.0283 -0.2687
11711W        W54623  22.377  28.163  31.369 -0.0433 -0.0561 -0.1647
11712W        W54624  23.908  26.195   0.221 -0.0170  0.1427 -0.3000
11713W        W54625  22.655  29.663  31.550  0.0357  0.2094 -0.1897
11714W        W54626  21.714  28.636  31.951  0.0322  0.2460 -0.1325
11715W        W54627  25.354  27.790  31.801 -0.0430 -0.0208 -0.1081
11716W        W54628  22.125  23.808  30.454 -0.1441  0.2102 -0.2187
11717W        W54629  20.814  26.729   0.384 -0.1867  0.1308  0.0823
11718W        W54630  23.129  24.483  31.954  0.1093 -0.1615 -0.0614
11719W        W54631  22.011  29.392  30.896  0.0868  0.1668 -0.1064
11720W        W54632  25.476  26.703  31.074 -0.2485 -0.2950 -0.1476
11721W        W54633  22.331  27.118  31.635  0.0364  0.0417  0.0305
11722W        W54634  22.022  25.612  31.886 -0.0572  0.0274  0.0240
11723W        W54635  23.402  26.246   0.396  0.2547  0.1683  0.6425
11724W        W54636  23.704  27.397  30.916 -0.2504 -0.1641 -0.0347
11725W        W54637  21.080  28.181  30.365 -0.0595 -0.0574  0.0362
11726W        W54638  22.514  25.782   0.181  0.4516  0.2217  0.4757
11727W        W54639  22.631  28.619  31.117  0.0171  0.3887 -0.2927
11728W        W54640  23.818  26.432  30.123  0.1667  0.0371  0.3454
11729W        W54641  21.018  26.609  31.799 -0.2601  0.1911  0.0012
11730W        W54642  23.184  27.879  31.678  0.0116  0.0876  0.0174
11731W        W54643  22.623  26.708  31.628 -0.1868  0.1165 -0.2621
11732W        W54644  21.471  26.032  31.258  0.1804 -0.4083 -0.0193
11733W        W54645  23.146  28.459  30.250  0.2589 -0.1628  0.1707
11734W        W54646  23.317  27.400  31.767 -0.1780 -0.3406  0.0616
11735W        W54647  24.995  29.989   0.162  0.0997  0.1332  0.2718
11736W        W54648  23.718  28.044   0.722 -0.1678 -0.2336  0.0382
11737W        W54649  22.147  27.227   0.645 -0.3448 -0.0135 -0.4294
11738W        W54650  25.932  25.437  30.848  0.3418  0.2803  0.3610
11739W        W54651  24.128  27.702  30.942 -0.3956  0.0187  0.1999
11740W        W54652  23.203  25.486   0.099  0.0804  0.1560  0.2576
11741W        W54653  23.181  28.848   1.408  0.1586  0.2141  0.0337
11742W        W54654  22.563  26.140  31.345  0.2670 -0.1275 -0.0177
11743W        W54655  22.846  28.146  31.160 -0.4727  0.2273 -0.2572
11744W        W54656  23.339  24.957  31.221  0.0905 -0.1515  0.0689
11745W        W54657  22.057  27.588  31.496 -0.0171 -0.0498 -0.0150
11746W        W54658  23.835  27.292  30.382  0.3069  0.1172 -0.3424
11747W        W54659  21.938  29.490  30.286 -0.1697 -0.0308  0.3136
11748W        W54660  24.780  28.222   1.007  0.3201 -0.0449  0.5644
11749W        W54661  24.316  25.076  31.248  0.1086  0.2749 -0.0578
11750W        W54662  24.195  25.772   0.252  0.0914 -0.1788  0.1370
11751W        W54663  21.260  26.861   0.173  0.3527 -0.0019 -0.0276
11752W        W54664  23.594  26.438  31.395  0.0178 -0.1709  0.0606
11753W        W54665  23.054  28.101   0.581  0.2463  0.3392  0.1017
11754W        W54666  25.134  27.393  31.650  0.0511  0.1850 -0.2157
11755W        W54667  22.842  28.191  31.712 -0.1168 -0.3812  0.2003
11756W        W54668  21.601  27.372   0.769 -0.1451 -0.2947  0.0238
11757W        W54669  23.215  26.747   0.594 -0.0954  0.1147  0.0066
11758W        W54670  21.078  26.343   0.246  0.0811  0.2253 -0.2081
11759W        W54671  21.457  28.200   0.092 -0.0908  0.0495  0.3369
11760W        W54672  20.964  28.345  31.949  0.1852  0.0982  0.0055
11761W        W54673  21.044  25.057  31.701  0.0255  0.0266  0.2445
11762W        W54674  23.068  28.545  30.867  0.1462  0.0097 -0.0549
11763W        W54675  23.387  28.324  31.488 -0.1916  0.0102 -0.0076
11764W        W54676  24.618  27.299  31.609 -0.0523 -0.0362 -0.3462
11765W        W54677  22.839  32.282  18.984 -0.0252  0.0615 -0.1348
11766W        W54678  23.197  29.931  16.998 -0.2499 -0.3446 -0.1545
11767W        W54679  24.108  30.788  16.459 -0.1280 -0.0245 -0.1867
11768W        W54680  25.606  30.350  17.140 -0.2344  0.1547  0.1689
11769W        W54681  21.123  31.282  17.414  0.0881  0.1012 -0.0010
11770W        W54682  24.469  33.089  16.618  0.0302 -0.1381  0.0984
11771W        W54683  23.820  28.787  17.660  0.2172  0.0469 -0.3565
11772W        W54684  25.614  32.057  17.728  0.2676  0.0297  0.0433
11773W        W54685  25.567  32.757  18.619  0.2016 -0.0685 -0.0474
11774W        W54686  24.543  31.048  16.443  0.1249  0.0681  0.0316
11775W        W54687  22.800  29.991  19.380  0.2399  0.1594 -0.1549
11776W        W54688  23.056  33.391  17.476  0.1578 -0.2597  0.0281
11777W        W54689  24.509  29.230  16.387 -0.2365  0.0466 -0.1517
11778W        W54690  22.285  29.922  17.026  0.0563  0.0028  0.0821
11779W        W54691  24.490  30.834  19.161 -0.1026  0.1426  0.0733
11780W        W54692  20.677  33.076  17.210  0.2490 -0.5352 -0.2833
11781W        W54693  22.751  31.435  16.964  0.0476 -0.0725 -0.0409
11782W        W54694  24.263  30.124  17.271  0.1964  0.0052  0.0623
11783W        W54695  23.744  33.717  17.990  0.0163 -0.0049  0.2458
11784W        W54696  22.801  29.900  19.854  0.4140  0.0914 -0.0745
11785W        W54697  22.268  29.728  19.961 -0.0737  0.0089 -0.0632
11786W        W54698  23.190  31.871  16.832 -0.1419  0.0332  0.0172
11787W        W54699  21.358  31.278  16.601  0.0363  0.2194 -0.1643
11788W        W54700  20.816  32.249  17.889  0.0745  0.0270  0.1301
11789W        W54701  22.476  30.880  19.413  0.2760  0.3799 -0.0226
11790W        W54702  23.725  29.405  18.924 -0.0510 -0.0155  0.0775
11791W        W54703  23.146  30.662  19.976  0.2341 -0.1104  0.0144
11792W        W54704  24.207  33.549  19.320 -0.0446 -0.1235 -0.0482
11793W        W54705  24.120  32.440  17.811  0.1927 -0.1210 -0.1964
11794W        W54706  23.048  29.499  19.518 -0.1595 -0.2801  0.0341
11795W        W54707  21.763  32.873  16.586 -0.0356 -0.1214  0.0752
11796W        W54708  22.882  32.017  18.524  0.0391  0.1742 -0.0715
11797W        W54709  23.484  32.779  16.849 -0.1970  0.0802 -0.0499
11798W        W54710  25.847  30.958  17.011 -0.1103  0.0626 -0.0833
11799W        W54711  24.147  32.625  18.266  0.1761  0.0741 -0.1642
11800W        W54712  23.212  33.454  18.915  0.2888 -0.0835  0.0662
11801W        W54713  22.555  31.435  16.102 -0.0353  0.0981  0.0596
11802W        W54714  24.850  31.270  19.717 -0.0688  0.1016 -0.2096
11803W        W54715  22.098  32.536  19.915  0.1954 -0.1978  0.0663
11804W        W54716  21.734  30.475  19.123 -0.0285  0.1616  0.5526
11805W        W54717  24.314  30.729  18.255  0.2869 -0.2628 -0.2340
11806W        W54718  24.243  30.414  17.811  0.1644  0.2124  0.0748
11807W        W54719  24.868  30.308  18.521 -0.1024  0.0542  0.3404
11808W        W54720  21.666  30.006  19.919 -0.1821 -0.1010 -0.1111
11809W        W54721  21.439  31.894  18.975  0.0949  0.1068 -0.3431
11810W        W54722  25.366  31.244  19.654  0.2813 -0.0185 -0.0166
11811W        W54723  23.698  31.926  16.787 -0.0817 -0.0028  0.2962
11812W        W54724  25.231  30.688  15.994  0.0958 -0.0594 -0.0707
11813W        W54725  24.677  30.102  16.098  0.3576  0.1674 -0.2112
11814W        W54726  25.034  29.606  17.145  0.0666  0.2634  0.0797
11815W        W54727  23.401  27.881  18.338 -0.1182 -0.0207 -0.3153
11816W        W54728  23.801  33.444  18.918  0.2399 -0.2273 -0.1986
11817W        W54729  23.081  29.792  17.666  0.0904 -0.0938 -0.3499
11818W        W54730  24.678  31.283  17.595  0.3670  0.0701 -0.1044
11819W        W54731  24.126  29.634  17.125 -0.0067  0.0225  0.3697
11820W        W54732  24.040  30.561  18.871  0.0497 -0.0543  0.1316
11821W        W54733  22.897  31.225  18.330 -0.1153  0.1787 -0.0172
11822W        W54734  22.902  30.948  16.930  0.1498  0.2418  0.1907
11823W        W54735  24.449  31.636  17.303  0.2818  0.2167  0.2606
11824W        W54736  25.118  32.617  18.313  0.1940  0.0629  0.0880
11825W        W54737  23.432  31.588  16.437 -0.1197 -0.1844  0.3089
11826W        W54738  21.159  30.395  16.624  0.2111 -0.0878 -0.0917
11827W        W54739  22.699  31.324  19.180 -0.1944  0.1945 -0.2236
11828W        W54740  22.011  30.507  19.544 -0.1761  0.2810 -0.0377
11829W        W54741  24.037  27.145  16.525  0.1618  0.2427 -0.3183
11830W        W54742  24.073  31.148  19.131  0.2790 -0.1652  0.1900
11831W        W54743  21.457  31.510  19.300  0.5478  0.2417 -0.3041
11832W        W54744  27.187  28.832  17.730 -0.1148  0.0175  0.0219
11833W        W54745  24.710  30.716  17.702  0.0398 -0.0711 -0.1845
11834W        W54746  24.112  32.148  19.528 -0.0788  0.1557 -0.0286
11835W        W54747  25.438  31.338  17.307 -0.0119  0.1645  0.0648
11836W        W54748  24.289  29.445  18.037 -0.2318 -0.4346  0.0469
11837W        W54749  23.578  28.827  18.838 -0.0657 -0.2119 -0.0006
11838W        W54750  25.110  30.419  16.792  0.3411 -0.2211  0.1100
11839W        W54751  23.804  30.924  17.539  0.0876 -0.2420 -0.0679
11840W        W54752  25.158  31.660  19.550 -0.3949  0.2763  0.2451
11841W        W54753  25.923  30.476  17.504  0.5511  0.1861 -0.1158
11842W        W54754  22.552  31.894  19.312 -0.2221  0.2657  0.1115
11843W        W54755  23.566  29.241  18.482  0.2242  0.0516 -0.1389
11844W        W54756  23.323  33.249  20.842  0.5043  0.2805 -0.1145
11845W        W54757  23.170  33.144  16.090 -0.0144 -0.0753  0.2360
11846W        W54758  21.793  31.004  17.837 -0.0415  0.0085 -0.1478
11847W        W54759  21.925  32.124  16.087  0.3467 -0.0046  0.0461
11848W        W54760  22.115  29.552  20.818 -0.1620 -0.0239  0.2478
11849W        W54761  22.133  32.049  16.662 -0.1912 -0.0151 -0.0040
11850W        W54762  25.951  29.777  16.596 -0.1332  0.1818 -0.0533
11851W        W54763  21.690  30.937  18.835  0.3504 -0.3901  0.0984
11852W        W54764  25.095  28.861  18.395  0.0832 -0.0908 -0.1633
11853W        W54765  23.483  31.884  17.264  0.0298  0.0801 -0.0156
11854W        W54766  25.542  33.509  17.385  0.0579  0.0230  0.3394
11855W        W54767  25.607  31.286  17.876 -0.2060  0.0545  0.0811
11856W        W54768  25.430  31.828  17.084  0.1326 -0.4485 -0.0991
11857W        W54769  21.935  30.618  18.521  0.1116 -0.1261 -0.1007
11858W        W54770  22.157  30.578  17.356  0.0980 -0.0738 -0.0480
11859W        W54771  22.727  29.239  19.915 -0.0073 -0.0977  0.1434
11860W        W54772  22.575  29.475  17.049 -0.1509 -0.1687 -0.2318
11861W        W54773  24.260  31.130  18.596 -0.2284 -0.2786  0.2705
11862W        W54774  22.423  29.674  17.499 -0.0684 -0.1262  0.2129
11863W        W54775  25.436  30.859  18.176 -0.1063  0.1093 -0.0016
11864W        W54776  23.618  31.530  19.127 -0.3805 -0.0175  0.2122
11865W        W54777  21.692  33.550  17.082 -0.2440  0.1770  0.1286
11866W        W54778  25.689  28.716  19.833 -0.0823  0.0746 -0.1169
11867W        W54779  24.221  31.982  16.707  0.0940  0.1170 -0.2374
11868W        W54780  23.701  32.752  17.690 -0.0674  0.1539  0.0175
11869W        W54781  25.186  33.344  16.055 -0.0687  0.0729 -0.0470
11870W        W54782  21.459  30.761  20.660 -0.0484  0.0816  0.2917
11871W        W54783  24.599  27.623  16.613  0.0399  0.1204 -0.3515
11872W        W54784  22.804  32.703  18.702  0.0201 -0.0962 -0.0469
11873W        W54785  24.578  31.328  16.966 -0.2256 -0.0717 -0.3941
11874W        W54786  23.774  28.368  16.855  0.2563 -0.0145  0.2944
11875W        W54787  25.187  32.854  17.880 -0.1881  0.4110 -0.1581
11876W        W54788  24.240  30.610  17.360  0.2414 -0.2023 -0.2179
11877W        W54789  22.562  31.937  17.588 -0.1204 -0.1712  0.0515
11878W        W54790  25.018  29.844  18.423  0.2520  0.0156 -0.3106
11879W        W54791  23.539  30.533  18.790 -0.2103  0.1785  0.2313
11880W        W54792  24.962  31.001  19.312 -0.0395 -0.0512  0.0491
11881W        W54793  23.930  30.299  15.781 -0.0066 -0.1261  0.4221
11882W        W54794  24.230  30.906  17.775  0.0443  0.2316  0.1099
11883W        W54795  21.623  32.181  16.507  0.3669 -0.0642  0.1171
11884W        W54796  20.423  30.664  17.463  0.0587  0.2002 -0.1746
11885W        W54797  23.331  32.314  17.029 -0.2499  0.2283  0.2256
11886W        W54798  26.038  29.576  18.902 -0.1926 -0.0459  0.3341
11887W        W54799  22.895  32.439  20.166 -0.2400  0.0759 -0.3639
11888W        W54800  22.988  31.512  19.997 -0.4830  0.1225 -0.0750
11889W        W54801  21.194  29.601  16.547  0.0542  0.2424  0.1224
11890W        W54802  21.438  31.980  19.553 -0.1141 -0.2795  0.1431
11891W        W54803  23.449  30.092  18.657  0.1633 -0.1398 -0.3619
11892W        W54804  24.507  28.636  16.495 -0.1696  0.0559 -0.1763
11893W        W54805  22.614  32.300  20.604  0.1397  0.2443  0.1386
11894W        W54806  24.820  30.969  17.230 -0.0820 -0.2014 -0.2006
11895W        W54807  24.870  29.778  17.553 -0.0365 -0.0934  0.0868
11896W        W54808  25.361  30.733  16.558  0.1193  0.0856  0.2820
11897W        W54809  23.352  32.643  19.993 -0.0324  0.2740 -0.0083
11898W        W54810  24.225  31.584  17.789  0.2712 -0.3201 -0.0233
11899W        W54811  25.404  31.396  18.386 -0.4075 -0.0295  0.1749
11900W        W54812  24.705  29.504  16.009 -0.0522 -0.2794 -0.0584
11901W        W54813  26.140  32.744  17.330  0.2146  0.0788  0.1396
11902W        W54814  22.110  32.125  17.600  0.1546  0.0004  0.1704
11903W        W54815  23.084  31.807  19.210 -0.1611 -0.2295 -0.0790
11904W        W54816  24.104  31.680  18.306  0.3273  0.0364 -0.1448
11905W        W54817  22.844  29.987  18.723  0.0019 -0.2209 -0.1160
11906W        W54818  23.352  29.952  16.286  0.0007 -0.1393  0.0726
11907W        W54819  23.929  29.933  16.517  0.1718 -0.2465  0.1285
11908W        W54820  22.202  32.953  16.321 -0.0425 -0.2610 -0.0293
11909W        W54821  24.704  30.221  17.525 -0.0495 -0.1300 -0.0255
11910W        W54822  23.306  29.888  19.206 -0.2684  0.1438 -0.1181
11911W        W54823  23.221  28.359  18.417  0.0053  0.2340 -0.0415
11912W        W54824  24.187  31.200  20.145  0.0887 -0.4036 -0.0652
11913W        W54825  25.558  29.697  15.893 -0.1370 -0.1204 -0.0180
11914W        W54826  23.662  30.576  17.169 -0.3159 -0.0349 -0.0150
11915W        W54827  22.921  30.325  16.595  0.1027  0.0268  0.2674
11916W        W54828  22.903  29.568  19.011  0.2728  0.2867 -0.1600
11917W        W54829  23.416  31.184  18.394  0.1887 -0.3141  0.0721
11918W        W54830  22.416  32.928  18.948  0.2444  0.0072  0.1506
11919W        W54831  23.777  31.206  19.526 -0.1259  0.0908 -0.0632
11920W        W54832  25.188  31.675  17.627  0.2753 -0.1395  0.0821
11921W        W54833  25.417  30.521  18.667  0.1705  0.0927 -0.3626
11922W        W54834  23.534  29.276  16.505  0.1272 -0.1576 -0.3281
11923W        W54835  23.639  32.955  15.995  0.0575 -0.1511  0.1681
11924W        W54836  23.813  32.406  16.825 -0.0758 -0.1726  0.1697
11925W        W54837  22.737  29.224  17.513  0.1112 -0.1386  0.4347
11926W        W54838  22.678  32.608  19.315  0.1640 -0.2733  0.1739
11927W        W54839  23.413  31.394  16.928 -0.0371  0.2088 -0.1642
11928W        W54840  23.814  32.508  19.205  0.0147  0.0264  0.0928
11929W        W54841  22.057  32.588  16.976 -0.0346  0.0865  0.0270
11930W        W54842  25.842  29.461  18.078 -0.1323  0.0051 -0.2751
11931W        W54843  22.184  32.583  18.203 -0.1413 -0.0033  0.1575
11932W        W54844  22.397  30.051  16.553  0.2439 -0.3794 -0.0236
11933W        W54845  21.818  30.092  18.801 -0.2458  0.0265 -0.3653
11934W        W54846  26.069  30.317  17.941 -0.0884  0.3097 -0.1218
11935W        W54847  26.614  31.766  17.746 -0.0966 -0.0534  0.3104
11936W        W54848  23.350  32.139  17.714  0.0438 -0.1646  0.2980
11937W        W54849  23.724  29.212  17.964 -0.0825  0.1030 -0.2351
11938W        W54850  23.422  30.618  17.652  0.2080 -0.0728  0.3924
11939W        W54851  23.700  31.822  18.547 -0.0629  0.0537  0.1543
11940W        W54852  23.474  30.082  17.918 -0.2610  0.2282  0.0625
11941W        W54853  24.648  31.698  19.582 -0.1932 -0.4100  0.0513
11942W        W54854  23.879  31.402  18.708  0.0796  0.1350  0.1052
11943W        W54855  20.690  31.090  17.116 -0.2883 -0.0075 -0.0004
11944W        W54856  26.165  29.519  18.424 -0.1724 -0.0357 -0.0424
11945W        W54857  23.278  30.844  18.093 -0.0749  0.0678 -0.0679
11946W        W54858  22.129  32.678  17.570 -0.2070  0.2999  0.3142
11947W        W54859  24.270  33.051  18.591 -0.1294  0.0588 -0.2683
11948W        W54860  23.202  30.578  16.890  0.3345  0.1503  0.2506
11949W        W54861  23.904  32.052  18.964 -0.5185 -0.0155  0.0133
11950W        W54862  22.754  31.091  20.346  0.3306 -0.0570  0.2766
11951W        W54863  25.011  32.527  19.945 -0.0353  0.1212 -0.1078
11952W        W54864  24.672  30.518  17.115  0.0778 -0.2084 -0.2124
11953W        W54865  23.802  29.161  16.892 -0.1681  0.0212 -0.0569
11954W        W54866  23.566  30.204  16.757  0.0789 -0.0678  0.0327
11955W        W54867  23.873  32.435  18.654  0.0742 -0.0578  0.2638
11956W        W54868  23.173  30.805  18.625  0.2007 -0.0799  0.2846
11957W        W54869  24.459  32.063  19.220  0.0295 -0.1988  0.1384
11958W        W54870  23.438  30.750  19.447 -0.0991 -0.2840  0.2891
11959W        W54871  25.031  33.098  16.554 -0.1629  0.4724 -0.2399
11960W        W54872  22.359  31.028  19.859 -0.1421 -0.1866  0.0608
11961W        W54873  21.803  31.708  16.417  0.0889  0.0371 -0.1035
11962W        W54874  21.105  31.798  17.718  0.2084  0.1701 -0.0193
11963W        W54875  22.999  32.421  16.583  0.0779 -0.4706 -0.3703
11964W        W54876  22.753  30.490  19.287 -0.2210 -0.3788 -0.1194
11965W        W54877  23.146  31.678  17.946  0.1897  0.2311 -0.1429
11966W        W54878  22.403  32.922  17.224  0.0046 -0.1371  0.0762
11967W        W54879  20.301  31.040  18.583 -0.1058  0.0552  0.0299
11968W        W54880  25.358  29.180  17.268 -0.2211  0.0295 -0.1814
11969W        W54881  23.817  32.841  17.200  0.1705  0.0015 -0.1115
11970W        W54882  23.292  30.886  17.273  0.2580 -0.1574  0.0567
11971W        W54883  26.156  29.600  20.015  0.0009  0.2054 -0.0240
11972W        W54884  24.951  31.538  17.250 -0.2840 -0.0361  0.3864
11973W        W54885  24.615  29.986  18.859 -0.1272  0.0949  0.0303
11974W        W54886  22.922  30.560  17.464  0.0845 -0.1901  0.0508
11975W        W54887  25.857  31.484  17.011  0.3171 -0.1062  0.0819
11976W        W54888  21.025  31.184  19.489 -0.2330 -0.3860 -0.3534
11977W        W54889  24.032  32.644  20.961  0.1807 -0.1856  0.0231
11978W        W54890  22.329  31.456  19.429 -0.2205 -0.2007 -0.0173
11979W        W54891  25.164  30.594  17.495 -0.0204  0.2891 -0.0938
11980W        W54892  23.122  29.592  16.655 -0.3714  0.2922 -0.2680
11981W        W54893  23.113  32.729  19.555  0.4404 -0.1165 -0.2553
11982W        W54894  25.728  31.006  18.670  0.1038 -0.0413  0.0392
11983W        W54895  23.299  31.067  16.517 -0.1006  0.1717  0.0062
11984W        W54896  26.371  30.589  17.617  0.1819 -0.4734  0.0901
11985W        W54897  23.212  31.678  18.504  0.2211  0.4769  0.1531
11986W        W54898  24.654  30.275  16.640  0.0514  0.0088  0.3167
11987W        W54899  25.126  31.172  17.736 -0.0940 -0.1527  0.1179
11988W        W54900  22.263  31.927  17.174 -0.0939 -0.1126  0.1252
11989W        W54901  21.815  29.192  20.429 -0.3903 -0.3038  0.1609
11990W        W54902  23.399  32.183  18.818  0.0866  0.0421 -0.2891
11991W        W54903  23.878  30.320  18.498 -0.1224 -0.1592 -0.0061
11992W        W54904  25.337  30.068  19.441  0.1807  0.3743 -0.0816
11993W        W54905  23.728  29.809  19.425  0.2259  0.1555 -0.4695
11994W        W54906  23.210  30.110  20.104 -0.1364 -0.1071  0.0035
11995W        W54907  22.266  31.327  20.353  0.2242  0.1733  0.2513
11996W        W54908  24.913  32.180  18.231 -0.0960  0.4432  0.0054
11997W        W54909  25.597  30.138  16.599 -0.0727  0.1183 -0.0864
11998W        W54910  27.094  29.366  18.480  0.1039  0.3856  0.0597
11999W        W54911  26.059  31.102  17.479 -0.2168  0.0289 -0.0051
12000W        W54912  24.147  31.185  16.122  0.1522 -0.2054  0.0064
12001W        W54913  22.419  30.833  18.355  0.1064  0.1302 -0.0026
12002W        W54914  24.688  30.112  19.821 -0.0459  0.3578 -0.0833
12003W        W54915  23.698  30.801  16.203 -0.0988 -0.2575  0.1634
12004W        W54916  25.578  28.787  18.372  0.4010 -0.1718 -0.1526
12005W        W54917  22.916  32.178  17.916 -0.1099 -0.1480 -0.1891
12006W        W54918  25.841  30.847  17.881  0.0187 -0.0386 -0.3364
12007W        W54919  23.591  29.611  16.815  0.0991 -0.3541  0.3490
12008W        W54920  22.073  31.684  18.489  0.0388  0.2167 -0.0447
12009W        W54921  21.277  33.208  18.362  0.0015  0.1015 -0.3549
12010W        W54922  22.227  29.550  16.173  0.2337 -0.0328  0.1565
12011W        W54923  24.379  30.871  16.903  0.3797 -0.1790 -0.1179
12012W        W54924  25.794  30.574  18.356  0.0212  0.3324  0.0162
12013W        W54925  24.232  31.776  19.903 -0.1746  0.1857  0.2749
12014W        W54926  24.305  28.397  16.855  0.0805 -0.1017 -0.1396
12015W        W54927  23.841  29.685  19.882 -0.0603  0.0336  0.0679
12016W        W54928  20.311  31.423  17.017  0.2335 -0.1028  0.3017
12017W        W54929  25.230  30.070  18.872  0.0257 -0.0833 -0.1670
12018W        W54930  23.439  33.320  18.156  0.1692  0.0426  0.0912
12019W        W54931  21.580  31.412  17.646  0.1245  0.0455  0.0038
12020W        W54932  23.508  33.528  16.062  0.0052 -0.0961  0.1023
12021W        W54933  23.651  30.283  19.195  0.2626 -0.2163  0.0461
12022W        W54934  25.466  30.191  18.257  0.0284  0.2906  0.2767
12023W        W54935  23.964  31.178  18.135 -0.0097  0.3489  0.0854
12024W        W54936  25.861  31.433  19.690 -0.3054 -0.1059  0.2666
12025W        W54937  22.289  31.526  18.962 -0.0292 -0.0193 -0.3414
12026W        W54938  22.905  31.004  19.695 -0.1023  0.1363 -0.0979
12027W        W54939  22.054  32.581  18.887 -0.3160  0.0415  0.1701
12028W        W54940  25.535  30.406  17.798 -0.4388 -0.1343  0.2118
12029W        W54941  24.728  31.759  17.784  0.0296 -0.2396 -0.3057
12030W        W54942  21.094  30.152  20.576  0.0389  0.1884  0.0812
12031W        W54943  24.759  31.960  20.952 -0.0882 -0.0677  0.2220
12032W        W54944  24.936  31.017  16.701 -0.1884  0.0264  0.2013
12033W        W54945  23.052  29.132  16.539 -0.0812 -0.0275 -0.2268
12034W        W54946  22.316  31.291  17.006  0.0769 -0.4189  0.1055
12035W        W54947  22.242  33.567  20.024  0.1090 -0.0159  0.0556
12036W        W54948  21.285  30.981  19.112  0.3878 -0.0724  0.3202
12037W        W54949  22.568  32.281  16.205 -0.0208  0.3547 -0.4880
12038W        W54950  24.735  33.068  17.083 -0.3826 -0.1327 -0.2166
12039W        W54951  23.757  31.465  17.431  0.0444  0.0856 -0.0517
12040W        W54952  24.252  33.695  17.860  0.2771  0.1285 -0.0595
12041W        W54953  23.890  29.071  16.183 -0.3176 -0.2036 -0.0869
12042W        W54954  22.985  31.887  17.319  0.2395 -0.0711  0.0394
12043W        W54955  22.484  31.894  18.745  0.0026 -0.1163 -0.1264
12044W        W54956  24.671  31.798  16.913  0.0551 -0.1438  0.3866
12045W        W54957  22.700  32.101  16.944 -0.0049  0.1061  0.2795
12046W        W54958  24.254  32.026  20.363 -0.0184  0.0185 -0.0799
12047W        W54959  24.672  29.731  16.489 -0.1274 -0.0268 -0.3794
12048W        W54960  26.510  31.263  18.318 -0.0810  0.2939 -0.0167
12049W        W54961  24.776  29.984  17.083 -0.0550 -0.2706  0.1741
12050W        W54962  23.272  32.143  19.904  0.1446 -0.0887  0.0120
12051W        W54963  24.779  30.931  18.131 -0.0896  0.1606 -0.1552
12052W        W54964  24.333  29.156  15.925 -0.0274  0.0713 -0.2621
12053W        W54965  22.260  30.336  19.115  0.2414  0.0291  0.2316
12054W        W54966  25.912  27.676  20.770 -0.5069  0.2834  0.2655
12055W        W54967  21.443  31.717  20.080  0.0156  0.0112  0.1395
12056W        W54968  23.984  33.601  15.735 -0.0399  0.0713  0.1658
12057W        W54969  22.063  29.470  17.253  0.2039 -0.1678 -0.1011
12058W        W54970  23.857  30.649  18.065  0.0973  0.0688 -0.1189
12059W        W54971  25.216  30.769  19.725 -0.1334  0.3731 -0.0903
12060W        W54972  23.757  31.109  17.073 -0.2302  0.2951 -0.0244
12061W        W54973  24.600  30.143  18.058  0.1121 -0.1192  0.1940
12062W        W54974  23.232  32.546  18.511 -0.1387  0.0963  0.6014
12063W        W54975  22.669  32.752  16.317 -0.0874 -0.1322  0.2594
12064W        W54976  21.554  31.892  18.469 -0.1190 -0.1109  0.0918
12065W        W54977  21.578  30.998  17.257  0.2811 -0.0306 -0.1508
12066W        W54978  26.406  30.415  18.503 -0.0567  0.3423 -0.2485
12067W        W54979  23.300  29.633  18.684  0.0894  0.2392  0.2729
12068W        W54980  25.453  28.518  17.889 -0.3267  0.0548  0.0263
12069W        W54981  22.038  31.065  17.383  0.0095  0.3563  0.0335
12070W        W54982  24.564  29.470  16.978  0.0082 -0.2047  0.0725
12071W        W54983  24.785  31.241  18.623  0.1125  0.1743  0.1856
12072W        W54984  22.764  31.522  18.732  0.3489 -0.2006 -0.3091
12073W        W54985  23.828  31.167  16.578  0.0047  0.0408 -0.1022
12074W        W54986  24.000  30.686  19.413  0.0547 -0.3294  0.0237
12075W        W54987  24.880  30.649  16.343 -0.2854 -0.0009  0.1170
12076W        W54988  23.935  33.379  18.356 -0.2202 -0.1521  0.1274
12077W        W54989  22.384  30.415  18.074  0.3689 -0.1298  0.2647
12078W        W54990  24.344  29.934  16.814  0.0323  0.2380 -0.0282
12079W        W54991  22.560  31.457  17.455 -0.0213 -0.4201 -0.2138
12080W        W54992  24.306  31.700  18.863  0.1384  0.0411 -0.1761
12081W        W54993  24.488  32.722  20.053 -0.0522 -0.0567  0.0776
12082W        W54994  22.745  29.956  16.831 -0.0201 -0.4741 -0.0842
12083W        W54995  25.813  31.607  17.495 -0.1563  0.0525  0.0724
12084W        W54996  24.667  31.515  20.069  0.1280  0.3068 -0.1957
12085W        W54997  23.044  32.953  16.577 -0.4922  0.2935  0.0376
12086W        W54998  25.617  30.852  17.420 -0.2068  0.3708  0.0119
12087W        W54999  25.944  32.550  16.579 -0.1882 -0.1454 -0.0934
12088W        W55000  22.169  29.773  18.215 -0.2759 -0.0024 -0.0041
12089W        W55001  25.270  32.242  18.654 -0.0664  0.2298 -0.2473
12090W        W55002  26.420  32.327  19.216  0.2024  0.1381 -0.1347
12091W        W55003  24.061  29.476  16.545 -0.5270 -0.3636  0.0395
12092W        W55004  21.819  31.152  16.816  0.0006  0.0700  0.1445
12093W        W55005  21.718  32.578  16.066  0.2662  0.0787 -0.0231
12094W        W55006  26.109  30.021  18.478  0.2806 -0.1487  0.3325
12095W        W55007  25.477  31.035  19.173 -0.2919 -0.0149 -0.2372
12096W        W55008  24.442  32.846  15.734 -0.0374 -0.0468  0.1166
12097W        W55009  26.010  28.560  18.521  0.4803  0.0532 -0.0937
12098W        W55010  23.632  32.818  19.594  0.3417 -0.0994  0.0740
12099W        W55011  22.932  32.202  19.485 -0.1665  0.1036 -0.1642
12100W        W55012  22.019  31.626  16.898  0.0585  0.0728 -0.0251
12101W        W55013  23.869  32.158  18.238  0.1931  0.3864  0.1946
12102W        W55014  23.415  31.174  17.763  0.0605  0.0323 -0.1650
12103W        W55015  24.010  32.058  17.171 -0.4619  0.0517 -0.2822
12104W        W55016  24.456  31.313  18.130 -0.0430 -0.0478 -0.0104
12105W        W55017  22.985  30.881  19.113 -0.1324  0.1349 -0.2121
12106W        W55018  25.158  30.952  18.586 -0.0915 -0.0514  0.0594
12107W        W55019  23.419  30.437  18.282 -0.4845  0.0016  0.0330
12108W        W55020  25.197  30.092  17.315 -0.0370  0.3367  0.1637
12109W        W55021  25.296  28.406  16.849  0.3341 -0.0295 -0.0452
12110W        W55022  21.327  31.050  20.232 -0.2607  0.3246 -0.1746
12111W        W55023  21.527  30.817  16.571 -0.0967  0.3313 -0.0043
12112W        W55024  21.239  32.511  16.051 -0.0830  0.3418 -0.0489
12113W        W55025  22.317  32.020  18.156  0.2737  0.2145 -0.0295
12114W        W55026  23.648  28.510  19.468  0.0655 -0.2565 -0.3262
12115W        W55027  21.958  30.587  20.375 -0.0669 -0.1835  0.1271
12116W        W55028  22.306  30.949  17.836 -0.1403 -0.0440  0.1330
12117W        W55029  22.003  30.280  16.252 -0.0219 -0.0126 -0.1995
12118W        W55030  26.209  32.445  16.183  0.0298 -0.0446 -0.0887
12119W        W55031  24.144  29.879  17.691 -0.0041  0.0293 -0.0909
12120W        W55032  21.870  30.221  18.248 -0.0241 -0.0209  0.0266
12121W        W55033  24.197  31.210  17.402  0.2553 -0.6155  0.1787
12122W        W55034  24.964  32.179  16.816  0.0559 -0.4414 -0.2706
12123W        W55035  22.903  28.857  17.182  0.0494  0.0875  0.2319
12124W        W55036  24.862  31.760  19.056 -0.3005 -0.2829 -0.0572
12125W        W55037  22.995  31.413  16.512  0.2370 -0.0305 -0.0215
12126W        W55038  23.640  30.991  18.968 -0.0691  0.0277  0.0651
12127W        W55039  22.676  29.606  20.851  0.2110  0.1226 -0.0289
12128W        W55040  21.771  32.058  17.013  0.1897  0.5679  0.1543
12129W        W55041  23.278  32.653  19.065  0.1270 -0.0085  0.1852
12130W        W55042  23.695  32.351  17.390 -0.1353 -0.2254 -0.1602
12131W        W55043  24.055  33.103  17.552 -0.0426 -0.0715  0.1063
12132W        W55044  24.279  32.122  18.583 -0.0458 -0.4022 -0.3358
12133W        W55045  23.362  31.641  19.624 -0.1039 -0.2745  0.0461
12134W        W55046  21.055  29.520  19.902  0.0251  0.1648 -0.0629
12135W        W55047  24.742  32.313  17.777  0.2022 -0.2360  0.4098
12136W        W55048  23.815  31.418  19.953 -0.0660 -0.2023 -0.1026
12137W        W55049  26.038  32.098  17.349 -0.1237 -0.2536 -0.3780
12138W        W55050  25.514  29.841  16.977 -0.1068 -0.3024 -0.0690
12139W        W55051  23.662  30.737  16.714 -0.0675  0.0183  0.1143
12140W        W55052  22.373  28.858  18.164  0.0109 -0.1306  0.0268
12141W        W55053  21.747  32.290  19.236 -0.2227  0.1226 -0.1850
12142W        W55054  23.835  30.271  17.607  0.1945 -0.2986  0.1088
12143W        W55055  23.356  29.575  17.332 -0.0608 -0.1479 -0.3020
12144W        W55056  25.040  30.394  18.021  0.2215 -0.0818 -0.0002
12145W        W55057  24.506  32.239  17.007  0.1850  0.0969  0.1249
12146W        W55058  22.546  30.971  17.305 -0.1418  0.1516  0.3103
12147W        W55059  25.013  28.743  16.528 -0.2801  0.3094  0.0873
12148W        W55060  23.230  30.328  19.556  0.4171 -0.2908  0.2572
12149W        W55061  25.774  29.908  17.935  0.0706 -0.0835  0.0807
12150W        W55062  22.154  30.304  20.006  0.0458  0.1197 -0.1342
12151W        W55063  22.442  30.148  16.100 -0.1329 -0.0635 -0.0277
12152W        W55064  25.825  30.554  16.736  0.3561 -0.1426  0.2418
12153W        W55065  24.530  33.182  19.701  0.3955  0.3022  0.0149
12154W        W55066  25.076  32.211  20.619 -0.1438 -0.1765  0.1457
12155W        W55067  22.709  32.622  18.238  0.0081  0.3351 -0.0453
12156W        W55068  25.261  29.872  17.925 -0.0369  0.0096 -0.2520
12157W        W55069  22.390  29.381  18.348  0.0851 -0.2776  0.1625
12158W        W55070  22.294  30.818  16.862 -0.0848 -0.2416  0.1144
12159W        W55071  22.617  31.321  17.916 -0.2638 -0.0848 -0.2148
12160W        W55072  24.782  29.630  18.016 -0.0538  0.0019 -0.0109
12161W        W55073  22.765  30.742  18.026 -0.0600 -0.1323  0.2301
12162W        W55074  25.150  28.900  17.810  0.0400 -0.0255 -0.2617
12163W        W55075  21.731  32.899  20.058 -0.0090  0.2592 -0.3768
12164W        W55076  23.176  31.309  18.888 -0.0412 -0.0615 -0.0619
12165W        W55077  23.515  31.833  21.866 -0.4310 -0.0794  0.2176
12166W        W55078  22.179  31.446  22.470  0.3588 -0.2482  0.1635
12167W        W55079  25.746  29.868  19.214  0.3815 -0.2414  0.1592
12168W        W55080  25.601  33.081  19.687  0.0248 -0.1501  0.2307
12169W        W55081  23.015  28.948  21.381 -0.1748  0.0460  0.1183
12170W        W55082  24.435  31.890  21.654 -0.1440 -0.1652 -0.2307
12171W        W55083  21.977  29.156  23.081 -0.1451  0.1398  0.4029
12172W        W55084  25.452  31.625  21.682  0.4189 -0.4213  0.0671
12173W        W55085  26.068  30.957  21.633  0.1594  0.2522  0.2205
12174W        W55086  23.610  30.038  21.008  0.2369 -0.2191 -0.1014
12175W        W55087  25.579  30.676  22.391  0.0282  0.2656 -0.3103
12176W        W55088  24.379  31.613  21.211  0.0928  0.2730  0.0435
12177W        W55089  22.233  28.126  20.521 -0.4748 -0.2535 -0.0981
12178W        W55090  22.978  28.555  22.142  0.0183 -0.2413 -0.2564
12179W        W55091  24.125  31.540  23.116  0.1844 -0.0039 -0.0208
12180W        W55092  20.695  31.440  20.574  0.1977 -0.0109 -0.2015
12181W        W55093  22.291  30.455  21.302 -0.1244  0.1386 -0.0296
12182W        W55094  24.021  29.391  19.416  0.0418  0.1374  0.1399
12183W        W55095  23.333  30.614  21.927  0.1019  0.2142 -0.0714
12184W        W55096  22.796  30.413  21.427  0.0953 -0.0620  0.1338
12185W        W55097  25.535  29.398  22.846  0.1322  0.4622 -0.0034
12186W        W55098  22.871  32.356  21.448  0.0726  0.3689  0.3565
12187W        W55099  23.625  30.456  20.277 -0.1676  0.0659 -0.0167
12188W        W55100  22.486  29.728  22.252 -0.0980  0.1283  0.0411
12189W        W55101  22.456  31.131  22.763 -0.2102 -0.1595  0.1882
12190W        W55102  23.729  29.611  20.856 -0.2660  0.3749  0.1805
12191W        W55103  24.783  30.262  21.236 -0.0464 -0.0362 -0.1790
12192W        W55104  22.832  33.281  21.699 -0.1295  0.0361 -0.0828
12193W        W55105  24.384  31.629  20.678 -0.0542 -0.3039  0.0316
12194W        W55106  23.072  32.148  23.427 -0.0181  0.3181  0.1857
12195W        W55107  21.995  29.227  21.606  0.1782 -0.1833 -0.0569
12196W        W55108  21.993  32.102  21.256  0.0370  0.0976  0.1139
12197W        W55109  22.487  32.888  20.845  0.2852 -0.2695 -0.0233
12198W        W55110  25.197  30.719  21.922  0.3997  0.0180  0.0362
12199W        W55111  24.947  32.316  23.927  0.1089  0.1320 -0.2723
12200W        W55112  23.269  32.015  24.285 -0.1783  0.0420 -0.4709
12201W        W55113  21.777  32.051  19.882  0.0394  0.0418  0.3594
12202W        W55114  24.568  32.438  22.284  0.1264 -0.2904 -0.1977
12203W        W55115  22.469  33.637  22.658 -0.1992 -0.0882 -0.0325
12204W        W55116  23.286  31.156  22.593 -0.0779 -0.1764  0.0703
12205W        W55117  24.117  30.133  21.172  0.0971  0.0638  0.1765
12206W        W55118  23.317  32.205  21.617  0.1411  0.1245 -0.0975
12207W        W55119  24.204  32.169  21.229  0.2892  0.1132  0.0710
12208W        W55120  23.377  32.573  24.886 -0.2462  0.1605 -0.1070
12209W        W55121  21.945  31.009  22.376 -0.1182 -0.0520 -0.1934
12210W        W55122  25.053  29.421  24.137 -0.1402  0.1697 -0.3230
12211W        W55123  22.076  32.711  19.424  0.1799  0.0145 -0.3131
12212W        W55124  23.697  30.772  20.752  0.1613 -0.1948  0.4319
12213W        W55125  22.874  30.010  20.672  0.3416 -0.0206 -0.1452
12214W        W55126  25.137  30.108  19.933  0.1514 -0.2751  0.0649
12215W        W55127  22.766  30.463  22.861 -0.1417  0.0729  0.0715
12216W        W55128  21.849  32.854  21.722  0.1405 -0.1634 -0.3167
12217W        W55129  21.729  29.383  22.090  0.1095 -0.1001  0.1152
12218W        W55130  24.291  31.086  23.619  0.0769 -0.1423 -0.0490
12219W        W55131  22.788  30.338  20.273 -0.1813  0.1653 -0.0345
12220W        W55132  23.696  31.163  21.781 -0.0558  0.0637 -0.0989
12221W        W55133  22.814  32.296  22.431  0.2355 -0.3690 -0.1146
12222W        W55134  21.394  30.898  22.424 -0.1441 -0.1379  0.2508
12223W        W55135  24.881  32.672  20.472 -0.1569  0.1519  0.1693
12224W        W55136  25.809  33.258  21.122  0.0588 -0.0027 -0.0801
12225W        W55137  22.707  31.313  21.852  0.2848 -0.2393 -0.0270
12226W        W55138  23.651  31.178  20.409  0.1742  0.2513 -0.2803
12227W        W55139  21.755  29.642  22.760  0.0116  0.2330  0.0262
12228W        W55140  23.338  31.333  24.033  0.1544 -0.0602  0.0679
12229W        W55141  23.144  29.502  20.077 -0.1841  0.0595 -0.2538
12230W        W55142  24.071  33.305  23.180 -0.1746 -0.2479  0.0745
12231W        W55143  22.945  32.191  24.637 -0.2012  0.0792  0.0502
12232W        W55144  24.999  30.109  20.415 -0.0804 -0.2550  0.2586
12233W        W55145  23.207  30.628  24.487 -0.1248 -0.2073 -0.0633
12234W        W55146  24.826  32.367  21.485  0.0588 -0.0648  0.0219
12235W        W55147  24.169  32.363  20.008  0.1804 -0.0773 -0.1974
12236W        W55148  24.231  29.939  22.129  0.2293  0.0896  0.0030
12237W        W55149  24.523  30.440  22.071 -0.1158 -0.4411  0.0894
12238W        W55150  21.819  30.044  19.419  0.1219  0.0652 -0.0191
12239W        W55151  23.265  29.677  21.981 -0.0909 -0.0551 -0.1307
12240W        W55152  25.970  33.193  23.053  0.1217 -0.1795 -0.0830
12241W        W55153  25.794  31.477  20.750  0.1353 -0.2391 -0.0023
12242W        W55154  22.747  30.538  22.309 -0.1098  0.3036 -0.1819
12243W        W55155  25.103  31.077  22.787  0.2021  0.4974  0.0980
12244W        W55156  22.369  34.161  24.005  0.0984 -0.2524 -0.1443
12245W        W55157  23.105  32.312  20.965 -0.2819 -0.1849  0.2348
12246W        W55158  21.115  30.543  21.600 -0.4987  0.0620 -0.0009
12247W        W55159  22.547  30.892  21.290 -0.0547 -0.2208  0.3307
12248W        W55160  22.732  29.708  23.023 -0.0682 -0.1195 -0.1347
12249W        W55161  23.366  32.277  22.408  0.0742 -0.1997 -0.0391
12250W        W55162  25.180  30.622  21.335 -0.0292  0.1294  0.3340
12251W        W55163  24.001  30.356  21.951  0.0000 -0.1130  0.2261
12252W        W55164  25.485  30.026  20.708 -0.0500 -0.0395  0.0323
12253W        W55165  22.460  30.722  20.216 -0.0821  0.0083 -0.2493
12254W        W55166  25.339  32.469  21.490 -0.2229  0.0065 -0.2066
12255W        W55167  24.478  30.374  20.360 -0.0793 -0.0243 -0.1424
12256W        W55168  24.598  32.420  20.888  0.1245  0.2353  0.1136
12257W        W55169  20.305  31.191  23.371 -0.0457 -0.0684  0.0585
12258W        W55170  22.290  29.567  21.343 -0.4459 -0.0121  0.0907
12259W        W55171  22.758  29.324  23.365  0.3704 -0.2443 -0.0921
12260W        W55172  21.677  27.911  21.843 -0.0984  0.0905 -0.1867
12261W        W55173  26.076  30.789  23.766  0.0605  0.3269 -0.2125
12262W        W55174  22.147  29.867  19.103 -0.1507 -0.0337 -0.0017
12263W        W55175  24.205  29.833  20.843  0.2120  0.1466  0.2614
12264W        W55176  23.786  29.905  20.415 -0.2313  0.1312 -0.0236
12265W        W55177  22.034  31.057  21.247  0.2147  0.1936  0.0043
12266W        W55178  25.079  30.645  22.394 -0.1134 -0.0451  0.1801
12267W        W55179  23.754  33.300  20.133  0.0414  0.0707 -0.0081
12268W        W55180  24.621  31.951  23.900 -0.1471  0.1320 -0.0020
12269W        W55181  24.564  33.352  20.719  0.0872  0.1320  0.4321
12270W        W55182  23.585  30.944  24.267  0.0585 -0.0280  0.0133
12271W        W55183  23.126  30.087  21.593 -0.0198  0.3861  0.2964
12272W        W55184  22.558  33.728  23.807 -0.0910 -0.0542  0.0220
12273W        W55185  21.434  31.874  22.802 -0.1375  0.0519  0.1706
12274W        W55186  24.097  28.513  21.137 -0.2386 -0.0442 -0.0678
12275W        W55187  25.785  33.463  22.282  0.2185 -0.0786  0.1629
12276W        W55188  22.818  29.786  21.298  0.0066  0.0097 -0.0847
12277W        W55189  21.126  32.227  21.907  0.2578 -0.0054 -0.1055
12278W        W55190  24.336  30.215  22.493 -0.0913 -0.0415 -0.1896
12279W        W55191  24.303  30.442  21.470  0.1298 -0.1267  0.1825
12280W        W55192  24.762  32.073  22.068  0.1444  0.3853  0.3262
12281W        W55193  22.669  30.432  19.812  0.2940  0.0226 -0.1497
12282W        W55194  23.922  32.132  20.733 -0.0194  0.0113 -0.1896
12283W        W55195  21.530  31.949  21.330 -0.1062  0.1263  0.1619
12284W        W55196  21.110  30.494  22.167  0.3522  0.0612 -0.2769
12285W        W55197  23.427  31.662  22.436 -0.1344  0.2511 -0.2634
12286W        W55198  25.147  30.049  21.541  0.1788 -0.0913  0.1250
12287W        W55199  22.283  30.580  22.520 -0.3246  0.2385  0.1270
12288W        W55200  24.682  30.477  22.804  0.1282  0.0322  0.1084
12289W        W55201  21.297  30.409  21.015 -0.1982  0.1664 -0.3370
12290W        W55202  21.262  30.794  24.199 -0.0111 -0.0492 -0.0194
12291W        W55203  24.668  29.583  20.739  0.0584 -0.3277  0.3040
12292W        W55204  25.711  30.842  19.645 -0.2117  0.4561 -0.0359
12293W        W55205  22.275  32.140  23.916  0.0501  0.3711 -0.0717
12294W        W55206  24.093  31.619  19.405 -0.0890  0.1045  0.2412
12295W        W55207  24.022  30.093  18.109 -0.1774 -0.0653  0.0535
12296W        W55208  24.000  28.561  19.829 -0.0893  0.1500 -0.0019
12297W        W55209  21.597  31.833  23.800  0.1905  0.1117  0.0800
12298W        W55210  24.647  30.936  20.076 -0.1185 -0.2484 -0.2221
12299W        W55211  24.266  31.090  22.873 -0.1431 -0.0123 -0.0202
12300W        W55212  24.124  30.201  19.542 -0.1915  0.0157  0.0219
12301W        W55213  25.852  33.761  20.215  0.1205 -0.1457  0.0777
12302W        W55214  22.344  30.714  22.997  0.2882  0.6079  0.0993
12303W        W55215  24.119  32.166  23.072 -0.2443  0.0797  0.0903
12304W        W55216  23.435  32.936  20.388  0.0548 -0.3082 -0.0259
12305W        W55217  24.144  29.428  22.142 -0.1812 -0.3881 -0.1667
12306W        W55218  24.270  31.134  19.648  0.0640  0.0078  0.1715
12307W        W55219  22.794  29.411  20.426 -0.0292 -0.3371  0.0450
12308W        W55220  21.445  33.371  19.880 -0.2947 -0.2360  0.0148
12309W        W55221  23.589  31.431  22.876  0.1028  0.2301  0.1369
12310W        W55222  23.992  29.048  21.162  0.2371  0.1197  0.1650
12311W        W55223  24.205  31.215  22.177 -0.2366 -0.1726  0.1047
12312W        W55224  25.391  33.507  24.041  0.0469  0.0336  0.1699
12313W        W55225  24.616  30.088  20.762 -0.0946  0.0204  0.3228
12314W        W55226  22.923  30.920  22.023 -0.3460  0.1139 -0.0657
12315W        W55227  23.229  30.824  20.448 -0.1512 -0.0015 -0.0726
12316W        W55228  24.719  30.896  23.156  0.0692  0.1268 -0.2747
12317W        W55229  21.620  31.719  23.249  0.1729 -0.1764  0.2987
12318W        W55230  21.006  30.691  25.357 -0.1449 -0.0541  0.2156
12319W        W55231  22.737  31.312  22.354 -0.3545 -0.3205 -0.2864
12320W        W55232  23.830  30.678  21.578  0.2283  0.0807 -0.2339
12321W        W55233  24.333  31.935  23.422 -0.0705  0.0151 -0.1144
12322W        W55234  24.095  30.088  19.001  0.0218 -0.3176  0.0801
12323W        W55235  23.427  32.752  20.835 -0.0727 -0.1564  0.0088
12324W        W55236  21.671  32.798  19.134  0.1864  0.0769 -0.0933
12325W        W55237  22.928  29.646  24.704  0.2488 -0.0096  0.1019
12326W        W55238  22.570  31.667  22.689 -0.0254  0.4574  0.2216
12327W        W55239  21.958  31.820  19.301  0.0730  0.1536  0.2570
12328W        W55240  23.826  31.237  24.746  0.1588 -0.3460 -0.0106
12329W        W55241  22.832  31.567  19.583  0.1353  0.1874  0.1039
12330W        W55242  24.736  29.964  22.291  0.1529 -0.1069  0.1154
12331W        W55243  20.669  31.400  21.477 -0.1811  0.0479 -0.0248
12332W        W55244  23.483  29.423  19.673 -0.0086  0.2441  0.0207
12333W        W55245  23.010  31.298  21.210 -0.0281  0.4245 -0.0799
12334W        W55246  24.197  30.594  22.877 -0.0625 -0.4973 -0.1653
12335W        W55247  25.208  30.995  20.203  0.0668 -0.0889 -0.0434
12336W        W55248  21.497  29.958  22.454 -0.0302 -0.0586  0.0783
12337W        W55249  21.669  28.931  21.897  0.2310  0.2153  0.6473
12338W        W55250  22.731  32.534  23.347 -0.4271 -0.0211  0.0923
12339W        W55251  24.139  31.402  21.666 -0.0762 -0.0668 -0.1870
12340W        W55252  24.744  30.609  21.671 -0.2361  0.3340  0.1487
12341W        W55253  23.559  32.495  21.986 -0.4067 -0.0464 -0.3544
12342W        W55254  22.946  32.592  24.341  0.2048 -0.2697 -0.0269
12343W        W55255  22.073  30.029  21.071 -0.1727  0.0937  0.0688
12344W        W55256  24.283  29.907  21.593 -0.0670 -0.0360 -0.0358
12345W        W55257  22.969  28.882  20.793 -0.0143 -0.0128  0.4314
12346W        W55258  22.513  32.366  21.083 -0.0141 -0.0617 -0.4634
12347W        W55259  23.739  31.699  21.438  0.1284 -0.0609  0.0421
12348W        W55260  23.198  30.660  20.994  0.1687  0.0114 -0.1842
12349W        W55261  22.405  33.284  22.008 -0.1717 -0.0845 -0.2140
12350W        W55262  23.243  31.013  23.630 -0.0210  0.0678  0.4151
12351W        W55263  25.760  31.137  23.537  0.1351 -0.0322  0.0506
12352W        W55264  23.809  30.199  21.503  0.2112  0.0967  0.0372
12353W        W55265  21.421  28.599  21.591  0.0879 -0.0556  0.1305
12354W        W55266  23.705  30.361  22.510  0.3929  0.1979 -0.1966
12355W        W55267  25.048  31.494  23.140 -0.3660 -0.0298  0.4893
12356W        W55268  22.888  30.894  22.643  0.1594  0.2153 -0.1843
12357W        W55269  22.015  32.961  25.103  0.1154 -0.2604  0.2447
12358W        W55270  22.664  28.930  22.134  0.1924 -0.1041 -0.3408
12359W        W55271  25.791  33.976  19.762 -0.0670  0.0485  0.0371
12360W        W55272  24.867  32.840  23.701 -0.2466  0.0754  0.0318
12361W        W55273  22.673  32.014  19.889  0.1648 -0.0017 -0.0525
12362W        W55274  22.300  31.427  23.879 -0.1160 -0.1499 -0.1430
12363W        W55275  24.071  31.190  20.783 -0.1635  0.0653  0.1507
12364W        W55276  23.751  30.765  22.124 -0.2112 -0.1479  0.0565
12365W        W55277  23.242  31.109  23.110 -0.0000  0.0240  0.0269
12366W        W55278  23.440  31.567  21.082 -0.2515  0.3454 -0.3474
12367W        W55279  21.460  33.159  21.939 -0.2114 -0.2132 -0.1526
12368W        W55280  24.706  32.233  20.220  0.0634  0.0528  0.0553
12369W        W55281  23.455  31.939  20.722  0.2999 -0.0253 -0.1548
12370W        W55282  24.013  29.557  21.300 -0.0745  0.1215  0.1827
12371W        W55283  25.596  32.313  23.244 -0.0883 -0.2585 -0.0494
12372W        W55284  23.269  31.248  19.369 -0.3479  0.1332  0.1001
12373W        W55285  25.622  29.937  24.653  0.2627  0.0692 -0.0278
12374W        W55286  22.585  29.571  21.741 -0.1098 -0.0352  0.1529
12375W        W55287  24.980  31.739  21.555 -0.1740 -0.0447  0.1169
12376W        W55288  21.764  29.043  23.645 -0.1809 -0.0866 -0.1078
12377W        W55289  25.359  32.574  23.674  0.0693  0.1678  0.2588
12378W        W55290  23.325  31.261  24.503 -0.1350  0.1018 -0.2508
12379W        W55291  24.539  29.238  21.204  0.0583  0.0139  0.2268
12380W        W55292  23.182  29.399  20.894  0.0402 -0.0493 -0.1847
12381W        W55293  22.746  30.978  23.169 -0.1222 -0.0315 -0.2179
12382W        W55294  24.202  31.025  21.298 -0.1609  0.1080  0.0735
12383W        W55295  23.407  31.553  20.253 -0.0540  0.0013 -0.0790
12384W        W55296  23.096  30.894  21.483 -0.0607  0.1878 -0.1046
12385W        W55297  21.812  30.826  22.951 -0.0918 -0.1089 -0.0403
12386W        W55298  23.244  31.286  22.082 -0.2149  0.2465 -0.2189
12387W        W55299  23.763  30.443  19.761  0.4437 -0.0551  0.4029
12388W        W55300  21.447  31.341  22.119  0.0393 -0.1817 -0.2785
12389W        W55301  23.374  29.947  22.366 -0.1227 -0.2248  0.1278
12390W        W55302  23.869  31.588  22.131  0.1355  0.1138 -0.0013
12391W        W55303  23.856  29.037  21.794 -0.0730 -0.2190 -0.0483
12392W        W55304  23.491  31.440  23.380 -0.0799  0.3309  0.1409
12393W        W55305  25.080  29.876  21.024 -0.0376 -0.1467 -0.0721
12394W        W55306  23.840  31.017  23.301  0.3408  0.0914 -0.1410
12395W        W55307  22.264  29.336  23.559  0.2214  0.1165 -0.2761
12396W        W55308  24.766  33.697  21.533 -0.1080  0.1930 -0.1608
12397W        W55309  24.892  30.529  20.091  0.1251  0.0675 -0.1418
12398W        W55310  24.940  30.068  23.323  0.1149 -0.0611 -0.0796
12399W        W55311  26.219  30.749  20.878  0.2204  0.0122  0.0006
12400W        W55312  23.073  28.810  20.152  0.1968 -0.2053  0.2984
12401W        W55313  23.072  29.359  21.617  0.1630  0.2850 -0.2757
12402W        W55314  25.023  30.536  23.470  0.1729  0.0714  0.1248
12403W        W55315  22.817  30.940  20.811  0.0662 -0.3922  0.2264
12404W        W55316  23.932  30.095  23.508 -0.0680  0.1876  0.2597
12405W        W55317  22.999  31.976  20.352 -0.0302 -0.2369  0.0002
12406W        W55318  22.430  30.946  22.270  0.1481 -0.1642 -0.1377
12407W        W55319  24.989  30.463  19.088  0.1900 -0.2863 -0.1763
12408W        W55320  21.255  29.510  21.217  0.1633  0.2133  0.1572
12409W        W55321  22.299  32.308  23.297  0.2015  0.2822 -0.0395
12410W        W55322  22.347  30.765  20.696 -0.0312 -0.5069 -0.1085
12411W        W55323  23.358  31.144  19.911  0.1079  0.2746  0.0377
12412W        W55324  23.571  32.917  21.704  0.3110 -0.0735  0.1709
12413W        W55325  26.119  31.316  23.883  0.2881 -0.2605  0.1052
12414W        W55326  23.351  29.749  20.529  0.2534  0.1601 -0.1408
12415W        W55327  24.675  32.461  23.467  0.0177 -0.2363 -0.2939
12416W        W55328  21.581  31.295  21.147 -0.1720 -0.2971  0.1512
12417W        W55329  24.107  30.691  22.424 -0.3609  0.1250  0.2274
12418W        W55330  23.230  33.171  22.997 -0.1667 -0.1154 -0.0383
12419W        W55331  21.976  30.571  22.119  0.0531  0.1262 -0.0212
12420W        W55332  23.064  32.811  22.509 -0.1571 -0.0188  0.2802
12421W        W55333  23.468  29.744  23.268  0.1640 -0.0277  0.0025
12422W        W55334  24.533  29.287  20.381 -0.2549  0.0407 -0.1567
12423W        W55335  23.404  30.459  21.433 -0.0507 -0.0626 -0.0865
12424W        W55336  24.670  30.208  23.719 -0.1057 -0.1902  0.2999
12425W        W55337  23.827  32.366  22.662  0.1609 -0.3832 -0.4077
12426W        W55338  22.945  31.813  22.402 -0.1282 -0.3529  0.2344
12427W        W55339  23.643  32.025  23.712 -0.1847 -0.1683  0.2448
12428W        W55340  24.477  31.041  20.533  0.2868 -0.1120  0.2899
12429W        W55341  23.068  32.754  21.697  0.3487  0.1812 -0.0251
12430W        W55342  22.092  30.896  24.393 -0.3612 -0.0912  0.0295
12431W        W55343  24.469  30.697  24.404  0.0690 -0.0218 -0.0002
12432W        W55344  23.768  31.825  23.267 -0.0343 -0.0203  0.0857
12433W        W55345  22.756  28.400  20.038 -0.0500 -0.2963  0.1632
12434W        W55346  22.264  32.130  20.151  0.3057 -0.0457  0.0749
12435W        W55347  21.049  31.793  25.877  0.3559  0.1229 -0.2896
12436W        W55348  22.787  32.213  23.985 -0.3746  0.0299 -0.0414
12437W        W55349  23.891  32.613  20.508  0.2108 -0.3214  0.0760
12438W        W55350  22.958  32.787  20.550 -0.4109  0.0557 -0.1733
12439W        W55351  23.600  29.140  20.754 -0.0709  0.2809 -0.3327
12440W        W55352  25.081  33.325  22.321  0.1048 -0.1274  0.4726
12441W        W55353  24.093  30.686  20.390  0.1940  0.2145 -0.3073
12442W        W55354  22.518  31.489  21.406  0.1741  0.2589  0.2837
12443W        W55355  21.906  31.563  22.066 -0.1103 -0.1212 -0.2325
12444W        W55356  25.354  32.681  20.589 -0.4092  0.1374  0.1938
12445W        W55357  22.124  32.609  22.163 -0.0922  0.0683  0.1813
12446W        W55358  24.361  31.557  23.903 -0.0467 -0.0371 -0.1348
12447W        W55359  25.819  28.973  19.434 -0.0080  0.1773 -0.0549
12448W        W55360  25.509  29.729  21.665  0.4856 -0.0328 -0.1702
12449W        W55361  26.260  31.470  20.765 -0.0227 -0.0940  0.4269
12450W        W55362  24.449  32.619  22.959  0.0272  0.1294  0.0483
12451W        W55363  23.754  31.150  22.401 -0.3134  0.0399 -0.1825
12452W        W55364  24.058  28.858  19.428  0.0817 -0.0290  0.0787
12453W        W55365  24.533  31.123  24.098  0.0845 -0.4394  0.0639
12454W        W55366  26.581  29.497  24.117  0.0846  0.1685  0.0743
12455W        W55367  21.160  31.543  25.416 -0.2978  0.2247 -0.0409
12456W        W55368  25.399  33.677  19.854  0.1608 -0.1929  0.0755
12457W        W55369  23.342  31.446  21.596 -0.3310 -0.0750  0.0783
12458W        W55370  22.579  31.480  23.194 -0.0817 -0.2213  0.0641
12459W        W55371  25.455  30.153  22.374 -0.1829 -0.1701 -0.0051
12460W        W55372  22.550  32.487  19.809  0.1306  0.1619  0.1709
12461W        W55373  24.510  29.727  21.189 -0.0098  0.0369 -0.2849
12462W        W55374  22.326  33.283  21.438  0.1169 -0.0346 -0.0047
12463W        W55375  22.727  32.867  22.095 -0.2287 -0.0879  0.1590
12464W        W55376  23.989  33.169  21.532 -0.1573 -0.2398  0.0561
12465W        W55377  21.292  29.988  21.461 -0.0674 -0.0930  0.1109
12466W        W55378  26.315  29.387  20.834  0.0358  0.0441  0.0636
12467W        W55379  23.650  31.959  22.811  0.1987 -0.0009  0.1541
12468W        W55380  24.378  29.845  23.770 -0.1168 -0.1879  0.1887
12469W        W55381  22.983  31.822  21.824  0.2720 -0.0873 -0.1435
12470W        W55382  23.803  29.318  20.351  0.2166  0.2753  0.2641
12471W        W55383  22.949  31.470  23.514 -0.1759 -0.2944 -0.0300
12472W        W55384  22.748  31.010  23.697 -0.0142 -0.0079  0.2136
12473W        W55385  23.304  30.270  20.661  0.1051  0.1193  0.0470
12474W        W55386  25.340  32.447  22.809 -0.3102  0.0389  0.1069
12475W        W55387  23.930  30.291  20.694 -0.1774 -0.0787  0.0279
12476W        W55388  24.182  33.368  22.341  0.3572 -0.2936 -0.0687
12477W        W55389  20.615  28.374  22.991 -0.1246 -0.5528  0.0869
12478W        W55390  24.188  29.640  20.265 -0.0779 -0.1240 -0.3062
12479W        W55391  23.980  31.704  20.983 -0.1366 -0.1285 -0.1330
12480W        W55392  23.663  31.650  24.309  0.0001 -0.1814  0.0173
12481W        W55393  24.617  31.818  22.964  0.0137 -0.0395  0.1982
12482W        W55394  21.360  28.255  20.560  0.0004 -0.0550 -0.0423
12483W        W55395  23.711  32.285  20.211 -0.2278 -0.1224  0.1422
12484W        W55396  24.230  29.845  23.168 -0.1198  0.0486 -0.0139
12485W        W55397  21.871  33.689  18.898  0.2860  0.1024  0.5783
12486W        W55398  25.218  32.062  21.230  0.1489  0.0534  0.1026
12487W        W55399  24.209  32.042  22.082 -0.0675 -0.2649 -0.3380
12488W        W55400  22.026  30.301  21.710  0.0455  0.1258 -0.1471
12489W        W55401  23.218  32.206  22.918  0.4216  0.0561  0.0650
12490W        W55402  25.015  33.561  22.894 -0.0725 -0.2154 -0.2713
12491W        W55403  22.650  28.112  21.357 -0.2816 -0.0352 -0.0945
12492W        W55404  23.211  30.450  22.563 -0.1322  0.3447 -0.1130
12493W        W55405  21.461  31.882  22.332  0.1922 -0.3077 -0.1585
12494W        W55406  24.310  30.946  21.779  0.0441  0.0602 -0.3993
12495W        W55407  24.640  30.917  22.514  0.2878  0.1331 -0.1556
12496W        W55408  23.718  31.926  19.828 -0.2042 -0.1387  0.2910
12497W        W55409  24.638  29.708  24.188  0.0375 -0.1005 -0.2459
12498W        W55410  22.988  32.778  23.863  0.0265  0.2697 -0.0228
12499W        W55411  21.749  32.703  24.319 -0.2557 -0.1765 -0.1790
12500W        W55412  22.893  31.515  20.485 -0.0903  0.1084  0.1382
12501W        W55413  22.935  31.421  22.874  0.1467 -0.1115  0.0994
12502W        W55414  22.059  31.578  21.280  0.1287 -0.0897 -0.0264
12503W        W55415  23.632  32.583  21.355 -0.0148  0.0903 -0.1691
12504W        W55416  24.906  33.297  21.216  0.2186 -0.1499  0.2715
12505W        W55417  22.494  30.035  21.597  0.0751 -0.1605  0.1310
12506W        W55418  25.484  31.501  21.202  0.0173 -0.0701 -0.1808
12507W        W55419  22.561  30.095  21.087  0.3642 -0.1599  0.0933
12508W        W55420  26.005  29.101  19.993 -0.1632  0.0670 -0.0452
12509W        W55421  25.673  28.619  20.654  0.3057  0.1893 -0.2656
12510W        W55422  23.711  30.885  22.812  0.1004  0.1051  0.0799
12511W        W55423  21.928  30.517  20.867 -0.0674  0.0389  0.2655
12512W        W55424  22.206  31.996  19.671 -0.2019  0.3292 -0.1975
12513W        W55425  21.954  31.835  22.704 -0.1338  0.0841  0.3883
12514W        W55426  23.008  30.113  23.220 -0.0507  0.1387  0.2421
12515W        W55427  22.975  31.005  24.164 -0.1716 -0.2301 -0.1388
12516W        W55428  22.408  32.426  22.690  0.1745  0.3451  0.1326
12517W        W55429  23.859  29.084  19.878 -0.0577  0.2475  0.0370
12518W        W55430  22.807  33.477  20.004  0.1736 -0.1070 -0.0401
12519W        W55431  23.400  29.670  21.287  0.2207  0.1969 -0.0504
12520W        W55432  21.947  30.810  21.705  0.0620  0.3300 -0.1979
12521W        W55433  25.157  31.103  21.485  0.0744  0.0232 -0.2697
12522W        W55434  24.374  32.357  21.711  0.1478 -0.0543 -0.1533
12523W        W55435  23.616  28.858  20.300  0.0870 -0.1701 -0.1191
12524W        W55436  26.424  32.754  23.435 -0.1212 -0.0070 -0.2440
12525W        W55437  22.489  31.800  20.435 -0.0333  0.0186 -0.0331
12526W        W55438  24.058  30.545  23.423 -0.1453 -0.0847  0.1955
12527W        W55439  23.369  29.805  23.919  0.0971 -0.1440  0.1404
12528W        W55440  22.352  30.272  20.589 -0.1831  0.3250 -0.1310
12529W        W55441  23.260  30.610  23.049  0.1156  0.1721 -0.2007
12530W        W55442  23.886  32.227  21.656 -0.2828 -0.0561 -0.0083
12531W        W55443  24.158  33.652  19.890  0.1488  0.2048  0.1036
12532W        W55444  22.628  30.700  24.474 -0.1107  0.0349  0.2979
12533W        W55445  23.629  32.185  24.632  0.1920  0.2368 -0.1123
12534W        W55446  23.354  28.985  21.776 -0.1096 -0.0791 -0.0993
12535W        W55447  24.211  30.667  19.857  0.0391  0.1999  0.0297
12536W        W55448  22.168  30.171  23.558 -0.1268  0.2683 -0.0216
12537W        W55449  24.531  31.239  20.954 -0.0128 -0.2496 -0.0140
12538W        W55450  24.779  30.911  22.017 -0.0488  0.0930 -0.2100
12539W        W55451  23.500  31.071  21.269  0.1772  0.0574 -0.3116
12540W        W55452  21.459  27.900  23.798 -0.0751  0.3875 -0.0380
12541W        W55453  22.262  30.855  23.855 -0.3237  0.1082  0.0230
12542W        W55454  24.632  32.870  22.428 -0.0071 -0.5486 -0.2096
12543W        W55455  21.067  28.713  22.884 -0.0976  0.0741  0.1244
12544W        W55456  24.950  28.622  19.451  0.2454  0.3191  0.1758
12545W        W55457  22.882  31.817  20.879 -0.1670  0.0757  0.0199
12546W        W55458  23.818  29.725  22.292 -0.1054 -0.2825 -0.1628
12547W        W55459  24.845  30.024  19.356  0.0975 -0.2181  0.0529
12548W        W55460  22.890  31.560  24.140  0.1376  0.1185  0.2547
12549W        W55461  23.306  32.381  20.490  0.0595  0.1267  0.2104
12550W        W55462  25.672  32.256  23.993 -0.1780  0.1899  0.1914
12551W        W55463  23.908  31.648  20.443  0.2191 -0.1096 -0.3072
12552W        W55464  25.407  32.173  20.175  0.1191  0.1269 -0.1120
12553W        W55465  24.046  32.572  22.181  0.5660  0.1088 -0.0379
12554W        W55466  24.536  32.617  24.062 -0.1900 -0.0529  0.2036
12555W        W55467  24.478  33.252  21.557 -0.1538  0.0442  0.2372
12556W        W55468  24.647  31.474  21.869 -0.0067  0.3625 -0.1742
12557W        W55469  23.251  28.482  21.526  0.1209 -0.0994 -0.2917
12558W        W55470  22.403  31.214  20.945  0.1847  0.1294  0.0684
12559W        W55471  22.438  31.885  21.126  0.2721 -0.2151 -0.1908
12560W        W55472  25.656  30.922  20.745 -0.2279 -0.0362  0.0026
12561W        W55473  21.894  29.053  21.034  0.0267 -0.0604 -0.0487
12562W        W55474  24.413  29.720  19.566 -0.0623  0.0083  0.1531
12563W        W55475  24.021  34.228  21.414  0.2850 -0.0385  0.0713
12564W        W55476  23.658  32.094  21.141  0.3391  0.1962 -0.2647
12565W        W55477  22.920  31.215  28.360  0.0204 -0.3595 -0.0782
12566W        W55478  22.909  31.690  25.247  0.1964 -0.1403 -0.1532
12567W        W55479  24.201  30.321  23.854  0.1699  0.1652  0.0741
12568W        W55480  25.288  30.369  24.579 -0.2004  0.1636  0.0723
12569W        W55481  23.562  29.740  24.340  0.1287  0.0585 -0.1994
12570W        W55482  24.211  33.155  25.115  0.2581  0.0547  0.0270
12571W        W55483  21.262  27.367  26.811 -0.0984 -0.2789  0.0625
12572W        W55484  25.581  29.802  26.736  0.1117 -0.0032 -0.1943
12573W        W55485  25.842  31.864  25.740  0.1734  0.0115 -0.2525
12574W        W55486  23.270  32.332  23.892 -0.0342  0.1465  0.3472
12575W        W55487  23.721  29.589  27.998 -0.1272  0.0957  0.3310
12576W        W55488  24.065  32.603  25.303 -0.1577 -0.0169  0.0404
12577W        W55489  23.634  29.605  22.780  0.0120  0.4364  0.1818
12578W        W55490  22.034  29.584  24.744 -0.0917 -0.1037  0.1614
12579W        W55491  24.183  30.035  27.878 -0.1084 -0.0415 -0.0569
12580W        W55492  21.336  31.312  23.989  0.0351 -0.1053 -0.1731
12581W        W55493  24.335  29.459  27.268  0.1188 -0.0481 -0.1962
12582W        W55494  24.011  30.804  24.603  0.1655 -0.0784 -0.0892
12583W        W55495  24.310  32.707  24.904  0.2979 -0.0600  0.0316
12584W        W55496  23.795  30.494  25.578 -0.0098  0.0928  0.1295
12585W        W55497  25.326  29.152  27.535 -0.0887 -0.0349 -0.0081
12586W        W55498  24.602  32.674  25.266  0.0027 -0.1737  0.1674
12587W        W55499  23.093  29.343  23.015  0.1204 -0.0259  0.0335
12588W        W55500  22.863  29.859  25.737 -0.1245 -0.1076  0.0249
12589W        W55501  23.264  30.864  27.500 -0.0599  0.0531  0.1833
12590W        W55502  23.149  30.841  25.469 -0.2221 -0.1293  0.3251
12591W        W55503  24.627  30.913  25.501 -0.2508 -0.1908  0.2396
12592W        W55504  24.452  31.945  25.406  0.2674  0.0065 -0.3751
12593W        W55505  24.913  32.389  26.960  0.0700 -0.2019  0.1042
12594W        W55506  26.192  28.202  27.079  0.1333 -0.3495  0.0658
12595W        W55507  21.239  30.927  26.198  0.3972  0.3288  0.1271
12596W        W55508  20.700  31.539  25.196  0.2330 -0.0847 -0.1142
12597W        W55509  24.196  32.454  23.566 -0.2489 -0.0503  0.2681
12598W        W55510  25.709  30.797  24.925 -0.1113 -0.3298  0.1797
12599W        W55511  23.965  32.135  28.190 -0.1224  0.1904  0.2558
12600W        W55512  21.817  33.009  27.107  0.4177 -0.2033 -0.1114
12601W        W55513  21.396  31.451  25.997 -0.2585 -0.2888  0.2264
12602W        W55514  24.368  31.134  26.931  0.1241  0.0140  0.1472
12603W        W55515  22.897  32.864  25.588  0.1527  0.0655  0.0582
12604W        W55516  22.606  30.684  25.338  0.0267  0.0287  0.1965
12605W        W55517  23.422  31.580  26.074 -0.0200 -0.1473  0.4269
12606W        W55518  23.125  32.332  25.637  0.0927  0.1992  0.0306
12607W        W55519  25.108  30.758  27.745  0.1748  0.0261  0.2135
12608W        W55520  21.899  29.101  27.292  0.0286 -0.3434 -0.0296
12609W        W55521  21.969  31.656  24.747  0.2274  0.3220  0.0589
12610W        W55522  24.752  29.999  27.513  0.1070 -0.0192 -0.0116
12611W        W55523  22.528  32.881  24.261 -0.2785  0.2522  0.1127
12612W        W55524  23.702  31.126  23.768  0.2063  0.1192 -0.0067
12613W        W55525  24.737  29.917  22.948 -0.0116 -0.0016 -0.1742
12614W        W55526  24.534  30.230  24.308 -0.2030  0.0722 -0.0735
12615W        W55527  24.564  29.489  24.623 -0.0029  0.1212  0.2793
12616W        W55528  23.779  32.744  26.346  0.1699 -0.0283  0.1781
12617W        W55529  21.755  29.271  25.460  0.2097 -0.2321 -0.2858
12618W        W55530  25.050  30.376  25.833  0.1387 -0.1605 -0.0767
12619W        W55531  25.014  31.003  25.113  0.0743 -0.1715  0.1226
12620W        W55532  24.455  29.252  27.704 -0.1747  0.1840  0.0481
12621W        W55533  21.493  31.410  27.064  0.2768 -0.3689  0.4327
12622W        W55534  23.010  30.326  26.730  0.1160 -0.4474  0.1184
12623W        W55535  23.003  32.370  22.006 -0.3549  0.2319  0.1477
12624W        W55536  25.671  33.117  24.403 -0.1268 -0.1104  0.1406
12625W        W55537  23.690  32.401  23.293 -0.0495 -0.1943  0.1029
12626W        W55538  23.243  30.561  23.935  0.0999  0.0465 -0.0137
12627W        W55539  22.062  30.832  26.444  0.5117  0.0748 -0.1457
12628W        W55540  22.469  31.412  27.966 -0.0078  0.0870  0.0131
12629W        W55541  22.039  28.927  22.311 -0.0211  0.1678 -0.2814
12630W        W55542  25.573  32.456  28.291  0.0463  0.2701  0.0372
12631W        W55543  21.113  32.563  26.937 -0.2973  0.0396 -0.2639
12632W        W55544  25.067  30.002  24.970 -0.2547  0.0053 -0.0469
12633W        W55545  23.115  30.201  27.239 -0.0548 -0.2156 -0.4028
12634W        W55546  25.558  30.995  25.847  0.0688  0.1827  0.0418
12635W        W55547  25.336  30.689  23.893 -0.1980  0.2261 -0.0785
12636W        W55548  24.701  29.148  25.910 -0.0373 -0.0598  0.1383
12637W        W55549  24.613  29.739  27.980 -0.2197  0.1914  0.5381
12638W        W55550  22.223  30.381  24.049  0.0389  0.2644  0.0319
12639W        W55551  22.126  31.775  23.127  0.3859 -0.1576  0.0984
12640W        W55552  25.066  31.675  24.665 -0.0896 -0.1361  0.2006
12641W        W55553  25.258  30.999  23.417 -0.3770 -0.1378  0.3006
12642W        W55554  21.661  32.574  26.007 -0.0087  0.0624  0.1189
12643W        W55555  24.022  29.631  27.633 -0.1361  0.0428  0.2324
12644W        W55556  23.695  30.662  28.165 -0.2628 -0.0160 -0.1465
12645W        W55557  21.162  31.083  24.556 -0.1696 -0.0218 -0.1649
12646W        W55558  21.696  31.205  26.549  0.1947 -0.1538 -0.1889
12647W        W55559  21.620  31.420  25.172  0.2224  0.1225  0.0318
12648W        W55560  21.918  28.481  26.517  0.0237 -0.1608  0.3057
12649W        W55561  23.239  31.350  25.629 -0.1750  0.3405  0.0798
12650W        W55562  25.249  30.536  25.035 -0.0659 -0.1269  0.1409
12651W        W55563  22.675  29.374  25.736 -0.0115  0.2803 -0.0406
12652W        W55564  25.802  29.280  25.323 -0.0817  0.1261  0.0737
12653W        W55565  22.600  30.331  25.698 -0.1049 -0.0008  0.2747
12654W        W55566  26.053  32.486  24.962  0.0282  0.1229 -0.0402
12655W        W55567  25.060  29.263  23.603  0.0575  0.0037  0.1255
12656W        W55568  22.973  30.558  23.513  0.0812 -0.0198  0.1874
12657W        W55569  23.533  30.036  26.778  0.0259  0.1032  0.1246
12658W        W55570  24.217  31.698  25.831  0.2266  0.1064 -0.0140
12659W        W55571  22.292  29.743  27.321  0.2089  0.0731  0.1719
12660W        W55572  22.402  30.345  26.821  0.0073 -0.0247 -0.1231
12661W        W55573  24.029  30.753  26.087  0.0530  0.2421  0.0836
12662W        W55574  22.375  28.605  24.347 -0.0068 -0.0071  0.3347
12663W        W55575  23.411  31.935  25.691  0.2294 -0.0362  0.0782
12664W        W55576  22.397  31.625  25.905  0.0649  0.1935 -0.2048
12665W        W55577  21.632  31.066  24.735  0.2631  0.1369  0.4583
12666W        W55578  26.029  29.834  27.664 -0.0317 -0.1856 -0.1958
12667W        W55579  24.098  31.994  23.938  0.0462  0.0597  0.0141
12668W        W55580  26.461  32.430  27.836 -0.0972  0.0883  0.0751
12669W        W55581  24.987  30.957  26.047  0.3788  0.1236 -0.0666
12670W        W55582  23.375  28.857  26.069 -0.4914 -0.1761  0.1423
12671W        W55583  21.095  29.771  24.124 -0.0106  0.3556 -0.0275
12672W        W55584  21.520  31.952  26.046  0.0733  0.1025  0.1602
12673W        W55585  22.585  32.438  25.613  0.0737 -0.4578 -0.2004
12674W        W55586  22.806  30.042  22.641 -0.0609 -0.1294 -0.4126
12675W        W55587  25.266  33.884  25.006 -0.2072  0.1510 -0.1089
12676W        W55588  25.001  30.328  24.158  0.0942  0.1264  0.2883
12677W        W55589  21.512  30.586  26.594 -0.0278 -0.1061 -0.0521
12678W        W55590  23.683  27.569  27.520 -0.1227 -0.2555 -0.1852
12679W        W55591  25.817  30.921  27.223  0.0724  0.2355  0.0896
12680W        W55592  26.010  30.916  26.278  0.1908  0.0466  0.4429
12681W        W55593  21.595  28.756  25.538 -0.0916  0.0778 -0.1774
12682W        W55594  25.017  31.879  26.813  0.0348 -0.0995 -0.0670
12683W        W55595  21.576  32.660  25.054  0.3420  0.0016 -0.0817
12684W        W55596  20.573  30.920  25.115 -0.0095 -0.0903  0.1498
12685W        W55597  25.193  32.862  26.250 -0.0151 -0.0488 -0.0177
12686W        W55598  25.004  29.609  25.907 -0.2808  0.0545  0.3333
12687W        W55599  22.771  30.556  27.081  0.0439  0.1360 -0.2118
12688W        W55600  24.220  30.020  27.394  0.2184  0.1950  0.1016
12689W        W55601  21.864  28.856  24.120 -0.1842  0.0803  0.0169
12690W        W55602  21.620  31.917  27.345  0.0729  0.1466 -0.0643
12691W        W55603  24.808  28.802  23.750 -0.0283  0.0088  0.1792
12692W        W55604  24.038  29.929  24.895 -0.1321 -0.3106  0.0818
12693W        W55605  23.325  31.055  27.990 -0.3429  0.0480 -0.0780
12694W        W55606  23.967  32.136  25.607 -0.1280 -0.0804  0.2003
12695W        W55607  24.103  30.744  24.053 -0.1891  0.2282  0.2915
12696W        W55608  22.658  31.761  24.811  0.0681  0.1268  0.2734
12697W        W55609  21.177  31.654  27.443  0.2735  0.1410  0.0782
12698W        W55610  24.473  32.274  24.974 -0.0281  0.0918 -0.0062
12699W        W55611  24.415  32.176  26.245  0.0074  0.2877 -0.0307
12700W        W55612  24.205  29.485  23.542  0.0225  0.1035 -0.2369
12701W        W55613  25.124  32.520  25.060 -0.1708 -0.0501 -0.0610
12702W        W55614  22.436  31.871  26.299 -0.1989 -0.3890  0.1373
12703W        W55615  24.077  31.733  27.502 -0.1143  0.0067 -0.0658
12704W        W55616  22.792  31.389  26.053 -0.0064  0.2071  0.1320
12705W        W55617  24.094  28.530  26.585  0.0871 -0.0904 -0.0696
12706W        W55618  23.602  30.921  25.796  0.3522 -0.0065  0.0530
12707W        W55619  24.511  30.699  25.941  0.1588  0.3107  0.0702
12708W        W55620  20.856  32.702  25.730  0.1500 -0.0232 -0.0641
12709W        W55621  24.212  29.923  26.862  0.0066  0.1793  0.0476
12710W        W55622  25.270  28.591  24.945  0.0041 -0.0116 -0.1472
12711W        W55623  23.253  28.869  27.107  0.2027  0.1169 -0.1407
12712W        W55624  25.119  29.847  27.856 -0.2866  0.3138 -0.2972
12713W        W55625  24.586  30.868  24.872 -0.2262 -0.0522 -0.1131
12714W        W55626  24.311  30.777  26.504  0.2619 -0.2850  0.0739
12715W        W55627  23.224  32.150  25.065 -0.0902 -0.1528  0.4954
12716W        W55628  23.561  28.908  27.562  0.0588 -0.0405 -0.0385
12717W        W55629  22.367  32.030  25.609 -0.1014 -0.2667  0.1601
12718W        W55630  21.490  32.284  26.475 -0.1092  0.1705  0.1876
12719W        W55631  23.061  31.505  27.130  0.0645  0.0117  0.0213
12720W        W55632  25.831  31.748  25.274 -0.2863 -0.0862  0.4176
12721W        W55633  24.634  29.197  28.142 -0.1776 -0.4803  0.0276
12722W        W55634  23.940  30.000  22.756  0.1263 -0.0072  0.1581
12723W        W55635  24.404  31.697  26.448 -0.2807 -0.1158 -0.1408
12724W        W55636  22.666  32.152  25.129 -0.2180  0.0875  0.0387
12725W        W55637  23.717  28.505  25.767 -0.0393  0.2701 -0.1090
12726W        W55638  25.013  32.053  25.030  0.2190  0.0283 -0.1930
12727W        W55639  22.410  32.967  23.430  0.2846  0.1471 -0.1240
12728W        W55640  23.824  30.804  27.296  0.0567  0.1708  0.4367
12729W        W55641  21.633  32.567  26.844 -0.2022  0.0182  0.4013
12730W        W55642  25.001  29.305  25.477 -0.0590 -0.2485  0.1285
12731W        W55643  21.341  31.258  27.682  0.3674  0.0870 -0.0713
12732W        W55644  23.366  30.220  23.513  0.1800 -0.0519  0.1887
12733W        W55645  22.052  31.743  24.167 -0.1469  0.1521  0.1798
12734W        W55646  25.781  30.200  25.034 -0.3521  0.2515  0.1591
12735W        W55647  25.104  31.908  24.166  0.4424 -0.2339 -0.0798
12736W        W55648  23.465  29.982  25.653  0.0867  0.1368 -0.1988
12737W        W55649  24.094  28.500  24.559 -0.0563  0.0126  0.3341
12738W        W55650  21.076  32.871  26.572 -0.0926  0.0176 -0.0427
12739W        W55651  24.692  29.768  27.019 -0.1223 -0.0581 -0.2935
12740W        W55652  24.728  30.655  23.912 -0.0996 -0.2534  0.1716
12741W        W55653  25.023  32.693  28.329 -0.2392 -0.2587  0.0749
12742W        W55654  23.704  30.021  27.628 -0.0329  0.1955  0.0154
12743W        W55655  21.879  28.727  22.864 -0.0090 -0.0234  0.1258
12744W        W55656  24.435  29.012  25.192 -0.2535  0.1161  0.0620
12745W        W55657  23.500  30.204  24.309  0.0643  0.1243 -0.0444
12746W        W55658  21.614  32.853  26.382 -0.2080  0.1302  0.0403
12747W        W55659  24.743  31.423  24.989  0.1337 -0.0788  0.2134
12748W        W55660  22.524  31.918  24.343  0.0141 -0.0037 -0.1174
12749W        W55661  22.476  32.173  26.901  0.1257  0.1501  0.1881
12750W        W55662  23.582  29.324  26.103  0.3932  0.2618  0.1457
12751W        W55663  25.009  29.245  26.357  0.1023 -0.1520  0.1308
12752W        W55664  23.836  30.757  25.102 -0.0583  0.2547 -0.0105
12753W        W55665  22.204  30.384  24.660 -0.0316  0.1249 -0.1405
12754W        W55666  24.214  29.467  24.107  0.0707  0.0720 -0.1342
12755W        W55667  25.130  30.835  28.250  0.1964 -0.1126  0.5263
12756W        W55668  24.927  30.261  27.103  0.0717  0.0920  0.0978
12757W        W55669  22.332  32.005  27.388  0.0404  0.3132 -0.1293
12758W        W55670  25.066  28.349  25.923  0.0355 -0.0790 -0.1502
12759W        W55671  26.062  33.295  25.086 -0.0371 -0.1368 -0.1538
12760W        W55672  24.413  31.205  27.452  0.1522 -0.0000 -0.0610
12761W        W55673  21.975  32.149  25.230 -0.0345  0.3813 -0.2212
12762W        W55674  22.712  29.999  26.463  0.3230  0.2169 -0.2911
12763W        W55675  24.195  32.507  24.401  0.0855  0.0838  0.0233
12764W        W55676  23.874  29.677  25.944 -0.0017  0.1203  0.0635
12765W        W55677  21.984  31.849  26.156  0.0238  0.0456 -0.0649
12766W        W55678  22.304  32.508  25.194  0.0991  0.1073  0.2457
12767W        W55679  23.437  31.620  25.293  0.2760 -0.1204 -0.3750
12768W        W55680  26.034  28.748  24.232 -0.0459 -0.1991  0.0186
12769W        W55681  25.302  31.646  25.139 -0.0717 -0.0462  0.0299
12770W        W55682  24.290  29.502  25.041  0.1119 -0.0947 -0.0342
12771W        W55683  25.212  28.894  26.807 -0.2051  0.1363 -0.2047
12772W        W55684  24.956  32.640  23.015  0.0320  0.0872 -0.1897
12773W        W55685  24.179  27.628  27.812 -0.1119 -0.0136 -0.3036
12774W        W55686  23.310  29.422  27.002 -0.2632 -0.1400 -0.0229
12775W        W55687  25.056  32.904  25.338  0.2321 -0.0613 -0.1488
12776W        W55688  22.992  30.285  25.453 -0.1807 -0.1975  0.1080
12777W        W55689  23.223  32.613  27.712  0.4479 -0.1846  0.2420
12778W        W55690  21.466  29.607  27.481  0.0852  0.0869 -0.0067
12779W        W55691  23.701  30.386  23.900  0.0105 -0.4088 -0.0435
12780W        W55692  23.527  29.840  24.823  0.1281 -0.0391 -0.3355
12781W        W55693  21.257  31.504  26.613  0.1527 -0.1383 -0.3698
12782W        W55694  24.966  31.768  25.496  0.2210 -0.1357 -0.3095
12783W        W55695  24.249  31.617  24.950  0.1929  0.1526 -0.4287
12784W        W55696  23.718  28.738  24.260  0.2127 -0.4187 -0.1001
12785W        W55697  22.502  31.017  26.270 -0.2733  0.1338  0.0205
12786W        W55698  25.465  31.180  25.321 -0.1949 -0.0490  0.2411
12787W        W55699  24.192  31.085  25.206 -0.1881  0.2934  0.0102
12788W        W55700  24.294  30.630  25.373  0.0884 -0.1038  0.0103
12789W        W55701  22.980  29.495  26.578  0.2667  0.2158  0.4439
12790W        W55702  24.689  30.680  27.371  0.0835 -0.0633 -0.1957
12791W        W55703  24.487  31.421  25.401  0.1571  0.0393 -0.0811
12792W        W55704  25.599  28.560  27.280  0.2234 -0.4803 -0.0734
12793W        W55705  24.677  31.117  26.437  0.4248 -0.0909  0.0450
12794W        W55706  24.185  29.497  26.612  0.0797 -0.0070  0.0640
12795W        W55707  23.078  30.513  26.277  0.2361 -0.0101 -0.2162
12796W        W55708  24.557  31.675  27.727 -0.0551  0.1690 -0.0387
12797W        W55709  24.677  31.369  22.716  0.2233 -0.0256 -0.3534
12798W        W55710  24.622  30.211  25.746 -0.3445 -0.2324 -0.0100
12799W        W55711  24.325  31.222  24.578 -0.3120  0.2966 -0.0482
12800W        W55712  25.037  31.025  24.121 -0.1110  0.0982 -0.1675
12801W        W55713  22.373  30.797  24.894  0.0904  0.1489  0.2707
12802W        W55714  24.289  30.609  26.993  0.0527  0.0428 -0.0272
12803W        W55715  22.105  30.271  22.887  0.1118  0.2477  0.1980
12804W        W55716  23.890  30.214  29.572  0.0057  0.4128  0.1257
12805W        W55717  23.941  31.735  25.323 -0.1922  0.0262  0.0377
12806W        W55718  24.580  31.316  25.924  0.2217  0.1849 -0.0296
12807W        W55719  23.720  31.469  25.697 -0.0217  0.1027 -0.0704
12808W        W55720  22.020  29.971  24.350 -0.1018 -0.0657 -0.2854
12809W        W55721  21.030  31.776  27.905 -0.1237  0.0843  0.2301
12810W        W55722  22.418  29.595  24.310 -0.1020 -0.1435  0.0387
12811W        W55723  23.186  31.294  24.998 -0.0884 -0.4174  0.0270
12812W        W55724  23.833  31.520  27.125  0.1509 -0.1341 -0.0438
12813W        W55725  25.603  31.830  26.982 -0.0969  0.2932 -0.0480
12814W        W55726  23.721  30.357  23.075 -0.2947 -0.0827  0.3141
12815W        W55727  25.255  29.815  27.204  0.4054  0.1144 -0.0528
12816W        W55728  21.930  31.626  25.672 -0.3829 -0.3667 -0.2021
12817W        W55729  24.651  29.712  26.533  0.0848  0.0158  0.3021
12818W        W55730  20.910  33.010  27.106 -0.1442  0.0005  0.1294
12819W        W55731  21.288  32.207  28.246 -0.0116 -0.1719 -0.2139
12820W        W55732  21.639  32.956  25.650  0.1550  0.3894  0.3973
12821W        W55733  25.149  29.516  26.819 -0.0251 -0.0805 -0.1191
12822W        W55734  25.023  29.910  25.492  0.1021 -0.1317  0.2759
12823W        W55735  23.623  30.948  26.365 -0.1945  0.1331 -0.2111
12824W        W55736  25.164  31.060  26.608 -0.0688 -0.0479  0.0162
12825W        W55737  23.995  30.273  26.519  0.3436 -0.0521  0.0370
12826W        W55738  21.875  30.020  27.589  0.2892 -0.1613 -0.1902
12827W        W55739  22.797  31.981  27.226  0.0195 -0.0116 -0.0251
12828W        W55740  24.504  29.976  24.743 -0.0394 -0.1323 -0.2918
12829W        W55741  23.165  31.027  26.008  0.0709  0.2953 -0.3128
12830W        W55742  21.518  28.834  27.017  0.1385  0.0685 -0.1277
12831W        W55743  23.774  31.683  28.634  0.0953  0.3433 -0.1491
12832W        W55744  23.481  32.059  26.380  0.3490  0.1169  0.1908
12833W        W55745  23.042  29.144  24.687 -0.2019 -0.1652  0.3319
12834W        W55746  23.830  32.615  24.709 -0.1828  0.1042 -0.1154
12835W        W55747  22.239  33.143  27.899 -0.3072  0.0753 -0.1992
12836W        W55748  21.745  31.678  26.565 -0.1953 -0.0149 -0.5225
12837W        W55749  22.489  33.338  24.674 -0.0116  0.1930  0.0355
12838W        W55750  24.907  31.737  23.510  0.2197  0.2931 -0.0848
12839W        W55751  23.988  31.527  23.606 -0.0343  0.0393 -0.1425
12840W        W55752  26.068  32.150  27.677  0.3252 -0.0004  0.2232
12841W        W55753  22.748  30.559  23.994  0.2154  0.1240 -0.2557
12842W        W55754  22.557  32.731  26.038  0.2177 -0.3700 -0.0853
12843W        W55755  22.364  32.227  24.742 -0.0718 -0.1346 -0.1691
12844W        W55756  23.176  31.718  24.688 -0.0465 -0.2492  0.2240
12845W        W55757  23.001  32.875  24.783  0.3044 -0.1578  0.1768
12846W        W55758  25.987  31.441  27.099  0.0646  0.4570  0.1250
12847W        W55759  25.639  28.889  22.863 -0.0093  0.0021 -0.2266
12848W        W55760  24.567  29.692  25.394  0.0249  0.1663 -0.1833
12849W        W55761  25.490  29.504  23.779  0.3142 -0.1205  0.1291
12850W        W55762  25.319  30.632  27.182  0.0131  0.3469 -0.0755
12851W        W55763  24.275  30.454  27.624 -0.0671  0.0618 -0.1188
12852W        W55764  23.579  30.679  23.505 -0.0355  0.1243 -0.2377
12853W        W55765  23.325  30.660  27.005 -0.1704 -0.0755  0.0079
12854W        W55766  24.957  29.597  28.313 -0.0809  0.3037  0.2799
12855W        W55767  22.146  32.168  28.245  0.0726  0.2506  0.1475
12856W        W55768  24.509  32.149  24.369  0.0849 -0.2536 -0.2528
12857W        W55769  23.103  30.125  24.728  0.2947 -0.0251 -0.0177
12858W        W55770  23.151  29.889  25.179  0.0198 -0.2016  0.1053
12859W        W55771  24.218  29.839  26.287  0.1255 -0.1347 -0.1480
12860W        W55772  23.690  31.196  25.239  0.0538 -0.1122 -0.2415
12861W        W55773  21.709  30.521  24.373  0.0136 -0.5524 -0.1660
12862W        W55774  24.634  31.856  24.792 -0.4159 -0.0256  0.0082
12863W        W55775  22.712  31.325  25.577  0.0924  0.0511 -0.3181
12864W        W55776  22.806  31.840  26.737 -0.2098  0.3514 -0.0106
12865W        W55777  21.890  28.705  24.599  0.2812 -0.1939  0.5828
12866W        W55778  24.797  30.395  24.755  0.0091  0.0313 -0.2955
12867W        W55779  22.849  30.524  27.633  0.0094  0.0606 -0.2594
12868W        W55780  24.698  29.234  26.768 -0.1982  0.1257  0.2012
12869W        W55781  22.689  30.382  24.875 -0.1494  0.0583  0.0337
12870W        W55782  24.540  28.956  23.227  0.1674  0.0213  0.0471
12871W        W55783  25.420  31.517  27.422 -0.2477 -0.0016 -0.0770
12872W        W55784  23.903  30.912  26.756 -0.2414  0.0196 -0.0606
12873W        W55785  23.700  31.710  24.823 -0.0571 -0.1733  0.1483
12874W        W55786  25.076  30.053  26.692  0.1380 -0.0707  0.2275
12875W        W55787  23.166  31.814  23.824  0.1763  0.3005  0.0848
12876W        W55788  25.401  31.130  27.022 -0.0417 -0.1895 -0.1995
12877W        W55789  22.542  28.845  24.832  0.1312 -0.0418 -0.0825
12878W        W55790  23.730  28.703  23.701 -0.0275 -0.1717 -0.3390
12879W        W55791  23.264  30.546  25.084  0.1628  0.1309  0.0970
12880W        W55792  22.257  31.452  26.524  0.0151 -0.0146 -0.1169
12881W        W55793  25.682  32.836  26.986  0.0107  0.3302  0.2528
12882W        W55794  21.965  28.700  25.175  0.0817  0.1026  0.0474
12883W        W55795  25.295  32.438  24.227  0.1896  0.0129 -0.1003
12884W        W55796  24.257  30.475  24.845  0.2553  0.1152  0.0169
12885W        W55797  22.578  32.680  24.701  0.1462  0.1470  0.3554
12886W        W55798  24.879  31.245  24.509 -0.0406  0.1571  0.3185
12887W        W55799  25.024  31.305  25.588  0.0112 -0.2291 -0.0134
12888W        W55800  21.516  29.414  26.949  0.0140 -0.0235 -0.0052
12889W        W55801  25.455  31.487  25.704  0.0919  0.0231  0.0210
12890W        W55802  26.107  32.082  26.566 -0.1230  0.0379 -0.0970
12891W        W55803  24.600  29.279  23.767  0.1009 -0.2174 -0.1348
12892W        W55804  23.306  29.066  26.567  0.0603 -0.4483  0.0746
12893W        W55805  24.256  32.731  26.126 -0.1197  0.4374 -0.2281
12894W        W55806  24.969  29.923  24.495  0.1205 -0.0954  0.3413
12895W        W55807  24.447  30.340  26.264  0.0867  0.1944 -0.2365
12896W        W55808  23.599  33.616  23.974 -0.0471 -0.5645  0.0198
12897W        W55809  25.305  28.239  27.491  0.2358 -0.0340  0.0031
12898W        W55810  22.738  31.335  26.585 -0.1426  0.2283  0.0987
12899W        W55811  23.253  31.453  26.517  0.0753 -0.1533 -0.4157
12900W        W55812  22.687  30.125  23.717  0.2417  0.0522 -0.1867
12901W        W55813  21.979  32.071  26.720 -0.0917 -0.1500 -0.0567
12902W        W55814  23.533  30.445  27.502  0.3017  0.0166  0.1269
12903W        W55815  24.649  33.086  24.833 -0.4530 -0.0216  0.2033
12904W        W55816  23.853  31.407  26.597  0.1179 -0.0396 -0.1442
12905W        W55817  24.013  31.276  24.169 -0.2159 -0.4813  0.1251
12906W        W55818  26.407  31.258  26.016 -0.1248  0.3143  0.0557
12907W        W55819  23.584  29.094  23.287  0.1915 -0.0798  0.0417
12908W        W55820  24.855  28.085  24.327  0.0212 -0.0966  0.3405
12909W        W55821  24.595  28.645  24.256 -0.1812  0.0399 -0.3616
12910W        W55822  23.298  29.830  27.785 -0.1766  0.0500  0.2288
12911W        W55823  21.370  30.251  24.197 -0.0218  0.2473  0.2154
12912W        W55824  21.785  31.406  23.773 -0.2703 -0.2723 -0.1702
12913W        W55825  21.733  30.659  26.084 -0.2547 -0.1852 -0.1380
12914W        W55826  24.166  29.886  28.852  0.1972 -0.0456  0.0596
12915W        W55827  24.200  29.332  25.523  0.0718 -0.0992  0.1436
12916W        W55828  21.151  31.925  26.432  0.1251  0.0816 -0.1126
12917W        W55829  23.629  30.425  24.711  0.3534  0.0381 -0.1117
12918W        W55830  26.512  33.241  24.325  0.0258  0.2870 -0.1059
12919W        W55831  22.046  29.423  25.885  0.0812 -0.2269 -0.2228
12920W        W55832  22.023  29.536  26.421  0.2023 -0.0933  0.2818
12921W        W55833  26.213  31.181  24.701 -0.2021 -0.0638  0.1006
12922W        W55834  25.292  31.227  24.745  0.0247  0.1214 -0.2565
12923W        W55835  23.392  28.883  25.051  0.1319  0.2255 -0.1341
12924W        W55836  24.854  31.433  26.869 -0.3377  0.4010  0.1350
12925W        W55837  22.569  31.152  25.156 -0.0806 -0.0844  0.0892
12926W        W55838  23.693  29.058  26.999 -0.0236  0.0898 -0.0088
12927W        W55839  23.885  29.549  27.049  0.2133 -0.3719 -0.0062
12928W        W55840  22.934  30.058  22.123 -0.3560 -0.1097  0.0735
12929W        W55841  24.115  31.103  25.709  0.3313  0.0985  0.3318
12930W        W55842  25.035  30.780  24.565 -0.1696  0.0514 -0.0731
12931W        W55843  24.908  31.506  23.998  0.2875 -0.1362 -0.0329
12932W        W55844  23.793  31.222  27.527 -0.0397  0.0058  0.3120
12933W        W55845  22.995  31.807  26.266 -0.0267 -0.0131  0.1565
12934W        W55846  22.493  28.078  25.305  0.2825  0.0122 -0.3611
12935W        W55847  25.273  31.439  24.285  0.0665  0.0492 -0.1254
12936W        W55848  22.052  31.636  27.012 -0.1182 -0.0884 -0.3714
12937W        W55849  24.553  31.644  24.364 -0.1495  0.0834 -0.1312
12938W        W55850  25.234  29.030  25.856 -0.2313 -0.2202  0.1747
12939W        W55851  24.110  31.295  26.204 -0.3104 -0.2980  0.1261
12940W        W55852  22.866  29.695  27.420  0.0053  0.1803 -0.0248
12941W        W55853  22.239  31.206  25.518 -0.3245  0.2116 -0.0362
12942W        W55854  25.122  30.784  25.560 -0.1434 -0.2888  0.0150
12943W        W55855  21.839  29.558  23.554  0.1718 -0.3714  0.3233
12944W        W55856  23.999  30.329  24.321  0.0224 -0.0079 -0.0434
12945W        W55857  24.768  31.087  23.656  0.2727  0.1910 -0.0005
12946W        W55858  21.409  31.949  26.897  0.0337  0.2094  0.1185
12947W        W55859  23.448  30.932  24.857 -0.1651 -0.1127 -0.1490
12948W        W55860  23.384  29.806  27.304 -0.1696 -0.0364 -0.0317
12949W        W55861  21.934  32.496  26.430 -0.1247 -0.2982 -0.0360
12950W        W55862  26.285  31.609  27.492  0.1297  0.0205 -0.1390
12951W        W55863  22.348  31.324  24.582  0.2109  0.3067 -0.1050
12952W        W55864  24.533  30.410  23.274 -0.4188 -0.0437 -0.0991
12953W        W55865  22.996  32.366  26.829 -0.3939 -0.0632 -0.0129
12954W        W55866  26.762  31.913  27.696 -0.3430  0.0725  0.2938
12955W        W55867  24.004  31.944  26.764  0.1032  0.0628  0.0343
12956W        W55868  25.166  30.513  26.756 -0.0203  0.3959  0.2066
12957W        W55869  23.717  30.265  26.066 -0.3310  0.3143 -0.2747
12958W        W55870  22.869  31.851  25.750  0.2212  0.1428 -0.0835
12959W        W55871  23.929  31.800  26.239  0.1262 -0.0862 -0.1664
12960W        W55872  24.897  28.741  26.167 -0.2325  0.1898 -0.1218
12961W        W55873  23.312  30.492  25.853 -0.0304  0.0901 -0.1845
12962W        W55874  24.017  29.786  25.359 -0.0850 -0.1309 -0.2774
12963W        W55875  23.406  32.600  25.970 -0.1091 -0.0278 -0.0165
12964W        W55876  23.829  30.365  27.024  0.0366 -0.1231  0.0570
12965W        W55877  22.527  31.582  31.204 -0.2024 -0.0385  0.1091
12966W        W55878  22.081  29.410  28.924  0.4240 -0.2717  0.2457
12967W        W55879  25.485  31.044  27.567  0.2433  0.0936 -0.1428
12968W        W55880  24.817  29.873  29.946  0.1446  0.2035  0.3688
12969W        W55881  21.116  29.701  27.972  0.3831 -0.2275  0.0780
12970W        W55882  24.551  33.390  27.979  0.1999 -0.1191 -0.1457
12971W        W55883  21.653  29.047  30.597 -0.2368 -0.0761 -0.0569
12972W        W55884  24.180  30.801  29.801  0.2003 -0.2074 -0.0865
12973W        W55885  24.544  34.090  30.182  0.2195  0.0161 -0.2711
12974W        W55886  23.259  31.853  27.604 -0.0384 -0.1038 -0.3201
12975W        W55887  23.064  30.369  29.878  0.1885  0.1849 -0.1335
12976W        W55888  21.924  32.520  29.464 -0.0582 -0.0042  0.2920
12977W        W55889  23.351  29.080  29.262  0.1385 -0.2512  0.0670
12978W        W55890  22.149  28.586  27.664 -0.0832 -0.1350 -0.3171
12979W        W55891  24.574  32.922  29.878  0.1491  0.0146 -0.1811
12980W        W55892  21.753  30.720  29.151 -0.1070  0.2381 -0.1639
12981W        W55893  22.596  30.752  28.615  0.0509 -0.0957  0.3289
12982W        W55894  22.388  28.065  28.783 -0.0073  0.1282 -0.1311
12983W        W55895  22.662  34.349  28.572 -0.0634  0.1731  0.5193
12984W        W55896  23.734  30.503  30.417  0.0753  0.1744 -0.2748
12985W        W55897  23.630  29.687  31.443 -0.0539 -0.0487  0.1484
12986W        W55898  22.587  32.367  28.105 -0.0936 -0.1668 -0.2915
12987W        W55899  22.021  31.217  24.994  0.3028  0.4204  0.1100
12988W        W55900  21.081  30.493  29.100 -0.0370 -0.1058  0.2751
12989W        W55901  22.777  29.087  29.323  0.1582 -0.1052  0.4923
12990W        W55902  24.744  29.794  29.296 -0.0451  0.1631 -0.0258
12991W        W55903  24.373  30.974  28.933 -0.0741  0.2100  0.0135
12992W        W55904  24.350  32.721  30.290 -0.3798 -0.0944 -0.1687
12993W        W55905  22.035  33.204  28.915 -0.1737  0.0088  0.1897
12994W        W55906  25.110  31.221  31.921 -0.1060 -0.2550 -0.0162
12995W        W55907  21.545  31.209  29.068  0.2633 -0.0106  0.0517
12996W        W55908  22.233  30.783  29.323  0.0539  0.5113 -0.0864
12997W        W55909  23.126  31.385  27.692 -0.0341 -0.0666  0.1301
12998W        W55910  24.129  33.344  27.349 -0.1411  0.3148 -0.0832
12999W        W55911  24.598  32.258  30.188  0.0282 -0.0861 -0.0202
13000W        W55912  21.658  33.072  31.447  0.0897  0.3295 -0.4035
13001W        W55913  20.762  31.753  26.689  0.1190 -0.3514  0.3009
13002W        W55914  22.737  33.345  31.141  0.0502  0.2131 -0.1989
13003W        W55915  22.429  31.132  31.854 -0.0794  0.2743  0.2819
13004W        W55916  22.125  30.663  28.359  0.0446 -0.0246 -0.0376
13005W        W55917  24.348  32.618  29.063  0.3140 -0.0306  0.0449
13006W        W55918  22.661  33.826  28.400 -0.0066  0.3431 -0.1576
13007W        W55919  23.486  31.494  28.181 -0.1363 -0.4435  0.0201
13008W        W55920  22.746  32.858  29.996 -0.0138  0.0924  0.2767
13009W        W55921  21.921  30.201  29.157  0.2969  0.2625  0.0120
13010W        W55922  25.363  29.930  31.251 -0.0798  0.1282  0.0594
13011W        W55923  22.814  32.160  27.684 -0.0250  0.1655  0.2866
13012W        W55924  23.814  30.880  29.051 -0.0471 -0.2180 -0.3305
13013W        W55925  21.724  29.321  29.222 -0.0758  0.0683  0.1189
13014W        W55926  24.303  31.007  28.394 -0.1290  0.1729  0.1296
13015W        W55927  22.488  29.190  31.351  0.5806 -0.0514 -0.2786
13016W        W55928  22.050  30.849  29.880 -0.1027 -0.3136 -0.3820
13017W        W55929  23.025  30.169  30.491  0.1894  0.0352 -0.0941
13018W        W55930  25.986  31.549  30.562  0.0116  0.1800  0.2395
13019W        W55931  22.229  29.920  26.719  0.0278  0.1263  0.3106
13020W        W55932  23.804  29.535  30.076 -0.1427  0.0873  0.1147
13021W        W55933  22.634  33.052  30.708  0.1642  0.0025 -0.1027
13022W        W55934  20.492  29.932  29.907 -0.0255  0.0738  0.0099
13023W        W55935  23.665  32.030  27.123  0.1828  0.0761  0.0292
13024W        W55936  24.975  34.106  28.892  0.1742  0.1855  0.1857
13025W        W55937  23.442  31.944  28.924  0.3851 -0.0796 -0.0043
13026W        W55938  21.609  30.472  28.334 -0.2539  0.1487 -0.1767
13027W        W55939  22.669  29.990  29.806 -0.1676  0.1005  0.0190
13028W        W55940  21.795  30.372  30.663  0.0028 -0.0256 -0.1870
13029W        W55941  22.205  27.989  25.688 -0.2965  0.0089 -0.2401
13030W        W55942  24.641  33.382  30.280 -0.2708 -0.0710  0.4365
13031W        W55943  21.431  30.953  29.826  0.0625  0.4626 -0.0078
13032W        W55944  24.694  28.484  29.947  0.1590 -0.0121 -0.3291
13033W        W55945  23.281  31.546  28.656  0.2907 -0.0853 -0.4246
13034W        W55946  24.270  31.809  28.825  0.0042 -0.0000 -0.2281
13035W        W55947  22.451  31.027  26.832 -0.1452  0.0742 -0.0864
13036W        W55948  24.415  28.082  31.227 -0.1244 -0.1152 -0.2164
13037W        W55949  25.539  28.376  30.992 -0.1582  0.1199  0.2452
13038W        W55950  23.969  30.695  28.591 -0.0400  0.1750 -0.0701
13039W        W55951  24.267  31.292  27.934  0.2066  0.1314 -0.1802
13040W        W55952  25.065  31.162  30.217  0.1011 -0.0336 -0.3334
13041W        W55953  24.954  31.569  26.282 -0.0564 -0.1703 -0.3022
13042W        W55954  20.978  31.386  30.571 -0.1837 -0.0171 -0.0163
13043W        W55955  24.289  30.009  30.931  0.1355  0.1540 -0.0419
13044W        W55956  23.960  31.815  29.918 -0.1517  0.0379  0.1815
13045W        W55957  22.595  32.936  28.178 -0.1944  0.0007 -0.0802
13046W        W55958  20.592  30.224  28.327  0.2641  0.1038  0.0697
13047W        W55959  21.703  30.477  27.865  0.0567  0.1125  0.2546
13048W        W55960  20.815  30.245  30.165 -0.0348 -0.3093 -0.2019
13049W        W55961  22.713  32.876  31.241  0.3022 -0.0462  0.1191
13050W        W55962  25.043  29.348  27.871 -0.0858  0.0571  0.1135
13051W        W55963  22.048  28.767  29.226  0.1401  0.1530 -0.1082
13052W        W55964  25.281  28.793  29.243 -0.0994  0.0746 -0.2008
13053W        W55965  22.273  31.199  28.422 -0.0488 -0.0860 -0.1373
13054W        W55966  26.168  32.425  29.088 -0.0665  0.1139 -0.3685
13055W        W55967  25.535  30.189  27.019 -0.0312  0.2114  0.0019
13056W        W55968  26.285  32.580  26.415 -0.0943 -0.2553  0.2233
13057W        W55969  21.146  30.084  29.816 -0.0736 -0.0659  0.2422
13058W        W55970  21.462  30.257  28.887 -0.1427  0.1283  0.0214
13059W        W55971  24.011  30.119  30.559  0.3811  0.0949  0.2488
13060W        W55972  20.757  28.858  29.139 -0.0508  0.0869  0.3777
13061W        W55973  23.944  30.388  31.076  0.2586 -0.0060 -0.0747
13062W        W55974  22.450  28.326  28.410  0.2756  0.0779  0.2733
13063W        W55975  26.185  30.842  29.061  0.3421 -0.0492  0.4014
13064W        W55976  21.880  30.124  28.675  0.1011  0.0471  0.0651
13065W        W55977  22.151  32.154  29.738  0.1457  0.2427 -0.1214
13066W        W55978  24.290  29.958  30.090  0.0362 -0.0258  0.1176
13067W        W55979  24.071  32.634  28.627  0.1601 -0.0268 -0.1003
13068W        W55980  25.590  30.598  31.906  0.1294  0.1145 -0.0303
13069W        W55981  23.987  33.075  30.501  0.1523 -0.2290 -0.1853
13070W        W55982  23.633  29.722  29.618  0.0733 -0.1684 -0.2264
13071W        W55983  22.965  29.515  28.009 -0.4642  0.1475  0.0855
13072W        W55984  22.294  33.329  29.281 -0.3062 -0.0884 -0.0465
13073W        W55985  21.640  33.058  28.685 -0.0887 -0.1026 -0.3693
13074W        W55986  20.958  29.975  29.348  0.1488 -0.1269  0.0804
13075W        W55987  25.288  32.392  29.392 -0.0621  0.1892 -0.4868
13076W        W55988  22.699  32.659  27.687 -0.0150  0.0856  0.2586
13077W        W55989  23.297  29.346  28.382 -0.1071  0.0580  0.0525
13078W        W55990  23.635  29.233  28.719 -0.0414  0.0580 -0.2210
13079W        W55991  27.262  30.684  29.334 -0.0844 -0.0684 -0.2334
13080W        W55992  23.975  29.151  27.909  0.0121  0.2046 -0.0046
13081W        W55993  22.559  29.516  26.197 -0.1327 -0.1006 -0.0728
13082W        W55994  25.186  33.432  30.002 -0.2660 -0.0214  0.0791
13083W        W55995  22.863  30.373  28.411 -0.2242  0.0462  0.2037
13084W        W55996  22.439  30.342  29.214  0.1839 -0.2761  0.1565
13085W        W55997  23.749  31.773  27.875  0.1564 -0.0386 -0.0878
13086W        W55998  24.954  27.673  29.585 -0.1238 -0.0931  0.0020
13087W        W55999  20.547  30.809  31.481 -0.2629 -0.3418  0.0301
13088W        W56000  22.693  30.729  30.227 -0.3429 -0.1868 -0.0919
13089W        W56001  21.760  29.430  28.424  0.1796 -0.2503 -0.0224
13090W        W56002  22.566  30.150  30.308 -0.2706 -0.1171  0.2604
13091W        W56003  24.555  29.629  28.592  0.5659  0.1836  0.0063
13092W        W56004  25.353  28.882  26.311  0.3242  0.4182  0.2153
13093W        W56005  23.423  32.178  29.369 -0.2695  0.0844  0.0471
13094W        W56006  23.199  33.326  30.554  0.2134  0.3165  0.0187
13095W        W56007  25.417  29.142  28.164 -0.3043  0.1745 -0.2134
13096W        W56008  24.842  29.212  28.585 -0.3390 -0.0743 -0.0153
13097W        W56009  22.995  30.387  29.385 -0.1479  0.0995 -0.1508
13098W        W56010  25.973  33.440  29.450 -0.0472  0.1973  0.2054
13099W        W56011  23.559  33.449  29.506  0.1064 -0.3592 -0.2786
13100W        W56012  24.286  28.676  27.638 -0.3179  0.0929 -0.0184
13101W        W56013  24.952  33.129  28.881  0.3212 -0.3033  0.2457
13102W        W56014  20.243  31.433  29.721 -0.4195 -0.2307 -0.0676
13103W        W56015  23.761  31.724  31.056 -0.0122  0.1223  0.0491
13104W        W56016  24.024  33.526  30.747  0.3794  0.5284  0.1154
13105W        W56017  21.332  29.665  29.477 -0.0752 -0.1639  0.3594
13106W        W56018  22.652  30.042  27.128 -0.0414 -0.3721  0.1573
13107W        W56019  22.018  28.926  29.682 -0.0635  0.1363 -0.1390
13108W        W56020  21.452  33.546  28.179  0.3347 -0.0958  0.3368
13109W        W56021  22.361  29.777  29.426 -0.0681  0.2664  0.2805
13110W        W56022  23.849  29.270  29.247 -0.0849  0.1671  0.2700
13111W        W56023  22.390  28.658  31.553  0.0973  0.0173 -0.1819
13112W        W56024  25.889  31.049  31.153 -0.3301 -0.1761  0.1519
13113W        W56025  25.945  29.892  27.130  0.0975 -0.1180  0.0663
13114W        W56026  24.344  30.022  28.350 -0.1243  0.0821 -0.4443
13115W        W56027  21.972  30.062  28.143 -0.1416  0.3812  0.2397
13116W        W56028  24.228  30.375   0.213 -0.1709 -0.0762  0.0540
13117W        W56029  20.590  31.261  31.045 -0.3180  0.0742 -0.1406
13118W        W56030  21.572  31.283  30.763 -0.3482  0.0202 -0.4014
13119W        W56031  24.296  30.757  31.257  0.1382 -0.0642 -0.1230
13120W        W56032  23.512  31.998  28.281  0.0723 -0.3129  0.2664
13121W        W56033  24.642  29.048  30.056  0.0310  0.0114  0.3635
13122W        W56034  23.355  29.288  27.896  0.3880 -0.1251  0.0285
13123W        W56035  22.375  33.010  27.369  0.0160  0.1971 -0.0700
13124W        W56036  22.291  32.475  27.523  0.2183 -0.3823  0.1175
13125W        W56037  22.132  29.068  27.913  0.0175  0.1347  0.0089
13126W        W56038  23.116  32.266  28.030 -0.2685  0.1203  0.1683
13127W        W56039  23.960  30.839  27.790 -0.2469 -0.0171  0.3542
13128W        W56040  25.369  31.180  29.164 -0.1932  0.1723  0.1641
13129W        W56041  19.823  31.329  28.836  0.1565 -0.2874  0.2161
13130W        W56042  24.632  29.198  30.511 -0.1736  0.1950 -0.1763
13131W        W56043  22.693  31.762  28.975 -0.1247 -0.0980  0.4698
13132W        W56044  22.304  29.820  27.840  0.1003 -0.1817  0.0755
13133W        W56045  20.014  30.504  29.089 -0.0570 -0.2249  0.1044
13134W        W56046  24.592  28.911  29.476  0.0196  0.1421  0.0850
13135W        W56047  24.805  31.868  28.817 -0.0975  0.2140  0.3506
13136W        W56048  20.750  28.592  30.542 -0.2286 -0.2943 -0.0182
13137W        W56049  23.062  29.024  30.908  0.2028  0.3741  0.3550
13138W        W56050  21.633  31.591  29.510 -0.1776 -0.2861 -0.2743
13139W        W56051  24.875  31.005  29.153  0.1275 -0.0669  0.0224
13140W        W56052  23.366  30.404  28.524 -0.1829 -0.0395 -0.1377
13141W        W56053  24.433  33.199  28.759 -0.0899  0.0482 -0.2886
13142W        W56054  22.857  31.277   0.027  0.0063 -0.2479  0.1161
13143W        W56055  22.864  29.102  26.978  0.0125 -0.2714 -0.1601
13144W        W56056  23.207  29.350  29.675 -0.0403  0.1624  0.0049
13145W        W56057  21.691  28.637  27.919  0.0049  0.0966  0.0551
13146W        W56058  22.087  30.595  28.867  0.1720 -0.1365  0.0001
13147W        W56059  23.240  33.142  29.102  0.3236  0.0915  0.0545
13148W        W56060  22.504  29.389  27.570 -0.1360  0.0925 -0.3211
13149W        W56061  22.095  32.174  29.048 -0.0516 -0.0103 -0.2422
13150W        W56062  22.973  30.713  30.628 -0.0379  0.4177 -0.1066
13151W        W56063  24.952  31.067  29.762  0.2265  0.1982  0.0645
13152W        W56064  22.289  29.325  29.941 -0.1913  0.4841  0.3416
13153W        W56065  22.099  28.496  28.788  0.0131 -0.0326  0.0812
13154W        W56066  23.861  29.697  28.517 -0.0125  0.2517 -0.1731
13155W        W56067  23.807  31.367  31.515  0.1671  0.2212 -0.0558
13156W        W56068  24.215  31.021  30.359  0.2037 -0.2338  0.2615
13157W        W56069  20.900  31.616  31.850 -0.1163 -0.0403 -0.1001
13158W        W56070  23.612  29.764  30.490  0.2538 -0.3474 -0.0254
13159W        W56071  25.663  31.804  26.197 -0.1022  0.0280 -0.0876
13160W        W56072  24.581  30.872  31.642  0.2265 -0.0544 -0.0173
13161W        W56073  22.026  30.525  27.370 -0.0920  0.0053  0.0385
13162W        W56074  22.205  30.650  31.092  0.2554 -0.2539  0.0536
13163W        W56075  23.833  31.170  28.143  0.0576  0.0112 -0.0102
13164W        W56076  23.776  30.057  30.115  0.2148  0.0060  0.3332
13165W        W56077  22.803  31.650  30.267  0.0416  0.1208  0.1223
13166W        W56078  22.452  30.206  27.551 -0.0794 -0.2801 -0.2886
13167W        W56079  22.377  30.842  30.544  0.0193 -0.0814 -0.1387
13168W        W56080  25.328  27.690  29.234  0.0507  0.2337 -0.0774
13169W        W56081  25.749  33.039  29.220  0.2447 -0.1295 -0.0103
13170W        W56082  22.185  29.145  28.491 -0.2072  0.2303  0.1624
13171W        W56083  24.639  29.674  30.360  0.1560  0.3453 -0.0420
13172W        W56084  24.292  32.089  27.813  0.0409  0.0065 -0.1779
13173W        W56085  24.215  28.902   0.253 -0.1041 -0.0298  0.3341
13174W        W56086  21.326  28.758  30.048 -0.1916  0.0295  0.4153
13175W        W56087  24.177  32.907  29.602  0.1407 -0.2578  0.0403
13176W        W56088  21.072  31.869   0.241 -0.1457  0.0757 -0.1255
13177W        W56089  23.136  31.993  31.572  0.2865 -0.0388 -0.3517
13178W        W56090  22.201  30.125  30.846  0.0682  0.0532 -0.1550
13179W        W56091  24.269  30.460  28.859 -0.3922  0.1068 -0.1779
13180W        W56092  23.753  28.685  28.443 -0.1785  0.1869  0.2932
13181W        W56093  22.580  31.364  29.187  0.3787 -0.0459  0.0286
13182W        W56094  25.596  31.354  30.305  0.0067 -0.3028 -0.1203
13183W        W56095  23.876  33.119  29.180  0.0510  0.1657 -0.1721
13184W        W56096  25.611  30.882  28.547 -0.2043  0.2389  0.2438
13185W        W56097  22.182  29.890  29.938  0.0622  0.1337 -0.1513
13186W        W56098  23.343  29.721  28.661 -0.2090  0.2883  0.0666
13187W        W56099  22.745  31.090  27.712 -0.3916 -0.3224 -0.1189
13188W        W56100  22.550  31.597  29.711 -0.1448  0.1607  0.3258
13189W        W56101  22.284  28.875  30.108  0.0740  0.0246  0.1608
13190W        W56102  24.182  28.957  26.974 -0.0234  0.0468  0.0891
13191W        W56103  25.045  30.253  30.467 -0.0612  0.1219  0.0167
13192W        W56104  23.840  30.232  28.631  0.2612  0.0204  0.0290
13193W        W56105  23.393  30.643  29.382 -0.0801 -0.4280  0.3494
13194W        W56106  22.985  31.818  29.720  0.0907  0.0502  0.1848
13195W        W56107  20.967  30.851  30.855 -0.0082 -0.2744 -0.0755
13196W        W56108  24.303  32.419  29.555 -0.3228 -0.2173 -0.2169
13197W        W56109  23.588  31.320  28.995 -0.1377  0.2201  0.2882
13198W        W56110  24.706  29.370  29.694  0.0079 -0.0174  0.2245
13199W        W56111  24.596  30.466  28.495  0.0208  0.1510  0.3499
13200W        W56112  24.180  30.535  28.150 -0.0661 -0.4474  0.2015
13201W        W56113  21.363  29.400  30.222  0.0043 -0.2545  0.1446
13202W        W56114  24.675  29.557  31.415 -0.0040  0.1043  0.0655
13203W        W56115  23.561  28.948  28.095  0.1000 -0.1852 -0.0304
13204W        W56116  24.128  29.625  30.563  0.0744 -0.3611 -0.1137
13205W        W56117  22.711  32.904  26.985  0.1373  0.2808  0.1488
13206W        W56118  24.204  32.984  28.253 -0.3706  0.2253  0.1056
13207W        W56119  23.655  29.093  29.695 -0.3289  0.1987 -0.1490
13208W        W56120  20.648  29.794  28.876  0.0231  0.0788  0.0351
13209W        W56121  22.434  32.096  30.676  0.2280  0.2110 -0.3912
13210W        W56122  21.526  29.421  26.347 -0.2376  0.1128  0.0554
13211W        W56123  22.734  31.611  27.510  0.3917 -0.0679 -0.1552
13212W        W56124  23.462  31.847  29.766  0.0102  0.0473  0.2129
13213W        W56125  24.604  30.801   0.141  0.1218 -0.0562 -0.0558
13214W        W56126  22.696  28.392  29.523  0.2119  0.1799  0.0284
13215W        W56127  25.617  31.169  31.912 -0.1281  0.0449  0.0131
13216W        W56128  22.148  31.804  27.795  0.1932 -0.0185 -0.0347
13217W        W56129  21.766  28.950  30.112  0.2426 -0.2308  0.0001
13218W        W56130  22.455  32.906  28.831  0.2413  0.0028 -0.1604
13219W        W56131  21.685  31.323  29.968  0.4092 -0.1379  0.1141
13220W        W56132  22.550  32.040  29.388 -0.0939  0.1090 -0.0550
13221W        W56133  23.197  29.659  29.284 -0.2852  0.1786 -0.2956
13222W        W56134  23.763  30.093  28.130  0.0278 -0.1974 -0.2432
13223W        W56135  24.172  30.629  29.346 -0.0032 -0.0671 -0.1010
13224W        W56136  24.771  30.491  31.201 -0.0286  0.0482  0.3101
13225W        W56137  24.032  31.241  31.130 -0.1688  0.1098  0.1742
13226W        W56138  22.413  29.004  28.924 -0.1366  0.0370 -0.0153
13227W        W56139  23.040  32.275  30.011  0.2477  0.1958 -0.0546
13228W        W56140  24.259  31.533  30.302 -0.0789  0.1930 -0.0746
13229W        W56141  22.471  31.040  29.703 -0.0662  0.1750 -0.0531
13230W        W56142  20.081  30.551  31.327  0.1172  0.1373 -0.2815
13231W        W56143  22.598  29.537  29.058 -0.0512  0.0192  0.0281
13232W        W56144  25.138  32.267  28.082  0.1478 -0.1655 -0.0976
13233W        W56145  22.524  29.311  28.067 -0.1141  0.1334  0.2439
13234W        W56146  22.979  31.730  28.027  0.2063  0.1563  0.2541
13235W        W56147  22.836  31.189  31.486 -0.1190  0.1254 -0.1893
13236W        W56148  21.885  31.745  30.609  0.0601  0.3743  0.0063
13237W        W56149  22.298  31.693  28.322 -0.2702 -0.0375  0.0142
13238W        W56150  24.484  31.014  29.443 -0.2531 -0.0916 -0.4210
13239W        W56151  24.930  31.586  27.343 -0.2475  0.1206 -0.2245
13240W        W56152  23.891  32.805  30.011 -0.1753  0.0451  0.2330
13241W        W56153  23.611  29.427  27.492  0.2823  0.0672 -0.0687
13242W        W56154  21.129  32.954  29.737 -0.0161 -0.1681  0.1953
13243W        W56155  21.752  30.933  28.649  0.3091 -0.0086 -0.2767
13244W        W56156  24.569  31.395  28.777 -0.1108 -0.0942  0.3496
13245W        W56157  22.944  30.796  29.630  0.1949  0.0576 -0.1737
13246W        W56158  22.925  32.230  30.482 -0.2594  0.0091 -0.0074
13247W        W56159  24.598  28.928  27.242 -0.1491 -0.0237  0.0473
13248W        W56160  24.766  30.609  29.572 -0.3278  0.1315  0.0659
13249W        W56161  24.753  30.558  28.978 -0.0123  0.1776  0.1079
13250W        W56162  23.421  31.539   0.391 -0.2622 -0.2708  0.3437
13251W        W56163  22.961  29.247  28.826  0.3265 -0.1628 -0.0940
13252W        W56164  23.281  28.749  28.548  0.1568 -0.0429  0.1129
13253W        W56165  22.366  29.678  31.143  0.4010 -0.3015 -0.0067
13254W        W56166  25.045  30.156  31.551 -0.1693  0.0652  0.0936
13255W        W56167  21.565  32.764  30.392  0.0248  0.0589 -0.0965
13256W        W56168  24.374  32.553  27.622  0.2046  0.0726 -0.0044
13257W        W56169  24.630  30.871  27.886 -0.1807 -0.0589  0.0687
13258W        W56170  22.953  31.322  29.862 -0.0394 -0.0215 -0.1193
13259W        W56171  24.633  28.107  29.563 -0.0132  0.2535 -0.0553
13260W        W56172  23.450  31.015  28.506 -0.3971 -0.0925  0.0519
13261W        W56173  22.760  29.976  29.308 -0.0451 -0.0581 -0.0527
13262W        W56174  22.885  30.102  27.881  0.1174  0.1399 -0.3524
13263W        W56175  22.685  30.818  29.107  0.0931  0.0862 -0.0796
13264W        W56176  21.655  32.231  29.869  0.0662  0.1954  0.1806
13265W        W56177  20.703  28.844  28.479  0.1255 -0.1033  0.3341
13266W        W56178  25.559  31.622  28.874  0.0830  0.2867 -0.1489
13267W        W56179  23.307  29.901  30.134  0.1041 -0.3982 -0.0391
13268W        W56180  23.793  30.962  30.152 -0.0994 -0.0805  0.0960
13269W        W56181  21.651  29.807  28.996  0.0875 -0.0413 -0.1397
13270W        W56182  23.105  31.179  29.075  0.1397 -0.1187  0.0761
13271W        W56183  22.808  29.843  28.757  0.2063  0.0620  0.3408
13272W        W56184  21.970  29.424  31.447  0.0194 -0.0951 -0.0562
13273W        W56185  24.107  31.405  29.082 -0.1435  0.0600 -0.0508
13274W        W56186  23.643  32.163  30.686  0.2876  0.0763  0.1554
13275W        W56187  24.600  30.350  26.723 -0.2773  0.4493  0.2157
13276W        W56188  22.769  33.532  30.684 -0.3211 -0.3484  0.2861
13277W        W56189  21.497  29.370  28.010  0.3692  0.3282  0.1519
13278W        W56190  23.508  28.604  29.357 -0.0692  0.1927  0.0538
13279W        W56191  22.275  29.702  28.394 -0.1523 -0.2226 -0.1327
13280W        W56192  23.629  30.464  29.890  0.0366  0.4014 -0.0305
13281W        W56193  24.747  32.536  30.650  0.2531 -0.2497  0.0657
13282W        W56194  21.055  28.779  29.524 -0.2542 -0.1445 -0.2015
13283W        W56195  25.213  31.921  27.661  0.1523 -0.2652 -0.0473
13284W        W56196  22.732  30.779  28.075  0.0529 -0.0987  0.2441
13285W        W56197  23.497  32.435  26.742 -0.0596 -0.1829  0.0033
13286W        W56198  24.978  31.489  29.054  0.0171 -0.0131 -0.4333
13287W        W56199  24.129  32.290  30.021 -0.3219  0.1101 -0.1268
13288W        W56200  20.914  29.658  29.951 -0.1204 -0.0619  0.0701
13289W        W56201  22.268  32.958  30.230 -0.1963  0.0490  0.4317
13290W        W56202  25.223  31.670  31.042  0.2956 -0.0306  0.1224
13291W        W56203  22.214  29.884  28.943 -0.0897  0.1373 -0.1705
13292W        W56204  23.133  31.644  29.227 -0.2437 -0.2606 -0.0022
13293W        W56205  21.690  31.855  28.912 -0.2166  0.2976 -0.1333
13294W        W56206  23.754  30.369  29.123 -0.1323  0.2752 -0.1679
13295W        W56207  23.212  30.898  30.043 -0.2514 -0.1251 -0.1537
13296W        W56208  21.460  32.403  27.279 -0.0424 -0.0752  0.3819
13297W        W56209  23.485  29.206  31.595 -0.0514  0.2433 -0.1341
13298W        W56210  23.046  31.116  30.958 -0.0115 -0.0404 -0.0070
13299W        W56211  22.889  32.847   0.534 -0.1545 -0.0183  0.1063
13300W        W56212  22.415  30.855  27.305  0.1493  0.0723  0.2088
13301W        W56213  22.374  29.647  30.475  0.0450  0.2502  0.0699
13302W        W56214  23.233  32.612  29.157 -0.0147 -0.0741 -0.0318
13303W        W56215  23.159  33.220  29.828 -0.2285  0.0320 -0.2678
13304W        W56216  25.144  33.633  29.001 -0.1624  0.1943  0.0661
13305W        W56217  21.876  29.783  29.555  0.2463  0.1818  0.1806
13306W        W56218  24.738  33.107  28.364 -0.1958  0.1940  0.1826
13307W        W56219  21.443  29.349  28.788  0.0227  0.0900 -0.1387
13308W        W56220  24.140  29.364  28.812  0.0518 -0.1033  0.2682
13309W        W56221  25.260  30.799  28.905 -0.1381  0.3170  0.0281
13310W        W56222  24.003  32.195  29.180 -0.2959 -0.0217 -0.2191
13311W        W56223  21.822  31.448  28.605 -0.1363 -0.2112  0.0984
13312W        W56224  22.838  31.047  27.130 -0.0311  0.0145 -0.0742
13313W        W56225  22.167  31.156  29.000 -0.0095 -0.0656 -0.2056
13314W        W56226  22.236  29.851  31.623 -0.1454 -0.1214  0.2634
13315W        W56227  22.706  29.876  30.857  0.1429 -0.3350 -0.0655
13316W        W56228  22.343  31.569  30.588 -0.0990 -0.1430 -0.0993
13317W        W56229  21.639  28.800  28.377  0.1678 -0.0568  0.1563
13318W        W56230  24.100  31.648  28.276  0.1443 -0.1955  0.0097
13319W        W56231  23.413  30.157  29.455  0.1357 -0.3975 -0.0283
13320W        W56232  20.334  29.125  28.349  0.0636  0.0542  0.1299
13321W        W56233  24.087  34.211  28.234  0.0114  0.1328 -0.1382
13322W        W56234  23.287  33.219  27.985 -0.0916  0.1653  0.0910
13323W        W56235  23.072  28.699  29.093 -0.1725  0.0956  0.0863
13324W        W56236  23.882  32.571  30.443 -0.0166  0.1661 -0.1933
13325W        W56237  23.284  30.414  27.957  0.0250 -0.1505  0.1910
13326W        W56238  22.748  29.492  29.592  0.5206 -0.0333  0.0677
13327W        W56239  21.385  30.071  30.791 -0.1031  0.1487  0.0614
13328W        W56240  20.003  28.480  27.417 -0.0596 -0.2431 -0.1275
13329W        W56241  22.944  29.018  28.275  0.1437  0.1940  0.1376
13330W        W56242  22.785  31.958  28.429 -0.3305  0.1036  0.1005
13331W        W56243  25.341  31.600  26.580  0.0525 -0.0129  0.1636
13332W        W56244  22.892  32.266  29.116  0.1716 -0.0633 -0.0253
13333W        W56245  23.194  31.981  30.891 -0.2070  0.1454  0.0946
13334W        W56246  20.405  30.000  29.428 -0.3887 -0.1731 -0.2253
13335W        W56247  23.335  31.329  29.553  0.0320  0.1274 -0.0750
13336W        W56248  23.466  30.227  30.703 -0.0789  0.0291  0.3037
13337W        W56249  25.307  32.768  28.999 -0.2870  0.1517  0.0914
13338W        W56250  23.951  28.354  29.531 -0.0315  0.0474  0.1353
13339W        W56251  24.271  30.130  29.255  0.0674  0.1878  0.2021
13340W        W56252  21.578  30.590  31.699 -0.1622 -0.2595  0.0763
13341W        W56253  22.540  31.173  30.854  0.1352  0.0863 -0.0796
13342W        W56254  23.948  31.211  28.665 -0.1882  0.1316 -0.1976
13343W        W56255  23.764  28.128  28.459  0.0584  0.3129  0.1006
13344W        W56256  23.671  29.798  29.046 -0.0550  0.0767  0.1448
13345W        W56257  24.547  31.883  28.408  0.0011  0.0103  0.0278
13346W        W56258  21.779  28.943  28.815  0.1423  0.0174  0.0245
13347W        W56259  22.662  29.910  28.297  0.1329 -0.0880 -0.0124
13348W        W56260  24.325  30.625  30.642  0.0419 -0.1494  0.3282
13349W        W56261  24.620  31.948  29.699  0.1336 -0.0165 -0.0240
13350W        W56262  25.449  30.829  30.505  0.1384  0.3938 -0.3532
13351W        W56263  24.210  31.757  29.525 -0.1316 -0.1221 -0.2781
13352W        W56264  25.122  30.453  28.594 -0.1315 -0.0882 -0.2052
13353W        W56265  22.120  31.574  31.019  0.0943  0.0436  0.0150
13354W        W56266  22.872  31.185  30.388 -0.0572  0.3866 -0.1292
13355W        W56267  22.696  32.156  31.083 -0.1297 -0.1332  0.0430
13356W        W56268  24.552  31.613  29.247  0.2107 -0.1209 -0.1126
13357W        W56269  21.138  28.917  30.488 -0.0098 -0.0647  0.0069
13358W        W56270  21.486  29.981  27.899  0.0548  0.1657  0.2148
13359W        W56271  23.377  30.732  28.892  0.0543 -0.0739  0.0524
13360W        W56272  25.050  31.679  31.719  0.1026 -0.2969 -0.0109
13361W        W56273  22.350  30.204  28.581 -0.0306  0.1208 -0.2777
13362W        W56274  23.225  29.972  28.258 -0.3533  0.2182  0.0364
13363W        W56275  22.811  32.598  30.823 -0.0375  0.0927  0.0340
13364W        W56276  24.312  33.576  28.434 -0.1476 -0.2862 -0.1870
13365W        W56277  23.899  29.167  31.277 -0.0276  0.0717  0.1798
13366W        W56278  23.105  32.770  29.651 -0.1282 -0.3737 -0.1496
13367W        W56279  23.850  31.298  30.606 -0.3746  0.2485  0.0124
13368W        W56280  23.219  32.040   0.423 -0.0645 -0.2298  0.0586
13369W        W56281  22.820  32.333   0.354 -0.1068  0.2842 -0.0351
13370W        W56282  22.014  31.071  30.851 -0.0576 -0.2959  0.0401
13371W        W56283  25.398  30.329   0.310  0.1290 -0.1174 -0.2586
13372W        W56284  24.131  29.598  31.185  0.4702  0.2183  0.0995
13373W        W56285  25.583  31.849   0.435 -0.0672  0.2276 -0.2053
13374W        W56286  24.736  32.490  31.200 -0.0901 -0.0401 -0.0482
13375W        W56287  22.805  31.632  30.832 -0.2273  0.0639 -0.1166
13376W        W56288  22.656  29.275  30.313 -0.0103 -0.2701  0.0895
13377W        W56289  23.401  31.505  30.698 -0.0200  0.0100 -0.0968
13378W        W56290  22.151  30.718  31.654  0.0201  0.0247 -0.0305
13379W        W56291  23.736  32.881   0.134 -0.3303 -0.0979  0.1998
13380W        W56292  21.152  33.781   0.003 -0.1366 -0.1006 -0.3282
13381W        W56293  20.783  32.182  31.786 -0.0566 -0.0537 -0.0415
13382W        W56294  23.661  32.436   0.375 -0.2548  0.3557 -0.1363
13383W        W56295  22.817  29.684  30.139 -0.0951  0.2051 -0.0848
13384W        W56296  22.058  30.453   0.904  0.1304  0.0986  0.0312
13385W        W56297  24.224  30.428  31.626  0.2962  0.2238 -0.2572
13386W        W56298  22.345  32.521  31.108  0.2997  0.4163  0.0051
13387W        W56299  26.369  28.716  31.257  0.1857  0.2805 -0.0428
13388W        W56300  23.138  29.589  31.701  0.4990 -0.1814 -0.1250
13389W        W56301  22.569  29.299  30.851 -0.0115  0.0302  0.0228
13390W        W56302  24.457  30.044  31.419 -0.2225 -0.0120 -0.7822
13391W        W56303  22.463  31.264  30.141 -0.0534  0.3563 -0.0685
13392W        W56304  22.903  33.698   0.356  0.1684  0.0456  0.2174
13393W        W56305  22.596  30.458  29.818  0.1182 -0.6382  0.0540
13394W        W56306  22.974  30.009  31.358  0.0824  0.0357 -0.1375
13395W        W56307  22.578  30.455  30.725  0.1588 -0.3403  0.0003
13396W        W56308  23.300  31.796  30.247  0.2111 -0.2980  0.0302
13397W        W56309  23.686  32.587   0.829 -0.2089  0.0813  0.0279
13398W        W56310  24.152  31.655  30.770 -0.2604 -0.0699  0.0589
13399W        W56311  23.444  30.711   0.656  0.3698  0.0013  0.0628
13400W        W56312  22.613  31.893   0.486 -0.1984  0.1645 -0.0291
13401W        W56313  22.442  32.378  31.572  0.0644 -0.1520 -0.1074
13402W        W56314  24.214  32.710   0.886  0.1821  0.4919 -0.1804
13403W        W56315  24.991  31.106  30.726 -0.0293  0.0885  0.0408
13404W        W56316  23.259  30.962  31.377  0.2010 -0.4001  0.1586
13405W        W56317  24.617  31.305  31.845 -0.0961  0.0108 -0.0089
13406W        W56318  25.497  30.868   1.056  0.2030 -0.0980 -0.0113
13407W        W56319  22.564  30.489  31.687  0.1214  0.2352 -0.0711
13408W        W56320  22.371  34.046  31.717 -0.0763  0.2823 -0.3792
13409W        W56321  23.451  30.657  31.026 -0.0032 -0.0180  0.0031
13410W        W56322  23.001  32.869  30.446 -0.3645 -0.1418 -0.0434
13411W        W56323  24.784  31.828   0.756 -0.3155 -0.1306 -0.2240
13412W        W56324  23.816  30.878  31.383 -0.1145  0.2021 -0.1623
13413W        W56325  23.375  32.090   0.975  0.0118 -0.2671  0.0168
13414W        W56326  21.366  31.646  31.536 -0.1352  0.2452 -0.3522
13415W        W56327  23.274  32.496  30.756  0.2142 -0.2449 -0.2781
13416W        W56328  24.854  29.945  31.074 -0.1194  0.3943  0.0167
13417W        W56329  22.895  30.353   0.068 -0.1445 -0.3794  0.3809
13418W        W56330  22.162  30.472  30.246  0.1432  0.1056 -0.0527
13419W        W56331  23.546  31.205  31.055 -0.1190  0.1303 -0.1265
13420W        W56332  24.977  32.058  30.925  0.0116  0.1497  0.0036
13421W        W56333  24.784  32.300  31.716 -0.1120 -0.0096 -0.4533
13422W        W56334  21.520  33.054   0.008  0.1945  0.2712  0.3499
13423W        W56335  23.287  31.486  31.749  0.1520 -0.2079  0.0261
13424W        W56336  21.850  33.051  29.963 -0.0518 -0.1516 -0.0569
13425W        W56337  21.378  32.111  31.871  0.0357 -0.0746  0.2564
13426W        W56338  22.322  31.600   0.082 -0.0693  0.2853  0.1478
13427W        W56339  20.228  30.892   0.013  0.6291  0.2318 -0.1097
13428W        W56340  21.710  30.571  31.098 -0.1763 -0.3274  0.0859
13429W        W56341  22.810  32.208  31.831  0.2596  0.0880  0.0449
13430W        W56342  26.493  32.302  31.818  0.2331  0.0118 -0.2665
13431W        W56343  26.437  30.699  31.485  0.0645  0.1700 -0.3793
13432W        W56344  22.349  33.687  17.765  0.0753  0.0577  0.0548
13433W        W56345  23.948   0.566  16.278  0.0665  0.3472  0.0623
13434W        W56346  26.023   0.317  17.772 -0.1325  0.0237  0.0771
13435W        W56347  22.021  33.198  17.657 -0.0837  0.1159 -0.1057
13436W        W56348  20.722  32.382  18.380 -0.1642  0.4118  0.2693
13437W        W56349  25.433   0.958  16.660 -0.2243 -0.2074  0.2961
13438W        W56350  24.269  33.075  18.113  0.1518  0.1782 -0.1217
13439W        W56351  23.996  33.115  15.678  0.0637  0.0207  0.1330
13440W        W56352  21.430   0.867  17.493  0.2306  0.0869 -0.0154
13441W        W56353  24.377  34.510  19.100  0.1472  0.1669  0.0879
13442W        W56354  20.701  34.384  16.342  0.3230 -0.2471 -0.4174
13443W        W56355  22.322  33.667  18.696 -0.1072 -0.0128  0.0402
13444W        W56356  23.067  33.958  15.775 -0.3608 -0.1892  0.1519
13445W        W56357  24.070  34.668  17.638  0.0083 -0.0303  0.2046
13446W        W56358  23.462  33.134  19.203 -0.2282 -0.1246 -0.4033
13447W        W56359  21.528  32.165  15.697 -0.0342  0.3686 -0.2013
13448W        W56360  21.689  33.393  17.970 -0.0715 -0.0381 -0.2748
13449W        W56361  23.703  34.184  18.666 -0.1553  0.0260 -0.0526
13450W        W56362  24.169  32.516  17.363  0.1328  0.1742  0.0042
13451W        W56363  23.930  33.568  17.421 -0.0432  0.2187  0.1185
13452W        W56364  24.503   0.388  17.415  0.0993  0.0536  0.5201
13453W        W56365  23.546  33.708  16.501 -0.3735 -0.0022 -0.0856
13454W        W56366  24.204   0.394  16.647 -0.1278  0.1632  0.3809
13455W        W56367  25.308  34.140  19.498  0.0533 -0.3594  0.1898
13456W        W56368  25.719  34.341  16.137  0.0537  0.0253 -0.0620
13457W        W56369  22.049   0.016  15.723 -0.1571  0.0063  0.0196
13458W        W56370  24.911   0.192  17.064  0.0698 -0.0332  0.0482
13459W        W56371  24.407  32.067  18.060  0.3053  0.1546 -0.2866
13460W        W56372  22.711  33.426  17.037  0.1430 -0.3683  0.1656
13461W        W56373  23.350  34.540  16.696 -0.0711  0.0185 -0.5244
13462W        W56374  25.258   0.522  17.916 -0.2775 -0.0472  0.4148
13463W        W56375  21.480   0.048  18.365 -0.1054 -0.2804 -0.0621
13464W        W56376  22.802  33.920  17.680 -0.0056 -0.2300 -0.2477
13465W        W56377  21.294   0.146  20.090  0.1116 -0.0822 -0.4029
13466W        W56378  21.866  34.371  19.355  0.3478  0.2363 -0.2817
13467W        W56379  22.458  32.480  16.671  0.1314 -0.2087 -0.1127
13468W        W56380  23.966  33.497  16.277  0.0566 -0.2285 -0.2140
13469W        W56381  23.393  32.223  19.324  0.1481 -0.1252  0.1391
13470W        W56382  24.592  31.713  18.451  0.1020 -0.0644 -0.0252
13471W        W56383  26.008  34.166  16.681 -0.0638 -0.0853  0.1951
13472W        W56384  23.230  33.826  19.364  0.1538 -0.2023  0.0631
13473W        W56385  20.393  34.366  18.479 -0.1828 -0.0903  0.0217
13474W        W56386  24.338  32.092  17.564  0.3172 -0.1584  0.3059
13475W        W56387  21.458  32.956  19.617  0.0592 -0.2159 -0.0711
13476W        W56388  25.508  32.833  16.533 -0.1645 -0.2287  0.0151
13477W        W56389  24.800  33.663  15.839 -0.2767 -0.2445  0.0918
13478W        W56390  21.454   0.540  17.887 -0.0897  0.0820 -0.2201
13479W        W56391  21.290   0.476  17.104  0.1588 -0.0483 -0.2309
13480W        W56392  22.370  33.015  19.988 -0.1963  0.0033 -0.1762
13481W        W56393  20.971  33.320  18.888  0.1046 -0.2418 -0.1765
13482W        W56394  24.691  33.925  17.990  0.0234  0.1832  0.3175
13483W        W56395  22.061  33.191  16.786  0.3387 -0.2518 -0.0190
13484W        W56396  24.427   0.030  16.907 -0.2872  0.1253 -0.0853
13485W        W56397  22.915   0.290  18.257  0.0705  0.0334  0.1982
13486W        W56398  24.626  32.960  18.896 -0.2656  0.1005 -0.0803
13487W        W56399  21.880  33.270  18.479  0.1704  0.0019  0.0266
13488W        W56400  22.627  34.055  15.762  0.0478  0.0065  0.1196
13489W        W56401  23.231  33.473  15.597 -0.0081  0.0184 -0.0886
13490W        W56402  22.753  33.797  19.226  0.0334  0.2442 -0.2248
13491W        W56403  25.159  33.594  16.497  0.0019 -0.1742 -0.1634
13492W        W56404  22.545  33.042  15.907  0.1497  0.1923  0.1219
13493W        W56405  21.981  34.079  17.922  0.3341 -0.0241  0.0549
13494W        W56406  25.021  33.457  17.399 -0.1488 -0.0324  0.2635
13495W        W56407  22.884  34.517  21.983 -0.2567  0.2574  0.0819
13496W        W56408  24.034  34.250  20.087  0.0574 -0.1147  0.3332
13497W        W56409  22.191  33.519  17.141 -0.2269  0.1150  0.0349
13498W        W56410  25.013  32.102  17.373 -0.0934  0.0382 -0.0285
13499W        W56411  23.829  33.957  16.149 -0.1194 -0.1234  0.2547
13500W        W56412  23.540  33.196  16.504 -0.0549  0.0737  0.0137
13501W        W56413  25.461  34.621  16.467 -0.2178  0.1732  0.0250
13502W        W56414  24.463  34.621  15.704  0.4198  0.0425 -0.0058
13503W        W56415  23.792  30.828  18.497 -0.3409  0.0162 -0.0285
13504W        W56416  22.737  34.548  15.935 -0.0463  0.0087  0.1278
13505W        W56417  23.596  32.847  18.146 -0.0811  0.0151 -0.0248
13506W        W56418  24.322  32.468  20.480  0.0747 -0.2324  0.2527
13507W        W56419  23.886  34.135  17.647 -0.1978 -0.2221 -0.1521
13508W        W56420  20.575  33.075  19.111  0.0823  0.2680 -0.0619
13509W        W56421  25.005  34.534  16.699 -0.0420  0.1392 -0.1714
13510W        W56422  25.044  34.367  16.251  0.0783 -0.0574  0.0282
13511W        W56423  24.658   0.138  17.880  0.0685 -0.1158  0.1839
13512W        W56424  23.354  34.129  16.202 -0.2423  0.3092  0.2147
13513W        W56425  22.979  33.655  18.538 -0.0907 -0.3309 -0.1894
13514W        W56426  22.053  33.264  19.648 -0.2161 -0.2499  0.3008
13515W        W56427  24.217  32.567  16.482 -0.0929 -0.1125 -0.0964
13516W        W56428  22.751  33.411  17.887 -0.1686  0.1785  0.0016
13517W        W56429  24.904  32.533  18.990 -0.1790 -0.3418 -0.0908
13518W        W56430  22.858  32.975  17.371  0.0824  0.1359 -0.0497
13519W        W56431  21.832   0.418  16.979 -0.2184 -0.0339  0.1547
13520W        W56432  24.677  34.026  17.424  0.2553 -0.0930 -0.0821
13521W        W56433  22.223  34.336  18.349  0.0333 -0.0927 -0.2133
13522W        W56434  24.530  33.481  17.486  0.1706 -0.3384 -0.2923
13523W        W56435  24.453  34.568  19.695 -0.2798 -0.0199 -0.1382
13524W        W56436  25.220  32.859  16.131 -0.1393  0.0448  0.0277
13525W        W56437  23.343  34.691  18.235  0.3357  0.0520 -0.1166
13526W        W56438  21.737  34.316  18.294  0.1114 -0.0818 -0.0024
13527W        W56439  25.037  33.853  18.442  0.3434 -0.0629 -0.2280
13528W        W56440  23.336  32.710  17.328  0.0244 -0.0615  0.1368
13529W        W56441  21.398   1.046  18.136  0.3830  0.0660  0.2823
13530W        W56442  22.125  34.583  18.988 -0.0593  0.0821  0.0681
13531W        W56443  23.992  32.998  16.673  0.0497  0.2309  0.0696
13532W        W56444  22.919  32.452  17.492 -0.1300 -0.2768 -0.0327
13533W        W56445  24.779  33.892  16.310 -0.1092  0.2902  0.1322
13534W        W56446  22.604  33.966  18.259 -0.0507 -0.0582 -0.0499
13535W        W56447  22.037  32.071  18.887  0.0825  0.2496 -0.4737
13536W        W56448  23.680  33.913  20.075 -0.0090  0.1316  0.0457
13537W        W56449  24.193  34.430  18.606  0.0048 -0.4820  0.2896
13538W        W56450  25.178  32.775  16.921  0.3392  0.3416  0.0034
13539W        W56451  24.304  32.743  16.951  0.0060 -0.0933 -0.1356
13540W        W56452  25.223  32.995  20.103  0.0218 -0.1482 -0.3446
13541W        W56453  25.687   0.312  16.090 -0.0706  0.0692 -0.0058
13542W        W56454  24.269  33.123  21.105  0.2083  0.3170 -0.3190
13543W        W56455  22.013  34.146  18.792 -0.5441 -0.1355 -0.0350
13544W        W56456  22.099  34.581  16.843 -0.2078  0.0388 -0.2161
13545W        W56457  21.316   0.227  19.234 -0.1090  0.1577  0.0773
13546W        W56458  23.440  34.512  17.760 -0.0481  0.0356  0.2503
13547W        W56459  22.743  33.294  16.296 -0.1340 -0.0202 -0.1123
13548W        W56460  21.793   1.359  17.921  0.1046 -0.1638 -0.1179
13549W        W56461  25.309   0.235  18.488 -0.0387 -0.0089 -0.2175
13550W        W56462  21.431  34.531  19.532 -0.0623  0.3120  0.2534
13551W        W56463  25.021   0.282  16.502  0.1486  0.3229 -0.0726
13552W        W56464  23.324  33.065  18.608 -0.1444 -0.0984 -0.0561
13553W        W56465  24.711  33.110  18.421  0.1178  0.0447  0.1554
13554W        W56466  23.965  34.307  18.161 -0.1136  0.0086  0.1601
13555W        W56467  22.846  34.246  19.605  0.0556 -0.0343 -0.2192
13556W        W56468  24.243  33.305  17.137  0.0097 -0.2315 -0.0650
13557W        W56469  21.350  33.772  19.663 -0.1236 -0.2583 -0.0108
13558W        W56470  25.233  33.892  16.014  0.0989 -0.3206 -0.3914
13559W        W56471  24.322  33.479  18.754  0.0357 -0.0511 -0.1443
13560W        W56472  25.361  34.086  16.541 -0.1393  0.0112  0.2212
13561W        W56473  25.101   0.416  15.987 -0.2012  0.1195 -0.1822
13562W        W56474  23.293  33.024  17.763 -0.2564 -0.0377  0.3542
13563W        W56475  24.464  33.991  20.102  0.1587  0.1896 -0.1421
13564W        W56476  22.715  33.504  15.777  0.3348 -0.3563 -0.2201
13565W        W56477  24.618  33.613  18.344  0.1058 -0.2850  0.1946
13566W        W56478  24.202  33.564  16.699 -0.2924  0.1049 -0.0013
13567W        W56479  23.014  33.906  17.223 -0.0038  0.2239 -0.3593
13568W        W56480  21.048  34.392  16.710 -0.0429 -0.1922 -0.0501
13569W        W56481  22.504  34.580  16.387 -0.1511  0.0833 -0.0953
13570W        W56482  25.380  33.217  16.977 -0.0277 -0.1965  0.0616
13571W        W56483  24.753  33.167  20.200 -0.1569 -0.1235  0.2516
13572W        W56484  23.187  33.161  17.051 -0.3061  0.0787  0.1259
13573W        W56485  24.157  33.054  19.153  0.1185 -0.3041 -0.2892
13574W        W56486  23.432  34.178  18.127  0.1627 -0.0750  0.2344
13575W        W56487  24.503   0.889  17.626  0.0741  0.0193  0.1376
13576W        W56488  24.866  34.366  19.306  0.0299  0.0168 -0.0456
13577W        W56489  23.103  33.810  18.055  0.1111 -0.0176 -0.2454
13578W        W56490  19.994   0.411  19.390 -0.1539 -0.1949  0.0247
13579W        W56491  23.027  33.488  16.654  0.0221  0.1356 -0.1774
13580W        W56492  23.030  34.643  16.303 -0.0891 -0.0646  0.1209
13581W        W56493  25.748  33.432  15.861 -0.3204  0.0215  0.0712
13582W        W56494  26.485   0.345  18.093  0.1807  0.1490 -0.0739
13583W        W56495  23.726  34.219  16.523 -0.0701  0.1295 -0.0130
13584W        W56496  23.121  34.002  18.899 -0.0761  0.0443  0.1135
13585W        W56497  24.026  31.522  16.969 -0.1217 -0.1331 -0.0200
13586W        W56498  22.127   0.200  19.720  0.1930 -0.1474  0.0755
13587W        W56499  25.450  32.472  19.189  0.1154 -0.0126 -0.0562
13588W        W56500  21.848  34.025  17.060  0.3122 -0.0682  0.0346
13589W        W56501  22.527  33.317  17.486 -0.1028  0.3456  0.0525
13590W        W56502  24.772  32.101  18.725 -0.2012  0.2319  0.0870
13591W        W56503  23.376  34.334  17.166  0.2243  0.1181  0.0758
13592W        W56504  21.463  33.321  17.518 -0.0136 -0.0763  0.2766
13593W        W56505  26.346  33.853  18.427  0.1295 -0.0965  0.4428
13594W        W56506  20.798  34.596  19.439  0.3181  0.0830 -0.0775
13595W        W56507  26.211  31.861  19.899  0.0484 -0.2583 -0.0636
13596W        W56508  22.331  32.999  18.465 -0.1904 -0.2178  0.1480
13597W        W56509  25.281  33.341  18.365 -0.2591  0.2118 -0.0381
13598W        W56510  22.245  33.479  18.179 -0.0006  0.2407  0.1448
13599W        W56511  22.866  34.359  16.727 -0.2384  0.1152 -0.1286
13600W        W56512  24.860   1.404  19.910 -0.0928  0.1044  0.0023
13601W        W56513  25.467   0.367  15.625  0.2477 -0.0919  0.2854
13602W        W56514  21.656  31.880  17.467 -0.0850 -0.1799  0.0326
13603W        W56515  24.053  34.454  16.111 -0.1812 -0.0185 -0.1751
13604W        W56516  23.729  33.332  16.969  0.0483  0.0065 -0.0203
13605W        W56517  25.140  34.649  18.036 -0.2449  0.1813  0.0126
13606W        W56518  22.983  33.079  18.170 -0.3231  0.0825 -0.1203
13607W        W56519  24.529  34.202  16.924  0.3005  0.0077 -0.2883
13608W        W56520  25.209  33.990  17.311 -0.1090 -0.0113 -0.1237
13609W        W56521  21.571  34.537  18.967  0.2397 -0.1236  0.3434
13610W        W56522  23.416  32.227  16.497  0.4213 -0.0117  0.0146
13611W        W56523  23.466  33.747  17.147 -0.0240  0.4096 -0.0252
13612W        W56524  25.601  31.786  18.557  0.3011  0.4299 -0.1036
13613W        W56525  24.033  33.183  19.685  0.0183 -0.1049 -0.3457
13614W        W56526  22.748  33.267  18.671 -0.1091 -0.2915 -0.0618
13615W        W56527  23.045  33.716  16.208  0.1746  0.1582 -0.0879
13616W        W56528  24.909  33.278  18.021 -0.0721  0.0779  0.0656
13617W        W56529  25.622  33.784  16.230 -0.0456 -0.1558  0.1880
13618W        W56530  24.792  33.503  16.784 -0.0292  0.0625  0.2787
13619W        W56531  23.116   1.089  17.959 -0.1518 -0.1187  0.1153
13620W        W56532  22.248   0.691  16.431  0.2173 -0.0760  0.1903
13621W        W56533  23.840  32.784  20.041  0.0376  0.1998 -0.2144
13622W        W56534  21.954  32.937  20.485  0.3152 -0.1346  0.0986
13623W        W56535  23.370  33.906  17.625  0.0304  0.0652 -0.2900
13624W        W56536  22.398  33.030  17.929 -0.1377 -0.0247 -0.0701
13625W        W56537  21.331  32.799  18.728  0.0866  0.0311 -0.0722
13626W        W56538  20.916  33.247  17.675  0.0580  0.0194 -0.0134
13627W        W56539  22.420  32.362  18.637  0.0003 -0.1766  0.0806
13628W        W56540  22.520   0.054  18.090  0.1526  0.2584  0.0428
13629W        W56541  22.607  33.068  19.558  0.2463  0.1212 -0.1595
13630W        W56542  21.878  33.792  17.526 -0.0042  0.0305 -0.0952
13631W        W56543  24.883  33.516  18.810 -0.1329 -0.1168  0.4260
13632W        W56544  21.814  32.759  18.527 -0.0963  0.3659  0.0469
13633W        W56545  26.123  32.806  18.509 -0.2137  0.2083 -0.1108
13634W        W56546  24.287  33.986  16.458 -0.2377 -0.1703  0.2261
13635W        W56547  22.911  33.021  19.037  0.2826 -0.0592 -0.3336
13636W        W56548  23.379  32.106  18.228 -0.2519 -0.2130 -0.0032
13637W        W56549  24.491  34.471  16.415  0.2151 -0.0362  0.1306
13638W        W56550  22.509  33.927  17.329  0.2794 -0.3356 -0.1582
13639W        W56551  22.565  32.978  16.755  0.2583 -0.2240 -0.1087
13640W        W56552  24.195   0.243  19.648  0.2359 -0.0059  0.2127
13641W        W56553  22.330   0.262  16.088  0.0377  0.0777  0.0566
13642W        W56554  24.787   0.049  16.097  0.3018  0.3700  0.2592
13643W        W56555  21.736  33.512  19.330  0.2700 -0.0545 -0.0595
13644W        W56556  22.526  34.350  17.069  0.1566 -0.0061 -0.2068
13645W        W56557  23.585  33.196  17.402 -0.2987 -0.1232  0.0842
13646W        W56558  24.547  34.084  18.537  0.0378  0.0661  0.0916
13647W        W56559  23.193  32.559  17.943  0.4375 -0.0674 -0.0779
13648W        W56560  24.562  32.963  17.547  0.0691 -0.0596  0.0065
13649W        W56561  23.566   0.124  19.276 -0.2463 -0.0510 -0.2425
13650W        W56562  24.274  32.613  18.982 -0.0820  0.0507  0.1435
13651W        W56563  23.932   0.397  20.453 -0.0843  0.0462 -0.0595
13652W        W56564  22.579  33.749  21.422  0.1130  0.1174  0.0022
13653W        W56565  23.727  33.001  21.065  0.0705 -0.0977 -0.1807
13654W        W56566  24.624  33.681  19.580  0.5334 -0.3289  0.3070
13655W        W56567  23.032  33.831  23.283  0.0671  0.1310  0.0009
13656W        W56568  23.153  33.626  21.546 -0.1826  0.0853 -0.1782
13657W        W56569  20.689  32.626  21.660 -0.3978  0.0252 -0.1106
13658W        W56570  24.103  33.674  22.822  0.3928  0.0603  0.5465
13659W        W56571  21.833   1.043  21.075  0.1576 -0.0518  0.0197
13660W        W56572  21.953  32.059  23.514  0.0874  0.2492 -0.6860
13661W        W56573  23.022  33.768  20.543 -0.0247  0.0531 -0.1301
13662W        W56574  23.183  33.587  24.272  0.1008 -0.0837 -0.1876
13663W        W56575  22.153  32.878  23.035  0.1083 -0.0516 -0.0553
13664W        W56576  22.305  33.251  20.447  0.1488  0.3396 -0.0815
13665W        W56577  20.998  32.669  22.621 -0.2962 -0.1140  0.3765
13666W        W56578  21.986  33.175  22.280 -0.1284  0.1020 -0.0371
13667W        W56579  24.323  34.138  22.722 -0.2027 -0.0294  0.0077
13668W        W56580  24.863   0.494  22.186  0.1285 -0.0563  0.0472
13669W        W56581  24.167  33.818  23.773  0.1339 -0.2101 -0.0319
13670W        W56582  24.048  33.542  20.862  0.1041  0.0594 -0.0186
13671W        W56583  23.871   0.072  22.035  0.1228  0.0652  0.2337
13672W        W56584  24.973  33.417  23.700 -0.1095  0.1362  0.2629
13673W        W56585  24.288  34.373  21.010  0.1920 -0.2162  0.0718
13674W        W56586  23.291  33.128  19.884  0.1995 -0.0504 -0.3570
13675W        W56587  23.356  34.318  19.322  0.0797  0.0307  0.0044
13676W        W56588  23.276  33.030  22.059 -0.0352  0.0850 -0.3071
13677W        W56589  22.486  31.758  22.198  0.0815  0.1146 -0.0551
13678W        W56590  23.033  33.366  19.567 -0.0828 -0.0269 -0.0459
13679W        W56591  23.526  33.592  20.469  0.1700  0.1756  0.1517
13680W        W56592  22.125   0.558  21.367 -0.0240 -0.1588 -0.0489
13681W        W56593  21.379  34.600  20.766  0.2539 -0.0278 -0.0245
13682W        W56594  23.479   0.392  22.182  0.1836  0.0301 -0.2529
13683W        W56595  21.017  33.274  22.547 -0.0559 -0.3576 -0.2256
13684W        W56596  22.869  32.918  20.013  0.1346 -0.0673  0.1070
13685W        W56597  24.936  33.616  20.751 -0.0870  0.1951 -0.1613
13686W        W56598  24.172  33.528  21.847  0.0280  0.1277 -0.1673
13687W        W56599  25.445  33.030  21.555 -0.2329 -0.0096  0.2520
13688W        W56600  23.759  33.978  19.571  0.2220 -0.2248 -0.0399
13689W        W56601  23.662  33.195  22.774 -0.2170  0.3070 -0.0564
13690W        W56602  22.493  31.866  23.524 -0.1288 -0.1128  0.4150
13691W        W56603  26.263  33.893  20.465  0.4203  0.2282  0.0267
13692W        W56604  21.619  32.781  22.187  0.1168 -0.3158 -0.1252
13693W        W56605  25.535  34.064  21.041  0.0233  0.2320  0.0459
13694W        W56606  23.488  34.009  21.362  0.0011  0.1033 -0.2272
13695W        W56607  21.806   0.218  22.284  0.0812 -0.0868  0.0761
13696W        W56608  21.125  34.459  21.344  0.1259  0.1462 -0.0004
13697W        W56609  21.564  34.052  23.810  0.3756 -0.4234 -0.0407
13698W        W56610  21.208  32.654  23.312  0.1607  0.1155 -0.0394
13699W        W56611  23.672   0.370  23.040 -0.2476  0.0134  0.1565
13700W        W56612  22.005  33.218  18.996 -0.0777  0.0334 -0.5097
13701W        W56613  24.416  34.000  21.670 -0.0643  0.0822  0.0830
13702W        W56614  22.832  33.268  22.323  0.3268 -0.0789 -0.3024
13703W        W56615  24.700  33.816  23.566  0.3845  0.1194  0.0829
13704W        W56616  21.466  33.044  22.528 -0.1606  0.3754  0.0613
13705W        W56617  20.831  33.293  20.406  0.1331 -0.0944 -0.0159
13706W        W56618  22.778  34.307  20.489  0.1268 -0.2082  0.2431
13707W        W56619  24.208  33.013  22.730 -0.1249  0.0061 -0.0979
13708W        W56620  24.587  34.547  22.840 -0.0132  0.4851  0.0546
13709W        W56621  20.415  34.309  19.762  0.0987 -0.1627  0.0357
13710W        W56622  22.207   0.096  21.213 -0.2083  0.1129  0.1425
13711W        W56623  24.988  33.267  21.824 -0.1951 -0.0607  0.1676
13712W        W56624  22.822   0.730  24.169 -0.0079 -0.1921 -0.0047
13713W        W56625  22.966   1.151  23.006 -0.1813  0.0814  0.0139
13714W        W56626  21.713  33.831  20.115 -0.0652  0.1213 -0.0393
13715W        W56627  26.266  32.596  21.565 -0.2938  0.1531 -0.1831
13716W        W56628  24.759  34.373  18.204  0.1487 -0.1904 -0.0467
13717W        W56629  23.634  33.965  19.088  0.0898  0.0269 -0.0820
13718W        W56630  23.633  33.463  19.572 -0.2723  0.2269  0.1166
13719W        W56631  22.878  33.929  20.051 -0.2880  0.1988 -0.3126
13720W        W56632  24.794  32.833  21.938 -0.1905  0.1049 -0.2330
13721W        W56633  22.790  33.905  16.794  0.0146  0.3148  0.0770
13722W        W56634  24.411  32.726  21.325  0.2451 -0.0518 -0.1476
13723W        W56635  24.749  33.121  22.850  0.0259 -0.2007 -0.0188
13724W        W56636  23.208  33.680  21.032  0.3664  0.0885  0.2583
13725W        W56637  22.942  33.510  22.829  0.2494  0.0634  0.1081
13726W        W56638  23.818  34.591  23.306 -0.0015 -0.0561 -0.2312
13727W        W56639  24.286  34.551  20.451  0.0386  0.1751 -0.3029
13728W        W56640  23.837   0.271  22.534 -0.1191 -0.0198 -0.0328
13729W        W56641  22.808  33.285  20.695  0.1218  0.0206 -0.0996
13730W        W56642  24.593  33.401  22.082 -0.1518  0.1678 -0.0025
13731W        W56643  23.391  33.093  23.819 -0.2016 -0.0161  0.1256
13732W        W56644  24.362  32.927  20.643 -0.0255 -0.0203 -0.2346
13733W        W56645  23.658  32.794  22.383  0.0203 -0.1137  0.1241
13734W        W56646  25.671  31.440  22.233  0.0368  0.2589 -0.2051
13735W        W56647  20.378  33.185  21.617 -0.2033 -0.3346  0.1604
13736W        W56648  19.033  34.290  20.532  0.2489 -0.2807  0.3218
13737W        W56649  23.833  33.987  20.996  0.1822  0.0473  0.1797
13738W        W56650  21.902  32.809  22.581 -0.2277 -0.4137 -0.0525
13739W        W56651  23.320  33.350  22.491  0.3173 -0.4544  0.0988
13740W        W56652  25.870   1.434  23.064 -0.1317  0.0104 -0.2371
13741W        W56653  24.732  32.913  20.970  0.3576  0.1263 -0.0306
13742W        W56654  22.653   1.344  24.144  0.0267 -0.0239  0.1571
13743W        W56655  21.770  34.228  20.432  0.0319  0.2252 -0.3287
13744W        W56656  24.526  34.306  22.118 -0.0342  0.0832 -0.0328
13745W        W56657  22.244  34.109  21.258 -0.0897  0.0039 -0.0790
13746W        W56658  22.460  33.941  19.606  0.0050 -0.0163  0.1732
13747W        W56659  22.351  34.612  22.571 -0.1877  0.1971  0.1934
13748W        W56660  21.710  33.785  22.849  0.1917  0.1706  0.2429
13749W        W56661  22.092  32.073  20.587  0.2484 -0.0242  0.1365
13750W        W56662  22.422  32.931  22.521 -0.1096 -0.1188 -0.1763
13751W        W56663  24.082  33.699  21.356  0.0792  0.1208  0.0743
13752W        W56664  23.907  30.569  21.151 -0.0907  0.1229 -0.2196
13753W        W56665  23.948   1.143  22.160  0.2223 -0.0522  0.1760
13754W        W56666  24.304  32.943  22.007  0.0362  0.1977 -0.1093
13755W        W56667  25.340  34.187  20.118 -0.1370  0.0374  0.3763
13756W        W56668  22.719  33.707  21.976 -0.2203 -0.0192 -0.0859
13757W        W56669  26.468  32.910  22.971  0.3038  0.0704 -0.0623
13758W        W56670  23.135   0.709  18.602  0.2197 -0.4093  0.0398
13759W        W56671  22.980  33.004  23.385  0.1097 -0.0266 -0.0779
13760W        W56672  22.617  33.174  22.935  0.2232  0.0367 -0.3824
13761W        W56673  21.204  34.184  21.936 -0.2888 -0.1368 -0.2146
13762W        W56674  22.139  34.436  23.600  0.2518 -0.1559 -0.0455
13763W        W56675  22.836  33.325  21.218 -0.1281  0.0325  0.3545
13764W        W56676  22.070  33.193  20.905 -0.2294 -0.0091 -0.2142
13765W        W56677  24.250  34.538  21.689 -0.0122 -0.0279 -0.4057
13766W        W56678  24.528  33.792  21.049 -0.0360 -0.0526  0.0233
13767W        W56679  23.630  33.476  21.759  0.1233  0.6246 -0.1435
13768W        W56680  22.953   0.177  20.514 -0.1168 -0.0257  0.1907
13769W        W56681  23.298  31.764  23.093 -0.1955 -0.1451 -0.1276
13770W        W56682  23.845  33.081  20.583 -0.3690  0.0603  0.4604
13771W        W56683  24.936  32.851  21.434  0.0810 -0.2340 -0.2322
13772W        W56684  24.064   0.704  22.709 -0.1658 -0.1884  0.3856
13773W        W56685  24.015   1.545  23.049  0.2013  0.2181 -0.1860
13774W        W56686  21.165  33.294  24.410  0.0085  0.3806  0.1163
13775W        W56687  24.101  33.933  18.915 -0.0866 -0.0171  0.3895
13776W        W56688  24.427   0.227  22.055  0.2629 -0.2154  0.4160
13777W        W56689  24.686   0.142  20.260  0.2579  0.1835  0.0843
13778W        W56690  23.563  33.693  18.495 -0.1630 -0.0833  0.1288
13779W        W56691  21.286  32.671  21.706  0.3041  0.1441  0.3356
13780W        W56692  24.172  34.568  22.404  0.0697  0.2544 -0.0873
13781W        W56693  22.504  34.363  19.290 -0.0287 -0.2358  0.1044
13782W        W56694  23.440  33.554  23.501 -0.0758 -0.2285  0.1043
13783W        W56695  24.368   0.127  21.272 -0.1263 -0.0845  0.0954
13784W        W56696  23.002  34.239  22.918  0.2462  0.2366  0.1054
13785W        W56697  20.394   0.552  18.954  0.0605 -0.5051 -0.2730
13786W        W56698  21.715  34.606  19.919 -0.1384  0.2656  0.0529
13787W        W56699  23.808  32.922  18.827 -0.1942 -0.0171 -0.0707
13788W        W56700  25.893   0.547  23.338 -0.2238  0.0028 -0.1898
13789W        W56701  24.603  33.534  22.561 -0.1326 -0.0616  0.0926
13790W        W56702  25.458  32.805  23.195 -0.1500  0.2205  0.0131
13791W        W56703  23.331   0.152  23.370  0.2953 -0.1321  0.1599
13792W        W56704  23.825  33.141  22.031 -0.1689  0.3763  0.1439
13793W        W56705  26.288   0.849  22.978  0.1142 -0.0208  0.0287
13794W        W56706  23.442  34.508  22.959  0.1056 -0.1043 -0.2230
13795W        W56707  21.076  33.761  23.832 -0.0601  0.0992  0.2115
13796W        W56708  22.625  32.835  21.336 -0.0883  0.0963 -0.2537
13797W        W56709  22.209  33.923  19.185 -0.2642 -0.2517  0.1020
13798W        W56710  24.929  33.974  19.808 -0.2114 -0.0733  0.1380
13799W        W56711  23.905   0.182  21.318  0.1061  0.1343  0.0764
13800W        W56712  25.815  34.308  21.463 -0.0008 -0.2044  0.3245
13801W        W56713  23.511  33.938  21.891  0.5182  0.1547  0.0524
13802W        W56714  23.269  33.613  19.932 -0.0734 -0.0440  0.1103
13803W        W56715  23.133   0.734  21.836 -0.0552 -0.0685 -0.3285
13804W        W56716  26.124  33.204  23.545  0.1404  0.0138 -0.0807
13805W        W56717  22.876  34.599  22.510 -0.0745  0.3133  0.2905
13806W        W56718  22.814  33.975  20.987 -0.0808 -0.0518 -0.0894
13807W        W56719  24.306  32.068  22.581  0.0984  0.1233  0.2242
13808W        W56720  24.181   0.577  21.313 -0.2225  0.0665 -0.0762
13809W        W56721  21.468  32.759  20.590 -0.0076 -0.2060 -0.0816
13810W        W56722  24.856  34.127  20.788 -0.2734  0.2271  0.0327
13811W        W56723  22.089  33.722  22.219  0.3172 -0.3159  0.0165
13812W        W56724  24.514  32.968  23.302  0.0197 -0.1555  0.0734
13813W        W56725  22.623   0.055  19.629 -0.0772 -0.0563 -0.1204
13814W        W56726  26.675  34.180  20.738  0.0858 -0.1573 -0.0122
13815W        W56727  22.635  33.882  23.052 -0.1273 -0.1540 -0.2853
13816W        W56728  23.410  34.512  18.857  0.0635 -0.0657 -0.1384
13817W        W56729  25.025   1.361  23.826  0.0776  0.5154 -0.1399
13818W        W56730  24.310   0.059  18.217  0.1914  0.1937 -0.0917
13819W        W56731  22.108  32.855  21.298 -0.0824  0.4544 -0.1342
13820W        W56732  24.164  33.610  20.382 -0.1136 -0.1559 -0.1081
13821W        W56733  22.429  34.132  22.655 -0.1128 -0.0204 -0.1661
13822W        W56734  22.828  33.943  22.519 -0.0023 -0.1216  0.1071
13823W        W56735  21.855  33.759  21.508 -0.2042  0.0516  0.2568
13824W        W56736  25.039  34.613  23.090  0.0288 -0.1935 -0.0531
13825W        W56737  23.506  34.641  20.549  0.0997  0.1021 -0.2517
13826W        W56738  20.732  34.046  22.135  0.0155  0.0475 -0.0381
13827W        W56739  23.244  34.153  20.338  0.1952  0.0694  0.2060
13828W        W56740  22.011  33.791  20.561  0.4168 -0.4192  0.3144
13829W        W56741  25.243  33.143  22.788  0.0448 -0.1128  0.0575
13830W        W56742  25.252  34.075  22.970 -0.0365  0.0382  0.0394
13831W        W56743  24.447  31.622  22.292  0.2234  0.0956  0.2683
13832W        W56744  22.113  32.051  22.095  0.0618  0.1478  0.4034
13833W        W56745  22.286  32.335  19.223  0.0270 -0.1370 -0.0948
13834W        W56746  25.909  33.457  19.747 -0.1231  0.3199 -0.2504
13835W        W56747  23.803  34.200  20.542  0.0235 -0.1102  0.1888
13836W        W56748  23.594  34.576  22.420 -0.2794  0.1094  0.0612
13837W        W56749  20.946  34.246  20.828 -0.3572  0.0016 -0.0564
13838W        W56750  23.505  32.728  22.908  0.1938 -0.1537  0.4683
13839W        W56751  22.161  32.950  23.907 -0.1813  0.1074  0.2071
13840W        W56752  21.432  32.932  21.366 -0.3365  0.1714 -0.1687
13841W        W56753  22.003  34.554  20.769  0.0134 -0.1247 -0.2195
13842W        W56754  22.877  32.583  22.872  0.1213 -0.0056  0.2256
13843W        W56755  21.982  33.712  21.030  0.2211 -0.1950 -0.0110
13844W        W56756  22.487  32.324  21.875 -0.2358 -0.0982 -0.3076
13845W        W56757  23.345  33.804  22.821  0.1355 -0.0276  0.1399
13846W        W56758  23.704  33.655  23.103  0.2678 -0.2615  0.0194
13847W        W56759  22.446  33.603  20.860 -0.0081  0.0463 -0.0880
13848W        W56760  22.927   0.028  23.027 -0.1333 -0.2440 -0.0333
13849W        W56761  20.780  32.967  23.288  0.2953  0.2971  0.0226
13850W        W56762  25.111  32.731  22.434  0.0538  0.0037 -0.1259
13851W        W56763  23.697  34.451  21.053 -0.0904  0.0774 -0.1382
13852W        W56764  21.620  31.484  22.564  0.3871  0.0194  0.1509
13853W        W56765  21.338  33.178  20.353 -0.1434 -0.1090 -0.1262
13854W        W56766  25.804  33.752  21.401  0.2261 -0.0417  0.1418
13855W        W56767  21.038  33.917  21.202  0.1317  0.0368 -0.1271
13856W        W56768  22.538  33.743  20.350 -0.0368  0.1893  0.2848
13857W        W56769  23.944  34.249  21.995 -0.1359 -0.0793 -0.0166
13858W        W56770  22.446   0.033  18.614 -0.1612  0.2996  0.1163
13859W        W56771  24.357   0.989  19.180  0.3620 -0.0733  0.4597
13860W        W56772  20.704  31.659  23.382 -0.0352 -0.2510  0.1857
13861W        W56773  23.128  33.306  20.359 -0.0214 -0.0950  0.0047
13862W        W56774  23.191  33.525  22.084  0.0727  0.1131  0.1170
13863W        W56775  25.385  33.784  22.483  0.2201  0.1268 -0.0540
13864W        W56776  22.989  32.869  21.049 -0.0000  0.3335 -0.1741
13865W        W56777  24.013  32.679  21.654  0.1058 -0.2404 -0.0792
13866W        W56778  21.849  33.888  24.856 -0.0006  0.0142  0.2987
13867W        W56779  24.127  31.523  22.639 -0.2035  0.1610  0.0784
13868W        W56780  25.409  34.476  23.922  0.3673 -0.1169 -0.1779
13869W        W56781  22.071  34.235  24.596  0.0729  0.0833 -0.0455
13870W        W56782  21.432  33.138  26.796 -0.2720  0.1423 -0.2637
13871W        W56783  23.934  34.621  22.823  0.2310 -0.0382 -0.1254
13872W        W56784  24.290  33.588  25.354 -0.0020 -0.0550 -0.2196
13873W        W56785  23.265  32.634  23.381 -0.1085  0.2088  0.0771
13874W        W56786  21.575  33.255  25.167 -0.0930 -0.1431 -0.0966
13875W        W56787  22.446  33.620  26.543  0.0956 -0.0093 -0.0585
13876W        W56788  21.576   1.018  24.944 -0.1895  0.3306 -0.2038
13877W        W56789  22.070  34.327  26.321  0.1544 -0.2224  0.2055
13878W        W56790  22.061  33.948  23.583  0.0190  0.1664  0.0708
13879W        W56791  22.227  33.364  26.098  0.1206 -0.0476 -0.1468
13880W        W56792  22.755  33.131  27.749  0.0242 -0.0028  0.2398
13881W        W56793  23.089  34.037  22.035  0.0196 -0.4571  0.2907
13882W        W56794  21.641  32.999  24.724 -0.0629 -0.0997 -0.0129
13883W        W56795  22.883  33.755  25.599  0.2179 -0.0901 -0.0815
13884W        W56796  25.548  32.508  24.740  0.0184 -0.3049 -0.2497
13885W        W56797  23.895  33.514  25.925  0.0563  0.2008  0.2032
13886W        W56798  24.031  33.201  27.840  0.1262  0.3817 -0.3357
13887W        W56799  23.537  34.038  25.159  0.0222  0.0174  0.2539
13888W        W56800  23.993  33.316  24.729  0.1855  0.0729  0.5435
13889W        W56801  25.077   0.580  27.885  0.3297 -0.0427 -0.0917
13890W        W56802  23.783  34.092  24.003 -0.0131 -0.1914 -0.1987
13891W        W56803  23.155  33.062  24.287  0.0207 -0.1566 -0.0041
13892W        W56804  24.325  33.031  24.472  0.2145  0.2637 -0.2779
13893W        W56805  23.443  32.670  24.283  0.3440  0.1753  0.0289
13894W        W56806  23.728  32.890  25.134  0.2949  0.1654  0.2360
13895W        W56807  23.282   0.623  23.452 -0.2652  0.0216  0.2090
13896W        W56808  25.198  31.927  25.978  0.1847 -0.0093 -0.0906
13897W        W56809  21.745   0.216  25.284  0.0939 -0.2129 -0.0943
13898W        W56810  20.463  33.916  23.835 -0.0471 -0.1300 -0.4016
13899W        W56811  23.113   0.782  28.528  0.2262  0.1931 -0.2551
13900W        W56812  23.187  34.621  27.762  0.1777  0.2209  0.1172
13901W        W56813  20.495  32.420  24.799 -0.3439  0.5247  0.0086
13902W        W56814  24.121   0.125  25.454 -0.1460 -0.2142  0.0316
13903W        W56815  25.381  33.638  25.821  0.1351 -0.0384 -0.0382
13904W        W56816  24.391  32.359  25.762 -0.2096  0.0010 -0.2300
13905W        W56817  24.899  34.570  23.863 -0.0883  0.0877  0.1978
13906W        W56818  22.572  32.508  26.552  0.1175 -0.0568  0.0583
13907W        W56819  21.972  33.311  25.542 -0.0601  0.0927 -0.5419
13908W        W56820  24.175  33.306  24.076  0.0447 -0.3750 -0.1888
13909W        W56821  20.460  32.902  27.314 -0.0101 -0.1119  0.1811
13910W        W56822  25.201  33.957  23.812 -0.1819 -0.0901 -0.1597
13911W        W56823  23.843  34.068  23.559 -0.2021 -0.1860 -0.3641
13912W        W56824  22.686   0.355  25.467 -0.1058  0.0826  0.0020
13913W        W56825  23.234  34.444  24.610  0.0189  0.0780  0.0285
13914W        W56826  20.754  32.454  27.225 -0.1061 -0.1682 -0.0368
13915W        W56827  20.075  33.299  26.507  0.0434 -0.0395 -0.1872
13916W        W56828  24.567  34.528  26.461  0.1617  0.0838  0.0011
13917W        W56829  21.562  33.564  25.569  0.2324 -0.1629 -0.2846
13918W        W56830  22.590  33.739  26.091  0.2435 -0.2943  0.0980
13919W        W56831  23.266  34.206  22.441  0.0575  0.0124  0.0642
13920W        W56832  23.524  33.124  26.080 -0.1075  0.0670  0.2611
13921W        W56833  23.350  33.345  25.636 -0.1411 -0.2066 -0.3987
13922W        W56834  22.874  34.283  24.942  0.0887  0.0574 -0.1755
13923W        W56835  22.195  32.471  24.335 -0.1385 -0.2220 -0.2822
13924W        W56836  25.678  31.189  26.636  0.1012 -0.0931 -0.0157
13925W        W56837  23.441  34.059  23.188 -0.0514 -0.1645 -0.2541
13926W        W56838  21.490  32.221  23.226  0.2314 -0.0980 -0.1693
13927W        W56839  22.702  33.436  24.231 -0.2036  0.0857  0.0970
13928W        W56840  25.820  33.838  25.562  0.0671  0.3545 -0.2309
13929W        W56841  22.152  34.369  27.817 -0.3110 -0.0686  0.3707
13930W        W56842  23.168  32.875  26.832  0.1734  0.2464 -0.2455
13931W        W56843  21.852   0.227  23.855 -0.1890  0.0693 -0.0099
13932W        W56844  23.616  33.494  25.172 -0.4281 -0.1215 -0.0836
13933W        W56845  25.641  33.099  23.601 -0.3411 -0.0371 -0.0989
13934W        W56846  24.178  33.867  23.264 -0.1058 -0.3021  0.1935
13935W        W56847  23.580  33.089  23.298 -0.0141 -0.1484 -0.4426
13936W        W56848  23.958  32.817  23.133  0.2694  0.1832  0.0364
13937W        W56849  23.477  32.866  25.544  0.1456  0.0652  0.3127
13938W        W56850  23.046  33.536  23.789  0.3595  0.0488 -0.1971
13939W        W56851  23.172  34.575  25.648 -0.0935  0.3290 -0.2485
13940W        W56852  23.642  32.605  28.312 -0.2368  0.2640 -0.0066
13941W        W56853  23.916  32.150  25.068 -0.2329 -0.1041  0.2667
13942W        W56854  24.488  32.138  26.801  0.0975 -0.1352 -0.1113
13943W        W56855  25.193  34.223  27.347 -0.1492  0.0203 -0.0569
13944W        W56856  23.990  34.547  23.907  0.2217  0.0421  0.0390
13945W        W56857  24.065  34.527  26.358 -0.2417 -0.1270  0.1278
13946W        W56858  23.098  34.432  23.397  0.0867  0.2016 -0.1934
13947W        W56859  22.328  33.019  25.532  0.0247 -0.1406  0.0823
13948W        W56860  22.367  33.880  27.109 -0.4614  0.2183  0.1472
13949W        W56861  23.294  34.125  24.150  0.0642 -0.3820  0.1664
13950W        W56862  22.778  32.292  26.075 -0.1859  0.1208 -0.1734
13951W        W56863  24.007  32.662  27.958 -0.0213  0.2792  0.1074
13952W        W56864  22.076  34.082  22.970 -0.1938  0.2905 -0.2725
13953W        W56865  20.901  34.031  24.173 -0.1610  0.1031 -0.2478
13954W        W56866  24.804  33.661  25.094 -0.1748  0.0543 -0.2674
13955W        W56867  22.192  32.370  25.988 -0.4127 -0.0119  0.0702
13956W        W56868  25.017  32.433  27.569  0.2478  0.1160  0.3203
13957W        W56869  24.363  34.210  26.770  0.0636 -0.0536  0.0541
13958W        W56870  24.415  33.373  23.634 -0.1059  0.4890  0.1154
13959W        W56871  21.892  33.421  28.465 -0.2264 -0.1202  0.2513
13960W        W56872  21.121   0.249  23.878  0.1836  0.0092  0.2352
13961W        W56873  24.639  33.045  26.090  0.2147  0.1227  0.2573
13962W        W56874  23.715  33.237  24.276  0.2171 -0.0471  0.0680
13963W        W56875  22.977   0.310  23.722 -0.1182 -0.2698  0.2111
13964W        W56876  21.129  33.314  26.413  0.0566 -0.2728 -0.2218
13965W        W56877  22.133  34.167  25.817  0.2277 -0.2424  0.2563
13966W        W56878  21.943  34.386  24.016 -0.3391 -0.1374  0.1591
13967W        W56879  23.772  34.087  26.569 -0.0235  0.3954 -0.0596
13968W        W56880  24.103   0.640  27.168  0.1764  0.0522 -0.0468
13969W        W56881  25.421  32.103  26.612  0.1228  0.0719  0.0121
13970W        W56882  23.570  33.768  25.619  0.3291 -0.1926 -0.6273
13971W        W56883  23.520  31.199  26.948  0.3439 -0.0202  0.0444
13972W        W56884  24.078  31.908  24.584 -0.0695  0.2388  0.2858
13973W        W56885  23.846  32.620  25.762 -0.1306 -0.2170 -0.2758
13974W        W56886  24.455  32.393  28.230  0.2424  0.2111 -0.1089
13975W        W56887  25.007  33.170  23.266 -0.0659 -0.2815  0.3183
13976W        W56888  23.054  32.644  26.359 -0.1149 -0.3411  0.0303
13977W        W56889  22.191  32.906  26.498 -0.2058  0.3012 -0.1226
13978W        W56890  22.044  32.605  25.579 -0.1475 -0.0723  0.4062
13979W        W56891  22.710   0.963  28.718 -0.1264  0.2927  0.2597
13980W        W56892  24.700  33.125  24.181  0.0109 -0.0426  0.0285
13981W        W56893  22.558  34.091  23.501  0.0270  0.0681  0.1460
13982W        W56894  22.861  33.999  27.435  0.2306  0.2111 -0.1485
13983W        W56895  23.853  33.207  25.495 -0.2332 -0.1443 -0.0392
13984W        W56896  22.830   0.262  25.957  0.0501 -0.2208  0.0306
13985W        W56897  24.434  34.352  25.472  0.0564 -0.1567 -0.1039
13986W        W56898  22.178  33.487  27.509 -0.4161  0.1064  0.0336
13987W        W56899  23.161  33.971  24.662  0.1737 -0.2999  0.1937
13988W        W56900  23.120  33.684  25.129  0.0921  0.4590  0.0665
13989W        W56901  24.794  32.602  26.409 -0.0758  0.1883 -0.1002
13990W        W56902  23.130  32.976  27.362  0.2939 -0.5298 -0.2458
13991W        W56903  21.283  32.189  27.724 -0.0507 -0.1296  0.0613
13992W        W56904  25.148  32.893  24.617  0.0082 -0.1032 -0.1571
13993W        W56905  24.612  32.222  27.308 -0.0869 -0.0429 -0.1094
13994W        W56906  24.680  33.176  25.448  0.0945 -0.0411  0.0767
13995W        W56907  23.893  34.131  22.951 -0.0443 -0.2069 -0.0779
13996W        W56908  22.553  33.036  25.110  0.0882 -0.0139 -0.2619
13997W        W56909  23.871  33.930  27.662 -0.3956  0.1569  0.0831
13998W        W56910  21.935  33.843  24.037  0.0838  0.5125  0.1778
13999W        W56911  22.668  33.493  27.452  0.2424  0.1285 -0.1649
14000W        W56912  24.003  33.785  24.947  0.0695 -0.0797  0.1301
14001W        W56913  20.288  33.109  25.006 -0.0423 -0.1463 -0.0799
14002W        W56914  21.226  33.897  22.458  0.4134 -0.4482 -0.0549
14003W        W56915  24.571   0.782  24.203  0.0839  0.2423  0.1773
14004W        W56916  23.502  33.076  24.707  0.2697 -0.0395 -0.1362
14005W        W56917  24.936  32.129  26.398 -0.1178  0.3462 -0.1401
14006W        W56918  24.050  32.394  26.618  0.1167 -0.0333 -0.0846
14007W        W56919  22.286  32.638  27.008 -0.2542 -0.0634 -0.0731
14008W        W56920  24.850  33.493  24.605 -0.1015 -0.1671  0.0208
14009W        W56921  23.696  33.586  26.364 -0.1947 -0.2834  0.2607
14010W        W56922  24.867  33.401  25.877  0.0988 -0.2529  0.2137
14011W        W56923  23.658  34.439  24.846 -0.0224 -0.1557 -0.0842
14012W        W56924  23.211  32.244  27.318 -0.0981  0.2393 -0.0005
14013W        W56925  23.940  32.811  24.080  0.0678 -0.0454  0.3067
14014W        W56926  22.532  34.412  23.093  0.0315  0.2287  0.2119
14015W        W56927  23.744  32.016  22.288  0.1937 -0.0097 -0.0746
14016W        W56928  24.901  34.500  25.375 -0.1560  0.0221  0.3287
14017W        W56929  23.917  33.215  23.613  0.3070  0.1440  0.2004
14018W        W56930  22.484  34.078  25.429  0.0453  0.0201 -0.3793
14019W        W56931  21.453  34.602  23.011 -0.0985 -0.0593 -0.0745
14020W        W56932  21.610   0.603  28.205 -0.0254  0.3759 -0.3405
14021W        W56933  25.323  32.717  27.254 -0.0475 -0.2635 -0.1823
14022W        W56934  21.148  33.072  24.910 -0.2177  0.2443  0.0741
14023W        W56935  22.920   0.716  25.148 -0.2092 -0.1622  0.0535
14024W        W56936  24.814  32.812  27.352 -0.2223 -0.0847  0.0576
14025W        W56937  23.086  34.141  25.376  0.1516  0.1962  0.2093
14026W        W56938  22.778  33.942  24.314 -0.1527  0.0339  0.3686
14027W        W56939  25.656  34.328  25.635  0.1150  0.0945 -0.3028
14028W        W56940  21.025  32.707  27.676  0.2094 -0.2238  0.0596
14029W        W56941  24.282  32.846  26.590  0.0935  0.0716 -0.0094
14030W        W56942  22.392  33.579  25.167  0.0661 -0.0816  0.0828
14031W        W56943  24.465  34.002  25.113 -0.0546  0.0651 -0.1338
14032W        W56944  22.963  32.572  25.182  0.1436 -0.1826 -0.0902
14033W        W56945  24.113   0.612  23.888  0.0476  0.1019  0.0231
14034W        W56946  25.693  34.482  27.738 -0.4006  0.0278  0.0304
14035W        W56947  23.923  34.044  22.461  0.1782  0.1917 -0.2408
14036W        W56948  21.203  33.946  25.695 -0.0532  0.0497  0.3125
14037W        W56949  24.529  33.661  24.146 -0.0877  0.0173  0.3662
14038W        W56950  22.299  33.834  24.535  0.1646 -0.0834 -0.0047
14039W        W56951  22.294  34.623  25.922 -0.1855 -0.0901  0.0189
14040W        W56952  21.456  33.542  24.756  0.2123  0.0805 -0.0737
14041W        W56953  26.045  32.865  25.348 -0.1494 -0.0600  0.2033
14042W        W56954  23.538  33.571  24.669  0.1416  0.0926  0.2513
14043W        W56955  22.714  34.361  27.095 -0.1304 -0.3930  0.2292
14044W        W56956  23.799  32.291  24.161 -0.3009 -0.0297 -0.1336
14045W        W56957  22.097   0.029  24.948 -0.2425 -0.3830 -0.1641
14046W        W56958  25.331  32.235  27.200  0.1711 -0.0083 -0.2245
14047W        W56959  24.336  32.862  25.645 -0.0360 -0.1142  0.0881
14048W        W56960  26.148  33.351  25.563 -0.1012 -0.1268 -0.0886
14049W        W56961  22.051  34.483  25.429 -0.2729 -0.1368  0.0185
14050W        W56962  22.832  34.444  24.341  0.0842 -0.0835 -0.3253
14051W        W56963  25.656  32.781  24.021  0.1348 -0.0074  0.0713
14052W        W56964  24.740  32.612  24.512  0.1868 -0.0621  0.0516
14053W        W56965  23.609   0.165  27.411  0.0830  0.1490  0.1008
14054W        W56966  21.383   0.910  25.573  0.0237  0.2836  0.0410
14055W        W56967  23.314  31.866  26.818  0.1012 -0.0983 -0.1191
14056W        W56968  22.293  33.688  25.714 -0.1583 -0.2429 -0.0776
14057W        W56969  21.394  33.942  25.123 -0.0603  0.0281  0.0175
14058W        W56970  21.039  33.564  25.128  0.4182  0.0038  0.1824
14059W        W56971  23.263  33.128  25.193 -0.3698  0.0255  0.1050
14060W        W56972  20.233  33.123  25.501  0.0762 -0.0334  0.1291
14061W        W56973  21.967  33.369  24.843 -0.1483 -0.1136  0.1053
14062W        W56974  23.276  34.290  27.347 -0.0830  0.1572 -0.1634
14063W        W56975  24.377  33.082  27.043 -0.1190 -0.0149 -0.2327
14064W        W56976  21.810  33.559  24.416 -0.1119  0.0045 -0.0658
14065W        W56977  23.220   0.325  25.394  0.1541  0.1399  0.0988
14066W        W56978  20.815  33.524  25.563 -0.0712 -0.2257  0.0509
14067W        W56979  25.919  33.222  26.296  0.0851 -0.0129 -0.1158
14068W        W56980  24.103   0.066  24.932 -0.1849 -0.0866 -0.3109
14069W        W56981  19.943  32.459  26.748 -0.1383  0.0865  0.0288
14070W        W56982  23.541  32.424  25.340 -0.1316  0.3049 -0.0593
14071W        W56983  22.660  33.420  23.367  0.2262  0.2075 -0.1808
14072W        W56984  21.158  34.311  26.053 -0.3309  0.1432  0.0321
14073W        W56985  24.537   0.241  24.668  0.0731  0.2181 -0.0103
14074W        W56986  22.798  33.337  25.377 -0.0888  0.2861  0.0308
14075W        W56987  22.885  34.194  23.865  0.0447  0.1647  0.1168
14076W        W56988  24.242  34.401  23.161 -0.7181  0.0665 -0.2253
14077W        W56989  22.318  31.384  27.428  0.0047  0.3087  0.0706
14078W        W56990  21.204  34.064  22.933 -0.1744 -0.1664  0.2172
14079W        W56991  22.356   0.437  25.066  0.0046 -0.0738 -0.0380
14080W        W56992  24.843  34.551  26.907  0.1692  0.1473 -0.2124
14081W        W56993  22.453   0.348  26.293  0.2328  0.2445  0.1011
14082W        W56994  24.294  32.915  23.748  0.2756  0.4285 -0.1688
14083W        W56995  21.433  34.351  28.214  0.2252  0.1711 -0.1766
14084W        W56996  25.323  33.315  26.197 -0.0130 -0.2854 -0.1739
14085W        W56997  23.974  33.624  28.085 -0.0419 -0.1154 -0.0171
14086W        W56998  20.459  33.083  31.029  0.1347  0.0675 -0.0392
14087W        W56999  22.666  33.154  31.664  0.0659  0.2573 -0.3340
14088W        W57000  23.485  33.829  27.279  0.1857  0.0469  0.1466
14089W        W57001  21.579   0.029  29.444 -0.0487 -0.1232 -0.1622
14090W        W57002  22.881  33.325  28.372 -0.0392 -0.1802  0.2096
14091W        W57003  20.222  31.696  28.819  0.1020  0.0571 -0.0932
14092W        W57004  23.620  33.991  29.301  0.3651 -0.0588 -0.2291
14093W        W57005  22.965  34.122  29.098  0.3998 -0.0728 -0.0599
14094W        W57006  21.585  32.701  29.744 -0.1625  0.1811  0.1117
14095W        W57007  21.845   0.040  28.008 -0.1040  0.0464 -0.1662
14096W        W57008  22.060  34.412  30.764 -0.1119 -0.4616 -0.0291
14097W        W57009  24.163  32.185  30.597  0.1697  0.4299  0.0193
14098W        W57010  21.149  33.895  28.344  0.4059 -0.1448 -0.1148
14099W        W57011  22.245  34.242  29.655 -0.1444  0.4132  0.0234
14100W        W57012  21.901  34.028  30.958 -0.0838  0.4170 -0.2031
14101W        W57013  24.481  33.338  31.524 -0.1618 -0.2592  0.0610
14102W        W57014  23.608  33.619  30.462  0.0066  0.1104 -0.0329
14103W        W57015  22.899  33.506  31.895 -0.4530 -0.1740 -0.0833
14104W        W57016  23.600  33.896  30.889  0.0983 -0.3189  0.0169
14105W        W57017  23.771   0.031  29.770 -0.3718 -0.2277 -0.1763
14106W        W57018  24.498   0.149  31.155 -0.2701  0.0617 -0.0777
14107W        W57019  22.708  33.294  25.842  0.2074 -0.3578 -0.0212
14108W        W57020  22.941  32.963  28.755 -0.0475 -0.0357 -0.0414
14109W        W57021  24.850  34.068  27.069 -0.0274 -0.1548  0.0814
14110W        W57022  22.697  33.286  29.633  0.1335 -0.0425  0.0784
14111W        W57023  20.429  33.501  29.127 -0.1572  0.0981 -0.3573
14112W        W57024  22.420  33.596  27.937  0.0045  0.1103  0.0150
14113W        W57025  23.463  33.396  30.970  0.1391  0.2151  0.1534
14114W        W57026  23.328  33.269  28.642 -0.0859  0.0572  0.1836
14115W        W57027  21.858   0.909  28.893  0.2367 -0.0900  0.1581
14116W        W57028  22.572   1.388  30.389 -0.0040 -0.2871 -0.2166
14117W        W57029  20.648  34.514  31.047  0.1416 -0.1745  0.1123
14118W        W57030  21.882  32.228  27.717 -0.0346 -0.0945  0.0724
14119W        W57031  24.373  33.936  27.947 -0.0392 -0.0130 -0.0779
14120W        W57032  24.511  33.117  29.231  0.2733  0.3549 -0.7057
14121W        W57033  23.378  32.690  30.173  0.0970 -0.0596  0.1595
14122W        W57034  25.415  33.148  26.662  0.2607  0.0403  0.1823
14123W        W57035  23.471  34.392  29.542 -0.0156 -0.0906 -0.2524
14124W        W57036  20.059   1.446  30.409 -0.1884  0.1593 -0.1798
14125W        W57037  24.535  33.600  29.251  0.4613 -0.0736 -0.0145
14126W        W57038  21.825  33.210  30.465 -0.0965 -0.0329 -0.3255
14127W        W57039  24.404  34.699  29.426  0.3332 -0.2312 -0.4311
14128W        W57040  24.119  33.236  26.334  0.0312  0.0417  0.3908
14129W        W57041  20.367  34.374  30.552  0.2566  0.2283  0.1855
14130W        W57042  22.062  34.224  28.783 -0.3771 -0.0939  0.0259
14131W        W57043  20.779  32.254  30.911  0.2124  0.0845  0.3436
14132W        W57044  20.878  33.080  31.507 -0.1478  0.2880  0.2309
14133W        W57045  23.277  34.263  31.372  0.4069  0.0351 -0.0842
14134W        W57046  22.125  31.725  29.316  0.0068  0.2553 -0.1063
14135W        W57047  23.438  33.990  28.861 -0.3114 -0.0113 -0.2189
14136W        W57048  23.034  33.503  29.401  0.0738 -0.0600  0.3302
14137W        W57049  22.311  33.289  31.307  0.0758  0.1054  0.3014
14138W        W57050  23.106  33.767  31.215 -0.0443 -0.1093  0.2293
14139W        W57051  21.657  33.031  28.115  0.2757  0.0219  0.1214
14140W        W57052  22.400  33.408  28.403  0.1485  0.0531 -0.0746
14141W        W57053  23.088  33.020  30.955 -0.0807  0.5263  0.2234
14142W        W57054  24.535  34.098  29.577 -0.0612 -0.0486  0.0293
14143W        W57055  22.245  31.771  28.828  0.0037  0.0361 -0.1996
14144W        W57056  21.439  34.550  27.056 -0.2415 -0.2555 -0.2828
14145W        W57057  24.138  33.267  29.929  0.1952  0.2240 -0.1246
14146W        W57058  23.963   1.340  31.043 -0.2155 -0.1372  0.2656
14147W        W57059  22.856  34.459  31.089  0.0002 -0.0068 -0.0822
14148W        W57060  21.297  33.664  29.238 -0.1544 -0.1620  0.0449
14149W        W57061  24.502  31.198  29.925 -0.1665  0.1911  0.1546
14150W        W57062  25.928   0.007  27.325 -0.0823  0.0603 -0.0657
14151W        W57063  24.411  32.574  26.972  0.0666  0.2241  0.0142
14152W        W57064  23.659  33.194  27.166  0.0823  0.0294  0.1114
14153W        W57065  23.184  33.391  27.053 -0.0633 -0.3130 -0.0304
14154W        W57066  21.262  32.437  30.993  0.0095  0.1649  0.0053
14155W        W57067  22.700  33.116  26.492 -0.1730 -0.1184 -0.1946
14156W        W57068  23.763  32.605  29.170 -0.0611  0.1679  0.1781
14157W        W57069  26.263  33.396  29.025 -0.3146 -0.0202  0.0063
14158W        W57070  23.218  33.915  29.556 -0.2783 -0.2336 -0.1330
14159W        W57071  23.062  33.104   0.117 -0.0834  0.0787 -0.1927
14160W        W57072  24.091   0.229  30.735 -0.1778 -0.0143  0.0396
14161W        W57073  25.141  34.421  27.798 -0.0660  0.2339  0.1616
14162W        W57074  24.279   0.502  29.315 -0.2482 -0.2087  0.3566
14163W        W57075  22.172  34.441  28.349 -0.1600 -0.2486  0.0404
14164W        W57076  22.367  34.224  31.133  0.2102  0.1703  0.1417
14165W        W57077  22.747   1.044  31.836 -0.1547  0.2489  0.2518
14166W        W57078  23.036  33.018  26.088  0.1445 -0.0185  0.1604
14167W        W57079  22.157  32.586  30.615  0.0271  0.0475 -0.0742
14168W        W57080  24.562  31.860  30.508 -0.0071 -0.1838  0.2442
14169W        W57081  21.881   0.281  28.463  0.4650 -0.0256  0.1060
14170W        W57082  23.105  33.640  28.872  0.2994 -0.0027 -0.2955
14171W        W57083  23.591  33.539  29.020 -0.1776 -0.1736 -0.1731
14172W        W57084  20.537  34.188  29.761  0.0405 -0.2221  0.0911
14173W        W57085  23.382  32.817  31.785 -0.0438  0.0443  0.0521
14174W        W57086  24.065  34.653  31.374  0.0429 -0.2690 -0.1902
14175W        W57087  24.490  33.039  27.641 -0.1648 -0.0408 -0.3263
14176W        W57088  23.861   0.386  31.575  0.2296  0.0061  0.2851
14177W        W57089  20.820  33.432  26.821 -0.0071  0.3852  0.0980
14178W        W57090  24.719   0.257  29.793  0.2896  0.3411  0.0086
14179W        W57091  23.350  33.678  28.402  0.0313  0.3678  0.2150
14180W        W57092  21.867  33.868  27.315 -0.0310  0.0673  0.0477
14181W        W57093  21.491  34.275  31.200  0.4209  0.1328  0.0285
14182W        W57094  21.698  32.593  31.244  0.4319  0.1361  0.0151
14183W        W57095  24.027  32.826  27.351  0.2498  0.0188 -0.0362
14184W        W57096  24.255  33.823  29.853 -0.0496 -0.2837 -0.3919
14185W        W57097  23.701  33.775  29.876  0.3250 -0.0738 -0.1104
14186W        W57098  22.359  32.855  29.685  0.0430  0.1996 -0.2212
14187W        W57099  24.862  34.291  31.746 -0.1839  0.0234  0.1332
14188W        W57100  23.193  34.243  29.927  0.4816  0.0575  0.0368
14189W        W57101  24.044  32.299  27.237  0.2063 -0.2131 -0.1546
14190W        W57102  24.073  33.489  29.508  0.4283 -0.3813  0.3665
14191W        W57103  24.785  32.404  29.599  0.1459 -0.1456  0.0050
14192W        W57104  24.610  34.469  28.035 -0.0786  0.0026 -0.1046
14193W        W57105  24.205  31.766  31.293  0.1509 -0.0042  0.0570
14194W        W57106  21.539  33.278  29.628 -0.0057 -0.2621  0.0486
14195W        W57107  21.286  33.731  29.748 -0.0907 -0.1464 -0.1279
14196W        W57108  21.433  34.105  30.680  0.3410 -0.0984 -0.1690
14197W        W57109  22.663  33.451  28.883 -0.2459 -0.0577 -0.0582
14198W        W57110  21.355  33.531  28.697  0.4420 -0.2573 -0.0133
14199W        W57111  21.937  34.603  31.328 -0.2156  0.2909 -0.0883
14200W        W57112  23.564  32.956  29.600  0.1470  0.2862 -0.3356
14201W        W57113  22.879  33.712  29.814  0.1036  0.0804 -0.0239
14202W        W57114  23.642  34.397  28.543  0.1638 -0.1970  0.2015
14203W        W57115  22.123  32.846  31.426 -0.0876  0.1042 -0.0711
14204W        W57116  23.567  33.255  30.116 -0.0777 -0.0252 -0.2484
14205W        W57117  23.482  32.978  31.247  0.0295 -0.1442  0.1482
14206W        W57118  22.257  33.431  30.759 -0.3633 -0.2993 -0.2002
14207W        W57119  24.038   0.899   0.351  0.2809  0.3967 -0.0351
14208W        W57120  22.291  33.951  30.662 -0.2196  0.1522  0.2001
14209W        W57121  24.990  32.886  26.813  0.0856 -0.1111  0.0799
14210W        W57122  24.776  34.538  30.323 -0.1829 -0.0847 -0.1416
14211W        W57123  23.674  33.440  27.603  0.3446 -0.3342  0.2745
14212W        W57124  23.023  33.462  26.573 -0.3715 -0.2329 -0.1901
14213W        W57125  21.813  33.818  30.516 -0.0911  0.0501 -0.1385
14214W        W57126  24.575   0.718  29.630  0.0242 -0.0655  0.1764
14215W        W57127  21.918  32.286  27.202  0.1527  0.1982 -0.0126
14216W        W57128  23.158  33.835  30.710  0.2245  0.0633 -0.0415
14217W        W57129  25.694  34.271  28.975  0.0103  0.0924  0.0601
14218W        W57130  21.337  32.419  29.473 -0.0480  0.0898  0.0069
14219W        W57131  21.727  33.256  27.542 -0.2840  0.4394 -0.0589
14220W        W57132  21.664  34.500  28.651 -0.0130  0.1051  0.0080
14221W        W57133  23.663  32.246  27.698  0.1661  0.1878  0.0362
14222W        W57134  25.252  34.105  30.786 -0.1179  0.0082 -0.0638
14223W        W57135  22.799  32.940  29.289 -0.0889  0.2389 -0.0616
14224W        W57136  22.717  33.349  30.148 -0.3332 -0.2792  0.0098
14225W        W57137  23.735  32.625  30.939 -0.0085 -0.0964 -0.4316
14226W        W57138  23.812  33.594  28.544 -0.0015 -0.1555 -0.0660
14227W        W57139  25.643  33.889  31.069  0.0379 -0.1805  0.0068
14228W        W57140  21.719  33.542  30.050 -0.1665 -0.2167  0.2552
14229W        W57141  21.095   0.023   0.700 -0.2089  0.0362  0.1545
14230W        W57142  23.332  32.293  28.625 -0.0575  0.1241  0.3127
14231W        W57143  23.817  32.799  26.870  0.1336  0.0090 -0.0996
14232W        W57144  26.160  33.002  27.773  0.0538  0.2877  0.0177
14233W        W57145  25.358  33.705  29.555  0.0787 -0.1101  0.0904
14234W        W57146  23.855  33.116  28.692 -0.0636 -0.3774 -0.1393
14235W        W57147  21.830   0.108  29.990  0.1889 -0.1086  0.1457
14236W        W57148  22.871  32.455  28.618 -0.2180  0.0127 -0.2020
14237W        W57149  23.800   0.028   0.012  0.0053 -0.2778 -0.0796
14238W        W57150  25.283  33.182  31.034 -0.1225 -0.2817 -0.0575
14239W        W57151  23.134  34.275  28.664 -0.0389  0.2661  0.0798
14240W        W57152  22.325   0.528  30.782 -0.1844  0.1570  0.0074
14241W        W57153  26.382  32.546  29.619 -0.0626 -0.0042 -0.0488
14242W        W57154  24.530  32.096  29.244  0.1263 -0.2652 -0.0416
14243W        W57155  21.924  33.003  29.418  0.1062  0.0569 -0.1557
14244W        W57156  25.721  34.654  28.553  0.4037  0.2218 -0.4165
14245W        W57157  22.637  34.265  30.084  0.2647  0.4644 -0.1613
14246W        W57158  23.937  33.068  31.054  0.0338  0.0270  0.3197
14247W        W57159  23.155  32.797  28.240 -0.1406 -0.0233 -0.0484
14248W        W57160  24.355   0.225  28.922 -0.0958  0.0010 -0.3510
14249W        W57161  22.223  34.527  30.287  0.2144 -0.0533 -0.4621
14250W        W57162  23.775  34.443  27.880 -0.0680  0.1075 -0.1757
14251W        W57163  24.693   1.313  31.658  0.0531  0.0230  0.1169
14252W        W57164  23.915  33.928  27.010  0.1035 -0.0510 -0.2432
14253W        W57165  21.668  33.484  27.098  0.1379  0.3271 -0.0176
14254W        W57166  25.007  33.588  27.876  0.1423  0.1913  0.0318
14255W        W57167  23.034  34.254  30.425 -0.0195 -0.0400  0.0320
14256W        W57168  22.693  33.838  30.309 -0.0311  0.1390 -0.0963
14257W        W57169  22.028  32.675  28.943 -0.0802  0.0280  0.1185
14258W        W57170  24.849  34.440  29.340 -0.0058  0.3072  0.1656
14259W        W57171  24.418   0.823  28.595  0.2647 -0.0621 -0.2999
14260W        W57172  21.994   0.192  30.550  0.1643  0.1428  0.0989
14261W        W57173  23.711  33.161  28.218  0.0885 -0.1655  0.0215
14262W        W57174  22.793  34.180  29.594 -0.0412 -0.1999 -0.1605
14263W        W57175  23.488  32.943  30.628  0.2415  0.1638 -0.1803
14264W        W57176  22.410  33.762  31.120  0.0536  0.4574 -0.2003
14265W        W57177  25.076  33.104  30.393  0.0073  0.0689  0.0910
14266W        W57178  24.225  33.965  29.178  0.0626 -0.0683 -0.2114
14267W        W57179  21.986  34.026  30.078 -0.0379  0.5224 -0.0637
14268W        W57180  25.396  32.910  29.566 -0.3563 -0.0926  0.1375
14269W        W57181  25.304  32.586  26.695 -0.3174 -0.1312  0.3301
14270W        W57182  21.920   0.465  31.545 -0.1844  0.1025  0.3161
14271W        W57183  20.614  32.853  27.958 -0.1730 -0.3562 -0.0916
14272W        W57184  23.046  34.119  31.957  0.1730 -0.0379 -0.2694
14273W        W57185  22.013  33.042  30.953  0.2837  0.3800  0.2490
14274W        W57186  22.271   0.599  28.838 -0.1059 -0.1847 -0.0035
14275W        W57187  22.167  33.702  28.774 -0.0096 -0.1710  0.1544
14276W        W57188  21.703  32.399  30.698  0.0337  0.1897 -0.1416
14277W        W57189  20.371  33.894  30.909  0.0388 -0.5062 -0.1291
14278W        W57190  24.107  33.532  28.959 -0.5896 -0.0722 -0.3514
14279W        W57191  21.611  34.607  30.860 -0.0598 -0.1316  0.2224
14280W        W57192  24.135  34.351   0.317 -0.2718  0.0411  0.0290
14281W        W57193  21.813  32.580  28.324  0.2867  0.1598 -0.0002
14282W        W57194  23.251  33.658  30.119 -0.1359 -0.0772 -0.0087
14283W        W57195  22.551  32.436  29.856 -0.1157  0.0506 -0.0349
14284W        W57196  25.451  32.908  28.518 -0.1819 -0.6153  0.0231
14285W        W57197  22.938  33.664  28.028  0.0139 -0.1763 -0.2801
14286W        W57198  22.558  33.088   0.229 -0.0457  0.1107  0.2222
14287W        W57199  22.738  32.461  27.240  0.0377  0.1271  0.1275
14288W        W57200  25.208  33.177  28.125 -0.0079  0.2356  0.0602
14289W        W57201  22.203  33.333  29.816 -0.2838  0.3358 -0.2395
14290W        W57202  23.594  32.958  27.655  0.1399 -0.1488 -0.2994
14291W        W57203  23.703  33.784  31.337 -0.1507 -0.0816  0.1995
14292W        W57204  23.334  33.977  27.760 -0.0368  0.2819  0.1959
14293W        W57205  23.678  33.991  28.172  0.0011 -0.1699 -0.3238
14294W        W57206  22.567  32.556  30.373 -0.0852  0.0582 -0.0981
14295W        W57207  23.912  34.302  30.070  0.3668  0.1392 -0.1244
14296W        W57208  22.577   0.797  29.188  0.2074 -0.1012 -0.0134
14297W        W57209  23.944  32.641  31.485 -0.0316 -0.2315 -0.0833
14298W        W57210  22.626  33.711  29.322  0.4650 -0.2275 -0.0388
14299W        W57211  23.506  32.782  28.760 -0.0805 -0.0430 -0.2389
14300W        W57212  24.173  33.756   0.316 -0.0218  0.0436 -0.2229
14301W        W57213  23.740  34.344  31.102 -0.0373  0.0683  0.2040
14302W        W57214  21.708   0.512   0.614  0.2562 -0.1160 -0.0343
14303W        W57215  24.399  34.170  31.398 -0.0180 -0.0362 -0.0127
14304W        W57216  22.468  34.547  31.539 -0.1067 -0.0425  0.1177
14305W        W57217  24.731   0.734  31.847 -0.0251  0.0052 -0.2297
14306W        W57218  23.540  32.233  31.205 -0.1099  0.1264  0.0717
14307W        W57219  24.990  33.942  29.852 -0.0940 -0.3892 -0.1826
14308W        W57220  21.696  33.510  30.881  0.0035 -0.2591  0.1317
14309W        W57221  22.628   0.532   0.199 -0.3220 -0.5215 -0.2343
14310W        W57222  20.945  33.567  31.591 -0.1834 -0.2349  0.0004
14311W        W57223  23.726  31.936  31.533  0.1507 -0.2231 -0.1173
14312W        W57224  23.215  32.502   0.150 -0.1470 -0.4194 -0.1097
14313W        W57225  22.755  34.006  30.876 -0.2784 -0.1838 -0.0182
14314W        W57226  23.306  33.820  31.658 -0.2006 -0.0394 -0.2412
14315W        W57227  23.544  34.670  31.469  0.2348 -0.0423 -0.0707
14316W        W57228  22.383  34.254   0.642  0.1067  0.2904 -0.0750
14317W        W57229  24.720  33.891  31.081  0.3496  0.0627  0.0279
14318W        W57230  23.129  33.307  31.421  0.0426 -0.0486  0.0814
14319W        W57231  22.386  33.623   1.118  0.2922  0.1283  0.0012
14320W        W57232  24.377   1.071   0.019 -0.0443  0.0193 -0.0910
14321W        W57233  25.230   0.545  31.615 -0.0987 -0.4253  0.1105
14322W        W57234  24.432  34.693   0.481  0.1256  0.0016 -0.0136
14323W        W57235  23.481  32.364  31.714  0.2786  0.1318 -0.0760
14324W        W57236  21.472  32.900  30.870  0.2253 -0.0764 -0.0272
14325W        W57237  23.039   1.460  31.517  0.1235 -0.0759  0.4048
14326W        W57238  23.161  31.555  31.280  0.0038  0.2629 -0.0035
14327W        W57239  24.024  32.186  31.103 -0.0799  0.0552  0.0828
14328W        W57240  22.621   0.704   0.670  0.0874  0.0199 -0.2489
14329W        W57241  24.299  34.093  31.914 -0.3362  0.0374 -0.2833
14330W        W57242  23.202  34.651   0.346  0.1711  0.0315  0.0514
14331W        W57243  21.881  34.211   0.344 -0.0445  0.3541 -0.2469
14332W        W57244  21.944  33.801  29.672  0.4302  0.0287  0.1110
14333W        W57245  24.472  33.765  30.625  0.1343  0.1216 -0.3610
14334W        W57246  27.644   0.746  18.686  0.0623 -0.0321  0.0514
14335W        W57247  26.369  34.524  16.615 -0.1152  0.0102 -0.0535
14336W        W57248  27.649  34.636  17.499 -0.1599 -0.3778 -0.0381
14337W        W57249  28.854   1.376  16.429  0.0296 -0.1353 -0.2203
14338W        W57250  25.847   0.657  17.409 -0.1264 -0.3944 -0.1870
14339W        W57251  27.042   3.775  17.285 -0.1884 -0.0003  0.3845
14340W        W57252  25.094   0.087  18.964  0.1750  0.1559 -0.1885
14341W        W57253  29.614   2.535  18.521  0.3574  0.2202  0.0231
14342W        W57254  27.139   3.632  20.037 -0.0249  0.0309  0.2926
14343W        W57255  27.398   2.603  16.581 -0.0028 -0.1896 -0.0573
14344W        W57256  27.488   1.130  19.605 -0.0663 -0.1573 -0.0345
14345W        W57257  26.146   3.324  18.105 -0.0140 -0.2091  0.1084
14346W        W57258  26.124  34.584  17.596  0.0608  0.0495  0.1041
14347W        W57259  24.915   0.671  17.421 -0.1714  0.1441  0.1523
14348W        W57260  29.758   1.260  18.258 -0.1550 -0.0167 -0.2093
14349W        W57261  25.344   1.920  17.335  0.0208  0.0943 -0.0804
14350W        W57262  26.301   0.628  17.309 -0.2594  0.0282  0.1230
14351W        W57263  25.774   1.709  16.146 -0.2202 -0.0075 -0.3194
14352W        W57264  27.013   4.694  16.892  0.1743  0.0585  0.0111
14353W        W57265  28.100   2.000  18.111 -0.0451  0.2759  0.2420
14354W        W57266  26.761  33.600  17.774 -0.0166  0.2503  0.0925
14355W        W57267  26.540   1.462  16.846 -0.0484  0.1466  0.1590
14356W        W57268  26.296   1.187  17.284  0.1064 -0.0132 -0.1540
14357W        W57269  26.982   1.101  19.378  0.0163 -0.0846  0.3249
14358W        W57270  27.257   1.981  16.624 -0.3526  0.0796 -0.1225
14359W        W57271  27.865   0.465  19.205 -0.1584  0.0659 -0.0134
14360W        W57272  27.435   1.896  17.096  0.3278  0.1270 -0.0524
14361W        W57273  27.240   4.401  18.382 -0.1145  0.4251  0.5058
14362W        W57274  27.585   3.759  17.368 -0.0069 -0.1209  0.0284
14363W        W57275  29.990   2.039  20.374  0.0756  0.0350  0.3803
14364W        W57276  25.553   2.507  16.519 -0.2005 -0.2592  0.0287
14365W        W57277  25.136   3.425  17.220  0.0631 -0.0776 -0.2453
14366W        W57278  24.293   2.351  16.480  0.2117 -0.1230 -0.0655
14367W        W57279  27.800   2.117  17.704  0.1519 -0.3421 -0.0419
14368W        W57280  29.492   2.876  20.434  0.3604 -0.0791  0.1762
14369W        W57281  26.746   4.094  19.157 -0.2035  0.0524 -0.2155
14370W        W57282  24.848   3.195  16.808 -0.3368  0.1967 -0.2711
14371W        W57283  26.948   2.215  18.875 -0.1076 -0.0544 -0.4534
14372W        W57284  27.065   1.791  18.075 -0.1829 -0.0557 -0.1158
14373W        W57285  26.504   1.634  17.332 -0.1760  0.2888 -0.1348
14374W        W57286  28.061   1.863  16.243  0.1620  0.0776 -0.2230
14375W        W57287  25.780   3.543  15.566  0.4280 -0.1286 -0.1452
14376W        W57288  26.810   3.206  16.143  0.0563  0.3935  0.2619
14377W        W57289  26.623   1.867  19.275 -0.0273  0.1678  0.0749
14378W        W57290  24.541   2.875  17.172  0.0281 -0.0172  0.0841
14379W        W57291  28.543   1.595  20.852  0.0593 -0.1120  0.1577
14380W        W57292  26.001   3.402  15.966 -0.0775  0.0092 -0.2314
14381W        W57293  29.815   0.899  16.753 -0.0554 -0.0266  0.2314
14382W        W57294  27.000  34.200  17.090 -0.1878 -0.2262  0.2913
14383W        W57295  27.787   0.620  16.377  0.4054 -0.0350 -0.2248
14384W        W57296  28.046   0.884  16.802  0.1357  0.2310 -0.2547
14385W        W57297  26.965   2.880  16.808 -0.1153 -0.2442  0.0504
14386W        W57298  26.213   1.308  19.709 -0.0022  0.3181 -0.2217
14387W        W57299  29.068   1.750  18.585  0.0977  0.0658  0.0987
14388W        W57300  27.750   2.641  17.638 -0.2434 -0.2873  0.0710
14389W        W57301  28.035   0.605  18.285 -0.0228 -0.0864  0.1394
14390W        W57302  28.522   3.330  17.912  0.4627 -0.1994  0.1963
14391W        W57303  27.783   0.444  16.878  0.0290  0.2785 -0.1147
14392W        W57304  28.929   3.904  16.477 -0.1617 -0.2067 -0.0694
14393W        W57305  27.867   2.923  17.204  0.1152  0.0005  0.0411
14394W        W57306  27.339   3.521  16.862  0.0667 -0.2181  0.1042
14395W        W57307  26.694   0.613  17.031 -0.2680  0.0632 -0.1449
14396W        W57308  25.540   2.461  18.349 -0.1761 -0.1078 -0.0688
14397W        W57309  24.786   2.980  18.522 -0.1145 -0.1297 -0.1843
14398W        W57310  26.882  33.845  16.446 -0.1032 -0.2376  0.2497
14399W        W57311  28.494   1.875  20.248 -0.0360  0.2590  0.0160
14400W        W57312  26.926   2.453  19.778  0.0654  0.2071 -0.3645
14401W        W57313  29.115   0.803  17.175  0.0219 -0.2599  0.0306
14402W        W57314  28.064   2.515  19.718 -0.0858  0.2541  0.0028
14403W        W57315  28.936   2.509  17.872  0.0518 -0.1996  0.0804
14404W        W57316  28.255   3.171  16.264  0.0825  0.3055 -0.1642
14405W        W57317  26.192   1.092  19.165  0.0534 -0.3010 -0.0715
14406W        W57318  28.885   0.955  19.106 -0.1413 -0.0263  0.1194
14407W        W57319  26.791   2.830  15.778  0.1286  0.0516 -0.0922
14408W        W57320  25.262   1.058  17.147 -0.2335  0.1308 -0.1063
14409W        W57321  28.768   3.184  18.352  0.3134 -0.4487  0.1186
14410W        W57322  28.714   1.611  16.931  0.1741  0.1136 -0.1146
14411W        W57323  25.986   3.155  17.088  0.0184 -0.1151 -0.1051
14412W        W57324  26.071   2.214  19.215  0.0261  0.0589 -0.0677
14413W        W57325  27.727   2.905  19.863  0.1067  0.1379 -0.1475
14414W        W57326  25.271   3.541  15.697 -0.0116 -0.0245  0.4420
14415W        W57327  24.399   3.087  17.620 -0.1602 -0.0276  0.0154
14416W        W57328  26.490   2.077  17.640 -0.0396 -0.2200 -0.0128
14417W        W57329  25.679   0.115  19.150  0.0445  0.2489 -0.0618
14418W        W57330  27.801   2.547  18.132 -0.1132  0.2550  0.4212
14419W        W57331  28.522   0.804  17.103 -0.1488 -0.3730 -0.2995
14420W        W57332  25.340   1.336  20.148  0.0700 -0.1545 -0.3299
14421W        W57333  28.161   0.701  17.625 -0.4089 -0.0723 -0.1363
14422W        W57334  26.614   1.645  17.881  0.2627 -0.0784  0.1379
14423W        W57335  29.187   1.944  17.937  0.0557 -0.0715 -0.2214
14424W        W57336  28.927   1.226  15.381 -0.1321  0.0337  0.0952
14425W        W57337  28.799   4.245  16.871 -0.1210 -0.1449  0.1697
14426W        W57338  24.832   1.184  17.398  0.1138  0.1948 -0.1230
14427W        W57339  25.470   1.229  18.024  0.0697  0.0261  0.1735
14428W        W57340  26.135   0.528  19.729 -0.1051  0.0055  0.0421
14429W        W57341  25.394   0.419  17.390 -0.2177  0.0852 -0.2320
14430W        W57342  28.775   1.038  18.634 -0.2714  0.2879 -0.0396
14431W        W57343  23.818   0.048  16.452 -0.0468  0.0995 -0.1146
14432W        W57344  29.198   0.566  18.484 -0.1818  0.1240  0.0438
14433W        W57345  27.154   2.413  16.986  0.0972 -0.3858  0.0290
14434W        W57346  26.297   1.918  16.018  0.1776 -0.0011  0.1338
14435W        W57347  27.601   1.259  18.496 -0.0426 -0.1054 -0.0694
14436W        W57348  27.396   2.220  18.069  0.1779 -0.2561 -0.1348
14437W        W57349  29.305   3.912  18.244 -0.1669  0.0658  0.0393
14438W        W57350  28.320   3.928  18.250 -0.1716  0.2073  0.1204
14439W        W57351  27.970   1.603  20.805 -0.0449 -0.0048  0.2186
14440W        W57352  26.712   0.577  17.688 -0.1899  0.0846 -0.1287
14441W        W57353  25.870   4.927  18.179 -0.0827  0.3354  0.0239
14442W        W57354  28.284   2.936  17.452 -0.3258 -0.1069 -0.1695
14443W        W57355  27.484   0.833  16.719 -0.3651 -0.1002 -0.0973
14444W        W57356  28.265   2.543  18.832 -0.0187 -0.1521  0.1398
14445W        W57357  27.613   2.895  16.223  0.0148 -0.0061 -0.0349
14446W        W57358  25.954   1.412  20.236 -0.0037 -0.1158  0.0104
14447W        W57359  27.782  34.137  18.711  0.0217 -0.0225  0.3619
14448W        W57360  28.735   1.762  17.565  0.2156 -0.3037  0.0891
14449W        W57361  28.136   2.274  16.799 -0.0755  0.1001 -0.0488
14450W        W57362  26.592  33.711  16.045 -0.0308 -0.3719  0.2038
14451W        W57363  28.603   4.178  17.526  0.2351  0.3239  0.2207
14452W        W57364  25.039   3.709  16.430  0.2229  0.0145 -0.0776
14453W        W57365  24.374   1.362  17.381 -0.3836  0.2741 -0.2570
14454W        W57366  27.222   3.906  18.276 -0.0720 -0.2261  0.1022
14455W        W57367  29.548   1.364  18.747 -0.0346  0.1196  0.3228
14456W        W57368  26.762   2.156  20.207  0.0275 -0.0615 -0.0132
14457W        W57369  27.829   1.096  18.149 -0.2016  0.4696  0.1498
14458W        W57370  24.860   0.108  18.450  0.1412  0.1623  0.3011
14459W        W57371  26.050   2.922  19.128 -0.0933 -0.1273 -0.2195
14460W        W57372  28.181   1.101  17.322  0.0095 -0.3307  0.0389
14461W        W57373  28.481   0.686  15.770 -0.0324 -0.0882  0.1608
14462W        W57374  28.520   1.548  19.380  0.0146 -0.0688  0.2526
14463W        W57375  28.263   1.954  17.663 -0.2830 -0.1899  0.0531
14464W        W57376  28.456   1.195  16.690  0.1757 -0.2762  0.1466
14465W        W57377  27.712   0.335  15.973  0.2792  0.0155 -0.1223
14466W        W57378  25.118   3.133  19.434 -0.1909 -0.1984 -0.3684
14467W        W57379  28.203   4.361  17.922 -0.2784  0.2601 -0.2184
14468W        W57380  26.450   2.027  18.841  0.0561 -0.1492 -0.5331
14469W        W57381  27.188   0.239  15.840  0.0300  0.1636  0.0779
14470W        W57382  29.213   3.288  17.445 -0.3184  0.0529 -0.2386
14471W        W57383  25.560   2.731  17.840  0.0217 -0.0579 -0.1561
14472W        W57384  28.042   2.811  19.241 -0.1557 -0.0654 -0.4485
14473W        W57385  29.092   2.447  17.275 -0.3859  0.0960 -0.0104
14474W        W57386  25.556   0.832  19.476 -0.1766 -0.0048  0.2011
14475W        W57387  25.276   1.382  17.577 -0.5160 -0.1440  0.1250
14476W        W57388  28.956   1.945  17.202 -0.2271  0.1734  0.0773
14477W        W57389  24.404   2.621  16.043 -0.1578 -0.2132  0.1674
14478W        W57390  28.197   1.139  18.575 -0.1436 -0.2855  0.0032
14479W        W57391  29.061   1.058  17.639  0.0780  0.4427 -0.0555
14480W        W57392  26.642   0.523  18.533 -0.1909 -0.0312 -0.2384
14481W        W57393  29.315   2.120  19.687  0.0741 -0.1530 -0.1007
14482W        W57394  28.316   1.573  17.297 -0.2208  0.1062  0.0741
14483W        W57395  27.978  34.644  19.094  0.0561  0.0981 -0.3251
14484W        W57396  25.418   1.254  16.264 -0.0565  0.0397  0.0764
14485W        W57397  27.047   0.169  18.545  0.0190 -0.2931 -0.1096
14486W        W57398  25.833   2.807  17.442 -0.0820  0.0204  0.0349
14487W        W57399  24.821   3.578  19.694 -0.2011  0.0120  0.1762
14488W        W57400  28.630   1.501  18.784  0.1999  0.2688  0.1144
14489W        W57401  27.467   1.650  17.531 -0.1315 -0.0852  0.1218
14490W        W57402  26.937   0.174  17.826  0.1910  0.1064  0.1908
14491W        W57403  27.765  34.301  16.132  0.1198  0.0825 -0.3321
14492W        W57404  25.659   3.032  16.403 -0.0454 -0.2551 -0.1996
14493W        W57405  26.428   2.218  16.446  0.0189  0.0826 -0.0737
14494W        W57406  26.842  33.815  18.644  0.0331 -0.2974 -0.1922
14495W        W57407  26.812   2.307  17.289 -0.2763 -0.1334 -0.3348
14496W        W57408  27.514   3.307  17.284 -0.0629 -0.1273  0.1684
14497W        W57409  29.205   2.364  18.836  0.0091 -0.0179 -0.1516
14498W        W57410  25.201   1.757  16.282 -0.1534 -0.3084 -0.0234
14499W        W57411  29.854   0.919  19.075 -0.0705  0.3915  0.2198
14500W        W57412  25.928   2.184  16.582 -0.1566 -0.1862  0.0383
14501W        W57413  27.170   0.941  17.707 -0.0467  0.3918  0.1634
14502W        W57414  26.084   1.351  17.855 -0.3203 -0.3019  0.2443
14503W        W57415  28.893   0.223  17.828  0.0696 -0.0926  0.0476
14504W        W57416  28.450   2.811  16.549  0.0320  0.0604 -0.0017
14505W        W57417  24.692   1.328  18.372 -0.2092 -0.1805 -0.0020
14506W        W57418  29.467   0.881  18.012 -0.0549 -0.1859  0.0916
14507W        W57419  24.166   2.757  16.809  0.0645 -0.2135 -0.2575
14508W        W57420  28.434   0.941  18.069  0.2942  0.0880  0.2418
14509W        W57421  28.446   0.586  16.590 -0.0304 -0.0827  0.0157
14510W        W57422  27.378   1.329  19.185  0.0388  0.0955 -0.0484
14511W        W57423  27.374   2.656  20.337 -0.1000  0.1716 -0.0234
14512W        W57424  26.511   0.029  16.209  0.2028 -0.2672  0.0913
14513W        W57425  30.251   1.904  18.139  0.1169  0.2067  0.2859
14514W        W57426  26.474   1.003  15.714 -0.1761 -0.1664 -0.1809
14515W        W57427  26.098   2.637  16.350  0.2477  0.2549  0.0993
14516W        W57428  27.841   2.220  19.213 -0.0124  0.1790 -0.0055
14517W        W57429  26.700   3.234  16.612  0.2652  0.0297 -0.0239
14518W        W57430  25.086   2.817  16.608 -0.3834 -0.0123 -0.2369
14519W        W57431  26.909  34.616  20.956 -0.1139  0.1900  0.1484
14520W        W57432  29.758   1.045  17.625 -0.1481  0.0540 -0.1133
14521W        W57433  27.996   0.271  17.853 -0.0255 -0.0656 -0.0992
14522W        W57434  27.299   0.437  17.592  0.2466  0.0166  0.0540
14523W        W57435  27.256   1.940  16.130 -0.2924 -0.0910 -0.0372
14524W        W57436  27.061   1.623  19.472 -0.1509  0.0886  0.1829
14525W        W57437  25.436   0.577  19.004 -0.0459  0.0916  0.4013
14526W        W57438  26.264   2.532  18.863 -0.2518  0.2649  0.0726
14527W        W57439  27.379   0.732  19.212  0.1375  0.2073  0.2210
14528W        W57440  30.129   2.421  17.390  0.2157  0.1250  0.2685
14529W        W57441  30.079   2.202  18.553  0.0043 -0.1285  0.0013
14530W        W57442  24.914   2.707  16.153 -0.1400 -0.1320 -0.0151
14531W        W57443  25.557   3.341  16.774 -0.0197  0.0991 -0.1131
14532W        W57444  28.713   4.085  17.987 -0.2099  0.3996  0.0735
14533W        W57445  26.984   0.618  18.111 -0.1651  0.2566  0.0818
14534W        W57446  26.788   1.794  18.604  0.1038 -0.0090 -0.0063
14535W        W57447  26.117   2.421  17.788 -0.1106  0.1240 -0.0437
14536W        W57448  25.330   3.012  18.512  0.2121 -0.1868 -0.0002
14537W        W57449  28.782   0.509  16.171  0.0142 -0.0366  0.0511
14538W        W57450  26.359   3.521  16.818  0.4003  0.4022  0.0678
14539W        W57451  26.802   1.120  17.229 -0.1518  0.1187 -0.1331
14540W        W57452  28.611   0.720  20.351 -0.0356  0.0163 -0.0972
14541W        W57453  28.282   1.416  16.184  0.0401 -0.5132  0.1009
14542W        W57454  26.743   1.230  20.760 -0.1928  0.0374 -0.0596
14543W        W57455  26.217   0.865  20.258 -0.0701 -0.1329 -0.0059
14544W        W57456  27.383   1.222  17.212  0.2183 -0.2240 -0.1046
14545W        W57457  25.605   1.430  17.111 -0.1122  0.2232  0.1769
14546W        W57458  27.912   2.715  20.276 -0.3070 -0.2239  0.1017
14547W        W57459  25.654   2.003  19.794  0.2175  0.0241  0.1788
14548W        W57460  28.547  34.535  17.744 -0.2178  0.2934 -0.1629
14549W        W57461  26.967  34.065  15.905 -0.0411  0.0894  0.1592
14550W        W57462  28.031   3.064  17.942 -0.1174 -0.0244  0.2642
14551W        W57463  27.062   1.675  18.991  0.0701  0.1055  0.1451
14552W        W57464  28.047   2.865  15.745  0.2609 -0.0921 -0.2803
14553W        W57465  30.569   1.522  16.828 -0.1230  0.2319 -0.1930
14554W        W57466  25.557   2.874  16.909  0.1000 -0.1335  0.0075
14555W        W57467  28.199   0.473  17.143  0.1604  0.4616  0.1389
14556W        W57468  27.439   1.387  16.715 -0.3633  0.0989 -0.1148
14557W        W57469  27.401   1.361  17.981 -0.3580 -0.0161  0.4501
14558W        W57470  26.604   1.396  19.424 -0.0358  0.1314 -0.3075
14559W        W57471  27.665   1.742  18.090  0.0432 -0.1160  0.0790
14560W        W57472  28.775   0.542  18.766 -0.0087 -0.2650  0.0230
14561W        W57473  26.784  34.187  19.077 -0.0064  0.0938 -0.1290
14562W        W57474  28.378   0.351  18.551 -0.1777 -0.0944 -0.0093
14563W        W57475  28.113   0.659  18.824 -0.1947  0.2728  0.0444
14564W        W57476  23.844   1.302  18.777  0.2113 -0.0458 -0.1846
14565W        W57477  28.849   2.982  20.264 -0.0500  0.0660  0.1040
14566W        W57478  30.273   0.594  16.982  0.0574 -0.1686  0.3610
14567W        W57479  29.010   1.257  19.585  0.0397 -0.2677  0.2174
14568W        W57480  29.612   2.339  17.327 -0.4632 -0.2628  0.0266
14569W        W57481  27.940   1.997  17.239 -0.0952 -0.0810  0.3491
14570W        W57482  26.318   1.694  18.507  0.1905 -0.1910 -0.0152
14571W        W57483  29.778   2.493  19.964  0.1270 -0.0796 -0.2814
14572W        W57484  26.803  34.305  16.348  0.2620  0.0356  0.0641
14573W        W57485  28.504   0.462  18.103  0.0823 -0.3508  0.1570
14574W        W57486  26.353   2.785  17.496  0.0300  0.1015 -0.0765
14575W        W57487  28.141   2.456  17.329 -0.0275  0.2178 -0.0002
14576W        W57488  28.954   0.690  16.754  0.1223  0.0408  0.0634
14577W        W57489  25.698   1.276  19.194 -0.1334 -0.0036 -0.2971
14578W        W57490  28.241   2.091  18.951  0.0288  0.0734 -0.0752
14579W        W57491  26.182   0.460  16.860  0.1061 -0.2515  0.4837
14580W        W57492  27.787   1.791  16.719  0.0750 -0.1115  0.1544
14581W        W57493  28.019   1.499  18.279 -0.2594 -0.1927  0.0765
14582W        W57494  29.319   3.405  19.577 -0.2248 -0.0632 -0.0658
14583W        W57495  27.713  33.562  16.525 -0.0572 -0.0403 -0.0898
14584W        W57496  28.787   0.531  19.357  0.1219  0.2807  0.1757
14585W        W57497  25.071   2.697  17.126 -0.1496  0.1539 -0.2774
14586W        W57498  28.844  34.036  17.274 -0.1224 -0.0068 -0.0299
14587W        W57499  27.477   2.536  18.464 -0.1571  0.0665 -0.1336
14588W        W57500  26.736   3.245  18.693  0.0939  0.3116 -0.1070
14589W        W57501  26.918   2.310  16.502  0.0285 -0.0299  0.0496
14590W        W57502  27.476   0.408  18.385 -0.2319  0.0855  0.1109
14591W        W57503  26.900   1.267  18.102  0.3846 -0.2279 -0.0214
14592W        W57504  27.256   0.754  17.194  0.2588 -0.0287 -0.0066
14593W        W57505  29.021   1.213  20.902 -0.2760 -0.2884 -0.4193
14594W        W57506  27.164   1.469  18.497 -0.1068  0.2210  0.0241
14595W        W57507  27.502   3.094  17.783 -0.1286 -0.3150  0.1296
14596W        W57508  28.392   3.863  19.125  0.0310  0.0500  0.4197
14597W        W57509  28.318   2.395  18.298 -0.0234  0.1324 -0.0168
14598W        W57510  25.058   2.841  18.108 -0.0572 -0.2709  0.0873
14599W        W57511  25.758   1.871  20.250  0.0255 -0.4144 -0.0401
14600W        W57512  28.514   1.053  19.513 -0.1912  0.0481  0.0478
14601W        W57513  27.836   1.401  17.031 -0.2406 -0.1323  0.0227
14602W        W57514  25.341  34.542  17.374 -0.0329  0.0251  0.4280
14603W        W57515  27.549   3.750  16.048 -0.0968  0.1459  0.2115
14604W        W57516  25.634   3.975  18.331 -0.0890 -0.1034  0.0671
14605W        W57517  25.984   1.384  18.763  0.1075 -0.4382  0.2625
14606W        W57518  25.120   3.185  16.245  0.2181 -0.1460  0.0185
14607W        W57519  27.273   3.341  15.928 -0.1521  0.1382  0.0735
14608W        W57520  27.005   1.611  17.054 -0.1178 -0.3353  0.3759
14609W        W57521  27.219   2.894  19.612  0.2637 -0.3105  0.0757
14610W        W57522  27.214  34.439  16.691  0.0100  0.3768  0.2227
14611W        W57523  26.032   2.692  16.914 -0.0086  0.1939 -0.2686
14612W        W57524  24.530   2.144  15.825  0.0964  0.0195 -0.1294
14613W        W57525  27.356   4.732  17.599 -0.1812  0.0960 -0.0857
14614W        W57526  26.368   3.344  17.322  0.2912 -0.5215  0.2484
14615W        W57527  28.372   2.366  19.379 -0.0716 -0.1766 -0.0409
14616W        W57528  26.822  34.546  15.885  0.0522  0.0605  0.0663
14617W        W57529  28.648   2.165  17.993  0.2601  0.1494 -0.2547
14618W        W57530  28.879   1.124  16.896  0.0010 -0.0133 -0.3321
14619W        W57531  28.877   1.870  19.452 -0.2558  0.0475 -0.0263
14620W        W57532  26.467   1.404  16.075  0.0796  0.1576 -0.1532
14621W        W57533  27.292  34.464  16.040 -0.3428 -0.2144  0.2088
14622W        W57534  27.328   0.931  18.261  0.0543 -0.0700 -0.1682
14623W        W57535  28.698  33.853  19.797  0.3285 -0.2907  0.2101
14624W        W57536  25.732   3.261  19.392  0.1591  0.0533 -0.0621
14625W        W57537  28.376   1.924  18.527  0.1476  0.2897 -0.2176
14626W        W57538  25.197   0.616  16.932 -0.0397  0.1231  0.2633
14627W        W57539  27.022   1.410  17.567  0.0563  0.1876 -0.1090
14628W        W57540  29.844   0.073  19.176 -0.2063  0.0144  0.4369
14629W        W57541  26.906   3.716  16.801  0.1861 -0.0686  0.1425
14630W        W57542  28.207   2.464  17.815  0.3349  0.1176  0.1811
14631W        W57543  26.549   2.535  16.838  0.1451 -0.2091 -0.0925
14632W        W57544  26.222   3.038  18.612  0.1510  0.1557  0.1286
14633W        W57545  26.997   2.413  18.324  0.1459 -0.2272 -0.0604
14634W        W57546  26.077   0.720  15.886  0.0189  0.2162  0.2089
14635W        W57547  29.909  34.289  17.898 -0.0258  0.0849 -0.0313
14636W        W57548  27.427   2.261  17.459 -0.0592  0.0137 -0.1540
14637W        W57549  29.732   0.420  18.792 -0.2463  0.0067 -0.1010
14638W        W57550  26.452   0.798  16.266  0.1032  0.2471  0.2130
14639W        W57551  29.432   0.591  16.436  0.0848 -0.2013 -0.1078
14640W        W57552  26.489   1.423  18.915 -0.2464  0.0072  0.0097
14641W        W57553  24.996   2.086  17.718 -0.0060 -0.0510 -0.3120
14642W        W57554  26.919   0.775  15.894  0.0632 -0.1719  0.0350
14643W        W57555  30.213   3.530  18.534  0.0414 -0.2089 -0.0723
14644W        W57556  26.728   2.140  15.908 -0.2491 -0.1094 -0.1732
14645W        W57557  27.262   1.962  18.483 -0.1602 -0.2681 -0.1392
14646W        W57558  25.493   1.173  18.660  0.0479 -0.2899 -0.2913
14647W        W57559  27.299   0.673  16.244  0.2428 -0.0322  0.0655
14648W        W57560  26.237   1.257  16.474  0.2789 -0.0855 -0.1051
14649W        W57561  27.787   0.854  17.205  0.3799  0.1496 -0.1897
14650W        W57562  28.676   3.536  19.569 -0.3926 -0.1186  0.1011
14651W        W57563  25.903   1.101  18.317  0.2992 -0.1036  0.1394
14652W        W57564  28.958   2.728  16.587 -0.0339  0.1312 -0.3236
14653W        W57565  28.134   1.607  18.789 -0.0018 -0.1579  0.3283
14654W        W57566  26.994   4.242  16.531  0.1599  0.0820  0.1889
14655W        W57567  30.489   0.074  17.749  0.4367  0.0945  0.1701
14656W        W57568  28.734   2.559  18.978  0.5092  0.0757 -0.1428
14657W        W57569  26.606   1.105  17.699 -0.1228  0.0273 -0.1409
14658W        W57570  28.708   2.282  18.593 -0.3889  0.0089 -0.0728
14659W        W57571  29.663   3.244  17.830 -0.0868 -0.0109  0.2702
14660W        W57572  27.715  34.634  16.891 -0.0186 -0.1552 -0.3202
14661W        W57573  26.991   1.937  17.552  0.0475  0.2133  0.2696
14662W        W57574  26.537   4.506  16.937  0.1059 -0.0124  0.0324
14663W        W57575  29.746   0.476  18.285 -0.1949  0.0734 -0.1377
14664W        W57576  27.023   2.127  19.420  0.1030 -0.1960  0.2092
14665W        W57577  24.790   1.759  15.924  0.1474 -0.0995 -0.0530
14666W        W57578  27.469  34.508  18.683  0.1446  0.1251 -0.2094
14667W        W57579  28.123   1.849  19.434  0.1075 -0.0429 -0.1725
14668W        W57580  25.805   2.269  20.723  0.0769  0.0971  0.0418
14669W        W57581  25.900   1.973  15.660 -0.1387  0.0459 -0.0505
14670W        W57582  27.929   2.209  18.590  0.1045 -0.2979 -0.0544
14671W        W57583  25.377   2.639  16.006 -0.1052 -0.0636 -0.1725
14672W        W57584  27.117   2.896  18.471  0.0693 -0.0797 -0.0304
14673W        W57585  26.885   2.898  17.347 -0.0719 -0.4102  0.2069
14674W        W57586  28.693   1.235  17.361 -0.2245 -0.0726 -0.0681
14675W        W57587  28.629   3.355  17.402 -0.3238 -0.3010  0.0189
14676W        W57588  27.749   0.371  17.392 -0.1626 -0.1675  0.4054
14677W        W57589  29.137   1.539  17.447  0.0026  0.0877 -0.0309
14678W        W57590  28.487  34.085  18.120  0.1379 -0.4767 -0.0585
14679W        W57591  26.755   1.877  19.772  0.1384  0.1272 -0.0404
14680W        W57592  24.883   1.888  16.774 -0.1653  0.6591 -0.0611
14681W        W57593  25.715   3.943  16.827  0.1956  0.0700  0.0162
14682W        W57594  26.209   2.560  18.314 -0.0804 -0.2220 -0.2774
14683W        W57595  26.120  34.670  18.924 -0.0541 -0.2992 -0.1288
14684W        W57596  25.741   1.837  19.296 -0.0203  0.3171 -0.2435
14685W        W57597  24.706   2.116  16.364  0.4067 -0.1207  0.1410
14686W        W57598  26.345  33.849  16.446 -0.0607  0.0104 -0.1122
14687W        W57599  27.712   2.216  16.479  0.3538 -0.2616  0.0920
14688W        W57600  25.288   1.050  19.070 -0.0352  0.0790  0.0708
14689W        W57601  25.811   0.105  17.254 -0.0888 -0.3660 -0.0246
14690W        W57602  27.581   2.332  15.982  0.0766 -0.1716  0.5056
14691W        W57603  29.551   3.200  19.155  0.3005  0.1360 -0.0870
14692W        W57604  27.385   0.201  17.135  0.1472  0.0145 -0.1750
14693W        W57605  27.939   4.193  21.836 -0.2180 -0.0627  0.0451
14694W        W57606  25.136   2.267  16.496 -0.1725 -0.4179  0.1652
14695W        W57607  29.138   0.764  19.612  0.1008 -0.0071  0.0497
14696W        W57608  26.873   0.650  20.281  0.2289 -0.1309  0.0442
14697W        W57609  26.411   1.283  18.247  0.0639 -0.4037 -0.1296
14698W        W57610  26.757   1.963  16.818  0.0551 -0.2653  0.0546
14699W        W57611  27.258   3.214  16.505 -0.1150 -0.2058  0.3342
14700W        W57612  28.063   2.360  16.116 -0.3120  0.0556 -0.1347
14701W        W57613  27.393   2.787  17.343 -0.2136  0.1651 -0.0674
14702W        W57614  26.608   2.448  19.169  0.5157  0.3852 -0.1609
14703W        W57615  25.707   1.498  19.654  0.1681  0.1847 -0.1328
14704W        W57616  27.700   2.452  17.029 -0.2343  0.0204  0.1190
14705W        W57617  27.372   0.266  18.989 -0.1251 -0.0697  0.0791
14706W        W57618  29.039   1.817  16.606  0.0051 -0.0412 -0.2028
14707W        W57619  28.744   1.400  18.294  0.0790 -0.1441  0.0753
14708W        W57620  27.335   0.375  16.632  0.0147 -0.0720 -0.0090
14709W        W57621  25.908   0.571  19.265 -0.1414  0.3153 -0.1310
14710W        W57622  25.850   1.596  18.270  0.2650 -0.0480  0.3438
14711W        W57623  28.974   3.062  17.934  0.1016  0.2591  0.0297
14712W        W57624  25.761   0.716  17.977 -0.3387 -0.3508  0.1817
14713W        W57625  28.190  34.377  16.470 -0.1604 -0.1862  0.2455
14714W        W57626  26.053   1.501  16.973  0.0399  0.0426 -0.0593
14715W        W57627  27.115   2.861  17.972  0.3646 -0.2595  0.2984
14716W        W57628  27.038   0.043  16.349  0.2209  0.2340 -0.0531
14717W        W57629  25.886   2.103  18.391 -0.3001  0.1916 -0.1284
14718W        W57630  27.684   4.416  18.120  0.1709 -0.0109 -0.1679
14719W        W57631  28.715   1.905  19.010  0.2547  0.1317 -0.2744
14720W        W57632  25.763   1.392  16.519  0.0679 -0.0851  0.0159
14721W        W57633  29.897   2.119  17.714  0.0501  0.0487  0.0494
14722W        W57634  28.236   4.179  20.210  0.1903 -0.0181  0.0761
14723W        W57635  29.216   1.933  19.076 -0.2596 -0.1051 -0.0489
14724W        W57636  27.140   3.720  19.390 -0.2382 -0.1510  0.1885
14725W        W57637  29.780   1.550  17.449 -0.4692 -0.2095 -0.0897
14726W        W57638  24.963  34.344  17.161 -0.3385  0.2864  0.0954
14727W        W57639  26.218   2.362  17.330 -0.1724  0.1753  0.0374
14728W        W57640  27.968   2.756  16.709 -0.1345  0.0914  0.0760
14729W        W57641  28.950   2.369  19.342  0.1588  0.0760 -0.0182
14730W        W57642  25.992   1.908  18.843 -0.0327  0.2539 -0.3819
14731W        W57643  27.419   0.041  17.921  0.1274  0.0987  0.0526
14732W        W57644  26.755   4.573  18.717  0.0602  0.0750 -0.2361
14733W        W57645  28.280   2.917  18.366  0.1283 -0.0701  0.0488
14734W        W57646  25.155   2.032  22.448 -0.3285  0.0680 -0.0915
14735W        W57647  27.364   1.067  20.213  0.0220 -0.0270  0.0725
14736W        W57648  27.105   0.802  20.696 -0.1290 -0.1712 -0.0803
14737W        W57649  28.777   2.444  21.646  0.3254  0.1475 -0.2313
14738W        W57650  24.449   2.534  22.015  0.0011 -0.1689  0.1771
14739W        W57651  28.385   3.668  20.123 -0.0354  0.0150  0.0881
14740W        W57652  26.290   0.146  22.517 -0.0883  0.1713  0.0048
14741W        W57653  27.767   3.349  22.196 -0.1106  0.1660  0.0055
14742W        W57654  28.575   3.002  21.612  0.0058 -0.0350  0.0846
14743W        W57655  28.578   2.748  19.689 -0.0428 -0.2469 -0.2572
14744W        W57656  27.077   1.330  22.387 -0.0055  0.1718  0.0259
14745W        W57657  25.341   4.174  22.075  0.1767  0.0007 -0.3413
14746W        W57658  26.022   0.005  21.649 -0.0882  0.0988  0.0154
14747W        W57659  24.777   0.026  21.691  0.0164  0.2025  0.0109
14748W        W57660  28.886   1.504  22.116 -0.1766 -0.3324 -0.5953
14749W        W57661  25.580   2.593  21.710  0.2863 -0.1051 -0.1281
14750W        W57662  26.023   0.789  21.415 -0.0407 -0.0877  0.0362
14751W        W57663  25.787   1.022  21.042 -0.1665  0.0525 -0.2447
14752W        W57664  26.390   3.065  21.329  0.2617  0.1728  0.4126
14753W        W57665  25.110   0.893  23.354  0.2479  0.0930 -0.0687
14754W        W57666  27.653   0.649  24.208 -0.3818 -0.0448 -0.0904
14755W        W57667  26.953   1.731  20.306 -0.0130  0.2489  0.2754
14756W        W57668  24.739   1.065  20.914 -0.0239 -0.2559  0.0804
14757W        W57669  24.638   0.493  21.682  0.1282 -0.0443 -0.0113
14758W        W57670  26.634   1.416  21.875  0.0086  0.0615 -0.1031
14759W        W57671  27.738   1.015  21.810 -0.3248 -0.2196  0.1324
14760W        W57672  28.285   2.022  20.705  0.1329  0.0303 -0.2223
14761W        W57673  26.270   3.099  21.855  0.0375  0.1674 -0.0689
14762W        W57674  27.432   2.444  22.991  0.1785 -0.0756 -0.1392
14763W        W57675  27.971   0.326  23.447 -0.0177  0.1528  0.0978
14764W        W57676  25.214   2.457  21.418  0.2303 -0.1195  0.1533
14765W        W57677  25.326   2.930  20.914  0.1481 -0.2733 -0.0871
14766W        W57678  25.379   1.878  20.594  0.5173 -0.0499  0.2767
14767W        W57679  29.619   3.298  20.762 -0.0998 -0.1447  0.0272
14768W        W57680  29.433   3.509  24.450  0.1184  0.2646  0.5357
14769W        W57681  27.302   2.334  23.932 -0.0397 -0.0494 -0.2212
14770W        W57682  26.548   2.952  19.104  0.0719 -0.0478  0.2080
14771W        W57683  27.531   3.079  23.601  0.1754  0.1133  0.4483
14772W        W57684  26.704   2.862  22.798 -0.2281 -0.0748 -0.0392
14773W        W57685  27.952   2.171  23.186  0.0764  0.3446  0.1364
14774W        W57686  27.946   0.652  20.987 -0.2277 -0.3974 -0.2161
14775W        W57687  26.698   2.835  19.592 -0.2379 -0.0140  0.0982
14776W        W57688  27.073   2.020  21.162  0.2110 -0.0687  0.2016
14777W        W57689  26.008   2.188  22.957 -0.1362  0.0198 -0.3858
14778W        W57690  25.887   3.505  21.821 -0.0105 -0.1601  0.1427
14779W        W57691  27.881   0.174  22.285 -0.2141  0.0188 -0.2000
14780W        W57692  26.293   3.219  19.480  0.0109 -0.0042  0.0716
14781W        W57693  29.490   1.236  20.238 -0.1122  0.0932 -0.1844
14782W        W57694  27.774   2.105  19.751 -0.0628  0.1302  0.0660
14783W        W57695  28.699   0.742  20.874 -0.2596 -0.2660 -0.1716
14784W        W57696  27.539   0.203  21.584 -0.0030  0.3961 -0.1534
14785W        W57697  24.943   3.944  21.074 -0.0580  0.1996 -0.1815
14786W        W57698  25.105   0.802  24.072  0.1114 -0.0097  0.0490
14787W        W57699  28.681   1.502  23.895 -0.1474 -0.3384  0.0418
14788W        W57700  25.696   2.447  21.238  0.0598  0.0302 -0.0437
14789W        W57701  27.924   2.526  21.221  0.0716 -0.1125 -0.3098
14790W        W57702  25.419   3.708  21.928 -0.0591  0.0474  0.0247
14791W        W57703  25.032   1.056  22.489  0.1050 -0.0537 -0.3376
14792W        W57704  27.690   3.134  20.505 -0.0278  0.0453 -0.0902
14793W        W57705  29.065   2.564  20.579 -0.2401  0.0206 -0.1411
14794W        W57706  27.107   2.537  21.001 -0.0659  0.1281  0.2240
14795W        W57707  25.036   0.601  20.849 -0.0743  0.2578  0.0060
14796W        W57708  24.680   1.848  22.501  0.1232 -0.4270  0.0750
14797W        W57709  25.783   2.058  22.453 -0.0432  0.1029 -0.0000
14798W        W57710  25.151   0.941  18.272  0.0536 -0.0123 -0.0440
14799W        W57711  30.244   2.031  23.862  0.1883 -0.0880  0.1916
14800W        W57712  24.705   2.592  22.846 -0.0759 -0.2375  0.1132
14801W        W57713  29.459   0.693  20.030 -0.0417  0.0477 -0.1335
14802W        W57714  27.680   2.263  20.239  0.2465  0.2753  0.0596
14803W        W57715  30.515   1.571  23.800 -0.1374 -0.1287 -0.0152
14804W        W57716  28.160   3.112  19.695  0.0722 -0.0754  0.1238
14805W        W57717  27.037   0.304  21.734  0.1543 -0.0321 -0.0302
14806W        W57718  27.653   1.142  20.994  0.0209  0.2217  0.1249
14807W        W57719  25.258   2.312  19.885  0.3509 -0.1789 -0.1643
14808W        W57720  26.986   0.488  19.472 -0.0852 -0.0487 -0.3009
14809W        W57721  30.216   3.183  23.083 -0.3323  0.0464 -0.0608
14810W        W57722  30.344   3.366  19.743 -0.1901 -0.3230  0.0177
14811W        W57723  24.312   2.027  22.266 -0.1093 -0.0871  0.1508
14812W        W57724  27.542   1.373  22.461  0.3905 -0.0319  0.2238
14813W        W57725  27.189   1.760  22.615  0.1804  0.0288 -0.2153
14814W        W57726  25.001   2.683  20.548  0.5174  0.0348 -0.0719
14815W        W57727  24.326   3.917  22.149  0.0045  0.2668 -0.1971
14816W        W57728  25.009   1.533  20.592 -0.1918 -0.0590 -0.2274
14817W        W57729  24.724   0.339  23.046  0.2085  0.0239 -0.1341
14818W        W57730  28.014   2.924  21.568 -0.0500  0.1885  0.3486
14819W        W57731  27.540   1.587  21.206  0.1374 -0.0941 -0.2592
14820W        W57732  26.608   1.020  22.590 -0.2352 -0.2474  0.1387
14821W        W57733  28.348   0.791  21.240  0.1873  0.0833  0.0846
14822W        W57734  25.859   2.023  21.470 -0.2127  0.0582 -0.0308
14823W        W57735  27.359   3.897  21.269 -0.1410  0.2002  0.2171
14824W        W57736  28.189   1.163  20.891  0.0278 -0.4869 -0.0653
14825W        W57737  28.071   1.367  19.480 -0.2851  0.1446 -0.0123
14826W        W57738  25.378   1.208  22.898  0.0974  0.2408  0.1604
14827W        W57739  25.991   2.378  19.815 -0.0848  0.0486  0.0770
14828W        W57740  24.640   2.264  23.304 -0.3519  0.5322 -0.0142
14829W        W57741  25.042   0.304  22.680 -0.0928 -0.1120  0.0197
14830W        W57742  29.906   2.126  23.496  0.1037  0.0605 -0.0437
14831W        W57743  25.212   0.050  20.853  0.0891  0.1398  0.2943
14832W        W57744  26.651   2.043  20.889 -0.1138  0.0233 -0.3792
14833W        W57745  27.182   1.232  21.020 -0.0611 -0.0273 -0.0148
14834W        W57746  25.185   1.806  20.115  0.2235  0.5623 -0.1636
14835W        W57747  27.924   0.740  23.735 -0.3856  0.4009 -0.1455
14836W        W57748  28.608   3.362  20.493 -0.1741  0.0322 -0.0321
14837W        W57749  29.034   4.155  23.423  0.2142 -0.0926 -0.2919
14838W        W57750  29.654   3.842  20.789 -0.0465 -0.1543  0.1307
14839W        W57751  24.982   0.764  22.869 -0.1429  0.0132  0.3598
14840W        W57752  27.115   1.472  19.953 -0.1764  0.2898 -0.1146
14841W        W57753  23.354   4.012  21.805  0.1751  0.0340  0.0256
14842W        W57754  26.588   2.433  22.466  0.0973  0.1327  0.0490
14843W        W57755  26.247   1.569  21.138  0.1536 -0.0788  0.0186
14844W        W57756  29.228   3.187  22.230 -0.0598 -0.2898 -0.0710
14845W        W57757  27.284   1.980  19.854 -0.0305 -0.3505  0.0441
14846W        W57758  25.247   1.447  23.351  0.0819 -0.1131  0.1504
14847W        W57759  27.385  34.383  22.900 -0.0737 -0.1553  0.0011
14848W        W57760  29.678   2.032  24.018 -0.0019 -0.2695 -0.0186
14849W        W57761  27.599   2.979  22.533  0.1288  0.3308 -0.2463
14850W        W57762  26.447   0.435  19.342  0.0748  0.0635  0.0364
14851W        W57763  28.075   2.196  22.689 -0.0409 -0.1760  0.1703
14852W        W57764  25.979   4.321  20.170  0.2887 -0.3813  0.2370
14853W        W57765  25.002   1.707  21.125 -0.0837 -0.1962 -0.3530
14854W        W57766  26.762   2.543  20.555 -0.1129 -0.1311 -0.2729
14855W        W57767  28.046   1.684  20.083  0.0006  0.1751  0.1602
14856W        W57768  25.818   3.024  23.354  0.2017  0.1934 -0.1522
14857W        W57769  27.825  34.427  23.199  0.0401  0.0430 -0.1108
14858W        W57770  28.164   0.774  19.881  0.1491 -0.1645  0.0835
14859W        W57771  25.886   2.767  22.165  0.0578 -0.0229  0.4528
14860W        W57772  26.794   1.187  20.198  0.0582  0.1195  0.1103
14861W        W57773  28.080   1.543  21.254 -0.1137  0.2235  0.2593
14862W        W57774  25.561   1.628  22.584 -0.2317 -0.0994  0.1517
14863W        W57775  28.439   2.594  21.335  0.1808 -0.3436 -0.0309
14864W        W57776  28.454   1.854  19.755  0.0082  0.1615  0.1981
14865W        W57777  28.005   0.354  19.670 -0.3693  0.0469  0.1810
14866W        W57778  25.372   2.194  22.873 -0.2609  0.0691  0.0899
14867W        W57779  28.195   2.899  20.662  0.1320  0.0758 -0.1594
14868W        W57780  25.919   3.322  22.295 -0.3911  0.1575  0.0781
14869W        W57781  27.644   0.712  19.828  0.2784 -0.1578  0.0919
14870W        W57782  29.564   2.631  19.081 -0.0900  0.0333  0.0188
14871W        W57783  24.268   2.539  23.441  0.4466  0.0440 -0.0283
14872W        W57784  28.581   1.331  23.149 -0.0709 -0.0851 -0.0198
14873W        W57785  28.125   3.840  21.021 -0.1714  0.2294  0.3493
14874W        W57786  28.068   1.242  23.118  0.0497 -0.0593 -0.3316
14875W        W57787  28.428   1.018  18.993  0.1139  0.0031  0.0979
14876W        W57788  27.916   0.263  20.696  0.0286 -0.0350 -0.2607
14877W        W57789  25.051   3.224  18.858 -0.0386 -0.3566  0.1468
14878W        W57790  27.597   0.555  20.360  0.0311  0.0278 -0.1150
14879W        W57791  27.382   1.180  21.482  0.0227  0.2919  0.1382
14880W        W57792  27.054   0.071  23.012  0.0109 -0.0654 -0.1270
14881W        W57793  28.387   1.101  23.866 -0.1396 -0.0142  0.0422
14882W        W57794  29.144   1.527  20.510 -0.1542  0.1878  0.2039
14883W        W57795  27.991   0.744  23.080  0.0990  0.1933 -0.2887
14884W        W57796  25.727   0.963  20.387  0.0540  0.2514 -0.0941
14885W        W57797  26.582   0.393  24.317 -0.1045 -0.2292 -0.0398
14886W        W57798  26.661   2.075  23.320  0.0876 -0.0393 -0.1098
14887W        W57799  24.941   4.372  22.792 -0.0969  0.3410 -0.0886
14888W        W57800  30.100   2.086  23.071 -0.0078  0.3749  0.0679
14889W        W57801  28.099   3.227  20.181 -0.1085 -0.1597 -0.1401
14890W        W57802  27.138   0.540  24.454  0.3075 -0.0734 -0.1102
14891W        W57803  26.339   0.358  20.366  0.1219  0.0398  0.2092
14892W        W57804  27.547   1.718  20.279 -0.3566  0.1675  0.1589
14893W        W57805  27.596   1.584  19.765 -0.0604 -0.0509  0.3294
14894W        W57806  24.982   0.810  21.372 -0.2503 -0.0038  0.0007
14895W        W57807  26.440   2.422  22.927 -0.2562 -0.1024  0.1463
14896W        W57808  27.592   1.726  18.763 -0.1524  0.1166 -0.0922
14897W        W57809  28.871   2.249  22.631 -0.0126 -0.1421 -0.1635
14898W        W57810  24.501   1.919  21.219  0.4284 -0.1486 -0.0939
14899W        W57811  29.160   1.759  21.661  0.0165 -0.0067 -0.1702
14900W        W57812  24.464   3.338  20.218 -0.0249  0.0355  0.1573
14901W        W57813  28.385   1.219  20.040  0.3906 -0.0158 -0.2345
14902W        W57814  24.962   2.099  20.739  0.0404 -0.0211  0.0051
14903W        W57815  28.739   0.288  20.651  0.0453 -0.5796 -0.2980
14904W        W57816  28.629   2.348  20.373  0.3021 -0.3082  0.1010
14905W        W57817  25.393   1.015  21.508  0.0224 -0.0001 -0.3697
14906W        W57818  27.538   2.292  22.489  0.4027 -0.1942  0.3815
14907W        W57819  24.664   3.049  22.112 -0.4289  0.2175  0.0735
14908W        W57820  26.943   1.731  22.174  0.1439 -0.1278  0.0643
14909W        W57821  28.333   0.346  20.993  0.2756  0.2480  0.0351
14910W        W57822  28.424   3.018  22.977 -0.0723  0.1589  0.0497
14911W        W57823  27.915   1.688  22.626  0.1909  0.1445 -0.1064
14912W        W57824  24.777   1.413  19.316 -0.3568  0.0524  0.0797
14913W        W57825  28.400   1.842  22.523  0.2094 -0.0354  0.2607
14914W        W57826  27.563   2.708  20.970  0.1951  0.0487  0.4275
14915W        W57827  24.623   2.934  21.455  0.1691 -0.0915 -0.1057
14916W        W57828  28.031   3.833  23.184 -0.2149  0.4146 -0.1200
14917W        W57829  26.175   1.633  19.248 -0.2164 -0.2403  0.0041
14918W        W57830  24.617   3.594  22.865 -0.4128 -0.3294 -0.1886
14919W        W57831  26.802   1.276  23.796 -0.1187 -0.1174  0.3098
14920W        W57832  29.909   1.545  23.227  0.0769  0.1304 -0.1430
14921W        W57833  25.719   0.721  22.180 -0.1345  0.0170  0.1940
14922W        W57834  26.013   1.692  20.702 -0.1149 -0.1667  0.0718
14923W        W57835  26.974   0.887  21.250  0.0902 -0.0255 -0.1294
14924W        W57836  27.472   0.956  22.219 -0.0753 -0.2241  0.1593
14925W        W57837  28.368   0.393  23.140 -0.0238 -0.4210  0.1609
14926W        W57838  26.196   3.185  22.693  0.1749 -0.1112 -0.1750
14927W        W57839  27.094   1.304  23.407  0.1945 -0.0749  0.1715
14928W        W57840  29.299   3.295  20.162 -0.3140 -0.0189  0.2431
14929W        W57841  28.879   1.683  22.807  0.0481 -0.0503  0.0817
14930W        W57842  26.254   2.636  19.475  0.1719  0.0574 -0.1002
14931W        W57843  25.661   1.478  21.077 -0.2600  0.2757  0.2200
14932W        W57844  26.272   2.298  20.602  0.1862  0.0556  0.0772
14933W        W57845  27.993   1.937  22.179  0.2061 -0.2936  0.4745
14934W        W57846  26.280   2.033  22.373 -0.2152  0.3325  0.1077
14935W        W57847  25.802   2.786  20.757 -0.0442 -0.2605 -0.1615
14936W        W57848  25.221   2.887  22.645 -0.1913 -0.1070 -0.1356
14937W        W57849  27.423   0.289  19.477 -0.2388 -0.1909 -0.0994
14938W        W57850  28.876   4.413  19.648  0.2627  0.1815 -0.0868
14939W        W57851  26.490   0.878  21.579  0.0853 -0.0634 -0.0556
14940W        W57852  28.742   1.982  21.940 -0.3858 -0.1535  0.1640
14941W        W57853  27.966   2.507  20.713  0.0764 -0.0434 -0.1101
14942W        W57854  28.496  33.784  22.616 -0.1755 -0.0501  0.1247
14943W        W57855  26.021  34.579  23.074  0.2190  0.3246  0.1027
14944W        W57856  26.928   3.553  22.004 -0.0264 -0.2440  0.2777
14945W        W57857  24.963   1.621  21.897 -0.0874 -0.0690 -0.0668
14946W        W57858  27.021   3.714  22.878 -0.1948 -0.1197  0.2518
14947W        W57859  25.098   1.536  22.406  0.0164 -0.1892 -0.1359
14948W        W57860  27.561   1.558  21.736 -0.0141  0.2837  0.2284
14949W        W57861  26.087   0.046  19.412  0.1220 -0.1932 -0.1315
14950W        W57862  25.469   1.802  22.093 -0.0370 -0.4287  0.4267
14951W        W57863  28.274   2.727  22.028  0.1906  0.4732 -0.0006
14952W        W57864  28.182   2.270  20.148  0.0376 -0.3559  0.0079
14953W        W57865  28.114   1.381  21.719 -0.0433  0.1638  0.2380
14954W        W57866  24.857   2.046  21.581  0.0389 -0.1685 -0.2750
14955W        W57867  27.402   1.892  22.139 -0.2845 -0.2396 -0.0476
14956W        W57868  29.034   3.114  18.829  0.1353 -0.1640  0.1101
14957W        W57869  25.219   1.238  21.019  0.0901  0.1894 -0.0394
14958W        W57870  26.734   0.506  22.477  0.1431  0.1467  0.1111
14959W        W57871  28.388   2.314  22.351  0.0308 -0.1124 -0.0173
14960W        W57872  27.274  34.641  22.015  0.0501  0.1137  0.3458
14961W        W57873  27.622   1.405  22.979  0.3710 -0.3248  0.1125
14962W        W57874  28.828   1.124  23.526  0.0092  0.0091 -0.1122
14963W        W57875  25.935   1.590  22.265  0.6929  0.1246 -0.0465
14964W        W57876  23.999  33.670  24.384 -0.0630  0.1785  0.1295
14965W        W57877  29.262   3.055  22.823  0.1915  0.0957  0.3751
14966W        W57878  28.692   1.193  20.521 -0.2684  0.0098  0.0480
14967W        W57879  28.474   2.239  23.054 -0.0443  0.1254  0.0114
14968W        W57880  27.979   2.687  22.441  0.0499  0.0213  0.0669
14969W        W57881  28.986   2.028  20.288  0.1159 -0.1871 -0.1155
14970W        W57882  25.850   1.622  21.741 -0.2445 -0.2248  0.0177
14971W        W57883  29.595   1.533  23.980 -0.2974  0.1187  0.0633
14972W        W57884  26.525  34.691  19.827 -0.0320  0.4187  0.0364
14973W        W57885  28.491   0.165  24.032  0.1131  0.0052  0.2092
14974W        W57886  26.334   3.524  18.549  0.1727 -0.1150 -0.1331
14975W        W57887  27.321   2.537  21.456 -0.0436 -0.3143 -0.2492
14976W        W57888  28.122   0.921  20.413  0.0920  0.3756 -0.1957
14977W        W57889  25.377   0.647  22.534 -0.0591  0.0753 -0.0554
14978W        W57890  25.744   2.979  22.659  0.0103 -0.0733  0.1714
14979W        W57891  27.869   0.906  19.445  0.0132  0.3014 -0.2272
14980W        W57892  26.694   2.996  20.868 -0.2373 -0.2169  0.1943
14981W        W57893  27.304   2.521  22.063  0.2775 -0.0884  0.2526
14982W        W57894  30.577   2.085  24.238 -0.1496 -0.1761  0.0126
14983W        W57895  26.817   0.344  20.732  0.2750  0.0470  0.0607
14984W        W57896  30.015   0.209  22.744  0.2238  0.0238  0.2720
14985W        W57897  26.482   2.626  20.012  0.1629  0.1337  0.2879
14986W        W57898  26.835  34.365  23.238 -0.1288 -0.2504 -0.1699
14987W        W57899  26.735   4.523  22.074  0.0406  0.2417  0.0794
14988W        W57900  23.697   2.609  21.911  0.4030  0.0242 -0.1467
14989W        W57901  25.169   3.439  21.024 -0.0874 -0.0623  0.2101
14990W        W57902  27.229   0.953  23.127  0.1504 -0.0102  0.0012
14991W        W57903  29.018   1.222  22.519  0.0007 -0.0848  0.1556
14992W        W57904  26.288   2.249  21.502  0.0388 -0.1236 -0.2929
14993W        W57905  28.545   1.612  21.505  0.4495  0.1294 -0.3016
14994W        W57906  27.670   2.529  24.771 -0.0345  0.1022  0.3406
14995W        W57907  27.181   0.893  22.584  0.0051 -0.0838  0.1628
14996W        W57908  27.580   1.923  22.891 -0.1364 -0.4310 -0.1092
14997W        W57909  28.160   4.203  21.366  0.0263 -0.2958 -0.0196
14998W        W57910  24.518   1.691  21.708 -0.1903 -0.1158  0.1800
14999W        W57911  26.112   1.728  22.751  0.1929  0.1650 -0.1076
15000W        W57912  29.338   0.785  23.768 -0.2052  0.0387  0.3555
15001W        W57913  27.710   2.458  21.786 -0.3714  0.1412 -0.1674
15002W        W57914  27.190  34.187  21.115  0.1379  0.0639  0.0349
15003W        W57915  27.830   1.203  18.965 -0.1498  0.3296 -0.3001
15004W        W57916  26.818   2.627  23.246 -0.0620  0.1358  0.1043
15005W        W57917  24.614   1.428  22.188  0.0983  0.2174  0.0500
15006W        W57918  26.573   3.696  19.614  0.0321  0.0532  0.1456
15007W        W57919  27.564   3.580  20.301  0.0897  0.1666  0.2264
15008W        W57920  27.913   2.026  21.136  0.1645 -0.2767  0.0349
15009W        W57921  27.279   3.565  22.345 -0.3045 -0.1031  0.0812
15010W        W57922  26.651   0.481  19.809  0.0975  0.0278 -0.1609
15011W        W57923  25.326   2.331  22.120  0.1127 -0.3609 -0.3563
15012W        W57924  24.794   4.098  19.737 -0.0055  0.2300 -0.0391
15013W        W57925  28.060   4.303  20.774  0.0621 -0.2706  0.1093
15014W        W57926  25.449   4.135  23.126 -0.1716 -0.0946  0.2981
15015W        W57927  28.395   2.619  22.731  0.0230 -0.0791 -0.1872
15016W        W57928  28.578   0.345  21.420  0.0274 -0.1056 -0.1454
15017W        W57929  28.909   2.908  21.225  0.0816  0.0534 -0.3588
15018W        W57930  29.254   1.189  21.344  0.0362  0.0839  0.3854
15019W        W57931  28.388   3.416  23.472  0.0254  0.0532  0.2829
15020W        W57932  27.545   2.100  21.463 -0.0057  0.1690 -0.0085
15021W        W57933  28.963   0.017  19.651  0.2447  0.0063  0.1387
15022W        W57934  27.129   0.798  21.792 -0.2719  0.2710  0.2490
15023W        W57935  27.760   0.260  22.898 -0.2469  0.4080 -0.3580
15024W        W57936  24.742   2.946  24.161  0.0934 -0.0488  0.0383
15025W        W57937  26.901   3.056  21.268 -0.1325 -0.0092 -0.1519
15026W        W57938  26.267   2.124  20.167  0.1633  0.0691 -0.1647
15027W        W57939  25.328   2.439  20.847 -0.0655  0.0117 -0.3277
15028W        W57940  27.794   0.185  21.124 -0.1553 -0.2489  0.0269
15029W        W57941  28.276   1.473  20.473  0.0608  0.1052 -0.0985
15030W        W57942  27.125   1.279  21.900 -0.2639  0.1851  0.0455
15031W        W57943  26.432   3.465  22.132 -0.2599 -0.2677 -0.0921
15032W        W57944  25.914   3.894  22.201 -0.2281  0.1605  0.1617
15033W        W57945  24.802   4.167  22.279  0.0608 -0.0011  0.1698
15034W        W57946  25.292   1.290  19.526  0.0414  0.1463 -0.1355
15035W        W57947  28.930   1.577  21.245 -0.1738  0.3990 -0.3316
15036W        W57948  26.085   2.730  21.508 -0.0656  0.0182 -0.1462
15037W        W57949  27.759   0.499  21.941  0.0296  0.2055  0.0858
15038W        W57950  26.679   1.875  21.460  0.0200  0.0582  0.2108
15039W        W57951  29.372   2.303  20.993  0.5835 -0.0338 -0.0101
15040W        W57952  27.489   2.970  21.647  0.0509 -0.4281  0.2619
15041W        W57953  25.904   2.169  21.903  0.0446  0.1479 -0.1026
15042W        W57954  28.488   2.485  20.810  0.0479  0.1209 -0.1289
15043W        W57955  29.602   1.913  23.040 -0.2577 -0.4442 -0.1067
15044W        W57956  26.902  34.376  19.948 -0.1560 -0.0041 -0.1911
15045W        W57957  29.759   2.587  23.330 -0.2204 -0.1561 -0.0326
15046W        W57958  26.067  34.415  22.651 -0.1938 -0.0646  0.3526
15047W        W57959  26.043   0.697  20.743  0.1405 -0.0854  0.2764
15048W        W57960  26.621   1.351  21.375  0.1161 -0.0495  0.1610
15049W        W57961  25.144   1.721  22.896 -0.0911  0.2490 -0.3064
15050W        W57962  28.163   2.328  23.902 -0.1073  0.0515  0.1226
15051W        W57963  24.977   0.288  21.312 -0.2437  0.0207  0.1150
15052W        W57964  29.189   3.783  20.611 -0.0236  0.1942 -0.0582
15053W        W57965  29.332   1.919  22.633  0.0562  0.0441  0.1993
15054W        W57966  26.892   3.747  21.326  0.1299  0.1661 -0.0637
15055W        W57967  27.125   2.087  21.749  0.0446  0.2247  0.1036
15056W        W57968  28.680   4.447  22.129 -0.1525 -0.3203 -0.3571
15057W        W57969  24.325   1.230  21.798  0.0705  0.1398  0.4986
15058W        W57970  27.168   3.166  22.677  0.2243  0.1854  0.1176
15059W        W57971  28.557   3.172  22.451 -0.1791 -0.2647  0.1033
15060W        W57972  26.919  33.884  21.470 -0.1207  0.0919  0.3346
15061W        W57973  24.200   2.100  21.633  0.1629 -0.0730 -0.0378
15062W        W57974  25.616   3.348  20.809  0.0954 -0.0610 -0.0363
15063W        W57975  28.011   0.856  22.241 -0.0559  0.3032 -0.0331
15064W        W57976  28.104   0.371  21.498 -0.4345 -0.2700 -0.3164
15065W        W57977  27.207   2.153  20.484 -0.0581  0.0688  0.2893
15066W        W57978  26.959  34.329  26.469  0.0600  0.1154 -0.1196
15067W        W57979  26.173   1.822  23.253 -0.0559 -0.0317 -0.0776
15068W        W57980  25.510   3.621  23.968  0.1180  0.1441  0.0372
15069W        W57981  26.424   1.525  20.099 -0.0470  0.0052 -0.1016
15070W        W57982  26.665   2.098  21.950  0.0013  0.1652 -0.2575
15071W        W57983  25.369   2.005  21.613  0.0548 -0.1253  0.0938
15072W        W57984  27.388   3.131  21.178  0.1695 -0.0853  0.2261
15073W        W57985  27.626   3.577  20.954  0.0980  0.0320  0.0290
15074W        W57986  25.462   2.036  21.112  0.1208 -0.1890 -0.2188
15075W        W57987  29.341   3.702  22.125 -0.0193  0.1912 -0.0744
15076W        W57988  24.613   0.524  21.040  0.2254  0.0289 -0.0347
15077W        W57989  30.297   0.640  19.779 -0.0255  0.4020 -0.1468
15078W        W57990  27.220   0.275  20.497 -0.0584  0.7880 -0.0509
15079W        W57991  26.244   2.350  23.357  0.2868  0.0939 -0.2544
15080W        W57992  27.627   2.628  19.430  0.2098  0.1243 -0.2032
15081W        W57993  26.130   2.092  21.041 -0.1374  0.1450  0.1066
15082W        W57994  25.303   1.225  22.041  0.0829  0.1390 -0.0702
15083W        W57995  26.397   0.606  23.459 -0.1458 -0.4560 -0.2756
15084W        W57996  24.858   1.071  21.824 -0.0084  0.0717 -0.1105
15085W        W57997  24.803   2.498  21.020  0.0036  0.4149  0.2359
15086W        W57998  25.814   0.441  20.261  0.1118 -0.2901 -0.0706
15087W        W57999  28.362   3.050  21.142 -0.1206 -0.0756  0.0726
15088W        W58000  24.881  34.245  21.736 -0.0726 -0.0887  0.2566
15089W        W58001  23.989   0.062  20.782 -0.2214  0.2010 -0.2510
15090W        W58002  26.805   2.337  21.359 -0.2588  0.3502  0.1860
15091W        W58003  28.183   3.724  21.799  0.0392 -0.0234 -0.0725
15092W        W58004  26.847   1.608  21.057 -0.1063  0.1348 -0.1591
15093W        W58005  29.587   2.661  24.251 -0.0371 -0.3141  0.2618
15094W        W58006  25.941   2.526  20.313  0.0578 -0.1525 -0.0881
15095W        W58007  27.901  34.668  24.861 -0.1457 -0.3075 -0.2120
15096W        W58008  28.592  34.567  23.079 -0.0340  0.0327  0.1032
15097W        W58009  25.462   0.638  19.970 -0.1298 -0.1222  0.1524
15098W        W58010  27.109   1.767  23.142 -0.0903  0.0575 -0.0614
15099W        W58011  26.046   3.160  20.283 -0.2099 -0.0784  0.0151
15100W        W58012  28.057   3.442  20.731  0.1072  0.1219  0.1175
15101W        W58013  25.367   3.315  22.334 -0.0200 -0.1235  0.3830
15102W        W58014  25.848   2.576  23.786 -0.0380  0.1967  0.0333
15103W        W58015  26.635   0.540  21.982  0.0664 -0.2777 -0.2683
15104W        W58016  28.914   2.467  21.080  0.1515  0.1339  0.1405
15105W        W58017  26.964   2.293  22.894 -0.4022  0.1328 -0.2257
15106W        W58018  29.280   4.163  19.351  0.5172  0.0421  0.1681
15107W        W58019  28.570   1.191  21.187  0.0201  0.3768 -0.1564
15108W        W58020  27.868   3.103  21.039 -0.2493 -0.0040  0.0288
15109W        W58021  27.083   0.516  23.282  0.2124  0.3492 -0.0218
15110W        W58022  25.570   2.498  22.508 -0.0583 -0.1237  0.2162
15111W        W58023  29.251   2.540  22.760 -0.3759 -0.0528  0.0722
15112W        W58024  27.116   1.606  21.513 -0.2479 -0.3197  0.1183
15113W        W58025  27.507   0.587  20.838 -0.0566  0.0709 -0.1788
15114W        W58026  28.380   2.798  20.122  0.0791 -0.0354 -0.1605
15115W        W58027  26.291   1.857  21.831  0.2435  0.0646  0.2457
15116W        W58028  27.413   1.838  20.818  0.0171  0.0970  0.0642
15117W        W58029  26.611   1.916  22.819 -0.3426  0.0920 -0.1219
15118W        W58030  26.282   2.448  22.057  0.1874 -0.2822 -0.1117
15119W        W58031  30.773   2.780  23.553  0.1540 -0.3292 -0.0257
15120W        W58032  26.185   1.263  21.608 -0.1711  0.1815 -0.0382
15121W        W58033  28.331   2.270  21.794  0.1709 -0.3127  0.1045
15122W        W58034  28.045   3.205  22.603 -0.1410 -0.1634 -0.0111
15123W        W58035  30.668   4.265  24.413  0.1502  0.3199  0.2217
15124W        W58036  26.065   2.525  22.564  0.0242  0.2939  0.3116
15125W        W58037  29.252   2.222  21.828 -0.3066 -0.0087  0.2036
15126W        W58038  25.542  34.693  22.916 -0.0341  0.0864 -0.1282
15127W        W58039  27.236   1.379  20.556  0.1852 -0.1146  0.0097
15128W        W58040  27.583   1.790  19.330 -0.2983 -0.0011 -0.3400
15129W        W58041  28.644   0.254  22.722  0.3258 -0.1273 -0.2759
15130W        W58042  27.015   2.215  22.318 -0.1808  0.2043  0.0873
15131W        W58043  26.400   0.841  21.099  0.0376 -0.0078  0.2557
15132W        W58044  27.944   2.859  22.917 -0.0980 -0.2407  0.2194
15133W        W58045  28.251   3.254  21.940  0.0735  0.0266  0.0278
15134W        W58046  26.872   3.493  27.771 -0.1953 -0.0054  0.1790
15135W        W58047  26.807   0.605  24.845 -0.0391 -0.1293 -0.0137
15136W        W58048  29.413   1.189  23.334 -0.0323 -0.0678 -0.1532
15137W        W58049  28.975   1.988  23.653 -0.0156 -0.0203 -0.0325
15138W        W58050  25.771   0.012  24.421  0.0708  0.0850  0.1004
15139W        W58051  26.973   2.028  26.031 -0.0119 -0.0495  0.2476
15140W        W58052  25.420  34.517  26.949  0.1105  0.0485  0.4623
15141W        W58053  28.049   1.960  24.989 -0.3387 -0.0944 -0.1797
15142W        W58054  28.918   3.768  25.623 -0.2159  0.1537  0.0135
15143W        W58055  26.945   1.760  23.834 -0.0360 -0.1885  0.0508
15144W        W58056  29.337   1.382  27.369 -0.1136 -0.3033 -0.3275
15145W        W58057  25.496   3.298  27.447 -0.0611 -0.3490 -0.1044
15146W        W58058  25.187  34.431  24.395  0.2827  0.1782  0.0124
15147W        W58059  25.634  34.664  25.224 -0.4745 -0.1638 -0.1303
15148W        W58060  28.828   1.984  26.303  0.1220  0.0897 -0.0191
15149W        W58061  25.706   2.160  26.112 -0.1378 -0.1314 -0.3486
15150W        W58062  25.796   1.114  27.025 -0.3398 -0.1876  0.1568
15151W        W58063  26.599  34.682  23.791  0.2417 -0.2061 -0.3831
15152W        W58064  28.331   3.006  24.509 -0.2304 -0.3911 -0.2675
15153W        W58065  26.882  33.559  26.383 -0.1246 -0.1838 -0.1107
15154W        W58066  28.607  33.967  27.472 -0.1631  0.3088 -0.1905
15155W        W58067  26.106   3.340  24.465 -0.0732  0.1092  0.0057
15156W        W58068  25.745   0.874  22.769 -0.1409 -0.1881 -0.1965
15157W        W58069  24.485   0.249  27.017 -0.1005 -0.1454  0.0561
15158W        W58070  26.917   1.549  25.631  0.1003  0.0751 -0.4486
15159W        W58071  27.896   1.151  26.014  0.1272  0.0047 -0.1390
15160W        W58072  28.568   1.699  25.147 -0.1021  0.1253 -0.1026
15161W        W58073  27.482   3.497  25.778  0.2032 -0.1042  0.1081
15162W        W58074  27.247   2.139  24.577 -0.0792  0.1199  0.0178
15163W        W58075  29.514   2.161  27.949  0.1798 -0.1460 -0.1919
15164W        W58076  25.009   2.767  25.202 -0.0241  0.1896 -0.0907
15165W        W58077  24.377   2.338  26.594  0.0808  0.1531  0.1618
15166W        W58078  26.508   1.994  25.038 -0.1895 -0.0098  0.2620
15167W        W58079  28.282   2.881  25.903 -0.0018 -0.0863 -0.0521
15168W        W58080  28.675   1.984  28.280 -0.1415 -0.1163  0.2450
15169W        W58081  26.484   2.856  28.066 -0.2951 -0.1304 -0.0227
15170W        W58082  25.912   2.224  24.132 -0.2062  0.0547 -0.2027
15171W        W58083  27.819   2.770  25.708 -0.0186  0.0118  0.0193
15172W        W58084  25.679   3.727  27.216  0.2607 -0.1211  0.0297
15173W        W58085  28.074   1.480  25.086  0.1722 -0.0443  0.0019
15174W        W58086  28.554   1.310  24.822  0.1129  0.1721 -0.2648
15175W        W58087  25.297   2.044  25.034  0.0339 -0.1585  0.2970
15176W        W58088  27.658   1.591  24.844  0.1501 -0.0555 -0.5466
15177W        W58089  25.804   2.856  28.323  0.0785  0.0676  0.0355
15178W        W58090  24.528   3.187  24.713 -0.3292  0.0251  0.0609
15179W        W58091  29.517   1.799  27.547 -0.1852 -0.0127 -0.1962
15180W        W58092  25.288   2.968  24.371 -0.1051  0.0410  0.0349
15181W        W58093  28.687   1.632  24.386 -0.2521  0.0338  0.0049
15182W        W58094  27.720   0.780  24.679 -0.0361  0.0204  0.5448
15183W        W58095  29.144   1.757  24.072  0.0141 -0.0657  0.2745
15184W        W58096  27.373   0.561  25.451  0.1156  0.0252 -0.2821
15185W        W58097  24.833   3.277  25.181  0.0292 -0.2114  0.1050
15186W        W58098  26.182   0.534  25.501  0.3312 -0.0806 -0.3491
15187W        W58099  27.896   2.491  27.244  0.0893 -0.1745 -0.3791
15188W        W58100  27.447   1.796  23.527 -0.2108  0.0613 -0.1223
15189W        W58101  28.027   1.174  25.534  0.2722 -0.1107 -0.1854
15190W        W58102  25.232   3.225  26.136  0.1512  0.0426 -0.0329
15191W        W58103  25.837   2.827  25.319  0.0526  0.1164 -0.1863
15192W        W58104  29.789   3.613  23.456  0.0549  0.1803  0.0185
15193W        W58105  28.350   4.138  25.931  0.1695 -0.2192  0.1660
15194W        W58106  26.648   2.545  24.663 -0.1048 -0.1576  0.0380
15195W        W58107  26.379   1.635  25.561 -0.0348 -0.0597  0.6050
15196W        W58108  24.912   1.478  26.294  0.0722  0.3264  0.3755
15197W        W58109  26.137   1.533  27.331  0.1529  0.3484 -0.1557
15198W        W58110  26.044   0.468  24.303  0.0388  0.2406  0.2439
15199W        W58111  29.942   1.673  27.174 -0.0529 -0.0509 -0.0409
15200W        W58112  24.932   3.203  26.635 -0.1804  0.0250 -0.0815
15201W        W58113  27.037   0.046  24.560 -0.1487  0.4393 -0.0612
15202W        W58114  27.340   1.774  25.700  0.2672  0.1346 -0.0209
15203W        W58115  27.844   2.224  26.398  0.1079  0.1201 -0.1708
15204W        W58116  29.411   2.264  23.444  0.1345 -0.0314 -0.1841
15205W        W58117  29.153   0.224  25.959 -0.0299  0.4049 -0.1076
15206W        W58118  28.359  33.746  26.064 -0.0394  0.0415  0.2536
15207W        W58119  26.191   2.304  24.596 -0.0188  0.0660 -0.0392
15208W        W58120  26.260   1.197  24.323  0.4321 -0.2514 -0.0249
15209W        W58121  29.291   4.065  25.469  0.0321 -0.0661  0.0466
15210W        W58122  27.389   1.454  23.854 -0.0513  0.2944 -0.3355
15211W        W58123  25.513   2.471  25.257  0.1168  0.1923 -0.1174
15212W        W58124  26.167   1.420  26.812  0.2602  0.1505 -0.1969
15213W        W58125  27.784   4.733  27.418  0.1304  0.2476 -0.0320
15214W        W58126  26.306   3.215  23.582  0.0907 -0.1059  0.0815
15215W        W58127  25.407   1.578  25.264  0.0671 -0.1867  0.0212
15216W        W58128  25.830   2.139  25.011  0.1168  0.0376  0.1609
15217W        W58129  25.068   0.511  26.980 -0.0670  0.1429  0.0484
15218W        W58130  26.772   3.187  25.242  0.2040 -0.1507 -0.0545
15219W        W58131  29.557   0.320  25.335  0.1942  0.1819  0.0165
15220W        W58132  26.035   0.623  26.768 -0.0290  0.0031  0.0802
15221W        W58133  29.109   0.513  25.509 -0.0896 -0.0427 -0.1310
15222W        W58134  25.659   1.717  24.836  0.1410 -0.1248 -0.0894
15223W        W58135  28.937   5.395  24.104 -0.2560 -0.1056  0.0055
15224W        W58136  28.848   0.627  23.338  0.0649 -0.1027 -0.0896
15225W        W58137  27.783   2.125  24.152 -0.3004 -0.1103 -0.0725
15226W        W58138  25.375   1.576  27.532  0.1285  0.4131 -0.2600
15227W        W58139  26.924   0.768  26.694  0.1789 -0.0929  0.2262
15228W        W58140  24.882   0.725  26.438 -0.0362  0.0153 -0.0834
15229W        W58141  24.831   1.136  27.286  0.2431 -0.0016 -0.4694
15230W        W58142  29.050   1.591  26.587 -0.1304 -0.0801 -0.1967
15231W        W58143  25.589  34.101  24.613  0.0640  0.1914  0.0121
15232W        W58144  29.513   1.714  23.540  0.0436 -0.1895  0.0589
15233W        W58145  25.493   2.223  23.831 -0.0820  0.1053  0.0917
15234W        W58146  24.955   0.974  25.993  0.2006 -0.1647  0.1758
15235W        W58147  30.910   0.518  27.628 -0.0614 -0.2543 -0.0874
15236W        W58148  28.263   1.680  24.659  0.2496  0.1238 -0.2160
15237W        W58149  28.283   2.606  26.295  0.0473 -0.2376  0.3382
15238W        W58150  28.139   4.750  27.072 -0.1812  0.0189  0.1702
15239W        W58151  25.613   0.371  27.034  0.3019 -0.5003 -0.1094
15240W        W58152  26.296   1.434  23.736 -0.2793  0.1454  0.1845
15241W        W58153  26.196   2.865  25.662 -0.3129 -0.1396 -0.1608
15242W        W58154  27.528   2.885  25.307 -0.1511  0.0461 -0.2106
15243W        W58155  26.289   0.696  24.623  0.1192 -0.1559 -0.3171
15244W        W58156  28.785   3.510  26.497 -0.2155 -0.3533 -0.0251
15245W        W58157  27.864   2.423  25.219  0.1474  0.0112 -0.2882
15246W        W58158  27.538   1.781  27.371  0.2156  0.1578 -0.1268
15247W        W58159  30.093  34.098  28.221 -0.0382  0.0518  0.0475
15248W        W58160  28.724   2.449  25.968 -0.1941  0.2475  0.1613
15249W        W58161  28.896   2.183  24.440  0.0410  0.3849 -0.3065
15250W        W58162  26.498   0.919  25.012 -0.3574  0.2237  0.0794
15251W        W58163  27.178   2.452  25.864 -0.2277 -0.1604 -0.1907
15252W        W58164  24.865   2.324  24.858  0.1813 -0.0394 -0.2036
15253W        W58165  24.328   1.849  25.521  0.1169  0.1344  0.2984
15254W        W58166  27.302   1.270  24.677 -0.2253  0.2212 -0.2771
15255W        W58167  27.793   2.656  23.876  0.2216 -0.0215 -0.1350
15256W        W58168  24.567   2.624  27.889  0.1741  0.1774 -0.0860
15257W        W58169  26.586   1.728  26.101 -0.1275 -0.0799 -0.1071
15258W        W58170  25.945   0.338  24.849 -0.3636 -0.0612 -0.1524
15259W        W58171  26.827   2.050  28.558  0.2627 -0.3069  0.1013
15260W        W58172  27.245   0.802  24.978 -0.0209  0.1121 -0.0377
15261W        W58173  27.493   0.253  24.686  0.0929 -0.2044 -0.0767
15262W        W58174  28.757   1.861  26.928  0.3394 -0.3157  0.3470
15263W        W58175  28.400   3.211  25.446  0.3874 -0.1691  0.0518
15264W        W58176  27.397   0.429  23.846  0.1859 -0.0059  0.1950
15265W        W58177  25.926  33.784  23.229 -0.0344 -0.1006  0.2647
15266W        W58178  24.806   1.971  27.279  0.0856 -0.0747  0.0919
15267W        W58179  27.866   1.746  23.800  0.0655 -0.2423  0.1099
15268W        W58180  25.773   3.146  25.884  0.0611  0.1324 -0.1583
15269W        W58181  28.055   0.445  24.549 -0.3759  0.0751  0.0502
15270W        W58182  29.586   3.061  25.180  0.1384  0.0124  0.4164
15271W        W58183  25.197   2.178  26.969  0.1552  0.0825  0.1743
15272W        W58184  28.399   3.323  27.459  0.0779 -0.3433 -0.0346
15273W        W58185  28.597   2.647  25.020 -0.0296  0.0516 -0.0312
15274W        W58186  28.215   1.617  26.047  0.0448  0.1739  0.1611
15275W        W58187  26.809   0.855  24.249 -0.0388 -0.0814 -0.2534
15276W        W58188  26.583  34.618  26.137 -0.6080  0.0705 -0.1059
15277W        W58189  25.673   3.909  24.936 -0.2879  0.2605  0.0946
15278W        W58190  29.441   1.654  26.910 -0.0470  0.1860  0.2210
15279W        W58191  27.702   0.254  26.980 -0.2400  0.2547 -0.0933
15280W        W58192  28.691   0.201  28.244  0.2333 -0.1252  0.1365
15281W        W58193  29.767   1.237  27.005 -0.0355  0.3684  0.2693
15282W        W58194  28.264   1.490  23.585 -0.3144 -0.0877  0.1182
15283W        W58195  27.033   1.821  26.475  0.1205  0.0720 -0.0255
15284W        W58196  25.768   1.428  23.534  0.2588  0.0636  0.0072
15285W        W58197  28.147   0.307  26.686 -0.3028  0.1400 -0.2711
15286W        W58198  26.775   2.435  25.122  0.1079  0.2231 -0.2744
15287W        W58199  26.128   4.453  26.281 -0.1387 -0.0395  0.0724
15288W        W58200  27.763   4.262  28.361 -0.0220  0.1552 -0.2204
15289W        W58201  27.590   1.166  24.303 -0.1840  0.0320 -0.1175
15290W        W58202  28.193   0.254  27.383 -0.2053 -0.1416 -0.0264
15291W        W58203  28.038   1.192  24.609 -0.2851  0.2445 -0.1953
15292W        W58204  25.641   2.294  23.324 -0.2883 -0.0237 -0.1004
15293W        W58205  26.469   3.000  23.185  0.0924  0.1652  0.1660
15294W        W58206  27.753   1.834  26.043  0.2886 -0.2014  0.0642
15295W        W58207  26.787   2.970  26.016 -0.0551 -0.0274 -0.0445
15296W        W58208  27.113   2.676  22.567  0.3225  0.2439  0.0366
15297W        W58209  28.422   2.849  27.603 -0.2320  0.1070  0.1139
15298W        W58210  26.160   1.038  25.525  0.1187  0.0113  0.1431
15299W        W58211  27.853   0.431  25.088 -0.1141 -0.2703 -0.0861
15300W        W58212  26.098   3.940  26.200 -0.1484  0.3864  0.1572
15301W        W58213  26.690   1.539  23.298  0.0612 -0.2171 -0.5189
15302W        W58214  25.686   0.988  23.278  0.0556  0.2272 -0.2560
15303W        W58215  30.283   1.213  24.868 -0.3148 -0.0395 -0.0677
15304W        W58216  29.903   2.244  24.932  0.1148 -0.0189  0.0952
15305W        W58217  26.142   1.082  25.992  0.1930  0.3045 -0.0952
15306W        W58218  28.034   0.801  26.706  0.1849  0.0771 -0.5412
15307W        W58219  26.141   3.239  25.335 -0.0570  0.1155 -0.3063
15308W        W58220  27.777   2.079  27.042  0.0321 -0.1899 -0.2600
15309W        W58221  27.443  34.375  26.309  0.1234 -0.0989 -0.0562
15310W        W58222  28.533   1.994  25.812  0.2892 -0.0693  0.0465
15311W        W58223  26.959   2.266  26.709  0.0670 -0.3154  0.2130
15312W        W58224  24.991   0.584  24.509  0.2650  0.0423  0.2332
15313W        W58225  29.167   0.777  27.699  0.3908 -0.0867  0.3402
15314W        W58226  27.003   0.633  25.809 -0.3488 -0.1756 -0.0905
15315W        W58227  26.338   2.461  24.050 -0.0544 -0.0082 -0.0674
15316W        W58228  27.704   3.342  25.215  0.0160 -0.0709  0.0952
15317W        W58229  25.268   1.419  24.680  0.1550 -0.3351 -0.0412
15318W        W58230  26.768   0.381  26.175  0.1786  0.0794  0.1055
15319W        W58231  27.013   0.966  27.159  0.2926  0.1251  0.2655
15320W        W58232  28.100   1.196  27.193 -0.0683 -0.2585  0.1733
15321W        W58233  26.738   1.041  25.411 -0.1699 -0.0671  0.0742
15322W        W58234  27.001   0.140  25.645 -0.1494 -0.0387 -0.1598
15323W        W58235  28.258   1.502  24.171 -0.0048 -0.0984 -0.0944
15324W        W58236  27.660   2.270  25.741  0.1694  0.0786 -0.0261
15325W        W58237  28.675   0.223  26.110 -0.2467 -0.3470  0.1678
15326W        W58238  26.560   2.622  27.095 -0.0096 -0.2463  0.3335
15327W        W58239  27.601   1.255  27.312 -0.1379 -0.2714 -0.0527
15328W        W58240  29.511   4.079  23.299 -0.1031 -0.0915 -0.0745
15329W        W58241  28.996   2.149  27.868 -0.0909  0.1633  0.0785
15330W        W58242  25.645   1.968  25.467 -0.0935 -0.2023 -0.2507
15331W        W58243  25.440   1.761  25.877  0.1280  0.0930  0.0151
15332W        W58244  27.703   2.212  23.667  0.1316  0.1126  0.0079
15333W        W58245  27.722   1.108  26.493  0.2265 -0.0494  0.2707
15334W        W58246  25.502   2.395  26.517 -0.1992 -0.2171  0.1074
15335W        W58247  25.104   1.909  24.540  0.1542  0.0602  0.1177
15336W        W58248  25.668   2.295  27.077 -0.1775 -0.0176  0.2104
15337W        W58249  27.970  34.394  25.410 -0.1926 -0.2985 -0.1730
15338W        W58250  28.441   2.659  23.386  0.1016  0.0365 -0.2279
15339W        W58251  27.072   1.252  24.241  0.0075  0.0641  0.0872
15340W        W58252  28.374  34.540  26.295 -0.3292  0.1316 -0.0892
15341W        W58253  29.058   1.547  23.422 -0.1616 -0.3597  0.1940
15342W        W58254  28.627   0.450  27.478  0.0177 -0.1262  0.3655
15343W        W58255  26.066   0.063  26.891  0.1575 -0.0104  0.0433
15344W        W58256  28.326   2.658  25.409 -0.0357  0.0841 -0.0844
15345W        W58257  25.277   1.898  26.577  0.0191  0.0711 -0.3186
15346W        W58258  27.356   4.610  27.195 -0.2905 -0.2871 -0.0028
15347W        W58259  26.110   2.318  27.298 -0.3235 -0.3681  0.2567
15348W        W58260  28.376   0.219  24.873 -0.1240  0.5019  0.0743
15349W        W58261  26.491  34.228  25.072 -0.0616  0.2323  0.2122
15350W        W58262  26.501   1.238  26.387 -0.2827  0.1783 -0.1027
15351W        W58263  27.420   1.944  25.153 -0.0791 -0.0832 -0.3942
15352W        W58264  26.782   2.417  23.712  0.1894  0.2587 -0.3470
15353W        W58265  28.739   2.302  25.409  0.2738 -0.5183  0.0974
15354W        W58266  25.778   2.623  25.770 -0.1959 -0.0622 -0.3154
15355W        W58267  28.304   1.680  22.979 -0.1545  0.2227 -0.2798
15356W        W58268  26.941   1.406  22.857  0.1437  0.0247  0.1673
15357W        W58269  25.361   2.287  25.812 -0.2602  0.1149 -0.0772
15358W        W58270  26.911  34.036  26.907 -0.1349  0.3455  0.1795
15359W        W58271  29.104   2.739  25.204 -0.0167 -0.0623  0.0097
15360W        W58272  28.269   1.624  25.552  0.1228  0.4066 -0.0146
15361W        W58273  27.749   0.285  25.690 -0.1162  0.0296  0.0792
15362W        W58274  29.488   1.963  26.530 -0.0376  0.3685 -0.0084
15363W        W58275  28.281   1.863  26.813  0.0278  0.5136  0.1370
15364W        W58276  25.858   1.819  26.597 -0.0282  0.0273  0.3251
15365W        W58277  28.784   2.860  25.622  0.1480 -0.1386  0.3144
15366W        W58278  29.032   1.072  23.023  0.2304  0.1613  0.1614
15367W        W58279  29.107  34.249  26.585 -0.0354  0.1132  0.0991
15368W        W58280  29.036   2.624  24.675  0.1463  0.2311 -0.4276
15369W        W58281  28.363   0.839  23.444 -0.2378  0.0239  0.0849
15370W        W58282  25.459   1.319  26.647 -0.2955 -0.3239  0.0242
15371W        W58283  28.552   2.743  26.734  0.3289 -0.0147 -0.2889
15372W        W58284  26.637   1.516  24.196 -0.0787 -0.3665  0.2039
15373W        W58285  27.526   0.809  25.882 -0.2441 -0.0377 -0.1391
15374W        W58286  29.462   2.180  24.468 -0.1541  0.0030  0.0130
15375W        W58287  27.329   2.182  26.301 -0.0380 -0.0122 -0.1841
15376W        W58288  29.937   0.583  24.421  0.2481  0.0950 -0.0431
15377W        W58289  25.615   1.290  26.046 -0.2285 -0.1011 -0.0794
15378W        W58290  26.072   3.493  26.530 -0.1472 -0.3127 -0.1990
15379W        W58291  25.766   1.371  24.475 -0.1297 -0.0345  0.1129
15380W        W58292  26.569   1.581  22.487 -0.1415  0.4187  0.0820
15381W        W58293  26.384   2.811  25.065  0.1250 -0.0149 -0.2094
15382W        W58294  28.310   1.115  28.638  0.2338  0.1849 -0.1457
15383W        W58295  28.125   0.806  25.047 -0.1352  0.1603  0.1657
15384W        W58296  29.515   0.353  27.030  0.0169 -0.5283 -0.0971
15385W        W58297  24.592   2.850  25.476 -0.1933  0.1412  0.4058
15386W        W58298  27.452   0.098  25.292 -0.0662 -0.3355 -0.1430
15387W        W58299  25.982   2.378  26.709  0.0295 -0.1485  0.1753
15388W        W58300  26.539   2.089  25.659  0.0225 -0.1910 -0.0661
15389W        W58301  25.786   4.084  25.429 -0.2265 -0.0708 -0.1390
15390W        W58302  28.945   0.856  26.963  0.0293  0.0618  0.1626
15391W        W58303  28.816   1.519  25.483 -0.2554 -0.2069  0.3529
15392W        W58304  26.210   2.381  25.402  0.5193  0.2440 -0.0465
15393W        W58305  29.091   2.229  26.718 -0.0829  0.4259  0.1064
15394W        W58306  28.344   3.079  26.339  0.0774 -0.1860  0.2064
15395W        W58307  27.301   0.948  23.735 -0.2386  0.3498  0.1615
15396W        W58308  27.576   3.202  27.476 -0.1040 -0.1150  0.3640
15397W        W58309  29.304   1.183  26.722  0.0867  0.0272  0.2451
15398W        W58310  26.555   2.123  27.335  0.0348 -0.0345  0.2514
15399W        W58311  23.682   0.658  27.507 -0.2727 -0.2372 -0.0512
15400W        W58312  28.863   1.136  26.435  0.0935 -0.1534 -0.1307
15401W        W58313  29.022   1.781  24.765  0.1205 -0.0592 -0.0401
15402W        W58314  25.049  34.199  25.907  0.2038 -0.0661 -0.1230
15403W        W58315  27.814   2.593  23.398 -0.0748  0.0633  0.0701
15404W        W58316  26.027   3.226  27.382  0.0045 -0.1422  0.2527
15405W        W58317  24.768   2.871  27.160 -0.0736 -0.0885 -0.0358
15406W        W58318  25.819   3.422  24.884 -0.0071  0.0501 -0.0058
15407W        W58319  28.129   1.062  22.675  0.1294 -0.1830  0.0783
15408W        W58320  25.829   1.490  25.536 -0.0156  0.2951  0.0755
15409W        W58321  27.422   3.587  24.645 -0.0140 -0.1526  0.0951
15410W        W58322  27.918   1.710  23.270 -0.0766 -0.2418  0.0637
15411W        W58323  25.186   3.557  24.844  0.3922  0.3600  0.0831
15412W        W58324  24.427   2.686  24.464  0.3149 -0.2841  0.2920
15413W        W58325  28.537   1.983  23.973 -0.1569  0.1239 -0.0878
15414W        W58326  26.883   2.645  24.189  0.1620 -0.2626 -0.1262
15415W        W58327  30.139   3.491  26.114  0.0232  0.0341  0.2496
15416W        W58328  28.113  34.247  21.658  0.0508 -0.0448 -0.1558
15417W        W58329  29.391   0.782  25.840 -0.1062 -0.1807 -0.1654
15418W        W58330  29.199   0.596  25.037  0.1857  0.0421 -0.0688
15419W        W58331  28.653   3.566  27.885 -0.2266 -0.0600  0.2289
15420W        W58332  27.335   1.453  25.215  0.1569 -0.0360 -0.0408
15421W        W58333  26.670   0.138  23.309  0.1036 -0.2332 -0.1174
15422W        W58334  27.394   0.915  26.885 -0.1406 -0.1328 -0.0939
15423W        W58335  30.068   0.834  26.883  0.3821 -0.1070  0.3388
15424W        W58336  26.119   4.178  26.681 -0.0396 -0.1843  0.0568
15425W        W58337  28.829   3.092  24.622  0.3132  0.1146  0.0646
15426W        W58338  26.813   0.511  25.326  0.1238 -0.1089  0.3888
15427W        W58339  27.341   2.445  25.380 -0.0083  0.2247  0.1505
15428W        W58340  28.756   0.078  26.577  0.0365 -0.3755 -0.0345
15429W        W58341  27.189   2.202  23.428 -0.0446  0.5954 -0.0749
15430W        W58342  26.809   1.112  24.689  0.0060 -0.0474 -0.0098
15431W        W58343  26.968   1.699  24.608  0.2036  0.1016  0.1840
15432W        W58344  24.972   1.843  25.513 -0.0002 -0.0150  0.2717
15433W        W58345  26.607   2.499  26.337 -0.4047  0.1678  0.0763
15434W        W58346  23.715   0.374  24.681 -0.0006 -0.0152 -0.1358
15435W        W58347  28.673   0.735  25.254 -0.0221 -0.0524  0.1386
15436W        W58348  25.748   0.667  26.224  0.0034 -0.3399 -0.0854
15437W        W58349  27.801   0.662  26.293 -0.2418 -0.3508 -0.1704
15438W        W58350  26.269   1.355  25.051 -0.1038 -0.4656 -0.1057
15439W        W58351  29.208   0.803  26.329 -0.0357  0.1531 -0.1095
15440W        W58352  27.830   1.618  27.035 -0.0729 -0.0266  0.0779
15441W        W58353  25.206   1.365  25.681 -0.0231 -0.3449  0.0954
15442W        W58354  25.575   1.801  23.227 -0.2997 -0.2669 -0.0616
15443W        W58355  29.414   1.198  27.842  0.0919 -0.0670 -0.4255
15444W        W58356  27.888   1.228  23.866 -0.1221 -0.3545 -0.0184
15445W        W58357  29.125   3.642  26.207 -0.0139  0.0932  0.0864
15446W        W58358  25.346   0.261  24.459  0.1934  0.2458 -0.0818
15447W        W58359  27.522   1.327  25.689 -0.1195  0.1812  0.0044
15448W        W58360  26.522   0.227  25.705  0.0732  0.2022  0.2686
15449W        W58361  26.837   1.568  25.069 -0.0526 -0.1172 -0.2094
15450W        W58362  28.387   4.950  27.555 -0.0088  0.2832 -0.3973
15451W        W58363  24.762  33.812  25.603 -0.0245  0.0597  0.0147
15452W        W58364  30.306   2.581  24.214 -0.0916 -0.1663 -0.2001
15453W        W58365  28.325   1.120  26.296 -0.2938  0.4491 -0.2824
15454W        W58366  25.917   2.610  24.912  0.0252  0.0650  0.1443
15455W        W58367  28.317   3.794  25.636 -0.0984 -0.2270  0.0765
15456W        W58368  26.311   1.973  24.256 -0.2296 -0.1712  0.1999
15457W        W58369  24.224   0.715  25.661 -0.0241  0.2382 -0.2880
15458W        W58370  27.429   2.919  26.660 -0.0758 -0.3077  0.2054
15459W        W58371  30.023   2.366  27.084 -0.0868  0.3766  0.0283
15460W        W58372  27.440  34.502  24.842 -0.3857  0.0532 -0.0276
15461W        W58373  26.058   2.089  25.782  0.0005  0.2257 -0.3222
15462W        W58374  25.019   3.380  24.388 -0.4437 -0.0151  0.2470
15463W        W58375  28.156   0.683  25.935  0.2746 -0.2282  0.2649
15464W        W58376  28.012  33.869  25.238 -0.2441 -0.1779 -0.0945
15465W        W58377  27.826   1.603  24.365  0.0001  0.1960  0.1736
15466W        W58378  29.830   1.163  28.187  0.4168 -0.1664 -0.1191
15467W        W58379  27.710   2.197  27.668 -0.0021 -0.1019  0.0993
15468W        W58380  26.772   4.999  26.544 -0.2229 -0.1651 -0.2236
15469W        W58381  24.993   1.125  25.009 -0.0348  0.1877  0.0162
15470W        W58382  27.544   2.868  27.144 -0.2975  0.0035 -0.0869
15471W        W58383  26.515   1.720  26.601  0.0228  0.3191 -0.2994
15472W        W58384  27.651   1.083  25.115  0.0509  0.3578 -0.1807
15473W        W58385  28.667   3.401  25.807  0.1216 -0.0125 -0.1700
15474W        W58386  28.197   1.986  23.537 -0.1949  0.1944  0.2809
15475W        W58387  29.518   2.640  24.816  0.0169 -0.0242 -0.2572
15476W        W58388  27.378   1.839  24.230 -0.0206 -0.0153  0.0977
15477W        W58389  28.545  34.555  24.437 -0.0759  0.0060 -0.1425
15478W        W58390  28.345  34.332  24.955 -0.1363  0.2369 -0.1076
15479W        W58391  26.521   3.824  26.609  0.0845  0.1905 -0.4500
15480W        W58392  26.031   0.769  25.105  0.1440 -0.2703 -0.2698
15481W        W58393  25.552   1.143  22.423  0.0151 -0.1672  0.2444
15482W        W58394  25.571   2.163  24.549  0.0010  0.3560 -0.1170
15483W        W58395  26.877   0.298  27.997  0.1384 -0.0220  0.0852
15484W        W58396  26.342   0.744  26.376  0.0576 -0.3957 -0.4705
15485W        W58397  25.419   0.150  26.558 -0.0345  0.1926  0.0077
15486W        W58398  25.627   0.433  25.398  0.1238  0.0960 -0.1284
15487W        W58399  28.684   1.806  23.301  0.0840 -0.3326 -0.1772
15488W        W58400  25.912   0.192  26.455 -0.0361 -0.0299 -0.2998
15489W        W58401  24.778  34.640  26.022  0.0416  0.1014 -0.0189
15490W        W58402  29.225   3.180  24.886 -0.0938 -0.0610 -0.0949
15491W        W58403  28.781   2.657  24.220 -0.3339  0.0991  0.1626
15492W        W58404  27.531   0.126  23.346  0.0565 -0.2895  0.4699
15493W        W58405  29.080   1.912  27.341  0.2555 -0.2380  0.1598
15494W        W58406  25.507   3.211  25.274  0.0407 -0.1775 -0.0766
15495W        W58407  27.421  34.634  26.704 -0.0530  0.0749 -0.0467
15496W        W58408  26.925   0.175  26.595 -0.0415 -0.1391  0.4230
15497W        W58409  24.625  34.588  23.451 -0.0809 -0.1247 -0.2238
15498W        W58410  28.697   1.107  24.309 -0.5417 -0.0976  0.0091
15499W        W58411  29.254   2.290  23.999  0.0888  0.1995  0.0720
15500W        W58412  28.451   3.357  24.814  0.3218 -0.2185  0.1507
15501W        W58413  27.417   1.478  26.243 -0.3766  0.0120 -0.2273
15502W        W58414  26.922   3.763  26.264 -0.1523 -0.2123  0.1017
15503W        W58415  26.412   0.220  26.572  0.1230  0.1721  0.0391
15504W        W58416  29.981   2.218  24.412 -0.1799  0.2849  0.0250
15505W        W58417  27.415   2.384  27.229 -0.2232  0.0075  0.0447
15506W        W58418  29.164   3.009  24.293 -0.1213 -0.0863 -0.3525
15507W        W58419  28.641  34.169  25.995  0.2108 -0.1554 -0.0784
15508W        W58420  26.999   0.171  24.110  0.5465  0.0551 -0.2654
15509W        W58421  25.037   0.114  28.090  0.0592  0.0255 -0.0007
15510W        W58422  27.137   1.450  27.276  0.0737  0.1213  0.0452
15511W        W58423  29.242   2.405  27.438 -0.1932  0.3004  0.2637
15512W        W58424  27.220   1.004  25.428  0.2157  0.4515 -0.1506
15513W        W58425  28.036  34.071  23.863  0.1416  0.0956  0.1248
15514W        W58426  28.397   0.813  24.606  0.2719  0.1548  0.1978
15515W        W58427  26.110   1.596  26.071 -0.0963  0.0053 -0.2055
15516W        W58428  27.643   1.246  23.422 -0.2009  0.1332 -0.2756
15517W        W58429  27.576   1.826  26.563 -0.3023 -0.1400 -0.3308
15518W        W58430  25.354   2.817  25.572 -0.2065 -0.1722  0.0485
15519W        W58431  28.238   2.193  28.148 -0.2108 -0.1065  0.1455
15520W        W58432  26.116   1.700  24.673  0.1958 -0.0685  0.2277
15521W        W58433  28.791   0.785  23.855 -0.0774 -0.1373  0.1972
15522W        W58434  27.035   3.382  25.884 -0.2903 -0.1574 -0.1172
15523W        W58435  28.790   2.949  26.164 -0.2292  0.1624 -0.2231
15524W        W58436  27.615   2.615  26.189 -0.1714 -0.0685 -0.0483
15525W        W58437  28.165   2.372  25.838  0.0893 -0.4781 -0.0945
15526W        W58438  27.054   1.138  25.888 -0.0056  0.0110  0.1201
15527W        W58439  26.828   2.144  24.281  0.0471 -0.0473  0.0578
15528W        W58440  28.191   2.430  24.819  0.0456 -0.2039 -0.0716
15529W        W58441  28.890   0.788  24.694 -0.2038 -0.1713 -0.1476
15530W        W58442  25.389   0.947  26.316  0.0761 -0.2474  0.0494
15531W        W58443  27.554   0.665  23.396 -0.0330 -0.1327 -0.2111
15532W        W58444  27.085   3.205  26.390 -0.3628 -0.0826  0.1328
15533W        W58445  27.788   1.888  25.447  0.0894  0.0120 -0.0958
15534W        W58446  26.930   0.807  29.310 -0.0536 -0.0634 -0.0036
15535W        W58447  26.472   1.006  26.843  0.1042  0.1750 -0.1641
15536W        W58448  29.160   0.339  28.073  0.2299 -0.0244  0.0212
15537W        W58449  29.420   1.827  28.957  0.2700  0.1293  0.2134
15538W        W58450  24.233  34.365  27.697 -0.1557 -0.0879 -0.4355
15539W        W58451  29.081   3.853  28.482  0.3127  0.1761 -0.0377
15540W        W58452  23.936   0.041  30.264  0.0133 -0.0166  0.0729
15541W        W58453  28.422   2.374  28.978 -0.0973  0.1615  0.2016
15542W        W58454  29.143   2.723  29.911 -0.0906 -0.0229 -0.0758
15543W        W58455  27.546   2.397  26.736 -0.1021  0.0248 -0.0518
15544W        W58456  27.164   0.699  29.913  0.1452 -0.0896  0.1395
15545W        W58457  27.145   2.237  29.759 -0.1666 -0.0207 -0.1194
15546W        W58458  27.377   0.484  27.891  0.1278 -0.3666 -0.1716
15547W        W58459  23.877   0.104  28.653  0.0877  0.1988 -0.1297
15548W        W58460  28.467   2.075  30.862 -0.0731  0.0379  0.1269
15549W        W58461  25.872   1.636  27.785  0.1991  0.0604 -0.0655
15550W        W58462  27.602   1.680  30.985 -0.1800 -0.2023 -0.1350
15551W        W58463  26.704  34.351  28.506  0.3692 -0.0458 -0.3367
15552W        W58464  28.010   3.357  28.621  0.0209  0.2180 -0.1382
15553W        W58465  26.942  34.481  29.477 -0.1528 -0.0388  0.0826
15554W        W58466  26.989   1.125  31.274 -0.2249  0.0421  0.3717
15555W        W58467  29.107   4.272  28.080 -0.0462  0.2832 -0.2843
15556W        W58468  24.712   0.865  27.771 -0.1239 -0.3001 -0.0466
15557W        W58469  26.361   1.117  28.327  0.1469 -0.1459 -0.1113
15558W        W58470  24.961   2.544  27.539 -0.1611  0.1031 -0.1195
15559W        W58471  27.849   0.260  30.014 -0.0161  0.1152  0.1759
15560W        W58472  26.760   1.362  28.980 -0.0018 -0.3266  0.0100
15561W        W58473  27.467   2.046  29.302 -0.1948 -0.0886  0.1694
15562W        W58474  25.937   2.476  29.699 -0.1150 -0.0068 -0.3257
15563W        W58475  28.135   2.938   0.037 -0.2805  0.1040  0.1367
15564W        W58476  24.896   2.145  27.805 -0.1821 -0.0524  0.0526
15565W        W58477  24.102   3.718  29.423 -0.0416 -0.1230 -0.0380
15566W        W58478  26.696   1.144  27.647  0.0041 -0.0329 -0.4017
15567W        W58479  29.093   1.893  29.348  0.0411  0.2040 -0.1993
15568W        W58480  28.691   3.681  30.896  0.1294 -0.0249 -0.1270
15569W        W58481  26.677   2.878   0.068  0.0995 -0.1681 -0.0236
15570W        W58482  23.240   2.384  27.870  0.1762  0.2240  0.0145
15571W        W58483  26.073   4.378  30.747  0.3020 -0.1169 -0.2950
15572W        W58484  26.525   3.498  30.779  0.0355 -0.0795 -0.0340
15573W        W58485  27.290   2.763  28.329 -0.1205  0.2362  0.1049
15574W        W58486  27.677   1.345  29.908  0.2052 -0.1000 -0.2748
15575W        W58487  25.323   3.083  26.998 -0.2386  0.0228  0.1075
15576W        W58488  27.299   1.995  26.992 -0.0704 -0.0761  0.4084
15577W        W58489  27.125   4.167  31.047  0.0902 -0.4157 -0.2387
15578W        W58490  25.729   2.923  29.380 -0.2729  0.0570 -0.0387
15579W        W58491  28.943  34.686  31.409 -0.0446 -0.1897  0.1221
15580W        W58492  25.825   3.566  27.707  0.2372  0.2437 -0.1428
15581W        W58493  28.860   1.427  27.497 -0.3900 -0.1281 -0.2858
15582W        W58494  27.345   1.521  26.822 -0.1504  0.1985  0.0190
15583W        W58495  29.551   1.640  28.038  0.0844  0.1840 -0.2258
15584W        W58496  26.504  34.693  29.680 -0.0837  0.0237 -0.0563
15585W        W58497  26.450   2.693  30.370 -0.1060  0.1332 -0.1263
15586W        W58498  27.191   1.227  29.951 -0.5188  0.1612  0.0000
15587W        W58499  27.816   3.592  31.225 -0.1375  0.0134  0.0678
15588W        W58500  27.031   1.480  27.880  0.0700 -0.1511 -0.0809
15589W        W58501  27.221   0.734  31.019  0.1589  0.0393 -0.0996
15590W        W58502  26.628   3.183  31.195 -0.0094  0.0141 -0.4128
15591W        W58503  27.339   0.729  28.786  0.3865 -0.1287 -0.0771
15592W        W58504  29.208   3.954  27.391 -0.0693 -0.1556  0.0807
15593W        W58505  28.480   3.793  29.415  0.2060  0.0627 -0.1680
15594W        W58506  28.858   3.627  27.429  0.1416  0.0237  0.2564
15595W        W58507  25.972   1.545  28.280  0.1762 -0.1961 -0.1479
15596W        W58508  25.410   1.132  30.119 -0.1511 -0.0607  0.1588
15597W        W58509  26.489   0.374  31.705  0.1259  0.1577 -0.0767
15598W        W58510  26.664  34.369  27.303 -0.1347  0.1210 -0.0399
15599W        W58511  29.128   2.944  30.914 -0.2263 -0.1853 -0.1637
15600W        W58512  25.941   3.380  31.707 -0.3058  0.4287 -0.1306
15601W        W58513  30.387   1.531  28.019 -0.0549 -0.0365  0.1941
15602W        W58514  27.658   1.943  28.863  0.2017 -0.0983 -0.0078
15603W        W58515  28.316   2.612  30.492  0.0032  0.1885  0.1841
15604W        W58516  27.944   3.039  27.797  0.0246  0.1919  0.0718
15605W        W58517  27.542  34.243  29.372 -0.1044  0.1167  0.3736
15606W        W58518  29.822  33.970  29.557 -0.3060  0.1169 -0.2123
15607W        W58519  26.879   1.330  26.771  0.0380  0.1259  0.3227
15608W        W58520  28.026   1.571  27.545 -0.0399  0.4082 -0.1290
15609W        W58521  29.051   3.398  30.616  0.1587 -0.0322  0.0200
15610W        W58522  28.851   2.384  27.176 -0.0068 -0.1271  0.0010
15611W        W58523  25.533   3.354  29.739 -0.1232 -0.0225  0.1071
15612W        W58524  26.689   2.082  31.071  0.2942 -0.2454 -0.3958
15613W        W58525  27.111   1.760  31.655 -0.0448  0.0877  0.4541
15614W        W58526  26.557   3.070  27.587  0.1411 -0.2496 -0.1835
15615W        W58527  26.163   1.364  29.114  0.0363  0.2645  0.1790
15616W        W58528  23.712   2.674  28.040 -0.0517 -0.0356 -0.1313
15617W        W58529  25.137   0.122  30.098 -0.3975 -0.0320 -0.2679
15618W        W58530  26.688   2.047  29.950 -0.0670  0.1449  0.1192
15619W        W58531  29.363  34.537  28.930 -0.3199  0.1013 -0.0278
15620W        W58532  27.555   2.135  30.515  0.1139  0.0478 -0.0684
15621W        W58533  28.056   1.255  29.576  0.0156  0.1261 -0.1549
15622W        W58534  27.133   0.598  28.375  0.2443  0.0494 -0.0138
15623W        W58535  29.656   2.899  29.494 -0.1226 -0.2725  0.0465
15624W        W58536  28.504   1.181  26.814  0.3554 -0.0041  0.2349
15625W        W58537  28.870   5.119  28.074  0.0033  0.3216  0.1943
15626W        W58538  26.018   1.280  30.312  0.0849  0.0841 -0.0638
15627W        W58539  27.327   1.080  28.287 -0.2651 -0.0483 -0.0310
15628W        W58540  27.508   0.535  29.247 -0.0497 -0.1452 -0.1204
15629W        W58541  24.397  34.522  29.939 -0.1189 -0.2474  0.0359
15630W        W58542  28.083   1.270  30.835  0.1786 -0.2227  0.1073
15631W        W58543  26.528   0.639  27.891  0.1467 -0.1847 -0.0901
15632W        W58544  28.411   1.501  29.326 -0.2040 -0.0259  0.0215
15633W        W58545  28.303  34.558  27.841 -0.1185 -0.1363 -0.0721
15634W        W58546  24.517   2.379  27.429 -0.0180 -0.2382  0.1682
15635W        W58547  28.496   0.399  31.316  0.0713 -0.1561  0.0039
15636W        W58548  28.240   4.295  28.700  0.2644  0.1007 -0.1468
15637W        W58549  28.922   3.528  28.924 -0.1733  0.1911  0.2882
15638W        W58550  28.201   3.406  28.071  0.0804  0.2436  0.4368
15639W        W58551  26.760   0.955  29.884 -0.0804 -0.0057  0.1396
15640W        W58552  26.028   1.176  27.911  0.1131 -0.0649 -0.1388
15641W        W58553  27.476   3.391  28.886  0.1288 -0.2020  0.1750
15642W        W58554  27.228   2.267  28.350 -0.1040 -0.1162 -0.2189
15643W        W58555  28.022  34.245  28.045 -0.1773  0.0992 -0.0411
15644W        W58556  28.486   3.264  29.348 -0.0559  0.0576  0.1848
15645W        W58557  28.388   3.212  26.944 -0.0929 -0.0888  0.2767
15646W        W58558  26.855   1.834  29.398  0.1326  0.1816  0.0600
15647W        W58559  27.625  33.642  29.772  0.0915 -0.0337 -0.0438
15648W        W58560  29.507   2.477  30.187 -0.1317 -0.0088  0.1508
15649W        W58561  26.522   1.810  29.001  0.3545 -0.0394  0.2792
15650W        W58562  26.411   0.024  28.100  0.3151 -0.1934 -0.1290
15651W        W58563  27.795   2.920  29.400 -0.0637 -0.1354  0.0708
15652W        W58564  26.087   3.148  27.871  0.1670 -0.1338  0.0934
15653W        W58565  26.497   0.547  28.472 -0.3886 -0.0261 -0.2008
15654W        W58566  26.972   2.506  27.342 -0.1221 -0.2069 -0.0399
15655W        W58567  27.994   2.278  30.785 -0.1464  0.2698  0.1037
15656W        W58568  26.719   1.298  30.921  0.0412  0.1923  0.1933
15657W        W58569  27.380   2.575  31.550 -0.3085  0.0984  0.1525
15658W        W58570  25.689   1.130  27.570 -0.0885  0.0302 -0.0209
15659W        W58571  26.967   2.624  29.344  0.0111 -0.1428  0.1851
15660W        W58572  26.510   0.112  29.212  0.0103 -0.2893 -0.1477
15661W        W58573  28.901  34.362  28.738  0.0571 -0.2314  0.0388
15662W        W58574  28.322   3.879  30.079 -0.0131  0.1321 -0.3526
15663W        W58575  29.855   2.728  29.938 -0.0946  0.1318 -0.0535
15664W        W58576  28.330   2.028  26.278 -0.0544 -0.1794 -0.1258
15665W        W58577  27.255  34.485  27.918  0.3198  0.2345 -0.0759
15666W        W58578  26.179   2.143  30.787 -0.1002  0.0539 -0.0668
15667W        W58579  25.899   2.370  27.798  0.1011  0.3781  0.0875
15668W        W58580  27.743   3.009  28.859 -0.2490 -0.0217 -0.0626
15669W        W58581  28.673   0.808  26.132 -0.2587 -0.1078 -0.0034
15670W        W58582  29.161   2.380  28.338  0.0032 -0.1723  0.2224
15671W        W58583  26.448   0.446  30.544 -0.0422 -0.1679 -0.0989
15672W        W58584  28.081   2.808  30.918 -0.3031  0.1089  0.2008
15673W        W58585  27.925   0.018  28.297 -0.0574  0.0089 -0.4839
15674W        W58586  27.636  34.612  29.734 -0.1880  0.1326  0.1826
15675W        W58587  27.918   0.666  27.183  0.0120 -0.0539  0.4987
15676W        W58588  28.172  34.599  29.774  0.0612 -0.0350  0.0800
15677W        W58589  26.695   3.920  28.002  0.0164  0.0417  0.2363
15678W        W58590  28.455   1.671  28.817  0.0087 -0.0812 -0.4084
15679W        W58591  27.565   1.112  31.063  0.2101 -0.0233 -0.2048
15680W        W58592  25.975   0.219  30.390 -0.0361 -0.0261 -0.1772
15681W        W58593  28.387   1.128  31.241  0.1327  0.3829 -0.0192
15682W        W58594  28.432   1.538  27.217 -0.0305  0.2402 -0.0995
15683W        W58595  28.137   1.435  30.224 -0.1444 -0.0274  0.2473
15684W        W58596  25.936   1.107  26.552  0.0125 -0.0160  0.2702
15685W        W58597  27.617  34.646  30.781  0.1340 -0.0499 -0.2401
15686W        W58598  25.726   1.510  31.474 -0.1237  0.1566  0.1489
15687W        W58599  27.160   3.461  29.550  0.0125 -0.3977 -0.2238
15688W        W58600  27.989   3.764  29.684 -0.0203 -0.2510 -0.1295
15689W        W58601  27.756   1.489  28.969 -0.3906 -0.0389  0.0083
15690W        W58602  28.203   2.388  31.819  0.0729  0.2342 -0.3440
15691W        W58603  28.442  34.365  28.282  0.3698 -0.2859  0.0452
15692W        W58604  26.770   2.431  28.170 -0.1143  0.1952  0.0101
15693W        W58605  26.211   1.042  27.402  0.2611  0.1500 -0.1480
15694W        W58606  26.196   0.476  28.889  0.4216  0.1551  0.0365
15695W        W58607  27.416   1.577  28.429 -0.0349 -0.1127  0.2631
15696W        W58608  26.149   2.518  26.046 -0.1284 -0.0646 -0.2544
15697W        W58609  28.659   2.472  29.685  0.0416 -0.1894 -0.0223
15698W        W58610  26.921   2.809  27.849 -0.2561  0.4389 -0.0167
15699W        W58611  28.393   0.476  29.089 -0.1625  0.1514 -0.0165
15700W        W58612  25.604   2.412  28.204  0.1606  0.1302 -0.1167
15701W        W58613  26.593   0.676  27.321 -0.2037  0.1017  0.1419
15702W        W58614  26.508   0.240  27.538  0.3972  0.2083 -0.1897
15703W        W58615  28.414  33.878  29.406  0.2782 -0.1488  0.1005
15704W        W58616  27.548   1.459  27.821 -0.0411 -0.1222  0.0863
15705W        W58617  25.738   0.231  29.030  0.0653 -0.0533 -0.3394
15706W        W58618  27.253   1.250  28.888  0.3103  0.0107  0.2294
15707W        W58619  24.556   3.001  29.697  0.0536  0.4050  0.1600
15708W        W58620  27.876   0.002  31.234 -0.0138  0.2117 -0.5446
15709W        W58621  27.771   0.107  27.817  0.1197 -0.1145 -0.2539
15710W        W58622  28.111   3.182  31.356 -0.0270  0.2524  0.1438
15711W        W58623  26.605   2.701  31.412  0.3647 -0.0466  0.2025
15712W        W58624  25.541   1.742  27.089 -0.3190 -0.0372  0.2392
15713W        W58625  29.928   1.231  30.748  0.0426 -0.1179 -0.2311
15714W        W58626  28.395   2.530  27.171  0.0496 -0.1807  0.0286
15715W        W58627  26.004   1.903  28.878 -0.1637 -0.1398 -0.1231
15716W        W58628  28.678   4.349  30.360 -0.1641  0.0877  0.2299
15717W        W58629  25.597   0.343  28.263 -0.1066 -0.1878  0.2849
15718W        W58630  26.148   2.729  27.559  0.0476  0.2163 -0.1664
15719W        W58631  27.798   1.501  31.813 -0.3093  0.0220 -0.2816
15720W        W58632  29.120   3.224  29.591  0.2761 -0.0117 -0.2988
15721W        W58633  27.874   1.225  28.143 -0.1947  0.3217  0.1301
15722W        W58634  26.906  34.683  28.943  0.0322  0.0997 -0.1070
15723W        W58635  26.589   2.276  28.937 -0.1035  0.0932 -0.0586
15724W        W58636  28.087   3.250  29.748 -0.2747 -0.0617  0.2091
15725W        W58637  27.538   1.688  30.290 -0.0909 -0.0822 -0.4238
15726W        W58638  26.254   2.610  31.782  0.0537 -0.0109  0.4344
15727W        W58639  27.666   1.243  30.538 -0.4196  0.1036 -0.1296
15728W        W58640  29.193   3.172  28.065 -0.4174  0.0279 -0.2476
15729W        W58641  27.843   2.389  31.247  0.3304 -0.2435 -0.1989
15730W        W58642  26.408   1.943  28.354 -0.2202  0.1791 -0.0423
15731W        W58643  25.939   2.045  29.442 -0.0095 -0.3091 -0.1158
15732W        W58644  26.328   1.476  28.654 -0.0751 -0.0636  0.1560
15733W        W58645  27.926   0.624  28.981  0.1061  0.1508  0.0235
15734W        W58646  27.176   2.312  28.963 -0.1832  0.0304  0.0361
15735W        W58647  28.317   1.276  27.749  0.1374 -0.0189 -0.1987
15736W        W58648  25.944   2.814  30.290  0.0613 -0.1427  0.0641
15737W        W58649  29.226   0.330  28.927 -0.2851 -0.2154  0.0695
15738W        W58650  28.430   3.423  28.853  0.1746 -0.0406 -0.3343
15739W        W58651  27.962   1.758  27.990 -0.1341 -0.0427  0.1575
15740W        W58652  29.532   1.168  31.462 -0.1698  0.1537  0.1095
15741W        W58653  28.536   1.559  26.505  0.0515 -0.0468  0.1283
15742W        W58654  27.957   1.059  31.639  0.1581 -0.2676  0.1198
15743W        W58655  26.259   0.965  30.767 -0.0932 -0.0648  0.1481
15744W        W58656  27.526   2.505  28.658  0.1913  0.0068  0.0410
15745W        W58657  26.413   2.718  29.527 -0.1144  0.0000 -0.0293
15746W        W58658  27.361   3.498   1.127 -0.1135  0.1786 -0.0887
15747W        W58659  27.436   1.412  31.407 -0.0815  0.1546 -0.0296
15748W        W58660  28.117   1.178  29.102  0.1946 -0.0719  0.2366
15749W        W58661  27.002  34.656  27.498 -0.0214 -0.0664  0.0106
15750W        W58662  26.084   0.306  28.333  0.3516  0.0582  0.2460
15751W        W58663  27.843   2.221  29.632  0.0846 -0.1891 -0.2236
15752W        W58664  28.240   0.699  27.554  0.1149 -0.0847 -0.1071
15753W        W58665  28.618   1.069  29.028 -0.1905 -0.6631 -0.2102
15754W        W58666  25.531   1.936  29.119  0.0787  0.1270 -0.2411
15755W        W58667  28.276   0.329  27.997  0.3902  0.2693 -0.1970
15756W        W58668  27.784   1.000  27.694 -0.1247 -0.1737 -0.0258
15757W        W58669  26.595   2.421  27.700  0.0455  0.3764 -0.0742
15758W        W58670  24.169  34.038  30.936  0.1249  0.0958  0.0930
15759W        W58671  28.071   2.577  28.602  0.1053  0.1566 -0.6149
15760W        W58672  28.114   2.065  28.683 -0.0590  0.2029 -0.0753
15761W        W58673  27.965   1.951  31.109 -0.0271 -0.1002 -0.2443
15762W        W58674  27.576   1.493  29.440 -0.1841  0.0497 -0.0848
15763W        W58675  26.369   2.391  29.934 -0.0431  0.0947 -0.2024
15764W        W58676  26.899  34.665  30.004  0.0674 -0.6266 -0.0630
15765W        W58677  28.244   4.294   0.369  0.2575  0.1031 -0.2242
15766W        W58678  28.656   2.487  28.552  0.1974  0.2471  0.2263
15767W        W58679  28.782   0.854  29.870 -0.1655 -0.0219 -0.0076
15768W        W58680  28.849   1.530  29.600  0.3799 -0.0204 -0.1090
15769W        W58681  26.937   1.389  26.279  0.2747  0.2010  0.5493
15770W        W58682  25.911   1.048  28.793  0.1873  0.3971 -0.0487
15771W        W58683  27.224   3.200  31.245  0.0875  0.1621  0.0722
15772W        W58684  27.454   0.210  27.434 -0.2093 -0.0121  0.1115
15773W        W58685  27.276   1.720  29.845  0.0085  0.3223 -0.0501
15774W        W58686  26.988   2.726  26.831 -0.2206 -0.1227  0.1879
15775W        W58687  27.173   2.924  27.431 -0.1125  0.0202 -0.1108
15776W        W58688  28.217  34.690  28.765 -0.1818 -0.2101  0.0098
15777W        W58689  26.914   1.608  28.360 -0.1726 -0.1138 -0.1531
15778W        W58690  25.070   1.859  29.947  0.0991  0.0532  0.4004
15779W        W58691  27.470   0.459  26.653  0.1215 -0.0609  0.4624
15780W        W58692  26.446   1.518  28.038 -0.3127 -0.1058  0.1540
15781W        W58693  28.219   2.663  29.421  0.1728  0.0893  0.0729
15782W        W58694  28.277   1.754  29.797  0.1733 -0.0304  0.1409
15783W        W58695  26.165  34.236  26.983 -0.2709 -0.2389  0.4203
15784W        W58696  29.126   0.937  30.287  0.0454  0.0227  0.1503
15785W        W58697  26.227   2.116  26.341  0.3017 -0.0161  0.1244
15786W        W58698  27.689  33.796  28.114  0.0979  0.0243 -0.0307
15787W        W58699  26.688   3.479  30.246  0.4784  0.1642  0.2900
15788W        W58700  26.683   2.244  30.360  0.1727 -0.2041 -0.0674
15789W        W58701  27.319   3.032  29.261 -0.1153  0.0653  0.0614
15790W        W58702  28.776   0.490  30.279  0.3646  0.0213  0.0342
15791W        W58703  29.356   1.319  28.333 -0.0908 -0.0462 -0.0290
15792W        W58704  26.340   2.793  28.575  0.0487  0.0209  0.0722
15793W        W58705  28.644   1.241  30.838  0.1592  0.0764 -0.0011
15794W        W58706  27.859   3.945  31.746 -0.3151  0.0839 -0.0340
15795W        W58707  25.276   2.125  27.435  0.1405  0.0209 -0.3740
15796W        W58708  28.509   4.244  29.673  0.0449  0.1609 -0.1709
15797W        W58709  28.925   1.571  28.113  0.2030 -0.1330  0.1838
15798W        W58710  25.063   2.808  27.991  0.1056 -0.0235  0.0905
15799W        W58711  26.450   0.876  30.263 -0.1671 -0.0031 -0.2611
15800W        W58712  27.173   2.159  30.248  0.0392  0.2897  0.1457
15801W        W58713  26.853   2.639  28.600  0.0368 -0.0054  0.3860
15802W        W58714  27.067  34.109  27.480  0.0851  0.0202 -0.0243
15803W        W58715  27.051   1.986  27.406  0.0003  0.0014  0.1586
15804W        W58716  27.506   3.058  31.726 -0.1966  0.1564 -0.1915
15805W        W58717  25.835   2.019  29.996 -0.0579  0.2245 -0.1129
15806W        W58718  26.160   3.915  28.920  0.2896  0.3372  0.1408
15807W        W58719  28.866   3.169  27.527 -0.1525  0.0117  0.2359
15808W        W58720  29.682   4.120  28.942 -0.0839  0.0124 -0.0532
15809W        W58721  27.413   3.569  30.470 -0.1411 -0.1467 -0.0953
15810W        W58722  28.577   0.574  26.571 -0.2939  0.0348  0.0170
15811W        W58723  27.448   3.066  27.947 -0.1898 -0.0122  0.2676
15812W        W58724  26.591   2.946  28.971 -0.2847 -0.0153 -0.2437
15813W        W58725  29.932   5.544  27.988 -0.0828 -0.2496 -0.0972
15814W        W58726  26.247   1.885  27.694 -0.0650  0.0357  0.2259
15815W        W58727  29.204   2.124  31.644 -0.3486  0.1650 -0.0608
15816W        W58728  29.271   0.572  28.501 -0.1883  0.1890 -0.0429
15817W        W58729  28.020   1.851  29.263 -0.1439 -0.0526 -0.3208
15818W        W58730  28.758   1.115  27.906 -0.0190  0.0414  0.0657
15819W        W58731  27.570   3.576   0.181 -0.2340 -0.2054 -0.1008
15820W        W58732  27.418   0.946  29.505 -0.1564  0.1476 -0.1105
15821W        W58733  28.839   0.045  27.783 -0.3841 -0.1846 -0.2607
15822W        W58734  25.385   0.669  30.010 -0.4023  0.1787 -0.2372
15823W        W58735  29.590   0.419  30.903 -0.0611 -0.0718 -0.2791
15824W        W58736  25.815   4.165  30.307  0.0597 -0.3732  0.0324
15825W        W58737  27.854   2.969  28.309 -0.0515 -0.0512  0.0003
15826W        W58738  25.197   0.860  28.545 -0.4057 -0.3041  0.0446
15827W        W58739  26.465   1.006  28.939 -0.1558  0.0678  0.0166
15828W        W58740  29.200  33.842  29.744 -0.0571 -0.0158 -0.0103
15829W        W58741  27.609   2.709  27.573 -0.2285  0.0591  0.0898
15830W        W58742  28.490  34.233  29.030  0.2434 -0.3402  0.2424
15831W        W58743  27.732   3.455  28.032 -0.1863 -0.0278 -0.0362
15832W        W58744  28.289   2.993  28.982  0.0243  0.1080 -0.1830
15833W        W58745  26.463   2.998  29.975  0.1976 -0.0198 -0.1829
15834W        W58746  26.479  34.241  28.929 -0.1978  0.1703 -0.0298
15835W        W58747  28.856   2.300  29.191 -0.1207 -0.1061 -0.0840
15836W        W58748  26.882   0.030  30.476  0.3639  0.1850  0.1450
15837W        W58749  29.249   1.776  29.888 -0.3852  0.1014  0.0361
15838W        W58750  27.764   0.987  28.586  0.0515  0.3659 -0.1446
15839W        W58751  28.408   2.103  29.447  0.1659  0.0206  0.1703
15840W        W58752  27.777   1.825  29.867 -0.1228  0.0429  0.2010
15841W        W58753  27.082   1.332  29.464 -0.1890  0.0264 -0.3433
15842W        W58754  28.054   1.377  26.707 -0.0083  0.1045  0.0453
15843W        W58755  27.479   2.526  29.429 -0.0885 -0.2904 -0.0407
15844W        W58756  28.098   2.966  27.273 -0.1263 -0.4596 -0.0128
15845W        W58757  27.264   4.949  31.078 -0.0853  0.0391  0.1250
15846W        W58758  25.637   0.632  28.737  0.2906 -0.0372 -0.2433
15847W        W58759  27.957  34.430  27.390 -0.0244  0.1229  0.0541
15848W        W58760  27.363   1.918  27.927 -0.2936 -0.2915  0.0570
15849W        W58761  27.714   2.040  28.331 -0.0692 -0.0713 -0.1240
15850W        W58762  28.255   3.696  31.486  0.0719 -0.0172 -0.1427
15851W        W58763  25.447  34.584  28.190 -0.0323  0.2975 -0.1230
15852W        W58764  28.351   3.008  28.455 -0.1821 -0.0290  0.0017
15853W        W58765  27.617   0.851  29.967  0.2075  0.0526 -0.1640
15854W        W58766  27.223   2.399  27.765  0.1240 -0.3699 -0.2934
15855W        W58767  28.517   1.281  29.880 -0.2013 -0.1578 -0.1117
15856W        W58768  27.874   3.462  30.150  0.0806  0.0084 -0.0216
15857W        W58769  25.613   0.157  29.799  0.1526 -0.0235 -0.1482
15858W        W58770  29.367   4.062  29.936 -0.4094 -0.3006  0.0119
15859W        W58771  29.497   3.096  29.967  0.4056  0.1029  0.0973
15860W        W58772  26.357   0.014  28.605  0.2184 -0.2952  0.1759
15861W        W58773  26.890   0.904  28.738 -0.1173  0.0332 -0.0999
15862W        W58774  26.201   2.451  29.177 -0.0406  0.1296 -0.1028
15863W        W58775  29.088   1.294  29.991 -0.1917 -0.0907  0.1539
15864W        W58776  27.218   0.703   0.060 -0.1203  0.2890  0.3376
15865W        W58777  27.992   3.474  27.090  0.0135 -0.0270  0.2825
15866W        W58778  28.296  34.133  29.914 -0.1895  0.0085 -0.4069
15867W        W58779  27.971   3.416  29.217  0.2899 -0.0388  0.2321
15868W        W58780  26.922   3.534   0.761 -0.0874 -0.3171 -0.1181
15869W        W58781  26.842   1.809  26.981 -0.0116 -0.1396 -0.0024
15870W        W58782  26.203   1.764  30.212 -0.0088  0.0356  0.0888
15871W        W58783  26.873   1.979  27.959  0.0105 -0.1321  0.0197
15872W        W58784  27.306   3.307  27.072  0.1864  0.2109 -0.2137
15873W        W58785  29.071   2.129  28.789  0.0047 -0.0159  0.0664
15874W        W58786  27.475   0.760  27.409 -0.2074  0.2846 -0.0513
15875W        W58787  29.554   2.811  28.802  0.0531 -0.1793  0.0282
15876W        W58788  28.323  34.668  29.263  0.1036  0.3672 -0.5234
15877W        W58789  28.783   0.199  28.826 -0.0609  0.0566  0.1770
15878W        W58790  28.322  33.687  27.198 -0.0959  0.2934 -0.2345
15879W        W58791  27.356   2.123  31.057 -0.1397 -0.1395 -0.0362
15880W        W58792  24.863   1.205  28.926 -0.0715  0.0260 -0.4411
15881W        W58793  26.691   1.655  27.520  0.2002 -0.4530 -0.1451
15882W        W58794  27.952   1.570  28.510  0.1069 -0.0523  0.0731
15883W        W58795  24.449   0.241  30.201  0.1669 -0.3174  0.2446
15884W        W58796  26.273   1.766  31.209  0.2531 -0.2545  0.2065
15885W        W58797  25.226   1.378  28.483 -0.1118 -0.2186  0.0299
15886W        W58798  27.017   0.535  27.556  0.0227  0.1464  0.0476
15887W        W58799  28.164   2.026  27.391 -0.0340 -0.0492 -0.1414
15888W        W58800  25.625  34.123  28.219 -0.1726  0.0649 -0.0669
15889W        W58801  25.671  33.291  29.819 -0.0118  0.3010  0.1571
15890W        W58802  27.816   2.370  29.107  0.1382  0.0179  0.0462
15891W        W58803  27.644   2.557  28.077  0.0657  0.0827  0.1092
15892W        W58804  27.689   0.424  28.516 -0.1205 -0.1639  0.2496
15893W        W58805  28.784   3.035   0.057 -0.0382  0.3170  0.4385
15894W        W58806  24.581   2.243  28.199 -0.0180  0.2412  0.3922
15895W        W58807  27.218   1.376  30.812 -0.1281 -0.2222 -0.1606
15896W        W58808  26.502  34.385  31.571  0.2130  0.0609 -0.1479
15897W        W58809  24.823  33.302  26.538 -0.2712  0.0134 -0.1303
15898W        W58810  26.920   0.553  30.334  0.0211 -0.1049  0.0934
15899W        W58811  27.638   3.257  29.703  0.0648 -0.2017  0.2508
15900W        W58812  29.310   4.722  28.009 -0.3315 -0.0232 -0.4017
15901W        W58813  28.237   3.451  30.942  0.0086  0.5535 -0.1118
15902W        W58814  27.162   1.719  28.924  0.2042 -0.0322 -0.2288
15903W        W58815  25.232  34.327  30.343  0.0312  0.1617 -0.0399
15904W        W58816  26.840   1.006  28.187  0.0704 -0.0671 -0.0899
15905W        W58817  26.891   3.476  31.486 -0.0429 -0.1927 -0.1362
15906W        W58818  28.352   0.940  28.149 -0.2382  0.1522 -0.1463
15907W        W58819  28.625   1.092  30.320 -0.0192  0.2474 -0.0837
15908W        W58820  28.098   2.506  27.665  0.1444 -0.1505 -0.1063
15909W        W58821  26.799   0.791  31.758  0.3787  0.0989 -0.1084
15910W        W58822  27.034   1.615  30.275 -0.0519 -0.0093  0.0778
15911W        W58823  29.358   2.252  29.660 -0.3075 -0.0490  0.1593
15912W        W58824  26.093  34.563  29.041  0.1196  0.1511 -0.4962
15913W        W58825  27.638   1.021  29.102  0.1186  0.1006  0.0097
15914W        W58826  28.328   4.405  28.170 -0.1373 -0.2208  0.2103
15915W        W58827  25.712   1.418  29.287 -0.0435  0.1094 -0.0435
15916W        W58828  28.951   1.326  27.012 -0.2339  0.0233  0.2345
15917W        W58829  28.758   3.098  28.758  0.1471  0.2070  0.1227
15918W        W58830  27.461   3.213  28.417 -0.0242  0.2595  0.0567
15919W        W58831  29.610   1.923  30.496 -0.0038  0.2791  0.0103
15920W        W58832  26.599   1.333  27.181  0.1861  0.0475 -0.2194
15921W        W58833  30.317   1.909  26.876  0.4350 -0.0204 -0.2232
15922W        W58834  28.758   4.673  30.701  0.1418 -0.0405 -0.0080
15923W        W58835  30.758   3.270   0.236  0.0626  0.3247 -0.0358
15924W        W58836  26.974   2.467  30.704  0.1858  0.1698 -0.0941
15925W        W58837  28.607   2.099  29.988 -0.1757 -0.0687  0.2153
15926W        W58838  26.196  33.863  29.160 -0.1967 -0.2505  0.0307
15927W        W58839  27.193   1.088  27.668 -0.2156 -0.0593  0.1482
15928W        W58840  26.229   1.005  29.828  0.0669 -0.1095 -0.1891
15929W        W58841  28.494   1.674  30.579  0.1093  0.0048  0.1481
15930W        W58842  26.739   0.817  30.764  0.1511  0.4774 -0.3002
15931W        W58843  28.598  34.006  27.932  0.1883 -0.0631  0.0811
15932W        W58844  26.244   3.529  31.270  0.1421 -0.0951 -0.2400
15933W        W58845  26.715   1.495  29.926  0.0536  0.4370  0.0719
15934W        W58846  27.860   0.740  30.673  0.4076 -0.2598  0.0225
15935W        W58847  28.249   2.455  30.041  0.0273 -0.1697 -0.0227
15936W        W58848  25.283   0.260   0.114 -0.2170 -0.1236 -0.1422
15937W        W58849  26.993   1.702   0.225 -0.0985  0.1745  0.0741
15938W        W58850  25.745   2.400  31.741  0.0525 -0.2224  0.3049
15939W        W58851  26.788   2.456  31.807  0.1120 -0.0942 -0.1601
15940W        W58852  29.453   1.682  31.373  0.0528 -0.3470 -0.1752
15941W        W58853  26.387  34.672  30.644 -0.0845  0.0760  0.2532
15942W        W58854  28.840   1.198   0.528 -0.0282 -0.1729 -0.0482
15943W        W58855  30.129   2.578   0.039 -0.3352 -0.1641  0.0225
15944W        W58856  28.579   3.522   1.889  0.1600 -0.1612  0.0062
15945W        W58857  25.534   0.753  30.730 -0.2566  0.1735 -0.3361
15946W        W58858  28.969   2.288  31.083  0.1977  0.2633 -0.2130
15947W        W58859  27.600   2.357  30.042 -0.0013 -0.3000  0.3544
15948W        W58860  27.960   2.213   0.860  0.1742  0.1331  0.3628
15949W        W58861  25.231   3.945  31.778  0.0975 -0.5152 -0.3330
15950W        W58862  26.453   1.314   0.603 -0.1994  0.0620  0.2298
15951W        W58863  28.443   3.300   0.373 -0.0450 -0.1024 -0.0205
15952W        W58864  25.865   2.139  31.226  0.0450 -0.1348 -0.0282
15953W        W58865  26.887   0.475  31.409  0.0317 -0.0983  0.4242
15954W        W58866  25.934  34.316  31.103  0.2790  0.0587  0.2261
15955W        W58867  25.641   3.237  31.206 -0.1009  0.0436  0.0745
15956W        W58868  28.360   1.625  31.131  0.0333 -0.4439  0.1142
15957W        W58869  28.423   0.800  31.592  0.3805  0.0866 -0.2796
15958W        W58870  26.444   0.666  31.204  0.1137 -0.2989  0.1639
15959W        W58871  26.475  34.530   0.536 -0.1640 -0.0212  0.1623
15960W        W58872  26.667   1.435  31.597 -0.2944  0.1315  0.3654
15961W        W58873  26.395   3.774   0.618 -0.0825 -0.0488  0.0721
15962W        W58874  27.032   1.678  31.152  0.2479  0.0995  0.0967
15963W        W58875  28.680   2.674  30.842  0.3569 -0.2142 -0.1526
15964W        W58876  27.925   3.374   0.470 -0.0463 -0.0939 -0.1515
15965W        W58877  27.804   1.633   0.317  0.1630  0.1820 -0.0757
15966W        W58878  26.776   2.949  30.784  0.1951  0.0940  0.1977
15967W        W58879  27.743   0.605  31.900 -0.0305  0.0422  0.2394
15968W        W58880  24.080   0.639  30.454 -0.1589 -0.0718  0.2893
15969W        W58881  27.848   3.419  31.747 -0.2314  0.2581  0.2959
15970W        W58882  26.760   3.760  31.101  0.0551  0.1687  0.2516
15971W        W58883  28.727   2.214  30.475  0.1390 -0.0611 -0.2661
15972W        W58884  29.099   1.869  30.642  0.1500  0.0955  0.2464
15973W        W58885  29.130   2.507  30.665  0.1885  0.2167 -0.1023
15974W        W58886  27.946   1.409  31.312  0.0222 -0.1176 -0.0626
15975W        W58887  28.930   0.101   0.209  0.0425 -0.3255  0.0005
15976W        W58888  26.942   1.111  30.416 -0.1055  0.1838  0.2723
15977W        W58889  28.597   2.834   0.515 -0.1925 -0.2416 -0.0533
15978W        W58890  25.475   0.347  30.373  0.0950  0.2004 -0.0677
15979W        W58891  28.016   1.750  30.652 -0.2665 -0.2261  0.1440
15980W        W58892  27.149  34.483  31.954  0.0498 -0.1895 -0.0374
15981W        W58893  26.945   3.269   1.267 -0.0462  0.1115 -0.0068
15982W        W58894  27.802   2.588  30.428 -0.0356 -0.0392 -0.0810
15983W        W58895  26.287   2.265  31.376 -0.2842 -0.1802 -0.0245
15984W        W58896  29.604   3.384   0.354  0.1732 -0.0774 -0.0275
15985W        W58897  27.481   0.823  31.533 -0.0733 -0.3241  0.0269
15986W        W58898  27.075  33.515   0.106 -0.2020 -0.0840 -0.0159
15987W        W58899  26.510   1.368  30.422 -0.2207  0.1346  0.2140
15988W        W58900  27.682   0.451  31.037 -0.0249 -0.1910 -0.2082
15989W        W58901  28.098   2.065  30.286  0.0434  0.2063  0.0822
15990W        W58902  28.650   1.968  31.327 -0.2364 -0.1055  0.1520
15991W        W58903  26.369   2.704   0.963  0.0173 -0.0096 -0.0270
15992W        W58904  26.206   3.068  30.872 -0.2512  0.1047 -0.2389
15993W        W58905  26.787   1.140   0.176 -0.1456  0.0916 -0.2589
15994W        W58906  26.942   0.718   0.526 -0.0241 -0.2630  0.2124
15995W        W58907  25.999   3.478  30.793  0.0177  0.0410 -0.0290
15996W        W58908  26.991   2.751  31.178  0.0851 -0.2579  0.3737
15997W        W58909  24.213  34.506  30.923  0.0584  0.0284 -0.3709
15998W        W58910  29.416   2.551  31.363 -0.4717  0.0917  0.0940
15999W        W58911  30.178   1.811  31.586  0.0034 -0.0608 -0.0692
16000W        W58912  28.665   2.350  31.622 -0.0305 -0.1442  0.1404
16001W        W58913  25.402   6.581  19.162  0.3556  0.1214 -0.2079
16002W        W58914  27.181   5.160  16.735 -0.0553  0.1279  0.0290
16003W        W58915  28.880   5.054  15.720  0.1578  0.2951 -0.2748
16004W        W58916  29.299   5.027  17.948  0.2415 -0.0169 -0.0567
16005W        W58917  25.662   4.548  15.861  0.0697  0.4382 -0.0664
16006W        W58918  28.473   7.573  17.614 -0.2209 -0.3290 -0.1937
16007W        W58919  25.388   2.155  19.400 -0.0177  0.1640  0.1352
16008W        W58920  28.459   6.865  17.090 -0.1741  0.3044 -0.1818
16009W        W58921  29.881   5.450  17.798  0.2843  0.1314 -0.2208
16010W        W58922  27.881   6.412  16.668  0.0916 -0.1423  0.1081
16011W        W58923  27.768   3.929  18.244  0.1686 -0.3062  0.0216
16012W        W58924  26.858   6.474  18.605 -0.0142 -0.0340  0.0138
16013W        W58925  27.911   4.186  16.305 -0.0176  0.0253 -0.1922
16014W        W58926  26.741   4.577  17.415  0.0410  0.0354 -0.3449
16015W        W58927  28.382   5.795  19.728 -0.0056 -0.0646 -0.1561
16016W        W58928  25.000   5.954  16.383 -0.2058 -0.2217  0.1703
16017W        W58929  27.601   3.974  18.741 -0.0542 -0.0744  0.2674
16018W        W58930  26.965   5.022  17.366 -0.1705 -0.1478 -0.0819
16019W        W58931  28.401   6.451  16.587  0.1480 -0.2632 -0.0079
16020W        W58932  27.610   4.006  17.802 -0.0286 -0.1287  0.0278
16021W        W58933  27.721   2.723  18.893 -0.0087  0.3393 -0.0086
16022W        W58934  28.597   8.369  16.120  0.6488 -0.4262 -0.2247
16023W        W58935  26.932   4.222  17.051  0.1917 -0.1794 -0.2255
16024W        W58936  25.405   5.027  17.014  0.0570 -0.4652  0.2093
16025W        W58937  25.585   4.478  17.245 -0.1251 -0.0202  0.1322
16026W        W58938  28.950   4.147  18.399  0.1819  0.0634 -0.5424
16027W        W58939  27.979   4.774  16.435 -0.3208 -0.0766 -0.2036
16028W        W58940  27.133   6.906  18.946  0.3439  0.1829  0.1633
16029W        W58941  27.913   6.784  18.483  0.0382  0.0240 -0.1394
16030W        W58942  27.843   4.638  19.466  0.1329 -0.2413  0.1265
16031W        W58943  26.625   6.734  18.258  0.0110  0.0196 -0.2538
16032W        W58944  26.356   6.281  17.441  0.2713  0.0293 -0.2407
16033W        W58945  27.111   6.893  17.195  0.3704  0.2840 -0.3991
16034W        W58946  28.644   5.923  17.413  0.0827 -0.0361  0.0456
16035W        W58947  27.377   7.693  19.990  0.0406  0.0107  0.1442
16036W        W58948  26.917   7.837  19.720 -0.5042  0.0951  0.0008
16037W        W58949  25.166   5.873  15.926 -0.1873  0.2099  0.2714
16038W        W58950  27.385   6.618  19.868 -0.2142  0.3707 -0.2553
16039W        W58951  26.462   4.973  18.493 -0.3607 -0.1378 -0.1187
16040W        W58952  27.302   4.947  18.219 -0.0950  0.3033  0.0094
16041W        W58953  28.241   5.172  16.736 -0.2194 -0.0853 -0.0454
16042W        W58954  27.537   7.875  16.671 -0.1313  0.0454  0.0300
16043W        W58955  27.091   7.639  16.667  0.3662  0.2448  0.0427
16044W        W58956  25.655   6.781  20.624 -0.0313 -0.4877  0.1925
16045W        W58957  26.613   5.688  19.016 -0.1641  0.1532  0.0136
16046W        W58958  29.359   3.783  19.977 -0.2769  0.4815 -0.1104
16047W        W58959  26.197   7.519  16.444 -0.1170  0.1596 -0.2053
16048W        W58960  28.990   5.472  16.410 -0.0654 -0.0970 -0.1190
16049W        W58961  27.401   4.655  16.523  0.1345  0.0630  0.0538
16050W        W58962  28.823   4.629  17.267  0.4906 -0.0751 -0.1431
16051W        W58963  27.280   3.326  18.190  0.4008  0.3012 -0.1230
16052W        W58964  25.356   7.356  18.708 -0.0621  0.2854  0.3500
16053W        W58965  26.932   2.807  20.146  0.1721 -0.0360  0.1017
16054W        W58966  28.581   6.114  20.032  0.2461 -0.4492 -0.0251
16055W        W58967  28.309   4.679  17.430  0.1380  0.1719 -0.1997
16056W        W58968  27.882   4.856  18.525  0.4162 -0.1560 -0.2534
16057W        W58969  26.140   6.503  18.015 -0.0499 -0.1295  0.1123
16058W        W58970  26.328   5.733  16.487 -0.3354  0.2327  0.1269
16059W        W58971  28.477   7.204  16.680 -0.0019 -0.1595  0.3502
16060W        W58972  28.622   6.360  17.074  0.1326  0.0117 -0.1260
16061W        W58973  26.635   8.650  17.657 -0.0670  0.2146  0.0290
16062W        W58974  25.411   6.626  16.465  0.0650  0.0585  0.3381
16063W        W58975  25.534   5.690  19.567 -0.2725 -0.0327  0.7118
16064W        W58976  26.179   4.758  19.154 -0.3241 -0.3952  0.3918
16065W        W58977  24.877   3.873  15.578 -0.3173 -0.3128  0.0377
16066W        W58978  29.719   6.232  20.061  0.1321  0.0399 -0.1203
16067W        W58979  25.309   7.126  19.209  0.1901  0.0147  0.2170
16068W        W58980  28.829   5.683  17.835  0.0132 -0.1270 -0.0170
16069W        W58981  27.594   6.577  17.809 -0.1251 -0.0348 -0.2166
16070W        W58982  29.258   4.914  18.488  0.0773 -0.1323  0.1442
16071W        W58983  30.322   7.188  18.187  0.0264 -0.1580  0.2755
16072W        W58984  28.268   4.819  18.145  0.2155  0.1430  0.1541
16073W        W58985  28.068   3.672  18.780  0.1509  0.0001  0.1984
16074W        W58986  27.426   6.352  16.152 -0.2121 -0.0660 -0.3025
16075W        W58987  27.672   5.056  16.921  0.3823  0.1824 -0.0141
16076W        W58988  29.993   6.081  19.095  0.2083 -0.0365 -0.1425
16077W        W58989  29.429   5.618  16.765  0.0495 -0.0560 -0.0080
16078W        W58990  25.723   6.521  19.540  0.3599 -0.0638  0.2083
16079W        W58991  26.664   3.498  19.175 -0.1067 -0.1275 -0.2182
16080W        W58992  28.242   4.829  19.248  0.0391 -0.1100  0.0570
16081W        W58993  25.778   7.299  16.220  0.0426 -0.1016  0.1406
16082W        W58994  24.434   6.085  17.149  0.1286 -0.0462  0.0309
16083W        W58995  26.768   5.816  16.169  0.2156  0.3580  0.4195
16084W        W58996  26.021   4.103  18.605 -0.1999 -0.1262  0.0015
16085W        W58997  26.982   5.492  17.040  0.4140 -0.0051 -0.3179
16086W        W58998  29.114   5.121  17.122  0.0118 -0.2313  0.0713
16087W        W58999  26.029   4.664  19.820  0.1830  0.1783  0.0338
16088W        W59000  29.446   3.861  16.833  0.1860  0.0013 -0.1726
16089W        W59001  26.477   5.534  16.931  0.1449 -0.2155  0.0094
16090W        W59002  29.578   7.998  16.947 -0.0069  0.0181  0.0789
16091W        W59003  28.766   5.148  16.730  0.2177  0.1042 -0.1775
16092W        W59004  27.581   6.919  17.361 -0.0364 -0.0064  0.0193
16093W        W59005  25.169   5.457  16.724  0.1973  0.2391 -0.2156
16094W        W59006  27.179   3.690  17.766 -0.1765 -0.4113  0.0276
16095W        W59007  27.295   4.398  20.583 -0.2985 -0.1140 -0.1392
16096W        W59008  25.287   3.820  18.072  0.1253  0.0339 -0.2198
16097W        W59009  27.883   3.900  19.223 -0.0494 -0.4848 -0.1107
16098W        W59010  24.828   3.503  15.890 -0.1116 -0.0844  0.0227
16099W        W59011  28.908   5.042  17.620  0.4091 -0.1932 -0.2151
16100W        W59012  27.830   7.426  17.424  0.1851 -0.0360 -0.1739
16101W        W59013  25.729   5.515  17.494 -0.1767 -0.1694  0.0193
16102W        W59014  28.622   3.184  19.874  0.0370 -0.0028  0.0317
16103W        W59015  28.412   7.094  17.599  0.1656 -0.1567 -0.0775
16104W        W59016  29.004   6.058  19.332 -0.3494  0.1875  0.1872
16105W        W59017  29.341   7.641  17.755 -0.1959 -0.0580  0.2559
16106W        W59018  25.045   3.975  18.908 -0.1393  0.1057  0.1337
16107W        W59019  26.204   3.871  15.987  0.0627  0.1814 -0.0188
16108W        W59020  26.602   7.415  18.115 -0.0353  0.0286 -0.1194
16109W        W59021  28.509   6.304  18.286  0.0886 -0.0817 -0.0901
16110W        W59022  28.425   5.659  17.092  0.1492  0.0263 -0.0756
16111W        W59023  29.817   6.851  17.840  0.0826 -0.1268 -0.2112
16112W        W59024  27.188   7.299  17.583  0.0944 -0.1282  0.1678
16113W        W59025  27.230   4.903  18.827 -0.1672  0.0269  0.4809
16114W        W59026  27.087   3.154  19.207 -0.1213 -0.1383  0.1618
16115W        W59027  29.234   4.935  18.938 -0.3225  0.0125  0.0799
16116W        W59028  28.071   4.741  16.998  0.1322 -0.1555  0.0937
16117W        W59029  25.269   4.339  16.765 -0.0916 -0.5128  0.0187
16118W        W59030  28.397   7.928  17.982 -0.1296  0.1700 -0.0358
16119W        W59031  25.692   7.778  16.518  0.0095 -0.1159  0.1238
16120W        W59032  26.851   5.753  16.669  0.0867 -0.0235 -0.3442
16121W        W59033  27.279   6.402  18.873 -0.1506 -0.1823 -0.0018
16122W        W59034  28.496   3.219  18.829 -0.2054  0.2871 -0.0932
16123W        W59035  24.849   4.388  18.721  0.0785 -0.0334  0.1679
16124W        W59036  26.496   3.358  20.505 -0.1230 -0.0448  0.0395
16125W        W59037  24.569   4.642  15.809  0.1608  0.2082  0.1039
16126W        W59038  25.940   6.529  19.068  0.1184 -0.1833 -0.0925
16127W        W59039  28.409   3.774  17.752  0.3435  0.1089  0.1100
16128W        W59040  28.550   4.690  16.880 -0.2453  0.2719 -0.4007
16129W        W59041  26.475   4.674  20.009 -0.2424 -0.2636  0.2259
16130W        W59042  28.867   6.638  16.802  0.4418 -0.2118  0.1257
16131W        W59043  27.466   4.628  17.081  0.1964  0.0167  0.0506
16132W        W59044  28.467   3.774  17.206 -0.1519  0.0596 -0.1394
16133W        W59045  25.709   5.275  19.069 -0.3616 -0.2225  0.1122
16134W        W59046  28.769   5.907  16.245 -0.0103  0.1569  0.4116
16135W        W59047  26.110   6.661  18.591 -0.2589  0.0767  0.1618
16136W        W59048  26.392   4.218  17.321  0.4202 -0.0048  0.2521
16137W        W59049  28.297   6.754  18.235  0.1446  0.2570  0.2161
16138W        W59050  25.617   5.373  18.021 -0.1596  0.4341  0.2273
16139W        W59051  29.847   5.777  19.589  0.1233 -0.0514  0.2466
16140W        W59052  28.322   5.941  17.837 -0.0265 -0.0771  0.2877
16141W        W59053  26.112   3.387  18.995  0.0494 -0.0031  0.1922
16142W        W59054  27.533   5.236  15.553 -0.1094 -0.2335 -0.1284
16143W        W59055  27.438   4.045  16.971  0.1484 -0.0133  0.0762
16144W        W59056  25.116   7.499  16.396  0.1477 -0.1660  0.2859
16145W        W59057  27.675   3.505  18.475  0.0199  0.3621 -0.0375
16146W        W59058  27.973   3.902  16.721  0.0817  0.1357 -0.2612
16147W        W59059  26.046   2.878  17.913 -0.3218  0.1859  0.0599
16148W        W59060  26.961   4.063  19.888  0.0163 -0.1472 -0.2662
16149W        W59061  29.551   5.721  17.270  0.0984  0.3503  0.0805
16150W        W59062  28.013   5.253  18.280 -0.1246 -0.1167 -0.0480
16151W        W59063  24.448   5.327  15.462 -0.3948 -0.0634 -0.1743
16152W        W59064  27.083   2.652  19.185 -0.2815  0.1131  0.0003
16153W        W59065  26.799   6.058  17.757 -0.0914 -0.1309  0.0948
16154W        W59066  25.365   6.886  19.695  0.1642 -0.1791 -0.0663
16155W        W59067  28.441   6.403  19.629 -0.1258  0.0011 -0.2205
16156W        W59068  28.878   6.403  15.873  0.1078  0.1180  0.0201
16157W        W59069  27.870   4.617  21.322 -0.4175  0.2367 -0.0424
16158W        W59070  27.254   4.936  15.867 -0.1043 -0.1308 -0.0260
16159W        W59071  28.091   6.211  17.099 -0.4056 -0.1621 -0.4426
16160W        W59072  27.743   7.440  16.809 -0.2023  0.0568  0.3516
16161W        W59073  26.475   2.923  17.046  0.4542 -0.2639  0.0106
16162W        W59074  27.353   7.725  18.698 -0.1140  0.0801 -0.0162
16163W        W59075  26.417   6.913  16.643  0.0571  0.1357 -0.0266
16164W        W59076  27.977   6.396  18.079 -0.0266 -0.3059 -0.1060
16165W        W59077  26.751   7.257  17.333  0.0777 -0.4380 -0.0259
16166W        W59078  27.928   3.175  18.792  0.3158 -0.1901  0.1066
16167W        W59079  26.275   7.138  18.385  0.0385 -0.2101 -0.1559
16168W        W59080  27.167   5.267  17.821  0.1334  0.0907 -0.2154
16169W        W59081  25.665   3.910  15.926 -0.0142  0.1605  0.1669
16170W        W59082  28.026   3.955  17.437  0.1358  0.0431  0.2453
16171W        W59083  29.435   6.368  16.447 -0.0368 -0.1875  0.3856
16172W        W59084  26.556   5.176  17.748 -0.3627  0.1255 -0.1121
16173W        W59085  27.044   3.229  17.673  0.0504 -0.4127  0.3531
16174W        W59086  25.016   7.737  18.795  0.2179 -0.1042 -0.2292
16175W        W59087  27.730   5.660  18.484 -0.0352 -0.0910 -0.1407
16176W        W59088  27.972   3.555  17.088  0.1354 -0.3714  0.1886
16177W        W59089  28.241   6.545  18.786 -0.3356 -0.0558  0.2948
16178W        W59090  25.493   4.483  19.898 -0.2186  0.1151  0.0698
16179W        W59091  25.627   5.266  16.558  0.1334 -0.2809 -0.0476
16180W        W59092  27.742   2.988  18.382 -0.0193  0.0226 -0.0322
16181W        W59093  26.299   5.284  17.337 -0.3010  0.0486  0.0296
16182W        W59094  25.514   6.775  17.878  0.2732  0.0219  0.1692
16183W        W59095  27.512   5.901  18.842  0.1514 -0.0934 -0.0349
16184W        W59096  25.793   4.848  16.252 -0.2963  0.0401  0.6487
16185W        W59097  26.258   6.375  16.950 -0.2914  0.2776  0.1356
16186W        W59098  26.532   4.215  19.682  0.0225  0.0015 -0.1462
16187W        W59099  27.172   4.292  18.902 -0.0388  0.0965  0.1672
16188W        W59100  28.013   5.529  17.824  0.3029  0.0278 -0.2245
16189W        W59101  25.387   3.754  17.617 -0.1004 -0.1689 -0.3211
16190W        W59102  27.535   5.126  16.301 -0.1960 -0.1266  0.0773
16191W        W59103  27.197   5.467  18.442 -0.0287 -0.0864  0.0889
16192W        W59104  27.286   4.708  19.307  0.1707  0.1981 -0.2164
16193W        W59105  26.435   5.777  18.442 -0.2010  0.0211  0.0597
16194W        W59106  26.824   3.596  18.245 -0.0460  0.1228  0.1353
16195W        W59107  28.997   7.176  16.753 -0.2454  0.0927 -0.2807
16196W        W59108  28.042   6.018  20.065  0.3312  0.0742  0.0934
16197W        W59109  27.184   6.855  16.179  0.0623  0.0772 -0.0372
16198W        W59110  25.123   5.246  18.760  0.0237 -0.0829  0.0459
16199W        W59111  27.119   7.815  17.575  0.0679  0.0616  0.1949
16200W        W59112  26.710   3.100  18.168 -0.0111 -0.0551  0.1439
16201W        W59113  26.218   5.372  18.823 -0.1696 -0.0348 -0.0054
16202W        W59114  28.053   5.808  17.391  0.0562  0.0865 -0.3002
16203W        W59115  26.573   5.985  16.980  0.2013  0.1451 -0.2357
16204W        W59116  27.448   3.951  16.466  0.0547  0.0776 -0.2104
16205W        W59117  27.531   5.673  17.552  0.0554  0.2322  0.1953
16206W        W59118  27.829   4.460  17.602 -0.0605 -0.0539 -0.0166
16207W        W59119  27.445   3.374  19.694 -0.1292  0.1803 -0.3163
16208W        W59120  28.835   6.384  16.337  0.2217 -0.1429 -0.1253
16209W        W59121  28.262   4.654  19.769 -0.1606  0.2340 -0.0941
16210W        W59122  28.103   3.423  18.285  0.1526 -0.1177 -0.1241
16211W        W59123  27.598   6.425  17.247  0.2895 -0.0199 -0.1472
16212W        W59124  25.489   4.769  18.849  0.0715  0.0720 -0.1344
16213W        W59125  25.835   5.466  21.754  0.0867 -0.0360 -0.0719
16214W        W59126  26.049   5.629  19.210 -0.1507 -0.2984  0.2218
16215W        W59127  26.126   3.828  17.172 -0.1975 -0.2666 -0.0256
16216W        W59128  25.937   3.468  16.428  0.1393 -0.3366  0.2135
16217W        W59129  26.816   6.021  18.251 -0.2344 -0.1287  0.2705
16218W        W59130  28.482   4.329  19.337  0.1668  0.1327 -0.1349
16219W        W59131  27.296   6.699  16.685 -0.0063 -0.2676  0.1370
16220W        W59132  28.471   5.105  18.490 -0.2385 -0.2230  0.1763
16221W        W59133  26.585   6.541  17.742  0.0846 -0.1669 -0.3156
16222W        W59134  29.762   4.992  17.676  0.1531 -0.0136  0.0750
16223W        W59135  27.314   5.752  15.410 -0.0519 -0.0474  0.0516
16224W        W59136  26.664   5.642  18.035 -0.0609 -0.0101  0.0512
16225W        W59137  27.135   3.562  18.814  0.0695 -0.1740 -0.1084
16226W        W59138  28.978   5.288  18.712 -0.1026  0.0240 -0.1664
16227W        W59139  28.147   3.399  17.560  0.3276  0.0524  0.1930
16228W        W59140  27.579   4.258  19.178  0.0886 -0.0867 -0.0988
16229W        W59141  27.555   4.560  18.726 -0.0403 -0.2362  0.0985
16230W        W59142  26.893   6.462  17.330  0.1517  0.1504 -0.1500
16231W        W59143  26.148   3.791  20.440  0.1891  0.2259  0.0351
16232W        W59144  27.277   7.239  19.960  0.0319  0.1823  0.2974
16233W        W59145  28.477   4.890  16.373 -0.0800 -0.1464  0.0222
16234W        W59146  28.594   5.162  17.213 -0.3695  0.0192 -0.1034
16235W        W59147  28.757   6.199  17.833  0.2002  0.0489  0.1430
16236W        W59148  28.300   4.355  16.601 -0.0197  0.1212  0.1554
16237W        W59149  25.797   4.074  17.477 -0.0828 -0.0915  0.1340
16238W        W59150  28.049   4.320  19.044  0.1057  0.0760  0.1546
16239W        W59151  27.065   3.636  16.306 -0.1680 -0.0407  0.0240
16240W        W59152  27.425   4.036  20.153 -0.1773  0.0576 -0.0738
16241W        W59153  26.618   7.843  16.508 -0.2187 -0.0371 -0.2411
16242W        W59154  27.323   7.200  16.638 -0.2148  0.1167  0.3107
16243W        W59155  28.705   4.579  17.847 -0.2704  0.1241  0.0208
16244W        W59156  26.833   4.105  17.600 -0.0333  0.3510  0.0720
16245W        W59157  25.591   6.062  19.153 -0.3743 -0.0176 -0.2336
16246W        W59158  26.173   4.590  16.545 -0.3192  0.1130 -0.0730
16247W        W59159  27.975   5.468  15.790 -0.0752  0.2106  0.0380
16248W        W59160  27.760   4.938  19.047  0.2245 -0.0285 -0.2869
16249W        W59161  29.361   5.658  19.547  0.0805 -0.2428  0.1099
16250W        W59162  27.034   2.392  17.753  0.2527  0.2882  0.2223
16251W        W59163  27.582   3.830  19.596 -0.0524  0.1590 -0.4350
16252W        W59164  26.434   6.306  18.393  0.1423  0.4625  0.1332
16253W        W59165  27.470   3.017  16.893  0.2173  0.1072 -0.3624
16254W        W59166  27.068   8.136  18.462 -0.2479  0.0677 -0.1624
16255W        W59167  26.026   7.544  17.941  0.1469  0.0073 -0.3152
16256W        W59168  27.962   6.986  17.907  0.1132  0.1414 -0.2368
16257W        W59169  27.994   4.295  18.510 -0.0777  0.2550 -0.2280
16258W        W59170  30.395   5.470  17.920  0.1126 -0.1275  0.1568
16259W        W59171  27.785   5.939  18.019  0.1157 -0.1867 -0.2158
16260W        W59172  29.533   4.316  19.803  0.0207 -0.0851 -0.1391
16261W        W59173  27.953   5.646  19.149 -0.0942  0.1884 -0.1167
16262W        W59174  27.154   6.741  17.672  0.2521 -0.0319  0.1819
16263W        W59175  28.049   7.228  19.338 -0.0886  0.3440 -0.0646
16264W        W59176  28.924   5.578  16.909  0.4746  0.0803  0.0083
16265W        W59177  27.010   5.943  17.295 -0.1156 -0.0006 -0.1338
16266W        W59178  25.386   4.352  18.080 -0.0462  0.1012  0.0147
16267W        W59179  28.632   5.099  19.057  0.1343 -0.1653 -0.1463
16268W        W59180  26.957   7.048  18.008  0.0369  0.1850 -0.2186
16269W        W59181  26.020   4.249  18.055  0.2068 -0.2019  0.2454
16270W        W59182  27.286   5.941  16.397  0.1219 -0.3254 -0.1181
16271W        W59183  26.117   6.184  19.390 -0.0037  0.0978 -0.1890
16272W        W59184  25.299   5.596  19.123 -0.3055 -0.2576 -0.2752
16273W        W59185  26.162   8.009  16.379 -0.0489 -0.0141 -0.0618
16274W        W59186  27.192   6.164  16.889  0.0663  0.1945 -0.1423
16275W        W59187  28.079   7.547  17.975  0.1443 -0.2298  0.2054
16276W        W59188  27.728   7.021  19.767  0.1488 -0.0684 -0.4628
16277W        W59189  27.134   5.464  15.801  0.1108 -0.3168 -0.0119
16278W        W59190  27.349   6.702  18.438  0.0772 -0.1184  0.1908
16279W        W59191  25.921   7.027  16.586 -0.1758  0.2750  0.0421
16280W        W59192  26.678   7.443  16.864 -0.0892  0.2033  0.4557
16281W        W59193  26.876   6.965  16.555 -0.1676 -0.1417 -0.0177
16282W        W59194  27.881   7.183  20.545  0.0647  0.0169  0.2395
16283W        W59195  28.078   3.632  16.298 -0.0624  0.0660 -0.0733
16284W        W59196  29.159   5.953  18.047 -0.1923 -0.1390  0.0662
16285W        W59197  28.951   3.780  16.942  0.1914 -0.1506 -0.2670
16286W        W59198  27.676   5.242  20.389 -0.1431  0.2213  0.1036
16287W        W59199  26.727   5.379  18.640  0.2219  0.2730  0.2310
16288W        W59200  26.642   2.736  16.368 -0.1462  0.0260 -0.0901
16289W        W59201  26.487   3.736  17.684 -0.1905 -0.0350 -0.0420
16290W        W59202  28.530   3.083  19.287 -0.0338  0.0268 -0.0975
16291W        W59203  25.982   6.509  20.229 -0.0215 -0.0583  0.0183
16292W        W59204  27.957   8.212  16.434 -0.3647 -0.1345 -0.1356
16293W        W59205  25.729   4.952  17.375 -0.1040  0.2753 -0.1465
16294W        W59206  27.700   5.991  16.809  0.1586  0.0327  0.1991
16295W        W59207  28.965   3.581  18.605  0.1897 -0.0164  0.1401
16296W        W59208  27.821   4.970  17.430  0.1043 -0.0942  0.0049
16297W        W59209  28.213   5.103  17.746  0.0535 -0.2743  0.0188
16298W        W59210  26.401   6.365  18.923 -0.0738  0.2208  0.0128
16299W        W59211  26.807   7.733  18.517  0.1606  0.0861 -0.2016
16300W        W59212  27.027   5.899  18.731  0.2745 -0.0569 -0.0574
16301W        W59213  25.066   3.039  15.710  0.1142 -0.4029 -0.1007
16302W        W59214  29.709   4.352  16.934  0.1518 -0.1382 -0.2606
16303W        W59215  26.339   4.348  18.852 -0.0143 -0.2338  0.0581
16304W        W59216  28.515   3.733  18.662 -0.1680  0.1414 -0.2562
16305W        W59217  24.972   5.959  16.914  0.2114 -0.2025 -0.2360
16306W        W59218  28.955   5.472  17.404  0.1463 -0.1439 -0.0872
16307W        W59219  28.068   7.011  18.896 -0.1840  0.0199 -0.2167
16308W        W59220  26.612   5.016  18.994  0.0745 -0.2110  0.5665
16309W        W59221  27.138   5.513  16.280 -0.1457  0.0441 -0.3070
16310W        W59222  28.475   5.734  20.250 -0.2363 -0.0062 -0.3258
16311W        W59223  28.176   5.986  16.675  0.0568  0.1282 -0.1055
16312W        W59224  28.733   7.510  20.619 -0.0875  0.2130  0.0438
16313W        W59225  25.945   3.288  17.593  0.1074  0.1263  0.1095
16314W        W59226  27.795   4.365  16.779  0.1782 -0.0874 -0.2590
16315W        W59227  27.201   5.798  18.006 -0.1443  0.0698 -0.1571
16316W        W59228  26.304   6.006  17.924  0.0166 -0.2389 -0.1145
16317W        W59229  28.238   6.947  19.712  0.1710 -0.0425 -0.1581
16318W        W59230  26.435   4.266  16.245 -0.0869 -0.0592 -0.0324
16319W        W59231  29.206   6.216  15.550  0.2722 -0.0998 -0.0539
16320W        W59232  28.529   4.235  18.797 -0.0777  0.0556 -0.0184
16321W        W59233  26.086   7.330  16.930 -0.3826  0.0492  0.0947
16322W        W59234  27.740   6.284  18.552 -0.0162  0.2374 -0.1331
16323W        W59235  29.256   5.710  19.091 -0.2002  0.1700 -0.0270
16324W        W59236  26.365   4.443  18.345  0.2173  0.2951  0.0298
16325W        W59237  27.604   6.129  19.696 -0.3292 -0.0023 -0.1717
16326W        W59238  28.848   5.571  19.371 -0.0038  0.1633  0.4789
16327W        W59239  26.263   5.066  16.583 -0.0082 -0.0386 -0.2303
16328W        W59240  27.574   5.453  18.052 -0.3364 -0.0380 -0.0309
16329W        W59241  25.583   7.289  17.077 -0.0555  0.2011  0.0622
16330W        W59242  27.186   4.274  17.908  0.2689 -0.0624 -0.2064
16331W        W59243  28.670   4.522  20.108 -0.2806 -0.2005  0.0014
16332W        W59244  27.008   8.266  16.779  0.1751  0.1980  0.0474
16333W        W59245  28.077   3.348  19.238  0.0147  0.1737  0.2075
16334W        W59246  26.008   6.006  18.900  0.2595  0.1050  0.0888
16335W        W59247  26.885   6.556  20.677  0.0165 -0.2064  0.2275
16336W        W59248  27.469   5.602  16.968 -0.0941  0.0549  0.0763
16337W        W59249  26.395   5.782  17.436  0.2214  0.1658 -0.1448
16338W        W59250  28.949   7.352  18.853 -0.1805 -0.1203  0.1881
16339W        W59251  26.710   6.801  16.114  0.0007 -0.0424 -0.0987
16340W        W59252  28.036   7.223  18.424 -0.3613  0.1017  0.3553
16341W        W59253  28.125   5.305  17.234 -0.1561  0.0927  0.3191
16342W        W59254  28.022   5.338  18.780 -0.0481 -0.1876 -0.0251
16343W        W59255  27.396   3.076  18.804 -0.3960 -0.3206 -0.0877
16344W        W59256  29.201   4.541  18.169 -0.0864 -0.0005  0.2054
16345W        W59257  28.468   3.902  16.650 -0.3233  0.0489 -0.1131
16346W        W59258  27.746   4.900  18.022  0.0278  0.4630  0.0574
16347W        W59259  24.689   4.079  16.003  0.0683 -0.0510 -0.0204
16348W        W59260  27.991   6.434  16.212 -0.0858 -0.0372 -0.3558
16349W        W59261  27.006   6.451  18.103 -0.5092 -0.1008 -0.0738
16350W        W59262  27.405   2.466  19.853  0.0408 -0.4465  0.0062
16351W        W59263  26.926   4.726  17.923 -0.0711  0.2685 -0.0638
16352W        W59264  26.736   6.570  16.856 -0.1832 -0.1635 -0.3458
16353W        W59265  25.507   3.481  16.173 -0.3199  0.0169  0.0043
16354W        W59266  27.935   7.704  16.355  0.2256  0.2756 -0.3034
16355W        W59267  26.459   4.330  17.810 -0.1186 -0.0746 -0.2367
16356W        W59268  26.783   4.224  18.148 -0.1644 -0.0477  0.1720
16357W        W59269  27.937   5.547  16.808  0.2012 -0.0695 -0.3183
16358W        W59270  28.712   7.347  17.209  0.0468  0.3865 -0.0149
16359W        W59271  26.506   3.987  16.858 -0.1786 -0.3114  0.2705
16360W        W59272  28.149   7.194  20.992 -0.2294 -0.0723 -0.2865
16361W        W59273  26.222   6.414  16.454  0.0559 -0.2243 -0.1524
16362W        W59274  26.620   3.808  20.796  0.0622 -0.0962 -0.2498
16363W        W59275  26.545   3.449  21.114  0.2382  0.1213 -0.2801
16364W        W59276  25.801   4.344  16.330 -0.1003 -0.0137  0.1323
16365W        W59277  26.841   5.132  18.234  0.0421 -0.0767 -0.0663
16366W        W59278  27.680   7.641  18.330 -0.2179 -0.1720  0.1679
16367W        W59279  28.099   6.910  16.590  0.2607  0.2625 -0.3034
16368W        W59280  26.589   6.046  19.806  0.0192  0.0440 -0.1930
16369W        W59281  26.680   6.195  19.339  0.0201  0.0146  0.3205
16370W        W59282  25.464   4.927  17.936  0.3247 -0.0234  0.2850
16371W        W59283  27.640   6.884  16.379  0.0342 -0.0309  0.1631
16372W        W59284  27.132   5.840  19.703  0.4340 -0.0991  0.2087
16373W        W59285  28.614   7.781  16.751 -0.0508 -0.0481  0.0073
16374W        W59286  28.897   3.748  17.592  0.0558 -0.1576  0.2450
16375W        W59287  28.471   5.604  16.517  0.0822  0.1749 -0.1945
16376W        W59288  25.706   3.187  18.827  0.1139 -0.0457  0.1568
16377W        W59289  25.435   6.501  20.043 -0.3281  0.0972 -0.1653
16378W        W59290  28.816   6.030  18.853  0.1397 -0.1283  0.0259
16379W        W59291  26.243   4.670  17.511 -0.0690  0.1494 -0.2636
16380W        W59292  28.199   4.214  17.054 -0.5561 -0.0022 -0.0721
16381W        W59293  28.007   7.041  17.064  0.0435  0.0739 -0.0742
16382W        W59294  26.790   5.567  17.590 -0.2822 -0.1610 -0.1529
16383W        W59295  27.283   4.229  17.421  0.1109 -0.2672 -0.1835
16384W        W59296  27.115   5.445  19.089  0.2166 -0.1736  0.0417
16385W        W59297  28.954   7.342  17.643  0.1790 -0.1761 -0.1003
16386W        W59298  29.549   6.105  19.317  0.0238  0.1395 -0.2080
16387W        W59299  26.708   5.309  16.518 -0.0617 -0.1847 -0.3160
16388W        W59300  29.167   5.990  16.548 -0.0090 -0.0305  0.3928
16389W        W59301  27.612   8.295  19.228  0.1901 -0.1344 -0.2759
16390W        W59302  27.847   5.897  21.757 -0.0453 -0.2184 -0.0313
16391W        W59303  27.994   5.994  19.477  0.0688  0.0170 -0.3802
16392W        W59304  28.186   5.755  18.299 -0.0320  0.1052 -0.0782
16393W        W59305  25.379   4.294  18.651  0.1548 -0.0017 -0.2976
16394W        W59306  27.850   5.976  16.304  0.4353 -0.2788  0.1009
16395W        W59307  28.400   6.396  17.530 -0.2585 -0.0284  0.1591
16396W        W59308  26.828   4.116  18.611 -0.0665 -0.2797  0.2259
16397W        W59309  27.737   3.503  17.877  0.0292 -0.1079  0.0315
16398W        W59310  26.243   3.025  16.595 -0.1681 -0.0026 -0.2120
16399W        W59311  27.286   6.567  20.344  0.0402  0.0543  0.0680
16400W        W59312  27.285   6.195  18.360  0.1182 -0.0528 -0.0366
16401W        W59313  26.969   6.561  21.544  0.1301  0.0349  0.2982
16402W        W59314  25.216   4.716  20.338 -0.2254 -0.1792  0.0749
16403W        W59315  29.253   3.636  21.129 -0.1992 -0.3801  0.0481
16404W        W59316  27.996   6.205  20.840  0.1115 -0.1407  0.0145
16405W        W59317  25.177   3.869  20.056 -0.4986 -0.6017 -0.0312
16406W        W59318  27.610   6.235  20.184 -0.1458  0.1842 -0.1441
16407W        W59319  24.510   4.039  23.056  0.1623  0.1540 -0.0170
16408W        W59320  28.453   7.134  23.572  0.0702  0.0232  0.2454
16409W        W59321  28.931   6.785  22.156  0.0758  0.1600  0.0760
16410W        W59322  26.722   5.473  19.661  0.6050  0.0784  0.1787
16411W        W59323  26.235   3.711  22.615 -0.1237 -0.2815  0.1306
16412W        W59324  26.358   6.581  22.935 -0.3642 -0.3764  0.2173
16413W        W59325  27.665   4.770  21.784  0.0349  0.3242 -0.0504
16414W        W59326  25.251   3.427  23.532 -0.1263  0.0510  0.0487
16415W        W59327  26.565   4.298  22.752  0.4160  0.0436 -0.1280
16416W        W59328  25.802   5.254  19.552 -0.1922  0.1060  0.2330
16417W        W59329  27.671   3.605  24.222  0.2309 -0.0907  0.0269
16418W        W59330  24.381   4.347  20.517 -0.2369  0.0777  0.0892
16419W        W59331  26.919   7.763  22.466  0.0924 -0.1641 -0.0958
16420W        W59332  25.047   3.759  22.575 -0.2355 -0.4018  0.0446
16421W        W59333  27.321   3.367  24.003  0.1360  0.1216  0.0182
16422W        W59334  27.184   7.995  21.994  0.0199 -0.0902 -0.1498
16423W        W59335  25.581   4.799  19.390 -0.1554 -0.0894  0.1532
16424W        W59336  25.286   5.061  21.836  0.0212 -0.0337  0.2931
16425W        W59337  25.766   5.074  22.132  0.0563 -0.1145 -0.0212
16426W        W59338  27.364   3.875  21.825 -0.0660  0.0386 -0.0676
16427W        W59339  27.426   6.865  20.753 -0.1898  0.1686  0.0410
16428W        W59340  27.693   8.076  22.238  0.0265  0.0953 -0.2330
16429W        W59341  26.981   7.292  20.694 -0.1207  0.1740  0.1219
16430W        W59342  28.805   4.546  22.897  0.1954  0.1420  0.3191
16431W        W59343  25.610   6.378  21.237  0.0381  0.0143 -0.2285
16432W        W59344  24.755   6.885  20.898  0.1977 -0.2533  0.1078
16433W        W59345  27.943   5.111  22.150  0.1989 -0.1898  0.0585
16434W        W59346  29.001   5.927  22.302  0.0770  0.4269  0.1638
16435W        W59347  26.892   6.540  23.006  0.0594 -0.0250 -0.0605
16436W        W59348  27.187   8.231  23.150  0.1679  0.2499 -0.0828
16437W        W59349  26.265   6.461  19.797 -0.0037  0.2119  0.0157
16438W        W59350  27.731   5.073  22.886  0.1622  0.0460 -0.2961
16439W        W59351  25.700   6.518  23.042  0.0334  0.1897 -0.1057
16440W        W59352  26.665   4.766  23.346 -0.2263  0.0316 -0.0243
16441W        W59353  27.219   5.293  22.003  0.1938  0.0009 -0.1983
16442W        W59354  25.756   4.736  20.979 -0.0957 -0.4354  0.1002
16443W        W59355  26.833   4.643  21.100 -0.1398  0.2356 -0.4622
16444W        W59356  26.429   5.729  23.058  0.2371  0.1833 -0.2088
16445W        W59357  26.441   5.826  21.620  0.2215 -0.1178  0.1368
16446W        W59358  29.212   3.945  24.592  0.2748 -0.0949  0.0002
16447W        W59359  26.714   5.781  20.289  0.3796  0.0339  0.3870
16448W        W59360  27.585   5.373  18.981 -0.0534  0.0007  0.1330
16449W        W59361  27.039   3.969  20.441  0.3470  0.0410  0.0685
16450W        W59362  27.075   4.991  20.329  0.1794  0.1312  0.1147
16451W        W59363  27.038   3.101  23.244 -0.0312 -0.2375 -0.1497
16452W        W59364  26.475   6.861  21.603 -0.3284  0.1527  0.0354
16453W        W59365  27.549   3.714  23.570  0.3589  0.0669 -0.0635
16454W        W59366  28.193   5.850  22.735 -0.0580 -0.2034  0.3943
16455W        W59367  27.618   5.923  20.990  0.0234  0.1281 -0.0860
16456W        W59368  27.403   4.069  22.565  0.1921  0.1815  0.2158
16457W        W59369  25.652   6.224  23.697  0.1465 -0.2797 -0.1025
16458W        W59370  25.949   6.054  21.416 -0.1806 -0.0838  0.2076
16459W        W59371  28.128   7.914  20.149 -0.0747 -0.2454  0.4897
16460W        W59372  28.037   6.625  22.423 -0.3074 -0.0119  0.0241
16461W        W59373  27.534   5.793  19.332  0.1307  0.2512  0.3695
16462W        W59374  25.189   4.817  20.785  0.0848  0.0901  0.0658
16463W        W59375  25.349   6.144  23.253 -0.1713  0.3520 -0.2343
16464W        W59376  26.160   5.245  22.430 -0.1567  0.1724 -0.2587
16465W        W59377  25.642   3.978  18.947  0.0906 -0.0829 -0.0628
16466W        W59378  27.896   5.662  24.076  0.1525  0.0535 -0.0677
16467W        W59379  26.279   6.099  22.258  0.1672 -0.2267 -0.1706
16468W        W59380  27.740   6.358  21.348  0.3124  0.1344  0.2152
16469W        W59381  25.822   6.631  22.237  0.0012 -0.2470 -0.1131
16470W        W59382  28.134   4.622  22.048  0.2228 -0.1375 -0.2864
16471W        W59383  27.815   6.643  19.461  0.1657  0.0192  0.1830
16472W        W59384  26.768   3.184  22.375 -0.1407  0.0272 -0.0508
16473W        W59385  26.692   3.404  23.799 -0.0543  0.1957  0.0321
16474W        W59386  26.634   4.580  19.277  0.0602  0.0663  0.2393
16475W        W59387  28.495   4.014  19.757  0.3114  0.2404 -0.4635
16476W        W59388  28.992   7.513  24.427  0.0038  0.3416  0.2725
16477W        W59389  27.252   5.338  19.519  0.0718  0.2898 -0.1556
16478W        W59390  26.344   5.758  21.194 -0.0103  0.2935 -0.0303
16479W        W59391  28.099   3.794  23.886  0.1300  0.1733  0.3053
16480W        W59392  27.468   6.078  24.864  0.0305 -0.1298  0.3022
16481W        W59393  26.995   6.316  19.715  0.2623 -0.0134  0.0207
16482W        W59394  25.180   5.622  23.300  0.2901 -0.0994 -0.0284
16483W        W59395  25.656   4.537  20.493  0.1421 -0.2184  0.0854
16484W        W59396  24.475   4.326  21.972 -0.1027 -0.0004 -0.3336
16485W        W59397  26.048   6.369  21.898  0.0486  0.2739 -0.1592
16486W        W59398  28.030   5.021  20.017 -0.2857 -0.0266  0.1800
16487W        W59399  27.025   4.212  22.953  0.3753 -0.0596 -0.2127
16488W        W59400  28.860   3.402  21.325 -0.1435  0.2121 -0.4314
16489W        W59401  25.938   5.953  20.473  0.2527 -0.0537 -0.2760
16490W        W59402  28.458   5.938  21.794  0.0527  0.0313  0.2055
16491W        W59403  27.687   4.632  20.769  0.1707 -0.1433  0.4224
16492W        W59404  28.765   6.992  21.625 -0.0175 -0.0058  0.0118
16493W        W59405  24.551   5.749  23.017  0.0388 -0.4408  0.0364
16494W        W59406  26.074   4.546  21.386  0.1336  0.1503 -0.1319
16495W        W59407  24.437   4.926  23.478 -0.2317  0.1995 -0.3321
16496W        W59408  24.006   4.212  21.426 -0.3433 -0.0404 -0.2547
16497W        W59409  28.584   4.345  23.309 -0.1270  0.1338  0.2641
16498W        W59410  26.673   3.648  20.117 -0.0054 -0.1219 -0.1193
16499W        W59411  27.719   5.608  21.374  0.0889 -0.1174 -0.0764
16500W        W59412  27.506   3.954  20.647  0.1441  0.2657  0.0456
16501W        W59413  24.773   6.010  21.038  0.1040 -0.0287 -0.0941
16502W        W59414  29.902   4.472  23.479  0.1141 -0.1596 -0.1321
16503W        W59415  27.125   6.017  19.186 -0.3591 -0.1193 -0.0101
16504W        W59416  26.860   5.792  23.756 -0.1942 -0.3945 -0.0400
16505W        W59417  27.959   7.418  20.132  0.0066  0.1824 -0.2574
16506W        W59418  26.236   3.587  23.935  0.1893 -0.2878  0.1485
16507W        W59419  26.529   3.517  21.623 -0.2327  0.3069 -0.0413
16508W        W59420  26.596   6.695  21.125 -0.0251 -0.2107  0.3287
16509W        W59421  28.081   6.330  21.886 -0.3968 -0.1820 -0.3515
16510W        W59422  26.992   4.291  21.344 -0.3947  0.0100  0.0601
16511W        W59423  29.806   8.608  21.563  0.1193 -0.0751  0.0361
16512W        W59424  27.578   5.199  19.938  0.0922 -0.2443 -0.0356
16513W        W59425  25.553   7.045  23.060  0.0102  0.0714 -0.1991
16514W        W59426  28.410   3.979  23.516  0.0983 -0.0425 -0.0245
16515W        W59427  28.400   4.516  22.526 -0.2298  0.0286  0.0528
16516W        W59428  28.612   5.525  22.750 -0.1641 -0.0376 -0.1923
16517W        W59429  25.655   4.945  19.996  0.2468 -0.3614 -0.3988
16518W        W59430  27.794   6.045  23.046  0.0527 -0.1705  0.0815
16519W        W59431  25.148   6.758  20.424 -0.2339  0.0055 -0.1616
16520W        W59432  24.786   5.766  21.469 -0.1789 -0.2574 -0.0100
16521W        W59433  27.561   4.282  21.528  0.0937  0.0364  0.2143
16522W        W59434  28.322   3.615  22.280  0.2093 -0.0174 -0.2505
16523W        W59435  24.881   6.031  23.475  0.0730  0.0919 -0.2998
16524W        W59436  27.247   4.118  23.485  0.0872 -0.1222 -0.0533
16525W        W59437  25.336   5.001  21.290 -0.0224  0.0777 -0.3557
16526W        W59438  26.006   6.283  22.669  0.1108  0.0529  0.0951
16527W        W59439  28.210   3.404  21.417  0.2441 -0.0074  0.2254
16528W        W59440  29.189   5.425  19.953 -0.1968 -0.1483 -0.4497
16529W        W59441  26.554   4.963  24.326  0.0317 -0.4707 -0.0665
16530W        W59442  28.480   5.893  20.976  0.0837 -0.0306 -0.3394
16531W        W59443  27.436   2.188  18.896  0.1971  0.0719 -0.1459
16532W        W59444  25.915   4.215  19.647 -0.0878 -0.1251 -0.0624
16533W        W59445  25.827   5.867  22.960  0.2176  0.0854 -0.0186
16534W        W59446  27.365   6.948  21.639  0.0325 -0.0746 -0.5176
16535W        W59447  27.584   5.313  23.518  0.0231  0.0289 -0.3062
16536W        W59448  28.004   3.834  20.457 -0.3563  0.0800 -0.1496
16537W        W59449  28.140   7.664  21.277  0.0365 -0.0365 -0.1378
16538W        W59450  26.716   4.996  21.858  0.1968 -0.1669 -0.1422
16539W        W59451  27.405   5.765  24.379  0.1787  0.0944  0.0820
16540W        W59452  27.817   7.290  21.618  0.2742  0.1514  0.1365
16541W        W59453  26.509   3.893  23.071  0.1538  0.0357  0.0329
16542W        W59454  25.981   3.703  20.972 -0.2737  0.0929 -0.1013
16543W        W59455  28.081   5.125  21.515  0.0940  0.0212  0.1900
16544W        W59456  25.091   7.402  21.623  0.0424  0.0206  0.1258
16545W        W59457  27.765   3.370  21.702  0.0529  0.0768 -0.0202
16546W        W59458  26.358   3.951  21.877 -0.1636  0.2829 -0.0175
16547W        W59459  26.843   2.896  23.668 -0.0120 -0.0360  0.1830
16548W        W59460  29.322   4.555  22.991 -0.1226 -0.0561  0.2371
16549W        W59461  28.508   3.514  20.986 -0.0917 -0.0288 -0.0243
16550W        W59462  27.263   6.014  21.334  0.1927  0.0022 -0.2364
16551W        W59463  26.393   3.851  18.913  0.1398 -0.1823  0.2247
16552W        W59464  28.101   5.356  23.618  0.1746 -0.1653  0.1049
16553W        W59465  24.776   3.851  21.912 -0.0374  0.1888  0.1004
16554W        W59466  25.919   6.806  22.693 -0.1534  0.1773  0.0415
16555W        W59467  28.241   6.378  22.878  0.0586 -0.0379  0.2988
16556W        W59468  28.062   5.510  20.181  0.0673  0.0643 -0.3972
16557W        W59469  27.939   3.303  23.153  0.3972 -0.1089  0.1931
16558W        W59470  28.762   3.901  22.085 -0.0402  0.2991  0.0527
16559W        W59471  26.729   5.652  20.902  0.1848 -0.0255  0.3707
16560W        W59472  26.037   4.786  20.340  0.1663  0.0447  0.1235
16561W        W59473  26.491   4.209  21.117  0.0977 -0.0045  0.2963
16562W        W59474  27.414   6.370  21.715 -0.0500 -0.0551  0.2227
16563W        W59475  26.906   4.991  19.421 -0.0606  0.2779  0.1686
16564W        W59476  27.339   4.746  22.848 -0.1335 -0.0595  0.1350
16565W        W59477  26.409   6.597  20.626 -0.0355  0.3302  0.0986
16566W        W59478  28.334   3.533  22.884 -0.0352  0.0219  0.1834
16567W        W59479  27.208   5.528  21.051  0.0077  0.0634 -0.0060
16568W        W59480  26.161   3.891  19.921  0.0371 -0.0767  0.0147
16569W        W59481  26.178   7.166  21.369 -0.0046 -0.1489 -0.4216
16570W        W59482  28.004   4.121  19.668  0.3457  0.0064 -0.0814
16571W        W59483  27.954   6.496  20.466 -0.0589 -0.1172 -0.1381
16572W        W59484  25.956   4.312  21.821 -0.0316  0.0624  0.2502
16573W        W59485  25.155   3.980  21.598  0.3209 -0.1257 -0.2979
16574W        W59486  25.048   5.890  22.440 -0.1896  0.0470  0.0418
16575W        W59487  27.749   4.465  22.764 -0.1628 -0.2892 -0.0408
16576W        W59488  27.885   3.588  19.889 -0.0422 -0.1581  0.2447
16577W        W59489  28.082   5.993  22.278 -0.0066 -0.0447 -0.3562
16578W        W59490  26.683   6.235  23.765 -0.2079  0.2565  0.0111
16579W        W59491  25.215   4.188  20.479  0.1281 -0.1365 -0.0813
16580W        W59492  29.683   3.502  22.995  0.1173  0.0174  0.3137
16581W        W59493  25.803   4.174  21.050  0.2072 -0.0612  0.0159
16582W        W59494  26.256   5.613  19.689 -0.2967 -0.2649 -0.1156
16583W        W59495  28.171   8.103  22.493  0.0566  0.0510  0.0234
16584W        W59496  26.868   4.576  19.698  0.0189  0.2942  0.0116
16585W        W59497  26.708   5.079  20.004 -0.0401  0.0494 -0.0834
16586W        W59498  25.866   3.497  23.639  0.3212  0.1097  0.0140
16587W        W59499  27.180   4.594  23.296  0.1388  0.0458 -0.1120
16588W        W59500  26.301   4.348  22.204 -0.1624  0.1237 -0.0217
16589W        W59501  26.196   2.690  21.021 -0.1900  0.0866  0.2657
16590W        W59502  27.031   4.090  22.219 -0.1100  0.2954 -0.1504
16591W        W59503  26.947   6.570  22.497  0.0198 -0.0743 -0.0092
16592W        W59504  26.010   5.405  22.938 -0.1309  0.0100 -0.0610
16593W        W59505  26.504   5.285  22.785  0.1574  0.0481 -0.1494
16594W        W59506  27.338   3.112  22.084  0.4442  0.0077 -0.0552
16595W        W59507  28.383   7.235  21.457  0.1387  0.1874  0.0901
16596W        W59508  28.254   5.281  22.954 -0.0102  0.1422 -0.1816
16597W        W59509  25.546   5.575  21.357  0.1903 -0.1440 -0.5252
16598W        W59510  25.054   6.230  24.063 -0.0853 -0.0351  0.2365
16599W        W59511  28.284   4.614  21.617  0.0519  0.0376  0.2491
16600W        W59512  25.374   4.214  22.573  0.1186  0.2550 -0.0442
16601W        W59513  26.898   6.147  21.750 -0.2751  0.0625 -0.2321
16602W        W59514  26.340   5.288  20.932  0.1382 -0.2785  0.4094
16603W        W59515  25.154   5.502  21.693 -0.0473 -0.3250  0.0426
16604W        W59516  28.521   5.010  20.165 -0.0376  0.0588 -0.1847
16605W        W59517  28.804   5.900  21.344 -0.2363 -0.1117 -0.1247
16606W        W59518  26.680   3.799  22.444  0.0720 -0.1465  0.1881
16607W        W59519  28.943   2.819  23.698  0.0468  0.0121  0.1748
16608W        W59520  27.602   5.804  20.474 -0.0890 -0.0333  0.1005
16609W        W59521  27.991   3.006  23.545 -0.0666  0.0428 -0.1309
16610W        W59522  26.182   3.915  23.468 -0.0336 -0.2102  0.2164
16611W        W59523  28.151   4.958  22.603 -0.1796  0.1923 -0.0504
16612W        W59524  25.147   5.187  22.438  0.1085 -0.0070  0.0936
16613W        W59525  26.941   6.897  23.528  0.0802 -0.0724  0.2027
16614W        W59526  25.338   6.603  23.410  0.2567  0.1007  0.0043
16615W        W59527  27.646   3.483  22.689 -0.3031 -0.0228 -0.4283
16616W        W59528  26.615   2.691  18.556  0.0172  0.1045  0.0943
16617W        W59529  26.815   5.619  21.932 -0.0267 -0.1130 -0.1451
16618W        W59530  27.464   5.239  22.460 -0.0364 -0.1899  0.3527
16619W        W59531  26.541   5.355  20.439 -0.1270  0.0323  0.3159
16620W        W59532  28.519   5.478  21.394  0.2777  0.0501 -0.0972
16621W        W59533  24.979   4.457  21.879 -0.0256  0.1969 -0.2173
16622W        W59534  28.522   4.997  21.333  0.2025 -0.0347 -0.1909
16623W        W59535  27.580   5.667  22.223  0.2991 -0.0939  0.0189
16624W        W59536  26.500   4.842  21.398  0.1088  0.1489 -0.2852
16625W        W59537  26.609   3.466  23.293 -0.0422  0.0943  0.0684
16626W        W59538  27.835   7.605  21.993  0.3807  0.1006  0.0008
16627W        W59539  28.145   4.419  23.062  0.2279  0.0502  0.0706
16628W        W59540  26.748   4.763  22.893 -0.0214 -0.0687 -0.1888
16629W        W59541  27.120   3.876  23.894 -0.0696  0.1516 -0.2233
16630W        W59542  26.068   4.238  22.646 -0.2663 -0.0697  0.1280
16631W        W59543  24.102   5.201  23.834  0.0239 -0.2510 -0.3035
16632W        W59544  28.184   8.224  23.437 -0.1704 -0.2799  0.3471
16633W        W59545  28.483   3.878  20.631  0.0345  0.2807  0.0806
16634W        W59546  29.946   4.717  22.555 -0.0417 -0.2251 -0.0386
16635W        W59547  27.508   4.421  19.817  0.0388  0.1449 -0.0193
16636W        W59548  26.965   3.420  20.472 -0.1336  0.1844  0.0887
16637W        W59549  27.046   4.063  20.905 -0.3574 -0.0597 -0.2598
16638W        W59550  28.395   6.625  23.375  0.2428  0.2505 -0.1209
16639W        W59551  26.739   4.370  20.647  0.2525  0.1099 -0.0771
16640W        W59552  26.635   3.414  22.802 -0.2407  0.1380 -0.1462
16641W        W59553  26.874   5.666  21.417 -0.1051 -0.2136  0.0825
16642W        W59554  26.873   5.664  23.248 -0.4523  0.1530  0.2268
16643W        W59555  28.847   4.230  22.517  0.1639  0.0719 -0.0277
16644W        W59556  25.538   5.270  20.934 -0.3873 -0.1602 -0.1356
16645W        W59557  25.129   6.694  22.855 -0.2907  0.1388  0.1171
16646W        W59558  25.983   3.742  19.385  0.0775  0.0801  0.0437
16647W        W59559  25.779   5.619  18.625 -0.0753  0.2064 -0.0228
16648W        W59560  27.410   6.651  22.651  0.2250 -0.2366 -0.1183
16649W        W59561  28.720   4.531  23.925  0.0518 -0.3678 -0.3598
16650W        W59562  27.758   2.863  22.045  0.3717 -0.1564  0.0981
16651W        W59563  28.992   4.018  22.944 -0.0622  0.0244 -0.1780
16652W        W59564  25.830   7.533  21.180 -0.0672  0.3407 -0.1722
16653W        W59565  26.359   2.888  22.366  0.2669  0.0812 -0.1668
16654W        W59566  26.825   6.093  22.280  0.2202  0.3551  0.0393
16655W        W59567  24.975   6.528  21.706  0.0734  0.0613 -0.2447
16656W        W59568  25.837   7.525  20.058 -0.2015 -0.1170  0.2310
16657W        W59569  27.975   4.024  22.694  0.0146  0.1183 -0.0280
16658W        W59570  26.311   4.886  23.049  0.2669  0.1254 -0.0271
16659W        W59571  27.045   5.058  23.195 -0.0504  0.0137  0.1172
16660W        W59572  28.660   5.000  22.740  0.1944 -0.1161 -0.1089
16661W        W59573  27.326   6.722  24.602  0.2229  0.0400 -0.0248
16662W        W59574  25.373   4.741  22.172 -0.3645  0.0070 -0.0120
16663W        W59575  26.177   6.144  23.201 -0.0878  0.0144 -0.3062
16664W        W59576  28.846   6.473  21.319 -0.3194  0.2820 -0.1395
16665W        W59577  26.282   6.621  22.344  0.0110 -0.3463  0.0648
16666W        W59578  25.938   4.802  22.559 -0.0634  0.3500 -0.1397
16667W        W59579  27.924   5.116  24.048  0.1994 -0.1748 -0.0569
16668W        W59580  27.102   5.626  22.401  0.2876  0.3595  0.0196
16669W        W59581  25.989   3.480  19.838  0.0944  0.1816 -0.1036
16670W        W59582  25.606   5.053  20.457 -0.3011 -0.1884 -0.1375
16671W        W59583  24.858   6.271  22.711  0.2524  0.1654 -0.2511
16672W        W59584  25.672   5.286  22.586  0.1481  0.1751 -0.1698
16673W        W59585  24.661   7.773  21.829 -0.1451  0.2311  0.2521
16674W        W59586  28.139   5.587  21.974 -0.1338 -0.2141  0.1717
16675W        W59587  26.949   5.148  21.358  0.0394  0.0395 -0.1194
16676W        W59588  27.008   7.212  22.375 -0.0934 -0.5636  0.2268
16677W        W59589  27.054   3.475  20.956 -0.0124  0.2783 -0.2286
16678W        W59590  26.988   4.484  20.217 -0.3926 -0.3650 -0.1252
16679W        W59591  24.809   6.365  20.617 -0.2982 -0.3242  0.1281
16680W        W59592  27.923   6.825  21.620 -0.0585  0.2736 -0.1076
16681W        W59593  25.109   7.008  21.924  0.4745  0.1940 -0.3599
16682W        W59594  27.598   7.104  22.847 -0.1857  0.0185  0.1697
16683W        W59595  29.031   4.097  20.206 -0.2373  0.2979 -0.0194
16684W        W59596  27.568   4.748  22.334  0.1676 -0.1991 -0.4119
16685W        W59597  28.838   3.955  19.372 -0.0287  0.4458  0.0183
16686W        W59598  28.353   7.184  25.308 -0.1204  0.4861  0.2486
16687W        W59599  28.537   4.915  23.251  0.0285 -0.0916 -0.0334
16688W        W59600  26.478   4.216  20.219 -0.0758 -0.2048 -0.0519
16689W        W59601  26.928   4.837  23.735  0.0384  0.0967  0.3613
16690W        W59602  28.459   2.901  23.796 -0.0517 -0.0939  0.0849
16691W        W59603  25.038   7.166  22.659 -0.3410  0.0113  0.0083
16692W        W59604  27.611   6.912  20.225 -0.1347  0.1259  0.1225
16693W        W59605  25.439   4.070  19.573  0.1199 -0.0859 -0.2083
16694W        W59606  27.067   4.514  22.511  0.1740 -0.3083 -0.1384
16695W        W59607  30.391   3.600  22.667 -0.1733 -0.0664  0.0089
16696W        W59608  27.891   6.312  19.089  0.3100 -0.0843  0.1658
16697W        W59609  27.501   2.917  23.112  0.1082  0.1375 -0.0246
16698W        W59610  26.405   7.644  21.518  0.2561  0.1268  0.3488
16699W        W59611  27.309   6.591  21.173 -0.0676  0.1129 -0.3240
16700W        W59612  27.532   5.847  22.705 -0.0041 -0.0821  0.0447
16701W        W59613  27.130   4.730  21.674 -0.2583 -0.0352 -0.0602
16702W        W59614  28.834   4.488  21.431 -0.1929 -0.3027  0.1047
16703W        W59615  25.653   3.503  22.677  0.0288 -0.0080 -0.1363
16704W        W59616  27.455   3.491  23.128 -0.1327 -0.3464  0.1483
16705W        W59617  25.754   4.436  22.259 -0.2943  0.0014 -0.1345
16706W        W59618  28.986   4.909  20.445 -0.1402 -0.2004  0.2342
16707W        W59619  28.033   5.391  24.487  0.1998 -0.2328 -0.1607
16708W        W59620  26.712   5.260  22.315 -0.3420 -0.1357  0.0524
16709W        W59621  27.140   4.192  19.444 -0.1105  0.0048  0.3134
16710W        W59622  26.967   6.610  23.966 -0.0183 -0.1297  0.2541
16711W        W59623  27.769   4.349  20.352  0.1153  0.0229  0.1804
16712W        W59624  27.177   7.263  23.267  0.0756  0.1046  0.1708
16713W        W59625  25.332   4.424  21.098  0.2162  0.2195 -0.0080
16714W        W59626  27.257   3.011  20.728 -0.1919  0.0194 -0.2567
16715W        W59627  27.342   4.638  21.184  0.1735  0.2231  0.0579
16716W        W59628  27.624   4.723  23.423  0.0910 -0.2065  0.3828
16717W        W59629  27.042   6.268  24.695  0.0445 -0.1525  0.2387
16718W        W59630  26.562   3.134  20.080 -0.1607 -0.3540  0.2802
16719W        W59631  28.391   6.139  20.561 -0.1239  0.1745  0.1164
16720W        W59632  29.163   4.659  21.883 -0.4196 -0.2408  0.3616
16721W        W59633  26.790   5.099  20.806  0.1517 -0.0565  0.0443
16722W        W59634  27.715   5.355  20.880  0.1713 -0.3553 -0.3123
16723W        W59635  28.137   8.349  22.060  0.1234  0.1974  0.0457
16724W        W59636  23.671   4.760  22.775 -0.4376  0.1046  0.2285
16725W        W59637  27.128   7.321  23.808  0.0342  0.0581 -0.3674
16726W        W59638  27.752   6.238  22.543 -0.1116 -0.2765  0.1881
16727W        W59639  27.822   3.805  21.437  0.0477  0.2967  0.1382
16728W        W59640  25.791   4.826  21.715  0.1463 -0.1337 -0.0836
16729W        W59641  26.036   5.367  20.511  0.1122  0.2120  0.1242
16730W        W59642  28.452   4.172  21.769  0.0761 -0.0934  0.3153
16731W        W59643  29.481   2.708  23.763 -0.4032  0.4008 -0.1327
16732W        W59644  27.058   5.444  20.033  0.2356 -0.1517 -0.3850
16733W        W59645  29.376   3.258  23.941  0.2205 -0.3466 -0.1936
16734W        W59646  26.246   7.443  23.257 -0.4002  0.1411 -0.1734
16735W        W59647  25.581   7.036  24.245 -0.1330 -0.0031 -0.3057
16736W        W59648  26.417   5.320  19.330 -0.1336  0.1852  0.0989
16737W        W59649  25.257   4.506  23.666  0.1639  0.1694 -0.0445
16738W        W59650  26.005   5.080  21.252 -0.1343 -0.0636 -0.2290
16739W        W59651  27.660   7.065  21.246  0.2199  0.0126  0.0134
16740W        W59652  28.123   6.964  23.097  0.0727 -0.2625 -0.0743
16741W        W59653  27.525   4.775  20.245  0.2025  0.0127 -0.0873
16742W        W59654  28.522   5.738  22.326 -0.0885 -0.0067  0.1144
16743W        W59655  27.021   5.067  22.657  0.2089 -0.2411  0.0289
16744W        W59656  28.132   5.252  20.600 -0.2619 -0.1176  0.0452
16745W        W59657  27.677   4.199  21.056  0.0387  0.0627 -0.5167
16746W        W59658  26.071   5.273  23.458 -0.0695  0.3957 -0.0920
16747W        W59659  25.438   3.867  21.111 -0.1434  0.2396  0.0549
16748W        W59660  26.284   5.742  20.722  0.0393  0.0763  0.0636
16749W        W59661  26.510   6.348  21.523  0.1256 -0.0248 -0.0078
16750W        W59662  27.239   2.846  23.947  0.3096  0.3508  0.2915
16751W        W59663  24.495   4.619  23.067 -0.1341 -0.2656  0.0400
16752W        W59664  27.332   5.789  21.757 -0.0293  0.0272  0.0236
16753W        W59665  27.267   3.470  21.496 -0.0352  0.2085 -0.0357
16754W        W59666  27.657   6.687  22.016  0.1330 -0.1805 -0.3420
16755W        W59667  26.905   3.079  21.822 -0.1506  0.1444  0.3735
16756W        W59668  25.224   3.666  20.579  0.1777 -0.1204  0.0121
16757W        W59669  26.382   5.304  21.613  0.1629  0.2937  0.0252
16758W        W59670  27.416   7.644  22.424 -0.2677  0.0834  0.4903
16759W        W59671  26.781   2.706  22.060  0.0153 -0.0219 -0.4481
16760W        W59672  27.426   5.610  23.905  0.0198 -0.0044 -0.1084
16761W        W59673  24.500   5.818  20.182  0.0110 -0.2692  0.1364
16762W        W59674  27.540   4.117  23.047 -0.2839 -0.1795 -0.0959
16763W        W59675  25.804   4.285  23.432 -0.1458  0.0066  0.0138
16764W        W59676  25.812   3.551  18.511 -0.1177 -0.4050  0.2105
16765W        W59677  27.589   5.110  21.390 -0.0182 -0.0898 -0.2010
16766W        W59678  27.999   6.482  19.890  0.2475  0.2969  0.1560
16767W        W59679  27.619   8.217  20.080  0.1885  0.0867  0.0777
16768W        W59680  26.640   5.366  23.976 -0.2702 -0.1468 -0.0075
16769W        W59681  26.850   7.860  23.678 -0.2673 -0.0954  0.0708
16770W        W59682  25.514   2.626  22.976  0.2922 -0.1180 -0.3870
16771W        W59683  28.776   5.504  21.823  0.1705 -0.0749  0.0652
16772W        W59684  26.608   5.707  22.522  0.2533  0.0049 -0.2263
16773W        W59685  27.564   6.324  20.690  0.1450 -0.1561  0.0539
16774W        W59686  28.287   4.111  22.236 -0.2626  0.0705  0.2761
16775W        W59687  27.170   6.030  20.783 -0.1052 -0.2135 -0.1600
16776W        W59688  24.468   4.463  22.561  0.1619 -0.0809  0.0879
16777W        W59689  27.079   4.850  22.164 -0.1108  0.1288 -0.1686
16778W        W59690  27.850   5.525  23.045  0.5485 -0.2677 -0.2679
16779W        W59691  25.419   4.480  21.589  0.0684  0.2472 -0.3368
16780W        W59692  28.476   4.523  21.105  0.1371  0.0291  0.1411
16781W        W59693  27.334   5.045  20.828  0.1116 -0.0219  0.2393
16782W        W59694  26.291   4.727  21.859 -0.1472  0.1079 -0.0422
16783W        W59695  27.762   4.281  22.307  0.2800  0.1189  0.4227
16784W        W59696  27.910   4.168  23.533 -0.0280 -0.0488  0.0547
16785W        W59697  28.651   7.010  23.144 -0.2371  0.1843  0.2700
16786W        W59698  27.442   6.560  24.093  0.3093  0.1893 -0.1306
16787W        W59699  26.277   4.172  19.283  0.2799  0.0886 -0.2366
16788W        W59700  28.887   4.924  19.867  0.1804 -0.3382 -0.0183
16789W        W59701  26.585   6.190  22.712 -0.0834 -0.1053  0.1106
16790W        W59702  29.500   7.662  25.572  0.0377 -0.0837 -0.0341
16791W        W59703  26.579   5.262  23.301 -0.0204 -0.1891  0.1387
16792W        W59704  27.338   6.237  22.991  0.0880 -0.0051 -0.2019
16793W        W59705  24.008   3.442  23.323 -0.3050  0.0109 -0.0377
16794W        W59706  26.659   6.111  20.611  0.0614 -0.2032 -0.0520
16795W        W59707  26.301   4.697  20.934  0.3805 -0.0338 -0.1673
16796W        W59708  27.389   4.406  21.997  0.0377 -0.4068  0.2876
16797W        W59709  26.142   4.339  20.662  0.4511  0.0879  0.2442
16798W        W59710  27.288   3.117  20.078 -0.0254 -0.3549 -0.3494
16799W        W59711  26.238   7.096  23.703 -0.1532  0.0698  0.0130
16800W        W59712  27.159   7.503  22.821 -0.2914 -0.0298  0.2348
16801W        W59713  26.900   6.985  27.217 -0.2896  0.4923  0.0814
16802W        W59714  25.338   3.966  23.587  0.1550  0.0664  0.2770
16803W        W59715  28.460   4.047  22.919  0.2343  0.0032 -0.0135
16804W        W59716  28.909   4.467  24.689 -0.2684  0.2380  0.3345
16805W        W59717  25.572   5.413  24.729  0.0272  0.2877  0.0605
16806W        W59718  28.038   6.150  24.122  0.0379  0.2245 -0.2053
16807W        W59719  25.399   2.670  26.114 -0.3190 -0.0960  0.0256
16808W        W59720  29.085   6.782  26.411  0.1230 -0.1751 -0.0116
16809W        W59721  28.938   6.103  25.898  0.1205 -0.1688 -0.0705
16810W        W59722  26.836   4.310  23.932 -0.0447  0.1021 -0.3670
16811W        W59723  26.967   4.729  25.728 -0.4878  0.2950  0.1216
16812W        W59724  27.206   6.640  26.394  0.2478  0.1995  0.1619
16813W        W59725  26.377   2.726  23.645  0.0394  0.1886 -0.2464
16814W        W59726  25.727   4.804  24.977 -0.1329  0.1465  0.1413
16815W        W59727  28.111   5.793  26.359 -0.0068 -0.1576 -0.0028
16816W        W59728  26.444   4.336  23.556  0.2289 -0.2448 -0.1467
16817W        W59729  26.387   5.053  25.079 -0.4454 -0.2172  0.0641
16818W        W59730  27.419   4.438  24.960  0.0169 -0.2777  0.2868
16819W        W59731  27.426   6.921  25.380  0.1336  0.0809 -0.0399
16820W        W59732  26.931   4.140  26.684 -0.0761 -0.0046 -0.2795
16821W        W59733  27.327   3.739  26.770 -0.2118 -0.1656 -0.0737
16822W        W59734  27.065   5.361  23.577 -0.0903  0.1011 -0.1095
16823W        W59735  24.816   4.310  23.749  0.0948 -0.0367 -0.0223
16824W        W59736  25.159   5.321  23.949 -0.1576 -0.0245 -0.0480
16825W        W59737  26.491   4.602  25.727 -0.1530  0.1437 -0.0864
16826W        W59738  27.601   5.396  27.960  0.1213 -0.0511 -0.1033
16827W        W59739  27.551   5.495  24.860 -0.1149  0.0265  0.1655
16828W        W59740  25.463   7.533  25.623 -0.1482 -0.2910 -0.0539
16829W        W59741  27.820   4.928  24.786  0.0404 -0.3848  0.3458
16830W        W59742  28.685   5.652  26.141  0.1705 -0.0832  0.0083
16831W        W59743  25.706   6.573  24.424  0.2268 -0.1949 -0.1671
16832W        W59744  25.660   7.064  25.684  0.2072 -0.1720  0.3080
16833W        W59745  26.941   6.347  26.035  0.0919  0.0294 -0.0862
16834W        W59746  29.509   6.880  25.670 -0.0413  0.0993 -0.0370
16835W        W59747  29.578   7.138  26.442  0.0874  0.1465  0.2692
16836W        W59748  27.314   6.551  28.423  0.0902  0.0160 -0.1716
16837W        W59749  26.089   7.239  24.167 -0.0955  0.0010 -0.2840
16838W        W59750  27.209   7.920  26.494 -0.2355 -0.0597  0.2353
16839W        W59751  26.523   6.329  27.386 -0.2576 -0.3054 -0.0032
16840W        W59752  26.810   5.191  26.060  0.0761  0.1515 -0.2260
16841W        W59753  27.204   5.192  25.641 -0.0067  0.2333 -0.1581
16842W        W59754  27.528   6.555  25.019 -0.1298  0.1542 -0.1841
16843W        W59755  27.288   4.486  23.983 -0.2112 -0.1187 -0.1688
16844W        W59756  27.403   5.805  25.814  0.0409  0.2057  0.0869
16845W        W59757  26.793   7.082  26.067 -0.2325  0.1608  0.3998
16846W        W59758  29.844   4.325  28.495 -0.1382  0.2356 -0.2634
16847W        W59759  25.909   6.206  25.221 -0.0038 -0.0723 -0.3141
16848W        W59760  28.843   5.850  24.875  0.0726 -0.2327 -0.0230
16849W        W59761  27.354   4.097  24.430 -0.0076 -0.0498  0.2932
16850W        W59762  28.096   4.837  23.600  0.0423 -0.1873 -0.1515
16851W        W59763  24.954   2.617  25.720 -0.0931 -0.0286  0.0752
16852W        W59764  26.124   7.048  26.052 -0.1268  0.1208 -0.1469
16853W        W59765  27.122   3.850  25.820 -0.1994 -0.3672  0.2746
16854W        W59766  28.371   6.181  26.666  0.0306 -0.0264 -0.0643
16855W        W59767  28.124   3.519  25.151  0.0392  0.1424 -0.0915
16856W        W59768  26.970   4.336  27.162  0.3542 -0.1453 -0.1104
16857W        W59769  26.074   6.774  26.487  0.2939  0.0869 -0.3412
16858W        W59770  26.120   4.724  23.458 -0.0243 -0.2812  0.1423
16859W        W59771  29.145   7.018  24.511 -0.4242  0.1985  0.1172
16860W        W59772  29.064   6.320  25.174 -0.4381  0.1531  0.1137
16861W        W59773  27.054   5.741  24.781  0.0552 -0.0084  0.1109
16862W        W59774  25.609   3.627  23.218  0.2956 -0.3083  0.2974
16863W        W59775  25.550   5.474  27.257  0.3457 -0.2457 -0.0900
16864W        W59776  26.176   6.271  26.349 -0.1692 -0.1044 -0.1172
16865W        W59777  24.759   3.861  23.563  0.0468 -0.0452  0.1292
16866W        W59778  31.046   5.518  27.687  0.1174  0.2775  0.1226
16867W        W59779  26.987   6.367  28.703 -0.2538  0.3889  0.0976
16868W        W59780  27.583   4.552  26.595  0.4105 -0.0107  0.0769
16869W        W59781  26.438   5.977  24.588 -0.1885  0.4266  0.0884
16870W        W59782  28.447   6.745  26.411  0.1508  0.0091 -0.0826
16871W        W59783  28.093   6.627  23.904  0.3053 -0.0587 -0.0312
16872W        W59784  27.587   3.986  25.966  0.0789 -0.0507  0.1498
16873W        W59785  28.439   3.834  27.408 -0.5310 -0.1506 -0.1528
16874W        W59786  26.360   5.689  23.569  0.1401  0.3088  0.0761
16875W        W59787  25.810   5.829  23.478 -0.0099 -0.0772 -0.0600
16876W        W59788  28.741   6.597  27.593 -0.0036  0.0341  0.1689
16877W        W59789  29.345   5.399  23.723  0.0177 -0.0610  0.0497
16878W        W59790  25.771   5.933  26.485  0.5413 -0.0563  0.0164
16879W        W59791  26.529   3.384  26.227  0.0003 -0.1099 -0.1155
16880W        W59792  28.342   6.875  27.339  0.0534  0.2145  0.3558
16881W        W59793  25.723   5.334  24.253 -0.3827 -0.2535 -0.2034
16882W        W59794  26.233   5.795  26.263 -0.0026  0.1325 -0.1615
16883W        W59795  26.231   5.676  24.931 -0.1465 -0.0234  0.2520
16884W        W59796  26.215   3.723  25.356  0.3852  0.0160 -0.4384
16885W        W59797  27.003   6.482  27.300 -0.0452  0.0181  0.2120
16886W        W59798  27.928   4.375  24.823  0.0072 -0.1868  0.0750
16887W        W59799  26.426   5.899  27.844  0.0690 -0.4064 -0.2101
16888W        W59800  29.844   3.123  23.634  0.0514  0.1980 -0.0796
16889W        W59801  27.598   5.174  25.268  0.0007 -0.0658 -0.1128
16890W        W59802  28.805   6.634  26.043  0.0287 -0.0583  0.0920
16891W        W59803  28.051   4.520  24.396  0.0458 -0.1669  0.0357
16892W        W59804  27.700   6.376  23.502  0.2314  0.1688 -0.0997
16893W        W59805  26.681   6.015  26.430 -0.0251 -0.2331 -0.2117
16894W        W59806  26.388   4.567  24.047 -0.0300 -0.0761  0.1363
16895W        W59807  25.498   1.946  27.941 -0.1931  0.1954 -0.0395
16896W        W59808  25.893   5.740  27.021  0.1624 -0.0609  0.3635
16897W        W59809  28.095   5.808  27.354 -0.5111  0.2130 -0.0075
16898W        W59810  26.831   3.036  24.627 -0.2237  0.1754 -0.0132
16899W        W59811  28.200   2.966  25.034 -0.1751 -0.2692  0.0342
16900W        W59812  27.293   3.143  24.920  0.2160 -0.4136 -0.3411
16901W        W59813  24.513   5.732  24.618  0.0116 -0.0930  0.3006
16902W        W59814  29.127   3.753  27.981 -0.0993  0.0217 -0.1882
16903W        W59815  28.031   5.541  25.131 -0.0368  0.0677 -0.2879
16904W        W59816  29.050   6.810  27.231 -0.1185 -0.3681  0.3443
16905W        W59817  27.911   7.112  26.389 -0.0439 -0.0677  0.2297
16906W        W59818  26.516   4.049  27.047  0.0496 -0.1425 -0.2551
16907W        W59819  24.762   4.154  25.716 -0.0173 -0.2562 -0.0015
16908W        W59820  27.017   7.477  27.351 -0.0933  0.2133  0.2764
16909W        W59821  27.172   7.277  28.274 -0.0918  0.2965 -0.1465
16910W        W59822  27.175   4.896  25.261 -0.2443 -0.0279 -0.2773
16911W        W59823  29.561   5.429  26.246 -0.0171  0.2013  0.1949
16912W        W59824  27.008   4.844  24.232  0.1025  0.3402 -0.0689
16913W        W59825  26.246   5.396  27.090 -0.5944 -0.0451  0.1824
16914W        W59826  27.949   2.851  26.767  0.0188 -0.1305  0.0589
16915W        W59827  27.650   5.683  26.979  0.0870  0.2307  0.1010
16916W        W59828  28.436   3.996  26.534  0.1009 -0.0286 -0.3891
16917W        W59829  25.843   2.634  24.365  0.1784 -0.1848  0.1395
16918W        W59830  26.716   7.735  25.929 -0.5128  0.2711 -0.1064
16919W        W59831  26.161   6.171  23.731  0.3636 -0.1611  0.0006
16920W        W59832  26.524   5.460  24.420 -0.1398 -0.0083 -0.2890
16921W        W59833  26.988   5.730  25.571 -0.3207 -0.0662  0.0235
16922W        W59834  28.287   3.931  24.816  0.0673  0.1326  0.1464
16923W        W59835  25.155   5.475  26.421  0.1767  0.2909 -0.1159
16924W        W59836  27.900   4.305  25.740 -0.0255 -0.0327 -0.3284
16925W        W59837  25.680   4.850  23.533  0.2060 -0.1301 -0.2086
16926W        W59838  27.645   6.439  27.305 -0.1395 -0.2344  0.2089
16927W        W59839  27.879   3.070  26.253  0.2075 -0.2694 -0.1005
16928W        W59840  28.242   4.339  23.860 -0.0426  0.1590  0.4382
16929W        W59841  26.520   5.058  28.606 -0.0952 -0.0624  0.1076
16930W        W59842  28.459   5.379  24.036  0.0630 -0.0738 -0.0958
16931W        W59843  28.328   4.787  24.068 -0.0217  0.2153 -0.0599
16932W        W59844  28.343   3.511  24.334  0.2343 -0.0856  0.0858
16933W        W59845  25.638   5.886  27.452 -0.0348  0.2786 -0.1411
16934W        W59846  27.108   5.367  25.194 -0.2241  0.0631  0.0050
16935W        W59847  26.990   6.479  26.802 -0.0246 -0.2883 -0.2538
16936W        W59848  28.921   3.359  23.660 -0.0709 -0.3172 -0.1119
16937W        W59849  27.144   6.361  23.472  0.0450 -0.1921 -0.2933
16938W        W59850  26.463   6.156  25.948 -0.0804 -0.0391 -0.0014
16939W        W59851  27.349   6.125  27.052  0.0808  0.2553 -0.0651
16940W        W59852  28.576   5.425  24.995  0.2476  0.2728  0.0079
16941W        W59853  27.135   3.983  24.995 -0.0712 -0.0130  0.1162
16942W        W59854  27.705   3.865  24.995  0.0998  0.3752 -0.1145
16943W        W59855  27.204   2.672  24.714  0.1851  0.0764 -0.3004
16944W        W59856  25.474   7.521  24.644 -0.0611  0.0320  0.0470
16945W        W59857  28.013   5.160  27.790 -0.0159  0.1146 -0.0360
16946W        W59858  28.003   3.758  26.098  0.3040 -0.1204  0.0377
16947W        W59859  28.062   4.332  26.723 -0.0604  0.5697 -0.1348
16948W        W59860  29.092   5.010  27.649 -0.1593  0.1781  0.0426
16949W        W59861  27.299   2.649  23.488 -0.1662  0.0594  0.1767
16950W        W59862  27.887   4.736  26.189 -0.2306  0.0840 -0.1667
16951W        W59863  25.941   3.936  23.013  0.3223 -0.3624 -0.0074
16952W        W59864  27.038   4.523  26.383 -0.1057  0.2715  0.0015
16953W        W59865  26.542   4.596  27.229 -0.2390  0.0690 -0.1332
16954W        W59866  27.436   7.169  27.337 -0.0981 -0.2033  0.0609
16955W        W59867  30.135   6.553  27.026 -0.0142  0.0538  0.0823
16956W        W59868  27.938   6.103  25.924  0.2025  0.2109 -0.0605
16957W        W59869  27.212   5.203  27.159 -0.0655 -0.3187  0.0293
16958W        W59870  28.111   3.308  23.887  0.1148 -0.2338 -0.1385
16959W        W59871  27.135   6.130  23.982 -0.2744 -0.1599 -0.0669
16960W        W59872  25.308   5.780  23.794 -0.2750  0.1448  0.1911
16961W        W59873  27.015   2.867  25.581  0.1635 -0.2258 -0.1543
16962W        W59874  26.101   7.875  26.280 -0.3941  0.3147 -0.1088
16963W        W59875  27.499   6.876  23.652  0.1644 -0.1278 -0.0588
16964W        W59876  27.733   6.181  26.440  0.1145 -0.1788 -0.2290
16965W        W59877  25.196   6.436  24.580  0.1705  0.1323  0.1090
16966W        W59878  28.292   4.216  27.151 -0.1865 -0.0348 -0.1751
16967W        W59879  25.315   6.922  25.280  0.3329  0.2636  0.3102
16968W        W59880  26.055   4.032  23.976  0.2811 -0.2351  0.0373
16969W        W59881  24.621   6.116  26.322 -0.0357  0.1520 -0.0452
16970W        W59882  27.839   4.674  25.233  0.0062 -0.0561 -0.2377
16971W        W59883  28.486   6.335  24.002 -0.3095 -0.0321  0.2317
16972W        W59884  25.883   4.902  25.903  0.1009 -0.0983  0.1314
16973W        W59885  27.105   4.356  25.326 -0.3703  0.0169  0.0443
16974W        W59886  26.303   7.705  26.689  0.2391 -0.0020  0.1480
16975W        W59887  27.604   4.920  26.937 -0.1348  0.0112 -0.3728
16976W        W59888  28.068   4.002  24.353 -0.0724  0.1790 -0.2290
16977W        W59889  28.944   7.489  27.017  0.0068 -0.1285 -0.0279
16978W        W59890  26.774   5.401  26.943  0.0835 -0.2964 -0.0891
16979W        W59891  26.432   5.877  24.065  0.1892  0.2334 -0.1254
16980W        W59892  28.809   5.071  27.249 -0.1568  0.1399 -0.3450
16981W        W59893  27.578   4.136  25.382 -0.1638 -0.1126  0.1039
16982W        W59894  27.881   7.091  25.273 -0.1582  0.0884  0.3168
16983W        W59895  27.554   7.491  26.407 -0.0673 -0.0370  0.1266
16984W        W59896  26.417   4.816  22.451  0.0448  0.0173 -0.2048
16985W        W59897  24.899   5.291  25.328  0.1100  0.2069 -0.2483
16986W        W59898  27.273   5.420  26.195  0.1101  0.1071  0.1742
16987W        W59899  28.185   5.385  25.986  0.0551  0.0309  0.2315
16988W        W59900  26.813   4.373  24.418  0.0869  0.1092  0.1347
16989W        W59901  26.712   4.702  25.273  0.0582 -0.0257 -0.1104
16990W        W59902  28.384   5.350  25.488  0.1923 -0.1083 -0.0546
16991W        W59903  28.210   5.323  26.495 -0.0757 -0.1843  0.2214
16992W        W59904  27.261   4.972  26.547  0.1513  0.4131  0.1590
16993W        W59905  26.108   6.501  28.643  0.3013  0.0126  0.1391
16994W        W59906  27.770   3.047  24.757 -0.0703  0.4813  0.2824
16995W        W59907  27.320   7.123  26.153  0.2802  0.0913  0.1259
16996W        W59908  26.984   5.845  26.826 -0.0246 -0.0288 -0.1547
16997W        W59909  25.644   5.372  23.747  0.3321  0.0233 -0.0282
16998W        W59910  25.712   5.703  25.533 -0.1013  0.2295  0.3865
16999W        W59911  25.750   5.826  24.039  0.0783 -0.1866  0.2943
17000W        W59912  28.054   4.954  25.752  0.2890  0.2692 -0.5283
17001W        W59913  28.425   6.816  25.660 -0.3413  0.2494 -0.1450
17002W        W59914  26.126   5.469  24.055 -0.0789 -0.2074 -0.0966
17003W        W59915  26.029   6.238  26.813  0.0985  0.0716 -0.1403
17004W        W59916  28.751   4.082  24.920  0.0990 -0.3417  0.1335
17005W        W59917  28.459   4.335  24.524 -0.2303  0.1251  0.0682
17006W        W59918  26.113   3.514  25.835  0.0366  0.1123  0.4730
17007W        W59919  28.773   4.081  27.707  0.1523 -0.1317 -0.1211
17008W        W59920  29.597   5.076  22.870 -0.2380 -0.2242 -0.1399
17009W        W59921  28.413   4.927  28.080  0.2747 -0.0714  0.0084
17010W        W59922  26.650   3.078  26.625 -0.4807  0.0633 -0.2459
17011W        W59923  28.687   5.067  23.775 -0.1072 -0.2238  0.0140
17012W        W59924  25.531   5.665  26.108  0.1084  0.1680  0.1017
17013W        W59925  27.538   6.942  28.078 -0.1810 -0.0425 -0.0978
17014W        W59926  25.790   5.377  28.082 -0.0822 -0.0487  0.3483
17015W        W59927  27.949   3.497  24.709 -0.1386  0.0188  0.0692
17016W        W59928  26.379   2.068  23.726 -0.2459 -0.1553 -0.2564
17017W        W59929  26.978   5.873  26.057 -0.2139  0.0026  0.1453
17018W        W59930  29.182   6.163  24.672 -0.2441  0.1478 -0.2407
17019W        W59931  27.457   5.710  25.346  0.0051 -0.2961  0.1501
17020W        W59932  28.616   5.140  26.364 -0.1687  0.0547 -0.1386
17021W        W59933  25.243   5.749  25.675  0.0872 -0.3110  0.3696
17022W        W59934  27.993   5.214  26.914  0.1798  0.0527 -0.1302
17023W        W59935  27.390   5.013  23.943  0.2270 -0.2618 -0.0774
17024W        W59936  25.513   6.182  25.613  0.0370  0.0502  0.1960
17025W        W59937  26.511   3.778  25.991  0.2881  0.1406  0.2484
17026W        W59938  28.598   6.309  25.016  0.0199 -0.1995 -0.2265
17027W        W59939  27.930   4.241  26.232  0.0142  0.0587 -0.0605
17028W        W59940  26.921   4.923  28.059  0.1348 -0.1659 -0.2172
17029W        W59941  28.187   5.704  26.827 -0.0423  0.0253 -0.0314
17030W        W59942  27.243   3.589  28.151  0.1387 -0.2006 -0.0005
17031W        W59943  25.596   4.412  27.936  0.0236 -0.2525 -0.0703
17032W        W59944  28.706   7.683  26.649 -0.1948 -0.1354  0.1751
17033W        W59945  28.111   4.130  25.251 -0.0054  0.0450  0.0654
17034W        W59946  28.277   4.447  27.622 -0.1679 -0.0617  0.0680
17035W        W59947  30.667   5.938  27.782 -0.0104 -0.1297 -0.0954
17036W        W59948  27.315   3.040  24.446  0.0512  0.1307 -0.2968
17037W        W59949  25.951   4.947  25.408  0.0385 -0.1937  0.0142
17038W        W59950  28.874   6.241  26.382 -0.0879 -0.1277 -0.1314
17039W        W59951  26.289   2.868  24.544 -0.0134  0.0792  0.1566
17040W        W59952  27.838   5.914  28.192 -0.0064 -0.2130  0.1046
17041W        W59953  27.874   6.022  25.124  0.1095  0.1340  0.3969
17042W        W59954  28.586   6.795  25.053  0.1999  0.0247  0.3293
17043W        W59955  28.429   5.823  25.254 -0.3692  0.2509  0.1785
17044W        W59956  24.795   3.713  25.465  0.1433 -0.2886 -0.3786
17045W        W59957  25.579   6.600  26.438 -0.1110 -0.0974 -0.2263
17046W        W59958  25.858   4.509  23.907 -0.0178  0.0671 -0.4515
17047W        W59959  26.844   5.199  24.783  0.1476 -0.2009 -0.2151
17048W        W59960  28.090   6.541  26.151 -0.0909  0.1188 -0.1131
17049W        W59961  28.616   6.016  27.097  0.0792  0.0948  0.4024
17050W        W59962  26.473   3.038  24.116 -0.1244 -0.2129 -0.0849
17051W        W59963  28.187   5.327  27.367 -0.0440 -0.2216 -0.0292
17052W        W59964  25.018   6.099  25.299 -0.4019  0.3598 -0.0370
17053W        W59965  27.812   3.859  26.610 -0.4958 -0.3802 -0.1867
17054W        W59966  27.295   5.438  26.691 -0.2054  0.2448  0.2702
17055W        W59967  25.810   6.607  25.491 -0.0416 -0.1476  0.1172
17056W        W59968  26.039   6.248  24.239  0.0588  0.2026  0.0293
17057W        W59969  27.399   4.141  26.455  0.4474  0.1035  0.0725
17058W        W59970  27.341   4.853  26.077 -0.2380 -0.1182  0.0801
17059W        W59971  26.584   6.076  25.055 -0.2245 -0.0689 -0.2146
17060W        W59972  26.972   4.804  26.976  0.1638  0.0174 -0.1032
17061W        W59973  27.760   7.723  27.837  0.2052  0.0895  0.1891
17062W        W59974  27.284   5.004  24.730 -0.1699 -0.0173 -0.0945
17063W        W59975  28.453   6.173  26.147  0.0887 -0.1172 -0.2078
17064W        W59976  28.642   4.964  25.400  0.1178  0.1541  0.0465
17065W        W59977  26.972   7.044  26.704 -0.2485 -0.1350 -0.0894
17066W        W59978  25.381   5.482  25.213 -0.0350  0.1421 -0.2547
17067W        W59979  26.836   6.100  28.291  0.1985  0.0679  0.0800
17068W        W59980  26.781   4.187  25.831 -0.1301  0.0758  0.0242
17069W        W59981  26.374   3.297  24.886  0.3867  0.4094  0.1361
17070W        W59982  26.440   5.937  25.502 -0.1966 -0.4451 -0.1041
17071W        W59983  25.563   7.187  27.855 -0.3670 -0.2776 -0.2042
17072W        W59984  24.980   5.855  26.169  0.1088 -0.0826 -0.1495
17073W        W59985  26.817   7.651  25.426  0.0494  0.0115 -0.3381
17074W        W59986  29.434   6.677  24.231  0.2309 -0.1319 -0.1349
17075W        W59987  28.239   6.212  23.596 -0.1488 -0.1462  0.0666
17076W        W59988  27.623   6.757  26.187 -0.1739  0.0639 -0.1688
17077W        W59989  26.675   3.829  23.621  0.2570 -0.1969  0.1910
17078W        W59990  27.234   6.608  25.751 -0.1781 -0.1083 -0.0243
17079W        W59991  25.820   6.628  24.972  0.1423  0.4032  0.0281
17080W        W59992  26.664   6.164  23.272 -0.2510 -0.1376  0.1481
17081W        W59993  25.754   7.714  25.012 -0.0485 -0.2315  0.1419
17082W        W59994  29.642   6.618  27.160  0.2642  0.0745 -0.1510
17083W        W59995  28.720   3.168  24.136 -0.0588 -0.0225  0.4224
17084W        W59996  28.835   4.531  25.250 -0.0872  0.1850 -0.2189
17085W        W59997  30.606   5.138  24.116 -0.1393  0.0767 -0.0815
17086W        W59998  27.496   7.010  26.627 -0.0716 -0.2344 -0.0605
17087W        W59999  26.707   5.131  25.576 -0.2451  0.0385 -0.4156
17088W        W60000  26.109   3.456  23.130 -0.0598  0.3395 -0.0954
17089W        W60001  28.116   5.646  27.871 -0.1739 -0.2637  0.1526
17090W        W60002  29.805   4.596  28.046 -0.0949  0.3031  0.1554
17091W        W60003  25.092   7.046  26.443  0.2505 -0.2473  0.1297
17092W        W60004  27.803   7.961  23.950 -0.0176  0.2961  0.1116
17093W        W60005  26.318   6.805  24.459 -0.1565 -0.3682  0.0137
17094W        W60006  26.565   4.346  24.869 -0.3353 -0.0022 -0.2257
17095W        W60007  28.987   4.605  27.382 -0.1791  0.2683  0.1810
17096W        W60008  26.024   4.944  24.098  0.3095 -0.0356  0.0439
17097W        W60009  27.602   4.741  25.699 -0.1610  0.0615  0.6188
17098W        W60010  26.825   6.257  25.566  0.1199  0.0259 -0.1329
17099W        W60011  27.616   5.745  26.280 -0.1069  0.0041  0.2473
17100W        W60012  26.674   6.535  26.400 -0.0811  0.0101  0.0620
17101W        W60013  25.499   4.858  24.023  0.0409 -0.2008  0.1232
17102W        W60014  29.029   5.378  26.757  0.0084  0.0786 -0.3420
17103W        W60015  26.550   4.187  26.300  0.2087 -0.0454  0.2721
17104W        W60016  27.467   3.554  26.309 -0.2750  0.1400 -0.1494
17105W        W60017  25.532   5.281  25.764 -0.0423 -0.0670 -0.0631
17106W        W60018  28.196   5.020  25.206 -0.0596  0.0775 -0.0282
17107W        W60019  26.924   7.051  27.719  0.2127 -0.0540 -0.0754
17108W        W60020  26.860   5.527  26.453  0.0416  0.0302  0.3229
17109W        W60021  27.787   4.556  23.940  0.0820 -0.3651 -0.1846
17110W        W60022  29.167   6.508  25.701 -0.0779  0.3845  0.3192
17111W        W60023  27.083   5.433  24.315 -0.0810  0.5254  0.0894
17112W        W60024  27.762   7.396  26.895 -0.0008  0.2882  0.0668
17113W        W60025  26.927   3.504  24.892  0.0306 -0.0449  0.0589
17114W        W60026  28.382   4.471  25.014 -0.0653  0.1095  0.1644
17115W        W60027  26.339   6.425  24.759 -0.1866  0.1272  0.1600
17116W        W60028  27.221   5.699  27.277  0.0702  0.0308  0.1162
17117W        W60029  27.511   8.188  27.950  0.1224  0.0474  0.0995
17118W        W60030  25.535   3.406  24.454 -0.1987 -0.0691 -0.0092
17119W        W60031  30.813   5.607  23.392  0.0593 -0.1498  0.1103
17120W        W60032  28.630   5.613  26.615  0.0892 -0.2930 -0.1711
17121W        W60033  26.717   7.605  23.194  0.0954 -0.2105 -0.0224
17122W        W60034  29.206   5.395  23.288  0.2841  0.1196 -0.0114
17123W        W60035  29.636   6.733  26.125 -0.0383  0.2640 -0.2161
17124W        W60036  26.268   5.421  25.450  0.0748 -0.0184 -0.1821
17125W        W60037  28.568   7.670  27.432 -0.0655 -0.2885  0.1496
17126W        W60038  27.672   5.310  25.818 -0.3473 -0.1370  0.6163
17127W        W60039  26.962   1.995  25.395 -0.2826  0.0213  0.0902
17128W        W60040  26.419   5.256  26.333  0.0848 -0.0354 -0.0824
17129W        W60041  26.857   6.579  25.041 -0.1783 -0.0308 -0.0894
17130W        W60042  27.337   4.368  25.769 -0.0092 -0.0052 -0.1518
17131W        W60043  27.700   5.265  27.364 -0.1602  0.3321 -0.0796
17132W        W60044  27.178   7.015  24.225 -0.1524  0.1359 -0.0059
17133W        W60045  29.798   2.645  27.437  0.2306 -0.1285 -0.1577
17134W        W60046  27.342   6.751  27.632 -0.0258  0.2578 -0.3659
17135W        W60047  27.365   6.506  29.062 -0.0382 -0.1590  0.0572
17136W        W60048  26.578   6.362  24.240  0.1496 -0.0290 -0.1863
17137W        W60049  27.054   5.456  27.668  0.0856 -0.3514  0.3922
17138W        W60050  26.679   5.573  25.062 -0.0138  0.2892 -0.0175
17139W        W60051  28.016   7.055  25.775  0.0969  0.0640  0.8412
17140W        W60052  27.235   7.579  25.884 -0.0277 -0.0530  0.1399
17141W        W60053  28.121   2.563  24.341  0.1836 -0.1817 -0.1786
17142W        W60054  28.818   6.096  24.345 -0.2364 -0.1028  0.0872
17143W        W60055  27.813   3.779  25.537  0.4738 -0.0296  0.0959
17144W        W60056  28.651   4.119  25.418  0.0267  0.1230  0.1779
17145W        W60057  28.847   3.150  25.155  0.0168 -0.0625 -0.3541
17146W        W60058  27.344   6.796  27.071 -0.1232 -0.1471  0.0173
17147W        W60059  25.276   4.666  23.148 -0.2001  0.3339 -0.0952
17148W        W60060  27.491   8.257  24.167 -0.1616 -0.2283 -0.0260
17149W        W60061  26.495   6.729  25.882 -0.1569  0.1482 -0.0827
17150W        W60062  26.862   3.520  26.755  0.1140  0.1257 -0.1715
17151W        W60063  25.191   5.949  27.653 -0.0220 -0.1324 -0.0087
17152W        W60064  26.039   5.472  26.590 -0.3003 -0.1056 -0.0428
17153W        W60065  27.419   2.966  25.867 -0.0703  0.0461 -0.1191
17154W        W60066  28.352   5.761  24.306  0.0657 -0.0192 -0.2486
17155W        W60067  25.695   2.975  24.688  0.1102  0.1471 -0.1410
17156W        W60068  26.609   4.154  25.335  0.0784 -0.2381  0.0962
17157W        W60069  29.423   5.325  25.661 -0.2296 -0.0061 -0.1410
17158W        W60070  28.347   7.082  24.181 -0.0649  0.4133 -0.0865
17159W        W60071  27.877   3.007  24.246  0.0906  0.3360  0.0961
17160W        W60072  29.902   6.176  27.377 -0.2291 -0.0785 -0.1913
17161W        W60073  25.747   5.776  25.021 -0.3580 -0.2168  0.0711
17162W        W60074  27.478   6.516  26.739 -0.5412 -0.1463  0.2701
17163W        W60075  26.603   4.499  26.724  0.0523 -0.2091  0.0654
17164W        W60076  26.138   3.755  24.758  0.2110 -0.2727 -0.1630
17165W        W60077  27.762   5.170  26.359 -0.3563 -0.0496 -0.0367
17166W        W60078  27.550   5.267  24.381 -0.1125 -0.1514 -0.0982
17167W        W60079  29.524   7.108  24.869  0.0848 -0.2312 -0.0480
17168W        W60080  27.259   6.042  26.452  0.0471 -0.1340  0.1234
17169W        W60081  26.943   6.528  27.969 -0.0784  0.2047  0.0701
17170W        W60082  25.649   4.131  26.968  0.0175 -0.1619 -0.2372
17171W        W60083  27.395   4.592  24.457  0.1037 -0.1529  0.1721
17172W        W60084  28.524   6.582  28.955  0.0254  0.1342  0.0543
17173W        W60085  29.441   6.549  24.726 -0.2531 -0.4019 -0.0103
17174W        W60086  28.790   4.636  25.758  0.0337 -0.0217  0.0424
17175W        W60087  28.734   4.932  24.335  0.0849 -0.0967 -0.0275
17176W        W60088  26.115   4.009  27.392 -0.0075  0.1124  0.1897
17177W        W60089  26.970   4.746  27.527  0.0579  0.2346  0.0540
17178W        W60090  29.964   7.421  26.654  0.0949 -0.2111 -0.0905
17179W        W60091  26.596   3.433  24.446  0.2295  0.2004  0.1245
17180W        W60092  26.265   4.370  23.110  0.0798  0.3016 -0.1748
17181W        W60093  27.881   5.929  24.584  0.1315 -0.0202  0.1831
17182W        W60094  26.331   5.135  25.853 -0.1432  0.2039  0.2953
17183W        W60095  27.236   3.667  25.365 -0.0468 -0.1223 -0.3949
17184W        W60096  27.862   6.157  26.904 -0.1046 -0.2062  0.1133
17185W        W60097  27.866   5.721  25.602 -0.4136 -0.1108 -0.0049
17186W        W60098  27.814   6.931  27.113  0.1013 -0.1264 -0.1888
17187W        W60099  27.079   3.537  23.455 -0.1976 -0.0907  0.1014
17188W        W60100  30.510   4.623  21.792 -0.0608 -0.2318  0.1040
17189W        W60101  26.753   7.484  26.764  0.1069  0.0802 -0.1750
17190W        W60102  30.800   6.458  27.634 -0.0694 -0.1505  0.2687
17191W        W60103  27.415   6.272  26.052 -0.2678 -0.3780 -0.1407
17192W        W60104  28.526   5.194  26.890  0.0891  0.0826  0.2778
17193W        W60105  26.255   3.009  26.146  0.2710 -0.1484 -0.2787
17194W        W60106  27.610   4.065  23.997 -0.3306 -0.4345  0.1838
17195W        W60107  26.776   6.753  25.485  0.1395 -0.0877 -0.1146
17196W        W60108  28.229   3.531  26.502  0.0750 -0.1964 -0.0587
17197W        W60109  26.203   4.118  25.757  0.2314 -0.0070  0.0935
17198W        W60110  28.242   2.068  24.381  0.0975  0.0114  0.2218
17199W        W60111  26.483   7.080  26.480  0.0870  0.1777 -0.2868
17200W        W60112  26.990   7.502  26.283 -0.1380 -0.0687  0.1319
17201W        W60113  26.445   4.957  30.278  0.1788 -0.2262 -0.0551
17202W        W60114  27.603   6.197  28.578  0.1429 -0.0331 -0.1163
17203W        W60115  28.443   5.448  28.196  0.2534  0.2740  0.2785
17204W        W60116  29.128   5.560  27.649 -0.0453  0.0268 -0.1962
17205W        W60117  26.465   3.449  28.012 -0.0201  0.0451 -0.0465
17206W        W60118  27.960   7.799  29.130  0.1815 -0.1032 -0.4702
17207W        W60119  25.311   3.993  30.236 -0.2209 -0.3154  0.3043
17208W        W60120  27.170   5.400  29.006 -0.1886  0.1495 -0.1316
17209W        W60121  27.811   6.166  29.068 -0.0935 -0.1575 -0.2398
17210W        W60122  28.786   5.547  27.177 -0.0671  0.2579  0.0979
17211W        W60123  26.915   2.987  30.309  0.0767 -0.1346  0.1560
17212W        W60124  27.006   5.780  30.700  0.0478  0.2423 -0.1135
17213W        W60125  26.272   3.820  27.784  0.1319 -0.1748 -0.0702
17214W        W60126  25.359   3.826  29.453 -0.1348 -0.1196 -0.0863
17215W        W60127  28.188   5.505  30.802 -0.3328 -0.1776  0.0286
17216W        W60128  25.460   6.363  29.026  0.1075 -0.0726  0.0779
17217W        W60129  25.977   3.002  29.825  0.1089 -0.0842 -0.0084
17218W        W60130  27.133   4.124  28.806 -0.0100  0.6917  0.1967
17219W        W60131  28.134   6.310  28.720  0.3222 -0.1001  0.0093
17220W        W60132  26.525   4.500  30.514  0.2565 -0.0225 -0.1208
17221W        W60133  29.522   3.291  30.697 -0.1541  0.0121 -0.0637
17222W        W60134  26.094   6.044  28.312 -0.0400  0.1718 -0.0086
17223W        W60135  26.043   6.370  27.293 -0.0798 -0.1055  0.1098
17224W        W60136  25.279   6.022  29.469  0.0628  0.0846  0.3893
17225W        W60137  27.454   4.801  30.398 -0.0284 -0.0119  0.1367
17226W        W60138  27.553   4.122  29.687  0.2090  0.0265 -0.0371
17227W        W60139  29.463   5.771  28.030  0.0973 -0.0454 -0.0244
17228W        W60140  28.065   7.246  29.558  0.0683 -0.0308 -0.0159
17229W        W60141  27.396   7.889  30.045 -0.1002  0.2987  0.2249
17230W        W60142  26.854   4.788  30.956 -0.0223 -0.1200 -0.1839
17231W        W60143  26.554   5.827  30.423 -0.0870 -0.2167  0.1600
17232W        W60144  25.701   7.192  29.214  0.2016 -0.2166 -0.3235
17233W        W60145  27.790   7.618  30.100 -0.0134 -0.0216 -0.2932
17234W        W60146  29.914   5.697  28.741  0.0285  0.1881 -0.0057
17235W        W60147  27.418   6.789  31.698 -0.0400 -0.3286 -0.1442
17236W        W60148  27.732   6.833  31.284  0.1662 -0.0210 -0.1720
17237W        W60149  25.395   5.855  28.894  0.0115 -0.1570  0.0163
17238W        W60150  27.944   7.531  30.614  0.2387  0.1203  0.0889
17239W        W60151  25.614   5.729  30.882  0.2009  0.1065 -0.0497
17240W        W60152  27.043   5.946  31.194  0.0731 -0.1339 -0.1762
17241W        W60153  27.393   6.933  29.425  0.4765  0.0924 -0.3469
17242W        W60154  26.503   6.129  28.696  0.2107  0.0233 -0.1477
17243W        W60155  27.384   6.832  29.990 -0.1601  0.0361  0.1926
17244W        W60156  26.842   7.164  31.971 -0.0192 -0.1632  0.0552
17245W        W60157  26.700   6.205  30.917  0.1683 -0.0428 -0.1378
17246W        W60158  28.012   3.179  30.580 -0.0264  0.2223 -0.2687
17247W        W60159  25.506   4.856  28.647 -0.3978  0.2565 -0.0604
17248W        W60160  29.062   5.543  28.346 -0.2374  0.1656 -0.0348
17249W        W60161  26.822   4.169  28.428  0.0793  0.0928 -0.0940
17250W        W60162  29.733   3.286  28.653 -0.1635  0.0567  0.1591
17251W        W60163  26.945   3.020  29.664 -0.1029 -0.2522  0.1198
17252W        W60164  27.467   7.520  29.399  0.0564  0.2573 -0.2635
17253W        W60165  26.155   3.907  29.585  0.0631 -0.0139  0.0954
17254W        W60166  28.961   7.614  31.364  0.2387  0.1352 -0.0877
17255W        W60167  26.963   5.502  28.585  0.0984  0.3274  0.4698
17256W        W60168  28.951   4.435  29.862 -0.3787  0.2584 -0.0600
17257W        W60169  26.100   6.552  30.174  0.4001  0.3430  0.1908
17258W        W60170  25.798   4.767  29.620  0.0258  0.1358  0.1723
17259W        W60171  27.894   6.663  27.696 -0.0561 -0.0732 -0.1044
17260W        W60172  29.154   6.055  28.341 -0.0615  0.2946 -0.2175
17261W        W60173  27.717   7.506  28.820  0.1756 -0.0249  0.1425
17262W        W60174  26.349   4.305  28.009 -0.0945 -0.0241 -0.0750
17263W        W60175  27.002   4.402  30.561  0.0662 -0.1935  0.0149
17264W        W60176  25.817   4.864  30.745  0.1264 -0.1060 -0.1673
17265W        W60177  26.321   3.226  26.925 -0.1511  0.4373  0.0381
17266W        W60178  30.079   7.226  31.352  0.0192  0.1343 -0.0468
17267W        W60179  25.085   6.693  31.189  0.0411 -0.2555  0.0152
17268W        W60180  28.297   4.677  29.355  0.1197 -0.1341  0.2370
17269W        W60181  27.143   5.148  30.016  0.0491  0.1097 -0.1445
17270W        W60182  27.810   7.779  29.593  0.4342 -0.4578 -0.0237
17271W        W60183  29.334   4.985  28.493 -0.0488  0.0915 -0.3707
17272W        W60184  29.240   3.347  28.531  0.1142 -0.0499 -0.2219
17273W        W60185  28.302   3.983  30.548  0.1291  0.0223 -0.2533
17274W        W60186  27.904   3.943  27.138 -0.2866  0.0788 -0.0158
17275W        W60187  26.415   5.676  28.945  0.2397  0.0250  0.4345
17276W        W60188  28.740   7.204  31.154 -0.1589  0.2189  0.0816
17277W        W60189  28.505   5.896  27.622 -0.2143  0.0498  0.1215
17278W        W60190  26.649   7.228  30.069  0.0462 -0.0154 -0.1288
17279W        W60191  27.468   3.707  29.928  0.0282 -0.0972 -0.0641
17280W        W60192  27.035   7.093  30.640 -0.2577 -0.1307  0.3123
17281W        W60193  26.793   6.942  28.198 -0.1784 -0.1632  0.1340
17282W        W60194  26.021   5.947  30.726 -0.2335 -0.1236 -0.1814
17283W        W60195  25.585   4.919  28.121 -0.3635 -0.0760  0.0768
17284W        W60196  25.115   4.857  30.367  0.2001 -0.0123  0.1966
17285W        W60197  27.042   6.058  29.885  0.4819 -0.0229  0.2966
17286W        W60198  28.611   3.850  28.705  0.0258 -0.1507 -0.3073
17287W        W60199  26.996   4.764   0.084  0.0887 -0.2377  0.1170
17288W        W60200  28.149   4.159  29.245 -0.3446 -0.1715 -0.2878
17289W        W60201  25.905   5.629  29.124  0.0039 -0.1908  0.0279
17290W        W60202  28.234   6.982  26.825 -0.2052  0.1183  0.0996
17291W        W60203  29.512   4.412  29.399  0.1218 -0.4882  0.0472
17292W        W60204  27.864   6.633  28.438 -0.5441 -0.0836 -0.1494
17293W        W60205  24.454   5.633  30.661  0.1366  0.0371 -0.1934
17294W        W60206  26.827   3.330  29.125 -0.3578 -0.2150  0.2224
17295W        W60207  26.894   4.286  31.895  0.1436 -0.3272 -0.1252
17296W        W60208  26.566   4.931  29.110  0.2727  0.4890  0.8001
17297W        W60209  28.841   5.881  31.286 -0.3195  0.2749 -0.0911
17298W        W60210  26.037   2.871  28.936  0.1185 -0.0637  0.0608
17299W        W60211  27.322   2.803  29.829 -0.0177  0.3046  0.0925
17300W        W60212  27.467   4.371  29.232  0.1376 -0.0192  0.3106
17301W        W60213  26.378   4.706  28.255  0.0371 -0.0392  0.1123
17302W        W60214  28.584   5.404  31.042  0.1855 -0.5013  0.0443
17303W        W60215  27.525   8.067  29.112 -0.0137  0.4673  0.0539
17304W        W60216  28.263   6.898  30.363  0.4002 -0.4569 -0.2288
17305W        W60217  28.717   6.227  28.619  0.2780 -0.1524 -0.0474
17306W        W60218  26.103   5.234  28.927  0.1199 -0.0900 -0.0726
17307W        W60219  26.920   5.950  27.667  0.1228  0.0592  0.1319
17308W        W60220  26.236   7.828  29.551 -0.0717  0.2682  0.1738
17309W        W60221  26.538   6.521  28.982 -0.0400 -0.2057 -0.0173
17310W        W60222  27.033   3.650  27.221  0.2554  0.1316 -0.2101
17311W        W60223  29.434   7.601  30.597 -0.0593 -0.0983  0.3572
17312W        W60224  27.456   6.093  29.465  0.4301  0.2270 -0.1362
17313W        W60225  25.376   4.486  29.369 -0.1928  0.1895 -0.0270
17314W        W60226  27.298   3.977  31.882 -0.2276 -0.0160  0.2915
17315W        W60227  28.492   5.361  29.985  0.1643  0.1887 -0.0451
17316W        W60228  27.355   4.691  29.624 -0.0030  0.0275  0.3690
17317W        W60229  27.155   3.691  28.620  0.1197 -0.2147  0.3626
17318W        W60230  28.384   7.279  28.512  0.1623 -0.2173  0.2413
17319W        W60231  25.282   8.608  28.494  0.0919  0.1525 -0.0093
17320W        W60232  25.273   4.788  29.770 -0.0144  0.0867 -0.2096
17321W        W60233  27.902   6.831  29.761 -0.2505 -0.1037  0.0741
17322W        W60234  30.307   4.398  29.623 -0.0122  0.0795 -0.1432
17323W        W60235  26.640   5.488  31.398  0.0784 -0.2187 -0.1759
17324W        W60236  27.254   6.791  31.135 -0.0484  0.0034  0.0226
17325W        W60237  23.996   4.900  28.051  0.2319 -0.1842 -0.1690
17326W        W60238  26.599   7.371  30.625 -0.0188 -0.1026  0.1692
17327W        W60239  27.825   4.046  30.110  0.2596 -0.0663  0.2806
17328W        W60240  27.808   3.321  26.671  0.0121  0.1355  0.2629
17329W        W60241  27.986   7.010  30.771  0.0227  0.2959 -0.1398
17330W        W60242  30.286   6.948  28.116  0.0058 -0.0212 -0.0128
17331W        W60243  28.022   6.113  27.785 -0.0670 -0.1528  0.1628
17332W        W60244  27.387   4.180  26.994  0.1038 -0.1030  0.0150
17333W        W60245  26.397   5.475   0.161  0.1154  0.0138 -0.0480
17334W        W60246  27.018   3.852  29.249  0.1678 -0.0506 -0.3924
17335W        W60247  27.265   5.333  30.525  0.0990 -0.0651 -0.3385
17336W        W60248  27.426   4.450  27.957  0.3049 -0.0884  0.0816
17337W        W60249  28.095   6.471  30.103  0.1325  0.0184  0.2687
17338W        W60250  25.659   6.070  29.859 -0.0814  0.0380  0.0646
17339W        W60251  26.923   6.590  30.669 -0.2419  0.1221  0.0790
17340W        W60252  28.746   7.579  29.805 -0.1289  0.0882  0.1431
17341W        W60253  27.647   3.084  31.136 -0.2121  0.4096 -0.0954
17342W        W60254  27.331   6.186  27.563  0.1868  0.3576 -0.1910
17343W        W60255  27.713   4.251  27.451 -0.0482  0.3488  0.2222
17344W        W60256  26.297   6.877  27.878  0.0171 -0.1918 -0.0982
17345W        W60257  28.695   2.951  29.752  0.3399 -0.0660  0.0866
17346W        W60258  27.662   3.680  28.461 -0.2437 -0.1540 -0.0977
17347W        W60259  27.003   3.892  30.619 -0.2252  0.2750  0.1867
17348W        W60260  27.960   4.826  30.406  0.0045  0.1059 -0.1211
17349W        W60261  28.619   5.396  27.715  0.4612  0.1464  0.0714
17350W        W60262  28.621   6.440   0.022 -0.3315  0.2410  0.0930
17351W        W60263  26.444   5.454  27.683  0.2536 -0.1004  0.1249
17352W        W60264  26.350   4.870  30.760  0.0519  0.3234 -0.0854
17353W        W60265  26.163   4.170  31.768  0.4753 -0.1689  0.0498
17354W        W60266  27.070   7.576  30.373 -0.3310  0.3163  0.1164
17355W        W60267  28.431   7.264  30.753  0.1004 -0.1708 -0.0512
17356W        W60268  28.436   4.708  28.838  0.0577  0.0156  0.1203
17357W        W60269  27.176   5.032  31.646  0.1326  0.0767  0.0759
17358W        W60270  28.564   5.085  29.155  0.2678  0.0010  0.3720
17359W        W60271  26.490   5.690  28.396 -0.2865 -0.0275  0.2289
17360W        W60272  26.840   5.566  28.054 -0.3483 -0.1447 -0.1996
17361W        W60273  26.471   3.564  27.365  0.3493  0.1056  0.1117
17362W        W60274  26.598   5.368  30.590 -0.3148  0.1196 -0.1492
17363W        W60275  25.507   6.366  27.562 -0.1688 -0.0031  0.0537
17364W        W60276  28.797   6.353  31.009  0.1409 -0.1522  0.0034
17365W        W60277  26.029   6.582  29.154  0.0763 -0.1457  0.1458
17366W        W60278  27.677   3.034  30.235 -0.0375  0.0765 -0.3958
17367W        W60279  24.241   7.746  29.864 -0.3871 -0.0053 -0.0509
17368W        W60280  27.451   4.508  28.707 -0.1849 -0.1650  0.2334
17369W        W60281  25.702   4.046  27.615 -0.0205 -0.4282 -0.1255
17370W        W60282  28.604   4.255  29.029 -0.2008 -0.0276  0.1979
17371W        W60283  28.050   7.402  27.328  0.0249 -0.3286 -0.0293
17372W        W60284  26.207   3.222  28.368  0.4266 -0.1147 -0.2182
17373W        W60285  26.956   3.169  28.212  0.1108  0.0991 -0.1356
17374W        W60286  26.485   6.388  30.454 -0.0160 -0.0511 -0.2071
17375W        W60287  26.951   5.646  30.222 -0.2821 -0.0864 -0.0060
17376W        W60288  28.754   4.289  28.541 -0.2804 -0.0387 -0.3026
17377W        W60289  29.061   6.072  28.927 -0.0563  0.0994 -0.1139
17378W        W60290  26.520   5.099  29.733 -0.0324 -0.0357  0.1397
17379W        W60291  26.236   4.844  26.803 -0.2706 -0.0857  0.3191
17380W        W60292  28.137   5.806  29.302  0.2309  0.1364  0.4310
17381W        W60293  25.613   5.353  28.846  0.0616 -0.1767 -0.2718
17382W        W60294  26.065   6.428  29.682  0.1943  0.0410  0.4230
17383W        W60295  26.785   7.072  31.098  0.0744 -0.1194  0.0628
17384W        W60296  25.679   5.837  27.923 -0.1504  0.1330  0.1608
17385W        W60297  27.495   5.175  29.483 -0.0124  0.0221  0.0867
17386W        W60298  26.656   4.598  29.499 -0.0973 -0.0780  0.0978
17387W        W60299  29.294   5.965  31.021 -0.0591 -0.1581  0.1774
17388W        W60300  27.662   5.212  30.160  0.1442 -0.0650  0.0012
17389W        W60301  26.493   4.710  27.761  0.2206  0.2692  0.2776
17390W        W60302  28.130   4.896  28.477  0.3087 -0.2323  0.0273
17391W        W60303  29.327   5.357  28.851 -0.1426 -0.0303 -0.1397
17392W        W60304  28.141   5.322  30.314  0.0296 -0.1895  0.2153
17393W        W60305  25.919   6.701  31.629  0.0147  0.2694  0.0785
17394W        W60306  26.871   2.581  30.021  0.5331 -0.0516  0.3728
17395W        W60307  29.436   7.261  28.030 -0.0033 -0.2830 -0.4481
17396W        W60308  26.917   5.305  30.956 -0.1319 -0.4998  0.2236
17397W        W60309  27.109   4.588  28.385  0.2169 -0.2336 -0.0035
17398W        W60310  26.285   5.452  29.496 -0.1870 -0.0375  0.1456
17399W        W60311  27.261   4.059  28.282 -0.1125  0.1027  0.0212
17400W        W60312  27.164   4.014  27.711 -0.1874 -0.5086 -0.1450
17401W        W60313  27.004   6.171  30.349  0.0973 -0.2117  0.0332
17402W        W60314  25.930   4.051  28.081 -0.2694 -0.2679  0.0154
17403W        W60315  25.491   5.299  29.762 -0.3255  0.0654 -0.0769
17404W        W60316  27.935   4.578  29.007  0.0239  0.1137 -0.3007
17405W        W60317  27.620   6.380  28.027  0.1492  0.3469 -0.2601
17406W        W60318  26.981   3.842  29.754 -0.2099 -0.2005  0.0202
17407W        W60319  27.850   3.775  30.611  0.0423  0.1824  0.1517
17408W        W60320  29.458   4.992  29.195  0.0702  0.2396  0.0262
17409W        W60321  27.527   2.627  30.827  0.0105 -0.2329  0.0367
17410W        W60322  26.542   2.226  29.469  0.1906 -0.1735 -0.3095
17411W        W60323  27.906   5.821  28.750 -0.0177  0.2910  0.1097
17412W        W60324  25.322   3.460  30.890  0.1015 -0.0679 -0.1017
17413W        W60325  26.399   6.761  30.817  0.1554 -0.1405  0.0474
17414W        W60326  26.590   6.059  31.401  0.1181  0.1161  0.0103
17415W        W60327  27.700   4.543  30.033 -0.3434 -0.0897 -0.1206
17416W        W60328  26.841   3.153  27.150  0.2331  0.0800  0.0005
17417W        W60329  28.032   5.007  29.886 -0.2109 -0.2822  0.2042
17418W        W60330  27.535   6.291  30.044  0.2075  0.1054  0.2002
17419W        W60331  27.424   5.893  27.980  0.2699  0.1453 -0.0744
17420W        W60332  29.282   6.406  29.194  0.0782  0.0732 -0.0862
17421W        W60333  26.770   4.768  29.970 -0.3167 -0.2342 -0.1413
17422W        W60334  27.308   4.115  30.150  0.2799 -0.2892 -0.1425
17423W        W60335  28.132   6.349  27.342 -0.0337  0.2667 -0.0437
17424W        W60336  27.008   4.984  29.432 -0.1851  0.3425 -0.0554
17425W        W60337  26.959   3.384  30.638 -0.0139  0.0645 -0.0119
17426W        W60338  28.744   5.812  30.775  0.1157  0.3044 -0.1982
17427W        W60339  27.660   3.935  27.945 -0.0998 -0.0004  0.0324
17428W        W60340  27.232   3.269  30.070  0.1747 -0.1606 -0.1255
17429W        W60341  28.221   6.289  29.270 -0.1005 -0.2107 -0.1470
17430W        W60342  26.368   6.557   0.373 -0.2158  0.0230 -0.2459
17431W        W60343  26.511   4.469  31.450 -0.1687 -0.3227 -0.2288
17432W        W60344  28.788   8.752  30.689  0.5064 -0.0575 -0.1873
17433W        W60345  30.119   5.358  27.471  0.3381 -0.1665  0.0839
17434W        W60346  28.573   3.515  29.812 -0.5211  0.1024  0.1641
17435W        W60347  29.050   4.518  28.871 -0.1696  0.1363 -0.0820
17436W        W60348  27.426   4.960  27.706 -0.1062  0.0528  0.2967
17437W        W60349  25.549   5.334  30.476  0.0366 -0.0682  0.0098
17438W        W60350  28.356   5.996  31.132 -0.1044  0.0954 -0.3084
17439W        W60351  26.591   6.169  26.923  0.2306  0.0565  0.1409
17440W        W60352  27.255   3.006  30.781  0.1625  0.0950  0.0371
17441W        W60353  27.962   6.167  29.645  0.1325 -0.0146 -0.4413
17442W        W60354  27.685   6.569  29.413  0.3723  0.0343 -0.0194
17443W        W60355  29.635   5.945  29.087  0.2143  0.1315  0.0862
17444W        W60356  26.117   4.347  29.332 -0.1300  0.1088 -0.1877
17445W        W60357  26.142   7.816  31.622 -0.0297 -0.0181 -0.1182
17446W        W60358  27.673   5.834  27.539 -0.0741  0.1873 -0.1124
17447W        W60359  28.933   6.551  28.231  0.0717  0.0015 -0.1018
17448W        W60360  28.202   5.854  30.449 -0.0051  0.0066  0.1575
17449W        W60361  29.414   5.588  31.711 -0.2272  0.1410  0.3336
17450W        W60362  27.522   3.796  27.415 -0.1439  0.1214 -0.0732
17451W        W60363  28.467   4.937  30.328  0.0059  0.0321 -0.0163
17452W        W60364  26.191   4.700  28.767 -0.0502 -0.2570  0.0921
17453W        W60365  27.302   2.677  30.382  0.4179 -0.0428  0.1201
17454W        W60366  26.890   6.760  30.198 -0.2297 -0.2617 -0.4330
17455W        W60367  25.584   6.330  31.755 -0.2747 -0.1913 -0.0084
17456W        W60368  26.898   8.712  29.083 -0.1090  0.1302 -0.0122
17457W        W60369  27.846   2.735  29.873 -0.0634 -0.0432  0.0757
17458W        W60370  27.438   4.870  29.111  0.3163  0.0782  0.1014
17459W        W60371  26.091   6.046  30.287  0.0017 -0.1454  0.0919
17460W        W60372  28.227   6.347  30.736 -0.3090  0.0998  0.0474
17461W        W60373  27.519   7.020  30.795  0.0875 -0.1322 -0.2195
17462W        W60374  26.832   5.462  29.762 -0.0688 -0.0493  0.1199
17463W        W60375  27.682   6.226  31.850 -0.0811 -0.3758 -0.1729
17464W        W60376  27.658   5.583  29.203  0.1880 -0.0980 -0.1558
17465W        W60377  26.566   6.281  29.970  0.5922  0.1481  0.1687
17466W        W60378  26.350   5.234  31.084 -0.0223  0.1536 -0.1530
17467W        W60379  26.397   5.798  31.789  0.0797 -0.0194  0.0996
17468W        W60380  27.724   5.089  30.740  0.0414  0.0738 -0.0588
17469W        W60381  26.486   3.705  29.251 -0.1738  0.1059  0.0120
17470W        W60382  28.742   6.282  29.392  0.0584 -0.0443  0.1856
17471W        W60383  26.592   7.229   0.546 -0.0345  0.0070 -0.1284
17472W        W60384  25.193   5.749  30.391  0.1751  0.1410  0.1624
17473W        W60385  26.583   6.502  28.364 -0.0898 -0.0873 -0.1821
17474W        W60386  28.012   6.590  26.674  0.0036  0.2829 -0.0566
17475W        W60387  27.868   5.432  29.693 -0.2289 -0.0425  0.0941
17476W        W60388  26.907   8.097  30.011  0.0346 -0.2131  0.1366
17477W        W60389  28.133   4.048  27.873  0.0076  0.2322 -0.0225
17478W        W60390  26.181   5.912  29.767 -0.1502 -0.1779 -0.3589
17479W        W60391  26.002   6.308  27.780  0.1336 -0.3888 -0.0881
17480W        W60392  28.769   5.857  28.076 -0.1928 -0.4056  0.0769
17481W        W60393  25.806   5.640  29.604  0.0743  0.2541 -0.3391
17482W        W60394  29.329   6.506  31.214  0.0763  0.1193 -0.0915
17483W        W60395  29.578   3.385  27.141  0.1546 -0.0434 -0.0560
17484W        W60396  28.780   5.514  29.385 -0.3618  0.2116  0.2202
17485W        W60397  30.416   4.822  29.458  0.3502  0.1475 -0.1821
17486W        W60398  28.022   6.137  31.451  0.2511 -0.3575 -0.2328
17487W        W60399  28.110   3.886  28.386 -0.3477  0.0867  0.2435
17488W        W60400  26.478   2.218  26.755 -0.2207 -0.1091 -0.0063
17489W        W60401  24.662   5.876  31.301  0.0663  0.1420  0.1339
17490W        W60402  29.418   4.568  30.093  0.4546  0.1086 -0.0431
17491W        W60403  25.872   8.267  31.267  0.0043 -0.0807 -0.1140
17492W        W60404  29.978   6.629  27.544  0.0520 -0.0048 -0.0717
17493W        W60405  27.130   3.020  28.777  0.1834 -0.1084 -0.2933
17494W        W60406  27.387   5.171  28.352 -0.0365  0.0728 -0.1017
17495W        W60407  29.365   4.488  28.447  0.0481 -0.0722  0.2593
17496W        W60408  25.904   5.082  28.484  0.2736 -0.1294  0.2520
17497W        W60409  27.694   4.103  28.844 -0.2685  0.2553  0.0731
17498W        W60410  26.105   7.017  28.897  0.1178 -0.0238 -0.2024
17499W        W60411  26.410   6.959  31.496  0.1456  0.2012  0.0614
17500W        W60412  27.979   7.913  30.972  0.1057 -0.1296  0.2907
17501W        W60413  26.106   3.733  26.978  0.0552 -0.0994 -0.2869
17502W        W60414  29.506   5.049  30.038  0.2025 -0.0345 -0.0194
17503W        W60415  27.188   4.567  30.042 -0.2630 -0.0642 -0.0278
17504W        W60416  28.470   4.826  29.844  0.1173 -0.0212  0.3243
17505W        W60417  26.637   4.199  29.092  0.1601 -0.2068 -0.2006
17506W        W60418  29.857   5.097  27.844  0.1640  0.1323  0.0357
17507W        W60419  27.390   6.515  30.435  0.2410 -0.0003 -0.1943
17508W        W60420  25.205   6.129  30.044 -0.0910 -0.0295 -0.2578
17509W        W60421  27.505   5.670  28.481 -0.2104 -0.0315 -0.0517
17510W        W60422  29.650   4.998   0.903  0.2139 -0.0536 -0.0366
17511W        W60423  26.611   5.105  27.403 -0.0433  0.0768  0.1578
17512W        W60424  27.835   7.776  31.427  0.1999  0.1662  0.4400
17513W        W60425  25.878   4.305  28.786 -0.2563 -0.2735 -0.0116
17514W        W60426  27.774   5.211  28.786 -0.0668  0.0224  0.1785
17515W        W60427  26.682   4.519  28.704  0.1864 -0.1393  0.1389
17516W        W60428  27.423   4.157  30.681 -0.1568  0.3024  0.2167
17517W        W60429  29.539   6.200   0.013 -0.5331  0.1408  0.1527
17518W        W60430  24.783   3.753  28.816  0.0963  0.2143 -0.0813
17519W        W60431  30.169   5.856  27.684  0.4063  0.0232  0.0249
17520W        W60432  29.006   5.019  31.054  0.0589 -0.3621  0.3333
17521W        W60433  27.493   7.704  28.249  0.0110 -0.1356  0.0825
17522W        W60434  29.962   4.433  29.196 -0.0125 -0.0925  0.0629
17523W        W60435  26.956   6.237  29.302  0.1313 -0.0552  0.2659
17524W        W60436  25.096   5.676  29.826  0.4356  0.0712 -0.4308
17525W        W60437  27.437   7.292  30.237  0.0469 -0.2098 -0.0614
17526W        W60438  29.051   6.680  30.535 -0.3322  0.0223  0.3250
17527W        W60439  28.133   3.814  28.884  0.3678 -0.2935 -0.0616
17528W        W60440  25.725   4.805  29.123  0.2728 -0.2358 -0.4291
17529W        W60441  26.700   5.779  27.267  0.2289 -0.0754 -0.1829
17530W        W60442  28.840   4.685  29.336 -0.1305 -0.3856  0.0559
17531W        W60443  27.868   4.302  30.526  0.3004  0.1201 -0.1080
17532W        W60444  25.970   5.601  28.555 -0.0937  0.0926 -0.0555
17533W        W60445  28.367   5.144  31.434  0.0682  0.2618  0.1585
17534W        W60446  25.983   5.455  30.801  0.3232  0.2320 -0.3312
17535W        W60447  26.337   8.272   0.399  0.0815 -0.0189 -0.3046
17536W        W60448  26.190   5.857  27.418  0.2427 -0.4953  0.2380
17537W        W60449  27.301   6.168  30.811  0.1215 -0.0192 -0.0722
17538W        W60450  27.016   4.552  29.109 -0.0194  0.4357 -0.0965
17539W        W60451  27.001   4.958  28.765  0.5032 -0.3243 -0.0683
17540W        W60452  28.211   6.926  28.770 -0.1943 -0.1992  0.1968
17541W        W60453  28.300   5.259  29.530  0.1220  0.1955 -0.1092
17542W        W60454  29.114   6.566  28.684  0.0660  0.0146  0.1071
17543W        W60455  26.640   3.774  28.816  0.0189 -0.3370  0.0947
17544W        W60456  29.382   5.264  28.058 -0.1794 -0.2969 -0.0921
17545W        W60457  29.631   3.738  28.615  0.0170 -0.1643  0.1316
17546W        W60458  26.687   4.935  31.447  0.5004  0.0138 -0.0729
17547W        W60459  24.538   4.088  28.436 -0.2659  0.0024  0.2866
17548W        W60460  25.938   5.470  27.541 -0.1937  0.0591  0.2869
17549W        W60461  26.194   4.912  29.400  0.1268  0.0287  0.1288
17550W        W60462  26.546   3.900  31.909  0.0551 -0.2251  0.0744
17551W        W60463  26.231   4.128  30.046  0.0111  0.0003 -0.0524
17552W        W60464  26.235   4.596  29.782  0.0752 -0.0798 -0.1082
17553W        W60465  25.985   2.336  28.621  0.0164  0.4069 -0.0608
17554W        W60466  28.572   6.295  27.977  0.0541 -0.0351 -0.0661
17555W        W60467  26.556   4.125  29.571 -0.2122  0.2931 -0.3066
17556W        W60468  25.351   3.243  29.306 -0.2046 -0.3304 -0.2860
17557W        W60469  27.923   5.006  29.314  0.3136 -0.1955 -0.0330
17558W        W60470  28.280   7.437  27.812  0.1433  0.1312 -0.0129
17559W        W60471  27.649   3.744  29.333  0.1092 -0.2046  0.0932
17560W        W60472  29.399   8.832  30.000  0.3060  0.0308 -0.1068
17561W        W60473  25.955   4.979  26.404 -0.1976 -0.0429 -0.0199
17562W        W60474  27.442   5.665  29.848 -0.0503 -0.0740 -0.1094
17563W        W60475  27.050   4.495  31.437 -0.1745 -0.0849 -0.1643
17564W        W60476  24.641   4.843  29.023  0.1211  0.3905  0.2339
17565W        W60477  28.212   4.412  30.112  0.1368 -0.0409 -0.1430
17566W        W60478  25.999   5.215  29.870 -0.0234  0.0661 -0.1046
17567W        W60479  29.814   7.921  26.642  0.2328  0.0281  0.0828
17568W        W60480  25.684   5.005  31.689  0.3136 -0.1979  0.3681
17569W        W60481  26.209   6.404  31.227 -0.0132 -0.5133 -0.1951
17570W        W60482  26.061   2.334  30.347 -0.2300 -0.1328 -0.3565
17571W        W60483  29.036   5.003  28.992 -0.0849 -0.0421 -0.1862
17572W        W60484  26.064   5.322  30.370  0.1739 -0.0618  0.2250
17573W        W60485  28.669   5.153  28.624 -0.1035 -0.2933 -0.1196
17574W        W60486  29.911   3.888  29.500 -0.1580  0.1843  0.2438
17575W        W60487  28.912   4.713  28.387 -0.1669  0.0219 -0.0105
17576W        W60488  25.455   4.312  30.700  0.3797 -0.1054  0.0607
17577W        W60489  25.481   5.861  31.911  0.3383  0.3358  0.1436
17578W        W60490  28.768   5.878  29.770  0.0075  0.0407  0.2807
17579W        W60491  27.909   4.534  27.927  0.1890 -0.0741  0.3057
17580W        W60492  28.903   3.925  29.895  0.0016 -0.1315  0.0553
17581W        W60493  28.109   6.820  29.282 -0.1829 -0.0868  0.0551
17582W        W60494  26.665   3.431  29.686 -0.0627 -0.1604 -0.1930
17583W        W60495  27.684   4.782  28.286  0.1149  0.2219  0.0408
17584W        W60496  26.817   4.221  30.015  0.2358 -0.0408  0.2220
17585W        W60497  26.768   5.369  29.301 -0.2341 -0.0918  0.1597
17586W        W60498  27.857   5.948  30.950  0.0552  0.0080 -0.2612
17587W        W60499  27.410   5.913  28.919  0.0714 -0.1179  0.1041
17588W        W60500  30.675   6.097  28.638 -0.1649 -0.2371 -0.0781
17589W        W60501  28.028   7.295  31.529  0.3891  0.2643 -0.0969
17590W        W60502  28.499   7.757  30.740  0.1621 -0.1678 -0.0954
17591W        W60503  26.974   6.981  31.537 -0.0689 -0.2640  0.0849
17592W        W60504  27.880   4.552  29.547  0.2805 -0.1127 -0.1006
17593W        W60505  26.168   3.729  30.333  0.0437  0.2255 -0.0806
17594W        W60506  27.194   5.680  29.392  0.1830 -0.2104  0.0547
17595W        W60507  26.891   5.889  28.997 -0.1128  0.2869  0.4650
17596W        W60508  28.637   5.412  30.446 -0.0577  0.1541 -0.0410
17597W        W60509  26.215   3.208  29.352  0.0494  0.3486  0.1116
17598W        W60510  27.992   3.620  27.651 -0.1574  0.2098 -0.0578
17599W        W60511  27.068   8.851  28.596 -0.2606  0.1305  0.0541
17600W        W60512  27.758   6.831  30.354  0.1175 -0.1747  0.0675
17601W        W60513  28.838   3.819  31.410 -0.0443 -0.1073  0.1053
17602W        W60514  27.343   5.407   0.011 -0.2914 -0.1295  0.1367
17603W        W60515  26.803   5.271  31.856  0.0506 -0.0075  0.0177
17604W        W60516  26.926   6.138   0.086  0.2526 -0.0474 -0.5361
17605W        W60517  26.157   6.949   0.561 -0.3151 -0.0086  0.2290
17606W        W60518  26.141   7.516   0.192  0.1475  0.2275  0.0188
17607W        W60519  28.398   5.259   0.498 -0.0746  0.0688  0.0739
17608W        W60520  26.690   3.394   0.273  0.0345  0.1270 -0.6033
17609W        W60521  29.552   4.878  31.111  0.1115 -0.2569  0.1049
17610W        W60522  29.749   7.894  31.496  0.0521  0.1294  0.1162
17611W        W60523  29.081   8.163  30.881 -0.0654  0.0195  0.1697
17612W        W60524  27.412   3.707  30.985  0.1728 -0.1000 -0.1180
17613W        W60525  28.490   5.915   0.015  0.1839 -0.0976  0.1780
17614W        W60526  27.351   5.906   0.012  0.2163 -0.0811  0.1644
17615W        W60527  29.138   5.016   0.919  0.1025  0.2528 -0.5766
17616W        W60528  25.470   6.704   0.118 -0.0936 -0.0376 -0.0166
17617W        W60529  26.056   6.179  31.733 -0.1757 -0.0316  0.0878
17618W        W60530  29.531   7.449  31.436 -0.2994 -0.1073 -0.0252
17619W        W60531  28.559   2.922  31.583  0.0827 -0.0300 -0.2759
17620W        W60532  26.940   5.967   1.349  0.0125 -0.2221 -0.1089
17621W        W60533  26.507   4.776  31.896 -0.2777  0.0238  0.1997
17622W        W60534  25.991   6.213   0.563 -0.2523 -0.2037 -0.0036
17623W        W60535  29.178   4.726  31.702 -0.1700 -0.3593  0.0314
17624W        W60536  28.555   3.930  31.836 -0.0049 -0.1706 -0.0922
17625W        W60537  27.774   4.606  30.942  0.0413 -0.4515 -0.0271
17626W        W60538  27.044   5.042   0.846 -0.2299  0.1660 -0.3520
17627W        W60539  26.668   6.577  31.271 -0.0186  0.1210  0.3489
17628W        W60540  24.929   7.182  31.043 -0.1565 -0.0839  0.3812
17629W        W60541  26.920   3.964  31.532 -0.1646 -0.0612 -0.2498
17630W        W60542  27.390   5.897  30.329 -0.1722  0.1422 -0.0012
17631W        W60543  26.929   7.502  31.532 -0.1679 -0.4150 -0.2238
17632W        W60544  27.328   4.660   0.549 -0.0608 -0.1408  0.2589
17633W        W60545  28.033   4.902  31.782  0.1939  0.0967  0.0976
17634W        W60546  26.960   4.371   0.457 -0.1395  0.0916  0.2264
17635W        W60547  27.470   4.880   0.058 -0.1707  0.0311  0.3060
17636W        W60548  25.604   5.966   1.343  0.2514  0.0305  0.1109
17637W        W60549  25.997   7.208  31.706 -0.2528 -0.0190 -0.2106
17638W        W60550  26.869   5.898   0.824  0.0557 -0.0297 -0.1570
17639W        W60551  28.530   7.262  31.555 -0.0577 -0.1929  0.2408
17640W        W60552  27.629   6.515  30.841 -0.5431  0.1112 -0.1367
17641W        W60553  27.448   4.076  31.403 -0.1167  0.1285 -0.0645
17642W        W60554  27.906   5.077  31.228  0.0579  0.2842  0.2053
17643W        W60555  25.798   2.555   0.288 -0.0778  0.1731 -0.3784
17644W        W60556  26.928   6.642  31.895 -0.2904 -0.0764 -0.0536
17645W        W60557  26.483   5.775  30.927 -0.1558 -0.1351  0.1365
17646W        W60558  27.107   6.328  31.500  0.0328 -0.3097  0.2078
17647W        W60559  27.345   4.412   0.139  0.2584  0.1224 -0.0205
17648W        W60560  27.572   6.279  31.232 -0.0777 -0.1970 -0.1483
17649W        W60561  28.016   6.530   0.560 -0.3828  0.1123  0.1111
17650W        W60562  25.571   5.703  31.420  0.2394  0.0387 -0.2086
17651W        W60563  28.587   6.761  30.820 -0.1021 -0.2063  0.1236
17652W        W60564  28.112   4.571  31.313 -0.2355 -0.0948 -0.0376
17653W        W60565  27.696   4.447  31.756  0.0971  0.3400  0.2290
17654W        W60566  28.104   6.569  31.170  0.1170  0.0282  0.1121
17655W        W60567  27.051   4.306  29.552 -0.0975 -0.0910  0.0028
17656W        W60568  27.459   5.661  30.952 -0.0151  0.0150  0.1791
17657W        W60569  29.726   5.253  31.976  0.0857 -0.0192  0.2304
17658W        W60570  26.362   7.049   0.066 -0.3159 -0.1704 -0.2597
17659W        W60571  28.296   7.039  31.163  0.1259 -0.1044  0.4179
17660W        W60572  26.136   5.868  31.308 -0.2261 -0.0635  0.2605
17661W        W60573  25.252   4.616   0.415 -0.0717  0.2792  0.2525
17662W        W60574  26.948   4.890  30.445 -0.2565 -0.0102  0.0377
17663W        W60575  24.709   5.889   0.302 -0.2279 -0.1014  0.3023
17664W        W60576  25.826   3.845   0.624 -0.0818 -0.0390 -0.1312
17665W        W60577  28.026   6.743  31.688  0.2181 -0.1411 -0.4349
17666W        W60578  29.531   6.931  31.404 -0.4507  0.0011  0.1206
17667W        W60579  28.604   4.682  31.250  0.5217  0.1958 -0.0571
17668W        W60580  26.674   9.137  18.885 -0.1054  0.1571 -0.2346
17669W        W60581  26.139   8.005  17.378 -0.0014  0.0186 -0.3274
17670W        W60582  29.089   8.127  16.852 -0.0986  0.1260  0.0814
17671W        W60583  27.789   9.064  17.903 -0.2536 -0.0467  0.1385
17672W        W60584  26.059   8.256  16.934  0.0279 -0.0619  0.2511
17673W        W60585  26.741   8.433  18.135 -0.1946  0.2083  0.0285
17674W        W60586  25.384   7.507  20.135 -0.0456  0.0738 -0.0184
17675W        W60587  28.315  10.092  17.930 -0.1039 -0.2835 -0.0453
17676W        W60588  27.028  11.435  21.202  0.1013 -0.0614  0.2810
17677W        W60589  26.847   8.622  16.375 -0.3629 -0.2765  0.1054
17678W        W60590  25.164   8.282  18.923 -0.4060 -0.1375  0.1286
17679W        W60591  25.718  11.120  17.223  0.1618 -0.2341 -0.0347
17680W        W60592  25.574   7.728  17.473  0.2104 -0.1855 -0.0762
17681W        W60593  24.613   7.129  17.825 -0.1074  0.1972 -0.0364
17682W        W60594  26.167   8.272  18.943 -0.2487 -0.1337 -0.1569
17683W        W60595  26.655   9.609  16.070 -0.0730  0.1247  0.1839
17684W        W60596  26.649   8.920  18.091 -0.1527  0.0243  0.0388
17685W        W60597  25.789   7.788  17.035 -0.2904 -0.0615  0.1337
17686W        W60598  26.974  11.968  16.230  0.2047 -0.1100  0.5205
17687W        W60599  26.679   7.598  19.358  0.2242  0.0270  0.3208
17688W        W60600  27.528   5.675  19.899 -0.3539  0.0323  0.0543
17689W        W60601  26.283   9.486  16.812  0.3596  0.2150  0.3130
17690W        W60602  24.388   9.255  16.408  0.0399  0.0223  0.0748
17691W        W60603  23.538   7.769  18.418 -0.2431 -0.1981 -0.3523
17692W        W60604  26.435   9.118  18.486 -0.1965  0.0947 -0.1459
17693W        W60605  27.927   7.490  18.859 -0.1994  0.0563 -0.1960
17694W        W60606  27.997   9.593  16.448  0.1988  0.1595  0.3073
17695W        W60607  27.509  11.523  17.867 -0.0538  0.0024 -0.1718
17696W        W60608  26.907  10.086  17.321 -0.2485  0.1165  0.1503
17697W        W60609  26.695   7.884  20.443 -0.3931  0.0728  0.1024
17698W        W60610  25.376   9.980  16.952 -0.0764 -0.1139  0.2754
17699W        W60611  24.978   9.411  16.440 -0.2134  0.2033  0.1306
17700W        W60612  26.669   9.698  16.560  0.0422  0.0742 -0.2644
17701W        W60613  27.798   9.783  17.888 -0.0258  0.0515  0.0114
17702W        W60614  27.780  11.082  19.655  0.1017 -0.0526 -0.0312
17703W        W60615  26.111   9.497  20.405 -0.1446  0.1227 -0.0481
17704W        W60616  26.450  10.675  16.566  0.1425  0.3763 -0.0522
17705W        W60617  26.081  11.791  17.574 -0.2610 -0.1372 -0.1316
17706W        W60618  26.121   8.275  19.434 -0.4728  0.0490  0.0777
17707W        W60619  25.753   8.004  19.090  0.0509 -0.0951  0.3188
17708W        W60620  26.643   8.667  18.610  0.1110 -0.0445  0.0981
17709W        W60621  26.843  10.305  16.816 -0.1928 -0.1090 -0.3028
17710W        W60622  25.888   9.271  17.717 -0.2927 -0.2038 -0.1095
17711W        W60623  25.695   9.425  19.934  0.1849 -0.0843 -0.3071
17712W        W60624  24.394   9.891  18.555  0.1962  0.1913  0.0368
17713W        W60625  29.465   7.760  19.610  0.0812 -0.1167  0.1873
17714W        W60626  25.880   9.772  17.477 -0.2453 -0.3918 -0.2684
17715W        W60627  28.841   9.529  15.972 -0.2858  0.4261  0.1702
17716W        W60628  26.810   8.052  15.721 -0.1178  0.1401 -0.1058
17717W        W60629  27.405   9.492  17.867 -0.2688  0.0400  0.3501
17718W        W60630  27.419   6.418  19.329  0.2356 -0.1275 -0.0949
17719W        W60631  26.676   8.957  17.265  0.0680  0.0945  0.2826
17720W        W60632  26.987   8.372  18.891 -0.0744 -0.1419  0.2753
17721W        W60633  28.065   9.679  19.502  0.1271  0.1447  0.1422
17722W        W60634  28.354   8.011  17.181  0.1143  0.2553 -0.1084
17723W        W60635  27.266   6.957  19.490  0.2280 -0.1758  0.2727
17724W        W60636  26.842  10.832  19.508 -0.3238 -0.0489 -0.0291
17725W        W60637  25.229   7.557  17.826  0.0475 -0.1222  0.6868
17726W        W60638  29.015  10.723  16.671 -0.0211  0.2329 -0.2973
17727W        W60639  27.997  10.169  18.291  0.4388 -0.0381  0.0236
17728W        W60640  27.473   9.358  17.010  0.0726  0.0867  0.0733
17729W        W60641  25.006   9.615  16.915  0.0232  0.4833 -0.1198
17730W        W60642  25.239   8.603  19.345 -0.0793 -0.4187  0.3853
17731W        W60643  25.736   8.930  18.905 -0.0357 -0.0906  0.1012
17732W        W60644  26.352   7.242  15.959 -0.1312 -0.0637  0.4451
17733W        W60645  28.458  11.453  20.115  0.1232 -0.3126  0.1793
17734W        W60646  26.010   9.322  19.587 -0.0433  0.1911 -0.1357
17735W        W60647  29.268   8.216  17.373 -0.0623 -0.1476  0.1595
17736W        W60648  26.296   8.968  17.583  0.2363  0.0383  0.0444
17737W        W60649  26.952   9.480  19.045 -0.0817 -0.0242 -0.0809
17738W        W60650  27.731   8.750  16.400 -0.2166  0.0752 -0.1457
17739W        W60651  29.513   6.042  18.790  0.0267  0.0646 -0.0362
17740W        W60652  29.125   6.872  18.713  0.0952  0.2913 -0.0394
17741W        W60653  25.121   9.160  15.612 -0.3533 -0.0604 -0.2472
17742W        W60654  27.160   9.080  16.680  0.4230 -0.1670 -0.0775
17743W        W60655  28.612  11.106  19.754 -0.3263  0.3648  0.3193
17744W        W60656  29.462   8.478  17.737 -0.2392  0.1216 -0.1452
17745W        W60657  25.608   9.636  17.938 -0.2292 -0.6119  0.0014
17746W        W60658  26.771   7.081  19.354 -0.1504 -0.3998  0.0098
17747W        W60659  25.823   9.948  19.868  0.0118 -0.2905 -0.2450
17748W        W60660  25.420  10.616  16.387 -0.2939 -0.1680  0.0482
17749W        W60661  25.065   8.141  16.873  0.1139 -0.0449  0.2406
17750W        W60662  25.931  10.513  16.518 -0.2073  0.1035 -0.0470
17751W        W60663  24.892   8.058  20.061  0.0101 -0.2678  0.0062
17752W        W60664  26.061  10.268  17.482  0.1119 -0.3149 -0.0588
17753W        W60665  26.961   8.285  17.298  0.0227 -0.0467  0.2105
17754W        W60666  26.285   8.527  18.072  0.0873 -0.0086  0.3728
17755W        W60667  28.027   6.790  17.465 -0.1052 -0.0925 -0.4665
17756W        W60668  25.630   8.172  16.233 -0.0939  0.0590 -0.2143
17757W        W60669  26.810   9.293  17.702 -0.0143 -0.2858 -0.2471
17758W        W60670  28.561   9.042  16.753  0.2740 -0.2109  0.0507
17759W        W60671  27.151  11.697  17.588  0.0994 -0.2409 -0.0224
17760W        W60672  25.240   8.795  18.846  0.1513 -0.3135  0.2345
17761W        W60673  25.754   6.896  18.327  0.0450  0.0867 -0.1307
17762W        W60674  26.369   6.178  20.236  0.2109  0.1912 -0.0669
17763W        W60675  26.488   6.863  20.238  0.0484  0.0727  0.1639
17764W        W60676  28.135   9.346  19.932 -0.1218 -0.0660  0.2002
17765W        W60677  25.370   8.156  17.736 -0.0477 -0.1554  0.1820
17766W        W60678  29.758   8.469  17.297 -0.0213 -0.3427 -0.0907
17767W        W60679  25.851  10.984  16.775  0.1958 -0.1761 -0.2086
17768W        W60680  24.774  10.887  18.431  0.3009 -0.0191 -0.0609
17769W        W60681  28.591   8.068  18.823  0.1781  0.2126  0.2562
17770W        W60682  27.252   9.585  16.484  0.0722 -0.0844 -0.0173
17771W        W60683  28.386  11.141  20.510  0.3856 -0.1230  0.1129
17772W        W60684  29.543  12.005  17.957  0.2386 -0.0130 -0.1349
17773W        W60685  26.619   8.144  19.452 -0.0176 -0.3404 -0.1997
17774W        W60686  26.006   8.924  16.200 -0.0003  0.2188  0.1388
17775W        W60687  25.920  10.225  18.078  0.1671  0.1586 -0.1016
17776W        W60688  27.376  10.542  16.616 -0.3089  0.2780 -0.1527
17777W        W60689  26.498   8.413  17.205 -0.1177  0.2308 -0.2114
17778W        W60690  27.955   9.850  19.959 -0.2227 -0.0891  0.0674
17779W        W60691  25.808   8.803  17.600  0.1308  0.0096  0.0817
17780W        W60692  25.646  10.181  17.710  0.0006 -0.4102  0.1259
17781W        W60693  28.644   7.213  19.920  0.0855  0.2585 -0.0578
17782W        W60694  28.213   9.028  18.944  0.1642 -0.2262  0.0876
17783W        W60695  29.930   6.297  18.623 -0.2467  0.0254  0.2301
17784W        W60696  26.450   8.923  16.567  0.3436  0.1318  0.1522
17785W        W60697  28.071  11.670  18.470 -0.1460 -0.0168  0.1240
17786W        W60698  25.356  10.883  16.904  0.2951 -0.1347  0.0690
17787W        W60699  25.508   9.187  16.316  0.0100  0.1686 -0.0273
17788W        W60700  27.254  10.663  17.115  0.2841 -0.2485 -0.1178
17789W        W60701  28.780   8.174  18.260  0.0735 -0.3330  0.3380
17790W        W60702  25.617   8.651  19.926  0.0796 -0.3145 -0.0969
17791W        W60703  28.366   9.281  19.357 -0.1222 -0.1149  0.0275
17792W        W60704  25.642   9.397  15.589 -0.2185  0.2205  0.0126
17793W        W60705  26.690  10.211  18.729 -0.0676  0.2860 -0.3597
17794W        W60706  28.507   7.329  18.103 -0.0334  0.0194  0.2190
17795W        W60707  28.059   8.397  16.875  0.1896 -0.0130 -0.0147
17796W        W60708  26.135   8.812  19.343  0.0648  0.0661 -0.0480
17797W        W60709  27.841   9.436  17.534 -0.0835  0.2270 -0.0320
17798W        W60710  28.149   8.134  15.976  0.3049  0.2164 -0.0641
17799W        W60711  26.332   9.319  16.256 -0.0095 -0.0123  0.0646
17800W        W60712  25.873   8.379  20.333 -0.2412  0.1654 -0.2441
17801W        W60713  26.863   8.712  16.886 -0.0691  0.1181 -0.2004
17802W        W60714  28.072   9.530  18.996  0.0116 -0.0514  0.0295
17803W        W60715  28.068   7.869  16.810  0.2652  0.3290  0.0182
17804W        W60716  27.825  10.264  17.004 -0.0205  0.1310  0.0054
17805W        W60717  25.284   9.954  18.135  0.0219 -0.1686 -0.0890
17806W        W60718  26.510   8.582  19.081  0.0942  0.3400  0.1295
17807W        W60719  27.796   9.658  18.445 -0.2807  0.3450 -0.1846
17808W        W60720  27.302   7.513  19.543  0.1740 -0.0735 -0.1210
17809W        W60721  27.211   7.923  17.105 -0.1938  0.0852 -0.2532
17810W        W60722  26.460   7.672  17.683 -0.0176  0.0226 -0.2508
17811W        W60723  25.684  10.580  17.380 -0.0502 -0.0115 -0.0609
17812W        W60724  28.747   7.781  20.167  0.2091  0.0540  0.1304
17813W        W60725  27.685   7.748  19.209 -0.1607 -0.3235 -0.1725
17814W        W60726  28.212   7.678  19.335  0.3675 -0.1996 -0.0956
17815W        W60727  28.863   9.535  20.560 -0.0727 -0.2369 -0.1066
17816W        W60728  29.666   8.870  16.901 -0.1823  0.1068  0.0008
17817W        W60729  27.573   8.243  18.432 -0.0231 -0.2315  0.0323
17818W        W60730  26.488   8.314  16.635  0.0903 -0.1838  0.2196
17819W        W60731  26.966   9.212  18.393  0.1034 -0.3106 -0.1206
17820W        W60732  26.145   8.995  18.120  0.1509  0.2286  0.3380
17821W        W60733  25.322   9.906  19.488  0.2823  0.0839  0.3998
17822W        W60734  27.101   9.718  19.473 -0.1025 -0.2567  0.0107
17823W        W60735  27.584   8.282  17.661 -0.3039 -0.2932  0.0365
17824W        W60736  27.452   7.983  19.571  0.0780 -0.1502 -0.1835
17825W        W60737  27.181   7.425  17.103  0.4208  0.1625 -0.1692
17826W        W60738  27.174  10.084  16.562 -0.1482  0.2012  0.1008
17827W        W60739  25.894  10.014  17.056 -0.1154 -0.0654  0.4037
17828W        W60740  26.694   6.749  19.739  0.1067  0.0218  0.0231
17829W        W60741  27.322   9.416  18.736  0.0651 -0.0149 -0.1335
17830W        W60742  26.769  10.659  16.101  0.1667  0.0811 -0.0219
17831W        W60743  25.800   9.330  18.403 -0.1446  0.0574 -0.2896
17832W        W60744  26.283   9.394  15.702  0.0985 -0.2447  0.0650
17833W        W60745  28.420   6.829  19.193 -0.1983 -0.5267 -0.1973
17834W        W60746  24.167  10.223  18.160  0.1022 -0.0366 -0.2004
17835W        W60747  26.120   8.956  15.705  0.0679  0.1801  0.2730
17836W        W60748  25.276   8.702  16.972  0.2375  0.0732 -0.0421
17837W        W60749  27.426   7.977  18.040 -0.0705 -0.0890  0.3058
17838W        W60750  29.483   8.587  16.056 -0.0947  0.0947  0.5059
17839W        W60751  24.566   7.105  19.028 -0.0812  0.1464 -0.0040
17840W        W60752  27.667   6.756  18.972 -0.3171  0.0711 -0.1621
17841W        W60753  23.625  10.271  18.441 -0.1286 -0.0785  0.0130
17842W        W60754  27.465  10.826  18.663  0.0419 -0.2503  0.0476
17843W        W60755  28.226   7.498  17.173  0.0822 -0.0486  0.3362
17844W        W60756  26.828  11.742  20.662 -0.0973  0.0161  0.2805
17845W        W60757  27.182   8.581  20.148  0.1859 -0.0412  0.2784
17846W        W60758  25.213   8.610  17.924 -0.0666  0.4628 -0.2112
17847W        W60759  28.775   6.472  19.265  0.2536  0.0466  0.1163
17848W        W60760  26.582   6.875  18.801  0.0801 -0.1246 -0.1855
17849W        W60761  24.507  10.529  17.281  0.2417  0.1637 -0.1483
17850W        W60762  26.262   9.885  19.526 -0.1088  0.0124  0.5122
17851W        W60763  25.638   8.816  16.580 -0.0613 -0.0008  0.0241
17852W        W60764  24.669   9.956  16.459 -0.3217  0.2446 -0.2471
17853W        W60765  25.722   8.217  19.781  0.1178  0.0381  0.0989
17854W        W60766  28.173  10.977  20.029  0.2273  0.0553 -0.2496
17855W        W60767  26.821   9.022  19.330  0.0968  0.4564 -0.0406
17856W        W60768  25.505   7.322  18.203  0.2679 -0.1217 -0.1269
17857W        W60769  26.309   7.724  18.306 -0.0300  0.0905  0.1892
17858W        W60770  27.274   9.725  18.351  0.1777 -0.0903 -0.0969
17859W        W60771  25.503   7.807  18.594  0.1292 -0.0818  0.1816
17860W        W60772  26.124  10.640  21.853 -0.1571  0.0437  0.1307
17861W        W60773  28.469   5.990  19.208  0.1417  0.3251  0.0977
17862W        W60774  30.101  10.762  16.365  0.0916 -0.3013  0.2178
17863W        W60775  28.365   9.579  20.334  0.2053  0.0840  0.0438
17864W        W60776  26.833   9.247  16.368  0.0727 -0.1330 -0.4810
17865W        W60777  24.642   8.855  18.123  0.1397 -0.0952 -0.3141
17866W        W60778  25.899   8.495  16.014  0.0155 -0.0786 -0.2690
17867W        W60779  27.399   7.280  20.431 -0.1056 -0.2904 -0.0526
17868W        W60780  26.721   9.856  19.730 -0.0315  0.1704 -0.0537
17869W        W60781  26.312  10.160  16.679 -0.1424  0.2754 -0.0971
17870W        W60782  25.343   9.424  18.298  0.0601 -0.0046 -0.0096
17871W        W60783  29.885   7.339  17.785  0.2769 -0.3206 -0.2240
17872W        W60784  28.190   8.867  17.008 -0.2835 -0.0332  0.1160
17873W        W60785  27.924   6.235  17.601 -0.0717 -0.2070 -0.0526
17874W        W60786  28.407   8.576  18.915 -0.4184  0.1443 -0.2536
17875W        W60787  28.294   8.679  16.536  0.1141  0.0623  0.2229
17876W        W60788  27.577   8.572  19.655  0.0017 -0.3587  0.4889
17877W        W60789  26.597   7.907  18.993 -0.0999 -0.0037 -0.2141
17878W        W60790  27.506   9.219  18.319  0.0729  0.2529 -0.1168
17879W        W60791  25.784   7.666  19.530 -0.1927 -0.0416 -0.0223
17880W        W60792  26.544  12.570  20.808 -0.2124  0.4924  0.0761
17881W        W60793  26.556   8.152  18.536  0.3743  0.0955  0.2598
17882W        W60794  27.592   7.486  17.819 -0.1500  0.0303  0.0299
17883W        W60795  26.495   7.763  16.013  0.1984  0.1329 -0.2961
17884W        W60796  25.734   8.487  17.958 -0.0578  0.0623  0.3840
17885W        W60797  28.416  11.933  18.725  0.0057  0.3188 -0.3991
17886W        W60798  27.310   8.475  16.431  0.0750  0.1981  0.2267
17887W        W60799  27.939   8.122  17.989  0.0081 -0.1008  0.1829
17888W        W60800  24.813   9.327  18.320  0.1960  0.2271  0.1906
17889W        W60801  28.709   8.642  17.593 -0.1509 -0.2551 -0.4281
17890W        W60802  27.728  10.959  16.791  0.0218  0.0912 -0.1831
17891W        W60803  25.396   9.326  17.637 -0.1086  0.1266 -0.2243
17892W        W60804  26.759   7.195  19.904 -0.1645  0.1898  0.3695
17893W        W60805  27.534   9.960  18.748 -0.0476 -0.2754 -0.1762
17894W        W60806  28.673   7.628  18.475  0.1627 -0.1467 -0.0137
17895W        W60807  27.559   9.499  19.605 -0.2158 -0.2147 -0.0424
17896W        W60808  26.102   8.662  18.575 -0.4520  0.1136  0.0195
17897W        W60809  27.574   9.538  20.086  0.1034 -0.0724 -0.0113
17898W        W60810  24.348   8.733  20.806 -0.0539  0.0132 -0.0632
17899W        W60811  27.598  11.857  18.304 -0.3349  0.2002  0.0944
17900W        W60812  30.766   8.453  17.454  0.1192 -0.1374  0.1299
17901W        W60813  29.285   7.828  18.990  0.0243  0.2756  0.1992
17902W        W60814  27.485   8.767  17.585  0.1283  0.0282  0.2829
17903W        W60815  27.184   7.710  15.949  0.1488 -0.3058 -0.3204
17904W        W60816  24.656   7.876  18.433  0.1627 -0.0775 -0.1509
17905W        W60817  28.553   7.950  19.666 -0.1366  0.0893  0.3117
17906W        W60818  24.609   9.256  15.463 -0.1480  0.2144 -0.0452
17907W        W60819  27.612   9.994  19.539 -0.3106 -0.3437 -0.2487
17908W        W60820  26.467  10.162  17.146  0.0507  0.0402  0.0553
17909W        W60821  26.521   8.167  17.657  0.0573 -0.0313 -0.3491
17910W        W60822  27.957   8.193  19.655 -0.1334 -0.0357 -0.3802
17911W        W60823  25.121   7.865  18.279  0.1262  0.3420  0.0482
17912W        W60824  26.314  10.494  17.943 -0.1757 -0.0220 -0.2654
17913W        W60825  25.561   8.288  16.738 -0.0878  0.0860 -0.1073
17914W        W60826  26.491   8.962  16.022 -0.2066 -0.1427  0.1672
17915W        W60827  27.541  10.230  18.338  0.0456  0.3274 -0.0948
17916W        W60828  28.370  10.073  20.196  0.3347 -0.1350 -0.1551
17917W        W60829  27.347   8.092  15.663 -0.0934 -0.0052  0.0003
17918W        W60830  27.996   8.836  19.876 -0.2253 -0.1271  0.1453
17919W        W60831  25.944   9.637  16.406 -0.1281 -0.0636  0.0436
17920W        W60832  29.627   6.540  18.957  0.3282 -0.0618 -0.0812
17921W        W60833  25.853  10.714  17.855  0.5323 -0.1241  0.1016
17922W        W60834  24.045  11.331  18.696  0.2032 -0.0073 -0.0452
17923W        W60835  26.271  10.569  18.871 -0.0912 -0.0533 -0.1754
17924W        W60836  27.170   8.635  19.303  0.0246  0.3628 -0.0958
17925W        W60837  27.479   8.759  18.652 -0.3389 -0.0962 -0.2344
17926W        W60838  27.158   7.975  19.139 -0.1563 -0.0967  0.0298
17927W        W60839  28.584   8.976  19.768 -0.0154 -0.0045 -0.0905
17928W        W60840  26.873   8.367  20.571  0.5043 -0.2005 -0.0245
17929W        W60841  25.336   8.322  18.456 -0.0685 -0.2515  0.3038
17930W        W60842  28.695  10.892  19.226 -0.0276  0.3341  0.1113
17931W        W60843  27.955   8.658  18.324  0.0423  0.3170 -0.0074
17932W        W60844  25.384  10.597  17.854  0.2883 -0.3096  0.0327
17933W        W60845  25.740   8.630  21.238  0.0869  0.0604 -0.0942
17934W        W60846  26.212   9.215  20.858  0.1523  0.0015 -0.2193
17935W        W60847  27.114   8.321  17.835 -0.0823  0.1753 -0.1982
17936W        W60848  26.052   8.484  16.470  0.2020  0.1740 -0.3862
17937W        W60849  26.674  10.227  16.282  0.1333 -0.0788 -0.3462
17938W        W60850  27.004   8.848  21.481  0.0211  0.0166 -0.2180
17939W        W60851  25.659   8.968  19.605 -0.0200 -0.1832  0.0227
17940W        W60852  25.487   9.635  16.604  0.0805 -0.0468  0.0504
17941W        W60853  27.956   8.588  17.782  0.0207 -0.0147 -0.2437
17942W        W60854  27.608   9.841  16.191 -0.3272 -0.1006  0.0865
17943W        W60855  26.690  10.864  19.983  0.1796 -0.2057 -0.2254
17944W        W60856  26.779   7.920  18.028  0.0066  0.0044 -0.3426
17945W        W60857  25.026  10.472  16.694 -0.1050  0.4188  0.5678
17946W        W60858  24.736   9.678  16.053  0.5165 -0.0881  0.2144
17947W        W60859  27.601   9.841  16.718 -0.1962  0.1831 -0.0977
17948W        W60860  26.139  11.979  18.049 -0.0220 -0.2730 -0.1796
17949W        W60861  27.765  10.510  20.475  0.2317  0.0905  0.0020
17950W        W60862  29.027   6.971  17.211 -0.1942 -0.1165 -0.2240
17951W        W60863  28.975   9.881  19.106 -0.1282  0.2051  0.0701
17952W        W60864  27.759   8.532  17.238 -0.2024 -0.0333  0.1840
17953W        W60865  27.619  10.071  20.750  0.0392 -0.2272  0.2248
17954W        W60866  25.569   8.192  17.303  0.2049 -0.1802  0.0070
17955W        W60867  25.896   9.197  16.681  0.1043  0.3361  0.1621
17956W        W60868  26.130   8.493  20.931  0.2317  0.0131  0.1723
17957W        W60869  28.794   7.704  19.177  0.1418  0.2625 -0.1017
17958W        W60870  26.795  11.075  19.051 -0.0377  0.3402 -0.2817
17959W        W60871  28.477  10.930  16.554 -0.0875 -0.1801 -0.2283
17960W        W60872  25.300   8.818  17.461  0.2695 -0.1245  0.1333
17961W        W60873  26.479  10.007  17.685  0.0451 -0.2245  0.4530
17962W        W60874  29.439   7.431  18.726 -0.3491  0.2429  0.1029
17963W        W60875  27.084   8.017  16.375 -0.4192  0.2327 -0.2755
17964W        W60876  28.761   8.302  17.184  0.1178  0.0368 -0.1081
17965W        W60877  27.255  10.602  18.168 -0.2829 -0.1093  0.2136
17966W        W60878  25.070   9.573  17.878 -0.0599  0.2975 -0.0213
17967W        W60879  27.188  10.412  18.738  0.3033 -0.3302 -0.1654
17968W        W60880  25.630   6.321  17.855  0.1069  0.1098  0.0450
17969W        W60881  29.771   7.569  17.318  0.0225  0.0810  0.0829
17970W        W60882  26.079   7.105  18.896 -0.0253 -0.0415 -0.1790
17971W        W60883  28.075   6.938  20.166  0.1985 -0.1432  0.0227
17972W        W60884  26.786  10.372  17.803 -0.0201  0.0811 -0.1149
17973W        W60885  28.462   8.211  16.606  0.1410 -0.1333 -0.0408
17974W        W60886  27.056   9.851  18.765  0.0409 -0.0073  0.3298
17975W        W60887  24.914   7.902  19.429  0.1612  0.2159 -0.0042
17976W        W60888  26.785   9.332  16.942  0.2011  0.1595  0.0574
17977W        W60889  27.628  10.123  20.233 -0.0310  0.0164  0.3532
17978W        W60890  28.458   7.831  16.229 -0.1872 -0.0709  0.1798
17979W        W60891  27.250  11.004  21.092 -0.1126  0.3786 -0.0830
17980W        W60892  26.037   7.460  17.430  0.0178 -0.1511  0.2847
17981W        W60893  25.983   8.210  18.401 -0.1806  0.1521 -0.0483
17982W        W60894  26.080  10.565  17.039 -0.1832  0.1102 -0.0866
17983W        W60895  26.480   9.390  18.107 -0.1916 -0.0901 -0.0181
17984W        W60896  27.616   9.275  20.930  0.2154 -0.1143 -0.0510
17985W        W60897  26.522   7.407  18.872 -0.0872  0.0271  0.2223
17986W        W60898  27.193   8.970  16.128 -0.0115 -0.2144 -0.1256
17987W        W60899  26.684   7.903  17.217  0.1121 -0.2665  0.2192
17988W        W60900  26.186  10.642  15.353 -0.1015 -0.2304  0.0959
17989W        W60901  27.558   8.618  18.083  0.1469 -0.0914 -0.3134
17990W        W60902  28.303  11.103  18.994  0.4750 -0.5829  0.0536
17991W        W60903  26.097   7.806  18.737 -0.1525 -0.2553 -0.2454
17992W        W60904  28.657  10.253  18.870  0.2551  0.1420  0.1101
17993W        W60905  27.250   9.168  17.451  0.0092  0.1820  0.3088
17994W        W60906  27.492   7.016  18.020 -0.0805 -0.1498 -0.0857
17995W        W60907  25.736   7.447  18.989  0.3621 -0.2791  0.1654
17996W        W60908  24.675  11.184  17.906 -0.0937  0.0985 -0.2455
17997W        W60909  28.388   8.522  17.953 -0.2345 -0.0181  0.0095
17998W        W60910  28.183   7.750  18.449  0.0803 -0.0259 -0.1442
17999W        W60911  26.299  10.509  16.101  0.0782 -0.0168  0.1279
18000W        W60912  27.945   6.682  21.018 -0.1070 -0.2631 -0.0950
18001W        W60913  26.049  11.425  18.507 -0.2274 -0.0198  0.3666
18002W        W60914  26.272  10.083  20.030  0.1719 -0.2766 -0.0635
18003W        W60915  24.449   8.870  15.768 -0.1956  0.1526  0.0081
18004W        W60916  25.611   8.995  18.020  0.0044 -0.2371 -0.3337
18005W        W60917  25.613   9.084  17.266  0.1345 -0.1546  0.1965
18006W        W60918  26.204  10.039  16.216  0.0740  0.0782 -0.2213
18007W        W60919  28.352  10.194  17.097  0.1752  0.0718  0.0300
18008W        W60920  27.732   8.037  17.156 -0.0451  0.2076  0.1106
18009W        W60921  27.080   8.741  18.363 -0.1812 -0.0278 -0.1252
18010W        W60922  27.345   6.155  17.661  0.0877  0.0364  0.0680
18011W        W60923  28.895   7.745  17.966 -0.0237 -0.0421  0.1761
18012W        W60924  27.486   8.357  16.860  0.0539 -0.1390 -0.0065
18013W        W60925  26.277   9.577  19.926 -0.0698  0.0276 -0.1405
18014W        W60926  25.278   8.458  16.429  0.1353  0.3942  0.1114
18015W        W60927  25.867   9.350  16.029 -0.1529 -0.0055 -0.0273
18016W        W60928  26.206   9.246  18.948  0.3319  0.0465 -0.3009
18017W        W60929  26.880   7.181  18.567  0.0797 -0.4336 -0.2129
18018W        W60930  25.288   7.874  19.821 -0.1455  0.4171 -0.1448
18019W        W60931  25.101   7.849  17.372  0.0319 -0.1493  0.3441
18020W        W60932  26.081   8.028  17.921 -0.0842  0.0868  0.0214
18021W        W60933  29.064   9.596  16.785 -0.2328  0.0434  0.4495
18022W        W60934  24.091   8.188  18.783  0.1709  0.1668  0.0025
18023W        W60935  23.834   8.222  17.697 -0.0918 -0.3519 -0.1421
18024W        W60936  27.246   8.710  17.179 -0.0699 -0.0774  0.2128
18025W        W60937  27.068   9.762  16.991 -0.4285  0.0692 -0.0319
18026W        W60938  26.542   7.064  17.771 -0.0031 -0.1905  0.1835
18027W        W60939  27.008  11.733  19.931 -0.0227 -0.0285  0.2872
18028W        W60940  25.212  10.205  15.341 -0.2942  0.0994  0.0547
18029W        W60941  27.034   8.293  21.135  0.1654  0.1031  0.1956
18030W        W60942  26.936   6.574  19.240  0.2794 -0.2068 -0.2002
18031W        W60943  25.148   7.980  16.362  0.0644 -0.0447  0.3593
18032W        W60944  28.016   8.629  19.369 -0.0473 -0.1272  0.2788
18033W        W60945  28.786   9.874  17.127 -0.1486  0.2158 -0.2027
18034W        W60946  28.211  10.902  17.190 -0.0208  0.0873 -0.1473
18035W        W60947  26.735  10.545  19.120 -0.0586  0.2038 -0.3241
18036W        W60948  25.339   8.139  19.383  0.0667  0.4638  0.2159
18037W        W60949  25.345   6.410  20.801 -0.0276  0.3778 -0.4715
18038W        W60950  29.800   8.875  16.397  0.0121 -0.0109  0.1501
18039W        W60951  26.129  10.480  19.782  0.2610  0.0492  0.1332
18040W        W60952  29.209  10.162  16.697  0.1079 -0.2752  0.0980
18041W        W60953  29.147   8.026  18.547  0.0618 -0.2035  0.1505
18042W        W60954  28.795   8.553  16.695 -0.2692 -0.0471 -0.1873
18043W        W60955  26.282   7.366  20.188 -0.0786 -0.3666  0.0389
18044W        W60956  25.545   8.744  18.418 -0.0325 -0.0503  0.0142
18045W        W60957  27.596   9.676  19.126  0.1272 -0.1092 -0.1093
18046W        W60958  27.110   7.504  18.098  0.1160  0.1276  0.2137
18047W        W60959  28.000   7.885  17.589 -0.0106 -0.2006  0.3297
18048W        W60960  26.247   9.611  18.454 -0.0307  0.0428  0.1254
18049W        W60961  24.354   8.508  18.393  0.2741  0.0659  0.3456
18050W        W60962  29.266   8.619  17.055  0.1711  0.2266 -0.0537
18051W        W60963  26.341   7.578  19.727  0.1864 -0.3152 -0.1169
18052W        W60964  27.378  10.357  17.477  0.0826 -0.0941 -0.0136
18053W        W60965  27.118  11.122  18.241 -0.1959  0.0832  0.1735
18054W        W60966  25.210   9.428  15.999 -0.0810 -0.0710  0.3075
18055W        W60967  29.394   9.304  17.145  0.0543  0.0957  0.0734
18056W        W60968  27.773   9.166  18.754 -0.0778  0.3489 -0.0719
18057W        W60969  28.144  11.102  22.045  0.2414 -0.1094 -0.2444
18058W        W60970  26.692   8.626  19.575  0.1287  0.0888 -0.1165
18059W        W60971  26.732   9.722  18.429  0.0649 -0.0871  0.0649
18060W        W60972  27.037   7.439  19.001  0.4845  0.1546  0.1398
18061W        W60973  26.430   9.540  17.585 -0.0501 -0.3128 -0.2937
18062W        W60974  26.190   8.917  17.066  0.0689  0.1114  0.0720
18063W        W60975  28.437   7.409  18.951 -0.1338 -0.0276  0.0355
18064W        W60976  27.486   7.298  19.098  0.3513  0.0562  0.0975
18065W        W60977  28.260   8.585  17.398 -0.2843  0.1408  0.1551
18066W        W60978  25.189   8.427  19.811 -0.1108 -0.3782 -0.1755
18067W        W60979  26.151   8.521  17.530 -0.0388  0.2519 -0.1110
18068W        W60980  25.529   9.600  22.918  0.7099 -0.1644  0.1566
18069W        W60981  26.745   8.902  21.958 -0.0358 -0.2503 -0.2062
18070W        W60982  27.809   7.678  19.704 -0.1325  0.1524 -0.1971
18071W        W60983  28.283  10.219  21.724 -0.0465 -0.1702 -0.1540
18072W        W60984  24.501   5.145  20.271 -0.1246  0.3359  0.0840
18073W        W60985  28.218  10.485  21.276  0.0734 -0.1603  0.2047
18074W        W60986  26.404   8.548  23.078 -0.0433  0.3687 -0.5084
18075W        W60987  27.977   9.752  23.290  0.1457  0.1409  0.0616
18076W        W60988  27.516  10.037  23.998 -0.1345  0.0913 -0.4488
18077W        W60989  27.536  10.396  19.831 -0.2235 -0.1768  0.2417
18078W        W60990  26.385   7.761  22.826 -0.0869 -0.0930  0.1760
18079W        W60991  26.048  10.704  22.754  0.0554 -0.0972 -0.0808
18080W        W60992  26.992   7.889  21.496  0.0499  0.0470 -0.1040
18081W        W60993  24.340   6.777  19.877  0.3116  0.1417  0.1010
18082W        W60994  27.244   8.677  21.874 -0.2211  0.0446  0.0694
18083W        W60995  25.492   9.374  21.895 -0.1482  0.1617  0.2444
18084W        W60996  26.215   7.268  22.833  0.1789 -0.1416 -0.0337
18085W        W60997  26.035   8.109  21.261  0.1125 -0.0826 -0.2582
18086W        W60998  26.792  11.315  20.316 -0.2760 -0.0501 -0.2019
18087W        W60999  26.509   8.786  23.626  0.1526 -0.1721  0.3636
18088W        W61000  26.878   5.895  24.336  0.2403 -0.1074 -0.1160
18089W        W61001  26.785   9.512  20.127 -0.1156  0.0762  0.0449
18090W        W61002  27.179   9.278  21.222 -0.1098 -0.0003  0.1527
18091W        W61003  25.012   8.887  21.590 -0.4557  0.2627 -0.5418
18092W        W61004  25.225   9.261  22.429 -0.0852  0.1917  0.2417
18093W        W61005  26.869   8.425  22.128 -0.0161  0.3494 -0.0864
18094W        W61006  27.502   8.778  21.339 -0.0295 -0.2569  0.4781
18095W        W61007  27.833  10.211  23.167 -0.0465 -0.1838  0.0817
18096W        W61008  26.653  11.160  22.149  0.1079 -0.0211 -0.2433
18097W        W61009  28.407   7.630  25.613  0.2556 -0.2736  0.0979
18098W        W61010  25.056   8.518  21.994  0.0822 -0.1278  0.0277
18099W        W61011  24.883  12.149  21.578  0.1417 -0.1875  0.1442
18100W        W61012  28.526  10.258  20.681  0.0499 -0.0079  0.1800
18101W        W61013  28.601  10.965  22.319 -0.0331 -0.0728 -0.0282
18102W        W61014  26.883   8.771  23.116  0.1142  0.0859  0.0642
18103W        W61015  25.876  11.183  24.045 -0.2766  0.2142 -0.1269
18104W        W61016  26.353   9.694  20.853 -0.1021  0.0280 -0.1694
18105W        W61017  27.915  11.435  22.351  0.1545  0.6035 -0.0203
18106W        W61018  25.440  10.751  24.015 -0.2215 -0.0373  0.2068
18107W        W61019  26.751   8.095  22.859 -0.1409  0.0006  0.2030
18108W        W61020  26.982   6.949  21.909  0.1545 -0.0710 -0.0399
18109W        W61021  26.252   9.833  21.446  0.1091 -0.0315  0.0028
18110W        W61022  27.901   9.483  22.857  0.3968 -0.2826 -0.1365
18111W        W61023  26.228   8.951  24.026 -0.1567  0.1914 -0.0122
18112W        W61024  26.312  11.123  21.705  0.0175 -0.1437 -0.2496
18113W        W61025  29.962   6.497  24.619  0.2740 -0.0950  0.0466
18114W        W61026  25.946  10.590  18.422  0.2311  0.0275 -0.0850
18115W        W61027  27.441   8.214  20.550 -0.0253 -0.1586  0.1371
18116W        W61028  26.285   7.789  21.061  0.2071 -0.1658  0.0779
18117W        W61029  27.784   8.805  20.847  0.0434 -0.1724  0.0149
18118W        W61030  26.130   7.345  21.834 -0.0174  0.2451  0.2422
18119W        W61031  24.805  11.989  22.506 -0.0633  0.3086 -0.0423
18120W        W61032  26.148   7.832  21.916 -0.1199  0.0859 -0.1285
18121W        W61033  27.902   9.687  22.309 -0.2143 -0.0329 -0.1341
18122W        W61034  28.141   9.269  20.824  0.1900 -0.0492 -0.1744
18123W        W61035  28.153   7.594  22.368  0.1582 -0.1837 -0.0913
18124W        W61036  25.412  10.255  23.770 -0.1746  0.1808  0.0526
18125W        W61037  24.896   8.979  22.854  0.0862 -0.1534  0.0944
18126W        W61038  26.715  10.002  19.268  0.1076  0.2802  0.1890
18127W        W61039  28.221  11.231  22.720  0.0252  0.2252 -0.2315
18128W        W61040  27.283   9.359  20.549 -0.0691  0.1875 -0.1462
18129W        W61041  25.122   8.800  22.460 -0.0390 -0.2499  0.1699
18130W        W61042  25.775   8.720  22.642 -0.2522 -0.2319  0.1905
18131W        W61043  26.479   8.251  23.815  0.3158 -0.2201 -0.0533
18132W        W61044  26.481   7.480  20.640 -0.3277  0.1144  0.1555
18133W        W61045  28.092  10.152  22.223  0.0539 -0.1241  0.3774
18134W        W61046  24.840  10.056  22.119  0.0462 -0.1870  0.1610
18135W        W61047  28.242   9.211  21.641  0.2626  0.0659  0.1727
18136W        W61048  26.486   9.708  21.917 -0.2730 -0.0980  0.3173
18137W        W61049  29.444  10.005  23.078  0.2359  0.2282 -0.0070
18138W        W61050  27.649  11.724  20.635 -0.0021  0.1586  0.0261
18139W        W61051  27.289   7.494  21.950 -0.2446  0.0109  0.2476
18140W        W61052  27.806   9.014  22.088 -0.0118  0.2005 -0.1022
18141W        W61053  27.555   9.031  19.983 -0.0981 -0.0362 -0.1096
18142W        W61054  27.529   8.395  21.041 -0.3408 -0.0574  0.0145
18143W        W61055  28.898   8.189  23.391  0.1876 -0.1184 -0.0545
18144W        W61056  27.959  10.893  20.741  0.0393 -0.0613 -0.2361
18145W        W61057  26.798  10.046  22.348  0.0572  0.0748  0.0133
18146W        W61058  26.701   7.377  22.718  0.2014  0.4061 -0.1672
18147W        W61059  26.773   9.336  23.214 -0.2491 -0.2001 -0.1317
18148W        W61060  26.493  11.053  21.254 -0.3194 -0.0117 -0.0043
18149W        W61061  24.880   9.116  21.184 -0.0791  0.0669  0.0725
18150W        W61062  26.233   8.499  19.846 -0.2441 -0.0757 -0.2060
18151W        W61063  25.096   7.992  21.891  0.0661  0.0159  0.3079
18152W        W61064  25.804   9.935  23.522  0.1585 -0.3372 -0.0491
18153W        W61065  28.721   7.781  21.645  0.1857 -0.0375 -0.0416
18154W        W61066  27.328   6.765  23.173 -0.1819 -0.4427  0.1409
18155W        W61067  27.909   8.163  21.415 -0.1786  0.0297  0.2518
18156W        W61068  26.073  10.083  21.032  0.3468 -0.3122 -0.1652
18157W        W61069  28.586  11.552  20.719 -0.0399 -0.3768 -0.0815
18158W        W61070  28.061   8.414  20.995  0.1716  0.2350 -0.0587
18159W        W61071  27.233  10.760  19.158  0.2005 -0.0479  0.1269
18160W        W61072  24.852   6.273  22.200  0.2506 -0.1386 -0.1906
18161W        W61073  25.533   8.173  21.199 -0.0261  0.1818  0.0465
18162W        W61074  26.931   7.586  24.421  0.0997 -0.1114  0.1551
18163W        W61075  24.962   8.389  21.522 -0.1667  0.0483  0.1864
18164W        W61076  27.483   9.343  22.519 -0.1115 -0.1814  0.0581
18165W        W61077  26.908   7.516  20.239 -0.1222 -0.0435 -0.1393
18166W        W61078  28.415   8.111  21.294  0.1336  0.1083 -0.2828
18167W        W61079  25.886   8.791  21.636 -0.3366  0.0117 -0.1152
18168W        W61080  26.719   9.067  21.029  0.2654 -0.1857 -0.5177
18169W        W61081  30.304   7.657  24.030 -0.2003 -0.0787 -0.1192
18170W        W61082  26.791  10.789  20.525  0.0960  0.1638  0.0898
18171W        W61083  28.338   9.539  23.730  0.3241 -0.0636  0.0134
18172W        W61084  27.880   9.687  20.976  0.0646  0.1314  0.1799
18173W        W61085  26.669   8.006  24.555  0.0334  0.2492  0.4160
18174W        W61086  26.613   8.014  21.888  0.2093 -0.4661 -0.0817
18175W        W61087  26.201  11.398  22.118  0.1660 -0.1374 -0.3145
18176W        W61088  27.114   9.920  21.987  0.3138  0.0397  0.1938
18177W        W61089  25.684   5.980  20.950 -0.0604 -0.2597  0.2143
18178W        W61090  28.710  12.849  22.557  0.0904 -0.1159 -0.3282
18179W        W61091  27.794   8.577  21.696  0.1074  0.2493 -0.1394
18180W        W61092  25.017   9.494  23.009  0.1671  0.1287 -0.0226
18181W        W61093  28.723   7.474  23.310 -0.3267 -0.3573  0.1527
18182W        W61094  28.541   7.490  23.900  0.0243  0.2090 -0.0787
18183W        W61095  26.966  10.394  22.076 -0.1048  0.1537 -0.0532
18184W        W61096  26.164   7.870  20.243  0.1018  0.0209 -0.3686
18185W        W61097  28.625  11.738  22.938 -0.0615  0.1170 -0.0265
18186W        W61098  25.312  11.789  21.479  0.1086 -0.3023  0.4751
18187W        W61099  24.888   9.022  22.038  0.1434 -0.1088 -0.1853
18188W        W61100  28.145   9.735  21.485  0.1427  0.3275 -0.0777
18189W        W61101  28.663   8.362  21.943 -0.0735 -0.0404 -0.0321
18190W        W61102  25.859   7.667  24.321 -0.1417 -0.0189  0.2444
18191W        W61103  28.960   7.865  23.010  0.0110 -0.0592  0.1717
18192W        W61104  25.697   9.194  20.380  0.4565 -0.0201 -0.0717
18193W        W61105  25.133  10.736  24.517  0.3228 -0.1227 -0.3086
18194W        W61106  26.496   8.075  22.361 -0.1786 -0.0767  0.1934
18195W        W61107  28.316   8.926  20.265  0.2308 -0.2726  0.2348
18196W        W61108  27.434   7.466  24.381 -0.1846 -0.1179 -0.0848
18197W        W61109  27.730  10.065  21.294 -0.1404  0.3258  0.0380
18198W        W61110  27.862   9.163  20.366 -0.1083 -0.0124 -0.1599
18199W        W61111  27.197   7.747  20.634  0.3829  0.0316 -0.3780
18200W        W61112  25.680   9.988  24.189  0.1727  0.2178  0.2505
18201W        W61113  27.639  10.955  22.396  0.1771  0.1330  0.1277
18202W        W61114  26.689   9.107  22.423  0.1725 -0.0464  0.4320
18203W        W61115  26.520   8.168  21.402 -0.3090 -0.0071  0.1769
18204W        W61116  28.690  10.291  22.187 -0.2205  0.0830  0.0415
18205W        W61117  25.982   9.604  21.964 -0.0160 -0.2808  0.2453
18206W        W61118  28.599   8.757  23.110  0.3736 -0.2840 -0.0511
18207W        W61119  28.168   8.508  22.899 -0.1015  0.0094  0.2270
18208W        W61120  25.595   7.292  21.593  0.1358 -0.2261 -0.1373
18209W        W61121  26.645   8.837  20.602 -0.0931 -0.0654  0.1135
18210W        W61122  26.825   7.654  21.068  0.2695  0.2042 -0.0384
18211W        W61123  24.781  10.601  21.305 -0.0320 -0.2597 -0.4809
18212W        W61124  28.299   9.143  22.930 -0.1489  0.2504  0.1273
18213W        W61125  28.802   9.222  23.286  0.0551  0.0733 -0.0729
18214W        W61126  26.676   7.341  23.602 -0.0259  0.0387 -0.1149
18215W        W61127  29.509   9.066  23.850 -0.2247 -0.0704  0.2623
18216W        W61128  28.372   7.225  20.422 -0.2463  0.0025  0.1762
18217W        W61129  26.108   8.281  22.790  0.1027  0.0565  0.3125
18218W        W61130  26.194   7.764  19.299  0.0294  0.1796  0.0162
18219W        W61131  27.515   8.584  22.352  0.1520  0.2509  0.2394
18220W        W61132  26.489  10.543  22.981  0.2218 -0.0827 -0.0049
18221W        W61133  26.877  10.908  23.082 -0.0677  0.1471  0.2987
18222W        W61134  27.430   9.528  22.021 -0.0321 -0.2811 -0.1877
18223W        W61135  28.265  10.474  22.646  0.3878  0.4073 -0.1464
18224W        W61136  27.617   7.496  23.764 -0.3632  0.0105 -0.4208
18225W        W61137  27.008   7.010  20.285  0.3905  0.3044  0.1551
18226W        W61138  27.318   9.682  20.979 -0.1100  0.1718  0.2459
18227W        W61139  27.722  10.500  21.528 -0.3119  0.0993  0.2283
18228W        W61140  26.366   8.618  22.070 -0.1253 -0.2556 -0.1194
18229W        W61141  27.312   9.800  22.500  0.0164  0.1010 -0.0671
18230W        W61142  26.040   8.949  20.013  0.2840 -0.0431  0.4954
18231W        W61143  27.431   9.910  23.451 -0.1370  0.0140  0.1029
18232W        W61144  27.132  10.370  20.434 -0.0667  0.1348  0.0954
18233W        W61145  28.130   9.174  23.393  0.0707  0.1906  0.4345
18234W        W61146  25.330  10.696  22.507 -0.0812 -0.0199 -0.0148
18235W        W61147  26.643   8.636  20.138  0.1125 -0.0048  0.0347
18236W        W61148  23.886   8.873  21.155  0.3796 -0.1149 -0.2247
18237W        W61149  27.501   7.146  22.390  0.0665  0.5173 -0.1112
18238W        W61150  28.746   9.942  21.172 -0.2188 -0.0038 -0.2007
18239W        W61151  25.456   6.896  22.531  0.2763  0.1312  0.2023
18240W        W61152  26.079   6.536  21.317 -0.0488 -0.0442 -0.3525
18241W        W61153  25.634  10.567  23.314 -0.1861 -0.2723  0.2431
18242W        W61154  28.599   7.251  22.732  0.0453 -0.2278 -0.0766
18243W        W61155  28.381   7.434  21.948  0.0171  0.0407  0.0527
18244W        W61156  27.022   8.737  22.496 -0.3502 -0.0634 -0.1041
18245W        W61157  26.588   9.614  24.011 -0.0735  0.2471 -0.1121
18246W        W61158  26.095   8.057  20.701  0.0457  0.0399  0.0158
18247W        W61159  28.011   7.956  23.025 -0.2931  0.3565 -0.1845
18248W        W61160  25.798   7.946  23.833  0.1107 -0.1517  0.3764
18249W        W61161  25.402  11.312  20.535 -0.2995  0.0201  0.3185
18250W        W61162  26.625  10.154  21.743 -0.3767  0.4084  0.0655
18251W        W61163  26.470   9.107  20.246  0.0145  0.0284  0.2932
18252W        W61164  27.100   9.834  20.481  0.0632 -0.5478  0.3790
18253W        W61165  26.156   8.361  23.428  0.4868 -0.1644  0.1511
18254W        W61166  28.952   8.180  22.404  0.3584  0.0238 -0.0124
18255W        W61167  26.577   6.915  22.624  0.0901 -0.0588 -0.0433
18256W        W61168  25.756   7.784  21.613  0.0763  0.1171  0.1843
18257W        W61169  27.171   8.699  20.921  0.1119  0.2128  0.2574
18258W        W61170  28.116  10.058  24.043 -0.1956  0.0924 -0.1005
18259W        W61171  29.036   7.454  22.859 -0.0533  0.0244  0.2914
18260W        W61172  25.866   9.742  24.709  0.1439  0.0876  0.2235
18261W        W61173  26.055   6.965  23.192 -0.1804  0.0491 -0.1070
18262W        W61174  28.773  10.382  20.233  0.1404  0.0880  0.2768
18263W        W61175  27.299   9.611  22.978 -0.1136 -0.1734 -0.0195
18264W        W61176  24.516   9.267  20.881  0.0601 -0.0435 -0.0944
18265W        W61177  25.135   9.462  21.472  0.1443  0.0962  0.1224
18266W        W61178  25.614  10.071  20.602  0.0576 -0.1577  0.0252
18267W        W61179  26.588   7.103  23.166 -0.0456  0.0300  0.1051
18268W        W61180  26.469  10.083  22.774  0.3154  0.0120  0.2537
18269W        W61181  26.591   9.479  19.418  0.1873 -0.3670  0.2362
18270W        W61182  26.288  10.854  22.302 -0.4515 -0.1504 -0.0278
18271W        W61183  27.575   7.746  21.563 -0.4074 -0.1487  0.1903
18272W        W61184  27.098   8.890  19.807 -0.0318 -0.1938 -0.0214
18273W        W61185  26.854   8.418  23.520  0.1281  0.1361  0.0307
18274W        W61186  29.773   7.182  23.201 -0.2971 -0.1506  0.1538
18275W        W61187  28.515   9.713  19.708 -0.0543  0.0367  0.0901
18276W        W61188  26.409   6.690  23.390 -0.0340 -0.1974  0.2643
18277W        W61189  27.022   9.014  23.514  0.3342 -0.0090 -0.4425
18278W        W61190  27.343  10.181  21.691  0.0437  0.1517  0.1732
18279W        W61191  26.198   7.928  24.633 -0.3392  0.0530 -0.1123
18280W        W61192  26.976  10.322  23.527 -0.1175  0.1475 -0.0694
18281W        W61193  25.418   8.579  24.794 -0.3916 -0.0544 -0.0944
18282W        W61194  26.968   6.984  21.083 -0.1042 -0.0380  0.2154
18283W        W61195  26.808   6.145  21.085  0.2518 -0.0106 -0.0852
18284W        W61196  27.347   9.104  23.129 -0.0369 -0.0072  0.0167
18285W        W61197  28.347   8.789  22.009  0.3754  0.0985  0.3251
18286W        W61198  28.067  10.118  20.607  0.1708 -0.2159 -0.0367
18287W        W61199  27.436   9.150  21.653  0.0720 -0.1924 -0.1290
18288W        W61200  25.395   8.871  22.013 -0.1877 -0.0447  0.2183
18289W        W61201  26.905   8.337  21.665 -0.0282 -0.1625 -0.2598
18290W        W61202  27.107   8.063  20.221 -0.0751  0.0619 -0.2150
18291W        W61203  26.498   9.822  20.399 -0.2207 -0.0573 -0.1900
18292W        W61204  26.440   4.977  23.733 -0.3892  0.0943  0.1344
18293W        W61205  27.148   9.106  22.050  0.2938  0.0947  0.1289
18294W        W61206  27.345   7.950  21.121  0.1197 -0.2327 -0.0420
18295W        W61207  29.470   8.714  23.417  0.0343  0.0232 -0.3426
18296W        W61208  28.534   7.896  22.099 -0.0918  0.0924 -0.1940
18297W        W61209  26.465   9.293  23.586 -0.0991  0.0258  0.2445
18298W        W61210  25.677   8.424  24.255  0.2586  0.2715  0.2268
18299W        W61211  28.478  11.436  22.123 -0.0384 -0.2243 -0.0998
18300W        W61212  28.213   8.384  20.055  0.1641  0.1548  0.4279
18301W        W61213  29.649   7.965  22.121  0.5171 -0.0987 -0.3212
18302W        W61214  27.460   8.886  20.504 -0.0480 -0.0195  0.1784
18303W        W61215  27.322  11.400  20.242 -0.0934  0.0266 -0.1922
18304W        W61216  26.167   8.053  24.146  0.0586 -0.2873  0.0385
18305W        W61217  28.257   9.589  24.242  0.0009  0.2070 -0.0160
18306W        W61218  26.571   8.176  20.043 -0.2036 -0.3686 -0.0940
18307W        W61219  27.801   6.599  22.968  0.0484 -0.2272 -0.0135
18308W        W61220  27.111  10.838  20.179 -0.2190 -0.0412 -0.0337
18309W        W61221  29.420   8.161  21.616 -0.5590 -0.0986  0.2099
18310W        W61222  27.809   7.883  21.001 -0.3227  0.1762  0.3964
18311W        W61223  23.824   7.818  22.002 -0.1596 -0.0591 -0.1758
18312W        W61224  26.443  10.281  23.595 -0.0524 -0.0901  0.1361
18313W        W61225  25.322   7.371  19.646 -0.1438  0.0183 -0.1791
18314W        W61226  27.851   8.649  20.318 -0.2330  0.0253  0.0504
18315W        W61227  26.394   7.507  22.300  0.4476  0.1627 -0.0105
18316W        W61228  29.824   8.566  23.839 -0.0048  0.3123 -0.1467
18317W        W61229  27.560   7.150  18.585  0.0309 -0.1371  0.2414
18318W        W61230  29.810   9.922  23.494 -0.1512 -0.3129 -0.1284
18319W        W61231  26.838   9.404  21.635 -0.1379 -0.1595  0.0645
18320W        W61232  25.894   9.092  22.171 -0.0362  0.0945 -0.3271
18321W        W61233  27.454  11.038  23.736 -0.0394  0.0145 -0.0309
18322W        W61234  24.414  10.127  23.863  0.2486 -0.1602  0.1857
18323W        W61235  26.984   9.946  22.797  0.0141 -0.2130  0.0120
18324W        W61236  28.166   7.673  23.487  0.3992 -0.2159  0.2327
18325W        W61237  25.965   8.310  21.722  0.2467 -0.2493 -0.1675
18326W        W61238  26.289   9.168  21.812 -0.2132  0.0342  0.0612
18327W        W61239  29.390   8.159  23.380 -0.3475 -0.0164  0.2986
18328W        W61240  27.227  11.212  22.525  0.0156 -0.0549  0.2386
18329W        W61241  26.672   9.839  23.249  0.1533  0.1687 -0.1039
18330W        W61242  27.272  10.780  22.769 -0.2611 -0.2029  0.4500
18331W        W61243  28.404   9.556  22.671 -0.1613  0.0813  0.1504
18332W        W61244  25.861  10.051  22.692  0.2108  0.0226 -0.2466
18333W        W61245  25.842   7.454  23.817 -0.2921  0.1589 -0.0052
18334W        W61246  26.768   9.107  23.962 -0.2823 -0.5974 -0.0712
18335W        W61247  27.182   9.383  23.820  0.0179 -0.1508  0.0244
18336W        W61248  25.551   5.930  21.697  0.0124 -0.1722  0.1745
18337W        W61249  27.227   9.977  19.995 -0.0483  0.0641  0.1712
18338W        W61250  26.100  11.266  22.621  0.1868 -0.1210  0.0546
18339W        W61251  25.796   9.523  22.365  0.1343  0.1480 -0.1277
18340W        W61252  26.552  10.094  21.167  0.0017  0.0613 -0.0181
18341W        W61253  27.045  10.402  19.761 -0.1431 -0.1897  0.0220
18342W        W61254  27.044  10.103  20.909 -0.0747 -0.1512 -0.1901
18343W        W61255  27.004  10.426  22.988  0.0946 -0.1348  0.0080
18344W        W61256  26.658   8.604  21.106 -0.0727  0.1218  0.1886
18345W        W61257  25.902   9.322  21.426 -0.0717 -0.5313 -0.0390
18346W        W61258  26.508   9.065  19.729  0.3535  0.1390 -0.0468
18347W        W61259  27.192  10.223  19.206  0.0466 -0.1383 -0.1369
18348W        W61260  26.614   9.544  22.792  0.2419 -0.0097 -0.3033
18349W        W61261  27.698   8.306  23.177  0.2403  0.0891  0.0132
18350W        W61262  27.556   7.472  20.912  0.0236 -0.0882  0.1969
18351W        W61263  27.386  10.581  20.815  0.0402  0.2682 -0.1195
18352W        W61264  29.197   6.621  20.914  0.1825  0.3318 -0.1918
18353W        W61265  26.668  11.719  23.618  0.0186 -0.2973 -0.2409
18354W        W61266  24.945   7.460  22.156 -0.0158  0.3465 -0.0934
18355W        W61267  26.537   7.222  21.085  0.0810 -0.0431  0.0159
18356W        W61268  26.717   9.881  24.425 -0.0448 -0.0114 -0.3579
18357W        W61269  29.586   8.145  23.818  0.1094 -0.0617  0.3773
18358W        W61270  25.550  10.456  22.852 -0.0776  0.4209  0.3484
18359W        W61271  27.072  11.328  18.731 -0.2611  0.0864 -0.1332
18360W        W61272  26.541   7.043  22.103 -0.2522  0.2465  0.1794
18361W        W61273  25.875   9.199  22.885  0.3243 -0.0330  0.1083
18362W        W61274  29.137   7.766  22.099 -0.2333 -0.0032  0.0161
18363W        W61275  27.115   9.365  19.811 -0.2875  0.0971 -0.1212
18364W        W61276  27.979   8.689  22.432  0.0987  0.0712  0.1252
18365W        W61277  25.868  10.513  20.787  0.0294 -0.0910  0.4307
18366W        W61278  26.718  10.145  23.939  0.0645 -0.2016 -0.2892
18367W        W61279  27.083   9.238  22.746  0.2332  0.2225 -0.1082
18368W        W61280  25.912   6.874  21.799 -0.2659 -0.1816 -0.0807
18369W        W61281  28.524   8.522  21.019 -0.1104  0.0830 -0.0983
18370W        W61282  25.600   8.086  22.833 -0.0300 -0.2193 -0.1656
18371W        W61283  28.949   7.113  23.591  0.1141 -0.3449 -0.1979
18372W        W61284  26.009   8.193  22.310  0.0982 -0.3774  0.0020
18373W        W61285  27.396   8.296  21.531 -0.0906  0.2658  0.1720
18374W        W61286  27.118   8.672  23.945 -0.0725  0.2634  0.0292
18375W        W61287  26.496   7.606  24.156  0.3093 -0.3394  0.0497
18376W        W61288  27.112   8.368  19.696 -0.1694  0.4217 -0.1111
18377W        W61289  28.932   8.789  23.504 -0.0846 -0.2310  0.0043
18378W        W61290  28.132   8.130  19.193  0.3842 -0.2326 -0.1098
18379W        W61291  29.665  10.205  22.467 -0.3605 -0.0148 -0.0173
18380W        W61292  25.385   7.913  22.355 -0.1226 -0.2021 -0.1360
18381W        W61293  27.947   8.196  20.537 -0.1353  0.3653  0.0984
18382W        W61294  26.376   9.366  21.292 -0.1858  0.0237 -0.2880
18383W        W61295  25.931   8.762  23.111 -0.1206  0.1225  0.3515
18384W        W61296  28.494  10.840  23.142 -0.1551  0.0050 -0.0357
18385W        W61297  25.369   6.828  21.471  0.3319 -0.1074 -0.2293
18386W        W61298  27.609  10.438  18.933 -0.1262 -0.1023 -0.1904
18387W        W61299  29.235   9.031  22.471  0.2836 -0.1030 -0.0229
18388W        W61300  26.258  11.808  20.642  0.1545 -0.1634 -0.0471
18389W        W61301  28.942   8.723  22.180  0.1374 -0.2099  0.1643
18390W        W61302  28.384  10.325  23.168  0.2262  0.2201  0.3134
18391W        W61303  24.154   7.735  22.559 -0.2213 -0.4112 -0.1279
18392W        W61304  28.094   9.980  22.723 -0.0788  0.0115  0.0381
18393W        W61305  28.340   9.774  21.937 -0.1337 -0.0677 -0.0071
18394W        W61306  27.166   5.966  20.224  0.4286  0.4623 -0.1931
18395W        W61307  25.987   7.935  23.141  0.0299  0.0528  0.0596
18396W        W61308  26.500  10.396  22.202 -0.5886  0.0552 -0.0574
18397W        W61309  29.229   8.382  21.993 -0.1162  0.3845 -0.3203
18398W        W61310  28.529   8.415  22.431  0.1439  0.1434 -0.0384
18399W        W61311  27.082  11.635  18.153 -0.2673  0.1453  0.0569
18400W        W61312  27.929   7.160  23.508  0.0595  0.2514 -0.4356
18401W        W61313  27.577  10.025  22.184 -0.1405  0.0001  0.0093
18402W        W61314  25.957   9.382  23.887 -0.4107 -0.0857 -0.4021
18403W        W61315  25.526   8.424  20.763  0.0440 -0.4289 -0.1528
18404W        W61316  25.397   8.997  22.913 -0.1366 -0.2596  0.0486
18405W        W61317  27.416   8.594  22.828  0.0676 -0.0534 -0.1055
18406W        W61318  25.997  10.795  21.241 -0.0237 -0.1978 -0.2562
18407W        W61319  28.477   9.650  23.171 -0.0128 -0.0334  0.0795
18408W        W61320  25.707   7.627  22.114  0.0798  0.3243  0.1972
18409W        W61321  28.947  11.257  21.775 -0.0992 -0.3688 -0.1972
18410W        W61322  26.766   7.521  21.945 -0.2436  0.2834  0.0734
18411W        W61323  29.996   8.388  21.184  0.1422  0.3378  0.0154
18412W        W61324  28.321   6.572  21.476  0.1735 -0.1630 -0.2860
18413W        W61325  26.097   9.690  22.958 -0.0718  0.0814  0.0996
18414W        W61326  25.249   8.335  20.309  0.0768 -0.2568 -0.0821
18415W        W61327  26.693   9.413  20.574  0.2405  0.2829 -0.1091
18416W        W61328  25.541  10.489  22.001 -0.0383 -0.3910 -0.3114
18417W        W61329  26.624   7.211  24.550  0.1931  0.2060  0.0033
18418W        W61330  27.063   6.995  22.819  0.1002  0.3605  0.0070
18419W        W61331  26.208   8.891  21.271  0.1604  0.1405 -0.0069
18420W        W61332  25.534   6.473  21.777  0.0058  0.0148  0.1746
18421W        W61333  28.782   9.076  20.276  0.2384 -0.0310  0.3862
18422W        W61334  25.947   7.748  22.529  0.0335 -0.0952 -0.1555
18423W        W61335  24.239   5.726  21.605  0.1298 -0.2711  0.1756
18424W        W61336  27.440   9.702  21.512  0.0142  0.1331 -0.1387
18425W        W61337  28.630   9.458  21.665 -0.0012  0.0311  0.0808
18426W        W61338  26.553   8.115  20.894 -0.3608 -0.0558 -0.0864
18427W        W61339  27.697   9.377  23.433  0.1273 -0.1495 -0.1393
18428W        W61340  25.088  10.005  21.272  0.1496  0.1291 -0.0405
18429W        W61341  27.343   8.623  23.382  0.0519 -0.2905  0.2429
18430W        W61342  27.080   6.068  25.191  0.1285 -0.1441 -0.0215
18431W        W61343  26.764   7.219  21.543  0.1017  0.3120  0.1327
18432W        W61344  28.004   7.094  22.102  0.0398  0.1962 -0.2592
18433W        W61345  27.663  10.858  21.232  0.0103 -0.1680  0.1439
18434W        W61346  26.564  10.433  19.556  0.0599 -0.0946 -0.4405
18435W        W61347  25.890   8.947  23.600 -0.1682 -0.1116  0.3569
18436W        W61348  25.603  10.998  22.812 -0.1425 -0.2320 -0.1586
18437W        W61349  25.760   7.468  23.304  0.2997  0.0629 -0.3017
18438W        W61350  28.110  10.958  21.553  0.0640 -0.0351  0.1063
18439W        W61351  27.877   9.656  23.823  0.0339 -0.1180 -0.0526
18440W        W61352  28.650   9.136  20.774  0.0734  0.2246  0.3791
18441W        W61353  28.176   7.910  21.730 -0.3425 -0.0193 -0.0564
18442W        W61354  27.887   9.626  20.474 -0.1502  0.1325  0.0631
18443W        W61355  25.366   6.258  22.765  0.2810 -0.0905 -0.0796
18444W        W61356  25.045   9.248  23.716 -0.0108  0.1606 -0.2012
18445W        W61357  28.856   9.234  22.728 -0.3719 -0.0009 -0.1110
18446W        W61358  24.924   7.906  21.408 -0.2914  0.0265  0.0824
18447W        W61359  28.881   7.355  21.938 -0.0606  0.0550 -0.2547
18448W        W61360  27.174   8.986  18.919 -0.1347  0.3749  0.1095
18449W        W61361  26.525   8.056  23.298 -0.1894 -0.2437 -0.3079
18450W        W61362  27.210   8.184  22.561  0.0593 -0.3674 -0.0001
18451W        W61363  27.299   8.180  23.696  0.2887 -0.0687  0.0844
18452W        W61364  27.406  10.159  22.929  0.0881  0.2454 -0.3213
18453W        W61365  27.755   8.272  22.650  0.0973  0.0075 -0.0084
18454W        W61366  27.232   7.474  21.316  0.2327  0.1892 -0.0451
18455W        W61367  29.395   9.662  20.557 -0.2232 -0.0001  0.2062
18456W        W61368  29.720  10.900  23.720  0.0706 -0.1286 -0.0140
18457W        W61369  28.621   9.867  24.069  0.0155  0.3539  0.0417
18458W        W61370  26.895  10.465  21.470 -0.1787 -0.0027  0.0972
18459W        W61371  28.195   9.265  22.157 -0.5352  0.2350  0.2778
18460W        W61372  25.284   6.003  21.281 -0.0056 -0.1231  0.0342
18461W        W61373  26.910   9.544  22.292  0.0114 -0.3394  0.3541
18462W        W61374  28.257  10.030  21.122 -0.1329  0.2523 -0.1512
18463W        W61375  28.436   9.454  21.179 -0.1428  0.0356  0.1993
18464W        W61376  24.551   6.513  21.221 -0.1684  0.0367 -0.0880
18465W        W61377  26.117   7.001  20.626 -0.2699 -0.0568  0.1024
18466W        W61378  26.533  10.956  24.829 -0.3235 -0.1554  0.4058
18467W        W61379  27.786   8.949  22.809 -0.0860 -0.1749  0.1764
18468W        W61380  26.517  10.199  25.639  0.1321 -0.0579  0.0676
18469W        W61381  26.759   9.358  24.403  0.7191 -0.0206 -0.3939
18470W        W61382  27.599   8.725  24.312 -0.1584 -0.0626 -0.0135
18471W        W61383  29.117   9.730  23.991  0.0222  0.1090  0.1584
18472W        W61384  24.947   7.825  24.384 -0.1936  0.1074  0.1581
18473W        W61385  27.767  10.399  23.623 -0.1440 -0.4404  0.1258
18474W        W61386  27.809   7.202  27.696 -0.1207  0.3239  0.0330
18475W        W61387  28.598   8.844  24.951  0.2591  0.2359  0.2084
18476W        W61388  26.974   9.820  25.431  0.0357  0.0987 -0.0982
18477W        W61389  27.949   8.252  24.405 -0.1162  0.0675  0.3889
18478W        W61390  26.941  10.042  25.866  0.3205 -0.0665 -0.3217
18479W        W61391  27.077  10.253  26.630  0.0684 -0.0300  0.2379
18480W        W61392  27.150   8.044  26.001  0.1389  0.1057  0.1918
18481W        W61393  25.606   7.038  26.240  0.2775  0.1380  0.0847
18482W        W61394  28.463   7.967  25.210 -0.3523  0.2490  0.0186
18483W        W61395  27.305   8.870  25.431  0.1356  0.1204 -0.1131
18484W        W61396  26.405   9.728  26.703  0.0272 -0.3982  0.0313
18485W        W61397  27.133   8.501  24.436 -0.1911 -0.2172 -0.1692
18486W        W61398  27.898  10.662  26.152  0.2931  0.0050  0.2741
18487W        W61399  27.942   8.870  26.035 -0.0503 -0.2531  0.3646
18488W        W61400  27.577   7.903  26.943  0.3361  0.0124  0.5511
18489W        W61401  26.761  10.387  24.639 -0.2513  0.1399  0.1630
18490W        W61402  25.474   9.050  23.852  0.1680  0.0935 -0.1341
18491W        W61403  24.860   9.765  27.648 -0.2676  0.1187  0.1911
18492W        W61404  27.467   8.988  25.935  0.2538  0.0932 -0.1456
18493W        W61405  28.440   8.485  25.591  0.1162 -0.3378 -0.0571
18494W        W61406  29.398   8.395  25.466 -0.1717  0.1027  0.2694
18495W        W61407  27.226  11.637  25.848  0.2486  0.0475 -0.1746
18496W        W61408  26.640  10.182  26.244  0.1422 -0.0097 -0.1390
18497W        W61409  26.464   8.516  26.959  0.0392  0.1540 -0.2468
18498W        W61410  24.156  10.042  25.464 -0.0434 -0.2801  0.0482
18499W        W61411  25.356   9.904  25.919  0.0659  0.1334 -0.0663
18500W        W61412  27.104  10.239  24.256 -0.1295 -0.2884  0.1204
18501W        W61413  29.328  10.669  24.159 -0.0524  0.1701  0.2896
18502W        W61414  27.387   9.884  26.803 -0.0887  0.1079  0.0648
18503W        W61415  27.082  10.865  27.407  0.2246 -0.0978  0.0279
18504W        W61416  26.196   9.919  24.250 -0.2782 -0.2000  0.2825
18505W        W61417  27.730  10.900  25.180 -0.0108  0.3135 -0.1677
18506W        W61418  25.568   9.676  25.566 -0.1474  0.1539 -0.3127
18507W        W61419  27.636   7.983  26.147 -0.1931  0.0693  0.0256
18508W        W61420  26.728   8.829  25.194  0.1528 -0.2315 -0.2230
18509W        W61421  26.903  11.019  25.146 -0.2075  0.2429 -0.2744
18510W        W61422  27.186  10.342  24.816 -0.2540  0.2988 -0.1715
18511W        W61423  26.052   9.304  26.975  0.1751  0.1067  0.0946
18512W        W61424  25.327  10.949  26.040 -0.2529 -0.1117 -0.0066
18513W        W61425  29.052   8.660  27.678  0.2191  0.2325 -0.2652
18514W        W61426  25.837   9.945  25.135 -0.1413 -0.1798 -0.3123
18515W        W61427  28.556   7.994  23.774  0.0720  0.3420 -0.3656
18516W        W61428  27.533   7.848  22.876 -0.3094 -0.3741  0.1205
18517W        W61429  29.085   8.091  23.822 -0.0020 -0.2849  0.3991
18518W        W61430  27.122   7.886  27.101  0.2292 -0.2171 -0.1556
18519W        W61431  25.775  11.194  26.205 -0.0582  0.2455 -0.1955
18520W        W61432  26.708   7.982  26.820 -0.0559  0.0665 -0.0573
18521W        W61433  28.488  10.117  26.618  0.1122 -0.0260 -0.0840
18522W        W61434  27.500   8.368  24.728  0.0113  0.1623 -0.0934
18523W        W61435  26.658   7.697  24.950  0.0436  0.0899  0.1820
18524W        W61436  26.315  10.045  27.435 -0.0932  0.1009 -0.6002
18525W        W61437  27.743   9.404  24.868  0.1244 -0.2685 -0.1871
18526W        W61438  27.851  10.778  22.934  0.0742 -0.0872 -0.1344
18527W        W61439  29.551  10.747  24.716  0.2104 -0.1573 -0.0734
18528W        W61440  26.370   9.078  23.093 -0.1704 -0.0578  0.0227
18529W        W61441  25.710   8.319  25.800  0.3130  0.2050  0.2339
18530W        W61442  26.200  10.321  26.014 -0.0756 -0.0545  0.1124
18531W        W61443  27.859   8.997  27.365 -0.0803  0.0130 -0.0404
18532W        W61444  28.278   7.472  23.049  0.1186  0.1859  0.0160
18533W        W61445  27.939  10.039  26.678 -0.1606 -0.0713  0.1023
18534W        W61446  26.287  11.926  26.680  0.1944  0.0900  0.0186
18535W        W61447  29.230   8.874  25.534  0.3232  0.0831 -0.0332
18536W        W61448  27.333  10.184  25.553  0.0215  0.1007 -0.2674
18537W        W61449  26.475   9.755  25.290 -0.3451 -0.0115  0.1222
18538W        W61450  28.594   9.670  25.198  0.0978 -0.4660 -0.2897
18539W        W61451  28.955   6.581  24.767  0.0474  0.1854  0.0649
18540W        W61452  28.223   7.890  26.258  0.2789 -0.0173  0.0709
18541W        W61453  26.048   9.472  23.423  0.0694 -0.0290 -0.0731
18542W        W61454  24.741  10.070  25.343 -0.1793 -0.1279  0.0617
18543W        W61455  29.057  10.400  24.800 -0.2734  0.1201  0.0253
18544W        W61456  28.196   9.144  24.858  0.1978 -0.0646  0.1715
18545W        W61457  24.922  11.168  26.442 -0.1153  0.1685  0.1539
18546W        W61458  26.665   7.842  27.645 -0.0761  0.1348  0.0940
18547W        W61459  27.589   9.987  27.334 -0.0938  0.0953  0.1177
18548W        W61460  26.778  10.620  23.876  0.0072 -0.0144 -0.0893
18549W        W61461  24.595   9.359  25.463  0.2262  0.1223 -0.0459
18550W        W61462  25.348  10.295  24.314  0.0348  0.0921 -0.0339
18551W        W61463  25.998   7.326  26.504 -0.1080  0.1668  0.1189
18552W        W61464  26.857   9.360  25.354 -0.0374 -0.2421  0.0091
18553W        W61465  28.376   7.581  24.961 -0.1666 -0.0326 -0.2024
18554W        W61466  26.183   8.369  27.825  0.0878  0.3938 -0.0503
18555W        W61467  29.487   7.556  26.785  0.0766  0.0991  0.1672
18556W        W61468  24.526  10.085  24.872  0.0987  0.0685 -0.0634
18557W        W61469  27.932   9.163  23.859  0.2938  0.2559 -0.1170
18558W        W61470  28.735   7.833  24.193 -0.0597 -0.0236 -0.1749
18559W        W61471  28.245   8.706  23.410 -0.0718 -0.0619 -0.3763
18560W        W61472  26.083   7.902  25.814 -0.0687 -0.0724 -0.0531
18561W        W61473  26.331   8.862  26.007 -0.4006 -0.1107  0.1830
18562W        W61474  25.898   6.743  26.979 -0.0117  0.0695  0.2623
18563W        W61475  26.034   8.207  25.028 -0.0121  0.2634  0.3426
18564W        W61476  28.476   8.133  26.625 -0.3040  0.0842  0.1888
18565W        W61477  26.433   6.698  23.958  0.2064  0.2443  0.1522
18566W        W61478  28.218   8.055  25.768  0.0672 -0.0723 -0.3755
18567W        W61479  28.096  10.201  24.545  0.0223 -0.1105  0.1670
18568W        W61480  24.669  10.573  24.513 -0.3565  0.2631  0.1134
18569W        W61481  29.067   8.132  27.488 -0.2104  0.2808 -0.1304
18570W        W61482  27.266   9.477  25.649  0.0867 -0.0186  0.2983
18571W        W61483  28.641  11.217  27.896  0.2425  0.1024  0.1725
18572W        W61484  29.132  10.581  27.296  0.2494  0.1533 -0.0221
18573W        W61485  26.222   9.900  26.240 -0.0768 -0.2315 -0.1661
18574W        W61486  25.050   7.762  24.897  0.1778 -0.2457  0.1771
18575W        W61487  25.407  11.843  25.906  0.0092 -0.1677  0.1696
18576W        W61488  26.760  10.117  25.037  0.0987 -0.1476 -0.0014
18577W        W61489  26.709   7.209  25.197  0.1051 -0.1511  0.0146
18578W        W61490  28.902  10.871  25.623 -0.0408 -0.0751 -0.1819
18579W        W61491  26.580  10.634  25.881  0.1061  0.0630 -0.0513
18580W        W61492  25.380   9.418  25.920 -0.2297 -0.1780  0.1012
18581W        W61493  28.134   8.779  25.291  0.1214  0.3965  0.0445
18582W        W61494  28.119   8.441  26.412 -0.0193  0.0117  0.2465
18583W        W61495  27.647   7.442  23.216 -0.1232 -0.2077 -0.0680
18584W        W61496  26.843   6.683  24.530 -0.1367  0.1278  0.0482
18585W        W61497  28.202   9.768  24.769 -0.2096  0.0737 -0.0566
18586W        W61498  24.723  11.336  24.911  0.1055 -0.2450  0.3272
18587W        W61499  25.352   8.831  24.312  0.3160 -0.2669  0.0018
18588W        W61500  27.466  10.692  25.681 -0.1485 -0.2882  0.0166
18589W        W61501  29.107   7.474  26.506  0.0926  0.0365 -0.1529
18590W        W61502  25.339  10.003  27.892  0.1111  0.0988 -0.0646
18591W        W61503  27.156   7.662  28.866 -0.0789 -0.0906  0.1213
18592W        W61504  25.366   6.917  24.673  0.2116 -0.0113 -0.1028
18593W        W61505  26.620  11.285  27.270  0.1458 -0.1705  0.0935
18594W        W61506  29.113   7.588  25.975  0.1588  0.2658 -0.0550
18595W        W61507  28.033   7.943  24.803 -0.1661  0.1453 -0.1290
18596W        W61508  28.082   9.687  25.692 -0.0129  0.2467 -0.2033
18597W        W61509  29.263   9.833  24.481  0.1784  0.1915 -0.1418
18598W        W61510  27.832   7.510  22.756 -0.1388 -0.0735 -0.2468
18599W        W61511  27.668   7.072  24.738 -0.1120  0.0207  0.2466
18600W        W61512  25.572  10.046  26.831  0.2568 -0.0983 -0.1734
18601W        W61513  27.295   9.442  25.171  0.2022  0.1662  0.0595
18602W        W61514  27.032  10.999  25.850  0.2139 -0.3204 -0.3804
18603W        W61515  28.470   8.492  24.409  0.0044  0.0860  0.0920
18604W        W61516  28.950   8.919  24.610 -0.0985 -0.0875 -0.0713
18605W        W61517  25.279   8.910  26.143 -0.1086  0.2114 -0.0516
18606W        W61518  27.142   9.777  27.583  0.1971 -0.1299 -0.0985
18607W        W61519  27.958  10.834  25.621  0.1888 -0.0815 -0.1123
18608W        W61520  26.531   7.349  27.580 -0.1408  0.0441  0.1296
18609W        W61521  26.299   9.426  22.381  0.3501 -0.1209  0.1095
18610W        W61522  27.018   8.173  24.942 -0.1527  0.0070  0.1941
18611W        W61523  25.182  10.796  23.578  0.2774  0.1028 -0.1648
18612W        W61524  27.578   7.231  25.721 -0.2201  0.1176  0.1055
18613W        W61525  28.615   7.636  26.118  0.0624  0.0553 -0.1231
18614W        W61526  28.115   6.349  28.173 -0.1879  0.1250  0.0489
18615W        W61527  27.994   8.251  26.849 -0.0236 -0.2651 -0.0755
18616W        W61528  28.206   8.274  23.959  0.0523  0.0397 -0.2609
18617W        W61529  28.033   8.638  24.728  0.0227 -0.0867 -0.0502
18618W        W61530  26.609   8.674  24.200 -0.0509 -0.1141 -0.0377
18619W        W61531  27.353   7.395  27.803 -0.0411  0.0735 -0.2928
18620W        W61532  25.045   9.717  28.127 -0.1505 -0.2947 -0.0608
18621W        W61533  25.090  12.679  26.913 -0.0697 -0.2674  0.2888
18622W        W61534  28.366  10.871  26.430  0.0083  0.4253  0.2276
18623W        W61535  27.636   8.075  25.622  0.1100 -0.2972 -0.4075
18624W        W61536  26.840   8.733  27.226 -0.2262  0.1211  0.2175
18625W        W61537  28.184   6.381  25.304 -0.4173 -0.0133 -0.0822
18626W        W61538  26.332  10.352  25.116  0.2919 -0.1280 -0.0638
18627W        W61539  27.478   8.965  23.781  0.4406  0.3552 -0.0778
18628W        W61540  26.171   7.858  27.612 -0.0005  0.1098  0.1581
18629W        W61541  27.320  10.192  26.235 -0.0342 -0.0132  0.1374
18630W        W61542  26.615   8.538  22.633  0.3475 -0.1702  0.2323
18631W        W61543  27.739  10.408  25.379 -0.1650  0.2066  0.0471
18632W        W61544  24.796  10.796  25.988  0.0311 -0.3544  0.0994
18633W        W61545  29.349   8.017  25.937  0.0414 -0.2491  0.1248
18634W        W61546  24.230   9.139  26.735 -0.1607  0.4549  0.2566
18635W        W61547  27.289   7.779  24.028  0.3754  0.2337  0.2779
18636W        W61548  25.184   9.580  24.595  0.0592  0.0273  0.0832
18637W        W61549  27.813   6.535  25.646  0.1714  0.1634 -0.2747
18638W        W61550  28.471   9.126  24.445  0.0695  0.3940  0.2657
18639W        W61551  27.419   8.434  25.251 -0.3141 -0.1463 -0.1337
18640W        W61552  26.369   7.466  26.186  0.0123 -0.0273 -0.2340
18641W        W61553  24.926  10.922  25.071  0.1713 -0.0128 -0.2237
18642W        W61554  26.771   8.518  26.102  0.0421  0.2003  0.0582
18643W        W61555  28.071   7.449  23.892  0.1908  0.2192  0.0078
18644W        W61556  27.453   9.603  27.888  0.1657  0.2940  0.1364
18645W        W61557  27.521  10.298  27.972  0.3027 -0.2367 -0.0713
18646W        W61558  26.449   9.327  25.040 -0.0216 -0.1776  0.3414
18647W        W61559  28.702   9.233  26.186  0.0547 -0.0898  0.1379
18648W        W61560  25.719   8.054  24.614 -0.1791 -0.0134  0.0642
18649W        W61561  24.039   9.231  25.209  0.1593 -0.1655  0.1354
18650W        W61562  26.678   9.213  26.160  0.0249 -0.1951  0.2692
18651W        W61563  25.047   8.716  23.857  0.1404 -0.2579  0.0493
18652W        W61564  24.372   9.870  26.328  0.0404 -0.1014  0.1548
18653W        W61565  25.942   8.099  28.132  0.1425  0.0641 -0.0159
18654W        W61566  29.232  10.405  26.226  0.3033  0.0603 -0.0471
18655W        W61567  26.509   8.163  25.732 -0.0072 -0.1436  0.0421
18656W        W61568  26.171   7.481  24.625 -0.0045  0.1560  0.3154
18657W        W61569  26.217   8.816  25.159 -0.0865 -0.0369  0.0160
18658W        W61570  28.654   9.438  25.640 -0.1772 -0.3375  0.2245
18659W        W61571  26.636   8.430  27.679  0.1184 -0.2147  0.0300
18660W        W61572  26.503  10.817  27.883  0.2077 -0.1280 -0.0202
18661W        W61573  26.770   8.033  26.332 -0.0764  0.0166  0.2179
18662W        W61574  28.827   9.206  25.235  0.2904  0.0793  0.0539
18663W        W61575  27.718   9.412  25.858 -0.0817  0.2031 -0.2219
18664W        W61576  26.066  10.265  23.090 -0.1564  0.0376 -0.1561
18665W        W61577  25.101   9.881  26.770  0.1211  0.1025  0.1622
18666W        W61578  25.373  10.031  24.835 -0.4040  0.0644 -0.1963
18667W        W61579  26.508   8.514  28.203  0.2007 -0.2750 -0.1882
18668W        W61580  26.132   9.841  25.635  0.0218 -0.1176 -0.2184
18669W        W61581  24.391  10.418  25.214 -0.1801 -0.1317  0.1098
18670W        W61582  25.772  10.159  25.689  0.2273  0.1823 -0.1156
18671W        W61583  28.211   7.094  24.844 -0.2052  0.1234 -0.1455
18672W        W61584  28.412   8.965  23.789  0.0237  0.1752  0.0432
18673W        W61585  26.509   7.333  25.704 -0.3971  0.0978 -0.1368
18674W        W61586  28.106   9.350  26.167  0.1132 -0.2885  0.0696
18675W        W61587  29.924   9.671  25.425  0.1708  0.3703 -0.3466
18676W        W61588  29.320   6.415  27.438 -0.2441 -0.0774  0.2703
18677W        W61589  26.889   7.521  27.922 -0.1552  0.2978  0.0147
18678W        W61590  29.305   8.793  24.289  0.1550 -0.0010 -0.0477
18679W        W61591  25.801   8.234  26.383  0.0816  0.0408 -0.1593
18680W        W61592  27.226   9.391  26.225 -0.3445 -0.2870 -0.2480
18681W        W61593  25.233   8.994  28.845  0.0194 -0.1680  0.2905
18682W        W61594  27.339   7.565  25.348  0.0161  0.2621  0.2082
18683W        W61595  26.722   8.552  24.700  0.0406  0.0678  0.0780
18684W        W61596  25.774  10.452  25.241  0.0136  0.2080 -0.3368
18685W        W61597  29.205  10.813  25.208 -0.0434  0.0887  0.3252
18686W        W61598  26.861   9.654  24.851 -0.0289  0.0016  0.3898
18687W        W61599  29.045   8.328  24.325 -0.0858 -0.0568 -0.0418
18688W        W61600  25.820   9.693  25.998  0.0362 -0.1117 -0.1395
18689W        W61601  28.873   7.994  25.814 -0.1043  0.1350 -0.2261
18690W        W61602  26.246   9.396  24.352 -0.0399 -0.0819 -0.1150
18691W        W61603  25.689   9.258  27.328  0.0428  0.0394 -0.1237
18692W        W61604  27.346   8.146  28.455 -0.2549 -0.0904  0.0883
18693W        W61605  28.839   9.220  23.817  0.0637 -0.0542 -0.0255
18694W        W61606  27.894   7.614  25.888  0.0475  0.0705  0.1003
18695W        W61607  28.628   8.900  25.521  0.0716  0.0124 -0.1149
18696W        W61608  28.332   9.014  26.559 -0.1137 -0.1169 -0.0780
18697W        W61609  27.200   8.714  26.304 -0.0498 -0.2089 -0.0059
18698W        W61610  24.612   7.876  26.446 -0.0455  0.0252  0.0441
18699W        W61611  28.030  10.693  26.716  0.0661  0.3290 -0.3190
18700W        W61612  30.335   9.274  25.451  0.1904 -0.1497 -0.0370
18701W        W61613  29.234   7.990  26.787  0.0000  0.0674 -0.0040
18702W        W61614  28.947   7.932  26.347 -0.0419  0.2045  0.1046
18703W        W61615  28.091   8.755  24.214 -0.0272  0.1766  0.0786
18704W        W61616  25.739   8.792  26.032  0.0711 -0.2218 -0.3914
18705W        W61617  27.657   8.471  26.087 -0.1730  0.0770 -0.2829
18706W        W61618  27.181   7.748  23.333 -0.1914  0.0768  0.0117
18707W        W61619  27.545   7.666  27.380  0.1393 -0.2651  0.0945
18708W        W61620  26.293  10.562  24.681  0.1370  0.1479  0.3153
18709W        W61621  27.312   9.569  24.699  0.4261 -0.2203  0.1762
18710W        W61622  27.937   7.595  25.384 -0.0764 -0.0660  0.0199
18711W        W61623  24.719   9.277  27.864 -0.0849 -0.1211  0.1136
18712W        W61624  26.158  11.006  27.341 -0.1883 -0.1200 -0.0362
18713W        W61625  25.216   8.154  24.641  0.0598 -0.3095  0.0986
18714W        W61626  27.017   9.170  24.845 -0.1410 -0.1217  0.0272
18715W        W61627  27.424   9.950  25.046  0.0437  0.0592  0.2400
18716W        W61628  28.392   9.288  28.382 -0.0992 -0.0415 -0.3653
18717W        W61629  28.312   6.014  24.827 -0.0917 -0.1098  0.1173
18718W        W61630  28.720   6.950  28.069 -0.0485 -0.2491 -0.1944
18719W        W61631  24.480  10.342  25.718 -0.1962 -0.0219  0.1566
18720W        W61632  26.525   8.651  25.602  0.2448 -0.0088 -0.1549
18721W        W61633  25.844  11.035  25.662  0.1337  0.1499  0.2793
18722W        W61634  24.891  10.067  25.815  0.1487 -0.0993  0.2464
18723W        W61635  26.301   9.970  24.782  0.3511 -0.3676  0.0257
18724W        W61636  27.132   8.409  27.594 -0.1463 -0.3507 -0.0365
18725W        W61637  27.771   8.596  25.632 -0.0899 -0.2536 -0.0490
18726W        W61638  27.635  10.443  24.278  0.2673  0.1261  0.3215
18727W        W61639  29.072   8.903  26.170 -0.1354  0.0113 -0.4734
18728W        W61640  26.872  10.623  26.382 -0.3154 -0.0870 -0.0409
18729W        W61641  24.941   9.706  25.055 -0.0457 -0.1270  0.1029
18730W        W61642  27.681  11.072  26.442  0.1885 -0.3173  0.0912
18731W        W61643  29.721   9.492  24.613 -0.1241 -0.1790 -0.1798
18732W        W61644  27.325  10.984  24.919  0.1102 -0.1046  0.0358
18733W        W61645  26.030   8.737  26.995 -0.0078  0.0816  0.2336
18734W        W61646  26.474   9.346  28.386 -0.0723 -0.1953  0.1860
18735W        W61647  27.505   7.963  25.063  0.1253  0.1277  0.0656
18736W        W61648  26.412   7.149  27.031 -0.1010 -0.4978 -0.2761
18737W        W61649  27.971   8.267  25.238  0.3553 -0.0967  0.0556
18738W        W61650  25.687   9.153  29.039  0.0505 -0.0393  0.1407
18739W        W61651  26.452   9.010  26.873  0.1809  0.1407  0.5242
18740W        W61652  25.410  10.529  24.887  0.1723  0.0050  0.0153
18741W        W61653  27.461   9.991  24.547  0.0798  0.2176  0.2052
18742W        W61654  27.099   9.011  24.369  0.2228 -0.2444 -0.0211
18743W        W61655  27.022  11.507  25.023 -0.2805 -0.1930 -0.1593
18744W        W61656  28.132   6.576  24.842  0.1754 -0.0367  0.1495
18745W        W61657  25.008  11.331  26.005 -0.0323  0.1985 -0.0683
18746W        W61658  25.121   9.839  24.133 -0.0118 -0.0222 -0.2986
18747W        W61659  27.681   8.489  23.736 -0.0994  0.3647 -0.1588
18748W        W61660  25.465  10.910  26.556 -0.0180 -0.1539  0.0439
18749W        W61661  28.368  10.286  26.086  0.2209  0.0300  0.0620
18750W        W61662  29.701   9.314  22.404 -0.1469  0.1718 -0.0319
18751W        W61663  29.132   9.319  25.820  0.0756 -0.1250 -0.1152
18752W        W61664  28.037   7.357  24.411  0.2280  0.0222 -0.1810
18753W        W61665  28.103  10.842  27.214 -0.1637 -0.5115  0.0093
18754W        W61666  25.889   9.680  26.577  0.2028 -0.2213  0.1356
18755W        W61667  27.109   7.669  24.867 -0.0819  0.0525  0.4303
18756W        W61668  26.434   9.616  27.221  0.1305 -0.0018  0.3163
18757W        W61669  29.311   8.842  27.207  0.1649  0.1725  0.1743
18758W        W61670  25.715  11.241  27.245 -0.1256  0.1965  0.4997
18759W        W61671  26.000  10.264  23.889  0.2015 -0.2555 -0.1183
18760W        W61672  27.266   7.958  24.480  0.3256 -0.1402 -0.3167
18761W        W61673  27.479   9.017  24.703  0.1069 -0.0285 -0.2781
18762W        W61674  28.886   6.818  25.426  0.1082 -0.0495 -0.2432
18763W        W61675  27.541   9.277  24.143 -0.0604 -0.0127  0.0893
18764W        W61676  28.895   7.625  24.930  0.0629  0.4351 -0.1095
18765W        W61677  25.252  11.737  24.787 -0.2352  0.0619  0.1858
18766W        W61678  25.439   9.780  26.397  0.1481 -0.0255  0.2087
18767W        W61679  25.984  11.540  26.963  0.1068 -0.3843  0.2407
18768W        W61680  24.549   8.239  23.308 -0.0771  0.2709 -0.1010
18769W        W61681  28.610   8.321  26.130  0.1354  0.0705  0.4668
18770W        W61682  27.578   8.636  27.613 -0.0156 -0.0420  0.1636
18771W        W61683  28.821   8.513  26.577  0.0763 -0.2307  0.1491
18772W        W61684  25.024   9.639  25.593 -0.0937  0.3484 -0.1391
18773W        W61685  28.573   7.886  24.639 -0.0657  0.1134  0.0494
18774W        W61686  27.510   9.858  25.927 -0.0628 -0.2571  0.0303
18775W        W61687  26.232   9.241  27.466  0.0286  0.0399 -0.1072
18776W        W61688  26.287   7.732  23.662 -0.0287 -0.0236  0.0475
18777W        W61689  27.887  10.272  25.838  0.1252  0.1613 -0.2592
18778W        W61690  28.354   8.351  24.926  0.3832 -0.2733 -0.0367
18779W        W61691  28.457  11.036  26.875 -0.0611 -0.0319 -0.0494
18780W        W61692  26.289   8.284  26.563 -0.0305 -0.3290 -0.0678
18781W        W61693  27.811   7.787  24.416  0.1980  0.1576  0.2946
18782W        W61694  26.028  11.349  25.328  0.1246  0.4060 -0.1892
18783W        W61695  27.308   8.961  27.226  0.1534 -0.0649  0.0787
18784W        W61696  28.832  10.540  26.591  0.1117 -0.1721 -0.1802
18785W        W61697  26.559   7.627  27.184  0.1302 -0.0259  0.0952
18786W        W61698  29.750   9.462  23.661  0.0981 -0.0951  0.2948
18787W        W61699  28.568   8.462  23.684 -0.1102 -0.0440  0.2350
18788W        W61700  26.576  10.751  23.418 -0.1354 -0.0904  0.1752
18789W        W61701  29.316   9.309  25.299 -0.3065  0.0401  0.2440
18790W        W61702  26.673   9.606  25.777  0.2423  0.3697  0.1074
18791W        W61703  26.503   8.235  25.152 -0.1980  0.0083  0.1292
18792W        W61704  27.880  11.237  27.475  0.2186 -0.1443 -0.0670
18793W        W61705  26.920   9.003  26.781 -0.3171  0.2001  0.3578
18794W        W61706  27.048   7.137  24.737 -0.0697 -0.4750  0.4039
18795W        W61707  26.224   9.305  26.404  0.2773  0.0901 -0.2779
18796W        W61708  25.145  11.077  25.584  0.0298 -0.4644  0.0245
18797W        W61709  27.283   8.520  25.827  0.0847 -0.0200 -0.1798
18798W        W61710  27.649   8.180  27.399 -0.2372  0.1287  0.0498
18799W        W61711  27.131   9.691  24.191 -0.1481 -0.0776  0.1060
18800W        W61712  29.618   7.278  25.959 -0.1217 -0.0072  0.0135
18801W        W61713  26.948   9.754  27.075 -0.0730 -0.0424 -0.0641
18802W        W61714  27.428  11.129  27.644  0.1526  0.2342  0.0648
18803W        W61715  25.162   8.346  23.330  0.0340 -0.0947 -0.0876
18804W        W61716  25.932   8.837  25.576  0.3068  0.2867  0.0820
18805W        W61717  27.304  10.501  23.864 -0.0929  0.1930 -0.1630
18806W        W61718  26.073  10.810  25.178 -0.1580  0.0004  0.0257
18807W        W61719  27.680   9.847  25.420  0.1234 -0.0054 -0.0845
18808W        W61720  26.872   8.978  25.746  0.0291  0.2655 -0.2741
18809W        W61721  29.413  10.593  25.680  0.5019 -0.0295  0.0818
18810W        W61722  26.239   8.030  27.065  0.4005  0.2262 -0.0355
18811W        W61723  27.686   7.933  23.473  0.0072  0.0892 -0.0558
18812W        W61724  27.784   7.527  24.865 -0.2548  0.1450 -0.3099
18813W        W61725  26.116  10.555  25.603 -0.2216  0.0467 -0.0502
18814W        W61726  26.377   8.996  24.681 -0.0503  0.2414 -0.0378
18815W        W61727  26.032   8.480  23.934  0.0730 -0.0734  0.1237
18816W        W61728  23.525  10.057  25.954  0.1225  0.0271  0.2369
18817W        W61729  28.209   7.843  26.965 -0.1550 -0.7042 -0.4229
18818W        W61730  26.478  10.159  26.905 -0.0616 -0.3412  0.1314
18819W        W61731  24.805   9.400  26.057 -0.0185  0.0486  0.0455
18820W        W61732  26.314   6.877  24.968  0.1213 -0.0023  0.0107
18821W        W61733  28.468  10.371  24.217 -0.2905 -0.0110 -0.0250
18822W        W61734  25.815   7.446  26.011 -0.0007  0.0412  0.1408
18823W        W61735  26.246   7.302  25.143  0.0813 -0.3538 -0.5519
18824W        W61736  29.169   9.319  24.769 -0.0196  0.0353 -0.4729
18825W        W61737  28.806   8.376  24.791  0.0364 -0.3803  0.0141
18826W        W61738  27.145   8.015  25.510 -0.1837  0.1544  0.2646
18827W        W61739  27.781  11.355  27.934  0.1959 -0.0154  0.0670
18828W        W61740  25.224   9.349  24.163 -0.0791  0.0973  0.1574
18829W        W61741  28.248   9.119  27.035  0.0279 -0.0775 -0.0573
18830W        W61742  27.571   7.029  28.604  0.1695 -0.0662  0.0320
18831W        W61743  24.781   8.879  25.020  0.4006 -0.0493  0.1462
18832W        W61744  26.516   8.691  26.478 -0.2085 -0.2221 -0.1630
18833W        W61745  28.671   9.388  24.778  0.0123  0.0384 -0.0486
18834W        W61746  29.703  10.945  24.284 -0.4145 -0.3614 -0.2159
18835W        W61747  26.869  10.231  27.291 -0.1008  0.0009 -0.3380
18836W        W61748  27.351  11.196  28.152 -0.3793 -0.1589 -0.0832
18837W        W61749  27.243   7.486  26.838  0.1949 -0.2536 -0.3165
18838W        W61750  28.819   9.464  24.302  0.1956  0.1974 -0.1686
18839W        W61751  27.027   8.357  26.668  0.0234 -0.0485  0.1585
18840W        W61752  28.437  10.958  23.713  0.0184 -0.2149 -0.3185
18841W        W61753  28.765   7.098  26.247 -0.0419  0.5824 -0.2285
18842W        W61754  28.181   9.158  25.726 -0.3448 -0.3392  0.1861
18843W        W61755  26.060   7.645  28.327 -0.0874 -0.1590 -0.1983
18844W        W61756  27.496   9.898  28.303  0.3614 -0.1242 -0.2146
18845W        W61757  29.195  11.353  25.415 -0.0407  0.1301 -0.1248
18846W        W61758  27.503   6.183  25.465 -0.0465 -0.1088  0.2720
18847W        W61759  28.434   6.368  24.530 -0.0876 -0.2818 -0.1224
18848W        W61760  26.280   9.811  23.656  0.0714 -0.2842 -0.2899
18849W        W61761  26.013   9.240  25.920 -0.3023 -0.1187  0.2824
18850W        W61762  27.698   8.767  25.070  0.0813  0.2685  0.0312
18851W        W61763  28.514   8.565  27.884 -0.1474 -0.0705  0.0906
18852W        W61764  28.542  10.200  25.018 -0.0640  0.0375 -0.3547
18853W        W61765  27.626   9.134  26.374  0.0115 -0.1054  0.0137
18854W        W61766  26.187   8.460  24.458 -0.3057 -0.1733  0.0387
18855W        W61767  30.465   9.185  24.301 -0.1988  0.2307  0.3673
18856W        W61768  28.098  10.585  25.057  0.1207 -0.0496  0.1010
18857W        W61769  27.940  11.821  29.292  0.1303 -0.1167  0.2710
18858W        W61770  26.906  11.249  24.579  0.0391  0.0966 -0.1758
18859W        W61771  30.215   9.932  25.760  0.0676  0.1943 -0.1277
18860W        W61772  25.775   8.352  26.839 -0.0900 -0.0786  0.0490
18861W        W61773  26.747  10.546  25.352 -0.4142  0.4461 -0.1210
18862W        W61774  27.135   8.679  24.936 -0.1083 -0.0858  0.3494
18863W        W61775  28.063   9.531  25.196  0.0097  0.0638  0.0210
18864W        W61776  26.923   8.414  25.407 -0.1983  0.3742  0.0555
18865W        W61777  28.235   7.849  24.213  0.1983 -0.5182 -0.2392
18866W        W61778  26.863  11.570  26.897 -0.3112 -0.0928  0.1220
18867W        W61779  27.757   9.103  25.412 -0.1051 -0.1077  0.0131
18868W        W61780  25.872  11.120  31.139 -0.0097  0.2944 -0.3333
18869W        W61781  26.862   6.828  28.691 -0.4031 -0.5173 -0.0689
18870W        W61782  28.690   7.164  27.557  0.1293 -0.0431 -0.3102
18871W        W61783  28.373   9.574  27.974 -0.1994 -0.2740  0.0351
18872W        W61784  26.940   8.860  27.707 -0.2893  0.0891  0.0708
18873W        W61785  27.058   9.577  29.409  0.0965 -0.1245  0.1506
18874W        W61786  26.838   6.929  29.723 -0.1059 -0.0648 -0.1836
18875W        W61787  27.670   8.272  29.648  0.0271  0.0545  0.0678
18876W        W61788  29.076   9.968  30.495 -0.3803 -0.1771 -0.1794
18877W        W61789  28.243   8.324  28.307  0.0825 -0.2060  0.0518
18878W        W61790  27.014   9.153  30.414  0.1187 -0.2673  0.0182
18879W        W61791  26.746   9.487  31.218  0.1033 -0.2545 -0.0700
18880W        W61792  26.666   5.938  29.580 -0.0873  0.2040 -0.0911
18881W        W61793  26.045   6.435  30.704  0.0300 -0.0851  0.0994
18882W        W61794  27.618   8.962  31.705 -0.1037  0.2504  0.0623
18883W        W61795  27.715   9.411  28.360  0.1222 -0.2900  0.1341
18884W        W61796  25.585   8.666  31.309  0.0306  0.3272 -0.2071
18885W        W61797  27.675   8.872  28.606  0.2901  0.3109  0.0501
18886W        W61798  28.366  10.775  30.035 -0.0782  0.1988 -0.1625
18887W        W61799  26.508   7.840  30.696  0.1863 -0.0796 -0.2011
18888W        W61800  28.385   6.756   0.786  0.1693 -0.0348  0.1922
18889W        W61801  28.308  10.881  27.770  0.0947 -0.2494 -0.0275
18890W        W61802  26.445   7.993  28.084 -0.0336  0.1284  0.1258
18891W        W61803  25.043   8.804  30.112 -0.0509 -0.0795  0.0062
18892W        W61804  25.095   9.548  30.961  0.0204 -0.1155 -0.2451
18893W        W61805  27.383   8.367  30.199 -0.3510  0.4340  0.0088
18894W        W61806  29.342   9.537  30.352  0.2629  0.2179  0.1633
18895W        W61807  27.609  10.378  30.226 -0.1499 -0.0157  0.1053
18896W        W61808  28.515  10.737  30.792 -0.1119 -0.0168  0.1771
18897W        W61809  28.351   8.734  31.267  0.3206 -0.1622 -0.0191
18898W        W61810  27.044   8.564  29.837 -0.2156  0.0873 -0.1291
18899W        W61811  25.174  10.553  28.813 -0.5568 -0.1288  0.1143
18900W        W61812  28.032   9.591  30.200 -0.0971 -0.3359  0.2061
18901W        W61813  28.404   9.447  28.917  0.1477  0.1159 -0.2026
18902W        W61814  29.308  10.837  29.927 -0.1852  0.0074 -0.2660
18903W        W61815  27.407  11.106  30.606  0.1430 -0.0224 -0.0931
18904W        W61816  26.877  11.070  26.939 -0.1916  0.1571 -0.0750
18905W        W61817  28.369  10.586  31.330  0.1942  0.1150  0.1200
18906W        W61818  26.806  10.691   1.121 -0.0469  0.2286 -0.3182
18907W        W61819  27.320   8.874  30.160  0.6485 -0.0353  0.0550
18908W        W61820  27.096   9.046  29.388 -0.1716 -0.0366  0.2837
18909W        W61821  27.575  10.934  29.130  0.1815  0.1267  0.0683
18910W        W61822  28.481   9.848  29.742 -0.0788  0.2753  0.1389
18911W        W61823  26.827   8.995  31.185  0.1962 -0.1436  0.2343
18912W        W61824  26.723  10.394  30.165 -0.0164 -0.3308  0.4251
18913W        W61825  29.665   9.587   0.255 -0.0241  0.0518 -0.1307
18914W        W61826  26.321  10.630  26.940 -0.1537 -0.1518  0.2751
18915W        W61827  27.874   8.888  26.703  0.0325 -0.0439  0.0288
18916W        W61828  27.886   9.285  27.812 -0.1566 -0.2877  0.1174
18917W        W61829  27.175   7.148  28.984 -0.0864  0.1765 -0.3201
18918W        W61830  26.563   6.506  29.536 -0.2506  0.1590  0.2328
18919W        W61831  26.602  10.784  29.195 -0.0608  0.0045  0.2718
18920W        W61832  26.766   8.278  29.405  0.0087  0.2640  0.0680
18921W        W61833  28.578  10.113  30.722  0.0722 -0.4069  0.2295
18922W        W61834  28.128  10.422  27.964  0.0577  0.0419  0.0422
18923W        W61835  26.433   7.440  31.119  0.2628 -0.1499 -0.2750
18924W        W61836  25.755   9.905  31.974 -0.1217  0.0007  0.1571
18925W        W61837  26.931   9.655  28.443  0.0758 -0.1192 -0.0368
18926W        W61838  29.714  12.022  27.300 -0.1170 -0.0632 -0.2116
18927W        W61839  27.883   9.456  27.203  0.3229  0.0639 -0.1312
18928W        W61840  28.110   8.718  29.570 -0.2331 -0.0561 -0.0043
18929W        W61841  28.006   8.310  27.869  0.1029 -0.1744  0.2739
18930W        W61842  25.268   8.494  31.917 -0.0880 -0.1048  0.1866
18931W        W61843  26.193   8.947  30.743 -0.2878  0.4098 -0.1098
18932W        W61844  26.058   7.256  27.680 -0.0771 -0.1206  0.1163
18933W        W61845  29.467  10.562  31.399 -0.3107  0.0708 -0.3455
18934W        W61846  25.349  10.031  31.684 -0.0434 -0.0356  0.1497
18935W        W61847  28.510   6.702  29.582  0.6260  0.1824 -0.3628
18936W        W61848  26.805   9.417  31.707  0.3410  0.3743 -0.0940
18937W        W61849  28.716  10.591  30.364  0.1149 -0.1109  0.0409
18938W        W61850  28.543  11.061  27.378  0.1666 -0.1459  0.3020
18939W        W61851  27.593   7.238  29.776 -0.4658  0.0854 -0.1235
18940W        W61852  27.842   8.626  30.011  0.2957 -0.3001 -0.4642
18941W        W61853  27.234  10.507  28.332 -0.2403  0.1144  0.0116
18942W        W61854  27.226  10.132  28.729  0.3731 -0.0171 -0.1930
18943W        W61855  28.616   9.964  31.199  0.0716 -0.1783 -0.2472
18944W        W61856  28.137   8.863  28.360  0.0880  0.0765 -0.0875
18945W        W61857  27.569  10.151  31.729  0.3097 -0.1218 -0.0994
18946W        W61858  26.489   7.949  31.283 -0.2374 -0.1320 -0.2424
18947W        W61859  28.282   9.456  31.116  0.0401 -0.0765 -0.3011
18948W        W61860  26.776  11.594  27.657 -0.0339 -0.1270 -0.2784
18949W        W61861  25.143  10.483  30.210  0.2776 -0.0114  0.1011
18950W        W61862  25.730  10.450  28.113 -0.0463 -0.3644 -0.5736
18951W        W61863  25.355   9.087  31.112 -0.0622 -0.0227 -0.0710
18952W        W61864  26.466   9.664  30.849  0.0592  0.2307  0.1803
18953W        W61865  28.324   8.634  26.878 -0.0588  0.2309 -0.3176
18954W        W61866  26.029   9.117  30.268  0.0843 -0.1564 -0.0083
18955W        W61867  27.807   6.683  28.924 -0.4149 -0.0833 -0.3163
18956W        W61868  25.306   9.471  29.175  0.0151  0.2807 -0.0033
18957W        W61869  28.636   8.623  29.621  0.2538  0.0363 -0.0470
18958W        W61870  29.332   9.469  27.502 -0.1150 -0.2020  0.0680
18959W        W61871  27.321   9.493  27.252 -0.0746  0.2371  0.1836
18960W        W61872  25.105   8.766  29.227  0.1068  0.0331 -0.3916
18961W        W61873  26.500   9.473  28.889 -0.0618  0.0138  0.1811
18962W        W61874  25.276   8.653  29.727 -0.1944  0.1265 -0.0863
18963W        W61875  26.272   9.505  29.769  0.1395  0.2595  0.0561
18964W        W61876  28.279   8.292  30.957 -0.2800  0.0152 -0.0425
18965W        W61877  25.210   7.517  28.972  0.2415  0.2165 -0.1599
18966W        W61878  29.111   9.131  27.972  0.1420  0.0441  0.1037
18967W        W61879  27.020   9.314  27.924  0.0839 -0.1166  0.0617
18968W        W61880  25.409   9.927  27.346  0.1506  0.1813  0.0863
18969W        W61881  29.412   7.832  31.078 -0.4802  0.3754 -0.1288
18970W        W61882  27.523  10.443  29.140  0.0617  0.3273 -0.0518
18971W        W61883  27.891  11.538  31.755 -0.0936 -0.2765 -0.1432
18972W        W61884  28.044   9.800  28.600  0.0076 -0.0317 -0.0501
18973W        W61885  25.433   9.537  31.433 -0.1271  0.1325  0.0173
18974W        W61886  26.394   8.980  27.938 -0.0115 -0.0513  0.2884
18975W        W61887  26.368  10.376  29.557  0.0882  0.1362  0.1516
18976W        W61888  27.042  11.146  29.113 -0.1108 -0.1211 -0.2066
18977W        W61889  27.782   8.052  28.682  0.3148  0.1704 -0.3509
18978W        W61890  29.842  10.368  29.398 -0.0234  0.0919 -0.2739
18979W        W61891  27.644   9.892  30.185 -0.1889 -0.0951  0.0760
18980W        W61892  25.444  10.041  31.135  0.3096 -0.2194  0.1359
18981W        W61893  29.617   8.778  30.566 -0.0697  0.0621 -0.0141
18982W        W61894  29.202   9.074  30.445  0.1689  0.1607 -0.2659
18983W        W61895  28.279   8.353  29.893 -0.0209 -0.2714  0.0095
18984W        W61896  26.244   7.485  28.750 -0.0907 -0.0669  0.6042
18985W        W61897  29.295  10.592  29.177  0.3671 -0.0194  0.2174
18986W        W61898  26.697   9.972  30.380  0.3320 -0.1814  0.0713
18987W        W61899  25.043   9.194  29.612 -0.0532 -0.2690  0.0648
18988W        W61900  27.879   9.502  28.944  0.1656 -0.2425 -0.1566
18989W        W61901  29.244   7.185  28.889  0.0520 -0.1301 -0.1673
18990W        W61902  25.484   7.981   0.217  0.0256  0.0105 -0.1810
18991W        W61903  28.623   8.021  31.155 -0.1701 -0.1673 -0.2455
18992W        W61904  28.077   8.831  27.829 -0.0386 -0.2589 -0.1314
18993W        W61905  26.583  10.700  30.648  0.0331 -0.2045  0.2134
18994W        W61906  28.592   7.995  29.139 -0.0783  0.2272 -0.0675
18995W        W61907  29.402   7.512  29.284  0.1657 -0.0902 -0.2482
18996W        W61908  26.883   8.097  31.669 -0.0399  0.0444 -0.1412
18997W        W61909  27.446   9.081  27.834  0.0228 -0.0984  0.2297
18998W        W61910  28.413   7.868  28.000 -0.0754 -0.0098 -0.3256
18999W        W61911  27.928   7.940  28.221 -0.0851 -0.0988  0.0690
19000W        W61912  26.499   8.853  30.340  0.2660 -0.3694  0.2791
19001W        W61913  27.784  10.189  29.601 -0.0802  0.0483  0.2019
19002W        W61914  26.559   9.786  29.414  0.2702  0.1681 -0.0169
19003W        W61915  27.252   8.401  27.134 -0.2027  0.2448  0.0243
19004W        W61916  29.380  10.383  29.641  0.1026  0.0340 -0.0184
19005W        W61917  26.094  10.056  31.059 -0.0932 -0.1977  0.0399
19006W        W61918  29.477  10.480  31.918  0.0772 -0.0025  0.0855
19007W        W61919  28.056  11.616  30.260  0.0471 -0.0029  0.1861
19008W        W61920  26.182   8.004  30.027 -0.0118  0.0737 -0.1357
19009W        W61921  27.408   8.786  26.775 -0.0251  0.0829  0.1374
19010W        W61922  28.306   5.943  28.407  0.1033 -0.1191  0.2889
19011W        W61923  25.952   9.501  27.793  0.1206  0.3212  0.1293
19012W        W61924  27.802   6.163  30.430  0.0222 -0.0070  0.0171
19013W        W61925  28.511   7.422  30.296  0.3151  0.2658 -0.2481
19014W        W61926  27.888   7.024   0.380 -0.1346 -0.0344 -0.1940
19015W        W61927  29.056   9.162  31.608  0.3454  0.0603 -0.0007
19016W        W61928  28.126   8.227  29.370 -0.4983 -0.2420 -0.2741
19017W        W61929  28.157  10.346  30.890  0.2529  0.1694 -0.1324
19018W        W61930  26.949   8.185  28.056  0.2206 -0.1484 -0.0487
19019W        W61931  26.446   8.243  30.380  0.1296 -0.2312 -0.0171
19020W        W61932  25.401   9.528  30.484  0.2363  0.1189  0.1223
19021W        W61933  26.177   9.790  30.437 -0.1523  0.0116 -0.1943
19022W        W61934  28.704  10.986  31.186 -0.4503  0.3249  0.3583
19023W        W61935  26.845   9.684  29.930 -0.1650 -0.1790  0.3870
19024W        W61936  26.770   8.592  30.839  0.1420 -0.1517 -0.1538
19025W        W61937  27.965   8.526  28.824 -0.2163 -0.1249 -0.1415
19026W        W61938  25.964  10.972  29.251 -0.0319 -0.0730 -0.0559
19027W        W61939  27.368   9.650  28.849  0.0168  0.1056  0.1586
19028W        W61940  27.460   8.485  28.826 -0.2884  0.0058 -0.0278
19029W        W61941  27.342  10.353  29.699 -0.2484 -0.0114  0.0194
19030W        W61942  27.254  10.767  27.925  0.0958  0.0708  0.1451
19031W        W61943  27.151   8.554  31.164  0.0425  0.3205 -0.1144
19032W        W61944  26.035  11.364  28.107 -0.1711  0.1095  0.3053
19033W        W61945  28.440   6.210  29.944  0.0317  0.2367  0.4136
19034W        W61946  26.126  10.313  30.554  0.4103 -0.2914 -0.0743
19035W        W61947  27.727   8.588  27.087 -0.0454  0.2134 -0.0094
19036W        W61948  25.824   8.272  29.081  0.3772 -0.1215 -0.1008
19037W        W61949  27.668   8.734  29.193 -0.1071  0.0741 -0.0195
19038W        W61950  27.917   9.893  27.822 -0.0400 -0.1948 -0.0063
19039W        W61951  25.979   7.886   0.564  0.0787 -0.0422 -0.0075
19040W        W61952  28.688   7.904  30.293  0.1510 -0.0130 -0.2179
19041W        W61953  26.171  11.060  30.696  0.0567  0.0415 -0.2564
19042W        W61954  27.812   8.130  30.135 -0.0142 -0.1810 -0.2029
19043W        W61955  28.840   8.085  27.904 -0.0258  0.1609 -0.2411
19044W        W61956  28.355   8.626  30.491 -0.1864  0.0760 -0.0495
19045W        W61957  25.808   8.623  30.829  0.1228 -0.1218 -0.0232
19046W        W61958  25.300   8.156  27.306 -0.0803  0.1600  0.1282
19047W        W61959  26.611   7.725  30.197 -0.1058  0.2951 -0.0322
19048W        W61960  26.429   8.992  29.036  0.1353  0.0405  0.3564
19049W        W61961  27.121  10.659  29.302  0.0620 -0.1402  0.1616
19050W        W61962  28.251  10.439  30.419  0.0530 -0.1547  0.1761
19051W        W61963  26.577   8.722  28.647  0.3929  0.1123 -0.0563
19052W        W61964  26.883   9.779  28.978  0.0582  0.0765 -0.1284
19053W        W61965  26.467   7.456  31.758 -0.5537  0.1096  0.1198
19054W        W61966  27.997   8.969  30.386  0.2272 -0.1519  0.1102
19055W        W61967  26.420   8.382  29.008 -0.0175  0.0530  0.0979
19056W        W61968  26.720   7.747  29.080 -0.3574  0.0858 -0.1066
19057W        W61969  27.504   8.806  29.688 -0.0407  0.2438 -0.3695
19058W        W61970  28.122  11.083  31.504 -0.0182 -0.5189 -0.0153
19059W        W61971  27.281   7.872  31.307  0.3478 -0.0660 -0.1263
19060W        W61972  27.077   8.830  31.611  0.0280 -0.0999  0.0234
19061W        W61973  26.986   9.287  28.904  0.2285  0.0941  0.1274
19062W        W61974  30.755  10.818  27.261 -0.1895 -0.4314 -0.1496
19063W        W61975  27.788   8.278  30.672  0.2006 -0.0233 -0.2067
19064W        W61976  26.077   9.977  29.468  0.1386  0.2156 -0.1130
19065W        W61977  25.707   8.637  29.500 -0.0280 -0.4938  0.1038
19066W        W61978  25.961  10.283  28.551  0.3454  0.0398  0.2227
19067W        W61979  27.207   6.494  29.666  0.2917 -0.2731 -0.0668
19068W        W61980  27.316   9.798  31.164  0.2529 -0.0360  0.2460
19069W        W61981  26.895  11.210  28.037  0.0848  0.3149 -0.2109
19070W        W61982  27.115  10.341  31.296 -0.3807  0.2976 -0.0806
19071W        W61983  28.631   6.564  26.881  0.0032 -0.4119 -0.0487
19072W        W61984  27.897  10.229  28.346 -0.1181  0.0068 -0.1040
19073W        W61985  27.871  10.387  27.271 -0.1318 -0.0263 -0.0467
19074W        W61986  29.268   8.701  30.950  0.0219  0.0110  0.0665
19075W        W61987  28.369   7.768  28.428 -0.1467  0.0546  0.0655
19076W        W61988  27.806   7.366  31.091 -0.0210  0.0538  0.0919
19077W        W61989  26.870   8.142  31.042 -0.0274  0.3675  0.0469
19078W        W61990  28.544   9.907  30.207 -0.1587  0.2969 -0.0124
19079W        W61991  24.803   8.404  31.054 -0.2920 -0.0812  0.0045
19080W        W61992  29.513  11.349   0.477 -0.0192  0.1834 -0.2138
19081W        W61993  24.912   9.674  31.381  0.1803  0.2866  0.2211
19082W        W61994  27.247   8.462  29.369  0.0017  0.3365 -0.1130
19083W        W61995  26.392   6.962  28.517  0.0096 -0.1499 -0.0084
19084W        W61996  26.340   8.298  30.976 -0.2870 -0.5046  0.1237
19085W        W61997  29.150   9.997  29.154  0.0583 -0.1248  0.2663
19086W        W61998  28.278   9.875  27.048  0.2303  0.1197 -0.3592
19087W        W61999  28.954   7.982  28.836 -0.2341  0.0246  0.0592
19088W        W62000  25.952   9.094  31.798 -0.0376  0.0264  0.0212
19089W        W62001  27.508   9.391  30.109  0.1267  0.1423  0.0418
19090W        W62002  27.373   9.763  29.790  0.0588 -0.5739 -0.0083
19091W        W62003  27.119  10.729  30.388  0.1016  0.0146 -0.0739
19092W        W62004  27.573   8.305  31.107  0.1371 -0.1504 -0.1718
19093W        W62005  27.603   8.684  30.539 -0.1299  0.0126  0.0324
19094W        W62006  27.769   5.580  30.545 -0.1077  0.1897 -0.2781
19095W        W62007  27.446   7.924  30.500 -0.1188 -0.0064  0.0755
19096W        W62008  26.515   8.843  31.694  0.0074  0.2361 -0.1422
19097W        W62009  25.514  10.004   0.695  0.2211 -0.1552 -0.0370
19098W        W62010  25.235   7.091   0.961 -0.0088  0.0609  0.0566
19099W        W62011  28.631  11.031  29.676 -0.0740  0.0225 -0.1094
19100W        W62012  27.526   9.324  26.853 -0.1686 -0.0834 -0.2577
19101W        W62013  27.522   9.197  30.650 -0.2528  0.1844  0.1410
19102W        W62014  28.831   9.175  27.498 -0.0703  0.1365  0.1661
19103W        W62015  29.339   8.221  27.900 -0.1803  0.1670  0.0899
19104W        W62016  26.420   8.481  29.937  0.1853 -0.0265 -0.1391
19105W        W62017  28.860   8.219   0.050  0.1691 -0.4229  0.0375
19106W        W62018  26.381   7.324  28.155 -0.0276 -0.0745  0.3110
19107W        W62019  28.269   8.123   0.058 -0.1978 -0.2010  0.0503
19108W        W62020  27.788  10.101  28.919 -0.0384  0.0965  0.0901
19109W        W62021  27.506   9.680  30.700 -0.0184  0.2460 -0.0535
19110W        W62022  28.753   8.092  28.402 -0.1486  0.0284  0.2098
19111W        W62023  25.247   8.272  29.286 -0.0926 -0.1831 -0.1260
19112W        W62024  26.485  10.162  30.813 -0.1719  0.0579 -0.1595
19113W        W62025  27.718   7.122  29.121  0.1772 -0.2809  0.1736
19114W        W62026  27.391  10.395  27.034 -0.2534  0.0832  0.3029
19115W        W62027  27.154   9.682  30.341 -0.0666  0.3283 -0.0188
19116W        W62028  28.580  10.377  29.886 -0.0419 -0.0557  0.0349
19117W        W62029  26.707   8.815  29.581  0.0856 -0.0125  0.1220
19118W        W62030  29.205   7.747  31.933  0.0038  0.0227  0.0009
19119W        W62031  27.245  10.069  29.250  0.0074 -0.3275  0.2246
19120W        W62032  28.602   6.137  30.435  0.0423  0.0061 -0.1561
19121W        W62033  27.055  11.442  30.347  0.2113 -0.0393  0.0742
19122W        W62034  24.722  10.064  30.967 -0.0366  0.2568 -0.0395
19123W        W62035  27.840  10.121  30.597 -0.2932 -0.2211  0.0919
19124W        W62036  26.934   7.666  30.966  0.1925 -0.0586  0.1683
19125W        W62037  26.077   8.581  30.384 -0.1906 -0.1624 -0.1696
19126W        W62038  27.497   9.163  29.000  0.1487  0.0971  0.2428
19127W        W62039  28.271   8.149  31.447  0.2494  0.0209 -0.3023
19128W        W62040  27.750   9.722  31.541  0.0128  0.1783 -0.0026
19129W        W62041  26.553   9.433  30.390 -0.0947  0.2497 -0.1964
19130W        W62042  29.059  10.357  30.016  0.3228 -0.1372 -0.1186
19131W        W62043  28.483   8.542  29.170  0.3885  0.0330 -0.1775
19132W        W62044  25.880  10.233  29.815 -0.2968  0.1171  0.0346
19133W        W62045  25.854   9.095  31.174 -0.2802 -0.1678 -0.0689
19134W        W62046  27.847   9.904  31.019  0.2940  0.0632  0.0414
19135W        W62047  27.098   9.156  29.869 -0.1359  0.2078  0.1316
19136W        W62048  26.875   6.788  29.247 -0.2957  0.1811  0.1862
19137W        W62049  26.903   9.798  26.418  0.0148 -0.0267  0.0475
19138W        W62050  25.994   9.978   0.421 -0.1840 -0.5140 -0.1012
19139W        W62051  25.789   9.550  30.157 -0.0028 -0.0642 -0.0558
19140W        W62052  25.634  11.532  28.899  0.2112  0.1234  0.0587
19141W        W62053  28.349  10.358  27.009  0.1210  0.1929 -0.0171
19142W        W62054  27.476   9.290  29.581 -0.0338  0.1059 -0.1366
19143W        W62055  28.541  11.378  30.031  0.0872 -0.4994  0.0981
19144W        W62056  26.747   8.231  27.271 -0.0598  0.0132  0.0951
19145W        W62057  26.455  10.714  29.876 -0.1758  0.0602  0.2116
19146W        W62058  25.517  12.672  27.753 -0.2932  0.1704  0.2020
19147W        W62059  28.372  10.409  27.477  0.0496 -0.0667 -0.0405
19148W        W62060  26.081  11.346  30.216  0.0826 -0.2709  0.2549
19149W        W62061  27.864  10.588  31.592  0.3113 -0.0580 -0.0399
19150W        W62062  29.372   7.794  27.218  0.0049 -0.2003  0.0915
19151W        W62063  27.242   7.947  29.522 -0.1642  0.0373  0.0031
19152W        W62064  28.479   9.041  29.484 -0.0118 -0.0382 -0.0530
19153W        W62065  28.137  10.121  31.425 -0.2579 -0.0296  0.0088
19154W        W62066  26.306   9.248  31.326  0.0405  0.1855 -0.1873
19155W        W62067  28.134   8.484  27.376  0.0361 -0.2032 -0.1683
19156W        W62068  26.393   8.777  31.222 -0.0973  0.0438  0.0769
19157W        W62069  29.864   6.989  31.786 -0.0626  0.0997 -0.1622
19158W        W62070  26.710  12.000  31.583  0.0567 -0.4174 -0.2714
19159W        W62071  28.619  10.374  27.936 -0.0702 -0.0406  0.1503
19160W        W62072  26.124   9.432  29.237 -0.1027 -0.2230  0.3007
19161W        W62073  27.091   9.389  30.889  0.0376  0.0107 -0.0513
19162W        W62074  29.134   7.977  30.461  0.1806  0.2013 -0.1570
19163W        W62075  27.645   9.737  26.391  0.0256 -0.3749 -0.0674
19164W        W62076  26.419  10.056  28.533  0.2232 -0.0633  0.0133
19165W        W62077  25.931  10.768  29.805  0.1013 -0.1459  0.0504
19166W        W62078  27.386  10.148  30.833  0.0345 -0.1080  0.0275
19167W        W62079  28.086  10.059  29.983  0.1919 -0.0262  0.0396
19168W        W62080  26.464   7.315  29.605 -0.3783 -0.0535  0.0517
19169W        W62081  28.707   8.060  29.625 -0.1512 -0.1024 -0.0951
19170W        W62082  26.600   9.207  29.910  0.4673 -0.2205 -0.2208
19171W        W62083  29.100   8.159  31.411 -0.3427 -0.0356  0.1913
19172W        W62084  26.766   9.280  27.286  0.4202  0.0829 -0.0902
19173W        W62085  28.447   6.680  28.451  0.1801 -0.1885 -0.1256
19174W        W62086  26.753   8.485  31.394 -0.0707 -0.2192 -0.1872
19175W        W62087  24.855   8.974  30.982  0.2970  0.4567 -0.1157
19176W        W62088  28.837   7.524  28.630  0.1663  0.0620 -0.0049
19177W        W62089  28.345   9.290  30.393 -0.2658  0.1269 -0.0948
19178W        W62090  27.751   8.431  28.325  0.0778 -0.0118 -0.2470
19179W        W62091  28.683  11.963   0.404  0.0896  0.5031 -0.3655
19180W        W62092  25.948   8.708  29.912  0.1573  0.1391  0.1151
19181W        W62093  27.941   7.360  28.283  0.0261  0.3431 -0.0708
19182W        W62094  24.692   9.115  30.550 -0.2200 -0.1405  0.0219
19183W        W62095  26.920   8.526  30.335 -0.0608 -0.0266 -0.1476
19184W        W62096  28.260  11.156  31.009 -0.0748  0.1251 -0.1311
19185W        W62097  26.748   7.371  28.525 -0.0604 -0.0469  0.2017
19186W        W62098  28.357  10.054  28.225 -0.0502  0.0652 -0.1803
19187W        W62099  28.557   7.045  29.936 -0.0793 -0.0547  0.1189
19188W        W62100  27.526  11.222  25.892 -0.0415  0.0226  0.0902
19189W        W62101  27.939   9.443  30.694  0.1219 -0.0219  0.2456
19190W        W62102  29.767   9.719  29.251  0.1071  0.0920  0.1274
19191W        W62103  25.668   9.122  30.672  0.2452  0.0191 -0.1108
19192W        W62104  28.719   9.782  29.205  0.0448  0.0077 -0.1525
19193W        W62105  28.819   9.363  30.377  0.2432  0.0160  0.0097
19194W        W62106  26.228   7.948  29.035 -0.0619  0.1073 -0.2602
19195W        W62107  26.426   9.940  29.930  0.2669  0.0292  0.1477
19196W        W62108  26.159  10.724  30.296 -0.2623  0.1024  0.0698
19197W        W62109  29.821   8.510  29.855  0.1887  0.2444  0.3618
19198W        W62110  28.634   8.240  30.672 -0.0524 -0.2919 -0.0367
19199W        W62111  26.732  11.108  26.403  0.0007 -0.0390  0.1335
19200W        W62112  27.340   8.400  31.641 -0.3459  0.1135 -0.2380
19201W        W62113  27.537  11.423  31.389 -0.1629  0.0310 -0.1850
19202W        W62114  28.268   9.337   0.033 -0.0880  0.0001  0.1794
19203W        W62115  25.951  10.350  27.156 -0.3311  0.3896  0.1444
19204W        W62116  27.459   8.965  31.248  0.1667 -0.0020 -0.0377
19205W        W62117  28.882   8.987  29.132 -0.1829  0.1355  0.0698
19206W        W62118  28.108  10.512  28.685  0.0675 -0.0445 -0.2306
19207W        W62119  28.914  10.086  29.576 -0.0351 -0.1073  0.1766
19208W        W62120  28.294   8.901  30.037 -0.1181  0.0968  0.3023
19209W        W62121  28.969   9.740  30.004  0.0695  0.3025 -0.2137
19210W        W62122  29.055   7.511  30.289 -0.2220 -0.4126  0.1970
19211W        W62123  28.124   6.909  28.117  0.0630  0.3606  0.0319
19212W        W62124  28.895   5.574  28.907 -0.2985  0.1034 -0.1420
19213W        W62125  27.376   9.752  31.968 -0.0170  0.0200  0.0645
19214W        W62126  26.233   8.726  27.485  0.0116 -0.0766  0.1821
19215W        W62127  26.786   8.993  28.231 -0.1507  0.3267  0.1142
19216W        W62128  26.173   9.016  29.432 -0.1810  0.1440 -0.0999
19217W        W62129  28.698   7.967  31.654  0.1442 -0.0177 -0.0278
19218W        W62130  25.145   9.124  30.512 -0.1727  0.1178  0.1751
19219W        W62131  25.662  10.282  28.943  0.2225 -0.0401  0.0754
19220W        W62132  26.371   6.128  29.185 -0.2950  0.1277 -0.0378
19221W        W62133  28.777   9.855  28.122 -0.2751  0.1487 -0.1629
19222W        W62134  25.969   8.091  30.582  0.2320  0.1284  0.1961
19223W        W62135  27.270   9.211  28.336  0.3460 -0.1291  0.1144
19224W        W62136  28.150   9.931  29.182  0.2863 -0.1375 -0.0113
19225W        W62137  28.656   8.891  28.517  0.0438  0.1756  0.1174
19226W        W62138  26.997   8.169  28.999  0.2729  0.1175  0.0126
19227W        W62139  28.761   9.669  30.820 -0.1307  0.1800 -0.1582
19228W        W62140  25.439   9.480  26.885  0.2968  0.5281  0.1805
19229W        W62141  28.040   9.179  31.557 -0.0331  0.1696 -0.3380
19230W        W62142  27.319   7.903  31.808 -0.0961  0.1352 -0.0205
19231W        W62143  26.997   7.800  28.333  0.0006 -0.0194  0.2763
19232W        W62144  27.853   8.113  31.773  0.3651  0.2182  0.1943
19233W        W62145  27.678  11.756  28.855 -0.4189 -0.3341  0.0090
19234W        W62146  28.907  10.674  28.182 -0.0244 -0.1105 -0.1013
19235W        W62147  27.135   8.898  30.787 -0.2886 -0.3280 -0.0105
19236W        W62148  26.710  11.917   0.536  0.1456  0.1914  0.0360
19237W        W62149  26.182   7.428  29.963 -0.0471  0.3404  0.1357
19238W        W62150  28.513   8.215  27.500  0.1176 -0.1582 -0.0274
19239W        W62151  27.026   9.889  31.591  0.0159 -0.2223 -0.3923
19240W        W62152  29.700  10.165  26.653  0.0282  0.4662  0.2034
19241W        W62153  29.817   7.470  31.002 -0.0236  0.2520  0.1385
19242W        W62154  27.579   9.774  29.294  0.1820 -0.1137 -0.3459
19243W        W62155  26.907   8.017  30.508  0.2280 -0.3894  0.0320
19244W        W62156  26.823   8.094   0.437 -0.3184  0.1731 -0.3592
19245W        W62157  28.268   9.804  30.615 -0.1380 -0.1697 -0.3723
19246W        W62158  26.196   8.523  29.515 -0.0762  0.1137  0.0513
19247W        W62159  29.387   7.715  27.795  0.0217  0.2195  0.0369
19248W        W62160  28.000  10.974  28.847 -0.2798 -0.0945  0.0669
19249W        W62161  26.062   9.389  30.688 -0.2849 -0.1559 -0.0807
19250W        W62162  27.253   8.722  28.067  0.0135 -0.1304  0.3353
19251W        W62163  26.656   9.302  29.361 -0.0237 -0.0131  0.1322
19252W        W62164  27.987  10.497  29.250  0.2790 -0.2273  0.2985
19253W        W62165  26.983   9.835  30.809 -0.1684 -0.1951  0.0300
19254W        W62166  27.911   9.656  29.717  0.1375 -0.0947  0.1777
19255W        W62167  27.982   9.179  29.392 -0.1916  0.1023  0.0607
19256W        W62168  27.315  10.638  31.787  0.2157 -0.1996  0.1136
19257W        W62169  28.930  10.924  30.672  0.0632 -0.0149 -0.2328
19258W        W62170  27.651  10.307  31.268  0.2710 -0.1978 -0.1052
19259W        W62171  28.024   9.028  28.917  0.1423 -0.0998  0.1071
19260W        W62172  26.765   7.753  29.586 -0.4922 -0.0510 -0.1430
19261W        W62173  26.598   9.171  30.798  0.0551  0.0546  0.0431
19262W        W62174  26.919  10.094  29.664  0.2976  0.2605  0.0596
19263W        W62175  27.221   8.350  30.712  0.0979  0.1008  0.3702
19264W        W62176  27.006   7.285  29.422  0.3193  0.2934  0.0999
19265W        W62177  28.085   7.258  30.043  0.0053 -0.0229  0.1117
19266W        W62178  27.185  10.546   0.499 -0.1455 -0.1996  0.0657
19267W        W62179  27.162  10.141  30.119  0.0218  0.0999  0.0710
19268W        W62180  28.093   8.547   0.392 -0.0309  0.1982 -0.0662
19269W        W62181  28.316   9.654  31.622  0.1913  0.0604  0.0082
19270W        W62182  27.224   8.307   0.192  0.0664  0.2416  0.1617
19271W        W62183  27.479  10.021   1.291  0.2531 -0.2336  0.0991
19272W        W62184  27.500  10.291   0.808 -0.3749 -0.0049  0.0896
19273W        W62185  26.709  10.857   0.555 -0.0037  0.2562 -0.0071
19274W        W62186  27.746   8.551  31.941 -0.1241  0.0189 -0.2689
19275W        W62187  27.426   8.227   0.833 -0.2558  0.0481  0.1827
19276W        W62188  31.170   7.604   0.039  0.0378 -0.0964  0.2178
19277W        W62189  28.872  11.130   1.404 -0.0417  0.0916  0.0090
19278W        W62190  27.676   9.394  31.130  0.2140  0.2079 -0.0602
19279W        W62191  26.872   7.716   0.023 -0.3213 -0.2557 -0.2297
19280W        W62192  28.965  10.596  31.521 -0.2118  0.1599  0.0004
19281W        W62193  27.881   8.608  31.437 -0.1476  0.0008 -0.3916
19282W        W62194  28.827   9.611   0.528  0.1542  0.0514 -0.0127
19283W        W62195  25.398  11.247  31.107  0.0879  0.0182  0.1832
19284W        W62196  26.139   8.642   0.065  0.0351  0.2294 -0.0833
19285W        W62197  28.223  10.341  31.870  0.0674  0.2926  0.0141
19286W        W62198  26.482   7.416   1.037 -0.3628 -0.4331  0.0111
19287W        W62199  27.782   7.511   0.506  0.2445 -0.0093  0.0670
19288W        W62200  27.430   7.796   1.269  0.0840 -0.2810 -0.1494
19289W        W62201  26.637  10.566  31.150 -0.0894  0.1525  0.3264
19290W        W62202  30.281   8.177  31.457 -0.1335  0.0179  0.1708
19291W        W62203  28.308   7.587  31.195 -0.0181 -0.0493  0.1396
19292W        W62204  29.473   6.060   0.563 -0.3053  0.0896  0.3325
19293W        W62205  27.431   7.505  30.764  0.0837 -0.1606  0.1085
19294W        W62206  28.444   9.849   0.095  0.0090 -0.0564 -0.1985
19295W        W62207  25.622  10.276   0.284  0.0903 -0.0269  0.0360
19296W        W62208  26.003   8.657  31.594 -0.0533  0.0283 -0.0816
19297W        W62209  25.842   8.398   0.507 -0.0418 -0.0975  0.1645
19298W        W62210  27.517  11.857  31.140 -0.4276  0.1957 -0.0670
19299W        W62211  27.686   9.371   0.910 -0.1609 -0.5390 -0.1081
19300W        W62212  27.835  11.032  31.886  0.1293  0.1359  0.0212
19301W        W62213  27.923   7.539   1.317 -0.0892  0.0489 -0.3492
19302W        W62214  27.727   7.182  31.918  0.2327 -0.0684  0.1611
19303W        W62215  25.543   9.358  31.907  0.0322 -0.1707 -0.1739
19304W        W62216  27.140  10.041   0.472 -0.2768 -0.0403  0.1248
19305W        W62217  27.933  10.610   0.141  0.1111 -0.0688  0.1347
19306W        W62218  27.477   7.403  31.572  0.0026  0.2113  0.0072
19307W        W62219  28.353   8.972   0.419  0.0988 -0.0353  0.0604
19308W        W62220  28.731   6.966  31.941 -0.1279  0.1858 -0.0804
19309W        W62221  29.075   8.720  31.922 -0.3377 -0.1180  0.1122
19310W        W62222  26.652   8.443   0.871  0.2247  0.2324  0.1295
19311W        W62223  27.203  11.928   0.388  0.1618 -0.1878  0.1514
19312W        W62224  27.208   7.321  31.143 -0.0641 -0.0324  0.0172
19313W        W62225  25.965   8.117   0.027  0.2533 -0.1659 -0.1109
19314W        W62226  27.350   6.984   0.162 -0.0289 -0.1354 -0.3011
19315W        W62227  27.191   9.288   0.961 -0.0428  0.0996  0.4541
19316W        W62228  28.754   9.479  31.864  0.1251 -0.0470 -0.5778
19317W        W62229  25.087   8.672  31.428  0.2400 -0.0873  0.2682
19318W        W62230  28.750  11.698  31.901  0.2118 -0.1522 -0.0103
19319W        W62231  29.693   7.888   0.244  0.2002 -0.5526 -0.1614
19320W        W62232  28.262   7.357  31.964 -0.1939  0.0606 -0.1747
19321W        W62233  27.870   9.000   0.337  0.0269  0.2805  0.2362
19322W        W62234  28.570   9.143  31.480  0.2228  0.1280  0.0353
19323W        W62235  27.930   8.808  30.908 -0.0838  0.2241  0.0809
19324W        W62236  28.433  10.958   1.137  0.1401  0.0304 -0.1511
19325W        W62237  27.519  10.310   0.249  0.0076  0.0412  0.2455
19326W        W62238  28.937  12.265   1.270 -0.0356 -0.1198  0.2262
19327W        W62239  25.797   8.088  29.529  0.2494 -0.4538 -0.2300
19328W        W62240  25.380   8.985  31.674 -0.0095  0.0630 -0.1530
19329W        W62241  27.301   9.364  31.519 -0.1231  0.0046  0.1327
19330W        W62242  25.540   8.143  31.626 -0.0755  0.1065 -0.0907
19331W        W62243  27.369   7.893   0.477 -0.1500  0.0278 -0.1732
19332W        W62244  28.476  10.806  31.791  0.0635 -0.5025 -0.1080
19333W        W62245  29.148  10.084  31.505 -0.2222  0.0782 -0.0397
19334W        W62246  29.611   9.914   0.756  0.0402  0.0272 -0.0015
19335W        W62247  26.734  12.716  19.734  0.2054 -0.0839 -0.0454
19336W        W62248  26.511  11.957  16.306  0.1026  0.0571  0.0381
19337W        W62249  28.503  12.620  16.877 -0.2711 -0.1173 -0.1277
19338W        W62250  28.457  12.305  17.676  0.0806  0.2594  0.0170
19339W        W62251  26.654  11.031  17.478 -0.2667  0.0032 -0.2010
19340W        W62252  27.347  14.310  17.005 -0.1337 -0.2883  0.0755
19341W        W62253  25.689   8.488  19.324 -0.1571 -0.1612 -0.0272
19342W        W62254  28.264  14.662  17.803  0.0061 -0.1608 -0.3286
19343W        W62255  29.178  15.753  18.609  0.2339  0.1599 -0.1328
19344W        W62256  27.585  14.814  18.493 -0.0011  0.0496  0.0027
19345W        W62257  25.949  12.424  18.177 -0.2311  0.1590 -0.0749
19346W        W62258  26.887  14.803  20.324  0.0898 -0.0793 -0.3066
19347W        W62259  26.241  11.039  17.090  0.1494  0.4239 -0.0978
19348W        W62260  25.015  11.798  16.884 -0.2355  0.2084  0.1923
19349W        W62261  27.214  12.234  19.060 -0.2854  0.1190  0.1649
19350W        W62262  24.896  11.971  16.099  0.1834  0.0592 -0.2729
19351W        W62263  27.025  11.831  18.672  0.1629  0.4969  0.1861
19352W        W62264  27.985  12.949  17.685 -0.2433  0.0984  0.1103
19353W        W62265  26.746  14.194  17.900  0.2672 -0.0532  0.1407
19354W        W62266  25.319  11.857  18.290 -0.0998 -0.0228 -0.2198
19355W        W62267  27.442  11.488  19.794  0.0572  0.0394 -0.2867
19356W        W62268  27.032  14.406  17.434 -0.1043  0.2251  0.0825
19357W        W62269  24.907  12.249  15.276  0.0372  0.1613  0.1393
19358W        W62270  25.584  11.370  18.593 -0.0149  0.0766 -0.2643
19359W        W62271  27.476  12.851  17.688  0.0954 -0.1747 -0.1378
19360W        W62272  27.214  11.187  17.366 -0.3602 -0.1417  0.3426
19361W        W62273  27.694  12.274  19.270  0.2371  0.0951 -0.1907
19362W        W62274  26.367  12.272  20.466  0.1274 -0.2435  0.1487
19363W        W62275  29.127  14.498  17.459 -0.1204 -0.0384  0.2654
19364W        W62276  28.492  12.297  18.233  0.0298  0.1355  0.1840
19365W        W62277  25.299  11.989  17.284  0.1743  0.0660 -0.4410
19366W        W62278  26.751  14.805  17.261 -0.1287  0.2569  0.0493
19367W        W62279  26.903  14.477  16.899  0.0870 -0.0901  0.2743
19368W        W62280  29.222  13.528  17.770  0.0847 -0.2017  0.2201
19369W        W62281  28.191  13.994  18.962  0.2870  0.1899 -0.0818
19370W        W62282  28.674  13.948  19.163  0.0917 -0.0861 -0.1563
19371W        W62283  25.459  13.621  17.087  0.0676 -0.1053 -0.0946
19372W        W62284  27.672  14.047  20.642 -0.3266  0.1142  0.2210
19373W        W62285  27.493  12.329  20.343 -0.1912  0.3260  0.0571
19374W        W62286  25.814  12.522  17.465 -0.1002 -0.1195 -0.7345
19375W        W62287  27.039  12.808  17.370  0.1338 -0.2412 -0.0563
19376W        W62288  27.256  14.419  17.927 -0.4747 -0.0533  0.0689
19377W        W62289  26.221  15.055  17.090 -0.2257  0.1280  0.5566
19378W        W62290  26.309  12.968  20.913 -0.0118 -0.2854  0.0564
19379W        W62291  26.369  12.826  18.842 -0.1796  0.0063  0.0697
19380W        W62292  28.005  11.695  21.067  0.1215 -0.0865  0.2320
19381W        W62293  26.419  12.833  16.418 -0.0774 -0.1280 -0.4352
19382W        W62294  27.587  12.924  17.147 -0.2915 -0.0382 -0.2950
19383W        W62295  27.553  11.372  16.313  0.4989  0.3142 -0.2436
19384W        W62296  28.085  10.626  16.791  0.0816  0.0949  0.1792
19385W        W62297  27.462  11.830  18.912 -0.0412  0.1912 -0.0208
19386W        W62298  26.307  14.784  18.924 -0.1654  0.1352 -0.1482
19387W        W62299  26.218  10.739  17.555  0.1769  0.0039 -0.1255
19388W        W62300  29.378  11.954  19.680  0.0219 -0.0913 -0.1814
19389W        W62301  25.801  11.279  15.944  0.2457 -0.0842 -0.1678
19390W        W62302  28.094  11.912  17.979 -0.2815  0.0738 -0.0738
19391W        W62303  27.143  13.821  18.272 -0.0450  0.1278 -0.4015
19392W        W62304  24.884  12.236  17.126  0.0854 -0.1674 -0.2628
19393W        W62305  28.114  12.312  16.998  0.0680 -0.2320  0.0800
19394W        W62306  28.879  13.973  18.228  0.0500 -0.0179  0.3183
19395W        W62307  28.029  13.669  16.495  0.0014  0.2020  0.0963
19396W        W62308  25.255  11.457  15.978 -0.3010 -0.2618 -0.1596
19397W        W62309  25.671  11.925  17.909 -0.0028  0.1078  0.0491
19398W        W62310  26.620  11.434  18.227  0.0210  0.0391 -0.2470
19399W        W62311  25.810  10.301  16.086 -0.2053  0.1645  0.3139
19400W        W62312  29.580  13.053  20.811  0.0065 -0.2128 -0.1536
19401W        W62313  25.122  12.409  20.759 -0.0824  0.0834  0.0421
19402W        W62314  28.656  10.674  17.434  0.0968  0.0039  0.1991
19403W        W62315  27.468  14.912  18.007 -0.0177  0.1855 -0.2876
19404W        W62316  28.743  13.658  18.602  0.0422 -0.0896  0.1614
19405W        W62317  26.556  13.257  16.780  0.1197 -0.1580  0.1813
19406W        W62318  28.196  10.670  18.118 -0.0159 -0.0468 -0.1068
19407W        W62319  28.163  11.142  18.447  0.0863 -0.0329 -0.0021
19408W        W62320  26.203  12.071  15.684  0.1802 -0.1346 -0.0181
19409W        W62321  26.833  11.068  17.003 -0.3214  0.1720 -0.2981
19410W        W62322  29.302  15.706  21.885 -0.1374  0.2863  0.1768
19411W        W62323  27.725  12.419  17.379 -0.1667 -0.0471 -0.1971
19412W        W62324  26.478  13.858  18.922 -0.3289 -0.1526  0.1836
19413W        W62325  27.509  11.274  18.920  0.2980 -0.1755 -0.2189
19414W        W62326  26.858  13.506  19.519  0.3363  0.1441 -0.0544
19415W        W62327  26.839  13.213  16.402 -0.0512 -0.4511 -0.0514
19416W        W62328  24.883  13.375  16.896 -0.0784  0.4065  0.4904
19417W        W62329  25.740  12.222  16.072 -0.1610  0.1745 -0.2325
19418W        W62330  26.089   9.362  17.265  0.2145 -0.2816 -0.0214
19419W        W62331  25.939  12.589  18.669 -0.0214 -0.2914  0.0022
19420W        W62332  29.762  12.133  18.911  0.2350  0.2675 -0.0479
19421W        W62333  25.516  10.276  18.439  0.2081  0.1070  0.3244
19422W        W62334  27.529   9.847  17.379 -0.1823 -0.1332  0.1875
19423W        W62335  26.665  12.837  17.003  0.1068 -0.1200 -0.2000
19424W        W62336  28.835  14.366  18.543  0.1070 -0.2591  0.2815
19425W        W62337  27.524  12.404  18.704 -0.0644  0.1149  0.0283
19426W        W62338  28.043  12.833  16.620 -0.0237  0.1992  0.0130
19427W        W62339  24.515  12.748  18.638 -0.3881  0.1151 -0.1792
19428W        W62340  27.267  12.324  17.452  0.0709  0.2424 -0.0078
19429W        W62341  26.926  11.958  21.106 -0.1081  0.0127 -0.2668
19430W        W62342  25.861  10.977  18.823 -0.1319 -0.0151 -0.0941
19431W        W62343  27.192  11.285  19.338  0.0371 -0.0459 -0.0439
19432W        W62344  26.123   9.779  17.978  0.0032  0.1506 -0.2313
19433W        W62345  27.694  12.865  18.410  0.0626  0.0215 -0.3456
19434W        W62346  26.329  12.304  17.495 -0.0151 -0.1722  0.2134
19435W        W62347  25.365  12.729  16.621  0.2033  0.0100 -0.2027
19436W        W62348  28.890  11.863  19.708  0.3700 -0.0079  0.0795
19437W        W62349  28.571  14.588  17.409  0.0533 -0.2343  0.0235
19438W        W62350  28.814  14.667  19.703 -0.3981 -0.2646  0.0999
19439W        W62351  27.594  15.256  18.799  0.1131  0.0164  0.3507
19440W        W62352  25.439  12.103  19.227  0.0101 -0.3034 -0.1163
19441W        W62353  27.040  10.755  17.599  0.5086 -0.3864  0.0020
19442W        W62354  26.234  14.136  17.966 -0.1396 -0.1642  0.0701
19443W        W62355  26.995  14.124  16.552  0.2046 -0.0219 -0.1965
19444W        W62356  25.540  10.426  16.914  0.2743  0.0866 -0.0807
19445W        W62357  29.107  16.479  18.046 -0.0028 -0.0060  0.0254
19446W        W62358  27.817  12.387  16.400  0.2105 -0.1551  0.0512
19447W        W62359  26.203  12.005  18.585 -0.1754  0.2341 -0.1726
19448W        W62360  27.923  10.129  17.486  0.2683 -0.0657  0.0860
19449W        W62361  29.750  12.538  18.621 -0.0043 -0.0704  0.0492
19450W        W62362  28.583  13.252  18.334 -0.3500 -0.3734 -0.2706
19451W        W62363  24.892  11.337  16.801  0.3262  0.0885 -0.1102
19452W        W62364  28.265  14.080  18.403  0.0563 -0.0925 -0.6370
19453W        W62365  25.155  13.987  16.234  0.1483 -0.0199 -0.1851
19454W        W62366  26.256  11.962  16.988  0.0538 -0.0822  0.1079
19455W        W62367  27.732  15.065  17.521 -0.1862 -0.0162 -0.0037
19456W        W62368  28.619  11.810  18.235 -0.0381 -0.0421  0.0637
19457W        W62369  24.530  11.382  18.419 -0.0930 -0.1941  0.0575
19458W        W62370  26.774  12.922  18.478 -0.2583 -0.4364  0.1733
19459W        W62371  27.329  11.283  15.829  0.2373 -0.1031  0.4888
19460W        W62372  25.556  12.344  21.091  0.2686 -0.0238  0.0590
19461W        W62373  26.571   9.694  17.150 -0.0833 -0.3673  0.1482
19462W        W62374  29.202  11.763  17.570 -0.4261 -0.0391 -0.0102
19463W        W62375  27.336  13.302  20.200 -0.1929 -0.0014 -0.1055
19464W        W62376  28.748  13.002  15.976  0.0275 -0.1658 -0.1192
19465W        W62377  26.817  12.027  16.698  0.0224  0.1445  0.2271
19466W        W62378  27.933  11.563  16.524 -0.3411  0.1108  0.1313
19467W        W62379  25.989  12.767  19.190 -0.0360  0.0649  0.1467
19468W        W62380  27.217  12.083  16.994 -0.1308  0.0186  0.3412
19469W        W62381  27.067  12.646  18.060 -0.0995  0.2542 -0.3136
19470W        W62382  28.312  12.395  16.479  0.0684  0.0247 -0.1407
19471W        W62383  29.005  12.725  16.676  0.0761 -0.3824  0.0640
19472W        W62384  26.539  12.758  17.429 -0.0239  0.1118 -0.4284
19473W        W62385  28.017  13.189  19.670 -0.0775  0.2440 -0.1260
19474W        W62386  29.167  15.277  18.469 -0.2107  0.1199 -0.3685
19475W        W62387  26.711  12.032  18.391 -0.3952  0.1528 -0.3169
19476W        W62388  24.697  11.561  15.881  0.0699  0.0770 -0.3970
19477W        W62389  26.300  11.039  17.990  0.2986 -0.2004  0.0121
19478W        W62390  26.069  13.583  16.833  0.2589 -0.1530 -0.1530
19479W        W62391  27.072   9.630  17.451 -0.1218 -0.1320 -0.1229
19480W        W62392  27.993  12.453  17.935 -0.3186  0.3152 -0.2940
19481W        W62393  25.905  12.201  19.474 -0.1141 -0.0852 -0.2527
19482W        W62394  28.944  12.313  19.899 -0.0343  0.1135  0.0825
19483W        W62395  27.876  13.784  17.593 -0.1479 -0.0505 -0.0553
19484W        W62396  27.032  11.554  17.065  0.0898 -0.4163  0.0084
19485W        W62397  26.362  12.431  16.108 -0.3782 -0.2272  0.1757
19486W        W62398  26.616  11.854  19.716 -0.2511 -0.2446 -0.0639
19487W        W62399  26.722  13.200  18.934  0.4468 -0.0113  0.0076
19488W        W62400  25.004  14.387  19.718  0.0530 -0.1596 -0.0438
19489W        W62401  28.800  12.839  19.893  0.0846 -0.1677 -0.1191
19490W        W62402  27.538  12.383  18.152  0.3347  0.0068  0.0512
19491W        W62403  26.927  11.726  19.139 -0.2044  0.2357 -0.0193
19492W        W62404  27.680  12.023  16.801 -0.1073  0.0826 -0.4941
19493W        W62405  26.551  14.590  15.845 -0.0056 -0.1258 -0.1491
19494W        W62406  26.184  12.952  16.947  0.0490  0.2919 -0.1945
19495W        W62407  26.863   9.833  17.957 -0.1053  0.2066  0.0039
19496W        W62408  26.963  13.697  16.227  0.0861 -0.1018  0.0442
19497W        W62409  27.117  12.776  16.363  0.1370 -0.3040 -0.0854
19498W        W62410  27.616  12.395  19.762 -0.1062 -0.2678  0.2592
19499W        W62411  25.580  15.755  16.987  0.1086  0.1104 -0.2277
19500W        W62412  28.738  10.551  17.958 -0.0894 -0.0020  0.2155
19501W        W62413  26.503  13.330  18.131 -0.3723  0.0474  0.2034
19502W        W62414  26.426  12.681  15.670 -0.1898 -0.0995 -0.1853
19503W        W62415  24.160  12.062  15.787  0.1341  0.0939  0.0229
19504W        W62416  27.593  11.496  16.844  0.0272  0.0163 -0.0604
19505W        W62417  28.930  13.599  16.886  0.0121 -0.3249  0.1338
19506W        W62418  25.801  10.314  18.820  0.0752  0.2388 -0.0924
19507W        W62419  27.329  10.149  17.011  0.3357 -0.3913  0.0864
19508W        W62420  25.901  13.528  18.603 -0.0617  0.1641  0.0449
19509W        W62421  28.007  13.606  18.162 -0.1221 -0.0562 -0.0132
19510W        W62422  28.227  11.307  16.819 -0.0094  0.2077  0.0313
19511W        W62423  28.589  13.394  19.049 -0.0830  0.1811  0.0571
19512W        W62424  25.502  12.623  18.856  0.1744 -0.0903  0.2041
19513W        W62425  25.318  12.145  16.408  0.1992 -0.0320  0.1476
19514W        W62426  28.089  12.332  19.642  0.1691 -0.2221  0.0951
19515W        W62427  27.158  12.136  17.917  0.2147  0.1176  0.0771
19516W        W62428  25.257  13.338  17.459  0.0843 -0.3818 -0.0238
19517W        W62429  28.460  14.331  19.375  0.0412 -0.2316  0.0163
19518W        W62430  26.790  12.439  16.414  0.0755 -0.1241 -0.0633
19519W        W62431  25.579  13.059  15.755  0.0311 -0.0283 -0.1431
19520W        W62432  26.550  13.114  19.476  0.0034  0.1574 -0.2976
19521W        W62433  28.380  12.952  18.711 -0.2785  0.4421  0.2390
19522W        W62434  27.708  13.188  18.010 -0.1320  0.2051 -0.1969
19523W        W62435  25.145  10.941  16.034 -0.0052  0.0585  0.1707
19524W        W62436  26.146  11.596  15.584 -0.1390  0.2179 -0.0911
19525W        W62437  29.683  13.809  19.109  0.0237  0.0335  0.0093
19526W        W62438  27.342  11.976  19.512  0.0070  0.0301  0.0017
19527W        W62439  26.479  12.081  20.945 -0.2907  0.0683 -0.1418
19528W        W62440  26.994  10.169  18.289 -0.1433 -0.0711  0.2034
19529W        W62441  27.940  14.061  16.949 -0.0376 -0.1668 -0.0231
19530W        W62442  27.885  12.030  18.818 -0.0059  0.2016  0.1342
19531W        W62443  26.120  13.270  16.394 -0.2123  0.1686  0.3698
19532W        W62444  24.631  12.574  17.418  0.4064 -0.0361  0.0939
19533W        W62445  25.923  13.049  17.404  0.0559 -0.0014  0.0346
19534W        W62446  26.087  11.471  18.025 -0.0902  0.1868  0.1902
19535W        W62447  27.041  12.994  19.284  0.0752  0.1476  0.3451
19536W        W62448  26.507  13.707  16.533  0.1968 -0.0930 -0.1125
19537W        W62449  26.516  14.161  16.706  0.0012  0.2179 -0.0097
19538W        W62450  30.158  11.134  16.725  0.2451 -0.0378  0.0393
19539W        W62451  27.839  13.257  16.147 -0.0738 -0.0160  0.2990
19540W        W62452  26.826  11.484  16.516  0.0752 -0.0340 -0.3232
19541W        W62453  28.406  10.601  19.814 -0.0775 -0.2395 -0.0009
19542W        W62454  27.728  12.537  16.873 -0.1109 -0.4936 -0.0967
19543W        W62455  28.119  10.562  17.606  0.1646 -0.0214  0.1913
19544W        W62456  25.758   9.828  18.426 -0.0201  0.2177 -0.1617
19545W        W62457  27.975  12.221  18.369 -0.0716 -0.0567 -0.1471
19546W        W62458  25.445  10.806  18.420  0.1107 -0.0240 -0.1009
19547W        W62459  28.051  14.965  20.871  0.2910  0.0783  0.2545
19548W        W62460  26.752  12.648  20.378 -0.1052 -0.1344 -0.1514
19549W        W62461  25.569  11.109  17.701  0.0495  0.0676  0.1632
19550W        W62462  26.073  11.068  16.300  0.0431 -0.0677 -0.1893
19551W        W62463  26.586  12.853  17.913 -0.1247 -0.0307  0.1758
19552W        W62464  27.629  13.323  17.507  0.0408  0.3813 -0.3285
19553W        W62465  27.174  12.566  16.955 -0.2087 -0.0402 -0.3329
19554W        W62466  28.728  11.672  17.269  0.3709  0.3130  0.0079
19555W        W62467  25.560  12.220  19.863  0.1276  0.0011 -0.0548
19556W        W62468  28.149  12.685  18.365  0.3167  0.0493  0.4184
19557W        W62469  27.801  13.273  16.711 -0.1470  0.3161 -0.4171
19558W        W62470  26.504  14.363  18.699 -0.1288  0.2391 -0.0885
19559W        W62471  27.228  12.140  19.949 -0.0086 -0.1403 -0.0186
19560W        W62472  28.107  14.117  17.934  0.5330 -0.0511  0.0688
19561W        W62473  26.483  11.442  17.706  0.2195  0.0808 -0.0544
19562W        W62474  26.841  10.775  18.022  0.0216  0.2618  0.0709
19563W        W62475  27.572  11.300  18.413 -0.0516 -0.1613  0.0069
19564W        W62476  25.499  10.881  19.221  0.0766  0.1486  0.3503
19565W        W62477  25.780  12.256  16.642 -0.3438  0.5535  0.1228
19566W        W62478  27.580  14.683  18.983 -0.0065 -0.1409  0.2888
19567W        W62479  26.770  12.289  17.182  0.1057  0.4556  0.2866
19568W        W62480  29.772  12.256  19.404 -0.3898  0.0301 -0.0971
19569W        W62481  29.142  11.410  17.203 -0.0342  0.2486 -0.0603
19570W        W62482  27.670  12.249  15.782 -0.0295 -0.0518 -0.0906
19571W        W62483  25.629  12.722  17.062 -0.1959  0.0536  0.2594
19572W        W62484  28.220  12.578  20.528 -0.0805 -0.0794 -0.0528
19573W        W62485  25.169   9.985  16.372  0.1796 -0.0538  0.2563
19574W        W62486  26.128  11.295  20.929  0.0543 -0.0844 -0.0136
19575W        W62487  26.790  13.750  15.796  0.2647 -0.2774  0.1876
19576W        W62488  28.442  13.096  17.473  0.0204 -0.0484 -0.1041
19577W        W62489  28.425  12.808  17.924  0.0827  0.3980 -0.4150
19578W        W62490  24.133  12.833  17.275 -0.2744 -0.3176 -0.0926
19579W        W62491  28.061  13.802  19.893 -0.1150  0.0962 -0.2960
19580W        W62492  25.511  12.693  16.123 -0.0029 -0.0349  0.1536
19581W        W62493  27.138  11.811  15.798 -0.3150  0.1224 -0.2293
19582W        W62494  27.476  12.940  19.038 -0.0618 -0.0865  0.0816
19583W        W62495  28.629  13.490  20.503  0.2939 -0.0728 -0.1798
19584W        W62496  26.534  11.126  16.205 -0.2270 -0.3681 -0.4777
19585W        W62497  27.846  11.849  19.705 -0.1392  0.0618 -0.1934
19586W        W62498  25.551  12.326  18.451 -0.0400  0.1445  0.2337
19587W        W62499  27.706  12.063  17.751  0.1400  0.0358 -0.2710
19588W        W62500  27.170  12.682  20.076 -0.1234  0.5579  0.5471
19589W        W62501  25.293  12.809  18.328 -0.1666  0.2307  0.5190
19590W        W62502  26.133  13.991  17.207  0.1840  0.0564  0.3456
19591W        W62503  26.942  12.706  18.901  0.0797  0.0613 -0.2334
19592W        W62504  28.646  12.847  19.088  0.0649  0.1194  0.1559
19593W        W62505  27.522  13.986  17.930  0.0766  0.0178  0.1640
19594W        W62506  29.260  13.068  19.690 -0.1489 -0.1954 -0.1318
19595W        W62507  28.503  13.335  19.966  0.2391 -0.0971 -0.1374
19596W        W62508  24.663  11.697  16.489  0.2141  0.0008  0.2368
19597W        W62509  27.716  15.415  20.367  0.0916 -0.1872  0.1069
19598W        W62510  28.856  12.457  18.984  0.1416  0.0151  0.1103
19599W        W62511  25.762  13.168  16.785 -0.3437  0.0732 -0.1514
19600W        W62512  25.916  10.574  19.273  0.0333 -0.0214 -0.0901
19601W        W62513  27.325  13.282  22.862  0.0888 -0.1012  0.0495
19602W        W62514  29.037  13.597  19.104  0.0572 -0.0017  0.0628
19603W        W62515  26.953  10.833  18.596 -0.1151  0.2400  0.3696
19604W        W62516  27.495  13.526  15.946 -0.0734 -0.0780  0.0091
19605W        W62517  27.198  11.904  20.386  0.1845  0.1617  0.2938
19606W        W62518  25.459  11.519  19.157  0.0026  0.0173  0.0529
19607W        W62519  26.281  13.671  17.882 -0.2151  0.5013  0.1243
19608W        W62520  29.064  13.897  17.335  0.5361  0.2304  0.2223
19609W        W62521  28.493  13.689  18.159  0.0050 -0.0411  0.1494
19610W        W62522  28.086  14.236  17.421 -0.2113  0.1389  0.2716
19611W        W62523  26.801  12.198  15.769 -0.0983 -0.3850  0.2149
19612W        W62524  26.778  13.706  17.957 -0.0246 -0.2580 -0.1724
19613W        W62525  25.429  12.137  15.415 -0.1496 -0.2293 -0.0905
19614W        W62526  27.371  13.391  16.434 -0.1424 -0.0458 -0.3712
19615W        W62527  27.220  13.437  19.032  0.2625 -0.0900 -0.2071
19616W        W62528  28.248  13.500  18.671 -0.2407 -0.2655  0.1736
19617W        W62529  28.773  11.223  16.828  0.0894 -0.0701 -0.2052
19618W        W62530  28.279  12.374  19.114 -0.2290 -0.1662 -0.1216
19619W        W62531  28.791  10.817  16.229  0.0984 -0.0252  0.1524
19620W        W62532  28.373  15.250  21.128  0.0718  0.2178 -0.0332
19621W        W62533  25.508  12.888  17.549 -0.0541  0.2440  0.1461
19622W        W62534  26.455  11.186  16.679 -0.1556 -0.0361 -0.0396
19623W        W62535  27.737  12.519  20.805 -0.0740  0.0095  0.2964
19624W        W62536  29.761   9.788  21.484 -0.1090  0.3115  0.0926
19625W        W62537  26.015  13.088  19.577  0.3627 -0.0521 -0.3643
19626W        W62538  29.348  14.285  17.086  0.0752  0.1687  0.2669
19627W        W62539  25.910  12.182  15.284 -0.2177  0.2407 -0.3254
19628W        W62540  26.165  12.628  17.801 -0.1707 -0.2522 -0.1549
19629W        W62541  28.670  10.896  20.180 -0.0277 -0.0518 -0.0290
19630W        W62542  26.081  13.074  15.568 -0.1361 -0.0319  0.1565
19631W        W62543  27.673  10.393  17.855  0.1494  0.3682 -0.0792
19632W        W62544  26.431  13.252  17.272  0.3013 -0.0578  0.0772
19633W        W62545  27.654  15.650  17.366  0.0877 -0.0319  0.0153
19634W        W62546  27.250  13.647  19.855 -0.0382  0.0662  0.0162
19635W        W62547  26.893  10.784  16.583  0.1778  0.0084  0.1567
19636W        W62548  29.005  10.904  17.165 -0.0624 -0.1854  0.1420
19637W        W62549  26.075  12.490  17.050 -0.1772  0.0433  0.1659
19638W        W62550  26.465  11.385  19.947  0.0924  0.1484  0.2760
19639W        W62551  25.627  11.588  17.484  0.0264 -0.5520  0.0001
19640W        W62552  29.782  11.105  17.065  0.0079 -0.0611  0.4496
19641W        W62553  27.832  12.788  19.405  0.1858 -0.0872  0.0161
19642W        W62554  25.956   9.789  18.876  0.3148 -0.2943 -0.0189
19643W        W62555  27.268  11.144  16.687  0.2549  0.0533 -0.0494
19644W        W62556  28.079  11.959  19.271 -0.2793  0.0056  0.1336
19645W        W62557  27.576  12.918  16.425  0.0024 -0.3093  0.0103
19646W        W62558  27.851  14.842  20.341  0.1894 -0.4143  0.1619
19647W        W62559  26.496  11.462  17.129 -0.0512 -0.1475  0.1924
19648W        W62560  28.523  12.099  17.139  0.1239  0.3539 -0.1702
19649W        W62561  24.766  13.988  18.068  0.1006  0.0241 -0.0539
19650W        W62562  26.673  12.280  20.031 -0.0707  0.1577  0.1640
19651W        W62563  27.367  14.283  18.683 -0.2978  0.3303  0.0824
19652W        W62564  24.573  11.023  17.468  0.2974 -0.0932  0.1867
19653W        W62565  29.223  12.513  17.215  0.1445 -0.0444  0.0325
19654W        W62566  26.936  11.292  17.763  0.0338  0.2928  0.2510
19655W        W62567  26.457  12.393  16.711  0.0540  0.0005 -0.1031
19656W        W62568  27.318  13.678  17.239 -0.0029 -0.3714 -0.2472
19657W        W62569  29.120  15.982  19.124 -0.0393  0.1051  0.0694
19658W        W62570  25.729  12.855  17.979 -0.0960 -0.1003 -0.1204
19659W        W62571  29.825  15.695  18.567  0.2353 -0.1580 -0.1076
19660W        W62572  29.291  13.760  18.497 -0.0301  0.0526  0.3189
19661W        W62573  27.221  11.771  16.604 -0.0146  0.2210 -0.1454
19662W        W62574  25.094  12.728  17.765 -0.0210 -0.3473 -0.0306
19663W        W62575  24.699  14.414  15.753 -0.1596  0.0812  0.1160
19664W        W62576  29.077  11.220  19.956  0.1232 -0.1282 -0.0462
19665W        W62577  28.276  11.458  17.974 -0.5117 -0.0714 -0.1267
19666W        W62578  25.862  14.342  17.730  0.0022 -0.0570 -0.0983
19667W        W62579  27.977  12.086  20.638  0.2434 -0.1500 -0.0579
19668W        W62580  27.244  13.063  18.606  0.0277  0.3435 -0.0750
19669W        W62581  26.580  12.569  21.370 -0.1332  0.0696 -0.2794
19670W        W62582  26.944  13.997  17.021 -0.0020 -0.1728  0.0349
19671W        W62583  27.658  13.744  19.611  0.0803 -0.1435  0.0960
19672W        W62584  26.949  13.358  17.213 -0.2409  0.2035 -0.0860
19673W        W62585  27.490  13.874  16.265 -0.2995  0.1630 -0.3343
19674W        W62586  29.568  13.781  17.998  0.1067 -0.1754  0.2698
19675W        W62587  27.684  11.204  17.233 -0.1222  0.0631 -0.0164
19676W        W62588  29.123  14.066  17.797 -0.1806  0.2334 -0.1442
19677W        W62589  26.172  11.569  16.101 -0.2176 -0.1220  0.2725
19678W        W62590  28.916  12.229  17.536  0.3634  0.0946  0.0967
19679W        W62591  29.008  10.328  17.155  0.0200 -0.1104 -0.1591
19680W        W62592  26.567  12.560  19.301  0.0610 -0.0649  0.1876
19681W        W62593  24.901  13.001  16.479  0.1957 -0.1845  0.2056
19682W        W62594  26.000  12.875  16.061  0.1504  0.0441  0.2653
19683W        W62595  26.134  13.237  17.773 -0.2193  0.2131  0.1334
19684W        W62596  26.489  10.620  18.396  0.0279 -0.1071  0.1059
19685W        W62597  24.598  10.401  18.424  0.1314  0.1502 -0.1242
19686W        W62598  25.250  12.519  17.350  0.1557 -0.1490  0.2284
19687W        W62599  25.876  11.264  15.351  0.0082 -0.5246  0.1672
19688W        W62600  28.330  13.702  16.926 -0.0359  0.1437  0.2637
19689W        W62601  25.234  10.328  17.309 -0.0230 -0.0299 -0.1327
19690W        W62602  25.516  11.135  16.418 -0.1879  0.0076  0.2386
19691W        W62603  28.857  14.709  17.809  0.1894 -0.0493 -0.0241
19692W        W62604  27.560  14.114  17.408  0.0512 -0.0185  0.2053
19693W        W62605  26.057  11.865  16.501 -0.0752  0.0042  0.2540
19694W        W62606  27.402  14.740  19.959  0.0160  0.1477 -0.0604
19695W        W62607  23.291  14.227  14.723 -0.0893  0.3254 -0.1627
19696W        W62608  26.931  12.273  19.572 -0.0829 -0.0589  0.1291
19697W        W62609  26.239  11.732  19.357 -0.2306  0.3145  0.3309
19698W        W62610  25.010  10.472  16.218  0.1070 -0.0043 -0.0363
19699W        W62611  26.033  11.502  16.968 -0.1908  0.0184  0.1083
19700W        W62612  28.301  13.303  17.887  0.0486  0.0790 -0.1160
19701W        W62613  27.273  14.372  15.468  0.1982  0.1375 -0.2084
19702W        W62614  26.154  12.243  19.075  0.2292 -0.0738 -0.0799
19703W        W62615  27.527  12.930  19.809  0.0234  0.0112 -0.1047
19704W        W62616  23.919  10.986  19.478  0.0808  0.4227 -0.0169
19705W        W62617  30.010  12.097  17.015  0.0168  0.0764  0.1085
19706W        W62618  27.296  12.605  19.451  0.1459  0.2187  0.0300
19707W        W62619  27.048  13.913  17.527 -0.0091  0.0946  0.2821
19708W        W62620  27.959  10.020  19.144 -0.0755  0.2717 -0.1597
19709W        W62621  27.155  13.046  16.821 -0.0643 -0.1207  0.1303
19710W        W62622  26.206  10.121  18.613  0.1102  0.1208 -0.0142
19711W        W62623  26.675  11.345  19.443 -0.0924  0.2845  0.2959
19712W        W62624  29.258  13.670  20.555 -0.3962 -0.1145 -0.0202
19713W        W62625  27.033  12.393  18.535 -0.0837  0.0378 -0.0318
19714W        W62626  27.413  11.030  17.834 -0.1937 -0.1181  0.0188
19715W        W62627  27.659  14.569  17.284 -0.2325  0.2719  0.2058
19716W        W62628  24.956  12.669  16.895  0.0256 -0.5203 -0.0240
19717W        W62629  26.685  11.920  17.920 -0.1682 -0.1465 -0.0050
19718W        W62630  26.839  12.988  20.888  0.1710  0.1240  0.2072
19719W        W62631  26.961  13.785  18.819  0.0305 -0.2057 -0.0371
19720W        W62632  28.124  13.550  19.340 -0.3524 -0.2399  0.1151
19721W        W62633  27.549  11.986  16.300 -0.1750  0.1858  0.0657
19722W        W62634  28.524  14.049  17.276 -0.0168  0.1984 -0.1003
19723W        W62635  27.420  13.458  18.433 -0.2605 -0.1470 -0.2879
19724W        W62636  28.992  14.011  18.804  0.1760  0.0374  0.1061
19725W        W62637  27.899  14.323  18.697 -0.0702 -0.1385  0.1393
19726W        W62638  28.466  12.447  18.683 -0.1546  0.0663  0.0802
19727W        W62639  24.909  10.605  17.663  0.0446 -0.0130 -0.0263
19728W        W62640  26.793  12.398  17.659  0.1451 -0.1285 -0.2208
19729W        W62641  26.596  12.372  18.797 -0.0216 -0.0633 -0.3441
19730W        W62642  26.654  11.864  17.362 -0.0524  0.1628 -0.0647
19731W        W62643  25.063  10.577  18.765  0.0670 -0.0232  0.2921
19732W        W62644  26.665  10.606  17.230 -0.3003  0.0590 -0.2342
19733W        W62645  26.729  13.949  19.334  0.0038 -0.0654  0.4207
19734W        W62646  28.328  13.583  17.416 -0.1860 -0.2250 -0.1387
19735W        W62647  27.087  13.953  22.679  0.1330 -0.1184 -0.3312
19736W        W62648  26.989  12.444  21.079 -0.1219 -0.0755  0.0062
19737W        W62649  29.528  11.369  20.918  0.0122  0.2954  0.1435
19738W        W62650  28.215  12.752  19.968  0.0028  0.0431  0.0096
19739W        W62651  26.217  10.971  20.019  0.2980  0.1157 -0.0851
19740W        W62652  27.175  14.138  20.748  0.1454  0.0546  0.1960
19741W        W62653  28.231  12.109  23.057  0.0017  0.1356  0.3382
19742W        W62654  27.265  14.113  23.143  0.2832 -0.1024  0.3106
19743W        W62655  28.165  13.153  20.365 -0.0535 -0.0777  0.3600
19744W        W62656  27.678  13.906  18.439  0.0138  0.1128 -0.0131
19745W        W62657  25.506  12.455  24.105  0.1871 -0.2176  0.0067
19746W        W62658  27.120  14.634  21.667 -0.0075  0.0149 -0.1201
19747W        W62659  26.143  10.108  21.842  0.0067  0.1126  0.0356
19748W        W62660  25.158  10.855  21.131 -0.1051 -0.0985  0.2283
19749W        W62661  27.115  11.182  21.903 -0.2264  0.0300 -0.1112
19750W        W62662  25.933  12.147  20.249 -0.1744 -0.1019 -0.3427
19751W        W62663  25.559  12.277  23.081 -0.3214 -0.1416  0.4198
19752W        W62664  26.757  11.445  21.683 -0.0909 -0.1435  0.3359
19753W        W62665  26.490  15.141  20.315 -0.1131  0.3502  0.1894
19754W        W62666  26.382  11.227  24.321  0.0729 -0.1049 -0.0190
19755W        W62667  28.371  11.394  24.579  0.0511 -0.2238 -0.0093
19756W        W62668  25.474  13.009  19.743 -0.2816  0.3268 -0.3747
19757W        W62669  25.715  12.068  18.814  0.0182 -0.0602 -0.2217
19758W        W62670  24.803  11.939  20.614 -0.2393  0.0105 -0.0138
19759W        W62671  26.386  13.235  22.222 -0.1670  0.1078  0.1581
19760W        W62672  27.193  10.331  22.515  0.1647  0.1499 -0.0528
19761W        W62673  27.953  12.591  21.417  0.1282 -0.0932 -0.2357
19762W        W62674  26.575  13.120  21.380  0.1635  0.0083  0.1499
19763W        W62675  27.791  13.991  22.111  0.2829 -0.1699  0.1387
19764W        W62676  28.407  12.125  24.172 -0.0289  0.1082 -0.1014
19765W        W62677  24.330  11.949  23.587  0.3631 -0.2156  0.3227
19766W        W62678  26.010  14.955  19.818 -0.1771 -0.0141 -0.3211
19767W        W62679  25.257  13.316  20.167 -0.1600 -0.0892 -0.0623
19768W        W62680  28.983  13.105  20.611 -0.0654  0.1687  0.1782
19769W        W62681  29.050  16.041  22.621 -0.1654  0.1439 -0.0964
19770W        W62682  27.924  13.958  23.926  0.0956  0.0246 -0.1556
19771W        W62683  25.688  13.227  19.178 -0.5060 -0.3067  0.0184
19772W        W62684  27.482  14.304  22.711 -0.2321 -0.0325  0.0319
19773W        W62685  26.453  14.420  23.278 -0.0259  0.1042 -0.0467
19774W        W62686  28.769  12.136  22.118  0.4562  0.0274 -0.1086
19775W        W62687  26.366  11.881  23.045 -0.2301 -0.0547  0.4566
19776W        W62688  25.691  13.514  20.070  0.1328 -0.1315 -0.0905
19777W        W62689  27.073  12.732  22.207 -0.1018  0.2079  0.1787
19778W        W62690  26.662  13.685  24.229  0.0087  0.3244  0.3241
19779W        W62691  26.096  13.547  20.938  0.4436  0.2832 -0.1052
19780W        W62692  28.760  11.703  24.248 -0.0598 -0.2035 -0.3377
19781W        W62693  26.573  13.069  20.106 -0.1628 -0.0996  0.2314
19782W        W62694  27.800  11.827  20.175  0.1311  0.1331 -0.1682
19783W        W62695  26.643  10.256  20.635  0.2038  0.3842  0.0980
19784W        W62696  28.160  11.557  20.559 -0.0969  0.0304  0.0068
19785W        W62697  27.064  10.834  23.516  0.1033  0.1929 -0.5237
19786W        W62698  25.691  13.604  20.520 -0.2540  0.0197  0.2294
19787W        W62699  26.274  11.799  22.559 -0.0184 -0.0508 -0.0728
19788W        W62700  28.323  14.053  23.635  0.1609 -0.1889 -0.1230
19789W        W62701  27.331  12.166  21.951  0.1474  0.0937  0.4295
19790W        W62702  27.332  12.225  24.130 -0.1806  0.1788  0.2426
19791W        W62703  26.254  13.424  21.773 -0.0830 -0.3493 -0.1487
19792W        W62704  26.407  10.677  20.849  0.2038 -0.2659  0.1118
19793W        W62705  28.904  13.092  18.714  0.2920  0.2473  0.2482
19794W        W62706  29.197  12.920  22.009  0.1867 -0.0610 -0.3333
19795W        W62707  26.464  14.719  19.973 -0.0743 -0.1645 -0.0533
19796W        W62708  25.856  11.070  20.516 -0.1345 -0.0056 -0.0103
19797W        W62709  25.441  14.203  22.464  0.4055 -0.0322  0.0933
19798W        W62710  25.680  13.645  22.456 -0.4539  0.2909 -0.2990
19799W        W62711  25.555  10.376  19.755 -0.1346 -0.2159 -0.2605
19800W        W62712  28.859  12.654  23.600  0.0527  0.1724 -0.2906
19801W        W62713  24.955  14.764  21.935 -0.2682  0.2190  0.0094
19802W        W62714  28.063  11.619  21.899 -0.0651  0.0319 -0.1855
19803W        W62715  25.808  12.627  21.501 -0.2730 -0.0449  0.0786
19804W        W62716  29.933  14.486  22.447 -0.2429 -0.0048  0.0538
19805W        W62717  27.841  12.133  21.186 -0.0093  0.0706  0.1137
19806W        W62718  28.657  11.362  23.403  0.3696 -0.0475 -0.1627
19807W        W62719  27.161  11.717  21.735 -0.2632 -0.1552  0.5349
19808W        W62720  26.928  13.239  20.487 -0.3165  0.2613 -0.0859
19809W        W62721  25.830  13.179  22.273 -0.0569  0.1232 -0.2154
19810W        W62722  27.344  13.622  21.959 -0.0497 -0.0653  0.1250
19811W        W62723  27.895  13.170  18.800 -0.0114  0.1064 -0.4898
19812W        W62724  26.153  14.557  21.856  0.0252 -0.3160 -0.2985
19813W        W62725  26.599  12.615  24.322 -0.0576  0.0374 -0.2514
19814W        W62726  26.224  13.573  23.717 -0.0366 -0.0553  0.2763
19815W        W62727  27.026  13.140  19.787 -0.0174 -0.1119 -0.0379
19816W        W62728  25.604  11.684  21.061 -0.0229  0.2806 -0.0803
19817W        W62729  25.226  13.764  20.329 -0.1895 -0.2153  0.0008
19818W        W62730  26.047  12.935  22.645 -0.2824 -0.0178  0.3507
19819W        W62731  26.215  12.863  21.691  0.1532  0.0943 -0.0880
19820W        W62732  26.550  11.757  20.257  0.0097  0.2162  0.0115
19821W        W62733  26.420  13.113  23.474  0.4736 -0.2156 -0.2302
19822W        W62734  27.686  10.438  22.564 -0.1907  0.0368  0.1257
19823W        W62735  24.541  13.014  20.313 -0.0660 -0.1776  0.1224
19824W        W62736  28.978  14.562  23.198 -0.4032  0.0021 -0.2033
19825W        W62737  27.509  12.600  21.653 -0.0046  0.0935  0.0736
19826W        W62738  28.915  15.285  21.183 -0.1404  0.1624  0.1989
19827W        W62739  24.607  12.754  23.137 -0.3304  0.3744  0.1948
19828W        W62740  26.520  11.546  21.186  0.1131  0.1304 -0.0919
19829W        W62741  25.783  11.660  22.381 -0.0228  0.0108  0.2926
19830W        W62742  25.434  11.299  22.381  0.2644 -0.3071 -0.2644
19831W        W62743  29.347  11.497  22.355  0.2496 -0.1733  0.1250
19832W        W62744  25.777  10.863  19.732  0.0383  0.0452  0.3673
19833W        W62745  28.480  12.038  20.633  0.4896 -0.0385 -0.0366
19834W        W62746  25.947  11.354  21.429  0.1387 -0.1102 -0.4533
19835W        W62747  25.382  11.273  19.608  0.0527  0.0923 -0.2869
19836W        W62748  28.332  11.065  25.021 -0.2060  0.2457  0.2509
19837W        W62749  28.167  14.423  22.671 -0.3646 -0.0937  0.1615
19838W        W62750  29.897  14.028  22.730 -0.0737 -0.3112 -0.2352
19839W        W62751  28.545  14.927  21.568  0.0921 -0.1233  0.4560
19840W        W62752  26.244  12.400  21.846  0.1016 -0.2099  0.1081
19841W        W62753  26.079  11.764  21.180 -0.0336 -0.2970  0.0241
19842W        W62754  25.727  13.519  21.342 -0.0289 -0.3312 -0.0770
19843W        W62755  26.942  13.551  22.877  0.0450  0.0449  0.1896
19844W        W62756  26.779  10.175  20.110 -0.1737 -0.1086 -0.2307
19845W        W62757  30.665  14.337  22.049  0.1409 -0.1374  0.1464
19846W        W62758  27.415  13.074  21.016 -0.2203 -0.0411 -0.2312
19847W        W62759  26.906  13.125  23.080 -0.0172  0.1352 -0.0727
19848W        W62760  26.839  11.824  23.057  0.0829 -0.0142 -0.0920
19849W        W62761  29.102  13.944  22.487  0.0279  0.1661  0.0460
19850W        W62762  27.450  12.305  22.556  0.0464 -0.2553  0.1139
19851W        W62763  25.614  10.940  20.975 -0.3289  0.0006  0.3575
19852W        W62764  27.923  13.899  21.080 -0.0039  0.3968 -0.0745
19853W        W62765  25.883  14.146  19.503 -0.1459  0.1571 -0.0546
19854W        W62766  25.568  11.188  20.056  0.1499 -0.1137 -0.2436
19855W        W62767  26.097  13.997  20.552  0.1029 -0.1206 -0.0746
19856W        W62768  28.684  10.628  23.492  0.0684 -0.1836 -0.0465
19857W        W62769  25.101  13.360  24.450 -0.0825  0.1321 -0.1371
19858W        W62770  27.520  12.646  24.413  0.2673  0.1993  0.1026
19859W        W62771  25.753  11.750  20.617  0.2904 -0.2012 -0.0952
19860W        W62772  26.398  14.019  22.853  0.0976 -0.0610  0.1089
19861W        W62773  25.801  11.981  21.545 -0.0900 -0.0591 -0.0893
19862W        W62774  28.631  10.649  21.583  0.0258  0.1486  0.2604
19863W        W62775  27.504  12.244  23.517  0.0015 -0.1060  0.2983
19864W        W62776  29.162  13.568  21.363  0.0191 -0.2075 -0.0504
19865W        W62777  27.773  11.265  20.305  0.1019  0.0313 -0.2463
19866W        W62778  26.399  11.070  20.469  0.1933 -0.1409 -0.0705
19867W        W62779  24.626  13.176  24.644 -0.3204  0.1585  0.0902
19868W        W62780  27.966  14.504  19.191  0.0683 -0.0134  0.1501
19869W        W62781  26.945  12.459  21.776 -0.0217 -0.0666 -0.0416
19870W        W62782  27.445  11.770  21.106 -0.0364  0.1112  0.3189
19871W        W62783  29.370  15.329  22.214 -0.3444 -0.2822 -0.0799
19872W        W62784  25.389  12.826  21.922  0.4739  0.1328 -0.3053
19873W        W62785  27.636  14.530  24.658 -0.2009 -0.2940  0.3301
19874W        W62786  29.042  13.688  21.912  0.1170 -0.2395  0.3762
19875W        W62787  26.520  12.330  23.872  0.1076 -0.0009 -0.0215
19876W        W62788  27.384  12.170  20.839 -0.2553 -0.3619  0.0190
19877W        W62789  25.780  10.810  22.361 -0.0136  0.1874 -0.0971
19878W        W62790  25.767  14.696  19.476  0.1173 -0.3005  0.3156
19879W        W62791  27.675  11.299  22.830 -0.1035  0.2942 -0.1426
19880W        W62792  27.769  12.038  23.178  0.1484  0.1041 -0.0601
19881W        W62793  28.453  11.338  24.049 -0.1405  0.0808  0.1272
19882W        W62794  29.428  14.400  23.312  0.0189 -0.0085  0.0360
19883W        W62795  28.146  13.150  23.139 -0.4097 -0.0631  0.3493
19884W        W62796  25.853  12.479  22.682 -0.2503 -0.1257 -0.3100
19885W        W62797  25.422  10.746  20.196  0.0936 -0.0180  0.2668
19886W        W62798  27.248  11.229  23.082  0.1549 -0.0682  0.1467
19887W        W62799  24.754  12.440  23.531  0.0223 -0.0917 -0.1861
19888W        W62800  25.871  14.039  23.649  0.0277 -0.0360 -0.0135
19889W        W62801  28.419  13.636  23.833 -0.2703 -0.2733 -0.0203
19890W        W62802  26.849  13.632  21.506  0.2073 -0.0790 -0.0418
19891W        W62803  26.814  11.957  24.139 -0.4509  0.2528 -0.0321
19892W        W62804  27.287  12.200  21.451  0.2439  0.0670  0.1957
19893W        W62805  27.079  14.924  21.227  0.0693 -0.0001 -0.2041
19894W        W62806  28.013  13.694  20.410 -0.0501  0.1825  0.2020
19895W        W62807  26.999  12.206  23.673 -0.1282  0.1813 -0.3729
19896W        W62808  27.378  13.258  22.321 -0.1216  0.1314 -0.1245
19897W        W62809  27.039  14.681  19.610  0.2814  0.0791 -0.6240
19898W        W62810  28.115  13.606  22.891  0.1059 -0.0649  0.0823
19899W        W62811  25.367  12.383  21.565 -0.0719  0.2746 -0.0378
19900W        W62812  29.623  11.845  23.296  0.0743 -0.3198  0.0910
19901W        W62813  24.996  13.760  21.721 -0.0548  0.0516  0.3029
19902W        W62814  25.424  10.190  20.173  0.1426 -0.0167 -0.0470
19903W        W62815  25.230  11.805  20.613  0.1155  0.1847  0.2384
19904W        W62816  25.983  10.370  22.318 -0.0449  0.2009 -0.1937
19905W        W62817  27.666  13.197  20.587  0.3623 -0.3635  0.2583
19906W        W62818  25.977  11.952  22.037  0.3333 -0.4157 -0.0170
19907W        W62819  26.267  11.678  21.660 -0.1436 -0.1829 -0.0456
19908W        W62820  26.254  14.863  23.174  0.1320 -0.0164 -0.0130
19909W        W62821  27.205  13.536  24.489  0.0116 -0.3218 -0.2644
19910W        W62822  27.329  10.727  21.730  0.0036  0.0074  0.3509
19911W        W62823  28.617  13.548  21.520  0.1526 -0.1263 -0.2065
19912W        W62824  28.072  13.824  24.941 -0.4070 -0.2559 -0.3681
19913W        W62825  25.834  11.035  18.203  0.1392 -0.2080  0.1204
19914W        W62826  28.902  11.323  22.342  0.0084 -0.1230  0.1180
19915W        W62827  25.350  11.205  21.417  0.0044 -0.0385 -0.1586
19916W        W62828  25.636  12.594  20.645  0.2452  0.0097  0.1870
19917W        W62829  27.920  14.005  22.669  0.3523 -0.2399  0.2522
19918W        W62830  26.897  11.565  22.234 -0.0281 -0.2068 -0.0300
19919W        W62831  27.209  14.422  21.220  0.1231  0.0381  0.0616
19920W        W62832  26.306   9.970  22.270 -0.0732  0.0992 -0.0447
19921W        W62833  28.297  14.153  22.218 -0.2004  0.0309 -0.0766
19922W        W62834  27.134  11.648  22.733 -0.0404  0.3188  0.1758
19923W        W62835  26.397  10.524  21.383 -0.2415  0.0213 -0.1781
19924W        W62836  26.519  12.204  23.414  0.3197 -0.3396 -0.0237
19925W        W62837  28.296  12.542  23.372  0.2464 -0.0769  0.1334
19926W        W62838  27.150  11.725  24.344 -0.0422  0.1536 -0.1124
19927W        W62839  26.610  13.601  22.423  0.2515  0.0785 -0.0722
19928W        W62840  26.637  10.687  21.833  0.0199  0.2870 -0.1731
19929W        W62841  28.510  13.840  20.177 -0.2473 -0.0048 -0.2287
19930W        W62842  29.257  12.498  23.862  0.1816 -0.1709 -0.1579
19931W        W62843  26.149  12.321  22.331  0.1898  0.0859 -0.2751
19932W        W62844  24.899  13.862  23.102  0.0248  0.2877 -0.4865
19933W        W62845  25.009  12.489  21.265  0.1347 -0.0085 -0.0701
19934W        W62846  28.065  12.126  23.621 -0.2895 -0.0131  0.0791
19935W        W62847  25.998  13.272  23.099  0.2066 -0.1148 -0.3490
19936W        W62848  26.697  11.995  21.681 -0.0292 -0.0379  0.0566
19937W        W62849  26.917  13.180  21.829  0.4112  0.0026  0.0207
19938W        W62850  27.608  10.822  20.121 -0.1088 -0.0885 -0.0225
19939W        W62851  26.335  12.263  19.650  0.1525 -0.2169 -0.0114
19940W        W62852  26.078  12.265  23.269  0.1807 -0.0790 -0.1069
19941W        W62853  29.687  11.451  24.154 -0.1524  0.0639 -0.3232
19942W        W62854  27.565  13.302  19.406 -0.0987  0.0266  0.1157
19943W        W62855  27.134  11.790  23.853 -0.0246 -0.0606  0.1671
19944W        W62856  25.493  11.934  21.942  0.1879 -0.0311  0.2893
19945W        W62857  29.822  13.491  20.415 -0.2522  0.2529  0.0072
19946W        W62858  25.686  12.550  23.632  0.1378 -0.0216  0.0544
19947W        W62859  27.498  14.311  24.177  0.0026 -0.0327 -0.0659
19948W        W62860  27.212  13.564  23.969 -0.0311 -0.1238 -0.2531
19949W        W62861  25.269   9.945  21.765 -0.3752 -0.1393 -0.1214
19950W        W62862  25.533  11.501  22.814  0.1183  0.0726 -0.1956
19951W        W62863  27.286  12.786  22.741  0.3244  0.1110 -0.0674
19952W        W62864  27.447  14.316  21.922 -0.2610  0.0798  0.0848
19953W        W62865  25.968  13.129  20.076  0.3423 -0.2935 -0.3667
19954W        W62866  27.857  11.395  21.483  0.0966 -0.0215  0.2672
19955W        W62867  24.064  10.478  22.250 -0.0939 -0.1624  0.2065
19956W        W62868  26.500  12.768  22.463  0.2131  0.2516 -0.1226
19957W        W62869  26.790  12.293  22.193 -0.1130  0.2314 -0.0078
19958W        W62870  27.514  12.442  23.058 -0.3730 -0.1785  0.2738
19959W        W62871  26.315  11.573  23.927 -0.1255  0.1576  0.0923
19960W        W62872  27.257  11.840  23.386 -0.1938 -0.1937  0.0558
19961W        W62873  26.902  10.582  20.960  0.0547  0.1106 -0.0691
19962W        W62874  26.416  12.375  22.912 -0.1123  0.1413  0.3130
19963W        W62875  28.625  12.263  22.724  0.2681 -0.0381 -0.1891
19964W        W62876  26.988  12.229  24.535 -0.2487  0.2251 -0.0837
19965W        W62877  25.095  12.904  23.227 -0.2046 -0.1267 -0.2948
19966W        W62878  28.042  15.293  23.690  0.1824 -0.1975 -0.1037
19967W        W62879  28.592  12.377  19.553 -0.0496  0.1455 -0.0998
19968W        W62880  29.153  11.609  23.345 -0.3214  0.2282 -0.0299
19969W        W62881  28.338  13.835  20.804  0.0746  0.0522 -0.3216
19970W        W62882  27.140  12.902  21.439 -0.4875 -0.2758  0.0517
19971W        W62883  25.162  11.444  21.873  0.1884  0.0219 -0.2729
19972W        W62884  27.923  13.117  23.665  0.1883  0.2409  0.4533
19973W        W62885  26.989  11.245  19.815  0.0236  0.1085 -0.0862
19974W        W62886  28.774  11.898  23.417  0.1559  0.2540 -0.0258
19975W        W62887  28.879  11.942  20.881  0.2391 -0.1155 -0.1941
19976W        W62888  27.589  12.709  22.161 -0.1022  0.2522 -0.4297
19977W        W62889  26.498  10.967  22.717  0.0326  0.3846 -0.1451
19978W        W62890  25.298  11.780  22.390  0.2961  0.2516 -0.2606
19979W        W62891  26.287  14.454  24.135 -0.0734  0.0624  0.4728
19980W        W62892  26.873  12.253  20.607  0.2527  0.1521  0.2055
19981W        W62893  25.609  11.730  20.101  0.0296 -0.0292  0.3314
19982W        W62894  27.384  13.412  21.495  0.3531 -0.2970  0.0009
19983W        W62895  30.119  13.819  22.319 -0.0726  0.2653  0.1108
19984W        W62896  26.806  11.090  20.892 -0.0171  0.1561 -0.1342
19985W        W62897  28.769  11.216  22.836  0.4722 -0.3113 -0.1226
19986W        W62898  26.338  13.983  19.672 -0.3683  0.0471 -0.1156
19987W        W62899  27.616  11.785  22.621  0.2648  0.0163  0.1289
19988W        W62900  27.060  14.058  21.630  0.1569 -0.3321  0.0445
19989W        W62901  25.316  13.949  23.856  0.0040 -0.3399 -0.0904
19990W        W62902  27.454  13.067  21.859  0.1925  0.0058 -0.0751
19991W        W62903  29.045  12.067  22.935 -0.2083 -0.0336  0.3473
19992W        W62904  27.800  12.683  22.696 -0.0519  0.0187  0.0288
19993W        W62905  26.461  13.518  23.177 -0.1079 -0.0257  0.3518
19994W        W62906  29.885  10.992  22.813 -0.0966 -0.2483  0.0775
19995W        W62907  28.392  13.146  21.797  0.3496 -0.0948  0.2468
19996W        W62908  25.203  12.330  22.596  0.2125 -0.2356  0.3100
19997W        W62909  27.737  13.346  23.282  0.0172  0.3039 -0.0928
19998W        W62910  29.436  12.713  23.395  0.1200  0.2301 -0.0491
19999W        W62911  26.369  13.994  20.994 -0.0302 -0.1834 -0.1571
20000W        W62912  24.880  13.405  22.566 -0.2541  0.1474 -0.0374
20001W        W62913  26.343  12.839  23.096  0.1946  0.0524  0.2528
20002W        W62914  28.201  11.698  23.406 -0.1116 -0.2046 -0.5220
20003W        W62915  25.405  10.929  22.061 -0.0550  0.2664  0.1396
20004W        W62916  26.054  14.411  20.863 -0.0879  0.1036 -0.2077
20005W        W62917  25.276  13.336  22.198  0.0592  0.0260 -0.1066
20006W        W62918  25.004  12.709  22.263 -0.3799  0.0187 -0.0721
20007W        W62919  25.921  14.877  21.632 -0.2196 -0.1312  0.1569
20008W        W62920  27.264  12.720  20.763  0.2197  0.1485 -0.2636
20009W        W62921  27.811  13.407  21.056 -0.0362 -0.0496  0.2742
20010W        W62922  28.854  15.472  22.105 -0.1446  0.0736 -0.0105
20011W        W62923  26.095  11.828  19.838 -0.0523  0.0238 -0.0728
20012W        W62924  26.302  14.512  21.334 -0.3039  0.0416 -0.2179
20013W        W62925  24.113  12.890  20.009  0.3549 -0.1899 -0.0449
20014W        W62926  27.771  12.772  20.319 -0.0126 -0.2268  0.0473
20015W        W62927  27.104  13.794  20.312  0.1346 -0.0766 -0.2157
20016W        W62928  28.936  13.839  23.165 -0.0394  0.0254  0.0086
20017W        W62929  28.403  11.349  21.647  0.0981  0.1541 -0.0678
20018W        W62930  28.889  12.300  21.648  0.0821 -0.2917 -0.0677
20019W        W62931  28.235  11.274  21.064 -0.0661 -0.0698  0.2329
20020W        W62932  28.206  13.641  22.430  0.3386 -0.0669  0.1011
20021W        W62933  26.459  13.186  22.768  0.0530 -0.3086 -0.2794
20022W        W62934  26.397  10.519  20.271  0.0982  0.0571  0.0954
20023W        W62935  27.603  13.528  24.991  0.1173 -0.1894 -0.2556
20024W        W62936  29.259  10.577  22.393  0.1124 -0.0738  0.2854
20025W        W62937  26.407  14.061  24.538  0.2151  0.0696 -0.0959
20026W        W62938  29.672  13.974  20.656 -0.0027  0.1770 -0.0268
20027W        W62939  24.752  10.717  19.785  0.3151 -0.2278 -0.0215
20028W        W62940  25.627  12.039  23.686  0.2309  0.0320 -0.0533
20029W        W62941  29.529  11.969  23.805 -0.1104  0.2532 -0.1095
20030W        W62942  26.572  12.022  19.234  0.0545 -0.0031 -0.3758
20031W        W62943  27.094  11.380  23.535  0.1486 -0.2040 -0.0851
20032W        W62944  27.225  14.337  19.338  0.1494  0.2656 -0.1556
20033W        W62945  26.765  13.529  20.018 -0.0331  0.0344 -0.0754
20034W        W62946  28.108  14.985  21.788 -0.2106 -0.2092  0.2001
20035W        W62947  25.069  10.543  22.110 -0.1912 -0.3736  0.1220
20036W        W62948  28.290  11.898  20.215 -0.1217  0.1958 -0.0618
20037W        W62949  27.718  11.731  23.580  0.2131  0.2594  0.2300
20038W        W62950  29.012  10.976  23.196  0.2864 -0.1216  0.0741
20039W        W62951  24.752  13.207  20.724 -0.0099 -0.3349  0.1501
20040W        W62952  27.918  12.361  22.211 -0.3110 -0.1421  0.0776
20041W        W62953  28.083  12.963  22.346 -0.0108 -0.2496 -0.0628
20042W        W62954  26.494  14.077  21.497  0.2345  0.0670 -0.1310
20043W        W62955  26.457  11.945  22.076 -0.0955 -0.3334 -0.0037
20044W        W62956  30.750  13.454  23.036 -0.1062 -0.0300 -0.0445
20045W        W62957  26.328  10.852  19.328  0.2663  0.0360 -0.0262
20046W        W62958  26.592  14.119  24.020 -0.0633  0.2327 -0.0589
20047W        W62959  25.705  11.525  21.864 -0.0127 -0.2050 -0.2778
20048W        W62960  27.216  11.441  20.712  0.1579 -0.1639 -0.2708
20049W        W62961  25.505  12.752  22.398 -0.3883  0.4876 -0.0628
20050W        W62962  27.362  12.003  22.928 -0.2375  0.1058  0.1160
20051W        W62963  28.151  13.359  24.160  0.1142  0.4319  0.2683
20052W        W62964  25.012   9.989  19.947 -0.0455  0.3243 -0.0958
20053W        W62965  27.470  12.584  21.185  0.1269  0.0555 -0.0209
20054W        W62966  27.621  11.794  21.607 -0.0712 -0.2712  0.1405
20055W        W62967  26.289  13.436  19.807  0.0139  0.1926  0.0544
20056W        W62968  27.835  13.268  22.718 -0.2063  0.0516 -0.1811
20057W        W62969  27.809  14.045  23.153  0.0188  0.0503 -0.1685
20058W        W62970  25.079  10.814  21.649 -0.0864 -0.1432  0.1096
20059W        W62971  28.013  13.458  21.560 -0.0868  0.3219  0.1001
20060W        W62972  27.885  13.275  22.007 -0.0344 -0.0058  0.1809
20061W        W62973  27.345  10.385  21.258  0.0502 -0.2051 -0.0255
20062W        W62974  26.317  13.191  24.001 -0.0450 -0.3012 -0.0410
20063W        W62975  26.681  14.190  22.470 -0.2882  0.0306 -0.1093
20064W        W62976  29.584  11.570  21.732 -0.0597  0.0422 -0.0629
20065W        W62977  31.071  11.948  22.449 -0.1293  0.2011  0.1025
20066W        W62978  27.829  13.389  20.075 -0.1887  0.0950 -0.1597
20067W        W62979  28.263  10.374  23.679 -0.0164 -0.0969  0.0722
20068W        W62980  26.976  14.422  22.905 -0.0414 -0.0872 -0.4023
20069W        W62981  26.721  14.427  24.493 -0.2251 -0.0126 -0.0320
20070W        W62982  26.562  11.626  18.718 -0.1163 -0.0686 -0.0259
20071W        W62983  27.083  15.203  21.825 -0.0532  0.0529  0.1653
20072W        W62984  25.733  13.196  20.932 -0.1919 -0.1225 -0.1422
20073W        W62985  26.765  15.268  20.865  0.1763  0.0526 -0.2814
20074W        W62986  27.588  13.810  20.121  0.1124 -0.0914  0.0368
20075W        W62987  26.759  11.973  22.590 -0.0648  0.1114 -0.3055
20076W        W62988  28.366  12.598  22.089 -0.1027  0.1567  0.0041
20077W        W62989  26.616  11.418  22.646  0.0560  0.3081  0.0246
20078W        W62990  26.918  10.953  21.471 -0.6838  0.3214  0.2523
20079W        W62991  27.321  10.862  19.668 -0.0295  0.1259 -0.0583
20080W        W62992  25.650  13.647  22.932  0.4985  0.1307  0.0880
20081W        W62993  25.851  12.613  19.687 -0.0613 -0.3560  0.0903
20082W        W62994  25.969  12.241  20.741 -0.2009  0.0737  0.1481
20083W        W62995  25.615  13.213  22.766 -0.1768  0.0180  0.1140
20084W        W62996  26.407  10.415  24.161  0.2313  0.2482  0.0214
20085W        W62997  26.329  12.963  24.517  0.0438  0.3206  0.1261
20086W        W62998  25.789  13.061  21.770  0.0822  0.1210 -0.0469
20087W        W62999  26.160  12.230  21.407 -0.2325  0.2938 -0.3094
20088W        W63000  28.642  14.227  20.761  0.0920  0.2094  0.0073
20089W        W63001  26.173  11.230  23.557 -0.0165  0.2790  0.0738
20090W        W63002  24.055  12.195  21.964 -0.1182  0.4417 -0.0007
20091W        W63003  27.709  13.069  21.451  0.0126  0.1686  0.1833
20092W        W63004  28.735  14.005  21.210 -0.0909 -0.2663 -0.1862
20093W        W63005  25.623  12.126  22.423  0.1096  0.2623  0.1395
20094W        W63006  29.461  14.762  23.871 -0.1382 -0.0558  0.1385
20095W        W63007  25.680  12.652  20.193  0.0391  0.1723  0.0053
20096W        W63008  27.561  13.884  23.611 -0.0143  0.1401  0.2232
20097W        W63009  27.216  12.692  23.622 -0.2553  0.1907  0.0084
20098W        W63010  25.910  11.193  19.315  0.0877 -0.0851 -0.2234
20099W        W63011  27.320  13.019  24.088  0.2981  0.0574 -0.0517
20100W        W63012  27.093  13.494  21.073  0.0660 -0.0384 -0.0279
20101W        W63013  27.822  14.557  20.733  0.2467  0.0042 -0.1801
20102W        W63014  27.570  15.302  22.468  0.0785  0.1711 -0.1757
20103W        W63015  27.121  14.846  25.849  0.0909  0.0814 -0.4425
20104W        W63016  25.774  12.718  24.467 -0.1944  0.1130 -0.0791
20105W        W63017  26.835  13.721  20.719 -0.0012  0.0299  0.2020
20106W        W63018  25.960  13.047  23.620 -0.0078  0.0421 -0.2105
20107W        W63019  29.519  14.540  21.194 -0.4183 -0.3568 -0.2016
20108W        W63020  29.454  11.517  22.878  0.0004  0.1381  0.1274
20109W        W63021  28.283  12.695  22.846  0.0489 -0.0774  0.0991
20110W        W63022  27.439  10.551  23.202 -0.0637  0.0389  0.0029
20111W        W63023  26.590  12.823  21.962  0.0382  0.2451 -0.0514
20112W        W63024  29.211  14.204  22.936  0.1114  0.2899 -0.2844
20113W        W63025  25.113  11.157  22.785 -0.0281  0.0014  0.3163
20114W        W63026  27.407  11.249  21.523 -0.1056 -0.0890  0.2114
20115W        W63027  27.419  13.648  20.703  0.1629  0.3404 -0.0879
20116W        W63028  25.367  12.737  22.861 -0.0458  0.1152  0.1124
20117W        W63029  27.740  11.907  22.112 -0.0698  0.1688 -0.2085
20118W        W63030  27.647  12.568  23.886 -0.3721  0.2629 -0.1125
20119W        W63031  25.921  12.711  21.024 -0.0944 -0.0464 -0.0364
20120W        W63032  27.179  13.228  23.598 -0.1186 -0.0342  0.0087
20121W        W63033  26.061  11.487  20.283 -0.1876  0.0649 -0.1791
20122W        W63034  28.617  12.929  20.318 -0.2695 -0.0704  0.0981
20123W        W63035  28.183  14.067  21.558  0.1369 -0.0900 -0.0995
20124W        W63036  29.679  15.227  23.642  0.1424 -0.1745  0.0024
20125W        W63037  27.501  13.781  22.430  0.3967 -0.1686  0.0846
20126W        W63038  28.997  12.730  23.008  0.1602 -0.0842 -0.0229
20127W        W63039  25.149  11.453  20.950  0.0668  0.1916 -0.1193
20128W        W63040  25.255  12.745  20.409 -0.0328 -0.3036 -0.3432
20129W        W63041  26.028  12.784  22.155  0.2093  0.0798 -0.3127
20130W        W63042  27.933  12.198  22.702  0.1456 -0.1532 -0.2677
20131W        W63043  27.192  11.944  22.347 -0.1131 -0.2008 -0.1712
20132W        W63044  25.735   8.973  20.844 -0.2318  0.3140  0.0495
20133W        W63045  27.696  15.091  24.608 -0.1185 -0.5178 -0.0869
20134W        W63046  28.020  11.699  22.874 -0.0620 -0.0060  0.2636
20135W        W63047  26.767  13.719  27.956  0.1598  0.1082 -0.1390
20136W        W63048  26.149  13.852  24.121 -0.1904 -0.2380  0.1388
20137W        W63049  28.764  12.384  23.198  0.0531  0.1921  0.2045
20138W        W63050  29.762  13.847  24.777 -0.0175  0.0990  0.3258
20139W        W63051  24.766  11.918  24.759 -0.0305 -0.1505 -0.0223
20140W        W63052  28.867  12.852  24.579 -0.1498  0.1232 -0.3259
20141W        W63053  24.514  11.497  26.659  0.0770  0.0795 -0.5394
20142W        W63054  28.452  13.064  25.535  0.0464 -0.1556  0.2454
20143W        W63055  30.153  14.004  26.861  0.2884  0.0133  0.2135
20144W        W63056  27.164  13.617  23.295  0.2371 -0.3721  0.0110
20145W        W63057  27.948  12.596  28.133 -0.0268 -0.1760  0.1593
20146W        W63058  27.089  14.385  26.064  0.0984 -0.1790 -0.3691
20147W        W63059  27.284  11.186  25.434  0.2635 -0.0833  0.4441
20148W        W63060  25.017  12.865  26.257 -0.2745  0.0982  0.1406
20149W        W63061  29.237  13.658  26.155  0.2581  0.2284 -0.1987
20150W        W63062  26.345  14.200  25.586  0.4278 -0.0188  0.0032
20151W        W63063  26.979  13.294  25.748 -0.4092 -0.1177 -0.2932
20152W        W63064  25.974  12.795  24.907  0.1916 -0.2369  0.1470
20153W        W63065  28.235  15.491  27.340  0.1682  0.1370 -0.1326
20154W        W63066  26.538  11.860  27.154  0.0582 -0.1539  0.0159
20155W        W63067  27.694  11.823  25.861 -0.1275 -0.0286  0.1385
20156W        W63068  27.676  13.338  24.430 -0.2737 -0.5316 -0.1064
20157W        W63069  25.203  13.416  23.916  0.1124 -0.0465 -0.0019
20158W        W63070  26.693  13.335  27.122  0.1618  0.2319  0.3033
20159W        W63071  25.395  13.290  26.118 -0.1021  0.1929  0.0181
20160W        W63072  28.160  11.589  25.851  0.1167  0.1001  0.1301
20161W        W63073  28.093  12.292  26.571  0.0686  0.1481 -0.1768
20162W        W63074  29.769  14.655  26.506 -0.2921 -0.1344  0.0441
20163W        W63075  29.130  13.620  27.402  0.0086 -0.0681 -0.0071
20164W        W63076  28.670  12.303  27.688 -0.0895 -0.0705 -0.1347
20165W        W63077  25.684  13.293  24.052 -0.1717  0.0844  0.1057
20166W        W63078  26.421  15.724  26.663  0.2690  0.3115 -0.1177
20167W        W63079  26.744  12.659  26.256  0.1332 -0.2068 -0.1159
20168W        W63080  30.008  14.155  25.557 -0.0498  0.4119  0.0229
20169W        W63081  29.032  14.909  27.082 -0.2322 -0.3450  0.2386
20170W        W63082  28.055  14.397  28.295 -0.3088 -0.1325  0.0889
20171W        W63083  26.790  12.678  23.372 -0.0125 -0.1059  0.0442
20172W        W63084  27.939  15.235  26.969 -0.1175  0.6119 -0.0007
20173W        W63085  25.277  13.617  28.333  0.0534  0.1435 -0.0464
20174W        W63086  27.412  12.829  26.585  0.3446  0.0971 -0.2751
20175W        W63087  29.249  13.665  25.465 -0.1334  0.4655  0.0134
20176W        W63088  25.995  13.813  25.369  0.2432 -0.1116 -0.0360
20177W        W63089  27.066  13.029  27.065  0.1829  0.3331 -0.0546
20178W        W63090  27.131  13.487  27.190 -0.2140 -0.1700 -0.0511
20179W        W63091  26.566  12.411  25.355  0.0178 -0.1208  0.1795
20180W        W63092  29.526  11.533  28.020  0.0969 -0.1785  0.1351
20181W        W63093  25.834  14.023  22.725 -0.0116 -0.0788  0.1930
20182W        W63094  29.270  12.494  24.726 -0.1335  0.2936  0.1855
20183W        W63095  26.652  11.214  23.726 -0.0480 -0.1003 -0.0372
20184W        W63096  29.145  12.381  25.555  0.2391 -0.0615  0.1917
20185W        W63097  27.657  10.608  24.788 -0.2013 -0.1055  0.0331
20186W        W63098  26.968  15.754  26.178 -0.0556  0.2507 -0.0523
20187W        W63099  27.051  10.517  25.805  0.2961  0.1085  0.0416
20188W        W63100  28.243  13.415  26.974 -0.0367  0.3198  0.0597
20189W        W63101  27.011  12.565  24.085 -0.2557 -0.1830 -0.1623
20190W        W63102  28.152  12.317  25.523  0.2192  0.2072 -0.3758
20191W        W63103  27.355  14.436  27.312  0.3515 -0.2367 -0.1569
20192W        W63104  26.133  12.440  24.596 -0.0310  0.2208 -0.0342
20193W        W63105  28.026  14.719  24.951  0.2099 -0.0096  0.1554
20194W        W63106  28.459  14.268  25.702  0.0204 -0.0404  0.1923
20195W        W63107  28.504  14.082  24.144  0.1675  0.4434 -0.2223
20196W        W63108  27.059  13.584  24.991  0.1857  0.0205 -0.1569
20197W        W63109  26.299  12.850  26.022  0.2576  0.3600 -0.2059
20198W        W63110  26.948  11.741  25.434  0.1485  0.2690  0.1892
20199W        W63111  26.045  11.445  23.093  0.0773 -0.0815 -0.0402
20200W        W63112  28.902  14.424  27.916  0.0619  0.2546  0.0034
20201W        W63113  25.500  14.507  26.919 -0.0466  0.0768  0.0560
20202W        W63114  29.300  12.225  24.263 -0.2042 -0.0707 -0.0029
20203W        W63115  26.743  13.031  25.349  0.2183 -0.0240 -0.1417
20204W        W63116  30.006  13.599  27.072  0.3849  0.1582 -0.2012
20205W        W63117  28.410  14.013  23.134 -0.0760 -0.2067 -0.0929
20206W        W63118  28.056  10.701  24.492  0.1959 -0.0016  0.3422
20207W        W63119  28.910  10.681  24.393  0.1171  0.1865 -0.2486
20208W        W63120  26.557  13.773  21.909 -0.1118  0.0945  0.3025
20209W        W63121  28.026  14.570  25.989  0.1982  0.0381 -0.1619
20210W        W63122  28.595  13.191  26.362  0.2356 -0.1127 -0.3345
20211W        W63123  28.534  13.461  23.236 -0.3149  0.2317  0.0813
20212W        W63124  27.266  14.116  26.430  0.1974 -0.2294 -0.0346
20213W        W63125  27.827  12.006  25.031 -0.0788  0.1349 -0.1831
20214W        W63126  26.681  12.377  27.127 -0.2029  0.1969 -0.1595
20215W        W63127  24.243  14.571  24.407  0.0891 -0.1311 -0.2553
20216W        W63128  25.420  13.012  27.235 -0.3518 -0.0162 -0.3797
20217W        W63129  27.689  13.031  25.309 -0.0728  0.3392 -0.1648
20218W        W63130  26.283  10.970  26.106 -0.0760 -0.0020  0.3829
20219W        W63131  26.167  12.476  26.995  0.2363  0.4727 -0.0265
20220W        W63132  27.977  12.396  24.745 -0.0232 -0.0663 -0.0654
20221W        W63133  27.511  11.539  26.936 -0.2100 -0.0720 -0.0535
20222W        W63134  29.355  11.249  26.754 -0.2687 -0.3533 -0.0445
20223W        W63135  25.845  14.084  25.805  0.5025  0.1318 -0.0241
20224W        W63136  29.949  14.440  26.003 -0.2997  0.1317 -0.2024
20225W        W63137  29.041  12.935  25.586 -0.2366 -0.0122  0.0867
20226W        W63138  28.557  14.609  24.344  0.1966  0.0631  0.1201
20227W        W63139  26.528  12.865  26.726  0.3481  0.1029 -0.2250
20228W        W63140  26.430  12.788  25.071  0.0880  0.3378 -0.2695
20229W        W63141  26.168  11.605  27.456  0.0190 -0.0272 -0.0711
20230W        W63142  25.515  11.395  25.783  0.1938 -0.1023  0.1625
20231W        W63143  27.889  13.171  26.242 -0.0562 -0.0843  0.3960
20232W        W63144  25.625  10.973  25.192 -0.5159 -0.0680  0.1832
20233W        W63145  27.692  11.633  24.495  0.0640 -0.0340 -0.0227
20234W        W63146  26.824  11.500  24.080 -0.3134 -0.1532 -0.0062
20235W        W63147  25.753  13.637  24.932 -0.1598 -0.0979 -0.0677
20236W        W63148  28.615  11.753  27.977 -0.1254 -0.1353  0.2055
20237W        W63149  28.397  12.531  24.505 -0.3794  0.1739  0.1906
20238W        W63150  29.229  13.609  26.799 -0.0043  0.1496  0.2949
20239W        W63151  28.543  14.592  26.218 -0.2399 -0.1843 -0.1849
20240W        W63152  28.159  12.928  27.042 -0.1715  0.0953  0.0341
20241W        W63153  25.801  12.840  23.138  0.0494 -0.0113 -0.1298
20242W        W63154  27.590  14.359  26.796 -0.0159 -0.1734  0.1120
20243W        W63155  28.197  14.877  26.376  0.2122 -0.0847  0.3950
20244W        W63156  26.166  11.837  23.522  0.1570 -0.1474  0.2268
20245W        W63157  30.790  14.265  25.813  0.0457  0.0518  0.0677
20246W        W63158  26.589  11.695  24.585 -0.1921 -0.0236  0.0067
20247W        W63159  25.612  13.648  25.887 -0.0838 -0.1972  0.0726
20248W        W63160  28.007  11.153  26.055 -0.1003  0.4515 -0.2818
20249W        W63161  29.601  13.802  27.461  0.1875 -0.0078 -0.0228
20250W        W63162  27.567  11.511  24.959  0.1959 -0.1631 -0.0671
20251W        W63163  25.667  11.425  24.553 -0.3268 -0.2064  0.2901
20252W        W63164  29.098  14.533  26.274 -0.0118  0.3399  0.0249
20253W        W63165  25.427  15.083  24.468  0.3318  0.2150  0.0856
20254W        W63166  25.178  12.167  25.017 -0.1850  0.0202  0.3073
20255W        W63167  28.232  14.119  26.155  0.2386  0.1446 -0.2695
20256W        W63168  29.352  12.118  25.094  0.1027 -0.0429 -0.2503
20257W        W63169  25.587  12.761  26.281 -0.3049 -0.1414 -0.1112
20258W        W63170  28.842  14.056  27.474  0.0456 -0.1283  0.0490
20259W        W63171  25.355  14.108  24.737  0.2689  0.0314  0.0932
20260W        W63172  26.724  13.749  27.456  0.0525  0.0709  0.4149
20261W        W63173  28.315  10.540  25.478 -0.2264 -0.2449 -0.0419
20262W        W63174  29.263  11.719  24.220  0.0027 -0.0981 -0.2590
20263W        W63175  29.200  13.367  27.829  0.0851  0.3240 -0.0162
20264W        W63176  28.828  14.058  23.584 -0.2926 -0.0233 -0.2425
20265W        W63177  26.153  10.887  23.168  0.0531 -0.2800  0.2451
20266W        W63178  28.689  10.737  25.164 -0.2908 -0.1496 -0.0366
20267W        W63179  25.798  12.907  26.936 -0.0372 -0.0233 -0.2585
20268W        W63180  28.514  12.870  24.933 -0.1466  0.1400  0.0265
20269W        W63181  28.472  13.633  25.219 -0.0989  0.0111  0.0563
20270W        W63182  27.700  11.248  23.369  0.0627  0.0398  0.0048
20271W        W63183  29.050  14.493  23.705 -0.0878 -0.3462  0.0308
20272W        W63184  26.722  14.145  26.891  0.0836 -0.0241 -0.0669
20273W        W63185  27.143  13.960  27.745  0.0046 -0.0569 -0.1358
20274W        W63186  27.530  12.966  25.959 -0.0982  0.3387 -0.0234
20275W        W63187  28.367  11.509  27.091 -0.0235 -0.1338 -0.0849
20276W        W63188  26.623  12.875  23.838 -0.1208 -0.1948 -0.1054
20277W        W63189  27.596  11.480  24.015  0.0666  0.0697  0.0634
20278W        W63190  26.084  15.516  25.233  0.2009  0.3029 -0.3237
20279W        W63191  29.947  13.030  26.780  0.1097 -0.0933 -0.0386
20280W        W63192  29.206  11.344  26.291 -0.3644  0.2270 -0.0444
20281W        W63193  26.430  11.218  26.789  0.2248 -0.2649  0.0029
20282W        W63194  28.037  12.319  27.594  0.1826 -0.1546  0.1110
20283W        W63195  27.590  12.146  24.540  0.1854 -0.2309  0.3655
20284W        W63196  27.495  12.696  24.890  0.0459  0.3666  0.1512
20285W        W63197  26.492  14.289  24.995 -0.1383 -0.0144  0.0262
20286W        W63198  27.318  11.738  26.474 -0.2711  0.1193 -0.1042
20287W        W63199  26.871  13.226  26.682 -0.2334  0.0434 -0.1230
20288W        W63200  25.161  14.287  26.609 -0.0282 -0.3505 -0.1254
20289W        W63201  27.473  13.965  25.880 -0.3578 -0.0382  0.0795
20290W        W63202  27.051  12.784  24.545  0.1851  0.3468 -0.2085
20291W        W63203  27.276  10.957  26.756 -0.1087 -0.0858 -0.1690
20292W        W63204  27.031  11.026  24.072 -0.0714  0.0780 -0.0934
20293W        W63205  27.283  14.883  25.392  0.1038  0.0790  0.1464
20294W        W63206  27.551  13.686  22.947  0.1390 -0.0679 -0.1194
20295W        W63207  27.669  12.296  25.755 -0.0075 -0.0093 -0.0650
20296W        W63208  27.793  14.522  27.676 -0.0574 -0.0596  0.1890
20297W        W63209  27.553  14.037  24.724 -0.1244 -0.2045  0.0081
20298W        W63210  27.048  13.692  26.687 -0.3871  0.2478  0.1267
20299W        W63211  26.928  14.077  24.824 -0.0806 -0.1566  0.1011
20300W        W63212  27.770   9.656  24.370 -0.0020 -0.3758  0.1572
20301W        W63213  25.949  14.380  26.220  0.3782 -0.0475 -0.0587
20302W        W63214  25.636  11.145  23.271  0.0460  0.0445  0.0415
20303W        W63215  25.261  11.710  23.656  0.0796 -0.0393  0.2167
20304W        W63216  28.200  10.068  25.369 -0.0862 -0.0975 -0.4088
20305W        W63217  28.238  12.716  23.998 -0.1357 -0.0222 -0.1748
20306W        W63218  28.362  11.745  26.312  0.0783 -0.2213 -0.3109
20307W        W63219  27.524  10.923  24.212 -0.1742 -0.3341  0.1293
20308W        W63220  27.093  13.952  27.169 -0.0440  0.2657  0.2163
20309W        W63221  28.207  12.179  27.040  0.1473 -0.1915  0.0508
20310W        W63222  28.632  10.026  24.575 -0.1242 -0.3587  0.0893
20311W        W63223  28.765  14.406  26.890 -0.2036  0.0667  0.0349
20312W        W63224  27.588  13.182  27.173 -0.0748  0.1037 -0.0970
20313W        W63225  25.215  10.786  23.078 -0.0111  0.0999 -0.2205
20314W        W63226  30.437  12.631  26.142 -0.0953 -0.2920 -0.1935
20315W        W63227  26.038  12.817  24.064  0.0127  0.3164  0.2527
20316W        W63228  26.945  14.566  25.113  0.0345 -0.0799  0.2072
20317W        W63229  28.681  14.895  26.658 -0.2755 -0.1931 -0.0088
20318W        W63230  27.343  13.150  24.780 -0.0047 -0.1072 -0.1683
20319W        W63231  26.647  15.591  25.559 -0.2815 -0.0785 -0.0768
20320W        W63232  26.745  12.109  27.635  0.0924  0.2371  0.1924
20321W        W63233  27.823  13.642  26.097 -0.1703 -0.1763  0.1772
20322W        W63234  27.873  11.227  26.930 -0.0229 -0.1485  0.1229
20323W        W63235  27.140  10.763  24.561 -0.2192 -0.1692 -0.0583
20324W        W63236  28.069  11.576  24.974 -0.0920  0.0640  0.1534
20325W        W63237  27.623  13.770  27.019 -0.0587 -0.1030  0.2525
20326W        W63238  27.402  12.518  27.036  0.3331  0.0427  0.2223
20327W        W63239  27.059  14.572  28.419  0.0102  0.1297  0.1087
20328W        W63240  27.223  11.297  26.277  0.0665  0.4273  0.1344
20329W        W63241  28.880  14.189  24.551 -0.0164  0.1704  0.2463
20330W        W63242  27.502  13.523  25.719  0.1804 -0.0037  0.1970
20331W        W63243  26.777  13.204  24.249 -0.1391 -0.0760 -0.1365
20332W        W63244  25.765  11.905  26.609  0.2578  0.1174 -0.3148
20333W        W63245  25.901  13.239  25.270  0.0942 -0.1269 -0.0421
20334W        W63246  27.997  11.785  25.452 -0.2012  0.2157 -0.3189
20335W        W63247  25.942  13.103  28.088 -0.0701 -0.0378 -0.4683
20336W        W63248  26.206  13.825  24.943 -0.0512 -0.0718  0.0063
20337W        W63249  26.767  14.015  26.360 -0.2299 -0.3022 -0.1418
20338W        W63250  28.840   9.659  23.617  0.1831 -0.0794  0.1380
20339W        W63251  27.915  13.018  24.759  0.1614  0.0280 -0.0014
20340W        W63252  27.946  12.340  24.200 -0.3655 -0.1199 -0.2712
20341W        W63253  28.417  10.219  28.853 -0.1722  0.0764  0.2211
20342W        W63254  28.109  11.920  24.538  0.2178 -0.1188 -0.3681
20343W        W63255  28.189  11.346  26.519 -0.1525 -0.1604 -0.2845
20344W        W63256  27.697  12.129  26.862 -0.0373  0.2992 -0.0667
20345W        W63257  29.034  12.741  25.123  0.2891 -0.1630 -0.0252
20346W        W63258  25.351  11.434  26.364 -0.0519 -0.2019  0.0816
20347W        W63259  28.948  14.509  27.362  0.0071  0.2025 -0.0286
20348W        W63260  26.299  12.506  27.617 -0.0639  0.1806 -0.1423
20349W        W63261  28.739  11.271  25.254 -0.1514  0.2112 -0.0709
20350W        W63262  25.860  10.260  24.741  0.0082  0.0997 -0.1599
20351W        W63263  27.396  13.329  26.744 -0.5328 -0.1065  0.0323
20352W        W63264  29.123  14.102  25.993  0.1382  0.0407 -0.1191
20353W        W63265  28.236  13.415  24.728  0.0816 -0.1068  0.1176
20354W        W63266  28.277  12.682  26.321  0.1377 -0.0998  0.0213
20355W        W63267  26.768  13.062  24.792  0.0269 -0.0219  0.1268
20356W        W63268  27.306  12.770  25.580 -0.0346  0.0094 -0.1286
20357W        W63269  26.404  12.084  24.378 -0.1813  0.0982  0.0333
20358W        W63270  26.589  15.037  25.707  0.1158  0.1259  0.0819
20359W        W63271  25.580  11.289  27.794  0.2593  0.2417 -0.0307
20360W        W63272  27.291  12.525  26.070  0.1355 -0.1528 -0.1654
20361W        W63273  28.811  12.152  25.057 -0.0043  0.1210 -0.1431
20362W        W63274  27.648  12.485  25.303  0.1636  0.1277 -0.1272
20363W        W63275  28.039  11.783  26.695  0.3248 -0.0937 -0.2864
20364W        W63276  27.142  11.588  27.282 -0.0532  0.0342 -0.1036
20365W        W63277  26.641  11.488  25.757  0.1361  0.2943  0.1126
20366W        W63278  27.845  13.511  26.630  0.1547  0.2085  0.0619
20367W        W63279  28.629  11.741  24.798  0.0482 -0.3002  0.2107
20368W        W63280  30.399  11.660  26.737 -0.2645  0.2397  0.4981
20369W        W63281  29.488  13.765  22.882  0.0210 -0.2115  0.0767
20370W        W63282  27.389  11.268  24.519 -0.3887  0.4384  0.1718
20371W        W63283  26.093  12.413  25.469  0.1962  0.0262 -0.0171
20372W        W63284  28.821  13.227  28.239  0.2423  0.4757 -0.3985
20373W        W63285  24.922  10.838  23.987 -0.0416 -0.0137  0.0535
20374W        W63286  28.522  11.748  25.289 -0.2233  0.1248  0.0068
20375W        W63287  27.788  13.830  25.435 -0.2042  0.1977  0.2629
20376W        W63288  28.400  12.660  25.849 -0.0932  0.0139  0.3060
20377W        W63289  28.022  11.705  24.075 -0.0043  0.0438 -0.2112
20378W        W63290  24.921  12.215  26.150 -0.3146  0.1812  0.0562
20379W        W63291  26.339  15.164  27.292 -0.0368 -0.1950 -0.0618
20380W        W63292  25.596  10.077  23.104 -0.2239 -0.1082  0.1696
20381W        W63293  27.892  14.145  25.807 -0.1322  0.2268 -0.0076
20382W        W63294  28.565  14.019  26.547 -0.1315 -0.1513 -0.1623
20383W        W63295  28.034  13.754  27.279  0.1908  0.1024 -0.0605
20384W        W63296  27.885  10.105  24.972 -0.1359 -0.4181  0.2809
20385W        W63297  28.844  13.036  27.750  0.0316 -0.0763  0.1477
20386W        W63298  24.897  13.923  24.757 -0.1780 -0.0482 -0.4417
20387W        W63299  26.470  10.971  25.418 -0.1244  0.2087 -0.0320
20388W        W63300  25.770  14.999  26.479  0.1977 -0.1282 -0.1133
20389W        W63301  25.092  13.861  27.261 -0.0294 -0.4076 -0.0196
20390W        W63302  27.677  14.822  26.710  0.0654 -0.2927  0.1680
20391W        W63303  27.807  12.590  26.174  0.0992 -0.1088  0.0574
20392W        W63304  28.184  12.058  25.971  0.0830  0.1052 -0.1838
20393W        W63305  28.404  12.590  27.309 -0.0711  0.0623  0.0578
20394W        W63306  29.126  13.025  26.107  0.0625  0.0277  0.1166
20395W        W63307  27.565  14.422  26.275  0.0904  0.1303  0.1222
20396W        W63308  28.257  13.802  25.723 -0.0035  0.0935 -0.0360
20397W        W63309  27.974  15.311  27.883  0.2550  0.2864  0.0468
20398W        W63310  29.193  13.660  24.503 -0.0117  0.1378  0.0419
20399W        W63311  26.803  13.968  25.839 -0.0993  0.1485 -0.0021
20400W        W63312  25.795  11.690  26.172 -0.1275  0.0332 -0.0328
20401W        W63313  26.508  12.360  26.617 -0.3383 -0.0752  0.0581
20402W        W63314  27.791  12.025  26.312  0.0055  0.4553  0.0628
20403W        W63315  26.364  10.869  23.943  0.1235 -0.1377  0.0815
20404W        W63316  26.645  13.589  24.746  0.1212 -0.1323  0.0552
20405W        W63317  26.008  14.150  28.107 -0.0873  0.1151 -0.0120
20406W        W63318  25.863  12.227  27.620  0.0624  0.2572  0.0797
20407W        W63319  26.653  15.425  26.010  0.2582 -0.2853 -0.0159
20408W        W63320  29.100  13.920  24.964  0.1629  0.1115 -0.0971
20409W        W63321  29.419  13.181  25.326  0.2172  0.1144  0.2411
20410W        W63322  30.007  14.755  27.410  0.1224 -0.0524  0.0214
20411W        W63323  25.648  11.558  25.053  0.2154  0.1665  0.0286
20412W        W63324  25.074  15.171  25.288 -0.1164  0.1499  0.4859
20413W        W63325  25.444  13.876  23.321 -0.0685  0.4455  0.2842
20414W        W63326  29.392  14.133  24.474 -0.0499 -0.1517  0.1228
20415W        W63327  26.396  14.286  26.047  0.0003 -0.0989 -0.0038
20416W        W63328  27.503  13.410  28.300  0.0315 -0.1375  0.2112
20417W        W63329  28.439  10.936  24.290 -0.0382 -0.0597 -0.0652
20418W        W63330  27.190  14.266  25.594  0.1368  0.2473  0.1688
20419W        W63331  28.939  12.087  23.877  0.1375 -0.3277 -0.0658
20420W        W63332  27.368  14.962  27.556 -0.0047  0.0615  0.0232
20421W        W63333  26.461  13.188  26.340  0.2091 -0.1894  0.0009
20422W        W63334  25.361  12.168  24.500 -0.2944 -0.0110 -0.3312
20423W        W63335  26.477  11.695  28.119 -0.2008  0.0911  0.0503
20424W        W63336  28.806  11.199  28.800 -0.0810  0.1145 -0.1499
20425W        W63337  25.593  14.694  27.416 -0.0746 -0.0928  0.1485
20426W        W63338  29.649  14.552  24.369 -0.0080  0.0431  0.0696
20427W        W63339  25.544  11.666  24.121  0.0341  0.1250  0.0529
20428W        W63340  27.476  12.333  26.485  0.2149  0.1098  0.0361
20429W        W63341  28.934  10.398  25.799  0.1165  0.1796  0.2284
20430W        W63342  26.849  14.022  21.145  0.1124 -0.2410  0.3380
20431W        W63343  26.721  11.678  26.342 -0.0530 -0.1342 -0.0733
20432W        W63344  25.758  15.688  24.856  0.0098  0.0470 -0.0826
20433W        W63345  25.907  16.596  27.579  0.3280 -0.0292  0.1711
20434W        W63346  28.377  15.413  26.736  0.2750  0.2216  0.4565
20435W        W63347  25.213  12.224  23.406 -0.1142 -0.0435  0.0242
20436W        W63348  29.433  11.837  26.256  0.1737 -0.2099  0.3570
20437W        W63349  26.525  12.050  28.615 -0.3188  0.0681 -0.0907
20438W        W63350  27.526  10.583  26.555 -0.1621  0.1090  0.1026
20439W        W63351  26.502  13.304  25.859 -0.2032  0.2769  0.1407
20440W        W63352  28.979  11.277  25.890  0.0585 -0.0627 -0.0114
20441W        W63353  27.136  13.736  25.500 -0.0754 -0.1145 -0.1611
20442W        W63354  26.246  11.409  26.352 -0.0308  0.1876  0.2135
20443W        W63355  27.287  12.002  24.894  0.1420  0.1219  0.1186
20444W        W63356  29.731  13.382  27.995  0.0361  0.1098  0.1450
20445W        W63357  28.606  12.921  23.211 -0.0280  0.0995 -0.0660
20446W        W63358  26.914  14.761  27.504 -0.1977  0.1115 -0.2294
20447W        W63359  25.656  12.434  26.730 -0.0142 -0.0980  0.1478
20448W        W63360  26.215  11.676  24.926  0.2376  0.1215  0.0109
20449W        W63361  26.698  11.959  25.105  0.0227  0.1149 -0.0364
20450W        W63362  25.914  12.896  27.485  0.0736 -0.2568 -0.0877
20451W        W63363  30.408  14.564  27.198  0.1877 -0.1776 -0.0290
20452W        W63364  23.919  12.265  25.405  0.0425 -0.0825 -0.2879
20453W        W63365  29.074  13.896  24.069  0.0893  0.1170  0.1889
20454W        W63366  28.540  12.491  26.796 -0.2887 -0.1787  0.1076
20455W        W63367  28.143  13.213  25.181 -0.0430  0.1535 -0.0154
20456W        W63368  29.323  13.604  23.337 -0.2102 -0.1668  0.2318
20457W        W63369  28.955  15.116  25.992 -0.1863 -0.0686  0.0845
20458W        W63370  27.250  12.052  26.054  0.1131 -0.0571 -0.2489
20459W        W63371  30.113  14.319  26.487  0.3021 -0.0059 -0.0474
20460W        W63372  28.070  13.800  24.379  0.0329  0.0930 -0.0884
20461W        W63373  27.499  11.886  25.397 -0.3181 -0.4569  0.0948
20462W        W63374  25.314  13.021  26.670 -0.2275  0.0219  0.1234
20463W        W63375  26.500  15.972  25.943  0.3008  0.0174  0.2866
20464W        W63376  28.849  12.623  25.934 -0.2614  0.0688 -0.3580
20465W        W63377  27.810  11.304  25.472 -0.1835 -0.1326 -0.2342
20466W        W63378  27.479  14.513  25.110  0.2422 -0.1173  0.0764
20467W        W63379  28.691  11.647  25.753  0.1017 -0.0393  0.0188
20468W        W63380  27.006  13.059  26.174  0.1192  0.1044  0.0922
20469W        W63381  26.374  14.345  27.696 -0.1626  0.1638  0.3752
20470W        W63382  26.059  13.447  25.653 -0.1437  0.2320 -0.0912
20471W        W63383  26.039  14.658  27.890  0.1918 -0.3543 -0.3234
20472W        W63384  28.466  13.035  24.362  0.0854  0.1467 -0.0116
20473W        W63385  28.065  12.724  25.174  0.1206 -0.1886 -0.0829
20474W        W63386  28.372  13.369  25.940 -0.0847 -0.0072 -0.1547
20475W        W63387  26.333  11.826  25.522 -0.2581 -0.2230 -0.1289
20476W        W63388  28.966  13.429  25.829 -0.0199 -0.1457  0.1757
20477W        W63389  24.894  12.321  24.496 -0.1310 -0.2320 -0.0698
20478W        W63390  29.202  10.020  25.862 -0.0373 -0.0195  0.1817
20479W        W63391  28.053  10.831  23.455 -0.1201 -0.0448 -0.0124
20480W        W63392  26.256  14.682  25.737  0.2072  0.2337  0.0264
20481W        W63393  26.496  13.623  25.382 -0.0477  0.1160 -0.2725
20482W        W63394  24.829  13.945  22.468  0.0733 -0.2827 -0.0159
20483W        W63395  27.022  12.625  25.030  0.3060 -0.0322 -0.0602
20484W        W63396  27.928  11.794  27.790 -0.1759  0.3810 -0.0257
20485W        W63397  27.274  12.579  28.809  0.0391  0.2600 -0.0100
20486W        W63398  26.757  12.104  25.751 -0.4773  0.1738  0.1524
20487W        W63399  25.813  10.784  24.747  0.0793 -0.1232 -0.1057
20488W        W63400  30.108  14.096  23.905 -0.0784 -0.0261 -0.1586
20489W        W63401  25.779  11.945  24.763 -0.3623  0.3571  0.0758
20490W        W63402  25.828  10.655  26.101  0.0614  0.1103  0.1000
20491W        W63403  28.826  13.341  24.746 -0.1845 -0.1584  0.1104
20492W        W63404  28.460  13.939  24.685 -0.0595  0.3972  0.0692
20493W        W63405  26.251  12.142  25.031  0.0541 -0.0761 -0.0560
20494W        W63406  29.551  14.398  28.073 -0.0516 -0.1003 -0.0645
20495W        W63407  25.819  14.008  24.582  0.0440 -0.1701  0.0599
20496W        W63408  28.371  13.217  27.892  0.0576 -0.1263  0.1032
20497W        W63409  26.282  11.986  27.731 -0.0207  0.2394 -0.0600
20498W        W63410  24.337  11.684  24.929  0.3761 -0.0451  0.1324
20499W        W63411  28.323  12.153  25.067  0.2225  0.0745  0.1904
20500W        W63412  28.406  14.144  25.210 -0.1375  0.0353 -0.2636
20501W        W63413  27.042  14.132  23.639 -0.2794  0.0994 -0.1330
20502W        W63414  26.695  12.858  27.341 -0.0066  0.3023  0.1514
20503W        W63415  27.018  14.920  27.988 -0.0600  0.3034  0.1479
20504W        W63416  25.274  11.159  27.442  0.1768 -0.2036  0.0107
20505W        W63417  27.398  12.928  23.239 -0.1246 -0.0526  0.1200
20506W        W63418  26.856  13.548  26.164  0.2046 -0.4245 -0.0271
20507W        W63419  29.781  13.036  22.997 -0.0162 -0.1003 -0.1815
20508W        W63420  28.658  11.504  26.690 -0.3470 -0.1071 -0.1634
20509W        W63421  28.371  11.145  25.619  0.0432 -0.2339 -0.3077
20510W        W63422  25.599  11.038  28.236  0.0755  0.0898  0.0062
20511W        W63423  25.506  13.963  26.964 -0.0334 -0.0555 -0.0611
20512W        W63424  29.075  12.604  26.860  0.0209  0.0761 -0.1037
20513W        W63425  27.249  10.598  25.242 -0.1166 -0.2155  0.0006
20514W        W63426  27.991  11.263  24.256 -0.1523  0.1011  0.3211
20515W        W63427  27.846  12.959  24.163 -0.0076  0.1886 -0.1046
20516W        W63428  27.173  12.262  25.432  0.1764 -0.2933  0.0906
20517W        W63429  27.819  11.108  24.731 -0.2186  0.3596 -0.3201
20518W        W63430  27.652  12.664  27.764  0.0638 -0.1561 -0.0828
20519W        W63431  27.714  14.792  27.194  0.0459 -0.0645  0.1043
20520W        W63432  28.558  14.689  28.123  0.1366  0.3262  0.1027
20521W        W63433  26.635  12.437  24.824  0.2275  0.1246 -0.0957
20522W        W63434  29.373  13.479  23.969 -0.1179 -0.0104  0.2425
20523W        W63435  28.112  14.457  26.709  0.1600 -0.0971  0.3370
20524W        W63436  28.888  16.130  27.337  0.1374 -0.0086 -0.0487
20525W        W63437  26.823  14.426  27.885 -0.3018 -0.0751  0.0829
20526W        W63438  28.663  13.785  26.039 -0.0273 -0.1231  0.0010
20527W        W63439  26.069  12.835  26.461 -0.0033 -0.3178 -0.1013
20528W        W63440  26.203  13.466  24.484  0.1806  0.0697 -0.2852
20529W        W63441  26.871  13.243  27.653 -0.0171 -0.1571 -0.0846
20530W        W63442  28.840  12.745  26.412  0.0020 -0.1830 -0.0376
20531W        W63443  26.077  11.670  24.443  0.2269 -0.1373  0.0288
20532W        W63444  28.053  11.266  23.745 -0.0390  0.3406  0.0083
20533W        W63445  27.161  15.342  27.995  0.1039 -0.2279  0.1208
20534W        W63446  27.813  12.660  26.761  0.2213  0.2890  0.1938
20535W        W63447  26.625  13.399  31.808  0.1433  0.3892 -0.1861
20536W        W63448  26.761  10.689  28.302 -0.0456  0.0420 -0.1432
20537W        W63449  29.534  13.330  27.491 -0.3758 -0.0969 -0.1075
20538W        W63450  29.709  11.500  28.812  0.2008  0.3126 -0.0434
20539W        W63451  27.091  10.601  28.842 -0.4987  0.1216 -0.2010
20540W        W63452  27.393  14.618  29.411  0.4179  0.0103 -0.0288
20541W        W63453  26.750  11.284  31.885 -0.1963 -0.0959  0.3044
20542W        W63454  27.483  12.408  30.484  0.1719  0.2020  0.2342
20543W        W63455  26.850  14.256  29.722  0.1547 -0.0486  0.2124
20544W        W63456  27.972  13.835  28.230 -0.0574 -0.2896  0.1902
20545W        W63457  26.730  12.401  29.521  0.1501 -0.0798 -0.1012
20546W        W63458  28.101  14.054  30.935 -0.0201 -0.5167  0.1878
20547W        W63459  26.434  11.137  28.253  0.0358 -0.3071  0.1932
20548W        W63460  26.742  10.026  31.202  0.2660  0.0819 -0.0138
20549W        W63461  28.228  11.502  29.580  0.0402 -0.1714 -0.0957
20550W        W63462  26.059  12.582  28.085  0.2864 -0.0154  0.0736
20551W        W63463  26.583  11.398  29.111  0.2530  0.2291  0.2931
20552W        W63464  28.382  13.054  28.481  0.2245 -0.0444  0.0039
20553W        W63465  27.270  15.093  28.400 -0.2133  0.0442  0.1733
20554W        W63466  27.317  11.953  30.373  0.2227 -0.0121 -0.0783
20555W        W63467  28.027  10.937  30.504 -0.1657 -0.3352 -0.0064
20556W        W63468  27.650  12.252  29.202 -0.4652  0.1506  0.2192
20557W        W63469  26.228  12.932  27.155 -0.1660 -0.2222  0.4011
20558W        W63470  27.646  12.550  29.840 -0.0604 -0.0240  0.2634
20559W        W63471  26.597  12.856  29.383 -0.1254 -0.1383 -0.0854
20560W        W63472  28.634  11.760  30.495 -0.1520  0.0863 -0.0263
20561W        W63473  29.144  13.492  29.831 -0.1493  0.0397  0.2470
20562W        W63474  27.053  13.140  29.234 -0.1909  0.2666 -0.0394
20563W        W63475  27.538  15.208  29.165 -0.0132  0.3658  0.2907
20564W        W63476  27.959  12.933  31.934  0.1361  0.0313 -0.0899
20565W        W63477  26.459  12.948  27.755 -0.1418  0.2595  0.1197
20566W        W63478  26.180  13.268  29.538  0.0957 -0.0476 -0.1030
20567W        W63479  26.460  13.760  29.446 -0.2141  0.0650  0.0073
20568W        W63480  27.232  14.309  28.913  0.0137  0.1824 -0.0612
20569W        W63481  28.260  14.713  31.449 -0.0274 -0.2861  0.2178
20570W        W63482  27.042  14.448  31.518 -0.1478  0.0094 -0.0006
20571W        W63483  26.376  13.712  27.040 -0.0298 -0.3365  0.1608
20572W        W63484  26.732  14.221  30.404  0.0023  0.0724  0.3950
20573W        W63485  26.062  13.182  30.323  0.3495  0.1948 -0.1180
20574W        W63486  27.496  12.967  29.016 -0.1276 -0.4149 -0.1564
20575W        W63487  28.642  12.198  28.749  0.3550  0.0895 -0.2531
20576W        W63488  26.544  14.615  29.809 -0.2472  0.2272 -0.0894
20577W        W63489  27.161  13.086  28.461  0.0041 -0.0611 -0.0733
20578W        W63490  26.603  12.044  31.031 -0.0467 -0.1080 -0.1431
20579W        W63491  25.682  13.173  29.286  0.0685 -0.0495  0.1217
20580W        W63492  29.646  11.867   0.658  0.1743 -0.0057  0.0434
20581W        W63493  26.529  14.668  27.137  0.0526 -0.2817  0.2305
20582W        W63494  27.403  12.637  28.251  0.0876  0.1872 -0.1531
20583W        W63495  27.566  12.196  27.919 -0.0004  0.3029  0.0416
20584W        W63496  29.236  11.488  29.042 -0.2537  0.2661  0.2574
20585W        W63497  27.109  11.611  29.115 -0.0880  0.0248  0.2441
20586W        W63498  26.740  14.172  28.587  0.0259 -0.2806  0.1151
20587W        W63499  26.966  10.679  29.828 -0.1530 -0.0726 -0.0611
20588W        W63500  29.360  13.371  30.866 -0.0170  0.1372 -0.1934
20589W        W63501  26.255  13.235  28.561  0.1508 -0.1477  0.4143
20590W        W63502  29.263  12.789  28.768  0.0397  0.3748 -0.1256
20591W        W63503  26.453  14.137  30.017 -0.0795  0.0894 -0.2601
20592W        W63504  27.082  12.886  29.787 -0.1305 -0.1189  0.0119
20593W        W63505  27.872  14.292  27.219  0.1226  0.1605  0.1765
20594W        W63506  28.230  13.874  29.453 -0.0794 -0.0603 -0.0332
20595W        W63507  27.322  14.488  27.793 -0.3902 -0.2292  0.1073
20596W        W63508  24.487  12.313  29.040  0.1271  0.0924  0.1103
20597W        W63509  26.437  12.641  31.258  0.0799 -0.2369  0.2343
20598W        W63510  27.228  11.149  31.751 -0.0910 -0.1660 -0.4868
20599W        W63511  28.738  11.554  27.418 -0.2773 -0.1076  0.1426
20600W        W63512  30.582  12.968  31.372 -0.2909 -0.0205 -0.1586
20601W        W63513  26.519  13.161  30.426 -0.1193  0.0482  0.4203
20602W        W63514  29.575  12.058  29.456  0.0093  0.1218 -0.0096
20603W        W63515  27.500  12.912  29.537  0.0760 -0.0850  0.2096
20604W        W63516  28.278  13.194  30.176  0.1008  0.1427  0.0527
20605W        W63517  27.282  13.114  27.949  0.1942 -0.0022 -0.2667
20606W        W63518  29.200  11.463  28.489 -0.0253 -0.0299 -0.2996
20607W        W63519  27.984  11.569  31.204  0.2249 -0.0414  0.0789
20608W        W63520  26.592  13.621  26.573  0.1826 -0.2681  0.0697
20609W        W63521  27.892  12.020  28.331 -0.2902  0.0450  0.0126
20610W        W63522  30.093  13.306  30.305 -0.1503 -0.0610  0.2784
20611W        W63523  28.521  13.071  27.387  0.0022  0.1035  0.1757
20612W        W63524  27.382  13.442  29.829  0.1416  0.2001 -0.1169
20613W        W63525  26.952  10.849   0.053  0.0106  0.0687 -0.0097
20614W        W63526  27.206  13.848  30.822  0.1133 -0.0998  0.1227
20615W        W63527  26.216  15.596  28.144 -0.0624 -0.0359 -0.1386
20616W        W63528  25.423  12.921  29.810  0.1303  0.0142  0.3946
20617W        W63529  25.668  13.970  28.532 -0.1466 -0.0236 -0.2078
20618W        W63530  25.593  11.492  30.325  0.3081  0.0933  0.1333
20619W        W63531  28.234  12.339  29.175 -0.0004 -0.0740  0.1408
20620W        W63532  29.057  11.569  27.780 -0.1593  0.1441  0.0669
20621W        W63533  26.870  11.122  30.692  0.1943  0.0797 -0.0522
20622W        W63534  28.837  10.368  29.076 -0.0770  0.1764  0.0220
20623W        W63535  26.515  13.266  29.176 -0.4883 -0.4425 -0.1028
20624W        W63536  29.458  14.211  29.093 -0.0194  0.0056  0.1279
20625W        W63537  29.721  12.052  27.869  0.1074 -0.2387 -0.0089
20626W        W63538  27.553  13.960  27.533  0.1204 -0.0036 -0.1632
20627W        W63539  26.239  12.525  30.225 -0.0604 -0.0417  0.1248
20628W        W63540  27.091  12.661  29.328  0.0353 -0.0666 -0.0296
20629W        W63541  27.524  10.923  31.337  0.0543 -0.0864 -0.2605
20630W        W63542  25.959  10.429  29.319  0.1463  0.0197 -0.0162
20631W        W63543  29.740  13.212  31.161  0.2367 -0.0453 -0.1381
20632W        W63544  25.333  11.885  28.477  0.0275  0.1852  0.3715
20633W        W63545  28.102  10.914  29.560 -0.2168 -0.2341  0.0381
20634W        W63546  27.361  12.137  28.453 -0.0697 -0.4313 -0.1473
20635W        W63547  26.217  12.418  28.573 -0.2402 -0.0907 -0.1854
20636W        W63548  29.587  12.239  30.496 -0.3860  0.1330  0.1368
20637W        W63549  27.907  13.099  29.293 -0.0616 -0.4473  0.0576
20638W        W63550  27.904  15.200  30.685 -0.2264  0.0483 -0.0778
20639W        W63551  28.165  14.265  30.450 -0.2440 -0.2597 -0.2924
20640W        W63552  26.338  11.677  29.565 -0.0993 -0.3456  0.0758
20641W        W63553  27.235  12.361  27.579  0.0788 -0.0505 -0.2007
20642W        W63554  25.777  14.140  30.433 -0.0647 -0.0833  0.0635
20643W        W63555  27.980  12.056  31.279  0.1179  0.0577 -0.3999
20644W        W63556  26.407  11.274  27.771  0.2530 -0.2043  0.1795
20645W        W63557  28.557  14.243  30.137 -0.0179 -0.2249  0.1825
20646W        W63558  27.876  13.989  28.853  0.0465  0.0520  0.2105
20647W        W63559  26.615  12.966  31.566 -0.4743 -0.2770  0.3406
20648W        W63560  28.431  11.876  31.459 -0.0273  0.2703  0.0560
20649W        W63561  28.871  12.934  30.258 -0.1442  0.0659  0.1440
20650W        W63562  28.709  11.448  28.347 -0.2849 -0.0172  0.0689
20651W        W63563  25.560  11.816  27.348  0.0654 -0.0907 -0.2317
20652W        W63564  28.062  14.206  29.901 -0.1045 -0.0917  0.1073
20653W        W63565  25.855  12.558  28.977  0.0820 -0.1507 -0.0650
20654W        W63566  25.904  11.945  28.670 -0.3306  0.0613  0.0598
20655W        W63567  29.051  15.136  27.623  0.1846 -0.2793  0.1244
20656W        W63568  29.242  11.005  29.449  0.1263  0.0392  0.1964
20657W        W63569  26.047  12.130  29.616  0.0388 -0.2298  0.2637
20658W        W63570  28.243  11.919  29.873  0.0797  0.3158  0.1667
20659W        W63571  25.725  11.592  28.374 -0.0230 -0.0091 -0.1593
20660W        W63572  25.583  12.368  29.901  0.0186 -0.0551  0.0907
20661W        W63573  27.697  10.844  30.111 -0.0627  0.1124  0.2923
20662W        W63574  28.228  11.404  28.133 -0.1015  0.1671 -0.2666
20663W        W63575  28.161  13.454  30.630 -0.0242 -0.1079 -0.1342
20664W        W63576  27.685  13.017  28.523 -0.2277  0.3045 -0.2443
20665W        W63577  28.260  12.153  28.029 -0.1037 -0.0726 -0.2025
20666W        W63578  27.545  10.838  27.247 -0.0961 -0.0686 -0.1301
20667W        W63579  27.072  12.876  30.554  0.1800  0.3227  0.2767
20668W        W63580  27.538  13.393  29.232  0.0141  0.1295 -0.2449
20669W        W63581  28.236  12.584  30.766 -0.1549 -0.1027 -0.1511
20670W        W63582  26.887  10.587  26.922  0.4630  0.1025 -0.1510
20671W        W63583  28.190  13.593  28.737  0.1743 -0.2732  0.4325
20672W        W63584  26.978  13.389  30.683 -0.1924  0.1450  0.1349
20673W        W63585  27.084  14.077   0.195  0.0259 -0.0699  0.0635
20674W        W63586  27.401  13.834  29.078 -0.0461 -0.1052  0.1093
20675W        W63587  27.120  10.756  30.943  0.0732  0.0238 -0.0250
20676W        W63588  27.783  10.756  27.747 -0.0547 -0.0557  0.1156
20677W        W63589  27.597  10.579  30.692  0.0723 -0.0406  0.1871
20678W        W63590  24.498  13.366  27.014 -0.0892 -0.2890 -0.3116
20679W        W63591  29.447  12.681  30.098  0.0849  0.1917 -0.0745
20680W        W63592  28.232  11.565  30.756 -0.2944 -0.1203 -0.1237
20681W        W63593  27.451  11.399   0.089  0.1621 -0.0117  0.0076
20682W        W63594  29.281  13.786  31.944  0.0305  0.2172  0.5697
20683W        W63595  27.736  12.493  28.646  0.3074  0.1766 -0.0520
20684W        W63596  29.302  11.691  29.715 -0.2011  0.1366  0.2683
20685W        W63597  26.402  11.576  28.594 -0.4332  0.0050 -0.3197
20686W        W63598  27.222  11.105  30.040 -0.0589  0.0224  0.1074
20687W        W63599  26.729  12.768  30.173 -0.0176  0.0173 -0.2012
20688W        W63600  26.161  13.848  30.326 -0.1466  0.1135 -0.0366
20689W        W63601  27.945  12.722  31.181 -0.0557 -0.0821 -0.2516
20690W        W63602  28.733  12.138  28.215 -0.1090  0.1004  0.0605
20691W        W63603  27.427  12.317   0.069 -0.0128  0.3170  0.3669
20692W        W63604  27.886  11.686  27.208 -0.0456  0.2082  0.2336
20693W        W63605  25.783  14.251  29.469 -0.1376 -0.2470  0.2143
20694W        W63606  26.717  13.268  28.668  0.3140 -0.3065 -0.2174
20695W        W63607  26.957  10.308  30.619 -0.5400  0.1140  0.1131
20696W        W63608  27.632  12.758  30.806 -0.0591 -0.2577  0.2478
20697W        W63609  26.504  14.816  27.793  0.2889 -0.3136  0.0003
20698W        W63610  27.819  13.196  30.918  0.0255 -0.2140 -0.2813
20699W        W63611  26.373  13.370  27.519  0.2263  0.2117 -0.1687
20700W        W63612  30.661  11.335  29.365 -0.3154 -0.1372  0.2146
20701W        W63613  25.079  14.446  29.615  0.4085 -0.0676  0.0231
20702W        W63614  27.003  11.649  28.203  0.3607 -0.2663 -0.0996
20703W        W63615  25.258  10.925  29.897  0.2031  0.1968 -0.0386
20704W        W63616  27.635  10.736  29.557 -0.0725  0.1261 -0.0478
20705W        W63617  28.314  14.599  27.188  0.0855 -0.0087 -0.3116
20706W        W63618  25.912  11.601  29.872 -0.1009 -0.4231 -0.1189
20707W        W63619  27.770  11.578  29.783 -0.4931  0.2854  0.2927
20708W        W63620  25.161  14.548  31.085 -0.1044  0.0910  0.1533
20709W        W63621  28.865  13.019  29.003  0.1272 -0.0085  0.1694
20710W        W63622  28.494  12.661  28.017 -0.3372 -0.0306 -0.1738
20711W        W63623  29.096  13.728  31.191  0.0519  0.1885 -0.1701
20712W        W63624  26.431  13.095   0.430  0.1668 -0.0202  0.0319
20713W        W63625  25.493  11.579  26.894  0.0715 -0.0009 -0.1680
20714W        W63626  28.713  12.303  30.528 -0.2026  0.4185 -0.2807
20715W        W63627  28.044  12.101  28.772  0.2507 -0.1597  0.1999
20716W        W63628  25.408  14.380  29.993  0.2220  0.4076 -0.0542
20717W        W63629  27.216  14.161  29.389 -0.0456 -0.0770 -0.0101
20718W        W63630  25.278  12.807  29.296  0.0410 -0.0469  0.0752
20719W        W63631  27.112  14.118  28.233 -0.2530  0.0604  0.0663
20720W        W63632  26.829  12.877   1.294 -0.1876  0.0925 -0.2501
20721W        W63633  28.316  12.669  31.651  0.2138 -0.1283 -0.0713
20722W        W63634  26.458  11.669  30.020 -0.1517  0.0078  0.0977
20723W        W63635  25.053  11.662  28.932 -0.2536  0.3129  0.3616
20724W        W63636  27.371  12.020  29.840 -0.2048  0.0596 -0.1964
20725W        W63637  28.973  13.876  30.173  0.1520  0.0687  0.2304
20726W        W63638  28.356  12.107  30.950  0.0884  0.3109 -0.0710
20727W        W63639  25.284  14.500  31.640 -0.1292  0.2256  0.2131
20728W        W63640  28.054  11.162  29.978 -0.0367  0.1480 -0.0702
20729W        W63641  29.243  15.354  28.360  0.0266  0.0449 -0.2525
20730W        W63642  28.925  13.417  31.916  0.1909  0.0670 -0.0943
20731W        W63643  26.454  12.784  28.360  0.0589  0.1455  0.2787
20732W        W63644  26.186  11.217  29.696  0.2490  0.2008 -0.3792
20733W        W63645  27.211  13.406  28.870 -0.1418 -0.0139  0.0316
20734W        W63646  27.097  12.131  29.119  0.0257 -0.2707  0.1423
20735W        W63647  27.206  12.565  30.879 -0.0286  0.0378  0.2194
20736W        W63648  26.713  13.185  28.154 -0.4094 -0.1454 -0.0219
20737W        W63649  26.900  15.091  30.521  0.1952  0.1687  0.2871
20738W        W63650  29.751  10.994  29.232  0.1971  0.0712 -0.0364
20739W        W63651  27.721  13.455  28.758 -0.4476 -0.0175 -0.1730
20740W        W63652  25.842  11.718  27.858 -0.3351 -0.0136 -0.3253
20741W        W63653  30.337  13.017  30.708  0.2277  0.3147  0.2840
20742W        W63654  27.885  13.630  27.762  0.0161  0.3131 -0.2048
20743W        W63655  26.463  12.189  29.931 -0.1213  0.0362 -0.2726
20744W        W63656  27.218  12.447  30.045 -0.0865  0.0835 -0.1153
20745W        W63657  28.559  14.660  30.564 -0.1445 -0.0022  0.1087
20746W        W63658  27.192  12.175  31.442  0.3648 -0.1034  0.0709
20747W        W63659  27.556  12.366  31.225  0.2146  0.1111 -0.3507
20748W        W63660  25.964  13.661   0.130 -0.1376  0.1764  0.0519
20749W        W63661  27.469  11.758  29.433 -0.3327  0.0530  0.0357
20750W        W63662  27.148  12.063  27.052  0.1923  0.0420  0.0230
20751W        W63663  27.794  11.773  30.713 -0.1371  0.3516  0.1335
20752W        W63664  28.373  13.178  28.990  0.3316 -0.2388 -0.0950
20753W        W63665  26.325  14.104  29.039 -0.1126 -0.1910  0.0167
20754W        W63666  28.698  12.199  30.025 -0.0314 -0.0170  0.3024
20755W        W63667  26.393  13.042  29.965  0.1983 -0.0266  0.4433
20756W        W63668  28.112  12.786  27.645  0.2825  0.0672  0.0442
20757W        W63669  25.490  13.454  26.973  0.3540  0.2069  0.2018
20758W        W63670  25.844  12.737  29.458  0.0280  0.0526  0.0473
20759W        W63671  26.879  10.744  31.539  0.1026 -0.0452 -0.0687
20760W        W63672  28.728  13.421  30.081  0.2007 -0.0493  0.3853
20761W        W63673  29.136  11.910  28.663  0.1126 -0.5300 -0.1028
20762W        W63674  28.727  12.268  31.424 -0.0016  0.1652 -0.0166
20763W        W63675  28.490  13.090  31.875 -0.1197 -0.1219 -0.0989
20764W        W63676  27.440  13.028  31.875 -0.0213 -0.0236  0.0646
20765W        W63677  26.737  11.011  30.210 -0.2441  0.0523 -0.3031
20766W        W63678  28.042  12.939  30.511 -0.0126  0.3011 -0.0056
20767W        W63679  27.841  12.535  27.228  0.1354  0.2775 -0.1904
20768W        W63680  29.155  11.928  30.580  0.0421 -0.2700 -0.0223
20769W        W63681  27.873  12.169  29.653  0.0763 -0.1197 -0.1284
20770W        W63682  29.645  13.203  28.574 -0.2246 -0.1428  0.1485
20771W        W63683  26.090  11.431  28.937 -0.1844 -0.1633  0.0520
20772W        W63684  27.894  12.434   0.113 -0.3381  0.1423 -0.1303
20773W        W63685  27.500  11.754  28.164 -0.1380 -0.1222  0.0550
20774W        W63686  27.194  11.226  31.072  0.2822  0.1866 -0.2873
20775W        W63687  27.921  14.417  29.456  0.0526  0.1326  0.0907
20776W        W63688  26.900  11.873  30.047  0.3299 -0.0112 -0.0362
20777W        W63689  28.408  10.651  28.314 -0.1589  0.2610 -0.1783
20778W        W63690  26.515  11.360  30.457  0.0103 -0.1321 -0.1994
20779W        W63691  26.466  13.098  30.979 -0.0906 -0.0697  0.1868
20780W        W63692  26.059  12.063  28.183  0.0701  0.2615 -0.2043
20781W        W63693  25.244  12.345  28.398 -0.3832  0.1962  0.0249
20782W        W63694  27.799  12.049  30.165 -0.2834  0.0971  0.1588
20783W        W63695  27.438  14.203   0.625  0.0129 -0.3377  0.4763
20784W        W63696  28.326  11.806  28.367 -0.4233 -0.0046  0.0303
20785W        W63697  29.577  14.082  31.539 -0.0592  0.2338  0.0216
20786W        W63698  26.618  13.695  28.445 -0.1336  0.0824  0.1053
20787W        W63699  28.336  11.220  29.151  0.0066  0.1836 -0.0735
20788W        W63700  26.773  15.080  28.536  0.5202  0.0772 -0.2346
20789W        W63701  25.477  13.281  30.198  0.0311 -0.1773  0.0427
20790W        W63702  27.702  13.905  29.436  0.2213 -0.4549  0.3071
20791W        W63703  27.548  11.489  30.240  0.1695 -0.2645 -0.0490
20792W        W63704  29.136  12.813  29.336 -0.3723 -0.1385 -0.5795
20793W        W63705  27.937  12.638  29.450 -0.2357 -0.0532 -0.0286
20794W        W63706  29.278  13.019  29.806  0.3320 -0.1108 -0.2068
20795W        W63707  27.140  12.042  30.803 -0.1208  0.0455  0.1730
20796W        W63708  26.781  13.751  29.853 -0.0466 -0.1547  0.1782
20797W        W63709  27.454  12.914  30.175  0.1192 -0.1179 -0.3589
20798W        W63710  28.479  12.784  29.339  0.0147 -0.0946  0.2187
20799W        W63711  27.015  13.676  29.357  0.1513 -0.1759 -0.0172
20800W        W63712  25.014  11.909   0.136 -0.0227 -0.0918  0.0403
20801W        W63713  27.876  12.540  31.601  0.2455 -0.1686 -0.1929
20802W        W63714  27.757  13.094  28.015  0.3659 -0.0749  0.4253
20803W        W63715  26.155  10.736  28.319  0.0837  0.0723 -0.0882
20804W        W63716  25.866  14.416  28.939 -0.1445 -0.3265  0.0578
20805W        W63717  25.440  14.121  31.318 -0.2040 -0.0581 -0.3977
20806W        W63718  26.988  11.905  28.683 -0.1028  0.3469 -0.1080
20807W        W63719  25.416  14.075  29.197  0.1313 -0.0433  0.0590
20808W        W63720  28.375  14.589  28.590  0.1375  0.0242 -0.1402
20809W        W63721  27.083  13.588  28.405 -0.0945 -0.1710 -0.2118
20810W        W63722  27.670  14.341  30.148 -0.0939 -0.0044 -0.0488
20811W        W63723  27.651  12.116  27.364 -0.1354 -0.1833 -0.0817
20812W        W63724  26.258  12.439  29.220 -0.2312 -0.0344 -0.2153
20813W        W63725  24.446  14.641  28.452  0.2147  0.0792 -0.2166
20814W        W63726  28.748  15.146  29.028  0.3803 -0.1199 -0.2400
20815W        W63727  25.776  13.549  30.475 -0.1001  0.0823  0.0846
20816W        W63728  28.729  14.747  31.147 -0.0362 -0.2069 -0.0836
20817W        W63729  27.731  11.521  26.269 -0.0773 -0.3154 -0.1893
20818W        W63730  29.249  13.266  29.268  0.0910 -0.2166  0.0213
20819W        W63731  29.666  11.517  29.347 -0.0858 -0.3290  0.1543
20820W        W63732  28.440  15.307  29.891  0.2658  0.1760  0.0392
20821W        W63733  28.780  12.764  30.719  0.1319 -0.0790  0.0990
20822W        W63734  27.596  10.620  28.674  0.2128  0.2281 -0.0484
20823W        W63735  26.654  10.248  31.629 -0.0929  0.0521  0.0578
20824W        W63736  28.502  11.234  30.530 -0.0558 -0.0226  0.1151
20825W        W63737  26.365  13.537  29.981 -0.0281 -0.0935 -0.1045
20826W        W63738  27.421  13.450  27.569 -0.0274  0.1777 -0.1343
20827W        W63739  25.085  12.922  27.656 -0.2441 -0.2824  0.2941
20828W        W63740  26.702  12.391  29.008  0.0472 -0.0928 -0.2719
20829W        W63741  28.992  11.328  29.756  0.0921  0.3211 -0.0197
20830W        W63742  27.210  12.868  27.548  0.0232  0.1259  0.2896
20831W        W63743  27.999  12.782  28.924 -0.1209  0.0738  0.1925
20832W        W63744  25.835  13.904  28.973  0.0777 -0.1244  0.0539
20833W        W63745  27.897  12.552  30.262 -0.1450  0.0323 -0.0202
20834W        W63746  26.958  13.292  30.086 -0.2054  0.1867  0.2152
20835W        W63747  25.917  12.838  28.590  0.0866  0.3764 -0.0177
20836W        W63748  28.719  13.405  28.729 -0.0479  0.0128  0.0160
20837W        W63749  26.636  12.489  31.727  0.2314  0.4106  0.1144
20838W        W63750  29.439  11.909  30.094  0.0144  0.3036  0.3945
20839W        W63751  26.510  12.309  28.057 -0.1303  0.0668 -0.2142
20840W        W63752  27.247  11.549  29.796  0.0340 -0.1185  0.1139
20841W        W63753  28.423  12.681  30.264 -0.0643  0.1057 -0.2948
20842W        W63754  26.555  11.509  31.479 -0.0675  0.0095 -0.1509
20843W        W63755  26.939  12.701  28.182  0.0733 -0.1568 -0.2309
20844W        W63756  28.028  12.939  29.861  0.1483 -0.3526 -0.1513
20845W        W63757  27.040  12.220  28.065  0.2000  0.2589 -0.0396
20846W        W63758  27.864  14.959  31.285 -0.0917 -0.2893  0.1289
20847W        W63759  25.512  10.720  29.100  0.1517 -0.0028  0.2850
20848W        W63760  28.297  11.508  27.661  0.0876 -0.1081  0.3440
20849W        W63761  25.541  12.091  28.052  0.1460  0.2114 -0.0624
20850W        W63762  26.755  11.819  30.498 -0.2585 -0.1781  0.0871
20851W        W63763  27.231  13.482  31.205 -0.1789  0.2278  0.1527
20852W        W63764  26.447  10.343  28.107  0.2790 -0.1004 -0.1266
20853W        W63765  28.945  13.851  27.894  0.0244  0.0825 -0.0798
20854W        W63766  27.913  13.419  29.695 -0.3214 -0.3185  0.0353
20855W        W63767  27.191  15.970  29.459  0.0703  0.1508  0.0486
20856W        W63768  27.385  13.671  30.294 -0.0874  0.0159  0.0261
20857W        W63769  28.655  13.342  30.557 -0.3204 -0.1893 -0.0501
20858W        W63770  26.138  12.998  29.050 -0.0113  0.2387  0.0462
20859W        W63771  27.236  14.525  29.856  0.0599  0.0483  0.0473
20860W        W63772  28.195  13.731  30.021 -0.0454  0.3045 -0.2081
20861W        W63773  28.005  10.546  29.868  0.0468  0.0718  0.1333
20862W        W63774  25.670  11.166  29.649 -0.1691 -0.0426  0.3452
20863W        W63775  26.379  13.646  28.843 -0.0886  0.0396 -0.1952
20864W        W63776  29.099  12.210  29.590 -0.1632 -0.0509 -0.3358
20865W        W63777  29.061  12.667  31.137 -0.0548  0.0418  0.2053
20866W        W63778  26.370  14.881  28.737 -0.0204 -0.1153  0.0179
20867W        W63779  29.196  10.906  31.187  0.0753 -0.3611 -0.1037
20868W        W63780  26.800  11.551  30.902  0.0599 -0.1089  0.0666
20869W        W63781  27.095  14.617   0.481 -0.1610 -0.2522 -0.2447
20870W        W63782  25.321  11.649  27.970  0.0235  0.0960 -0.2792
20871W        W63783  26.624  12.569  30.798 -0.2462 -0.0737 -0.4274
20872W        W63784  26.868  13.770  28.859 -0.0870  0.1978 -0.1416
20873W        W63785  26.553  15.026  29.301 -0.1714 -0.1652  0.0013
20874W        W63786  29.357  14.200  30.696 -0.5114 -0.1472 -0.0307
20875W        W63787  26.958  11.949  29.542  0.1360 -0.2449 -0.0731
20876W        W63788  28.729  13.855  29.742 -0.4495 -0.0827  0.0469
20877W        W63789  26.455  11.027  28.721 -0.2179  0.0268  0.0084
20878W        W63790  28.780  10.889  29.206 -0.0549  0.2798 -0.1258
20879W        W63791  27.853  11.468  28.484 -0.0240  0.0798 -0.0111
20880W        W63792  26.913  12.964  31.020 -0.0859 -0.1327 -0.0556
20881W        W63793  25.973  12.010  27.160  0.3420 -0.2330 -0.0662
20882W        W63794  25.682  12.468  27.234 -0.3088  0.0968 -0.2387
20883W        W63795  26.253  13.502  30.699 -0.0490 -0.2343  0.1459
20884W        W63796  28.217  11.061   0.651 -0.0025 -0.1032 -0.1436
20885W        W63797  25.660  11.358  31.668 -0.2483  0.0787 -0.0377
20886W        W63798  26.856  12.827  28.783  0.0214 -0.1173 -0.1603
20887W        W63799  26.533  10.477  28.736  0.3753 -0.1714  0.0467
20888W        W63800  26.812  12.581  27.728 -0.1695  0.0861  0.0191
20889W        W63801  25.798  11.483  30.811  0.3992 -0.2453  0.1478
20890W        W63802  26.016  10.648  28.862  0.2364  0.1758 -0.0316
20891W        W63803  27.485  13.891  28.557  0.0673  0.0697 -0.1396
20892W        W63804  26.807  14.290  27.416  0.1077 -0.0169  0.0423
20893W        W63805  28.951  12.644  29.835 -0.0723  0.0356  0.2822
20894W        W63806  28.464  14.271   0.189  0.0970  0.0396 -0.1189
20895W        W63807  26.179  14.113  28.576  0.1975 -0.3433 -0.0461
20896W        W63808  27.070  11.688  31.306  0.1211  0.2535  0.3767
20897W        W63809  28.373  12.668   0.256  0.2359 -0.1242 -0.2718
20898W        W63810  25.940  11.111  28.615  0.1166 -0.0210  0.1384
20899W        W63811  27.251  11.082  29.541  0.0433 -0.0293  0.2489
20900W        W63812  27.923  15.206  29.563  0.1584  0.1549 -0.1284
20901W        W63813  28.793  15.114  28.064  0.0677  0.3019  0.0057
20902W        W63814  27.448  13.229  30.608  0.0669 -0.0805  0.0337
20903W        W63815  27.254  14.127  30.406  0.1721 -0.2971 -0.1652
20904W        W63816  25.898  10.865  31.884  0.1488  0.1822 -0.0660
20905W        W63817  28.366  14.073  28.512 -0.1192  0.0503  0.1630
20906W        W63818  26.279  13.605  31.238 -0.2553  0.0218  0.0862
20907W        W63819  29.490  13.875  28.601  0.3782 -0.2165 -0.1120
20908W        W63820  29.968  11.072  28.757  0.0253 -0.0483  0.0920
20909W        W63821  28.043  13.260  27.509  0.0484  0.0606 -0.2639
20910W        W63822  27.923  10.843  31.077 -0.0521 -0.0424  0.0340
20911W        W63823  26.128  12.483  31.622  0.1790  0.0506 -0.1308
20912W        W63824  28.553  13.672  30.962 -0.2824  0.0911  0.1169
20913W        W63825  26.857  11.287  28.643  0.2148 -0.4796 -0.3251
20914W        W63826  27.917  10.926  28.275 -0.0093  0.0339 -0.2056
20915W        W63827  27.729  13.838  29.938 -0.0177 -0.0006  0.0551
20916W        W63828  26.879  12.362  28.555 -0.1685 -0.1570 -0.0499
20917W        W63829  27.806  11.336  29.230 -0.1006 -0.0563  0.0174
20918W        W63830  28.513  12.633  31.176 -0.0607 -0.1802 -0.1173
20919W        W63831  27.775  14.465  28.941 -0.2513 -0.0076 -0.0121
20920W        W63832  28.888  13.164  30.955 -0.1521 -0.0094 -0.0169
20921W        W63833  28.840  12.738  28.486  0.0482 -0.2818 -0.2137
20922W        W63834  28.416  13.551  28.269  0.1139  0.0919 -0.0123
20923W        W63835  28.592  13.867  31.512  0.2153 -0.1437 -0.1081
20924W        W63836  27.472  14.781  31.522  0.0107 -0.1329 -0.0822
20925W        W63837  26.976  14.276  30.827  0.0253 -0.0154  0.4338
20926W        W63838  29.393  12.375  29.088 -0.1912 -0.0566  0.0555
20927W        W63839  26.253  11.518  30.953 -0.0373  0.1178 -0.2286
20928W        W63840  27.343  11.542  28.580 -0.0414 -0.1111  0.1431
20929W        W63841  28.247  12.213  30.365 -0.1280  0.1055  0.3573
20930W        W63842  28.488  12.881  29.796  0.2771 -0.0370 -0.1999
20931W        W63843  26.818  11.252  29.770 -0.2301 -0.1157  0.0152
20932W        W63844  30.229  10.362  27.915 -0.0144  0.3688  0.1453
20933W        W63845  26.188  15.467  30.038  0.0007  0.1277 -0.2417
20934W        W63846  27.813  13.365  30.170 -0.1265  0.1276  0.1139
20935W        W63847  28.527  11.382  31.451  0.2387 -0.2462 -0.2427
20936W        W63848  26.925  12.589  31.298  0.1228  0.1125  0.1449
20937W        W63849  25.606  12.887  30.593 -0.6877  0.3919  0.3852
20938W        W63850  24.514  14.535  29.756 -0.4487 -0.0661 -0.2437
20939W        W63851  25.814  13.793   1.354 -0.2624  0.1434 -0.0196
20940W        W63852  26.162  14.900  31.004 -0.3910 -0.0849  0.0001
20941W        W63853  28.971  13.043   0.199  0.0482 -0.1533  0.1623
20942W        W63854  28.172  13.123  31.476 -0.3169 -0.0685 -0.0236
20943W        W63855  28.796  12.456   0.360 -0.0632 -0.0138  0.0465
20944W        W63856  27.756  13.417  31.768 -0.1774  0.0962  0.2189
20945W        W63857  26.831  13.811  31.754 -0.0488 -0.0980  0.1654
20946W        W63858  27.703  11.849   0.165  0.1549  0.0837 -0.1463
20947W        W63859  29.487  13.016   0.315  0.1427 -0.5980 -0.2271
20948W        W63860  26.726  11.065  31.183 -0.1421  0.0498 -0.1318
20949W        W63861  28.781  13.890  31.961 -0.2706 -0.2878 -0.2681
20950W        W63862  25.907  14.579  31.306 -0.0547  0.1870 -0.1301
20951W        W63863  27.274  14.533  31.974 -0.0973  0.0092 -0.3901
20952W        W63864  27.899  12.664   0.716  0.2121 -0.1399 -0.0254
20953W        W63865  28.085  12.102  31.737 -0.0945 -0.1143 -0.2171
20954W        W63866  26.238  11.282  31.873  0.2111  0.0730  0.1870
20955W        W63867  26.953  12.214   0.010  0.0896 -0.3997  0.0950
20956W        W63868  25.400  13.397  30.739 -0.0311  0.0882  0.0412
20957W        W63869  29.075  11.767   0.585  0.2233  0.0467  0.2895
20958W        W63870  28.604  12.093   0.901 -0.3539 -0.0769  0.0094
20959W        W63871  28.866  12.175  30.951 -0.0457 -0.1227 -0.2829
20960W        W63872  28.969  11.708   1.111  0.1265 -0.4586 -0.1063
20961W        W63873  26.142  10.662  30.950  0.2767 -0.3094  0.1455
20962W        W63874  25.748  14.339  30.895 -0.1183 -0.2318 -0.1990
20963W        W63875  26.627  12.698   0.792 -0.1176  0.2131 -0.0486
20964W        W63876  27.838  12.239  30.837  0.3792  0.1974 -0.2144
20965W        W63877  27.481  12.900   0.486  0.0143  0.1070  0.0751
20966W        W63878  24.634  11.641   1.566 -0.0858  0.0729 -0.3646
20967W        W63879  29.931  13.282   1.201 -0.2803  0.1013 -0.0176
20968W        W63880  29.320  12.222   0.491  0.0675 -0.0679  0.1022
20969W        W63881  25.089  10.873  31.358  0.0532 -0.4365  0.0778
20970W        W63882  27.191  14.804  31.144  0.0538 -0.2343 -0.2183
20971W        W63883  26.116  13.050  31.471  0.0823 -0.1645 -0.1126
20972W        W63884  25.864  13.699  31.008  0.2843  0.0529 -0.0517
20973W        W63885  27.477  13.363   0.276 -0.1351 -0.1066  0.0334
20974W        W63886  28.980  11.839  31.453 -0.0056  0.2682  0.3368
20975W        W63887  29.500  11.480  31.457  0.2333 -0.1168  0.1432
20976W        W63888  29.118  13.255  31.432 -0.0904  0.0274  0.0015
20977W        W63889  26.143  12.289  30.973  0.2076  0.1240 -0.3533
20978W        W63890  27.452  15.117   1.131 -0.1583  0.0733  0.0851
20979W        W63891  26.008  11.612  31.428  0.1370  0.0615  0.1009
20980W        W63892  27.943  13.161   0.633  0.2489  0.3498  0.3319
20981W        W63893  26.052  13.207  31.914 -0.0669  0.2378 -0.0419
20982W        W63894  27.378  14.059   1.682  0.0075 -0.0102  0.0792
20983W        W63895  28.273  13.814   1.068 -0.1050  0.1469 -0.0448
20984W        W63896  25.202  14.930  31.883 -0.2732  0.1626  0.1370
20985W        W63897  29.042  13.789   0.415 -0.1726  0.0218  0.1106
20986W        W63898  27.992  11.440   1.003 -0.1073  0.0479 -0.1728
20987W        W63899  27.306  11.600  30.760 -0.3376  0.3827  0.1463
20988W        W63900  27.097  13.396  31.940 -0.1870  0.3547 -0.2946
20989W        W63901  26.793  13.356  31.295 -0.0865 -0.0324 -0.0185
20990W        W63902  27.654  13.077  31.355 -0.1184 -0.5882  0.0673
20991W        W63903  28.815  12.778  31.602 -0.0654  0.0068 -0.1443
20992W        W63904  26.865  15.195  31.030  0.0546  0.0895 -0.0682
20993W        W63905  27.804  13.377   2.254  0.4435 -0.6659 -0.1833
20994W        W63906  25.863  13.612  31.623  0.3855  0.3312  0.2925
20995W        W63907  26.668  12.419   0.332 -0.1369 -0.0471  0.2267
20996W        W63908  26.797  12.955   0.086  0.1171  0.0708  0.1012
20997W        W63909  27.257  13.899  31.424  0.2398 -0.1424  0.2101
20998W        W63910  24.996  10.566  31.769 -0.1393  0.1871  0.0452
20999W        W63911  27.058  15.171   0.155  0.1149  0.0955  0.1446
21000W        W63912  27.642  14.146   1.301 -0.1346  0.2754 -0.2335
21001W        W63913  29.693  11.324   1.030 -0.0627 -0.0430 -0.0432
21002W        W63914  26.093  18.290  18.895 -0.0275 -0.1910  0.1730
21003W        W63915  25.716  15.054  16.557 -0.1454 -0.0347  0.0058
21004W        W63916  27.858  14.596  16.794 -0.0928  0.5771 -0.0328
21005W        W63917  28.515  15.728  16.897  0.2123  0.2267  0.1184
21006W        W63918  27.000  14.776  18.215 -0.2397  0.0918  0.0756
21007W        W63919  25.769  18.675  16.724 -0.3826 -0.0414 -0.0176
21008W        W63920  26.338  14.965  18.097  0.1497 -0.1119  0.0984
21009W        W63921  27.457  18.255  17.862 -0.0354  0.2771  0.0448
21010W        W63922  28.165  17.213  17.031 -0.0591 -0.0222  0.0190
21011W        W63923  26.785  16.747  18.539 -0.0071  0.1585  0.2008
21012W        W63924  27.267  15.168  18.425 -0.1101  0.0143  0.2837
21013W        W63925  28.149  17.544  19.991  0.2497 -0.0234  0.1736
21014W        W63926  25.745  15.312  16.140  0.0570 -0.2163 -0.0083
21015W        W63927  26.613  14.411  19.595 -0.0711 -0.0494 -0.0218
21016W        W63928  27.145  16.172  18.461 -0.3527  0.0307 -0.0386
21017W        W63929  25.421  14.669  18.147  0.2180  0.0562 -0.0186
21018W        W63930  26.231  15.217  18.581 -0.4101 -0.2385 -0.1585
21019W        W63931  27.304  15.927  17.082 -0.2915  0.0808 -0.3069
21020W        W63932  25.863  19.137  18.028 -0.0249 -0.2259  0.3520
21021W        W63933  27.689  13.666  18.925  0.1159 -0.0346  0.1117
21022W        W63934  27.811  16.012  17.714 -0.0996  0.1137 -0.0136
21023W        W63935  27.237  16.950  17.245 -0.2579 -0.0532  0.0595
21024W        W63936  25.758  14.014  15.675 -0.1461 -0.3648 -0.0163
21025W        W63937  25.820  15.685  17.931 -0.0467 -0.1028  0.2202
21026W        W63938  26.654  16.866  18.989  0.0277 -0.0560  0.0566
21027W        W63939  26.037  17.373  18.729 -0.2317 -0.3071  0.1213
21028W        W63940  28.278  17.853  18.826  0.0476  0.0943  0.2252
21029W        W63941  26.590  17.571  19.423  0.2008  0.0355  0.1851
21030W        W63942  27.995  16.704  18.622  0.1261 -0.0076 -0.0728
21031W        W63943  27.786  15.965  20.701  0.1650 -0.3853  0.0718
21032W        W63944  25.507  17.130  18.980 -0.4845  0.0801 -0.0699
21033W        W63945  26.367  17.798  17.320 -0.3706 -0.2391  0.0173
21034W        W63946  26.904  16.177  16.859 -0.0481 -0.1746  0.0476
21035W        W63947  28.478  17.670  17.098  0.1730  0.2825  0.4937
21036W        W63948  28.934  19.175  18.408 -0.2319 -0.1962  0.2082
21037W        W63949  28.100  18.964  19.692  0.0408 -0.1376 -0.2632
21038W        W63950  26.112  18.308  16.569 -0.0202  0.1238  0.0244
21039W        W63951  29.337  17.304  19.857  0.0386  0.0118  0.0966
21040W        W63952  25.985  16.747  20.065 -0.1580 -0.1611  0.3235
21041W        W63953  28.109  15.290  18.415  0.0872  0.1571  0.1457
21042W        W63954  28.220  16.730  17.918 -0.2160  0.1368  0.0423
21043W        W63955  25.590  18.178  16.669 -0.1281  0.0801 -0.1544
21044W        W63956  26.916  16.118  17.912  0.4655  0.1914  0.0366
21045W        W63957  27.390  16.834  20.371 -0.0012 -0.0269  0.2773
21046W        W63958  26.002  16.303  18.048  0.1612 -0.0291  0.0786
21047W        W63959  28.625  14.995  20.157 -0.1563 -0.1614  0.1586
21048W        W63960  26.273  16.420  16.871 -0.0838 -0.0510  0.1285
21049W        W63961  28.607  15.031  17.071  0.1380  0.0772  0.0528
21050W        W63962  27.491  15.153  16.093 -0.0462  0.0849 -0.0650
21051W        W63963  29.118  15.626  17.667  0.0872 -0.0787 -0.1723
21052W        W63964  27.311  14.824  17.040 -0.0324 -0.2919  0.2124
21053W        W63965  24.843  15.557  16.926 -0.0359  0.0325  0.0931
21054W        W63966  25.949  15.086  19.046 -0.1139  0.2902 -0.1635
21055W        W63967  29.971  17.419  18.704  0.1232 -0.2353 -0.3270
21056W        W63968  27.719  16.632  17.824 -0.0714  0.2679 -0.2448
21057W        W63969  27.127  15.692  18.742  0.1015 -0.1717  0.2801
21058W        W63970  25.018  17.028  19.320 -0.0153  0.0903  0.2677
21059W        W63971  25.674  15.921  19.048 -0.1549  0.0443 -0.0262
21060W        W63972  27.388  18.650  17.513 -0.1042 -0.0564 -0.0880
21061W        W63973  28.237  18.059  17.399 -0.0980 -0.2853 -0.1326
21062W        W63974  27.130  16.563  16.601  0.0485 -0.0570 -0.0288
21063W        W63975  25.730  15.716  16.493  0.1852 -0.0765 -0.3948
21064W        W63976  27.920  17.439  21.134  0.1201  0.3281 -0.0347
21065W        W63977  26.434  15.206  19.083  0.0645 -0.0031 -0.1530
21066W        W63978  25.794  14.463  15.925 -0.1259  0.2703  0.1209
21067W        W63979  29.078  17.235  20.857  0.0815 -0.1254  0.0618
21068W        W63980  25.447  15.425  20.582 -0.0366 -0.3950 -0.0519
21069W        W63981  28.575  16.288  16.940  0.2064 -0.0124 -0.1683
21070W        W63982  26.259  16.576  18.639 -0.0983  0.0621 -0.1899
21071W        W63983  27.380  17.436  17.847 -0.2136  0.0035  0.1747
21072W        W63984  28.213  15.333  17.050 -0.1084 -0.0689  0.1734
21073W        W63985  27.644  14.112  19.123 -0.1176  0.1684 -0.0754
21074W        W63986  27.953  15.050  17.989 -0.0373  0.0431 -0.0111
21075W        W63987  27.006  17.026  16.690  0.0699 -0.0371  0.0092
21076W        W63988  27.337  16.379  17.530  0.1792  0.0588  0.2108
21077W        W63989  28.812  17.959  18.964  0.3713  0.1945  0.2569
21078W        W63990  28.895  15.973  16.731 -0.2164  0.1625 -0.0841
21079W        W63991  26.269  18.125  19.344  0.2119 -0.2553 -0.3589
21080W        W63992  27.644  15.950  18.212 -0.1115 -0.4919 -0.0001
21081W        W63993  26.888  18.299  18.157 -0.1288 -0.0522 -0.0123
21082W        W63994  25.976  16.113  17.079 -0.2003 -0.0353  0.0120
21083W        W63995  26.278  16.036  18.608 -0.0318 -0.2143 -0.0017
21084W        W63996  25.039  16.864  17.285 -0.3137  0.0716 -0.2816
21085W        W63997  25.582  14.418  19.863  0.1345 -0.1517 -0.0878
21086W        W63998  26.729  17.437  20.355  0.2397 -0.0491 -0.0414
21087W        W63999  28.982  15.710  18.162 -0.1655 -0.0984  0.3383
21088W        W64000  25.916  13.581  19.543 -0.2879 -0.2184  0.0220
21089W        W64001  28.584  16.416  17.486  0.1602 -0.0269 -0.0272
21090W        W64002  26.483  15.968  17.012  0.0233 -0.1215 -0.1527
21091W        W64003  27.202  16.834  18.272  0.0909  0.0287 -0.3030
21092W        W64004  29.157  15.513  16.476  0.1357 -0.4384 -0.2541
21093W        W64005  27.544  17.051  16.838 -0.2366 -0.1294  0.0293
21094W        W64006  24.264  15.897  18.755  0.2843 -0.1173 -0.1029
21095W        W64007  26.797  14.749  17.775  0.1874 -0.3327  0.0222
21096W        W64008  26.975  15.615  19.709 -0.4323 -0.2784  0.0381
21097W        W64009  24.116  13.960  17.604  0.0504  0.0600  0.1143
21098W        W64010  27.153  16.545  18.768  0.0504 -0.0105  0.2050
21099W        W64011  26.438  13.503  16.100 -0.0962 -0.2740 -0.4010
21100W        W64012  28.542  15.529  17.900 -0.0303  0.4377  0.0139
21101W        W64013  28.291  17.088  18.848  0.2918  0.1333  0.3713
21102W        W64014  25.536  17.622  17.528 -0.0865  0.0074 -0.0443
21103W        W64015  28.301  14.868  19.767  0.3171  0.1230 -0.0558
21104W        W64016  26.800  17.194  17.105  0.0058  0.0660  0.3758
21105W        W64017  27.737  18.265  19.149 -0.0298  0.1024  0.0156
21106W        W64018  26.707  18.120  17.561  0.3124 -0.2239  0.1574
21107W        W64019  26.579  16.328  18.331  0.2341  0.5147  0.3015
21108W        W64020  24.899  15.800  16.032 -0.3175  0.0831 -0.2313
21109W        W64021  25.136  18.890  18.950  0.0823  0.1981  0.3428
21110W        W64022  26.919  17.851  16.567 -0.2011  0.2161  0.0659
21111W        W64023  26.745  14.886  16.664  0.0043  0.2246  0.3072
21112W        W64024  28.758  18.172  17.231 -0.3200  0.1103  0.1605
21113W        W64025  27.660  16.706  17.323  0.2180  0.0225 -0.0978
21114W        W64026  26.795  17.323  19.826 -0.0943  0.0180  0.1647
21115W        W64027  27.783  14.474  17.770  0.1013 -0.2305 -0.1628
21116W        W64028  28.824  14.536  19.018 -0.1610  0.0464 -0.1078
21117W        W64029  26.391  16.827  18.177  0.5253 -0.1801  0.1928
21118W        W64030  25.690  13.707  16.468  0.0064 -0.2535  0.0599
21119W        W64031  26.470  18.490  17.946  0.4762  0.3425 -0.2710
21120W        W64032  24.841  19.183  17.095  0.2083 -0.4811  0.0593
21121W        W64033  25.865  14.774  18.637  0.1968  0.0247  0.0665
21122W        W64034  25.949  18.258  17.916 -0.0427  0.1323 -0.2983
21123W        W64035  28.338  18.060  19.267  0.3678 -0.2823  0.0324
21124W        W64036  25.140  16.393  19.926  0.2877 -0.2457 -0.1963
21125W        W64037  29.205  16.768  21.170  0.0012 -0.1111 -0.1369
21126W        W64038  26.561  15.490  16.841 -0.0459 -0.3163 -0.0704
21127W        W64039  25.569  18.052  21.727  0.0510 -0.0231  0.0401
21128W        W64040  28.598  14.183  17.710  0.2394 -0.1549 -0.1278
21129W        W64041  28.197  15.081  16.301  0.1550 -0.0455  0.2379
21130W        W64042  27.937  16.857  19.090  0.1617  0.0737  0.0235
21131W        W64043  26.687  17.592  17.651  0.1501 -0.0707  0.0348
21132W        W64044  27.796  15.780  16.886  0.1210  0.0619 -0.0107
21133W        W64045  27.787  15.005  17.022  0.0384 -0.0155 -0.0881
21134W        W64046  26.942  16.794  20.056 -0.1215 -0.2106  0.5197
21135W        W64047  26.029  16.615  17.259 -0.1021  0.1572 -0.2966
21136W        W64048  27.938  17.433  19.493 -0.1195 -0.1413  0.0868
21137W        W64049  26.327  14.630  16.760  0.0527  0.1040  0.3282
21138W        W64050  29.070  17.770  17.771  0.0265  0.0317 -0.0379
21139W        W64051  26.365  16.577  19.209 -0.3182 -0.1683 -0.3045
21140W        W64052  27.886  16.523  19.454 -0.1875  0.1633 -0.2211
21141W        W64053  28.990  17.751  17.235  0.0761 -0.0180 -0.1858
21142W        W64054  25.492  14.876  19.065 -0.1873 -0.0791 -0.3234
21143W        W64055  27.454  15.365  16.980 -0.0287 -0.0858 -0.3025
21144W        W64056  29.008  16.163  18.415  0.3036 -0.2569 -0.0789
21145W        W64057  25.155  18.548  16.643 -0.1081 -0.0436  0.0330
21146W        W64058  28.388  14.490  18.732  0.1389  0.0889 -0.1833
21147W        W64059  27.607  15.824  18.716  0.0587 -0.0035  0.0885
21148W        W64060  25.880  14.399  19.040  0.4691  0.1308 -0.2354
21149W        W64061  29.583  17.646  20.180 -0.0709 -0.1798 -0.0491
21150W        W64062  28.794  15.929  17.266  0.1018  0.3222  0.1528
21151W        W64063  27.187  16.134  19.021  0.0497 -0.2070  0.0290
21152W        W64064  25.306  14.477  16.159 -0.0262  0.0446  0.0672
21153W        W64065  28.094  13.143  18.308 -0.1351 -0.1904 -0.0474
21154W        W64066  26.699  16.458  20.235 -0.2198  0.1518 -0.0195
21155W        W64067  24.526  17.971  18.625 -0.1027  0.2492 -0.0969
21156W        W64068  28.964  16.751  19.645  0.1157 -0.2749  0.1786
21157W        W64069  26.403  17.161  17.776  0.1872  0.1598  0.0676
21158W        W64070  27.595  16.042  20.229 -0.2516 -0.3371 -0.0598
21159W        W64071  26.002  15.681  17.292  0.2023  0.2322  0.2928
21160W        W64072  27.340  17.937  16.987  0.2317 -0.0408 -0.0019
21161W        W64073  26.400  16.930  16.738 -0.1566  0.1817 -0.1588
21162W        W64074  27.119  13.137  18.091  0.1573 -0.0108 -0.0892
21163W        W64075  26.802  17.214  18.079 -0.4661  0.0865 -0.0613
21164W        W64076  26.837  16.612  16.976 -0.1298 -0.0695 -0.2793
21165W        W64077  25.948  17.310  19.403 -0.1321 -0.0264 -0.0893
21166W        W64078  26.104  17.277  18.234  0.0190  0.0604  0.0531
21167W        W64079  28.774  16.476  19.255  0.0110 -0.0659 -0.0869
21168W        W64080  25.516  17.027  19.497  0.0975 -0.2368  0.2623
21169W        W64081  26.995  15.172  17.045  0.0487  0.0104 -0.0290
21170W        W64082  25.323  14.778  16.651  0.0287 -0.1130  0.1000
21171W        W64083  27.999  14.925  18.853 -0.5328 -0.3084  0.0973
21172W        W64084  28.141  16.580  17.065 -0.0552  0.1815  0.1303
21173W        W64085  25.279  14.844  18.621 -0.0534 -0.0617 -0.1597
21174W        W64086  26.899  14.251  18.392  0.1527 -0.0704 -0.0851
21175W        W64087  25.415  16.983  18.502  0.1780  0.0616  0.0437
21176W        W64088  26.879  17.364  19.073  0.2345 -0.0804  0.1992
21177W        W64089  28.124  14.823  17.309  0.0733  0.1124  0.2529
21178W        W64090  27.415  17.314  18.331 -0.2354  0.0531 -0.4455
21179W        W64091  27.566  17.667  19.814  0.1855 -0.2153 -0.0323
21180W        W64092  25.988  14.956  15.699 -0.0549  0.2168 -0.0991
21181W        W64093  29.382  16.879  17.903 -0.0251 -0.0448  0.3268
21182W        W64094  25.578  15.965  17.425 -0.1376 -0.1742  0.5497
21183W        W64095  25.173  17.311  17.620 -0.2228 -0.0283 -0.0110
21184W        W64096  26.867  16.637  17.985 -0.3049 -0.2940  0.0288
21185W        W64097  24.933  15.066  17.175  0.0726 -0.2473 -0.0143
21186W        W64098  25.576  17.350  16.357  0.1785  0.1053  0.1596
21187W        W64099  26.817  15.769  20.548 -0.1072  0.0128 -0.0094
21188W        W64100  27.635  16.612  19.960 -0.0082 -0.2502  0.0224
21189W        W64101  28.045  15.690  18.048  0.0462  0.1913  0.0032
21190W        W64102  25.273  14.675  17.644 -0.1057 -0.1866  0.0553
21191W        W64103  26.518  15.851  17.487  0.0252  0.0154  0.3908
21192W        W64104  26.602  18.314  19.057  0.0390  0.2028  0.0534
21193W        W64105  27.066  14.745  18.762  0.1499  0.1013  0.3199
21194W        W64106  26.993  17.822  19.186  0.2729 -0.2120  0.2230
21195W        W64107  26.565  13.873  18.412 -0.1916 -0.1552 -0.1780
21196W        W64108  29.036  18.181  18.078  0.0379 -0.0881 -0.2510
21197W        W64109  26.701  15.244  17.459 -0.1019 -0.3448 -0.0501
21198W        W64110  25.544  16.709  17.160 -0.1555 -0.3102 -0.4620
21199W        W64111  25.691  16.424  17.602  0.0389  0.2380  0.0347
21200W        W64112  27.805  17.275  18.667 -0.0831 -0.2024  0.1270
21201W        W64113  27.623  16.372  18.429 -0.0075 -0.1850  0.1097
21202W        W64114  26.434  17.113  18.545  0.1833 -0.4222 -0.0441
21203W        W64115  25.061  15.939  17.250 -0.3373  0.1368 -0.2549
21204W        W64116  26.487  17.084  19.524 -0.0900 -0.3550 -0.0134
21205W        W64117  26.527  14.383  17.161  0.0554  0.2461  0.0454
21206W        W64118  27.304  16.933  17.768 -0.0929  0.3102  0.2590
21207W        W64119  28.614  16.411  18.158 -0.2136  0.0043 -0.1556
21208W        W64120  28.279  15.691  18.726 -0.3269 -0.0357  0.1126
21209W        W64121  27.726  16.438  16.794  0.2351 -0.1681  0.2478
21210W        W64122  27.016  15.317  20.401  0.2597  0.3577  0.2010
21211W        W64123  25.565  15.401  19.122 -0.0553  0.0008  0.2613
21212W        W64124  27.054  17.262  17.557  0.2582 -0.4035 -0.0982
21213W        W64125  24.870  14.546  19.018 -0.1077 -0.3099 -0.1246
21214W        W64126  28.310  17.166  20.268 -0.2143 -0.0464  0.0139
21215W        W64127  25.743  15.718  19.526  0.1549 -0.1648 -0.3023
21216W        W64128  28.941  15.215  17.989 -0.1476 -0.2180 -0.0904
21217W        W64129  26.264  15.545  16.342 -0.2269 -0.3238  0.3792
21218W        W64130  25.991  17.841  18.553  0.2167 -0.1081  0.1565
21219W        W64131  28.394  16.933  18.319  0.0217 -0.1221  0.0959
21220W        W64132  27.035  15.703  16.707  0.3692  0.1352 -0.0350
21221W        W64133  28.929  15.416  16.980  0.1683 -0.0535 -0.3089
21222W        W64134  27.636  15.483  18.337  0.0567 -0.0032  0.3183
21223W        W64135  28.604  16.747  17.040  0.3265  0.3140  0.0165
21224W        W64136  27.250  16.420  17.088  0.2134 -0.2907 -0.0639
21225W        W64137  26.824  15.603  17.767  0.2150  0.0372 -0.0263
21226W        W64138  25.973  13.830  19.121 -0.2123 -0.0266 -0.1174
21227W        W64139  26.860  18.103  18.635  0.0472 -0.0431 -0.0202
21228W        W64140  28.008  16.260  18.122  0.2373 -0.0791  0.1490
21229W        W64141  26.728  15.834  18.306  0.1067  0.2526 -0.0861
21230W        W64142  28.114  16.119  18.582 -0.4915 -0.0634 -0.3351
21231W        W64143  27.454  17.307  19.004  0.0800  0.0631 -0.1562
21232W        W64144  26.816  15.159  19.443 -0.1418  0.1736 -0.1047
21233W        W64145  28.970  17.238  17.725 -0.0553  0.0850 -0.0096
21234W        W64146  28.689  16.616  16.549 -0.0854 -0.1687  0.3984
21235W        W64147  29.646  16.998  18.394  0.0182  0.1933  0.2205
21236W        W64148  28.617  17.309  17.354 -0.3100 -0.1270 -0.0464
21237W        W64149  28.080  17.524  17.414  0.0286 -0.1629 -0.0742
21238W        W64150  27.091  15.216  17.945  0.3307  0.3426 -0.0334
21239W        W64151  28.734  16.483  20.477  0.2598 -0.0583 -0.1734
21240W        W64152  25.357  15.311  15.718  0.1935  0.1480  0.1733
21241W        W64153  27.100  16.826  19.595 -0.1088 -0.1274 -0.1169
21242W        W64154  26.425  17.978  16.476 -0.0584 -0.0315 -0.0141
21243W        W64155  25.788  17.113  17.392 -0.1465  0.0556  0.0248
21244W        W64156  27.248  15.812  17.669  0.0299 -0.0379 -0.0923
21245W        W64157  25.961  14.147  16.748  0.0893  0.1043  0.1688
21246W        W64158  25.717  18.863  18.603 -0.0442 -0.0173 -0.1683
21247W        W64159  26.179  14.367  16.355 -0.1580  0.2310 -0.1629
21248W        W64160  26.317  15.470  17.753  0.2243 -0.1313 -0.5515
21249W        W64161  26.191  17.470  19.845 -0.1662 -0.2524  0.0746
21250W        W64162  28.517  16.233  20.813 -0.1937  0.0366 -0.3420
21251W        W64163  26.488  13.976  17.559 -0.0818  0.1998  0.0444
21252W        W64164  27.941  15.751  20.026  0.0002 -0.0197  0.1335
21253W        W64165  26.511  17.516  16.821 -0.0208 -0.1954 -0.2830
21254W        W64166  28.634  15.376  18.390 -0.0626 -0.0595  0.1168
21255W        W64167  26.597  18.950  19.102  0.0314  0.0171  0.3395
21256W        W64168  26.004  16.302  18.967  0.3112 -0.0287  0.1439
21257W        W64169  27.179  16.924  19.101  0.0838  0.0123 -0.1439
21258W        W64170  28.399  17.466  19.217  0.2094 -0.0145 -0.0662
21259W        W64171  27.324  15.605  19.248  0.0840  0.0540 -0.0302
21260W        W64172  27.623  14.650  19.527  0.1352 -0.1580 -0.0348
21261W        W64173  29.348  17.088  18.824 -0.0598 -0.2686  0.1512
21262W        W64174  27.925  17.610  19.037 -0.0931 -0.3436  0.0555
21263W        W64175  25.976  16.878  17.857  0.3555  0.3934 -0.0556
21264W        W64176  26.865  16.507  19.236 -0.4780 -0.3988 -0.2225
21265W        W64177  25.807  17.746  17.984 -0.0928 -0.2213  0.0531
21266W        W64178  26.544  16.372  17.332  0.0997  0.0245 -0.0565
21267W        W64179  25.340  13.451  18.820 -0.0901 -0.0511 -0.1603
21268W        W64180  27.382  15.935  19.675  0.0796  0.0996  0.0032
21269W        W64181  27.150  17.663  18.754  0.0045  0.2744 -0.1659
21270W        W64182  26.645  14.540  16.308 -0.1961  0.2507 -0.0807
21271W        W64183  27.462  18.109  17.411 -0.0889  0.0238 -0.0202
21272W        W64184  25.962  16.225  19.445  0.2434 -0.1049  0.1686
21273W        W64185  25.087  17.379  18.989 -0.4299  0.1011  0.2442
21274W        W64186  25.491  17.965  17.172  0.1210 -0.2053  0.1193
21275W        W64187  25.981  17.911  16.818  0.1716 -0.2040  0.2865
21276W        W64188  26.897  16.647  17.471  0.0940 -0.0626  0.1929
21277W        W64189  27.461  18.154  19.559 -0.1725  0.0567  0.2220
21278W        W64190  26.886  15.659  17.233  0.1196  0.0328  0.0058
21279W        W64191  26.181  18.749  18.240  0.0641 -0.2265  0.1801
21280W        W64192  25.454  18.097  17.810 -0.0135  0.2418  0.1786
21281W        W64193  27.854  18.344  17.454 -0.2353  0.0120 -0.3493
21282W        W64194  24.420  17.642  16.131 -0.2857 -0.0382  0.3713
21283W        W64195  28.524  18.507  19.573 -0.2500 -0.0566  0.1167
21284W        W64196  28.685  14.544  16.503  0.1077 -0.0076  0.0111
21285W        W64197  27.850  16.970  18.204 -0.1235 -0.0836  0.2704
21286W        W64198  27.694  16.178  17.203  0.2231  0.0617 -0.3909
21287W        W64199  28.089  16.905  19.682 -0.0831 -0.0701  0.1748
21288W        W64200  27.268  15.310  17.481 -0.1403  0.0641  0.0597
21289W        W64201  26.308  15.114  16.581  0.0971 -0.2420  0.4338
21290W        W64202  27.400  15.643  20.676 -0.1032  0.0356  0.1957
21291W        W64203  28.796  14.931  18.708 -0.0575 -0.1964 -0.0426
21292W        W64204  24.771  18.369  19.665 -0.3563  0.1120  0.1966
21293W        W64205  26.609  17.564  18.466 -0.2773  0.4116  0.1569
21294W        W64206  25.447  14.222  16.596 -0.2368 -0.0419  0.0797
21295W        W64207  27.240  14.972  19.176 -0.0412  0.0110 -0.0032
21296W        W64208  28.376  14.800  19.149  0.0271  0.1553  0.1478
21297W        W64209  25.247  15.256  16.807 -0.2421  0.1103  0.0870
21298W        W64210  28.446  15.884  18.219  0.0182  0.0382 -0.2914
21299W        W64211  26.295  17.252  17.255 -0.0805  0.3690 -0.2746
21300W        W64212  26.585  18.100  16.939  0.0358  0.1360  0.3330
21301W        W64213  27.618  18.796  19.675  0.0773  0.2425  0.2228
21302W        W64214  25.695  14.225  17.195 -0.2210  0.0969  0.0010
21303W        W64215  29.679  16.400  17.801 -0.2564 -0.2526 -0.4017
21304W        W64216  27.304  15.186  19.625  0.4005 -0.2478  0.1997
21305W        W64217  28.184  14.814  18.404  0.1159 -0.2666 -0.0531
21306W        W64218  24.609  16.021  16.950 -0.2041 -0.1104 -0.0441
21307W        W64219  28.145  16.401  19.034  0.0992 -0.0689 -0.0555
21308W        W64220  26.716  16.124  18.868 -0.0684  0.0411  0.0729
21309W        W64221  27.714  15.119  19.313  0.1445 -0.3151  0.3192
21310W        W64222  27.180  15.260  16.601  0.2087 -0.2786 -0.3036
21311W        W64223  27.612  16.447  18.982 -0.3752 -0.0309 -0.2893
21312W        W64224  27.416  16.070  16.623  0.0807 -0.2894  0.1008
21313W        W64225  28.844  19.405  19.423  0.0094  0.1705 -0.2033
21314W        W64226  25.682  15.200  17.057 -0.2160 -0.1605  0.2219
21315W        W64227  26.974  13.582  16.746  0.0623 -0.1585 -0.0110
21316W        W64228  26.053  16.099  17.556 -0.2419 -0.1737  0.0233
21317W        W64229  26.627  14.869  18.551  0.2958 -0.2391 -0.0516
21318W        W64230  30.286  18.446  20.005 -0.2486 -0.0325 -0.2125
21319W        W64231  25.758  14.545  16.453 -0.0331 -0.1148  0.2178
21320W        W64232  27.689  17.180  17.428 -0.2254  0.0919  0.0052
21321W        W64233  28.188  15.910  19.481 -0.1658 -0.2025 -0.1615
21322W        W64234  26.436  17.518  16.350 -0.1301  0.0154  0.0307
21323W        W64235  26.395  17.273  19.039  0.2870 -0.2024 -0.2933
21324W        W64236  28.200  18.549  19.194 -0.0930 -0.1463  0.1948
21325W        W64237  24.887  14.580  17.333 -0.1682 -0.3230 -0.0837
21326W        W64238  28.795  17.088  19.298 -0.2463  0.0125  0.2867
21327W        W64239  29.471  17.936  18.004  0.5585 -0.1107  0.1098
21328W        W64240  27.313  14.815  17.565  0.0730 -0.1839  0.0018
21329W        W64241  25.921  15.631  18.607  0.1044  0.1977 -0.1613
21330W        W64242  25.315  17.246  17.107 -0.2603  0.0355  0.1690
21331W        W64243  28.565  16.502  18.695 -0.0024 -0.0456 -0.2034
21332W        W64244  28.015  15.539  19.142 -0.1068 -0.1645 -0.4922
21333W        W64245  25.809  18.449  16.169 -0.0018  0.3213 -0.2258
21334W        W64246  28.902  14.635  20.501 -0.0256 -0.1706  0.2813
21335W        W64247  27.329  17.100  19.917 -0.0792 -0.0507  0.0524
21336W        W64248  26.988  19.230  20.013  0.1097  0.2492 -0.3845
21337W        W64249  26.010  15.500  16.829 -0.0051  0.1775 -0.0920
21338W        W64250  25.900  16.885  18.421 -0.0473  0.0878 -0.0339
21339W        W64251  26.433  16.800  17.280  0.0408  0.1761 -0.0811
21340W        W64252  25.837  18.764  17.258  0.0196  0.0052  0.0884
21341W        W64253  28.251  19.218  18.779 -0.1727 -0.2306 -0.3608
21342W        W64254  28.094  15.455  17.566  0.1028  0.0408  0.1113
21343W        W64255  28.495  17.273  17.911 -0.0315  0.0797 -0.1197
21344W        W64256  26.354  14.564  17.687 -0.1419  0.2700  0.2154
21345W        W64257  27.573  14.900  16.483 -0.2122  0.0317 -0.3098
21346W        W64258  28.462  15.048  18.105 -0.0329  0.1844  0.0764
21347W        W64259  26.888  17.707  17.148 -0.0367  0.0942  0.1082
21348W        W64260  26.563  15.907  16.549  0.1914  0.1386 -0.0526
21349W        W64261  26.350  15.947  17.953 -0.1603 -0.1648  0.1684
21350W        W64262  25.712  15.342  17.579  0.2312  0.1863 -0.0251
21351W        W64263  27.397  15.461  19.962 -0.0667  0.1084  0.3090
21352W        W64264  26.177  15.029  17.584  0.1767 -0.1901  0.3632
21353W        W64265  25.448  16.131  17.947  0.1697 -0.2393  0.2834
21354W        W64266  26.600  14.073  16.150  0.3499  0.0517 -0.1074
21355W        W64267  28.635  17.778  17.565  0.1491  0.1844 -0.1087
21356W        W64268  25.461  14.330  19.340  0.2204  0.2883 -0.1560
21357W        W64269  27.252  13.563  17.861  0.1210  0.0847  0.0822
21358W        W64270  27.886  17.340  17.888 -0.1903  0.1247  0.3344
21359W        W64271  27.436  17.597  17.378 -0.1360  0.3340 -0.3027
21360W        W64272  27.519  16.855  18.629  0.0428  0.0502 -0.0049
21361W        W64273  28.356  18.323  18.763  0.4843 -0.3734  0.2611
21362W        W64274  24.709  16.425  16.569 -0.0246 -0.0892  0.0451
21363W        W64275  27.605  14.373  18.236 -0.1431  0.1148  0.1186
21364W        W64276  24.965  14.790  20.051 -0.0745 -0.2275  0.3530
21365W        W64277  25.929  16.836  16.821  0.0379  0.0840  0.0286
21366W        W64278  26.413  16.408  17.778 -0.3273 -0.1006 -0.3558
21367W        W64279  27.323  16.441  18.037 -0.2423  0.2026 -0.0511
21368W        W64280  28.336  19.283  17.788 -0.1306  0.0360  0.1339
21369W        W64281  25.505  16.920  19.987  0.2262  0.0939 -0.3368
21370W        W64282  27.559  17.187  20.701  0.1091 -0.3052  0.2366
21371W        W64283  26.423  13.582  19.315  0.1949 -0.1075  0.0917
21372W        W64284  28.117  16.117  16.782  0.0260  0.0017  0.0267
21373W        W64285  28.397  19.033  19.262 -0.2274  0.3123 -0.0925
21374W        W64286  28.880  17.174  18.215 -0.0096  0.1051 -0.0862
21375W        W64287  28.901  15.221  17.462 -0.1917  0.1055  0.1965
21376W        W64288  28.099  16.395  17.503 -0.0106 -0.2322 -0.0420
21377W        W64289  26.022  14.645  20.239 -0.0499  0.2796  0.2261
21378W        W64290  27.387  18.650  19.241  0.1524  0.3560 -0.0062
21379W        W64291  28.810  18.029  19.545 -0.5122 -0.2398  0.0513
21380W        W64292  25.937  13.569  17.358 -0.1178  0.0093 -0.2374
21381W        W64293  28.406  15.076  17.596 -0.1331  0.1355 -0.0995
21382W        W64294  27.006  18.283  17.169  0.2160  0.2217 -0.2806
21383W        W64295  26.345  15.501  18.225 -0.0118  0.2859  0.0788
21384W        W64296  26.926  16.113  17.368  0.1873 -0.0537 -0.0210
21385W        W64297  27.186  15.643  18.200  0.2721  0.3934 -0.3259
21386W        W64298  29.441  17.667  19.520 -0.0825  0.1206 -0.2456
21387W        W64299  27.632  16.970  19.471 -0.0134 -0.2118  0.1380
21388W        W64300  27.638  15.463  17.820 -0.0883  0.2757  0.0821
21389W        W64301  28.386  16.181  16.373  0.1316  0.0513 -0.1347
21390W        W64302  27.275  18.268  18.476  0.1753 -0.1594  0.2191
21391W        W64303  29.137  17.179  22.269  0.2275 -0.1950 -0.1332
21392W        W64304  26.466  18.033  18.326 -0.1789  0.2243  0.0863
21393W        W64305  29.134  17.550  18.860 -0.6162 -0.1210  0.0475
21394W        W64306  26.922  13.427  18.464  0.2889  0.0218 -0.2721
21395W        W64307  25.782  14.803  17.462  0.2728  0.4071  0.0834
21396W        W64308  25.766  16.125  18.469  0.4449  0.0852 -0.0686
21397W        W64309  28.655  15.583  19.259  0.1203 -0.1130 -0.1187
21398W        W64310  25.621  15.236  18.519  0.1679  0.2213  0.4031
21399W        W64311  27.514  13.879  16.790 -0.2159  0.0504  0.1037
21400W        W64312  27.816  18.899  20.161  0.1564 -0.1274  0.0281
21401W        W64313  27.963  17.896  19.560  0.1241 -0.1920  0.0799
21402W        W64314  26.208  15.752  23.681  0.1645 -0.1472  0.1332
21403W        W64315  25.629  16.778  20.998  0.2249 -0.0385  0.0236
21404W        W64316  26.957  16.083  19.467 -0.0267  0.1417  0.2824
21405W        W64317  29.178  16.651  20.674 -0.0171 -0.0385 -0.1533
21406W        W64318  25.304  13.389  20.744 -0.1887  0.0723 -0.0368
21407W        W64319  27.314  17.823  21.655  0.1219 -0.2759 -0.1963
21408W        W64320  26.202  14.152  22.336 -0.2307 -0.1331  0.1840
21409W        W64321  28.067  17.910  21.394  0.0815  0.2071 -0.0515
21410W        W64322  28.118  17.481  22.926 -0.1232  0.0414  0.2097
21411W        W64323  29.130  17.435  20.370  0.2051  0.0600  0.2955
21412W        W64324  28.958  15.066  22.399 -0.1271  0.1812  0.0031
21413W        W64325  27.922  18.133  23.399  0.2087  0.2769  0.1554
21414W        W64326  27.554  15.811  21.493 -0.1457 -0.0846 -0.0993
21415W        W64327  25.785  14.939  22.159  0.1293  0.0435  0.4457
21416W        W64328  26.946  16.086  22.314  0.0125 -0.5121 -0.0129
21417W        W64329  25.275  16.624  22.598  0.1561  0.0397  0.1288
21418W        W64330  25.963  16.972  22.873 -0.2995 -0.2391  0.2634
21419W        W64331  26.728  16.176  21.196  0.2933  0.1537 -0.0421
21420W        W64332  26.852  17.466  20.954  0.0521 -0.1002 -0.3730
21421W        W64333  28.057  14.917  22.767 -0.1191 -0.0210  0.0209
21422W        W64334  27.276  16.255  22.943  0.5636 -0.1048  0.3146
21423W        W64335  27.118  16.316  19.974 -0.2990 -0.1268 -0.2160
21424W        W64336  26.111  15.660  19.054  0.2451 -0.0597 -0.0224
21425W        W64337  25.075  15.253  22.267  0.2211  0.0070  0.0794
21426W        W64338  25.835  16.829  23.871 -0.0736 -0.0583 -0.4119
21427W        W64339  28.101  14.775  21.345  0.0382 -0.1039  0.0192
21428W        W64340  27.725  16.296  21.119 -0.0583  0.1279  0.2528
21429W        W64341  26.767  17.886  21.830 -0.0572  0.0671 -0.1886
21430W        W64342  27.114  18.144  21.294 -0.3316  0.4914 -0.2829
21431W        W64343  26.560  16.526  22.000  0.2589  0.1087  0.4503
21432W        W64344  24.400  16.016  22.292  0.0201 -0.2276  0.3251
21433W        W64345  25.753  17.405  21.114 -0.0908 -0.2862 -0.2132
21434W        W64346  25.755  17.318  20.587 -0.0993  0.0802  0.0853
21435W        W64347  28.789  16.342  23.008 -0.3042  0.0750 -0.1305
21436W        W64348  27.531  19.335  22.302  0.0140  0.2104  0.2716
21437W        W64349  26.506  19.341  25.618  0.1066  0.0750  0.0874
21438W        W64350  27.058  17.159  20.589 -0.1490 -0.1202  0.0837
21439W        W64351  27.200  18.368  23.173 -0.0561  0.1445 -0.3967
21440W        W64352  25.705  17.605  23.534  0.0354 -0.1308  0.0266
21441W        W64353  27.838  15.674  22.325 -0.0663 -0.0426  0.0202
21442W        W64354  26.841  16.749  21.653  0.1016  0.1293  0.0341
21443W        W64355  27.494  18.454  20.026  0.1830  0.3150 -0.0870
21444W        W64356  26.031  16.557  21.773  0.1216  0.0121  0.1917
21445W        W64357  25.217  18.008  23.386  0.2936 -0.2585  0.0425
21446W        W64358  24.990  17.537  21.173  0.1389  0.4468 -0.0772
21447W        W64359  28.361  14.961  24.012  0.1140 -0.0542 -0.0272
21448W        W64360  27.848  16.826  20.535  0.1183  0.0140  0.4838
21449W        W64361  27.544  16.482  20.685  0.1238  0.1361 -0.0044
21450W        W64362  26.640  16.068  19.839  0.0452 -0.1384  0.2336
21451W        W64363  29.414  15.851  22.373  0.3040  0.1666 -0.0258
21452W        W64364  26.606  14.846  21.107 -0.0658 -0.1803  0.3316
21453W        W64365  26.998  20.255  22.631  0.0051 -0.0286  0.2102
21454W        W64366  25.852  14.252  23.205  0.1074 -0.1858 -0.1818
21455W        W64367  27.215  17.394  23.582 -0.3694  0.0324  0.0923
21456W        W64368  28.244  17.298  21.548  0.1313 -0.1701  0.1106
21457W        W64369  26.787  15.606  22.036  0.1246  0.1044 -0.0052
21458W        W64370  24.831  17.707  23.110 -0.0865 -0.4430  0.0550
21459W        W64371  25.227  16.252  22.170  0.1167  0.1971 -0.1895
21460W        W64372  28.312  17.777  20.907 -0.1388 -0.1090 -0.0983
21461W        W64373  28.987  19.310  20.937  0.3298 -0.2756 -0.1303
21462W        W64374  28.611  18.984  21.051  0.0067 -0.0398 -0.0377
21463W        W64375  25.077  16.277  21.604  0.0820 -0.1125  0.1368
21464W        W64376  25.023  15.480  22.745  0.1385 -0.1214 -0.0646
21465W        W64377  26.249  14.881  23.943 -0.1920  0.2008 -0.2005
21466W        W64378  26.898  14.003  19.850 -0.2850 -0.1389  0.2116
21467W        W64379  28.052  17.218  22.540  0.0994  0.0679  0.0421
21468W        W64380  24.586  16.349  21.393  0.1430  0.1691 -0.0597
21469W        W64381  30.000  16.615  21.712  0.1708  0.1650  0.2094
21470W        W64382  24.482  15.652  22.845 -0.0283 -0.0877 -0.0377
21471W        W64383  27.148  16.942  23.805 -0.2884  0.3538 -0.3299
21472W        W64384  28.775  17.037  18.756  0.0912  0.1308 -0.2177
21473W        W64385  28.512  14.436  21.433  0.1271  0.0594 -0.0200
21474W        W64386  27.353  15.746  22.501 -0.1475 -0.1417  0.0738
21475W        W64387  27.166  16.433  21.201  0.3311 -0.2967  0.4230
21476W        W64388  26.084  14.426  22.765 -0.3176 -0.1538  0.0473
21477W        W64389  27.689  17.440  24.479  0.1997 -0.0140  0.1512
21478W        W64390  28.362  16.737  20.570 -0.3208  0.0098 -0.1248
21479W        W64391  26.067  18.011  22.466 -0.4122  0.2716 -0.2732
21480W        W64392  24.955  15.873  21.983  0.1084  0.1530 -0.3619
21481W        W64393  27.400  18.294  23.648 -0.1090 -0.2069 -0.0939
21482W        W64394  27.277  17.553  20.232 -0.3084 -0.3097  0.0252
21483W        W64395  24.810  16.428  22.839  0.0562  0.1200 -0.0985
21484W        W64396  26.433  16.893  19.944  0.3665  0.1811  0.0121
21485W        W64397  26.702  16.144  22.771  0.2878  0.1165 -0.3309
21486W        W64398  26.123  16.714  21.238  0.0428 -0.1506  0.1706
21487W        W64399  27.788  15.473  20.930  0.0934 -0.1946 -0.1607
21488W        W64400  25.421  14.206  22.974 -0.1619  0.0501  0.0055
21489W        W64401  29.461  14.343  21.989 -0.0621  0.1022 -0.0132
21490W        W64402  24.864  17.516  22.645  0.1399 -0.4620  0.0449
21491W        W64403  28.822  18.652  22.535  0.1919 -0.0580 -0.3565
21492W        W64404  28.392  16.727  21.480  0.1238  0.1072  0.0778
21493W        W64405  27.746  15.977  19.172  0.1550 -0.1119 -0.0364
21494W        W64406  24.553  16.392  24.003 -0.3144  0.0281  0.2228
21495W        W64407  26.727  14.934  23.106 -0.0751  0.2356 -0.1296
21496W        W64408  26.649  14.969  23.563  0.2709 -0.0896  0.2162
21497W        W64409  24.577  14.523  21.490 -0.0474 -0.1553 -0.2861
21498W        W64410  27.603  18.230  22.909  0.1797  0.0105 -0.1420
21499W        W64411  26.370  14.295  19.165  0.2545  0.4016  0.0890
21500W        W64412  27.666  16.764  21.963  0.0070 -0.0274 -0.1299
21501W        W64413  27.032  14.682  20.774 -0.2597 -0.3983  0.0887
21502W        W64414  24.447  16.724  21.036  0.2498 -0.1899 -0.3808
21503W        W64415  28.033  13.722  23.417 -0.1606  0.0118  0.3886
21504W        W64416  30.066  18.406  20.523 -0.1045  0.1985  0.1706
21505W        W64417  28.872  19.107  23.943 -0.2922 -0.0525  0.3337
21506W        W64418  29.148  19.124  21.425  0.4069 -0.1841  0.1950
21507W        W64419  25.465  16.708  23.579  0.0409  0.4629  0.3069
21508W        W64420  25.392  16.048  20.596  0.1059 -0.0287 -0.1063
21509W        W64421  26.103  18.946  19.685  0.0951  0.0870 -0.0386
21510W        W64422  25.795  17.125  21.471 -0.0100 -0.1268  0.2135
21511W        W64423  26.714  15.638  19.210 -0.0759  0.1270 -0.0141
21512W        W64424  28.554  17.685  21.494  0.1985 -0.0541  0.1608
21513W        W64425  26.870  16.227  21.768 -0.0882 -0.1188 -0.1828
21514W        W64426  25.520  17.600  21.738 -0.2157  0.4103  0.0520
21515W        W64427  28.895  13.508  23.689 -0.1736  0.0330 -0.4576
21516W        W64428  27.407  16.799  22.912 -0.0403 -0.1592 -0.1034
21517W        W64429  27.659  16.792  21.035  0.3276 -0.1159 -0.1139
21518W        W64430  25.212  14.804  19.563  0.0240  0.4298 -0.0119
21519W        W64431  28.261  18.603  21.096 -0.3010 -0.2332 -0.1275
21520W        W64432  25.445  17.771  21.298  0.3290 -0.1474  0.2102
21521W        W64433  25.464  15.712  21.926  0.1166 -0.0375  0.1108
21522W        W64434  26.913  17.289  21.435  0.0831 -0.2066  0.3020
21523W        W64435  28.660  13.699  22.212 -0.0407 -0.0298 -0.0946
21524W        W64436  24.900  17.446  24.155  0.2289 -0.0541  0.0637
21525W        W64437  27.373  13.991  25.177 -0.3175 -0.0243  0.1110
21526W        W64438  26.044  16.869  19.553  0.0476  0.0841  0.1884
21527W        W64439  26.686  17.126  23.582  0.0367  0.1164 -0.0739
21528W        W64440  26.667  14.307  22.005  0.2954 -0.0010  0.0454
21529W        W64441  28.198  15.435  20.599  0.0925  0.0463  0.2702
21530W        W64442  25.733  17.201  22.411 -0.5924  0.0898 -0.1121
21531W        W64443  27.743  17.570  21.629  0.0487  0.0326 -0.0572
21532W        W64444  26.548  15.599  19.967  0.0364  0.2015  0.2779
21533W        W64445  26.736  14.752  19.184  0.1069  0.0100  0.1399
21534W        W64446  26.145  18.479  23.720 -0.0347 -0.2692  0.3702
21535W        W64447  27.188  17.022  21.046  0.3179 -0.0878 -0.1552
21536W        W64448  26.078  16.912  22.103 -0.3067 -0.0505  0.0804
21537W        W64449  26.563  15.531  18.694 -0.3223 -0.2830  0.1027
21538W        W64450  29.156  17.655  21.611 -0.0450 -0.0150  0.1242
21539W        W64451  25.448  15.920  21.495 -0.4597  0.0256  0.1620
21540W        W64452  26.779  18.218  23.957  0.0017 -0.0845  0.3744
21541W        W64453  28.180  19.157  21.304 -0.1765 -0.0467  0.0752
21542W        W64454  26.062  15.514  22.701 -0.3764 -0.1860  0.2134
21543W        W64455  26.943  15.219  18.885  0.0896  0.0007  0.3242
21544W        W64456  26.172  15.350  22.200 -0.0146  0.3804  0.1764
21545W        W64457  26.474  17.122  20.897  0.6114  0.1197  0.4639
21546W        W64458  29.093  15.430  22.698  0.0219 -0.1557 -0.2535
21547W        W64459  27.920  15.037  22.292  0.2582  0.0087 -0.1516
21548W        W64460  27.494  14.446  23.445 -0.1473  0.0205  0.1214
21549W        W64461  27.147  15.800  23.422  0.1254  0.1781  0.2193
21550W        W64462  27.409  16.303  21.639  0.0190  0.0044  0.1861
21551W        W64463  26.180  16.029  21.252 -0.1213 -0.0379  0.1673
21552W        W64464  27.096  15.823  20.124  0.0041  0.1569 -0.0454
21553W        W64465  25.666  15.458  22.284  0.0203  0.2561  0.3998
21554W        W64466  25.690  16.284  23.787 -0.1255  0.1174 -0.2133
21555W        W64467  25.179  17.205  21.715  0.0022 -0.1476 -0.2183
21556W        W64468  27.543  18.256  22.425 -0.1351 -0.1605  0.2274
21557W        W64469  28.218  17.059  20.975 -0.0828  0.3228  0.0436
21558W        W64470  27.436  16.873  23.419  0.2576 -0.3201  0.1507
21559W        W64471  27.213  13.861  19.378  0.0373  0.2913 -0.0734
21560W        W64472  27.737  19.045  20.944  0.0766 -0.2259 -0.1866
21561W        W64473  26.295  15.189  21.385 -0.1703  0.3957  0.0188
21562W        W64474  26.642  14.645  21.656  0.3408 -0.5154  0.0894
21563W        W64475  25.726  16.336  21.324 -0.2764  0.0361  0.3743
21564W        W64476  27.633  17.712  18.621  0.0582  0.0894  0.4209
21565W        W64477  26.947  17.058  22.105  0.0223 -0.2488  0.2601
21566W        W64478  26.880  17.971  20.780  0.3387  0.1371 -0.3142
21567W        W64479  27.400  13.976  21.157 -0.3150 -0.2517  0.2441
21568W        W64480  26.705  17.838  21.322  0.0720  0.0857 -0.1096
21569W        W64481  27.298  15.180  20.878 -0.0363  0.0557 -0.3525
21570W        W64482  26.705  16.566  19.703  0.0215 -0.3035 -0.1079
21571W        W64483  28.201  14.407  21.014 -0.1230 -0.0388  0.0052
21572W        W64484  28.591  17.298  20.858  0.1750  0.2235 -0.0840
21573W        W64485  24.978  14.321  22.243  0.2474  0.2233 -0.3343
21574W        W64486  26.512  15.663  22.609 -0.0104  0.0440  0.0054
21575W        W64487  25.451  19.004  23.565  0.1456 -0.1475 -0.0687
21576W        W64488  27.305  15.653  21.873 -0.0824 -0.0534 -0.0681
21577W        W64489  26.920  15.732  21.557 -0.2800  0.0517 -0.3312
21578W        W64490  26.412  16.460  21.502  0.1929 -0.2940 -0.0311
21579W        W64491  26.502  15.777  23.241 -0.0479 -0.0438  0.1513
21580W        W64492  24.769  15.262  19.828  0.2202 -0.1647  0.0121
21581W        W64493  28.537  16.887  22.337  0.1046  0.0860 -0.0465
21582W        W64494  26.559  15.189  21.882 -0.0204  0.0376  0.0169
21583W        W64495  25.691  15.989  22.288  0.0554 -0.1567 -0.0839
21584W        W64496  27.086  18.121  22.142 -0.1983  0.1526  0.1331
21585W        W64497  26.352  15.553  20.525  0.1531 -0.3445  0.0223
21586W        W64498  25.553  16.980  21.996  0.0443 -0.1194 -0.3232
21587W        W64499  25.358  16.166  24.474 -0.3378 -0.3282 -0.2728
21588W        W64500  27.984  16.886  22.888  0.2904 -0.2497  0.0549
21589W        W64501  26.513  14.655  22.756  0.0769  0.1562  0.2353
21590W        W64502  27.740  15.122  19.858  0.2500 -0.0272  0.0492
21591W        W64503  25.909  15.062  21.092 -0.2514 -0.0534 -0.0388
21592W        W64504  26.332  16.955  21.639  0.1456  0.2151 -0.3762
21593W        W64505  27.095  14.873  22.670  0.0339 -0.0006 -0.0239
21594W        W64506  26.546  18.081  23.515  0.1906 -0.1106  0.1305
21595W        W64507  27.560  14.752  21.567 -0.2022 -0.1145 -0.0507
21596W        W64508  29.624  18.392  22.099  0.2217  0.1268 -0.0187
21597W        W64509  26.983  16.168  23.818  0.1646  0.0706  0.0073
21598W        W64510  26.062  15.400  19.998 -0.0333 -0.1828 -0.0261
21599W        W64511  24.203  15.668  21.895 -0.2234  0.1412  0.1354
21600W        W64512  27.096  17.468  21.892  0.0670  0.5340  0.0213
21601W        W64513  27.847  16.567  21.553 -0.1804  0.2832  0.1629
21602W        W64514  26.156  17.436  22.633  0.0138  0.2890  0.3885
21603W        W64515  26.238  17.191  20.279  0.1280  0.0913  0.0087
21604W        W64516  25.937  18.375  21.499 -0.4257  0.4358 -0.1868
21605W        W64517  29.153  14.834  20.881  0.1060  0.1355  0.1435
21606W        W64518  27.174  16.152  20.490  0.0713  0.1530  0.0018
21607W        W64519  26.284  16.423  20.892  0.0377  0.0891 -0.1689
21608W        W64520  30.452  13.985  21.699  0.0103 -0.2951  0.0450
21609W        W64521  27.729  17.619  20.379  0.1897 -0.1509 -0.2184
21610W        W64522  27.214  15.278  23.141  0.0786  0.0442 -0.1136
21611W        W64523  27.350  14.822  22.061 -0.0577  0.1133 -0.3295
21612W        W64524  27.300  16.987  21.570 -0.0646  0.2383  0.3588
21613W        W64525  25.849  15.210  23.066  0.2216 -0.1908 -0.1857
21614W        W64526  27.687  19.000  23.237 -0.0046  0.1003  0.5727
21615W        W64527  27.007  17.959  23.553  0.1839  0.2831  0.3179
21616W        W64528  27.879  15.634  21.831  0.1075  0.1207 -0.1202
21617W        W64529  26.424  14.645  20.566 -0.1213 -0.2183 -0.1070
21618W        W64530  25.904  16.456  22.694 -0.0980 -0.3031  0.3745
21619W        W64531  26.644  17.468  22.864  0.1454  0.0871  0.0510
21620W        W64532  28.657  16.082  19.551  0.0392  0.0764 -0.4162
21621W        W64533  28.701  16.782  20.980 -0.3924  0.5000 -0.3047
21622W        W64534  25.594  16.510  25.693  0.2289  0.4324  0.2019
21623W        W64535  28.638  17.547  20.282 -0.3398  0.0563 -0.3553
21624W        W64536  28.024  16.390  20.553 -0.0016  0.2242 -0.0316
21625W        W64537  25.702  15.977  21.014 -0.0095 -0.3046 -0.1178
21626W        W64538  27.153  14.438  22.365  0.1326  0.1914 -0.0899
21627W        W64539  27.461  17.676  22.297  0.0282  0.0629 -0.0522
21628W        W64540  28.246  15.071  23.214  0.0215 -0.0841 -0.2627
21629W        W64541  26.873  13.145  22.483  0.0497 -0.0843  0.0111
21630W        W64542  27.595  15.637  22.950 -0.1483  0.0711  0.1277
21631W        W64543  26.174  16.010  22.912 -0.2218 -0.1673 -0.1324
21632W        W64544  26.347  14.057  23.576  0.1589  0.2710  0.0020
21633W        W64545  27.076  19.603  22.546 -0.2785 -0.1250 -0.1600
21634W        W64546  28.282  15.933  20.439 -0.1862  0.1154  0.1071
21635W        W64547  28.512  15.221  22.692 -0.1014 -0.1394  0.0480
21636W        W64548  30.135  17.067  20.765 -0.1623 -0.2813 -0.0358
21637W        W64549  29.048  16.935  20.100  0.0874  0.0200  0.0966
21638W        W64550  26.158  15.851  22.301 -0.0763  0.3777  0.1343
21639W        W64551  27.147  15.566  23.879  0.3287  0.0615  0.3727
21640W        W64552  26.858  14.240  18.984 -0.0498  0.1461  0.3314
21641W        W64553  26.370  16.772  22.540  0.0140 -0.1485  0.1349
21642W        W64554  27.790  18.759  21.378  0.0477 -0.3048  0.1735
21643W        W64555  26.425  18.020  20.334  0.0025 -0.1928 -0.0723
21644W        W64556  28.626  15.132  20.648 -0.1845  0.0083 -0.1047
21645W        W64557  24.971  15.731  21.447 -0.4564  0.0097 -0.1015
21646W        W64558  26.350  17.979  23.993  0.2178 -0.2150 -0.1693
21647W        W64559  26.047  14.072  18.680 -0.1580 -0.0215 -0.2032
21648W        W64560  26.682  16.233  20.683  0.2712  0.2454  0.1106
21649W        W64561  26.387  17.741  20.763 -0.1643  0.0605 -0.2411
21650W        W64562  29.030  16.787  22.626  0.0261  0.0594  0.1540
21651W        W64563  26.565  13.460  21.009 -0.0145  0.1953  0.0281
21652W        W64564  28.083  14.294  24.726  0.0139  0.0127 -0.1166
21653W        W64565  26.192  16.374  22.277 -0.1708  0.3175 -0.0603
21654W        W64566  28.624  14.032  21.768  0.1911 -0.2411  0.0539
21655W        W64567  25.955  17.398  21.955 -0.0389  0.1399  0.2616
21656W        W64568  24.970  17.192  22.179 -0.2939  0.2317 -0.1730
21657W        W64569  26.100  18.053  21.063 -0.3212 -0.5977 -0.3292
21658W        W64570  28.248  13.698  21.900 -0.3055  0.1872  0.3005
21659W        W64571  26.376  15.593  21.067  0.3284  0.0071  0.4172
21660W        W64572  25.256  16.125  22.738 -0.0383 -0.0912 -0.1661
21661W        W64573  28.484  17.134  24.288  0.0587  0.1005 -0.0344
21662W        W64574  27.346  16.393  23.449  0.0954  0.0262 -0.4524
21663W        W64575  25.787  16.403  20.671  0.1150  0.1146  0.0902
21664W        W64576  26.325  17.340  21.321  0.0859  0.0890  0.0528
21665W        W64577  27.706  17.325  22.065 -0.2761 -0.0963  0.0226
21666W        W64578  26.546  18.923  22.058  0.1955 -0.3121 -0.0780
21667W        W64579  26.127  16.487  24.043 -0.2599 -0.0766  0.0684
21668W        W64580  27.128  17.155  24.643  0.3012  0.2660 -0.0503
21669W        W64581  27.960  16.155  21.919 -0.2259  0.1136 -0.0951
21670W        W64582  25.709  15.670  20.207  0.1311 -0.1002  0.0786
21671W        W64583  27.622  17.026  22.496  0.4081  0.0481 -0.1051
21672W        W64584  25.431  17.885  24.105  0.0822  0.4551  0.2955
21673W        W64585  25.229  17.147  22.666  0.2260  0.1720 -0.0321
21674W        W64586  26.072  16.856  20.663  0.1394  0.1024  0.4393
21675W        W64587  27.401  16.372  19.416  0.2919  0.0358  0.1082
21676W        W64588  26.303  15.111  20.832 -0.0863  0.0840 -0.0580
21677W        W64589  27.396  18.439  21.841 -0.1004  0.0429  0.1266
21678W        W64590  27.571  14.807  21.080 -0.0695 -0.3102 -0.0684
21679W        W64591  26.067  18.589  22.421 -0.1106  0.2610 -0.2059
21680W        W64592  25.096  16.797  20.258 -0.2331 -0.1573 -0.0437
21681W        W64593  27.297  17.729  20.836  0.0414  0.2847 -0.2326
21682W        W64594  26.317  17.819  22.901 -0.2170 -0.2160  0.0151
21683W        W64595  27.286  17.411  22.705  0.1355 -0.0163  0.3173
21684W        W64596  27.377  14.973  20.392  0.0646 -0.4803 -0.3612
21685W        W64597  30.441  15.312  21.594  0.1596  0.1005  0.1357
21686W        W64598  28.427  15.409  21.757 -0.2035  0.2221  0.2656
21687W        W64599  26.513  16.133  24.083  0.0208 -0.4659 -0.3464
21688W        W64600  26.463  16.002  21.949  0.0989 -0.0746 -0.3463
21689W        W64601  27.740  15.609  19.555 -0.1434 -0.0058 -0.1269
21690W        W64602  24.871  16.256  24.374 -0.0417  0.1074  0.2579
21691W        W64603  28.488  15.098  22.125  0.2344 -0.2359 -0.1481
21692W        W64604  24.451  18.081  23.941 -0.1361 -0.2855 -0.1885
21693W        W64605  27.804  17.085  21.503 -0.3545 -0.0960 -0.0718
21694W        W64606  25.384  15.159  21.923  0.0236 -0.1724  0.3820
21695W        W64607  27.411  17.877  23.293  0.1531  0.1659 -0.0131
21696W        W64608  29.975  15.738  22.894 -0.1856 -0.2206  0.4302
21697W        W64609  26.098  15.957  20.697 -0.0053 -0.0555 -0.1010
21698W        W64610  26.429  16.071  19.333 -0.1523  0.2658 -0.1491
21699W        W64611  27.774  17.874  20.790 -0.3548  0.2774  0.1642
21700W        W64612  27.031  17.090  23.164 -0.0199  0.1842 -0.1550
21701W        W64613  26.840  18.009  23.029  0.4411 -0.0167  0.1711
21702W        W64614  24.918  16.046  19.622 -0.1663 -0.2438  0.1091
21703W        W64615  30.154  15.338  22.031 -0.0129 -0.2044  0.4371
21704W        W64616  26.483  16.320  23.603  0.0803  0.2671 -0.0159
21705W        W64617  27.727  15.568  24.004  0.0549  0.0107  0.2926
21706W        W64618  26.782  15.299  21.400 -0.0775  0.0556 -0.1718
21707W        W64619  29.304  16.395  22.390  0.0412 -0.1223  0.3002
21708W        W64620  25.612  16.219  23.147 -0.3372 -0.1512 -0.1411
21709W        W64621  25.239  15.494  23.602 -0.2111 -0.1845 -0.1572
21710W        W64622  28.699  16.415  21.851  0.0930 -0.1326 -0.3390
21711W        W64623  27.331  17.395  24.165  0.2856 -0.1272  0.1797
21712W        W64624  29.227  16.758  19.139  0.0961  0.2351  0.1692
21713W        W64625  28.549  18.368  24.541 -0.0522 -0.3462 -0.1755
21714W        W64626  25.269  14.750  22.369  0.4655 -0.1597  0.0396
21715W        W64627  27.707  14.373  21.298 -0.1599  0.3669  0.2708
21716W        W64628  24.518  15.868  21.596  0.1490  0.1759 -0.3207
21717W        W64629  24.705  16.485  22.385  0.1804  0.0352  0.0710
21718W        W64630  27.912  17.698  24.123  0.3269 -0.1230 -0.2403
21719W        W64631  27.020  13.962  22.196 -0.3865 -0.2843  0.2613
21720W        W64632  28.597  16.727  20.089  0.3073  0.1412  0.0345
21721W        W64633  28.070  15.497  22.738 -0.1655 -0.3541 -0.2656
21722W        W64634  28.103  18.732  20.657  0.1139 -0.1372  0.0453
21723W        W64635  29.595  17.787  21.428 -0.0683  0.2504 -0.3059
21724W        W64636  26.854  18.381  21.750 -0.0089 -0.1310 -0.0159
21725W        W64637  25.113  16.485  23.977  0.0532 -0.0673  0.1712
21726W        W64638  27.950  17.700  22.501  0.0106 -0.1089  0.3493
21727W        W64639  28.736  17.448  22.117 -0.0876  0.1535  0.1023
21728W        W64640  27.363  14.392  20.322  0.1286 -0.1001  0.5206
21729W        W64641  23.185  16.521  20.427  0.0518 -0.0964 -0.2296
21730W        W64642  26.449  17.441  21.738  0.1321  0.2411  0.1094
21731W        W64643  29.053  16.117  22.072 -0.2283 -0.0345  0.1763
21732W        W64644  27.342  14.804  23.094 -0.2062  0.2484  0.1414
21733W        W64645  28.025  18.438  20.237 -0.1887  0.1234  0.1877
21734W        W64646  29.638  14.603  22.928 -0.0015  0.1552 -0.3736
21735W        W64647  26.822  16.616  22.961 -0.0223  0.1086  0.1123
21736W        W64648  25.671  18.614  23.937  0.1657 -0.0174 -0.0847
21737W        W64649  26.447  16.042  20.292  0.1239  0.2379 -0.1493
21738W        W64650  26.807  15.403  23.409 -0.1550  0.0651 -0.1234
21739W        W64651  25.944  15.546  21.345 -0.1184 -0.0569 -0.4748
21740W        W64652  26.674  18.081  19.600  0.2152  0.1369  0.0623
21741W        W64653  27.990  18.946  21.762  0.0932  0.3092  0.0792
21742W        W64654  28.149  15.878  20.984  0.2621 -0.0996  0.1775
21743W        W64655  27.552  19.720  22.670  0.0560  0.1898  0.2054
21744W        W64656  25.925  16.058  21.843  0.0903 -0.0792 -0.2535
21745W        W64657  28.161  15.210  20.103 -0.1786 -0.1317  0.0354
21746W        W64658  27.615  15.246  21.954 -0.0063 -0.2253 -0.1835
21747W        W64659  25.721  16.530  22.222  0.1047  0.0352  0.0024
21748W        W64660  26.578  16.852  20.483  0.2061 -0.0129  0.1959
21749W        W64661  27.629  18.570  20.536 -0.0620 -0.2782  0.1595
21750W        W64662  25.490  18.114  22.537 -0.0891 -0.2607 -0.1806
21751W        W64663  27.543  13.857  24.265 -0.0919 -0.0619 -0.1157
21752W        W64664  25.717  15.842  22.783  0.0834  0.0993  0.3528
21753W        W64665  24.383  16.139  22.828  0.2777  0.3378 -0.0101
21754W        W64666  26.356  14.236  20.187 -0.0131 -0.4136  0.0248
21755W        W64667  29.604  18.281  19.215 -0.2090  0.0943 -0.1426
21756W        W64668  27.068  15.265  22.307 -0.1551 -0.0911 -0.0003
21757W        W64669  26.016  13.830  21.699  0.1297  0.2458 -0.1126
21758W        W64670  27.668  18.004  21.975  0.2460  0.1607 -0.1987
21759W        W64671  29.298  17.263  21.319  0.0473 -0.0921 -0.2260
21760W        W64672  26.908  15.082  19.914 -0.1576 -0.1533  0.3653
21761W        W64673  29.548  17.854  22.992 -0.1013  0.3372 -0.1916
21762W        W64674  25.820  17.783  19.495 -0.1766 -0.0428 -0.2104
21763W        W64675  28.330  14.621  25.360 -0.0399  0.1037  0.2262
21764W        W64676  27.595  14.815  22.615 -0.1383 -0.0252 -0.2112
21765W        W64677  26.248  14.809  19.454  0.0014 -0.2804  0.1730
21766W        W64678  26.909  15.720  20.991  0.0738 -0.2171 -0.1408
21767W        W64679  28.704  18.490  20.784  0.3205  0.1758 -0.1900
21768W        W64680  29.785  18.009  19.843  0.0140  0.1103 -0.1691
21769W        W64681  26.848  17.101  22.616 -0.0838 -0.1608 -0.3163
21770W        W64682  27.613  17.834  23.720 -0.2475  0.1629  0.1526
21771W        W64683  25.686  14.715  23.275  0.3625  0.4212  0.0681
21772W        W64684  28.708  17.186  21.321  0.0584  0.2804  0.0658
21773W        W64685  26.510  17.008  23.118  0.3216 -0.0295 -0.1874
21774W        W64686  29.661  17.402  21.955 -0.1579 -0.4271  0.3106
21775W        W64687  29.797  15.033  22.318 -0.0646 -0.1734  0.1651
21776W        W64688  28.041  15.978  21.463  0.0994  0.0150  0.0385
21777W        W64689  26.735  13.538  23.690 -0.2383 -0.1719 -0.1143
21778W        W64690  26.668  17.598  23.353  0.1314 -0.3236  0.1866
21779W        W64691  27.255  16.485  22.073 -0.0744 -0.0200  0.1486
21780W        W64692  25.209  15.715  22.382 -0.2643  0.2156  0.3701
21781W        W64693  27.988  15.360  21.459  0.3336  0.2313  0.2033
21782W        W64694  27.452  18.033  20.386  0.3644  0.2996  0.4007
21783W        W64695  25.336  15.796  23.177  0.0279 -0.0998 -0.1358
21784W        W64696  27.533  16.041  22.073  0.1525 -0.2731 -0.0925
21785W        W64697  27.651  15.977  23.302 -0.0233  0.0755 -0.0860
21786W        W64698  26.499  17.192  22.287  0.0213 -0.0862 -0.0947
21787W        W64699  28.443  15.927  21.849 -0.0723  0.1753  0.0416
21788W        W64700  25.861  15.358  21.816 -0.1675 -0.0688 -0.0584
21789W        W64701  29.514  17.516  20.957 -0.3565 -0.4421 -0.3162
21790W        W64702  27.170  17.916  22.653  0.1372 -0.2176 -0.1810
21791W        W64703  28.135  17.924  25.454  0.0821  0.0932  0.1288
21792W        W64704  25.408  18.341  22.988 -0.0130 -0.0231  0.2038
21793W        W64705  29.046  16.713  22.070 -0.1432  0.0320  0.1126
21794W        W64706  25.842  14.473  22.321 -0.1192 -0.2145  0.0377
21795W        W64707  25.509  15.185  22.679  0.2425 -0.3532 -0.1264
21796W        W64708  26.777  16.725  21.099 -0.0949 -0.0325  0.0603
21797W        W64709  26.443  15.636  21.585 -0.0335 -0.0339  0.0872
21798W        W64710  25.968  15.864  24.119  0.0075  0.1582 -0.4190
21799W        W64711  27.398  15.295  21.419 -0.2388  0.0596 -0.1228
21800W        W64712  27.084  18.835  22.939  0.1220  0.1387 -0.2316
21801W        W64713  26.902  17.593  22.383 -0.1781  0.2321 -0.0619
21802W        W64714  25.986  17.419  25.948  0.2867 -0.2046  0.0742
21803W        W64715  26.378  15.719  24.388 -0.0726 -0.0618 -0.0916
21804W        W64716  27.631  14.905  23.524 -0.1250  0.0643 -0.1314
21805W        W64717  28.564  17.106  23.794 -0.2199  0.2478 -0.1472
21806W        W64718  24.610  15.484  25.667  0.0014 -0.0202  0.2190
21807W        W64719  27.611  18.575  26.278  0.1192 -0.0163  0.1844
21808W        W64720  26.849  15.341  26.478  0.0770  0.0190  0.2922
21809W        W64721  28.157  17.628  24.581 -0.3100  0.2328  0.1862
21810W        W64722  28.820  16.746  25.475 -0.0362 -0.1786 -0.1068
21811W        W64723  26.049  15.354  24.130 -0.1702  0.4173  0.1597
21812W        W64724  27.977  16.288  26.584 -0.1095 -0.0820 -0.0937
21813W        W64725  27.298  19.019  26.383  0.1214  0.1484 -0.2872
21814W        W64726  27.036  14.030  24.330 -0.1957  0.4619  0.0246
21815W        W64727  25.652  14.091  25.183 -0.0689  0.2374 -0.0774
21816W        W64728  28.935  16.239  26.750 -0.1504  0.0339  0.0677
21817W        W64729  26.094  16.414  26.966 -0.1412  0.0136  0.1028
21818W        W64730  26.617  17.082  24.649  0.0542 -0.0707  0.4208
21819W        W64731  27.275  15.229  26.206 -0.0137  0.0370 -0.0633
21820W        W64732  27.027  17.254  25.919 -0.5013  0.3658 -0.1041
21821W        W64733  26.800  16.434  27.427  0.1606 -0.1099 -0.2721
21822W        W64734  29.097  14.052  27.043  0.2932 -0.1932 -0.0812
21823W        W64735  27.217  18.618  25.929 -0.0845 -0.1502  0.1198
21824W        W64736  25.338  15.935  24.057  0.1468 -0.3063  0.0150
21825W        W64737  26.281  17.638  27.440 -0.0592  0.1662 -0.0308
21826W        W64738  27.391  16.838  25.017  0.0399 -0.0819 -0.1494
21827W        W64739  28.085  15.380  24.876 -0.0503 -0.1667 -0.0931
21828W        W64740  28.267  16.627  25.657  0.1042 -0.1304 -0.0539
21829W        W64741  26.591  17.963  24.373  0.0491 -0.2420  0.1644
21830W        W64742  30.425  16.354  25.762 -0.0420  0.1772  0.1072
21831W        W64743  28.111  15.843  26.747  0.0248  0.4001 -0.0791
21832W        W64744  26.083  17.298  24.682 -0.0667 -0.2203 -0.0138
21833W        W64745  25.745  18.326  24.776  0.1050 -0.3445 -0.0683
21834W        W64746  26.820  16.956  25.155 -0.0451  0.1222  0.1891
21835W        W64747  28.710  16.500  24.345  0.3032 -0.2131  0.0037
21836W        W64748  27.591  19.541  26.382  0.0710  0.1216  0.1490
21837W        W64749  26.375  17.494  27.952  0.4938 -0.2294 -0.0057
21838W        W64750  26.095  18.818  24.877  0.0092  0.4860  0.2471
21839W        W64751  28.598  18.825  26.934  0.0243  0.1315 -0.2319
21840W        W64752  26.889  18.529  26.555  0.2682 -0.2143  0.3492
21841W        W64753  28.012  16.475  27.075 -0.2329 -0.0550  0.1795
21842W        W64754  28.832  15.907  24.466 -0.0677  0.1601  0.1296
21843W        W64755  27.039  18.064  24.563 -0.0041 -0.1188 -0.1781
21844W        W64756  28.097  15.878  24.883 -0.0031  0.1136  0.1263
21845W        W64757  28.041  17.543  27.427 -0.0183  0.0905  0.2980
21846W        W64758  25.847  16.613  26.109 -0.5654  0.2840  0.0008
21847W        W64759  29.399  15.833  29.173  0.0119 -0.2158  0.2225
21848W        W64760  26.212  18.884  25.455  0.1325  0.0011 -0.0481
21849W        W64761  26.739  16.662  23.913  0.2787  0.0680 -0.1770
21850W        W64762  27.841  14.857  24.043  0.0289 -0.2763 -0.0273
21851W        W64763  28.563  14.578  24.831  0.1950  0.1545  0.0431
21852W        W64764  27.340  15.171  26.693 -0.3575 -0.0736  0.2875
21853W        W64765  27.713  18.520  25.736 -0.1069 -0.0150  0.0941
21854W        W64766  26.257  16.534  24.878  0.1469  0.2389 -0.2163
21855W        W64767  28.841  18.385  27.195 -0.1130  0.0619 -0.2872
21856W        W64768  27.654  16.246  24.350  0.0196 -0.1529 -0.0060
21857W        W64769  28.286  15.244  28.253 -0.1642  0.0601  0.0884
21858W        W64770  26.023  18.193  26.820 -0.0502  0.1722 -0.4060
21859W        W64771  25.431  15.889  25.615 -0.0268 -0.0938  0.0685
21860W        W64772  28.161  16.200  24.464  0.1479  0.0650 -0.0484
21861W        W64773  29.176  17.419  24.964  0.2111  0.0541  0.1045
21862W        W64774  27.883  17.607  23.381  0.1306  0.1578 -0.3247
21863W        W64775  25.747  15.891  25.985  0.2046  0.0353  0.0150
21864W        W64776  25.909  17.303  28.132  0.2161  0.1914 -0.2599
21865W        W64777  26.779  17.743  27.548  0.1343  0.2155  0.1071
21866W        W64778  27.601  15.161  25.676  0.2009 -0.0098  0.0576
21867W        W64779  29.883  17.666  26.220  0.0953  0.0740  0.0053
21868W        W64780  26.362  17.716  26.796  0.0326 -0.0615  0.2851
21869W        W64781  28.331  15.773  26.325 -0.3460 -0.1319  0.1932
21870W        W64782  26.065  16.099  27.407  0.1549 -0.2021  0.1911
21871W        W64783  29.351  16.696  26.644  0.1828 -0.1774 -0.2780
21872W        W64784  27.359  15.847  24.381  0.0042 -0.0563 -0.0167
21873W        W64785  29.809  14.896  25.745 -0.2078 -0.4890  0.0021
21874W        W64786  28.155  13.923  26.822 -0.1597  0.1640 -0.0244
21875W        W64787  27.995  16.008  24.034  0.3634  0.2245  0.1381
21876W        W64788  26.577  16.078  24.597 -0.0269 -0.0104 -0.3793
21877W        W64789  29.608  15.841  27.200 -0.0248  0.0825  0.0715
21878W        W64790  26.545  15.160  22.539 -0.0911  0.1976 -0.1351
21879W        W64791  27.752  17.447  25.406 -0.0376 -0.3400  0.0078
21880W        W64792  26.452  17.043  28.068 -0.0748  0.2002 -0.1132
21881W        W64793  26.980  17.209  28.069 -0.2814 -0.0283 -0.1311
21882W        W64794  27.617  16.870  23.964 -0.2339  0.2275  0.3505
21883W        W64795  24.177  16.676  25.746 -0.0107  0.1238 -0.0260
21884W        W64796  26.345  17.023  25.053  0.3370  0.2030  0.3097
21885W        W64797  26.829  14.527  26.528 -0.1616 -0.1682 -0.3090
21886W        W64798  26.643  17.110  25.638 -0.0995  0.1616 -0.1315
21887W        W64799  28.611  15.066  24.590 -0.1726  0.2326 -0.0187
21888W        W64800  26.937  16.313  25.979 -0.1301  0.0619  0.2474
21889W        W64801  28.934  15.517  25.040 -0.3973  0.0349 -0.0890
21890W        W64802  25.253  17.288  25.381  0.0320 -0.0068 -0.0612
21891W        W64803  28.750  17.613  25.256 -0.1226 -0.2765 -0.0710
21892W        W64804  27.845  15.768  24.448  0.0565  0.1165 -0.2821
21893W        W64805  28.768  16.391  22.454 -0.1342 -0.1499  0.3638
21894W        W64806  25.242  16.683  26.034 -0.0566  0.0997 -0.2423
21895W        W64807  26.479  16.075  27.030 -0.0665 -0.2333 -0.0328
21896W        W64808  25.048  15.128  27.757 -0.1940  0.0462  0.4765
21897W        W64809  26.566  16.230  26.512 -0.0887  0.1374 -0.0840
21898W        W64810  30.252  14.902  26.740  0.0281 -0.0603  0.0029
21899W        W64811  26.807  14.912  24.767 -0.0413  0.4280 -0.3584
21900W        W64812  28.138  14.794  23.616 -0.0166 -0.2711 -0.1213
21901W        W64813  26.567  16.226  25.053  0.0100  0.1197  0.1921
21902W        W64814  25.030  16.279  24.923  0.1377  0.0601  0.0199
21903W        W64815  28.540  14.127  28.043  0.3131  0.0528 -0.2814
21904W        W64816  27.972  17.221  24.158  0.0162 -0.2725  0.0552
21905W        W64817  29.028  17.654  26.096 -0.0442 -0.2380  0.2393
21906W        W64818  30.464  17.682  25.459 -0.1047  0.0454  0.2812
21907W        W64819  28.084  16.021  27.356 -0.0224 -0.2693  0.0647
21908W        W64820  27.132  14.557  23.967 -0.5146  0.0623  0.2640
21909W        W64821  25.368  19.656  25.096  0.1656  0.2195  0.2149
21910W        W64822  27.393  17.565  26.166 -0.1504 -0.1424  0.1415
21911W        W64823  26.335  15.216  24.810 -0.1255 -0.1612  0.0636
21912W        W64824  28.732  17.058  24.740 -0.2943 -0.0480  0.4270
21913W        W64825  26.906  17.625  25.604  0.1002 -0.0168 -0.2664
21914W        W64826  26.818  17.648  26.306 -0.2204 -0.0737  0.0536
21915W        W64827  28.950  15.354  26.690  0.3347  0.3580 -0.0368
21916W        W64828  27.395  15.468  25.368 -0.2220 -0.0999 -0.0618
21917W        W64829  27.567  16.111  24.869 -0.4576  0.1280  0.1110
21918W        W64830  27.523  15.577  24.908 -0.1724 -0.2753 -0.2740
21919W        W64831  26.303  18.448  25.738  0.0040 -0.0868 -0.1723
21920W        W64832  26.793  18.375  25.360  0.1111 -0.0628 -0.3084
21921W        W64833  26.751  16.984  27.116  0.1574  0.0334 -0.0826
21922W        W64834  27.525  17.892  25.492  0.0093 -0.0849  0.0830
21923W        W64835  28.473  15.298  26.305  0.1968 -0.0396 -0.0384
21924W        W64836  24.626  14.783  27.663 -0.0287 -0.0771 -0.0981
21925W        W64837  27.824  15.691  27.092 -0.1992 -0.0337 -0.1007
21926W        W64838  25.802  14.759  24.219 -0.2039  0.1864 -0.1062
21927W        W64839  25.219  16.407  26.480  0.1893  0.4396  0.0302
21928W        W64840  28.990  14.694  24.592  0.1378 -0.0472 -0.1244
21929W        W64841  27.751  15.157  23.097  0.6077  0.0839  0.0199
21930W        W64842  27.465  16.905  27.824  0.1235  0.1692 -0.2474
21931W        W64843  28.340  16.109  22.978 -0.1022  0.5260  0.2288
21932W        W64844  27.148  14.995  23.583  0.0579  0.2378 -0.1222
21933W        W64845  26.937  15.701  22.850 -0.0567 -0.0449 -0.0837
21934W        W64846  25.118  17.112  27.766  0.1233 -0.3049 -0.0315
21935W        W64847  27.075  17.168  26.405 -0.1774  0.0625 -0.0348
21936W        W64848  28.827  16.291  26.301 -0.0265  0.0492 -0.1667
21937W        W64849  28.102  16.183  23.449  0.0993  0.2611  0.1791
21938W        W64850  28.939  17.878  23.662 -0.3292  0.0443 -0.3550
21939W        W64851  25.509  18.058  25.936 -0.2964  0.2866  0.0033
21940W        W64852  28.779  17.528  27.738  0.0571  0.2129 -0.2743
21941W        W64853  27.329  16.537  24.633 -0.0499  0.2568 -0.0139
21942W        W64854  28.470  16.221  26.598  0.0569 -0.0856 -0.1112
21943W        W64855  27.291  15.337  24.304  0.0234  0.0449  0.0628
21944W        W64856  26.846  15.199  25.276  0.0938 -0.3328 -0.0332
21945W        W64857  26.150  18.920  23.968  0.1458 -0.3120  0.1924
21946W        W64858  29.427  14.513  25.895  0.0481  0.3877 -0.2076
21947W        W64859  29.844  16.186  26.490 -0.1229  0.1870 -0.1514
21948W        W64860  28.548  15.759  27.098 -0.3191  0.0391  0.1852
21949W        W64861  28.162  16.412  29.341 -0.0856  0.1751  0.2644
21950W        W64862  27.366  14.804  24.309 -0.3743  0.2870 -0.0220
21951W        W64863  28.253  17.547  25.762 -0.1479 -0.3514 -0.0111
21952W        W64864  26.665  15.303  24.487 -0.2144 -0.0990  0.0637
21953W        W64865  27.741  15.302  27.432  0.0606  0.1225 -0.0026
21954W        W64866  27.043  16.774  26.793  0.0362 -0.1795  0.0523
21955W        W64867  27.316  18.118  26.631  0.0769  0.0874  0.3198
21956W        W64868  28.840  17.712  26.554 -0.0240  0.0957  0.3194
21957W        W64869  27.048  16.801  24.327 -0.1534  0.0762 -0.3452
21958W        W64870  27.289  15.492  27.539 -0.0926  0.0379 -0.0856
21959W        W64871  27.560  15.757  25.863  0.0088  0.1001  0.2674
21960W        W64872  26.457  17.630  24.748  0.0432  0.0377 -0.0479
21961W        W64873  27.502  15.984  23.807 -0.1146 -0.0111 -0.3721
21962W        W64874  27.386  15.702  26.463  0.2140  0.2116 -0.0294
21963W        W64875  27.829  16.581  26.127 -0.0886 -0.4338  0.2978
21964W        W64876  25.906  17.210  24.212  0.1738 -0.2279  0.1196
21965W        W64877  28.405  17.469  26.801  0.2149 -0.1130  0.3746
21966W        W64878  25.647  16.958  24.655 -0.0793  0.1172 -0.1248
21967W        W64879  29.912  15.234  26.606 -0.1697 -0.0866  0.0029
21968W        W64880  26.452  18.177  26.590  0.0280  0.1668 -0.0092
21969W        W64881  26.032  14.902  25.004  0.0428 -0.1301  0.2039
21970W        W64882  24.673  16.650  25.177 -0.4793 -0.1246  0.0913
21971W        W64883  27.691  15.085  25.166  0.1952 -0.1063 -0.0243
21972W        W64884  29.249  16.945  23.745  0.0438 -0.2516  0.1085
21973W        W64885  27.284  16.437  27.755  0.1117  0.1348 -0.0599
21974W        W64886  27.895  14.769  25.533  0.1255 -0.2914  0.1283
21975W        W64887  25.858  17.782  26.980  0.1500  0.0785  0.2321
21976W        W64888  28.104  18.038  28.119 -0.4316  0.0496 -0.4578
21977W        W64889  28.543  14.560  23.820  0.3873  0.1568  0.1525
21978W        W64890  29.435  16.220  26.875  0.1375 -0.0355 -0.1249
21979W        W64891  28.528  17.149  28.704 -0.0482 -0.4230 -0.0054
21980W        W64892  26.991  14.575  23.405  0.2467 -0.0893  0.1293
21981W        W64893  29.571  15.025  27.402 -0.1992 -0.2570 -0.1990
21982W        W64894  26.718  14.566  25.720 -0.0581  0.1409 -0.3286
21983W        W64895  25.791  17.334  25.132 -0.0373  0.1441 -0.1118
21984W        W64896  27.877  16.940  25.125 -0.3127  0.1942 -0.1127
21985W        W64897  26.360  16.987  24.003 -0.1166 -0.1450 -0.4257
21986W        W64898  25.966  16.712  25.319 -0.0815 -0.1743  0.0418
21987W        W64899  27.068  15.802  28.866  0.0263  0.0176  0.0395
21988W        W64900  28.492  15.905  27.598 -0.0479  0.1922 -0.3069
21989W        W64901  27.051  16.757  25.540  0.1635  0.1947  0.0478
21990W        W64902  26.524  15.609  25.056 -0.1030  0.0943  0.0071
21991W        W64903  27.942  15.432  26.425 -0.0778  0.0944  0.3720
21992W        W64904  27.743  16.262  27.982 -0.0924  0.1264 -0.0349
21993W        W64905  27.952  15.507  25.418 -0.1075 -0.0408  0.1419
21994W        W64906  26.954  18.112  26.242  0.4864 -0.3936  0.1361
21995W        W64907  27.406  16.126  26.218  0.0165  0.0904  0.1859
21996W        W64908  29.416  18.373  23.132 -0.2186 -0.1005 -0.4765
21997W        W64909  29.511  16.347  28.978  0.0168  0.0451 -0.0401
21998W        W64910  27.205  16.203  25.396 -0.0275  0.0573  0.2104
21999W        W64911  23.806  16.574  26.121  0.3503  0.2930  0.1563
22000W        W64912  26.040  16.783  24.447 -0.1712 -0.1104 -0.2887
22001W        W64913  27.837  15.912  26.288 -0.0968  0.3089 -0.0722
22002W        W64914  27.185  17.205  27.004  0.1284  0.2024  0.0581
22003W        W64915  26.070  17.763  24.445 -0.0122  0.0054 -0.1531
22004W        W64916  26.295  16.893  26.786  0.0452 -0.2673  0.2026
22005W        W64917  27.536  14.560  25.802  0.0744  0.0019 -0.2334
22006W        W64918  25.973  15.686  23.239  0.2496  0.0710 -0.1201
22007W        W64919  28.220  15.059  25.315  0.0339 -0.3777  0.0149
22008W        W64920  28.972  15.577  27.921 -0.2841 -0.2899  0.0578
22009W        W64921  28.812  15.391  24.205  0.5428  0.3616 -0.3058
22010W        W64922  27.595  14.113  27.999  0.0488  0.1104  0.0977
22011W        W64923  24.829  16.506  27.611 -0.1942 -0.0992 -0.0257
22012W        W64924  29.042  16.686  26.055  0.3139  0.1672 -0.1616
22013W        W64925  25.846  14.840  25.980  0.4678 -0.0196 -0.1995
22014W        W64926  28.128  18.507  28.461  0.1389  0.2072 -0.3147
22015W        W64927  28.395  16.764  28.350  0.0603  0.0362  0.1218
22016W        W64928  26.755  14.847  26.169 -0.0889 -0.0029 -0.1245
22017W        W64929  27.692  14.967  26.172  0.1667 -0.1306  0.1449
22018W        W64930  27.709  15.939  25.334 -0.1176  0.2232 -0.0564
22019W        W64931  30.232  17.911  26.441  0.1672  0.2172  0.2506
22020W        W64932  25.370  18.294  23.755 -0.0492  0.2984 -0.0757
22021W        W64933  28.456  15.547  25.208  0.1603 -0.2790 -0.4056
22022W        W64934  26.197  17.425  25.428 -0.0570  0.2560 -0.0278
22023W        W64935  28.568  14.724  22.901  0.3118 -0.3615 -0.1022
22024W        W64936  27.349  16.448  24.046 -0.2360  0.3411 -0.0109
22025W        W64937  27.069  16.315  26.607 -0.5550 -0.2580 -0.0307
22026W        W64938  27.177  14.684  26.888  0.2763  0.1032  0.0304
22027W        W64939  27.023  15.727  25.227 -0.1884  0.0730  0.2138
22028W        W64940  29.232  14.215  25.527  0.0288  0.0281  0.0728
22029W        W64941  28.382  16.621  26.288  0.0880  0.1102 -0.0353
22030W        W64942  30.112  16.129  24.878 -0.1591  0.0796 -0.0942
22031W        W64943  27.927  17.219  27.742  0.2748  0.0771  0.0623
22032W        W64944  27.309  15.680  27.085  0.0152  0.3114 -0.1355
22033W        W64945  29.653  17.376  25.880  0.0887 -0.3183 -0.0772
22034W        W64946  28.678  15.789  22.835 -0.2112 -0.0971 -0.0238
22035W        W64947  28.770  16.385  25.805 -0.0724  0.3234  0.1385
22036W        W64948  28.551  16.259  24.761  0.2391 -0.1164 -0.0016
22037W        W64949  28.499  15.564  24.656 -0.1315  0.1763  0.2391
22038W        W64950  26.624  16.517  26.920  0.1145  0.2207 -0.0170
22039W        W64951  28.504  16.506  27.517  0.0167  0.4571 -0.1517
22040W        W64952  26.368  15.291  23.037  0.0046  0.0902  0.0367
22041W        W64953  28.493  14.428  27.640 -0.1497 -0.0188 -0.3803
22042W        W64954  27.135  17.841  24.093 -0.0348 -0.2177  0.1672
22043W        W64955  28.640  18.187  26.697 -0.0162 -0.1132 -0.0504
22044W        W64956  28.137  15.297  24.336 -0.1904  0.1475  0.0060
22045W        W64957  26.372  16.470  25.993  0.1783  0.0892 -0.1113
22046W        W64958  26.394  16.737  27.512 -0.2504 -0.0144  0.0302
22047W        W64959  25.875  15.249  24.592 -0.2157 -0.6249 -0.0994
22048W        W64960  26.124  16.266  24.478  0.1894  0.2801 -0.0662
22049W        W64961  29.382  17.746  26.504  0.1742 -0.1123 -0.0351
22050W        W64962  28.409  16.642  26.820 -0.1992  0.2036  0.0253
22051W        W64963  27.049  15.355  25.703  0.1209  0.0011  0.1413
22052W        W64964  29.133  15.777  26.907  0.0389  0.0661  0.1137
22053W        W64965  26.508  17.903  25.432 -0.0127 -0.3239  0.2030
22054W        W64966  28.843  13.600  26.467  0.1186 -0.3203 -0.2565
22055W        W64967  26.616  20.053  27.339 -0.1606 -0.2334 -0.0161
22056W        W64968  26.059  17.131  27.711  0.1340 -0.0022  0.3853
22057W        W64969  27.233  17.312  25.448 -0.0679 -0.4079 -0.1530
22058W        W64970  28.718  15.771  26.626 -0.3203  0.2318 -0.3318
22059W        W64971  27.538  16.584  27.060  0.3062 -0.0063  0.0952
22060W        W64972  28.151  16.428  25.058 -0.2451 -0.0174  0.2007
22061W        W64973  28.594  16.894  25.937 -0.0943  0.2956 -0.1589
22062W        W64974  27.930  17.297  26.985 -0.2384 -0.0270  0.1383
22063W        W64975  26.739  15.498  27.105 -0.0750 -0.0727  0.0733
22064W        W64976  28.533  17.456  26.184  0.0238 -0.2158  0.2066
22065W        W64977  28.936  17.148  26.235 -0.1520  0.2313 -0.0380
22066W        W64978  26.566  17.131  26.140  0.2256 -0.3046  0.0465
22067W        W64979  24.901  15.256  26.874  0.0185  0.0232  0.0066
22068W        W64980  27.621  17.699  26.818 -0.1847  0.1869 -0.2385
22069W        W64981  27.956  16.805  26.680  0.0517  0.2168 -0.1379
22070W        W64982  26.618  15.345  23.922 -0.2769 -0.2482 -0.1486
22071W        W64983  26.843  16.662  23.435 -0.0441  0.1433  0.0459
22072W        W64984  25.841  17.523  26.415  0.1760 -0.0970 -0.0653
22073W        W64985  25.542  18.488  26.254 -0.0255 -0.3459 -0.1706
22074W        W64986  25.723  18.891  25.551  0.1544 -0.3611  0.0954
22075W        W64987  27.531  15.457  23.482  0.1230 -0.1011 -0.3397
22076W        W64988  26.839  17.230  24.129 -0.2118 -0.0871 -0.2735
22077W        W64989  28.148  17.032  26.071 -0.1048 -0.0861  0.0631
22078W        W64990  25.451  15.289  24.015 -0.0133  0.0690 -0.3731
22079W        W64991  27.282  18.534  25.436 -0.2313 -0.1208 -0.1314
22080W        W64992  26.327  19.253  23.476 -0.2096  0.1136 -0.2278
22081W        W64993  28.014  16.710  24.251  0.0634 -0.0648 -0.0386
22082W        W64994  28.175  18.599  25.987 -0.0047  0.0089 -0.0477
22083W        W64995  29.014  17.786  27.359 -0.4116 -0.2242 -0.1750
22084W        W64996  28.828  14.435  25.262 -0.1413 -0.1007  0.2286
22085W        W64997  28.380  16.767  24.663 -0.0757 -0.2612 -0.0214
22086W        W64998  28.953  14.878  24.014  0.0731  0.3957  0.1679
22087W        W64999  27.743  18.081  27.758  0.0218 -0.1479  0.1306
22088W        W65000  27.501  17.135  26.660 -0.0058  0.1594 -0.0669
22089W        W65001  27.172  14.438  24.657 -0.0211 -0.0298  0.0794
22090W        W65002  28.122  15.830  27.918  0.1373  0.1074 -0.1257
22091W        W65003  29.513  15.886  25.626 -0.0651  0.0690  0.2257
22092W        W65004  26.065  18.996  26.859  0.2249 -0.1076 -0.2706
22093W        W65005  29.052  17.366  24.470 -0.2959  0.4464 -0.0130
22094W        W65006  27.574  16.891  25.499 -0.2860  0.2079  0.1791
22095W        W65007  28.088  15.656  25.896 -0.0737 -0.0249  0.1240
22096W        W65008  29.587  15.741  26.730 -0.0754  0.1737  0.2916
22097W        W65009  26.704  15.785  23.743  0.1513 -0.0764 -0.0612
22098W        W65010  27.729  16.989  27.334  0.2216  0.1686  0.0353
22099W        W65011  27.192  16.720  26.128 -0.0309  0.3052  0.0378
22100W        W65012  26.499  17.526  25.890  0.1115  0.3158  0.0392
22101W        W65013  26.255  19.487  26.088 -0.0078 -0.1339  0.0312
22102W        W65014  26.100  15.698  25.684  0.1712 -0.0303  0.0276
22103W        W65015  28.881  15.190  25.484 -0.0912 -0.2269 -0.1051
22104W        W65016  27.550  17.488  27.337 -0.3675  0.1672  0.1691
22105W        W65017  29.528  15.016  26.871 -0.1980  0.2794  0.1854
22106W        W65018  27.495  16.534  26.514 -0.0032  0.2017 -0.0119
22107W        W65019  27.033  16.115  24.820 -0.2050  0.0624 -0.1107
22108W        W65020  28.563  17.848  27.154 -0.0340  0.0046  0.0612
22109W        W65021  27.096  17.363  27.499  0.0083 -0.0121  0.0917
22110W        W65022  28.148  14.807  24.482 -0.0068 -0.5308 -0.0509
22111W        W65023  28.455  16.230  27.112  0.0131  0.1602 -0.2283
22112W        W65024  27.988  15.610  23.253 -0.2315  0.1247  0.0938
22113W        W65025  28.966  19.433  27.068  0.4218  0.1897  0.0420
22114W        W65026  26.288  15.108  26.119  0.2573  0.0463  0.0346
22115W        W65027  27.947  14.363  23.587  0.1082 -0.1742 -0.0392
22116W        W65028  25.793  16.483  24.858 -0.0647  0.1625 -0.1256
22117W        W65029  27.591  16.161  27.349  0.2880 -0.0278  0.0619
22118W        W65030  29.206  18.105  26.892  0.0990 -0.0911  0.0508
22119W        W65031  25.616  15.484  25.367  0.0328  0.1150 -0.0522
22120W        W65032  29.357  17.408  23.515 -0.2237  0.1457  0.0067
22121W        W65033  27.882  16.150  25.727  0.0544  0.4738 -0.0407
22122W        W65034  26.616  19.017  26.858  0.2752 -0.0359  0.0645
22123W        W65035  27.622  16.952  24.484  0.0351 -0.2461  0.6082
22124W        W65036  28.447  18.267  25.743 -0.0544  0.1077  0.0675
22125W        W65037  26.597  17.234  27.597  0.0296  0.2368 -0.1253
22126W        W65038  27.673  16.425  25.268 -0.2728  0.1719  0.0818
22127W        W65039  28.536  16.146  23.962 -0.0215 -0.1319  0.2568
22128W        W65040  28.811  15.601  26.105  0.0022 -0.1729 -0.2009
22129W        W65041  25.821  15.954  25.272 -0.2518  0.0355  0.1364
22130W        W65042  26.788  18.554  24.341 -0.0085 -0.0053  0.2372
22131W        W65043  28.484  15.925  25.880 -0.4006  0.2489 -0.1077
22132W        W65044  28.706  13.683  27.016  0.0859  0.0572 -0.0607
22133W        W65045  27.904  17.802  25.002  0.0244  0.2292 -0.0093
22134W        W65046  29.578  14.895  28.385  0.0815  0.1426  0.1905
22135W        W65047  27.351  16.566  28.306 -0.0446 -0.1880 -0.1357
22136W        W65048  26.928  18.190  28.336 -0.0127  0.3673  0.0337
22137W        W65049  26.731  17.682  23.831 -0.1359 -0.2405 -0.5539
22138W        W65050  26.747  17.493  27.105 -0.1401 -0.0055 -0.0394
22139W        W65051  26.054  16.250  25.666 -0.2793  0.0640  0.1377
22140W        W65052  27.126  17.439  25.004  0.2109 -0.0475 -0.0838
22141W        W65053  30.839  17.114  25.302  0.0588  0.0624  0.1084
22142W        W65054  28.967  14.573  25.731 -0.1283 -0.0589 -0.4104
22143W        W65055  30.005  17.231  24.798 -0.1673 -0.0197  0.1067
22144W        W65056  28.070  15.116  25.884  0.2707 -0.1184  0.0817
22145W        W65057  29.588  13.966  25.298  0.1844  0.1786  0.3033
22146W        W65058  28.264  13.606  26.332 -0.2797  0.1092  0.2540
22147W        W65059  26.844  17.970  26.788 -0.1542 -0.0798  0.2407
22148W        W65060  26.150  15.966  24.899  0.1795  0.1519  0.1626
22149W        W65061  26.488  16.635  24.403  0.0756 -0.1472 -0.4015
22150W        W65062  24.840  17.715  25.950  0.0169 -0.0055 -0.1120
22151W        W65063  26.850  14.690  28.901 -0.2372 -0.0718  0.2485
22152W        W65064  27.505  16.080  26.781 -0.3004 -0.2929  0.0298
22153W        W65065  25.567  17.044  26.350 -0.1779 -0.2275 -0.3141
22154W        W65066  24.332  15.626  24.058  0.1474 -0.0191  0.2099
22155W        W65067  29.261  15.620  24.318 -0.0515 -0.2332 -0.3569
22156W        W65068  26.124  15.159  26.848 -0.0032 -0.2857 -0.0242
22157W        W65069  25.033  14.827  26.079 -0.6543  0.1404  0.0270
22158W        W65070  26.943  16.330  24.297  0.1214  0.3030  0.2797
22159W        W65071  28.816  17.344  23.426 -0.1213 -0.0445  0.1210
22160W        W65072  26.064  15.131  25.543 -0.2760 -0.1727  0.2304
22161W        W65073  29.870  19.469  26.234 -0.2206 -0.0831  0.1587
22162W        W65074  26.807  16.189  23.256  0.0886  0.0121  0.1641
22163W        W65075  27.710  15.750  27.647  0.0737  0.0070  0.1350
22164W        W65076  26.822  15.229  27.629  0.0231  0.4297 -0.2182
22165W        W65077  26.238  15.250  23.555 -0.0002 -0.0490 -0.0121
22166W        W65078  26.736  16.259  25.533 -0.2570  0.1116 -0.1895
22167W        W65079  27.587  17.306  24.968  0.2602 -0.1717 -0.0281
22168W        W65080  27.048  17.922  25.193  0.1605  0.2664 -0.2269
22169W        W65081  29.191  17.754  25.569 -0.0528 -0.1686  0.2814
22170W        W65082  27.148  18.587  28.150 -0.4286  0.0971 -0.2211
22171W        W65083  24.381  13.555  26.014 -0.0483  0.0288  0.1422
22172W        W65084  26.894  15.781  24.293 -0.1097  0.4366 -0.1754
22173W        W65085  25.758  18.047  26.411 -0.1792 -0.0711  0.1515
22174W        W65086  28.360  15.715  23.648 -0.1143 -0.0230  0.0146
22175W        W65087  28.764  14.936  25.089 -0.4393  0.3849  0.0489
22176W        W65088  27.465  16.461  25.765 -0.1434  0.1282 -0.3002
22177W        W65089  26.118  16.020  26.327 -0.2134 -0.0783 -0.3226
22178W        W65090  27.164  16.839  27.396 -0.3216  0.0886 -0.0519
22179W        W65091  29.729  17.401  26.654 -0.1192  0.2049  0.0685
22180W        W65092  25.884  15.985  26.902  0.3786  0.0800  0.0631
22181W        W65093  27.945  14.314  25.244  0.0263 -0.0240 -0.0081
22182W        W65094  28.341  18.380  23.524 -0.1668  0.0891 -0.2756
22183W        W65095  25.917  17.267  26.832  0.2080  0.2443  0.0386
22184W        W65096  27.031  15.581  24.760  0.1537 -0.2232 -0.1150
22185W        W65097  27.260  15.110  24.948  0.0510 -0.0332 -0.3858
22186W        W65098  28.068  17.054  25.589  0.5115 -0.0716  0.1598
22187W        W65099  27.902  16.581  27.598  0.1221 -0.1536 -0.0577
22188W        W65100  25.325  18.054  24.558 -0.1787 -0.0606 -0.2631
22189W        W65101  27.697  17.288  23.697 -0.1607  0.3053  0.0892
22190W        W65102  26.903  18.169  27.290 -0.1154 -0.0122  0.1230
22191W        W65103  29.868  18.422  27.113  0.1447  0.1788 -0.1179
22192W        W65104  27.485  20.182  27.054  0.0305 -0.1782 -0.0447
22193W        W65105  28.782  17.348  25.738  0.1689  0.0466 -0.1247
22194W        W65106  25.357  15.197  27.368  0.3455  0.0471  0.3679
22195W        W65107  25.714  17.744  24.797  0.2676  0.0952 -0.0670
22196W        W65108  26.830  16.585  24.759 -0.1170 -0.0123 -0.2355
22197W        W65109  28.202  16.228  26.114  0.3367 -0.3774  0.0276
22198W        W65110  26.965  15.845  26.706 -0.0765 -0.0839 -0.1148
22199W        W65111  26.277  12.642  23.571 -0.4384 -0.1344 -0.1725
22200W        W65112  27.140  17.573  26.685 -0.1681  0.1979  0.0893
22201W        W65113  28.241  16.983  27.253 -0.0740 -0.2472  0.0348
22202W        W65114  26.550  17.455  31.342  0.3012 -0.0770  0.2252
22203W        W65115  26.268  16.025  27.844 -0.0938  0.0711  0.1978
22204W        W65116  28.736  14.956  28.552  0.1803  0.1414  0.0106
22205W        W65117  29.244  16.765  29.031 -0.0862  0.1367  0.1377
22206W        W65118  25.521  15.499  28.139 -0.0160  0.1540  0.0849
22207W        W65119  27.767  17.911  28.487  0.0429  0.1917  0.0974
22208W        W65120  25.889  15.565  31.274 -0.1825  0.1240 -0.2828
22209W        W65121  27.146  17.736  29.751  0.2933  0.2207  0.2932
22210W        W65122  28.166  17.714  30.033 -0.0242 -0.0825 -0.1221
22211W        W65123  29.776  15.780  27.751  0.1093 -0.0379 -0.0123
22212W        W65124  26.538  15.813  29.822 -0.2150 -0.0232 -0.0997
22213W        W65125  26.498  16.922  30.837  0.0832 -0.1908 -0.2942
22214W        W65126  26.832  15.761  28.053 -0.2401 -0.0561  0.0076
22215W        W65127  24.110  13.276  29.730 -0.1018 -0.2978 -0.1060
22216W        W65128  27.611  16.936  30.095 -0.0196 -0.2274  0.0865
22217W        W65129  24.976  15.546  28.852  0.2833  0.1733  0.0779
22218W        W65130  26.715  16.045  30.804  0.3120  0.0018  0.0983
22219W        W65131  27.401  16.170  29.013  0.2070 -0.0561 -0.2307
22220W        W65132  27.181  19.090  29.580 -0.0319 -0.0426  0.4700
22221W        W65133  26.866  14.638  30.191 -0.1018 -0.1791 -0.3707
22222W        W65134  27.871  14.160  31.934 -0.0611 -0.1720 -0.1105
22223W        W65135  27.036  16.569  28.798  0.0764  0.0175 -0.1395
22224W        W65136  26.682  15.953  27.524 -0.0330  0.1609  0.0965
22225W        W65137  25.995  14.395  29.946  0.1790 -0.1930 -0.2047
22226W        W65138  26.067  16.390  29.120  0.0318 -0.0682  0.1470
22227W        W65139  28.823  15.248  31.196  0.0530  0.5750  0.1269
22228W        W65140  27.582  15.682  28.841 -0.1592  0.0261 -0.1235
22229W        W65141  27.301  17.224  29.619 -0.2160 -0.1848  0.2603
22230W        W65142  27.043  19.939  30.774  0.1642  0.1468 -0.3446
22231W        W65143  27.376  15.310  29.653  0.3388 -0.0910 -0.1109
22232W        W65144  25.273  16.231  28.333  0.3122 -0.1793  0.2863
22233W        W65145  25.530  17.704  28.160  0.3923  0.0195  0.0256
22234W        W65146  27.235  18.462  29.094  0.0962  0.1594  0.0097
22235W        W65147  28.049  17.490  28.579 -0.1926 -0.0489 -0.0715
22236W        W65148  28.483  17.317  31.493 -0.1394 -0.0993 -0.2756
22237W        W65149  26.859  18.201  30.378  0.2209 -0.0825  0.0008
22238W        W65150  25.277  17.735  27.235  0.0386 -0.1394  0.0286
22239W        W65151  26.818  16.922  29.125  0.2977  0.2107  0.1714
22240W        W65152  27.026  17.866  30.707  0.0517  0.1333  0.0153
22241W        W65153  26.736  17.031  30.287  0.0716 -0.0928  0.0437
22242W        W65154  25.985  15.112  29.166 -0.1252  0.0621  0.1800
22243W        W65155  26.207  19.599  28.221 -0.1894  0.0915 -0.3432
22244W        W65156  26.623  15.842  29.197 -0.1904 -0.2303  0.1923
22245W        W65157  26.897  17.210  31.743  0.1135  0.0740 -0.1860
22246W        W65158  26.232  17.627  30.036 -0.3213 -0.1864 -0.1452
22247W        W65159  29.935  13.651  31.448  0.2279 -0.1402  0.0481
22248W        W65160  25.911  17.206  29.090 -0.0632  0.1314 -0.0662
22249W        W65161  27.603  14.838  28.096  0.0303  0.3774 -0.1015
22250W        W65162  26.799  16.771  27.779 -0.2173 -0.1363 -0.0570
22251W        W65163  28.589  14.902  27.614  0.2400  0.4486 -0.1362
22252W        W65164  25.943  14.606  28.371  0.1547  0.0753  0.0549
22253W        W65165  26.965  18.267  29.695  0.0652  0.2046 -0.1020
22254W        W65166  25.974  15.219  29.670  0.0472  0.0279 -0.0662
22255W        W65167  28.534  15.528  30.778 -0.0580  0.1643  0.0017
22256W        W65168  28.475  15.449  27.837  0.1239  0.0763 -0.0714
22257W        W65169  26.917  15.516  29.380 -0.1714  0.1841  0.0594
22258W        W65170  25.928  18.512  28.866 -0.1079 -0.1600 -0.1966
22259W        W65171  27.691  15.833  29.307 -0.0015 -0.3722  0.2111
22260W        W65172  28.558  17.332  29.268  0.1325  0.0533 -0.1050
22261W        W65173  29.934  19.064  28.746 -0.1220 -0.0092 -0.2866
22262W        W65174  27.353  18.359  27.148 -0.0950 -0.2324 -0.0262
22263W        W65175  25.245  16.424  28.846 -0.0412  0.0917 -0.1791
22264W        W65176  25.768  16.890  31.426 -0.1968  0.2077 -0.2209
22265W        W65177  26.519  15.133  31.669 -0.0871  0.1079  0.0460
22266W        W65178  27.239  14.778  26.379 -0.2397  0.1790  0.0375
22267W        W65179  30.586  17.860  31.675 -0.1251 -0.0610  0.2477
22268W        W65180  25.214  18.091  31.241 -0.3030  0.1351 -0.0746
22269W        W65181  27.690  14.794  29.792  0.3107 -0.2668 -0.2435
22270W        W65182  25.912  15.770  29.743 -0.0712 -0.0564 -0.1371
22271W        W65183  28.384  16.502  29.753  0.1422  0.0434 -0.2941
22272W        W65184  27.148  17.534  28.893  0.0816 -0.0424  0.1845
22273W        W65185  27.870  13.848  30.409  0.2607 -0.1843 -0.2217
22274W        W65186  28.506  15.246   0.012  0.2678 -0.1436 -0.4045
22275W        W65187  27.805  18.529  27.408 -0.0834 -0.2538  0.4579
22276W        W65188  26.089  17.793  28.267  0.2904  0.1345  0.1577
22277W        W65189  28.105  17.797  31.074 -0.1038 -0.0467  0.0339
22278W        W65190  29.925  15.173  28.644  0.2209  0.2998 -0.3831
22279W        W65191  27.488  17.993  28.903  0.0727  0.1838  0.2407
22280W        W65192  26.922  16.876   0.176  0.1827  0.2873  0.1502
22281W        W65193  26.887  16.977  29.594  0.1329  0.0230  0.3309
22282W        W65194  27.437  17.404  27.900  0.0702  0.2005 -0.0673
22283W        W65195  25.348  16.351  29.843 -0.1002 -0.0791 -0.3207
22284W        W65196  26.854  16.257  27.940  0.1447 -0.3470 -0.0825
22285W        W65197  25.489  15.341  30.686 -0.0621 -0.1122  0.0201
22286W        W65198  26.386  16.744  29.536  0.3605 -0.0226 -0.0444
22287W        W65199  28.793  15.639  29.936  0.1502 -0.0314 -0.3664
22288W        W65200  25.551  14.872  30.872 -0.0243 -0.3495  0.0830
22289W        W65201  27.357  14.322  31.123  0.2528  0.0962  0.1305
22290W        W65202  24.468  15.764  27.808  0.2372 -0.2022  0.0509
22291W        W65203  28.618  18.370  28.457  0.2764  0.3957  0.2242
22292W        W65204  27.917  14.874  29.170  0.0269 -0.1242  0.3114
22293W        W65205  27.974  16.537  28.385  0.2873 -0.1779  0.0501
22294W        W65206  25.777  16.458  30.775  0.0568 -0.1602  0.2133
22295W        W65207  26.051  16.042  28.342  0.1167 -0.1311  0.1120
22296W        W65208  25.017  14.902  30.697 -0.0295 -0.2214 -0.3143
22297W        W65209  26.476  14.618  28.293 -0.2094 -0.1356 -0.0563
22298W        W65210  28.023  16.797  30.750 -0.2585  0.4220 -0.1622
22299W        W65211  25.234  13.937  29.618  0.1154 -0.0638 -0.1787
22300W        W65212  28.076  14.073  27.823 -0.0326  0.1134 -0.0732
22301W        W65213  26.629  15.355  28.934  0.2408 -0.3534  0.3484
22302W        W65214  25.587  16.469  28.001 -0.3698  0.1089  0.0778
22303W        W65215  28.231  12.449  29.839  0.0846 -0.3119 -0.0082
22304W        W65216  27.350  18.698  26.780 -0.2502 -0.1543 -0.0008
22305W        W65217  27.482  18.693  30.727  0.3751 -0.1103 -0.1213
22306W        W65218  28.673  17.947  29.772 -0.1164 -0.0497  0.1613
22307W        W65219  27.050  15.378  31.481 -0.0553 -0.4605 -0.1277
22308W        W65220  25.394  15.344  28.739 -0.0279  0.3009  0.2896
22309W        W65221  24.278  18.387  29.210  0.0282 -0.0108  0.1078
22310W        W65222  25.953  17.333  29.625  0.1139  0.3366  0.0677
22311W        W65223  25.728  15.521  27.676 -0.1978  0.0477  0.1372
22312W        W65224  29.026  18.060  28.443 -0.0039  0.1409  0.0983
22313W        W65225  27.163  16.288  29.860  0.2977  0.1795  0.0320
22314W        W65226  26.665  17.671  30.287 -0.2346 -0.4549 -0.1029
22315W        W65227  27.913  16.153  31.773  0.0106 -0.0405 -0.1185
22316W        W65228  30.106  15.316  30.212  0.2884 -0.1925  0.3086
22317W        W65229  28.160  16.004  28.395  0.1742 -0.1803  0.0142
22318W        W65230  26.049  13.802  27.727 -0.0705 -0.2268 -0.3822
22319W        W65231  27.297  18.288  28.606 -0.1016 -0.1651  0.0084
22320W        W65232  24.966  17.982  27.800 -0.0623 -0.2292 -0.4215
22321W        W65233  25.274  17.053  28.839 -0.2313  0.1587  0.0364
22322W        W65234  27.168  17.833  30.236 -0.2029  0.0347 -0.3414
22323W        W65235  28.450  14.390  31.017 -0.1325  0.2754 -0.1338
22324W        W65236  25.278  17.728  30.851  0.1898 -0.2688  0.1046
22325W        W65237  27.665  15.786  30.290  0.0982  0.0524 -0.2913
22326W        W65238  24.672  16.053  27.418 -0.0845  0.0165  0.3267
22327W        W65239  26.890  16.533  31.040  0.0543  0.0861 -0.0072
22328W        W65240  28.260  14.308  29.014  0.2321 -0.3755 -0.0503
22329W        W65241  28.589  13.818  28.947 -0.0952 -0.1040  0.1710
22330W        W65242  28.275  15.663  31.745 -0.0543  0.0804  0.3020
22331W        W65243  28.622  17.874  28.116 -0.1669 -0.2974 -0.2086
22332W        W65244  28.124  14.826  27.924  0.1190  0.0724 -0.1305
22333W        W65245  25.760  15.716  28.543 -0.2276 -0.1710 -0.0035
22334W        W65246  25.812  17.431  30.875  0.0560 -0.0348  0.0058
22335W        W65247  25.727  16.758  28.862 -0.0157  0.0978  0.1397
22336W        W65248  26.607  17.360  29.858  0.2209  0.2361  0.2376
22337W        W65249  27.645  15.577  28.171 -0.5222 -0.2405 -0.1093
22338W        W65250  30.084  17.506  27.015  0.1506 -0.1131 -0.1504
22339W        W65251  25.020  15.374  29.917 -0.1095  0.0371 -0.3742
22340W        W65252  27.243  18.019   0.073 -0.2735 -0.0699 -0.0279
22341W        W65253  29.365  15.845  28.028  0.2471  0.2173  0.2367
22342W        W65254  26.691  14.737  31.301  0.0541  0.4762  0.4402
22343W        W65255  26.500  16.124  28.270 -0.0343 -0.1408  0.1270
22344W        W65256  26.799  14.194  29.098  0.0417  0.0455 -0.1849
22345W        W65257  25.809  18.114  27.984 -0.5122 -0.1269 -0.0360
22346W        W65258  28.336  15.152  30.487  0.1707  0.1840  0.0586
22347W        W65259  28.014  15.655  30.013  0.1336  0.1213 -0.0685
22348W        W65260  25.895  13.183  30.866 -0.0551  0.1242 -0.2524
22349W        W65261  27.675  14.221  30.741  0.1616  0.1224  0.2121
22350W        W65262  29.331  16.376  28.108  0.2570 -0.0634 -0.1286
22351W        W65263  28.023  16.088  29.733 -0.1739  0.0830  0.2216
22352W        W65264  25.078  14.748  26.743  0.1043  0.2751  0.0050
22353W        W65265  27.457  15.254  31.188 -0.0828 -0.0670 -0.0062
22354W        W65266  26.698  16.512  30.528  0.2125  0.0686 -0.2419
22355W        W65267  25.865  17.119  30.510 -0.1932  0.2829  0.0758
22356W        W65268  29.027  17.882  31.244 -0.0922  0.1121  0.1122
22357W        W65269  29.145  15.890  30.193  0.1653  0.2674 -0.3344
22358W        W65270  27.501  15.888   0.055  0.0749  0.1586  0.0367
22359W        W65271  28.398  16.320  28.852  0.0392 -0.1735 -0.2037
22360W        W65272  26.678  18.710  27.997 -0.0958 -0.0810  0.1154
22361W        W65273  24.771  17.998  28.345 -0.0363 -0.0616 -0.1970
22362W        W65274  27.200  13.955  29.862 -0.2047 -0.0618 -0.0079
22363W        W65275  27.728  17.151  28.249  0.2914  0.0773  0.2115
22364W        W65276  27.229  17.906  27.588  0.0417 -0.0101 -0.0536
22365W        W65277  27.827  17.309  30.961  0.0837 -0.0086 -0.1524
22366W        W65278  26.710  18.236  27.789  0.0329  0.0206 -0.1005
22367W        W65279  28.290  15.053  30.985 -0.3465 -0.0656  0.1344
22368W        W65280  26.670  17.874  29.518  0.0210  0.0733  0.1638
22369W        W65281  26.343  15.554  27.679  0.0487  0.1645  0.4565
22370W        W65282  25.616  15.599  27.069  0.0789  0.3971 -0.1283
22371W        W65283  28.441  15.552  28.998  0.4195  0.0119  0.3017
22372W        W65284  29.777  17.947  26.929 -0.0321  0.2812 -0.2180
22373W        W65285  26.074  15.685  30.566 -0.2756  0.0304  0.0439
22374W        W65286  26.337  14.250  29.528  0.1673 -0.2342 -0.2132
22375W        W65287  24.809  17.081  29.362 -0.0154  0.0371 -0.2173
22376W        W65288  27.213  15.509  30.317  0.0254  0.0462  0.2132
22377W        W65289  27.953  14.866  28.454 -0.0613 -0.1009  0.1889
22378W        W65290  27.113  17.152  30.015  0.1524  0.0647 -0.1887
22379W        W65291  25.888  16.478   0.206  0.2509  0.2120  0.0333
22380W        W65292  25.672  15.058  28.353 -0.3659 -0.0551  0.0270
22381W        W65293  28.557  14.804  29.973 -0.1064  0.1011 -0.0270
22382W        W65294  26.657  15.309  28.103 -0.1651 -0.1146  0.1951
22383W        W65295  25.560  16.261  29.190  0.1479  0.0259  0.0737
22384W        W65296  26.311  17.786  29.142  0.3568  0.2113 -0.0235
22385W        W65297  26.730  17.356  28.909 -0.1702 -0.0896  0.0520
22386W        W65298  26.356  17.444  28.428  0.2504  0.0301  0.0378
22387W        W65299  27.129  15.840  31.672  0.0848 -0.3412  0.0727
22388W        W65300  28.322  17.227  30.889 -0.1668 -0.0217  0.3416
22389W        W65301  26.320  16.728  30.354  0.0491  0.0493 -0.1312
22390W        W65302  26.085  14.716  29.474  0.1243 -0.2705 -0.0257
22391W        W65303  28.225  17.235  28.224  0.1691  0.0874  0.0794
22392W        W65304  28.994  16.663  31.326  0.1618 -0.1356  0.3590
22393W        W65305  27.160  16.722  30.268  0.1289  0.2435  0.0034
22394W        W65306  25.200  17.388  30.042  0.1824  0.1750  0.0738
22395W        W65307  26.330  14.528  30.388  0.0793  0.0949  0.1358
22396W        W65308  27.246  17.889  27.083 -0.0439  0.0302 -0.0473
22397W        W65309  27.808  17.110  29.598 -0.0317 -0.2027  0.2505
22398W        W65310  26.330  16.546  27.999  0.2702 -0.0241  0.0834
22399W        W65311  25.161  15.900  30.823 -0.2195 -0.2752 -0.1177
22400W        W65312  26.278  18.002  27.840  0.1560  0.1125  0.2256
22401W        W65313  26.693  15.436  30.145 -0.1717 -0.0691  0.2511
22402W        W65314  26.928  17.457  29.348  0.1293 -0.0185  0.1189
22403W        W65315  25.535  17.261  28.434 -0.1336  0.4025 -0.1667
22404W        W65316  25.737  17.463  31.388 -0.2596  0.2544  0.1686
22405W        W65317  28.928  15.561  30.457 -0.1579  0.1419  0.1583
22406W        W65318  26.165  16.587  28.593 -0.2845  0.1129  0.2500
22407W        W65319  26.884  14.593  29.388  0.1158 -0.2014  0.0781
22408W        W65320  29.935  14.479  31.345  0.1824 -0.1517  0.2059
22409W        W65321  27.544  16.847  28.660 -0.0295  0.2963  0.0358
22410W        W65322  29.099  14.643  30.813  0.0982  0.0741  0.0008
22411W        W65323  25.504  15.314  29.811 -0.0544 -0.2715  0.0780
22412W        W65324  28.977  18.494  28.934 -0.0459  0.2513  0.1374
22413W        W65325  25.102  15.667  30.406  0.0490  0.0062  0.1331
22414W        W65326  28.413  16.774   1.048  0.2729 -0.0197  0.1672
22415W        W65327  25.450  16.873   0.823 -0.0315  0.2174 -0.2839
22416W        W65328  28.281  16.870  27.789  0.3778  0.2400  0.2199
22417W        W65329  25.638  15.945  27.945  0.0520 -0.0323  0.0350
22418W        W65330  27.430  18.167  29.834  0.2618 -0.0548 -0.6616
22419W        W65331  28.620  17.449  29.724  0.0392 -0.0840  0.1669
22420W        W65332  26.753  18.265  29.238  0.3548 -0.0306  0.1518
22421W        W65333  28.859  16.080  27.896  0.0985 -0.0142  0.1010
22422W        W65334  27.558  15.826  29.801 -0.1318  0.4652 -0.2226
22423W        W65335  29.219  15.931  29.663 -0.1408 -0.1736  0.0206
22424W        W65336  26.373  15.525  29.479 -0.0066 -0.1201  0.1988
22425W        W65337  25.851  16.798  29.414  0.3713 -0.0946  0.1833
22426W        W65338  27.365  15.735  31.268 -0.1097  0.1453 -0.0986
22427W        W65339  27.152  16.480  29.332  0.1977  0.1327 -0.0768
22428W        W65340  28.051  15.922  28.963 -0.1277  0.2285  0.1688
22429W        W65341  27.059  15.040  29.273 -0.2809  0.1170 -0.2607
22430W        W65342  28.064  14.649  30.768 -0.0239 -0.3330  0.1785
22431W        W65343  26.323  15.363  31.209 -0.2266 -0.1310 -0.2971
22432W        W65344  25.080  15.331  30.879  0.2842  0.0103 -0.1304
22433W        W65345  28.847  18.266  30.142 -0.0535  0.1538  0.1416
22434W        W65346  30.508  15.946  27.708 -0.1578  0.0420  0.0956
22435W        W65347  29.779  15.179  31.793 -0.0137 -0.0333 -0.0203
22436W        W65348  28.303  15.123  28.811 -0.0049  0.0696 -0.2528
22437W        W65349  27.671  16.109  28.493  0.0433 -0.0798  0.1187
22438W        W65350  26.246  16.056  29.449 -0.2857  0.3467 -0.1739
22439W        W65351  29.684  15.316  31.012  0.1368 -0.0655  0.2333
22440W        W65352  25.979  13.376  27.195  0.3531 -0.2382 -0.1024
22441W        W65353  27.615  14.735  30.913 -0.0774  0.2694  0.2098
22442W        W65354  28.298  17.569  27.876 -0.0126 -0.0848 -0.1254
22443W        W65355  28.300  16.806  29.014 -0.2040  0.1132  0.1513
22444W        W65356  28.510  15.041  27.091 -0.1872  0.1824  0.3513
22445W        W65357  25.386  15.951  29.528  0.4161  0.1167  0.0116
22446W        W65358  25.711  19.132  30.448  0.1707 -0.0023  0.0774
22447W        W65359  24.015  16.027  26.038 -0.0008 -0.0467 -0.1704
22448W        W65360  29.324  15.579  27.532 -0.0849 -0.0259 -0.0534
22449W        W65361  28.342  16.127  30.090  0.1867 -0.1209 -0.2436
22450W        W65362  27.705  17.726  29.663  0.2731  0.1215 -0.1895
22451W        W65363  26.324  14.139  27.265 -0.0825  0.1505 -0.2821
22452W        W65364  29.580  14.840  31.514 -0.0100 -0.0466  0.3243
22453W        W65365  25.582  16.916  27.797 -0.0049 -0.4812 -0.0384
22454W        W65366  28.241  15.699  29.456  0.0069  0.0821 -0.0873
22455W        W65367  26.123  18.382  30.742  0.1177  0.0108 -0.0506
22456W        W65368  25.451  16.610  31.197 -0.0045 -0.2753 -0.3786
22457W        W65369  25.900  17.709  29.328 -0.0595 -0.3110  0.0295
22458W        W65370  27.326  15.133  30.690  0.0930 -0.1397 -0.4814
22459W        W65371  28.565  16.033  29.305 -0.3268 -0.1350 -0.2795
22460W        W65372  27.094  17.050  28.648 -0.3522 -0.4208  0.1669
22461W        W65373  28.431  16.453  30.583  0.0210 -0.0150  0.0806
22462W        W65374  28.555  18.936  30.911 -0.0659 -0.2324  0.0822
22463W        W65375  26.874  15.104  29.747 -0.2169 -0.1144 -0.2937
22464W        W65376  28.002  17.457  31.451 -0.0360 -0.1311 -0.0852
22465W        W65377  28.989  17.164  29.149  0.2001 -0.0007 -0.0581
22466W        W65378  26.285  16.842  29.067 -0.1002  0.1218 -0.1469
22467W        W65379  25.605  15.695  31.737 -0.0249 -0.1043 -0.2058
22468W        W65380  26.724  15.748  31.299  0.0834  0.0262  0.1766
22469W        W65381  26.021  17.114  28.604  0.0437 -0.1252  0.0059
22470W        W65382  27.176  15.990  27.549 -0.0331 -0.0259  0.0792
22471W        W65383  28.336  17.703  29.037 -0.1124 -0.1426  0.2290
22472W        W65384  27.498  18.042  30.731  0.0529 -0.1993 -0.0306
22473W        W65385  25.845  16.692  30.206 -0.0049  0.1311 -0.1417
22474W        W65386  26.207  18.584  28.450  0.0681 -0.3698 -0.0236
22475W        W65387  26.816  16.668  28.314  0.1300 -0.0390  0.1360
22476W        W65388  26.823  17.529  28.457 -0.0374  0.2756 -0.0410
22477W        W65389  29.772  18.374  29.523 -0.3132  0.1735  0.1120
22478W        W65390  26.060  15.189  27.764 -0.2191 -0.1500  0.1913
22479W        W65391  25.689  17.183  30.039  0.0784 -0.1693  0.2941
22480W        W65392  25.021  16.721  27.086  0.1439  0.1370  0.3306
22481W        W65393  28.010  16.959  28.659  0.0640  0.0308  0.3804
22482W        W65394  26.480  17.240  29.375 -0.1121  0.2054 -0.1122
22483W        W65395  29.365  17.578  31.567 -0.0650  0.0067 -0.1063
22484W        W65396  29.804  15.513  28.219 -0.0309 -0.1992 -0.2870
22485W        W65397  27.717  17.997  30.234  0.2167 -0.0374  0.1051
22486W        W65398  27.366  16.730  29.660  0.0541  0.1927 -0.1634
22487W        W65399  27.352  17.069   0.422  0.1130 -0.2213 -0.0226
22488W        W65400  27.583  16.325  29.467 -0.0786  0.0030  0.3288
22489W        W65401  27.092  15.595  28.400 -0.0340  0.1191 -0.1187
22490W        W65402  25.111  15.945  31.746 -0.4028  0.0056 -0.1823
22491W        W65403  28.840  15.476  31.726  0.1576 -0.0387 -0.0337
22492W        W65404  25.776  17.816  29.852  0.2883  0.0226 -0.0190
22493W        W65405  29.324  17.232  27.610 -0.3061 -0.2471 -0.0489
22494W        W65406  25.539  15.954  27.476  0.1285 -0.3873 -0.0373
22495W        W65407  26.606  16.437  29.169 -0.3562 -0.2215  0.1221
22496W        W65408  28.783  14.938  31.586 -0.2403 -0.2413 -0.1181
22497W        W65409  26.503  17.838  28.656 -0.0949 -0.1166  0.0245
22498W        W65410  27.955  15.441  29.101 -0.2171 -0.1435 -0.0873
22499W        W65411  26.536  18.319  28.808 -0.0355  0.2004 -0.2246
22500W        W65412  26.903  16.083  30.244  0.2043  0.2128 -0.0477
22501W        W65413  25.776  18.070  29.058  0.0667  0.1746  0.0790
22502W        W65414  25.029  13.902  27.788 -0.0751 -0.3880  0.1259
22503W        W65415  30.369  16.292  27.211 -0.1290 -0.0195  0.1549
22504W        W65416  27.116  16.313   0.037 -0.2625 -0.1635  0.1333
22505W        W65417  28.275  15.995  30.950 -0.0270 -0.2750  0.0393
22506W        W65418  25.890  16.807  28.219 -0.1462 -0.0296 -0.0065
22507W        W65419  28.278  16.358  27.958 -0.0935 -0.1995  0.2006
22508W        W65420  27.275  15.019  30.092  0.3735  0.0985  0.0430
22509W        W65421  26.710  15.531  31.947 -0.0382  0.0011 -0.0749
22510W        W65422  28.667  17.482  28.371  0.0317  0.0931  0.0334
22511W        W65423  28.891  16.811  31.869  0.0526 -0.0988  0.0159
22512W        W65424  29.007  15.800  28.407 -0.1426  0.1954 -0.1877
22513W        W65425  27.181  16.106  31.044  0.1096  0.0141 -0.5061
22514W        W65426  26.521  14.120  28.158 -0.5041 -0.3660  0.1381
22515W        W65427  29.385  14.458  26.729  0.2506  0.0248  0.0051
22516W        W65428  26.017  15.259  28.690 -0.3803 -0.1067 -0.0765
22517W        W65429  26.331  16.458  30.832  0.3318 -0.0035  0.1228
22518W        W65430  28.073  18.451  31.592  0.0515  0.0350 -0.1850
22519W        W65431  26.472  16.185  28.752 -0.0255 -0.0693  0.0134
22520W        W65432  28.194  19.032  26.836  0.1345  0.2159  0.2573
22521W        W65433  28.062  15.678  30.588 -0.2033 -0.1415 -0.1036
22522W        W65434  27.135  19.236  27.485 -0.2576  0.1408  0.2630
22523W        W65435  28.554  16.288  28.344  0.1747 -0.1035 -0.2344
22524W        W65436  28.856  16.942  29.606  0.1483  0.1450  0.0371
22525W        W65437  26.368  14.575  29.132  0.0142 -0.0832  0.0233
22526W        W65438  28.139  17.460  29.498  0.0087  0.0119 -0.1935
22527W        W65439  28.830  18.491  30.970  0.0498 -0.0245 -0.1375
22528W        W65440  27.553  14.365  28.471  0.0119  0.3185 -0.0883
22529W        W65441  24.981  16.606  29.616 -0.0960  0.0283  0.0075
22530W        W65442  25.866  18.188  28.502 -0.0167 -0.1533  0.1087
22531W        W65443  28.135  14.792  29.697 -0.0441 -0.4651  0.0904
22532W        W65444  28.088  14.634  30.113 -0.1053 -0.6251  0.0656
22533W        W65445  28.080  17.855  27.036  0.0025 -0.1339  0.0173
22534W        W65446  29.547  14.693  30.504  0.1626  0.2580  0.1217
22535W        W65447  27.549  17.479  30.045 -0.0425 -0.0676  0.1037
22536W        W65448  27.939  18.726  31.092 -0.1320  0.1410  0.0713
22537W        W65449  26.959  17.703  27.992  0.0234 -0.0600  0.1584
22538W        W65450  26.694  16.671  31.716 -0.3485  0.0861 -0.0406
22539W        W65451  25.701  16.209  28.639  0.0486  0.1274 -0.0447
22540W        W65452  27.611  17.353  28.793 -0.0260  0.1326 -0.0145
22541W        W65453  27.773  18.948  29.324  0.4315 -0.0222 -0.0411
22542W        W65454  27.311  15.904  28.030 -0.1683  0.1129 -0.5309
22543W        W65455  29.118  18.036  28.944 -0.1495 -0.0654  0.0514
22544W        W65456  27.351  14.809  28.834  0.1685 -0.1277  0.2302
22545W        W65457  28.428  14.365  29.540  0.0490  0.2022  0.2936
22546W        W65458  28.889  14.653  29.565  0.1944  0.2286 -0.2637
22547W        W65459  27.916  16.609  29.741  0.1393  0.0081 -0.0603
22548W        W65460  24.671  14.200  27.473 -0.0841 -0.1403 -0.3995
22549W        W65461  27.147  15.176  27.158 -0.2110  0.1053  0.0201
22550W        W65462  25.011  17.496  29.173  0.3153  0.0013 -0.0659
22551W        W65463  26.689  13.705  30.379 -0.1127  0.2598 -0.0388
22552W        W65464  25.240  16.421  31.652  0.0609 -0.1539 -0.2357
22553W        W65465  26.494  15.824  30.384  0.0123  0.1269 -0.1336
22554W        W65466  26.561  15.686  28.475  0.1838  0.0593  0.0474
22555W        W65467  28.647  18.086  27.627  0.1842  0.1446  0.0270
22556W        W65468  25.423  13.450  29.709 -0.5309 -0.2254 -0.1009
22557W        W65469  25.737  16.130  30.089 -0.0083 -0.4028 -0.1784
22558W        W65470  27.805  17.646  28.030 -0.0601  0.1330 -0.1624
22559W        W65471  28.627  18.075  28.946  0.1611  0.0019  0.1705
22560W        W65472  27.002  16.128  28.472 -0.0543  0.0829  0.2705
22561W        W65473  27.625  17.728  31.081 -0.1338 -0.0399  0.0529
22562W        W65474  26.441  18.037  27.214  0.1883 -0.0753 -0.1199
22563W        W65475  26.294  15.819  31.460  0.2649  0.3078 -0.1307
22564W        W65476  25.441  16.033  30.466 -0.0193 -0.0365  0.3971
22565W        W65477  25.204  15.131  28.276  0.2351 -0.1450  0.0415
22566W        W65478  28.813  15.142  29.604  0.0784  0.0708  0.0800
22567W        W65479  28.499  18.358  29.360  0.0871  0.3465 -0.2302
22568W        W65480  27.516  18.830  27.913  0.2450 -0.1603  0.1719
22569W        W65481  27.086  15.700  29.851 -0.1091 -0.2665 -0.0624
22570W        W65482  27.008  16.887  30.728 -0.0824 -0.1161 -0.0491
22571W        W65483  24.811  15.244  30.399  0.0941 -0.4580  0.0803
22572W        W65484  28.677  15.452  28.496  0.1150  0.5314  0.1004
22573W        W65485  27.774  19.461  30.937  0.1563  0.0589  0.0560
22574W        W65486  28.808  17.551  28.867 -0.2692  0.0325 -0.1390
22575W        W65487  29.284  15.087  28.827 -0.1951 -0.1731 -0.0230
22576W        W65488  29.174  16.197  28.614  0.1305  0.1841 -0.1259
22577W        W65489  24.096  16.432   0.324  0.1417  0.1232 -0.1035
22578W        W65490  26.643  18.138  30.929 -0.0788 -0.1273  0.0023
22579W        W65491  28.563  16.868  30.025  0.1312 -0.0418  0.2324
22580W        W65492  26.095  13.873  29.756 -0.1063 -0.0506  0.1221
22581W        W65493  28.833  15.642  29.317 -0.0150  0.1027 -0.0467
22582W        W65494  28.839  17.799  29.316 -0.0914 -0.0093  0.0786
22583W        W65495  26.670  16.253  29.605 -0.1407 -0.1597 -0.0607
22584W        W65496  27.658  15.208  28.626  0.1597 -0.0079 -0.1007
22585W        W65497  26.596  15.570  30.876  0.0069  0.1224 -0.2607
22586W        W65498  25.492  17.503  29.008 -0.1550 -0.0194 -0.0509
22587W        W65499  27.675  16.265  30.033 -0.5362  0.1281 -0.0830
22588W        W65500  25.435  16.747  28.473 -0.0870  0.1624 -0.0865
22589W        W65501  29.174  18.224  27.573  0.0341 -0.0031 -0.5088
22590W        W65502  26.961  19.459  30.641 -0.1141  0.1605  0.4816
22591W        W65503  29.004  17.227  31.380  0.1468  0.1509 -0.0084
22592W        W65504  28.025  17.960  31.595  0.0271  0.0582 -0.0073
22593W        W65505  27.936  17.181  30.398  0.0681  0.0593 -0.2168
22594W        W65506  26.212  14.933  30.080 -0.1203 -0.0570 -0.3347
22595W        W65507  25.226  15.627  27.716 -0.0128 -0.2054  0.1211
22596W        W65508  25.842  17.623  30.336 -0.0485  0.2898 -0.0359
22597W        W65509  28.694  16.246  30.930 -0.1928 -0.2977  0.3017
22598W        W65510  26.336  16.277  29.973 -0.1243  0.0566  0.1521
22599W        W65511  27.163  15.314  28.857 -0.0479  0.4814 -0.3805
22600W        W65512  27.581  17.583  30.583  0.0416  0.1728  0.1762
22601W        W65513  27.776  16.885  29.126 -0.2031  0.0471 -0.1395
22602W        W65514  30.330  16.005   0.733 -0.3970 -0.2460 -0.2496
22603W        W65515  27.581  15.586  30.751  0.2224 -0.0394 -0.0596
22604W        W65516  26.634  13.977   1.204 -0.2522 -0.1164  0.2520
22605W        W65517  26.409  17.949  31.445 -0.3899  0.1514 -0.2196
22606W        W65518  27.789  17.885   0.133 -0.2868  0.2060  0.1622
22607W        W65519  26.856  18.591  30.041  0.2483 -0.1723  0.5319
22608W        W65520  29.073  15.964  31.428 -0.1565  0.0100 -0.2925
22609W        W65521  27.213  14.665  30.609 -0.1486 -0.0261  0.1137
22610W        W65522  28.972  15.939   0.563  0.2009 -0.3539  0.0370
22611W        W65523  29.499  17.241  30.590  0.0403  0.1451 -0.0590
22612W        W65524  26.539  18.073  29.965 -0.1656 -0.1249  0.3450
22613W        W65525  26.663  14.766  30.764  0.1301  0.0737  0.0218
22614W        W65526  27.503  16.984  30.597 -0.0743 -0.0561  0.0599
22615W        W65527  25.969  15.959  31.933 -0.0209 -0.2888  0.0102
22616W        W65528  28.937  17.230  30.651 -0.1157 -0.2154 -0.1308
22617W        W65529  24.395  18.682  30.363 -0.2753  0.3451 -0.0385
22618W        W65530  24.056  18.478   0.592 -0.2910 -0.0114 -0.3189
22619W        W65531  27.204  16.751  31.531 -0.0773  0.1228  0.2564
22620W        W65532  25.690  14.025  31.853  0.0878 -0.2814  0.1830
22621W        W65533  27.710  14.766  30.412 -0.0909 -0.0414  0.0115
22622W        W65534  25.816  14.640  30.441 -0.1077 -0.0669  0.3161
22623W        W65535  24.072  18.414  31.209 -0.3928  0.3694  0.1391
22624W        W65536  27.846  14.420  31.238 -0.0864  0.1352 -0.3939
22625W        W65537  27.167  16.355  30.603 -0.1141  0.1272 -0.1992
22626W        W65538  27.147  12.999  31.475 -0.1784 -0.0981  0.0111
22627W        W65539  27.952  16.354  30.955  0.0217 -0.1465  0.0441
22628W        W65540  27.593  16.074  30.741 -0.1771  0.2062  0.1074
22629W        W65541  26.222  17.093  30.029  0.1383 -0.0850 -0.0459
22630W        W65542  25.662  15.252  31.762  0.0094  0.0854  0.0308
22631W        W65543  27.179  16.854   1.055 -0.3010 -0.2187 -0.0186
22632W        W65544  27.036  17.384  30.497  0.0704  0.0227 -0.0123
22633W        W65545  25.806  16.003   0.464  0.1426 -0.1348  0.0332
22634W        W65546  27.452  18.420  30.280 -0.1056 -0.1627 -0.0548
22635W        W65547  28.849  15.923  31.961  0.0031  0.3386  0.2113
22636W        W65548  25.462  15.316  31.189 -0.1634 -0.2419  0.3622
22637W        W65549  26.415  17.092  31.920 -0.3608  0.1254 -0.2840
22638W        W65550  26.221  17.357   0.374 -0.2134 -0.1165  0.3508
22639W        W65551  26.736  17.870   0.327  0.0972  0.0306  0.1502
22640W        W65552  29.210  16.291  31.022 -0.2650 -0.0676  0.3237
22641W        W65553  28.417  16.607  31.100  0.0371 -0.0964  0.3556
22642W        W65554  29.569  16.090  31.381  0.1292  0.0273  0.0974
22643W        W65555  27.470  16.590  31.000  0.0060 -0.0612 -0.0787
22644W        W65556  25.485  14.880  31.395  0.3004  0.0897 -0.0337
22645W        W65557  28.318  17.634  31.877  0.0772 -0.0818  0.1177
22646W        W65558  27.497  14.300  31.620 -0.0744  0.1740 -0.0102
22647W        W65559  25.658  18.715   0.607  0.2225 -0.0438  0.2941
22648W        W65560  27.526  15.367   0.318  0.0277 -0.5540 -0.0670
22649W        W65561  26.435  16.695   0.817  0.0609  0.1428 -0.2383
22650W        W65562  27.871  16.947  31.688  0.1323  0.1840  0.0335
22651W        W65563  24.626  17.526  30.084  0.2135  0.2671 -0.3741
22652W        W65564  27.417  17.052  31.911 -0.1587 -0.1596 -0.1595
22653W        W65565  29.719  16.397   0.115 -0.1624  0.4252  0.0080
22654W        W65566  26.239  15.954  30.988  0.0181  0.0795  0.1491
22655W        W65567  26.901  17.096  31.209  0.1183  0.1601 -0.1547
22656W        W65568  29.651  15.610  31.453  0.3989  0.2494 -0.0026
22657W        W65569  28.131  15.559  31.084 -0.0767  0.0456  0.1766
22658W        W65570  27.808  15.175  30.143 -0.2493  0.0035 -0.0971
22659W        W65571  25.690  18.516  31.649  0.2168  0.1528  0.0317
22660W        W65572  27.327  17.262  31.043 -0.1579 -0.2964  0.3482
22661W        W65573  26.312  16.291  31.712 -0.2521  0.2371 -0.0984
22662W        W65574  25.432  16.103   0.137 -0.2007  0.0198  0.2347
22663W        W65575  25.635  17.872  31.092 -0.0404  0.3480 -0.2637
22664W        W65576  24.997  14.933  31.313  0.2072  0.3335 -0.1329
22665W        W65577  24.741  15.179  31.775 -0.2145 -0.0159  0.0944
22666W        W65578  28.683  17.276   0.029 -0.0287 -0.2363  0.1110
22667W        W65579  29.714  17.120  31.001  0.0546  0.0789  0.1291
22668W        W65580  29.565  17.277   0.429 -0.1493 -0.0044  0.0392
22669W        W65581  27.491  19.925  18.666 -0.3053 -0.1411  0.0582
22670W        W65582  25.448  19.961  18.043 -0.1297  0.0057 -0.0911
22671W        W65583  28.278  18.666  16.601  0.0974  0.1640 -0.3011
22672W        W65584  28.844  20.968  17.140  0.2417 -0.0219 -0.4636
22673W        W65585  24.432  18.948  17.333 -0.1054 -0.0693 -0.1105
22674W        W65586  28.116  22.597  17.266 -0.0084  0.0697  0.0685
22675W        W65587  27.726  20.006  19.781  0.0320  0.1640  0.0141
22676W        W65588  27.727  21.123  18.178 -0.0233  0.0684  0.1452
22677W        W65589  29.320  21.303  19.514 -0.0343 -0.0826  0.1707
22678W        W65590  26.365  19.841  16.082  0.4143 -0.2052 -0.1186
22679W        W65591  26.954  18.623  18.858 -0.0574  0.1749 -0.1719
22680W        W65592  25.798  22.038  19.436 -0.1153 -0.1361  0.0377
22681W        W65593  25.412  18.456  17.079 -0.0589  0.0540 -0.4133
22682W        W65594  26.047  18.775  17.779 -0.1526 -0.3701  0.0529
22683W        W65595  29.154  20.179  18.550 -0.0474  0.3495 -0.3851
22684W        W65596  26.237  21.349  16.647  0.1709  0.0306  0.1093
22685W        W65597  25.890  19.638  18.820 -0.3186  0.0727 -0.0809
22686W        W65598  26.995  19.385  17.171 -0.0003 -0.0442 -0.1046
22687W        W65599  27.214  22.891  15.946 -0.0336  0.5793  0.0563
22688W        W65600  26.848  18.786  18.290 -0.1475 -0.1758 -0.4102
22689W        W65601  29.260  18.169  19.720 -0.2948 -0.0529  0.1209
22690W        W65602  26.361  20.814  16.459 -0.1903  0.2120 -0.2092
22691W        W65603  24.881  19.049  17.674 -0.0061 -0.1880 -0.4122
22692W        W65604  25.858  19.395  20.389 -0.2392 -0.1616  0.1508
22693W        W65605  27.183  20.385  19.146  0.1724  0.1212 -0.1899
22694W        W65606  28.163  19.998  18.617  0.1391  0.2029  0.0752
22695W        W65607  28.086  21.408  17.115  0.0034 -0.0498 -0.4497
22696W        W65608  27.864  21.870  16.966 -0.2688  0.0451  0.2344
22697W        W65609  27.634  21.534  17.855 -0.0844  0.0791  0.1056
22698W        W65610  28.585  18.069  19.981  0.0414 -0.3704 -0.2102
22699W        W65611  25.397  21.173  18.306 -0.0595  0.1811 -0.1600
22700W        W65612  25.142  21.575  17.116 -0.3089  0.0107 -0.0644
22701W        W65613  25.060  20.033  16.593  0.1043 -0.0197 -0.0416
22702W        W65614  28.658  21.481  18.201 -0.1585 -0.1600 -0.0620
22703W        W65615  28.178  23.234  19.234 -0.0786 -0.1425 -0.2148
22704W        W65616  27.092  22.765  20.589 -0.0490 -0.2394 -0.0133
22705W        W65617  25.140  20.969  16.078 -0.2464  0.1418 -0.2470
22706W        W65618  26.982  21.964  20.011 -0.0324 -0.1962  0.2953
22707W        W65619  27.786  21.282  20.588 -0.0806 -0.1559  0.1795
22708W        W65620  27.429  19.722  17.286  0.3275  0.0570 -0.1551
22709W        W65621  26.121  20.125  18.267 -0.1552  0.2859  0.2401
22710W        W65622  26.949  20.090  17.565  0.2938 -0.1719  0.0747
22711W        W65623  27.659  20.603  18.160 -0.3670 -0.0887 -0.0826
22712W        W65624  26.539  22.416  19.320 -0.1026  0.0326 -0.1078
22713W        W65625  25.915  20.857  18.365 -0.3245 -0.0188 -0.0930
22714W        W65626  29.217  19.473  19.932  0.0349 -0.1934 -0.1420
22715W        W65627  26.102  21.310  15.987  0.1343 -0.0656 -0.0807
22716W        W65628  26.451  19.996  16.721  0.1583  0.1951  0.5148
22717W        W65629  26.936  20.017  16.011 -0.0720 -0.0016  0.2810
22718W        W65630  28.202  18.971  17.426  0.1394  0.2410 -0.1357
22719W        W65631  26.506  19.523  17.948 -0.1107 -0.1689  0.0589
22720W        W65632  25.837  21.848  18.108 -0.0754 -0.1632 -0.1220
22721W        W65633  25.989  19.217  18.507  0.0093 -0.0754  0.0668
22722W        W65634  28.399  19.784  17.476  0.3282 -0.2027 -0.1761
22723W        W65635  27.257  21.061  16.931 -0.2459  0.1622  0.0219
22724W        W65636  27.736  20.042  16.921 -0.3917  0.0958  0.3412
22725W        W65637  26.447  21.453  18.563  0.0766 -0.3680 -0.1547
22726W        W65638  24.323  20.381  17.839 -0.0744 -0.2025  0.2963
22727W        W65639  26.325  20.840  15.911 -0.2424 -0.1189 -0.1061
22728W        W65640  28.606  22.361  17.322 -0.0828  0.1269 -0.1971
22729W        W65641  26.148  22.171  16.629  0.0369 -0.1775  0.1884
22730W        W65642  26.233  19.516  16.549  0.1013 -0.1940  0.2116
22731W        W65643  26.097  20.427  19.284 -0.1207  0.1443  0.3256
22732W        W65644  26.098  20.899  19.267  0.4814  0.2116 -0.0152
22733W        W65645  26.606  19.309  16.877  0.0884  0.0181  0.2493
22734W        W65646  29.993  20.474  17.981  0.5140  0.1339 -0.0578
22735W        W65647  24.823  23.168  19.208 -0.1629 -0.0122 -0.0405
22736W        W65648  29.143  19.668  18.796  0.4314  0.0237  0.0470
22737W        W65649  26.331  20.977  18.140  0.1273 -0.1238 -0.0081
22738W        W65650  28.324  21.175  18.657  0.2146  0.2688  0.1284
22739W        W65651  27.761  19.817  16.438 -0.1364  0.2109  0.0242
22740W        W65652  27.318  18.994  18.509 -0.0392 -0.0670  0.1235
22741W        W65653  27.461  18.653  18.787 -0.1536 -0.2970  0.0746
22742W        W65654  25.651  20.185  15.971 -0.1247 -0.0410  0.0951
22743W        W65655  27.217  20.135  17.082 -0.0713 -0.0813  0.0974
22744W        W65656  28.367  21.285  19.214 -0.0445 -0.2713 -0.1838
22745W        W65657  27.954  19.061  18.414 -0.2317  0.2923 -0.4664
22746W        W65658  26.573  21.654  19.396 -0.0268  0.1986  0.1833
22747W        W65659  28.230  17.818  20.404  0.0889  0.2847  0.0030
22748W        W65660  28.169  20.852  19.064  0.1653  0.3377 -0.0825
22749W        W65661  28.107  22.966  16.849  0.3066 -0.0178  0.3105
22750W        W65662  25.220  20.739  19.356 -0.2438 -0.2009  0.2447
22751W        W65663  25.609  20.452  16.383 -0.2359  0.1599 -0.1305
22752W        W65664  25.416  19.606  20.425  0.0889 -0.0365 -0.1846
22753W        W65665  27.409  21.529  20.139  0.0469 -0.1262  0.2220
22754W        W65666  27.640  19.126  18.053  0.2805  0.0816  0.0096
22755W        W65667  26.704  18.790  20.038  0.2269 -0.2183  0.0851
22756W        W65668  28.058  18.193  17.917  0.1386  0.2492  0.0146
22757W        W65669  26.620  20.244  19.156 -0.0441 -0.2310 -0.0179
22758W        W65670  28.618  21.130  17.818 -0.1019 -0.3258  0.0260
22759W        W65671  28.229  19.845  18.068  0.1720  0.1054  0.0480
22760W        W65672  26.814  20.637  15.865 -0.0765 -0.0513  0.1340
22761W        W65673  24.990  19.849  20.570 -0.1272  0.0399  0.3061
22762W        W65674  25.611  18.482  17.568 -0.0006  0.2032  0.1807
22763W        W65675  27.947  19.636  20.112  0.0313  0.2456  0.4591
22764W        W65676  25.484  18.271  19.601  0.1773  0.0131 -0.0296
22765W        W65677  27.854  19.750  19.060  0.1656  0.2018 -0.1178
22766W        W65678  25.002  19.035  16.562  0.0150  0.1058 -0.0950
22767W        W65679  28.198  20.738  17.911 -0.0446 -0.1067 -0.0659
22768W        W65680  26.646  20.319  18.254 -0.2379 -0.0900  0.2878
22769W        W65681  25.543  19.958  17.263 -0.1418 -0.2029  0.0103
22770W        W65682  28.666  17.169  19.833 -0.2146 -0.3608 -0.0245
22771W        W65683  26.980  21.921  16.491  0.3765  0.0337  0.0837
22772W        W65684  29.686  21.794  19.756 -0.1115  0.0334 -0.0682
22773W        W65685  27.513  23.186  16.820 -0.4189 -0.0763 -0.0959
22774W        W65686  25.862  18.532  19.791 -0.4244  0.2076 -0.0182
22775W        W65687  25.596  19.060  17.631 -0.2719  0.2204 -0.0892
22776W        W65688  25.737  23.171  18.616  0.0411 -0.2717 -0.2348
22777W        W65689  27.915  21.721  16.491 -0.1561 -0.1231 -0.0299
22778W        W65690  25.704  19.189  16.791  0.0501 -0.2039  0.0286
22779W        W65691  28.702  22.502  17.880 -0.2969  0.0588 -0.1869
22780W        W65692  27.580  20.837  17.719 -0.1800 -0.1685  0.2013
22781W        W65693  26.585  20.745  19.099 -0.0646  0.1770  0.1832
22782W        W65694  27.655  19.568  19.567 -0.0630 -0.2427 -0.2387
22783W        W65695  29.753  21.258  19.745 -0.2115 -0.1334  0.1527
22784W        W65696  27.224  19.079  17.771  0.0591 -0.0693 -0.2151
22785W        W65697  26.169  19.030  16.775  0.0168 -0.1732 -0.1453
22786W        W65698  27.009  22.235  18.177 -0.1264  0.0449  0.0591
22787W        W65699  25.735  21.336  16.763 -0.4314  0.3433 -0.2344
22788W        W65700  24.932  19.426  18.446  0.0914  0.2437  0.2427
22789W        W65701  28.929  21.527  19.698 -0.0807 -0.0596 -0.2106
22790W        W65702  26.998  17.644  18.206 -0.1365 -0.0812  0.0829
22791W        W65703  24.816  21.245  18.349 -0.1967  0.1310 -0.2134
22792W        W65704  26.017  19.858  19.749  0.1025 -0.1806  0.1071
22793W        W65705  25.293  18.949  16.959 -0.1035 -0.3896  0.0459
22794W        W65706  26.635  20.528  20.605 -0.2662 -0.0402  0.1610
22795W        W65707  26.574  20.357  17.739  0.2182  0.0581 -0.2151
22796W        W65708  27.835  18.896  17.032 -0.0872  0.0461  0.1176
22797W        W65709  27.331  21.306  18.878 -0.0584  0.2064  0.0887
22798W        W65710  28.480  20.512  16.399  0.1134 -0.1316  0.1791
22799W        W65711  27.953  19.587  17.604  0.1430  0.1593 -0.2011
22800W        W65712  26.924  20.122  16.583 -0.1782 -0.0136  0.0105
22801W        W65713  25.962  21.296  19.509  0.0986 -0.1946 -0.0463
22802W        W65714  28.771  21.534  18.710 -0.0752  0.1230 -0.1110
22803W        W65715  27.462  21.058  19.317  0.0175 -0.1010  0.0216
22804W        W65716  27.159  19.299  16.497  0.1281 -0.0159  0.2060
22805W        W65717  28.723  20.642  17.969  0.0625  0.1489  0.0207
22806W        W65718  25.964  21.336  18.210 -0.2616  0.2125 -0.0647
22807W        W65719  27.261  20.349  18.486  0.1272  0.0470  0.3156
22808W        W65720  28.757  21.741  17.802  0.1233 -0.4635 -0.1688
22809W        W65721  26.437  19.136  18.329  0.1682  0.1551 -0.3315
22810W        W65722  26.973  18.520  17.685  0.0967 -0.0962  0.0120
22811W        W65723  27.723  19.954  18.239  0.0571 -0.1163  0.1626
22812W        W65724  25.290  22.680  17.793  0.1311  0.3722  0.1386
22813W        W65725  27.866  17.989  17.126  0.2322  0.2476  0.0138
22814W        W65726  27.849  19.504  18.611 -0.0186 -0.2149 -0.0235
22815W        W65727  27.584  17.880  18.128  0.0025  0.4049 -0.1240
22816W        W65728  28.468  19.697  20.204 -0.1516 -0.2161 -0.0077
22817W        W65729  27.347  20.213  18.040  0.0735 -0.0137  0.0786
22818W        W65730  26.875  18.948  17.386  0.1381  0.1329 -0.1084
22819W        W65731  26.580  19.172  16.388 -0.0489 -0.0536 -0.0980
22820W        W65732  26.965  18.413  19.928  0.0780 -0.1156  0.3007
22821W        W65733  26.564  21.163  19.463  0.0750  0.0745 -0.1393
22822W        W65734  26.155  22.417  19.644 -0.1379 -0.0912 -0.2345
22823W        W65735  28.497  22.029  18.961  0.0190  0.0196  0.0205
22824W        W65736  28.143  21.623  18.929  0.1724 -0.1792  0.1996
22825W        W65737  27.778  19.325  20.451 -0.0879  0.0315  0.1349
22826W        W65738  26.410  18.601  16.953 -0.0666  0.0366  0.1683
22827W        W65739  26.564  21.218  16.242  0.0041 -0.1386  0.0229
22828W        W65740  26.002  19.971  16.942  0.1253 -0.2424  0.4617
22829W        W65741  25.646  18.665  18.016 -0.1084  0.0608  0.1799
22830W        W65742  27.270  20.871  18.480  0.1900 -0.1229 -0.0214
22831W        W65743  25.875  20.996  16.374 -0.1857  0.1502  0.1131
22832W        W65744  28.158  20.066  20.022 -0.0577 -0.1585 -0.3418
22833W        W65745  24.816  21.350  16.332 -0.0557 -0.0479 -0.0607
22834W        W65746  29.465  17.465  18.539  0.1226  0.0191  0.1001
22835W        W65747  26.192  21.854  18.434  0.1398  0.2451  0.0762
22836W        W65748  25.461  18.634  15.690 -0.0042  0.0304  0.0570
22837W        W65749  25.961  19.777  17.466 -0.4005  0.0176 -0.0538
22838W        W65750  27.507  19.157  19.350 -0.1598 -0.1130 -0.1380
22839W        W65751  27.605  20.569  15.947 -0.3636 -0.0639 -0.0628
22840W        W65752  26.299  17.917  17.825 -0.1285 -0.0705 -0.3130
22841W        W65753  26.360  19.438  18.897  0.3262  0.2195 -0.0205
22842W        W65754  25.850  20.854  17.316  0.1163 -0.0825 -0.0379
22843W        W65755  28.533  18.774  18.600 -0.2495  0.1866 -0.1325
22844W        W65756  27.794  19.464  17.056 -0.1582  0.0241  0.0914
22845W        W65757  27.009  19.389  19.548 -0.0069 -0.3361  0.0475
22846W        W65758  27.712  20.791  19.814  0.1229  0.0900  0.1368
22847W        W65759  24.804  18.655  16.366 -0.0327  0.0184  0.0666
22848W        W65760  27.729  20.191  19.256 -0.2322 -0.0191  0.0410
22849W        W65761  25.679  19.226  19.058  0.0755  0.3788  0.0119
22850W        W65762  24.837  22.020  17.231  0.2791 -0.3270  0.1378
22851W        W65763  28.713  20.024  18.804  0.2096 -0.0252 -0.0755
22852W        W65764  24.266  20.264  16.773  0.1423  0.2456 -0.3070
22853W        W65765  26.413  20.011  17.388 -0.0962  0.0596 -0.3801
22854W        W65766  26.235  19.948  19.284  0.1523  0.1315  0.0144
22855W        W65767  30.541  18.849  18.499 -0.1036  0.2769 -0.0356
22856W        W65768  26.804  19.814  19.472  0.2872  0.4482  0.0847
22857W        W65769  24.170  18.677  18.009 -0.0396  0.0458  0.1725
22858W        W65770  26.897  20.250  19.624 -0.0302  0.0737 -0.0890
22859W        W65771  27.850  20.331  17.831 -0.0428 -0.0537 -0.2554
22860W        W65772  26.496  20.574  19.563 -0.0833 -0.0997  0.2363
22861W        W65773  26.182  22.124  20.667  0.2170 -0.0282 -0.3352
22862W        W65774  27.802  18.202  18.570 -0.2342 -0.0762 -0.1910
22863W        W65775  28.212  21.324  16.589  0.4036  0.0100  0.3548
22864W        W65776  28.223  20.349  18.230 -0.0752 -0.1245  0.0217
22865W        W65777  26.870  21.313  17.728 -0.0436  0.1679  0.2866
22866W        W65778  25.380  19.343  18.714 -0.0598 -0.0879 -0.1539
22867W        W65779  26.116  20.651  17.752 -0.0753 -0.1323  0.2692
22868W        W65780  24.948  18.887  19.419  0.1164  0.2657 -0.0783
22869W        W65781  26.784  21.405  18.224  0.1341  0.2380 -0.0783
22870W        W65782  26.106  20.401  16.657  0.0140  0.2241  0.0769
22871W        W65783  25.285  22.721  18.580  0.2399 -0.0180  0.1060
22872W        W65784  28.120  17.882  18.354 -0.2296  0.1139  0.2913
22873W        W65785  27.583  20.324  16.500 -0.3276  0.2079 -0.0960
22874W        W65786  26.918  19.326  18.234 -0.0881 -0.1668 -0.0739
22875W        W65787  28.382  18.715  19.971 -0.0086  0.0888 -0.3008
22876W        W65788  27.899  20.048  17.352 -0.0954 -0.0298  0.0627
22877W        W65789  28.870  18.922  19.259  0.4131  0.1593 -0.0332
22878W        W65790  26.581  17.801  18.946 -0.3673  0.2638  0.1709
22879W        W65791  27.459  21.979  17.328 -0.0045 -0.0377 -0.0081
22880W        W65792  25.439  18.613  19.252  0.1621  0.1136 -0.0550
22881W        W65793  28.621  21.873  19.905  0.1695 -0.1403  0.0106
22882W        W65794  25.651  20.233  18.576 -0.3706  0.1924  0.0435
22883W        W65795  26.517  19.514  17.405 -0.1036 -0.0465 -0.2997
22884W        W65796  27.268  18.175  18.975 -0.1303  0.2346 -0.0847
22885W        W65797  26.912  22.039  19.522  0.1789  0.4079  0.0472
22886W        W65798  28.685  20.092  18.325 -0.2476 -0.3445  0.0925
22887W        W65799  27.830  22.358  16.995  0.1332 -0.3737  0.1633
22888W        W65800  27.977  20.910  16.822 -0.0733  0.0496 -0.3546
22889W        W65801  27.239  21.990  20.480  0.2813 -0.0143 -0.1279
22890W        W65802  29.121  21.164  17.940 -0.0746 -0.1060  0.3635
22891W        W65803  25.552  19.731  16.723 -0.2666  0.0597  0.0683
22892W        W65804  27.573  20.704  18.846 -0.0928  0.0551 -0.3061
22893W        W65805  27.509  17.806  19.255 -0.2415 -0.2312  0.1840
22894W        W65806  28.186  21.245  18.107  0.1630 -0.1217  0.1484
22895W        W65807  27.725  17.793  17.706  0.1003  0.0134  0.0339
22896W        W65808  28.494  19.602  18.500 -0.2850  0.1796  0.2592
22897W        W65809  27.184  19.015  18.969 -0.0443 -0.1233 -0.2238
22898W        W65810  28.587  18.896  20.483 -0.1009 -0.2094  0.0766
22899W        W65811  25.180  19.485  20.877  0.4020  0.0951 -0.0980
22900W        W65812  28.238  20.240  19.175  0.1491 -0.1356  0.1353
22901W        W65813  28.008  20.411  16.764  0.0807 -0.0365  0.4635
22902W        W65814  27.005  19.939  18.976 -0.0475  0.1932  0.0749
22903W        W65815  28.585  21.317  16.966  0.2765 -0.1789 -0.0248
22904W        W65816  27.321  19.659  16.768 -0.0968  0.0852  0.0283
22905W        W65817  24.611  19.130  18.698  0.0842  0.0369 -0.1654
22906W        W65818  27.811  21.251  18.716 -0.1611 -0.3515  0.3286
22907W        W65819  26.943  18.957  16.738  0.0172 -0.1049  0.1329
22908W        W65820  28.209  19.200  20.298 -0.0112  0.1135  0.2343
22909W        W65821  27.667  21.718  15.602 -0.4174  0.1516  0.1869
22910W        W65822  27.954  20.802  18.541  0.2139  0.2123 -0.0303
22911W        W65823  26.365  18.843  17.388  0.0332  0.1091 -0.0229
22912W        W65824  24.813  18.510  18.359  0.2212 -0.0107 -0.0925
22913W        W65825  25.359  23.744  18.679  0.0813 -0.0035  0.1822
22914W        W65826  25.238  18.758  17.420 -0.2005  0.3845  0.0594
22915W        W65827  26.604  20.413  16.242  0.1544 -0.2983  0.1554
22916W        W65828  28.724  20.943  18.872 -0.1277  0.3185 -0.0450
22917W        W65829  30.007  20.453  20.066 -0.0647 -0.0001  0.2731
22918W        W65830  27.230  17.432  16.893 -0.2313  0.0854 -0.2223
22919W        W65831  28.025  20.389  19.642  0.0635  0.0914  0.3044
22920W        W65832  25.971  21.354  17.184  0.0004  0.0904  0.3186
22921W        W65833  27.200  19.517  18.658  0.2537 -0.0951 -0.1919
22922W        W65834  26.589  22.374  19.870  0.0309 -0.0857 -0.1774
22923W        W65835  26.059  21.292  20.628 -0.0442  0.3168 -0.0031
22924W        W65836  26.840  21.843  17.069 -0.2751  0.0220  0.0228
22925W        W65837  25.788  19.579  19.400  0.1687  0.2637 -0.1450
22926W        W65838  28.716  20.473  19.067 -0.2156  0.0504  0.1016
22927W        W65839  27.471  21.506  17.143  0.1025 -0.0413  0.1782
22928W        W65840  29.067  20.006  19.698 -0.1548 -0.2283 -0.0409
22929W        W65841  27.919  21.659  18.434 -0.2270  0.0543 -0.1563
22930W        W65842  26.858  20.913  18.094  0.1042 -0.0872  0.1579
22931W        W65843  26.966  22.424  20.316  0.0230 -0.2455 -0.2058
22932W        W65844  29.025  21.296  19.055 -0.0088  0.3784 -0.0204
22933W        W65845  25.984  20.140  17.775 -0.0075 -0.1906 -0.1031
22934W        W65846  25.582  19.571  18.382  0.0131  0.0356  0.1168
22935W        W65847  28.190  21.066  20.089 -0.0435  0.1034  0.1351
22936W        W65848  27.064  20.546  17.835  0.0291 -0.2512  0.0561
22937W        W65849  26.296  18.357  17.482  0.1237 -0.0620 -0.0387
22938W        W65850  27.492  20.794  16.492  0.0601  0.1437  0.2781
22939W        W65851  25.633  22.159  18.931 -0.1372  0.0129 -0.1105
22940W        W65852  25.193  21.500  18.610  0.2262  0.1213 -0.1671
22941W        W65853  26.714  20.954  17.091  0.0620  0.1832 -0.2831
22942W        W65854  26.777  19.861  17.103 -0.1997  0.2091 -0.1449
22943W        W65855  26.975  21.338  17.193  0.0647  0.0392  0.3154
22944W        W65856  26.986  22.220  18.810  0.1017 -0.0855 -0.0040
22945W        W65857  27.037  17.165  18.646  0.1763  0.0534  0.0555
22946W        W65858  24.948  21.161  17.438  0.4168 -0.1255 -0.0151
22947W        W65859  25.341  21.458  16.122 -0.2674 -0.1433 -0.1830
22948W        W65860  27.414  21.440  18.410 -0.1596 -0.1691 -0.2285
22949W        W65861  26.387  21.407  17.861  0.1502 -0.1227 -0.1894
22950W        W65862  28.991  20.524  19.548 -0.0508  0.0204 -0.1709
22951W        W65863  27.586  19.436  16.186 -0.1048  0.2011 -0.0276
22952W        W65864  28.820  19.531  17.538 -0.0510 -0.2260 -0.0370
22953W        W65865  29.486  20.358  17.619 -0.0140 -0.1947 -0.0955
22954W        W65866  27.370  20.480  19.643  0.0360  0.1884 -0.0560
22955W        W65867  26.704  20.974  18.593 -0.0471 -0.0181  0.0766
22956W        W65868  27.235  18.318  16.640 -0.1568  0.3177  0.1155
22957W        W65869  26.356  20.685  20.123  0.2453 -0.0834 -0.0351
22958W        W65870  29.183  18.634  21.152 -0.0395  0.1575  0.0542
22959W        W65871  25.478  23.334  19.058 -0.0175  0.2400 -0.3192
22960W        W65872  27.975  21.227  17.658 -0.1119 -0.3598  0.0432
22961W        W65873  25.756  20.390  18.126  0.1423  0.3203  0.0666
22962W        W65874  26.967  21.803  18.548  0.0165  0.0902 -0.1935
22963W        W65875  29.956  19.015  20.863  0.2154  0.1560 -0.0881
22964W        W65876  25.730  20.786  16.789 -0.1980  0.0424  0.0118
22965W        W65877  27.406  21.708  16.659 -0.0858 -0.1392  0.0181
22966W        W65878  26.498  21.911  18.003 -0.1352 -0.1518 -0.1312
22967W        W65879  27.129  21.755  18.076  0.0328  0.3107  0.1599
22968W        W65880  27.520  21.812  18.766  0.1251  0.1637  0.2268
22969W        W65881  25.338  18.312  18.272  0.2629  0.0826 -0.2765
22970W        W65882  29.120  18.969  16.801  0.3587  0.0915  0.1149
22971W        W65883  27.030  20.926  18.968  0.1854  0.2447 -0.2005
22972W        W65884  29.754  19.539  19.985  0.3821 -0.0195 -0.1276
22973W        W65885  25.947  19.651  17.955 -0.0136  0.0039  0.0691
22974W        W65886  27.898  18.598  18.247  0.2233  0.2458  0.2819
22975W        W65887  26.781  19.961  18.504 -0.2108  0.2036  0.2872
22976W        W65888  26.408  19.652  18.436 -0.2004  0.2693 -0.1772
22977W        W65889  26.354  20.584  17.268  0.1675 -0.1434  0.2266
22978W        W65890  29.062  19.768  18.269 -0.2144  0.0176  0.0234
22979W        W65891  27.164  20.466  16.236  0.0836  0.1965  0.0784
22980W        W65892  27.692  21.877  19.246 -0.0529 -0.4178 -0.3884
22981W        W65893  25.124  18.668  17.921  0.0044  0.3507 -0.2224
22982W        W65894  27.395  18.650  18.142  0.2928 -0.1581  0.0818
22983W        W65895  26.752  19.927  17.973  0.0459 -0.0574 -0.1242
22984W        W65896  26.867  21.396  18.887  0.1018 -0.0890 -0.2296
22985W        W65897  28.391  21.634  20.991 -0.1367  0.0393  0.1496
22986W        W65898  25.833  17.509  17.116 -0.0664 -0.1714  0.1477
22987W        W65899  28.821  20.971  16.198 -0.0913  0.1261  0.1036
22988W        W65900  27.568  19.931  17.718  0.0584 -0.1718 -0.3412
22989W        W65901  26.924  20.838  16.436 -0.0420 -0.1575  0.0672
22990W        W65902  27.322  22.157  16.885 -0.0645 -0.0607 -0.1102
22991W        W65903  27.234  21.636  17.591  0.3282 -0.0072  0.2915
22992W        W65904  25.320  19.438  19.301  0.1365 -0.0303  0.2201
22993W        W65905  28.351  20.218  17.687 -0.2052  0.1012  0.2585
22994W        W65906  29.212  20.269  19.071  0.1487 -0.0701 -0.1420
22995W        W65907  27.795  18.798  17.760 -0.0080 -0.1373  0.1450
22996W        W65908  25.235  19.955  19.383 -0.0157  0.0384  0.0770
22997W        W65909  25.106  19.543  16.857  0.2897 -0.1763 -0.0332
22998W        W65910  28.661  19.608  17.991  0.3174  0.2227 -0.0290
22999W        W65911  27.253  17.431  19.481  0.2254 -0.0988 -0.1018
23000W        W65912  27.288  22.551  16.605 -0.4598  0.0349 -0.3047
23001W        W65913  28.606  18.202  21.298  0.1715  0.1945  0.5491
23002W        W65914  26.828  20.443  18.734 -0.0081  0.0049  0.2250
23003W        W65915  26.857  22.092  20.804  0.1208 -0.0920  0.1416
23004W        W65916  26.167  19.517  17.037 -0.1089  0.3079 -0.0948
23005W        W65917  26.127  20.153  18.780  0.0562  0.0329 -0.2117
23006W        W65918  26.769  21.376  16.663  0.0642  0.2087 -0.0572
23007W        W65919  26.737  20.867  17.604  0.0591  0.0143 -0.0968
23008W        W65920  29.835  22.165  18.488  0.0897 -0.0849  0.0376
23009W        W65921  27.111  21.812  19.106  0.1132  0.0717 -0.3079
23010W        W65922  29.384  20.767  17.177  0.1415 -0.3293  0.0736
23011W        W65923  26.473  18.543  19.608  0.0542  0.0219  0.1010
23012W        W65924  28.527  18.177  17.839 -0.2026 -0.1671  0.0423
23013W        W65925  28.000  18.673  18.751 -0.2696 -0.2883  0.1594
23014W        W65926  26.764  20.982  20.045 -0.4164  0.1722  0.1488
23015W        W65927  25.403  20.661  15.827  0.2141  0.0029 -0.0075
23016W        W65928  24.824  20.966  15.599 -0.2124 -0.1841  0.3661
23017W        W65929  25.672  21.606  18.598 -0.2508  0.0002  0.0057
23018W        W65930  27.296  19.983  19.475  0.0095 -0.2509  0.1548
23019W        W65931  26.343  19.506  19.512 -0.1657 -0.3141 -0.0448
23020W        W65932  27.279  21.136  19.815  0.1551 -0.1121  0.2105
23021W        W65933  24.984  18.125  16.900  0.1773  0.2359  0.0020
23022W        W65934  28.687  19.363  16.408  0.0541 -0.0430 -0.3025
23023W        W65935  24.954  17.630  19.401  0.1754  0.0561  0.0162
23024W        W65936  25.303  18.019  19.215 -0.0981 -0.2424 -0.3106
23025W        W65937  26.957  20.492  17.327 -0.1939  0.0382  0.1856
23026W        W65938  27.701  21.296  16.677 -0.0921  0.0761 -0.1319
23027W        W65939  26.659  19.062  17.817 -0.2452 -0.0148 -0.0103
23028W        W65940  29.076  20.967  20.394  0.1171  0.2596  0.0735
23029W        W65941  24.418  21.918  16.893 -0.3901 -0.0580 -0.2151
23030W        W65942  27.247  19.684  19.923 -0.2687 -0.2179 -0.1042
23031W        W65943  26.965  17.942  20.229 -0.0128  0.1060  0.1551
23032W        W65944  24.037  19.037  16.673 -0.2625  0.0274  0.0349
23033W        W65945  26.849  19.440  19.083  0.0917 -0.2380  0.2106
23034W        W65946  26.580  22.238  16.321 -0.1808 -0.1476 -0.0236
23035W        W65947  28.179  22.164  16.418 -0.0061  0.1225 -0.0626
23036W        W65948  28.303  20.491  18.717  0.1527 -0.0682  0.0121
23037W        W65949  28.142  20.587  20.108 -0.0320  0.0867  0.0044
23038W        W65950  24.864  18.317  20.451 -0.1546  0.4586  0.1878
23039W        W65951  28.410  20.812  18.351  0.0514  0.1475  0.1616
23040W        W65952  27.657  20.388  20.089  0.1816  0.0454  0.5280
23041W        W65953  29.659  20.831  16.437 -0.1876 -0.0094 -0.0326
23042W        W65954  31.324  19.610  19.442  0.2587 -0.2189  0.0037
23043W        W65955  26.572  20.448  16.799 -0.1085 -0.0613 -0.0012
23044W        W65956  26.812  19.145  18.676  0.0928  0.0833 -0.1069
23045W        W65957  25.637  21.000  18.892  0.1613 -0.1000 -0.1707
23046W        W65958  28.035  20.516  17.304 -0.0063 -0.2174  0.0356
23047W        W65959  26.524  18.454  18.566  0.5495  0.0087 -0.0273
23048W        W65960  26.962  19.557  17.739  0.3196 -0.1507  0.1161
23049W        W65961  27.253  21.258  16.456 -0.0227  0.1142 -0.1190
23050W        W65962  24.818  19.909  18.317  0.3351 -0.0358 -0.2056
23051W        W65963  27.132  17.855  17.679 -0.1385 -0.0848  0.0335
23052W        W65964  27.363  19.560  18.115 -0.1274 -0.3071 -0.0352
23053W        W65965  27.263  21.242  18.005  0.1732  0.3088 -0.0255
23054W        W65966  30.308  19.503  20.092 -0.4053 -0.1101  0.2180
23055W        W65967  25.133  20.822  18.052 -0.0952 -0.2752 -0.1814
23056W        W65968  29.696  21.169  16.931 -0.2552  0.3071  0.2025
23057W        W65969  28.473  22.139  18.089  0.2530  0.2381 -0.1603
23058W        W65970  29.643  21.939  20.216  0.1571 -0.3225  0.2287
23059W        W65971  26.352  22.870  19.162 -0.1372  0.0625  0.1556
23060W        W65972  27.340  19.612  19.171  0.0934 -0.2012  0.1998
23061W        W65973  24.198  18.708  18.677 -0.0334 -0.1216  0.1187
23062W        W65974  26.309  20.557  18.582 -0.0231  0.0109  0.0841
23063W        W65975  27.550  20.417  17.425 -0.0044  0.1638  0.0266
23064W        W65976  27.754  20.321  18.603  0.0628 -0.1125  0.0332
23065W        W65977  26.100  19.304  17.576  0.1505  0.3456  0.0689
23066W        W65978  27.650  19.178  17.462 -0.1415  0.2614 -0.2596
23067W        W65979  26.480  22.524  20.552 -0.0718 -0.1860 -0.2244
23068W        W65980  27.970  19.462  18.120  0.0777  0.1196  0.0311
23069W        W65981  27.745  20.729  24.406 -0.3857  0.0534 -0.2248
23070W        W65982  28.510  19.590  20.995  0.0193  0.1251 -0.1916
23071W        W65983  29.911  19.363  21.228 -0.0389 -0.0204 -0.1105
23072W        W65984  28.885  21.446  21.216 -0.0123  0.3100 -0.4752
23073W        W65985  26.687  19.296  22.426  0.3196 -0.2466  0.1913
23074W        W65986  28.190  21.877  22.135  0.1984  0.0863  0.0580
23075W        W65987  26.447  18.706  23.367  0.0795 -0.0561  0.0845
23076W        W65988  28.687  21.038  23.668  0.0689  0.0424  0.1915
23077W        W65989  27.829  22.503  22.492 -0.0726 -0.0774 -0.1816
23078W        W65990  29.109  19.843  20.901  0.2205 -0.2595 -0.1515
23079W        W65991  27.341  20.103  21.756  0.4949 -0.1801 -0.2874
23080W        W65992  27.786  21.449  21.129  0.3041 -0.1100 -0.1037
23081W        W65993  26.271  18.647  20.481  0.0582  0.0370 -0.0059
23082W        W65994  26.137  18.606  21.943  0.0006  0.2224 -0.4014
23083W        W65995  28.016  18.717  25.010 -0.1086 -0.0719 -0.1000
23084W        W65996  27.575  20.279  21.403 -0.3174 -0.3201  0.0154
23085W        W65997  25.948  19.150  22.504 -0.0270 -0.0874 -0.0682
23086W        W65998  29.360  20.441  21.103 -0.1736 -0.0405 -0.3496
23087W        W65999  27.662  22.996  22.593  0.0658 -0.0018  0.0698
23088W        W66000  25.862  19.412  21.601  0.1860 -0.0695 -0.0305
23089W        W66001  29.260  18.368  23.704  0.0377  0.1822  0.2294
23090W        W66002  25.697  22.575  19.953 -0.1929  0.0401 -0.0903
23091W        W66003  25.855  19.991  20.684  0.1221 -0.2075 -0.0295
23092W        W66004  26.823  18.942  21.137 -0.3139  0.1644 -0.3759
23093W        W66005  26.157  21.535  21.254  0.2665 -0.1679  0.3409
23094W        W66006  28.552  20.210  21.635 -0.0664 -0.2163 -0.0513
23095W        W66007  29.443  20.660  20.633  0.0577 -0.0885  0.2939
23096W        W66008  26.513  21.277  21.832  0.2982 -0.1295  0.3833
23097W        W66009  27.071  21.918  22.303  0.1896  0.0293  0.0309
23098W        W66010  27.021  18.377  22.662  0.0034  0.3070 -0.1568
23099W        W66011  25.613  20.720  21.443 -0.0744  0.0957  0.0844
23100W        W66012  26.447  22.713  22.059  0.0276 -0.1869 -0.1627
23101W        W66013  27.063  22.213  21.797  0.1490  0.1084  0.0428
23102W        W66014  27.508  20.654  21.789 -0.0148  0.1310  0.0679
23103W        W66015  28.653  22.549  22.341  0.0895 -0.0046 -0.1937
23104W        W66016  28.062  20.402  24.841  0.1666  0.0059 -0.2231
23105W        W66017  26.618  22.065  20.337 -0.2120  0.3643 -0.3059
23106W        W66018  27.610  22.750  24.009 -0.1428  0.1310 -0.0571
23107W        W66019  27.518  20.994  23.731  0.1313 -0.0489  0.1609
23108W        W66020  26.890  19.748  22.088  0.0339 -0.0814  0.0628
23109W        W66021  28.562  20.451  22.134  0.0824  0.1196 -0.2515
23110W        W66022  28.368  21.193  20.569  0.2725  0.1144  0.2136
23111W        W66023  27.430  19.502  20.939 -0.1132  0.2270 -0.0508
23112W        W66024  26.838  21.281  23.817 -0.2651  0.4165 -0.1063
23113W        W66025  26.293  22.558  22.829 -0.0520 -0.2911 -0.0932
23114W        W66026  28.062  18.853  25.557 -0.0140 -0.1590 -0.0762
23115W        W66027  26.855  21.033  20.721 -0.2907 -0.3261 -0.1602
23116W        W66028  27.696  19.121  18.851  0.2143  0.0502 -0.1992
23117W        W66029  27.345  19.801  21.334  0.2646 -0.2349 -0.1261
23118W        W66030  29.326  20.708  21.638  0.1994  0.3799  0.0138
23119W        W66031  27.732  18.378  21.017 -0.0337  0.0376 -0.2044
23120W        W66032  27.465  20.988  21.312 -0.3021  0.1131 -0.5564
23121W        W66033  24.699  18.733  22.373  0.0394 -0.0605 -0.0944
23122W        W66034  28.829  21.342  24.184 -0.1158  0.2436  0.1712
23123W        W66035  27.310  19.007  20.316 -0.1709  0.0721  0.1319
23124W        W66036  29.277  18.864  23.800  0.1571 -0.0626  0.0058
23125W        W66037  25.573  21.004  22.448  0.0307 -0.1338 -0.0438
23126W        W66038  25.248  19.888  21.332  0.0805  0.0445  0.1512
23127W        W66039  30.569  21.342  18.976 -0.0263  0.0077 -0.0032
23128W        W66040  27.901  20.525  21.045 -0.4776 -0.3528  0.3875
23129W        W66041  26.968  20.857  19.537 -0.1559  0.2389 -0.0952
23130W        W66042  25.840  20.492  20.940  0.0307 -0.0543 -0.1923
23131W        W66043  25.277  19.929  22.698 -0.2185 -0.1903  0.1381
23132W        W66044  25.162  20.218  22.080 -0.0497  0.0343  0.1399
23133W        W66045  27.130  18.905  19.617 -0.3630 -0.4289 -0.3670
23134W        W66046  29.225  22.366  23.329  0.2389  0.3159 -0.1219
23135W        W66047  24.636  20.880  22.247  0.0835 -0.1752  0.0019
23136W        W66048  27.925  18.555  22.544  0.2852 -0.1520 -0.0075
23137W        W66049  27.831  20.264  21.947 -0.0398  0.2167 -0.0500
23138W        W66050  27.774  20.878  23.154  0.2879  0.0611  0.2311
23139W        W66051  28.078  20.164  20.496  0.2042 -0.1687 -0.0239
23140W        W66052  28.087  19.717  22.418  0.0994 -0.1330  0.2202
23141W        W66053  27.288  18.600  21.382  0.3916 -0.2246  0.0534
23142W        W66054  27.080  21.326  19.381  0.1808  0.1658  0.3453
23143W        W66055  27.511  20.912  20.793  0.2893 -0.0475 -0.4264
23144W        W66056  28.371  21.422  23.480 -0.1457 -0.3033 -0.1292
23145W        W66057  28.528  20.248  19.611 -0.1101 -0.1637 -0.2629
23146W        W66058  25.342  22.232  22.333 -0.2321 -0.1355 -0.0362
23147W        W66059  26.190  20.970  21.495 -0.0487 -0.0804  0.0855
23148W        W66060  27.943  20.318  24.277  0.2310 -0.2196 -0.0580
23149W        W66061  26.828  21.487  20.863  0.0672  0.0522 -0.2246
23150W        W66062  26.149  20.708  21.907  0.1965 -0.0378 -0.3558
23151W        W66063  26.408  21.331  19.882 -0.1701 -0.2733 -0.2933
23152W        W66064  25.733  18.396  23.322  0.1013  0.1456  0.0763
23153W        W66065  26.270  19.718  22.309 -0.2493 -0.0366  0.1494
23154W        W66066  27.713  18.274  21.535  0.2185 -0.0929  0.0309
23155W        W66067  25.130  18.722  23.848 -0.5913  0.2491  0.3447
23156W        W66068  29.905  18.055  21.858  0.0009  0.0923  0.3286
23157W        W66069  25.886  22.016  21.042  0.1876  0.0261  0.3907
23158W        W66070  29.483  22.590  21.627 -0.0895 -0.3339  0.4550
23159W        W66071  29.651  19.978  20.839  0.1226  0.1574 -0.0846
23160W        W66072  28.391  19.640  19.180  0.1080  0.1525 -0.2395
23161W        W66073  25.823  18.997  22.011 -0.1822 -0.1104 -0.1270
23162W        W66074  26.936  20.169  21.167  0.0417 -0.1485 -0.1554
23163W        W66075  25.895  18.862  23.513 -0.3177 -0.2978  0.2514
23164W        W66076  25.520  18.843  23.046 -0.0318  0.1671  0.0406
23165W        W66077  28.021  19.821  23.509  0.4059  0.0224  0.1254
23166W        W66078  27.116  17.830  19.711 -0.3077  0.2068  0.0945
23167W        W66079  27.827  18.057  20.056 -0.1218 -0.1957 -0.0427
23168W        W66080  27.291  20.518  20.990 -0.0754  0.0629 -0.0598
23169W        W66081  26.361  19.733  21.563 -0.3486 -0.0776  0.1921
23170W        W66082  27.853  18.276  24.040  0.2649 -0.0958 -0.2797
23171W        W66083  26.655  20.773  21.823  0.0749  0.1105 -0.0159
23172W        W66084  27.616  22.105  23.338  0.1235  0.2232  0.0506
23173W        W66085  28.830  21.628  21.824 -0.2308 -0.1894  0.0980
23174W        W66086  25.467  19.529  23.441 -0.0684 -0.0413  0.1733
23175W        W66087  27.632  20.010  20.907 -0.2572  0.3348  0.3139
23176W        W66088  27.232  22.409  20.910  0.2950 -0.1348  0.0927
23177W        W66089  26.112  20.214  22.538  0.1381 -0.0052  0.1895
23178W        W66090  26.741  19.457  20.404 -0.3340 -0.1111 -0.0999
23179W        W66091  28.912  22.573  21.327 -0.0187 -0.0992  0.2285
23180W        W66092  28.315  19.717  21.451  0.1592  0.0824 -0.1436
23181W        W66093  26.463  20.348  23.811 -0.2546  0.0446  0.1051
23182W        W66094  28.397  18.906  23.560 -0.0127  0.1286  0.2687
23183W        W66095  28.649  19.638  21.847 -0.0545 -0.0694 -0.0456
23184W        W66096  28.888  19.802  21.345 -0.0504  0.2641 -0.2738
23185W        W66097  26.299  19.657  20.209 -0.0500  0.1966 -0.0458
23186W        W66098  28.630  21.691  23.827  0.2304 -0.1403  0.0765
23187W        W66099  26.696  22.854  20.159 -0.0283  0.2892 -0.0423
23188W        W66100  26.454  20.960  22.273 -0.0298  0.1128 -0.0974
23189W        W66101  28.927  20.895  22.194 -0.0081 -0.0723  0.3078
23190W        W66102  28.380  19.323  22.772  0.1279  0.0628 -0.3084
23191W        W66103  25.709  20.710  22.854  0.3433 -0.0440  0.2365
23192W        W66104  27.511  20.187  22.905  0.2342  0.0437  0.2938
23193W        W66105  25.333  19.335  21.727  0.0487 -0.3240  0.2142
23194W        W66106  26.151  20.754  22.575  0.2281  0.1015 -0.0971
23195W        W66107  28.193  19.193  20.788 -0.1649  0.2450  0.3685
23196W        W66108  29.609  20.838  21.164  0.4256 -0.0698  0.0020
23197W        W66109  28.300  19.493  24.326  0.1482  0.3192 -0.0538
23198W        W66110  29.002  21.167  21.786  0.1279 -0.0761  0.0830
23199W        W66111  27.998  19.348  19.318 -0.2201  0.0130 -0.0532
23200W        W66112  28.957  17.651  19.865  0.2851 -0.0803  0.2034
23201W        W66113  25.514  20.837  23.772 -0.0027  0.5777  0.1019
23202W        W66114  27.914  21.288  21.599  0.0875  0.0431 -0.1335
23203W        W66115  26.685  22.005  22.711  0.2037 -0.0843 -0.1785
23204W        W66116  27.242  19.505  20.462  0.0791 -0.0780 -0.2749
23205W        W66117  29.144  21.985  22.495 -0.1428  0.1039  0.3604
23206W        W66118  26.777  20.425  23.443  0.0360 -0.1171  0.0429
23207W        W66119  28.211  21.914  24.384  0.1897 -0.2543  0.0325
23208W        W66120  28.024  20.378  23.193  0.1972 -0.0961  0.1169
23209W        W66121  26.073  17.396  23.142  0.0406 -0.0378  0.1968
23210W        W66122  26.855  21.636  20.332 -0.0998 -0.0700 -0.0882
23211W        W66123  27.290  18.763  20.926  0.2602  0.1952 -0.4311
23212W        W66124  26.363  22.229  21.099 -0.0214  0.1375 -0.1918
23213W        W66125  27.891  18.461  22.043 -0.1091  0.1426 -0.2207
23214W        W66126  27.738  19.339  21.504 -0.1769  0.2383  0.1709
23215W        W66127  26.533  19.008  22.880  0.0091  0.1079 -0.1123
23216W        W66128  28.756  19.459  25.647 -0.2085 -0.0518  0.0701
23217W        W66129  29.765  18.581  20.077  0.0625 -0.2689  0.4015
23218W        W66130  27.440  18.974  21.841  0.1836 -0.2078  0.3817
23219W        W66131  26.669  19.039  19.613 -0.0200  0.0569  0.1903
23220W        W66132  26.870  19.823  23.454 -0.0063 -0.0330  0.2152
23221W        W66133  27.289  21.051  22.839 -0.0927 -0.0181 -0.2338
23222W        W66134  26.740  21.155  22.804  0.1668 -0.0371 -0.0885
23223W        W66135  28.030  19.251  23.585  0.0900  0.1426  0.0364
23224W        W66136  28.884  20.655  21.746  0.2672  0.3240  0.2018
23225W        W66137  27.692  19.523  23.330 -0.0370 -0.2206 -0.1179
23226W        W66138  27.491  19.252  19.887 -0.0516  0.4951  0.2803
23227W        W66139  26.147  23.427  20.743  0.0032 -0.1053 -0.1488
23228W        W66140  27.765  20.650  19.314  0.2517 -0.1327  0.0810
23229W        W66141  25.615  18.649  22.557 -0.0602  0.2300 -0.1952
23230W        W66142  26.853  20.906  23.218  0.2885  0.1097 -0.1726
23231W        W66143  27.582  20.858  20.293  0.2632  0.1637  0.1044
23232W        W66144  28.643  20.299  22.929  0.0466  0.0935  0.0852
23233W        W66145  26.030  21.361  21.781 -0.1076  0.0598 -0.2453
23234W        W66146  28.123  18.162  22.392 -0.2192  0.1191  0.2031
23235W        W66147  26.939  20.338  21.944  0.0188  0.0590 -0.0983
23236W        W66148  28.018  20.737  20.559 -0.1484 -0.1167  0.0909
23237W        W66149  25.380  20.822  20.429  0.0274  0.3233  0.3265
23238W        W66150  28.205  18.425  21.620  0.0606 -0.3416  0.0106
23239W        W66151  28.702  20.224  20.258 -0.0677 -0.0871  0.0402
23240W        W66152  25.015  17.975  22.606 -0.0635  0.2883  0.0962
23241W        W66153  27.126  20.527  21.512 -0.0950 -0.0367 -0.2004
23242W        W66154  23.623  21.492  21.587  0.1729 -0.1953 -0.1114
23243W        W66155  27.276  19.943  22.214 -0.0853 -0.2802 -0.0174
23244W        W66156  28.697  18.696  21.488 -0.3173 -0.0702  0.0336
23245W        W66157  28.215  20.837  23.447 -0.0985  0.0623 -0.1576
23246W        W66158  26.355  20.557  25.110  0.3309 -0.0318  0.2456
23247W        W66159  26.201  19.294  21.996  0.2527 -0.2110 -0.2716
23248W        W66160  29.677  19.240  23.913 -0.1794 -0.0853  0.0410
23249W        W66161  29.120  18.910  20.697  0.1710 -0.1148  0.1378
23250W        W66162  26.334  21.677  20.807  0.0405  0.1039  0.1520
23251W        W66163  28.365  22.799  23.113 -0.3233 -0.1055 -0.2043
23252W        W66164  27.034  19.193  20.783 -0.0820  0.3141  0.3302
23253W        W66165  28.211  22.098  20.017 -0.0987  0.0223 -0.0764
23254W        W66166  27.998  22.383  24.272  0.0913  0.0181 -0.2556
23255W        W66167  29.004  19.694  24.752 -0.1262  0.2612 -0.0752
23256W        W66168  25.969  18.909  20.209 -0.0761 -0.3238  0.3533
23257W        W66169  26.292  19.182  20.501  0.3289  0.1094 -0.1396
23258W        W66170  26.281  20.635  21.124 -0.4202  0.1636  0.0145
23259W        W66171  28.874  19.316  23.474  0.4135 -0.2255  0.2567
23260W        W66172  26.215  18.052  21.980 -0.0641 -0.3372 -0.5006
23261W        W66173  24.918  20.905  25.262 -0.0947  0.1270 -0.0473
23262W        W66174  26.395  17.635  22.198 -0.2584  0.0012 -0.0568
23263W        W66175  28.518  21.236  22.007 -0.2075  0.0202  0.1397
23264W        W66176  28.290  19.209  24.783  0.2853 -0.1520 -0.2979
23265W        W66177  26.212  19.672  20.657 -0.0927  0.0394  0.1149
23266W        W66178  25.688  19.536  22.138  0.1427 -0.0771 -0.1167
23267W        W66179  27.243  21.292  21.051 -0.0352 -0.0837 -0.1007
23268W        W66180  26.689  18.729  22.498 -0.2384 -0.2400 -0.0365
23269W        W66181  26.471  20.525  22.935 -0.2461 -0.1620  0.4090
23270W        W66182  27.106  20.992  21.686  0.0923  0.4430 -0.1408
23271W        W66183  26.359  20.911  23.210 -0.2224  0.2199 -0.3336
23272W        W66184  28.136  18.235  20.702  0.1087  0.0543  0.0270
23273W        W66185  26.787  20.927  21.276  0.0813 -0.1879  0.2047
23274W        W66186  29.080  19.194  21.983  0.1463 -0.0647  0.3320
23275W        W66187  28.582  18.816  24.835 -0.1263 -0.1164  0.0915
23276W        W66188  28.299  19.423  19.826  0.1178 -0.2371  0.1325
23277W        W66189  27.972  18.517  23.045 -0.0253  0.1084 -0.0253
23278W        W66190  25.103  19.133  23.260  0.2461  0.1147  0.0029
23279W        W66191  28.817  20.226  21.039  0.2822 -0.0259 -0.2223
23280W        W66192  24.633  20.322  22.087  0.2622 -0.2704 -0.2569
23281W        W66193  29.306  22.398  22.311  0.1274  0.0923 -0.3272
23282W        W66194  25.721  20.204  22.902 -0.2756  0.1420 -0.0816
23283W        W66195  28.637  19.347  21.395 -0.0880  0.0888 -0.4284
23284W        W66196  25.939  17.633  20.283 -0.0040  0.0540  0.0143
23285W        W66197  27.730  19.806  22.107  0.1405  0.4226 -0.0901
23286W        W66198  28.930  19.775  23.371 -0.0362 -0.1101  0.1082
23287W        W66199  27.342  21.426  22.117 -0.0170  0.3187  0.0943
23288W        W66200  28.661  21.076  23.130 -0.0654  0.2650 -0.4386
23289W        W66201  26.816  19.155  23.434  0.0185  0.0443  0.0353
23290W        W66202  28.651  19.373  20.595 -0.1552  0.0816 -0.0175
23291W        W66203  27.582  19.919  20.378 -0.2146 -0.3031 -0.1387
23292W        W66204  27.826  19.832  21.611  0.0126  0.0514  0.2769
23293W        W66205  26.628  18.766  23.856 -0.0078  0.1497  0.1221
23294W        W66206  28.762  20.869  24.196  0.1055  0.0572  0.3050
23295W        W66207  27.921  19.531  21.023  0.3733  0.0511  0.1126
23296W        W66208  26.498  18.406  22.181  0.1682 -0.1619 -0.0952
23297W        W66209  28.212  19.023  23.162 -0.0990  0.0732  0.1049
23298W        W66210  26.674  18.073  22.478 -0.2341 -0.3987 -0.0457
23299W        W66211  27.163  20.217  23.729 -0.0207 -0.0440  0.1469
23300W        W66212  29.337  22.569  22.865  0.1347  0.1057 -0.3670
23301W        W66213  29.613  20.307  22.364 -0.0330 -0.0041  0.0450
23302W        W66214  27.919  19.210  22.756  0.0169 -0.2538  0.0409
23303W        W66215  28.764  19.056  22.995 -0.0402  0.0612  0.3680
23304W        W66216  26.973  19.631  20.932  0.0371  0.0115 -0.0882
23305W        W66217  26.403  21.153  21.023  0.2965  0.0865 -0.3605
23306W        W66218  28.807  18.646  23.734  0.0841  0.3016 -0.0078
23307W        W66219  26.078  19.167  21.070  0.0873 -0.1921 -0.0913
23308W        W66220  27.538  20.179  24.417  0.1662 -0.0484  0.0134
23309W        W66221  27.498  23.311  19.932 -0.3259  0.0031  0.1012
23310W        W66222  26.870  21.202  22.125 -0.0165 -0.0471 -0.2805
23311W        W66223  28.919  18.490  19.882  0.0668 -0.1297  0.7146
23312W        W66224  26.468  19.158  21.403  0.2190  0.1566 -0.1154
23313W        W66225  25.967  21.514  23.262  0.2512 -0.0800  0.1511
23314W        W66226  27.206  20.169  20.160 -0.2026 -0.0009 -0.0389
23315W        W66227  27.780  22.068  20.390  0.0654 -0.1736 -0.3584
23316W        W66228  27.982  21.128  24.430  0.0661 -0.0466  0.3116
23317W        W66229  28.287  19.983  23.998  0.0016 -0.0138  0.2626
23318W        W66230  27.361  19.071  21.303  0.1898 -0.1039  0.3607
23319W        W66231  29.288  18.743  24.674  0.1438 -0.0080  0.3555
23320W        W66232  27.153  21.164  20.351 -0.2167  0.0651 -0.1600
23321W        W66233  26.712  18.409  21.098 -0.0114  0.2950  0.0883
23322W        W66234  27.104  20.776  23.646 -0.1855 -0.1412  0.3292
23323W        W66235  26.528  22.238  23.585 -0.2266  0.1919  0.2237
23324W        W66236  26.833  21.392  21.393 -0.1045 -0.1367  0.0156
23325W        W66237  26.506  18.694  21.536  0.1932  0.1276  0.2177
23326W        W66238  27.049  18.684  22.136  0.1634  0.0392  0.0697
23327W        W66239  25.909  19.768  22.648 -0.0808  0.0004 -0.1243
23328W        W66240  30.403  22.683  24.771 -0.0791 -0.3399 -0.1300
23329W        W66241  26.592  20.601  24.417  0.1603  0.1316 -0.0997
23330W        W66242  26.146  20.262  21.413 -0.4717  0.0143  0.2628
23331W        W66243  26.644  21.333  23.392 -0.2068 -0.1048 -0.1155
23332W        W66244  29.671  20.740  22.043  0.0748 -0.0155  0.0056
23333W        W66245  25.997  21.171  22.737  0.0378  0.1480  0.0633
23334W        W66246  25.238  20.381  22.923 -0.3357  0.1209  0.0141
23335W        W66247  27.383  19.950  23.377  0.1645 -0.0022  0.3932
23336W        W66248  26.951  18.964  21.635  0.1488  0.0011  0.1992
23337W        W66249  26.551  19.354  20.914  0.0892  0.1832  0.2079
23338W        W66250  26.543  21.858  19.852 -0.0947 -0.0145 -0.0502
23339W        W66251  27.812  21.333  23.983  0.2867 -0.1157  0.0691
23340W        W66252  26.205  18.267  23.211 -0.0392  0.1855  0.0646
23341W        W66253  25.921  22.844  21.969  0.1122  0.1085 -0.0529
23342W        W66254  27.760  21.335  19.790  0.1899 -0.2484 -0.4017
23343W        W66255  28.563  19.966  20.641  0.1095 -0.0109 -0.1928
23344W        W66256  26.512  20.447  22.231  0.0429  0.0869  0.3519
23345W        W66257  28.917  19.801  20.292  0.1055  0.1322  0.0823
23346W        W66258  27.131  20.827  22.170  0.0317 -0.1319  0.1291
23347W        W66259  26.187  22.148  20.115 -0.1509 -0.1460  0.1740
23348W        W66260  28.196  19.664  20.630 -0.0829 -0.4392 -0.3818
23349W        W66261  26.091  22.259  21.979  0.0110  0.3295 -0.1782
23350W        W66262  27.676  20.149  23.869 -0.1019  0.2752 -0.3800
23351W        W66263  29.546  19.355  21.568 -0.0034 -0.0108 -0.0172
23352W        W66264  29.064  21.438  23.696  0.0336 -0.1914  0.0760
23353W        W66265  30.238  20.999  21.991 -0.4177  0.0810  0.3786
23354W        W66266  27.968  22.714  23.499 -0.2873 -0.0437  0.1005
23355W        W66267  27.051  19.261  22.084 -0.3989  0.3128 -0.0896
23356W        W66268  28.488  18.369  20.349 -0.1866 -0.0198 -0.0310
23357W        W66269  28.289  21.016  23.923 -0.0104 -0.1068 -0.1682
23358W        W66270  28.379  18.562  24.088  0.0749 -0.1750  0.3882
23359W        W66271  26.000  21.717  22.800  0.2470  0.0604  0.0904
23360W        W66272  27.923  21.760  21.620 -0.3917 -0.3548  0.1826
23361W        W66273  26.737  18.357  20.521 -0.1358 -0.0491 -0.0910
23362W        W66274  27.341  19.542  21.790 -0.3900 -0.0214  0.0648
23363W        W66275  28.639  18.024  22.394 -0.0657 -0.0585  0.0633
23364W        W66276  28.831  21.375  20.673 -0.1629  0.0225 -0.0331
23365W        W66277  28.442  19.400  22.183  0.0917  0.2901  0.0430
23366W        W66278  27.579  20.518  23.551  0.1310 -0.2786 -0.1165
23367W        W66279  26.785  22.787  22.398 -0.0461 -0.0818 -0.2163
23368W        W66280  26.918  24.071  23.077 -0.2661 -0.1957  0.0736
23369W        W66281  26.604  17.740  19.939 -0.1815 -0.0739  0.0601
23370W        W66282  29.233  19.961  22.414 -0.0523  0.0071 -0.3710
23371W        W66283  27.334  19.295  22.820 -0.3526 -0.0263  0.0972
23372W        W66284  27.537  18.832  22.290 -0.1348  0.1335  0.1997
23373W        W66285  26.460  20.041  21.984  0.1983 -0.2817  0.2035
23374W        W66286  29.993  19.852  22.086  0.2216  0.2059  0.1202
23375W        W66287  27.297  21.072  24.163  0.2038 -0.0955  0.0612
23376W        W66288  26.868  19.896  21.583 -0.2020 -0.0214 -0.2160
23377W        W66289  27.622  20.403  20.574  0.0555 -0.3633 -0.0983
23378W        W66290  29.418  21.955  23.959  0.3808 -0.2410  0.2910
23379W        W66291  29.054  18.914  20.209 -0.4621 -0.3940  0.2819
23380W        W66292  28.554  22.348  25.088  0.0380  0.0186  0.2235
23381W        W66293  26.207  19.418  22.876 -0.0231 -0.0307  0.0273
23382W        W66294  29.620  18.543  20.956 -0.0333  0.0716  0.0501
23383W        W66295  25.807  21.494  20.941 -0.0379  0.0991 -0.2359
23384W        W66296  26.577  20.859  23.828  0.0133 -0.0928  0.1985
23385W        W66297  28.526  21.142  24.566 -0.0935  0.0036  0.1445
23386W        W66298  25.372  17.524  20.758 -0.0345 -0.0867 -0.2510
23387W        W66299  29.693  20.763  19.729  0.0824  0.0704 -0.2047
23388W        W66300  28.306  18.842  22.675  0.0453 -0.1067 -0.3390
23389W        W66301  29.130  20.485  20.194 -0.0099  0.0259  0.3170
23390W        W66302  28.047  20.259  21.492  0.1537  0.2933  0.1911
23391W        W66303  28.316  22.547  22.683 -0.0571  0.2853  0.0759
23392W        W66304  26.304  18.441  20.034  0.2456  0.0774  0.1428
23393W        W66305  28.256  19.939  21.953  0.1596  0.0900 -0.3373
23394W        W66306  27.821  21.478  22.077 -0.0672 -0.2234  0.1430
23395W        W66307  28.694  18.005  20.593  0.0236 -0.0210 -0.2426
23396W        W66308  26.195  20.796  20.667  0.0035  0.0132 -0.0515
23397W        W66309  25.557  22.372  21.925 -0.1329 -0.1432  0.1075
23398W        W66310  28.416  19.482  23.297 -0.3406  0.2262  0.1446
23399W        W66311  26.392  18.427  22.757  0.1094 -0.2488 -0.1048
23400W        W66312  27.389  21.524  20.635  0.3104  0.1282  0.0415
23401W        W66313  28.055  18.009  22.914  0.0338  0.4226 -0.2296
23402W        W66314  26.738  21.978  24.077  0.3772 -0.0666 -0.0320
23403W        W66315  26.909  21.771  25.114  0.1453 -0.2740 -0.0085
23404W        W66316  26.651  19.939  20.407 -0.1306 -0.2187  0.1014
23405W        W66317  26.427  19.967  22.918  0.2633 -0.4549 -0.0500
23406W        W66318  28.173  20.510  22.389  0.0197 -0.0442  0.0864
23407W        W66319  28.668  20.995  20.947 -0.3465  0.0900  0.2265
23408W        W66320  28.389  20.610  21.327  0.0088  0.1212 -0.2970
23409W        W66321  26.973  19.396  21.357 -0.0479 -0.2411  0.4550
23410W        W66322  29.526  20.754  23.049  0.2393  0.1894 -0.0596
23411W        W66323  25.658  17.854  22.155  0.0318  0.1349  0.0626
23412W        W66324  30.291  18.927  21.413  0.1829  0.1401 -0.1261
23413W        W66325  27.548  17.936  21.244 -0.0314  0.1176  0.0446
23414W        W66326  25.484  20.321  23.827 -0.0098 -0.0145  0.1137
23415W        W66327  27.128  20.004  20.652 -0.1477 -0.0551  0.0437
23416W        W66328  26.136  20.897  19.782 -0.1599  0.4710  0.2027
23417W        W66329  25.644  20.329  21.759  0.0222 -0.3076 -0.0433
23418W        W66330  27.015  18.476  24.787  0.0568 -0.0873  0.0403
23419W        W66331  25.948  19.805  23.191  0.3818 -0.1352  0.0391
23420W        W66332  27.564  21.390  23.110  0.1495 -0.4441 -0.1074
23421W        W66333  26.605  19.805  21.149  0.1587 -0.2299 -0.2988
23422W        W66334  28.631  21.068  21.504  0.2206 -0.2498  0.0096
23423W        W66335  26.038  18.788  23.010  0.0070  0.0720  0.2503
23424W        W66336  27.284  18.258  20.861 -0.1863  0.1595 -0.1573
23425W        W66337  27.218  20.718  20.023 -0.5230 -0.0015  0.0529
23426W        W66338  27.626  20.982  22.198 -0.1032  0.1779 -0.0169
23427W        W66339  27.156  18.567  20.451  0.1788  0.3247  0.1135
23428W        W66340  28.771  22.220  24.699 -0.2997  0.0727  0.0755
23429W        W66341  26.265  20.127  20.921 -0.2884  0.1054  0.3404
23430W        W66342  26.141  20.448  24.243  0.1173  0.2300  0.0749
23431W        W66343  26.710  19.926  22.505  0.3071  0.4172 -0.1846
23432W        W66344  26.204  18.784  18.799  0.2898  0.0867  0.1890
23433W        W66345  28.944  20.075  21.972  0.2415  0.2350  0.1417
23434W        W66346  28.538  21.315  22.707 -0.2106 -0.0300 -0.0386
23435W        W66347  28.395  21.539  21.504 -0.2681  0.2084  0.1635
23436W        W66348  27.811  20.133  22.494  0.0098 -0.1471 -0.1700
23437W        W66349  27.888  21.260  23.498 -0.2617 -0.0375 -0.0079
23438W        W66350  25.874  18.220  24.194 -0.0255  0.0009  0.1835
23439W        W66351  26.769  19.699  19.969  0.1979 -0.1829  0.1758
23440W        W66352  26.996  21.255  24.665 -0.0361 -0.2493  0.0724
23441W        W66353  29.941  21.789  21.705 -0.2038 -0.0346 -0.0129
23442W        W66354  27.077  19.908  22.989  0.0339 -0.1145 -0.2989
23443W        W66355  29.501  19.016  21.085 -0.2454  0.0891 -0.0260
23444W        W66356  27.228  18.825  23.426 -0.0258 -0.0454 -0.1244
23445W        W66357  28.538  19.817  22.959  0.2787  0.1582 -0.2102
23446W        W66358  29.016  20.853  22.862  0.0763  0.2038  0.1598
23447W        W66359  26.195  18.613  21.090 -0.0298  0.1229 -0.1771
23448W        W66360  29.200  18.411  20.693  0.3720 -0.1163  0.3761
23449W        W66361  29.062  21.853  20.769  0.2588 -0.1243  0.2071
23450W        W66362  25.174  19.501  22.382 -0.0335 -0.1740 -0.0758
23451W        W66363  27.314  21.693  19.653 -0.2725  0.1147 -0.3122
23452W        W66364  27.393  20.561  24.049 -0.0046 -0.3032 -0.2609
23453W        W66365  28.463  20.027  22.479 -0.1621 -0.4625  0.1606
23454W        W66366  28.743  20.365  24.380  0.0609  0.3310 -0.0828
23455W        W66367  26.755  20.354  20.108 -0.1043 -0.1060  0.0746
23456W        W66368  29.206  20.218  20.620 -0.3765 -0.2828  0.0625
23457W        W66369  28.305  20.625  24.448 -0.0068 -0.0128 -0.0698
23458W        W66370  28.556  22.309  24.182  0.1222 -0.2904 -0.0123
23459W        W66371  27.917  20.662  23.914  0.3311 -0.2225 -0.0065
23460W        W66372  28.523  20.131  23.366  0.1066  0.3267 -0.3975
23461W        W66373  25.285  17.573  22.358  0.3134  0.1433  0.1143
23462W        W66374  27.131  20.591  20.518 -0.1200 -0.0527 -0.0118
23463W        W66375  27.390  20.396  22.199  0.4499 -0.0446 -0.1329
23464W        W66376  28.775  19.127  22.446  0.0571  0.0942 -0.2551
23465W        W66377  27.442  17.407  21.261 -0.0461  0.2162 -0.0179
23466W        W66378  29.068  18.053  20.178  0.1716  0.2112 -0.1370
23467W        W66379  26.499  21.573  23.897  0.1485 -0.0782 -0.2974
23468W        W66380  26.011  19.932  21.965 -0.0121 -0.3423  0.1425
23469W        W66381  26.176  21.898  26.892 -0.0078 -0.0002 -0.0640
23470W        W66382  25.972  19.262  25.246  0.1399 -0.2546 -0.1067
23471W        W66383  28.417  18.477  25.187 -0.1895  0.1452  0.1700
23472W        W66384  29.066  19.548  25.280 -0.1806 -0.3945  0.1666
23473W        W66385  24.989  20.940  25.875 -0.1142 -0.1588  0.2148
23474W        W66386  27.973  20.810  25.829 -0.1970  0.1669 -0.0491
23475W        W66387  26.201  19.051  28.189 -0.1404  0.2238 -0.0930
23476W        W66388  28.561  20.128  25.930  0.2157 -0.4242 -0.2706
23477W        W66389  29.499  21.318  26.294 -0.1815 -0.3715 -0.1009
23478W        W66390  27.996  21.012  25.369 -0.2594 -0.0476  0.2238
23479W        W66391  27.186  19.980  27.598  0.1723 -0.0107 -0.0083
23480W        W66392  26.525  21.419  26.656  0.1877 -0.1517  0.0184
23481W        W66393  27.609  18.818  24.183  0.3218  0.0127  0.0094
23482W        W66394  26.228  17.782  26.293  0.0105  0.0641 -0.0424
23483W        W66395  29.229  20.091  27.288  0.3973  0.1035 -0.1292
23484W        W66396  24.892  19.717  24.069 -0.0236 -0.2026  0.0388
23485W        W66397  25.471  19.071  26.166 -0.0651 -0.0194  0.0649
23486W        W66398  26.073  20.801  24.595 -0.0114  0.2003  0.0927
23487W        W66399  28.270  20.418  25.624 -0.0189  0.0551 -0.2045
23488W        W66400  26.294  19.669  27.017 -0.1156  0.0111 -0.1126
23489W        W66401  28.537  17.359  27.300 -0.0085 -0.3234  0.1688
23490W        W66402  27.128  21.957  26.169 -0.1860 -0.2609  0.2882
23491W        W66403  26.825  20.718  22.578 -0.1903 -0.0514  0.2635
23492W        W66404  24.866  19.161  25.224  0.1123  0.0501  0.3212
23493W        W66405  26.813  21.212  27.007 -0.0130  0.1486  0.1987
23494W        W66406  28.350  18.916  26.383  0.2816  0.2047  0.3252
23495W        W66407  29.451  19.854  26.682  0.3480  0.0942 -0.0840
23496W        W66408  27.099  21.372  26.367  0.3493  0.2012 -0.0056
23497W        W66409  27.479  21.826  26.549  0.0122 -0.1060  0.2460
23498W        W66410  28.252  19.496  27.629  0.0636 -0.1290  0.1540
23499W        W66411  25.491  20.053  26.326 -0.1760  0.0992 -0.2942
23500W        W66412  27.084  22.127  26.730  0.0502  0.0739 -0.3172
23501W        W66413  27.120  21.279  25.355 -0.3451  0.0171 -0.1313
23502W        W66414  28.923  20.905  25.261 -0.0567  0.0178 -0.0283
23503W        W66415  30.169  19.657  26.562 -0.1600  0.1544 -0.3882
23504W        W66416  27.047  22.627  28.043  0.0802 -0.0530  0.0113
23505W        W66417  26.233  21.043  24.093  0.4084  0.1653  0.1077
23506W        W66418  27.508  22.228  29.751  0.2938  0.4984 -0.1593
23507W        W66419  27.341  21.344  26.797 -0.1300  0.0513 -0.2804
23508W        W66420  26.857  20.070  26.801 -0.2429 -0.0845  0.0893
23509W        W66421  27.767  17.939  26.368 -0.2454 -0.1502 -0.5056
23510W        W66422  26.809  21.041  24.270 -0.1032 -0.0238 -0.0727
23511W        W66423  27.169  19.255  24.780  0.0786 -0.1050  0.2366
23512W        W66424  27.003  21.242  28.422  0.1802 -0.2046  0.2272
23513W        W66425  25.865  22.703  26.559  0.0299 -0.2189  0.1563
23514W        W66426  28.173  18.039  27.490  0.1763  0.2787 -0.1355
23515W        W66427  27.185  20.636  24.469  0.1407 -0.0747 -0.1211
23516W        W66428  27.496  18.563  24.818  0.3104  0.0603 -0.0481
23517W        W66429  27.812  19.267  24.180 -0.1808 -0.2045 -0.0299
23518W        W66430  27.965  20.144  26.135 -0.2044  0.2053  0.2058
23519W        W66431  26.321  17.212  27.166 -0.1214  0.0585  0.3478
23520W        W66432  26.964  21.647  26.775 -0.3356  0.2216  0.2507
23521W        W66433  26.754  19.487  26.072 -0.0494  0.3003 -0.0536
23522W        W66434  28.399  22.480  27.254 -0.0644 -0.1738  0.0575
23523W        W66435  27.802  19.397  25.698 -0.2722 -0.2540 -0.1908
23524W        W66436  28.599  20.239  27.134 -0.2046  0.0092  0.0975
23525W        W66437  28.533  20.231  26.632  0.3558 -0.1246  0.0734
23526W        W66438  25.421  19.831  25.885 -0.1474  0.1261 -0.4575
23527W        W66439  28.564  20.358  24.844 -0.0661  0.3733 -0.0851
23528W        W66440  27.900  19.462  24.828  0.1350  0.0231 -0.1067
23529W        W66441  27.082  21.837  24.576  0.1133  0.1181 -0.1318
23530W        W66442  25.053  20.154  24.967 -0.1921  0.0463  0.0285
23531W        W66443  25.538  21.000  26.769 -0.2351  0.2790  0.1932
23532W        W66444  26.313  20.849  27.692  0.0608 -0.0779 -0.0734
23533W        W66445  27.602  18.833  25.255 -0.2988 -0.1743  0.1186
23534W        W66446  28.715  20.871  28.337  0.1634 -0.0281  0.0720
23535W        W66447  25.668  21.919  26.796 -0.1229  0.1418 -0.1063
23536W        W66448  28.684  17.801  25.768  0.0726  0.0895 -0.1667
23537W        W66449  27.309  20.892  26.188 -0.1044 -0.2674  0.0386
23538W        W66450  29.059  21.085  27.477  0.1689 -0.1502 -0.0053
23539W        W66451  28.527  19.038  25.350  0.2871 -0.1128 -0.2932
23540W        W66452  28.023  17.492  26.304  0.1451  0.0012  0.0389
23541W        W66453  28.422  16.875  25.169 -0.0563  0.0926  0.0130
23542W        W66454  26.710  20.122  24.436  0.0348  0.3435 -0.0043
23543W        W66455  26.002  20.873  25.124  0.2930 -0.1246 -0.0198
23544W        W66456  28.974  20.572  26.346  0.2289  0.1757 -0.1927
23545W        W66457  29.488  19.755  24.539  0.1403  0.0287  0.3141
23546W        W66458  25.978  21.595  27.464  0.1091 -0.0640 -0.1070
23547W        W66459  27.683  20.543  27.375  0.0357 -0.0291  0.0435
23548W        W66460  27.874  19.777  27.719 -0.0837 -0.0185  0.0348
23549W        W66461  26.782  22.243  25.914  0.0382  0.0178 -0.0920
23550W        W66462  25.014  21.531  27.125 -0.0800 -0.0255 -0.0695
23551W        W66463  25.538  20.058  23.398  0.0419  0.1218 -0.1694
23552W        W66464  26.394  18.645  26.455  0.2231  0.2975 -0.0455
23553W        W66465  26.629  20.611  26.800  0.0580  0.0506 -0.0204
23554W        W66466  28.830  18.587  25.573  0.2549  0.0038 -0.2269
23555W        W66467  26.123  18.322  26.162 -0.1137  0.0696  0.3235
23556W        W66468  27.591  17.145  25.920 -0.1054 -0.2135 -0.3369
23557W        W66469  26.310  20.381  25.890  0.4751 -0.3118 -0.1296
23558W        W66470  28.466  21.153  25.047 -0.0770  0.0331  0.1857
23559W        W66471  27.809  18.940  26.001 -0.0959  0.3596  0.1805
23560W        W66472  28.658  19.429  25.065  0.1290  0.1964  0.2209
23561W        W66473  25.814  20.384  26.211  0.0112 -0.0880  0.0499
23562W        W66474  26.850  20.843  27.404 -0.0860 -0.1522  0.0594
23563W        W66475  26.842  19.750  28.830 -0.3442 -0.1517  0.1677
23564W        W66476  25.999  17.889  25.819  0.0435  0.0375 -0.3152
23565W        W66477  29.536  18.589  26.693 -0.1881 -0.0001  0.0165
23566W        W66478  27.317  18.313  24.134 -0.0845 -0.0203 -0.0277
23567W        W66479  27.432  18.143  26.073 -0.1144 -0.0231  0.1205
23568W        W66480  26.804  19.040  24.241  0.4497  0.0322 -0.3499
23569W        W66481  27.118  20.164  25.708 -0.1475  0.0642 -0.2178
23570W        W66482  28.052  19.011  28.330 -0.1387  0.2604  0.1986
23571W        W66483  27.362  21.974  24.976 -0.3416  0.0404 -0.1154
23572W        W66484  30.428  20.979  26.001  0.3214  0.1020 -0.1413
23573W        W66485  28.194  21.630  26.963  0.4240  0.1879  0.0030
23574W        W66486  26.015  17.678  28.768  0.0604 -0.2701 -0.0348
23575W        W66487  26.698  20.230  24.963  0.1781 -0.0557  0.0798
23576W        W66488  26.821  21.656  25.622 -0.2876 -0.0594 -0.0187
23577W        W66489  26.891  20.950  26.536 -0.3772  0.2493  0.1052
23578W        W66490  25.178  20.590  26.162  0.0386 -0.2372 -0.0157
23579W        W66491  28.442  20.683  26.156 -0.0325 -0.1859 -0.1033
23580W        W66492  27.003  20.834  24.988  0.0449  0.0127  0.0717
23581W        W66493  25.957  21.645  26.448  0.1326  0.1798  0.1299
23582W        W66494  30.077  18.205  26.102 -0.2071  0.1040  0.1614
23583W        W66495  28.040  20.258  28.477  0.1371  0.1858  0.3008
23584W        W66496  27.407  19.838  25.489  0.1615 -0.0651  0.1656
23585W        W66497  28.197  17.919  23.772 -0.0515 -0.1544  0.3216
23586W        W66498  27.637  21.065  27.138  0.0125  0.1203 -0.0801
23587W        W66499  25.637  21.523  25.433  0.1328  0.1113 -0.1078
23588W        W66500  25.886  19.975  26.681  0.4348  0.3034  0.0860
23589W        W66501  27.185  20.432  26.142 -0.0567  0.1176 -0.0200
23590W        W66502  28.724  18.574  26.258 -0.0589  0.0289 -0.1407
23591W        W66503  24.678  20.265  27.141 -0.0278  0.1285 -0.0083
23592W        W66504  27.711  19.263  27.668 -0.0573  0.3036  0.2025
23593W        W66505  26.538  19.613  25.121  0.3504  0.0014 -0.3177
23594W        W66506  25.933  21.090  27.273  0.2680  0.0447  0.0268
23595W        W66507  25.997  19.265  25.775 -0.1948  0.2086  0.0785
23596W        W66508  28.637  17.847  24.471 -0.0071  0.3638 -0.4466
23597W        W66509  28.083  21.246  27.258  0.4061  0.1899 -0.1787
23598W        W66510  27.802  19.067  26.498 -0.2793 -0.0090  0.2482
23599W        W66511  27.171  19.871  24.282  0.0817 -0.1101 -0.2518
23600W        W66512  28.239  18.981  24.367 -0.2085  0.2078 -0.1377
23601W        W66513  25.431  21.657  26.302 -0.0563 -0.4958  0.0751
23602W        W66514  28.367  20.673  25.197  0.0888 -0.2227  0.0532
23603W        W66515  27.190  20.838  25.660  0.1248 -0.0632 -0.1043
23604W        W66516  27.806  18.591  23.564  0.0292  0.1514  0.2411
23605W        W66517  29.265  20.908  26.127  0.0140  0.0512 -0.0434
23606W        W66518  24.504  21.435  25.782 -0.0103  0.4116  0.0560
23607W        W66519  28.602  19.658  27.339  0.0001  0.0712 -0.0250
23608W        W66520  28.014  19.964  26.630 -0.0143  0.0745  0.0715
23609W        W66521  26.660  18.547  26.068 -0.2202 -0.3151  0.1835
23610W        W66522  27.880  19.782  24.221 -0.0954  0.1222  0.1421
23611W        W66523  29.161  18.172  26.374  0.4686  0.2208  0.1399
23612W        W66524  26.452  21.030  24.885  0.1067 -0.2217  0.1322
23613W        W66525  28.255  17.930  26.563 -0.0654  0.1934 -0.0109
23614W        W66526  28.067  18.939  27.322 -0.0402 -0.1199 -0.0633
23615W        W66527  27.748  19.228  26.972  0.0597  0.0870  0.0437
23616W        W66528  30.538  19.157  26.143  0.1041  0.0056  0.0229
23617W        W66529  28.008  19.216  25.260 -0.2698  0.0593  0.1894
23618W        W66530  27.209  20.522  27.608 -0.1689  0.3631  0.0773
23619W        W66531  25.639  20.613  22.163 -0.1300  0.1380 -0.0438
23620W        W66532  26.541  19.212  27.777 -0.1610 -0.1109  0.2363
23621W        W66533  26.411  19.730  27.631  0.0553 -0.0093 -0.2284
23622W        W66534  24.461  21.826  27.920 -0.3391  0.1152  0.0846
23623W        W66535  28.606  21.865  26.389  0.1424  0.1223 -0.2466
23624W        W66536  27.363  19.011  25.619 -0.0969 -0.1279  0.1090
23625W        W66537  28.428  18.674  28.893 -0.1293  0.1580 -0.0743
23626W        W66538  27.172  18.841  24.502 -0.1452  0.2325  0.1492
23627W        W66539  27.311  21.499  24.956  0.0565  0.2384  0.1106
23628W        W66540  27.540  19.564  24.495 -0.2209  0.1689 -0.2425
23629W        W66541  27.321  19.364  25.989 -0.1588  0.2746  0.1806
23630W        W66542  26.444  20.813  26.413  0.3004  0.0208 -0.0331
23631W        W66543  26.249  22.079  23.932 -0.2955  0.1433 -0.1544
23632W        W66544  28.007  21.467  27.903  0.0703 -0.3944 -0.2846
23633W        W66545  26.375  21.478  25.695  0.0451  0.1440  0.0102
23634W        W66546  28.455  17.049  26.476  0.0884  0.0168  0.1219
23635W        W66547  25.832  21.474  26.984  0.0079  0.0604  0.0844
23636W        W66548  27.559  19.157  23.765  0.0599  0.2728  0.0284
23637W        W66549  25.679  19.970  25.417 -0.3627 -0.1475  0.0361
23638W        W66550  27.852  18.346  25.339 -0.2742 -0.0411  0.2638
23639W        W66551  27.760  18.996  24.677 -0.0329 -0.2175 -0.2046
23640W        W66552  25.894  18.762  25.980 -0.2066  0.5019 -0.0976
23641W        W66553  27.819  18.729  26.878  0.1259  0.1351  0.1121
23642W        W66554  25.203  21.959  26.694 -0.1244  0.1743 -0.0847
23643W        W66555  28.351  20.101  27.599  0.2022  0.0734 -0.1777
23644W        W66556  27.076  18.048  25.722 -0.2542  0.1639 -0.1520
23645W        W66557  27.503  20.454  25.723  0.0484 -0.1568 -0.2504
23646W        W66558  27.097  21.663  28.874 -0.0221 -0.1462 -0.1657
23647W        W66559  26.012  20.210  23.729 -0.0118  0.1601 -0.0174
23648W        W66560  28.668  19.414  26.151  0.3226  0.0282  0.1730
23649W        W66561  25.655  19.528  26.189 -0.1395 -0.2584 -0.1697
23650W        W66562  26.456  20.931  25.413  0.0793 -0.0404 -0.0110
23651W        W66563  28.671  21.609  26.822 -0.0104 -0.0343 -0.0635
23652W        W66564  25.673  21.008  24.739 -0.1023  0.2664  0.1358
23653W        W66565  27.816  21.488  26.626  0.1796  0.1023  0.0187
23654W        W66566  27.089  20.945  27.954 -0.2229  0.2480  0.3555
23655W        W66567  29.024  20.088  26.812 -0.0845  0.2109 -0.0050
23656W        W66568  27.450  19.604  27.357 -0.0919 -0.0203 -0.1115
23657W        W66569  25.845  18.714  24.425 -0.0811 -0.0533  0.1435
23658W        W66570  26.098  20.121  25.115  0.1663 -0.0697  0.0463
23659W        W66571  27.842  19.996  25.653 -0.0937 -0.3265  0.0537
23660W        W66572  26.685  18.643  28.484  0.0755 -0.0015  0.0830
23661W        W66573  27.528  21.371  28.027  0.0639 -0.0394 -0.0308
23662W        W66574  26.977  18.705  27.060  0.0650 -0.1885 -0.1099
23663W        W66575  28.822  22.675  24.823 -0.1320 -0.1409  0.0868
23664W        W66576  27.377  18.400  27.684 -0.3580 -0.0841  0.4526
23665W        W66577  26.940  20.496  25.338 -0.1043 -0.1065 -0.0948
23666W        W66578  25.011  20.170  25.913 -0.1502  0.1243 -0.0473
23667W        W66579  25.381  21.261  25.884 -0.1200 -0.1921  0.0350
23668W        W66580  27.201  19.243  26.890 -0.1779 -0.3395  0.0924
23669W        W66581  25.474  21.836  25.845 -0.0742 -0.1234  0.0581
23670W        W66582  27.536  20.511  24.837  0.0599  0.0200  0.4185
23671W        W66583  26.301  21.840  26.110 -0.1485  0.1800  0.1271
23672W        W66584  28.213  18.114  24.275 -0.1856 -0.1323  0.1821
23673W        W66585  28.015  20.926  24.860  0.4907 -0.1282  0.2876
23674W        W66586  28.108  19.443  26.536 -0.0417  0.0387 -0.2355
23675W        W66587  28.899  18.738  27.582  0.1769 -0.2285 -0.1882
23676W        W66588  28.740  19.274  24.485  0.1146  0.0653 -0.0217
23677W        W66589  28.234  18.324  27.051  0.2380 -0.0930 -0.0456
23678W        W66590  26.898  19.654  27.253  0.1918 -0.0188  0.1120
23679W        W66591  29.136  20.493  25.050 -0.0454 -0.1256  0.3153
23680W        W66592  25.919  19.499  26.673 -0.0985  0.0773 -0.1842
23681W        W66593  28.882  22.400  27.538 -0.0082  0.2848 -0.0022
23682W        W66594  24.893  20.899  27.981  0.2320  0.0319 -0.1608
23683W        W66595  27.354  17.735  24.684  0.0648 -0.1933 -0.2191
23684W        W66596  26.228  18.311  24.702  0.0029  0.2212 -0.0242
23685W        W66597  26.912  19.956  26.195 -0.0534  0.0070  0.3291
23686W        W66598  28.538  20.869  25.679  0.1117 -0.1376 -0.0966
23687W        W66599  27.883  19.951  24.728  0.0422 -0.3374 -0.0506
23688W        W66600  28.930  18.119  25.299 -0.4416 -0.1572 -0.0070
23689W        W66601  26.369  19.336  26.560  0.0953 -0.1020 -0.0009
23690W        W66602  28.764  20.434  25.432 -0.1021  0.0042  0.1014
23691W        W66603  26.378  19.802  24.688 -0.1278 -0.3554  0.0782
23692W        W66604  25.562  19.443  25.524  0.1377 -0.0889 -0.0354
23693W        W66605  27.171  18.825  28.630  0.0736 -0.2331 -0.3386
23694W        W66606  28.936  19.655  26.575  0.1643 -0.0838 -0.0634
23695W        W66607  26.496  17.995  25.913  0.1559 -0.2289  0.0837
23696W        W66608  28.611  19.097  27.341  0.0092  0.1027 -0.0577
23697W        W66609  28.168  19.450  27.126  0.3639  0.1575  0.0529
23698W        W66610  28.238  20.570  27.594 -0.4115  0.1252  0.0366
23699W        W66611  26.981  20.403  27.148 -0.0827 -0.3151  0.2726
23700W        W66612  28.995  21.502  27.225 -0.1396 -0.3477  0.0171
23701W        W66613  29.165  19.255  25.929 -0.3771 -0.1920 -0.2098
23702W        W66614  30.463  18.625  25.749 -0.0849  0.0654  0.3244
23703W        W66615  29.421  18.866  25.160 -0.2037 -0.2034  0.0163
23704W        W66616  26.779  19.984  23.922  0.2893 -0.1930 -0.1068
23705W        W66617  24.662  18.840  26.758  0.0291  0.0454 -0.0697
23706W        W66618  27.693  19.154  28.723  0.2331  0.0879  0.2463
23707W        W66619  27.609  19.624  23.824 -0.1954 -0.1308  0.1244
23708W        W66620  27.493  19.167  28.261 -0.1071 -0.3296  0.1972
23709W        W66621  26.466  21.763  24.860  0.1924  0.1040  0.0264
23710W        W66622  27.094  19.518  26.413  0.1298 -0.0912  0.0367
23711W        W66623  28.083  18.249  24.830 -0.0533 -0.0711  0.0174
23712W        W66624  25.074  19.842  26.255  0.3462 -0.0055  0.1030
23713W        W66625  26.764  21.362  27.943  0.2104 -0.2775  0.1464
23714W        W66626  26.368  19.918  23.551  0.0531  0.0703  0.0408
23715W        W66627  27.138  20.210  24.726  0.1866  0.3377 -0.1033
23716W        W66628  27.978  20.374  26.933 -0.2953 -0.2805  0.0174
23717W        W66629  28.819  19.206  27.810 -0.2033 -0.1517 -0.0729
23718W        W66630  27.804  16.555  24.752 -0.1375 -0.0041 -0.0102
23719W        W66631  28.613  19.911  28.401  0.0748 -0.1559  0.0697
23720W        W66632  26.178  21.468  25.149 -0.3448 -0.0241 -0.1646
23721W        W66633  28.106  18.044  26.000 -0.0518  0.0036  0.0124
23722W        W66634  25.741  21.245  26.329  0.0360  0.0248  0.5066
23723W        W66635  24.656  21.382  25.088 -0.0867  0.2473  0.0115
23724W        W66636  27.868  22.598  26.572 -0.2289  0.0088  0.1365
23725W        W66637  28.141  19.967  27.166 -0.0975 -0.0652 -0.1067
23726W        W66638  28.174  18.439  26.520 -0.0842 -0.0399  0.0582
23727W        W66639  26.108  19.715  25.493  0.0078 -0.1640  0.2359
23728W        W66640  29.200  20.601  27.372  0.2790  0.2546  0.1764
23729W        W66641  27.228  21.239  27.367  0.2884  0.5758  0.0090
23730W        W66642  26.465  19.888  26.420  0.3190 -0.0066  0.0512
23731W        W66643  27.622  21.031  26.535 -0.1628 -0.1149  0.1424
23732W        W66644  27.835  19.679  25.277 -0.4176 -0.0749 -0.0496
23733W        W66645  26.803  21.156  25.746 -0.3919  0.2169 -0.2790
23734W        W66646  25.530  20.662  27.127 -0.2409  0.0637  0.4524
23735W        W66647  27.411  20.922  28.335  0.1059  0.0239  0.0030
23736W        W66648  26.785  19.013  26.350 -0.0670  0.2098 -0.1758
23737W        W66649  26.733  19.590  24.316  0.0503 -0.1679 -0.0816
23738W        W66650  26.775  20.614  25.812  0.0127  0.0155  0.1460
23739W        W66651  25.739  21.540  27.907  0.1061 -0.2043  0.0331
23740W        W66652  26.009  20.310  27.104  0.0291  0.0890  0.4409
23741W        W66653  25.274  21.884  25.280 -0.3369  0.2179  0.0423
23742W        W66654  28.371  19.699  24.770  0.2421 -0.0020  0.1418
23743W        W66655  28.145  21.674  26.232  0.0595 -0.1607  0.1043
23744W        W66656  28.433  22.992  27.060  0.1446  0.0634  0.1221
23745W        W66657  27.514  18.735  22.761 -0.3519  0.1297 -0.1416
23746W        W66658  26.089  21.112  26.709  0.3082  0.0755  0.0096
23747W        W66659  24.987  22.107  24.016  0.0212 -0.0741  0.1180
23748W        W66660  29.029  21.219  24.738  0.0256  0.0115  0.0963
23749W        W66661  27.114  22.734  23.609 -0.0713 -0.0912 -0.1917
23750W        W66662  28.890  20.302  27.630  0.2078 -0.0482  0.0564
23751W        W66663  28.563  16.330  25.360 -0.2416  0.1773 -0.0293
23752W        W66664  27.993  19.653  26.083  0.0772  0.2427 -0.2680
23753W        W66665  27.531  18.109  24.974 -0.1941 -0.1008 -0.0882
23754W        W66666  26.485  22.806  28.680 -0.2075 -0.0159  0.0577
23755W        W66667  26.781  19.553  26.768 -0.1499  0.0017  0.4078
23756W        W66668  27.154  19.472  23.257  0.2501 -0.1935  0.0454
23757W        W66669  26.461  20.005  28.081 -0.1110 -0.0350  0.0721
23758W        W66670  31.587  20.091  26.602  0.0711  0.2193 -0.1155
23759W        W66671  26.286  21.769  28.662 -0.1887 -0.2044 -0.0511
23760W        W66672  29.575  21.507  24.724  0.0342  0.5653  0.1268
23761W        W66673  25.662  18.060  25.254  0.3030 -0.1334  0.1494
23762W        W66674  25.844  20.464  24.865  0.0890 -0.0404 -0.1059
23763W        W66675  28.052  17.125  24.653 -0.1499 -0.2164 -0.0222
23764W        W66676  28.309  20.076  24.478 -0.2063 -0.1854  0.2690
23765W        W66677  26.749  18.809  25.677  0.0160 -0.0776  0.2338
23766W        W66678  26.607  22.452  25.388 -0.4737 -0.2028  0.2754
23767W        W66679  27.203  19.754  26.933 -0.1378 -0.0816  0.0848
23768W        W66680  25.597  22.396  26.971 -0.1526  0.3403 -0.2881
23769W        W66681  26.716  19.514  22.909 -0.1489  0.0930 -0.1163
23770W        W66682  29.037  19.093  25.472 -0.2782  0.0386  0.1928
23771W        W66683  25.509  21.452  27.367 -0.2681  0.0948 -0.1955
23772W        W66684  28.755  18.958  25.907  0.1111  0.0044  0.0948
23773W        W66685  26.666  19.200  24.697 -0.2742 -0.0349  0.1741
23774W        W66686  26.946  18.473  23.586  0.0206 -0.0384 -0.0156
23775W        W66687  27.351  19.996  26.532 -0.3082 -0.1492  0.1738
23776W        W66688  25.928  20.638  26.651  0.1358  0.0159  0.2203
23777W        W66689  28.731  20.801  24.816  0.0540  0.1251 -0.2397
23778W        W66690  29.049  19.501  28.371  0.0588  0.2921  0.0584
23779W        W66691  28.753  19.835  24.280  0.0074 -0.0099  0.2246
23780W        W66692  27.874  23.989  28.148  0.0410  0.3358 -0.2737
23781W        W66693  25.872  19.713  25.028  0.4538  0.0311  0.0305
23782W        W66694  27.085  19.489  23.802  0.0857  0.0929 -0.1449
23783W        W66695  24.677  20.587  26.026 -0.0923 -0.4197 -0.1015
23784W        W66696  26.400  20.984  27.201  0.0507  0.2083 -0.0937
23785W        W66697  29.283  20.659  27.876 -0.1948 -0.0133  0.0469
23786W        W66698  26.167  19.536  24.297  0.4265  0.3359  0.0622
23787W        W66699  29.052  20.615  23.774  0.0568  0.0350  0.1302
23788W        W66700  30.328  19.902  24.990  0.3110  0.1643 -0.3324
23789W        W66701  26.444  23.117  24.843  0.2955 -0.2107 -0.1146
23790W        W66702  28.405  19.830  26.328 -0.1032  0.1031  0.0910
23791W        W66703  28.729  20.711  27.364 -0.0397  0.0429 -0.1207
23792W        W66704  25.126  20.060  27.241 -0.1265 -0.0394 -0.1769
23793W        W66705  28.434  22.059  27.625 -0.2278 -0.1097 -0.0079
23794W        W66706  28.792  20.800  27.854 -0.1293  0.1229 -0.2464
23795W        W66707  26.896  17.594  24.502 -0.1670 -0.2177  0.0013
23796W        W66708  26.442  20.484  27.265  0.1183 -0.2718  0.2331
23797W        W66709  25.987  20.382  25.562 -0.0182  0.0342  0.4277
23798W        W66710  28.617  19.290  26.648 -0.1834 -0.0328  0.1089
23799W        W66711  28.275  19.812  28.069  0.0381 -0.2045 -0.2021
23800W        W66712  26.404  21.802  23.445 -0.1054  0.0161 -0.0799
23801W        W66713  29.051  18.994  26.314 -0.2302 -0.0568  0.0678
23802W        W66714  28.023  20.987  27.714 -0.0562 -0.4145 -0.1404
23803W        W66715  27.898  20.977  28.234 -0.4579 -0.2508  0.2909
23804W        W66716  25.522  20.297  25.762 -0.0257 -0.1972 -0.2330
23805W        W66717  27.665  21.715  27.027 -0.1773 -0.1626  0.3740
23806W        W66718  26.872  19.793  24.742 -0.0932  0.0285 -0.1171
23807W        W66719  27.392  20.315  25.253 -0.0569 -0.1791 -0.0572
23808W        W66720  29.145  19.779  25.868  0.0243 -0.1408 -0.0930
23809W        W66721  27.043  18.891  25.149  0.2503 -0.0321  0.3074
23810W        W66722  29.012  21.180  25.750 -0.1461  0.0405  0.3978
23811W        W66723  26.539  19.837  25.805 -0.0690 -0.4779  0.1309
23812W        W66724  28.644  17.539  23.984 -0.2998 -0.0621 -0.0656
23813W        W66725  28.295  17.415  25.277 -0.0744  0.2200  0.0079
23814W        W66726  26.258  20.294  26.685  0.1896 -0.0051 -0.0448
23815W        W66727  27.191  20.517  23.164 -0.0759 -0.2707 -0.1668
23816W        W66728  27.423  19.782  24.959 -0.2135 -0.0656  0.1893
23817W        W66729  27.735  19.722  26.968  0.1590 -0.0545 -0.4466
23818W        W66730  28.435  18.583  27.468 -0.0188 -0.1850  0.1429
23819W        W66731  25.887  20.912  28.000  0.0489  0.3057  0.2077
23820W        W66732  26.689  20.403  26.272  0.2947 -0.2150 -0.4774
23821W        W66733  26.646  18.116  24.874  0.0348 -0.0271 -0.0230
23822W        W66734  27.818  20.561  25.316 -0.2543 -0.1577 -0.1326
23823W        W66735  25.097  18.819  26.498 -0.0850  0.0021 -0.2297
23824W        W66736  25.556  19.086  25.074 -0.0934 -0.2352 -0.0108
23825W        W66737  27.665  21.352  26.181 -0.0047  0.3031  0.0230
23826W        W66738  28.713  21.727  24.579  0.1490  0.1297  0.3468
23827W        W66739  26.187  19.323  24.813 -0.1746 -0.0717  0.1514
23828W        W66740  30.313  19.659  27.090  0.1042  0.2037 -0.1430
23829W        W66741  25.229  20.680  22.462  0.5064  0.0173  0.0893
23830W        W66742  28.455  19.764  26.831 -0.0453  0.1529 -0.0525
23831W        W66743  27.414  19.633  27.923  0.0488 -0.1364 -0.2371
23832W        W66744  25.852  19.260  23.190 -0.2662 -0.0517 -0.2249
23833W        W66745  25.172  19.340  27.211  0.0404  0.2312 -0.1939
23834W        W66746  27.346  21.683  25.479 -0.1021  0.4225  0.1382
23835W        W66747  27.447  22.336  26.374 -0.2259 -0.1737  0.0626
23836W        W66748  27.587  20.409  26.471  0.1567  0.0542 -0.0928
23837W        W66749  27.191  20.854  26.989 -0.3189  0.1623  0.0622
23838W        W66750  26.600  19.216  28.350 -0.1243  0.2335  0.0756
23839W        W66751  27.232  19.303  24.242 -0.0146  0.0304  0.0407
23840W        W66752  26.701  20.361  27.734  0.1766  0.0482  0.2761
23841W        W66753  28.675  19.953  25.089 -0.1299 -0.1943  0.1290
23842W        W66754  29.053  18.179  25.885 -0.3283  0.1262  0.0150
23843W        W66755  27.762  17.987  24.505 -0.3799  0.0474 -0.1727
23844W        W66756  25.992  19.374  27.745  0.3494 -0.0479 -0.1341
23845W        W66757  25.825  20.395  27.921  0.0004 -0.1182 -0.1531
23846W        W66758  29.809  19.819  27.536 -0.2294  0.0715 -0.0105
23847W        W66759  26.970  19.924  25.242  0.3281  0.0703 -0.0284
23848W        W66760  27.974  18.546  24.446  0.1885  0.0730  0.1974
23849W        W66761  26.908  22.875  24.389  0.0432  0.0962 -0.0022
23850W        W66762  25.372  21.484  26.767  0.1144 -0.0349 -0.0040
23851W        W66763  26.511  20.126  25.447 -0.0529 -0.2887 -0.1192
23852W        W66764  27.492  19.336  25.174 -0.0310 -0.0246 -0.0917
23853W        W66765  26.996  19.557  25.649  0.0251 -0.3611 -0.0741
23854W        W66766  28.834  21.010  26.365  0.1397 -0.2995 -0.0546
23855W        W66767  27.113  21.655  24.097  0.1170  0.1385  0.3653
23856W        W66768  29.890  19.409  24.399  0.1077 -0.2504 -0.0757
23857W        W66769  28.045  21.812  27.502 -0.2430 -0.0939 -0.1648
23858W        W66770  28.480  21.662  27.847 -0.1478 -0.2998  0.3658
23859W        W66771  28.527  21.124  27.564 -0.0054  0.0485 -0.0677
23860W        W66772  29.370  20.140  27.759  0.0180 -0.0501 -0.1500
23861W        W66773  26.626  17.265  26.629  0.2997  0.0461  0.0684
23862W        W66774  27.417  21.051  24.638 -0.4633 -0.3080  0.0936
23863W        W66775  25.906  19.984  24.516  0.1782  0.3201  0.1801
23864W        W66776  29.617  18.893  27.324  0.1574  0.5059  0.1217
23865W        W66777  25.002  20.042  26.782  0.1038  0.1501 -0.2539
23866W        W66778  28.859  17.168  25.221  0.0280 -0.0814 -0.5598
23867W        W66779  27.729  22.729  27.631 -0.0222  0.0909 -0.0244
23868W        W66780  27.445  19.845  26.008  0.1395  0.3193 -0.1672
23869W        W66781  25.699  20.341  30.228 -0.0225  0.1195  0.3653
23870W        W66782  26.781  20.223  28.557 -0.1844 -0.1581  0.3552
23871W        W66783  27.853  18.540  27.927  0.0274 -0.0789  0.0443
23872W        W66784  29.320  19.697  27.962 -0.0712  0.0164 -0.3434
23873W        W66785  24.033  19.337  29.764  0.0051 -0.0864 -0.0470
23874W        W66786  28.405  20.741  28.982  0.1429  0.0291  0.0297
23875W        W66787  26.669  18.619  30.721 -0.0906 -0.0997  0.0987
23876W        W66788  27.676  19.561  28.490 -0.3779 -0.0266 -0.0653
23877W        W66789  29.233  21.775  30.841 -0.0969  0.0525  0.1229
23878W        W66790  28.293  19.021  27.807  0.1138 -0.0804 -0.1985
23879W        W66791  26.166  19.015  30.594  0.1417  0.2721 -0.1732
23880W        W66792  26.947  21.846  31.575  0.0009  0.1913  0.0366
23881W        W66793  27.870  17.757  29.087 -0.0550  0.1584 -0.1854
23882W        W66794  24.977  17.572  29.652  0.3191  0.2209  0.0119
23883W        W66795  26.393  20.554  31.334 -0.2537  0.2634 -0.0444
23884W        W66796  25.719  20.584  28.383 -0.1496 -0.0951  0.3646
23885W        W66797  24.710  20.092  29.975 -0.0273  0.0757  0.2626
23886W        W66798  27.240  19.852  28.417  0.1755 -0.0498 -0.2945
23887W        W66799  28.250  22.780  29.013 -0.1068  0.0658  0.3520
23888W        W66800  27.773  18.199  31.223 -0.0787 -0.1141  0.0811
23889W        W66801  28.249  17.454   0.437 -0.0575  0.0140 -0.1501
23890W        W66802  27.384  21.618  29.759  0.2263  0.3354  0.2500
23891W        W66803  27.265  20.401  28.479 -0.0453  0.0020 -0.1543
23892W        W66804  24.765  18.569  29.455 -0.0350  0.0807  0.1594
23893W        W66805  25.498  20.113  31.037 -0.2251  0.2169  0.0932
23894W        W66806  28.037  18.512  29.269  0.0354 -0.0007  0.0117
23895W        W66807  27.774  19.027  30.297  0.4675  0.0724  0.2256
23896W        W66808  26.023  21.620  30.113  0.1941 -0.0459 -0.3232
23897W        W66809  28.127  22.042  28.020  0.2117  0.0989  0.0982
23898W        W66810  28.390  19.262   0.562  0.2061  0.1114 -0.1493
23899W        W66811  25.479  20.699  28.787 -0.1202 -0.0751  0.1302
23900W        W66812  23.412  21.831  28.024 -0.0620 -0.0200  0.1057
23901W        W66813  25.928  20.643  27.462  0.1439  0.1160  0.1009
23902W        W66814  29.270  19.822  29.076 -0.0258  0.0915 -0.0094
23903W        W66815  29.231  22.120  30.407 -0.0866  0.1459 -0.2213
23904W        W66816  27.574  21.354  31.610 -0.0908 -0.1400  0.0849
23905W        W66817  25.017  21.987  28.420  0.2169  0.1863  0.0153
23906W        W66818  27.359  21.924   0.403 -0.0277  0.0264 -0.1627
23907W        W66819  26.185  21.594  31.648 -0.0106 -0.4431  0.2099
23908W        W66820  26.165  20.021  30.392 -0.2737  0.2727 -0.1113
23909W        W66821  27.045  19.430  29.221  0.0105 -0.0372  0.1268
23910W        W66822  28.312  21.189  28.128  0.1244 -0.0267  0.2433
23911W        W66823  26.650  21.236  29.390 -0.0584 -0.1000 -0.1507
23912W        W66824  25.796  21.600  31.084 -0.1602  0.1688  0.3640
23913W        W66825  25.436  20.207  28.232  0.1407 -0.2985 -0.1296
23914W        W66826  28.830  17.613  31.687 -0.0791  0.0345 -0.2128
23915W        W66827  27.050  21.638  29.367  0.1873 -0.3864  0.3089
23916W        W66828  29.284  20.210  28.716 -0.0975  0.1236  0.2349
23917W        W66829  27.143  19.353  28.541  0.0933 -0.2488 -0.2840
23918W        W66830  28.011  19.365  29.076  0.0147 -0.2710  0.0158
23919W        W66831  26.763  19.251  28.825  0.1294  0.2350 -0.0422
23920W        W66832  26.220  21.264  28.981  0.1493  0.0543 -0.0814
23921W        W66833  26.635  19.161  30.930 -0.0546  0.1465 -0.1853
23922W        W66834  29.454  20.884  31.676 -0.2926 -0.0764 -0.1000
23923W        W66835  28.504  19.363  28.168 -0.1648 -0.0364  0.1751
23924W        W66836  26.772  20.584  30.677 -0.1029 -0.1558 -0.0401
23925W        W66837  26.787  21.696  30.445 -0.0863  0.0646  0.1560
23926W        W66838  25.644  19.824  30.142 -0.2098 -0.1132 -0.3530
23927W        W66839  27.527  23.009  28.774  0.0730 -0.0029  0.1736
23928W        W66840  28.560  21.697  28.817  0.0058 -0.0836 -0.1030
23929W        W66841  26.605  21.615  29.053 -0.1786  0.0288  0.0297
23930W        W66842  24.525  19.530  28.064  0.3965 -0.2709 -0.0546
23931W        W66843  26.011  20.746  31.558 -0.0600  0.0618 -0.1922
23932W        W66844  24.360  18.967  29.679  0.2145 -0.2502 -0.0573
23933W        W66845  25.912  18.072  27.421  0.1618  0.0132 -0.2180
23934W        W66846  29.087  20.680  30.272  0.0861 -0.2360  0.1004
23935W        W66847  25.576  19.882  29.238  0.1101  0.0864  0.3509
23936W        W66848  27.211  20.083  29.851 -0.0600 -0.2692  0.1074
23937W        W66849  25.546  20.561  31.489  0.0733 -0.1202 -0.1599
23938W        W66850  28.087  20.384  29.473  0.1918 -0.0607 -0.2660
23939W        W66851  30.606  21.684  27.814 -0.0900 -0.1667 -0.0137
23940W        W66852  28.595  18.799  30.265 -0.0636  0.2430 -0.0624
23941W        W66853  28.607  19.230  30.560 -0.0427 -0.4437 -0.0218
23942W        W66854  25.926  21.915  28.236  0.1094 -0.5813  0.0753
23943W        W66855  25.595  19.365  29.229 -0.1912 -0.0170  0.1884
23944W        W66856  27.656  20.634  28.674 -0.1452  0.0113 -0.0548
23945W        W66857  27.684  18.018  27.245 -0.0860 -0.2166 -0.1687
23946W        W66858  25.399  21.876  31.166  0.1576  0.0384  0.0162
23947W        W66859  26.831  20.207  31.724 -0.0318 -0.0513 -0.0301
23948W        W66860  27.262  20.776  30.917 -0.1461 -0.1183 -0.0281
23949W        W66861  26.524  21.402  28.450  0.1818 -0.1369 -0.1373
23950W        W66862  25.349  21.250  27.986  0.1326 -0.1874  0.2004
23951W        W66863  27.107  21.002  29.524  0.2087  0.1058  0.0390
23952W        W66864  25.345  17.210  29.514 -0.0721 -0.1661  0.1536
23953W        W66865  27.786  21.687  30.699  0.0245  0.0766  0.1328
23954W        W66866  28.564  18.849  28.211  0.0644  0.0319 -0.2039
23955W        W66867  25.586  18.872  29.367  0.1415 -0.1401 -0.2002
23956W        W66868  26.847  18.780  28.960  0.3293  0.1702  0.0142
23957W        W66869  26.112  20.877  28.537  0.2028 -0.0110 -0.3192
23958W        W66870  28.636  22.054  28.118  0.0885  0.1489  0.1665
23959W        W66871  28.782  20.067  28.864 -0.3013 -0.1518  0.1800
23960W        W66872  28.412  22.635  29.490 -0.0532  0.0704  0.3221
23961W        W66873  25.364  19.765  29.725 -0.0016  0.0621  0.2636
23962W        W66874  27.305  19.709  28.948  0.0985 -0.0103 -0.0220
23963W        W66875  25.365  19.551  30.553  0.0144  0.1501  0.0978
23964W        W66876  25.202  18.468  29.152 -0.2476 -0.1479 -0.1575
23965W        W66877  27.400  20.343  31.099 -0.1062  0.2676 -0.0631
23966W        W66878  24.963  18.496  28.259 -0.1414  0.2873 -0.2345
23967W        W66879  27.701  18.620  28.898 -0.1561  0.2113 -0.0200
23968W        W66880  25.917  19.016  29.036 -0.0523  0.0334  0.2325
23969W        W66881  25.178  19.893  28.940 -0.0299 -0.0981  0.1228
23970W        W66882  27.268  19.573  29.687 -0.2901  0.0831 -0.2897
23971W        W66883  25.999  22.840  27.820 -0.1517  0.2631  0.0128
23972W        W66884  29.359  22.225  30.962  0.2143  0.0478  0.1959
23973W        W66885  28.322  22.297  29.100 -0.0362  0.4056  0.0652
23974W        W66886  26.114  19.486  30.422  0.3681 -0.3885 -0.3285
23975W        W66887  24.679  19.133  29.234  0.3080 -0.0769 -0.1201
23976W        W66888  24.669  22.786  30.121 -0.0327 -0.0593 -0.1777
23977W        W66889  26.680  21.479  31.207  0.1058 -0.1785 -0.2573
23978W        W66890  26.319  20.526  29.274 -0.1826  0.0455  0.2042
23979W        W66891  28.513  21.356  31.062  0.1337 -0.2452  0.3013
23980W        W66892  28.068  19.894  29.390  0.0504 -0.0254 -0.0956
23981W        W66893  25.833  19.554  29.601  0.0514 -0.2297 -0.1911
23982W        W66894  28.449  19.207  31.673 -0.0251 -0.4140  0.1420
23983W        W66895  27.543  20.856  29.556 -0.0381 -0.0012  0.0386
23984W        W66896  27.574  19.928  29.540 -0.1405  0.2181  0.0071
23985W        W66897  25.475  18.029  27.609 -0.1580 -0.4340  0.3098
23986W        W66898  28.359  22.018  30.093 -0.2317  0.0921  0.0490
23987W        W66899  26.190  22.335  28.554  0.0838 -0.0691  0.1798
23988W        W66900  25.735  18.850  29.829 -0.1547 -0.3221  0.1998
23989W        W66901  27.298  22.906  30.239 -0.1253  0.0830  0.1990
23990W        W66902  28.963  19.098  28.679  0.0579 -0.0657 -0.0021
23991W        W66903  25.262  20.131  30.033  0.0111 -0.3042  0.0380
23992W        W66904  26.514  18.453  29.618  0.0956 -0.0376  0.2186
23993W        W66905  26.151  19.339  28.661 -0.2109  0.3226  0.3200
23994W        W66906  24.525  20.158  30.628  0.0002 -0.0526  0.0262
23995W        W66907  27.324  17.671  28.441 -0.0566 -0.3000  0.0113
23996W        W66908  29.488  18.334  28.578  0.0141  0.1184 -0.0207
23997W        W66909  26.857  21.335   0.498  0.0445 -0.2219  0.1509
23998W        W66910  29.030  21.784  28.069 -0.0216  0.0151  0.1104
23999W        W66911  28.033  20.264  27.954  0.1902  0.1038 -0.1174
24000W        W66912  29.377  18.496  27.220 -0.0071  0.0264  0.1691
24001W        W66913  25.161  19.102  30.672 -0.2905 -0.2375 -0.0590
24002W        W66914  26.710  22.019  29.409  0.3687  0.0999  0.2907
24003W        W66915  28.824  22.758  30.967 -0.1504 -0.0347 -0.4089
24004W        W66916  27.565  20.257  27.773  0.2329 -0.0520 -0.3085
24005W        W66917  29.219  23.036  28.391  0.1711 -0.1810  0.5218
24006W        W66918  25.927  20.662  29.679  0.0522  0.1334  0.0936
24007W        W66919  27.551  20.561  31.882 -0.0174  0.2182  0.1294
24008W        W66920  27.338  21.169  29.964 -0.5692  0.0762  0.0132
24009W        W66921  27.509  17.450  29.233 -0.0570  0.2244  0.1693
24010W        W66922  26.909  19.642  27.817 -0.0308 -0.1389  0.1706
24011W        W66923  27.287  16.988  29.108  0.0603 -0.1247  0.0170
24012W        W66924  26.934  22.112  27.509  0.2423 -0.0122 -0.1761
24013W        W66925  28.306  19.253  30.103 -0.1714  0.2604 -0.0148
24014W        W66926  27.589  20.114  28.693  0.0609 -0.2207 -0.1589
24015W        W66927  27.592  19.525  30.070  0.0128  0.2182 -0.3815
24016W        W66928  27.073  19.752  30.217  0.1721 -0.4161 -0.0841
24017W        W66929  28.139  18.001  29.567 -0.1000  0.1593  0.2240
24018W        W66930  27.028  20.786  29.964 -0.0702 -0.1139 -0.0785
24019W        W66931  25.038  19.768  27.608  0.3312 -0.0341 -0.0672
24020W        W66932  26.695  19.684  31.186 -0.2404  0.1514 -0.0763
24021W        W66933  26.602  18.727  31.970 -0.0348  0.1496  0.0880
24022W        W66934  25.568  21.846  30.680  0.2428  0.1067 -0.1978
24023W        W66935  28.366  22.855   0.637  0.0264 -0.1061 -0.2728
24024W        W66936  29.292  20.438  29.286  0.2146 -0.0071  0.0595
24025W        W66937  25.442  19.107  31.084  0.1924 -0.2379 -0.0221
24026W        W66938  26.444  18.167  28.248 -0.2344 -0.0568 -0.1228
24027W        W66939  26.997  23.064  28.870  0.1028  0.4489 -0.1326
24028W        W66940  25.877  22.189  28.971 -0.0414 -0.1473 -0.0209
24029W        W66941  26.772  16.556  30.027  0.0206  0.0226  0.0796
24030W        W66942  27.396  21.251  29.216  0.1734  0.0511  0.2580
24031W        W66943  26.214  21.032  29.425 -0.1577 -0.0594  0.2987
24032W        W66944  26.720  21.352  31.719  0.1643 -0.1979 -0.2748
24033W        W66945  26.036  23.079  28.845 -0.0294 -0.1725 -0.0143
24034W        W66946  28.098  19.064  30.695  0.1397  0.0015 -0.0580
24035W        W66947  25.540  21.345  29.266  0.2170 -0.0807  0.0417
24036W        W66948  26.327  19.205  27.245 -0.5767 -0.0716 -0.0555
24037W        W66949  24.190  18.790  27.285  0.2019 -0.0218  0.2824
24038W        W66950  27.846  16.469  28.928  0.2718 -0.3451 -0.1006
24039W        W66951  28.341  21.664  28.338  0.1656  0.0888  0.0943
24040W        W66952  25.769  19.641  28.746 -0.0985  0.0544  0.3363
24041W        W66953  28.042  18.196  28.874 -0.0949  0.0870  0.0694
24042W        W66954  25.992  20.019  29.497 -0.0642 -0.1681 -0.0607
24043W        W66955  27.221  19.447  31.939 -0.2448 -0.1840 -0.0641
24044W        W66956  27.617  18.649  28.415 -0.0700 -0.1940  0.0565
24045W        W66957  27.885  22.034  30.388 -0.1737 -0.2582  0.0952
24046W        W66958  25.432  20.647   1.405 -0.0545  0.0626 -0.0231
24047W        W66959  25.568  20.974  27.598  0.1486 -0.0206  0.1194
24048W        W66960  28.088  20.113  31.166  0.0209 -0.1026  0.0823
24049W        W66961  25.914  20.062  28.396 -0.0746 -0.0255  0.1117
24050W        W66962  24.932  21.329  27.620 -0.0257 -0.0996  0.0511
24051W        W66963  26.865  20.651  29.205 -0.0467 -0.1965 -0.0914
24052W        W66964  27.769  21.321  29.722 -0.0672 -0.2803  0.1198
24053W        W66965  24.492  21.277  29.690 -0.0475  0.6153  0.0980
24054W        W66966  25.804  18.943  31.320 -0.3105 -0.1203 -0.2492
24055W        W66967  28.326  20.223  30.708  0.1313  0.3049 -0.1803
24056W        W66968  26.199  19.167  30.003 -0.0752 -0.0387 -0.0865
24057W        W66969  26.602  19.482  29.746  0.2185 -0.1445 -0.0809
24058W        W66970  26.181  18.805  29.451  0.3213 -0.0403  0.3258
24059W        W66971  27.211  21.422  31.279 -0.2287  0.0626  0.1230
24060W        W66972  25.821  19.901  30.717 -0.2282  0.0763 -0.6365
24061W        W66973  25.382  21.066  31.652  0.3072 -0.1248 -0.4376
24062W        W66974  27.696  20.025  30.135 -0.0358  0.0896  0.1556
24063W        W66975  29.433  21.248  29.467 -0.1835  0.0030 -0.0432
24064W        W66976  27.957  19.584  29.756  0.0840 -0.1016 -0.0429
24065W        W66977  26.155  20.403  28.747  0.2526 -0.0075 -0.3147
24066W        W66978  26.370  19.807  28.648 -0.2822  0.0383  0.0550
24067W        W66979  26.242  20.489  28.167 -0.2512  0.0151  0.0790
24068W        W66980  26.665  18.980  29.827  0.1457 -0.0996  0.0737
24069W        W66981  25.531  21.154  30.764  0.0270  0.0408 -0.0835
24070W        W66982  27.367  21.244  28.742 -0.3245 -0.2145 -0.1636
24071W        W66983  25.860  20.955  29.088  0.0922 -0.1172 -0.1218
24072W        W66984  29.703  17.915  29.010 -0.2424 -0.0806  0.0221
24073W        W66985  27.697  19.969  28.184  0.0680  0.1311  0.0529
24074W        W66986  26.713  20.338  29.576  0.0073  0.1835  0.1886
24075W        W66987  27.568  20.130  31.554  0.1890 -0.1831  0.0028
24076W        W66988  28.799  21.374  28.476  0.2766 -0.0453 -0.0116
24077W        W66989  28.297  18.287  31.163  0.1359  0.0814 -0.2205
24078W        W66990  27.218  17.986  29.314 -0.0677 -0.0403 -0.0598
24079W        W66991  28.062  21.577  28.837  0.0679 -0.2750  0.0575
24080W        W66992  24.262  19.379  30.616 -0.1910  0.2052  0.1611
24081W        W66993  27.863  21.528   0.725 -0.2724 -0.3095  0.0181
24082W        W66994  25.810  20.447  29.162 -0.0703  0.1813 -0.1735
24083W        W66995  27.670  18.176  29.317  0.0458  0.3764  0.2059
24084W        W66996  26.363  18.841  28.844 -0.0743  0.1656 -0.0662
24085W        W66997  27.325  20.972  30.444  0.0479 -0.1138 -0.0943
24086W        W66998  28.457  20.200  29.768  0.0486  0.0184 -0.1297
24087W        W66999  26.885  20.749  28.654  0.1351  0.0235 -0.1794
24088W        W67000  27.045  18.725  27.597 -0.1697 -0.2180  0.2033
24089W        W67001  26.696  20.014  29.971 -0.1560 -0.0792  0.0258
24090W        W67002  28.949  19.489  29.490  0.1085  0.0292  0.3254
24091W        W67003  28.297  20.656  28.076 -0.3224  0.1141 -0.1483
24092W        W67004  26.007  20.380  30.731 -0.1787 -0.1165  0.1666
24093W        W67005  27.405  18.589  29.559 -0.0514 -0.2253 -0.3164
24094W        W67006  28.129  20.956  29.714  0.3088 -0.1555  0.0443
24095W        W67007  27.039  19.242  30.116 -0.1079 -0.0831 -0.3277
24096W        W67008  26.968  20.270  30.286  0.0349  0.0453 -0.0574
24097W        W67009  26.586  19.493  30.293  0.1054 -0.1180  0.0103
24098W        W67010  26.998  21.223  30.818 -0.1892  0.1626 -0.0565
24099W        W67011  24.917  18.635  30.771  0.1196  0.0270  0.0157
24100W        W67012  28.119  22.217  31.484 -0.4165 -0.0734 -0.2565
24101W        W67013  28.287  20.747  27.106  0.0307  0.1147  0.0056
24102W        W67014  28.994  17.591  30.091 -0.3614  0.0017 -0.1134
24103W        W67015  29.072  18.902  30.542 -0.1411  0.3150  0.0799
24104W        W67016  27.533  20.941  27.727 -0.3036 -0.0266  0.0931
24105W        W67017  25.139  19.035  29.216 -0.1292 -0.3670  0.1604
24106W        W67018  29.125  19.797  30.359  0.0018  0.1911  0.0255
24107W        W67019  27.277  18.967  29.128 -0.2007 -0.1373  0.0285
24108W        W67020  28.757  18.361   0.347  0.2808  0.0208 -0.0272
24109W        W67021  28.097  22.547  28.089  0.0235 -0.2743 -0.0505
24110W        W67022  28.797  21.157  30.271 -0.2141 -0.0686 -0.2198
24111W        W67023  28.888  19.568  28.852  0.0769 -0.0060 -0.3361
24112W        W67024  26.090  18.497  29.876  0.1144  0.0816 -0.2915
24113W        W67025  26.344  21.879  31.280  0.0495 -0.0999  0.3905
24114W        W67026  26.771  19.723  28.308 -0.1057  0.1102 -0.1474
24115W        W67027  28.352  21.238  28.606  0.0111 -0.1586 -0.2755
24116W        W67028  28.655  21.607  30.124 -0.0386  0.1224  0.0861
24117W        W67029  27.956  19.922  30.628 -0.3130  0.0063 -0.0394
24118W        W67030  27.486  18.914  27.254 -0.4065  0.0444 -0.2068
24119W        W67031  27.795  19.143  29.777  0.0618 -0.0459 -0.0323
24120W        W67032  25.553  21.123  28.420  0.0665  0.2787  0.1567
24121W        W67033  26.558  21.654  29.667  0.2826 -0.0678 -0.1485
24122W        W67034  25.401  20.788  29.457 -0.3712 -0.1377 -0.0114
24123W        W67035  26.434  19.898  29.490  0.0266  0.0492  0.0156
24124W        W67036  25.554  21.612  28.371 -0.1404 -0.1089  0.1389
24125W        W67037  28.090  17.713  30.549  0.0826 -0.4228 -0.0586
24126W        W67038  26.122  18.123  29.609  0.2732  0.5478 -0.1872
24127W        W67039  27.060  21.743  30.894 -0.4644 -0.1828  0.1746
24128W        W67040  28.736  17.511  31.100  0.1800 -0.0540  0.2352
24129W        W67041  26.254  21.360  31.035 -0.0109 -0.3471 -0.0429
24130W        W67042  26.541  19.552  29.188 -0.1963  0.0783 -0.0530
24131W        W67043  26.287  23.960  31.432 -0.0490 -0.0880  0.3432
24132W        W67044  28.593  20.672  29.983 -0.0297 -0.1734 -0.0674
24133W        W67045  24.139  21.857  29.206  0.2043  0.1731 -0.0386
24134W        W67046  24.864  18.855  30.348 -0.3498  0.1413 -0.2427
24135W        W67047  26.691  20.696  31.685 -0.1232  0.0939 -0.2833
24136W        W67048  26.516  20.968  29.864  0.0031 -0.0507  0.1054
24137W        W67049  26.877  18.732  29.438  0.1514  0.3458 -0.0515
24138W        W67050  27.745  20.548  28.200 -0.0019 -0.1580  0.1218
24139W        W67051  26.071  21.027  30.657 -0.3508 -0.0877 -0.1035
24140W        W67052  24.876  21.464  28.817 -0.0097 -0.1585  0.1581
24141W        W67053  26.392  22.201  29.059  0.1124 -0.2537 -0.1118
24142W        W67054  27.872  21.469  28.363  0.1505  0.0318  0.1876
24143W        W67055  27.922  21.310  29.240 -0.2548  0.1397  0.0001
24144W        W67056  28.785  21.971  30.367 -0.0256  0.3568  0.4169
24145W        W67057  27.034  20.156  28.076  0.0697 -0.0254  0.0384
24146W        W67058  27.535  22.458  30.231 -0.1260 -0.1124 -0.3041
24147W        W67059  24.285  20.851  28.097  0.1564 -0.0291 -0.1798
24148W        W67060  28.671  20.304  28.103 -0.4415  0.0565 -0.0963
24149W        W67061  25.626  21.952  29.337 -0.0506  0.0190  0.1292
24150W        W67062  27.685  21.367  30.277  0.2475 -0.2561  0.2584
24151W        W67063  30.280  18.054  26.916 -0.2667 -0.2651 -0.3687
24152W        W67064  27.903  20.441  30.445 -0.0162 -0.1390 -0.0851
24153W        W67065  28.606  20.432  28.552  0.0584 -0.0333  0.2771
24154W        W67066  28.157  20.976   0.287 -0.0318  0.0652  0.0859
24155W        W67067  26.947  19.886  29.434  0.0201  0.0598  0.1915
24156W        W67068  26.576  18.455  26.955  0.4514 -0.0828 -0.1352
24157W        W67069  24.900  20.911  29.946  0.0571 -0.0212 -0.0056
24158W        W67070  28.391  18.149  30.371  0.2376 -0.0887  0.2754
24159W        W67071  26.405  22.329  30.572 -0.2091  0.1337  0.0768
24160W        W67072  29.507  21.000  29.969 -0.0866 -0.0771  0.0602
24161W        W67073  25.739  19.376  28.199  0.1535 -0.1086  0.1130
24162W        W67074  26.141  20.232  29.933 -0.4057 -0.3303 -0.2165
24163W        W67075  29.536  19.256  30.108  0.1621  0.0879  0.0548
24164W        W67076  26.798  20.607  28.176 -0.1084 -0.0011  0.1587
24165W        W67077  27.247  21.499  30.480  0.1820  0.1207  0.1217
24166W        W67078  27.040  22.139  29.018 -0.2114  0.1872 -0.1460
24167W        W67079  26.341  20.775  30.326  0.5001 -0.1004 -0.2188
24168W        W67080  26.008  21.950  29.693  0.2167  0.0691 -0.0131
24169W        W67081  25.831  18.911  28.553  0.3362  0.4063  0.0792
24170W        W67082  29.489  19.648  30.994 -0.3759  0.2898 -0.0437
24171W        W67083  25.839  20.878  30.220  0.2054 -0.0105  0.2261
24172W        W67084  27.425  20.502  30.133 -0.3707  0.1387  0.1630
24173W        W67085  26.952  21.139  28.930  0.0069  0.0137  0.1926
24174W        W67086  29.384  20.486  29.909  0.1052 -0.1193 -0.1520
24175W        W67087  26.431  21.316  30.471 -0.0598 -0.1784  0.2447
24176W        W67088  25.682  19.346  30.007 -0.1264  0.1041  0.0653
24177W        W67089  26.988  19.161  27.936 -0.2111 -0.1621  0.0972
24178W        W67090  29.797  19.984  28.758  0.1476 -0.2115  0.3006
24179W        W67091  28.108  19.789  28.536  0.1399  0.0179  0.0323
24180W        W67092  27.504  21.252  30.867 -0.0124 -0.0388  0.0656
24181W        W67093  26.029  18.105  30.224 -0.0531  0.1206  0.2631
24182W        W67094  27.906  19.436  28.095 -0.2237 -0.1411 -0.1184
24183W        W67095  25.449  19.237  28.755  0.2330 -0.0325  0.0516
24184W        W67096  25.547  19.633  31.150  0.1234  0.0318  0.1861
24185W        W67097  28.492  20.399   0.338  0.1325  0.2233 -0.3817
24186W        W67098  26.265  18.411  27.571 -0.4631  0.1238 -0.1709
24187W        W67099  28.918  21.887  27.608 -0.1815 -0.1726 -0.2371
24188W        W67100  28.717  19.749  29.973 -0.2803  0.3753  0.2809
24189W        W67101  27.472  22.965  28.076 -0.0435  0.1277  0.0726
24190W        W67102  27.778  19.751  28.926 -0.0309  0.3406  0.3514
24191W        W67103  26.574  20.156  28.996  0.0201  0.1850 -0.0424
24192W        W67104  23.440  19.709  30.504 -0.1216  0.2245  0.0839
24193W        W67105  28.192  20.733  28.561  0.0265  0.3439  0.0499
24194W        W67106  28.075  20.442  29.973 -0.0832 -0.0998  0.1811
24195W        W67107  27.795  18.249  26.801  0.3320  0.2160 -0.0951
24196W        W67108  25.455  18.726  28.873  0.0335 -0.2051  0.0409
24197W        W67109  23.536  21.403  29.658 -0.0887  0.1705 -0.1058
24198W        W67110  28.410  18.524  30.673  0.0828  0.0207 -0.1534
24199W        W67111  29.009  19.705  30.865  0.1358 -0.1823  0.1967
24200W        W67112  27.206  22.136  28.495  0.2084 -0.3454  0.0495
24201W        W67113  28.617  18.028  30.889  0.2214 -0.1715  0.1089
24202W        W67114  27.446  21.764  31.872 -0.2260 -0.0688 -0.0622
24203W        W67115  27.174  21.997   0.919 -0.2444  0.0362 -0.1817
24204W        W67116  25.228  20.607  27.517  0.0704 -0.0855  0.2338
24205W        W67117  26.246  20.666  31.948  0.1387  0.0049 -0.1092
24206W        W67118  27.976  22.422  29.912 -0.4459 -0.1186  0.2955
24207W        W67119  26.707  22.125  28.632  0.0950  0.1989 -0.2846
24208W        W67120  27.647  20.352  29.141 -0.1241  0.2991 -0.0626
24209W        W67121  26.556  19.087  29.287  0.0212 -0.0768 -0.2201
24210W        W67122  29.194  20.579  30.740 -0.0891  0.3194  0.0819
24211W        W67123  27.984  18.597  30.409 -0.2431 -0.2344  0.2314
24212W        W67124  29.564  17.915  28.327 -0.2807 -0.0545  0.4089
24213W        W67125  26.544  16.940  28.607 -0.0057 -0.0648 -0.1665
24214W        W67126  25.946  20.282  31.265  0.0558 -0.3936 -0.3326
24215W        W67127  24.690  19.681  27.100  0.1029 -0.1679 -0.0171
24216W        W67128  26.039  19.976  29.011 -0.0012 -0.0154  0.1514
24217W        W67129  26.154  19.318  29.373  0.2141  0.2089  0.1937
24218W        W67130  27.080  18.348  30.786 -0.1260 -0.2645 -0.4749
24219W        W67131  25.781  18.810  30.858 -0.3879  0.0472 -0.1226
24220W        W67132  26.175  19.717  29.939 -0.0261  0.2186 -0.2211
24221W        W67133  25.578  18.551  28.310  0.0370  0.0235 -0.0205
24222W        W67134  30.144  20.637  29.501  0.0750  0.3285 -0.2879
24223W        W67135  26.981  18.006  28.804  0.0114 -0.2100  0.1241
24224W        W67136  25.290  19.128  30.193 -0.0923  0.1969  0.1722
24225W        W67137  27.886  21.149  28.747  0.2120 -0.0340  0.0400
24226W        W67138  29.808  20.437  30.797  0.1197  0.1090 -0.1143
24227W        W67139  27.549  19.397  29.321  0.2239  0.3061  0.1540
24228W        W67140  29.725  22.306  29.999 -0.0697 -0.2485  0.0713
24229W        W67141  26.512  20.859  28.928 -0.0429 -0.0839  0.1388
24230W        W67142  27.824  20.625  31.001 -0.2331 -0.0526 -0.0261
24231W        W67143  25.891  17.948  30.705  0.0852 -0.1501 -0.0694
24232W        W67144  26.219  20.211  27.688 -0.1304  0.2988 -0.1147
24233W        W67145  25.602  20.170  28.740 -0.1849  0.0428 -0.1257
24234W        W67146  27.830  21.833  29.441 -0.0196 -0.2827 -0.2529
24235W        W67147  27.632  22.479  28.249  0.0413  0.0690  0.2375
24236W        W67148  27.269  21.690   1.314 -0.3944  0.1086  0.4307
24237W        W67149  26.192  21.863  30.658  0.1312  0.2540 -0.0135
24238W        W67150  24.806  18.381  28.779  0.0933 -0.1025 -0.1733
24239W        W67151  29.504  20.954  27.179  0.1154  0.0791  0.0204
24240W        W67152  25.861  21.910  31.977 -0.2006  0.1268  0.0030
24241W        W67153  28.943  21.389  29.288 -0.3738  0.1125  0.3570
24242W        W67154  28.985  18.256  29.406  0.3564 -0.2319 -0.1298
24243W        W67155  27.631  20.408  29.741 -0.4224  0.1909 -0.0827
24244W        W67156  24.647  18.281  30.986 -0.0962  0.1179  0.1007
24245W        W67157  24.922  20.464  30.805 -0.1365 -0.0722  0.2434
24246W        W67158  29.581  18.746  30.514 -0.0718  0.0661  0.1431
24247W        W67159  25.608  18.953  27.099  0.0209  0.1171 -0.1831
24248W        W67160  27.764  18.594  29.912  0.0977 -0.1394 -0.0179
24249W        W67161  28.011  22.469  28.630 -0.0634 -0.0049 -0.0426
24250W        W67162  24.510  20.278  28.788  0.1313  0.2725  0.0290
24251W        W67163  27.121  20.187  29.069 -0.1995 -0.2491  0.1404
24252W        W67164  26.367  19.627  30.863 -0.1182 -0.0340 -0.0611
24253W        W67165  26.974  22.027  29.904 -0.1279  0.0835  0.1918
24254W        W67166  26.623  19.913  30.554  0.0343  0.0189 -0.1465
24255W        W67167  26.479  21.319  27.560 -0.0039  0.2218  0.0893
24256W        W67168  29.102  20.575  28.373  0.2692 -0.3500  0.2242
24257W        W67169  27.849  22.128   0.407  0.0014 -0.0390 -0.2307
24258W        W67170  28.042  22.377   0.028  0.0547 -0.2141 -0.3399
24259W        W67171  27.145  22.555  29.826  0.0597  0.2855  0.3273
24260W        W67172  27.403  20.243  30.588 -0.0449  0.0273  0.2749
24261W        W67173  25.898  18.618  30.350  0.2852  0.0263 -0.2508
24262W        W67174  26.063  20.746  31.055 -0.0419 -0.2468 -0.0484
24263W        W67175  28.203  21.573  29.667 -0.0828 -0.1213 -0.0415
24264W        W67176  26.833  20.462  31.198  0.0946  0.0941 -0.3083
24265W        W67177  27.316  18.817  30.025  0.2406  0.1995  0.3623
24266W        W67178  27.392  18.011  28.100 -0.1653  0.2353  0.1176
24267W        W67179  25.257  20.919  30.360 -0.1941 -0.2684 -0.1319
24268W        W67180  28.145  20.239  28.964  0.0211 -0.1416  0.0795
24269W        W67181  27.650  18.296  31.755  0.2768 -0.1665  0.6320
24270W        W67182  26.451  20.093  31.439  0.1042 -0.2049 -0.0144
24271W        W67183  26.227  18.527  31.703 -0.3045  0.5162  0.1270
24272W        W67184  25.814  21.174  31.311  0.1032 -0.0565  0.1183
24273W        W67185  26.966  21.799   0.103 -0.0311 -0.1471  0.2274
24274W        W67186  27.142  22.258  31.253 -0.0818  0.1425 -0.0125
24275W        W67187  26.994  19.302  31.431  0.1775  0.0899 -0.2392
24276W        W67188  26.584  19.022  30.343  0.2224 -0.2208 -0.1285
24277W        W67189  28.416  18.695   0.558  0.1037 -0.1578 -0.3189
24278W        W67190  30.451  21.261  31.837  0.0568 -0.0007 -0.0317
24279W        W67191  27.068  23.062  31.176 -0.3069  0.1720  0.5374
24280W        W67192  25.424  18.053  30.365 -0.1842  0.2642 -0.2207
24281W        W67193  27.783  20.977  30.599 -0.1277 -0.0841 -0.1891
24282W        W67194  26.009  19.779  31.192  0.1951 -0.0525  0.2602
24283W        W67195  28.079  19.978  31.739 -0.1485 -0.0354 -0.0801
24284W        W67196  25.100  22.669   0.027 -0.1635 -0.1300 -0.1068
24285W        W67197  25.478  21.097   0.290 -0.0605  0.1722  0.1294
24286W        W67198  28.423  21.169  30.602 -0.1034  0.1632 -0.1400
24287W        W67199  23.921  19.569  30.202 -0.0091 -0.0559  0.1029
24288W        W67200  23.447  17.897  30.959 -0.2438 -0.2547  0.1424
24289W        W67201  25.633  18.272  29.484  0.1730 -0.3634 -0.1666
24290W        W67202  25.406  21.396  31.302 -0.0927  0.0075 -0.0816
24291W        W67203  29.574  18.721  31.474 -0.1466 -0.1518 -0.0955
24292W        W67204  26.244  19.245  31.269 -0.0657 -0.1959 -0.1907
24293W        W67205  28.402  18.772  31.405  0.3975  0.0597  0.1071
24294W        W67206  26.827  19.678  31.771 -0.2189 -0.0133  0.2178
24295W        W67207  27.569  19.909  31.020 -0.2559 -0.5298 -0.0949
24296W        W67208  24.623  21.240  31.906 -0.1046 -0.2969 -0.1504
24297W        W67209  26.712  18.894  31.389 -0.0534  0.0869  0.1245
24298W        W67210  27.032  24.377  31.189 -0.0813 -0.0932  0.0912
24299W        W67211  26.388  20.151  30.931 -0.2624 -0.0363 -0.1471
24300W        W67212  27.174  20.077   0.116  0.3755 -0.2327 -0.0944
24301W        W67213  28.162  19.820   0.393 -0.1795 -0.1626  0.2404
24302W        W67214  28.910  18.659  31.939  0.3075 -0.0233 -0.0681
24303W        W67215  25.044  18.558   0.526 -0.2828 -0.0699  0.2311
24304W        W67216  25.705  21.804  31.558  0.0104  0.0955  0.3690
24305W        W67217  25.883  19.309  30.888 -0.0449 -0.1291 -0.0328
24306W        W67218  29.294  19.390  30.616 -0.0670 -0.1240 -0.1051
24307W        W67219  27.961  18.510   0.219 -0.3519  0.0822 -0.3656
24308W        W67220  27.073  18.909  30.976  0.2393  0.0027 -0.0982
24309W        W67221  28.129  19.159   0.118 -0.0548  0.2824  0.3075
24310W        W67222  28.938  18.819  31.472  0.0330 -0.1824 -0.0082
24311W        W67223  26.629  19.190  31.753 -0.0348 -0.1714  0.0880
24312W        W67224  27.329  21.553   0.710  0.0837 -0.0576 -0.2860
24313W        W67225  25.826  19.415   0.047  0.0222  0.3454 -0.0292
24314W        W67226  27.881  19.753   0.833 -0.0022  0.1537  0.5925
24315W        W67227  27.663  16.978   0.924  0.0695  0.1550 -0.1055
24316W        W67228  26.048  21.827   0.970  0.2096  0.1455 -0.1149
24317W        W67229  27.174  21.075  31.814 -0.1143  0.2917  0.1205
24318W        W67230  25.404  20.041  30.518 -0.2844 -0.0340 -0.1404
24319W        W67231  28.483  21.975  30.907  0.0883  0.1671 -0.2908
24320W        W67232  28.203  19.230  31.256  0.1126 -0.1803 -0.0923
24321W        W67233  26.747  17.463  30.877 -0.1516  0.1152 -0.1783
24322W        W67234  27.323  21.421   0.228 -0.3489 -0.0740  0.0170
24323W        W67235  28.667  19.971   0.507 -0.0425  0.1256  0.1424
24324W        W67236  26.537  20.989  30.823 -0.1201 -0.2442 -0.0153
24325W        W67237  28.594  20.021  31.036 -0.1795  0.0370  0.3473
24326W        W67238  26.737  22.552  30.187 -0.3020  0.1524 -0.1532
24327W        W67239  26.955  20.985  31.307  0.0412 -0.0192 -0.1405
24328W        W67240  25.374  18.595  31.120  0.0593  0.0378 -0.0528
24329W        W67241  24.815  19.476  30.558 -0.1863  0.0989  0.0439
24330W        W67242  26.401  21.034  31.400  0.1839  0.2949 -0.1192
24331W        W67243  25.356  20.629  29.945  0.1838  0.0763  0.1235
24332W        W67244  24.561  19.008  30.739 -0.2306 -0.2451 -0.0093
24333W        W67245  29.630  22.244  31.421 -0.0317 -0.1073 -0.1938
24334W        W67246  28.255  20.724  30.745  0.1171  0.0145 -0.0676
24335W        W67247  29.380  20.619   1.435  0.0797  0.1778 -0.0370
24336W        W67248  25.592  23.268  19.555 -0.4255  0.0516  0.0865
24337W        W67249  24.920  22.522  16.865  0.1447  0.2256 -0.0250
24338W        W67250  27.497  23.622  16.216  0.0433  0.0438 -0.0478
24339W        W67251  29.403  24.212  16.838 -0.0189 -0.1357  0.2399
24340W        W67252  25.617  21.766  17.644  0.1199 -0.0281 -0.3089
24341W        W67253  27.015  25.119  16.944  0.1380 -0.1474 -0.0559
24342W        W67254  26.041  22.433  19.167 -0.1201 -0.0760 -0.1232
24343W        W67255  28.158  23.422  18.721  0.0731  0.1574  0.2485
24344W        W67256  29.813  24.632  18.363  0.1246  0.1470 -0.2106
24345W        W67257  27.256  24.041  16.399 -0.1381 -0.2863 -0.0740
24346W        W67258  26.628  23.912  19.926 -0.1168 -0.0804  0.1266
24347W        W67259  28.778  24.748  17.734  0.3271  0.0125  0.1539
24348W        W67260  25.762  22.365  16.236 -0.0905 -0.0392 -0.1343
24349W        W67261  24.498  21.765  16.430  0.1339 -0.1403 -0.0138
24350W        W67262  27.609  22.379  18.966 -0.1925  0.2153  0.1760
24351W        W67263  26.201  23.383  17.046  0.0175  0.1034  0.0477
24352W        W67264  26.409  23.297  19.739 -0.0019 -0.2825 -0.0477
24353W        W67265  28.682  23.170  17.431  0.1916 -0.2079 -0.1445
24354W        W67266  27.988  25.425  17.433  0.4259 -0.1447 -0.2349
24355W        W67267  26.963  23.274  19.939  0.1217  0.2562  0.1023
24356W        W67268  27.240  22.542  18.453  0.0856 -0.0703 -0.2924
24357W        W67269  27.049  24.318  18.577 -0.1237 -0.0141  0.0194
24358W        W67270  24.508  23.159  16.623 -0.4034 -0.2054  0.1328
24359W        W67271  25.949  23.660  17.828 -0.0002  0.0256 -0.0841
24360W        W67272  27.624  22.536  18.089 -0.2322 -0.0162 -0.0049
24361W        W67273  29.609  22.524  18.162 -0.0781  0.1887 -0.2487
24362W        W67274  29.205  23.094  17.597 -0.0729 -0.0110 -0.0725
24363W        W67275  26.057  26.086  19.361 -0.3822  0.0556 -0.3577
24364W        W67276  27.321  26.507  17.073  0.3201  0.2056 -0.0290
24365W        W67277  27.993  23.695  19.133 -0.1682  0.5242  0.1717
24366W        W67278  26.270  24.798  17.037  0.1224 -0.0573  0.1090
24367W        W67279  24.557  25.537  16.152 -0.2573  0.0534  0.0599
24368W        W67280  26.696  23.419  18.767 -0.0203  0.2356  0.1355
24369W        W67281  29.254  25.289  17.593  0.0871 -0.0889 -0.0120
24370W        W67282  28.755  24.363  19.940  0.1252 -0.1160 -0.0337
24371W        W67283  26.525  26.289  19.470 -0.2098 -0.0648  0.1171
24372W        W67284  25.542  23.934  17.164 -0.1810 -0.2387  0.0228
24373W        W67285  27.230  25.488  20.355 -0.1447  0.0841 -0.3716
24374W        W67286  25.306  26.182  20.133 -0.2514 -0.2444 -0.0407
24375W        W67287  27.272  22.855  20.123  0.1660  0.0995 -0.1461
24376W        W67288  26.979  24.439  18.066 -0.0557  0.1074  0.1506
24377W        W67289  26.428  24.392  17.364 -0.4521 -0.1191 -0.2493
24378W        W67290  28.284  24.556  17.882 -0.0528 -0.2869  0.0756
24379W        W67291  25.548  24.154  23.541 -0.2960 -0.1582  0.2638
24380W        W67292  25.904  25.374  16.998 -0.1306 -0.4500  0.0634
24381W        W67293  28.720  21.260  20.059  0.2836  0.1419  0.1844
24382W        W67294  26.804  23.892  16.604  0.1636 -0.1578  0.1914
24383W        W67295  27.358  24.633  16.054  0.0176 -0.5371  0.3390
24384W        W67296  26.645  22.546  17.459 -0.0461 -0.2064 -0.0648
24385W        W67297  28.523  23.629  17.210  0.2619  0.4310  0.0726
24386W        W67298  27.215  21.021  17.452  0.2377 -0.0310 -0.1977
24387W        W67299  26.748  26.165  18.512 -0.3671  0.0729  0.2256
24388W        W67300  26.055  21.839  18.944  0.1059 -0.1138  0.4601
24389W        W67301  28.738  23.896  17.981  0.1341  0.1280  0.1386
24390W        W67302  25.956  22.678  16.746 -0.0013  0.3914 -0.0901
24391W        W67303  28.746  22.686  18.481 -0.0768 -0.1095  0.2299
24392W        W67304  24.641  25.440  19.268 -0.0765 -0.1267  0.1907
24393W        W67305  26.022  24.175  17.633 -0.1335 -0.0399  0.1869
24394W        W67306  28.282  25.846  15.721  0.0920 -0.2941 -0.1224
24395W        W67307  28.400  24.064  17.112  0.1701 -0.3251  0.0915
24396W        W67308  28.656  25.529  15.829 -0.2308  0.2303 -0.3022
24397W        W67309  26.675  22.444  17.929 -0.1711  0.0602  0.2038
24398W        W67310  25.568  24.489  19.929  0.3035  0.3619 -0.0416
24399W        W67311  25.566  24.014  18.100  0.1666 -0.0365 -0.0350
24400W        W67312  27.387  22.715  17.042 -0.0891 -0.1823  0.2913
24401W        W67313  28.596  23.915  19.770  0.0392 -0.1261 -0.1016
24402W        W67314  25.558  26.089  19.658 -0.0638 -0.0527  0.0649
24403W        W67315  30.187  22.615  18.455  0.1121 -0.0624  0.1199
24404W        W67316  26.382  24.366  19.921  0.0654  0.1109 -0.1009
24405W        W67317  28.931  24.193  19.050  0.0819  0.3330  0.4417
24406W        W67318  28.621  24.152  16.588  0.1260 -0.3933 -0.2543
24407W        W67319  28.368  22.332  18.534 -0.0032 -0.2207 -0.3347
24408W        W67320  28.131  21.808  19.499  0.0001  0.0308  0.2561
24409W        W67321  27.521  22.524  16.063 -0.1717 -0.2093  0.2759
24410W        W67322  27.232  23.367  18.095  0.0131  0.1707 -0.1035
24411W        W67323  29.415  23.958  20.363  0.0923  0.0352  0.1319
24412W        W67324  27.754  24.079  16.277 -0.2500 -0.1743  0.0001
24413W        W67325  26.074  24.041  18.162 -0.2443 -0.2297 -0.0064
24414W        W67326  27.734  23.847  20.575  0.0362 -0.0623 -0.0631
24415W        W67327  27.110  24.743  19.038  0.0088 -0.1110  0.1488
24416W        W67328  26.143  25.955  15.682  0.2645 -0.3287  0.1077
24417W        W67329  24.260  24.055  18.556  0.0277  0.3004  0.1663
24418W        W67330  26.992  23.803  16.044  0.1343 -0.1880 -0.2298
24419W        W67331  24.824  22.582  19.302 -0.0931  0.1047 -0.1030
24420W        W67332  26.698  23.220  18.281  0.2188 -0.2420  0.0761
24421W        W67333  28.377  22.821  17.641  0.1281  0.3217 -0.1244
24422W        W67334  26.195  24.276  18.623  0.0688 -0.0579 -0.1417
24423W        W67335  29.144  20.946  19.838  0.1851 -0.4723  0.0587
24424W        W67336  24.869  23.580  16.769 -0.1478 -0.2202 -0.2090
24425W        W67337  29.398  25.991  18.177 -0.1431  0.3289  0.2461
24426W        W67338  28.997  23.482  16.996  0.0961  0.5415  0.2106
24427W        W67339  26.845  24.780  16.077 -0.1605  0.1604  0.3379
24428W        W67340  24.341  23.304  19.059  0.1624 -0.1353  0.0175
24429W        W67341  24.711  22.163  16.606 -0.1463  0.0761  0.1025
24430W        W67342  25.891  23.728  20.451  0.0733 -0.1636  0.2600
24431W        W67343  26.154  22.275  18.097 -0.2773  0.1286 -0.0839
24432W        W67344  27.654  23.188  18.716  0.0364 -0.0538  0.2135
24433W        W67345  25.322  21.607  16.657 -0.0934 -0.0444 -0.0882
24434W        W67346  30.212  23.154  17.576 -0.0183  0.2837 -0.0712
24435W        W67347  26.990  22.882  17.528 -0.1107  0.1446 -0.0474
24436W        W67348  26.052  25.956  18.852 -0.1827 -0.0062 -0.1592
24437W        W67349  29.134  21.049  20.910 -0.1781 -0.2724  0.1945
24438W        W67350  28.097  25.074  17.048 -0.0483 -0.1278  0.3026
24439W        W67351  29.245  24.373  20.051  0.0112  0.1248  0.2875
24440W        W67352  28.245  25.577  16.373  0.0642  0.0335  0.0102
24441W        W67353  25.733  22.733  18.904 -0.4806  0.0783  0.1377
24442W        W67354  26.050  21.811  16.945 -0.0481  0.1779  0.0067
24443W        W67355  26.565  25.216  18.095 -0.0535  0.0674  0.0528
24444W        W67356  26.827  24.247  17.127 -0.0356  0.4890  0.0764
24445W        W67357  26.863  22.725  17.044  0.0400  0.1788 -0.3598
24446W        W67358  29.363  25.012  18.530 -0.1737  0.2543 -0.2855
24447W        W67359  27.033  24.387  16.699 -0.0326  0.1679  0.0629
24448W        W67360  25.249  25.713  20.342  0.0313  0.0097  0.1669
24449W        W67361  26.598  22.562  18.811 -0.2242  0.2680 -0.0007
24450W        W67362  28.346  22.671  19.931 -0.0209 -0.0705  0.2162
24451W        W67363  28.260  22.635  18.169  0.0309 -0.0998  0.0611
24452W        W67364  25.673  21.984  16.648 -0.1835 -0.1904 -0.0249
24453W        W67365  28.162  24.043  17.631 -0.0389 -0.2283  0.3728
24454W        W67366  25.538  23.014  16.743  0.0139  0.1036  0.0444
24455W        W67367  25.165  23.181  18.735  0.2525  0.2300  0.1454
24456W        W67368  27.436  24.580  18.351  0.2743 -0.0943 -0.3347
24457W        W67369  27.912  23.025  18.297 -0.3412  0.0172 -0.1880
24458W        W67370  25.468  24.327  19.438  0.0777 -0.0186 -0.0742
24459W        W67371  27.130  23.003  19.552 -0.0778 -0.2429 -0.0002
24460W        W67372  24.480  23.594  16.410 -0.0878  0.1821  0.1327
24461W        W67373  26.907  25.089  19.446  0.0615  0.0636 -0.1521
24462W        W67374  27.635  22.454  17.486  0.1140 -0.1734 -0.2153
24463W        W67375  28.227  22.928  18.652  0.0444 -0.1435  0.1337
24464W        W67376  26.620  25.111  20.656 -0.5120 -0.2523 -0.0982
24465W        W67377  27.540  23.545  17.166  0.1687  0.0693 -0.1016
24466W        W67378  28.001  23.659  15.996  0.0732 -0.1485  0.0948
24467W        W67379  27.083  23.499  16.603 -0.1274  0.2977  0.0484
24468W        W67380  26.310  25.272  21.042  0.0026  0.0696  0.0655
24469W        W67381  27.361  24.157  17.898 -0.0064  0.1094 -0.0099
24470W        W67382  27.398  24.645  17.818 -0.1427 -0.0345  0.0304
24471W        W67383  28.569  23.242  16.922 -0.2358  0.1955  0.0176
24472W        W67384  28.798  24.404  17.101  0.4269 -0.1410  0.1053
24473W        W67385  26.166  24.695  19.314 -0.3613 -0.0453  0.2890
24474W        W67386  26.867  24.646  20.747  0.0727  0.2157  0.1401
24475W        W67387  28.508  24.966  18.072  0.3144 -0.2498  0.2170
24476W        W67388  26.983  22.830  18.071 -0.0262  0.0024 -0.0144
24477W        W67389  25.508  22.485  16.705  0.2977  0.0972  0.0035
24478W        W67390  26.552  21.946  18.997  0.1160 -0.0143 -0.0465
24479W        W67391  26.314  24.820  16.433  0.0750  0.1958 -0.0203
24480W        W67392  28.275  21.439  19.741 -0.0477  0.1964  0.0479
24481W        W67393  27.619  22.047  17.852 -0.0102  0.1442  0.1183
24482W        W67394  26.825  23.014  19.116 -0.2055  0.1168  0.0126
24483W        W67395  27.242  24.114  20.610  0.0747 -0.2506  0.0850
24484W        W67396  27.323  23.875  17.486  0.3087 -0.1422  0.4266
24485W        W67397  27.417  22.943  18.253 -0.1561 -0.1464  0.0321
24486W        W67398  25.570  21.867  17.102 -0.0765 -0.0787  0.1633
24487W        W67399  27.014  22.590  19.759 -0.1109 -0.0048  0.0948
24488W        W67400  26.696  24.813  20.154 -0.1756  0.0541  0.1724
24489W        W67401  25.627  25.408  18.425  0.0717  0.2526  0.2927
24490W        W67402  27.668  24.811  21.301 -0.2801  0.1044  0.3262
24491W        W67403  27.189  23.362  18.556 -0.0783  0.2686 -0.2743
24492W        W67404  25.935  23.159  19.181  0.0138 -0.2793 -0.0516
24493W        W67405  27.750  22.720  16.518 -0.4102 -0.0332 -0.3901
24494W        W67406  26.093  25.214  16.148 -0.0790 -0.0322  0.0654
24495W        W67407  27.081  23.771  17.015  0.1777 -0.3075 -0.0655
24496W        W67408  25.972  22.750  18.485  0.0667  0.2544  0.0311
24497W        W67409  27.340  24.869  19.571  0.0156  0.1863  0.1284
24498W        W67410  26.458  24.383  16.744  0.0013  0.1698 -0.1103
24499W        W67411  27.873  22.597  18.606 -0.1598 -0.4691  0.4559
24500W        W67412  27.974  24.979  18.108 -0.0812 -0.1506  0.2122
24501W        W67413  28.995  22.063  19.039  0.1169 -0.1129 -0.2571
24502W        W67414  25.872  25.044  16.630  0.0730 -0.2487 -0.1301
24503W        W67415  25.670  23.644  16.340  0.0054  0.3752  0.0102
24504W        W67416  25.205  23.340  16.470 -0.1839 -0.1431  0.0169
24505W        W67417  29.558  22.235  19.020 -0.2236  0.2258  0.3041
24506W        W67418  27.410  25.078  15.818  0.3196 -0.3935  0.2992
24507W        W67419  24.532  24.290  20.150  0.1513 -0.0646 -0.1769
24508W        W67420  27.940  22.091  18.721 -0.2890  0.4835  0.0560
24509W        W67421  25.300  25.124  17.050  0.1572  0.0681 -0.1464
24510W        W67422  28.693  22.508  19.096  0.2535 -0.2406 -0.0140
24511W        W67423  28.387  21.508  17.484 -0.0129  0.0724  0.0247
24512W        W67424  26.843  24.379  19.763 -0.0413 -0.0374  0.1039
24513W        W67425  26.991  24.186  19.303 -0.0207  0.3073 -0.2045
24514W        W67426  25.022  21.826  16.267 -0.0439 -0.2966 -0.0455
24515W        W67427  29.000  23.283  20.363 -0.0808  0.0513  0.0725
24516W        W67428  28.175  22.428  19.023 -0.2194  0.2668 -0.0401
24517W        W67429  25.969  24.168  19.163  0.0735  0.0470 -0.2827
24518W        W67430  26.688  25.390  20.211 -0.1267 -0.3452 -0.0430
24519W        W67431  26.237  23.581  16.504 -0.0890 -0.0298  0.0816
24520W        W67432  25.987  24.960  18.419 -0.2200  0.2164 -0.2341
24521W        W67433  27.754  25.234  21.092  0.2596 -0.0650  0.1079
24522W        W67434  28.383  23.995  18.866 -0.3539  0.2234  0.2573
24523W        W67435  25.673  23.803  19.858 -0.1393  0.0123 -0.3624
24524W        W67436  27.143  20.555  16.800  0.2681 -0.2475 -0.2129
24525W        W67437  28.848  23.393  17.854  0.1081  0.0562  0.2103
24526W        W67438  26.643  23.145  17.278  0.1649  0.1295  0.0002
24527W        W67439  28.050  21.035  19.518  0.2152 -0.1919 -0.0774
24528W        W67440  25.881  24.841  21.065 -0.3180 -0.2362 -0.1041
24529W        W67441  27.042  22.553  19.258  0.0460  0.3553 -0.0634
24530W        W67442  29.178  25.258  16.670  0.1888 -0.2096 -0.2737
24531W        W67443  28.443  23.492  20.040 -0.1001 -0.4513  0.1366
24532W        W67444  26.809  23.425  17.824 -0.5384  0.0156 -0.1583
24533W        W67445  25.862  23.678  19.391 -0.0724  0.0876 -0.0525
24534W        W67446  25.735  23.156  17.756  0.0510  0.1483 -0.0308
24535W        W67447  27.654  23.288  19.237 -0.0227  0.0684 -0.0559
24536W        W67448  26.947  25.622  19.282 -0.1010  0.0858 -0.1510
24537W        W67449  25.712  24.038  18.598  0.1418 -0.2127  0.1807
24538W        W67450  25.608  26.006  19.146  0.2737  0.0946  0.0052
24539W        W67451  27.715  21.061  17.246  0.3129  0.0585  0.1389
24540W        W67452  27.583  25.477  16.487 -0.0859 -0.2119 -0.1157
24541W        W67453  26.928  22.917  18.574  0.2000 -0.5121 -0.3809
24542W        W67454  29.125  22.458  18.661  0.2396 -0.0467 -0.0424
24543W        W67455  28.981  23.972  16.907  0.0313  0.1866  0.0098
24544W        W67456  27.967  21.767  20.757 -0.0559 -0.2208 -0.0680
24545W        W67457  26.401  23.366  19.226 -0.2184 -0.0005 -0.2894
24546W        W67458  26.847  23.995  17.849  0.3888  0.0940  0.1193
24547W        W67459  24.987  23.724  19.011 -0.0727 -0.1756  0.3788
24548W        W67460  27.977  26.237  19.612 -0.3491  0.1236 -0.0392
24549W        W67461  26.350  23.087  18.640  0.3199  0.2576  0.0362
24550W        W67462  26.014  23.158  16.657 -0.2823 -0.0284 -0.4979
24551W        W67463  25.482  21.309  17.423  0.0327 -0.1466 -0.1403
24552W        W67464  26.007  24.146  19.697  0.1824 -0.2677  0.3613
24553W        W67465  25.901  23.947  16.734 -0.0987 -0.3315 -0.0974
24554W        W67466  26.800  22.315  16.779 -0.2267 -0.1074  0.0094
24555W        W67467  29.216  22.555  19.205  0.2250  0.1618  0.0540
24556W        W67468  25.990  25.631  19.211 -0.0226  0.3703  0.0134
24557W        W67469  27.643  23.812  16.690  0.0643 -0.1023  0.1405
24558W        W67470  27.486  23.969  15.898 -0.1429  0.0550 -0.0688
24559W        W67471  26.439  22.761  18.307  0.1677 -0.1443 -0.2288
24560W        W67472  27.154  21.767  21.235 -0.0850  0.1449  0.1245
24561W        W67473  27.862  24.622  16.946 -0.0557  0.1470 -0.2570
24562W        W67474  28.274  22.479  16.790  0.0801 -0.2381  0.0530
24563W        W67475  28.449  22.212  19.446 -0.0482  0.1827 -0.2786
24564W        W67476  28.177  22.288  17.635 -0.0991 -0.3136 -0.0577
24565W        W67477  26.920  24.518  21.327 -0.0420  0.1048  0.0538
24566W        W67478  26.821  24.298  20.330  0.1116 -0.0690 -0.1018
24567W        W67479  28.474  25.010  18.797  0.0895 -0.0915 -0.6736
24568W        W67480  28.454  23.688  16.719 -0.0218 -0.3116  0.0326
24569W        W67481  27.312  22.856  18.927 -0.1616  0.0951  0.0830
24570W        W67482  30.332  24.574  17.272 -0.0210 -0.0391  0.1175
24571W        W67483  27.667  23.115  17.383 -0.2884 -0.0017  0.0829
24572W        W67484  26.343  23.639  18.464 -0.2692  0.1261  0.2190
24573W        W67485  26.183  25.081  19.007 -0.2058  0.0353 -0.3474
24574W        W67486  25.769  24.838  17.012 -0.1003  0.1603 -0.4378
24575W        W67487  27.837  23.991  19.765 -0.1756  0.0178 -0.1581
24576W        W67488  25.868  24.671  17.519 -0.0413  0.1864 -0.0484
24577W        W67489  27.756  25.413  18.743 -0.0902 -0.0205 -0.1822
24578W        W67490  27.053  22.305  17.305  0.2123 -0.1227  0.1012
24579W        W67491  24.809  22.855  17.994  0.2450 -0.1564  0.1573
24580W        W67492  26.446  26.318  18.894  0.0205 -0.0442 -0.2428
24581W        W67493  25.482  22.668  15.892  0.0168 -0.0031  0.0739
24582W        W67494  26.274  23.077  16.153  0.0192  0.1869  0.3772
24583W        W67495  28.587  23.160  19.507 -0.1657  0.0913  0.2323
24584W        W67496  28.018  22.854  21.071 -0.1021 -0.1312  0.1624
24585W        W67497  25.910  20.340  17.306 -0.0004 -0.0445  0.2582
24586W        W67498  29.502  21.905  20.959 -0.4803  0.1611  0.2593
24587W        W67499  26.530  23.756  17.469  0.0213 -0.0345  0.3855
24588W        W67500  29.386  23.362  18.584  0.1474  0.0191 -0.3405
24589W        W67501  26.626  26.758  18.578 -0.1770  0.1907  0.0005
24590W        W67502  24.907  25.602  18.784  0.1135 -0.1256  0.0464
24591W        W67503  25.702  24.961  19.267  0.3760  0.0046  0.0366
24592W        W67504  27.476  22.064  18.365 -0.0633  0.2884 -0.3704
24593W        W67505  28.289  23.191  17.909 -0.3046  0.2410 -0.2386
24594W        W67506  27.385  22.904  17.748 -0.1045 -0.0805  0.0799
24595W        W67507  27.984  24.436  20.449 -0.2261 -0.1236 -0.0456
24596W        W67508  26.859  23.681  19.469  0.0609 -0.0457  0.3841
24597W        W67509  26.257  22.858  17.099 -0.1296  0.1027 -0.0511
24598W        W67510  27.546  25.014  19.102  0.0635  0.0210 -0.0423
24599W        W67511  28.431  26.166  17.982  0.2212  0.0215 -0.3981
24600W        W67512  26.343  23.783  19.501 -0.3199  0.1092  0.1160
24601W        W67513  24.449  23.955  19.163 -0.2251 -0.2456  0.0622
24602W        W67514  27.151  23.179  20.882 -0.1093  0.2599 -0.0912
24603W        W67515  28.816  25.037  18.461  0.0406  0.1780  0.3153
24604W        W67516  25.900  21.585  16.335  0.0921  0.2417  0.2671
24605W        W67517  28.600  24.883  17.112  0.3082 -0.0818  0.3463
24606W        W67518  27.100  24.960  20.402  0.0727 -0.2272  0.0657
24607W        W67519  25.513  24.927  20.717  0.0704 -0.1664  0.1001
24608W        W67520  25.789  24.502  18.405  0.1477  0.2344  0.1163
24609W        W67521  27.639  23.230  15.987  0.1405  0.1246 -0.0789
24610W        W67522  27.246  24.397  17.348  0.0729  0.1003  0.0934
24611W        W67523  27.503  25.124  20.041 -0.2084  0.0244 -0.1012
24612W        W67524  26.578  23.481  16.168  0.0058 -0.0432 -0.1130
24613W        W67525  25.522  24.905  18.212 -0.0132 -0.0996  0.2596
24614W        W67526  25.583  25.255  16.293 -0.0594 -0.2847  0.0928
24615W        W67527  28.227  24.878  16.558  0.1477  0.1062 -0.1727
24616W        W67528  27.052  23.819  18.941 -0.4462  0.0437  0.1174
24617W        W67529  28.115  23.924  20.217  0.1419  0.1155 -0.0030
24618W        W67530  30.069  23.722  17.673  0.2961  0.2050  0.1326
24619W        W67531  28.081  23.644  18.038 -0.1411  0.1167 -0.0431
24620W        W67532  28.904  22.723  17.504 -0.3146  0.2117 -0.2761
24621W        W67533  27.161  24.620  19.999  0.2395 -0.0596 -0.2654
24622W        W67534  27.761  24.683  18.698  0.0320 -0.1243 -0.1067
24623W        W67535  27.004  22.509  16.177 -0.1600  0.1034 -0.1271
24624W        W67536  26.166  23.193  18.116  0.1191 -0.2294  0.3504
24625W        W67537  28.744  21.700  19.268  0.3665 -0.0142  0.5164
24626W        W67538  24.591  26.023  18.881 -0.1798  0.1932  0.1072
24627W        W67539  29.051  25.823  16.608  0.0528 -0.0872 -0.0410
24628W        W67540  25.176  22.865  16.247 -0.0355 -0.6310  0.0750
24629W        W67541  26.219  23.265  17.514  0.1422  0.1178  0.4361
24630W        W67542  28.866  21.055  18.337 -0.1186 -0.1118  0.2799
24631W        W67543  26.769  24.766  17.172  0.1051  0.0026  0.0176
24632W        W67544  27.252  22.408  17.779 -0.1065 -0.1121 -0.2095
24633W        W67545  28.270  25.021  17.581  0.0496 -0.0786  0.1762
24634W        W67546  26.541  24.785  18.908 -0.0388 -0.0856  0.1118
24635W        W67547  27.040  25.113  19.921 -0.0902 -0.1653 -0.2467
24636W        W67548  25.388  21.649  18.132 -0.1254  0.1270  0.1735
24637W        W67549  29.205  22.625  17.890  0.0016  0.0606 -0.1343
24638W        W67550  27.530  23.802  20.071  0.1620 -0.1061  0.0217
24639W        W67551  28.797  22.081  18.554  0.0252 -0.3812 -0.0576
24640W        W67552  28.260  21.997  17.223  0.0424 -0.1920  0.1015
24641W        W67553  29.870  23.690  16.655 -0.0239  0.1383  0.0618
24642W        W67554  27.180  23.368  19.098 -0.1360  0.1868  0.0571
24643W        W67555  26.720  24.152  20.951 -0.1411 -0.0734  0.1617
24644W        W67556  27.308  23.388  17.577  0.0696  0.0255 -0.0614
24645W        W67557  28.265  24.498  18.943 -0.3647  0.2991 -0.1965
24646W        W67558  27.513  24.203  16.939 -0.2673  0.2567 -0.0268
24647W        W67559  27.595  24.394  19.631  0.0433  0.0146 -0.0185
24648W        W67560  25.298  22.207  17.511 -0.0162 -0.0175  0.0749
24649W        W67561  27.690  23.254  17.927  0.0329 -0.4003  0.4557
24650W        W67562  26.897  21.991  17.695 -0.0773  0.1200  0.3336
24651W        W67563  27.519  23.904  19.367 -0.0581  0.2002 -0.1183
24652W        W67564  28.601  25.628  18.689  0.1103 -0.0720  0.0689
24653W        W67565  25.364  21.028  17.002  0.1013  0.1375 -0.3224
24654W        W67566  29.174  24.722  16.849  0.0251 -0.1143 -0.2089
24655W        W67567  29.440  22.744  19.630  0.0294 -0.2173  0.0411
24656W        W67568  26.793  24.656  17.659 -0.1549 -0.2549 -0.0400
24657W        W67569  27.921  23.984  17.177 -0.3240 -0.1889 -0.0224
24658W        W67570  29.694  25.038  18.157 -0.2425  0.1385 -0.1284
24659W        W67571  24.547  23.603  18.717  0.2308 -0.0181  0.3635
24660W        W67572  27.583  25.891  18.588  0.1752  0.0464 -0.2026
24661W        W67573  29.038  25.268  18.903 -0.2795 -0.2056  0.0016
24662W        W67574  26.210  22.583  16.333  0.0259  0.1126  0.0833
24663W        W67575  25.697  22.648  17.501 -0.1969  0.1766  0.0465
24664W        W67576  25.446  24.916  17.647 -0.0839 -0.1128  0.3283
24665W        W67577  30.038  20.449  18.458 -0.1297 -0.5183  0.1213
24666W        W67578  27.879  21.403  19.245  0.3357 -0.2332  0.1079
24667W        W67579  25.968  24.302  17.144 -0.2241 -0.3726  0.0261
24668W        W67580  28.473  20.725  19.422 -0.0674 -0.1125 -0.0159
24669W        W67581  27.260  24.913  17.342 -0.1723  0.3352  0.0481
24670W        W67582  27.068  25.300  20.839  0.3317  0.2863  0.2850
24671W        W67583  26.507  24.065  15.958 -0.2484  0.1587 -0.1421
24672W        W67584  26.904  25.287  18.863  0.0028  0.0344  0.1473
24673W        W67585  26.596  22.963  17.806  0.0766  0.0143 -0.2611
24674W        W67586  27.246  25.421  17.322  0.1313  0.2598  0.3251
24675W        W67587  28.999  24.358  17.933  0.0751 -0.0888 -0.2818
24676W        W67588  30.330  22.757  17.012 -0.1541  0.3791 -0.1656
24677W        W67589  28.284  24.186  18.148 -0.4762  0.2974 -0.0309
24678W        W67590  26.282  21.048  17.489 -0.0515  0.0554  0.0291
24679W        W67591  28.204  21.699  17.966  0.3791  0.2163 -0.0276
24680W        W67592  28.369  21.766  16.721  0.1252 -0.0155 -0.1227
24681W        W67593  26.347  23.873  18.921  0.0233 -0.0287 -0.0820
24682W        W67594  24.821  23.255  16.168 -0.0154 -0.2365  0.1225
24683W        W67595  27.303  23.868  18.284  0.3688  0.2167  0.1550
24684W        W67596  26.644  24.283  18.925  0.0852  0.0172  0.0412
24685W        W67597  27.801  22.647  19.883 -0.1774 -0.1579 -0.0361
24686W        W67598  25.238  23.650  19.461 -0.0113 -0.0106  0.0168
24687W        W67599  25.362  22.156  18.068 -0.1219  0.0974 -0.1245
24688W        W67600  26.558  22.268  18.433  0.0834 -0.1011 -0.0434
24689W        W67601  29.517  25.524  16.320  0.0231  0.0033 -0.0285
24690W        W67602  28.036  22.136  18.226 -0.1735 -0.1895  0.0854
24691W        W67603  25.254  23.356  17.018 -0.1817  0.0117  0.2205
24692W        W67604  28.153  25.380  17.970  0.2823  0.3557 -0.1334
24693W        W67605  28.246  25.283  18.464  0.0553  0.2322  0.0492
24694W        W67606  26.484  21.444  17.148  0.0081 -0.3677  0.0892
24695W        W67607  28.755  24.808  19.660  0.1026  0.1506  0.2972
24696W        W67608  24.596  22.824  17.135 -0.2469  0.1572 -0.0662
24697W        W67609  26.267  24.538  20.410 -0.1662 -0.1151  0.1067
24698W        W67610  26.209  22.621  20.167 -0.0138  0.0661  0.0968
24699W        W67611  24.886  21.166  16.827  0.2489  0.0229 -0.1525
24700W        W67612  27.883  21.769  17.490  0.1572 -0.2365 -0.1857
24701W        W67613  27.668  23.501  18.340 -0.0374  0.3721  0.1781
24702W        W67614  29.535  25.082  16.970 -0.3209  0.0201  0.2211
24703W        W67615  27.015  25.292  18.386 -0.0841  0.0906 -0.1625
24704W        W67616  25.874  25.656  19.721 -0.1642  0.1785 -0.0540
24705W        W67617  25.242  23.004  18.169  0.0916 -0.0951  0.0817
24706W        W67618  27.359  24.786  16.844 -0.1754 -0.0920 -0.1159
24707W        W67619  26.063  26.135  19.868 -0.3914 -0.2296  0.0057
24708W        W67620  27.922  23.556  17.515 -0.1586 -0.2626  0.3042
24709W        W67621  29.342  21.426  20.035 -0.2212  0.0030 -0.1519
24710W        W67622  27.596  23.749  17.846  0.3145  0.3764 -0.0658
24711W        W67623  26.062  22.899  19.690  0.1298  0.1732 -0.0554
24712W        W67624  25.752  24.798  20.284  0.1555 -0.0381  0.1197
24713W        W67625  27.852  24.188  18.823  0.1164 -0.2099 -0.2309
24714W        W67626  26.492  21.814  16.704  0.0661  0.3349 -0.0096
24715W        W67627  27.930  22.845  17.810  0.1426  0.0179  0.0786
24716W        W67628  27.643  25.154  16.960 -0.0821 -0.0675  0.1094
24717W        W67629  25.621  22.591  18.210 -0.1261 -0.0970  0.1181
24718W        W67630  27.117  23.291  17.079  0.3141 -0.0712  0.1085
24719W        W67631  25.657  24.009  20.821  0.0878 -0.2321 -0.3822
24720W        W67632  27.730  24.286  17.595 -0.3491  0.1941  0.2162
24721W        W67633  27.770  24.566  19.205  0.0533  0.1318 -0.3136
24722W        W67634  26.632  23.341  16.794  0.1420 -0.0854 -0.0784
24723W        W67635  29.513  24.451  16.213  0.4644  0.2147 -0.4104
24724W        W67636  27.167  26.292  17.961  0.1863 -0.0520 -0.0580
24725W        W67637  28.561  26.064  20.125  0.1743  0.2151  0.0166
24726W        W67638  27.816  25.400  19.304 -0.1560  0.3120 -0.1203
24727W        W67639  28.342  22.751  19.396  0.2059  0.2070 -0.1546
24728W        W67640  26.240  21.025  18.780  0.2300  0.5322 -0.0254
24729W        W67641  26.325  22.399  17.015  0.5419  0.1959  0.0400
24730W        W67642  28.093  24.020  16.731  0.1128 -0.0799  0.1979
24731W        W67643  28.893  22.917  18.955  0.0003 -0.3105 -0.0918
24732W        W67644  26.268  22.207  17.606  0.0968  0.0466  0.1907
24733W        W67645  27.416  23.025  16.374  0.1217  0.2737  0.3454
24734W        W67646  28.131  25.797  18.651  0.0897 -0.1839 -0.0106
24735W        W67647  26.539  22.819  19.633 -0.0209  0.0615  0.0501
24736W        W67648  26.673  25.489  23.390 -0.3128 -0.1445  0.2788
24737W        W67649  25.267  22.526  21.577 -0.2632  0.3117 -0.6199
24738W        W67650  27.493  24.304  20.146 -0.3267  0.1773  0.3638
24739W        W67651  26.580  23.515  20.281 -0.0676 -0.0079  0.1165
24740W        W67652  25.398  24.312  22.573  0.3437 -0.3666 -0.1658
24741W        W67653  27.546  24.728  20.382  0.0315  0.0492 -0.1408
24742W        W67654  25.956  21.771  23.717 -0.3144  0.0137  0.2701
24743W        W67655  27.520  25.482  23.461 -0.0825 -0.0132 -0.0594
24744W        W67656  28.851  25.934  22.642  0.1193 -0.1228  0.2869
24745W        W67657  26.220  25.469  20.539 -0.0046  0.0579 -0.0462
24746W        W67658  28.200  22.245  23.093 -0.0430 -0.0399  0.0712
24747W        W67659  27.457  24.525  24.785 -0.0316 -0.1420 -0.0033
24748W        W67660  27.469  22.934  21.172 -0.1094 -0.1470  0.0349
24749W        W67661  26.576  22.565  21.408  0.3447  0.2384  0.0198
24750W        W67662  27.941  23.508  21.398  0.1794  0.3503  0.0699
24751W        W67663  25.797  24.401  21.326 -0.2461  0.0273  0.0955
24752W        W67664  25.619  23.572  24.412 -0.3073  0.2260 -0.0981
24753W        W67665  26.835  21.666  21.886 -0.0880  0.2506 -0.0305
24754W        W67666  28.698  26.144  21.912 -0.0262 -0.0794 -0.0272
24755W        W67667  27.104  21.545  22.705  0.1574  0.0027 -0.2128
24756W        W67668  27.508  22.140  24.227 -0.1433  0.1917  0.0087
24757W        W67669  26.316  26.144  21.220 -0.3206 -0.2204 -0.3029
24758W        W67670  26.407  23.762  21.009  0.0178  0.5159 -0.2238
24759W        W67671  25.622  24.837  22.918  0.0154  0.2677  0.0816
24760W        W67672  26.942  24.350  24.626  0.0149  0.0003 -0.0491
24761W        W67673  28.303  20.758  22.997 -0.1340  0.0819 -0.3564
24762W        W67674  27.412  23.454  21.277 -0.0359 -0.0695  0.0489
24763W        W67675  26.030  25.783  23.805 -0.1286 -0.0786  0.1324
24764W        W67676  27.103  25.789  22.354 -0.1540  0.0162 -0.2192
24765W        W67677  29.142  24.307  23.511 -0.4045  0.3451 -0.0131
24766W        W67678  25.247  24.887  23.275  0.2395 -0.0085 -0.2218
24767W        W67679  26.333  25.700  21.416  0.0503  0.0750  0.1548
24768W        W67680  25.427  24.577  21.637 -0.0012 -0.1694  0.2306
24769W        W67681  28.164  24.594  21.324  0.0679 -0.2153  0.3653
24770W        W67682  29.434  25.633  22.839 -0.1640  0.1482  0.1917
24771W        W67683  26.231  26.060  24.177  0.0038 -0.0654  0.1814
24772W        W67684  25.164  24.772  22.104  0.1699  0.0481  0.1707
24773W        W67685  28.013  23.584  23.892 -0.0242  0.1539 -0.0691
24774W        W67686  27.863  23.609  23.373 -0.0645 -0.3990  0.0556
24775W        W67687  27.757  25.636  23.010 -0.0278  0.1137  0.1751
24776W        W67688  26.959  24.707  22.701 -0.0256  0.0868  0.0820
24777W        W67689  25.937  23.710  21.186  0.0470 -0.0254 -0.2571
24778W        W67690  27.211  24.847  21.584 -0.5114 -0.1223  0.2682
24779W        W67691  27.708  23.800  24.265  0.0737 -0.3724  0.1023
24780W        W67692  25.546  25.388  22.152 -0.0937  0.0976 -0.1308
24781W        W67693  28.965  22.987  23.700  0.0169 -0.0017  0.2394
24782W        W67694  26.544  25.894  20.505  0.1509 -0.0609  0.1221
24783W        W67695  27.580  24.418  20.772  0.3036  0.0754  0.1446
24784W        W67696  27.513  22.474  20.488  0.0825 -0.0194 -0.1822
24785W        W67697  28.101  23.753  20.942  0.1833  0.1298  0.1553
24786W        W67698  27.878  21.739  23.013  0.1233 -0.2463 -0.0288
24787W        W67699  26.320  26.842  22.451 -0.3298 -0.1730 -0.2289
24788W        W67700  26.633  23.006  22.955  0.1318  0.4506 -0.1934
24789W        W67701  28.732  23.535  24.571  0.0666 -0.0037  0.0493
24790W        W67702  27.271  24.064  19.765 -0.1261 -0.3909  0.0146
24791W        W67703  27.017  23.738  23.555  0.2563  0.1555  0.1276
24792W        W67704  25.836  26.724  22.931 -0.2626 -0.0371  0.2002
24793W        W67705  26.497  25.071  22.527  0.2523 -0.1878 -0.0718
24794W        W67706  28.106  25.706  19.522  0.0001  0.1159 -0.0179
24795W        W67707  27.891  24.159  21.515  0.0681 -0.1603  0.4210
24796W        W67708  26.505  24.795  19.667  0.0708  0.0018  0.2643
24797W        W67709  27.141  23.956  21.158 -0.0897  0.2456 -0.1337
24798W        W67710  26.728  23.538  25.079 -0.2234  0.1214  0.2199
24799W        W67711  25.054  24.841  23.759  0.0483 -0.0103 -0.1448
24800W        W67712  26.915  22.226  21.281  0.0077 -0.0677  0.1274
24801W        W67713  30.296  23.483  22.192 -0.0933 -0.3679 -0.1023
24802W        W67714  27.410  25.821  23.807  0.1327  0.0715 -0.4402
24803W        W67715  29.219  23.456  21.539  0.0165  0.1856  0.1616
24804W        W67716  27.347  25.368  22.850  0.1785 -0.0005  0.2232
24805W        W67717  29.013  24.249  24.435 -0.1140  0.1286  0.1861
24806W        W67718  28.767  24.983  19.216  0.0505  0.0610  0.0559
24807W        W67719  27.345  23.066  21.702 -0.1340  0.0924  0.2646
24808W        W67720  28.613  20.838  22.573 -0.1713  0.0366 -0.2964
24809W        W67721  26.979  23.298  20.428  0.1100 -0.2023  0.1423
24810W        W67722  26.107  24.644  22.474 -0.2738 -0.1739  0.2434
24811W        W67723  29.957  25.566  21.770  0.2028 -0.5261 -0.2940
24812W        W67724  28.431  24.543  20.781  0.0343 -0.2283 -0.0794
24813W        W67725  24.183  25.652  22.295 -0.0104  0.2071  0.1063
24814W        W67726  27.344  22.538  22.706  0.0626 -0.0323 -0.0199
24815W        W67727  28.285  24.022  23.779 -0.1077 -0.1217 -0.0723
24816W        W67728  26.926  27.312  20.060 -0.2696 -0.0368  0.2475
24817W        W67729  25.296  23.086  24.318  0.1104  0.3195 -0.0129
24818W        W67730  24.391  23.577  21.147  0.0846  0.4059  0.1503
24819W        W67731  26.796  21.731  23.104 -0.2140 -0.0236 -0.3645
24820W        W67732  24.485  25.707  23.807 -0.0528 -0.0566  0.2064
24821W        W67733  27.920  22.222  21.706  0.4008  0.2043 -0.1540
24822W        W67734  27.270  22.932  22.313 -0.0226  0.0131 -0.0355
24823W        W67735  29.677  22.898  22.026  0.0092 -0.1163 -0.3595
24824W        W67736  25.369  23.650  21.116  0.1009  0.2407  0.2217
24825W        W67737  28.695  24.393  22.235  0.2453  0.0618 -0.3920
24826W        W67738  28.527  23.483  21.368 -0.2762  0.0111  0.2318
24827W        W67739  28.684  24.246  21.450 -0.5401 -0.2663  0.1016
24828W        W67740  26.060  22.506  23.283 -0.3815 -0.2035 -0.2071
24829W        W67741  24.901  22.880  21.612 -0.1657  0.4257  0.5249
24830W        W67742  26.803  22.489  22.835  0.1216  0.1530 -0.1495
24831W        W67743  25.405  22.720  22.356  0.3011 -0.2025 -0.1846
24832W        W67744  28.396  23.721  22.875  0.3529  0.0881 -0.3430
24833W        W67745  26.559  22.238  21.751  0.1901 -0.3010  0.1717
24834W        W67746  28.059  22.690  21.832 -0.3200  0.1213 -0.1960
24835W        W67747  26.263  23.418  21.397  0.1636 -0.1663 -0.4910
24836W        W67748  25.979  25.260  21.813 -0.1807 -0.0892 -0.1735
24837W        W67749  28.038  22.306  23.756  0.2079 -0.1062  0.2484
24838W        W67750  27.801  26.215  22.279 -0.4069 -0.1960  0.1711
24839W        W67751  29.034  24.800  22.105  0.0262 -0.1930 -0.1124
24840W        W67752  29.035  24.970  20.574  0.0759  0.1694  0.3637
24841W        W67753  27.080  23.605  23.072 -0.1725  0.0535  0.1505
24842W        W67754  26.570  23.043  20.597  0.1078 -0.2643 -0.0271
24843W        W67755  26.873  27.128  21.191  0.0509 -0.1705 -0.0394
24844W        W67756  27.048  25.181  22.028  0.2123  0.0352  0.0234
24845W        W67757  27.771  21.200  22.651 -0.0610  0.1035  0.0141
24846W        W67758  26.925  26.157  22.599 -0.3972  0.0180 -0.0828
24847W        W67759  26.686  24.916  21.754 -0.0143  0.0772 -0.2383
24848W        W67760  25.299  24.390  24.684 -0.0070 -0.0037  0.2370
24849W        W67761  28.688  23.103  22.345  0.2161  0.0731  0.1718
24850W        W67762  27.324  24.474  22.440  0.0702 -0.2063 -0.0175
24851W        W67763  27.415  24.826  22.836  0.1223  0.1608 -0.0226
24852W        W67764  26.383  23.893  20.497  0.0320 -0.0911 -0.0923
24853W        W67765  27.732  25.203  21.635 -0.2284 -0.3406 -0.0676
24854W        W67766  27.126  25.905  18.800 -0.0351 -0.1811 -0.0494
24855W        W67767  25.174  24.063  20.903  0.1155 -0.3000  0.1443
24856W        W67768  26.659  26.498  21.296 -0.1626  0.1763  0.2996
24857W        W67769  27.500  22.063  21.423  0.1921 -0.2267  0.1697
24858W        W67770  25.901  22.953  23.406 -0.0095  0.2546  0.0561
24859W        W67771  27.283  23.507  24.319 -0.1027  0.1906 -0.0430
24860W        W67772  26.773  24.107  21.541  0.1770 -0.0635 -0.0197
24861W        W67773  27.460  25.112  24.318 -0.0083  0.0970  0.0300
24862W        W67774  27.570  23.459  21.889 -0.4932  0.0118  0.4014
24863W        W67775  29.154  22.230  21.034 -0.1474  0.0431  0.0764
24864W        W67776  28.496  23.196  24.797 -0.1105 -0.2322 -0.1438
24865W        W67777  27.976  25.072  20.327  0.0011 -0.1637  0.0088
24866W        W67778  27.755  21.884  19.862  0.0855  0.1161  0.1115
24867W        W67779  27.430  22.262  20.017 -0.0460 -0.0147  0.0095
24868W        W67780  26.242  24.657  24.300 -0.4228 -0.1298  0.1217
24869W        W67781  28.021  25.626  21.821 -0.2340  0.2678 -0.1586
24870W        W67782  27.772  25.078  23.106  0.0762 -0.1801 -0.1438
24871W        W67783  26.503  23.021  21.631  0.3939  0.1203  0.1124
24872W        W67784  28.738  25.477  19.263  0.5671  0.2260  0.2153
24873W        W67785  26.981  23.796  24.690 -0.0471 -0.1631  0.0914
24874W        W67786  28.651  25.126  24.282 -0.1253  0.0996 -0.1742
24875W        W67787  27.946  24.840  20.863 -0.1622 -0.1506  0.0717
24876W        W67788  27.026  22.697  21.938  0.0096 -0.3839  0.0148
24877W        W67789  26.339  24.767  20.935  0.1037 -0.1842  0.3421
24878W        W67790  27.418  21.498  21.600  0.0033 -0.1045 -0.2108
24879W        W67791  25.716  25.355  20.838  0.1796 -0.2394 -0.3465
24880W        W67792  27.778  23.008  21.529 -0.0594 -0.2500 -0.0219
24881W        W67793  27.029  22.219  23.370  0.3302 -0.0266 -0.0010
24882W        W67794  30.095  21.636  23.846  0.2143  0.0429  0.0989
24883W        W67795  29.328  23.643  24.175  0.1440 -0.1122  0.0883
24884W        W67796  28.456  25.009  20.582  0.1228  0.2491  0.0698
24885W        W67797  27.831  24.517  22.983 -0.0450 -0.0196 -0.0307
24886W        W67798  25.235  22.837  20.254 -0.1266  0.0920 -0.0428
24887W        W67799  26.880  21.775  23.625 -0.1656 -0.0407  0.1017
24888W        W67800  26.749  24.807  24.225 -0.3348  0.2786 -0.2136
24889W        W67801  26.992  25.703  22.854 -0.1214  0.1172 -0.3601
24890W        W67802  28.626  26.298  24.267 -0.0302  0.3992 -0.1703
24891W        W67803  26.224  24.074  21.422 -0.3358  0.0118 -0.2252
24892W        W67804  26.922  22.291  24.462 -0.0209  0.1279 -0.1921
24893W        W67805  27.434  22.239  19.533  0.1065 -0.1536 -0.3590
24894W        W67806  27.769  25.474  19.826 -0.0047  0.1181 -0.2959
24895W        W67807  25.293  24.868  20.172  0.2771  0.2131 -0.4049
24896W        W67808  25.787  21.909  21.904 -0.0797  0.0887 -0.2707
24897W        W67809  26.097  25.987  22.214 -0.1203 -0.1857  0.0294
24898W        W67810  25.784  25.181  19.925  0.2874 -0.0424  0.1954
24899W        W67811  27.769  24.021  23.825 -0.0681  0.0226 -0.0129
24900W        W67812  24.932  24.368  21.434 -0.0813 -0.4707  0.0989
24901W        W67813  28.073  23.244  21.879 -0.0713 -0.2413  0.0376
24902W        W67814  25.616  25.856  22.181  0.1322  0.0633 -0.0021
24903W        W67815  27.563  21.997  20.924 -0.2972  0.0090 -0.1547
24904W        W67816  24.964  23.625  20.865  0.1596 -0.1641 -0.3773
24905W        W67817  27.194  23.493  22.344  0.1912 -0.2826  0.0253
24906W        W67818  28.064  24.966  19.011 -0.4550  0.0740  0.1129
24907W        W67819  25.320  23.681  22.956 -0.0334  0.1492  0.2868
24908W        W67820  26.884  23.529  21.343  0.2304 -0.0911  0.2329
24909W        W67821  25.087  25.617  21.762  0.0379  0.3366 -0.0406
24910W        W67822  27.128  23.715  21.867  0.2502  0.0824  0.2955
24911W        W67823  29.331  21.461  20.543 -0.3327 -0.1264  0.0115
24912W        W67824  27.181  25.344  23.811 -0.5705  0.1792 -0.0339
24913W        W67825  27.087  23.277  23.630  0.1256 -0.1785 -0.0781
24914W        W67826  24.904  23.835  21.501  0.1284 -0.4187 -0.2691
24915W        W67827  27.071  23.028  23.218 -0.0295 -0.2288  0.3131
24916W        W67828  27.236  23.228  22.768 -0.0289 -0.1114 -0.1561
24917W        W67829  25.783  24.960  22.260  0.1201  0.0201  0.1563
24918W        W67830  26.475  26.961  21.428  0.1464  0.2938  0.1672
24919W        W67831  26.266  24.947  22.082  0.0011  0.0024 -0.0072
24920W        W67832  26.537  26.055  22.923 -0.2020 -0.1223 -0.0767
24921W        W67833  25.300  24.456  24.066 -0.1230 -0.1028  0.3508
24922W        W67834  28.223  23.350  22.363  0.0986  0.0149 -0.0060
24923W        W67835  26.220  23.629  22.485  0.3152 -0.1131  0.0892
24924W        W67836  25.207  23.865  22.436 -0.3632 -0.1767 -0.1105
24925W        W67837  27.761  23.379  22.325 -0.0287 -0.0639  0.0446
24926W        W67838  29.396  24.657  21.132 -0.2567  0.0331 -0.2661
24927W        W67839  27.176  21.263  23.354 -0.1766  0.1361 -0.1643
24928W        W67840  27.391  24.097  25.021 -0.1177  0.4462 -0.1461
24929W        W67841  28.976  21.538  22.767  0.2392 -0.1314 -0.1616
24930W        W67842  28.461  25.432  20.110 -0.2950 -0.0462  0.3370
24931W        W67843  28.036  22.692  25.266 -0.2500 -0.0785  0.0993
24932W        W67844  25.994  23.625  21.778  0.0078  0.1788 -0.0514
24933W        W67845  25.255  25.288  23.590  0.1273 -0.0963 -0.0432
24934W        W67846  26.782  25.041  21.172 -0.0928  0.0511 -0.1914
24935W        W67847  27.753  22.113  22.277  0.1349 -0.0052  0.1676
24936W        W67848  27.234  24.683  24.264  0.1802  0.2487  0.2165
24937W        W67849  25.994  25.013  20.605 -0.0629  0.0542 -0.1216
24938W        W67850  26.130  25.429  22.446 -0.0605 -0.6012  0.2719
24939W        W67851  27.999  22.514  20.396  0.1381 -0.1555  0.2106
24940W        W67852  27.819  24.681  19.954  0.2277 -0.0635  0.1091
24941W        W67853  27.222  22.067  22.783 -0.0907  0.0714 -0.3440
24942W        W67854  29.767  22.520  23.495  0.2709  0.2314 -0.0451
24943W        W67855  26.122  24.248  20.909 -0.0172 -0.2267  0.0298
24944W        W67856  28.876  22.805  23.231 -0.1176  0.2531 -0.0879
24945W        W67857  28.002  21.851  23.522 -0.0335 -0.0022 -0.1445
24946W        W67858  27.164  24.285  21.703  0.2692  0.1721 -0.4249
24947W        W67859  26.109  23.137  23.821  0.2424  0.1432 -0.3856
24948W        W67860  28.355  25.511  22.684 -0.0129 -0.2517  0.0879
24949W        W67861  25.529  24.416  25.105 -0.2287  0.1662  0.1633
24950W        W67862  26.852  22.737  20.998 -0.2493  0.1942  0.2060
24951W        W67863  26.145  23.770  23.000  0.2097  0.0435 -0.1967
24952W        W67864  28.477  23.583  23.801  0.2232  0.1068  0.1948
24953W        W67865  26.400  24.659  22.875 -0.1608  0.4838 -0.0724
24954W        W67866  25.929  26.506  21.124  0.0558 -0.0676 -0.1034
24955W        W67867  27.962  23.785  21.873  0.0913 -0.1691  0.0668
24956W        W67868  26.610  24.036  23.702  0.0898 -0.1249  0.0106
24957W        W67869  27.922  23.423  22.831 -0.0066  0.1343  0.0406
24958W        W67870  27.240  25.309  21.420  0.1128  0.0418  0.0526
24959W        W67871  24.382  25.217  22.389  0.3607 -0.1110  0.0634
24960W        W67872  27.933  22.626  22.963 -0.3795 -0.0116 -0.1030
24961W        W67873  27.446  24.086  22.063  0.1267  0.2317  0.0161
24962W        W67874  28.387  21.780  23.044 -0.2216 -0.0619  0.1530
24963W        W67875  27.507  22.651  23.200  0.2420  0.0500 -0.0208
24964W        W67876  28.396  23.457  23.316 -0.0038  0.1837 -0.2839
24965W        W67877  26.487  24.314  23.307 -0.1598 -0.0389 -0.2279
24966W        W67878  25.113  21.708  23.610  0.1383 -0.2217  0.2461
24967W        W67879  26.744  25.586  21.016 -0.1660  0.0342 -0.1861
24968W        W67880  28.239  22.869  20.617 -0.2053 -0.2554  0.1832
24969W        W67881  27.872  23.093  23.188  0.1020 -0.4557 -0.3358
24970W        W67882  29.241  22.854  20.814 -0.2763  0.1446 -0.0994
24971W        W67883  27.352  23.649  20.797  0.0355  0.1393 -0.0701
24972W        W67884  25.726  23.662  22.646 -0.1424 -0.0071  0.0773
24973W        W67885  27.816  21.879  24.721  0.1847 -0.2265  0.3025
24974W        W67886  25.162  23.181  20.793  0.0214 -0.1523  0.0943
24975W        W67887  27.697  22.186  22.846 -0.3131 -0.3281  0.3401
24976W        W67888  28.036  26.027  20.508  0.4151  0.2507  0.2082
24977W        W67889  28.297  25.310  23.155  0.0095  0.0791  0.0702
24978W        W67890  27.453  24.351  21.282  0.3212  0.2790 -0.1186
24979W        W67891  26.002  24.075  22.607  0.0284 -0.0145 -0.0034
24980W        W67892  26.324  23.986  24.108  0.2656  0.2079 -0.1228
24981W        W67893  26.585  23.582  21.779  0.0222  0.0696 -0.0449
24982W        W67894  27.332  24.840  20.983  0.0574 -0.1010  0.2923
24983W        W67895  26.857  25.134  22.990  0.0819 -0.1967 -0.1154
24984W        W67896  29.027  23.704  23.693  0.2410 -0.0430 -0.0476
24985W        W67897  28.543  22.276  20.424 -0.0879  0.1144 -0.1637
24986W        W67898  29.955  23.613  25.933 -0.0844  0.5379 -0.1965
24987W        W67899  26.205  25.765  20.932 -0.3989 -0.0326  0.0452
24988W        W67900  28.816  21.694  23.293 -0.3815 -0.0748  0.2873
24989W        W67901  25.296  25.895  23.300  0.0966 -0.1092 -0.1418
24990W        W67902  25.725  25.071  23.353 -0.2223  0.2789 -0.0764
24991W        W67903  26.559  25.385  22.141 -0.1788  0.0155 -0.1269
24992W        W67904  28.301  21.462  24.187  0.2734 -0.1310  0.1046
24993W        W67905  27.652  23.902  21.112 -0.0843 -0.1461 -0.2745
24994W        W67906  27.481  23.568  23.754 -0.0553 -0.0298  0.0318
24995W        W67907  28.507  24.201  24.270  0.0098 -0.0711 -0.2146
24996W        W67908  28.786  24.705  23.611 -0.2741 -0.3249 -0.3442
24997W        W67909  26.644  24.594  22.364 -0.1497  0.2906 -0.0731
24998W        W67910  27.733  25.259  22.095 -0.1558  0.0216  0.0460
24999W        W67911  29.003  23.139  21.158  0.0069  0.0481 -0.0865
25000W        W67912  26.068  24.642  23.387 -0.1209  0.1349 -0.1564
25001W        W67913  26.467  22.169  23.113 -0.2700 -0.1582  0.3015
25002W        W67914  26.749  22.614  23.345  0.0409 -0.2130 -0.0932
25003W        W67915  27.509  23.733  22.862  0.0330  0.1471 -0.1455
25004W        W67916  27.807  20.719  22.626  0.0294 -0.0400  0.1062
25005W        W67917  26.217  25.083  20.172  0.1186 -0.0486 -0.2218
25006W        W67918  25.189  26.168  24.178  0.0709 -0.4317  0.2328
25007W        W67919  25.785  23.010  22.611  0.0439  0.0110 -0.0156
25008W        W67920  26.081  26.202  20.743 -0.0724 -0.2160 -0.1000
25009W        W67921  27.922  23.536  19.966  0.1904 -0.1031  0.2370
25010W        W67922  26.291  23.927  22.095  0.2638 -0.4197  0.1299
25011W        W67923  26.751  25.994  21.436 -0.0630  0.0829  0.1615
25012W        W67924  27.759  22.535  21.356 -0.1688  0.0682  0.0036
25013W        W67925  26.593  25.747  22.490 -0.0264  0.0005  0.2708
25014W        W67926  24.691  25.415  20.624 -0.2029 -0.2324  0.0206
25015W        W67927  25.790  24.489  20.623 -0.1989 -0.1457  0.2407
25016W        W67928  27.752  26.665  19.933  0.0432  0.1949 -0.1221
25017W        W67929  29.435  24.780  23.531 -0.0167 -0.0701  0.0911
25018W        W67930  27.958  23.116  20.210 -0.1209  0.0895 -0.0857
25019W        W67931  28.346  24.792  22.245  0.0270  0.1668  0.2300
25020W        W67932  27.084  23.741  20.193 -0.0262  0.1406  0.0614
25021W        W67933  26.880  24.634  23.214 -0.0667  0.0188  0.0587
25022W        W67934  26.439  24.190  22.715  0.2388 -0.0473  0.0866
25023W        W67935  25.610  23.320  20.750 -0.2614 -0.0409  0.1457
25024W        W67936  26.809  25.316  24.116 -0.0644 -0.1732  0.0189
25025W        W67937  29.394  22.865  23.269  0.2093  0.2395  0.1659
25026W        W67938  23.793  25.998  23.620 -0.0149 -0.0627 -0.1021
25027W        W67939  28.555  25.866  20.966  0.0691 -0.1992  0.0994
25028W        W67940  25.198  22.714  21.091 -0.0014  0.0133  0.1699
25029W        W67941  27.022  24.718  22.051 -0.0419  0.2245  0.1621
25030W        W67942  28.196  22.359  22.177  0.1196  0.0354  0.1560
25031W        W67943  25.890  24.356  23.015 -0.0952 -0.0277  0.3414
25032W        W67944  28.121  21.268  23.028  0.1242  0.0813  0.0259
25033W        W67945  27.358  26.293  22.159 -0.2570  0.0682 -0.3545
25034W        W67946  25.304  25.781  23.839 -0.1102  0.5381  0.1645
25035W        W67947  27.228  25.103  23.319  0.0270 -0.0463  0.3438
25036W        W67948  26.022  22.839  20.657  0.5703 -0.2847  0.0815
25037W        W67949  26.767  23.765  22.240  0.0066 -0.1016 -0.0535
25038W        W67950  26.432  22.993  23.428  0.3311 -0.0268  0.2617
25039W        W67951  29.274  21.409  23.136 -0.0948 -0.1186 -0.1029
25040W        W67952  26.055  24.117  23.498  0.2157 -0.1728  0.0672
25041W        W67953  29.477  23.292  20.480 -0.3119 -0.4869  0.0612
25042W        W67954  27.468  23.967  23.438  0.1221  0.1100  0.0200
25043W        W67955  25.543  24.694  23.667 -0.1435  0.0437 -0.2365
25044W        W67956  26.935  23.046  21.412 -0.3815 -0.0634  0.2551
25045W        W67957  28.869  23.843  23.100  0.2408 -0.1396  0.2860
25046W        W67958  27.977  22.331  19.498 -0.0814 -0.2977  0.2836
25047W        W67959  28.753  25.947  23.613  0.1405 -0.0163  0.2110
25048W        W67960  26.037  25.149  22.883  0.2478  0.0407 -0.2726
25049W        W67961  28.550  23.055  20.192 -0.0702  0.0058 -0.0910
25050W        W67962  25.675  24.440  22.156  0.0451  0.0462 -0.1067
25051W        W67963  26.723  23.325  22.504 -0.1295  0.1090  0.2223
25052W        W67964  30.014  26.831  22.850  0.2920 -0.1042 -0.1011
25053W        W67965  26.593  23.296  21.026  0.0890  0.1716  0.1192
25054W        W67966  28.605  24.873  21.134  0.0334  0.0305  0.3297
25055W        W67967  28.451  24.042  23.264 -0.4307 -0.2111  0.1543
25056W        W67968  26.549  25.279  19.736 -0.2244  0.0863 -0.1179
25057W        W67969  29.583  23.266  20.977  0.0329 -0.0416 -0.0656
25058W        W67970  29.081  25.066  21.115  0.2414 -0.3699  0.1703
25059W        W67971  26.135  25.362  23.499  0.1267 -0.0269  0.1885
25060W        W67972  27.263  26.584  22.671  0.0605  0.0354  0.2132
25061W        W67973  28.674  25.013  23.022  0.0967 -0.4129  0.2207
25062W        W67974  25.655  22.735  19.409 -0.0653  0.1958  0.0820
25063W        W67975  26.087  24.854  23.832 -0.0490 -0.2253  0.0772
25064W        W67976  26.407  24.439  21.901 -0.1652  0.2932 -0.1425
25065W        W67977  27.709  24.193  22.604 -0.4390 -0.0782  0.3914
25066W        W67978  28.921  22.864  22.703  0.2116 -0.1429 -0.0068
25067W        W67979  27.572  26.161  21.177 -0.0079  0.2083  0.1553
25068W        W67980  30.164  22.062  24.104  0.1092  0.0552 -0.0313
25069W        W67981  27.908  25.798  22.514  0.1662  0.3884  0.0881
25070W        W67982  27.927  25.246  23.555 -0.0477 -0.1628 -0.2138
25071W        W67983  25.096  24.516  20.529 -0.0703  0.3333 -0.0526
25072W        W67984  27.486  24.403  23.797  0.2424  0.1422  0.0532
25073W        W67985  28.363  25.287  20.974 -0.0798  0.1237 -0.0054
25074W        W67986  27.095  26.293  21.648 -0.1299  0.0070 -0.1491
25075W        W67987  28.094  26.630  22.300  0.4077  0.1173  0.1472
25076W        W67988  27.191  22.598  21.470 -0.2307 -0.2800 -0.1034
25077W        W67989  28.304  22.990  21.502  0.1329  0.2663  0.1535
25078W        W67990  25.883  23.151  21.571  0.0230 -0.1853 -0.2630
25079W        W67991  27.464  23.362  23.265 -0.1826  0.0391 -0.1753
25080W        W67992  27.826  22.399  20.877 -0.1542  0.1755 -0.2162
25081W        W67993  26.909  24.276  24.074  0.1531  0.1172  0.2528
25082W        W67994  26.115  23.621  19.937 -0.1023  0.2498 -0.0841
25083W        W67995  26.017  24.700  19.810  0.2243 -0.1640  0.2585
25084W        W67996  27.342  24.103  24.474 -0.0646  0.1000 -0.0197
25085W        W67997  27.210  21.364  25.882 -0.2588 -0.2852 -0.1480
25086W        W67998  26.401  23.108  24.298 -0.0160 -0.0706  0.2869
25087W        W67999  25.891  23.872  23.965  0.0189 -0.3943  0.1326
25088W        W68000  26.289  23.256  22.126  0.0186  0.0676  0.4011
25089W        W68001  28.644  24.412  19.377  0.2439 -0.3749  0.1098
25090W        W68002  25.150  20.808  21.985 -0.0101  0.1927  0.0824
25091W        W68003  23.841  20.513  21.896  0.3845 -0.1337  0.0708
25092W        W68004  26.841  24.187  22.068 -0.0075 -0.0793  0.3573
25093W        W68005  27.465  23.858  21.574  0.1763  0.1269 -0.0740
25094W        W68006  27.351  22.026  23.761  0.0523  0.2488  0.1134
25095W        W68007  29.940  24.902  22.735 -0.1684  0.1301  0.0317
25096W        W68008  26.241  25.659  20.055 -0.1578  0.0004 -0.2246
25097W        W68009  26.544  23.565  24.561 -0.0093  0.1930  0.1097
25098W        W68010  27.503  23.009  23.624 -0.2020 -0.1211  0.0437
25099W        W68011  25.411  22.217  20.984 -0.0776  0.0439  0.2807
25100W        W68012  27.528  24.708  21.977  0.1626  0.0236 -0.0178
25101W        W68013  27.289  25.868  21.500 -0.1254  0.0039 -0.2246
25102W        W68014  27.819  26.812  22.678 -0.3266 -0.2141  0.0594
25103W        W68015  27.953  23.464  24.580 -0.0947 -0.0201  0.2694
25104W        W68016  28.037  24.787  23.459 -0.0773 -0.2639 -0.0667
25105W        W68017  25.187  23.053  23.775 -0.0013 -0.1209  0.1579
25106W        W68018  27.359  24.324  22.956  0.1203 -0.0136 -0.1071
25107W        W68019  28.290  24.737  24.361  0.1498  0.1093  0.1043
25108W        W68020  28.485  24.068  20.889 -0.0362  0.1893 -0.1789
25109W        W68021  28.144  23.041  22.753  0.0336 -0.2702 -0.4406
25110W        W68022  27.882  25.865  23.565  0.1092 -0.0580  0.1494
25111W        W68023  25.772  21.951  22.449 -0.0633 -0.0346 -0.1527
25112W        W68024  26.205  23.509  24.177  0.1586 -0.0589  0.2653
25113W        W68025  28.342  24.504  23.020  0.1455 -0.0751  0.2349
25114W        W68026  26.503  23.606  23.288  0.2023 -0.0833 -0.2982
25115W        W68027  28.438  21.619  20.290 -0.3813  0.1177  0.0586
25116W        W68028  26.710  25.388  21.537 -0.0229  0.1008  0.4236
25117W        W68029  24.807  24.542  24.458  0.0849 -0.1136 -0.5341
25118W        W68030  26.932  23.264  21.954  0.2454 -0.2031  0.1801
25119W        W68031  27.266  21.766  23.152  0.0764 -0.0445 -0.0278
25120W        W68032  28.352  25.622  23.568 -0.0388  0.2614 -0.0538
25121W        W68033  28.343  25.084  24.907  0.0645  0.0119 -0.0481
25122W        W68034  28.191  24.365  19.927  0.4304 -0.1879 -0.3954
25123W        W68035  30.396  22.283  21.233 -0.0087 -0.1088  0.2144
25124W        W68036  28.054  24.903  23.931 -0.0443 -0.0404  0.0117
25125W        W68037  29.484  25.218  23.749 -0.1441 -0.0413 -0.0226
25126W        W68038  27.153  26.304  23.095 -0.0277  0.0958  0.3860
25127W        W68039  27.903  24.763  22.413 -0.1644 -0.0143 -0.2434
25128W        W68040  25.068  24.265  23.665 -0.4165 -0.1045 -0.0796
25129W        W68041  26.930  25.336  22.508 -0.5269  0.1373  0.3260
25130W        W68042  27.393  24.985  22.369 -0.1979 -0.0050 -0.0456
25131W        W68043  27.123  24.005  22.516  0.2265  0.0134  0.0023
25132W        W68044  25.010  22.545  22.042  0.2258 -0.3167 -0.2105
25133W        W68045  28.046  21.983  21.195  0.0013  0.0552 -0.2659
25134W        W68046  27.502  24.961  23.806  0.2255  0.0586  0.1246
25135W        W68047  26.705  23.729  22.793  0.0031 -0.3894  0.1950
25136W        W68048  26.609  25.262  25.763  0.1284  0.1642 -0.0458
25137W        W68049  26.095  22.439  26.940  0.0840 -0.1757 -0.0550
25138W        W68050  27.979  23.151  23.730  0.2793 -0.3325  0.3140
25139W        W68051  29.332  24.054  25.577 -0.0489  0.0145 -0.2130
25140W        W68052  27.099  23.956  26.282  0.1628  0.2069 -0.2469
25141W        W68053  27.045  24.695  25.025  0.1852 -0.1586 -0.1324
25142W        W68054  25.546  22.619  28.008  0.2333  0.0819  0.2246
25143W        W68055  27.625  26.278  25.168 -0.1005  0.0208  0.0109
25144W        W68056  28.266  24.493  25.167 -0.3129 -0.1771  0.2026
25145W        W68057  27.216  23.067  24.056  0.2765 -0.1123 -0.0064
25146W        W68058  26.232  24.026  26.241  0.0299  0.0740  0.2195
25147W        W68059  28.218  24.509  25.675  0.0216 -0.3556 -0.1086
25148W        W68060  27.849  21.893  24.039 -0.0401 -0.0662 -0.0081
25149W        W68061  26.014  21.777  25.544 -0.2603  0.3945 -0.2447
25150W        W68062  28.191  23.001  26.515  0.3674  0.1040 -0.1159
25151W        W68063  25.576  23.243  25.464  0.1472 -0.2529  0.0524
25152W        W68064  25.332  21.919  27.161 -0.2156 -0.2641  0.0363
25153W        W68065  27.240  23.633  25.156  0.0547 -0.1038  0.1678
25154W        W68066  28.934  26.124  24.693  0.2528 -0.1645  0.1349
25155W        W68067  26.602  22.279  26.863  0.0509 -0.5121 -0.0723
25156W        W68068  28.500  21.630  27.305  0.1989 -0.1552 -0.0416
25157W        W68069  27.801  25.382  25.410  0.1889  0.1669 -0.1167
25158W        W68070  25.892  22.296  22.842 -0.2330  0.0482 -0.0760
25159W        W68071  25.412  23.996  26.286 -0.1632  0.0290 -0.0878
25160W        W68072  26.409  22.820  26.993  0.1095 -0.1879 -0.0789
25161W        W68073  28.469  21.364  26.435  0.0060 -0.0174 -0.0535
25162W        W68074  28.106  22.420  25.818 -0.0176  0.0631 -0.0682
25163W        W68075  25.688  24.802  24.162 -0.0405  0.0985  0.2873
25164W        W68076  27.607  24.895  25.620  0.3689  0.1110  0.1765
25165W        W68077  28.291  23.968  29.053  0.1929 -0.1796 -0.2913
25166W        W68078  25.940  24.827  24.721  0.4279 -0.2198  0.0607
25167W        W68079  26.274  24.426  25.317  0.3755 -0.1286  0.0353
25168W        W68080  27.106  24.705  25.888  0.3744  0.1141 -0.2153
25169W        W68081  29.205  23.510  24.715  0.0745 -0.1676 -0.1267
25170W        W68082  27.555  23.922  26.050 -0.1954  0.2843 -0.1912
25171W        W68083  26.264  27.262  27.154  0.0766 -0.5544 -0.1045
25172W        W68084  25.396  25.715  24.341  0.2596  0.0098 -0.1339
25173W        W68085  27.282  24.962  26.819  0.1975  0.5378 -0.0207
25174W        W68086  26.886  24.796  28.257 -0.2233 -0.0417 -0.1118
25175W        W68087  27.955  24.635  24.697  0.1438 -0.2715  0.2916
25176W        W68088  29.735  23.147  25.956 -0.1456  0.0733  0.1390
25177W        W68089  27.922  25.851  24.050 -0.0117  0.1458 -0.2612
25178W        W68090  27.007  25.056  24.575 -0.0680 -0.0392  0.0280
25179W        W68091  27.180  24.563  26.415 -0.1170 -0.3087  0.2411
25180W        W68092  26.484  24.738  25.864 -0.0002  0.1036  0.1799
25181W        W68093  29.676  22.583  28.686  0.2142 -0.0127  0.4983
25182W        W68094  27.668  25.627  24.426  0.2548 -0.0003  0.1172
25183W        W68095  28.619  23.596  25.103  0.0753  0.2697 -0.2604
25184W        W68096  26.189  22.576  23.781  0.0420  0.0443  0.0009
25185W        W68097  28.538  22.878  25.203 -0.0086  0.0414  0.1337
25186W        W68098  26.718  21.512  26.114 -0.1135  0.2294  0.0799
25187W        W68099  26.061  26.434  26.085 -0.1374  0.2818  0.2229
25188W        W68100  26.847  21.626  27.319 -0.0012 -0.0776 -0.1117
25189W        W68101  28.771  24.524  26.694 -0.0645  0.0032 -0.0276
25190W        W68102  27.459  24.414  26.023 -0.4544  0.2623  0.2489
25191W        W68103  27.964  21.989  26.604 -0.0187  0.3114 -0.5191
25192W        W68104  26.129  25.693  26.921 -0.0251  0.3377  0.0224
25193W        W68105  25.184  23.170  25.833  0.0608  0.5071  0.1982
25194W        W68106  28.222  25.006  22.706 -0.2167 -0.3017  0.2356
25195W        W68107  29.421  24.309  25.964 -0.1757 -0.1114 -0.2239
25196W        W68108  27.750  25.491  24.923  0.0825 -0.0935 -0.0354
25197W        W68109  25.846  22.026  27.261 -0.0463 -0.1662 -0.1841
25198W        W68110  26.768  24.070  26.634  0.3536  0.0877  0.2521
25199W        W68111  25.133  23.368  27.433 -0.4015  0.0363 -0.1161
25200W        W68112  27.535  21.608  23.626 -0.0837 -0.0823  0.0840
25201W        W68113  28.584  23.406  27.380 -0.0015  0.1787 -0.2177
25202W        W68114  26.752  25.828  27.390 -0.0116 -0.0040  0.1372
25203W        W68115  29.724  22.206  24.244 -0.1256  0.2100 -0.0886
25204W        W68116  27.961  23.108  27.235  0.0194  0.0531  0.1939
25205W        W68117  28.766  25.361  25.172 -0.4793  0.2493 -0.0295
25206W        W68118  28.717  25.496  23.255  0.1802 -0.1992 -0.0924
25207W        W68119  27.496  20.928  25.246  0.0867 -0.0487  0.0880
25208W        W68120  28.789  22.636  26.988  0.3490 -0.0002  0.0359
25209W        W68121  27.036  22.378  24.976  0.1513 -0.0284 -0.0644
25210W        W68122  27.808  23.656  25.661 -0.2561 -0.1961  0.0812
25211W        W68123  28.454  24.150  26.243  0.5729 -0.1911  0.1696
25212W        W68124  29.250  23.003  24.162  0.0862 -0.1344  0.3035
25213W        W68125  26.779  24.791  26.701 -0.2441 -0.4043 -0.2027
25214W        W68126  26.179  22.531  27.455 -0.2270  0.2448 -0.2046
25215W        W68127  27.118  25.224  28.385  0.3956 -0.0088 -0.0833
25216W        W68128  25.632  26.548  24.115  0.0428  0.4477  0.0067
25217W        W68129  26.000  23.635  26.727 -0.3473  0.2852  0.2417
25218W        W68130  25.896  23.020  24.285 -0.1656 -0.1909 -0.2998
25219W        W68131  24.592  21.732  26.864 -0.2426  0.0416 -0.0438
25220W        W68132  26.134  25.264  26.142 -0.2455  0.0598 -0.0388
25221W        W68133  29.697  21.883  24.999  0.1797 -0.2003  0.2867
25222W        W68134  28.236  22.829  27.553 -0.0288  0.1361 -0.2968
25223W        W68135  28.084  21.354  25.795  0.0706  0.1593 -0.1155
25224W        W68136  26.395  24.209  25.780  0.3841  0.0347  0.2613
25225W        W68137  29.203  24.825  24.557 -0.3618  0.0078 -0.0901
25226W        W68138  28.438  22.702  24.484 -0.1473 -0.1682 -0.1299
25227W        W68139  29.215  25.630  23.544  0.1546 -0.0690  0.0376
25228W        W68140  26.316  23.337  26.978 -0.1547 -0.1004  0.0037
25229W        W68141  27.194  23.105  25.880 -0.2637  0.1611  0.3038
25230W        W68142  26.635  22.816  27.786  0.1826  0.2347  0.0762
25231W        W68143  24.835  23.053  27.128 -0.0325 -0.0313 -0.0111
25232W        W68144  27.382  22.427  27.318 -0.4144  0.4057 -0.2327
25233W        W68145  26.661  21.349  25.238  0.2304  0.0618  0.0215
25234W        W68146  27.106  22.626  25.495  0.1120  0.0636 -0.0419
25235W        W68147  27.077  23.614  26.955 -0.0358 -0.4069  0.2440
25236W        W68148  25.360  25.120  24.032  0.1023  0.0477  0.0652
25237W        W68149  29.280  23.646  28.263  0.0665 -0.0838 -0.1028
25238W        W68150  29.012  25.959  24.042 -0.2104  0.1098  0.0130
25239W        W68151  29.016  24.870  26.435  0.0111  0.0961 -0.1345
25240W        W68152  29.572  24.967  24.809 -0.2218  0.0004 -0.1080
25241W        W68153  26.225  22.941  28.248 -0.2135  0.0333  0.3320
25242W        W68154  27.286  22.615  24.458 -0.4075 -0.1882 -0.1243
25243W        W68155  25.703  24.431  24.432  0.0092  0.0700 -0.1407
25244W        W68156  26.994  24.233  25.881  0.1264  0.1899 -0.4301
25245W        W68157  28.000  22.211  25.323 -0.2260  0.2578  0.0744
25246W        W68158  28.546  25.233  26.519 -0.1908  0.1994 -0.0200
25247W        W68159  28.865  23.665  25.510 -0.1326  0.0024  0.0802
25248W        W68160  26.041  24.477  26.026 -0.0954 -0.2049 -0.2982
25249W        W68161  28.306  22.097  28.614  0.2654  0.1192  0.0467
25250W        W68162  28.943  23.324  26.509  0.0459 -0.0652 -0.3177
25251W        W68163  28.413  23.501  25.635  0.1384  0.0050 -0.1730
25252W        W68164  26.401  21.453  22.979 -0.0481 -0.0359 -0.1866
25253W        W68165  29.968  25.287  24.857 -0.1842  0.4235 -0.0790
25254W        W68166  26.041  25.272  25.512  0.3163  0.0473  0.1683
25255W        W68167  23.894  23.426  25.709  0.1200  0.1088 -0.0348
25256W        W68168  26.886  25.203  25.013 -0.2101  0.1851 -0.2103
25257W        W68169  28.522  21.224  25.986  0.5067  0.1033 -0.0184
25258W        W68170  24.337  23.636  26.668  0.2014  0.3701 -0.1505
25259W        W68171  27.536  23.697  27.567 -0.0717 -0.2830  0.2918
25260W        W68172  27.294  23.900  24.038  0.0739 -0.1189  0.1924
25261W        W68173  26.943  24.914  27.143  0.0132 -0.0205  0.1213
25262W        W68174  27.785  23.035  26.792  0.0190 -0.0666 -0.0599
25263W        W68175  29.742  22.977  24.005 -0.0931  0.1034 -0.0502
25264W        W68176  27.543  23.428  27.132 -0.1371  0.1824 -0.1028
25265W        W68177  28.959  23.218  25.071  0.3135  0.0086  0.0273
25266W        W68178  28.961  22.112  23.645  0.2354  0.1170  0.0340
25267W        W68179  28.445  23.012  23.568  0.0146 -0.2283 -0.0599
25268W        W68180  27.801  24.107  27.360 -0.2016  0.3062 -0.0752
25269W        W68181  27.896  24.986  25.034  0.1219  0.0851  0.1302
25270W        W68182  28.477  24.045  25.719  0.0277 -0.1485  0.0428
25271W        W68183  28.104  22.335  24.762 -0.1099 -0.2624 -0.0377
25272W        W68184  28.801  25.067  24.730 -0.0148  0.1626 -0.0295
25273W        W68185  24.705  22.586  27.301 -0.0032 -0.3692 -0.3536
25274W        W68186  27.879  23.083  28.419 -0.2886 -0.1682 -0.0694
25275W        W68187  28.555  25.769  24.876 -0.1115 -0.0520  0.0840
25276W        W68188  27.701  22.615  24.739  0.1967  0.2596  0.1743
25277W        W68189  27.274  22.820  24.909  0.2002  0.2091 -0.1062
25278W        W68190  27.503  22.488  25.200  0.0210 -0.2839 -0.0568
25279W        W68191  24.882  25.775  24.084  0.2979  0.3771  0.0501
25280W        W68192  27.649  21.886  27.973  0.0626  0.1057 -0.1078
25281W        W68193  27.125  22.610  28.530  0.0895 -0.2578  0.1020
25282W        W68194  27.600  21.675  28.941 -0.2032 -0.2820  0.0997
25283W        W68195  28.844  23.524  28.786 -0.2361 -0.1225 -0.2409
25284W        W68196  29.122  22.409  24.401  0.0613  0.0990 -0.0006
25285W        W68197  28.406  23.934  26.697  0.0909  0.0653  0.0486
25286W        W68198  26.733  22.952  23.900  0.1228 -0.1767 -0.0647
25287W        W68199  27.824  21.985  28.524 -0.1067 -0.3043  0.4712
25288W        W68200  26.368  24.037  27.390  0.1422 -0.4073  0.1348
25289W        W68201  24.661  24.672  25.794 -0.0227  0.2331 -0.0776
25290W        W68202  28.046  24.454  27.082 -0.1249 -0.0677  0.0585
25291W        W68203  28.813  24.138  25.345  0.2275 -0.1115  0.0263
25292W        W68204  28.540  23.107  27.839  0.0089  0.3150  0.1032
25293W        W68205  27.816  21.639  25.359 -0.1117 -0.1176 -0.1496
25294W        W68206  28.540  27.785  23.536  0.1587  0.0589  0.0453
25295W        W68207  28.314  23.794  24.781  0.2708  0.0974  0.0301
25296W        W68208  26.666  22.527  27.313  0.1960  0.1370  0.1917
25297W        W68209  28.111  23.727  26.042 -0.1006  0.1294  0.3100
25298W        W68210  28.068  24.334  23.408  0.0680  0.2221 -0.0467
25299W        W68211  28.258  23.493  28.067  0.2361  0.0638 -0.0905
25300W        W68212  27.576  26.144  25.844  0.1816 -0.0117 -0.1655
25301W        W68213  27.835  22.147  26.133 -0.3026  0.1106  0.1318
25302W        W68214  25.534  25.194  25.561  0.0778  0.0262  0.2117
25303W        W68215  26.510  24.491  23.894  0.0156 -0.0989 -0.0527
25304W        W68216  24.562  23.006  24.846 -0.1588  0.0651  0.1720
25305W        W68217  27.594  21.761  25.909  0.1703  0.0543  0.0132
25306W        W68218  28.344  24.555  23.806 -0.0434  0.3317 -0.6881
25307W        W68219  26.584  22.593  28.260  0.3386 -0.0139 -0.0001
25308W        W68220  27.570  23.185  25.586  0.1004 -0.0316  0.0003
25309W        W68221  25.101  25.563  25.611 -0.0881  0.0684  0.2215
25310W        W68222  29.613  23.908  26.184  0.2914 -0.1730  0.2412
25311W        W68223  27.677  23.273  24.160  0.3484  0.2314  0.0563
25312W        W68224  27.526  26.668  25.529 -0.2469  0.3543 -0.1285
25313W        W68225  27.290  25.133  26.363 -0.1500 -0.1181 -0.1758
25314W        W68226  26.928  24.095  25.121 -0.1556 -0.0660  0.1941
25315W        W68227  29.152  23.658  27.047 -0.3033  0.3643 -0.3180
25316W        W68228  26.904  22.459  26.369  0.0051  0.1138  0.2007
25317W        W68229  25.006  25.869  25.126  0.0667  0.1552  0.0823
25318W        W68230  26.187  25.755  25.708  0.2057  0.0724  0.2922
25319W        W68231  26.696  23.224  26.006  0.1367 -0.0208  0.0080
25320W        W68232  26.561  23.920  25.441  0.0475 -0.0944  0.3063
25321W        W68233  26.093  22.389  28.077  0.2092  0.0809  0.0210
25322W        W68234  28.442  23.485  26.431 -0.2381  0.1531 -0.2786
25323W        W68235  27.635  22.740  25.690 -0.0028 -0.3102  0.1085
25324W        W68236  26.519  23.633  26.449  0.4265 -0.0479 -0.0695
25325W        W68237  28.448  23.070  26.123  0.3209 -0.1632  0.2095
25326W        W68238  28.487  25.964  25.460 -0.1455  0.3400 -0.0886
25327W        W68239  28.290  23.795  27.287 -0.1348  0.0606  0.5892
25328W        W68240  26.227  25.666  27.411 -0.0737  0.3856 -0.3220
25329W        W68241  27.103  20.499  26.634 -0.1030  0.1403  0.1854
25330W        W68242  28.270  25.364  24.062  0.2043 -0.0542  0.0852
25331W        W68243  27.205  22.855  27.575 -0.1345  0.0123 -0.3815
25332W        W68244  27.542  23.668  24.750 -0.0013  0.0117 -0.2247
25333W        W68245  26.161  22.702  25.604 -0.0156  0.1885 -0.1679
25334W        W68246  27.049  24.193  23.567  0.0455  0.0890 -0.0734
25335W        W68247  27.922  24.009  26.864 -0.0252 -0.0750 -0.1638
25336W        W68248  26.173  23.480  26.151  0.3444  0.1921  0.0004
25337W        W68249  26.054  24.361  24.811  0.0481  0.0821  0.1666
25338W        W68250  26.447  24.916  27.374  0.1569  0.0098  0.0528
25339W        W68251  28.881  23.028  24.511  0.1119 -0.1415 -0.0238
25340W        W68252  27.782  23.742  25.175  0.1458 -0.3122 -0.1147
25341W        W68253  28.138  23.480  26.924  0.0070  0.0879 -0.1099
25342W        W68254  29.675  21.495  28.143 -0.2544 -0.2384 -0.1513
25343W        W68255  28.015  23.226  25.866  0.3184  0.0005  0.0057
25344W        W68256  27.178  21.704  27.806  0.1983  0.1838 -0.0718
25345W        W68257  26.917  21.755  28.298  0.1777 -0.0654  0.2730
25346W        W68258  29.546  24.033  25.076 -0.1430  0.2403 -0.0214
25347W        W68259  27.470  24.126  26.579 -0.2638 -0.1422  0.2250
25348W        W68260  27.517  23.551  28.498 -0.1282  0.1623  0.5163
25349W        W68261  27.860  24.682  27.488 -0.0551 -0.1081  0.2303
25350W        W68262  28.046  21.115  26.281 -0.1862  0.0063 -0.0249
25351W        W68263  25.502  21.892  23.464 -0.1037 -0.2048  0.1275
25352W        W68264  26.992  24.350  27.034 -0.0074  0.0319  0.1121
25353W        W68265  29.069  24.300  24.996 -0.2364  0.0864  0.0630
25354W        W68266  27.726  24.662  24.272  0.3955  0.0221  0.1503
25355W        W68267  26.442  22.048  27.338  0.0514 -0.1394  0.2377
25356W        W68268  24.953  25.086  25.737  0.2116  0.4384  0.0868
25357W        W68269  28.654  24.688  25.614 -0.0127  0.0772  0.1750
25358W        W68270  28.004  24.192  24.309  0.2673 -0.0487  0.0408
25359W        W68271  25.774  25.982  26.140 -0.1183 -0.1095 -0.0907
25360W        W68272  27.317  22.989  27.122  0.6174  0.2232  0.1322
25361W        W68273  28.753  23.445  26.006  0.1956  0.1408  0.1553
25362W        W68274  28.554  20.727  26.671 -0.1739 -0.0554 -0.3026
25363W        W68275  26.887  22.691  26.925  0.0198 -0.1039  0.0484
25364W        W68276  28.103  21.043  26.761  0.0598 -0.2249 -0.2108
25365W        W68277  26.595  25.357  27.161  0.0345  0.0304 -0.0273
25366W        W68278  25.694  23.564  26.359  0.0112  0.0547  0.0343
25367W        W68279  28.921  25.694  25.591 -0.0091 -0.2442  0.0604
25368W        W68280  28.574  22.243  25.709  0.0053 -0.3261  0.1498
25369W        W68281  29.358  22.745  27.210  0.1721 -0.2650 -0.0169
25370W        W68282  29.226  22.697  25.114 -0.3042 -0.4461 -0.3527
25371W        W68283  28.265  22.705  23.937  0.0021 -0.2113  0.4926
25372W        W68284  25.783  22.855  27.039  0.1018 -0.2018 -0.3435
25373W        W68285  28.875  24.483  27.296 -0.0841  0.0260 -0.2219
25374W        W68286  26.994  23.608  25.622 -0.0766 -0.3004 -0.2950
25375W        W68287  28.818  22.901  27.420  0.0123 -0.1293 -0.1259
25376W        W68288  27.799  25.317  22.624  0.0773 -0.1019 -0.1084
25377W        W68289  28.032  24.961  25.834 -0.1505  0.2360 -0.0588
25378W        W68290  29.128  22.276  25.708  0.2503 -0.1225  0.2798
25379W        W68291  26.190  22.191  25.752  0.0875  0.0050  0.0486
25380W        W68292  27.338  24.786  28.669 -0.2318 -0.0663 -0.2002
25381W        W68293  27.022  23.251  24.711 -0.2993  0.2104 -0.4288
25382W        W68294  27.190  25.260  25.839 -0.0452  0.0385 -0.1096
25383W        W68295  28.028  25.167  27.331 -0.0811  0.2159 -0.0027
25384W        W68296  29.220  24.160  27.359  0.2541  0.0983  0.1165
25385W        W68297  27.165  22.435  24.028  0.0857  0.0566 -0.0049
25386W        W68298  28.037  22.352  27.608 -0.1179  0.0710 -0.2101
25387W        W68299  26.504  24.873  25.403  0.0695 -0.0667 -0.1265
25388W        W68300  28.023  20.627  26.514  0.0377 -0.0001  0.0280
25389W        W68301  27.701  25.402  26.620  0.1923  0.0565 -0.0189
25390W        W68302  25.774  24.049  25.941 -0.1202 -0.1127 -0.2679
25391W        W68303  26.685  24.486  26.280  0.2008  0.2769  0.1520
25392W        W68304  27.233  21.898  27.153  0.0466  0.0840 -0.0666
25393W        W68305  28.196  21.513  24.677 -0.0288 -0.0535 -0.0041
25394W        W68306  27.601  23.415  26.053 -0.1826  0.0007 -0.0548
25395W        W68307  29.682  24.342  26.406 -0.0996 -0.2164  0.1312
25396W        W68308  27.265  25.644  26.357 -0.0435  0.1110 -0.1001
25397W        W68309  25.822  24.137  26.589  0.0511  0.3079  0.0035
25398W        W68310  29.282  24.379  26.868  0.0243  0.2927  0.1563
25399W        W68311  30.756  23.489  25.327  0.0408  0.0386 -0.2892
25400W        W68312  26.825  25.910  26.338 -0.2047  0.1435 -0.2923
25401W        W68313  25.042  22.404  26.896 -0.1473  0.1863 -0.0385
25402W        W68314  25.933  23.786  28.184 -0.0468  0.0305 -0.0195
25403W        W68315  26.334  24.852  26.380 -0.1909 -0.2471 -0.0735
25404W        W68316  25.976  23.086  25.176  0.1440 -0.0223  0.0857
25405W        W68317  28.379  24.264  24.746  0.0728  0.1103 -0.0062
25406W        W68318  26.210  24.424  26.560 -0.0893  0.0627 -0.0841
25407W        W68319  24.867  23.677  26.561 -0.2312 -0.1414 -0.0399
25408W        W68320  26.035  25.753  25.195  0.2013  0.0213 -0.0114
25409W        W68321  28.478  25.108  23.601  0.0341 -0.2301  0.0278
25410W        W68322  28.321  23.747  24.304 -0.1125 -0.1754  0.1583
25411W        W68323  28.684  24.708  25.091  0.3039  0.1785  0.2365
25412W        W68324  27.554  23.233  25.030  0.1117  0.2464 -0.1825
25413W        W68325  26.971  26.551  26.683 -0.1900  0.0553  0.0445
25414W        W68326  26.275  25.121  24.992  0.0648  0.0040  0.2942
25415W        W68327  27.950  25.883  25.496 -0.1516  0.1027  0.1867
25416W        W68328  27.428  25.033  25.030 -0.1883 -0.0999  0.0434
25417W        W68329  27.067  26.232  27.817  0.1898 -0.0771  0.2660
25418W        W68330  28.369  23.276  24.287 -0.0788  0.2430 -0.1802
25419W        W68331  29.452  23.271  25.201 -0.1759  0.0423 -0.2571
25420W        W68332  29.851  22.713  25.391 -0.2283  0.1415  0.2277
25421W        W68333  28.859  23.902  26.387  0.4412  0.0034  0.1046
25422W        W68334  27.083  23.443  26.262 -0.3971  0.1629  0.0316
25423W        W68335  26.807  23.823  24.233 -0.1198  0.1557 -0.1596
25424W        W68336  27.416  23.956  27.120  0.0303  0.0409 -0.0614
25425W        W68337  29.312  22.107  27.412  0.0231 -0.1686 -0.0055
25426W        W68338  26.014  25.174  27.221 -0.1447 -0.0498 -0.0467
25427W        W68339  29.006  25.183  23.589  0.0829  0.0896 -0.2635
25428W        W68340  26.628  22.497  24.117  0.0123 -0.2629 -0.3122
25429W        W68341  27.576  22.202  26.897 -0.2348  0.1841  0.1451
25430W        W68342  28.473  22.501  28.382 -0.0191 -0.2166 -0.0258
25431W        W68343  26.442  25.034  23.229 -0.2244 -0.2111  0.2945
25432W        W68344  26.089  23.083  27.363 -0.3156  0.2414  0.2801
25433W        W68345  28.312  23.947  25.255  0.2561  0.0683  0.3898
25434W        W68346  26.969  26.006  26.852 -0.2691  0.0494  0.1066
25435W        W68347  28.240  24.429  26.591 -0.5163 -0.0288 -0.1162
25436W        W68348  26.501  22.650  24.583  0.1464  0.2382  0.3037
25437W        W68349  29.084  23.011  26.112  0.1933 -0.1374  0.2188
25438W        W68350  26.771  22.757  25.801  0.0521 -0.0170 -0.2454
25439W        W68351  27.584  21.998  27.485 -0.1119  0.0904  0.1938
25440W        W68352  26.813  23.189  26.770  0.1025  0.1717 -0.0183
25441W        W68353  28.788  22.667  25.907  0.0283 -0.0596 -0.2132
25442W        W68354  26.691  23.045  27.314 -0.2147  0.3944 -0.0481
25443W        W68355  25.590  22.878  27.530  0.2222 -0.1700 -0.1147
25444W        W68356  26.802  22.820  25.025  0.1916  0.0200 -0.1346
25445W        W68357  29.138  23.780  26.021  0.1747 -0.0635 -0.2402
25446W        W68358  28.000  23.035  24.847 -0.2203 -0.1466  0.0846
25447W        W68359  27.184  25.439  26.888 -0.1039  0.1404 -0.1070
25448W        W68360  25.114  22.832  26.633  0.0513  0.3253  0.0388
25449W        W68361  27.543  22.895  26.295  0.2727  0.1246  0.1576
25450W        W68362  27.007  23.132  25.329  0.2819 -0.1771 -0.2380
25451W        W68363  27.316  23.205  26.682  0.1352 -0.1297 -0.0400
25452W        W68364  28.483  24.267  27.065 -0.0552  0.0897  0.0199
25453W        W68365  27.614  21.105  25.724  0.2714 -0.0810  0.0313
25454W        W68366  28.826  25.497  23.907 -0.1564  0.1317  0.2027
25455W        W68367  29.119  24.372  26.357  0.1556 -0.0888 -0.1070
25456W        W68368  27.699  25.409  23.965  0.3336 -0.2199 -0.2828
25457W        W68369  29.196  23.734  25.159  0.1856  0.1465  0.2190
25458W        W68370  29.030  25.789  26.272  0.1566 -0.2536 -0.1408
25459W        W68371  25.623  22.718  25.672  0.0482  0.0985 -0.1915
25460W        W68372  28.179  26.284  25.274 -0.0697 -0.1035 -0.2239
25461W        W68373  28.750  25.215  25.653  0.1950 -0.0869 -0.1455
25462W        W68374  27.670  21.517  24.431 -0.3659 -0.2694 -0.0270
25463W        W68375  26.397  22.556  26.044 -0.0787 -0.1192  0.0592
25464W        W68376  26.745  23.786  26.015  0.2212 -0.2563  0.2421
25465W        W68377  29.324  21.844  26.595  0.1816 -0.0057 -0.0653
25466W        W68378  29.313  23.684  27.562  0.0837  0.0583 -0.3444
25467W        W68379  27.211  25.570  24.245  0.1006 -0.3625 -0.1026
25468W        W68380  28.800  21.306  27.940  0.0443  0.0112 -0.1321
25469W        W68381  27.910  24.035  26.392 -0.3659 -0.0754 -0.2803
25470W        W68382  26.491  25.988  28.008  0.1853 -0.2855 -0.0500
25471W        W68383  26.040  23.452  24.707  0.0227 -0.2039 -0.0033
25472W        W68384  26.580  25.714  26.825 -0.1368 -0.1370 -0.2168
25473W        W68385  25.616  23.991  24.786  0.1134  0.2606  0.0692
25474W        W68386  26.587  26.072  24.647  0.4143 -0.1066  0.0305
25475W        W68387  29.761  25.089  25.857 -0.0257 -0.0372 -0.5623
25476W        W68388  27.921  23.437  26.469 -0.4184 -0.2577  0.0276
25477W        W68389  29.112  24.543  25.509  0.1502  0.0585  0.0109
25478W        W68390  27.231  22.539  25.996  0.3257 -0.1596  0.0392
25479W        W68391  30.326  23.439  25.065  0.1605 -0.1953  0.0245
25480W        W68392  30.603  21.893  26.083 -0.3230 -0.4019  0.2219
25481W        W68393  26.489  22.796  26.481 -0.0907 -0.1428 -0.0087
25482W        W68394  25.189  23.747  24.829  0.2779  0.3873 -0.0468
25483W        W68395  26.262  23.544  25.161 -0.0273  0.0427 -0.1181
25484W        W68396  26.803  24.502  25.498 -0.1240  0.1194  0.2579
25485W        W68397  26.821  23.037  28.370 -0.1194 -0.3808 -0.0466
25486W        W68398  25.597  24.620  27.847 -0.2210 -0.3329  0.2227
25487W        W68399  25.770  24.376  25.563 -0.1344 -0.3008  0.1144
25488W        W68400  26.313  22.678  25.077 -0.0090 -0.0888 -0.0978
25489W        W68401  28.200  25.557  24.567  0.1346  0.2458  0.2970
25490W        W68402  24.842  22.047  27.161 -0.0453  0.5031  0.1290
25491W        W68403  26.242  22.231  26.474 -0.1831 -0.0004 -0.1410
25492W        W68404  28.718  24.570  24.616 -0.1493  0.0031  0.0146
25493W        W68405  29.276  25.005  25.669  0.0860 -0.1925 -0.0863
25494W        W68406  26.554  23.484  23.827  0.0006  0.3167  0.3411
25495W        W68407  28.712  23.641  27.803 -0.0392 -0.0885  0.0523
25496W        W68408  24.859  23.795  25.650  0.2190 -0.0700  0.0633
25497W        W68409  27.948  23.024  27.948 -0.2192  0.3113 -0.0119
25498W        W68410  25.732  23.066  28.234 -0.1593  0.1479  0.1911
25499W        W68411  26.517  24.006  24.873 -0.1015 -0.3012  0.1998
25500W        W68412  27.015  22.933  26.322 -0.1090  0.1446  0.3154
25501W        W68413  28.139  26.305  24.038 -0.4049 -0.0356 -0.0843
25502W        W68414  29.625  25.549  23.320  0.0033 -0.1070  0.2769
25503W        W68415  27.984  26.402  25.735  0.1319  0.0428 -0.1354
25504W        W68416  27.273  25.833  27.223 -0.0346 -0.2002 -0.1892
25505W        W68417  26.504  23.527  27.449 -0.1539 -0.1933 -0.3263
25506W        W68418  29.805  26.193  24.674 -0.2672  0.0189  0.1656
25507W        W68419  26.760  25.345  26.552  0.1906 -0.0648  0.2997
25508W        W68420  28.833  23.927  24.773  0.0730  0.1632  0.0384
25509W        W68421  27.992  22.773  26.101  0.0785 -0.0603 -0.0757
25510W        W68422  27.387  23.901  25.599 -0.3009  0.2322  0.1902
25511W        W68423  26.367  21.515  27.121 -0.1302 -0.1497 -0.1624
25512W        W68424  28.000  24.477  26.178 -0.3490  0.1229  0.3536
25513W        W68425  28.905  24.231  25.867 -0.0863  0.3509  0.0135
25514W        W68426  27.324  22.617  26.752  0.2201 -0.0257 -0.2159
25515W        W68427  27.766  21.382  24.937 -0.1013 -0.0583  0.1788
25516W        W68428  27.508  24.658  23.351  0.2134  0.0719 -0.1925
25517W        W68429  25.594  24.470  26.196  0.2870 -0.1761 -0.1165
25518W        W68430  28.036  23.227  25.381  0.1181  0.1731 -0.0851
25519W        W68431  27.452  24.504  27.171 -0.1485  0.1628 -0.1773
25520W        W68432  27.650  25.424  26.042 -0.3482 -0.1862 -0.3529
25521W        W68433  28.619  23.522  26.926  0.1908  0.2756  0.0341
25522W        W68434  26.001  22.851  24.746  0.0234  0.4061 -0.2623
25523W        W68435  27.483  23.091  24.547  0.3122  0.1070 -0.1090
25524W        W68436  28.597  25.590  26.001  0.0454  0.0282  0.0790
25525W        W68437  26.873  23.869  27.281 -0.1357  0.0877 -0.0258
25526W        W68438  28.315  24.967  25.389 -0.1439 -0.4878 -0.2702
25527W        W68439  27.761  24.502  25.333  0.1450 -0.1565  0.0452
25528W        W68440  24.040  21.287  26.196 -0.1330 -0.4210 -0.3992
25529W        W68441  26.989  25.010  25.508 -0.0372 -0.2441  0.1036
25530W        W68442  27.823  24.155  25.717  0.0028  0.3012  0.0453
25531W        W68443  28.370  22.812  25.700  0.1134 -0.0165 -0.0105
25532W        W68444  27.482  23.629  26.487  0.0638 -0.0793  0.1499
25533W        W68445  28.007  22.889  24.372 -0.1426 -0.1219  0.4947
25534W        W68446  27.801  26.004  27.275 -0.1211  0.0380  0.0457
25535W        W68447  28.180  24.369  27.632 -0.1803  0.0528 -0.1162
25536W        W68448  26.840  25.036   0.513 -0.2524  0.1283 -0.1535
25537W        W68449  26.436  23.628  28.211  0.1449  0.3036 -0.0165
25538W        W68450  29.489  22.609  27.682 -0.3081 -0.0368  0.1053
25539W        W68451  28.664  23.526  29.799 -0.1167 -0.1619 -0.0778
25540W        W68452  24.452  21.071  27.679  0.0016  0.0131  0.1054
25541W        W68453  27.251  23.939  29.268  0.4168  0.2269 -0.3155
25542W        W68454  26.626  21.987  30.922 -0.2882  0.2529 -0.1666
25543W        W68455  27.513  24.921  28.223 -0.0222 -0.0317 -0.0575
25544W        W68456  28.844  25.329  30.238  0.4725  0.0591 -0.1786
25545W        W68457  28.706  22.908  26.535 -0.0535 -0.0734  0.2328
25546W        W68458  27.913  24.331  30.546  0.0854 -0.1071  0.1752
25547W        W68459  25.326  25.266  31.505 -0.0662 -0.0381  0.0292
25548W        W68460  26.029  21.203  29.812  0.4342 -0.0357 -0.0388
25549W        W68461  23.419  20.989  29.887  0.0060  0.0567  0.0179
25550W        W68462  28.010  24.002  30.850 -0.1431  0.1291  0.1294
25551W        W68463  25.183  23.897  28.472 -0.2157  0.2117 -0.0552
25552W        W68464  26.305  22.366  31.097  0.1154 -0.2498 -0.1060
25553W        W68465  26.430  24.862  29.203 -0.0759  0.2699 -0.3026
25554W        W68466  27.736  28.071  29.342  0.0427 -0.1002  0.0263
25555W        W68467  26.355  24.172  30.410  0.1218  0.3224 -0.1159
25556W        W68468  27.721  22.468  31.195  0.2322 -0.3098  0.0184
25557W        W68469  26.930  25.906  28.240  0.1438 -0.1005 -0.1501
25558W        W68470  26.930  23.774  27.784  0.2610  0.3243  0.1320
25559W        W68471  24.782  22.839  29.257  0.2877  0.0969  0.2958
25560W        W68472  25.823  22.912  30.341 -0.2900  0.0673  0.2264
25561W        W68473  28.926  22.446  30.257 -0.3708 -0.1884 -0.1118
25562W        W68474  26.498  23.231  30.686 -0.2087 -0.0807 -0.2004
25563W        W68475  27.188  25.234  29.044 -0.0375 -0.1666  0.0910
25564W        W68476  28.180  25.838  29.877 -0.2015 -0.1362 -0.1585
25565W        W68477  28.710  24.690  31.013 -0.1432 -0.0227 -0.1116
25566W        W68478  24.805  24.394  29.608 -0.0017 -0.0958  0.1637
25567W        W68479  25.041  26.370  29.202 -0.0278  0.3111  0.4332
25568W        W68480  27.657  25.313  28.477 -0.0781  0.0999  0.3264
25569W        W68481  29.216  23.765  29.167  0.0403  0.0233  0.3038
25570W        W68482  29.018  24.918  31.481 -0.0676  0.1072 -0.0105
25571W        W68483  25.533  26.322  30.839  0.1292  0.0826 -0.0709
25572W        W68484  25.943  23.833  27.726 -0.1598 -0.0974  0.2908
25573W        W68485  27.339  25.090   0.173 -0.0028  0.1501  0.3692
25574W        W68486  25.744  25.089  31.859  0.1382  0.0205  0.1117
25575W        W68487  28.288  25.039  31.110 -0.4675 -0.4253  0.0539
25576W        W68488  26.029  24.336  31.147 -0.1358 -0.1047  0.2926
25577W        W68489  28.211  26.601  27.643  0.1303  0.1484  0.0298
25578W        W68490  25.534  22.993  29.792 -0.0739 -0.3057  0.0115
25579W        W68491  25.841  24.129  31.659 -0.0698 -0.0886 -0.1464
25580W        W68492  26.212  25.357  29.081  0.0238 -0.1990  0.0664
25581W        W68493  29.068  22.057  29.916  0.1339 -0.0463 -0.0175
25582W        W68494  24.972  25.309  28.968  0.3764  0.0966 -0.2698
25583W        W68495  26.930  23.546  28.360  0.3004 -0.3739 -0.1574
25584W        W68496  25.600  23.271  27.234 -0.2046 -0.0382  0.0558
25585W        W68497  28.359  23.526  28.629 -0.1854  0.0266  0.2644
25586W        W68498  27.772  22.469  29.389 -0.1820 -0.1512 -0.0166
25587W        W68499  25.479  24.216  30.193  0.0238  0.0325  0.1964
25588W        W68500  26.190  22.397  30.079  0.0238 -0.1635  0.1866
25589W        W68501  28.436  25.611  30.242 -0.2263  0.3638  0.0865
25590W        W68502  28.079  24.497  28.264 -0.2022 -0.0371  0.2606
25591W        W68503  27.151  23.442  30.441  0.1229 -0.1237 -0.0916
25592W        W68504  25.396  24.815  30.117 -0.1108 -0.1028 -0.2379
25593W        W68505  24.177  23.632  28.758  0.2927 -0.0541  0.1476
25594W        W68506  28.305  25.328  27.742 -0.3006 -0.1379  0.3695
25595W        W68507  28.768  26.305  28.640  0.2658 -0.0708 -0.2172
25596W        W68508  27.648  23.525  28.034 -0.1449 -0.2570 -0.3423
25597W        W68509  25.755  22.641  28.568  0.2214  0.1172 -0.1366
25598W        W68510  24.795  23.573  30.640  0.1020 -0.1771 -0.1962
25599W        W68511  26.662  22.277  31.388  0.0237  0.0392  0.0372
25600W        W68512  26.931  23.031  29.406 -0.0924 -0.1634 -0.0220
25601W        W68513  28.322  23.973  31.237 -0.0015 -0.1110  0.2652
25602W        W68514  25.014  24.862  30.687  0.1268  0.1914  0.2236
25603W        W68515  28.661  23.098  29.457  0.1204  0.2016  0.2072
25604W        W68516  27.131  24.325  29.003 -0.2594  0.1027  0.0996
25605W        W68517  28.744  25.201  29.324 -0.1761  0.1488 -0.2229
25606W        W68518  28.755  24.715  27.915  0.1264  0.0651  0.1121
25607W        W68519  28.665  22.237  29.742  0.0626  0.0695 -0.0499
25608W        W68520  28.301  21.791  29.200  0.2285  0.2617 -0.3856
25609W        W68521  26.560  24.288  28.899  0.0185 -0.0058 -0.0977
25610W        W68522  26.881  24.823  28.918 -0.0788  0.0588  0.1814
25611W        W68523  28.842  25.556  30.854  0.0401 -0.0605  0.1191
25612W        W68524  29.063  24.943  29.008  0.1566  0.0335  0.1092
25613W        W68525  25.911  26.453  30.506  0.3942  0.2116 -0.0851
25614W        W68526  26.474  22.980  31.107 -0.1215 -0.2497 -0.3589
25615W        W68527  26.862  26.637  31.769  0.2435 -0.1798 -0.1308
25616W        W68528  25.470  26.859  27.383 -0.2821  0.2221 -0.3159
25617W        W68529  26.331  24.711  30.243  0.2397  0.0144 -0.0818
25618W        W68530  26.123  23.405  28.500  0.3015  0.2387  0.1899
25619W        W68531  25.097  22.974  31.089 -0.2421  0.0746 -0.1830
25620W        W68532  27.875  23.388  28.870  0.0763 -0.1936  0.2344
25621W        W68533  29.064  23.298  27.830 -0.0129 -0.0642  0.1444
25622W        W68534  25.693  22.808  31.595  0.3770 -0.0157 -0.1644
25623W        W68535  28.425  21.317  29.218 -0.0040  0.1112  0.2109
25624W        W68536  25.520  24.215  28.199 -0.3548  0.0898 -0.2677
25625W        W68537  29.576  25.897  28.401  0.0653  0.1298 -0.1369
25626W        W68538  28.795  22.345  28.762  0.1965  0.1397  0.0294
25627W        W68539  28.997  25.426  28.702 -0.3336  0.0906  0.1127
25628W        W68540  25.038  24.054  29.963  0.0947  0.1361  0.0723
25629W        W68541  25.567  22.111  29.859 -0.4552  0.1404 -0.1327
25630W        W68542  24.888  21.646  31.154  0.0639  0.0858 -0.2397
25631W        W68543  25.440  21.102  29.857 -0.1068 -0.1343 -0.1376
25632W        W68544  27.262  24.221  30.377 -0.2729 -0.0258 -0.3142
25633W        W68545  26.523  22.326  27.754  0.2352  0.0453  0.2510
25634W        W68546  27.713  24.000  30.091 -0.0381  0.1512  0.0938
25635W        W68547  27.560  23.187  27.595  0.2030  0.1516  0.3741
25636W        W68548  25.593  23.232  26.718 -0.1097 -0.1570 -0.2097
25637W        W68549  30.224  21.214   0.845  0.3578  0.0391  0.0250
25638W        W68550  27.140  25.505  29.799  0.5091 -0.1631  0.1903
25639W        W68551  30.260  26.453  29.175  0.0300 -0.0659  0.0912
25640W        W68552  27.926  25.574  30.289  0.0757 -0.2046  0.1571
25641W        W68553  26.851  22.893  30.621 -0.0768  0.1501  0.1550
25642W        W68554  25.817  21.620  28.787 -0.2285 -0.2303 -0.1714
25643W        W68555  24.684  25.353  29.641 -0.0868 -0.1330  0.0065
25644W        W68556  29.344  24.899  28.549 -0.2247 -0.1511 -0.3561
25645W        W68557  27.381  23.499  28.964  0.1326  0.0239 -0.1353
25646W        W68558  29.289  24.502  31.233 -0.0603 -0.1022 -0.0214
25647W        W68559  27.396  23.925  28.056  0.0539  0.1338 -0.1475
25648W        W68560  26.338  25.777   0.447  0.0265 -0.3902 -0.5401
25649W        W68561  28.128  21.712  31.288 -0.1877 -0.2085  0.1358
25650W        W68562  28.446  22.777  29.961 -0.1995  0.0824  0.1892
25651W        W68563  26.520  23.399  29.525 -0.2035 -0.1471  0.0535
25652W        W68564  25.100  22.812  27.594  0.0254 -0.0135  0.2091
25653W        W68565  27.250  27.089  28.150  0.2619  0.2358  0.0980
25654W        W68566  25.772  24.777  27.384 -0.0879  0.2537 -0.2022
25655W        W68567  25.945  24.238  29.795  0.0082  0.0143 -0.1067
25656W        W68568  27.675  27.080  29.523 -0.1200  0.0321  0.0568
25657W        W68569  29.239  22.655  28.892  0.2340  0.0504  0.0863
25658W        W68570  25.178  23.525  31.146 -0.0425  0.2175 -0.4356
25659W        W68571  28.916  22.307  30.744  0.1584  0.1899  0.0406
25660W        W68572  23.726  22.109  28.970  0.0291 -0.0462 -0.2383
25661W        W68573  25.097  24.939   0.435 -0.1575 -0.2771 -0.1422
25662W        W68574  27.892  22.116  29.005 -0.1836 -0.0811 -0.1310
25663W        W68575  28.812  22.958  28.651  0.2717 -0.0635 -0.1085
25664W        W68576  28.865  23.772  30.629  0.1388 -0.1033  0.0212
25665W        W68577  28.022  24.936  28.321  0.0248  0.2139  0.1643
25666W        W68578  27.379  21.682  28.459 -0.2195  0.2253 -0.0870
25667W        W68579  27.208  24.190  27.654 -0.0608 -0.0034 -0.2910
25668W        W68580  25.004  25.575  31.765  0.1024 -0.4212 -0.0051
25669W        W68581  27.361  25.238  27.831  0.0307 -0.1172 -0.1200
25670W        W68582  28.286  24.713  30.673 -0.1470  0.4993  0.0391
25671W        W68583  28.067  23.178  29.286  0.1046  0.0898 -0.1354
25672W        W68584  29.359  26.306  28.747  0.3659 -0.0078  0.2843
25673W        W68585  24.949  25.632  31.274 -0.1799  0.0636  0.0995
25674W        W68586  28.289  24.979   0.158  0.4176 -0.1623  0.1888
25675W        W68587  27.596  25.655  29.817 -0.1660  0.0629 -0.2751
25676W        W68588  27.564  24.480  29.958 -0.2017 -0.1340  0.0477
25677W        W68589  25.988  23.588  28.940  0.3203 -0.1764  0.3859
25678W        W68590  26.921  23.526  29.180  0.1996  0.2155 -0.0682
25679W        W68591  25.059  25.585  27.140 -0.0149 -0.0456  0.1412
25680W        W68592  29.658  22.762  31.401 -0.2396 -0.2303 -0.1022
25681W        W68593  28.083  22.760  30.328 -0.2659 -0.1776  0.0157
25682W        W68594  28.170  21.413  30.148  0.1086 -0.2980  0.0552
25683W        W68595  27.621  23.121  31.449  0.0866 -0.2067  0.1406
25684W        W68596  28.860  23.999  28.964  0.2000  0.0528 -0.0159
25685W        W68597  27.961  24.096  29.573 -0.1864 -0.1439 -0.0509
25686W        W68598  26.086  22.030  27.689 -0.0663 -0.2360 -0.3316
25687W        W68599  27.329  23.080  29.780  0.0130 -0.0172 -0.4658
25688W        W68600  25.910  22.063  30.327 -0.0867 -0.0261 -0.2232
25689W        W68601  24.726  26.614  29.532  0.3246 -0.3338  0.0093
25690W        W68602  28.027  25.416   0.215  0.2846 -0.1213  0.1792
25691W        W68603  28.062  25.409  28.140 -0.1864  0.4192 -0.2308
25692W        W68604  27.105  22.189  30.501  0.1511 -0.2013 -0.1293
25693W        W68605  25.853  22.657  29.649 -0.1027 -0.0894  0.1629
25694W        W68606  27.357  26.139  28.308 -0.0718 -0.1482  0.0595
25695W        W68607  26.089  24.314  28.090 -0.0861  0.0365  0.4193
25696W        W68608  27.802  22.911  29.945  0.0334  0.1928  0.1538
25697W        W68609  27.697  25.227  30.598  0.1970 -0.2948  0.0263
25698W        W68610  26.683  25.469  28.178  0.0468  0.1080 -0.1071
25699W        W68611  26.416  24.686  30.736 -0.0041 -0.1393  0.2804
25700W        W68612  24.751  26.337  29.911 -0.0372  0.1137 -0.1273
25701W        W68613  28.595  22.817  30.476 -0.0068 -0.0863  0.0755
25702W        W68614  26.643  25.121  28.638 -0.1439 -0.2600  0.1091
25703W        W68615  25.304  24.292  26.782 -0.2440  0.1839  0.0013
25704W        W68616  26.006  24.127  27.063  0.3622  0.0424 -0.2515
25705W        W68617  28.640  24.533  30.110 -0.0200  0.0738  0.1855
25706W        W68618  29.182  24.505  27.721  0.3017 -0.3666 -0.2354
25707W        W68619  24.747  22.370  29.236 -0.2848 -0.0985  0.2254
25708W        W68620  27.851  21.816  29.973  0.0308  0.0530 -0.1402
25709W        W68621  24.497  25.128  28.898 -0.0580  0.1373  0.1878
25710W        W68622  26.598  25.113  31.183  0.0175  0.2619  0.1940
25711W        W68623  26.945  22.127  28.021 -0.1715 -0.3713 -0.1147
25712W        W68624  28.127  25.763  30.685  0.1965  0.2233 -0.0295
25713W        W68625  26.262  25.008  31.589  0.2997 -0.2018 -0.2165
25714W        W68626  25.104  24.027  29.086 -0.2283  0.0501  0.1191
25715W        W68627  27.619  23.698  30.472  0.1630 -0.0213 -0.0840
25716W        W68628  26.485  23.094  29.127  0.2773  0.0323  0.0076
25717W        W68629  24.819  22.775  28.189  0.0585 -0.0886 -0.3803
25718W        W68630  27.741  25.830  28.544  0.0763 -0.0769  0.1373
25719W        W68631  27.369  22.339  27.794  0.0414 -0.2990  0.2031
25720W        W68632  27.328  23.974  28.695 -0.2977  0.1309  0.1925
25721W        W68633  25.962  23.188  31.476  0.2615  0.0590  0.1021
25722W        W68634  28.163  25.228  30.631  0.2154  0.3817  0.1775
25723W        W68635  25.102  23.779  29.511  0.1778  0.4065 -0.0900
25724W        W68636  25.934  23.136  29.363 -0.4536 -0.1422  0.2005
25725W        W68637  28.356  22.984  28.404  0.0794 -0.2087  0.0814
25726W        W68638  28.176  23.832  29.988 -0.1245 -0.1245 -0.0786
25727W        W68639  28.563  23.487  30.283 -0.4357 -0.0373 -0.2192
25728W        W68640  26.919  24.802  31.469 -0.0895 -0.0660  0.2667
25729W        W68641  26.625  23.508  30.300  0.2319 -0.6036  0.0887
25730W        W68642  29.706  26.643  29.090 -0.0145 -0.2062  0.1379
25731W        W68643  28.529  24.916  31.647 -0.1517 -0.0061  0.4716
25732W        W68644  26.042  25.801  29.349 -0.1695  0.3897  0.0940
25733W        W68645  25.290  23.780  30.326 -0.1577  0.4436  0.1597
25734W        W68646  25.621  22.528  30.119 -0.0370 -0.2547  0.2626
25735W        W68647  26.129  23.423  30.400  0.1971 -0.1995  0.0600
25736W        W68648  25.981  25.292  29.556 -0.1055 -0.1134 -0.3405
25737W        W68649  27.720  25.073  28.953  0.3077  0.2362 -0.2373
25738W        W68650  25.024  24.413  30.857  0.0885  0.0960 -0.0740
25739W        W68651  27.471  22.539  28.955 -0.0219 -0.1697 -0.3206
25740W        W68652  28.639  25.771  28.954  0.0461  0.1175  0.0521
25741W        W68653  26.941  23.926  30.653 -0.0488  0.0260  0.0676
25742W        W68654  27.502  21.903  31.176  0.0572 -0.0115  0.2497
25743W        W68655  29.189  24.492  28.250  0.0360 -0.2675  0.3289
25744W        W68656  28.192  22.832   0.181 -0.1005 -0.3607  0.0524
25745W        W68657  26.469  22.934  30.266  0.1279  0.0798  0.2583
25746W        W68658  28.039  25.228  29.896 -0.0605  0.0296  0.2192
25747W        W68659  25.596  23.317  31.157 -0.0298 -0.1402 -0.1242
25748W        W68660  28.454  24.538  31.915  0.2066  0.0669 -0.1072
25749W        W68661  26.275  23.759  29.993  0.1419 -0.0388  0.0650
25750W        W68662  28.070  24.469  29.212  0.1731  0.0676 -0.3418
25751W        W68663  25.286  22.325  29.365  0.1620  0.3697  0.0218
25752W        W68664  27.906  24.659  28.722 -0.0879  0.2197  0.1743
25753W        W68665  28.410  24.593  29.690 -0.1230 -0.1222  0.2963
25754W        W68666  27.328  23.475  29.501 -0.1791  0.2380  0.4058
25755W        W68667  29.311  22.827  29.386 -0.1187  0.0272 -0.1856
25756W        W68668  25.138  22.515  29.850  0.1226  0.1488  0.0822
25757W        W68669  27.812  23.763  29.239 -0.2663 -0.2070  0.0947
25758W        W68670  28.263  24.821  27.881 -0.0378 -0.2036  0.1976
25759W        W68671  27.770  25.566  28.988 -0.1210  0.1976  0.1930
25760W        W68672  26.503  21.985  30.125 -0.0737  0.0296 -0.0848
25761W        W68673  28.420  24.275  30.834  0.2787  0.1436 -0.0944
25762W        W68674  27.821  23.571  29.724  0.1051  0.1126  0.0317
25763W        W68675  28.155  23.284  29.932 -0.0401  0.4361 -0.0051
25764W        W68676  27.839  23.203  30.403  0.2770 -0.0478 -0.3079
25765W        W68677  26.002  24.695  29.542  0.0266  0.1331  0.4084
25766W        W68678  25.145  21.920   0.073 -0.2679 -0.1003 -0.0079
25767W        W68679  28.478  25.759  29.444  0.2335  0.3315  0.0110
25768W        W68680  29.990  23.402  28.969 -0.0077 -0.1237  0.0462
25769W        W68681  29.187  22.555  31.280 -0.1717 -0.0637  0.2560
25770W        W68682  29.021  24.277  29.367 -0.3151  0.1981 -0.0776
25771W        W68683  27.467  22.992  29.313 -0.0842  0.3994  0.1462
25772W        W68684  26.204  23.383  27.818 -0.1470  0.2091  0.0845
25773W        W68685  28.502  23.121  31.133 -0.0783  0.3033  0.1111
25774W        W68686  26.683  23.302  27.913  0.0134  0.0166 -0.0338
25775W        W68687  29.677  22.331  30.494  0.1860 -0.1199 -0.0432
25776W        W68688  26.770  25.642  28.634  0.1001  0.5054 -0.0874
25777W        W68689  28.289  25.436  29.054  0.0938 -0.0487  0.4575
25778W        W68690  28.643  24.041  29.890  0.0592  0.0087  0.0344
25779W        W68691  25.253  22.807  29.413 -0.1608 -0.0083  0.2131
25780W        W68692  25.449  25.095  30.624 -0.0337  0.1108  0.1193
25781W        W68693  25.257  22.359  27.410 -0.0467  0.2190  0.4296
25782W        W68694  27.290  24.758  29.253  0.1285 -0.0396 -0.0123
25783W        W68695  27.827  25.517  31.019 -0.0736 -0.0548 -0.4190
25784W        W68696  27.503  24.278  31.320  0.2000 -0.1600 -0.0214
25785W        W68697  28.331  23.919  27.859  0.3217 -0.0188 -0.1831
25786W        W68698  28.355  21.945   0.172  0.0859  0.5175  0.2032
25787W        W68699  26.086  25.023  28.727 -0.3482  0.1506  0.2052
25788W        W68700  28.314  21.683  30.551 -0.0540 -0.0159  0.2950
25789W        W68701  24.526  25.624  28.787 -0.2412  0.3672 -0.1199
25790W        W68702  25.251  24.265  29.544 -0.3207  0.0698 -0.4100
25791W        W68703  26.722  25.349  29.062  0.3569  0.0060 -0.2221
25792W        W68704  28.221  22.654  30.870  0.1847  0.0484 -0.0910
25793W        W68705  29.281  22.654  30.684 -0.1355 -0.0347  0.2007
25794W        W68706  26.673  23.939  29.439  0.2086  0.3461  0.2651
25795W        W68707  28.274  23.121  30.668  0.1643 -0.1650 -0.1316
25796W        W68708  28.098  25.922  31.205 -0.3506 -0.0253  0.0408
25797W        W68709  26.839  24.519  27.472  0.2682  0.2988  0.0840
25798W        W68710  28.052  26.242  31.629 -0.0376  0.1184 -0.1058
25799W        W68711  28.320  25.010  29.479 -0.4691 -0.0751 -0.1065
25800W        W68712  26.822  24.613  29.907  0.1193 -0.0338 -0.0212
25801W        W68713  24.927  22.375  30.359  0.1114  0.1729  0.1372
25802W        W68714  27.550  23.568  31.706  0.0672  0.5169  0.2290
25803W        W68715  27.483  24.349  29.449  0.3188 -0.0659 -0.1551
25804W        W68716  26.978  21.553  30.033 -0.0642 -0.0725 -0.0517
25805W        W68717  28.632  23.799  28.282 -0.0402 -0.0085  0.0944
25806W        W68718  25.749  25.597   0.543 -0.0910  0.1128 -0.0777
25807W        W68719  24.977  25.837  29.080 -0.2446 -0.0508  0.0257
25808W        W68720  26.404  24.677  28.647 -0.0829  0.1008 -0.0852
25809W        W68721  29.860  25.073  29.425  0.2714  0.2520 -0.1705
25810W        W68722  26.399  24.503  27.190  0.1382 -0.0839  0.2138
25811W        W68723  27.755  27.230  28.902 -0.0818  0.0252 -0.2413
25812W        W68724  26.451  23.822  26.930 -0.3472 -0.0941 -0.0115
25813W        W68725  25.394  24.568  30.576  0.0527 -0.0825  0.0138
25814W        W68726  25.354  25.507  26.698 -0.1270 -0.0314 -0.1131
25815W        W68727  28.080  26.540  28.156  0.3375  0.0302 -0.2188
25816W        W68728  26.542  25.393  29.539 -0.2211 -0.0893  0.1927
25817W        W68729  28.098  26.274  30.776 -0.0228 -0.1552 -0.1313
25818W        W68730  28.500  23.219  28.999 -0.0199 -0.1650 -0.2863
25819W        W68731  30.424  24.692  28.640  0.2455 -0.0658 -0.0288
25820W        W68732  28.998  22.626  29.756 -0.0537 -0.1163  0.0149
25821W        W68733  28.640  25.287   0.483  0.0952  0.0729 -0.1119
25822W        W68734  28.005  22.131  30.891 -0.0080 -0.1190 -0.0768
25823W        W68735  27.146  23.350  27.982  0.1116 -0.1150 -0.4569
25824W        W68736  26.866  23.884  31.161  0.2558 -0.1947  0.0159
25825W        W68737  28.466  21.906  31.649 -0.0291  0.3404 -0.0155
25826W        W68738  24.750  24.856  29.314  0.0893  0.1608  0.5071
25827W        W68739  29.654  25.612  27.940  0.2785  0.0056 -0.1187
25828W        W68740  23.612  21.433  28.284 -0.1188 -0.1970 -0.0159
25829W        W68741  26.619  23.375  28.689  0.0401 -0.2520  0.0499
25830W        W68742  29.072  21.504  29.788  0.1709  0.2641 -0.0253
25831W        W68743  28.014  23.471  27.616 -0.0825  0.0411  0.1484
25832W        W68744  25.565  23.878  29.113  0.1262  0.3235 -0.0228
25833W        W68745  27.965  25.515  29.467 -0.2683  0.0053 -0.0444
25834W        W68746  28.190  24.951  28.998  0.1965  0.0530 -0.1537
25835W        W68747  27.348  24.436  30.820  0.2150 -0.2879  0.1612
25836W        W68748  25.583  23.466  29.411  0.2188  0.4243  0.1241
25837W        W68749  29.482  23.574  29.669  0.2934  0.2452  0.1624
25838W        W68750  26.333  23.261  29.974  0.1760 -0.0454  0.0140
25839W        W68751  29.275  22.175  29.085  0.3744  0.2013 -0.1250
25840W        W68752  27.668  24.256  28.938  0.1731  0.2126  0.3208
25841W        W68753  26.774  23.644  29.873  0.3746 -0.3002 -0.0276
25842W        W68754  26.302  26.033  31.500 -0.1712  0.0563 -0.1220
25843W        W68755  25.981  23.786  29.428  0.0833  0.2729  0.0174
25844W        W68756  28.787  23.887  27.383 -0.1700 -0.2144 -0.2301
25845W        W68757  28.040  23.826  31.760 -0.1407 -0.0353  0.1368
25846W        W68758  29.700  24.309  28.231  0.1445 -0.3555 -0.1357
25847W        W68759  25.851  24.478  30.387  0.1098 -0.5619 -0.0915
25848W        W68760  25.169  23.574  28.873  0.0700 -0.3591 -0.3554
25849W        W68761  28.651  24.350  28.268  0.0657  0.1599 -0.0962
25850W        W68762  26.461  23.713  29.027  0.1827 -0.1228  0.0654
25851W        W68763  26.764  24.051  30.209 -0.3492  0.1042 -0.0565
25852W        W68764  27.665  26.064  31.973 -0.0870 -0.0769 -0.1032
25853W        W68765  25.302  22.528  28.918  0.1162 -0.0517  0.0120
25854W        W68766  30.142  23.718  28.174 -0.0627 -0.2831  0.1660
25855W        W68767  28.249  23.655  29.521  0.2851 -0.3300  0.0580
25856W        W68768  27.968  27.547  27.672 -0.0541  0.2335  0.0967
25857W        W68769  29.110  24.211  30.773 -0.1221  0.0380 -0.2897
25858W        W68770  27.499  25.735  30.558  0.3483  0.1624 -0.1305
25859W        W68771  24.620  21.943  29.447 -0.0567 -0.1293 -0.1270
25860W        W68772  27.238  24.788  29.753  0.3608  0.1349 -0.2143
25861W        W68773  29.140  24.869  30.105 -0.3055 -0.0696  0.0407
25862W        W68774  26.491  22.345  29.709 -0.0665  0.3394 -0.2987
25863W        W68775  26.814  22.454  30.921 -0.2053 -0.1067  0.0631
25864W        W68776  26.214  25.461  28.504  0.0258 -0.1309  0.1999
25865W        W68777  28.185  22.152  29.549 -0.0870 -0.0302 -0.1001
25866W        W68778  27.544  22.193  30.750 -0.2772  0.0054 -0.1349
25867W        W68779  26.479  24.637  27.786  0.4254  0.1182  0.1769
25868W        W68780  28.055  21.282  30.889  0.2850 -0.0062 -0.0314
25869W        W68781  26.430  24.920  29.712 -0.0134  0.4936 -0.0282
25870W        W68782  24.682  27.267  30.801 -0.0592  0.0617 -0.3519
25871W        W68783  26.570  24.375  28.267  0.1275  0.0099 -0.0419
25872W        W68784  27.205  25.303  30.343  0.0432 -0.0259 -0.3104
25873W        W68785  26.573  25.376  27.688 -0.0694 -0.3732 -0.1831
25874W        W68786  27.760  26.220  27.952 -0.2512 -0.2841  0.0126
25875W        W68787  27.568  25.223  30.066 -0.2105  0.0198  0.0670
25876W        W68788  28.626  24.733  29.207  0.4518  0.1774 -0.0196
25877W        W68789  27.913  24.768  30.231 -0.2009  0.1883  0.1955
25878W        W68790  25.451  23.153  28.942  0.0306 -0.0882  0.0618
25879W        W68791  29.457  23.139  29.882  0.3766  0.0897 -0.0628
25880W        W68792  28.794  22.717  29.078  0.0862  0.1550  0.0584
25881W        W68793  25.989  25.016  30.538  0.1302 -0.1848  0.4384
25882W        W68794  25.490  22.041  28.665  0.0339  0.0563  0.1903
25883W        W68795  26.766  23.909  28.647  0.2628  0.1307  0.1271
25884W        W68796  26.306  24.322  29.392  0.2666 -0.1466  0.1694
25885W        W68797  26.031  23.815  30.843  0.1119  0.0720  0.0975
25886W        W68798  26.475  24.195  29.869  0.1749  0.1396 -0.1039
25887W        W68799  26.847  24.538  29.390 -0.1067 -0.4302 -0.1819
25888W        W68800  26.732  22.608  29.125  0.3764  0.0491 -0.1371
25889W        W68801  28.393  24.494  28.831 -0.0902  0.0911 -0.1020
25890W        W68802  26.836  23.179  29.976 -0.1031  0.0171 -0.1098
25891W        W68803  25.167  21.694  29.897  0.3928  0.0195 -0.0414
25892W        W68804  29.168  25.785  28.118  0.0498 -0.0819 -0.0330
25893W        W68805  28.227  25.889  28.730 -0.1603 -0.2028 -0.1310
25894W        W68806  27.468  22.047  29.263  0.0506 -0.1365  0.0266
25895W        W68807  28.373  24.937  30.191 -0.2587 -0.0184  0.3793
25896W        W68808  27.080  23.399  27.455  0.0739 -0.2061 -0.1468
25897W        W68809  27.781  24.903  29.618 -0.0985  0.2459 -0.0723
25898W        W68810  26.738  22.775  31.520 -0.1718 -0.1925  0.3640
25899W        W68811  25.646  21.603  29.750 -0.0634  0.0498 -0.2382
25900W        W68812  27.163  23.782  30.120 -0.0124  0.1089  0.0010
25901W        W68813  28.523  26.733  28.852  0.1417 -0.0132  0.3363
25902W        W68814  28.651  26.662  27.900  0.1419  0.0777  0.0677
25903W        W68815  26.672  25.310  31.670 -0.1186 -0.3504 -0.0013
25904W        W68816  27.172  25.139  31.232  0.0954  0.0356 -0.1970
25905W        W68817  24.980  20.457  29.658  0.1178 -0.1460 -0.1132
25906W        W68818  29.016  24.025  28.036  0.0208 -0.0398  0.0001
25907W        W68819  27.954  26.869  29.984 -0.0368 -0.3014 -0.0277
25908W        W68820  28.114  24.122  28.570  0.1779 -0.1680  0.1023
25909W        W68821  30.196  23.058  30.095 -0.1457  0.2622 -0.0893
25910W        W68822  29.042  24.090  30.250  0.1519  0.1413  0.1214
25911W        W68823  25.279  23.180  31.544  0.0138 -0.0550  0.2395
25912W        W68824  26.213  22.766  30.696  0.1820 -0.1053 -0.1445
25913W        W68825  27.812  23.821  31.280  0.1905 -0.1932 -0.2205
25914W        W68826  26.454  22.864  29.646  0.0988  0.0523 -0.0436
25915W        W68827  27.435  23.934  29.717 -0.0802  0.2579 -0.1165
25916W        W68828  26.940  25.019  27.726  0.0839  0.0323  0.1042
25917W        W68829  26.274  23.442  31.117 -0.1759  0.3967  0.2518
25918W        W68830  28.488  25.222  28.296  0.0921 -0.4397 -0.4687
25919W        W68831  28.189  24.329  30.055 -0.1591  0.0218  0.1658
25920W        W68832  28.130  25.938  28.236  0.0695 -0.1019 -0.0934
25921W        W68833  28.569  25.993  30.903 -0.0884 -0.0224 -0.0835
25922W        W68834  26.936  24.466  28.591  0.1375 -0.2815  0.0147
25923W        W68835  28.550  24.186  29.411 -0.0072  0.1464 -0.2120
25924W        W68836  26.390  25.211  30.152 -0.0252  0.1836 -0.1081
25925W        W68837  28.924  25.769   0.039 -0.0860 -0.0197  0.0761
25926W        W68838  26.883  25.118  29.956 -0.1589 -0.3630 -0.1920
25927W        W68839  26.500  23.763  30.682  0.2662 -0.0981  0.1546
25928W        W68840  26.147  21.747  29.199 -0.2866 -0.1163  0.0393
25929W        W68841  26.933  24.016  28.211 -0.1245 -0.4038  0.0930
25930W        W68842  26.884  23.427  30.882 -0.1090  0.0344  0.0975
25931W        W68843  27.515  23.469  30.050  0.1094 -0.1922 -0.1701
25932W        W68844  25.574  23.479  28.463 -0.1201 -0.2744 -0.1763
25933W        W68845  27.177  22.497  29.334  0.2389 -0.0293  0.1130
25934W        W68846  25.011  25.540  30.680 -0.0058 -0.0964  0.0197
25935W        W68847  26.794  24.956  30.464  0.2071  0.0541 -0.0026
25936W        W68848  27.032  23.611   1.114  0.2180  0.1638 -0.0262
25937W        W68849  26.413  25.236  30.722  0.0803  0.0479  0.1937
25938W        W68850  25.945  21.472  30.627 -0.0897  0.0467 -0.1010
25939W        W68851  25.093  26.174  31.973  0.2008 -0.0737  0.0365
25940W        W68852  27.675  25.063   0.509 -0.0486 -0.2270  0.1334
25941W        W68853  25.714  27.012   0.140 -0.0858 -0.0310 -0.2144
25942W        W68854  27.957  24.377  31.162 -0.3992  0.1018  0.1587
25943W        W68855  27.826  25.038   0.014 -0.0798  0.0939 -0.1847
25944W        W68856  27.284  24.964  30.717 -0.1067  0.0456 -0.2223
25945W        W68857  28.386  24.459  31.387  0.0220 -0.2103  0.1338
25946W        W68858  27.559  25.755   1.083 -0.1044 -0.3534  0.0917
25947W        W68859  27.031  22.282  31.792 -0.1976  0.2167  0.0278
25948W        W68860  27.423  24.732  31.212 -0.4702  0.3483 -0.0788
25949W        W68861  27.010  24.155  29.776 -0.3186  0.0277  0.0826
25950W        W68862  29.310  22.561  31.760  0.2829  0.1769 -0.1246
25951W        W68863  24.936  25.186  31.124  0.0461  0.0038  0.2724
25952W        W68864  25.453  24.445  31.608  0.4266 -0.1462  0.1469
25953W        W68865  28.466  24.050  30.393 -0.0091  0.2953  0.1068
25954W        W68866  27.306  22.631  30.935  0.5016 -0.2073 -0.2796
25955W        W68867  25.817  22.177  31.152  0.2705  0.0146 -0.1461
25956W        W68868  27.598  22.233  31.643 -0.2069  0.1356  0.0450
25957W        W68869  24.972  23.402  30.180 -0.0192  0.0704  0.0406
25958W        W68870  30.230  22.420  31.960 -0.4308 -0.2401  0.3156
25959W        W68871  27.133  23.134  31.738 -0.2065 -0.4900  0.0406
25960W        W68872  27.836  23.021  31.005 -0.0633 -0.1458  0.1593
25961W        W68873  27.244  23.882  31.445  0.3197  0.0123  0.0794
25962W        W68874  27.144  24.343  31.696  0.0172 -0.2469 -0.0732
25963W        W68875  23.699  26.897  30.962 -0.0504  0.4733 -0.2731
25964W        W68876  27.356  23.099  30.709 -0.0479  0.1031  0.1854
25965W        W68877  25.632  24.860  31.068 -0.2538  0.3725  0.3018
25966W        W68878  27.380  24.900  31.688 -0.0494 -0.0770 -0.1762
25967W        W68879  26.481  23.131   0.261 -0.2670 -0.0676 -0.1743
25968W        W68880  27.352  23.665   0.675  0.1100  0.1048 -0.1576
25969W        W68881  26.816  22.879   0.037 -0.2433  0.0982  0.0550
25970W        W68882  24.805  22.950  31.644  0.0369  0.1474  0.0541
25971W        W68883  26.591  24.228  30.886 -0.2557  0.2342  0.0922
25972W        W68884  25.143  24.713  31.258  0.2416  0.3082 -0.3590
25973W        W68885  28.712  24.307   0.245 -0.1171 -0.1624 -0.3231
25974W        W68886  27.595  24.544   0.029 -0.1553 -0.2357  0.3941
25975W        W68887  26.897  24.495   0.646  0.0049  0.0336 -0.0770
25976W        W68888  30.089  22.445  31.254  0.2173  0.0184  0.2019
25977W        W68889  27.961  23.227  31.846  0.2756 -0.0969  0.0689
25978W        W68890  25.066  23.474  31.908  0.0420 -0.1725 -0.1271
25979W        W68891  26.846  26.224   0.064 -0.0249 -0.0582 -0.3335
25980W        W68892  25.950  23.241  30.790  0.3800  0.0200  0.1470
25981W        W68893  27.701  22.687  30.634 -0.2120  0.2792  0.2784
25982W        W68894  27.958  21.910  31.833 -0.2765 -0.1356  0.1252
25983W        W68895  26.860  24.485  30.552  0.2314  0.0277  0.2799
25984W        W68896  27.912  26.713   0.674 -0.1041 -0.2117 -0.0525
25985W        W68897  24.870  22.994  30.570 -0.0660  0.0133  0.3013
25986W        W68898  28.159  23.910   1.989 -0.1534  0.0666 -0.0668
25987W        W68899  30.067  20.895  31.342  0.3072 -0.2573  0.0502
25988W        W68900  28.323  22.345   0.466  0.0339 -0.1700  0.0482
25989W        W68901  28.103  25.234  31.623 -0.2478  0.0420  0.0449
25990W        W68902  26.516  24.609  31.250  0.3089  0.0478  0.1021
25991W        W68903  26.872  24.789  30.953 -0.1402 -0.2102 -0.2018
25992W        W68904  26.656  24.851  31.939  0.0662  0.2316 -0.3484
25993W        W68905  24.831  25.006   1.042  0.2719 -0.0985 -0.1245
25994W        W68906  25.846  25.825  31.237 -0.3556  0.0969  0.1259
25995W        W68907  26.923  23.857  31.868  0.2368  0.2116  0.3389
25996W        W68908  25.692  23.462   0.423  0.1076 -0.1537 -0.0713
25997W        W68909  26.394  26.203  31.971  0.2096  0.0153 -0.0372
25998W        W68910  25.123  23.917  30.786  0.1628 -0.0065 -0.0471
25999W        W68911  25.436  20.529  30.686 -0.1867 -0.1242 -0.1106
26000W        W68912  27.790  26.143  30.371  0.0789 -0.1349 -0.2419
26001W        W68913  29.297  24.765  30.862 -0.0657  0.0931  0.0591
26002W        W68914  27.540  24.040  31.806  0.0514  0.2553  0.1485
26003W        W68915  27.164  26.900  19.808 -0.0371 -0.0559 -0.0763
26004W        W68916  26.271  26.708  16.339 -0.0529 -0.1317 -0.3093
26005W        W68917  29.472  26.153  17.099  0.0377  0.1356  0.1739
26006W        W68918  29.808  27.119  17.411 -0.0371  0.2051 -0.1194
26007W        W68919  26.298  24.877  17.565 -0.0301 -0.2637 -0.1313
26008W        W68920  26.897  28.418  18.079  0.0446 -0.3657  0.0153
26009W        W68921  26.715  25.943  17.991 -0.2632 -0.2414 -0.1116
26010W        W68922  27.697  28.910  17.834 -0.0509 -0.4590 -0.0012
26011W        W68923  28.538  28.987  20.333 -0.2918  0.1054  0.0784
26012W        W68924  27.942  25.508  15.592 -0.2690 -0.2008 -0.3379
26013W        W68925  27.328  25.790  20.001  0.0276 -0.0131 -0.1548
26014W        W68926  27.996  28.134  18.351 -0.1732 -0.2684  0.0594
26015W        W68927  26.464  25.214  16.832 -0.0599 -0.1341 -0.1472
26016W        W68928  25.928  25.779  18.266  0.5564  0.2082  0.1782
26017W        W68929  28.923  27.809  19.764  0.3449  0.0830  0.0421
26018W        W68930  25.870  26.881  16.585 -0.1527 -0.1982 -0.0123
26019W        W68931  27.005  26.356  17.416 -0.1636 -0.1937 -0.1621
26020W        W68932  27.811  26.170  17.171  0.0570 -0.1730 -0.1057
26021W        W68933  26.194  29.070  17.120 -0.2433 -0.1639  0.2199
26022W        W68934  26.005  26.499  18.812  0.2035  0.1842  0.0802
26023W        W68935  27.524  26.483  19.481 -0.0428  0.0011 -0.0290
26024W        W68936  27.395  27.158  17.428 -0.1236 -0.0055 -0.0537
26025W        W68937  25.768  27.704  17.470 -0.0246  0.1600 -0.1570
26026W        W68938  26.106  27.900  17.939  0.2224  0.0567  0.2551
26027W        W68939  26.761  27.501  17.598  0.2570  0.2683 -0.1581
26028W        W68940  27.743  25.472  18.225 -0.0391 -0.2362 -0.0167
26029W        W68941  28.283  27.213  16.122  0.1858 -0.0680 -0.2370
26030W        W68942  26.006  28.609  17.921 -0.2270  0.1286 -0.0166
26031W        W68943  26.807  29.233  19.308 -0.3216  0.1453  0.0960
26032W        W68944  29.349  24.984  20.248  0.1655 -0.1522  0.0576
26033W        W68945  25.778  28.284  16.984 -0.0372 -0.2940 -0.1176
26034W        W68946  27.021  27.474  17.207 -0.3433  0.1262  0.3922
26035W        W68947  26.883  27.992  18.393 -0.1559  0.2089  0.1023
26036W        W68948  29.301  27.249  18.098 -0.1932 -0.0469 -0.0374
26037W        W68949  28.810  29.524  20.338 -0.1934 -0.1813  0.0529
26038W        W68950  27.025  29.419  21.153 -0.0542  0.0099  0.0628
26039W        W68951  24.681  28.688  18.156 -0.0345  0.0392  0.0728
26040W        W68952  27.734  29.217  20.196 -0.0535 -0.3232  0.2805
26041W        W68953  27.105  28.168  19.075 -0.1325 -0.1823  0.2162
26042W        W68954  28.308  27.061  19.218  0.0163 -0.0602 -0.0738
26043W        W68955  27.050  27.521  18.131 -0.4162 -0.1017  0.0461
26044W        W68956  27.113  28.072  17.770 -0.1914  0.1319 -0.1289
26045W        W68957  27.500  27.211  18.011 -0.1255 -0.2540  0.1933
26046W        W68958  26.782  26.623  20.070  0.2558  0.1050 -0.0009
26047W        W68959  27.430  29.000  18.683 -0.1585  0.0456  0.1131
26048W        W68960  29.343  27.178  20.202  0.0637 -0.1963  0.2785
26049W        W68961  26.733  26.810  16.576 -0.0199 -0.2140  0.0675
26050W        W68962  28.944  27.012  17.236 -0.1840  0.1218  0.0726
26051W        W68963  26.529  26.358  16.140 -0.0132  0.0159 -0.2228
26052W        W68964  30.095  25.481  16.163 -0.0236  0.2584 -0.0227
26053W        W68965  26.575  24.671  18.347  0.1352  0.0767 -0.0097
26054W        W68966  26.533  28.379  17.686 -0.0475  0.0083  0.0926
26055W        W68967  27.587  26.916  16.980 -0.2512 -0.1205 -0.2947
26056W        W68968  29.121  28.202  20.050 -0.0357  0.0273 -0.0812
26057W        W68969  26.079  26.150  17.419 -0.3918 -0.1670  0.3119
26058W        W68970  28.141  27.270  19.660  0.1708  0.2643 -0.2133
26059W        W68971  25.967  28.498  19.244  0.6047  0.1803  0.0327
26060W        W68972  26.233  26.284  17.920 -0.1538  0.1696  0.1005
26061W        W68973  28.880  28.726  16.757 -0.2441 -0.3372 -0.0954
26062W        W68974  29.543  27.939  17.371  0.0547 -0.2740  0.1687
26063W        W68975  27.023  27.170  15.789  0.1198  0.2343 -0.3454
26064W        W68976  26.748  27.537  18.498 -0.1597 -0.4453  0.1461
26065W        W68977  24.565  28.235  19.329 -0.0742 -0.1231 -0.0869
26066W        W68978  25.058  28.610  18.940  0.0675 -0.3832  0.1496
26067W        W68979  25.935  24.771  16.140 -0.1803  0.0916  0.4685
26068W        W68980  28.374  28.539  19.908  0.0153  0.1073  0.0442
26069W        W68981  27.031  27.702  20.547  0.4310  0.1746  0.1304
26070W        W68982  29.778  27.118  18.248 -0.2059  0.0032 -0.2626
26071W        W68983  26.336  27.824  18.422 -0.0176 -0.2351  0.0794
26072W        W68984  28.693  27.317  17.689  0.1727  0.0518  0.3824
26073W        W68985  28.157  27.022  15.626  0.2305 -0.1295 -0.0048
26074W        W68986  27.718  24.745  17.414 -0.0337 -0.0794  0.3878
26075W        W68987  27.886  25.900  19.130  0.2537  0.2049  0.1235
26076W        W68988  27.315  26.469  15.780 -0.0074  0.4473  0.1706
26077W        W68989  27.035  27.230  16.359  0.2507 -0.1191  0.1895
26078W        W68990  29.816  29.012  19.049  0.0944  0.2078 -0.2341
26079W        W68991  28.443  26.829  16.566 -0.2368 -0.2258 -0.1394
26080W        W68992  26.554  29.836  18.550  0.1714  0.0550 -0.0601
26081W        W68993  25.678  26.459  19.310  0.1732 -0.1519 -0.0142
26082W        W68994  27.491  28.031  20.450  0.1137  0.1627  0.1427
26083W        W68995  25.427  28.449  16.367  0.0147 -0.1015  0.3199
26084W        W68996  24.061  28.646  17.228  0.0767  0.0176  0.1884
26085W        W68997  25.745  27.379  16.653 -0.0369 -0.1554 -0.0832
26086W        W68998  25.708  26.373  18.186  0.0102 -0.0739 -0.3302
26087W        W68999  27.195  27.802  18.819 -0.1281  0.0476  0.2028
26088W        W69000  29.199  26.259  16.453  0.1673 -0.0397 -0.1619
26089W        W69001  25.656  26.083  18.629  0.0349 -0.1782  0.0639
26090W        W69002  29.189  24.756  17.443 -0.2789 -0.0107 -0.1461
26091W        W69003  25.263  28.121  17.514 -0.2954 -0.1244 -0.1772
26092W        W69004  28.241  29.065  16.959  0.3538  0.1255  0.1411
26093W        W69005  28.795  26.485  16.501 -0.0655  0.1287  0.0213
26094W        W69006  28.351  28.557  16.628 -0.0347  0.0166  0.2845
26095W        W69007  26.488  28.169  19.155 -0.2843  0.0441 -0.1625
26096W        W69008  27.694  26.625  17.439 -0.0364 -0.0822  0.0060
26097W        W69009  26.739  27.133  18.262  0.0998  0.0135  0.0875
26098W        W69010  25.723  25.776  17.246  0.0456  0.0275 -0.1860
26099W        W69011  28.600  26.620  19.970 -0.4391  0.0312  0.1628
26100W        W69012  24.416  24.651  15.945  0.0977  0.0921  0.3645
26101W        W69013  27.211  25.934  17.214 -0.0987 -0.1883 -0.3447
26102W        W69014  27.689  25.690  17.033  0.0712  0.2092  0.0210
26103W        W69015  26.996  27.095  17.831  0.2670 -0.0706  0.0825
26104W        W69016  28.519  26.269  19.598  0.1660  0.2340  0.2115
26105W        W69017  27.710  28.463  15.678 -0.0857 -0.1893 -0.0531
26106W        W69018  28.795  29.072  19.872  0.1103  0.0692 -0.1560
26107W        W69019  28.732  27.439  18.792  0.0456 -0.1753 -0.0166
26108W        W69020  26.159  27.359  20.445 -0.1042 -0.0243 -0.0547
26109W        W69021  24.693  26.435  19.246 -0.2165  0.1351 -0.0579
26110W        W69022  24.824  29.141  17.310 -0.0187  0.3263 -0.0325
26111W        W69023  27.763  27.694  16.582  0.0447  0.0320 -0.0649
26112W        W69024  26.285  25.708  17.086 -0.2243 -0.1933  0.1493
26113W        W69025  27.948  28.583  16.911  0.0946  0.2009  0.0368
26114W        W69026  27.387  26.673  16.556 -0.0319  0.0852  0.1977
26115W        W69027  26.923  27.211  18.873  0.3719  0.0320 -0.1076
26116W        W69028  29.024  26.318  19.849 -0.1044  0.1546  0.0376
26117W        W69029  28.248  27.725  18.498  0.1437 -0.1661  0.1007
26118W        W69030  28.178  27.315  17.725 -0.0983 -0.1855 -0.1345
26119W        W69031  26.807  25.582  17.131  0.2943 -0.0914  0.2804
26120W        W69032  27.593  28.265  18.651  0.0219  0.2294 -0.0043
26121W        W69033  25.478  28.987  16.515  0.1030 -0.0577  0.2461
26122W        W69034  27.764  27.112  19.067 -0.0678  0.1010  0.2104
26123W        W69035  26.981  28.475  17.485  0.0198  0.1839 -0.0062
26124W        W69036  28.952  25.180  17.184 -0.1302 -0.0521 -0.0285
26125W        W69037  25.410  27.237  19.786 -0.0057  0.0699 -0.3743
26126W        W69038  27.716  26.966  19.557 -0.0323  0.0409  0.3964
26127W        W69039  26.178  27.424  17.541 -0.0768  0.1319  0.1470
26128W        W69040  25.721  27.660  19.774  0.0140  0.2237 -0.0280
26129W        W69041  27.956  25.946  16.603  0.4902  0.2720  0.0617
26130W        W69042  28.875  26.951  16.763  0.0238 -0.1800 -0.1011
26131W        W69043  27.562  28.312  19.436 -0.3741 -0.1503  0.0501
26132W        W69044  28.707  26.673  17.715  0.2026 -0.0055 -0.0912
26133W        W69045  28.297  26.733  16.023 -0.2199 -0.2074  0.2264
26134W        W69046  27.895  25.787  16.060  0.0472 -0.1165  0.1629
26135W        W69047  25.708  28.092  20.699 -0.0565 -0.1466 -0.1295
26136W        W69048  28.327  27.695  17.474 -0.0294  0.1622 -0.2289
26137W        W69049  27.418  27.591  18.426 -0.2415 -0.0986  0.2449
26138W        W69050  28.560  26.302  16.052 -0.0869  0.2095 -0.3121
26139W        W69051  28.097  28.144  17.475  0.0862  0.2088  0.1626
26140W        W69052  26.348  28.646  18.918  0.0247 -0.0119  0.1649
26141W        W69053  27.312  27.914  19.551  0.1374  0.1579 -0.0428
26142W        W69054  28.434  28.644  17.696  0.2608  0.1439  0.2992
26143W        W69055  27.166  25.465  17.915 -0.0461  0.0167  0.1312
26144W        W69056  25.549  27.114  15.401  0.0951 -0.1710 -0.3236
26145W        W69057  26.811  25.193  17.627  0.0918 -0.0104  0.0798
26146W        W69058  25.098  29.266  16.323 -0.0624 -0.1982 -0.0869
26147W        W69059  27.636  25.096  17.746 -0.0615 -0.2595 -0.0966
26148W        W69060  27.868  26.372  17.832  0.2547 -0.1315 -0.1060
26149W        W69061  28.271  25.581  20.549  0.0644  0.1318  0.3589
26150W        W69062  29.734  27.364  19.276 -0.1926 -0.2417  0.0500
26151W        W69063  28.348  26.950  17.434 -0.0949  0.3093  0.1813
26152W        W69064  27.949  27.523  18.193 -0.2321 -0.3384 -0.1014
26153W        W69065  24.919  27.803  17.984  0.1142 -0.1884  0.0496
26154W        W69066  26.494  25.653  18.941  0.2980  0.2008  0.5485
26155W        W69067  25.433  27.985  19.085  0.0201 -0.1614  0.0646
26156W        W69068  26.069  29.050  18.769 -0.1057 -0.2873 -0.2313
26157W        W69069  28.232  30.378  19.484  0.0502  0.2099  0.3757
26158W        W69070  28.370  26.455  18.946  0.1982  0.1605  0.3623
26159W        W69071  26.821  27.086  19.354  0.2931  0.2398  0.1845
26160W        W69072  26.828  25.922  16.210 -0.1272 -0.2218  0.1192
26161W        W69073  26.680  27.358  16.869 -0.0055 -0.0416  0.0396
26162W        W69074  27.241  29.057  16.861  0.0857  0.2799  0.2432
26163W        W69075  25.398  25.560  18.898  0.0825  0.1345 -0.0425
26164W        W69076  27.129  28.469  18.572  0.2193 -0.0491  0.0805
26165W        W69077  27.122  28.244  16.824 -0.1675 -0.3516  0.2283
26166W        W69078  26.143  27.614  20.055 -0.0232  0.3418  0.3543
26167W        W69079  26.388  27.630  17.150  0.1546  0.0400  0.1618
26168W        W69080  28.262  24.617  18.435 -0.0870 -0.1092  0.3909
26169W        W69081  26.107  29.012  18.262 -0.1220  0.0093  0.0595
26170W        W69082  25.300  26.669  15.492  0.1578 -0.0697  0.0474
26171W        W69083  25.769  26.388  15.474  0.2292  0.2224  0.1889
26172W        W69084  28.470  25.383  17.291 -0.0186 -0.0973 -0.1114
26173W        W69085  29.043  27.385  16.903 -0.0631 -0.0778  0.2205
26174W        W69086  27.059  24.824  18.567  0.0664 -0.0144  0.0852
26175W        W69087  27.166  25.807  18.296  0.1250 -0.2821 -0.0650
26176W        W69088  24.198  28.493  17.769  0.1722  0.1277 -0.3130
26177W        W69089  27.590  27.163  19.975 -0.0714 -0.3846 -0.1021
26178W        W69090  27.812  25.246  16.110 -0.1936 -0.1423  0.1977
26179W        W69091  25.720  29.386  20.274  0.1678 -0.3430  0.0953
26180W        W69092  25.970  27.283  19.537 -0.0621 -0.1652  0.1034
26181W        W69093  25.433  26.607  16.473 -0.1018  0.0200  0.0106
26182W        W69094  28.061  26.296  18.357  0.1197 -0.1127 -0.0658
26183W        W69095  28.288  26.695  17.916  0.2205  0.0091  0.1016
26184W        W69096  25.760  28.789  16.034 -0.1692  0.0106  0.1454
26185W        W69097  28.016  28.113  18.843 -0.1707 -0.1577 -0.3475
26186W        W69098  25.468  27.927  17.125 -0.0426 -0.1260 -0.0678
26187W        W69099  24.908  27.542  16.963  0.0381 -0.0851 -0.1654
26188W        W69100  25.162  26.750  19.211  0.0251 -0.2687  0.0005
26189W        W69101  28.661  28.180  19.571 -0.2134  0.1022  0.1586
26190W        W69102  27.664  26.742  18.212  0.1884  0.2126  0.0954
26191W        W69103  26.521  26.069  17.545  0.3136  0.0100  0.1806
26192W        W69104  27.255  26.147  16.701  0.2515 -0.0118  0.3707
26193W        W69105  28.156  27.846  19.592 -0.0439 -0.0271  0.1362
26194W        W69106  27.691  27.554  19.544  0.0906 -0.2083  0.0513
26195W        W69107  26.631  28.387  20.487 -0.0942  0.3981 -0.0889
26196W        W69108  27.430  25.087  18.188  0.1665  0.2119  0.3364
26197W        W69109  28.768  28.211  16.928 -0.2672 -0.0394 -0.0402
26198W        W69110  28.165  27.281  20.526  0.1946 -0.1126 -0.2539
26199W        W69111  27.107  26.455  16.194  0.3444 -0.0569  0.0550
26200W        W69112  24.659  27.367  17.431  0.2765 -0.1819 -0.0059
26201W        W69113  27.595  27.774  17.981 -0.0834  0.3091 -0.1256
26202W        W69114  28.222  26.482  17.459 -0.0290  0.2050  0.1340
26203W        W69115  26.265  28.659  19.679 -0.2477 -0.0535  0.3304
26204W        W69116  25.752  27.745  16.282 -0.1005  0.0431  0.0654
26205W        W69117  26.080  29.016  17.579  0.1065 -0.4491 -0.1237
26206W        W69118  29.238  25.707  17.325  0.0028  0.1217  0.1511
26207W        W69119  26.751  26.822  16.084 -0.0764  0.0060 -0.0666
26208W        W69120  27.143  25.072  16.315 -0.3459  0.1006  0.0521
26209W        W69121  30.222  26.455  19.465 -0.2846 -0.0091 -0.1079
26210W        W69122  28.102  26.827  16.943 -0.2553 -0.0539  0.0101
26211W        W69123  29.089  25.754  19.531 -0.2148  0.1058 -0.3783
26212W        W69124  25.951  27.096  19.078  0.1698 -0.1125  0.0666
26213W        W69125  28.464  28.281  18.073  0.1596  0.2688 -0.3479
26214W        W69126  26.636  26.498  17.996  0.1826 -0.0799 -0.0198
26215W        W69127  27.601  29.992  20.754  0.4916 -0.2962  0.0936
26216W        W69128  25.496  26.879  20.178 -0.0282 -0.1882 -0.1757
26217W        W69129  28.343  25.856  17.156 -0.1197 -0.4033  0.2058
26218W        W69130  24.798  25.576  15.719 -0.1257  0.3056  0.0162
26219W        W69131  26.465  26.798  19.077  0.0149 -0.2924  0.3062
26220W        W69132  29.867  27.236  18.749 -0.0662 -0.1013  0.1625
26221W        W69133  28.025  27.586  17.004  0.2824 -0.1866  0.2597
26222W        W69134  28.804  26.091  17.011 -0.1532 -0.0923 -0.2416
26223W        W69135  24.844  27.145  18.220  0.1736  0.2363  0.1520
26224W        W69136  29.125  26.549  17.456  0.3003  0.0137  0.0029
26225W        W69137  26.741  26.048  17.103  0.0927  0.1393  0.0329
26226W        W69138  26.462  26.989  17.775  0.0448  0.1618 -0.0255
26227W        W69139  26.655  25.647  18.422  0.2780 -0.0220  0.1235
26228W        W69140  27.782  27.604  17.566  0.0166  0.1214 -0.0615
26229W        W69141  28.254  26.307  16.910 -0.1530 -0.3121  0.3339
26230W        W69142  27.396  26.094  19.190 -0.0020 -0.0227  0.2299
26231W        W69143  27.456  28.794  19.586 -0.3617  0.0248 -0.2329
26232W        W69144  26.025  27.606  18.997  0.0297  0.0998  0.0702
26233W        W69145  25.036  26.962  20.001 -0.2407 -0.1478  0.1535
26234W        W69146  28.235  29.933  19.188  0.1047 -0.2127  0.0525
26235W        W69147  29.639  28.239  15.523  0.1214 -0.0470 -0.2226
26236W        W69148  29.212  24.912  19.782  0.0612 -0.2355  0.4222
26237W        W69149  29.451  27.551  16.690 -0.5018  0.2360  0.2777
26238W        W69150  28.155  25.503  16.859  0.0579 -0.3823 -0.1991
26239W        W69151  25.740  27.109  17.633 -0.1852 -0.2382 -0.1379
26240W        W69152  28.672  26.654  19.244 -0.0748  0.1424 -0.1877
26241W        W69153  25.845  26.322  16.951  0.0461  0.1520  0.0560
26242W        W69154  27.390  25.498  19.039 -0.0184  0.1625 -0.1313
26243W        W69155  27.886  28.179  16.031 -0.1191 -0.0215 -0.0686
26244W        W69156  26.467  28.851  17.852 -0.0606 -0.1354  0.0761
26245W        W69157  29.109  26.120  17.676  0.2482 -0.0373 -0.1943
26246W        W69158  26.281  26.785  16.861 -0.0890 -0.1592  0.3340
26247W        W69159  26.121  27.936  19.348 -0.1655 -0.2584  0.1548
26248W        W69160  26.002  26.392  16.042  0.1652  0.1161 -0.2019
26249W        W69161  28.579  28.141  17.410  0.0680  0.1689  0.0623
26250W        W69162  27.601  27.930  19.079 -0.0734 -0.1805 -0.2253
26251W        W69163  28.388  28.572  18.937 -0.0763  0.1176 -0.0769
26252W        W69164  27.181  25.603  16.856  0.1014  0.1708 -0.2133
26253W        W69165  28.496  25.665  17.691 -0.0116  0.1704  0.0748
26254W        W69166  26.320  27.645  16.599 -0.3386 -0.4972 -0.1887
26255W        W69167  28.613  26.622  17.148  0.1956  0.0212 -0.0840
26256W        W69168  25.992  29.467  19.445 -0.3348 -0.4141 -0.1202
26257W        W69169  25.767  28.205  17.648  0.2966  0.3689 -0.1464
26258W        W69170  26.837  27.988  17.407  0.0590 -0.0657  0.3756
26259W        W69171  26.949  24.917  18.071 -0.1041  0.0356  0.0310
26260W        W69172  28.958  27.012  19.149  0.0732 -0.0056 -0.0110
26261W        W69173  27.728  27.166  18.552 -0.0702 -0.1462 -0.0700
26262W        W69174  29.011  26.800  19.638 -0.1798  0.0248 -0.0426
26263W        W69175  26.899  29.087  20.192 -0.3898  0.0106 -0.1778
26264W        W69176  27.196  27.682  16.694  0.2397  0.0683  0.3358
26265W        W69177  28.183  29.145  20.660  0.3238  0.3077 -0.2454
26266W        W69178  28.622  28.721  18.140  0.0156  0.1148  0.0073
26267W        W69179  26.509  28.709  18.403  0.0535 -0.2025  0.2893
26268W        W69180  25.265  27.872  20.139 -0.1832  0.1999  0.2650
26269W        W69181  28.033  27.507  19.141  0.1184  0.0089 -0.0676
26270W        W69182  28.191  27.279  18.705  0.2826  0.0005 -0.2998
26271W        W69183  28.254  24.544  17.356  0.1700 -0.0198 -0.2691
26272W        W69184  28.373  28.327  16.151 -0.0939  0.0746 -0.0972
26273W        W69185  25.401  29.539  19.434 -0.1672 -0.1602 -0.2722
26274W        W69186  25.241  27.907  18.429  0.1152  0.0593 -0.1856
26275W        W69187  25.227  28.856  16.962  0.1746  0.1867 -0.0846
26276W        W69188  26.729  27.858  16.891  0.0313 -0.4427  0.0895
26277W        W69189  28.005  28.143  16.568  0.0977 -0.0541 -0.3071
26278W        W69190  27.268  29.517  19.292 -0.2409 -0.0530 -0.0730
26279W        W69191  26.780  26.627  17.046 -0.0397  0.1726 -0.2635
26280W        W69192  26.790  28.926  18.869  0.1776 -0.1414  0.1167
26281W        W69193  25.054  28.539  17.312  0.1744  0.0706 -0.0067
26282W        W69194  27.856  28.541  16.372  0.5322  0.0700  0.5398
26283W        W69195  25.798  29.394  17.169 -0.0448  0.2149  0.3900
26284W        W69196  28.852  28.604  19.664 -0.3151  0.1619  0.3598
26285W        W69197  29.823  25.193  16.584  0.0376  0.2787 -0.0458
26286W        W69198  29.796  26.332  18.378 -0.0030  0.0022  0.0488
26287W        W69199  28.539  25.997  16.502 -0.0500 -0.2825  0.1158
26288W        W69200  27.063  28.382  19.577 -0.0685  0.1078 -0.4261
26289W        W69201  26.998  25.858  17.618 -0.1009 -0.2011 -0.2019
26290W        W69202  26.329  25.285  17.291  0.0285  0.3443 -0.3306
26291W        W69203  26.496  27.430  19.257  0.0068 -0.0881 -0.1058
26292W        W69204  28.677  24.186  18.478 -0.0559  0.1494 -0.3370
26293W        W69205  24.677  29.424  18.703 -0.1489  0.2395 -0.1010
26294W        W69206  27.891  28.980  16.593 -0.2401  0.1463  0.0291
26295W        W69207  26.461  25.858  16.667 -0.0549 -0.3772  0.1143
26296W        W69208  27.583  28.168  17.603  0.0151  0.1695  0.1325
26297W        W69209  29.164  24.604  19.417  0.0200  0.4556  0.3330
26298W        W69210  28.057  27.285  16.601  0.0649  0.2649  0.2108
26299W        W69211  27.475  26.763  18.812 -0.4563  0.5320 -0.5416
26300W        W69212  27.507  28.161  16.520  0.0389 -0.2202  0.0464
26301W        W69213  26.103  28.155  18.829 -0.2221 -0.0655  0.3308
26302W        W69214  25.142  29.195  18.703  0.0910 -0.3182  0.0064
26303W        W69215  25.925  25.102  15.709  0.2718 -0.0164 -0.2500
26304W        W69216  29.399  27.376  17.258 -0.1523 -0.0488  0.4577
26305W        W69217  25.746  28.164  18.242  0.1084 -0.0244 -0.2888
26306W        W69218  27.726  26.322  18.835 -0.2371  0.0539 -0.0455
26307W        W69219  27.109  27.049  16.854  0.0652 -0.0272 -0.0509
26308W        W69220  28.891  26.216  18.129  0.1101  0.1311  0.1758
26309W        W69221  27.858  26.955  17.764 -0.0131  0.1270 -0.0582
26310W        W69222  26.537  26.580  17.478  0.1793 -0.0094 -0.3193
26311W        W69223  25.917  27.748  16.953 -0.2649  0.2722 -0.0223
26312W        W69224  28.571  27.083  19.707  0.0541  0.3216 -0.1586
26313W        W69225  27.633  26.253  16.327  0.0523 -0.0617  0.0541
26314W        W69226  27.362  30.007  19.216 -0.0102 -0.0876  0.1999
26315W        W69227  26.326  26.301  16.975  0.1845  0.2012  0.1211
26316W        W69228  27.046  26.729  18.190  0.2233  0.0182  0.2478
26317W        W69229  26.023  27.262  17.044 -0.1078  0.1282  0.1584
26318W        W69230  26.714  27.832  18.850  0.1466 -0.0087 -0.0739
26319W        W69231  29.143  29.556  19.619 -0.1757  0.1210  0.0500
26320W        W69232  26.074  25.468  18.689 -0.0039 -0.0574  0.2372
26321W        W69233  30.125  28.902  17.688 -0.2257 -0.1292  0.4951
26322W        W69234  28.562  27.535  19.500  0.0730  0.0373 -0.0643
26323W        W69235  26.766  28.619  15.727  0.2015 -0.0735 -0.0585
26324W        W69236  29.833  27.497  17.051  0.0465 -0.0004 -0.1001
26325W        W69237  28.182  28.619  18.330 -0.0863 -0.2091  0.0840
26326W        W69238  25.295  26.752  17.529  0.1469 -0.2517  0.1935
26327W        W69239  27.919  28.856  19.387 -0.0331  0.0891 -0.3681
26328W        W69240  27.435  30.243  18.618 -0.0408  0.3240 -0.1756
26329W        W69241  26.775  24.820  16.634 -0.1376  0.1552  0.1481
26330W        W69242  27.678  25.634  17.781 -0.2770 -0.1102  0.0181
26331W        W69243  25.883  28.342  16.201 -0.2032  0.0119  0.1012
26332W        W69244  28.013  26.764  18.726 -0.3899  0.0907 -0.1019
26333W        W69245  27.337  26.387  18.480 -0.1992 -0.1500 -0.1611
26334W        W69246  27.526  27.495  17.075  0.4661 -0.0890  0.0850
26335W        W69247  28.243  25.432  18.980 -0.3102 -0.0478  0.0546
26336W        W69248  26.570  28.234  19.636  0.1206 -0.1795  0.1402
26337W        W69249  27.602  29.196  21.259 -0.1929 -0.2004  0.1892
26338W        W69250  25.668  27.960  15.856  0.0465 -0.0539 -0.4153
26339W        W69251  27.321  26.942  19.241  0.0271 -0.0081  0.0404
26340W        W69252  26.671  27.923  17.909  0.0436 -0.3568 -0.1624
26341W        W69253  27.037  28.903  18.243  0.1385  0.0214 -0.0787
26342W        W69254  29.373  28.389  17.775 -0.1326 -0.0930 -0.2907
26343W        W69255  27.362  26.904  16.090  0.1333 -0.0223 -0.3181
26344W        W69256  28.443  27.384  18.170 -0.0900 -0.1909  0.0812
26345W        W69257  27.269  27.582  17.635  0.2989  0.0736  0.1869
26346W        W69258  28.498  26.133  18.505 -0.0231  0.2207  0.0406
26347W        W69259  28.678  26.968  18.254  0.1303 -0.2117  0.1298
26348W        W69260  25.955  27.393  18.014 -0.2293  0.2783  0.0075
26349W        W69261  25.924  27.331  15.707 -0.0049 -0.1058  0.0107
26350W        W69262  27.582  27.161  16.531 -0.3179 -0.0654 -0.0071
26351W        W69263  25.531  26.833  17.999  0.0080  0.2062 -0.0629
26352W        W69264  27.018  26.106  19.636 -0.0856  0.0544  0.2329
26353W        W69265  26.241  26.117  18.407  0.3698  0.0814 -0.0236
26354W        W69266  25.605  29.023  17.792  0.1472 -0.0440 -0.1142
26355W        W69267  26.142  25.478  16.554 -0.0365 -0.5326 -0.3764
26356W        W69268  29.336  28.484  17.260 -0.1406  0.0841 -0.1610
26357W        W69269  26.486  25.167  18.603  0.0608 -0.0612  0.0242
26358W        W69270  25.142  25.418  18.087  0.1431  0.2835  0.1437
26359W        W69271  28.074  29.022  17.410 -0.2393 -0.1248  0.0524
26360W        W69272  29.361  28.667  16.767 -0.0561 -0.1374 -0.0568
26361W        W69273  27.461  26.069  17.627  0.1438  0.2196  0.0116
26362W        W69274  28.050  28.721  20.289 -0.3333  0.5238  0.2479
26363W        W69275  26.754  27.703  16.359  0.2720  0.0617  0.0968
26364W        W69276  26.962  26.624  19.440 -0.0485  0.0530 -0.2966
26365W        W69277  26.811  26.138  19.116 -0.0806 -0.1472  0.2203
26366W        W69278  24.132  25.850  15.383 -0.1404 -0.1369 -0.0398
26367W        W69279  28.899  26.247  18.787 -0.2866  0.0889 -0.1388
26368W        W69280  28.097  27.880  17.915 -0.0156  0.1605 -0.1117
26369W        W69281  27.680  28.977  17.051 -0.0723  0.1053  0.1454
26370W        W69282  27.817  27.614  18.697  0.6712  0.0809 -0.0106
26371W        W69283  26.004  28.394  20.232 -0.2335 -0.2438  0.2222
26372W        W69284  25.536  25.391  19.484  0.0413 -0.0303 -0.0633
26373W        W69285  28.937  27.696  17.299  0.0959 -0.1665 -0.2243
26374W        W69286  26.641  28.301  18.672  0.0056 -0.1244 -0.3209
26375W        W69287  28.457  27.214  16.958 -0.2811  0.0322  0.0832
26376W        W69288  28.426  26.610  18.379  0.1234  0.1990  0.2551
26377W        W69289  28.099  25.942  17.556  0.1064  0.0338 -0.0316
26378W        W69290  24.683  25.327  18.349 -0.0426 -0.2903  0.2263
26379W        W69291  26.410  28.040  20.069  0.0500 -0.1326  0.0548
26380W        W69292  28.093  27.007  18.251  0.0470 -0.2060 -0.0235
26381W        W69293  26.090  25.207  19.491 -0.0470  0.1407 -0.0300
26382W        W69294  29.210  24.868  17.926 -0.1223  0.1482 -0.2937
26383W        W69295  27.272  27.938  17.235 -0.0442 -0.0059  0.2111
26384W        W69296  26.469  27.127  19.844  0.3921 -0.0325  0.0099
26385W        W69297  27.785  26.461  16.734  0.2163 -0.2204 -0.2539
26386W        W69298  28.414  27.780  18.996 -0.2666 -0.1350  0.1970
26387W        W69299  28.754  27.927  17.796 -0.0031 -0.0677 -0.3735
26388W        W69300  27.912  27.557  20.004  0.1157  0.0505 -0.1254
26389W        W69301  26.753  26.224  16.585 -0.2197 -0.0405 -0.1678
26390W        W69302  29.373  28.147  16.422  0.0861 -0.2419  0.0542
26391W        W69303  27.722  29.277  19.672  0.0393  0.1935 -0.0586
26392W        W69304  28.280  28.440  20.787 -0.1530  0.1310  0.2192
26393W        W69305  27.097  30.088  19.960 -0.2270 -0.0096  0.0102
26394W        W69306  29.670  27.942  17.888 -0.1700 -0.2739 -0.3564
26395W        W69307  25.286  27.555  17.531 -0.2230 -0.3075 -0.0675
26396W        W69308  26.027  26.800  17.344  0.0678  0.1144 -0.2070
26397W        W69309  26.959  27.004  17.360 -0.0425  0.1800  0.0767
26398W        W69310  29.503  26.425  17.982 -0.0442  0.1327 -0.1252
26399W        W69311  27.280  26.705  17.707 -0.2720 -0.0062  0.3262
26400W        W69312  29.551  25.995  16.645  0.1035 -0.1785  0.0134
26401W        W69313  26.666  28.625  19.333 -0.3237 -0.3597  0.0505
26402W        W69314  27.745  28.128  16.994  0.1132 -0.1617  0.5168
26403W        W69315  26.175  29.164  23.349 -0.0857 -0.1441  0.2991
26404W        W69316  27.501  28.509  20.914 -0.0927 -0.1403  0.0112
26405W        W69317  29.769  26.664  19.270 -0.2392 -0.2114  0.0834
26406W        W69318  29.811  28.839  20.900 -0.0874 -0.4763 -0.3542
26407W        W69319  25.427  27.167  20.692  0.3545 -0.2176  0.1304
26408W        W69320  27.869  28.412  21.807 -0.2903  0.0178 -0.1437
26409W        W69321  25.903  26.177  23.544  0.2315 -0.0562  0.1831
26410W        W69322  27.416  28.117  22.579  0.1359  0.2284 -0.2480
26411W        W69323  27.974  29.013  23.213  0.1038 -0.1895  0.2823
26412W        W69324  27.384  28.316  19.923  0.0338 -0.1562 -0.0155
26413W        W69325  26.717  26.535  22.766  0.0108  0.0396  0.1391
26414W        W69326  27.839  28.600  23.458 -0.1168  0.2413  0.2253
26415W        W69327  27.712  26.489  20.394  0.3121 -0.2644  0.0630
26416W        W69328  25.884  25.896  21.689  0.0937 -0.2828 -0.3530
26417W        W69329  28.309  26.939  22.675 -0.0427 -0.2369  0.0184
26418W        W69330  25.411  28.250  19.747  0.3833  0.1297  0.1508
26419W        W69331  26.372  26.907  22.952 -0.0112 -0.0012  0.3516
26420W        W69332  27.301  26.325  20.034 -0.0544  0.1989  0.0396
26421W        W69333  28.747  29.542  23.055  0.2425  0.1227  0.0538
26422W        W69334  27.897  26.383  23.419 -0.2611  0.0800  0.0583
26423W        W69335  29.473  27.019  23.497 -0.1396  0.4279  0.1659
26424W        W69336  27.768  28.040  22.071  0.0517 -0.2685 -0.2229
26425W        W69337  25.062  26.138  19.160 -0.0425 -0.1172 -0.1669
26426W        W69338  25.407  27.529  24.185 -0.7319  0.0372  0.2563
26427W        W69339  26.965  27.461  22.418  0.1914 -0.2575 -0.2213
26428W        W69340  27.161  27.033  21.949  0.0385 -0.0989  0.0251
26429W        W69341  28.813  26.737  20.639 -0.2011  0.3395 -0.1496
26430W        W69342  27.565  30.235  22.923  0.2100 -0.1146 -0.0136
26431W        W69343  26.748  28.819  22.019 -0.0097 -0.1781  0.3034
26432W        W69344  29.224  25.736  22.423  0.3151  0.3656  0.0551
26433W        W69345  26.786  27.946  22.372  0.2189  0.0102 -0.0485
26434W        W69346  25.173  29.024  22.613  0.1432  0.1581  0.0658
26435W        W69347  26.478  28.941  20.732 -0.3225 -0.0489  0.2550
26436W        W69348  28.700  27.045  20.216  0.2688 -0.3014  0.1404
26437W        W69349  27.643  28.829  22.516  0.4130 -0.0756 -0.3751
26438W        W69350  25.830  29.156  22.402  0.1023  0.1310  0.0137
26439W        W69351  24.927  29.379  19.220  0.2191 -0.0334 -0.0182
26440W        W69352  27.826  29.742  23.089 -0.0139 -0.3708 -0.0503
26441W        W69353  26.521  28.910  22.971  0.0474 -0.1584 -0.0842
26442W        W69354  26.549  28.532  22.610  0.0542 -0.2552 -0.4743
26443W        W69355  28.304  26.340  21.697 -0.0583  0.2210  0.1235
26444W        W69356  27.616  27.977  21.430  0.4524  0.1716  0.0871
26445W        W69357  28.878  27.338  21.330 -0.3741  0.2894 -0.1163
26446W        W69358  26.426  27.123  25.169 -0.2785  0.1498  0.3338
26447W        W69359  25.538  28.706  22.413  0.2114  0.2915 -0.0930
26448W        W69360  30.443  26.712  23.083 -0.3086  0.1331 -0.0740
26449W        W69361  26.530  28.762  20.072  0.0663 -0.3002 -0.1297
26450W        W69362  27.705  26.985  20.523 -0.0002 -0.0232  0.2525
26451W        W69363  26.308  26.611  19.802 -0.1038 -0.1267  0.0957
26452W        W69364  27.949  26.632  19.212 -0.1901  0.2745 -0.0094
26453W        W69365  26.405  26.361  20.303  0.0797 -0.1137  0.3317
26454W        W69366  26.422  28.327  22.085 -0.1275 -0.2941  0.1394
26455W        W69367  26.355  27.771  22.470 -0.0280 -0.4251 -0.0940
26456W        W69368  28.687  28.063  24.047 -0.1256  0.4002 -0.2532
26457W        W69369  28.028  26.926  20.973 -0.1064  0.0482  0.0646
26458W        W69370  26.924  27.142  23.943 -0.5239  0.3021 -0.0694
26459W        W69371  25.518  30.572  23.458 -0.2695  0.0651 -0.0614
26460W        W69372  25.939  26.806  20.454  0.1637 -0.1256  0.1231
26461W        W69373  28.482  29.039  21.643  0.2146  0.1155 -0.0472
26462W        W69374  29.251  28.603  22.291 -0.4658  0.0779  0.0079
26463W        W69375  27.273  29.467  20.307 -0.0806 -0.2137 -0.0359
26464W        W69376  25.855  27.899  21.679 -0.1590  0.0757  0.0051
26465W        W69377  25.874  27.660  23.097 -0.0922  0.0069 -0.0236
26466W        W69378  25.914  27.171  22.751  0.1052 -0.1015 -0.0625
26467W        W69379  25.779  26.531  19.900 -0.0341  0.0604 -0.1338
26468W        W69380  29.635  28.375  23.265 -0.0327  0.0075  0.3149
26469W        W69381  27.219  27.866  22.038  0.0679 -0.1038  0.0112
26470W        W69382  28.086  26.085  21.257  0.0343 -0.0797 -0.1811
26471W        W69383  26.705  29.255  21.671 -0.0292 -0.1772  0.0384
26472W        W69384  29.855  28.870  22.510 -0.0475 -0.1991 -0.4427
26473W        W69385  27.277  28.615  19.175  0.2806 -0.2888 -0.0158
26474W        W69386  27.345  27.115  22.678 -0.1938 -0.0285 -0.0097
26475W        W69387  28.018  26.047  23.074  0.3193 -0.1098  0.1113
26476W        W69388  25.479  27.622  18.793  0.2718  0.3815  0.0433
26477W        W69389  27.789  27.836  22.979 -0.1337 -0.1622 -0.0699
26478W        W69390  28.151  27.978  23.822 -0.1525 -0.0569 -0.2472
26479W        W69391  28.167  26.690  20.576  0.0570 -0.3264  0.0134
26480W        W69392  25.249  29.288  21.591  0.1587 -0.3747  0.0485
26481W        W69393  26.842  27.481  23.497  0.0026 -0.1740  0.1042
26482W        W69394  27.169  28.696  23.680 -0.0800 -0.4511  0.4490
26483W        W69395  25.657  29.802  18.436 -0.0668 -0.0065 -0.3544
26484W        W69396  26.148  28.227  22.533 -0.1732  0.1529  0.1735
26485W        W69397  25.768  27.878  20.256  0.0608 -0.0458  0.0557
26486W        W69398  25.539  26.544  21.530 -0.0195  0.1643  0.0007
26487W        W69399  27.817  27.446  20.901  0.1174  0.1408 -0.1082
26488W        W69400  28.734  25.445  21.309 -0.3175 -0.1522  0.0996
26489W        W69401  25.641  26.241  23.146 -0.1974  0.2073  0.2826
26490W        W69402  27.523  25.224  20.607 -0.2659  0.4353  0.0121
26491W        W69403  27.118  28.469  20.436 -0.0602  0.0200 -0.0299
26492W        W69404  27.183  29.319  22.574 -0.0520  0.0173  0.1739
26493W        W69405  28.248  26.672  19.594 -0.0943 -0.1259 -0.1946
26494W        W69406  27.970  27.792  20.468 -0.1396  0.2938  0.0570
26495W        W69407  25.028  26.783  23.502 -0.3034  0.0450  0.2601
26496W        W69408  26.882  26.741  20.835  0.1396 -0.1401 -0.0153
26497W        W69409  26.146  26.377  23.134 -0.0089 -0.1641 -0.1107
26498W        W69410  24.827  26.287  22.530  0.0041  0.1971 -0.2650
26499W        W69411  29.195  26.428  24.348  0.1883 -0.1272  0.1529
26500W        W69412  24.604  26.044  19.942 -0.0321 -0.0721 -0.1582
26501W        W69413  27.774  27.085  21.426 -0.3236  0.1017 -0.0131
26502W        W69414  26.826  27.557  21.533  0.1906 -0.2376 -0.0603
26503W        W69415  26.700  28.459  21.036  0.1464  0.2489 -0.2611
26504W        W69416  30.737  26.407  21.712  0.0096  0.0613 -0.2384
26505W        W69417  28.712  29.184  20.743 -0.1165  0.0238  0.1413
26506W        W69418  29.859  29.357  22.287 -0.2451  0.0226 -0.2405
26507W        W69419  28.074  29.701  22.200  0.2280  0.3120 -0.3775
26508W        W69420  24.725  28.485  23.197 -0.0809  0.0065  0.1616
26509W        W69421  25.114  26.784  20.469  0.4439  0.0854 -0.0246
26510W        W69422  25.693  28.791  21.170 -0.0871  0.0774 -0.0225
26511W        W69423  26.411  29.360  21.301 -0.1766  0.0117  0.2540
26512W        W69424  26.604  26.975  22.042  0.1761  0.1258  0.1326
26513W        W69425  28.514  29.243  22.169  0.0192  0.0561 -0.1514
26514W        W69426  28.466  28.162  21.289  0.1689 -0.1182  0.0369
26515W        W69427  26.927  28.543  23.215 -0.3558 -0.1138  0.0801
26516W        W69428  28.308  26.130  23.558 -0.0390 -0.0342 -0.0817
26517W        W69429  29.505  26.661  23.981  0.1978 -0.1876  0.0325
26518W        W69430  27.440  27.601  21.682 -0.4012  0.0804  0.2429
26519W        W69431  26.479  25.768  19.500 -0.0857 -0.2449  0.1219
26520W        W69432  27.307  29.583  23.095 -0.1207 -0.1473 -0.2348
26521W        W69433  24.550  31.407  19.161 -0.1072  0.0910 -0.3894
26522W        W69434  24.473  27.893  20.771 -0.2841 -0.2187  0.0685
26523W        W69435  26.291  29.345  21.907  0.2661 -0.0629  0.0427
26524W        W69436  28.755  27.271  22.738  0.1970  0.0099 -0.2430
26525W        W69437  26.099  27.320  24.197 -0.2947  0.2004  0.3943
26526W        W69438  28.282  26.636  23.646  0.0520 -0.1559  0.1570
26527W        W69439  25.728  26.854  22.349 -0.1882  0.0683  0.2777
26528W        W69440  26.318  29.770  23.126  0.0870 -0.0103 -0.1306
26529W        W69441  28.011  24.695  21.826  0.3828 -0.1079  0.0115
26530W        W69442  28.937  27.502  20.223 -0.1352  0.2152  0.4729
26531W        W69443  27.779  28.079  24.641 -0.2025  0.0508 -0.4279
26532W        W69444  29.838  27.672  18.911 -0.1155 -0.0002  0.0335
26533W        W69445  28.453  27.885  19.977 -0.0744  0.0917  0.1895
26534W        W69446  26.957  25.963  20.218 -0.2153 -0.2616 -0.1577
26535W        W69447  26.345  29.212  22.389 -0.2259 -0.0026  0.2115
26536W        W69448  27.824  27.320  22.887 -0.0477  0.0423  0.1491
26537W        W69449  27.186  28.965  22.178  0.3943 -0.2933 -0.0450
26538W        W69450  26.535  27.693  20.428 -0.0262 -0.0839 -0.1903
26539W        W69451  29.450  28.569  22.861  0.0382 -0.0703  0.2848
26540W        W69452  25.222  28.134  22.538  0.1198 -0.1786 -0.0138
26541W        W69453  28.210  26.585  24.458 -0.0321  0.2857  0.1450
26542W        W69454  26.736  28.166  22.925 -0.5005  0.0234  0.0285
26543W        W69455  26.691  26.457  23.806 -0.0245  0.2286 -0.1589
26544W        W69456  24.740  28.509  18.579 -0.0540 -0.2649  0.1673
26545W        W69457  27.866  26.581  21.378  0.0712 -0.3610 -0.1577
26546W        W69458  26.629  29.688  21.015 -0.0337  0.0682 -0.2041
26547W        W69459  27.885  26.842  21.906 -0.3077  0.0988 -0.0193
26548W        W69460  26.621  26.339  21.855  0.3886 -0.0739  0.1296
26549W        W69461  26.807  26.044  23.394  0.0106 -0.1715  0.0136
26550W        W69462  28.492  26.913  24.094 -0.1976 -0.2164 -0.2087
26551W        W69463  27.882  27.527  21.443 -0.0014  0.0281 -0.1768
26552W        W69464  27.984  26.801  23.246  0.0911 -0.1890  0.0201
26553W        W69465  24.984  27.688  19.140  0.1048 -0.2409  0.1493
26554W        W69466  27.458  26.095  24.261 -0.2377 -0.1982  0.0936
26555W        W69467  26.771  29.527  23.235 -0.0311  0.0435 -0.3136
26556W        W69468  25.780  29.828  23.981 -0.1730  0.0692 -0.0620
26557W        W69469  27.231  28.648  22.721 -0.0946 -0.2342  0.4556
26558W        W69470  28.304  26.518  21.128  0.2341 -0.1550 -0.4123
26559W        W69471  28.853  26.474  23.845 -0.2126 -0.0028 -0.0985
26560W        W69472  27.027  26.255  21.089  0.0996  0.2433 -0.4943
26561W        W69473  26.175  27.748  21.993 -0.1730 -0.3454 -0.3316
26562W        W69474  25.666  29.347  19.053 -0.0030 -0.0362  0.1541
26563W        W69475  26.922  26.754  21.642 -0.3151  0.0370  0.2840
26564W        W69476  27.201  28.069  20.895  0.0425  0.0002  0.2248
26565W        W69477  27.380  27.441  19.125 -0.0659 -0.1042 -0.0187
26566W        W69478  27.688  27.215  23.353 -0.0847 -0.0888  0.2482
26567W        W69479  27.231  27.554  21.141  0.3603 -0.1232 -0.0428
26568W        W69480  27.777  26.231  21.726  0.1794 -0.2064  0.3496
26569W        W69481  25.367  28.748  21.533 -0.2796  0.0442  0.0626
26570W        W69482  25.606  26.935  19.469  0.0920  0.2052  0.0780
26571W        W69483  24.290  27.373  20.206  0.0054 -0.2762 -0.1323
26572W        W69484  28.274  25.267  22.223  0.0218  0.0467  0.0811
26573W        W69485  29.275  27.971  20.896 -0.4704 -0.0574 -0.1159
26574W        W69486  25.351  26.488  22.422  0.1617  0.0930  0.0661
26575W        W69487  27.463  27.041  20.998 -0.1124  0.0597 -0.2418
26576W        W69488  25.957  30.696  23.192  0.0595 -0.3432  0.4283
26577W        W69489  28.143  28.185  22.808 -0.2229  0.1790 -0.1695
26578W        W69490  28.395  25.930  19.155  0.0608  0.3086  0.0121
26579W        W69491  27.260  27.153  21.464  0.3179  0.0654 -0.0659
26580W        W69492  27.342  28.462  25.297 -0.0539 -0.1461 -0.3485
26581W        W69493  25.729  26.234  20.348 -0.0771 -0.0269  0.2683
26582W        W69494  28.207  27.171  23.688 -0.2016  0.0245 -0.2223
26583W        W69495  27.432  26.624  20.765  0.0010  0.1440  0.0084
26584W        W69496  24.847  28.896  21.734  0.4202  0.2058  0.1986
26585W        W69497  26.751  28.717  23.957  0.1705  0.2291 -0.0867
26586W        W69498  27.099  27.093  20.517 -0.1094 -0.0676  0.0676
26587W        W69499  26.335  27.331  21.145 -0.2120  0.0083  0.0664
26588W        W69500  27.041  26.862  24.420  0.0280 -0.1976  0.0957
26589W        W69501  28.318  27.490  22.597  0.2809 -0.1519 -0.0103
26590W        W69502  27.373  26.846  23.136  0.0266 -0.3569  0.0286
26591W        W69503  27.435  27.683  23.357 -0.5561 -0.0608  0.0525
26592W        W69504  26.070  28.872  22.046  0.2444  0.1807 -0.1171
26593W        W69505  27.702  28.457  22.974  0.2918 -0.2210  0.2566
26594W        W69506  27.634  26.384  22.920 -0.1507  0.0445  0.0591
26595W        W69507  26.723  29.083  23.581 -0.0748 -0.0273  0.3162
26596W        W69508  26.480  26.254  22.357  0.0979 -0.0472 -0.0025
26597W        W69509  29.483  28.084  21.366  0.3091 -0.0320  0.1428
26598W        W69510  28.404  27.760  23.039 -0.4056  0.3477 -0.4002
26599W        W69511  26.279  27.323  21.750 -0.1161 -0.0402 -0.2183
26600W        W69512  26.914  26.525  22.262  0.2589 -0.0637 -0.2182
26601W        W69513  26.203  28.007  20.551 -0.3818 -0.1347 -0.1896
26602W        W69514  27.858  27.646  24.454 -0.4747 -0.1091  0.0376
26603W        W69515  25.600  27.074  24.080 -0.0559 -0.3621  0.0273
26604W        W69516  26.871  27.815  19.341  0.0169  0.2344  0.2808
26605W        W69517  25.918  27.635  22.569 -0.1172 -0.2726 -0.2040
26606W        W69518  28.891  25.904  20.586 -0.1082  0.1355  0.0930
26607W        W69519  27.842  28.405  20.586  0.3081  0.2340 -0.2231
26608W        W69520  26.366  26.656  20.937 -0.2215  0.2530 -0.3128
26609W        W69521  28.865  25.458  22.747 -0.0095  0.2481 -0.0417
26610W        W69522  29.246  26.153  21.848  0.1683 -0.0296 -0.0202
26611W        W69523  27.587  25.772  21.929 -0.1038 -0.1017 -0.0453
26612W        W69524  25.299  26.621  23.135  0.0750  0.1400 -0.2263
26613W        W69525  28.060  29.254  21.959  0.0517 -0.0253  0.5230
26614W        W69526  25.008  27.664  22.478 -0.1818 -0.4532 -0.4550
26615W        W69527  29.771  29.132  23.418 -0.1659 -0.3602 -0.1987
26616W        W69528  26.217  28.439  24.589  0.2823  0.1239  0.3958
26617W        W69529  27.539  27.445  20.397 -0.2286  0.0529  0.1854
26618W        W69530  26.596  26.110  19.924  0.1788  0.0142  0.0163
26619W        W69531  27.360  28.264  21.756 -0.2137 -0.1067 -0.0966
26620W        W69532  28.187  29.277  22.509  0.0023  0.3293 -0.1588
26621W        W69533  27.817  28.042  20.069  0.0083  0.1614 -0.1148
26622W        W69534  28.680  25.629  22.256  0.0217  0.1855 -0.0263
26623W        W69535  26.784  28.954  22.568  0.3784 -0.1308  0.0928
26624W        W69536  29.482  26.135  22.326  0.0366 -0.0824 -0.1170
26625W        W69537  27.894  26.386  20.863  0.1756 -0.3745  0.2035
26626W        W69538  27.451  29.455  20.781  0.0028 -0.0471  0.1048
26627W        W69539  26.882  26.841  23.557  0.0806  0.0989 -0.0534
26628W        W69540  28.716  27.405  22.274 -0.1408  0.2583 -0.1885
26629W        W69541  27.444  26.663  21.724  0.0472 -0.0506 -0.0275
26630W        W69542  27.507  26.846  23.666  0.2529 -0.0132 -0.1436
26631W        W69543  28.372  25.987  22.583  0.3018 -0.0215  0.0139
26632W        W69544  26.579  27.499  24.782 -0.1240  0.0321 -0.0617
26633W        W69545  26.384  26.110  23.634  0.0170 -0.3594 -0.0288
26634W        W69546  29.022  28.370  23.347 -0.4386 -0.0073  0.2770
26635W        W69547  28.148  26.388  20.100 -0.0067  0.0948 -0.0890
26636W        W69548  28.746  26.392  20.957  0.0711 -0.0205 -0.2316
26637W        W69549  28.773  27.229  20.716 -0.0721  0.2833  0.0317
26638W        W69550  28.055  27.012  20.144  0.2108 -0.1051  0.0136
26639W        W69551  26.328  27.420  22.865 -0.1960  0.0869 -0.0343
26640W        W69552  28.724  26.367  23.320 -0.0836  0.1685 -0.0159
26641W        W69553  26.622  26.227  20.858 -0.1781  0.0965 -0.2312
26642W        W69554  29.317  25.843  24.498 -0.3603 -0.0934  0.0476
26643W        W69555  27.050  28.349  22.202  0.0733 -0.3696  0.1467
26644W        W69556  27.194  29.231  21.630 -0.2807 -0.1820  0.1765
26645W        W69557  27.279  26.739  20.274  0.1711 -0.0713 -0.1730
26646W        W69558  25.921  26.359  22.463 -0.0995 -0.0433  0.1014
26647W        W69559  27.117  28.347  24.065  0.0752 -0.2488  0.0404
26648W        W69560  24.963  27.775  20.946  0.1022  0.2000  0.2261
26649W        W69561  25.174  28.134  20.642  0.3422 -0.1913  0.0200
26650W        W69562  28.716  27.862  22.607  0.0812 -0.3529  0.0722
26651W        W69563  29.365  28.251  23.677  0.3013  0.1058  0.1029
26652W        W69564  27.745  26.078  20.035 -0.1428 -0.0491 -0.3007
26653W        W69565  28.212  25.999  22.142 -0.1617 -0.1840  0.0459
26654W        W69566  25.289  28.452  21.939  0.4734  0.2134 -0.1406
26655W        W69567  28.215  26.405  22.765 -0.1229  0.0623 -0.0093
26656W        W69568  25.683  29.090  20.731  0.0712 -0.1640  0.0263
26657W        W69569  25.975  27.817  23.581 -0.0600  0.1128  0.2801
26658W        W69570  26.578  27.211  20.680 -0.2041  0.1089 -0.0411
26659W        W69571  26.199  25.860  23.276 -0.0368  0.0075  0.1658
26660W        W69572  27.504  26.770  22.310  0.0168  0.2637  0.2753
26661W        W69573  27.904  27.466  21.947  0.0419  0.0487  0.0307
26662W        W69574  29.743  25.665  22.385 -0.3125  0.0385 -0.1257
26663W        W69575  27.594  28.454  23.912 -0.2603  0.3408 -0.1520
26664W        W69576  26.200  28.252  21.523 -0.0318 -0.3910  0.3629
26665W        W69577  26.425  30.598  22.853  0.0908 -0.1737  0.0278
26666W        W69578  28.401  28.539  22.517 -0.0202 -0.2192  0.0821
26667W        W69579  26.688  28.472  21.639 -0.0092  0.4021  0.3240
26668W        W69580  27.555  25.947  24.772 -0.0071  0.2782 -0.1341
26669W        W69581  29.104  26.975  24.040  0.1411  0.2846  0.0618
26670W        W69582  27.484  28.916  23.077 -0.3246 -0.0688  0.0305
26671W        W69583  27.545  26.020  20.528 -0.0721 -0.0682 -0.0942
26672W        W69584  27.899  28.532  19.784  0.3909 -0.0647  0.2083
26673W        W69585  27.382  28.955  24.144  0.0248 -0.3229 -0.3516
26674W        W69586  25.710  28.386  22.739 -0.1221  0.1688 -0.0289
26675W        W69587  25.277  28.993  20.990  0.0494  0.0940 -0.1262
26676W        W69588  26.855  28.383  20.037  0.1128  0.2017 -0.1368
26677W        W69589  29.211  28.434  20.618 -0.1551 -0.0796 -0.2312
26678W        W69590  28.254  29.514  23.084 -0.1770 -0.4578 -0.1370
26679W        W69591  25.698  27.407  20.197  0.2945  0.1069  0.1121
26680W        W69592  26.846  29.379  22.172  0.1939 -0.3754 -0.2509
26681W        W69593  25.322  28.457  21.119 -0.0618 -0.0246 -0.0365
26682W        W69594  28.586  28.304  23.590  0.4432  0.0352  0.0569
26683W        W69595  25.814  28.265  21.117 -0.0107  0.1092 -0.0228
26684W        W69596  28.201  28.217  23.258  0.1625 -0.3039 -0.0325
26685W        W69597  27.280  27.046  18.459  0.2266 -0.0847 -0.1923
26686W        W69598  29.715  26.285  20.589 -0.3088  0.3414 -0.0509
26687W        W69599  28.342  27.393  21.015 -0.3073  0.1876  0.1687
26688W        W69600  28.251  29.763  24.431  0.3009 -0.0844  0.1757
26689W        W69601  26.072  27.289  22.244  0.1710 -0.1015 -0.0652
26690W        W69602  27.336  25.374  19.550 -0.0268  0.1231  0.1038
26691W        W69603  27.069  29.709  23.645  0.1060 -0.0693 -0.0848
26692W        W69604  30.226  25.663  23.541 -0.1692  0.1949 -0.3072
26693W        W69605  25.620  28.433  24.122 -0.1706  0.2218 -0.1160
26694W        W69606  29.860  28.678  19.938  0.1045 -0.2656  0.3212
26695W        W69607  24.671  27.129  20.348 -0.0439 -0.2068 -0.3751
26696W        W69608  27.889  28.383  22.469  0.3100  0.0734  0.1028
26697W        W69609  28.855  23.813  21.216  0.0320 -0.0231  0.2593
26698W        W69610  27.118  27.432  19.629 -0.0363 -0.1136  0.1851
26699W        W69611  26.623  27.495  22.024 -0.2639 -0.0726 -0.2715
26700W        W69612  26.539  29.794  21.990  0.1483  0.1173  0.2016
26701W        W69613  25.167  27.887  21.901  0.0245  0.1417  0.0147
26702W        W69614  26.690  29.998  22.899  0.0502  0.4239 -0.1305
26703W        W69615  24.622  26.650  20.621 -0.0861 -0.1736 -0.0211
26704W        W69616  28.399  27.398  20.081  0.1678 -0.1404  0.3898
26705W        W69617  27.731  26.552  24.406  0.1496 -0.1543  0.0527
26706W        W69618  27.038  25.642  21.851  0.1132  0.0369 -0.0946
26707W        W69619  26.137  26.359  21.767 -0.3133  0.1225 -0.1641
26708W        W69620  27.734  25.638  21.423 -0.0463  0.1118 -0.1275
26709W        W69621  27.522  28.589  22.129  0.3370  0.2665 -0.0543
26710W        W69622  27.135  28.723  21.727  0.1057  0.4703 -0.3562
26711W        W69623  26.932  25.615  19.770 -0.1039  0.2654 -0.3590
26712W        W69624  28.918  29.013  23.071  0.1629  0.1864 -0.1360
26713W        W69625  26.981  26.616  18.915 -0.2025 -0.2232 -0.2029
26714W        W69626  28.581  28.075  24.772  0.1176  0.2050  0.0375
26715W        W69627  26.778  27.578  21.055  0.0261 -0.1513  0.0306
26716W        W69628  26.483  26.806  20.455 -0.0057  0.0763  0.0635
26717W        W69629  26.745  27.901  21.862 -0.2184  0.0487 -0.0381
26718W        W69630  25.640  27.436  23.697 -0.0234 -0.0344  0.4145
26719W        W69631  28.698  27.310  23.295 -0.0368 -0.0333 -0.0460
26720W        W69632  25.122  26.730  20.968 -0.1671 -0.0292 -0.2535
26721W        W69633  29.514  28.787  20.365 -0.1756  0.0975 -0.3109
26722W        W69634  29.800  27.523  22.649 -0.1297 -0.1916 -0.5451
26723W        W69635  26.185  28.546  20.778 -0.1873 -0.0763 -0.2537
26724W        W69636  28.970  27.145  21.833 -0.3219  0.3322 -0.2017
26725W        W69637  27.787  30.696  23.273 -0.0091 -0.3756 -0.1773
26726W        W69638  25.934  27.170  20.853  0.1626 -0.0733  0.2638
26727W        W69639  28.308  28.312  22.082  0.1914 -0.1442 -0.1625
26728W        W69640  28.255  28.526  21.559  0.1877  0.0903  0.1019
26729W        W69641  27.880  24.328  22.079  0.1190  0.0986  0.2809
26730W        W69642  26.490  26.872  23.937 -0.5036  0.1791 -0.0599
26731W        W69643  27.203  28.946  21.164  0.3114 -0.1738  0.2117
26732W        W69644  28.752  26.642  21.432 -0.0381  0.0848  0.0525
26733W        W69645  28.506  26.422  22.367  0.0159  0.0026 -0.0647
26734W        W69646  27.411  29.001  20.631 -0.0399  0.5242 -0.0522
26735W        W69647  28.500  25.871  23.083  0.0734  0.1426 -0.2573
26736W        W69648  27.353  27.633  22.719  0.0384  0.0163  0.2244
26737W        W69649  27.085  28.800  24.941  0.3217 -0.0395 -0.1409
26738W        W69650  27.416  27.706  19.993 -0.2144 -0.2064 -0.1882
26739W        W69651  26.864  27.959  23.331 -0.4148  0.1335 -0.2029
26740W        W69652  27.299  28.885  20.052  0.0384 -0.2907 -0.2256
26741W        W69653  27.675  28.975  21.794  0.1625 -0.1601 -0.2995
26742W        W69654  28.140  28.016  21.704 -0.1259 -0.2354  0.1230
26743W        W69655  27.290  28.187  23.131 -0.0030  0.1013 -0.1318
26744W        W69656  29.028  27.845  21.514 -0.2301 -0.0849 -0.1185
26745W        W69657  28.574  26.065  21.395  0.4334  0.0092 -0.2990
26746W        W69658  27.888  25.750  20.923  0.0695 -0.0865 -0.0826
26747W        W69659  27.793  25.601  20.348 -0.1782 -0.0583 -0.1118
26748W        W69660  27.209  27.286  23.132 -0.0464  0.0777  0.1245
26749W        W69661  24.274  28.402  20.673 -0.1365 -0.2707 -0.1143
26750W        W69662  25.192  28.618  20.007 -0.3234  0.2017 -0.2936
26751W        W69663  24.918  27.221  20.784 -0.1208  0.3310  0.0391
26752W        W69664  27.430  25.941  22.659  0.2905  0.0533  0.2687
26753W        W69665  26.391  27.984  23.964  0.0113  0.1029  0.2534
26754W        W69666  25.783  28.144  22.184 -0.0611 -0.0655  0.0625
26755W        W69667  25.987  27.023  19.965 -0.3657  0.0582 -0.0947
26756W        W69668  28.589  26.762  21.871 -0.2458  0.0896  0.1399
26757W        W69669  25.691  26.408  21.991  0.1180  0.1576 -0.2888
26758W        W69670  25.966  26.959  21.402  0.0095  0.0172 -0.1107
26759W        W69671  28.761  28.675  20.845 -0.1010 -0.0006 -0.0767
26760W        W69672  29.281  29.150  20.751  0.3388 -0.1613 -0.1222
26761W        W69673  28.569  26.931  21.040  0.1046  0.2995 -0.0363
26762W        W69674  29.701  28.642  23.646  0.2773 -0.0064  0.0712
26763W        W69675  24.376  28.183  18.865  0.1276 -0.0619 -0.0053
26764W        W69676  26.815  27.591  22.932 -0.1046 -0.1212 -0.3651
26765W        W69677  27.426  25.918  23.229  0.0847  0.2053 -0.1846
26766W        W69678  24.880  26.502  20.114  0.1141 -0.0878  0.0995
26767W        W69679  26.610  26.503  23.302  0.2268  0.4402  0.0835
26768W        W69680  27.881  28.285  21.142  0.1038  0.0527 -0.0129
26769W        W69681  27.978  30.116  19.824  0.0246 -0.0409 -0.0291
26770W        W69682  26.469  28.688  23.497  0.0399  0.1644 -0.0950
26771W        W69683  26.798  30.482  23.208 -0.1332  0.2017  0.0585
26772W        W69684  25.174  26.063  22.262  0.2686  0.0374 -0.0704
26773W        W69685  28.513  25.689  21.783  0.4385  0.2705 -0.0863
26774W        W69686  27.027  29.088  23.063  0.0946  0.2306  0.0707
26775W        W69687  29.002  28.290  21.288  0.0753 -0.1090 -0.0924
26776W        W69688  28.789  25.451  20.740  0.1760  0.0095 -0.0575
26777W        W69689  29.155  26.897  21.157  0.5040  0.0098  0.1809
26778W        W69690  25.686  25.573  23.504 -0.0735  0.0434 -0.0074
26779W        W69691  25.311  29.630  23.340 -0.2993  0.0657  0.1100
26780W        W69692  28.813  26.834  22.503  0.1154  0.2099  0.1768
26781W        W69693  27.361  25.658  21.056  0.1405 -0.1890 -0.1378
26782W        W69694  27.249  26.679  21.248  0.2480 -0.0051  0.0943
26783W        W69695  27.647  27.914  20.924 -0.1681  0.2028  0.1690
26784W        W69696  26.881  26.962  23.026  0.1859 -0.1444  0.2513
26785W        W69697  27.003  25.856  20.698  0.0510  0.0093  0.3443
26786W        W69698  27.243  28.054  23.648 -0.3711 -0.2341 -0.0060
26787W        W69699  28.848  27.896  23.177  0.2781  0.7787 -0.0532
26788W        W69700  28.267  27.236  23.075 -0.1819  0.0155  0.0330
26789W        W69701  26.961  26.380  20.507 -0.1503  0.0864 -0.0844
26790W        W69702  28.158  27.957  20.941 -0.0310  0.4465  0.1636
26791W        W69703  25.792  29.696  22.261 -0.1807 -0.2163 -0.2130
26792W        W69704  27.336  27.236  24.234  0.1651 -0.1548 -0.0607
26793W        W69705  29.480  30.425  23.705  0.2281  0.0743  0.0926
26794W        W69706  28.281  27.804  22.175  0.2568  0.0910 -0.0620
26795W        W69707  25.530  25.525  21.608  0.2600 -0.0035  0.0831
26796W        W69708  26.708  28.000  20.818  0.1378  0.1596 -0.0750
26797W        W69709  28.374  28.912  21.067  0.0790  0.0502 -0.5384
26798W        W69710  27.470  27.441  22.199  0.2481  0.6499 -0.0283
26799W        W69711  26.890  26.996  22.521  0.1355 -0.1207 -0.0122
26800W        W69712  27.542  25.877  19.574  0.0122  0.1366 -0.1421
26801W        W69713  26.152  30.185  22.901 -0.2546 -0.0981 -0.3001
26802W        W69714  28.182  27.711  24.851  0.0961 -0.0658 -0.1184
26803W        W69715  26.916  27.750  27.138  0.2657  0.3630 -0.0764
26804W        W69716  27.279  27.126  25.762 -0.0584 -0.0073 -0.1669
26805W        W69717  28.719  26.984  23.605 -0.0356  0.1141  0.0637
26806W        W69718  30.721  27.451  23.993 -0.0802  0.4052 -0.2357
26807W        W69719  26.762  26.425  24.303 -0.3584 -0.0170  0.1988
26808W        W69720  27.606  29.548  24.675  0.1493 -0.0678  0.2905
26809W        W69721  25.745  25.120  26.801 -0.2856  0.1822 -0.0208
26810W        W69722  27.997  27.284  26.441  0.1732  0.1560  0.1033
26811W        W69723  30.191  27.388  25.753 -0.0647  0.2124  0.1145
26812W        W69724  28.296  27.269  24.629  0.1436 -0.3326 -0.0968
26813W        W69725  27.835  26.502  27.027 -0.0109 -0.0974  0.1241
26814W        W69726  27.045  29.299  25.003  0.0692 -0.0156  0.0981
26815W        W69727  28.426  26.267  24.818 -0.3178 -0.1075 -0.0607
26816W        W69728  25.316  26.774  26.730  0.2672  0.1777 -0.2678
26817W        W69729  28.197  28.433  25.544 -0.2401  0.0465  0.0979
26818W        W69730  26.443  26.048  25.139 -0.2479 -0.1793 -0.2151
26819W        W69731  26.371  26.750  26.803  0.0048  0.0514 -0.0970
26820W        W69732  28.037  26.041  24.515  0.1556  0.0770 -0.1845
26821W        W69733  26.733  29.091  25.313 -0.3001  0.1269  0.2288
26822W        W69734  28.390  24.844  26.927 -0.0264  0.2034 -0.0288
26823W        W69735  28.870  26.086  27.820 -0.2340  0.1996 -0.3272
26824W        W69736  26.893  28.003  24.632  0.2422 -0.1220  0.0436
26825W        W69737  26.594  28.275  24.263 -0.0446  0.0545 -0.0056
26826W        W69738  26.217  26.866  26.241 -0.1310 -0.4696 -0.1595
26827W        W69739  27.884  27.921  27.220 -0.4008 -0.3705  0.1320
26828W        W69740  30.051  26.439  25.501  0.0022 -0.0075  0.0371
26829W        W69741  27.763  28.242  25.147 -0.0044  0.1030 -0.0826
26830W        W69742  27.406  28.517  26.351  0.0478  0.0054  0.2177
26831W        W69743  26.980  28.482  26.966 -0.1087  0.2373 -0.1900
26832W        W69744  28.608  27.486  27.691  0.1209  0.1891  0.0673
26833W        W69745  24.615  28.445  25.241 -0.0425  0.0133  0.2289
26834W        W69746  26.484  28.962  24.352  0.3373  0.1319  0.0161
26835W        W69747  27.137  28.623  25.778 -0.1447 -0.1041 -0.1525
26836W        W69748  30.706  28.039  24.023 -0.0962  0.4680 -0.0111
26837W        W69749  29.501  28.049  25.795 -0.1663 -0.1420  0.0027
26838W        W69750  28.150  29.580  26.381 -0.0193 -0.1077 -0.2626
26839W        W69751  25.898  28.370  23.564 -0.0564  0.0123 -0.0932
26840W        W69752  27.724  29.650  26.843  0.2381 -0.2028 -0.0190
26841W        W69753  27.025  28.790  27.997  0.3204 -0.0934 -0.1957
26842W        W69754  27.730  26.767  26.045 -0.0289 -0.1044 -0.2494
26843W        W69755  28.650  28.900  27.214 -0.5290  0.3423 -0.0063
26844W        W69756  27.226  29.007  25.459  0.2013  0.2957  0.3789
26845W        W69757  27.562  27.596  25.740  0.3019  0.0930  0.0875
26846W        W69758  25.930  30.025  28.410 -0.0370 -0.3340  0.4143
26847W        W69759  24.795  28.025  26.234  0.0575  0.2621 -0.1413
26848W        W69760  28.513  27.014  27.485 -0.1678  0.0112  0.1211
26849W        W69761  26.397  29.524  24.648 -0.1092  0.1131 -0.2280
26850W        W69762  29.103  26.986  23.089  0.2825  0.1905  0.0590
26851W        W69763  26.594  25.101  23.718 -0.2181 -0.2893  0.0011
26852W        W69764  29.184  26.496  23.192 -0.0443  0.1646 -0.0910
26853W        W69765  27.072  26.703  25.691 -0.3540 -0.1423 -0.2930
26854W        W69766  26.465  28.770  26.315  0.0799  0.2846  0.1859
26855W        W69767  27.956  26.788  26.506 -0.1085 -0.0509 -0.0208
26856W        W69768  27.922  29.534  27.523  0.3164  0.1131 -0.1358
26857W        W69769  28.002  27.914  25.604 -0.3331  0.2989  0.3307
26858W        W69770  29.095  25.414  26.648  0.1758  0.1051  0.4528
26859W        W69771  26.364  28.274  25.447  0.2767 -0.0158  0.2764
26860W        W69772  25.693  25.534  27.092 -0.1318  0.0869  0.1966
26861W        W69773  28.440  29.514  25.413  0.2566  0.1409  0.1042
26862W        W69774  29.480  30.056  24.182 -0.2559  0.1811  0.2679
26863W        W69775  27.800  29.029  23.792 -0.2268  0.3457  0.1050
26864W        W69776  27.180  27.724  26.073  0.1833  0.2319 -0.1859
26865W        W69777  25.499  27.309  27.585 -0.0488 -0.0161  0.0628
26866W        W69778  26.440  28.165  27.690 -0.0886  0.1518 -0.1496
26867W        W69779  25.958  27.064  23.732 -0.0199  0.1586  0.1010
26868W        W69780  30.027  27.781  27.771 -0.2105 -0.3158 -0.0455
26869W        W69781  26.396  29.161  26.617  0.1927 -0.3333  0.0723
26870W        W69782  30.487  27.160  25.157 -0.0955  0.2819  0.2359
26871W        W69783  26.883  28.497  26.360 -0.2316  0.1599  0.1065
26872W        W69784  28.721  29.933  27.936  0.1420  0.0797  0.5852
26873W        W69785  28.350  28.484  24.289  0.1262 -0.1134  0.0174
26874W        W69786  27.458  25.749  25.267  0.1056 -0.0840  0.0311
26875W        W69787  28.073  25.348  26.303 -0.1535  0.1459 -0.0495
26876W        W69788  26.113  27.220  24.675 -0.1568  0.1141  0.3046
26877W        W69789  27.794  27.573  25.215 -0.2371 -0.0288  0.0667
26878W        W69790  29.097  28.852  26.969 -0.1031 -0.2421  0.0094
26879W        W69791  29.163  27.483  23.172  0.2171  0.0137  0.2036
26880W        W69792  25.713  28.534  24.678  0.3289  0.2828 -0.0760
26881W        W69793  26.992  27.320  27.644  0.0792 -0.3029 -0.2808
26882W        W69794  28.291  28.680  26.985  0.1735  0.1527 -0.0674
26883W        W69795  26.329  29.024  23.874  0.0398  0.0651 -0.1558
26884W        W69796  26.737  28.185  27.256  0.4455  0.0507  0.1974
26885W        W69797  26.288  28.454  23.905  0.1590 -0.1329  0.1925
26886W        W69798  25.407  26.384  27.148 -0.1540 -0.1860  0.1110
26887W        W69799  26.774  25.629  24.834 -0.1618 -0.1095 -0.1439
26888W        W69800  29.630  26.439  23.475 -0.2274  0.1003  0.1398
26889W        W69801  27.016  25.643  27.826  0.0328  0.1613  0.0755
26890W        W69802  28.863  26.279  25.161 -0.5324 -0.0511  0.3502
26891W        W69803  25.196  27.336  24.738  0.0255 -0.2737  0.4257
26892W        W69804  28.822  29.114  25.345  0.0064 -0.1702  0.0138
26893W        W69805  29.614  27.098  25.164  0.1957  0.2216  0.2058
26894W        W69806  28.300  27.924  24.337  0.0677 -0.2451  0.0041
26895W        W69807  24.116  25.050  27.400 -0.0237 -0.0559 -0.0027
26896W        W69808  26.528  26.380  26.274 -0.0070  0.1060  0.0922
26897W        W69809  27.069  25.336  27.368  0.0461 -0.0594 -0.2560
26898W        W69810  27.264  26.218  25.505 -0.3883  0.0228 -0.0122
26899W        W69811  27.253  28.142  27.330 -0.2439 -0.3058 -0.0793
26900W        W69812  23.927  25.114  24.274  0.1186  0.4036 -0.0626
26901W        W69813  29.329  26.138  24.962 -0.0384 -0.0569 -0.0019
26902W        W69814  26.909  27.658  25.142 -0.1988  0.1752  0.2982
26903W        W69815  25.883  28.025  24.728 -0.1579  0.0577  0.1472
26904W        W69816  28.285  25.814  26.386 -0.0526 -0.4270 -0.0103
26905W        W69817  27.937  29.891  24.837 -0.0267  0.0223  0.4423
26906W        W69818  27.661  30.538  26.661  0.1108 -0.0851  0.1030
26907W        W69819  29.407  28.803  24.517 -0.1813 -0.0148  0.0953
26908W        W69820  25.928  26.408  26.742 -0.0232  0.0583 -0.0813
26909W        W69821  25.993  26.845  24.333 -0.3558  0.0106  0.1788
26910W        W69822  27.831  28.843  27.049 -0.0038 -0.0794  0.0523
26911W        W69823  29.089  28.578  26.586 -0.0375  0.0785  0.1770
26912W        W69824  28.460  25.902  23.999 -0.2194 -0.2340  0.5071
26913W        W69825  29.447  29.643  26.030  0.0084 -0.0746  0.3664
26914W        W69826  26.255  28.276  26.267 -0.4172  0.0034  0.2438
26915W        W69827  25.528  28.414  26.763  0.2872  0.0719  0.0391
26916W        W69828  28.304  25.654  27.348 -0.0873  0.0687 -0.1989
26917W        W69829  29.551  28.201  28.580  0.1863  0.1519 -0.1060
26918W        W69830  26.891  27.110  25.408 -0.2083 -0.1156 -0.2906
26919W        W69831  24.539  26.331  24.889  0.0214  0.0304  0.2068
26920W        W69832  28.100  28.963  25.727 -0.0073 -0.5374 -0.1797
26921W        W69833  25.877  28.865  23.545 -0.3959 -0.0288 -0.0468
26922W        W69834  26.723  27.011  25.904 -0.2081  0.0973  0.0586
26923W        W69835  29.059  29.458  25.702  0.1954 -0.0413 -0.0013
26924W        W69836  29.146  26.748  24.858  0.0026  0.2459  0.0654
26925W        W69837  24.989  27.817  27.608 -0.3744 -0.1758 -0.3596
26926W        W69838  28.210  27.294  27.255 -0.1253  0.3810 -0.0182
26927W        W69839  26.517  27.168  23.378 -0.3638 -0.0216 -0.0573
26928W        W69840  25.972  28.669  28.464 -0.0043 -0.1479  0.3294
26929W        W69841  28.718  26.720  24.630  0.2172  0.2458 -0.0076
26930W        W69842  30.978  26.534  24.024 -0.1930  0.3184  0.0422
26931W        W69843  27.050  27.673  26.557  0.0650 -0.1185  0.0407
26932W        W69844  27.365  27.371  25.279  0.0687 -0.0768 -0.0885
26933W        W69845  28.287  27.109  22.107 -0.1736  0.3134 -0.3561
26934W        W69846  28.190  27.391  24.172  0.0023  0.0743 -0.1810
26935W        W69847  26.235  29.113  27.579  0.0738 -0.1512  0.1114
26936W        W69848  28.264  29.016  25.266  0.1174  0.0192  0.0897
26937W        W69849  27.687  26.478  27.538  0.0908  0.1446 -0.1950
26938W        W69850  27.857  27.006  24.507  0.3891 -0.1899 -0.1513
26939W        W69851  29.430  27.950  23.183 -0.3060  0.2591 -0.4623
26940W        W69852  26.700  27.975  26.249  0.3382 -0.0826 -0.0269
26941W        W69853  27.557  28.904  28.062 -0.3812  0.1664 -0.0654
26942W        W69854  28.646  28.896  26.699 -0.4970 -0.1061  0.2177
26943W        W69855  27.447  26.198  26.339 -0.1755 -0.0461 -0.0760
26944W        W69856  26.207  27.724  24.468  0.2142 -0.0050 -0.2361
26945W        W69857  29.478  25.657  21.936 -0.0738 -0.1728 -0.1162
26946W        W69858  25.518  30.854  22.957 -0.0116  0.1816 -0.0334
26947W        W69859  29.102  26.317  26.227  0.0774 -0.3272  0.1954
26948W        W69860  29.014  25.774  25.051 -0.2295  0.0324 -0.0137
26949W        W69861  28.280  26.104  27.157 -0.0536 -0.0254  0.0100
26950W        W69862  28.845  28.962  28.112  0.0041 -0.2489  0.1212
26951W        W69863  30.456  26.071  24.470 -0.1986  0.0956 -0.3222
26952W        W69864  27.926  26.313  26.317  0.1501  0.3195  0.1992
26953W        W69865  26.594  25.686  24.354  0.0290  0.1049 -0.0244
26954W        W69866  27.754  24.514  26.623 -0.0481 -0.0386  0.2840
26955W        W69867  25.593  27.694  26.690 -0.0285  0.0099  0.0034
26956W        W69868  26.398  29.730  26.506  0.0536  0.1575 -0.0073
26957W        W69869  29.425  28.117  27.954  0.0902  0.1387 -0.2058
26958W        W69870  29.002  28.444  24.455  0.2063 -0.0537 -0.3487
26959W        W69871  27.121  26.987  26.823 -0.0806 -0.3415 -0.0420
26960W        W69872  27.920  25.116  24.483 -0.1140 -0.1782  0.0360
26961W        W69873  27.527  29.218  25.140 -0.5686 -0.2344  0.0648
26962W        W69874  27.369  27.978  24.303 -0.3632  0.3014 -0.1287
26963W        W69875  27.439  25.064  27.276 -0.2183 -0.1364  0.1752
26964W        W69876  28.014  28.282  26.081  0.1669  0.1326 -0.2333
26965W        W69877  26.907  27.898  24.131 -0.3801 -0.1561 -0.0029
26966W        W69878  28.179  28.913  27.463  0.0492  0.0454 -0.2927
26967W        W69879  26.896  27.950  25.705 -0.0605 -0.3231 -0.0950
26968W        W69880  29.182  25.357  24.283  0.1224  0.1298  0.3170
26969W        W69881  24.889  28.886  25.107 -0.0147  0.4649  0.1997
26970W        W69882  27.152  26.550  23.976  0.1557  0.0028 -0.0991
26971W        W69883  25.721  26.272  25.749 -0.3965 -0.2608 -0.1372
26972W        W69884  29.843  26.723  24.716  0.3486  0.2903  0.0436
26973W        W69885  29.312  27.605  24.848  0.0086  0.2844  0.2271
26974W        W69886  27.513  26.580  26.643 -0.1915  0.1726 -0.5111
26975W        W69887  27.832  25.782  26.307  0.0479  0.0811  0.1455
26976W        W69888  25.857  28.878  26.237  0.0665  0.0421  0.0530
26977W        W69889  28.560  28.084  27.930 -0.3669  0.0462  0.4659
26978W        W69890  29.557  25.203  22.546  0.3354  0.2501 -0.2223
26979W        W69891  27.684  28.791  27.610  0.1551 -0.3104 -0.0159
26980W        W69892  27.317  27.680  27.498  0.0230 -0.1898  0.0306
26981W        W69893  25.541  25.779  24.924 -0.2325  0.1480 -0.0508
26982W        W69894  28.214  26.687  26.072  0.2516 -0.1089 -0.3436
26983W        W69895  25.973  26.702  24.871  0.1206 -0.0091  0.3229
26984W        W69896  26.728  27.487  25.717 -0.0111 -0.1152 -0.1022
26985W        W69897  27.578  29.251  27.231  0.0358 -0.4000 -0.1800
26986W        W69898  26.923  27.093  24.853  0.3045 -0.1008 -0.0745
26987W        W69899  27.645  29.600  26.289  0.3547  0.0100 -0.2291
26988W        W69900  26.671  26.956  27.194  0.2073  0.2247 -0.1347
26989W        W69901  28.396  27.760  27.223  0.2483 -0.1986  0.1152
26990W        W69902  27.994  26.836  23.998  0.3376  0.1874 -0.1744
26991W        W69903  27.135  26.629  25.199  0.1649 -0.2109  0.4741
26992W        W69904  28.104  27.674  26.055  0.1666  0.1851  0.1150
26993W        W69905  28.317  27.103  26.811 -0.1034  0.0758 -0.1218
26994W        W69906  27.497  26.908  27.183 -0.1470  0.1086 -0.3026
26995W        W69907  26.854  27.833  27.680  0.1043  0.1396  0.4078
26996W        W69908  28.213  26.017  25.942  0.0935 -0.3329  0.1396
26997W        W69909  30.249  30.503  25.894 -0.1123 -0.1321 -0.2253
26998W        W69910  27.656  28.049  27.658  0.1448 -0.2684  0.1101
26999W        W69911  27.290  27.610  23.904 -0.1541  0.1823 -0.3585
27000W        W69912  26.213  27.252  25.899  0.0353  0.2365 -0.0446
27001W        W69913  26.779  28.139  25.198 -0.0742  0.1009 -0.0505
27002W        W69914  27.957  25.786  26.839  0.1607 -0.0047 -0.0252
27003W        W69915  26.596  28.215  26.673  0.0913  0.4216  0.0585
27004W        W69916  26.755  28.477  24.714  0.2068  0.0599 -0.2062
27005W        W69917  26.958  28.999  26.421  0.1617 -0.2653  0.1331
27006W        W69918  29.654  25.237  24.388 -0.0368 -0.2613 -0.0645
27007W        W69919  28.221  29.220  24.455  0.1926 -0.4404 -0.1909
27008W        W69920  27.951  26.742  25.307 -0.1317 -0.0867 -0.0859
27009W        W69921  27.685  24.288  27.820 -0.0114  0.1583 -0.1173
27010W        W69922  28.775  27.231  24.424 -0.1114  0.2367  0.2913
27011W        W69923  28.531  25.632  28.060 -0.1621  0.1415  0.1698
27012W        W69924  28.215  26.386  26.672  0.0529 -0.2904 -0.1062
27013W        W69925  28.639  27.539  25.895 -0.1442  0.1139 -0.1877
27014W        W69926  25.743  25.508  27.620  0.1628  0.2493 -0.1919
27015W        W69927  28.327  29.774  28.470 -0.1358 -0.2757 -0.0896
27016W        W69928  27.165  28.158  26.670  0.3374 -0.1917 -0.0702
27017W        W69929  29.191  26.195  23.604 -0.0734  0.0714 -0.3875
27018W        W69930  27.244  26.267  23.597 -0.0271  0.3334  0.0065
27019W        W69931  27.377  27.200  24.758  0.2057  0.3491  0.1227
27020W        W69932  28.056  28.722  24.679 -0.0450  0.2322 -0.0337
27021W        W69933  27.692  27.723  26.536 -0.1887  0.2515 -0.1920
27022W        W69934  28.289  26.907  25.559 -0.0167 -0.0521 -0.0008
27023W        W69935  27.151  28.205  26.044  0.2577  0.2293 -0.0857
27024W        W69936  28.510  26.738  26.464 -0.0930 -0.0597 -0.1056
27025W        W69937  28.125  29.522  24.015  0.0714 -0.1081 -0.4414
27026W        W69938  27.629  27.981  26.083  0.1931 -0.2476 -0.2663
27027W        W69939  26.413  26.181  27.518  0.1428 -0.3368 -0.3072
27028W        W69940  27.966  26.510  24.844 -0.1273 -0.0548 -0.1505
27029W        W69941  30.011  26.164  24.034 -0.1606  0.1782 -0.4840
27030W        W69942  28.646  26.367  26.866 -0.2172  0.1696 -0.1178
27031W        W69943  28.408  26.684  25.109  0.1108 -0.2143 -0.0811
27032W        W69944  27.792  24.839  26.971 -0.0957  0.0075  0.0886
27033W        W69945  25.802  26.310  28.120 -0.1445 -0.1805  0.4387
27034W        W69946  27.202  29.728  24.895 -0.1365  0.0680  0.0888
27035W        W69947  29.017  26.359  22.351 -0.1702 -0.0075  0.2316
27036W        W69948  28.814  27.330  27.168  0.1081  0.0584 -0.0790
27037W        W69949  29.301  27.299  24.431  0.3039 -0.3051  0.0444
27038W        W69950  28.776  28.564  24.011 -0.2394 -0.0108 -0.0322
27039W        W69951  26.295  26.206  25.618  0.1479  0.0509 -0.1957
27040W        W69952  28.963  28.402  27.881 -0.0139  0.3532 -0.1826
27041W        W69953  25.330  26.154  25.331 -0.2529  0.3051 -0.0114
27042W        W69954  27.447  25.894  26.747 -0.0179 -0.0377 -0.0228
27043W        W69955  27.587  28.663  24.846  0.2649 -0.0145 -0.2430
27044W        W69956  28.082  28.027  26.665 -0.1404  0.1634 -0.1553
27045W        W69957  29.505  26.559  25.171 -0.0305 -0.1113 -0.2648
27046W        W69958  25.921  26.900  26.969  0.0279  0.2046  0.1095
27047W        W69959  25.856  29.373  27.813 -0.1279  0.0343 -0.2956
27048W        W69960  25.991  25.180  24.396  0.1428 -0.0127  0.0849
27049W        W69961  27.504  28.476  24.376  0.0322  0.0074 -0.0596
27050W        W69962  27.730  28.355  26.864 -0.2434  0.2515  0.0190
27051W        W69963  29.389  28.939  27.999 -0.2491  0.1658 -0.0342
27052W        W69964  30.480  26.335  22.213 -0.1169  0.1088  0.1132
27053W        W69965  27.735  27.436  27.222 -0.0389 -0.1475 -0.1621
27054W        W69966  25.700  27.599  24.557  0.0592 -0.0788 -0.0211
27055W        W69967  26.985  25.957  24.052  0.1597 -0.1098 -0.1806
27056W        W69968  25.931  29.880  26.228 -0.0838  0.1391 -0.0743
27057W        W69969  24.080  28.772  26.085 -0.3579  0.1203 -0.0875
27058W        W69970  28.776  29.005  25.934  0.0750 -0.1954  0.3137
27059W        W69971  27.678  25.514  27.124  0.0544 -0.1649  0.2380
27060W        W69972  28.087  27.157  25.074 -0.0284 -0.0025  0.0118
27061W        W69973  26.630  28.405  25.863  0.0410  0.0535  0.1582
27062W        W69974  29.273  28.083  26.733  0.1247  0.2930  0.2941
27063W        W69975  27.350  28.479  27.740 -0.1111 -0.2032 -0.1467
27064W        W69976  26.368  27.863  25.804  0.0921  0.3690 -0.4460
27065W        W69977  28.198  29.930  27.483 -0.0805 -0.1318  0.0240
27066W        W69978  30.961  27.763  25.700  0.1020  0.4677  0.0565
27067W        W69979  28.286  27.505  25.442  0.0056  0.1211 -0.0146
27068W        W69980  25.351  25.902  25.871  0.1685 -0.1606 -0.0649
27069W        W69981  27.336  26.268  27.043  0.0179 -0.0336 -0.1568
27070W        W69982  29.099  27.833  26.106  0.1263  0.6279 -0.3138
27071W        W69983  26.641  27.360  24.274  0.1546  0.3310 -0.0505
27072W        W69984  27.219  30.181  25.254 -0.0840 -0.0280 -0.1512
27073W        W69985  25.160  28.781  27.309  0.2991  0.0568 -0.3695
27074W        W69986  25.994  28.218  25.812  0.3451 -0.0934  0.0159
27075W        W69987  27.283  29.729  25.933 -0.2010  0.0019  0.0670
27076W        W69988  28.710  27.612  24.733  0.0635 -0.3163  0.0723
27077W        W69989  27.686  28.347  25.689  0.2987  0.1914 -0.2164
27078W        W69990  27.431  30.110  26.184 -0.0235  0.0422 -0.2249
27079W        W69991  27.763  27.294  23.802 -0.2298  0.1636  0.2882
27080W        W69992  27.632  28.830  25.860 -0.0152  0.0208 -0.1717
27081W        W69993  25.788  29.607  23.259 -0.1744  0.1693  0.0775
27082W        W69994  28.529  30.251  25.510  0.1140  0.1092 -0.1145
27083W        W69995  27.454  27.856  25.302  0.0394  0.0539  0.1408
27084W        W69996  28.491  29.338  28.203  0.1582  0.0831 -0.0921
27085W        W69997  30.642  24.228  23.635  0.0047 -0.0658 -0.0281
27086W        W69998  28.708  27.096  25.042  0.0516 -0.3469 -0.0685
27087W        W69999  30.060  26.354  23.116  0.0433  0.0369 -0.0751
27088W        W70000  27.172  29.519  27.012 -0.1318 -0.1538  0.2087
27089W        W70001  28.262  25.479  25.176  0.0697 -0.1414  0.1125
27090W        W70002  27.062  24.668  23.714 -0.0203  0.1351 -0.0725
27091W        W70003  28.275  26.703  27.170 -0.2685  0.0849 -0.0158
27092W        W70004  27.465  24.759  27.733 -0.0252  0.1215 -0.2238
27093W        W70005  25.042  27.948  28.314  0.0696  0.3661  0.2096
27094W        W70006  28.857  29.916  25.507  0.0965  0.1165 -0.1539
27095W        W70007  28.131  25.516  25.831 -0.1306  0.0940 -0.0709
27096W        W70008  27.040  27.194  26.257 -0.0114  0.6750 -0.2999
27097W        W70009  29.366  25.337  27.051  0.0507  0.0724  0.2035
27098W        W70010  26.466  27.741  25.307 -0.3353 -0.2194 -0.2456
27099W        W70011  29.745  25.737  24.856  0.1665  0.1466 -0.4146
27100W        W70012  27.001  28.802  24.392  0.2183  0.2395  0.1365
27101W        W70013  27.551  27.309  26.715  0.5431 -0.0565  0.2431
27102W        W70014  27.330  29.743  28.140  0.1261  0.1123  0.0700
27103W        W70015  26.453  25.049  24.526  0.1658  0.2363 -0.0895
27104W        W70016  30.878  24.903  24.140  0.3138 -0.0062  0.0716
27105W        W70017  26.792  27.332  26.804 -0.0947  0.0334  0.0247
27106W        W70018  29.012  24.871  26.975  0.0046 -0.3583  0.3407
27107W        W70019  26.788  26.569  24.821  0.4190  0.0309 -0.0373
27108W        W70020  28.862  28.148  26.433 -0.0958  0.0575  0.1023
27109W        W70021  28.287  28.234  27.119  0.1462  0.0573 -0.5001
27110W        W70022  25.663  27.844  27.672 -0.0514  0.1146  0.1562
27111W        W70023  27.500  27.687  24.793  0.2412 -0.1025  0.2529
27112W        W70024  30.170  28.465  27.143 -0.1513 -0.0988 -0.1913
27113W        W70025  28.020  27.630  23.428 -0.1214  0.1032 -0.1754
27114W        W70026  27.547  29.368  27.841 -0.3418 -0.2174 -0.3322
27115W        W70027  26.264  26.789  25.721 -0.1087 -0.1166 -0.1204
27116W        W70028  27.693  26.338  23.840 -0.2763 -0.0060  0.0292
27117W        W70029  26.155  27.371  25.477  0.2087 -0.0721 -0.0144
27118W        W70030  29.233  25.389  25.305  0.1666 -0.0649  0.6144
27119W        W70031  27.858  29.789  27.983 -0.2112  0.0707 -0.2350
27120W        W70032  26.672  26.914  26.460 -0.2224 -0.0568  0.1145
27121W        W70033  27.737  27.816  23.981  0.0101 -0.2106  0.1279
27122W        W70034  28.639  26.238  26.360  0.0398 -0.0126 -0.0074
27123W        W70035  26.045  28.912  24.703  0.1713 -0.1743 -0.1652
27124W        W70036  29.056  27.960  24.593 -0.1228  0.0685 -0.1086
27125W        W70037  28.369  29.898  25.915 -0.1957 -0.2300 -0.3202
27126W        W70038  25.668  25.965  26.765  0.1784  0.4201  0.3313
27127W        W70039  25.930  27.815  26.170 -0.1192  0.0003  0.5584
27128W        W70040  29.364  28.297  26.232 -0.0258  0.0361 -0.1565
27129W        W70041  27.302  25.414  24.734 -0.1724 -0.2939  0.0866
27130W        W70042  26.218  28.759  25.913 -0.1618  0.1968 -0.0397
27131W        W70043  26.861  28.604  25.345  0.0743 -0.0237 -0.1197
27132W        W70044  29.197  27.053  25.607  0.1416 -0.1947  0.0410
27133W        W70045  29.081  26.131  26.695 -0.0844 -0.2406  0.0237
27134W        W70046  26.461  29.569  23.621 -0.0517  0.0555 -0.3920
27135W        W70047  27.194  24.493  28.033  0.0408 -0.1304  0.2077
27136W        W70048  27.199  27.307  27.174 -0.1445  0.0678 -0.0130
27137W        W70049  26.229  29.054  27.081  0.1107  0.0505 -0.0903
27138W        W70050  26.656  25.899  25.708 -0.0055 -0.0253 -0.3645
27139W        W70051  27.541  27.284  26.173  0.2076 -0.0839 -0.1256
27140W        W70052  28.747  28.675  25.602 -0.2666 -0.4009 -0.0129
27141W        W70053  27.865  28.775  26.508  0.1373  0.0973 -0.0678
27142W        W70054  29.163  28.406  25.595  0.2017  0.4303 -0.3088
27143W        W70055  29.227  26.008  25.869  0.1054  0.2142 -0.2413
27144W        W70056  29.740  28.129  24.049 -0.0142  0.1027 -0.1983
27145W        W70057  28.061  25.893  24.951  0.0549  0.1438  0.2208
27146W        W70058  29.633  27.141  26.022 -0.2200 -0.1713 -0.3515
27147W        W70059  30.912  25.917  24.064  0.1913  0.2168 -0.0629
27148W        W70060  24.750  28.408  27.531  0.0390 -0.2589  0.0007
27149W        W70061  26.099  26.495  23.921 -0.3953 -0.4301 -0.0691
27150W        W70062  26.732  28.221  23.755 -0.0487  0.1900 -0.2245
27151W        W70063  27.331  26.422  24.770  0.0592  0.0090  0.2645
27152W        W70064  26.351  26.153  26.804 -0.2349 -0.1297  0.0820
27153W        W70065  27.357  27.752  26.981  0.0467 -0.2176 -0.3353
27154W        W70066  25.162  26.373  25.844 -0.1408  0.2761 -0.0056
27155W        W70067  26.969  26.107  25.021  0.2461  0.1026  0.1381
27156W        W70068  28.793  28.205  25.286 -0.2805  0.1761  0.1521
27157W        W70069  27.031  26.256  26.015 -0.1397 -0.3170 -0.0393
27158W        W70070  26.957  25.643  25.339 -0.3853 -0.0527  0.3221
27159W        W70071  27.923  29.170  24.838 -0.2479  0.1127  0.2677
27160W        W70072  28.316  27.964  25.262 -0.1891  0.2567  0.2765
27161W        W70073  27.195  26.712  26.181  0.0510 -0.0776 -0.2731
27162W        W70074  29.829  28.924  28.427 -0.1765  0.1190  0.2014
27163W        W70075  26.378  27.694  23.304  0.1855  0.1861 -0.2404
27164W        W70076  28.028  28.517  27.835 -0.2761  0.3924 -0.1481
27165W        W70077  28.736  25.823  28.454  0.0337  0.0012  0.0469
27166W        W70078  23.681  25.809  24.847  0.1971  0.1437 -0.3418
27167W        W70079  27.579  26.927  25.057 -0.1043  0.1501 -0.0726
27168W        W70080  27.813  28.780  25.375 -0.1323 -0.2611  0.1135
27169W        W70081  28.285  31.663  23.003  0.2728  0.0654  0.0798
27170W        W70082  26.896  28.625  27.474 -0.2490  0.2355 -0.4458
27171W        W70083  25.726  28.913  26.882 -0.1691 -0.1386  0.2022
27172W        W70084  26.123  25.888  26.426  0.1250  0.0647 -0.1022
27173W        W70085  27.049  27.516  24.543 -0.0712  0.1149  0.0058
27174W        W70086  26.155  27.853  27.364  0.2189 -0.3402 -0.1793
27175W        W70087  28.643  29.444  24.334 -0.0023 -0.0073  0.0074
27176W        W70088  29.502  25.619  23.975  0.1809  0.2568 -0.1472
27177W        W70089  28.793  26.441  22.814 -0.3497  0.0606 -0.0623
27178W        W70090  25.949  26.090  27.185 -0.1049  0.2135  0.1598
27179W        W70091  26.321  28.618  27.376 -0.1520 -0.1520 -0.0191
27180W        W70092  27.901  26.994  26.954 -0.1196  0.1039  0.0806
27181W        W70093  27.644  24.861  26.177  0.1719  0.1556  0.1634
27182W        W70094  29.260  26.178  22.775 -0.3926 -0.0394  0.2158
27183W        W70095  27.273  29.166  23.500 -0.1362  0.0360 -0.3595
27184W        W70096  25.744  27.586  25.764  0.3767 -0.3467 -0.2043
27185W        W70097  29.153  27.371  25.222  0.2560  0.0733  0.2018
27186W        W70098  28.206  27.176  25.978  0.0866  0.0701 -0.0915
27187W        W70099  29.460  27.684  26.505  0.2268  0.0428 -0.0286
27188W        W70100  28.511  27.308  26.391 -0.0597 -0.1881 -0.1123
27189W        W70101  25.656  26.067  24.081  0.0234  0.0790 -0.1929
27190W        W70102  29.046  27.829  23.656 -0.2021  0.2346  0.0024
27191W        W70103  28.853  29.871  26.977 -0.1285 -0.0199 -0.3345
27192W        W70104  29.927  28.956  26.644 -0.0988 -0.2495 -0.0447
27193W        W70105  26.529  28.681  26.847 -0.3235 -0.1701  0.0739
27194W        W70106  27.758  27.105  25.589  0.2113  0.0173 -0.1324
27195W        W70107  25.758  25.552  26.419 -0.1480 -0.3644 -0.0409
27196W        W70108  26.575  27.426  26.333  0.2375  0.2064  0.1975
27197W        W70109  27.405  28.584  27.209 -0.3779 -0.1868 -0.2260
27198W        W70110  28.467  26.455  25.650  0.0375  0.3702 -0.2038
27199W        W70111  26.456  27.567  27.666  0.2028 -0.0066  0.0765
27200W        W70112  28.689  25.698  24.393  0.2289  0.2081 -0.7143
27201W        W70113  27.209  29.166  25.991  0.1149 -0.0478 -0.0979
27202W        W70114  27.938  28.258  24.190  0.0428  0.1632 -0.0248
27203W        W70115  27.345  27.938  30.459 -0.0828 -0.0260  0.3238
27204W        W70116  26.100  26.543  27.791 -0.0663  0.0768 -0.2575
27205W        W70117  28.700  25.340  27.341 -0.3146 -0.1987 -0.0613
27206W        W70118  28.078  27.791  29.037 -0.0601 -0.1254  0.0403
27207W        W70119  25.668  26.473  30.011  0.2363  0.1738 -0.1743
27208W        W70120  28.378  27.689  28.625 -0.1699 -0.3268  0.0001
27209W        W70121  26.818  25.653  31.175 -0.0641 -0.1870 -0.2411
27210W        W70122  28.392  29.041  30.879  0.0388  0.0337 -0.2799
27211W        W70123  27.723  27.541  30.307 -0.1238  0.4077  0.0306
27212W        W70124  29.143  27.495  29.059  0.0350 -0.1246  0.0806
27213W        W70125  27.269  26.258  30.596  0.1704  0.2759 -0.1075
27214W        W70126  28.847  29.896  31.485  0.0075  0.0627  0.1779
27215W        W70127  27.071  26.663  27.258 -0.0558 -0.2115 -0.1561
27216W        W70128  26.377  24.978  28.238  0.0308  0.0459  0.0192
27217W        W70129  28.208  27.701  30.094  0.1071  0.0056  0.1052
27218W        W70130  25.078  27.651  28.799  0.2564 -0.0459 -0.1136
27219W        W70131  26.358  26.378  30.711 -0.2229  0.1061  0.2045
27220W        W70132  27.265  27.217  29.091 -0.0898  0.0276  0.0234
27221W        W70133  26.357  28.807  30.029  0.1170 -0.2507 -0.0494
27222W        W70134  27.163  26.859  30.963  0.2552  0.2155  0.1160
27223W        W70135  27.961  26.521  29.500 -0.0957 -0.2736 -0.0288
27224W        W70136  27.968  27.469  28.498  0.2383 -0.0740 -0.1785
27225W        W70137  25.931  28.097  26.675 -0.1906 -0.2253 -0.1394
27226W        W70138  24.571  27.232  29.026 -0.2734  0.1408 -0.0539
27227W        W70139  26.432  26.766  31.098 -0.1018 -0.1100  0.3625
27228W        W70140  27.021  28.267  30.321 -0.0622 -0.5401 -0.0607
27229W        W70141  28.974  27.719  28.642 -0.0159 -0.0630 -0.0916
27230W        W70142  26.729  27.178  29.570  0.1328 -0.3329 -0.0954
27231W        W70143  27.862  28.688  28.507  0.3923  0.2122  0.0997
27232W        W70144  29.112  26.062  30.871 -0.2194 -0.1122 -0.2127
27233W        W70145  25.952  27.286  28.535 -0.0751 -0.3363 -0.1067
27234W        W70146  25.832  27.526  29.308 -0.1643  0.0631  0.3679
27235W        W70147  25.266  28.918  28.696 -0.1888 -0.0285 -0.0342
27236W        W70148  28.547  28.577  29.038 -0.0693  0.0126 -0.0782
27237W        W70149  29.392  29.738  30.384 -0.0650  0.0932 -0.0385
27238W        W70150  26.770  28.364  31.833 -0.0723  0.0423  0.0241
27239W        W70151  26.657  29.307  27.289 -0.0153 -0.3648  0.4034
27240W        W70152  27.957  28.733  30.031  0.0740  0.1004 -0.0441
27241W        W70153  26.398  29.207  31.445 -0.0867 -0.0660 -0.1581
27242W        W70154  27.602  27.107  30.562  0.0192  0.1343  0.2426
27243W        W70155  27.267  27.831  29.397 -0.2468  0.0324 -0.0261
27244W        W70156  26.196  29.589  28.221 -0.1984 -0.0573  0.1450
27245W        W70157  27.303  27.904  28.503  0.2665  0.4077  0.0966
27246W        W70158  26.393  27.478  31.921 -0.1318 -0.3296 -0.3208
27247W        W70159  26.209  27.090  29.130  0.2019 -0.1082  0.0038
27248W        W70160  27.668  26.067  30.913 -0.1701  0.2427 -0.1728
27249W        W70161  27.224  29.034  27.614  0.1567  0.0351  0.1111
27250W        W70162  28.248  27.034  27.850  0.3022  0.3557 -0.0406
27251W        W70163  26.702  26.414  27.085  0.0863 -0.0526 -0.0664
27252W        W70164  28.187  28.287  28.827  0.0099 -0.1335 -0.1700
27253W        W70165  27.008  25.984  29.600  0.0623  0.3021 -0.2770
27254W        W70166  24.446  30.122  29.685 -0.1612  0.0942  0.1186
27255W        W70167  26.775  26.651  30.708  0.1451 -0.0760  0.0904
27256W        W70168  28.496  29.917  29.920  0.0794  0.1385 -0.0528
27257W        W70169  26.144  27.846  27.923 -0.1185  0.1219  0.2767
27258W        W70170  28.672  26.866  30.315  0.2061  0.0876  0.2541
27259W        W70171  26.542  29.064  30.409 -0.0479 -0.1747 -0.1931
27260W        W70172  27.439  26.713  29.760  0.2386  0.0104  0.2000
27261W        W70173  29.696  29.865  26.831 -0.0631  0.2006  0.0516
27262W        W70174  29.054  28.054  29.063  0.0337 -0.1500  0.2326
27263W        W70175  27.073  29.293  28.116  0.1223  0.1730 -0.2730
27264W        W70176  25.474  27.332  28.960 -0.0008  0.3201  0.1602
27265W        W70177  25.385  28.210  31.434  0.1951 -0.1123 -0.2587
27266W        W70178  24.975  26.416  30.685  0.0930 -0.3394  0.0778
27267W        W70179  25.128  26.665  27.888 -0.3688 -0.0433 -0.0888
27268W        W70180  29.978  28.701  31.574 -0.0346  0.1675  0.2119
27269W        W70181  25.604  27.215  31.039 -0.1156 -0.3893 -0.0529
27270W        W70182  29.041  26.792  28.817 -0.0056 -0.0269 -0.2796
27271W        W70183  26.960  28.729  30.396  0.1257  0.1130 -0.0333
27272W        W70184  29.059  28.799  30.002 -0.0532 -0.2357 -0.5402
27273W        W70185  28.609  28.545  27.604 -0.1016  0.2585  0.1734
27274W        W70186  26.544  25.844  29.150 -0.2240  0.0580 -0.0522
27275W        W70187  28.046  26.039  29.322  0.0678 -0.0542  0.0677
27276W        W70188  26.464  27.670  27.022  0.3517 -0.2097  0.1094
27277W        W70189  26.732  27.238  29.075  0.1023 -0.2254  0.1781
27278W        W70190  28.835  28.441  29.792 -0.0080  0.1040 -0.3196
27279W        W70191  28.366  28.786  28.103 -0.0555  0.1936 -0.0143
27280W        W70192  26.031  28.455  29.634 -0.1438  0.1019 -0.1947
27281W        W70193  27.202  27.544  30.781 -0.2858  0.0233 -0.2304
27282W        W70194  28.028  28.561  30.648 -0.0514 -0.2301 -0.0025
27283W        W70195  26.046  30.388  29.210  0.3028 -0.0868 -0.2707
27284W        W70196  26.098  26.740  30.082 -0.3590  0.1697 -0.0453
27285W        W70197  25.916  29.197  28.920 -0.3721  0.1469  0.1258
27286W        W70198  23.933  25.420  30.599  0.1257  0.1110  0.0600
27287W        W70199  27.504  27.121  29.988 -0.0322 -0.2812 -0.1834
27288W        W70200  27.820  27.934  28.431  0.0831  0.1297 -0.1884
27289W        W70201  25.393  25.626  28.884 -0.2485  0.3618  0.2846
27290W        W70202  27.540  26.044  28.919  0.1112  0.1317  0.2314
27291W        W70203  25.477  26.141  28.959 -0.0905  0.0638 -0.0413
27292W        W70204  28.908  30.092  29.677 -0.1917  0.1435 -0.1962
27293W        W70205  29.292  27.061  27.020 -0.1017 -0.2392 -0.1382
27294W        W70206  29.397  29.560  27.290  0.0183 -0.1883  0.0605
27295W        W70207  25.216  26.888  31.909  0.6195 -0.4312  0.0759
27296W        W70208  25.052  25.722  28.499  0.2030 -0.2688 -0.0045
27297W        W70209  25.941  26.015  30.770 -0.0934  0.5027 -0.0136
27298W        W70210  24.107  25.772  30.892 -0.0209  0.0732 -0.0020
27299W        W70211  28.576  28.646  30.592  0.2221 -0.2285  0.0572
27300W        W70212  26.325  27.810  26.535 -0.1376  0.0099  0.0128
27301W        W70213  29.061  27.047  29.580 -0.2588  0.1747 -0.1494
27302W        W70214  26.373  28.599  28.785 -0.0504 -0.1640  0.1496
27303W        W70215  25.322  28.987  31.090 -0.2682  0.3108 -0.2131
27304W        W70216  27.492  26.504  31.311  0.0087 -0.0124  0.0788
27305W        W70217  26.293  28.790  29.353  0.0561 -0.1092  0.2360
27306W        W70218  28.924  29.173  31.562 -0.2773  0.2415  0.1264
27307W        W70219  27.236  29.852  29.661 -0.0302 -0.0010  0.0657
27308W        W70220  25.707  25.955  30.239 -0.2313 -0.0347  0.0693
27309W        W70221  26.653  26.796  28.095 -0.0232 -0.0624  0.0181
27310W        W70222  25.359  27.364  29.641 -0.1122  0.0150 -0.0327
27311W        W70223  26.935  26.983  29.954  0.0184 -0.1027  0.1952
27312W        W70224  26.678  28.090  28.713  0.1322  0.2380  0.2151
27313W        W70225  27.593  29.130  28.770 -0.1870  0.1281 -0.1281
27314W        W70226  27.600  29.410  28.355 -0.1430  0.4252  0.2321
27315W        W70227  26.136  27.730  31.581  0.0567 -0.3837 -0.0625
27316W        W70228  29.558  25.489  29.556 -0.1227 -0.1777  0.2066
27317W        W70229  29.400  27.973  31.796  0.3493  0.0549 -0.1522
27318W        W70230  28.648  28.195  30.289 -0.1623  0.3147 -0.1199
27319W        W70231  27.053  26.816  27.811 -0.0066  0.3529  0.0518
27320W        W70232  27.255  29.315  29.201  0.1934  0.1521  0.1158
27321W        W70233  26.702  29.553  28.902  0.0437 -0.0260 -0.3839
27322W        W70234  25.605  26.977  30.295  0.1283 -0.0553 -0.0173
27323W        W70235  27.321  28.363  29.334  0.2653  0.1210  0.1549
27324W        W70236  28.143  26.934  29.253  0.0510  0.3139  0.0268
27325W        W70237  25.158  27.181  31.205 -0.1653  0.0452  0.1703
27326W        W70238  27.204  26.223  31.705 -0.1375  0.2094  0.2704
27327W        W70239  25.980  26.277  29.354 -0.0716 -0.1405  0.3258
27328W        W70240  26.149  28.126   0.039 -0.1846 -0.0154  0.0966
27329W        W70241  28.727  26.728  28.390 -0.0823  0.1553  0.3502
27330W        W70242  29.208  27.521  26.902  0.0648 -0.0378  0.1530
27331W        W70243  27.620  28.837  30.431  0.1060  0.1611  0.0523
27332W        W70244  29.587  28.956  28.871 -0.3916 -0.0040 -0.3512
27333W        W70245  27.443  25.865  27.706 -0.0487 -0.3259  0.3005
27334W        W70246  27.372  25.636  28.211 -0.1899 -0.2848 -0.0465
27335W        W70247  23.367  29.337  31.140 -0.1223  0.0044 -0.1943
27336W        W70248  26.639  27.698  29.601  0.0515  0.0127  0.0089
27337W        W70249  26.883  28.156  29.503 -0.0177  0.0650 -0.1242
27338W        W70250  28.246  27.532  28.088 -0.2192  0.1898  0.2579
27339W        W70251  27.634  29.003  29.474  0.1060 -0.1353  0.1355
27340W        W70252  24.112  28.307  30.083 -0.1565  0.1475 -0.1909
27341W        W70253  28.429  28.069  30.779  0.0370  0.2839  0.0131
27342W        W70254  27.224  26.795  30.420  0.3128  0.0086 -0.2600
27343W        W70255  27.568  25.878  29.371  0.0462  0.2914 -0.1301
27344W        W70256  27.824  28.392  27.341  0.2709 -0.1056 -0.2849
27345W        W70257  28.337  27.292  28.949  0.1192  0.1722  0.1189
27346W        W70258  25.613  29.814  28.846 -0.1036 -0.1579 -0.3320
27347W        W70259  28.648  26.424  30.622  0.0651 -0.3340 -0.3505
27348W        W70260  26.420  26.987  30.555 -0.3848  0.3188  0.0453
27349W        W70261  27.806  25.044  31.223 -0.2339  0.2130 -0.0906
27350W        W70262  28.934  25.817  31.304 -0.1947  0.1673 -0.1181
27351W        W70263  28.630  26.388  27.468  0.1483  0.1192  0.0178
27352W        W70264  27.227  27.345  29.619 -0.2424  0.0052  0.1142
27353W        W70265  26.299  27.521  28.830 -0.2246  0.0550 -0.0964
27354W        W70266  27.919  26.397  28.983  0.0129 -0.0900  0.2335
27355W        W70267  26.262  27.206  31.127  0.1539 -0.4587  0.0211
27356W        W70268  26.651  27.901  31.648 -0.3493 -0.1959 -0.0056
27357W        W70269  28.360  29.504  30.172 -0.2330 -0.0451  0.0123
27358W        W70270  28.408  28.213  28.361 -0.0090 -0.1904 -0.0729
27359W        W70271  25.348  25.858  31.074 -0.5268 -0.2067  0.2049
27360W        W70272  26.273  27.425  28.175  0.0413 -0.1777  0.4120
27361W        W70273  27.692  28.212  28.798 -0.0766 -0.1453 -0.2081
27362W        W70274  26.480  28.348  28.290  0.1158  0.1909  0.0898
27363W        W70275  25.342  26.554  30.414 -0.2164 -0.0475 -0.4199
27364W        W70276  27.180  28.111  31.684 -0.0505  0.1686 -0.4297
27365W        W70277  28.626  29.432  26.678 -0.3038  0.4334  0.2107
27366W        W70278  28.547  28.725  30.081  0.1833 -0.0636  0.0164
27367W        W70279  26.781  29.977  26.648 -0.1031  0.0098 -0.0278
27368W        W70280  27.116  25.870  30.162  0.0596 -0.0634 -0.1656
27369W        W70281  25.471  27.480  28.494 -0.1417  0.1671 -0.0660
27370W        W70282  26.472  27.128  28.548  0.1945  0.0534 -0.0789
27371W        W70283  25.514  26.029  28.489 -0.2101  0.2631  0.2047
27372W        W70284  29.025  25.690  29.312  0.3119 -0.0900  0.0615
27373W        W70285  29.165  29.258  29.443 -0.1500 -0.1878  0.1689
27374W        W70286  25.254  26.198  30.018  0.0166 -0.0328 -0.1680
27375W        W70287  26.185  26.051  30.317  0.0198  0.1484  0.1133
27376W        W70288  25.956  27.763  30.384 -0.0330  0.0364 -0.1603
27377W        W70289  27.222  27.508  30.139  0.1173  0.0622 -0.4046
27378W        W70290  27.889  26.974  27.503 -0.1966  0.3109 -0.1697
27379W        W70291  27.363  28.917  29.954 -0.0437  0.3036 -0.1348
27380W        W70292  28.091  29.017   0.945 -0.0789  0.2490 -0.0362
27381W        W70293  26.066  26.749  29.497  0.1009 -0.1265  0.1256
27382W        W70294  29.015  29.006  28.993  0.0665  0.1041  0.2214
27383W        W70295  26.318  26.347  28.952 -0.1180 -0.1822  0.0231
27384W        W70296  26.208  28.008  28.981 -0.1533 -0.0526 -0.0264
27385W        W70297  27.258  28.422  31.318 -0.3314  0.0279 -0.0290
27386W        W70298  25.464  25.470  29.426 -0.2603 -0.0416  0.1627
27387W        W70299  26.312  27.555  29.295  0.0344 -0.0348 -0.0418
27388W        W70300  26.676  25.701  30.350 -0.2764 -0.0584 -0.1262
27389W        W70301  30.105  29.234  29.933 -0.0006 -0.2667 -0.1383
27390W        W70302  28.040  26.817  28.778 -0.2029  0.2177  0.0693
27391W        W70303  24.098  26.444  28.760 -0.3323  0.2296  0.0908
27392W        W70304  26.842  27.548  28.675  0.2653  0.0590  0.1326
27393W        W70305  27.145  28.836  29.421  0.2913 -0.1168 -0.1670
27394W        W70306  27.592  27.089  31.071  0.1260 -0.0629 -0.1801
27395W        W70307  27.158  27.269  31.348 -0.3420  0.0343  0.1475
27396W        W70308  27.750  24.735  30.829  0.1692 -0.0934  0.0554
27397W        W70309  29.056  29.434  28.265  0.1229 -0.1518 -0.0583
27398W        W70310  28.160  28.316  30.278 -0.0657  0.2875  0.2179
27399W        W70311  26.979  26.527  29.637  0.2300  0.0165 -0.3065
27400W        W70312  23.568  28.500  29.834  0.1179  0.0371  0.0604
27401W        W70313  27.612  29.854  28.623  0.0670 -0.0698 -0.1811
27402W        W70314  28.218  27.762  29.523  0.1476 -0.2981 -0.1217
27403W        W70315  25.535  29.009  31.570  0.1786 -0.0784 -0.1801
27404W        W70316  25.177  26.321  28.190  0.2294 -0.1566  0.0602
27405W        W70317  24.771  27.509  30.087  0.0690 -0.2418 -0.0305
27406W        W70318  28.278  26.109  27.745 -0.3712 -0.0574 -0.0575
27407W        W70319  27.516  28.359  28.241 -0.3378 -0.0796 -0.0695
27408W        W70320  27.699  26.442  28.499  0.0730  0.1786 -0.3338
27409W        W70321  28.556  26.070  31.407 -0.2756 -0.1366  0.1420
27410W        W70322  29.152  28.534  28.788  0.2130 -0.1742 -0.1937
27411W        W70323  27.563  25.506   0.214  0.1804 -0.2688  0.0575
27412W        W70324  27.447  25.256  29.467 -0.1946  0.4482  0.2831
27413W        W70325  26.794  29.295  29.400  0.0666 -0.0922  0.0184
27414W        W70326  25.588  26.293  31.363  0.1593  0.1419  0.1102
27415W        W70327  26.524  29.883   0.726 -0.4409  0.1143  0.2797
27416W        W70328  26.675  26.996  31.503 -0.0856  0.5182  0.0051
27417W        W70329  28.146  27.303  29.679  0.1983  0.0849  0.0041
27418W        W70330  26.160  25.599  27.904  0.0723 -0.0729 -0.1507
27419W        W70331  26.728  28.321  31.297 -0.1172  0.3430  0.0835
27420W        W70332  28.501  27.281  30.672 -0.0293  0.0920 -0.0079
27421W        W70333  25.957  28.303  28.149 -0.2076  0.0233  0.1718
27422W        W70334  27.699  27.548  29.798  0.0854 -0.1698  0.0376
27423W        W70335  27.058  26.783  29.206 -0.0803  0.4100 -0.0509
27424W        W70336  27.607  27.721  28.848 -0.2458  0.0343 -0.0318
27425W        W70337  27.490  27.144  27.689 -0.0323  0.0534  0.2798
27426W        W70338  26.676  29.372  28.421  0.0997 -0.0672 -0.0135
27427W        W70339  26.929  25.332  30.778  0.2540 -0.0224  0.0304
27428W        W70340  25.472  28.171  29.986 -0.1690  0.0564  0.3461
27429W        W70341  28.991  26.188  29.131 -0.0838 -0.0778  0.1512
27430W        W70342  28.243  26.626  30.340 -0.0726  0.1562  0.2111
27431W        W70343  28.285  26.051  30.331  0.1583 -0.2728 -0.0372
27432W        W70344  27.153  26.069  31.135 -0.1067 -0.1100 -0.4042
27433W        W70345  24.413  25.612  31.712  0.0169  0.0717 -0.0089
27434W        W70346  29.104  29.520   0.338  0.1239  0.0668 -0.2742
27435W        W70347  28.762  26.644  26.030 -0.3702  0.6529 -0.0311
27436W        W70348  28.009  27.176  30.866 -0.1338 -0.2178  0.1113
27437W        W70349  29.647  26.673  28.565  0.0495  0.1146  0.2947
27438W        W70350  28.185  28.039  27.565 -0.1659  0.2404 -0.1872
27439W        W70351  26.319  28.004  30.665  0.2428 -0.2660  0.1578
27440W        W70352  28.899  27.865  31.566 -0.0040 -0.1987  0.3821
27441W        W70353  26.216  26.546  27.224  0.2439 -0.0257  0.1822
27442W        W70354  27.697  27.574  30.796  0.0657 -0.0297  0.1108
27443W        W70355  26.406  28.629  27.873 -0.1700  0.2739 -0.2219
27444W        W70356  27.432  27.436  28.435  0.4723 -0.2359  0.0095
27445W        W70357  27.827  28.581  29.124 -0.0718 -0.0624 -0.2945
27446W        W70358  25.960  26.941  30.664  0.1950 -0.1072  0.3643
27447W        W70359  26.018  28.734   0.253  0.1631  0.0790  0.0445
27448W        W70360  25.476  25.952  27.355  0.3875 -0.0260  0.2060
27449W        W70361  26.984  28.977  27.066  0.1116 -0.0294  0.4508
27450W        W70362  26.730  27.745  29.097  0.1166 -0.1592  0.3268
27451W        W70363  29.691  26.575  30.711  0.0864  0.0952 -0.0796
27452W        W70364  26.489  26.253  29.516  0.1829  0.1153 -0.0652
27453W        W70365  29.322  26.434  31.213 -0.0385 -0.0390  0.1443
27454W        W70366  25.456  26.898  29.813 -0.1170  0.3039 -0.2945
27455W        W70367  27.657  26.924  28.484  0.1249  0.2913  0.0981
27456W        W70368  26.524  28.370  29.257  0.4408  0.0460 -0.0109
27457W        W70369  24.125  27.740  31.471 -0.4298 -0.0823  0.1425
27458W        W70370  25.991  28.110  29.990  0.2889  0.5767  0.1479
27459W        W70371  27.613  24.356  28.398 -0.1607  0.0097  0.2054
27460W        W70372  28.353  26.778  30.824  0.0953 -0.0937 -0.0660
27461W        W70373  27.123  26.407  30.092  0.1777  0.0953 -0.2363
27462W        W70374  29.606  25.978  31.202  0.0710 -0.2966 -0.2837
27463W        W70375  27.159  27.804   0.257  0.0156 -0.0711 -0.1052
27464W        W70376  27.028  25.787  29.130  0.3530 -0.0892 -0.0621
27465W        W70377  27.441  27.992  29.886 -0.1042 -0.0497  0.0609
27466W        W70378  29.026  28.574  29.299 -0.1169 -0.2506  0.2303
27467W        W70379  26.110  27.299  30.256  0.1057 -0.1829 -0.1154
27468W        W70380  25.206  27.569  30.785  0.3640  0.1016  0.0161
27469W        W70381  26.686  27.438  30.034 -0.1382 -0.2909  0.1398
27470W        W70382  26.148  27.670  29.786 -0.2201 -0.1408  0.0253
27471W        W70383  24.957  26.723  30.083  0.1706 -0.0084 -0.1716
27472W        W70384  26.865  28.312  27.908 -0.0411 -0.1129  0.1594
27473W        W70385  26.988  29.208  30.595  0.0420  0.0190  0.0058
27474W        W70386  25.959  27.428  30.750 -0.0460 -0.2084 -0.1000
27475W        W70387  25.077  28.961  29.751  0.1180  0.3409  0.0836
27476W        W70388  29.424  28.497  27.590  0.0648 -0.2445  0.0063
27477W        W70389  29.019  28.906  27.563 -0.0121  0.0689  0.1895
27478W        W70390  26.636  28.274  29.949 -0.0829  0.0703 -0.1708
27479W        W70391  25.966  27.449  27.679 -0.3292  0.1703  0.0963
27480W        W70392  25.785  29.564  29.246 -0.0052  0.0604 -0.0735
27481W        W70393  24.432  29.406  29.196  0.1788  0.1007 -0.1089
27482W        W70394  28.237  30.176  28.077 -0.1499 -0.0519  0.1284
27483W        W70395  23.135  29.840  29.717  0.0891 -0.0557  0.1618
27484W        W70396  29.351  29.065  30.339  0.0004  0.1820 -0.0415
27485W        W70397  28.026  24.918  26.518  0.0380 -0.2547 -0.0857
27486W        W70398  28.582  26.182  28.194 -0.0258 -0.2199  0.3184
27487W        W70399  29.133  26.274  28.235  0.1040  0.1065 -0.1548
27488W        W70400  27.527  28.349  30.174  0.1698 -0.0601 -0.4006
27489W        W70401  26.668  26.006  29.981  0.1172  0.0097 -0.2090
27490W        W70402  26.630  26.588  27.570  0.0395  0.0788  0.0419
27491W        W70403  27.677  26.559  30.764  0.0391  0.1917 -0.0415
27492W        W70404  29.179  26.156  30.005 -0.1903  0.0096  0.0215
27493W        W70405  24.997  28.092  29.965  0.0938 -0.1878  0.2245
27494W        W70406  27.846  29.551  28.970  0.4408  0.0346  0.0107
27495W        W70407  24.979  26.044  27.349 -0.1306 -0.0901  0.3230
27496W        W70408  26.928  26.317  29.122 -0.0116 -0.0359 -0.1268
27497W        W70409  28.289  26.406  28.568 -0.0451 -0.3522 -0.1246
27498W        W70410  28.083  28.029  28.021 -0.1105 -0.2155  0.0761
27499W        W70411  27.918  28.028  29.827  0.1911  0.0002 -0.3104
27500W        W70412  26.007  28.447  29.140 -0.1524  0.0285 -0.0756
27501W        W70413  27.369  28.421  30.636 -0.1307  0.1670 -0.3334
27502W        W70414  25.511  27.778  31.099 -0.0177  0.0158 -0.1453
27503W        W70415  25.910  25.218  28.173 -0.0230 -0.0073  0.1215
27504W        W70416  28.680  25.851  29.886  0.3595 -0.1942 -0.0543
27505W        W70417  27.177  24.766  30.266  0.1897 -0.1788 -0.0784
27506W        W70418  28.090  27.134  30.356 -0.0789  0.1259 -0.0960
27507W        W70419  25.930  26.266  28.616  0.2500 -0.4220  0.2894
27508W        W70420  27.827  27.164  28.062 -0.3871  0.3001 -0.1849
27509W        W70421  27.233  26.555  28.767 -0.3522  0.0101 -0.2078
27510W        W70422  27.549  26.201  29.830 -0.0530 -0.0138  0.1111
27511W        W70423  26.670  27.839  28.127  0.1863  0.2935  0.2591
27512W        W70424  28.728  29.388  31.145  0.0682  0.1356  0.1632
27513W        W70425  29.239  28.021  27.398  0.1343 -0.3191 -0.1090
27514W        W70426  28.059  28.888  31.363  0.1254 -0.0629  0.1609
27515W        W70427  25.753  25.314  30.229  0.1596  0.1694  0.4203
27516W        W70428  27.047  26.546  28.265  0.2513 -0.2347  0.0647
27517W        W70429  26.495  26.687  29.711  0.0052 -0.0128 -0.0166
27518W        W70430  26.880  27.761  30.420 -0.0998  0.3243  0.1315
27519W        W70431  28.809  29.762  30.275  0.0260  0.0519  0.0819
27520W        W70432  25.554  23.831  29.822  0.1402  0.3604 -0.1953
27521W        W70433  29.513  27.820  28.865  0.1871 -0.0752  0.0477
27522W        W70434  29.008  26.600  29.817  0.0555  0.0130 -0.0920
27523W        W70435  26.964  30.045  27.899  0.2084  0.2666  0.1438
27524W        W70436  28.207  28.187  29.347  0.0727 -0.1480 -0.0439
27525W        W70437  28.053  29.178  27.924  0.2581 -0.1056  0.1328
27526W        W70438  26.106  25.690  29.901 -0.0384 -0.1976 -0.4146
27527W        W70439  25.818  27.301  29.811  0.0157  0.0672 -0.0879
27528W        W70440  27.899  29.552  30.464 -0.4058 -0.1404 -0.0600
27529W        W70441  25.548  25.166  29.778 -0.0578  0.0470 -0.2786
27530W        W70442  26.124  26.240  29.861 -0.0355 -0.1374 -0.0328
27531W        W70443  25.528  28.485  28.752  0.3676 -0.1585 -0.0629
27532W        W70444  28.135  25.313  28.619  0.0364 -0.1169  0.0841
27533W        W70445  28.362  26.308  29.655  0.0090 -0.1169  0.4811
27534W        W70446  28.094  29.271  28.532 -0.1203  0.0118 -0.1210
27535W        W70447  29.979  24.033  31.006  0.4037 -0.2760 -0.1265
27536W        W70448  28.373  28.031  31.352 -0.3063  0.2160 -0.0475
27537W        W70449  25.373  27.350   0.052 -0.4007  0.2253  0.0854
27538W        W70450  26.689  26.635  28.679  0.0383  0.0168 -0.0455
27539W        W70451  28.164  27.650  30.618  0.3128 -0.1485 -0.3177
27540W        W70452  25.923  28.875  27.955 -0.0377 -0.2996  0.0346
27541W        W70453  25.153  28.610  30.124  0.1599  0.2201  0.0889
27542W        W70454  28.101  28.658  29.551  0.1607 -0.0064 -0.4443
27543W        W70455  26.980  27.007  28.604  0.1941  0.0634 -0.1273
27544W        W70456  28.806  29.771  28.433 -0.3198 -0.1369 -0.2664
27545W        W70457  26.188  25.561  30.417 -0.2866  0.2088  0.2082
27546W        W70458  29.910  26.234  28.926 -0.5211 -0.1197 -0.0333
27547W        W70459  27.037  26.100  28.661 -0.2399 -0.0381  0.0659
27548W        W70460  25.668  28.043  29.223  0.0557  0.1222  0.2045
27549W        W70461  26.571  26.738  29.238  0.0761 -0.1184 -0.0682
27550W        W70462  25.422  28.568  28.284  0.1053  0.2271  0.0065
27551W        W70463  25.602  27.058  29.359 -0.2818  0.2394 -0.0707
27552W        W70464  27.110  24.620   0.149  0.3665 -0.0939  0.1710
27553W        W70465  27.267  25.620  28.688  0.0551 -0.1724  0.0943
27554W        W70466  25.639  27.816  29.685  0.3929  0.0224  0.1541
27555W        W70467  26.730  27.348  28.096 -0.1799  0.1017 -0.2480
27556W        W70468  29.563  27.886  30.436  0.3465 -0.3002 -0.0675
27557W        W70469  23.839  24.484  29.230  0.2469  0.1304 -0.3035
27558W        W70470  25.120  26.743  28.873 -0.1431 -0.1954 -0.0708
27559W        W70471  28.309  29.670  27.883 -0.1904 -0.3646  0.1124
27560W        W70472  28.649  29.461  29.462  0.1120  0.1163 -0.0830
27561W        W70473  27.473  26.654  28.029 -0.3088 -0.1407 -0.0658
27562W        W70474  30.145  30.678  29.677  0.0665  0.0400  0.0713
27563W        W70475  26.044  28.592  26.654  0.0741 -0.0142  0.5117
27564W        W70476  27.265  26.359   0.280  0.0060 -0.0555  0.0470
27565W        W70477  27.584  26.799  29.103  0.0755  0.2700  0.0731
27566W        W70478  24.626  25.683  28.208 -0.1067  0.1408  0.0055
27567W        W70479  27.401  26.355  29.316 -0.0293 -0.0508  0.2772
27568W        W70480  27.967  29.061  29.086  0.0101  0.2520 -0.0455
27569W        W70481  28.936  30.478  27.833  0.1518  0.1419 -0.1075
27570W        W70482  26.940  27.217  30.466 -0.0683 -0.0035  0.3076
27571W        W70483  27.632  28.584   0.829  0.1047 -0.0573  0.0252
27572W        W70484  25.530  27.447  30.417  0.0661 -0.2062 -0.2973
27573W        W70485  28.506  27.314  30.166  0.0872 -0.3888  0.2321
27574W        W70486  25.583  28.806  30.661  0.0387  0.1409  0.1327
27575W        W70487  29.090  29.407  27.707 -0.0230 -0.2819 -0.0214
27576W        W70488  28.847  26.189  29.592 -0.1237  0.0213 -0.1352
27577W        W70489  27.277  28.026  27.994  0.2295 -0.2107  0.0173
27578W        W70490  25.167  25.694   0.809 -0.1226  0.1288 -0.3093
27579W        W70491  25.867  28.932  31.186 -0.0715 -0.3124  0.2671
27580W        W70492  29.274  28.224  29.606 -0.5241  0.2916 -0.2454
27581W        W70493  26.949  25.115  29.489 -0.1560  0.0652 -0.0603
27582W        W70494  25.645  26.784  27.922 -0.0999 -0.1328  0.0980
27583W        W70495  28.833  29.490  28.884 -0.1148  0.1944  0.1543
27584W        W70496  26.439  27.525  30.641 -0.1502  0.0485  0.0884
27585W        W70497  27.691  27.665  28.033 -0.1697 -0.0639 -0.1811
27586W        W70498  28.098  29.027  30.389  0.0361 -0.1999 -0.1218
27587W        W70499  26.711  28.702  29.645  0.2853 -0.0107  0.0840
27588W        W70500  29.928  29.860  30.681  0.0097 -0.1499  0.3271
27589W        W70501  27.040  28.335  28.446 -0.1470  0.2708 -0.1206
27590W        W70502  29.028  27.055  27.652 -0.0711  0.0410 -0.0298
27591W        W70503  27.220  29.043  31.299  0.1564  0.1943  0.2458
27592W        W70504  29.569  30.141   0.580  0.2246 -0.2663 -0.2377
27593W        W70505  27.767  28.376  31.057 -0.1787  0.0749 -0.5194
27594W        W70506  29.080  26.641  30.486 -0.0882 -0.1866  0.0585
27595W        W70507  24.529  26.073  30.855 -0.1152 -0.1066  0.0264
27596W        W70508  26.236  27.874  28.477  0.1321 -0.2352  0.3410
27597W        W70509  27.233  27.572  28.000 -0.0322  0.1406  0.3177
27598W        W70510  27.584  26.542  30.233  0.1866  0.1692 -0.3178
27599W        W70511  25.987  25.842  28.859  0.1382 -0.4701 -0.1213
27600W        W70512  26.307  26.438  28.321  0.3575  0.2781 -0.1886
27601W        W70513  24.866  28.240  31.485 -0.0430  0.1436  0.0792
27602W        W70514  28.934  28.972  30.805 -0.0540 -0.0109  0.0707
27603W        W70515  28.828  26.905  30.872 -0.2393  0.0380  0.0974
27604W        W70516  29.088  28.486  30.424 -0.1966  0.0426  0.2468
27605W        W70517  27.546  27.584  31.247 -0.1003 -0.1401 -0.1096
27606W        W70518  26.263  28.208  31.469  0.0530 -0.4515 -0.1936
27607W        W70519  27.466  30.729  31.064  0.1638 -0.2621 -0.1381
27608W        W70520  25.606  28.931   0.293  0.1277 -0.1346 -0.1586
27609W        W70521  28.973  27.451  30.067 -0.1845  0.0371  0.3279
27610W        W70522  26.568  27.872  31.091 -0.0664 -0.0279  0.0493
27611W        W70523  28.685  27.725  30.468 -0.2689  0.2414 -0.1855
27612W        W70524  29.192  28.215  31.280  0.0630 -0.1841  0.1139
27613W        W70525  27.540  27.837  31.961  0.3612 -0.3850 -0.1482
27614W        W70526  26.429  25.753  30.849  0.3750 -0.0648  0.0179
27615W        W70527  28.434  27.559  31.632  0.0778 -0.1445  0.2099
27616W        W70528  25.331  26.560   0.782  0.0408 -0.0608 -0.3228
27617W        W70529  27.597  27.370  31.714 -0.3060  0.1677  0.0254
27618W        W70530  25.971  29.944   1.475 -0.2446 -0.1573  0.2701
27619W        W70531  24.246  27.990   0.790  0.1328 -0.0687  0.0758
27620W        W70532  29.451  28.587  31.034 -0.1718 -0.1080 -0.2497
27621W        W70533  23.919  25.548   1.085  0.1001  0.0903 -0.0793
27622W        W70534  22.941  27.058   1.355 -0.2363 -0.0447 -0.1151
27623W        W70535  26.371  25.540  31.300 -0.1725  0.1274 -0.4060
27624W        W70536  25.630  28.605  31.934  0.3790 -0.0121  0.3450
27625W        W70537  28.108  26.638   0.047  0.0890  0.2333  0.1118
27626W        W70538  27.014  27.822  31.271 -0.1324  0.4282 -0.0385
27627W        W70539  26.782  26.172  30.451 -0.0051 -0.3296  0.2204
27628W        W70540  26.096  26.342  31.159 -0.0316 -0.3031 -0.1163
27629W        W70541  27.124  27.631  31.721  0.1844 -0.2455  0.0849
27630W        W70542  24.635  27.263   0.654  0.0008 -0.1666 -0.3680
27631W        W70543  24.592  26.516  31.740  0.1331  0.4220 -0.1481
27632W        W70544  25.555  26.559  31.847  0.2895 -0.1882  0.0704
27633W        W70545  27.995  27.915  31.075 -0.0219 -0.0143 -0.3449
27634W        W70546  24.003  26.544  31.106 -0.0046  0.2207  0.2248
27635W        W70547  29.443  28.375  30.080  0.4576 -0.1387 -0.1395
27636W        W70548  28.479  26.108  31.923  0.3217 -0.1429 -0.0479
27637W        W70549  25.625  25.601  31.821 -0.1047 -0.2997 -0.4416
27638W        W70550  25.656  28.334   0.354  0.0230 -0.0476  0.0902
27639W        W70551  27.001  28.115  30.851 -0.0331  0.0256 -0.0832
27640W        W70552  26.889  27.629   0.701  0.1823  0.1477 -0.0888
27641W        W70553  28.348  27.724   0.475  0.2985  0.1789  0.1690
27642W        W70554  28.639  29.104  30.403  0.0427  0.1848 -0.0903
27643W        W70555  28.644  26.333  30.133  0.2303 -0.0981  0.1391
27644W        W70556  27.667  27.379   1.122  0.0191  0.0518  0.1220
27645W        W70557  27.031  27.135   0.518  0.2450 -0.2531  0.1075
27646W        W70558  28.397  27.588  31.077 -0.1365  0.2347  0.0667
27647W        W70559  27.018  25.831  30.761 -0.0959 -0.0264  0.0016
27648W        W70560  26.267  29.167  29.668  0.3434  0.0959  0.0365
27649W        W70561  24.949  26.165  31.174 -0.1782 -0.6266 -0.0219
27650W        W70562  26.641  28.006   0.159 -0.0481 -0.0619 -0.2029
27651W        W70563  29.930  27.103   0.962  0.3353  0.0488  0.0876
27652W        W70564  26.519  26.958   0.060 -0.2951  0.1544 -0.0278
27653W        W70565  29.050  27.697   0.010  0.1398 -0.2409 -0.0067
27654W        W70566  28.974  26.291  31.559  0.1144 -0.0031  0.0065
27655W        W70567  26.489  26.535   1.067  0.0197  0.2493  0.1639
27656W        W70568  27.451  27.997  30.924  0.0363  0.3486 -0.0561
27657W        W70569  27.618  26.553  31.831 -0.1936 -0.1106 -0.0863
27658W        W70570  27.802  27.507  29.338  0.1034  0.0115  0.1291
27659W        W70571  29.397  27.729  31.367  0.0239  0.2263 -0.1280
27660W        W70572  27.131  28.472  29.840 -0.2050 -0.0856  0.3108
27661W        W70573  27.592  28.037  31.469  0.2065  0.0064 -0.1928
27662W        W70574  27.109  28.352   0.196 -0.1183 -0.1693  0.1131
27663W        W70575  26.296  26.927   0.774  0.1617 -0.1664 -0.2776
27664W        W70576  26.036  28.314  31.044 -0.2981  0.0920 -0.3156
27665W        W70577  26.088  27.212   0.374 -0.0033  0.0593 -0.2571
27666W        W70578  24.236  24.603  31.404 -0.1930  0.2677 -0.1131
27667W        W70579  27.527  28.779  31.002  0.1743 -0.1477 -0.0866
27668W        W70580  27.822  26.923  31.542 -0.1555  0.2722  0.1224
27669W        W70581  27.826  28.734   1.241 -0.3841 -0.0729 -0.0159
27670W        W70582  26.282  30.495  19.035 -0.0101  0.0010  0.0088
27671W        W70583  26.666  30.795  17.204  0.0669  0.0080  0.0219
27672W        W70584  27.940  30.365  17.700  0.0029 -0.0229 -0.1919
27673W        W70585  28.329  28.620  17.236 -0.4368  0.0800  0.2048
27674W        W70586  27.418  29.220  17.537  0.2752  0.0770 -0.0524
27675W        W70587  27.228  33.305  18.103  0.0147 -0.0389  0.2338
27676W        W70588  26.544  29.408  19.845  0.1243 -0.0695  0.1213
27677W        W70589  28.198  30.782  18.594  0.2728 -0.1640 -0.2474
27678W        W70590  28.926  33.422  19.611  0.1149 -0.2830 -0.2150
27679W        W70591  26.353  33.061  16.956  0.2180  0.3003 -0.0119
27680W        W70592  27.123  30.486  19.095  0.1334  0.2201  0.2490
27681W        W70593  26.492  32.766  19.015  0.2708 -0.0044  0.1406
27682W        W70594  26.270  27.987  17.479 -0.1041 -0.0900  0.2562
27683W        W70595  24.246  29.009  17.612 -0.1582 -0.0163 -0.2161
27684W        W70596  28.370  31.343  18.225  0.0262 -0.0348  0.0198
27685W        W70597  25.293  30.908  17.058 -0.1940 -0.0589 -0.0159
27686W        W70598  28.067  31.460  18.579  0.0237 -0.0366 -0.0948
27687W        W70599  26.992  29.938  16.681  0.2486  0.0857 -0.1876
27688W        W70600  28.171  33.356  17.173 -0.2368  0.0859  0.2810
27689W        W70601  26.649  31.063  20.074  0.0123  0.2017  0.2923
27690W        W70602  28.436  29.991  20.408  0.1536 -0.1261  0.0054
27691W        W70603  26.262  31.479  16.741  0.1729  0.2750 -0.2488
27692W        W70604  25.856  31.190  16.501 -0.0397 -0.1089  0.0067
27693W        W70605  26.946  30.343  18.431  0.0193  0.2883  0.4303
27694W        W70606  27.240  31.312  19.509 -0.1578  0.2005  0.3606
27695W        W70607  27.582  29.119  19.138 -0.2992 -0.2871 -0.2077
27696W        W70608  27.020  31.847  18.741  0.2011 -0.2980 -0.1310
27697W        W70609  27.449  33.866  17.356 -0.3380 -0.0986 -0.2224
27698W        W70610  25.926  32.467  17.691  0.3493  0.2218 -0.2616
27699W        W70611  30.444  31.095  18.719  0.2155 -0.1930 -0.1243
27700W        W70612  26.131  31.450  17.815  0.2194  0.2761  0.0717
27701W        W70613  27.188  32.010  17.666  0.0161  0.0217  0.0107
27702W        W70614  26.329  30.799  18.090 -0.0248  0.1683  0.0069
27703W        W70615  30.453  31.780  17.076  0.0748 -0.2424 -0.1619
27704W        W70616  29.704  32.409  19.107  0.2082 -0.3021 -0.0313
27705W        W70617  25.526  33.956  18.570 -0.2233  0.0472 -0.0510
27706W        W70618  24.775  31.513  16.554  0.0662 -0.1456 -0.0855
27707W        W70619  26.610  32.732  17.481 -0.1804 -0.1338 -0.0800
27708W        W70620  27.698  31.128  19.297 -0.1686  0.1636  0.0214
27709W        W70621  27.417  31.466  18.509 -0.0036 -0.1408 -0.1308
27710W        W70622  27.742  32.036  17.741  0.0119  0.3078  0.1328
27711W        W70623  27.277  31.341  17.246 -0.2002  0.1360 -0.2264
27712W        W70624  26.693  31.167  16.765  0.1935  0.0903 -0.1417
27713W        W70625  28.078  31.606  17.586 -0.0684  0.1518  0.3050
27714W        W70626  26.453  29.991  20.093 -0.1721  0.0799  0.0872
27715W        W70627  29.190  30.055  19.540 -0.7205  0.1065  0.2643
27716W        W70628  25.823  32.973  16.196 -0.0135 -0.1600 -0.0464
27717W        W70629  27.735  30.230  17.270 -0.0940 -0.1538  0.1659
27718W        W70630  27.362  28.382  16.070  0.3504  0.1574 -0.0289
27719W        W70631  28.285  30.433  17.341  0.1861 -0.0521 -0.0336
27720W        W70632  27.016  28.885  17.226  0.0202  0.0413  0.3508
27721W        W70633  27.052  31.760  19.308  0.0966  0.1237  0.0839
27722W        W70634  26.899  29.750  19.592  0.0190 -0.1101  0.1453
27723W        W70635  29.092  31.579  17.883  0.0642  0.1646  0.2734
27724W        W70636  27.189  30.933  17.588 -0.0934  0.2421 -0.1253
27725W        W70637  29.201  31.993  18.345  0.3181  0.1775 -0.2278
27726W        W70638  25.853  33.766  17.705  0.0247 -0.0427  0.2496
27727W        W70639  27.082  31.002  19.107  0.0067 -0.1476  0.2730
27728W        W70640  28.298  32.900  16.949 -0.0127 -0.0746  0.2330
27729W        W70641  29.868  32.284  16.612  0.3302  0.0676 -0.1267
27730W        W70642  28.560  32.492  16.407 -0.2905  0.0925 -0.1460
27731W        W70643  26.476  31.800  18.544 -0.0896  0.3461  0.2204
27732W        W70644  25.954  33.079  19.338  0.1759 -0.0585  0.0975
27733W        W70645  25.772  31.754  20.258  0.0095 -0.2758 -0.0308
27734W        W70646  26.906  29.075  16.488 -0.0406 -0.0393 -0.4599
27735W        W70647  29.585  30.851  20.783 -0.3317  0.2597 -0.2814
27736W        W70648  24.587  32.624  18.581  0.2806  0.0667 -0.0887
27737W        W70649  27.932  28.433  17.954  0.3238 -0.1161  0.1609
27738W        W70650  26.869  30.812  18.353  0.0066  0.0277 -0.1757
27739W        W70651  28.302  30.525  20.096 -0.3322 -0.1327 -0.4028
27740W        W70652  26.601  32.166  16.235  0.1080  0.2212 -0.0676
27741W        W70653  27.474  28.605  16.697  0.1009  0.1838 -0.1584
27742W        W70654  27.338  28.094  18.257  0.1071 -0.1567 -0.2463
27743W        W70655  27.130  30.859  16.907  0.1644  0.1052 -0.0594
27744W        W70656  28.048  31.668  17.075 -0.0853 -0.0640  0.0129
27745W        W70657  27.965  30.241  20.451  0.0790 -0.1168 -0.2946
27746W        W70658  28.000  30.673  17.018 -0.1172 -0.0911  0.2310
27747W        W70659  26.266  30.983  18.631 -0.1291  0.0049  0.1304
27748W        W70660  27.334  30.388  20.280  0.2329 -0.0620  0.0778
27749W        W70661  26.065  32.928  19.903 -0.1168  0.0656 -0.4657
27750W        W70662  25.516  33.032  15.721 -0.2313 -0.0366  0.3000
27751W        W70663  26.059  31.953  17.863  0.2134  0.2554 -0.0916
27752W        W70664  25.688  31.676  16.596  0.1576  0.2713  0.0233
27753W        W70665  26.245  30.080  17.492 -0.1065  0.1712  0.0848
27754W        W70666  26.530  33.378  18.745  0.0324  0.0755 -0.0118
27755W        W70667  27.605  29.346  16.696  0.1175 -0.0603  0.1943
27756W        W70668  25.257  29.381  18.180  0.3721  0.1202  0.0669
27757W        W70669  29.379  29.464  17.161  0.2026  0.4831  0.3922
27758W        W70670  27.623  32.038  18.433  0.2498 -0.2499  0.1920
27759W        W70671  28.988  33.630  17.834 -0.1387  0.2336 -0.0914
27760W        W70672  28.559  31.567  17.790  0.0040 -0.0610  0.2229
27761W        W70673  28.992  31.392  16.922 -0.1769 -0.2972  0.1847
27762W        W70674  25.231  31.410  18.990 -0.0268  0.0957 -0.0766
27763W        W70675  25.967  30.084  16.964  0.1157 -0.0931 -0.0571
27764W        W70676  26.529  30.510  19.853 -0.2914  0.1430 -0.0484
27765W        W70677  26.559  29.729  17.577  0.0387  0.4431 -0.1113
27766W        W70678  29.555  31.699  20.295 -0.0285  0.1619 -0.0183
27767W        W70679  25.878  29.284  16.659 -0.0997 -0.0472  0.2128
27768W        W70680  27.483  29.737  19.716 -0.2196  0.1087  0.0484
27769W        W70681  25.957  31.155  18.237  0.0208  0.0170 -0.2395
27770W        W70682  26.881  31.606  18.217  0.0425 -0.1729  0.2894
27771W        W70683  28.361  29.772  18.577  0.5446 -0.0002 -0.2758
27772W        W70684  26.598  32.182  17.161  0.0899  0.2663 -0.1119
27773W        W70685  29.582  32.867  19.961  0.1560 -0.0271  0.0376
27774W        W70686  28.924  32.373  16.844  0.1336  0.1757 -0.0145
27775W        W70687  26.876  29.748  19.074 -0.3316 -0.3663  0.0613
27776W        W70688  26.217  30.528  17.073 -0.0185 -0.2620  0.0906
27777W        W70689  25.262  33.050  17.431 -0.2043  0.4100  0.0396
27778W        W70690  26.643  32.652  16.928 -0.0174  0.2859  0.0340
27779W        W70691  26.390  29.165  16.635  0.0937 -0.0088 -0.1592
27780W        W70692  28.473  32.223  16.876  0.1250  0.0756 -0.1754
27781W        W70693  26.915  31.152  17.979 -0.2900  0.0074 -0.0986
27782W        W70694  26.400  31.395  18.856  0.0208 -0.0068  0.3805
27783W        W70695  27.755  29.558  19.187  0.0786 -0.1285  0.0677
27784W        W70696  28.806  31.880  19.910  0.0999  0.2290  0.0282
27785W        W70697  28.199  30.922  17.403  0.1058 -0.0631 -0.1469
27786W        W70698  26.625  28.695  16.744 -0.2786 -0.2549  0.0284
27787W        W70699  28.395  33.523  18.868  0.2434 -0.2082  0.3285
27788W        W70700  25.220  32.154  16.293 -0.2128 -0.4362  0.0523
27789W        W70701  25.763  29.947  17.433  0.0067 -0.0563  0.1127
27790W        W70702  27.155  32.320  18.348 -0.2220 -0.3520  0.3215
27791W        W70703  28.285  29.092  18.023  0.0497 -0.0413 -0.1042
27792W        W70704  25.368  31.935  19.097 -0.0523  0.0152 -0.0382
27793W        W70705  28.150  30.940  19.144 -0.1496  0.1557  0.0399
27794W        W70706  26.000  30.436  15.910  0.3558  0.0400  0.2454
27795W        W70707  25.191  32.805  19.522  0.1272  0.0666 -0.0373
27796W        W70708  27.279  29.590  17.988 -0.0207 -0.1897 -0.0390
27797W        W70709  28.319  29.490  17.188 -0.1388  0.0788 -0.1011
27798W        W70710  28.800  32.040  19.169  0.0536  0.0616 -0.2065
27799W        W70711  29.987  31.619  17.258 -0.1291 -0.2256  0.0383
27800W        W70712  27.751  31.169  16.418 -0.3814 -0.1221 -0.1039
27801W        W70713  27.861  28.574  17.479 -0.0590  0.4138  0.1709
27802W        W70714  25.008  31.926  19.964 -0.0269  0.0124  0.0464
27803W        W70715  27.573  31.382  17.790  0.0425 -0.3382 -0.2179
27804W        W70716  27.406  33.024  18.709  0.0438  0.0666 -0.2095
27805W        W70717  27.207  30.891  16.314 -0.0236 -0.2478 -0.5125
27806W        W70718  28.113  33.468  16.198 -0.3035 -0.0481 -0.1586
27807W        W70719  27.386  32.071  19.475  0.3078 -0.0300  0.3222
27808W        W70720  27.770  31.888  19.830  0.0511 -0.2242 -0.1469
27809W        W70721  27.454  32.837  17.652  0.1342  0.0222  0.1952
27810W        W70722  26.908  28.867  19.702 -0.1864  0.0820  0.0985
27811W        W70723  26.968  30.380  16.391 -0.0124  0.2038  0.1314
27812W        W70724  27.653  28.644  18.337  0.0383 -0.0292  0.1256
27813W        W70725  24.135  32.950  16.182  0.1926  0.3450 -0.0981
27814W        W70726  27.236  30.616  17.996  0.0421 -0.0685  0.2105
27815W        W70727  27.489  29.111  18.200  0.1494  0.0274 -0.2163
27816W        W70728  26.530  29.387  18.823 -0.0161 -0.1577  0.4049
27817W        W70729  28.687  30.786  18.297 -0.2489  0.0361  0.2170
27818W        W70730  26.984  30.081  17.629 -0.2370  0.0923  0.1422
27819W        W70731  26.972  29.546  17.447  0.1977 -0.0802  0.0266
27820W        W70732  26.858  31.310  16.294 -0.1731  0.0601 -0.2734
27821W        W70733  27.777  30.603  18.821 -0.0981  0.0829 -0.0731
27822W        W70734  25.875  32.608  19.599  0.0177  0.1606  0.7047
27823W        W70735  26.483  33.139  19.724  0.4098 -0.0971 -0.0377
27824W        W70736  27.601  32.976  19.849  0.2340 -0.3012  0.0206
27825W        W70737  28.504  34.268  19.215 -0.3924 -0.4062  0.1252
27826W        W70738  26.613  31.055  20.602 -0.3369 -0.0189 -0.2665
27827W        W70739  26.842  30.448  16.851 -0.0497  0.0258 -0.1349
27828W        W70740  27.791  31.244  17.345 -0.1348  0.3507  0.1462
27829W        W70741  28.214  32.051  16.461 -0.2950 -0.0025 -0.0071
27830W        W70742  25.659  29.305  18.561  0.3058 -0.7132  0.0970
27831W        W70743  27.695  32.630  18.479  0.0232  0.0729  0.1028
27832W        W70744  26.307  31.580  17.361 -0.1536 -0.0025  0.0203
27833W        W70745  27.738  33.409  19.583  0.0605  0.1201 -0.1340
27834W        W70746  27.523  32.443  18.014  0.2334 -0.1900  0.2698
27835W        W70747  28.730  28.829  19.168  0.2042  0.1013 -0.0473
27836W        W70748  25.764  31.670  18.111 -0.1050  0.0379 -0.0524
27837W        W70749  26.732  30.797  16.463  0.0492 -0.1399 -0.5674
27838W        W70750  26.119  29.570  17.526 -0.1410 -0.1295 -0.0876
27839W        W70751  27.201  29.516  16.514  0.0313  0.0980  0.0702
27840W        W70752  27.561  31.745  17.368 -0.1500 -0.0062 -0.2069
27841W        W70753  27.265  30.820  19.549 -0.1535  0.4481  0.0706
27842W        W70754  28.177  29.035  19.910 -0.1300 -0.0722 -0.0900
27843W        W70755  25.600  32.224  18.267 -0.1526 -0.2326 -0.0837
27844W        W70756  28.465  31.399  19.274 -0.0084 -0.0560  0.1440
27845W        W70757  28.894  29.098  18.455 -0.1277 -0.1288  0.0681
27846W        W70758  28.521  31.744  18.826 -0.1223  0.1671  0.0552
27847W        W70759  27.804  32.458  19.716 -0.1603  0.2887  0.0218
27848W        W70760  26.347  29.347  17.915  0.0073 -0.0390  0.2827
27849W        W70761  28.803  31.420  19.621  0.0096  0.1804  0.0739
27850W        W70762  26.676  30.270  17.293 -0.2556  0.3598 -0.2037
27851W        W70763  27.335  31.776  18.099  0.0244 -0.0534  0.0188
27852W        W70764  27.785  31.116  18.797  0.4061 -0.2083 -0.0691
27853W        W70765  26.137  31.900  16.399  0.0950  0.2018  0.1494
27854W        W70766  26.952  31.218  18.676 -0.0626 -0.0192  0.2635
27855W        W70767  27.843  30.145  19.333  0.0863  0.1058  0.1770
27856W        W70768  29.450  30.918  18.259  0.0878  0.3283  0.1428
27857W        W70769  26.851  29.212  17.802 -0.1963  0.0928 -0.0382
27858W        W70770  26.521  29.226  17.423 -0.0576  0.1196 -0.1395
27859W        W70771  27.150  30.051  17.202 -0.4114 -0.1249  0.2689
27860W        W70772  27.506  32.585  16.984 -0.3301 -0.1398  0.1997
27861W        W70773  27.933  30.767  19.549  0.0286  0.2780 -0.0678
27862W        W70774  26.011  32.718  20.360 -0.2399 -0.1181 -0.2584
27863W        W70775  27.945  29.041  18.500  0.2300 -0.3311 -0.0066
27864W        W70776  28.742  32.838  16.679  0.2896 -0.0870  0.1652
27865W        W70777  27.627  31.082  19.803 -0.2170 -0.0855  0.1364
27866W        W70778  27.164  31.371  16.723 -0.0230  0.1821 -0.5194
27867W        W70779  25.739  32.305  20.617 -0.1016 -0.2786 -0.2032
27868W        W70780  26.696  31.341  17.250  0.1361  0.3401 -0.0488
27869W        W70781  27.044  29.843  18.577  0.1941 -0.4170  0.1326
27870W        W70782  25.866  32.190  19.341  0.2021  0.0288  0.3773
27871W        W70783  26.797  32.308  18.868  0.0035  0.0311 -0.0170
27872W        W70784  25.058  32.162  19.447 -0.1127  0.0081  0.2785
27873W        W70785  28.162  30.085  16.955 -0.1577  0.1420 -0.3107
27874W        W70786  27.742  32.036  16.702 -0.0926  0.0473 -0.3335
27875W        W70787  26.657  30.591  19.347 -0.0981 -0.3183 -0.0590
27876W        W70788  30.061  28.685  19.340 -0.1064  0.2623  0.0039
27877W        W70789  26.843  32.190  16.686 -0.1521 -0.3189 -0.5550
27878W        W70790  27.878  28.870  20.875  0.0150  0.1997  0.1388
27879W        W70791  25.709  30.139  18.762  0.1592 -0.1593 -0.1122
27880W        W70792  28.715  33.047  17.219  0.1766 -0.2927  0.1371
27881W        W70793  26.257  29.804  17.992 -0.1506 -0.0350 -0.2085
27882W        W70794  27.201  33.639  21.159 -0.6275 -0.3915 -0.0639
27883W        W70795  27.109  32.635  21.122  0.2561  0.2790 -0.1700
27884W        W70796  26.789  29.675  18.150  0.0734 -0.1265  0.0728
27885W        W70797  27.024  28.568  16.439 -0.0036  0.0509  0.4362
27886W        W70798  26.235  30.692  19.535 -0.3453 -0.0306 -0.1229
27887W        W70799  28.143  32.762  19.712 -0.0922  0.1737 -0.0508
27888W        W70800  27.580  32.469  16.453  0.1918 -0.0073  0.0567
27889W        W70801  28.940  30.337  18.020  0.2380 -0.1732  0.0637
27890W        W70802  26.342  31.575  19.336  0.1651  0.0570 -0.0317
27891W        W70803  29.459  32.219  18.721  0.2621 -0.0825 -0.2119
27892W        W70804  28.051  30.604  16.197 -0.0551  0.2143  0.1760
27893W        W70805  26.747  31.721  16.826  0.1372 -0.2902 -0.2555
27894W        W70806  28.357  29.089  19.448 -0.2622 -0.3375 -0.0270
27895W        W70807  29.248  32.246  19.408  0.2752 -0.0682  0.0079
27896W        W70808  28.433  29.073  18.659 -0.1253 -0.2666  0.1775
27897W        W70809  27.897  29.487  18.733  0.0995  0.0453  0.1175
27898W        W70810  28.884  31.194  18.076  0.0436  0.0583  0.3251
27899W        W70811  25.823  29.650  20.703 -0.0612  0.3169  0.1725
27900W        W70812  25.932  31.171  19.240  0.0911 -0.0257 -0.0630
27901W        W70813  28.337  32.502  17.318  0.1333  0.2014 -0.0691
27902W        W70814  27.696  29.836  17.850 -0.1786 -0.2738  0.0176
27903W        W70815  27.553  29.760  18.399  0.1242  0.1731  0.0182
27904W        W70816  28.815  29.568  18.767  0.0769 -0.1472  0.0084
27905W        W70817  27.610  30.689  16.577  0.2787  0.0530  0.4318
27906W        W70818  25.929  29.961  19.707  0.0375 -0.1630 -0.1718
27907W        W70819  27.167  30.400  20.804 -0.2408  0.3528 -0.2541
27908W        W70820  26.265  29.579  16.946  0.1959 -0.0457  0.1864
27909W        W70821  28.981  30.371  18.525 -0.1819 -0.1398  0.0103
27910W        W70822  27.226  33.144  17.015  0.2120  0.2908  0.2298
27911W        W70823  28.475  31.271  17.168  0.1462  0.0145  0.5088
27912W        W70824  27.232  29.545  17.069 -0.0003 -0.1971  0.1166
27913W        W70825  26.315  31.132  17.079 -0.1260 -0.0115  0.0071
27914W        W70826  25.474  32.977  19.110  0.1298 -0.0161 -0.1624
27915W        W70827  26.725  29.546  16.525 -0.1179  0.1658  0.0155
27916W        W70828  27.580  31.000  16.959 -0.1326 -0.1238 -0.0479
27917W        W70829  28.179  31.937  18.556 -0.1983  0.2460 -0.0820
27918W        W70830  28.524  29.545  21.704  0.0737  0.0622  0.1887
27919W        W70831  27.871  27.517  16.127  0.1000  0.0727 -0.0008
27920W        W70832  28.820  31.030  19.978 -0.0083  0.3302 -0.0140
27921W        W70833  25.278  32.339  17.918 -0.0474 -0.1962  0.0056
27922W        W70834  26.693  29.748  17.087 -0.0721 -0.0564 -0.1960
27923W        W70835  25.284  31.831  18.089  0.0504  0.0287  0.0436
27924W        W70836  25.123  31.745  18.599 -0.0083  0.2057  0.4023
27925W        W70837  27.566  32.403  17.451 -0.1025 -0.1473 -0.3080
27926W        W70838  28.159  29.563  19.564 -0.0444  0.0258 -0.1113
27927W        W70839  27.132  29.333  19.736  0.0701 -0.2841 -0.2390
27928W        W70840  27.147  29.915  20.478 -0.0593 -0.1589 -0.2018
27929W        W70841  28.416  30.980  19.650 -0.0322  0.0614 -0.1462
27930W        W70842  27.415  32.194  19.946  0.2141  0.1339 -0.0201
27931W        W70843  26.804  30.666  17.800  0.0310 -0.0252  0.3261
27932W        W70844  27.441  30.895  20.211 -0.0880  0.1716 -0.1583
27933W        W70845  28.709  32.098  17.785  0.1707  0.2171  0.1390
27934W        W70846  25.970  31.499  18.661  0.0289 -0.0379  0.0509
27935W        W70847  26.580  32.044  20.272  0.2664 -0.0627  0.1195
27936W        W70848  27.908  32.013  19.293  0.1039 -0.1943  0.1677
27937W        W70849  27.628  31.492  16.809  0.6051  0.1554 -0.1189
27938W        W70850  26.514  28.757  17.330  0.1681 -0.1462 -0.1834
27939W        W70851  26.655  32.594  16.402  0.1054  0.1397 -0.0259
27940W        W70852  24.680  32.660  18.113  0.0162 -0.1216  0.0449
27941W        W70853  25.707  31.885  19.774 -0.0480 -0.0381 -0.1278
27942W        W70854  25.565  33.325  16.425 -0.2945  0.0307 -0.2073
27943W        W70855  28.159  31.871  18.057 -0.0323  0.0256 -0.0844
27944W        W70856  28.466  30.280  17.771 -0.2217 -0.0454 -0.0878
27945W        W70857  27.879  33.165  17.601 -0.0884 -0.0710  0.1249
27946W        W70858  27.380  30.314  16.818  0.1406 -0.0139 -0.0099
27947W        W70859  25.192  31.767  16.669  0.1850 -0.2596  0.0813
27948W        W70860  25.044  31.591  16.028 -0.0880 -0.0742  0.0410
27949W        W70861  27.530  32.973  16.572 -0.2125 -0.0662  0.2946
27950W        W70862  26.651  32.212  18.249 -0.1693  0.0220 -0.0004
27951W        W70863  27.642  31.215  21.155  0.2204 -0.2059  0.1878
27952W        W70864  29.113  29.103  16.949  0.4086 -0.1381 -0.0307
27953W        W70865  28.397  29.431  17.642 -0.0675  0.0575  0.1092
27954W        W70866  28.318  30.331  18.837 -0.3005  0.1192  0.1498
27955W        W70867  27.754  33.559  17.933  0.0151 -0.0145  0.1188
27956W        W70868  28.014  31.534  19.060 -0.0695  0.0176  0.0998
27957W        W70869  27.874  30.277  16.615  0.3422  0.3602 -0.2140
27958W        W70870  26.851  31.796  21.332 -0.1514 -0.2649 -0.1262
27959W        W70871  30.772  29.198  19.356  0.0511 -0.4425 -0.0737
27960W        W70872  24.234  33.100  20.173 -0.0325 -0.0123  0.1160
27961W        W70873  27.943  32.169  17.210  0.0532 -0.0615 -0.4489
27962W        W70874  25.534  28.612  17.389  0.1920  0.1449  0.1037
27963W        W70875  28.148  30.670  18.038 -0.2452 -0.1330  0.0536
27964W        W70876  29.084  29.479  18.211  0.1814 -0.0784  0.1303
27965W        W70877  27.358  31.495  16.319 -0.0712 -0.0731  0.0762
27966W        W70878  28.045  29.113  18.995 -0.1646  0.3207 -0.3135
27967W        W70879  27.943  32.803  17.256 -0.2272  0.0297  0.2185
27968W        W70880  26.618  31.884  19.038 -0.2442  0.1333 -0.1003
27969W        W70881  25.919  33.714  18.206  0.0358 -0.0895 -0.0112
27970W        W70882  26.273  29.645  16.252  0.2987 -0.1903  0.0273
27971W        W70883  28.208  29.907  17.899 -0.1834 -0.0768  0.2120
27972W        W70884  27.155  31.896  20.351  0.4081 -0.1116 -0.0567
27973W        W70885  28.665  29.845  19.405 -0.3449  0.1752  0.1526
27974W        W70886  26.442  32.230  17.652 -0.2142 -0.0861  0.4583
27975W        W70887  28.009  29.586  18.243 -0.1716  0.1739 -0.2499
27976W        W70888  27.451  31.887  18.990 -0.0228 -0.1292 -0.0496
27977W        W70889  25.565  31.563  19.309  0.2641  0.0330  0.2431
27978W        W70890  27.147  30.511  17.287 -0.2088  0.1538 -0.0907
27979W        W70891  29.079  31.759  19.475 -0.0080 -0.2704  0.0387
27980W        W70892  28.696  31.372  16.369 -0.0045 -0.1653 -0.1826
27981W        W70893  27.932  32.850  18.868  0.1538  0.3111  0.0179
27982W        W70894  26.697  30.221  18.976 -0.1315 -0.1186  0.4130
27983W        W70895  28.041  31.154  16.908  0.0149  0.0526 -0.2820
27984W        W70896  24.954  31.411  18.119 -0.2360  0.1704  0.1126
27985W        W70897  27.123  31.258  20.578  0.1383 -0.1181  0.2685
27986W        W70898  30.445  33.022  20.525  0.2901 -0.1278 -0.1098
27987W        W70899  26.625  28.199  16.574  0.1568 -0.1868 -0.0027
27988W        W70900  28.626  33.309  16.327  0.0347  0.1729  0.2780
27989W        W70901  29.046  31.028  18.559 -0.1923 -0.0256  0.0776
27990W        W70902  25.455  32.319  16.727  0.1570 -0.1536 -0.0625
27991W        W70903  28.742  30.529  17.431 -0.3160 -0.3090  0.2485
27992W        W70904  27.046  33.377  18.575 -0.3551 -0.2879  0.3410
27993W        W70905  25.264  29.602  18.875 -0.0475 -0.2298  0.0070
27994W        W70906  28.357  31.830  19.532  0.2706  0.1733 -0.4187
27995W        W70907  28.761  30.940  19.296  0.2213  0.2773 -0.1696
27996W        W70908  26.742  29.253  16.996 -0.2975 -0.3271  0.0758
27997W        W70909  25.618  29.519  17.603 -0.3592  0.0687  0.1735
27998W        W70910  25.899  33.661  16.641 -0.4201  0.2236 -0.1144
27999W        W70911  27.905  29.398  17.785  0.0020  0.2185  0.0639
28000W        W70912  27.691  30.522  18.298 -0.1921  0.2602  0.0988
28001W        W70913  26.897  31.788  17.274 -0.0968 -0.0270 -0.2335
28002W        W70914  27.875  30.076  18.746 -0.0491  0.0585 -0.0646
28003W        W70915  27.024  33.606  17.376 -0.0799 -0.1586  0.2161
28004W        W70916  26.360  32.683  19.566 -0.0315  0.2280 -0.1357
28005W        W70917  25.372  31.330  16.808  0.1279 -0.0905  0.0839
28006W        W70918  28.032  32.357  18.201  0.0614 -0.0036 -0.2173
28007W        W70919  26.817  32.378  19.993 -0.0286 -0.0691 -0.0179
28008W        W70920  25.403  32.538  17.432 -0.0359 -0.3273 -0.1793
28009W        W70921  28.231  32.862  18.277 -0.0340  0.2522 -0.0773
28010W        W70922  27.242  30.087  18.110 -0.0705 -0.0980  0.0975
28011W        W70923  29.414  33.244  19.412 -0.1462  0.1233  0.1752
28012W        W70924  26.293  29.057  19.293  0.1260  0.1697  0.0077
28013W        W70925  27.424  28.511  17.193  0.0229  0.0639 -0.1478
28014W        W70926  27.681  29.831  16.987 -0.1378 -0.0918 -0.1036
28015W        W70927  26.005  31.845  18.981 -0.1250  0.1710 -0.0920
28016W        W70928  26.235  30.894  16.615 -0.1144  0.1099  0.3610
28017W        W70929  25.417  32.363  15.871 -0.2541 -0.2012 -0.1352
28018W        W70930  26.738  30.705  18.833  0.1934 -0.1085  0.2251
28019W        W70931  26.853  29.652  20.135 -0.1738 -0.1354 -0.2961
28020W        W70932  26.996  30.809  20.473 -0.1234  0.0925  0.1054
28021W        W70933  27.299  30.755  18.686 -0.0360 -0.0850  0.1710
28022W        W70934  26.280  28.107  17.020  0.2039  0.1893  0.0224
28023W        W70935  29.549  31.912  16.315  0.2617 -0.2905 -0.0340
28024W        W70936  26.710  28.324  17.096 -0.2004  0.2228  0.2595
28025W        W70937  24.284  29.102  17.079 -0.0577  0.4652 -0.0230
28026W        W70938  28.042  32.537  16.658  0.0313 -0.0182  0.2427
28027W        W70939  27.811  31.531  18.189  0.1943 -0.1445  0.0179
28028W        W70940  26.715  30.114  18.057 -0.1014 -0.1308 -0.0250
28029W        W70941  29.738  32.281  19.597 -0.0435 -0.1956 -0.1214
28030W        W70942  26.565  31.090  17.652 -0.0669 -0.1565  0.0835
28031W        W70943  27.493  30.977  20.753  0.1454 -0.0477 -0.1913
28032W        W70944  25.875  30.330  19.375 -0.4346 -0.1279  0.0730
28033W        W70945  25.869  29.918  16.148  0.2284 -0.2017  0.2852
28034W        W70946  26.586  29.201  18.354  0.0669 -0.0534 -0.0528
28035W        W70947  28.129  31.158  17.829 -0.1916 -0.1177  0.1738
28036W        W70948  26.558  34.381  17.308 -0.0818  0.1707 -0.1111
28037W        W70949  27.367  31.028  18.219 -0.2147  0.2131 -0.1153
28038W        W70950  26.248  33.242  18.339  0.1629 -0.1549 -0.2908
28039W        W70951  26.380  28.245  18.145 -0.1234 -0.0978  0.1307
28040W        W70952  27.355  32.367  18.807  0.0585  0.0094  0.0034
28041W        W70953  27.889  32.289  18.824 -0.0399 -0.0154 -0.2033
28042W        W70954  28.434  31.965  17.340 -0.2213  0.0543  0.0073
28043W        W70955  28.717  30.038  18.908 -0.1546 -0.0837 -0.2426
28044W        W70956  27.907  31.076  18.297  0.0309 -0.0222 -0.1787
28045W        W70957  26.053  30.409  19.971 -0.0004 -0.1500 -0.1489
28046W        W70958  27.621  31.629  19.422  0.1203 -0.2017 -0.2451
28047W        W70959  29.348  32.027  19.975  0.0498  0.1715  0.1689
28048W        W70960  25.324  29.399  16.767 -0.1137 -0.4533 -0.1214
28049W        W70961  27.433  29.786  17.454  0.0826 -0.0897 -0.1721
28050W        W70962  27.183  32.214  17.138  0.0353 -0.1776 -0.0088
28051W        W70963  24.596  32.142  19.728 -0.0052 -0.1488  0.3610
28052W        W70964  27.638  30.705  17.399  0.1303  0.2675 -0.1117
28053W        W70965  28.098  31.005  20.035 -0.0975 -0.2359  0.1781
28054W        W70966  28.690  33.268  19.175  0.0777 -0.3291  0.0775
28055W        W70967  28.483  31.183  18.686 -0.3916  0.1186 -0.0451
28056W        W70968  27.701  30.896  17.865  0.2769 -0.1108 -0.3751
28057W        W70969  28.873  31.192  17.522 -0.2939  0.1061  0.1460
28058W        W70970  26.911  33.172  19.037 -0.0826  0.1893  0.0469
28059W        W70971  30.422  32.013  20.035 -0.1704  0.1341  0.0510
28060W        W70972  26.704  33.562  18.250 -0.3729  0.0220 -0.2041
28061W        W70973  29.075  30.793  17.879  0.0987 -0.1964 -0.0873
28062W        W70974  26.495  29.598  19.387 -0.1153 -0.2159 -0.0014
28063W        W70975  26.440  29.944  16.694 -0.1902 -0.2220 -0.0851
28064W        W70976  26.274  31.902  16.985 -0.0519  0.0799 -0.1473
28065W        W70977  29.037  30.070  17.478  0.0554  0.2098 -0.1491
28066W        W70978  27.146  31.774  19.859 -0.4111  0.1670 -0.1324
28067W        W70979  27.439  30.242  17.685  0.0778 -0.0502  0.3894
28068W        W70980  25.711  33.137  18.335 -0.0051 -0.0539 -0.1445
28069W        W70981  28.333  32.583  18.673 -0.1499  0.1698 -0.3181
28070W        W70982  26.386  32.231  23.660  0.1822  0.0329  0.5045
28071W        W70983  26.233  29.636  22.511  0.4739 -0.0762 -0.2940
28072W        W70984  27.497  30.444  19.720  0.1620  0.0121  0.0369
28073W        W70985  27.836  32.415  21.753 -0.0433 -0.1436  0.0989
28074W        W70986  25.423  30.540  19.300 -0.0752  0.0449  0.1398
28075W        W70987  27.126  33.558  20.279  0.1709 -0.2725 -0.1623
28076W        W70988  25.310  31.074  22.370  0.2332 -0.0708 -0.2349
28077W        W70989  28.207  31.551  21.752 -0.2649 -0.0098  0.0075
28078W        W70990  27.743  31.659  22.355 -0.5514 -0.0512 -0.1829
28079W        W70991  27.608  31.744  21.207 -0.0022 -0.0998 -0.2234
28080W        W70992  27.261  30.393  21.872  0.1692 -0.0124 -0.1819
28081W        W70993  26.380  31.628  21.516 -0.1766 -0.0950 -0.0258
28082W        W70994  26.834  29.344  20.682  0.2917 -0.1239  0.0137
28083W        W70995  25.074  28.949  24.125 -0.1461 -0.0334  0.1079
28084W        W70996  26.456  30.706  22.308 -0.1658 -0.1552 -0.4516
28085W        W70997  25.871  31.892  22.026 -0.2356 -0.1802  0.0560
28086W        W70998  27.240  30.607  23.168 -0.0713  0.1189  0.0886
28087W        W70999  26.975  30.223  19.493 -0.1356  0.1413 -0.1167
28088W        W71000  25.852  32.423  21.792 -0.1687  0.3261 -0.1481
28089W        W71001  25.831  29.794  22.763  0.0521  0.2786 -0.1317
28090W        W71002  29.479  29.882  23.598  0.0355 -0.1186  0.2321
28091W        W71003  26.850  33.262  20.875  0.2015 -0.1334  0.1093
28092W        W71004  25.382  31.601  20.004  0.1670 -0.0442  0.0708
28093W        W71005  25.439  31.340  20.455 -0.2712  0.2576 -0.0729
28094W        W71006  27.818  31.662  22.827 -0.0966  0.1890 -0.0641
28095W        W71007  27.683  31.699  23.777 -0.1529 -0.0713  0.0049
28096W        W71008  28.608  31.166  21.658 -0.0217  0.1766  0.3110
28097W        W71009  26.166  32.533  22.154 -0.0680  0.0124  0.0891
28098W        W71010  27.245  31.487  21.019  0.1712 -0.0489 -0.2833
28099W        W71011  28.140  30.839  22.580  0.1371 -0.1241 -0.1147
28100W        W71012  23.780  30.868  20.024  0.0106 -0.3909 -0.0233
28101W        W71013  25.255  32.967  21.009 -0.0913 -0.2688  0.0703
28102W        W71014  26.782  31.472  19.694  0.1320 -0.2574  0.0146
28103W        W71015  27.174  31.089  21.412  0.1536  0.4080 -0.3906
28104W        W71016  28.038  32.081  22.448 -0.1833  0.0050  0.0946
28105W        W71017  26.360  34.170  22.989  0.0362  0.0245  0.1035
28106W        W71018  24.187  32.689  19.507 -0.0481  0.0431 -0.4011
28107W        W71019  27.375  32.710  22.528  0.0558  0.0970  0.0213
28108W        W71020  26.589  32.489  21.923 -0.1098  0.1929 -0.2964
28109W        W71021  26.893  32.384  22.334  0.1933 -0.0833  0.2955
28110W        W71022  26.716  30.520  20.953  0.0911  0.1590  0.2066
28111W        W71023  26.260  34.279  19.206  0.0426  0.1200  0.2375
28112W        W71024  26.431  31.106  22.727 -0.1967 -0.0739 -0.2525
28113W        W71025  25.735  31.217  24.535 -0.0791  0.3007  0.3246
28114W        W71026  27.152  31.129  22.434 -0.0201 -0.1295  0.0746
28115W        W71027  29.897  31.048  23.064  0.2078 -0.2534 -0.0803
28116W        W71028  26.605  32.078  19.662 -0.1039 -0.3975  0.0404
28117W        W71029  27.990  30.768  20.980 -0.0682  0.1877 -0.1415
28118W        W71030  26.330  29.767  20.511 -0.2144 -0.0655  0.3628
28119W        W71031  29.391  30.113  18.635  0.1054 -0.0091  0.0768
28120W        W71032  27.337  29.573  22.106  0.0099 -0.0607  0.1675
28121W        W71033  26.297  34.339  21.576  0.0209  0.0796 -0.2486
28122W        W71034  26.935  30.822  22.737  0.1889  0.2609 -0.3773
28123W        W71035  28.551  30.713  21.927  0.1154 -0.2155 -0.0286
28124W        W71036  26.501  31.121  21.750  0.1406  0.1469  0.1376
28125W        W71037  27.541  29.979  21.763  0.1264  0.0533  0.4634
28126W        W71038  27.376  31.943  23.033  0.1498 -0.0542 -0.0606
28127W        W71039  25.724  30.716  20.254  0.2494  0.1104 -0.4096
28128W        W71040  28.320  32.173  19.095  0.2531  0.0294 -0.3665
28129W        W71041  28.239  32.175  20.100  0.0682  0.0251 -0.0062
28130W        W71042  29.156  30.936  20.474 -0.1165 -0.0574  0.2756
28131W        W71043  25.965  30.610  21.999 -0.1959  0.3717  0.1477
28132W        W71044  26.023  30.833  24.379 -0.0919 -0.2072 -0.2335
28133W        W71045  25.641  30.363  22.826 -0.2165  0.2954  0.0867
28134W        W71046  25.824  29.004  21.578  0.0681  0.0807 -0.2797
28135W        W71047  28.879  32.067  22.236  0.0668 -0.0074 -0.1352
28136W        W71048  26.971  32.202  23.337 -0.1444  0.0483  0.1355
28137W        W71049  29.093  30.092  21.102  0.0563 -0.2297 -0.0170
28138W        W71050  26.184  31.847  21.099  0.0900  0.2016  0.0873
28139W        W71051  27.584  30.701  22.777 -0.1148  0.1096 -0.2903
28140W        W71052  27.787  31.443  21.550  0.1194 -0.4667 -0.0155
28141W        W71053  27.925  29.937  21.381 -0.0178 -0.1800  0.0189
28142W        W71054  28.559  30.062  23.153  0.1075  0.1383  0.2576
28143W        W71055  26.237  33.375  20.113  0.2145 -0.0793 -0.3820
28144W        W71056  26.716  31.322  21.281  0.0757 -0.2388  0.1277
28145W        W71057  28.466  31.551  20.792  0.1473  0.1260  0.3262
28146W        W71058  27.556  29.931  20.183 -0.3460  0.1565 -0.2116
28147W        W71059  25.872  32.038  23.535 -0.1258 -0.0926  0.3249
28148W        W71060  26.654  31.054  23.881  0.0611  0.1857 -0.1650
28149W        W71061  26.812  33.045  23.391 -0.1350 -0.0466  0.1850
28150W        W71062  25.626  32.684  20.061  0.3271  0.1518  0.0947
28151W        W71063  26.014  32.006  21.588  0.5426  0.0723 -0.1062
28152W        W71064  25.852  33.725  20.763 -0.2567 -0.1040 -0.1424
28153W        W71065  25.358  29.425  22.359  0.0207 -0.2233  0.3112
28154W        W71066  25.900  31.459  21.730  0.1764 -0.0647  0.1415
28155W        W71067  28.733  28.684  21.394 -0.1494  0.0476 -0.1718
28156W        W71068  26.584  31.387  23.526 -0.0209  0.2282 -0.0836
28157W        W71069  27.134  29.833  22.715  0.0095 -0.1013  0.0059
28158W        W71070  26.312  31.209  19.649 -0.2579 -0.1708 -0.0840
28159W        W71071  27.277  33.628  19.462  0.1672  0.2885 -0.3065
28160W        W71072  27.757  32.127  20.298  0.0078 -0.3688 -0.1928
28161W        W71073  27.605  31.651  20.652  0.1455  0.0379 -0.0235
28162W        W71074  25.842  30.568  21.109 -0.0942  0.0053 -0.1537
28163W        W71075  26.525  30.088  22.409 -0.0327 -0.0555 -0.0925
28164W        W71076  25.465  29.125  23.274  0.0989 -0.1904  0.2578
28165W        W71077  25.122  30.170  22.009 -0.2535 -0.2381  0.3460
28166W        W71078  29.201  30.433  21.755  0.1008 -0.2751  0.1676
28167W        W71079  27.279  30.184  21.408  0.1971  0.0155  0.2223
28168W        W71080  28.998  30.762  21.326 -0.0408 -0.2384 -0.0829
28169W        W71081  26.365  30.072  19.614 -0.1498  0.0374 -0.0167
28170W        W71082  24.837  31.751  20.505  0.1376 -0.4708  0.3502
28171W        W71083  28.661  30.347  22.670 -0.2396 -0.0031  0.1040
28172W        W71084  27.108  33.052  19.877 -0.0541  0.2135 -0.1279
28173W        W71085  27.819  32.530  22.730 -0.0052  0.1236 -0.1647
28174W        W71086  27.141  33.030  21.676  0.2879  0.0966 -0.0049
28175W        W71087  25.587  30.544  21.595 -0.1863 -0.2941 -0.2910
28176W        W71088  26.770  30.051  20.753  0.0668  0.0921  0.4133
28177W        W71089  25.664  31.995  21.041 -0.0685 -0.2516  0.1044
28178W        W71090  26.411  31.993  21.881  0.4285 -0.1056 -0.0751
28179W        W71091  25.424  30.352  20.276  0.0267  0.0552 -0.2828
28180W        W71092  29.236  32.732  21.566 -0.0500 -0.0477  0.0912
28181W        W71093  27.654  30.802  22.294 -0.0226  0.0633  0.1415
28182W        W71094  24.697  30.753  21.159  0.2305 -0.2171  0.0634
28183W        W71095  27.789  29.331  22.783  0.1274 -0.2024 -0.0075
28184W        W71096  28.009  32.063  23.015 -0.2023  0.4879 -0.5461
28185W        W71097  26.992  29.946  22.256  0.5724  0.1093  0.1825
28186W        W71098  26.342  29.256  20.359  0.3805 -0.0169  0.1394
28187W        W71099  27.644  33.821  20.902  0.2192 -0.3681 -0.1114
28188W        W71100  26.102  33.213  20.587  0.0590  0.1469  0.0910
28189W        W71101  23.261  31.256  20.733  0.0689  0.2503 -0.2368
28190W        W71102  28.391  32.895  20.584  0.0875  0.2609 -0.3514
28191W        W71103  27.706  30.439  21.615  0.1773  0.0221 -0.0198
28192W        W71104  25.847  31.302  25.031 -0.0315  0.1421 -0.4101
28193W        W71105  27.239  30.058  23.232  0.1928  0.3000 -0.4113
28194W        W71106  26.314  32.410  20.582 -0.0863 -0.1788  0.0455
28195W        W71107  26.030  32.987  21.937 -0.1427  0.1705  0.0025
28196W        W71108  29.400  29.973  21.626 -0.1321  0.1542 -0.1680
28197W        W71109  29.039  28.972  20.413  0.1690  0.1343 -0.1671
28198W        W71110  26.937  30.823  23.524  0.0417  0.2704  0.4518
28199W        W71111  28.548  32.604  20.185  0.2136 -0.0224 -0.0140
28200W        W71112  28.664  30.146  20.828  0.0497  0.0694 -0.1639
28201W        W71113  27.956  29.641  19.992 -0.2823  0.1418 -0.1916
28202W        W71114  27.131  31.768  23.680 -0.0360  0.1286  0.2538
28203W        W71115  28.295  32.658  21.568  0.0648 -0.0235 -0.1120
28204W        W71116  27.191  31.626  22.270 -0.1361  0.1833  0.1944
28205W        W71117  25.935  29.532  21.402 -0.0896  0.0450 -0.1075
28206W        W71118  27.412  33.323  17.473 -0.1517 -0.0082  0.1353
28207W        W71119  25.060  31.577  20.966  0.1555 -0.0908  0.0057
28208W        W71120  27.352  30.753  23.751 -0.2076  0.0613  0.3775
28209W        W71121  27.673  33.429  21.176  0.1178  0.3512 -0.3211
28210W        W71122  25.030  30.156  22.630  0.0629  0.0820  0.1780
28211W        W71123  26.773  31.409  19.174 -0.1011  0.0199  0.0157
28212W        W71124  25.759  29.356  21.902  0.3188 -0.0679 -0.2530
28213W        W71125  26.879  32.339  20.505 -0.0760  0.0712 -0.2968
28214W        W71126  29.594  31.761  22.817 -0.0517  0.1831 -0.1534
28215W        W71127  27.683  29.800  22.577  0.0586 -0.1294 -0.1915
28216W        W71128  26.640  30.438  23.749  0.0215 -0.0666  0.0131
28217W        W71129  28.894  32.489  24.405 -0.0210 -0.1286 -0.2047
28218W        W71130  27.505  29.711  21.326 -0.1952 -0.2252 -0.2261
28219W        W71131  25.696  31.783  22.691  0.0210 -0.0747  0.1287
28220W        W71132  27.364  31.401  19.002  0.2573  0.2355  0.2386
28221W        W71133  27.712  29.813  24.287  0.0289 -0.1556 -0.2950
28222W        W71134  25.565  31.804  23.168  0.1022 -0.1555 -0.0052
28223W        W71135  25.310  31.443  23.714  0.1571  0.1405 -0.0936
28224W        W71136  27.111  30.327  23.655 -0.3840 -0.2841 -0.0299
28225W        W71137  26.947  29.744  21.602 -0.5211 -0.0539 -0.2847
28226W        W71138  27.969  30.227  23.165 -0.1570 -0.1266  0.4603
28227W        W71139  27.395  29.549  18.815 -0.2778 -0.1977 -0.3715
28228W        W71140  26.923  32.278  19.380  0.1526  0.2095  0.3044
28229W        W71141  26.439  32.872  20.163 -0.0755 -0.0047 -0.0434
28230W        W71142  26.657  29.482  22.727  0.1393  0.0925 -0.1684
28231W        W71143  25.718  32.221  22.358 -0.0761 -0.0941  0.2248
28232W        W71144  27.392  32.342  20.579  0.3097 -0.4133 -0.3013
28233W        W71145  28.422  31.135  23.023  0.0211  0.0054 -0.0052
28234W        W71146  24.679  31.087  21.512  0.2267 -0.2196 -0.1196
28235W        W71147  29.731  28.572  21.965  0.0595 -0.4790  0.0775
28236W        W71148  24.894  31.350  22.300  0.1218 -0.0100 -0.0727
28237W        W71149  26.258  29.971  19.115 -0.4868 -0.0104  0.0722
28238W        W71150  26.751  31.523  20.234 -0.1646  0.0295 -0.1842
28239W        W71151  27.937  30.389  22.611 -0.1150  0.0728 -0.1040
28240W        W71152  28.315  29.980  21.889 -0.2908  0.2956  0.1400
28241W        W71153  25.150  29.601  19.817  0.4241  0.4852 -0.2260
28242W        W71154  26.695  28.957  21.202  0.0162  0.2760 -0.2950
28243W        W71155  26.229  31.615  22.589  0.2076 -0.1013  0.3481
28244W        W71156  27.589  29.815  23.548 -0.2578  0.1510 -0.2064
28245W        W71157  29.727  29.079  19.540 -0.3509  0.0681 -0.0871
28246W        W71158  28.499  30.795  21.360  0.4643  0.1027  0.0326
28247W        W71159  25.609  30.270  24.154  0.3897  0.0872  0.1510
28248W        W71160  24.845  30.703  20.578 -0.0665  0.2712  0.0392
28249W        W71161  28.369  28.699  23.353  0.1151  0.0075 -0.1437
28250W        W71162  26.592  31.210  22.269  0.0598 -0.0361 -0.0230
28251W        W71163  25.975  32.336  21.198 -0.0224  0.0186  0.1555
28252W        W71164  27.152  31.223  21.943  0.1886 -0.2940 -0.0202
28253W        W71165  26.455  30.967  19.139  0.0612 -0.1114 -0.0105
28254W        W71166  25.038  32.513  20.998 -0.0526 -0.2373  0.0568
28255W        W71167  26.295  30.337  23.361  0.0719  0.1619 -0.1975
28256W        W71168  28.482  31.890  22.518  0.0268  0.0218 -0.2286
28257W        W71169  26.488  31.562  23.067 -0.0474 -0.1366 -0.1011
28258W        W71170  26.422  29.895  21.500  0.2444 -0.1921 -0.1660
28259W        W71171  27.905  29.503  20.924  0.3428 -0.3430  0.1309
28260W        W71172  27.308  31.088  22.978 -0.2106 -0.3949 -0.2255
28261W        W71173  26.944  29.829  24.159  0.1167 -0.0108 -0.0185
28262W        W71174  27.608  32.619  23.220 -0.1247  0.1491 -0.0758
28263W        W71175  25.479  28.583  23.229  0.4342 -0.2392 -0.0843
28264W        W71176  29.296  32.313  21.251 -0.0145  0.3568  0.2389
28265W        W71177  29.365  29.324  22.359  0.2466 -0.0253 -0.0845
28266W        W71178  25.915  30.021  20.252 -0.0771  0.0178  0.1887
28267W        W71179  25.230  31.022  20.958 -0.1777 -0.2765 -0.2052
28268W        W71180  26.610  32.009  20.858 -0.0512 -0.2915 -0.0230
28269W        W71181  27.047  30.335  22.816 -0.1618  0.2393 -0.1332
28270W        W71182  25.139  31.749  22.069  0.2892 -0.0416  0.4905
28271W        W71183  25.605  33.174  20.642 -0.3377  0.3824  0.1999
28272W        W71184  25.243  31.510  22.607  0.2165  0.0002 -0.0899
28273W        W71185  28.079  30.777  22.079 -0.0835  0.0299 -0.0140
28274W        W71186  27.179  31.977  20.912  0.0186  0.2008 -0.0455
28275W        W71187  26.313  28.808  21.553  0.1868 -0.0306  0.0215
28276W        W71188  29.894  29.865  22.283 -0.2254 -0.0518 -0.0007
28277W        W71189  28.134  29.968  20.872 -0.0167  0.1205  0.0792
28278W        W71190  28.112  28.508  23.868 -0.0360 -0.2880 -0.3394
28279W        W71191  26.313  30.211  20.785 -0.4564 -0.0673 -0.0048
28280W        W71192  28.549  31.645  21.291  0.0403  0.0067 -0.3650
28281W        W71193  24.574  31.405  23.284  0.0720  0.3148  0.0595
28282W        W71194  28.911   0.303  24.547 -0.2466  0.1863  0.2869
28283W        W71195  25.299  29.878  24.158  0.2551  0.1508  0.2471
28284W        W71196  28.013  28.763  22.162 -0.0064  0.0279 -0.1892
28285W        W71197  26.171  27.870  21.148  0.1628 -0.1412 -0.2076
28286W        W71198  25.923  31.146  22.728 -0.0720  0.0233  0.1308
28287W        W71199  28.188  31.354  22.610 -0.5965 -0.0451  0.0018
28288W        W71200  26.776  31.004  19.552 -0.0317 -0.0540 -0.1522
28289W        W71201  28.740  30.535  19.825 -0.0020 -0.3870  0.0531
28290W        W71202  26.216  32.065  22.395  0.1576 -0.0101  0.0767
28291W        W71203  28.587  30.844  20.891  0.2941 -0.3773  0.0031
28292W        W71204  26.988  30.921  20.965 -0.0410  0.2737 -0.1265
28293W        W71205  25.401  31.793  20.637 -0.3123  0.0672  0.0346
28294W        W71206  25.855  30.313  23.709  0.2428 -0.0432  0.0363
28295W        W71207  28.722  31.430  22.635  0.2371 -0.0345  0.2318
28296W        W71208  28.246  29.820  23.555 -0.0423 -0.0431 -0.1336
28297W        W71209  27.434  30.182  22.367  0.3141 -0.0298  0.0517
28298W        W71210  29.994  29.805  22.818  0.1602 -0.1618 -0.0341
28299W        W71211  25.624  30.109  23.290 -0.3000 -0.1424  0.0248
28300W        W71212  25.626  31.136  24.036  0.1677  0.3691 -0.0916
28301W        W71213  28.039  32.537  23.329 -0.2246  0.0351 -0.0223
28302W        W71214  27.987  29.686  20.457  0.0634 -0.2933 -0.0563
28303W        W71215  29.518  30.707  22.890 -0.2843  0.2480  0.0597
28304W        W71216  28.926  31.364  20.627 -0.2261  0.1243  0.0145
28305W        W71217  27.021  30.665  19.958  0.1357  0.0018 -0.5237
28306W        W71218  25.613  31.010  21.270  0.3653  0.3566 -0.4937
28307W        W71219  27.897  31.138  23.012 -0.0110  0.1566  0.1536
28308W        W71220  26.189  29.017  21.104 -0.1676  0.2766  0.0548
28309W        W71221  28.849  29.301  22.563 -0.1628 -0.0255  0.1472
28310W        W71222  27.770  32.888  19.362  0.1117  0.4156  0.0880
28311W        W71223  28.261  32.724  21.024  0.3143 -0.1915 -0.0549
28312W        W71224  29.362  29.726  20.912 -0.0695  0.0019 -0.0547
28313W        W71225  24.285  30.744  20.856 -0.0975  0.2150  0.2036
28314W        W71226  25.765  33.534  22.802 -0.2753 -0.0792 -0.1632
28315W        W71227  25.701  31.172  20.082  0.1084  0.0427 -0.2532
28316W        W71228  27.731  32.651  20.226 -0.0140  0.1148  0.0661
28317W        W71229  26.356  31.678  24.751  0.0118  0.0888 -0.0907
28318W        W71230  27.089  31.634  24.542  0.0159  0.0593 -0.3193
28319W        W71231  27.157  29.857  20.987 -0.0826  0.2828  0.0638
28320W        W71232  28.557  31.275  24.066 -0.1759  0.3425  0.0622
28321W        W71233  23.649  33.499  21.201 -0.1708 -0.4466  0.1692
28322W        W71234  27.940  29.409  23.514  0.0193  0.0945 -0.3299
28323W        W71235  26.656  32.459  23.061 -0.0813  0.3291  0.1244
28324W        W71236  26.151  31.222  23.203  0.0099 -0.0799  0.0054
28325W        W71237  26.801  33.577  21.887  0.1698  0.0969 -0.1091
28326W        W71238  26.945  29.208  24.029  0.0344  0.1232 -0.1561
28327W        W71239  26.966  30.637  21.377  0.0620  0.1911  0.1679
28328W        W71240  26.511  32.135  21.416  0.3142 -0.3500 -0.1508
28329W        W71241  29.367  30.458  21.255  0.1309 -0.2061 -0.1537
28330W        W71242  26.865  31.495  24.033  0.0427  0.1260  0.0800
28331W        W71243  25.490  29.626  21.163 -0.2077  0.2173  0.2879
28332W        W71244  27.000  31.919  22.625  0.2954 -0.3330  0.0376
28333W        W71245  27.944  32.901  21.942 -0.0137  0.2730  0.2478
28334W        W71246  27.449  30.848  21.783  0.0312  0.5550  0.2200
28335W        W71247  25.581  31.073  21.783 -0.1594  0.3382 -0.1179
28336W        W71248  26.525  30.767  24.376 -0.2343  0.1166 -0.3752
28337W        W71249  26.952  32.027  21.949 -0.3135  0.1446  0.0173
28338W        W71250  25.473  28.359  20.273  0.0925  0.0203 -0.0294
28339W        W71251  27.829  32.555  21.225 -0.5928 -0.3526  0.0996
28340W        W71252  26.020  31.827  23.067  0.1191 -0.1058 -0.0888
28341W        W71253  25.158  31.237  21.942  0.0946 -0.0609 -0.2747
28342W        W71254  25.801  32.783  20.839  0.0341  0.1292 -0.0143
28343W        W71255  27.469  30.731  21.201 -0.2240  0.1131 -0.1535
28344W        W71256  27.992  30.761  20.462  0.0353  0.0986  0.0394
28345W        W71257  26.843  33.343  21.440  0.2872  0.1924 -0.2302
28346W        W71258  26.773  30.109  21.234 -0.0809  0.1538 -0.3340
28347W        W71259  25.047  32.456  21.996  0.2628 -0.1348 -0.1200
28348W        W71260  25.399  33.459  20.972 -0.0550  0.0703  0.0357
28349W        W71261  27.981  31.995  21.490  0.2672  0.1525 -0.0807
28350W        W71262  28.122  32.501  20.508  0.2484 -0.2347  0.0364
28351W        W71263  28.056  31.593  23.442  0.1189 -0.0494  0.1826
28352W        W71264  29.316  29.516  20.339 -0.1222  0.2024 -0.1216
28353W        W71265  28.259  30.355  21.151  0.0873 -0.0659  0.0502
28354W        W71266  28.831  30.027  21.906  0.2648 -0.1776 -0.2777
28355W        W71267  27.262  33.898  24.142  0.0456 -0.1403 -0.1106
28356W        W71268  27.041  30.561  22.300  0.0266 -0.4438 -0.0939
28357W        W71269  26.757  30.306  20.267  0.4551  0.0214 -0.3200
28358W        W71270  26.558  31.324  24.312 -0.1563  0.0562 -0.0562
28359W        W71271  28.648  29.665  23.909 -0.1798  0.1775 -0.0467
28360W        W71272  26.119  33.862  23.731  0.2205 -0.1116 -0.0674
28361W        W71273  27.984  31.331  20.865  0.0210  0.2037  0.0797
28362W        W71274  24.091  30.158  20.095  0.0811  0.1547 -0.1725
28363W        W71275  27.728  30.300  21.127  0.2879 -0.2197  0.0153
28364W        W71276  28.570  29.259  23.427 -0.1911  0.0951 -0.1072
28365W        W71277  27.830  30.540  20.037 -0.2960 -0.1442  0.1262
28366W        W71278  26.153  29.889  21.078  0.0683  0.2589 -0.1143
28367W        W71279  26.239  34.026  21.004  0.0356  0.2472  0.1809
28368W        W71280  26.202  32.285  23.199 -0.0377  0.3077  0.0496
28369W        W71281  26.256  33.870  22.430  0.2958  0.3232  0.2518
28370W        W71282  25.326  30.521  20.867  0.1620  0.3138  0.2206
28371W        W71283  28.417  29.618  20.804 -0.0388  0.4198  0.2539
28372W        W71284  26.886  30.811  21.911  0.0774 -0.0941  0.2833
28373W        W71285  29.227  30.313  22.727  0.0549 -0.0715 -0.1082
28374W        W71286  26.316  30.388  21.255  0.2496 -0.3025 -0.3095
28375W        W71287  28.003  28.899  21.389 -0.0867 -0.0688 -0.2627
28376W        W71288  27.318  31.517  22.732 -0.1692 -0.0543 -0.2432
28377W        W71289  25.491  30.172  21.241 -0.0098  0.2277  0.1570
28378W        W71290  27.567  30.536  19.226 -0.1576  0.0622 -0.0760
28379W        W71291  29.097  30.193  23.875 -0.2723  0.1882  0.0790
28380W        W71292  28.565  30.095  19.798  0.5407  0.0084 -0.0912
28381W        W71293  27.828  32.523  23.788  0.1890  0.0295 -0.0108
28382W        W71294  26.004  31.142  20.456  0.1593 -0.2966 -0.0251
28383W        W71295  28.666  29.337  21.271  0.2655 -0.1329  0.0877
28384W        W71296  26.097  31.100  22.140  0.0434 -0.1158  0.2019
28385W        W71297  26.728  29.972  23.419 -0.3291  0.1256 -0.0509
28386W        W71298  26.820  32.149  23.820  0.3282  0.0585 -0.0399
28387W        W71299  25.013  29.386  21.148  0.1264  0.0323 -0.0907
28388W        W71300  29.319  32.532  20.283  0.1122  0.1123  0.2194
28389W        W71301  28.812  30.319  21.466 -0.1885  0.5575  0.4102
28390W        W71302  27.355  33.130  19.355  0.3082 -0.1493 -0.2035
28391W        W71303  28.215  30.448  21.643  0.0601 -0.0640  0.0120
28392W        W71304  26.271  31.559  22.046 -0.0230  0.3940  0.0051
28393W        W71305  24.707  30.050  21.825 -0.0334 -0.3869 -0.0506
28394W        W71306  27.690  31.213  22.572 -0.2251 -0.2557 -0.1314
28395W        W71307  28.996  33.822  22.695 -0.1169 -0.0943 -0.0190
28396W        W71308  26.179  30.900  20.026  0.2699  0.0633  0.0930
28397W        W71309  25.744  30.164  21.981 -0.0257  0.0653 -0.0550
28398W        W71310  25.422  32.163  21.849 -0.2811  0.1934 -0.0691
28399W        W71311  29.919  29.965  21.722  0.0999 -0.1953  0.3475
28400W        W71312  29.034  29.817  22.449  0.0045  0.0407  0.1909
28401W        W71313  28.236  33.138  19.316 -0.2150 -0.0654 -0.1582
28402W        W71314  29.910  28.848  22.997  0.1648  0.5103  0.3165
28403W        W71315  26.787  31.448  22.682  0.2110 -0.2512 -0.2542
28404W        W71316  25.446  33.403  23.146 -0.1107 -0.0469  0.0519
28405W        W71317  26.431  30.629  21.714  0.1580  0.0575 -0.1946
28406W        W71318  25.570  31.340  23.083 -0.0904 -0.0196 -0.2871
28407W        W71319  26.663  32.823  20.724 -0.2115  0.1016  0.2346
28408W        W71320  26.413  33.906  20.006 -0.0660 -0.4887 -0.2523
28409W        W71321  27.927  32.980  21.450  0.0778  0.0964  0.1218
28410W        W71322  26.309  30.224  21.941  0.2119  0.3260  0.2325
28411W        W71323  27.915  31.890  21.979 -0.0081  0.1447  0.1788
28412W        W71324  27.063  28.342  21.295 -0.0497  0.2988  0.1408
28413W        W71325  28.321  30.363  22.278  0.0438 -0.2415 -0.0380
28414W        W71326  29.062  28.947  21.206 -0.0914 -0.2703  0.1849
28415W        W71327  27.903  30.911  21.498  0.1696  0.1594 -0.1964
28416W        W71328  26.232  31.481  20.179  0.0526  0.0921 -0.0391
28417W        W71329  26.103  31.954  20.579 -0.0541  0.1017 -0.2188
28418W        W71330  25.843  30.392  20.632  0.0773 -0.2460  0.1057
28419W        W71331  27.622  29.340  25.705  0.4653  0.2658  0.1711
28420W        W71332  25.990  30.646  22.630 -0.1339 -0.1403  0.0454
28421W        W71333  26.075  31.284  21.180 -0.1450 -0.3060  0.0077
28422W        W71334  24.848  29.115  20.770 -0.1452  0.2094  0.0816
28423W        W71335  28.906  32.192  20.282  0.1642 -0.1485  0.0903
28424W        W71336  25.922  30.160  21.482  0.2250 -0.0216 -0.1672
28425W        W71337  24.602  29.543  22.033 -0.3562  0.0413 -0.0537
28426W        W71338  26.726  33.432  20.026  0.1070  0.1312 -0.0843
28427W        W71339  29.185  31.087  19.569 -0.0020  0.0374 -0.4073
28428W        W71340  27.602  28.587  21.418 -0.0200 -0.2879 -0.4644
28429W        W71341  28.690  32.574  22.315 -0.0888  0.0949 -0.1840
28430W        W71342  24.954  31.220  20.545  0.1937 -0.0129  0.0074
28431W        W71343  27.860  30.267  22.033 -0.2106 -0.1234  0.1376
28432W        W71344  26.794  29.254  24.570  0.2730 -0.0737 -0.2353
28433W        W71345  25.312  29.473  20.702  0.0471  0.3087 -0.2296
28434W        W71346  26.782  30.274  21.835 -0.5020 -0.2144 -0.2060
28435W        W71347  26.900  33.790  19.725  0.3442 -0.0057  0.1658
28436W        W71348  29.043  33.615  19.097 -0.0042 -0.1145 -0.1946
28437W        W71349  27.668  31.241  22.043  0.1014 -0.1974  0.1240
28438W        W71350  26.542  34.294  22.478 -0.3229 -0.3600  0.1154
28439W        W71351  24.829  28.432  24.720 -0.0374  0.1578  0.1454
28440W        W71352  27.108  31.170  19.972  0.0386 -0.1865  0.2893
28441W        W71353  26.232  30.436  24.090 -0.1298 -0.1855  0.1102
28442W        W71354  27.257  32.874  20.628 -0.1820  0.2842  0.0403
28443W        W71355  28.505  29.909  21.325 -0.0444 -0.0818 -0.0474
28444W        W71356  26.766  31.532  21.837 -0.0444  0.0547 -0.0251
28445W        W71357  26.840  31.134  23.146  0.0868  0.2472 -0.0729
28446W        W71358  26.156  31.596  23.520 -0.4553  0.2619  0.1453
28447W        W71359  28.189  31.244  21.311  0.1730  0.3135 -0.2199
28448W        W71360  26.056  29.763  21.789  0.1063 -0.0166 -0.0377
28449W        W71361  27.675  29.514  21.795  0.2576  0.0515  0.1301
28450W        W71362  28.095  31.740  21.098 -0.1285  0.0011  0.2622
28451W        W71363  24.843  31.822  22.490 -0.0524  0.1033 -0.1052
28452W        W71364  27.693  29.263  22.292 -0.0611  0.0594  0.0932
28453W        W71365  28.188  30.936  23.470 -0.0648 -0.0292  0.2288
28454W        W71366  27.265  32.473  22.010  0.1048  0.0444  0.2989
28455W        W71367  27.169  31.273  23.510 -0.0618  0.0835 -0.0617
28456W        W71368  26.527  30.864  21.249 -0.0965 -0.1610 -0.1534
28457W        W71369  28.231  32.044  20.694  0.0263  0.1619  0.2012
28458W        W71370  27.292  33.542  21.667  0.0574 -0.0708  0.2793
28459W        W71371  27.894  32.068  24.151  0.0301  0.1102 -0.0452
28460W        W71372  26.282  33.212  21.502 -0.0919  0.3864  0.0075
28461W        W71373  28.515  31.604  22.125 -0.2477  0.0069 -0.1381
28462W        W71374  26.012  30.171  22.413  0.1265 -0.4596  0.0069
28463W        W71375  26.288  30.595  20.404 -0.0643  0.3360 -0.2355
28464W        W71376  26.629  31.834  22.328  0.2102  0.0992  0.2722
28465W        W71377  28.306  29.858  22.700 -0.1250 -0.2870  0.2053
28466W        W71378  25.111  29.657  22.014  0.2196 -0.1312  0.0266
28467W        W71379  28.346  30.490  20.674 -0.2149 -0.3229 -0.1206
28468W        W71380  26.840  32.601  23.712  0.2434 -0.0996  0.0295
28469W        W71381  26.529  32.963  21.882  0.3350  0.2272 -0.0526
28470W        W71382  26.763  32.466  27.377 -0.4589 -0.0655 -0.1376
28471W        W71383  26.659  30.159  25.115  0.0505 -0.3095  0.1547
28472W        W71384  28.549  30.619  24.431  0.2743 -0.0831 -0.2182
28473W        W71385  28.674  31.089  24.571  0.0759  0.1287 -0.0267
28474W        W71386  26.390  28.553  25.006  0.1632  0.0294 -0.4494
28475W        W71387  28.534  31.865  24.734  0.1111  0.0326 -0.1576
28476W        W71388  27.009  30.011  27.258  0.1860 -0.0977 -0.3316
28477W        W71389  28.639  32.656  26.946 -0.0874 -0.0187 -0.1509
28478W        W71390  28.414  32.726  25.301 -0.0949 -0.1347  0.0736
28479W        W71391  27.125  32.707  24.114  0.0235 -0.2084  0.0331
28480W        W71392  26.007  30.006  26.692  0.1995 -0.1408  0.2641
28481W        W71393  27.356  32.661  26.163 -0.1500  0.6284 -0.0483
28482W        W71394  26.209  29.887  24.905 -0.1055  0.0718 -0.0206
28483W        W71395  26.571  29.287  26.160 -0.0791  0.2091 -0.0171
28484W        W71396  26.339  31.361  25.199 -0.1257  0.0170 -0.0810
28485W        W71397  25.609  31.677  24.624 -0.0452  0.1050 -0.1086
28486W        W71398  26.972  30.367  24.834  0.0266  0.2390 -0.1127
28487W        W71399  28.010  31.377  24.756  0.1235  0.1707  0.0919
28488W        W71400  26.947  32.399  24.906  0.0350 -0.0869  0.2242
28489W        W71401  27.859  30.118  28.349 -0.0407  0.1458  0.0246
28490W        W71402  29.381  30.932  27.864  0.3305 -0.0887  0.1913
28491W        W71403  28.773  33.418  24.227  0.1123  0.1943 -0.0653
28492W        W71404  25.943  30.266  24.543  0.2182 -0.0875 -0.0630
28493W        W71405  27.828  29.183  26.192 -0.0881 -0.0717  0.1380
28494W        W71406  25.529  30.505  25.882  0.0229  0.1396 -0.0257
28495W        W71407  27.577  30.559  25.380 -0.2768  0.0974  0.0176
28496W        W71408  26.481  30.983  25.597 -0.0269 -0.0907 -0.1377
28497W        W71409  26.892  33.278  26.967 -0.0373 -0.0221 -0.2199
28498W        W71410  26.813  32.485  25.441  0.1027 -0.0512  0.1123
28499W        W71411  28.308  31.151  29.524  0.2936  0.1417  0.3525
28500W        W71412  24.891  32.323  25.552 -0.2216  0.3593 -0.2026
28501W        W71413  24.905  34.158  24.742 -0.3006  0.3548  0.1654
28502W        W71414  26.915  32.665  25.920 -0.1478 -0.2949 -0.4330
28503W        W71415  30.239  32.683  25.406 -0.3147 -0.3405  0.1913
28504W        W71416  28.790  32.207  27.146 -0.1131 -0.1499  0.0733
28505W        W71417  26.649   0.195  27.023 -0.0292  0.1628 -0.3337
28506W        W71418  25.750  31.700  23.916  0.2591  0.1837 -0.2488
28507W        W71419  27.720  32.928  26.400 -0.1730 -0.0560 -0.1453
28508W        W71420  25.834  32.286  27.190 -0.2109 -0.0702 -0.0484
28509W        W71421  26.679  31.566  28.291 -0.3588  0.1477  0.0743
28510W        W71422  28.088  31.742  26.998 -0.2881 -0.0063  0.3326
28511W        W71423  27.395  31.231  26.293  0.0501  0.0821  0.2099
28512W        W71424  26.822  31.458  25.672 -0.1352  0.1888  0.0619
28513W        W71425  26.742  30.880  27.752 -0.2292 -0.1779  0.1695
28514W        W71426  26.337  29.377  25.635 -0.0979 -0.1133 -0.0621
28515W        W71427  28.545  29.097  27.740 -0.0242  0.1205 -0.0866
28516W        W71428  27.167  33.192  23.922  0.1177  0.1360 -0.1355
28517W        W71429  29.191  30.708  23.334  0.0834 -0.2226 -0.0489
28518W        W71430  26.717  29.923  24.676 -0.2853  0.2461 -0.0213
28519W        W71431  27.432  30.045  23.976 -0.1420  0.0330 -0.1490
28520W        W71432  26.938  29.962  25.649  0.0154 -0.0138 -0.1121
28521W        W71433  25.993  32.614  25.797 -0.0028  0.1942  0.0633
28522W        W71434  27.516  30.164  27.809 -0.0738 -0.3028  0.1623
28523W        W71435  28.267  32.320  27.200  0.0155 -0.2008  0.1365
28524W        W71436  28.010  31.786  25.547  0.1294 -0.0120 -0.1292
28525W        W71437  28.460  30.772  27.263  0.0836 -0.1546 -0.0493
28526W        W71438  25.763  31.861  27.968 -0.0724 -0.4174 -0.0590
28527W        W71439  26.879  30.521  26.327  0.0023 -0.0535  0.2275
28528W        W71440  30.487  31.724  23.039  0.2031 -0.0557  0.0254
28529W        W71441  28.243  31.344  25.304 -0.0518 -0.0291 -0.0610
28530W        W71442  28.547  33.160  23.390  0.0294  0.3058  0.2484
28531W        W71443  26.462  30.682  26.068  0.1227  0.2913  0.3220
28532W        W71444  26.199  30.465  26.682  0.0013 -0.2173  0.2095
28533W        W71445  25.927  30.433  26.261  0.1050  0.4765  0.0248
28534W        W71446  25.639  29.441  24.253 -0.0912  0.0071 -0.1526
28535W        W71447  29.044  32.500  25.887 -0.0076 -0.0723  0.2917
28536W        W71448  25.525  32.249  27.752 -0.2406 -0.0567 -0.0100
28537W        W71449  28.801  30.680  24.001  0.1698  0.0335 -0.1944
28538W        W71450  25.434  30.735  26.334  0.2447 -0.0069 -0.0186
28539W        W71451  26.902  31.089  25.325 -0.1014 -0.2121  0.2325
28540W        W71452  28.338  32.762  23.683  0.2731 -0.0506 -0.2504
28541W        W71453  27.857  29.911  25.964 -0.3172  0.2262  0.1283
28542W        W71454  28.413  28.614  25.965  0.0920  0.0025  0.0957
28543W        W71455  25.508  29.653  25.115 -0.5464 -0.0446  0.0084
28544W        W71456  26.443  31.801  23.899  0.1845  0.1657 -0.1356
28545W        W71457  29.326  31.980  25.636  0.2725 -0.0627 -0.0989
28546W        W71458  28.142  30.341  23.612  0.1483  0.1952  0.1029
28547W        W71459  25.179  33.788  26.252 -0.0365  0.0421 -0.0390
28548W        W71460  25.175  30.283  27.527  0.2872  0.2407  0.1502
28549W        W71461  28.126  30.798  26.817 -0.1456 -0.1672  0.1777
28550W        W71462  25.019  32.203  24.580  0.0339 -0.0166 -0.2167
28551W        W71463  26.379  31.544  26.577 -0.2569 -0.1151 -0.4599
28552W        W71464  25.206  33.039  25.813 -0.0742  0.1295  0.1606
28553W        W71465  25.898  29.578  25.839  0.3489 -0.0325  0.0882
28554W        W71466  25.902  31.337  27.597  0.1987  0.0747  0.0257
28555W        W71467  27.979  30.469  25.729 -0.0075  0.0091  0.1266
28556W        W71468  26.537  30.202  27.005 -0.0150  0.0984 -0.1016
28557W        W71469  27.353  29.130  24.654 -0.3641 -0.0039  0.2703
28558W        W71470  26.090  31.899  27.056 -0.0510 -0.1967  0.2271
28559W        W71471  29.804  32.360  25.079  0.2311  0.1598  0.1779
28560W        W71472  29.362  31.707  24.791  0.2505 -0.0432 -0.0253
28561W        W71473  26.973  31.607  23.130  0.2271 -0.1420  0.0129
28562W        W71474  26.297  28.866  25.373  0.0406  0.1989 -0.1300
28563W        W71475  26.534  29.836  25.908  0.1708 -0.1060  0.3240
28564W        W71476  25.393  29.380  28.583  0.1146 -0.1546  0.0511
28565W        W71477  24.957  30.522  26.291  0.0775 -0.1564 -0.0922
28566W        W71478  28.785  30.254  26.073 -0.0784  0.3964  0.0613
28567W        W71479  25.815  29.357  24.838 -0.1615  0.1596  0.0867
28568W        W71480  28.021  30.358  25.231 -0.1409  0.3228 -0.1281
28569W        W71481  25.940  31.300  25.674 -0.0506 -0.0599  0.0696
28570W        W71482  25.314  31.970  23.724 -0.0968 -0.0116  0.0981
28571W        W71483  28.519  29.902  26.403  0.2428 -0.1331 -0.1341
28572W        W71484  28.086  31.936  24.574  0.0756  0.1965  0.0800
28573W        W71485  29.266  32.245  26.361  0.0022  0.0304  0.0642
28574W        W71486  27.751  31.571  26.139 -0.2277 -0.1491 -0.1558
28575W        W71487  26.385  29.698  27.100  0.0122  0.0961  0.2578
28576W        W71488  26.104  29.933  23.589 -0.2424  0.1071  0.0823
28577W        W71489  25.712  33.010  25.874 -0.0224  0.0182 -0.1316
28578W        W71490  27.405  32.620  28.211  0.0908  0.0092  0.3543
28579W        W71491  28.108  29.456  25.855 -0.1549 -0.2353  0.0545
28580W        W71492  27.781  31.461  25.227 -0.1350 -0.2371 -0.2490
28581W        W71493  26.495  30.971  26.495  0.4001  0.3412 -0.1740
28582W        W71494  27.079  32.111  26.194 -0.1280  0.1991  0.0121
28583W        W71495  27.755  30.504  26.178 -0.0655  0.0471 -0.1242
28584W        W71496  29.500  32.345  25.940  0.0487 -0.0690  0.0770
28585W        W71497  27.837  30.789  27.345  0.1264  0.0997 -0.0835
28586W        W71498  25.837  29.881  25.446  0.0626 -0.1149 -0.1059
28587W        W71499  27.354  32.511  23.618  0.1630 -0.2648  0.1755
28588W        W71500  26.614  32.564  24.161  0.1621 -0.1664  0.1036
28589W        W71501  25.655  30.720  25.394 -0.1891 -0.3153 -0.1819
28590W        W71502  27.156  32.191  25.657 -0.0830 -0.0632 -0.2190
28591W        W71503  29.765  30.767  23.518 -0.0151  0.0046 -0.1784
28592W        W71504  24.713  32.745  28.707 -0.1663 -0.1622 -0.0269
28593W        W71505  26.967  29.518  26.365 -0.2749  0.0061  0.1982
28594W        W71506  26.037  30.736  25.791 -0.1930 -0.2111 -0.0228
28595W        W71507  25.867  33.178  28.638  0.1848  0.2504 -0.2468
28596W        W71508  27.749  29.260  24.280  0.2122  0.3414 -0.0857
28597W        W71509  29.438  31.217  23.196  0.1853 -0.1882  0.0396
28598W        W71510  27.265  32.103  27.587  0.1460 -0.0888  0.2747
28599W        W71511  28.680  30.379  23.561  0.0354 -0.1055  0.3741
28600W        W71512  27.944  29.991  23.871  0.1537 -0.1396 -0.2172
28601W        W71513  27.711  28.132  23.535 -0.4401  0.0886  0.0831
28602W        W71514  25.866  31.641  26.629 -0.2170  0.2887  0.0967
28603W        W71515  26.897  30.789  26.754 -0.2320  0.0335  0.0161
28604W        W71516  26.461  32.802  25.599  0.0151  0.3741  0.2795
28605W        W71517  28.321  30.560  23.081  0.0647 -0.0512  0.1940
28606W        W71518  28.951  32.554  22.829 -0.2498 -0.0400  0.1573
28607W        W71519  27.136  31.664  25.929 -0.3091  0.3280 -0.1794
28608W        W71520  27.209  30.778  27.636  0.3145 -0.2306 -0.2781
28609W        W71521  28.912  31.028  25.162  0.3358  0.4149 -0.0429
28610W        W71522  27.438  29.827  27.485 -0.0385  0.0010  0.2616
28611W        W71523  26.407  30.802  23.346 -0.0466 -0.1839 -0.0738
28612W        W71524  27.325  30.676  24.932  0.0402 -0.0622  0.1721
28613W        W71525  25.928  32.710  23.252  0.3168 -0.0625  0.1738
28614W        W71526  29.480  30.178  26.281 -0.2855 -0.2111 -0.0832
28615W        W71527  29.381  30.535  28.103 -0.3453 -0.2655 -0.1547
28616W        W71528  28.405  29.334  27.309  0.1154 -0.2312 -0.1185
28617W        W71529  29.333  31.731  26.621 -0.0658  0.2033 -0.2857
28618W        W71530  26.967  30.664  24.048 -0.0939 -0.0722  0.1411
28619W        W71531  26.925  31.051  26.147  0.1138 -0.0922  0.0140
28620W        W71532  26.110  30.427  25.367  0.0774  0.1556 -0.2130
28621W        W71533  26.855  30.360  28.461  0.3147  0.0638  0.0287
28622W        W71534  25.601  30.560  27.595 -0.0877 -0.4406 -0.1023
28623W        W71535  25.521  33.678  27.129  0.0882 -0.2231 -0.1545
28624W        W71536  27.797  31.310  27.233  0.0106 -0.0667  0.1927
28625W        W71537  26.999  30.966  24.502  0.1760  0.0695  0.2745
28626W        W71538  28.215  31.114  27.541 -0.0767  0.1061  0.1825
28627W        W71539  26.235  29.388  25.106  0.0917 -0.2604  0.1316
28628W        W71540  26.396  33.445  23.863 -0.1331  0.2978  0.0648
28629W        W71541  26.053  31.599  24.329 -0.0440  0.2134  0.1584
28630W        W71542  25.267  29.723  26.342  0.0367 -0.0369  0.0854
28631W        W71543  27.055  33.489  25.443 -0.0676  0.0697  0.1287
28632W        W71544  27.403  33.466  24.269  0.0048  0.1714  0.2550
28633W        W71545  29.671  30.997  26.665  0.1085  0.0788 -0.1013
28634W        W71546  25.613  32.052  24.951 -0.0868  0.0001 -0.3764
28635W        W71547  28.594  29.474  26.122  0.0205  0.3252  0.2844
28636W        W71548  25.175  33.013  24.140 -0.1627 -0.0781  0.2691
28637W        W71549  26.407  30.322  24.724 -0.0031 -0.0704 -0.0576
28638W        W71550  24.832  30.400  25.347 -0.3399  0.2211  0.1107
28639W        W71551  27.522  30.130  25.694 -0.1078 -0.0602  0.2729
28640W        W71552  28.208  32.115  23.494 -0.1067 -0.2892  0.0413
28641W        W71553  25.413  29.597  25.633 -0.1830  0.1520  0.0720
28642W        W71554  27.287  30.023  24.494  0.1915  0.2504 -0.1289
28643W        W71555  25.384  32.330  26.202 -0.0073 -0.0068  0.1644
28644W        W71556  27.763  32.291  28.080  0.0846  0.1152  0.1812
28645W        W71557  28.187  30.216  24.339  0.0096 -0.3657  0.0209
28646W        W71558  28.296  32.818  26.616  0.0368 -0.0738 -0.0353
28647W        W71559  27.277  30.284  28.308 -0.0495 -0.1278 -0.1788
28648W        W71560  26.001  29.444  23.771 -0.2301  0.1514 -0.0802
28649W        W71561  29.696  30.428  27.156 -0.0693 -0.1180 -0.1201
28650W        W71562  27.237  29.623  25.415 -0.2654  0.4558  0.0556
28651W        W71563  25.390  31.352  26.191  0.0925  0.1253  0.1439
28652W        W71564  27.568  32.255  26.435  0.3857 -0.0342 -0.1204
28653W        W71565  26.461  32.094  27.377  0.0526  0.1750 -0.1646
28654W        W71566  25.365  32.069  25.494  0.0682  0.1642 -0.0105
28655W        W71567  26.906  29.829  28.397 -0.2183 -0.0114  0.0086
28656W        W71568  27.422  31.513  26.963  0.2026  0.1140  0.0045
28657W        W71569  27.230  31.208  24.913  0.0049  0.0117  0.0615
28658W        W71570  25.488  30.192  25.493  0.1192  0.1659 -0.2866
28659W        W71571  27.748  31.018  27.840  0.0332 -0.1732 -0.0556
28660W        W71572  27.971  30.333  27.184  0.0279  0.0935 -0.2525
28661W        W71573  27.068  30.315  26.866  0.0349 -0.2312  0.2103
28662W        W71574  25.790  32.674  28.819 -0.1069 -0.0922  0.2604
28663W        W71575  28.362  29.015  26.262  0.0859  0.0624  0.1185
28664W        W71576  29.247  33.374  23.240 -0.2027  0.0299 -0.0976
28665W        W71577  27.536  30.114  26.874  0.0669  0.0156 -0.1546
28666W        W71578  26.728  30.262  24.283  0.0874 -0.2707  0.0929
28667W        W71579  26.270  31.643  25.640 -0.1339  0.1967  0.0080
28668W        W71580  27.525  31.544  23.262  0.0248 -0.4329  0.0525
28669W        W71581  28.526  31.003  25.494  0.0114  0.0802  0.0611
28670W        W71582  25.852  32.270  25.395  0.0444  0.0459  0.0083
28671W        W71583  26.625  31.871  23.421 -0.1174  0.2285  0.2682
28672W        W71584  26.112  31.078  26.782  0.0710 -0.2301 -0.1736
28673W        W71585  27.440  29.469  23.877  0.1522 -0.1885 -0.0371
28674W        W71586  26.742  32.790  24.566 -0.1750 -0.1012 -0.1857
28675W        W71587  27.662  30.290  24.923 -0.1452 -0.1787  0.0543
28676W        W71588  28.148  29.173  26.778 -0.2412  0.2420  0.1430
28677W        W71589  27.785  30.479  23.978 -0.1086  0.1324 -0.0662
28678W        W71590  28.527  30.313  27.497  0.1708 -0.3617  0.2994
28679W        W71591  26.425  30.559  27.562 -0.3299  0.0718 -0.4306
28680W        W71592  26.581  31.967  24.365  0.0372  0.0328  0.1111
28681W        W71593  27.310  31.216  25.788 -0.3134  0.1254  0.0532
28682W        W71594  28.848  32.586  26.492  0.1174  0.1250 -0.2018
28683W        W71595  26.565  32.600  28.286 -0.0340  0.2806 -0.1091
28684W        W71596  27.917  29.477  25.316  0.3021 -0.1373 -0.1324
28685W        W71597  25.979  28.361  25.055 -0.2598  0.1100 -0.0950
28686W        W71598  25.525  30.191  26.468  0.1566 -0.1469  0.0185
28687W        W71599  28.795  32.707  23.836  0.2820 -0.0742  0.2775
28688W        W71600  27.077  32.180  24.306  0.0978  0.1639 -0.1393
28689W        W71601  28.927  30.735  26.302  0.3805  0.2124  0.1602
28690W        W71602  24.776  30.826  26.883 -0.1834  0.0965 -0.0838
28691W        W71603  27.208  32.090  25.168 -0.1394  0.4346  0.0998
28692W        W71604  27.503  31.047  25.315  0.0769  0.0500 -0.1381
28693W        W71605  27.314  31.695  26.516  0.1659  0.4006  0.1070
28694W        W71606  26.910  30.075  28.874 -0.0142 -0.2363 -0.0372
28695W        W71607  27.982  31.524  27.661 -0.1528  0.1237  0.0279
28696W        W71608  28.156  30.962  25.867  0.2419  0.0512  0.1831
28697W        W71609  28.073  29.897  25.515 -0.0974  0.4262  0.1115
28698W        W71610  29.335  30.755  26.956  0.1128 -0.1729 -0.0796
28699W        W71611  26.912  30.497  27.307  0.0810  0.0916  0.2897
28700W        W71612  25.632  29.607  28.214  0.1562  0.4325 -0.1703
28701W        W71613  27.778  32.327  27.269  0.0382 -0.2367  0.0240
28702W        W71614  27.672  31.171  23.557  0.1323  0.2000  0.0465
28703W        W71615  28.904  30.160  25.095 -0.2695  0.3884 -0.0453
28704W        W71616  28.556  31.421  24.955 -0.0038 -0.1512 -0.0037
28705W        W71617  28.602  30.196  24.083 -0.1528  0.0564  0.1437
28706W        W71618  25.984  30.193  25.814 -0.0755 -0.2166  0.0669
28707W        W71619  28.672  30.316  27.014 -0.0504 -0.1198 -0.2360
28708W        W71620  28.287  30.684  23.995 -0.0235  0.3456  0.2957
28709W        W71621  28.361  30.369  26.663  0.1484 -0.1711 -0.0878
28710W        W71622  28.106  32.931  23.049 -0.0476 -0.0390  0.1724
28711W        W71623  27.538  31.972  24.463  0.2105 -0.1900  0.1210
28712W        W71624  28.008  30.862  25.383 -0.2813  0.1034  0.0993
28713W        W71625  26.101  29.308  24.226  0.3608  0.0472 -0.4025
28714W        W71626  27.065  32.843  27.581 -0.0216  0.0989 -0.2513
28715W        W71627  26.144  29.830  24.307 -0.0431  0.4006 -0.1769
28716W        W71628  27.730  30.296  24.430  0.0565 -0.2781  0.0521
28717W        W71629  28.049  31.469  26.572 -0.1802  0.0813 -0.2523
28718W        W71630  29.414  30.952  28.393 -0.0515  0.2091 -0.0927
28719W        W71631  27.798  30.779  24.546 -0.0478  0.3571  0.2452
28720W        W71632  29.973  31.708  27.684 -0.1320 -0.1640  0.1096
28721W        W71633  26.042  32.061  24.623 -0.0689  0.1675  0.3096
28722W        W71634  27.866  31.052  26.284  0.1945 -0.2092  0.2679
28723W        W71635  25.777  32.419  26.657 -0.0451 -0.0882  0.2348
28724W        W71636  25.421  31.455  27.988 -0.2595 -0.5647 -0.2335
28725W        W71637  26.651  33.020  26.290 -0.4570  0.2237  0.1771
28726W        W71638  28.225  29.936  26.857 -0.0827  0.0597 -0.2059
28727W        W71639  28.398  31.505  24.459 -0.2031 -0.0114  0.0983
28728W        W71640  27.602  32.047  26.892 -0.1790  0.1989  0.1516
28729W        W71641  30.032  31.227  27.015 -0.1030  0.1783 -0.1534
28730W        W71642  28.040  31.983  26.400  0.0079  0.1253  0.1581
28731W        W71643  26.371  30.181  26.298 -0.3493  0.3192  0.2839
28732W        W71644  26.625  32.302  26.839 -0.0347 -0.2167 -0.2689
28733W        W71645  28.668  33.071  25.627 -0.1665  0.2283  0.0830
28734W        W71646  27.690  31.123  26.762 -0.0243 -0.0617  0.1905
28735W        W71647  24.201  29.565  28.141  0.1295  0.0031  0.0879
28736W        W71648  27.007  30.640  28.875 -0.2657  0.0533  0.0055
28737W        W71649  27.573  32.037  25.924  0.0235 -0.1152 -0.2037
28738W        W71650  26.499  29.014  24.883 -0.1909  0.2899  0.2154
28739W        W71651  27.040  31.579  25.193 -0.4847  0.0921  0.1371
28740W        W71652  27.304  33.583  26.805  0.1647  0.1705  0.6658
28741W        W71653  25.712  30.659  26.790 -0.3525 -0.0833 -0.0482
28742W        W71654  26.171  33.899  26.372 -0.0823  0.0106  0.0519
28743W        W71655  27.453  32.130  23.899  0.1092  0.1930  0.1104
28744W        W71656  26.782  31.919  24.858  0.0136  0.0842  0.0941
28745W        W71657  27.717  32.635  25.175  0.1629  0.0248  0.0996
28746W        W71658  27.108  30.422  25.893 -0.2934  0.2779 -0.1804
28747W        W71659  26.630  31.429  27.831  0.2746 -0.4389  0.2983
28748W        W71660  25.958  33.339  24.049  0.0712 -0.1130  0.0901
28749W        W71661  26.905  33.825  24.569  0.0139  0.0190 -0.0984
28750W        W71662  26.236  33.026  25.968  0.4456  0.0833  0.1225
28751W        W71663  29.105  31.697  27.205  0.0919  0.0490  0.0297
28752W        W71664  28.148  28.674  22.890  0.1311 -0.3657  0.0853
28753W        W71665  28.866  32.197  25.283  0.0075 -0.2949  0.0038
28754W        W71666  29.732  31.708  23.628 -0.0010  0.1543  0.1762
28755W        W71667  28.843  31.935  26.507  0.2408  0.1898  0.0456
28756W        W71668  27.013  31.405  27.464  0.2407 -0.2178 -0.3885
28757W        W71669  28.306  29.570  24.924 -0.1071 -0.4051  0.2651
28758W        W71670  27.263  29.835  26.575  0.1499  0.3862 -0.0152
28759W        W71671  29.609  29.378  26.378  0.2087  0.6502  0.0784
28760W        W71672  26.176  31.774  26.151  0.1935  0.1815 -0.0874
28761W        W71673  27.622  30.998  24.102  0.2852  0.1527  0.1831
28762W        W71674  25.374  28.126  24.819 -0.1859  0.1337 -0.0770
28763W        W71675  26.983  29.647  27.640 -0.1159  0.0338 -0.2330
28764W        W71676  29.936  29.123  24.745 -0.0887 -0.2955  0.0626
28765W        W71677  27.603  30.300  23.571  0.2381 -0.1031  0.1694
28766W        W71678  28.369  30.847  26.390 -0.0281 -0.0181  0.2675
28767W        W71679  26.364  32.332  25.546 -0.0895 -0.2018  0.0989
28768W        W71680  26.277  31.766  27.933  0.0241 -0.0400 -0.4181
28769W        W71681  27.159  33.115  25.962  0.0441  0.3000 -0.0340
28770W        W71682  24.873  29.404  25.008  0.1069 -0.0213  0.4706
28771W        W71683  27.172  31.134  24.040 -0.1770 -0.2250 -0.0252
28772W        W71684  24.829  30.031  26.192 -0.3580  0.0681  0.3414
28773W        W71685  28.978  29.768  26.058  0.1346 -0.1826 -0.0636
28774W        W71686  26.888  31.537  26.325 -0.1219  0.1669  0.0330
28775W        W71687  29.153  30.774  24.588  0.0585 -0.0940  0.2101
28776W        W71688  27.919  32.425  26.797  0.2448 -0.2081 -0.1209
28777W        W71689  26.426  30.686  27.068 -0.3789 -0.1311  0.0454
28778W        W71690  26.682  31.935  25.380  0.3221 -0.1060  0.0879
28779W        W71691  28.599  31.737  26.985  0.1594 -0.0938  0.1420
28780W        W71692  28.792  30.591  23.055 -0.0703 -0.1003  0.2121
28781W        W71693  28.417  32.209  26.738 -0.2698 -0.3202  0.0609
28782W        W71694  25.784  28.842  25.086  0.3294 -0.0718  0.3156
28783W        W71695  28.124  30.474  24.775 -0.0701  0.2193 -0.0087
28784W        W71696  26.454  32.377  24.667  0.2904  0.3122 -0.1036
28785W        W71697  26.512  31.384  27.081  0.1046  0.3321 -0.0755
28786W        W71698  29.503  32.439  27.297 -0.0498  0.2096  0.0141
28787W        W71699  26.120  27.657  24.950  0.1594 -0.0776  0.1753
28788W        W71700  27.345  31.579  24.127 -0.1132  0.0097  0.1532
28789W        W71701  29.395  31.448  25.859  0.1811  0.2259  0.0875
28790W        W71702  26.262  32.883  24.557  0.1973  0.0807  0.2164
28791W        W71703  28.254  32.257  24.971 -0.0883 -0.0087 -0.2852
28792W        W71704  28.548  32.787  26.040 -0.1419  0.0203  0.1208
28793W        W71705  25.561  29.370  26.084 -0.1717  0.0769  0.1811
28794W        W71706  28.088  32.389  25.444  0.1830 -0.0490  0.4063
28795W        W71707  29.072  31.394  26.341  0.3480 -0.1375  0.0862
28796W        W71708  26.715  29.603  25.161 -0.0911 -0.1289  0.1291
28797W        W71709  27.088  31.109  27.976  0.0240 -0.0405  0.4190
28798W        W71710  26.161  32.152  24.119  0.1300 -0.1963  0.2288
28799W        W71711  28.678  31.124  26.098 -0.0691 -0.1309 -0.1728
28800W        W71712  29.115  31.313  27.525  0.0891  0.0684 -0.1173
28801W        W71713  27.154  32.357  22.858 -0.0838  0.0404 -0.0298
28802W        W71714  29.134  29.337  26.770  0.4255  0.1602 -0.1226
28803W        W71715  26.486  32.426  25.992  0.1212 -0.0958 -0.0613
28804W        W71716  26.759  33.834  27.774 -0.1401  0.0627 -0.1309
28805W        W71717  25.481  30.805  24.371 -0.0247 -0.1324 -0.0073
28806W        W71718  27.613  31.800  27.347  0.0233  0.0290 -0.2127
28807W        W71719  27.369  31.691  25.540 -0.1596 -0.1138  0.1979
28808W        W71720  26.671  31.940  25.863 -0.3436  0.0802 -0.0082
28809W        W71721  30.344  33.526  25.715 -0.3584 -0.0935 -0.0016
28810W        W71722  26.941  29.990  26.171 -0.0401 -0.0781 -0.0413
28811W        W71723  28.610  31.885  24.218 -0.2480 -0.2868  0.0954
28812W        W71724  27.351  28.808  26.760 -0.0527  0.0176 -0.0035
28813W        W71725  28.565  29.162  24.859  0.0791 -0.1382 -0.1098
28814W        W71726  27.459  31.238  24.472 -0.2376 -0.0205  0.1071
28815W        W71727  26.537  32.108  26.350 -0.0977  0.2625 -0.0500
28816W        W71728  25.324  30.136  23.722  0.2642  0.1008  0.0627
28817W        W71729  25.236  29.556  24.662  0.2947 -0.3196 -0.0331
28818W        W71730  26.090  30.936  25.307  0.0007  0.0790  0.0154
28819W        W71731  27.926  30.404  27.738  0.2766  0.1034 -0.1767
28820W        W71732  26.023  29.440  27.343  0.0898 -0.0548 -0.4166
28821W        W71733  26.867  30.529  25.370 -0.0814 -0.0750  0.0140
28822W        W71734  26.470  30.008  23.937  0.1841  0.1806 -0.0582
28823W        W71735  27.947  33.006  23.618  0.0663 -0.2798 -0.0677
28824W        W71736  26.824  29.484  25.682  0.0164  0.0478  0.3966
28825W        W71737  24.135  30.145  25.714 -0.0759  0.1164  0.1667
28826W        W71738  27.854  31.534  24.264 -0.4263 -0.0336  0.2108
28827W        W71739  28.343  33.656  23.653 -0.2547  0.2892  0.1366
28828W        W71740  26.394  29.884  25.403 -0.3196 -0.0486  0.0106
28829W        W71741  27.691  31.863  27.863  0.1164 -0.2331 -0.0801
28830W        W71742  25.119  32.191  23.276  0.2251 -0.1905 -0.2223
28831W        W71743  27.642  30.536  28.514  0.0660  0.0491  0.0085
28832W        W71744  26.456  29.978  28.061 -0.0963 -0.1969 -0.2150
28833W        W71745  25.361  28.027  24.305 -0.0888  0.2076  0.0049
28834W        W71746  26.964  31.263  26.827  0.0664 -0.1636 -0.3592
28835W        W71747  28.227  32.840  24.824  0.0612  0.1114  0.4520
28836W        W71748  27.560  32.937  23.935 -0.0072  0.0013 -0.1414
28837W        W71749  25.851  32.125  28.723  0.0135  0.0520 -0.1396
28838W        W71750  27.267  32.453  27.173 -0.1337 -0.1587 -0.1768
28839W        W71751  24.916  29.437  27.359  0.0776 -0.2101  0.1845
28840W        W71752  26.481  30.798  24.920  0.0353 -0.1543 -0.0450
28841W        W71753  27.445  33.380  26.333  0.1565 -0.0189  0.2578
28842W        W71754  28.215  31.739  23.908 -0.2759 -0.2084  0.1536
28843W        W71755  28.996  30.514  25.505  0.1833 -0.0401  0.0379
28844W        W71756  27.814  31.330  25.695  0.3590 -0.1391  0.3672
28845W        W71757  26.732  29.496  26.833  0.0004 -0.0120  0.1338
28846W        W71758  25.882  31.396  26.179  0.1549 -0.3791  0.1919
28847W        W71759  29.424  31.496  25.364  0.1434  0.2146 -0.0786
28848W        W71760  26.389  28.051  24.869  0.1898  0.0227 -0.0558
28849W        W71761  27.594  29.835  25.205 -0.3506 -0.0049  0.0484
28850W        W71762  26.285  32.913  22.438 -0.0578 -0.0135  0.0598
28851W        W71763  26.672  30.299  25.834  0.1663 -0.0291  0.1594
28852W        W71764  27.303  30.595  24.419  0.1095  0.2304 -0.2243
28853W        W71765  27.160  30.783  28.461 -0.1270  0.1516 -0.0141
28854W        W71766  27.118  32.273  26.710 -0.2963  0.2936  0.0338
28855W        W71767  30.286  30.932  27.854  0.0604 -0.0688  0.3699
28856W        W71768  26.269  32.072  25.140  0.0942 -0.0104  0.1279
28857W        W71769  28.382  32.330  24.457 -0.0852 -0.1272  0.0325
28858W        W71770  30.657   0.366  26.182  0.0494 -0.4030  0.2619
28859W        W71771  28.873  33.918  28.373  0.0577  0.0619  0.2874
28860W        W71772  27.809  34.035  26.561  0.0281 -0.1789  0.4606
28861W        W71773  28.851  32.017  25.834 -0.0193 -0.2222  0.6229
28862W        W71774  25.427  30.045  25.986  0.0933  0.0385 -0.0472
28863W        W71775  26.769  31.341  24.791  0.3603  0.0563 -0.3767
28864W        W71776  26.056  30.389  27.223  0.0138 -0.2597 -0.0053
28865W        W71777  28.900  30.863  28.205 -0.2067  0.0716 -0.4043
28866W        W71778  27.329  30.708  26.283  0.2662  0.0089  0.0479
28867W        W71779  27.198  29.489  24.369 -0.3978  0.0445  0.1380
28868W        W71780  26.795  33.693  27.249 -0.0067 -0.0794  0.1707
28869W        W71781  27.719  31.037  24.898  0.0161 -0.1610 -0.3713
28870W        W71782  25.040  32.085  30.403 -0.2579 -0.3486  0.0113
28871W        W71783  25.684  30.057  29.250 -0.1182  0.0605  0.2489
28872W        W71784  28.964  30.557  27.322 -0.0868 -0.0865 -0.0032
28873W        W71785  28.778  31.856  27.679 -0.1711  0.0018  0.2922
28874W        W71786  25.147  30.087  28.914 -0.3930  0.0621 -0.0214
28875W        W71787  29.147  32.111  27.477  0.0689  0.3711  0.1557
28876W        W71788  26.217  28.828  30.755  0.2790 -0.2494  0.0877
28877W        W71789  26.876  32.761   0.031 -0.0325 -0.0659  0.0738
28878W        W71790  27.969  31.511  31.076  0.2942  0.1156 -0.1096
28879W        W71791  28.291  31.204  27.035 -0.0831 -0.0657  0.0130
28880W        W71792  25.833  30.177  31.544  0.2169  0.1824  0.1245
28881W        W71793  26.990  31.735  30.040 -0.0522  0.1034  0.0478
28882W        W71794  26.521  30.418  29.219 -0.0842  0.2894 -0.1379
28883W        W71795  26.170  28.037  29.444 -0.0307 -0.1244  0.0550
28884W        W71796  27.249  31.936  30.418  0.0932  0.0692  0.0382
28885W        W71797  24.984  31.080  27.292  0.0245 -0.1076 -0.0187
28886W        W71798  24.167  29.670  29.553  0.3244  0.1382  0.0428
28887W        W71799  27.638  30.382  29.407  0.0221 -0.1396 -0.1550
28888W        W71800  27.698  32.798  29.301 -0.1112 -0.0028 -0.0120
28889W        W71801  25.743  28.531  30.121  0.0673 -0.0269  0.3714
28890W        W71802  27.414  29.260  30.836 -0.0072  0.1641  0.2410
28891W        W71803  26.645  32.116  28.175 -0.0837  0.0293  0.1389
28892W        W71804  26.948  30.533  27.989 -0.0179  0.0178  0.0987
28893W        W71805  24.547  28.005  30.225 -0.5729 -0.0427 -0.1599
28894W        W71806  25.315  31.683  29.809  0.5048  0.0388 -0.1171
28895W        W71807  25.983  29.733  30.456 -0.0208 -0.0445  0.2087
28896W        W71808  26.418  31.233  29.607  0.0190  0.2455  0.2298
28897W        W71809  27.772  32.759  28.781 -0.0879  0.1414  0.0645
28898W        W71810  28.644  32.920  29.815 -0.0082 -0.1111 -0.0395
28899W        W71811  27.272  29.910  31.108 -0.1608  0.5456 -0.0434
28900W        W71812  24.880  32.220  28.491 -0.1930 -0.0805  0.2523
28901W        W71813  26.315  33.440  30.003  0.3471  0.0875  0.3375
28902W        W71814  26.719  33.139  29.024  0.0942  0.1009 -0.0320
28903W        W71815  28.290  33.213  28.186 -0.3111 -0.1816  0.1444
28904W        W71816  28.340  32.527  31.237  0.0298 -0.0568 -0.4103
28905W        W71817  25.281  32.520  30.447 -0.1046 -0.0612  0.0131
28906W        W71818  25.477  31.951  28.402 -0.1263 -0.2840 -0.3812
28907W        W71819  27.557  34.490  31.586 -0.2050  0.2203 -0.0380
28908W        W71820  26.980  32.367  31.399  0.0272 -0.1995 -0.2928
28909W        W71821  26.478  31.276   0.145  0.0035  0.2633 -0.1092
28910W        W71822  26.668  31.677  29.563  0.2222  0.4792 -0.1007
28911W        W71823  26.746  32.767  28.742 -0.2472  0.0826  0.0614
28912W        W71824  26.558  32.043  29.924 -0.2155 -0.1082 -0.0270
28913W        W71825  27.299  32.647  31.707 -0.1430 -0.1349  0.1853
28914W        W71826  25.030  33.338  29.401  0.1731  0.2337 -0.0549
28915W        W71827  28.313  29.122  29.859 -0.0065  0.1036  0.4636
28916W        W71828  24.831  33.276  27.050 -0.2190 -0.0787 -0.1280
28917W        W71829  26.760  30.107  29.752 -0.0467  0.2504  0.2224
28918W        W71830  26.034  30.486  28.670 -0.1579  0.0449 -0.1078
28919W        W71831  28.541  30.050  28.823 -0.4804 -0.1502 -0.0330
28920W        W71832  25.939  28.280  30.559  0.0587 -0.1810 -0.0794
28921W        W71833  26.832  33.393  29.835  0.0261 -0.0072 -0.1394
28922W        W71834  26.495  29.691  30.550 -0.1737  0.0054  0.0115
28923W        W71835  28.064  33.317  31.049  0.1218  0.0553  0.1017
28924W        W71836  27.885  30.662  28.959 -0.2581  0.2337  0.1404
28925W        W71837  27.832  29.233  30.002 -0.0131 -0.0725 -0.0145
28926W        W71838  27.305  33.371  30.091 -0.2246  0.0254  0.4182
28927W        W71839  25.040  31.740  28.183 -0.0827 -0.2027 -0.2181
28928W        W71840  27.716  31.892  28.383 -0.1975  0.2411  0.2185
28929W        W71841  29.118  31.296  28.669 -0.0515  0.1360 -0.6582
28930W        W71842  27.463  33.071  28.013 -0.1964 -0.1213  0.0046
28931W        W71843  24.968  29.191  29.301 -0.2214 -0.0116  0.2622
28932W        W71844  24.181  30.467  30.172  0.2471  0.0318 -0.2394
28933W        W71845  25.691  30.208  31.064 -0.1391 -0.0684 -0.0730
28934W        W71846  26.639  29.116  27.950 -0.1305  0.1096  0.1046
28935W        W71847  27.972  32.959  30.681 -0.0940 -0.1948  0.0560
28936W        W71848  24.317  32.279  31.529  0.2703  0.3864 -0.0557
28937W        W71849  28.409  30.378  29.599 -0.0268  0.1340 -0.2539
28938W        W71850  25.432  31.064  29.902  0.1394 -0.2129 -0.0475
28939W        W71851  28.821  31.786  29.362 -0.2457  0.2023 -0.1952
28940W        W71852  27.439  31.355  27.647 -0.1512 -0.2426  0.3109
28941W        W71853  27.386  28.716  28.956 -0.3352  0.0743 -0.2301
28942W        W71854  27.208  28.121  28.949  0.2870 -0.5097  0.4040
28943W        W71855  25.819  31.812  27.457 -0.0009  0.0074  0.4004
28944W        W71856  25.371  32.109  28.929  0.1735 -0.2332 -0.1808
28945W        W71857  27.774  32.538  30.349  0.3105  0.0906 -0.0412
28946W        W71858  30.517  31.743  28.198  0.1094  0.1192 -0.1709
28947W        W71859  24.839  32.370  28.987 -0.2933  0.1856 -0.2582
28948W        W71860  26.259  29.394  30.823  0.2058 -0.0690  0.0316
28949W        W71861  25.360  30.945  31.402 -0.2800 -0.0631  0.1217
28950W        W71862  25.444  33.926  27.683  0.1766 -0.0745  0.1707
28951W        W71863  24.638  31.304  30.479  0.2302 -0.0896  0.3217
28952W        W71864  23.801  32.180  28.723  0.0654  0.0342  0.1091
28953W        W71865  25.458  28.707  29.686 -0.1726  0.3422 -0.0043
28954W        W71866  25.936  31.674  30.023  0.1500  0.1183  0.0954
28955W        W71867  28.804  30.865  28.738  0.0257  0.0369 -0.0863
28956W        W71868  25.019  29.612  28.830  0.1199 -0.3685  0.2266
28957W        W71869  28.014  29.737  29.908 -0.0863 -0.0452  0.0876
28958W        W71870  24.631  31.533  30.905 -0.2381 -0.0335 -0.3391
28959W        W71871  29.543  32.258  28.289 -0.0140 -0.0029 -0.0515
28960W        W71872  30.033  31.399  28.962  0.0661  0.0766  0.0771
28961W        W71873  29.447  31.397  27.142  0.1677  0.2646 -0.0386
28962W        W71874  24.509  31.018  30.895 -0.2492  0.2798  0.2883
28963W        W71875  25.264  29.943  28.443  0.1241  0.3305  0.0687
28964W        W71876  25.637  29.937   0.602  0.0130 -0.0210 -0.0089
28965W        W71877  24.303  29.486  30.027 -0.1949 -0.1541 -0.5471
28966W        W71878  29.109  31.406  29.185 -0.1617 -0.0281  0.0873
28967W        W71879  27.231  28.952  28.458 -0.0019  0.0862  0.2599
28968W        W71880  27.371  29.753  30.534  0.0586  0.1005  0.0160
28969W        W71881  26.617  29.642  29.693 -0.2666 -0.2387 -0.1631
28970W        W71882  24.918  32.844  29.469  0.3900  0.0741  0.1845
28971W        W71883  28.789  30.409  30.139 -0.0832  0.0458 -0.2700
28972W        W71884  27.867  32.973  28.300 -0.4304  0.0132  0.0008
28973W        W71885  28.909  31.707  30.461  0.0848  0.0937  0.2540
28974W        W71886  28.729  33.935  29.901  0.2773  0.2484 -0.1713
28975W        W71887  25.053  30.682  31.664  0.0533 -0.0947 -0.0818
28976W        W71888  27.161  30.226  29.307  0.3120  0.2652  0.1194
28977W        W71889  26.715  32.706  30.441  0.1279  0.1375  0.2156
28978W        W71890  25.876  30.374  29.667 -0.1630 -0.0356 -0.0335
28979W        W71891  25.775  30.864  29.425 -0.1482 -0.1316 -0.2224
28980W        W71892  28.277  32.875  28.620 -0.1803 -0.1639 -0.3181
28981W        W71893  26.279  31.202  28.694  0.3332 -0.3224  0.0498
28982W        W71894  25.723  31.548  30.953  0.1746  0.1726 -0.0736
28983W        W71895  28.660  30.166  30.567  0.0049 -0.1255  0.2302
28984W        W71896  26.531  30.368  31.085  0.0408  0.2242  0.1883
28985W        W71897  26.820  32.502  29.958  0.0798  0.0770 -0.1785
28986W        W71898  26.120  29.932  29.077 -0.4572 -0.0461 -0.0530
28987W        W71899  28.096  32.454  27.732  0.1216 -0.1589  0.2568
28988W        W71900  26.179  32.565  26.922 -0.2518  0.3715  0.0697
28989W        W71901  25.614  30.566  29.047 -0.3442 -0.1146  0.0661
28990W        W71902  28.253  33.110  29.547  0.2926  0.2345  0.1456
28991W        W71903  26.945  29.756  29.329 -0.0989 -0.1832  0.1069
28992W        W71904  23.919  30.859  30.821 -0.1256  0.0799 -0.0395
28993W        W71905  27.879  29.019  30.838  0.3288  0.3707  0.0461
28994W        W71906  24.865  31.275  28.263 -0.0460  0.2238 -0.0131
28995W        W71907  26.373  30.849  30.809  0.0891 -0.1156 -0.4216
28996W        W71908  25.583  29.257  29.581  0.1347 -0.3030 -0.1859
28997W        W71909  28.682  31.397  27.352  0.3395  0.0390 -0.2296
28998W        W71910  27.449  32.467  31.177  0.1165 -0.1128  0.0515
28999W        W71911  28.899  31.289  29.596 -0.1469  0.2710  0.1034
29000W        W71912  27.429  30.334  28.864 -0.0322 -0.2016 -0.2031
29001W        W71913  28.706  30.321  28.430  0.4568  0.1452  0.1722
29002W        W71914  23.829  31.781  30.394 -0.1599 -0.1128 -0.2058
29003W        W71915  26.240  30.741  29.588  0.1680 -0.1628 -0.0525
29004W        W71916  26.310  31.415  29.172 -0.0504  0.1568  0.1624
29005W        W71917  28.632  30.823  26.798 -0.2089 -0.0905  0.1903
29006W        W71918  28.438  32.531  28.914  0.0007  0.0631  0.2200
29007W        W71919  25.270  30.830  29.484  0.3309  0.0512 -0.1659
29008W        W71920  27.725  31.821  30.590 -0.0530  0.4049 -0.1049
29009W        W71921  28.329  30.928  28.930  0.1835 -0.0389  0.2953
29010W        W71922  26.854  29.413  31.362  0.0278 -0.3399  0.1543
29011W        W71923  26.290  31.071  27.420 -0.1872 -0.0486  0.2597
29012W        W71924  27.620  28.538  29.669 -0.2476 -0.2322 -0.0807
29013W        W71925  25.374  33.226  27.158  0.1361  0.1260  0.3262
29014W        W71926  28.493  29.554  30.671  0.0197 -0.0245  0.1211
29015W        W71927  27.332  29.547  31.522 -0.0109 -0.0544 -0.0562
29016W        W71928  26.096  29.701  31.777 -0.1249  0.3370 -0.2470
29017W        W71929  27.476  31.475  30.931  0.2422 -0.1312 -0.2334
29018W        W71930  29.178  30.095  28.107  0.3980 -0.0441  0.2054
29019W        W71931  27.859  31.318  29.616  0.1009 -0.3823 -0.1892
29020W        W71932  25.240  31.266  28.687  0.0165 -0.1701 -0.1168
29021W        W71933  26.952  28.409   0.981 -0.0447 -0.0628  0.0526
29022W        W71934  23.778  31.720  29.285 -0.0075 -0.3760  0.0050
29023W        W71935  24.838  31.491  29.659 -0.0315 -0.0204 -0.1539
29024W        W71936  26.696  30.432   0.197 -0.0271  0.2041  0.1525
29025W        W71937  26.982  32.497  27.900  0.0251 -0.2776 -0.0121
29026W        W71938  28.146  29.441  31.131 -0.0349 -0.0813 -0.2814
29027W        W71939  28.376  30.407  29.142 -0.0378 -0.3551  0.2013
29028W        W71940  27.202  33.870  28.621 -0.1208  0.2130  0.2773
29029W        W71941  27.640  29.203  26.690  0.1957 -0.0182 -0.0654
29030W        W71942  25.854  29.437  30.009 -0.2515  0.3537 -0.1148
29031W        W71943  26.941  32.131  29.402 -0.2583  0.0708  0.0175
29032W        W71944  28.315  31.765  28.044 -0.0675  0.1562  0.2920
29033W        W71945  27.498  32.926  29.804  0.2548  0.1971 -0.4428
29034W        W71946  25.787  31.457  28.422 -0.1633 -0.0939 -0.1455
29035W        W71947  28.643  28.858  29.438 -0.1554 -0.0679  0.0659
29036W        W71948  25.855  32.074  29.280  0.0461  0.0829 -0.0577
29037W        W71949  26.268  29.660  28.705  0.3046  0.0290 -0.0455
29038W        W71950  24.806  30.931  28.618  0.1093  0.0476 -0.0023
29039W        W71951  28.327  29.623  29.039 -0.0582 -0.1468 -0.0579
29040W        W71952  27.263  32.147  28.117  0.0687  0.0425 -0.1324
29041W        W71953  27.638  28.710  31.486  0.1958  0.3112 -0.1648
29042W        W71954  25.803  28.888  29.255  0.0321 -0.1638  0.0172
29043W        W71955  25.507  31.802  30.617  0.4062 -0.0811  0.2993
29044W        W71956  27.426  31.007  30.604 -0.1615  0.0228 -0.0316
29045W        W71957  29.228  30.217  26.873  0.1547 -0.1457 -0.1067
29046W        W71958  27.665  32.057  30.148  0.0742  0.1892 -0.3114
29047W        W71959  25.984  31.547  31.652 -0.1403 -0.0149  0.0725
29048W        W71960  24.824  30.073  28.305  0.0536  0.0151  0.2488
29049W        W71961  30.342  29.624  31.042  0.0199 -0.0109 -0.0121
29050W        W71962  25.206  29.609  29.749 -0.1764  0.0215  0.1372
29051W        W71963  24.935  33.656  28.479  0.0455 -0.2659 -0.0793
29052W        W71964  28.469  31.931  28.503 -0.1934 -0.1733 -0.1475
29053W        W71965  24.369  32.253  28.717 -0.0095  0.1198 -0.1925
29054W        W71966  25.446  31.762  29.313  0.0246  0.3885 -0.1653
29055W        W71967  26.003  28.894  31.680  0.1075  0.0548  0.1740
29056W        W71968  27.161  31.851  30.934  0.2576  0.2656 -0.0788
29057W        W71969  25.842  29.586  31.034 -0.1037  0.2753  0.1837
29058W        W71970  25.196  30.370  28.049  0.4442  0.2666  0.4070
29059W        W71971  27.953  30.128  31.093 -0.2462 -0.3110 -0.2332
29060W        W71972  27.941  31.024  30.967  0.0401  0.2328 -0.1271
29061W        W71973  26.893  28.571  28.998  0.1988  0.0780 -0.1342
29062W        W71974  26.226  31.117  30.385  0.1060  0.1450  0.1532
29063W        W71975  26.457  28.408  30.401 -0.1246  0.0719 -0.2349
29064W        W71976  30.487  32.713  28.192 -0.1340 -0.2680  0.2247
29065W        W71977  27.516  30.247  30.791 -0.0942 -0.0887  0.0266
29066W        W71978  24.988  31.941  29.340 -0.0120  0.1682  0.1142
29067W        W71979  25.600  30.360  30.573  0.1145 -0.2708  0.3277
29068W        W71980  27.146  31.904  27.113  0.3494 -0.0210 -0.1810
29069W        W71981  26.991  29.594  30.904 -0.0092 -0.0407  0.2096
29070W        W71982  24.656  30.785  30.245  0.1165  0.0414  0.0225
29071W        W71983  27.311  31.058  27.188  0.1934  0.6941 -0.2349
29072W        W71984  24.524  33.037  30.617 -0.2085  0.3238 -0.2656
29073W        W71985  28.497  29.144  28.996 -0.0178 -0.2232  0.1467
29074W        W71986  27.697  31.423  28.128  0.1138 -0.1836  0.0333
29075W        W71987  27.422  29.274  30.300 -0.4856 -0.1415  0.2977
29076W        W71988  29.401  29.145  30.954 -0.1867 -0.0284  0.0272
29077W        W71989  27.895  31.082  29.182 -0.2108  0.0880 -0.1833
29078W        W71990  29.656  29.949  31.786  0.1873  0.6043  0.2236
29079W        W71991  26.023  27.828  31.080  0.0544  0.2005 -0.0829
29080W        W71992  28.262  31.674  29.700 -0.0064  0.0188  0.0131
29081W        W71993  25.300  30.624  30.107  0.2841  0.1840  0.0648
29082W        W71994  25.047  31.611  30.615  0.2333  0.1845 -0.1286
29083W        W71995  28.544  32.098  31.624  0.2482  0.1511  0.0509
29084W        W71996  26.585  30.727  28.695 -0.1054 -0.0218 -0.0006
29085W        W71997  26.481  29.571  27.692 -0.0204 -0.0235  0.1728
29086W        W71998  25.856  31.237  29.019  0.0874  0.2529 -0.2896
29087W        W71999  29.046  32.147  28.486 -0.3325 -0.2760  0.0587
29088W        W72000  26.469  30.512  28.082 -0.2545  0.0496  0.1345
29089W        W72001  26.695  30.921  28.257  0.1809  0.1981 -0.2131
29090W        W72002  25.695  30.085  30.095 -0.0178  0.0963  0.0104
29091W        W72003  27.487  32.272  30.719 -0.0573  0.1833 -0.1613
29092W        W72004  26.819  30.997  27.248 -0.3425 -0.1791 -0.1103
29093W        W72005  27.192  32.532  29.078  0.0397 -0.1413 -0.0178
29094W        W72006  27.684  29.237  31.298  0.0574  0.0305 -0.0899
29095W        W72007  26.039  31.702  28.877 -0.2888  0.1200 -0.2363
29096W        W72008  26.137  29.866  29.931 -0.1264  0.5227 -0.1010
29097W        W72009  26.736  29.934  31.225 -0.0395 -0.1115  0.0426
29098W        W72010  26.819  30.995  30.386  0.1654 -0.1390  0.0025
29099W        W72011  25.591  30.693  31.022 -0.2160 -0.0321  0.1583
29100W        W72012  25.222  30.348  30.990 -0.1060  0.3841 -0.0897
29101W        W72013  28.177  32.169  30.460  0.1677  0.1759  0.2956
29102W        W72014  27.469  30.665  28.042 -0.2343 -0.0177 -0.2443
29103W        W72015  27.169  29.375  29.746  0.1873  0.4230 -0.0723
29104W        W72016  28.822  30.437  29.306 -0.1977  0.0137 -0.3526
29105W        W72017  28.063  30.745  29.513  0.0693 -0.3062 -0.0090
29106W        W72018  26.328  29.505  29.181 -0.0242  0.3855  0.1642
29107W        W72019  28.952  29.795  30.934  0.2393 -0.1671  0.0106
29108W        W72020  25.765  30.554  28.153 -0.1602  0.2650 -0.1066
29109W        W72021  27.015  28.711  30.884  0.0943 -0.0096  0.0599
29110W        W72022  28.399  31.980  29.104 -0.0654  0.3257  0.0654
29111W        W72023  27.612  33.175  28.905  0.0373 -0.1436 -0.0137
29112W        W72024  27.434  31.321  29.277 -0.0157  0.4008  0.2186
29113W        W72025  25.177  30.375  29.302 -0.1293  0.0309  0.0093
29114W        W72026  25.541  31.376  31.413 -0.0870 -0.2014 -0.1608
29115W        W72027  26.178  30.842  28.378  0.1917  0.1089 -0.1456
29116W        W72028  27.511  30.468  27.338  0.0570 -0.1242 -0.0643
29117W        W72029  27.803  31.818  29.399  0.0882 -0.1185  0.2515
29118W        W72030  28.659  31.234  30.552  0.0310  0.0937  0.3996
29119W        W72031  26.527  30.052  27.549  0.2328 -0.0520 -0.0402
29120W        W72032  28.074  30.924  30.441 -0.0514 -0.2437 -0.1332
29121W        W72033  25.862  32.582  27.848  0.0110  0.0380  0.2124
29122W        W72034  26.930  27.899  29.903  0.0085 -0.4503  0.0413
29123W        W72035  26.034  33.093  30.197  0.1456  0.0275 -0.0050
29124W        W72036  24.484  32.036  31.016  0.4110  0.1349  0.0380
29125W        W72037  26.161  31.727  29.541  0.1923  0.3289 -0.4308
29126W        W72038  26.652  29.033  30.954 -0.2262  0.0875  0.0668
29127W        W72039  27.493  31.499  30.358  0.1990 -0.1709  0.2145
29128W        W72040  26.325  30.043  29.476  0.4875  0.1059 -0.2432
29129W        W72041  29.187  30.662  31.328  0.0610  0.2012 -0.1157
29130W        W72042  26.190  31.990  30.330  0.5859  0.0340  0.2719
29131W        W72043  26.927  31.211  29.602  0.2048 -0.0816 -0.1800
29132W        W72044  27.946  31.596  30.089 -0.0379  0.0413  0.1015
29133W        W72045  29.175  32.607  28.257  0.0048  0.1662  0.1832
29134W        W72046  26.719  32.974  29.568  0.0352 -0.1979 -0.1537
29135W        W72047  24.556  30.093  30.515  0.0619  0.2560 -0.0530
29136W        W72048  25.464  31.671  31.920  0.0747  0.4263 -0.1112
29137W        W72049  25.106  32.140  29.921 -0.2518  0.2028 -0.1315
29138W        W72050  26.919  29.100  28.805  0.1174 -0.1732  0.1638
29139W        W72051  27.430  30.956  28.931 -0.4814 -0.2883  0.2022
29140W        W72052  25.659  32.488  31.291  0.1879  0.1668  0.0627
29141W        W72053  23.436  31.362  30.051  0.0437 -0.2127  0.1522
29142W        W72054  26.255  31.794  28.401 -0.1545  0.0418  0.0049
29143W        W72055  27.610  31.587  28.886 -0.4397  0.3512  0.0410
29144W        W72056  26.653  32.529  29.233 -0.0749 -0.0562  0.0424
29145W        W72057  28.027  32.117  29.784  0.0915  0.0312 -0.0887
29146W        W72058  28.061  29.967  29.476 -0.1158  0.0381 -0.0486
29147W        W72059  25.461  32.180  30.977  0.1967  0.1040 -0.0961
29148W        W72060  24.468  31.720  27.053  0.2705 -0.1159 -0.1780
29149W        W72061  28.200  33.297  26.932 -0.1538 -0.0805 -0.0753
29150W        W72062  27.236  31.670  28.105  0.0673  0.1561  0.0440
29151W        W72063  28.015  33.521  31.474  0.1514  0.0918 -0.2585
29152W        W72064  29.143  30.560  28.522 -0.3266  0.0654  0.0375
29153W        W72065  28.894  30.681  29.761  0.0387  0.1172 -0.0741
29154W        W72066  27.695  31.072  28.511 -0.0841  0.0086  0.4552
29155W        W72067  26.888  30.921  31.496 -0.2472 -0.0166 -0.1962
29156W        W72068  24.146  31.293  29.634 -0.2069  0.2794 -0.0868
29157W        W72069  26.762  31.197  28.886  0.1112  0.0843 -0.4960
29158W        W72070  26.228  30.057  31.292 -0.3993  0.0565  0.1640
29159W        W72071  29.772  29.513  31.398 -0.1828 -0.0214  0.1741
29160W        W72072  26.092  33.037  29.697  0.0015 -0.4375 -0.2160
29161W        W72073  28.577  33.444  28.548  0.0352  0.1296 -0.0633
29162W        W72074  26.245  31.297  28.122 -0.2090 -0.0816 -0.1169
29163W        W72075  26.069  30.882  27.884  0.1189  0.1469  0.0144
29164W        W72076  27.603  29.544  29.542  0.1240  0.1360 -0.0168
29165W        W72077  27.885  32.844  27.209 -0.5069  0.1135  0.2135
29166W        W72078  26.842  30.444  30.138  0.4606 -0.2292  0.2561
29167W        W72079  27.196  33.054  29.423  0.0774 -0.0302 -0.1432
29168W        W72080  26.518  30.796  30.032 -0.0731  0.2864  0.1366
29169W        W72081  26.582  31.718  28.875  0.0759 -0.0234 -0.0494
29170W        W72082  25.634  30.044  27.881 -0.3624  0.1399 -0.0569
29171W        W72083  29.259  30.906  28.922 -0.1288 -0.1703 -0.0566
29172W        W72084  25.214  28.428  30.612 -0.0450  0.3367  0.0172
29173W        W72085  30.009  29.115  31.827  0.2003  0.1820  0.1824
29174W        W72086  26.345  30.334  29.844 -0.0422  0.2391  0.1181
29175W        W72087  27.447  30.996  29.696 -0.1341 -0.0633  0.0199
29176W        W72088  27.052  31.510  30.604  0.0013 -0.0544 -0.1113
29177W        W72089  23.797  30.912  29.516  0.0139 -0.0718  0.1508
29178W        W72090  27.664  31.057  30.154  0.0954 -0.1410 -0.4852
29179W        W72091  28.792  32.731  31.031 -0.1055 -0.0378  0.0887
29180W        W72092  28.428  30.671  27.840 -0.1641 -0.0594 -0.1242
29181W        W72093  26.806  33.593  30.333  0.0764 -0.0642  0.1110
29182W        W72094  25.174  30.201  29.819 -0.0466  0.2495 -0.3911
29183W        W72095  26.424  30.159  28.728 -0.1497  0.2886 -0.2160
29184W        W72096  25.628  31.350  29.572  0.2626 -0.3833 -0.1636
29185W        W72097  26.975  29.679  30.123 -0.0185  0.0853  0.1607
29186W        W72098  27.772  32.535   0.063 -0.1050 -0.2962 -0.1029
29187W        W72099  25.560  30.309  28.643 -0.2337  0.0290 -0.2167
29188W        W72100  29.529  32.138  27.807 -0.0915 -0.1101  0.2038
29189W        W72101  27.253  30.755  30.171  0.0602 -0.0571  0.2216
29190W        W72102  26.364  33.108  28.274  0.2449 -0.1901  0.0421
29191W        W72103  27.002  32.420  28.465  0.1909  0.0170  0.3622
29192W        W72104  27.235  32.107  29.800 -0.1428  0.2697  0.0074
29193W        W72105  26.340  30.131  30.278  0.1805 -0.3037  0.0829
29194W        W72106  28.589  34.237  30.392  0.1131 -0.3498  0.2747
29195W        W72107  28.511  32.442  30.083 -0.1813  0.0415  0.0065
29196W        W72108  26.642  28.856  28.370  0.1690 -0.3086 -0.1243
29197W        W72109  25.705  29.796  29.694  0.0974  0.1650 -0.0003
29198W        W72110  25.988  33.504  28.012  0.0700  0.3104 -0.0512
29199W        W72111  27.554  29.709  30.066 -0.1518  0.0678 -0.4289
29200W        W72112  28.984  30.649  30.632 -0.0402 -0.1599 -0.0541
29201W        W72113  27.293  32.868  28.786 -0.0094  0.0641 -0.1952
29202W        W72114  29.264  29.525  31.364 -0.0643 -0.1929  0.0198
29203W        W72115  26.342  32.360  30.661  0.0269 -0.2221  0.1058
29204W        W72116  24.215  32.700  30.820  0.2084 -0.0453 -0.2203
29205W        W72117  24.694  32.729  27.974 -0.1132 -0.0134  0.0937
29206W        W72118  26.807  30.651  29.674 -0.0487 -0.2267 -0.0239
29207W        W72119  27.557  32.276  29.274  0.0832  0.0053  0.2124
29208W        W72120  26.573  33.348  28.604  0.0517 -0.0795 -0.1001
29209W        W72121  28.584  33.429  29.783  0.0590 -0.1183 -0.1907
29210W        W72122  27.233  30.370  29.795 -0.0258 -0.0229 -0.2766
29211W        W72123  30.237  32.555  28.712  0.2931 -0.2653  0.0781
29212W        W72124  26.338  29.400  30.086 -0.0015 -0.3461 -0.1196
29213W        W72125  27.200  29.548  28.692  0.0100  0.2810 -0.1592
29214W        W72126  28.266  28.792  28.708  0.0476  0.2433  0.1768
29215W        W72127  26.117  30.567  30.494  0.1391  0.0552  0.1204
29216W        W72128  24.729  32.213  27.890  0.0203 -0.3859 -0.0191
29217W        W72129  25.359  32.711  27.944 -0.1197  0.2537  0.4003
29218W        W72130  25.605  31.007  28.042 -0.2831 -0.0026  0.1354
29219W        W72131  27.177  28.610   0.618 -0.0008  0.1977  0.0968
29220W        W72132  25.897  30.995  30.686 -0.1605 -0.4125  0.0835
29221W        W72133  24.686  30.373  30.003  0.0610 -0.1199  0.0801
29222W        W72134  24.642  30.357  27.947  0.0516 -0.1001  0.5729
29223W        W72135  28.419  30.773  28.399 -0.0754 -0.2430 -0.2661
29224W        W72136  25.400  29.250  29.058  0.2785  0.0290 -0.3024
29225W        W72137  25.046  27.961  30.444  0.0371  0.0335 -0.1464
29226W        W72138  28.136  32.478  29.277  0.1514  0.2438  0.2796
29227W        W72139  28.764  32.908  28.851  0.1941  0.0889 -0.2232
29228W        W72140  27.316  30.208  30.242  0.0591  0.2214  0.2237
29229W        W72141  29.688  31.891  30.447  0.0539  0.0343  0.1665
29230W        W72142  24.969  31.304  27.764  0.0278 -0.1487  0.1126
29231W        W72143  26.339  30.319  31.783 -0.1997 -0.0454  0.0641
29232W        W72144  27.151  28.690  31.758 -0.3503  0.4098  0.1011
29233W        W72145  25.494  29.653  27.569  0.0192  0.2211  0.1407
29234W        W72146  27.163  30.598  30.721  0.0135  0.2017 -0.2343
29235W        W72147  28.643  31.345  27.839  0.0448  0.5518  0.0768
29236W        W72148  27.304  33.633  27.285  0.0246 -0.1672  0.1128
29237W        W72149  25.534  32.100  29.661  0.1680  0.2811 -0.5155
29238W        W72150  27.851  32.475  31.505 -0.3720 -0.1592 -0.1585
29239W        W72151  25.074  28.917  30.639  0.1724 -0.0351  0.0739
29240W        W72152  28.001  30.623  28.156  0.0874 -0.0710 -0.2597
29241W        W72153  28.432  33.292  31.881  0.1728 -0.0086  0.1776
29242W        W72154  29.738  31.243  27.730  0.1615 -0.1611  0.1033
29243W        W72155  27.693  29.696  30.893 -0.2283  0.3089  0.1252
29244W        W72156  27.841  30.635  29.993 -0.1565  0.2448 -0.2290
29245W        W72157  25.450  30.436  31.466 -0.0256  0.1655 -0.1044
29246W        W72158  26.045  31.116  29.917 -0.2864  0.1133  0.1783
29247W        W72159  27.308  31.829  29.377 -0.0284  0.2276 -0.0499
29248W        W72160  25.271  29.799  29.298 -0.1581  0.0958  0.1038
29249W        W72161  28.232  30.378  28.615 -0.0455 -0.0378  0.4483
29250W        W72162  28.180  31.481  29.130  0.1755 -0.0114 -0.0081
29251W        W72163  25.813  30.803  30.220  0.2647  0.1293  0.0901
29252W        W72164  28.394  31.315  29.995  0.0550 -0.0838 -0.3116
29253W        W72165  27.724  30.256   0.089 -0.2678  0.0206 -0.1026
29254W        W72166  26.394  32.071  29.355 -0.1817  0.1419  0.1606
29255W        W72167  27.155  31.246  30.056  0.0544 -0.0420  0.0383
29256W        W72168  27.319  31.973  28.898 -0.2117 -0.2295  0.0535
29257W        W72169  29.136  31.346  28.077 -0.3678 -0.0919 -0.0019
29258W        W72170  28.164  33.829  31.057 -0.1941  0.3946 -0.1859
29259W        W72171  28.743  32.896   0.101  0.3450 -0.4463 -0.4441
29260W        W72172  26.784  32.232  30.342 -0.3040  0.2139  0.0849
29261W        W72173  28.674  31.340  28.978 -0.0157 -0.0736 -0.0160
29262W        W72174  25.577  27.937  30.618  0.3399 -0.0671 -0.2860
29263W        W72175  26.498  31.472  30.085  0.2384  0.2238  0.3441
29264W        W72176  26.654  30.513  30.560 -0.1095 -0.1177  0.1236
29265W        W72177  26.901  30.040  30.498  0.1054  0.0155 -0.0881
29266W        W72178  26.616  30.915  29.298  0.0626  0.2115  0.1625
29267W        W72179  27.976  30.124  29.004 -0.0921  0.0702  0.2291
29268W        W72180  27.044  32.480  30.888  0.1948  0.0260  0.4389
29269W        W72181  27.745  30.146  29.898 -0.1748 -0.1556 -0.0590
29270W        W72182  28.381  29.870  31.083  0.0669 -0.0659  0.0901
29271W        W72183  27.704  30.571  30.480 -0.0175 -0.0237  0.1688
29272W        W72184  26.646  31.302  30.761  0.1558 -0.0433 -0.0866
29273W        W72185  25.146  32.740  31.422 -0.1556 -0.0280  0.1772
29274W        W72186  25.696  32.523  30.676  0.3406 -0.0683 -0.3601
29275W        W72187  26.383  32.882  31.962  0.1694 -0.2775 -0.1357
29276W        W72188  27.411  31.293  31.719 -0.1533  0.3304 -0.1999
29277W        W72189  26.804  28.929   0.873 -0.0366 -0.0167  0.0699
29278W        W72190  29.187  29.767  31.771  0.0096  0.1347  0.0318
29279W        W72191  29.806  32.607  31.449 -0.0044  0.0024  0.0622
29280W        W72192  26.763  30.803  31.023 -0.2557 -0.3068  0.2808
29281W        W72193  25.190  28.689   0.305  0.1143 -0.5452 -0.1025
29282W        W72194  28.346  31.635  31.458 -0.3682  0.2675  0.4169
29283W        W72195  27.076  30.015  31.682 -0.1753  0.0003  0.3092
29284W        W72196  28.380  29.504   0.156 -0.0587 -0.1268  0.0300
29285W        W72197  26.098  32.793  31.245  0.0051 -0.0011  0.2567
29286W        W72198  24.947  31.130  31.281  0.0378 -0.1138  0.0660
29287W        W72199  27.486  33.474  31.751  0.3646 -0.2132 -0.1733
29288W        W72200  25.270  30.595   0.700  0.1323  0.1363 -0.1178
29289W        W72201  27.567  31.149  31.317  0.2735  0.2734 -0.0279
29290W        W72202  24.988  29.409  30.117 -0.1325 -0.1909  0.1164
29291W        W72203  26.720  32.103  30.903  0.1240 -0.0797 -0.0701
29292W        W72204  28.934  28.671  31.788 -0.1446  0.0085 -0.0292
29293W        W72205  27.516  29.126  31.828  0.0132 -0.0907 -0.1488
29294W        W72206  28.086  28.152   0.204 -0.2729  0.2792  0.0182
29295W        W72207  27.929  30.651  31.305  0.2770  0.0132 -0.1217
29296W        W72208  26.184  30.139  30.758  0.1287 -0.2976 -0.0211
29297W        W72209  25.047  33.277  31.505 -0.2067 -0.0531  0.0989
29298W        W72210  27.288  30.360   0.019  0.1532 -0.6107 -0.1401
29299W        W72211  26.084  32.023  31.704  0.2161  0.0949  0.3644
29300W        W72212  25.602  31.890  31.413 -0.0997  0.1748  0.1741
29301W        W72213  26.941  29.965   0.236  0.0842 -0.2992  0.0328
29302W        W72214  27.782  31.694  31.514  0.1518 -0.2112 -0.1802
29303W        W72215  28.227  29.057   0.237 -0.4244 -0.0145 -0.2237
29304W        W72216  24.660  30.380  31.823 -0.0993 -0.0945  0.0826
29305W        W72217  26.950  31.395  31.820 -0.2229  0.1185 -0.2118
29306W        W72218  26.778  31.624  31.241 -0.0601 -0.1147  0.1365
29307W        W72219  27.306  31.600  31.388 -0.0955 -0.0109 -0.2096
29308W        W72220  28.282  30.064   0.140  0.0476 -0.1250  0.2835
29309W        W72221  27.016  30.410  31.204 -0.0191 -0.0707 -0.1089
29310W        W72222  28.325  29.832  31.628  0.1134  0.3418 -0.2017
29311W        W72223  27.994  28.720   0.536  0.1299  0.2108  0.1215
29312W        W72224  26.587  28.443  30.867  0.0755  0.3453  0.0584
29313W        W72225  26.559  32.049  31.407  0.0510  0.1429 -0.1700
29314W        W72226  26.870  29.691   1.472  0.1022 -0.1230  0.0976
29315W        W72227  26.395  31.730  30.863 -0.1127  0.0042 -0.3542
29316W        W72228  27.104  28.336   1.998  0.3561 -0.2055 -0.2046
29317W        W72229  25.668  32.896  30.988 -0.2055  0.3023 -0.0753
29318W        W72230  28.571  33.494  31.443  0.1963 -0.1542 -0.1863
29319W        W72231  23.981  32.206  31.979  0.4701  0.0063  0.1220
29320W        W72232  27.951  33.292   0.031 -0.0127  0.3300 -0.0315
29321W        W72233  28.298  28.460  31.033 -0.0495 -0.0695 -0.1191
29322W        W72234  26.483  28.570   0.851 -0.2659 -0.0873 -0.0025
29323W        W72235  26.294  30.268   0.472 -0.2679 -0.0720 -0.4212
29324W        W72236  27.953  31.220  31.673  0.0149  0.1743 -0.0782
29325W        W72237  27.793  29.295   0.274 -0.1798  0.1426 -0.1366
29326W        W72238  27.135  31.164  31.093  0.2126 -0.2224 -0.0192
29327W        W72239  26.696  33.328  31.285  0.0947  0.0973  0.1042
29328W        W72240  25.502  33.061  31.500  0.1377 -0.0450 -0.0568
29329W        W72241  26.111  31.789  31.274 -0.2186 -0.1588  0.0265
29330W        W72242  25.841  32.581  30.154  0.1408  0.0404 -0.2320
29331W        W72243  25.556  29.300  30.718  0.1405  0.0400  0.0940
29332W        W72244  26.052  33.099  31.634  0.2144  0.0547  0.0567
29333W        W72245  24.846  30.622  30.644  0.3995 -0.2700 -0.2477
29334W        W72246  27.554  33.305  31.250 -0.1474 -0.1185  0.0358
29335W        W72247  28.894  32.311  31.357 -0.3802  0.0360 -0.3468
29336W        W72248  29.335  32.020  31.531  0.0024 -0.1572 -0.1131
29337W        W72249  26.490  34.129  16.847 -0.0307  0.2505 -0.2692
29338W        W72250  27.670  34.178  16.648  0.1325 -0.1354 -0.0103
29339W        W72251  29.020  34.515  17.483  0.2540  0.0361  0.0412
29340W        W72252  25.347  34.237  17.863 -0.0681  0.2614  0.2213
29341W        W72253  25.971  33.670  19.289  0.3606  0.1357  0.3998
29342W        W72254  27.068   1.128  16.824  0.1888  0.2074 -0.0838
29343W        W72255  25.685  34.528  18.425  0.0597  0.0439  0.3420
29344W        W72256  26.357  32.270  16.655  0.2873 -0.1940  0.0771
29345W        W72257  25.190  33.751  17.748  0.0395  0.4742 -0.3554
29346W        W72258  29.071  34.533  18.177  0.1606 -0.2205 -0.0247
29347W        W72259  26.901  34.057  17.586 -0.1130 -0.1358  0.0352
29348W        W72260  24.889  34.345  17.728  0.2408  0.0086 -0.0878
29349W        W72261  26.598   0.229  16.695  0.1126 -0.2405 -0.1434
29350W        W72262  27.147  32.843  18.202 -0.3260  0.0667 -0.1215
29351W        W72263  27.093  34.203  19.497 -0.4236  0.0173  0.1373
29352W        W72264  24.942  33.961  16.826  0.1252  0.1588  0.3348
29353W        W72265  25.392   0.115  16.935 -0.0541 -0.0173  0.2747
29354W        W72266  26.082  34.658  18.155 -0.0365 -0.2996 -0.0018
29355W        W72267  28.730  33.146  17.950  0.0860 -0.0263 -0.0299
29356W        W72268  28.303  34.112  17.644  0.0385  0.1274  0.3329
29357W        W72269  28.699  34.295  18.578  0.1337  0.1882  0.0225
29358W        W72270  26.812   0.368  18.995  0.0772  0.0140  0.2133
29359W        W72271  27.069   1.174  18.887 -0.0348  0.3419 -0.2443
29360W        W72272  29.158  32.899  21.083 -0.2446  0.1776 -0.0026
29361W        W72273  27.797  33.033  15.684  0.2258  0.1801  0.6254
29362W        W72274  27.105  31.547  17.702  0.3119  0.0087 -0.0440
29363W        W72275  27.488  34.303  17.151  0.1435  0.0202 -0.1237
29364W        W72276  25.941  33.824  17.126 -0.3640  0.0737 -0.2580
29365W        W72277  24.713  32.580  19.483  0.1306  0.0110  0.0208
29366W        W72278  26.879  34.679  17.001  0.0729 -0.0642 -0.0504
29367W        W72279  26.710   0.882  19.048 -0.0602 -0.2832 -0.0308
29368W        W72280  25.945  33.154  16.660  0.1042  0.1302  0.0503
29369W        W72281  26.309   0.975  18.653 -0.2168  0.1160  0.5331
29370W        W72282  23.987   0.784  18.807  0.1801  0.1684 -0.1720
29371W        W72283  24.876   0.522  18.684 -0.1883 -0.1899 -0.1092
29372W        W72284  27.244  31.823  16.891  0.1400 -0.2418  0.0366
29373W        W72285  29.061  33.330  16.830 -0.3184 -0.3528  0.4847
29374W        W72286  29.086  31.782  18.792 -0.0468 -0.3362  0.0079
29375W        W72287  29.998  33.457  20.441 -0.0609 -0.0826 -0.1289
29376W        W72288  28.006  34.115  15.696 -0.1753 -0.0653 -0.4483
29377W        W72289  27.314  33.861  16.775 -0.0705  0.0018 -0.1822
29378W        W72290  25.104  32.916  18.741  0.0003  0.1732 -0.0760
29379W        W72291  29.425  34.593  16.543 -0.1367  0.0788 -0.0270
29380W        W72292  25.930  34.198  18.827  0.0610  0.2462  0.4363
29381W        W72293  28.577  32.457  18.196 -0.0922  0.0639  0.3407
29382W        W72294  28.113  33.868  15.272 -0.2760 -0.0304 -0.3375
29383W        W72295  26.083   1.829  19.762 -0.4987  0.5260 -0.2888
29384W        W72296  25.466  33.842  18.122 -0.2497 -0.1429  0.2788
29385W        W72297  24.325  34.129  19.646  0.0724 -0.0471 -0.1584
29386W        W72298  26.025  32.072  18.473  0.0605  0.2346  0.0427
29387W        W72299  27.602  33.846  18.322  0.0574  0.1231  0.2082
29388W        W72300  25.855  32.600  15.829 -0.2073 -0.4030 -0.1149
29389W        W72301  30.134  33.006  18.645 -0.0896 -0.2649  0.0061
29390W        W72302  26.517  33.906  17.310 -0.0229 -0.0518 -0.3690
29391W        W72303  26.895  33.328  19.528 -0.1007 -0.2089  0.1082
29392W        W72304  25.013  33.196  19.152 -0.0910  0.0295  0.1955
29393W        W72305  26.912  33.563  16.869  0.2138 -0.1081 -0.1400
29394W        W72306  27.034  32.539  17.739 -0.0599  0.1275 -0.5597
29395W        W72307  28.094  33.729  18.315  0.0221 -0.1153  0.1597
29396W        W72308  26.753  33.119  17.247 -0.1015 -0.3614 -0.1039
29397W        W72309  26.004  34.190  15.701  0.0672  0.1922 -0.2773
29398W        W72310  26.188   0.881  17.731  0.2342  0.0727 -0.3683
29399W        W72311  29.248  32.114  17.303  0.0917 -0.0342  0.0303
29400W        W72312  25.634  34.460  19.778 -0.2347 -0.0296  0.1248
29401W        W72313  26.915  34.373  18.608  0.0642  0.0019  0.0312
29402W        W72314  26.187  33.382  16.245  0.0168 -0.2173 -0.2694
29403W        W72315  28.353  33.108  17.552 -0.2124 -0.3076  0.0456
29404W        W72316  28.155  33.963  16.152 -0.2437  0.1718 -0.0706
29405W        W72317  28.280  33.072  15.894 -0.2095 -0.3369 -0.0341
29406W        W72318  27.622  32.261  16.022  0.2680  0.1676  0.3345
29407W        W72319  26.657  32.904  15.560  0.3923 -0.0732 -0.0968
29408W        W72320  25.965  32.670  18.989 -0.3181  0.0442 -0.1156
29409W        W72321  27.313  34.035  16.266  0.3365  0.1696  0.0805
29410W        W72322  27.919  32.638  17.735 -0.2464  0.0934  0.2095
29411W        W72323  29.118  32.446  19.818 -0.1570 -0.2051 -0.0665
29412W        W72324  27.678  32.994  18.038 -0.0213 -0.0365 -0.1412
29413W        W72325  28.807  32.759  18.888 -0.0775  0.2229  0.0949
29414W        W72326  27.648  33.350  18.454  0.0141 -0.1330 -0.0659
29415W        W72327  26.520   0.966  16.735  0.1181 -0.1777  0.0402
29416W        W72328  28.459   0.253  17.595 -0.3778  0.2762 -0.0295
29417W        W72329  25.789  33.330  15.325  0.1082 -0.1835  0.2321
29418W        W72330  25.504  33.494  19.395 -0.0049 -0.2351 -0.0504
29419W        W72331  27.858  34.525  20.486  0.1950 -0.0504 -0.1622
29420W        W72332  27.710  33.214  17.015  0.1970 -0.2585  0.1332
29421W        W72333  26.634  32.668  18.061  0.0122  0.0153 -0.0796
29422W        W72334  28.788  32.856  18.392  0.0695  0.4371 -0.1556
29423W        W72335  27.855  33.795  16.981 -0.1398  0.2905 -0.4034
29424W        W72336  24.291  33.825  17.169 -0.0265  0.1687 -0.0288
29425W        W72337  28.013  34.493  17.873 -0.0466 -0.1685  0.1823
29426W        W72338  25.065  34.011  18.920  0.1757  0.0807 -0.1613
29427W        W72339  26.705  32.987  18.395 -0.2096  0.1858 -0.1747
29428W        W72340  26.961  34.689  19.521  0.3994  0.1238 -0.1297
29429W        W72341  28.813  33.863  16.697  0.0581 -0.2146 -0.0101
29430W        W72342  27.232   0.331  19.961  0.1454 -0.0431 -0.0198
29431W        W72343  25.405  33.745  16.932 -0.1787 -0.0278  0.0500
29432W        W72344  30.681  32.770  19.091  0.0999  0.1224  0.2254
29433W        W72345  27.121  34.645  17.447  0.1887  0.0312  0.0222
29434W        W72346  25.183  34.369  18.487 -0.0053  0.0290 -0.3476
29435W        W72347  25.690  33.230  20.165  0.0752 -0.0165  0.1154
29436W        W72348  26.642  34.582  18.219 -0.1407  0.0996  0.2527
29437W        W72349  25.904  33.299  17.867 -0.0921  0.1153 -0.4995
29438W        W72350  26.585   0.176  17.460 -0.1325 -0.0257  0.0874
29439W        W72351  26.091  34.273  18.399 -0.0071  0.1114 -0.2654
29440W        W72352  26.521  33.167  17.819 -0.0467  0.0567 -0.0206
29441W        W72353  27.384  34.518  19.725  0.3288 -0.0817 -0.1648
29442W        W72354  26.512  34.383  17.804 -0.1059 -0.0410 -0.0590
29443W        W72355  28.046  33.245  16.663 -0.1844 -0.1030  0.1008
29444W        W72356  27.836  31.858  16.226  0.1236  0.2834  0.1500
29445W        W72357  27.925  33.524  20.045  0.0190  0.1855  0.0119
29446W        W72358  27.738  34.511  15.689 -0.0603 -0.0028 -0.4370
29447W        W72359  28.004  34.218  19.306 -0.1768  0.0158 -0.0441
29448W        W72360  25.632  32.706  18.082 -0.1984  0.2694  0.2181
29449W        W72361  25.881  33.144  18.818 -0.0094 -0.1674  0.0735
29450W        W72362  25.297  34.657  19.507  0.1767  0.1152  0.0173
29451W        W72363  30.196  33.993  17.452  0.0618  0.3237 -0.1966
29452W        W72364  27.079  32.585  16.614 -0.2441 -0.1178  0.2448
29453W        W72365  27.162   0.624  18.746 -0.0971  0.1749  0.1586
29454W        W72366  29.677  33.596  19.551 -0.0626 -0.1057 -0.5187
29455W        W72367  25.591   2.644  19.922  0.1099 -0.0177 -0.3325
29456W        W72368  27.911  34.239  17.424  0.3675 -0.1274 -0.0336
29457W        W72369  25.914  33.629  18.750  0.1595  0.0816 -0.1534
29458W        W72370  29.275  32.909  18.537 -0.0129 -0.2381 -0.0866
29459W        W72371  27.304  32.655  19.634  0.1186 -0.0780  0.0213
29460W        W72372  27.035  34.390  17.958 -0.2654  0.2903  0.1178
29461W        W72373  26.641  34.036  18.106  0.1418  0.1969  0.1510
29462W        W72374  25.883  32.246  20.102 -0.2576  0.0388  0.1913
29463W        W72375  28.518  34.057  15.774 -0.0811  0.5036 -0.0652
29464W        W72376  28.389  33.273  18.426  0.0452  0.2696  0.0327
29465W        W72377  29.333  34.131  17.390 -0.4512 -0.0697  0.1954
29466W        W72378  27.253  34.429  15.527  0.0945 -0.1837 -0.0448
29467W        W72379  25.376  33.337  17.851 -0.0774  0.0256 -0.1020
29468W        W72380  29.174   0.237  18.889  0.0592 -0.2411  0.0995
29469W        W72381  26.608  33.396  16.466 -0.1107 -0.0572  0.2865
29470W        W72382  27.403  33.658  18.764 -0.0171 -0.4985 -0.0332
29471W        W72383  27.568   0.055  16.344 -0.1715 -0.2007  0.1340
29472W        W72384  24.555  33.913  19.091 -0.2617 -0.1590  0.0196
29473W        W72385  24.841  33.181  15.715  0.0911  0.0975  0.1729
29474W        W72386  27.573  33.277  16.171  0.3082  0.2657  0.1592
29475W        W72387  27.490  32.705  15.865  0.0637 -0.0553  0.0073
29476W        W72388  27.262  33.790  17.854  0.0183 -0.0657  0.1305
29477W        W72389  27.183  32.663  19.154 -0.0199  0.2600 -0.0051
29478W        W72390  28.301  34.038  18.742  0.2945 -0.0312 -0.0701
29479W        W72391  28.087  34.327  16.988  0.3418  0.2679 -0.1362
29480W        W72392  28.100  34.276  18.349  0.1054  0.3506  0.3302
29481W        W72393  27.922  33.608  18.779 -0.2445  0.4114 -0.2160
29482W        W72394  26.527   0.838  18.111 -0.0948  0.0715  0.0912
29483W        W72395  23.955  34.507  19.670  0.0825  0.0565  0.1287
29484W        W72396  26.973  32.691  18.667  0.1968 -0.1106  0.4672
29485W        W72397  27.213  33.595  16.014 -0.1386  0.0153  0.3224
29486W        W72398  29.080  32.760  15.741 -0.2393  0.2100  0.1998
29487W        W72399  30.663  34.531  18.898  0.0964 -0.1143  0.1280
29488W        W72400  29.121  32.741  17.461  0.1205  0.1333  0.0012
29489W        W72401  27.641  34.385  18.220 -0.0980  0.1175 -0.0957
29490W        W72402  26.298  32.929  16.416 -0.2320 -0.1918 -0.1202
29491W        W72403  27.227  34.092  18.914 -0.2469 -0.1084  0.0444
29492W        W72404  27.705  33.327  19.095  0.1630  0.0928  0.1435
29493W        W72405  26.412  33.565  16.875  0.2298  0.1457 -0.3162
29494W        W72406  28.155  34.691  17.317 -0.1588 -0.0344 -0.1527
29495W        W72407  29.448  31.910  19.155  0.1029 -0.0769  0.0848
29496W        W72408  27.066  32.710  17.229 -0.0939 -0.2034 -0.2019
29497W        W72409  24.683  32.881  16.205 -0.2238  0.1995 -0.3677
29498W        W72410  28.213  33.862  16.664  0.1493  0.0509  0.2549
29499W        W72411  25.470  34.402  18.962  0.2279  0.0605 -0.0993
29500W        W72412  28.559  33.775  19.308 -0.1853  0.1769  0.2846
29501W        W72413  26.221  32.387  18.119 -0.1520  0.3061  0.0301
29502W        W72414  26.385  33.434  17.330 -0.0960 -0.0452 -0.1842
29503W        W72415  27.827   1.226  19.999  0.1289 -0.1949 -0.1958
29504W        W72416  26.843  33.062  16.682  0.3172 -0.1623  0.1082
29505W        W72417  27.836   0.294  18.689 -0.1355 -0.0265  0.0696
29506W        W72418  27.188  32.870  16.239  0.1936  0.1325 -0.1803
29507W        W72419  25.829  34.203  17.966 -0.1040  0.1156 -0.0424
29508W        W72420  28.998   0.313  17.286  0.0062 -0.0688 -0.0584
29509W        W72421  25.897   0.830  18.796  0.1197  0.1264  0.0156
29510W        W72422  25.629  34.661  17.773 -0.0765  0.1258  0.0962
29511W        W72423  25.587  34.378  16.956  0.1118 -0.2240  0.1212
29512W        W72424  28.612  33.587  17.436 -0.0275 -0.4581 -0.1196
29513W        W72425  28.639   0.268  16.906  0.1145 -0.1717  0.0668
29514W        W72426  25.239  33.454  20.309 -0.1151  0.1631  0.1358
29515W        W72427  25.644  32.762  17.078  0.0990 -0.1356  0.0432
29516W        W72428  26.800   0.975  18.548 -0.0256  0.3226  0.1058
29517W        W72429  27.444  34.252  17.693 -0.1519 -0.1533  0.2093
29518W        W72430  28.375  33.643  17.884 -0.0294 -0.2347  0.2608
29519W        W72431  28.127  33.256  18.025 -0.1823 -0.1096  0.2349
29520W        W72432  25.742  32.952  17.562  0.1899 -0.3431  0.4642
29521W        W72433  26.994  33.029  17.665  0.0208  0.1460  0.2995
29522W        W72434  29.536  32.456  17.587 -0.0425 -0.2272 -0.3822
29523W        W72435  28.795  32.319  17.370 -0.0562 -0.3118 -0.3471
29524W        W72436  26.524   0.890  19.517 -0.0263  0.1621 -0.0948
29525W        W72437  25.732  34.181  17.490 -0.0685  0.1098 -0.4252
29526W        W72438  25.733  32.251  18.846  0.0692  0.1697 -0.0142
29527W        W72439  26.164  34.304  19.793  0.0704  0.1905 -0.2829
29528W        W72440  25.903  33.155  17.147 -0.1225 -0.0903  0.0330
29529W        W72441  25.835  32.059  16.834 -0.2905  0.0601  0.1490
29530W        W72442  25.529  33.947  19.100  0.1051  0.0539  0.1528
29531W        W72443  24.851  32.549  17.207 -0.0199  0.2553 -0.1533
29532W        W72444  27.238  33.405  16.525 -0.0682  0.1052 -0.3140
29533W        W72445  26.856   0.151  20.201  0.2655  0.2246  0.1709
29534W        W72446  26.422  33.800  18.990  0.2206  0.0046 -0.1584
29535W        W72447  26.364  32.855  15.928  0.0132 -0.3406 -0.2407
29536W        W72448  26.129  32.858  18.011  0.1088  0.0739  0.2430
29537W        W72449  25.456  32.346  19.703  0.0193 -0.3273  0.0231
29538W        W72450  30.160  32.583  19.579  0.1709 -0.0067  0.1682
29539W        W72451  28.700   0.691  17.577  0.2064  0.2394  0.0636
29540W        W72452  25.022  34.463  20.434  0.0543  0.1168  0.1065
29541W        W72453  26.327  32.342  18.706  0.1529  0.0946  0.1570
29542W        W72454  28.843  34.381  16.697 -0.3319 -0.0110  0.0077
29543W        W72455  25.393  33.456  18.855 -0.2139 -0.5282 -0.1996
29544W        W72456  26.282   0.046  17.094 -0.0009 -0.3110 -0.1036
29545W        W72457  27.903  34.034  17.951  0.0714  0.2510 -0.0255
29546W        W72458  26.746  33.073  16.155 -0.4780 -0.0739 -0.0508
29547W        W72459  28.685  34.150  16.284  0.0890 -0.2949  0.1398
29548W        W72460  26.790  32.807  19.517 -0.0426 -0.0043 -0.1607
29549W        W72461  26.082  33.818  15.962 -0.3142 -0.2032  0.0303
29550W        W72462  28.443   1.657  18.021  0.2629  0.0132 -0.2529
29551W        W72463  27.046  34.603  19.043  0.2563 -0.2176 -0.0124
29552W        W72464  25.776   0.318  18.668  0.0760 -0.0161  0.0626
29553W        W72465  27.846  32.883  16.190 -0.0276 -0.0892  0.1658
29554W        W72466  25.683  34.561  20.963 -0.1552  0.2592  0.0926
29555W        W72467  26.947  33.679  19.065 -0.1134  0.1374  0.0516
29556W        W72468  29.348  34.342  19.690  0.2931  0.2607  0.1127
29557W        W72469  26.669  33.773  21.048 -0.1235 -0.1738 -0.0496
29558W        W72470  25.922  32.357  22.854  0.0180  0.0909  0.5684
29559W        W72471  27.576  33.724  20.384  0.1957 -0.2094 -0.3187
29560W        W72472  24.946  34.562  22.382 -0.2811  0.3842  0.1878
29561W        W72473  25.972  33.890  21.860 -0.3169 -0.1809 -0.0426
29562W        W72474  25.232  32.185  22.419 -0.3404  0.0889 -0.3973
29563W        W72475  28.768   0.216  22.191  0.1108 -0.0138  0.1553
29564W        W72476  25.115   0.331  20.453  0.1817  0.0412  0.2123
29565W        W72477  25.245   0.119  21.887  0.0561  0.0979  0.0975
29566W        W72478  26.564  34.675  19.259  0.0501 -0.0773 -0.0378
29567W        W72479  27.586  34.136  23.723 -0.2145  0.1711 -0.2688
29568W        W72480  27.243  33.596  22.189  0.1493 -0.0972  0.3136
29569W        W72481  25.642   0.278  19.640 -0.2218  0.0641  0.2921
29570W        W72482  26.752   0.491  21.381  0.0172 -0.0044 -0.0893
29571W        W72483  27.633   0.564  22.452  0.1301 -0.2289  0.0154
29572W        W72484  28.182  33.235  21.041  0.1811  0.1736 -0.0340
29573W        W72485  27.642   0.956  22.764 -0.1166 -0.1101  0.0582
29574W        W72486  27.306  34.358  23.392 -0.0276  0.3089  0.3087
29575W        W72487  28.506   1.353  22.632  0.0953  0.1532  0.1076
29576W        W72488  27.110  34.576  21.453 -0.0435 -0.0903  0.2395
29577W        W72489  28.173  33.304  22.728  0.0273 -0.1769  0.0019
29578W        W72490  27.290  34.032  20.021 -0.0208  0.3753  0.2200
29579W        W72491  25.788  34.312  19.338 -0.0136 -0.2531  0.0346
29580W        W72492  27.759   0.164  20.091 -0.0661  0.0779 -0.1582
29581W        W72493  26.850  33.233  22.892 -0.2145 -0.0984  0.0548
29582W        W72494  25.491   0.247  22.326  0.4738  0.1722  0.0081
29583W        W72495  25.647   0.555  21.603 -0.0555  0.1564 -0.0920
29584W        W72496  26.396   0.050  21.990  0.0374 -0.0940  0.0111
29585W        W72497  25.913   0.273  22.080 -0.1087  0.5999 -0.1667
29586W        W72498  26.851   0.912  22.188  0.1974 -0.1095  0.0073
29587W        W72499  25.040   0.223  23.516  0.1454 -0.1557  0.1332
29588W        W72500  25.002  34.252  23.413  0.1612  0.3025 -0.0206
29589W        W72501  25.838  34.287  20.148 -0.1167  0.2099  0.0261
29590W        W72502  27.779  32.916  20.859 -0.1405 -0.0236 -0.1860
29591W        W72503  27.955  33.809  22.303  0.1065  0.2464 -0.0340
29592W        W72504  28.206  32.770  22.488 -0.0942  0.0522 -0.1169
29593W        W72505  27.643  33.934  19.659 -0.2696 -0.1422 -0.1616
29594W        W72506  27.056  33.886  23.291  0.0304  0.1869  0.0238
29595W        W72507  25.685  32.703  22.268 -0.2314  0.0125  0.0161
29596W        W72508  27.756  34.255  20.073 -0.0399  0.1721  0.1111
29597W        W72509  26.303  33.381  22.702  0.0977 -0.2970 -0.0999
29598W        W72510  27.224  33.099  21.172 -0.4283 -0.0348  0.1626
29599W        W72511  28.240   0.412  20.230  0.2597 -0.0340  0.1188
29600W        W72512  24.657  33.982  23.030  0.1942  0.2017  0.2131
29601W        W72513  27.490  34.631  20.801 -0.0970 -0.0897  0.0607
29602W        W72514  26.419  34.197  23.962 -0.1988 -0.2166 -0.2836
29603W        W72515  25.167  31.923  22.830  0.3642  0.2589  0.0115
29604W        W72516  26.590  34.605  22.887  0.1187  0.1016 -0.2139
29605W        W72517  25.492  34.007  20.552  0.1148 -0.2273 -0.3109
29606W        W72518  27.933   0.016  21.835  0.3629 -0.2201 -0.0946
29607W        W72519  27.972  34.255  21.039  0.0431 -0.0491 -0.2430
29608W        W72520  26.926  34.116  22.837 -0.2132 -0.0813  0.2688
29609W        W72521  25.203  34.379  21.261 -0.1648  0.4049 -0.1581
29610W        W72522  26.049   0.074  19.983 -0.2819  0.1100 -0.2604
29611W        W72523  26.462  34.656  20.700 -0.0521 -0.0240 -0.0893
29612W        W72524  26.813  33.812  22.371  0.1136 -0.0084 -0.0517
29613W        W72525  27.164  34.054  18.320  0.1315  0.1807  0.3704
29614W        W72526  26.546  33.504  20.540  0.0681  0.0315  0.2104
29615W        W72527  24.080   0.606  22.220 -0.0037  0.0195  0.0526
29616W        W72528  28.037  33.810  22.808 -0.2099 -0.2951 -0.1718
29617W        W72529  24.243   0.204  23.128 -0.1076 -0.1184  0.1791
29618W        W72530  27.143   0.452  22.237 -0.0282 -0.0344 -0.3407
29619W        W72531  26.018  34.264  20.615  0.1877 -0.1738  0.3569
29620W        W72532  27.242  32.869  23.049  0.0251  0.2510 -0.0297
29621W        W72533  28.547  33.410  20.184  0.0500 -0.0839  0.0469
29622W        W72534  26.253   0.446  18.816 -0.0069  0.1840  0.4032
29623W        W72535  24.907   0.813  19.366  0.1355  0.2028 -0.0916
29624W        W72536  26.581   0.039  18.716  0.3122  0.0978 -0.1220
29625W        W72537  26.508  31.995  22.820 -0.0398  0.1265 -0.1856
29626W        W72538  26.011   0.183  20.696 -0.0801  0.1536  0.3275
29627W        W72539  26.247  33.484  21.003 -0.1264 -0.0454  0.1858
29628W        W72540  27.070  33.650  22.791  0.2113  0.1348 -0.0545
29629W        W72541  28.021  34.340  22.124 -0.2191  0.0193  0.1716
29630W        W72542  26.942  32.905  22.207 -0.1382 -0.0313 -0.1239
29631W        W72543  27.249  34.304  24.430  0.1489  0.1217 -0.0330
29632W        W72544  27.364  34.532  20.214  0.0471 -0.0527 -0.0924
29633W        W72545  25.773  34.009  22.288 -0.1258  0.2645  0.0427
29634W        W72546  25.040  33.714  19.316  0.1196  0.2858 -0.0624
29635W        W72547  25.608  34.474  22.457 -0.4208  0.0700 -0.0638
29636W        W72548  27.072   0.081  23.580  0.1498 -0.1111  0.1278
29637W        W72549  26.751  32.860  21.390 -0.4863  0.2199 -0.1373
29638W        W72550  26.295  32.762  21.110  0.1500  0.0773  0.0102
29639W        W72551  28.760  34.434  22.161  0.0006  0.1286 -0.0878
29640W        W72552  26.398  33.271  19.243  0.0752  0.3781  0.3489
29641W        W72553  25.554  34.546  20.470 -0.0030 -0.0486  0.1746
29642W        W72554  28.331   0.010  19.447 -0.1513  0.0806  0.0949
29643W        W72555  24.945  34.059  22.563 -0.1196 -0.0705 -0.4178
29644W        W72556  27.421  33.381  20.775 -0.1195 -0.2353  0.2285
29645W        W72557  26.318   0.358  22.960  0.1325  0.1725 -0.1536
29646W        W72558  28.484  33.400  20.680 -0.1479  0.1019 -0.3185
29647W        W72559  26.122   0.119  23.558  0.0933  0.1630 -0.1526
29648W        W72560  25.029  33.143  20.603 -0.3421  0.0308  0.1381
29649W        W72561  27.690  33.364  22.077 -0.2832 -0.1057  0.1331
29650W        W72562  26.617   0.027  21.415 -0.0965  0.0159 -0.0256
29651W        W72563  25.884   1.014  19.836 -0.0644 -0.1342  0.3252
29652W        W72564  27.052   0.139  25.023  0.3748  0.1421  0.1509
29653W        W72565  26.815   0.049  22.270 -0.2301  0.0678  0.0417
29654W        W72566  27.012  34.434  20.489  0.0840 -0.0150  0.2288
29655W        W72567  28.199  34.541  20.148 -0.1184 -0.0881 -0.0559
29656W        W72568  26.610  33.741  22.921  0.1651  0.0106 -0.0371
29657W        W72569  26.945  32.377  21.521  0.0889 -0.0466 -0.0540
29658W        W72570  27.886  34.583  23.762 -0.1094  0.0564 -0.0685
29659W        W72571  27.454  32.721  21.491 -0.0809  0.0572 -0.0131
29660W        W72572  28.911  34.206  19.514  0.0244  0.0016  0.1661
29661W        W72573  27.458  34.005  21.476  0.0305 -0.1716  0.2523
29662W        W72574  28.808   0.108  23.577  0.1499  0.4164  0.0507
29663W        W72575  27.867  34.574  19.718  0.2511  0.2553 -0.0147
29664W        W72576  27.491  33.102  23.458  0.1294  0.0380 -0.4068
29665W        W72577  25.373  33.639  21.985  0.0194 -0.0678  0.1010
29666W        W72578  24.406  34.249  23.689 -0.3156  0.1337 -0.2517
29667W        W72579  25.141  33.750  23.340  0.1382  0.1371 -0.1832
29668W        W72580  28.263  33.778  21.687 -0.1200 -0.1008 -0.3955
29669W        W72581  27.193  32.647  20.205 -0.0840 -0.1738  0.0409
29670W        W72582  25.402   1.527  21.494 -0.1308  0.2274  0.1098
29671W        W72583  28.382   0.021  22.388  0.1075  0.0603  0.3663
29672W        W72584  24.722  34.386  21.285 -0.0939 -0.0400  0.2252
29673W        W72585  28.665  34.602  20.930  0.0164 -0.2146  0.1076
29674W        W72586  26.171  34.308  22.120 -0.2100 -0.2514 -0.0948
29675W        W72587  27.605  34.316  21.828  0.0438  0.2591  0.3584
29676W        W72588  27.191  34.010  21.894 -0.0991  0.3527  0.3708
29677W        W72589  27.890   0.033  24.372 -0.0098 -0.1627 -0.2350
29678W        W72590  25.290  34.141  22.160 -0.0331  0.1992 -0.1051
29679W        W72591  25.696  33.958  24.036 -0.3248  0.0215 -0.0393
29680W        W72592  29.099  32.930  19.721  0.1099  0.1238 -0.0428
29681W        W72593  27.593  34.479  21.326  0.0718 -0.1109  0.1250
29682W        W72594  28.352  33.929  20.140 -0.0981 -0.2370 -0.0008
29683W        W72595  26.328  34.380  20.276  0.1097 -0.0379  0.2477
29684W        W72596  25.457   0.156  21.338 -0.2018 -0.3581  0.2989
29685W        W72597  27.491  33.879  24.635  0.1277  0.1989 -0.0074
29686W        W72598  26.441  33.686  19.566 -0.1780 -0.2781  0.0671
29687W        W72599  28.319  34.687  23.492  0.1600 -0.0544 -0.0852
29688W        W72600  26.539  33.988  21.973  0.2722 -0.0783  0.5729
29689W        W72601  26.408  33.724  21.562 -0.0780 -0.0718 -0.1103
29690W        W72602  24.938  34.557  19.872  0.1591 -0.1478  0.0268
29691W        W72603  26.413   0.372  21.016  0.1294 -0.2573  0.1156
29692W        W72604  25.595   0.723  18.436 -0.0400 -0.0373  0.0124
29693W        W72605  28.502  34.190  23.561  0.3120 -0.1291  0.1834
29694W        W72606  26.206  33.459  22.080 -0.0720  0.0243  0.0474
29695W        W72607  26.871  32.755  22.710  0.2319  0.0137 -0.0945
29696W        W72608  28.415  34.025  22.067  0.2090  0.0486 -0.2399
29697W        W72609  25.779   1.166  21.915  0.0174 -0.3420  0.0290
29698W        W72610  27.425  33.983  22.553  0.1405 -0.1896  0.2896
29699W        W72611  26.304   0.394  21.648 -0.0541 -0.0472  0.0133
29700W        W72612  25.507   0.061  23.456 -0.1523 -0.3656  0.1972
29701W        W72613  27.564  33.176  20.351  0.2504  0.1678 -0.1856
29702W        W72614  26.581  34.188  19.577 -0.1424  0.0483  0.0317
29703W        W72615  28.976  32.812  20.663 -0.2602  0.1363  0.0423
29704W        W72616  28.307  34.688  20.588 -0.0720  0.1986  0.0732
29705W        W72617  28.874  32.933  20.207 -0.2624 -0.1752  0.2060
29706W        W72618  26.094   1.200  22.574 -0.0813 -0.0203  0.2185
29707W        W72619  26.437  34.260  18.727  0.1532 -0.0118 -0.3057
29708W        W72620  26.377   0.412  23.878 -0.2883  0.0262  0.1608
29709W        W72621  28.440   0.035  21.809  0.0128 -0.2648  0.1120
29710W        W72622  24.761   0.696  20.369  0.0994  0.1223  0.2063
29711W        W72623  28.278   0.411  22.064 -0.2990 -0.0983 -0.4546
29712W        W72624  28.281  32.401  22.019  0.3246  0.5222 -0.0055
29713W        W72625  26.731   0.988  23.280  0.1110 -0.3244  0.2258
29714W        W72626  26.918  33.119  20.372 -0.0825  0.0160  0.1149
29715W        W72627  27.785  33.883  21.837 -0.0576 -0.2352  0.1868
29716W        W72628  25.283  33.516  21.445  0.0890 -0.0207 -0.2458
29717W        W72629  27.857  33.273  24.145  0.0617  0.0770  0.1584
29718W        W72630  26.653  34.271  21.208  0.0582  0.0545 -0.0107
29719W        W72631  30.141  34.351  20.461 -0.2618 -0.1442 -0.3423
29720W        W72632  24.781  34.094  24.033  0.3389  0.1059 -0.0497
29721W        W72633  26.576   0.771  20.653  0.0715 -0.0886  0.4900
29722W        W72634  29.239  33.851  23.120 -0.0497 -0.0491  0.1530
29723W        W72635  26.304  33.620  17.896 -0.1451 -0.1820 -0.2605
29724W        W72636  25.726  33.391  21.725 -0.5106 -0.2931  0.0864
29725W        W72637  27.498  34.423  19.243 -0.2633  0.5208  0.1134
29726W        W72638  26.203  34.631  21.100  0.1454  0.4952 -0.0210
29727W        W72639  26.255   0.654  22.386  0.1989  0.1200 -0.0324
29728W        W72640  25.080  33.311  19.755  0.2023  0.1502 -0.0921
29729W        W72641  27.219   0.298  21.103  0.0500 -0.1502 -0.0457
29730W        W72642  29.069   0.961  22.117  0.1124  0.0233  0.1849
29731W        W72643  27.061  33.823  20.728 -0.0029 -0.2555  0.1230
29732W        W72644  25.494  32.470  21.051 -0.0641  0.0893 -0.1280
29733W        W72645  25.417   0.634  21.156 -0.0314  0.0553 -0.0900
29734W        W72646  27.590  34.435  22.305 -0.1886 -0.1645 -0.0439
29735W        W72647  28.818  34.085  23.089  0.2638  0.2579 -0.1207
29736W        W72648  29.002  34.279  23.484  0.2464  0.1073 -0.2267
29737W        W72649  27.921  33.474  20.653 -0.4289 -0.1550 -0.1804
29738W        W72650  26.803  33.899  20.296  0.1756 -0.1201  0.1225
29739W        W72651  28.046  31.376  19.540 -0.3363  0.3080  0.0543
29740W        W72652  27.436  32.966  22.069 -0.0348  0.2859  0.2285
29741W        W72653  26.269   0.970  22.024  0.0948  0.3979  0.0477
29742W        W72654  24.043   0.096  20.115 -0.4044  0.3425  0.2551
29743W        W72655  27.273  33.198  22.529  0.0753  0.0803  0.1819
29744W        W72656  25.913   0.701  23.840  0.0673 -0.3156  0.0083
29745W        W72657  25.936   0.349  21.164  0.1262 -0.2164 -0.1367
29746W        W72658  26.647  32.443  21.068  0.1932  0.2217 -0.0350
29747W        W72659  25.869  32.858  21.393 -0.0313 -0.0074  0.0799
29748W        W72660  25.442  34.013  21.672  0.1401 -0.0904 -0.2884
29749W        W72661  27.434  33.504  19.945  0.0735  0.0373 -0.2758
29750W        W72662  25.917  34.392  23.759 -0.0845  0.1150  0.0278
29751W        W72663  25.783  34.096  22.844 -0.1953  0.2316  0.0813
29752W        W72664  24.796  33.624  20.041 -0.0865  0.1334  0.0852
29753W        W72665  27.282   0.102  22.570 -0.3072  0.0903 -0.3742
29754W        W72666  25.947  32.540  23.706  0.2175  0.2807 -0.2195
29755W        W72667  27.760  32.460  22.225  0.2941 -0.4440  0.0745
29756W        W72668  28.395  34.179  20.724 -0.0761 -0.0157 -0.1932
29757W        W72669  26.555  33.942  23.548 -0.2823 -0.0996 -0.0596
29758W        W72670  25.315  32.932  22.008  0.0296 -0.0569  0.0049
29759W        W72671  26.774  31.547  20.779 -0.0214  0.0951 -0.3873
29760W        W72672  24.996  33.935  20.377 -0.0104  0.2331  0.1932
29761W        W72673  27.410  34.137  20.552 -0.1604 -0.0697  0.0124
29762W        W72674  25.804   0.371  22.768  0.0733 -0.3530 -0.2495
29763W        W72675  28.155  32.597  19.272  0.1188 -0.0694  0.2069
29764W        W72676  29.046  34.183  20.069  0.1462  0.1707 -0.0256
29765W        W72677  24.799  32.262  22.747 -0.3776  0.0028 -0.0734
29766W        W72678  25.418   0.132  20.096  0.1068 -0.2005 -0.2517
29767W        W72679  26.819  34.485  21.830  0.3988  0.2127  0.0475
29768W        W72680  27.338   0.494  22.895  0.0227 -0.0883 -0.1267
29769W        W72681  25.667  34.414  21.959  0.4755 -0.2096 -0.0685
29770W        W72682  26.329  32.419  20.010  0.0695 -0.0399 -0.2046
29771W        W72683  26.526  33.175  24.878  0.1445 -0.2218 -0.2036
29772W        W72684  29.814  34.627  23.643 -0.1631  0.3228 -0.0354
29773W        W72685  27.925   0.325  23.938  0.1415  0.0057  0.2318
29774W        W72686  26.748  33.940  25.449  0.1019  0.1656  0.3918
29775W        W72687  27.782  33.506  25.573  0.0987 -0.1356 -0.0814
29776W        W72688  26.814   0.653  22.910 -0.1668  0.5505  0.0385
29777W        W72689  26.429  33.519  26.111 -0.2027  0.4273  0.0238
29778W        W72690  26.515  33.434  23.302 -0.2706  0.1184  0.0049
29779W        W72691  24.407  33.529  24.837  0.1190  0.4006  0.1347
29780W        W72692  29.077  33.925  25.846  0.2924 -0.1435  0.0466
29781W        W72693  22.948  33.382  24.760  0.0099 -0.1515 -0.4032
29782W        W72694  25.174   0.407  26.133 -0.1323 -0.0511  0.0073
29783W        W72695  30.135  34.372  25.204  0.0718 -0.0617  0.3820
29784W        W72696  28.721  33.892  26.383 -0.1248  0.4931 -0.0275
29785W        W72697  27.426  34.489  27.173 -0.0934  0.1394  0.2699
29786W        W72698  25.612  34.192  23.383 -0.2048 -0.1149  0.1581
29787W        W72699  26.070  34.132  25.924  0.0518 -0.1267  0.0926
29788W        W72700  26.144  34.205  25.423  0.0658 -0.0878  0.0702
29789W        W72701  27.891  32.544  24.577 -0.0114 -0.2584 -0.2544
29790W        W72702  28.359  34.499  25.744 -0.0062  0.2950  0.0284
29791W        W72703  28.019  33.943  27.551  0.0498 -0.1132  0.1590
29792W        W72704  26.779   0.871  26.222 -0.1846 -0.2147 -0.0506
29793W        W72705  26.649  34.668  25.327 -0.0341 -0.4482 -0.1682
29794W        W72706  28.607  32.318  27.620  0.1449 -0.1326  0.0062
29795W        W72707  29.019  34.105  24.307 -0.0455 -0.1595  0.0450
29796W        W72708  26.724  33.309  22.348  0.2497 -0.1379 -0.0960
29797W        W72709  28.791  33.212  25.130  0.1867 -0.2875  0.0527
29798W        W72710  26.899  33.743  25.879  0.1162  0.0014 -0.3147
29799W        W72711  26.446  32.703  25.107  0.2203  0.0070 -0.0167
29800W        W72712  27.700   0.140  26.203  0.0045 -0.2797 -0.0931
29801W        W72713  28.228  34.631  27.049 -0.0886 -0.1915 -0.1113
29802W        W72714  25.676  34.554  26.131 -0.0114 -0.5339  0.0371
29803W        W72715  25.161  33.858  24.386 -0.1285  0.0888 -0.1779
29804W        W72716  25.621  34.073  26.213  0.2416  0.2201 -0.1837
29805W        W72717  25.862  33.902  26.762  0.3722  0.0436 -0.0279
29806W        W72718  27.443  31.878  21.885  0.1157  0.3064  0.1875
29807W        W72719  29.037  34.402  25.735  0.3557  0.2764 -0.0871
29808W        W72720  27.523  33.744  25.150 -0.3828 -0.1029 -0.0771
29809W        W72721  28.070  33.316  26.409  0.2542  0.0402  0.2049
29810W        W72722  29.200  34.349  22.908  0.0305 -0.0927  0.2289
29811W        W72723  27.548  33.224  27.542 -0.0840 -0.3682 -0.1742
29812W        W72724  26.223  33.440  26.582 -0.0680 -0.0920  0.0799
29813W        W72725  28.111  34.031  25.732 -0.0299  0.1933 -0.1210
29814W        W72726  26.795  32.571  26.433 -0.2347  0.0411 -0.0534
29815W        W72727  29.153  32.983  24.015 -0.4716 -0.2145 -0.0935
29816W        W72728  28.612  34.592  25.319 -0.3800 -0.2624  0.2260
29817W        W72729  25.073  33.694  27.392 -0.4094 -0.1415 -0.2002
29818W        W72730  27.053  33.800  25.030 -0.3604  0.2048 -0.1190
29819W        W72731  25.792  34.385  26.646 -0.0970 -0.1161  0.0583
29820W        W72732  25.461  32.535  25.747 -0.2619 -0.0575  0.0706
29821W        W72733  30.334  34.602  26.596  0.0587 -0.2711  0.0365
29822W        W72734  25.567  32.852  25.339  0.1083 -0.0455  0.1615
29823W        W72735  28.958  33.482  24.737  0.1573  0.0850 -0.1128
29824W        W72736  25.553  32.130  24.455  0.1878 -0.0089 -0.1406
29825W        W72737  29.718   0.032  27.334 -0.1018 -0.0765 -0.1936
29826W        W72738  27.115  32.995  26.561  0.1106  0.0030  0.2975
29827W        W72739  26.656  33.010  23.888 -0.1478  0.1389  0.0162
29828W        W72740  25.811  33.011  22.651 -0.2859 -0.0536 -0.4013
29829W        W72741  29.441  34.259  26.093  0.0645  0.1117 -0.1536
29830W        W72742  28.792  34.603  24.839 -0.0536  0.0958 -0.0647
29831W        W72743  26.157  33.863  24.207 -0.1343  0.1026  0.2824
29832W        W72744  25.597  33.607  26.475 -0.1496 -0.0566  0.2562
29833W        W72745  27.626  32.172  24.884  0.1005  0.1077  0.2102
29834W        W72746  24.894   1.484  27.844  0.0556 -0.2307  0.0967
29835W        W72747  27.530  34.357  28.849 -0.1698  0.1302 -0.4408
29836W        W72748  25.997  34.325  24.330 -0.0432  0.1858  0.3258
29837W        W72749  28.409  33.300  24.796 -0.0517 -0.2344 -0.0784
29838W        W72750  28.689  32.190  23.192 -0.1692  0.0885  0.0027
29839W        W72751  27.975  33.877  23.360 -0.2577  0.1972  0.0420
29840W        W72752  26.364  32.471  22.677  0.1029 -0.1167  0.0556
29841W        W72753  27.862  34.158  24.873 -0.1401 -0.1240  0.3843
29842W        W72754  27.593  32.499  25.764 -0.0194 -0.2776  0.2171
29843W        W72755  26.110  34.486  24.833  0.2456  0.0181 -0.2715
29844W        W72756  26.704  33.217  25.787  0.3014  0.0472 -0.0938
29845W        W72757  28.545  33.345  26.293 -0.1352 -0.2544  0.2717
29846W        W72758  27.732  34.039  27.134 -0.0107  0.1288  0.2068
29847W        W72759  27.386  33.036  27.108  0.0455 -0.1615  0.4339
29848W        W72760  28.940  34.461  28.166 -0.0518  0.2899 -0.0669
29849W        W72761  26.778  33.696  24.107  0.0960 -0.2441  0.2751
29850W        W72762  28.954  34.167  25.186 -0.0118  0.4247  0.0931
29851W        W72763  25.562  33.644  23.602  0.3220  0.0720 -0.0485
29852W        W72764  28.194  34.158  26.920 -0.1157 -0.0472 -0.0092
29853W        W72765  28.912  34.039  27.000  0.1702  0.1403  0.2063
29854W        W72766  28.653  33.850  24.536 -0.1689 -0.0291  0.0864
29855W        W72767  27.312   0.513  26.181 -0.2939 -0.0334  0.0637
29856W        W72768  27.992  32.469  26.277  0.1196  0.3578 -0.1741
29857W        W72769  26.095  33.398  24.599 -0.2011 -0.1596 -0.1861
29858W        W72770  24.364  33.357  25.849 -0.0265  0.1265 -0.1940
29859W        W72771  28.837  30.929  27.594  0.1322  0.0209  0.2031
29860W        W72772  26.210  33.835  25.161  0.3111 -0.2733  0.0752
29861W        W72773  27.111  32.909  24.852 -0.1403 -0.0043 -0.0202
29862W        W72774  28.420   0.755  27.046 -0.2227  0.1615  0.1947
29863W        W72775  26.920  34.178  23.799 -0.0261  0.2400  0.0075
29864W        W72776  26.717  32.955  27.962  0.0193 -0.3402  0.1475
29865W        W72777  25.844  32.927  24.793  0.5165  0.0509  0.0439
29866W        W72778  27.903  34.533  26.633  0.2627 -0.3322 -0.0501
29867W        W72779  27.979  33.592  24.717  0.0264  0.0962 -0.1980
29868W        W72780  27.023  34.369  25.245  0.3935  0.0154 -0.3145
29869W        W72781  25.919  33.944  27.760 -0.0256 -0.1110  0.0456
29870W        W72782  26.544  34.430  26.689 -0.0383  0.2107 -0.0877
29871W        W72783  26.593  34.324  25.702  0.5452 -0.2128  0.0232
29872W        W72784  27.552  34.068  25.884  0.0690 -0.2430  0.2584
29873W        W72785  26.363  34.014  27.572  0.1296  0.1765 -0.2240
29874W        W72786  26.500  33.660  24.788  0.2486 -0.3570  0.2630
29875W        W72787  28.984  33.048  27.633 -0.0583 -0.2154  0.0773
29876W        W72788  27.747  33.272  26.808  0.0672  0.2320  0.1996
29877W        W72789  29.145  34.530  24.359  0.3716  0.1923  0.2054
29878W        W72790  28.477  33.852  25.002 -0.1183  0.1062 -0.1215
29879W        W72791  29.568  34.313  27.652 -0.2382  0.6682 -0.4451
29880W        W72792  26.722  34.487  24.249  0.0358 -0.0509  0.0834
29881W        W72793  28.768  33.112  26.677 -0.5424  0.2489 -0.3513
29882W        W72794  26.453  32.985  26.769  0.0182  0.0951 -0.1319
29883W        W72795  25.703  32.914  27.555 -0.2120 -0.0322 -0.0892
29884W        W72796  25.535   0.613  27.505  0.0016 -0.0074 -0.0069
29885W        W72797  27.902  33.372  23.288  0.0052  0.0396  0.1357
29886W        W72798  27.318  32.442  24.642  0.1571  0.1037  0.0142
29887W        W72799  27.158   0.415  27.017 -0.0851 -0.1014 -0.1576
29888W        W72800  28.183  32.822  25.714  0.0212  0.2787 -0.2747
29889W        W72801  26.536   0.703  25.814  0.0535 -0.1905 -0.3099
29890W        W72802  27.531  34.256  25.265  0.1195  0.0305  0.0822
29891W        W72803  26.475  33.845  26.772  0.1493 -0.1722  0.1052
29892W        W72804  28.146   0.196  25.991  0.0200  0.0142  0.3963
29893W        W72805  27.346  33.597  27.792  0.3087 -0.2685 -0.1411
29894W        W72806  27.934  32.930  27.751 -0.0079 -0.1604 -0.5249
29895W        W72807  27.363  33.542  25.809 -0.0230 -0.1839 -0.0698
29896W        W72808  25.798  33.333  26.915  0.0678  0.0294 -0.0323
29897W        W72809  29.817  33.487  22.304  0.4747  0.0151  0.3034
29898W        W72810  28.335  33.706  26.600  0.2145  0.3588  0.2505
29899W        W72811  29.137  33.655  25.154 -0.0631 -0.1933  0.2949
29900W        W72812  27.030  34.224  25.974 -0.1401  0.0848  0.3025
29901W        W72813  25.743  33.651  24.403  0.1139  0.1086  0.1527
29902W        W72814  27.292   0.199  28.740 -0.1250 -0.2633 -0.1029
29903W        W72815  26.881  33.540  23.634 -0.0645 -0.1562  0.4376
29904W        W72816  27.497  33.152  25.434 -0.0723  0.1637  0.2448
29905W        W72817  29.208  33.635  24.290 -0.0234  0.0751 -0.1523
29906W        W72818  24.835  32.719  25.801 -0.1393  0.1924  0.1787
29907W        W72819  26.493  34.170  24.518  0.0489 -0.1097  0.3174
29908W        W72820  26.256  34.694  24.137  0.1354  0.1914  0.0329
29909W        W72821  27.765  33.762  24.232  0.1908 -0.4141  0.2865
29910W        W72822  29.341  34.650  26.429  0.3328 -0.0297  0.1925
29911W        W72823  27.437  32.966  24.407  0.1438 -0.0297 -0.1847
29912W        W72824  27.473  32.633  26.739  0.0725 -0.0178 -0.1410
29913W        W72825  28.563   0.508  25.685  0.1632  0.2200  0.1212
29914W        W72826  28.275  33.352  25.707 -0.0073  0.1733 -0.1106
29915W        W72827  28.710   0.626  27.934 -0.3467 -0.1435  0.0188
29916W        W72828  27.413  34.514  25.752 -0.2193  0.0446 -0.1734
29917W        W72829  26.366  33.784  25.709  0.1302 -0.1457 -0.2407
29918W        W72830  26.179  32.823  24.041 -0.0365  0.0490  0.3560
29919W        W72831  27.383  33.602  23.730 -0.0600  0.0852  0.2695
29920W        W72832  27.599  33.933  23.019 -0.1307 -0.1074 -0.1955
29921W        W72833  27.863  34.494  25.913 -0.0271  0.0023 -0.0908
29922W        W72834  28.897  33.294  23.728 -0.0163 -0.1682 -0.1611
29923W        W72835  27.834  33.709  26.058 -0.2502 -0.3081 -0.1860
29924W        W72836  27.288  33.376  23.155 -0.0267 -0.1263  0.0899
29925W        W72837  26.238  34.500  27.720 -0.1204  0.1252  0.3122
29926W        W72838  28.735  33.102  27.173 -0.3699  0.1012  0.2472
29927W        W72839  25.655  32.803  26.348 -0.2285 -0.1358  0.2714
29928W        W72840  27.134   0.020  26.161 -0.2234 -0.4873  0.0621
29929W        W72841  29.838  34.196  27.236 -0.2533  0.1038  0.0587
29930W        W72842  28.075  34.132  26.206 -0.3035 -0.2822 -0.3119
29931W        W72843  24.561  33.522  23.166  0.1484  0.0228 -0.0325
29932W        W72844  29.659  34.517  25.367  0.3540  0.2729 -0.0029
29933W        W72845  26.119   0.402  26.046 -0.3102  0.0486 -0.0865
29934W        W72846  29.178  32.130  26.849 -0.3249 -0.1089 -0.2881
29935W        W72847  27.327  33.892  26.310  0.3560 -0.0477  0.0420
29936W        W72848  29.211  33.108  25.445  0.2705  0.0903 -0.2054
29937W        W72849  26.637  34.041  26.284 -0.1146 -0.1927  0.2076
29938W        W72850  26.150  34.677  25.372 -0.0504  0.2086  0.0474
29939W        W72851  29.641  34.608  26.839  0.0392 -0.0946 -0.3900
29940W        W72852  28.227  34.153  24.459  0.1252  0.1188  0.2760
29941W        W72853  27.185  33.978  25.538  0.0217  0.1442 -0.0017
29942W        W72854  26.905  34.299  24.747 -0.0283  0.0958  0.1011
29943W        W72855  25.160   0.068  27.284  0.0539  0.2417 -0.1514
29944W        W72856  27.372  34.092  26.778 -0.0918 -0.2099 -0.1906
29945W        W72857  25.145  33.408  25.396  0.1032 -0.1087 -0.3558
29946W        W72858  29.344  34.024  25.463  0.0524  0.1965 -0.2843
29947W        W72859  27.359  34.588  23.948  0.2435 -0.3358 -0.0443
29948W        W72860  24.834  34.023  26.500 -0.1581  0.2137  0.0729
29949W        W72861  27.569  32.487  24.191  0.4203  0.0207  0.1933
29950W        W72862  26.072  33.957  24.695  0.0258  0.0317  0.0762
29951W        W72863  29.642  34.179  26.552 -0.2647 -0.1119  0.1305
29952W        W72864  28.787  33.580  26.886 -0.1472 -0.1204  0.0311
29953W        W72865  29.298  33.309  26.650 -0.1201  0.0629 -0.0614
29954W        W72866  27.872   0.704  25.505 -0.1003  0.0580 -0.1660
29955W        W72867  26.550  33.470  25.313  0.0922  0.0105 -0.1033
29956W        W72868  28.579  32.907  24.229 -0.2425  0.2159  0.1907
29957W        W72869  28.603  33.994  24.061  0.0000 -0.0558  0.2701
29958W        W72870  25.870  33.647  25.975 -0.0127  0.2055 -0.3625
29959W        W72871  24.647  34.477  24.473 -0.0922 -0.3084 -0.0882
29960W        W72872  27.813  33.572  27.213  0.1897  0.3946  0.1303
29961W        W72873  27.328  33.547  29.234 -0.1229 -0.1571  0.0915
29962W        W72874  25.272  34.645  25.855  0.1124 -0.0587  0.1434
29963W        W72875  25.609  33.443  24.822 -0.0317  0.0076  0.1335
29964W        W72876  25.207  34.032  25.471  0.1943 -0.2914 -0.3431
29965W        W72877  24.693  31.914  25.910  0.0407 -0.0145 -0.1966
29966W        W72878  26.843  32.991  25.325  0.1280  0.0436  0.1150
29967W        W72879  25.361  33.420  28.560  0.2073  0.0431  0.0019
29968W        W72880  26.359  33.354  27.074 -0.1229 -0.0758  0.0092
29969W        W72881  25.892  32.529  24.384  0.1308 -0.1853 -0.0601
29970W        W72882  28.652   0.260  26.989  0.4301 -0.0849  0.0510
29971W        W72883  25.914  33.358  27.465  0.0989 -0.2212  0.4980
29972W        W72884  28.368  32.308  23.909 -0.1198  0.0189  0.0696
29973W        W72885  27.685  34.284  24.225  0.5668 -0.1479 -0.0238
29974W        W72886  26.752  31.797  26.866 -0.0151  0.2198  0.1634
29975W        W72887  27.284  33.428  24.768  0.0331  0.0917 -0.1752
29976W        W72888  27.619  32.115  25.431 -0.2076  0.3457  0.0711
29977W        W72889  26.130  34.480  26.348  0.0743  0.1136  0.0993
29978W        W72890  26.589   0.017  24.697  0.1519 -0.1159 -0.1116
29979W        W72891  28.728  34.567  27.281 -0.0677 -0.0049 -0.4708
29980W        W72892  26.381  34.402  23.420  0.3018  0.1045  0.0545
29981W        W72893  28.969   0.630  22.751 -0.1703 -0.0178  0.1328
29982W        W72894  25.918  32.255  26.125  0.1339 -0.1210  0.1847
29983W        W72895  25.698  34.131  25.109 -0.2445 -0.1019 -0.1685
29984W        W72896  27.260   0.984  26.358 -0.0454 -0.1311 -0.1806
29985W        W72897  27.844  33.163  25.971  0.0035 -0.0144  0.2839
29986W        W72898  25.662  33.326  25.481  0.0674 -0.1638  0.2218
29987W        W72899  26.994  33.219  24.418  0.3251  0.0607  0.2361
29988W        W72900  26.309  34.099  28.203 -0.3024 -0.3065 -0.2651
29989W        W72901  29.176  33.464  27.209  0.1888  0.0962 -0.0037
29990W        W72902  27.298   0.144  28.267  0.1357  0.2398 -0.1296
29991W        W72903  24.149  33.597  30.276 -0.0350 -0.2568 -0.1392
29992W        W72904  26.541  33.662  30.919 -0.0885  0.1764 -0.0074
29993W        W72905  27.751   0.080  28.901 -0.0118  0.1265  0.2220
29994W        W72906  26.059  34.592  29.879  0.0205  0.1041  0.2457
29995W        W72907  27.010  33.350  28.095 -0.3131 -0.1608 -0.2725
29996W        W72908  24.901  33.879  29.351  0.2628 -0.0090  0.1747
29997W        W72909  28.083  33.552  29.723 -0.0832  0.0235 -0.1281
29998W        W72910  26.543  33.490  28.069  0.2031 -0.1518  0.0083
29999W        W72911  26.724  33.905  31.343  0.0977 -0.1943 -0.4752
30000W        W72912  25.998  34.197  28.606 -0.0476 -0.2559 -0.1069
30001W        W72913  27.158  32.968  31.009 -0.2388 -0.3851  0.0255
30002W        W72914  26.421   0.111  31.250  0.2020 -0.0515  0.2109
30003W        W72915  25.125  34.037  28.199  0.0388  0.1092 -0.1412
30004W        W72916  25.473  33.888  30.037  0.2734  0.1248 -0.2023
30005W        W72917  26.944   0.317  29.400 -0.0549  0.0091 -0.1421
30006W        W72918  30.342  33.774  29.240 -0.2296  0.2466 -0.0501
30007W        W72919  28.198   0.390  28.471 -0.0723  0.1256  0.2168
30008W        W72920  28.364  33.681  30.181 -0.1532 -0.4906  0.1369
30009W        W72921  27.939  34.508  30.237  0.1126  0.0122  0.0235
30010W        W72922  28.261  33.776  28.249 -0.3360  0.1346 -0.0824
30011W        W72923  29.095  34.306  29.996  0.3373 -0.0579 -0.0615
30012W        W72924  27.002  32.949  28.380 -0.3538 -0.2264 -0.1520
30013W        W72925  28.114  32.091  25.928  0.0304  0.2119 -0.0000
30014W        W72926  27.572  33.377  28.381 -0.0015  0.2031 -0.1137
30015W        W72927  27.169  34.391  28.463  0.0425 -0.2897 -0.0850
30016W        W72928  26.042  32.210  29.817 -0.3034  0.0455  0.0361
30017W        W72929  26.306  33.872  30.254 -0.1005 -0.0458  0.0852
30018W        W72930  27.866   0.140  29.374 -0.0693  0.1248  0.3283
30019W        W72931  25.289  34.165  29.288 -0.1590  0.2202  0.0497
30020W        W72932  25.740  33.533  30.232  0.0696  0.0406 -0.0235
30021W        W72933  26.322   0.963  31.683  0.1570  0.2915  0.1173
30022W        W72934  25.694  34.603  30.732  0.2641 -0.0023 -0.2401
30023W        W72935  26.111  33.800  27.174  0.0515  0.3388  0.1040
30024W        W72936  30.630   0.186  28.914 -0.1372  0.2831  0.0215
30025W        W72937  27.716  33.614  30.251 -0.0267 -0.1091 -0.1926
30026W        W72938  28.415  32.648  30.715 -0.1870  0.1345 -0.4401
30027W        W72939  29.771   0.845  27.616  0.1243  0.0043 -0.2480
30028W        W72940  27.331  33.746  30.554 -0.0833  0.3865  0.1145
30029W        W72941  26.293  32.931  29.224  0.1807 -0.0853 -0.1693
30030W        W72942  29.067  33.443  28.885  0.1844  0.0468  0.1544
30031W        W72943  26.471  32.908  30.055  0.0662 -0.1299 -0.0592
30032W        W72944  29.523  33.031  29.910  0.0018  0.3170 -0.3767
30033W        W72945  28.191  33.260  27.398 -0.0417 -0.3509 -0.2898
30034W        W72946  26.970  33.410  30.924  0.2513 -0.0023 -0.2211
30035W        W72947  25.984  34.483  28.153  0.2663 -0.1298 -0.0326
30036W        W72948  24.785  34.688  28.865  0.0515 -0.0283 -0.3223
30037W        W72949  24.912  34.480  29.846  0.0352 -0.2375 -0.1851
30038W        W72950  29.106  32.840  29.663 -0.0834  0.3761 -0.1917
30039W        W72951  25.086  33.161  27.595  0.2089 -0.0039 -0.0413
30040W        W72952  28.777  33.029  28.346  0.3941  0.1699  0.2837
30041W        W72953  27.021  34.541  26.962 -0.0607 -0.4097  0.3110
30042W        W72954  28.608  33.751  30.612  0.0500 -0.0478  0.1308
30043W        W72955  26.200  34.299  29.477 -0.1211 -0.2757 -0.5201
30044W        W72956  26.649  34.060  29.461  0.0263 -0.3468  0.1130
30045W        W72957  27.055  32.908  30.102 -0.1158 -0.1009 -0.0301
30046W        W72958  28.931  33.246  31.792 -0.1656  0.0626  0.0816
30047W        W72959  26.711  33.857  29.939 -0.1185  0.1365  0.1106
30048W        W72960  26.051  32.214  28.181 -0.1884  0.2825  0.1821
30049W        W72961  25.204   0.330  28.535 -0.1247  0.2357  0.0321
30050W        W72962  30.028  33.021  29.238 -0.1959  0.1766  0.3326
30051W        W72963  24.696  34.339  30.785 -0.0345  0.1096 -0.2883
30052W        W72964  28.205  32.940  31.457 -0.1101  0.0725  0.1153
30053W        W72965  25.745  34.195  27.254  0.3806 -0.1326  0.1001
30054W        W72966  27.110  31.577  28.583  0.0130  0.0672 -0.0929
30055W        W72967  28.229  31.976  27.550 -0.2893 -0.1268  0.0462
30056W        W72968  28.304  33.527  27.740  0.0828  0.1685  0.3333
30057W        W72969  29.257  31.805  26.135 -0.2156  0.0304  0.2143
30058W        W72970  27.520  32.643  27.630  0.1201  0.0071 -0.1182
30059W        W72971  27.750  32.839  31.113 -0.0039 -0.1437  0.1902
30060W        W72972  26.918  32.749  27.015  0.0994 -0.1610 -0.1208
30061W        W72973  26.041   0.249  29.426 -0.1616 -0.1542  0.3438
30062W        W72974  27.787  33.787  28.662  0.0856 -0.0724  0.3345
30063W        W72975  27.495  31.630  29.844  0.3366  0.2771 -0.1742
30064W        W72976  26.254  33.840  29.725 -0.2828 -0.0395  0.0536
30065W        W72977  28.269  34.632  30.607 -0.1735  0.1808 -0.3212
30066W        W72978  28.065  34.272  28.584 -0.1777  0.0651  0.2873
30067W        W72979  27.466   0.380  29.723  0.1112  0.0770 -0.1205
30068W        W72980  28.023  33.109  25.310 -0.2406  0.0153  0.0361
30069W        W72981  28.154  33.362  30.495 -0.0187  0.0101 -0.0114
30070W        W72982  27.342   0.900  30.559 -0.2104  0.1142  0.1450
30071W        W72983  27.655  33.248  29.459  0.1741  0.0537  0.0745
30072W        W72984  26.348  32.374  28.643 -0.0070  0.1079 -0.0681
30073W        W72985  27.477  32.175  31.721 -0.3320  0.0030 -0.0405
30074W        W72986  25.439  33.931  28.671 -0.0670 -0.0644  0.1776
30075W        W72987  25.054   0.728  27.405 -0.2922  0.2464 -0.0424
30076W        W72988  28.464  33.394  29.203 -0.2584  0.0231  0.0414
30077W        W72989  24.314  34.471  30.442  0.1442  0.0932  0.3452
30078W        W72990  27.730  34.119  29.902  0.2562 -0.0099 -0.3286
30079W        W72991  27.831   0.316  30.476 -0.4159  0.0814 -0.3047
30080W        W72992  29.319  33.499  28.436 -0.0477  0.1349 -0.0168
30081W        W72993  25.920   0.795   0.445 -0.0912  0.2583  0.0610
30082W        W72994  25.348   0.189  27.729 -0.2580  0.2254 -0.0309
30083W        W72995  28.311   0.218  30.227  0.1103 -0.0707 -0.2996
30084W        W72996  26.621  33.527  29.442 -0.2752  0.0146  0.1035
30085W        W72997  26.066   0.449  27.348 -0.1972  0.2367  0.2841
30086W        W72998  25.454  32.942  30.146  0.2845 -0.0271  0.1802
30087W        W72999  27.244  34.351  29.840  0.0045  0.0955 -0.0933
30088W        W73000  24.584  33.787  28.798 -0.0812 -0.0236 -0.3863
30089W        W73001  26.922  34.010  30.902  0.0818 -0.2173 -0.4468
30090W        W73002  26.633  34.236  30.407  0.1335  0.4039 -0.0913
30091W        W73003  29.380  33.016  27.902  0.2182 -0.0820  0.0051
30092W        W73004  26.870  34.686  31.472  0.0130 -0.1242  0.1263
30093W        W73005  27.311   0.021  29.194  0.3182  0.0421 -0.0936
30094W        W73006  29.267  33.047  28.673 -0.0092  0.3201  0.0349
30095W        W73007  28.128  33.349  28.713  0.0336  0.2815  0.0171
30096W        W73008  30.010  34.099  31.061  0.0668 -0.0758 -0.2997
30097W        W73009  27.601  34.211  28.295 -0.2204 -0.1186 -0.1956
30098W        W73010  26.536  34.324  31.100 -0.0632  0.1414 -0.2735
30099W        W73011  25.464  32.523  29.857 -0.1269  0.0715  0.0800
30100W        W73012  26.302  33.439  30.534 -0.2399 -0.2551 -0.0867
30101W        W73013  25.477   0.253  30.975 -0.1808 -0.0515 -0.0112
30102W        W73014  26.560  32.547  31.094  0.0514 -0.4472  0.0465
30103W        W73015  25.765  33.045  28.115  0.2645  0.0847 -0.0719
30104W        W73016  26.442   0.698  29.480  0.0909  0.1806 -0.0254
30105W        W73017  29.108  33.353  29.671 -0.3217  0.0908 -0.0540
30106W        W73018  25.756  34.146  31.521  0.0013 -0.0215  0.0554
30107W        W73019  28.810  33.891  28.863 -0.0986  0.1582 -0.2100
30108W        W73020  25.919  32.574  29.446 -0.2469 -0.3338 -0.3686
30109W        W73021  27.980  32.178  28.861  0.1096  0.0981  0.0398
30110W        W73022  27.335  32.780  30.595  0.1525 -0.0131 -0.3289
30111W        W73023  28.886  34.549  30.872 -0.2674 -0.0402 -0.0031
30112W        W73024  25.371   1.091  31.454 -0.2203 -0.2675  0.2371
30113W        W73025  25.567   0.694  31.232  0.0559  0.1607  0.0725
30114W        W73026  29.141  34.045  27.538  0.1164 -0.1021 -0.1314
30115W        W73027  29.122  33.617  30.730 -0.0944 -0.1374 -0.1518
30116W        W73028  28.263  33.839  28.833 -0.1910  0.0099  0.1031
30117W        W73029  27.891  33.359  27.931 -0.0174 -0.1734  0.1220
30118W        W73030  25.265  34.519  28.990  0.5258 -0.1713  0.0314
30119W        W73031  27.001   1.916  30.675 -0.1206  0.3090  0.1933
30120W        W73032  26.867  33.673  28.962  0.0654 -0.1260  0.1249
30121W        W73033  27.475  34.231  31.026  0.3623  0.2626  0.1048
30122W        W73034  26.132  34.399  30.335 -0.3669 -0.0078 -0.0985
30123W        W73035  23.610  32.212  30.146 -0.0674 -0.3339 -0.3255
30124W        W73036  26.333  33.436  27.605 -0.2278  0.0019 -0.4082
30125W        W73037  26.672  34.330  27.856  0.0336 -0.5739  0.2482
30126W        W73038  28.321  32.736  28.056 -0.1290 -0.0808 -0.1124
30127W        W73039  28.883  32.257  28.966 -0.1718 -0.6054  0.1168
30128W        W73040  28.212  32.952  29.103 -0.0946 -0.2752  0.1986
30129W        W73041  28.129  33.982  30.502  0.2012  0.3250 -0.3700
30130W        W73042  27.854  33.709  29.211  0.1019 -0.3909 -0.0323
30131W        W73043  27.881   0.728  29.500 -0.0375 -0.1204  0.4409
30132W        W73044  28.866  33.136  29.319 -0.0461 -0.3482  0.4098
30133W        W73045  26.007   0.521  30.939  0.2832  0.1540 -0.3688
30134W        W73046  25.366  34.540  31.166  0.0192  0.0175  0.0085
30135W        W73047  26.783  33.834  28.321  0.0459  0.2940 -0.0633
30136W        W73048  26.202  32.606  27.446  0.3112 -0.1267  0.0148
30137W        W73049  28.761  33.511  27.573 -0.1809 -0.1029  0.1276
30138W        W73050  29.424  33.732  29.362  0.3644  0.3069  0.0738
30139W        W73051  29.733  33.778  27.927 -0.0403 -0.0242  0.0649
30140W        W73052  26.451  34.256  29.941  0.2652 -0.0060 -0.2563
30141W        W73053  26.657  33.048  27.355  0.1216 -0.1549  0.2547
30142W        W73054  25.922   0.162  31.287  0.1625 -0.2179  0.0028
30143W        W73055  28.158  33.191  30.041 -0.0848  0.1171  0.0827
30144W        W73056  24.933  34.392  28.489 -0.1843  0.1209 -0.2713
30145W        W73057  25.936  34.055  30.025  0.0303 -0.1136 -0.1331
30146W        W73058  27.926  32.441  30.901  0.2535 -0.1739  0.3080
30147W        W73059  27.313  32.387  30.182 -0.1829 -0.0612 -0.1286
30148W        W73060  25.353  34.044  26.743  0.0057  0.1892 -0.1267
30149W        W73061  30.928  34.695  29.265  0.1253  0.0970 -0.0484
30150W        W73062  25.367  33.529  30.572  0.0232 -0.2363  0.2563
30151W        W73063  28.806  33.445  30.222  0.2442  0.0806 -0.2301
30152W        W73064  27.969  34.184  29.129  0.0850  0.0114  0.1972
30153W        W73065  27.157  33.333  28.637 -0.1913  0.2672 -0.1292
30154W        W73066  25.660  34.539  30.196 -0.0411  0.1588  0.1073
30155W        W73067  27.542  34.157  27.697  0.3145 -0.2365  0.1573
30156W        W73068  28.039   0.661  30.238 -0.1081  0.1421  0.0226
30157W        W73069  28.616  34.361  26.777 -0.3632  0.3669  0.1350
30158W        W73070  26.774  32.200  28.904 -0.0377  0.2804 -0.3089
30159W        W73071  28.113  32.421  28.433  0.2067 -0.4998 -0.0533
30160W        W73072  27.031  34.233  29.008 -0.3476 -0.1788  0.1716
30161W        W73073  26.158   0.436  29.970 -0.0432  0.1071 -0.3051
30162W        W73074  26.235  32.889  28.711  0.0119  0.1829  0.1406
30163W        W73075  29.646  33.887  28.391 -0.3948 -0.0595 -0.0345
30164W        W73076  29.215  33.937  28.031 -0.3049 -0.2430  0.0103
30165W        W73077  25.956  33.635  28.486  0.2976 -0.1081  0.0108
30166W        W73078  26.997  33.173  30.516  0.2581 -0.1583 -0.0463
30167W        W73079  26.465   0.073  30.184  0.5600 -0.0418  0.0563
30168W        W73080  28.218   0.411  29.682 -0.0393  0.0148 -0.0001
30169W        W73081  27.442  34.696  30.246  0.3267 -0.1001 -0.4551
30170W        W73082  27.911  33.842  31.932  0.0146 -0.0130  0.2936
30171W        W73083  27.204  33.996  30.170  0.1004  0.0117 -0.4099
30172W        W73084  26.600  33.080  30.830 -0.0590 -0.1292  0.0575
30173W        W73085  30.188  32.488  29.248 -0.2026  0.0378 -0.2473
30174W        W73086  29.303  34.261  28.406  0.0488  0.0895 -0.2272
30175W        W73087  26.154  34.020  30.763 -0.4941 -0.1787 -0.0908
30176W        W73088  24.569  34.051  28.348 -0.2986 -0.2491 -0.2069
30177W        W73089  24.828  31.683  30.145 -0.4289  0.0140  0.0201
30178W        W73090  24.673  33.475  29.768  0.1964  0.2814  0.1040
30179W        W73091  25.217   0.013  29.524 -0.0791 -0.1633 -0.1351
30180W        W73092  27.180  32.576  29.601  0.0805  0.0934 -0.0137
30181W        W73093  25.621  33.139  30.543  0.1414  0.0637  0.0790
30182W        W73094  25.793  33.638  28.967 -0.2656 -0.0463 -0.2127
30183W        W73095  26.914  33.396  27.595  0.0610 -0.0913 -0.1044
30184W        W73096  27.448   0.491  30.230  0.2702  0.3435 -0.2367
30185W        W73097  26.966  34.527  31.006  0.2131 -0.0632 -0.1609
30186W        W73098  25.784  34.018  29.453 -0.0890 -0.1370 -0.1991
30187W        W73099  26.746   0.501  28.958 -0.1959 -0.2824 -0.1309
30188W        W73100  26.334  32.428  30.157  0.2094  0.0519  0.3115
30189W        W73101  28.816  32.677  27.927  0.1639  0.1979  0.1994
30190W        W73102  27.209  33.975  28.090 -0.0201 -0.3138 -0.3908
30191W        W73103  26.229  33.253  31.109  0.1700  0.4518  0.2224
30192W        W73104  26.379  33.837  28.661 -0.0439 -0.1614  0.0568
30193W        W73105  27.564  32.366  28.578  0.0001  0.0647  0.1009
30194W        W73106  27.155  33.892  29.624 -0.1251 -0.0863 -0.1223
30195W        W73107  27.977  32.765  29.789  0.1165  0.1666  0.3309
30196W        W73108  27.343   0.345  30.664 -0.0846 -0.0592  0.1086
30197W        W73109  25.468  33.398  27.646 -0.0956  0.1492 -0.1668
30198W        W73110  28.862   0.030  29.291  0.2724 -0.1576 -0.0329
30199W        W73111  24.897  32.685  30.105 -0.2752 -0.0248 -0.1347
30200W        W73112  25.912   0.197  27.859 -0.0743  0.2353  0.1931
30201W        W73113  26.841   0.179  28.487  0.3126  0.2212  0.1372
30202W        W73114  27.961  34.305  30.872 -0.4719 -0.0067 -0.2745
30203W        W73115  26.053  32.671  28.308  0.2567 -0.1306  0.0354
30204W        W73116  27.709  33.051  30.233 -0.0586  0.1813  0.1025
30205W        W73117  29.194  34.260   0.606  0.1015 -0.0620 -0.1838
30206W        W73118  27.580  33.610   1.406  0.0912  0.0939 -0.1826
30207W        W73119  26.741   0.320  30.941  0.2761  0.1794 -0.0331
30208W        W73120  28.695   0.530  31.871 -0.1560 -0.1602  0.0465
30209W        W73121  27.182  34.353  30.565  0.2074  0.1682 -0.0558
30210W        W73122  27.638  34.162  30.434 -0.1825 -0.0299 -0.2528
30211W        W73123  26.615  31.780  30.411 -0.1036  0.1193  0.1027
30212W        W73124  28.723  34.205  31.486 -0.0031 -0.1083 -0.0687
30213W        W73125  27.184  33.441   0.647  0.1556 -0.0288  0.2432
30214W        W73126  24.582   0.201  30.691  0.0315 -0.0622  0.1344
30215W        W73127  26.118  33.579  31.731 -0.0926  0.2684  0.2181
30216W        W73128  30.162  34.485   0.323  0.0032 -0.0840  0.0907
30217W        W73129  28.171   0.378  30.901 -0.0570 -0.2090  0.2057
30218W        W73130  28.014   0.556  31.515  0.2929 -0.3134  0.0280
30219W        W73131  27.066  34.170  31.567 -0.2832 -0.2344  0.1089
30220W        W73132  27.386   0.347  31.690 -0.2628  0.0196 -0.2082
30221W        W73133  25.701   0.374  31.773 -0.4040 -0.2563  0.1799
30222W        W73134  25.468  34.427   0.915  0.2197 -0.0932  0.0952
30223W        W73135  29.151  33.751   0.460  0.0066  0.0989 -0.0365
30224W        W73136  24.844  32.646   0.091 -0.5522  0.1819 -0.1728
30225W        W73137  28.471  34.651  31.154  0.0865  0.0784 -0.3435
30226W        W73138  28.018   0.874  31.113 -0.1072  0.1181  0.0069
30227W        W73139  28.165  34.299  31.369  0.0461  0.0843 -0.1915
30228W        W73140  25.190  32.637  30.960  0.3030 -0.0425 -0.1520
30229W        W73141  26.186  34.075  31.777  0.0252 -0.2031  0.5038
30230W        W73142  27.218  33.941   0.415 -0.2076 -0.0956 -0.0908
30231W        W73143  26.098  32.873  30.715  0.1577  0.2432  0.2233
30232W        W73144  27.372  32.978   0.622  0.0171 -0.1832  0.1337
30233W        W73145  27.551  33.299  30.684  0.0216 -0.1871 -0.0978
30234W        W73146  28.686   0.280  29.838  0.0329 -0.1675 -0.3633
30235W        W73147  28.383   2.553  31.217 -0.0079  0.1890  0.0967
30236W        W73148  26.594   0.654   0.201  0.1147 -0.1812 -0.0086
30237W        W73149  24.709  32.920  31.687  0.0433  0.0469  0.1155
30238W        W73150  29.069   1.413  30.602  0.3771 -0.0367  0.0866
30239W        W73151  30.665   3.732  19.968 -0.1278 -0.0596 -0.0404
30240W        W73152  29.729   1.459  16.864  0.0473  0.1576 -0.1408
30241W        W73153  31.517   0.364  16.931 -0.0633 -0.1101  0.3304
30242W        W73154  31.849   1.277  17.167 -0.3215  0.2399 -0.1524
30243W        W73155  28.572   2.611  17.042 -0.3014 -0.0312  0.0184
30244W        W73156  30.616   3.250  17.385  0.0362 -0.1385 -0.0540
30245W        W73157  29.540   0.328  19.560  0.0995 -0.2065  0.1701
30246W        W73158  30.889   3.005  19.123  0.1408  0.4797 -0.3053
30247W        W73159  32.606   2.955  18.049  0.0963  0.3338 -0.2012
30248W        W73160  29.660   0.677  17.220 -0.2423 -0.0472  0.3065
30249W        W73161  31.012   2.086  18.874 -0.1338 -0.0606  0.0564
30250W        W73162  29.480   1.684  18.283 -0.1461 -0.2322  0.2553
30251W        W73163  31.865   0.162  16.193 -0.1461  0.2852 -0.1382
30252W        W73164  28.483  34.574  18.239  0.0402 -0.0101 -0.0703
30253W        W73165  31.308   0.451  18.358  0.1628 -0.1131 -0.1296
30254W        W73166  28.866   2.207  16.806 -0.1483  0.0433  0.0527
30255W        W73167  30.174   1.254  16.705  0.0029  0.2336 -0.0538
30256W        W73168  30.250   1.548  17.154  0.2132 -0.1216  0.1412
30257W        W73169  31.432   3.760  17.676 -0.1220  0.0924 -0.0374
30258W        W73170  30.505   0.936  18.171  0.1913  0.1252  0.1038
30259W        W73171  32.210  34.116  18.190  0.0493  0.3181  0.0571
30260W        W73172  30.676   3.246  16.872  0.2284 -0.1445 -0.1033
30261W        W73173  29.437   1.083  16.044  0.2059 -0.0211  0.2595
30262W        W73174  29.343   0.999  16.752 -0.3258 -0.0972 -0.1997
30263W        W73175  30.641  34.244  18.466 -0.0639  0.2341 -0.1960
30264W        W73176  31.128  33.620  18.332 -0.0241 -0.1440 -0.0448
30265W        W73177  31.973   0.482  17.895 -0.0715  0.0898 -0.0216
30266W        W73178  30.804   3.112  17.911 -0.0854  0.2770 -0.1737
30267W        W73179  30.632   3.461  18.236  0.1802  0.2262 -0.1158
30268W        W73180  31.402   1.824  18.950 -0.2347 -0.1193  0.0684
30269W        W73181  30.094   4.150  17.818  0.1143 -0.1338 -0.0995
30270W        W73182  29.657   3.458  17.269 -0.0337 -0.0626  0.0887
30271W        W73183  30.212   3.352  17.050 -0.2064 -0.0955  0.0654
30272W        W73184  32.042   2.093  18.082  0.0228 -0.0915  0.1203
30273W        W73185  30.196   3.226  19.220  0.0672  0.0612 -0.1103
30274W        W73186  29.829   3.592  19.094 -0.5222  0.2737  0.0047
30275W        W73187  28.715   3.144  16.918  0.1813 -0.0666 -0.1835
30276W        W73188  30.872   3.630  21.196 -0.3092  0.0950  0.0288
30277W        W73189  30.129   2.448  18.081  0.0311  0.0606 -0.2197
30278W        W73190  30.894   1.287  18.099 -0.2083  0.0756  0.1241
30279W        W73191  31.428   1.994  17.257  0.2430  0.0824 -0.0694
30280W        W73192  30.638   2.018  16.597 -0.1841 -0.1207  0.4235
30281W        W73193  31.448   2.656  17.851  0.2527 -0.1487 -0.1443
30282W        W73194  30.398   1.038  20.294  0.0446  0.1947  0.5759
30283W        W73195  30.350   2.862  17.173 -0.0010  0.0090 -0.0638
30284W        W73196  32.225   0.105  19.841  0.2281  0.0517  0.3211
30285W        W73197  29.400   3.749  16.367  0.2078  0.1463 -0.0397
30286W        W73198  32.746   1.697  16.323  0.1877  0.2736  0.2848
30287W        W73199  32.418  34.688  16.822 -0.4762 -0.1792 -0.1380
30288W        W73200  32.803   2.447  17.019 -0.2156  0.1203 -0.2566
30289W        W73201  31.025  32.714  17.804 -0.1036 -0.0802  0.1361
30290W        W73202  29.809   4.823  19.524 -0.0703 -0.2175 -0.1208
30291W        W73203  30.303   1.268  17.754 -0.1590 -0.1743  0.1011
30292W        W73204  31.966   3.259  18.240 -0.0989 -0.0235  0.1540
30293W        W73205  30.960   2.030  17.401  0.1009  0.1570  0.0772
30294W        W73206  31.195   0.766  17.685  0.5525  0.1153  0.3266
30295W        W73207  30.618   1.752  18.611 -0.2256  0.0426  0.0906
30296W        W73208  29.932   0.036  18.383  0.2132  0.0092 -0.1393
30297W        W73209  31.824   4.261  16.745 -0.1578  0.0785 -0.1124
30298W        W73210  31.906   3.724  18.607  0.1922 -0.1419 -0.2026
30299W        W73211  30.635   4.808  16.705 -0.1115 -0.0568  0.3208
30300W        W73212  31.509   0.932  17.231  0.2352 -0.1882 -0.1912
30301W        W73213  29.223   2.497  20.060 -0.0897  0.1523  0.0446
30302W        W73214  28.769   2.904  22.059 -0.0696  0.2757 -0.2429
30303W        W73215  30.850  34.638  16.899 -0.0458 -0.1764 -0.1316
30304W        W73216  32.346   3.845  20.110  0.1036 -0.2458 -0.0732
30305W        W73217  29.703   4.417  18.492 -0.1155 -0.1144  0.1056
30306W        W73218  33.561   1.224  18.145  0.1200 -0.0783 -0.0731
30307W        W73219  30.507   2.228  17.804 -0.0147  0.1616 -0.0042
30308W        W73220  30.864   3.165  18.561 -0.0882  0.0288  0.2350
30309W        W73221  31.500   2.806  16.901  0.1127  0.4022  0.2980
30310W        W73222  31.546   0.747  18.014 -0.1502  0.0972 -0.1990
30311W        W73223  31.083   0.010  18.307  0.0771  0.0669 -0.3925
30312W        W73224  30.213   1.573  15.869 -0.2075  0.0614 -0.1242
30313W        W73225  29.958   1.079  17.162  0.1481 -0.3668 -0.1902
30314W        W73226  31.739   2.247  19.495 -0.2437 -0.0919 -0.2050
30315W        W73227  31.706   1.852  16.188  0.1081  0.2400  0.0659
30316W        W73228  29.363   3.692  19.163  0.1241 -0.0465 -0.2169
30317W        W73229  31.094   0.239  20.569 -0.2806 -0.1473  0.1912
30318W        W73230  31.580   2.280  18.175  0.0907  0.0099 -0.1209
30319W        W73231  28.882   3.395  16.567  0.0045 -0.0900 -0.1428
30320W        W73232  28.085   1.445  17.781 -0.1055  0.1414 -0.0888
30321W        W73233  28.505   2.069  17.086  0.0304  0.0487  0.1424
30322W        W73234  28.015   0.051  18.306  0.0013 -0.1813 -0.0591
30323W        W73235  28.924   3.637  18.122  0.1047 -0.0275 -0.0746
30324W        W73236  31.201  34.190  17.606  0.1257 -0.0939  0.2727
30325W        W73237  27.693   0.655  17.816 -0.1424  0.0483 -0.1077
30326W        W73238  33.094   0.555  18.700  0.1311 -0.2577 -0.3627
30327W        W73239  29.812   3.923  17.212  0.0369  0.0208  0.0269
30328W        W73240  31.701   3.777  18.141 -0.1174 -0.1338  0.0167
30329W        W73241  32.526   0.429  17.621 -0.0823 -0.0780  0.0213
30330W        W73242  31.971   3.140  16.719  0.2468 -0.0170  0.1803
30331W        W73243  28.826   2.852  17.445  0.0844 -0.0200 -0.0604
30332W        W73244  30.885   2.578  17.979 -0.0531  0.0226  0.0445
30333W        W73245  29.438   1.159  19.767 -0.0880 -0.1895  0.0094
30334W        W73246  30.793   1.041  19.370 -0.2342 -0.1958  0.2768
30335W        W73247  31.585   1.762  19.588  0.0388  0.2179 -0.0121
30336W        W73248  29.830   0.121  17.903 -0.1740 -0.1137  0.2717
30337W        W73249  31.588   1.237  16.801 -0.1624 -0.1747  0.2398
30338W        W73250  29.449   1.921  17.498  0.2701  0.0855 -0.3017
30339W        W73251  29.453   1.393  17.819  0.0704  0.1435  0.3208
30340W        W73252  31.911   0.517  18.909  0.0131  0.2819  0.0470
30341W        W73253  31.543   2.896  16.352  0.0245  0.0001 -0.1091
30342W        W73254  32.219   3.659  17.420  0.0774 -0.3533 -0.1825
30343W        W73255  32.313   4.492  16.960 -0.1332  0.1395 -0.5464
30344W        W73256  30.054   1.394  18.961  0.0660  0.1066  0.0062
30345W        W73257  29.066   0.211  16.617  0.0375 -0.2972  0.1538
30346W        W73258  29.307   3.818  17.324 -0.2879 -0.3755 -0.0040
30347W        W73259  32.450   2.785  17.014 -0.2405 -0.3926  0.2482
30348W        W73260  30.533  34.212  17.124  0.5005 -0.1929  0.0985
30349W        W73261  33.159   2.786  17.828 -0.3932 -0.0289 -0.2506
30350W        W73262  31.051   2.304  16.947  0.1905  0.3159  0.2503
30351W        W73263  28.974   2.719  18.368 -0.2001 -0.1014  0.1561
30352W        W73264  30.650  33.811  19.832 -0.3220 -0.2328  0.2576
30353W        W73265  32.552   1.199  18.407 -0.0583 -0.2592  0.2149
30354W        W73266  31.517  34.599  17.607  0.3803  0.2188  0.3066
30355W        W73267  30.824   0.546  16.900  0.1033  0.4033 -0.5174
30356W        W73268  30.916   2.783  16.990 -0.0209  0.1890  0.3342
30357W        W73269  29.810   3.433  16.717  0.0278 -0.2929  0.2729
30358W        W73270  30.540   1.139  17.192  0.1566 -0.2451  0.2014
30359W        W73271  31.243   4.584  17.526  0.0733  0.1101 -0.2172
30360W        W73272  31.797   1.057  17.642  0.0204  0.3828 -0.1843
30361W        W73273  29.953   1.654  18.500 -0.0253 -0.0240  0.2291
30362W        W73274  32.165   1.031  18.939  0.1002  0.2348  0.1207
30363W        W73275  28.614  34.480  17.171 -0.1424  0.1337 -0.0684
30364W        W73276  29.365   3.693  17.792  0.1005 -0.0991  0.1291
30365W        W73277  30.883  34.556  17.902  0.0887  0.2058 -0.1812
30366W        W73278  33.465   0.079  19.347  0.0689 -0.0305 -0.0151
30367W        W73279  32.022   2.345  20.085  0.0636 -0.0182  0.1772
30368W        W73280  32.467   1.454  17.185  0.1566  0.1105  0.2454
30369W        W73281  31.460   0.365  16.350  0.1334 -0.0144 -0.1365
30370W        W73282  31.965   0.134  17.095  0.1380 -0.2401  0.1411
30371W        W73283  30.609   2.453  19.812  0.0006 -0.0267 -0.0975
30372W        W73284  31.063   2.873  17.509 -0.2243 -0.3969 -0.0659
30373W        W73285  31.224   1.329  18.843  0.0172 -0.1014 -0.1788
30374W        W73286  30.739   0.646  16.353  0.2450 -0.5393 -0.0711
30375W        W73287  32.232   3.718  18.232  0.1585 -0.1664 -0.0079
30376W        W73288  29.820   1.686  17.920  0.1580  0.0167  0.3393
30377W        W73289  31.092   1.609  18.444 -0.1201 -0.1612  0.2082
30378W        W73290  32.006   2.953  17.248  0.1489  0.0752 -0.0256
30379W        W73291  30.234   0.300  18.926  0.0624 -0.3158 -0.2178
30380W        W73292  30.041   1.829  16.704 -0.2376  0.2145  0.0467
30381W        W73293  31.161  33.150  18.166 -0.3043  0.1385  0.0114
30382W        W73294  29.265   3.380  16.896 -0.0420  0.0935 -0.0196
30383W        W73295  32.372  34.679  19.258  0.3125  0.3567  0.1110
30384W        W73296  31.094  33.823  16.397  0.3261 -0.0711  0.2414
30385W        W73297  30.615   0.537  19.419 -0.0393 -0.0736 -0.1020
30386W        W73298  31.543   2.306  19.047 -0.1591 -0.1453  0.2562
30387W        W73299  32.095   2.240  16.275  0.1943 -0.1954 -0.2440
30388W        W73300  32.603   3.208  17.355 -0.1040  0.0281 -0.2845
30389W        W73301  29.806   0.719  16.163 -0.3969  0.0172 -0.1298
30390W        W73302  29.953  34.011  18.859  0.5118 -0.3465  0.1662
30391W        W73303  29.057   1.442  18.971  0.0105  0.2190  0.2984
30392W        W73304  29.254   4.450  18.676  0.2528  0.2430  0.3023
30393W        W73305  31.656   1.519  17.694 -0.0777 -0.0266  0.0155
30394W        W73306  30.447   1.988  17.054 -0.2070  0.1763 -0.1011
30395W        W73307  31.806   0.567  18.411  0.1094 -0.0840 -0.1430
30396W        W73308  31.214   0.859  16.834 -0.0951  0.0545 -0.0171
30397W        W73309  28.988   5.386  18.153 -0.3053  0.1295  0.0453
30398W        W73310  31.105   4.148  17.746  0.0392 -0.0366 -0.0153
30399W        W73311  28.908  33.819  18.686 -0.0220 -0.0435  0.2281
30400W        W73312  28.543   2.788  17.905 -0.0373 -0.2545  0.2625
30401W        W73313  28.370   3.418  16.677 -0.0448  0.0425 -0.3329
30402W        W73314  31.661   2.148  17.692  0.2929 -0.1246 -0.0126
30403W        W73315  29.279   4.281  16.647  0.0290 -0.0487  0.0674
30404W        W73316  32.820  34.221  19.224 -0.0008 -0.2307  0.1998
30405W        W73317  30.263   3.731  17.432 -0.1376 -0.1088  0.0823
30406W        W73318  30.674   1.658  17.761 -0.0925  0.0894  0.1777
30407W        W73319  29.014   0.887  16.323 -0.0737 -0.2343  0.1831
30408W        W73320  32.274   0.654  18.513 -0.0442  0.2339  0.0858
30409W        W73321  32.010   2.742  16.229  0.1205 -0.2394  0.0873
30410W        W73322  29.384   2.744  18.068 -0.2215  0.0792  0.4336
30411W        W73323  32.019   0.056  17.631  0.2624 -0.1752  0.0934
30412W        W73324  29.456   3.001  18.625  0.0368  0.1532 -0.1266
30413W        W73325  31.575   3.183  17.459 -0.0636  0.0025  0.3046
30414W        W73326  32.365   0.540  16.986  0.0460 -0.3068 -0.1598
30415W        W73327  30.725   3.214  20.011  0.0386  0.1461  0.0924
30416W        W73328  29.274   1.709  19.983  0.0680 -0.1089  0.0954
30417W        W73329  28.169   0.100  16.745 -0.0130  0.1177 -0.0569
30418W        W73330  31.576   1.529  18.565  0.0318  0.0922 -0.1636
30419W        W73331  31.187   2.148  17.813 -0.0015  0.0698  0.2297
30420W        W73332  27.681   3.404  16.415 -0.4178  0.0404  0.1917
30421W        W73333  29.856   2.948  19.500  0.0363 -0.0001 -0.1362
30422W        W73334  29.373   1.411  16.436  0.2775 -0.1333 -0.2066
30423W        W73335  30.648   2.438  17.337  0.1112  0.1997 -0.1474
30424W        W73336  30.828   0.604  20.240 -0.1745 -0.1717  0.0758
30425W        W73337  31.686   2.159  20.484 -0.1100  0.3204 -0.0011
30426W        W73338  31.794  34.360  17.282  0.3194 -0.1770  0.1841
30427W        W73339  31.112   0.205  17.662 -0.0827 -0.0665 -0.1065
30428W        W73340  31.197   2.927  18.236 -0.1466  0.2317 -0.0184
30429W        W73341  31.258   2.061  19.404  0.3376  0.0289 -0.0227
30430W        W73342  31.031   0.249  19.320 -0.1751  0.0142  0.2277
30431W        W73343  29.541   3.574  18.640  0.2264 -0.2740 -0.1098
30432W        W73344  29.640  33.331  17.970 -0.0131  0.2901  0.2157
30433W        W73345  32.000   3.731  16.575  0.1952 -0.3611 -0.0202
30434W        W73346  32.108   1.645  19.463  0.1905 -0.0146  0.2331
30435W        W73347  29.472   2.310  17.827  0.0271 -0.2074 -0.0259
30436W        W73348  30.199   0.664  18.504 -0.1672 -0.2844 -0.0499
30437W        W73349  31.295   2.463  17.409  0.4357  0.0219  0.0888
30438W        W73350  30.992  34.050  18.142 -0.0606 -0.0495 -0.1939
30439W        W73351  29.564   4.159  17.817  0.0197  0.0594  0.1163
30440W        W73352  29.507   2.917  16.667  0.1152 -0.0215 -0.1248
30441W        W73353  29.849   4.066  18.212 -0.2476  0.1261 -0.1579
30442W        W73354  33.452   0.605  16.483 -0.1623  0.1997  0.1542
30443W        W73355  30.747   2.887  16.544  0.0934  0.1016 -0.0725
30444W        W73356  30.786   1.911  18.148  0.0550 -0.0919 -0.1052
30445W        W73357  31.770   0.730  19.369  0.0784 -0.1408  0.2662
30446W        W73358  31.986   2.017  16.693  0.5335  0.0945 -0.1440
30447W        W73359  31.418   0.418  18.892  0.0197  0.3409 -0.0274
30448W        W73360  28.844   0.177  18.440 -0.0886  0.3002  0.0815
30449W        W73361  31.893   1.611  18.141 -0.1893 -0.0658 -0.0740
30450W        W73362  28.599   0.486  19.766 -0.0132 -0.2330 -0.2911
30451W        W73363  30.098   4.875  20.401  0.0454  0.0305 -0.2873
30452W        W73364  30.716   1.163  18.661 -0.2297  0.0520 -0.0852
30453W        W73365  30.191  34.493  17.411 -0.0474  0.1887 -0.1895
30454W        W73366  29.747  34.465  17.470  0.1230  0.0837  0.1941
30455W        W73367  30.359   3.995  18.440 -0.3348  0.1884 -0.0591
30456W        W73368  31.417   2.576  18.580 -0.1474 -0.1235 -0.0902
30457W        W73369  31.079   2.127  16.442  0.3159 -0.1227 -0.0072
30458W        W73370  32.832   1.153  17.938  0.0905 -0.0514  0.0695
30459W        W73371  30.667   3.626  17.730  0.0483  0.4095 -0.1122
30460W        W73372  30.493   0.253  18.457 -0.0985  0.1661 -0.0991
30461W        W73373  32.027   1.544  16.797  0.1022  0.0930 -0.0933
30462W        W73374  28.983   1.520  17.896  0.3128 -0.1162  0.3990
30463W        W73375  29.813   1.332  19.368 -0.1662 -0.1031 -0.0219
30464W        W73376  31.736   2.750  18.950  0.2275 -0.0360 -0.0528
30465W        W73377  31.886   0.714  16.969 -0.0766 -0.2201 -0.0055
30466W        W73378  30.381  34.218  21.077 -0.0495 -0.1976  0.1871
30467W        W73379  31.877   1.111  18.274  0.0787  0.1137  0.1898
30468W        W73380  30.793   0.372  18.895  0.1408  0.0417 -0.3420
30469W        W73381  30.048   0.544  19.328  0.0565  0.3864  0.1448
30470W        W73382  30.624   3.650  20.687  0.0342 -0.0945 -0.0319
30471W        W73383  33.080   0.302  18.155 -0.3281 -0.4649  0.1300
30472W        W73384  33.337   0.165  20.339 -0.1306 -0.1171  0.1233
30473W        W73385  32.069   0.615  17.427 -0.1523  0.1405  0.3594
30474W        W73386  31.771   1.407  16.365 -0.0116 -0.0349  0.3721
30475W        W73387  27.748   1.105  17.618 -0.3027  0.0577 -0.2730
30476W        W73388  31.501   2.671  19.466  0.1732  0.0064  0.1324
30477W        W73389  31.001   0.186  16.460  0.3854 -0.0635  0.5750
30478W        W73390  32.065  34.211  17.694  0.0945 -0.0355 -0.2117
30479W        W73391  31.365   3.993  16.736 -0.0907  0.5572  0.2598
30480W        W73392  31.919   2.662  16.698 -0.2615 -0.1617  0.1490
30481W        W73393  32.925   2.363  19.278  0.0989 -0.2048  0.2216
30482W        W73394  29.424   1.172  17.217 -0.1526 -0.1951 -0.3507
30483W        W73395  29.992   4.340  19.622 -0.4345  0.0176  0.0243
30484W        W73396  29.409   0.624  15.904 -0.0501 -0.0142 -0.4101
30485W        W73397  30.755   2.447  16.229 -0.1806 -0.1823 -0.0376
30486W        W73398  29.898   2.224  19.007 -0.1660  0.2228  0.1232
30487W        W73399  31.697   2.902  18.272 -0.0632 -0.1892  0.2001
30488W        W73400  31.037  34.352  16.473  0.2102 -0.0041 -0.2045
30489W        W73401  32.409   1.493  19.063 -0.1628 -0.0211 -0.2490
30490W        W73402  29.183   2.277  18.355 -0.2323  0.4292 -0.4664
30491W        W73403  31.356  33.740  17.869 -0.1565 -0.1925  0.1329
30492W        W73404  30.440   4.578  17.860  0.3216  0.0314 -0.0519
30493W        W73405  30.039   3.913  20.047 -0.0072  0.0191 -0.3126
30494W        W73406  31.087   3.784  17.332 -0.0305  0.1027  0.1322
30495W        W73407  31.070  33.465  19.830  0.0440 -0.0003 -0.0245
30496W        W73408  32.698   1.640  18.653 -0.2902 -0.2555  0.1020
30497W        W73409  30.285   1.017  19.362  0.0716 -0.1875  0.2200
30498W        W73410  33.270   2.047  19.111 -0.1040  0.0954  0.2672
30499W        W73411  30.721   1.929  19.212  0.0658  0.0458 -0.0650
30500W        W73412  31.477   0.218  17.997  0.0816 -0.4204 -0.0867
30501W        W73413  29.865   2.709  17.735  0.0004  0.3384  0.1681
30502W        W73414  32.143   1.695  17.654 -0.0249 -0.2025 -0.3092
30503W        W73415  30.226   1.749  17.595 -0.2387  0.1094 -0.0531
30504W        W73416  29.459   1.666  19.533  0.3784 -0.0299 -0.2055
30505W        W73417  31.798   1.943  18.525  0.1676 -0.3525  0.3084
30506W        W73418  32.207   1.963  18.816 -0.1010 -0.0958  0.0407
30507W        W73419  30.071   0.926  18.011 -0.0457  0.0032 -0.1636
30508W        W73420  29.795   2.973  17.170  0.1252 -0.0313  0.2421
30509W        W73421  29.827   4.088  19.199  0.0054  0.0264  0.3057
30510W        W73422  30.546   2.326  18.296  0.2745  0.2623 -0.3253
30511W        W73423  30.553   3.786  17.002  0.1770  0.4525  0.1009
30512W        W73424  32.857   3.980  16.532 -0.1839 -0.1930 -0.0257
30513W        W73425  31.883   3.408  17.120 -0.2224 -0.2644 -0.0819
30514W        W73426  33.089   3.049  18.276 -0.1097 -0.1671 -0.0764
30515W        W73427  30.718   1.032  17.664  0.0394  0.2067  0.0677
30516W        W73428  29.401   2.768  17.540  0.0978  0.1814  0.1075
30517W        W73429  28.614   2.349  17.490  0.2248  0.2093 -0.2533
30518W        W73430  32.071   3.769  15.980  0.0140  0.2265  0.1117
30519W        W73431  29.829   3.720  17.673  0.1679  0.1111  0.3295
30520W        W73432  30.872   2.905  19.620 -0.1893  0.0179  0.1400
30521W        W73433  32.003  34.459  16.797 -0.0440  0.4161 -0.0592
30522W        W73434  32.431   0.950  17.564 -0.0325 -0.0769  0.2741
30523W        W73435  32.037   0.142  18.552 -0.1204 -0.3960  0.1009
30524W        W73436  32.253   3.075  20.343 -0.2121  0.2320 -0.1384
30525W        W73437  31.136   0.975  18.401 -0.1837 -0.1718 -0.0892
30526W        W73438  31.316   0.058  15.970  0.0991  0.0492 -0.1500
30527W        W73439  30.455   1.443  18.232 -0.0293 -0.0431  0.2483
30528W        W73440  32.027  33.767  19.542 -0.0202  0.2226  0.2554
30529W        W73441  30.354   1.310  19.819 -0.3959  0.1268 -0.0274
30530W        W73442  33.041   3.929  15.763 -0.0449 -0.0399  0.1090
30531W        W73443  30.578   0.202  17.240  0.0919 -0.1157 -0.0851
30532W        W73444  30.395   0.804  18.897  0.0964 -0.1362 -0.3363
30533W        W73445  32.457  34.091  19.491 -0.1986  0.2852  0.3949
30534W        W73446  29.212   1.550  16.968 -0.0337 -0.0132 -0.0546
30535W        W73447  32.103   1.434  18.663 -0.2893 -0.0673  0.1098
30536W        W73448  29.797   4.441  17.433  0.2485  0.0819 -0.4236
30537W        W73449  29.798   3.554  18.247  0.0751  0.1232  0.3789
30538W        W73450  30.322   2.950  18.728  0.0250  0.2005  0.2746
30539W        W73451  30.004   0.409  16.662  0.1386 -0.1014 -0.0665
30540W        W73452  33.006   0.726  17.708 -0.0207 -0.1276 -0.0143
30541W        W73453  30.572  34.071  18.909 -0.1309 -0.2984  0.2618
30542W        W73454  32.009  34.206  19.205 -0.2734  0.3556  0.2957
30543W        W73455  30.669   1.007  16.714 -0.3941 -0.2061 -0.1663
30544W        W73456  31.376   1.476  17.198  0.2002 -0.3569 -0.0671
30545W        W73457  31.351   3.043  19.842  0.0846 -0.0540  0.1358
30546W        W73458  29.384   2.617  19.582  0.0737 -0.0640 -0.1169
30547W        W73459  31.184   0.534  17.239 -0.3349  0.1567 -0.1390
30548W        W73460  32.023   2.403  18.553  0.3131 -0.1861  0.0533
30549W        W73461  32.251   1.021  17.088  0.1630  0.1648 -0.2364
30550W        W73462  32.340   3.454  18.646 -0.2764 -0.1967  0.2417
30551W        W73463  29.505   0.171  17.488 -0.1096 -0.0219  0.0440
30552W        W73464  31.635   0.361  17.424 -0.2362  0.2457 -0.1748
30553W        W73465  29.961   1.979  17.206 -0.3902  0.0218 -0.0289
30554W        W73466  31.420   1.288  18.083  0.3222 -0.2650  0.0180
30555W        W73467  31.237   4.100  19.733 -0.2482 -0.1154 -0.2101
30556W        W73468  29.350   0.434  16.949  0.2604 -0.0242  0.0313
30557W        W73469  33.278   4.063  16.174 -0.1696 -0.0392 -0.0790
30558W        W73470  33.659   1.174  19.476 -0.1385  0.0239 -0.1137
30559W        W73471  30.017   2.862  16.713  0.0479 -0.0640 -0.0416
30560W        W73472  32.015   3.066  17.755 -0.1793 -0.1282  0.2183
30561W        W73473  31.891   3.520  17.720  0.0777  0.0110 -0.1954
30562W        W73474  30.792   1.582  17.266 -0.0617  0.0042 -0.0827
30563W        W73475  29.693   3.913  19.612  0.0817  0.1467 -0.1868
30564W        W73476  32.464   2.204  18.397 -0.0446  0.3498  0.2880
30565W        W73477  31.074  34.172  16.979 -0.1210  0.1518  0.0870
30566W        W73478  31.543  34.610  16.512 -0.1056 -0.1312  0.1845
30567W        W73479  29.715   2.126  18.229  0.0293 -0.2487 -0.1685
30568W        W73480  31.477  34.323  18.974  0.3231 -0.4492  0.0098
30569W        W73481  32.690   0.820  18.731  0.1365  0.1923  0.0724
30570W        W73482  30.615   2.945  15.916  0.2835 -0.0922  0.0838
30571W        W73483  31.919  34.125  18.623 -0.0893 -0.0537 -0.0441
30572W        W73484  30.052   3.249  17.558  0.0212  0.0727  0.0677
30573W        W73485  30.912   2.166  20.099  0.0904 -0.4370 -0.1059
30574W        W73486  30.064   2.359  16.807  0.0857 -0.0317  0.0540
30575W        W73487  30.192   1.153  18.549 -0.1070  0.0306 -0.1167
30576W        W73488  30.525   2.483  16.743 -0.1078 -0.2217 -0.1800
30577W        W73489  30.084   3.832  16.785 -0.1250  0.4781 -0.0955
30578W        W73490  31.184   3.264  17.145 -0.0215 -0.0224 -0.1785
30579W        W73491  31.136   1.564  17.651 -0.1935 -0.1062 -0.0230
30580W        W73492  32.760   2.369  17.958  0.1834 -0.0122  0.1873
30581W        W73493  29.155  34.461  18.648 -0.0021 -0.0635 -0.3985
30582W        W73494  31.440  32.899  18.521 -0.1295  0.1009 -0.1023
30583W        W73495  32.476  34.467  16.362 -0.1244 -0.1009  0.0579
30584W        W73496  30.611   2.575  19.231  0.0645  0.0806  0.0170
30585W        W73497  31.207   2.590  16.597 -0.4035  0.1104  0.0656
30586W        W73498  29.312   2.414  16.781 -0.0899 -0.0945  0.1540
30587W        W73499  30.473   2.779  17.708 -0.0231 -0.0135  0.1833
30588W        W73500  30.362  33.594  18.898  0.2908 -0.2593  0.2110
30589W        W73501  29.263   0.937  18.774 -0.2025  0.1186 -0.0806
30590W        W73502  30.243   0.806  17.458  0.3232 -0.2025  0.5168
30591W        W73503  30.754   0.563  17.524 -0.0492  0.0271  0.2445
30592W        W73504  32.332   3.837  16.970 -0.0515  0.0331 -0.0014
30593W        W73505  29.285  34.642  19.275 -0.2815  0.1121  0.2982
30594W        W73506  29.706   0.907  18.609 -0.2656 -0.0978  0.1410
30595W        W73507  31.146   3.124  16.685  0.1857  0.1637 -0.0867
30596W        W73508  31.878   2.512  17.493 -0.3732  0.2692 -0.1010
30597W        W73509  29.662  34.573  16.953  0.0200  0.0990  0.2595
30598W        W73510  30.878   2.697  18.698  0.2293  0.1239  0.1314
30599W        W73511  28.567   2.340  16.412  0.2666  0.2280  0.1487
30600W        W73512  30.219   1.871  18.909  0.0799  0.0577  0.2364
30601W        W73513  31.378  34.210  20.767  0.2413  0.2788  0.1180
30602W        W73514  28.582   0.059  16.427 -0.1870  0.0366  0.0522
30603W        W73515  30.381  34.509  18.149 -0.1039 -0.0697 -0.3267
30604W        W73516  31.512   3.260  17.960 -0.0699  0.2366 -0.0984
30605W        W73517  31.947   1.872  17.168  0.3129 -0.0710  0.1193
30606W        W73518  30.435   2.402  18.805 -0.0369 -0.1084 -0.2170
30607W        W73519  31.339   4.592  19.807 -0.1788  0.2658  0.1311
30608W        W73520  28.607  33.676  18.312 -0.2730 -0.1237  0.0725
30609W        W73521  32.248   2.308  17.179  0.0741  0.2852  0.2088
30610W        W73522  31.043   3.941  20.778  0.3695 -0.0215  0.3304
30611W        W73523  32.354   2.895  16.548  0.1518 -0.1149 -0.1095
30612W        W73524  32.863   0.092  17.752 -0.0028  0.2855 -0.2921
30613W        W73525  32.738   0.932  16.845 -0.2573 -0.2610  0.2265
30614W        W73526  30.832   0.093  20.172  0.1971 -0.1328  0.0645
30615W        W73527  29.900   0.420  19.973 -0.1637 -0.0298 -0.0523
30616W        W73528  32.540   2.530  18.881 -0.0686 -0.2833  0.1247
30617W        W73529  29.810   0.564  17.692  0.1170 -0.0271 -0.1730
30618W        W73530  31.097   1.349  16.799 -0.2104  0.1177 -0.1089
30619W        W73531  31.652   2.340  17.020 -0.1297  0.0762 -0.2187
30620W        W73532  30.689   1.448  19.054  0.0938 -0.0496 -0.1131
30621W        W73533  31.013   1.095  17.243  0.2499 -0.2092 -0.1784
30622W        W73534  31.606   0.937  18.785  0.0451 -0.2540 -0.1660
30623W        W73535  30.909   0.442  18.060  0.0951  0.0731  0.0262
30624W        W73536  31.086   2.404  19.722 -0.0593  0.2224 -0.1274
30625W        W73537  31.029   1.822  16.880  0.1374 -0.1745 -0.0239
30626W        W73538  32.602   1.526  17.667  0.2097  0.2638  0.1058
30627W        W73539  31.247   2.460  20.407  0.2414 -0.1365  0.0989
30628W        W73540  32.005   4.678  21.273  0.2762  0.0238 -0.0905
30629W        W73541  30.554   2.826  18.222  0.3010 -0.1260 -0.3273
30630W        W73542  32.287   1.347  17.992  0.0715  0.1499  0.0435
30631W        W73543  29.432   0.110  18.465  0.1382 -0.0591  0.3369
30632W        W73544  30.284   0.478  18.019 -0.1383  0.0164 -0.3518
30633W        W73545  32.396   2.332  16.676  0.2714  0.0032  0.0838
30634W        W73546  30.894  33.339  17.379  0.3639  0.1154  0.1854
30635W        W73547  30.621  34.099  19.385  0.0688 -0.1965  0.1376
30636W        W73548  31.529  34.214  16.806 -0.1647  0.1727 -0.0469
30637W        W73549  31.597   3.539  19.506  0.2584 -0.1527  0.1168
30638W        W73550  31.443   1.801  18.127  0.1210 -0.0178 -0.0621
30639W        W73551  31.540   2.120  22.775 -0.1084 -0.1996 -0.0714
30640W        W73552  29.367   1.749  20.999  0.3080  0.0854  0.0412
30641W        W73553  31.671   0.728  20.387  0.1508  0.0119 -0.1070
30642W        W73554  32.501   2.241  20.031  0.0408 -0.0322 -0.0137
30643W        W73555  29.555   2.043  21.400  0.1379  0.3766 -0.0236
30644W        W73556  30.720   5.226  21.356  0.2795 -0.0449  0.2078
30645W        W73557  27.981   1.387  22.216  0.0911  0.3515 -0.0716
30646W        W73558  32.620   2.960  21.876  0.2116 -0.1875  0.4926
30647W        W73559  34.142   2.755  21.153  0.1652  0.2065  0.4350
30648W        W73560  30.711   0.915  19.859  0.2456  0.5073 -0.0043
30649W        W73561  30.310   0.350  21.171  0.1963  0.1826  0.0566
30650W        W73562  28.941   2.866  22.487  0.2838 -0.1106 -0.0814
30651W        W73563  30.137  33.933  20.726 -0.2121  0.0735  0.0971
30652W        W73564  28.202  34.596  21.306  0.1485  0.1138  0.0099
30653W        W73565  31.666   2.008  21.866  0.0742  0.0711  0.1610
30654W        W73566  28.828   2.021  20.885  0.3416  0.2710  0.4000
30655W        W73567  30.548   2.316  23.400 -0.1969 -0.0656 -0.2567
30656W        W73568  31.291   0.347  20.109  0.0456 -0.1251  0.0921
30657W        W73569  31.647   3.871  22.427 -0.3813  0.0199 -0.0867
30658W        W73570  31.523   0.170  23.366 -0.2284  0.1049  0.1055
30659W        W73571  32.266   0.514  23.609 -0.0031  0.2476 -0.1451
30660W        W73572  30.908   4.921  21.693  0.0545 -0.4683 -0.0059
30661W        W73573  29.921   1.885  19.508  0.1998  0.1202  0.3475
30662W        W73574  28.891   2.059  21.384 -0.3255  0.4734  0.2966
30663W        W73575  30.459   1.221  21.640 -0.2541  0.0683 -0.0370
30664W        W73576  30.468   2.724  20.921  0.6291  0.2461 -0.1100
30665W        W73577  31.247   1.908  20.354  0.2663  0.1994 -0.2273
30666W        W73578  31.451   2.579  22.067  0.0468 -0.1021  0.0174
30667W        W73579  32.379   4.940  21.721 -0.0483  0.0113  0.2216
30668W        W73580  30.976   1.733  23.005  0.1681  0.2001 -0.1254
30669W        W73581  29.286   2.793  20.931 -0.1030 -0.2778 -0.2336
30670W        W73582  28.948   3.787  21.633  0.1169  0.3757  0.0374
30671W        W73583  30.247   2.807  19.783 -0.3018 -0.0316 -0.2179
30672W        W73584  32.357   2.424  22.914  0.1142 -0.0549  0.1033
30673W        W73585  32.823   2.987  22.419  0.2258  0.1040  0.0294
30674W        W73586  30.009   3.851  23.094  0.0266  0.0851  0.0247
30675W        W73587  29.768   3.639  20.327 -0.0494 -0.1531 -0.1844
30676W        W73588  31.728   5.335  23.380 -0.3193  0.1041  0.0914
30677W        W73589  30.818   2.014  23.735 -0.0663 -0.1020 -0.3810
30678W        W73590  30.631   3.151  21.537 -0.0025 -0.4020 -0.1236
30679W        W73591  31.376   2.418  20.953 -0.2186 -0.5531  0.1434
30680W        W73592  30.054   2.680  19.068 -0.1656  0.0092  0.0060
30681W        W73593  30.379   2.869  22.071 -0.0282  0.0443  0.0373
30682W        W73594  31.086   2.645  24.192 -0.3092 -0.0829  0.0455
30683W        W73595  29.750   2.922  21.556 -0.1794  0.0991  0.1886
30684W        W73596  33.625   1.186  23.452  0.3302  0.1014  0.1869
30685W        W73597  29.934   2.614  20.447 -0.0224  0.0214  0.1740
30686W        W73598  31.602  34.657  18.564  0.0590 -0.0564  0.1243
30687W        W73599  29.572   0.559  21.375  0.1716  0.0734 -0.1360
30688W        W73600  31.070  34.048  19.039 -0.0384  0.0681 -0.0864
30689W        W73601  29.581   1.049  22.145  0.0525  0.1598  0.2768
30690W        W73602  30.788   3.219  21.996  0.3098 -0.0722  0.1518
30691W        W73603  30.524   1.779  21.090  0.0475 -0.2852  0.1838
30692W        W73604  33.699   1.430  23.941  0.2410 -0.0529  0.2590
30693W        W73605  31.302   3.377  21.474  0.0792 -0.2286  0.0975
30694W        W73606  30.906   0.429  21.047  0.0721 -0.2049  0.1359
30695W        W73607  30.661   3.668  23.813  0.0762 -0.3010  0.0401
30696W        W73608  28.380   2.057  21.270 -0.0725  0.2750 -0.1180
30697W        W73609  32.058   3.639  19.544  0.2878 -0.1260 -0.1162
30698W        W73610  32.222   4.263  21.135 -0.2149  0.1681  0.1600
30699W        W73611  32.281   2.902  19.040  0.1992  0.3014 -0.3683
30700W        W73612  29.289   0.782  20.952 -0.0222 -0.0196 -0.1731
30701W        W73613  29.746   2.972  22.991 -0.3133 -0.0388  0.0034
30702W        W73614  30.290   1.152  23.161 -0.0436 -0.0025 -0.1680
30703W        W73615  29.164   0.494  20.400 -0.3266 -0.0601  0.1325
30704W        W73616  33.367   3.059  24.415 -0.0432 -0.2789 -0.0922
30705W        W73617  28.701   2.419  23.794  0.0883 -0.1032  0.1285
30706W        W73618  32.563   0.849  21.904  0.2545 -0.3387 -0.0112
30707W        W73619  31.009   2.705  20.727  0.0193  0.0484  0.0562
30708W        W73620  31.248   2.139  21.519  0.1137 -0.2326 -0.2743
30709W        W73621  31.567   2.084  19.966 -0.1118  0.3012 -0.0738
30710W        W73622  32.204  34.021  21.615  0.0815  0.2648  0.0995
30711W        W73623  31.797   0.820  22.268 -0.1063  0.0730 -0.0239
30712W        W73624  29.760   1.499  19.895 -0.0844 -0.0169 -0.4002
30713W        W73625  29.740   2.345  19.442  0.0928 -0.1182  0.0578
30714W        W73626  32.595   2.746  23.311  0.0530 -0.0019  0.2090
30715W        W73627  31.850   1.451  20.748 -0.1487  0.0315 -0.0701
30716W        W73628  29.862   4.184  22.421  0.1741 -0.4460 -0.0089
30717W        W73629  30.324   0.728  22.877  0.0104 -0.0509  0.0014
30718W        W73630  32.993   3.796  23.815 -0.3018 -0.0269  0.0845
30719W        W73631  30.214   3.197  18.074 -0.2807 -0.0623 -0.2106
30720W        W73632  28.456   3.818  21.397  0.1735  0.7122  0.0301
30721W        W73633  29.767   2.674  20.949 -0.2852  0.0739 -0.1529
30722W        W73634  27.961   1.079  21.397  0.1799 -0.2169  0.0167
30723W        W73635  30.824   1.598  21.797 -0.0741  0.0013  0.0234
30724W        W73636  31.285   0.811  19.350  0.3074 -0.0790 -0.1953
30725W        W73637  30.315   0.342  22.072  0.0583  0.2339  0.0048
30726W        W73638  31.680  34.609  22.487 -0.0316 -0.1463 -0.1289
30727W        W73639  30.140   3.400  20.814  0.1909 -0.1035 -0.0525
30728W        W73640  32.093   3.798  21.296  0.3482  0.2428 -0.1661
30729W        W73641  31.250   1.625  22.029 -0.0044  0.2156  0.1376
30730W        W73642  32.220   2.007  20.451 -0.1714 -0.1001  0.1276
30731W        W73643  30.243   2.091  21.606 -0.0606  0.1006  0.0568
30732W        W73644  28.970   0.783  21.368  0.0200  0.1221  0.2291
30733W        W73645  29.401   1.471  22.915 -0.0172  0.1119 -0.0706
30734W        W73646  28.623   0.660  22.359 -0.0073 -0.3395  0.0165
30735W        W73647  31.846   1.680  22.858  0.0829 -0.1902 -0.0171
30736W        W73648  29.427   0.076  20.060 -0.1530 -0.1507 -0.1086
30737W        W73649  30.978   1.463  22.450  0.0586  0.1677  0.1774
30738W        W73650  30.187   0.947  20.822 -0.1701  0.4368  0.0421
30739W        W73651  30.760   2.010  21.544  0.1859 -0.0314  0.0767
30740W        W73652  30.882   0.914  22.789 -0.1787 -0.0840 -0.1839
30741W        W73653  31.895   3.929  20.835 -0.1326 -0.0901  0.2604
30742W        W73654  33.508   3.518  24.855  0.0371 -0.2506 -0.0058
30743W        W73655  32.225   4.130  22.080  0.0053  0.1472 -0.1555
30744W        W73656  30.406   1.165  22.620 -0.1667 -0.1364  0.0665
30745W        W73657  30.673  34.641  22.110  0.0130 -0.0496 -0.2661
30746W        W73658  29.226   3.457  23.165  0.0170 -0.0503  0.0522
30747W        W73659  31.124   2.957  22.690 -0.2900  0.0793  0.2225
30748W        W73660  29.945   1.156  21.661 -0.0890 -0.0437  0.0740
30749W        W73661  31.676   4.302  21.173  0.1879  0.0843  0.0603
30750W        W73662  32.250   2.114  21.405  0.1376 -0.1911  0.2216
30751W        W73663  28.759   3.400  21.953 -0.0907  0.3062 -0.2756
30752W        W73664  31.417   1.439  24.835 -0.1929  0.1915 -0.2347
30753W        W73665  31.289   2.154  22.286 -0.0013  0.2497 -0.1977
30754W        W73666  31.458   0.699  21.301 -0.0949  0.1226 -0.0661
30755W        W73667  29.703  33.941  20.385 -0.1123 -0.1055  0.1140
30756W        W73668  31.549   3.720  21.076 -0.0447 -0.0127  0.2144
30757W        W73669  28.686   2.966  20.809  0.1145 -0.0832  0.0233
30758W        W73670  29.328   2.762  22.024 -0.0261 -0.0165  0.0585
30759W        W73671  31.902   3.318  21.075  0.1924 -0.1061  0.0046
30760W        W73672  31.087   0.904  21.004 -0.1105  0.1071  0.2896
30761W        W73673  29.709   2.359  22.866 -0.3308 -0.0220 -0.1427
30762W        W73674  31.684   1.309  22.473  0.0962 -0.1585 -0.2041
30763W        W73675  30.286   1.548  19.381 -0.3272 -0.1306 -0.1734
30764W        W73676  29.100   1.976  23.131  0.0395 -0.0699  0.0383
30765W        W73677  31.626   0.370  20.955  0.2421 -0.2417 -0.1905
30766W        W73678  32.292   0.932  20.201  0.0673 -0.2003  0.0900
30767W        W73679  31.058   1.592  23.606  0.1577  0.0194  0.0355
30768W        W73680  32.257   3.531  21.842 -0.0312 -0.0884 -0.2201
30769W        W73681  31.065   0.840  18.902 -0.3026  0.2883 -0.2513
30770W        W73682  31.133   0.194  21.445  0.0127 -0.1607 -0.2212
30771W        W73683  31.019   3.377  23.521 -0.1311  0.3747  0.1365
30772W        W73684  30.965   2.524  21.267  0.3026 -0.1855  0.0088
30773W        W73685  31.287   1.601  21.513  0.1097 -0.1165 -0.0637
30774W        W73686  31.824   1.174  20.330 -0.2782 -0.0587 -0.0596
30775W        W73687  33.145   3.288  19.270  0.0692  0.0760 -0.0814
30776W        W73688  30.104   2.975  22.608  0.3080  0.0666  0.1612
30777W        W73689  31.753   2.441  23.644  0.0283 -0.0083  0.0647
30778W        W73690  32.751   3.264  21.506  0.0899  0.5018  0.2239
30779W        W73691  30.982   0.600  22.093 -0.0748 -0.0006 -0.2752
30780W        W73692  30.225   2.257  19.983  0.0480 -0.0312  0.0594
30781W        W73693  31.866  34.600  22.951  0.1240  0.0289 -0.1371
30782W        W73694  30.287   4.711  19.870  0.4024 -0.0584 -0.3050
30783W        W73695  31.355   0.479  21.797 -0.4457 -0.1559  0.0557
30784W        W73696  31.327   0.838  22.566 -0.1826 -0.0848  0.1997
30785W        W73697  30.685   0.809  23.251  0.3013  0.3435  0.0483
30786W        W73698  32.140   1.151  22.549 -0.0862  0.0378 -0.1079
30787W        W73699  31.663   1.152  19.780  0.1504  0.2325 -0.0793
30788W        W73700  30.982   2.817  21.802  0.0030 -0.0079  0.0953
30789W        W73701  29.518   1.984  18.667  0.0866  0.0905  0.0799
30790W        W73702  31.047   2.200  23.295 -0.1047 -0.2489 -0.0181
30791W        W73703  29.618   2.746  22.477  0.0808  0.0926 -0.2476
30792W        W73704  29.687   3.229  22.514  0.0521 -0.0109  0.1687
30793W        W73705  32.594   3.155  22.989  0.0790 -0.0961 -0.1608
30794W        W73706  31.401   1.481  21.041  0.0393 -0.1244  0.1112
30795W        W73707  31.104   2.347  22.740 -0.1948  0.0999  0.0272
30796W        W73708  30.734  34.051  20.607  0.1748  0.0344  0.0682
30797W        W73709  30.149   4.377  20.239  0.0174 -0.1534  0.0891
30798W        W73710  29.893   1.506  20.373  0.1134 -0.0475  0.0916
30799W        W73711  30.609   0.270  21.641 -0.0943 -0.3025  0.3967
30800W        W73712  31.338   3.138  22.003 -0.2535  0.2629  0.0849
30801W        W73713  31.012   2.129  20.713  0.2881 -0.3783 -0.1147
30802W        W73714  32.719   1.957  23.772 -0.1134  0.0305  0.2141
30803W        W73715  30.565   2.005  22.034 -0.1345 -0.5590  0.0675
30804W        W73716  32.961  33.521  21.672  0.2179 -0.0824  0.1352
30805W        W73717  30.108   3.246  21.703  0.2231 -0.0660  0.2428
30806W        W73718  30.649  34.658  21.131  0.0167  0.4560  0.2074
30807W        W73719  29.548   1.818  20.413 -0.0340  0.1229 -0.0112
30808W        W73720  32.291   0.085  20.364 -0.2214  0.0269  0.0381
30809W        W73721  32.400   2.757  19.983  0.0527 -0.0274 -0.1944
30810W        W73722  28.911   2.386  22.146  0.0184 -0.3831 -0.2084
30811W        W73723  30.522   1.130  23.620 -0.1075  0.1762  0.1673
30812W        W73724  29.936   2.495  23.914 -0.1043  0.3232 -0.1726
30813W        W73725  32.739   1.882  22.868 -0.0375 -0.0732  0.2415
30814W        W73726  31.317   1.379  20.413 -0.0617  0.0086 -0.0519
30815W        W73727  32.118   2.790  23.675 -0.1242 -0.1784  0.0184
30816W        W73728  31.002   2.071  24.526 -0.3964  0.0273  0.0913
30817W        W73729  29.528   2.364  20.500  0.2812 -0.2029 -0.0651
30818W        W73730  32.602   0.646  23.218  0.0728 -0.1361  0.0939
30819W        W73731  27.981   1.874  21.616  0.3520  0.1623 -0.3708
30820W        W73732  28.750   3.727  22.577 -0.1905 -0.1084 -0.0207
30821W        W73733  31.818   3.493  21.570  0.0914  0.0840 -0.1305
30822W        W73734  30.528   2.332  21.250  0.0382  0.0507 -0.2962
30823W        W73735  29.256   2.592  21.413  0.3100 -0.0634  0.1692
30824W        W73736  30.372   0.449  24.225 -0.3544  0.4017  0.1535
30825W        W73737  30.958   0.688  21.447  0.0802  0.0998 -0.0009
30826W        W73738  29.873   2.032  22.012  0.0432  0.0171 -0.1591
30827W        W73739  29.782   0.617  20.920 -0.0066 -0.0442 -0.3142
30828W        W73740  30.480   1.970  20.416  0.0984  0.0661  0.0384
30829W        W73741  31.809   2.941  22.381 -0.1075  0.1400  0.0437
30830W        W73742  30.445   1.637  22.852  0.0456 -0.2302 -0.0665
30831W        W73743  31.176   3.407  22.430 -0.0479  0.4536 -0.1789
30832W        W73744  30.603   0.637  22.394 -0.0724  0.0266  0.0706
30833W        W73745  33.266   3.546  21.121  0.0114  0.1233  0.2518
30834W        W73746  32.196   1.592  22.147  0.1417 -0.3934 -0.0899
30835W        W73747  30.755   1.563  19.591  0.2845 -0.1770  0.1051
30836W        W73748  30.141   2.696  21.634  0.2545  0.1804  0.1408
30837W        W73749  29.968   3.182  20.347  0.0126  0.1670  0.0581
30838W        W73750  30.606  34.359  22.511 -0.2487  0.0821  0.1800
30839W        W73751  30.897   2.853  22.282 -0.0180  0.2434 -0.2535
30840W        W73752  30.092   1.660  20.809 -0.0038 -0.2683 -0.1025
30841W        W73753  27.776   3.817  22.129  0.0141  0.2144 -0.0253
30842W        W73754  31.789  34.682  19.151  0.3766  0.1536 -0.1901
30843W        W73755  30.699   1.659  20.092  0.0430  0.5008  0.1023
30844W        W73756  29.777   2.024  20.835  0.3799 -0.2337 -0.0709
30845W        W73757  32.477   0.638  20.522 -0.2444 -0.0925  0.2154
30846W        W73758  32.178   0.758  19.710  0.0126  0.2467  0.1433
30847W        W73759  30.657   0.649  23.744 -0.0321 -0.0602 -0.1791
30848W        W73760  30.107   0.012  24.050 -0.0948 -0.3075 -0.2475
30849W        W73761  31.531   2.604  19.983  0.1237  0.0374  0.2079
30850W        W73762  30.405   1.566  22.185 -0.2332 -0.1033 -0.3630
30851W        W73763  31.769   4.002  23.853 -0.0312  0.2986 -0.2829
30852W        W73764  30.947   2.357  21.990  0.1346 -0.2792  0.1842
30853W        W73765  30.473   0.158  22.557 -0.4279  0.1372  0.2835
30854W        W73766  28.984   0.365  21.149  0.0197 -0.0123  0.4462
30855W        W73767  29.790   3.492  22.094  0.1877 -0.2614  0.0536
30856W        W73768  34.118   2.047  21.420  0.0629 -0.1994  0.2204
30857W        W73769  31.204   3.415  20.851  0.0543  0.1345 -0.2595
30858W        W73770  32.927   1.524  22.540  0.0707  0.1179 -0.1609
30859W        W73771  28.879   3.351  22.835  0.0640  0.5024  0.2830
30860W        W73772  31.538   1.080  20.799  0.1226 -0.0609 -0.0633
30861W        W73773  30.460   1.467  20.496 -0.0544 -0.1719  0.1003
30862W        W73774  30.308   2.125  20.851  0.0939 -0.0391  0.0800
30863W        W73775  29.002   0.136  23.105 -0.1026 -0.1111 -0.2621
30864W        W73776  32.292   2.541  21.171 -0.2799  0.2081  0.1662
30865W        W73777  30.668  34.427  21.667 -0.3654 -0.2325  0.2214
30866W        W73778  31.536   0.911  24.069  0.1070 -0.0115 -0.0027
30867W        W73779  31.741   1.021  22.986 -0.2556  0.2278 -0.0901
30868W        W73780  30.600   2.557  21.633  0.0554 -0.3443  0.0974
30869W        W73781  29.342   0.697  23.123  0.0640  0.0900 -0.1051
30870W        W73782  32.817   3.064  24.389  0.0769 -0.3230  0.0173
30871W        W73783  32.530   1.230  20.962 -0.2042  0.0391 -0.0583
30872W        W73784  32.626   0.139  23.177  0.2184 -0.2086  0.2118
30873W        W73785  32.649   1.513  21.909 -0.1301  0.0429  0.0693
30874W        W73786  31.180   0.765  20.557 -0.0567 -0.0894  0.1402
30875W        W73787  29.886   2.355  21.326  0.1622 -0.0474 -0.1477
30876W        W73788  32.939   2.864  23.950  0.1062  0.0044 -0.0245
30877W        W73789  29.686   0.804  19.526 -0.3475  0.2948 -0.1384
30878W        W73790  31.274   1.274  22.876 -0.0266  0.4016  0.1515
30879W        W73791  31.632   4.170  18.990  0.1058  0.2307  0.0979
30880W        W73792  32.711   2.591  21.387 -0.1058 -0.0852 -0.0712
30881W        W73793  30.820   1.364  21.278  0.3585  0.2096  0.2665
30882W        W73794  30.271   1.958  22.450 -0.3199 -0.0534 -0.3319
30883W        W73795  30.277   2.790  23.721 -0.0697  0.2213 -0.1244
30884W        W73796  29.933   0.956  19.999 -0.4418 -0.1270 -0.0090
30885W        W73797  29.703   1.730  19.072 -0.1218 -0.1179  0.3475
30886W        W73798  31.320   3.755  22.774  0.1133 -0.1891  0.0626
30887W        W73799  32.132   2.416  24.146  0.0108  0.0736 -0.1970
30888W        W73800  30.687   0.076  19.672  0.0743  0.4387  0.4023
30889W        W73801  32.410   1.368  23.088  0.1275 -0.4624  0.2023
30890W        W73802  30.589   2.496  20.416 -0.3279  0.1324  0.0010
30891W        W73803  32.215   0.736  22.901  0.1791 -0.0001 -0.2687
30892W        W73804  31.600   2.994  22.937  0.0549 -0.1042  0.0613
30893W        W73805  28.891   2.499  23.110  0.2295  0.0521  0.1253
30894W        W73806  30.729   4.385  21.395 -0.0556 -0.2183 -0.0893
30895W        W73807  31.436   0.572  22.975  0.0586  0.1562 -0.1118
30896W        W73808  30.539   0.729  21.697  0.0405  0.0368  0.1056
30897W        W73809  31.039   1.861  21.152  0.0781 -0.1872  0.0654
30898W        W73810  33.417   1.389  23.007  0.0917  0.2583 -0.0348
30899W        W73811  31.453   1.682  23.209  0.0988  0.0713  0.0620
30900W        W73812  29.594   1.522  21.409 -0.0294  0.0521 -0.0309
30901W        W73813  31.869   2.545  22.868  0.0356 -0.1628  0.0556
30902W        W73814  32.414   1.989  21.910  0.0171  0.0748  0.4190
30903W        W73815  30.312   3.307  22.256 -0.0450  0.0996 -0.1939
30904W        W73816  28.167   0.520  22.634 -0.1185 -0.2157 -0.0653
30905W        W73817  30.472   1.766  23.343  0.0839 -0.2807 -0.1862
30906W        W73818  31.825   2.328  22.334 -0.2507  0.1861 -0.3501
30907W        W73819  29.373   0.955  22.676 -0.1248  0.1003 -0.2203
30908W        W73820  30.650   3.202  20.978  0.3572 -0.0584 -0.3123
30909W        W73821  30.675   2.442  24.535  0.2449 -0.0531  0.2163
30910W        W73822  29.477   2.275  22.275  0.2325  0.0133  0.0995
30911W        W73823  29.102   2.935  19.317 -0.0952  0.0473  0.5278
30912W        W73824  32.472   2.162  20.912 -0.0353  0.2554 -0.2442
30913W        W73825  31.914   2.470  20.877  0.2267  0.3092 -0.3010
30914W        W73826  31.791   3.290  23.381  0.2879 -0.0044  0.0914
30915W        W73827  30.502   0.907  21.235  0.0117 -0.2393 -0.0195
30916W        W73828  30.450   2.981  20.364  0.1189 -0.2141 -0.1014
30917W        W73829  29.882   3.185  18.704 -0.1066  0.2165 -0.1893
30918W        W73830  31.459   3.520  20.014  0.2202 -0.1811 -0.0138
30919W        W73831  30.350   3.487  21.281 -0.2184 -0.0114 -0.1645
30920W        W73832  32.251   3.514  23.095 -0.2523  0.0104 -0.0181
30921W        W73833  31.967  34.449  20.121 -0.1387 -0.0859 -0.2428
30922W        W73834  32.076   1.215  21.157 -0.0719  0.0732  0.0503
30923W        W73835  32.105   1.379  19.919  0.1602  0.0851  0.1947
30924W        W73836  31.869   3.107  24.082 -0.0771 -0.1281 -0.0492
30925W        W73837  30.696   0.939  20.665 -0.0107 -0.0017  0.0978
30926W        W73838  31.017  34.420  20.500  0.1796 -0.0499  0.1193
30927W        W73839  31.223   2.917  23.257 -0.0589  0.0657 -0.0767
30928W        W73840  31.624  33.587  22.264 -0.2107 -0.1069 -0.0813
30929W        W73841  31.259   4.108  22.203 -0.0985  0.1778 -0.2041
30930W        W73842  31.949   4.543  20.747  0.3934  0.1468  0.0157
30931W        W73843  28.839   1.462  20.140  0.1007 -0.0651  0.1227
30932W        W73844  29.764   2.002  19.959  0.1902  0.1342  0.0185
30933W        W73845  30.751  33.926  21.746 -0.2332  0.1069 -0.1200
30934W        W73846  31.688   1.715  20.293  0.1398  0.1038  0.0661
30935W        W73847  30.149   1.296  21.211  0.2227  0.0409 -0.1914
30936W        W73848  31.397   3.684  22.012  0.1706 -0.2350 -0.1233
30937W        W73849  29.477   3.463  21.681  0.3468 -0.1735 -0.2243
30938W        W73850  31.017   3.777  21.686 -0.0879 -0.0966 -0.1106
30939W        W73851  28.935  34.271  20.647 -0.2038 -0.1118 -0.2155
30940W        W73852  33.080  33.949  20.869  0.3042  0.1755 -0.0670
30941W        W73853  30.131   2.407  22.597 -0.2231  0.0847 -0.1580
30942W        W73854  32.425  34.434  22.796  0.1052  0.1310 -0.1884
30943W        W73855  29.999   1.880  21.238 -0.2699 -0.2115  0.0473
30944W        W73856  31.644   1.282  21.469 -0.0673  0.1822 -0.0156
30945W        W73857  30.839   2.016  22.523 -0.2361 -0.2523 -0.1534
30946W        W73858  30.113   1.237  24.105 -0.0334 -0.3627 -0.0453
30947W        W73859  29.711   1.044  21.123  0.0074 -0.0516 -0.1034
30948W        W73860  33.515   2.210  23.779  0.4198 -0.0373 -0.3348
30949W        W73861  30.886   1.218  20.267  0.1086  0.1554  0.0961
30950W        W73862  32.777   4.120  22.970 -0.0207 -0.2241 -0.2493
30951W        W73863  29.116   0.940  20.341 -0.1317 -0.1712 -0.1374
30952W        W73864  30.052   0.771  21.349  0.1178 -0.1124 -0.0413
30953W        W73865  29.886   3.746  22.612 -0.3898 -0.1681  0.1149
30954W        W73866  30.632   3.080  22.654  0.0096  0.3454  0.1096
30955W        W73867  31.537   1.241  23.498  0.1129  0.2597 -0.1207
30956W        W73868  28.630   0.156  20.074  0.1594  0.0815 -0.4833
30957W        W73869  32.616   3.007  18.664  0.0262 -0.1275  0.0636
30958W        W73870  31.724   1.449  21.921 -0.2399 -0.1416  0.1819
30959W        W73871  31.563   3.698  20.540 -0.1414  0.0723 -0.0778
30960W        W73872  31.965   1.975  20.946  0.0730 -0.2990 -0.3357
30961W        W73873  32.080   3.237  22.730  0.4391  0.2617 -0.0443
30962W        W73874  29.915   1.667  22.726  0.1315  0.1481  0.0196
30963W        W73875  32.106   4.673  22.231  0.1239  0.1203  0.2708
30964W        W73876  32.380   2.367  22.275 -0.1496 -0.2267  0.1982
30965W        W73877  29.847   0.671  21.898 -0.0258 -0.0077 -0.2240
30966W        W73878  30.207   2.398  22.058  0.2197 -0.2280 -0.1498
30967W        W73879  29.315   3.153  21.259  0.2497 -0.4035 -0.3713
30968W        W73880  31.730   0.309  22.118 -0.0509 -0.1627 -0.0997
30969W        W73881  31.339   0.324  22.424 -0.0578 -0.2440 -0.1285
30970W        W73882  29.635   3.006  19.976  0.2713 -0.4658 -0.2164
30971W        W73883  32.187  34.384  24.333 -0.0006  0.2329  0.1591
30972W        W73884  31.452   2.478  23.187  0.3070  0.0120 -0.3009
30973W        W73885  31.056   3.421  24.036 -0.4694 -0.0764  0.0328
30974W        W73886  29.843   2.932  18.230 -0.2774 -0.0414 -0.0796
30975W        W73887  31.732   1.646  23.690 -0.1677  0.1595  0.0634
30976W        W73888  30.931   2.752  20.087 -0.1040  0.0090 -0.0454
30977W        W73889  30.826   4.236  20.023 -0.0407 -0.0533  0.0888
30978W        W73890  32.970   2.082  21.887  0.0079  0.0549  0.0508
30979W        W73891  30.079   0.120  20.682 -0.2881 -0.0514  0.0213
30980W        W73892  33.514   1.374  21.255 -0.0186 -0.0828 -0.0370
30981W        W73893  30.923   1.618  20.678 -0.1038  0.1797 -0.2186
30982W        W73894  32.370  34.459  21.920  0.1383 -0.2041  0.1019
30983W        W73895  31.023  34.050  22.570  0.0319  0.2966 -0.2508
30984W        W73896  31.232   2.504  23.670 -0.2200 -0.0755 -0.0365
30985W        W73897  28.800   2.307  19.829 -0.0202 -0.1048  0.0401
30986W        W73898  30.271   2.219  19.305  0.0360 -0.4368 -0.1810
30987W        W73899  30.193   3.842  19.514 -0.1797  0.0847  0.1924
30988W        W73900  31.180   1.237  24.250 -0.0323 -0.1961 -0.0843
30989W        W73901  29.698   0.418  23.910 -0.2931 -0.2247  0.1510
30990W        W73902  29.597   1.684  21.866 -0.2523  0.0026 -0.1581
30991W        W73903  29.530   1.282  20.724  0.0695  0.1130 -0.2160
30992W        W73904  31.871   2.686  20.437 -0.1166  0.3834  0.0810
30993W        W73905  28.201   0.856  21.763  0.1085  0.6119 -0.1336
30994W        W73906  28.304   0.627  19.392 -0.1951 -0.5328  0.0259
30995W        W73907  31.756   3.205  20.503 -0.3002  0.0749 -0.0213
30996W        W73908  32.401   3.909  20.781 -0.1406 -0.1204  0.1343
30997W        W73909  29.439   1.488  22.353  0.1819  0.1998 -0.1187
30998W        W73910  33.295   3.205  22.660  0.1591  0.3489 -0.0877
30999W        W73911  30.286   0.488  20.252  0.0458 -0.4018  0.1599
31000W        W73912  30.102   1.627  21.724  0.0637  0.1139  0.0708
31001W        W73913  30.046   0.585  22.410  0.0658  0.1152  0.2398
31002W        W73914  29.831   0.879  20.519  0.2451 -0.0439  0.4368
31003W        W73915  31.452   2.949  20.912 -0.0193 -0.1257 -0.0017
31004W        W73916  31.060   2.997  21.214  0.1054  0.1492 -0.0911
31005W        W73917  31.068   3.582  19.766  0.0460 -0.1367 -0.1449
31006W        W73918  31.343   1.720  22.623  0.2197  0.0831 -0.2426
31007W        W73919  31.507   4.068  23.133  0.3043  0.3948 -0.0943
31008W        W73920  28.221  33.087  20.033  0.2884  0.2396  0.1959
31009W        W73921  31.374   2.915  20.375  0.1031 -0.0106 -0.1341
31010W        W73922  31.300   3.409  23.117  0.0288  0.2844  0.0893
31011W        W73923  31.216   3.286  19.405 -0.0364  0.3221  0.2219
31012W        W73924  31.364   1.152  22.047 -0.0475  0.2041 -0.1156
31013W        W73925  32.078   1.702  21.613  0.0054 -0.0055 -0.1910
31014W        W73926  29.837   1.037  23.049  0.1341 -0.4069 -0.2570
31015W        W73927  31.483   2.611  22.575  0.1534  0.2111 -0.2208
31016W        W73928  32.164   2.005  22.627  0.2378 -0.1122 -0.1059
31017W        W73929  30.241   1.081  22.104 -0.0364  0.0575 -0.0546
31018W        W73930  32.271  34.418  20.841  0.0721 -0.0230 -0.2142
31019W        W73931  30.497   1.964  19.729 -0.0291 -0.0288 -0.2904
31020W        W73932  28.220   0.711  24.102 -0.0852  0.0748  0.3734
31021W        W73933  31.766   0.208  20.342 -0.0223  0.0261  0.0074
31022W        W73934  31.753   1.807  22.363  0.0511 -0.1121  0.0837
31023W        W73935  32.819   2.573  22.148 -0.3465  0.0089 -0.2382
31024W        W73936  33.545   1.900  24.162  0.4786  0.0674 -0.0657
31025W        W73937  30.524   0.347  20.660 -0.3869  0.0263 -0.2421
31026W        W73938  31.179   1.719  19.894  0.0697 -0.0496 -0.1892
31027W        W73939  31.397   4.912  21.980 -0.0316  0.1676  0.1961
31028W        W73940  33.381   3.249  23.661  0.4814  0.0427 -0.0846
31029W        W73941  31.518   3.708  23.452  0.3249  0.0386 -0.2898
31030W        W73942  32.292   2.599  21.694 -0.0290  0.0091  0.1763
31031W        W73943  28.735  33.518  21.966  0.0736 -0.1657 -0.3217
31032W        W73944  30.954   3.152  20.492 -0.1074 -0.1560  0.0335
31033W        W73945  31.846   2.793  21.224  0.1424 -0.0327  0.0715
31034W        W73946  31.422   2.737  21.459  0.0241  0.2597  0.1402
31035W        W73947  30.189   1.728  20.027 -0.1324 -0.1651  0.3711
31036W        W73948  31.280   0.876  20.083  0.0946  0.0374 -0.1047
31037W        W73949  31.630   3.383  22.621  0.1805 -0.1600 -0.2449
31038W        W73950  29.716   2.547  21.870  0.0639 -0.0332 -0.1069
31039W        W73951  30.001   3.108  27.325 -0.0751 -0.1895  0.0112
31040W        W73952  30.654   1.668  25.511  0.1512  0.2319 -0.2695
31041W        W73953  32.167   0.099  22.265  0.2781  0.0012  0.0861
31042W        W73954  32.750   2.215  25.196  0.2191 -0.0474 -0.0566
31043W        W73955  30.082   0.073  25.732 -0.1299 -0.2414  0.0342
31044W        W73956  33.004   3.625  26.090 -0.0707 -0.3566 -0.4214
31045W        W73957  30.653   0.375  26.673  0.0824  0.1071 -0.0522
31046W        W73958  32.228   3.156  25.300 -0.2136  0.0337 -0.0755
31047W        W73959  30.840   2.901  26.243 -0.2388 -0.1831  0.0405
31048W        W73960  32.274   1.417  23.688 -0.0941 -0.1181 -0.0890
31049W        W73961  32.138   0.590  27.591 -0.1299  0.0195 -0.2072
31050W        W73962  29.119   1.313  25.899 -0.2650 -0.2258 -0.3425
31051W        W73963  29.314   0.142  24.779  0.0476 -0.0895 -0.0440
31052W        W73964  29.937   0.087  25.044  0.2006  0.0461  0.2069
31053W        W73965  32.249   2.362  26.154  0.0570  0.0421 -0.1239
31054W        W73966  30.445   3.208  25.790  0.1204  0.2998  0.2576
31055W        W73967  29.902   1.668  26.664  0.0199  0.1490  0.1271
31056W        W73968  30.228   1.375  25.300  0.0168  0.0789 -0.0247
31057W        W73969  31.045   4.596  24.250 -0.2211 -0.1650  0.0048
31058W        W73970  30.457   0.466  27.154 -0.1827 -0.2677 -0.0571
31059W        W73971  31.633  34.559  27.259  0.0071 -0.0269 -0.0898
31060W        W73972  31.045   3.487  25.052 -0.1514  0.2027  0.0207
31061W        W73973  30.086   0.787  23.911  0.0173  0.2585 -0.2619
31062W        W73974  29.278   1.484  25.481  0.1623  0.0368 -0.2113
31063W        W73975  30.052   2.669  26.563  0.0820  0.2776 -0.0048
31064W        W73976  32.045   1.342  26.172 -0.0118  0.0072  0.2111
31065W        W73977  31.384   3.125  26.013  0.0816 -0.3074 -0.1933
31066W        W73978  30.096   4.737  25.403  0.0052 -0.4235  0.0761
31067W        W73979  31.638   2.997  26.459  0.0103 -0.0311  0.2003
31068W        W73980  31.528   0.547  27.704  0.2368  0.2504  0.0211
31069W        W73981  29.738   2.537  25.908 -0.1547  0.1223 -0.0007
31070W        W73982  28.581   3.783  26.141 -0.1810  0.0176  0.0539
31071W        W73983  28.254   2.122  25.435  0.1264 -0.0914 -0.0769
31072W        W73984  31.613   2.895  23.636  0.2214  0.2879  0.2189
31073W        W73985  32.446   2.922  27.330 -0.0957 -0.0564  0.0292
31074W        W73986  31.145   3.413  28.199 -0.1807  0.1236 -0.0920
31075W        W73987  28.457   0.412  23.635 -0.0181 -0.3782 -0.0536
31076W        W73988  31.573   4.448  25.135  0.1315  0.1614 -0.1293
31077W        W73989  31.311   2.039  26.563 -0.1137 -0.0772 -0.2406
31078W        W73990  31.953   1.338  25.658 -0.0479 -0.0405 -0.1548
31079W        W73991  31.940   2.706  25.410  0.0518  0.0018 -0.2751
31080W        W73992  30.255   3.896  24.140  0.0532 -0.2482  0.0452
31081W        W73993  30.812   3.779  26.709  0.3630  0.4261 -0.0793
31082W        W73994  31.503   1.219  27.002 -0.4294 -0.0827  0.1184
31083W        W73995  29.032   1.962  25.749  0.4364 -0.0214 -0.1404
31084W        W73996  30.700   2.381  27.855 -0.1150 -0.0943 -0.0461
31085W        W73997  28.890   3.571  24.726 -0.1005 -0.0831  0.2877
31086W        W73998  31.963   1.424  23.319  0.1112  0.1121 -0.1755
31087W        W73999  30.789  34.586  22.920 -0.1106 -0.0484 -0.0486
31088W        W74000  31.292   0.974  24.888 -0.0211  0.0914 -0.0479
31089W        W74001  31.265  34.647  26.309 -0.0702  0.1069  0.2146
31090W        W74002  30.848   2.929  25.068  0.1894 -0.2096  0.0025
31091W        W74003  29.945   0.990  25.599  0.0989  0.1436  0.1423
31092W        W74004  31.095   3.162  26.613  0.1657 -0.1155  0.2334
31093W        W74005  30.550   2.231  25.583  0.0101 -0.0614 -0.1031
31094W        W74006  31.201   1.737  26.214  0.2782  0.0402  0.1957
31095W        W74007  30.612   3.925  26.281 -0.2438 -0.1662 -0.4539
31096W        W74008  29.880   1.074  25.104  0.0642  0.1450 -0.0916
31097W        W74009  33.431   2.721  23.867  0.0906 -0.0236  0.0370
31098W        W74010  33.493   3.194  25.305 -0.3044  0.1917  0.1426
31099W        W74011  32.303   4.111  23.735  0.3172  0.2843  0.1676
31100W        W74012  30.160   0.763  24.885 -0.0084 -0.1439  0.4847
31101W        W74013  30.291   1.946  27.343  0.0753  0.2147  0.0258
31102W        W74014  31.158   2.560  27.779  0.0096  0.0832 -0.1058
31103W        W74015  29.074   0.471  26.680  0.0827 -0.0036  0.1797
31104W        W74016  33.484   2.635  27.893  0.0376  0.4721 -0.4073
31105W        W74017  30.605   2.295  27.165 -0.2877 -0.1022  0.2403
31106W        W74018  32.770   1.052  25.897  0.1215 -0.0190 -0.2181
31107W        W74019  30.072   3.710  25.074  0.0851 -0.0707 -0.0188
31108W        W74020  31.290   2.691  26.182 -0.0542  0.0151  0.2157
31109W        W74021  33.088   2.291  23.479 -0.0134 -0.2195 -0.0957
31110W        W74022  33.115   0.465  25.906 -0.0284  0.0039  0.0717
31111W        W74023  31.465   1.390  26.494  0.2595 -0.1864  0.1345
31112W        W74024  30.648   2.476  22.508  0.1043  0.1702  0.1911
31113W        W74025  30.178   3.186  25.371  0.1700  0.1613 -0.1532
31114W        W74026  33.204   2.914  28.505  0.1474  0.0903 -0.0707
31115W        W74027  32.686   2.494  24.273 -0.3299 -0.0694  0.0431
31116W        W74028  29.774   4.084  25.555 -0.1047  0.2354 -0.0344
31117W        W74029  31.177   1.021  25.794  0.1704 -0.1711 -0.3219
31118W        W74030  31.034   3.113  27.770 -0.0276 -0.1775 -0.2247
31119W        W74031  30.671   2.958  24.066  0.1114  0.0368 -0.1613
31120W        W74032  28.680   2.120  24.910  0.0491  0.1549 -0.0141
31121W        W74033  29.115   1.394  24.408 -0.0104 -0.1083  0.0529
31122W        W74034  29.055   0.499  27.232 -0.1006 -0.0810  0.4655
31123W        W74035  29.197   2.480  25.716  0.2436 -0.3122  0.0326
31124W        W74036  31.735  34.155  24.277 -0.0313 -0.1737 -0.3170
31125W        W74037  29.204  34.662  25.286  0.0213 -0.2053 -0.1081
31126W        W74038  33.701  33.733  26.381 -0.0850 -0.0060  0.0077
31127W        W74039  31.352   2.892  24.740  0.2427  0.2010 -0.0728
31128W        W74040  32.131   4.082  24.613 -0.0840 -0.0081 -0.2532
31129W        W74041  31.786   2.072  24.031 -0.0624 -0.1626 -0.0526
31130W        W74042  32.343   3.055  24.750  0.3084  0.1965 -0.2122
31131W        W74043  29.919   0.506  27.272 -0.3222 -0.3732  0.2947
31132W        W74044  28.482   1.165  25.763  0.4181 -0.1908  0.2682
31133W        W74045  30.017   1.249  26.455  0.0110 -0.0462 -0.1558
31134W        W74046  28.952   1.144  25.019  0.0214  0.0287 -0.0460
31135W        W74047  31.653   1.841  25.775  0.0896  0.3170  0.3391
31136W        W74048  30.008   0.560  25.351 -0.1790 -0.1172  0.0850
31137W        W74049  32.538   0.879  24.387  0.3199 -0.0975 -0.1154
31138W        W74050  30.552   1.587  24.965  0.0836 -0.2901 -0.0338
31139W        W74051  29.527   1.943  25.122 -0.0796  0.0280  0.1015
31140W        W74052  32.966   1.549  25.820 -0.0517 -0.0134 -0.0706
31141W        W74053  32.078   4.441  23.417  0.2903 -0.1117 -0.1878
31142W        W74054  32.344   2.695  25.723  0.1074  0.3134 -0.0177
31143W        W74055  29.847   4.710  24.780 -0.0523  0.1007 -0.0138
31144W        W74056  29.831   1.707  25.416  0.1870 -0.2853  0.0550
31145W        W74057  29.574   1.728  24.454 -0.0760  0.0145 -0.0817
31146W        W74058  27.969   3.341  25.766 -0.1088  0.2044 -0.1246
31147W        W74059  30.121   3.846  26.428  0.0495 -0.0396 -0.4585
31148W        W74060  30.270   0.297  24.803 -0.2973 -0.4492  0.0091
31149W        W74061  32.747   3.644  26.564 -0.0513 -0.1252  0.3691
31150W        W74062  30.476   3.440  24.838  0.3064  0.4214  0.2914
31151W        W74063  30.965   2.712  26.926 -0.3457 -0.0217 -0.2325
31152W        W74064  30.852  34.110  27.696 -0.1851 -0.2981 -0.0422
31153W        W74065  32.739   3.134  26.735  0.0664 -0.1166 -0.1481
31154W        W74066  31.504   2.673  25.713  0.2488 -0.1336  0.0864
31155W        W74067  29.787   1.137  23.733 -0.2567 -0.0602  0.0396
31156W        W74068  32.662   4.870  26.064 -0.2005  0.0945  0.1492
31157W        W74069  29.467   4.781  24.329 -0.0269  0.2772 -0.0146
31158W        W74070  28.924   1.018  25.526 -0.1272 -0.1588  0.1398
31159W        W74071  30.685   3.364  25.325  0.0613 -0.2984 -0.3184
31160W        W74072  32.550   1.970  26.212 -0.0813 -0.1289  0.0332
31161W        W74073  28.810   1.164  28.497  0.0140 -0.2962  0.0015
31162W        W74074  31.696   1.828  26.260 -0.1713  0.0155  0.1379
31163W        W74075  30.325   0.924  24.448 -0.0498 -0.1203  0.0041
31164W        W74076  29.409   4.177  25.993 -0.0840  0.0493 -0.0780
31165W        W74077  31.143   0.311  25.405  0.1304 -0.0406 -0.1293
31166W        W74078  32.290   0.184  24.082 -0.4265  0.1020 -0.0710
31167W        W74079  31.013   2.519  25.456  0.0891  0.3313  0.3078
31168W        W74080  32.634   2.612  24.861  0.0438 -0.0937 -0.0707
31169W        W74081  30.804   1.327  23.231  0.1249  0.0286  0.1650
31170W        W74082  30.641   2.152  22.971 -0.2018  0.0363 -0.0943
31171W        W74083  31.417   2.431  28.186  0.1084  0.3149 -0.0348
31172W        W74084  29.703   3.541  25.397 -0.0290 -0.0647  0.2918
31173W        W74085  29.470   2.932  26.582 -0.1649 -0.1011  0.1482
31174W        W74086  30.898   1.744  24.140  0.2167 -0.1247  0.2127
31175W        W74087  33.164   1.733  23.891  0.3467  0.4319 -0.0412
31176W        W74088  29.892   2.175  27.515  0.1093 -0.0638  0.0315
31177W        W74089  29.960   2.726  29.100 -0.0836 -0.0036 -0.1493
31178W        W74090  31.954   3.560  25.286 -0.0764  0.1362 -0.1192
31179W        W74091  30.077   0.350  26.740  0.0295  0.1280  0.0908
31180W        W74092  30.807   1.107  22.146 -0.0030  0.2792 -0.3074
31181W        W74093  31.215   1.667  26.914 -0.0077 -0.2565  0.0676
31182W        W74094  28.642   3.878  24.426  0.0136  0.0549 -0.0422
31183W        W74095  32.604   0.913  27.045 -0.0289 -0.2103  0.0449
31184W        W74096  31.856   0.849  26.377 -0.0237  0.0211  0.1677
31185W        W74097  31.110   0.535  25.920  0.1163  0.0905  0.3276
31186W        W74098  32.001   2.106  27.301  0.1635 -0.1083  0.0474
31187W        W74099  30.812   2.616  23.058 -0.5820  0.0949 -0.1995
31188W        W74100  31.060   2.205  27.400 -0.3791  0.2292 -0.0017
31189W        W74101  30.272   1.906  25.252  0.1188 -0.1100  0.1298
31190W        W74102  31.054   1.260  26.325  0.2865 -0.4419 -0.1066
31191W        W74103  29.532   2.053  25.745  0.1236 -0.0183 -0.4150
31192W        W74104  28.993   3.081  26.584 -0.1140 -0.2115 -0.0028
31193W        W74105  30.911   2.337  26.432 -0.1893  0.0338 -0.0182
31194W        W74106  31.506   2.652  25.132  0.2530 -0.3716 -0.0361
31195W        W74107  31.340   0.799  27.278  0.1375 -0.5229  0.0003
31196W        W74108  29.553   0.874  24.207 -0.1347 -0.1689  0.3150
31197W        W74109  31.399   3.745  24.703  0.0442 -0.0662  0.2658
31198W        W74110  29.584   2.472  25.293  0.3401 -0.0409  0.1153
31199W        W74111  30.930  34.670  25.883 -0.2182  0.0098  0.0065
31200W        W74112  29.647   4.559  25.214  0.0576 -0.3565  0.0108
31201W        W74113  31.099   3.449  25.634  0.5284  0.1135  0.1101
31202W        W74114  32.140   1.534  24.639 -0.0059  0.1932  0.3151
31203W        W74115  29.657   4.855  25.631  0.0786 -0.2459 -0.0373
31204W        W74116  31.469   1.354  26.031  0.2220 -0.2337  0.0477
31205W        W74117  28.805   4.195  27.209  0.0310 -0.4715 -0.1238
31206W        W74118  29.787   0.488  25.847  0.0952  0.3802  0.0033
31207W        W74119  29.846   2.939  26.132 -0.0611 -0.2327 -0.2874
31208W        W74120  32.423   1.209  25.499  0.0422 -0.2505 -0.2080
31209W        W74121  31.768   2.061  23.232 -0.1731  0.0384 -0.1504
31210W        W74122  30.113   2.016  25.877  0.2112 -0.0683  0.0142
31211W        W74123  32.309   1.049  24.846  0.0654  0.1080 -0.1076
31212W        W74124  29.151   3.208  25.920 -0.1323 -0.1366  0.1767
31213W        W74125  31.527   1.307  27.557 -0.0924  0.0563  0.1297
31214W        W74126  31.690   1.391  24.381  0.0481 -0.1760 -0.1336
31215W        W74127  33.450   2.874  26.108  0.1563 -0.0785 -0.3019
31216W        W74128  30.897   1.354  26.804  0.1250 -0.1239 -0.1590
31217W        W74129  30.037   1.586  23.729  0.3950  0.1521  0.2241
31218W        W74130  31.775   0.877  27.387  0.1195  0.0934 -0.1911
31219W        W74131  29.645   1.303  25.833  0.2249  0.3016 -0.0269
31220W        W74132  28.329   4.898  24.667  0.2456  0.2184 -0.0369
31221W        W74133  31.350   4.563  26.037 -0.0086 -0.4579 -0.4429
31222W        W74134  29.955   3.031  24.114 -0.0332  0.2966  0.3513
31223W        W74135  30.643   3.459  24.356 -0.2914  0.1315 -0.0839
31224W        W74136  29.815   1.709  26.148  0.1326 -0.1488 -0.1178
31225W        W74137  32.711   0.915  25.109  0.2299 -0.0331  0.1587
31226W        W74138  30.441   0.921  25.330 -0.0215 -0.1564 -0.1405
31227W        W74139  29.472   1.412  24.882 -0.0251 -0.1460 -0.0456
31228W        W74140  29.599   3.393  26.212 -0.0084 -0.1444  0.1554
31229W        W74141  30.987   2.048  25.586 -0.0257  0.3458  0.0739
31230W        W74142  30.706   1.345  25.976 -0.0261 -0.0196  0.0758
31231W        W74143  30.617   3.224  26.761 -0.1076  0.1650 -0.1865
31232W        W74144  30.702  34.002  25.786 -0.3143 -0.2237 -0.2047
31233W        W74145  33.148   2.388  24.902 -0.1384  0.1196 -0.1451
31234W        W74146  31.444   2.564  26.682  0.0241  0.0619 -0.0603
31235W        W74147  30.120   1.708  24.219  0.1778 -0.1276 -0.1624
31236W        W74148  28.469   1.207  25.287  0.1027  0.3704 -0.0222
31237W        W74149  29.637   3.070  24.553  0.0266 -0.2902  0.0305
31238W        W74150  30.722   1.862  25.986  0.1093  0.0450  0.2284
31239W        W74151  30.731   3.396  26.297  0.0129 -0.0933  0.1160
31240W        W74152  30.279   3.385  23.946  0.2023  0.1653 -0.3405
31241W        W74153  28.616   2.243  26.697 -0.1683  0.1868  0.3842
31242W        W74154  31.453  33.069  24.082 -0.1135  0.1013  0.0825
31243W        W74155  31.062   2.447  24.921  0.2620 -0.0425  0.1127
31244W        W74156  30.239   1.543  25.761  0.0985  0.0622  0.1795
31245W        W74157  33.892   0.586  27.969 -0.2411 -0.0087  0.2083
31246W        W74158  31.438   1.676  24.091 -0.0035 -0.2139 -0.1156
31247W        W74159  31.824   1.459  29.218  0.1885 -0.0664 -0.0909
31248W        W74160  29.540   2.124  27.126  0.0289 -0.1393  0.1107
31249W        W74161  32.529   2.668  26.580  0.3933  0.2553  0.2045
31250W        W74162  29.440   0.343  27.557  0.2359  0.1102 -0.2284
31251W        W74163  32.284   3.887  26.527 -0.1742  0.0994  0.0872
31252W        W74164  30.310   2.099  27.890  0.3662  0.0120  0.1129
31253W        W74165  30.829   1.172  25.481 -0.0232  0.1857  0.0273
31254W        W74166  30.484  34.511  24.886  0.0052 -0.2088 -0.0168
31255W        W74167  29.766   2.866  26.969  0.2077 -0.2057 -0.0043
31256W        W74168  32.343   2.970  26.195  0.1282  0.1226 -0.0290
31257W        W74169  31.813   3.063  25.040  0.1800 -0.2093 -0.2352
31258W        W74170  32.114  34.698  24.716 -0.0198  0.1365 -0.1082
31259W        W74171  28.938   4.153  25.919  0.0413  0.1681  0.2140
31260W        W74172  31.884   2.837  24.454 -0.0228  0.2187 -0.0131
31261W        W74173  30.769   2.032  24.993  0.1347 -0.2641 -0.1280
31262W        W74174  29.172   2.282  24.999  0.0345 -0.1498  0.0749
31263W        W74175  30.185   1.076  27.813 -0.3541 -0.3401  0.0062
31264W        W74176  32.329   1.941  25.013 -0.1473 -0.2167  0.1918
31265W        W74177  32.108   0.375  25.046  0.3432  0.1562  0.0585
31266W        W74178  31.644   0.737  26.871 -0.3288 -0.4065  0.2936
31267W        W74179  32.016   2.655  26.492  0.1045  0.2263  0.4535
31268W        W74180  31.931   1.313  26.645  0.1759 -0.0122  0.0440
31269W        W74181  30.224   1.027  27.285  0.4108  0.0315  0.3242
31270W        W74182  32.865   3.251  27.313  0.1469 -0.0922 -0.2555
31271W        W74183  32.596   1.236  22.297  0.1513  0.0729  0.2646
31272W        W74184  32.355   1.055  26.362 -0.2106  0.1662 -0.1216
31273W        W74185  32.013   1.847  25.453  0.2071 -0.2123  0.1194
31274W        W74186  31.016   1.025  23.730 -0.1383 -0.1817 -0.0225
31275W        W74187  30.012   2.763  25.156 -0.0008 -0.1208  0.0664
31276W        W74188  32.590   1.779  28.818 -0.1994  0.2989  0.3334
31277W        W74189  30.642   0.030  23.437  0.1438 -0.0024 -0.0072
31278W        W74190  32.379   0.610  28.574  0.2049 -0.0200  0.0035
31279W        W74191  32.035   3.558  23.790 -0.0102  0.1236 -0.3003
31280W        W74192  31.856   3.813  26.150 -0.1081 -0.2694  0.5002
31281W        W74193  31.776   1.741  24.957 -0.2696 -0.1091  0.0242
31282W        W74194  29.814   0.842  26.242  0.0222 -0.1003  0.0597
31283W        W74195  31.738   4.120  26.496 -0.2195  0.2651  0.0562
31284W        W74196  29.199   1.861  22.167 -0.0364  0.0702  0.1359
31285W        W74197  30.958   1.552  24.574 -0.2364 -0.2579  0.1224
31286W        W74198  32.196   4.183  25.554  0.1773  0.1008 -0.1027
31287W        W74199  32.052   1.165  27.739  0.0887 -0.1433  0.2208
31288W        W74200  30.271   0.607  25.892  0.4449 -0.1220  0.0624
31289W        W74201  34.096   1.576  28.229 -0.3497 -0.0175  0.2383
31290W        W74202  29.799   3.877  26.002  0.0846  0.1164 -0.2400
31291W        W74203  31.575  33.346  23.607 -0.0927 -0.3706 -0.0850
31292W        W74204  29.281   4.560  25.582 -0.1011 -0.2100 -0.0249
31293W        W74205  28.595   2.365  27.618  0.0274  0.1552 -0.0308
31294W        W74206  29.289   2.739  26.158  0.0499  0.0862  0.0358
31295W        W74207  31.249   0.231  27.343  0.2342 -0.2788 -0.1251
31296W        W74208  31.510   1.616  25.375 -0.0724  0.0979  0.2420
31297W        W74209  30.833   2.677  27.424  0.0301 -0.1654 -0.2059
31298W        W74210  31.901   2.296  25.689  0.0961  0.1606  0.9065
31299W        W74211  31.287   2.216  25.971 -0.0614  0.0309  0.0985
31300W        W74212  30.494   2.546  26.670 -0.2760  0.3978 -0.2175
31301W        W74213  31.688   3.761  27.422 -0.0949 -0.1649 -0.0454
31302W        W74214  32.389   2.147  25.744 -0.1648  0.0313  0.1404
31303W        W74215  29.966   1.652  24.914  0.2897  0.1395 -0.1071
31304W        W74216  30.923   2.560  28.268  0.0850 -0.3204  0.0386
31305W        W74217  31.196   0.987  27.724  0.0571 -0.0600 -0.0647
31306W        W74218  30.960   2.984  25.701  0.0857 -0.2142  0.0908
31307W        W74219  30.025  34.301  24.653  0.1347  0.1062  0.0034
31308W        W74220  31.177   2.159  24.058 -0.1675  0.1469 -0.0996
31309W        W74221  29.902   3.530  27.666 -0.0369  0.1666 -0.1849
31310W        W74222  29.500   1.344  26.295  0.1962 -0.3285 -0.2087
31311W        W74223  31.422   3.733  24.192  0.1017  0.2805 -0.2924
31312W        W74224  33.489   2.780  24.913 -0.2065 -0.1196  0.2799
31313W        W74225  31.470   3.649  25.253 -0.1844 -0.0472  0.2214
31314W        W74226  31.792   2.797  26.919 -0.0724 -0.4407  0.0430
31315W        W74227  30.264   2.670  23.181  0.1159  0.0305 -0.0163
31316W        W74228  29.411   3.636  25.778 -0.1525 -0.0397  0.0479
31317W        W74229  27.488   2.582  24.312 -0.1475 -0.1041 -0.2335
31318W        W74230  32.023   4.922  23.353  0.0219 -0.1880  0.1419
31319W        W74231  30.864   3.826  24.732  0.2797 -0.0683  0.0683
31320W        W74232  31.944   2.887  27.373 -0.1707  0.1285 -0.1466
31321W        W74233  30.807   0.154  24.660  0.2304  0.0215  0.0315
31322W        W74234  33.411   2.704  25.396  0.1975  0.0133 -0.0605
31323W        W74235  32.564  34.656  24.503  0.0538  0.0647 -0.3472
31324W        W74236  31.570   3.685  25.747 -0.3577 -0.3276  0.1600
31325W        W74237  30.256   2.525  26.039  0.0660  0.1097  0.0599
31326W        W74238  31.058   0.730  24.111  0.2429 -0.2807  0.1790
31327W        W74239  29.631   2.475  26.684 -0.2804 -0.0518 -0.1488
31328W        W74240  32.687   1.601  27.780 -0.1640  0.2431  0.1511
31329W        W74241  29.233   2.694  27.006 -0.2116  0.0617  0.0825
31330W        W74242  31.546   3.420  23.850 -0.1674 -0.0342  0.1816
31331W        W74243  29.446   0.861  24.695  0.0686 -0.0973 -0.2037
31332W        W74244  30.838   2.492  25.974 -0.2073 -0.1294  0.0592
31333W        W74245  32.700   1.528  27.155 -0.0912 -0.1326 -0.0297
31334W        W74246  30.711   2.433  23.943 -0.0369  0.1621  0.1808
31335W        W74247  31.130   0.773  25.382  0.0462 -0.0070  0.0969
31336W        W74248  30.305   3.064  24.453  0.0917 -0.0483  0.2794
31337W        W74249  28.878   2.572  26.446  0.0398 -0.0822 -0.0998
31338W        W74250  29.496   2.959  25.716 -0.1959  0.0369 -0.5448
31339W        W74251  29.078   0.759  24.269 -0.1442  0.0772  0.0046
31340W        W74252  32.937   1.041  24.669 -0.0884  0.2921 -0.0211
31341W        W74253  31.156   0.936  26.801  0.2172 -0.2005  0.0256
31342W        W74254  32.529   1.349  26.705  0.0745 -0.2227  0.2662
31343W        W74255  30.335   1.356  26.838 -0.1213  0.1072  0.1611
31344W        W74256  31.988   2.005  24.558 -0.0608  0.4261 -0.1838
31345W        W74257  30.085   2.833  25.656  0.1281  0.0154  0.1198
31346W        W74258  30.825   0.809  26.398 -0.0189  0.1218 -0.1917
31347W        W74259  31.349   2.006  25.037  0.0352 -0.2694 -0.2672
31348W        W74260  31.848   2.776  28.471  0.2177  0.0966 -0.1248
31349W        W74261  30.504   1.478  24.390 -0.2085  0.1305 -0.0865
31350W        W74262  31.255   3.569  26.877  0.0713  0.0713  0.4098
31351W        W74263  28.163   0.161  25.468  0.1548 -0.0360  0.0082
31352W        W74264  30.593   0.346  23.059 -0.0152 -0.0930 -0.0899
31353W        W74265  29.243   3.359  25.362  0.0297 -0.0032 -0.0128
31354W        W74266  31.819   2.222  25.105  0.2313  0.0879 -0.0278
31355W        W74267  30.686   3.579  27.812  0.0077 -0.1340 -0.0930
31356W        W74268  30.009   0.315  26.250 -0.0211  0.1190  0.0809
31357W        W74269  33.034   2.296  24.002 -0.2445  0.0172 -0.1332
31358W        W74270  32.565   1.426  26.147 -0.2087  0.0409  0.1117
31359W        W74271  29.935   4.634  24.010  0.2917 -0.0003  0.1083
31360W        W74272  31.608   2.588  24.148  0.1327  0.2224 -0.0268
31361W        W74273  33.180   3.313  26.565  0.2370 -0.0046  0.1934
31362W        W74274  29.926   2.224  26.330 -0.0484 -0.1702  0.0807
31363W        W74275  32.906   2.676  27.241  0.0216 -0.0041  0.1220
31364W        W74276  32.251   1.817  26.911  0.0080 -0.0596 -0.1165
31365W        W74277  30.804   1.762  26.588 -0.0892 -0.0143 -0.0980
31366W        W74278  29.522   0.707  26.679  0.0225 -0.0797 -0.3590
31367W        W74279  30.110   4.910  25.852 -0.3252 -0.1847 -0.0809
31368W        W74280  32.982   1.623  26.373 -0.0928  0.1403 -0.4958
31369W        W74281  31.100   1.528  25.731 -0.2092 -0.0788 -0.2474
31370W        W74282  29.299   3.724  23.729 -0.0323  0.1298  0.2264
31371W        W74283  32.493   1.159  28.005 -0.0236  0.0338  0.1397
31372W        W74284  32.249   4.700  25.807  0.0624  0.2937  0.1782
31373W        W74285  30.355   3.920  27.639  0.0928 -0.0136  0.1204
31374W        W74286  29.866   1.140  22.568  0.4344  0.2886 -0.0042
31375W        W74287  31.513   3.537  26.374  0.2540  0.0635  0.0366
31376W        W74288  31.640   3.287  24.493 -0.1553  0.1529 -0.0324
31377W        W74289  31.414   5.107  24.531 -0.0513 -0.0875  0.0866
31378W        W74290  32.073   3.737  25.738 -0.1681  0.0079 -0.0098
31379W        W74291  30.412   2.162  26.310  0.0716  0.2268 -0.2338
31380W        W74292  32.471   3.533  26.126 -0.0914  0.2748  0.1714
31381W        W74293  30.536   2.870  25.457  0.1602  0.1538  0.0193
31382W        W74294  32.115   1.836  25.985  0.1589  0.0676 -0.1007
31383W        W74295  31.054   1.550  25.197  0.1296 -0.1323 -0.0157
31384W        W74296  29.926   2.521  28.034  0.1405  0.2452  0.1516
31385W        W74297  30.364   1.986  24.711 -0.0267  0.1811  0.2966
31386W        W74298  30.467   3.339  23.493  0.0118  0.0809 -0.1972
31387W        W74299  29.998   2.700  24.609 -0.0042  0.0229  0.1601
31388W        W74300  32.122  33.741  27.308  0.1137 -0.1081 -0.1080
31389W        W74301  31.020   2.187  26.909 -0.2010  0.1759 -0.2734
31390W        W74302  28.711   1.519  26.023  0.1456 -0.0496 -0.0298
31391W        W74303  29.454   0.899  25.324  0.0323 -0.0356  0.0458
31392W        W74304  33.829   3.147  24.867 -0.0665  0.3654 -0.3424
31393W        W74305  29.479  33.177  24.330 -0.1861  0.0558 -0.0518
31394W        W74306  29.694   0.493  24.924 -0.2329 -0.0656 -0.0246
31395W        W74307  31.368   1.959  23.634  0.2171 -0.2367 -0.1389
31396W        W74308  31.930   3.319  26.077 -0.2048 -0.0899 -0.0277
31397W        W74309  30.800   1.182  24.930  0.1244  0.0958 -0.0887
31398W        W74310  33.665   3.413  26.892  0.0384  0.0171 -0.0230
31399W        W74311  30.474   2.463  25.103 -0.1809  0.0489 -0.1490
31400W        W74312  30.677  33.794  26.986 -0.2285 -0.2778 -0.2814
31401W        W74313  31.035   1.378  27.323  0.2820 -0.1056  0.0853
31402W        W74314  28.502   0.799  22.868 -0.4011  0.1386 -0.1207
31403W        W74315  31.531   1.142  25.359  0.1562  0.0752  0.1359
31404W        W74316  31.385   3.099  24.166 -0.0384  0.1282 -0.1840
31405W        W74317  31.326   4.205  24.019  0.0873 -0.1859  0.0860
31406W        W74318  30.340   3.019  26.323 -0.1744 -0.1589  0.0733
31407W        W74319  31.403   4.068  26.129 -0.3885 -0.0153 -0.4654
31408W        W74320  29.246  33.797  26.704  0.1064 -0.0296  0.1581
31409W        W74321  32.255   2.379  25.200 -0.0967  0.0621 -0.0265
31410W        W74322  31.737   2.363  26.183  0.0831 -0.0223 -0.2720
31411W        W74323  33.219   0.931  25.099  0.2923 -0.1432 -0.3521
31412W        W74324  31.590   0.604  25.115  0.3742 -0.0310 -0.0865
31413W        W74325  31.748   1.030  24.773  0.1989 -0.0031  0.3183
31414W        W74326  30.192  33.309  27.235  0.0957 -0.0141 -0.1192
31415W        W74327  29.863   3.311  25.765 -0.2519 -0.4244 -0.0246
31416W        W74328  31.432   3.099  26.944 -0.0008  0.0381  0.2033
31417W        W74329  30.597   0.276  25.686 -0.2264  0.1625  0.1919
31418W        W74330  31.391   0.557  24.451  0.1424 -0.0593 -0.0381
31419W        W74331  31.740   3.151  25.587  0.1195  0.2473  0.0824
31420W        W74332  29.245   1.746  26.134  0.1705 -0.1383  0.1718
31421W        W74333  29.017   1.917  25.237  0.2035 -0.0240 -0.0373
31422W        W74334  31.900   2.323  26.808  0.2514  0.2900  0.2137
31423W        W74335  28.653   3.628  25.258  0.3027 -0.0450  0.1504
31424W        W74336  30.025   3.221  26.700  0.0295 -0.2031 -0.0057
31425W        W74337  30.631   1.027  24.119 -0.1044 -0.3447  0.1490
31426W        W74338  32.041   1.403  25.179 -0.1340 -0.2409  0.1829
31427W        W74339  32.199   4.166  26.082 -0.1491  0.3446 -0.4853
31428W        W74340  32.629   3.756  27.938 -0.2957 -0.0275 -0.1133
31429W        W74341  29.856   3.806  26.878  0.0512  0.1324 -0.0761
31430W        W74342  32.738   2.480  26.001  0.0493  0.1238  0.0165
31431W        W74343  30.730  34.102  25.269 -0.1646  0.1172 -0.1702
31432W        W74344  30.395   2.953  24.898 -0.0393  0.1013 -0.1846
31433W        W74345  30.044   2.320  25.420 -0.0599  0.0870 -0.2171
31434W        W74346  31.474   2.375  24.589 -0.0945  0.1596 -0.1382
31435W        W74347  30.284   1.662  26.247  0.0865  0.1481 -0.0276
31436W        W74348  31.829   0.842  25.890  0.0779 -0.3650 -0.2237
31437W        W74349  30.920   3.176  27.152  0.0738  0.0921  0.3214
31438W        W74350  31.752   4.060  24.914  0.0471 -0.3389  0.4000
31439W        W74351  30.193   2.854  30.314 -0.1123  0.0452  0.1788
31440W        W74352  31.596   1.008  29.001  0.2473  0.1018  0.0070
31441W        W74353  32.506   1.195  27.507  0.1871 -0.0827 -0.0620
31442W        W74354  32.653   1.712  29.693  0.1073  0.3990 -0.2346
31443W        W74355  30.019   0.850  28.552  0.1087 -0.0462 -0.0914
31444W        W74356  31.287   3.172  29.249 -0.2831  0.0637 -0.3886
31445W        W74357  28.968  34.659  30.368  0.2095  0.0331  0.0882
31446W        W74358  30.227   2.224  30.824 -0.2311  0.1497  0.0538
31447W        W74359  33.005   3.518  30.088 -0.1153 -0.0014  0.0814
31448W        W74360  31.893   2.372  28.147 -0.0784  0.0233 -0.0287
31449W        W74361  30.829   0.613  30.307 -0.3160  0.0068 -0.1106
31450W        W74362  30.366   2.453  29.409  0.3253 -0.2370 -0.0980
31451W        W74363  31.096   0.160  28.842  0.1588 -0.1904  0.1292
31452W        W74364  29.966  34.565  27.818 -0.2279 -0.1800 -0.1887
31453W        W74365  33.288   1.138  29.753 -0.1858 -0.4237 -0.1727
31454W        W74366  29.615   2.328  28.450  0.1241  0.2038  0.1137
31455W        W74367  29.656   0.777  30.130 -0.3153 -0.0664  0.0433
31456W        W74368  30.098   1.261  28.826 -0.1186 -0.0586  0.0792
31457W        W74369  31.557   2.870  28.834  0.4965 -0.1864 -0.0495
31458W        W74370  31.090   0.630  30.735  0.2346 -0.3092  0.1019
31459W        W74371  32.867  33.579  30.577  0.1876  0.1243 -0.0945
31460W        W74372  31.283   2.600  29.336 -0.0258  0.2315 -0.2674
31461W        W74373  30.841   0.947  27.311  0.1907 -0.0968  0.1654
31462W        W74374  29.336   0.883  29.764  0.2718 -0.2511  0.0432
31463W        W74375  30.267   2.408  29.916  0.1093  0.0716 -0.0829
31464W        W74376  33.626   0.680  29.758  0.0096 -0.0364  0.2301
31465W        W74377  33.169   1.818  29.123 -0.0278 -0.2120  0.2480
31466W        W74378  31.141   3.945  30.383  0.1095  0.0292  0.2189
31467W        W74379  31.762   2.961  29.379  0.2418  0.2104 -0.0175
31468W        W74380  31.704   1.036  31.263 -0.1084  0.0473 -0.0606
31469W        W74381  30.652   2.370  28.635 -0.3077  0.0570  0.0175
31470W        W74382  28.747   2.815  29.209  0.0852 -0.4872  0.1677
31471W        W74383  31.714   1.911  28.309  0.0036  0.2467 -0.0349
31472W        W74384  32.541   2.419  28.775  0.1371 -0.0462 -0.0890
31473W        W74385  32.169   3.460  29.491 -0.2068 -0.0832  0.0779
31474W        W74386  29.294   4.925  30.604  0.0252 -0.0023 -0.2667
31475W        W74387  30.339   1.460  27.510  0.2999 -0.2356 -0.3970
31476W        W74388  30.987   3.436  31.258  0.1154 -0.0759 -0.1163
31477W        W74389  29.888   1.877  31.226 -0.1302  0.0230 -0.1960
31478W        W74390  30.828   2.238  30.012 -0.3450  0.1494  0.1068
31479W        W74391  31.697   2.718  29.862 -0.0223  0.2067  0.1105
31480W        W74392  30.425   4.377  27.393  0.0003  0.0376  0.1131
31481W        W74393  29.319   1.434  29.444 -0.1701  0.1593 -0.0856
31482W        W74394  30.422   1.387  30.694  0.1318  0.1479 -0.1328
31483W        W74395  30.298   2.423  27.509  0.0447 -0.0174 -0.0677
31484W        W74396  32.335   2.176  30.471 -0.0698  0.2644 -0.2127
31485W        W74397  30.990   3.336  28.802  0.1302 -0.1231  0.0359
31486W        W74398  32.472   1.225  28.643  0.1308 -0.2086  0.0074
31487W        W74399  32.472   0.622  28.050 -0.0228  0.1969  0.2200
31488W        W74400  33.219   0.387  27.496  0.1255  0.0150 -0.1092
31489W        W74401  30.838  34.462  28.724  0.0366 -0.0086 -0.1645
31490W        W74402  30.065   3.889  28.521  0.2588 -0.0613 -0.1402
31491W        W74403  29.434  34.584  30.176 -0.0495 -0.2315 -0.0407
31492W        W74404  31.759   1.944  31.079  0.0084 -0.2236  0.2632
31493W        W74405  31.021   2.712  30.288 -0.0998 -0.1522 -0.2021
31494W        W74406  32.564   1.866  30.844  0.1489  0.0696  0.2883
31495W        W74407  30.092   3.226  30.628 -0.1220 -0.0928 -0.0919
31496W        W74408  29.681   1.389  29.009  0.1208 -0.0509  0.0675
31497W        W74409  32.903   3.982  28.287  0.1351 -0.1141 -0.1550
31498W        W74410  31.385   3.157  29.780  0.1778  0.2467 -0.1837
31499W        W74411  31.506   2.984  27.597  0.1417 -0.2125 -0.1344
31500W        W74412  28.366   1.489  28.154 -0.1199 -0.2879 -0.0678
31501W        W74413  29.950   0.703  30.666  0.2446 -0.0322  0.2208
31502W        W74414  29.678   0.272  30.211  0.2943 -0.0140  0.0699
31503W        W74415  30.870   0.278  28.340 -0.0681  0.2020 -0.0988
31504W        W74416  32.558   1.346  30.925 -0.2667 -0.0264  0.0299
31505W        W74417  28.928   2.711  31.342  0.0263  0.1511 -0.2061
31506W        W74418  33.400   1.099  28.313  0.0465 -0.4833 -0.0206
31507W        W74419  30.810   2.265  29.506 -0.0647  0.1133 -0.1530
31508W        W74420  32.166   2.570  30.785 -0.0077  0.0612 -0.0860
31509W        W74421  31.616   3.418  27.800  0.2085 -0.3489 -0.1359
31510W        W74422  30.554   1.060  30.072 -0.2234  0.1486 -0.1611
31511W        W74423  31.757   0.298  30.506  0.0056 -0.1592  0.0370
31512W        W74424  31.297   2.017  27.921 -0.0198 -0.0737  0.1970
31513W        W74425  31.263   2.960  28.434  0.3541 -0.0831  0.0826
31514W        W74426  32.194   2.620  31.290  0.2435  0.0679 -0.2366
31515W        W74427  32.112   2.006  26.473 -0.0258  0.1891 -0.1208
31516W        W74428  30.529   2.805  29.989 -0.0599 -0.0144  0.1194
31517W        W74429  30.013   0.195  30.587 -0.1578  0.3815 -0.0245
31518W        W74430  31.526   2.253  31.501 -0.1797  0.0151  0.0094
31519W        W74431  29.851   2.005  28.753 -0.2318  0.2491  0.0887
31520W        W74432  29.634   1.374  29.859 -0.2677 -0.1598  0.0661
31521W        W74433  30.581   2.846  27.852 -0.0255 -0.0045  0.3218
31522W        W74434  28.892  33.688  29.374  0.0050 -0.0592 -0.1628
31523W        W74435  30.079   3.229  29.986  0.3464  0.2857  0.0005
31524W        W74436  32.306   0.160  28.061 -0.1331  0.0964 -0.2558
31525W        W74437  29.642  33.598  29.819  0.3690 -0.1861 -0.2220
31526W        W74438  32.654  34.620  29.088 -0.0383  0.2097  0.2634
31527W        W74439  29.915   1.983  28.211  0.1877  0.0406  0.2173
31528W        W74440  32.096   4.561  28.317  0.3171  0.1876  0.0473
31529W        W74441  32.692   2.082  29.208  0.0394 -0.1097  0.0752
31530W        W74442  32.105   3.553  27.987  0.2757  0.2914 -0.2490
31531W        W74443  29.411   0.903  30.702 -0.0625  0.0038  0.0341
31532W        W74444  30.310   1.834  28.531  0.0026 -0.0474 -0.1719
31533W        W74445  28.670   0.281  30.728  0.2471 -0.1967  0.0105
31534W        W74446  28.659  34.417  29.660 -0.1314 -0.3220  0.1971
31535W        W74447  32.915   2.580   0.320  0.0433 -0.1571 -0.1115
31536W        W74448  29.718   0.423  29.174  0.0752  0.3818  0.4188
31537W        W74449  32.601   0.644  29.341  0.1207  0.0088  0.1581
31538W        W74450  30.306   0.095  29.847  0.0457  0.0381 -0.2303
31539W        W74451  29.199   2.634  29.407  0.1675 -0.1989 -0.2464
31540W        W74452  32.779   0.877  30.978  0.1998  0.0831  0.0856
31541W        W74453  31.693   3.457  29.418  0.0831 -0.1171  0.4056
31542W        W74454  31.314   3.556  30.150 -0.2625 -0.1057 -0.1743
31543W        W74455  30.873   3.202  29.559 -0.1058  0.0395  0.0781
31544W        W74456  29.304   0.077  29.498 -0.0603 -0.2806 -0.2092
31545W        W74457  29.965   1.752  27.758 -0.1990  0.3105  0.0037
31546W        W74458  30.417   2.863  28.801 -0.0620 -0.3233 -0.0146
31547W        W74459  30.256   3.277  28.544  0.1252  0.3849 -0.1123
31548W        W74460  30.309   1.219  29.614 -0.2536  0.0242  0.1060
31549W        W74461  32.729   2.436  30.156 -0.0399 -0.3631 -0.0450
31550W        W74462  31.992   2.266  28.638  0.1859  0.2975  0.0275
31551W        W74463  30.074   1.704  29.139  0.5309  0.3911  0.3497
31552W        W74464  33.140   0.735  30.600 -0.1300  0.1147 -0.0989
31553W        W74465  33.582   1.297  30.767  0.0139 -0.0676 -0.0555
31554W        W74466  32.910  34.679  29.869 -0.0836  0.2866  0.1283
31555W        W74467  30.317   0.606  27.596  0.2869 -0.0367  0.2954
31556W        W74468  30.807   4.148  29.896 -0.0522 -0.0397  0.0493
31557W        W74469  28.454   3.680  26.905  0.0395 -0.1187  0.1669
31558W        W74470  28.593   3.937  28.183  0.0891 -0.0291 -0.0893
31559W        W74471  31.043   1.857  29.615 -0.2221  0.0085 -0.1191
31560W        W74472  32.730   0.832  28.864  0.0658 -0.1454  0.3735
31561W        W74473  28.869   0.869  31.303 -0.0358 -0.1146 -0.2177
31562W        W74474  31.415   1.688  31.652 -0.3966 -0.2640  0.1075
31563W        W74475  30.482   2.094  29.064 -0.0960 -0.1454  0.1811
31564W        W74476  28.617   3.187  30.620 -0.5608  0.0714 -0.0887
31565W        W74477  32.285   0.727  29.772  0.1165 -0.0453 -0.2391
31566W        W74478  32.312   1.109  29.465  0.2102  0.0995  0.2311
31567W        W74479  32.076   0.699  31.137  0.3139  0.1544 -0.3588
31568W        W74480  31.979   1.326  28.670  0.2710  0.1389  0.1095
31569W        W74481  31.638   0.903  28.529 -0.1884 -0.0355 -0.2012
31570W        W74482  31.742   0.127  27.651 -0.3506  0.3079 -0.0913
31571W        W74483  30.677   2.996  30.578 -0.0710 -0.3182 -0.1536
31572W        W74484  30.937   2.571  30.781  0.1323  0.2411 -0.0525
31573W        W74485  29.986   2.387  30.335 -0.2824 -0.4428  0.1522
31574W        W74486  30.775   1.999  28.226  0.1357 -0.0243  0.1207
31575W        W74487  31.910   4.071  28.670 -0.1152  0.0371  0.1050
31576W        W74488  29.120   2.634  28.908 -0.2992 -0.1240 -0.0291
31577W        W74489  30.497   2.382  30.416  0.1982 -0.0852 -0.0579
31578W        W74490  30.736   2.926  31.127 -0.1993 -0.0081  0.2153
31579W        W74491  30.518  33.806  30.869  0.0287 -0.0232 -0.4178
31580W        W74492  30.482   0.304  27.917 -0.1405 -0.2553  0.2620
31581W        W74493  30.714   0.843  29.615  0.1051 -0.3074 -0.2773
31582W        W74494  30.124   3.025  28.054  0.0841 -0.0477  0.0745
31583W        W74495  32.318   0.923  29.009  0.1787 -0.0251 -0.3103
31584W        W74496  32.520   0.443  30.619 -0.1420  0.3803 -0.1150
31585W        W74497  32.365  33.468  30.928  0.0245  0.0274  0.0999
31586W        W74498  32.471   0.904  31.415 -0.1055  0.0376 -0.0745
31587W        W74499  32.541   2.770  29.657 -0.1794  0.1459  0.0322
31588W        W74500  31.669   2.425  29.112  0.1291 -0.0687  0.0677
31589W        W74501  31.797   0.363  27.232 -0.3138  0.2573  0.3555
31590W        W74502  32.717   0.946  30.348 -0.0958  0.0570  0.0708
31591W        W74503  30.091   0.405  29.490 -0.4043 -0.1129  0.0061
31592W        W74504  27.418   3.568  31.512  0.2012 -0.0591 -0.1788
31593W        W74505  31.607   4.073  30.314  0.1809  0.0013  0.0086
31594W        W74506  32.170   1.614  29.562 -0.0857 -0.0581  0.4660
31595W        W74507  32.071   0.718  30.568 -0.1560  0.1306  0.0621
31596W        W74508  30.757   1.802  27.747  0.5438  0.1405 -0.0465
31597W        W74509  30.959   2.683  29.759  0.2826 -0.0755 -0.2443
31598W        W74510  31.313   2.595  27.245 -0.1487 -0.4793  0.1226
31599W        W74511  30.501  34.374  30.217  0.0692 -0.0349 -0.4950
31600W        W74512  30.467   3.421  29.714  0.1898  0.0330  0.0224
31601W        W74513  30.734   1.792  27.150  0.1044  0.3186  0.2026
31602W        W74514  31.787   3.556  31.024 -0.3039  0.0130  0.0208
31603W        W74515  29.501   2.334  29.040  0.3357 -0.0981  0.1888
31604W        W74516  33.356   0.400  28.683 -0.0684  0.1129 -0.4507
31605W        W74517  28.789   3.436  28.338 -0.1193  0.0210 -0.2939
31606W        W74518  30.902   2.399  29.037 -0.1434 -0.3249  0.0646
31607W        W74519  28.951   1.706  28.646 -0.0793 -0.2389  0.1018
31608W        W74520  32.804   0.993  28.343 -0.0600  0.0693 -0.1601
31609W        W74521  32.193   1.972  28.138 -0.0719  0.1026  0.3560
31610W        W74522  30.012   1.150  30.202 -0.1037 -0.0395  0.3701
31611W        W74523  32.285   1.193  30.525  0.0120 -0.1823  0.1330
31612W        W74524  30.086   3.676  29.028 -0.0893 -0.1743 -0.1845
31613W        W74525  32.273   1.883  29.989 -0.2723  0.3383  0.0749
31614W        W74526  32.056   0.629  29.321 -0.1450  0.0615  0.0237
31615W        W74527  32.511   2.220  29.713 -0.0561  0.2477 -0.0657
31616W        W74528  30.641   1.985  31.470 -0.1647 -0.0351  0.2694
31617W        W74529  29.229   2.287  26.202 -0.0353 -0.3024 -0.0951
31618W        W74530  34.273   1.165  31.902  0.2315 -0.1032 -0.0914
31619W        W74531  29.661   0.460  29.722 -0.1961 -0.0365  0.0224
31620W        W74532  29.176   3.102  29.122  0.2570 -0.0876 -0.0283
31621W        W74533  31.137   3.605  29.596 -0.3195  0.1926  0.1374
31622W        W74534  30.860   1.894  28.801  0.0866 -0.0099 -0.0264
31623W        W74535  30.615   3.582  28.486 -0.2868 -0.0106 -0.1627
31624W        W74536  29.857  34.285  30.592  0.0847  0.0240  0.0262
31625W        W74537  33.199   2.310  30.514  0.3886  0.1805  0.1996
31626W        W74538  32.201   0.067  30.491 -0.0907  0.1967  0.0603
31627W        W74539  29.049   0.806  28.937 -0.1585 -0.0632 -0.1211
31628W        W74540  31.303   0.598  28.796  0.2380  0.2338  0.1033
31629W        W74541  30.573   0.412  29.339  0.1752  0.1898 -0.2019
31630W        W74542  32.149   1.624  30.715 -0.0107 -0.2599 -0.2951
31631W        W74543  29.143   2.771  31.772  0.1252 -0.2972 -0.1142
31632W        W74544  30.043  34.032  30.042 -0.2254 -0.0222 -0.0020
31633W        W74545  32.992   2.614  29.577 -0.0706  0.4033 -0.0492
31634W        W74546  30.434   0.067  31.131 -0.1726 -0.0556 -0.1246
31635W        W74547  31.282   2.450  28.672 -0.1830  0.1842  0.1105
31636W        W74548  29.236   2.937  30.416  0.0460 -0.2484  0.2767
31637W        W74549  30.154   2.356  28.665 -0.1088 -0.3453  0.0120
31638W        W74550  31.799   1.270  30.717 -0.2969  0.2099 -0.0682
31639W        W74551  29.709   2.847  30.430  0.3785  0.0547 -0.1534
31640W        W74552  30.524   1.542  28.920 -0.0432  0.2747  0.4561
31641W        W74553  28.714   3.097  28.015  0.1128  0.1494  0.0525
31642W        W74554  34.257   0.560  27.618 -0.2870 -0.1657  0.2610
31643W        W74555  31.508   2.073  27.183  0.1279  0.5214 -0.0113
31644W        W74556  31.093   0.516  29.421  0.1576  0.3218 -0.1453
31645W        W74557  33.881  34.694  29.374 -0.1809 -0.2024 -0.0109
31646W        W74558  31.301   1.757  27.446 -0.0019  0.0861 -0.1512
31647W        W74559  31.282   1.196  31.386  0.1736  0.4554  0.0636
31648W        W74560  31.099   1.000  29.111 -0.1154 -0.1343  0.0224
31649W        W74561  31.073   1.961  31.210  0.0134  0.1153 -0.1598
31650W        W74562  30.309  34.508  30.710 -0.0930  0.0598  0.1114
31651W        W74563  30.254   2.325  31.524  0.2194 -0.0923  0.1347
31652W        W74564  29.728   2.083  30.018  0.0717  0.1017  0.1289
31653W        W74565  33.134  34.177  29.125  0.1384 -0.1131  0.1326
31654W        W74566  30.417   1.047  28.354  0.0300  0.2031 -0.0029
31655W        W74567  30.219   2.912  29.616 -0.1426  0.0032  0.1789
31656W        W74568  33.074   2.043  29.694 -0.0108  0.0507  0.4193
31657W        W74569  31.740   1.991  29.403  0.2539  0.0792  0.1422
31658W        W74570  34.032   2.058  29.580 -0.1477  0.0884 -0.0155
31659W        W74571  29.738   3.159  29.096  0.1342 -0.0382  0.1727
31660W        W74572  31.806   1.685  27.235 -0.0378 -0.0937  0.2046
31661W        W74573  31.132   1.513  27.990 -0.2450 -0.3369  0.0134
31662W        W74574  28.842   2.565  28.011  0.0920 -0.2216  0.2425
31663W        W74575  32.738  34.190  31.120  0.1123  0.0107  0.1544
31664W        W74576  32.048   2.495  29.559  0.1057 -0.0121  0.2814
31665W        W74577  32.997   0.186  29.379 -0.0741 -0.2408 -0.0890
31666W        W74578  31.474   1.736  30.503  0.1491  0.0163 -0.0052
31667W        W74579  32.435   1.786  31.770 -0.0153 -0.1324  0.0913
31668W        W74580  30.748   1.051  30.562  0.1048 -0.2587 -0.1691
31669W        W74581  28.366   0.819  30.725 -0.2149 -0.0010 -0.4878
31670W        W74582  31.776   4.557  31.583  0.1978  0.4071 -0.0519
31671W        W74583  31.494   1.430  28.297 -0.2295 -0.0284  0.2624
31672W        W74584  32.721   1.329  31.641  0.1806  0.1522  0.0292
31673W        W74585  32.942   1.101  29.350 -0.0159 -0.4022 -0.0637
31674W        W74586  31.551   2.356  27.631 -0.3847 -0.0719  0.0971
31675W        W74587  28.416   0.936  29.487 -0.0047  0.0814  0.0657
31676W        W74588  32.155   1.186  31.147  0.3404  0.0004  0.1239
31677W        W74589  31.204   0.618  28.133  0.0566 -0.1815  0.1840
31678W        W74590  32.447  34.264  30.211 -0.0737 -0.0930  0.0427
31679W        W74591  30.848   4.522  28.218  0.0199  0.0482  0.0535
31680W        W74592  31.072   1.668  30.114 -0.0830  0.0793  0.0653
31681W        W74593  31.269   1.901  28.455  0.3061 -0.0321 -0.1188
31682W        W74594  29.216   1.296  28.946 -0.3293 -0.1949  0.1873
31683W        W74595  29.856   2.403   0.440  0.0989 -0.1015  0.1256
31684W        W74596  30.778   1.253  27.716  0.3274  0.0417 -0.0347
31685W        W74597  31.054   1.048  28.263  0.0532  0.0998  0.0410
31686W        W74598  30.610   1.551  30.246 -0.1972 -0.1976 -0.2438
31687W        W74599  33.331   1.555   0.476  0.1697  0.1813 -0.2402
31688W        W74600  31.599   0.150  28.863  0.1591 -0.0465 -0.0880
31689W        W74601  33.434   1.712  31.056 -0.1866 -0.3147  0.0593
31690W        W74602  29.796   1.530  28.502  0.0646 -0.1165 -0.1855
31691W        W74603  32.992  34.233  30.108  0.0107  0.0283  0.2423
31692W        W74604  30.452   3.345  30.255  0.2302  0.1410  0.1971
31693W        W74605  28.959   3.307  31.654 -0.1788  0.1409  0.4284
31694W        W74606  31.030   3.792  28.626 -0.2492 -0.0040 -0.0845
31695W        W74607  31.580   0.244  29.999 -0.0758 -0.3359 -0.1217
31696W        W74608  31.559   0.740  30.287 -0.1165 -0.2388 -0.0512
31697W        W74609  31.718   0.693  29.813 -0.2625 -0.0889  0.0439
31698W        W74610  33.403   1.988  31.790  0.1413 -0.0409 -0.0265
31699W        W74611  30.926   3.157  30.071 -0.1827 -0.1502  0.2770
31700W        W74612  29.971   0.961  29.190 -0.0512  0.0586 -0.0237
31701W        W74613  30.983   3.755  30.880 -0.2927  0.0732 -0.2196
31702W        W74614  33.025   2.164  28.804  0.0702  0.2475  0.2307
31703W        W74615  30.318   3.227  29.161 -0.0747  0.3003 -0.0696
31704W        W74616  28.883   0.790  30.703  0.0457 -0.0353 -0.1011
31705W        W74617  31.783   2.202  30.578  0.0239 -0.1475 -0.1252
31706W        W74618  31.420   2.302  29.689  0.0092  0.0104  0.4572
31707W        W74619  30.107   1.964  29.548 -0.0243  0.2126  0.1581
31708W        W74620  31.957   2.971  27.941 -0.1034 -0.0153 -0.1590
31709W        W74621  29.937   1.435  31.342 -0.3999  0.0411 -0.0509
31710W        W74622  29.520   1.453  30.416 -0.0497 -0.0667 -0.0667
31711W        W74623  29.967   2.830  28.488 -0.0987 -0.0940 -0.0244
31712W        W74624  31.923   1.880  28.918 -0.0869 -0.0460 -0.1441
31713W        W74625  32.119   2.652  28.894  0.0687 -0.0414 -0.0724
31714W        W74626  30.934   3.467  30.478 -0.0538  0.4510  0.0981
31715W        W74627  29.490   0.984  28.673  0.0323  0.1167  0.3164
31716W        W74628  30.708   2.821  29.323  0.0226 -0.1886 -0.0182
31717W        W74629  29.928   4.304  26.941 -0.0768 -0.1205  0.3768
31718W        W74630  32.361   3.415  28.793 -0.0837  0.0558  0.1748
31719W        W74631  31.360   4.768  28.250  0.2614  0.4711  0.0475
31720W        W74632  32.179   5.378   0.219 -0.2651  0.2384 -0.3240
31721W        W74633  33.027   1.352  27.519  0.1001 -0.1223  0.0915
31722W        W74634  34.072   1.982  28.958  0.4656  0.0632 -0.2089
31723W        W74635  33.774  34.375  28.505  0.0028 -0.0999 -0.0013
31724W        W74636  31.162   3.078  30.752  0.2874  0.2773  0.0023
31725W        W74637  29.221   0.413  29.941 -0.1485  0.1886 -0.1236
31726W        W74638  30.881  34.425  28.101  0.2995 -0.2652 -0.0533
31727W        W74639  29.877  34.648  31.015  0.0234 -0.0104  0.1578
31728W        W74640  33.371   0.405  29.174  0.0074 -0.3925  0.0735
31729W        W74641  28.315   2.978  30.090  0.1093 -0.2853 -0.0809
31730W        W74642  32.446   2.928  28.640 -0.1083 -0.0223 -0.4268
31731W        W74643  27.933   0.675  28.066  0.2823 -0.1327 -0.1901
31732W        W74644  32.294   1.440  29.070  0.2228  0.0509  0.2847
31733W        W74645  33.775  34.696  30.342 -0.0544 -0.0517  0.2151
31734W        W74646  31.739   1.818  26.757  0.0808 -0.0633 -0.1462
31735W        W74647  31.944   0.987  30.147 -0.0050 -0.0587 -0.0190
31736W        W74648  31.207   3.732  27.737  0.0159 -0.0579 -0.0636
31737W        W74649  30.998   4.640  31.249  0.1897 -0.1322  0.0048
31738W        W74650  30.844   4.168  31.113 -0.1246 -0.1268 -0.0248
31739W        W74651  29.809   1.367  27.495  0.0375  0.1750  0.1794
31740W        W74652  33.223   0.877  28.718  0.0107 -0.0548  0.0059
31741W        W74653  31.483   1.069  29.577  0.1769 -0.0546 -0.0232
31742W        W74654  33.720   0.654  28.967  0.0940  0.0638  0.3425
31743W        W74655  29.882   1.406  29.452 -0.0557  0.0987 -0.2581
31744W        W74656  32.907   1.367  28.881  0.0804 -0.0909 -0.1544
31745W        W74657  30.894   1.433  30.939  0.1798  0.0956 -0.0220
31746W        W74658  29.256   0.368  30.550  0.0678 -0.0942 -0.0493
31747W        W74659  32.376   0.477  27.151  0.2735  0.0511 -0.1239
31748W        W74660  31.890   1.698  30.180 -0.0300 -0.2138 -0.0922
31749W        W74661  31.591   0.979  28.030 -0.1073  0.0214 -0.0192
31750W        W74662  30.340   3.894  29.874 -0.0984 -0.0455  0.2115
31751W        W74663  29.020   1.034  29.382  0.0031  0.1402 -0.0260
31752W        W74664  32.833   0.473  28.392 -0.2037 -0.0363  0.3349
31753W        W74665  29.018   2.858  28.384  0.0104  0.0191  0.1482
31754W        W74666  30.224   1.983  30.203 -0.0638  0.1788 -0.1538
31755W        W74667  31.356   3.804  31.296 -0.0934 -0.1765 -0.2148
31756W        W74668  28.558   1.728  27.729 -0.1352 -0.1562 -0.0590
31757W        W74669  32.185   3.196  28.327  0.0825 -0.2065  0.2286
31758W        W74670  32.909   1.371  30.102  0.3513 -0.0778 -0.3220
31759W        W74671  29.508   2.884  28.359  0.0825  0.1475  0.3644
31760W        W74672  33.361   1.478  28.783 -0.2556  0.1222  0.2332
31761W        W74673  31.546   2.730  30.643 -0.0036  0.1789  0.2247
31762W        W74674  30.348  34.687  29.362 -0.1809 -0.0066 -0.1978
31763W        W74675  30.657   2.261  31.044  0.2696 -0.1036  0.0763
31764W        W74676  32.688   2.422  30.720 -0.2370  0.0687 -0.1909
31765W        W74677  30.733   1.075  28.723 -0.0739 -0.0414  0.0167
31766W        W74678  30.506   1.632  29.406  0.1262  0.2255  0.1611
31767W        W74679  29.423   2.662  27.925  0.2397 -0.0773 -0.3563
31768W        W74680  33.278   1.665  30.526  0.5971  0.4493  0.4238
31769W        W74681  32.682   0.438  29.929 -0.2546 -0.0529 -0.0605
31770W        W74682  30.195   3.595  27.179 -0.2938  0.0795  0.2615
31771W        W74683  31.880   0.153   0.375  0.2357 -0.1267 -0.1480
31772W        W74684  30.358   2.801  31.608 -0.2627  0.1370 -0.1335
31773W        W74685  29.992   2.078   0.122  0.1000  0.0613 -0.0778
31774W        W74686  30.455   2.700  28.327  0.0229  0.0466 -0.0349
31775W        W74687  31.346   1.503  29.442  0.2683 -0.3384  0.1038
31776W        W74688  31.484   1.306  30.185  0.0919  0.0692  0.4276
31777W        W74689  31.796   3.679  29.018  0.0355 -0.1080 -0.0321
31778W        W74690  31.862   2.189  29.972  0.2091 -0.0207 -0.0513
31779W        W74691  29.954   2.267  29.180 -0.3929 -0.1080  0.1873
31780W        W74692  32.514   2.552  29.220  0.4162 -0.0267 -0.0867
31781W        W74693  30.448   0.888  29.135  0.0867 -0.2043  0.1920
31782W        W74694  33.535  33.046  28.752  0.2453  0.1720 -0.0654
31783W        W74695  31.931   0.599  28.824  0.2497 -0.2761 -0.1866
31784W        W74696  30.110   2.679  30.751 -0.3254  0.1169  0.1034
31785W        W74697  29.553   3.829  27.765 -0.1653  0.0046  0.1180
31786W        W74698  30.280   3.621  28.054 -0.0846  0.3834  0.3154
31787W        W74699  29.515   3.488  29.528  0.1440 -0.2048  0.2255
31788W        W74700  32.176  34.372  31.040 -0.2113 -0.0284  0.1971
31789W        W74701  29.413   2.060  30.996  0.2728  0.1746  0.2162
31790W        W74702  29.625   1.833  29.579 -0.0240 -0.0784 -0.0018
31791W        W74703  31.442   1.703  28.940 -0.0587  0.0129  0.3141
31792W        W74704  32.065   3.043  29.776 -0.1313 -0.0072  0.0273
31793W        W74705  30.075  34.255  29.214  0.1263  0.1753 -0.0287
31794W        W74706  29.200   0.068  28.526 -0.2390  0.1646 -0.2204
31795W        W74707  31.497   1.859  29.857 -0.0334  0.3409  0.0006
31796W        W74708  30.866   3.909  28.152  0.2215  0.3345  0.0818
31797W        W74709  30.928   1.473  29.159 -0.0609 -0.1760  0.1245
31798W        W74710  31.412   4.796   0.550  0.0843 -0.0109  0.0990
31799W        W74711  29.294   1.919  28.372  0.0795  0.1706 -0.0293
31800W        W74712  30.244   1.615   0.250 -0.1598 -0.1068 -0.1154
31801W        W74713  31.905   0.840  31.632  0.1381  0.0016 -0.0663
31802W        W74714  29.082   0.916  28.191  0.1135  0.1455 -0.0967
31803W        W74715  30.918   1.372  29.724  0.0944  0.0536 -0.0241
31804W        W74716  30.669   3.619  29.292  0.0788 -0.0418  0.1304
31805W        W74717  30.440   4.011  27.043 -0.1675  0.1139  0.1392
31806W        W74718  29.840   2.345  29.643  0.1587  0.2749  0.2095
31807W        W74719  32.108   2.116   0.117 -0.0414 -0.0758  0.3209
31808W        W74720  29.930  34.598  30.127 -0.0166  0.0808  0.2747
31809W        W74721  32.130   2.566  30.131  0.1663 -0.0550  0.2541
31810W        W74722  30.664   2.455  31.840 -0.2422  0.2402 -0.2307
31811W        W74723  32.014   3.648  28.525  0.1909  0.3801 -0.0555
31812W        W74724  33.889   0.966  30.054 -0.0592 -0.3842 -0.3174
31813W        W74725  31.744   1.876  27.787 -0.5244  0.2047  0.0628
31814W        W74726  29.852  34.162  31.542 -0.0567  0.0623 -0.3148
31815W        W74727  30.127   1.580  29.934 -0.0044 -0.2924 -0.1629
31816W        W74728  32.489   2.907  30.946  0.0094  0.0802 -0.1703
31817W        W74729  29.907   0.929  29.726 -0.2568 -0.0172  0.1196
31818W        W74730  32.231   2.079  29.315 -0.1282  0.3624  0.1973
31819W        W74731  31.338   2.307  30.215  0.0803 -0.0009 -0.0906
31820W        W74732  30.008   1.771  30.673 -0.2712 -0.1797 -0.2894
31821W        W74733  31.537   0.369  28.404 -0.0844 -0.0378 -0.1844
31822W        W74734  30.718   0.928  31.056 -0.1245 -0.1191 -0.1957
31823W        W74735  30.625   1.860  30.646 -0.1935 -0.3404 -0.1313
31824W        W74736  32.230   2.139  31.110  0.2563 -0.1215  0.2426
31825W        W74737  30.795   1.543  28.389  0.0360 -0.1989  0.3830
31826W        W74738  33.767   1.813  28.528 -0.1942  0.1020 -0.0420
31827W        W74739  31.588   4.558  30.096  0.1198  0.0360  0.0583
31828W        W74740  32.040   3.853  31.860 -0.0676  0.0579  0.4222
31829W        W74741  29.649   2.866  30.917 -0.3448  0.2720 -0.2923
31830W        W74742  33.234   2.270  29.242  0.1608 -0.1168 -0.0766
31831W        W74743  30.218   0.439  28.991  0.1964 -0.1424  0.2318
31832W        W74744  28.684   0.648  28.522 -0.0735 -0.4117 -0.1276
31833W        W74745  32.054   0.492  30.144  0.0936 -0.0867  0.1886
31834W        W74746  32.394   1.313  30.027  0.1002  0.3162  0.3492
31835W        W74747  31.032   1.101  30.128 -0.1427  0.0925 -0.0031
31836W        W74748  31.183   2.058  29.222 -0.4154 -0.0063 -0.2827
31837W        W74749  29.889   3.759  30.052 -0.1725 -0.2661 -0.0702
31838W        W74750  30.590   1.867  29.834 -0.1813  0.2064 -0.1602
31839W        W74751  31.422   0.737  31.727 -0.3216 -0.1371 -0.3348
31840W        W74752  31.329   2.752  31.188  0.0899 -0.4451 -0.2448
31841W        W74753  30.079   0.415  31.062  0.1032  0.2755 -0.0733
31842W        W74754  29.116   2.596   0.281  0.2665  0.4124 -0.1183
31843W        W74755  31.078   2.101  31.766  0.0501  0.1419  0.0781
31844W        W74756  30.588   1.184   0.066 -0.3192 -0.0624  0.1442
31845W        W74757  32.438   2.253  31.551 -0.1655  0.1377  0.1097
31846W        W74758  30.970   0.843   0.107  0.5523  0.0059 -0.1007
31847W        W74759  32.653   0.018  31.820 -0.2038  0.1875 -0.1585
31848W        W74760  31.854   3.007  31.933  0.0298  0.0531 -0.0024
31849W        W74761  31.470   3.244  31.189  0.1295 -0.0966  0.2432
31850W        W74762  29.894   0.341   1.365 -0.3835  0.2180 -0.0078
31851W        W74763  32.017   1.961  31.527 -0.3311  0.0575  0.1173
31852W        W74764  30.332   2.634  31.154 -0.1609  0.0725 -0.0962
31853W        W74765  31.845   0.046  31.592  0.2471 -0.1693 -0.1098
31854W        W74766  29.149   4.345  30.558 -0.1159  0.1087 -0.0612
31855W        W74767  29.102   2.240  30.141 -0.1047  0.2121  0.1674
31856W        W74768  31.776   2.863  31.474  0.0276 -0.0859 -0.1460
31857W        W74769  29.175   0.869   0.827 -0.0667 -0.1267 -0.1118
31858W        W74770  29.557   1.880   0.456  0.0960  0.1511 -0.0825
31859W        W74771  29.728   0.936  31.903 -0.2764 -0.0329 -0.0865
31860W        W74772  28.751   2.624  30.214  0.1120 -0.3674 -0.2407
31861W        W74773  33.234   0.693  31.188 -0.0390  0.1709 -0.0943
31862W        W74774  32.313   0.831  31.891 -0.1682 -0.1727 -0.0549
31863W        W74775  31.021   0.436  31.833 -0.1177  0.1711  0.1687
31864W        W74776  31.311   1.124  30.832  0.1200  0.1635 -0.2528
31865W        W74777  30.244   0.974  31.216 -0.0601 -0.1682 -0.2982
31866W        W74778  29.701   4.654  30.522 -0.0217  0.0754  0.0272
31867W        W74779  29.175   0.288  31.706  0.1301  0.1239  0.0856
31868W        W74780  29.850   2.382  31.150  0.1443 -0.4372 -0.1378
31869W        W74781  30.591   3.781   0.080 -0.0243  0.3784  0.1045
31870W        W74782  31.212   0.741  31.198 -0.0496 -0.2225 -0.0080
31871W        W74783  30.488   3.291  31.370  0.0254 -0.0647 -0.1615
31872W        W74784  33.390   1.079  30.238  0.2377  0.0633 -0.4447
31873W        W74785  28.871   1.661  31.058  0.0611 -0.2208 -0.2462
31874W        W74786  30.074   3.091   0.338 -0.0689 -0.0904 -0.0996
31875W        W74787  29.973   1.338  31.836  0.3997 -0.0676  0.0545
31876W        W74788  31.361   2.204  30.876 -0.0740 -0.0574  0.0501
31877W        W74789  31.594   1.189  31.787 -0.2566 -0.0257 -0.5712
31878W        W74790  32.870   2.162   0.007 -0.0140 -0.0579  0.2021
31879W        W74791  33.339   0.237  31.358  0.1756 -0.2758 -0.0928
31880W        W74792  31.750   2.469  31.083  0.1106  0.1840  0.0764
31881W        W74793  29.802  34.482  31.949 -0.1693  0.1442  0.2248
31882W        W74794  32.432   1.390   0.662  0.1646 -0.1448 -0.0401
31883W        W74795  29.011  34.421  31.885  0.2835  0.2483  0.0913
31884W        W74796  30.552   1.365   0.627  0.2695 -0.0211  0.0350
31885W        W74797  31.847  33.554   0.981  0.0290  0.2875  0.1849
31886W        W74798  32.334   1.686  31.239 -0.0393 -0.3140 -0.0461
31887W        W74799  32.454   2.874  30.443  0.1319  0.1675  0.1298
31888W        W74800  28.359   3.298  31.826 -0.1044 -0.1775 -0.2714
31889W        W74801  32.075   1.921   0.632 -0.1398 -0.0468 -0.0188
31890W        W74802  32.418  34.685  30.041 -0.1080  0.1729  0.3637
31891W        W74803  29.672   0.141  31.639  0.0295 -0.4443  0.1808
31892W        W74804  31.045   2.860   0.164  0.0484 -0.0140 -0.2129
31893W        W74805  30.519   0.510  30.851  0.0197  0.1010  0.0138
31894W        W74806  31.641   0.730  30.819  0.1392  0.1450 -0.1081
31895W        W74807  32.842   2.630  31.753 -0.0917  0.2038 -0.4326
31896W        W74808  28.981   4.830  30.182 -0.1573  0.0643  0.1529
31897W        W74809  29.583   4.230  30.891 -0.2039 -0.0504  0.0990
31898W        W74810  30.373   0.785  30.455  0.1954 -0.3592  0.0101
31899W        W74811  29.521   1.551  30.919 -0.1799  0.0002 -0.5615
31900W        W74812  29.765   0.883  31.094  0.0637  0.0292 -0.1956
31901W        W74813  28.868   1.730  30.243  0.0481 -0.3450 -0.1789
31902W        W74814  28.994   0.384  31.101  0.2931 -0.2080  0.2159
31903W        W74815  31.385   3.560  30.676 -0.0896 -0.1504 -0.0437
31904W        W74816  32.659   3.015   0.122  0.0473 -0.0485 -0.2101
31905W        W74817  33.375   2.483   1.327  0.0901  0.2240 -0.0591
31906W        W74818  29.471   5.560  18.229 -0.1861  0.2101 -0.0876
31907W        W74819  30.166   4.239  17.219  0.2176  0.3382  0.1975
31908W        W74820  31.106   4.493  16.007  0.2325 -0.2652 -0.1506
31909W        W74821  33.300   4.852  16.531  0.0130 -0.0653 -0.2751
31910W        W74822  31.281   5.234  17.927  0.0328  0.0513 -0.1256
31911W        W74823  31.218   6.762  18.035  0.0011 -0.3023 -0.0266
31912W        W74824  29.717   4.916  18.741  0.0264 -0.3240 -0.0255
31913W        W74825  31.687   6.615  19.810  0.5283 -0.2393 -0.0382
31914W        W74826  31.197   7.657  18.792 -0.1821 -0.0251 -0.0869
31915W        W74827  31.187   6.318  16.775 -0.1539  0.0249  0.0760
31916W        W74828  30.412   4.372  19.335  0.3088 -0.1666  0.3439
31917W        W74829  31.302   5.819  18.981  0.0605  0.1315 -0.2554
31918W        W74830  30.868   4.079  16.498 -0.0748  0.0437 -0.1445
31919W        W74831  28.993   4.015  18.890  0.3899 -0.1311  0.2230
31920W        W74832  32.307   5.700  18.484  0.3589 -0.0272 -0.1359
31921W        W74833  29.683   5.299  17.080  0.3482  0.1104  0.0123
31922W        W74834  29.260   4.655  19.539  0.2583  0.1451  0.0386
31923W        W74835  30.206   4.462  18.313 -0.3450 -0.0428 -0.0837
31924W        W74836  31.696   7.481  18.664 -0.0389  0.1467  0.0916
31925W        W74837  30.076   4.933  20.897  0.6512 -0.1221 -0.1452
31926W        W74838  30.864   4.601  19.405  0.2516  0.1172  0.1193
31927W        W74839  30.558   6.559  17.492 -0.3360 -0.0756 -0.0804
31928W        W74840  29.041   5.497  15.873 -0.1296  0.1356  0.0509
31929W        W74841  28.501   5.519  18.867  0.0329 -0.3519 -0.0999
31930W        W74842  29.760   5.332  20.454  0.0079  0.0308  0.0776
31931W        W74843  31.681   5.072  18.162  0.1112  0.0185 -0.0518
31932W        W74844  31.970   6.815  17.381  0.1848  0.1765  0.0658
31933W        W74845  30.651   7.013  17.306  0.0770  0.1200  0.0796
31934W        W74846  29.943   7.707  18.648  0.2887 -0.2191 -0.2462
31935W        W74847  30.592   4.884  20.862 -0.0066 -0.1262 -0.1050
31936W        W74848  28.105   5.936  18.781 -0.1790  0.3862  0.2637
31937W        W74849  28.552   8.123  17.606 -0.0813  0.0937  0.0979
31938W        W74850  31.214   6.218  18.089 -0.2262  0.1230 -0.1439
31939W        W74851  32.160   6.431  16.975 -0.3107  0.0219 -0.1667
31940W        W74852  32.480   6.631  18.875 -0.0075 -0.0344  0.0474
31941W        W74853  29.734   8.074  18.904 -0.0393  0.0965  0.0194
31942W        W74854  29.872   6.380  16.146 -0.1082 -0.1259 -0.0061
31943W        W74855  30.671   7.883  18.866 -0.2817 -0.1364  0.0321
31944W        W74856  29.982   6.276  19.598  0.1922 -0.3135  0.2043
31945W        W74857  30.904   4.418  20.847 -0.1532  0.0001  0.0629
31946W        W74858  31.851   6.176  18.138 -0.2562 -0.1042  0.0380
31947W        W74859  30.444   6.935  15.830  0.0060  0.0350 -0.1624
31948W        W74860  29.829   5.362  16.574  0.2877  0.0582 -0.0532
31949W        W74861  31.519   6.350  20.238  0.3804 -0.3425 -0.1495
31950W        W74862  29.202   6.446  17.911 -0.1222  0.2137  0.3592
31951W        W74863  31.883   5.524  21.028  0.2220  0.1083 -0.2422
31952W        W74864  30.359   6.793  18.473 -0.0580  0.0065  0.2446
31953W        W74865  32.634   4.660  16.612 -0.2528  0.0400  0.3058
31954W        W74866  30.645   4.523  16.257  0.0731 -0.0859 -0.0617
31955W        W74867  32.324   4.958  16.201  0.0372  0.0844  0.0606
31956W        W74868  30.222   3.723  18.031 -0.1543 -0.1714 -0.0115
31957W        W74869  29.879   7.038  17.300  0.3168  0.0123 -0.2090
31958W        W74870  30.683   3.366  19.394 -0.0356 -0.3979  0.2352
31959W        W74871  31.280   5.976  19.515 -0.0014  0.2059 -0.3140
31960W        W74872  30.464   6.209  16.716 -0.2852 -0.2114 -0.0900
31961W        W74873  31.120   4.147  18.868 -0.0851 -0.0396 -0.1586
31962W        W74874  29.958   6.921  18.871 -0.1082 -0.2710 -0.1095
31963W        W74875  29.740   4.569  17.989  0.1334 -0.3555  0.2753
31964W        W74876  31.543   7.240  16.556  0.4552  0.1024  0.1975
31965W        W74877  31.870   6.012  17.180 -0.3817  0.2302  0.0017
31966W        W74878  31.144   5.789  15.693 -0.3143  0.0250  0.3219
31967W        W74879  29.753   6.001  16.893 -0.1138  0.0506 -0.1107
31968W        W74880  30.105   5.353  18.393 -0.3118  0.3200  0.0633
31969W        W74881  28.895   5.785  19.815  0.2009  0.0264 -0.0336
31970W        W74882  29.830   3.083  16.313  0.0978 -0.0868 -0.0083
31971W        W74883  33.360   6.353  18.675  0.2019 -0.0721  0.0843
31972W        W74884  27.719   7.751  20.447  0.0838 -0.1758 -0.0062
31973W        W74885  33.070   4.089  17.378 -0.1335  0.0719 -0.0899
31974W        W74886  29.620   6.086  18.298 -0.1862 -0.0119  0.3194
31975W        W74887  32.308   7.399  18.978 -0.0216 -0.2415 -0.1222
31976W        W74888  31.396   6.369  16.327 -0.1140  0.2543  0.2115
31977W        W74889  31.023   3.537  18.892  0.0251 -0.0914  0.0669
31978W        W74890  31.912   3.238  18.931 -0.0030 -0.1651 -0.0858
31979W        W74891  30.737   5.968  15.988 -0.0813 -0.1534  0.2590
31980W        W74892  31.486   5.732  17.992 -0.0234 -0.0801  0.2362
31981W        W74893  32.663   6.409  19.291  0.1909 -0.0403  0.1116
31982W        W74894  33.121   4.625  18.256 -0.1712 -0.1747  0.0716
31983W        W74895  29.148   5.155  19.391  0.0226  0.1143  0.0736
31984W        W74896  30.563   4.038  21.012 -0.0114 -0.0129  0.1384
31985W        W74897  29.334   6.584  19.978  0.1027 -0.2725  0.3118
31986W        W74898  29.715   7.499  16.801 -0.0219  0.1434 -0.1605
31987W        W74899  29.478   7.021  19.157  0.1142 -0.4273  0.0384
31988W        W74900  29.460   6.619  17.482  0.0315 -0.3128 -0.1771
31989W        W74901  28.826   3.513  19.084  0.0945 -0.1084  0.2507
31990W        W74902  30.035   5.143  19.960  0.0970 -0.2051 -0.0310
31991W        W74903  32.390   4.147  16.546  0.0442 -0.4204 -0.0369
31992W        W74904  29.096   2.996  19.823 -0.2050  0.3113  0.0687
31993W        W74905  31.434   4.115  17.364 -0.3972 -0.1183  0.2839
31994W        W74906  29.274   6.083  17.064  0.0831 -0.0626  0.2819
31995W        W74907  31.971   7.514  16.260 -0.0203 -0.1723 -0.1559
31996W        W74908  32.464   3.673  16.483  0.0144  0.1750 -0.1896
31997W        W74909  30.264   7.573  16.797 -0.1809 -0.0350  0.0731
31998W        W74910  30.117   5.586  20.214 -0.0149 -0.2586  0.2335
31999W        W74911  30.581   4.309  18.810 -0.2958  0.2805  0.1085
32000W        W74912  29.824   4.678  20.052 -0.3696  0.0782  0.2434
32001W        W74913  29.086   4.194  17.677 -0.5157 -0.0988 -0.1008
32002W        W74914  33.071   5.550  20.073 -0.1906  0.0521 -0.2253
32003W        W74915  29.670   5.073  18.238  0.2199  0.1118  0.3001
32004W        W74916  33.694   5.183  17.985 -0.1130 -0.1820 -0.2942
32005W        W74917  30.316   5.340  16.805  0.1214  0.0820 -0.2271
32006W        W74918  28.673   5.989  16.744  0.1887 -0.4216  0.0468
32007W        W74919  32.874   4.613  19.190  0.1228  0.0174  0.3012
32008W        W74920  30.438   7.110  16.771 -0.1827  0.0186 -0.0419
32009W        W74921   0.036   6.521  19.381 -0.0106 -0.0520 -0.1874
32010W        W74922  30.304   6.613  17.062 -0.1784 -0.1830 -0.0185
32011W        W74923  29.480   5.842  20.861 -0.2869 -0.1067 -0.1578
32012W        W74924  31.124   5.020  17.333  0.1427 -0.0608 -0.1891
32013W        W74925  30.522   6.713  17.997 -0.3735  0.0417 -0.0805
32014W        W74926  30.564   4.963  19.534  0.1103  0.2647  0.1014
32015W        W74927  30.696   5.210  18.243 -0.1016 -0.2886  0.1301
32016W        W74928  31.034   6.430  17.674 -0.0679  0.1572  0.0547
32017W        W74929  30.935   5.647  17.293 -0.0485 -0.1700 -0.0534
32018W        W74930  30.046   5.270  18.897  0.1667 -0.0404 -0.3640
32019W        W74931  31.602   3.326  18.548 -0.0652 -0.0824  0.1843
32020W        W74932  31.990   5.267  19.712  0.0716  0.1538 -0.0315
32021W        W74933  32.553   6.431  17.859  0.2425 -0.0754  0.0484
32022W        W74934  29.020   4.720  16.776 -0.0868 -0.0741  0.0614
32023W        W74935  32.144   6.835  17.972 -0.0783 -0.0403  0.3697
32024W        W74936  29.330   6.585  16.902  0.0271  0.0803  0.0453
32025W        W74937  28.455   5.486  17.584 -0.1129 -0.2196 -0.1765
32026W        W74938  31.142   6.264  18.860 -0.0076  0.1318  0.2508
32027W        W74939  32.091   4.542  17.780 -0.0444  0.0287 -0.1579
32028W        W74940  27.227   5.493  20.518  0.1505  0.4436  0.1055
32029W        W74941  31.888   5.533  18.278 -0.0089  0.2008 -0.0646
32030W        W74942  30.111   4.788  16.643  0.2520 -0.0042  0.0628
32031W        W74943  30.208   5.961  19.909  0.0250 -0.2994  0.1875
32032W        W74944  30.792   4.244  17.072  0.1416  0.2427  0.0956
32033W        W74945  30.782   5.181  17.036  0.4325  0.1903 -0.2917
32034W        W74946  31.589   5.862  20.036  0.0885 -0.0273  0.0019
32035W        W74947  31.695   5.204  16.675 -0.1818  0.1832 -0.1928
32036W        W74948  32.163   5.348  16.525 -0.0508  0.1917  0.1995
32037W        W74949  30.839   5.192  17.693  0.1833 -0.0227 -0.1894
32038W        W74950  28.712   7.920  20.936 -0.1644  0.2420  0.2090
32039W        W74951  31.486   5.863  16.790 -0.0301 -0.0545  0.0165
32040W        W74952  30.900   5.157  19.155 -0.0623 -0.2302 -0.1727
32041W        W74953  31.188   4.971  16.789  0.2344  0.1293 -0.1042
32042W        W74954  32.591   7.460  17.059  0.0165  0.3298  0.3289
32043W        W74955  28.827   6.708  18.306  0.4126  0.2170 -0.0421
32044W        W74956  31.151   7.561  19.430  0.0350  0.2036 -0.0354
32045W        W74957  31.710   6.343  16.725  0.0525  0.2174  0.1008
32046W        W74958  31.031   3.643  20.368 -0.2457 -0.0610 -0.1266
32047W        W74959  30.644   4.620  17.358  0.3805 -0.1712  0.0769
32048W        W74960  32.797   3.530  18.433 -0.0223  0.2878 -0.0726
32049W        W74961  29.463   7.098  17.012  0.3998  0.1595  0.0021
32050W        W74962  32.275   3.039  19.545  0.2864  0.0771  0.1060
32051W        W74963  31.099   4.541  20.313 -0.2082  0.1508  0.3998
32052W        W74964  30.620   5.093  20.074  0.1184 -0.0201  0.0299
32053W        W74965  31.314   5.373  19.390 -0.1646 -0.3063  0.0743
32054W        W74966  30.626   4.107  17.506  0.0994 -0.1925  0.1580
32055W        W74967  31.442   4.836  19.299  0.1821  0.0316 -0.2102
32056W        W74968  30.140   4.772  19.156 -0.0550  0.3119 -0.2281
32057W        W74969  31.403   4.068  20.254  0.0322  0.1611  0.0159
32058W        W74970  30.424   5.400  19.206 -0.1432 -0.3259 -0.2217
32059W        W74971  29.555   5.214  19.693  0.1500  0.2710  0.1397
32060W        W74972  32.970   6.202  19.646  0.0443 -0.1116  0.3228
32061W        W74973  31.005   5.633  18.093  0.0869  0.4102  0.2112
32062W        W74974  31.915   4.795  19.541  0.1506 -0.2925  0.1852
32063W        W74975  31.821   5.396  17.781 -0.1121 -0.0467  0.1186
32064W        W74976  30.249   6.163  17.176 -0.1297  0.2875  0.3248
32065W        W74977  30.858   6.642  15.883  0.3933  0.0460 -0.0036
32066W        W74978  31.143   3.545  18.231  0.0654  0.1179  0.1060
32067W        W74979  31.466   7.007  19.357 -0.1519  0.2415  0.0340
32068W        W74980  29.746   6.728  16.490  0.0474  0.1167 -0.0640
32069W        W74981  32.925   5.137  19.129  0.1462 -0.2409  0.0078
32070W        W74982  29.005   8.287  17.790 -0.0342  0.4713 -0.0456
32071W        W74983  33.038   4.787  18.777 -0.1318 -0.2051  0.3639
32072W        W74984  29.839   7.397  18.262  0.3866 -0.1064 -0.2922
32073W        W74985  29.363   5.472  17.716  0.2027  0.2276  0.0259
32074W        W74986  29.694   5.044  16.235 -0.6477  0.0534  0.1707
32075W        W74987  32.512   4.007  16.070  0.0810 -0.1754  0.3350
32076W        W74988  32.275   6.124  15.944  0.2093 -0.3576  0.2010
32077W        W74989  28.803   4.791  18.628 -0.0106 -0.0055 -0.4104
32078W        W74990  31.999   5.976  18.822 -0.1802 -0.1407 -0.0991
32079W        W74991  29.036   6.244  18.422 -0.0083  0.1376  0.2475
32080W        W74992  31.678   5.505  18.774  0.0712  0.0888 -0.2270
32081W        W74993  32.516   4.403  18.571  0.0617 -0.1197 -0.0638
32082W        W74994  31.006   6.683  20.290 -0.1098 -0.0264  0.0261
32083W        W74995  30.897   5.639  19.393 -0.1375 -0.0617  0.0130
32084W        W74996  30.398   5.014  17.630  0.1348 -0.1425 -0.1721
32085W        W74997  32.232   5.653  17.988  0.0390  0.1257 -0.0271
32086W        W74998  29.330   3.292  18.253  0.0040  0.1417  0.2967
32087W        W74999  29.229   6.966  17.875  0.0569 -0.0910 -0.0422
32088W        W75000  30.736   6.030  19.099  0.0088  0.1090  0.4320
32089W        W75001  30.582   5.862  17.532 -0.3483  0.1707  0.1643
32090W        W75002  29.543   5.361  18.737  0.0994 -0.0883  0.0594
32091W        W75003  29.725   4.644  20.512  0.0527  0.0377 -0.4391
32092W        W75004  33.252   5.581  19.176 -0.2063 -0.3207  0.0482
32093W        W75005  30.537   5.196  18.715 -0.0495  0.0804  0.1173
32094W        W75006  30.346   5.436  17.385 -0.3410  0.2772 -0.0464
32095W        W75007  32.019   3.994  17.815  0.3112 -0.0555 -0.2889
32096W        W75008  30.822   6.735  16.746  0.2288  0.2014  0.1017
32097W        W75009  31.192   4.671  18.902  0.0742 -0.0013  0.0230
32098W        W75010  29.001   6.333  20.287  0.0145  0.3398 -0.1213
32099W        W75011  31.119   3.392  17.590 -0.0893  0.0206  0.0797
32100W        W75012  30.849   7.485  17.263  0.0675  0.0276 -0.0291
32101W        W75013  32.102   4.719  18.455  0.0177  0.1923  0.0088
32102W        W75014  29.677   6.203  17.371 -0.2005 -0.1717 -0.2766
32103W        W75015  29.497   4.067  18.812 -0.0845  0.2377  0.0605
32104W        W75016  30.629   5.858  16.459  0.0769 -0.0324 -0.0389
32105W        W75017  31.319   4.380  19.291  0.0893  0.0064  0.0979
32106W        W75018  28.735   5.774  18.384 -0.2645 -0.0963  0.1556
32107W        W75019  30.045   5.859  17.570  0.2836 -0.1648  0.1392
32108W        W75020  28.358   5.462  19.336  0.1743 -0.0388 -0.0816
32109W        W75021  31.642   3.748  16.236  0.0372 -0.0894  0.3049
32110W        W75022  30.998   5.884  16.821 -0.2971 -0.0003  0.0395
32111W        W75023  31.677   4.457  20.315 -0.1445  0.1006  0.0048
32112W        W75024  33.878   4.057  18.368 -0.0927 -0.2452  0.0360
32113W        W75025  33.239   6.595  15.894  0.2737 -0.0315  0.2088
32114W        W75026  32.067   4.259  18.783 -0.0885 -0.0491 -0.0814
32115W        W75027  31.106   5.912  20.310 -0.1830 -0.2233 -0.0679
32116W        W75028  31.282   6.100  17.223 -0.1179  0.0918 -0.2155
32117W        W75029  28.846   4.922  18.153 -0.0998  0.1833 -0.0888
32118W        W75030  30.807   7.591  20.049  0.2186 -0.1007  0.3742
32119W        W75031  30.326   5.867  19.461 -0.2825  0.0054  0.0438
32120W        W75032  31.269   5.415  16.929  0.0288 -0.0923 -0.0760
32121W        W75033  30.234   4.008  16.353 -0.2455  0.0515  0.2738
32122W        W75034  30.751   3.990  19.465 -0.0790  0.3356 -0.1330
32123W        W75035  32.183   6.275  19.160  0.2613 -0.0170  0.1577
32124W        W75036  30.799   6.180  17.220  0.0394 -0.0739  0.1308
32125W        W75037  32.716   5.987  16.106 -0.0805 -0.1580  0.1545
32126W        W75038  31.087   5.684  19.895 -0.4008  0.2836  0.3455
32127W        W75039  31.864   5.886  17.695 -0.0735  0.0564  0.1508
32128W        W75040  32.035   5.523  16.999  0.0301  0.1807 -0.0944
32129W        W75041  30.021   5.337  19.500 -0.2085 -0.2151 -0.1358
32130W        W75042  28.873   3.592  20.059  0.1546 -0.1340  0.1982
32131W        W75043  31.867   6.645  19.212 -0.0849  0.1743 -0.2315
32132W        W75044  32.650   4.316  17.577  0.0043 -0.2390  0.0462
32133W        W75045  30.553   3.435  18.851  0.0462 -0.2125 -0.1678
32134W        W75046  31.595   3.651  19.028 -0.1892  0.2727 -0.0794
32135W        W75047  31.209   4.997  20.087 -0.0200 -0.0944 -0.2655
32136W        W75048  29.044   3.296  20.815  0.2489  0.1664 -0.0806
32137W        W75049  32.260   7.006  18.561  0.1520  0.2704  0.1875
32138W        W75050  31.800   3.262  16.147 -0.1833  0.0554 -0.0032
32139W        W75051  33.222   5.744  17.450  0.0412  0.0874  0.3429
32140W        W75052  32.064   4.772  16.613 -0.0509  0.0508 -0.0963
32141W        W75053  30.929   5.500  16.107  0.5382  0.3144  0.2072
32142W        W75054  28.743   4.782  19.367  0.1677 -0.2683  0.1126
32143W        W75055  30.958   4.411  18.480 -0.1530 -0.3390  0.0553
32144W        W75056  28.790   4.438  16.404  0.2509 -0.2153 -0.0849
32145W        W75057  32.085   5.791  20.126  0.0590 -0.0465 -0.2061
32146W        W75058  30.373   6.619  16.484 -0.0398 -0.0615  0.0529
32147W        W75059  31.518   6.218  17.601  0.2359  0.0918  0.0491
32148W        W75060  31.790   3.881  17.069  0.0552  0.1159  0.0637
32149W        W75061  30.820   3.876  18.518 -0.0341 -0.0233 -0.0572
32150W        W75062  30.118   5.848  18.066 -0.0081 -0.4326  0.0542
32151W        W75063  29.087   4.140  16.049 -0.2148 -0.1517 -0.0656
32152W        W75064  31.622   4.744  17.720  0.0179 -0.3042  0.0430
32153W        W75065  31.549   5.888  18.448  0.2471  0.0826  0.0655
32154W        W75066  32.402   5.009  19.915  0.1241  0.0068  0.0676
32155W        W75067  29.857   3.942  15.916  0.1844  0.1245  0.1996
32156W        W75068  32.708   4.297  19.542  0.2319 -0.0706 -0.1356
32157W        W75069  29.680   8.005  17.561 -0.0771 -0.1965  0.1561
32158W        W75070  30.615   4.780  18.979 -0.1113  0.0530 -0.0284
32159W        W75071  29.922   5.726  18.583  0.1052 -0.1046  0.1231
32160W        W75072  30.056   4.427  18.842 -0.0966  0.4922 -0.1195
32161W        W75073  28.977   6.395  17.406 -0.1125 -0.4060 -0.0612
32162W        W75074  31.227   3.875  19.277  0.1298 -0.1882 -0.0569
32163W        W75075  31.721   4.614  17.147  0.0639 -0.2478 -0.0864
32164W        W75076  30.370   5.779  18.887 -0.1728 -0.0695 -0.2376
32165W        W75077  32.895   5.815  18.795 -0.0162 -0.2530 -0.2387
32166W        W75078  31.479   6.731  20.514  0.2091 -0.1349  0.0848
32167W        W75079  29.651   5.129  19.188 -0.0721  0.1375  0.2272
32168W        W75080  30.206   7.434  19.090 -0.0498 -0.0491 -0.0453
32169W        W75081  33.097   5.512  16.949  0.1269  0.3291 -0.1746
32170W        W75082  30.855   6.586  18.325 -0.2564  0.1314  0.3621
32171W        W75083  28.972   4.479  19.087 -0.1731 -0.3568  0.0498
32172W        W75084  30.818   6.278  20.691 -0.0957  0.1921  0.0960
32173W        W75085  32.363   6.019  17.646  0.0175  0.0103 -0.1025
32174W        W75086  30.656   4.172  18.079  0.1783 -0.1098 -0.2691
32175W        W75087  30.731   6.946  16.292 -0.3540  0.0776 -0.2131
32176W        W75088  28.437   6.435  21.010 -0.2177  0.0344 -0.0591
32177W        W75089  27.562   3.578  19.022 -0.0753 -0.1186 -0.3239
32178W        W75090  30.197   7.301  18.610 -0.0727 -0.2517  0.1906
32179W        W75091  31.100   7.300  16.328  0.0094 -0.0998  0.2487
32180W        W75092  31.733   5.186  17.217 -0.0258 -0.0609  0.2715
32181W        W75093  31.091   7.510  17.682 -0.3344 -0.0315  0.1630
32182W        W75094  30.809   5.404  16.555  0.1004 -0.6203 -0.1607
32183W        W75095  28.738   6.758  17.778  0.0334  0.0641  0.2226
32184W        W75096  30.137   5.838  16.593  0.2368  0.0119 -0.4527
32185W        W75097  31.594   8.135  16.956 -0.0421 -0.0772 -0.1809
32186W        W75098  30.009   6.571  17.497  0.0850  0.1368  0.1185
32187W        W75099  31.917   7.018  19.689  0.0881  0.0347 -0.0413
32188W        W75100  32.085   4.223  17.331 -0.0753 -0.1763 -0.0205
32189W        W75101  32.724   5.451  16.154 -0.0934  0.1257 -0.1063
32190W        W75102  32.546   5.123  17.434  0.0347  0.1468 -0.1727
32191W        W75103  30.264   7.820  21.321 -0.0302  0.0435  0.0745
32192W        W75104  32.537   4.961  18.667 -0.1387 -0.0447 -0.1711
32193W        W75105  30.141   4.997  18.099 -0.2146 -0.2710  0.4548
32194W        W75106  30.490   5.801  20.695  0.0726  0.0359 -0.1324
32195W        W75107  34.376   3.734  18.524 -0.1663  0.4140 -0.0635
32196W        W75108  29.266   6.571  19.373 -0.0834  0.0351  0.1650
32197W        W75109  30.852   6.382  16.355  0.0445 -0.3198 -0.3070
32198W        W75110  29.385   5.128  16.632  0.2178 -0.0993  0.1433
32199W        W75111  31.530   5.126  19.780  0.2744 -0.2278 -0.0177
32200W        W75112  31.429   3.154  18.964  0.0908 -0.0744 -0.2521
32201W        W75113  30.317   7.010  17.676 -0.1892  0.1846  0.2405
32202W        W75114  31.387   3.818  18.610 -0.2261  0.0620  0.0085
32203W        W75115  30.292   6.604  19.834  0.2624  0.0608 -0.0103
32204W        W75116  29.693   6.749  19.663  0.1353  0.2118  0.2283
32205W        W75117  29.450   6.528  18.390 -0.1995 -0.3456  0.1164
32206W        W75118  29.197   2.883  17.069  0.1166  0.0498 -0.1931
32207W        W75119  33.582   5.814  17.976  0.2818  0.2589 -0.3917
32208W        W75120  30.294   4.496  20.744  0.3015 -0.0890 -0.1668
32209W        W75121  32.740   5.779  18.211 -0.2139  0.1465  0.0561
32210W        W75122  29.296   4.749  17.538  0.2222  0.1563 -0.1671
32211W        W75123  32.423   6.001  17.114 -0.2486 -0.0148  0.0012
32212W        W75124  32.028   5.154  18.704  0.1056  0.3399  0.0144
32213W        W75125  29.221   4.601  20.034 -0.1616  0.2362 -0.0293
32214W        W75126  31.268   5.324  16.429 -0.0634  0.3243 -0.0298
32215W        W75127  33.445   5.100  18.998  0.1169 -0.1616  0.1946
32216W        W75128  32.026   5.980  16.725  0.2358 -0.0760  0.0221
32217W        W75129  30.706   7.267  20.512  0.1079  0.0074  0.1085
32218W        W75130  30.121   5.010  17.114 -0.1089  0.1263  0.2103
32219W        W75131  32.218   5.540  17.477  0.0511  0.1301 -0.1900
32220W        W75132  29.202   5.960  17.527 -0.2178 -0.1378  0.1539
32221W        W75133  30.064   5.564  20.756 -0.0329 -0.1483  0.2516
32222W        W75134  30.342   7.528  19.943 -0.0418 -0.4095 -0.0080
32223W        W75135  30.165   4.884  18.614  0.2270  0.2168 -0.0524
32224W        W75136  32.248   5.782  16.337 -0.0054 -0.0701 -0.0235
32225W        W75137  34.006   6.053  17.870 -0.1011 -0.2163 -0.2090
32226W        W75138  29.939   7.093  16.815 -0.0423 -0.1785  0.0344
32227W        W75139  31.015   7.048  17.667 -0.1720  0.2785 -0.1702
32228W        W75140  30.973   8.021  19.216 -0.2344  0.0668 -0.2552
32229W        W75141  29.190   4.335  17.134  0.2007 -0.5798 -0.3026
32230W        W75142  33.104   6.833  18.725 -0.0848  0.2283  0.1434
32231W        W75143  32.743   7.199  20.475 -0.0410  0.0341 -0.1390
32232W        W75144  30.987   3.662  16.820 -0.1239  0.1214  0.1895
32233W        W75145  30.593   4.739  18.442  0.1279 -0.1255  0.0433
32234W        W75146  29.915   6.298  17.933 -0.2288  0.2761 -0.0419
32235W        W75147  32.125   5.048  17.817 -0.1734  0.0921 -0.2178
32236W        W75148  32.985   4.101  19.202  0.0301 -0.0708  0.0777
32237W        W75149  30.080   6.094  15.716  0.1038 -0.1375 -0.1797
32238W        W75150  31.695   4.656  18.913 -0.1816  0.2539  0.5026
32239W        W75151  30.952   6.794  19.292  0.2152  0.2266 -0.2387
32240W        W75152  30.079   7.036  19.916 -0.0852 -0.2325 -0.0490
32241W        W75153  29.992   5.624  16.151  0.0943  0.1614 -0.0808
32242W        W75154  31.014   5.001  18.537 -0.1639 -0.0185  0.1737
32243W        W75155  31.312   5.473  18.417  0.0426  0.0290  0.1329
32244W        W75156  31.226   8.458  16.767 -0.1131  0.2160 -0.1446
32245W        W75157  31.663   5.685  19.327 -0.4379 -0.2181 -0.0111
32246W        W75158  31.664   6.516  17.176  0.0617  0.0965 -0.0355
32247W        W75159  31.552   7.425  17.471  0.2498  0.1802  0.4410
32248W        W75160  30.389   3.896  19.022  0.0664  0.2070 -0.0060
32249W        W75161  31.585   4.293  18.494  0.0652 -0.1023  0.1075
32250W        W75162  32.992   4.279  18.739  0.1074 -0.0248 -0.2077
32251W        W75163  29.204   7.418  19.292 -0.2048 -0.0690 -0.0350
32252W        W75164  29.913   5.255  15.718  0.0315  0.0401 -0.1069
32253W        W75165  30.052   5.680  17.080 -0.0333  0.1219 -0.1732
32254W        W75166  29.181   5.738  18.574  0.1310  0.0228 -0.1039
32255W        W75167  30.425   5.267  20.509  0.2515 -0.2231  0.2265
32256W        W75168  29.583   4.600  19.134  0.0316  0.3544 -0.2881
32257W        W75169  30.524   5.666  18.359 -0.1265 -0.0232 -0.1399
32258W        W75170  31.556   3.385  16.607  0.1196  0.0453  0.0112
32259W        W75171  32.130   7.252  16.654 -0.1975  0.2298  0.3546
32260W        W75172  29.926   3.889  18.700 -0.0591 -0.3724  0.0633
32261W        W75173  28.463   5.421  18.080 -0.1447 -0.0372 -0.2428
32262W        W75174  31.144   5.956  17.696 -0.2537 -0.1598 -0.3454
32263W        W75175  31.150   5.866  16.288 -0.0235 -0.0745 -0.0424
32264W        W75176  32.097   4.221  18.251 -0.1882  0.0072 -0.0995
32265W        W75177  33.805   6.211  19.732 -0.0567 -0.0210 -0.0732
32266W        W75178  29.679   5.963  16.356  0.1371  0.2436 -0.0756
32267W        W75179  30.839   4.678  19.877 -0.1607 -0.1367 -0.2787
32268W        W75180  31.321   6.496  19.441 -0.0318  0.0350  0.1316
32269W        W75181  29.558   4.657  16.531  0.1044  0.0485 -0.1905
32270W        W75182  32.784   4.056  18.368  0.2149  0.2777  0.2063
32271W        W75183  31.515   5.634  17.422  0.0246 -0.2849 -0.2464
32272W        W75184  30.429   7.907  16.437  0.1227  0.0047  0.0858
32273W        W75185  30.042   7.088  19.350 -0.0273 -0.0396 -0.0526
32274W        W75186  31.368   6.661  18.947  0.0659 -0.0633 -0.3673
32275W        W75187  29.800   3.489  19.850  0.1296 -0.3476  0.0136
32276W        W75188  32.022   6.357  17.538 -0.3600  0.0258  0.1285
32277W        W75189  31.337   7.166  18.893  0.2848 -0.1162  0.2221
32278W        W75190  32.841   6.271  17.376 -0.0901 -0.3216  0.3458
32279W        W75191  31.570   4.688  16.704  0.1491 -0.0084 -0.0089
32280W        W75192  31.776   5.647  16.428 -0.0601  0.1360  0.0565
32281W        W75193  29.280   5.536  20.513 -0.3887  0.0168 -0.2198
32282W        W75194  29.962   6.608  20.221 -0.0067  0.1914 -0.2444
32283W        W75195  32.483   6.014  19.895 -0.2223  0.1482 -0.1208
32284W        W75196  29.496   4.774  17.084 -0.2551  0.0585  0.0204
32285W        W75197  31.191   4.091  18.233  0.1612 -0.1291 -0.1394
32286W        W75198  29.974   6.330  16.655  0.0360 -0.1479  0.0665
32287W        W75199  30.878   5.609  18.867 -0.0089 -0.0135  0.3674
32288W        W75200  30.547   5.749  16.988  0.1046 -0.2116  0.0977
32289W        W75201  30.971   5.229  19.726 -0.0246  0.2821  0.0086
32290W        W75202  30.537   5.490  19.714 -0.2184  0.2129 -0.0199
32291W        W75203  32.479   6.128  18.725 -0.0502 -0.1089  0.3457
32292W        W75204  29.583   5.945  17.780  0.1530  0.1094 -0.1696
32293W        W75205  33.125   5.266  15.909 -0.0520  0.2739  0.0635
32294W        W75206  31.296   7.767  19.970  0.2342  0.1573 -0.1282
32295W        W75207  33.238   7.479  20.218 -0.2123 -0.2190  0.1843
32296W        W75208  30.818   6.663  18.830  0.0087  0.0600 -0.1752
32297W        W75209  32.363   6.093  18.178 -0.0731  0.3467  0.0143
32298W        W75210  28.534   4.393  18.317  0.0124  0.1624 -0.1812
32299W        W75211  30.408   6.189  18.452  0.1779 -0.1287  0.3567
32300W        W75212  30.887   4.804  18.040 -0.1415  0.1225 -0.1102
32301W        W75213  32.248   4.747  18.967 -0.0120  0.0025  0.1594
32302W        W75214  31.339   4.674  18.237  0.1901  0.2122  0.2704
32303W        W75215  31.247   4.434  17.042  0.5049  0.0600 -0.0738
32304W        W75216  30.708   7.522  18.451  0.0420 -0.2338  0.1218
32305W        W75217  30.932   6.037  18.472  0.0370  0.3014 -0.0975
32306W        W75218  30.492   7.204  23.990  0.0675  0.0044  0.0930
32307W        W75219  29.630   6.048  22.119  0.0944  0.2882 -0.3378
32308W        W75220  31.844   4.911  20.093 -0.0785  0.0591  0.0895
32309W        W75221  31.884   5.932  20.567  0.0727 -0.1488  0.1638
32310W        W75222  29.665   5.502  21.725  0.0958  0.0186  0.0822
32311W        W75223  33.142   7.535  20.749 -0.0272 -0.0360  0.1838
32312W        W75224  30.389   4.132  21.674  0.0997  0.2617 -0.1290
32313W        W75225  34.024   6.874  22.918  0.0330 -0.2824  0.0922
32314W        W75226  31.933   7.841  23.668 -0.1151 -0.1425  0.2100
32315W        W75227  30.605   4.691  20.326  0.0866  0.0509  0.2522
32316W        W75228  29.023   3.543  24.156  0.4837 -0.2098 -0.1581
32317W        W75229  30.411   6.606  24.770 -0.2608  0.1005  0.2965
32318W        W75230  31.724   4.592  23.052 -0.0738  0.1262  0.1331
32319W        W75231  29.724   4.022  21.958 -0.1888 -0.1823 -0.0576
32320W        W75232  31.064   6.557  23.103  0.4536 -0.0316 -0.0409
32321W        W75233  29.318   5.702  22.815  0.0877 -0.0827  0.1890
32322W        W75234  29.825   5.498  22.840  0.3195  0.0623 -0.2748
32323W        W75235  30.042   5.427  21.331 -0.2000 -0.1560 -0.1982
32324W        W75236  30.567   6.533  23.162  0.3673 -0.1309  0.1132
32325W        W75237  30.863   3.431  22.859 -0.3078 -0.1640 -0.2815
32326W        W75238  30.408   4.573  22.408  0.4209  0.0456  0.1688
32327W        W75239  29.657   6.736  21.125 -0.1528  0.2947 -0.0877
32328W        W75240  29.755   5.638  19.109 -0.0520  0.2229 -0.0938
32329W        W75241  29.164   5.200  21.977  0.2861 -0.3245  0.0452
32330W        W75242  28.431   5.228  22.282  0.2898 -0.0389  0.1523
32331W        W75243  31.492   4.760  22.441  0.1112 -0.0974 -0.3857
32332W        W75244  32.366   5.443  21.655  0.0955  0.1850 -0.3053
32333W        W75245  30.380   6.544  22.379  0.0328 -0.3854 -0.1237
32334W        W75246  31.127   6.212  22.657  0.3235  0.0306 -0.2613
32335W        W75247  31.574   5.059  23.799  0.3400  0.2211 -0.2285
32336W        W75248  29.445   6.226  20.568  0.1280 -0.1203 -0.0530
32337W        W75249  29.113   7.437  21.503 -0.1675 -0.1553  0.0249
32338W        W75250  30.123   6.122  20.401  0.2226  0.1668  0.1501
32339W        W75251  32.796   5.990  20.561  0.2393  0.1323 -0.0696
32340W        W75252  32.559   7.009  23.589  0.2988  0.0251 -0.5252
32341W        W75253  29.416   6.378  23.520  0.0403 -0.2696  0.1459
32342W        W75254  29.256   6.177  21.153  0.1242 -0.2935  0.0044
32343W        W75255  31.526   7.860  22.619  0.0385  0.0733  0.2058
32344W        W75256  30.725   6.795  23.528  0.1075 -0.0252 -0.1217
32345W        W75257  30.573   5.472  22.909  0.1090  0.1153  0.3063
32346W        W75258  31.484   5.589  21.244  0.2558 -0.2310 -0.1149
32347W        W75259  28.109   5.734  20.681  0.0956 -0.2601  0.0221
32348W        W75260  30.487   5.718  21.525 -0.3285 -0.2071  0.0738
32349W        W75261  29.617   5.251  24.161 -0.0422 -0.1072 -0.3197
32350W        W75262  28.722   6.538  23.007  0.2446 -0.0926  0.0277
32351W        W75263  33.274   4.548  23.270 -0.1795 -0.0382 -0.3677
32352W        W75264  29.175   6.683  21.676  0.1194 -0.1590 -0.0546
32353W        W75265  30.905   5.075  20.545 -0.4933  0.0621 -0.1817
32354W        W75266  30.640   6.164  20.146  0.0052  0.1107  0.0560
32355W        W75267  31.617   4.998  21.136  0.0929  0.1521 -0.0878
32356W        W75268  29.857   2.939  22.092 -0.2970  0.1475 -0.0367
32357W        W75269  29.514   6.361  21.524 -0.0625  0.1797 -0.0596
32358W        W75270  30.392   5.051  22.259  0.1748 -0.3151  0.2933
32359W        W75271  31.908   5.310  22.503 -0.1746  0.1387  0.0483
32360W        W75272  30.435   5.378  20.997 -0.0849 -0.0326  0.1050
32361W        W75273  31.053   4.542  21.979 -0.4571  0.0091  0.1157
32362W        W75274  30.142   6.130  23.318 -0.0332  0.0899 -0.1288
32363W        W75275  28.114   4.886  20.957  0.1870  0.1665  0.1638
32364W        W75276  31.997   6.220  21.698  0.0233  0.2520 -0.0172
32365W        W75277  32.905   6.263  21.414 -0.2395 -0.2978 -0.2751
32366W        W75278  29.231   5.317  21.532  0.3561  0.2146  0.1399
32367W        W75279  29.727   5.817  20.434  0.1943  0.4173 -0.2638
32368W        W75280  29.139   7.185  22.351 -0.0466  0.2393  0.2220
32369W        W75281  29.395   4.378  23.714 -0.0396 -0.0454  0.1146
32370W        W75282  28.725   4.435  20.616 -0.1469  0.0034 -0.2517
32371W        W75283  33.166   6.688  22.680  0.1091  0.1199 -0.1549
32372W        W75284  28.332   5.778  23.800 -0.3857 -0.2869 -0.0720
32373W        W75285  33.354   3.195  21.660 -0.2701 -0.0091  0.0354
32374W        W75286  28.356   6.861  21.855 -0.0331 -0.1144 -0.1942
32375W        W75287  31.322   7.529  22.215  0.2917 -0.0197  0.1290
32376W        W75288  32.594   5.660  20.206  0.0879 -0.2055 -0.2359
32377W        W75289  31.537   3.870  21.575  0.0419 -0.1344 -0.0799
32378W        W75290  33.250   4.521  21.929 -0.0566 -0.1052  0.3384
32379W        W75291  29.082   5.626  21.054 -0.0499 -0.2546  0.0621
32380W        W75292  29.680   4.539  21.077 -0.0212 -0.0796  0.1658
32381W        W75293  33.911   5.907  22.557 -0.2061  0.2124 -0.2060
32382W        W75294  33.796   5.083  19.364  0.0104 -0.0693 -0.2931
32383W        W75295  30.242   6.311  22.886  0.2089 -0.0451  0.0074
32384W        W75296  30.339   4.273  23.218 -0.0783  0.5157 -0.0023
32385W        W75297  29.597   6.927  23.570  0.1315  0.3044 -0.1069
32386W        W75298  29.405   7.531  20.056 -0.0188 -0.0734 -0.0060
32387W        W75299  29.186   4.606  22.510 -0.2591 -0.3162 -0.3488
32388W        W75300  28.297   7.507  19.793  0.2306  0.1156 -0.0079
32389W        W75301  30.753   3.116  23.207 -0.2905 -0.0349 -0.2272
32390W        W75302  29.568   6.198  24.103  0.2784  0.2086  0.4324
32391W        W75303  32.172   4.512  20.024 -0.2260 -0.1369 -0.1509
32392W        W75304  28.579   3.585  23.911 -0.0386 -0.2923 -0.3270
32393W        W75305  32.742   4.057  21.167 -0.0726  0.1906  0.0806
32394W        W75306  27.919   5.432  19.702  0.0699 -0.3328 -0.2333
32395W        W75307  31.779   8.277  21.725  0.2039  0.2942  0.0732
32396W        W75308  31.233   5.452  20.318  0.2428  0.1823  0.0632
32397W        W75309  30.268   5.896  21.173  0.5695 -0.1043 -0.2657
32398W        W75310  29.515   5.071  22.374 -0.2700 -0.1768  0.1520
32399W        W75311  26.980   5.884  22.806  0.1681 -0.1233 -0.1278
32400W        W75312  29.713   3.906  24.513 -0.1263  0.1749 -0.2523
32401W        W75313  30.118   3.074  21.188  0.0339 -0.1962  0.0513
32402W        W75314  30.511   6.348  24.314  0.0054  0.0144 -0.2603
32403W        W75315  30.081   3.736  21.684  0.0419 -0.1811 -0.2446
32404W        W75316  31.796   4.694  21.729 -0.0469 -0.1499 -0.0362
32405W        W75317  31.282   4.773  20.759  0.0083  0.5224 -0.0972
32406W        W75318  28.520   4.974  21.875  0.1117  0.1683  0.5097
32407W        W75319  32.381   3.210  23.483  0.1776  0.0730  0.0714
32408W        W75320  31.191   6.554  20.991 -0.3731 -0.2120  0.1423
32409W        W75321  32.110   6.823  23.256 -0.0120  0.1418 -0.1143
32410W        W75322  31.781   6.719  22.397 -0.2430  0.1345 -0.0993
32411W        W75323  29.813   6.764  22.802  0.3085 -0.0012 -0.1937
32412W        W75324  29.840   3.538  21.213  0.0543 -0.0083  0.1172
32413W        W75325  28.593   6.793  23.875  0.5443 -0.0870  0.0595
32414W        W75326  32.113   6.638  21.471  0.1500 -0.0425 -0.1224
32415W        W75327  29.404   4.908  20.751 -0.3137  0.0815  0.4415
32416W        W75328  32.354   6.225  20.327  0.2456 -0.0922 -0.1283
32417W        W75329  30.911   6.037  21.673  0.2299 -0.0146  0.1458
32418W        W75330  29.217   7.124  23.192  0.0563 -0.1016 -0.0544
32419W        W75331  32.311   3.368  24.325 -0.0665  0.1480 -0.1731
32420W        W75332  32.600   6.516  21.789 -0.0151  0.0327 -0.2174
32421W        W75333  31.697   4.311  22.189  0.0679 -0.1170  0.0398
32422W        W75334  31.348   4.732  21.532  0.0521 -0.1869  0.0433
32423W        W75335  31.934   6.091  21.060  0.0815  0.1615 -0.0241
32424W        W75336  28.899   6.398  22.608 -0.0302 -0.1006  0.1938
32425W        W75337  28.178   5.418  21.088  0.3849  0.0953 -0.2602
32426W        W75338  32.152   7.262  21.683  0.1725  0.2314  0.2939
32427W        W75339  32.651   3.557  21.067  0.1901  0.0558  0.0055
32428W        W75340  29.007   4.985  23.079  0.1623 -0.3648  0.1433
32429W        W75341  30.913   5.552  23.923 -0.0850  0.0124 -0.0220
32430W        W75342  29.685   5.405  21.009  0.2415 -0.3347  0.4915
32431W        W75343  29.086   6.227  23.858  0.0336  0.1653 -0.0848
32432W        W75344  31.825   2.818  21.746 -0.0071  0.0337  0.1224
32433W        W75345  32.023   4.102  20.336 -0.0838  0.0539  0.0666
32434W        W75346  29.872   6.298  23.722 -0.2165  0.2585 -0.1321
32435W        W75347  32.332   6.159  21.303  0.1467  0.0254  0.2354
32436W        W75348  31.761   4.382  19.804 -0.3385  0.1530 -0.2203
32437W        W75349  30.952   5.533  20.733 -0.3509 -0.0198  0.0892
32438W        W75350  29.298   6.708  22.473  0.2085 -0.2822  0.0191
32439W        W75351  29.904   6.007  20.870 -0.1600  0.0659 -0.1385
32440W        W75352  31.081   5.425  21.891  0.2237  0.2423 -0.1452
32441W        W75353  32.348   5.156  19.376  0.0128 -0.0273  0.0541
32442W        W75354  32.700   7.277  21.417  0.2224 -0.0388 -0.2538
32443W        W75355  27.970   5.447  22.508 -0.2501 -0.2288 -0.0650
32444W        W75356  30.083   6.850  23.707 -0.1217  0.0745  0.0103
32445W        W75357  31.733   6.547  21.965  0.0442  0.0496 -0.0097
32446W        W75358  30.145   5.039  23.895  0.1558  0.2585 -0.1275
32447W        W75359  30.726   6.125  19.669 -0.1304 -0.1544 -0.0626
32448W        W75360  29.898   4.243  20.697  0.1290  0.0326  0.1025
32449W        W75361  28.725   6.851  19.618 -0.0071 -0.0908 -0.1179
32450W        W75362  31.932   4.868  22.686  0.2846 -0.3862  0.1948
32451W        W75363  30.204   5.612  22.453  0.2108  0.2847 -0.3217
32452W        W75364  30.904   4.616  23.374 -0.0796 -0.0478 -0.2443
32453W        W75365  30.848   4.251  23.044 -0.0795  0.1466 -0.0935
32454W        W75366  32.544   5.162  20.451 -0.1170  0.0135  0.2927
32455W        W75367  30.818   5.968  21.105  0.0786 -0.1416  0.1065
32456W        W75368  28.825   5.331  20.349 -0.0304  0.0861 -0.1987
32457W        W75369  32.113   5.294  23.051 -0.1647  0.4478 -0.0079
32458W        W75370  29.557   4.066  22.829  0.0296  0.0650  0.1248
32459W        W75371  28.513   6.728  22.607  0.3149 -0.3802  0.0044
32460W        W75372  31.415   6.386  23.596  0.1818  0.0670 -0.0406
32461W        W75373  31.473   5.791  21.707 -0.0062 -0.2101  0.2533
32462W        W75374  31.351   3.150  25.242 -0.2326 -0.3137  0.4048
32463W        W75375  30.592   6.035  22.594 -0.2544  0.1994 -0.6068
32464W        W75376  28.994   7.357  20.212  0.0646  0.1943  0.1039
32465W        W75377  29.083   7.032  21.234 -0.2503 -0.0482  0.0350
32466W        W75378  31.589   5.269  21.662  0.2252  0.0935 -0.2918
32467W        W75379  30.994   5.849  22.957 -0.0174  0.1812 -0.0323
32468W        W75380  29.622   5.636  20.009  0.1253  0.1846 -0.0317
32469W        W75381  32.033   6.170  22.922  0.0848 -0.2456 -0.3059
32470W        W75382  27.348   6.116  22.154 -0.2918 -0.0841 -0.1004
32471W        W75383  33.221   4.563  20.216  0.0947  0.1242 -0.2348
32472W        W75384  28.894   4.927  21.608 -0.1713  0.1714  0.1332
32473W        W75385  29.056   4.586  20.956  0.1123 -0.1727 -0.0473
32474W        W75386  28.637   5.434  20.811 -0.2077 -0.1159 -0.1160
32475W        W75387  32.099   5.848  22.419  0.1603 -0.0668  0.3687
32476W        W75388  31.249   6.820  19.872  0.0368 -0.1730  0.0492
32477W        W75389  30.306   4.994  21.478 -0.0830 -0.2762 -0.0318
32478W        W75390  31.356   4.877  23.342 -0.2117 -0.2812 -0.0904
32479W        W75391  28.670   6.101  23.376 -0.2983  0.2357 -0.2799
32480W        W75392  30.834   4.970  23.677  0.0784 -0.2731 -0.2082
32481W        W75393  32.404   4.667  19.524  0.2153 -0.0331 -0.0223
32482W        W75394  31.138   5.966  24.108 -0.3108  0.0783 -0.2139
32483W        W75395  30.475   5.355  23.664  0.2496  0.0438  0.0244
32484W        W75396  29.320   4.418  20.543  0.2299 -0.0201 -0.0827
32485W        W75397  32.703   5.807  21.503 -0.0212 -0.2248 -0.0309
32486W        W75398  30.621   4.205  22.162  0.0134 -0.0522  0.1623
32487W        W75399  28.201   6.074  21.410  0.1327  0.0158  0.1311
32488W        W75400  29.978   7.642  21.893  0.0001  0.2154 -0.0612
32489W        W75401  29.088   5.160  21.034 -0.2537 -0.1059  0.1929
32490W        W75402  29.475   7.931  20.841  0.2298  0.1350  0.1407
32491W        W75403  30.560   5.074  23.235  0.1781 -0.0057  0.2877
32492W        W75404  31.270   6.778  21.451  0.0525  0.2556 -0.3773
32493W        W75405  29.225   5.746  21.791 -0.2546  0.0986  0.1357
32494W        W75406  29.305   4.804  21.354  0.0719 -0.2055  0.1344
32495W        W75407  31.177   4.133  21.231  0.1942 -0.0892 -0.0519
32496W        W75408  31.951   5.644  21.948 -0.0600 -0.1349  0.0420
32497W        W75409  30.227   3.871  22.227  0.1471 -0.0512 -0.1734
32498W        W75410  29.365   7.159  24.019 -0.1021  0.4183  0.3946
32499W        W75411  30.699   3.681  22.269 -0.2819  0.0280  0.1966
32500W        W75412  31.681   6.359  20.737 -0.1938 -0.0965 -0.0770
32501W        W75413  29.347   5.601  22.310 -0.1111 -0.0238  0.3014
32502W        W75414  29.242   5.913  20.181 -0.3361  0.0814  0.1069
32503W        W75415  28.596   5.410  23.303  0.3376  0.3103 -0.0249
32504W        W75416  29.033   6.172  21.669  0.1848 -0.0952 -0.1068
32505W        W75417  31.008   3.779  23.217  0.1375  0.1945 -0.3022
32506W        W75418  30.044   4.854  21.953  0.2022 -0.0051  0.2187
32507W        W75419  28.896   6.279  19.718  0.0099 -0.0449  0.1086
32508W        W75420  28.855   7.122  24.125 -0.0325 -0.1395 -0.2397
32509W        W75421  32.178   4.884  20.450 -0.2256  0.2308 -0.2784
32510W        W75422  32.131   5.499  20.611  0.1213 -0.1729  0.3379
32511W        W75423  31.873   3.840  21.943  0.1729  0.0667 -0.0702
32512W        W75424  32.495   3.354  22.249  0.1526  0.1146 -0.1322
32513W        W75425  32.482   5.920  19.307 -0.2833  0.0176  0.0319
32514W        W75426  32.898   3.369  23.448  0.1599  0.2652 -0.0916
32515W        W75427  30.866   3.958  22.617  0.1501  0.0132 -0.3401
32516W        W75428  31.414   7.783  21.483  0.2872 -0.0327 -0.0683
32517W        W75429  30.516   3.599  21.830  0.1033  0.0685  0.1551
32518W        W75430  31.848   7.522  22.823 -0.1848  0.1420 -0.0285
32519W        W75431  29.695   6.249  23.037 -0.3416 -0.1349 -0.0143
32520W        W75432  31.383   5.783  22.622 -0.1440 -0.2254  0.1822
32521W        W75433  30.372   3.495  20.326  0.0558 -0.1492 -0.3619
32522W        W75434  29.749   5.950  22.640  0.1349 -0.1878  0.0889
32523W        W75435  32.151   6.326  22.164 -0.2658  0.2631  0.0299
32524W        W75436  28.819   3.951  21.066  0.1016 -0.2199  0.0737
32525W        W75437  32.383   5.527  21.135 -0.1725 -0.2562  0.1173
32526W        W75438  28.679   6.503  21.807  0.1427 -0.0708 -0.2769
32527W        W75439  31.181   5.917  22.151 -0.0804 -0.0679 -0.0020
32528W        W75440  31.766   5.382  20.183 -0.0191 -0.0382 -0.0049
32529W        W75441  30.005   6.331  21.252  0.0610 -0.3036 -0.1666
32530W        W75442  31.364   4.288  22.688  0.0734  0.1712 -0.2646
32531W        W75443  30.294   7.335  22.248  0.0842 -0.2674  0.1717
32532W        W75444  30.737   5.033  22.635  0.2423  0.3040 -0.2851
32533W        W75445  31.164   5.344  22.550 -0.2937  0.2262  0.2448
32534W        W75446  31.389   6.184  23.089 -0.1686  0.0529 -0.1217
32535W        W75447  28.854   4.909  22.259  0.4062  0.1708 -0.1070
32536W        W75448  31.138   3.796  23.755 -0.0917  0.0355  0.0634
32537W        W75449  31.570   6.652  23.175 -0.0726  0.0459 -0.1342
32538W        W75450  32.780   4.639  19.906  0.0497  0.0610 -0.0822
32539W        W75451  32.415   4.181  22.554  0.0969  0.1708  0.1383
32540W        W75452  33.179   7.242  21.724 -0.2347 -0.1546  0.1141
32541W        W75453  31.959   6.252  19.986 -0.0180 -0.2450 -0.0356
32542W        W75454  29.600   4.408  21.594 -0.2150 -0.0330  0.1668
32543W        W75455  33.100   5.268  24.605 -0.2337 -0.1093 -0.3228
32544W        W75456  29.305   4.138  21.120  0.1341 -0.0240 -0.0475
32545W        W75457  32.633   3.845  23.437  0.0089 -0.0206 -0.0034
32546W        W75458  29.415   7.063  20.847 -0.0102 -0.0957  0.1364
32547W        W75459  31.672   6.012  22.238  0.0933 -0.2108  0.3671
32548W        W75460  30.857   6.491  21.361 -0.1713 -0.1253 -0.1393
32549W        W75461  29.190   4.123  21.887 -0.2217 -0.0741 -0.3225
32550W        W75462  29.190   5.891  23.478 -0.0904  0.1196  0.2642
32551W        W75463  27.591   3.105  19.266  0.2263  0.0625  0.0862
32552W        W75464  30.460   6.322  21.021  0.0907 -0.1542 -0.0867
32553W        W75465  30.317   7.094  23.281  0.1679 -0.1187  0.1654
32554W        W75466  32.579   5.713  23.993  0.1268 -0.0544  0.1030
32555W        W75467  32.475   4.643  20.848 -0.0796 -0.1854  0.1730
32556W        W75468  32.258   3.996  23.032 -0.2478  0.1293  0.1819
32557W        W75469  28.554   7.099  22.237  0.0719 -0.2425  0.1934
32558W        W75470  31.809   3.326  22.136 -0.0095  0.0967 -0.0618
32559W        W75471  29.790   7.843  21.442 -0.0553  0.2713 -0.3072
32560W        W75472  28.473   6.342  22.255  0.2605  0.2120 -0.0069
32561W        W75473  32.021   5.744  21.435  0.0160  0.1186 -0.0269
32562W        W75474  32.161   3.663  22.359  0.2592  0.3578  0.2674
32563W        W75475  30.315   6.424  23.732  0.0036  0.1579 -0.2399
32564W        W75476  30.026   5.798  21.958  0.0304 -0.1055  0.0048
32565W        W75477  32.840   4.732  23.588 -0.0576 -0.0367  0.0115
32566W        W75478  30.785   6.821  22.322 -0.2426  0.0924  0.2474
32567W        W75479  30.570   5.860  22.017  0.2367 -0.1092  0.0693
32568W        W75480  30.913   7.241  22.061 -0.4573 -0.0079 -0.2206
32569W        W75481  32.795   5.339  21.251  0.0106  0.3066  0.1419
32570W        W75482  29.718   6.427  22.499  0.3934  0.1808 -0.0071
32571W        W75483  29.027   4.678  23.463  0.0319  0.0419  0.2172
32572W        W75484  31.190   4.185  23.478  0.0898 -0.0436 -0.0454
32573W        W75485  30.877   6.353  22.098 -0.1826 -0.1659 -0.2378
32574W        W75486  30.389   4.211  19.838  0.0667 -0.0458 -0.0064
32575W        W75487  28.885   6.832  20.273 -0.1112  0.0306  0.0326
32576W        W75488  27.291   5.901  23.441  0.3099  0.1062 -0.1770
32577W        W75489  29.452   4.925  23.448  0.0591  0.0932 -0.0011
32578W        W75490  29.440   8.280  19.540  0.0086 -0.2022 -0.6364
32579W        W75491  31.264   6.055  21.333  0.1456  0.0484  0.1729
32580W        W75492  30.990   5.584  21.432 -0.0835 -0.0099 -0.0103
32581W        W75493  30.497   6.804  21.431 -0.2209 -0.3380  0.0493
32582W        W75494  31.020   4.788  21.187  0.2430  0.1038  0.1721
32583W        W75495  29.842   7.768  22.567 -0.0069  0.0341 -0.2271
32584W        W75496  28.186   7.699  20.703  0.0211  0.0533 -0.3124
32585W        W75497  30.262   7.074  20.571 -0.0174 -0.3919  0.0658
32586W        W75498  30.506   7.246  21.050 -0.2051 -0.3052 -0.0700
32587W        W75499  31.457   5.886  24.471  0.0555  0.0559 -0.0634
32588W        W75500  32.319   3.392  19.195  0.0695  0.0816  0.1587
32589W        W75501  31.042   6.103  23.434  0.0277  0.1658  0.0163
32590W        W75502  32.081   5.062  20.913 -0.0327  0.1077 -0.1449
32591W        W75503  31.934   6.271  24.464  0.0115 -0.2126  0.1317
32592W        W75504  29.331   4.161  22.387  0.4280  0.2680 -0.0829
32593W        W75505  29.459   5.012  20.128  0.2087 -0.0313 -0.0632
32594W        W75506  30.352   4.713  22.926 -0.0095  0.1320  0.2194
32595W        W75507  33.797   2.776  24.494 -0.1301  0.0907 -0.2950
32596W        W75508  28.706   5.990  22.827  0.1929 -0.0836 -0.1818
32597W        W75509  31.381   5.160  18.925  0.0956  0.0339  0.1595
32598W        W75510  28.951   6.222  20.788 -0.3540 -0.0122 -0.4873
32599W        W75511  30.572   6.033  23.202  0.2973 -0.1596 -0.1579
32600W        W75512  32.946   3.531  22.933  0.2075 -0.1303  0.0543
32601W        W75513  30.778   6.590  19.788  0.0759 -0.0104 -0.2419
32602W        W75514  31.986   3.904  23.395 -0.0400  0.3016  0.2662
32603W        W75515  29.363   7.082  21.954  0.0524 -0.3329 -0.2045
32604W        W75516  29.470   7.133  22.761  0.0665  0.0830  0.0730
32605W        W75517  30.131   6.097  22.349 -0.0699  0.1499  0.0718
32606W        W75518  30.090   4.369  22.026  0.1467 -0.2457 -0.3254
32607W        W75519  33.288   5.025  20.520  0.1754  0.1495  0.0215
32608W        W75520  28.977   6.568  23.419 -0.0534  0.1270  0.0346
32609W        W75521  32.568   4.472  21.409  0.1358  0.1974 -0.0828
32610W        W75522  29.813   4.995  21.336 -0.0920 -0.0200 -0.3038
32611W        W75523  31.153   5.227  21.055 -0.0229 -0.3662  0.0030
32612W        W75524  30.187   5.814  22.861 -0.1505 -0.0111 -0.3241
32613W        W75525  29.382   3.019  23.431  0.0144 -0.1314 -0.0135
32614W        W75526  29.608   5.833  21.324 -0.2081  0.0323 -0.0132
32615W        W75527  31.624   6.334  22.668  0.0487 -0.2406  0.1204
32616W        W75528  33.412   4.397  19.096 -0.0934  0.0745  0.1963
32617W        W75529  32.133   6.799  23.832  0.0383  0.0048 -0.0398
32618W        W75530  28.741   3.686  23.252  0.3203 -0.3552  0.2460
32619W        W75531  30.689   5.560  20.202  0.1876  0.0087 -0.0388
32620W        W75532  28.033   4.772  20.440  0.1918 -0.0782  0.2066
32621W        W75533  30.266   5.157  22.740  0.0014 -0.1157  0.3584
32622W        W75534  30.312   6.859  22.020 -0.0393  0.0105 -0.2382
32623W        W75535  30.611   4.127  20.443 -0.0853 -0.1143  0.0879
32624W        W75536  32.274   6.966  19.179  0.1031 -0.3240 -0.0606
32625W        W75537  32.372   5.139  22.510  0.1386  0.0386  0.2235
32626W        W75538  29.219   7.755  20.427  0.2746 -0.0043  0.0180
32627W        W75539  31.275   6.011  20.810 -0.1900 -0.0207  0.2878
32628W        W75540  31.816   7.194  22.112 -0.1037  0.0630  0.0461
32629W        W75541  27.353   5.357  22.947 -0.0536  0.0385  0.2656
32630W        W75542  30.708   7.696  22.231  0.0542 -0.0550 -0.0154
32631W        W75543  32.200   6.464  20.889 -0.0368  0.0263 -0.2090
32632W        W75544  29.653   4.155  20.229 -0.1610 -0.0216  0.2215
32633W        W75545  30.144   5.315  21.831  0.0322 -0.0621 -0.1906
32634W        W75546  28.110   7.090  22.617  0.1157 -0.1035  0.0176
32635W        W75547  32.875   4.296  20.692  0.0987 -0.1847 -0.1556
32636W        W75548  31.598   4.485  23.605  0.2420  0.1153 -0.1004
32637W        W75549  29.856   7.800  19.966 -0.3774  0.1783 -0.2603
32638W        W75550  32.585   3.717  22.621  0.0835 -0.0523  0.0122
32639W        W75551  29.957   7.188  24.097  0.0312  0.4647  0.0822
32640W        W75552  30.658   7.129  24.843 -0.0225  0.1353  0.0172
32641W        W75553  27.204   4.885  19.855  0.0054 -0.2124 -0.1056
32642W        W75554  28.334   5.799  23.205  0.3815 -0.1952  0.1379
32643W        W75555  31.588   6.420  21.340 -0.1923 -0.2650  0.4258
32644W        W75556  31.219   7.876  20.931  0.0152 -0.2541 -0.1536
32645W        W75557  32.856   6.072  21.906 -0.1477 -0.0538  0.1458
32646W        W75558  32.022   5.131  22.036  0.0336 -0.0498  0.0267
32647W        W75559  33.245   6.115  20.899 -0.1397 -0.0412 -0.0605
32648W        W75560  30.275   4.529  21.296  0.0810  0.0590  0.0365
32649W        W75561  31.845   3.024  20.015  0.0697  0.1657  0.0364
32650W        W75562  31.735   3.896  19.884 -0.2105 -0.1601  0.0309
32651W        W75563  29.972   5.503  23.798 -0.1036  0.1297 -0.1475
32652W        W75564  28.558   5.338  19.797 -0.1390 -0.2392 -0.1095
32653W        W75565  28.872   5.761  20.554  0.3771  0.2309 -0.0400
32654W        W75566  27.669   5.392  21.824  0.1321 -0.0212  0.2220
32655W        W75567  31.138   3.011  23.772  0.2078 -0.0504 -0.2188
32656W        W75568  29.336   3.621  22.618 -0.0580 -0.0599 -0.1527
32657W        W75569  28.525   4.931  20.634 -0.2654 -0.0243 -0.3326
32658W        W75570  30.130   4.006  21.205  0.2985  0.0973 -0.1660
32659W        W75571  33.484   5.454  20.606 -0.1911 -0.3936  0.0937
32660W        W75572  29.120   3.104  21.728 -0.3024  0.1906  0.0768
32661W        W75573  29.623   3.929  21.496  0.0486  0.0412 -0.0187
32662W        W75574  32.378   5.922  20.798  0.1725 -0.2463  0.1399
32663W        W75575  30.885   7.071  21.346  0.0906  0.0507  0.2419
32664W        W75576  32.027   4.262  21.560  0.2308 -0.4198  0.0213
32665W        W75577  32.857   7.871  22.503 -0.1993  0.0368 -0.0894
32666W        W75578  30.576   6.471  19.357 -0.3895  0.0567 -0.0739
32667W        W75579  31.192   4.682  23.796 -0.2635 -0.1866  0.2691
32668W        W75580  30.310   4.154  22.676  0.0278 -0.3077 -0.1184
32669W        W75581  29.572   4.525  22.127 -0.0294  0.0872 -0.3224
32670W        W75582  30.614   5.330  21.862 -0.0382 -0.3646  0.2681
32671W        W75583  33.138   4.985  20.061 -0.0149 -0.2643 -0.3374
32672W        W75584  31.300   6.366  21.776 -0.1309  0.0125 -0.0642
32673W        W75585  29.394   6.661  23.021  0.0481  0.1029 -0.0840
32674W        W75586  31.023   6.554  24.516  0.1444  0.1599  0.1666
32675W        W75587  28.815   3.010  23.237  0.0652 -0.2471 -0.0023
32676W        W75588  30.824   6.772  21.815  0.2337 -0.1627  0.0717
32677W        W75589  30.694   6.129  23.892  0.0522 -0.1289 -0.1560
32678W        W75590  32.175   6.527  19.613  0.0666 -0.1817  0.1821
32679W        W75591  31.028   5.209  23.092  0.1743  0.0405 -0.1366
32680W        W75592  32.868   5.042  20.824  0.2863 -0.1916 -0.0083
32681W        W75593  30.673   4.068  23.492 -0.1794  0.1084 -0.0025
32682W        W75594  29.687   5.821  23.242  0.0535  0.1875  0.1331
32683W        W75595  32.427   6.278  22.666 -0.1549  0.0028 -0.0049
32684W        W75596  30.188   3.864  20.581 -0.2016  0.0487  0.2597
32685W        W75597  32.436   3.979  21.644 -0.1129  0.1325  0.0853
32686W        W75598  29.828   5.440  22.228  0.1659 -0.0974  0.2129
32687W        W75599  28.898   5.424  22.342 -0.1169 -0.0353 -0.2646
32688W        W75600  31.428   4.305  21.725 -0.1068  0.1080 -0.0036
32689W        W75601  30.876   4.557  22.468 -0.1184 -0.2237 -0.1367
32690W        W75602  33.133   7.401  22.554  0.0993  0.1517  0.0468
32691W        W75603  31.272   5.425  23.608  0.1299  0.0299  0.0917
32692W        W75604  31.485   5.519  20.702 -0.2871 -0.0097  0.0566
32693W        W75605  32.760   7.171  19.017  0.0860  0.1985 -0.1361
32694W        W75606  32.207   5.979  23.558  0.3036  0.1152  0.1459
32695W        W75607  32.743   8.454  23.658 -0.3519  0.1272 -0.2629
32696W        W75608  30.726   6.508  22.719 -0.0183 -0.0147  0.2093
32697W        W75609  30.731   5.522  22.409 -0.2826  0.2445  0.1693
32698W        W75610  28.887   4.003  23.881 -0.4172 -0.1493  0.0833
32699W        W75611  30.918   5.004  22.157 -0.2333  0.1177 -0.1883
32700W        W75612  29.356   6.127  19.749 -0.1066 -0.2298 -0.1457
32701W        W75613  32.873   5.495  23.184 -0.2800 -0.0551  0.0864
32702W        W75614  31.791   3.681  22.975 -0.0313 -0.1795 -0.2840
32703W        W75615  31.469   4.239  20.714 -0.1434 -0.0325  0.1209
32704W        W75616  27.880   5.763  23.519  0.1916 -0.2736 -0.1913
32705W        W75617  29.580   4.928  21.730 -0.0827 -0.0225 -0.0009
32706W        W75618  31.185   5.970  27.760 -0.1756 -0.0664 -0.2267
32707W        W75619  29.176   4.933  23.955 -0.3268 -0.1282  0.0506
32708W        W75620  33.590   4.956  23.325 -0.2401 -0.1493 -0.0361
32709W        W75621  32.742   5.933  26.071  0.1214  0.2098  0.1769
32710W        W75622  28.408   4.804  26.061 -0.4693  0.1684  0.1385
32711W        W75623  30.697   5.868  24.410 -0.1043 -0.0176  0.5041
32712W        W75624  28.774   2.852  27.208  0.2065 -0.3726 -0.0635
32713W        W75625  32.125   7.168  25.749  0.0401 -0.0741 -0.2359
32714W        W75626  31.610   6.453  26.370 -0.2504  0.2130  0.0192
32715W        W75627  31.880   4.240  22.725  0.2257  0.1362  0.1975
32716W        W75628  30.334   5.228  27.040  0.2824  0.0578  0.0542
32717W        W75629  30.403   5.880  26.954 -0.1391  0.0364 -0.2824
32718W        W75630  29.925   5.638  25.177  0.2487 -0.3514  0.0088
32719W        W75631  29.307   3.423  27.599  0.2994  0.0464  0.0959
32720W        W75632  31.030   4.792  25.622 -0.1589  0.0952 -0.2354
32721W        W75633  27.601   6.054  23.933 -0.0399 -0.1754  0.0893
32722W        W75634  29.317   5.605  27.154 -0.3010 -0.3022 -0.0220
32723W        W75635  30.811   2.905  24.556  0.4400 -0.0837  0.0792
32724W        W75636  31.535   7.054  25.075  0.1745  0.1210 -0.4068
32725W        W75637  30.272   4.024  25.959 -0.1222 -0.3122 -0.1905
32726W        W75638  33.174   3.594  27.001 -0.0366  0.0704  0.1687
32727W        W75639  30.011   6.582  24.167 -0.0497  0.1179  0.1095
32728W        W75640  30.257   5.895  23.827 -0.1829  0.2653  0.0990
32729W        W75641  29.236   5.808  26.247  0.1396 -0.1482 -0.4527
32730W        W75642  30.077   5.267  26.310 -0.2479  0.0716 -0.1162
32731W        W75643  31.963   4.528  24.777 -0.1781  0.0496 -0.2769
32732W        W75644  32.304   4.829  26.668  0.4728 -0.0432 -0.0977
32733W        W75645  30.945   7.506  24.957  0.3338  0.2096 -0.1995
32734W        W75646  30.886   5.851  25.426  0.3988 -0.0802 -0.2644
32735W        W75647  32.414   5.083  28.575 -0.1490 -0.0055  0.0601
32736W        W75648  30.201   6.031  26.022  0.2779  0.1491  0.0993
32737W        W75649  28.240   7.442  26.676 -0.0159 -0.0947  0.5590
32738W        W75650  29.139   7.953  24.640 -0.1092  0.0199  0.0592
32739W        W75651  31.580   6.487  25.147 -0.0427  0.2405 -0.1134
32740W        W75652  32.379   6.017  27.858  0.3590  0.2280  0.2287
32741W        W75653  31.617   8.055  26.838  0.0648  0.1492  0.0951
32742W        W75654  28.806   5.648  23.726  0.0698 -0.0783  0.3014
32743W        W75655  31.754   6.820  26.603 -0.1686 -0.1007 -0.2072
32744W        W75656  29.751   6.219  29.515 -0.2842  0.0846 -0.0255
32745W        W75657  31.417   5.292  27.052 -0.0054 -0.3599 -0.2227
32746W        W75658  30.627   4.276  24.912 -0.0379 -0.0472 -0.0758
32747W        W75659  30.339   7.559  25.010 -0.0225 -0.1108 -0.1051
32748W        W75660  31.262   6.207  26.818 -0.0054  0.3192  0.6678
32749W        W75661  30.649   6.594  28.983  0.1404 -0.3183  0.1969
32750W        W75662  29.645   5.916  26.058  0.0541 -0.0002  0.1410
32751W        W75663  34.315   6.282  27.916 -0.0251  0.3721 -0.0073
32752W        W75664  28.973   6.900  22.737  0.0721  0.0588 -0.0309
32753W        W75665  32.753   6.043  24.707 -0.0350  0.0357 -0.3229
32754W        W75666  29.875   4.387  22.964 -0.3566  0.0458  0.1338
32755W        W75667  31.155   3.351  24.520  0.0841  0.0274 -0.0655
32756W        W75668  29.122   3.802  25.130 -0.0704 -0.0182 -0.0496
32757W        W75669  28.739   7.229  25.781  0.3918  0.1415 -0.0532
32758W        W75670  30.160   3.698  25.581  0.1469  0.3615  0.1321
32759W        W75671  33.182   5.310  28.394 -0.0042 -0.3413 -0.0258
32760W        W75672  31.254   6.202  25.610  0.1900 -0.0475 -0.1835
32761W        W75673  30.816   5.504  26.246  0.0277 -0.3083  0.0302
32762W        W75674  30.714   7.853  26.717 -0.0728  0.5878  0.0480
32763W        W75675  29.107   4.478  26.838 -0.1895  0.0698  0.0998
32764W        W75676  32.812   6.207  24.271  0.0316 -0.0670 -0.0209
32765W        W75677  31.549   5.861  25.295 -0.1882  0.1906 -0.3525
32766W        W75678  31.526   6.389  24.196 -0.0128 -0.0148  0.0497
32767W        W75679  30.836   4.361  25.346  0.1888  0.1404  0.0470
32768W        W75680  30.415   6.071  28.207 -0.0102 -0.0655  0.1565
32769W        W75681  30.685   4.848  27.161 -0.0308  0.0837 -0.4418
32770W        W75682  30.057   4.297  24.354  0.0983  0.0684 -0.0746
32771W        W75683  31.920   5.507  28.532 -0.1258  0.0385 -0.0795
32772W        W75684  29.068   6.189  27.865  0.1693 -0.0017  0.2301
32773W        W75685  32.825   3.873  24.270 -0.2466  0.1172 -0.2173
32774W        W75686  30.129   5.021  24.381  0.0543 -0.0608 -0.0460
32775W        W75687  32.765   4.986  26.551 -0.1680 -0.0686  0.1959
32776W        W75688  29.960   6.602  23.293 -0.1307  0.3439  0.1111
32777W        W75689  33.303   3.023  27.028 -0.4327  0.0761 -0.3413
32778W        W75690  33.449   3.402  26.112 -0.0957 -0.2634  0.0941
32779W        W75691  29.131   5.473  25.282 -0.1687  0.0024  0.2524
32780W        W75692  29.313   4.753  24.892  0.0848  0.1211 -0.2045
32781W        W75693  32.808   6.739  27.964  0.0766 -0.0541  0.0257
32782W        W75694  30.844   7.133  24.359 -0.0197 -0.1305 -0.1690
32783W        W75695  29.834   7.738  25.983 -0.1437 -0.1248  0.0292
32784W        W75696  30.876   4.354  27.282 -0.2377 -0.0990 -0.3224
32785W        W75697  31.291   5.677  27.326  0.2409 -0.0139  0.2526
32786W        W75698  28.651   6.959  24.589 -0.1625 -0.1189 -0.0173
32787W        W75699  30.780   5.473  25.726 -0.0949 -0.3183  0.2070
32788W        W75700  30.559   6.733  24.023  0.0299 -0.1058  0.0229
32789W        W75701  28.122   2.377  26.777 -0.1917  0.1321  0.1208
32790W        W75702  30.402   6.219  27.362 -0.0890 -0.2223 -0.0997
32791W        W75703  32.346   2.912  24.124 -0.0721 -0.1921 -0.2084
32792W        W75704  30.668   4.458  26.288  0.0879  0.0419  0.1669
32793W        W75705  32.682   3.667  25.632 -0.0801 -0.0125 -0.1450
32794W        W75706  29.720   6.380  25.752 -0.0045 -0.1982 -0.1641
32795W        W75707  31.949   7.253  24.624 -0.1522  0.2268 -0.0694
32796W        W75708  31.577   4.642  24.114 -0.0052  0.1876  0.5268
32797W        W75709  31.881   5.798  24.780  0.0123 -0.1491  0.0960
32798W        W75710  29.488   6.049  27.119  0.2529  0.1279  0.1808
32799W        W75711  30.444   4.677  23.530  0.0894 -0.3580  0.0368
32800W        W75712  31.091   3.717  26.156 -0.0799  0.2882 -0.0231
32801W        W75713  29.195   4.666  26.356  0.1957 -0.1000 -0.1482
32802W        W75714  33.629   5.119  26.703  0.0351 -0.0229  0.0002
32803W        W75715  28.381   5.790  25.781 -0.1769 -0.2394  0.1302
32804W        W75716  32.970   4.529  25.088  0.1184  0.3967 -0.2215
32805W        W75717  29.758   5.911  24.794  0.0934 -0.1621  0.0257
32806W        W75718  29.168   6.198  23.089 -0.0147 -0.1492 -0.1566
32807W        W75719  31.723   3.877  26.938 -0.1842 -0.2377 -0.1846
32808W        W75720  32.247   7.626  25.396  0.0357  0.1882 -0.1569
32809W        W75721  31.910   7.053  27.031 -0.0081 -0.2026  0.3026
32810W        W75722  32.228   6.162  24.943  0.0874 -0.2976  0.1173
32811W        W75723  28.997   3.782  26.860 -0.2298 -0.1765  0.0500
32812W        W75724  29.673   4.054  25.041  0.2436 -0.1584  0.2141
32813W        W75725  29.327   6.757  25.152  0.0680 -0.1268  0.2108
32814W        W75726  29.143   7.979  25.387 -0.1376  0.5848 -0.0052
32815W        W75727  30.599   5.425  24.617 -0.2684 -0.0940  0.1110
32816W        W75728  32.047   7.193  25.173  0.3134 -0.1633 -0.1795
32817W        W75729  29.665   5.046  25.145  0.1062  0.0425 -0.0618
32818W        W75730  31.844   5.351  26.604  0.0284  0.0673  0.2072
32819W        W75731  32.244   4.031  27.091 -0.3652  0.2439 -0.2694
32820W        W75732  32.571   4.324  28.037 -0.0695 -0.3137 -0.2865
32821W        W75733  31.195   4.090  25.092 -0.0074 -0.0594 -0.2628
32822W        W75734  29.970   3.469  24.387  0.0453  0.2189 -0.2057
32823W        W75735  32.403   7.197  26.164  0.0667  0.1622  0.4216
32824W        W75736  28.889   6.605  24.238 -0.3317 -0.0762  0.1112
32825W        W75737  28.296   4.504  25.529  0.0500 -0.1246 -0.0340
32826W        W75738  29.621   8.747  25.218  0.0057 -0.0833  0.4472
32827W        W75739  33.111   3.729  25.113  0.0212  0.0960  0.3146
32828W        W75740  30.702   4.715  27.676  0.0589  0.1274 -0.0416
32829W        W75741  30.868   5.324  27.091 -0.0040 -0.0249  0.1044
32830W        W75742  29.308   6.181  22.628 -0.0998  0.0150 -0.3123
32831W        W75743  30.955   6.257  28.193  0.1643 -0.0171 -0.0847
32832W        W75744  32.637   4.371  25.842 -0.1807  0.1676  0.0431
32833W        W75745  33.098   3.375  24.040 -0.2699  0.0668 -0.0784
32834W        W75746  32.459   5.878  28.623 -0.1212 -0.0852  0.0739
32835W        W75747  30.585   5.432  25.151 -0.0897  0.0711 -0.2548
32836W        W75748  32.598   3.404  23.925 -0.1690 -0.1749  0.1363
32837W        W75749  31.898   3.718  24.304  0.2493  0.3060 -0.0933
32838W        W75750  30.570   5.212  27.517  0.3281 -0.1274  0.1024
32839W        W75751  30.110   6.399  25.088  0.0040  0.2143  0.0704
32840W        W75752  30.375   4.658  24.632 -0.2225  0.0691 -0.0193
32841W        W75753  32.590   4.350  23.367 -0.1481 -0.4217 -0.0419
32842W        W75754  32.481   6.446  24.673 -0.0192 -0.0413  0.1864
32843W        W75755  30.369   5.543  26.012  0.0175  0.0886  0.1240
32844W        W75756  31.474   5.733  26.842 -0.1018  0.0969  0.1683
32845W        W75757  30.682   5.987  26.002  0.5223 -0.1258 -0.1564
32846W        W75758  31.778   4.256  25.829  0.3388 -0.0554  0.0446
32847W        W75759  30.438   4.635  24.150 -0.0228 -0.1260  0.0913
32848W        W75760  31.427   4.526  26.552  0.0577 -0.3537 -0.1827
32849W        W75761  27.704   7.023  24.114  0.1987 -0.3393  0.1281
32850W        W75762  32.326   5.132  27.301  0.0715  0.1268 -0.1022
32851W        W75763  33.080   4.415  26.123  0.1254 -0.1413  0.2336
32852W        W75764  31.295   4.057  26.741 -0.0266  0.0957 -0.0683
32853W        W75765  33.295   5.795  27.262 -0.2742 -0.2337  0.0407
32854W        W75766  32.580   5.028  23.227 -0.0789 -0.4005  0.3659
32855W        W75767  31.095   5.464  24.442 -0.1899 -0.1207  0.1114
32856W        W75768  30.806   4.267  23.904  0.1443 -0.2534 -0.1148
32857W        W75769  31.987   4.536  26.351  0.2669 -0.0614  0.0648
32858W        W75770  30.586   5.065  26.050 -0.3153  0.1107 -0.3106
32859W        W75771  29.965   6.904  26.597 -0.0529 -0.0843  0.0326
32860W        W75772  32.348   7.378  27.465 -0.1881 -0.4900  0.1502
32861W        W75773  32.741   5.893  25.177  0.0446  0.1368  0.0238
32862W        W75774  31.280   3.945  27.256 -0.0396 -0.0648  0.0551
32863W        W75775  31.474   4.610  24.576 -0.3327 -0.2108 -0.1193
32864W        W75776  31.176   7.073  24.690 -0.1960 -0.1750  0.0277
32865W        W75777  29.838   5.752  24.196 -0.1313 -0.4496 -0.0576
32866W        W75778  29.228   4.297  25.044  0.0440  0.1511 -0.0929
32867W        W75779  30.285   8.025  25.929 -0.3024  0.1739  0.2693
32868W        W75780  30.334   5.886  25.034 -0.0042 -0.0032  0.2546
32869W        W75781  31.294   4.453  27.064 -0.0711 -0.0510 -0.2284
32870W        W75782  29.733   7.223  25.328 -0.1108  0.0850  0.0502
32871W        W75783  32.345   3.526  26.952  0.1354  0.3747  0.1038
32872W        W75784  29.373   6.053  25.679  0.2169 -0.1450  0.0726
32873W        W75785  31.140   4.178  24.521  0.0972 -0.0226  0.0733
32874W        W75786  28.724   4.927  24.907 -0.2530  0.0631  0.4081
32875W        W75787  32.490   3.545  25.161 -0.1034 -0.0880  0.0833
32876W        W75788  32.335   5.743  24.534  0.2916 -0.0705 -0.0452
32877W        W75789  29.735   4.875  26.240  0.0655 -0.3477  0.0719
32878W        W75790  30.302   3.834  24.628 -0.1024  0.1343  0.0018
32879W        W75791  29.988   6.832  25.570 -0.3735 -0.0194 -0.4459
32880W        W75792  31.180   5.348  26.563 -0.2417 -0.0802 -0.3199
32881W        W75793  32.087   5.338  23.931  0.1574  0.3376 -0.3468
32882W        W75794  31.937   5.851  26.523  0.0563 -0.1986  0.7775
32883W        W75795  30.976   5.747  26.885  0.0737 -0.0959 -0.2120
32884W        W75796  30.219   3.778  23.594 -0.0349  0.1564  0.1187
32885W        W75797  33.014   4.542  27.184  0.1528  0.2282  0.0483
32886W        W75798  31.349   4.375  25.588 -0.1112 -0.2495 -0.1095
32887W        W75799  28.854   5.865  25.540  0.0235 -0.0482  0.0146
32888W        W75800  31.186   5.851  25.927  0.0538 -0.1230 -0.1744
32889W        W75801  29.229   5.643  24.633  0.2143 -0.1498 -0.1992
32890W        W75802  30.887   6.981  25.721  0.0384 -0.0302 -0.1330
32891W        W75803  30.300   4.384  27.846  0.0391 -0.0042 -0.1513
32892W        W75804  32.559   5.827  27.445  0.1671 -0.2291 -0.1324
32893W        W75805  30.686   3.644  25.846 -0.1905  0.0122 -0.0422
32894W        W75806  29.974   3.239  24.865 -0.0017 -0.0132  0.0169
32895W        W75807  28.917   4.905  26.696  0.0034 -0.0131 -0.1742
32896W        W75808  31.538   4.944  26.290  0.2618  0.1227 -0.3024
32897W        W75809  31.182   4.892  26.902 -0.0010 -0.1150  0.1667
32898W        W75810  30.522   5.433  28.070 -0.0827  0.1662  0.2137
32899W        W75811  31.132   3.924  25.668  0.0923 -0.1417  0.0859
32900W        W75812  31.789   6.994  22.910 -0.1745 -0.0848  0.0418
32901W        W75813  32.644   4.862  26.996 -0.0569 -0.3100  0.0232
32902W        W75814  30.038   5.544  24.622 -0.1210  0.0192  0.0465
32903W        W75815  28.613   6.338  25.588 -0.1566 -0.0333  0.2820
32904W        W75816  29.771   6.940  24.491  0.0451  0.0332 -0.1022
32905W        W75817  32.227   3.953  25.132  0.3013 -0.1125 -0.0565
32906W        W75818  28.889   7.046  26.772  0.0461 -0.0843  0.0366
32907W        W75819  29.654   6.281  25.266 -0.1094 -0.0447 -0.0117
32908W        W75820  28.896   5.266  25.807 -0.2127  0.0416  0.0351
32909W        W75821  32.640   4.110  25.318 -0.2478 -0.2533 -0.0188
32910W        W75822  29.494   7.504  24.426 -0.0547  0.4667  0.4059
32911W        W75823  29.816   4.287  26.411  0.0731  0.0642  0.1661
32912W        W75824  33.066   3.646  27.510  0.2699 -0.0758  0.1388
32913W        W75825  31.815   5.412  25.168  0.1357 -0.3349 -0.2152
32914W        W75826  32.491   3.693  28.383  0.1701 -0.0999 -0.0153
32915W        W75827  30.193   4.701  26.338  0.0218 -0.2903  0.2834
32916W        W75828  32.713   6.435  26.639 -0.0563 -0.0134  0.0742
32917W        W75829  28.225   4.836  26.550 -0.3790  0.2412  0.0642
32918W        W75830  31.974   7.567  28.130  0.0305 -0.1305  0.0038
32919W        W75831  29.850   5.629  27.147  0.1732 -0.3200 -0.4520
32920W        W75832  32.634   4.743  25.508  0.0523  0.0703 -0.1809
32921W        W75833  29.532   3.536  24.925 -0.0576  0.2190 -0.0380
32922W        W75834  30.603   6.286  25.316 -0.0404 -0.0982 -0.1016
32923W        W75835  31.981   5.498  25.586 -0.0049 -0.5035 -0.2545
32924W        W75836  29.606   5.228  24.699 -0.2606 -0.0531  0.0400
32925W        W75837  31.934   4.898  24.332 -0.4501 -0.3031 -0.2032
32926W        W75838  29.121   4.966  25.388  0.0940  0.3606 -0.1188
32927W        W75839  32.493   5.215  25.743 -0.0004 -0.0365  0.1497
32928W        W75840  31.506   5.489  24.102 -0.3654  0.0500  0.1211
32929W        W75841  30.444   7.711  25.541 -0.0975 -0.1002 -0.1055
32930W        W75842  29.385   2.971  27.444 -0.4056 -0.2016 -0.1191
32931W        W75843  31.696   4.894  24.951 -0.0316  0.1635 -0.2830
32932W        W75844  32.499   4.490  26.361  0.1905  0.0140 -0.2849
32933W        W75845  31.957   4.356  26.848  0.3968 -0.0084 -0.0856
32934W        W75846  31.681   4.641  27.909 -0.2205 -0.2592 -0.0458
32935W        W75847  30.040   5.812  26.424  0.4089 -0.0819 -0.5313
32936W        W75848  29.563   4.518  27.173  0.1252  0.0171  0.1818
32937W        W75849  30.572   6.422  26.232  0.1424  0.0225  0.0616
32938W        W75850  31.834   5.740  22.817 -0.0632 -0.0413 -0.0212
32939W        W75851  30.452   4.546  25.818 -0.0584  0.0872 -0.1940
32940W        W75852  31.458   5.726  26.303  0.1388 -0.0183 -0.0203
32941W        W75853  30.191   5.337  25.458 -0.0112 -0.2782 -0.0626
32942W        W75854  30.253   7.157  27.603  0.2482 -0.0400 -0.0321
32943W        W75855  32.328   5.112  29.492 -0.4531  0.1730  0.1976
32944W        W75856  29.166   4.430  24.208 -0.0673 -0.2246  0.0165
32945W        W75857  32.202   3.930  27.650  0.0441 -0.6355  0.1568
32946W        W75858  30.262   6.996  25.172 -0.2613  0.0827  0.1089
32947W        W75859  33.193   5.979  24.934 -0.0231  0.0669 -0.0489
32948W        W75860  30.931   3.841  24.242 -0.2257 -0.2112  0.0171
32949W        W75861  29.393   6.131  26.585  0.1264 -0.0005  0.1138
32950W        W75862  30.540   5.684  27.391 -0.3967 -0.3101 -0.4469
32951W        W75863  29.765   3.520  23.956  0.4563  0.0391  0.1727
32952W        W75864  31.146   5.097  24.062 -0.3005 -0.1212 -0.0631
32953W        W75865  31.701   5.951  25.832  0.1391 -0.0363 -0.0646
32954W        W75866  32.487   4.789  27.556 -0.2441  0.0304 -0.1640
32955W        W75867  30.521   3.803  23.102  0.2495  0.0388  0.0074
32956W        W75868  33.108   3.599  28.001 -0.2703 -0.0318  0.2376
32957W        W75869  29.356   3.972  24.144  0.1114 -0.1748  0.3127
32958W        W75870  31.750   4.056  25.375  0.0932  0.0256  0.2306
32959W        W75871  30.285   8.209  26.530 -0.2219 -0.0738 -0.1012
32960W        W75872  29.571   5.694  26.725 -0.2461  0.2124  0.3879
32961W        W75873  31.030   8.194  24.584 -0.1218  0.2635 -0.2648
32962W        W75874  31.926   4.625  25.410 -0.0623  0.2930  0.0105
32963W        W75875  32.123   5.068  25.238  0.2954  0.2053 -0.0927
32964W        W75876  30.569   5.005  25.576  0.1031  0.1606 -0.2558
32965W        W75877  33.162   5.712  26.297 -0.0396 -0.1675 -0.3883
32966W        W75878  31.891   5.897  27.296 -0.2125  0.0338 -0.0649
32967W        W75879  30.178   5.060  24.936 -0.0873 -0.0279 -0.2735
32968W        W75880  31.669   6.407  25.837  0.2128 -0.0055  0.1490
32969W        W75881  31.154   5.475  25.292  0.1542 -0.2290 -0.0616
32970W        W75882  30.363   7.756  26.316 -0.0447 -0.3703  0.2267
32971W        W75883  29.573   5.308  27.532  0.1397 -0.0662 -0.1217
32972W        W75884  31.887   5.364  27.112  0.0828  0.0892 -0.5701
32973W        W75885  30.696   6.188  24.777  0.1483 -0.0850  0.2359
32974W        W75886  30.649   3.887  25.330  0.1756 -0.2931 -0.1337
32975W        W75887  30.072   7.198  24.766  0.3619  0.2104 -0.0047
32976W        W75888  30.429   5.383  26.587 -0.3740  0.1033 -0.4353
32977W        W75889  30.642   6.405  26.936  0.3855 -0.2319 -0.0701
32978W        W75890  31.199   6.894  23.501 -0.0237  0.0118  0.1072
32979W        W75891  30.992   5.198  24.910  0.0547  0.0060 -0.0201
32980W        W75892  30.984   5.758  24.878  0.1990 -0.2141  0.0044
32981W        W75893  30.057   7.056  27.121 -0.0613  0.2709 -0.0686
32982W        W75894  30.299   5.485  24.134 -0.0555 -0.4791  0.2771
32983W        W75895  29.888   6.339  26.293  0.2042  0.2949 -0.5687
32984W        W75896  30.070   4.993  23.293  0.1887 -0.3814 -0.4046
32985W        W75897  31.475   5.882  23.756 -0.1707 -0.0773  0.2430
32986W        W75898  29.165   7.085  25.996  0.0303 -0.1172 -0.0519
32987W        W75899  32.274   5.746  26.980 -0.0641 -0.1761 -0.1239
32988W        W75900  33.905   3.986  24.224  0.0026 -0.2514  0.2672
32989W        W75901  32.208   5.021  26.169  0.1407  0.0890  0.1645
32990W        W75902  33.366   4.197  25.160 -0.3187  0.1378 -0.0377
32991W        W75903  32.291   6.742  25.954  0.1059 -0.0825 -0.2532
32992W        W75904  29.548   3.883  26.484  0.1995 -0.0922 -0.0760
32993W        W75905  31.501   5.523  22.123  0.2892 -0.1355 -0.5065
32994W        W75906  29.879   5.395  25.871 -0.0078 -0.0079  0.1638
32995W        W75907  33.895   4.577  26.762  0.0512  0.1169 -0.0443
32996W        W75908  29.039   5.845  26.779 -0.0442  0.0290 -0.0055
32997W        W75909  30.712   8.138  21.936  0.1163  0.0635  0.2502
32998W        W75910  29.346   5.916  25.122  0.0759 -0.2137  0.0474
32999W        W75911  29.943   4.439  25.904  0.0004  0.0317  0.4424
33000W        W75912  33.739   3.053  27.916 -0.0791  0.0799 -0.0601
33001W        W75913  30.284   4.228  23.786  0.0201  0.0235  0.0960
33002W        W75914  30.884   4.372  26.761 -0.2036  0.3442  0.2745
33003W        W75915  29.990   7.679  24.450 -0.0852  0.3001 -0.1842
33004W        W75916  30.513   5.944  26.460 -0.2145  0.1720 -0.0732
33005W        W75917  29.847   6.796  25.038  0.1401  0.3367 -0.0807
33006W        W75918  29.135   5.070  24.579 -0.1101 -0.0906 -0.1107
33007W        W75919  32.956   5.177  24.082  0.0051 -0.2982 -0.1374
33008W        W75920  29.833   5.893  25.610  0.1332  0.0507 -0.3148
33009W        W75921  32.593   4.311  27.399  0.0188  0.1784 -0.2301
33010W        W75922  29.236   4.912  25.922 -0.1881  0.0653 -0.2107
33011W        W75923  30.675   4.825  25.080 -0.2185  0.0936  0.0556
33012W        W75924  32.346   6.722  27.002 -0.0599  0.1013 -0.0113
33013W        W75925  30.151   4.737  26.870  0.0665  0.0556 -0.1798
33014W        W75926  31.198   4.750  22.867 -0.1456  0.3413 -0.0739
33015W        W75927  32.342   6.242  26.888  0.1269 -0.0980 -0.2959
33016W        W75928  33.885   2.649  23.722 -0.0816  0.1900 -0.4089
33017W        W75929  31.291   6.705  26.020 -0.1979  0.0422 -0.2173
33018W        W75930  28.691   4.590  27.800  0.0459  0.0556  0.1862
33019W        W75931  32.350   3.844  24.150 -0.0450 -0.1828  0.0809
33020W        W75932  30.358   5.942  25.519 -0.0903 -0.2245  0.0001
33021W        W75933  31.093   6.623  26.591 -0.0664 -0.0255 -0.3132
33022W        W75934  31.329   7.139  26.468 -0.0050 -0.0888 -0.0302
33023W        W75935  28.608   4.549  26.919 -0.1696  0.1831  0.1636
33024W        W75936  31.894   6.359  23.461 -0.0627  0.1394 -0.2748
33025W        W75937  33.450   5.464  25.774 -0.0248 -0.0480 -0.0689
33026W        W75938  30.981   7.094  23.864  0.0764 -0.0828  0.1927
33027W        W75939  33.057   5.482  25.174  0.3103  0.3961 -0.2792
33028W        W75940  31.955   6.150  25.402  0.1760  0.0068 -0.2079
33029W        W75941  28.613   4.491  26.398 -0.0144  0.0452  0.2908
33030W        W75942  31.084   7.118  25.225 -0.0749 -0.0151 -0.1043
33031W        W75943  32.830   5.960  26.954 -0.0506 -0.1030  0.2902
33032W        W75944  29.793   4.041  23.758 -0.1928  0.1872 -0.4331
33033W        W75945  29.061   5.277  26.265  0.2534  0.2211  0.2238
33034W        W75946  30.681   6.752  25.326 -0.1636  0.0431  0.0081
33035W        W75947  32.892   5.315  26.060  0.0418  0.0340  0.1298
33036W        W75948  32.316   5.311  26.824 -0.0191  0.0101 -0.1091
33037W        W75949  30.804   6.479  25.767 -0.1606 -0.2366  0.0916
33038W        W75950  32.173   3.336  27.513 -0.2288  0.1141 -0.0015
33039W        W75951  30.165   7.329  26.116  0.2832 -0.2026  0.0501
33040W        W75952  30.680   6.968  27.725  0.1258 -0.1105 -0.0330
33041W        W75953  29.693   5.350  23.307  0.1025 -0.0977 -0.1508
33042W        W75954  31.169   5.134  25.993  0.0247 -0.1378  0.0355
33043W        W75955  31.571   6.736  24.634  0.0395 -0.0018 -0.1600
33044W        W75956  31.496   7.454  24.835 -0.2910 -0.3412 -0.0992
33045W        W75957  32.391   6.641  25.288  0.2050 -0.1044  0.3646
33046W        W75958  31.750   4.908  25.834 -0.1410 -0.0947  0.2436
33047W        W75959  32.428   5.989  26.492 -0.0074  0.1867 -0.0336
33048W        W75960  31.531   5.082  25.381 -0.0455 -0.1794 -0.2305
33049W        W75961  34.580   3.168  25.507 -0.1589  0.1325  0.2786
33050W        W75962  33.790   3.933  24.780  0.0950 -0.1320 -0.3778
33051W        W75963  30.166   6.744  26.146 -0.1945  0.4549 -0.0107
33052W        W75964  29.143   5.161  22.690 -0.0627 -0.0268  0.2989
33053W        W75965  29.630   5.850  23.731 -0.4214 -0.0909  0.0788
33054W        W75966  29.321   6.359  26.158  0.0418  0.1855 -0.1094
33055W        W75967  32.004   3.458  26.599 -0.0829 -0.0950 -0.1409
33056W        W75968  29.309   4.925  27.099  0.0364 -0.0401 -0.2414
33057W        W75969  29.028   6.033  27.386  0.0912 -0.2119  0.1900
33058W        W75970  29.537   4.335  24.665  0.2131  0.2186  0.0774
33059W        W75971  31.362   7.494  22.970 -0.0539 -0.0343 -0.2223
33060W        W75972  30.276   4.194  25.377 -0.0694 -0.2024 -0.3103
33061W        W75973  29.701   4.714  26.722  0.1576  0.0429  0.1155
33062W        W75974  31.479   5.494  25.676  0.1190 -0.2907 -0.0095
33063W        W75975  31.125   6.240  26.225  0.1538 -0.1542  0.1749
33064W        W75976  31.669   4.172  24.434 -0.3278  0.3529  0.4355
33065W        W75977  32.712   5.549  26.621  0.1100  0.2560  0.1416
33066W        W75978  28.656   5.400  24.490 -0.0409  0.1382 -0.0251
33067W        W75979  29.854   5.259  26.767 -0.2322 -0.2478 -0.1087
33068W        W75980  30.145   4.811  27.509  0.2914 -0.0939  0.1326
33069W        W75981  30.117   4.282  24.850 -0.2790 -0.2707 -0.0608
33070W        W75982  30.926   4.297  25.873  0.2247  0.4259 -0.0132
33071W        W75983  31.063   6.457  25.219  0.0438 -0.0770  0.2738
33072W        W75984  33.551   6.727  24.796  0.0693 -0.3308  0.0426
33073W        W75985  32.097   6.372  26.414 -0.1746  0.0131  0.1429
33074W        W75986  30.650   4.921  26.647 -0.0039  0.2281  0.3388
33075W        W75987  29.315   3.479  26.634  0.0812 -0.4900 -0.3904
33076W        W75988  32.788   4.098  24.769 -0.3912  0.1699  0.1498
33077W        W75989  31.661   5.778  27.719  0.2312 -0.0839  0.1255
33078W        W75990  32.322   5.481  23.496  0.1800 -0.1024  0.0738
33079W        W75991  32.382   4.848  24.798 -0.1724  0.1359 -0.1057
33080W        W75992  31.932   5.854  24.025 -0.1432  0.1722 -0.1253
33081W        W75993  30.767   3.051  28.392  0.0974 -0.0120 -0.0398
33082W        W75994  31.275   6.592  27.745  0.1868  0.0721 -0.0980
33083W        W75995  33.557   6.064  26.217  0.1334 -0.3074 -0.6151
33084W        W75996  31.776   4.887  26.745  0.3780 -0.0105 -0.2392
33085W        W75997  32.320   4.512  25.184  0.1547 -0.2211  0.3189
33086W        W75998  31.263   6.167  24.856  0.0791 -0.0339 -0.1760
33087W        W75999  30.236   6.423  25.635  0.4680 -0.0293  0.0429
33088W        W76000  30.784   4.893  24.566 -0.2241  0.1702 -0.1574
33089W        W76001  31.578   4.852  27.330  0.0597  0.1615  0.0329
33090W        W76002  31.821   8.034  25.734  0.1577  0.2719 -0.0844
33091W        W76003  32.119   4.697  27.141  0.0359 -0.1908 -0.1458
33092W        W76004  29.251   5.810  24.159  0.1699  0.1032  0.0481
33093W        W76005  32.811   6.020  23.064 -0.2164  0.1765  0.0037
33094W        W76006  30.979   7.529  26.399 -0.1349  0.1428 -0.0419
33095W        W76007  31.779   8.158  28.021  0.4040 -0.1380 -0.0077
33096W        W76008  30.509   6.922  26.843  0.0672 -0.1110 -0.0780
33097W        W76009  31.909   6.159  27.745  0.0780  0.1883  0.1685
33098W        W76010  29.090   4.141  26.447 -0.1751  0.0498  0.4687
33099W        W76011  30.229   5.983  24.546  0.0341 -0.0700 -0.0912
33100W        W76012  28.969   7.066  24.995  0.0536  0.2253 -0.0830
33101W        W76013  31.134   4.571  24.940  0.0123 -0.0528  0.5131
33102W        W76014  29.370   5.088  26.585 -0.0670  0.1241 -0.0664
33103W        W76015  31.921   3.556  24.760  0.0265  0.0206  0.0289
33104W        W76016  31.643   6.783  27.363 -0.0225  0.0584  0.1482
33105W        W76017  32.284   6.883  26.523  0.1394 -0.2004  0.2357
33106W        W76018  30.529   6.572  30.601 -0.0065 -0.2355  0.2521
33107W        W76019  30.251   4.603  28.331 -0.0358  0.0276  0.0599
33108W        W76020  32.189   4.419  27.795 -0.2009  0.2129  0.2799
33109W        W76021  32.897   6.138  29.576  0.1733  0.1010  0.2202
33110W        W76022  30.024   5.180  28.332 -0.2463 -0.1936  0.0515
33111W        W76023  32.199   7.178  27.906 -0.1940 -0.0283 -0.0861
33112W        W76024  29.246   3.822  30.344 -0.0613  0.2738 -0.0945
33113W        W76025  31.646   6.216  29.213  0.0503 -0.0733  0.2331
33114W        W76026  31.183   7.504  29.697 -0.2939  0.0548  0.0504
33115W        W76027  32.394   6.831  28.288 -0.0553 -0.0100 -0.1933
33116W        W76028  30.968   5.269  30.691 -0.1472 -0.1338 -0.0530
33117W        W76029  30.193   6.806  29.197 -0.2166  0.0836 -0.2430
33118W        W76030  29.950   4.065  27.903 -0.3473 -0.1759  0.0368
33119W        W76031  28.967   3.672  29.468  0.0412 -0.0264 -0.1658
33120W        W76032  33.256   4.330  29.754 -0.2343 -0.1922 -0.2906
33121W        W76033  31.018   5.737  29.252  0.0358 -0.0463 -0.2204
33122W        W76034  30.581   4.463  29.138  0.1701 -0.0371  0.1018
33123W        W76035  31.206   4.606  27.711  0.0510  0.1894 -0.0092
33124W        W76036  30.245   8.129  28.912 -0.0923  0.2970 -0.0021
33125W        W76037  30.168   3.124  31.069  0.2333  0.1017  0.0169
33126W        W76038  30.954   2.477  31.370 -0.1648 -0.1143  0.0082
33127W        W76039  29.511   6.318  28.092 -0.1020  0.2973  0.1974
33128W        W76040  30.315   4.236  26.577 -0.1682 -0.1946 -0.2324
33129W        W76041  29.645   5.796  27.609  0.0597  0.1167 -0.2179
33130W        W76042  31.986   5.551  29.889  0.0780 -0.0269 -0.1448
33131W        W76043  30.783   3.669  30.036 -0.1085 -0.0757 -0.2268
33132W        W76044  32.807   6.597  30.375  0.1023  0.2182  0.0136
33133W        W76045  30.735   7.588  29.482 -0.0501 -0.1599 -0.1883
33134W        W76046  30.407   7.220  29.481  0.2866  0.0882 -0.0311
33135W        W76047  30.630   4.896  30.855 -0.0025  0.0407 -0.0953
33136W        W76048  28.330   5.442  28.873 -0.2767  0.1045 -0.2067
33137W        W76049  28.345   7.621  29.422 -0.0728  0.1816  0.0449
33138W        W76050  29.502   7.068  26.999  0.1422  0.1279  0.3187
33139W        W76051  31.893   5.988  29.593 -0.0452 -0.2182 -0.0881
33140W        W76052  33.273   6.657  30.519 -0.0021 -0.0431  0.0310
33141W        W76053  30.854   8.180  31.942  0.1790 -0.3816 -0.2247
33142W        W76054  28.517   7.311  27.113  0.2459  0.0405  0.0540
33143W        W76055  31.453   7.581  31.287  0.0651  0.3043  0.1070
33144W        W76056  30.669   6.968  30.889 -0.0355  0.1764 -0.1471
33145W        W76057  30.716   5.712  31.323 -0.0114  0.0884  0.1460
33146W        W76058  32.035   4.457  30.191  0.2659  0.1739  0.0910
33147W        W76059  30.273   7.170  28.885  0.0482  0.0280  0.0006
33148W        W76060  31.309   6.555  29.953 -0.0670  0.4932 -0.3197
33149W        W76061  30.041   6.436  30.721 -0.1148 -0.0960 -0.2445
33150W        W76062  30.853   6.129  29.768 -0.0779 -0.1039 -0.0524
33151W        W76063  32.452   4.221   0.411 -0.1147 -0.3024  0.1495
33152W        W76064  28.894   7.099  29.502 -0.1493 -0.0258  0.1406
33153W        W76065  33.512   3.870  27.833 -0.1379  0.1313  0.3639
33154W        W76066  31.852   3.322  27.062 -0.1180 -0.0540  0.2190
33155W        W76067  32.757   5.017  29.798 -0.3285 -0.0504 -0.1133
33156W        W76068  31.201   3.678  29.109  0.2885  0.1440 -0.1304
33157W        W76069  28.865   7.516  29.228  0.2865 -0.1197 -0.0999
33158W        W76070  28.727   3.761  30.380 -0.1550 -0.0253 -0.1013
33159W        W76071  33.863   6.339  30.623 -0.0937 -0.2334  0.0221
33160W        W76072  31.529   5.633  29.288  0.2353 -0.0357 -0.3527
33161W        W76073  31.781   5.328  31.314 -0.4046  0.1553 -0.2105
33162W        W76074  29.064   6.875  30.953  0.0492  0.2497  0.0060
33163W        W76075  30.563   4.541  30.087  0.3980 -0.0622 -0.0950
33164W        W76076  33.337   6.829  28.339  0.1005 -0.1758  0.1961
33165W        W76077  33.290   6.868  29.139  0.1593 -0.0984 -0.0375
33166W        W76078  31.129   6.496  27.229  0.0435  0.1134  0.0670
33167W        W76079  29.910   6.499  28.355 -0.0542  0.3053 -0.2394
33168W        W76080  29.359   6.536  30.212  0.1514 -0.0243 -0.1079
33169W        W76081  28.568   4.697  31.742 -0.0656 -0.0639 -0.1085
33170W        W76082  29.396   4.082  26.933 -0.2819 -0.1191 -0.1817
33171W        W76083  33.557   7.412  31.511 -0.2945  0.0623  0.1055
33172W        W76084  28.909   6.252  30.052 -0.1537  0.2127  0.0662
33173W        W76085  31.957   4.811  29.171  0.0302  0.2763 -0.1258
33174W        W76086  30.561   5.737  30.067  0.0108  0.1214  0.0368
33175W        W76087  33.107   6.520  29.804  0.0430 -0.0427 -0.2951
33176W        W76088  31.449   6.198  27.438  0.1689  0.0060  0.0895
33177W        W76089  30.173   3.702  30.481 -0.1453  0.0012 -0.3757
33178W        W76090  31.349   4.925  30.454  0.2048  0.2541 -0.2465
33179W        W76091  30.388   5.653  28.532 -0.1114  0.2086 -0.3467
33180W        W76092  31.478   5.736  28.233 -0.0380 -0.0330  0.1995
33181W        W76093  30.975   6.527  28.603 -0.3856  0.1963 -0.1175
33182W        W76094  34.004   5.029  27.049  0.2535  0.0322  0.1504
33183W        W76095  29.452   7.686  28.800 -0.0875 -0.2566  0.0237
33184W        W76096  30.001   3.359  29.505  0.2718  0.0572  0.2324
33185W        W76097  30.488   7.620   1.041  0.1071  0.1172 -0.3018
33186W        W76098  30.587   7.742  28.525 -0.0513 -0.2206 -0.2288
33187W        W76099  30.015   5.963  30.062  0.0071 -0.1084 -0.0040
33188W        W76100  29.439   6.759  28.305 -0.1610  0.2903 -0.1545
33189W        W76101  29.583   5.531  30.088 -0.4010 -0.1390 -0.0590
33190W        W76102  30.047   5.344  30.884 -0.0662  0.0822 -0.2862
33191W        W76103  32.236   4.559  28.772 -0.2556  0.1877 -0.2952
33192W        W76104  29.226   3.535  29.952 -0.0770 -0.1055  0.2537
33193W        W76105  32.619   3.788  30.128 -0.3981  0.0332  0.4550
33194W        W76106  30.959   5.577  29.766  0.3080 -0.2016 -0.2396
33195W        W76107  32.830   7.344  27.881 -0.0205 -0.1492 -0.2796
33196W        W76108  31.936   5.252  28.986  0.0042 -0.0420 -0.0506
33197W        W76109  31.216   7.055  27.585 -0.2319  0.0611 -0.0693
33198W        W76110  29.168   5.816  30.052  0.2462 -0.1015 -0.0154
33199W        W76111  30.615   4.012  30.352  0.3708  0.0136  0.0515
33200W        W76112  27.841   4.095  31.040  0.0406 -0.0727  0.2318
33201W        W76113  28.822   5.112  29.666 -0.0687  0.1879  0.1131
33202W        W76114  30.645   4.868  31.550  0.1095  0.2491  0.0832
33203W        W76115  30.230   4.180  28.913  0.0142  0.2623  0.1909
33204W        W76116  31.764   4.241  29.769 -0.1645 -0.1793 -0.2575
33205W        W76117  33.652   5.228  29.807  0.0593 -0.4605  0.0016
33206W        W76118  29.194   6.748  27.778  0.1704  0.1296  0.1550
33207W        W76119  31.976   4.329  31.124  0.3635  0.0401  0.0655
33208W        W76120  30.621   6.127  29.281  0.2781 -0.1437  0.1114
33209W        W76121  33.551   8.089  31.161  0.2793 -0.1990 -0.2408
33210W        W76122  33.299   6.473  28.843  0.1316 -0.2376  0.0236
33211W        W76123  28.995   5.336  30.088  0.0132  0.3283 -0.0677
33212W        W76124  29.065   3.305  27.043  0.1880  0.0739  0.2199
33213W        W76125  29.947   6.341  29.066  0.0972 -0.2733  0.2338
33214W        W76126  29.995   7.850  30.103 -0.2659  0.0921  0.1900
33215W        W76127  31.247   4.281  28.062  0.1965 -0.2000  0.2104
33216W        W76128  30.793   7.527  27.788  0.0022 -0.1568  0.0979
33217W        W76129  31.814   5.888  30.288  0.1301 -0.0075  0.0669
33218W        W76130  29.526   5.582   0.256  0.1377 -0.0156 -0.1407
33219W        W76131  31.389   3.170  31.758  0.2885 -0.0678  0.2169
33220W        W76132  31.360   6.254  30.979 -0.3122  0.0004  0.0593
33221W        W76133  31.814   5.214  29.479  0.1596 -0.0502  0.1713
33222W        W76134  30.467   3.260  27.530 -0.0199 -0.0841  0.0846
33223W        W76135  31.192   7.091  30.115 -0.1204  0.2502  0.2728
33224W        W76136  28.776   6.983  28.685  0.0620 -0.3200 -0.1470
33225W        W76137  30.670   4.994  28.368  0.1416 -0.0456 -0.1155
33226W        W76138  29.522   6.707  28.878 -0.0015 -0.2111  0.0828
33227W        W76139  32.147   3.222  30.704  0.0603  0.2377  0.1281
33228W        W76140  29.848   5.277  31.301  0.0507  0.0316 -0.4298
33229W        W76141  31.789   3.466   0.118  0.0118  0.1612  0.0908
33230W        W76142  29.737   5.097  28.740  0.0214  0.2519 -0.0198
33231W        W76143  30.149   6.986  30.756  0.2527  0.2350 -0.1724
33232W        W76144  31.411   3.077  30.244  0.0135  0.0861 -0.3522
33233W        W76145  32.154   4.047  30.467  0.1120  0.4011 -0.1323
33234W        W76146  30.422   6.343  30.039 -0.0328 -0.0150 -0.1336
33235W        W76147  32.106   6.880  27.457  0.0735  0.0901  0.1557
33236W        W76148  31.098   4.809  28.720 -0.2908  0.2915  0.3454
33237W        W76149  31.059   4.781  26.407 -0.2598  0.0610  0.0081
33238W        W76150  29.836   7.351  30.429  0.0493 -0.1903 -0.1410
33239W        W76151  29.379   6.955  29.372 -0.3604 -0.0968  0.0022
33240W        W76152  30.326   5.078  31.253 -0.1276  0.1567 -0.2379
33241W        W76153  31.086   4.335  28.662  0.0676 -0.1571 -0.2762
33242W        W76154  31.947   5.784  29.001 -0.0280  0.4445  0.0306
33243W        W76155  30.249   5.420  29.317 -0.1969  0.4468 -0.0696
33244W        W76156  31.486   7.044  30.885  0.2944 -0.0061  0.0010
33245W        W76157  31.685   7.104  27.980  0.0979 -0.0466  0.2279
33246W        W76158  29.715   3.385  30.273 -0.2176  0.0903 -0.4892
33247W        W76159  31.498   5.176  27.832 -0.0002 -0.0289  0.3014
33248W        W76160  31.154   5.191  28.393 -0.2005 -0.1075 -0.2907
33249W        W76161  29.676   7.088  27.453  0.2698 -0.2176  0.0658
33250W        W76162  32.365   3.267  30.156 -0.0146  0.0514 -0.2416
33251W        W76163  31.695   5.400  30.471  0.1091  0.0339  0.2948
33252W        W76164  29.607   2.621  31.825  0.1417  0.1150  0.0942
33253W        W76165  33.272   4.314  31.891  0.0624  0.1204  0.0982
33254W        W76166  32.369   5.787  30.720 -0.0830  0.3592  0.0738
33255W        W76167  31.063   6.663  31.035  0.2513  0.0009 -0.1008
33256W        W76168  29.815   5.000  27.154  0.0567 -0.0247  0.1547
33257W        W76169  31.101   4.487  30.195 -0.3879  0.2386  0.0580
33258W        W76170  29.764   6.239  30.396  0.0777 -0.0677  0.0593
33259W        W76171  30.734   7.305  29.987  0.0747  0.0654  0.1036
33260W        W76172  31.048   6.328  30.548 -0.1468  0.5200  0.2936
33261W        W76173  32.256   5.986  30.093  0.1542  0.3004  0.1651
33262W        W76174  30.797   4.846   0.036  0.1106  0.1689 -0.1481
33263W        W76175  31.318   4.580  29.558  0.1561  0.0100  0.1777
33264W        W76176  30.749   8.012  28.970  0.2340 -0.0036  0.1007
33265W        W76177  31.907   5.405  27.992  0.0797 -0.2675 -0.1080
33266W        W76178  29.507   4.018  28.231 -0.0311  0.0599  0.0314
33267W        W76179  29.124   7.138  28.363 -0.1295  0.0907 -0.3242
33268W        W76180  30.939   7.200  26.818 -0.0718  0.1600 -0.0056
33269W        W76181  31.334   6.468  31.686 -0.2380  0.0298  0.4458
33270W        W76182  28.005   5.452  28.461  0.3691 -0.0483  0.1798
33271W        W76183  30.742   4.976  30.334  0.0859 -0.1759  0.2418
33272W        W76184  29.664   7.175  30.006  0.0877  0.1387 -0.2014
33273W        W76185  30.796   4.214  27.775  0.2852 -0.0670  0.1038
33274W        W76186  29.857   5.988  28.288  0.1022 -0.3105  0.1726
33275W        W76187  31.693   3.186  28.278  0.0902 -0.2001 -0.0635
33276W        W76188  32.149   5.588  27.597 -0.0641  0.1261 -0.0120
33277W        W76189  31.117   4.239  29.263  0.2633  0.1892  0.1776
33278W        W76190  30.654   3.402  30.913  0.5342  0.2034 -0.0276
33279W        W76191  29.742   6.773  30.376 -0.0000 -0.0613  0.1877
33280W        W76192  31.423   5.868  30.614 -0.0319  0.1556  0.0060
33281W        W76193  32.147   3.644  29.959  0.1754 -0.3321  0.0829
33282W        W76194  31.365   6.922  29.623  0.1143  0.1652  0.0083
33283W        W76195  31.446   7.155  31.901  0.2582  0.0238 -0.1278
33284W        W76196  29.595   4.627  28.896  0.0166 -0.3784  0.1087
33285W        W76197  31.286   5.006   0.131 -0.2820  0.0732 -0.0228
33286W        W76198  31.901   3.621  30.426  0.1349  0.1063  0.3045
33287W        W76199  30.116   5.870  29.159 -0.0745  0.1655  0.4116
33288W        W76200  31.603   6.355  30.475 -0.2659  0.1520  0.3041
33289W        W76201  29.298   4.357  27.670 -0.0444  0.0011  0.1931
33290W        W76202  30.158   6.086  28.703  0.1794  0.0659  0.3325
33291W        W76203  30.638   4.417  30.638 -0.0109 -0.0912 -0.1158
33292W        W76204  32.662   6.757  29.920  0.1690 -0.0698 -0.0002
33293W        W76205  30.173   4.178  30.247 -0.0763 -0.3975  0.2068
33294W        W76206  30.632   4.531  28.642  0.1666 -0.0046  0.1404
33295W        W76207  32.166   5.464  30.394 -0.0959  0.0187  0.0925
33296W        W76208  31.284   6.767  30.519 -0.1249  0.3534  0.1174
33297W        W76209  31.544   4.622  31.125 -0.1510  0.1140  0.0863
33298W        W76210  30.311   6.476  31.596 -0.4918 -0.1560  0.0666
33299W        W76211  31.264   4.296  30.897 -0.1948  0.2447 -0.0636
33300W        W76212  32.936   7.706  28.971 -0.1735  0.3342  0.0086
33301W        W76213  31.883   5.791  30.820  0.1534 -0.0361  0.0257
33302W        W76214  30.375   4.990  27.960  0.0758 -0.0992  0.3240
33303W        W76215  30.081   4.631  30.070  0.1923 -0.0881 -0.1911
33304W        W76216  29.725   5.740  29.662  0.0212 -0.1984 -0.0031
33305W        W76217  29.621   4.159  30.353 -0.2052 -0.0033  0.0463
33306W        W76218  29.935   6.502  29.977  0.1978  0.0389 -0.1123
33307W        W76219  30.969   6.567  29.490  0.3186 -0.1261 -0.1507
33308W        W76220  29.275   5.365  29.539  0.1838  0.3839 -0.2221
33309W        W76221  34.261   3.044  27.850  0.1218  0.1216 -0.0673
33310W        W76222  31.002   5.020  27.953 -0.0069  0.1423  0.0995
33311W        W76223  30.227   5.274  28.845 -0.0596 -0.3405 -0.2341
33312W        W76224  33.030   4.344  29.251  0.0957  0.1649 -0.1649
33313W        W76225  31.915   6.635  28.075  0.1547 -0.1748 -0.0811
33314W        W76226  31.186   4.682  31.713 -0.1910 -0.2691  0.2704
33315W        W76227  28.407   3.429  30.262 -0.2036 -0.1211  0.5530
33316W        W76228  30.565   5.476  30.902  0.0558  0.4677  0.0058
33317W        W76229  29.219   4.800  29.636 -0.5375 -0.1175 -0.0643
33318W        W76230  30.129   7.534   0.247 -0.1340  0.0318  0.0761
33319W        W76231  29.802   6.272  31.139  0.0151 -0.0770  0.1838
33320W        W76232  31.493   3.397  28.711 -0.0409  0.0568  0.1295
33321W        W76233  30.997   2.852  28.824 -0.3976  0.0160 -0.0456
33322W        W76234  32.814   5.622  29.527 -0.0692 -0.0815  0.1413
33323W        W76235  32.215   6.533  29.768  0.0262 -0.0353  0.1037
33324W        W76236  30.937   5.770  28.244  0.1575 -0.0435  0.0485
33325W        W76237  31.910   4.925  30.417  0.1331 -0.1470 -0.2415
33326W        W76238  29.527   6.130  29.948  0.0406 -0.0041  0.0247
33327W        W76239  31.085   4.954  29.989 -0.0363  0.3030  0.3346
33328W        W76240  30.940   5.569  28.677 -0.3390 -0.0085  0.0100
33329W        W76241  31.643   5.159  29.940 -0.0356  0.1442 -0.1722
33330W        W76242  29.787   4.286  29.842  0.0682 -0.1796  0.2658
33331W        W76243  32.605   6.509  29.464 -0.2278  0.0752  0.0706
33332W        W76244  30.827   4.532  29.631  0.0981 -0.2768 -0.0795
33333W        W76245  29.704   3.296  31.139  0.0761 -0.0075  0.0432
33334W        W76246  31.323   4.287  31.409 -0.1683  0.1902  0.0483
33335W        W76247  30.055   4.258  31.174  0.0765 -0.1011  0.1613
33336W        W76248  30.023   5.170  30.143 -0.0339  0.1724  0.0115
33337W        W76249  32.368   6.960  30.286 -0.1469 -0.2483  0.1241
33338W        W76250  33.077   4.517  28.171 -0.1070 -0.3059  0.0092
33339W        W76251  32.738   4.274  29.747  0.0040  0.0823 -0.1817
33340W        W76252  32.398   6.000  29.498 -0.0286  0.1932 -0.0466
33341W        W76253  31.700   6.596  29.539  0.0065 -0.2459 -0.0986
33342W        W76254  29.999   5.017  29.248  0.2363  0.1059 -0.4148
33343W        W76255  30.945   5.687  31.797 -0.1024 -0.0468 -0.1397
33344W        W76256  31.331   3.372  27.353  0.0296 -0.2585 -0.2711
33345W        W76257  30.789   3.460  31.690  0.2109 -0.1192 -0.0807
33346W        W76258  29.992   7.707  28.729 -0.1919 -0.2766  0.1001
33347W        W76259  31.664   6.790  30.143  0.0433  0.1890 -0.1926
33348W        W76260  33.197   5.842  29.871 -0.0164 -0.1105  0.0713
33349W        W76261  30.673   3.988  28.949  0.1076  0.1601  0.2341
33350W        W76262  29.688   6.480  31.614 -0.1753 -0.0888  0.1098
33351W        W76263  29.726   5.467  29.191  0.0269  0.2840  0.1194
33352W        W76264  31.093   5.035  27.442  0.4219 -0.0064 -0.0336
33353W        W76265  32.020   6.233  31.210 -0.0304 -0.1275 -0.0853
33354W        W76266  31.904   6.201  31.746 -0.0281 -0.0205  0.1236
33355W        W76267  33.261   2.525  26.837  0.0798  0.1283  0.0146
33356W        W76268  32.728   4.708  30.693 -0.0658  0.0359 -0.0559
33357W        W76269  29.550   6.294  28.622  0.0598  0.0259  0.0918
33358W        W76270  31.655   3.728  29.826  0.3479 -0.0917 -0.3856
33359W        W76271  30.314   9.860  30.523  0.1356 -0.1086  0.0761
33360W        W76272  28.989   6.756  31.482  0.0913  0.0433  0.1014
33361W        W76273  29.904   7.066  29.587 -0.3099  0.0384  0.0056
33362W        W76274  29.318   3.052  31.379 -0.0814  0.2793  0.0654
33363W        W76275  31.266   5.495  30.219 -0.3857  0.0008  0.2563
33364W        W76276  31.706   6.581  31.268  0.4951  0.0857 -0.0884
33365W        W76277  32.743   4.833  31.405  0.1317 -0.0219  0.0940
33366W        W76278  32.004   6.988  29.834  0.1724  0.0655  0.1516
33367W        W76279  29.781   5.222  29.642 -0.0403  0.1426  0.3570
33368W        W76280  31.748   7.147  31.359 -0.2883  0.0334 -0.1128
33369W        W76281  32.712   6.250  30.003  0.2045  0.1267 -0.0964
33370W        W76282  29.941   5.808  30.901  0.1160 -0.0357  0.0809
33371W        W76283  29.116   5.398  30.647  0.0952  0.0359  0.1850
33372W        W76284  31.279   5.050  31.068 -0.0664 -0.2905  0.0431
33373W        W76285  32.212   5.796  31.207 -0.1985  0.0115  0.0550
33374W        W76286  31.684   4.293  28.254 -0.0631 -0.0987  0.0398
33375W        W76287  30.696   6.702  28.191  0.0822  0.0447 -0.2098
33376W        W76288  29.373   7.216  31.029 -0.1555 -0.0373 -0.1321
33377W        W76289  29.693   5.208  30.490 -0.1500 -0.1845  0.1631
33378W        W76290  29.129   6.446  26.943 -0.2772 -0.0211 -0.2225
33379W        W76291  30.552   7.876  27.497 -0.0672 -0.0378  0.5149
33380W        W76292  31.078   6.254  29.117 -0.2610 -0.1502  0.0624
33381W        W76293  30.728   7.195  29.109 -0.0353  0.2220  0.0547
33382W        W76294  30.428   4.129  28.303  0.0823  0.0488 -0.0519
33383W        W76295  29.117   7.911  29.278 -0.6809 -0.0146  0.0826
33384W        W76296  28.484   5.952  28.994 -0.1200 -0.1325  0.0189
33385W        W76297  31.419   6.675  28.258 -0.2427  0.0171  0.0662
33386W        W76298  29.545   6.729  29.787 -0.0025  0.2031 -0.0981
33387W        W76299  33.196   7.459  30.106 -0.2159 -0.2845 -0.1016
33388W        W76300  32.295   3.868  28.978 -0.0464  0.3885  0.2643
33389W        W76301  32.484   3.893  29.476 -0.2795 -0.1333  0.3532
33390W        W76302  32.673   4.645  29.448 -0.3125 -0.1885 -0.0129
33391W        W76303  31.918   7.285  30.890  0.1408 -0.3335 -0.1533
33392W        W76304  31.764   6.277  29.940 -0.2218  0.0457  0.2998
33393W        W76305  31.396   4.559  29.015  0.0971  0.2208 -0.2687
33394W        W76306  29.254   4.028  31.495  0.2633  0.2159  0.2712
33395W        W76307  33.291   3.350  30.634  0.1164  0.0403 -0.2807
33396W        W76308  29.092   6.016  30.515  0.0665 -0.0172  0.1471
33397W        W76309  32.414   5.419  28.928  0.1580 -0.2108 -0.0713
33398W        W76310  31.020   4.816  29.231 -0.2618 -0.1390  0.1197
33399W        W76311  29.524   5.477  30.964 -0.2022  0.0743  0.3808
33400W        W76312  31.834   2.949  30.974 -0.0476 -0.2012 -0.0733
33401W        W76313  31.883   4.282  27.343  0.0273  0.0696 -0.1823
33402W        W76314  32.113   5.315  30.932 -0.0588 -0.0398 -0.1097
33403W        W76315  29.251   8.276  28.498  0.0483 -0.0129  0.0771
33404W        W76316  30.499   6.705  29.608 -0.1575  0.1246 -0.0257
33405W        W76317  31.807   6.832  31.746 -0.2090 -0.0858  0.1287
33406W        W76318  29.695   3.078  27.790 -0.1024 -0.0092  0.0834
33407W        W76319  32.786   5.188  29.305 -0.1310  0.0734 -0.1065
33408W        W76320  30.718   5.255  29.389  0.0661  0.4541  0.1430
33409W        W76321  31.515   4.976  31.543  0.1786  0.1584 -0.1179
33410W        W76322  31.193   6.001  28.642  0.0266 -0.1691  0.1292
33411W        W76323  32.472   5.378  29.882  0.0011  0.2370  0.1382
33412W        W76324  30.499   4.518  31.123  0.4357 -0.1610 -0.1412
33413W        W76325  28.920   4.181  29.421  0.4263 -0.2495 -0.4187
33414W        W76326  31.537   6.230  28.049 -0.0141 -0.1949 -0.0065
33415W        W76327  32.131   6.883  31.207 -0.4118  0.2480 -0.1338
33416W        W76328  31.589   3.769  28.243  0.0136 -0.0361  0.1117
33417W        W76329  30.782   8.438  29.953  0.0518  0.1467 -0.1015
33418W        W76330  30.515   4.027  29.422  0.3415 -0.0616  0.0616
33419W        W76331  32.242   4.123  29.908  0.1038  0.1441 -0.1008
33420W        W76332  30.107   4.703  28.777 -0.3534 -0.1125  0.1543
33421W        W76333  30.513   5.225  29.868 -0.0942  0.0346  0.0236
33422W        W76334  33.722   6.604  31.016 -0.0796 -0.1712  0.2514
33423W        W76335  29.705   3.509  28.166  0.0083  0.0334 -0.2257
33424W        W76336  31.958   5.020  27.629  0.1723 -0.2194 -0.0150
33425W        W76337  32.586   4.300  30.286  0.0580 -0.2527  0.2038
33426W        W76338  30.245   8.493  28.136 -0.1187  0.1519  0.2894
33427W        W76339  31.329   5.210  29.482 -0.2313  0.1153 -0.1383
33428W        W76340  30.419   7.616  29.020  0.0140 -0.2601  0.0682
33429W        W76341  29.763   4.755  29.668 -0.3267 -0.0182  0.0952
33430W        W76342  30.659   7.780  30.073 -0.0888 -0.0666  0.2039
33431W        W76343  34.086   6.892  28.417 -0.1945  0.0653  0.2591
33432W        W76344  29.714   3.936  27.319  0.5540  0.0364  0.0258
33433W        W76345  28.112   5.777  29.970 -0.0948 -0.2019 -0.0433
33434W        W76346  28.576   7.124  29.101  0.0826  0.2670 -0.1643
33435W        W76347  32.110   5.075  29.973 -0.3730  0.0584  0.1824
33436W        W76348  30.318   4.749   0.088  0.0005  0.0821 -0.0077
33437W        W76349  30.896   6.050  27.335  0.2625 -0.0688  0.1994
33438W        W76350  31.696   3.987  30.828  0.1940  0.0097  0.0254
33439W        W76351  30.503   6.537  31.112  0.1757 -0.0603  0.1007
33440W        W76352  30.029   6.716  31.243  0.2507 -0.2705 -0.3267
33441W        W76353  30.569   5.598  28.975  0.0568 -0.1520 -0.0172
33442W        W76354  30.710   6.116  30.877  0.1244  0.1824  0.0751
33443W        W76355  29.154   6.040  29.474 -0.0894 -0.0480 -0.2120
33444W        W76356  31.363   7.563  27.790  0.3188  0.0404 -0.0248
33445W        W76357  32.744   6.788  28.992 -0.0106  0.0590  0.0637
33446W        W76358  31.471   5.705  29.817  0.1681  0.1870 -0.0616
33447W        W76359  33.610   6.109  30.175 -0.2317  0.0809  0.3152
33448W        W76360  31.466   4.046  28.867  0.1550  0.2031 -0.1238
33449W        W76361  32.117   4.037  28.210  0.1295  0.1544 -0.2165
33450W        W76362  31.298   4.105  29.752 -0.2280  0.3906  0.1668
33451W        W76363  30.066   5.551  31.817  0.1286  0.0739 -0.2139
33452W        W76364  29.581   4.812  27.572  0.3029  0.4354  0.0681
33453W        W76365  30.383   6.561  28.548  0.2022 -0.1435  0.0401
33454W        W76366  28.960   6.759  29.161 -0.1720 -0.2085 -0.3825
33455W        W76367  31.857   3.976  31.430  0.0862  0.0328  0.1397
33456W        W76368  30.477   5.381  30.429  0.3745  0.0178 -0.0512
33457W        W76369  30.122   5.530  29.805 -0.2151 -0.2770 -0.0794
33458W        W76370  30.647   5.043  28.907  0.2307  0.2170 -0.0136
33459W        W76371  32.719   6.311  28.864 -0.0149 -0.1999  0.0795
33460W        W76372  29.374   3.925  29.415 -0.0694 -0.0255  0.0133
33461W        W76373  29.409   3.585  29.071 -0.0964  0.1660  0.0883
33462W        W76374  30.870   7.080  29.610  0.0538 -0.0847 -0.1047
33463W        W76375  31.260   7.022  28.611  0.1157  0.0143  0.2019
33464W        W76376  29.917   4.346  27.476  0.0391 -0.0870  0.0102
33465W        W76377  32.926   6.961  30.653 -0.0456  0.2508 -0.0812
33466W        W76378  29.944   6.212  27.842 -0.0663 -0.2089  0.1374
33467W        W76379  29.580   3.754  31.113 -0.0706  0.0207 -0.1747
33468W        W76380  29.678   3.767  30.629  0.0546 -0.0747 -0.2290
33469W        W76381  29.092   3.981  28.955 -0.1928 -0.1827 -0.0226
33470W        W76382  31.299   6.077  30.131  0.1690  0.0862 -0.2936
33471W        W76383  30.882   6.674  30.199  0.0070  0.2510  0.0505
33472W        W76384  32.057   6.391  27.314 -0.3501  0.2212  0.1217
33473W        W76385  30.410   6.842  30.066  0.3669  0.4158  0.2012
33474W        W76386  30.820   6.824  31.410  0.1603 -0.1919 -0.2667
33475W        W76387  30.001   5.619  30.428  0.0026 -0.1301 -0.2094
33476W        W76388  32.176   5.568  29.397 -0.1076 -0.0222 -0.3549
33477W        W76389  31.317   6.910  31.464  0.3024 -0.0192 -0.2559
33478W        W76390  32.412   6.254  28.308  0.0929  0.1470 -0.2154
33479W        W76391  33.472   4.319  29.097 -0.2888 -0.0249 -0.0842
33480W        W76392  31.523   5.175  28.676 -0.2049 -0.1709  0.1692
33481W        W76393  29.135   3.532  31.146  0.3701 -0.0648 -0.0780
33482W        W76394  29.103   6.987  30.071  0.1682  0.3518  0.2490
33483W        W76395  32.336   4.662  29.828 -0.2177  0.4392  0.0908
33484W        W76396  28.335   2.716  28.073 -0.0645 -0.1765 -0.0371
33485W        W76397  31.510   3.971  29.349  0.2202 -0.0357  0.0895
33486W        W76398  30.530   5.750  29.589 -0.3951 -0.2207 -0.0856
33487W        W76399  31.178   5.237  28.994  0.1298  0.0877 -0.0129
33488W        W76400  32.332   5.532  28.146  0.0244  0.0866  0.1426
33489W        W76401  31.056   4.691  30.769 -0.4916 -0.4402 -0.3946
33490W        W76402  31.643   6.718  29.055 -0.1082 -0.0634  0.2745
33491W        W76403  31.417   5.479  30.900 -0.2716  0.1519  0.1055
33492W        W76404  30.788   3.818  27.387 -0.6832 -0.0295 -0.0941
33493W        W76405  31.478   5.662  28.764  0.1031 -0.1978 -0.0122
33494W        W76406  31.137   7.586  30.166  0.1416  0.3720 -0.2052
33495W        W76407  31.660   7.967   0.271 -0.1769 -0.0491 -0.1979
33496W        W76408  30.338   6.977  31.624 -0.1671 -0.1377 -0.3791
33497W        W76409  32.876   5.326  30.176 -0.1158 -0.0779 -0.0835
33498W        W76410  28.898   3.214  30.104 -0.0795 -0.0229  0.1559
33499W        W76411  31.729   4.692  28.690 -0.0466 -0.3283  0.2195
33500W        W76412  31.353   6.095  29.580 -0.1293  0.0313 -0.0021
33501W        W76413  30.864   5.794  30.456 -0.0744  0.0615  0.0209
33502W        W76414  31.841   4.778  29.678  0.0379 -0.1020 -0.0185
33503W        W76415  31.836   4.340  29.165  0.0336 -0.2498  0.0831
33504W        W76416  31.629   7.297  29.933 -0.1844  0.0501  0.2234
33505W        W76417  30.229   6.151  29.616  0.1103  0.1128 -0.3612
33506W        W76418  31.221   5.523  31.345  0.1691  0.2014  0.0480
33507W        W76419  30.315   6.075  31.200 -0.1700 -0.1284  0.0525
33508W        W76420  28.518   6.271  31.559 -0.2165 -0.2581 -0.1643
33509W        W76421  29.904   6.341   0.554 -0.2585 -0.4195  0.1566
33510W        W76422  31.035   7.286  31.663  0.0501 -0.3226  0.2222
33511W        W76423  29.136   7.222  31.582 -0.0151 -0.3795  0.4324
33512W        W76424  32.253   3.387   0.360 -0.0585  0.2848 -0.1285
33513W        W76425  30.434   3.180   0.762  0.0413 -0.0951 -0.0251
33514W        W76426  32.622   5.472  31.094 -0.0576  0.3696 -0.2273
33515W        W76427  31.755   6.705   1.244  0.0796  0.0659  0.1014
33516W        W76428  30.424   7.272  30.438 -0.1209 -0.5886 -0.2105
33517W        W76429  30.390   4.050  30.850 -0.0414 -0.2366 -0.1531
33518W        W76430  33.962   7.066   0.195 -0.1162 -0.0662  0.3243
33519W        W76431  31.090   5.175  31.695  0.0233 -0.0826 -0.2500
33520W        W76432  33.805   6.046  31.038  0.1004  0.1480 -0.0922
33521W        W76433  29.998   8.322   0.215 -0.1217 -0.1750 -0.2388
33522W        W76434  30.639   6.336   0.902  0.1127 -0.0272  0.2733
33523W        W76435  32.184   7.093   0.404 -0.0877 -0.0225 -0.2962
33524W        W76436  30.439   5.755   0.199 -0.1318 -0.0562 -0.0648
33525W        W76437  30.031   4.772  30.991  0.0434 -0.2530  0.0207
33526W        W76438  28.222   4.925  30.818 -0.1250  0.3692  0.0630
33527W        W76439  30.298   6.070  30.488  0.0466  0.1235 -0.2806
33528W        W76440  33.145   4.619   0.629 -0.0765 -0.1623  0.2138
33529W        W76441  31.218   6.050  31.429  0.0163  0.0540 -0.2158
33530W        W76442  29.021   4.014  31.984  0.0252 -0.2122 -0.1473
33531W        W76443  29.871   3.930  31.491 -0.4941 -0.1950  0.3039
33532W        W76444  29.995   4.250  30.675 -0.0339 -0.0200  0.0352
33533W        W76445  29.556   8.293  30.676  0.0105  0.1383  0.0958
33534W        W76446  30.449   4.986   0.577  0.0434 -0.1267 -0.2482
33535W        W76447  33.248   6.666  31.127  0.1568  0.4802 -0.0499
33536W        W76448  30.133   7.895  31.872  0.1270  0.2972  0.1899
33537W        W76449  29.953   4.951   0.410 -0.0766  0.0986  0.0563
33538W        W76450  31.061   5.779  30.942  0.0168 -0.0392  0.0285
33539W        W76451  29.929   5.961   0.231  0.0333  0.0194  0.0452
33540W        W76452  29.535   5.830  30.513 -0.3976 -0.1354  0.2347
33541W        W76453  30.416   4.716   0.962 -0.1573 -0.2311 -0.1069
33542W        W76454  30.745   6.281  31.465 -0.0224 -0.2946 -0.0395
33543W        W76455  30.592   5.399  31.672  0.2574  0.1423  0.0665
33544W        W76456  32.650   6.011  31.063  0.0062  0.1891  0.1565
33545W        W76457  29.742   4.705  31.962  0.0510  0.0847 -0.1397
33546W        W76458  31.450   5.146   0.913  0.0148  0.0228 -0.1427
33547W        W76459  32.119   6.836   1.637 -0.0435 -0.1351 -0.0036
33548W        W76460  30.049   3.442  31.460 -0.2196 -0.2848  0.0628
33549W        W76461  32.306   7.059  31.939 -0.0401  0.1375  0.4315
33550W        W76462  29.271   4.484   0.155  0.1692  0.4495  0.0977
33551W        W76463  29.674   5.820  31.346  0.2338  0.0939  0.0794
33552W        W76464  30.491   2.035  31.960  0.1828  0.2780  0.1115
33553W        W76465  30.874   7.139  30.469 -0.0774 -0.2885 -0.0442
33554W        W76466  31.283   5.544   0.206  0.1090 -0.2104  0.2220
33555W        W76467  29.973   6.040  31.691 -0.0458  0.1268 -0.0694
33556W        W76468  33.063   7.073  31.577 -0.5402 -0.0111  0.0283
33557W        W76469  31.780   3.453   0.702  0.0982 -0.4320 -0.0168
33558W        W76470  31.575   5.414  31.745 -0.0314  0.1326  0.1337
33559W        W76471  30.757   7.141   0.106  0.0099  0.0962  0.0371
33560W        W76472  29.433   6.415  30.740 -0.0326  0.1539  0.0303
33561W        W76473  32.693   3.782   0.397 -0.4960  0.1863  0.3530
33562W        W76474  33.325   7.201   0.155  0.2690  0.0002 -0.0620
33563W        W76475  29.616   7.367   1.405  0.0611  0.2277  0.1625
33564W        W76476  29.936   5.987   2.518  0.3887  0.1072  0.1331
33565W        W76477  29.459   5.112  31.528  0.4033 -0.1026  0.1578
33566W        W76478  29.110   5.466  31.202  0.3010  0.2566 -0.3329
33567W        W76479  30.241   7.062   0.152  0.3262  0.1125 -0.1894
33568W        W76480  29.683   6.884  30.870 -0.1766 -0.0019 -0.2005
33569W        W76481  27.541   5.138   0.625  0.1055 -0.0929 -0.0127
33570W        W76482  29.843   7.863  30.583 -0.0179  0.1654 -0.0470
33571W        W76483  31.480   8.755   0.204 -0.3166 -0.0966 -0.0614
33572W        W76484  31.748   5.739   0.319  0.1599 -0.0581 -0.0331
33573W        W76485  27.834   7.994  18.724  0.0626  0.1634 -0.1264
33574W        W76486  30.746   9.133  17.456 -0.0819 -0.2582  0.2213
33575W        W76487  32.103   8.894  16.424  0.0559 -0.1814 -0.2125
33576W        W76488  32.433   9.513  18.726  0.1943 -0.0614  0.0625
33577W        W76489  28.893   7.844  17.420 -0.0498  0.1458  0.1241
33578W        W76490  30.600  10.365  17.673  0.0346 -0.3990 -0.1190
33579W        W76491  28.699   6.665  18.795 -0.2599 -0.2940  0.2001
33580W        W76492  31.482  10.970  18.196 -0.4539 -0.1783 -0.0431
33581W        W76493  32.005  11.766  19.592  0.0834 -0.0025  0.1766
33582W        W76494  30.286   9.775  17.259  0.0118  0.0485  0.1183
33583W        W76495  29.645   8.971  19.332  0.0136  0.1410  0.2345
33584W        W76496  29.940  10.565  18.318 -0.4129  0.0759 -0.2752
33585W        W76497  30.928   8.564  15.988 -0.4396  0.2355 -0.3282
33586W        W76498  29.202   6.377  18.900 -0.1679 -0.0424  0.0918
33587W        W76499  31.825   9.207  18.881 -0.0035 -0.3262 -0.4170
33588W        W76500  28.454   9.904  19.261 -0.2470 -0.1093  0.0780
33589W        W76501  29.142   9.029  18.442  0.0288  0.0154  0.0480
33590W        W76502  29.794   8.531  19.195 -0.1969 -0.0569 -0.0075
33591W        W76503  30.283  11.137  17.216  0.2621  0.2201  0.1803
33592W        W76504  29.869   6.840  18.381 -0.2093 -0.2659 -0.0562
33593W        W76505  31.201   7.156  20.248 -0.2351 -0.3117 -0.0099
33594W        W76506  31.552   9.565  16.850 -0.1437  0.1111 -0.0681
33595W        W76507  27.669   8.841  16.852 -0.0062  0.1759  0.1707
33596W        W76508  29.167   8.511  18.303 -0.1902  0.0713  0.2277
33597W        W76509  29.122   9.412  18.740  0.0890 -0.1294 -0.1213
33598W        W76510  31.833   7.018  18.918 -0.2671 -0.0681 -0.1986
33599W        W76511  31.274   8.891  18.155 -0.2417 -0.2761 -0.1355
33600W        W76512  29.454  10.839  17.424 -0.0155 -0.0175 -0.1321
33601W        W76513  29.557  11.072  18.204 -0.0530 -0.0712  0.2011
33602W        W76514  31.061   9.304  18.320 -0.0565 -0.1110  0.0680
33603W        W76515  29.297   8.015  18.068  0.1653  0.0477 -0.5159
33604W        W76516  29.176  10.394  17.807 -0.1684 -0.3668 -0.0700
33605W        W76517  30.019  10.110  17.568  0.0941  0.0850 -0.0283
33606W        W76518  32.765  10.747  17.529 -0.2416 -0.1088  0.1819
33607W        W76519  33.883  10.330  18.430  0.3549  0.1925  0.1836
33608W        W76520  30.919  10.283  19.194  0.3174 -0.0710 -0.0065
33609W        W76521  29.033   9.807  16.362  0.3033 -0.0062 -0.4083
33610W        W76522  29.964  10.696  18.804 -0.0453  0.1324 -0.3403
33611W        W76523  29.951   9.751  19.238 -0.3728  0.0147  0.2956
33612W        W76524  29.627  10.188  18.541 -0.1088  0.0045 -0.1765
33613W        W76525  29.842   8.435  16.759 -0.0877  0.1316 -0.0943
33614W        W76526  28.449   9.665  16.769  0.1177 -0.3181  0.0613
33615W        W76527  31.038   8.839  17.108  0.1899  0.0514 -0.3168
33616W        W76528  29.586  10.094  19.455  0.2723 -0.0984 -0.1873
33617W        W76529  28.006  10.632  18.631  0.2089  0.1201  0.0336
33618W        W76530  33.569   6.319  21.233  0.2437 -0.3942 -0.2115
33619W        W76531  29.441  10.651  16.959  0.0938 -0.1640  0.0891
33620W        W76532  31.561   9.785  16.454 -0.1598 -0.3986  0.0452
33621W        W76533  30.365   8.437  17.026  0.0526  0.2039  0.2095
33622W        W76534  31.727   8.360  17.488  0.1197 -0.4093 -0.2427
33623W        W76535  31.885   7.821  17.319  0.1235 -0.1242 -0.1419
33624W        W76536  27.946   9.313  16.858 -0.0507 -0.0869 -0.2117
33625W        W76537  29.827   9.179  19.947 -0.2273  0.0796 -0.2152
33626W        W76538  31.571  10.880  19.553 -0.1909  0.3057  0.3495
33627W        W76539  30.080   9.292  17.558 -0.1236  0.0425 -0.4131
33628W        W76540  31.859   6.431  18.728 -0.1054  0.0624  0.1996
33629W        W76541  28.302   9.780  18.277 -0.1001 -0.0830  0.3401
33630W        W76542  29.585   9.325  18.531  0.2804  0.2079 -0.3330
33631W        W76543  30.203   9.440  18.187 -0.0562  0.1155 -0.0929
33632W        W76544  31.276  11.420  17.834 -0.2240 -0.0399 -0.1913
33633W        W76545  31.680  11.077  16.452 -0.1494  0.0560 -0.1124
33634W        W76546  29.028   9.596  17.500  0.1314  0.2767  0.1622
33635W        W76547  28.816  10.379  19.378  0.0570  0.0307  0.0841
33636W        W76548  28.562   8.610  18.422 -0.1054 -0.3120  0.4602
33637W        W76549  31.504   7.736  16.468 -0.1218 -0.0939  0.1908
33638W        W76550  33.163  10.230  19.436  0.0622 -0.0526 -0.1965
33639W        W76551  28.809   9.836  20.142 -0.1325  0.1755 -0.0813
33640W        W76552  32.224   8.953  19.607 -0.0819  0.2227  0.2397
33641W        W76553  29.522   8.895  18.841 -0.1609  0.1617  0.3210
33642W        W76554  31.418  10.608  18.743  0.3025  0.0032 -0.3395
33643W        W76555  32.128  10.806  16.905 -0.2118  0.3810  0.0769
33644W        W76556  31.701   6.548  17.936  0.2512  0.2152  0.0747
33645W        W76557  31.441   7.190  18.324  0.1620 -0.0666 -0.0218
33646W        W76558  29.927   8.819  17.765 -0.1294 -0.1454 -0.0619
33647W        W76559  30.668  10.088  16.430  0.1673  0.0312 -0.2132
33648W        W76560  31.580  10.667  17.648  0.0847  0.2886 -0.0215
33649W        W76561  32.509   9.212  16.727 -0.1650  0.1784 -0.2877
33650W        W76562  29.398  11.315  17.746 -0.1954 -0.2368  0.2356
33651W        W76563  30.117   8.491  19.625  0.0918 -0.1225 -0.0295
33652W        W76564  32.028   9.417  18.321 -0.2841 -0.1142 -0.1918
33653W        W76565  28.047  11.716  17.062 -0.0099 -0.1097  0.1998
33654W        W76566  27.259   9.212  19.340 -0.3513 -0.0833 -0.1611
33655W        W76567  29.829  10.367  16.605 -0.2102 -0.0186  0.1888
33656W        W76568  30.227   7.812  17.621  0.1231 -0.0448  0.2446
33657W        W76569  30.954  10.119  17.957  0.4604 -0.0147 -0.0065
33658W        W76570  33.030   7.944  16.453  0.1346  0.1798  0.1351
33659W        W76571  28.456   6.609  20.139 -0.2327  0.0625 -0.2838
33660W        W76572  31.596   7.630  17.903 -0.2469  0.0614 -0.2190
33661W        W76573  28.044   9.793  17.069  0.1079  0.2354  0.0219
33662W        W76574  30.488   9.543  17.668 -0.1719  0.0524  0.0363
33663W        W76575  32.271   8.995  18.160  0.0514 -0.2696  0.2609
33664W        W76576  31.523   9.965  15.931 -0.2048  0.2939 -0.2461
33665W        W76577  27.795   9.026  17.265 -0.0353 -0.2010  0.0991
33666W        W76578  31.112   7.968  17.015  0.1625 -0.1703  0.2899
33667W        W76579  29.183   8.061  19.986 -0.0315  0.0429  0.0089
33668W        W76580  28.760   8.868  19.309 -0.1620 -0.0515  0.2628
33669W        W76581  31.567   8.574  19.295  0.0115 -0.1596  0.0570
33670W        W76582  29.957   7.981  16.647  0.0768  0.4857 -0.0237
33671W        W76583  31.387   6.743  17.552  0.3613  0.2721  0.1376
33672W        W76584  29.568   9.375  17.661  0.2706 -0.0000 -0.0088
33673W        W76585  28.094   9.397  18.004 -0.3756  0.1795 -0.0519
33674W        W76586  31.269   8.609  18.819  0.0354  0.0171 -0.2829
33675W        W76587  31.451  11.522  16.599 -0.0799 -0.3000  0.2434
33676W        W76588  32.353  10.217  17.559  0.1871 -0.0563  0.0426
33677W        W76589  30.329  10.918  17.651  0.1193  0.5113  0.2049
33678W        W76590  30.549   7.691  19.419  0.3218 -0.1209 -0.1619
33679W        W76591  28.691   8.862  16.290 -0.0328 -0.1814  0.0013
33680W        W76592  29.551  10.341  17.438  0.0621 -0.1759 -0.2222
33681W        W76593  30.613   9.182  18.509  0.1502 -0.1587  0.3822
33682W        W76594  28.227   9.010  17.635  0.0488  0.0307  0.1992
33683W        W76595  32.086  10.416  17.953 -0.0075 -0.0633 -0.2758
33684W        W76596  32.511   8.315  18.475 -0.0292 -0.4760  0.3385
33685W        W76597  28.206  10.924  19.474 -0.0292  0.1115 -0.0093
33686W        W76598  32.777   7.574  20.067 -0.0470 -0.0311  0.2673
33687W        W76599  31.795   9.021  19.336 -0.1794 -0.1496  0.0301
33688W        W76600  31.989   8.259  18.402  0.0932  0.1680 -0.0868
33689W        W76601  29.502   8.119  16.439 -0.0490  0.0655 -0.2736
33690W        W76602  31.401  10.248  17.841  0.4322  0.1844  0.0008
33691W        W76603  27.699  10.689  17.302 -0.4212 -0.1841 -0.2454
33692W        W76604  29.938  10.252  17.134  0.1846 -0.2664  0.1499
33693W        W76605  32.119   9.396  17.840 -0.3198  0.0217 -0.4207
33694W        W76606  30.778   8.377  18.914 -0.0491 -0.1618  0.1862
33695W        W76607  27.864  10.566  19.467 -0.3018 -0.0602  0.2470
33696W        W76608  30.440   8.021  18.424  0.0780  0.2975 -0.1673
33697W        W76609  28.708   8.799  17.139  0.0494  0.2730  0.0268
33698W        W76610  28.499   9.738  20.800 -0.1749  0.0387  0.2775
33699W        W76611  30.611   7.418  17.772 -0.2411 -0.2438 -0.3336
33700W        W76612  31.912   9.330  16.555 -0.0071  0.0483 -0.0318
33701W        W76613  31.273   9.686  20.120 -0.3194  0.0017 -0.0813
33702W        W76614  32.652  10.061  16.345  0.1892 -0.4414 -0.0001
33703W        W76615  30.561   8.848  17.001  0.0859  0.0760  0.0962
33704W        W76616  30.344   7.428  17.243  0.1173  0.1031 -0.4104
33705W        W76617  28.323  10.505  19.142  0.1501 -0.0220  0.1377
33706W        W76618  30.164  10.537  17.854  0.1555  0.1382 -0.1298
33707W        W76619  31.862   9.522  19.357  0.0387  0.0237  0.0795
33708W        W76620  30.607   6.178  18.037 -0.1899 -0.2393 -0.3196
33709W        W76621  33.094  11.086  18.553 -0.1944 -0.0693 -0.0137
33710W        W76622  29.701  10.346  19.995  0.2811 -0.2137  0.0118
33711W        W76623  31.491   9.860  21.049  0.0056  0.0690 -0.1682
33712W        W76624  32.802  11.252  17.662 -0.1137  0.0908 -0.0249
33713W        W76625  29.362   7.538  18.205 -0.2111  0.1511 -0.1371
33714W        W76626  30.384   9.297  17.082 -0.1959  0.0727 -0.2987
33715W        W76627  31.255   8.372  17.293  0.2837  0.0345 -0.3487
33716W        W76628  29.293  11.228  16.774  0.2482 -0.2410  0.2254
33717W        W76629  31.731   8.867  18.557  0.1057 -0.1223  0.0041
33718W        W76630  30.758   7.345  19.152 -0.2315 -0.0369 -0.4993
33719W        W76631  31.581   7.945  18.487  0.0482 -0.3816 -0.2161
33720W        W76632  31.916   8.785  20.187  0.1074 -0.0864  0.4385
33721W        W76633  31.247   8.197  16.355 -0.0439  0.1394  0.1284
33722W        W76634  31.505   8.102  18.021 -0.0195  0.1750  0.2359
33723W        W76635  30.622   8.003  16.989 -0.1011 -0.1379 -0.0013
33724W        W76636  28.958   8.627  18.772  0.1152  0.1123  0.1046
33725W        W76637  30.118   9.392  19.555 -0.0985  0.1428  0.0771
33726W        W76638  28.655  10.186  17.576  0.0296  0.0985  0.0186
33727W        W76639  31.659  10.040  18.404  0.0778 -0.0047  0.0740
33728W        W76640  30.315   9.601  18.622 -0.2215  0.1317 -0.0801
33729W        W76641  30.195   8.211  19.022  0.0022  0.1797  0.1790
33730W        W76642  31.954   9.058  16.953  0.1962  0.0375  0.1737
33731W        W76643  30.488  10.608  17.154  0.0819 -0.0447  0.2224
33732W        W76644  29.679  10.946  16.598 -0.1088  0.1791  0.2283
33733W        W76645  30.950   7.076  18.629 -0.3610  0.1022 -0.1823
33734W        W76646  29.614   9.470  19.527 -0.0997 -0.1204 -0.1508
33735W        W76647  30.434  12.035  16.381 -0.0335  0.1123  0.0312
33736W        W76648  31.901  10.008  19.451  0.0819 -0.1431  0.2603
33737W        W76649  28.822  11.334  17.618  0.0971 -0.3745  0.1151
33738W        W76650  31.458   7.321  19.787  0.2784 -0.2183 -0.0367
33739W        W76651  28.029  11.442  19.910  0.0016  0.1518  0.0983
33740W        W76652  30.783   7.637  16.768  0.0189 -0.0309 -0.0175
33741W        W76653  29.067   9.055  16.912 -0.0260  0.2497  0.0943
33742W        W76654  31.520   7.620  19.135 -0.0939  0.2114  0.5620
33743W        W76655  31.957  10.683  16.231 -0.2369 -0.1533  0.1345
33744W        W76656  29.724   7.466  19.137  0.0638  0.0566 -0.1241
33745W        W76657  31.514   7.562  16.986  0.1431  0.3682 -0.0559
33746W        W76658  28.000  10.407  20.039  0.0300 -0.2647  0.0759
33747W        W76659  31.583   7.128  17.888 -0.1756 -0.1506  0.0776
33748W        W76660  30.235   7.838  15.962  0.3582 -0.2091  0.1813
33749W        W76661  30.382  10.234  18.859 -0.2999 -0.0189  0.0851
33750W        W76662  31.022   8.581  19.750  0.2688  0.1375 -0.0568
33751W        W76663  28.153   8.235  18.458  0.0752  0.1827  0.1481
33752W        W76664  32.557   7.312  19.442  0.3002  0.1696 -0.2427
33753W        W76665  29.216   9.414  18.117 -0.2176  0.1792  0.0609
33754W        W76666  27.180   9.022  17.948 -0.1146 -0.2103  0.3149
33755W        W76667  30.159  10.125  19.507 -0.0452  0.0066  0.0137
33756W        W76668  30.912  10.505  16.657 -0.1423 -0.1552  0.2859
33757W        W76669  28.398  11.019  17.744 -0.3192  0.2768 -0.1722
33758W        W76670  29.432   9.656  19.067  0.2893  0.0878  0.1307
33759W        W76671  31.443  11.498  18.746  0.2364 -0.1371 -0.1520
33760W        W76672  28.925   8.444  19.669 -0.1239  0.0298 -0.1616
33761W        W76673  29.779   6.630  17.010 -0.0032  0.0263  0.2290
33762W        W76674  30.879   7.955  19.686  0.2160  0.2451 -0.1306
33763W        W76675  32.647  11.170  18.192 -0.1781 -0.1997 -0.0571
33764W        W76676  28.437   8.437  19.524  0.3589  0.0862  0.1020
33765W        W76677  29.819  10.173  18.011  0.0722  0.3141 -0.0025
33766W        W76678  30.354   6.442  18.904  0.2022  0.0949  0.0057
33767W        W76679  31.984  10.316  17.187  0.2548 -0.0375 -0.2191
33768W        W76680  31.233   7.697  18.207 -0.2129 -0.0138 -0.1590
33769W        W76681  30.813   9.463  18.854 -0.2712 -0.0284 -0.1188
33770W        W76682  27.623   8.849  19.130  0.1705 -0.0781 -0.2727
33771W        W76683  28.282   9.715  17.621  0.0280 -0.3565  0.1062
33772W        W76684  29.342   8.313  18.948  0.1655  0.0124  0.2919
33773W        W76685  28.811   9.922  18.405  0.1760  0.3838 -0.5772
33774W        W76686  29.382  10.590  16.355 -0.2625 -0.0163  0.2339
33775W        W76687  29.656  10.625  17.839 -0.3422 -0.0290 -0.4386
33776W        W76688  32.347   7.739  15.878  0.1909  0.0890  0.0357
33777W        W76689  30.930   9.293  16.850  0.0157  0.1008  0.1409
33778W        W76690  31.380   9.014  16.783 -0.1008  0.1138  0.1351
33779W        W76691  34.199   7.251  20.348 -0.0431 -0.0821  0.1035
33780W        W76692  31.841  10.107  17.610 -0.4347 -0.0318  0.1024
33781W        W76693  31.822   7.994  19.294 -0.0164 -0.0987  0.2704
33782W        W76694  30.267   7.667  18.133 -0.0976 -0.1654 -0.0153
33783W        W76695  32.527  10.466  17.116 -0.1151  0.2482  0.1307
33784W        W76696  28.371   6.735  20.636  0.1595  0.2453  0.1203
33785W        W76697  30.978  11.430  21.805  0.1607  0.1772 -0.0765
33786W        W76698  28.931   8.697  20.535  0.1881 -0.1543  0.0301
33787W        W76699  31.785   8.156  16.498 -0.1754 -0.3688  0.2300
33788W        W76700  29.183   7.468  17.183 -0.1824  0.2547 -0.1143
33789W        W76701  31.279   9.672  18.062  0.0066  0.0217 -0.2532
33790W        W76702  31.991   8.034  17.782 -0.2664 -0.0111 -0.4439
33791W        W76703  29.884   9.299  17.005  0.0779  0.1178 -0.0569
33792W        W76704  33.295   8.022  19.207 -0.3148  0.0227  0.1915
33793W        W76705  29.309   9.860  18.642 -0.1045 -0.1599  0.0974
33794W        W76706  31.015   8.130  18.543  0.1961 -0.0720 -0.1211
33795W        W76707  29.944   9.364  16.454  0.1473 -0.3303  0.1876
33796W        W76708  28.775   9.338  17.153 -0.0592 -0.0810  0.3164
33797W        W76709  29.214   7.013  19.694 -0.4387  0.0109 -0.0703
33798W        W76710  32.047   9.667  19.809  0.0174 -0.0526 -0.1296
33799W        W76711  31.048   6.638  17.153 -0.0526  0.0193  0.0363
33800W        W76712  31.043   8.376  17.930 -0.1066  0.0679  0.3015
33801W        W76713  30.375   8.540  18.606 -0.3181  0.3103 -0.3115
33802W        W76714  29.762   9.612  20.265  0.0383  0.0283  0.0415
33803W        W76715  29.025   7.984  19.484  0.0660  0.0074 -0.2183
33804W        W76716  31.174  10.429  19.645  0.2922  0.0920 -0.0774
33805W        W76717  33.056   8.477  15.773 -0.0665 -0.2141 -0.3030
33806W        W76718  32.569   8.266  19.471  0.0370 -0.4118  0.1798
33807W        W76719  31.622   9.153  17.842 -0.0309  0.0331 -0.0553
33808W        W76720  31.680   8.635  16.620 -0.3321  0.1503 -0.2368
33809W        W76721  28.280   9.951  18.754  0.0623 -0.0279  0.3701
33810W        W76722  30.533   8.199  19.369  0.1926  0.2733 -0.2066
33811W        W76723  30.098   8.856  17.262 -0.0235 -0.0644  0.0342
33812W        W76724  30.535   7.081  20.071 -0.0152 -0.1559  0.0746
33813W        W76725  31.361  10.180  17.388 -0.3741 -0.1123 -0.5070
33814W        W76726  31.756   9.753  17.972  0.4092  0.0669  0.2675
33815W        W76727  30.882   7.986  17.534  0.0141 -0.2224 -0.1573
33816W        W76728  28.371   9.000  18.208 -0.1022  0.0775 -0.2403
33817W        W76729  29.074  10.097  20.530 -0.4502 -0.0034 -0.1755
33818W        W76730  29.285   7.677  16.676 -0.0553 -0.1689 -0.1204
33819W        W76731  29.798   9.238  18.084  0.4302 -0.0716 -0.0614
33820W        W76732  32.516  11.933  19.485 -0.0446  0.2923  0.1750
33821W        W76733  30.645  10.186  19.585 -0.2260 -0.1176  0.0545
33822W        W76734  29.211   7.764  16.113 -0.4939 -0.0139  0.0433
33823W        W76735  33.236   6.652  19.549 -0.0337  0.1123  0.1731
33824W        W76736  30.042   9.745  16.801  0.2349 -0.0355  0.2212
33825W        W76737  33.160   6.068  19.156  0.0033 -0.0322  0.0150
33826W        W76738  29.933  10.271  19.047 -0.2184 -0.0002  0.2323
33827W        W76739  28.469  10.714  18.731  0.1717 -0.1508 -0.4871
33828W        W76740  30.128  11.676  17.289  0.0520  0.1632 -0.1186
33829W        W76741  30.439   6.966  18.998  0.0541  0.3707 -0.1494
33830W        W76742  32.202   8.359  17.414 -0.1663 -0.0874  0.0314
33831W        W76743  30.196   8.942  18.178 -0.0959 -0.0418  0.0422
33832W        W76744  33.245   8.378  20.721  0.1318 -0.1070  0.1949
33833W        W76745  30.399   8.685  19.054 -0.0326  0.2848 -0.0834
33834W        W76746  29.680   9.714  18.224  0.2049  0.1331  0.3934
33835W        W76747  31.145  11.537  19.989 -0.1199 -0.0416 -0.0941
33836W        W76748  31.797  10.598  18.389 -0.0084 -0.1192  0.0741
33837W        W76749  29.192  10.026  18.076 -0.1318  0.0794  0.0245
33838W        W76750  29.206   9.220  19.216 -0.3830  0.0315 -0.0946
33839W        W76751  30.949  10.485  18.718 -0.0923 -0.2148 -0.0373
33840W        W76752  30.967   9.763  19.208  0.0174 -0.2228  0.1139
33841W        W76753  31.426   7.966  17.568 -0.0343  0.0306  0.0373
33842W        W76754  32.963  10.423  16.246  0.2701  0.1248 -0.1865
33843W        W76755  28.828   9.473  19.345  0.1267 -0.1104 -0.1933
33844W        W76756  27.914   8.495  18.860 -0.1238 -0.0541 -0.1597
33845W        W76757  29.005  10.344  16.299  0.2012 -0.0779 -0.0069
33846W        W76758  30.700   9.049  18.073 -0.1735  0.0703  0.0250
33847W        W76759  31.736   9.885  17.182 -0.0245  0.3024  0.1208
33848W        W76760  31.831  10.309  18.810 -0.0716  0.0616 -0.1162
33849W        W76761  29.995   8.052  17.136 -0.2241 -0.0326 -0.2936
33850W        W76762  28.946   9.260  16.447 -0.0191  0.0925  0.1313
33851W        W76763  28.561  10.628  16.913 -0.2403  0.1617  0.0643
33852W        W76764  30.957  11.831  17.094  0.2496 -0.1143 -0.3625
33853W        W76765  29.321  10.601  18.265 -0.3092 -0.2807  0.2467
33854W        W76766  32.243  10.205  19.745  0.1108  0.1372 -0.0165
33855W        W76767  31.223   6.842  16.265 -0.2057  0.0152  0.3066
33856W        W76768  31.877   8.419  18.848  0.0509  0.3997  0.0388
33857W        W76769  32.736   8.320  16.685  0.0500  0.1231  0.0282
33858W        W76770  31.130  11.047  18.790 -0.4097  0.0533  0.0956
33859W        W76771  28.696   9.159  18.726  0.0432 -0.1179  0.1025
33860W        W76772  29.951   8.353  16.257  0.2513  0.0319  0.1356
33861W        W76773  29.804   9.314  18.992  0.0653  0.2160 -0.0968
33862W        W76774  32.836   7.653  18.638 -0.0524 -0.0030  0.0691
33863W        W76775  28.795  10.600  21.111 -0.3672  0.0830  0.1711
33864W        W76776  31.209  10.914  16.806 -0.2523  0.3161 -0.0953
33865W        W76777  28.855   8.945  18.077 -0.2840 -0.1379 -0.0178
33866W        W76778  30.712   9.624  18.191 -0.3157 -0.1545 -0.1208
33867W        W76779   0.767   8.963  17.850  0.0371  0.1926  0.4430
33868W        W76780  32.275   9.391  16.241  0.2104 -0.0587 -0.2064
33869W        W76781  30.509   8.564  18.129  0.1109 -0.0415 -0.1769
33870W        W76782  29.784  11.127  18.650 -0.1217 -0.0129 -0.3406
33871W        W76783  31.227  10.417  18.286 -0.0311 -0.0895 -0.0754
33872W        W76784  30.849   9.900  18.664 -0.1585 -0.0205  0.0876
33873W        W76785  29.053   9.068  17.515  0.0449  0.1513 -0.1601
33874W        W76786  32.617   9.771  19.983  0.0755 -0.0310 -0.1018
33875W        W76787  30.088   9.154  20.378  0.0359 -0.0055  0.0160
33876W        W76788  31.797   7.318  21.272 -0.2650 -0.2839 -0.2554
33877W        W76789  28.721   9.745  17.902 -0.1775  0.1679 -0.0929
33878W        W76790  31.781   8.732  18.105 -0.2905  0.1929  0.2194
33879W        W76791  31.518  10.036  19.734  0.0292  0.0418  0.3663
33880W        W76792  30.027  10.322  20.371 -0.0532 -0.2213  0.0915
33881W        W76793  30.736   8.234  16.526 -0.1393 -0.0351 -0.1015
33882W        W76794  31.747   8.404  20.412  0.3268  0.1251 -0.0691
33883W        W76795  31.342   9.352  16.434 -0.1884  0.1008  0.1154
33884W        W76796  31.473  12.968  20.774 -0.1800  0.0456  0.0539
33885W        W76797  29.747   7.907  18.116 -0.0833 -0.2031 -0.1590
33886W        W76798  29.578   8.944  17.415 -0.2754 -0.1475  0.2462
33887W        W76799  30.144   8.306  17.552  0.1183 -0.3276  0.0294
33888W        W76800  28.662   9.434  18.302 -0.5318  0.1389  0.0341
33889W        W76801  31.374  10.400  20.809 -0.1497  0.2406 -0.0150
33890W        W76802  30.847   7.157  18.101 -0.1726 -0.4548 -0.1805
33891W        W76803  32.312  10.327  16.642  0.0096  0.0174  0.1245
33892W        W76804  32.284   8.563  17.887 -0.0482  0.2942  0.0132
33893W        W76805  31.640  11.224  17.057  0.1019  0.0257  0.2852
33894W        W76806  32.872   8.421  17.680 -0.1465 -0.1459 -0.0197
33895W        W76807  32.653   9.774  18.303  0.2487  0.1765  0.0376
33896W        W76808  28.128  10.160  19.603  0.1341 -0.0856  0.1705
33897W        W76809  30.469  11.008  19.518 -0.3708 -0.3779 -0.0011
33898W        W76810  32.223   9.908  17.975  0.1176  0.3551  0.1371
33899W        W76811  30.133   6.988  16.275  0.4944 -0.3119  0.0889
33900W        W76812  28.613   9.615  18.871 -0.3252  0.1763  0.1128
33901W        W76813  29.039  10.862  17.715  0.1950  0.0851 -0.1281
33902W        W76814  32.754   8.970  18.478  0.0216 -0.6304 -0.0375
33903W        W76815  31.395   8.090  19.489 -0.2155 -0.3656 -0.0155
33904W        W76816  28.402  11.020  16.025  0.0409  0.0348  0.0649
33905W        W76817  32.071   5.822  19.662 -0.1896 -0.1267 -0.0023
33906W        W76818  30.246   9.500  20.022  0.0351 -0.2276  0.1951
33907W        W76819  30.278  10.098  21.027  0.0472  0.1150  0.0253
33908W        W76820  30.142   8.912  16.774 -0.2740 -0.0494 -0.0813
33909W        W76821  29.454   7.085  18.311  0.1176 -0.1213  0.2726
33910W        W76822  30.131   9.033  18.705 -0.0102 -0.3466 -0.4189
33911W        W76823  32.061   9.817  16.590 -0.0083 -0.0371 -0.0722
33912W        W76824  31.403  12.497  18.756 -0.3999  0.2116  0.0680
33913W        W76825  31.351   8.691  17.681 -0.1529  0.2416 -0.4149
33914W        W76826  32.288   9.723  17.503 -0.3048 -0.0129 -0.1004
33915W        W76827  29.570   8.249  18.460 -0.2473  0.0776 -0.2646
33916W        W76828  33.050   6.576  17.759  0.0372  0.1462  0.2188
33917W        W76829  32.522   7.375  17.966  0.0674  0.3873 -0.0172
33918W        W76830  31.650   9.065  19.921  0.2648  0.1729 -0.0640
33919W        W76831  27.596   9.211  16.471 -0.2496 -0.1541 -0.0252
33920W        W76832  28.623   9.308  17.662 -0.0838  0.1150 -0.0550
33921W        W76833  28.455   9.333  16.365 -0.1701 -0.3055 -0.0650
33922W        W76834  30.646   6.830  20.824  0.1329  0.1412 -0.3300
33923W        W76835  28.973   6.947  19.200 -0.1608 -0.1712 -0.2088
33924W        W76836  28.510  10.301  18.394 -0.0859  0.0026 -0.4523
33925W        W76837  30.835   7.927  18.018 -0.0363  0.0411  0.0374
33926W        W76838  33.280  10.718  16.600 -0.1676  0.2197 -0.0858
33927W        W76839  29.917   8.535  18.713 -0.0390  0.1569  0.0470
33928W        W76840  30.402   8.723  17.688 -0.3126 -0.0694 -0.1359
33929W        W76841  30.175  10.050  18.401  0.0392  0.1700  0.1565
33930W        W76842  31.211   9.887  17.038  0.5041 -0.1819 -0.2863
33931W        W76843  30.886   8.632  18.424  0.0380  0.1437 -0.2191
33932W        W76844  32.699  10.830  20.047  0.2167  0.1556 -0.0918
33933W        W76845  29.442   9.889  17.672  0.0581  0.1036 -0.0214
33934W        W76846  30.623   9.805  20.658  0.1784  0.0297 -0.0770
33935W        W76847  30.056   6.627  19.243 -0.0755  0.0100  0.1312
33936W        W76848  29.459   7.192  17.520  0.0581  0.1375  0.0782
33937W        W76849  30.438   8.162  17.882 -0.2138  0.0414 -0.0050
33938W        W76850  31.392   8.444  18.353 -0.4409 -0.0598 -0.1316
33939W        W76851  29.796   9.725  17.351  0.0563  0.0093  0.2600
33940W        W76852  27.888   9.215  19.417  0.1508 -0.0361  0.0564
33941W        W76853  28.306  10.567  20.377  0.0354  0.1340 -0.1942
33942W        W76854  28.993   7.173  18.293  0.0771  0.2487 -0.0360
33943W        W76855  31.729  10.155  16.767  0.3507  0.4278  0.0238
33944W        W76856  30.418   9.236  19.074  0.0935 -0.0593  0.1753
33945W        W76857  33.918  11.190  16.732 -0.0528 -0.3843  0.2655
33946W        W76858  32.430   7.901  18.739 -0.2248 -0.1727  0.0894
33947W        W76859  31.945   7.733  16.753  0.3439 -0.2043 -0.0383
33948W        W76860  29.586   7.056  20.116 -0.2316 -0.1155  0.1287
33949W        W76861  29.971   9.174  21.343  0.0652  0.3077  0.0068
33950W        W76862  33.545   9.830  17.870  0.4686  0.3044 -0.2957
33951W        W76863  31.350   6.479  18.477  0.0170 -0.1566 -0.0008
33952W        W76864  31.642   8.660  17.096 -0.5635 -0.0165 -0.0257
33953W        W76865  30.758   9.635  17.218 -0.0176  0.2146 -0.2627
33954W        W76866  28.213   9.380  18.551 -0.3776 -0.0404  0.0789
33955W        W76867  31.951   8.816  17.553  0.0410  0.2367  0.0137
33956W        W76868  30.653  10.255  18.322 -0.2555 -0.0539 -0.0317
33957W        W76869  31.402   9.396  19.210 -0.0467 -0.0636  0.0714
33958W        W76870  31.773   9.661  18.726 -0.1335 -0.0569  0.1135
33959W        W76871  29.447   9.214  16.618 -0.1226  0.0224 -0.0356
33960W        W76872  33.134   8.947  15.926 -0.2723  0.1965 -0.1958
33961W        W76873  30.364  10.532  19.336 -0.2728  0.3011  0.0594
33962W        W76874  31.535  11.419  20.736  0.1752 -0.2110 -0.0714
33963W        W76875  29.856   9.837  19.828 -0.3289 -0.2176  0.0186
33964W        W76876  29.591   8.795  18.365 -0.0889 -0.1123  0.0014
33965W        W76877  28.532   7.105  18.575  0.0514 -0.3559  0.1373
33966W        W76878  31.740   9.416  17.415  0.2002  0.2084  0.2059
33967W        W76879  29.381   8.949  17.901  0.1956  0.2720  0.1880
33968W        W76880  31.222   9.176  18.784  0.0680  0.0482  0.3263
33969W        W76881  30.026   8.385  18.128  0.1339 -0.2421  0.0281
33970W        W76882  32.375   8.744  16.844 -0.0709 -0.0875 -0.2363
33971W        W76883  29.416  10.186  18.981 -0.2775 -0.1723 -0.0891
33972W        W76884  31.261   9.693  18.737 -0.2235 -0.2633 -0.0602
33973W        W76885  29.741   9.732  22.699 -0.3429 -0.1747  0.1033
33974W        W76886  30.282   9.486  20.720 -0.0837  0.0413  0.0912
33975W        W76887  32.268  10.046  18.445  0.2965 -0.0385 -0.1532
33976W        W76888  31.524   9.536  19.747 -0.0294 -0.0757 -0.2216
33977W        W76889  29.551   7.374  20.537 -0.0762  0.0359  0.1281
33978W        W76890  31.165  10.185  21.284  0.0809 -0.0490  0.1152
33979W        W76891  29.655   8.047  22.920 -0.0252 -0.0677  0.1194
33980W        W76892  31.988  11.078  20.577  0.4831 -0.2818 -0.0953
33981W        W76893  31.814  10.790  20.962  0.2453 -0.0917 -0.1357
33982W        W76894  30.763  10.248  20.321 -0.0813 -0.2997 -0.0185
33983W        W76895  29.169   7.505  20.842 -0.0449 -0.2929 -0.0287
33984W        W76896  29.495  10.983  23.203 -0.2564  0.0932 -0.0102
33985W        W76897  30.027   7.436  20.936  0.0883  0.1966 -0.3041
33986W        W76898  28.540   7.843  22.744  0.1103 -0.1825 -0.0577
33987W        W76899  31.743   9.416  21.447  0.2954 -0.0108  0.0577
33988W        W76900  28.853   8.843  21.725 -0.1334  0.2376 -0.2997
33989W        W76901  30.615   8.117  22.513 -0.1799  0.1097 -0.1978
33990W        W76902  29.953   8.038  19.423  0.2360 -0.1951 -0.0221
33991W        W76903  30.558  11.334  20.999 -0.3015 -0.0748 -0.1555
33992W        W76904  30.092   7.361  23.646 -0.3756 -0.1231  0.3158
33993W        W76905  31.117   7.536  24.509 -0.0994  0.2009  0.1635
33994W        W76906  30.928   8.063  21.451 -0.5441  0.1472  0.0161
33995W        W76907  28.810   8.409  19.200  0.1479 -0.0743 -0.0914
33996W        W76908  29.491   7.557  21.777 -0.1166 -0.1846 -0.3938
33997W        W76909  30.363   8.506  22.691 -0.0131 -0.0170  0.2141
33998W        W76910  32.093   9.087  21.188 -0.1258  0.2139 -0.3650
33999W        W76911  32.968   9.821  20.381  0.0309  0.0895  0.3080
34000W        W76912  30.644  10.840  22.428  0.0438 -0.4130  0.0874
34001W        W76913  31.062  10.544  22.358  0.1108 -0.0759  0.1242
34002W        W76914  31.471   7.840  23.498 -0.3290  0.1060 -0.4334
34003W        W76915  28.317   8.553  21.524 -0.2838  0.0683 -0.1237
34004W        W76916  28.337  10.616  22.085 -0.0233 -0.1084  0.0210
34005W        W76917  29.515  10.590  21.909  0.0863  0.1629  0.2271
34006W        W76918  31.003  10.652  20.983 -0.1226 -0.0067 -0.1543
34007W        W76919  32.267  10.858  21.336  0.0635 -0.0670 -0.1804
34008W        W76920  30.133  12.158  22.515  0.0155 -0.5539 -0.0296
34009W        W76921  29.265   9.722  21.814 -0.0205  0.0510  0.0976
34010W        W76922  30.720  10.071  22.779  0.0820  0.1391  0.2043
34011W        W76923  30.528  10.357  22.383  0.2113 -0.0812 -0.1584
34012W        W76924  32.035   8.501  21.387 -0.0329  0.2934 -0.1368
34013W        W76925  31.667   9.235  20.901  0.0592  0.2347  0.2048
34014W        W76926  29.203   9.830  20.997 -0.0670  0.0567  0.4041
34015W        W76927  29.518   9.426  21.111  0.1637  0.0925  0.1008
34016W        W76928  30.118  10.103  22.485 -0.1019  0.2097 -0.3230
34017W        W76929  30.301   9.290  21.837  0.1305 -0.2147 -0.0033
34018W        W76930  31.258   7.043  23.042 -0.1359  0.0038 -0.3641
34019W        W76931  29.111  10.708  21.527  0.0370  0.1257 -0.0433
34020W        W76932  30.590   8.817  19.448  0.0281  0.1206 -0.1166
34021W        W76933  30.658   8.055  20.181 -0.1289 -0.0328 -0.1808
34022W        W76934  30.454   8.164  20.752 -0.2761 -0.0274  0.1103
34023W        W76935  29.969   6.276  21.758 -0.1558 -0.1404 -0.1157
34024W        W76936  29.384  10.110  21.512 -0.0513 -0.0229  0.4338
34025W        W76937  31.015   7.704  21.831 -0.0134  0.1437  0.2393
34026W        W76938  30.474   9.208  22.959 -0.3315  0.0648 -0.1674
34027W        W76939  30.594   9.677  19.643  0.1431 -0.1440 -0.0779
34028W        W76940  30.447   7.706  21.727 -0.2318 -0.0026 -0.0797
34029W        W76941  29.838  11.197  21.973  0.0134 -0.1796 -0.1460
34030W        W76942  30.046   8.971  20.873 -0.1761 -0.1355 -0.5076
34031W        W76943  30.862  10.708  19.442 -0.2436 -0.2522 -0.0881
34032W        W76944  32.798  10.881  22.542  0.2532  0.1110 -0.2848
34033W        W76945  31.286  10.644  19.226  0.2748  0.3939  0.1115
34034W        W76946  29.243   8.641  19.293  0.2227  0.0786 -0.2269
34035W        W76947  29.735   9.057  23.225  0.0467  0.0985 -0.1272
34036W        W76948  30.357   9.738  22.841  0.0159  0.2552 -0.2889
34037W        W76949  29.658   7.978  20.398 -0.1997 -0.0284  0.4481
34038W        W76950  33.120   8.802  22.378  0.3426 -0.2285 -0.0430
34039W        W76951  29.547   8.993  24.787  0.4052  0.0195 -0.3991
34040W        W76952  31.700   6.930  21.646  0.1108  0.1610 -0.0351
34041W        W76953  31.755   9.969  22.859 -0.2024  0.1922  0.0007
34042W        W76954  31.044   8.934  20.611 -0.0052  0.0133  0.0438
34043W        W76955  30.701  11.313  19.825  0.0169 -0.0493  0.0323
34044W        W76956  32.912   7.719  21.688  0.0601  0.0353 -0.0481
34045W        W76957  31.450   8.159  23.021 -0.1430  0.0565  0.0240
34046W        W76958  30.186   9.859  20.409  0.1885  0.1428 -0.0103
34047W        W76959  29.842   9.757  20.854 -0.1933  0.3400 -0.3945
34048W        W76960  32.435   9.154  23.968 -0.0651 -0.0191 -0.2300
34049W        W76961  32.770   7.796  19.594 -0.0494 -0.4778  0.3586
34050W        W76962  28.898  10.773  21.982 -0.0326  0.3231 -0.1615
34051W        W76963  30.401   6.972  22.677 -0.1801 -0.1778 -0.0592
34052W        W76964  29.967  10.746  23.283  0.1001  0.3806 -0.2110
34053W        W76965  29.193   9.153  20.704  0.3202 -0.2082 -0.3077
34054W        W76966  27.822   9.998  21.775 -0.2252 -0.0316 -0.0748
34055W        W76967  29.268   8.591  19.991  0.1852 -0.2638  0.3242
34056W        W76968  29.824   7.778  23.490  0.1032 -0.2243 -0.0748
34057W        W76969  30.174  10.070  22.033  0.0817  0.1909 -0.0015
34058W        W76970  31.292   8.380  20.599  0.1377 -0.1529 -0.1771
34059W        W76971  30.197   8.090  22.824  0.0900 -0.0055 -0.0231
34060W        W76972  31.343   7.192  21.117  0.1504 -0.2568  0.0236
34061W        W76973  28.840   9.858  22.051  0.3406 -0.5737 -0.0422
34062W        W76974  32.637  11.622  21.240  0.0507 -0.1409 -0.0896
34063W        W76975  31.628   8.886  20.527 -0.2501  0.0429 -0.0545
34064W        W76976  30.534  12.008  20.302  0.1017  0.1006 -0.0493
34065W        W76977  30.262   7.937  22.212  0.3620  0.0567  0.0055
34066W        W76978  29.297   8.366  20.486 -0.0306 -0.1032 -0.1176
34067W        W76979  30.961   7.562  24.029  0.2213 -0.0088 -0.0768
34068W        W76980  29.194   6.359  22.150  0.2578 -0.3250  0.1161
34069W        W76981  32.158   9.352  22.161 -0.0363 -0.0583 -0.0277
34070W        W76982  29.021   7.500  19.771 -0.1231 -0.2539 -0.0910
34071W        W76983  31.708   9.474  20.277  0.0291  0.0606 -0.0015
34072W        W76984  30.581   8.402  19.828 -0.0391 -0.3802 -0.3114
34073W        W76985  27.903   9.474  21.843 -0.4180  0.0700 -0.1773
34074W        W76986  32.166   7.420  23.551 -0.2153 -0.0144  0.1008
34075W        W76987  31.491  11.265  20.206 -0.0141 -0.2751  0.1889
34076W        W76988  34.140  11.017  22.780 -0.0534 -0.3261 -0.1470
34077W        W76989  29.520  10.570  20.529 -0.1825  0.1862 -0.0225
34078W        W76990  31.070   8.907  22.092 -0.1363 -0.2123 -0.3144
34079W        W76991  30.195   8.262  20.196 -0.0333 -0.1763 -0.1230
34080W        W76992  28.872  10.657  20.597 -0.1236  0.0605  0.0266
34081W        W76993  31.393   9.726  21.496  0.0443  0.0568  0.0169
34082W        W76994  29.491   8.348  21.174  0.2735  0.1231 -0.3327
34083W        W76995  33.449  10.827  21.282 -0.1153 -0.0145  0.2422
34084W        W76996  32.436   8.849  20.947  0.3538  0.5165 -0.0761
34085W        W76997  30.807   9.553  23.561 -0.0763  0.5380  0.0821
34086W        W76998  31.216   8.204  21.832 -0.0395  0.1553  0.1483
34087W        W76999  32.967   9.356  22.531  0.3507  0.1325 -0.1495
34088W        W77000  31.379   8.675  20.157 -0.0097 -0.0174 -0.1439
34089W        W77001  30.233   8.816  20.045  0.0815  0.0189  0.1058
34090W        W77002  29.813  10.281  20.938  0.1079 -0.3487  0.2737
34091W        W77003  29.136  11.312  21.266  0.2263 -0.0656 -0.2901
34092W        W77004  28.869   7.032  20.776 -0.3030 -0.0047  0.0126
34093W        W77005  30.935   9.718  21.138 -0.3711  0.1471 -0.1674
34094W        W77006  32.363   7.627  21.334  0.0619 -0.0575 -0.2273
34095W        W77007  29.719   8.920  22.710 -0.2812  0.2261 -0.1834
34096W        W77008  32.695   8.088  24.076 -0.0107 -0.0770 -0.0957
34097W        W77009  29.216   9.026  19.710 -0.3279  0.0618 -0.1656
34098W        W77010  29.076   9.662  23.137  0.0777  0.1687 -0.0232
34099W        W77011  31.140   7.056  20.699 -0.0555 -0.2035  0.0448
34100W        W77012  32.384   7.605  20.327  0.2544 -0.1095  0.2515
34101W        W77013  30.802   9.590  23.064 -0.2492 -0.4828  0.3435
34102W        W77014  32.910   9.481  21.525  0.1673  0.0184  0.2565
34103W        W77015  31.710   8.575  19.794 -0.0914  0.1262  0.2164
34104W        W77016  30.832   8.928  18.983  0.0774 -0.2573 -0.0802
34105W        W77017  28.953  11.618  23.801  0.0076 -0.0638 -0.1587
34106W        W77018  30.365   9.628  21.365  0.0158 -0.0825 -0.0942
34107W        W77019  30.307  12.206  22.072  0.3828 -0.0048  0.0506
34108W        W77020  30.805   9.275  19.390  0.0404 -0.1888 -0.0777
34109W        W77021  33.998  10.944  21.413 -0.1494  0.2138  0.0340
34110W        W77022  30.346   7.676  22.617 -0.0868  0.0543 -0.0508
34111W        W77023  31.649   8.784  21.472 -0.2395  0.0425  0.1585
34112W        W77024  30.924   8.782  21.089  0.0807 -0.3084  0.0813
34113W        W77025  30.188   5.560  23.305 -0.0102 -0.2118  0.2245
34114W        W77026  30.813   9.791  20.121 -0.3477  0.1547 -0.0379
34115W        W77027  30.485   7.252  21.662  0.0858  0.1106 -0.1588
34116W        W77028  27.656  11.316  20.914  0.0636  0.1808 -0.1513
34117W        W77029  31.287   7.223  21.689 -0.0056  0.0598  0.0444
34118W        W77030  31.603   8.759  21.998  0.1516  0.0192 -0.0564
34119W        W77031  31.286   6.899  24.211 -0.1840  0.0864  0.0188
34120W        W77032  33.266   9.261  23.486 -0.1228  0.2407 -0.0554
34121W        W77033  32.273   7.425  19.849  0.0577  0.0607 -0.2395
34122W        W77034  31.207   8.649  21.489 -0.0234  0.2272  0.0083
34123W        W77035  29.102   9.860  19.607  0.0821 -0.0422  0.2829
34124W        W77036  30.681   8.828  22.577 -0.0822  0.2536  0.0737
34125W        W77037  30.078   9.984  23.953 -0.1903 -0.1888 -0.0818
34126W        W77038  29.512   9.181  21.582  0.1194  0.1188 -0.0720
34127W        W77039  31.607   9.212  23.596  0.1446 -0.3536  0.0412
34128W        W77040  31.711   8.721  22.518 -0.2144  0.0174  0.0443
34129W        W77041  31.354   8.616  24.206 -0.3263 -0.1842  0.1436
34130W        W77042  31.740   6.790  21.079 -0.0222 -0.2166  0.2074
34131W        W77043  30.029  10.276  21.507 -0.4823 -0.1814  0.2702
34132W        W77044  27.820   9.389  21.337  0.1000 -0.2231  0.0692
34133W        W77045  30.144   6.920  21.059  0.1038 -0.1727  0.5587
34134W        W77046  31.652   9.363  22.015  0.1176  0.3475  0.0099
34135W        W77047  29.253  10.344  19.655  0.0448 -0.2855 -0.0825
34136W        W77048  30.487   8.377  21.501  0.0729 -0.0200 -0.1123
34137W        W77049  29.592  10.096  20.485 -0.0161 -0.4203  0.2590
34138W        W77050  31.519   8.279  21.274 -0.2021  0.3492  0.1120
34139W        W77051  28.875   8.347  21.426  0.0719 -0.1098 -0.1678
34140W        W77052  30.531   6.959  19.511  0.1385  0.0660 -0.0727
34141W        W77053  28.311   8.573  20.594 -0.0646  0.1626  0.0576
34142W        W77054  32.180   6.865  21.960 -0.0252  0.0217 -0.2218
34143W        W77055  32.365  10.153  21.028 -0.0304 -0.0285 -0.0827
34144W        W77056  29.975   7.280  22.672 -0.0787 -0.0986  0.1728
34145W        W77057  31.944   7.909  20.355  0.0632  0.2122 -0.1803
34146W        W77058  28.154  11.266  23.192  0.0655 -0.2498 -0.1735
34147W        W77059  30.076   9.622  22.360  0.0471  0.1911 -0.0306
34148W        W77060  31.762   7.719  19.741 -0.3235  0.1707  0.0206
34149W        W77061  31.352   9.172  21.628  0.0182  0.0248  0.0726
34150W        W77062  30.028   9.300  22.797  0.1565 -0.2441 -0.2661
34151W        W77063  29.715   7.328  19.680  0.0167 -0.2045  0.0484
34152W        W77064  30.622   7.594  23.566 -0.1630 -0.1657 -0.0534
34153W        W77065  30.286   8.798  21.690 -0.0824 -0.1251  0.0091
34154W        W77066  29.744  11.126  21.391 -0.0839  0.1379  0.0625
34155W        W77067  30.539   9.119  21.370 -0.0958 -0.1298 -0.2753
34156W        W77068  31.220   8.998  19.463 -0.0967 -0.1998 -0.0334
34157W        W77069  28.094   8.879  21.252 -0.0080  0.4024  0.2572
34158W        W77070  30.125   9.368  23.307 -0.1127 -0.0447  0.0133
34159W        W77071  30.757   8.644  21.843  0.1732  0.1318 -0.1355
34160W        W77072  29.974   7.971  20.895  0.0390  0.0635  0.2890
34161W        W77073  29.783   6.900  20.580 -0.3961  0.0643  0.2219
34162W        W77074  30.890   8.268  21.029 -0.3288  0.2609 -0.1431
34163W        W77075  30.538   9.876  22.370  0.1125  0.1407 -0.2537
34164W        W77076  30.541   7.493  23.068  0.3132 -0.0477  0.3285
34165W        W77077  30.974  11.005  23.211  0.2862 -0.0189  0.0444
34166W        W77078  30.125   8.192  21.785 -0.1256 -0.0002  0.2578
34167W        W77079  32.371  11.194  19.779  0.2569 -0.0364 -0.1975
34168W        W77080  30.151   8.790  23.183 -0.0731  0.0094 -0.2238
34169W        W77081  31.233   9.300  21.146 -0.2196 -0.3625  0.0416
34170W        W77082  28.405   8.892  22.512 -0.0939  0.1920  0.2237
34171W        W77083  29.832   9.481  21.877  0.3724 -0.2186  0.1955
34172W        W77084  30.003   7.597  23.005  0.1150  0.0614 -0.2871
34173W        W77085  29.295   8.734  21.541 -0.3234  0.0238  0.2167
34174W        W77086  28.409  10.786  20.885  0.2429  0.0385 -0.1334
34175W        W77087  28.834  10.662  22.691  0.1977  0.0406 -0.0206
34176W        W77088  31.755   6.136  19.520  0.4854 -0.0925  0.1676
34177W        W77089  30.511   9.188  19.761 -0.0945  0.1295  0.0513
34178W        W77090  30.817   8.488  20.508  0.4169  0.1522 -0.2522
34179W        W77091  32.315   7.748  24.430  0.1235 -0.0191 -0.3272
34180W        W77092  31.020   9.298  19.862  0.0579  0.0882 -0.0912
34181W        W77093  31.567   7.916  22.010 -0.0794  0.0740  0.0137
34182W        W77094  29.160   6.751  23.847 -0.0761 -0.1151  0.1243
34183W        W77095  32.259  10.821  18.960  0.3787 -0.0567 -0.0536
34184W        W77096  29.465   7.524  21.223 -0.1175  0.1842 -0.0025
34185W        W77097  30.564  11.009  24.282 -0.1021  0.1196  0.0222
34186W        W77098  30.890   9.642  24.146 -0.1705  0.1568  0.0421
34187W        W77099  31.146   7.547  20.560 -0.1166 -0.0196 -0.0777
34188W        W77100  29.336   6.773  20.435 -0.2685 -0.2919  0.4126
34189W        W77101  30.510   9.392  22.474 -0.1804  0.1354 -0.2479
34190W        W77102  33.077  10.043  21.370 -0.4059 -0.0695  0.2392
34191W        W77103  29.241  10.112  20.085 -0.3152  0.0915 -0.0512
34192W        W77104  32.381   9.357  21.580  0.1681 -0.0508  0.2191
34193W        W77105  30.401   9.823  23.373  0.1131 -0.1449  0.0771
34194W        W77106  32.595   8.829  19.289  0.2487  0.0227  0.1527
34195W        W77107  30.724   9.348  20.273 -0.1115  0.2157 -0.2462
34196W        W77108  29.651   9.192  20.575  0.2695  0.4186 -0.4814
34197W        W77109  29.635   6.639  21.982  0.0300 -0.2104  0.2171
34198W        W77110  31.983   9.062  21.807  0.1529 -0.0999 -0.0129
34199W        W77111  32.422   7.559  22.077 -0.1779 -0.1354  0.2127
34200W        W77112  30.632   8.217  23.149 -0.2092  0.0591 -0.2260
34201W        W77113  30.925   7.756  22.781  0.2551  0.2077  0.0168
34202W        W77114  31.201   9.402  23.852 -0.1395 -0.3596  0.0008
34203W        W77115  29.327   7.850  22.562  0.1632 -0.2585  0.0031
34204W        W77116  32.281  10.800  22.265 -0.0530  0.0998  0.2570
34205W        W77117  31.025   8.596  19.278 -0.1445 -0.1099  0.3754
34206W        W77118  32.265   8.447  21.851 -0.0424  0.0056 -0.1467
34207W        W77119  31.758   9.889  21.863 -0.0899 -0.2458 -0.3654
34208W        W77120  30.913   8.008  20.578 -0.0440  0.2790  0.1867
34209W        W77121  30.251   8.573  20.626  0.3702 -0.4823  0.1239
34210W        W77122  32.707   8.585  22.136 -0.5081 -0.1104 -0.1685
34211W        W77123  31.462   7.930  20.471  0.2004  0.1019  0.0303
34212W        W77124  31.523   7.159  22.525 -0.3127 -0.1126 -0.0430
34213W        W77125  30.620  10.850  20.783 -0.0400  0.1025 -0.1952
34214W        W77126  31.046  10.812  21.480  0.0876 -0.2527 -0.0637
34215W        W77127  30.374   7.646  20.493 -0.1582 -0.1230  0.1988
34216W        W77128  28.465   8.094  20.481  0.3727  0.3330 -0.1090
34217W        W77129  29.271  10.669  23.593 -0.1544  0.1584 -0.5904
34218W        W77130  29.772   8.775  20.329 -0.0915  0.0134  0.2339
34219W        W77131  29.881   9.772  18.712 -0.0752  0.0387 -0.1410
34220W        W77132  31.846  10.397  21.870 -0.1238 -0.2948 -0.2846
34221W        W77133  31.106   9.200  23.362 -0.0109  0.0002  0.2268
34222W        W77134  30.076   6.533  20.758 -0.2243 -0.1350  0.2331
34223W        W77135  32.423   8.066  22.966 -0.1135 -0.1788  0.1550
34224W        W77136  28.727  10.170  19.795 -0.0767 -0.1432  0.2160
34225W        W77137  31.409   8.765  20.960  0.0011  0.0084 -0.1118
34226W        W77138  30.140  10.927  24.060  0.0544 -0.3469  0.1787
34227W        W77139  28.917  10.137  23.277 -0.0008 -0.2858  0.2095
34228W        W77140  31.630  10.513  22.830 -0.1187  0.0604  0.2124
34229W        W77141  30.449   6.231  21.546 -0.3569 -0.1826  0.4089
34230W        W77142  31.267   9.231  20.314 -0.4833  0.1641 -0.2621
34231W        W77143  29.870   8.999  21.959  0.3084  0.1665 -0.2257
34232W        W77144  32.111   8.329  23.712  0.0390 -0.1227 -0.2637
34233W        W77145  31.729   8.308  23.394 -0.3223  0.3490  0.0779
34234W        W77146  29.304   9.139  20.207 -0.1342  0.0060 -0.2251
34235W        W77147  30.847   9.507  22.105 -0.0642  0.1335  0.2351
34236W        W77148  32.691   9.364  20.734  0.0397  0.3222  0.0652
34237W        W77149  30.887   9.434  21.578  0.1997 -0.0243 -0.0276
34238W        W77150  28.741  10.232  23.758 -0.1388 -0.1251 -0.0498
34239W        W77151  32.125   9.533  22.887  0.0340  0.0847 -0.0729
34240W        W77152  30.721   9.274  20.872 -0.2704 -0.1598  0.0789
34241W        W77153  29.717   8.286  19.988 -0.0034  0.0563  0.1297
34242W        W77154  29.702  10.031  21.920  0.0301 -0.0014  0.0921
34243W        W77155  29.501  10.218  24.741 -0.0872  0.2387 -0.2234
34244W        W77156  28.504   7.925  23.274  0.0107 -0.0301 -0.1338
34245W        W77157  28.414  11.721  22.501 -0.2308  0.1366 -0.0130
34246W        W77158  31.944  11.245  21.272 -0.1813 -0.0105  0.1757
34247W        W77159  31.091  10.039  20.678  0.0505  0.1024  0.0406
34248W        W77160  31.251  11.388  23.132  0.1849 -0.0926 -0.0437
34249W        W77161  31.804   7.135  20.691 -0.0972 -0.1160 -0.2980
34250W        W77162  29.273   9.219  21.973  0.1656  0.4653 -0.0627
34251W        W77163  27.861  10.909  19.074 -0.2996  0.1921 -0.0823
34252W        W77164  33.042  10.833  20.948  0.2260  0.0315  0.0667
34253W        W77165  29.410   8.471  22.478  0.1616 -0.0167  0.1625
34254W        W77166  31.617  10.867  22.380  0.1271 -0.5092  0.0982
34255W        W77167  32.106   7.501  20.812 -0.3266 -0.3504 -0.1965
34256W        W77168  32.218   8.331  20.468  0.2219 -0.0348  0.0461
34257W        W77169  31.729   7.026  20.201  0.1125  0.1714 -0.2482
34258W        W77170  30.553  11.335  23.375 -0.0856 -0.2058 -0.0794
34259W        W77171  29.971   6.809  21.548  0.0434  0.1347  0.1766
34260W        W77172  30.920   7.119  19.748  0.0978  0.0695 -0.0785
34261W        W77173  29.003   9.625  22.484 -0.1462  0.0792  0.1393
34262W        W77174  31.087   8.039  22.294 -0.2459  0.1955  0.1167
34263W        W77175  27.696  10.978  21.884 -0.3311  0.0820  0.0320
34264W        W77176  31.559   9.949  20.544 -0.5916 -0.0878 -0.1687
34265W        W77177  28.585   6.855  21.127  0.2410 -0.1272  0.1970
34266W        W77178  29.437   9.738  22.277 -0.1817  0.1460  0.1401
34267W        W77179  31.696   7.461  21.755 -0.1135  0.0549 -0.1784
34268W        W77180  30.317  10.134  19.991 -0.0615 -0.0126 -0.0776
34269W        W77181  31.937   7.889  21.208 -0.2040 -0.0410 -0.0262
34270W        W77182  32.625  11.147  21.079  0.1905  0.1747 -0.0494
34271W        W77183  29.724  11.984  22.290  0.1207  0.0836  0.0283
34272W        W77184  29.888   8.248  22.471  0.0882 -0.0661  0.0053
34273W        W77185  28.590   7.318  19.414  0.0934 -0.0144 -0.0823
34274W        W77186  33.223   7.966  21.104  0.2254  0.1460  0.2433
34275W        W77187  30.552   8.968  20.512  0.1399  0.1310  0.2613
34276W        W77188  30.762   7.003  23.058 -0.0074  0.0312  0.1273
34277W        W77189  28.722   8.473  20.162  0.2452 -0.0139  0.0388
34278W        W77190  32.202   7.958  19.714 -0.4027 -0.3462  0.2373
34279W        W77191  30.417   8.675  21.134 -0.1284 -0.1079  0.0266
34280W        W77192  29.168   8.366  22.900  0.0527 -0.3068 -0.0438
34281W        W77193  31.147   8.222  20.056 -0.0761 -0.1670 -0.0431
34282W        W77194  32.456   9.577  22.495 -0.3756  0.0876  0.1144
34283W        W77195  32.213   8.428  19.931 -0.1298 -0.1449  0.0753
34284W        W77196  31.335  11.214  23.708 -0.1929 -0.0816 -0.0894
34285W        W77197  28.668   7.423  21.111 -0.0699  0.0348  0.1346
34286W        W77198  30.074   7.574  19.541  0.2134 -0.0562  0.0384
34287W        W77199  28.623   8.964  21.261 -0.0693 -0.1510  0.3402
34288W        W77200  30.888  10.083  23.345 -0.2670 -0.0214 -0.1977
34289W        W77201  32.054  10.978  23.800 -0.0351  0.3820  0.0582
34290W        W77202  29.148   7.893  21.256 -0.0080  0.0269  0.2332
34291W        W77203  31.859  10.225  20.919 -0.2431  0.1413  0.1602
34292W        W77204  31.963   8.281  22.202  0.2335 -0.0590  0.2282
34293W        W77205  30.204  10.641  19.869  0.0133 -0.3744  0.1810
34294W        W77206  32.268   9.977  21.701  0.2110  0.3911 -0.0484
34295W        W77207  31.374  10.207  21.810 -0.0199 -0.5577 -0.0248
34296W        W77208  30.663   8.700  23.146 -0.0084 -0.1761 -0.0613
34297W        W77209  31.454  10.922  20.595  0.1303 -0.0195 -0.0111
34298W        W77210  32.607  10.358  21.641  0.0613  0.1296 -0.0059
34299W        W77211  31.147   6.259  19.913 -0.0647 -0.1754  0.0951
34300W        W77212  29.519   8.897  21.103  0.0125 -0.0733  0.0159
34301W        W77213  28.738   9.239  22.177  0.3007 -0.0790  0.2968
34302W        W77214  31.809   8.233  20.869 -0.2697  0.2060 -0.1738
34303W        W77215  30.326   8.438  22.184 -0.2341  0.2090  0.4359
34304W        W77216  28.797  11.120  18.814  0.1750  0.0386 -0.0981
34305W        W77217  29.658   7.453  22.264 -0.0389  0.0318  0.1783
34306W        W77218  29.263  10.519  23.011 -0.1959  0.2288 -0.3160
34307W        W77219  27.785  10.491  21.995  0.0652 -0.2377  0.1213
34308W        W77220  29.695   8.763  19.759 -0.3577  0.1001  0.2419
34309W        W77221  29.705  10.783  22.408  0.0786 -0.2550  0.0988
34310W        W77222  28.844  10.239  21.627 -0.1659  0.1110  0.3943
34311W        W77223  30.705  10.263  20.903  0.1598  0.1851  0.3047
34312W        W77224  32.053  11.761  21.516 -0.0646  0.1618 -0.1366
34313W        W77225  31.926   8.725  20.909 -0.0005  0.1978  0.1716
34314W        W77226  31.855   9.997  20.116  0.0090  0.1115  0.0375
34315W        W77227  29.967   7.421  20.291  0.1552  0.0490  0.2190
34316W        W77228  33.538   8.733  21.064 -0.2026 -0.2090 -0.2347
34317W        W77229  32.696   6.342  20.940  0.1105  0.2032 -0.0800
34318W        W77230  28.892   8.701  22.662  0.1411  0.0690  0.1589
34319W        W77231  27.855  10.463  20.963  0.0372 -0.0392  0.2003
34320W        W77232  29.344   9.633  19.937 -0.1075 -0.2607 -0.1401
34321W        W77233  29.020   8.283  20.956 -0.0142 -0.1682 -0.0640
34322W        W77234  31.031   6.550  23.923 -0.0901 -0.1970 -0.0079
34323W        W77235  30.973   9.148  22.866 -0.0157  0.4341 -0.3678
34324W        W77236  28.583  10.019  22.636  0.2497 -0.1518  0.3044
34325W        W77237  29.561   7.074  21.481 -0.1379  0.0513 -0.1327
34326W        W77238  29.247  11.054  19.007 -0.3855 -0.1945  0.1826
34327W        W77239  29.850   7.184  21.879  0.0211  0.2013 -0.1481
34328W        W77240  29.798   8.513  22.068 -0.0750 -0.0916  0.1981
34329W        W77241  31.665  10.166  21.403 -0.0538 -0.0215  0.0923
34330W        W77242  30.908  10.448  21.762  0.4214 -0.0320 -0.1181
34331W        W77243  30.758   7.662  20.875 -0.0317 -0.0191 -0.3043
34332W        W77244  32.326  10.006  22.771 -0.2413 -0.1092 -0.0728
34333W        W77245  28.897   9.448  19.860  0.1241 -0.1875  0.0969
34334W        W77246  31.022   7.234  22.611 -0.1744  0.1003 -0.2189
34335W        W77247  31.275   9.244  22.496 -0.0719 -0.0084 -0.0885
34336W        W77248  29.795   8.404  20.655 -0.2582  0.0548  0.2356
34337W        W77249  32.500   8.075  21.548 -0.0777 -0.4247  0.1094
34338W        W77250  32.701  10.884  21.566  0.1395  0.1942  0.0097
34339W        W77251  29.609  10.578  21.341 -0.1900 -0.3023 -0.0061
34340W        W77252  29.372   9.403  22.800  0.1757  0.2129 -0.2843
34341W        W77253  30.248  10.574  22.721  0.1463  0.2073 -0.3979
34342W        W77254  28.812   7.606  22.413 -0.0423  0.0315  0.1247
34343W        W77255  32.818   8.809  20.643  0.0785  0.0502 -0.1291
34344W        W77256  29.165  10.246  21.997  0.1604 -0.0047 -0.0401
34345W        W77257  31.551  10.660  21.382 -0.0487  0.2367 -0.3404
34346W        W77258  32.582   6.668  21.313 -0.1739  0.0235  0.3429
34347W        W77259  31.331   9.539  20.677 -0.1716 -0.2569 -0.1346
34348W        W77260  29.326   7.950  24.236 -0.0267  0.0693  0.1817
34349W        W77261  29.262   9.216  23.467  0.1093 -0.1450 -0.1566
34350W        W77262  32.592  10.313  20.621  0.0343  0.1390  0.2585
34351W        W77263  29.507   7.553  22.978 -0.1923 -0.1360  0.0508
34352W        W77264  30.507   6.618  20.345  0.0581 -0.2780 -0.0703
34353W        W77265  30.483  10.512  21.276 -0.2117 -0.0122 -0.2554
34354W        W77266  29.058   8.786  21.044  0.2942  0.1105  0.0075
34355W        W77267  30.808   8.883  20.054 -0.0782  0.0425 -0.0543
34356W        W77268  30.147   8.919  22.482  0.2721  0.0165 -0.0200
34357W        W77269  30.689  10.041  21.531 -0.0149 -0.6681 -0.2066
34358W        W77270  31.719   9.476  22.495 -0.0203  0.1980 -0.1274
34359W        W77271  31.718   8.173  19.995 -0.0152 -0.1365 -0.1376
34360W        W77272  31.111   9.763  19.662 -0.1772 -0.0737  0.0086
34361W        W77273  31.240  10.061  22.767 -0.0542 -0.1446  0.2674
34362W        W77274  32.692  11.731  23.789  0.1674  0.1082 -0.0460
34363W        W77275  31.844  11.122  24.288  0.2027  0.1490  0.1974
34364W        W77276  32.146   8.701  22.230  0.0310  0.2334  0.1963
34365W        W77277  29.603   7.419  23.654  0.1045  0.0136 -0.0316
34366W        W77278  30.129   8.946  19.336  0.2777 -0.0788 -0.0190
34367W        W77279  29.042   9.257  21.314 -0.2035  0.2801  0.2092
34368W        W77280  30.839   7.597  21.358 -0.0086  0.2162  0.0027
34369W        W77281  29.997   7.378  21.408 -0.0200 -0.1976  0.0347
34370W        W77282  30.317   7.980  19.768 -0.3044  0.1657 -0.0171
34371W        W77283  29.622  11.742  21.260 -0.2790 -0.3405 -0.0009
34372W        W77284  31.325   9.754  22.136 -0.1080  0.0126 -0.1556
34373W        W77285  29.231  10.688  27.795 -0.3373  0.0258 -0.0244
34374W        W77286  31.221  10.467  26.068 -0.2833 -0.1852 -0.1535
34375W        W77287  31.053   8.269  22.766 -0.1992  0.1447 -0.0040
34376W        W77288  32.672   9.662  22.904 -0.1294  0.1714 -0.0403
34377W        W77289  28.986   8.522  25.832  0.0834 -0.2118  0.1025
34378W        W77290  31.956  10.376  25.595  0.1320 -0.1704 -0.0549
34379W        W77291  29.567   6.615  26.638 -0.0191 -0.2086  0.3144
34380W        W77292  31.237  10.787  25.722  0.3707 -0.3610  0.1482
34381W        W77293  32.169   9.642  24.988  0.1365 -0.0930 -0.0027
34382W        W77294  31.237   8.719  22.603 -0.1220 -0.1411 -0.3014
34383W        W77295  30.015   9.179  26.248  0.0873  0.0900 -0.4599
34384W        W77296  31.627   9.053  27.652  0.0520  0.2362  0.0108
34385W        W77297  30.325   8.496  23.620  0.1818  0.0785 -0.0177
34386W        W77298  27.995   6.659  24.371 -0.1183  0.1986 -0.0693
34387W        W77299  30.796   8.497  26.648  0.0023  0.1563  0.1268
34388W        W77300  29.257   8.573  23.855 -0.0674 -0.1570  0.1467
34389W        W77301  30.858   8.668  26.171  0.2770  0.0943  0.0551
34390W        W77302  28.515   7.433  24.462  0.0762 -0.1396  0.0753
34391W        W77303  30.787  10.160  24.965 -0.0920 -0.0439  0.2441
34392W        W77304  30.420   6.719  27.355  0.0024 -0.0572  0.1090
34393W        W77305  31.631   6.431  26.973  0.1870 -0.1071 -0.2140
34394W        W77306  30.191  10.310  23.611  0.0632 -0.1598 -0.2354
34395W        W77307  29.953   8.171  24.284  0.1082  0.3591 -0.1983
34396W        W77308  29.312   9.932  26.431 -0.1263 -0.0480 -0.1340
34397W        W77309  31.157   9.517  25.976  0.1000 -0.1018 -0.2951
34398W        W77310  32.932   7.275  26.158  0.1886 -0.3982  0.2183
34399W        W77311  31.373   9.940  26.093 -0.1402  0.1264 -0.0560
34400W        W77312  30.183  12.292  25.837  0.0336  0.1065 -0.1416
34401W        W77313  32.667  11.517  25.019  0.0685 -0.0416  0.1104
34402W        W77314  30.879   6.969  27.246 -0.0347 -0.1075 -0.0603
34403W        W77315  28.765  11.071  24.740 -0.1350 -0.0161  0.1072
34404W        W77316  29.796  11.307  26.153 -0.1533 -0.0291 -0.1035
34405W        W77317  29.990  10.310  24.829  0.4311  0.0769  0.0544
34406W        W77318  32.346  10.583  24.693  0.0080  0.1935  0.0298
34407W        W77319  30.847  11.124  25.628 -0.2844 -0.0129  0.2960
34408W        W77320  30.670  11.296  27.039 -0.0035 -0.0852  0.0031
34409W        W77321  27.937   9.184  24.450 -0.4287 -0.1933 -0.0115
34410W        W77322  31.160  12.300  25.750  0.1480  0.0840 -0.1318
34411W        W77323  30.421   9.466  26.603  0.1369  0.0673  0.1730
34412W        W77324  31.961   9.290  25.305  0.0834 -0.2512 -0.0959
34413W        W77325  30.481   8.800  25.418  0.4125  0.0502  0.2674
34414W        W77326  29.235   8.942  22.974  0.1263  0.4147 -0.1275
34415W        W77327  31.958   9.090  24.072  0.0401  0.2097  0.1189
34416W        W77328  30.480  10.153  26.167 -0.0608 -0.4249  0.2370
34417W        W77329  30.231  10.500  25.780  0.0872  0.2116  0.1370
34418W        W77330  32.612   8.306  27.591  0.1144 -0.2447  0.1373
34419W        W77331  29.119   8.850  25.046 -0.0461  0.2814  0.0227
34420W        W77332  31.694   8.163  25.112  0.0031  0.0054 -0.0929
34421W        W77333  30.807   8.665  23.743  0.1335 -0.0702 -0.0483
34422W        W77334  31.705   8.891  24.432 -0.0738 -0.0367 -0.2321
34423W        W77335  29.981   8.425  25.105  0.1597 -0.2995  0.0699
34424W        W77336  30.447  11.407  25.572  0.2135 -0.2138  0.0043
34425W        W77337  30.510   8.517  25.823  0.0369  0.1103 -0.3511
34426W        W77338  30.717  10.495  25.867  0.1608  0.3941 -0.3056
34427W        W77339  31.438   9.148  26.141  0.0402  0.3750  0.1471
34428W        W77340  31.114   7.851  26.024 -0.2089 -0.0445  0.1855
34429W        W77341  28.905  12.089  25.947 -0.0133  0.1422  0.3442
34430W        W77342  30.578  10.608  26.345  0.0173 -0.2355 -0.2757
34431W        W77343  33.331  10.785  23.451 -0.2309  0.1440 -0.3217
34432W        W77344  33.073  11.447  24.707 -0.0428  0.0911  0.1886
34433W        W77345  32.060  10.174  24.366 -0.2864 -0.3447 -0.0515
34434W        W77346  31.031   8.694  24.698  0.2781 -0.0847  0.0603
34435W        W77347  29.219  10.704  26.780 -0.1673  0.2591  0.1315
34436W        W77348  30.020   8.446  25.874  0.0455 -0.1043  0.1222
34437W        W77349  31.052   7.819  23.254  0.0929  0.0826 -0.2360
34438W        W77350  32.016  10.212  27.112 -0.0074 -0.2589  0.1390
34439W        W77351  29.611  10.676  27.458  0.0033 -0.0370 -0.1407
34440W        W77352  31.176   7.976  25.143 -0.0489 -0.3291  0.1447
34441W        W77353  30.355  10.281  24.415 -0.1539  0.0739 -0.0466
34442W        W77354  31.795  10.386  26.712  0.0344 -0.0374 -0.1217
34443W        W77355  32.415   9.572  21.112 -0.3215 -0.3337 -0.2391
34444W        W77356  30.633   7.291  25.401 -0.0829  0.1688 -0.1377
34445W        W77357  32.219   8.418  25.700  0.0118 -0.1711 -0.1361
34446W        W77358  30.318   8.815  23.977 -0.0131  0.2302 -0.0389
34447W        W77359  29.888   8.493  24.608 -0.1946 -0.2088  0.1579
34448W        W77360  32.158  10.318  26.390 -0.2501 -0.0896 -0.1505
34449W        W77361  32.890   9.920  23.415 -0.0607  0.2997  0.2362
34450W        W77362  28.881  11.023  26.585 -0.0380 -0.0737 -0.1459
34451W        W77363  30.870   8.671  27.099 -0.0692  0.4313  0.1464
34452W        W77364  31.411   9.039  27.199 -0.1929  0.0939  0.2749
34453W        W77365  29.743  10.487  22.833  0.0677  0.0448 -0.0025
34454W        W77366  28.670  10.128  25.518 -0.0291  0.1560 -0.0435
34455W        W77367  29.876   9.811  26.078  0.1026 -0.0016  0.0335
34456W        W77368  29.368   8.297  26.436 -0.0190 -0.0860 -0.2239
34457W        W77369  30.867  10.991  26.097  0.2097  0.0382 -0.0720
34458W        W77370  32.617   8.866  23.190 -0.3535  0.0624  0.1331
34459W        W77371  30.366   8.573  27.303  0.0665 -0.3198  0.0721
34460W        W77372  31.651   7.610  25.266  0.2324  0.1697  0.1447
34461W        W77373  30.027  10.780  25.063  0.0904  0.2693 -0.0645
34462W        W77374  32.819   8.992  23.636  0.1156  0.1097 -0.1790
34463W        W77375  30.994   9.646  22.614 -0.1223 -0.0451  0.1627
34464W        W77376  31.811   9.503  23.284 -0.2274 -0.0978 -0.0541
34465W        W77377  28.435   9.611  26.441 -0.2349 -0.2335 -0.0368
34466W        W77378  29.661   9.054  25.669  0.0112  0.2203 -0.0603
34467W        W77379  29.588   8.741  27.729  0.0924  0.1812  0.1374
34468W        W77380  28.082   7.921  27.487  0.1249  0.1135  0.0093
34469W        W77381  31.923   8.698  27.905 -0.2614 -0.3972 -0.0838
34470W        W77382  30.284   6.900  24.431 -0.1128  0.1989  0.1855
34471W        W77383  32.719   8.679  24.125  0.0855 -0.1905 -0.1789
34472W        W77384  30.963   8.592  25.578  0.1120 -0.3058  0.0100
34473W        W77385  27.763   8.852  23.329 -0.2445 -0.0738 -0.1388
34474W        W77386  32.978   7.113  26.639 -0.2895  0.2597  0.1629
34475W        W77387  30.586  10.004  23.750  0.1116 -0.0041  0.3663
34476W        W77388  32.116   9.326  27.615  0.2797 -0.0027 -0.3831
34477W        W77389  31.632   9.536  24.010 -0.2063 -0.0375  0.0117
34478W        W77390  29.685   8.451  26.798 -0.0504  0.2680 -0.3550
34479W        W77391  28.649   8.310  22.868  0.6071  0.0344  0.0315
34480W        W77392  29.099  10.273  25.338 -0.2482 -0.0318  0.0621
34481W        W77393  31.586   9.019  25.171 -0.1997  0.1135 -0.2044
34482W        W77394  29.108   7.579  23.935 -0.1934 -0.0079 -0.0035
34483W        W77395  32.182  12.700  26.436  0.0996 -0.1078  0.3367
34484W        W77396  30.204  10.815  24.542  0.0920  0.0768  0.0201
34485W        W77397  28.947  10.830  26.151  0.0047 -0.0438  0.0171
34486W        W77398  31.495   7.556  26.268  0.1166 -0.4664  0.2073
34487W        W77399  31.272   9.577  26.471  0.1075  0.1849  0.0934
34488W        W77400  33.297   8.923  26.117 -0.1727  0.0271 -0.0709
34489W        W77401  29.650   8.059  24.615 -0.0820 -0.3399 -0.1196
34490W        W77402  31.565  11.686  25.463  0.3497 -0.0779  0.1241
34491W        W77403  30.286   9.521  23.773  0.2464 -0.0630  0.0520
34492W        W77404  30.247   8.947  25.832 -0.1004  0.0697  0.3681
34493W        W77405  31.157  10.263  25.386  0.1263  0.1616 -0.2609
34494W        W77406  32.419   8.031  25.859  0.0994  0.0886  0.1200
34495W        W77407  27.552   8.294  26.572  0.0787 -0.2875  0.1378
34496W        W77408  29.881   8.966  26.770  0.1077 -0.1055 -0.1653
34497W        W77409  30.096   8.056  23.852  0.0191  0.2516 -0.0689
34498W        W77410  31.605  10.897  26.773 -0.2827  0.1150 -0.0091
34499W        W77411  31.360   8.908  25.661  0.2473  0.1196 -0.3904
34500W        W77412  33.677   9.228  24.655 -0.0226 -0.0303 -0.1290
34501W        W77413  30.933   9.779  28.006 -0.2481  0.2085  0.0156
34502W        W77414  32.271   8.676  24.025 -0.0457 -0.0513  0.5902
34503W        W77415  31.997   8.211  24.707  0.0096  0.0738 -0.2588
34504W        W77416  29.892   6.913  22.340 -0.1366  0.3365  0.0501
34505W        W77417  28.414   9.958  27.635 -0.1187  0.2004  0.1551
34506W        W77418  30.765  10.577  24.487  0.0743  0.0570  0.0395
34507W        W77419  30.575  10.148  25.507  0.1030 -0.2890 -0.1568
34508W        W77420  30.509   9.060  23.467 -0.2345 -0.0733 -0.0113
34509W        W77421  32.486  10.022  23.708 -0.1464  0.2059  0.2551
34510W        W77422  28.516   9.800  25.957  0.0394 -0.2878  0.0154
34511W        W77423  32.140   9.683  26.953 -0.0609  0.0834 -0.0849
34512W        W77424  31.352   9.911  25.091  0.0695 -0.1952  0.1203
34513W        W77425  31.226   7.712  26.815  0.1197  0.1572 -0.0940
34514W        W77426  30.049  10.119  23.062 -0.2227  0.1370 -0.1475
34515W        W77427  29.517   7.676  26.298 -0.1321  0.0014  0.1632
34516W        W77428  29.299  11.185  24.839  0.2510  0.2588 -0.1029
34517W        W77429  32.684   7.039  25.783 -0.1991  0.0463 -0.3948
34518W        W77430  31.811   6.890  24.248 -0.2125 -0.1299  0.0659
34519W        W77431  30.927   6.991  26.236 -0.2883  0.1199 -0.2046
34520W        W77432  31.099   8.170  26.960 -0.2887 -0.0582 -0.0451
34521W        W77433  33.162  10.187  23.749 -0.1532  0.1372 -0.3457
34522W        W77434  30.137   8.017  24.828  0.1610 -0.1303 -0.1530
34523W        W77435  29.713   8.505  22.963 -0.0565 -0.1582  0.0739
34524W        W77436  31.022   7.605  25.463  0.1971 -0.0670  0.2220
34525W        W77437  29.086   8.419  27.067  0.0847 -0.2043  0.0619
34526W        W77438  29.960  11.269  26.706 -0.0618  0.1637 -0.2244
34527W        W77439  31.165   9.341  25.463 -0.1002 -0.2089  0.3695
34528W        W77440  32.294   8.944  25.046  0.0066 -0.0168  0.0754
34529W        W77441  31.314   8.573  26.253  0.0082  0.3184  0.1963
34530W        W77442  31.754   8.706  23.836 -0.0879  0.1622  0.2586
34531W        W77443  30.403  10.845  23.570  0.0012 -0.0347  0.1660
34532W        W77444  30.891   9.740  25.286  0.1961  0.3542  0.1773
34533W        W77445  30.454   8.950  26.351  0.3027  0.2053  0.0698
34534W        W77446  30.729   9.039  25.819  0.2266  0.5495  0.0267
34535W        W77447  29.598   9.989  24.111  0.3375 -0.0360 -0.0065
34536W        W77448  31.066   9.909  27.531 -0.0957  0.0476  0.1026
34537W        W77449  30.546  11.172  25.129 -0.3378 -0.0363  0.0516
34538W        W77450  31.336   6.815  25.548 -0.0015  0.2123 -0.0356
34539W        W77451  28.862  11.757  26.281  0.1498  0.0852  0.3256
34540W        W77452  29.907   8.299  23.406  0.1916  0.1113 -0.1937
34541W        W77453  28.889   8.447  25.344  0.2400 -0.0803 -0.1581
34542W        W77454  31.468   7.727  25.706  0.0411  0.1136 -0.2121
34543W        W77455  32.530   9.220  22.828 -0.2421  0.3421  0.1534
34544W        W77456  30.533   7.310  26.491 -0.0436 -0.0651 -0.1294
34545W        W77457  30.497   7.440  24.529  0.1985 -0.0089  0.0079
34546W        W77458  29.501  10.855  26.209 -0.0129 -0.1364 -0.2496
34547W        W77459  30.864   9.215  26.386  0.2624 -0.1301  0.0118
34548W        W77460  31.473   7.238  23.891 -0.1781 -0.0002 -0.4010
34549W        W77461  31.299  10.480  26.654 -0.0832 -0.0623  0.0548
34550W        W77462  30.120   9.428  27.670 -0.1810 -0.2564  0.0159
34551W        W77463  28.787   8.775  24.085  0.0967 -0.1634 -0.2896
34552W        W77464  33.069   7.973  25.516 -0.0402  0.3085  0.2910
34553W        W77465  31.315   9.839  25.596  0.1162 -0.1478 -0.1254
34554W        W77466  29.068   9.766  25.415 -0.2331 -0.0272 -0.0303
34555W        W77467  32.024  11.846  25.290  0.2824  0.3126 -0.1843
34556W        W77468  29.741   7.639  24.850  0.0457 -0.0884 -0.2333
34557W        W77469  29.984   9.791  24.952  0.0011  0.2546  0.0042
34558W        W77470  29.733   8.328  28.133  0.2287  0.3186 -0.1204
34559W        W77471  30.979  10.199  26.389  0.2009 -0.2979  0.0087
34560W        W77472  30.667   7.883  24.362 -0.0168  0.0490  0.0824
34561W        W77473  29.767   8.106  25.646 -0.2223 -0.2689 -0.0332
34562W        W77474  31.486   9.143  26.691 -0.1757  0.1221 -0.2460
34563W        W77475  30.444   8.636  24.935  0.4150  0.0120 -0.1028
34564W        W77476  30.579   9.073  26.818  0.0034  0.0045  0.1612
34565W        W77477  29.748   9.128  27.395  0.4211  0.3685 -0.0024
34566W        W77478  31.651   8.187  23.889  0.0064  0.0722 -0.3591
34567W        W77479  32.660  10.377  22.498  0.3610 -0.0445 -0.2254
34568W        W77480  31.794   8.467  27.044  0.1146  0.1839  0.0546
34569W        W77481  31.180   9.122  24.321  0.1603 -0.1415  0.0747
34570W        W77482  29.000   9.616  26.192 -0.0114  0.1460 -0.2528
34571W        W77483  30.388   9.687  24.260  0.2366  0.0390  0.2331
34572W        W77484  30.748   8.171  26.127  0.4372 -0.0048  0.2295
34573W        W77485  30.048  10.907  26.369 -0.0907  0.1758 -0.3575
34574W        W77486  29.669  10.084  25.620  0.1291 -0.2718 -0.0686
34575W        W77487  29.426  11.059  27.174  0.1308  0.3664  0.5128
34576W        W77488  32.540   6.942  22.774  0.0883  0.1262  0.1205
34577W        W77489  32.619   9.088  22.363 -0.2394 -0.1213  0.3485
34578W        W77490  31.633   9.523  25.013 -0.1299  0.2008 -0.2010
34579W        W77491  32.314   7.844  26.739  0.0007 -0.2807  0.2763
34580W        W77492  31.258   8.825  23.696 -0.1205  0.3000 -0.0182
34581W        W77493  31.390   6.919  26.949 -0.1306  0.1087  0.0952
34582W        W77494  30.279   6.434  26.580 -0.0425 -0.0831 -0.1916
34583W        W77495  31.969   9.197  24.739 -0.0530 -0.2204 -0.0445
34584W        W77496  30.063   7.352  25.635 -0.2106 -0.1336  0.0710
34585W        W77497  32.233  10.275  27.612 -0.1486 -0.1957  0.1641
34586W        W77498  28.453   8.836  25.976  0.0854  0.1488 -0.2153
34587W        W77499  31.208   9.195  24.815 -0.2367  0.5874 -0.2747
34588W        W77500  31.261   8.263  23.551  0.1622 -0.2110 -0.1704
34589W        W77501  31.089   9.967  26.830 -0.2543  0.0543  0.1877
34590W        W77502  32.177   9.550  25.743  0.1521 -0.0268 -0.0259
34591W        W77503  30.537   8.959  22.139  0.0928  0.1643  0.0068
34592W        W77504  32.672   8.500  25.005  0.1429 -0.0531 -0.3525
34593W        W77505  30.086  10.766  27.701  0.1310  0.2720  0.0149
34594W        W77506  32.453  10.065  24.727  0.0032  0.0524 -0.0738
34595W        W77507  30.741   9.156  23.894  0.0570 -0.0444 -0.1339
34596W        W77508  30.680   9.622  25.667 -0.0596 -0.2592 -0.0426
34597W        W77509  30.349   7.497  26.899 -0.2153 -0.0450 -0.0133
34598W        W77510  31.060   8.915  25.216 -0.2035 -0.0492 -0.0617
34599W        W77511  31.614   7.187  25.606 -0.2504  0.3578  0.0195
34600W        W77512  30.684   7.476  25.967 -0.2466 -0.0554  0.0803
34601W        W77513  30.866   7.707  27.133  0.0131  0.2362 -0.1328
34602W        W77514  30.983   9.306  26.836  0.2556  0.1151 -0.2646
34603W        W77515  30.701   7.909  24.892 -0.1207  0.1099 -0.0038
34604W        W77516  32.269  11.302  25.176  0.0296  0.0560  0.1600
34605W        W77517  31.607   7.231  23.371  0.3231 -0.0894  0.1390
34606W        W77518  31.606   7.378  26.809  0.2363  0.0088 -0.0485
34607W        W77519  32.095   8.032  24.103 -0.0455  0.1290  0.0702
34608W        W77520  31.724   8.768  23.353  0.1966 -0.0443 -0.0384
34609W        W77521  29.997   8.638  26.355 -0.0678 -0.1027 -0.0264
34610W        W77522  32.596   9.587  27.172 -0.1501  0.3057  0.1749
34611W        W77523  31.229   8.609  23.186  0.2980  0.1767  0.0767
34612W        W77524  30.086   8.904  27.704 -0.0497  0.0957  0.2188
34613W        W77525  30.774  10.469  23.620 -0.1279 -0.2103  0.2934
34614W        W77526  31.601  10.348  25.147 -0.4799 -0.1330 -0.0095
34615W        W77527  31.479   7.736  23.987 -0.0665 -0.3497 -0.3016
34616W        W77528  29.507   9.262  26.236 -0.0841 -0.2482 -0.2452
34617W        W77529  28.419  10.812  25.951  0.2152  0.2610  0.3967
34618W        W77530  29.312   8.455  24.726 -0.3840 -0.1448  0.1315
34619W        W77531  29.798   9.290  25.151  0.2854  0.1736 -0.0208
34620W        W77532  30.885  10.433  27.000 -0.0516 -0.1242  0.0538
34621W        W77533  31.925   8.825  26.743  0.0930  0.2608  0.0216
34622W        W77534  31.702   6.793  23.607  0.0659 -0.0473  0.1533
34623W        W77535  31.705   8.409  26.510 -0.1874 -0.2195 -0.4571
34624W        W77536  29.918   9.966  24.492 -0.2235 -0.1428 -0.0737
34625W        W77537  30.441   6.934  25.779  0.1125 -0.0806 -0.0512
34626W        W77538  28.480  10.610  24.707 -0.2199 -0.4087 -0.2498
34627W        W77539  28.803   9.735  27.193 -0.0619 -0.0091  0.1306
34628W        W77540  30.971  11.388  24.755 -0.0474  0.0022  0.1930
34629W        W77541  30.658   8.287  24.072  0.2543 -0.3153 -0.0973
34630W        W77542  31.955   7.455  24.061  0.0587 -0.2605  0.1032
34631W        W77543  30.533   9.776  24.678  0.0738 -0.1308  0.1917
34632W        W77544  33.575   9.501  27.279 -0.0497 -0.0239  0.0941
34633W        W77545  30.797   9.717  26.420 -0.3355 -0.0094  0.1487
34634W        W77546  30.370  10.856  25.454  0.0954  0.1708 -0.3402
34635W        W77547  30.941  11.694  26.823  0.2164  0.3068  0.3353
34636W        W77548  31.761  10.851  25.888 -0.3638  0.3327  0.2031
34637W        W77549  31.418  11.415  24.150  0.0448  0.0795  0.0142
34638W        W77550  28.029   9.418  26.660 -0.0230  0.0191  0.3443
34639W        W77551  31.598   9.958  26.956 -0.0555  0.0985  0.0437
34640W        W77552  32.438   8.768  25.458 -0.0959  0.3354  0.1458
34641W        W77553  30.279   7.867  23.277 -0.1522 -0.1550  0.1019
34642W        W77554  30.220  11.345  22.971 -0.1658  0.0335 -0.0090
34643W        W77555  30.280  10.253  28.428 -0.0941  0.0264  0.1158
34644W        W77556  28.838  10.064  26.270  0.0341  0.0136  0.1524
34645W        W77557  28.484  12.595  25.344  0.0654 -0.1822  0.2866
34646W        W77558  32.049   9.526  23.728 -0.1111 -0.0484  0.1411
34647W        W77559  31.178  10.130  23.776 -0.0020  0.2125  0.1213
34648W        W77560  30.719  11.428  26.002  0.2346  0.2183  0.0384
34649W        W77561  30.784   9.333  24.628 -0.2294 -0.2713 -0.0385
34650W        W77562  29.867  10.845  25.643  0.1615  0.1737  0.0499
34651W        W77563  29.354   9.303  24.303  0.2085 -0.1173  0.2227
34652W        W77564  31.245  10.688  23.606  0.0495 -0.3717 -0.3450
34653W        W77565  29.531  10.390  25.217 -0.1417 -0.2031 -0.1906
34654W        W77566  32.739  10.288  27.536 -0.2377  0.0840 -0.1759
34655W        W77567  32.095   8.949  23.045  0.1159 -0.1751 -0.0252
34656W        W77568  32.814   8.983  27.505  0.0389 -0.2006  0.1077
34657W        W77569  31.314   8.239  25.666 -0.0417  0.0878 -0.0032
34658W        W77570  31.682   8.547  25.906 -0.1574  0.1791  0.0980
34659W        W77571  30.505   8.259  25.359 -0.0044  0.0353 -0.1070
34660W        W77572  31.172   7.427  23.536  0.1718 -0.1327  0.3054
34661W        W77573  29.960  10.345  27.285  0.3678  0.0635 -0.1933
34662W        W77574  31.198   7.331  25.940  0.1527 -0.0597  0.3697
34663W        W77575  28.349  11.266  28.629  0.1022 -0.0392  0.1671
34664W        W77576  31.373   9.954  24.221 -0.1759 -0.2171 -0.2153
34665W        W77577  29.513   8.134  25.064  0.1169  0.0186 -0.2190
34666W        W77578  30.506   8.287  24.567  0.0240  0.1078 -0.0915
34667W        W77579  31.864   8.767  25.430  0.1731  0.1015 -0.0437
34668W        W77580  32.252   9.269  23.391 -0.0901 -0.0423 -0.0112
34669W        W77581  33.408   9.615  25.460  0.0899  0.0135 -0.1043
34670W        W77582  30.375  11.623  25.026 -0.1457 -0.0491  0.2045
34671W        W77583  30.448   9.509  27.181  0.1929  0.4359  0.2792
34672W        W77584  31.746  11.394  26.567  0.0421  0.4991 -0.0197
34673W        W77585  27.635   6.368  24.518 -0.2781  0.1179 -0.0408
34674W        W77586  32.820   8.940  25.181 -0.0167 -0.0170  0.3882
34675W        W77587  29.156   9.379  26.631 -0.0555 -0.1658 -0.1024
34676W        W77588  32.781   8.854  26.234  0.0442  0.1671  0.0262
34677W        W77589  30.005   9.377  25.783 -0.1219 -0.0003  0.1698
34678W        W77590  31.130   8.137  24.074  0.1720 -0.0545  0.0808
34679W        W77591  32.188   9.722  26.351 -0.2320  0.1863  0.0561
34680W        W77592  29.518   9.606  25.836  0.2280  0.1942  0.1677
34681W        W77593  31.407   8.525  25.215  0.0161  0.0011  0.1001
34682W        W77594  33.056   9.007  26.624 -0.1215  0.2138 -0.0089
34683W        W77595  31.514   9.070  22.954 -0.1678 -0.4370  0.0694
34684W        W77596  30.310  11.367  26.367 -0.0033 -0.0504  0.2738
34685W        W77597  29.549   8.497  25.942  0.2601  0.1181  0.3725
34686W        W77598  31.484   8.444  24.675 -0.2387  0.1383  0.1137
34687W        W77599  30.153   9.882  26.479  0.1861  0.0246 -0.2596
34688W        W77600  29.664   9.591  26.559  0.0235 -0.4289 -0.0021
34689W        W77601  32.423  11.112  27.209  0.1299 -0.1384 -0.0692
34690W        W77602  29.968   7.788  25.262 -0.0715 -0.0413 -0.1746
34691W        W77603  32.676   8.763  22.704 -0.3407  0.1004 -0.0045
34692W        W77604  32.269  10.621  26.730 -0.4168  0.1910  0.2248
34693W        W77605  30.779  11.319  22.881  0.3267  0.4423  0.1136
34694W        W77606  32.685   8.503  25.869  0.1486 -0.4151 -0.0626
34695W        W77607  31.729  10.724  24.832 -0.1849 -0.1157  0.1217
34696W        W77608  28.735   8.033  27.011  0.2267  0.0570  0.2929
34697W        W77609  32.553  11.730  24.439  0.0226 -0.0136  0.2112
34698W        W77610  33.135  10.556  26.397 -0.2303 -0.3138 -0.0472
34699W        W77611  32.757   9.006  24.648 -0.0715 -0.0899 -0.0882
34700W        W77612  30.923   8.438  25.088  0.0656  0.0715  0.3376
34701W        W77613  29.016   9.916  24.923  0.3163  0.0620 -0.0450
34702W        W77614  32.694   7.616  25.768  0.0015 -0.0220  0.2213
34703W        W77615  32.506   9.982  26.636 -0.0443 -0.1862  0.0444
34704W        W77616  30.394  10.443  25.102 -0.0510  0.1167  0.0806
34705W        W77617  32.840   6.824  26.984 -0.1530 -0.3243 -0.0770
34706W        W77618  30.667   9.983  27.190  0.0237 -0.3600 -0.1395
34707W        W77619  30.294  10.669  28.679 -0.0099 -0.0991  0.1069
34708W        W77620  29.741  10.404  23.816  0.0380 -0.1979  0.0725
34709W        W77621  31.797   9.410  27.161  0.3780 -0.0847  0.1463
34710W        W77622  30.860  10.141  24.268  0.1781  0.0754  0.0658
34711W        W77623  31.098  10.544  24.049  0.1698  0.2327  0.2056
34712W        W77624  31.209  10.738  24.867  0.2266 -0.0086 -0.1243
34713W        W77625  29.783   7.727  24.010  0.0573 -0.0600 -0.1538
34714W        W77626  33.484  10.863  25.428  0.0171 -0.1226 -0.1218
34715W        W77627  30.001   8.892  25.367  0.0093  0.1337 -0.1134
34716W        W77628  32.229   6.631  24.276  0.1557  0.0957  0.0818
34717W        W77629  30.585   8.072  23.629  0.0937  0.0070 -0.2254
34718W        W77630  29.842  10.495  26.147 -0.0731  0.1111  0.0621
34719W        W77631  29.904   9.064  24.367 -0.1888 -0.1074 -0.1938
34720W        W77632  29.994   9.053  23.673 -0.3548 -0.0727 -0.1532
34721W        W77633  29.417  11.100  25.796  0.1136 -0.1414  0.1100
34722W        W77634  31.226   7.368  27.223 -0.1414 -0.1890  0.0728
34723W        W77635  29.806   6.926  27.910 -0.3600 -0.1792 -0.0082
34724W        W77636  30.135  10.434  26.567  0.2108 -0.1157  0.1212
34725W        W77637  29.881   9.525  24.165 -0.1016 -0.0216 -0.1761
34726W        W77638  31.823   8.449  24.284  0.2099  0.0398  0.2216
34727W        W77639  28.307   7.257  26.127 -0.1536 -0.2578 -0.1010
34728W        W77640  29.369   7.523  25.152  0.1393  0.1383  0.1137
34729W        W77641  31.944   9.999  25.963  0.1462 -0.3243  0.2520
34730W        W77642  32.516  10.230  24.193 -0.2213  0.0549  0.1197
34731W        W77643  30.043   8.959  24.857  0.0011  0.3411  0.0165
34732W        W77644  32.372  10.574  27.203  0.4454  0.2880  0.0852
34733W        W77645  26.980   9.770  23.657 -0.1986  0.2189  0.0372
34734W        W77646  29.472   8.765  26.443  0.0383  0.0016 -0.0836
34735W        W77647  30.578   7.361  27.330  0.1646 -0.0847 -0.1109
34736W        W77648  29.245   7.601  23.355 -0.1691  0.1409  0.0281
34737W        W77649  31.562   8.033  26.175 -0.2318  0.0504  0.2050
34738W        W77650  31.139  10.486  23.133 -0.0422 -0.3532 -0.0431
34739W        W77651  32.705  11.309  23.417  0.0125  0.0215  0.3256
34740W        W77652  31.021   9.726  24.793 -0.0113 -0.4167 -0.0500
34741W        W77653  31.182  10.950  27.105  0.2379 -0.3130  0.3617
34742W        W77654  30.317   8.655  26.808  0.1471 -0.0019 -0.4419
34743W        W77655  32.312   9.774  23.298  0.3620 -0.1317 -0.0359
34744W        W77656  31.122  10.481  27.438  0.1886 -0.3022 -0.0922
34745W        W77657  31.935  10.082  23.470 -0.1698  0.0858 -0.0836
34746W        W77658  32.128   9.039  25.787 -0.1287  0.1393  0.3835
34747W        W77659  32.744   9.420  24.934  0.0023 -0.1877 -0.2781
34748W        W77660  30.008   6.960  28.538 -0.3318 -0.0871  0.2564
34749W        W77661  30.586  10.140  26.678 -0.1246  0.1766  0.2160
34750W        W77662  31.821   8.867  26.233 -0.0708  0.0459 -0.0045
34751W        W77663  29.217   7.228  25.556  0.3651  0.0891  0.1613
34752W        W77664  32.312   8.772  24.562  0.0916  0.2456 -0.0578
34753W        W77665  31.472   9.754  23.606 -0.0234 -0.2112 -0.0242
34754W        W77666  29.729  10.794  26.751 -0.1481  0.1680 -0.0439
34755W        W77667  30.846   8.075  25.629 -0.2002  0.0087  0.0876
34756W        W77668  30.376   9.460  26.081 -0.0163 -0.3374 -0.0599
34757W        W77669  30.476  10.591  24.007  0.1777  0.2503  0.2323
34758W        W77670  31.150   8.065  26.479  0.2858 -0.0695 -0.0231
34759W        W77671  30.368   9.735  25.230  0.4331 -0.0356 -0.0092
34760W        W77672  32.707   9.542  22.058  0.1019 -0.1263 -0.0487
34761W        W77673  30.334  11.086  25.927  0.1562  0.1520 -0.0738
34762W        W77674  33.215   9.284  27.028  0.3541 -0.1747 -0.0485
34763W        W77675  29.889  11.908  25.911  0.2816  0.0019 -0.3287
34764W        W77676  31.818   9.805  25.467  0.0897 -0.0750 -0.1953
34765W        W77677  28.847   7.618  25.450  0.0308 -0.1243  0.1197
34766W        W77678  30.821   8.798  24.249  0.2666 -0.1251 -0.0515
34767W        W77679  30.764   9.299  25.148 -0.1376 -0.2832 -0.0882
34768W        W77680  31.586   9.399  25.665 -0.1797  0.0456 -0.1448
34769W        W77681  30.308   9.368  24.859 -0.0962 -0.1297 -0.0473
34770W        W77682  32.344   6.128  24.256 -0.3999 -0.2678 -0.1276
34771W        W77683  31.058  11.829  25.864 -0.0927  0.0386 -0.0779
34772W        W77684  31.771   9.512  26.109  0.3753  0.1529  0.1261
34773W        W77685  30.365  10.014  31.326  0.0479  0.0328  0.3191
34774W        W77686  29.331   9.814  26.967 -0.1424  0.2705 -0.1353
34775W        W77687  31.520   7.779  27.262  0.1813  0.1552  0.0139
34776W        W77688  32.305   8.426  28.529 -0.2384 -0.1592 -0.0343
34777W        W77689  28.850   7.563  27.911  0.4155 -0.0213  0.0300
34778W        W77690  32.378  10.176  29.836  0.1523  0.2147 -0.1659
34779W        W77691  28.778   7.089  30.460 -0.0596  0.1361 -0.0028
34780W        W77692  32.793  10.745  28.711 -0.0237 -0.1405 -0.2657
34781W        W77693  32.043   8.881  29.064  0.4295 -0.0273 -0.1483
34782W        W77694  32.523  10.133  27.116 -0.1126  0.0477 -0.0359
34783W        W77695  31.405   8.875  30.777  0.1139 -0.1180  0.3529
34784W        W77696  30.076  10.328  30.544 -0.0362 -0.0625  0.0806
34785W        W77697  30.075   8.403  27.666 -0.2003 -0.0548  0.0026
34786W        W77698  29.804   7.933  29.096 -0.0215  0.0923 -0.2774
34787W        W77699  30.742   7.631  30.651 -0.0927  0.2869  0.0568
34788W        W77700  29.382   8.251  28.987  0.0446 -0.2584 -0.1084
34789W        W77701  29.558   8.188  30.142 -0.0914 -0.0951  0.2514
34790W        W77702  29.590   7.316  28.542 -0.0178 -0.0313 -0.1091
34791W        W77703  31.118  10.244  29.366  0.1064  0.3161  0.0946
34792W        W77704  30.510   7.910  31.029  0.0431  0.1931 -0.0746
34793W        W77705  31.399   8.412  30.742 -0.1288 -0.2064 -0.0417
34794W        W77706  31.541  10.000  29.310 -0.0575 -0.2137 -0.0180
34795W        W77707  28.528   9.462  26.884 -0.0402  0.1090 -0.3724
34796W        W77708  28.294   7.800  29.939  0.0210  0.1017 -0.1111
34797W        W77709  29.967   8.039  29.595  0.0128  0.2706  0.3182
34798W        W77710  31.459   6.410  28.744  0.1722  0.1115 -0.2875
34799W        W77711  31.205   9.374  27.631  0.1092 -0.1596 -0.1279
34800W        W77712  30.647  10.243  28.994  0.0839  0.0619 -0.1323
34801W        W77713  31.887   9.992  29.854  0.0141  0.1770  0.1577
34802W        W77714  31.695   8.297  29.879  0.2059  0.0442  0.0709
34803W        W77715  29.183   9.278  29.941 -0.2104  0.2457  0.0558
34804W        W77716  29.700   9.901  28.832  0.0420  0.0864  0.0810
34805W        W77717  31.110   8.828  27.538 -0.1530  0.0532  0.1241
34806W        W77718  32.232   9.902  28.616 -0.0192  0.2275  0.2293
34807W        W77719  32.862  10.048  29.528  0.0277 -0.1265  0.3213
34808W        W77720  30.360   9.163  31.070 -0.0534  0.3341  0.1396
34809W        W77721  30.003  10.706  28.251  0.1850 -0.2321 -0.1226
34810W        W77722  30.202  10.708  31.316  0.1613  0.0627 -0.0529
34811W        W77723  30.398  10.663  31.831  0.2491  0.1715 -0.1151
34812W        W77724  31.166   9.666  30.750  0.0669  0.0760  0.1282
34813W        W77725  30.061   9.321  28.167 -0.3112 -0.0542 -0.1510
34814W        W77726  30.216  10.042  29.385 -0.2310  0.1377 -0.3726
34815W        W77727  30.673   9.250  28.837  0.0063  0.0763  0.0578
34816W        W77728  32.145   9.430  30.369  0.0209 -0.1567  0.1075
34817W        W77729  29.003   9.430  28.978  0.2470  0.0202 -0.1855
34818W        W77730  33.053   7.680   0.005  0.0784  0.3178  0.0987
34819W        W77731  28.752  10.689  27.625  0.0328  0.0309  0.1423
34820W        W77732  32.284   8.717  26.179  0.0508 -0.3626 -0.0688
34821W        W77733  29.582   8.249  27.435 -0.1455  0.1998  0.0423
34822W        W77734  31.866   7.688  28.592 -0.1185  0.2310  0.0325
34823W        W77735  29.666   8.899  29.543  0.0943  0.2390  0.1498
34824W        W77736  30.248   9.775  28.700 -0.0626  0.2597  0.0987
34825W        W77737  30.507   8.849  30.108  0.1388 -0.0619  0.1978
34826W        W77738  32.259   9.119  29.966 -0.2614 -0.1191  0.2336
34827W        W77739  30.623   8.784  28.672  0.2602 -0.0639 -0.1743
34828W        W77740  31.443   8.115  28.978  0.0314 -0.2346  0.0704
34829W        W77741  30.309  10.560  29.654 -0.2618 -0.4536 -0.3179
34830W        W77742  29.976   7.527  29.293 -0.0231  0.0603 -0.0079
34831W        W77743  31.726  10.192  27.948 -0.2854  0.0922 -0.2679
34832W        W77744  31.714   9.936  28.596 -0.0521 -0.1463  0.1267
34833W        W77745  31.687  10.364  28.850  0.0387  0.2428  0.1802
34834W        W77746  29.050   9.307  27.071  0.2519 -0.1837 -0.0950
34835W        W77747  29.715   8.732  31.097  0.1518 -0.2660 -0.5532
34836W        W77748  28.349   9.044  30.813 -0.0173 -0.1915  0.2362
34837W        W77749  30.027   7.371  28.255 -0.0869 -0.0531 -0.2007
34838W        W77750  31.516  10.253  30.834 -0.0671  0.0308  0.1196
34839W        W77751  29.348   9.769  29.611  0.0262 -0.1502  0.0951
34840W        W77752  33.599   7.000  28.692 -0.1164 -0.1447 -0.2285
34841W        W77753  30.201   9.703  30.055 -0.1356 -0.0090 -0.2300
34842W        W77754  32.876  10.402  31.822 -0.2574 -0.0503  0.1282
34843W        W77755  33.019   9.116  27.971  0.0813 -0.0323  0.0718
34844W        W77756  32.190   6.342  29.193 -0.0165 -0.1689 -0.0348
34845W        W77757  30.742   8.749  29.569  0.1120 -0.0892 -0.0050
34846W        W77758  29.507   9.253  26.973 -0.0193  0.2658  0.0766
34847W        W77759  29.838   9.064  29.038  0.2604  0.1224  0.0215
34848W        W77760  32.983  10.650  29.412  0.0366  0.1140 -0.0740
34849W        W77761  32.064   8.239  27.649  0.0810 -0.0455  0.0554
34850W        W77762  30.117   9.405  29.655  0.2604 -0.1165 -0.2508
34851W        W77763  31.667   8.941  31.683  0.1418  0.0629 -0.1177
34852W        W77764  31.339  10.721  30.631 -0.1270  0.2421 -0.0113
34853W        W77765  30.195  10.012  26.969 -0.1447  0.2632  0.1373
34854W        W77766  27.873   9.182  29.879  0.1743  0.1755  0.1808
34855W        W77767  29.167   8.409  29.866 -0.1078  0.0375 -0.1511
34856W        W77768  29.887   9.069  30.217  0.1567 -0.0150 -0.1782
34857W        W77769  28.880   9.392  29.497  0.0458  0.3576 -0.2280
34858W        W77770  31.488   7.907  28.334 -0.1533  0.1758 -0.2278
34859W        W77771  30.577   8.327  30.501 -0.1427 -0.0755  0.1333
34860W        W77772  32.933   6.562  28.454  0.0176  0.1317 -0.2274
34861W        W77773  28.627   9.793  28.622 -0.0977 -0.1655  0.0551
34862W        W77774  32.291  11.407  28.530  0.2659  0.0321  0.0700
34863W        W77775  30.567   7.310  28.236  0.0701  0.1005 -0.0033
34864W        W77776  31.315   9.536  27.168  0.3326 -0.1728 -0.0577
34865W        W77777  29.115   9.337  30.951  0.3705  0.1863 -0.2808
34866W        W77778  29.167   8.525  30.396 -0.1545 -0.0411  0.1933
34867W        W77779  29.408   9.128  31.320 -0.2109  0.1310 -0.1447
34868W        W77780  29.590   8.316  31.288  0.3304  0.2113 -0.1385
34869W        W77781  31.661   9.758  30.655 -0.1495 -0.0819  0.4412
34870W        W77782  29.221   7.288  27.467 -0.1956 -0.0827 -0.0528
34871W        W77783  31.758   7.236  28.827  0.1993 -0.2828  0.0999
34872W        W77784  30.637   8.526  29.120  0.1447  0.0997 -0.0705
34873W        W77785  28.383   9.455  27.392 -0.0705 -0.2007  0.1833
34874W        W77786  30.855   9.268   0.200 -0.0129 -0.1387 -0.2926
34875W        W77787  31.268  10.852  28.607  0.2740  0.0280  0.2323
34876W        W77788  33.029  11.020  29.091  0.3328 -0.4217 -0.1166
34877W        W77789  32.235  10.400  28.964 -0.0102  0.1047 -0.0094
34878W        W77790  30.119   8.946  30.666  0.2666  0.3503 -0.3488
34879W        W77791  29.776   7.134  29.011  0.1427 -0.2399 -0.1038
34880W        W77792  30.047  11.224  30.116  0.0606  0.3878 -0.1572
34881W        W77793  30.781  10.435  28.541  0.2106 -0.4834 -0.2744
34882W        W77794  29.336   8.798  29.095  0.1222  0.3025  0.1225
34883W        W77795  33.271   9.449  30.336  0.1005 -0.1557 -0.0227
34884W        W77796  31.299   8.881  28.518  0.1498  0.1239 -0.1424
34885W        W77797  29.762  10.397  30.117 -0.1958  0.0393 -0.1120
34886W        W77798  31.005   7.994  29.748 -0.1807  0.1999 -0.1012
34887W        W77799  32.027   9.161  29.469  0.2469 -0.0592 -0.1678
34888W        W77800  32.011   8.636  29.510 -0.2857  0.0385 -0.3069
34889W        W77801  29.848   8.167  26.236  0.1551 -0.0748 -0.2181
34890W        W77802  32.404  11.986  29.389 -0.2347  0.1598 -0.4299
34891W        W77803  29.301   9.939  27.584 -0.1933 -0.0381 -0.0887
34892W        W77804  31.205   9.022  29.499 -0.4409 -0.1187  0.3025
34893W        W77805  32.012   9.955  29.097  0.0660 -0.2084  0.1877
34894W        W77806  31.615   7.899  30.814 -0.0414 -0.1299 -0.0099
34895W        W77807  29.518   9.741  30.793  0.1075  0.1818  0.1382
34896W        W77808  31.538   9.291  30.505 -0.0930  0.0120  0.0364
34897W        W77809  29.859   8.473  29.178  0.4195  0.0710  0.1657
34898W        W77810  30.420   9.372   0.426 -0.1208 -0.3110 -0.0389
34899W        W77811  30.731   6.975  28.637 -0.0854  0.0442  0.2955
34900W        W77812  31.401   8.397  28.413 -0.1073  0.1592 -0.3511
34901W        W77813  30.879   8.928   0.921 -0.2169  0.0007  0.2435
34902W        W77814  31.743   9.070  28.672 -0.2582  0.2625 -0.4659
34903W        W77815  32.050   8.232  26.160  0.0219 -0.0990  0.1571
34904W        W77816  31.694   7.283  27.506 -0.0239 -0.0848 -0.5937
34905W        W77817  29.204  10.475  30.915 -0.4512 -0.1500  0.0513
34906W        W77818  31.996  10.347  29.423 -0.0573 -0.3107  0.1767
34907W        W77819  30.350   9.319  30.349  0.0530 -0.0004 -0.2740
34908W        W77820  31.306   8.666  26.790 -0.0192  0.0979 -0.0891
34909W        W77821  33.892  10.221  28.316  0.0612 -0.0746  0.1355
34910W        W77822  30.272   9.450  31.555 -0.0459 -0.2327 -0.3149
34911W        W77823  31.707  10.564  31.740  0.3258  0.2095  0.1060
34912W        W77824  31.842  10.854  28.857  0.0012  0.2078 -0.0453
34913W        W77825  30.894   8.668  31.003 -0.0357 -0.1763 -0.2931
34914W        W77826  28.836   9.016  26.593  0.0697  0.2418  0.4154
34915W        W77827  31.418   7.581  28.840 -0.2150 -0.4883  0.2713
34916W        W77828  29.707  11.035  27.913  0.7005  0.0054 -0.3656
34917W        W77829  31.570   7.308  30.413  0.1426 -0.0455 -0.1641
34918W        W77830  31.503   9.411  29.393 -0.1405  0.1616 -0.2283
34919W        W77831  30.979   8.106  30.612 -0.0830  0.0387  0.1388
34920W        W77832  31.964   9.462  31.321 -0.0531 -0.0021 -0.1936
34921W        W77833  31.884   8.164  28.553  0.0679  0.0267 -0.0274
34922W        W77834  31.114   8.055  27.971  0.0981  0.1354  0.3658
34923W        W77835  29.412   8.736  28.241  0.0754  0.1253  0.1416
34924W        W77836  30.334   7.473  30.887  0.0562 -0.2008  0.2035
34925W        W77837  29.540   9.175  30.846  0.2656  0.0310 -0.4570
34926W        W77838  31.066  10.518  30.977  0.0332 -0.0252 -0.1400
34927W        W77839  32.647   9.309  31.531  0.1107 -0.3121 -0.0411
34928W        W77840  31.124   7.945  28.609  0.0056  0.3307  0.1073
34929W        W77841  30.396   8.650  31.044  0.0316 -0.0317 -0.0849
34930W        W77842  29.644   9.280  27.860 -0.1554  0.0365 -0.2287
34931W        W77843  30.161   9.982  27.552  0.0493  0.1263  0.0332
34932W        W77844  29.829   8.617  27.257  0.2083 -0.1774 -0.0097
34933W        W77845  30.293   7.679  29.722  0.3790 -0.0374  0.0267
34934W        W77846  30.683   9.543  30.638  0.1825  0.0069  0.4449
34935W        W77847  30.192   9.020  27.196  0.0127 -0.1064  0.1673
34936W        W77848  31.849  11.005  31.284 -0.2633  0.1081 -0.0277
34937W        W77849  29.390   9.298  29.378 -0.3064  0.3182  0.3552
34938W        W77850  30.945   7.398  28.654  0.0957 -0.3534 -0.1234
34939W        W77851  29.223   9.790  28.602  0.2021  0.1118 -0.2399
34940W        W77852  30.572   8.289  28.556 -0.0714 -0.0561 -0.0541
34941W        W77853  28.396   8.888  27.449  0.2478  0.0441  0.1362
34942W        W77854  31.037   7.622  28.252 -0.0120  0.1121  0.0713
34943W        W77855  31.449   9.734  28.050  0.0374  0.1118 -0.0433
34944W        W77856  28.373   7.585  28.889 -0.0191 -0.1593 -0.2658
34945W        W77857  30.781   9.524  31.683  0.1040 -0.1047  0.2998
34946W        W77858  29.006  11.886  29.231 -0.6831 -0.1146  0.2436
34947W        W77859  32.221   9.031  28.582  0.2638 -0.0937 -0.1289
34948W        W77860  32.996   7.821  28.005  0.2192 -0.2426  0.2424
34949W        W77861  32.797   9.515  30.577  0.0057 -0.3082 -0.1743
34950W        W77862  29.954   8.740   0.659  0.0497  0.0640  0.1712
34951W        W77863  28.758   8.776  27.140 -0.1148 -0.3983 -0.0163
34952W        W77864  31.235   8.276  30.196  0.1441 -0.0303 -0.3255
34953W        W77865  30.316   8.935  29.177  0.0558 -0.2399 -0.1111
34954W        W77866  28.202  11.639  28.892  0.0870 -0.0126  0.0262
34955W        W77867  32.405   9.968  29.417  0.0494 -0.1932  0.1218
34956W        W77868  29.264   9.607  28.046  0.1618 -0.0022 -0.0432
34957W        W77869  28.960  10.220  28.436 -0.1045 -0.0038  0.1001
34958W        W77870  30.209   9.883  31.758  0.1282 -0.1468  0.3301
34959W        W77871  32.717   9.261  30.162  0.0161  0.1209  0.4321
34960W        W77872  31.005   9.242  30.426  0.2022 -0.0732 -0.0423
34961W        W77873  29.649   8.696  28.676  0.0134 -0.2286  0.0542
34962W        W77874  29.768   9.764  27.255 -0.4203 -0.1515  0.0990
34963W        W77875  30.983   9.487  29.803  0.2024  0.1115  0.0078
34964W        W77876  30.573   9.795  29.753 -0.0387  0.3411 -0.0366
34965W        W77877  31.352   9.244  30.028 -0.0428  0.0811 -0.2053
34966W        W77878  32.048   6.242  30.708  0.0136  0.0977 -0.0462
34967W        W77879  32.955  10.100  27.913  0.0454  0.1123 -0.2045
34968W        W77880  31.419   9.892  31.108 -0.2516  0.2795  0.1649
34969W        W77881  29.704   9.739  28.319 -0.0043  0.1107  0.0708
34970W        W77882  29.003   8.423  29.233  0.0160 -0.3808 -0.0987
34971W        W77883  29.750  10.298  27.830 -0.1852 -0.0573  0.0272
34972W        W77884  30.590   8.500  31.596  0.0711  0.1098  0.4092
34973W        W77885  31.224   9.801  28.480 -0.1316 -0.0537  0.1357
34974W        W77886  30.810   9.219  29.306 -0.3072 -0.2774  0.0049
34975W        W77887  31.087  10.126  30.507  0.1233  0.2088 -0.1921
34976W        W77888  31.544   9.157  28.186  0.1302  0.1053 -0.0252
34977W        W77889  31.639  10.060  27.460 -0.0357 -0.0247  0.0766
34978W        W77890  31.579   8.370  29.376  0.1123  0.0355 -0.1919
34979W        W77891  33.563   7.709  30.277 -0.0082 -0.1304 -0.2537
34980W        W77892  31.661   8.601  27.531  0.1782  0.2983  0.1765
34981W        W77893  31.850   6.707  30.725  0.0443 -0.2026 -0.0470
34982W        W77894  30.343   8.186  30.024  0.1422  0.0019  0.1470
34983W        W77895  32.406   9.299  29.166 -0.4968 -0.1003  0.0731
34984W        W77896  28.619   6.589  30.249  0.0619  0.1183  0.1143
34985W        W77897  30.753  11.308  31.080  0.2067 -0.1806 -0.0282
34986W        W77898  30.623   8.518   0.187  0.1416 -0.2146  0.0460
34987W        W77899  30.232   8.514  29.526 -0.0220  0.0392 -0.1517
34988W        W77900  29.890   7.997  27.837 -0.3585  0.0536  0.1595
34989W        W77901  31.403   9.439  28.899  0.1470  0.3684 -0.3531
34990W        W77902  31.767   9.615  30.117 -0.1376  0.2035  0.1679
34991W        W77903  28.868   9.648  27.677  0.3569  0.2517 -0.1726
34992W        W77904  31.058   8.361  29.316  0.0696 -0.0593 -0.4347
34993W        W77905  29.412   8.466  29.472 -0.0582 -0.2172  0.0805
34994W        W77906  30.193   8.004  28.257 -0.4155 -0.2319  0.0430
34995W        W77907  30.523   8.666  27.769  0.1329  0.3215  0.2890
34996W        W77908  29.586   9.229  28.428  0.0020  0.0930 -0.3433
34997W        W77909  30.186   7.688  31.373  0.0817 -0.1198  0.0846
34998W        W77910  31.230   8.526  29.747  0.1229 -0.1714  0.3964
34999W        W77911  31.126   7.806  29.230 -0.1813  0.0682 -0.3017
35000W        W77912  32.421   7.233  30.682 -0.0345 -0.0041 -0.2346
35001W        W77913  31.202   7.467  30.697 -0.0138  0.1451  0.0040
35002W        W77914  30.101   7.896   0.602  0.1017  0.0850 -0.0212
35003W        W77915  29.314   9.230   0.586  0.0690 -0.0855 -0.0300
35004W        W77916  31.976  10.401  30.139 -0.0082 -0.1298  0.0296
35005W        W77917  30.788   9.190  27.281  0.3535 -0.0534 -0.2310
35006W        W77918  33.070   8.332  31.311 -0.1750  0.0910  0.3033
35007W        W77919  32.322   8.807  27.593 -0.0942 -0.5016  0.1659
35008W        W77920  31.717   9.591  27.653  0.2909 -0.0437 -0.0626
35009W        W77921  28.735   8.398  30.173 -0.0701  0.1966  0.0317
35010W        W77922  32.696   7.359  31.672  0.0300  0.0370  0.0971
35011W        W77923  30.013   8.143  27.196 -0.0601 -0.3854  0.0446
35012W        W77924  31.896   8.391  29.017  0.0470 -0.0730 -0.0650
35013W        W77925  31.236  11.049  28.145  0.3780 -0.1916  0.0259
35014W        W77926  31.890   9.498  28.415 -0.1031 -0.1332 -0.0786
35015W        W77927  31.083   7.955  27.502  0.2446  0.0058  0.2814
35016W        W77928  28.758   8.448  28.753 -0.0370 -0.1994  0.2284
35017W        W77929  29.329  11.106  30.385 -0.1674 -0.1188  0.0972
35018W        W77930  30.519   8.180  27.001  0.1101 -0.0052 -0.2108
35019W        W77931  30.599   9.154  27.749  0.1308 -0.1370  0.0549
35020W        W77932  31.066  10.170  29.871  0.3372  0.1462 -0.0155
35021W        W77933  32.048   7.697  30.592  0.1306  0.0839  0.0028
35022W        W77934  30.389   6.510  27.870  0.0300  0.0397 -0.1772
35023W        W77935  32.594   8.488  30.695  0.1884  0.1932 -0.1068
35024W        W77936  28.918   9.383  28.382 -0.3341 -0.1813 -0.2515
35025W        W77937  30.557   8.081  29.450 -0.1075 -0.0896 -0.0714
35026W        W77938  30.607  10.776  30.914 -0.0796  0.2162  0.0400
35027W        W77939  30.071   8.804  31.425  0.0559  0.0240 -0.3030
35028W        W77940  29.373  10.641  28.349  0.3034  0.2557 -0.2039
35029W        W77941  29.685   7.726  28.286  0.0920  0.1295  0.0835
35030W        W77942  32.818   9.583  29.376 -0.2643 -0.1842 -0.0018
35031W        W77943  31.484  10.391  29.831 -0.0324  0.0591  0.0318
35032W        W77944  31.528   7.910  29.561 -0.0110 -0.1525  0.2620
35033W        W77945  32.047  10.605  31.188 -0.1743  0.0735 -0.0949
35034W        W77946  30.507   9.306  29.919  0.2912 -0.0448  0.1931
35035W        W77947  33.036  11.241  30.555  0.1066  0.1610  0.0167
35036W        W77948  31.532   8.122  27.614 -0.2859  0.2499 -0.1422
35037W        W77949  30.910   8.589  28.218 -0.1084 -0.1275 -0.0811
35038W        W77950  29.558  10.123  31.225  0.0252  0.1547  0.1526
35039W        W77951  30.715   9.478  31.157 -0.0864  0.0015  0.0319
35040W        W77952  31.691   8.969  29.805  0.2492 -0.4788  0.1756
35041W        W77953  30.070   7.621  27.279 -0.0415 -0.2144  0.0687
35042W        W77954  31.717   9.890  26.464  0.3138  0.0753 -0.2254
35043W        W77955  29.869  11.258  30.548 -0.3602  0.0439  0.4061
35044W        W77956  28.809   8.895  30.120 -0.2811 -0.0447 -0.2070
35045W        W77957  28.935  11.229  27.057  0.2722  0.3468 -0.0413
35046W        W77958  31.067   9.061  28.064 -0.1315  0.1423  0.0711
35047W        W77959  30.753  10.263  27.994 -0.3199  0.0129  0.2597
35048W        W77960  30.315  11.625  29.627 -0.0015 -0.0650  0.0778
35049W        W77961  29.081   7.926  29.927  0.2418  0.1782 -0.1738
35050W        W77962  30.140  10.723  29.184  0.0539  0.1279  0.2528
35051W        W77963  29.045  10.201  26.922  0.5750 -0.0625  0.0907
35052W        W77964  31.502  10.532  27.121 -0.4340  0.1615 -0.2905
35053W        W77965  30.145  10.274  28.941  0.0469  0.0627 -0.4322
35054W        W77966  32.927  11.248  31.006  0.1636  0.0634  0.2128
35055W        W77967  32.486   7.570  28.117  0.1268  0.0326 -0.0463
35056W        W77968  32.739   9.003  28.703 -0.3100 -0.0693  0.2133
35057W        W77969  31.542   7.336  28.372  0.1460 -0.0216  0.1045
35058W        W77970  31.617  10.135  31.477 -0.2802 -0.4237 -0.0416
35059W        W77971  30.569   9.801  29.176  0.0720 -0.1540  0.2140
35060W        W77972  30.578   8.150  27.964 -0.0249 -0.0080 -0.0611
35061W        W77973  29.603   8.834  31.715  0.2600  0.1656 -0.0634
35062W        W77974  33.152   7.759  31.325  0.0158 -0.1556  0.1105
35063W        W77975  28.944  10.636  29.587 -0.1365  0.0763 -0.5684
35064W        W77976  31.244  10.207  27.874  0.2123 -0.0436 -0.1428
35065W        W77977  28.234   8.108  28.789 -0.2176 -0.1278  0.0516
35066W        W77978  30.160   8.615  28.710  0.0271  0.1317  0.1353
35067W        W77979  32.197   7.448  29.062 -0.0986  0.2199  0.0232
35068W        W77980  30.132   9.126  28.624  0.1767 -0.1664 -0.0393
35069W        W77981  31.329   8.510  27.909  0.0755 -0.0126 -0.2910
35070W        W77982  29.290  12.342  28.524  0.0839  0.1034  0.2078
35071W        W77983  30.763   9.916  30.929  0.5223 -0.2535 -0.0516
35072W        W77984  30.677   9.912  28.427 -0.2552 -0.1456 -0.1828
35073W        W77985  29.850   7.441  27.747  0.0085 -0.1427 -0.3245
35074W        W77986  32.989   7.223  28.838  0.2696  0.2849 -0.2740
35075W        W77987  30.994   8.887  30.017  0.1773 -0.0617  0.2183
35076W        W77988  32.472   7.241  29.792  0.2309  0.0023 -0.0522
35077W        W77989  29.773   9.824  27.813  0.1106 -0.0124 -0.1255
35078W        W77990  31.116   7.141  28.087  0.0655 -0.1731 -0.0722
35079W        W77991  31.909   9.967  31.092 -0.0865 -0.0253 -0.2615
35080W        W77992  28.225   8.085  30.451  0.2380  0.1171 -0.0649
35081W        W77993  30.004   9.418  26.935  0.1881 -0.1514 -0.2312
35082W        W77994  32.550   8.376  29.319 -0.0993 -0.0944  0.1659
35083W        W77995  30.832   8.355  27.485 -0.1954  0.1068  0.0675
35084W        W77996  31.880  10.721  29.730  0.0080  0.0388  0.0343
35085W        W77997  30.620   8.978  30.605 -0.0685 -0.0601  0.1283
35086W        W77998  32.903   7.062  28.358  0.0657 -0.1607  0.3858
35087W        W77999  29.157   8.905  28.597 -0.1160  0.3236 -0.0553
35088W        W78000  30.105   8.927  29.831  0.2320 -0.0253 -0.2024
35089W        W78001  32.478  10.522  29.535  0.4433 -0.2159 -0.3662
35090W        W78002  29.596   5.499  28.421  0.3502 -0.2982 -0.2054
35091W        W78003  33.547   9.319  28.204 -0.1620 -0.1698 -0.1323
35092W        W78004  30.251  10.229  30.035 -0.0823  0.0083 -0.4637
35093W        W78005  30.630  10.333  27.486 -0.3383  0.1421  0.0705
35094W        W78006  31.295   8.446  27.288  0.1152  0.2416  0.0711
35095W        W78007  32.525  11.330  29.001 -0.0038  0.1171 -0.0986
35096W        W78008  28.797   8.484  31.136  0.1617  0.0425 -0.1463
35097W        W78009  33.677  10.293  30.082 -0.1277  0.1296  0.0205
35098W        W78010  31.919   9.645  29.502 -0.0201 -0.0922  0.0205
35099W        W78011  31.106   6.782  29.057 -0.0086 -0.0526  0.0524
35100W        W78012  29.781   9.791  30.393  0.1807 -0.3466  0.1509
35101W        W78013  28.468  10.293  29.406 -0.1486  0.4193  0.1016
35102W        W78014  32.640   8.814  29.984 -0.0974  0.0630 -0.2708
35103W        W78015  32.413   8.873  29.401  0.2285  0.3284 -0.1135
35104W        W78016  30.528  10.877  28.122 -0.0130  0.0190 -0.0178
35105W        W78017  31.955   7.732  31.197  0.0267  0.0074 -0.1056
35106W        W78018  33.395   9.721  29.936 -0.1181  0.0403  0.1500
35107W        W78019  30.366  10.333  30.957  0.4009  0.3093 -0.2829
35108W        W78020  29.503   9.406  28.885  0.3124 -0.1242 -0.0275
35109W        W78021  29.087   8.881  29.598  0.1055  0.1106 -0.1609
35110W        W78022  30.926   9.654  28.867 -0.1705  0.1612  0.0768
35111W        W78023  31.429   9.781  29.745  0.0515  0.2826 -0.0735
35112W        W78024  33.105   9.983  30.243 -0.1169  0.0794 -0.1244
35113W        W78025  30.536   8.971  28.197 -0.1299 -0.2315 -0.1132
35114W        W78026  33.362  10.379  29.273 -0.3130 -0.0809  0.1199
35115W        W78027  29.282   7.349  29.780 -0.0892  0.1478 -0.1421
35116W        W78028  32.882   7.661  28.439 -0.0551  0.0262  0.1873
35117W        W78029  31.228   7.287  29.222 -0.0501  0.1051  0.1868
35118W        W78030  29.472   9.968  30.096 -0.0040  0.1040  0.2735
35119W        W78031  28.890   9.797  26.683  0.0967 -0.1366  0.0691
35120W        W78032  30.586   9.670  27.617 -0.0875  0.0154  0.0959
35121W        W78033  29.347  10.091  28.081 -0.0583 -0.1059 -0.0659
35122W        W78034  30.464   8.149   1.093  0.1604 -0.1554  0.0630
35123W        W78035  28.846   8.979  31.132  0.0304  0.0110  0.1277
35124W        W78036  28.564   9.327  29.906  0.2253  0.1678  0.0919
35125W        W78037  29.165   7.762  28.282 -0.4194 -0.1140  0.3814
35126W        W78038  32.600  10.340  28.544 -0.6785 -0.0576  0.2095
35127W        W78039  29.075   6.592  29.680 -0.0131  0.2217 -0.0828
35128W        W78040  29.531   7.662  30.119 -0.0735  0.1297 -0.2758
35129W        W78041  31.447  11.047  27.659 -0.0981  0.0059  0.1144
35130W        W78042  31.943  10.829  27.135 -0.1662  0.0486  0.1274
35131W        W78043  29.763   8.175  28.643  0.0106 -0.1800 -0.3104
35132W        W78044  33.395  11.114  31.476  0.2898 -0.1958  0.1209
35133W        W78045  28.575   9.091  27.947 -0.0318 -0.0513  0.1257
35134W        W78046  31.223  10.508  31.641  0.2134  0.0980  0.0494
35135W        W78047  30.071   8.821   0.068 -0.0118 -0.1630 -0.1214
35136W        W78048  29.924   6.082  26.796  0.2177 -0.0756  0.1652
35137W        W78049  31.080  10.131  31.330 -0.0690  0.1698 -0.2088
35138W        W78050  31.501  11.113  29.102  0.0116  0.1369  0.1503
35139W        W78051  32.093  11.206  28.114  0.0290  0.0132  0.1465
35140W        W78052  31.220   9.708  30.241 -0.0769  0.1590  0.0876
35141W        W78053  31.623  10.773  30.204 -0.0070  0.2290 -0.0554
35142W        W78054  29.264   7.137  30.509 -0.1045  0.1224 -0.4312
35143W        W78055  30.843   9.367  28.370  0.1712 -0.1058 -0.2133
35144W        W78056  30.279   9.646  30.998 -0.0938 -0.0108  0.0303
35145W        W78057  32.879   9.380  28.379  0.1692 -0.3746  0.0473
35146W        W78058  33.124   7.642  30.534  0.0872  0.0055  0.2651
35147W        W78059  31.522   8.620  28.838 -0.2324 -0.1768 -0.3614
35148W        W78060  30.662   7.863  31.581  0.2505  0.2534 -0.2337
35149W        W78061  29.947   9.959  30.868  0.0077  0.2101  0.2009
35150W        W78062  32.342   9.761  30.746 -0.1090 -0.0646 -0.2676
35151W        W78063  29.750   7.569  29.704 -0.1123 -0.0523  0.1071
35152W        W78064  32.215   6.792  28.814 -0.3224  0.2712  0.4300
35153W        W78065  31.683  10.911  28.321  0.2192 -0.0253 -0.0427
35154W        W78066  28.946   7.565  30.755  0.0147  0.2290  0.0436
35155W        W78067  32.044   8.028  27.224  0.3838  0.4190  0.0806
35156W        W78068  31.017   8.668  30.507  0.0440  0.0535  0.1711
35157W        W78069  32.366   9.654  29.840  0.0168 -0.2335  0.1650
35158W        W78070  32.386  10.206  31.924 -0.1709 -0.0853 -0.0656
35159W        W78071  29.889   8.862  28.195  0.0981  0.2471 -0.4975
35160W        W78072  31.889   9.392  29.005 -0.1409  0.0366 -0.1670
35161W        W78073  32.814  10.457  29.905  0.0119 -0.0093  0.0365
35162W        W78074  32.151  10.200  31.465 -0.0235  0.3121  0.1195
35163W        W78075  31.616  10.105  30.316 -0.1404  0.1775  0.0812
35164W        W78076  32.877   9.664  29.921  0.2229  0.2453  0.2982
35165W        W78077  30.167   7.273  30.018 -0.2431  0.0887 -0.1708
35166W        W78078  28.922   8.555  28.211 -0.2915 -0.1411  0.1405
35167W        W78079  31.110   8.900  29.012  0.0500  0.2359  0.2252
35168W        W78080  31.584   7.823  30.140 -0.1785 -0.1069 -0.1355
35169W        W78081  29.477   8.002  29.643  0.1321  0.1120  0.0048
35170W        W78082  30.320   7.613  27.839  0.2538  0.1271  0.1444
35171W        W78083  30.902  10.931  31.841 -0.0158 -0.3298 -0.2992
35172W        W78084  30.738   9.925  30.193  0.2360  0.1050  0.0707
35173W        W78085  32.384   6.678  30.701  0.4453  0.2156  0.1860
35174W        W78086  31.077   9.984  31.802  0.1372 -0.2379  0.1028
35175W        W78087  29.135   9.974  30.978 -0.1982 -0.2687  0.0962
35176W        W78088  29.326  10.557  30.365 -0.3141 -0.2505  0.1785
35177W        W78089  30.711   8.984  31.412  0.1449  0.1931 -0.0018
35178W        W78090  30.166  10.693   0.270  0.1065 -0.2457 -0.1328
35179W        W78091  30.701   9.858   0.096 -0.0506  0.2151  0.2022
35180W        W78092  29.224   9.670  31.787 -0.2728 -0.2794  0.3223
35181W        W78093  31.226   9.638   0.180  0.1084 -0.2312  0.1917
35182W        W78094  33.004  10.709  30.854  0.0507  0.0553 -0.5861
35183W        W78095  32.146  10.814  31.677 -0.0442 -0.1099 -0.3833
35184W        W78096  29.952   8.003  31.044  0.1032  0.0008  0.0542
35185W        W78097  31.524   9.711  31.755 -0.1778  0.2269  0.1035
35186W        W78098  28.818   9.563  31.315  0.1407 -0.1923 -0.0118
35187W        W78099  31.852   9.074   0.167  0.4119  0.0490  0.1670
35188W        W78100  29.940  11.818  31.354 -0.2302  0.1240 -0.0513
35189W        W78101  30.155   9.869   0.266 -0.2085 -0.0141 -0.0223
35190W        W78102  31.434  10.957  31.580 -0.1312 -0.1618  0.0647
35191W        W78103  29.971   6.556   0.057 -0.0601 -0.0614 -0.0125
35192W        W78104  30.004   8.465  30.751 -0.1393 -0.2999 -0.0141
35193W        W78105  28.617   8.517  31.649 -0.0641  0.3943 -0.0677
35194W        W78106  29.117  11.536  30.196 -0.0201 -0.1275 -0.3553
35195W        W78107  30.507   9.028  31.911 -0.3360  0.0329 -0.1680
35196W        W78108  31.090   7.221  31.108  0.0667 -0.0475  0.1367
35197W        W78109  30.450   7.415  31.834 -0.2433  0.1291 -0.0789
35198W        W78110  31.002   8.855   0.383  0.1269  0.1391  0.0451
35199W        W78111  29.892   9.257  31.195  0.2090  0.1991  0.1439
35200W        W78112  29.063  11.406  30.712  0.0384 -0.0048  0.1782
35201W        W78113  31.266  11.444  30.650 -0.0163 -0.2976 -0.3187
35202W        W78114  29.665   9.412  31.738 -0.0429  0.1291 -0.2909
35203W        W78115  31.538  10.598  31.242 -0.0406  0.0072 -0.1218
35204W        W78116  29.506  10.086   0.259 -0.1463  0.0196 -0.2917
35205W        W78117  31.828   8.934  31.120  0.0144 -0.0102 -0.0977
35206W        W78118  31.434   9.236   0.448  0.3122 -0.0732 -0.0255
35207W        W78119  29.267   8.995   1.116  0.0744 -0.1126 -0.0412
35208W        W78120  30.994   9.172  30.913  0.0495 -0.1858  0.0567
35209W        W78121  29.350   9.664  31.327 -0.0288  0.1658 -0.0315
35210W        W78122  30.984  10.876  31.309  0.0097  0.3033 -0.3480
35211W        W78123  32.719   8.038  31.576 -0.1371  0.1525  0.0544
35212W        W78124  30.984  10.039   0.451 -0.2087  0.2143  0.0357
35213W        W78125  33.078   7.839  29.680 -0.4157 -0.0304 -0.1303
35214W        W78126  32.199   8.336   0.793 -0.1792  0.2150  0.2624
35215W        W78127  29.185   8.711  31.452  0.1608  0.4004  0.1200
35216W        W78128  29.923  10.854  31.845  0.0896  0.3747 -0.2409
35217W        W78129  31.149   7.868  31.575 -0.1890 -0.1858  0.0435
35218W        W78130  31.891   9.978  31.937  0.0976 -0.2607  0.0009
35219W        W78131  31.288   8.144  31.128  0.0038 -0.3135  0.0532
35220W        W78132  31.969  10.381  30.701 -0.1354  0.4476 -0.0619
35221W        W78133  31.566   9.347  30.984 -0.0782  0.1811 -0.1075
35222W        W78134  29.769  10.954  31.259  0.0218 -0.1631  0.2328
35223W        W78135  31.008  11.032  30.741 -0.2119 -0.2373  0.2177
35224W        W78136  32.284   8.223   0.311  0.2611  0.0046  0.1253
35225W        W78137  30.332   7.868  30.491 -0.1451 -0.0400  0.3089
35226W        W78138  30.071   9.383   0.034 -0.1123  0.2379  0.3467
35227W        W78139  30.067   8.561   1.534  0.0523 -0.0779 -0.0559
35228W        W78140  33.936   8.634  30.305 -0.0829  0.0651 -0.4215
35229W        W78141  33.417   9.352  31.424 -0.0938 -0.1371  0.0707
35230W        W78142  30.233  11.917   0.707 -0.0681  0.0637  0.2031
35231W        W78143  30.568  10.923  30.424 -0.1511 -0.3993  0.0529
35232W        W78144  30.021   9.592   0.681  0.1910  0.1055 -0.3015
35233W        W78145  27.147   8.480   1.170  0.2465  0.2370 -0.0664
35234W        W78146  29.986   9.412  30.686 -0.0104  0.0911 -0.0854
35235W        W78147  29.872   9.768  31.380 -0.0578 -0.0469 -0.0375
35236W        W78148  29.238   7.952   0.420 -0.3225 -0.1496 -0.4511
35237W        W78149  30.586  10.215  31.719  0.1305 -0.0714  0.4787
35238W        W78150  33.157   8.796  29.980 -0.1577 -0.3065  0.0428
35239W        W78151  31.806   8.448   0.454 -0.0746  0.1013  0.1127
35240W        W78152  30.410  15.555  19.875  0.2308  0.0049  0.3005
35241W        W78153  30.300  12.335  17.854  0.2025 -0.2529 -0.0383
35242W        W78154  31.683  10.659  16.685 -0.0641  0.1378  0.1212
35243W        W78155  32.535  13.205  17.520  0.0902  0.2700 -0.0146
35244W        W78156  28.324  11.780  19.707 -0.5119  0.0127 -0.0260
35245W        W78157  31.498  14.049  17.366  0.3214  0.1024 -0.2593
35246W        W78158  30.198  11.130  20.062 -0.1206  0.3562  0.0203
35247W        W78159  30.262  14.463  19.348  0.0609 -0.0556  0.1178
35248W        W78160  32.298  13.488  19.195  0.0800 -0.1541  0.3063
35249W        W78161  31.588  12.479  16.077  0.0330  0.0363 -0.1475
35250W        W78162  29.427  12.562  19.709 -0.2063  0.1799  0.0132
35251W        W78163  29.499  13.489  19.537  0.0120 -0.1695  0.0263
35252W        W78164  29.962  10.656  17.416  0.1857 -0.0628 -0.1231
35253W        W78165  27.934  11.541  17.684 -0.1006  0.2143  0.2172
35254W        W78166  30.838  11.152  19.164  0.0322  0.1414  0.1751
35255W        W78167  30.263  13.049  17.137 -0.1453 -0.1714 -0.1888
35256W        W78168  29.221  12.743  20.156 -0.4116 -0.1549  0.1186
35257W        W78169  29.879  12.480  18.132  0.1811 -0.0724 -0.0348
35258W        W78170  31.172  14.127  16.999 -0.1495 -0.2187 -0.2035
35259W        W78171  30.234  11.049  19.061  0.1807 -0.1128  0.1724
35260W        W78172  30.531  11.177  21.564 -0.0651 -0.2687  0.0464
35261W        W78173  31.031  13.994  16.376 -0.0193  0.0848 -0.0384
35262W        W78174  27.253  12.298  16.513 -0.4634  0.0982 -0.0981
35263W        W78175  29.412  12.150  18.495 -0.0890 -0.0271 -0.1947
35264W        W78176  28.972  12.685  19.464 -0.2028  0.0512  0.0654
35265W        W78177  31.902  10.909  18.003 -0.3568 -0.0752  0.1905
35266W        W78178  31.959  12.570  17.256  0.2324 -0.0760  0.0743
35267W        W78179  31.269  14.353  18.311 -0.1801  0.0992 -0.4210
35268W        W78180  29.577  13.207  17.546  0.0302  0.5067  0.4294
35269W        W78181  32.214  12.262  20.646 -0.1758  0.1752 -0.3693
35270W        W78182  30.465  13.967  18.928  0.0962  0.0936 -0.0683
35271W        W78183  28.708  13.169  19.493  0.1149  0.0812 -0.1295
35272W        W78184  31.107  13.724  18.332 -0.0820  0.0442 -0.1700
35273W        W78185  31.882  14.461  18.031 -0.0480  0.2219  0.0418
35274W        W78186  31.703  14.214  20.610 -0.1216  0.2050  0.3275
35275W        W78187  29.253  14.067  19.207  0.0079  0.2610 -0.2258
35276W        W78188  28.783  14.074  16.766 -0.0249  0.1417 -0.6046
35277W        W78189  31.570  15.671  18.708 -0.1790 -0.0046  0.2937
35278W        W78190  29.654  14.527  19.774  0.3521 -0.4340  0.1371
35279W        W78191  30.200  14.020  20.650 -0.0452 -0.3777  0.2203
35280W        W78192  30.583  12.661  17.637  0.0870  0.0391 -0.1034
35281W        W78193  29.793  13.721  16.527 -0.0692  0.3664 -0.3552
35282W        W78194  30.808  12.191  17.911 -0.1603  0.0245  0.1511
35283W        W78195  30.833  14.075  20.149  0.3563 -0.0922  0.0181
35284W        W78196  30.214  12.827  17.996 -0.1031  0.2768 -0.2439
35285W        W78197  31.713  12.082  19.091 -0.0262 -0.2783 -0.0161
35286W        W78198  29.278  12.288  16.558 -0.0763 -0.1097 -0.1556
35287W        W78199  32.224  11.234  17.829 -0.0511  0.0513  0.2013
35288W        W78200  31.299  12.013  16.760  0.1807 -0.0664  0.0562
35289W        W78201  31.352  11.578  17.375  0.3728  0.2679  0.0023
35290W        W78202  29.475  10.721  18.709 -0.0729  0.2750 -0.1441
35291W        W78203  30.567  13.760  17.609  0.2685 -0.0898 -0.0379
35292W        W78204  30.106  11.897  19.195 -0.0243 -0.2242  0.0282
35293W        W78205  30.711  12.676  19.495  0.2103 -0.1065 -0.1400
35294W        W78206  32.126  13.060  17.141 -0.3105 -0.0153  0.2634
35295W        W78207  30.272  13.358  17.540  0.1034  0.0226 -0.2556
35296W        W78208  28.525  16.052  19.024 -0.2145  0.0136  0.0488
35297W        W78209  27.908  12.666  18.838  0.0280 -0.2664  0.0359
35298W        W78210  32.431  14.307  17.583  0.1624 -0.0176 -0.1839
35299W        W78211  30.963  13.513  17.843  0.1428  0.1314 -0.0534
35300W        W78212  30.776  14.309  16.755 -0.0483  0.2326 -0.1228
35301W        W78213  28.110  11.997  17.474 -0.1582  0.2097  0.2875
35302W        W78214  29.037  13.576  19.744  0.0338 -0.1415  0.2489
35303W        W78215  30.532  13.319  19.796 -0.0189 -0.1593 -0.0247
35304W        W78216  29.901  11.123  17.649 -0.1088 -0.0853 -0.0733
35305W        W78217  32.423  13.042  20.770  0.0721  0.0147 -0.1412
35306W        W78218  29.849  15.048  19.890  0.1924 -0.2009 -0.0217
35307W        W78219  31.077  11.339  17.008  0.2506 -0.4264  0.0493
35308W        W78220  30.527  13.229  18.003  0.1175 -0.2289  0.0041
35309W        W78221  31.910  12.917  19.527 -0.0822  0.0316 -0.2639
35310W        W78222  32.030  13.477  16.258 -0.4724 -0.0578  0.1193
35311W        W78223  31.360  10.418  16.978 -0.2382  0.3383 -0.0554
35312W        W78224  31.304  10.121  18.986 -0.3044  0.1458 -0.0464
35313W        W78225  31.279  11.990  17.706  0.2700 -0.0677 -0.0626
35314W        W78226  29.585  12.060  17.306  0.2692 -0.1096  0.0211
35315W        W78227  31.507  12.997  19.174  0.0266 -0.0593  0.0409
35316W        W78228  32.309  11.427  16.221  0.1970  0.1531  0.0945
35317W        W78229  30.836  14.615  18.611 -0.1186  0.1644  0.2376
35318W        W78230  30.547  12.655  20.797 -0.1735 -0.1006 -0.0235
35319W        W78231  28.994  13.905  20.158 -0.0192 -0.2273  0.0799
35320W        W78232  29.023  13.430  18.211  0.2008 -0.0237  0.2691
35321W        W78233  28.762  13.654  17.720 -0.0802  0.1238  0.0705
35322W        W78234  29.167  12.596  18.643 -0.2770  0.1850 -0.2459
35323W        W78235  28.989  10.587  18.931 -0.3149 -0.0325 -0.0472
35324W        W78236  30.016  13.031  20.616 -0.2476 -0.0586 -0.1951
35325W        W78237  30.837  11.570  17.639 -0.2818 -0.0894 -0.0564
35326W        W78238  28.654  12.042  19.152  0.2898  0.0602  0.0357
35327W        W78239  32.203  10.709  17.417  0.1713  0.1265  0.2747
35328W        W78240  29.733  12.806  17.792 -0.0569 -0.0059  0.0714
35329W        W78241  32.169  15.206  16.758 -0.1037 -0.2636 -0.1930
35330W        W78242  31.515  12.607  17.411 -0.3633 -0.2448  0.3214
35331W        W78243  31.544  13.812  16.746 -0.1750 -0.1703 -0.0391
35332W        W78244  29.483  12.268  20.100  0.1762 -0.0280  0.2898
35333W        W78245  29.055  12.212  19.426  0.1249 -0.0039  0.0066
35334W        W78246  30.532  11.796  19.859  0.1390  0.2627 -0.0549
35335W        W78247  27.599  11.837  17.339  0.0913  0.0005  0.0790
35336W        W78248  30.342  14.181  20.199  0.2067 -0.2188  0.0553
35337W        W78249  30.509  11.066  16.353 -0.0157 -0.1285 -0.0846
35338W        W78250  32.419  11.278  19.249  0.2510  0.0322  0.2581
35339W        W78251  31.075  11.261  18.248 -0.0751  0.0341 -0.1202
35340W        W78252  29.987  13.331  17.936 -0.1348 -0.1091  0.2261
35341W        W78253  31.061  11.575  19.051 -0.0095 -0.2456  0.3142
35342W        W78254  31.270  14.695  17.202 -0.1799 -0.0350  0.1708
35343W        W78255  33.511  14.048  18.952  0.0740  0.2026 -0.1129
35344W        W78256  31.401  14.313  17.816 -0.0131  0.2219  0.1769
35345W        W78257  29.055  11.160  19.456 -0.0779 -0.0394 -0.2923
35346W        W78258  28.747  12.704  17.441  0.0567  0.3014 -0.1936
35347W        W78259  28.333  14.399  16.149  0.0643  0.0186  0.1489
35348W        W78260  31.078  13.512  19.246  0.1954  0.2722  0.0457
35349W        W78261  29.919   9.664  17.827  0.0317 -0.0404  0.2186
35350W        W78262  31.537  13.927  18.122  0.1965  0.2564  0.1916
35351W        W78263  30.593  12.719  17.008  0.1266 -0.1554 -0.0708
35352W        W78264  29.387  12.573  18.143 -0.0816  0.1831 -0.2289
35353W        W78265  30.641  11.643  19.345 -0.1266  0.2012  0.0814
35354W        W78266  31.823  13.075  18.137 -0.1404  0.0429  0.0509
35355W        W78267  31.840  11.360  18.202  0.1677  0.1145 -0.0081
35356W        W78268  30.792  10.076  16.933 -0.0407 -0.1951  0.5521
35357W        W78269  32.209  14.415  19.139 -0.0187  0.1088  0.1892
35358W        W78270  29.984  12.723  16.357  0.3431 -0.1119 -0.0528
35359W        W78271  30.197  12.975  19.569  0.0981 -0.3460  0.0886
35360W        W78272  30.470  13.412  18.852  0.1443 -0.1984 -0.2096
35361W        W78273  31.976  12.285  18.625  0.0385  0.0674  0.1299
35362W        W78274  29.198  11.588  20.630  0.0878 -0.0823  0.1400
35363W        W78275  30.915  12.373  18.722 -0.1306 -0.2167  0.1980
35364W        W78276  29.202  12.862  17.620  0.4051 -0.0575 -0.0062
35365W        W78277  28.909  14.161  19.584 -0.2133 -0.5432  0.2385
35366W        W78278  30.276  11.236  18.584  0.1150 -0.0980 -0.4450
35367W        W78279  32.199  12.158  16.822 -0.1309 -0.0082 -0.0607
35368W        W78280  29.472  13.702  20.028  0.1392  0.3003  0.0343
35369W        W78281  32.456  13.240  16.188 -0.0495  0.0221  0.2100
35370W        W78282  32.666  11.404  17.220  0.0190 -0.2572 -0.1405
35371W        W78283  30.891  10.023  17.455  0.1617 -0.1439  0.1076
35372W        W78284  29.846  15.147  18.580 -0.0835  0.1966 -0.0906
35373W        W78285  31.446  13.124  17.805  0.0811 -0.1694  0.0769
35374W        W78286  29.769  14.318  19.305 -0.0016  0.0114 -0.1103
35375W        W78287  29.767  11.462  16.555  0.3259  0.4818  0.0287
35376W        W78288  33.099  13.088  18.654  0.0638  0.0449 -0.0913
35377W        W78289  29.318  13.054  18.505  0.1889 -0.0792 -0.2614
35378W        W78290  31.400  13.240  21.247  0.0091  0.0410 -0.1922
35379W        W78291  31.497  13.427  18.226 -0.1471 -0.0458 -0.0270
35380W        W78292  29.095  11.632  19.273 -0.2315 -0.2313 -0.0490
35381W        W78293  29.642  11.989  16.165  0.2306 -0.1711  0.1134
35382W        W78294  29.894  12.358  17.557  0.1320 -0.3002 -0.2235
35383W        W78295  28.796  13.129  16.905  0.1430 -0.1245  0.0006
35384W        W78296  32.360  11.629  17.544 -0.2082  0.0727 -0.1087
35385W        W78297  30.696  12.104  18.370 -0.0195 -0.4509  0.0529
35386W        W78298  29.702  10.973  19.168  0.2603 -0.0617 -0.4428
35387W        W78299  33.095  13.110  20.765  0.1066  0.2672 -0.2182
35388W        W78300  32.996  12.741  16.655  0.0165  0.2438 -0.0978
35389W        W78301  31.398  12.764  20.245 -0.1042 -0.0275 -0.0916
35390W        W78302  28.839  11.694  16.816 -0.0821  0.2766  0.0209
35391W        W78303  29.552  11.565  18.366 -0.0393 -0.1683  0.0815
35392W        W78304  29.716  12.737  20.266  0.1041  0.1384 -0.4222
35393W        W78305  29.808  13.697  17.507 -0.1258 -0.2457  0.0979
35394W        W78306  30.434  15.245  18.120  0.3748  0.2410  0.0737
35395W        W78307  31.752  12.858  16.920 -0.1069 -0.1129  0.2138
35396W        W78308  30.085  11.985  19.720 -0.0641  0.3202 -0.3801
35397W        W78309  30.497  11.284  18.109  0.3432  0.1040 -0.2084
35398W        W78310  29.336  12.999  17.107  0.0682 -0.1649 -0.2145
35399W        W78311  30.395  12.508  16.401  0.0188  0.0269 -0.1504
35400W        W78312  29.975  10.692  16.932 -0.2143 -0.2800  0.0192
35401W        W78313  30.956  14.156  18.952  0.1741  0.0511  0.2617
35402W        W78314  29.250  11.957  16.956  0.0369  0.3838 -0.1356
35403W        W78315  32.631  13.328  20.432 -0.0862  0.1167  0.0325
35404W        W78316  28.840  13.317  17.349 -0.2249  0.0365  0.1913
35405W        W78317  31.114   9.303  17.740 -0.0200 -0.2956  0.1698
35406W        W78318  28.225  13.053  19.207  0.1128 -0.0008  0.1641
35407W        W78319  30.866  12.326  17.386 -0.1334 -0.1985 -0.1886
35408W        W78320  28.986  11.654  18.738  0.2752 -0.2896 -0.1016
35409W        W78321  30.342  11.404  17.605  0.1735  0.2286  0.2544
35410W        W78322  32.531  12.871  16.474  0.2142 -0.2559 -0.1699
35411W        W78323  28.904  10.830  18.461  0.0622  0.0794 -0.4503
35412W        W78324  30.414  10.767  18.458  0.1745 -0.0356  0.1576
35413W        W78325  30.284  13.937  18.489  0.0002 -0.1021 -0.0890
35414W        W78326  29.433  13.125  18.025  0.1626 -0.0142  0.0515
35415W        W78327  32.952  11.057  16.771  0.1229 -0.0893 -0.3203
35416W        W78328  31.190  13.179  18.786 -0.0892 -0.3499  0.0414
35417W        W78329  28.740  14.375  20.150 -0.1027 -0.2282 -0.0445
35418W        W78330  28.285  11.946  16.617 -0.0411  0.2968  0.0298
35419W        W78331  31.928  13.311  19.889  0.0378  0.0512  0.1407
35420W        W78332  28.864  12.100  18.546 -0.3024  0.1728 -0.1884
35421W        W78333  29.511  14.077  17.486  0.1500  0.2264 -0.2419
35422W        W78334  29.978  13.379  19.388  0.3282 -0.1810  0.0179
35423W        W78335  29.689  12.759  17.304  0.0262  0.0422  0.1494
35424W        W78336  30.653  13.827  16.680  0.0223 -0.0547 -0.2466
35425W        W78337  29.602  11.075  20.069 -0.0145 -0.0844 -0.0682
35426W        W78338  32.965  13.151  20.009  0.0779 -0.0145  0.0329
35427W        W78339  29.794  10.532  19.558 -0.1805 -0.0320 -0.1304
35428W        W78340  29.478  11.513  18.858  0.0788  0.0507 -0.1867
35429W        W78341  30.008  11.500  17.953  0.2784 -0.2302  0.2857
35430W        W78342  31.830  13.469  19.407  0.2210 -0.3315  0.1336
35431W        W78343  30.335  13.549  20.266 -0.2369  0.2116 -0.0777
35432W        W78344  29.530  13.530  21.030  0.3373 -0.0460  0.0420
35433W        W78345  30.039  10.998  18.110  0.0119  0.0319 -0.1518
35434W        W78346  33.455  14.307  16.754  0.1271  0.1342  0.1091
35435W        W78347  30.121  13.069  20.109  0.0486 -0.0502 -0.0143
35436W        W78348  30.203  13.023  19.069  0.0989 -0.0863 -0.1593
35437W        W78349  28.671  11.850  17.731  0.1849 -0.0591  0.2978
35438W        W78350  29.398  12.390  17.684  0.2786  0.0988  0.1041
35439W        W78351  30.811  12.151  19.484  0.0140 -0.1745 -0.1869
35440W        W78352  28.779  12.424  20.754  0.0520 -0.1003 -0.1759
35441W        W78353  30.354  12.375  17.330  0.0264 -0.0818  0.2010
35442W        W78354  29.490  13.462  18.867 -0.0149 -0.0208 -0.0113
35443W        W78355  31.883  11.573  17.373 -0.2512  0.1561 -0.0090
35444W        W78356  30.829  12.295  16.834 -0.3865 -0.4207  0.0741
35445W        W78357  32.444  10.574  18.323  0.2795  0.2190  0.0663
35446W        W78358  31.336  12.498  19.424 -0.1559 -0.0349  0.1623
35447W        W78359  32.115  12.220  16.127 -0.2579  0.0467 -0.1250
35448W        W78360  30.345  11.556  18.950 -0.0681  0.1098 -0.1259
35449W        W78361  28.517  11.419  18.603 -0.1409 -0.4236  0.1093
35450W        W78362  31.595  12.634  18.270 -0.5033 -0.1482 -0.0659
35451W        W78363  29.605  11.677  20.092 -0.0702  0.2009  0.1604
35452W        W78364  31.515  13.887  19.688 -0.1401 -0.2440 -0.2168
35453W        W78365  30.154  14.832  21.175 -0.0044 -0.1077 -0.2874
35454W        W78366  28.346  11.395  17.339  0.2698 -0.4595 -0.1446
35455W        W78367  28.724  10.129  16.703 -0.2015 -0.3370 -0.2454
35456W        W78368  29.759  13.000  19.741 -0.2007 -0.0033  0.3688
35457W        W78369  31.031  13.844  19.612  0.3419 -0.2490 -0.1067
35458W        W78370  31.176  13.328  17.357  0.2596 -0.2180 -0.1178
35459W        W78371  31.666  11.047  18.613  0.2036  0.0637  0.1935
35460W        W78372  30.021  14.687  20.233 -0.1420  0.3287  0.1433
35461W        W78373  32.362  12.618  16.925  0.0714  0.0558  0.2446
35462W        W78374  31.681  12.377  16.835  0.0715 -0.2189 -0.2802
35463W        W78375  28.729  12.753  18.375  0.0376 -0.1179  0.0911
35464W        W78376  31.139  11.704  19.517 -0.0315 -0.0675  0.1225
35465W        W78377  31.023  13.791  17.372  0.2623  0.1420  0.0159
35466W        W78378  32.151  11.162  17.219 -0.2408  0.0036  0.0269
35467W        W78379  31.203  12.062  19.102 -0.0856 -0.2546  0.0364
35468W        W78380  31.017  11.020  17.846  0.3475 -0.2316  0.0323
35469W        W78381  30.202  12.586  20.372  0.0168  0.2145 -0.0165
35470W        W78382  29.255  10.849  20.972  0.3144  0.2840 -0.1062
35471W        W78383  32.144  14.386  19.902  0.0256 -0.2268 -0.2756
35472W        W78384  31.836  11.535  16.126  0.0450  0.1535 -0.1512
35473W        W78385  32.185  12.951  18.502  0.0315 -0.2116  0.2938
35474W        W78386  32.585  13.067  16.955  0.1294  0.0284 -0.3002
35475W        W78387  31.684  11.664  17.853 -0.0273  0.1576  0.0294
35476W        W78388  27.982  11.518  19.009 -0.2779 -0.1429 -0.2651
35477W        W78389  33.545  12.833  21.563  0.2756  0.3254 -0.3988
35478W        W78390  30.145  12.600  16.913  0.2997 -0.0755  0.1598
35479W        W78391  30.585  10.728  18.955 -0.1221 -0.2767  0.1746
35480W        W78392  30.618  13.532  17.167  0.1723  0.2093  0.0763
35481W        W78393  31.398  13.674  17.702 -0.0923 -0.0500  0.4472
35482W        W78394  30.962  11.729  18.076 -0.1741 -0.1996 -0.3649
35483W        W78395  28.166  12.624  17.348  0.2116 -0.1898  0.2724
35484W        W78396  29.416  16.236  20.335 -0.0809  0.0294 -0.3739
35485W        W78397  30.143  12.814  17.507 -0.2018  0.1926 -0.0961
35486W        W78398  30.688  12.966  16.140 -0.1969  0.2524 -0.0779
35487W        W78399  31.957  13.972  19.501 -0.3132  0.0245 -0.1368
35488W        W78400  32.896  12.365  20.478 -0.1513  0.2339 -0.0456
35489W        W78401  30.596  11.484  17.181  0.0522 -0.0266 -0.1455
35490W        W78402  33.313  12.802  21.162  0.1724 -0.1032  0.0140
35491W        W78403  29.762  13.014  18.874  0.0065  0.1655  0.0615
35492W        W78404  30.905  10.821  18.385 -0.4076  0.2022 -0.2578
35493W        W78405  29.272  14.968  17.590 -0.1319  0.0014  0.1954
35494W        W78406  30.182  13.904  19.366  0.2536 -0.3372  0.1752
35495W        W78407  30.053  13.845  18.033 -0.1321  0.0071 -0.1314
35496W        W78408  30.630  10.742  18.017 -0.1633  0.1230  0.1368
35497W        W78409  30.895  13.107  16.988 -0.3512  0.1455 -0.1930
35498W        W78410  31.133  12.925  19.519 -0.0837 -0.1557  0.0704
35499W        W78411  34.008  12.546  18.378  0.0621  0.0812  0.2153
35500W        W78412  30.904  13.744  21.354 -0.0007 -0.0022 -0.0874
35501W        W78413  29.772  12.925  18.337  0.1641 -0.1611 -0.0140
35502W        W78414  30.490  14.160  18.054 -0.0524  0.0674 -0.0681
35503W        W78415  32.207  14.519  17.135 -0.1826 -0.2532 -0.0407
35504W        W78416  30.182  13.262  18.444 -0.0646  0.2296  0.1202
35505W        W78417  28.841  11.817  20.225  0.2441  0.2016 -0.3238
35506W        W78418  30.764  13.291  21.490  0.0930  0.0292  0.1976
35507W        W78419  30.677  14.536  21.015 -0.2471 -0.4376  0.2459
35508W        W78420  29.968  11.728  18.626  0.1550 -0.0294  0.0625
35509W        W78421  29.596  12.444  16.893 -0.1655 -0.0059  0.0142
35510W        W78422  29.330  14.581  19.397  0.0250  0.0425 -0.1742
35511W        W78423  28.772  11.109  18.095 -0.2240 -0.2422  0.4117
35512W        W78424  29.064  14.189  16.290 -0.1540  0.0770 -0.2148
35513W        W78425  32.151  13.608  17.128  0.2142  0.1378  0.1360
35514W        W78426  31.634  13.092  17.310  0.0208 -0.0962  0.0221
35515W        W78427  30.857  13.276  18.352 -0.3098  0.1450 -0.2301
35516W        W78428  30.613  12.715  18.323 -0.0207  0.1035  0.1549
35517W        W78429  29.344  14.561  17.970  0.2688  0.1292  0.0690
35518W        W78430  28.936  13.252  16.362 -0.0976  0.2240 -0.0063
35519W        W78431  32.011  14.048  17.333 -0.2173  0.0301 -0.1278
35520W        W78432  29.688  14.222  17.913 -0.0474  0.2182  0.0430
35521W        W78433  32.037  14.442  21.387  0.4088  0.1940  0.2511
35522W        W78434  30.658  10.994  16.897 -0.1529  0.2251  0.1270
35523W        W78435  31.447  13.870  19.154 -0.2220 -0.0142  0.2671
35524W        W78436  32.697  11.867  16.809  0.1617  0.0246  0.0694
35525W        W78437  29.935  13.907  20.185  0.0467 -0.2038  0.2039
35526W        W78438  31.282  12.230  18.220 -0.2512 -0.2273 -0.3225
35527W        W78439  31.429   9.736  17.580  0.1055  0.2023 -0.1483
35528W        W78440  29.917  14.361  20.941 -0.3319 -0.0467  0.1896
35529W        W78441  32.694  12.812  20.460 -0.0381  0.2077 -0.1480
35530W        W78442  27.791  14.237  20.173  0.0864 -0.1226  0.0405
35531W        W78443  32.053  14.562  16.572 -0.0503  0.2381 -0.0725
35532W        W78444  30.040  11.935  17.742 -0.1048 -0.3535 -0.1304
35533W        W78445  30.517  12.601  18.996  0.1013 -0.2569 -0.1274
35534W        W78446  31.835  11.560  19.126 -0.1144 -0.1282 -0.3060
35535W        W78447  31.421  13.296  16.930 -0.1265  0.1198  0.2882
35536W        W78448  30.258  12.293  18.703 -0.0236  0.0009  0.2292
35537W        W78449  31.026  13.603  16.903 -0.1000  0.1384  0.2186
35538W        W78450  29.879  14.812  19.438 -0.1980 -0.0060 -0.0918
35539W        W78451  30.040  14.581  17.766 -0.0275 -0.2270  0.2355
35540W        W78452  28.286   9.371  17.263 -0.2543  0.2365  0.0474
35541W        W78453  31.100  12.815  18.473  0.2273  0.1142 -0.1697
35542W        W78454  29.835  12.749  19.271  0.0561  0.2761  0.3655
35543W        W78455  31.382  12.128  19.687 -0.1669 -0.2441  0.0266
35544W        W78456  30.536  12.823  19.972  0.1652 -0.0792  0.0562
35545W        W78457  33.109  10.907  17.823  0.2051  0.2986 -0.0881
35546W        W78458  30.712  13.143  19.276 -0.0673  0.4492 -0.2322
35547W        W78459  28.132  11.411  19.434  0.2560  0.0682 -0.4771
35548W        W78460  30.770  11.069  17.420 -0.1775  0.1231  0.0385
35549W        W78461  31.038  13.062  20.014  0.0245  0.2301 -0.0781
35550W        W78462  30.899  12.746  16.548 -0.0548 -0.0778 -0.2477
35551W        W78463  30.857  13.697  18.748  0.1514  0.1731  0.0212
35552W        W78464  29.637  11.583  17.017  0.2980 -0.0659 -0.4591
35553W        W78465  31.646  11.816  17.017  0.0246  0.2225 -0.1446
35554W        W78466  28.826  13.125  17.834 -0.1161  0.3033  0.0232
35555W        W78467  30.647  12.003  18.968  0.1120  0.0618 -0.0464
35556W        W78468  30.882  13.353  22.116 -0.0321 -0.1183 -0.2313
35557W        W78469  28.884  12.617  17.942  0.2638 -0.0362 -0.1244
35558W        W78470  32.528  12.340  16.519  0.1043 -0.3323 -0.0561
35559W        W78471  31.006  12.720  19.061 -0.1576 -0.3247 -0.0607
35560W        W78472  30.199  13.829  17.240 -0.1328  0.2083  0.2306
35561W        W78473  31.696  13.450  18.928 -0.3045  0.3169  0.0974
35562W        W78474  30.682  12.994  18.782  0.2339  0.0616  0.0902
35563W        W78475  29.315  12.973  19.103  0.0872  0.4727  0.1715
35564W        W78476  31.344  14.844  18.380  0.1610  0.0262 -0.0530
35565W        W78477  32.492  13.907  19.687  0.0902  0.3232 -0.3253
35566W        W78478  30.380   9.963  17.952 -0.0448 -0.1117  0.1086
35567W        W78479  29.384  12.499  19.127 -0.0795  0.0896  0.3145
35568W        W78480  28.560  14.468  18.171 -0.0259  0.0593  0.1028
35569W        W78481  32.179  11.044  18.476  0.1589 -0.0307 -0.1673
35570W        W78482  30.945  11.998  20.054  0.4574 -0.0014  0.3645
35571W        W78483  31.695  13.573  17.250 -0.0552  0.1644  0.0543
35572W        W78484  31.803  10.885  19.083 -0.2113 -0.0221  0.0074
35573W        W78485  30.444  14.949  19.026  0.0209  0.1078  0.0852
35574W        W78486  30.428  15.202  20.708  0.2621 -0.0970  0.4245
35575W        W78487  28.558  12.891  16.442 -0.4943  0.1198  0.3114
35576W        W78488  30.429  13.837  19.819 -0.3085 -0.0885  0.1830
35577W        W78489  30.238  12.783  18.631 -0.0353  0.0118  0.0526
35578W        W78490  29.472  13.286  16.609  0.1950  0.2738 -0.0949
35579W        W78491  33.754  13.173  18.335 -0.0648 -0.0770  0.0037
35580W        W78492  32.417  10.778  17.894 -0.1486  0.1190  0.1155
35581W        W78493  32.782  13.226  17.992  0.0312 -0.1674 -0.0742
35582W        W78494  29.051  12.152  18.085  0.3747  0.1073 -0.0578
35583W        W78495  32.153  11.975  17.866  0.0570 -0.0893  0.1283
35584W        W78496  30.958  10.551  17.283 -0.2921  0.1463  0.0350
35585W        W78497  31.025  13.783  20.575  0.1386  0.1656 -0.0233
35586W        W78498  28.540  11.933  16.150  0.0948 -0.0770  0.2652
35587W        W78499  29.941  13.411  17.142 -0.3479 -0.1838  0.0390
35588W        W78500  30.263  12.355  19.409 -0.0408 -0.0718  0.1091
35589W        W78501  31.047  11.069  20.231  0.2083 -0.0826  0.2454
35590W        W78502  29.532  12.635  21.186  0.1564 -0.2632 -0.0412
35591W        W78503  29.390  14.201  18.333  0.0323  0.4153  0.0080
35592W        W78504  30.526  11.934  17.457 -0.1031 -0.4756 -0.5035
35593W        W78505  33.325  13.392  16.239 -0.2080  0.2997  0.1198
35594W        W78506  27.666  11.582  19.332 -0.0488  0.0426 -0.0254
35595W        W78507  27.901  11.051  17.816  0.1415  0.1165  0.4858
35596W        W78508  32.642  14.349  16.945  0.2779  0.2489 -0.0136
35597W        W78509  32.369  13.426  16.756 -0.0063 -0.2848 -0.0882
35598W        W78510  29.879  11.428  19.148  0.1154  0.2479 -0.1763
35599W        W78511  31.863  13.189  20.999  0.0664  0.0542  0.2474
35600W        W78512  28.041  13.127  17.161 -0.2505  0.0585  0.1475
35601W        W78513  30.509  12.330  19.925 -0.1294  0.2000  0.1762
35602W        W78514  30.770  11.369  18.655  0.1395  0.1349 -0.0311
35603W        W78515  28.773  12.227  16.730  0.3338  0.3370 -0.1569
35604W        W78516  30.940  12.984  17.933 -0.0362 -0.2049 -0.1861
35605W        W78517  31.207  12.625  17.003  0.0571  0.1790  0.0356
35606W        W78518  30.938  14.525  17.943 -0.0423 -0.1872 -0.3175
35607W        W78519  31.423  13.916  21.627 -0.0829 -0.0650  0.1284
35608W        W78520  30.638  14.139  19.394  0.2006  0.4365 -0.0335
35609W        W78521  27.748  10.898  18.258 -0.0230 -0.0578 -0.0417
35610W        W78522  31.254  11.014  17.322 -0.1210  0.2050  0.1072
35611W        W78523  30.085  14.414  18.206  0.3198  0.2082 -0.2834
35612W        W78524  32.990  12.495  16.239  0.0109 -0.0251  0.0866
35613W        W78525  31.564  11.976  18.613 -0.0812  0.1591  0.0897
35614W        W78526  30.499  11.821  17.956 -0.1420  0.0928 -0.2227
35615W        W78527  29.395  10.866  19.678 -0.2957 -0.1696 -0.2949
35616W        W78528  29.001  13.333  20.160  0.0858 -0.0283 -0.0765
35617W        W78529  32.337  13.102  19.698  0.0794  0.1210 -0.1422
35618W        W78530  29.135  11.554  18.093 -0.1902  0.2017 -0.0433
35619W        W78531  31.787  12.103  18.168 -0.1808  0.0002 -0.0326
35620W        W78532  30.690  13.187  17.489  0.2589 -0.0718 -0.0135
35621W        W78533  28.569  12.300  20.230 -0.0849  0.0065 -0.0633
35622W        W78534  32.224  11.669  17.051  0.0264  0.0053  0.2072
35623W        W78535  31.508  12.782  19.795  0.1471  0.0882  0.0992
35624W        W78536  30.586  13.672  18.191  0.2247 -0.0392  0.0906
35625W        W78537  32.302  12.480  20.190 -0.5022 -0.1349  0.1010
35626W        W78538  31.063  12.858  17.432  0.1386  0.0778  0.1182
35627W        W78539  31.894  12.925  17.686 -0.1077 -0.0639  0.1064
35628W        W78540  30.028  14.202  19.756 -0.0160 -0.1290 -0.0577
35629W        W78541  31.626  15.099  21.132 -0.1702 -0.1173  0.0621
35630W        W78542  30.749  14.622  19.229 -0.0175  0.0645  0.0972
35631W        W78543  31.863  12.448  19.521 -0.1475  0.1638 -0.0381
35632W        W78544  29.229  12.031  18.936  0.2525  0.2195 -0.2874
35633W        W78545  30.594  13.637  19.361 -0.0005  0.2498 -0.1769
35634W        W78546  31.887  13.418  17.692 -0.1564 -0.4495 -0.0440
35635W        W78547  32.092  13.396  20.441 -0.0897  0.0331  0.4117
35636W        W78548  29.547  11.853  19.231 -0.0821  0.0503  0.1637
35637W        W78549  30.159  12.074  18.282 -0.1028 -0.0278 -0.0420
35638W        W78550  29.872  15.668  20.026 -0.2598  0.2408 -0.1952
35639W        W78551  31.608  13.224  20.283  0.1713  0.0959  0.2381
35640W        W78552  30.993  13.014  23.038 -0.1479  0.1332  0.0648
35641W        W78553  29.809  11.364  20.485  0.2639  0.0710 -0.1025
35642W        W78554  31.833  12.676  19.004 -0.1471 -0.0475  0.0811
35643W        W78555  34.128  12.585  20.245  0.0632  0.0839 -0.0005
35644W        W78556  28.795  11.098  20.860  0.0318 -0.3021  0.1034
35645W        W78557  31.180  14.356  20.549 -0.0509  0.1344 -0.2361
35646W        W78558  30.030  11.182  23.594 -0.3646  0.0771  0.0630
35647W        W78559  32.681  13.095  22.066  0.1481  0.0375  0.1368
35648W        W78560  32.354  14.721  21.768  0.3008  0.0120 -0.1674
35649W        W78561  32.024  12.861  20.518  0.0887  0.0017  0.0463
35650W        W78562  29.190  13.087  21.105  0.0118  0.0193 -0.2421
35651W        W78563  29.126  13.450  22.489  0.2559 -0.2377 -0.2543
35652W        W78564  30.512  12.922  22.260  0.2021  0.1891 -0.2378
35653W        W78565  29.106  11.181  23.639 -0.2161  0.0669 -0.2948
35654W        W78566  31.210  11.775  20.781 -0.1092 -0.0791  0.0384
35655W        W78567  27.997  12.325  20.184  0.2408  0.1647  0.0783
35656W        W78568  30.814  11.424  22.308  0.2321  0.2060 -0.2071
35657W        W78569  29.194  12.724  21.575  0.1055  0.1661 -0.0118
35658W        W78570  31.151  14.218  21.132  0.0942 -0.1842 -0.2393
35659W        W78571  30.395  11.730  22.475  0.1303 -0.4770 -0.2208
35660W        W78572  32.198  12.560  23.031 -0.0590 -0.0053  0.2866
35661W        W78573  29.814  14.845  20.786 -0.3305  0.0567 -0.1834
35662W        W78574  28.896  11.294  20.412  0.0401  0.0358 -0.1510
35663W        W78575  29.211  11.893  21.868  0.0347 -0.0007 -0.0399
35664W        W78576  28.697  12.732  21.308 -0.2825  0.1299 -0.2492
35665W        W78577  31.535  11.414  21.569 -0.0758 -0.1343 -0.0546
35666W        W78578  32.069  12.133  21.826  0.0320  0.2805 -0.0293
35667W        W78579  31.993  14.744  22.646  0.0589 -0.0534 -0.1538
35668W        W78580  32.075  14.209  22.340  0.1472  0.0779 -0.0131
35669W        W78581  30.730  12.178  21.628 -0.2203 -0.3535 -0.0034
35670W        W78582  28.839  13.227  22.900 -0.2127 -0.1736  0.2483
35671W        W78583  29.649  15.332  21.796  0.0797 -0.0094  0.1795
35672W        W78584  29.475  15.226  20.811  0.0490 -0.0291 -0.1698
35673W        W78585  32.615  13.294  21.620 -0.0891 -0.2811 -0.1283
35674W        W78586  32.432  15.003  22.658  0.3130  0.1566  0.2793
35675W        W78587  30.085  14.282  22.048  0.1889  0.1254 -0.1270
35676W        W78588  29.215  14.193  20.515 -0.3832  0.3430 -0.1411
35677W        W78589  30.537  14.521  23.813 -0.1490 -0.0750  0.0942
35678W        W78590  30.581  14.251  24.288  0.2441 -0.0993  0.1691
35679W        W78591  31.600  11.938  21.678 -0.1085  0.2223 -0.2275
35680W        W78592  28.736  11.744  21.805  0.2090 -0.1664  0.6182
35681W        W78593  29.404  14.719  20.433  0.0785 -0.1721 -0.0514
35682W        W78594  29.623  12.446  22.307 -0.3786  0.1266 -0.1497
35683W        W78595  31.262  12.219  24.649  0.0750  0.1624 -0.0726
35684W        W78596  29.557  14.763  21.705  0.2641  0.1720  0.1328
35685W        W78597  32.764  11.117  22.960  0.0872  0.2281  0.1951
35686W        W78598  28.358  14.694  20.538 -0.0629 -0.0144 -0.0886
35687W        W78599  31.952  12.714  21.056 -0.1291  0.0282 -0.0553
35688W        W78600  28.631  11.484  19.124  0.2391  0.3756 -0.0288
35689W        W78601  31.814  10.955  21.678  0.0606  0.1100  0.0255
35690W        W78602  30.167  11.003  21.188 -0.0078  0.1217  0.0134
35691W        W78603  29.417  13.337  22.103 -0.0763  0.0774 -0.1475
35692W        W78604  31.161  12.064  21.992 -0.0967 -0.0821  0.0508
35693W        W78605  31.894  14.305  22.858 -0.1683 -0.5033  0.1292
35694W        W78606  30.853  12.080  20.679 -0.1265 -0.4616 -0.1746
35695W        W78607  32.095  11.774  22.399 -0.0403 -0.0354 -0.0096
35696W        W78608  28.718  14.604  22.293  0.0566  0.0264  0.0163
35697W        W78609  28.595  12.198  21.255 -0.3261 -0.1913 -0.1743
35698W        W78610  30.765  14.881  19.775 -0.0573  0.2582 -0.1115
35699W        W78611  32.971  12.166  22.401 -0.2588 -0.1760  0.2754
35700W        W78612  31.330  13.917  20.205 -0.0898  0.2617 -0.2238
35701W        W78613  30.360  12.180  20.745  0.0486  0.2494  0.1583
35702W        W78614  28.770  12.752  21.885  0.1409  0.1998 -0.0472
35703W        W78615  29.969  11.795  22.851 -0.0241  0.3888  0.0712
35704W        W78616  29.076  10.304  18.528 -0.2663 -0.1709 -0.0741
35705W        W78617  32.797  13.735  24.045 -0.1337  0.1915  0.3186
35706W        W78618  29.438  14.358  22.493  0.1398  0.0047 -0.1067
35707W        W78619  33.009  13.003  21.654 -0.0669  0.2971  0.1242
35708W        W78620  30.503  13.381  22.437 -0.3459  0.0266 -0.0851
35709W        W78621  32.787  14.122  21.923  0.1411  0.0011  0.1827
35710W        W78622  32.770  11.912  20.893  0.0968  0.2465  0.1430
35711W        W78623  32.236  13.278  22.096 -0.0031  0.0629  0.0935
35712W        W78624  31.559  11.914  22.523 -0.0486 -0.3175 -0.0053
35713W        W78625  29.380  12.047  20.919 -0.1163  0.4498 -0.1933
35714W        W78626  29.898  13.079  21.195 -0.1820 -0.0921 -0.0168
35715W        W78627  33.554  14.669  22.614 -0.1667 -0.1464  0.0217
35716W        W78628  31.732  11.685  21.169  0.0887  0.1400 -0.1198
35717W        W78629  28.652  14.782  21.026 -0.0045 -0.0280 -0.1259
35718W        W78630  31.733  14.307  23.344 -0.2088 -0.1533 -0.1035
35719W        W78631  32.389  13.813  23.712  0.1080 -0.0971  0.0354
35720W        W78632  27.779  14.460  22.334  0.1155 -0.1120 -0.2184
35721W        W78633  28.789  13.214  22.159 -0.2457  0.1124  0.1265
35722W        W78634  29.497  13.656  21.745 -0.0597  0.0176  0.1441
35723W        W78635  29.059  10.209  24.253  0.2927 -0.2259  0.0679
35724W        W78636  31.934  13.821  23.940 -0.3497 -0.2809 -0.0704
35725W        W78637  31.399  11.111  21.165  0.1826  0.0413 -0.0002
35726W        W78638  30.452  12.556  22.577 -0.0401 -0.1652  0.3472
35727W        W78639  33.111  11.302  21.265  0.0983 -0.1431  0.2421
35728W        W78640  30.027  13.233  22.097 -0.1420  0.0201  0.0865
35729W        W78641  32.547  12.566  20.917  0.0506 -0.0808  0.0276
35730W        W78642  33.175  12.151  20.079  0.1347  0.3833 -0.0343
35731W        W78643  31.295  13.477  19.881  0.0852  0.0469 -0.0671
35732W        W78644  30.193  11.048  22.406  0.1168 -0.2591  0.2148
35733W        W78645  28.676  11.088  21.342  0.3729 -0.0078 -0.1434
35734W        W78646  29.554  11.488  23.675 -0.2296 -0.1087 -0.0409
35735W        W78647  29.633  10.370  23.334  0.1312 -0.3865 -0.0885
35736W        W78648  31.866  13.537  23.453  0.1488  0.0464  0.1702
35737W        W78649  30.498   9.715  21.843  0.0105  0.0771 -0.0922
35738W        W78650  30.867  12.748  21.370 -0.1482 -0.1625 -0.0831
35739W        W78651  29.018  12.447  22.521  0.0674  0.0142  0.2947
35740W        W78652  29.113  11.859  21.375  0.0771  0.1440 -0.0271
35741W        W78653  32.004  12.469  23.486 -0.2785  0.0791  0.0661
35742W        W78654  32.507  14.297  21.323 -0.0492  0.2138 -0.0168
35743W        W78655  33.755  14.824  22.078 -0.2459 -0.2225  0.1046
35744W        W78656  31.211  14.774  20.890  0.3355 -0.0075  0.0526
35745W        W78657  30.134  10.863  21.736  0.1820 -0.2741  0.1432
35746W        W78658  30.458  10.733  20.296 -0.4298  0.2360  0.6034
35747W        W78659  28.989  14.440  21.107  0.2813 -0.2730 -0.3115
35748W        W78660  30.441  14.663  21.572 -0.0100 -0.4386  0.3178
35749W        W78661  29.763  10.891  20.864 -0.1236  0.0919  0.1559
35750W        W78662  31.540  15.605  21.207  0.1832 -0.0844 -0.0828
35751W        W78663  29.462  12.180  21.487 -0.1015  0.1455  0.0127
35752W        W78664  30.227  13.072  23.219  0.0491 -0.1591 -0.0954
35753W        W78665  30.384  13.764  23.659 -0.1173  0.2348  0.0845
35754W        W78666  31.573  12.795  23.010 -0.0154  0.1900  0.2361
35755W        W78667  31.300  13.763  20.981  0.2067 -0.0183  0.1229
35756W        W78668  29.177  11.268  18.476 -0.1817  0.2359 -0.1454
35757W        W78669  29.043  14.595  21.739  0.2357  0.0258  0.0037
35758W        W78670  28.175  14.219  20.521 -0.1856  0.1584 -0.0331
35759W        W78671  27.980  12.963  20.900  0.0418  0.0438  0.1860
35760W        W78672  29.489  13.184  20.188 -0.1909 -0.3001 -0.2179
35761W        W78673  33.543  10.096  22.115 -0.1352 -0.0420  0.0739
35762W        W78674  29.801  11.995  24.737 -0.1837  0.0500 -0.1396
35763W        W78675  31.133  10.998  22.703 -0.0575 -0.4706  0.2750
35764W        W78676  29.102  12.389  21.196 -0.0974 -0.0657  0.0993
35765W        W78677  29.037  13.113  23.364 -0.2192  0.2018  0.0851
35766W        W78678  29.963  10.813  20.381  0.2473 -0.0042 -0.1214
35767W        W78679  32.041  11.460  19.993 -0.0372 -0.3976  0.1131
35768W        W78680  31.329  11.443  22.598 -0.0063 -0.1325 -0.3736
35769W        W78681  32.328  11.172  20.250 -0.1731  0.1180 -0.1285
35770W        W78682  30.034  12.558  19.902 -0.1755  0.3445 -0.0197
35771W        W78683  30.820  11.959  21.183  0.0411 -0.0519  0.0293
35772W        W78684  30.571  13.342  23.910 -0.1967  0.1495 -0.1860
35773W        W78685  31.220  13.459  21.705  0.0198  0.0352  0.2250
35774W        W78686  31.396  15.171  21.603  0.2201 -0.4184  0.0038
35775W        W78687  29.240  12.684  20.709 -0.1239  0.4100 -0.1573
35776W        W78688  33.241  13.983  20.182  0.0236 -0.1750 -0.3866
35777W        W78689  27.836  14.538  23.037  0.1059  0.0156  0.0576
35778W        W78690  31.184  12.444  22.995  0.1249 -0.2698  0.3210
35779W        W78691  31.680  14.074  21.115 -0.1208 -0.1333 -0.1314
35780W        W78692  30.461  10.934  22.995 -0.0479 -0.1030  0.0330
35781W        W78693  29.908  13.504  21.445  0.0205  0.1891 -0.0772
35782W        W78694  30.767  10.977  21.941  0.1341 -0.0717 -0.1205
35783W        W78695  27.513  14.175  19.757 -0.0927 -0.3488  0.1016
35784W        W78696  31.415  10.772  21.909 -0.0359 -0.0284 -0.1246
35785W        W78697  31.624  12.336  22.082  0.1400 -0.0040  0.0654
35786W        W78698  31.319  11.870  23.893 -0.2605  0.0437 -0.1383
35787W        W78699  31.168  11.934  22.948 -0.0864  0.0099 -0.1225
35788W        W78700  31.759  11.955  20.741  0.0572 -0.1282 -0.0968
35789W        W78701  31.657  13.767  22.625  0.1891 -0.0356  0.1818
35790W        W78702  29.648  12.348  20.645  0.0388 -0.0238  0.1171
35791W        W78703  29.542  12.049  22.774 -0.0907 -0.0729  0.2032
35792W        W78704  29.785  11.938  24.224 -0.0358  0.0416  0.0015
35793W        W78705  29.209  12.385  22.002 -0.0084 -0.1000  0.1597
35794W        W78706  31.124  13.496  23.895 -0.2210 -0.2184 -0.5812
35795W        W78707  31.195  13.825  22.318  0.1124 -0.3384 -0.0102
35796W        W78708  30.480  10.344  23.205  0.0523  0.3363 -0.2326
35797W        W78709  30.494  11.699  20.646  0.0738 -0.1395 -0.1598
35798W        W78710  29.140  14.913  21.383 -0.1356 -0.1425  0.1057
35799W        W78711  29.467  13.196  21.556 -0.0953  0.2800 -0.1593
35800W        W78712  30.595  11.664  21.520  0.0338 -0.1267 -0.0608
35801W        W78713  28.390  13.246  22.694  0.0496 -0.1607 -0.3180
35802W        W78714  30.852  13.513  20.126 -0.1344 -0.0355  0.1699
35803W        W78715  29.545  13.205  23.524  0.1964  0.0971 -0.1208
35804W        W78716  29.146  14.124  21.553  0.3229 -0.0623 -0.0055
35805W        W78717  32.331  10.196  22.139 -0.1697  0.0136 -0.1365
35806W        W78718  29.008  14.638  22.688  0.2540  0.1660  0.1816
35807W        W78719  31.020  11.207  20.737  0.0849  0.0527  0.1286
35808W        W78720  27.863  12.217  21.742  0.1153  0.1477 -0.1019
35809W        W78721  31.952  11.577  20.513 -0.1078 -0.5425  0.1462
35810W        W78722  32.851  13.951  21.255 -0.0987  0.1879  0.0694
35811W        W78723  27.865  12.747  23.289 -0.0317 -0.0028 -0.0402
35812W        W78724  31.795  11.342  22.384  0.3063  0.4415 -0.0560
35813W        W78725  30.384  14.261  22.590  0.0956  0.2561  0.1981
35814W        W78726  30.936  12.717  22.642  0.2251 -0.1408  0.2565
35815W        W78727  32.861  11.494  21.666 -0.2306 -0.2548  0.1466
35816W        W78728  31.406  13.370  22.854  0.0899  0.2250 -0.0977
35817W        W78729  30.971  12.643  23.490 -0.0308 -0.0017  0.3078
35818W        W78730  28.220  11.926  21.496 -0.0710  0.0513  0.0125
35819W        W78731  31.735  12.458  21.510  0.1328 -0.0907  0.1033
35820W        W78732  30.778  12.548  20.324  0.0384  0.3071 -0.4119
35821W        W78733  29.390  14.991  22.638 -0.1022 -0.1248 -0.1045
35822W        W78734  31.412  14.968  22.489 -0.1107 -0.0703 -0.0279
35823W        W78735  28.913  10.739  19.676 -0.1326 -0.2193  0.1171
35824W        W78736  30.394  13.632  21.328  0.0077 -0.1467  0.2145
35825W        W78737  29.983  12.967  23.672  0.0221  0.1617 -0.2976
35826W        W78738  31.706  13.553  21.877  0.1568  0.1082 -0.3111
35827W        W78739  30.376  13.080  21.013 -0.0140 -0.0587 -0.0164
35828W        W78740  30.327  11.825  21.128 -0.1410 -0.1664  0.0981
35829W        W78741  31.894  13.974  21.612 -0.2842 -0.1332 -0.3544
35830W        W78742  31.363  12.702  21.191 -0.1246 -0.1385 -0.0801
35831W        W78743  29.940  12.551  22.699  0.0392  0.2891 -0.0277
35832W        W78744  31.353  14.148  22.709 -0.1615  0.3691 -0.1017
35833W        W78745  30.883   9.976  21.973 -0.0584 -0.2185  0.2262
35834W        W78746  32.343  13.649  20.087  0.1345 -0.2697 -0.0812
35835W        W78747  30.864  12.457  22.157  0.0804  0.0033 -0.1336
35836W        W78748  28.292  13.487  21.161  0.1093  0.0498  0.0192
35837W        W78749  28.223  12.975  21.374 -0.2061 -0.3751  0.2464
35838W        W78750  30.278  14.250  21.245  0.1264 -0.1204  0.3125
35839W        W78751  31.183  11.117  22.170 -0.0098 -0.1278  0.1704
35840W        W78752  29.203  12.961  22.538 -0.3249 -0.2038  0.2230
35841W        W78753  29.705  15.028  21.312  0.1930 -0.0094 -0.1395
35842W        W78754  28.678  14.908  23.499 -0.2274 -0.1469  0.1824
35843W        W78755  31.789  12.399  20.047 -0.2880 -0.3221  0.0040
35844W        W78756  30.517  13.090  20.510 -0.4603  0.2701  0.1313
35845W        W78757  31.968  12.173  21.148 -0.0393 -0.3524  0.1159
35846W        W78758  33.173  12.030  23.870  0.1869  0.0517  0.0391
35847W        W78759  31.065  13.208  20.547  0.2043 -0.0543 -0.1139
35848W        W78760  31.637  11.669  22.932 -0.4398 -0.0980 -0.0788
35849W        W78761  29.774  11.402  22.561 -0.0850  0.0115  0.0323
35850W        W78762  32.241  12.497  21.448 -0.0227 -0.0771  0.1025
35851W        W78763  29.204  12.201  23.480  0.0632 -0.1677 -0.2695
35852W        W78764  31.741  15.295  23.215  0.1215  0.2898  0.0684
35853W        W78765  30.141  14.554  24.228  0.4220 -0.0493  0.1408
35854W        W78766  30.396  12.475  21.256 -0.1443  0.0760  0.4532
35855W        W78767  29.159  10.074  22.660  0.2384 -0.0257  0.0194
35856W        W78768  30.214  13.144  21.625  0.0483  0.0748 -0.0941
35857W        W78769  33.211  14.907  21.832 -0.4749  0.0156 -0.3460
35858W        W78770  30.651  14.190  20.604  0.0547  0.2991  0.2147
35859W        W78771  32.993  11.861  21.995 -0.0066  0.2133 -0.1860
35860W        W78772  28.745  13.202  21.226  0.0408  0.1571 -0.1044
35861W        W78773  31.856  12.970  21.508 -0.1245 -0.1032  0.2175
35862W        W78774  29.540  13.895  22.197  0.0620 -0.1653 -0.0015
35863W        W78775  28.636  13.699  22.757 -0.0232  0.2036 -0.0008
35864W        W78776  30.630  11.923  24.559  0.3986  0.2099  0.1119
35865W        W78777  31.767  13.640  21.286  0.1581 -0.1172  0.2932
35866W        W78778  31.118  11.881  21.534  0.1722  0.0635  0.0135
35867W        W78779  32.304  11.283  22.476 -0.2995  0.2669 -0.1110
35868W        W78780  31.443  11.594  22.067 -0.2330 -0.3482  0.2810
35869W        W78781  29.245  10.207  23.727  0.2811  0.2744  0.4761
35870W        W78782  28.015  10.665  23.996  0.0263  0.1593  0.1616
35871W        W78783  32.445  14.375  22.754  0.3607 -0.2857 -0.0978
35872W        W78784  33.156  13.398  22.134  0.0436 -0.1592  0.0412
35873W        W78785  32.171  11.544  22.906 -0.2585  0.1085  0.0762
35874W        W78786  33.017  13.666  21.683  0.0247  0.0649 -0.3691
35875W        W78787  31.451  12.198  21.111 -0.0192  0.1055 -0.1734
35876W        W78788  27.701  13.900  21.572 -0.1399 -0.1636  0.0255
35877W        W78789  32.924  13.523  22.604 -0.0809 -0.0387  0.0096
35878W        W78790  29.198  10.702  20.112  0.2569  0.1343 -0.0585
35879W        W78791  31.666  11.167  22.889 -0.2225  0.1237 -0.1916
35880W        W78792  30.619  15.007  21.236  0.0741 -0.0759  0.3063
35881W        W78793  30.943  13.947  21.851  0.1625  0.0995  0.0044
35882W        W78794  31.116  12.571  20.768  0.0669  0.2768  0.2431
35883W        W78795  28.494  11.767  23.831 -0.1565 -0.1168 -0.0436
35884W        W78796  30.550  13.006  22.809 -0.1933  0.1427  0.3340
35885W        W78797  29.363  10.591  19.216 -0.3388  0.1298 -0.0654
35886W        W78798  29.972  13.467  19.885 -0.0153 -0.0152  0.2003
35887W        W78799  32.847  14.556  21.586  0.2404  0.0094  0.0662
35888W        W78800  33.274  13.487  23.445 -0.0300  0.0236 -0.0136
35889W        W78801  31.055  10.634  20.458  0.0439  0.2463 -0.0068
35890W        W78802  31.739  12.266  23.096 -0.1415  0.0729  0.0652
35891W        W78803  29.256  14.004  21.008 -0.0579  0.1936 -0.2679
35892W        W78804  30.424  10.437  21.767  0.0704  0.3011 -0.0236
35893W        W78805  29.922  13.889  21.848 -0.0645 -0.1514  0.1923
35894W        W78806  27.745  13.504  23.870 -0.2512 -0.0999  0.0653
35895W        W78807  30.582  13.809  22.758  0.1854 -0.0961 -0.1698
35896W        W78808  31.376  10.095  23.248 -0.1475  0.0822 -0.0277
35897W        W78809  33.167  10.788  22.249  0.0216 -0.0549 -0.1604
35898W        W78810  28.953  13.229  21.674  0.0707 -0.0827  0.2266
35899W        W78811  33.243  12.856  22.069 -0.1989 -0.2555 -0.1486
35900W        W78812  31.195  13.503  23.371 -0.1097  0.0327 -0.3653
35901W        W78813  29.805  13.482  22.562  0.0565 -0.3568  0.1075
35902W        W78814  30.598  13.828  22.238 -0.3323  0.0697  0.2255
35903W        W78815  32.631  14.018  22.420 -0.0151 -0.0182 -0.0917
35904W        W78816  28.980  14.225  22.068  0.0052  0.2342 -0.0978
35905W        W78817  27.039  12.316  23.184 -0.3852 -0.0203 -0.2363
35906W        W78818  30.131  12.619  23.265 -0.0987 -0.1118 -0.2478
35907W        W78819  31.086  11.528  21.195 -0.0921  0.1391  0.1482
35908W        W78820  31.498  10.316  22.363 -0.0174  0.2189  0.0790
35909W        W78821  30.599  14.392  19.818  0.1562 -0.0587 -0.2545
35910W        W78822  29.910  13.478  23.279 -0.1644  0.2878  0.1910
35911W        W78823  28.261  12.043  21.986 -0.3369  0.2033 -0.0987
35912W        W78824  30.254  14.627  20.693 -0.0105  0.0235  0.1398
35913W        W78825  30.482  13.530  21.865  0.2346  0.1078 -0.2222
35914W        W78826  29.954  13.525  20.875 -0.3165  0.0359  0.0491
35915W        W78827  31.850  15.364  21.503 -0.0953 -0.0381  0.0683
35916W        W78828  29.141  12.252  20.441 -0.0197  0.1461  0.2486
35917W        W78829  29.974  15.769  21.772 -0.1700  0.0712  0.0163
35918W        W78830  28.005  14.126  19.512 -0.0975 -0.3032  0.2418
35919W        W78831  32.124  14.834  21.150  0.0298  0.2754 -0.0157
35920W        W78832  30.895  14.194  22.517 -0.2197  0.0196 -0.0639
35921W        W78833  33.079  14.372  24.769  0.2441 -0.0439  0.1343
35922W        W78834  31.581  11.810  20.030 -0.0433  0.1244 -0.2520
35923W        W78835  32.452  13.514  22.562 -0.1316 -0.1784 -0.2580
35924W        W78836  32.069  12.383  22.300  0.0748 -0.1292 -0.0138
35925W        W78837  31.475  13.807  25.244  0.1160  0.0822 -0.0536
35926W        W78838  30.111  13.001  22.577 -0.0003 -0.2261  0.0025
35927W        W78839  30.057  12.596  20.897 -0.0181 -0.0805 -0.2848
35928W        W78840  30.588  13.359  24.509 -0.1157 -0.2769  0.0042
35929W        W78841  32.494  10.669  22.850  0.1868 -0.2304  0.1332
35930W        W78842  29.182  14.985  23.541 -0.0532  0.2770 -0.0942
35931W        W78843  32.881  12.414  21.440 -0.0074  0.1688  0.1699
35932W        W78844  29.486  12.609  22.904  0.3220  0.0680 -0.1980
35933W        W78845  28.462  13.028  20.834 -0.1917 -0.0409  0.4038
35934W        W78846  32.262  10.668  21.785 -0.1711  0.3023 -0.1657
35935W        W78847  30.877  11.586  20.381 -0.0345  0.0307  0.1812
35936W        W78848  31.832  11.606  23.870  0.0246 -0.2192 -0.0194
35937W        W78849  30.857  14.991  20.630  0.2390  0.2781 -0.2436
35938W        W78850  30.790  13.947  23.991 -0.0973  0.1999  0.0958
35939W        W78851  30.946  14.884  21.780 -0.5031 -0.1959 -0.0113
35940W        W78852  28.629  11.696  21.287  0.0935  0.2555 -0.2421
35941W        W78853  32.501  12.081  22.290 -0.2468 -0.2611  0.0624
35942W        W78854  29.225  12.031  22.345 -0.0824  0.0391  0.0875
35943W        W78855  31.832  11.280  23.432 -0.4700  0.1785  0.0397
35944W        W78856  30.268  11.152  20.623  0.1040  0.0851  0.1462
35945W        W78857  32.467  12.064  21.358  0.4776  0.0200 -0.0282
35946W        W78858  31.410  12.964  21.670 -0.0066  0.0099 -0.0372
35947W        W78859  29.844  13.949  21.178  0.0656  0.1049  0.1868
35948W        W78860  30.591  13.500  20.845 -0.1477 -0.1098 -0.0357
35949W        W78861  32.128  12.108  22.763 -0.5132 -0.0794  0.1356
35950W        W78862  31.090  12.525  19.940 -0.1274 -0.1112 -0.2672
35951W        W78863  31.576  16.068  22.700  0.1018 -0.0736 -0.0974
35952W        W78864  30.207  12.046  21.566 -0.2234  0.2666  0.3967
35953W        W78865  30.799  10.663  19.944 -0.2088 -0.1071  0.0505
35954W        W78866  29.885  12.201  21.176  0.3085  0.4285 -0.1677
35955W        W78867  29.740  12.859  21.928  0.3399  0.0222  0.1185
35956W        W78868  30.960  13.020  24.453 -0.2911  0.0090  0.0202
35957W        W78869  30.225  10.522  20.803 -0.0518  0.3688 -0.2504
35958W        W78870  31.378  12.222  20.285  0.2048  0.0437 -0.0500
35959W        W78871  32.120  13.773  22.022 -0.3040  0.2208  0.0292
35960W        W78872  30.817  14.136  18.482 -0.2527 -0.3205 -0.2809
35961W        W78873  33.359  13.924  20.660  0.0963 -0.0813 -0.0862
35962W        W78874  31.424  14.777  21.940  0.3039  0.0021 -0.1891
35963W        W78875  29.302  11.027  22.150  0.4286 -0.2602  0.0032
35964W        W78876  32.253  15.178  21.824 -0.1617 -0.3945 -0.3113
35965W        W78877   0.474  14.687  21.933  0.2688 -0.0017 -0.3160
35966W        W78878  30.227  11.477  19.554 -0.0343  0.0476 -0.1173
35967W        W78879  30.405  11.372  22.016  0.2144 -0.0339 -0.0533
35968W        W78880  30.643  15.242  22.117  0.0250  0.0726  0.1489
35969W        W78881  32.318  12.858  21.826 -0.1032 -0.2246 -0.0034
35970W        W78882  31.790  13.020  22.020 -0.0989 -0.0485  0.2177
35971W        W78883  32.661  13.662  22.086  0.1210 -0.2882 -0.1700
35972W        W78884  32.824  10.829  23.320 -0.0252  0.0135  0.0467
35973W        W78885  31.256  15.173  22.932  0.1556  0.1226  0.5105
35974W        W78886  30.769  15.422  23.971  0.0444  0.2748  0.2221
35975W        W78887  28.266  12.559  21.078  0.1461  0.2439 -0.2943
35976W        W78888  31.530  13.822  23.155 -0.1087 -0.0808  0.2422
35977W        W78889  31.561  14.362  21.653 -0.1310 -0.0714 -0.0690
35978W        W78890  29.220  14.417  20.002 -0.2071  0.2477 -0.0536
35979W        W78891  31.825  14.854  21.666 -0.3018  0.1198  0.1410
35980W        W78892  29.997  11.682  22.010 -0.0989  0.0356  0.1875
35981W        W78893  32.637  14.834  21.155  0.2724 -0.0028 -0.2109
35982W        W78894  30.424  12.665  21.818 -0.3306 -0.1637 -0.0098
35983W        W78895  32.419  13.454  21.070 -0.0600 -0.1781 -0.1194
35984W        W78896  32.697  10.623  22.099  0.1071 -0.0476  0.3699
35985W        W78897  29.777  11.352  23.184  0.0215  0.2765 -0.1675
35986W        W78898  29.841  11.893  20.735 -0.0222 -0.1416  0.0126
35987W        W78899  28.503  13.759  19.631  0.1176  0.1332  0.0123
35988W        W78900  29.675  12.932  22.403  0.3043 -0.0575 -0.3034
35989W        W78901  30.791  10.596  22.826 -0.1310 -0.2063  0.4590
35990W        W78902  30.109  12.667  22.183 -0.1236  0.0339 -0.3297
35991W        W78903  28.382  12.462  21.585  0.2036 -0.1240 -0.2653
35992W        W78904  29.272  10.340  21.064  0.2892  0.0709  0.2753
35993W        W78905  32.294  14.195  21.829  0.3191 -0.2762  0.1356
35994W        W78906  30.074  10.561  22.185 -0.2065 -0.2695  0.1238
35995W        W78907  29.024  11.631  22.691 -0.1737 -0.1316  0.2057
35996W        W78908  32.315  13.008  21.271 -0.1594  0.0204  0.1683
35997W        W78909  32.482  13.839  20.771  0.0429  0.2511 -0.0131
35998W        W78910  30.717  11.853  22.061  0.1905  0.3283  0.0097
35999W        W78911  33.123  13.952  23.751  0.0159 -0.2862 -0.0488
36000W        W78912  26.721  14.352  20.803  0.0501 -0.2030 -0.0003
36001W        W78913  31.584  10.835  23.990  0.3727 -0.0083 -0.0981
36002W        W78914  29.222  10.998  22.704 -0.0843 -0.1654  0.1023
36003W        W78915  27.408  11.029  20.565 -0.1869 -0.2099 -0.2598
36004W        W78916  29.798  12.074  21.808  0.2055  0.0268  0.0892
36005W        W78917  32.048  15.559  21.100  0.0176 -0.0456 -0.0290
36006W        W78918  30.851  13.087  20.961 -0.0938  0.1461 -0.1642
36007W        W78919  33.265  13.925  22.070  0.1817 -0.2978  0.1219
36008W        W78920  30.377  14.251  23.417  0.4053 -0.3778 -0.0190
36009W        W78921  28.718  12.664  24.147  0.0363  0.1393  0.2535
36010W        W78922  31.248  12.439  21.665  0.2387  0.4994 -0.0753
36011W        W78923  29.654  14.290  23.741  0.0183 -0.1292  0.0405
36012W        W78924  32.402  11.410  20.656  0.2062 -0.0036  0.2269
36013W        W78925  33.573  11.042  22.218 -0.0464  0.2343 -0.1294
36014W        W78926  29.920  11.063  19.665 -0.1112 -0.2294  0.0008
36015W        W78927  30.023  11.661  23.847  0.1325  0.0840  0.1607
36016W        W78928  30.809  13.973  23.475 -0.0379  0.0631 -0.2079
36017W        W78929  33.414  13.168  22.481  0.1511  0.0237 -0.1201
36018W        W78930  28.521  12.316  23.750  0.0900 -0.1428  0.3434
36019W        W78931  30.024  11.381  20.991 -0.1926  0.2272 -0.3610
36020W        W78932  31.459  13.355  22.248 -0.0165 -0.2503 -0.0928
36021W        W78933  27.979  12.814  21.850 -0.0558  0.0350 -0.1168
36022W        W78934  29.992  12.100  20.262 -0.0355 -0.0598  0.3216
36023W        W78935  31.256  12.786  22.163 -0.2642 -0.0959  0.5142
36024W        W78936  31.899  14.448  21.986 -0.0781  0.1926 -0.1957
36025W        W78937  32.524  14.638  23.521 -0.2381  0.0269 -0.0498
36026W        W78938  29.484  11.453  19.629 -0.0037 -0.0351 -0.0892
36027W        W78939  31.367  11.245  19.249 -0.1888 -0.0966  0.0961
36028W        W78940  31.188  14.253  22.091  0.3701 -0.1515  0.3391
36029W        W78941  32.214  14.575  23.175  0.0037  0.0811  0.1385
36030W        W78942  30.857  14.497  23.434 -0.1754  0.1676 -0.1308
36031W        W78943  32.124  13.415  21.550 -0.0466  0.0163  0.0781
36032W        W78944  27.494  11.475  22.068  0.1680 -0.3353  0.0991
36033W        W78945  29.320  11.083  20.511  0.0495  0.0974 -0.0591
36034W        W78946  29.960  12.527  21.575  0.6439 -0.3652  0.3185
36035W        W78947  30.944  12.925  21.811  0.0174  0.1098 -0.0207
36036W        W78948  30.134  11.467  21.573  0.1232 -0.0092  0.1965
36037W        W78949  30.188  11.608  20.183  0.0769 -0.0576  0.2689
36038W        W78950  32.162  16.073  23.411  0.3089  0.1041 -0.3274
36039W        W78951  30.984  13.365  22.620 -0.1290  0.1027  0.0145
36040W        W78952  29.717  13.616  26.605 -0.0690  0.0643  0.0390
36041W        W78953  30.601  12.646  23.148 -0.0010 -0.1426  0.1237
36042W        W78954  31.925  13.356  22.546  0.2779  0.2679 -0.0439
36043W        W78955  33.230  12.983  23.572  0.3201 -0.0814  0.1833
36044W        W78956  28.565  12.272  26.256  0.2005 -0.0611 -0.1691
36045W        W78957  31.542  13.790  25.950 -0.1047  0.2059  0.1772
36046W        W78958  29.494  10.239  27.200  0.5408  0.1855 -0.0298
36047W        W78959  32.315  14.531  25.230  0.0653  0.2161 -0.2042
36048W        W78960  33.184  14.090  26.867  0.1543  0.2356  0.0166
36049W        W78961  31.023  13.453  24.824 -0.2343  0.3271 -0.1606
36050W        W78962  32.313  12.242  24.991 -0.2491  0.1420  0.0712
36051W        W78963  30.113  13.973  27.395  0.0727  0.0936 -0.0810
36052W        W78964  29.842  10.400  24.337  0.3556  0.2274  0.3289
36053W        W78965  29.165  12.056  27.536  0.1544  0.0456 -0.0243
36054W        W78966  32.701  12.203  24.160  0.0567 -0.0682  0.1449
36055W        W78967  30.331  11.756  24.164 -0.2175  0.2027  0.1888
36056W        W78968  30.257  12.816  25.677  0.1094  0.2187 -0.0129
36057W        W78969  29.899  11.397  25.712 -0.0100  0.1729  0.0461
36058W        W78970  32.103  13.107  24.859  0.0111  0.2421 -0.0435
36059W        W78971  31.712  11.206  25.603  0.0936  0.0755  0.1106
36060W        W78972  31.452  11.890  26.634 -0.0431 -0.1846 -0.2459
36061W        W78973  30.803  12.787  24.009  0.0791 -0.0695 -0.1313
36062W        W78974  29.752  12.318  23.204 -0.1019 -0.1126 -0.1030
36063W        W78975  27.920  12.726  25.629 -0.0179  0.3864 -0.1995
36064W        W78976  30.917  12.680  26.914 -0.2645 -0.0906  0.1626
36065W        W78977  32.086  12.571  24.606 -0.6804  0.1952  0.0222
36066W        W78978  33.481  12.517  25.047 -0.2553 -0.0486 -0.3286
36067W        W78979  31.522  14.309  26.976  0.0378 -0.2044  0.0533
36068W        W78980  31.512  13.126  26.114 -0.0195  0.1403  0.2607
36069W        W78981  32.415  12.088  27.123 -0.1197  0.3302 -0.1461
36070W        W78982  28.880  13.310  25.231  0.0122 -0.1194  0.2349
36071W        W78983  29.539  13.890  25.831 -0.1482  0.1139  0.1277
36072W        W78984  30.050  14.109  24.418  0.3360  0.0122 -0.1720
36073W        W78985  33.905  14.665  24.712 -0.1109 -0.0533  0.0883
36074W        W78986  31.291  14.540  27.328  0.1011 -0.0122 -0.1961
36075W        W78987  29.856  14.178  28.526  0.1993 -0.1163 -0.0895
36076W        W78988  29.116  13.210  24.381 -0.2417  0.0864  0.5040
36077W        W78989  30.984  13.472  27.464  0.0429 -0.0496  0.1230
36078W        W78990  29.121  13.133  26.678  0.1737 -0.1651  0.4511
36079W        W78991  31.044  13.649  26.963 -0.1647 -0.0158  0.1380
36080W        W78992  32.435  13.978  26.509 -0.2449 -0.1290 -0.1236
36081W        W78993  29.634  13.402  24.450 -0.2158 -0.3852  0.0784
36082W        W78994  30.206  12.196  24.450 -0.3271  0.3788 -0.3303
36083W        W78995  30.958  12.204  27.100 -0.1367 -0.1030  0.0394
36084W        W78996  30.227  13.998  25.008 -0.0345 -0.0702  0.0261
36085W        W78997  32.194  11.531  26.393  0.3260  0.0135 -0.0398
36086W        W78998  30.438  14.352  25.346  0.1422 -0.1403 -0.1719
36087W        W78999  32.135  12.996  23.283  0.0259  0.3568 -0.2140
36088W        W79000  30.418  11.285  23.910  0.2676  0.0469  0.3583
36089W        W79001  31.281  12.523  23.944 -0.1713  0.0117 -0.0440
36090W        W79002  31.593  10.360  23.933  0.1141 -0.2965 -0.1980
36091W        W79003  31.213  14.608  25.817 -0.0140  0.0168 -0.0661
36092W        W79004  31.275  12.606  26.112 -0.1570 -0.2496  0.1106
36093W        W79005  32.220  14.205  25.674 -0.0937  0.0710  0.2988
36094W        W79006  32.982  13.341  25.412 -0.0604 -0.1072 -0.2022
36095W        W79007  32.526  12.184  25.484  0.0709 -0.1849  0.2636
36096W        W79008  30.302  12.728  27.043 -0.0930 -0.0321  0.0403
36097W        W79009  29.530  12.750  26.211 -0.1049 -0.7051  0.0263
36098W        W79010  31.852  14.682  23.622 -0.2460  0.0749 -0.1883
36099W        W79011  33.508  14.730  25.753 -0.1088 -0.1126  0.0553
36100W        W79012  31.915  14.241  25.220 -0.1149  0.3408  0.0376
36101W        W79013  29.958  12.900  25.205 -0.0019 -0.0717 -0.1211
36102W        W79014  28.293  12.448  28.452 -0.2005  0.0499  0.0730
36103W        W79015  30.420  13.406  26.841  0.0524 -0.0365 -0.0793
36104W        W79016  30.107  11.725  23.324  0.0653 -0.4808  0.3389
36105W        W79017  32.433  11.517  26.845  0.1722  0.1988 -0.2425
36106W        W79018  29.332  14.531  28.636  0.0791 -0.3025  0.2683
36107W        W79019  31.464  11.088  24.602 -0.0441  0.1539  0.1484
36108W        W79020  30.997  13.847  25.174 -0.3838  0.1493 -0.2572
36109W        W79021  32.968  13.357  26.089 -0.0282  0.0491 -0.0378
36110W        W79022  31.631  13.106  23.367 -0.0466 -0.1119  0.0827
36111W        W79023  31.962  12.196  25.776 -0.2790  0.0153  0.0380
36112W        W79024  32.034  13.193  26.373  0.0435  0.0839  0.0651
36113W        W79025  29.344  13.250  22.908  0.3645  0.2515 -0.5498
36114W        W79026  30.381  13.719  24.198 -0.4573 -0.0524 -0.0431
36115W        W79027  31.466  13.478  27.699 -0.0898 -0.1311  0.2556
36116W        W79028  32.752  14.599  24.205 -0.0450  0.2921 -0.1064
36117W        W79029  30.274  14.682  25.696  0.2653  0.0726 -0.1917
36118W        W79030  30.938  14.367  27.713  0.1240  0.1541  0.0298
36119W        W79031  31.568  14.021  27.752  0.0255 -0.0395  0.0764
36120W        W79032  30.136  14.411  23.003 -0.0358 -0.2080 -0.2605
36121W        W79033  30.296  13.069  24.832  0.0616  0.4205 -0.0327
36122W        W79034  31.122  13.756  22.940  0.3194  0.0136  0.0353
36123W        W79035  30.024  12.219  28.296 -0.1513 -0.1107  0.0410
36124W        W79036  30.626  13.975  26.654  0.1407 -0.1032  0.1367
36125W        W79037  31.296  13.016  23.752 -0.2332 -0.1394 -0.0864
36126W        W79038  30.497  11.192  27.568 -0.1348  0.1111  0.0813
36127W        W79039  31.511  10.526  24.369  0.0213 -0.1970 -0.0525
36128W        W79040  29.611  12.906  23.964  0.2435 -0.0503 -0.0756
36129W        W79041  32.302  13.589  24.841  0.1245  0.2227 -0.2162
36130W        W79042  32.773  13.348  23.041  0.2028 -0.0030  0.2042
36131W        W79043  32.347  13.423  23.307  0.2302 -0.1896 -0.2649
36132W        W79044  30.035  11.330  25.276  0.0104 -0.2028 -0.3452
36133W        W79045  29.068  11.848  25.454 -0.0653  0.3887 -0.3331
36134W        W79046  30.165  11.200  27.978  0.1983 -0.1498 -0.1656
36135W        W79047  28.366  11.917  27.406  0.0206  0.3117 -0.1250
36136W        W79048  31.992  12.012  26.303  0.1459  0.1948 -0.2218
36137W        W79049  30.751  10.882  24.843 -0.2539  0.1718 -0.0022
36138W        W79050  31.655  12.475  24.277 -0.4115 -0.1639  0.4437
36139W        W79051  31.728  12.272  23.824 -0.1457  0.0441  0.0733
36140W        W79052  29.382  12.941  24.865 -0.0536 -0.1581 -0.1516
36141W        W79053  32.962  10.979  26.303  0.1779  0.1293  0.2243
36142W        W79054  32.690  13.927  24.821 -0.2699 -0.1929 -0.0359
36143W        W79055  31.234  15.043  27.105 -0.4078  0.0509 -0.0030
36144W        W79056  32.569  14.945  26.025  0.1899 -0.0908 -0.1797
36145W        W79057  29.395  11.643  25.784  0.1515 -0.0086 -0.1678
36146W        W79058  29.522  12.658  25.312 -0.0131 -0.3277 -0.4341
36147W        W79059  31.141  14.112  26.108 -0.1831  0.0231 -0.0435
36148W        W79060  31.862  14.390  26.038 -0.0111  0.0039  0.0414
36149W        W79061  29.831  12.912  24.516 -0.0345  0.0280  0.0306
36150W        W79062  33.375  14.567  26.709 -0.3512  0.0223  0.3454
36151W        W79063  33.276  12.822  24.043 -0.1289 -0.0562 -0.1701
36152W        W79064  28.816  12.053  27.145 -0.2065  0.2489  0.0500
36153W        W79065  31.753  12.447  26.260  0.0637  0.1187  0.0345
36154W        W79066  31.815  12.743  27.146  0.0688 -0.0968  0.4126
36155W        W79067  31.982  12.419  25.330  0.3796 -0.0621  0.4891
36156W        W79068  28.888  11.194  24.216  0.1052 -0.1165 -0.0219
36157W        W79069  31.268  13.012  24.973 -0.2313  0.0299  0.1364
36158W        W79070  29.696  13.913  24.151  0.0904  0.2320  0.1902
36159W        W79071  29.735  12.415  24.429  0.2570  0.1513  0.1629
36160W        W79072  30.550  14.785  24.507 -0.2947  0.0367 -0.2658
36161W        W79073  32.121  11.117  24.747  0.0961  0.1553 -0.1725
36162W        W79074  29.030  13.201  27.157 -0.0985 -0.0412  0.1922
36163W        W79075  31.238  11.573  26.284 -0.0126  0.0701  0.2639
36164W        W79076  28.832  12.260  24.400 -0.0371 -0.1208  0.0512
36165W        W79077  30.181  13.044  27.838  0.1058  0.1879 -0.1270
36166W        W79078  32.158  10.485  23.917 -0.2049  0.2479  0.0554
36167W        W79079  32.224  11.970  23.909 -0.0162 -0.1257  0.0120
36168W        W79080  32.334  13.386  27.220 -0.1829 -0.1083 -0.1299
36169W        W79081  33.707  13.213  23.720 -0.0518 -0.0201 -0.0829
36170W        W79082  31.289  12.372  22.477  0.0009  0.1892  0.0339
36171W        W79083  30.645  12.180  23.307 -0.0243  0.2035 -0.2574
36172W        W79084  28.534  12.120  29.449 -0.3772  0.0991  0.3156
36173W        W79085  31.914  13.812  25.589  0.0050  0.4457 -0.4291
36174W        W79086  31.293  13.910  27.331 -0.3538  0.1656 -0.1373
36175W        W79087  30.080  12.581  24.062 -0.2174  0.1338  0.2286
36176W        W79088  33.323  14.474  23.815  0.1280 -0.2321  0.0063
36177W        W79089  29.322  12.811  27.778  0.1266  0.0995 -0.1169
36178W        W79090  32.074  13.486  28.562  0.0491  0.0616  0.0745
36179W        W79091  31.434  13.408  25.611 -0.1366  0.2097 -0.1288
36180W        W79092  30.022  12.395  25.328 -0.4571  0.6483 -0.3062
36181W        W79093  29.826  13.528  25.373 -0.0326 -0.0772 -0.0247
36182W        W79094  29.643  12.417  25.756  0.3575 -0.1305  0.2278
36183W        W79095  29.636  15.421  24.650 -0.0761  0.1433 -0.0134
36184W        W79096  32.866  11.848  25.853  0.0173  0.1421  0.2021
36185W        W79097  32.150  11.736  24.776  0.0217  0.0700  0.2756
36186W        W79098  30.300  12.135  25.009 -0.2443  0.3485  0.1236
36187W        W79099  33.394  11.753  27.932 -0.0828  0.0947  0.2750
36188W        W79100  32.605  14.230  23.265 -0.0727  0.0889 -0.2531
36189W        W79101  31.315  13.456  26.511 -0.0782  0.1267 -0.0725
36190W        W79102  29.936  13.394  24.008  0.0119  0.0603  0.0181
36191W        W79103  31.044  12.178  25.250 -0.1805 -0.0088  0.0588
36192W        W79104  31.518  11.819  27.134  0.0206  0.0426  0.3881
36193W        W79105  30.932  14.507  26.336 -0.4684 -0.2139 -0.3756
36194W        W79106  32.341  14.340  27.322  0.0057 -0.1226  0.1933
36195W        W79107  31.641  13.003  25.366  0.1581  0.2180  0.1169
36196W        W79108  32.014  10.683  27.968 -0.2604  0.1053  0.1899
36197W        W79109  31.273  11.140  25.228  0.0164  0.0345 -0.0199
36198W        W79110  31.287  13.888  24.694  0.1155  0.0362 -0.2153
36199W        W79111  29.093  13.052  23.877  0.0731  0.0247 -0.2066
36200W        W79112  30.613  12.377  25.444 -0.5079  0.0734  0.1060
36201W        W79113  31.636  14.076  26.453 -0.1408 -0.1104  0.0371
36202W        W79114  31.292  13.900  23.628  0.1279  0.1559 -0.1556
36203W        W79115  31.481  12.506  25.021  0.0126  0.0596  0.1546
36204W        W79116  30.678  14.897  26.066 -0.0576 -0.0384 -0.1093
36205W        W79117  32.851  10.757  25.380 -0.0258 -0.1565 -0.2045
36206W        W79118  30.827  13.422  26.572  0.0593 -0.0721 -0.1344
36207W        W79119  30.163  13.277  25.598  0.0693 -0.0676  0.3173
36208W        W79120  29.494  13.406  25.762  0.2443  0.3357 -0.0041
36209W        W79121  30.850  11.404  24.132 -0.0695  0.2333 -0.2239
36210W        W79122  33.212  12.918  25.189  0.0914 -0.1820 -0.0551
36211W        W79123  31.609  11.616  24.699 -0.3258  0.0410 -0.1898
36212W        W79124  30.956  11.688  23.357 -0.1352 -0.0969  0.1103
36213W        W79125  29.699  12.901  25.721 -0.1031 -0.3782  0.3659
36214W        W79126  31.522  11.930  25.060 -0.0085  0.0560  0.1371
36215W        W79127  32.060  11.402  21.974 -0.4146  0.2427  0.0795
36216W        W79128  31.555  12.218  25.477  0.1857 -0.1313 -0.1786
36217W        W79129  30.671  12.842  27.675  0.2358  0.0488 -0.0368
36218W        W79130  29.558  11.573  24.632  0.3098 -0.1851  0.1555
36219W        W79131  31.962  11.813  26.812  0.3184 -0.3051  0.0020
36220W        W79132  31.063  10.970  24.376  0.2335 -0.0941 -0.2958
36221W        W79133  29.371  15.091  25.691  0.2395 -0.0052  0.1493
36222W        W79134  31.563  14.200  25.640 -0.0808 -0.2097 -0.0621
36223W        W79135  29.733  12.475  24.948  0.3616 -0.2716 -0.0477
36224W        W79136  29.801  13.243  24.912 -0.1751 -0.1875  0.0635
36225W        W79137  31.327  12.434  26.614  0.2341  0.2230  0.0410
36226W        W79138  31.096  11.431  27.240  0.2595 -0.0819 -0.3053
36227W        W79139  31.111  12.648  24.708 -0.1978 -0.0287  0.1589
36228W        W79140  29.419  13.526  24.978 -0.0926 -0.1089 -0.2838
36229W        W79141  30.888  11.837  24.938 -0.2251  0.0280  0.0932
36230W        W79142  31.765  13.624  26.386 -0.0542 -0.0654  0.1606
36231W        W79143  31.372  12.824  26.999  0.1562 -0.0683  0.0248
36232W        W79144  30.697  12.101  27.581  0.2204 -0.0921  0.0692
36233W        W79145  30.826  10.651  25.301  0.1890  0.0405 -0.0283
36234W        W79146  33.537  14.272  24.492 -0.1367 -0.3014 -0.2470
36235W        W79147  32.103  12.485  27.477  0.0588 -0.3263  0.1448
36236W        W79148  30.112  12.164  23.621 -0.1978  0.2250  0.0846
36237W        W79149  27.221  13.239  25.311  0.0892 -0.3396 -0.1131
36238W        W79150  31.447  13.435  24.485 -0.1432  0.0038  0.1498
36239W        W79151  30.113  11.867  25.472 -0.0359  0.0282  0.0354
36240W        W79152  30.190  13.760  26.415  0.1278  0.1980 -0.2511
36241W        W79153  30.375  12.622  24.974 -0.1508  0.3251  0.0018
36242W        W79154  30.802  14.130  27.342  0.0004  0.2424  0.0444
36243W        W79155  31.850  11.910  23.389 -0.1371 -0.0120  0.0637
36244W        W79156  31.324  13.863  24.185 -0.1228  0.3346 -0.0815
36245W        W79157  30.257  12.101  26.375  0.4195  0.1115 -0.0358
36246W        W79158  32.391  12.208  26.618  0.0430  0.1090 -0.2287
36247W        W79159  32.789  13.724  23.403  0.0828  0.2418  0.0111
36248W        W79160  32.723  12.601  26.637 -0.1710 -0.2099 -0.1317
36249W        W79161  30.954  11.521  25.340 -0.0521 -0.1018  0.3219
36250W        W79162  33.594  13.684  26.170  0.8005  0.1803 -0.2784
36251W        W79163  29.402  12.844  27.208 -0.2093 -0.0613  0.0988
36252W        W79164  32.162  13.667  27.744 -0.1109 -0.2949  0.0903
36253W        W79165  29.556  13.261  26.277  0.0725 -0.2361  0.0610
36254W        W79166  31.202  10.184  24.623  0.0604  0.1760 -0.2361
36255W        W79167  30.831  11.890  24.092  0.1247  0.2503 -0.0661
36256W        W79168  32.097  13.925  26.074 -0.0343  0.4124  0.1556
36257W        W79169  33.222  13.845  24.578  0.1951  0.2385 -0.1028
36258W        W79170  30.472  12.575  23.634 -0.3566 -0.2194  0.0136
36259W        W79171  32.560  13.070  25.381 -0.0804  0.1631 -0.0600
36260W        W79172  29.117  11.748  26.797 -0.0026  0.2082  0.0458
36261W        W79173  31.605  13.390  25.017 -0.1940 -0.2296 -0.1702
36262W        W79174  31.461  12.969  22.564 -0.1853 -0.2974  0.2310
36263W        W79175  30.037  12.940  26.128  0.0142  0.2083 -0.1509
36264W        W79176  30.681  11.840  26.316 -0.1192 -0.3165  0.0844
36265W        W79177  32.694  13.505  25.095  0.0304  0.1172 -0.1887
36266W        W79178  31.138  11.732  24.430 -0.1731  0.3106 -0.1521
36267W        W79179  31.758  12.233  24.744 -0.1646  0.1192  0.0573
36268W        W79180  31.592  12.955  28.086  0.0632 -0.0025  0.0027
36269W        W79181  31.992  11.600  27.773  0.1594 -0.1509  0.3239
36270W        W79182  29.380  11.613  27.352  0.0643  0.0290  0.3232
36271W        W79183  31.606  15.069  26.378 -0.3040 -0.1596 -0.4779
36272W        W79184  31.795  12.533  22.684 -0.0103  0.1021 -0.0754
36273W        W79185  30.994  11.168  27.718  0.1233 -0.1688  0.0246
36274W        W79186  31.664  12.638  25.748  0.0535  0.1133  0.1778
36275W        W79187  30.554  11.835  23.632 -0.1480  0.0021 -0.0015
36276W        W79188  28.956  12.231  26.534  0.2577 -0.0638  0.0917
36277W        W79189  32.110  11.468  27.301  0.0475  0.0007 -0.2413
36278W        W79190  29.725  12.497  23.675  0.1470  0.2031 -0.1316
36279W        W79191  32.079  11.786  28.263 -0.2151  0.0727  0.1160
36280W        W79192  31.778  13.899  24.431  0.1055  0.0622 -0.2407
36281W        W79193  30.523  13.046  25.323  0.2024  0.1790 -0.2133
36282W        W79194  30.700  13.113  23.456 -0.1419 -0.0827 -0.2550
36283W        W79195  29.532  13.245  26.947 -0.3803  0.1297 -0.1265
36284W        W79196  30.932  14.824  27.466 -0.0198 -0.0154  0.0420
36285W        W79197  29.861  11.199  24.801  0.2609 -0.2241  0.2147
36286W        W79198  30.955  13.591  24.333  0.2160 -0.1361 -0.0765
36287W        W79199  31.556  12.048  26.069  0.0669 -0.0264  0.0738
36288W        W79200  32.148  12.286  28.439 -0.2966 -0.0943  0.1804
36289W        W79201  31.439  10.866  23.193  0.1557  0.1650  0.0090
36290W        W79202  31.720  13.278  26.827  0.0816 -0.3565  0.1953
36291W        W79203  30.454  14.419  24.821 -0.0147  0.0991 -0.0315
36292W        W79204  30.902  10.010  25.921 -0.1188 -0.3167 -0.0649
36293W        W79205  31.299  15.727  28.134 -0.0361  0.1581 -0.1646
36294W        W79206  28.632  13.016  26.876  0.1179 -0.0318  0.0371
36295W        W79207  30.351  13.323  26.240 -0.1360  0.2120 -0.0482
36296W        W79208  30.043  10.203  25.351 -0.2268  0.0874  0.0961
36297W        W79209  30.984  12.709  25.233  0.0189  0.0300  0.0363
36298W        W79210  30.659  11.889  25.504 -0.2561 -0.2939  0.0610
36299W        W79211  33.100  12.226  27.393 -0.2201  0.0860  0.1267
36300W        W79212  31.876  11.994  27.442  0.2526  0.1421  0.0529
36301W        W79213  30.534  13.762  25.550  0.2589  0.2811 -0.2832
36302W        W79214  31.609  12.985  27.543 -0.1529 -0.1060 -0.0529
36303W        W79215  33.816  13.193  26.144 -0.0350  0.0427 -0.0175
36304W        W79216  30.659  13.313  25.805  0.1530 -0.1688  0.1906
36305W        W79217  29.634  11.712  26.907 -0.0407 -0.0845  0.1715
36306W        W79218  31.568  11.260  27.075  0.0472  0.1410 -0.1969
36307W        W79219  31.710  12.859  24.799  0.1623  0.0848 -0.3331
36308W        W79220  29.605  11.616  25.218  0.1580 -0.1395 -0.2135
36309W        W79221  30.915  14.247  24.698  0.4860 -0.0568 -0.2957
36310W        W79222  28.415  14.116  27.240  0.0878  0.1463 -0.1858
36311W        W79223  27.925  13.288  25.651 -0.0752  0.1794  0.1399
36312W        W79224  30.894  13.362  25.403 -0.0974 -0.2793  0.0834
36313W        W79225  32.745  13.285  23.640  0.0225  0.2945  0.2153
36314W        W79226  30.535  12.694  24.478  0.0136 -0.0432  0.4151
36315W        W79227  31.987  14.182  26.981  0.2454  0.0612  0.2776
36316W        W79228  31.447  11.669  23.467 -0.2773 -0.2259  0.0248
36317W        W79229  29.782  14.051  26.279 -0.1750 -0.1096  0.0614
36318W        W79230  30.082  13.519  24.600  0.2210  0.1438 -0.0141
36319W        W79231  32.687  13.181  24.184 -0.0564 -0.3886  0.1885
36320W        W79232  31.060  14.294  25.256  0.1374 -0.0862  0.2965
36321W        W79233  32.070  13.060  28.254  0.2611  0.0753  0.0200
36322W        W79234  30.693  12.171  22.683 -0.2540 -0.2510  0.0279
36323W        W79235  32.781  12.997  24.888  0.3835  0.0501  0.0210
36324W        W79236  31.854  11.872  24.345 -0.0519  0.0914  0.1565
36325W        W79237  31.104  13.241  28.383  0.0637 -0.0079  0.1330
36326W        W79238  30.850  13.133  27.002 -0.1735 -0.3715 -0.1728
36327W        W79239  29.623   9.556  23.188  0.0251  0.1596 -0.4772
36328W        W79240  30.564  12.840  26.592 -0.0732  0.1328  0.0793
36329W        W79241  31.791  10.557  27.515 -0.1497  0.0722 -0.0113
36330W        W79242  30.742  15.030  28.393  0.4405  0.0307 -0.1497
36331W        W79243  32.229  14.249  23.665  0.2695  0.2312  0.3132
36332W        W79244  29.098  11.633  25.022  0.0868  0.3105  0.2730
36333W        W79245  29.851  12.382  26.222  0.3628  0.1313 -0.4857
36334W        W79246  32.004  10.882  26.379 -0.0958  0.0306 -0.1541
36335W        W79247  30.078  11.561  24.514 -0.0580 -0.1866 -0.1055
36336W        W79248  30.848  12.518  26.360 -0.1688  0.1025 -0.0666
36337W        W79249  31.165  14.959  26.141 -0.3744  0.1196 -0.1405
36338W        W79250  30.261  13.932  25.914  0.0884 -0.1156  0.0227
36339W        W79251  30.981  14.396  26.930 -0.1454  0.2443  0.2272
36340W        W79252  27.316  10.747  26.167 -0.1925  0.0759 -0.2275
36341W        W79253  33.156  12.388  24.246 -0.1562 -0.1233  0.1760
36342W        W79254  31.432  12.345  27.079  0.2291  0.0531  0.1332
36343W        W79255  31.147  12.955  25.635 -0.1800 -0.1415 -0.2059
36344W        W79256  30.293  11.672  26.001 -0.0097 -0.1061  0.1523
36345W        W79257  32.131  12.991  24.235  0.0530 -0.0621  0.3122
36346W        W79258  30.788  13.017  26.177  0.0170 -0.2452 -0.0158
36347W        W79259  30.018  12.058  26.837  0.5117 -0.2111  0.1624
36348W        W79260  30.473  12.268  24.023  0.0763 -0.0570  0.2128
36349W        W79261  32.180  13.046  26.810  0.1580 -0.3786 -0.2685
36350W        W79262  32.191  12.877  22.425  0.0648  0.0734  0.0115
36351W        W79263  31.256  14.411  28.943  0.2154  0.0792  0.0750
36352W        W79264  29.606  11.995  25.495  0.1641  0.0024  0.0959
36353W        W79265  32.084  10.346  23.061  0.0245 -0.2007  0.0979
36354W        W79266  30.680  12.208  25.962 -0.0610 -0.1244 -0.1058
36355W        W79267  31.113  12.098  26.298 -0.1649 -0.1188 -0.2833
36356W        W79268  32.606  13.223  27.806 -0.2846  0.0542 -0.0150
36357W        W79269  28.876  10.770  23.894 -0.0972 -0.1189 -0.0027
36358W        W79270  32.701  14.221  23.791  0.0188  0.2384 -0.0194
36359W        W79271  31.609  13.817  26.886  0.0633  0.0255  0.2358
36360W        W79272  30.718  14.775  25.082 -0.2753  0.0040 -0.2655
36361W        W79273  32.763  14.307  25.133 -0.3414  0.1318  0.1917
36362W        W79274  31.640  12.386  27.610  0.2420 -0.1968  0.0235
36363W        W79275  29.922  11.705  26.440 -0.0162  0.0027  0.0829
36364W        W79276  30.786  14.822  26.977 -0.1578  0.1136  0.1840
36365W        W79277  33.625  14.016  26.624 -0.0442 -0.0322  0.0142
36366W        W79278  30.223  12.166  23.014  0.0027 -0.2917  0.0710
36367W        W79279  28.528  12.024  26.656  0.1857  0.0254  0.1127
36368W        W79280  28.820  13.911  25.501 -0.0221  0.0263  0.0747
36369W        W79281  31.276  11.355  25.797  0.1927 -0.2252 -0.3546
36370W        W79282  32.462  11.843  27.918 -0.1380  0.0674 -0.0619
36371W        W79283  31.208  14.228  23.193 -0.0101  0.0590 -0.2439
36372W        W79284  32.419  11.666  25.563 -0.0768  0.3408 -0.5094
36373W        W79285  30.759  12.743  25.770 -0.1357 -0.0036  0.2323
36374W        W79286  29.549  13.853  27.971  0.0059  0.0621  0.0313
36375W        W79287  30.761  12.987  24.894 -0.0110  0.0945 -0.0480
36376W        W79288  30.726  13.042  28.126 -0.0021  0.3456  0.1443
36377W        W79289  30.591  13.889  24.649  0.0751 -0.1814  0.1036
36378W        W79290  31.028  14.628  24.309 -0.4373  0.0461 -0.1826
36379W        W79291  32.643  14.008  26.023 -0.1454  0.3323 -0.0635
36380W        W79292  32.683  13.560  24.486 -0.3333  0.1417  0.0324
36381W        W79293  32.128  12.867  25.516  0.0785  0.2351 -0.2230
36382W        W79294  29.128  11.959  24.650  0.1105  0.0567 -0.0931
36383W        W79295  32.008  10.672  24.298 -0.0383  0.0313  0.1787
36384W        W79296  31.642  10.495  23.419  0.2072  0.2380 -0.2779
36385W        W79297  30.596  12.499  27.294  0.0894  0.0741  0.2060
36386W        W79298  29.272  12.712  24.308  0.2017 -0.4846  0.1397
36387W        W79299  30.250  13.042  24.280  0.0673  0.1099  0.1248
36388W        W79300  30.713  13.790  26.126  0.1058  0.0135 -0.0508
36389W        W79301  30.903  10.794  26.653  0.2223 -0.0708  0.2103
36390W        W79302  30.527  12.305  26.699  0.0050 -0.1701 -0.1515
36391W        W79303  29.297  12.348  26.159 -0.1961  0.0215 -0.0278
36392W        W79304  28.516  13.138  23.703  0.2308  0.2836  0.0776
36393W        W79305  32.213  13.441  24.005 -0.2644  0.2258  0.0105
36394W        W79306  30.732  12.354  24.815  0.3713  0.1451 -0.0650
36395W        W79307  28.640  12.167  25.552  0.0604 -0.1448 -0.0811
36396W        W79308  33.384  14.154  26.000  0.0400  0.1248 -0.0335
36397W        W79309  32.242  13.793  24.343  0.1740 -0.1164  0.2284
36398W        W79310  29.522   9.746  25.124  0.3223  0.2529  0.0695
36399W        W79311  32.066  13.123  27.749 -0.0700  0.0697 -0.0684
36400W        W79312  28.640  13.587  24.301 -0.3306 -0.0635 -0.1099
36401W        W79313  30.469  11.768  29.112  0.2854  0.1499 -0.0130
36402W        W79314  32.085  11.150  26.810 -0.1722  0.1119  0.0777
36403W        W79315  29.374   9.742  23.573  0.2415  0.2327 -0.1830
36404W        W79316  31.168  13.956  26.584  0.0062 -0.0347 -0.1748
36405W        W79317  29.783  15.351  26.096 -0.4346  0.2913 -0.0387
36406W        W79318  32.007  12.829  26.000  0.3935  0.1381  0.0034
36407W        W79319  29.828  12.468  27.092  0.2558 -0.0002  0.1637
36408W        W79320  30.535  14.516  26.693 -0.0611 -0.0480 -0.2654
36409W        W79321  28.067   9.857  26.149 -0.2111  0.0094 -0.0568
36410W        W79322  31.961  13.407  24.433 -0.0156 -0.3528  0.2720
36411W        W79323  31.199  14.854  26.672 -0.0887  0.1113 -0.0229
36412W        W79324  33.769  11.629  24.314 -0.2407 -0.2231  0.0686
36413W        W79325  32.639  11.788  26.423  0.0848  0.1588 -0.2963
36414W        W79326  31.500  12.590  23.455  0.0910 -0.1118  0.1289
36415W        W79327  29.003  11.077  27.535  0.1587 -0.3012 -0.0047
36416W        W79328  29.712  12.451  27.576 -0.0151  0.0448  0.1137
36417W        W79329  31.841  13.408  27.350  0.0908  0.0166 -0.0014
36418W        W79330  28.537  11.304  26.133  0.1331 -0.0260 -0.1118
36419W        W79331  31.380   9.643  23.025  0.1599 -0.2753 -0.1493
36420W        W79332  32.049  13.421  25.911 -0.1188 -0.2717 -0.1288
36421W        W79333  29.549  12.799  26.714  0.1592  0.0960 -0.4368
36422W        W79334  30.524  11.722  23.036  0.3646  0.4464  0.0634
36423W        W79335  30.519  11.365  24.633  0.1524  0.2291 -0.0932
36424W        W79336  31.095  13.451  26.084  0.0721 -0.0696 -0.2602
36425W        W79337  31.181  11.921  27.483 -0.0652 -0.0703  0.0708
36426W        W79338  31.762  12.910  23.799  0.0400 -0.0178  0.1363
36427W        W79339  33.588  12.524  24.482  0.0184 -0.4057 -0.3073
36428W        W79340  31.568  14.927  27.484 -0.0027 -0.2481 -0.3239
36429W        W79341  33.063  14.700  27.538 -0.0139  0.0980  0.3536
36430W        W79342  31.645  14.832  25.920  0.0610  0.0763  0.1933
36431W        W79343  32.306  12.420  26.061  0.0361  0.0860  0.2066
36432W        W79344  30.408  10.947  26.789  0.0441  0.1363 -0.1393
36433W        W79345  29.626  11.110  25.253 -0.0376  0.3919 -0.1445
36434W        W79346  30.883  12.244  23.761 -0.0037 -0.3219  0.1823
36435W        W79347  32.782  12.490  25.111 -0.0745  0.5274  0.1894
36436W        W79348  30.908  12.346  24.284 -0.1142 -0.1342 -0.1216
36437W        W79349  30.827  10.994  23.786 -0.1028 -0.1866  0.1665
36438W        W79350  31.992  13.919  27.361  0.0580  0.3294  0.0636
36439W        W79351  31.671  12.829  26.591 -0.0737  0.2209 -0.0960
36440W        W79352  31.131  13.658  30.966  0.1398  0.0159  0.0642
36441W        W79353  31.200  11.622  27.970  0.0456  0.0874 -0.1616
36442W        W79354  30.652  11.695  27.864  0.3227  0.0809 -0.1712
36443W        W79355  32.953  12.020  27.821  0.0544  0.3440  0.0543
36444W        W79356  29.054  10.755  28.705  0.2316  0.2115 -0.2064
36445W        W79357  32.487  13.403  28.275  0.1874 -0.0106 -0.0162
36446W        W79358  30.814  11.702  29.780 -0.1566  0.3294  0.2867
36447W        W79359  31.225  13.005  29.567 -0.1824  0.0180  0.1493
36448W        W79360  33.054  14.849  29.630  0.0260  0.0089  0.0037
36449W        W79361  30.621  12.386  27.989 -0.5513  0.3804 -0.0779
36450W        W79362  29.999  11.734  30.245 -0.0679  0.1375 -0.1467
36451W        W79363  31.368  14.084  30.838 -0.0632 -0.0935 -0.0192
36452W        W79364  30.179  12.157  27.294 -0.1209 -0.1751 -0.1712
36453W        W79365  29.656  11.928  28.534  0.1461  0.2766  0.0111
36454W        W79366  32.206  12.211  29.807  0.1720 -0.0069 -0.2975
36455W        W79367  28.465  12.679  28.863 -0.1439 -0.2419 -0.1299
36456W        W79368  29.559  11.280  29.952  0.1086  0.2868  0.4777
36457W        W79369  31.199  11.886  28.816  0.0146  0.0287 -0.1242
36458W        W79370  30.766  14.908  29.581  0.1233  0.0497 -0.1065
36459W        W79371  30.196  11.166  31.043 -0.1273  0.0448 -0.0589
36460W        W79372  31.121  12.729  30.001 -0.0186  0.2396  0.2031
36461W        W79373  31.173  12.302  28.430 -0.0594  0.0419 -0.3737
36462W        W79374  28.959  12.624  27.375  0.1645  0.2252 -0.0493
36463W        W79375  29.724  12.287  29.979  0.2822 -0.2425 -0.1396
36464W        W79376  30.629  12.450  29.997 -0.2615  0.0037 -0.1849
36465W        W79377  32.017  10.431  28.449 -0.0310  0.2043 -0.0910
36466W        W79378  31.980  12.674  29.742  0.1923 -0.3021 -0.0640
36467W        W79379  31.851  13.506  29.384 -0.0982  0.1652 -0.0358
36468W        W79380  31.620  12.757  28.957  0.0412 -0.0751 -0.0816
36469W        W79381  33.280  12.543   0.009 -0.0515  0.2615 -0.1082
36470W        W79382  29.172  13.722  28.956  0.0242  0.1595  0.0357
36471W        W79383  29.048  14.231  29.824  0.1603 -0.0992 -0.1852
36472W        W79384  29.658  13.446  29.019 -0.4163  0.1094  0.0856
36473W        W79385  32.524  12.373  29.048  0.0701 -0.1142 -0.2225
36474W        W79386  32.065  12.909  30.221 -0.1280  0.0523 -0.0181
36475W        W79387  31.731  13.065  30.525  0.1754  0.1693 -0.0635
36476W        W79388  29.936  13.064  27.361  0.2026 -0.2286 -0.0711
36477W        W79389  30.337  12.864  30.065 -0.1314  0.0005  0.0505
36478W        W79390  29.471  14.388  31.186  0.0278  0.0467  0.1211
36479W        W79391  30.463  11.439  30.058  0.0479 -0.0232 -0.0449
36480W        W79392  31.749  11.335  28.579 -0.0889  0.0309  0.0652
36481W        W79393  30.173  13.456  28.842 -0.1264  0.0085  0.2663
36482W        W79394  30.865  13.353  29.710 -0.0556 -0.2448 -0.3240
36483W        W79395  29.874  14.230  31.921 -0.2923  0.0680 -0.2415
36484W        W79396  29.269  12.915  28.267 -0.1301 -0.2128  0.1167
36485W        W79397  33.246  12.045  31.967 -0.2157  0.0847  0.1261
36486W        W79398  31.161  13.683  28.769  0.1770  0.1391  0.0370
36487W        W79399  33.275  11.714  27.381 -0.1148  0.0212 -0.1819
36488W        W79400  29.447  12.259  26.646 -0.0225 -0.1243  0.0226
36489W        W79401  32.844  10.786  27.330 -0.0344  0.1391  0.2185
36490W        W79402  30.189   9.414  29.095 -0.0943  0.1005 -0.1442
36491W        W79403  32.084  14.451  30.351 -0.1495  0.0800  0.3909
36492W        W79404  31.737  12.990  29.446  0.2524 -0.1163 -0.3275
36493W        W79405  34.224  13.203  29.994 -0.1045 -0.0316 -0.0720
36494W        W79406  30.971  11.727  29.238  0.2916 -0.3044 -0.0671
36495W        W79407  32.262  11.805  30.346  0.0708  0.2663 -0.2310
36496W        W79408  29.611  13.656  30.521 -0.1852 -0.1725  0.1386
36497W        W79409  30.267  12.680  28.162 -0.1266 -0.1241  0.1503
36498W        W79410  33.353  12.773  28.006 -0.2701 -0.0136 -0.2994
36499W        W79411  32.415  14.665  29.852  0.2883  0.2284 -0.0674
36500W        W79412  30.888  13.968  28.432 -0.0481  0.1179 -0.1893
36501W        W79413  29.991  11.833  29.234 -0.1542 -0.1053  0.0477
36502W        W79414  29.211  12.445  30.692 -0.0879  0.0846  0.1591
36503W        W79415  30.323  12.044  29.983  0.1566  0.1719  0.5499
36504W        W79416  30.758  11.276  26.512  0.3240  0.2166 -0.0171
36505W        W79417  31.601  13.690  31.186 -0.0641  0.5803  0.1789
36506W        W79418  28.769  14.179  30.587 -0.0748 -0.0754 -0.0623
36507W        W79419  32.643  11.658  27.372  0.0821 -0.0837 -0.2709
36508W        W79420  29.921  13.021  31.627  0.3031 -0.0587  0.2041
36509W        W79421  33.149  13.715  30.644  0.0081  0.0756  0.0595
36510W        W79422  32.895  13.636  27.694 -0.0728 -0.1025  0.1586
36511W        W79423  32.105  12.735  29.234 -0.2478 -0.1499  0.2370
36512W        W79424  32.372  10.926  28.811 -0.1441  0.0204 -0.0840
36513W        W79425  31.083  12.695  28.071  0.1834  0.0363 -0.0905
36514W        W79426  29.287  12.212  27.111  0.1596 -0.0783  0.1031
36515W        W79427  33.521  12.909  29.907 -0.1056 -0.1579 -0.0103
36516W        W79428  33.756  11.968  27.513  0.3642 -0.2470  0.3315
36517W        W79429  30.563  14.312  29.399 -0.3440 -0.0498  0.1377
36518W        W79430  31.494  11.828  29.778  0.4341  0.0318  0.0394
36519W        W79431  30.334  14.121  31.674 -0.2391 -0.1501 -0.3019
36520W        W79432  30.023  13.546  27.636  0.1037  0.2357  0.1371
36521W        W79433  29.176  13.295  28.692  0.2215  0.2485 -0.1593
36522W        W79434  30.130  13.138  28.415  0.0948 -0.2301 -0.2685
36523W        W79435  28.833  11.776  29.804  0.0383  0.1062  0.1649
36524W        W79436  30.763  12.155  28.988  0.1342 -0.0290 -0.0850
36525W        W79437  32.348  10.299  28.082  0.2052 -0.1464  0.0434
36526W        W79438  28.673  11.621  30.989  0.0348  0.0665  0.2300
36527W        W79439  33.424  11.202  28.672  0.1470 -0.0395  0.0833
36528W        W79440  29.664  12.859  29.002 -0.1540  0.1516  0.3085
36529W        W79441  33.647  13.973  29.099 -0.0711  0.2153  0.0264
36530W        W79442  33.666  12.415  29.076 -0.1931 -0.0848  0.1811
36531W        W79443  31.637  13.251  28.547 -0.1740 -0.0720 -0.2196
36532W        W79444  29.779  12.375  31.371  0.3194  0.2920 -0.0065
36533W        W79445  30.669  12.633  29.090 -0.3314 -0.3331 -0.0295
36534W        W79446  31.569  11.590  31.300  0.1431  0.0634  0.2569
36535W        W79447  28.699  11.675  28.855 -0.1107  0.3438 -0.0539
36536W        W79448  32.124  11.351  30.432 -0.3685 -0.3648  0.1804
36537W        W79449  28.872  10.154  27.456  0.0433 -0.0897  0.0595
36538W        W79450  32.755  11.095  28.116  0.2840  0.2384 -0.4430
36539W        W79451  31.605  11.959  27.908 -0.1613  0.1680 -0.2010
36540W        W79452  30.393  13.871  28.671 -0.2566  0.1995  0.2761
36541W        W79453  33.075  11.717  30.822  0.0450 -0.0394 -0.1664
36542W        W79454  31.481  15.687  29.451 -0.1695 -0.1042  0.0743
36543W        W79455  33.724  14.001  30.011 -0.2736 -0.0164 -0.2171
36544W        W79456  31.464  15.362  28.963  0.1191  0.0277  0.0245
36545W        W79457  30.340  11.407  30.594 -0.0415  0.0137  0.0128
36546W        W79458  29.986  11.006  27.213  0.1634  0.0030  0.2314
36547W        W79459  30.395  14.373  28.929 -0.2829 -0.4105 -0.2759
36548W        W79460  30.362  12.626  29.542  0.0725  0.0871  0.2964
36549W        W79461  31.274  11.379  28.519  0.0547  0.0917  0.1070
36550W        W79462  31.752  15.255  30.171  0.2147 -0.3049  0.1066
36551W        W79463  31.113  14.371  28.208 -0.0703  0.0533  0.1077
36552W        W79464  30.529  14.895  30.023  0.0649 -0.0346 -0.0537
36553W        W79465  32.771  12.638  30.823 -0.1882  0.0593 -0.0815
36554W        W79466  31.700  11.696  30.389  0.0177 -0.1543  0.0294
36555W        W79467  31.539  12.195  28.736 -0.0165 -0.1559 -0.0516
36556W        W79468  30.385  10.501  27.017  0.2185  0.1949  0.0953
36557W        W79469  31.574  14.376  30.406  0.2395 -0.0457 -0.1454
36558W        W79470  30.142  12.857  29.118 -0.0945 -0.3159 -0.1534
36559W        W79471  29.795  12.524  29.324 -0.0721 -0.2067 -0.0844
36560W        W79472  29.891  12.823  29.834 -0.3373 -0.2394  0.6816
36561W        W79473  32.027  11.128  29.945  0.0892  0.2162 -0.0324
36562W        W79474  28.505  13.939   0.623 -0.0018 -0.0275  0.2977
36563W        W79475  31.839  12.097  30.112 -0.2743  0.0473  0.0723
36564W        W79476  30.136  11.659  28.777 -0.2185  0.0030 -0.0689
36565W        W79477  28.965  14.524  30.305 -0.0959 -0.1206  0.2959
36566W        W79478  30.635  10.786  29.414 -0.0420  0.1829 -0.1209
36567W        W79479  31.972  11.099  27.586  0.0061 -0.1000 -0.1543
36568W        W79480  30.821  12.957  30.354  0.4674 -0.1506 -0.1213
36569W        W79481  32.908  13.189  30.682  0.0231 -0.0408  0.1335
36570W        W79482  31.668  11.320  26.090 -0.2679  0.2474 -0.2766
36571W        W79483  31.229  11.238  26.666 -0.0090  0.1638 -0.3618
36572W        W79484  27.662  13.838   0.354 -0.0321  0.3461 -0.1623
36573W        W79485  32.350  12.754  28.523 -0.3839 -0.2024 -0.0409
36574W        W79486  30.333  14.480  29.823  0.1016 -0.1836 -0.1210
36575W        W79487  30.603  11.476  28.766  0.0918 -0.1046 -0.0078
36576W        W79488  32.745  14.929  29.266  0.0804 -0.0373 -0.1133
36577W        W79489  29.542  13.743  30.046  0.1472  0.4524 -0.2313
36578W        W79490  30.933  12.656   0.128  0.0246 -0.0866 -0.0546
36579W        W79491  31.281  12.761  30.534  0.0507  0.1991  0.0420
36580W        W79492  30.513  11.012  29.832 -0.0931 -0.1997 -0.1927
36581W        W79493  30.317  11.785  28.182  0.0319  0.0795 -0.3071
36582W        W79494  30.767  10.965  28.542 -0.0120 -0.4275  0.1859
36583W        W79495  28.675  13.559  27.633  0.3819  0.0328  0.0384
36584W        W79496  33.314  11.651  30.393  0.1847  0.1907 -0.1481
36585W        W79497  32.424  10.202  31.026 -0.1092  0.1527  0.1339
36586W        W79498  32.086   9.974  30.380 -0.1548 -0.3353  0.5991
36587W        W79499  30.884  12.139  31.089 -0.0530  0.3035  0.2497
36588W        W79500  33.363  11.402  27.025  0.0488  0.0208  0.1839
36589W        W79501  32.069  12.262  28.903 -0.0574 -0.1724  0.3509
36590W        W79502  31.195  12.967  26.489  0.2405 -0.0059 -0.1338
36591W        W79503  31.157  10.596  30.215 -0.2577  0.0727  0.3276
36592W        W79504  29.447  12.516  29.639  0.0556  0.0169 -0.1190
36593W        W79505  30.548  14.931  31.059  0.3689 -0.2049  0.2022
36594W        W79506  31.993  13.002  31.821  0.1776 -0.0105  0.0387
36595W        W79507  31.658  13.620  28.898 -0.0809  0.0877 -0.1140
36596W        W79508  30.722  10.470  30.508  0.1127 -0.0069  0.2523
36597W        W79509  29.641  11.050  28.419 -0.3796  0.0207  0.0022
36598W        W79510  29.788  14.349  27.628 -0.1006  0.2338 -0.2078
36599W        W79511  30.561  14.074  28.059  0.0228 -0.0327  0.0450
36600W        W79512  31.254  10.302  28.424 -0.1101 -0.2404 -0.4049
36601W        W79513  31.926  13.182  29.012 -0.1768 -0.2858 -0.1500
36602W        W79514  30.705  14.612  28.075 -0.0474  0.0816 -0.1327
36603W        W79515  30.707  12.896  29.770  0.0321 -0.2111  0.1826
36604W        W79516  30.341  13.299  29.809  0.0408 -0.2870  0.0296
36605W        W79517  32.403  10.735  29.970  0.2070 -0.2306 -0.2559
36606W        W79518  29.145  14.796  28.163  0.0087  0.1319  0.1179
36607W        W79519  30.192  12.185  27.801  0.0084 -0.1196 -0.0827
36608W        W79520  29.416  11.010  28.873  0.1203 -0.1221 -0.2358
36609W        W79521  32.139  10.853  29.311  0.0294  0.2983  0.2298
36610W        W79522  33.194  12.535  28.817 -0.1148 -0.1183  0.0943
36611W        W79523  30.160  10.765  30.133 -0.3103 -0.2923  0.0199
36612W        W79524  31.218  11.057  30.255 -0.2378  0.0938 -0.0208
36613W        W79525  29.200  13.347  30.346  0.0457 -0.2539 -0.0183
36614W        W79526  31.947  12.191  30.633  0.0282  0.3509 -0.4346
36615W        W79527  32.446  10.775  27.728  0.0100 -0.0590 -0.1480
36616W        W79528  31.234  12.310  30.742 -0.0142 -0.0286 -0.2326
36617W        W79529  30.747  13.316  30.679  0.0922 -0.2417 -0.1111
36618W        W79530  29.744  10.612  28.785  0.1965  0.0916 -0.5694
36619W        W79531  32.474  12.547  29.567 -0.3513  0.0007  0.0950
36620W        W79532  31.759  11.310  29.486 -0.0956 -0.1551  0.1036
36621W        W79533  28.861  15.571  27.426 -0.0400  0.0634 -0.3328
36622W        W79534  30.826  13.434  29.004 -0.1109  0.0410 -0.1211
36623W        W79535  31.533  12.435  29.864  0.0610 -0.1520 -0.1761
36624W        W79536  30.940  12.970  28.843  0.2110  0.0823  0.3337
36625W        W79537  29.705  12.018  30.976 -0.0448  0.3650 -0.1687
36626W        W79538  32.437  12.966  29.864 -0.3674 -0.4067 -0.7486
36627W        W79539  31.096  12.122  29.876  0.1311 -0.0710 -0.2896
36628W        W79540  30.332  11.240  28.449  0.3502 -0.1168 -0.2452
36629W        W79541  30.442  12.003  28.632  0.1364 -0.0187  0.0477
36630W        W79542  32.028  11.674  29.825 -0.2047 -0.0652 -0.0336
36631W        W79543  31.637  12.600  30.845 -0.2263  0.0402  0.1286
36632W        W79544  29.621  12.238  31.964 -0.0399 -0.0458 -0.0992
36633W        W79545  30.509  11.019  31.484 -0.2907 -0.0519 -0.0051
36634W        W79546  32.622  15.687  29.736 -0.1223 -0.0290  0.0189
36635W        W79547  32.231  11.141  30.918  0.1942 -0.0573 -0.1720
36636W        W79548  29.038  12.528  28.066  0.4189  0.1349 -0.1740
36637W        W79549  28.840  13.178  29.557  0.1673  0.3470  0.1077
36638W        W79550  31.363  13.200  29.028  0.0907  0.3102 -0.2184
36639W        W79551  30.821  11.365  30.396 -0.0346  0.1808 -0.2917
36640W        W79552  29.296  13.937  29.481  0.0261  0.2850  0.1776
36641W        W79553  30.865  13.515  28.050 -0.2154  0.0697 -0.0011
36642W        W79554  30.007  14.628  30.181  0.0592 -0.2217 -0.3454
36643W        W79555  33.273   8.780  27.071  0.0968  0.1591 -0.0799
36644W        W79556  32.623  13.860  29.259 -0.1600  0.0704  0.2030
36645W        W79557  31.027  10.622  29.734  0.2289  0.2744 -0.2470
36646W        W79558  32.456  10.370  30.540  0.1512  0.1883  0.1612
36647W        W79559  31.582  12.404  28.198  0.0318  0.2427 -0.1995
36648W        W79560  32.062  11.425   0.205  0.2478  0.2630  0.3590
36649W        W79561  32.461   9.485  28.735  0.2950 -0.1436 -0.1464
36650W        W79562  32.157  13.700  30.029 -0.0244 -0.1098 -0.1214
36651W        W79563  29.260  12.896  30.522 -0.0931  0.0126 -0.0663
36652W        W79564  29.487  14.179   0.243  0.0812 -0.0338 -0.0339
36653W        W79565  30.438  12.537  30.993  0.0471 -0.2944 -0.2743
36654W        W79566  31.530  10.575  29.324 -0.2501  0.1982 -0.3815
36655W        W79567  29.247  11.054  28.112  0.0424  0.3230  0.1816
36656W        W79568  30.873  13.860  29.960 -0.3431  0.1078  0.1372
36657W        W79569  32.289  13.576  30.493  0.0351 -0.0711  0.2909
36658W        W79570  31.072  13.915  27.888  0.3272  0.0507  0.3356
36659W        W79571  32.010  11.305  28.963 -0.1331  0.0268  0.1595
36660W        W79572  30.574  11.865  30.387 -0.0037  0.2226  0.0408
36661W        W79573  31.103  10.869  29.294 -0.0267  0.0619 -0.2020
36662W        W79574  32.545  12.210  27.604  0.0988 -0.0452 -0.0764
36663W        W79575  31.055  12.500  29.480  0.2659 -0.0704 -0.0853
36664W        W79576  30.101  11.871  30.711 -0.4097 -0.0708 -0.1428
36665W        W79577  31.414  12.126  30.325  0.3420  0.3765 -0.3738
36666W        W79578  32.876  11.280  28.662  0.0644 -0.2340 -0.1763
36667W        W79579  32.879  10.933  29.993 -0.3224 -0.0463 -0.3131
36668W        W79580  30.984  11.206  29.854 -0.3198 -0.2488 -0.1886
36669W        W79581  30.023  11.317  31.576  0.1953  0.1962  0.1968
36670W        W79582  29.312  11.750  31.066 -0.0122 -0.1475 -0.3297
36671W        W79583  32.429  14.101  31.469  0.3609  0.2613 -0.0106
36672W        W79584  33.470  12.296  27.794  0.0037  0.1745  0.0716
36673W        W79585  31.845  11.442  30.821 -0.2064  0.0476 -0.3844
36674W        W79586  32.276  11.409  29.450  0.2206 -0.0544 -0.2153
36675W        W79587  31.083  12.156  27.928  0.0135 -0.0467 -0.0106
36676W        W79588  31.039  11.284  28.974 -0.1401  0.1583  0.3902
36677W        W79589  32.498  12.406  31.783 -0.1764  0.2459 -0.0368
36678W        W79590  31.567  11.558  27.573  0.0159  0.0521 -0.2260
36679W        W79591  31.043   9.740  29.356  0.0288 -0.0001 -0.0945
36680W        W79592  30.363  14.363  28.462  0.0114 -0.4430  0.1598
36681W        W79593  32.870  12.145  29.399  0.1565 -0.3685  0.0457
36682W        W79594  31.800  13.436  28.078  0.2056 -0.4264 -0.3126
36683W        W79595  28.720  11.483  29.365  0.1846 -0.4864 -0.0887
36684W        W79596  31.390  15.618  29.941 -0.0970  0.2117 -0.3014
36685W        W79597  29.252  11.971  28.180 -0.3567 -0.0702  0.3674
36686W        W79598  31.888  12.676  28.547 -0.0516 -0.0635  0.0462
36687W        W79599  31.874  12.309  29.386  0.2103 -0.1405 -0.0218
36688W        W79600  32.633  12.592  31.339 -0.2847 -0.2398 -0.0602
36689W        W79601  30.985  10.694  27.899 -0.1662 -0.3308 -0.2199
36690W        W79602  32.520  11.658  31.342 -0.0920  0.0514 -0.2635
36691W        W79603  29.253  13.586  28.269 -0.0198  0.1707 -0.4007
36692W        W79604  30.071  10.833  30.699 -0.3011  0.1060  0.2665
36693W        W79605  28.879  14.262  29.313 -0.0277  0.1105 -0.0095
36694W        W79606  28.323  13.055  30.968  0.4307  0.1033  0.2638
36695W        W79607  30.097  13.446  29.398  0.0292  0.1513  0.2756
36696W        W79608  33.490  10.893  29.339  0.2314  0.2219  0.1935
36697W        W79609  31.203  10.475  28.933  0.1192  0.1218  0.1990
36698W        W79610  30.259  12.493  28.681 -0.1356 -0.0901 -0.0951
36699W        W79611  33.107  11.846  31.295  0.3069  0.0728  0.1710
36700W        W79612  30.196  14.702  30.781  0.1634 -0.0373 -0.1235
36701W        W79613  29.630  13.183  30.112  0.4145 -0.1337 -0.3470
36702W        W79614  30.756  12.435  31.428 -0.0431 -0.0777 -0.1605
36703W        W79615  31.342  12.774  28.504 -0.2098 -0.1267 -0.2664
36704W        W79616  29.541  14.730  29.071  0.2682  0.2354 -0.2409
36705W        W79617  29.885  12.811  30.396 -0.0474 -0.1745 -0.0856
36706W        W79618  30.539  12.396  31.916 -0.1674  0.1481 -0.3058
36707W        W79619  31.275  11.437  29.494  0.1394 -0.0841 -0.0429
36708W        W79620  29.911  11.519  28.317 -0.1634 -0.1592 -0.2868
36709W        W79621  31.329  13.536  29.353 -0.2831  0.1599  0.1692
36710W        W79622  28.275  13.820   0.155 -0.0440 -0.1480 -0.1011
36711W        W79623  30.830  13.155   0.289 -0.3809  0.3349  0.0517
36712W        W79624  28.834  13.820  28.467 -0.0086 -0.3952  0.0504
36713W        W79625  32.211  14.045  28.607  0.1252  0.0134 -0.4748
36714W        W79626  32.388  14.686  28.850 -0.1239  0.1970 -0.0826
36715W        W79627  31.332  14.498   0.330 -0.1104 -0.1196 -0.0429
36716W        W79628  30.574  11.836  27.142  0.3501 -0.2235 -0.0329
36717W        W79629  28.828  12.446  29.153 -0.1028  0.2406 -0.1866
36718W        W79630  30.057  14.201  29.419 -0.1746 -0.0303 -0.1070
36719W        W79631  31.516  13.427  29.791  0.1903  0.0421 -0.1086
36720W        W79632  29.621  13.997  26.955 -0.0624 -0.1375  0.1263
36721W        W79633  32.762  14.853  31.083 -0.2849 -0.3742 -0.2247
36722W        W79634  32.197  10.620  25.999 -0.1970 -0.2808 -0.1873
36723W        W79635  33.530  12.522  28.419  0.1235 -0.1333  0.0200
36724W        W79636  33.180  11.148  29.617 -0.2773  0.1488 -0.1175
36725W        W79637  32.033  12.876  31.104  0.3343 -0.0875  0.1714
36726W        W79638  30.525  12.232  30.657  0.0296  0.1104 -0.1287
36727W        W79639  31.500  10.635  27.961  0.2879 -0.1941 -0.1378
36728W        W79640  30.414  13.917  29.703  0.0113 -0.0507  0.2153
36729W        W79641  32.626  10.919  30.437 -0.0987  0.2945  0.3204
36730W        W79642  29.013  13.707  30.658 -0.3637  0.2027  0.1156
36731W        W79643  32.126  14.891  28.509  0.0590  0.1339  0.0624
36732W        W79644  31.595  11.652  28.941  0.2638 -0.0165  0.1120
36733W        W79645  30.155  12.630  27.597  0.1930  0.0478  0.0361
36734W        W79646  32.837  10.076  30.637 -0.1260 -0.0990 -0.3147
36735W        W79647  31.118  13.092  27.795  0.1305 -0.0916 -0.0220
36736W        W79648  31.731  12.570  30.319 -0.1254  0.3205  0.0022
36737W        W79649  31.414  13.995  29.173  0.1381  0.3723  0.0755
36738W        W79650  29.542  14.529  30.050  0.2096  0.1886  0.3175
36739W        W79651  31.741  14.852  30.492 -0.0145 -0.1209  0.4252
36740W        W79652  28.471  10.835  28.831  0.2985 -0.3132  0.0229
36741W        W79653  33.177  11.464  29.191  0.1623  0.1942 -0.0275
36742W        W79654  30.164  12.416  30.247  0.1173 -0.2178 -0.2036
36743W        W79655  32.538  11.530  30.841 -0.1350 -0.0377 -0.0464
36744W        W79656  29.859  12.212  28.882  0.1499 -0.1845 -0.0720
36745W        W79657  32.733  12.475  27.210  0.0004 -0.0003  0.1498
36746W        W79658  31.377  12.087  29.269  0.1674 -0.5235 -0.2644
36747W        W79659  29.133  12.300  30.242 -0.4236 -0.1471 -0.1215
36748W        W79660  31.410  13.688  28.259  0.1704 -0.0581  0.1146
36749W        W79661  32.070  12.673  30.661 -0.0440 -0.1625  0.1917
36750W        W79662  31.477  11.833  28.392 -0.2287  0.0092  0.1597
36751W        W79663  33.198  13.120  31.603 -0.0463  0.0288  0.2920
36752W        W79664  30.800  11.372  28.232  0.0200 -0.2196  0.1699
36753W        W79665  30.157  11.316  29.172 -0.2124  0.1025  0.1868
36754W        W79666  29.581  12.431  28.141 -0.1093  0.0035  0.2567
36755W        W79667  29.958  12.393  30.779  0.2297  0.0848  0.2444
36756W        W79668  31.828  13.439  30.274  0.1153 -0.1795 -0.1862
36757W        W79669  29.849  11.802  29.757 -0.0408  0.2167  0.0666
36758W        W79670  33.041  13.916  28.903 -0.0436  0.1908 -0.2514
36759W        W79671  32.275  13.181  29.327 -0.2178  0.0274  0.0406
36760W        W79672  29.295  14.172  27.676  0.3161 -0.0252 -0.0395
36761W        W79673  32.030  11.756  28.759  0.1362 -0.0524  0.1281
36762W        W79674  32.215  13.663  29.031  0.4886  0.0787 -0.2235
36763W        W79675  29.820   9.927  29.718  0.0231 -0.1988 -0.1548
36764W        W79676  32.067  15.088  29.753 -0.3184 -0.1822  0.0471
36765W        W79677  34.129  13.625  30.242  0.1414  0.1513 -0.0727
36766W        W79678  32.421  10.786  28.277 -0.2675 -0.2238  0.2356
36767W        W79679  29.759  12.914  28.092  0.1629 -0.2001  0.0052
36768W        W79680  29.153  14.168  28.249 -0.1323 -0.2322 -0.2937
36769W        W79681  34.090  11.315  30.408 -0.0732 -0.0061  0.1822
36770W        W79682  32.719  12.004  31.024  0.2828 -0.1141 -0.3824
36771W        W79683  30.838  14.122  28.971 -0.1472  0.1774 -0.2246
36772W        W79684  32.276  11.402  31.767  0.1303 -0.1547 -0.1591
36773W        W79685  29.672  13.267  29.615  0.1495 -0.2637  0.1757
36774W        W79686  29.725  14.735  30.957  0.0221 -0.2565  0.0222
36775W        W79687  31.090  12.449  27.521  0.1066  0.1091 -0.0186
36776W        W79688  30.933  12.284  30.350  0.1708 -0.0050 -0.2872
36777W        W79689  31.187  12.475  28.920  0.2419  0.1152  0.1570
36778W        W79690  31.815  15.279  29.384 -0.1629 -0.0352  0.4372
36779W        W79691  31.949  13.962  30.407 -0.2715 -0.2756 -0.3940
36780W        W79692  30.539  10.975  28.955  0.2307 -0.1535 -0.0692
36781W        W79693  32.629  12.174  30.557 -0.4815  0.1199  0.1637
36782W        W79694  30.645  10.241  29.518 -0.0636 -0.5243 -0.3902
36783W        W79695  32.455  11.362  27.763 -0.1102 -0.1476 -0.1064
36784W        W79696  32.046  12.194  27.910 -0.2099 -0.2237  0.0221
36785W        W79697  30.718  13.955  31.109 -0.1964 -0.3755  0.3277
36786W        W79698  30.083  12.571  26.639 -0.3224  0.0425  0.2568
36787W        W79699  30.585  13.409  28.564 -0.5307  0.0437 -0.0761
36788W        W79700  28.863  13.602  29.346 -0.2408  0.1761  0.3606
36789W        W79701  29.234  11.414  31.967  0.2210  0.0982  0.1176
36790W        W79702  30.039  11.751  31.831 -0.0891 -0.1756  0.0185
36791W        W79703  30.075  12.198  29.570  0.0521 -0.1373 -0.1408
36792W        W79704  30.172  11.702  27.602  0.3234  0.1266  0.1910
36793W        W79705  31.555  14.075  28.705  0.0461  0.1182 -0.3661
36794W        W79706  29.759  10.747  29.711  0.1661  0.1038 -0.0500
36795W        W79707  29.333  10.323  28.733 -0.0020  0.0072 -0.3852
36796W        W79708  33.178  14.220  28.346 -0.1926 -0.1238  0.1545
36797W        W79709  32.017  13.980  28.133  0.0831 -0.1781  0.1430
36798W        W79710  29.765  10.233  28.356 -0.1189  0.3266 -0.1450
36799W        W79711  33.216  15.229  31.271  0.0140  0.1328 -0.0439
36800W        W79712  29.831  13.671  28.410 -0.0162  0.1422  0.5912
36801W        W79713  31.542  11.378  29.960 -0.1191 -0.1892  0.3123
36802W        W79714  30.915  10.430   0.042  0.1064 -0.0598  0.0358
36803W        W79715  30.078  11.595  27.114  0.2167  0.0197  0.2652
36804W        W79716  30.035  11.190  29.632  0.1956 -0.0369 -0.1806
36805W        W79717  32.454  15.296  28.808  0.3443 -0.1193  0.0207
36806W        W79718  32.467  14.359  26.780 -0.2856 -0.1379  0.2054
36807W        W79719  30.799  14.360  29.835  0.2126 -0.1131 -0.0378
36808W        W79720  31.289  13.115  31.849 -0.1434 -0.2147  0.0660
36809W        W79721  29.723  10.858  30.285  0.0713 -0.0406 -0.0807
36810W        W79722  32.630  13.670  28.726 -0.0101 -0.2393  0.2937
36811W        W79723  29.072  14.114  31.550  0.4466  0.2482  0.0616
36812W        W79724  33.042  13.700  28.290 -0.3133 -0.0295  0.1649
36813W        W79725  33.461  11.698  28.857 -0.1880  0.0843  0.0577
36814W        W79726  30.772  12.560  28.596  0.4783 -0.1061 -0.1061
36815W        W79727  29.524  10.822  30.762 -0.1700 -0.0314 -0.1022
36816W        W79728  29.819  14.319  30.722 -0.2487 -0.2312 -0.2260
36817W        W79729  33.592  12.415  30.610  0.0242  0.4968  0.1766
36818W        W79730  30.183   9.845  28.130  0.3055 -0.2241  0.1128
36819W        W79731  33.964  10.776  28.185  0.2793 -0.1171 -0.0963
36820W        W79732  31.169  14.845  28.202  0.1748 -0.0820  0.1764
36821W        W79733  30.606  12.067  29.493  0.2571  0.1969  0.2383
36822W        W79734  31.579  11.360  28.047 -0.0751 -0.1610 -0.1092
36823W        W79735  30.267  12.616  31.482 -0.2048  0.1593 -0.0995
36824W        W79736  29.834  12.682  28.528  0.3181  0.0375 -0.0023
36825W        W79737  31.073  13.131  30.970 -0.0510 -0.2333 -0.2053
36826W        W79738  30.460  12.943  28.764 -0.1881  0.0878 -0.0920
36827W        W79739  32.471  12.857  27.378  0.0339 -0.1369 -0.0444
36828W        W79740  31.695  13.889  29.941  0.2849 -0.0276 -0.2457
36829W        W79741  31.716  13.751   0.590  0.0243 -0.2212  0.2767
36830W        W79742  30.424  14.102  30.216 -0.2455  0.2762  0.0081
36831W        W79743  32.877  11.794  28.856  0.0321 -0.0315  0.0763
36832W        W79744  28.862  11.013  30.168 -0.3740 -0.1153 -0.1827
36833W        W79745  30.293  12.300  29.126 -0.1016  0.0142 -0.3248
36834W        W79746  30.446  13.838  29.183 -0.0259  0.1402  0.1528
36835W        W79747  32.134  11.807  30.930 -0.0374  0.2407  0.0049
36836W        W79748  29.647   9.458  29.941 -0.1883 -0.0844  0.0480
36837W        W79749  30.842  11.833  28.403 -0.0266 -0.0591 -0.3303
36838W        W79750  31.013  14.734  30.022 -0.0037 -0.1280 -0.1138
36839W        W79751  30.560  13.085  29.314  0.1090 -0.1767 -0.2372
36840W        W79752  33.478  11.492  31.050  0.1134  0.0415 -0.2050
36841W        W79753  30.906  12.682  30.964  0.0098  0.1524  0.1773
36842W        W79754  30.313  12.892   0.054 -0.1042 -0.2338 -0.0441
36843W        W79755  28.915  14.182  31.046 -0.2871  0.1084 -0.2849
36844W        W79756  30.638  15.378  31.631 -0.0744  0.1263 -0.2175
36845W        W79757  29.957  14.033  30.350 -0.0077  0.1776 -0.1416
36846W        W79758  32.499  11.327  30.031  0.2142 -0.0361  0.1750
36847W        W79759  31.792  10.871  30.830 -0.0848 -0.1146 -0.0046
36848W        W79760  33.427  12.247  31.469  0.0639  0.0108  0.0390
36849W        W79761  32.669  12.698  30.346  0.3688 -0.3736 -0.5511
36850W        W79762  32.624  13.212  30.242  0.0441 -0.0285  0.1836
36851W        W79763  29.886  10.501  30.980  0.4645  0.1124  0.0254
36852W        W79764  31.299  12.036  31.361 -0.2117 -0.0879  0.4160
36853W        W79765  31.832  11.707   0.502 -0.0458 -0.2857 -0.3368
36854W        W79766  32.364  12.367   0.306 -0.0985 -0.0221 -0.3936
36855W        W79767  27.907  14.635  31.850  0.1699 -0.0981 -0.1305
36856W        W79768  31.287  12.980   0.442  0.0492  0.0706  0.2628
36857W        W79769  32.677  13.519  30.971 -0.1497 -0.0736 -0.1731
36858W        W79770  30.085  11.569   0.325  0.0261  0.0544 -0.1048
36859W        W79771  29.439  13.221  31.812 -0.0848 -0.0378  0.0603
36860W        W79772  29.423  11.255  30.967 -0.3286  0.1389 -0.0826
36861W        W79773  28.629  15.739  31.279  0.1623  0.0231  0.2929
36862W        W79774  33.569  11.808   0.420  0.1384 -0.2341 -0.1240
36863W        W79775  31.663  11.228  30.445 -0.0700  0.3032 -0.0680
36864W        W79776  31.120  11.779   0.224 -0.0214 -0.1969 -0.0495
36865W        W79777  31.201  11.722  30.184  0.1857 -0.0273 -0.2251
36866W        W79778  30.321  13.274  31.709  0.1487 -0.0943 -0.3911
36867W        W79779  28.167  13.654  31.672 -0.0996  0.1022  0.0277
36868W        W79780  30.185  13.582  30.720  0.3560 -0.2346 -0.1486
36869W        W79781  30.499  11.891  31.798  0.0422  0.1743 -0.2393
36870W        W79782  28.219  14.240  31.585  0.0571 -0.0476 -0.0475
36871W        W79783  29.514  11.954  31.584  0.1042 -0.3466  0.0025
36872W        W79784  31.897  12.553   0.058 -0.2841  0.0044  0.0304
36873W        W79785  31.402  10.943  29.744  0.1505 -0.0630  0.0432
36874W        W79786  32.499  10.528  31.444 -0.1055 -0.0139 -0.4225
36875W        W79787  30.997  13.737   0.722 -0.4770  0.0883 -0.3281
36876W        W79788  29.595  13.895  31.048  0.1436 -0.0206 -0.3099
36877W        W79789  32.057  11.466  31.333 -0.0758 -0.2411  0.0324
36878W        W79790  30.558  11.684   0.334  0.0481 -0.1535 -0.0240
36879W        W79791  30.827  13.234  31.773  0.2343 -0.2721  0.3630
36880W        W79792  33.338  12.258   0.442 -0.0821 -0.2609 -0.0042
36881W        W79793  32.900  11.430  31.550  0.1277  0.1195  0.2467
36882W        W79794  29.338  12.290  31.175 -0.0200  0.1026 -0.1034
36883W        W79795  32.276  13.668  31.269  0.0333  0.2157  0.2210
36884W        W79796  29.414  12.797  31.442  0.0074 -0.0869 -0.0609
36885W        W79797  29.170  12.380  31.671  0.1523 -0.0760  0.3246
36886W        W79798  31.119  11.393  31.456  0.1005  0.2998 -0.0411
36887W        W79799  29.829  13.159  30.706 -0.0130  0.0758  0.0201
36888W        W79800  33.307  12.743  30.879 -0.2500  0.1527 -0.0154
36889W        W79801  28.054  13.357   0.194  0.1466 -0.1925 -0.2136
36890W        W79802  32.572  14.203   1.477 -0.1872  0.0138  0.1319
36891W        W79803  33.409  10.966  30.385 -0.1095 -0.0419 -0.3360
36892W        W79804  30.006  10.301   0.002  0.4724 -0.1020 -0.0941
36893W        W79805  30.843  11.798  31.478 -0.0238 -0.0098  0.2619
36894W        W79806  32.863  12.190  31.526  0.2035 -0.3507 -0.2225
36895W        W79807  31.510  11.915  30.829  0.2166  0.1346  0.1448
36896W        W79808  31.586  13.681  30.660 -0.1739  0.1606  0.2057
36897W        W79809  29.076  15.400   0.145 -0.1367  0.3944 -0.1572
36898W        W79810  31.722  13.185  31.479 -0.3049 -0.2733  0.3340
36899W        W79811  29.490  13.536   0.278 -0.3087 -0.0206 -0.1221
36900W        W79812  30.547  11.777  30.948  0.4491  0.4798  0.1063
36901W        W79813  29.788  12.710   0.009 -0.2229  0.1386  0.0700
36902W        W79814  28.623  13.363  31.362  0.0514  0.5595 -0.1552
36903W        W79815  29.617  11.720  30.638 -0.1133 -0.1994 -0.2307
36904W        W79816  32.396  13.101  30.719  0.6299  0.0085  0.0701
36905W        W79817  34.071  12.232  30.839 -0.0038  0.0473 -0.1887
36906W        W79818  32.107  12.589  31.553  0.0214 -0.0598  0.0007
36907W        W79819  30.335  17.676  19.005  0.1333  0.0727 -0.1673
36908W        W79820  30.531  15.155  17.264 -0.0776  0.4195  0.4050
36909W        W79821  32.814  13.253  16.518 -0.1352  0.2145 -0.0071
36910W        W79822  32.723  16.060  16.906  0.0620 -0.0299 -0.3403
36911W        W79823  28.528  15.527  17.396  0.0887  0.3408  0.1187
36912W        W79824  31.503  16.933  17.388  0.0300  0.0785  0.1262
36913W        W79825  30.004  15.267  19.092 -0.0047  0.0352 -0.3101
36914W        W79826  32.939  17.851  18.667 -0.1275  0.0103  0.0515
36915W        W79827  32.688  17.006  18.070 -0.3138 -0.0188 -0.0308
36916W        W79828  31.683  15.830  17.582 -0.0181  0.0228  0.1746
36917W        W79829  30.785  16.945  20.189  0.0465  0.1536  0.0640
36918W        W79830  30.362  18.020  19.667  0.1047 -0.1459 -0.1069
36919W        W79831  31.208  14.849  16.201 -0.0225  0.0462 -0.2549
36920W        W79832  31.050  14.320  17.438  0.1853  0.3565 -0.0446
36921W        W79833  32.323  16.677  18.082 -0.0555 -0.2869  0.0125
36922W        W79834  30.000  15.843  17.782 -0.0863 -0.1838  0.1240
36923W        W79835  30.133  17.169  18.312  0.0991 -0.1250  0.0209
36924W        W79836  30.017  14.897  18.110 -0.0009 -0.0638 -0.1196
36925W        W79837  29.875  19.617  17.983  0.0731 -0.0544  0.0592
36926W        W79838  30.251  16.029  19.930 -0.1656 -0.0455  0.1037
36927W        W79839  31.672  15.789  19.189 -0.0165  0.0417 -0.2008
36928W        W79840  31.732  17.282  18.014  0.3402  0.0301 -0.1009
36929W        W79841  29.425  15.912  16.655 -0.0584  0.0326  0.0490
36930W        W79842  29.149  15.451  19.315  0.1968 -0.0296  0.1147
36931W        W79843  30.057  16.786  18.737 -0.1290 -0.0423 -0.1088
36932W        W79844  31.089  15.181  17.256  0.0892  0.0515  0.0766
36933W        W79845  32.235  16.688  18.776 -0.1128 -0.1223  0.5562
36934W        W79846  29.796  17.661  17.749  0.2590 -0.0149 -0.1324
36935W        W79847  29.387  18.324  18.336  0.2387 -0.2209  0.0777
36936W        W79848  31.814  16.568  20.382  0.1967 -0.1250 -0.1595
36937W        W79849  29.329  17.435  18.052  0.0698 -0.1471  0.2465
36938W        W79850  29.595  19.258  19.590 -0.2315 -0.1012  0.1447
36939W        W79851  30.580  17.341  18.068  0.1746 -0.1639  0.0415
36940W        W79852  31.879  17.272  17.468  0.0770  0.2097  0.1269
36941W        W79853  32.904  18.267  18.433  0.0494 -0.1164 -0.1369
36942W        W79854  31.037  20.342  21.052 -0.0299  0.0821  0.1545
36943W        W79855  29.054  17.576  16.717 -0.0000  0.1072 -0.3141
36944W        W79856  29.739  18.348  18.727 -0.0597 -0.0363 -0.0766
36945W        W79857  31.095  17.841  19.919 -0.2035  0.1486  0.3939
36946W        W79858  30.927  15.674  18.859 -0.1101 -0.1184  0.0716
36947W        W79859  29.954  15.440  18.139 -0.0393 -0.1222  0.0386
36948W        W79860  30.418  17.508  18.518  0.0040 -0.0398 -0.1302
36949W        W79861  30.959  18.365  18.733 -0.1269  0.0981  0.0920
36950W        W79862  30.620  17.757  20.051  0.1449  0.4224  0.0131
36951W        W79863  27.854  18.840  19.213  0.1961  0.1675 -0.0029
36952W        W79864  31.034  15.570  19.969 -0.0613 -0.0898  0.0529
36953W        W79865  28.972  16.865  17.364  0.0046  0.1393  0.1324
36954W        W79866  32.099  15.526  17.398  0.5103  0.0318 -0.1618
36955W        W79867  29.800  14.923  16.996 -0.1267  0.0503  0.1727
36956W        W79868  31.473  15.485  17.317  0.1766  0.2127  0.1955
36957W        W79869  29.443  13.536  17.191 -0.1386 -0.1499 -0.0512
36958W        W79870  30.337  17.143  18.931  0.1623 -0.0203  0.1292
36959W        W79871  30.407  15.191  19.470  0.0118  0.0340  0.2058
36960W        W79872  32.318  16.231  19.118  0.0607 -0.2152  0.0280
36961W        W79873  30.447  15.721  17.911  0.0020 -0.2691  0.0304
36962W        W79874  31.131  14.992  18.892  0.3960  0.0990  0.2779
36963W        W79875  29.142  18.845  18.804  0.2828 -0.2317 -0.1249
36964W        W79876  29.324  16.155  17.475 -0.1490  0.0178  0.1364
36965W        W79877  28.975  17.123  16.515  0.2555 -0.1804  0.2844
36966W        W79878  32.074  17.143  16.813  0.1506 -0.2727 -0.0398
36967W        W79879  31.600  16.373  17.528 -0.0977 -0.0753  0.0996
36968W        W79880  30.428  16.619  17.522  0.0723  0.2338 -0.0956
36969W        W79881  28.297  16.071  19.944  0.0275  0.1003  0.0401
36970W        W79882  28.381  16.809  19.270  0.1104 -0.0190  0.4440
36971W        W79883  29.278  14.822  17.105  0.3477  0.0568 -0.4227
36972W        W79884  33.380  16.857  19.696 -0.1788  0.1520  0.1552
36973W        W79885  29.084  18.466  19.392 -0.1429 -0.2425  0.2264
36974W        W79886  31.828  15.433  18.319 -0.1521  0.0546 -0.0038
36975W        W79887  29.961  16.156  18.686  0.0622 -0.2372 -0.0854
36976W        W79888  32.095  17.045  18.301 -0.1914 -0.0340 -0.1105
36977W        W79889  33.226  16.520  17.732 -0.3031 -0.4172  0.0338
36978W        W79890  33.280  14.483  17.258  0.0117  0.0139  0.3706
36979W        W79891  31.955  13.891  18.485 -0.0629  0.0978 -0.2229
36980W        W79892  31.457  16.681  18.130  0.3756  0.2141 -0.0089
36981W        W79893  31.390  15.674  16.776 -0.0901 -0.0005 -0.0676
36982W        W79894  32.618  17.045  18.555 -0.3206 -0.0430 -0.0091
36983W        W79895  32.817  16.573  16.249  0.0639  0.1036 -0.0236
36984W        W79896  28.729  16.818  17.837 -0.0783  0.0855 -0.0415
36985W        W79897  31.404  16.294  20.466  0.0813  0.2108 -0.0638
36986W        W79898  32.265  17.289  21.055 -0.3072  0.2675 -0.3620
36987W        W79899  29.239  18.176  17.494 -0.1505  0.2519  0.3788
36988W        W79900  28.925  17.586  19.366  0.0359  0.1574  0.1177
36989W        W79901  28.647  17.719  18.099 -0.0162 -0.2481  0.3037
36990W        W79902  28.306  15.237  19.419  0.1160  0.0616 -0.2428
36991W        W79903  31.196  19.126  19.219 -0.0941 -0.2313  0.0576
36992W        W79904  30.585  16.973  17.154  0.1654 -0.1201  0.0670
36993W        W79905  28.866  15.268  19.793 -0.1889 -0.0068 -0.1814
36994W        W79906  31.756  14.487  17.450  0.0724 -0.1571  0.0502
36995W        W79907  30.299  18.854  17.392 -0.1694  0.1639 -0.1379
36996W        W79908  31.401  18.503  17.965  0.1023 -0.0698 -0.4325
36997W        W79909  32.382  15.609  16.999 -0.0839  0.1450 -0.3517
36998W        W79910  31.173  17.599  16.886 -0.0668 -0.0108 -0.3773
36999W        W79911  29.262  16.346  19.559 -0.0592  0.0045  0.1657
37000W        W79912  29.618  15.505  17.734 -0.0309  0.0064  0.3422
37001W        W79913  28.442  14.542  21.918  0.0549  0.2568  0.0270
37002W        W79914  29.786  14.732  18.982 -0.1315  0.1729  0.0466
37003W        W79915  32.025  16.993  19.622  0.0077 -0.2073 -0.2797
37004W        W79916  27.890  13.598  17.098 -0.1835  0.1096 -0.3281
37005W        W79917  30.225  15.348  17.675 -0.0597  0.1047  0.1057
37006W        W79918  30.456  16.275  18.520  0.1744 -0.2866 -0.0033
37007W        W79919  28.201  16.967  17.454 -0.3755 -0.2530 -0.1036
37008W        W79920  31.136  14.319  19.414  0.3904 -0.1154  0.1731
37009W        W79921  31.496  18.806  17.516  0.1381 -0.1546 -0.0573
37010W        W79922  32.534  15.771  18.882 -0.0667 -0.3106 -0.2241
37011W        W79923  33.079  17.070  17.743  0.0039  0.1397 -0.1516
37012W        W79924  28.944  15.410  18.878  0.4983  0.0445 -0.4878
37013W        W79925  28.949  14.991  16.719 -0.1070  0.1037  0.1464
37014W        W79926  29.540  17.923  18.664  0.0075 -0.2993  0.0149
37015W        W79927  30.229  18.471  18.675 -0.4455 -0.1786  0.0632
37016W        W79928  30.152  14.818  17.323  0.4521  0.0935  0.2029
37017W        W79929  31.764  17.345  19.053 -0.1726  0.0673  0.1327
37018W        W79930  30.823  17.276  16.808  0.1738 -0.0007 -0.0186
37019W        W79931  29.235  17.928  19.169 -0.0917 -0.0201 -0.0675
37020W        W79932  29.996  13.505  18.827 -0.1215  0.0409 -0.1101
37021W        W79933  32.617  15.914  19.355 -0.3608  0.2899  0.0093
37022W        W79934  30.409  16.243  17.143 -0.2540 -0.2294  0.1029
37023W        W79935  28.376  14.398  16.993  0.2762 -0.0712  0.0865
37024W        W79936  31.626  17.769  19.318 -0.0563 -0.1987  0.3134
37025W        W79937  29.481  17.778  17.320  0.2688 -0.1446  0.1722
37026W        W79938  29.255  15.804  17.094 -0.4487  0.0017 -0.2812
37027W        W79939  31.137  17.971  19.079  0.2563  0.2833 -0.1788
37028W        W79940  31.722  14.303  19.019 -0.0031  0.0823 -0.0348
37029W        W79941  29.568  16.741  19.490 -0.0311  0.0903  0.1059
37030W        W79942  30.438  17.300  20.298  0.0532 -0.1638  0.1309
37031W        W79943  30.283  16.260  18.014 -0.0643  0.0388 -0.2233
37032W        W79944  28.616  18.067  18.420 -0.1899  0.1190 -0.1028
37033W        W79945  32.010  13.968  17.861  0.0996 -0.3319 -0.1999
37034W        W79946  33.188  13.526  17.702 -0.2916  0.1732  0.1317
37035W        W79947  30.929  17.405  20.365 -0.1393 -0.2012 -0.0628
37036W        W79948  31.417  16.345  18.603  0.1512  0.1455  0.0804
37037W        W79949  31.196  15.314  16.425 -0.0081  0.0912 -0.1244
37038W        W79950  31.306  15.940  17.209  0.0822 -0.2148  0.1767
37039W        W79951  29.759  17.360  20.562  0.2776  0.0022  0.0734
37040W        W79952  31.306  16.013  18.960  0.1214 -0.0474  0.1504
37041W        W79953  30.150  16.766  19.280 -0.1681  0.0423 -0.4197
37042W        W79954  31.220  15.044  16.804  0.1348  0.0531  0.1132
37043W        W79955  33.621  18.875  17.346 -0.0894  0.0338 -0.2790
37044W        W79956  28.844  16.046  17.777  0.0334  0.2787  0.0876
37045W        W79957  31.635  16.949  19.941 -0.3296  0.3029 -0.0677
37046W        W79958  32.313  17.044  17.337 -0.0248 -0.2581 -0.4112
37047W        W79959  29.563  16.606  18.775  0.0041  0.0282 -0.0786
37048W        W79960  30.371  15.687  17.363  0.1200  0.0052  0.1254
37049W        W79961  30.155  15.282  20.244 -0.1348  0.1929  0.0770
37050W        W79962  28.208  17.718  17.885  0.5530  0.2048 -0.5172
37051W        W79963  31.312  14.529  18.864  0.1325  0.0178  0.2708
37052W        W79964  29.650  14.710  18.450  0.1067  0.0152 -0.3206
37053W        W79965  29.830  16.322  19.858 -0.1085 -0.0283  0.2649
37054W        W79966  31.168  15.895  18.459  0.3488 -0.3473 -0.2869
37055W        W79967  30.628  16.146  17.591  0.2641 -0.0288  0.3542
37056W        W79968  30.884  16.222  18.788 -0.1472 -0.0162  0.3945
37057W        W79969  29.396  16.628  17.363  0.2140  0.2529 -0.3319
37058W        W79970  31.288  14.795  19.800  0.0517  0.2728 -0.1663
37059W        W79971  30.220  16.553  20.714 -0.0405  0.1898 -0.0724
37060W        W79972  28.632  19.053  19.726 -0.1134 -0.0875  0.1557
37061W        W79973  31.931  16.549  19.792 -0.5076  0.3737 -0.0677
37062W        W79974  32.427  14.768  18.860 -0.0564  0.1655  0.0361
37063W        W79975  30.830  16.087  19.277  0.0829 -0.0405 -0.0403
37064W        W79976  31.798  14.825  16.907  0.2656 -0.1248 -0.1683
37065W        W79977  31.128  18.780  17.209  0.0691 -0.2287  0.0465
37066W        W79978  31.652  17.919  17.165  0.0782 -0.0817  0.1296
37067W        W79979  29.999  14.144  18.885  0.2276  0.0828  0.0159
37068W        W79980  31.133  18.552  19.370 -0.0348  0.0103 -0.3524
37069W        W79981  30.522  17.703  17.715 -0.3264  0.1208  0.2433
37070W        W79982  31.501  18.118  20.054 -0.0248  0.0474 -0.0402
37071W        W79983  30.048  17.848  17.231 -0.2911  0.2027 -0.4020
37072W        W79984  32.643  14.296  18.125  0.4513 -0.0224  0.0477
37073W        W79985  28.650  17.514  18.623  0.0466  0.1830 -0.0422
37074W        W79986  30.044  16.267  17.512 -0.1870  0.0003 -0.2191
37075W        W79987  29.390  15.361  17.261 -0.1100 -0.1317  0.2254
37076W        W79988  31.467  15.705  18.042  0.2447  0.0574 -0.0447
37077W        W79989  33.410  16.921  16.421  0.0978  0.0755 -0.0819
37078W        W79990  29.173  16.790  18.479  0.0639  0.0769 -0.2216
37079W        W79991  29.346  14.896  19.903 -0.1098 -0.3373  0.1223
37080W        W79992  29.192  19.450  20.463 -0.1282  0.1112 -0.1262
37081W        W79993  31.718  16.760  18.725 -0.1747  0.1028 -0.0318
37082W        W79994  30.937  15.093  18.105 -0.0066 -0.0405 -0.1242
37083W        W79995  32.254  17.637  20.121 -0.1981  0.0371 -0.2802
37084W        W79996  30.308  17.327  19.453  0.1604  0.3082  0.0108
37085W        W79997  28.183  15.927  17.257 -0.0440 -0.0816  0.3029
37086W        W79998  30.903  15.080  19.319  0.1053  0.0342 -0.1842
37087W        W79999  29.583  15.911  18.947 -0.1039 -0.1886 -0.0242
37088W        W80000  29.783  18.159  17.613 -0.2390  0.1218  0.1238
37089W        W80001  31.322  17.409  18.816 -0.0439 -0.1843 -0.0727
37090W        W80002  30.322  17.080  17.683  0.3061  0.0168 -0.1964
37091W        W80003  31.220  16.311  19.533 -0.1421 -0.1079  0.2501
37092W        W80004  28.998  15.048  21.903  0.2050  0.0033  0.0885
37093W        W80005  32.457  16.114  18.034 -0.3199  0.0167 -0.0275
37094W        W80006  30.055  15.777  19.087  0.4548  0.3878 -0.1944
37095W        W80007  29.711  14.530  17.359 -0.0324 -0.1778  0.2284
37096W        W80008  29.762  16.328  19.264 -0.0097  0.1467 -0.0542
37097W        W80009  31.711  16.207  19.508 -0.2833 -0.3396  0.1345
37098W        W80010  30.984  16.461  20.099 -0.0931  0.0545  0.1351
37099W        W80011  31.633  19.218  20.643  0.0677  0.0808  0.1400
37100W        W80012  30.618  14.073  17.180 -0.2735  0.0176 -0.1779
37101W        W80013  33.822  17.773  17.371  0.2360 -0.0487  0.1279
37102W        W80014  31.562  16.670  19.522  0.3512  0.3377  0.1616
37103W        W80015  31.344  16.548  17.115  0.0577  0.0423  0.0175
37104W        W80016  28.730  16.005  20.088 -0.2130  0.3558  0.0624
37105W        W80017  30.993  15.719  17.463  0.1191  0.1621 -0.1292
37106W        W80018  31.587  14.827  17.843 -0.1214  0.1142  0.0541
37107W        W80019  29.646  18.115  20.289 -0.3618 -0.0212  0.1622
37108W        W80020  30.383  16.709  18.243 -0.1054  0.0252 -0.0451
37109W        W80021  29.210  18.323  18.825 -0.2289 -0.0433 -0.2893
37110W        W80022  30.934  13.992  17.949 -0.2394 -0.0990 -0.0881
37111W        W80023  31.443  17.717  17.789  0.0928 -0.1981  0.2953
37112W        W80024  29.516  15.411  18.961  0.0733 -0.1779  0.2059
37113W        W80025  32.965  13.206  19.189  0.1612 -0.0416 -0.2877
37114W        W80026  31.068  16.969  17.101 -0.4913  0.0347  0.0675
37115W        W80027  30.460  14.452  18.867 -0.2188  0.2436  0.0068
37116W        W80028  30.022  16.916  19.774 -0.1099  0.2088 -0.0379
37117W        W80029  32.217  17.531  19.231 -0.1161  0.2711 -0.1731
37118W        W80030  29.337  15.987  17.974  0.0847  0.2639 -0.0237
37119W        W80031  32.561  17.234  20.136 -0.1732 -0.0532  0.0748
37120W        W80032  30.908  18.971  21.196  0.3458 -0.1755  0.1633
37121W        W80033  30.441  14.922  17.753 -0.1189  0.1040 -0.1558
37122W        W80034  28.887  14.444  17.049  0.0011 -0.0233  0.0493
37123W        W80035  30.565  16.704  18.913  0.1896  0.3936 -0.1453
37124W        W80036  31.912  16.627  17.230  0.1033  0.0534  0.0039
37125W        W80037  29.805  17.550  18.225  0.0505  0.1942  0.1846
37126W        W80038  31.421  15.222  18.145  0.3598  0.0351 -0.0810
37127W        W80039  29.810  17.061  19.074  0.1996 -0.0191  0.1111
37128W        W80040  30.727  15.334  17.662 -0.1787 -0.0402  0.0082
37129W        W80041  32.115  16.136  17.366  0.2568 -0.1382  0.0297
37130W        W80042  31.173  15.381  18.532  0.3472 -0.1221  0.2103
37131W        W80043  29.849  14.377  21.568  0.4757 -0.2686  0.0805
37132W        W80044  32.442  17.483  18.330  0.0698 -0.0576  0.0265
37133W        W80045  31.792  14.663  18.707 -0.2091 -0.0804  0.1731
37134W        W80046  30.754  16.172  19.774 -0.2812 -0.1098  0.1741
37135W        W80047  31.331  15.425  19.134  0.1357 -0.0495 -0.0561
37136W        W80048  31.223  15.852  19.435  0.1386  0.2005 -0.1244
37137W        W80049  27.806  17.065  20.115  0.1195 -0.1123 -0.0216
37138W        W80050  32.393  18.235  19.842  0.0892  0.2104  0.1815
37139W        W80051  32.752  15.234  16.924 -0.2249 -0.0243 -0.3784
37140W        W80052  33.337  15.504  20.118 -0.2962  0.2039  0.0809
37141W        W80053  32.969  16.055  17.857  0.1394  0.0969  0.1213
37142W        W80054  31.680  15.047  17.356 -0.2326  0.0531 -0.0957
37143W        W80055  30.282  15.367  18.639 -0.1487 -0.4155  0.0320
37144W        W80056  32.895  15.910  20.875 -0.1253  0.2037  0.2162
37145W        W80057  30.317  15.017  16.820 -0.1108  0.1805 -0.0991
37146W        W80058  32.246  14.735  19.549  0.0454 -0.0298 -0.0735
37147W        W80059  31.294  17.225  16.572 -0.2033 -0.1615 -0.0202
37148W        W80060  31.196  16.534  19.102  0.1295  0.1352 -0.1552
37149W        W80061  30.739  16.525  19.442  0.0438 -0.0605  0.3936
37150W        W80062  28.302  14.859  16.747  0.0280  0.0472  0.2365
37151W        W80063  30.454  18.117  20.335  0.0206  0.0282  0.2148
37152W        W80064  29.473  15.802  19.473  0.1465 -0.2018  0.0097
37153W        W80065  29.787  16.037  18.176 -0.4410  0.1687  0.1120
37154W        W80066  32.098  17.615  17.952 -0.0905  0.1566  0.0546
37155W        W80067  31.759  16.953  20.687  0.1815  0.1846  0.2779
37156W        W80068  30.095  14.099  16.673  0.0827 -0.0366 -0.2819
37157W        W80069  32.928  15.428  20.456  0.0813  0.0221  0.2093
37158W        W80070  29.114  17.310  17.117 -0.1107  0.1993  0.1668
37159W        W80071  30.155  14.768  18.577  0.1804  0.1884 -0.1106
37160W        W80072  31.443  19.167  21.127  0.1529  0.0763  0.0440
37161W        W80073  28.500  15.628  19.868  0.1829 -0.0838  0.2432
37162W        W80074  30.263  18.114  17.727  0.0799 -0.0669  0.0365
37163W        W80075  31.233  15.222  17.686  0.0639  0.1462 -0.2058
37164W        W80076  31.214  16.248  18.101  0.1763 -0.0220 -0.0605
37165W        W80077  31.921  17.481  19.623 -0.0747 -0.0265 -0.3510
37166W        W80078  32.965  15.500  19.359 -0.1080  0.0850  0.3245
37167W        W80079  31.473  17.278  20.363  0.2871  0.2241  0.1157
37168W        W80080  29.616  17.530  19.083  0.0274 -0.1027 -0.0107
37169W        W80081  31.534  17.185  19.504 -0.0705  0.0282 -0.0469
37170W        W80082  33.288  17.855  16.520  0.1341 -0.1300  0.1131
37171W        W80083  30.033  17.977  18.550  0.0123 -0.2691  0.0373
37172W        W80084  27.831  16.129  19.744 -0.2336 -0.1383 -0.1363
37173W        W80085  29.456  16.644  19.978 -0.0139  0.1406 -0.0912
37174W        W80086  30.726  16.523  17.918 -0.2039 -0.5198 -0.0172
37175W        W80087  29.699  13.992  17.038 -0.0695  0.0321  0.0994
37176W        W80088  31.143  17.821  18.614 -0.2649  0.0099 -0.0524
37177W        W80089  29.753  19.010  17.973 -0.1083 -0.1213 -0.1476
37178W        W80090  28.868  16.718  21.496  0.0608 -0.2038  0.1895
37179W        W80091  29.471  17.207  17.483 -0.3419  0.2674 -0.1622
37180W        W80092  31.632  16.970  16.911 -0.0062  0.0745  0.0382
37181W        W80093  32.773  16.768  17.509 -0.2508 -0.1986 -0.2075
37182W        W80094  29.952  18.584  19.080 -0.0091 -0.0963 -0.0089
37183W        W80095  30.499  14.320  17.565 -0.1529 -0.0835 -0.0780
37184W        W80096  29.467  19.001  20.022 -0.1878 -0.0944 -0.0053
37185W        W80097  28.340  18.387  18.236 -0.0653  0.2295  0.2143
37186W        W80098  31.652  17.461  16.804  0.1649 -0.0771  0.0555
37187W        W80099  29.831  17.183  17.846  0.2151  0.2751  0.2871
37188W        W80100  32.915  16.615  19.545  0.0128  0.3268 -0.1945
37189W        W80101  32.428  14.666  16.098  0.2204  0.0063 -0.2078
37190W        W80102  32.422  16.752  16.587 -0.3146 -0.0753 -0.2917
37191W        W80103  32.665  15.607  15.998 -0.0066  0.2243 -0.0933
37192W        W80104  30.966  19.563  19.079 -0.1371  0.0377  0.3345
37193W        W80105  30.868  17.513  18.931  0.1454 -0.1631  0.0748
37194W        W80106  30.718  14.870  16.507 -0.0176 -0.3254  0.0895
37195W        W80107  28.137  16.605  20.111 -0.1467 -0.3286 -0.2681
37196W        W80108  32.171  13.964  21.197 -0.1365 -0.0240 -0.2673
37197W        W80109  29.711  19.301  20.492  0.1051 -0.1068 -0.1478
37198W        W80110  31.281  18.237  17.021 -0.3102  0.1397  0.0116
37199W        W80111  30.263  15.882  18.340 -0.1037  0.2080 -0.1129
37200W        W80112  29.062  16.381  18.843  0.1076  0.1865  0.1685
37201W        W80113  32.635  14.445  19.616  0.0401 -0.0411 -0.0932
37202W        W80114  31.212  16.623  17.651 -0.0921  0.0600  0.1676
37203W        W80115  32.020  15.537  18.808 -0.2887  0.0149 -0.0787
37204W        W80116  29.440  18.615  17.280 -0.1083 -0.0902 -0.1549
37205W        W80117  30.493  19.220  20.721  0.2284 -0.1668  0.0537
37206W        W80118  30.664  18.090  19.118  0.3683 -0.0980  0.0004
37207W        W80119  29.447  14.308  18.815  0.0874 -0.1078  0.0039
37208W        W80120  33.380  15.649  17.268  0.0884  0.1199 -0.1553
37209W        W80121  29.397  16.007  19.903 -0.2570  0.0351 -0.1181
37210W        W80122  30.491  15.898  18.807  0.0573  0.1354 -0.1155
37211W        W80123  29.798  15.053  17.581 -0.0074 -0.2455 -0.0599
37212W        W80124  31.852  16.778  17.735  0.2188 -0.1570  0.1602
37213W        W80125  31.798  18.473  20.099 -0.0300 -0.4959 -0.0513
37214W        W80126  30.131  16.235  20.354  0.0458 -0.0715  0.3935
37215W        W80127  30.960  15.606  17.997  0.2224  0.0037 -0.0375
37216W        W80128  33.209  16.273  19.826 -0.0081 -0.0888 -0.1881
37217W        W80129  32.384  16.532  17.039  0.2050 -0.2332 -0.0927
37218W        W80130  32.170  18.354  19.421 -0.0293 -0.3306  0.0799
37219W        W80131  28.326  15.987  17.752 -0.1429 -0.1482  0.0474
37220W        W80132  32.162  15.006  17.249 -0.2821 -0.1276 -0.0512
37221W        W80133  29.909  16.557  18.255 -0.1251 -0.1833  0.0619
37222W        W80134  29.961  17.718  19.401  0.2009  0.0783 -0.0833
37223W        W80135  33.055  17.188  19.714  0.1880  0.1896  0.1643
37224W        W80136  29.307  14.884  18.865  0.0231 -0.0669 -0.1194
37225W        W80137  31.424  18.225  17.523 -0.2993  0.1073  0.0078
37226W        W80138  32.436  15.181  17.658  0.1585 -0.3332 -0.1338
37227W        W80139  30.841  16.967  17.604  0.2159 -0.2234  0.0787
37228W        W80140  32.003  16.873  19.192 -0.1076  0.0460  0.0835
37229W        W80141  31.036  17.378  18.398 -0.0106  0.0933 -0.0674
37230W        W80142  29.435  15.442  19.873  0.1100  0.1109  0.2080
37231W        W80143  31.881  17.899  17.600  0.1979 -0.0883 -0.3280
37232W        W80144  33.228  17.495  18.970  0.2602  0.1008 -0.0984
37233W        W80145  30.958  14.849  17.620 -0.1384  0.1124  0.0679
37234W        W80146  30.617  17.070  18.482 -0.2738  0.0943 -0.1574
37235W        W80147  30.929  18.489  18.183  0.1838 -0.2015  0.0252
37236W        W80148  31.599  15.172  18.691  0.0744  0.0002 -0.1894
37237W        W80149  31.699  15.985  18.338  0.3065  0.0375  0.0886
37238W        W80150  28.583  17.533  16.448 -0.0132  0.1332 -0.1196
37239W        W80151  32.605  13.992  19.222 -0.1808 -0.0729  0.1715
37240W        W80152  31.198  17.283  19.955  0.0100  0.1371  0.1147
37241W        W80153  28.772  17.927  21.864 -0.0862  0.0406 -0.0532
37242W        W80154  29.572  18.004  16.611 -0.0623 -0.0305  0.1894
37243W        W80155  30.169  17.538  19.899  0.0699 -0.0370 -0.1491
37244W        W80156  30.788  18.200  19.813  0.3248 -0.2811 -0.1763
37245W        W80157  30.389  18.416  18.191  0.1333 -0.0427  0.1538
37246W        W80158  34.041  19.569  17.904 -0.0861  0.0903 -0.1357
37247W        W80159  30.778  16.036  18.218 -0.2238  0.2040 -0.0746
37248W        W80160  33.053  17.391  17.352 -0.0703 -0.1891 -0.1985
37249W        W80161  30.005  14.079  17.595  0.2235  0.1784  0.0022
37250W        W80162  32.108  14.775  17.723  0.1799  0.0478  0.0729
37251W        W80163  31.679  14.886  16.439 -0.2282  0.1893  0.0214
37252W        W80164  30.129  18.108  19.135 -0.2931 -0.0006  0.0286
37253W        W80165  29.039  16.381  17.112  0.1413 -0.1866 -0.1771
37254W        W80166  29.914  17.365  17.360 -0.0171  0.2164 -0.0873
37255W        W80167  29.458  16.145  18.521 -0.1203 -0.2014  0.1504
37256W        W80168  30.445  15.507  19.109  0.1137 -0.0625 -0.2039
37257W        W80169  29.035  15.790  19.667 -0.2750 -0.0858 -0.0048
37258W        W80170  29.477  15.616  18.255 -0.1155  0.0563  0.1490
37259W        W80171  28.660  13.671  16.434 -0.0988  0.3123  0.1053
37260W        W80172  31.173  17.827  17.390  0.2366 -0.0775 -0.2966
37261W        W80173  29.788  13.868  18.527  0.1453  0.1388  0.2778
37262W        W80174  28.414  15.235  18.916  0.2177 -0.1645 -0.0624
37263W        W80175  32.331  16.580  17.573  0.1012  0.0428  0.2457
37264W        W80176  32.027  17.561  17.128  0.1692  0.1549 -0.0120
37265W        W80177  30.585  14.578  17.113  0.1201  0.1117  0.0206
37266W        W80178  32.011  17.347  20.433 -0.2526  0.0194 -0.2711
37267W        W80179  29.632  18.187  17.121  0.1939  0.1095 -0.0339
37268W        W80180  32.104  16.923  20.179  0.2058 -0.3950  0.1891
37269W        W80181  30.444  16.487  20.071 -0.3471 -0.1607  0.1452
37270W        W80182  29.540  15.075  18.035  0.0817  0.1246  0.0016
37271W        W80183  30.390  15.923  19.488  0.2992 -0.3998  0.1196
37272W        W80184  31.533  17.658  18.270  0.0298  0.1947 -0.0762
37273W        W80185  31.303  19.637  16.879  0.1732 -0.1530  0.1185
37274W        W80186  29.989  18.702  18.317  0.0424 -0.0117  0.1393
37275W        W80187  30.001  18.404  19.573  0.1057  0.1373 -0.1457
37276W        W80188  28.984  14.941  19.252  0.0537  0.0944 -0.0309
37277W        W80189  31.162  16.143  17.626  0.0162  0.2598 -0.2723
37278W        W80190  31.722  18.166  20.556 -0.1101  0.2217  0.4055
37279W        W80191  32.147  18.034  17.191  0.1425  0.5204  0.5269
37280W        W80192  33.171  15.032  19.325 -0.0468  0.0362 -0.2168
37281W        W80193  30.693  15.549  18.451  0.0036 -0.1375 -0.2047
37282W        W80194  29.497  15.131  19.430 -0.3906  0.0577  0.4010
37283W        W80195  29.323  18.712  21.708  0.1280  0.1159 -0.2246
37284W        W80196  32.976  17.386  18.376  0.0435  0.2099  0.0685
37285W        W80197  29.677  13.430  18.355 -0.1708  0.4466 -0.1554
37286W        W80198  31.798  14.267  16.952 -0.2492 -0.2350  0.4724
37287W        W80199  30.379  17.451  17.239 -0.0763 -0.0578 -0.1547
37288W        W80200  29.097  17.751  18.352 -0.1456  0.1512 -0.1323
37289W        W80201  31.271  14.578  16.614  0.1053  0.0804 -0.1849
37290W        W80202  30.489  16.943  19.722 -0.2769 -0.3846 -0.0395
37291W        W80203  31.138  17.579  19.408 -0.0005  0.1490  0.0958
37292W        W80204  31.933  16.002  18.858 -0.3509  0.1358  0.3597
37293W        W80205  31.400  16.969  19.075 -0.0962  0.4153  0.0736
37294W        W80206  32.856  15.080  16.461 -0.3000  0.0280  0.1277
37295W        W80207  31.790  19.696  19.710  0.2172 -0.0164 -0.1510
37296W        W80208  30.664  18.363  20.738  0.1083 -0.1289 -0.3805
37297W        W80209  31.604  18.491  19.617  0.1877  0.3403  0.2021
37298W        W80210  31.877  16.439  18.347  0.1903 -0.0840  0.0173
37299W        W80211  29.101  14.750  18.345  0.2084  0.2852 -0.1748
37300W        W80212  30.852  17.085  19.313 -0.1699 -0.0327  0.1226
37301W        W80213  31.689  16.418  19.055  0.0074  0.0352 -0.1833
37302W        W80214  30.495  14.735  18.216 -0.4434 -0.0762  0.0581
37303W        W80215  29.948  15.447  19.551  0.0237 -0.2176  0.0736
37304W        W80216  30.224  13.623  16.796  0.0723  0.0105  0.1422
37305W        W80217  30.666  17.657  19.384 -0.2160  0.3601  0.2433
37306W        W80218  30.905  16.561  18.405  0.4892 -0.0316  0.1623
37307W        W80219  30.499  18.045  21.881 -0.2519  0.1724 -0.1134
37308W        W80220  30.181  16.434  22.767 -0.2797  0.2239 -0.1141
37309W        W80221  31.478  14.649  20.235 -0.3304  0.0541  0.1014
37310W        W80222  32.085  16.079  20.646 -0.1787  0.2104  0.0796
37311W        W80223  30.515  16.776  21.621 -0.3935  0.1141 -0.0183
37312W        W80224  32.009  18.054  22.026 -0.0856 -0.2011  0.0599
37313W        W80225  29.948  14.475  24.770 -0.0741  0.3646  0.1887
37314W        W80226  31.506  17.084  22.850 -0.0998  0.2521  0.1853
37315W        W80227  31.784  17.662  21.697  0.0527  0.0364 -0.1309
37316W        W80228  31.491  17.148  21.203 -0.2605  0.2374 -0.2546
37317W        W80229  29.178  16.033  23.127  0.1188 -0.1944 -0.0885
37318W        W80230  29.500  16.934  23.329  0.0447 -0.1611 -0.3453
37319W        W80231  29.632  15.178  20.328  0.0038 -0.0553  0.0127
37320W        W80232  28.586  14.175  22.627 -0.0193 -0.0283  0.1178
37321W        W80233  32.483  15.981  21.210 -0.1646  0.0763  0.1218
37322W        W80234  29.850  15.584  21.312  0.1790  0.1829  0.0898
37323W        W80235  29.606  16.200  22.807  0.3256 -0.1948 -0.0735
37324W        W80236  29.333  15.419  21.368  0.2005 -0.1522  0.1857
37325W        W80237  30.930  18.377  21.162 -0.2244  0.1074 -0.3669
37326W        W80238  29.779  15.467  24.190 -0.0669 -0.3400 -0.1361
37327W        W80239  30.753  14.198  23.024 -0.2177 -0.2132  0.2968
37328W        W80240  29.678  16.936  21.267 -0.4371 -0.2765 -0.0598
37329W        W80241  31.275  16.790  20.326 -0.2828  0.0166 -0.0213
37330W        W80242  28.030  17.359  20.647  0.1225 -0.0542 -0.1514
37331W        W80243  26.913  16.624  22.413 -0.0914 -0.0525  0.0674
37332W        W80244  31.537  15.138  20.110 -0.1276  0.0868 -0.1250
37333W        W80245  32.857  17.089  20.532  0.2449 -0.1585 -0.0755
37334W        W80246  29.368  16.643  24.231 -0.0036  0.2032  0.1090
37335W        W80247  30.063  16.824  23.481  0.0920 -0.1887  0.1032
37336W        W80248  31.538  14.362  24.400  0.0209 -0.0586  0.2081
37337W        W80249  28.266  16.295  22.344  0.0490 -0.2091 -0.1680
37338W        W80250  29.797  17.218  20.094 -0.0894 -0.0729 -0.0606
37339W        W80251  30.212  18.093  20.846 -0.2312  0.0286  0.0413
37340W        W80252  33.046  17.745  20.740  0.2478  0.3779  0.3570
37341W        W80253  31.718  17.892  23.366 -0.1393  0.2020  0.0410
37342W        W80254  30.017  17.986  23.281 -0.2129  0.2450  0.4816
37343W        W80255  28.807  16.991  20.494 -0.2455  0.1233  0.0942
37344W        W80256  30.919  17.855  23.961  0.0339 -0.0683  0.2295
37345W        W80257  31.316  17.413  23.300  0.0037  0.0809 -0.0959
37346W        W80258  30.381  16.113  23.843 -0.1765 -0.3459 -0.2257
37347W        W80259  30.196  17.795  22.343 -0.0092 -0.1413  0.1635
37348W        W80260  30.975  18.181  20.372 -0.2920 -0.0805  0.2705
37349W        W80261  31.563  16.052  22.120 -0.5909 -0.0696 -0.0597
37350W        W80262  29.309  17.140  22.810 -0.1007  0.0479 -0.1269
37351W        W80263  29.209  17.658  22.079  0.1000 -0.3820 -0.2342
37352W        W80264  33.072  15.681  23.222 -0.1006  0.1675 -0.1662
37353W        W80265  29.222  16.454  21.714 -0.1370  0.1958  0.0336
37354W        W80266  30.058  15.774  20.542 -0.1335 -0.1040  0.1020
37355W        W80267  30.620  16.555  21.057 -0.2067 -0.0183 -0.4692
37356W        W80268  33.452  15.517  20.612  0.0326 -0.0029 -0.3006
37357W        W80269  31.666  14.038  22.129  0.0381  0.1157 -0.0130
37358W        W80270  29.821  18.902  21.477 -0.0747 -0.2474 -0.2362
37359W        W80271  29.812  14.144  23.266 -0.1839  0.0417 -0.3351
37360W        W80272  32.284  17.551  23.790 -0.1687 -0.0461 -0.4783
37361W        W80273  30.917  16.940  21.070  0.1753 -0.0958  0.0684
37362W        W80274  31.920  15.803  22.990 -0.1706  0.3474 -0.2655
37363W        W80275  29.340  18.974  22.735 -0.2406  0.0777  0.0030
37364W        W80276  30.307  15.879  21.202  0.1236 -0.1095 -0.0784
37365W        W80277  32.581  16.037  20.368 -0.0167  0.1524 -0.0233
37366W        W80278  32.609  16.381  19.956  0.1136 -0.2686 -0.0234
37367W        W80279  32.565  16.946  19.689 -0.0532  0.0517 -0.3119
37368W        W80280  30.057  17.955  21.291 -0.4773 -0.2029 -0.0467
37369W        W80281  28.318  16.574  23.249 -0.2318  0.1910  0.5063
37370W        W80282  29.377  16.410  23.461 -0.1126  0.5288 -0.3231
37371W        W80283  29.894  15.967  19.552 -0.0796  0.2069  0.1393
37372W        W80284  33.348  16.839  23.467  0.0762 -0.1949  0.2389
37373W        W80285  28.162  17.419  23.735 -0.0889  0.1025  0.2351
37374W        W80286  33.818  16.017  21.406  0.0255  0.1098  0.0265
37375W        W80287  30.235  16.353  23.362 -0.0002 -0.2595 -0.4039
37376W        W80288  31.747  17.856  22.504  0.1765  0.0486  0.2926
37377W        W80289  32.268  16.409  20.307 -0.1824 -0.0405  0.2494
37378W        W80290  32.449  15.379  20.263 -0.0951 -0.4640 -0.0017
37379W        W80291  32.258  14.867  22.216 -0.1201 -0.1584  0.1364
37380W        W80292  30.786  17.859  20.687  0.1181 -0.0367 -0.0140
37381W        W80293  30.493  18.239  21.285 -0.1149  0.0641 -0.0000
37382W        W80294  31.828  17.593  22.948  0.2740  0.1353 -0.2958
37383W        W80295  31.818  16.127  20.062  0.0468  0.0223  0.0134
37384W        W80296  29.770  17.197  22.594 -0.2214 -0.1590 -0.2976
37385W        W80297  30.737  16.050  24.747 -0.1600  0.0641  0.0321
37386W        W80298  31.498  16.896  23.301 -0.3427 -0.0124 -0.0051
37387W        W80299  30.328  17.592  20.773 -0.0180 -0.3987 -0.2244
37388W        W80300  28.306  15.572  22.197  0.2929 -0.0416 -0.1202
37389W        W80301  30.054  17.787  20.313  0.2169 -0.0269 -0.0334
37390W        W80302  30.207  16.169  21.938  0.0407 -0.1258 -0.1763
37391W        W80303  30.139  15.072  23.884  0.4687  0.1849  0.0650
37392W        W80304  30.646  15.942  20.247  0.2884 -0.2440 -0.3012
37393W        W80305  29.869  15.539  22.408  0.1132  0.2457 -0.0863
37394W        W80306  32.359  15.515  19.667 -0.1032 -0.2861 -0.1192
37395W        W80307  29.526  16.473  21.374  0.2439 -0.1550 -0.0972
37396W        W80308  33.815  19.915  22.307 -0.0089 -0.2132  0.0784
37397W        W80309  32.850  14.920  20.327  0.2165 -0.2000  0.0677
37398W        W80310  33.247  17.822  19.802  0.0755  0.1022  0.0874
37399W        W80311  27.817  15.979  22.701 -0.2305 -0.2441 -0.2521
37400W        W80312  29.096  15.088  20.305  0.1580 -0.0987 -0.0175
37401W        W80313  29.682  15.661  23.332 -0.1383 -0.0166 -0.0416
37402W        W80314  29.900  16.505  22.198  0.1524 -0.1292 -0.0714
37403W        W80315  32.747  16.865  22.419  0.1695 -0.0512 -0.1192
37404W        W80316  28.861  13.615  20.944 -0.5181 -0.1983  0.0528
37405W        W80317  31.059  15.902  21.566 -0.0107  0.2283 -0.1120
37406W        W80318  30.133  16.691  21.241  0.1417  0.6313  0.1254
37407W        W80319  30.069  17.092  21.580 -0.3316  0.2586  0.1445
37408W        W80320  32.179  14.158  24.764  0.1610 -0.0240 -0.0649
37409W        W80321  30.504  18.946  21.940  0.1251  0.0020 -0.4423
37410W        W80322  30.954  17.797  23.458  0.0586 -0.2622 -0.1322
37411W        W80323  31.426  18.458  21.812  0.2607  0.2193 -0.0797
37412W        W80324  29.625  16.148  25.064  0.0968 -0.1155 -0.0181
37413W        W80325  29.098  15.544  20.703 -0.2153 -0.2251 -0.1935
37414W        W80326  29.068  18.211  22.199  0.0309  0.0439 -0.1672
37415W        W80327  31.278  17.746  22.111 -0.0217  0.0696 -0.0288
37416W        W80328  31.028  15.094  20.159  0.1980  0.0627 -0.0748
37417W        W80329  31.380  17.308  21.685  0.0634 -0.0157  0.1765
37418W        W80330  30.262  18.473  21.717 -0.0049 -0.4300  0.1059
37419W        W80331  28.609  17.076  21.811  0.1191 -0.1226  0.3552
37420W        W80332  31.294  15.652  21.966 -0.0496 -0.1009 -0.1238
37421W        W80333  32.431  17.156  21.885  0.0027  0.1116  0.1392
37422W        W80334  31.610  16.492  20.853 -0.3517 -0.2492 -0.0877
37423W        W80335  28.915  16.020  21.584  0.0103 -0.2842 -0.2392
37424W        W80336  30.948  16.402  21.360 -0.4039  0.0118 -0.0356
37425W        W80337  29.378  18.034  21.860  0.2805 -0.3073  0.0120
37426W        W80338  28.229  16.600  21.919  0.1511  0.0004  0.1659
37427W        W80339  31.078  18.897  22.980  0.0360 -0.0286 -0.1298
37428W        W80340  31.053  14.631  22.938 -0.0228 -0.0561  0.2266
37429W        W80341  28.004  16.896  23.591  0.1846  0.2653 -0.2166
37430W        W80342  30.571  14.980  24.078 -0.2704 -0.1526 -0.1072
37431W        W80343  29.640  14.332  20.225  0.0824 -0.1003 -0.0811
37432W        W80344  27.632  17.674  22.889 -0.1921 -0.1376  0.0633
37433W        W80345  30.405  16.056  20.729  0.1804  0.2376 -0.1116
37434W        W80346  31.637  15.895  21.650 -0.1889 -0.4541  0.0273
37435W        W80347  31.789  16.059  23.806 -0.0145 -0.0307 -0.2799
37436W        W80348  32.134  17.773  21.324 -0.1332 -0.1546  0.1141
37437W        W80349  31.639  14.935  20.594 -0.0546  0.0096 -0.0751
37438W        W80350  30.673  15.051  18.539 -0.2670  0.0467  0.3280
37439W        W80351  28.460  18.300  22.012  0.1171 -0.1149  0.2534
37440W        W80352  30.296  16.921  22.535 -0.2848  0.0789 -0.1391
37441W        W80353  31.084  16.715  23.432  0.0187 -0.1077 -0.1549
37442W        W80354  30.386  16.290  19.157 -0.2787  0.2282  0.1202
37443W        W80355  32.689  16.606  20.457 -0.0803  0.1012 -0.0511
37444W        W80356  28.935  15.077  23.040 -0.0601  0.0031 -0.0680
37445W        W80357  30.743  17.757  24.453 -0.0437  0.0136 -0.1816
37446W        W80358  33.278  18.150  21.513  0.0584 -0.1326 -0.1343
37447W        W80359  30.560  14.974  23.555  0.1011 -0.0224  0.1950
37448W        W80360  29.449  15.966  21.461  0.1099  0.0696 -0.0366
37449W        W80361  31.185  14.323  19.901  0.2127 -0.1520 -0.0698
37450W        W80362  29.327  17.209  19.334  0.0542 -0.2642  0.2669
37451W        W80363  32.807  14.726  22.645  0.3627  0.1527 -0.0639
37452W        W80364  31.472  15.592  22.939  0.2514  0.0351  0.1672
37453W        W80365  31.911  15.770  22.462  0.1689 -0.0363  0.2694
37454W        W80366  33.089  15.893  23.711  0.3500  0.2713  0.0555
37455W        W80367  32.124  16.602  20.848 -0.0728  0.0066  0.1742
37456W        W80368  30.869  14.331  21.579 -0.0050  0.0788  0.0699
37457W        W80369  31.110  16.781  19.718  0.0882  0.0396 -0.1610
37458W        W80370  31.726  17.104  23.733  0.1731  0.0094 -0.2414
37459W        W80371  29.188  15.499  23.304 -0.3520 -0.0278 -0.1021
37460W        W80372  28.535  18.648  23.150 -0.1702  0.1153  0.2226
37461W        W80373  31.760  16.523  23.548 -0.2193 -0.0237  0.0475
37462W        W80374  32.352  16.438  21.397 -0.0991 -0.1966  0.3613
37463W        W80375  31.823  15.272  22.728  0.0463  0.3768 -0.0117
37464W        W80376  30.678  15.431  20.296  0.1559 -0.0351 -0.2973
37465W        W80377  30.167  16.896  20.327 -0.2068 -0.2079  0.3021
37466W        W80378  30.282  16.433  19.616 -0.0465  0.1850  0.1506
37467W        W80379  29.587  15.731  20.879 -0.0916  0.1967  0.2597
37468W        W80380  29.985  17.703  22.841 -0.0724  0.1088  0.0964
37469W        W80381  32.233  18.875  19.310  0.0002  0.7395 -0.2107
37470W        W80382  30.939  15.886  22.676 -0.1918 -0.0308 -0.1005
37471W        W80383  28.903  17.645  21.148  0.0443 -0.1896 -0.0391
37472W        W80384  32.513  14.449  22.186  0.3235 -0.3620 -0.3067
37473W        W80385  28.564  19.075  21.832 -0.0490  0.0267 -0.2401
37474W        W80386  29.763  17.322  19.603 -0.3541  0.0552 -0.2533
37475W        W80387  28.959  16.036  20.540 -0.4150  0.0676 -0.2347
37476W        W80388  31.235  14.705  21.332  0.1144 -0.1792 -0.0368
37477W        W80389  30.699  16.392  20.529  0.0312  0.1170 -0.0641
37478W        W80390  30.317  15.415  22.625 -0.0280  0.1151  0.2493
37479W        W80391  31.104  15.221  22.164  0.0038 -0.2450 -0.1894
37480W        W80392  29.753  18.781  23.671  0.0656  0.1235  0.0174
37481W        W80393  33.046  15.279  22.753  0.2470 -0.0440  0.2020
37482W        W80394  32.507  14.512  20.277 -0.2124  0.0793 -0.1622
37483W        W80395  31.492  16.326  24.081 -0.2772 -0.0766  0.0679
37484W        W80396  30.825  17.168  23.267 -0.0928  0.1087  0.0986
37485W        W80397  28.493  15.700  21.352  0.2843  0.0910 -0.1865
37486W        W80398  32.820  17.239  23.645 -0.1306  0.0677  0.0525
37487W        W80399  30.424  16.296  21.497  0.1043 -0.2546 -0.1103
37488W        W80400  29.261  17.859  20.629  0.1319 -0.0156 -0.2101
37489W        W80401  31.971  15.662  24.339 -0.0949  0.1017 -0.2937
37490W        W80402  30.042  15.292  20.964  0.0268 -0.0873 -0.0633
37491W        W80403  29.555  17.715  22.477 -0.0019  0.0312  0.1584
37492W        W80404  29.690  15.661  25.117 -0.0042 -0.1661  0.2798
37493W        W80405  33.192  17.634  21.678  0.1758  0.3698  0.0688
37494W        W80406  29.313  14.793  22.171  0.0379 -0.1462  0.3596
37495W        W80407  30.081  14.955  21.704 -0.1196 -0.2376  0.0938
37496W        W80408  30.832  16.366  23.225  0.1621 -0.0824  0.2565
37497W        W80409  32.903  16.431  21.329 -0.0132  0.3585 -0.1903
37498W        W80410  31.488  14.643  23.988  0.0602 -0.1055 -0.1535
37499W        W80411  28.422  16.631  22.736  0.2228 -0.3187 -0.2862
37500W        W80412  30.260  13.896  23.144  0.2025 -0.1482  0.1236
37501W        W80413  32.601  17.800  20.977  0.0453 -0.4641  0.2830
37502W        W80414  32.331  15.494  22.760  0.0904  0.1373 -0.0157
37503W        W80415  28.098  16.589  21.069  0.0164  0.0449  0.3381
37504W        W80416  28.561  17.799  22.963  0.2650  0.0520 -0.0795
37505W        W80417  30.270  17.332  22.264  0.1498  0.1378 -0.0347
37506W        W80418  30.620  15.745  23.606  0.2254  0.0342 -0.0854
37507W        W80419  30.220  18.530  22.670  0.1207  0.1933  0.0989
37508W        W80420  30.492  17.606  21.291 -0.2729 -0.0776  0.1166
37509W        W80421  27.606  17.257  23.049  0.0545  0.2942 -0.2680
37510W        W80422  33.209  14.511  20.340  0.0709 -0.0311  0.0789
37511W        W80423  31.311  17.724  20.387 -0.2943  0.0159  0.0210
37512W        W80424  31.580  15.980  20.802  0.0459  0.0092 -0.1954
37513W        W80425  31.373  14.578  23.528 -0.1365  0.2675 -0.1589
37514W        W80426  30.663  15.521  21.219 -0.0037 -0.1044 -0.0453
37515W        W80427  31.648  14.805  23.122 -0.3632 -0.0772  0.0391
37516W        W80428  29.721  13.807  23.634  0.1871  0.0798  0.1522
37517W        W80429  32.025  17.257  21.522  0.2885 -0.3989 -0.4570
37518W        W80430  28.418  14.497  23.296  0.2851 -0.0568 -0.0378
37519W        W80431  32.516  18.957  24.352 -0.0943 -0.0192 -0.2783
37520W        W80432  29.893  16.079  23.638  0.2049  0.1324 -0.2138
37521W        W80433  30.485  17.318  21.702 -0.0889  0.0068  0.0764
37522W        W80434  29.152  15.658  20.239 -0.1338 -0.2236 -0.0980
37523W        W80435  30.567  14.685  23.071  0.3118  0.0948  0.0554
37524W        W80436  32.795  17.249  21.027 -0.0604  0.2102  0.0869
37525W        W80437  31.185  17.578  20.917  0.4195 -0.0993 -0.1287
37526W        W80438  31.870  16.841  21.202 -0.3469  0.0912 -0.3976
37527W        W80439  29.390  16.406  25.722 -0.2636 -0.1976 -0.0604
37528W        W80440  32.573  16.297  20.812 -0.0516  0.0330 -0.0097
37529W        W80441  30.766  16.005  21.182 -0.0336 -0.3828  0.1231
37530W        W80442  28.891  16.853  23.157 -0.2995  0.1299 -0.0913
37531W        W80443  30.231  13.431  22.858  0.1739 -0.2300  0.1680
37532W        W80444  32.205  15.805  21.569 -0.1873 -0.0769  0.1121
37533W        W80445  30.954  14.651  22.352  0.1339 -0.1935  0.0983
37534W        W80446  32.215  15.396  22.275 -0.1612 -0.0604  0.0850
37535W        W80447  31.575  15.803  23.429  0.2005 -0.2166  0.0115
37536W        W80448  30.078  14.940  23.271 -0.1704  0.1454  0.0540
37537W        W80449  28.497  14.829  25.818  0.2050  0.2183 -0.3101
37538W        W80450  30.335  17.236  23.422 -0.3493  0.1982 -0.1400
37539W        W80451  31.141  15.881  20.471  0.0305  0.0717  0.0035
37540W        W80452  31.891  16.187  21.154  0.2347  0.1573 -0.1346
37541W        W80453  31.979  15.278  20.416  0.1805  0.0943  0.3667
37542W        W80454  29.456  16.964  20.429  0.1363  0.0278 -0.0896
37543W        W80455  29.573  16.194  21.942  0.4285 -0.1589 -0.1399
37544W        W80456  31.431  15.559  22.466  0.0715 -0.1376  0.1749
37545W        W80457  28.231  14.430  20.084 -0.0626  0.0781  0.0476
37546W        W80458  31.130  14.312  23.847 -0.1145 -0.1071 -0.0939
37547W        W80459  31.989  17.180  22.052 -0.2090 -0.1774  0.0094
37548W        W80460  31.948  16.793  22.698 -0.2505  0.0371  0.0120
37549W        W80461  29.905  16.157  21.470 -0.0402 -0.5520  0.1824
37550W        W80462  28.631  15.887  22.315 -0.1622 -0.0461  0.2433
37551W        W80463  29.765  18.745  22.680 -0.0403 -0.0003 -0.0461
37552W        W80464  29.954  16.145  20.933  0.2022  0.0972 -0.2496
37553W        W80465  31.256  17.004  20.730  0.2013 -0.1364 -0.3207
37554W        W80466  32.195  17.010  23.677 -0.1194  0.3418  0.0361
37555W        W80467  32.957  16.781  25.324 -0.1579  0.1089  0.1183
37556W        W80468  29.447  14.107  19.675  0.2483 -0.2322  0.3022
37557W        W80469  32.765  15.096  24.042  0.1283  0.0999 -0.2990
37558W        W80470  28.271  18.725  22.207 -0.1686  0.1574 -0.0690
37559W        W80471  32.144  15.803  20.208 -0.1769  0.0289  0.1063
37560W        W80472  30.397  18.132  23.008  0.0088 -0.0529 -0.1121
37561W        W80473  28.330  17.128  23.274 -0.0131 -0.2364 -0.0648
37562W        W80474  28.174  17.142  22.060  0.0893  0.1368  0.0488
37563W        W80475  30.922  15.389  22.627 -0.1313  0.0980  0.3396
37564W        W80476  31.650  15.405  20.776  0.0540  0.0090 -0.1103
37565W        W80477  29.817  16.454  23.135  0.3886  0.0513  0.3199
37566W        W80478  31.197  15.980  23.143  0.1627 -0.2860  0.1675
37567W        W80479  32.808  16.941  23.179 -0.0889 -0.2467  0.1125
37568W        W80480  29.993  17.456  21.221 -0.0521 -0.0743  0.0796
37569W        W80481  30.820  16.718  22.343  0.2931 -0.0492  0.1352
37570W        W80482  32.625  16.778  20.941 -0.0350  0.1396 -0.3153
37571W        W80483  29.527  16.861  22.234 -0.0253 -0.0500  0.1389
37572W        W80484  28.305  16.518  23.769  0.0557 -0.2595 -0.3102
37573W        W80485  30.844  16.187  23.671 -0.2925  0.1708  0.2396
37574W        W80486  30.677  15.886  23.125  0.0718 -0.2166 -0.1113
37575W        W80487  30.366  15.775  22.262  0.2465  0.1636 -0.0590
37576W        W80488  31.758  17.407  20.848  0.2533 -0.2045  0.0981
37577W        W80489  29.348  18.424  22.572 -0.2940 -0.0730  0.1479
37578W        W80490  27.729  16.368  22.357 -0.1410  0.0205 -0.5115
37579W        W80491  30.377  18.824  20.410  0.0794  0.0800  0.2116
37580W        W80492  30.482  15.801  21.747  0.0300 -0.1164 -0.0471
37581W        W80493  31.124  15.744  20.960 -0.2849 -0.0463  0.3718
37582W        W80494  32.183  19.010  22.051 -0.2103 -0.0235  0.0770
37583W        W80495  28.979  16.406  20.012 -0.0840 -0.1021 -0.1549
37584W        W80496  31.278  17.281  22.232 -0.2808  0.0011 -0.1984
37585W        W80497  28.486  17.736  19.671  0.0018 -0.1709 -0.0931
37586W        W80498  30.963  18.253  21.964  0.2264  0.0300 -0.3947
37587W        W80499  30.695  17.714  22.222  0.3998  0.0364 -0.1091
37588W        W80500  30.479  17.688  23.238 -0.2269 -0.2496  0.0014
37589W        W80501  31.847  14.882  19.777 -0.0064 -0.0480 -0.2194
37590W        W80502  32.881  15.475  19.857  0.0519  0.3733  0.0132
37591W        W80503  31.649  15.659  20.312 -0.1583  0.1390  0.0718
37592W        W80504  29.806  17.224  23.595 -0.1782 -0.0470  0.0256
37593W        W80505  31.140  16.353  22.306  0.0527  0.1946  0.0204
37594W        W80506  29.418  16.155  21.003  0.1889  0.1290 -0.0211
37595W        W80507  28.856  15.777  23.884 -0.0036  0.4691 -0.1290
37596W        W80508  32.924  15.423  23.669 -0.1814 -0.0198 -0.1027
37597W        W80509  28.431  18.324  22.800  0.0001  0.1037 -0.1815
37598W        W80510  33.562  16.566  20.090  0.0962 -0.0975  0.3604
37599W        W80511  29.643  16.602  20.872 -0.0237 -0.4194 -0.0541
37600W        W80512  30.822  16.492  21.866 -0.1550 -0.0894  0.0517
37601W        W80513  31.602  14.462  22.467  0.2123 -0.1880 -0.0578
37602W        W80514  30.755  17.354  19.753  0.5254 -0.3032 -0.0039
37603W        W80515  30.920  15.397  21.656 -0.3161  0.1471  0.5377
37604W        W80516  30.073  18.521  21.106 -0.2896 -0.0463 -0.1948
37605W        W80517  28.196  17.737  21.901  0.0641  0.0580  0.1088
37606W        W80518  29.824  18.193  22.607 -0.0715 -0.0524 -0.2805
37607W        W80519  28.595  15.557  20.327 -0.4097 -0.2637 -0.2992
37608W        W80520  32.884  15.813  21.442  0.0943  0.1540  0.0794
37609W        W80521  29.537  15.940  24.071 -0.3150 -0.4586 -0.0842
37610W        W80522  31.499  15.089  23.601  0.2784  0.1927 -0.1095
37611W        W80523  29.694  17.355  23.084  0.1561  0.1589 -0.0006
37612W        W80524  32.170  14.055  20.363  0.3287  0.2122 -0.2457
37613W        W80525  31.706  16.368  21.635 -0.0477 -0.0089 -0.0653
37614W        W80526  27.754  16.515  23.202  0.1010 -0.2892  0.0944
37615W        W80527  29.794  16.601  20.386 -0.2543 -0.1724 -0.2020
37616W        W80528  32.296  16.010  24.882 -0.1909  0.2968  0.3249
37617W        W80529  30.719  17.389  20.852 -0.0830  0.3381  0.1447
37618W        W80530  30.544  17.290  24.532  0.0923 -0.1086 -0.0718
37619W        W80531  28.886  15.511  21.603 -0.3415 -0.1632  0.0334
37620W        W80532  30.271  14.723  19.754 -0.0607  0.2243 -0.2032
37621W        W80533  30.620  16.962  20.662  0.1590  0.2490  0.1576
37622W        W80534  30.669  16.437  22.762  0.0433  0.1547 -0.0138
37623W        W80535  31.910  17.749  24.046 -0.4141  0.1120  0.0251
37624W        W80536  27.954  14.461  21.829 -0.0483 -0.0497 -0.1919
37625W        W80537  33.048  15.906  20.188 -0.0109 -0.1361  0.0667
37626W        W80538  33.173  16.990  22.721  0.2876 -0.1303  0.1644
37627W        W80539  31.535  17.667  21.213  0.0931  0.0700  0.0488
37628W        W80540  31.804  18.624  22.823 -0.0220 -0.2154 -0.0015
37629W        W80541  30.824  17.090  22.001  0.2340  0.0139  0.3240
37630W        W80542  29.963  16.034  22.456  0.0480  0.3151 -0.2424
37631W        W80543  31.834  18.168  21.588 -0.1446  0.0278 -0.2760
37632W        W80544  32.651  16.705  21.768 -0.0244 -0.1520 -0.1416
37633W        W80545  31.169  15.354  20.551  0.0488 -0.3852  0.0625
37634W        W80546  29.992  16.966  22.122  0.0695 -0.3356  0.5232
37635W        W80547  30.367  19.007  19.837 -0.0875  0.0096 -0.2663
37636W        W80548  32.192  15.569  23.291  0.2441 -0.0059 -0.1411
37637W        W80549  33.145  15.776  24.277  0.3082  0.1715 -0.0886
37638W        W80550  30.926  17.355  21.342 -0.1124 -0.0913  0.4249
37639W        W80551  31.636  13.445  23.990  0.0955  0.1437 -0.1119
37640W        W80552  31.470  16.628  22.612  0.0843 -0.0386  0.1578
37641W        W80553  28.530  17.730  23.453  0.1525  0.0209  0.1835
37642W        W80554  30.659  15.662  20.758 -0.1211 -0.1500  0.1203
37643W        W80555  30.452  17.254  22.877  0.1579 -0.1260  0.0470
37644W        W80556  31.744  16.689  22.162  0.0264 -0.1070 -0.5457
37645W        W80557  30.525  19.604  21.782 -0.3452  0.1318  0.3201
37646W        W80558  32.534  18.068  22.056  0.1623 -0.1680 -0.2198
37647W        W80559  31.240  16.826  22.028 -0.2724 -0.0173 -0.4572
37648W        W80560  32.900  17.222  21.569 -0.2414 -0.1556  0.0813
37649W        W80561  31.549  16.843  21.671  0.1469 -0.2808  0.2160
37650W        W80562  33.019  14.747  20.759  0.0971 -0.1872 -0.0205
37651W        W80563  30.857  14.543  20.186  0.1714  0.0473 -0.3251
37652W        W80564  28.025  16.774  22.356  0.1134  0.0853 -0.1853
37653W        W80565  28.946  16.307  21.175  0.1782  0.1278 -0.0426
37654W        W80566  29.861  18.872  19.669 -0.0455 -0.1803  0.1547
37655W        W80567  27.988  16.431  22.801 -0.1559  0.2484  0.0176
37656W        W80568  31.045  14.942  23.308  0.3222  0.1381 -0.1086
37657W        W80569  29.715  16.688  22.666 -0.3565  0.2304  0.0027
37658W        W80570  30.005  16.952  22.973  0.3492 -0.0085 -0.1901
37659W        W80571  28.630  15.669  20.839 -0.4124 -0.0896  0.2536
37660W        W80572  31.026  16.948  21.593 -0.1426 -0.3111  0.3212
37661W        W80573  29.547  16.859  21.716  0.2107  0.3138 -0.2235
37662W        W80574  30.848  15.759  22.194 -0.2887  0.0808  0.2108
37663W        W80575  32.317  17.586  21.746 -0.2840 -0.1012 -0.0126
37664W        W80576  31.391  18.230  21.254  0.0315  0.0676 -0.1626
37665W        W80577  30.417  17.088  21.196  0.1351 -0.0435  0.0866
37666W        W80578  31.400  17.571  23.776  0.1699 -0.0180 -0.2788
37667W        W80579  28.363  16.478  19.654 -0.2021  0.2671  0.1761
37668W        W80580  31.021  15.098  24.486  0.1588  0.2891  0.1854
37669W        W80581  30.069  14.608  23.713 -0.0861 -0.1794 -0.1293
37670W        W80582  29.041  15.773  21.126 -0.0387 -0.0611 -0.1653
37671W        W80583  30.733  14.946  22.676 -0.0168  0.0770  0.3395
37672W        W80584  30.360  16.624  22.069 -0.2382 -0.1693  0.0798
37673W        W80585  32.372  18.222  20.690 -0.0514 -0.2284 -0.0030
37674W        W80586  30.483  16.775  23.172  0.0188  0.2011  0.1424
37675W        W80587  30.041  17.323  24.266 -0.2165 -0.2602  0.1464
37676W        W80588  29.652  14.805  23.443 -0.1119 -0.0503 -0.0774
37677W        W80589  31.388  16.143  21.231  0.0856  0.0384  0.0611
37678W        W80590  31.188  15.848  23.803  0.1568  0.1036 -0.2055
37679W        W80591  33.079  16.445  20.815 -0.2246 -0.2533 -0.0377
37680W        W80592  32.694  15.334  22.297 -0.1605  0.0544 -0.2706
37681W        W80593  32.070  16.271  21.958  0.1569  0.3141 -0.2261
37682W        W80594  30.319  14.791  22.190 -0.0365 -0.0586  0.0281
37683W        W80595  30.744  18.229  23.474  0.0394 -0.1788 -0.2890
37684W        W80596  32.425  17.225  23.224 -0.0695 -0.0857  0.0370
37685W        W80597  30.720  16.213  22.280 -0.0388 -0.1825 -0.1946
37686W        W80598  31.112  15.270  21.139  0.0345  0.0158  0.2537
37687W        W80599  31.034  16.789  22.964  0.1638 -0.0538  0.2272
37688W        W80600  27.354  16.038  20.968  0.4073 -0.1889  0.0442
37689W        W80601  30.179  17.691  21.721  0.1868  0.2989  0.0498
37690W        W80602  31.099  15.348  23.600 -0.3162 -0.1856 -0.4165
37691W        W80603  32.428  16.988  21.387  0.4033  0.0199 -0.0785
37692W        W80604  32.422  15.918  22.997  0.1120  0.1559  0.2958
37693W        W80605  31.093  16.447  20.904  0.0995  0.3937  0.0580
37694W        W80606  31.363  16.676  21.276  0.2172  0.0519  0.0088
37695W        W80607  31.473  17.933  22.943 -0.2350 -0.0808 -0.0445
37696W        W80608  33.100  17.822  23.960  0.1228  0.2354  0.2353
37697W        W80609  30.885  17.156  22.609  0.0091  0.1414  0.0789
37698W        W80610  30.410  15.984  22.696 -0.2679 -0.2051 -0.0458
37699W        W80611  29.490  15.644  22.849 -0.0585  0.0137  0.2007
37700W        W80612  29.082  17.190  21.790 -0.0575  0.0630 -0.1663
37701W        W80613  30.953  15.508  23.129 -0.1543  0.0500  0.2198
37702W        W80614  32.349  15.981  22.516 -0.4302  0.0702 -0.0461
37703W        W80615  30.550  15.209  23.099  0.3183 -0.1652  0.1230
37704W        W80616  30.540  14.908  20.233 -0.0260  0.0536 -0.0626
37705W        W80617  29.621  18.899  23.151 -0.2268  0.0535 -0.4104
37706W        W80618  31.137  16.324  22.808  0.0424 -0.1208  0.0905
37707W        W80619  31.265  17.983  27.810  0.0197 -0.0032 -0.0461
37708W        W80620  30.309  16.733  24.206 -0.1967  0.1574  0.0925
37709W        W80621  33.180  15.201  25.003  0.0325 -0.1792 -0.3797
37710W        W80622  32.874  15.345  24.436  0.3337  0.1354  0.1696
37711W        W80623  29.441  14.633  25.332 -0.1877 -0.0394 -0.1420
37712W        W80624  33.055  17.407  24.726 -0.0547  0.0767 -0.0236
37713W        W80625  30.529  13.782  27.151  0.2474 -0.2699 -0.0366
37714W        W80626  31.505  15.353  24.550 -0.0527  0.0013 -0.2633
37715W        W80627  31.341  18.316  25.199  0.0113  0.1292  0.0249
37716W        W80628  33.192  16.228  24.081  0.3410 -0.0354 -0.0034
37717W        W80629  30.402  15.261  25.779 -0.2013  0.0671  0.0314
37718W        W80630  30.463  16.777  26.018  0.1475 -0.1647  0.2634
37719W        W80631  30.599  15.331  25.223 -0.3754  0.0065  0.0945
37720W        W80632  29.954  13.526  26.007 -0.1304 -0.3033  0.1164
37721W        W80633  32.002  15.726  26.896  0.1084 -0.1025  0.1883
37722W        W80634  29.094  16.216  23.920 -0.3865 -0.0717 -0.0607
37723W        W80635  29.689  15.888  26.090 -0.3776  0.1942  0.0222
37724W        W80636  29.453  15.353  26.455  0.1594 -0.3853 -0.0073
37725W        W80637  30.367  19.213  25.062  0.1268 -0.1054 -0.0098
37726W        W80638  30.500  16.044  26.702  0.0107  0.0591 -0.2549
37727W        W80639  32.005  14.403  27.795 -0.2927 -0.0493  0.3119
37728W        W80640  30.914  17.641  23.004  0.0139  0.5447 -0.0242
37729W        W80641  29.931  15.596  23.762  0.4994  0.3386  0.0157
37730W        W80642  30.054  15.709  26.427 -0.3048  0.0933  0.0929
37731W        W80643  30.613  15.977  26.120  0.0597 -0.1849  0.0984
37732W        W80644  31.490  15.190  25.568 -0.0026  0.1027  0.2141
37733W        W80645  32.280  15.540  25.098 -0.1392 -0.2113  0.2892
37734W        W80646  30.608  19.091  25.570  0.1033  0.0883  0.0160
37735W        W80647  31.830  17.776  24.560  0.1549  0.2587  0.2765
37736W        W80648  31.634  17.074  27.445 -0.2233  0.2268  0.1137
37737W        W80649  29.217  16.272  24.480  0.1412 -0.3161  0.0110
37738W        W80650  28.521  17.956  25.007  0.0920 -0.2498 -0.0999
37739W        W80651  30.462  18.051  24.884  0.0623 -0.2105 -0.2568
37740W        W80652  33.474  16.468  24.950 -0.0077 -0.2722  0.0744
37741W        W80653  32.001  17.736  25.686  0.1864  0.3051 -0.0952
37742W        W80654  30.943  18.628  28.119  0.1607 -0.1365  0.0609
37743W        W80655  29.290  17.381  24.004  0.1362 -0.1662 -0.0357
37744W        W80656  32.062  17.446  26.683  0.2651  0.2592  0.1536
37745W        W80657  31.378  17.289  26.188 -0.1226  0.2901 -0.0141
37746W        W80658  30.812  16.035  28.444  0.0358 -0.1272  0.1608
37747W        W80659  31.442  16.062  25.289  0.3743  0.0215 -0.3611
37748W        W80660  29.799  16.342  24.345  0.0374 -0.2865  0.1566
37749W        W80661  31.217  16.879  25.798  0.1747 -0.2048  0.0267
37750W        W80662  29.929  17.051  27.119 -0.0997 -0.1976 -0.1528
37751W        W80663  30.264  16.780  25.536 -0.2066  0.0235 -0.1441
37752W        W80664  31.666  16.612  27.079  0.1297  0.1510  0.1168
37753W        W80665  29.755  15.916  24.632  0.1107  0.0692 -0.0699
37754W        W80666  32.129  13.833  22.709  0.3558  0.0871 -0.1016
37755W        W80667  30.218  14.817  22.734  0.2048  0.1110  0.1042
37756W        W80668  30.717  16.378  24.130 -0.1484  0.0850 -0.0335
37757W        W80669  31.490  14.562  26.350  0.2713 -0.1692  0.0899
37758W        W80670  30.113  18.897  26.090 -0.2476  0.4144  0.0029
37759W        W80671  29.875  15.372  27.112 -0.2023  0.0415 -0.2084
37760W        W80672  32.219  17.831  25.103 -0.2380  0.0005  0.0544
37761W        W80673  29.842  15.176  22.796  0.3186 -0.3518 -0.3185
37762W        W80674  31.650  14.314  28.213  0.2239  0.0765  0.0444
37763W        W80675  30.676  17.783  26.629 -0.1884  0.3049 -0.0140
37764W        W80676  29.852  16.347  25.812  0.1153  0.1309 -0.1158
37765W        W80677  33.847  17.996  24.300  0.1166  0.2870 -0.0744
37766W        W80678  31.443  17.843  25.549  0.1643  0.0313  0.2572
37767W        W80679  30.785  16.652  25.440  0.0478 -0.1625 -0.1343
37768W        W80680  28.154  15.029  27.445 -0.2887  0.1905  0.4271
37769W        W80681  28.750  17.048  27.012  0.0928  0.0304 -0.0462
37770W        W80682  28.874  17.054  27.500 -0.2021 -0.1472  0.1907
37771W        W80683  30.350  17.151  25.201 -0.1255  0.1178 -0.0332
37772W        W80684  32.111  17.333  27.208 -0.0784  0.0434 -0.4171
37773W        W80685  28.376  17.899  28.541 -0.0763  0.1869  0.0138
37774W        W80686  32.227  14.949  24.966 -0.1318 -0.0736 -0.0254
37775W        W80687  30.429  16.335  25.256 -0.0001 -0.2200 -0.2486
37776W        W80688  31.661  17.296  26.942  0.0904  0.1127 -0.2109
37777W        W80689  32.358  15.946  24.311 -0.1815 -0.0948  0.2201
37778W        W80690  31.931  15.797  25.328 -0.0161 -0.1204 -0.1167
37779W        W80691  32.092  16.057  26.490 -0.3103  0.3731 -0.2403
37780W        W80692  31.223  17.079  23.740  0.2717 -0.1306  0.1587
37781W        W80693  31.107  17.201  24.211  0.2417 -0.0384 -0.2039
37782W        W80694  32.015  18.145  26.676  0.0403 -0.1998  0.0730
37783W        W80695  32.256  16.220  25.356 -0.2066 -0.4285 -0.2017
37784W        W80696  28.684  15.337  23.740  0.1670  0.0265  0.1130
37785W        W80697  31.589  15.698  25.655 -0.0140  0.1624  0.0408
37786W        W80698  31.620  17.731  26.576 -0.2226 -0.1514 -0.0579
37787W        W80699  29.770  18.288  23.608 -0.0422  0.0734 -0.1456
37788W        W80700  29.314  16.707  25.307  0.0013 -0.1004 -0.0239
37789W        W80701  30.110  17.658  23.671 -0.1398  0.1335  0.2064
37790W        W80702  29.294  15.515  26.003 -0.3618 -0.2010  0.0130
37791W        W80703  31.101  15.770  26.328  0.1808  0.0162 -0.0109
37792W        W80704  33.299  16.152  24.560  0.1307  0.2166  0.4052
37793W        W80705  30.433  14.886  27.724  0.2129  0.2464 -0.0015
37794W        W80706  32.138  15.214  27.220 -0.2062 -0.2639  0.3371
37795W        W80707  29.518  17.034  24.937 -0.0828 -0.1591 -0.2692
37796W        W80708  33.007  16.731  24.795  0.0913  0.1302  0.2049
37797W        W80709  32.707  15.655  24.014  0.1605 -0.0338 -0.1595
37798W        W80710  32.461  17.024  24.561  0.2412  0.1910  0.0274
37799W        W80711  30.709  15.618  26.580 -0.0713  0.2221  0.1209
37800W        W80712  28.242  15.990  25.340 -0.1056  0.2458  0.1666
37801W        W80713  30.583  16.423  27.689  0.1042  0.0404  0.1939
37802W        W80714  29.130  14.887  26.588 -0.1649  0.1060  0.1585
37803W        W80715  33.081  17.395  28.058  0.0897 -0.2566  0.0908
37804W        W80716  29.302  15.479  25.414 -0.2967  0.0601  0.1339
37805W        W80717  32.682  14.630  25.598 -0.3808  0.0536 -0.0663
37806W        W80718  30.902  16.143  25.507  0.2641  0.1833 -0.1668
37807W        W80719  28.610  17.205  22.851  0.1023  0.0461 -0.1703
37808W        W80720  32.728  16.243  27.512  0.0165 -0.1723  0.1218
37809W        W80721  31.340  17.017  24.606  0.2825 -0.1077  0.1146
37810W        W80722  32.247  18.396  26.307 -0.0317  0.3312  0.2226
37811W        W80723  32.874  17.268  25.217 -0.1301 -0.0513 -0.2029
37812W        W80724  29.836  16.043  28.155  0.1171 -0.0246 -0.1267
37813W        W80725  29.090  16.081  25.369  0.0189 -0.2294  0.0084
37814W        W80726  29.904  18.224  25.302  0.4811 -0.0744  0.0209
37815W        W80727  31.121  15.883  25.853  0.1536 -0.1363  0.2495
37816W        W80728  29.928  14.581  25.276 -0.0654  0.3173  0.0932
37817W        W80729  32.342  18.336  25.159 -0.1807 -0.0192  0.0812
37818W        W80730  29.880  16.960  25.218  0.3184  0.0628 -0.3156
37819W        W80731  29.797  16.614  26.859  0.0997 -0.1697 -0.1720
37820W        W80732  32.203  14.806  27.928  0.0577 -0.0057 -0.2317
37821W        W80733  32.354  17.754  27.188  0.0513  0.0239 -0.1037
37822W        W80734  29.902  15.403  25.620 -0.0887 -0.2155  0.2889
37823W        W80735  29.667  14.878  24.754 -0.1697 -0.0216 -0.0964
37824W        W80736  32.172  17.119  25.439 -0.1236 -0.2327  0.2360
37825W        W80737  29.404  18.001  23.447 -0.0927 -0.2318 -0.1315
37826W        W80738  28.528  17.478  24.823 -0.0248 -0.1435 -0.1023
37827W        W80739  31.240  17.633  24.469 -0.0013  0.0135 -0.0617
37828W        W80740  32.100  14.877  26.297 -0.1972 -0.1500 -0.1342
37829W        W80741  28.929  16.174  29.043  0.1698 -0.6495  0.2222
37830W        W80742  32.111  16.946  26.824  0.0859  0.0700  0.4268
37831W        W80743  29.207  15.374  23.859  0.0694 -0.2178  0.0663
37832W        W80744  30.657  18.115  27.211 -0.3057 -0.0252 -0.2683
37833W        W80745  31.985  15.245  24.632 -0.1041 -0.0210  0.5128
37834W        W80746  32.333  15.366  24.151  0.0978  0.0879 -0.1085
37835W        W80747  32.226  16.384  26.825 -0.0810  0.3602 -0.1813
37836W        W80748  32.414  15.121  25.504  0.4473  0.0833 -0.1846
37837W        W80749  32.703  14.872  23.144  0.2380 -0.1422  0.1678
37838W        W80750  32.136  14.309  24.121 -0.0125 -0.1960 -0.2112
37839W        W80751  30.551  18.010  27.704  0.1305 -0.2895  0.3038
37840W        W80752  30.892  16.732  24.423  0.2329  0.2068 -0.0616
37841W        W80753  31.963  15.298  25.417 -0.0747  0.0003  0.3475
37842W        W80754  31.531  14.424  24.975 -0.0148 -0.1028  0.0601
37843W        W80755  33.117  18.103  25.662 -0.1819  0.1026  0.1188
37844W        W80756  29.130  16.048  25.905  0.2077  0.3341  0.3321
37845W        W80757  31.011  16.079  27.503 -0.4767 -0.2524 -0.1276
37846W        W80758  31.125  17.933  24.940 -0.2375 -0.0995 -0.0740
37847W        W80759  30.514  14.222  26.212  0.1661  0.1297  0.1497
37848W        W80760  31.401  16.454  24.639  0.0355 -0.0551  0.0195
37849W        W80761  31.825  14.710  25.381 -0.0041  0.1384 -0.5707
37850W        W80762  29.633  17.530  24.831 -0.0454 -0.1737  0.0705
37851W        W80763  31.179  14.783  25.358 -0.0664  0.1345  0.0875
37852W        W80764  32.139  14.733  25.797  0.1099 -0.1949  0.0591
37853W        W80765  30.640  15.895  27.192  0.0382  0.0735 -0.0575
37854W        W80766  31.575  16.535  27.592  0.0582  0.3036  0.1966
37855W        W80767  32.770  16.036  24.651  0.1463 -0.0482  0.2632
37856W        W80768  31.212  16.462  26.744  0.1376  0.0817 -0.0628
37857W        W80769  29.546  17.143  24.498  0.0935  0.0085  0.0835
37858W        W80770  30.088  16.238  27.690 -0.0893  0.0512  0.0072
37859W        W80771  31.334  16.288  25.750 -0.1261 -0.0646 -0.0696
37860W        W80772  28.941  17.470  26.991 -0.1865  0.0650  0.0967
37861W        W80773  32.396  17.204  26.430  0.1019  0.0694  0.3305
37862W        W80774  32.223  15.794  23.817 -0.0759 -0.0432  0.0375
37863W        W80775  31.417  15.213  27.953 -0.1041 -0.1424 -0.2717
37864W        W80776  31.046  14.877  23.816  0.0275 -0.3585 -0.1497
37865W        W80777  30.912  18.380  23.921  0.2212  0.0308  0.0498
37866W        W80778  31.489  16.872  24.123  0.0306  0.1900 -0.0037
37867W        W80779  31.535  15.491  25.074  0.4378 -0.0725 -0.0369
37868W        W80780  31.671  16.834  24.909  0.0981 -0.2788 -0.2107
37869W        W80781  29.305  16.555  22.959  0.2658  0.2247 -0.1623
37870W        W80782  30.870  16.505  25.921 -0.1576  0.0406 -0.2905
37871W        W80783  30.180  17.784  24.561  0.0418 -0.0424 -0.0994
37872W        W80784  31.896  16.194  27.184 -0.1494  0.1685 -0.0132
37873W        W80785  30.977  17.257  24.779 -0.0611  0.2702 -0.0271
37874W        W80786  30.556  15.369  24.675  0.1250  0.3296 -0.1215
37875W        W80787  27.822  16.403  23.810  0.0489  0.1418 -0.0976
37876W        W80788  32.656  16.171  26.436  0.3339 -0.4244  0.0292
37877W        W80789  32.881  17.097  24.345 -0.3693  0.2010 -0.1216
37878W        W80790  29.454  14.909  26.171  0.0655  0.0278 -0.1531
37879W        W80791  31.157  13.813  25.651 -0.0571  0.1241  0.0640
37880W        W80792  30.575  16.851  24.822  0.4140 -0.0084 -0.0549
37881W        W80793  32.048  16.753  27.347 -0.1836 -0.1591 -0.2507
37882W        W80794  32.390  13.829  25.291 -0.0274 -0.1477 -0.1247
37883W        W80795  31.226  16.263  26.252 -0.1530 -0.5847 -0.0622
37884W        W80796  30.638  17.179  27.823  0.0754  0.2015 -0.2482
37885W        W80797  28.416  15.696  24.165  0.1154 -0.0426 -0.1705
37886W        W80798  31.967  15.769  27.439  0.0720  0.0516  0.2278
37887W        W80799  30.406  15.785  25.039  0.1856  0.0514  0.0308
37888W        W80800  30.480  17.208  25.699  0.1733 -0.0221 -0.0833
37889W        W80801  31.422  17.062  25.394  0.1284  0.1022  0.4096
37890W        W80802  28.864  16.579  25.013 -0.0341  0.0308 -0.0677
37891W        W80803  28.956  17.012  24.157  0.2160  0.0340 -0.2583
37892W        W80804  30.354  15.072  27.194 -0.1408  0.0548  0.1085
37893W        W80805  32.097  16.893  25.949 -0.1153 -0.0386  0.1587
37894W        W80806  31.964  15.567  26.399 -0.1696  0.6483 -0.0959
37895W        W80807  29.057  15.256  24.631 -0.1547  0.0195  0.1801
37896W        W80808  31.565  15.833  26.144 -0.0283 -0.1896  0.0508
37897W        W80809  32.703  16.192  25.903 -0.0044 -0.2501  0.0211
37898W        W80810  29.963  14.501  26.950 -0.0950 -0.0288 -0.2607
37899W        W80811  31.394  18.646  27.079  0.0643  0.0710 -0.3118
37900W        W80812  30.877  15.459  26.992  0.0264 -0.1632 -0.1109
37901W        W80813  32.517  17.440  24.886 -0.0848 -0.0269  0.2465
37902W        W80814  33.221  15.513  28.159  0.3238  0.0886 -0.0030
37903W        W80815  29.081  17.705  23.108  0.1693  0.2648 -0.1635
37904W        W80816  29.448  17.316  25.419  0.1549  0.0174  0.2157
37905W        W80817  28.757  15.923  23.372  0.1583 -0.1822  0.3904
37906W        W80818  30.949  15.125  25.690  0.0501 -0.0195  0.0871
37907W        W80819  29.888  16.692  26.280  0.3737  0.1449 -0.0171
37908W        W80820  28.684  15.923  25.074  0.1899 -0.2366  0.2137
37909W        W80821  30.966  17.629  26.219  0.1470 -0.2210  0.1747
37910W        W80822  32.666  14.075  24.362 -0.0825 -0.3893  0.1519
37911W        W80823  32.422  15.785  25.564  0.1377 -0.0090 -0.0906
37912W        W80824  31.225  15.340  26.569 -0.3579  0.4381 -0.1673
37913W        W80825  31.344  16.219  28.542 -0.0794  0.1383 -0.3441
37914W        W80826  31.797  15.057  24.104 -0.2335  0.0977 -0.3881
37915W        W80827  31.902  14.048  29.029 -0.0765  0.3102  0.1683
37916W        W80828  30.680  15.345  27.494 -0.2288  0.1191  0.4487
37917W        W80829  31.855  16.256  24.914 -0.2529  0.2534  0.0622
37918W        W80830  29.254  15.855  26.389  0.2345  0.1641  0.0964
37919W        W80831  32.871  18.800  27.067 -0.1781 -0.0992  0.0049
37920W        W80832  29.412  17.076  27.038 -0.2177  0.3823 -0.0210
37921W        W80833  31.613  14.207  23.846 -0.0046  0.1046  0.2873
37922W        W80834  31.130  14.738  24.877 -0.1015 -0.1638 -0.0093
37923W        W80835  31.874  15.719  24.823  0.2932  0.2345  0.1374
37924W        W80836  31.827  16.229  25.578  0.4803 -0.3822  0.0071
37925W        W80837  30.582  15.745  25.641  0.0144  0.2510 -0.3171
37926W        W80838  33.067  13.946  26.307 -0.1821 -0.2502  0.1670
37927W        W80839  29.200  17.085  25.781 -0.0123 -0.0817 -0.0317
37928W        W80840  32.717  15.295  24.947 -0.1839  0.1528 -0.0682
37929W        W80841  30.267  16.223  24.340 -0.1589  0.3111 -0.0664
37930W        W80842  28.483  15.384  25.719  0.3570  0.1147  0.0711
37931W        W80843  29.766  14.852  27.910 -0.0471  0.1419 -0.0548
37932W        W80844  32.090  14.651  24.567 -0.0091  0.2191 -0.0496
37933W        W80845  31.776  15.349  25.960  0.2845  0.0778  0.1434
37934W        W80846  31.621  15.285  26.856 -0.0145 -0.0959  0.1500
37935W        W80847  32.478  16.061  27.150 -0.1482  0.1898 -0.0008
37936W        W80848  30.026  15.594  29.382  0.0669  0.0035 -0.2597
37937W        W80849  29.311  15.367  27.095 -0.3203  0.2283  0.2468
37938W        W80850  31.157  18.521  26.148 -0.1143  0.1888  0.0886
37939W        W80851  32.321  16.409  23.744  0.0160  0.0174  0.0373
37940W        W80852  32.721  16.654  27.764 -0.1086  0.1428 -0.1594
37941W        W80853  32.904  17.161  26.592  0.0663 -0.0164 -0.2146
37942W        W80854  31.166  15.211  25.077  0.0346  0.1098 -0.1876
37943W        W80855  30.073  14.892  26.185  0.1856 -0.1900  0.2019
37944W        W80856  32.641  18.522  27.469 -0.1922  0.1924  0.1007
37945W        W80857  29.469  15.066  24.315 -0.1997  0.0383 -0.2233
37946W        W80858  31.764  14.817  28.190 -0.3729  0.1557  0.2207
37947W        W80859  31.378  15.871  24.719 -0.0150 -0.1318  0.1501
37948W        W80860  29.679  16.900  25.713  0.2424 -0.2053  0.1313
37949W        W80861  30.259  17.067  23.903 -0.0803 -0.0802  0.2189
37950W        W80862  30.597  15.866  24.213 -0.0085 -0.1935 -0.0713
37951W        W80863  31.259  18.686  28.575 -0.1068 -0.0016 -0.0366
37952W        W80864  29.262  15.865  23.619  0.0094 -0.1321  0.2321
37953W        W80865  29.991  16.522  23.916 -0.0021 -0.4371  0.0988
37954W        W80866  30.686  16.875  27.390 -0.1548  0.1301 -0.0449
37955W        W80867  33.583  17.343  27.859  0.0235  0.0887  0.3200
37956W        W80868  30.353  15.414  24.222  0.3369 -0.2230  0.0986
37957W        W80869  32.402  16.746  28.422 -0.0092  0.1372 -0.2957
37958W        W80870  28.804  18.238  23.358 -0.2033 -0.0357  0.2055
37959W        W80871  30.389  13.461  25.124 -0.1622  0.2935  0.0114
37960W        W80872  30.905  17.148  26.074 -0.1158 -0.1992  0.0861
37961W        W80873  30.425  17.429  26.419  0.1016 -0.0219  0.1808
37962W        W80874  30.691  16.994  24.038 -0.1144 -0.2805  0.1519
37963W        W80875  32.108  14.801  27.471  0.0237  0.2007  0.1439
37964W        W80876  31.508  15.973  27.609  0.1304 -0.1473 -0.1248
37965W        W80877  32.279  15.388  25.956 -0.1017  0.0475 -0.2890
37966W        W80878  32.446  15.913  27.737 -0.1088 -0.0409 -0.1091
37967W        W80879  31.741  17.261  25.721  0.1452  0.2068  0.1714
37968W        W80880  30.155  15.920  25.871  0.0078  0.1656 -0.0584
37969W        W80881  31.821  18.398  27.088  0.0447  0.1061  0.0009
37970W        W80882  32.940  15.833  25.612 -0.0591  0.0540 -0.2760
37971W        W80883  29.859  16.465  25.353 -0.2830 -0.2402 -0.1069
37972W        W80884  28.573  15.826  28.204  0.2482 -0.3597  0.1797
37973W        W80885  31.401  16.207  27.162  0.1461  0.4658 -0.0720
37974W        W80886  31.715  16.359  26.662 -0.1239 -0.0218  0.1839
37975W        W80887  31.097  16.615  23.948 -0.1930 -0.2372 -0.0445
37976W        W80888  31.864  16.125  24.465  0.1317  0.2356 -0.1576
37977W        W80889  30.413  16.862  27.012  0.1044  0.3359  0.3280
37978W        W80890  29.149  17.307  28.046 -0.1508  0.0237  0.3076
37979W        W80891  29.524  17.795  25.210 -0.0352  0.2124 -0.1209
37980W        W80892  31.897  17.449  23.431  0.2141 -0.1324 -0.1065
37981W        W80893  31.618  15.487  23.858 -0.1234  0.0786 -0.1365
37982W        W80894  31.212  17.424  25.740 -0.0821 -0.1294 -0.2206
37983W        W80895  30.092  15.363  24.937  0.2116  0.1215 -0.1379
37984W        W80896  30.100  16.666  24.769  0.0385 -0.1094  0.0954
37985W        W80897  28.741  18.772  24.372  0.2834  0.0934 -0.0114
37986W        W80898  31.333  16.560  25.359 -0.0287  0.0018  0.0647
37987W        W80899  29.156  16.853  24.613  0.0136  0.1074 -0.2128
37988W        W80900  31.655  17.703  26.025  0.4788  0.1048  0.4240
37989W        W80901  32.037  15.218  23.687 -0.2258  0.1578 -0.1544
37990W        W80902  31.998  15.847  25.902  0.2253  0.2587 -0.0833
37991W        W80903  32.443  15.559  24.604  0.1301  0.0107  0.1145
37992W        W80904  32.644  17.628  28.095 -0.2070  0.2323  0.0895
37993W        W80905  30.215  16.267  26.215 -0.0861 -0.0192 -0.1348
37994W        W80906  29.125  14.448  24.183  0.0632 -0.1537  0.1289
37995W        W80907  30.370  16.775  27.972  0.0451 -0.0450 -0.0033
37996W        W80908  33.351  15.029  27.767  0.3085  0.1997 -0.2260
37997W        W80909  28.789  19.795  27.956 -0.0862  0.0842 -0.2016
37998W        W80910  31.853  17.428  25.234 -0.0181  0.0343 -0.0381
37999W        W80911  29.264  15.070  25.101 -0.4297  0.0354 -0.1813
38000W        W80912  28.840  15.698  25.609 -0.0576  0.2087  0.0681
38001W        W80913  31.661  14.829  26.904 -0.0568  0.1009 -0.0996
38002W        W80914  30.003  15.043  24.407 -0.2130 -0.0740  0.0603
38003W        W80915  31.546  15.890  26.659 -0.0126  0.1079  0.3707
38004W        W80916  30.045  17.672  25.152 -0.3034  0.0094  0.1054
38005W        W80917  31.046  15.974  26.822  0.1866  0.1748  0.1662
38006W        W80918  31.280  18.036  26.020  0.0922 -0.2342 -0.1977
38007W        W80919  29.969  15.966  25.419 -0.0852  0.0371 -0.0393
38008W        W80920  33.778  15.641  26.047  0.0817  0.2949  0.0638
38009W        W80921  29.447  14.520  27.227 -0.2832  0.0261  0.1000
38010W        W80922  32.376  14.482  26.205 -0.1326  0.2127 -0.1499
38011W        W80923  30.244  15.019  25.378 -0.2256  0.0195  0.2285
38012W        W80924  32.575  14.472  24.708  0.0226 -0.0114 -0.2792
38013W        W80925  30.506  17.290  26.931 -0.1229  0.0171 -0.1110
38014W        W80926  30.636  13.811  27.667 -0.0603  0.0002  0.1299
38015W        W80927  30.038  15.876  24.138  0.1510 -0.0290 -0.1192
38016W        W80928  31.586  16.860  26.629 -0.2854 -0.1233 -0.0690
38017W        W80929  30.990  15.620  24.457  0.4802 -0.0468 -0.2673
38018W        W80930  31.770  18.586  26.069 -0.0804  0.1962  0.1999
38019W        W80931  31.634  15.385  27.348  0.2874  0.0535  0.1113
38020W        W80932  31.678  14.984  25.007 -0.0688  0.1440 -0.1188
38021W        W80933  29.415  16.362  26.300 -0.4359 -0.0884  0.1804
38022W        W80934  30.746  16.380  26.948 -0.2478  0.1693 -0.0644
38023W        W80935  32.062  17.827  26.310  0.1298  0.0267 -0.2578
38024W        W80936  30.756  14.712  25.554  0.3093 -0.1083  0.2898
38025W        W80937  32.097  16.749  21.735 -0.1937  0.1345 -0.1082
38026W        W80938  32.463  16.647  25.496 -0.2285 -0.0448  0.3153
38027W        W80939  29.444  17.903  23.932 -0.2747  0.1057 -0.0193
38028W        W80940  33.580  16.086  26.339 -0.1056  0.1713 -0.0940
38029W        W80941  30.801  18.106  25.282  0.2451  0.1843 -0.3646
38030W        W80942  30.288  16.504  26.658  0.1994  0.0568 -0.4953
38031W        W80943  31.573  16.733  26.121  0.0350 -0.3268 -0.2344
38032W        W80944  33.858  16.996  25.151 -0.4731  0.3440 -0.1312
38033W        W80945  32.023  13.437  25.307 -0.0646 -0.1867  0.1201
38034W        W80946  28.854  16.744  26.595 -0.1077 -0.3989  0.1683
38035W        W80947  29.230  17.883  24.818 -0.3980  0.1578  0.0564
38036W        W80948  33.101  15.212  26.224  0.1952  0.2023  0.2110
38037W        W80949  31.901  15.289  27.758  0.2992 -0.1710  0.0143
38038W        W80950  29.576  16.565  24.743 -0.1406  0.1327  0.1660
38039W        W80951  31.462  14.492  27.814  0.1028  0.3744  0.0006
38040W        W80952  31.633  18.150  27.487  0.1644  0.3272  0.1792
38041W        W80953  30.720  17.612  25.023 -0.0794 -0.1457 -0.0617
38042W        W80954  28.634  15.444  23.243  0.0874 -0.2973 -0.1982
38043W        W80955  30.964  16.657  27.903  0.1910  0.2353  0.1509
38044W        W80956  31.072  16.233  25.026 -0.1415 -0.1698  0.0714
38045W        W80957  29.688  17.655  24.331 -0.2036 -0.1010  0.0529
38046W        W80958  32.561  16.778  26.080 -0.2718 -0.5260 -0.1430
38047W        W80959  30.171  15.670  24.574  0.2125  0.4118  0.2996
38048W        W80960  33.950  16.750  26.162  0.0990 -0.0540 -0.0917
38049W        W80961  30.215  14.900  24.879  0.0396  0.2298 -0.0623
38050W        W80962  33.751  14.326  25.498 -0.3695 -0.3265 -0.0120
38051W        W80963  33.167  14.807  25.321 -0.0555  0.1562 -0.1158
38052W        W80964  31.326  15.733  27.195  0.0446  0.1006 -0.2676
38053W        W80965  27.998  14.405  24.197 -0.0783 -0.1759  0.1165
38054W        W80966  28.916  17.529  22.608 -0.2692  0.0421  0.3437
38055W        W80967  30.093  17.042  26.637 -0.1233  0.1381  0.2122
38056W        W80968  30.895  15.690  27.801 -0.0077  0.0857  0.2920
38057W        W80969  30.202  15.778  27.360  0.0071  0.0765 -0.1831
38058W        W80970  29.236  15.842  24.834  0.1284 -0.0462 -0.0998
38059W        W80971  29.335  14.340  24.926 -0.0883  0.1557 -0.0844
38060W        W80972  32.411  16.632  24.263  0.0131  0.0359  0.2614
38061W        W80973  31.275  15.406  26.012  0.1156 -0.3250 -0.1457
38062W        W80974  30.787  15.402  26.078  0.1484 -0.3081  0.0612
38063W        W80975  31.492  15.812  24.203  0.0856 -0.1709  0.0373
38064W        W80976  31.609  17.408  24.767 -0.0723 -0.2981 -0.0203
38065W        W80977  31.309  15.160  24.096 -0.0448 -0.1708 -0.3786
38066W        W80978  32.105  18.675  26.700  0.2101 -0.0496 -0.1565
38067W        W80979  28.454  16.211  21.367 -0.0188 -0.1181  0.1468
38068W        W80980  30.197  16.695  27.407 -0.1836 -0.1077  0.1483
38069W        W80981  29.914  14.444  28.987  0.1623  0.1170  0.0377
38070W        W80982  29.444  15.152  23.121 -0.3042 -0.0908  0.0349
38071W        W80983  30.725  16.406  26.392 -0.1052  0.1073 -0.1544
38072W        W80984  32.803  18.798  25.062 -0.3024 -0.0661  0.0387
38073W        W80985  31.739  18.591  24.581 -0.3290 -0.0748 -0.0012
38074W        W80986  31.039  16.760  26.349 -0.3527 -0.1524 -0.1669
38075W        W80987  30.521  18.704  27.872  0.0292  0.0622  0.1005
38076W        W80988  29.295  14.005  26.520 -0.3286  0.2992 -0.0631
38077W        W80989  31.926  16.597  24.119  0.1097  0.1469  0.2186
38078W        W80990  31.846  17.852  27.067  0.0655  0.6349 -0.3211
38079W        W80991  33.127  16.397  23.581  0.2505 -0.2167 -0.2025
38080W        W80992  31.778  16.277  26.113  0.0846 -0.2461  0.2034
38081W        W80993  32.462  15.025  24.461  0.1231  0.0832 -0.0788
38082W        W80994  30.276  13.556  28.192  0.1019  0.3685  0.1315
38083W        W80995  30.903  17.355  27.279  0.0116  0.1284 -0.1547
38084W        W80996  33.133  16.863  26.179 -0.0687  0.1496 -0.2361
38085W        W80997  29.756  15.082  25.256  0.0535 -0.1227  0.2438
38086W        W80998  31.091  16.143  24.297 -0.2166  0.2750 -0.1818
38087W        W80999  31.073  16.728  24.901  0.2589 -0.0403 -0.0881
38088W        W81000  30.364  15.311  26.393  0.1619  0.0947 -0.3664
38089W        W81001  31.454  14.848  24.521  0.1251  0.1020  0.1265
38090W        W81002  31.068  17.388  26.686 -0.1513  0.0387  0.0600
38091W        W81003  31.732  16.742  25.626 -0.1442 -0.1847 -0.1250
38092W        W81004  31.874  17.210  26.276 -0.2665 -0.0524  0.4096
38093W        W81005  30.220  15.729  23.368 -0.0110  0.0659 -0.1366
38094W        W81006  32.730  16.142  23.960  0.0740  0.0790 -0.0615
38095W        W81007  31.639  17.886  25.030 -0.0052 -0.4430  0.0303
38096W        W81008  32.613  19.289  27.895 -0.2243  0.3541 -0.2540
38097W        W81009  30.925  18.285  25.767  0.1768 -0.0917 -0.1082
38098W        W81010  33.386  17.438  25.226  0.3520  0.0303 -0.1142
38099W        W81011  31.750  14.363  27.404  0.1372  0.2084  0.1523
38100W        W81012  30.444  16.590  23.697 -0.3378 -0.0643  0.2843
38101W        W81013  31.309  16.291  23.545  0.0208  0.1376  0.3719
38102W        W81014  32.205  15.284  26.722  0.1883  0.4264  0.2452
38103W        W81015  30.940  15.681  24.968  0.1620  0.1284 -0.0205
38104W        W81016  31.134  15.597  25.460  0.3361  0.0943  0.3895
38105W        W81017  29.713  18.112  26.464 -0.1338  0.0295 -0.2071
38106W        W81018  32.060  16.705  26.384 -0.0387  0.1048  0.4421
38107W        W81019  30.698  16.151  29.752  0.0852  0.2206  0.1978
38108W        W81020  30.768  15.215  28.878  0.2474  0.0239  0.1417
38109W        W81021  30.385  16.251  28.870  0.0140  0.3514  0.2755
38110W        W81022  32.670  14.987  30.579 -0.3048 -0.1652 -0.3498
38111W        W81023  30.023  15.961  26.929  0.1458  0.0775 -0.0582
38112W        W81024  33.336  17.466  29.155 -0.0359 -0.0527 -0.0737
38113W        W81025  29.196  14.980  30.351  0.0660  0.0566  0.0645
38114W        W81026  31.812  17.565  29.941  0.0031  0.0030  0.2305
38115W        W81027  31.705  18.061  30.084  0.0107  0.1730 -0.1209
38116W        W81028  30.973  17.063  29.142  0.0462 -0.0791 -0.0316
38117W        W81029  29.945  16.302  30.036 -0.0258  0.3304 -0.0566
38118W        W81030  30.009  17.868  29.456  0.0323  0.0791  0.2980
38119W        W81031  30.396  15.450  27.993  0.0581  0.0626 -0.2419
38120W        W81032  29.128  14.900  29.866 -0.2632  0.0681 -0.2194
38121W        W81033  32.392  17.160  28.940  0.1876 -0.2760  0.1081
38122W        W81034  29.097  16.777  28.274  0.0423  0.1410 -0.0479
38123W        W81035  29.506  15.873  30.880  0.1458  0.0345 -0.0797
38124W        W81036  30.403  14.872  28.741 -0.1907  0.0530 -0.2053
38125W        W81037  31.052  19.049  29.049 -0.1294  0.3714  0.1732
38126W        W81038  31.241  13.373  31.404  0.3261  0.1691 -0.1027
38127W        W81039  30.256  15.352  31.146  0.3416 -0.1440  0.1798
38128W        W81040  30.633  17.644  28.121 -0.3108  0.1755  0.0174
38129W        W81041  29.741  16.693  27.578  0.0599  0.1662 -0.0914
38130W        W81042  29.929  16.642  28.902 -0.0421  0.0107 -0.1593
38131W        W81043  29.572  15.635  30.397 -0.0183  0.2636 -0.3788
38132W        W81044  32.497  16.484  29.390 -0.1285  0.2550  0.1418
38133W        W81045  30.932  15.699  29.644  0.0340  0.3288  0.1195
38134W        W81046  30.148  16.990  29.229  0.2081  0.0817 -0.2944
38135W        W81047  31.268  18.701  30.640  0.0754 -0.0349 -0.1187
38136W        W81048  31.357  15.436  31.286 -0.2811  0.2801  0.3113
38137W        W81049  28.198  17.207  29.985 -0.2254  0.5273 -0.0454
38138W        W81050  28.320  18.969  29.438 -0.0700  0.1147 -0.1329
38139W        W81051  31.455  18.421  28.062 -0.3207 -0.0276 -0.2531
38140W        W81052  32.755  16.834  28.856 -0.0657 -0.0338 -0.1358
38141W        W81053  32.784  18.711  29.752 -0.0777 -0.1923 -0.1381
38142W        W81054  30.699  17.012  29.924 -0.1090  0.1101  0.5681
38143W        W81055  30.158  17.063  28.748 -0.3127  0.0354 -0.1563
38144W        W81056  32.028  17.661  31.398  0.3390 -0.2349 -0.0677
38145W        W81057  30.604  17.047  30.651  0.1752  0.0375 -0.0891
38146W        W81058  31.876  17.036  28.858 -0.1316  0.0536 -0.2445
38147W        W81059  29.962  16.233  29.179 -0.1007 -0.1792 -0.0180
38148W        W81060  31.028  17.991  28.211  0.1234 -0.0584 -0.0177
38149W        W81061  31.155  17.043  27.597  0.2021  0.3491  0.3122
38150W        W81062  29.270  15.335   1.166 -0.0218  0.0538  0.0091
38151W        W81063  29.567  17.641  30.267 -0.0446 -0.1558  0.1919
38152W        W81064  31.575  15.455  30.547  0.1113  0.0043 -0.0509
38153W        W81065  31.062  19.123  26.967  0.1312 -0.1575  0.0535
38154W        W81066  32.563  15.908  28.921  0.1831  0.0090  0.1079
38155W        W81067  30.680  16.798  28.309  0.0143  0.0398 -0.2548
38156W        W81068  31.210  14.936  28.945 -0.4273 -0.1959  0.0898
38157W        W81069  28.959  14.199  28.855  0.0191 -0.2481  0.2225
38158W        W81070  30.247  18.757  28.463 -0.0789 -0.0093  0.1810
38159W        W81071  29.981  14.706  28.555  0.1861 -0.0048 -0.0866
38160W        W81072  32.393  17.703  30.141  0.1615  0.0269 -0.0553
38161W        W81073  32.136  17.971  29.833 -0.4275 -0.1218  0.3195
38162W        W81074  31.472  16.630  29.557 -0.0909  0.1994 -0.1210
38163W        W81075  30.321  18.313  28.705 -0.2254  0.0876 -0.2891
38164W        W81076  28.075  15.531  28.607  0.0177  0.4771 -0.2220
38165W        W81077  32.052  19.327  28.616 -0.2384  0.2248 -0.0275
38166W        W81078  32.403  18.844  30.139  0.0754 -0.3815  0.1127
38167W        W81079  31.681  18.161  28.487  0.3921  0.2829  0.3146
38168W        W81080  28.788  16.661  28.681  0.2384 -0.2158  0.1024
38169W        W81081  27.426  16.270  31.432 -0.2784 -0.1035  0.2129
38170W        W81082  29.163  16.623  29.807 -0.0245 -0.0171  0.0541
38171W        W81083  30.422  13.286  27.452  0.1136  0.3636 -0.0830
38172W        W81084  32.394  16.294  30.711  0.1433 -0.0531 -0.0275
38173W        W81085  30.292  16.507  31.825  0.1359  0.0200  0.2160
38174W        W81086  32.953  14.613  28.545 -0.1729  0.2038  0.2893
38175W        W81087  29.603  15.362  29.068  0.1070 -0.2205  0.0188
38176W        W81088  31.423  18.691  29.229 -0.1889  0.1644  0.0433
38177W        W81089  31.745  18.680  28.381 -0.1914  0.1912 -0.2015
38178W        W81090  31.646  15.065  28.644 -0.1531 -0.0751 -0.1529
38179W        W81091  29.756  13.765  29.500 -0.0482  0.1452  0.1191
38180W        W81092  30.576  16.908  26.467  0.1435  0.2999  0.1441
38181W        W81093  30.883  17.084  28.642  0.2195  0.1549  0.0422
38182W        W81094  32.451  18.243  30.072 -0.0913  0.0121 -0.2813
38183W        W81095  33.999  16.519  28.505 -0.1741  0.2235 -0.3293
38184W        W81096  30.433  17.314  28.399  0.1623  0.2342  0.2773
38185W        W81097  31.169  13.398  30.106  0.0777  0.1044 -0.1748
38186W        W81098  31.340  17.288  30.692 -0.0490  0.3007 -0.1387
38187W        W81099  29.243  19.051  28.125  0.1363  0.0590  0.0975
38188W        W81100  29.368  17.972  29.393 -0.0118  0.0145 -0.0350
38189W        W81101  29.877  16.539  28.069  0.1044 -0.0008 -0.2682
38190W        W81102  29.316  15.301  30.657  0.0439 -0.2157 -0.0137
38191W        W81103  31.493  18.365  29.650 -0.0385  0.0604 -0.2542
38192W        W81104  32.212  15.664  28.549  0.0855  0.2303 -0.1153
38193W        W81105  28.490  14.721  29.214  0.0327  0.0850 -0.0856
38194W        W81106  34.444  13.128  29.534  0.1672  0.2746 -0.1600
38195W        W81107  29.450  17.574  27.078 -0.2268  0.1632  0.4201
38196W        W81108  33.696  17.684  29.515 -0.4160  0.2048  0.2721
38197W        W81109  31.956  15.425  28.909  0.0348 -0.0853  0.0141
38198W        W81110  31.289  17.476  27.803  0.1549 -0.1099 -0.0002
38199W        W81111  28.463  15.630  30.314 -0.2931  0.2525 -0.2348
38200W        W81112  29.187  15.013  29.323  0.0684 -0.0321 -0.1922
38201W        W81113  28.142  16.742  30.176 -0.0652  0.1656  0.0854
38202W        W81114  29.436  14.473  29.509 -0.2034  0.0067 -0.0947
38203W        W81115  31.260  16.775  30.116 -0.0233  0.2122 -0.1936
38204W        W81116  28.838  14.442  28.457 -0.1314 -0.0540 -0.3202
38205W        W81117  31.191  16.088  29.887  0.1710  0.0132  0.0157
38206W        W81118  29.933  16.169  28.680 -0.0043  0.5312 -0.0471
38207W        W81119  28.634  15.938  28.719 -0.2592 -0.2669 -0.2165
38208W        W81120  31.904  15.591  29.752  0.0597  0.1207 -0.1577
38209W        W81121  30.836  17.946  29.039 -0.3448  0.2012 -0.0633
38210W        W81122  32.672  18.083  30.494 -0.1316 -0.1380  0.2403
38211W        W81123  32.725  18.946  29.314  0.2398 -0.4330  0.2309
38212W        W81124  29.920  14.164  29.892  0.0541  0.0143  0.3552
38213W        W81125  31.012  15.627  29.143  0.1290  0.0656  0.0035
38214W        W81126  29.720  19.084  28.026  0.1908  0.4268 -0.0712
38215W        W81127  29.849  17.204  29.621  0.0367  0.1707  0.0635
38216W        W81128  30.002  15.701  28.860  0.2083  0.1074  0.2485
38217W        W81129  33.278  17.198  28.438 -0.0487 -0.0404  0.0971
38218W        W81130  30.781  16.512  28.687 -0.2971 -0.1605  0.0378
38219W        W81131  28.275  16.890  29.499  0.0356 -0.4219  0.1238
38220W        W81132  30.563  13.604  30.227  0.2940  0.1846 -0.1506
38221W        W81133  31.492  16.898  29.163  0.0066  0.1302 -0.2239
38222W        W81134  30.360  15.390  28.522 -0.0753 -0.3775 -0.0851
38223W        W81135  30.368  15.550  26.920  0.2141  0.1312 -0.0478
38224W        W81136  33.076  17.979  29.109 -0.1388 -0.1278  0.0657
38225W        W81137  29.050  18.691  28.440 -0.0343  0.0062  0.1326
38226W        W81138  29.583  17.608  29.669 -0.0459  0.1245  0.1876
38227W        W81139  30.809  17.551  29.938 -0.0808 -0.0605  0.0667
38228W        W81140  32.240  15.070  29.202  0.3589 -0.0921  0.0481
38229W        W81141  30.498  17.417  29.190  0.0292 -0.1569  0.2962
38230W        W81142  31.199  15.785  30.369 -0.0703  0.3414 -0.2692
38231W        W81143  28.739  17.015  27.996  0.1872 -0.0045  0.1640
38232W        W81144  29.320  18.616  29.617 -0.1507 -0.1253 -0.2090
38233W        W81145  33.225  13.731  29.316  0.0746 -0.0754 -0.1886
38234W        W81146  31.981  14.449  28.616 -0.1312  0.0139  0.0986
38235W        W81147  31.283  16.567  31.780 -0.1226 -0.1920  0.2027
38236W        W81148  31.660  16.284  28.044  0.1511  0.0697  0.0321
38237W        W81149  31.269  15.317  28.402  0.2864 -0.2892  0.4007
38238W        W81150  31.154  15.347  27.484  0.0622  0.2940  0.2055
38239W        W81151  28.087  18.205  29.998  0.2697 -0.0087  0.0325
38240W        W81152  31.284  17.804  29.293 -0.0335 -0.2108  0.1473
38241W        W81153  31.806  17.428  28.500  0.2162  0.2499  0.1170
38242W        W81154  30.518  15.966  29.330 -0.0289 -0.2168  0.0723
38243W        W81155  34.360  17.848  28.879  0.1967  0.0949  0.0701
38244W        W81156  28.134  17.274  29.056  0.3021  0.0822 -0.1785
38245W        W81157  30.456  16.889  31.556  0.0647 -0.1944 -0.0332
38246W        W81158  31.830  17.868  29.012 -0.0049 -0.2098  0.1550
38247W        W81159  30.044  14.908  31.262  0.1292 -0.1558  0.0281
38248W        W81160  29.204  17.316  26.598 -0.1598  0.3887  0.0969
38249W        W81161  32.562  15.975  28.350  0.0450  0.0457  0.1952
38250W        W81162  29.853  17.903  27.889 -0.1115  0.0758  0.0386
38251W        W81163  31.130  16.072  29.432  0.0238  0.3554  0.2396
38252W        W81164  32.828  13.801  30.160  0.0296 -0.1805  0.0040
38253W        W81165  31.314  13.839  30.226  0.1020  0.0111 -0.0504
38254W        W81166  31.495  15.044  29.799  0.0872 -0.0712  0.0187
38255W        W81167  32.066  16.701  27.953  0.0154 -0.0683  0.0333
38256W        W81168  29.826  15.427  29.822 -0.1263 -0.0490  0.0783
38257W        W81169  30.891  16.903  26.843  0.2031 -0.0669  0.1757
38258W        W81170  32.293  15.557  29.331 -0.2328 -0.0196  0.1595
38259W        W81171  28.819  16.470  30.249 -0.1377 -0.1425  0.1477
38260W        W81172  29.985  18.500  30.190 -0.0555  0.0134  0.0298
38261W        W81173  31.672  16.915  30.569 -0.0067 -0.1711 -0.2847
38262W        W81174  32.338  16.499  28.888  0.1319 -0.2217 -0.2111
38263W        W81175  31.400  16.028  31.176 -0.0590  0.2867 -0.1509
38264W        W81176  31.192  15.203  29.370 -0.0289  0.4521  0.0184
38265W        W81177  30.924  18.313  28.589 -0.0543 -0.1483 -0.2187
38266W        W81178  29.467  17.211  28.372 -0.2353  0.0829  0.0212
38267W        W81179  32.171  13.940  29.493 -0.3208  0.2029  0.0684
38268W        W81180  31.704  17.852  29.557 -0.1307 -0.2066 -0.6223
38269W        W81181  28.824  16.554  27.095  0.2063  0.2963 -0.3117
38270W        W81182  31.653  15.986  30.730 -0.1178  0.3854  0.3759
38271W        W81183  30.158  17.874  28.384  0.0560  0.3424  0.0327
38272W        W81184  32.453  13.507  29.632  0.1474  0.0046  0.1348
38273W        W81185  29.210  18.047  29.892 -0.3671  0.2245  0.1027
38274W        W81186  29.802  16.328  27.252  0.0922  0.1910  0.0568
38275W        W81187  29.212  16.096  30.586 -0.0371 -0.0806 -0.0189
38276W        W81188  31.900  16.551  29.150 -0.1706  0.1088 -0.1361
38277W        W81189  32.864  16.328  28.189 -0.1992 -0.0463  0.0609
38278W        W81190  28.783  15.183  30.170 -0.0405 -0.1943 -0.2781
38279W        W81191  30.963  16.147  28.934  0.0739  0.1615  0.0505
38280W        W81192  29.777  18.038  29.891  0.3386  0.0254  0.1305
38281W        W81193  30.760  16.000  30.575  0.0216  0.3321  0.1233
38282W        W81194  31.352  14.726  29.415 -0.0296 -0.0289 -0.1062
38283W        W81195  31.868  15.739  30.220  0.0132 -0.0955  0.0784
38284W        W81196  31.290  16.354  30.743  0.0483 -0.0210  0.4358
38285W        W81197  29.320  17.576  28.694 -0.0075  0.1755  0.2117
38286W        W81198  32.046  15.335  30.673 -0.3417  0.1273 -0.0441
38287W        W81199  29.684  15.087  30.150  0.0949 -0.1394  0.0360
38288W        W81200  28.927  18.244  28.004  0.3326 -0.0279 -0.1342
38289W        W81201  31.006  17.228  30.251 -0.0186  0.1027  0.2496
38290W        W81202  30.009  17.008  28.279 -0.1190 -0.1511  0.4355
38291W        W81203  29.351  17.072  29.546  0.1291 -0.0789  0.1769
38292W        W81204  31.295  13.873  29.697  0.1033 -0.0778 -0.0895
38293W        W81205  31.880  14.834  31.036  0.1540  0.1555 -0.1515
38294W        W81206  30.851  14.970  30.463  0.1251  0.2408  0.0367
38295W        W81207  30.804  14.643  29.123 -0.0912 -0.3597 -0.0805
38296W        W81208  30.986  16.601  29.713 -0.1630 -0.0499  0.0719
38297W        W81209  30.654  17.817  28.591  0.0673  0.3951 -0.1978
38298W        W81210  31.775  14.666  29.983 -0.2418 -0.1493 -0.0347
38299W        W81211  31.215  17.049  31.140 -0.2577 -0.2149  0.0110
38300W        W81212  32.855  13.685  29.673  0.0721 -0.2779 -0.1851
38301W        W81213  32.439  18.776  27.825 -0.0847 -0.1242 -0.2101
38302W        W81214  31.246  16.501  31.242  0.1074 -0.0630 -0.1016
38303W        W81215  31.115  16.542  27.391  0.2519 -0.2235 -0.2998
38304W        W81216  28.362  15.166  29.363 -0.3195 -0.1277  0.0973
38305W        W81217  30.766  18.828  28.563  0.0751  0.1720  0.2261
38306W        W81218  32.122  14.581  29.452 -0.0097  0.0068  0.2771
38307W        W81219  29.352  17.466  29.164 -0.1348 -0.3202  0.1885
38308W        W81220  29.691  16.705  29.308  0.0278 -0.0886  0.1184
38309W        W81221  29.475  18.413  29.104  0.0083  0.0786  0.0135
38310W        W81222  31.776  15.353  28.250 -0.1461  0.1989  0.2532
38311W        W81223  30.970  17.200  28.124 -0.0133  0.0154  0.1591
38312W        W81224  29.584  14.968  29.671  0.1632 -0.1957  0.2211
38313W        W81225  34.070  14.809  31.416  0.0895  0.1400 -0.2684
38314W        W81226  30.546  15.668  28.908 -0.1106  0.0395 -0.2854
38315W        W81227  31.166  14.620  30.515 -0.0003 -0.0129 -0.0729
38316W        W81228  28.450  13.830  30.462  0.0824 -0.0543 -0.0047
38317W        W81229  31.649  18.913  29.646  0.3560  0.1261 -0.0554
38318W        W81230  29.830  16.236  31.014 -0.1074 -0.0163  0.1647
38319W        W81231  31.083  17.880  31.592  0.1909 -0.2548  0.1878
38320W        W81232  30.500  15.767  30.982  0.1049 -0.1932  0.2790
38321W        W81233  32.301  15.419  30.082  0.0619 -0.1722 -0.1502
38322W        W81234  30.199  14.542  28.017 -0.2219 -0.3911  0.1788
38323W        W81235  30.372  16.649  30.125  0.0385 -0.1552 -0.0278
38324W        W81236  32.305  17.716  28.987 -0.2675  0.0907  0.1361
38325W        W81237  30.866  17.632  27.673 -0.2117  0.2536 -0.3493
38326W        W81238  31.526  16.373  30.302 -0.0059 -0.0155 -0.3255
38327W        W81239  29.103  17.132  28.680  0.1549  0.2972  0.1060
38328W        W81240  32.248  16.933  29.418 -0.0236  0.0148  0.1835
38329W        W81241  31.416  17.169  28.610 -0.2077  0.0700  0.0697
38330W        W81242  29.045  17.133  29.998  0.1022  0.0563  0.1097
38331W        W81243  28.715  16.034  30.469  0.0860  0.0484 -0.0107
38332W        W81244  32.751  16.305  28.695 -0.0128 -0.2153 -0.1381
38333W        W81245  32.393  14.412  28.315 -0.0360  0.3277  0.0326
38334W        W81246  32.417  15.898  30.287  0.1601 -0.1952  0.0103
38335W        W81247  30.057  17.141  30.527  0.3125  0.1628  0.0066
38336W        W81248  31.063  14.280  29.436 -0.1444 -0.1110  0.3159
38337W        W81249  30.803  14.967   0.002  0.0068  0.0114 -0.0704
38338W        W81250  31.833  18.952  30.228  0.0444 -0.0619 -0.2049
38339W        W81251  31.102  16.190  28.042 -0.3103  0.0086  0.2872
38340W        W81252  32.163  16.043  29.634  0.2430  0.0269  0.0746
38341W        W81253  33.141  15.890  28.946  0.2704  0.1156  0.0632
38342W        W81254  31.473  15.887  29.026  0.0804 -0.0077  0.1018
38343W        W81255  30.470  16.175  30.186  0.2827 -0.1345 -0.2767
38344W        W81256  32.184  16.909  30.726 -0.1771  0.0430 -0.0334
38345W        W81257  29.941  15.266  27.661  0.3541 -0.1847  0.3683
38346W        W81258  31.940  13.389  30.945  0.0079  0.1327  0.0574
38347W        W81259  31.167  19.218  28.595 -0.0927  0.2584  0.1278
38348W        W81260  32.482  16.742  29.812  0.1219  0.1917 -0.2694
38349W        W81261  32.350  16.337  27.959 -0.1189  0.3181 -0.1120
38350W        W81262  29.401  15.402  29.516 -0.0298  0.1121 -0.1930
38351W        W81263  28.393  16.835  31.692 -0.1126 -0.0205  0.1747
38352W        W81264  29.427  15.235  27.904 -0.3502 -0.2697  0.2522
38353W        W81265  30.432  16.492  29.294  0.0746  0.1115 -0.3215
38354W        W81266  31.695  18.522  28.836 -0.1589  0.2682 -0.0397
38355W        W81267  31.837  16.269  31.113 -0.0473  0.5259 -0.1696
38356W        W81268  31.769  14.848  29.085 -0.1694 -0.1782  0.3485
38357W        W81269  30.843  15.485  30.554  0.0066 -0.0539 -0.0196
38358W        W81270  28.690  16.496  29.339  0.1447 -0.2414  0.1666
38359W        W81271  31.369  14.344  29.907  0.0999 -0.0246  0.0891
38360W        W81272  31.187  17.725  30.596 -0.0001 -0.1659  0.2052
38361W        W81273  29.661  17.119  28.900  0.0188  0.1297  0.1753
38362W        W81274  30.990  17.513  28.885 -0.1672 -0.0373 -0.1470
38363W        W81275  32.302  14.656  30.715 -0.1258 -0.2677 -0.2432
38364W        W81276  31.936  17.365  29.192  0.0028  0.3920  0.1160
38365W        W81277  30.129  16.663  29.707  0.0743 -0.0109  0.0071
38366W        W81278  32.308  16.024  31.203 -0.0608  0.2492 -0.1973
38367W        W81279  31.157  16.844  30.710 -0.1797  0.0733  0.4303
38368W        W81280  28.824  16.198  29.726  0.1636 -0.2200 -0.0422
38369W        W81281  30.751  17.929  31.198 -0.0790 -0.1503  0.2650
38370W        W81282  32.793  17.944  27.667  0.1521 -0.0911 -0.1882
38371W        W81283  31.239  17.957  28.661  0.2237 -0.2933 -0.0758
38372W        W81284  29.637  15.118   0.631  0.1924 -0.2324  0.1068
38373W        W81285  30.345  14.152  30.743 -0.4048  0.2725  0.3311
38374W        W81286  31.223  17.557  28.328  0.0334  0.3468  0.2106
38375W        W81287  30.883  14.461  28.633  0.1047  0.0261  0.2894
38376W        W81288  30.036  17.088  27.727 -0.1369  0.2316  0.0107
38377W        W81289  30.528  18.599  31.415 -0.0650 -0.0260 -0.1770
38378W        W81290  27.995  16.205  30.416 -0.2716  0.2713 -0.0975
38379W        W81291  29.965  18.334  28.328 -0.3315  0.0462 -0.3126
38380W        W81292  31.986  16.521  29.647  0.0183  0.0877 -0.0809
38381W        W81293  33.019  16.671  28.494  0.1783 -0.2061  0.3589
38382W        W81294  30.005  19.276  29.245 -0.0115 -0.1009 -0.0030
38383W        W81295  30.839  15.104  27.858 -0.0400 -0.2093 -0.0564
38384W        W81296  29.888  17.419  28.523 -0.0561  0.0568 -0.4626
38385W        W81297  30.600  18.588  26.193  0.1463 -0.3150  0.0100
38386W        W81298  30.217  16.522  28.440 -0.0902 -0.0527  0.0550
38387W        W81299  30.890  18.325  27.762 -0.0091  0.1007  0.1524
38388W        W81300  32.623  18.019  29.672  0.2259 -0.2531  0.0309
38389W        W81301  33.804  14.939  26.854  0.0329  0.1008 -0.0236
38390W        W81302  31.453  17.417  29.042  0.1501  0.1420  0.2360
38391W        W81303  34.112  17.503  29.191  0.3489 -0.1130  0.2707
38392W        W81304  33.089  17.227  31.274  0.3020  0.1497  0.0149
38393W        W81305  30.260  15.308  29.040 -0.0889  0.0619 -0.0039
38394W        W81306  31.432  14.600  28.548 -0.0887 -0.2755 -0.0789
38395W        W81307  30.597  17.894  29.485  0.3165 -0.1736 -0.1738
38396W        W81308  33.560  13.114  31.951 -0.1033 -0.1223  0.0081
38397W        W81309  29.763  16.780  30.323 -0.2729 -0.0416  0.0453
38398W        W81310  31.296  16.969  27.092 -0.0398  0.1600  0.1967
38399W        W81311  29.297  16.213  27.598  0.1868  0.0983 -0.0618
38400W        W81312  29.948  17.436  29.189  0.2177 -0.1806 -0.0424
38401W        W81313  32.159  14.992  30.248  0.2017  0.2419  0.3396
38402W        W81314  31.394  17.473  27.347 -0.0525  0.1855  0.1192
38403W        W81315  29.517  15.773  28.646 -0.2739 -0.2045 -0.2052
38404W        W81316  30.465  18.970  28.953 -0.1301 -0.2839  0.1683
38405W        W81317  29.272  16.853  30.386 -0.0286  0.0732  0.1221
38406W        W81318  29.239  16.981  31.015 -0.1705 -0.2808 -0.0911
38407W        W81319  30.071  14.038  28.119  0.0025 -0.1662  0.0424
38408W        W81320  32.754  15.385  31.093  0.0192  0.0090  0.5464
38409W        W81321  30.759  14.400  30.897 -0.3568  0.0698  0.1403
38410W        W81322  32.746  15.463  29.229  0.0941  0.0244  0.2826
38411W        W81323  29.032  15.547  28.864  0.3845  0.0040 -0.1653
38412W        W81324  32.081  16.289  28.393  0.2385  0.0009  0.4024
38413W        W81325  30.218  15.179  29.648  0.2813 -0.0734  0.1326
38414W        W81326  28.361  15.219  31.480 -0.0670 -0.0114  0.1885
38415W        W81327  30.512  16.242  28.124 -0.1539  0.0626  0.0030
38416W        W81328  30.582  16.955  29.434  0.2705  0.2346 -0.0567
38417W        W81329  31.993  15.976  28.863 -0.1146 -0.0033 -0.0460
38418W        W81330  32.512  16.987  31.347 -0.3445  0.0409 -0.0396
38419W        W81331  29.620  16.247  29.526  0.0032 -0.0360 -0.5424
38420W        W81332  30.745  15.041  26.523 -0.2954 -0.0821  0.0556
38421W        W81333  29.683  17.467  27.998  0.6985 -0.0898  0.0761
38422W        W81334  30.617  15.372  30.134  0.2017 -0.0765 -0.0443
38423W        W81335  32.862  17.257   0.752 -0.1395 -0.2291 -0.1327
38424W        W81336  29.929  13.913  28.960 -0.0436  0.1407 -0.3020
38425W        W81337  32.105  17.882  28.436 -0.0810 -0.0158 -0.1398
38426W        W81338  32.101  16.301  30.101 -0.2574 -0.0458  0.0512
38427W        W81339  32.162  18.979  28.207  0.0836  0.1438 -0.2673
38428W        W81340  32.251  17.137  28.179 -0.0439 -0.3811 -0.1671
38429W        W81341  33.714  18.514  28.683 -0.0862  0.3736  0.1769
38430W        W81342  29.265  15.397  30.092  0.0572 -0.1170  0.3317
38431W        W81343  32.360  17.436  31.088  0.0333  0.1837  0.0117
38432W        W81344  33.021  18.114  30.890 -0.0683 -0.0872 -0.0963
38433W        W81345  31.642  14.294  29.473  0.0048  0.0713  0.0580
38434W        W81346  31.062  15.229  29.879  0.1924 -0.0393  0.0793
38435W        W81347  29.816  17.534  27.462 -0.0360 -0.3317  0.1649
38436W        W81348  32.810  16.159  30.418  0.0878  0.1205  0.0525
38437W        W81349  30.799  15.836  30.117  0.2330 -0.0173  0.1678
38438W        W81350  30.199  17.497  27.951  0.1046  0.1566 -0.1942
38439W        W81351  33.396  14.074  31.558  0.1287 -0.1713 -0.1327
38440W        W81352  29.642  16.709  29.840 -0.2460 -0.0948 -0.1614
38441W        W81353  30.777  16.592  31.966  0.1689 -0.0455  0.1852
38442W        W81354  29.168  16.698  27.767  0.0345  0.1776  0.2145
38443W        W81355  31.880  16.756  30.077 -0.1079  0.0615 -0.2866
38444W        W81356  29.903  18.533  28.859 -0.1406  0.3949  0.1944
38445W        W81357  30.101  18.778  29.299  0.0950  0.1936 -0.1602
38446W        W81358  32.780  17.153  28.401  0.0747 -0.1908  0.1697
38447W        W81359  30.266  15.905  28.425 -0.4324 -0.1785 -0.0299
38448W        W81360  33.284  17.002  28.935 -0.3006  0.0183  0.2794
38449W        W81361  30.840  13.871  29.444 -0.3932  0.0366  0.1220
38450W        W81362  33.727  15.094  29.165 -0.1038  0.1240  0.0384
38451W        W81363  32.871  15.561  28.533 -0.0295 -0.0270  0.0542
38452W        W81364  30.930  16.851  31.564 -0.0627 -0.0606  0.2149
38453W        W81365  29.340  16.607  27.263  0.1576 -0.1690 -0.0754
38454W        W81366  29.574  16.927  28.007 -0.1010 -0.2536 -0.2582
38455W        W81367  29.181  16.422  29.376  0.0319  0.0474  0.1022
38456W        W81368  31.501  14.291  31.716 -0.3351 -0.1545  0.0039
38457W        W81369  30.410  15.687  30.489 -0.1616 -0.4145  0.0992
38458W        W81370  29.639  15.914  29.963 -0.3616 -0.0201 -0.1598
38459W        W81371  28.896  14.701  28.986 -0.1345  0.0513 -0.0926
38460W        W81372  32.200  18.422  28.381 -0.1199 -0.0097 -0.0079
38461W        W81373  30.020  13.612  29.937 -0.1298 -0.1188 -0.0474
38462W        W81374  28.964  15.772  30.886  0.1403  0.0461 -0.0825
38463W        W81375  31.876  18.533  29.394 -0.5047 -0.0183 -0.2343
38464W        W81376  31.950  18.131  28.038 -0.0043  0.2960 -0.0348
38465W        W81377  31.759  16.094  29.389  0.2940  0.0409 -0.1744
38466W        W81378  31.877  17.301  30.789  0.0525 -0.0679 -0.2769
38467W        W81379  30.432  17.517  27.503  0.3838 -0.0461  0.0692
38468W        W81380  32.511  15.193  29.640  0.0351 -0.0327  0.0284
38469W        W81381  31.550  13.075  31.023 -0.3129  0.4861  0.0095
38470W        W81382  29.305  14.704  27.695  0.0755  0.1741 -0.0413
38471W        W81383  31.273  17.764  30.068 -0.1401  0.0127 -0.1003
38472W        W81384  31.312  16.722  28.294  0.1418 -0.0920 -0.2420
38473W        W81385  32.292  20.090  28.049  0.1770  0.0295  0.3022
38474W        W81386  31.680  17.613  30.411  0.2308  0.1364 -0.0917
38475W        W81387  30.901  16.572  29.211  0.2784  0.1134 -0.1580
38476W        W81388  28.843  15.100  30.720 -0.0989 -0.4570 -0.1220
38477W        W81389  32.957  16.384  29.619  0.0200  0.2351  0.2727
38478W        W81390  31.639  17.780  30.894  0.1221 -0.1232  0.1481
38479W        W81391  33.862  16.290  29.584 -0.0012  0.3139  0.1177
38480W        W81392  32.356  14.258  29.141 -0.1690 -0.0475  0.0790
38481W        W81393  31.844  16.802  28.408 -0.0131  0.2620 -0.2710
38482W        W81394  29.746  15.903  31.897 -0.0036  0.2311  0.0557
38483W        W81395  29.356  16.357  30.194 -0.0714 -0.0569  0.1998
38484W        W81396  32.224  17.212  29.876 -0.2055 -0.0233  0.0957
38485W        W81397  30.222  15.005  28.207  0.2328  0.0246  0.1772
38486W        W81398  31.683  15.839  28.461 -0.2101  0.0290 -0.0925
38487W        W81399  32.134  17.672  28.003  0.0424  0.2831 -0.0899
38488W        W81400  29.917  14.603  29.618  0.0208  0.0592 -0.0653
38489W        W81401  30.867  15.553  28.323 -0.0523  0.0356 -0.0080
38490W        W81402  30.603  15.408  29.370  0.2680  0.1196  0.1199
38491W        W81403  31.372  16.425  29.115 -0.0249  0.2580  0.1896
38492W        W81404  31.541  17.205  30.177  0.0010  0.2547  0.2436
38493W        W81405  29.904  15.060  29.302 -0.2428  0.2715  0.0778
38494W        W81406  33.602  15.381  29.537 -0.0953  0.3853  0.0739
38495W        W81407  31.635  18.480  31.110  0.1292 -0.0646  0.0261
38496W        W81408  32.525  17.405  31.577  0.1828  0.0013 -0.0619
38497W        W81409  32.337  18.452  29.643 -0.0059 -0.0137 -0.3574
38498W        W81410  32.382  17.456  28.499 -0.2686  0.0604 -0.1573
38499W        W81411  28.394  13.372  29.654  0.1817 -0.1897 -0.0492
38500W        W81412  29.545  16.681  28.529  0.2123  0.2712  0.0950
38501W        W81413  30.068  15.850  30.180 -0.1168 -0.0057 -0.3845
38502W        W81414  30.988  16.396  30.278 -0.3088 -0.1020  0.0565
38503W        W81415  30.316  14.796  29.296 -0.1747 -0.0615  0.1527
38504W        W81416  30.429  14.336  27.644 -0.0542 -0.1291 -0.1262
38505W        W81417  29.497  18.157  30.296 -0.2480  0.3665  0.0630
38506W        W81418  31.248  16.729  28.751 -0.2894  0.0608 -0.1100
38507W        W81419  32.436  15.096   0.485 -0.1407  0.3499  0.2196
38508W        W81420  31.964  18.140  31.399 -0.1683  0.1942  0.0751
38509W        W81421  29.942  16.971  31.554 -0.0032  0.1141 -0.2004
38510W        W81422  28.422  17.014  30.468  0.1024  0.2185 -0.0236
38511W        W81423  31.559  17.807  31.428 -0.0658 -0.0707  0.1455
38512W        W81424  30.929  18.462   0.520  0.3602  0.2504 -0.3380
38513W        W81425  31.557  15.575  31.724  0.1588  0.1019  0.0009
38514W        W81426  30.859  13.815  30.581  0.0034 -0.2503  0.1638
38515W        W81427  30.727  16.512  30.824  0.1270  0.2310  0.3386
38516W        W81428  33.009  18.074   0.115 -0.2114  0.0959  0.0853
38517W        W81429  32.082  17.209  30.354  0.0031  0.3356 -0.2640
38518W        W81430  30.964  14.221  30.280  0.3174 -0.3182 -0.5078
38519W        W81431  32.683  16.297  31.157  0.0260 -0.0442 -0.2044
38520W        W81432  29.585  16.535  30.735 -0.0917  0.1744 -0.1384
38521W        W81433  31.882  15.198  31.782  0.0658  0.3388 -0.1181
38522W        W81434  28.309  18.201   0.029 -0.3298  0.2955 -0.0457
38523W        W81435  29.069  16.991   0.295 -0.2614 -0.3312 -0.0691
38524W        W81436  32.516  17.954  30.972 -0.1682 -0.0188  0.0520
38525W        W81437  30.303  14.992  31.665  0.1087 -0.1668 -0.1359
38526W        W81438  30.251  16.635  30.599 -0.2474 -0.3538  0.1079
38527W        W81439  30.418  13.766   0.530  0.0016 -0.2130  0.1992
38528W        W81440  28.151  16.984  31.258 -0.0722 -0.3648  0.2995
38529W        W81441  32.384  15.110  31.567  0.1529  0.0045  0.1697
38530W        W81442  31.923  14.318  30.787  0.0531 -0.0961  0.0451
38531W        W81443  31.167  14.374  31.252 -0.0963 -0.1604 -0.0708
38532W        W81444  31.389  15.130  31.958 -0.1205 -0.0336 -0.4830
38533W        W81445  30.042  15.827  31.208  0.0367  0.0291 -0.1843
38534W        W81446  28.724  16.961  31.026  0.2479 -0.4705  0.1365
38535W        W81447  29.853  15.064  30.577 -0.0234 -0.0881 -0.3242
38536W        W81448  30.203  17.389   0.239 -0.0228  0.2948 -0.0605
38537W        W81449  30.179  17.098  30.035  0.1116  0.0314 -0.1599
38538W        W81450  30.978  15.811   0.394  0.2755 -0.0794  0.4296
38539W        W81451  31.757  15.719  31.234 -0.2135  0.3364  0.1201
38540W        W81452  31.067  14.647   0.756 -0.0186  0.0777 -0.0580
38541W        W81453  29.828  15.300   1.091  0.0965 -0.0302  0.0903
38542W        W81454  30.469  15.476   0.604 -0.1705 -0.0368  0.1508
38543W        W81455  31.198  17.388  31.555 -0.2582  0.2447 -0.2584
38544W        W81456  31.968  18.001   0.352  0.0591  0.0439  0.1986
38545W        W81457  31.796  16.531  31.538 -0.1179 -0.0259 -0.1290
38546W        W81458  31.144  15.499   0.776  0.1666  0.1926 -0.1509
38547W        W81459  32.298  15.082  31.059  0.4762  0.1616 -0.1135
38548W        W81460  31.790  14.712   0.048  0.1836  0.2973  0.0914
38549W        W81461  30.723  16.351  31.428  0.0519 -0.1060 -0.1182
38550W        W81462  31.426  17.578   0.127  0.2129 -0.0840  0.1361
38551W        W81463  30.087  15.530   0.203 -0.2412 -0.0305 -0.1319
38552W        W81464  30.301  17.868   0.122  0.0422 -0.0303 -0.0373
38553W        W81465  30.739  13.447  31.250 -0.2442 -0.0220 -0.0436
38554W        W81466  30.685  16.906  31.115  0.2366  0.1015 -0.0887
38555W        W81467  31.887  15.771   0.098  0.3718  0.0821  0.1031
38556W        W81468  29.829  17.520  31.277  0.1869 -0.0104  0.1198
38557W        W81469  30.693  19.712  31.323  0.0159  0.0911 -0.2545
38558W        W81470  31.266  13.329  30.572  0.0128 -0.2943  0.0473
38559W        W81471  30.030  15.547  30.708 -0.2683  0.0508 -0.0820
38560W        W81472  30.165  16.100  30.667  0.3149 -0.0484  0.0318
38561W        W81473  30.104  16.017  29.625  0.3054 -0.1195  0.1476
38562W        W81474  31.106  15.154  31.576  0.0937 -0.0766  0.0183
38563W        W81475  33.167  16.675  31.753  0.2537 -0.2608  0.0378
38564W        W81476  28.847  18.948   0.686 -0.2290 -0.0962  0.0516
38565W        W81477  29.031  17.917  30.499 -0.2252 -0.1661 -0.2638
38566W        W81478  29.996  15.639   2.145 -0.1173 -0.1484  0.1459
38567W        W81479  30.404  15.709  29.747 -0.0791 -0.0091  0.0149
38568W        W81480  29.550  16.576  31.392  0.3911  0.3028 -0.2143
38569W        W81481  30.394  17.375  29.702  0.2673 -0.3104  0.0442
38570W        W81482  29.115  14.628  31.401 -0.0154  0.1564  0.0403
38571W        W81483  32.616  17.400   0.167 -0.1660 -0.1369  0.3086
38572W        W81484  32.692  16.534  31.648 -0.3023  0.0759 -0.0256
38573W        W81485  34.349  17.081  31.141 -0.0126  0.2657 -0.0196
38574W        W81486  30.494  20.854  19.286 -0.0908  0.0907  0.0213
38575W        W81487  28.522  20.621  17.493 -0.0876  0.2100  0.2384
38576W        W81488  32.280  18.680  17.009  0.0246  0.0308 -0.1404
38577W        W81489  31.793  20.749  17.611  0.0956 -0.0636  0.1788
38578W        W81490  28.976  19.243  17.907 -0.1733 -0.3274  0.0153
38579W        W81491  31.433  22.318  17.837  0.3083  0.2645 -0.0867
38580W        W81492  29.599  18.785  20.510 -0.5081  0.1635 -0.2167
38581W        W81493  31.251  21.968  18.222 -0.3190  0.1888  0.1232
38582W        W81494  32.750  20.271  18.328  0.2238 -0.2983  0.3439
38583W        W81495  30.141  20.016  17.830 -0.4874 -0.0200  0.2481
38584W        W81496  30.653  19.145  19.105 -0.5807  0.1827  0.0697
38585W        W81497  30.186  20.289  20.578 -0.1166  0.1345  0.0362
38586W        W81498  29.409  18.808  18.322  0.5209 -0.0590  0.0150
38587W        W81499  28.153  17.373  18.269  0.1094  0.0091  0.0220
38588W        W81500  31.274  20.845  19.178  0.0843  0.4636  0.0623
38589W        W81501  28.753  20.216  16.760  0.2661 -0.0159 -0.1660
38590W        W81502  30.278  18.839  19.352 -0.3982 -0.3040  0.4293
38591W        W81503  30.058  18.862  16.508  0.0329  0.2586 -0.0678
38592W        W81504  31.153  21.278  18.872  0.2142  0.0611 -0.0676
38593W        W81505  29.899  18.231  18.131  0.0957  0.0874  0.0631
38594W        W81506  32.120  18.088  20.285 -0.0854  0.0662  0.0276
38595W        W81507  30.282  19.757  18.329  0.0883 -0.3917  0.3043
38596W        W81508  29.314  19.381  16.603  0.2286 -0.0045 -0.4129
38597W        W81509  28.458  19.129  18.305 -0.0688  0.1845  0.0115
38598W        W81510  30.748  19.087  17.542  0.0108 -0.1696  0.2550
38599W        W81511  31.215  18.028  18.083  0.3529  0.1379 -0.0855
38600W        W81512  31.548  20.938  17.212  0.2672  0.1549  0.0837
38601W        W81513  29.695  21.564  18.293  0.2239 -0.0957 -0.2871
38602W        W81514  31.429  20.859  18.144  0.1233 -0.1074 -0.0608
38603W        W81515  32.404  19.616  20.767 -0.0625  0.1363  0.1284
38604W        W81516  28.367  21.807  18.481 -0.0848  0.1801 -0.2776
38605W        W81517  29.202  22.938  18.436 -0.1693 -0.0279  0.2784
38606W        W81518  30.138  19.312  17.593  0.4980 -0.2808 -0.0411
38607W        W81519  30.715  23.097  17.392  0.2528  0.0722 -0.0149
38608W        W81520  32.452  21.368  17.827  0.1626  0.3093 -0.0051
38609W        W81521  30.446  22.188  19.404  0.3293 -0.0483 -0.0046
38610W        W81522  28.851  21.361  17.470 -0.1149 -0.0317  0.0298
38611W        W81523  32.167  21.239  20.131 -0.0111  0.2661  0.0167
38612W        W81524  28.645  20.774  19.870  0.0043 -0.0939  0.2677
38613W        W81525  31.569  18.931  19.799  0.1559 -0.2754  0.2357
38614W        W81526  31.613  19.585  17.917  0.0777  0.2845 -0.2318
38615W        W81527  30.825  21.952  16.895  0.1648  0.2076 -0.2474
38616W        W81528  31.947  19.731  18.427 -0.0248  0.1000  0.1942
38617W        W81529  30.468  22.111  20.049  0.1150 -0.0662  0.0515
38618W        W81530  30.255  21.825  18.029 -0.0771  0.1168 -0.2151
38619W        W81531  33.166  18.716  20.817  0.0854 -0.2092  0.2056
38620W        W81532  29.502  22.250  16.863 -0.0995  0.1757 -0.3109
38621W        W81533  32.038  20.292  16.937 -0.0724  0.1870 -0.0619
38622W        W81534  29.825  18.967  17.475  0.3741  0.1848 -0.0845
38623W        W81535  31.429  18.618  16.680  0.2851 -0.1791  0.1476
38624W        W81536  30.238  19.032  18.015  0.5759 -0.2132  0.2754
38625W        W81537  31.087  21.625  17.336 -0.0460 -0.5598  0.0764
38626W        W81538  30.082  20.042  18.891 -0.1176  0.0059 -0.0062
38627W        W81539  31.028  20.139  19.990  0.0536  0.1191 -0.0526
38628W        W81540  30.094  21.513  17.649 -0.0745  0.3164 -0.0805
38629W        W81541  32.328  17.912  19.508  0.1059  0.3605 -0.0055
38630W        W81542  31.610  23.183  19.519  0.1556 -0.0212  0.0353
38631W        W81543  29.974  21.083  17.966  0.3818  0.1722 -0.0743
38632W        W81544  31.648  20.995  16.460  0.0163 -0.1364 -0.0028
38633W        W81545  32.270  22.041  16.754  0.0466  0.3089 -0.3135
38634W        W81546  30.797  21.447  17.037 -0.0269 -0.0838 -0.2002
38635W        W81547  30.082  18.622  17.809 -0.3780  0.0247 -0.0482
38636W        W81548  28.545  20.796  20.379  0.1319  0.0983  0.2233
38637W        W81549  30.438  19.880  19.657 -0.0917  0.0487  0.2886
38638W        W81550  29.715  18.402  16.348 -0.1006 -0.0343 -0.0636
38639W        W81551  32.660  20.466  19.656  0.2030 -0.1353 -0.0237
38640W        W81552  28.822  21.120  19.455  0.1813 -0.0022  0.0311
38641W        W81553  31.749  18.315  19.168 -0.0751 -0.0069 -0.0267
38642W        W81554  31.057  19.561  18.143 -0.4221 -0.1528 -0.1348
38643W        W81555  32.107  20.591  17.317 -0.2043 -0.1411 -0.1189
38644W        W81556  32.500  20.211  16.947  0.2262  0.0851 -0.0142
38645W        W81557  31.733  18.689  18.604 -0.0525 -0.2511 -0.2886
38646W        W81558  32.097  17.784  20.690  0.0834 -0.0525 -0.2499
38647W        W81559  29.573  19.358  17.729 -0.0219 -0.1300  0.0869
38648W        W81560  29.619  19.811  16.813 -0.0997  0.2541  0.2301
38649W        W81561  32.487  20.809  20.383 -0.2214  0.0693  0.1365
38650W        W81562  32.240  20.135  17.372  0.1656 -0.0462 -0.0435
38651W        W81563  28.934  22.279  19.986 -0.2959  0.0520  0.1904
38652W        W81564  31.290  18.724  20.987  0.0968 -0.2261  0.3481
38653W        W81565  30.884  21.701  20.590 -0.1013 -0.0036  0.1065
38654W        W81566  29.242  21.836  17.097  0.3276  0.3252 -0.0000
38655W        W81567  28.988  22.158  17.597  0.0585 -0.0515 -0.2644
38656W        W81568  29.317  20.485  16.748  0.1075  0.0219 -0.0129
38657W        W81569  29.152  19.037  19.661  0.0643  0.1280 -0.1400
38658W        W81570  30.000  22.691  20.042 -0.1979  0.4246 -0.0615
38659W        W81571  31.966  18.813  16.558  0.1419 -0.0692  0.0323
38660W        W81572  28.030  18.362  19.659  0.1523 -0.0471 -0.2196
38661W        W81573  31.258  16.899  18.601  0.1382  0.0371  0.2024
38662W        W81574  29.607  21.500  17.817  0.0955 -0.2900  0.2607
38663W        W81575  32.302  22.076  17.435 -0.1140  0.1862 -0.0730
38664W        W81576  32.040  18.808  18.244  0.1482 -0.1847  0.0134
38665W        W81577  33.169  21.121  15.901  0.0690 -0.0491  0.0518
38666W        W81578  29.265  19.614  19.317 -0.0802  0.1908  0.0792
38667W        W81579  28.213  18.849  17.976  0.1060 -0.0244  0.0715
38668W        W81580  30.018  19.973  19.944  0.1897  0.3250 -0.1083
38669W        W81581  29.441  18.799  19.215 -0.1413  0.3436 -0.0343
38670W        W81582  31.774  19.867  19.256  0.1810 -0.2409  0.0604
38671W        W81583  30.546  18.129  17.331  0.0324  0.0236  0.0940
38672W        W81584  31.343  19.143  16.758 -0.2850 -0.2278 -0.0653
38673W        W81585  30.900  19.570  17.522  0.1130 -0.0942 -0.0897
38674W        W81586  28.379  21.062  17.347 -0.0656  0.1158  0.1457
38675W        W81587  33.181  18.641  21.352 -0.0500 -0.0514  0.2895
38676W        W81588  31.242  21.581  16.812 -0.3380 -0.3066 -0.0347
38677W        W81589  32.635  21.242  19.743  0.0318  0.0638  0.2808
38678W        W81590  32.609  20.363  19.170  0.2488 -0.0056 -0.2368
38679W        W81591  30.753  18.606  20.080  0.4462  0.0658  0.0505
38680W        W81592  28.777  18.498  16.783  0.0489 -0.0434  0.2683
38681W        W81593  29.227  20.818  18.708  0.3029 -0.2856 -0.0953
38682W        W81594  30.258  21.284  19.509  0.0458  0.0661 -0.0746
38683W        W81595  29.553  19.121  17.089  0.0456 -0.2645 -0.1675
38684W        W81596  33.632  20.661  19.294  0.0117 -0.1459  0.0894
38685W        W81597  30.759  20.398  17.781  0.1929 -0.1396 -0.2523
38686W        W81598  30.511  19.425  17.905 -0.1861  0.1490 -0.2307
38687W        W81599  32.279  19.108  20.635  0.0084 -0.0852  0.2228
38688W        W81600  31.575  20.358  19.181 -0.0605 -0.0566  0.0041
38689W        W81601  31.170  19.285  19.837  0.1257 -0.1984  0.2689
38690W        W81602  28.925  18.530  17.729 -0.1992  0.1498 -0.2870
38691W        W81603  31.081  21.332  18.347  0.0956  0.2444  0.0816
38692W        W81604  29.906  21.086  17.468 -0.1224 -0.3126  0.0037
38693W        W81605  27.629  20.639  16.995 -0.3772  0.1669 -0.0845
38694W        W81606  30.878  21.720  18.785  0.0349  0.0161 -0.0368
38695W        W81607  31.655  17.131  18.448  0.2196 -0.0628  0.2590
38696W        W81608  30.782  19.652  19.947  0.1221 -0.1745 -0.2025
38697W        W81609  32.419  19.193  21.670  0.1966 -0.1748  0.0027
38698W        W81610  29.327  20.101  17.179  0.3744  0.1823  0.0774
38699W        W81611  29.497  21.203  18.945 -0.2262  0.0263 -0.3205
38700W        W81612  31.474  17.398  17.253  0.2735 -0.2259  0.2502
38701W        W81613  31.867  18.381  17.301 -0.0463 -0.1659  0.1136
38702W        W81614  29.856  19.615  19.236  0.1617 -0.0843 -0.2195
38703W        W81615  31.496  21.211  17.750 -0.3333 -0.2525 -0.0968
38704W        W81616  32.351  19.032  16.369  0.1065 -0.2976 -0.0005
38705W        W81617  30.400  19.257  17.120  0.1654  0.1504  0.2705
38706W        W81618  28.317  22.411  20.914 -0.1045  0.0092 -0.3162
38707W        W81619  31.684  19.369  17.058  0.0891 -0.2191  0.0617
38708W        W81620  30.624  21.290  17.512  0.2890 -0.0035  0.0488
38709W        W81621  29.847  18.720  17.040  0.2299 -0.1796  0.1774
38710W        W81622  31.721  21.316  16.815  0.0252 -0.2821 -0.0363
38711W        W81623  29.610  19.962  19.120 -0.1672  0.0405 -0.1943
38712W        W81624  30.910  20.809  20.692  0.1552 -0.1970  0.1407
38713W        W81625  31.639  21.520  18.120 -0.1531 -0.0135  0.4861
38714W        W81626  29.616  20.342  18.778  0.0808 -0.0193 -0.1487
38715W        W81627  29.689  19.838  17.569 -0.2046 -0.2843  0.2252
38716W        W81628  30.336  20.366  17.486 -0.0793 -0.0398 -0.3994
38717W        W81629  28.573  22.796  17.091  0.4019  0.2539  0.0298
38718W        W81630  31.938  19.153  18.869  0.0961 -0.5055 -0.0060
38719W        W81631  33.030  17.444  20.120  0.1132 -0.0664 -0.0586
38720W        W81632  30.651  18.639  18.983  0.1913 -0.2946  0.1832
38721W        W81633  30.745  19.903  18.414 -0.3822  0.1149 -0.0713
38722W        W81634  30.782  19.592  17.000 -0.0148 -0.0956 -0.0271
38723W        W81635  31.846  20.126  18.680  0.1489 -0.0389 -0.1521
38724W        W81636  29.882  20.531  17.387 -0.0906  0.1193  0.0484
38725W        W81637  31.817  18.053  21.058 -0.1668 -0.0295 -0.2452
38726W        W81638  30.333  20.869  17.672  0.0236  0.3087  0.0396
38727W        W81639  29.290  21.807  19.384 -0.3566  0.0211 -0.3935
38728W        W81640  33.494  20.751  19.962 -0.1345 -0.2216 -0.1025
38729W        W81641  31.391  20.446  17.779 -0.1694  0.0480 -0.0904
38730W        W81642  32.151  18.600  20.455  0.0392 -0.1812 -0.0568
38731W        W81643  31.400  19.713  17.436 -0.3507 -0.1426  0.0688
38732W        W81644  30.543  22.558  18.049  0.2059 -0.1175  0.0275
38733W        W81645  30.185  19.714  16.856  0.0303 -0.1158  0.4133
38734W        W81646  28.718  19.304  18.944 -0.2280  0.0793  0.2125
38735W        W81647  31.268  20.356  18.689  0.1994  0.0989 -0.1158
38736W        W81648  30.354  22.097  18.473  0.0525 -0.0039  0.0415
38737W        W81649  30.445  20.206  18.652  0.0412 -0.0468  0.2630
38738W        W81650  29.546  21.063  18.254 -0.0762 -0.1159  0.0726
38739W        W81651  31.767  18.095  18.232  0.1948 -0.0486 -0.1252
38740W        W81652  29.620  20.369  19.394 -0.0981  0.3084 -0.1233
38741W        W81653  29.273  19.003  17.552  0.0215  0.2441  0.3371
38742W        W81654  28.340  19.400  17.209 -0.0523  0.0561 -0.2825
38743W        W81655  31.583  19.009  17.967 -0.1072  0.0223  0.4053
38744W        W81656  33.161  20.771  16.315  0.0439 -0.1570 -0.0303
38745W        W81657  29.649  20.304  20.376 -0.0764 -0.1036  0.2159
38746W        W81658  30.616  19.462  18.622 -0.1376  0.2085 -0.1950
38747W        W81659  29.695  21.553  19.272  0.0777 -0.0473  0.1965
38748W        W81660  31.237  18.480  19.912  0.1685 -0.0084 -0.2551
38749W        W81661  31.658  19.080  16.283  0.0401  0.2960  0.1179
38750W        W81662  31.987  21.215  17.851  0.0622 -0.0457 -0.3165
38751W        W81663  29.531  20.295  19.896  0.0879  0.0614  0.0174
38752W        W81664  28.690  18.954  17.589  0.2406  0.4810 -0.0302
38753W        W81665  30.199  18.990  18.850 -0.0050  0.3201  0.0465
38754W        W81666  29.433  19.351  18.298  0.0540 -0.2004  0.2469
38755W        W81667  28.761  22.932  18.038 -0.0392  0.1051 -0.0660
38756W        W81668  30.164  19.551  18.770  0.3963  0.0222  0.1480
38757W        W81669  29.181  20.028  16.641  0.3814  0.2991  0.0007
38758W        W81670  29.084  20.196  18.005 -0.2009 -0.0965  0.3135
38759W        W81671  30.504  19.908  20.848  0.0889  0.3290  0.0991
38760W        W81672  32.272  20.188  18.834 -0.1594  0.2801 -0.0982
38761W        W81673  31.315  18.761  18.370 -0.0084  0.5787  0.2330
38762W        W81674  29.524  20.870  17.765 -0.0897  0.2344 -0.2592
38763W        W81675  29.893  19.155  19.196  0.2040  0.0551  0.0977
38764W        W81676  31.656  20.401  18.306 -0.1060 -0.1150 -0.2472
38765W        W81677  30.874  18.808  20.569 -0.0895  0.1118  0.1010
38766W        W81678  30.194  21.795  19.611  0.1158  0.0687  0.0691
38767W        W81679  32.071  17.948  19.037  0.2804  0.0883  0.3006
38768W        W81680  31.711  21.893  16.760 -0.5397 -0.0004  0.0619
38769W        W81681  31.492  19.061  18.800  0.0357 -0.1200  0.0321
38770W        W81682  29.289  19.562  17.137  0.1253  0.0778  0.2110
38771W        W81683  28.119  19.817  19.536  0.1446  0.0350  0.0307
38772W        W81684  29.790  21.928  16.628  0.0665 -0.1747  0.3897
38773W        W81685  32.024  19.521  20.482  0.2300 -0.0715  0.2498
38774W        W81686  29.689  19.945  18.537 -0.1688 -0.1266 -0.2669
38775W        W81687  29.244  21.007  16.735  0.1361  0.3075 -0.2871
38776W        W81688  30.935  22.148  20.295  0.0718  0.0713 -0.0405
38777W        W81689  32.661  18.273  16.805 -0.0446 -0.2843 -0.1044
38778W        W81690  31.251  21.043  16.766  0.1759  0.0838 -0.0448
38779W        W81691  30.398  19.718  17.353 -0.0198 -0.2885 -0.1766
38780W        W81692  32.813  20.641  20.783  0.0491 -0.0971 -0.0581
38781W        W81693  32.632  20.951  16.472 -0.0859  0.1559 -0.1486
38782W        W81694  31.267  17.897  21.635  0.1177  0.2137  0.0424
38783W        W81695  29.459  18.592  19.683 -0.4870  0.0716  0.1107
38784W        W81696  31.663  22.762  17.044  0.0902 -0.1285 -0.0386
38785W        W81697  29.791  17.898  20.753  0.0380  0.2689 -0.0543
38786W        W81698  32.416  21.682  19.876  0.2823  0.0873 -0.1208
38787W        W81699  29.636  18.849  18.759  0.0966  0.1264  0.3956
38788W        W81700  31.167  18.968  16.336  0.2528  0.2151  0.0888
38789W        W81701  30.690  17.787  17.010 -0.1507  0.0929 -0.2220
38790W        W81702  30.726  19.391  19.577 -0.0562  0.3451  0.1919
38791W        W81703  32.745  21.132  17.327  0.0673 -0.0945 -0.2635
38792W        W81704  30.903  20.627  16.760  0.3482 -0.0982 -0.1522
38793W        W81705  31.096  21.120  17.277 -0.0361 -0.0390 -0.0127
38794W        W81706  30.108  19.517  19.624  0.0295  0.0239  0.0032
38795W        W81707  32.053  19.291  18.080  0.2005  0.1521 -0.1169
38796W        W81708  30.633  19.932  17.704 -0.0830  0.1349  0.0942
38797W        W81709  29.650  19.519  18.781  0.1019 -0.1172  0.0327
38798W        W81710  30.532  18.494  19.545 -0.1518  0.1100 -0.0689
38799W        W81711  31.941  21.735  17.225 -0.1205 -0.1727  0.3711
38800W        W81712  31.415  17.915  16.548  0.1175  0.1026 -0.0694
38801W        W81713  32.058  18.510  21.156  0.0266  0.0317  0.0766
38802W        W81714  32.185  17.265  18.782  0.0402 -0.0001 -0.0812
38803W        W81715  29.818  20.361  21.461  0.0643 -0.0163 -0.2891
38804W        W81716  28.916  20.594  20.664  0.2277  0.1377 -0.2430
38805W        W81717  32.035  21.746  20.182  0.2285  0.1282 -0.2547
38806W        W81718  32.503  19.238  16.830  0.1890  0.1154 -0.0081
38807W        W81719  32.064  19.746  17.879 -0.0789  0.0526 -0.1285
38808W        W81720  32.326  21.049  16.976  0.0093 -0.1455 -0.1511
38809W        W81721  30.821  19.029  18.118 -0.0810  0.1544 -0.1776
38810W        W81722  28.716  18.529  19.025  0.1409  0.0803  0.1346
38811W        W81723  32.843  20.096  18.804 -0.1570  0.1738  0.1008
38812W        W81724  30.074  18.343  17.281 -0.4204 -0.0860 -0.3295
38813W        W81725  33.349  20.052  22.106  0.0932  0.0077  0.1253
38814W        W81726  29.026  20.779  17.604  0.1354  0.0077  0.0917
38815W        W81727  31.566  21.401  17.317 -0.0463 -0.1519  0.1739
38816W        W81728  32.034  19.260  16.730  0.1424  0.0814 -0.0363
38817W        W81729  28.932  18.477  18.517  0.0037 -0.0245 -0.1103
38818W        W81730  29.786  21.348  20.313 -0.0505  0.0122  0.2419
38819W        W81731  28.502  18.792  17.053  0.3800 -0.3003  0.4432
38820W        W81732  31.640  21.124  18.520 -0.2071  0.1400 -0.0086
38821W        W81733  30.806  21.229  19.436  0.0980  0.0817  0.0641
38822W        W81734  32.440  20.000  20.432  0.0591 -0.1639 -0.1863
38823W        W81735  30.989  17.554  17.938  0.0365  0.1946  0.1973
38824W        W81736  32.709  18.518  20.130 -0.2549  0.0019  0.2603
38825W        W81737  29.318  21.254  17.269 -0.1302 -0.0960  0.0983
38826W        W81738  31.312  18.100  19.538 -0.2263 -0.0301 -0.2019
38827W        W81739  30.027  21.100  18.456  0.1991  0.1808 -0.0470
38828W        W81740  30.058  20.125  19.475 -0.2052 -0.0938 -0.0745
38829W        W81741  29.754  20.792  18.733 -0.1214 -0.1876 -0.0997
38830W        W81742  29.966  19.081  20.092  0.0578 -0.1600 -0.2746
38831W        W81743  32.467  19.653  17.452  0.0423 -0.2182 -0.2193
38832W        W81744  30.859  20.892  17.879  0.1898 -0.2233  0.2836
38833W        W81745  32.057  20.557  19.455  0.2325  0.1710  0.2975
38834W        W81746  33.085  20.682  19.068 -0.4184  0.0061 -0.3646
38835W        W81747  29.608  20.083  18.021  0.0147 -0.0693 -0.2204
38836W        W81748  31.126  20.968  19.734  0.1646  0.2017 -0.1558
38837W        W81749  31.906  22.185  17.080 -0.2218  0.0979 -0.2104
38838W        W81750  28.412  20.638  16.996 -0.2346  0.0124 -0.0176
38839W        W81751  28.789  19.332  20.127  0.1841  0.2632 -0.2992
38840W        W81752  30.415  20.888  20.701  0.0751 -0.0129  0.0478
38841W        W81753  30.919  20.556  19.526 -0.0033  0.0666 -0.3848
38842W        W81754  29.497  18.510  17.873  0.4605 -0.0295 -0.3081
38843W        W81755  31.428  21.218  15.951  0.0630  0.1196 -0.2078
38844W        W81756  29.931  23.635  20.334 -0.0253 -0.1354 -0.0446
38845W        W81757  30.003  21.468  21.339 -0.1676 -0.0501  0.0762
38846W        W81758  29.742  20.393  16.929  0.0297  0.1782 -0.0784
38847W        W81759  31.870  20.746  16.876 -0.0832 -0.0973 -0.0114
38848W        W81760  31.664  20.223  17.422 -0.1252 -0.2157  0.1287
38849W        W81761  30.368  20.792  18.176  0.0585 -0.1750 -0.1774
38850W        W81762  29.592  18.956  16.595 -0.0134  0.1505 -0.0117
38851W        W81763  29.128  21.796  18.086 -0.1405  0.0789 -0.2625
38852W        W81764  28.765  21.841  17.238  0.2458 -0.1190 -0.1200
38853W        W81765  31.404  20.603  16.587 -0.1058  0.0291  0.0726
38854W        W81766  30.894  23.519  18.099  0.2942 -0.0667  0.1686
38855W        W81767  31.610  21.381  18.971  0.3748  0.2198  0.0420
38856W        W81768  33.420  18.709  16.930  0.2088 -0.0248 -0.0622
38857W        W81769  33.516  20.766  17.142 -0.0386  0.3797 -0.1904
38858W        W81770  31.129  19.312  17.171  0.2822  0.1453  0.0948
38859W        W81771  34.110  22.117  19.863 -0.0404  0.0484 -0.3428
38860W        W81772  31.481  17.638  19.763 -0.1771  0.1536  0.4807
38861W        W81773  29.543  17.481  16.868  0.0869  0.0310  0.4257
38862W        W81774  30.454  20.247  18.177 -0.1844 -0.0280  0.1149
38863W        W81775  32.772  20.181  21.182  0.1408  0.1743 -0.2601
38864W        W81776  29.245  20.763  19.204 -0.0325 -0.2796 -0.2389
38865W        W81777  30.881  22.233  17.343  0.2715  0.0199  0.1370
38866W        W81778  28.259  19.141  16.721  0.0750  0.0499  0.0036
38867W        W81779  28.794  20.527  18.596 -0.2508  0.2097  0.2223
38868W        W81780  32.442  17.130  19.237  0.4076  0.0467 -0.0926
38869W        W81781  31.046  20.039  16.939  0.2100 -0.3244  0.0576
38870W        W81782  30.856  20.000  18.895  0.1943 -0.4182 -0.2587
38871W        W81783  30.086  20.869  17.040 -0.2194  0.0106  0.0709
38872W        W81784  32.250  20.941  19.640 -0.1982 -0.0104  0.0423
38873W        W81785  30.361  21.591  18.472 -0.0327 -0.0246  0.3408
38874W        W81786  30.878  17.445  17.453 -0.0553  0.1092  0.2640
38875W        W81787  32.947  19.702  17.721  0.1560 -0.0232 -0.0014
38876W        W81788  29.621  19.827  19.614 -0.0861 -0.0771  0.0630
38877W        W81789  32.619  18.686  19.700 -0.0467  0.1029 -0.2583
38878W        W81790  28.800  18.796  18.153  0.1713  0.0032 -0.2558
38879W        W81791  32.307  19.598  16.514  0.0481  0.1886 -0.0635
38880W        W81792  30.946  18.989  18.755  0.1886 -0.2144  0.3351
38881W        W81793  29.895  20.904  20.531 -0.2454  0.1958 -0.1377
38882W        W81794  30.805  20.372  17.244  0.1124  0.1201  0.1732
38883W        W81795  31.926  20.398  20.440 -0.0768  0.4339 -0.1882
38884W        W81796  31.082  20.063  17.436 -0.0117  0.2801  0.0212
38885W        W81797  31.402  22.867  21.349 -0.1943  0.3106 -0.5122
38886W        W81798  29.329  19.226  19.027  0.2211  0.1795  0.1551
38887W        W81799  31.047  18.737  17.733  0.0089 -0.2267 -0.0713
38888W        W81800  31.272  19.927  17.919 -0.0669 -0.4220 -0.1001
38889W        W81801  31.401  18.574  18.930  0.1607  0.0958  0.1628
38890W        W81802  32.769  21.092  18.435 -0.2529 -0.1936  0.1711
38891W        W81803  28.951  18.640  17.259  0.1124  0.1833 -0.2028
38892W        W81804  33.255  20.055  15.912 -0.1074  0.3575  0.0590
38893W        W81805  32.260  20.466  17.778  0.3283 -0.2608 -0.0638
38894W        W81806  31.287  21.909  16.460  0.2062  0.1196  0.0591
38895W        W81807  31.681  20.662  18.799 -0.1615  0.1894  0.3522
38896W        W81808  33.570  20.583  18.813  0.0545  0.0493  0.1513
38897W        W81809  28.789  19.993  19.307 -0.0405  0.1861  0.1371
38898W        W81810  33.219  20.580  18.075  0.0914 -0.3369  0.2924
38899W        W81811  33.967  21.733  18.423  0.2743 -0.0526 -0.2488
38900W        W81812  30.250  17.822  18.157 -0.1757  0.0860  0.0733
38901W        W81813  30.572  18.524  17.676 -0.0669  0.4250  0.3098
38902W        W81814  29.219  21.773  17.561  0.2556  0.0987 -0.0470
38903W        W81815  31.915  20.791  18.147 -0.0792 -0.1077 -0.0581
38904W        W81816  31.676  19.353  20.121 -0.0127  0.1835  0.2015
38905W        W81817  30.172  21.418  17.130  0.0919  0.2425 -0.0621
38906W        W81818  32.533  17.480  20.565  0.1228 -0.0130 -0.2942
38907W        W81819  31.813  20.963  19.186 -0.1136 -0.0924 -0.4174
38908W        W81820  29.978  21.924  22.303  0.3213 -0.0079 -0.2380
38909W        W81821  28.373  20.170  17.105 -0.2164  0.1698  0.1207
38910W        W81822  30.228  21.363  20.495  0.0651  0.0601  0.2484
38911W        W81823  30.904  20.505  18.998  0.1363  0.0326 -0.5676
38912W        W81824  30.564  22.669  17.509 -0.0176  0.0741  0.2700
38913W        W81825  33.670  20.023  19.573 -0.0799  0.0416  0.1679
38914W        W81826  31.343  20.491  17.060 -0.1428  0.0086 -0.1071
38915W        W81827  32.459  20.732  18.163 -0.1559 -0.3057  0.0264
38916W        W81828  31.955  18.997  20.253  0.1143  0.1342  0.2771
38917W        W81829  32.172  19.187  17.216  0.0349 -0.0073  0.2359
38918W        W81830  31.719  18.860  17.040 -0.1094 -0.1146  0.2372
38919W        W81831  31.363  19.780  19.927  0.0151  0.1811  0.1856
38920W        W81832  28.932  20.461  17.199 -0.4374  0.0180  0.0991
38921W        W81833  29.447  22.691  17.278  0.2275  0.2744  0.1019
38922W        W81834  31.240  19.260  17.718  0.0981 -0.0793  0.0024
38923W        W81835  31.208  18.100  20.795 -0.1029  0.2343  0.2210
38924W        W81836  30.000  20.085  21.131  0.0264 -0.0783  0.4207
38925W        W81837  28.804  19.850  17.149 -0.0982 -0.1032  0.1514
38926W        W81838  29.969  19.191  16.864  0.3950  0.0505 -0.2388
38927W        W81839  33.020  21.390  16.487  0.2404 -0.0319  0.1651
38928W        W81840  30.026  19.235  18.422  0.2368 -0.0591  0.3199
38929W        W81841  29.571  20.526  18.317  0.0655 -0.3254  0.3121
38930W        W81842  31.109  20.667  17.480  0.0336  0.1389 -0.1276
38931W        W81843  31.052  22.088  19.148  0.2830 -0.2225 -0.2584
38932W        W81844  30.768  17.841  18.253 -0.1706 -0.0812  0.4116
38933W        W81845  33.187  21.018  19.407 -0.0416  0.1379  0.0600
38934W        W81846  28.762  19.912  16.338 -0.0613 -0.1231 -0.2004
38935W        W81847  31.470  18.573  20.516 -0.0590 -0.0045 -0.0674
38936W        W81848  31.499  19.474  21.497  0.3354 -0.0003  0.0470
38937W        W81849  28.359  18.513  17.511  0.1145 -0.1557  0.0028
38938W        W81850  31.539  19.288  18.376 -0.2403  0.2251  0.0096
38939W        W81851  31.967  21.192  17.282  0.0336  0.0071 -0.1017
38940W        W81852  31.071  20.860  16.271  0.1082 -0.3674 -0.2020
38941W        W81853  30.594  20.939  19.867  0.2302 -0.1471  0.0082
38942W        W81854  31.409  21.714  18.626 -0.0100  0.0308 -0.0974
38943W        W81855  30.791  18.434  22.768 -0.1172 -0.1131 -0.4473
38944W        W81856  31.811  19.957  16.277 -0.2320 -0.2096  0.0046
38945W        W81857  30.800  21.673  20.062 -0.3014  0.4826 -0.1494
38946W        W81858  31.890  20.492  16.415 -0.2464 -0.1811 -0.3096
38947W        W81859  32.375  19.187  17.704 -0.1686  0.0630 -0.2966
38948W        W81860  31.929  19.664  17.418 -0.1984  0.3549 -0.1299
38949W        W81861  29.330  18.079  21.104 -0.0596 -0.1127 -0.1011
38950W        W81862  30.908  21.972  21.123 -0.1149 -0.0595  0.0312
38951W        W81863  32.113  20.640  18.569 -0.0393  0.3180  0.0408
38952W        W81864  30.511  18.058  18.656  0.2066  0.1962 -0.0803
38953W        W81865  30.830  18.254  16.812  0.0269  0.2357  0.0411
38954W        W81866  32.501  20.527  16.227  0.1146 -0.0236 -0.1239
38955W        W81867  29.233  19.717  17.769  0.0134  0.0516  0.1543
38956W        W81868  29.901  19.499  17.214  0.0539 -0.3904 -0.2388
38957W        W81869  30.906  19.890  19.516 -0.2641 -0.3120 -0.0094
38958W        W81870  31.096  21.473  17.886 -0.1421  0.1269  0.3096
38959W        W81871  30.931  21.941  19.612  0.1827  0.0709  0.0854
38960W        W81872  30.050  20.105  17.188  0.2384  0.2263  0.1596
38961W        W81873  33.190  20.899  17.493 -0.2199  0.3643 -0.1266
38962W        W81874  31.811  21.926  21.325  0.0525  0.1406 -0.0600
38963W        W81875  32.097  20.720  20.066 -0.3281  0.1490 -0.2018
38964W        W81876  32.125  21.833  19.221 -0.2069  0.2102 -0.0306
38965W        W81877  30.794  21.772  18.263  0.2387  0.2369 -0.3702
38966W        W81878  29.865  19.787  20.426  0.3267  0.0016 -0.2662
38967W        W81879  29.153  20.690  18.208 -0.3624 -0.2098  0.3294
38968W        W81880  31.100  20.303  18.201 -0.1576 -0.0513  0.0136
38969W        W81881  31.739  19.337  19.279  0.1878  0.0486 -0.1302
38970W        W81882  30.744  20.605  18.427 -0.0085  0.0913  0.0313
38971W        W81883  30.907  18.152  17.712 -0.1637  0.0087 -0.1697
38972W        W81884  31.159  20.818  18.603 -0.3131  0.1080  0.0531
38973W        W81885  31.547  19.928  20.485  0.1708  0.0858  0.3937
38974W        W81886  29.982  22.442  24.596  0.1945 -0.0644 -0.0433
38975W        W81887  29.522  19.467  20.897  0.0743  0.0529  0.0237
38976W        W81888  32.062  18.676  19.748  0.1847  0.0584 -0.0145
38977W        W81889  31.505  20.187  20.942 -0.0525  0.1412  0.1686
38978W        W81890  29.453  19.774  23.038  0.1226 -0.1633 -0.5528
38979W        W81891  31.639  21.574  19.939 -0.1439 -0.3230 -0.1681
38980W        W81892  29.099  17.962  22.694  0.1112 -0.0545 -0.0911
38981W        W81893  31.119  22.621  23.030 -0.2778  0.1636 -0.0558
38982W        W81894  32.771  21.756  22.732 -0.1810 -0.2161  0.3106
38983W        W81895  31.731  19.854  21.286 -0.1088 -0.0005 -0.0560
38984W        W81896  32.771  18.549  22.149  0.1675 -0.2106 -0.0870
38985W        W81897  31.151  21.813  22.508 -0.1474  0.2217  0.2394
38986W        W81898  31.276  19.052  21.562  0.2526 -0.0682  0.1565
38987W        W81899  30.089  19.426  21.675  0.2031  0.2683 -0.0880
38988W        W81900  29.712  19.337  22.898  0.0501  0.1073  0.0157
38989W        W81901  27.958  20.757  21.567  0.0400  0.0738  0.1313
38990W        W81902  30.600  18.924  22.748 -0.1156 -0.1442  0.2904
38991W        W81903  32.251  18.975  21.140 -0.2373  0.2385 -0.0049
38992W        W81904  31.379  22.097  22.082 -0.2079  0.1666  0.1157
38993W        W81905  31.113  18.220  23.128  0.0579  0.2347  0.0839
38994W        W81906  32.918  18.243  25.226  0.2805  0.0283  0.2408
38995W        W81907  30.156  21.468  22.544  0.2214  0.0802  0.1983
38996W        W81908  28.166  19.998  21.006  0.0753 -0.2919  0.1205
38997W        W81909  27.136  18.994  22.491 -0.1450  0.2833 -0.0393
38998W        W81910  30.746  20.154  22.569  0.0188 -0.1343  0.0726
38999W        W81911  31.817  19.452  21.958 -0.0058 -0.1119 -0.5696
39000W        W81912  31.534  19.734  22.298  0.1211 -0.2898 -0.1730
39001W        W81913  29.760  20.961  22.478  0.1029  0.4143  0.2473
39002W        W81914  32.032  20.175  21.673  0.2298 -0.1143  0.2386
39003W        W81915  32.908  20.244  24.028  0.0793 -0.2971  0.0089
39004W        W81916  28.145  20.976  22.331  0.0714 -0.1140  0.0152
39005W        W81917  29.819  21.319  20.803  0.2034 -0.1275 -0.0325
39006W        W81918  30.784  22.122  21.660  0.1791 -0.0495 -0.2829
39007W        W81919  33.725  20.892  22.201 -0.0340 -0.0073 -0.2528
39008W        W81920  32.046  21.432  23.536 -0.2077 -0.3185  0.2070
39009W        W81921  30.243  21.532  24.400  0.1692 -0.0259 -0.1547
39010W        W81922  30.903  22.394  19.856  0.1984  0.4701  0.0168
39011W        W81923  30.577  21.980  22.951  0.2732  0.2026 -0.3359
39012W        W81924  30.474  21.229  23.903  0.0077 -0.1189 -0.2142
39013W        W81925  30.255  18.413  23.504  0.1893  0.0834  0.1879
39014W        W81926  29.490  19.882  21.267 -0.0830 -0.2744 -0.2246
39015W        W81927  30.722  22.214  20.791  0.1671  0.1675  0.1451
39016W        W81928  31.669  21.016  21.757  0.1925  0.2538 -0.1672
39017W        W81929  30.644  19.876  24.125 -0.1036 -0.3266  0.0918
39018W        W81930  29.067  21.528  22.256  0.0538  0.0637  0.2365
39019W        W81931  32.213  18.984  23.901  0.1036  0.0139 -0.0285
39020W        W81932  30.502  21.293  21.314  0.0160 -0.1195  0.0833
39021W        W81933  32.298  18.264  21.680  0.0817  0.0082 -0.1341
39022W        W81934  30.928  18.889  19.694  0.0068  0.1570  0.0001
39023W        W81935  32.439  19.567  21.252 -0.1909 -0.0623 -0.1618
39024W        W81936  29.686  18.338  21.528 -0.2208  0.2510  0.0984
39025W        W81937  31.101  20.590  22.554  0.0512  0.0237  0.1519
39026W        W81938  30.478  17.728  22.742 -0.0593  0.0388 -0.0163
39027W        W81939  31.729  20.903  23.654 -0.2448  0.3736  0.1211
39028W        W81940  30.506  22.480  20.391  0.0862 -0.1415 -0.0446
39029W        W81941  31.991  19.496  23.854 -0.2267  0.0707 -0.0537
39030W        W81942  31.180  21.146  22.273  0.3277 -0.3223 -0.0473
39031W        W81943  29.728  19.801  22.559 -0.0718  0.4428 -0.0264
39032W        W81944  31.537  20.729  19.640 -0.0164  0.1202 -0.0567
39033W        W81945  32.307  21.388  20.607 -0.0294 -0.0195 -0.0202
39034W        W81946  31.431  21.755  20.986 -0.0134  0.2411  0.0729
39035W        W81947  29.829  20.482  20.856  0.3409  0.3095  0.2307
39036W        W81948  28.540  20.518  23.888 -0.1418 -0.2541  0.0417
39037W        W81949  29.320  19.523  22.610  0.1550  0.0913 -0.4157
39038W        W81950  30.711  19.900  21.337  0.0217 -0.1507  0.1483
39039W        W81951  32.458  19.935  24.062 -0.0995 -0.2298  0.1180
39040W        W81952  29.304  21.444  24.244 -0.4943  0.2877 -0.2752
39041W        W81953  32.772  19.095  22.179  0.1647 -0.1264 -0.0008
39042W        W81954  30.416  21.926  22.010 -0.2579 -0.1477 -0.0888
39043W        W81955  32.104  20.566  22.469  0.1824  0.0782 -0.0142
39044W        W81956  31.165  19.441  18.632 -0.2973 -0.1049  0.1902
39045W        W81957  32.567  18.846  23.492 -0.2219 -0.1254 -0.0103
39046W        W81958  31.021  18.618  23.403 -0.0529  0.1315  0.1626
39047W        W81959  29.502  20.927  20.197 -0.1021 -0.1601  0.4173
39048W        W81960  29.348  21.166  21.400  0.1142 -0.0501  0.1230
39049W        W81961  33.094  20.205  22.653  0.2493 -0.0493 -0.0223
39050W        W81962  31.273  20.370  20.502 -0.1544 -0.2289 -0.0236
39051W        W81963  29.688  22.172  23.133  0.1362 -0.0150  0.0680
39052W        W81964  32.457  19.409  24.135  0.0849  0.1507  0.0908
39053W        W81965  31.139  20.245  24.075  0.0870 -0.0734  0.2428
39054W        W81966  29.997  23.276  20.676  0.0257  0.2049 -0.1844
39055W        W81967  29.111  20.239  21.498  0.1163  0.2256 -0.1159
39056W        W81968  30.170  20.724  19.636 -0.2812 -0.2583 -0.0376
39057W        W81969  28.561  19.514  23.841  0.2078  0.0116 -0.4033
39058W        W81970  29.810  21.255  22.911  0.0669 -0.0156 -0.0625
39059W        W81971  32.897  19.295  22.690  0.0013  0.0315  0.0681
39060W        W81972  28.045  18.875  23.899 -0.2674  0.1218  0.1885
39061W        W81973  32.496  18.301  21.159 -0.0239  0.2647  0.0849
39062W        W81974  28.554  21.620  22.316  0.0153  0.1116 -0.1602
39063W        W81975  34.230  22.122  20.842  0.1954  0.0922  0.0621
39064W        W81976  33.265  20.438  21.225 -0.2486 -0.1126  0.2232
39065W        W81977  31.434  19.902  18.478 -0.2429  0.0295  0.3271
39066W        W81978  29.291  21.057  23.926  0.1708  0.3197 -0.1023
39067W        W81979  29.961  18.838  22.052  0.1753 -0.1976 -0.2521
39068W        W81980  30.039  18.957  24.202  0.2190  0.1116  0.1429
39069W        W81981  29.149  19.622  21.705  0.2671 -0.1175 -0.1539
39070W        W81982  32.875  21.008  24.793  0.1343 -0.1764 -0.1097
39071W        W81983  29.069  18.282  21.585  0.0249 -0.0913  0.1150
39072W        W81984  32.173  19.638  23.002 -0.1139  0.0840 -0.3163
39073W        W81985  31.187  20.751  21.444  0.1195 -0.3876 -0.0112
39074W        W81986  28.387  20.722  21.785 -0.2190  0.2190  0.3794
39075W        W81987  31.868  18.541  23.772 -0.1887  0.2286  0.3851
39076W        W81988  31.665  21.963  20.469 -0.0153  0.2092  0.1401
39077W        W81989  33.423  21.011  24.047 -0.2102  0.0556 -0.0010
39078W        W81990  32.142  21.150  21.527  0.0757 -0.1938 -0.1405
39079W        W81991  31.295  19.353  23.019  0.3170  0.1519 -0.2733
39080W        W81992  31.003  19.274  20.785  0.2642  0.0648 -0.1435
39081W        W81993  30.524  21.429  22.866  0.0569 -0.0306  0.3447
39082W        W81994  32.021  21.379  21.928  0.0608 -0.1948  0.0238
39083W        W81995  29.305  18.535  20.203 -0.2788  0.1836 -0.0878
39084W        W81996  32.287  21.952  22.602 -0.2222  0.1983 -0.2707
39085W        W81997  29.999  21.397  22.090 -0.4110  0.1901  0.1223
39086W        W81998  28.137  22.058  22.648 -0.0091  0.0804  0.1716
39087W        W81999  32.005  18.253  22.984  0.0027 -0.0651  0.1621
39088W        W82000  32.148  20.078  23.735  0.1752 -0.1879 -0.1109
39089W        W82001  32.442  20.393  21.834 -0.0915 -0.0603 -0.0234
39090W        W82002  29.505  21.514  21.762 -0.0177 -0.1111  0.0151
39091W        W82003  33.078  21.782  21.642 -0.1484 -0.1232  0.1104
39092W        W82004  28.936  21.694  20.299 -0.1823  0.1595  0.1090
39093W        W82005  28.438  20.447  20.774 -0.0653  0.1423 -0.3497
39094W        W82006  32.461  21.593  22.284 -0.0471  0.3263 -0.0819
39095W        W82007  31.667  19.626  22.788 -0.1047  0.0826 -0.0866
39096W        W82008  29.504  18.991  24.305  0.0695  0.1473 -0.1968
39097W        W82009  32.322  18.868  25.277 -0.0780 -0.4720  0.0221
39098W        W82010  29.298  21.707  21.400  0.1240 -0.1562  0.0422
39099W        W82011  29.888  21.114  23.831 -0.0517  0.1144 -0.1042
39100W        W82012  30.880  17.595  21.782 -0.1987 -0.0100  0.0753
39101W        W82013  33.709  18.570  21.812  0.1548  0.3310  0.1119
39102W        W82014  31.129  19.740  24.157  0.2800  0.0172 -0.0085
39103W        W82015  33.498  21.509  21.473 -0.0693  0.1299 -0.1304
39104W        W82016  31.318  19.886  18.981 -0.0165  0.0370  0.0823
39105W        W82017  32.373  17.019  20.597 -0.2112  0.0182 -0.1997
39106W        W82018  31.153  23.404  24.062  0.0308 -0.0349 -0.3489
39107W        W82019  31.581  20.753  20.231  0.4560  0.0229 -0.0435
39108W        W82020  31.245  20.116  22.229 -0.1857  0.3050 -0.2943
39109W        W82021  30.787  20.897  21.156 -0.0536  0.1779  0.2711
39110W        W82022  32.962  20.794  19.915 -0.2655  0.0577 -0.0733
39111W        W82023  29.876  21.209  24.431 -0.0542 -0.1066 -0.2727
39112W        W82024  31.801  20.354  23.050 -0.2543 -0.0089  0.0476
39113W        W82025  31.116  21.288  21.282  0.3016  0.0569  0.2291
39114W        W82026  31.262  17.494  22.688  0.4149 -0.0017  0.1823
39115W        W82027  30.408  20.387  20.981  0.2686 -0.0384  0.1757
39116W        W82028  30.390  19.602  22.334 -0.1564 -0.0445  0.2781
39117W        W82029  28.967  22.199  19.499  0.1479 -0.0567 -0.1906
39118W        W82030  32.369  18.603  22.861  0.1573  0.1899 -0.2342
39119W        W82031  31.055  19.732  21.715  0.0353  0.0490  0.1141
39120W        W82032  31.275  19.145  23.454  0.3399  0.2227 -0.0212
39121W        W82033  30.802  19.498  25.080 -0.1248 -0.4845 -0.0296
39122W        W82034  31.609  19.917  21.757 -0.1129  0.0392 -0.2173
39123W        W82035  31.279  19.328  22.002  0.1714 -0.1901  0.0483
39124W        W82036  29.620  22.111  21.505  0.0193  0.2367  0.0830
39125W        W82037  30.426  17.571  24.048  0.0336 -0.1571  0.0502
39126W        W82038  29.152  20.116  24.156 -0.3383 -0.3429  0.0545
39127W        W82039  29.348  22.471  23.921  0.2244  0.0009  0.0777
39128W        W82040  32.282  20.991  23.287 -0.2427 -0.0630 -0.4016
39129W        W82041  31.199  19.962  21.298 -0.0645 -0.0053 -0.0635
39130W        W82042  31.161  18.824  22.533  0.1277  0.2377  0.5684
39131W        W82043  30.544  19.402  21.277  0.0436  0.1816 -0.0054
39132W        W82044  31.767  22.221  20.962  0.2823  0.0199 -0.2988
39133W        W82045  30.504  20.015  20.170 -0.1825  0.0741  0.2982
39134W        W82046  31.864  18.327  22.444 -0.0011 -0.1541  0.0870
39135W        W82047  31.626  20.643  22.682  0.0818  0.2881 -0.1568
39136W        W82048  31.754  21.333  20.946  0.0949  0.0454 -0.0669
39137W        W82049  30.528  19.921  23.591 -0.1276  0.2642 -0.0311
39138W        W82050  29.322  21.225  22.659 -0.1119  0.0815  0.1211
39139W        W82051  32.831  18.453  23.731  0.1502 -0.0031 -0.2197
39140W        W82052  29.318  20.733  22.456  0.0808 -0.0771  0.0736
39141W        W82053  30.154  20.661  22.447  0.1156 -0.0737  0.1116
39142W        W82054  29.409  19.880  20.159 -0.2627 -0.0071 -0.0940
39143W        W82055  31.928  18.541  21.955  0.3473  0.0929  0.1858
39144W        W82056  33.399  20.072  21.571  0.4304  0.1010  0.0268
39145W        W82057  28.124  20.266  23.666 -0.0415 -0.1712  0.0082
39146W        W82058  30.210  20.014  22.579  0.0123 -0.0658  0.0982
39147W        W82059  29.116  20.330  23.289 -0.1962 -0.1013  0.2689
39148W        W82060  30.746  19.166  23.232 -0.1325  0.0631  0.0614
39149W        W82061  30.247  19.734  21.307 -0.0931  0.1203  0.0111
39150W        W82062  31.802  20.121  22.190  0.2063 -0.0639  0.0914
39151W        W82063  28.834  19.598  22.436 -0.1733  0.2246 -0.1205
39152W        W82064  28.618  19.773  19.713 -0.2270 -0.2859  0.0057
39153W        W82065  32.858  19.714  23.976 -0.3322  0.0943  0.1379
39154W        W82066  30.585  20.620  22.189 -0.0244  0.0212 -0.1368
39155W        W82067  29.794  22.390  22.032 -0.1317  0.1588 -0.2088
39156W        W82068  31.137  20.522  23.637  0.0076 -0.0074 -0.1442
39157W        W82069  30.033  20.537  19.095 -0.0331 -0.0156 -0.1132
39158W        W82070  31.488  21.541  22.238  0.0851 -0.0926  0.0419
39159W        W82071  30.114  18.349  22.220  0.2500 -0.0576  0.1532
39160W        W82072  32.138  20.130  22.718  0.3407  0.3096 -0.1547
39161W        W82073  30.869  20.609  22.993 -0.1657  0.3877  0.1393
39162W        W82074  30.201  19.537  22.818 -0.4831 -0.3712 -0.1194
39163W        W82075  30.584  21.298  22.339 -0.1526  0.3625 -0.3752
39164W        W82076  31.537  18.827  23.221 -0.0533 -0.1066  0.2561
39165W        W82077  32.276  18.573  22.309  0.1232 -0.3449  0.1255
39166W        W82078  30.185  19.048  22.503 -0.1531 -0.1280 -0.0188
39167W        W82079  31.034  17.898  22.569  0.1378  0.1299 -0.0571
39168W        W82080  32.279  20.811  19.030  0.0378 -0.4601  0.1866
39169W        W82081  33.361  20.586  22.986 -0.1454  0.0438 -0.1639
39170W        W82082  29.999  21.981  21.180  0.1368 -0.0190 -0.1689
39171W        W82083  29.347  19.510  23.519  0.0792  0.0793  0.0138
39172W        W82084  29.382  20.350  22.791 -0.0622  0.0014  0.1029
39173W        W82085  31.297  19.945  23.187 -0.0936  0.0442 -0.2708
39174W        W82086  29.633  21.105  23.380  0.0114 -0.1120  0.0410
39175W        W82087  30.432  21.739  20.967 -0.1512  0.0122 -0.3316
39176W        W82088  30.224  21.307  23.299 -0.0390 -0.0035 -0.0376
39177W        W82089  33.234  17.776  21.165  0.4014 -0.2498  0.0690
39178W        W82090  31.135  21.060  20.215 -0.3452 -0.0162 -0.3033
39179W        W82091  30.618  20.094  22.027  0.0416  0.2461  0.1649
39180W        W82092  34.082  18.745  22.078 -0.3367 -0.2549 -0.0359
39181W        W82093  32.342  20.421  20.867 -0.0700 -0.0535 -0.0030
39182W        W82094  31.525  19.039  22.721 -0.4472  0.0789  0.0988
39183W        W82095  31.089  19.505  21.238  0.1661  0.2399 -0.0839
39184W        W82096  32.916  20.341  21.659  0.3296 -0.1014  0.0269
39185W        W82097  29.699  19.171  22.396  0.0005  0.5909 -0.0269
39186W        W82098  32.051  21.586  24.203  0.3453 -0.2535  0.1071
39187W        W82099  30.281  20.432  24.209 -0.0151  0.4383  0.0175
39188W        W82100  31.947  19.923  20.736 -0.1845 -0.1649  0.2938
39189W        W82101  30.493  18.782  20.947 -0.0126  0.1939  0.1244
39190W        W82102  32.234  21.696  21.543 -0.0583 -0.0971 -0.2779
39191W        W82103  32.373  21.396  22.719 -0.0177  0.0109 -0.0382
39192W        W82104  31.712  20.893  21.299 -0.0216  0.1518  0.1374
39193W        W82105  30.975  19.813  20.839  0.2712 -0.1022  0.1769
39194W        W82106  30.697  21.433  23.472 -0.0945  0.1274 -0.0285
39195W        W82107  32.127  20.620  21.458  0.3818  0.1107  0.0203
39196W        W82108  30.479  20.337  19.243 -0.1047  0.2560  0.0282
39197W        W82109  29.371  21.163  22.132 -0.2059 -0.1768  0.1851
39198W        W82110  29.402  18.118  24.374 -0.2773 -0.1387  0.2169
39199W        W82111  32.565  20.305  22.382 -0.0237  0.0221 -0.0441
39200W        W82112  29.516  19.573  22.121 -0.1763  0.1088  0.1634
39201W        W82113  32.255  19.241  23.372  0.2112 -0.2357 -0.2791
39202W        W82114  32.261  18.408  23.380  0.4396 -0.0196  0.0259
39203W        W82115  30.460  19.953  23.070 -0.0982  0.2349 -0.0249
39204W        W82116  28.964  18.612  25.058 -0.1310  0.1930  0.1758
39205W        W82117  32.669  20.912  23.597  0.1067 -0.0183 -0.0712
39206W        W82118  31.780  18.768  20.877 -0.0295  0.1667 -0.1544
39207W        W82119  33.205  18.463  22.475  0.1660  0.1081 -0.0808
39208W        W82120  31.885  20.529  20.927 -0.3339 -0.4644  0.2874
39209W        W82121  31.022  20.588  20.118  0.3445  0.1572  0.3560
39210W        W82122  28.967  18.400  22.898  0.0502  0.1375  0.0678
39211W        W82123  33.295  20.090  23.816 -0.3080  0.3413 -0.1649
39212W        W82124  30.513  20.371  19.768 -0.1890  0.0256 -0.0901
39213W        W82125  31.359  18.421  22.756  0.4140 -0.2110  0.2908
39214W        W82126  31.353  22.315  21.294  0.1325 -0.1466  0.0013
39215W        W82127  30.916  21.641  22.094 -0.1363 -0.1608 -0.1143
39216W        W82128  30.775  20.974  21.721 -0.2013  0.0597  0.4081
39217W        W82129  28.982  20.354  22.497  0.2040 -0.1617 -0.1209
39218W        W82130  29.228  21.955  22.964 -0.1684 -0.2665 -0.1907
39219W        W82131  30.447  19.643  19.231  0.1181  0.0698  0.1696
39220W        W82132  31.284  21.128  20.841 -0.1419 -0.0059 -0.1137
39221W        W82133  31.766  21.000  22.266 -0.2032 -0.1686 -0.0666
39222W        W82134  32.101  20.269  24.664 -0.2883 -0.0225  0.2338
39223W        W82135  31.678  18.726  21.375  0.0775  0.1027 -0.1515
39224W        W82136  31.688  18.866  24.152  0.1070 -0.3048  0.0436
39225W        W82137  30.641  21.143  20.350  0.0565  0.1092  0.2767
39226W        W82138  31.136  18.851  22.021 -0.1317 -0.1441 -0.0109
39227W        W82139  28.789  22.379  22.895  0.2632 -0.1030  0.1815
39228W        W82140  29.152  20.937  23.385 -0.1875  0.0908  0.3655
39229W        W82141  29.649  22.200  22.620 -0.0379 -0.2230 -0.1517
39230W        W82142  31.590  18.722  22.324  0.0821  0.0754 -0.3203
39231W        W82143  32.306  20.510  22.942 -0.0772  0.1071  0.1480
39232W        W82144  31.180  19.852  22.678 -0.4585  0.0601  0.0369
39233W        W82145  32.079  20.281  24.211 -0.0684  0.2921  0.1770
39234W        W82146  29.524  20.587  23.615  0.0981 -0.3037 -0.0328
39235W        W82147  30.811  19.181  22.303 -0.2789  0.3327 -0.0461
39236W        W82148  30.282  20.721  23.836  0.3013  0.3225  0.2176
39237W        W82149  32.325  21.059  22.331 -0.2268 -0.0877  0.0772
39238W        W82150  28.305  22.454  21.491 -0.4259  0.0186 -0.0037
39239W        W82151  29.652  18.499  24.026 -0.0040  0.1929 -0.1349
39240W        W82152  29.769  19.845  23.556  0.0749 -0.0620  0.0789
39241W        W82153  31.255  19.404  22.503  0.1214  0.0486  0.0075
39242W        W82154  30.952  17.872  21.221  0.1687  0.1092 -0.0783
39243W        W82155  31.936  21.897  19.708 -0.4177  0.2988 -0.0207
39244W        W82156  29.765  21.650  24.197 -0.1251 -0.1272 -0.1562
39245W        W82157  28.962  21.949  24.185  0.2174  0.1380  0.0291
39246W        W82158  29.932  21.840  20.607  0.0323 -0.3312 -0.1598
39247W        W82159  32.002  20.893  20.573  0.1944  0.0656  0.0074
39248W        W82160  31.288  18.938  20.208 -0.1794 -0.0182 -0.0328
39249W        W82161  30.819  20.937  23.652  0.0542  0.1898 -0.0005
39250W        W82162  29.232  20.457  22.084 -0.2192 -0.1385 -0.2887
39251W        W82163  29.848  21.584  23.397  0.1255  0.3898  0.1740
39252W        W82164  28.107  21.045  21.135  0.0860 -0.0731 -0.1586
39253W        W82165  31.331  20.142  19.591 -0.2877  0.1494 -0.1151
39254W        W82166  30.549  21.764  22.479  0.0595  0.1432  0.0537
39255W        W82167  33.593  20.244  23.274 -0.1050 -0.1301 -0.0772
39256W        W82168  31.733  19.041  23.686  0.2105  0.2843 -0.2537
39257W        W82169  31.778  19.177  22.365 -0.3315  0.0214 -0.2191
39258W        W82170  32.892  19.715  20.978  0.2202  0.0155 -0.3791
39259W        W82171  31.066  19.936  23.669 -0.2774  0.0320  0.1731
39260W        W82172  30.393  19.539  23.306  0.2432  0.1303  0.0562
39261W        W82173  29.813  19.844  21.621  0.1722  0.3507  0.2226
39262W        W82174  31.078  19.831  25.500 -0.2192 -0.0790 -0.1365
39263W        W82175  32.402  18.523  23.904  0.0508  0.0134  0.1633
39264W        W82176  29.416  21.928  26.001  0.1186  0.1639  0.2412
39265W        W82177  32.288  20.950  21.070  0.2279  0.2777 -0.1254
39266W        W82178  30.430  21.441  21.855 -0.0895 -0.0949 -0.0509
39267W        W82179  30.112  20.477  21.970  0.2680 -0.0059  0.1124
39268W        W82180  32.869  18.536  23.124 -0.2192 -0.1838 -0.0897
39269W        W82181  30.745  21.300  20.841 -0.0434  0.0392  0.1949
39270W        W82182  30.748  19.486  22.722  0.0906  0.0933 -0.0791
39271W        W82183  31.313  21.837  21.426  0.0575 -0.0733 -0.2065
39272W        W82184  31.478  21.550  22.762 -0.1514 -0.0482  0.0795
39273W        W82185  30.679  21.018  23.183 -0.1900 -0.0927 -0.2639
39274W        W82186  31.212  21.259  21.788  0.3428  0.2126 -0.0226
39275W        W82187  34.280  20.489  21.280 -0.0354 -0.1942  0.1187
39276W        W82188  30.801  20.193  23.307  0.2320  0.1100  0.2235
39277W        W82189  32.945  19.009  23.136 -0.0437  0.0850 -0.0215
39278W        W82190  31.197  20.287  21.721 -0.0102  0.3307 -0.0432
39279W        W82191  32.182  18.746  21.574  0.0438  0.0585 -0.2831
39280W        W82192  30.150  20.192  23.399  0.2319  0.1862  0.1935
39281W        W82193  29.867  20.421  22.777 -0.0047  0.1624 -0.2279
39282W        W82194  30.692  19.158  20.211 -0.3212 -0.2056  0.2638
39283W        W82195  34.691  20.806  23.101 -0.2405  0.6319  0.0028
39284W        W82196  31.489  19.625  20.873  0.0956  0.2034  0.0825
39285W        W82197  32.086  20.523  23.419 -0.0351 -0.1102  0.0636
39286W        W82198  30.451  20.635  20.217 -0.0555  0.1310 -0.0141
39287W        W82199  31.957  19.200  21.453 -0.0927  0.1400 -0.1059
39288W        W82200  30.238  20.099  21.579 -0.0146  0.1481 -0.1676
39289W        W82201  29.019  19.951  22.833 -0.1756  0.1709  0.0337
39290W        W82202  33.858  22.183  23.459  0.0620  0.2192 -0.1864
39291W        W82203  30.521  18.160  22.501  0.1163 -0.0599  0.1552
39292W        W82204  31.364  20.672  20.874 -0.2450 -0.0111 -0.4099
39293W        W82205  32.401  19.655  23.579 -0.1896  0.2895  0.0703
39294W        W82206  31.196  22.640  21.860 -0.0303 -0.2792 -0.1657
39295W        W82207  32.026  19.694  21.600  0.3759  0.3120 -0.0014
39296W        W82208  32.713  22.158  23.994 -0.0000  0.1324  0.1210
39297W        W82209  29.122  18.746  23.318  0.1357 -0.0104  0.0271
39298W        W82210  31.097  21.750  23.659 -0.1005  0.2881  0.0176
39299W        W82211  32.886  21.178  22.503  0.3379 -0.0599  0.1351
39300W        W82212  31.235  19.447  20.329  0.0819 -0.3563  0.0580
39301W        W82213  29.906  19.889  23.065 -0.2963  0.3106  0.0878
39302W        W82214  29.465  21.985  22.008  0.0403 -0.2575 -0.1267
39303W        W82215  32.328  19.013  22.540 -0.1611 -0.0607 -0.0603
39304W        W82216  31.703  19.429  23.284  0.2489 -0.3924  0.1208
39305W        W82217  31.821  22.540  21.386 -0.0861  0.3070 -0.0771
39306W        W82218  32.375  17.700  22.828  0.2017  0.4528  0.0113
39307W        W82219  31.573  20.127  22.659 -0.0293  0.0752  0.0579
39308W        W82220  29.529  21.458  23.751 -0.1563 -0.1430  0.1039
39309W        W82221  28.929  20.688  21.271 -0.2881  0.1493  0.0641
39310W        W82222  30.464  20.601  23.377  0.0725  0.1163 -0.0668
39311W        W82223  30.907  21.162  22.753  0.1071 -0.2519  0.2316
39312W        W82224  33.269  21.964  20.608 -0.0127  0.0744 -0.1025
39313W        W82225  31.763  20.832  23.133 -0.1881  0.0759 -0.2294
39314W        W82226  30.732  18.646  21.533 -0.1201 -0.2867  0.0305
39315W        W82227  33.929  21.518  21.822  0.1498 -0.0225 -0.1303
39316W        W82228  29.274  19.293  23.111  0.2008  0.1581 -0.0372
39317W        W82229  32.493  19.037  23.024  0.0942  0.2464  0.2042
39318W        W82230  32.659  17.906  20.390  0.2330 -0.1441  0.0071
39319W        W82231  30.777  21.449  24.338 -0.0898 -0.3490 -0.0368
39320W        W82232  28.076  19.470  21.831 -0.0059  0.1479 -0.2465
39321W        W82233  30.115  20.944  21.111  0.0992 -0.0008 -0.2962
39322W        W82234  29.619  21.527  22.394 -0.0298 -0.0887  0.0106
39323W        W82235  30.535  18.165  24.432 -0.2498 -0.3534  0.5779
39324W        W82236  30.482  18.615  23.128 -0.1094 -0.0750  0.0233
39325W        W82237  30.256  20.966  22.902  0.0558 -0.2384 -0.1598
39326W        W82238  30.211  20.740  21.577 -0.0770  0.1304  0.2778
39327W        W82239  32.849  20.442  20.253 -0.0973  0.3686 -0.0746
39328W        W82240  29.284  18.817  22.206 -0.1438 -0.0230  0.0427
39329W        W82241  29.482  20.126  21.867 -0.1588  0.5157 -0.1201
39330W        W82242  31.094  20.700  21.983 -0.0297 -0.0623 -0.0012
39331W        W82243  32.716  20.815  21.931  0.1046 -0.2401  0.2709
39332W        W82244  30.774  20.497  21.476  0.0630 -0.0966 -0.1892
39333W        W82245  33.089  21.067  25.780 -0.1656 -0.2266  0.2817
39334W        W82246  27.970  21.566  20.224  0.1771  0.0308  0.1768
39335W        W82247  31.638  18.369  23.330 -0.2949 -0.1330  0.2894
39336W        W82248  29.945  18.440  23.041  0.2627  0.1685  0.0877
39337W        W82249  30.073  19.524  20.811 -0.0568  0.0653  0.2577
39338W        W82250  30.950  19.672  22.227  0.1203 -0.2676  0.0179
39339W        W82251  32.022  21.020  22.779 -0.0475  0.0340  0.2414
39340W        W82252  32.733  21.623  20.828  0.0067  0.1927  0.0119
39341W        W82253  31.005  21.349  23.878  0.0574  0.2784  0.2274
39342W        W82254  30.999  21.612  22.925  0.0994 -0.1495 -0.2852
39343W        W82255  28.429  17.548  22.452 -0.0793 -0.1309  0.1820
39344W        W82256  31.987  19.219  22.843 -0.2468 -0.4422  0.1327
39345W        W82257  29.929  20.775  24.193 -0.2397 -0.1104 -0.3155
39346W        W82258  33.142  21.494  21.120  0.1080  0.2180 -0.1006
39347W        W82259  33.262  16.700  21.691  0.1474  0.0318 -0.1369
39348W        W82260  30.832  19.172  21.673 -0.1550  0.0797  0.1413
39349W        W82261  29.024  17.821  24.207 -0.0139  0.0297  0.5818
39350W        W82262  29.965  20.725  23.354  0.0631 -0.1974  0.0079
39351W        W82263  32.662  20.163  22.922  0.1831 -0.0356  0.0079
39352W        W82264  28.870  18.636  22.012 -0.0312  0.0336 -0.1636
39353W        W82265  32.542  18.723  20.769 -0.4734  0.0476  0.2333
39354W        W82266  31.593  21.415  21.457  0.2885  0.0704  0.3413
39355W        W82267  28.710  20.602  23.391  0.0428 -0.0068  0.3709
39356W        W82268  30.732  20.347  20.592 -0.1342 -0.0950  0.3773
39357W        W82269  30.911  19.638  23.170  0.1356  0.1813 -0.1982
39358W        W82270  32.614  21.868  21.861  0.2519  0.0923  0.4453
39359W        W82271  32.366  19.915  25.475  0.0574 -0.1948  0.1258
39360W        W82272  29.790  21.098  21.633  0.2773  0.1995  0.1020
39361W        W82273  31.975  19.480  21.012 -0.3923 -0.1757 -0.2429
39362W        W82274  31.865  22.216  22.430  0.1815 -0.0558 -0.0386
39363W        W82275  33.900  21.539  23.097  0.1859 -0.0555 -0.0692
39364W        W82276  29.656  20.304  23.211 -0.3970  0.0483  0.0668
39365W        W82277  31.525  20.587  22.156  0.1479 -0.1163  0.0815
39366W        W82278  29.037  19.669  23.929 -0.4394  0.1069 -0.2323
39367W        W82279  30.945  19.835  20.354 -0.0896 -0.1288  0.3442
39368W        W82280  31.594  20.520  21.627  0.0274  0.0814 -0.0919
39369W        W82281  32.697  19.681  23.122 -0.1968 -0.0841  0.1821
39370W        W82282  27.982  19.184  22.258 -0.2368 -0.1818 -0.0042
39371W        W82283  32.685  17.755  21.461  0.2257  0.0182  0.3172
39372W        W82284  31.535  21.408  23.844  0.0562  0.1707  0.0553
39373W        W82285  32.031  20.687  21.960  0.1428 -0.3218  0.0052
39374W        W82286  29.680  20.452  26.326  0.0216  0.0236  0.0813
39375W        W82287  30.057  19.690  25.365  0.0713 -0.1264  0.2040
39376W        W82288  32.096  17.152  24.905  0.2120  0.1135  0.0729
39377W        W82289  33.264  20.297  24.767  0.1031 -0.4272 -0.2913
39378W        W82290  26.972  19.411  25.228  0.0309  0.1388  0.3559
39379W        W82291  30.811  22.011  25.185  0.0368 -0.3209 -0.0024
39380W        W82292  31.232  17.509  25.203 -0.2733  0.2058 -0.0675
39381W        W82293  31.736  21.338  25.989  0.2081  0.2532  0.1492
39382W        W82294  31.736  22.413  25.933  0.0578  0.2689  0.3109
39383W        W82295  32.223  20.902  25.308 -0.0241 -0.1349  0.3543
39384W        W82296  30.563  19.666  26.064 -0.1663 -0.2220 -0.2020
39385W        W82297  32.783  21.360  26.352 -0.0476  0.1748 -0.2913
39386W        W82298  29.820  18.617  24.981  0.0476  0.2079  0.0700
39387W        W82299  29.980  17.356  25.518  0.0902  0.1641 -0.0182
39388W        W82300  33.116  20.105  26.522  0.1907 -0.3062 -0.3529
39389W        W82301  29.621  20.002  26.144 -0.3965  0.0417 -0.0529
39390W        W82302  31.082  19.089  24.865 -0.4512 -0.0304  0.0495
39391W        W82303  30.182  19.279  25.741  0.1671 -0.1393 -0.2238
39392W        W82304  31.158  22.399  24.357  0.1733 -0.1203  0.1060
39393W        W82305  30.139  17.946  27.401 -0.1145  0.2631 -0.0443
39394W        W82306  31.591  18.198  26.326  0.1327 -0.2783 -0.1835
39395W        W82307  30.015  21.909  24.649  0.0754  0.1743 -0.0765
39396W        W82308  29.572  19.600  25.053  0.3353 -0.0287  0.0573
39397W        W82309  28.304  19.234  25.794 -0.0042  0.0153  0.3011
39398W        W82310  31.454  20.129  25.612 -0.0329 -0.0787  0.0667
39399W        W82311  32.770  19.502  24.561  0.2871 -0.0822  0.3292
39400W        W82312  31.247  20.926  24.008 -0.2765  0.0010 -0.0455
39401W        W82313  30.875  21.721  25.599  0.0695 -0.1591 -0.1695
39402W        W82314  31.088  21.372  26.809  0.0071  0.1588 -0.1318
39403W        W82315  31.568  20.307  27.590 -0.0409 -0.3904  0.1498
39404W        W82316  28.097  20.105  25.226 -0.0588  0.3721 -0.0170
39405W        W82317  28.305  21.908  24.939  0.1348 -0.2047  0.0443
39406W        W82318  28.946  21.498  26.275  0.1926 -0.1143  0.0298
39407W        W82319  33.650  20.385  26.177 -0.0637  0.3186  0.2462
39408W        W82320  31.913  22.122  26.616 -0.2380 -0.0681  0.1171
39409W        W82321  32.039  21.619  27.786 -0.2407 -0.2110  0.1691
39410W        W82322  29.252  20.166  25.556  0.1586 -0.2044  0.0565
39411W        W82323  31.355  21.363  26.348  0.0052  0.3769 -0.2479
39412W        W82324  31.170  20.916  26.569  0.5931  0.0207 -0.1551
39413W        W82325  31.233  19.670  26.872 -0.0235 -0.4001  0.1034
39414W        W82326  32.887  20.094  25.206 -0.0264  0.1222  0.0828
39415W        W82327  29.509  22.318  25.401 -0.0600 -0.0655  0.3225
39416W        W82328  31.770  19.581  26.542  0.1796  0.4674 -0.2356
39417W        W82329  29.661  20.514  27.459 -0.3207  0.0127  0.2113
39418W        W82330  28.466  21.343  25.530 -0.1707  0.1885  0.0006
39419W        W82331  32.516  19.726  27.775  0.2109  0.1063  0.2800
39420W        W82332  30.822  20.700  24.107 -0.2274  0.3095 -0.0162
39421W        W82333  32.338  18.059  24.151 -0.1045  0.0182 -0.0060
39422W        W82334  32.006  17.018  24.441 -0.0437  0.1398  0.2887
39423W        W82335  31.761  19.917  23.315  0.1684  0.0814 -0.1227
39424W        W82336  29.931  18.532  25.762  0.1374  0.0849 -0.1747
39425W        W82337  30.867  21.252  26.301 -0.0140 -0.2505 -0.2113
39426W        W82338  30.975  18.370  26.784 -0.0056  0.0823  0.0087
39427W        W82339  32.292  20.483  26.519 -0.1190  0.2772  0.1724
39428W        W82340  32.871  20.553  25.049  0.3088  0.0532 -0.1773
39429W        W82341  33.323  19.588  27.291  0.3547  0.1138  0.0241
39430W        W82342  30.677  21.581  27.295  0.1048  0.0863  0.1401
39431W        W82343  29.473  19.329  25.467 -0.0797  0.1869 -0.1539
39432W        W82344  32.416  20.473  23.884 -0.1585  0.0466  0.0798
39433W        W82345  32.700  20.928  26.076  0.0438  0.1031  0.0140
39434W        W82346  30.842  19.876  24.583 -0.1753  0.3228  0.1359
39435W        W82347  29.445  18.238  25.609 -0.0961 -0.0969  0.0844
39436W        W82348  29.599  21.075  27.754  0.3789 -0.3821 -0.2090
39437W        W82349  28.908  20.590  25.840 -0.2278 -0.1012  0.1087
39438W        W82350  28.644  18.180  23.974  0.0487 -0.1506 -0.2382
39439W        W82351  31.845  22.508  27.827 -0.0644  0.0965  0.1311
39440W        W82352  28.987  20.595  28.866  0.2303 -0.1394 -0.1696
39441W        W82353  32.582  16.921  25.052  0.0958 -0.2749 -0.0848
39442W        W82354  30.614  19.608  25.506  0.1748 -0.0150  0.0156
39443W        W82355  31.939  22.588  26.876 -0.0189 -0.1660 -0.0186
39444W        W82356  31.574  20.533  24.017  0.0943 -0.1714 -0.1679
39445W        W82357  32.429  19.978  26.001  0.2213  0.0286  0.1364
39446W        W82358  31.881  18.684  25.566 -0.0592 -0.1117 -0.1876
39447W        W82359  30.401  20.913  24.363 -0.1218  0.2174  0.0125
39448W        W82360  30.340  20.298  24.674 -0.0860 -0.1218  0.2363
39449W        W82361  33.023  21.119  26.834 -0.0145  0.2161 -0.1247
39450W        W82362  32.563  20.911  24.142  0.2324 -0.1834  0.2396
39451W        W82363  28.663  21.119  27.047  0.4648 -0.1102  0.0206
39452W        W82364  31.661  18.815  27.470 -0.0357 -0.1267 -0.0509
39453W        W82365  32.030  20.099  26.425 -0.1442 -0.2597  0.1820
39454W        W82366  28.549  22.420  23.600 -0.0454 -0.0068  0.0301
39455W        W82367  29.283  20.737  25.540  0.2211 -0.1690 -0.0685
39456W        W82368  29.504  20.571  24.184 -0.0262 -0.0395  0.1858
39457W        W82369  28.572  18.003  26.240 -0.2524  0.2877  0.4454
39458W        W82370  29.477  21.401  25.777  0.0963 -0.0202  0.0275
39459W        W82371  30.939  18.439  24.905  0.0224 -0.0599 -0.3522
39460W        W82372  30.704  18.754  27.300 -0.0782  0.0975  0.1639
39461W        W82373  31.451  18.374  25.692  0.1717  0.0939  0.0300
39462W        W82374  29.989  22.353  25.078 -0.3362  0.1824  0.2711
39463W        W82375  32.864  21.879  25.407  0.0380  0.2418  0.0583
39464W        W82376  33.225  19.141  23.956 -0.1356  0.1568  0.2616
39465W        W82377  31.807  21.112  24.480  0.2815 -0.1209  0.3313
39466W        W82378  29.949  19.289  27.227 -0.0483 -0.0732 -0.0851
39467W        W82379  29.661  18.979  25.743 -0.1158 -0.0811  0.0940
39468W        W82380  30.397  19.926  27.548  0.0835 -0.2707 -0.1734
39469W        W82381  29.885  17.797  25.621 -0.0251  0.3480  0.0361
39470W        W82382  32.437  19.116  26.329 -0.3656  0.1554  0.0464
39471W        W82383  29.962  18.086  24.011 -0.0976 -0.0218 -0.2769
39472W        W82384  33.591  19.795  23.397 -0.1040  0.1093  0.2015
39473W        W82385  31.599  19.438  24.186  0.3585 -0.1185  0.2137
39474W        W82386  28.335  19.717  25.612  0.1705  0.3264  0.0890
39475W        W82387  32.545  19.075  27.352 -0.0762 -0.5495  0.2885
39476W        W82388  32.297  21.075  25.818  0.2513  0.0746  0.0091
39477W        W82389   0.674  22.070  24.802 -0.0913  0.0231  0.1304
39478W        W82390  29.742  21.045  25.496  0.1244  0.0932  0.0166
39479W        W82391  31.211  21.244  27.364  0.2140  0.0758 -0.0797
39480W        W82392  30.249  19.312  23.912  0.0788 -0.1915 -0.0405
39481W        W82393  28.704  21.783  25.182 -0.1807 -0.1437  0.0965
39482W        W82394  30.597  20.528  25.108 -0.0468 -0.0544  0.1562
39483W        W82395  31.431  18.801  25.140  0.0922  0.3723  0.1006
39484W        W82396  33.226  20.988  26.270 -0.0877 -0.0238 -0.0455
39485W        W82397  32.469  20.582  25.649  0.2369 -0.1945 -0.1871
39486W        W82398  28.768  22.018  27.160 -0.1872  0.0042  0.0354
39487W        W82399  33.240  18.041  26.165  0.1919  0.4896  0.0298
39488W        W82400  31.877  19.170  25.428 -0.0494  0.3706 -0.3122
39489W        W82401  30.695  18.847  23.738  0.0949  0.2199 -0.0457
39490W        W82402  29.855  19.343  23.354  0.2203 -0.4134  0.0071
39491W        W82403  29.832  21.005  24.871  0.0633  0.1898  0.0338
39492W        W82404  29.838  20.514  24.670  0.2132 -0.1895  0.0788
39493W        W82405  29.609  19.756  24.031 -0.0755  0.1024  0.0438
39494W        W82406  30.810  21.208  24.818 -0.2478 -0.2420  0.1985
39495W        W82407  32.373  18.692  24.813 -0.0796  0.2270  0.1190
39496W        W82408  30.290  19.456  27.573  0.1656  0.1446 -0.2554
39497W        W82409  31.176  18.736  27.566  0.0954  0.1803 -0.0154
39498W        W82410  31.021  18.756  24.394 -0.0789 -0.0458  0.2225
39499W        W82411  29.659  20.088  27.089  0.0134 -0.1864  0.2521
39500W        W82412  30.378  18.166  25.563 -0.3616  0.2241  0.1506
39501W        W82413  32.042  19.810  24.293  0.4349  0.0081 -0.0063
39502W        W82414  32.074  20.734  26.875 -0.3704  0.1501  0.2973
39503W        W82415  33.787  20.842  25.353  0.3120 -0.2123  0.2379
39504W        W82416  32.712  17.527  24.028 -0.1475  0.2683 -0.0876
39505W        W82417  29.170  18.465  24.175 -0.0939 -0.0222 -0.0652
39506W        W82418  30.123  21.292  27.714  0.0136  0.0163 -0.1695
39507W        W82419  30.576  21.527  25.267  0.1908 -0.2008  0.1374
39508W        W82420  31.518  21.368  24.864  0.1621  0.0589 -0.2161
39509W        W82421  30.495  18.633  24.240 -0.0129 -0.1141 -0.2524
39510W        W82422  33.527  22.207  25.853 -0.0397  0.0558 -0.0422
39511W        W82423  30.404  20.794  27.040  0.0835  0.0635  0.2209
39512W        W82424  31.867  20.286  28.026 -0.3676  0.0393 -0.1396
39513W        W82425  31.575  22.258  25.276 -0.1017 -0.0975  0.1928
39514W        W82426  30.914  17.822  25.645  0.0460 -0.1465  0.1705
39515W        W82427  30.159  19.835  23.949 -0.1530  0.0128 -0.0050
39516W        W82428  31.493  18.938  25.778  0.2272  0.1419 -0.0607
39517W        W82429  29.382  21.932  24.461 -0.0999 -0.2947  0.1143
39518W        W82430  32.867  19.470  26.482 -0.1650 -0.0403  0.2182
39519W        W82431  31.059  18.693  25.593 -0.2422  0.1219  0.0199
39520W        W82432  29.818  18.411  27.621 -0.1315  0.0467 -0.0023
39521W        W82433  33.850  19.436  26.866 -0.2031 -0.1417 -0.1548
39522W        W82434  31.296  19.126  23.937 -0.2831 -0.1289  0.2222
39523W        W82435  30.716  20.176  25.802  0.0093  0.1666 -0.1285
39524W        W82436  29.907  20.378  23.808  0.3397  0.4527  0.0422
39525W        W82437  31.114  18.771  26.560 -0.0647  0.1877  0.4201
39526W        W82438  31.146  20.295  26.418  0.0431 -0.1356 -0.1214
39527W        W82439  30.066  21.436  28.429  0.2542  0.2648 -0.3249
39528W        W82440  31.867  19.603  27.432  0.1967  0.3405  0.0661
39529W        W82441  31.525  21.574  24.413 -0.0409  0.1596  0.2230
39530W        W82442  29.603  18.018  27.382 -0.1342  0.4291 -0.1454
39531W        W82443  31.406  18.638  23.739 -0.0240  0.1058 -0.0402
39532W        W82444  31.920  21.800  25.266 -0.1241 -0.0189  0.0143
39533W        W82445  31.618  19.909  23.933  0.2381 -0.0204 -0.0930
39534W        W82446  31.111  17.988  26.496  0.1117 -0.0810 -0.0196
39535W        W82447  31.145  21.373  25.223  0.1148 -0.1069  0.0726
39536W        W82448  30.383  22.416  23.720 -0.3161  0.1842  0.1822
39537W        W82449  30.209  18.953  27.549  0.0062 -0.0399 -0.2099
39538W        W82450  30.121  20.399  25.109 -0.0356 -0.3171 -0.4985
39539W        W82451  33.099  18.542  26.332  0.0875  0.1399  0.1233
39540W        W82452  29.141  21.380  26.696  0.0066  0.2346 -0.0182
39541W        W82453  30.760  20.052  25.140 -0.2171 -0.0399 -0.3284
39542W        W82454  28.800  19.940  25.504 -0.0250  0.1816 -0.0367
39543W        W82455  32.158  16.610  24.717 -0.2058 -0.1582  0.0164
39544W        W82456  33.461  21.206  25.507  0.2010  0.2439  0.2787
39545W        W82457  29.341  19.438  26.372 -0.1304  0.1014 -0.1171
39546W        W82458  30.622  18.905  26.602 -0.0642  0.1941 -0.1235
39547W        W82459  28.436  22.072  26.798  0.1701 -0.1241  0.0152
39548W        W82460  32.423  19.607  27.300  0.2710  0.2405  0.1998
39549W        W82461  33.620  17.101  23.884  0.0319 -0.1294  0.1526
39550W        W82462  32.736  20.321  26.753  0.1381  0.0523 -0.4188
39551W        W82463  31.446  20.577  26.826 -0.2436  0.1582  0.2339
39552W        W82464  29.537  19.235  24.751  0.0918  0.1230  0.0865
39553W        W82465  31.014  19.231  26.441 -0.2676 -0.0510  0.2232
39554W        W82466  30.521  19.485  24.674  0.0347  0.0757 -0.4898
39555W        W82467  29.002  21.743  25.744 -0.4880  0.0573  0.1475
39556W        W82468  30.334  21.850  26.472  0.1103 -0.0910 -0.4379
39557W        W82469  31.405  17.943  24.143 -0.0462 -0.1946 -0.0292
39558W        W82470  29.740  20.072  25.297 -0.1615 -0.0351  0.2250
39559W        W82471  30.251  18.819  26.971 -0.1738 -0.0931 -0.0688
39560W        W82472  32.447  21.096  26.916  0.2080  0.0550 -0.0281
39561W        W82473  31.092  19.204  25.413 -0.0399 -0.3612  0.0613
39562W        W82474  30.099  19.799  25.897 -0.1192 -0.1200 -0.1109
39563W        W82475  29.872  19.163  25.238  0.3228  0.2409  0.1164
39564W        W82476  31.863  20.881  25.736  0.5902  0.1948  0.0179
39565W        W82477  32.261  19.448  25.666 -0.1831  0.5981 -0.0861
39566W        W82478  30.417  21.234  28.108  0.2891 -0.0527 -0.0440
39567W        W82479  30.982  19.398  25.976  0.1032  0.3158  0.0381
39568W        W82480  32.233  22.626  25.109  0.0096 -0.1606  0.0202
39569W        W82481  31.589  19.001  26.262  0.1592  0.0719  0.0472
39570W        W82482  31.523  19.434  25.055 -0.1810 -0.1600  0.1591
39571W        W82483  28.999  20.616  26.916 -0.0040  0.1710  0.1162
39572W        W82484  29.146  21.696  24.922  0.3982 -0.1624 -0.0379
39573W        W82485  31.624  19.237  27.708 -0.1369 -0.3011  0.0585
39574W        W82486  29.708  20.686  25.879  0.0161 -0.3211  0.0076
39575W        W82487  29.271  20.209  24.636 -0.5468 -0.2451  0.1606
39576W        W82488  29.419  20.374  26.751 -0.0585 -0.1588 -0.2695
39577W        W82489  33.177  18.604  25.801 -0.2792 -0.0211  0.1726
39578W        W82490  32.132  20.776  24.343 -0.1206 -0.0413 -0.1147
39579W        W82491  31.279  19.894  25.055 -0.1345 -0.1897  0.1577
39580W        W82492  33.925  19.853  26.569  0.0377  0.0210  0.0222
39581W        W82493  33.819  20.421  25.649 -0.2008  0.2575 -0.3738
39582W        W82494  32.386  18.001  25.974 -0.4204  0.2741  0.1082
39583W        W82495  31.831  19.805  25.993 -0.1998 -0.0082  0.3002
39584W        W82496  32.057  21.199  24.979 -0.0799 -0.3571 -0.0152
39585W        W82497  29.628  19.754  25.694 -0.3232  0.1616 -0.1529
39586W        W82498  32.203  22.141  26.074 -0.0579 -0.0122  0.1192
39587W        W82499  29.170  21.012  28.633 -0.0719 -0.1360  0.1601
39588W        W82500  31.790  19.542  24.707 -0.1262 -0.0723 -0.1733
39589W        W82501  30.799  17.393  23.754 -0.1302 -0.2941  0.3050
39590W        W82502  30.803  19.981  26.916 -0.0784 -0.2482  0.1628
39591W        W82503  31.707  20.572  24.522 -0.1231  0.2951  0.1968
39592W        W82504  29.848  20.155  24.328 -0.1039  0.1309  0.0119
39593W        W82505  33.058  19.433  25.134 -0.0234 -0.0596 -0.0969
39594W        W82506  29.848  20.036  24.818 -0.1075  0.1263  0.1049
39595W        W82507  32.088  19.913  25.009 -0.2817 -0.0024  0.0423
39596W        W82508  31.186  20.948  23.301 -0.0274 -0.2053 -0.3123
39597W        W82509  29.631  20.527  25.176  0.2116 -0.0532  0.0160
39598W        W82510  30.093  17.095  25.968  0.3005 -0.2538 -0.2151
39599W        W82511  31.582  21.189  25.414  0.2351 -0.1626  0.2364
39600W        W82512  32.339  18.504  25.625 -0.0189  0.0600  0.1119
39601W        W82513  32.791  18.610  25.509 -0.0779  0.2503 -0.0857
39602W        W82514  31.898  18.179  25.903  0.0065 -0.1184 -0.1213
39603W        W82515  31.677  19.849  27.080  0.1971 -0.0455 -0.1774
39604W        W82516  30.112  20.441  28.727  0.0635  0.0060 -0.1215
39605W        W82517  31.777  21.901  27.420  0.2546  0.0880 -0.0467
39606W        W82518  32.046  19.195  24.300  0.2204 -0.1771 -0.0590
39607W        W82519  32.983  18.992  26.613 -0.1826  0.0724 -0.0459
39608W        W82520  31.877  19.246  25.982  0.0534 -0.3547 -0.1606
39609W        W82521  30.632  19.012  24.667 -0.0574 -0.2274 -0.0291
39610W        W82522  29.729  19.487  26.730 -0.3137  0.2476  0.1639
39611W        W82523  32.142  19.414  27.855  0.0546  0.1733 -0.0681
39612W        W82524  30.258  18.927  23.558 -0.2688 -0.3979  0.0340
39613W        W82525  32.412  19.022  26.851  0.3059 -0.1012 -0.1767
39614W        W82526  31.229  20.631  24.405  0.1558  0.2448 -0.1791
39615W        W82527  31.538  20.801  26.098 -0.2736  0.0623  0.0283
39616W        W82528  32.350  18.962  25.798 -0.2932  0.0723  0.1193
39617W        W82529  29.435  18.294  25.047 -0.0423  0.2213 -0.2507
39618W        W82530  31.065  21.176  27.984 -0.0487 -0.0644  0.2571
39619W        W82531  29.260  19.431  24.283 -0.1935  0.0086 -0.1633
39620W        W82532  30.123  18.997  24.728 -0.0627 -0.0123  0.1488
39621W        W82533  31.317  21.468  25.715  0.2677  0.0904 -0.0058
39622W        W82534  31.871  20.295  27.008  0.3310 -0.3218  0.1134
39623W        W82535  31.053  18.140  24.442 -0.0010  0.0050  0.2633
39624W        W82536  33.334  18.650  26.799 -0.0244 -0.2047 -0.2953
39625W        W82537  29.249  19.991  25.113 -0.1272 -0.2562  0.0583
39626W        W82538  32.012  16.648  25.191  0.1643  0.1515 -0.1922
39627W        W82539  30.121  20.252  27.222  0.0648  0.0285 -0.2023
39628W        W82540  30.549  20.393  26.794 -0.3139  0.1749 -0.4187
39629W        W82541  30.155  21.257  25.314 -0.0370  0.0284 -0.1110
39630W        W82542  30.968  18.937  26.010 -0.0199 -0.0755  0.1159
39631W        W82543  32.435  20.305  25.078  0.2146 -0.0594 -0.0712
39632W        W82544  30.248  20.850  25.461  0.1845 -0.0443 -0.3047
39633W        W82545  32.732  20.959  27.818 -0.2933 -0.0215 -0.0484
39634W        W82546  30.331  21.508  25.708 -0.1370  0.5168 -0.2480
39635W        W82547  29.439  20.926  26.625 -0.1837  0.2315  0.1237
39636W        W82548  31.216  20.463  25.868  0.1443  0.1276 -0.2132
39637W        W82549  33.146  19.810  24.827 -0.3437  0.0468  0.0967
39638W        W82550  29.615  21.400  25.198 -0.2384  0.2632  0.2454
39639W        W82551  29.097  19.008  27.215  0.1789  0.1974 -0.0777
39640W        W82552  31.214  20.889  25.647 -0.2029  0.3234  0.3807
39641W        W82553  32.289  19.531  24.614  0.1078 -0.0228 -0.3525
39642W        W82554  29.853  18.060  24.821 -0.0484 -0.0938 -0.2877
39643W        W82555  30.760  20.293  24.381  0.3308 -0.0601  0.0249
39644W        W82556  29.555  21.750  29.172 -0.1292 -0.1350  0.3150
39645W        W82557  30.776  20.637  25.705  0.0087  0.1319 -0.3067
39646W        W82558  29.468  22.319  24.767  0.0171 -0.0104 -0.1701
39647W        W82559  31.837  18.183  24.267  0.1565  0.3066 -0.1877
39648W        W82560  31.102  20.425  25.288 -0.2812  0.0699 -0.1751
39649W        W82561  32.214  24.323  27.516 -0.2137  0.2108 -0.1985
39650W        W82562  30.188  19.006  23.016  0.1555 -0.2762 -0.1309
39651W        W82563  28.527  21.744  25.908  0.0368 -0.0323 -0.0309
39652W        W82564  29.109  20.677  24.551  0.5199  0.0970 -0.2460
39653W        W82565  31.707  20.859  24.900 -0.2616 -0.1747  0.1248
39654W        W82566  29.318  22.418  26.184 -0.1084  0.2301  0.2147
39655W        W82567  33.126  22.525  27.637  0.0370 -0.0318  0.2857
39656W        W82568  33.080  18.885  23.554  0.1285 -0.2349 -0.1279
39657W        W82569  31.651  20.305  26.015 -0.0594 -0.3281 -0.1205
39658W        W82570  31.909  19.772  25.444  0.0212  0.1527  0.0187
39659W        W82571  33.947  23.497  28.546  0.0070 -0.0455 -0.1000
39660W        W82572  31.517  19.458  25.653 -0.2038  0.0841 -0.4514
39661W        W82573  31.607  17.356  24.234  0.0831 -0.0805  0.0249
39662W        W82574  31.994  19.438  27.008  0.3210 -0.1756 -0.1589
39663W        W82575  33.063  17.643  26.392 -0.0870 -0.1430 -0.0214
39664W        W82576  29.779  21.362  27.344 -0.2430  0.3431  0.2051
39665W        W82577  31.825  21.860  25.812 -0.1949  0.0389 -0.1590
39666W        W82578  29.700  18.548  24.490 -0.1314 -0.2368 -0.3651
39667W        W82579  31.925  18.566  25.091  0.1322 -0.0505  0.0956
39668W        W82580  32.769  18.343  25.946 -0.3516  0.2661 -0.1328
39669W        W82581  31.188  19.528  24.611 -0.0082  0.0660  0.1613
39670W        W82582  33.296  18.593  24.788 -0.1206  0.2088  0.1477
39671W        W82583  30.223  21.824  25.141 -0.1898 -0.0813 -0.0886
39672W        W82584  29.891  21.708  25.580  0.0867  0.2179 -0.4575
39673W        W82585  29.865  21.588  26.531 -0.3150  0.0616  0.2900
39674W        W82586  29.025  18.305  24.667 -0.3002  0.1065  0.0029
39675W        W82587  34.155  18.563  24.435  0.1998  0.1061  0.1939
39676W        W82588  30.624  20.810  26.613  0.0816 -0.2048  0.3258
39677W        W82589  32.655  17.125  25.638 -0.1974  0.4140 -0.2179
39678W        W82590  31.278  19.830  26.004 -0.0701 -0.0475  0.1696
39679W        W82591  31.298  18.104  23.663 -0.2700  0.0516  0.1310
39680W        W82592  32.005  20.263  25.588  0.4024  0.0771  0.2210
39681W        W82593  30.172  19.165  26.617 -0.0628  0.0596  0.0054
39682W        W82594  31.373  18.414  24.177 -0.0408  0.1822 -0.6063
39683W        W82595  33.270  20.312  27.078  0.0157 -0.1531  0.1818
39684W        W82596  30.713  18.650  22.344  0.0105  0.1239 -0.0456
39685W        W82597  31.361  22.620  28.120 -0.0612 -0.2213 -0.0832
39686W        W82598  29.629  18.478  26.120  0.2646 -0.0580 -0.3965
39687W        W82599  30.777  19.348  23.795 -0.1037 -0.0057 -0.0486
39688W        W82600  29.279  20.417  26.018 -0.0664  0.0223 -0.2340
39689W        W82601  30.489  19.208  27.177  0.0111  0.1971 -0.2883
39690W        W82602  32.563  22.337  27.043 -0.1616 -0.1753 -0.0936
39691W        W82603  29.487  17.893  25.985  0.1857 -0.2654 -0.0146
39692W        W82604  33.132  20.383  23.453  0.1566 -0.1985 -0.3043
39693W        W82605  33.388  20.166  25.777  0.0595 -0.0763  0.2073
39694W        W82606  31.730  22.695  25.002  0.2447  0.0771  0.0774
39695W        W82607  33.280  20.831  25.273  0.1551  0.1618  0.2546
39696W        W82608  33.126  22.888  25.356  0.3436 -0.1082  0.0141
39697W        W82609  29.291  19.187  26.797 -0.1280 -0.1105 -0.1850
39698W        W82610  31.642  20.986  26.536 -0.0048 -0.0770 -0.1600
39699W        W82611  34.009  20.185  25.237 -0.0569  0.1043 -0.0181
39700W        W82612  29.745  16.968  24.102 -0.0778 -0.1598 -0.1610
39701W        W82613  30.323  20.033  25.507 -0.2129 -0.1344 -0.1123
39702W        W82614  30.082  21.451  24.861 -0.3480 -0.2135 -0.1677
39703W        W82615  32.668  19.441  26.003  0.0723  0.0914  0.0767
39704W        W82616  33.502  19.008  25.835  0.1589 -0.2312 -0.1762
39705W        W82617  31.616  20.404  23.501  0.0862  0.0065 -0.0937
39706W        W82618  33.275  18.195  26.694 -0.0191  0.2884  0.0831
39707W        W82619  31.968  21.226  26.846  0.1138  0.0912 -0.2367
39708W        W82620  30.806  22.155  28.591 -0.1917 -0.0786 -0.0958
39709W        W82621  28.744  20.090  23.790 -0.0854 -0.0545 -0.1819
39710W        W82622  30.484  20.022  26.444  0.5612 -0.0530  0.0382
39711W        W82623  29.489  20.948  24.527  0.1730  0.0467 -0.0681
39712W        W82624  30.573  22.243  24.374  0.0234 -0.0618  0.0318
39713W        W82625  31.317  21.977  25.671  0.0745 -0.0721  0.3799
39714W        W82626  33.091  19.096  25.560  0.1027 -0.4251  0.3066
39715W        W82627  33.594  20.437  26.694  0.2361 -0.2155  0.4164
39716W        W82628  31.429  19.440  26.236  0.1092  0.1777 -0.0399
39717W        W82629  33.972  19.135  25.205  0.1481  0.0030  0.2707
39718W        W82630  32.019  19.019  24.794  0.0244 -0.0329 -0.0516
39719W        W82631  30.557  20.524  26.222 -0.1208  0.0606 -0.0560
39720W        W82632  30.018  19.549  24.832 -0.0660 -0.2887 -0.0734
39721W        W82633  30.680  20.353  23.792 -0.0891  0.0629  0.1044
39722W        W82634  29.924  21.307  25.917  0.1274 -0.1400  0.4232
39723W        W82635  31.686  19.181  28.274  0.1583  0.0222  0.1879
39724W        W82636  30.105  18.491  26.501 -0.0272 -0.1316  0.0605
39725W        W82637  29.832  20.242  25.767 -0.2670 -0.3969 -0.1733
39726W        W82638  27.799  17.696  25.891 -0.0565  0.2480 -0.0822
39727W        W82639  32.182  22.222  25.440  0.0855 -0.0397  0.3757
39728W        W82640  30.691  18.039  26.173 -0.3283  0.0504  0.0483
39729W        W82641  29.009  18.636  26.708  0.0403 -0.0275  0.2481
39730W        W82642  32.732  20.964  25.395 -0.0199  0.0684  0.2757
39731W        W82643  31.107  21.664  24.688  0.1033  0.1784  0.0975
39732W        W82644  30.459  18.012  23.816  0.2713 -0.3316 -0.1088
39733W        W82645  33.700  21.946  27.771  0.1791  0.2341 -0.0469
39734W        W82646  29.361  20.123  23.678 -0.1627  0.3722  0.0109
39735W        W82647  31.376  19.758  27.434  0.1056  0.6141 -0.1444
39736W        W82648  32.024  19.642  28.282  0.0227 -0.0854  0.1027
39737W        W82649  29.050  19.132  24.898  0.2019 -0.1119  0.0563
39738W        W82650  32.666  19.938  26.431  0.0788 -0.4655 -0.2411
39739W        W82651  31.967  20.432  25.130 -0.1139 -0.0867  0.3804
39740W        W82652  32.721  21.367  25.751 -0.4352  0.3561  0.3137
39741W        W82653  32.687  21.490  27.130  0.0276  0.0260  0.0817
39742W        W82654  32.306  21.909  27.020 -0.2030  0.1706  0.0399
39743W        W82655  30.401  17.725  25.942  0.0756  0.0810  0.0845
39744W        W82656  32.341  20.755  24.827  0.0235  0.1866  0.2866
39745W        W82657  32.281  21.588  26.117 -0.0106  0.3815 -0.1836
39746W        W82658  33.250  21.488  26.222  0.1056  0.0305  0.0089
39747W        W82659  32.645  19.224  25.327  0.0798  0.2381 -0.0341
39748W        W82660  31.553  20.064  24.403  0.1631 -0.1692 -0.2505
39749W        W82661  30.363  18.565  24.938 -0.1050 -0.1931 -0.1328
39750W        W82662  30.837  19.542  27.247  0.0060  0.1281 -0.1449
39751W        W82663  33.504  19.905  26.233  0.2467 -0.0123  0.0315
39752W        W82664  30.984  19.749  26.363  0.1440  0.2601  0.1099
39753W        W82665  32.155  19.447  25.129 -0.1025 -0.2028 -0.0291
39754W        W82666  30.800  19.384  24.301  0.4422  0.2768 -0.0630
39755W        W82667  28.986  20.092  26.310 -0.3247 -0.2406  0.4224
39756W        W82668  31.210  20.913  24.943 -0.3959 -0.1773 -0.1344
39757W        W82669  32.236  19.585  26.252  0.0780 -0.1651  0.0087
39758W        W82670  31.408  21.717  26.686 -0.1060 -0.3054  0.1102
39759W        W82671  32.633  20.399  26.148  0.0479 -0.2637 -0.0930
39760W        W82672  30.164  18.778  25.386  0.0705 -0.4441  0.0685
39761W        W82673  34.107  20.102  23.121  0.0555  0.1626  0.1773
39762W        W82674  31.530  22.205  27.007 -0.2758 -0.2095  0.0586
39763W        W82675  32.279  21.926  29.022  0.2979  0.2119 -0.2657
39764W        W82676  29.963  20.905  27.437 -0.1159 -0.0919  0.1512
39765W        W82677  32.960  20.613  25.674 -0.1406 -0.0999 -0.0745
39766W        W82678  29.525  17.086  26.240  0.0397 -0.1095  0.1268
39767W        W82679  31.058  20.277  24.788  0.1235 -0.4164  0.1640
39768W        W82680  31.571  20.278  24.884 -0.0950 -0.2429 -0.1403
39769W        W82681  33.706  18.763  25.449  0.1740  0.2222 -0.1038
39770W        W82682  29.245  18.770  25.974 -0.2152  0.0041  0.1686
39771W        W82683  31.513  18.160  24.625  0.2532 -0.1759 -0.4433
39772W        W82684  30.954  22.331  26.618 -0.0160 -0.2914 -0.2170
39773W        W82685  31.798  21.453  26.461 -0.0105 -0.1814  0.0897
39774W        W82686  28.810  19.577  31.711 -0.1549  0.1481  0.0091
39775W        W82687  31.178  19.383  27.627  0.1397 -0.0740 -0.1445
39776W        W82688  33.242  19.095  27.233 -0.3665 -0.2106  0.0534
39777W        W82689  31.974  21.128  29.178  0.3420  0.4023  0.1022
39778W        W82690  29.520  20.018  29.599  0.0928 -0.0256 -0.1267
39779W        W82691  30.512  21.568  29.294  0.1117  0.1398 -0.1288
39780W        W82692  29.561  17.203  30.057  0.0709  0.1857  0.1159
39781W        W82693  32.794  21.596  30.199  0.1094  0.2856  0.1221
39782W        W82694  32.387  21.190  29.507  0.1457 -0.0231  0.0451
39783W        W82695  32.385  20.828  29.118 -0.1392  0.0310 -0.1152
39784W        W82696  30.026  18.705  31.730 -0.3646 -0.1466 -0.1109
39785W        W82697  29.340  22.321  29.579 -0.2019 -0.1077 -0.2055
39786W        W82698  31.131  17.826  26.936  0.2499 -0.3788  0.0019
39787W        W82699  30.548  19.221  28.466 -0.0245  0.1837 -0.2644
39788W        W82700  31.609  18.488  30.347  0.0719 -0.2830 -0.1760
39789W        W82701  28.540  20.322  29.284  0.0197  0.1668  0.3851
39790W        W82702  29.405  18.811  28.809 -0.1757 -0.0773 -0.3670
39791W        W82703  31.372  19.813  29.210 -0.1529  0.1329 -0.0565
39792W        W82704  30.952  20.746  27.675 -0.2704 -0.1236 -0.0662
39793W        W82705  30.216  18.296  29.726  0.2319 -0.2659  0.2376
39794W        W82706  30.547  18.746  30.890 -0.2061 -0.0258  0.0678
39795W        W82707  31.832  21.345  28.172  0.3388  0.0863  0.0791
39796W        W82708  30.121  20.617  26.503 -0.0048 -0.3199  0.3562
39797W        W82709  27.354  20.820  28.995  0.0802 -0.0326  0.2174
39798W        W82710  29.592  19.837  30.079 -0.2019 -0.1693 -0.1036
39799W        W82711  33.168  20.167  29.358  0.0934  0.0214 -0.1046
39800W        W82712  30.761  19.429  29.812  0.1069  0.2687 -0.0656
39801W        W82713  30.278  21.918  28.479 -0.0254 -0.3555 -0.1956
39802W        W82714  30.923  19.995  29.787  0.1598 -0.1114  0.0559
39803W        W82715  31.842  19.930  30.540 -0.2125  0.1220  0.1894
39804W        W82716  29.865  20.679  29.965 -0.1591  0.0685 -0.0039
39805W        W82717  28.699  20.923  31.001  0.2237  0.0060  0.0304
39806W        W82718  29.121  21.683  28.905 -0.1513  0.0864  0.0498
39807W        W82719  30.881  20.303  31.209 -0.3313 -0.1481  0.0495
39808W        W82720  32.980  20.991  30.848 -0.2117 -0.0162  0.0269
39809W        W82721  31.079  22.083  31.616  0.1186  0.3266  0.1541
39810W        W82722  29.327  21.462  27.658  0.0451 -0.7168 -0.3432
39811W        W82723  33.006  23.099  30.626  0.0216 -0.0056  0.0214
39812W        W82724  29.265  20.307  31.562  0.2043 -0.2635  0.2077
39813W        W82725  30.343  19.140  31.780 -0.1360 -0.1068  0.0726
39814W        W82726  32.357  19.169  28.976 -0.2139 -0.4224 -0.2950
39815W        W82727  28.679  20.804  29.386 -0.3937  0.1512 -0.2171
39816W        W82728  30.649  20.651  29.447  0.1432 -0.0630 -0.3900
39817W        W82729  29.975  20.584  31.768  0.0272 -0.2904 -0.0449
39818W        W82730  30.365  20.338  29.124  0.0125 -0.1223  0.1799
39819W        W82731  31.829  19.351   0.726  0.0383  0.0068  0.2965
39820W        W82732  29.351  21.470  28.481 -0.0558 -0.2155 -0.0302
39821W        W82733  31.485  19.886  29.784 -0.1391 -0.2209  0.0392
39822W        W82734  30.943  19.189  28.142 -0.0303 -0.2032  0.1459
39823W        W82735  32.580  18.123  28.357  0.0325 -0.1676  0.2911
39824W        W82736  31.025  19.569  28.958 -0.1886  0.0682 -0.3593
39825W        W82737  30.759  22.554  30.782  0.1312  0.1200 -0.1422
39826W        W82738  30.191  17.821  29.009  0.1761 -0.3419  0.1336
39827W        W82739  34.199  20.086  30.996  0.1962  0.1014  0.0751
39828W        W82740  30.835  20.417  29.003  0.3471 -0.0941 -0.0257
39829W        W82741  32.104  19.770  29.514 -0.0584  0.0939 -0.1899
39830W        W82742  28.175  20.911  31.774 -0.2755 -0.0149 -0.1084
39831W        W82743  28.918  20.215  30.073 -0.0389 -0.3712  0.0537
39832W        W82744  32.385  22.207  26.608  0.0403  0.0078  0.0028
39833W        W82745  32.241  21.558  29.866 -0.0180 -0.0768 -0.0239
39834W        W82746  31.564  21.871  26.228 -0.0349  0.2552  0.1738
39835W        W82747  29.351  19.120  29.626 -0.2242 -0.3835  0.0392
39836W        W82748  29.128  19.786  31.352 -0.1627 -0.6034 -0.2092
39837W        W82749  27.926  19.622  31.363 -0.0001 -0.2021  0.1470
39838W        W82750  30.293  18.448  27.417 -0.1233  0.1529 -0.1340
39839W        W82751  32.472  19.840  31.968 -0.2417  0.0992 -0.2649
39840W        W82752  28.218  20.847  30.234 -0.2978 -0.0977 -0.1813
39841W        W82753  33.332  18.735  30.140  0.3236 -0.2065 -0.0333
39842W        W82754  29.967  20.785  29.041 -0.1503  0.0680  0.1199
39843W        W82755  33.683  20.314  30.206 -0.2458 -0.1625  0.0169
39844W        W82756  31.376  20.400  28.042  0.0805  0.2773 -0.3081
39845W        W82757  31.451  19.238  29.932 -0.0153 -0.1395  0.3161
39846W        W82758  30.329  18.278  31.718  0.0571 -0.0429  0.0164
39847W        W82759  30.978  20.823  26.119  0.0030 -0.1852 -0.1856
39848W        W82760  30.058  20.324  27.715 -0.0531 -0.2088  0.0479
39849W        W82761  33.244  19.639  31.342 -0.3799 -0.2258 -0.2804
39850W        W82762  32.309  20.202  28.969 -0.1689 -0.0537 -0.0572
39851W        W82763  30.868  21.489  29.975 -0.0817  0.1057 -0.0349
39852W        W82764  30.203  20.068  31.882  0.3280 -0.0066  0.2307
39853W        W82765  32.276  21.867   0.018 -0.0224 -0.1541 -0.2638
39854W        W82766  30.479  22.433  28.782 -0.0948  0.1107 -0.0748
39855W        W82767  28.427  19.493  29.557 -0.1605  0.1674  0.0898
39856W        W82768  28.759  21.051  28.871 -0.2262 -0.0979 -0.1359
39857W        W82769  28.813  18.751  29.420 -0.0474 -0.1693  0.3023
39858W        W82770  28.614  21.066  31.499  0.2522 -0.3206 -0.0764
39859W        W82771  32.700  17.119  27.881 -0.0717 -0.2604 -0.2184
39860W        W82772  30.448  18.745  29.968  0.0842 -0.3280  0.0470
39861W        W82773  33.360  17.749  26.883 -0.1690  0.1969  0.1731
39862W        W82774  30.770  20.747  28.155 -0.1654 -0.2148 -0.0724
39863W        W82775  32.928  21.544  27.602  0.0542  0.1969  0.0196
39864W        W82776  32.841  20.108  28.939  0.1123 -0.1251  0.1476
39865W        W82777  31.789  20.505  26.465  0.0182 -0.1553 -0.2689
39866W        W82778  29.548  18.627  30.037 -0.0638 -0.1063 -0.1033
39867W        W82779  29.666  18.764  28.418 -0.0918 -0.4053  0.3569
39868W        W82780  29.319  18.648  31.024 -0.1786  0.1085 -0.0026
39869W        W82781  29.229  19.253  29.094 -0.2870 -0.3103  0.0541
39870W        W82782  30.611  19.985  30.912 -0.2291 -0.1839  0.1702
39871W        W82783  30.511  18.297  28.272  0.0922  0.0798 -0.1209
39872W        W82784  32.171  18.829  28.664  0.0419  0.1111  0.1127
39873W        W82785  32.499  19.506  29.288 -0.2582  0.0946 -0.2760
39874W        W82786  29.414  21.258  28.965  0.1737 -0.0808 -0.0646
39875W        W82787  31.415  19.303   0.312  0.2349 -0.0502  0.3451
39876W        W82788  31.552  20.829  27.748 -0.0781 -0.0274  0.1445
39877W        W82789  32.935  21.122  30.373  0.5434  0.4341 -0.2423
39878W        W82790  33.023  22.135  30.181 -0.1927 -0.2084  0.1160
39879W        W82791  29.100  18.402  30.539  0.1423 -0.1821 -0.2638
39880W        W82792  30.185  18.270  27.873 -0.2044 -0.1940 -0.1966
39881W        W82793  29.138  21.268  31.129 -0.1148 -0.3832 -0.0341
39882W        W82794  30.875  20.777  28.649 -0.3491  0.1847  0.1241
39883W        W82795  31.356  18.941  28.001 -0.2166 -0.0238  0.2567
39884W        W82796  33.019  20.746  29.950 -0.1119  0.0402 -0.5870
39885W        W82797  31.775  20.132  28.983  0.0899  0.2090 -0.0852
39886W        W82798  28.909  20.500  31.132 -0.2229  0.1294 -0.0322
39887W        W82799  31.552  19.837  31.125  0.1229  0.0718 -0.3127
39888W        W82800  32.614  20.043  30.887 -0.2562 -0.1178  0.0203
39889W        W82801  32.153  19.713  30.036 -0.3161 -0.3232 -0.0702
39890W        W82802  29.418  18.282  28.028  0.1774  0.3124 -0.0830
39891W        W82803  32.151  20.673  30.555 -0.1605 -0.0628 -0.0713
39892W        W82804  30.637  21.684  28.730  0.0883  0.3779 -0.0021
39893W        W82805  29.027  20.026  29.588 -0.3834  0.1507 -0.1793
39894W        W82806  31.326  20.009  28.746  0.1519 -0.3082  0.2790
39895W        W82807  30.708  18.762  30.388 -0.1834 -0.1242  0.0920
39896W        W82808  28.906  19.818   0.983 -0.3176 -0.0502 -0.0387
39897W        W82809  30.132  19.836  31.445 -0.0877 -0.0096 -0.0951
39898W        W82810  29.649  20.064  28.146  0.0090 -0.0481 -0.2584
39899W        W82811  30.758  20.870  31.882  0.1071 -0.1590 -0.2275
39900W        W82812  32.353  18.278  27.840 -0.0553  0.2455 -0.1529
39901W        W82813  32.553  19.646  28.786  0.0798  0.0104  0.2141
39902W        W82814  31.987  21.423  31.775  0.1931  0.1905 -0.0196
39903W        W82815  32.533  19.182  28.506  0.0999  0.1596 -0.2119
39904W        W82816  32.161  18.653  27.463  0.2545 -0.2259 -0.2136
39905W        W82817  31.622  18.638  26.605  0.2054 -0.1265  0.2923
39906W        W82818  29.314  19.872  31.875 -0.0673 -0.2739  0.0386
39907W        W82819  30.325  21.083  29.320 -0.2442 -0.2115  0.2002
39908W        W82820  30.113  19.710  30.910  0.1378  0.0936  0.0453
39909W        W82821  31.998  18.642  27.898  0.3593  0.0420  0.1355
39910W        W82822  32.404  21.443  28.229 -0.0170  0.1870  0.1408
39911W        W82823  30.420  20.159  30.170 -0.0540 -0.1917 -0.0703
39912W        W82824  31.088  20.981  30.902 -0.1225 -0.0151 -0.0566
39913W        W82825  31.986  21.122  27.681 -0.1679  0.4009  0.1852
39914W        W82826  30.003  17.608  30.005 -0.4029  0.1555  0.3276
39915W        W82827  31.366  19.510  28.106 -0.1651  0.1012 -0.0359
39916W        W82828  30.333  19.116  29.650 -0.0209  0.1215  0.2403
39917W        W82829  29.255  21.124  28.109 -0.0639  0.1860  0.1029
39918W        W82830  31.652  19.518  29.521  0.0958  0.1106 -0.0784
39919W        W82831  31.710  20.443  29.550  0.0073  0.0380 -0.0345
39920W        W82832  30.965  19.051  30.747 -0.1651 -0.0939 -0.3044
39921W        W82833  30.326  19.524  28.844 -0.0338  0.0532 -0.1377
39922W        W82834  32.731  21.402  28.598  0.0823  0.0072  0.2070
39923W        W82835  30.569  19.462  30.879 -0.1856 -0.1081  0.0439
39924W        W82836  29.599  18.958  26.330  0.2202  0.0674  0.1873
39925W        W82837  30.484  19.629  31.834 -0.1599  0.1814  0.2287
39926W        W82838  29.343  20.259  30.412  0.0927 -0.1714 -0.1555
39927W        W82839  29.885  22.144  31.810  0.0500  0.0731  0.0981
39928W        W82840  31.645  20.833  30.792  0.0955 -0.0631  0.1508
39929W        W82841  32.252  18.923  29.565  0.1225 -0.0009  0.1907
39930W        W82842  31.852  19.075   0.215 -0.1513 -0.0814  0.3378
39931W        W82843  30.697  18.500  29.019 -0.0213  0.3831 -0.1403
39932W        W82844  30.484  20.955  27.655 -0.0299  0.2108  0.0763
39933W        W82845  31.209  19.949  27.922 -0.3114 -0.1031  0.2403
39934W        W82846  30.395  19.684  29.385 -0.1520  0.2636 -0.0266
39935W        W82847  29.809  20.092  31.160 -0.2177 -0.1119 -0.2507
39936W        W82848  31.128  21.768  27.800 -0.0503  0.3032  0.1812
39937W        W82849  30.281  20.673  30.275 -0.1448 -0.1111 -0.2922
39938W        W82850  29.588  20.665  28.225  0.0899 -0.1309  0.1393
39939W        W82851  32.631  18.543  28.788  0.1309  0.0284  0.3229
39940W        W82852  27.456  21.879  30.184 -0.0434  0.0083 -0.0422
39941W        W82853  29.504  19.616  27.152  0.0444 -0.0544  0.1171
39942W        W82854  30.115  20.348  28.220 -0.1764  0.2146  0.0883
39943W        W82855  33.112  18.420  28.925  0.1421  0.0844 -0.4040
39944W        W82856  31.340  20.598  28.867 -0.0594 -0.1184 -0.1528
39945W        W82857  28.447  19.685  29.096  0.1086  0.3100  0.2992
39946W        W82858  29.507  17.987  31.369  0.0555 -0.2571  0.0884
39947W        W82859  29.140  21.503  30.338  0.0836  0.1096 -0.3421
39948W        W82860  31.261  20.354  29.832 -0.0902 -0.0254 -0.2524
39949W        W82861  31.821  18.895  27.009  0.1400 -0.1604 -0.2105
39950W        W82862  30.704  20.854  30.533 -0.0318  0.0623  0.1268
39951W        W82863  28.662  20.739  30.467 -0.1641  0.3685  0.0593
39952W        W82864  29.375  18.722  27.715  0.0684 -0.1881 -0.0134
39953W        W82865  30.790  17.828  30.346  0.2346 -0.0771  0.3124
39954W        W82866  30.196  19.204  28.024  0.1821 -0.0617 -0.0845
39955W        W82867  27.828  20.804  29.138 -0.1237 -0.2486 -0.3265
39956W        W82868  31.233  21.328  29.620  0.0991 -0.1955 -0.0198
39957W        W82869  29.076  19.621  27.548  0.2516  0.1623  0.1842
39958W        W82870  29.486  20.705  28.882  0.1444 -0.0199  0.1476
39959W        W82871  30.441  17.802  29.973  0.1902 -0.1295 -0.1518
39960W        W82872  31.109  20.054  30.770  0.0263 -0.1070  0.1856
39961W        W82873  29.996  19.437  29.781  0.0961  0.1589  0.1884
39962W        W82874  32.780  20.067  27.290  0.2084 -0.3026 -0.2747
39963W        W82875  29.832  19.359  30.549 -0.1336 -0.0072  0.2230
39964W        W82876  32.518  20.710  30.200 -0.2000  0.1424  0.1302
39965W        W82877  30.432  17.741  30.746  0.1008  0.0889  0.1117
39966W        W82878  30.500  20.587  31.615  0.2449  0.2081  0.1922
39967W        W82879  32.244  18.676  29.133 -0.0902 -0.3427  0.3438
39968W        W82880  32.570  22.659  28.538 -0.2655 -0.0593  0.0211
39969W        W82881  31.171  20.854  29.664  0.1220  0.1421  0.0654
39970W        W82882  29.977  20.143  26.701 -0.3377 -0.1838 -0.0952
39971W        W82883  27.244  20.444  29.462 -0.1397 -0.1048  0.4416
39972W        W82884  29.920  21.094  29.661 -0.0018  0.0622 -0.0870
39973W        W82885  30.427  18.292  30.223 -0.0709  0.2931 -0.0812
39974W        W82886  29.936  20.215  29.750  0.0506  0.3550  0.3238
39975W        W82887  30.887  20.052  27.477  0.4653  0.0297  0.1305
39976W        W82888  28.900  20.192  30.653  0.1309  0.2573  0.0914
39977W        W82889  33.396  17.891  28.754 -0.1856  0.2099 -0.0569
39978W        W82890  31.873  21.103  28.627  0.1172 -0.1060 -0.1563
39979W        W82891  30.995  19.054  30.089  0.0444  0.1499  0.1933
39980W        W82892  32.185  18.072  30.435 -0.0396  0.0419  0.0407
39981W        W82893  30.807  19.642  27.827  0.2534 -0.1578  0.0647
39982W        W82894  32.509  17.500  30.644  0.1801  0.0045  0.0138
39983W        W82895  29.344  20.149  31.000 -0.1691  0.0808 -0.0536
39984W        W82896  30.578  20.396  28.539  0.2254 -0.2007 -0.3645
39985W        W82897  27.765  20.850  30.091 -0.0913  0.2539  0.0104
39986W        W82898  32.269  22.506  30.684  0.2339  0.2789 -0.0895
39987W        W82899  30.610  19.109  31.356 -0.2318  0.0260  0.0686
39988W        W82900  31.553  20.752  30.001  0.1357 -0.1207 -0.1026
39989W        W82901  31.511  19.260  27.230 -0.0161  0.2013  0.0977
39990W        W82902  30.453  20.755  28.917 -0.0951 -0.3159  0.3746
39991W        W82903  31.495  21.341  30.013  0.3202  0.0424  0.1687
39992W        W82904  31.091  20.326  28.473 -0.0415  0.2664 -0.0506
39993W        W82905  33.328  20.123  28.873 -0.1254  0.3285 -0.2416
39994W        W82906  30.467  20.232  29.684  0.1212 -0.1637  0.0712
39995W        W82907  33.300  21.002  29.165  0.3845 -0.0924 -0.3665
39996W        W82908  30.589  19.409  26.702  0.0868 -0.1477 -0.0661
39997W        W82909  29.922  19.857  29.268 -0.0298  0.0905  0.0331
39998W        W82910  30.696  17.385  31.383 -0.2814 -0.1655  0.1821
39999W        W82911  32.021  20.774  29.550 -0.1853  0.1600 -0.2263
40000W        W82912  31.810  20.128  30.077 -0.1272 -0.1753  0.2689
40001W        W82913  31.394  18.756  30.023 -0.1167  0.0600 -0.1153
40002W        W82914  30.490  19.757  30.468  0.4780  0.0041 -0.0736
40003W        W82915  29.877  18.228   0.092  0.0132  0.0799 -0.1315
40004W        W82916  29.186  18.361  31.428 -0.1977 -0.1966  0.3509
40005W        W82917  31.781  21.247  29.627 -0.1607  0.1217  0.3381
40006W        W82918  32.057  19.149  27.416 -0.2771 -0.1205  0.1501
40007W        W82919  31.896  18.478  29.958 -0.3647  0.0277 -0.3227
40008W        W82920  33.528  19.138  29.411  0.1942 -0.2805  0.0833
40009W        W82921  31.627  19.563  28.647  0.1872  0.1198 -0.1045
40010W        W82922  29.044  18.809  29.954 -0.0774 -0.0144 -0.2211
40011W        W82923  30.270  20.313  31.330  0.0079  0.0472  0.0409
40012W        W82924  29.779  18.976  26.827 -0.0817 -0.2077  0.2656
40013W        W82925  30.948  19.443  30.508 -0.2402 -0.0516  0.1959
40014W        W82926  32.444  21.572  26.596 -0.0628  0.0375 -0.1334
40015W        W82927  31.964  21.298  30.761  0.0870  0.0333 -0.2073
40016W        W82928  31.992  20.606  28.893 -0.2002  0.2053  0.1028
40017W        W82929  27.027  18.845  30.465 -0.0945  0.2695  0.0555
40018W        W82930  30.051  21.049  30.613  0.0184  0.0267  0.1509
40019W        W82931  29.533  19.329  27.584 -0.0162  0.0210 -0.0787
40020W        W82932  30.768  19.108  27.634  0.0411 -0.0517  0.2482
40021W        W82933  31.560  21.618  29.342 -0.3645 -0.0858  0.1001
40022W        W82934  32.751  20.302  31.790 -0.2681  0.2473  0.0541
40023W        W82935  31.142  18.210  27.241 -0.3918  0.1601 -0.1220
40024W        W82936  31.737  18.186  30.674  0.0897  0.1724 -0.1060
40025W        W82937  28.865  21.897  28.519 -0.1055 -0.0538 -0.3259
40026W        W82938  31.072  18.955  29.576 -0.2540 -0.0929  0.1422
40027W        W82939  29.079  21.087  30.691 -0.0661  0.0749  0.4163
40028W        W82940  26.886  21.105  30.308 -0.1626 -0.3321  0.2739
40029W        W82941  30.917  20.512  27.093  0.0841 -0.3453  0.0231
40030W        W82942  30.488  16.811  28.912 -0.2255  0.2287 -0.1091
40031W        W82943  30.642  18.807  29.438  0.2202 -0.0805 -0.1093
40032W        W82944  30.807  20.004  29.232  0.0465  0.3616  0.0239
40033W        W82945  30.981  19.709  31.742 -0.0293 -0.1003  0.3102
40034W        W82946  30.784  20.465  29.999 -0.0976 -0.1246 -0.0244
40035W        W82947  28.699  19.118  29.739 -0.1500 -0.4054  0.2707
40036W        W82948  32.226  21.574  28.697 -0.1959  0.2451  0.0899
40037W        W82949  30.416  20.916  29.830  0.2072 -0.0147  0.0417
40038W        W82950  30.470  21.562  30.683 -0.2984 -0.1588  0.1475
40039W        W82951  28.394  18.712  31.880  0.0608 -0.2133 -0.0284
40040W        W82952  30.084  20.398   0.319  0.2304  0.2246  0.0877
40041W        W82953  31.218  20.364  29.337  0.0692  0.1163 -0.0559
40042W        W82954  31.665  18.997  28.758  0.1617 -0.1174 -0.1691
40043W        W82955  31.504  21.319  27.785  0.1116 -0.0848  0.0595
40044W        W82956  30.397  20.659  30.954 -0.3330  0.2410  0.1120
40045W        W82957  28.597  19.773  30.532  0.2692 -0.1311  0.2909
40046W        W82958  29.213  19.552  29.885  0.0620 -0.0227 -0.0165
40047W        W82959  32.189  21.518  27.275 -0.3288 -0.3403  0.1137
40048W        W82960  30.701  20.006  28.174 -0.1745  0.0489  0.1313
40049W        W82961  31.261  21.660  30.348 -0.1378  0.0796  0.0332
40050W        W82962  32.018  20.125  28.495  0.0787  0.0885  0.0147
40051W        W82963  29.630  21.792  30.512  0.0890  0.1288  0.6242
40052W        W82964  28.630  21.220  29.757  0.0454 -0.2915  0.3179
40053W        W82965  32.398  21.943  28.337  0.3044 -0.0221  0.1920
40054W        W82966  30.318  21.471  29.799 -0.1230 -0.1744  0.0158
40055W        W82967  32.843  20.324  29.750 -0.0355  0.0331  0.1686
40056W        W82968  33.122  19.894  28.316 -0.1894 -0.2296 -0.0195
40057W        W82969  32.808  19.873  30.454  0.1066 -0.0183 -0.3039
40058W        W82970  32.907  18.992  28.804 -0.2318  0.0840 -0.0200
40059W        W82971  30.971  20.719  31.436 -0.0130  0.2379  0.0193
40060W        W82972  28.691  19.184  29.104 -0.0911 -0.0681  0.0284
40061W        W82973  31.508  18.151  26.841 -0.1488 -0.2158  0.1039
40062W        W82974  28.539  19.983  31.963  0.0743 -0.1507  0.1136
40063W        W82975  31.405  19.193  30.496  0.0605 -0.2671 -0.2065
40064W        W82976  29.799  20.016   0.183  0.0256  0.1559 -0.2383
40065W        W82977  30.221  21.272  28.855  0.2393  0.1827  0.0274
40066W        W82978  29.438  19.208  28.524  0.1453 -0.0050  0.3418
40067W        W82979  29.912  20.276  30.250  0.3007 -0.0507  0.1347
40068W        W82980  33.046  18.779  30.929  0.0448  0.0262 -0.0132
40069W        W82981  31.353  20.762  27.295  0.1827 -0.0401  0.2333
40070W        W82982  29.621  18.897  29.216 -0.1682 -0.1880 -0.0284
40071W        W82983  30.766  21.140  29.580 -0.1626 -0.1916  0.1596
40072W        W82984  29.838  21.029  28.618 -0.1841  0.0980  0.2844
40073W        W82985  30.833  21.296  28.534 -0.1656 -0.1636 -0.0598
40074W        W82986  28.521  18.573  29.818  0.1726 -0.2600 -0.3029
40075W        W82987  33.946  19.998  29.904  0.0199 -0.7536 -0.1619
40076W        W82988  30.421  19.889   0.311 -0.2284  0.0506  0.2106
40077W        W82989  31.209  17.204  29.759 -0.1374 -0.1283  0.1381
40078W        W82990  29.876  21.277  29.192  0.3385 -0.1144  0.3489
40079W        W82991  32.187  20.598  28.396 -0.3291  0.0597 -0.5604
40080W        W82992  30.871  20.975  30.072  0.0037  0.1435  0.1402
40081W        W82993  30.274  19.804  29.874  0.0310  0.2164 -0.1013
40082W        W82994  31.505  19.203  26.699  0.3018  0.0291  0.2367
40083W        W82995  31.350  20.024  31.826  0.1490 -0.1953 -0.1599
40084W        W82996  32.901  19.532  27.524  0.0765 -0.1109  0.0868
40085W        W82997  33.248  22.843  30.231  0.3575  0.0401 -0.0511
40086W        W82998  29.554  19.551  29.419 -0.0630  0.2871 -0.0370
40087W        W82999  32.021  19.611  28.992 -0.1156 -0.1158 -0.5694
40088W        W83000  29.963  20.973  28.125  0.3079 -0.0848 -0.4469
40089W        W83001  30.985  18.543  29.788  0.2367  0.2124 -0.2491
40090W        W83002  31.787  21.747  29.820 -0.0941  0.3035  0.0624
40091W        W83003  28.380  18.466  27.941 -0.1566  0.0071 -0.0161
40092W        W83004  33.363  21.445  27.409 -0.0068 -0.1644 -0.0112
40093W        W83005  31.419  19.691  30.586  0.1081  0.1725 -0.2248
40094W        W83006  31.920  20.952  27.247 -0.0226  0.2018  0.1273
40095W        W83007  31.623  20.412  28.494  0.0601 -0.3235 -0.2514
40096W        W83008  32.579  22.348  29.066 -0.1669  0.1488  0.0741
40097W        W83009  28.267  19.531  30.877 -0.0370  0.0946 -0.1541
40098W        W83010  31.743  21.651  30.317 -0.4872  0.4237 -0.0938
40099W        W83011  31.796  20.787  28.169 -0.1905 -0.0274 -0.0069
40100W        W83012  31.494  18.193  29.151 -0.1827 -0.1723  0.3354
40101W        W83013  30.067  18.665  30.665  0.1141 -0.2220 -0.1627
40102W        W83014  29.803  19.562  27.963  0.0600  0.3876  0.2654
40103W        W83015  31.858  19.089  29.259  0.0521 -0.0062  0.2569
40104W        W83016  30.694  19.318  29.212  0.1685 -0.1151 -0.2086
40105W        W83017  32.087  20.556  26.055  0.0817  0.0307 -0.1456
40106W        W83018  32.129  18.949  31.123  0.2318  0.0067  0.0929
40107W        W83019  28.719  20.075  31.502 -0.1302 -0.1368  0.2459
40108W        W83020  30.549  21.004  31.397 -0.3555  0.1530  0.0398
40109W        W83021  29.490  19.720  28.491  0.2224 -0.0896 -0.3467
40110W        W83022  31.089  20.419  31.774 -0.0118  0.1018 -0.0418
40111W        W83023  30.312  20.796  28.413 -0.1327  0.2120  0.0988
40112W        W83024  31.007  22.401  29.020  0.0922  0.1415  0.1035
40113W        W83025  32.313  22.537  29.552 -0.0464 -0.0068 -0.0846
40114W        W83026  31.080  19.706  28.414  0.1216  0.3512 -0.0326
40115W        W83027  31.540  20.905  29.356 -0.0320 -0.1159  0.2040
40116W        W83028  30.254  19.781  27.992 -0.2274 -0.3265 -0.1214
40117W        W83029  34.100  17.252  27.823  0.1271  0.1233 -0.1530
40118W        W83030  31.051  18.279  29.374 -0.0879  0.0296 -0.0901
40119W        W83031  28.928  19.258  30.193 -0.1966  0.1302 -0.1689
40120W        W83032  28.365  19.306  28.660 -0.0223  0.0884  0.0232
40121W        W83033  31.312  20.186  27.171 -0.0374 -0.2550 -0.0452
40122W        W83034  31.013  20.875  29.214  0.0327 -0.3454  0.2466
40123W        W83035  31.179  18.214  30.407 -0.1382  0.2848 -0.0740
40124W        W83036  29.946  17.991  30.381  0.1501  0.0821  0.0169
40125W        W83037  29.104  20.924  29.704  0.2291  0.2027  0.0735
40126W        W83038  29.348  17.789  27.861  0.0618 -0.0620  0.0449
40127W        W83039  32.517  21.883  27.483  0.0418  0.2508  0.0464
40128W        W83040  30.280  19.980  28.473 -0.1298  0.2526 -0.0223
40129W        W83041  27.938  19.492  30.417  0.2084  0.3355 -0.0509
40130W        W83042  30.746  19.956  28.706 -0.0696  0.4079  0.1627
40131W        W83043  32.229  21.037  26.330  0.1832 -0.1077 -0.1609
40132W        W83044  30.996  18.053  29.771  0.1511 -0.2110  0.4375
40133W        W83045  32.923  20.918  31.421  0.2115 -0.1640  0.1224
40134W        W83046  29.889  20.622  26.989 -0.0696 -0.0911 -0.0244
40135W        W83047  30.932  19.977  30.320  0.1186  0.0579 -0.1372
40136W        W83048  30.456  17.457  30.305  0.2770 -0.1598  0.2230
40137W        W83049  29.077  19.990  28.299  0.2535 -0.1618 -0.0746
40138W        W83050  30.011  19.016  30.210 -0.1951 -0.0007 -0.2602
40139W        W83051  30.852  21.747  29.592  0.0429 -0.1606 -0.2314
40140W        W83052  32.148  22.092  27.708 -0.1673 -0.0227 -0.0784
40141W        W83053  31.289  21.071  30.433 -0.0724  0.0365  0.2328
40142W        W83054  31.362  21.635  31.295 -0.0176 -0.3448  0.1564
40143W        W83055  27.461  19.699  30.533  0.0857 -0.1815  0.1012
40144W        W83056  32.586  20.539  28.145  0.1547  0.3960 -0.1050
40145W        W83057  31.767  22.026  31.428 -0.0965 -0.2865 -0.2712
40146W        W83058  31.691  21.483  28.869  0.1698 -0.2113  0.0429
40147W        W83059  32.952  19.035  28.148 -0.2024 -0.0058  0.0150
40148W        W83060  31.684  20.492  30.436  0.1215 -0.0663 -0.4073
40149W        W83061  29.625  19.078  30.930  0.1852 -0.2357 -0.1285
40150W        W83062  29.706  20.923  30.969 -0.2060  0.1408 -0.0595
40151W        W83063  31.823  21.073  30.275  0.1401  0.5184  0.3477
40152W        W83064  30.044  18.711  28.019 -0.1807 -0.0319  0.1037
40153W        W83065  32.588  19.669  28.277  0.0115  0.3370 -0.1915
40154W        W83066  31.195  21.674  28.802  0.0310 -0.2397  0.4424
40155W        W83067  29.690  19.468  28.921 -0.1859  0.1483 -0.2832
40156W        W83068  31.599  17.740  28.128 -0.0949 -0.1813  0.1651
40157W        W83069  29.732  20.169  31.684  0.1256 -0.1296 -0.2480
40158W        W83070  31.384  21.297  28.440 -0.2744  0.3913  0.0117
40159W        W83071  31.038  21.207  31.355  0.0327  0.1040 -0.2607
40160W        W83072  29.948  19.554  28.473  0.0181  0.0545 -0.0600
40161W        W83073  32.606  20.463  27.613  0.1105 -0.2618 -0.0200
40162W        W83074  32.110  22.908  30.990  0.2230 -0.1540 -0.1995
40163W        W83075  33.593  21.110  30.917  0.0229 -0.1716 -0.3861
40164W        W83076  30.182  20.116  30.664  0.1726 -0.0916 -0.1170
40165W        W83077  30.669  20.368  30.552 -0.0725  0.0950 -0.2404
40166W        W83078  29.852  18.879  29.732  0.0117 -0.0187  0.2050
40167W        W83079  30.487  20.404  27.906  0.1612  0.1102  0.0418
40168W        W83080  29.813  20.350  29.205  0.0789  0.2834 -0.1610
40169W        W83081  30.906  17.482  29.405  0.4290 -0.2444  0.2068
40170W        W83082  31.481  19.337  29.068 -0.0798  0.1449 -0.1346
40171W        W83083  31.596  19.952  28.336 -0.2369  0.1600 -0.2407
40172W        W83084  29.667  20.537  31.302 -0.3686 -0.0093  0.0814
40173W        W83085  32.171  20.228  29.694  0.4158  0.0577 -0.1694
40174W        W83086  31.371  20.138  30.306 -0.0475 -0.0124 -0.1765
40175W        W83087  32.262  21.950  31.439  0.0044 -0.0266  0.0654
40176W        W83088  29.086  19.075  30.995 -0.1914  0.1552  0.3190
40177W        W83089  29.549  19.002   0.529  0.1107 -0.1672  0.0446
40178W        W83090  29.619  21.309  31.495  0.2705 -0.0677 -0.1231
40179W        W83091  31.549  23.628  30.521 -0.1383 -0.0605 -0.0753
40180W        W83092  31.761  18.830   0.792 -0.1718 -0.2593  0.1622
40181W        W83093  31.161  19.626  30.087  0.0371 -0.0955  0.3111
40182W        W83094  31.397  18.758   0.328  0.1016  0.4523 -0.0496
40183W        W83095  33.646  19.904   0.525 -0.2244 -0.3401 -0.0316
40184W        W83096  32.502  22.931  30.507 -0.0911 -0.0579  0.0131
40185W        W83097  29.728  19.931  30.703 -0.1625  0.0276  0.1277
40186W        W83098  32.082  20.817  31.044 -0.3990  0.0026  0.0117
40187W        W83099  29.786  19.138  31.769 -0.0665  0.3009  0.2770
40188W        W83100  32.352  19.115  31.597  0.1677  0.0202 -0.0932
40189W        W83101  31.176  21.930   0.151  0.0158 -0.0381 -0.1017
40190W        W83102  29.927  19.229  31.269  0.2296 -0.0438  0.0815
40191W        W83103  32.708  20.817  31.883  0.1204 -0.0905  0.0003
40192W        W83104  29.237  17.520  30.987 -0.0986 -0.0831  0.0369
40193W        W83105  27.473  18.587   0.134 -0.0556  0.2327 -0.0325
40194W        W83106  30.254  17.227  30.990  0.0296  0.1854 -0.4142
40195W        W83107  29.407  20.312   0.097  0.2274 -0.0303  0.0403
40196W        W83108  33.520  18.048  31.743  0.1774  0.1952  0.1646
40197W        W83109  31.348  20.360  31.381  0.1910 -0.1041  0.0734
40198W        W83110  30.333  18.224  29.250 -0.0474  0.2568  0.0231
40199W        W83111  30.264  19.614   0.732  0.0314 -0.0161  0.1488
40200W        W83112  29.901  19.833   1.100 -0.3424  0.3299 -0.1883
40201W        W83113  29.664  21.432  31.032  0.0537  0.2709  0.0118
40202W        W83114  29.893  17.954  31.029  0.0148  0.0991 -0.2249
40203W        W83115  29.312  19.411   0.521  0.1150  0.3946  0.1185
40204W        W83116  29.874  19.346   0.929 -0.1888  0.1578 -0.0560
40205W        W83117  28.700  18.336  31.514  0.0584  0.1897  0.2409
40206W        W83118  34.103  19.731   0.022  0.0323  0.0087  0.0921
40207W        W83119  31.867  18.622  31.596 -0.2044 -0.0643 -0.0174
40208W        W83120  30.333  19.096  30.596  0.2299  0.1398 -0.0756
40209W        W83121  29.269  19.928   0.460 -0.0302  0.0733 -0.0331
40210W        W83122  30.737  21.721   0.333  0.0241 -0.0976  0.1686
40211W        W83123  32.686  19.962   0.750 -0.0807  0.1266  0.0384
40212W        W83124  30.446  19.376   0.312  0.1660 -0.0448  0.2118
40213W        W83125  32.288  19.618  31.571  0.2733  0.1264 -0.2911
40214W        W83126  32.323  18.553  31.461  0.0952  0.2653 -0.1672
40215W        W83127  30.026  19.183   0.214  0.0404  0.0664  0.0732
40216W        W83128  30.017  17.852  31.715  0.3372 -0.0514 -0.0441
40217W        W83129  33.196  21.806  31.533 -0.0939 -0.3088  0.1553
40218W        W83130  29.180  19.274  31.425 -0.0891 -0.1261  0.3379
40219W        W83131  30.904  20.411   0.551  0.0161  0.0923  0.3141
40220W        W83132  29.989  18.723  31.165 -0.1334  0.1554 -0.1563
40221W        W83133  30.819  19.908   0.760  0.2453  0.0162 -0.1207
40222W        W83134  32.156  22.121  30.988  0.0992  0.0258  0.1175
40223W        W83135  28.111  21.395  31.846 -0.2700 -0.1021 -0.4347
40224W        W83136  32.047  22.461  31.345 -0.0718 -0.2910  0.0357
40225W        W83137  31.518  19.330  31.025  0.3007  0.0481  0.0445
40226W        W83138  30.599  18.908   0.445 -0.0105 -0.1073  0.1525
40227W        W83139  29.692  18.338  30.839 -0.0530  0.0903 -0.1686
40228W        W83140  31.259  20.021   0.611 -0.0345  0.2048  0.0263
40229W        W83141  31.886  19.352  30.658  0.0449  0.0705  0.1038
40230W        W83142  32.491  21.051  30.709  0.0103  0.1217 -0.1787
40231W        W83143  31.147  20.808   0.311 -0.0640  0.1351  0.0858
40232W        W83144  31.836  22.988   0.275 -0.0392  0.3960 -0.2185
40233W        W83145  29.214  20.230   1.777  0.3489  0.1041 -0.1797
40234W        W83146  29.549  17.835  31.955 -0.1509  0.2766 -0.3328
40235W        W83147  29.580  19.555  31.522 -0.3387 -0.1920 -0.5539
40236W        W83148  28.212  19.826  30.123 -0.0640  0.0716 -0.0760
40237W        W83149  28.714  19.068   0.071 -0.2323 -0.1285  0.1812
40238W        W83150  32.654  21.904  31.140 -0.0867  0.1307  0.1496
40239W        W83151  33.198  20.501  31.631  0.2148  0.0436 -0.2058
40240W        W83152  32.330  19.213   0.516  0.0440  0.0992 -0.0792
40241W        W83153  29.756  23.039  18.374  0.1347 -0.0873 -0.1501
40242W        W83154  30.428  22.270  17.184 -0.2237  0.0871  0.0047
40243W        W83155  31.990  21.629  16.294  0.1352 -0.0031 -0.2725
40244W        W83156  32.594  24.197  17.102  0.1814 -0.1006  0.0225
40245W        W83157  30.977  22.167  17.878  0.2829 -0.0720 -0.0286
40246W        W83158  32.259  24.774  16.836  0.1086 -0.4174  0.2675
40247W        W83159  30.400  21.902  20.499 -0.1325  0.0983  0.1264
40248W        W83160  32.039  24.125  18.010  0.1707  0.3100  0.0185
40249W        W83161  31.348  24.253  18.761 -0.0345  0.2055 -0.1475
40250W        W83162  31.051  24.087  16.089 -0.0801  0.2135  0.0730
40251W        W83163  30.334  22.719  19.283  0.4803 -0.0027  0.0940
40252W        W83164  30.257  23.389  19.846 -0.0558 -0.3450 -0.0038
40253W        W83165  31.497  21.986  17.221  0.2159  0.2370 -0.0917
40254W        W83166  28.214  23.581  19.583 -0.3297 -0.0720  0.0237
40255W        W83167  31.782  23.369  19.961  0.3456  0.0607  0.1072
40256W        W83168  30.114  24.271  17.677  0.1192  0.1956  0.0011
40257W        W83169  30.460  24.005  17.879 -0.1587 -0.1211  0.0520
40258W        W83170  29.870  23.298  17.922  0.0168 -0.0208 -0.1714
40259W        W83171  31.050  25.878  18.791 -0.0215  0.3554  0.1091
40260W        W83172  30.433  22.998  20.097 -0.2477  0.0978 -0.0147
40261W        W83173  31.840  22.351  19.983 -0.3691 -0.0367 -0.2107
40262W        W83174  30.365  23.293  17.099  0.0646  0.1370 -0.2634
40263W        W83175  30.248  23.551  16.311 -0.1646 -0.1470  0.0072
40264W        W83176  28.156  23.126  17.312 -0.3078  0.3161 -0.1719
40265W        W83177  31.197  23.853  17.749  0.0576  0.2003  0.1282
40266W        W83178  32.821  22.960  18.325 -0.0658 -0.0724 -0.0907
40267W        W83179  30.857  23.761  18.624 -0.2319  0.0153 -0.2184
40268W        W83180  29.558  25.443  17.944  0.1481 -0.3629 -0.0390
40269W        W83181  29.696  24.099  17.510 -0.0910  0.1459 -0.0687
40270W        W83182  33.048  23.370  18.592  0.1880  0.0754  0.2414
40271W        W83183  30.677  24.232  17.389  0.2372 -0.3110 -0.1118
40272W        W83184  29.992  26.287  17.833 -0.0517  0.0945  0.0329
40273W        W83185  30.528  25.458  17.847 -0.3276 -0.0753 -0.0198
40274W        W83186  32.012  24.343  19.244 -0.0160 -0.1033  0.0769
40275W        W83187  31.075  24.459  17.729  0.2013  0.1930  0.2206
40276W        W83188  29.787  25.562  19.920 -0.2681  0.0409  0.0064
40277W        W83189  29.556  25.561  16.902  0.0355 -0.0917  0.0524
40278W        W83190  30.213  25.511  20.416 -0.3298  0.1202 -0.0363
40279W        W83191  31.128  24.681  19.284 -0.0514 -0.3422 -0.0294
40280W        W83192  29.865  23.832  21.920  0.1434 -0.1391  0.2160
40281W        W83193  30.828  23.725  17.074 -0.0948 -0.2147 -0.2675
40282W        W83194  30.092  25.264  17.937  0.0710  0.4299 -0.1990
40283W        W83195  30.383  23.870  17.295 -0.2370  0.2034 -0.3378
40284W        W83196  31.256  24.452  18.285 -0.2698  0.0091 -0.0931
40285W        W83197  30.558  24.561  17.803  0.3707 -0.0453  0.4491
40286W        W83198  33.138  23.538  19.644 -0.1466 -0.0551 -0.1115
40287W        W83199  31.186  25.994  16.670  0.0830 -0.0972  0.4192
40288W        W83200  31.612  22.823  16.441 -0.1329 -0.5819  0.2414
40289W        W83201  30.390  21.735  16.711 -0.2892  0.0036 -0.2385
40290W        W83202  30.764  21.946  16.386 -0.2772  0.3091  0.4428
40291W        W83203  30.013  21.179  19.005  0.2503  0.1285 -0.3058
40292W        W83204  31.277  25.629  16.991  0.0600  0.1145 -0.2468
40293W        W83205  29.623  23.238  19.632 -0.1158  0.3193  0.0403
40294W        W83206  31.920  24.116  18.781  0.3489 -0.0368 -0.3225
40295W        W83207  30.865  22.744  17.079 -0.0065  0.1084  0.1226
40296W        W83208  31.648  22.737  19.709  0.1298  0.1543 -0.0851
40297W        W83209  29.010  25.796  18.512 -0.3039 -0.0352  0.2001
40298W        W83210  29.116  24.227  17.417 -0.1749  0.0410 -0.0524
40299W        W83211  31.847  24.657  17.100  0.0667  0.2703 -0.0112
40300W        W83212  32.926  24.095  17.554  0.0183 -0.2691 -0.0005
40301W        W83213  31.963  25.322  18.298  0.0286 -0.1462  0.1080
40302W        W83214  30.193  24.993  18.361 -0.0369 -0.0274  0.0540
40303W        W83215  28.591  23.708  19.286 -0.3146 -0.0434 -0.0291
40304W        W83216  29.743  23.688  20.761 -0.0641  0.0986 -0.2121
40305W        W83217  30.682  21.732  17.742 -0.2362  0.1987  0.3426
40306W        W83218  32.802  24.853  19.238 -0.0958  0.1820 -0.0604
40307W        W83219  29.146  23.702  19.446 -0.0235 -0.2577 -0.0473
40308W        W83220  31.695  23.347  17.712  0.0137 -0.0251  0.1545
40309W        W83221  28.654  24.255  17.596  0.0690  0.3277 -0.0548
40310W        W83222  32.353  25.074  18.152  0.0031 -0.2379  0.0290
40311W        W83223  31.886  24.103  16.797  0.1126  0.0309  0.1713
40312W        W83224  32.341  21.836  18.779  0.1863 -0.0088 -0.0413
40313W        W83225  31.092  22.649  18.917 -0.0378 -0.0368  0.0428
40314W        W83226  30.540  23.986  16.118  0.0869 -0.2288 -0.0352
40315W        W83227  30.723  24.916  15.979  0.0742 -0.0889  0.0092
40316W        W83228  31.839  24.965  19.363 -0.3272 -0.2271 -0.1666
40317W        W83229  32.407  23.367  16.912 -0.1742  0.0910  0.0267
40318W        W83230  29.415  23.596  18.125 -0.0704 -0.3529 -0.2432
40319W        W83231  30.477  23.926  18.908 -0.3711 -0.2792  0.4251
40320W        W83232  30.680  24.800  19.083  0.2291 -0.1915 -0.0578
40321W        W83233  30.459  25.497  16.514  0.2356  0.0349 -0.0376
40322W        W83234  27.576  22.738  19.426  0.0301  0.1494 -0.0933
40323W        W83235  29.915  25.472  18.350 -0.3040 -0.3758 -0.0736
40324W        W83236  28.814  22.713  19.626  0.0159  0.1090 -0.0520
40325W        W83237  28.658  25.700  18.163  0.1891 -0.1766 -0.2521
40326W        W83238  30.590  23.060  16.714 -0.0117  0.1845  0.0100
40327W        W83239  29.436  24.172  19.222 -0.0460  0.0268  0.2026
40328W        W83240  32.524  24.420  19.457  0.2184 -0.0679 -0.1896
40329W        W83241  31.236  23.920  18.354  0.3020  0.0138  0.0149
40330W        W83242  32.421  25.832  16.993  0.4339  0.0511  0.1826
40331W        W83243  31.409  24.584  17.395 -0.1754  0.0793 -0.2887
40332W        W83244  32.695  24.594  16.828 -0.3491 -0.1533 -0.1993
40333W        W83245  29.824  23.253  18.934 -0.1024 -0.2130  0.1364
40334W        W83246  29.321  23.958  17.817 -0.1436 -0.1181  0.1039
40335W        W83247  29.655  22.304  20.637  0.0709 -0.0649  0.1306
40336W        W83248  30.088  22.959  19.579  0.1369 -0.2430 -0.1113
40337W        W83249  31.633  22.404  18.434  0.0632 -0.1795 -0.3215
40338W        W83250  29.904  21.703  18.812 -0.1152 -0.1104  0.2244
40339W        W83251  32.265  22.190  17.951 -0.0044 -0.0671 -0.1638
40340W        W83252  30.324  23.086  18.343 -0.1153 -0.1116 -0.2019
40341W        W83253  28.359  24.512  16.883 -0.0327  0.0896 -0.3049
40342W        W83254  31.309  22.877  20.476  0.0126  0.3475 -0.1506
40343W        W83255  30.038  26.426  17.086 -0.0001  0.0301  0.2043
40344W        W83256  32.646  25.325  19.504 -0.2481 -0.0752  0.0431
40345W        W83257  33.013  26.224  18.978  0.1450 -0.0940  0.2922
40346W        W83258  31.383  22.349  19.393 -0.1200  0.1228 -0.3463
40347W        W83259  30.437  21.802  17.293 -0.2596  0.1183  0.0393
40348W        W83260  29.136  24.369  18.590 -0.1169  0.0678  0.0022
40349W        W83261  31.106  24.714  18.798 -0.0544  0.1735 -0.1141
40350W        W83262  30.508  22.180  17.725 -0.2044  0.2732 -0.5143
40351W        W83263  31.525  25.321  18.607 -0.0483  0.0020 -0.1546
40352W        W83264  32.237  24.728  17.375  0.1257  0.0747  0.0430
40353W        W83265  30.032  24.046  18.570 -0.1050  0.0534 -0.0039
40354W        W83266  33.021  21.304  21.807 -0.0252  0.1979 -0.2773
40355W        W83267  32.161  24.136  20.224 -0.1549  0.3118 -0.4738
40356W        W83268  31.074  21.626  19.252  0.1922  0.1068  0.2669
40357W        W83269  28.013  23.546  16.972 -0.0774  0.2995  0.0847
40358W        W83270  30.612  25.052  18.095  0.1575  0.2788  0.0461
40359W        W83271  28.801  24.605  18.280  0.2286  0.1699  0.0776
40360W        W83272  27.927  23.853  18.524 -0.1524  0.3871  0.2462
40361W        W83273  31.127  25.737  17.444 -0.0153 -0.1341 -0.0560
40362W        W83274  31.040  22.714  17.764  0.3039  0.0495 -0.1121
40363W        W83275  28.942  23.671  18.406 -0.2227  0.0590  0.2114
40364W        W83276  32.222  24.294  20.734  0.1095 -0.2983 -0.0237
40365W        W83277  29.705  22.654  18.718  0.3610 -0.0270 -0.2776
40366W        W83278  29.301  23.441  19.990 -0.0485 -0.0098  0.2260
40367W        W83279  31.512  22.816  17.737  0.0846 -0.1951 -0.0004
40368W        W83280  32.835  22.092  17.473 -0.2045 -0.0626  0.2612
40369W        W83281  30.230  24.707  19.302 -0.2877  0.1664 -0.4357
40370W        W83282  32.147  25.735  17.513 -0.3855  0.0085  0.2266
40371W        W83283  32.079  22.777  16.159  0.0683  0.0788 -0.1387
40372W        W83284  31.501  21.464  16.389  0.1682 -0.1664  0.1293
40373W        W83285  27.842  24.434  18.091  0.0050 -0.1799  0.0526
40374W        W83286  31.687  23.644  16.679 -0.0827  0.0963 -0.0303
40375W        W83287  30.589  24.280  19.218 -0.4436 -0.1671  0.1546
40376W        W83288  30.941  21.089  15.859  0.2776  0.2216  0.2737
40377W        W83289  32.709  25.560  17.498 -0.0822 -0.0195 -0.3734
40378W        W83290  28.825  24.660  18.836 -0.0570  0.3795  0.4193
40379W        W83291  31.567  24.353  20.174 -0.2130 -0.0166 -0.0228
40380W        W83292  32.041  24.674  18.848 -0.0057  0.0907  0.4094
40381W        W83293  31.260  22.214  18.713 -0.0925 -0.1434 -0.1182
40382W        W83294  31.860  23.226  16.270  0.2376  0.0286  0.1362
40383W        W83295  30.630  21.092  18.501 -0.1816 -0.2246  0.0704
40384W        W83296  29.023  25.691  17.842  0.1616 -0.0157 -0.0918
40385W        W83297  33.213  20.488  19.560 -0.0412 -0.0842  0.1870
40386W        W83298  30.688  22.274  18.851 -0.3565  0.1703 -0.0957
40387W        W83299  30.032  22.210  20.281 -0.1440 -0.1034 -0.0604
40388W        W83300  30.878  23.150  18.457 -0.2758  0.0096 -0.0815
40389W        W83301  31.414  21.811  17.729  0.1466 -0.2833  0.1966
40390W        W83302  31.577  22.588  18.923  0.0238  0.0774  0.2860
40391W        W83303  30.473  22.682  16.317 -0.0869 -0.1452 -0.1667
40392W        W83304  32.193  22.263  20.433 -0.0298  0.0465 -0.1399
40393W        W83305  31.146  23.253  18.907  0.1023  0.0865  0.1909
40394W        W83306  29.589  24.455  18.791 -0.1643 -0.0976  0.2929
40395W        W83307  32.064  23.286  20.914  0.1108 -0.0337 -0.2701
40396W        W83308  31.296  22.925  18.472  0.3688 -0.0775  0.1207
40397W        W83309  31.753  22.456  20.469  0.0587  0.1614  0.0805
40398W        W83310  30.726  23.008  19.099 -0.1833 -0.0373  0.5117
40399W        W83311  31.366  26.211  17.614  0.2940 -0.1759  0.2922
40400W        W83312  30.621  25.800  17.504  0.0428 -0.2783  0.0856
40401W        W83313  30.032  23.698  18.960  0.1883  0.0281 -0.2737
40402W        W83314  32.732  24.949  17.199  0.3040 -0.0918  0.0810
40403W        W83315  29.592  24.655  17.246 -0.1303 -0.2610  0.0623
40404W        W83316  31.918  23.354  19.194 -0.0859 -0.0450  0.0536
40405W        W83317  30.664  23.557  17.608  0.0480  0.0892  0.0933
40406W        W83318  32.005  22.656  17.356  0.0149  0.0860 -0.1669
40407W        W83319  30.500  24.978  17.577  0.1025 -0.3218 -0.0232
40408W        W83320  29.702  22.927  16.379  0.2257 -0.2301 -0.3249
40409W        W83321  29.373  23.834  17.188  0.1990  0.3502  0.0923
40410W        W83322  32.696  22.014  18.420 -0.0676 -0.1159  0.0249
40411W        W83323  31.598  24.527  16.688 -0.2554  0.0018 -0.0056
40412W        W83324  29.836  23.613  19.873 -0.1222 -0.2547 -0.2053
40413W        W83325  30.865  24.151  18.100  0.0102  0.1134  0.0034
40414W        W83326  28.058  25.880  18.092  0.0171 -0.1354  0.2144
40415W        W83327  31.114  22.800  19.652  0.1676 -0.0172  0.1457
40416W        W83328  31.990  22.551  16.624  0.0925  0.3655 -0.0814
40417W        W83329  32.369  24.382  18.384 -0.1349 -0.0436 -0.0560
40418W        W83330  28.831  22.637  20.303 -0.2484 -0.4329 -0.1514
40419W        W83331  30.326  22.155  16.450 -0.2085  0.3134  0.0242
40420W        W83332  31.748  23.627  18.766  0.1792 -0.0494  0.0904
40421W        W83333  29.884  22.966  17.136  0.1255  0.3419 -0.0050
40422W        W83334  29.680  25.034  17.624 -0.1491  0.0540 -0.0041
40423W        W83335  30.539  25.627  18.834  0.0812  0.0810  0.1864
40424W        W83336  29.629  21.630  17.303 -0.3608  0.1480 -0.0503
40425W        W83337  30.817  22.241  18.372  0.1010  0.2257 -0.0698
40426W        W83338  30.416  22.884  21.337 -0.1253  0.0441 -0.2389
40427W        W83339  32.638  24.843  19.737 -0.1160  0.2309  0.0970
40428W        W83340  30.201  22.909  18.815  0.0693  0.2082 -0.2050
40429W        W83341  31.115  22.575  18.218 -0.1372 -0.1230  0.0378
40430W        W83342  30.802  24.067  19.680  0.2790 -0.0658  0.1803
40431W        W83343  31.605  23.636  18.096 -0.2671  0.0874 -0.2014
40432W        W83344  30.965  22.830  20.146 -0.1473 -0.0523  0.0549
40433W        W83345  28.979  23.959  20.131 -0.0243 -0.1248  0.0061
40434W        W83346  31.625  21.987  19.035 -0.2234 -0.2247  0.2078
40435W        W83347  33.004  26.236  18.132  0.0935  0.0359  0.0248
40436W        W83348  31.574  24.554  19.508  0.1658  0.4182 -0.1700
40437W        W83349  30.098  23.177  16.694 -0.0494 -0.2739 -0.1119
40438W        W83350  27.570  23.709  18.800  0.2073  0.1338 -0.4734
40439W        W83351  30.516  24.983  17.042  0.1044  0.0689  0.0963
40440W        W83352  30.347  24.371  18.212 -0.2069 -0.2739 -0.2035
40441W        W83353  30.331  23.870  20.041  0.0970  0.0145 -0.0331
40442W        W83354  29.733  25.417  17.333  0.3041  0.0127 -0.2014
40443W        W83355  28.258  24.719  19.485  0.1933 -0.0094  0.1090
40444W        W83356  31.536  23.209  16.913 -0.0546 -0.1857  0.1860
40445W        W83357  31.158  24.366  16.519 -0.4699 -0.0592 -0.1249
40446W        W83358  30.801  23.611  19.305  0.0351 -0.3354 -0.0894
40447W        W83359  32.983  23.089  19.150  0.1909 -0.3826 -0.2157
40448W        W83360  31.144  24.074  17.336 -0.0595  0.2768  0.2958
40449W        W83361  32.010  23.165  21.740  0.0576  0.1936 -0.3067
40450W        W83362  30.453  22.579  19.766  0.1556 -0.0207  0.1585
40451W        W83363  31.386  24.113  16.846  0.0503 -0.1523 -0.3469
40452W        W83364  29.962  22.127  19.278  0.0620  0.0458 -0.0768
40453W        W83365  31.938  26.070  20.712  0.2526  0.1011 -0.2000
40454W        W83366  29.182  22.888  20.059 -0.1941  0.1379 -0.1585
40455W        W83367  30.115  21.745  20.140  0.0916 -0.1923 -0.0205
40456W        W83368  29.047  22.400  17.092 -0.0349 -0.2722 -0.0982
40457W        W83369  30.358  23.752  19.450  0.0947 -0.3730  0.0310
40458W        W83370  31.913  22.568  17.995 -0.0615  0.4035 -0.1417
40459W        W83371  31.658  24.084  17.275 -0.0164 -0.0506 -0.0871
40460W        W83372  31.301  23.427  18.442  0.2103 -0.2555 -0.2947
40461W        W83373  29.955  23.525  18.396 -0.0633  0.2019 -0.0466
40462W        W83374  32.562  23.166  17.841  0.4098 -0.0535  0.1252
40463W        W83375  32.376  23.841  16.814 -0.2098  0.0473 -0.1458
40464W        W83376  28.515  23.267  18.342 -0.3191  0.1169 -0.4742
40465W        W83377  29.719  20.933  19.304 -0.2529  0.1618  0.0871
40466W        W83378  31.111  23.403  17.562 -0.1161  0.2004 -0.2254
40467W        W83379  31.259  23.202  17.950  0.0491  0.2316 -0.1544
40468W        W83380  30.406  21.415  19.939  0.0105 -0.1575 -0.1786
40469W        W83381  32.039  23.038  19.698  0.3056  0.0516  0.2040
40470W        W83382  31.410  23.058  19.996 -0.0169  0.3010 -0.2791
40471W        W83383  28.833  23.485  19.762 -0.2930  0.2898  0.0341
40472W        W83384  30.419  25.557  18.289 -0.1442 -0.1535 -0.2372
40473W        W83385  32.729  22.229  16.637 -0.2309 -0.1105 -0.0361
40474W        W83386  31.274  21.591  20.303 -0.1089  0.0315  0.0799
40475W        W83387  31.347  23.621  17.123 -0.2436  0.0273  0.2074
40476W        W83388  29.980  21.858  17.062 -0.3677 -0.0303  0.1799
40477W        W83389  30.346  21.902  19.014 -0.0404  0.0676  0.0589
40478W        W83390  31.720  24.088  20.580 -0.0146 -0.0213  0.0330
40479W        W83391  29.498  22.201  17.482 -0.0863 -0.0130  0.0946
40480W        W83392  31.334  22.462  20.150 -0.0096 -0.3204 -0.4914
40481W        W83393  31.443  25.595  16.539  0.2937 -0.0649 -0.1186
40482W        W83394  31.873  25.429  17.762 -0.0227 -0.1922  0.1103
40483W        W83395  31.302  22.488  17.251 -0.0782  0.3096  0.0014
40484W        W83396  29.694  22.947  17.600 -0.0390  0.2467 -0.1921
40485W        W83397  30.036  24.856  18.824 -0.3657  0.1009  0.1738
40486W        W83398  30.083  22.268  17.972  0.4334 -0.1198 -0.2342
40487W        W83399  30.972  25.139  16.824 -0.4035  0.1538  0.2042
40488W        W83400  30.820  22.560  19.344  0.4478  0.1815  0.1047
40489W        W83401  32.051  26.125  18.888  0.2468 -0.0018 -0.0000
40490W        W83402  30.585  20.841  17.158 -0.1634  0.1114 -0.3512
40491W        W83403  32.843  21.612  19.295 -0.1610 -0.3498  0.4283
40492W        W83404  29.973  24.962  17.205 -0.1492 -0.3614 -0.0145
40493W        W83405  31.186  21.448  19.864 -0.1553  0.4080  0.0171
40494W        W83406  31.975  23.734  19.588 -0.1962 -0.2580 -0.1675
40495W        W83407  29.502  24.067  18.417  0.1726  0.2047 -0.0446
40496W        W83408  31.772  25.002  17.478  0.5106  0.0623  0.2144
40497W        W83409  32.311  21.297  18.818 -0.2774 -0.3416  0.0980
40498W        W83410  31.282  23.011  17.322 -0.2404 -0.3804 -0.1978
40499W        W83411  31.355  22.893  19.243 -0.0904  0.0033 -0.0371
40500W        W83412  31.696  23.072  18.125 -0.2096  0.1664 -0.0533
40501W        W83413  31.052  24.099  19.193  0.2938 -0.0097 -0.0729
40502W        W83414  30.353  23.487  18.030  0.1079  0.1827 -0.0632
40503W        W83415  32.952  26.440  17.647  0.3375 -0.1596  0.0418
40504W        W83416  31.802  23.828  17.701 -0.2301 -0.3220 -0.0171
40505W        W83417  29.517  23.532  17.661  0.0661  0.0359  0.1538
40506W        W83418  29.091  22.282  20.534  0.0343  0.1112  0.0751
40507W        W83419  30.230  23.322  19.197 -0.1631  0.0206 -0.0914
40508W        W83420  29.553  22.249  19.500 -0.0566  0.0461 -0.1076
40509W        W83421  29.615  21.953  17.985 -0.0120 -0.3794  0.1287
40510W        W83422  31.399  25.053  16.581  0.0912 -0.1185  0.0669
40511W        W83423  30.827  24.592  18.320 -0.1352 -0.0497 -0.2540
40512W        W83424  28.932  23.721  17.511 -0.1397 -0.0159  0.0266
40513W        W83425  30.186  25.348  16.866  0.1401 -0.0331 -0.1704
40514W        W83426  31.217  24.663  16.969  0.2446  0.0301  0.2320
40515W        W83427  31.207  23.647  16.603  0.3450  0.0418  0.1492
40516W        W83428  31.188  25.653  18.359  0.1541  0.3069 -0.2870
40517W        W83429  30.955  21.542  16.086  0.1063 -0.2167  0.0735
40518W        W83430  30.984  25.354  17.979  0.0304 -0.1487 -0.2133
40519W        W83431  29.069  24.384  16.486  0.1402 -0.0428  0.1300
40520W        W83432  31.699  25.232  16.276 -0.0550 -0.2605 -0.1060
40521W        W83433  28.784  25.272  17.715 -0.0692 -0.1129 -0.0782
40522W        W83434  31.456  24.017  19.638  0.0593  0.3869  0.1242
40523W        W83435  31.960  22.327  15.897 -0.2701  0.3034  0.1152
40524W        W83436  32.617  22.889  18.773  0.0131 -0.6097  0.1249
40525W        W83437  32.295  22.952  17.140  0.1734 -0.1315 -0.1983
40526W        W83438  31.888  24.272  19.721  0.2025  0.0514 -0.0165
40527W        W83439  31.403  25.329  17.535  0.1019  0.0804  0.2185
40528W        W83440  30.099  22.583  16.589  0.0063  0.1433 -0.0888
40529W        W83441  28.970  23.964  20.760  0.0770 -0.0691  0.3004
40530W        W83442  32.428  23.520  19.443  0.1237 -0.1114 -0.0034
40531W        W83443  28.546  25.765  19.713 -0.0687 -0.1192 -0.2223
40532W        W83444  31.517  25.104  19.047 -0.1445  0.0344  0.1751
40533W        W83445  29.021  22.940  17.063 -0.0866  0.1232  0.0045
40534W        W83446  31.479  21.860  19.511  0.0898  0.3005  0.0631
40535W        W83447  31.621  24.022  19.175 -0.0712  0.3828 -0.0230
40536W        W83448  31.000  24.811  16.402  0.1666 -0.1461  0.0167
40537W        W83449  30.598  23.110  19.525 -0.1602  0.0104 -0.0914
40538W        W83450  29.574  25.957  17.606 -0.0600  0.2436  0.1241
40539W        W83451  29.922  23.911  18.076 -0.2901 -0.1234 -0.1447
40540W        W83452  30.017  24.695  17.898 -0.5015  0.1882  0.4020
40541W        W83453  28.680  22.154  16.834 -0.1038 -0.1582  0.1868
40542W        W83454  32.633  23.740  17.285  0.1725 -0.0595 -0.1130
40543W        W83455  29.408  23.000  19.005  0.0173  0.0507 -0.1759
40544W        W83456  32.508  24.389  19.968  0.0402 -0.1484  0.3358
40545W        W83457  29.388  23.116  18.031 -0.1225  0.0427  0.2065
40546W        W83458  31.976  23.039  16.744  0.1696 -0.0864  0.0153
40547W        W83459  32.653  23.912  20.191  0.0581 -0.0791  0.3154
40548W        W83460  30.450  23.879  18.388  0.0242  0.0925  0.3627
40549W        W83461  31.028  23.265  16.928  0.3700 -0.1134 -0.3974
40550W        W83462  30.722  25.040  19.478 -0.1915 -0.3703  0.0768
40551W        W83463  30.652  22.469  16.715  0.0696 -0.1929 -0.2582
40552W        W83464  30.785  25.461  19.721 -0.0190  0.1784  0.2056
40553W        W83465  29.380  21.924  18.491  0.0843 -0.2406  0.1438
40554W        W83466  30.374  20.723  16.565  0.0922  0.1882 -0.1196
40555W        W83467  28.402  23.580  17.674 -0.0399  0.1336 -0.1948
40556W        W83468  31.228  23.531  21.125  0.2404 -0.3056  0.0109
40557W        W83469  33.133  25.981  21.014  0.1853  0.1759 -0.0216
40558W        W83470  29.207  21.428  18.399  0.3848  0.1307 -0.1348
40559W        W83471  31.580  24.206  16.296 -0.1824 -0.1447  0.2726
40560W        W83472  31.292  23.771  18.860 -0.0569  0.3151 -0.1529
40561W        W83473  31.898  25.421  17.194  0.0573  0.4363  0.0825
40562W        W83474  30.731  24.588  16.786 -0.0256  0.2825 -0.0559
40563W        W83475  33.079  25.963  18.510  0.0223 -0.1038  0.1432
40564W        W83476  29.505  23.643  19.018 -0.0644 -0.0675 -0.1733
40565W        W83477  31.527  24.223  17.916 -0.0503 -0.2079  0.1353
40566W        W83478  33.509  24.238  20.100  0.0504  0.0232  0.0862
40567W        W83479  30.592  21.310  18.022 -0.3022  0.2199 -0.2409
40568W        W83480  30.672  22.713  18.584 -0.0611  0.1407  0.1534
40569W        W83481  30.664  23.059  17.938 -0.0553 -0.1670 -0.0706
40570W        W83482  32.101  22.221  18.448 -0.0852  0.0410 -0.0431
40571W        W83483  32.172  21.411  19.550  0.1430 -0.2759 -0.1795
40572W        W83484  30.156  23.026  16.085 -0.1192 -0.0385  0.2739
40573W        W83485  32.481  22.184  20.034 -0.3599 -0.0100  0.1758
40574W        W83486  30.702  23.516  19.853 -0.1506 -0.3538 -0.0734
40575W        W83487  29.854  25.925  18.139 -0.0852 -0.2738 -0.0249
40576W        W83488  29.889  23.946  17.085 -0.2539  0.2406 -0.0368
40577W        W83489  30.444  23.438  20.364  0.0806  0.0101 -0.0932
40578W        W83490  30.324  24.198  16.847  0.0692  0.0134 -0.1475
40579W        W83491  31.884  25.102  16.830  0.0506 -0.2671 -0.0937
40580W        W83492  32.225  23.366  18.775  0.1299 -0.1233 -0.1980
40581W        W83493  30.044  22.597  17.478  0.1827  0.1934  0.1978
40582W        W83494  32.045  24.734  18.366  0.1545  0.2638  0.2761
40583W        W83495  29.342  21.692  18.920 -0.2718  0.0217  0.3801
40584W        W83496  32.633  20.861  19.348  0.1632  0.1518  0.2240
40585W        W83497  31.502  22.341  16.774 -0.1138 -0.2583  0.1916
40586W        W83498  28.631  23.306  18.786  0.0943 -0.1902 -0.1259
40587W        W83499  28.841  23.741  16.360  0.0841 -0.0522 -0.0924
40588W        W83500  29.746  25.110  16.085 -0.3144  0.0828 -0.0709
40589W        W83501  29.581  24.443  17.798  0.2384  0.2541 -0.0773
40590W        W83502  32.223  22.518  19.772  0.0102 -0.1739 -0.1282
40591W        W83503  30.886  24.235  18.645  0.0192  0.1490  0.0011
40592W        W83504  28.408  23.736  18.432 -0.2229  0.2397 -0.1671
40593W        W83505  29.135  22.228  18.186  0.0916  0.0600  0.0399
40594W        W83506  32.275  25.270  17.474  0.4801 -0.0289  0.1223
40595W        W83507  30.463  23.400  18.704  0.1263  0.0456 -0.1336
40596W        W83508  27.899  22.876  19.034  0.2374 -0.4318  0.2104
40597W        W83509  30.680  25.547  17.020  0.1636 -0.4789  0.2559
40598W        W83510  31.471  25.175  17.044  0.0744  0.1004 -0.1060
40599W        W83511  29.462  21.494  16.671  0.3884 -0.2006  0.0970
40600W        W83512  31.332  23.610  19.366 -0.3491 -0.1966 -0.1649
40601W        W83513  28.697  24.695  16.598 -0.1050 -0.2540 -0.1861
40602W        W83514  31.630  23.657  20.842 -0.0029 -0.0671  0.0073
40603W        W83515  30.835  23.011  20.596  0.0098 -0.3733  0.1719
40604W        W83516  29.926  21.968  17.578 -0.0744 -0.1295  0.2473
40605W        W83517  31.033  23.303  20.151  0.1911  0.2773  0.1543
40606W        W83518  31.585  26.127  19.231  0.2604 -0.0232 -0.1487
40607W        W83519  32.133  25.801  18.067  0.0025  0.1292  0.1148
40608W        W83520  30.445  24.431  18.778 -0.0863 -0.0128  0.0308
40609W        W83521  31.868  24.954  17.974 -0.2081  0.0361 -0.1744
40610W        W83522  28.843  22.554  20.844  0.0976 -0.2150 -0.1705
40611W        W83523  32.148  23.471  18.117 -0.4441 -0.0629  0.1076
40612W        W83524  31.285  25.525  19.246 -0.3534 -0.1578  0.1029
40613W        W83525  33.074  23.989  18.061  0.0195 -0.2902  0.2265
40614W        W83526  31.785  22.031  18.083 -0.1435  0.0842  0.0400
40615W        W83527  32.556  23.961  18.024  0.3962  0.3534 -0.2099
40616W        W83528  27.968  23.041  19.656  0.0263  0.2723 -0.2982
40617W        W83529  29.847  23.922  19.402 -0.1976 -0.0773 -0.0784
40618W        W83530  32.331  24.655  17.885 -0.2675  0.3239 -0.0981
40619W        W83531  30.130  22.338  18.895 -0.0501 -0.1303  0.4657
40620W        W83532  29.927  22.386  17.045  0.1107 -0.1010  0.0724
40621W        W83533  30.760  24.078  16.645  0.0762 -0.0726  0.3203
40622W        W83534  29.821  22.741  19.211  0.0347 -0.1847 -0.1330
40623W        W83535  29.852  23.491  17.214  0.0172  0.1892  0.2710
40624W        W83536  31.022  24.255  20.126 -0.0599 -0.0758  0.0791
40625W        W83537  30.975  25.878  17.899 -0.0243 -0.2879 -0.1741
40626W        W83538  32.291  24.812  19.211 -0.1056 -0.2588 -0.1673
40627W        W83539  31.062  22.359  16.505 -0.2185 -0.1213  0.3058
40628W        W83540  32.806  23.122  16.858  0.2191 -0.0254  0.2049
40629W        W83541  32.130  25.156  20.378 -0.1469 -0.0679 -0.2977
40630W        W83542  33.267  25.828  19.011 -0.0208 -0.0801  0.3072
40631W        W83543  31.115  24.950  18.239  0.1322 -0.0516  0.1685
40632W        W83544  32.918  25.100  18.805 -0.1917  0.0133 -0.0725
40633W        W83545  30.603  21.642  19.372  0.0764 -0.4413 -0.1774
40634W        W83546  30.248  24.680  16.783 -0.3203  0.1714  0.2489
40635W        W83547  30.048  22.809  18.012 -0.2841 -0.0609  0.2573
40636W        W83548  31.933  21.628  18.655 -0.2284  0.0465  0.0482
40637W        W83549  29.553  22.437  20.040  0.0290  0.2945  0.0329
40638W        W83550  30.288  20.809  18.721 -0.2164  0.0604 -0.2359
40639W        W83551  29.742  25.871  18.708  0.1105  0.1255  0.0993
40640W        W83552  32.234  23.945  19.142 -0.0045 -0.0992 -0.1435
40641W        W83553  28.843  23.985  21.806  0.1703  0.1780  0.0646
40642W        W83554  29.106  24.155  19.595  0.1250 -0.0368 -0.0379
40643W        W83555  32.160  24.440  21.247 -0.0172  0.1815 -0.0942
40644W        W83556  32.051  23.639  20.486 -0.0201 -0.0905  0.0770
40645W        W83557  29.849  22.669  22.507  0.2258  0.3953  0.1697
40646W        W83558  31.606  26.200  21.612  0.3417 -0.1248 -0.1587
40647W        W83559  31.742  22.982  24.145  0.2120 -0.0596  0.0220
40648W        W83560  33.059  24.419  22.984  0.2033  0.1003  0.0561
40649W        W83561  32.807  24.192  22.066 -0.2285 -0.1731 -0.3115
40650W        W83562  31.473  23.879  21.450 -0.2168  0.0187 -0.0997
40651W        W83563  30.745  22.739  23.893 -0.0926 -0.0195 -0.0313
40652W        W83564  30.883  24.272  21.287 -0.1029  0.2093 -0.0941
40653W        W83565  33.246  21.498  22.635  0.1909  0.1332 -0.0542
40654W        W83566  29.353  21.809  23.443  0.5094  0.0501  0.0977
40655W        W83567  31.779  23.920  22.911 -0.2632 -0.0188  0.6142
40656W        W83568  29.756  24.111  21.030 -0.0302 -0.2021 -0.2377
40657W        W83569  29.879  22.074  23.690  0.0174 -0.0120  0.3565
40658W        W83570  31.510  23.210  20.898  0.0769 -0.0047 -0.0705
40659W        W83571  30.686  24.376  22.337  0.0440 -0.0015 -0.2698
40660W        W83572  31.108  23.321  24.571 -0.2622 -0.0890 -0.0366
40661W        W83573  31.308  20.452  23.124  0.3513  0.5460  0.0916
40662W        W83574  30.852  24.003  20.858  0.1546 -0.0031 -0.0658
40663W        W83575  29.151  23.126  19.555  0.0324 -0.3014  0.3495
40664W        W83576  28.621  24.174  22.697 -0.1687 -0.3548  0.1975
40665W        W83577  30.377  23.344  23.423 -0.1528 -0.1744  0.1090
40666W        W83578  33.206  21.945  22.453  0.5620  0.0179 -0.0333
40667W        W83579  31.747  22.381  21.886 -0.5221 -0.0459  0.1078
40668W        W83580  29.860  24.595  21.334 -0.0049  0.1403  0.0857
40669W        W83581  30.515  24.839  22.064 -0.0041 -0.4813 -0.1574
40670W        W83582  32.998  21.133  24.353  0.0772 -0.0349 -0.1641
40671W        W83583  28.642  25.134  21.849 -0.3968  0.2340 -0.0867
40672W        W83584  28.444  24.651  20.218 -0.3283  0.0187  0.1852
40673W        W83585  30.729  23.488  21.954  0.2405  0.0997 -0.1120
40674W        W83586  32.476  24.616  22.259  0.0056 -0.0586 -0.0697
40675W        W83587  33.051  25.703  22.054  0.0235  0.0007  0.1396
40676W        W83588  29.893  23.623  23.273  0.0151  0.0591  0.2505
40677W        W83589  30.676  23.369  20.867 -0.1714  0.0176  0.0966
40678W        W83590  31.992  24.590  22.546 -0.3559 -0.0031 -0.2192
40679W        W83591  30.382  24.914  24.090  0.2226 -0.1334  0.0237
40680W        W83592  29.078  22.942  21.621 -0.0282 -0.3866  0.0728
40681W        W83593  28.737  24.190  23.818 -0.0373  0.0024  0.4418
40682W        W83594  30.632  24.606  19.607  0.3882 -0.0916 -0.3312
40683W        W83595  30.972  23.418  22.554 -0.1799  0.0167 -0.1131
40684W        W83596  29.452  24.872  24.136 -0.0774  0.2353  0.0489
40685W        W83597  29.555  24.619  22.460 -0.0306  0.2954 -0.2281
40686W        W83598  33.058  23.988  23.839 -0.2455  0.1122 -0.0230
40687W        W83599  30.362  23.912  20.585  0.4144 -0.0984  0.1888
40688W        W83600  32.320  23.214  20.174  0.3843  0.4303 -0.1630
40689W        W83601  31.376  21.975  20.005  0.2063  0.0115  0.2666
40690W        W83602  31.802  22.956  20.263 -0.0742  0.2179 -0.2584
40691W        W83603  30.854  22.275  22.640 -0.1487 -0.1417 -0.3087
40692W        W83604  29.903  24.997  20.521  0.1540 -0.2426  0.0314
40693W        W83605  30.211  23.621  24.031 -0.1365  0.2459  0.1649
40694W        W83606  31.260  24.718  23.176  0.1066  0.1460 -0.0393
40695W        W83607  30.506  22.689  20.875  0.0598 -0.0803  0.0324
40696W        W83608  31.626  22.629  22.933 -0.2259  0.0587 -0.2300
40697W        W83609  29.379  24.289  23.108  0.3449  0.0284  0.1362
40698W        W83610  28.174  24.291  22.539  0.0138  0.2960 -0.0464
40699W        W83611  31.269  25.643  20.227 -0.0312  0.0122 -0.1312
40700W        W83612  31.262  24.409  20.525 -0.1197  0.1635 -0.1030
40701W        W83613  31.656  25.273  20.154  0.1772 -0.1639  0.0292
40702W        W83614  29.946  22.845  20.992  0.1240 -0.1780 -0.2337
40703W        W83615  29.238  24.137  23.960 -0.0602 -0.1269  0.2928
40704W        W83616  30.131  23.125  23.027 -0.1554  0.2234  0.1964
40705W        W83617  30.068  21.020  20.084  0.2373 -0.0024 -0.1752
40706W        W83618  31.351  24.907  24.452  0.2118  0.1329  0.0987
40707W        W83619  28.947  24.658  24.137 -0.0643 -0.2581 -0.2427
40708W        W83620  32.774  23.426  22.163 -0.2660 -0.1107  0.4590
40709W        W83621  31.104  23.093  22.173 -0.0585 -0.3032  0.2744
40710W        W83622  31.707  23.573  21.800 -0.2488  0.0048  0.0620
40711W        W83623  31.311  25.026  21.363 -0.0594  0.0211 -0.0081
40712W        W83624  31.970  21.533  22.423 -0.5176 -0.1702  0.0696
40713W        W83625  32.904  21.678  23.975  0.0077  0.1645 -0.1880
40714W        W83626  30.763  22.618  22.278  0.1343  0.0211 -0.0816
40715W        W83627  31.339  24.099  20.981  0.2099 -0.0485 -0.1144
40716W        W83628  33.253  23.991  22.799 -0.3851 -0.0812 -0.3043
40717W        W83629  32.164  23.665  20.038 -0.2164 -0.4255  0.1369
40718W        W83630  29.135  24.900  22.647  0.1211  0.0874 -0.1651
40719W        W83631  31.557  22.965  23.332 -0.3928  0.1369  0.2735
40720W        W83632  30.213  24.648  23.171 -0.4070 -0.2243  0.1428
40721W        W83633  29.465  26.572  19.687 -0.0538 -0.0250  0.0088
40722W        W83634  28.499  24.663  21.724 -0.0614  0.1975 -0.2567
40723W        W83635  31.555  23.367  20.422 -0.1988  0.2502 -0.3322
40724W        W83636  28.679  23.550  22.506 -0.3151 -0.0538 -0.1536
40725W        W83637  29.124  24.275  22.638  0.1713  0.0920 -0.2962
40726W        W83638  33.514  21.848  21.920  0.2756  0.1943 -0.1649
40727W        W83639  30.312  22.860  23.441 -0.1654  0.1360  0.0358
40728W        W83640  32.745  22.689  23.712  0.0271  0.2417  0.0937
40729W        W83641  28.805  23.485  20.860 -0.2639 -0.0717  0.0960
40730W        W83642  32.752  25.044  21.371  0.1819 -0.1986  0.0232
40731W        W83643  31.177  23.790  19.932  0.0039  0.3814  0.0432
40732W        W83644  31.581  24.608  18.986  0.0884  0.2642 -0.1779
40733W        W83645  28.896  24.410  23.119  0.1348 -0.2791 -0.0378
40734W        W83646  30.261  22.366  22.326  0.2986 -0.1701 -0.1312
40735W        W83647  31.042  21.912  24.286 -0.1211  0.2759  0.4158
40736W        W83648  29.625  23.355  22.928  0.3686 -0.0774 -0.2378
40737W        W83649  33.288  22.493  23.766  0.0880  0.0716  0.1011
40738W        W83650  29.997  22.237  19.794 -0.0327 -0.0298  0.2741
40739W        W83651  32.783  22.167  20.631  0.1053 -0.1259  0.0465
40740W        W83652  31.480  22.765  22.322 -0.0244 -0.2322 -0.0506
40741W        W83653  28.031  23.456  20.503  0.0647  0.0104  0.0120
40742W        W83654  32.978  22.994  24.876 -0.0645  0.0059  0.2168
40743W        W83655  31.789  25.845  20.272  0.0928  0.0995  0.2367
40744W        W83656  31.657  24.610  22.166  0.0328 -0.2562 -0.0059
40745W        W83657  31.794  24.338  21.684 -0.1154  0.0151  0.0396
40746W        W83658  31.103  22.136  23.258  0.1369  0.2641 -0.0094
40747W        W83659  30.854  21.552  21.593  0.0619 -0.1467 -0.0866
40748W        W83660  28.343  25.008  19.912 -0.2044 -0.1023  0.0751
40749W        W83661  30.699  24.361  20.509 -0.0669 -0.3710 -0.1139
40750W        W83662  31.495  22.689  20.901 -0.0126  0.0730 -0.3222
40751W        W83663  33.722  25.489  21.402  0.0701 -0.1179  0.0702
40752W        W83664  31.098  25.999  19.519 -0.1240  0.1683 -0.0711
40753W        W83665  29.456  24.654  21.739 -0.1359 -0.2008  0.1013
40754W        W83666  31.399  21.044  22.832  0.0994  0.1140 -0.3255
40755W        W83667  32.726  22.496  24.663 -0.1820 -0.2265 -0.4809
40756W        W83668  28.598  23.089  21.868 -0.0592 -0.1118  0.1431
40757W        W83669  29.649  21.709  22.827 -0.0125  0.1140  0.2863
40758W        W83670  30.713  24.645  23.244 -0.5661  0.1553 -0.2492
40759W        W83671  28.823  25.313  19.715  0.0980  0.0921 -0.2165
40760W        W83672  29.075  22.873  22.121  0.2153 -0.2196  0.0357
40761W        W83673  31.707  24.617  21.158  0.0440  0.0673  0.1017
40762W        W83674  32.129  22.185  21.648 -0.1541 -0.1083  0.0906
40763W        W83675  29.814  23.522  23.759  0.0513 -0.0017  0.0951
40764W        W83676  32.053  21.112  23.980  0.2859 -0.2491 -0.1266
40765W        W83677  30.123  21.736  22.987 -0.2554 -0.1083  0.3100
40766W        W83678  29.460  24.783  22.978 -0.3244  0.4602 -0.0487
40767W        W83679  31.902  21.597  23.000  0.1191  0.0517  0.2809
40768W        W83680  31.713  21.306  20.371 -0.0370  0.1305 -0.0648
40769W        W83681  31.795  24.917  23.993 -0.0837  0.0082  0.0128
40770W        W83682  32.614  23.520  20.512 -0.1889  0.0832 -0.0448
40771W        W83683  31.095  23.263  19.639 -0.1038 -0.1628  0.1750
40772W        W83684  32.316  23.204  22.369  0.1699  0.0044 -0.1486
40773W        W83685  30.044  24.014  23.704  0.0825 -0.0070  0.0288
40774W        W83686  30.921  24.767  21.424  0.2102 -0.1284 -0.1235
40775W        W83687  29.573  24.218  21.548  0.1850 -0.2239 -0.2500
40776W        W83688  31.882  22.817  19.258  0.0251 -0.3995  0.0633
40777W        W83689  33.675  24.362  20.571 -0.0197  0.3361 -0.1182
40778W        W83690  28.332  23.953  21.358  0.2430 -0.2621  0.1056
40779W        W83691  32.330  24.192  22.981 -0.1039  0.0042 -0.3021
40780W        W83692  32.661  24.606  21.187  0.0440  0.1695  0.0323
40781W        W83693  31.535  22.390  23.374  0.1368  0.1495  0.2610
40782W        W83694  30.117  24.204  21.525 -0.1163  0.2046  0.2123
40783W        W83695  31.138  23.433  20.646  0.0800  0.2047 -0.1883
40784W        W83696  28.183  25.808  20.064  0.3690  0.0341 -0.0513
40785W        W83697  32.027  22.791  22.122  0.2832 -0.0977 -0.1536
40786W        W83698  30.833  22.486  21.321 -0.4026  0.2478  0.2420
40787W        W83699  31.193  22.924  24.204  0.0452 -0.1497  0.4129
40788W        W83700  32.594  24.488  24.355  0.0548 -0.5713  0.1970
40789W        W83701  32.215  24.150  22.466  0.4046 -0.1077  0.0362
40790W        W83702  33.240  23.168  23.820 -0.0224  0.3547 -0.2554
40791W        W83703  29.608  22.516  21.156  0.1304  0.0019 -0.1731
40792W        W83704  31.714  22.053  22.930 -0.1465  0.3135  0.1784
40793W        W83705  30.592  23.058  22.143 -0.0652  0.1034  0.1406
40794W        W83706  29.519  24.037  22.416  0.0776  0.0406  0.1815
40795W        W83707  32.581  25.480  23.010  0.0089 -0.1420  0.0364
40796W        W83708  28.926  23.488  22.004  0.0047  0.4566 -0.1541
40797W        W83709  31.472  22.037  23.978  0.1888  0.2759 -0.1939
40798W        W83710  32.209  22.699  21.649  0.1096 -0.1001 -0.0705
40799W        W83711  30.369  25.659  19.927 -0.2948 -0.2063  0.1414
40800W        W83712  31.012  23.912  21.630 -0.0921 -0.1569 -0.1991
40801W        W83713  30.527  22.518  23.033  0.3193  0.0937 -0.2382
40802W        W83714  30.234  24.159  22.009  0.2427 -0.1672 -0.0553
40803W        W83715  30.036  24.252  19.017 -0.0875 -0.0643 -0.0814
40804W        W83716  32.910  23.168  23.064 -0.4007 -0.2510  0.1097
40805W        W83717  30.952  24.914  20.470  0.1324 -0.0082 -0.2902
40806W        W83718  32.524  22.562  22.568 -0.0929  0.0476  0.1222
40807W        W83719  28.334  25.198  19.389  0.1170  0.1964 -0.0861
40808W        W83720  29.877  23.137  20.146 -0.0484  0.1994  0.0017
40809W        W83721  27.517  23.273  20.432  0.5176  0.2551  0.0403
40810W        W83722  31.261  22.237  20.674  0.3233 -0.1629 -0.1154
40811W        W83723  31.225  23.397  21.646 -0.3438  0.1157  0.0825
40812W        W83724  30.483  23.307  22.631 -0.2515 -0.0099  0.0170
40813W        W83725  30.361  22.746  22.643 -0.1671  0.0934  0.2871
40814W        W83726  29.520  25.042  20.827 -0.2200  0.0003  0.2369
40815W        W83727  31.984  23.798  24.142  0.1479 -0.1845  0.2736
40816W        W83728  32.051  21.768  20.776  0.3406  0.0281  0.0782
40817W        W83729  30.245  24.162  23.275 -0.1949  0.2322 -0.0333
40818W        W83730  30.059  24.635  21.837  0.0348 -0.2826  0.0352
40819W        W83731  27.712  22.892  20.672  0.2644 -0.1027 -0.0168
40820W        W83732  32.159  22.873  23.946  0.0559  0.0365  0.1703
40821W        W83733  29.147  23.271  22.966 -0.1826  0.0415 -0.0488
40822W        W83734  27.974  24.285  21.023 -0.3832 -0.1846  0.1190
40823W        W83735  29.970  25.077  22.058  0.2159  0.1817  0.1126
40824W        W83736  29.559  23.091  21.553  0.2157  0.1013 -0.1013
40825W        W83737  28.325  23.321  20.880 -0.1609 -0.3075  0.0773
40826W        W83738  30.957  23.960  25.042 -0.5929  0.2932 -0.1351
40827W        W83739  32.911  23.536  24.008  0.3824  0.1056 -0.3460
40828W        W83740  29.970  23.110  22.399  0.0837 -0.3195  0.1773
40829W        W83741  31.765  23.251  22.274 -0.4038 -0.2342  0.2531
40830W        W83742  31.163  23.265  23.068 -0.1082 -0.1800 -0.3155
40831W        W83743  31.009  23.923  22.490 -0.0161  0.0223 -0.1315
40832W        W83744  31.704  23.320  24.652 -0.1199 -0.0946  0.3422
40833W        W83745  29.980  24.389  24.589 -0.2887 -0.1297  0.0671
40834W        W83746  32.490  22.313  23.528  0.2822  0.0744  0.1880
40835W        W83747  32.882  25.892  20.282  0.0988 -0.1835 -0.0350
40836W        W83748  32.976  23.455  23.447  0.0231 -0.0180 -0.1665
40837W        W83749  29.367  23.877  21.855 -0.4273  0.1300 -0.0985
40838W        W83750  29.786  23.117  23.429 -0.0055  0.0361 -0.1273
40839W        W83751  28.479  23.702  20.525  0.3195  0.1993 -0.1465
40840W        W83752  29.768  22.711  23.004  0.2617  0.2056  0.1869
40841W        W83753  28.030  23.765  22.513 -0.0960  0.1340  0.1059
40842W        W83754  32.198  24.769  20.765  0.0821 -0.1914 -0.0147
40843W        W83755  29.007  24.583  21.471  0.0497 -0.0584 -0.0251
40844W        W83756  32.787  23.025  20.335  0.2789  0.1763 -0.0250
40845W        W83757  31.160  24.727  20.083  0.0402  0.4801  0.0619
40846W        W83758  31.371  22.337  22.606  0.0719 -0.0758  0.1487
40847W        W83759  32.425  21.624  23.166 -0.0244  0.1710 -0.0425
40848W        W83760  31.317  25.303  20.597  0.0311 -0.3129  0.1553
40849W        W83761  30.394  20.410  22.860 -0.2214 -0.0953  0.0438
40850W        W83762  30.801  22.470  23.471  0.0184 -0.2705 -0.1661
40851W        W83763  32.698  23.455  21.064  0.1340  0.4663 -0.3125
40852W        W83764  30.619  23.245  24.327  0.0113  0.0376  0.1835
40853W        W83765  30.959  26.753  23.495 -0.1037 -0.1979  0.2744
40854W        W83766  29.383  23.234  23.760 -0.0396 -0.0726 -0.3298
40855W        W83767  31.594  22.959  21.866 -0.2505 -0.3453 -0.1756
40856W        W83768  28.963  22.074  22.044 -0.0433  0.3366  0.1117
40857W        W83769  28.236  22.842  22.297 -0.0423 -0.1058  0.2356
40858W        W83770  32.062  23.762  23.321  0.2679 -0.0134  0.0014
40859W        W83771  30.297  25.181  20.087 -0.2507 -0.1994  0.1215
40860W        W83772  31.734  23.457  21.292 -0.0665  0.2395 -0.0887
40861W        W83773  30.583  21.934  23.472 -0.1404  0.0655 -0.1948
40862W        W83774  30.880  22.887  22.674  0.1346  0.2215  0.1560
40863W        W83775  31.796  24.133  21.144 -0.0397 -0.0796 -0.3023
40864W        W83776  29.947  23.250  21.917 -0.2343  0.3801  0.2955
40865W        W83777  31.371  22.563  23.868 -0.0902 -0.2446 -0.0024
40866W        W83778  30.918  24.493  22.794 -0.0786  0.1865  0.1492
40867W        W83779  31.505  23.061  22.728 -0.1031 -0.3948  0.1171
40868W        W83780  33.499  23.193  23.295 -0.0356 -0.2746 -0.2090
40869W        W83781  32.022  22.807  22.582  0.0383  0.2282  0.0295
40870W        W83782  31.320  23.363  23.554 -0.1214  0.1343  0.0420
40871W        W83783  30.153  23.527  24.612  0.0545  0.1426  0.1412
40872W        W83784  32.078  26.026  22.717  0.2773 -0.0806 -0.1690
40873W        W83785  32.398  23.021  20.644  0.1229 -0.1948  0.2292
40874W        W83786  32.985  21.204  23.859 -0.0504  0.0182  0.0542
40875W        W83787  31.255  23.737  22.068 -0.0914 -0.1810 -0.2229
40876W        W83788  30.663  24.870  20.029  0.0451  0.2741  0.0704
40877W        W83789  28.414  23.612  21.906 -0.1295 -0.4072 -0.0688
40878W        W83790  32.911  23.961  24.323  0.0977  0.0460  0.2428
40879W        W83791  28.555  22.855  21.110 -0.1221 -0.3161  0.0437
40880W        W83792  32.376  21.201  24.517  0.1169 -0.0959 -0.2471
40881W        W83793  29.979  25.340  20.863 -0.4819 -0.2272  0.3736
40882W        W83794  29.650  23.587  22.420  0.1361  0.2790  0.4169
40883W        W83795  32.002  22.987  21.294  0.3688 -0.0256  0.2853
40884W        W83796  28.432  23.952  22.301 -0.1259 -0.1976 -0.0438
40885W        W83797  29.831  26.103  21.936  0.2788  0.4086 -0.0448
40886W        W83798  30.372  21.866  21.503 -0.2025 -0.0614  0.3509
40887W        W83799  30.065  23.281  21.264 -0.2627  0.1575  0.0016
40888W        W83800  31.337  24.340  21.460  0.1171 -0.1037 -0.2047
40889W        W83801  31.720  24.179  23.326 -0.3052 -0.4065 -0.1076
40890W        W83802  30.221  22.342  20.764  0.1796 -0.1270 -0.5003
40891W        W83803  32.473  22.675  23.112 -0.0455 -0.1856  0.0779
40892W        W83804  28.308  24.155  21.848  0.3924 -0.0394  0.2190
40893W        W83805  32.082  22.385  23.081  0.1092 -0.3057 -0.1725
40894W        W83806  29.664  26.435  21.557 -0.3929  0.1296  0.0547
40895W        W83807  28.957  23.907  22.290  0.1849 -0.2608 -0.2536
40896W        W83808  31.237  24.664  20.981  0.1403  0.1296  0.1940
40897W        W83809  32.138  23.122  23.226  0.0587 -0.2970 -0.2619
40898W        W83810  31.780  24.612  23.030  0.1729  0.0210  0.2025
40899W        W83811  30.557  23.806  22.513 -0.0171  0.1499 -0.2266
40900W        W83812  33.645  24.538  24.328  0.0332 -0.0895  0.0261
40901W        W83813  31.645  25.384  23.744  0.0754  0.0272 -0.0778
40902W        W83814  28.311  25.100  21.507  0.0827  0.2658 -0.2826
40903W        W83815  31.930  25.054  22.187  0.2962 -0.2306  0.0513
40904W        W83816  31.931  24.031  22.045 -0.3639 -0.0470  0.1671
40905W        W83817  28.721  25.105  22.411 -0.0787  0.2331  0.2322
40906W        W83818  31.623  23.453  24.196 -0.1454 -0.2180  0.1551
40907W        W83819  31.323  23.617  24.863  0.1793  0.2542 -0.1266
40908W        W83820  30.152  22.774  22.104  0.0888 -0.2065 -0.1485
40909W        W83821  32.134  21.914  22.115  0.0548  0.0048 -0.0491
40910W        W83822  30.163  24.719  19.834  0.1231 -0.2375 -0.0511
40911W        W83823  29.812  24.453  23.380 -0.2477  0.2499  0.0306
40912W        W83824  28.839  22.696  24.091 -0.1726 -0.5501  0.0905
40913W        W83825  29.466  23.905  19.801  0.1903 -0.0544  0.2855
40914W        W83826  30.473  25.024  20.517 -0.1097  0.0475 -0.0878
40915W        W83827  31.191  26.284  21.416  0.3138  0.3395 -0.4073
40916W        W83828  32.739  25.868  20.781 -0.0557 -0.1370 -0.1442
40917W        W83829  29.641  22.776  20.496 -0.0672  0.2301  0.1595
40918W        W83830  30.243  23.730  21.076  0.0158 -0.3233 -0.4239
40919W        W83831  28.092  24.145  19.395 -0.0442  0.2394  0.1569
40920W        W83832  32.286  25.321  20.876  0.0009  0.3653 -0.0535
40921W        W83833  30.784  23.631  21.302  0.1787 -0.3802 -0.0962
40922W        W83834  32.310  23.688  22.676 -0.1108  0.0649 -0.2489
40923W        W83835   0.012  22.907  19.878 -0.1963  0.2562  0.1127
40924W        W83836  32.553  22.792  22.069  0.0103 -0.2596 -0.3045
40925W        W83837  32.992  22.482  21.216 -0.2159  0.0812 -0.3271
40926W        W83838  31.392  25.342  22.606 -0.1708 -0.0817  0.1380
40927W        W83839  30.833  23.436  23.385  0.1945  0.1440  0.1491
40928W        W83840  31.010  22.692  20.870  0.3045  0.4184  0.3747
40929W        W83841  29.742  24.284  22.026 -0.0229 -0.0086  0.0940
40930W        W83842  33.045  21.942  23.183  0.1578  0.1025  0.0390
40931W        W83843  29.877  26.460  22.478 -0.0400 -0.2853 -0.0941
40932W        W83844  33.856  25.664  19.610 -0.0375  0.1089 -0.1048
40933W        W83845  29.028  22.154  21.538  0.1662 -0.0902 -0.0806
40934W        W83846  30.163  24.550  22.361  0.1020  0.1229  0.1535
40935W        W83847   0.224  21.700  21.881  0.1054 -0.2890 -0.1419
40936W        W83848  30.500  24.371  20.018  0.1630  0.0097  0.0890
40937W        W83849  30.720  23.029  23.195 -0.1921  0.0308  0.2344
40938W        W83850  30.672  24.633  20.958 -0.0565 -0.0146  0.1924
40939W        W83851  29.473  23.372  22.000  0.2395  0.1629 -0.1429
40940W        W83852  30.519  25.068  21.202  0.1835 -0.0192  0.2221
40941W        W83853  28.669  22.085  21.118 -0.2015  0.0178  0.1822
40942W        W83854  33.190  22.471  21.668 -0.1126 -0.2201 -0.1441
40943W        W83855  29.904  23.209  25.325 -0.1146 -0.1866 -0.1961
40944W        W83856  33.833  21.249  22.583  0.3978 -0.2341  0.2199
40945W        W83857  30.897  22.172  22.106  0.1635 -0.0976  0.1008
40946W        W83858  33.232  23.006  21.138  0.0520 -0.0071 -0.0365
40947W        W83859  30.029  23.934  22.432  0.1999 -0.1168  0.2813
40948W        W83860  28.897  23.333  23.387 -0.1382  0.2499 -0.0058
40949W        W83861  30.905  23.013  21.706  0.0675  0.1909 -0.1680
40950W        W83862  33.421  22.784  22.443 -0.2363  0.0053  0.0937
40951W        W83863  31.268  24.204  21.998  0.0498  0.0273  0.1222
40952W        W83864  32.098  25.721  22.157 -0.0041 -0.0305  0.0242
40953W        W83865  27.539  22.542  21.780  0.2387  0.0054 -0.1025
40954W        W83866  31.693  23.848  20.089 -0.1421 -0.0997  0.4523
40955W        W83867  30.114  22.229  22.806 -0.0114 -0.0896 -0.2375
40956W        W83868  29.420  22.945  22.481 -0.2298  0.0999 -0.1878
40957W        W83869  32.739  25.967  23.441  0.0613  0.1611 -0.0580
40958W        W83870  27.713  22.957  22.064 -0.1449  0.1851 -0.1931
40959W        W83871  30.842  25.427  21.295  0.0414  0.0434 -0.0031
40960W        W83872  32.664  22.340  21.799 -0.0220  0.2813  0.2448
40961W        W83873  31.021  25.163  18.996  0.1443 -0.3219  0.1737
40962W        W83874  31.388  23.818  23.345 -0.0533  0.0414  0.0620
40963W        W83875  31.033  24.800  21.950  0.0555  0.1829 -0.0681
40964W        W83876  30.474  23.775  23.556 -0.3172  0.3719  0.0375
40965W        W83877  31.951  23.352  22.762 -0.1913 -0.0516 -0.1041
40966W        W83878  32.253  23.463  21.327  0.0222  0.2143  0.3727
40967W        W83879  32.686  21.759  21.309  0.0018  0.2125 -0.0935
40968W        W83880  29.981  22.507  23.924  0.2130 -0.3201 -0.0770
40969W        W83881  28.741  23.023  20.689 -0.0782 -0.0678 -0.0916
40970W        W83882  32.525  22.095  23.049  0.3415  0.2955  0.1008
40971W        W83883  32.804  21.522  24.728 -0.2347  0.1667  0.0002
40972W        W83884  29.370  24.909  19.023  0.3345  0.0185  0.2041
40973W        W83885  32.516  21.327  23.817 -0.0982  0.0337 -0.0467
40974W        W83886  29.292  23.679  21.083  0.1346  0.2105 -0.3757
40975W        W83887  30.801  24.187  24.605 -0.2941 -0.0165  0.0824
40976W        W83888  30.127  22.776  20.538  0.2115  0.1022  0.1094
40977W        W83889  29.549  23.956  23.494  0.5202  0.0177 -0.1272
40978W        W83890  30.373  23.226  21.685  0.0126 -0.0608  0.1718
40979W        W83891  30.198  24.810  20.898 -0.2760  0.2027 -0.0184
40980W        W83892  32.005  23.872  21.483 -0.1078  0.1124 -0.0785
40981W        W83893  30.763  24.189  23.166 -0.1416 -0.0091  0.0643
40982W        W83894  32.683  24.511  20.730  0.1765 -0.0382  0.2234
40983W        W83895  31.084  22.942  23.550  0.1994  0.4811  0.1583
40984W        W83896  34.338  21.402  22.120  0.2615  0.0450 -0.1588
40985W        W83897  32.275  22.366  22.114 -0.1355  0.2451  0.0182
40986W        W83898  30.120  25.057  21.456  0.2718  0.1549 -0.2255
40987W        W83899  27.816  24.952  19.519 -0.0989 -0.1472 -0.3335
40988W        W83900  29.956  22.747  21.506 -0.0006  0.0710 -0.0124
40989W        W83901  30.974  23.729  23.020  0.2133  0.0386  0.0718
40990W        W83902  31.431  21.419  23.300  0.0088  0.0063  0.0741
40991W        W83903  30.895  22.227  23.934  0.1895  0.1576  0.0980
40992W        W83904  27.917  24.017  23.030 -0.4014  0.0068  0.0969
40993W        W83905  31.622  21.849  23.525 -0.0642 -0.0917 -0.0042
40994W        W83906  32.183  24.670  19.768  0.1201  0.0538  0.0210
40995W        W83907  31.710  21.779  21.782 -0.1316 -0.2603 -0.0929
40996W        W83908  28.619  22.085  22.476 -0.0832 -0.0166  0.1928
40997W        W83909  32.008  25.655  21.088 -0.0074 -0.1326  0.0110
40998W        W83910  32.999  24.505  19.924 -0.2005  0.0984  0.0110
40999W        W83911  30.544  22.610  21.811 -0.2092  0.0821 -0.0595
41000W        W83912  31.869  24.423  25.250 -0.3032  0.0828  0.1161
41001W        W83913  28.518  24.149  20.381 -0.1555 -0.1942 -0.2025
41002W        W83914  30.935  23.034  25.433  0.0935 -0.0213 -0.0682
41003W        W83915  31.992  22.296  23.867  0.1341  0.1195  0.0934
41004W        W83916  27.468  21.891  21.930 -0.3480  0.3263  0.1051
41005W        W83917  31.715  23.450  23.222 -0.1618 -0.0011  0.1344
41006W        W83918  31.840  25.485  20.631 -0.1680  0.3273  0.0272
41007W        W83919  31.644  25.040  20.915 -0.0780  0.1164 -0.0554
41008W        W83920  30.761  23.992  22.058 -0.1197  0.0547  0.0245
41009W        W83921  30.787  25.338  22.649 -0.0501  0.1546  0.1379
41010W        W83922  28.727  22.579  21.833 -0.0157  0.1008 -0.1940
41011W        W83923  30.424  23.818  21.693  0.0191  0.1121  0.1333
41012W        W83924  30.429  25.134  22.971 -0.0687 -0.0201 -0.2201
41013W        W83925  33.515  25.788  20.107 -0.3226  0.0949 -0.3163
41014W        W83926  34.283  21.379  22.676  0.1840 -0.1078 -0.3155
41015W        W83927  30.999  23.073  21.208  0.0327  0.1251 -0.0765
41016W        W83928  31.185  21.196  24.496 -0.1566 -0.0556  0.3008
41017W        W83929  29.212  23.787  22.750  0.1971 -0.0139 -0.1341
41018W        W83930  31.906  25.296  22.773  0.0428 -0.0181 -0.0990
41019W        W83931  30.611  21.821  24.019  0.0571  0.1679  0.0531
41020W        W83932  32.466  22.461  21.332 -0.0163 -0.2171  0.1961
41021W        W83933  31.142  25.201  20.054  0.1085 -0.4757  0.2883
41022W        W83934  29.585  22.677  24.394  0.2806 -0.3160  0.1367
41023W        W83935  30.634  24.454  21.766 -0.0314  0.0269 -0.0041
41024W        W83936  32.503  23.572  23.161  0.3350 -0.2807  0.1902
41025W        W83937  31.641  24.186  22.492 -0.1176 -0.0379 -0.1814
41026W        W83938  31.805  24.401  23.820 -0.2998  0.0077  0.1089
41027W        W83939  29.707  23.691  21.359 -0.5054 -0.2036  0.0343
41028W        W83940  32.048  24.689  20.282  0.1191  0.1211 -0.1591
41029W        W83941  31.198  25.823  22.407 -0.1296 -0.0656  0.1827
41030W        W83942  32.217  26.143  23.323  0.0517  0.0320 -0.0139
41031W        W83943  31.562  24.845  22.608 -0.0958 -0.0529 -0.3474
41032W        W83944  31.824  23.716  22.435 -0.1400  0.0194  0.0629
41033W        W83945  30.065  23.557  22.726  0.1396 -0.0856  0.0997
41034W        W83946  30.168  22.206  23.304 -0.1855  0.3331  0.0118
41035W        W83947  28.653  24.690  22.633 -0.0659 -0.1123 -0.1436
41036W        W83948  33.104  22.888  23.404 -0.0467  0.1399 -0.4446
41037W        W83949  30.169  22.302  21.691  0.1348 -0.1875  0.2567
41038W        W83950  33.075  21.983  21.110  0.0148 -0.0240  0.1824
41039W        W83951  31.239  24.448  22.436 -0.0216 -0.2040 -0.2833
41040W        W83952  31.435  24.087  24.102  0.0965 -0.1918 -0.4176
41041W        W83953  29.767  25.239  26.741  0.0254 -0.0603  0.0991
41042W        W83954  29.743  23.428  24.282 -0.0620 -0.1445  0.2680
41043W        W83955  32.360  23.099  24.853  0.3310  0.0044 -0.0218
41044W        W83956  31.961  22.146  24.910  0.0604  0.1133  0.2432
41045W        W83957  29.428  22.737  25.642 -0.0526 -0.1304 -0.1487
41046W        W83958  30.819  25.660  24.493 -0.0401 -0.0931  0.0391
41047W        W83959  31.012  22.546  27.739  0.2319 -0.0083 -0.0423
41048W        W83960  32.167  24.067  25.835 -0.1157 -0.0952  0.0900
41049W        W83961  31.417  26.101  27.957 -0.1865  0.2379  0.0992
41050W        W83962  30.329  24.165  22.775 -0.1409 -0.1472 -0.2437
41051W        W83963  29.697  22.067  27.759  0.1342 -0.1508  0.1447
41052W        W83964  28.584  25.852  26.876 -0.1925 -0.3460  0.3508
41053W        W83965  30.879  22.181  25.755  0.1917  0.1193 -0.0228
41054W        W83966  28.834  22.189  26.114 -0.1152 -0.2503 -0.1989
41055W        W83967  31.138  24.037  26.439  0.0640  0.1185 -0.0056
41056W        W83968  30.217  23.118  23.971  0.0164 -0.0112  0.1560
41057W        W83969  29.840  24.289  26.934  0.4638 -0.0843  0.1266
41058W        W83970  32.033  23.531  24.921  0.0453  0.2621 -0.0742
41059W        W83971  30.777  25.853  25.147 -0.0839 -0.0687 -0.2564
41060W        W83972  30.348  21.413  26.167  0.2029  0.1234  0.1026
41061W        W83973  31.392  22.198  27.846 -0.1712 -0.0769 -0.0847
41062W        W83974  31.638  24.837  23.520  0.0478 -0.0644 -0.2083
41063W        W83975  30.644  23.283  23.849  0.2209 -0.1774  0.2041
41064W        W83976  28.860  22.547  25.410  0.3853 -0.3246 -0.2815
41065W        W83977  29.354  23.232  27.303  0.0287  0.0019 -0.0227
41066W        W83978  32.383  23.514  25.300  0.2960  0.0209  0.2081
41067W        W83979  31.625  23.971  25.024 -0.0432  0.1057 -0.4637
41068W        W83980  31.052  24.382  24.145 -0.2087 -0.2214  0.1600
41069W        W83981  31.937  25.570  25.490  0.0355  0.3095  0.1144
41070W        W83982  30.674  23.147  27.081  0.3188 -0.2269 -0.0347
41071W        W83983  30.290  22.961  25.189  0.1772 -0.0967  0.1704
41072W        W83984  30.385  26.087  25.317 -0.0608 -0.1517  0.2012
41073W        W83985  30.320  25.712  24.764 -0.1137  0.0785 -0.0854
41074W        W83986  33.271  26.052  24.114  0.1772 -0.2117  0.0135
41075W        W83987  31.006  24.792  27.321 -0.2931 -0.1316 -0.0241
41076W        W83988  30.098  25.244  27.661  0.1749  0.1733 -0.2527
41077W        W83989  29.240  25.230  23.074 -0.1570 -0.0355  0.1710
41078W        W83990  31.851  25.834  27.852 -0.2773  0.0860 -0.0063
41079W        W83991  29.909  25.523  25.679 -0.0464 -0.1196  0.2415
41080W        W83992  31.687  24.295  25.777  0.0112  0.2669  0.2025
41081W        W83993  31.320  23.087  24.973 -0.0737  0.3432  0.0548
41082W        W83994  30.652  25.388  24.035  0.2017 -0.0823  0.0952
41083W        W83995  30.757  23.238  25.887  0.2723 -0.3247  0.0450
41084W        W83996  29.993  25.405  26.221  0.2466  0.0331 -0.1018
41085W        W83997  29.896  25.454  27.210  0.4603  0.0348  0.0154
41086W        W83998  32.214  24.535  27.953 -0.0912 -0.5171  0.0982
41087W        W83999  31.050  27.234  23.499  0.1017 -0.0537  0.0217
41088W        W84000  31.703  22.472  24.290 -0.0323 -0.4165 -0.3272
41089W        W84001  32.185  24.053  23.736  0.0916 -0.0924 -0.0426
41090W        W84002  32.065  22.682  24.582 -0.0369  0.0747  0.1564
41091W        W84003  30.542  21.453  26.842 -0.0914  0.0579 -0.2800
41092W        W84004  29.934  25.708  26.637 -0.0180 -0.2103 -0.0748
41093W        W84005  30.348  22.513  25.376  0.4407  0.0194 -0.0098
41094W        W84006  30.831  24.414  27.866 -0.2792 -0.3413 -0.0524
41095W        W84007  33.154  23.693  24.688 -0.2234 -0.0979  0.1525
41096W        W84008  32.574  23.717  26.256  0.2307 -0.0031  0.3629
41097W        W84009  28.461  25.086  26.047  0.0169  0.0816  0.1299
41098W        W84010  30.239  22.326  26.363 -0.3060  0.0288 -0.0323
41099W        W84011  32.098  25.303  23.894 -0.1280 -0.2547  0.2085
41100W        W84012  32.099  25.659  23.091  0.0941  0.3371  0.1749
41101W        W84013  31.626  26.822  22.435 -0.0165  0.1186 -0.0804
41102W        W84014  30.203  22.888  25.690  0.0495  0.3617 -0.1829
41103W        W84015  29.395  23.920  26.641  0.1093 -0.1934 -0.0140
41104W        W84016  29.644  23.551  25.557  0.2591  0.4012 -0.3529
41105W        W84017  31.933  21.695  24.763  0.0216  0.0364 -0.0317
41106W        W84018  32.832  24.196  26.643 -0.0498 -0.3832 -0.0815
41107W        W84019  28.859  25.264  27.942 -0.0001 -0.1169  0.0749
41108W        W84020  32.106  23.015  25.367 -0.2493 -0.1728 -0.0566
41109W        W84021  32.603  24.179  23.998  0.1215  0.0885  0.2444
41110W        W84022  32.192  25.926  25.684  0.2653 -0.0912 -0.0398
41111W        W84023  30.517  24.749  22.664 -0.1594  0.2259  0.1132
41112W        W84024  31.454  22.234  26.538  0.1945  0.2160 -0.1720
41113W        W84025  32.255  22.697  27.370  0.1960 -0.2820 -0.0004
41114W        W84026  32.208  23.418  24.482 -0.1085  0.1265 -0.1165
41115W        W84027  30.330  25.170  23.498 -0.4811 -0.0645  0.3117
41116W        W84028  31.649  24.891  26.642  0.1358  0.0182  0.1500
41117W        W84029  33.012  24.461  23.477  0.1389 -0.2755  0.2071
41118W        W84030  29.570  24.761  26.706 -0.0755  0.0572  0.0262
41119W        W84031  30.114  21.756  27.993 -0.0503 -0.1737  0.1818
41120W        W84032  30.317  25.630  27.491 -0.0128 -0.1192 -0.1443
41121W        W84033  30.907  25.057  22.986  0.1408  0.0925 -0.1088
41122W        W84034  29.883  24.577  25.957  0.5210 -0.1698 -0.1275
41123W        W84035  29.173  23.381  22.409 -0.1167 -0.1032  0.0715
41124W        W84036  28.305  22.586  26.794  0.1204  0.0274  0.1027
41125W        W84037  30.449  25.623  26.483  0.1165  0.1407 -0.0835
41126W        W84038  31.887  22.930  25.929  0.0302  0.0365 -0.0274
41127W        W84039  29.279  22.149  28.546 -0.3061 -0.1207 -0.2002
41128W        W84040  31.815  22.639  25.458  0.3262 -0.4050  0.2108
41129W        W84041  29.952  23.748  25.172  0.0235  0.1923  0.1978
41130W        W84042  31.040  26.081  26.589 -0.0483 -0.2440  0.2817
41131W        W84043  33.267  21.979  23.793 -0.2569 -0.2684  0.1105
41132W        W84044  31.595  25.982  23.518 -0.2825  0.2536 -0.1036
41133W        W84045  29.543  22.918  26.410  0.0979  0.1227  0.1137
41134W        W84046  28.806  22.365  26.575 -0.0164  0.1482  0.0248
41135W        W84047  29.786  22.967  27.382 -0.1823 -0.2075  0.1679
41136W        W84048  29.134  21.380  25.321 -0.0821  0.0134 -0.2554
41137W        W84049  31.394  23.540  27.909  0.1683 -0.0951 -0.3733
41138W        W84050  28.070  21.912  25.740  0.0861  0.0815 -0.1047
41139W        W84051  30.726  22.856  26.255 -0.1635 -0.2596 -0.0530
41140W        W84052  31.661  24.464  24.349 -0.2791  0.0144  0.2646
41141W        W84053  29.198  24.876  25.141  0.0176 -0.0749  0.3991
41142W        W84054  32.141  23.552  26.564 -0.2259  0.0831 -0.0455
41143W        W84055  30.376  23.913  24.842  0.1850 -0.0249  0.0965
41144W        W84056  32.174  25.230  27.405 -0.0590 -0.1800 -0.2057
41145W        W84057  31.270  25.541  26.667  0.0170 -0.0053  0.2212
41146W        W84058  30.837  21.061  27.125  0.1539 -0.4083  0.0784
41147W        W84059  29.335  20.974  25.072  0.0424  0.1377 -0.1293
41148W        W84060  29.551  26.217  26.489  0.1629  0.0584 -0.2527
41149W        W84061  31.584  24.575  24.903 -0.1423  0.0142  0.1568
41150W        W84062  30.430  22.203  24.853  0.0801  0.1261 -0.4260
41151W        W84063  31.481  25.278  25.272  0.0326 -0.2262  0.0876
41152W        W84064  32.549  24.882  25.271 -0.1651  0.2747 -0.1577
41153W        W84065  30.366  24.518  27.007  0.4641  0.4368 -0.0247
41154W        W84066  31.795  21.674  26.985 -0.1097  0.1883  0.1349
41155W        W84067  31.948  24.522  27.049 -0.2171 -0.0707  0.3164
41156W        W84068  31.371  24.195  25.395  0.2347  0.0184  0.3285
41157W        W84069  27.486  22.219  25.667 -0.0479  0.4695 -0.1876
41158W        W84070  31.500  25.732  25.067 -0.3372 -0.1789  0.0943
41159W        W84071  31.155  23.414  25.645  0.0280 -0.1631  0.0438
41160W        W84072  30.082  21.899  26.046 -0.1557 -0.0695  0.0891
41161W        W84073  30.660  25.033  25.695 -0.0583  0.1998 -0.2313
41162W        W84074  31.426  22.753  26.319 -0.0043 -0.3181  0.0521
41163W        W84075  29.693  22.483  26.957  0.0019 -0.0938 -0.0552
41164W        W84076  30.807  23.468  26.649  0.0277 -0.0731  0.1377
41165W        W84077  29.929  22.898  24.897 -0.4174  0.0081  0.4724
41166W        W84078  28.982  25.261  26.114 -0.1171 -0.0441 -0.0162
41167W        W84079  32.644  22.334  25.829 -0.0459  0.1349 -0.2546
41168W        W84080  33.429  22.234  24.711  0.2935 -0.1155 -0.0406
41169W        W84081  31.410  24.412  26.207 -0.3080  0.1126  0.1314
41170W        W84082  32.758  24.056  24.794  0.0844 -0.0052 -0.2040
41171W        W84083  32.461  23.126  22.878  0.2320 -0.1036 -0.2282
41172W        W84084  31.296  21.873  25.143  0.2191  0.2292  0.2427
41173W        W84085  29.660  24.086  27.749  0.0468  0.0031 -0.1000
41174W        W84086  30.525  25.304  24.989  0.3000 -0.0188  0.6730
41175W        W84087  31.350  23.976  25.983 -0.3821  0.0002 -0.1768
41176W        W84088  30.739  23.609  24.666  0.0864  0.1016  0.2529
41177W        W84089  31.285  25.836  24.635  0.0581 -0.1876 -0.0015
41178W        W84090  28.515  24.628  26.205 -0.1821 -0.2188 -0.1165
41179W        W84091  31.478  24.162  29.265 -0.0414 -0.1045  0.0923
41180W        W84092  30.892  26.236  27.045 -0.0031  0.1401  0.2823
41181W        W84093  30.232  21.124  26.548 -0.1446 -0.0813 -0.0249
41182W        W84094  31.287  24.212  22.975  0.1312  0.1207  0.0762
41183W        W84095  30.150  21.691  27.446  0.0199  0.0222  0.0213
41184W        W84096  29.860  25.711  24.345  0.0589  0.4125 -0.0543
41185W        W84097  31.108  23.026  28.116 -0.0910  0.0889 -0.1384
41186W        W84098  31.103  21.751  26.137 -0.3573  0.2792 -0.1303
41187W        W84099  31.322  21.735  27.220  0.1056  0.1818  0.0760
41188W        W84100  32.327  24.494  25.980 -0.1335  0.0150 -0.0639
41189W        W84101  32.884  24.522  24.739  0.0130 -0.0430  0.2777
41190W        W84102  30.999  23.662  26.121 -0.0793 -0.3274 -0.0322
41191W        W84103  30.787  20.931  25.294  0.0458  0.2041 -0.0583
41192W        W84104  30.158  22.946  27.038  0.0618  0.0288  0.0027
41193W        W84105  29.148  22.765  26.636  0.0395 -0.1690  0.1803
41194W        W84106  29.008  24.971  27.537 -0.4184 -0.0821 -0.0543
41195W        W84107  31.526  24.510  27.852  0.4906 -0.2314  0.0468
41196W        W84108  30.939  24.649  23.657  0.1552 -0.1046 -0.2409
41197W        W84109  32.412  23.304  27.621 -0.3097 -0.0615 -0.0326
41198W        W84110  32.419  21.902  25.084  0.2209 -0.1319 -0.0732
41199W        W84111  30.405  26.567  26.282 -0.0694 -0.2473  0.2116
41200W        W84112  29.348  24.001  24.620  0.1795 -0.2200 -0.1636
41201W        W84113  30.054  23.996  25.648 -0.1785 -0.1104  0.1614
41202W        W84114  30.709  24.405  25.529 -0.0717 -0.2774  0.2184
41203W        W84115  31.233  25.463  24.289 -0.0797 -0.0556  0.0328
41204W        W84116  31.392  23.620  26.382 -0.0736 -0.1029 -0.0507
41205W        W84117  31.042  24.674  26.541 -0.0845 -0.0293  0.0567
41206W        W84118  32.817  23.853  26.950  0.2500 -0.3490 -0.0740
41207W        W84119  30.593  26.597  25.277  0.0993 -0.0276 -0.0670
41208W        W84120  31.515  23.364  25.975  0.0642  0.1106  0.2310
41209W        W84121  29.386  23.016  24.707  0.2553 -0.3320 -0.2638
41210W        W84122  31.818  23.265  23.688 -0.1141  0.0903  0.1096
41211W        W84123  31.514  25.093  23.036 -0.3004 -0.0761 -0.0286
41212W        W84124  29.559  21.584  26.964  0.1505  0.1462  0.1080
41213W        W84125  31.515  23.027  25.526  0.1107 -0.1886 -0.3156
41214W        W84126  29.391  25.477  25.851  0.4191 -0.0313 -0.0372
41215W        W84127  31.841  25.055  27.072  0.2945  0.0654 -0.1428
41216W        W84128  31.992  22.053  24.338  0.2428  0.1093 -0.2443
41217W        W84129  31.472  25.562  26.211  0.0690  0.2786 -0.0392
41218W        W84130  30.329  23.318  26.125 -0.1418  0.2079 -0.3972
41219W        W84131  28.632  23.194  22.937  0.0066  0.2417 -0.1995
41220W        W84132  31.947  22.572  26.413 -0.2940  0.0635  0.1009
41221W        W84133  31.189  24.512  25.775  0.2938 -0.0803 -0.3009
41222W        W84134  30.505  24.511  24.363  0.0872 -0.2155  0.1391
41223W        W84135  30.035  26.158  26.260  0.1850  0.0231 -0.2538
41224W        W84136  29.675  23.480  24.820  0.4160  0.0348 -0.1166
41225W        W84137  30.126  25.101  25.397  0.3203  0.1383  0.1853
41226W        W84138  30.179  23.989  27.326  0.0207 -0.1280 -0.0397
41227W        W84139  31.253  25.895  27.285 -0.0250 -0.3017 -0.0287
41228W        W84140  30.824  21.773  26.582  0.1917 -0.0261 -0.1939
41229W        W84141  30.385  23.266  25.569 -0.2876  0.0834 -0.1142
41230W        W84142  31.733  23.794  23.722  0.0809 -0.0105 -0.3667
41231W        W84143  31.958  23.439  25.657 -0.0674 -0.0943  0.3655
41232W        W84144  30.558  22.551  27.802 -0.0722 -0.0501  0.1932
41233W        W84145  28.883  23.042  25.585  0.2242 -0.1212  0.1354
41234W        W84146  30.987  22.102  27.073 -0.1494 -0.0014  0.0892
41235W        W84147  32.515  25.264  24.889 -0.2607  0.2177  0.4071
41236W        W84148  31.135  22.880  27.235  0.1181  0.1036  0.0201
41237W        W84149  31.275  24.284  23.545 -0.1026  0.0193 -0.2799
41238W        W84150  29.691  23.062  26.898  0.1906 -0.2779  0.0952
41239W        W84151  29.907  24.905  26.342  0.0569  0.0508 -0.0530
41240W        W84152  30.754  22.152  27.496 -0.1178 -0.0452 -0.0497
41241W        W84153  30.166  24.884  26.737  0.0010  0.1917  0.1845
41242W        W84154  29.696  25.325  25.217 -0.1991  0.1179  0.0194
41243W        W84155  30.143  24.439  26.518 -0.1884  0.0486 -0.0122
41244W        W84156  32.531  21.727  24.357 -0.1044  0.2500 -0.1081
41245W        W84157  32.950  26.487  24.307  0.1602 -0.3449  0.0610
41246W        W84158  30.936  22.142  24.712 -0.0088  0.4375  0.3060
41247W        W84159  33.415  23.461  27.706  0.1275  0.1365 -0.1221
41248W        W84160  32.655  23.097  23.972 -0.1198  0.1739  0.2058
41249W        W84161  32.012  23.854  27.354  0.2734 -0.2191  0.1694
41250W        W84162  30.566  20.473  27.427  0.0169 -0.1816 -0.0033
41251W        W84163  32.028  24.892  25.069 -0.3735  0.2951 -0.1526
41252W        W84164  28.018  22.142  27.099  0.2182 -0.0264 -0.0231
41253W        W84165  32.908  25.957  28.166 -0.3596 -0.2629 -0.1580
41254W        W84166  29.993  22.724  26.604 -0.5220  0.1328 -0.4294
41255W        W84167  30.915  22.740  24.711  0.3433 -0.0919  0.1682
41256W        W84168  30.278  19.893  24.475 -0.1081  0.0449  0.2117
41257W        W84169  30.601  24.300  26.528  0.0939 -0.0447  0.3186
41258W        W84170  31.423  23.820  27.497  0.1235  0.1027  0.1430
41259W        W84171  30.809  25.134  23.587 -0.1564 -0.0270 -0.0707
41260W        W84172  32.987  23.130  26.825  0.0053  0.3295 -0.1557
41261W        W84173  30.070  24.730  25.014 -0.3374 -0.4288 -0.0952
41262W        W84174  31.679  23.363  25.178 -0.0291 -0.1079  0.2346
41263W        W84175  31.397  24.634  23.955  0.4736  0.1017 -0.0729
41264W        W84176  31.256  24.326  24.660 -0.0455 -0.0801 -0.1078
41265W        W84177  29.875  22.463  27.419  0.0643 -0.1533 -0.2490
41266W        W84178  32.260  24.921  26.402 -0.1187  0.1657 -0.2627
41267W        W84179  32.261  23.309  26.124  0.3111  0.2196 -0.1386
41268W        W84180  30.233  22.174  27.526  0.1387  0.2168 -0.2331
41269W        W84181  32.823  23.392  27.194 -0.1073  0.3899  0.2826
41270W        W84182  30.763  23.906  26.874  0.3018 -0.2682 -0.1733
41271W        W84183  29.852  22.063  27.160  0.0148  0.0664  0.0012
41272W        W84184  31.550  26.107  26.928  0.1537  0.1414  0.1019
41273W        W84185  33.463  23.272  24.721 -0.3075 -0.0000 -0.1924
41274W        W84186  34.284  23.492  26.288  0.1442 -0.1103 -0.0208
41275W        W84187  32.485  23.736  24.166 -0.0996 -0.0405 -0.1056
41276W        W84188  32.054  22.718  23.505  0.3386 -0.0895  0.0518
41277W        W84189  30.515  22.652  26.663 -0.0891 -0.1150  0.1674
41278W        W84190  31.771  23.582  26.935 -0.3446 -0.3954  0.1482
41279W        W84191  30.400  22.682  24.265  0.0804  0.2043  0.0937
41280W        W84192  31.005  23.339  28.939  0.2056  0.0450 -0.1909
41281W        W84193  29.632  24.438  23.915  0.1867  0.3259 -0.2614
41282W        W84194  31.033  25.441  24.938 -0.0558 -0.2749  0.0116
41283W        W84195  31.488  22.872  24.586 -0.2699 -0.0766 -0.0259
41284W        W84196  28.326  22.123  26.146 -0.3180  0.0380  0.0124
41285W        W84197  28.987  24.723  25.967  0.1475 -0.0730  0.1714
41286W        W84198  30.591  21.717  24.737 -0.1638 -0.2325  0.1343
41287W        W84199  30.423  24.736  23.672  0.1289  0.2084  0.1940
41288W        W84200  30.121  25.867  27.078  0.1831 -0.1564  0.1207
41289W        W84201  31.546  23.876  28.497  0.0761 -0.0924  0.0847
41290W        W84202  32.335  21.817  23.847 -0.2782  0.0001 -0.1302
41291W        W84203  32.666  21.950  26.257 -0.3782  0.1428 -0.2197
41292W        W84204  30.029  24.227  25.100  0.3173  0.2116 -0.0165
41293W        W84205  30.458  21.994  27.022 -0.1540 -0.3818  0.0509
41294W        W84206  31.354  25.058  26.251 -0.0421 -0.1072  0.1311
41295W        W84207  28.875  24.063  26.902 -0.6732 -0.0507  0.0929
41296W        W84208  29.622  26.851  25.657 -0.4253 -0.0036  0.0233
41297W        W84209  29.569  23.126  27.754 -0.0445  0.0144  0.4378
41298W        W84210  32.594  23.531  24.834 -0.0728 -0.1820  0.1950
41299W        W84211  30.431  24.485  25.986  0.1294  0.1354  0.1918
41300W        W84212  32.374  24.206  27.003 -0.2099 -0.1265  0.1643
41301W        W84213  30.887  24.251  26.050  0.1192  0.0729  0.0286
41302W        W84214  30.892  24.850  26.116  0.4173  0.0525 -0.0241
41303W        W84215  30.642  25.864  26.884  0.0463  0.1375  0.3306
41304W        W84216  31.956  23.922  25.377  0.0128 -0.1095 -0.3816
41305W        W84217  30.458  24.405  24.891  0.0549  0.0850 -0.2586
41306W        W84218  28.944  23.134  27.021 -0.3293  0.1391 -0.1257
41307W        W84219  32.375  24.907  27.093  0.0224 -0.0727  0.0110
41308W        W84220  32.153  24.726  23.296  0.1553 -0.0771 -0.0280
41309W        W84221  30.363  20.973  24.933  0.1501  0.1784  0.1915
41310W        W84222  32.361  24.845  22.805  0.0882 -0.2185 -0.0573
41311W        W84223  29.762  24.953  28.250  0.1555 -0.0343  0.2061
41312W        W84224  28.417  22.630  26.284  0.0358 -0.0253 -0.0271
41313W        W84225  29.843  23.896  24.625  0.2801 -0.1747  0.1241
41314W        W84226  32.449  26.613  24.261 -0.2197 -0.1901  0.1206
41315W        W84227  31.724  25.390  24.286 -0.0941 -0.2831  0.1819
41316W        W84228  30.870  26.560  26.579 -0.1124 -0.0236 -0.0922
41317W        W84229  30.254  24.518  25.504 -0.2220  0.2331 -0.1083
41318W        W84230  30.453  25.347  26.020  0.0303  0.0164 -0.1890
41319W        W84231  29.525  24.417  24.459 -0.1321  0.5339 -0.1616
41320W        W84232  30.749  25.397  25.418 -0.2959 -0.0863  0.1677
41321W        W84233  30.328  25.374  24.396 -0.1669 -0.0258 -0.0769
41322W        W84234  31.640  24.060  26.419  0.0306  0.1667  0.0541
41323W        W84235  32.929  22.219  22.804 -0.4761 -0.1574 -0.0702
41324W        W84236  33.342  24.216  24.926  0.0385  0.2105  0.2324
41325W        W84237  34.282  21.460  23.920 -0.2506 -0.0634 -0.0442
41326W        W84238  31.464  24.995  27.905 -0.0611 -0.0326  0.1329
41327W        W84239  31.139  22.845  25.884  0.1514 -0.4230  0.0893
41328W        W84240  32.084  22.038  23.436  0.3031  0.2978  0.0769
41329W        W84241  30.766  24.122  27.415 -0.0572 -0.1599 -0.0912
41330W        W84242  31.937  23.106  27.051  0.1296  0.1161 -0.1782
41331W        W84243  27.818  25.102  27.751 -0.0824 -0.1153 -0.0757
41332W        W84244  32.118  26.576  25.057  0.1353  0.2602 -0.0842
41333W        W84245  29.441  21.820  25.434 -0.1807 -0.1189  0.0901
41334W        W84246  29.768  23.911  24.096  0.0242 -0.1354 -0.0830
41335W        W84247  33.513  21.266  26.604  0.0776 -0.0350 -0.0200
41336W        W84248  29.962  24.921  23.779  0.0888  0.1193  0.0338
41337W        W84249  30.729  22.648  25.150  0.2649  0.0830 -0.3060
41338W        W84250  30.424  24.819  26.321  0.1610 -0.0267  0.3091
41339W        W84251  30.032  23.638  26.458 -0.2122 -0.1431 -0.2437
41340W        W84252  31.036  24.454  25.146 -0.1483  0.0847 -0.3297
41341W        W84253  30.771  23.139  24.982  0.3360  0.0357  0.2693
41342W        W84254  31.524  23.726  25.506  0.1752  0.1218  0.2405
41343W        W84255  30.703  22.375  26.203  0.0545 -0.1160 -0.1389
41344W        W84256  31.080  23.219  26.302  0.0272 -0.1176 -0.2163
41345W        W84257  29.208  23.389  25.708  0.0378  0.1121 -0.2009
41346W        W84258  32.509  22.833  26.156 -0.1316  0.0836 -0.2344
41347W        W84259  30.304  25.850  25.884  0.2390  0.0289  0.1163
41348W        W84260  30.058  21.638  26.967 -0.0525 -0.2741  0.1369
41349W        W84261  32.674  23.839  23.544 -0.1369  0.2692  0.2666
41350W        W84262  32.557  24.788  27.531 -0.2685  0.0854  0.4938
41351W        W84263  32.586  23.132  23.406  0.1390  0.0914  0.0237
41352W        W84264  29.461  26.118  27.823  0.1780  0.0611 -0.0572
41353W        W84265  30.264  22.431  25.887 -0.1067  0.0757  0.1048
41354W        W84266  32.959  21.795  25.887  0.1319  0.3648 -0.0657
41355W        W84267  30.538  23.800  25.802  0.0013  0.1495  0.0106
41356W        W84268  30.558  23.827  26.335  0.1488 -0.1901 -0.2308
41357W        W84269  30.726  25.329  27.123  0.2875 -0.2332 -0.1238
41358W        W84270  29.885  20.940  26.238 -0.0209  0.1261 -0.0785
41359W        W84271  32.129  25.720  24.178  0.0404 -0.0264 -0.1497
41360W        W84272  32.898  22.814  25.810 -0.0954 -0.0542 -0.0809
41361W        W84273  31.168  25.674  22.933 -0.0703  0.1405  0.1118
41362W        W84274  31.947  24.526  26.400  0.0773 -0.1936 -0.1609
41363W        W84275  31.315  25.067  25.706  0.0588 -0.3504 -0.2600
41364W        W84276  27.822  22.616  27.082  0.1339 -0.2256  0.0855
41365W        W84277  31.783  25.397  26.591 -0.1665  0.1607  0.1200
41366W        W84278  32.321  25.713  25.141  0.1815  0.3043  0.0659
41367W        W84279  31.332  22.426  24.835 -0.1892  0.2148 -0.0807
41368W        W84280  30.216  22.844  26.181  0.0919 -0.0296  0.1858
41369W        W84281  30.382  24.013  24.343 -0.1356 -0.2111 -0.2599
41370W        W84282  32.562  23.333  26.666  0.2451 -0.0212 -0.3436
41371W        W84283  31.407  22.659  26.812  0.1451  0.0197 -0.3502
41372W        W84284  31.968  25.184  23.357 -0.0055 -0.2196 -0.1954
41373W        W84285  32.936  22.669  27.169 -0.2023  0.0493 -0.0965
41374W        W84286  30.272  26.569  27.238 -0.1463 -0.2827  0.0534
41375W        W84287  29.688  24.607  27.886  0.0682 -0.1854  0.0635
41376W        W84288  29.717  24.393  25.418 -0.1574 -0.0705 -0.1511
41377W        W84289  31.254  24.357  27.484  0.3857  0.0364  0.1927
41378W        W84290  31.052  23.850  23.692 -0.3226  0.2625  0.0288
41379W        W84291  31.221  26.760  25.216 -0.2811  0.1829 -0.2376
41380W        W84292  30.931  24.627  24.555  0.0173  0.1037 -0.1431
41381W        W84293  30.241  23.978  26.794 -0.2678  0.2789 -0.3676
41382W        W84294  32.282  25.247  25.356  0.0052  0.2506 -0.0127
41383W        W84295  31.086  23.839  24.396  0.0059 -0.1600 -0.1362
41384W        W84296  31.175  22.604  25.466  0.1208  0.4730  0.0440
41385W        W84297  32.649  22.995  25.266 -0.0318 -0.0139  0.2266
41386W        W84298  30.282  23.176  26.574  0.3741  0.3310  0.0474
41387W        W84299  28.854  23.362  24.029 -0.2920  0.2551  0.2702
41388W        W84300  29.425  23.438  23.337  0.4086 -0.0052 -0.4109
41389W        W84301  30.192  24.035  26.132 -0.3209  0.0306 -0.1386
41390W        W84302  30.831  21.242  25.730 -0.1364  0.3033 -0.2344
41391W        W84303  29.987  22.772  27.936  0.1024  0.0733  0.2998
41392W        W84304  29.630  24.872  25.347 -0.0298 -0.0498 -0.5052
41393W        W84305  29.778  22.624  25.997  0.0557 -0.2534  0.0506
41394W        W84306  31.912  25.409  25.037  0.0828 -0.0834 -0.1427
41395W        W84307  30.235  20.485  25.838 -0.1915 -0.0237 -0.1896
41396W        W84308  29.088  22.100  25.193  0.1087  0.1780  0.1280
41397W        W84309  32.391  23.956  25.111 -0.3336  0.3365  0.0377
41398W        W84310  31.491  24.785  25.316 -0.2956 -0.2780 -0.2806
41399W        W84311  31.237  22.312  26.101 -0.2629  0.1152  0.0846
41400W        W84312  32.552  26.411  27.879 -0.1015 -0.1862  0.0241
41401W        W84313  28.844  23.834  24.166 -0.0962  0.0184 -0.0298
41402W        W84314  31.402  23.271  26.997 -0.1042 -0.2633  0.4354
41403W        W84315  31.479  21.143  26.956  0.0866  0.0539  0.2674
41404W        W84316  30.127  23.025  24.475  0.1341  0.1333  0.3942
41405W        W84317  30.953  22.949  26.765  0.4252  0.1677 -0.0410
41406W        W84318  31.038  24.920  25.354 -0.2012  0.0531 -0.5088
41407W        W84319  31.338  26.420  23.366  0.0395 -0.1645  0.0745
41408W        W84320  30.274  25.360  26.840 -0.2819  0.2909 -0.1751
41409W        W84321  30.126  26.658  28.705 -0.0918  0.0053  0.1750
41410W        W84322  29.716  22.007  28.292 -0.1885  0.4217  0.1237
41411W        W84323  33.333  23.255  25.774  0.1007  0.1468 -0.0071
41412W        W84324  30.702  24.865  26.872 -0.3646 -0.0721  0.2013
41413W        W84325  32.301  23.993  24.600  0.0122  0.1643  0.0440
41414W        W84326  32.621  22.348  25.196  0.2640 -0.1537 -0.1937
41415W        W84327  33.821  23.699  26.414 -0.0005  0.3639  0.3559
41416W        W84328  30.100  22.703  28.420  0.1185 -0.0824 -0.1228
41417W        W84329  29.824  23.493  27.483  0.0146 -0.0130 -0.2794
41418W        W84330  31.687  24.053  27.874  0.2560  0.1954  0.0464
41419W        W84331  29.957  22.246  25.565 -0.1163  0.0249  0.0626
41420W        W84332  31.465  22.042  24.619 -0.1207  0.0051  0.1877
41421W        W84333  32.384  26.021  23.842  0.0123  0.0614 -0.0812
41422W        W84334  29.655  23.618  26.970 -0.1528 -0.3152 -0.1152
41423W        W84335  33.143  23.393  25.131  0.3041  0.1368  0.5072
41424W        W84336  30.669  22.718  25.740 -0.7083 -0.4371  0.1208
41425W        W84337  31.600  26.879  26.284 -0.1416 -0.1808  0.1128
41426W        W84338  30.984  25.387  25.990 -0.2152  0.1667 -0.0085
41427W        W84339  30.431  23.687  22.995  0.2269 -0.1701  0.0365
41428W        W84340  32.491  25.002  24.097 -0.0699 -0.1028 -0.0306
41429W        W84341  30.366  26.264  26.824  0.0714  0.1340 -0.2698
41430W        W84342  32.789  24.361  27.234 -0.2783 -0.2550  0.1158
41431W        W84343  30.843  26.782  24.862 -0.1549  0.0441  0.2306
41432W        W84344  31.927  24.041  26.863 -0.1953  0.2867 -0.0475
41433W        W84345  29.861  21.146  26.900  0.0070  0.3930  0.0813
41434W        W84346  30.511  23.968  25.363  0.2696 -0.2348  0.1364
41435W        W84347  31.195  24.969  24.916 -0.3139 -0.3829 -0.0087
41436W        W84348  30.347  23.568  27.031  0.0839  0.0069 -0.1434
41437W        W84349  30.985  23.956  25.605  0.3191 -0.0605 -0.3449
41438W        W84350  30.405  22.013  25.616  0.0186 -0.2784  0.1163
41439W        W84351  28.729  25.951  27.365 -0.0416 -0.2379 -0.1439
41440W        W84352  30.234  24.917  25.892 -0.3325 -0.2399 -0.0236
41441W        W84353  29.476  26.035  29.589 -0.0600 -0.0240  0.0746
41442W        W84354  29.848  22.077  26.660  0.2641 -0.2555  0.0101
41443W        W84355  30.718  22.599  27.254  0.0540 -0.1236 -0.1828
41444W        W84356  31.909  24.977  30.004 -0.1622 -0.2706  0.1426
41445W        W84357  28.740  23.252  28.245  0.2074  0.2751  0.0901
41446W        W84358  30.994  25.840  28.031 -0.0109  0.1034  0.1651
41447W        W84359  28.887  21.623  31.574 -0.0406  0.0054  0.0454
41448W        W84360  31.362  25.234  30.008 -0.0530 -0.2998  0.0088
41449W        W84361  32.732  25.195  30.950 -0.1583  0.2003  0.0227
41450W        W84362  31.459  24.689  27.193  0.1014  0.3746  0.4264
41451W        W84363  29.135  20.898  29.192  0.2407  0.0043  0.1748
41452W        W84364  30.585  22.779  30.356 -0.2433  0.0922 -0.0151
41453W        W84365  30.292  21.252  27.244 -0.0352 -0.0482 -0.0528
41454W        W84366  28.379  22.289  30.502 -0.0378 -0.1105  0.2061
41455W        W84367  31.846  24.625  29.606 -0.2323 -0.1741 -0.1171
41456W        W84368  30.205  24.111  29.283 -0.1390  0.0487  0.2217
41457W        W84369  30.239  22.440  29.805  0.0577  0.0465  0.0005
41458W        W84370  30.161  22.883  28.877 -0.0374  0.1392  0.2177
41459W        W84371  30.880  24.481  28.679  0.2313  0.0673 -0.0692
41460W        W84372  29.980  23.912  29.685  0.1399 -0.1559  0.0836
41461W        W84373  30.256  23.405  31.722 -0.1572 -0.0233 -0.2595
41462W        W84374  30.293  23.279  27.451 -0.2392 -0.2909  0.0388
41463W        W84375  29.356  23.374  26.235  0.1589  0.1021  0.0101
41464W        W84376  29.084  23.525  30.157 -0.0923  0.1670  0.2874
41465W        W84377  30.642  24.992  29.068  0.2786  0.2468  0.2624
41466W        W84378  30.666  21.671  31.409 -0.1869 -0.2210  0.3119
41467W        W84379  32.718  23.979  29.745 -0.1622 -0.0589  0.1024
41468W        W84380  31.451  24.562  30.557 -0.0853  0.2833 -0.0409
41469W        W84381  30.785  25.527  28.874 -0.0184 -0.1232  0.1574
41470W        W84382  31.493  23.843  31.750  0.0609 -0.1816  0.2010
41471W        W84383  28.921  24.470  28.792 -0.2602 -0.0191 -0.2094
41472W        W84384  27.906  25.716  27.680  0.0509  0.0888  0.0165
41473W        W84385  30.856  23.920  28.578  0.1066 -0.0462  0.0237
41474W        W84386  33.497  24.317  28.678 -0.2356 -0.1396  0.0130
41475W        W84387  31.301  25.364  30.850  0.0341 -0.2115 -0.3571
41476W        W84388  31.068  24.713  29.973  0.2150  0.0074 -0.0152
41477W        W84389  29.477  25.746  26.745 -0.1318  0.0586 -0.0603
41478W        W84390  31.889  24.814  30.850 -0.0408 -0.0836  0.3183
41479W        W84391  31.558  22.517  31.609  0.0871  0.0557 -0.2283
41480W        W84392  31.843  22.464  30.082 -0.3029  0.1621  0.0309
41481W        W84393  30.782  23.759  29.151 -0.2460  0.2278  0.0826
41482W        W84394  30.529  26.838  27.887  0.0361 -0.3101 -0.1748
41483W        W84395  30.712  23.951  28.101 -0.0770  0.1788 -0.0353
41484W        W84396  30.901  23.609   0.091  0.1501  0.1081  0.6141
41485W        W84397  29.221  25.008  29.558 -0.3163  0.0197  0.2953
41486W        W84398  32.538  23.432  31.651  0.1844  0.1237 -0.2829
41487W        W84399  30.212  24.727  27.742 -0.4054  0.1879 -0.0333
41488W        W84400  32.139  23.288  28.004 -0.1737 -0.1591  0.1213
41489W        W84401  30.521  23.680  27.654 -0.0091  0.1766  0.0260
41490W        W84402  31.864  22.299  28.279  0.1744 -0.3335  0.3669
41491W        W84403  30.448  21.188  30.981 -0.0207  0.0095  0.2022
41492W        W84404  29.231  25.728  30.338 -0.1757  0.0944  0.3168
41493W        W84405  29.825  22.173  29.518 -0.2810  0.2947 -0.1638
41494W        W84406  32.621  23.734  30.724 -0.0243 -0.0673 -0.2305
41495W        W84407  30.872  23.279  29.485 -0.0236  0.0746 -0.2529
41496W        W84408  31.331  22.664  30.916  0.2441  0.2255 -0.1422
41497W        W84409  31.076  23.498  30.548  0.1630 -0.0919  0.3174
41498W        W84410  29.838  22.785  29.741 -0.1776 -0.1348  0.1117
41499W        W84411  31.625  24.383  28.316  0.1696  0.1096 -0.1630
41500W        W84412  33.309  24.879  29.584 -0.2426  0.1944  0.2814
41501W        W84413  30.861  25.058  28.612 -0.1080 -0.1948  0.1318
41502W        W84414  30.392  22.940  29.425  0.0317 -0.1844 -0.1921
41503W        W84415  29.531  24.126  31.460 -0.0597  0.0392 -0.1533
41504W        W84416  30.185  22.017  30.590  0.1782 -0.4608 -0.4366
41505W        W84417  30.786  21.737  28.283  0.3537 -0.2337  0.1278
41506W        W84418  32.229  24.595  31.153 -0.2775  0.3474 -0.3142
41507W        W84419  29.557  25.000  31.276 -0.2480 -0.0087  0.0248
41508W        W84420  34.109  22.424  28.663  0.1708  0.0634 -0.0708
41509W        W84421  30.501  22.987  28.082 -0.0458  0.1039 -0.1258
41510W        W84422  30.983  25.074  30.317 -0.0830 -0.1489 -0.0013
41511W        W84423  31.845  24.859  28.187 -0.0852 -0.2792 -0.1065
41512W        W84424  32.729  23.393  30.273  0.1108 -0.0356 -0.0663
41513W        W84425  32.083  21.574  29.372  0.2915 -0.0456 -0.1140
41514W        W84426  29.804  24.299  29.129 -0.0273 -0.1134 -0.2193
41515W        W84427  30.637  22.573  28.310 -0.0953  0.1856 -0.0660
41516W        W84428  32.261  26.104  29.941  0.2478 -0.0611 -0.0561
41517W        W84429  30.562  24.532  29.338  0.0815  0.2971 -0.0246
41518W        W84430  30.114  24.631  30.887 -0.1217 -0.2703 -0.2654
41519W        W84431  31.361  23.105  31.315 -0.3274 -0.1404 -0.0745
41520W        W84432  30.923  24.927  30.878  0.1020 -0.0622  0.4858
41521W        W84433  29.429  24.753  26.131 -0.0089 -0.0004  0.0444
41522W        W84434  29.396  23.027  31.003  0.0837 -0.1166 -0.1194
41523W        W84435  30.911  25.237  27.569 -0.0331  0.1233  0.0798
41524W        W84436  28.921  22.008  31.198 -0.0153  0.2943  0.1160
41525W        W84437  30.357  24.559  29.913 -0.0988 -0.1841 -0.1282
41526W        W84438  31.999  22.754  28.405  0.0327 -0.3107  0.1388
41527W        W84439  31.807  22.414  30.889  0.2065  0.1640 -0.0946
41528W        W84440  32.695  22.228  29.833  0.0305 -0.1958 -0.0178
41529W        W84441  30.053  23.938  28.862 -0.0916 -0.0219  0.2347
41530W        W84442  32.782  26.256  29.529 -0.0702  0.2538  0.0134
41531W        W84443  32.554  21.951  29.461 -0.0378  0.2461 -0.1164
41532W        W84444  32.050  25.986  28.524 -0.0839  0.1539  0.0483
41533W        W84445  29.571  24.608  29.416  0.1801 -0.0459  0.2938
41534W        W84446  31.118  23.962  27.827  0.1658 -0.0054 -0.2333
41535W        W84447  31.491  22.361  30.517  0.0622 -0.0090  0.2971
41536W        W84448  28.506  22.509  27.860 -0.3055 -0.0758 -0.2220
41537W        W84449  30.446  24.980  30.670 -0.1357  0.0852 -0.1811
41538W        W84450  30.469  23.257  29.032 -0.1693  0.4989 -0.2871
41539W        W84451  32.036  23.776  28.643 -0.1279 -0.1480 -0.0815
41540W        W84452  31.225  21.977  29.292  0.1009  0.1374  0.1059
41541W        W84453  28.672  23.606  29.309  0.0778 -0.2991 -0.0692
41542W        W84454  32.808  22.609  31.467 -0.2301  0.2225  0.0992
41543W        W84455  30.399  25.478  29.219 -0.2709  0.0364 -0.1255
41544W        W84456  30.932  24.858  29.495 -0.0018  0.2248 -0.0686
41545W        W84457  30.751  26.253  28.212  0.0813 -0.0511 -0.1484
41546W        W84458  30.081  22.194   0.822 -0.2457 -0.0293  0.1933
41547W        W84459  28.985  22.596  28.345  0.1279 -0.0176 -0.0848
41548W        W84460  28.720  24.969  29.863  0.0999 -0.1047 -0.1624
41549W        W84461  30.794  23.877  30.174  0.2042 -0.1626  0.2155
41550W        W84462  30.531  22.133  28.082  0.1890  0.0464  0.3247
41551W        W84463  33.010  25.395  30.331  0.2609  0.0320 -0.2055
41552W        W84464  31.294  24.769  28.309 -0.2012  0.0915 -0.0886
41553W        W84465  30.173  24.788  30.326 -0.0111 -0.1093  0.1817
41554W        W84466  31.278  21.760  29.752  0.0295  0.0915  0.0101
41555W        W84467  31.867  23.731  29.183  0.2058  0.0722 -0.1377
41556W        W84468  32.344  24.030  29.064 -0.0921 -0.1354 -0.0266
41557W        W84469  29.753  21.682  28.706  0.0879 -0.2191 -0.0469
41558W        W84470  31.254  26.479  27.314  0.1514  0.6408 -0.0496
41559W        W84471  29.024  25.616  27.631 -0.0419  0.1495 -0.1242
41560W        W84472  29.784  24.496  29.990 -0.0327  0.0913 -0.1843
41561W        W84473  30.302  25.078  28.211  0.1105  0.2206  0.0462
41562W        W84474  31.980  22.125  30.483 -0.2484  0.2622  0.0401
41563W        W84475  29.384  22.244   0.194 -0.1938 -0.2696  0.2903
41564W        W84476  31.093  22.431   0.011  0.0303  0.1750 -0.3250
41565W        W84477  29.871  22.932  29.254  0.2360 -0.0663 -0.0355
41566W        W84478  31.132  24.295  30.254  0.1842  0.0618 -0.2145
41567W        W84479  32.254  22.294  28.709 -0.0271 -0.1918  0.4198
41568W        W84480  32.808  22.663  29.534 -0.1118 -0.0908 -0.2584
41569W        W84481  30.289  25.150  28.781 -0.2580  0.0525  0.0448
41570W        W84482  30.821  25.700  27.481  0.1616 -0.1085  0.0118
41571W        W84483  30.792  23.079  27.600  0.1096  0.0456  0.0935
41572W        W84484  31.422  23.029  28.472 -0.0010 -0.1217 -0.0797
41573W        W84485  29.417  23.917  31.060  0.1041 -0.1921 -0.0896
41574W        W84486  29.562  24.134  29.503 -0.1865 -0.0712  0.0302
41575W        W84487  29.757  23.757  29.219 -0.1756  0.0097 -0.1780
41576W        W84488  30.459  23.663  28.780 -0.0287  0.1976 -0.2247
41577W        W84489  32.840  25.567  29.050  0.1127 -0.1276  0.0597
41578W        W84490  29.881  23.684  31.318  0.2896  0.1689  0.0688
41579W        W84491  31.633  24.455  31.139  0.1477 -0.0338 -0.2133
41580W        W84492  31.792  25.325  27.866 -0.0443  0.0839 -0.0960
41581W        W84493  30.273  21.868  31.182  0.0307 -0.0862 -0.0238
41582W        W84494  30.985  23.635  27.379 -0.1004 -0.0329  0.0131
41583W        W84495  31.858  22.919  29.823 -0.1977  0.1888  0.0233
41584W        W84496  29.451  25.223  26.369  0.0727 -0.0786  0.3190
41585W        W84497  32.552  22.452  31.084  0.2544  0.1135 -0.0174
41586W        W84498  30.527  23.012  30.833  0.0518  0.1328 -0.2762
41587W        W84499  31.409  21.432  30.811 -0.2410 -0.0178  0.1577
41588W        W84500  33.307  23.408  29.925  0.0341  0.2524  0.0136
41589W        W84501  32.219  23.408  29.070  0.3743 -0.0161 -0.0633
41590W        W84502  31.361  23.275  29.837 -0.0730 -0.0160 -0.1054
41591W        W84503  29.679  23.601  27.955  0.0860 -0.1652  0.1113
41592W        W84504  34.023  22.389  30.534 -0.3631 -0.1748  0.0085
41593W        W84505  28.883  23.081  29.962  0.3052  0.2225 -0.0643
41594W        W84506  30.621  23.705  30.684  0.0619  0.0117 -0.4268
41595W        W84507  31.664  23.545  31.273 -0.0548  0.0000 -0.0936
41596W        W84508  31.110  25.551  28.515 -0.1029  0.0035 -0.3972
41597W        W84509  31.650  23.294  31.793 -0.0848  0.2104 -0.1583
41598W        W84510  31.823  21.979  28.751 -0.0237 -0.4050  0.0720
41599W        W84511  30.402  25.064  29.503  0.1433  0.3158 -0.0635
41600W        W84512  29.624  25.740  26.254 -0.0617  0.1349  0.1226
41601W        W84513  29.398  22.698  30.090 -0.1222  0.1879 -0.1633
41602W        W84514  31.117  24.815  28.989  0.2369 -0.3232  0.0022
41603W        W84515  30.210  24.072  27.779 -0.0574 -0.1480 -0.0704
41604W        W84516  32.007  23.857  30.677  0.0380  0.1618 -0.0054
41605W        W84517  29.313  24.969  28.004 -0.0872 -0.2105 -0.1324
41606W        W84518  31.731  22.119  29.514  0.0703 -0.1935 -0.2302
41607W        W84519  29.109  25.506  29.755  0.1810  0.0958 -0.3305
41608W        W84520  30.113  23.271  27.959  0.1459  0.2119  0.0050
41609W        W84521  29.516  23.979  28.823  0.0560  0.0124  0.3419
41610W        W84522  31.480  23.692  29.544  0.1563  0.0024 -0.1410
41611W        W84523  32.473  25.075  28.392 -0.1516  0.4006  0.0175
41612W        W84524  29.951  23.510  30.002  0.1117  0.0809 -0.1309
41613W        W84525  31.757  23.242  30.275 -0.0505 -0.2173  0.3623
41614W        W84526  28.671  25.087  30.596  0.3972 -0.2731  0.0753
41615W        W84527  31.338  23.312  29.281 -0.2311 -0.1142  0.1867
41616W        W84528  31.584  22.635  27.291  0.0148  0.2305 -0.3314
41617W        W84529  31.829  25.096  29.187 -0.0081  0.0925 -0.0561
41618W        W84530  30.446  21.201  30.267  0.1744 -0.4542 -0.0757
41619W        W84531  29.060  23.163  29.076  0.0765  0.0091  0.0035
41620W        W84532  32.590  23.451  29.756 -0.0418 -0.0143  0.0895
41621W        W84533  30.241  23.207  28.514 -0.4485  0.1040  0.0075
41622W        W84534  29.077  24.079  28.542 -0.1166  0.0603 -0.4606
41623W        W84535  30.819  25.708  29.385  0.1610 -0.0958  0.0236
41624W        W84536  30.178  24.558  28.179 -0.1701  0.1572 -0.2210
41625W        W84537  29.365  25.358  29.095 -0.3224  0.2635 -0.0735
41626W        W84538  29.782  22.037  30.985  0.2145 -0.0021  0.2383
41627W        W84539  31.942  24.566  30.364 -0.0618  0.0068  0.1259
41628W        W84540  30.159  22.421  29.217 -0.1975 -0.1173 -0.0859
41629W        W84541  29.989  21.673  29.525 -0.2355 -0.2020 -0.0888
41630W        W84542  30.999  24.369  29.139  0.0587  0.1201 -0.1326
41631W        W84543  32.490  25.106  30.049  0.1019  0.1905  0.3982
41632W        W84544  31.080  22.958  30.515 -0.4910  0.0751 -0.0073
41633W        W84545  30.646  24.584  30.303 -0.0270  0.0516 -0.0484
41634W        W84546  30.148  21.342  31.452 -0.0354  0.3512 -0.0686
41635W        W84547  34.076  25.200  28.482 -0.0035  0.0193 -0.1154
41636W        W84548  30.403  23.410  29.805 -0.1362  0.1556 -0.0582
41637W        W84549  29.943  24.447  28.616 -0.2225 -0.2151  0.3127
41638W        W84550  29.545  23.960  30.001 -0.0868 -0.1394  0.3570
41639W        W84551  29.673  24.011  27.261 -0.0000 -0.2871 -0.1331
41640W        W84552  31.025  22.765  29.375 -0.2595 -0.4417  0.1527
41641W        W84553  28.825  25.941  30.390 -0.0592  0.1466 -0.2022
41642W        W84554  29.810  24.867  27.128 -0.0631 -0.3731 -0.0533
41643W        W84555  29.994  24.377  30.395 -0.2577  0.2675 -0.0932
41644W        W84556  33.066  21.797  27.173  0.3226  0.0595 -0.0111
41645W        W84557  31.205  25.019  26.936 -0.1826 -0.1191  0.3967
41646W        W84558  30.647  22.446  29.384 -0.2473 -0.5172 -0.3572
41647W        W84559  34.626  24.716   0.111  0.0232  0.0901  0.2888
41648W        W84560  31.364  24.284  28.760 -0.2275  0.1842 -0.1280
41649W        W84561  32.815  22.532  30.429 -0.0554  0.2770  0.0780
41650W        W84562  29.538  21.253  30.587 -0.0650  0.0601 -0.0895
41651W        W84563  31.319  25.519  29.583 -0.1557  0.0896 -0.0948
41652W        W84564  28.986  23.046  31.325  0.1275 -0.1421  0.2327
41653W        W84565  30.631  24.238  30.674 -0.2066 -0.1589 -0.0198
41654W        W84566  30.051  22.972  30.635  0.0275  0.0133 -0.1076
41655W        W84567  31.081  22.618  28.535  0.1212 -0.0497 -0.0661
41656W        W84568  29.172  21.856  29.450  0.0419  0.0116  0.1206
41657W        W84569  30.557  24.165  28.930 -0.1641  0.1561  0.5020
41658W        W84570  32.460  25.529  31.231 -0.1858 -0.0364  0.1323
41659W        W84571  31.950  24.805  27.570 -0.1158  0.1680  0.2902
41660W        W84572  31.295  23.772  28.957 -0.2457 -0.0594  0.1002
41661W        W84573  29.603  23.020  28.830  0.1562 -0.0591 -0.1021
41662W        W84574  31.342  22.915  28.982  0.0831 -0.1265 -0.1497
41663W        W84575  30.591  23.478  28.313  0.0728 -0.2764  0.0669
41664W        W84576  29.501  23.293  29.249  0.2241 -0.1186  0.3134
41665W        W84577  31.031  22.649  31.398  0.2851  0.2039 -0.3027
41666W        W84578  32.172  25.411  29.408  0.0556 -0.1325  0.1227
41667W        W84579  30.911  21.579  31.009 -0.0074 -0.1299  0.1445
41668W        W84580  32.487  22.952  31.327  0.2209 -0.1721 -0.0540
41669W        W84581  30.599  22.837  29.872  0.2077 -0.0488 -0.0495
41670W        W84582  30.782  22.192  31.167 -0.2882  0.0095  0.2448
41671W        W84583  30.102  22.621  30.305 -0.0808  0.0506  0.0401
41672W        W84584  31.250  25.867  30.777  0.2109 -0.0012  0.0169
41673W        W84585  31.505  24.392  26.765 -0.0473 -0.0680 -0.1235
41674W        W84586  31.684  21.904  30.924 -0.0214 -0.1275  0.1012
41675W        W84587  31.382  25.229  28.848 -0.0251  0.0287  0.2515
41676W        W84588  31.896  22.984  27.508 -0.1596  0.0164 -0.1915
41677W        W84589  30.634  22.039  30.711  0.0103 -0.2526 -0.1936
41678W        W84590  32.230  23.409  30.485  0.0451 -0.1516  0.2465
41679W        W84591  30.223  22.436  27.030  0.1631  0.0387 -0.0559
41680W        W84592  33.388  23.935  31.265 -0.1540  0.2210 -0.0841
41681W        W84593  29.504  25.959  29.104  0.3130  0.1776 -0.2828
41682W        W84594  30.697  26.140  29.150  0.2148 -0.1007 -0.0090
41683W        W84595  31.469  22.538  29.594 -0.2946  0.2943  0.2048
41684W        W84596  29.982  23.343  29.541  0.0521  0.1504 -0.0310
41685W        W84597  30.717  26.029  30.011  0.3021  0.0350  0.0992
41686W        W84598  29.165  22.340  26.917 -0.0928  0.3676 -0.0981
41687W        W84599  30.443  24.200  28.439  0.0240  0.0257 -0.4139
41688W        W84600  31.567  24.648  29.172 -0.0206 -0.2070  0.1682
41689W        W84601  33.268  25.043  30.502 -0.1771  0.0435 -0.1815
41690W        W84602  31.442  21.676  28.138  0.0639  0.4419 -0.1006
41691W        W84603  33.807  23.379  30.127  0.4748 -0.2782 -0.0304
41692W        W84604  28.907  24.846  28.385 -0.4367 -0.2120 -0.1880
41693W        W84605  31.043  21.459  29.199 -0.1009  0.0250  0.4497
41694W        W84606  31.616  25.040  30.411 -0.1045  0.0533  0.0131
41695W        W84607  29.394  24.527  30.399  0.1912  0.2076 -0.2520
41696W        W84608  29.287  24.388  29.803 -0.4899 -0.3369  0.0105
41697W        W84609  31.695  21.238  31.347  0.0771 -0.2831 -0.0204
41698W        W84610  31.736  22.845  31.265 -0.2918 -0.0021 -0.2744
41699W        W84611  31.785  23.344  29.521  0.1455  0.2951 -0.0537
41700W        W84612  31.650  24.097  30.327 -0.1789  0.1721 -0.1719
41701W        W84613  31.866  24.858  31.432  0.1853  0.2325 -0.0500
41702W        W84614  29.858  23.592  28.532 -0.0160 -0.0899  0.0894
41703W        W84615  31.552  24.092  30.822  0.1843  0.3092  0.2162
41704W        W84616  32.825  24.720  29.844  0.1658  0.0668  0.0775
41705W        W84617  30.013  24.410  29.569 -0.1726 -0.0527  0.0911
41706W        W84618  28.171  23.633  30.478 -0.1697  0.1104  0.3503
41707W        W84619  31.939  23.982  31.182  0.2807 -0.3538  0.3027
41708W        W84620  30.769  23.257  30.133 -0.3586 -0.1015 -0.0946
41709W        W84621  30.700  21.173  28.983  0.3533 -0.1306 -0.0575
41710W        W84622  30.771  24.708  28.255 -0.2128  0.0717  0.0987
41711W        W84623  29.099  25.184  31.021  0.1428  0.0301 -0.0679
41712W        W84624  30.193  23.419  30.984  0.4004  0.0308 -0.2457
41713W        W84625  30.491  26.322  28.745  0.0347 -0.0760 -0.0221
41714W        W84626  30.254  22.788  27.498  0.1340  0.0030  0.2122
41715W        W84627  32.561  25.874  28.557  0.0145 -0.1944 -0.0437
41716W        W84628  31.711  26.957  31.179 -0.1896 -0.2357 -0.1478
41717W        W84629  31.092  23.481  28.447  0.2368  0.2115 -0.0747
41718W        W84630  30.866  25.963  28.621 -0.0803  0.2225 -0.2043
41719W        W84631  29.525  25.108  27.483  0.3044 -0.0308  0.0082
41720W        W84632  31.045  25.280  28.088 -0.0386 -0.2495 -0.3770
41721W        W84633  30.178  25.808  28.786 -0.0098 -0.0214  0.1042
41722W        W84634  31.539  26.280  29.888 -0.0475  0.0130 -0.0803
41723W        W84635  32.875  22.776  28.115 -0.1084  0.0206 -0.0947
41724W        W84636  31.233  24.399  29.588 -0.0635 -0.1175  0.0723
41725W        W84637  31.793  24.187  28.901 -0.2321 -0.2633 -0.0787
41726W        W84638  31.269  23.658  31.002  0.1289 -0.0655 -0.3225
41727W        W84639  30.135  21.741  29.013 -0.1994 -0.1494 -0.0743
41728W        W84640  31.350  22.876  27.682  0.0943 -0.1524 -0.5731
41729W        W84641  29.732  23.589  30.796 -0.1772  0.0144 -0.2551
41730W        W84642  33.412  21.339  31.383 -0.1761  0.1551 -0.2583
41731W        W84643  28.700  26.504  31.115  0.0553  0.1805  0.1681
41732W        W84644  33.253  25.483  27.625  0.0773 -0.2235 -0.1103
41733W        W84645  29.403  24.519  28.928 -0.1920 -0.0326 -0.0284
41734W        W84646  29.597  22.625  28.182  0.0872 -0.0132 -0.0169
41735W        W84647  33.191  22.314  30.630 -0.1432  0.1337  0.1386
41736W        W84648  31.385  23.870  26.968  0.1637 -0.1913 -0.2662
41737W        W84649  30.387  21.974  29.546  0.2057  0.2576  0.0010
41738W        W84650  29.815  25.493  28.911  0.1306  0.0290  0.0596
41739W        W84651  31.541  24.593  30.053  0.0057  0.2348  0.0651
41740W        W84652  31.044  23.945  29.705 -0.2356 -0.0887 -0.2991
41741W        W84653  29.018  22.767  27.894  0.0751  0.0506 -0.1093
41742W        W84654  31.824  23.604  28.206 -0.3791 -0.2713  0.0283
41743W        W84655  29.542  24.042  30.537  0.0167 -0.1059  0.1876
41744W        W84656  31.790  23.679  30.058  0.0033  0.1034 -0.0057
41745W        W84657  30.299  23.613  29.324 -0.0787 -0.2365  0.3771
41746W        W84658  31.613  23.343  28.852 -0.0696  0.6920 -0.0378
41747W        W84659  31.314  23.766  30.076 -0.2310 -0.1457  0.1103
41748W        W84660  29.157  23.011  30.338  0.0299 -0.1107  0.1519
41749W        W84661  30.060  22.289  28.013  0.3099 -0.2654 -0.0296
41750W        W84662  32.597  22.749  29.975  0.2342 -0.1541 -0.1273
41751W        W84663  30.928  23.503  27.907 -0.3945 -0.1897 -0.2182
41752W        W84664  30.483  24.806  31.138  0.2543  0.0863  0.1174
41753W        W84665  29.943  21.136  30.159 -0.1748  0.1723 -0.1173
41754W        W84666  30.689  22.796  29.023 -0.1987  0.0584 -0.2683
41755W        W84667  28.828  22.246  29.285 -0.1038 -0.0639  0.0007
41756W        W84668  30.440  23.966  29.724 -0.0728 -0.0405 -0.2946
41757W        W84669  32.072  25.310  31.636 -0.0395  0.0436 -0.3269
41758W        W84670  29.656  22.505  29.182  0.0599  0.1912  0.0374
41759W        W84671  32.773  25.232  27.459  0.0772  0.0085 -0.0115
41760W        W84672  34.022  22.892  30.382 -0.2568  0.0976  0.0156
41761W        W84673  30.288  25.013  27.233 -0.0986 -0.3044  0.0986
41762W        W84674  31.044  25.280  29.217  0.0558  0.0066 -0.3293
41763W        W84675  32.937  26.049  29.060  0.1932  0.1457 -0.0831
41764W        W84676  28.787  23.213  30.706 -0.2593  0.2814 -0.0042
41765W        W84677  33.104  24.223  29.621 -0.0157  0.1351  0.1219
41766W        W84678  31.690  25.787  29.883  0.2160  0.0581 -0.1025
41767W        W84679  31.953  21.808  28.253  0.1275 -0.1310  0.0902
41768W        W84680  29.073  23.346  29.568 -0.1757  0.1113  0.0985
41769W        W84681  29.695  24.953  28.885  0.4379  0.0630  0.2337
41770W        W84682  33.938  22.457  29.473  0.0776 -0.0056  0.1560
41771W        W84683  31.392  23.219  30.795  0.0608  0.1386 -0.0687
41772W        W84684  30.557  24.785  25.192 -0.0166  0.0014  0.3855
41773W        W84685  31.158  20.520  30.792  0.3571 -0.0317 -0.0501
41774W        W84686  30.216  25.948  29.300 -0.1968  0.0274 -0.2846
41775W        W84687  28.969  24.790   0.159 -0.1362  0.2176 -0.2005
41776W        W84688  28.623  25.098  28.809  0.0903  0.1190 -0.0448
41777W        W84689  31.658  24.148  29.807  0.2133  0.0096  0.0376
41778W        W84690  29.054  25.758  27.051 -0.2278 -0.2415  0.0152
41779W        W84691  29.954  24.944  29.890  0.1202  0.0109  0.1207
41780W        W84692  33.052  24.813  27.391  0.0048  0.0069  0.3226
41781W        W84693  31.001  22.289  28.113 -0.0501  0.0848  0.0866
41782W        W84694  31.640  24.759  28.685 -0.2147 -0.3039 -0.2440
41783W        W84695  28.704  21.789  29.527 -0.1631  0.2019  0.0484
41784W        W84696  33.428  21.281  30.270  0.2565 -0.0520 -0.0831
41785W        W84697  32.344  22.785  29.037  0.2060  0.2395 -0.1045
41786W        W84698  30.030  23.865  30.488  0.0224  0.0206 -0.0404
41787W        W84699  29.357  23.460  28.765 -0.2270  0.0671  0.2835
41788W        W84700  28.679  24.276  27.738  0.0026  0.1643  0.1917
41789W        W84701  29.105  23.904  29.704  0.2945  0.0574  0.0077
41790W        W84702  31.712  22.871  30.715  0.3387  0.0048  0.2350
41791W        W84703  30.246  22.473  30.758  0.3586  0.2852 -0.2166
41792W        W84704  29.217  23.458  30.720  0.0903  0.0289  0.0567
41793W        W84705  29.205  22.238  28.045  0.0261 -0.1371 -0.1630
41794W        W84706  31.709  26.439  28.425  0.1335 -0.2825  0.1315
41795W        W84707  29.602  21.513  30.125  0.0298  0.2091 -0.1215
41796W        W84708  29.566  21.820  29.757  0.1181  0.1073  0.0446
41797W        W84709  31.564  25.216  28.390  0.1382  0.0036 -0.0477
41798W        W84710  33.129  25.528  28.092 -0.1091  0.3235 -0.0461
41799W        W84711  30.716  22.021  29.127 -0.0703 -0.0944  0.0851
41800W        W84712  32.676  25.801  30.862 -0.3784  0.0485 -0.0687
41801W        W84713  29.724  23.097  28.330 -0.2563  0.0220 -0.0071
41802W        W84714  31.366  23.191   1.257  0.2188  0.0634  0.2490
41803W        W84715  31.105  21.798   0.652 -0.0361 -0.1760  0.1297
41804W        W84716  29.964  22.152  28.823 -0.1269 -0.1222  0.1114
41805W        W84717  31.448  22.715  30.096 -0.2731 -0.0784  0.0496
41806W        W84718  30.573  24.547  27.471 -0.1697 -0.4148 -0.0115
41807W        W84719  30.958  26.546  27.910  0.2439 -0.2255  0.0220
41808W        W84720  30.544  23.091  31.380 -0.0976 -0.3589  0.3293
41809W        W84721  31.411  26.131  31.856  0.0931 -0.2204 -0.2104
41810W        W84722  28.481  20.225  30.264  0.1473 -0.1407  0.2567
41811W        W84723  32.110  24.607  29.030  0.1201  0.1632  0.0990
41812W        W84724  28.930  23.470  31.126 -0.0715 -0.0311  0.2627
41813W        W84725  31.856  23.459  27.651  0.4229  0.0793  0.0442
41814W        W84726  31.532  22.101  30.049  0.1287  0.1457 -0.1307
41815W        W84727  30.741  23.023  28.536  0.1497  0.1151  0.2908
41816W        W84728  30.765  23.321   0.464 -0.0350  0.0931 -0.1069
41817W        W84729  29.579  23.082  30.572  0.0840 -0.1487 -0.0266
41818W        W84730  31.779  25.306  30.900 -0.0233  0.0982  0.0269
41819W        W84731  29.620  20.748  29.482  0.0008 -0.1526  0.0379
41820W        W84732  32.278  23.818  27.843 -0.0605  0.1415  0.1691
41821W        W84733  30.900  25.263  26.469 -0.1643  0.0820  0.0951
41822W        W84734  28.505  23.589  30.904 -0.0739 -0.3196 -0.3060
41823W        W84735  31.575  22.537  28.774  0.3835  0.0184  0.2825
41824W        W84736  29.595  23.588  30.334  0.0993 -0.0524 -0.3281
41825W        W84737  30.636  25.444  28.434  0.3913  0.1331 -0.1556
41826W        W84738  32.521  25.354  31.800  0.0712 -0.1348 -0.2076
41827W        W84739  32.048  24.107  28.227  0.3054  0.0869  0.0594
41828W        W84740  32.831  25.085  27.891  0.2443  0.1999 -0.0735
41829W        W84741  30.905  25.272  29.717 -0.0808 -0.1325  0.0007
41830W        W84742  33.290  25.667   0.241  0.4025  0.0030 -0.3779
41831W        W84743  31.002  22.999  31.028  0.0064 -0.1079 -0.1230
41832W        W84744  32.797  24.204  29.183  0.2628  0.1958  0.1772
41833W        W84745  30.036  21.550  30.399  0.2935  0.0767 -0.0971
41834W        W84746  30.094  24.738  29.171 -0.0864  0.1641 -0.0013
41835W        W84747  31.154  24.223  28.219 -0.0432  0.2233 -0.0447
41836W        W84748  32.357  22.384  30.192  0.2211  0.1757  0.2889
41837W        W84749  30.961  21.966  30.084  0.0333 -0.1444 -0.1968
41838W        W84750  31.661  23.091  28.050 -0.0568 -0.0628  0.1972
41839W        W84751  30.800  23.424  31.046  0.0935  0.1715 -0.1204
41840W        W84752  31.285  25.555  27.675 -0.3483 -0.1505 -0.3642
41841W        W84753  32.973  23.140  31.495  0.0496 -0.1465 -0.0656
41842W        W84754  32.484  23.256  30.950  0.1362  0.1398  0.0626
41843W        W84755  29.890  23.651  31.953 -0.1318 -0.0801 -0.0543
41844W        W84756  29.414  23.712  31.765  0.0276  0.2430  0.0941
41845W        W84757  29.958  24.948  31.638  0.0116 -0.2797 -0.3710
41846W        W84758  30.392  23.705  31.363  0.2572  0.1484  0.3320
41847W        W84759  33.210  23.514  30.434 -0.1025 -0.0939 -0.1361
41848W        W84760  31.160  21.910  30.762  0.2135 -0.1373 -0.2054
41849W        W84761  32.885  22.825  31.024 -0.2861  0.1415 -0.0703
41850W        W84762  31.110  25.569  30.315 -0.0930  0.0084  0.1976
41851W        W84763  31.634  24.734   0.035 -0.0500  0.4704  0.1284
41852W        W84764  29.651  20.749  30.438 -0.2668  0.1147  0.1385
41853W        W84765  32.598  26.146  31.512 -0.1245  0.0652 -0.2025
41854W        W84766  31.293  23.832   0.238  0.2323  0.0092  0.0283
41855W        W84767  33.179  25.496  30.883 -0.1999  0.0472  0.0907
41856W        W84768  29.900  25.387   0.125  0.2541 -0.1710 -0.1732
41857W        W84769  30.359  24.066  30.210 -0.2997  0.0264 -0.3102
41858W        W84770  31.293  24.570  31.467  0.2052 -0.1490 -0.1282
41859W        W84771  32.046  23.236  31.419  0.1223  0.0230  0.0692
41860W        W84772  29.859  23.217  31.417  0.2452 -0.2009  0.0452
41861W        W84773  29.356  21.770  31.308 -0.2421  0.2301 -0.3279
41862W        W84774  28.841  24.465  31.554 -0.3833 -0.1121 -0.0820
41863W        W84775  32.941  23.456   0.977  0.0424  0.1662 -0.2853
41864W        W84776  32.263  24.776   0.709  0.0426 -0.1343 -0.2880
41865W        W84777  33.180  21.878  30.979  0.0841  0.2565  0.2071
41866W        W84778  31.311  22.185  31.178  0.2290 -0.2236 -0.1589
41867W        W84779  31.008  22.516  30.324  0.1221  0.2049 -0.1012
41868W        W84780  27.964  26.111   0.782  0.1709  0.0876 -0.1714
41869W        W84781  31.321  24.308   0.007  0.0777  0.2343 -0.2676
41870W        W84782  31.091  24.003  30.644  0.2692  0.2808  0.1706
41871W        W84783  29.838  24.579  31.310 -0.0946  0.2000  0.0740
41872W        W84784  29.852  23.149  31.918  0.1450  0.1839  0.0096
41873W        W84785  31.307  23.933   1.729  0.1016 -0.2555 -0.1522
41874W        W84786  32.523  20.570  31.412  0.1015 -0.3399 -0.1151
41875W        W84787  29.730  22.621  30.941  0.2106 -0.1454  0.1945
41876W        W84788  30.900  23.948  31.136  0.2398  0.2792 -0.3864
41877W        W84789  30.543  25.007  29.988 -0.0237 -0.2549  0.3308
41878W        W84790  31.556  24.208   0.430 -0.1968 -0.2886  0.2357
41879W        W84791  32.232  23.626  31.111  0.0811 -0.0460  0.4751
41880W        W84792  32.905  25.349   0.121 -0.1700  0.0608  0.1154
41881W        W84793  31.519  23.051   0.813  0.0523 -0.2830 -0.0086
41882W        W84794  30.628  24.367  31.679  0.0726  0.0533  0.0622
41883W        W84795  30.865  24.172   0.224  0.4404  0.0751  0.4038
41884W        W84796  31.401  24.865  31.008  0.2959  0.2297  0.0717
41885W        W84797  31.044  22.303  29.705  0.6856  0.3621 -0.3240
41886W        W84798  31.049  24.455  30.821 -0.0369 -0.0940  0.1027
41887W        W84799  31.522  22.036  31.836  0.0608 -0.1109 -0.1045
41888W        W84800  30.465  25.339  31.250 -0.1146 -0.1945  0.1113
41889W        W84801  32.185  25.110  31.130  0.2781  0.0622 -0.2849
41890W        W84802  29.075  25.462  31.605 -0.0217  0.1278  0.1744
41891W        W84803  31.742  25.463   0.557 -0.2797 -0.0794  0.3013
41892W        W84804  32.867  22.774   0.310  0.1170  0.1979  0.2167
41893W        W84805  30.426  22.199  31.519 -0.0796 -0.2428  0.0689
41894W        W84806  30.492  22.258  30.225 -0.1177 -0.1403 -0.0709
41895W        W84807  31.341  23.410   0.478  0.3772  0.1568 -0.1304
41896W        W84808  32.155  23.195  31.919  0.1016  0.3269  0.0323
41897W        W84809  32.957  23.869  31.681 -0.1257 -0.1429 -0.1364
41898W        W84810  30.123  25.419  30.792  0.0866  0.1152  0.0765
41899W        W84811  30.854  24.533  31.245 -0.1125 -0.1310 -0.1415
41900W        W84812  29.424  23.487  31.240  0.1144 -0.0119  0.2623
41901W        W84813  28.787  23.964  31.104 -0.1219 -0.0619 -0.2130
41902W        W84814  30.247  25.817  30.150  0.0174  0.1898 -0.0006
41903W        W84815  28.054  23.320  31.374  0.1016  0.1282  0.3362
41904W        W84816  30.535  21.715  30.215  0.0944  0.2808 -0.0738
41905W        W84817  31.379  25.795  31.243 -0.3081 -0.0996  0.0474
41906W        W84818  33.198  26.057   0.608  0.1618  0.1166  0.1563
41907W        W84819  33.854  23.437  31.720 -0.1577 -0.0874  0.1501
41908W        W84820  28.985  29.152  21.649 -0.0297  0.0804 -0.0799
41909W        W84821  29.614  26.497  17.426  0.0072  0.2180 -0.1039
41910W        W84822  31.487  25.793  17.912  0.1653  0.0499  0.3997
41911W        W84823  34.019  26.888  16.730  0.1050  0.0508 -0.1810
41912W        W84824  30.487  26.685  18.705 -0.1699  0.1032 -0.0863
41913W        W84825  31.096  28.200  16.727  0.0079 -0.1953  0.0771
41914W        W84826  30.167  24.283  19.570  0.0203  0.0249 -0.3533
41915W        W84827  31.416  28.876  19.828  0.2567  0.0172  0.0454
41916W        W84828  31.000  28.999  17.393  0.4203 -0.0436  0.4052
41917W        W84829  31.454  26.457  16.285  0.0476  0.3102  0.2130
41918W        W84830  30.094  26.309  18.831 -0.2404  0.0619  0.2348
41919W        W84831  30.718  28.103  20.849 -0.2136 -0.1683 -0.0076
41920W        W84832  30.025  25.748  16.582  0.1997 -0.0114 -0.0690
41921W        W84833  30.158  25.293  18.762  0.0405 -0.0796  0.0307
41922W        W84834  32.051  27.968  17.533 -0.0813 -0.0818 -0.5147
41923W        W84835  29.009  27.737  16.546 -0.0355  0.0948 -0.4617
41924W        W84836  30.756  25.942  18.334  0.1043  0.1059  0.0178
41925W        W84837  29.920  25.862  17.046 -0.2437  0.0826 -0.1166
41926W        W84838  30.803  28.565  17.157 -0.2125  0.2582  0.0680
41927W        W84839  29.914  26.145  19.283 -0.0203  0.0613 -0.0820
41928W        W84840  31.978  25.921  19.459  0.0989  0.0597  0.0071
41929W        W84841  30.653  28.137  16.572 -0.3332  0.0726  0.1435
41930W        W84842  29.644  26.643  16.248  0.2065  0.0825  0.2213
41931W        W84843  29.314  27.616  17.753  0.0388  0.0665 -0.2989
41932W        W84844  29.424  26.996  19.402  0.4813 -0.0670 -0.0331
41933W        W84845  31.538  26.615  18.429 -0.0963  0.3248  0.0642
41934W        W84846  32.405  28.328  18.851 -0.2462  0.0416 -0.1131
41935W        W84847  31.618  29.944  18.408  0.1355 -0.2035 -0.0521
41936W        W84848  31.264  29.622  18.104 -0.1981 -0.0805 -0.1496
41937W        W84849  30.816  25.902  20.128 -0.0344 -0.1709  0.2923
41938W        W84850  30.094  26.763  18.081  0.1208 -0.0055  0.0573
41939W        W84851  28.821  28.584  17.251  0.0714 -0.0428 -0.3890
41940W        W84852  30.312  27.724  16.965  0.3984  0.3100  0.1267
41941W        W84853  32.420  28.251  17.709 -0.0466 -0.2141 -0.3293
41942W        W84854  32.445  29.066  18.898 -0.0132  0.2132  0.0019
41943W        W84855  30.219  30.044  18.863  0.0785  0.2299 -0.0687
41944W        W84856  30.112  28.778  16.108  0.1933 -0.1697  0.1502
41945W        W84857  30.315  29.024  20.716  0.1645 -0.1390  0.1462
41946W        W84858  29.551  28.631  19.382  0.4503  0.2663  0.1325
41947W        W84859  31.129  26.284  19.953 -0.1294  0.1569 -0.0836
41948W        W84860  30.882  28.155  18.035 -0.0374 -0.2586 -0.1863
41949W        W84861  30.418  29.204  16.559  0.4265 -0.1061 -0.0121
41950W        W84862  30.916  26.899  16.511 -0.1705  0.1120 -0.0931
41951W        W84863  30.064  26.524  20.264 -0.1019  0.0287 -0.1346
41952W        W84864  29.225  28.725  18.325 -0.0525  0.2385 -0.0678
41953W        W84865  31.943  28.536  20.174  0.0492 -0.2062  0.0412
41954W        W84866  28.860  29.527  17.266 -0.0978 -0.1033  0.1952
41955W        W84867  32.444  26.479  16.331  0.1046  0.0765 -0.0233
41956W        W84868  30.131  26.412  16.040  0.1339  0.0855 -0.3937
41957W        W84869  31.138  26.869  17.647 -0.2568 -0.1455  0.1373
41958W        W84870  30.859  26.239  17.585  0.2276  0.0334 -0.0073
41959W        W84871  30.929  27.986  19.608 -0.1754  0.0337  0.1619
41960W        W84872  30.353  26.019  19.137  0.0305 -0.0091  0.0216
41961W        W84873  31.343  28.253  19.441 -0.1138  0.2112  0.3021
41962W        W84874  30.422  28.078  17.782  0.1508 -0.0563  0.3726
41963W        W84875  32.079  26.967  19.221 -0.1827 -0.0452  0.1629
41964W        W84876  28.843  28.221  18.980 -0.1074 -0.0647 -0.0408
41965W        W84877  30.868  26.066  17.081 -0.3186 -0.0564  0.0904
41966W        W84878  34.044  29.503  16.621  0.1202  0.0584  0.0944
41967W        W84879  31.459  29.304  17.571  0.0378  0.3585 -0.1074
41968W        W84880  31.436  27.867  16.296 -0.4277  0.0533 -0.2063
41969W        W84881  30.136  28.169  17.368 -0.1082  0.1529  0.2879
41970W        W84882  26.951  27.862  19.941  0.1292 -0.3789 -0.1365
41971W        W84883  30.309  26.970  19.105  0.1718 -0.1385  0.0385
41972W        W84884  30.942  26.424  16.780  0.0494  0.2968  0.1181
41973W        W84885  31.721  27.901  19.489  0.3150 -0.0569 -0.1500
41974W        W84886  29.541  29.963  19.165 -0.2608 -0.0037 -0.1203
41975W        W84887  32.039  27.126  17.219 -0.1464  0.0824  0.0926
41976W        W84888  30.860  28.483  19.537  0.0006  0.0039  0.2466
41977W        W84889  31.447  28.139  18.864  0.0092  0.2139  0.0843
41978W        W84890  30.964  27.839  16.328 -0.0124 -0.0427 -0.2267
41979W        W84891  31.428  24.786  17.887 -0.1878  0.0219  0.1982
41980W        W84892  31.753  24.896  19.850 -0.1768 -0.2470  0.0586
41981W        W84893  29.795  27.797  16.470 -0.0235  0.2400 -0.0114
41982W        W84894  30.463  27.669  16.454  0.1566  0.0986  0.1987
41983W        W84895  31.217  27.238  19.224 -0.0187 -0.0365 -0.0870
41984W        W84896  32.077  27.035  15.525  0.2561  0.1874  0.0546
41985W        W84897  29.227  26.980  17.635 -0.0174 -0.0485 -0.0901
41986W        W84898  30.758  25.620  19.233 -0.1114  0.2171 -0.2352
41987W        W84899  31.243  28.992  20.269  0.0497 -0.0235  0.0643
41988W        W84900  29.310  28.445  15.974 -0.1192  0.2882  0.1531
41989W        W84901  29.211  27.215  18.583  0.0149  0.0789 -0.1426
41990W        W84902  30.164  28.170  16.533  0.3415 -0.1217  0.1465
41991W        W84903  30.600  24.912  18.631 -0.2017 -0.0015 -0.1293
41992W        W84904  30.909  28.289  19.095  0.3405  0.0986  0.0382
41993W        W84905  32.369  26.627  15.757 -0.2781  0.0752 -0.0721
41994W        W84906  30.468  26.063  17.922  0.3061  0.2968 -0.0608
41995W        W84907  32.231  25.764  18.594  0.0603  0.2272  0.0061
41996W        W84908  29.087  28.155  17.485  0.0584 -0.2218 -0.0599
41997W        W84909  31.989  28.530  17.730  0.0231 -0.0531 -0.0463
41998W        W84910  32.057  26.902  16.135  0.0201  0.1472 -0.0373
41999W        W84911  31.899  28.737  16.521 -0.2372 -0.3656 -0.0234
42000W        W84912  30.044  25.640  19.138 -0.0176  0.2701  0.0955
42001W        W84913  30.474  28.407  18.194 -0.0842 -0.0096  0.4839
42002W        W84914  29.445  26.114  19.331  0.0561 -0.0667 -0.0490
42003W        W84915  29.456  25.519  18.459  0.0742 -0.0036  0.0799
42004W        W84916  32.896  26.734  19.774 -0.0228 -0.1543  0.0958
42005W        W84917  28.757  25.528  16.318  0.0608  0.4356  0.0661
42006W        W84918  31.401  26.191  17.133  0.1693 -0.0020 -0.1617
42007W        W84919  30.666  27.159  18.773  0.1715 -0.1795  0.0229
42008W        W84920  28.635  28.069  16.462 -0.2384 -0.4707  0.1005
42009W        W84921  31.506  26.517  19.574  0.1468 -0.1201  0.2556
42010W        W84922  31.368  29.750  17.270  0.3135  0.1835  0.1335
42011W        W84923  32.097  28.732  19.691 -0.2277  0.1155 -0.0084
42012W        W84924  31.390  28.128  17.649 -0.1952  0.2284 -0.0697
42013W        W84925  29.430  26.920  18.938  0.0897 -0.1867  0.0262
42014W        W84926  29.391  26.976  16.608 -0.2696  0.0650 -0.2703
42015W        W84927  28.892  28.632  17.763  0.1464  0.4765 -0.0149
42016W        W84928  30.509  27.956  18.371  0.1461 -0.4064 -0.3191
42017W        W84929  29.675  27.633  18.303  0.1465 -0.4582  0.5619
42018W        W84930  32.389  30.155  17.495  0.1755 -0.0263 -0.0441
42019W        W84931  30.788  27.553  18.431  0.0029  0.0741 -0.1046
42020W        W84932  30.538  27.167  19.713 -0.0621  0.0049  0.2778
42021W        W84933  30.631  26.758  17.820  0.2762 -0.0736 -0.0648
42022W        W84934  31.909  27.078  18.453  0.0884 -0.0422  0.0716
42023W        W84935  31.391  27.022  17.253  0.0149 -0.1049  0.1065
42024W        W84936  29.596  26.497  16.714 -0.0760 -0.4414 -0.0543
42025W        W84937  31.497  28.552  17.892 -0.0601 -0.2740 -0.2966
42026W        W84938  29.295  29.088  17.964 -0.0405  0.0341  0.2792
42027W        W84939  28.211  26.406  16.387 -0.1782 -0.0070  0.4325
42028W        W84940  30.454  29.258  18.953 -0.2779  0.0714  0.1339
42029W        W84941  32.081  26.198  18.417  0.0886  0.0861  0.0217
42030W        W84942  29.407  27.791  19.987 -0.0736 -0.1494 -0.3865
42031W        W84943  31.573  26.230  18.757  0.1474 -0.2787  0.0760
42032W        W84944  30.006  27.349  16.638 -0.0417  0.1131  0.0746
42033W        W84945  29.003  27.965  20.456  0.0691  0.2823  0.2416
42034W        W84946  30.053  26.989  15.968 -0.1140 -0.4382 -0.0623
42035W        W84947  31.606  25.745  17.391  0.0153 -0.0006 -0.1071
42036W        W84948  30.801  27.491  19.414 -0.2721  0.0027  0.0946
42037W        W84949  31.829  27.813  16.577  0.1981  0.0219 -0.0617
42038W        W84950  31.373  26.948  16.269 -0.0449  0.1183  0.1072
42039W        W84951  32.000  25.607  16.700  0.0070  0.2703 -0.2443
42040W        W84952  29.282  29.148  20.014  0.0613 -0.5538 -0.0360
42041W        W84953  30.266  28.669  17.265  0.2814  0.2376  0.0460
42042W        W84954  30.204  27.947  18.828 -0.0683  0.1709 -0.0570
42043W        W84955  32.848  26.659  15.896 -0.0025  0.0692 -0.1571
42044W        W84956  33.729  27.971  16.734 -0.0453  0.0352  0.1569
42045W        W84957  28.912  28.334  18.215 -0.0116  0.0854 -0.0798
42046W        W84958  30.799  29.069  19.874  0.1273  0.2008  0.1168
42047W        W84959  32.090  27.682  18.111  0.3424 -0.0428 -0.0470
42048W        W84960  29.713  25.043  19.440 -0.3188 -0.2599 -0.1185
42049W        W84961  30.538  27.676  17.394  0.4136 -0.2660 -0.1748
42050W        W84962  31.095  27.485  18.818 -0.1845 -0.0357 -0.0484
42051W        W84963  28.621  27.691  16.932 -0.1598 -0.1173  0.0540
42052W        W84964  31.924  26.618  18.776  0.0672 -0.4360 -0.1089
42053W        W84965  31.629  27.356  18.191  0.1548  0.2395  0.0141
42054W        W84966  31.497  26.628  19.068  0.3639  0.0739  0.0504
42055W        W84967  32.243  27.431  19.191  0.0518 -0.0295  0.3136
42056W        W84968  32.630  26.990  16.167 -0.2269 -0.0971 -0.1582
42057W        W84969  31.133  27.191  18.149 -0.0364 -0.4059 -0.0748
42058W        W84970  30.644  27.614  15.992  0.0084  0.0542  0.0339
42059W        W84971  31.065  26.437  18.588 -0.1580 -0.0529  0.1440
42060W        W84972  28.287  28.143  17.029  0.0323 -0.1236  0.2949
42061W        W84973  29.342  27.704  18.644  0.3408  0.1249 -0.3277
42062W        W84974  32.750  27.308  18.868  0.1677 -0.0945  0.1729
42063W        W84975  32.391  27.730  16.746 -0.0431 -0.1201 -0.2116
42064W        W84976  31.769  27.380  19.410 -0.2921 -0.0934  0.1914
42065W        W84977  30.620  26.025  16.475  0.0646  0.0571 -0.2678
42066W        W84978  30.938  29.515  16.497 -0.3294  0.0171  0.0409
42067W        W84979  30.915  26.899  17.012 -0.0399 -0.3051 -0.0366
42068W        W84980  30.416  25.225  19.144  0.0688  0.4276  0.2511
42069W        W84981  29.729  28.110  18.672  0.0889 -0.1781 -0.0323
42070W        W84982  30.452  28.691  16.542  0.0035  0.1419  0.1587
42071W        W84983  30.594  26.599  19.799  0.5360  0.0839 -0.0639
42072W        W84984  29.827  28.068  16.890  0.1133  0.2185 -0.0299
42073W        W84985  31.534  24.847  18.564 -0.1698  0.0308 -0.1374
42074W        W84986  29.268  28.280  18.539 -0.0048 -0.2036 -0.0546
42075W        W84987  31.295  27.412  17.651 -0.1418  0.1744 -0.2202
42076W        W84988  29.317  27.412  15.435  0.0557 -0.0176 -0.2417
42077W        W84989  32.453  25.469  17.920  0.1130  0.0543 -0.0047
42078W        W84990  33.691  28.550  16.268 -0.0940 -0.3093 -0.2235
42079W        W84991  27.570  26.085  18.165  0.0879  0.1678  0.0187
42080W        W84992  30.087  25.817  17.584 -0.1810  0.1978  0.1402
42081W        W84993  29.169  29.010  19.490  0.0538 -0.0033 -0.0609
42082W        W84994  31.205  27.835  19.174 -0.2171  0.0045  0.1924
42083W        W84995  31.696  26.133  16.668  0.1678  0.2827 -0.2451
42084W        W84996  30.979  29.398  20.307 -0.1591 -0.1545  0.0368
42085W        W84997  31.322  27.020  18.620  0.0297 -0.0437 -0.2357
42086W        W84998  29.402  26.848  17.074 -0.0195 -0.1894  0.2075
42087W        W84999  33.373  27.848  17.374  0.1295 -0.2823 -0.0731
42088W        W85000  29.100  25.292  18.154  0.0195  0.0335  0.4337
42089W        W85001  29.937  28.453  17.805  0.1631 -0.2277  0.2765
42090W        W85002  31.608  29.765  19.884  0.1368  0.0815  0.1075
42091W        W85003  30.193  27.186  17.742  0.1308 -0.0404  0.1299
42092W        W85004  29.694  28.835  18.137 -0.1324  0.3384  0.0664
42093W        W85005  30.054  25.836  19.617 -0.2902 -0.1738 -0.2664
42094W        W85006  32.102  28.203  19.703 -0.1811  0.1004 -0.0839
42095W        W85007  30.826  26.349  18.102  0.0479 -0.1713 -0.2517
42096W        W85008  29.475  26.770  18.495 -0.2376  0.0424  0.0063
42097W        W85009  28.969  26.753  18.678 -0.2285  0.1996  0.1370
42098W        W85010  30.299  27.534  18.131 -0.0854 -0.1926 -0.2119
42099W        W85011  30.369  27.766  19.588 -0.1339 -0.0060  0.0195
42100W        W85012  29.759  27.501  20.254  0.0163 -0.1608  0.0563
42101W        W85013  32.379  26.179  19.290  0.0098 -0.1003  0.0139
42102W        W85014  32.715  28.514  16.241 -0.3018 -0.0619 -0.5865
42103W        W85015  31.000  26.762  18.936 -0.2075 -0.3048  0.0306
42104W        W85016  30.274  27.229  17.224 -0.0779 -0.1648 -0.0939
42105W        W85017  27.877  27.141  17.309 -0.3747 -0.0335  0.0684
42106W        W85018  31.573  27.788  18.513  0.2354 -0.1391 -0.0552
42107W        W85019  32.272  27.004  18.808 -0.0479 -0.1484  0.1032
42108W        W85020  29.919  27.835  19.345  0.0002  0.0778 -0.2236
42109W        W85021  30.574  28.323  18.712 -0.1643  0.0419  0.0324
42110W        W85022  28.213  28.384  19.401  0.2662 -0.2807  0.0178
42111W        W85023  33.407  27.545  16.919  0.1089  0.1096  0.1265
42112W        W85024  32.980  26.720  18.103 -0.2528 -0.2264  0.1184
42113W        W85025  30.105  27.321  19.586  0.2069 -0.0259  0.1998
42114W        W85026  33.897  26.504  18.624  0.0967 -0.2312  0.0966
42115W        W85027  31.314  27.158  16.752 -0.1147 -0.2676 -0.1112
42116W        W85028  31.319  25.524  19.743 -0.0573  0.0182  0.2628
42117W        W85029  30.141  27.262  20.074 -0.0598  0.2229  0.1859
42118W        W85030  32.080  29.661  17.616  0.0007  0.1997  0.2192
42119W        W85031  29.141  26.530  19.139 -0.0042  0.3093 -0.1035
42120W        W85032  31.565  28.798  18.406  0.2856 -0.1245  0.0954
42121W        W85033  28.827  27.889  18.556 -0.1775  0.2900  0.0652
42122W        W85034  32.045  26.776  17.688  0.1223 -0.2735 -0.1007
42123W        W85035  30.550  26.677  17.256  0.1693  0.1006  0.0346
42124W        W85036  30.834  26.848  18.432  0.0335  0.5391 -0.1639
42125W        W85037  31.212  27.668  18.126 -0.0268  0.2357  0.2611
42126W        W85038  30.644  28.900  18.594 -0.3233  0.0998 -0.0058
42127W        W85039  32.182  27.274  16.523  0.3284  0.0152  0.3412
42128W        W85040  31.052  28.545  18.680  0.2309 -0.2624  0.1930
42129W        W85041  32.642  27.012  17.097  0.2139 -0.1574  0.2648
42130W        W85042  31.781  27.478  16.967 -0.1610  0.2936 -0.1570
42131W        W85043  29.789  27.416  17.892  0.0763  0.1259  0.1727
42132W        W85044  29.932  26.759  18.809  0.0459  0.0002 -0.0781
42133W        W85045  32.235  28.080  18.405  0.0895 -0.0549 -0.0867
42134W        W85046  31.916  26.827  19.815 -0.0999  0.0426 -0.0657
42135W        W85047  31.712  25.736  18.940 -0.1712 -0.0699  0.0022
42136W        W85048  31.208  26.507  20.481  0.1561 -0.2725  0.2446
42137W        W85049  29.672  26.837  17.818 -0.1634 -0.2344 -0.1688
42138W        W85050  29.595  25.377  18.977  0.0638 -0.0413  0.0137
42139W        W85051  31.955  28.299  19.256 -0.0417 -0.2288  0.0384
42140W        W85052  32.952  26.227  16.329  0.2081  0.0063 -0.0770
42141W        W85053  32.832  26.834  18.849  0.1245 -0.1412 -0.0927
42142W        W85054  34.295  25.659  17.555 -0.1909  0.0404  0.1009
42143W        W85055  31.619  27.127  15.850  0.1723  0.0640  0.3413
42144W        W85056  30.374  26.440  18.330 -0.1763  0.0405  0.1740
42145W        W85057  31.859  26.843  20.275  0.0031 -0.0235 -0.1930
42146W        W85058  31.098  25.787  15.682 -0.3488  0.1194  0.0126
42147W        W85059  31.736  26.567  20.645  0.0088  0.1517  0.2421
42148W        W85060  31.366  27.656  16.784 -0.2266 -0.5372  0.0107
42149W        W85061  30.994  27.394  17.140 -0.3581  0.1164 -0.1445
42150W        W85062  32.109  26.665  18.259 -0.3466 -0.2405  0.1991
42151W        W85063  28.611  26.126  17.498 -0.3148 -0.3023 -0.4504
42152W        W85064  30.156  29.043  19.818 -0.0552 -0.0118 -0.2114
42153W        W85065  29.453  26.241  15.989 -0.1638 -0.0862  0.2780
42154W        W85066  31.270  26.537  17.993  0.2137 -0.1117  0.0687
42155W        W85067  30.509  28.789  19.512 -0.0117 -0.0323 -0.1559
42156W        W85068  32.190  28.757  19.209  0.0723 -0.2727  0.2136
42157W        W85069  30.690  26.169  15.963 -0.0423  0.3009  0.1359
42158W        W85070  31.127  26.277  19.088  0.1509 -0.0132 -0.1522
42159W        W85071  29.654  28.630  18.718 -0.2062 -0.1917  0.2588
42160W        W85072  30.784  25.345  18.505  0.2251  0.1999 -0.2575
42161W        W85073  28.792  29.162  17.922 -0.2926 -0.0221 -0.2447
42162W        W85074  27.812  28.688  18.914 -0.0405  0.2321  0.0977
42163W        W85075  31.003  28.557  17.580  0.1342  0.1379  0.0917
42164W        W85076  31.509  25.305  18.107  0.0580 -0.0092 -0.0967
42165W        W85077  32.364  26.781  19.991 -0.0826  0.1589 -0.0746
42166W        W85078  30.675  27.740  18.979 -0.3215  0.3842  0.0619
42167W        W85079  33.009  28.732  19.495  0.0265  0.0888 -0.1947
42168W        W85080  31.790  28.293  18.530 -0.1537 -0.3043  0.1221
42169W        W85081  28.899  27.758  19.248 -0.1494 -0.1893  0.3637
42170W        W85082  30.801  28.961  20.650 -0.1214 -0.1853 -0.2139
42171W        W85083  33.155  27.230  17.955  0.2555 -0.4703  0.0113
42172W        W85084  29.213  29.582  17.675  0.2356 -0.1556 -0.2134
42173W        W85085  28.888  26.348  20.372 -0.2126  0.0832  0.1130
42174W        W85086  31.361  28.003  19.822  0.1216 -0.0453  0.1239
42175W        W85087  31.222  27.848  17.267  0.1042 -0.3276 -0.1511
42176W        W85088  30.892  25.232  17.389 -0.3751  0.4608  0.0805
42177W        W85089  31.872  27.929  15.984 -0.0311  0.0091 -0.1815
42178W        W85090  29.137  30.002  20.514 -0.3923 -0.0217  0.0502
42179W        W85091  29.258  27.424  19.105  0.0663  0.0108 -0.1340
42180W        W85092  29.093  29.082  17.529 -0.1202  0.2397 -0.2324
42181W        W85093  33.274  27.309  15.919 -0.0854 -0.0395 -0.3307
42182W        W85094  31.627  28.001  17.048 -0.1195 -0.0531 -0.2109
42183W        W85095  30.529  28.571  17.715 -0.1836 -0.1814  0.1456
42184W        W85096  30.011  26.267  16.533  0.0861  0.1237 -0.0956
42185W        W85097  30.374  28.277  19.207 -0.0263 -0.0861  0.0240
42186W        W85098  29.239  28.063  16.871  0.0018 -0.1025 -0.2029
42187W        W85099  32.209  27.841  16.270 -0.1005  0.0331  0.0955
42188W        W85100  30.110  28.448  18.624  0.2876  0.0402  0.1204
42189W        W85101  31.639  28.585  18.993  0.3171  0.0474  0.0789
42190W        W85102  33.141  26.881  16.237 -0.0267 -0.2183 -0.1861
42191W        W85103  32.791  26.683  16.632 -0.0827  0.1282 -0.0572
42192W        W85104  32.414  27.173  17.609  0.2534 -0.1465  0.0053
42193W        W85105  30.446  29.915  20.683  0.0035 -0.1856  0.0611
42194W        W85106  28.542  26.923  18.764  0.1110  0.1157  0.0292
42195W        W85107  31.240  26.285  15.854 -0.1249  0.2361 -0.0950
42196W        W85108  30.320  27.451  19.147 -0.0816  0.0259 -0.2272
42197W        W85109  32.542  25.817  19.650 -0.2911  0.0590  0.1299
42198W        W85110  29.249  29.027  18.975  0.1599  0.1017  0.1502
42199W        W85111  32.463  28.565  16.754  0.1217  0.0484 -0.0128
42200W        W85112  29.706  27.218  16.243 -0.1839  0.2283  0.0131
42201W        W85113  31.590  26.897  17.966  0.0146  0.0070  0.0267
42202W        W85114  32.607  25.000  17.706  0.1563  0.0902  0.0915
42203W        W85115  34.325  25.857  16.542  0.0141 -0.0702  0.0877
42204W        W85116  31.801  26.300  18.026 -0.2303 -0.2455  0.2053
42205W        W85117  29.729  29.626  16.313 -0.3609  0.0543  0.0845
42206W        W85118  30.243  27.065  18.413 -0.2953  0.0289 -0.0313
42207W        W85119  30.934  27.612  20.044 -0.1369 -0.0738  0.0500
42208W        W85120  30.416  26.455  16.731 -0.2437  0.2652 -0.0107
42209W        W85121  32.536  25.404  18.481 -0.0920  0.0259  0.0698
42210W        W85122  29.226  27.949  18.181 -0.0486  0.4230 -0.1483
42211W        W85123  32.556  26.031  18.825 -0.1429 -0.1323  0.3040
42212W        W85124  30.135  26.706  17.536 -0.1019 -0.2745 -0.0879
42213W        W85125  31.087  26.537  17.254  0.4125 -0.1747  0.3620
42214W        W85126  30.768  26.997  19.351 -0.2973  0.0664 -0.1811
42215W        W85127  29.194  25.763  18.986 -0.1196 -0.0271  0.1835
42216W        W85128  33.269  26.773  17.247  0.2048  0.1066 -0.2142
42217W        W85129  31.771  26.962  16.732  0.1790  0.1189 -0.1927
42218W        W85130  29.930  26.883  16.930  0.2121  0.0959  0.3108
42219W        W85131  32.588  29.790  18.384  0.1894 -0.1030  0.2191
42220W        W85132  31.299  26.099  18.257 -0.3029  0.0730  0.2726
42221W        W85133  32.395  26.501  18.863  0.1528 -0.3034  0.0158
42222W        W85134  30.787  27.678  17.897 -0.1093 -0.2683  0.0734
42223W        W85135  29.472  27.939  19.040  0.0869  0.1268 -0.2196
42224W        W85136  32.056  29.258  18.436  0.0671  0.0360  0.1566
42225W        W85137  30.366  25.970  16.939  0.2167 -0.0859  0.1140
42226W        W85138  33.380  28.725  16.592 -0.0961  0.1629  0.0525
42227W        W85139  32.620  26.846  18.393  0.1816  0.2467  0.0311
42228W        W85140  31.742  29.286  16.735 -0.2689 -0.0979  0.0478
42229W        W85141  32.310  27.631  17.213  0.3464  0.0420 -0.2108
42230W        W85142  30.475  29.124  17.380 -0.1292  0.1750 -0.2101
42231W        W85143  29.567  26.357  18.902  0.0841  0.1430  0.1616
42232W        W85144  32.602  28.499  18.089  0.0432 -0.0207  0.0349
42233W        W85145  32.858  28.226  18.592  0.1932  0.0426 -0.0305
42234W        W85146  30.417  26.942  16.814 -0.0768  0.2699 -0.1748
42235W        W85147  30.605  27.198  18.052  0.1233 -0.0460 -0.0123
42236W        W85148  30.122  28.960  16.898 -0.1607 -0.3189 -0.0193
42237W        W85149  31.998  26.478  19.258  0.0001 -0.1086 -0.2141
42238W        W85150  32.290  27.476  20.743 -0.1500  0.0739  0.0346
42239W        W85151  31.024  29.968  17.693  0.0206  0.3733  0.1560
42240W        W85152  32.262  27.143  19.653  0.0493  0.0669 -0.0965
42241W        W85153  30.818  29.623  19.564  0.3476  0.0914 -0.2599
42242W        W85154  28.272  28.185  20.299  0.0581  0.0548 -0.0318
42243W        W85155  30.808  27.328  16.682  0.1630 -0.0131 -0.1402
42244W        W85156  32.094  27.499  18.669  0.0432  0.0867 -0.1381
42245W        W85157  30.743  29.698  18.053  0.2125  0.1185 -0.2249
42246W        W85158  30.989  29.464  17.062  0.1708 -0.4992  0.1857
42247W        W85159  32.964  28.814  18.283 -0.0396  0.3862  0.4426
42248W        W85160  31.583  26.641  17.488 -0.0362 -0.0548  0.1015
42249W        W85161  31.731  28.384  17.349  0.0650  0.1737  0.2104
42250W        W85162  32.585  25.890  18.249 -0.0275 -0.2374 -0.1357
42251W        W85163  32.543  26.367  18.411 -0.0079  0.1110  0.0947
42252W        W85164  31.710  25.805  18.416 -0.3035 -0.6247  0.0995
42253W        W85165  29.985  28.970  20.374  0.1125 -0.6141 -0.0357
42254W        W85166  29.071  26.503  16.921 -0.2809 -0.0259  0.0463
42255W        W85167  29.933  29.184  16.378  0.0142  0.3441 -0.1514
42256W        W85168  28.911  27.528  18.190  0.0029 -0.3584  0.0720
42257W        W85169  30.123  25.354  19.586 -0.2685  0.2173  0.0030
42258W        W85170  29.653  26.719  20.120  0.4480  0.1055 -0.1874
42259W        W85171  28.666  27.325  16.513  0.3620 -0.0334 -0.1176
42260W        W85172  30.041  27.708  17.524  0.2785  0.1231 -0.0361
42261W        W85173  32.132  28.374  16.267 -0.0658 -0.1401 -0.1992
42262W        W85174  30.373  26.251  17.429  0.1853 -0.2509  0.2809
42263W        W85175  29.130  26.744  18.151 -0.0450 -0.0094  0.0009
42264W        W85176  31.830  27.265  17.703  0.2938  0.1227 -0.1719
42265W        W85177  32.034  28.260  16.860  0.3581 -0.1260 -0.0504
42266W        W85178  30.854  24.703  17.303  0.0731  0.0987  0.1549
42267W        W85179  32.641  27.975  18.161 -0.0248 -0.1181 -0.3276
42268W        W85180  29.398  27.648  16.095 -0.2386  0.0358  0.0763
42269W        W85181  30.239  25.999  18.507 -0.0024  0.2521  0.1705
42270W        W85182  29.761  25.059  20.004 -0.0693 -0.0652 -0.0523
42271W        W85183  29.219  26.381  15.525  0.1218 -0.3139  0.0269
42272W        W85184  31.733  27.184  18.918 -0.1497 -0.3273 -0.3211
42273W        W85185  31.320  29.128  18.030 -0.0073 -0.3119 -0.1269
42274W        W85186  31.120  28.980  16.002  0.3602  0.0467 -0.1828
42275W        W85187  28.536  27.682  20.499 -0.2913  0.2143  0.1527
42276W        W85188  29.865  28.299  19.075  0.1480  0.0559 -0.2122
42277W        W85189  28.895  26.103  19.290  0.5166 -0.3045 -0.1045
42278W        W85190  32.821  26.514  17.158 -0.2130  0.2715  0.1107
42279W        W85191  31.241  30.226  19.166  0.1240 -0.0138  0.2587
42280W        W85192  32.397  28.156  17.177  0.1457 -0.2549  0.0378
42281W        W85193  33.081  27.131  18.512 -0.1582 -0.1677  0.5403
42282W        W85194  31.389  26.598  16.751 -0.1102 -0.0078 -0.0580
42283W        W85195  28.995  25.835  20.038  0.0057  0.1892  0.2642
42284W        W85196  29.304  28.636  19.879  0.2519 -0.1045  0.0904
42285W        W85197  32.250  27.188  18.058  0.2343 -0.1493  0.0697
42286W        W85198  30.295  25.385  17.341  0.0434 -0.2070  0.1279
42287W        W85199  31.039  25.859  16.172  0.0258 -0.0898 -0.0105
42288W        W85200  31.111  27.408  16.302 -0.0470 -0.0020 -0.2394
42289W        W85201  28.473  28.233  18.585  0.0590  0.2507  0.2281
42290W        W85202  29.111  27.282  16.324  0.3868 -0.2510 -0.0504
42291W        W85203  30.254  27.500  18.630 -0.0651 -0.0408 -0.2764
42292W        W85204  31.260  28.365  17.164 -0.1238 -0.1801  0.0017
42293W        W85205  30.971  27.985  18.620 -0.1266 -0.1143 -0.0210
42294W        W85206  30.711  27.135  17.423 -0.0970 -0.2764  0.0828
42295W        W85207  34.276  27.735  16.795 -0.0161  0.2920  0.2876
42296W        W85208  32.411  31.032  19.890 -0.0110 -0.0923  0.1221
42297W        W85209  31.736  29.278  19.780 -0.7318  0.0484  0.1104
42298W        W85210  31.233  29.366  19.810  0.0796 -0.6904  0.3512
42299W        W85211  31.970  27.958  18.879  0.1481  0.4184  0.2406
42300W        W85212  29.269  26.340  18.497  0.3279 -0.2434 -0.1256
42301W        W85213  30.058  28.132  18.245 -0.0180 -0.1815 -0.1791
42302W        W85214  29.784  28.539  17.060  0.1685  0.1960  0.2593
42303W        W85215  33.041  26.481  18.561  0.5734 -0.3541  0.1793
42304W        W85216  29.617  25.640  19.420  0.3396  0.0073 -0.0017
42305W        W85217  31.933  25.968  17.069 -0.2970  0.0573 -0.2122
42306W        W85218  29.172  28.224  19.414  0.3731 -0.1413  0.2141
42307W        W85219  30.852  26.902  20.145 -0.2410 -0.2104  0.2400
42308W        W85220  29.622  26.506  22.940 -0.0532 -0.2275 -0.2320
42309W        W85221  30.917  25.527  20.737 -0.1265  0.0365  0.2872
42310W        W85222  30.995  26.591  19.482  0.2069 -0.3095  0.2526
42311W        W85223  32.040  26.915  20.860 -0.1114  0.1867 -0.2627
42312W        W85224  29.054  25.664  21.587 -0.0242  0.1636 -0.3324
42313W        W85225  31.573  27.165  19.862 -0.1201  0.0395 -0.3169
42314W        W85226  30.437  25.422  21.929 -0.1793  0.0265  0.0940
42315W        W85227  30.178  28.451  22.248  0.5198 -0.1107 -0.1531
42316W        W85228  33.362  28.318  22.350  0.3626  0.0307  0.2290
42317W        W85229  31.269  27.590  19.622  0.2308 -0.2398  0.1049
42318W        W85230  31.035  27.208  21.892  0.1101  0.1050  0.1150
42319W        W85231  30.966  28.394  22.957 -0.0570 -0.0269 -0.1214
42320W        W85232  29.621  24.524  19.690 -0.2880  0.0404 -0.0199
42321W        W85233  28.464  26.223  20.611 -0.2513 -0.1165 -0.0516
42322W        W85234  32.364  27.563  23.057 -0.0441 -0.0119 -0.0155
42323W        W85235  29.264  27.553  20.567  0.2025 -0.3637  0.0697
42324W        W85236  30.872  26.509  23.064 -0.0143  0.3528  0.3528
42325W        W85237  30.133  26.502  21.741  0.0839 -0.0635 -0.0695
42326W        W85238  30.429  29.798  23.099  0.0864 -0.0174 -0.2095
42327W        W85239  30.371  24.632  21.441  0.1358  0.0812 -0.1121
42328W        W85240  32.266  25.571  22.615 -0.0641  0.0241 -0.1684
42329W        W85241  30.656  27.534  20.858  0.1202  0.2590  0.2884
42330W        W85242  29.282  25.459  20.684 -0.0224  0.0438 -0.0779
42331W        W85243  29.287  27.685  22.710 -0.1941  0.0741 -0.2405
42332W        W85244  31.433  27.573  21.119  0.0050  0.1879 -0.0602
42333W        W85245  33.406  23.743  21.910  0.0219 -0.0161 -0.0581
42334W        W85246  31.645  26.006  22.058  0.1571 -0.0020  0.0011
42335W        W85247  31.196  28.132  20.948 -0.1436  0.3664 -0.1978
42336W        W85248  30.694  28.087  22.246  0.0748 -0.0666  0.1818
42337W        W85249  32.308  26.919  22.727  0.0686 -0.1283  0.2463
42338W        W85250  29.702  28.448  22.415  0.1671  0.0617  0.1100
42339W        W85251  29.419  29.015  21.943 -0.1824 -0.0698  0.3872
42340W        W85252  29.708  28.229  19.711 -0.1975 -0.1264  0.2791
42341W        W85253  32.377  26.580  20.863  0.0788  0.0600  0.0576
42342W        W85254  33.145  29.033  21.143  0.1774  0.1047 -0.0771
42343W        W85255  31.458  29.520  23.365  0.1180 -0.0473 -0.0228
42344W        W85256  28.776  28.499  20.236 -0.2077 -0.0583 -0.0949
42345W        W85257  31.958  29.451  22.927 -0.0541  0.0347  0.1771
42346W        W85258  29.112  28.151  22.823  0.0931 -0.1192  0.2423
42347W        W85259  31.520  26.515  22.011  0.0772 -0.3480 -0.0260
42348W        W85260  29.578  28.216  20.278  0.1225  0.1551  0.0805
42349W        W85261  28.666  28.104  20.824 -0.1654  0.0578 -0.0444
42350W        W85262  30.241  27.771  21.697  0.0171  0.1403  0.0373
42351W        W85263  31.426  27.368  23.138  0.3566  0.1980  0.1093
42352W        W85264  29.508  27.188  22.904  0.1650 -0.1172  0.0001
42353W        W85265  31.968  26.139  24.291 -0.3734  0.2316  0.0100
42354W        W85266  29.771  29.324  20.052  0.3624  0.0374  0.0849
42355W        W85267  31.583  26.965  19.413  0.1176  0.2539  0.1407
42356W        W85268  32.024  26.341  19.818 -0.1544 -0.3182 -0.2730
42357W        W85269  31.856  26.999  22.002  0.0200  0.1316 -0.0361
42358W        W85270  30.243  24.231  20.979  0.1686 -0.0766  0.1274
42359W        W85271  30.197  28.745  23.439  0.0638  0.2009 -0.1626
42360W        W85272  30.983  25.407  22.192  0.2733 -0.1285 -0.0576
42361W        W85273  32.836  28.165  22.263 -0.0211 -0.0001 -0.1476
42362W        W85274  30.456  25.943  20.462 -0.0214 -0.3295  0.1086
42363W        W85275  31.173  26.729  21.654  0.1366  0.1771 -0.1549
42364W        W85276  31.419  28.201  22.725 -0.0682 -0.0104 -0.1188
42365W        W85277  29.486  26.497  21.102  0.2025  0.1443 -0.0205
42366W        W85278  31.748  29.003  20.228  0.3226  0.3225 -0.0368
42367W        W85279  32.524  27.027  21.492  0.1555 -0.1088 -0.1716
42368W        W85280  31.917  29.224  18.925 -0.0949  0.0459  0.2020
42369W        W85281  29.449  25.462  21.154 -0.0500 -0.0046 -0.0029
42370W        W85282  31.453  27.965  23.585  0.0461  0.1411  0.3645
42371W        W85283  29.202  27.160  22.345 -0.3879  0.2564 -0.2613
42372W        W85284  28.851  24.492  20.463 -0.2606 -0.1731 -0.0017
42373W        W85285  32.681  27.187  23.346 -0.1909 -0.2996 -0.2021
42374W        W85286  28.946  27.828  22.142  0.2641  0.1836 -0.0310
42375W        W85287  32.740  25.431  20.509  0.0354  0.4300  0.0525
42376W        W85288  29.343  26.665  22.560  0.2669  0.0736 -0.0912
42377W        W85289  31.683  29.174  22.583 -0.0344  0.1221  0.2330
42378W        W85290  31.457  28.948  21.604  0.1969  0.3224 -0.2988
42379W        W85291  32.985  24.228  21.054 -0.2935 -0.4238 -0.0902
42380W        W85292  32.504  25.073  22.000  0.2062 -0.2251 -0.3091
42381W        W85293  30.295  26.204  19.941  0.3010  0.1996 -0.0517
42382W        W85294  29.666  26.903  21.336 -0.1733  0.0187 -0.2150
42383W        W85295  32.966  28.837  22.149  0.0564 -0.1347 -0.0007
42384W        W85296  32.557  28.486  19.489  0.1843 -0.0672  0.1836
42385W        W85297  29.991  29.987  20.766  0.0086 -0.3309  0.0320
42386W        W85298  31.264  25.082  23.883  0.0894  0.1392  0.1208
42387W        W85299  31.444  29.111  24.688 -0.1748 -0.3302 -0.1372
42388W        W85300  30.229  28.707  21.771 -0.0331 -0.0142  0.1286
42389W        W85301  29.919  28.544  24.339  0.0319  0.1251  0.1242
42390W        W85302  30.841  26.833  20.668 -0.1770  0.2221  0.2904
42391W        W85303  29.233  24.169  21.214  0.0063  0.2510 -0.3682
42392W        W85304  31.728  27.723  22.358  0.0647  0.0614  0.1779
42393W        W85305  33.106  27.198  19.687  0.0359  0.2798 -0.1401
42394W        W85306  30.294  26.141  23.576  0.2212  0.1358 -0.0200
42395W        W85307  33.863  24.957  20.019 -0.0237  0.1080 -0.3139
42396W        W85308  29.467  27.554  22.234 -0.1075 -0.1255 -0.0333
42397W        W85309  32.606  28.996  21.389  0.1281 -0.3221  0.0533
42398W        W85310  32.506  26.215  20.518  0.0314 -0.1143 -0.1812
42399W        W85311  30.932  28.613  20.070 -0.1554 -0.0637 -0.2423
42400W        W85312  29.690  27.788  20.678 -0.4588  0.3183  0.2093
42401W        W85313  29.350  25.408  19.912 -0.0952  0.3218  0.0335
42402W        W85314  31.306  26.696  22.843 -0.0814  0.2010 -0.1107
42403W        W85315  30.688  26.071  21.368 -0.0532 -0.1410 -0.2768
42404W        W85316  32.617  27.452  22.615 -0.0544 -0.1795  0.2096
42405W        W85317  28.902  24.412  20.990  0.1830  0.0024  0.0966
42406W        W85318  30.605  27.006  21.043 -0.1232 -0.2722  0.0492
42407W        W85319  30.193  26.989  21.349  0.0918  0.1294 -0.2423
42408W        W85320  29.660  29.247  22.808 -0.0737  0.1650 -0.1921
42409W        W85321  32.477  24.331  23.429 -0.1248 -0.1766  0.0623
42410W        W85322  30.566  29.610  21.188 -0.2124  0.3652 -0.1525
42411W        W85323  32.426  30.433  21.352 -0.2350  0.0842 -0.0281
42412W        W85324  31.933  29.162  21.689 -0.1111  0.4310 -0.1074
42413W        W85325  30.753  25.926  22.181 -0.0971 -0.0109  0.0029
42414W        W85326  29.121  26.755  20.159  0.0646  0.1914  0.0804
42415W        W85327  28.577  29.701  22.263  0.1619  0.1352 -0.0322
42416W        W85328  31.827  29.677  22.500 -0.0570 -0.2002  0.0901
42417W        W85329  29.684  27.145  19.827  0.0033  0.1926  0.0793
42418W        W85330  32.864  29.414  21.200  0.0080 -0.2798  0.0237
42419W        W85331  30.132  28.469  20.366  0.3984 -0.0970  0.2950
42420W        W85332  27.842  27.718  22.433 -0.2941  0.1246 -0.3938
42421W        W85333  32.742  24.534  22.622  0.2075 -0.0904 -0.0764
42422W        W85334  33.508  24.874  22.083  0.0255 -0.0355  0.0304
42423W        W85335  31.398  26.324  20.886 -0.0159 -0.0510 -0.3199
42424W        W85336  30.165  26.934  20.865 -0.1952 -0.0279 -0.1803
42425W        W85337  30.781  28.596  21.043 -0.0090 -0.0064  0.4455
42426W        W85338  29.287  28.194  21.829 -0.3983 -0.3169 -0.2656
42427W        W85339  29.257  27.024  20.715 -0.1305 -0.5174 -0.1286
42428W        W85340  29.991  27.471  22.066 -0.0613  0.2101 -0.2534
42429W        W85341  32.953  25.464  20.973  0.1396  0.3558  0.0359
42430W        W85342  30.561  27.203  23.525  0.1975  0.3721  0.0240
42431W        W85343  30.796  26.325  22.627 -0.0638  0.0219 -0.0882
42432W        W85344  30.440  27.446  21.337  0.3107  0.0117  0.1637
42433W        W85345  29.606  27.763  24.401 -0.0354  0.3061  0.2069
42434W        W85346  31.508  24.884  20.446  0.4589  0.0873 -0.2648
42435W        W85347  33.871  26.582  19.892 -0.0827  0.1611 -0.1323
42436W        W85348  30.312  26.439  22.687 -0.3340  0.0099  0.2573
42437W        W85349  31.404  28.437  20.091 -0.0673 -0.0560  0.2395
42438W        W85350  32.964  26.370  20.784 -0.1127 -0.0640 -0.0082
42439W        W85351  30.738  26.432  20.291 -0.0284  0.1613  0.3330
42440W        W85352  29.144  29.278  24.273 -0.1297  0.0992  0.1977
42441W        W85353  32.463  26.994  20.520  0.0758 -0.0804 -0.1365
42442W        W85354  29.309  26.823  21.640 -0.0969 -0.1296 -0.3667
42443W        W85355  31.397  26.765  20.012 -0.0010 -0.0041 -0.1148
42444W        W85356  31.600  28.066  21.337  0.0943  0.0623  0.0303
42445W        W85357  29.202  29.436  22.848 -0.1878 -0.0300 -0.0672
42446W        W85358  32.418  28.241  21.955  0.0877  0.2212  0.2876
42447W        W85359  32.951  28.605  21.373 -0.2897 -0.0418 -0.1647
42448W        W85360  29.735  23.959  22.893  0.1870 -0.1175 -0.3237
42449W        W85361  30.394  26.492  20.676 -0.1885  0.0884  0.2207
42450W        W85362  30.456  25.501  20.855  0.1795  0.0896 -0.1597
42451W        W85363  30.583  28.496  20.517  0.1333  0.3188  0.1074
42452W        W85364  32.364  26.222  22.345  0.1830  0.1197  0.0195
42453W        W85365  30.069  26.029  21.506  0.2069  0.2273 -0.5500
42454W        W85366  29.556  25.853  20.902 -0.2348 -0.4411 -0.2752
42455W        W85367  33.850  26.793  22.112 -0.1332  0.3016  0.1136
42456W        W85368  31.817  26.472  21.136  0.2284 -0.2000  0.1019
42457W        W85369  30.496  26.026  20.931  0.0984 -0.2132  0.0719
42458W        W85370  29.610  24.555  20.286 -0.1667  0.0594 -0.1115
42459W        W85371  31.746  24.576  20.675  0.0229  0.0988 -0.0050
42460W        W85372  30.348  27.148  22.651  0.3198  0.0335  0.1540
42461W        W85373  29.144  27.336  23.631  0.2371 -0.1393  0.0201
42462W        W85374  32.356  28.439  23.562 -0.0974 -0.2200  0.0461
42463W        W85375  33.612  27.239  21.237  0.1100 -0.1684 -0.1811
42464W        W85376  31.199  26.315  22.369  0.0780  0.0407  0.0013
42465W        W85377  31.588  27.002  21.150 -0.0174  0.0635 -0.1114
42466W        W85378  30.541  28.568  23.104  0.2585 -0.0933 -0.0005
42467W        W85379  29.659  26.735  20.737 -0.0090  0.1608  0.1372
42468W        W85380  32.387  26.021  21.088 -0.0365 -0.3036 -0.0495
42469W        W85381  30.432  28.253  21.855 -0.1376 -0.2099 -0.1160
42470W        W85382  30.280  28.418  20.985 -0.1079 -0.1731  0.1264
42471W        W85383  31.015  28.144  21.857  0.0910 -0.0023  0.0064
42472W        W85384  29.497  27.674  23.834  0.0200 -0.1225 -0.0531
42473W        W85385  32.164  24.643  21.879  0.2013  0.0876 -0.1060
42474W        W85386  28.688  28.158  21.782 -0.1993  0.0144  0.1619
42475W        W85387  30.016  26.356  21.011 -0.3033  0.0504  0.2340
42476W        W85388  28.802  24.953  20.140  0.2612 -0.0895  0.1879
42477W        W85389  32.516  25.317  20.063  0.0123 -0.1757 -0.0434
42478W        W85390  31.427  27.009  20.505  0.1001 -0.2532  0.0776
42479W        W85391  30.700  25.843  22.783 -0.0333 -0.2389 -0.1235
42480W        W85392  31.756  24.832  21.570 -0.4202  0.1748 -0.2774
42481W        W85393  30.345  29.754  22.465 -0.0615 -0.3859 -0.3107
42482W        W85394  32.809  27.421  21.760 -0.2270  0.0227 -0.0252
42483W        W85395  32.792  25.982  21.416 -0.0300  0.0147 -0.0274
42484W        W85396  31.996  28.282  21.503 -0.4362 -0.0687 -0.4368
42485W        W85397  31.846  28.404  22.948  0.0476 -0.1443 -0.0779
42486W        W85398  29.231  27.363  19.676 -0.1584 -0.1200 -0.1633
42487W        W85399  31.789  25.732  21.647 -0.0672 -0.2384  0.0160
42488W        W85400  30.481  26.533  21.234 -0.3834  0.1698  0.1145
42489W        W85401  29.876  28.712  21.360 -0.1021 -0.0694 -0.2168
42490W        W85402  32.219  27.469  21.269 -0.3896  0.3113 -0.0369
42491W        W85403  28.760  27.669  21.025  0.2621 -0.0193 -0.1638
42492W        W85404  30.351  28.858  22.668 -0.1619 -0.0817  0.1498
42493W        W85405  30.503  27.642  22.169  0.1831 -0.0168 -0.0638
42494W        W85406  31.954  27.172  23.112 -0.0152 -0.0293  0.0870
42495W        W85407  31.135  25.379  23.358 -0.1973 -0.1324  0.5877
42496W        W85408  30.729  26.899  21.547  0.0627 -0.4578 -0.1477
42497W        W85409  28.983  25.392  20.249 -0.0206 -0.0738  0.0302
42498W        W85410  31.728  27.983  21.926 -0.2545 -0.1236  0.1691
42499W        W85411  31.167  28.982  22.420  0.3249 -0.0128 -0.0351
42500W        W85412  29.517  26.151  24.069  0.1574 -0.1842  0.3182
42501W        W85413  30.956  24.923  22.488 -0.1433  0.3088 -0.2281
42502W        W85414  33.220  29.379  20.157 -0.1472  0.2045  0.2670
42503W        W85415  31.411  27.292  22.233  0.0296  0.1203 -0.3888
42504W        W85416  31.126  27.201  20.838  0.3263 -0.0501 -0.0761
42505W        W85417  29.696  26.941  22.416  0.0968  0.2142  0.1456
42506W        W85418  31.851  27.822  20.993  0.0906 -0.5413  0.2005
42507W        W85419  29.572  26.528  22.030  0.3268 -0.0586 -0.0155
42508W        W85420  30.734  26.808  22.654 -0.1543  0.2538  0.2349
42509W        W85421  31.111  28.565  21.382 -0.0452 -0.0286  0.0966
42510W        W85422  29.907  27.860  23.058 -0.2106 -0.2769 -0.1768
42511W        W85423  32.637  26.273  19.861  0.0949  0.0567  0.0394
42512W        W85424  30.158  29.547  20.398  0.1155 -0.1742  0.1756
42513W        W85425  29.498  25.902  19.829  0.2502  0.1201  0.0798
42514W        W85426  32.443  24.998  23.571 -0.1050 -0.4195 -0.0760
42515W        W85427  32.607  28.009  19.757 -0.2621 -0.0194 -0.0641
42516W        W85428  32.761  26.927  23.933  0.2104 -0.0327  0.0838
42517W        W85429  29.897  25.936  20.179 -0.3634  0.0233 -0.1355
42518W        W85430  33.062  27.818  22.571 -0.1162 -0.2523  0.2329
42519W        W85431  28.598  26.818  23.083 -0.0602 -0.5171 -0.3101
42520W        W85432  30.868  30.137  23.182 -0.0147  0.1664  0.1642
42521W        W85433  29.451  26.819  24.459  0.1138  0.0555  0.1586
42522W        W85434  32.127  26.447  20.325  0.0117  0.0907 -0.1536
42523W        W85435  31.274  23.914  20.474 -0.3745  0.0648 -0.0954
42524W        W85436  31.385  27.718  21.708  0.0370  0.2105 -0.1470
42525W        W85437  31.864  28.242  22.462  0.1507 -0.1167  0.0952
42526W        W85438  32.324  29.511  18.045 -0.1397  0.0294  0.0488
42527W        W85439  32.342  25.850  21.611  0.0985 -0.0898 -0.0902
42528W        W85440  29.407  27.392  21.033  0.1999  0.0615  0.0894
42529W        W85441  31.942  27.692  20.427  0.1637  0.0150 -0.2224
42530W        W85442  31.003  26.084  20.601 -0.2144  0.3569  0.0343
42531W        W85443  28.357  27.576  21.682 -0.1512  0.2549 -0.2559
42532W        W85444  30.243  25.809  23.007 -0.1147 -0.1103  0.2581
42533W        W85445  29.851  27.412  21.335  0.2500  0.0505  0.1175
42534W        W85446  32.311  25.725  20.504 -0.1879  0.1992  0.0363
42535W        W85447  32.969  24.752  22.197 -0.3459  0.0141  0.2570
42536W        W85448  30.852  25.663  21.694 -0.0912 -0.1471  0.1402
42537W        W85449  30.850  27.022  23.093  0.1154 -0.1219 -0.3050
42538W        W85450  30.004  26.600  23.821 -0.0750 -0.0279 -0.0685
42539W        W85451  31.148  27.214  22.682  0.0875  0.1395  0.0562
42540W        W85452  32.252  26.673  21.323  0.0342  0.2147 -0.1870
42541W        W85453  33.157  24.404  20.567 -0.2983  0.0436  0.1963
42542W        W85454  32.690  26.644  20.311 -0.3514 -0.0241  0.3026
42543W        W85455  31.097  26.783  21.144 -0.0082  0.0450 -0.1466
42544W        W85456  29.093  25.104  21.614 -0.1259  0.1038 -0.0093
42545W        W85457  32.189  27.254  22.375 -0.0370 -0.1704 -0.2230
42546W        W85458  29.731  24.585  19.235 -0.0180  0.1285 -0.1397
42547W        W85459  30.761  27.490  23.076 -0.1001 -0.1854 -0.2679
42548W        W85460  31.923  28.241  20.568 -0.0255 -0.3411  0.0413
42549W        W85461  31.813  28.084  20.081  0.2405  0.0308  0.0013
42550W        W85462  30.741  27.229  22.306  0.0365 -0.0595  0.0050
42551W        W85463  29.471  25.050  22.069 -0.1000 -0.1779  0.3054
42552W        W85464  29.108  29.301  23.427 -0.3788  0.2264 -0.3049
42553W        W85465  29.399  25.893  20.417 -0.1336  0.2944  0.0360
42554W        W85466  30.609  26.163  18.755 -0.1195 -0.3272  0.0497
42555W        W85467  31.159  28.641  21.900 -0.2427 -0.1288  0.0162
42556W        W85468  32.202  27.311  23.510  0.1536 -0.4308  0.3641
42557W        W85469  30.608  26.108  19.587  0.2009 -0.1479 -0.0144
42558W        W85470  31.991  25.711  23.606 -0.1104 -0.0533  0.3362
42559W        W85471  29.729  27.275  20.702  0.2329 -0.1986  0.0337
42560W        W85472  30.191  24.522  20.467 -0.1290 -0.2866  0.0215
42561W        W85473  30.988  27.281  21.352 -0.0694 -0.1405  0.0662
42562W        W85474  28.859  28.687  22.630 -0.3586 -0.2777  0.2441
42563W        W85475  30.036  27.318  23.115 -0.2356 -0.2499  0.1571
42564W        W85476  30.710  25.475  20.266 -0.0715  0.0407 -0.2167
42565W        W85477  31.567  25.475  22.104  0.3003 -0.0533 -0.0025
42566W        W85478  30.559  28.278  22.633  0.1409  0.1364  0.0017
42567W        W85479  32.686  26.009  22.062 -0.1005  0.0892  0.0179
42568W        W85480  30.750  27.766  22.608 -0.2440 -0.0134 -0.5014
42569W        W85481  30.280  25.830  22.416 -0.2054 -0.3378  0.0377
42570W        W85482  32.496  28.389  21.492  0.2888  0.0908 -0.2634
42571W        W85483  32.434  27.911  20.550 -0.1593  0.1776 -0.2583
42572W        W85484  30.044  29.431  23.141 -0.1212 -0.2230  0.0468
42573W        W85485  29.558  25.965  21.495  0.4284  0.3450  0.1421
42574W        W85486  30.662  25.521  23.182  0.0312 -0.1287  0.0581
42575W        W85487  32.491  28.690  21.019  0.1231  0.0978 -0.1586
42576W        W85488  29.896  24.098  20.481 -0.5566 -0.1288  0.1181
42577W        W85489  30.021  26.985  21.809  0.0991  0.2398  0.1748
42578W        W85490  28.833  29.781  23.450 -0.1363  0.1137  0.0712
42579W        W85491  29.233  28.800  23.553 -0.3493 -0.0238 -0.0047
42580W        W85492  28.734  28.615  21.946  0.0042 -0.0757  0.0968
42581W        W85493  30.264  27.945  20.643  0.3014 -0.0652 -0.3718
42582W        W85494  29.798  27.681  19.779  0.2635 -0.2493  0.1588
42583W        W85495  30.838  28.907  22.764  0.0325  0.1617  0.0470
42584W        W85496  30.633  26.440  19.145 -0.1757 -0.0249 -0.2805
42585W        W85497  31.116  28.515  22.449  0.1269 -0.1212  0.1128
42586W        W85498  28.242  27.042  21.564 -0.2363  0.0441  0.1415
42587W        W85499  32.253  29.149  20.008 -0.0602 -0.0795  0.0918
42588W        W85500  29.228  28.680  21.615 -0.1975 -0.0774  0.1577
42589W        W85501  33.587  29.205  21.931  0.2173 -0.1341  0.2288
42590W        W85502  32.304  25.996  20.084  0.1355 -0.4981 -0.1651
42591W        W85503  31.895  26.568  22.903 -0.1633 -0.1416 -0.0818
42592W        W85504  32.854  27.547  20.650  0.1576  0.0153  0.2907
42593W        W85505  31.926  29.300  24.577 -0.0099 -0.0862 -0.2269
42594W        W85506  29.558  27.107  21.958  0.1254 -0.1258 -0.2631
42595W        W85507  30.767  27.288  20.380 -0.1171  0.0526  0.1767
42596W        W85508  30.646  26.807  22.062 -0.3938  0.0727 -0.2569
42597W        W85509  33.150  24.018  23.348 -0.1271 -0.3112 -0.0460
42598W        W85510  29.406  28.983  23.129 -0.0796  0.1995 -0.2007
42599W        W85511  31.573  28.594  21.191 -0.0592  0.2774 -0.1105
42600W        W85512  28.295  25.624  21.328  0.3395 -0.1616  0.1126
42601W        W85513  30.889  27.788  21.204  0.0948 -0.2766 -0.3030
42602W        W85514  32.541  25.547  22.183 -0.1984 -0.2260 -0.0103
42603W        W85515  31.089  28.496  20.500 -0.3029 -0.4239 -0.0070
42604W        W85516  31.036  25.967  21.106 -0.0737  0.1151 -0.0073
42605W        W85517  30.251  29.072  22.158 -0.0931 -0.0461 -0.2941
42606W        W85518  30.136  28.039  22.521 -0.4307  0.0990 -0.0191
42607W        W85519  30.447  29.097  23.117 -0.1811  0.1529 -0.2588
42608W        W85520  29.454  26.246  20.125 -0.1466 -0.0128 -0.0651
42609W        W85521  30.707  25.087  21.697  0.0445  0.1349  0.1034
42610W        W85522  30.329  25.519  21.362 -0.2028  0.4272  0.0615
42611W        W85523  31.347  25.054  22.238 -0.1933 -0.0209  0.1783
42612W        W85524  30.826  26.416  20.928  0.1885  0.0967 -0.1111
42613W        W85525  31.733  27.612  19.896  0.0457 -0.3016 -0.0664
42614W        W85526  31.467  27.241  21.617  0.2664 -0.2683  0.2622
42615W        W85527  29.130  26.757  22.093 -0.0348  0.1215 -0.0041
42616W        W85528  31.099  27.022  19.738 -0.3984 -0.0837 -0.1907
42617W        W85529  32.817  28.193  24.451 -0.1559 -0.2552  0.0783
42618W        W85530  31.087  28.067  20.232 -0.2154 -0.1852  0.0056
42619W        W85531  32.336  28.557  23.026 -0.1703 -0.0555 -0.0071
42620W        W85532  29.758  24.568  20.789  0.1586 -0.1090 -0.0133
42621W        W85533  29.846  26.341  19.806 -0.0408 -0.1149 -0.2625
42622W        W85534  30.148  27.830  20.198  0.0367  0.5112  0.2697
42623W        W85535  29.349  27.288  21.523 -0.1909 -0.1383  0.1240
42624W        W85536  32.537  28.879  22.419 -0.0422 -0.2455  0.0048
42625W        W85537  29.877  24.234  20.007 -0.0275  0.0026 -0.2383
42626W        W85538  31.689  28.449  19.677  0.0043  0.1620 -0.0219
42627W        W85539  31.304  25.773  21.512 -0.1261  0.0804 -0.0614
42628W        W85540  30.097  30.145  19.306 -0.0284  0.0929  0.0386
42629W        W85541  33.335  26.236  21.406  0.0547  0.0645  0.1733
42630W        W85542  32.312  29.889  21.671  0.0970 -0.0952  0.3469
42631W        W85543  29.057  25.823  21.078  0.1063  0.0075  0.1844
42632W        W85544  32.333  29.676  23.673 -0.1935 -0.1736  0.1605
42633W        W85545  32.913  26.935  21.934  0.1276  0.1367  0.2213
42634W        W85546  29.225  25.271  19.401  0.0297 -0.2043 -0.0699
42635W        W85547  30.827  27.624  21.668 -0.2623 -0.0318 -0.3709
42636W        W85548  30.417  29.533  22.028  0.0786 -0.1710 -0.0070
42637W        W85549  33.802  25.930  20.534 -0.0960 -0.2436  0.1056
42638W        W85550  31.441  25.830  20.671 -0.1663  0.4441  0.0046
42639W        W85551  30.716  28.567  22.195 -0.0127 -0.0929 -0.2199
42640W        W85552  32.867  25.612  22.520 -0.2929  0.1183  0.1804
42641W        W85553  31.978  29.409  23.427 -0.1148 -0.2461 -0.1419
42642W        W85554  29.371  28.635  24.013 -0.0024  0.1143 -0.1428
42643W        W85555  30.665  27.775  20.405  0.0198 -0.3930  0.1978
42644W        W85556  31.157  26.789  22.206 -0.0253 -0.0627  0.1999
42645W        W85557  30.254  27.355  20.540 -0.0533 -0.1208 -0.0448
42646W        W85558  30.910  29.012  21.749 -0.0411  0.0907 -0.2321
42647W        W85559  32.781  27.605  21.277  0.2552  0.4642 -0.1036
42648W        W85560  31.622  25.956  21.177 -0.0790 -0.0691 -0.4149
42649W        W85561  32.036  28.332  21.044 -0.0514 -0.1771  0.0275
42650W        W85562  29.603  25.155  21.536  0.1515 -0.0959  0.1398
42651W        W85563  33.495  25.516  20.970 -0.1365 -0.1103  0.1919
42652W        W85564  32.981  25.469  19.976 -0.2597 -0.1558  0.0316
42653W        W85565  30.164  26.860  22.270  0.2522 -0.1156 -0.1328
42654W        W85566  29.778  28.389  20.768 -0.1029  0.1657  0.0217
42655W        W85567  29.365  27.784  19.474 -0.1338 -0.0003 -0.2901
42656W        W85568  28.778  28.276  22.317  0.0312  0.4443  0.2006
42657W        W85569  30.281  24.930  24.607 -0.1867  0.2609  0.1695
42658W        W85570  29.951  26.797  23.353  0.1249  0.2537 -0.0574
42659W        W85571  27.954  27.243  22.400 -0.0552 -0.0919  0.3007
42660W        W85572  29.674  25.451  20.371  0.1864 -0.2007 -0.2290
42661W        W85573  31.511  27.894  20.543 -0.0317  0.2782 -0.2150
42662W        W85574  30.394  25.979  21.832 -0.1098  0.1798 -0.0052
42663W        W85575  29.190  24.322  22.140 -0.1184  0.0463 -0.0030
42664W        W85576  31.073  27.688  20.668 -0.0962  0.2683 -0.2871
42665W        W85577  31.620  28.640  20.550 -0.2832  0.0313 -0.1854
42666W        W85578  30.013  25.821  20.696  0.2685 -0.3224  0.1126
42667W        W85579  34.254  28.126  22.031  0.0414  0.0851  0.2533
42668W        W85580  30.120  27.578  20.976  0.3162  0.1381  0.3612
42669W        W85581  32.097  25.319  21.734 -0.0987  0.4340 -0.2387
42670W        W85582  29.879  24.466  22.857  0.3163 -0.2393  0.0343
42671W        W85583  29.090  26.273  21.328 -0.0254  0.1233 -0.0646
42672W        W85584  30.945  25.047  20.967 -0.2505  0.0765  0.0156
42673W        W85585  30.361  26.906  20.348  0.4155 -0.2708  0.0577
42674W        W85586  32.082  28.948  20.798 -0.1246 -0.0175  0.0973
42675W        W85587  31.568  28.641  22.183  0.1015 -0.2484 -0.2706
42676W        W85588  30.196  28.195  23.268 -0.3128 -0.3640  0.2912
42677W        W85589  29.122  25.391  22.099 -0.0598 -0.1637  0.0834
42678W        W85590  31.391  27.497  20.244 -0.0908  0.0173  0.1316
42679W        W85591  30.315  27.674  22.846  0.0238 -0.1800  0.0667
42680W        W85592  32.910  29.297  19.728  0.0649 -0.0419 -0.0595
42681W        W85593  32.040  26.193  21.446  0.0230  0.1958  0.1240
42682W        W85594  31.845  27.682  21.488 -0.2850 -0.2212  0.0202
42683W        W85595  29.883  24.837  24.325  0.0847 -0.0006  0.0598
42684W        W85596  29.766  28.080  22.026  0.2645  0.0430  0.2073
42685W        W85597  32.225  28.364  24.415  0.0157  0.1116 -0.0638
42686W        W85598  29.335  24.376  20.710  0.0521  0.0216  0.0691
42687W        W85599  31.576  26.354  20.183 -0.0492 -0.0281  0.1224
42688W        W85600  30.152  29.146  21.231 -0.1602  0.0264 -0.1854
42689W        W85601  29.614  27.695  21.697 -0.2750  0.0631  0.1113
42690W        W85602  30.032  26.808  19.849 -0.1554  0.1080 -0.0775
42691W        W85603  31.771  27.274  22.663 -0.0846 -0.1227 -0.1202
42692W        W85604  32.247  27.880  21.688  0.0580 -0.2655 -0.2390
42693W        W85605  31.745  27.488  21.954 -0.0219  0.0418 -0.2812
42694W        W85606  31.638  25.969  19.793  0.1969  0.0452 -0.0631
42695W        W85607  33.212  27.797  20.991  0.3905  0.1976  0.2661
42696W        W85608  32.144  29.063  22.182  0.2532  0.3042 -0.0098
42697W        W85609  32.177  29.615  24.867  0.0825 -0.1289  0.1121
42698W        W85610  32.358  27.811  23.532  0.1371 -0.3664 -0.0424
42699W        W85611  32.072  26.600  22.415  0.0880  0.2444  0.0359
42700W        W85612  29.927  25.395  22.858 -0.1946 -0.2094  0.0307
42701W        W85613  29.949  28.195  21.571 -0.2756  0.1833 -0.2781
42702W        W85614  30.473  27.217  21.833 -0.0571  0.1109 -0.4423
42703W        W85615  31.095  26.153  21.905 -0.0477  0.2462 -0.1262
42704W        W85616  31.334  25.554  21.095 -0.3592 -0.1859  0.1214
42705W        W85617  32.204  25.676  19.112 -0.0851  0.1541 -0.0831
42706W        W85618  30.699  28.558  23.613  0.2957  0.1035 -0.2360
42707W        W85619  31.650  26.717  21.587  0.0102  0.2158  0.0933
42708W        W85620  30.378  28.784  26.348  0.0752 -0.0701 -0.1121
42709W        W85621  31.203  26.239  24.956  0.1586 -0.2116  0.1727
42710W        W85622  31.740  25.259  21.363 -0.1109  0.2213 -0.0702
42711W        W85623  32.584  26.679  25.315 -0.2658 -0.0553 -0.1330
42712W        W85624  29.545  26.074  23.160  0.0017 -0.0834 -0.1200
42713W        W85625  32.235  28.901  25.146  0.1304 -0.0376  0.1574
42714W        W85626  29.565  25.889  27.225  0.1249 -0.0044  0.1779
42715W        W85627  30.580  28.319  25.071  0.1352 -0.2142  0.3344
42716W        W85628  32.089  28.722  26.476  0.0381 -0.0757 -0.3180
42717W        W85629  31.938  28.743  22.534  0.1120  0.1124  0.2009
42718W        W85630  29.879  27.789  25.688 -0.0686  0.0211 -0.3236
42719W        W85631  29.922  28.662  26.141  0.3181 -0.0058 -0.1004
42720W        W85632  31.110  26.769  24.457  0.0071  0.1324 -0.2133
42721W        W85633  29.430  26.443  26.972 -0.0908  0.0022  0.0998
42722W        W85634  31.271  26.449  26.257  0.0723  0.2358  0.1567
42723W        W85635  30.337  28.655  24.590 -0.2895  0.1650 -0.2509
42724W        W85636  30.875  26.835  27.060 -0.1611  0.1789  0.2146
42725W        W85637  31.630  26.933  25.476 -0.1282 -0.1232  0.0990
42726W        W85638  31.172  29.759  24.490  0.1749 -0.1304 -0.2460
42727W        W85639  29.916  25.921  27.665 -0.0564 -0.1403 -0.2038
42728W        W85640  32.336  25.896  28.100 -0.0103 -0.2693  0.0575
42729W        W85641  31.997  28.480  23.945  0.2064 -0.1504 -0.0330
42730W        W85642  30.509  26.198  23.115 -0.0744 -0.0492 -0.2207
42731W        W85643  29.084  26.455  25.673  0.0018 -0.0584  0.4275
42732W        W85644  30.019  26.685  26.510 -0.0775  0.0623  0.0930
42733W        W85645  31.528  26.648  24.776  0.0486  0.3433 -0.1025
42734W        W85646  31.028  27.468  26.819  0.0006  0.1101 -0.0439
42735W        W85647  29.825  29.053  24.273  0.0282  0.1531 -0.2102
42736W        W85648  32.528  26.688  26.008  0.1692 -0.2790 -0.3034
42737W        W85649  32.457  27.403  26.748 -0.2267  0.2502 -0.0377
42738W        W85650  28.767  27.699  25.205  0.1356 -0.0309  0.1323
42739W        W85651  29.240  28.749  26.081  0.3410 -0.2280  0.0268
42740W        W85652  29.944  30.006  23.981 -0.0523  0.0896 -0.3320
42741W        W85653  33.831  28.041  24.799 -0.1707  0.0060 -0.0089
42742W        W85654  32.386  29.521  28.025 -0.0214 -0.4008  0.1530
42743W        W85655  31.043  29.346  26.927 -0.1211  0.1720  0.1987
42744W        W85656  31.716  29.785  24.622  0.1432  0.1826 -0.0440
42745W        W85657  30.805  28.520  26.049 -0.0894  0.1597 -0.0399
42746W        W85658  29.019  28.466  27.299 -0.1229  0.0101 -0.2073
42747W        W85659  30.811  28.013  26.095 -0.2806  0.3307  0.3524
42748W        W85660  30.986  28.166  23.562  0.0623  0.3653 -0.2363
42749W        W85661  29.824  29.544  23.643 -0.1996  0.1282 -0.0220
42750W        W85662  31.460  26.414  24.366 -0.0302  0.2349  0.2843
42751W        W85663  28.901  27.562  26.493  0.1511  0.3841  0.0490
42752W        W85664  28.439  28.428  26.466  0.1260  0.0382  0.1157
42753W        W85665  31.873  27.395  28.111  0.0448 -0.0098 -0.1240
42754W        W85666  29.828  28.600  24.940  0.1194 -0.0408 -0.0682
42755W        W85667  31.515  28.400  23.836  0.1095  0.1060 -0.0441
42756W        W85668  30.800  27.679  23.563  0.1776  0.0673 -0.0788
42757W        W85669  31.933  27.693  23.324  0.0585  0.4409  0.2528
42758W        W85670  29.747  26.589  26.091  0.2381  0.1077 -0.0058
42759W        W85671  29.102  29.277  26.216  0.1555 -0.0989 -0.1170
42760W        W85672  30.849  26.833  26.102  0.2225 -0.1102 -0.1422
42761W        W85673  33.395  27.963  26.623 -0.0264 -0.0361  0.0424
42762W        W85674  31.936  28.138  24.804 -0.0998  0.1430  0.5229
42763W        W85675  31.040  28.551  27.058 -0.1373  0.1862 -0.1455
42764W        W85676  30.635  27.617  26.332  0.0080 -0.2990  0.0434
42765W        W85677  28.659  27.386  23.893 -0.2987  0.2879  0.1963
42766W        W85678  32.864  28.997  24.358 -0.2867  0.2090 -0.0481
42767W        W85679  32.998  27.430  24.910 -0.1385 -0.0979 -0.0862
42768W        W85680  30.667  29.568  23.902 -0.0567  0.3044  0.1019
42769W        W85681  30.613  27.165  24.447  0.2080  0.0104  0.4539
42770W        W85682  28.929  29.415  27.206  0.1231 -0.0104  0.1410
42771W        W85683  28.009  27.553  26.860 -0.1780  0.0769  0.3632
42772W        W85684  29.832  24.995  23.314  0.1870  0.3134 -0.1551
42773W        W85685  32.898  27.846  28.073 -0.1874 -0.2183 -0.0376
42774W        W85686  29.541  30.970  27.388 -0.1607  0.0926  0.2470
42775W        W85687  31.798  26.377  26.575  0.3215  0.0012 -0.2242
42776W        W85688  30.479  28.085  25.567  0.2065 -0.1042  0.1662
42777W        W85689  31.499  27.369  26.625 -0.1527  0.2467 -0.1957
42778W        W85690  31.902  27.864  23.860 -0.5219 -0.4423 -0.2475
42779W        W85691  34.103  25.941  25.909  0.3763 -0.0180 -0.0174
42780W        W85692  31.110  27.012  26.555 -0.0344 -0.1746 -0.0294
42781W        W85693  29.298  28.070  24.168 -0.1322 -0.1173 -0.0627
42782W        W85694  30.959  27.641  24.406 -0.1301 -0.1676  0.0657
42783W        W85695  32.671  28.379  26.166  0.1179 -0.1654  0.2247
42784W        W85696  31.953  27.452  24.177  0.2115 -0.2610  0.2186
42785W        W85697  29.610  29.638  25.516  0.0839 -0.0163  0.0488
42786W        W85698  30.088  27.244  27.154  0.0763  0.2349 -0.7628
42787W        W85699  30.317  30.078  27.690  0.2145  0.2010  0.0112
42788W        W85700  30.783  29.449  22.772 -0.0229 -0.2468  0.1002
42789W        W85701  30.609  28.186  24.600  0.2767  0.0316  0.0886
42790W        W85702  27.335  28.203  24.816 -0.2741 -0.0036 -0.0167
42791W        W85703  29.826  26.127  25.213 -0.0021  0.3698 -0.1925
42792W        W85704  29.747  28.797  27.049 -0.0614  0.0383 -0.2277
42793W        W85705  32.276  26.807  23.220 -0.0614 -0.3495  0.0663
42794W        W85706  29.413  24.619  27.291 -0.1247 -0.0151 -0.0897
42795W        W85707  32.676  27.059  24.431 -0.0940 -0.0990  0.0772
42796W        W85708  28.387  30.031  25.038 -0.0598 -0.0921  0.0759
42797W        W85709  34.140  28.861  25.588  0.1150  0.0688 -0.3563
42798W        W85710  32.802  27.572  24.400 -0.0149  0.1860  0.0401
42799W        W85711  31.745  29.813  24.128 -0.0172  0.1288 -0.0862
42800W        W85712  28.709  27.106  28.063  0.2178 -0.0729 -0.2290
42801W        W85713  28.916  27.175  26.093  0.0242 -0.1452  0.1875
42802W        W85714  30.493  26.102  27.320  0.0904 -0.1837  0.0535
42803W        W85715  29.262  26.807  26.037  0.3031 -0.2417  0.3122
42804W        W85716  32.026  27.209  26.531  0.0918 -0.1559  0.0663
42805W        W85717  29.849  25.985  22.789  0.2186 -0.0496 -0.2150
42806W        W85718  32.123  27.207  25.976 -0.1067 -0.0730  0.0093
42807W        W85719  31.330  27.721  22.686 -0.3045 -0.0222  0.3758
42808W        W85720  29.004  27.916  25.613  0.2238 -0.3678  0.0228
42809W        W85721  33.435  25.883  28.311  0.1487 -0.4378  0.0037
42810W        W85722  32.535  27.686  24.801  0.2806 -0.1837 -0.0583
42811W        W85723  31.429  27.932  26.838 -0.1839 -0.0769  0.1480
42812W        W85724  33.084  29.151  27.220 -0.0461 -0.1694  0.3614
42813W        W85725  30.081  27.868  27.207 -0.1452 -0.0125 -0.4721
42814W        W85726  30.411  25.815  23.963  0.0590 -0.2466  0.2523
42815W        W85727  29.667  29.864  24.586 -0.0878  0.0366 -0.0222
42816W        W85728  30.244  28.627  23.950  0.1364 -0.0231  0.0236
42817W        W85729  30.669  23.784  24.005  0.2396  0.2593  0.2122
42818W        W85730  32.897  28.042  26.483 -0.1484  0.1010  0.2547
42819W        W85731  31.423  27.070  24.165  0.1951  0.0072 -0.0319
42820W        W85732  29.521  27.688  27.713  0.1114 -0.1942 -0.0747
42821W        W85733  30.973  26.144  27.630 -0.2579  0.0692 -0.0903
42822W        W85734  32.316  27.400  27.428  0.1105 -0.0574 -0.0603
42823W        W85735  31.321  28.324  26.078 -0.0874  0.0537 -0.1426
42824W        W85736  29.631  24.502  24.947  0.0517 -0.0143  0.2938
42825W        W85737  31.153  29.349  26.162 -0.2583 -0.4319 -0.3141
42826W        W85738  29.509  29.099  23.841 -0.3630 -0.2612  0.2295
42827W        W85739  29.890  27.552  26.173  0.2739  0.2410 -0.1486
42828W        W85740  29.647  29.567  24.146  0.1577  0.2744 -0.2163
42829W        W85741  32.267  26.369  26.796 -0.1057 -0.3577 -0.1516
42830W        W85742  28.738  28.600  28.447 -0.0565 -0.2952 -0.0295
42831W        W85743  31.926  26.979  27.441 -0.2812 -0.1539  0.1510
42832W        W85744  30.456  26.910  24.046 -0.1320  0.2150 -0.3790
42833W        W85745  29.234  28.043  25.124 -0.2211  0.1698 -0.1155
42834W        W85746  32.503  25.852  26.760  0.2437  0.1488 -0.3652
42835W        W85747  32.724  26.347  24.786  0.0053  0.0019  0.3217
42836W        W85748  31.784  27.767  26.446  0.2228  0.1299  0.1158
42837W        W85749  31.988  28.001  25.541  0.1332  0.2808 -0.0619
42838W        W85750  31.701  25.754  22.538  0.0699  0.1393  0.0324
42839W        W85751  31.337  26.198  23.872 -0.4283 -0.3948  0.1223
42840W        W85752  29.651  28.494  26.572  0.1625 -0.1016  0.2943
42841W        W85753  32.465  27.903  26.726  0.0995 -0.2901 -0.1498
42842W        W85754  29.970  26.901  24.227  0.2665  0.2408  0.1768
42843W        W85755  31.678  26.291  22.459 -0.1438 -0.1182 -0.1629
42844W        W85756  33.159  28.822  25.313 -0.0034  0.1438  0.1539
42845W        W85757  28.513  28.027  25.784 -0.2803  0.1634 -0.0180
42846W        W85758  31.564  29.366  26.978 -0.1806  0.0479 -0.2728
42847W        W85759  31.830  29.292  25.077 -0.2462 -0.3416 -0.1864
42848W        W85760  30.706  27.849  24.993  0.0704 -0.1985  0.1871
42849W        W85761  30.300  25.245  22.480  0.2326  0.2407  0.1573
42850W        W85762  30.575  26.127  26.378  0.3471 -0.1705 -0.2260
42851W        W85763  29.918  29.969  23.361  0.2145  0.1864 -0.1430
42852W        W85764  33.193  25.068  26.106 -0.1189 -0.1141 -0.0457
42853W        W85765  32.199  26.745  26.436  0.0618 -0.0381  0.1638
42854W        W85766  30.708  26.542  27.458  0.1933  0.1422  0.0372
42855W        W85767  32.169  26.835  26.933 -0.2833 -0.0334  0.1437
42856W        W85768  31.750  27.051  24.550  0.0702 -0.1307 -0.2286
42857W        W85769  31.226  27.590  25.044  0.0674  0.2037 -0.1346
42858W        W85770  31.760  27.603  24.645 -0.3577  0.2323 -0.0143
42859W        W85771  32.588  27.243  26.164 -0.0251  0.1230  0.0235
42860W        W85772  28.915  28.139  28.337  0.0459  0.4038  0.2555
42861W        W85773  28.779  29.677  24.718 -0.0215  0.0980 -0.1019
42862W        W85774  32.065  27.802  27.102 -0.2216 -0.0361  0.0150
42863W        W85775  30.998  29.598  25.408  0.0364  0.0860 -0.0274
42864W        W85776  30.336  26.821  25.769  0.0542  0.1677  0.0504
42865W        W85777  31.221  25.650  23.769  0.1951  0.0636  0.2059
42866W        W85778  30.027  30.395  23.729 -0.2011  0.1977 -0.0186
42867W        W85779  28.406  28.955  23.993 -0.0447  0.0626 -0.0688
42868W        W85780  30.221  26.409  24.861  0.4158  0.1755 -0.0568
42869W        W85781  30.105  29.179  25.970  0.1113 -0.0892 -0.3006
42870W        W85782  31.530  29.358  24.285 -0.0540  0.1120  0.1621
42871W        W85783  31.285  27.063  25.850  0.1763  0.1279 -0.0149
42872W        W85784  29.656  28.226  25.374 -0.0644  0.1432  0.1970
42873W        W85785  31.793  25.234  25.953  0.1733 -0.2674  0.1082
42874W        W85786  29.106  29.222  24.868  0.1697  0.0640 -0.1352
42875W        W85787  30.696  26.272  24.896 -0.1105  0.2067 -0.0553
42876W        W85788  28.485  27.854  26.377 -0.0336  0.4773 -0.1107
42877W        W85789  32.376  25.467  26.471 -0.1418  0.0971  0.0223
42878W        W85790  32.853  28.232  24.963 -0.0100 -0.2576  0.4042
42879W        W85791  29.810  26.362  27.382 -0.0402  0.0672  0.1899
42880W        W85792  32.021  25.740  26.117 -0.1156  0.2027  0.0570
42881W        W85793  29.475  28.309  24.696  0.1199  0.3227  0.1799
42882W        W85794  30.460  27.053  27.410  0.0491  0.1564  0.2369
42883W        W85795  31.647  26.161  23.032 -0.2668  0.0152 -0.2293
42884W        W85796  30.615  29.056  26.006 -0.2409  0.3298 -0.2229
42885W        W85797  29.917  27.971  28.273  0.2137  0.1547  0.1608
42886W        W85798  28.991  25.912  23.128 -0.0135  0.1350  0.0571
42887W        W85799  32.643  26.597  27.024 -0.2816 -0.3677 -0.3877
42888W        W85800  30.860  27.325  24.878  0.2570  0.1027  0.2370
42889W        W85801  29.843  27.689  24.921 -0.2074  0.2000 -0.2140
42890W        W85802  30.043  29.383  25.480  0.0003 -0.1059  0.1271
42891W        W85803  31.435  26.903  23.308 -0.1125 -0.0234 -0.0392
42892W        W85804  30.335  28.707  25.845  0.2416 -0.0315 -0.4417
42893W        W85805  29.861  27.177  26.613 -0.2216 -0.2297 -0.0574
42894W        W85806  31.962  26.713  25.904  0.2017  0.1690 -0.0439
42895W        W85807  30.656  27.321  25.901  0.0436  0.4443 -0.2171
42896W        W85808  30.176  27.837  25.266 -0.1195  0.1247  0.0281
42897W        W85809  32.354  27.802  24.296  0.0883 -0.0784  0.2145
42898W        W85810  31.039  28.269  25.638 -0.1599  0.3334 -0.1205
42899W        W85811  30.311  28.163  27.606 -0.1930  0.1906  0.1875
42900W        W85812  31.592  27.891  27.836 -0.1432 -0.1486 -0.1287
42901W        W85813  31.524  25.969  26.486 -0.0756  0.1717 -0.3030
42902W        W85814  32.781  30.416  24.967  0.1297  0.0247 -0.1927
42903W        W85815  31.595  27.937  27.318  0.1450  0.0757  0.2537
42904W        W85816  30.497  27.745  24.423  0.0604 -0.4535 -0.0603
42905W        W85817  28.735  28.417  26.883 -0.3032 -0.0637 -0.1105
42906W        W85818  28.719  28.945  24.404  0.0498 -0.0624 -0.0745
42907W        W85819  30.869  26.802  25.607 -0.1500 -0.2600  0.3210
42908W        W85820  29.393  28.947  26.520  0.0035 -0.1889 -0.0164
42909W        W85821  30.792  30.487  23.587 -0.2443  0.2836 -0.2604
42910W        W85822  28.861  28.348  25.986 -0.1069  0.1443 -0.1951
42911W        W85823  32.516  26.168  25.274 -0.2092 -0.1134  0.1996
42912W        W85824  30.634  29.074  23.702  0.1261 -0.6301  0.2472
42913W        W85825  31.987  26.065  25.205 -0.0342  0.0478 -0.1908
42914W        W85826  33.697  26.434  26.511 -0.2046 -0.0536  0.1071
42915W        W85827  32.553  28.100  25.638 -0.1676 -0.0020 -0.0078
42916W        W85828  32.319  26.061  27.648 -0.1501 -0.0665  0.0580
42917W        W85829  29.999  25.917  28.139 -0.1651 -0.1707  0.0610
42918W        W85830  33.525  28.856  24.961  0.1454 -0.0015  0.0964
42919W        W85831  30.898  26.295  25.976 -0.1383  0.0419  0.3806
42920W        W85832  32.047  28.208  27.366 -0.3113  0.0951 -0.1488
42921W        W85833  30.299  28.299  26.134  0.1425 -0.1943  0.1081
42922W        W85834  32.113  26.374  25.541 -0.2256 -0.2330  0.0258
42923W        W85835  30.958  26.227  24.449 -0.1158  0.0168 -0.0891
42924W        W85836  30.155  28.415  26.658 -0.0336 -0.1371 -0.2274
42925W        W85837  31.403  28.001  24.552  0.2253 -0.0227  0.1494
42926W        W85838  30.653  28.519  24.222  0.0800  0.2141 -0.2628
42927W        W85839  31.912  27.490  25.426  0.2209 -0.0321  0.0574
42928W        W85840  29.487  26.756  26.495 -0.0733 -0.2656 -0.2713
42929W        W85841  31.278  27.270  24.571  0.2768  0.0692 -0.2912
42930W        W85842  31.902  28.829  24.800 -0.0949  0.1044  0.3441
42931W        W85843  30.153  28.468  25.313  0.0069  0.1074  0.2242
42932W        W85844  29.644  26.284  25.680 -0.2295 -0.3315  0.0572
42933W        W85845  31.503  28.506  24.898  0.1245  0.1152 -0.1350
42934W        W85846  30.848  25.813  26.140  0.0021  0.0582  0.4307
42935W        W85847  30.625  27.153  26.479 -0.1523 -0.0274  0.2514
42936W        W85848  31.421  26.646  27.772  0.0223 -0.1063  0.0217
42937W        W85849  30.335  27.751  25.985 -0.0292 -0.2304 -0.0747
42938W        W85850  28.863  26.818  27.178 -0.2310  0.0012  0.1496
42939W        W85851  31.678  28.512  26.497 -0.1436 -0.0503  0.1137
42940W        W85852  31.873  26.471  23.358  0.0515  0.0530 -0.1639
42941W        W85853  33.943  25.786  27.514 -0.3320  0.3064  0.0870
42942W        W85854  32.404  26.942  24.869 -0.0391 -0.0975  0.1848
42943W        W85855  32.242  27.311  24.537 -0.0202  0.2992 -0.0434
42944W        W85856  28.882  27.825  27.061 -0.0749 -0.0386 -0.2239
42945W        W85857  31.070  28.395  28.936 -0.2731  0.0548  0.1351
42946W        W85858  30.489  26.619  23.581 -0.1053 -0.0219 -0.0312
42947W        W85859  31.711  26.949  26.866  0.1247 -0.0775  0.0388
42948W        W85860  31.992  28.862  24.258 -0.1251 -0.1006  0.1825
42949W        W85861  30.971  28.547  24.701  0.1181 -0.1096 -0.2286
42950W        W85862  30.828  26.297  23.660 -0.0383 -0.2110 -0.0362
42951W        W85863  28.725  27.225  25.500  0.0585 -0.1837  0.0633
42952W        W85864  30.809  27.893  27.702  0.1658  0.2054  0.0710
42953W        W85865  30.526  26.338  24.004  0.1378 -0.1573 -0.3781
42954W        W85866  31.038  27.660  22.111 -0.1982 -0.2578  0.0043
42955W        W85867  31.698  28.592  25.887  0.1616  0.1798 -0.0421
42956W        W85868  31.336  28.334  29.430  0.1894  0.0839  0.0626
42957W        W85869  30.185  24.412  23.979 -0.0919 -0.0104 -0.0659
42958W        W85870  32.044  27.813  27.603  0.0376  0.4168  0.1662
42959W        W85871  30.215  28.168  24.200 -0.2025 -0.1261 -0.0529
42960W        W85872  33.527  26.252  25.158 -0.0136 -0.2283  0.2111
42961W        W85873  29.814  28.121  26.273 -0.3357  0.0208 -0.2485
42962W        W85874  28.728  28.090  27.459  0.0370 -0.0805 -0.1115
42963W        W85875  30.641  28.951  25.021  0.3421 -0.3155  0.3755
42964W        W85876  29.801  26.832  27.011  0.1687 -0.1810  0.1649
42965W        W85877  31.122  27.450  26.200  0.0756 -0.1681  0.0273
42966W        W85878  30.283  26.906  24.708 -0.0787 -0.1224 -0.0179
42967W        W85879  32.384  27.581  25.644  0.2376 -0.2473 -0.2492
42968W        W85880  32.914  28.959  26.710  0.1140 -0.0830  0.4196
42969W        W85881  29.515  27.673  25.344  0.0486  0.0228 -0.0307
42970W        W85882  30.580  29.594  26.770 -0.0474 -0.2351  0.1486
42971W        W85883  32.548  29.236  24.883  0.0064  0.1946 -0.0563
42972W        W85884  30.065  28.077  24.656 -0.1019 -0.2866  0.0335
42973W        W85885  29.114  27.536  27.480  0.1949 -0.1636  0.0468
42974W        W85886  32.311  28.767  27.468  0.1925  0.0549 -0.1191
42975W        W85887  31.627  28.915  23.891  0.3074 -0.0515 -0.2107
42976W        W85888  30.117  25.655  25.232  0.1375  0.2498  0.1257
42977W        W85889  30.341  27.679  23.383  0.0178 -0.0509  0.1308
42978W        W85890  30.187  29.348  28.251  0.1673  0.0318 -0.0158
42979W        W85891  29.341  28.512  28.230 -0.1480  0.0570 -0.0759
42980W        W85892  29.156  29.589  23.840  0.0849 -0.5303  0.0822
42981W        W85893  31.895  28.171  23.471  0.2029 -0.1554  0.1704
42982W        W85894  31.218  26.174  22.862 -0.1565 -0.2293 -0.0103
42983W        W85895  31.178  28.878  26.278 -0.2468 -0.0431  0.2008
42984W        W85896  30.138  26.473  24.381  0.1149 -0.2053  0.1408
42985W        W85897  30.048  29.606  24.520  0.3216  0.0842 -0.0054
42986W        W85898  28.582  28.584  24.783  0.0092 -0.0088  0.2110
42987W        W85899  31.867  28.480  25.365  0.0457 -0.0252 -0.1359
42988W        W85900  31.055  28.622  25.191  0.1268 -0.3163 -0.0061
42989W        W85901  32.714  28.505  26.642 -0.0130 -0.0444  0.1610
42990W        W85902  32.469  26.465  22.800  0.1701  0.0502 -0.1500
42991W        W85903  32.326  28.585  25.525  0.1050  0.0085  0.1140
42992W        W85904  32.972  26.899  25.013 -0.1139  0.1063 -0.1650
42993W        W85905  31.147  29.424  29.257  0.2133 -0.2025  0.0585
42994W        W85906  30.366  27.522  24.850  0.2969 -0.0141 -0.0754
42995W        W85907  30.056  25.399  23.977 -0.1630 -0.0869  0.1630
42996W        W85908  30.268  26.350  27.677 -0.0129  0.1547  0.1239
42997W        W85909  33.684  25.058  26.888  0.2024  0.1505 -0.2382
42998W        W85910  29.171  28.913  25.608  0.0777  0.0936 -0.1702
42999W        W85911  31.906  29.361  23.965 -0.1164 -0.0351 -0.0281
43000W        W85912  29.718  25.938  23.581 -0.1978 -0.2158  0.1140
43001W        W85913  31.143  28.228  24.095  0.2808 -0.1452  0.2262
43002W        W85914  32.787  25.078  26.545  0.0321 -0.2846  0.1801
43003W        W85915  31.231  27.578  23.954 -0.0859  0.2637  0.3522
43004W        W85916  31.664  26.488  25.280  0.3916  0.0282  0.0510
43005W        W85917  29.083  30.224  23.403 -0.2570 -0.0238  0.2914
43006W        W85918  29.980  28.273  25.745  0.0186 -0.0914  0.2416
43007W        W85919  29.976  28.855  25.592 -0.0001 -0.0507  0.3443
43008W        W85920  30.096  26.869  25.306  0.3187  0.0646  0.1475
43009W        W85921  32.602  26.030  26.039 -0.3308 -0.0493 -0.1429
43010W        W85922  31.174  27.864  26.434  0.2457  0.0120  0.0537
43011W        W85923  31.388  26.550  26.848 -0.3588  0.1173 -0.2867
43012W        W85924  29.930  27.439  25.325 -0.0171 -0.3127  0.1899
43013W        W85925  31.541  26.052  25.512 -0.0565  0.0144  0.0430
43014W        W85926  32.068  29.606  27.174 -0.0136  0.1346  0.2082
43015W        W85927  28.757  26.122  25.849 -0.2662  0.1496 -0.0955
43016W        W85928  31.519  27.267  23.636  0.0670 -0.1480 -0.4706
43017W        W85929  31.500  27.444  27.115 -0.1522 -0.1266  0.1506
43018W        W85930  31.383  26.744  23.792 -0.4533  0.1912 -0.0641
43019W        W85931  31.156  29.972  27.595  0.1794 -0.1229 -0.2965
43020W        W85932  29.546  27.170  24.022 -0.1861 -0.1560 -0.2912
43021W        W85933  31.885  26.643  24.021 -0.0719  0.1855 -0.0813
43022W        W85934  28.821  26.742  25.378 -0.2554  0.0827  0.0837
43023W        W85935  30.682  27.819  26.808 -0.2933 -0.1803 -0.0141
43024W        W85936  30.038  30.744  26.818 -0.1044 -0.0925  0.1485
43025W        W85937  29.393  25.466  24.795  0.2005  0.3643 -0.2135
43026W        W85938  32.761  28.078  23.318  0.0700 -0.2525  0.0356
43027W        W85939  31.986  27.689  25.931 -0.0494 -0.1998  0.0852
43028W        W85940  28.991  27.674  24.175  0.1306 -0.2192  0.0442
43029W        W85941  30.973  27.033  23.976  0.2423 -0.1769 -0.0521
43030W        W85942  31.960  29.001  26.056 -0.0473 -0.0755 -0.4501
43031W        W85943  29.276  27.342  28.030 -0.0292  0.0792  0.1332
43032W        W85944  31.256  28.725  25.654 -0.2068  0.1250  0.2583
43033W        W85945  33.683  28.583  25.475  0.2277  0.1209 -0.3448
43034W        W85946  30.449  26.352  25.814 -0.1241 -0.2500 -0.4375
43035W        W85947  28.846  27.102  26.735 -0.0321 -0.0041  0.3048
43036W        W85948  27.890  28.739  24.230  0.1781 -0.1056  0.2713
43037W        W85949  32.184  26.959  25.382 -0.1907  0.3672 -0.2534
43038W        W85950  31.000  26.921  27.566  0.0693  0.1820  0.1672
43039W        W85951  31.297  30.170  24.224 -0.0198  0.2146 -0.1859
43040W        W85952  32.409  25.642  27.315 -0.1715 -0.1081 -0.1700
43041W        W85953  30.654  28.330  26.498 -0.1410  0.0751 -0.0707
43042W        W85954  30.336  28.759  28.237  0.0294 -0.1532 -0.2058
43043W        W85955  30.709  28.017  23.166  0.1005  0.0321 -0.0717
43044W        W85956  31.224  29.466  27.366 -0.1010  0.2574  0.0628
43045W        W85957  31.200  27.883  23.115 -0.0056 -0.1317  0.0377
43046W        W85958  30.711  29.601  24.415 -0.1400  0.0422  0.0950
43047W        W85959  31.515  29.110  25.837 -0.0139  0.1757  0.0077
43048W        W85960  33.113  27.267  25.353  0.2348  0.3055 -0.0260
43049W        W85961  33.149  27.833  25.564  0.2146  0.1340  0.1442
43050W        W85962  30.581  26.614  24.480  0.1036 -0.1840 -0.0147
43051W        W85963  31.294  25.983  26.022  0.3933 -0.1942 -0.1009
43052W        W85964  32.608  26.485  23.346  0.1811 -0.1908  0.1543
43053W        W85965  30.585  28.444  28.695  0.1443  0.0037  0.0074
43054W        W85966  29.788  27.250  24.646 -0.1970 -0.1704  0.0308
43055W        W85967  29.619  27.506  23.384  0.1795 -0.0002 -0.0023
43056W        W85968  29.782  28.090  26.829 -0.0056  0.0426 -0.1992
43057W        W85969  30.686  24.878  27.804 -0.0718  0.0332 -0.1934
43058W        W85970  29.195  26.151  27.407 -0.0910 -0.0717  0.1222
43059W        W85971  28.541  27.579  26.802  0.2029  0.0079  0.1816
43060W        W85972  29.986  27.140  23.711 -0.2180 -0.1312 -0.0367
43061W        W85973  31.357  28.135  22.247 -0.0693 -0.1010 -0.0659
43062W        W85974  31.023  26.286  25.454  0.0248  0.2967  0.0341
43063W        W85975  29.390  27.510  25.784 -0.0738  0.0683 -0.2617
43064W        W85976  31.991  29.029  25.551 -0.0895  0.0526 -0.3539
43065W        W85977  31.402  27.783  25.914 -0.0073 -0.0728 -0.3919
43066W        W85978  31.733  26.187  24.753 -0.2335  0.2807  0.4584
43067W        W85979  31.753  28.172  28.486  0.1312  0.2394 -0.0522
43068W        W85980  30.104  27.476  24.389  0.0077 -0.0831  0.2844
43069W        W85981  31.046  27.892  27.144  0.1150 -0.1314  0.0592
43070W        W85982  29.497  26.901  27.848 -0.1647  0.2908 -0.0077
43071W        W85983  30.760  25.768  23.600  0.1111 -0.0911  0.0274
43072W        W85984  30.956  27.291  25.453  0.1504 -0.2759 -0.0731
43073W        W85985  32.200  28.251  25.937  0.1182  0.0623  0.0526
43074W        W85986  32.484  29.306  23.930 -0.0689  0.2080  0.1567
43075W        W85987  30.199  27.118  26.213 -0.1106 -0.0968 -0.0375
43076W        W85988  30.508  29.806  27.177  0.1539  0.1708  0.1609
43077W        W85989  29.923  24.449  27.367  0.1492  0.0461  0.0228
43078W        W85990  31.788  27.892  22.892 -0.0316 -0.0760  0.1174
43079W        W85991  31.508  28.431  27.324  0.3046 -0.1861 -0.0973
43080W        W85992  32.255  28.331  25.115  0.1756  0.1705 -0.2230
43081W        W85993  32.796  25.164  25.694 -0.1238  0.5277 -0.2180
43082W        W85994  32.256  27.880  22.580 -0.2181 -0.1213  0.0210
43083W        W85995  29.036  26.644  26.696 -0.0483  0.3941 -0.1776
43084W        W85996  30.974  28.962  27.493 -0.1494  0.0809  0.1299
43085W        W85997  31.509  28.160  25.593 -0.2831 -0.0595  0.1731
43086W        W85998  31.162  28.134  25.195 -0.0329  0.0234  0.0643
43087W        W85999  31.695  26.247  26.057 -0.1001 -0.1198  0.0564
43088W        W86000  31.378  28.372  23.273  0.1832 -0.0841  0.4147
43089W        W86001  29.425  27.677  28.351  0.0768  0.1210  0.2166
43090W        W86002  31.581  25.780  24.042 -0.0193 -0.0401 -0.0325
43091W        W86003  30.432  28.681  27.788 -0.1195  0.2950  0.1833
43092W        W86004  31.676  27.797  25.117  0.3750  0.2753  0.2494
43093W        W86005  31.782  28.754  27.625 -0.0878  0.0788 -0.1212
43094W        W86006  30.740  25.184  24.534 -0.4228  0.2269  0.4763
43095W        W86007  32.175  27.035  23.950  0.0951  0.0899  0.1199
43096W        W86008  32.949  29.624  27.360 -0.3039  0.0687  0.0007
43097W        W86009  32.160  28.454  27.791  0.0464 -0.1318 -0.0410
43098W        W86010  30.129  29.011  25.175 -0.0404 -0.0688  0.0382
43099W        W86011  32.013  27.348  24.958  0.1053  0.0373 -0.1053
43100W        W86012  29.408  25.804  25.440  0.3841  0.2330  0.0679
43101W        W86013  31.527  27.187  25.026 -0.1086  0.1776 -0.0873
43102W        W86014  31.412  27.488  25.578 -0.1927  0.5492 -0.3091
43103W        W86015  33.623  28.836  26.493  0.0266 -0.0704  0.0735
43104W        W86016  30.583  27.585  25.432  0.6242 -0.0440 -0.2311
43105W        W86017  31.893  26.176  23.823 -0.1445 -0.2282  0.1716
43106W        W86018  29.536  29.101  25.960 -0.0629  0.1418 -0.2588
43107W        W86019  30.937  29.181  25.657  0.2496  0.0460  0.1324
43108W        W86020  30.675  28.380  30.215 -0.3996 -0.1381 -0.1359
43109W        W86021  31.548  25.684  28.266  0.0307  0.0450  0.0973
43110W        W86022  33.167  26.749  28.294 -0.1173 -0.1777  0.2040
43111W        W86023  32.903  27.269  30.263  0.0537 -0.0575  0.1410
43112W        W86024  28.702  27.273  28.640  0.0171 -0.0404  0.0290
43113W        W86025  30.406  30.561  28.205  0.1014  0.1841  0.0505
43114W        W86026  30.195  26.672  30.091  0.0001  0.2500 -0.2734
43115W        W86027  30.848  30.627  28.860  0.0500  0.1738 -0.2707
43116W        W86028  32.363  29.881  29.880 -0.1271  0.1358  0.0963
43117W        W86029  31.563  27.726  28.375  0.3983 -0.0801 -0.0277
43118W        W86030  29.970  27.915  28.991 -0.4098 -0.1817 -0.1079
43119W        W86031  29.964  29.489   0.124 -0.1733  0.1717 -0.1594
43120W        W86032  29.502  25.327  30.030  0.2017 -0.0631 -0.2841
43121W        W86033  29.966  26.012  29.751 -0.0955 -0.1322 -0.1421
43122W        W86034  31.694  27.803  30.448  0.0512 -0.3993  0.0552
43123W        W86035  28.468  26.226  29.106 -0.0649  0.0014 -0.0466
43124W        W86036  31.144  26.379  30.713 -0.0181  0.0360 -0.0115
43125W        W86037  31.978  26.349  27.872  0.0203 -0.1700 -0.0395
43126W        W86038  30.684  28.630  29.691 -0.2548  0.0277 -0.4153
43127W        W86039  31.384  26.928  30.615  0.1124  0.3890  0.0883
43128W        W86040  31.232  26.737  31.263  0.0083 -0.0294 -0.2425
43129W        W86041  31.127  28.863  29.464  0.0601 -0.2657 -0.3550
43130W        W86042  29.374  26.705  27.381  0.0312  0.3815 -0.1294
43131W        W86043  29.625  24.947  30.280  0.0962  0.1260 -0.2264
43132W        W86044  30.111  27.876  31.216 -0.0525 -0.0134 -0.2231
43133W        W86045  33.106  23.826  29.093  0.3083  0.1712  0.2771
43134W        W86046  32.115  28.409  29.907 -0.0725 -0.1223  0.0970
43135W        W86047  31.303  27.542  28.790  0.0425  0.1036  0.0851
43136W        W86048  29.990  27.795  30.596 -0.0595 -0.1342  0.0188
43137W        W86049  31.939  28.867  31.810  0.0266 -0.1072 -0.3704
43138W        W86050  28.675  28.116  29.457 -0.1636  0.4202 -0.1741
43139W        W86051  26.866  29.034  30.043  0.2437  0.0049 -0.0252
43140W        W86052  30.303  28.497  29.436  0.1377 -0.0933 -0.0674
43141W        W86053  30.652  29.754  29.411 -0.0472 -0.0260 -0.1311
43142W        W86054  31.800  28.907  30.719 -0.1265  0.0462  0.0277
43143W        W86055  30.881  29.906   0.652 -0.1149  0.0519 -0.1473
43144W        W86056  29.666  27.312  28.973 -0.2484 -0.0227 -0.0483
43145W        W86057  30.819  29.783  30.992  0.0601  0.1484 -0.0403
43146W        W86058  31.203  29.103  30.652 -0.0373  0.5713 -0.4888
43147W        W86059  31.065  28.241  29.897 -0.1872 -0.1879  0.0195
43148W        W86060  31.319  29.116  27.871 -0.1158 -0.0910 -0.2671
43149W        W86061  29.945  29.269  28.970  0.0360  0.0845 -0.1147
43150W        W86062  31.296  27.312  28.348 -0.2884 -0.3789  0.1954
43151W        W86063  29.740  28.225  31.368 -0.1553  0.0295  0.0715
43152W        W86064  29.831  27.547  29.707  0.1752  0.1080 -0.0560
43153W        W86065  31.880  27.581  31.110  0.0792  0.1826 -0.1428
43154W        W86066  29.925  29.063  27.917 -0.0750 -0.0626  0.1063
43155W        W86067  30.480  27.685  28.056 -0.2464 -0.2449  0.1023
43156W        W86068  30.074  26.875  28.194 -0.0592  0.1927  0.0979
43157W        W86069  32.404  25.019  29.070 -0.2916 -0.4922 -0.2081
43158W        W86070  31.421  24.950  29.524 -0.0069 -0.1899 -0.0065
43159W        W86071  30.250  30.567  31.028 -0.3334 -0.0298  0.3412
43160W        W86072  30.602  25.442  30.312  0.0547  0.0677  0.0876
43161W        W86073  31.079  29.347  31.168  0.1776 -0.0808  0.3345
43162W        W86074  32.007  27.331  27.003 -0.1727  0.1247 -0.2154
43163W        W86075  31.521  26.384  30.986 -0.0402 -0.0774 -0.0310
43164W        W86076  29.485  29.130   0.334 -0.1139 -0.1551 -0.0860
43165W        W86077  30.931  26.881  29.658  0.2744  0.2035 -0.2054
43166W        W86078  30.609  29.153  27.938 -0.1156  0.1028 -0.2601
43167W        W86079  32.212  27.843  29.428 -0.2704  0.2808  0.0370
43168W        W86080  32.258  30.427  28.375 -0.0535  0.0941 -0.0700
43169W        W86081  29.438  27.370  29.491 -0.0946 -0.1632  0.0383
43170W        W86082  28.819  27.854  31.072 -0.3885  0.0475 -0.0109
43171W        W86083  29.671  26.890  29.548  0.0381 -0.0137  0.3073
43172W        W86084  29.893  26.327  26.864  0.1648 -0.0865  0.2022
43173W        W86085  32.785  27.621  29.813 -0.1121  0.0937  0.2053
43174W        W86086  29.886  27.902  31.816  0.1809 -0.3050 -0.0844
43175W        W86087  33.169  26.912  29.389  0.1539 -0.1473  0.2367
43176W        W86088  29.782  28.154  27.491  0.1654  0.1269 -0.0162
43177W        W86089  31.453  29.241  29.663 -0.2280 -0.0589 -0.3682
43178W        W86090  31.894  29.379  28.070 -0.0702 -0.1293 -0.0843
43179W        W86091  33.074  26.451  27.880 -0.3373 -0.0793 -0.1495
43180W        W86092  31.489  25.954  29.372  0.0054 -0.1834 -0.0528
43181W        W86093  30.057  27.504  29.292  0.0046 -0.3913  0.1413
43182W        W86094  31.306  28.210  28.148 -0.0211  0.4895 -0.2128
43183W        W86095  31.196  28.467  31.943 -0.1855  0.0532 -0.0223
43184W        W86096  32.437  27.971  29.912 -0.1934  0.0155  0.1317
43185W        W86097  29.870  28.891  30.907 -0.3402  0.0652 -0.0471
43186W        W86098  29.538  27.422  31.893 -0.0668 -0.1957  0.2876
43187W        W86099  29.499  29.349  31.869 -0.0328 -0.1360 -0.0057
43188W        W86100  30.620  28.217  27.177 -0.0674  0.0831 -0.0851
43189W        W86101  29.232  26.786  28.318 -0.1410 -0.1276  0.0940
43190W        W86102  29.881  27.454  28.089 -0.0247 -0.0066  0.0662
43191W        W86103  30.068  26.257  31.395 -0.1401 -0.1718  0.2030
43192W        W86104  31.655  28.470  30.576  0.2672 -0.1621 -0.1990
43193W        W86105  32.766  26.428  28.347 -0.2687 -0.3803  0.3355
43194W        W86106  30.838  26.791  30.939  0.0248 -0.1158  0.1810
43195W        W86107  32.694  25.491  28.247 -0.1644  0.0602 -0.1278
43196W        W86108  31.119  27.758  28.087 -0.3713 -0.0568  0.0329
43197W        W86109  32.488  28.793  30.086 -0.0114  0.4045 -0.1569
43198W        W86110  31.812  26.863  28.099 -0.2758  0.0950  0.2020
43199W        W86111  31.430  28.941  27.253 -0.0843  0.1917  0.1755
43200W        W86112  28.623  27.324  29.635  0.1264 -0.0214  0.2186
43201W        W86113  28.506  25.390  29.799  0.1638 -0.1014  0.3574
43202W        W86114  29.642  25.402  30.540 -0.1382  0.4655  0.0075
43203W        W86115  29.912  26.210  30.331  0.1128 -0.1784  0.0863
43204W        W86116  32.035  27.585   0.054 -0.2856  0.0438 -0.0071
43205W        W86117  29.978  25.409  28.400  0.0604  0.0594 -0.2051
43206W        W86118  30.912  27.161  28.091  0.0571 -0.0890  0.0415
43207W        W86119  30.816  27.444  29.003  0.0160  0.3687 -0.3444
43208W        W86120  28.691  28.190  28.782  0.4290  0.1897  0.0204
43209W        W86121  31.411  26.062   0.703  0.3324 -0.1531 -0.0847
43210W        W86122  30.448  29.456  29.057 -0.0183 -0.2858  0.1967
43211W        W86123  31.974  29.974  30.584  0.2822  0.1895 -0.0202
43212W        W86124  31.315  29.481  28.824 -0.0673 -0.4497  0.0487
43213W        W86125  30.719  26.499  29.916 -0.0862  0.1834 -0.2855
43214W        W86126  29.362  27.008  29.142 -0.2100 -0.0322  0.1571
43215W        W86127  29.879  28.602  29.216  0.0089 -0.1184  0.0845
43216W        W86128  29.585  27.966  29.918  0.1077  0.1669  0.0056
43217W        W86129  30.044  26.959  29.192 -0.2001  0.1752  0.0150
43218W        W86130  33.831  28.791  29.419  0.1093 -0.2109 -0.1247
43219W        W86131  30.367  29.022  28.729  0.1743  0.2303  0.1157
43220W        W86132  28.655  27.827  29.916 -0.1876 -0.3378 -0.2152
43221W        W86133  32.231  27.156  31.846  0.0374  0.0395 -0.0668
43222W        W86134  31.095  28.328  31.190  0.1339  0.5248  0.3379
43223W        W86135  31.868  26.833  29.451  0.0057 -0.2100 -0.3455
43224W        W86136  28.515  24.864  27.413  0.3339  0.1279  0.0135
43225W        W86137  32.639  29.662  28.929 -0.0866 -0.2559 -0.1508
43226W        W86138  29.646  30.039  28.162 -0.0273 -0.1551 -0.0203
43227W        W86139  29.397  27.024  30.122  0.0755 -0.0686  0.1270
43228W        W86140  30.754  29.166  29.347  0.2124 -0.1043  0.0431
43229W        W86141  32.341  26.279  29.346 -0.2068  0.0750  0.1418
43230W        W86142  28.443  27.863   0.015  0.3827  0.0822 -0.0497
43231W        W86143  31.526  25.710   0.169 -0.1976 -0.3332  0.4246
43232W        W86144  30.844  27.577  28.486  0.1943  0.0863 -0.1324
43233W        W86145  31.057  27.910  29.259  0.2701 -0.0793 -0.1145
43234W        W86146  31.764  25.324  29.682  0.0004 -0.0730 -0.2616
43235W        W86147  33.946  25.184  28.996 -0.0511 -0.2225 -0.0263
43236W        W86148  31.605  28.005  31.225  0.0785  0.0841 -0.2410
43237W        W86149  30.260  28.307  28.978  0.0315 -0.0053 -0.0331
43238W        W86150  30.922  27.097  28.617 -0.1795  0.3300  0.1261
43239W        W86151  29.312  27.227  26.450 -0.1250  0.2750  0.1782
43240W        W86152  30.192  27.270  30.753  0.0585 -0.0283 -0.2380
43241W        W86153  30.955  29.159  28.274 -0.1046 -0.1174 -0.1139
43242W        W86154  31.159  27.972  28.634 -0.1932  0.1385 -0.0035
43243W        W86155  30.699  27.943  28.916 -0.1063  0.0442  0.2259
43244W        W86156  33.524  28.319  28.259 -0.6475 -0.1295 -0.0583
43245W        W86157  29.599  27.838  29.391 -0.0133  0.2476  0.0218
43246W        W86158  31.049  27.602  31.898 -0.0404  0.0143  0.2419
43247W        W86159  30.049  28.382  31.031 -0.0252  0.0142  0.0094
43248W        W86160  30.068  25.282  30.241 -0.0460  0.1671  0.0709
43249W        W86161  29.614  27.741  27.188 -0.0542  0.1210  0.2626
43250W        W86162  29.966  26.876  27.537 -0.3384  0.2834  0.1890
43251W        W86163  30.338  29.047  27.464 -0.1583 -0.1558 -0.0815
43252W        W86164  31.603  26.511  30.386  0.1679 -0.0360 -0.0805
43253W        W86165  31.155  25.839  29.859  0.0217 -0.0792 -0.3483
43254W        W86166  30.434  24.233  31.190  0.3740  0.4291 -0.1854
43255W        W86167  31.503  27.193   0.028 -0.1312 -0.3299 -0.1817
43256W        W86168  32.237  27.141  28.398  0.6076  0.1182 -0.0848
43257W        W86169  32.195  27.658  30.743 -0.1498 -0.2962 -0.2257
43258W        W86170  30.381  26.893  26.832 -0.0270  0.0895  0.1260
43259W        W86171  30.504  25.562  29.730  0.1041  0.1975 -0.1505
43260W        W86172  29.482  27.489  30.227 -0.0050  0.1102  0.0823
43261W        W86173  29.523  28.074  30.942 -0.4293 -0.2254  0.0783
43262W        W86174  31.574  28.904  30.244 -0.1144  0.0329  0.2960
43263W        W86175  31.484  26.608  28.877  0.1833  0.0093  0.1342
43264W        W86176  30.684  26.857  31.516  0.0425 -0.1323  0.5500
43265W        W86177  30.635  26.743  28.348 -0.0889  0.1005 -0.1320
43266W        W86178  30.355  27.866  28.494 -0.2205  0.0766 -0.2246
43267W        W86179  30.058  28.359  28.501  0.1742 -0.3326  0.2547
43268W        W86180  30.406  25.803  30.719  0.0162 -0.1257  0.3150
43269W        W86181  30.747  30.213  29.264 -0.0385 -0.0376  0.1058
43270W        W86182  30.315  27.502  28.912  0.1956  0.2619  0.2253
43271W        W86183  32.136  28.573  30.893 -0.0629 -0.0686 -0.3627
43272W        W86184  28.769  27.567  28.230 -0.2408 -0.1526  0.2396
43273W        W86185  30.743  27.386  31.566 -0.2149  0.0379 -0.0583
43274W        W86186  28.389  28.222  29.844  0.0335  0.0838  0.0436
43275W        W86187  30.496  25.921  27.851 -0.2268  0.0702 -0.1366
43276W        W86188  29.006  27.839  27.896  0.3301 -0.1985  0.0184
43277W        W86189  32.467  26.224  28.861 -0.3326 -0.0246 -0.1140
43278W        W86190  32.300  27.480  29.858  0.2298 -0.1790  0.0150
43279W        W86191  29.766  26.940  31.134  0.0404  0.1437 -0.2671
43280W        W86192  30.923  26.554  28.692 -0.0883 -0.3375 -0.0493
43281W        W86193  26.796  28.780  31.432  0.0676 -0.1167  0.2922
43282W        W86194  30.664  27.866  29.973  0.0696 -0.0612 -0.0543
43283W        W86195  31.670  26.158  28.934 -0.0778  0.0533  0.1220
43284W        W86196  31.115  28.943  29.998 -0.1329 -0.0898  0.0144
43285W        W86197  30.459  27.840   0.429 -0.0857 -0.0000  0.2325
43286W        W86198  28.151  25.296  26.854 -0.1019 -0.1064 -0.1462
43287W        W86199  32.068  28.410  31.916 -0.1628 -0.2563 -0.0843
43288W        W86200  29.706  25.809  30.197 -0.2223  0.0979  0.2153
43289W        W86201  29.549  27.256  27.465 -0.1914 -0.0980 -0.0288
43290W        W86202  31.196  28.490  30.314 -0.1728 -0.0916  0.1272
43291W        W86203  30.391  27.220  28.438 -0.3577  0.0473  0.3864
43292W        W86204  29.478  28.264  29.146  0.1001 -0.0430  0.1433
43293W        W86205  30.338  26.809  31.166  0.1086  0.0458  0.2021
43294W        W86206  31.561  28.181  31.762 -0.0354  0.0491 -0.2708
43295W        W86207  31.982  25.899  29.477 -0.0061 -0.0077 -0.0132
43296W        W86208  31.009  26.246  29.589  0.0774  0.0293 -0.0888
43297W        W86209  31.152  26.255  28.998  0.0817 -0.1149  0.0815
43298W        W86210  31.289  29.406  30.180  0.0991 -0.0404 -0.1169
43299W        W86211  31.218  27.223  31.041 -0.0194  0.1120  0.0508
43300W        W86212  29.824  27.501  31.537  0.0184  0.0880  0.1539
43301W        W86213  30.315  23.478  30.371  0.2437  0.1511 -0.4247
43302W        W86214  32.627  29.114  29.356  0.5492  0.1002  0.0875
43303W        W86215  30.819  27.985  30.521  0.1316 -0.0943  0.1821
43304W        W86216  29.614  27.140  28.343 -0.5592 -0.0717  0.2245
43305W        W86217  29.030  29.398  30.640 -0.1887  0.0346 -0.3524
43306W        W86218  30.008  28.827  29.655  0.1022  0.0725 -0.2521
43307W        W86219  30.353  28.052  30.388  0.3708  0.0667 -0.0919
43308W        W86220  29.571  28.432  30.567  0.2416 -0.2122  0.1241
43309W        W86221  30.922  28.773  28.663  0.2829  0.6550  0.0827
43310W        W86222  29.458  29.707  30.870  0.1652  0.3881  0.1709
43311W        W86223  32.552  25.819  29.421  0.0009 -0.2550  0.2273
43312W        W86224  31.727  29.283  27.450 -0.0746  0.0344 -0.2876
43313W        W86225  31.678  25.542  29.194 -0.4928  0.0808 -0.1679
43314W        W86226  32.410  25.928  30.389 -0.2514  0.3067  0.2402
43315W        W86227  31.849  27.344  29.652  0.0751  0.1731 -0.0678
43316W        W86228  31.617  26.803   0.288 -0.1797  0.5343 -0.1629
43317W        W86229  28.900  24.625  30.536  0.2455 -0.1507  0.1345
43318W        W86230  31.336  28.612  28.495  0.0585  0.0358  0.4549
43319W        W86231  29.137  27.928  30.113 -0.3093  0.0223 -0.2253
43320W        W86232  32.110  30.633  30.666  0.1039 -0.1966 -0.0549
43321W        W86233  27.945  28.771  31.927 -0.1329 -0.0014 -0.2596
43322W        W86234  31.925  26.829  28.674 -0.0045  0.2298 -0.0481
43323W        W86235  29.400  25.371  28.371  0.0339  0.0585 -0.3360
43324W        W86236  31.105  26.311  30.228 -0.0308 -0.0264 -0.1227
43325W        W86237  32.593  28.533  29.214 -0.1726  0.3029 -0.3120
43326W        W86238  32.380  28.314  27.054  0.2589  0.0401 -0.1549
43327W        W86239  32.021  26.524  29.003 -0.0952  0.0330 -0.1131
43328W        W86240  30.601  26.966  30.105 -0.1779  0.1002  0.2377
43329W        W86241  31.855  27.582  29.046  0.0330 -0.1445 -0.2067
43330W        W86242  31.213  28.132  27.613  0.0820 -0.1189 -0.1030
43331W        W86243  29.437  28.743  29.514 -0.1209  0.1391 -0.1189
43332W        W86244  30.078  26.188  30.860  0.0362  0.1965 -0.2251
43333W        W86245  31.619  28.519  29.015 -0.0215  0.1693  0.2505
43334W        W86246  32.653  25.311  29.609  0.2098  0.0135 -0.1056
43335W        W86247  31.600  26.251   0.301  0.2372  0.0880 -0.0852
43336W        W86248  31.735  27.385  31.611 -0.2863  0.1240  0.1000
43337W        W86249  30.708  27.297  31.043  0.1012  0.1107 -0.1739
43338W        W86250  29.299  25.587  30.846  0.1728 -0.2348  0.1898
43339W        W86251  30.362  30.093  30.793 -0.4654 -0.1201 -0.0705
43340W        W86252  31.384  26.514  25.748  0.0625  0.4416  0.2182
43341W        W86253  32.281  26.056  31.099 -0.1663  0.0854 -0.1152
43342W        W86254  32.630  28.110  28.989 -0.0364 -0.0345 -0.0330
43343W        W86255  31.252  27.579  27.533  0.0730  0.0800 -0.0867
43344W        W86256  29.304  26.504  29.406 -0.1273  0.0197 -0.0120
43345W        W86257  31.110  28.916   1.625 -0.0298  0.2437 -0.0563
43346W        W86258  30.212  27.258  27.793 -0.6906  0.1538  0.0142
43347W        W86259  31.059  27.154   0.295  0.0555 -0.0239  0.1035
43348W        W86260  29.536  29.658  29.328  0.1257  0.0257  0.1140
43349W        W86261  32.219  29.308  29.036  0.0732  0.0145  0.0009
43350W        W86262  30.566  27.363  26.990  0.0540 -0.2131 -0.2233
43351W        W86263  30.822  25.911  30.503 -0.0088  0.0581 -0.1311
43352W        W86264  29.323  28.581   1.034  0.3171  0.1254  0.1685
43353W        W86265  30.527  27.728  27.331  0.0557  0.0073 -0.0105
43354W        W86266  30.802  28.130  28.341 -0.0025  0.0754 -0.2025
43355W        W86267  31.895  28.095  30.774 -0.2318 -0.1316  0.0740
43356W        W86268  31.808  29.468  31.881 -0.0254 -0.0168  0.1857
43357W        W86269  29.126  25.885  28.720  0.1514 -0.3107 -0.1648
43358W        W86270  32.271  27.324  29.392  0.1522  0.0229  0.0246
43359W        W86271  28.478  26.875  29.778  0.0308  0.0587  0.0118
43360W        W86272  32.046  24.232  29.428 -0.2414  0.0706  0.1156
43361W        W86273  29.828  28.879  30.335  0.1882 -0.2341 -0.0993
43362W        W86274  29.566  28.989  31.419 -0.1756  0.1276 -0.1532
43363W        W86275  28.936  28.440  30.946 -0.2294  0.3729  0.0828
43364W        W86276  32.366  24.696  30.677  0.0211  0.1760  0.2094
43365W        W86277  31.475  27.430  30.150  0.1625  0.0765  0.0857
43366W        W86278  30.556  26.882  28.849  0.2502  0.2496  0.2720
43367W        W86279  32.231  28.006  31.186 -0.0336 -0.2274  0.0152
43368W        W86280  32.100  28.531  30.409  0.1933 -0.2943  0.0241
43369W        W86281  31.265  26.226  28.484 -0.2568 -0.1722 -0.0979
43370W        W86282  29.887  28.260  30.189  0.3101 -0.1986  0.0974
43371W        W86283  31.736  28.063  29.469  0.2128 -0.0239 -0.1985
43372W        W86284  29.030  27.693  29.483 -0.1243 -0.3952 -0.1979
43373W        W86285  28.827  27.333  31.113  0.2317  0.0381 -0.2747
43374W        W86286  31.094  28.043  31.654  0.0563 -0.0289 -0.3092
43375W        W86287  31.456  27.523  29.362 -0.1121 -0.4801  0.0321
43376W        W86288  31.205  25.751  29.015 -0.0431 -0.2040  0.0073
43377W        W86289  29.944  28.714  27.513 -0.0450  0.0655  0.0880
43378W        W86290  29.385  28.445   0.128  0.1512  0.0619 -0.1201
43379W        W86291  29.574  29.106  29.862 -0.1682  0.0859  0.2353
43380W        W86292  29.738  29.191  29.424 -0.1219  0.1975 -0.0732
43381W        W86293  31.984  29.252  29.479  0.0150 -0.2483 -0.1636
43382W        W86294  30.928  29.604  28.478 -0.0692 -0.0668  0.2905
43383W        W86295  30.312  28.768  30.106 -0.0722  0.0048  0.1922
43384W        W86296  31.024  27.268  27.269 -0.1154  0.2829  0.0538
43385W        W86297  30.465  29.600  29.929  0.2641  0.2656  0.3339
43386W        W86298  30.286  29.019  29.261 -0.0672  0.0570  0.0991
43387W        W86299  32.033  27.922  28.102  0.0718 -0.2929  0.0851
43388W        W86300  29.705  26.451  29.897  0.1922 -0.1237 -0.0429
43389W        W86301  31.432  28.890   0.079  0.1773  0.0336 -0.1141
43390W        W86302  32.601  26.882  27.545 -0.1229  0.1090 -0.1941
43391W        W86303  33.384  28.368  30.251 -0.1235 -0.0219 -0.2333
43392W        W86304  32.798  25.639  27.760 -0.2768  0.1155 -0.0901
43393W        W86305  30.884  28.929   0.023 -0.2837  0.2888  0.0331
43394W        W86306  31.344  27.093  29.683 -0.3484  0.0798  0.2169
43395W        W86307  30.282  26.367  28.234 -0.2475  0.0699  0.2797
43396W        W86308  30.500  27.567  30.372 -0.0773  0.1332  0.0026
43397W        W86309  33.483  26.482   0.504 -0.1780 -0.0623  0.0929
43398W        W86310  30.222  26.829  31.641  0.0789 -0.0077  0.2038
43399W        W86311  32.793  29.305  27.673  0.0601  0.1379  0.2574
43400W        W86312  29.993  26.503  29.542  0.0077 -0.1855  0.3943
43401W        W86313  30.452  26.724  29.523 -0.2156  0.2084 -0.0505
43402W        W86314  33.150  25.265  29.752  0.1258 -0.3431 -0.1172
43403W        W86315  31.439  26.988  27.348  0.1244  0.1651  0.0572
43404W        W86316  31.420  26.856  28.442  0.3128  0.1154 -0.2795
43405W        W86317  30.751  28.286  29.317  0.1906  0.3684  0.0337
43406W        W86318  29.759  28.396  29.702  0.0727 -0.0223 -0.0322
43407W        W86319  30.697  28.794  30.474 -0.3747  0.1578 -0.0360
43408W        W86320  29.207  27.246  28.598  0.3160 -0.3103  0.0308
43409W        W86321  32.370  25.455  28.799 -0.2982 -0.2359  0.0196
43410W        W86322  30.921  27.447  30.057  0.0697  0.1611  0.1026
43411W        W86323  31.918  26.056  30.313  0.2428 -0.0879 -0.0437
43412W        W86324  31.162  27.013  29.153  0.0141 -0.0791 -0.3391
43413W        W86325  30.886  29.222  28.869  0.1516 -0.0926 -0.1478
43414W        W86326  30.134  30.409   0.882  0.2216  0.1218 -0.0461
43415W        W86327  29.302  27.246  31.125 -0.0706 -0.0325  0.0873
43416W        W86328  30.428  25.897  28.355  0.0668 -0.0141  0.0482
43417W        W86329  32.942  28.675  31.426 -0.0403 -0.2502  0.2049
43418W        W86330  29.993  27.094  28.689 -0.0582  0.2189 -0.1314
43419W        W86331  29.672  28.799  31.962  0.1552 -0.2704  0.1645
43420W        W86332  28.803  27.192  29.160  0.2590  0.1884  0.1522
43421W        W86333  30.728  27.392  27.679  0.2373 -0.1587 -0.0237
43422W        W86334  31.303  26.587  29.394  0.0313 -0.0413 -0.1124
43423W        W86335  29.127  28.035  30.624 -0.1827  0.0639  0.2508
43424W        W86336  31.095  29.614  30.601 -0.0286  0.0889  0.0052
43425W        W86337  29.929  27.577  28.579 -0.0940  0.3037  0.3208
43426W        W86338  31.575  29.129  28.541 -0.1213  0.0637  0.2737
43427W        W86339  32.549  27.763  30.381  0.0803  0.2153  0.1375
43428W        W86340  29.441  29.426  28.843 -0.0557 -0.1935 -0.1154
43429W        W86341  32.110  27.996  30.258 -0.2151 -0.0869 -0.1305
43430W        W86342  30.462  29.586  30.437  0.1373 -0.2961 -0.1181
43431W        W86343  29.841  26.985  30.478  0.0328 -0.5236  0.3017
43432W        W86344  30.913  29.496   0.340  0.2419  0.2030  0.0088
43433W        W86345  32.135  29.010  30.331  0.3764  0.0744 -0.0585
43434W        W86346  30.529  25.433  27.966 -0.1296 -0.1415  0.0409
43435W        W86347  30.551  27.721  29.417  0.2896 -0.2342 -0.0140
43436W        W86348  30.504  29.090  29.740  0.0326  0.0908  0.1518
43437W        W86349  32.452  26.752  28.764  0.2391 -0.1348  0.1157
43438W        W86350  31.534  27.701  31.891  0.1660  0.0421  0.0266
43439W        W86351  30.169  28.000  29.472 -0.0837 -0.2381 -0.1651
43440W        W86352  30.393  26.291  30.377  0.0135  0.1695 -0.0294
43441W        W86353  30.155  27.242  30.187  0.3204 -0.0032 -0.0771
43442W        W86354  30.473  30.878   0.261  0.3876  0.1709  0.0185
43443W        W86355  29.101  26.499  27.762 -0.1286 -0.1347 -0.0703
43444W        W86356  30.741  28.018  31.268  0.1617  0.1286  0.1540
43445W        W86357  30.111  29.544  29.468 -0.0690 -0.1127  0.1631
43446W        W86358  30.436  29.653  28.590  0.1146 -0.2456  0.1215
43447W        W86359  31.518  28.025  29.007 -0.2955 -0.1097  0.0464
43448W        W86360  31.379  27.135  27.873  0.1974  0.0686 -0.0811
43449W        W86361  32.550  28.826  30.641 -0.0660 -0.0461  0.0563
43450W        W86362  29.985  25.493  29.786  0.0404 -0.1531  0.0586
43451W        W86363  32.581  25.599  30.060 -0.1839  0.0341  0.2486
43452W        W86364  32.355  24.850  29.681  0.2841 -0.1948  0.2379
43453W        W86365  31.079  26.976  30.184 -0.2526  0.2212  0.1098
43454W        W86366  29.791  26.455  27.904 -0.5121 -0.0196  0.0660
43455W        W86367  29.458  28.355  27.110 -0.1337 -0.1265  0.0863
43456W        W86368  30.133  27.747  30.004  0.0743 -0.2121 -0.1910
43457W        W86369  29.157  25.147  30.548 -0.2462  0.1828 -0.1650
43458W        W86370  30.511  28.569  31.344 -0.3798 -0.0136 -0.2299
43459W        W86371  28.735  26.678  29.377 -0.0744  0.0065  0.0375
43460W        W86372  28.619  27.710  29.083 -0.2965  0.4762 -0.0696
43461W        W86373  31.620  28.807  28.161 -0.2149  0.2451 -0.1079
43462W        W86374  29.665  24.399  30.799  0.0059 -0.0069  0.0965
43463W        W86375  29.426  26.211  30.470  0.1399 -0.2236  0.0851
43464W        W86376  30.363  28.256  29.880 -0.3831 -0.3746  0.1816
43465W        W86377  31.299  30.362  28.008  0.0475 -0.3349  0.6372
43466W        W86378  32.681  27.045  28.212  0.0417  0.0941  0.3020
43467W        W86379  30.913  29.528  31.805  0.0212  0.0775 -0.1059
43468W        W86380  29.793  28.520  28.038 -0.1783 -0.2427  0.1058
43469W        W86381  30.181  27.304  31.779  0.0303 -0.0278 -0.0174
43470W        W86382  31.464  25.958  30.304  0.0411 -0.0328 -0.1534
43471W        W86383  28.279  27.053  28.344 -0.0962 -0.0811  0.2054
43472W        W86384  30.788  26.627  30.418 -0.0064 -0.1999 -0.0105
43473W        W86385  30.822  29.725  28.945  0.0592 -0.2548  0.3634
43474W        W86386  30.632  30.108  28.437  0.0151 -0.1578 -0.3652
43475W        W86387  30.489  27.425  29.789 -0.1547 -0.0611 -0.0686
43476W        W86388  30.543  28.244  30.841 -0.1588  0.2571 -0.2459
43477W        W86389  29.773  25.832  30.708 -0.0182  0.1168 -0.0130
43478W        W86390  31.675  27.125  29.060 -0.0898 -0.0884 -0.1899
43479W        W86391  31.363  27.839  29.764 -0.1748  0.3604  0.2383
43480W        W86392  32.590  27.353  28.737 -0.0445 -0.1312 -0.1091
43481W        W86393  32.158  25.846  29.021 -0.0429 -0.0671  0.2386
43482W        W86394  31.865  27.797  29.848  0.0811  0.0688 -0.1846
43483W        W86395  30.158  25.803  31.198  0.0302  0.0954 -0.2078
43484W        W86396  30.727  28.383  31.782  0.1755 -0.2058  0.2862
43485W        W86397  33.028  28.802  29.300  0.3861 -0.3713 -0.1441
43486W        W86398  30.287  26.750  30.686  0.0730  0.0131 -0.2542
43487W        W86399  32.266  27.043  27.874  0.0086 -0.1184 -0.0172
43488W        W86400  30.967  29.343  29.739  0.0012  0.2827  0.1589
43489W        W86401  30.110  27.085  29.665 -0.1536  0.0491 -0.1923
43490W        W86402  31.743  25.518  27.408 -0.1540  0.0704 -0.1683
43491W        W86403  30.554  26.419  31.721 -0.2535 -0.3054  0.1025
43492W        W86404  31.369  29.727  31.070 -0.1383  0.3911  0.0461
43493W        W86405  31.199  27.855  30.202 -0.3269  0.1351 -0.1240
43494W        W86406  30.144  27.521  26.772 -0.2903  0.1983 -0.2423
43495W        W86407  30.690  28.752  29.122  0.1059 -0.0189  0.1346
43496W        W86408  31.413  29.785  29.785 -0.0411  0.0195 -0.0060
43497W        W86409  33.115  30.625  31.623 -0.0983  0.1526 -0.1037
43498W        W86410  31.612  28.469  31.091 -0.2945 -0.1463 -0.3472
43499W        W86411  30.483  27.137  29.283  0.2039  0.0180 -0.0394
43500W        W86412  28.003  26.337  29.968  0.0580  0.1059 -0.1737
43501W        W86413  30.320  28.232  28.090  0.3476  0.1805  0.2364
43502W        W86414  31.302  28.610  27.741 -0.3950 -0.0115  0.0345
43503W        W86415  30.829  26.642  29.170 -0.5150  0.0569 -0.2068
43504W        W86416  30.614  27.110  30.550 -0.1499 -0.0364  0.0661
43505W        W86417  32.250  26.441  28.300  0.0344  0.1086 -0.2393
43506W        W86418  30.469  30.063  30.344 -0.3047 -0.0247  0.0933
43507W        W86419  31.614  28.239  30.116  0.1977  0.0225 -0.2112
43508W        W86420  30.589  27.489   0.074 -0.0325  0.2614 -0.0766
43509W        W86421  30.993  27.365  29.467 -0.2590  0.1491 -0.1443
43510W        W86422  31.283  27.164  31.546  0.2444  0.0910 -0.1550
43511W        W86423  29.224  27.269   0.294 -0.3540 -0.0203  0.0622
43512W        W86424  30.050  29.935   0.944  0.1081  0.1273  0.2778
43513W        W86425  29.630  29.022   0.829 -0.1484 -0.2815  0.2745
43514W        W86426  31.139  28.339   1.024  0.4707 -0.2444  0.1361
43515W        W86427  29.676  25.348  31.627  0.0698 -0.2546  0.2423
43516W        W86428  31.145  27.712  30.919 -0.1041  0.3541 -0.2395
43517W        W86429  32.081  30.459   0.084 -0.3417 -0.0877  0.0942
43518W        W86430  30.516  28.956   1.122  0.1414  0.0572 -0.0347
43519W        W86431  29.735  24.919  30.781  0.0129 -0.3622  0.1120
43520W        W86432  30.642  28.545   0.807 -0.2612 -0.1373  0.1287
43521W        W86433  30.666  29.084   0.667 -0.1427  0.0451  0.0276
43522W        W86434  30.833  28.518   1.310  0.0555  0.2690  0.0392
43523W        W86435  29.235  30.131   0.152 -0.1513  0.0133  0.1503
43524W        W86436  27.805  27.051   0.039 -0.0268 -0.0581 -0.1307
43525W        W86437  30.739  29.008  31.245  0.0026  0.1386  0.0848
43526W        W86438  26.910  26.494  31.253 -0.0691  0.0866  0.2590
43527W        W86439  29.726  26.632   1.068 -0.2567  0.0491  0.0261
43528W        W86440  30.159  25.472  31.668  0.1956  0.3397 -0.2130
43529W        W86441  29.103  29.927   0.670 -0.1152 -0.1197  0.2022
43530W        W86442  31.489  27.368   1.170 -0.0731  0.1376 -0.1194
43531W        W86443  31.130  27.621   0.450  0.1760 -0.1356  0.0319
43532W        W86444  31.285  28.095  30.645 -0.0887 -0.2129  0.0535
43533W        W86445  30.024  27.610   0.199  0.0212  0.1895  0.0531
43534W        W86446  31.227  26.957   1.134  0.1853 -0.1626 -0.4342
43535W        W86447  27.621  29.150   1.004 -0.4532 -0.2048 -0.2202
43536W        W86448  30.593  26.978   0.044 -0.1258 -0.0461 -0.1821
43537W        W86449  29.548  29.758   0.288 -0.2057  0.1916 -0.0367
43538W        W86450  30.870  29.292   1.464 -0.0015 -0.2369  0.1283
43539W        W86451  29.402  28.215   0.604 -0.1151  0.2197 -0.0017
43540W        W86452  32.352  28.985  31.138 -0.4371  0.0986  0.0427
43541W        W86453  30.728  25.513  31.672 -0.0269 -0.1899 -0.0781
43542W        W86454  28.731  25.297  31.285 -0.2406  0.0227  0.1307
43543W        W86455  29.395  26.811   0.179  0.0793 -0.3058  0.1032
43544W        W86456  29.740  28.675   0.444 -0.3165  0.4357 -0.1113
43545W        W86457  30.353  28.027   0.892 -0.1826 -0.0387 -0.1526
43546W        W86458  30.315  28.149  31.983  0.0849  0.2421 -0.0885
43547W        W86459  29.429  28.540  31.607 -0.1658 -0.1804 -0.1632
43548W        W86460  32.394  27.146  30.269  0.0569 -0.1427 -0.1005
43549W        W86461  30.465  28.909  31.705 -0.1263  0.2348 -0.0607
43550W        W86462  30.530  26.361  30.979  0.1345  0.3100  0.0584
43551W        W86463  29.981  29.165   0.488 -0.1816  0.0724 -0.0169
43552W        W86464  29.304  27.615  30.730 -0.2233 -0.0982 -0.2254
43553W        W86465  30.027  28.990   1.301  0.2369 -0.4779  0.1117
43554W        W86466  31.352  24.089  31.285 -0.1513  0.1366 -0.0485
43555W        W86467  31.896  28.887  31.253 -0.2136 -0.0067  0.2457
43556W        W86468  32.577  29.313  30.413  0.0820 -0.0984  0.1431
43557W        W86469  28.885  26.939   0.370  0.0018 -0.1328 -0.2054
43558W        W86470  29.792  28.422   0.880 -0.2861  0.1031  0.2154
43559W        W86471  31.731  25.669  31.691  0.0497 -0.2341  0.1124
43560W        W86472  31.298  27.652  31.364 -0.0835  0.0961 -0.1478
43561W        W86473  30.492  27.735  30.800 -0.0709 -0.0591  0.0819
43562W        W86474  30.979  28.741  31.555  0.1097 -0.2982 -0.3879
43563W        W86475  31.980  28.403  31.400  0.0170  0.2373 -0.0916
43564W        W86476  34.011  28.007   0.748 -0.2131  0.1355  0.1009
43565W        W86477  28.897  31.359  31.372  0.0667 -0.0627 -0.1693
43566W        W86478  31.955  29.665   0.363  0.1187  0.0776  0.0206
43567W        W86479  28.973  27.260  30.510 -0.1619 -0.0347  0.3464
43568W        W86480  28.412  27.099  31.254 -0.2866 -0.0638  0.1644
43569W        W86481  29.390  26.984  30.683 -0.0062  0.1355 -0.2814
43570W        W86482  30.539  27.823  31.689  0.0195  0.0674  0.2267
43571W        W86483  28.940  26.324   0.089  0.0778  0.0703  0.0635
43572W        W86484  32.089  29.346  31.446  0.0338  0.2709  0.4415
43573W        W86485  32.343  27.985  31.964  0.1133 -0.3018  0.1176
43574W        W86486  31.989  26.889  30.493 -0.0730  0.2207 -0.0186
43575W        W86487  29.880  30.679  17.470  0.1614 -0.0347  0.3843
43576W        W86488  30.143  29.776  17.439  0.1162  0.0612  0.1523
43577W        W86489  30.652  29.047  17.853  0.0757  0.0186  0.1941
43578W        W86490  31.984  30.918  16.270 -0.0123 -0.0090  0.1945
43579W        W86491  29.095  29.801  19.114 -0.0318  0.2625  0.2578
43580W        W86492  31.321  31.662  16.724  0.4543 -0.2455 -0.0549
43581W        W86493  29.512  29.754  19.931 -0.2865  0.1886 -0.0585
43582W        W86494  31.992  31.714  17.285 -0.0948 -0.0066 -0.1122
43583W        W86495  32.651  31.267  19.195  0.0670  0.2198  0.2276
43584W        W86496  29.986  31.368  16.802 -0.2851  0.0607  0.2739
43585W        W86497  31.217  30.269  18.632  0.0775 -0.0148 -0.1707
43586W        W86498  31.690  32.296  20.264 -0.0893  0.1919  0.1886
43587W        W86499  30.804  27.830  16.939 -0.3198  0.1993 -0.0199
43588W        W86500  28.411  29.507  19.111  0.0789  0.0118  0.2020
43589W        W86501  30.207  31.501  19.633 -0.1135 -0.0363  0.1297
43590W        W86502  29.597  29.860  16.907 -0.0041  0.0121  0.2428
43591W        W86503  30.582  30.197  18.579 -0.0456  0.1578 -0.2220
43592W        W86504  30.698  30.814  17.635  0.0950 -0.0741  0.1161
43593W        W86505  30.445  32.248  16.708  0.0631 -0.0417  0.0028
43594W        W86506  30.396  29.328  18.430  0.1002 -0.0089 -0.2434
43595W        W86507  30.620  29.732  18.759  0.2877  0.3021  0.0991
43596W        W86508  30.315  31.250  17.146  0.0795  0.3268  0.2504
43597W        W86509  28.637  29.779  16.862 -0.0902  0.0365  0.1165
43598W        W86510  29.374  30.876  17.489 -0.0162  0.2036 -0.0782
43599W        W86511  30.289  30.311  18.173 -0.0262 -0.3938  0.2619
43600W        W86512  31.969  28.740  18.642  0.1321 -0.2018 -0.0820
43601W        W86513  32.530  31.576  17.256 -0.1153  0.2069  0.0234
43602W        W86514  29.829  32.775  18.031 -0.2176 -0.0060  0.2020
43603W        W86515  30.097  31.616  18.598 -0.0997 -0.1954 -0.2100
43604W        W86516  31.246  29.805  19.464  0.0166  0.0701  0.1713
43605W        W86517  28.558  29.919  17.384 -0.0356 -0.1539 -0.1575
43606W        W86518  29.992  33.825  17.997  0.1395  0.2634 -0.2387
43607W        W86519  29.111  31.727  16.572  0.1431  0.0588  0.0355
43608W        W86520  33.265  32.216  17.933 -0.0568 -0.1004 -0.0046
43609W        W86521  31.367  30.946  19.834  0.0227  0.3029 -0.0080
43610W        W86522  30.927  32.175  19.801 -0.0215 -0.1830 -0.2267
43611W        W86523  29.917  31.948  15.940 -0.3184  0.1281 -0.2988
43612W        W86524  31.323  32.754  20.676  0.1837  0.0575 -0.0569
43613W        W86525  30.920  32.108  20.304  0.0598 -0.2744 -0.3221
43614W        W86526  31.255  31.177  18.623  0.1617  0.0607 -0.0716
43615W        W86527  31.339  31.138  17.400 -0.3216  0.1734  0.0113
43616W        W86528  31.228  32.938  16.135  0.2631  0.2595  0.2025
43617W        W86529  30.023  31.869  16.790 -0.3010  0.3260  0.1421
43618W        W86530  30.697  30.901  19.340  0.2311  0.1153  0.0449
43619W        W86531  29.701  33.118  18.410 -0.4084 -0.0897 -0.0628
43620W        W86532  33.089  31.014  19.163 -0.3441  0.3197 -0.1057
43621W        W86533  30.712  32.564  16.099  0.1334 -0.0283  0.1225
43622W        W86534  30.538  30.214  16.877 -0.3571  0.2698 -0.1867
43623W        W86535  29.534  28.853  17.562 -0.2836  0.3860 -0.0817
43624W        W86536  30.931  29.428  17.615  0.2630  0.2389 -0.1392
43625W        W86537  30.796  28.810  19.076  0.1806  0.0462 -0.2348
43626W        W86538  28.489  32.683  17.737 -0.2738  0.0636 -0.1939
43627W        W86539  29.963  29.250  17.282 -0.0036 -0.1910 -0.0831
43628W        W86540  31.875  30.920  19.941 -0.3321 -0.2106  0.2452
43629W        W86541  30.896  29.227  18.294  0.1208 -0.0384 -0.1877
43630W        W86542  31.778  29.524  18.109  0.3472 -0.1992  0.1850
43631W        W86543  28.846  32.574  19.384 -0.3545  0.3706  0.2298
43632W        W86544  28.563  30.854  17.779  0.0396 -0.1846  0.1390
43633W        W86545  33.746  33.342  15.764  0.1861  0.0190 -0.0723
43634W        W86546  32.836  32.005  17.217  0.1975 -0.1126  0.0559
43635W        W86547  31.613  32.755  15.891 -0.1505 -0.2854 -0.0404
43636W        W86548  32.152  30.355  18.907 -0.2634 -0.2702 -0.3936
43637W        W86549  29.460  31.263  17.864 -0.0640 -0.1812 -0.1165
43638W        W86550  29.913  31.441  19.063 -0.0358 -0.1414  0.0590
43639W        W86551  30.060  30.366  16.800 -0.1196 -0.2781  0.0893
43640W        W86552  31.453  31.423  19.989  0.0135 -0.0959 -0.1133
43641W        W86553  28.601  32.975  19.587 -0.0085 -0.0562 -0.1256
43642W        W86554  33.292  30.041  17.639 -0.1144  0.1797  0.1758
43643W        W86555  28.837  31.864  16.933 -0.1881  0.0578  0.0947
43644W        W86556  31.823  32.173  17.261 -0.1990  0.1379  0.0134
43645W        W86557  31.268  31.195  16.887  0.4077  0.6503  0.0480
43646W        W86558  31.319  30.316  18.113  0.0546 -0.1041 -0.0044
43647W        W86559  32.107  28.557  18.213  0.2138  0.1024  0.0770
43648W        W86560  28.982  30.538  16.674 -0.1449  0.1931 -0.3694
43649W        W86561  29.682  30.260  17.164 -0.0747 -0.0209 -0.2413
43650W        W86562  30.810  31.870  18.773  0.1720 -0.0251  0.0502
43651W        W86563  32.252  30.644  15.963 -0.2192 -0.1660 -0.2741
43652W        W86564  30.356  31.701  19.060 -0.3315 -0.0861 -0.1308
43653W        W86565  29.880  29.629  19.616  0.4413  0.0727  0.1426
43654W        W86566  30.537  31.293  20.112  0.0563 -0.0355  0.0309
43655W        W86567  29.829  32.794  16.318  0.1017  0.0402 -0.1147
43656W        W86568  28.691  32.206  18.662  0.1886  0.1067 -0.0687
43657W        W86569  28.282  31.041  16.393 -0.1816 -0.0516  0.2450
43658W        W86570  28.838  29.957  18.268 -0.1927 -0.1588  0.2213
43659W        W86571  29.804  30.491  16.299 -0.0616 -0.0125  0.0741
43660W        W86572  32.224  28.588  17.289 -0.0846 -0.0903  0.0851
43661W        W86573  29.396  29.396  19.251  0.0963  0.0266 -0.1344
43662W        W86574  31.654  28.894  17.399 -0.2323  0.0341 -0.0450
43663W        W86575  29.276  32.057  17.808  0.1275 -0.1945 -0.1792
43664W        W86576  31.646  33.453  18.172 -0.0719 -0.2471 -0.0869
43665W        W86577  31.453  30.172  16.988  0.1375 -0.2995  0.1534
43666W        W86578  31.692  31.601  15.920 -0.1297 -0.0935 -0.2051
43667W        W86579  29.160  30.281  19.035 -0.1273  0.2078 -0.0249
43668W        W86580  29.183  30.472  17.142 -0.2576 -0.1242  0.1411
43669W        W86581  29.871  29.578  19.066 -0.0259 -0.0025 -0.1359
43670W        W86582  28.446  30.317  18.270 -0.0159 -0.1074 -0.1684
43671W        W86583  31.461  29.068  18.891  0.1522  0.4082 -0.1993
43672W        W86584  28.616  29.024  17.336 -0.2482  0.2132  0.1638
43673W        W86585  31.925  30.641  18.159 -0.0105 -0.0859  0.2355
43674W        W86586  31.092  30.715  17.265 -0.1313  0.2585 -0.1518
43675W        W86587  28.934  31.743  17.481  0.2425 -0.1917 -0.3329
43676W        W86588  33.091  29.154  19.214 -0.1315 -0.2953  0.0737
43677W        W86589  31.935  33.775  16.570  0.2710 -0.1161  0.1362
43678W        W86590  31.427  33.813  18.770  0.0045  0.0152  0.1823
43679W        W86591  31.555  30.737  17.853  0.0758  0.1357 -0.2872
43680W        W86592  29.240  28.526  18.985 -0.1117 -0.1226  0.1276
43681W        W86593  29.855  29.448  16.805 -0.2639  0.3301 -0.0486
43682W        W86594  30.020  32.561  17.583  0.1603  0.0164 -0.0058
43683W        W86595  29.047  32.439  18.521 -0.1493  0.1018 -0.0532
43684W        W86596  30.654  29.762  17.281  0.0379  0.3366 -0.1882
43685W        W86597  31.704  32.154  18.262  0.0125  0.0545 -0.2468
43686W        W86598  30.756  31.050  17.062  0.1835 -0.1784 -0.0943
43687W        W86599  29.095  31.871  20.590  0.1950  0.1025  0.1708
43688W        W86600  33.768  30.091  18.540 -0.1504 -0.0920  0.4007
43689W        W86601  31.563  30.017  18.898 -0.0056 -0.0441  0.2849
43690W        W86602  30.981  31.265  19.659 -0.0089 -0.0296  0.0841
43691W        W86603  27.949  30.050  16.172 -0.1918 -0.1848 -0.3674
43692W        W86604  32.160  32.688  18.923  0.3702  0.1016 -0.2456
43693W        W86605  29.921  32.606  15.861 -0.1906 -0.1993 -0.2161
43694W        W86606  29.451  31.241  16.957 -0.0703  0.0801 -0.0624
43695W        W86607  30.547  31.753  16.530 -0.2499  0.0242 -0.0700
43696W        W86608  30.366  29.841  18.279 -0.1479  0.1707  0.1325
43697W        W86609  28.625  31.797  20.382 -0.1488 -0.0992 -0.4166
43698W        W86610  32.358  29.507  18.817  0.0648  0.1608 -0.1614
43699W        W86611  28.748  29.789  17.807  0.0730  0.0264 -0.0148
43700W        W86612  29.809  31.738  19.449 -0.1351  0.1231  0.1207
43701W        W86613  32.582  29.656  17.492 -0.0075 -0.2090 -0.1483
43702W        W86614  32.990  29.830  16.686  0.0703  0.0565 -0.0800
43703W        W86615  30.335  31.195  19.217 -0.2136  0.3152 -0.1128
43704W        W86616  32.643  31.490  16.350 -0.2137  0.2718 -0.0045
43705W        W86617  30.755  30.326  17.328 -0.1532  0.0804 -0.2773
43706W        W86618  31.444  28.766  16.357  0.2944 -0.3253 -0.0231
43707W        W86619  30.437  32.219  19.014  0.0473 -0.0802  0.1340
43708W        W86620  29.297  31.410  17.397 -0.2389  0.0961  0.3785
43709W        W86621  29.252  31.424  18.354  0.1105 -0.0408  0.0815
43710W        W86622  31.507  30.726  17.011 -0.1841  0.1229 -0.1059
43711W        W86623  33.482  32.930  17.877 -0.1566 -0.2693  0.1864
43712W        W86624  29.327  33.062  20.359  0.3085  0.3104  0.2249
43713W        W86625  31.299  32.040  18.537 -0.2791 -0.0736  0.2587
43714W        W86626  30.981  32.868  16.636  0.1060  0.1179 -0.0257
43715W        W86627  29.964  30.392  18.701 -0.0463  0.0481  0.3880
43716W        W86628  30.704  29.991  16.312  0.2253  0.1159  0.2223
43717W        W86629  30.864  28.075  17.465  0.0530 -0.1385 -0.1174
43718W        W86630  29.030  30.917  17.019  0.1305 -0.0412 -0.1503
43719W        W86631  32.086  29.086  17.554 -0.1864  0.1188 -0.0245
43720W        W86632  31.286  28.209  18.361  0.1674 -0.1104 -0.1761
43721W        W86633  29.784  29.325  20.660  0.1453  0.3460 -0.0088
43722W        W86634  32.110  30.710  19.554 -0.3937  0.1097 -0.1952
43723W        W86635  31.005  30.509  17.762 -0.0049 -0.3187 -0.0081
43724W        W86636  29.768  31.303  18.289  0.2792 -0.2607 -0.0040
43725W        W86637  29.580  30.929  16.537  0.1224  0.0819 -0.1610
43726W        W86638  31.255  28.769  19.373  0.0881 -0.1035 -0.0814
43727W        W86639  29.845  30.578  18.222 -0.0679 -0.2522  0.0576
43728W        W86640  28.738  30.759  18.841 -0.2201 -0.1303 -0.2133
43729W        W86641  32.515  30.741  19.246 -0.1786  0.1442  0.0077
43730W        W86642  30.861  31.506  16.937  0.0072  0.1564 -0.2264
43731W        W86643  32.441  31.018  20.432  0.0071 -0.2660 -0.0879
43732W        W86644  30.613  28.975  16.915 -0.2564 -0.0870 -0.1788
43733W        W86645  30.466  32.775  16.609 -0.2583  0.0655  0.0539
43734W        W86646  28.360  30.518  16.623  0.1948  0.2876 -0.1514
43735W        W86647  31.030  28.677  18.136 -0.0398 -0.0528 -0.0490
43736W        W86648  30.704  31.677  19.737  0.1773  0.0533  0.3057
43737W        W86649  29.157  29.995  17.007  0.0622 -0.0450 -0.2223
43738W        W86650  31.918  30.064  18.053  0.0614 -0.2760 -0.2310
43739W        W86651  30.632  32.523  17.073 -0.1182  0.1896 -0.2463
43740W        W86652  30.954  29.269  18.838 -0.3340  0.0527  0.0928
43741W        W86653  29.005  32.452  17.849 -0.0861  0.2537 -0.1119
43742W        W86654  30.300  29.665  16.515  0.1811 -0.2214  0.3361
43743W        W86655  28.509  29.459  18.247 -0.2841 -0.3664  0.1400
43744W        W86656  32.471  28.755  17.719  0.1221 -0.2642  0.0785
43745W        W86657  31.601  31.115  16.045  0.1496  0.4455 -0.3027
43746W        W86658  27.958  30.106  18.260  0.0302 -0.1362  0.1022
43747W        W86659  30.018  29.276  18.106 -0.2532 -0.0462 -0.1060
43748W        W86660  28.855  33.292  18.687 -0.1500 -0.1657  0.0347
43749W        W86661  31.671  29.575  18.722  0.2265  0.2077  0.1943
43750W        W86662  31.299  30.004  16.495  0.2764 -0.2290 -0.3182
43751W        W86663  32.071  31.730  18.373 -0.0021  0.1080 -0.0294
43752W        W86664  31.343  30.694  18.886 -0.0473  0.2007  0.0555
43753W        W86665  28.372  30.034  16.508 -0.1411 -0.2910 -0.1812
43754W        W86666  32.633  29.562  19.297 -0.1116 -0.1170  0.2400
43755W        W86667  29.248  32.578  19.031 -0.0327 -0.1086  0.0724
43756W        W86668  29.399  32.124  16.779 -0.1684 -0.0448 -0.0397
43757W        W86669  30.539  32.181  17.987  0.2437  0.1572  0.0810
43758W        W86670  29.592  29.037  16.991  0.3006 -0.0705 -0.1092
43759W        W86671  30.163  32.365  17.159 -0.3670 -0.0098  0.0464
43760W        W86672  30.841  29.897  19.160  0.1090  0.1511  0.1055
43761W        W86673  31.543  31.192  18.140  0.0842 -0.0530 -0.2179
43762W        W86674  31.274  30.718  18.394  0.2065 -0.0725 -0.0037
43763W        W86675  30.289  28.874  18.191  0.4203  0.0291  0.3721
43764W        W86676  30.457  30.648  18.564  0.0558 -0.1231  0.0888
43765W        W86677  31.902  31.573  19.230  0.2588 -0.2208  0.0130
43766W        W86678  30.771  30.401  19.022 -0.0055 -0.1673 -0.0710
43767W        W86679  29.066  31.487  20.064 -0.0091 -0.0547  0.0950
43768W        W86680  31.660  27.698  17.786 -0.0934 -0.0852  0.0813
43769W        W86681  33.019  31.686  16.667  0.2632  0.0458  0.0538
43770W        W86682  29.629  30.298  19.574 -0.0423 -0.0453  0.4247
43771W        W86683  30.635  30.703  16.732 -0.3972 -0.0752 -0.0851
43772W        W86684  29.550  31.289  18.752 -0.1288  0.0367 -0.1352
43773W        W86685  30.177  31.070  17.624  0.0800  0.2636 -0.4405
43774W        W86686  30.240  30.623  17.779 -0.2615  0.1829  0.1928
43775W        W86687  28.183  32.166  17.697 -0.0552  0.0413 -0.0421
43776W        W86688  29.795  31.163  17.296 -0.1148  0.1979 -0.0381
43777W        W86689  29.374  32.444  18.187 -0.2589  0.2958 -0.2145
43778W        W86690  31.985  28.963  17.008 -0.2358  0.2669 -0.0890
43779W        W86691  31.837  31.807  16.396  0.3201  0.0075 -0.1177
43780W        W86692  31.198  29.663  18.967  0.1843  0.1294 -0.2547
43781W        W86693  33.112  30.183  18.960  0.1389  0.0981  0.0692
43782W        W86694  31.617  30.267  16.120 -0.1527  0.0167  0.1880
43783W        W86695  31.927  30.211  19.751 -0.1310 -0.2216 -0.0729
43784W        W86696  30.450  28.720  20.032  0.2313  0.0502 -0.2197
43785W        W86697  31.825  32.374  16.792  0.3129 -0.0658  0.1189
43786W        W86698  29.882  30.269  17.744 -0.0637  0.4776  0.1323
43787W        W86699  31.525  32.390  21.682 -0.3300  0.0851  0.0585
43788W        W86700  29.570  30.288  20.774 -0.4207  0.0087 -0.0719
43789W        W86701  31.657  28.268  16.458  0.0601  0.1301  0.1298
43790W        W86702  29.432  29.218  16.517 -0.1371 -0.3351  0.1816
43791W        W86703  30.054  32.020  17.600 -0.0362  0.2175  0.1683
43792W        W86704  31.689  31.439  18.505  0.1160 -0.1714 -0.0448
43793W        W86705  30.429  31.136  16.596  0.3434 -0.0483  0.0074
43794W        W86706  32.237  31.210  17.222  0.2226  0.2695  0.0058
43795W        W86707  30.703  30.873  19.861 -0.1023  0.0277 -0.0225
43796W        W86708  31.511  30.868  16.505 -0.4960 -0.2606 -0.2003
43797W        W86709  30.196  30.267  17.326 -0.2620 -0.0019 -0.1069
43798W        W86710  29.592  31.789  17.558 -0.2500  0.0619  0.0823
43799W        W86711  29.982  29.007  18.600  0.1364  0.1264  0.1346
43800W        W86712  31.941  30.838  16.827 -0.4427  0.0074  0.3435
43801W        W86713  31.011  29.984  17.040  0.0757 -0.0364 -0.0304
43802W        W86714  32.229  30.733  18.632 -0.1760  0.1821 -0.2561
43803W        W86715  31.790  28.172  18.022  0.2383 -0.0670 -0.0366
43804W        W86716  29.674  30.461  19.081  0.0859 -0.2384 -0.1293
43805W        W86717  30.213  30.146  20.309 -0.0460 -0.0395 -0.0850
43806W        W86718  31.436  32.486  18.792  0.0944 -0.1617  0.1416
43807W        W86719  31.674  31.327  16.570  0.0347  0.1161  0.0698
43808W        W86720  32.375  30.030  17.930  0.0483 -0.1202 -0.3916
43809W        W86721  32.657  31.254  16.801  0.1616 -0.0846 -0.2344
43810W        W86722  32.181  29.534  16.711  0.1162  0.3178 -0.1522
43811W        W86723  30.346  29.489  17.749 -0.1999  0.2276 -0.2630
43812W        W86724  32.135  29.747  19.563  0.1780 -0.1611 -0.1032
43813W        W86725  29.396  30.380  17.610  0.2107 -0.3139 -0.1386
43814W        W86726  31.715  29.520  19.247 -0.0496  0.0235 -0.0650
43815W        W86727  31.716  32.355  15.654 -0.1121  0.1826 -0.0064
43816W        W86728  31.627  31.729  18.036  0.1801  0.2232  0.0644
43817W        W86729  30.667  29.775  16.791  0.1600 -0.0019 -0.1510
43818W        W86730  29.670  29.387  17.693  0.0399  0.2971  0.0427
43819W        W86731  30.517  32.643  20.896 -0.1728 -0.0877  0.3301
43820W        W86732  29.330  29.873  16.167 -0.0807  0.1110  0.2688
43821W        W86733  30.066  30.903  16.879  0.0147 -0.0286  0.2278
43822W        W86734  31.845  30.729  19.029 -0.1038 -0.0297 -0.2872
43823W        W86735  31.471  30.295  21.341 -0.1709 -0.2554 -0.0442
43824W        W86736  31.045  30.376  16.689  0.1333 -0.1964 -0.2124
43825W        W86737  31.721  30.024  19.339 -0.0852  0.0764  0.1116
43826W        W86738  29.365  31.729  17.009 -0.0735 -0.3955  0.0074
43827W        W86739  32.069  29.816  18.507 -0.2558  0.2296  0.1512
43828W        W86740  29.369  33.390  18.753 -0.2034  0.0678  0.1154
43829W        W86741  28.898  31.319  19.020  0.0721 -0.0970 -0.2527
43830W        W86742  29.922  33.076  17.229  0.2336  0.3658  0.1889
43831W        W86743  30.537  30.470  19.480  0.0399 -0.3616 -0.0426
43832W        W86744  32.230  32.014  16.987 -0.3246  0.1351  0.1629
43833W        W86745  31.132  31.600  18.354  0.1691  0.1904  0.5685
43834W        W86746  32.324  31.190  18.381  0.3069 -0.1538  0.0456
43835W        W86747  32.635  30.003  18.982 -0.0358  0.0943 -0.0009
43836W        W86748  29.950  31.933  18.999  0.0331 -0.0193 -0.0361
43837W        W86749  31.713  31.792  19.685 -0.0828 -0.0884  0.0182
43838W        W86750  32.114  31.476  16.791 -0.0799  0.0844  0.0614
43839W        W86751  29.762  32.238  18.018 -0.1650 -0.1820  0.1661
43840W        W86752  30.180  29.257  19.397  0.2096  0.4861  0.1938
43841W        W86753  30.990  29.781  20.672 -0.0015  0.2084  0.1771
43842W        W86754  31.738  31.193  17.070  0.2926  0.0063 -0.0185
43843W        W86755  30.471  28.226  17.008 -0.0736  0.1303  0.2878
43844W        W86756  31.763  32.456  16.306 -0.2245  0.2813  0.0379
43845W        W86757  30.021  31.792  21.313 -0.0691 -0.0489  0.1994
43846W        W86758  28.766  31.522  18.462 -0.0607  0.5083  0.0797
43847W        W86759  30.530  32.127  17.455 -0.0080 -0.3105  0.0534
43848W        W86760  29.599  30.767  17.012 -0.1129 -0.2615  0.0596
43849W        W86761  31.724  30.400  16.600 -0.0460  0.0439 -0.0955
43850W        W86762  31.863  32.542  17.925 -0.0146 -0.1116 -0.0890
43851W        W86763  30.397  29.444  16.983  0.4317 -0.1393  0.1031
43852W        W86764  28.615  31.948  18.236  0.3798 -0.0289  0.1895
43853W        W86765  28.297  32.899  16.372 -0.2912 -0.1280 -0.0102
43854W        W86766  32.633  32.856  18.364  0.3532 -0.2409  0.1041
43855W        W86767  29.436  33.141  17.176  0.0142  0.0591  0.0592
43856W        W86768  31.606  31.211  18.940  0.0272  0.0917  0.0162
43857W        W86769  32.201  30.540  16.504  0.5825  0.2247  0.0628
43858W        W86770  32.515  30.619  17.900 -0.2484  0.1999 -0.3499
43859W        W86771  33.113  29.399  18.350  0.1138  0.0277 -0.0476
43860W        W86772  32.191  32.587  20.212  0.3676 -0.0217  0.1288
43861W        W86773  28.646  30.224  17.003  0.2617 -0.2010  0.0924
43862W        W86774  31.229  29.154  16.803 -0.1908  0.1801  0.1316
43863W        W86775  31.303  29.283  19.324 -0.1415 -0.2660 -0.1767
43864W        W86776  33.416  29.378  18.865 -0.2766  0.0699  0.3967
43865W        W86777  29.235  30.810  19.085 -0.0346 -0.1867 -0.0047
43866W        W86778  33.530  32.666  17.383  0.1776 -0.0260 -0.1703
43867W        W86779  30.307  30.650  19.041 -0.0173 -0.2409  0.0464
43868W        W86780  31.234  31.532  17.695  0.0041 -0.2195 -0.0433
43869W        W86781  32.912  29.934  17.965 -0.2310  0.1466  0.2495
43870W        W86782  30.659  31.368  16.192 -0.0330  0.0771  0.0047
43871W        W86783  30.500  30.018  17.731 -0.1582  0.0127 -0.3158
43872W        W86784  30.797  32.159  16.378  0.2283 -0.0054  0.0468
43873W        W86785  29.600  31.746  18.085 -0.0323  0.5756  0.0693
43874W        W86786  30.618  31.284  17.932 -0.2658  0.2860  0.2503
43875W        W86787  28.037  29.858  17.412 -0.1115 -0.0309  0.0755
43876W        W86788  32.329  29.011  16.637 -0.0429 -0.1694 -0.3571
43877W        W86789  30.904  30.192  19.634 -0.1403  0.3115 -0.0516
43878W        W86790  32.375  28.403  20.570  0.1618 -0.1297  0.4409
43879W        W86791  30.402  31.605  17.600 -0.3111 -0.2074  0.0714
43880W        W86792  31.731  31.324  17.653 -0.1877  0.1439 -0.1018
43881W        W86793  30.796  30.199  18.128 -0.0414  0.0620 -0.0810
43882W        W86794  29.968  30.905  18.621  0.0010  0.3643  0.1845
43883W        W86795  31.950  29.975  16.854 -0.0713  0.0789 -0.2923
43884W        W86796  32.701  30.101  20.508 -0.2530  0.0238 -0.1373
43885W        W86797  31.201  31.277  16.364 -0.1553  0.0317 -0.0260
43886W        W86798  31.800  32.890  20.421 -0.1471 -0.2528  0.0926
43887W        W86799  29.437  29.173  18.498 -0.1021 -0.0833  0.1770
43888W        W86800  31.044  30.258  16.071  0.3102 -0.0896  0.1925
43889W        W86801  29.789  30.917  17.865  0.0411  0.2687 -0.2666
43890W        W86802  29.616  31.748  18.626 -0.2375  0.0750 -0.0423
43891W        W86803  31.339  32.062  20.576 -0.3349 -0.1421  0.3189
43892W        W86804  29.605  29.861  17.421  0.0984  0.0470 -0.1202
43893W        W86805  32.799  32.041  16.248  0.2138  0.1358  0.1952
43894W        W86806  32.985  29.564  17.172  0.0066  0.2195  0.0960
43895W        W86807  29.480  33.110  16.668  0.0295  0.2958  0.1758
43896W        W86808  31.837  30.879  17.411  0.1450  0.0624  0.0186
43897W        W86809  31.462  31.588  17.195 -0.0277  0.1258 -0.0741
43898W        W86810  28.693  30.410  19.246 -0.2512 -0.2717 -0.0434
43899W        W86811  30.566  31.619  18.324  0.0395 -0.0735 -0.0835
43900W        W86812  31.785  30.964  18.530 -0.1208  0.0211 -0.5337
43901W        W86813  31.559  29.822  17.722 -0.1218  0.0913  0.1661
43902W        W86814  29.455  29.938  17.887 -0.1026  0.0812  0.2893
43903W        W86815  29.561  32.975  17.655  0.1425  0.1156  0.0669
43904W        W86816  32.103  30.951  17.797  0.1957  0.1160  0.1223
43905W        W86817  32.023  29.822  19.015 -0.1641  0.0490 -0.0701
43906W        W86818  30.373  33.536  17.753 -0.0254  0.1081  0.1606
43907W        W86819  32.984  27.784  19.036  0.3374 -0.0287 -0.0027
43908W        W86820  30.340  31.013  20.624  0.0743  0.1797  0.2272
43909W        W86821  29.679  32.797  21.246 -0.3373  0.1482  0.0517
43910W        W86822  28.860  29.996  16.451  0.1719  0.1588 -0.1138
43911W        W86823  31.092  31.073  17.985 -0.3023 -0.0482 -0.0203
43912W        W86824  30.857  32.270  18.418  0.2848  0.2832  0.1444
43913W        W86825  30.701  33.622  16.105 -0.0985 -0.1824  0.0640
43914W        W86826  31.977  32.630  17.330  0.0601 -0.0701  0.0779
43915W        W86827  31.032  29.836  18.483 -0.1342  0.0165  0.0819
43916W        W86828  32.223  32.138  18.093  0.2276 -0.1515  0.4418
43917W        W86829  29.287  29.549  18.755 -0.1372 -0.1323  0.1747
43918W        W86830  33.421  29.864  18.828 -0.1380  0.1477  0.2148
43919W        W86831  31.600  28.593  16.926  0.0434  0.1367 -0.0655
43920W        W86832  31.131  32.048  18.023 -0.2065 -0.0364 -0.2408
43921W        W86833  30.412  30.702  17.228 -0.1824 -0.1984 -0.2367
43922W        W86834  30.104  31.546  16.368  0.1230  0.0913 -0.1560
43923W        W86835  29.711  32.123  17.204 -0.2123 -0.1132  0.2267
43924W        W86836  29.674  29.979  21.225  0.0656 -0.1916 -0.0379
43925W        W86837  29.772  30.060  18.341 -0.3802 -0.0164 -0.1359
43926W        W86838  29.451  30.388  18.092  0.0343  0.1792  0.0679
43927W        W86839  27.825  29.409  17.239 -0.0566  0.3092  0.2380
43928W        W86840  32.246  32.379  16.439 -0.1793  0.0601 -0.0765
43929W        W86841  30.207  28.294  19.734  0.1276 -0.0455 -0.0868
43930W        W86842  29.985  29.636  18.524 -0.0750 -0.1225  0.4488
43931W        W86843  31.988  30.451  17.154  0.4616 -0.2903 -0.1351
43932W        W86844  31.341  32.135  17.157 -0.4135 -0.0840 -0.1077
43933W        W86845  29.635  28.361  18.261 -0.0840  0.0530 -0.2225
43934W        W86846  33.506  33.287  19.319 -0.0504 -0.1197  0.0708
43935W        W86847  28.495  30.763  17.032 -0.0477 -0.0108  0.3312
43936W        W86848  29.813  30.537  20.015  0.1739  0.4329 -0.0938
43937W        W86849  30.075  30.600  19.488  0.2043 -0.0601 -0.4672
43938W        W86850  29.162  29.644  16.633 -0.1225 -0.2109 -0.2266
43939W        W86851  30.606  30.780  18.098 -0.1683  0.0006 -0.0384
43940W        W86852  31.167  32.454  16.836 -0.1579  0.1382  0.3045
43941W        W86853  33.030  32.834  17.518  0.2726 -0.2034  0.0486
43942W        W86854  30.171  31.614  20.437 -0.0643 -0.0199  0.1539
43943W        W86855  31.366  31.980  20.077  0.0499 -0.1045  0.1407
43944W        W86856  30.319  28.789  18.911  0.2167  0.1384 -0.0325
43945W        W86857  30.190  31.059  18.223  0.4610 -0.1533 -0.0252
43946W        W86858  29.504  30.962  21.336 -0.1184 -0.0894  0.0810
43947W        W86859  32.170  31.411  16.174  0.0163  0.0088 -0.2732
43948W        W86860  33.629  29.698  19.273 -0.1220 -0.3745 -0.0613
43949W        W86861  30.173  31.830  18.044 -0.0081  0.1449  0.2456
43950W        W86862  28.864  29.327  19.228 -0.2480 -0.1617  0.3150
43951W        W86863  30.309  30.499  19.929 -0.0033  0.1027 -0.1308
43952W        W86864  33.032  31.460  17.142  0.0471 -0.0900  0.1679
43953W        W86865  29.559  29.562  18.187 -0.1991  0.1637  0.2853
43954W        W86866  31.970  30.400  17.685 -0.1754  0.0675  0.1335
43955W        W86867  31.732  31.893  16.877  0.1126 -0.1878 -0.3925
43956W        W86868  29.579  30.780  19.598 -0.0120  0.0131 -0.0266
43957W        W86869  30.107  29.899  16.924  0.2503 -0.1894 -0.3507
43958W        W86870  31.381  29.297  18.482  0.1156  0.0039 -0.0675
43959W        W86871  30.810  31.307  17.474  0.0975 -0.0575  0.0823
43960W        W86872  31.463  31.435  19.365 -0.4483 -0.1509 -0.0266
43961W        W86873  30.963  30.912  16.090  0.3658  0.2625  0.1512
43962W        W86874  32.184  30.186  16.099 -0.2436  0.2445  0.1670
43963W        W86875  30.852  31.397  18.790  0.0381  0.1144 -0.0187
43964W        W86876  31.900  32.078  19.259 -0.0789 -0.2800 -0.1667
43965W        W86877  31.266  31.672  18.882  0.1364 -0.1789  0.3486
43966W        W86878  32.744  31.076  17.396 -0.0982 -0.0797 -0.1557
43967W        W86879  28.797  28.625  18.653  0.1119  0.0876  0.1023
43968W        W86880  29.900  31.459  17.740 -0.0263  0.0951  0.0904
43969W        W86881  31.537  30.400  17.423 -0.0291  0.1739  0.1080
43970W        W86882  31.098  30.644  19.439 -0.1182 -0.0437  0.3098
43971W        W86883  29.925  29.802  17.932  0.0303  0.0184 -0.0490
43972W        W86884  31.392  29.657  16.816  0.1066  0.1327 -0.1560
43973W        W86885  30.377  32.033  18.530  0.0486 -0.1748 -0.0531
43974W        W86886  30.797  31.179  18.376  0.0989 -0.3838  0.1512
43975W        W86887  30.122  30.920  21.510  0.0325 -0.3376 -0.1110
43976W        W86888  29.489  31.123  20.146 -0.0426 -0.0683  0.0326
43977W        W86889  31.518  30.515  20.610  0.1720  0.1143  0.0497
43978W        W86890  31.887  30.590  22.303 -0.0354 -0.0584 -0.0653
43979W        W86891  29.868  29.093  21.715  0.0822  0.0653  0.3417
43980W        W86892  31.303  32.077  21.221 -0.0839 -0.2921 -0.0894
43981W        W86893  29.773  27.972  23.539 -0.1050 -0.0139 -0.1422
43982W        W86894  30.588  31.607  22.126 -0.2693  0.0672 -0.0740
43983W        W86895  31.518  31.270  22.840  0.0236 -0.1145  0.0449
43984W        W86896  29.832  31.733  20.807 -0.1662 -0.1234 -0.1676
43985W        W86897  31.417  30.670  22.226 -0.0568 -0.2308  0.0426
43986W        W86898  29.780  33.378  23.142  0.1251  0.1786 -0.1839
43987W        W86899  32.527  28.807  21.903  0.1206 -0.0995  0.0668
43988W        W86900  28.600  28.392  22.954 -0.0320 -0.1689 -0.0521
43989W        W86901  30.432  32.090  22.112 -0.0785 -0.0443  0.1234
43990W        W86902  27.248  31.579  21.520  0.2722 -0.0325 -0.2726
43991W        W86903  29.140  30.988  22.476  0.0510  0.1057  0.1512
43992W        W86904  29.123  30.931  21.871 -0.3090  0.0237 -0.0905
43993W        W86905  29.746  34.385  21.511  0.1238  0.1113 -0.1383
43994W        W86906  30.307  29.434  23.600 -0.0968  0.1870  0.0217
43995W        W86907  31.269  30.194  22.929  0.2106 -0.0216 -0.0552
43996W        W86908  30.963  32.414  20.864 -0.0044  0.1536 -0.0391
43997W        W86909  29.338  31.373  19.232  0.2729  0.0884 -0.0557
43998W        W86910  28.466  29.051  22.900 -0.4176 -0.0204 -0.1070
43999W        W86911  29.804  30.325  22.078 -0.0335 -0.0685 -0.0501
44000W        W86912  32.176  30.003  22.179  0.1006  0.0722  0.1096
44001W        W86913  32.417  30.934  22.395 -0.1885  0.1793 -0.1587
44002W        W86914  31.192  32.769  22.505 -0.1725  0.0447  0.0608
44003W        W86915  30.679  32.288  21.765  0.1759 -0.1537  0.0394
44004W        W86916  32.299  30.191  25.138  0.0839  0.0272  0.0026
44005W        W86917  28.379  33.256  21.513 -0.3994 -0.0233  0.0197
44006W        W86918  28.238  33.413  22.080 -0.2857  0.1408 -0.1703
44007W        W86919  30.767  30.730  20.789  0.2373 -0.0721 -0.1822
44008W        W86920  31.378  31.510  21.829  0.3317  0.0197 -0.1217
44009W        W86921  32.052  31.343  23.109  0.1014 -0.0077  0.0422
44010W        W86922  29.645  32.672  23.442 -0.2031  0.0545 -0.0580
44011W        W86923  30.020  32.104  20.487  0.3016  0.1425  0.0589
44012W        W86924  31.468  32.589  24.259 -0.1211 -0.2816 -0.3114
44013W        W86925  30.067  32.239  22.440  0.0486 -0.0090 -0.0331
44014W        W86926  30.348  30.485  22.413 -0.0637 -0.1403  0.0882
44015W        W86927  31.645  29.239  21.226  0.0788 -0.2449 -0.1091
44016W        W86928  31.015  31.639  20.143  0.0419  0.0458  0.1774
44017W        W86929  32.760  30.708  22.762 -0.0254  0.0884 -0.0297
44018W        W86930  29.626  32.155  23.419 -0.4275 -0.1474  0.0691
44019W        W86931  29.102  33.633  21.632 -0.0789 -0.0936 -0.3350
44020W        W86932  32.696  29.903  24.088 -0.4294 -0.0569 -0.3138
44021W        W86933  30.766  31.275  20.974 -0.0810  0.1086 -0.0678
44022W        W86934  31.954  30.181  20.253  0.3008  0.2013  0.0441
44023W        W86935  29.769  31.265  19.491  0.1230  0.4788  0.0822
44024W        W86936  30.623  30.716  20.291 -0.0302 -0.2755  0.0471
44025W        W86937  30.166  29.311  22.712  0.1602  0.1209 -0.0683
44026W        W86938  30.267  33.676  22.007  0.1020  0.1401 -0.2988
44027W        W86939  29.396  30.561  22.290  0.1436 -0.0018 -0.3256
44028W        W86940  31.746  32.877  24.945 -0.1306  0.0763  0.0888
44029W        W86941  31.499  31.985  22.161  0.1508  0.0427 -0.3342
44030W        W86942  31.563  29.460  21.702  0.0927  0.1033  0.3630
44031W        W86943  30.414  33.065  22.883 -0.0392 -0.2402 -0.3242
44032W        W86944  29.627  30.751  21.854 -0.1923 -0.1313  0.1435
44033W        W86945  31.227  32.475  19.459 -0.1798  0.2411  0.2315
44034W        W86946  32.033  32.552  20.681  0.0585  0.0204  0.0261
44035W        W86947  29.913  34.027  21.188 -0.1220  0.1355  0.3605
44036W        W86948  29.816  30.463  21.509 -0.3988 -0.3229  0.1736
44037W        W86949  29.338  31.368  22.641 -0.1268 -0.2078 -0.4733
44038W        W86950  28.621  30.883  22.618  0.0004 -0.2495 -0.0152
44039W        W86951  30.475  29.209  20.248 -0.1293 -0.0646 -0.1460
44040W        W86952  33.636  31.044  23.287 -0.1335 -0.1312  0.0267
44041W        W86953  28.567  33.293  22.440 -0.0890 -0.1085 -0.3236
44042W        W86954  31.483  29.419  20.235 -0.2833  0.2018  0.1395
44043W        W86955  29.790  32.260  21.063  0.0928 -0.0508 -0.2314
44044W        W86956  31.539  32.837  23.621 -0.2683 -0.2891  0.3149
44045W        W86957  31.150  31.093  19.186  0.0825  0.1081 -0.1030
44046W        W86958  30.737  29.652  21.638  0.1719  0.1683  0.0707
44047W        W86959  33.391  29.921  21.736  0.2026  0.1128  0.1712
44048W        W86960  29.465  30.601  18.661  0.0546 -0.1024  0.0616
44049W        W86961  29.888  31.382  20.061  0.1119 -0.2815 -0.1680
44050W        W86962  31.720  32.791  22.852 -0.1113  0.0525 -0.2574
44051W        W86963  31.790  30.155  20.843  0.0939  0.0424 -0.2086
44052W        W86964  30.623  32.685  23.180 -0.0006  0.1016 -0.1444
44053W        W86965  31.742  29.897  23.115 -0.0159  0.0244 -0.1804
44054W        W86966  30.308  32.346  24.136  0.4056  0.1405  0.1717
44055W        W86967  29.873  33.632  20.006 -0.1847  0.2240 -0.0102
44056W        W86968  29.206  32.243  21.814 -0.1897  0.0990 -0.0032
44057W        W86969  28.781  32.562  21.253  0.2020  0.0437 -0.1075
44058W        W86970  29.377  30.070  22.213 -0.2168  0.1373  0.0227
44059W        W86971  30.611  32.444  23.708  0.3767  0.2100 -0.0042
44060W        W86972  31.272  28.881  20.878 -0.0541 -0.1379  0.0057
44061W        W86973  30.089  28.404  22.819  0.3050  0.0072 -0.0199
44062W        W86974  32.620  29.679  20.863 -0.1854 -0.0449  0.2150
44063W        W86975  28.722  31.986  20.930  0.1227 -0.2118 -0.0573
44064W        W86976  31.236  31.077  20.807 -0.0297  0.0192  0.1610
44065W        W86977  31.272  30.193  20.881  0.0078 -0.1042 -0.0793
44066W        W86978  31.527  31.102  21.301  0.0077  0.0804 -0.1462
44067W        W86979  28.457  31.143  22.176  0.1365 -0.0680 -0.0025
44068W        W86980  28.579  30.902  20.387  0.1164 -0.5062 -0.1349
44069W        W86981  30.376  30.511  24.019  0.0531  0.1941  0.3140
44070W        W86982  31.474  29.721  22.114 -0.1494  0.2217 -0.1693
44071W        W86983  33.164  30.642  22.334 -0.0149 -0.0229  0.1118
44072W        W86984  30.715  28.235  21.419  0.0018  0.1968  0.1594
44073W        W86985  32.752  29.341  22.269  0.1701  0.0498 -0.1403
44074W        W86986  28.341  31.326  20.378 -0.1893 -0.5017  0.1496
44075W        W86987  28.760  31.215  21.100  0.0233  0.2924  0.5135
44076W        W86988  32.843  29.391  23.587  0.0373 -0.3389 -0.0309
44077W        W86989  30.486  31.849  21.635  0.0936  0.1766  0.2602
44078W        W86990  31.933  32.888  24.391 -0.1171 -0.2635  0.2008
44079W        W86991  31.888   0.472  23.176 -0.0850 -0.2156  0.2231
44080W        W86992  29.212  29.922  22.970  0.1801  0.0834 -0.1371
44081W        W86993  29.416  28.638  21.098 -0.0444 -0.1173 -0.0699
44082W        W86994  27.901  33.431  21.636  0.2037  0.0593  0.1157
44083W        W86995  30.096  31.276  21.996 -0.1311  0.1810 -0.3286
44084W        W86996  30.416  29.999  19.746 -0.0059  0.1312 -0.3250
44085W        W86997  32.123  32.264  21.540 -0.3795 -0.1930 -0.1925
44086W        W86998  30.320  31.866  20.867 -0.2536 -0.0836  0.4501
44087W        W86999  29.145  32.638  22.101  0.1224  0.1652 -0.1966
44088W        W87000  32.134  28.964  23.753 -0.1377  0.0514 -0.3234
44089W        W87001  31.303  31.872  23.449  0.3097 -0.3839 -0.0142
44090W        W87002  32.708  29.844  22.316  0.0835  0.1530 -0.0206
44091W        W87003  29.620  30.047  20.331 -0.1245  0.1011 -0.0374
44092W        W87004  30.562  32.638  21.462  0.2252 -0.0404  0.1880
44093W        W87005  28.578  32.404  20.710 -0.0751  0.1588 -0.0108
44094W        W87006  29.029  31.651  21.173  0.3058 -0.2178  0.2144
44095W        W87007  30.418  32.679  21.981 -0.0658 -0.3256 -0.1716
44096W        W87008  32.406  29.622  21.251 -0.0292  0.3067  0.0385
44097W        W87009  28.920  31.589  24.480  0.2591 -0.0665 -0.2849
44098W        W87010  31.471  29.012  23.327  0.0120  0.0249 -0.1372
44099W        W87011  30.337  31.411  21.510  0.3217  0.3861  0.1707
44100W        W87012  30.121  32.641  22.764 -0.3698  0.2620 -0.1476
44101W        W87013  31.770  30.463  23.031  0.2834  0.2622  0.2027
44102W        W87014  33.313  30.132  19.475  0.1503  0.1254  0.2707
44103W        W87015  31.462  31.661  24.464  0.2087  0.4049 -0.1478
44104W        W87016  31.173  29.779  21.648 -0.0727 -0.0661  0.0379
44105W        W87017  30.861  30.858  18.766 -0.3022  0.0403  0.0360
44106W        W87018  31.929  29.630  21.927  0.1416 -0.0202 -0.2062
44107W        W87019  29.261  32.958  23.523 -0.1729 -0.2270  0.0727
44108W        W87020  30.071  32.832  21.518  0.1294 -0.0206  0.1049
44109W        W87021  30.500  31.070  22.209 -0.0693 -0.0198 -0.0004
44110W        W87022  29.851  30.926  19.118  0.3261  0.0654 -0.0670
44111W        W87023  32.020  30.527  20.598  0.0548 -0.0983 -0.0655
44112W        W87024  29.593  32.175  22.139 -0.1136 -0.0802  0.2086
44113W        W87025  31.140  31.559  22.516 -0.1586  0.1892 -0.0663
44114W        W87026  31.159  31.544  21.218 -0.0781  0.1214 -0.2120
44115W        W87027  28.977  31.060  23.060 -0.1678  0.3560 -0.0286
44116W        W87028  30.564  28.165  20.088  0.1696  0.2337  0.1986
44117W        W87029  31.570  28.440  21.697  0.0109  0.1546  0.1255
44118W        W87030  29.520  32.702  20.753  0.1092 -0.2613  0.0476
44119W        W87031  32.228  28.065  23.087 -0.0481 -0.1921  0.0543
44120W        W87032  32.889  29.207  21.746 -0.0604 -0.1899 -0.3233
44121W        W87033  28.887  30.452  22.205 -0.1095  0.2752  0.0032
44122W        W87034  32.590  29.569  23.222 -0.1377 -0.2056 -0.1094
44123W        W87035  31.720  31.047  20.786  0.0898 -0.3868 -0.0600
44124W        W87036  31.410  31.219  22.287 -0.2128 -0.0588  0.0216
44125W        W87037  30.229  29.932  21.342 -0.2456  0.1098 -0.0770
44126W        W87038  31.110  28.818  23.776  0.0485  0.3879 -0.1672
44127W        W87039  30.020  31.341  22.598  0.2033 -0.1684  0.2384
44128W        W87040  27.646  33.536  22.674  0.0080 -0.1531 -0.1526
44129W        W87041  29.616  32.548  22.457  0.1185  0.1070 -0.1235
44130W        W87042  31.628  30.205  22.174 -0.2336 -0.0398 -0.1308
44131W        W87043  30.997  28.736  23.267  0.2072 -0.2473  0.0129
44132W        W87044  30.411  29.450  19.827  0.0760  0.0996  0.0979
44133W        W87045  29.389  31.472  20.706 -0.2068  0.2448 -0.0201
44134W        W87046  27.797  31.230  20.423  0.2881  0.1427  0.0913
44135W        W87047  29.034  29.497  22.031 -0.1447  0.3259  0.0824
44136W        W87048  30.991  31.133  20.312  0.2363  0.2689 -0.1826
44137W        W87049  30.938  32.876  21.988 -0.1075 -0.1016  0.2944
44138W        W87050  31.734  30.923  23.251  0.1808 -0.1532  0.0167
44139W        W87051  30.359  33.369  22.428  0.3162 -0.1414 -0.1165
44140W        W87052  34.021  30.249  21.268 -0.0101  0.0579  0.3402
44141W        W87053  28.463  32.039  21.650 -0.2821  0.0805  0.1079
44142W        W87054  28.897  29.660  20.824 -0.2490  0.0116  0.1065
44143W        W87055  28.122  31.759  20.283  0.0753  0.1719 -0.2799
44144W        W87056  30.966  29.940  21.197  0.1733  0.1146 -0.0350
44145W        W87057  31.456  30.062  20.343 -0.1192  0.1176 -0.2305
44146W        W87058  31.264  29.528  22.534 -0.1665  0.0614  0.0736
44147W        W87059  30.841  30.042  23.844 -0.1598 -0.1279 -0.1851
44148W        W87060  29.428  33.429  22.021 -0.0748  0.1252 -0.0006
44149W        W87061  30.857  31.406  23.775  0.1542 -0.0466  0.1460
44150W        W87062  31.906  29.568  20.990 -0.0039  0.0119 -0.0559
44151W        W87063  30.582  32.789  24.140  0.3004 -0.0625 -0.1392
44152W        W87064  30.583  31.400  22.645  0.0457 -0.2458  0.1719
44153W        W87065  29.907  30.061  19.909  0.2827  0.1776 -0.0228
44154W        W87066  32.500  30.247  23.675 -0.1335 -0.2387 -0.0216
44155W        W87067  29.293  31.703  22.253 -0.0862 -0.1577 -0.1825
44156W        W87068  27.717  32.136  20.879  0.0620 -0.1076 -0.0209
44157W        W87069  30.297  34.085  21.531  0.0335 -0.0831  0.0988
44158W        W87070  29.801  30.305  22.562 -0.0663  0.3525 -0.2508
44159W        W87071  29.117  30.553  19.477  0.2151  0.0410  0.2445
44160W        W87072  30.885  32.193  23.138  0.0078 -0.3221  0.0433
44161W        W87073  31.340  32.400  23.108  0.0705  0.0426  0.3138
44162W        W87074  30.839  29.959  22.616 -0.0028  0.4064 -0.1015
44163W        W87075  30.387  29.224  21.693 -0.1904  0.3258  0.1974
44164W        W87076  29.320  30.229  19.982  0.4538 -0.0525 -0.1992
44165W        W87077  32.606  29.540  22.724 -0.0118  0.0267  0.0976
44166W        W87078  30.389  30.861  22.787  0.0970  0.0132  0.0377
44167W        W87079  30.005  32.026  22.970  0.0842  0.5895  0.1234
44168W        W87080  32.164  29.204  21.205 -0.0591  0.0269 -0.1325
44169W        W87081  31.722  33.057  20.909 -0.0497  0.3149 -0.1118
44170W        W87082  30.444  31.207  23.133  0.0158  0.0275  0.0858
44171W        W87083  28.444  31.487  19.945  0.0570 -0.2329  0.1255
44172W        W87084  29.049  31.827  22.716  0.1730 -0.1879 -0.1804
44173W        W87085  30.798  31.429  21.717 -0.2027 -0.1991 -0.1534
44174W        W87086  32.224  29.232  22.609 -0.0115 -0.0010 -0.1701
44175W        W87087  29.869  31.372  21.607 -0.2323 -0.1894  0.1146
44176W        W87088  29.408  29.386  21.576  0.1369  0.2813  0.0715
44177W        W87089  28.730  30.898  23.531 -0.0382  0.2263 -0.0085
44178W        W87090  32.425  28.803  20.317  0.3615  0.1429  0.1778
44179W        W87091  29.911  30.531  20.497  0.0675 -0.0021  0.1903
44180W        W87092  30.761  30.570  21.890 -0.2800  0.1953  0.1539
44181W        W87093  33.110  28.996  23.345 -0.0309  0.0181 -0.1735
44182W        W87094  31.978  29.577  21.457 -0.1251  0.2503  0.2733
44183W        W87095  32.241  29.675  24.216  0.1256 -0.0994  0.1161
44184W        W87096  29.672  28.075  22.723  0.1056 -0.1040  0.0425
44185W        W87097  30.576  31.017  21.697  0.2770  0.2523 -0.0499
44186W        W87098  30.039  30.872  20.997 -0.0740 -0.1821 -0.0764
44187W        W87099  31.367  31.510  23.830  0.3070  0.1104 -0.1263
44188W        W87100  29.942  31.273  23.585 -0.2989  0.2218 -0.1596
44189W        W87101  31.614  29.171  22.069 -0.2078 -0.1822  0.1275
44190W        W87102  31.212  29.220  22.911  0.1981 -0.1544 -0.3716
44191W        W87103  28.916  31.257  22.157  0.2564 -0.0904 -0.1916
44192W        W87104  32.216  30.956  21.460  0.0822  0.0276 -0.1758
44193W        W87105  31.095  29.856  20.031  0.1260 -0.0353 -0.0451
44194W        W87106  33.174  29.153  22.457  0.0163 -0.0261  0.0664
44195W        W87107  30.799  31.887  22.627  0.1878 -0.2443 -0.1759
44196W        W87108  32.044  30.052  21.247 -0.0147 -0.1304  0.0669
44197W        W87109  31.080  29.300  20.943 -0.0146 -0.0391  0.1619
44198W        W87110  29.166  31.020  20.965 -0.0226  0.1019  0.0565
44199W        W87111  30.710  29.197  22.348  0.1042 -0.4025 -0.0371
44200W        W87112  31.623  31.626  23.142  0.1195 -0.0547  0.1299
44201W        W87113  32.256  30.483  23.272 -0.2108 -0.1454 -0.2191
44202W        W87114  30.912  31.056  22.949 -0.1397 -0.0874 -0.1008
44203W        W87115  32.623  31.240  23.972  0.3193 -0.1830 -0.0832
44204W        W87116  30.992  31.658  24.215 -0.3235 -0.4593 -0.0418
44205W        W87117  29.546  29.739  22.607  0.1811 -0.2633  0.2008
44206W        W87118  31.556  33.650  22.731 -0.2521 -0.2282 -0.0034
44207W        W87119  33.042  30.316  19.904 -0.0583  0.1476 -0.0727
44208W        W87120  33.388  30.962  21.893 -0.2489  0.3522 -0.0603
44209W        W87121  32.182  31.149  19.352 -0.1758 -0.2722  0.2490
44210W        W87122  31.652  30.527  20.147 -0.3503  0.0145  0.1620
44211W        W87123  28.893  31.760  21.827 -0.3501  0.0342 -0.2665
44212W        W87124  31.668  31.195  24.365 -0.1504  0.1946  0.1481
44213W        W87125  29.023  29.871  19.970 -0.0803  0.0254  0.4547
44214W        W87126  32.214  29.982  23.306  0.1011  0.1644  0.1393
44215W        W87127  30.049  33.078  20.816 -0.0778  0.0402 -0.3110
44216W        W87128  32.271  30.437  22.742 -0.3740 -0.1118  0.0493
44217W        W87129  31.503  29.757  21.271 -0.0127  0.0031  0.2572
44218W        W87130  29.613  29.197  21.173  0.1643  0.3023 -0.2286
44219W        W87131  28.367  33.246  23.920 -0.1599 -0.0350 -0.1217
44220W        W87132  30.349  29.682  19.164  0.0222  0.3321  0.0172
44221W        W87133  30.246  31.007  19.714 -0.0417  0.2907  0.1790
44222W        W87134  30.861  32.571  22.790  0.3517 -0.1909 -0.1044
44223W        W87135  31.381  30.784  22.842 -0.4156 -0.0351  0.0894
44224W        W87136  30.867  30.304  20.588  0.3346 -0.1192 -0.0067
44225W        W87137  32.765  30.336  22.449 -0.2244  0.2348  0.1221
44226W        W87138  29.081  32.358  20.770 -0.2195  0.0492 -0.1587
44227W        W87139  32.868  29.774  21.582  0.0598  0.0816 -0.0232
44228W        W87140  29.597  32.862  21.994  0.1046 -0.0642  0.1412
44229W        W87141  28.861  33.111  21.438 -0.0249 -0.0048  0.1250
44230W        W87142  29.478  33.097  22.447  0.2292 -0.1607  0.1879
44231W        W87143  32.619  28.954  23.436  0.1535 -0.0808  0.2630
44232W        W87144  34.000  30.081  22.439  0.0999 -0.2691  0.1199
44233W        W87145  30.718  30.139  21.602 -0.1447  0.1059 -0.3614
44234W        W87146  33.140  30.960  22.970  0.0025 -0.0559  0.1309
44235W        W87147  31.607  31.647  24.970 -0.1730  0.3497  0.3000
44236W        W87148  31.205  30.273  21.859 -0.2110 -0.0653 -0.1257
44237W        W87149  31.931  33.040  23.891  0.0115  0.1053  0.0058
44238W        W87150  30.886  30.557  21.391 -0.0947  0.1086  0.3082
44239W        W87151  29.944  32.512  21.986 -0.2292  0.1779  0.2763
44240W        W87152  29.856  30.830  22.417 -0.1414  0.3399 -0.2817
44241W        W87153  31.797  31.597  24.091 -0.3779 -0.2229 -0.1904
44242W        W87154  32.376  32.296  23.249  0.2985 -0.2207 -0.0480
44243W        W87155  32.067  28.631  21.924 -0.0801 -0.0801  0.2832
44244W        W87156  30.401  33.071  21.170 -0.1706 -0.2913  0.2679
44245W        W87157  29.191  32.064  23.118  0.2381 -0.0043  0.0977
44246W        W87158  29.763  31.655  22.323  0.1037 -0.0315 -0.1639
44247W        W87159  28.307  32.240  21.154  0.3423 -0.1028  0.0185
44248W        W87160  33.619  30.452  21.503  0.0920  0.1116 -0.0256
44249W        W87161  30.138  30.892  20.211 -0.1206  0.0473  0.1123
44250W        W87162  32.087  32.864  22.482  0.2220  0.3559  0.0793
44251W        W87163  30.625  30.255  21.055  0.1024  0.1009 -0.2128
44252W        W87164  28.894  32.122  21.435  0.0439 -0.1920  0.0648
44253W        W87165  29.507  32.180  20.671 -0.3374 -0.0846 -0.2076
44254W        W87166  29.880  31.265  20.609 -0.0974 -0.0790  0.5548
44255W        W87167  29.470  33.227  20.797 -0.0964 -0.1480  0.0854
44256W        W87168  32.740  32.258  24.256 -0.0685  0.0199  0.0750
44257W        W87169  32.540  29.599  19.786 -0.1139  0.0907 -0.0257
44258W        W87170  31.274  32.241  22.609  0.3497 -0.1216 -0.2247
44259W        W87171  33.410  30.901  21.378 -0.0235 -0.3729  0.0900
44260W        W87172  30.786  31.444  24.649 -0.0343 -0.1592  0.2132
44261W        W87173  29.512  31.228  22.061  0.0693 -0.1308  0.0260
44262W        W87174  30.757  29.118  21.243 -0.0646 -0.1679 -0.0147
44263W        W87175  30.682  30.696  23.156 -0.1262  0.0549  0.0500
44264W        W87176  32.436  28.415  22.429 -0.3152  0.1387  0.0382
44265W        W87177  27.442  32.214  21.302 -0.0144  0.3168  0.0814
44266W        W87178  30.923  31.934  20.858 -0.0180 -0.0926  0.0547
44267W        W87179  30.890  29.924  22.129 -0.1945  0.2589  0.0279
44268W        W87180  32.224  29.836  22.849  0.0707 -0.2861 -0.1534
44269W        W87181  32.373  28.133  23.945  0.0654  0.0155 -0.1596
44270W        W87182  31.553  31.060  20.330 -0.2581 -0.0268 -0.0276
44271W        W87183  32.306  29.565  22.296  0.0618 -0.0776  0.0485
44272W        W87184  28.722  33.970  21.628  0.0504 -0.0399 -0.2216
44273W        W87185  29.746  31.351  21.099 -0.4012 -0.0288 -0.1422
44274W        W87186  29.930  34.027  21.903  0.1720 -0.1718 -0.0802
44275W        W87187  30.371  27.971  21.192  0.0657  0.1727 -0.2291
44276W        W87188  31.444  29.651  20.779 -0.0557  0.0234 -0.1335
44277W        W87189  30.463  29.896  23.579 -0.0224 -0.0122 -0.0663
44278W        W87190  33.512  28.771  22.181  0.0564  0.1997 -0.1112
44279W        W87191  30.749  30.466  22.761 -0.0394  0.1132  0.1425
44280W        W87192  32.407  29.317  21.747  0.1314  0.0170  0.2888
44281W        W87193  30.381  34.188  22.033  0.1215  0.0015  0.0799
44282W        W87194  28.961  29.019  22.172  0.3254  0.1292 -0.0513
44283W        W87195  30.271  30.114  22.073 -0.2672  0.1696  0.2492
44284W        W87196  33.051  30.296  23.371 -0.5360 -0.1929 -0.1582
44285W        W87197  31.707  29.008  19.348  0.0158  0.0302  0.2842
44286W        W87198  31.117  32.648  23.441 -0.3660  0.0717  0.2447
44287W        W87199  29.040  30.521  20.838 -0.0405 -0.0912  0.0622
44288W        W87200  30.585  28.697  21.475 -0.0052  0.3412 -0.1431
44289W        W87201  29.493  31.799  21.179 -0.0458 -0.3844  0.0570
44290W        W87202  30.904  30.731  22.344  0.4500 -0.1874 -0.2210
44291W        W87203  32.839  33.775  26.125 -0.3368  0.0879  0.4731
44292W        W87204  29.041  29.654  21.335 -0.4241 -0.0599 -0.2533
44293W        W87205  31.741  30.430  18.630  0.3040 -0.3605 -0.0140
44294W        W87206  33.142  29.693  22.508  0.2015  0.1473  0.3028
44295W        W87207  29.876  33.316  21.231  0.0031  0.1643 -0.0973
44296W        W87208  31.854  30.600  21.091 -0.0569  0.1245  0.1646
44297W        W87209  31.143  31.553  20.609 -0.1745 -0.0400 -0.0317
44298W        W87210  28.121  29.383  21.403 -0.2219 -0.1524  0.1038
44299W        W87211  30.974  31.938  22.111 -0.0387 -0.1163 -0.0330
44300W        W87212  31.797  30.580  21.562  0.2135 -0.0961 -0.3531
44301W        W87213  30.134  29.534  20.956  0.1494  0.0200 -0.0759
44302W        W87214  29.148  31.262  21.464 -0.0651 -0.1030  0.2060
44303W        W87215  29.375  33.209  21.511 -0.2186 -0.0099 -0.0097
44304W        W87216  32.706  30.622  21.976 -0.3439  0.2059 -0.5296
44305W        W87217  32.672  30.231  23.045  0.1355 -0.0350 -0.0262
44306W        W87218  30.900  33.159  21.560  0.0946 -0.0565 -0.1478
44307W        W87219  31.989  30.701  24.564  0.2335 -0.1403 -0.0942
44308W        W87220  29.425  33.481  22.796  0.2327  0.1300 -0.0814
44309W        W87221  30.004  32.884  23.165 -0.2273  0.0642  0.3962
44310W        W87222  28.802  30.349  20.342 -0.0644 -0.0966 -0.1948
44311W        W87223  31.740  30.302  23.547  0.1773 -0.2056  0.0595
44312W        W87224  30.251  31.400  20.945 -0.0167 -0.1651  0.3014
44313W        W87225  29.475  33.699  21.327 -0.0991  0.0677  0.0453
44314W        W87226  32.358  31.429  20.735  0.0090 -0.0783 -0.1082
44315W        W87227  31.122  29.733  23.001  0.3162 -0.0698  0.1006
44316W        W87228  31.722  32.409  22.495 -0.2379  0.1525  0.1344
44317W        W87229  30.037  30.387  21.081 -0.1842 -0.1328 -0.0651
44318W        W87230  33.751  30.235  21.976  0.1595 -0.2604 -0.2488
44319W        W87231  31.986  28.792  21.384 -0.2606 -0.0168 -0.0567
44320W        W87232  28.546  31.409  23.501  0.2194 -0.1896 -0.1033
44321W        W87233  27.624  30.484  20.661 -0.0365  0.0187 -0.0667
44322W        W87234  30.393  30.479  21.487 -0.2454 -0.3152  0.2728
44323W        W87235  29.440  31.821  21.691  0.0697 -0.3734 -0.0016
44324W        W87236  29.575  30.322  23.209  0.1046  0.1483  0.1359
44325W        W87237  31.875  28.675  23.455 -0.0972  0.4443 -0.1512
44326W        W87238  28.849  31.567  23.136 -0.2557  0.5651 -0.1573
44327W        W87239  29.288  30.483  20.384 -0.1052  0.1285 -0.0015
44328W        W87240  31.746  31.048  19.416  0.2167  0.2703  0.0893
44329W        W87241  29.916  29.541  21.450  0.5026 -0.1624  0.1117
44330W        W87242  29.320  28.095  22.350 -0.0865  0.0885 -0.1911
44331W        W87243  29.954  31.867  21.794  0.0523 -0.2166 -0.1011
44332W        W87244  31.104  30.611  20.163  0.0926  0.1012 -0.1117
44333W        W87245  30.725  30.228  20.141 -0.0271  0.2316 -0.0629
44334W        W87246  31.784  33.743  25.623  0.4375 -0.0405 -0.0889
44335W        W87247  29.225  30.706  19.965  0.1802 -0.0806  0.0256
44336W        W87248  30.858  30.567  24.162 -0.3668 -0.0250 -0.0095
44337W        W87249  29.962  31.504  23.156  0.1234  0.0568 -0.1548
44338W        W87250  28.538  29.569  19.945  0.4703 -0.0931  0.2432
44339W        W87251  31.760  30.179  22.634 -0.2024 -0.1155 -0.1604
44340W        W87252  30.139  32.347  21.518 -0.1957 -0.2446  0.3079
44341W        W87253  31.462  32.658  21.232  0.0499  0.0619 -0.2778
44342W        W87254  30.901  33.147  23.204  0.2332  0.2119  0.0552
44343W        W87255  30.799  32.271  24.154 -0.3563 -0.1332  0.0260
44344W        W87256  29.272  28.958  22.679  0.1716 -0.0843  0.2375
44345W        W87257  31.376  30.214  19.834  0.0078 -0.0368  0.2523
44346W        W87258  31.090  30.986  21.932 -0.1610 -0.3427  0.0917
44347W        W87259  31.990  31.335  20.420  0.0131 -0.2397 -0.2667
44348W        W87260  33.111  30.049  22.138  0.2854 -0.0084  0.0122
44349W        W87261  30.583  29.447  20.691 -0.5008 -0.0202 -0.1119
44350W        W87262  29.626  29.683  23.116  0.1189  0.0261 -0.0718
44351W        W87263  29.191  31.726  23.541  0.3378 -0.1253 -0.0173
44352W        W87264  31.751  31.832  23.631 -0.1668 -0.1324 -0.0349
44353W        W87265  31.422  28.763  22.899 -0.2240 -0.0770  0.0313
44354W        W87266  31.201  29.335  21.401 -0.0676  0.1125 -0.1778
44355W        W87267  30.519  30.917  21.207 -0.0467 -0.0312 -0.1195
44356W        W87268  30.264  31.772  22.642 -0.0193  0.0001  0.2656
44357W        W87269  30.401  30.423  20.687  0.3368 -0.1145 -0.2385
44358W        W87270  32.106  31.058  23.918 -0.0150 -0.1834  0.0999
44359W        W87271  30.538  32.205  21.211  0.0340  0.0294  0.0372
44360W        W87272  32.588  31.853  23.287 -0.3124 -0.0221  0.1424
44361W        W87273  29.612  32.435  21.614 -0.1880 -0.3608 -0.0031
44362W        W87274  31.830  31.387  21.724 -0.1802 -0.1710  0.0126
44363W        W87275  30.483  32.265  22.771 -0.0018  0.1697  0.0526
44364W        W87276  31.314  34.605  24.495 -0.0923  0.0331  0.0273
44365W        W87277  30.080  32.678  23.690 -0.0510 -0.1456 -0.2316
44366W        W87278  32.007  31.968  22.469  0.0604  0.1450 -0.1273
44367W        W87279  31.069  29.401  21.971  0.0168 -0.1979  0.5336
44368W        W87280  31.281  30.695  21.589 -0.0769 -0.2551 -0.0183
44369W        W87281  31.267  30.665  21.030  0.1617  0.1722 -0.1342
44370W        W87282  32.079  31.848  23.235  0.1548  0.0070 -0.2170
44371W        W87283  29.508  29.631  21.997  0.4349 -0.2370 -0.0194
44372W        W87284  30.618  29.731  20.240  0.0320 -0.1786  0.0148
44373W        W87285  29.742  32.920  24.049 -0.1770 -0.1564 -0.1391
44374W        W87286  31.203  30.289  22.452 -0.2698  0.2455  0.0365
44375W        W87287  29.863  33.299  25.668 -0.0582  0.1258  0.2364
44376W        W87288  30.188  30.960  23.978 -0.1294 -0.2083 -0.0172
44377W        W87289  31.900  28.906  23.011 -0.2356  0.1572 -0.2187
44378W        W87290  30.726  30.233  24.844  0.1500  0.0636 -0.0468
44379W        W87291  29.846  30.142  25.859 -0.2514 -0.1630 -0.1223
44380W        W87292  31.266  32.711  25.226 -0.1176 -0.1063  0.2729
44381W        W87293  28.876  30.279  26.541  0.1507  0.5080  0.0414
44382W        W87294  33.354  30.619  27.071 -0.0881  0.2048  0.0535
44383W        W87295  34.128  32.379  27.475  0.1395 -0.2886  0.0018
44384W        W87296  32.469  31.087  22.861 -0.0456  0.1179 -0.0786
44385W        W87297  32.666  29.498  25.647 -0.0576  0.2550 -0.0616
44386W        W87298  30.415  32.643  27.362 -0.0669  0.0898 -0.2832
44387W        W87299  30.212  29.514  24.060 -0.1337  0.0340  0.1644
44388W        W87300  29.592  28.616  25.698 -0.0991 -0.0425 -0.2133
44389W        W87301  32.325  31.159  26.505  0.1136  0.1908 -0.2872
44390W        W87302  30.004  31.539  24.040  0.4508 -0.0316  0.3470
44391W        W87303  27.847  30.049  26.432  0.1450 -0.1986  0.0337
44392W        W87304  29.289  30.515  25.082 -0.0856  0.0785 -0.1730
44393W        W87305  30.314  33.429  24.860 -0.2061 -0.1676 -0.1354
44394W        W87306  30.226  27.951  26.474 -0.1792  0.1468  0.0179
44395W        W87307  31.305  28.914  26.750  0.1360 -0.4899 -0.2762
44396W        W87308  30.112  32.717  24.317  0.1765 -0.0636  0.3568
44397W        W87309  29.045  31.681  24.028 -0.1352 -0.1791 -0.1104
44398W        W87310  28.920  31.499  25.860 -0.1920  0.1613 -0.2490
44399W        W87311  29.820  30.706  25.683  0.0850  0.1148  0.0249
44400W        W87312  32.955  29.402  25.263 -0.0232 -0.1214 -0.0898
44401W        W87313  31.117  30.737  25.698  0.0118  0.0337 -0.2101
44402W        W87314  30.407  33.106  25.914 -0.1019 -0.0509  0.1987
44403W        W87315  30.123  30.863  24.641 -0.2046  0.1444 -0.3757
44404W        W87316  33.343  29.670  27.788  0.2485 -0.0307 -0.0662
44405W        W87317  29.062  31.022  24.194  0.0653  0.0986  0.2662
44406W        W87318  28.497  32.303  26.229  0.0116 -0.2052  0.2604
44407W        W87319  29.361  32.459  25.379  0.1289  0.0791  0.1045
44408W        W87320  32.129  31.914  25.302  0.3669 -0.0381  0.4151
44409W        W87321  31.778  32.423  26.536  0.0890 -0.0639 -0.0219
44410W        W87322  30.573  32.364  26.891  0.1262  0.0166  0.1445
44411W        W87323  29.475  32.002  23.935  0.1009  0.0574  0.0563
44412W        W87324  31.171  32.097  26.713  0.3378 -0.0005 -0.0940
44413W        W87325  30.300  30.826  27.240 -0.1473 -0.1021  0.1017
44414W        W87326  30.677  31.835  25.536  0.1048  0.0052  0.1985
44415W        W87327  30.888  31.217  25.772  0.0010  0.1903  0.0219
44416W        W87328  30.372  31.884  23.934 -0.0801 -0.2482 -0.2178
44417W        W87329  31.657  31.293  26.917 -0.0298  0.1427  0.3350
44418W        W87330  31.334  31.677  26.941 -0.4267 -0.1366 -0.0259
44419W        W87331  29.823  32.439  25.549 -0.0193  0.1730  0.0318
44420W        W87332  32.767  29.843  28.314  0.1206  0.0271 -0.0119
44421W        W87333  30.350  32.327  25.023  0.1431 -0.2134 -0.2866
44422W        W87334  31.862  30.479  24.120  0.3440  0.0057 -0.2198
44423W        W87335  30.658  30.960  23.899  0.0085 -0.0492 -0.0337
44424W        W87336  29.521  30.365  24.608  0.2668 -0.1156 -0.1094
44425W        W87337  30.442  29.846  26.331  0.3500  0.1814  0.1799
44426W        W87338  29.908  32.724  26.321 -0.0186 -0.3875 -0.1071
44427W        W87339  30.466  29.116  25.543 -0.0245 -0.0533 -0.2887
44428W        W87340  31.529  31.917  25.509 -0.2906 -0.0689  0.3450
44429W        W87341  30.918  32.270  24.833  0.2429  0.0708  0.2650
44430W        W87342  31.306  30.958  25.226  0.0248 -0.1383 -0.2228
44431W        W87343  30.142  31.642  26.288  0.0739 -0.0147  0.1162
44432W        W87344  29.274  29.750  26.545 -0.0051  0.0523  0.0474
44433W        W87345  32.744  33.329  24.877  0.4082  0.0025  0.2007
44434W        W87346  32.461  32.603  24.813 -0.1008  0.4513 -0.0118
44435W        W87347  31.650  32.967  25.439  0.0970  0.3363  0.0165
44436W        W87348  29.989  30.385  24.910  0.1653 -0.3288 -0.0262
44437W        W87349  30.137  31.414  28.101  0.0651  0.1396 -0.0758
44438W        W87350  30.469  31.076  26.802 -0.3058 -0.0750  0.0267
44439W        W87351  30.254  28.019  23.737  0.1322 -0.1530  0.3687
44440W        W87352   0.410  32.177  27.534  0.1387 -0.0630 -0.2939
44441W        W87353  31.138  31.195  26.922  0.1122 -0.0213 -0.0679
44442W        W87354  31.363  29.559  24.953  0.3761  0.0590  0.2090
44443W        W87355  29.358  30.499  25.914  0.0165  0.0556 -0.1129
44444W        W87356  33.160  33.275  26.977  0.1084  0.0082  0.0759
44445W        W87357  31.832  31.322  23.589  0.2533  0.0534  0.1336
44446W        W87358  32.106  29.421  25.826  0.0456 -0.1290 -0.1063
44447W        W87359  31.789  28.124  26.111 -0.4273 -0.0158  0.2580
44448W        W87360  29.824  31.828  24.915 -0.0272  0.0770 -0.3296
44449W        W87361  29.562  32.201  24.649  0.2561 -0.0545 -0.0617
44450W        W87362  32.409  31.436  27.024  0.0194  0.0664  0.0901
44451W        W87363  31.360  31.276  23.372 -0.1798  0.3717 -0.2099
44452W        W87364  28.520  32.383  25.685 -0.0794  0.2924  0.0675
44453W        W87365  30.648  30.141  26.820  0.1734  0.0190  0.2338
44454W        W87366  31.783  32.237  27.313  0.2187  0.1894 -0.1177
44455W        W87367  29.904  33.127  22.711  0.0917  0.0742 -0.3284
44456W        W87368  29.984  32.831  25.862 -0.0050  0.1574 -0.0618
44457W        W87369  28.543  30.617  25.850  0.3559 -0.4894 -0.1006
44458W        W87370  29.324  28.629  25.170 -0.3750  0.0056  0.0994
44459W        W87371  29.623  31.444  26.288 -0.1156  0.1815  0.1961
44460W        W87372  33.145  29.659  25.863  0.0893 -0.2245  0.0604
44461W        W87373  29.340  30.585  26.468  0.3768  0.1384 -0.1346
44462W        W87374  31.212  28.369  26.592  0.1151 -0.0550  0.3368
44463W        W87375  29.681  32.876  25.313  0.1993 -0.1134 -0.0002
44464W        W87376  32.538  31.835  25.987 -0.2616  0.2129 -0.3356
44465W        W87377  30.427  30.004  24.113  0.0565  0.1776  0.1827
44466W        W87378  31.034  32.218  25.343 -0.0902 -0.2105 -0.3779
44467W        W87379  28.575  31.310  26.591 -0.1853  0.1679 -0.4594
44468W        W87380  30.397  31.222  24.894  0.2058  0.2085  0.2008
44469W        W87381  31.222  30.086  26.639 -0.0910  0.0083 -0.1215
44470W        W87382  29.753  31.297  24.974 -0.1322  0.1899 -0.0810
44471W        W87383  31.979  30.895  26.756  0.1495 -0.1407  0.1273
44472W        W87384  30.042  29.029  23.840  0.1622  0.1426  0.2008
44473W        W87385  30.830  28.787  26.654  0.0640  0.1035  0.1108
44474W        W87386  31.346  30.161  24.811 -0.4935  0.0575 -0.2159
44475W        W87387  28.951  31.653  25.208  0.1426  0.0304  0.2265
44476W        W87388  32.059  30.091  26.853  0.0810 -0.0989  0.0760
44477W        W87389  31.941  32.401  24.481 -0.0195 -0.1767 -0.0802
44478W        W87390  32.596  32.877  27.812 -0.0833 -0.3137  0.1114
44479W        W87391  31.602  32.696  25.897  0.2624  0.0579 -0.3260
44480W        W87392  29.811  30.331  26.677 -0.1424 -0.0286  0.3564
44481W        W87393  29.648  30.882  24.623  0.0629  0.3152 -0.0715
44482W        W87394  29.748  33.804  25.656 -0.0446 -0.4125  0.1726
44483W        W87395  30.763  33.324  26.616 -0.1556 -0.0436 -0.5943
44484W        W87396  31.446  29.892  25.381 -0.1769 -0.0672  0.1771
44485W        W87397  31.101  31.016  24.483 -0.1251 -0.0260  0.0324
44486W        W87398  29.672  30.994  24.046 -0.0574 -0.1167  0.2747
44487W        W87399  29.833  31.612  26.716 -0.1867  0.0943  0.1020
44488W        W87400  30.827  28.428  27.647 -0.0216 -0.0328 -0.1242
44489W        W87401  34.046  31.991  25.210  0.1518 -0.0704 -0.2637
44490W        W87402  30.132  31.033  25.383 -0.2233  0.0620 -0.4303
44491W        W87403  30.349  30.278  23.282 -0.0467 -0.1182  0.0782
44492W        W87404  30.626  33.625  25.309 -0.1895 -0.0126 -0.0339
44493W        W87405  27.890  33.577  23.772 -0.0690 -0.1598  0.0492
44494W        W87406  28.087  31.201  23.855 -0.0286 -0.2959 -0.1549
44495W        W87407  31.474  30.405  25.254 -0.1050  0.0556 -0.3580
44496W        W87408  30.418  29.418  25.041  0.0345  0.0703 -0.0660
44497W        W87409  29.980  29.693  28.005  0.2449 -0.2305 -0.2806
44498W        W87410  31.882  29.594  26.691  0.1236  0.0773  0.2198
44499W        W87411  30.294  30.742  23.500 -0.2115 -0.0826 -0.0339
44500W        W87412  30.542  31.216  26.319  0.2631 -0.0234  0.1868
44501W        W87413  30.509  29.643  25.477  0.1255 -0.3003 -0.0559
44502W        W87414  32.855  28.933  23.876  0.1867 -0.2321  0.3033
44503W        W87415  31.229  32.139  27.201 -0.3482 -0.1284  0.1467
44504W        W87416  32.310  31.557  24.155  0.1029 -0.0944  0.0635
44505W        W87417  31.262  31.868  22.949  0.2263 -0.1588 -0.2800
44506W        W87418  32.788  28.707  25.758 -0.2444  0.0069  0.0671
44507W        W87419  30.767  32.205  27.354 -0.3650  0.0169 -0.0603
44508W        W87420  31.462  33.045  24.587 -0.1200 -0.1059 -0.3466
44509W        W87421  30.836  32.170  26.055  0.2012 -0.1820 -0.0060
44510W        W87422  31.270  30.068  23.522 -0.1744  0.0319 -0.0948
44511W        W87423  33.321  32.616  25.119 -0.3537  0.0686  0.1860
44512W        W87424  28.501  31.738  25.528  0.1835  0.0889 -0.0088
44513W        W87425  30.779  32.042  28.648  0.0392 -0.0456  0.1218
44514W        W87426  32.213  32.965  25.271  0.1471  0.0610  0.0018
44515W        W87427  30.088  31.183  26.536  0.2005 -0.2487  0.0643
44516W        W87428  30.349  30.164  22.802  0.1534  0.0471 -0.0864
44517W        W87429  31.161  28.721  24.268 -0.2670  0.2677 -0.2179
44518W        W87430  28.560  32.944  22.776  0.1232 -0.1594  0.0708
44519W        W87431  31.663  29.189  26.408  0.0159 -0.0169  0.1157
44520W        W87432  32.443  29.002  26.774  0.1985  0.0146 -0.2305
44521W        W87433  30.699  29.345  27.320  0.0700 -0.0293  0.1999
44522W        W87434  31.808  31.758  25.909  0.2187 -0.1167  0.2825
44523W        W87435  31.156  30.965  23.881  0.0025 -0.2693 -0.0013
44524W        W87436  31.031  30.571  25.109  0.2022 -0.1170 -0.2002
44525W        W87437  30.887  31.033  23.451 -0.4258 -0.0521  0.0507
44526W        W87438  32.509  29.685  26.530 -0.3282 -0.0859 -0.0661
44527W        W87439  29.808  31.277  25.619 -0.2535  0.2774  0.0167
44528W        W87440  29.084  33.585  26.191  0.0940  0.1683 -0.2910
44529W        W87441  30.646  31.877  27.004 -0.1423  0.2671  0.2415
44530W        W87442  31.289  32.475  26.370 -0.3088 -0.1168 -0.2590
44531W        W87443  30.639  28.794  27.159 -0.2203  0.0941  0.1431
44532W        W87444  29.575  30.039  25.118  0.4517 -0.2506 -0.3698
44533W        W87445  30.146  31.788  24.558  0.0340  0.0540 -0.0385
44534W        W87446  27.638  32.118  23.434  0.1563 -0.1938  0.0574
44535W        W87447  28.234  30.420  26.162  0.0233 -0.1140 -0.0276
44536W        W87448  31.591  33.864  26.911 -0.1079  0.0078  0.1368
44537W        W87449  29.320  32.491  23.887 -0.5134  0.2932 -0.2199
44538W        W87450  32.408  33.455  27.777 -0.2362 -0.2365 -0.2586
44539W        W87451  29.470  32.886  22.929  0.4059  0.2577  0.2524
44540W        W87452  33.534  28.189  25.741  0.0072 -0.0526 -0.1173
44541W        W87453  29.352  33.079  24.947  0.2987  0.2886  0.0156
44542W        W87454  29.268  30.892  23.743 -0.1891  0.0670  0.0184
44543W        W87455  28.131  31.771  25.049 -0.1558 -0.0390  0.1436
44544W        W87456  31.697  30.057  26.423  0.2848  0.0780 -0.3279
44545W        W87457  31.460  30.724  24.289  0.1251  0.0825  0.1434
44546W        W87458  30.658  30.853  25.423  0.0859 -0.0482  0.2001
44547W        W87459  30.103  29.647  25.906 -0.0759 -0.0799 -0.4008
44548W        W87460  28.685  32.524  24.931 -0.1962  0.0478 -0.2130
44549W        W87461  32.399  30.038  27.895  0.4148 -0.2181  0.1201
44550W        W87462  31.564  29.406  25.473  0.1049  0.2533  0.0186
44551W        W87463  32.430  32.355  26.563  0.1545  0.0197 -0.0419
44552W        W87464  31.934  33.100  28.293 -0.1655 -0.1729  0.0454
44553W        W87465  30.021  30.543  23.043  0.1610 -0.0281 -0.1003
44554W        W87466  32.862  30.785  27.198  0.0183  0.3553  0.1096
44555W        W87467  29.913  29.609  24.980  0.1161 -0.1617  0.1366
44556W        W87468  27.991  32.815  24.196 -0.1553 -0.0345  0.0063
44557W        W87469  30.868  31.125  25.031 -0.0367  0.1059  0.2166
44558W        W87470  28.189  31.050  24.381 -0.0840  0.2373  0.4629
44559W        W87471  29.201  32.049  24.335 -0.3929 -0.0281 -0.1047
44560W        W87472  30.752  29.267  26.442 -0.0650 -0.0988 -0.2438
44561W        W87473  31.680  32.007  26.897  0.1845  0.1821 -0.2335
44562W        W87474  31.658  29.621  26.152 -0.0857 -0.1885  0.0548
44563W        W87475  29.574  29.261  25.175  0.2155 -0.0235 -0.2657
44564W        W87476  30.190  30.513  25.413 -0.0113  0.1586 -0.1399
44565W        W87477  30.791  30.281  26.208  0.2384 -0.0403  0.0772
44566W        W87478  31.535  30.778  27.061  0.0579  0.2282 -0.2043
44567W        W87479  30.020  31.641  27.218  0.3567  0.0712 -0.0178
44568W        W87480  31.290  29.680  25.822 -0.0899 -0.1279 -0.1209
44569W        W87481  31.390  31.261  24.784 -0.1175 -0.1226  0.1560
44570W        W87482  32.359  30.813  27.357  0.1637  0.1059 -0.2587
44571W        W87483  29.149  31.265  24.828  0.0659  0.2794 -0.1675
44572W        W87484  27.536  31.661  24.824  0.0615  0.0742  0.2933
44573W        W87485  29.787  32.380  24.222 -0.0926  0.2035  0.2002
44574W        W87486  31.941  29.861  25.309 -0.0029 -0.2165  0.0848
44575W        W87487  29.283  32.774  26.298 -0.1695  0.0053  0.0572
44576W        W87488  30.185  32.433  23.251  0.3020 -0.2967  0.1620
44577W        W87489  28.974  33.122  26.019 -0.1659  0.3483 -0.0170
44578W        W87490  32.604  28.575  24.177 -0.0610  0.1254 -0.0955
44579W        W87491  31.890  33.834  24.998  0.0698  0.3913 -0.3049
44580W        W87492  30.214  29.289  26.433  0.1098  0.4253 -0.3057
44581W        W87493  33.708  28.333  26.788 -0.0714  0.1207  0.1778
44582W        W87494  31.997  32.308  24.984 -0.0139 -0.2285  0.0495
44583W        W87495  32.615  29.409  28.539  0.0855 -0.0019 -0.0923
44584W        W87496  30.247  29.602  27.579  0.1742 -0.0328 -0.2442
44585W        W87497  32.006  31.553  26.640  0.0590  0.3247  0.1419
44586W        W87498  29.895  30.497  28.052  0.0685  0.0904  0.0650
44587W        W87499  31.575  32.831  27.604 -0.1727  0.0029  0.1372
44588W        W87500  31.657  30.377  26.779  0.0106  0.3089 -0.0948
44589W        W87501  30.389  29.059  26.835 -0.0621  0.1282  0.1692
44590W        W87502  30.957  31.519  23.072 -0.3287  0.3689 -0.0753
44591W        W87503  31.363  31.169  25.654 -0.2089 -0.0664 -0.1945
44592W        W87504  32.000  31.502  24.563 -0.2916  0.3137 -0.0038
44593W        W87505  29.427  31.379  24.307 -0.1704 -0.4539  0.2325
44594W        W87506  32.605  31.657  25.308 -0.0517 -0.0610  0.0643
44595W        W87507  29.786  31.767  25.920 -0.0764  0.1050  0.1193
44596W        W87508  30.846  29.622  24.924  0.2459 -0.2738  0.0714
44597W        W87509  30.745  31.833  23.506 -0.0283  0.1978 -0.1392
44598W        W87510  29.751  31.926  25.392  0.0133 -0.2799  0.2379
44599W        W87511  32.078  29.110  27.118 -0.0214 -0.1807  0.0216
44600W        W87512  31.731  31.441  25.390  0.0613 -0.2335  0.0666
44601W        W87513  31.112  29.158  25.052 -0.0356 -0.2351 -0.1580
44602W        W87514  33.561  29.239  26.192 -0.0612  0.1885  0.1327
44603W        W87515  30.975  30.858  26.619  0.3367 -0.1457 -0.0207
44604W        W87516  30.680  28.613  25.514 -0.0613 -0.1876  0.1279
44605W        W87517  29.944  29.871  27.279  0.0759 -0.2950 -0.0739
44606W        W87518  33.577  32.501  27.442  0.2189 -0.1142 -0.2081
44607W        W87519  32.093  30.114  24.419 -0.1154  0.2758  0.2210
44608W        W87520  32.473  29.082  25.942  0.0946  0.0991  0.0445
44609W        W87521  31.839  30.258  24.905 -0.0694  0.2035  0.0102
44610W        W87522  31.854  31.189  24.890 -0.0747 -0.0422  0.0539
44611W        W87523  29.792  29.822  26.320 -0.2288 -0.0867  0.0635
44612W        W87524  32.781  31.541  27.746  0.0256  0.1278  0.0743
44613W        W87525  30.153  30.618  21.925 -0.2170  0.2805  0.0133
44614W        W87526  32.479  30.440  27.003 -0.0163  0.2644 -0.1395
44615W        W87527  30.919  34.445  24.157 -0.1606 -0.3815  0.0689
44616W        W87528  30.485  33.116  24.537  0.0156 -0.2929  0.1700
44617W        W87529  30.560  30.769  24.908  0.1943  0.0927  0.2639
44618W        W87530  27.654  30.850  25.814 -0.1429 -0.1475 -0.1345
44619W        W87531  29.317  32.552  27.779 -0.0910  0.0006 -0.2312
44620W        W87532  28.966  31.308  23.693  0.0947  0.1154 -0.3972
44621W        W87533  30.487  31.438  24.140 -0.0080 -0.1285  0.1668
44622W        W87534  31.146  31.859  26.261  0.4566  0.0374  0.3468
44623W        W87535  32.586  30.761  29.069  0.2175  0.0028  0.0234
44624W        W87536  31.095  29.237  23.566  0.1542 -0.0771  0.0573
44625W        W87537  32.556  30.260  27.481 -0.3355 -0.3294 -0.2257
44626W        W87538  29.358  32.037  25.120 -0.0808 -0.1019  0.0896
44627W        W87539  32.221  29.449  25.343 -0.0636 -0.0580 -0.3795
44628W        W87540  30.810  33.407  25.940 -0.2282 -0.1865  0.0484
44629W        W87541  29.496  32.825  25.805  0.2072 -0.1499 -0.0766
44630W        W87542  30.610  31.952  26.459  0.0803  0.0130  0.2100
44631W        W87543  30.993  31.520  27.849  0.0384  0.0590  0.2817
44632W        W87544  32.164  29.938  26.315  0.2869 -0.1215  0.1508
44633W        W87545  30.708  31.678  26.041  0.0910 -0.1236 -0.3246
44634W        W87546  32.775  31.042  27.751 -0.0787 -0.0211  0.3497
44635W        W87547  30.863  32.988  27.494  0.2501  0.0916  0.0597
44636W        W87548  29.783  30.851  25.119  0.1279 -0.0124  0.1701
44637W        W87549  31.234  32.400  25.756  0.0878  0.0462 -0.0172
44638W        W87550  31.767  30.847  25.428  0.4310  0.1798  0.0733
44639W        W87551  30.423  31.390  23.575  0.1833  0.3054  0.0542
44640W        W87552  30.595  31.282  28.081  0.1666 -0.3458  0.3576
44641W        W87553  32.095  30.030  27.370  0.1349  0.2406  0.0497
44642W        W87554  30.465  32.576  25.931 -0.2436 -0.0485 -0.2279
44643W        W87555  30.209  27.550  23.867 -0.2019  0.0858  0.0496
44644W        W87556  30.158  31.944  23.431 -0.0999  0.0201  0.1003
44645W        W87557  28.981  30.947  25.755  0.0251 -0.2794 -0.0636
44646W        W87558  31.495  30.254  25.809 -0.0720 -0.3801 -0.0460
44647W        W87559  28.906  32.239  23.918 -0.0602 -0.1449  0.1041
44648W        W87560  31.033  32.680  23.925  0.0028  0.0736 -0.2626
44649W        W87561  31.070  33.189  23.696 -0.2011  0.0686 -0.1734
44650W        W87562  31.036  31.493  25.310  0.1576  0.2531 -0.3723
44651W        W87563  30.437  29.891  24.689 -0.2254  0.3929  0.0055
44652W        W87564  29.011  33.008  24.589 -0.2488 -0.2806 -0.5066
44653W        W87565  27.516  32.127  22.569 -0.1184  0.0089 -0.0906
44654W        W87566  31.378  32.556  24.736 -0.2613  0.0482 -0.1964
44655W        W87567  30.202  32.839  24.875 -0.0160 -0.0284  0.4280
44656W        W87568  32.736  32.427  28.198  0.0162 -0.3617 -0.1553
44657W        W87569  31.808  29.812  23.653  0.1883 -0.0397 -0.1237
44658W        W87570  31.075  30.469  24.556 -0.0480  0.1095  0.1398
44659W        W87571  32.128  30.086  23.950  0.3278 -0.2751  0.3081
44660W        W87572  32.287  31.951  26.857  0.2995  0.5644  0.0631
44661W        W87573  28.327  30.931  24.896  0.2099  0.1243  0.0377
44662W        W87574  29.882  30.589  24.167  0.1797  0.4107 -0.2050
44663W        W87575  32.309  31.273  28.028  0.1064 -0.1677 -0.0886
44664W        W87576  33.282  29.881  28.286 -0.2690 -0.0583 -0.4006
44665W        W87577  30.237  31.262  27.467 -0.0897 -0.3230 -0.1212
44666W        W87578  33.216  32.940  25.459  0.1539 -0.2423 -0.3212
44667W        W87579  29.176  29.971  24.746 -0.0531 -0.1464 -0.0405
44668W        W87580  30.932  29.112  24.571 -0.2898 -0.1131  0.0089
44669W        W87581  32.713  28.339  27.475 -0.1067  0.1469  0.0452
44670W        W87582  30.535  32.509  24.616 -0.0210  0.1597  0.0280
44671W        W87583  31.049  30.109  25.731  0.2092  0.1072  0.2219
44672W        W87584  29.743  32.754  24.648  0.1541 -0.0235  0.4801
44673W        W87585  31.467  32.092  25.048 -0.1091 -0.5867  0.1541
44674W        W87586  30.462  33.096  25.216 -0.1212  0.2245 -0.1763
44675W        W87587  28.623  30.589  25.132 -0.1380  0.3860  0.2989
44676W        W87588  31.857  29.885  25.747  0.1590 -0.2938  0.0034
44677W        W87589  31.568  29.906  26.987  0.3357 -0.0002 -0.0615
44678W        W87590  32.120  28.937  28.001  0.2267 -0.1777 -0.2019
44679W        W87591  30.517  30.105  25.787  0.0852  0.3360  0.1587
44680W        W87592  31.230  29.647  23.951 -0.1149  0.1178 -0.2180
44681W        W87593  30.091  32.003  26.827 -0.0960 -0.0215  0.0818
44682W        W87594  30.902  30.833  27.247 -0.0287 -0.1927 -0.1604
44683W        W87595  30.464  30.497  24.513 -0.0796 -0.1085  0.1524
44684W        W87596  32.372  31.847  27.831  0.0258  0.1697  0.0278
44685W        W87597  31.504  30.703  24.788  0.1800 -0.0460  0.0367
44686W        W87598  31.991  34.234  27.144 -0.0223 -0.1239 -0.1999
44687W        W87599  29.511  29.370  24.643 -0.1961 -0.1131  0.1384
44688W        W87600  30.851  29.647  23.477  0.1333  0.0616 -0.0861
44689W        W87601  30.086  31.528  25.264  0.1896  0.0321  0.0339
44690W        W87602  29.892  30.511  26.221  0.0340 -0.0413 -0.2449
44691W        W87603  32.960  32.475  27.726  0.2321 -0.2521  0.1534
44692W        W87604  30.964  29.196  24.074  0.1292  0.2826  0.2460
44693W        W87605  32.865  31.647  24.203 -0.0615 -0.1215 -0.1040
44694W        W87606  32.028  31.125  27.194  0.2014 -0.2056 -0.2979
44695W        W87607  30.256  33.786  23.856 -0.0255 -0.2242 -0.1185
44696W        W87608  31.021  30.078  25.195  0.1993 -0.0148 -0.1678
44697W        W87609  31.212  33.010  25.739  0.1056  0.1817 -0.0679
44698W        W87610  30.697  30.714  25.928 -0.0894  0.1374 -0.0676
44699W        W87611  31.622  32.228  26.025 -0.3308 -0.0352 -0.2449
44700W        W87612  33.693  32.919  28.171 -0.0145  0.2502  0.2563
44701W        W87613  28.970  29.792  24.302 -0.1490  0.2182 -0.3910
44702W        W87614  28.483  31.843  26.163 -0.1942 -0.2785  0.4014
44703W        W87615  29.547  33.142  26.188  0.0203 -0.1717  0.1902
44704W        W87616  31.824  30.500  26.218 -0.0115 -0.2387 -0.1075
44705W        W87617  32.270  30.566  26.559 -0.2566  0.2619  0.3092
44706W        W87618  31.016  32.657  24.449 -0.0331 -0.1775 -0.0397
44707W        W87619  32.099  29.785  29.075 -0.0570  0.4210 -0.2638
44708W        W87620  32.144  33.077  26.188  0.2998 -0.0508 -0.0435
44709W        W87621  29.777  32.432  26.654  0.0404  0.1710  0.1332
44710W        W87622  29.407  30.980  25.496 -0.2515  0.1328 -0.2895
44711W        W87623  30.340  31.559  26.755 -0.0420 -0.3547  0.1816
44712W        W87624  31.287  32.037  24.019  0.1666 -0.2360 -0.2682
44713W        W87625  30.265  33.097  23.930  0.0559  0.1200  0.2784
44714W        W87626  31.576  30.792  25.896  0.0199 -0.0500  0.0195
44715W        W87627  29.904  31.307  24.503 -0.1305 -0.0097 -0.0583
44716W        W87628  31.395  31.507  26.010  0.3471  0.2527 -0.0965
44717W        W87629  31.817  28.675  27.038 -0.2536  0.0888  0.1359
44718W        W87630  33.399  29.650  26.320  0.0424 -0.1055  0.1208
44719W        W87631  32.586  29.722  25.126 -0.1806 -0.2696  0.1533
44720W        W87632  29.359  30.060  25.589 -0.1297  0.2925 -0.1920
44721W        W87633  28.606  30.127  24.542 -0.0638  0.0325 -0.0893
44722W        W87634  29.690  31.832  24.334 -0.1515 -0.0824 -0.2155
44723W        W87635  30.032  32.259  24.651  0.2860  0.1335  0.0481
44724W        W87636  32.017  29.737  27.729  0.0685 -0.0269  0.4159
44725W        W87637  29.964  30.994  26.121 -0.0167  0.1563  0.2485
44726W        W87638  29.992  30.206  24.457  0.1603 -0.0284 -0.0484
44727W        W87639  29.370  30.618  24.174 -0.1197 -0.0028  0.1484
44728W        W87640  32.715  33.122  25.340 -0.0094  0.1087 -0.2163
44729W        W87641  29.478  30.951  26.052  0.1379  0.1966 -0.1782
44730W        W87642  29.201  29.625  25.192  0.0559 -0.2724  0.1058
44731W        W87643  31.108  31.692  24.892  0.0787  0.2166  0.5601
44732W        W87644  32.209  31.648  23.704 -0.2816 -0.2991 -0.0296
44733W        W87645  28.872  29.163  23.885 -0.0506 -0.0136 -0.2645
44734W        W87646  34.582  32.601  26.792 -0.1427 -0.1388  0.3206
44735W        W87647  28.603  31.905  23.660  0.1820  0.1041 -0.3212
44736W        W87648  30.557  30.582  26.938 -0.1447 -0.0195 -0.4830
44737W        W87649  31.055  29.885  27.049 -0.2560  0.2476  0.0335
44738W        W87650  29.015  30.303  24.382  0.0086  0.2443 -0.3184
44739W        W87651  31.195  30.008  26.174  0.0098 -0.2194  0.5508
44740W        W87652  30.635  31.746  25.041 -0.2077 -0.0641  0.0733
44741W        W87653  31.815  33.426  24.622 -0.2429  0.1691  0.0095
44742W        W87654  31.820  31.935  24.597 -0.1284 -0.2011  0.0898
44743W        W87655  31.549  32.508  26.947 -0.1325 -0.2449  0.2068
44744W        W87656  28.938  30.004  27.480 -0.0948 -0.0400 -0.2464
44745W        W87657  31.754  32.109  24.098 -0.3500  0.2900 -0.1039
44746W        W87658  30.546  31.374  25.411 -0.4120  0.0480 -0.2220
44747W        W87659  32.055  32.731  25.698 -0.1218 -0.2015  0.0807
44748W        W87660  32.910  29.414  26.345  0.1237 -0.0734 -0.0649
44749W        W87661  30.560  30.988  24.434  0.0397 -0.0925  0.1030
44750W        W87662  29.392  30.048  27.304 -0.3283  0.0612  0.1487
44751W        W87663  31.118  31.865  25.754 -0.0628  0.0022 -0.0231
44752W        W87664  30.923  33.188  24.835 -0.0521  0.3130  0.0665
44753W        W87665  30.047  29.933  25.488 -0.1698 -0.0511 -0.1560
44754W        W87666  32.275  30.739  25.561  0.0159  0.3089 -0.2100
44755W        W87667  32.466  32.505  23.891  0.0892  0.0303  0.0425
44756W        W87668  28.253  31.474  25.931  0.0590  0.0565  0.1115
44757W        W87669  30.427  29.178  24.526 -0.1111  0.2269  0.2720
44758W        W87670  31.274  31.324  26.463  0.0403  0.0295  0.1113
44759W        W87671  30.586  32.352  25.483  0.0845 -0.0801  0.5616
44760W        W87672  31.597  31.738  26.474  0.2000  0.1818 -0.0401
44761W        W87673  29.473  31.374  23.800 -0.1134  0.3724 -0.2472
44762W        W87674  31.642  30.838  23.708  0.1132  0.0791 -0.2811
44763W        W87675  32.120  32.617  27.442 -0.3695  0.1044  0.2362
44764W        W87676  32.891  33.317  27.904  0.1897  0.2399  0.0999
44765W        W87677  31.086  34.380  27.295  0.1026  0.0639  0.0826
44766W        W87678  32.135  30.267  25.900  0.2375 -0.1399 -0.0810
44767W        W87679  29.426  29.024  27.334  0.0849  0.3038 -0.0352
44768W        W87680  29.938  32.157  23.801  0.0205  0.0088 -0.4175
44769W        W87681  30.399  31.111  25.817  0.2003  0.0682  0.1896
44770W        W87682  30.768  29.702  25.961  0.1847  0.1148  0.1856
44771W        W87683  30.485  30.108  25.299 -0.0226  0.0795  0.1001
44772W        W87684  31.561  28.907  25.302  0.0406 -0.1471  0.2712
44773W        W87685  31.254  33.009  26.687  0.2175 -0.0234  0.2171
44774W        W87686  31.324  30.555  26.285 -0.1065  0.0261 -0.1853
44775W        W87687  30.209  32.005  30.650 -0.2153 -0.1476 -0.0852
44776W        W87688  29.055  30.189  28.868 -0.0600  0.0203 -0.1521
44777W        W87689  31.383  29.603  26.579 -0.0741  0.0319  0.0832
44778W        W87690  32.150  32.188  28.272 -0.4953 -0.0907  0.2714
44779W        W87691  28.089  29.452  29.493  0.1968 -0.5900 -0.1820
44780W        W87692  32.221  34.421  28.257  0.1185  0.1517  0.2897
44781W        W87693  30.429  28.769  30.916  0.1939  0.0089  0.1720
44782W        W87694  31.757  33.082  29.212  0.1080  0.2802  0.0056
44783W        W87695  33.008  33.909  29.548  0.0353 -0.0957 -0.2958
44784W        W87696  30.657  31.752  27.520 -0.1946 -0.0726  0.5724
44785W        W87697  30.582  30.507  30.559 -0.1868  0.0816 -0.2475
44786W        W87698  31.006  33.628  29.995 -0.2392 -0.2695 -0.1179
44787W        W87699  29.534  29.701  27.758 -0.2332 -0.0653 -0.0894
44788W        W87700  28.721  29.054  28.564 -0.1720  0.2249  0.0101
44789W        W87701  32.216  30.253  29.089  0.1115  0.2097  0.2705
44790W        W87702  28.163  31.463  28.637 -0.2438  0.0526 -0.1122
44791W        W87703  30.076  29.829  30.178  0.1264  0.0231  0.0156
44792W        W87704  29.630  32.291  29.194 -0.1250 -0.1968  0.2066
44793W        W87705  31.053  32.330  29.004  0.2258  0.2521 -0.4312
44794W        W87706  31.272  30.820  28.235  0.3603  0.0100  0.2542
44795W        W87707  30.677  29.244  30.825  0.1198  0.0278  0.1533
44796W        W87708  30.245  32.321  27.834  0.1845  0.0323  0.1730
44797W        W87709  30.414  30.749  26.411 -0.0013  0.0224  0.4897
44798W        W87710  29.101  32.286  29.437  0.4486  0.0701 -0.1660
44799W        W87711  29.695  31.030  29.717 -0.0132  0.0796  0.1087
44800W        W87712  31.119  30.549  29.681  0.0690  0.0316 -0.0394
44801W        W87713  31.168  29.923  28.130 -0.0984  0.1176  0.0240
44802W        W87714  31.164  33.089  30.080 -0.1127  0.1677 -0.3660
44803W        W87715  30.663  33.291  29.939 -0.1130 -0.1486  0.0947
44804W        W87716  31.732  29.731  31.425  0.2334 -0.0289  0.1704
44805W        W87717  29.569  31.192  29.212 -0.2310  0.0357  0.0880
44806W        W87718  29.694  32.653  29.605  0.0068 -0.3621  0.0674
44807W        W87719  31.133  31.846  28.236  0.2572  0.1617  0.0667
44808W        W87720  32.795  32.079  29.657  0.1489 -0.0196 -0.0817
44809W        W87721  32.295  34.258  29.201 -0.0029  0.1267  0.0358
44810W        W87722  31.586  33.526  31.811 -0.2951  0.2782 -0.0146
44811W        W87723  29.034  32.161  28.011 -0.2865  0.0236 -0.1330
44812W        W87724  30.981  32.636  30.418 -0.1210  0.0089 -0.0670
44813W        W87725  30.643  32.749  30.721  0.0709 -0.2059  0.1170
44814W        W87726  30.953  30.834  30.779 -0.0860 -0.2011 -0.1655
44815W        W87727  31.424  30.361  28.490  0.0988 -0.0608 -0.0978
44816W        W87728  29.464  31.727  27.517  0.1328 -0.1359  0.1384
44817W        W87729  31.874  32.659  28.451  0.2163  0.3216 -0.0491
44818W        W87730  30.836  32.742  29.959 -0.0887  0.3155  0.2343
44819W        W87731  31.042  31.629  30.184  0.2737  0.1802  0.0632
44820W        W87732  33.814  29.849   0.461 -0.2364 -0.0697  0.1201
44821W        W87733  29.962  32.004  28.086 -0.0234 -0.2587  0.1012
44822W        W87734  32.555  31.644  28.300 -0.2260  0.0864  0.0612
44823W        W87735  30.057  29.473  26.929  0.1544 -0.0394  0.0581
44824W        W87736  31.212  31.076  27.810 -0.3478  0.0414  0.0997
44825W        W87737  30.480  30.051  29.794  0.2121 -0.1982  0.1177
44826W        W87738  29.016  32.378  29.952  0.1492 -0.1687 -0.0692
44827W        W87739  30.264  30.070  29.330 -0.1127 -0.0375  0.3780
44828W        W87740  31.935  31.431  30.011  0.0229  0.2075  0.1502
44829W        W87741  30.706  31.222  29.459  0.2256  0.0973 -0.0503
44830W        W87742  31.613  31.371  28.709  0.2681  0.0976 -0.0380
44831W        W87743  30.747  31.752  29.792 -0.0299 -0.2075  0.0445
44832W        W87744  29.389  31.425  29.641  0.2765  0.0055 -0.1877
44833W        W87745  33.419  32.270  28.110 -0.2237 -0.0559 -0.1327
44834W        W87746  33.678  32.106  29.084 -0.3449  0.0100 -0.0754
44835W        W87747  32.446  32.055  28.642 -0.0999  0.2411 -0.1356
44836W        W87748  30.054  30.379  28.917 -0.1279 -0.2884 -0.1258
44837W        W87749  28.912  32.676  30.419 -0.0158 -0.1629 -0.0058
44838W        W87750  29.349  31.556  31.724 -0.0522  0.0730  0.1370
44839W        W87751  29.950  30.682  27.533 -0.0350  0.0895  0.1874
44840W        W87752  33.525  32.030   0.226 -0.2001 -0.2947  0.1172
44841W        W87753  29.936  31.781  31.861  0.0187 -0.3092 -0.0440
44842W        W87754  31.659  28.801  29.400  0.2058  0.2597 -0.1343
44843W        W87755  30.347  32.110  28.873  0.0027 -0.1590 -0.3165
44844W        W87756  31.279  31.653  30.615 -0.0666 -0.0765 -0.0966
44845W        W87757  32.855  31.289  27.284  0.2119 -0.0341 -0.4163
44846W        W87758  30.791  30.380  30.121  0.0141 -0.0846  0.2183
44847W        W87759  32.102  31.094  29.573 -0.1004  0.0988 -0.0895
44848W        W87760  31.461  30.883  26.585  0.1495 -0.3747 -0.1638
44849W        W87761  31.162  32.379  28.149  0.2516  0.1365 -0.2124
44850W        W87762  32.658  33.414  29.549 -0.2179  0.0588 -0.0038
44851W        W87763  31.642  30.764  28.620 -0.0430  0.1879 -0.0768
44852W        W87764  28.841  31.804  28.836  0.1345 -0.1544  0.0979
44853W        W87765  30.353  31.561  30.924  0.1904  0.4212  0.0929
44854W        W87766  30.450  33.300  30.863 -0.0557  0.1252 -0.0082
44855W        W87767  30.274  31.638  25.716  0.2030 -0.3561  0.1447
44856W        W87768  27.863  31.331  30.606  0.0723  0.4059  0.1170
44857W        W87769  30.001  32.581  28.211  0.1343 -0.1061 -0.3912
44858W        W87770  28.783  29.299  29.924 -0.2795  0.0009  0.3461
44859W        W87771  30.414  32.288  29.729  0.1552 -0.0138 -0.0488
44860W        W87772  31.826  29.594  28.738 -0.3148  0.2720 -0.1384
44861W        W87773  29.697  30.482  29.710 -0.0710 -0.0834  0.3824
44862W        W87774  31.909  30.047  30.034 -0.1384  0.1740  0.2365
44863W        W87775  28.659  32.552  28.485  0.0082  0.0616 -0.3291
44864W        W87776  31.898  33.515  28.537  0.3654  0.2371  0.1240
44865W        W87777  32.853  29.828  27.795  0.1097  0.2143 -0.1765
44866W        W87778  32.817  32.953  28.290  0.1623  0.0846  0.1347
44867W        W87779  28.825  30.947  30.174 -0.0263 -0.0685 -0.0365
44868W        W87780  29.763  30.157  29.249 -0.1036 -0.4225 -0.2014
44869W        W87781  29.808  30.781  29.216 -0.2624  0.0310 -0.0569
44870W        W87782  29.572  30.255  30.817  0.1579 -0.1748  0.0461
44871W        W87783  32.545  30.800  30.855  0.1752 -0.1114 -0.2648
44872W        W87784  28.578  29.977  29.314 -0.1811  0.1890  0.0516
44873W        W87785  31.722  30.178  27.777  0.1427 -0.0063 -0.0308
44874W        W87786  30.614  30.579  29.605  0.1086  0.0399 -0.0750
44875W        W87787  29.733  30.396  28.504 -0.1641  0.2347 -0.1132
44876W        W87788  32.583  29.516   1.210  0.1058  0.1256  0.1983
44877W        W87789  31.138  32.584  27.500  0.1627  0.0451 -0.1191
44878W        W87790  34.119  31.448  30.986  0.0182 -0.2585 -0.1116
44879W        W87791  31.532  33.655  28.235 -0.0292  0.1505 -0.0310
44880W        W87792  29.526  30.739  30.580  0.0062 -0.1052 -0.1914
44881W        W87793  29.623  29.335  28.207  0.0115  0.1525 -0.2008
44882W        W87794  31.357  32.709  28.746  0.0532  0.1061 -0.0226
44883W        W87795  32.053  31.350  30.606  0.1384  0.0389 -0.1863
44884W        W87796  30.380  30.734  28.716  0.1511 -0.2736 -0.0759
44885W        W87797  32.859  33.174  29.979 -0.1097 -0.1647  0.4494
44886W        W87798  30.713  31.158  27.592 -0.0637  0.0528  0.0117
44887W        W87799  28.847  31.470  30.074  0.1788 -0.0551 -0.0437
44888W        W87800  30.971  30.037  29.710 -0.1916 -0.0023 -0.3749
44889W        W87801  31.672  31.610  30.913  0.0683  0.1171  0.1916
44890W        W87802  32.090  31.370  28.585  0.0104  0.1102  0.1841
44891W        W87803  30.129  29.962  26.723 -0.2828  0.4331 -0.1982
44892W        W87804  31.821  32.610  29.271  0.2774  0.2378 -0.0522
44893W        W87805  30.708  33.576  27.497 -0.0972 -0.0396 -0.3544
44894W        W87806  29.915  31.648  28.533 -0.0637  0.1885  0.2136
44895W        W87807  31.257  32.705  29.280  0.4040 -0.1164  0.2751
44896W        W87808  32.291  29.215  29.827  0.0098 -0.1425  0.1623
44897W        W87809  28.365  32.170  30.907  0.0671  0.0328 -0.0921
44898W        W87810  31.320  29.805  31.870 -0.0638  0.1874  0.0381
44899W        W87811  28.132  31.186  28.107  0.2415 -0.2248  0.0661
44900W        W87812  29.973  32.001  29.576 -0.2032 -0.3607  0.0642
44901W        W87813  31.192  29.896  29.221  0.1419 -0.0734  0.1455
44902W        W87814  33.436  30.048  27.083  0.0964  0.0632  0.0220
44903W        W87815  30.794  31.833  31.276  0.2377  0.3842 -0.0055
44904W        W87816  32.781  31.642  28.727 -0.2733  0.3040 -0.1220
44905W        W87817  31.743  31.055  28.164  0.0670  0.1374  0.2756
44906W        W87818  31.941  30.558  27.299  0.0168 -0.1953  0.1381
44907W        W87819  27.100  30.817   0.036  0.3955  0.0220  0.1355
44908W        W87820  31.535  32.246  28.932  0.1838  0.0070  0.0745
44909W        W87821  30.874  32.205  30.109 -0.1100 -0.0451 -0.0206
44910W        W87822  31.250  31.924  27.747  0.2946 -0.0775 -0.0583
44911W        W87823  32.966  32.371  28.707  0.1204  0.0047 -0.2658
44912W        W87824  29.400  31.611  31.238  0.0951  0.0250 -0.1245
44913W        W87825  31.234  32.500  30.832  0.2166  0.1577 -0.1716
44914W        W87826  32.446  31.263  29.864 -0.0525 -0.0299 -0.1556
44915W        W87827  30.041  30.520  30.492 -0.0738 -0.0390 -0.1260
44916W        W87828  30.773  30.184  27.875 -0.1195 -0.1319  0.1231
44917W        W87829  31.650  29.909  28.296  0.1146  0.1154 -0.4489
44918W        W87830  29.401  31.779  28.424 -0.4109  0.2091 -0.0624
44919W        W87831  32.140  30.285  29.626 -0.0445 -0.0862  0.4690
44920W        W87832  30.965  30.474  28.342 -0.0570  0.0871 -0.0634
44921W        W87833  31.049  29.821  31.432  0.2727 -0.0529  0.1551
44922W        W87834  32.723  30.411   0.501  0.0900  0.2490 -0.1360
44923W        W87835  31.762  33.037  28.732  0.2636  0.0290 -0.0278
44924W        W87836  31.157  31.151  30.386  0.1185 -0.0380  0.0144
44925W        W87837  29.600  29.272  26.898 -0.0882  0.1488  0.2354
44926W        W87838  30.721  29.275  30.143 -0.0645  0.0865 -0.2476
44927W        W87839  28.412  31.745  30.501  0.0499 -0.0954 -0.0963
44928W        W87840  29.966  33.142  30.543  0.0327  0.1090 -0.2157
44929W        W87841  32.150  31.657  29.528  0.2373  0.0536  0.0593
44930W        W87842  30.912  31.477  28.658 -0.0702  0.0594 -0.3314
44931W        W87843  29.946  30.141  31.130 -0.1138  0.1222  0.2506
44932W        W87844  31.055  30.437  26.871 -0.0817 -0.1524  0.0053
44933W        W87845  30.744  32.585  27.790  0.2664 -0.0904  0.3730
44934W        W87846  31.350  30.302  27.212 -0.0169 -0.2741 -0.1428
44935W        W87847  29.830  29.412  30.366 -0.0786 -0.0779  0.1137
44936W        W87848  31.318  32.582  29.943  0.0574 -0.1893  0.2669
44937W        W87849  29.924  32.870  27.282  0.2664  0.2358 -0.0117
44938W        W87850  31.140  30.520  30.514  0.3011  0.0391  0.0576
44939W        W87851  28.986  32.642  27.397  0.1644  0.1197  0.2514
44940W        W87852  31.597  29.613  29.326 -0.0470 -0.0162  0.0742
44941W        W87853  30.409  32.173  28.346  0.1593 -0.1520  0.3736
44942W        W87854  29.784  30.140  27.669  0.0171  0.1813 -0.3541
44943W        W87855  29.026  31.197  27.011 -0.2090 -0.1806  0.0386
44944W        W87856  31.671  30.426  28.948  0.0153 -0.0578 -0.0168
44945W        W87857  32.760  32.828  28.809  0.1586 -0.0730  0.0816
44946W        W87858  28.324  30.810  29.997 -0.1944 -0.0041  0.0507
44947W        W87859  30.529  29.672  28.043  0.1463  0.0396 -0.1967
44948W        W87860  29.402  32.615  30.144  0.0158 -0.0705  0.2751
44949W        W87861  31.308  30.107  30.147  0.1532 -0.1566  0.0244
44950W        W87862  30.763  30.247  27.299 -0.1016 -0.2265  0.2958
44951W        W87863  32.252  31.719  30.913 -0.0103  0.0498  0.3924
44952W        W87864  29.577  31.010   0.179  0.2564  0.0995  0.1526
44953W        W87865  29.426  30.487  27.590  0.1157  0.1213 -0.1305
44954W        W87866  30.929  31.056  29.850  0.0723  0.3904 -0.2993
44955W        W87867  29.867  32.220  28.650  0.0659 -0.1147 -0.2441
44956W        W87868  30.194  33.957  28.785  0.1979 -0.3422  0.0945
44957W        W87869  31.390  34.323  29.689 -0.1820  0.0138 -0.0479
44958W        W87870  29.871  30.991  28.160 -0.0921  0.1353  0.0141
44959W        W87871  28.523  32.283  28.090 -0.2032  0.0386  0.3625
44960W        W87872  29.198  30.183  30.486 -0.1705  0.0802  0.1009
44961W        W87873  30.821  30.840  30.255 -0.2776  0.0291 -0.2910
44962W        W87874  28.534  30.643  30.477  0.0670  0.0668 -0.2386
44963W        W87875  29.911  31.873  29.035  0.0941 -0.0447  0.2279
44964W        W87876  29.501  30.455  28.902  0.1792  0.1423 -0.2266
44965W        W87877  31.700  31.848  29.673 -0.1108  0.2814 -0.0807
44966W        W87878  30.884  30.315  31.043  0.2477 -0.3267 -0.0636
44967W        W87879  29.612  32.084   0.192 -0.3598 -0.1206 -0.0428
44968W        W87880  30.424  30.029  28.901 -0.1458 -0.1942  0.0882
44969W        W87881  33.671  34.525  27.556 -0.0681 -0.3473  0.0202
44970W        W87882  31.129  32.008  30.894 -0.4692 -0.1445 -0.0235
44971W        W87883  30.584  31.167  28.968 -0.0336 -0.2673  0.3637
44972W        W87884  28.585  31.268  28.393 -0.4169  0.0702 -0.1096
44973W        W87885  30.222  31.167  28.488  0.1253  0.2008 -0.0585
44974W        W87886  29.691  31.265  30.226 -0.2769 -0.0145  0.1839
44975W        W87887  29.476  32.193  29.859  0.0027 -0.1697  0.0659
44976W        W87888  29.588  31.905  27.087  0.0989 -0.2230 -0.3587
44977W        W87889  28.535  32.143  29.594  0.2241 -0.0908  0.0860
44978W        W87890  32.991  29.312  29.031 -0.0178  0.0278  0.0053
44979W        W87891  30.403  31.617  28.666 -0.0252  0.0259 -0.0744
44980W        W87892  31.802  30.528  28.185 -0.1849 -0.0845 -0.2829
44981W        W87893  31.894  30.329  31.610  0.0404  0.3003  0.0908
44982W        W87894  31.903  32.053  27.776 -0.0223 -0.0358 -0.0484
44983W        W87895  31.983  28.907   0.841  0.1733 -0.0125  0.1053
44984W        W87896  31.657  31.384  29.522  0.2586  0.3974  0.1992
44985W        W87897  32.181  31.690  29.024 -0.1025  0.1580  0.3862
44986W        W87898  29.159  31.142  30.472 -0.2009 -0.1473 -0.1204
44987W        W87899  31.959  33.148  29.681 -0.0139  0.0908  0.1283
44988W        W87900  28.357  30.732  30.921  0.0303 -0.1478 -0.3708
44989W        W87901  32.085  30.726  28.852 -0.0490 -0.0413  0.1427
44990W        W87902  30.065  30.301  30.027  0.1785  0.2310 -0.2329
44991W        W87903  30.877  31.504  30.866  0.2258  0.1579  0.2615
44992W        W87904  31.924  31.229  29.067  0.4201  0.0455  0.2039
44993W        W87905  30.744  30.980  28.456  0.0108  0.1392 -0.0429
44994W        W87906  31.658  30.145  29.368  0.1542 -0.0340  0.1464
44995W        W87907  29.721  31.762  29.944  0.2200  0.0854  0.2679
44996W        W87908  32.746  31.216  28.995 -0.2446  0.1319 -0.0892
44997W        W87909  31.583  31.795  27.408  0.1738 -0.0902 -0.1211
44998W        W87910  29.837  32.592  27.702 -0.1822 -0.0454  0.0686
44999W        W87911  30.119  29.842  31.487 -0.0885  0.1996  0.1465
45000W        W87912  32.056  32.262  28.915 -0.2623  0.1534  0.1656
45001W        W87913  31.238  30.476  29.165 -0.0550 -0.1332 -0.1445
45002W        W87914  31.589  29.259  31.073 -0.1312 -0.0228  0.2441
45003W        W87915  31.606  29.792  30.356  0.1145 -0.0190 -0.3747
45004W        W87916  30.336  31.683  31.616  0.0861 -0.3959 -0.2844
45005W        W87917  29.287  30.992  29.985 -0.0431  0.2076 -0.0453
45006W        W87918  33.056  31.366  29.784  0.0991 -0.0109  0.1143
45007W        W87919  32.151  30.430  27.758  0.0753 -0.5890  0.1253
45008W        W87920  31.762  30.356  30.857  0.0171  0.0797  0.0345
45009W        W87921  31.939  30.133  28.657 -0.2601  0.0024 -0.1127
45010W        W87922  31.585  31.211  27.459 -0.3591 -0.1557 -0.0500
45011W        W87923  30.337  31.666  29.295 -0.1300 -0.0471  0.0196
45012W        W87924  32.363  30.989  30.325 -0.0003 -0.1379 -0.1222
45013W        W87925  30.131  30.036  28.412  0.2898  0.1147  0.0374
45014W        W87926  32.353  30.064   0.551 -0.2465 -0.1510 -0.0405
45015W        W87927  31.842  31.053  26.306 -0.1587  0.1872 -0.0273
45016W        W87928  31.588  31.635  28.284  0.1052  0.2235  0.2182
45017W        W87929  32.064  31.688  28.204  0.2518  0.3135 -0.0663
45018W        W87930  28.245  30.224  30.158  0.1156  0.0579 -0.1258
45019W        W87931  29.004  33.136  30.691 -0.0898  0.1521  0.1357
45020W        W87932  29.851  29.401  27.419 -0.0812  0.4444  0.2000
45021W        W87933  30.842  30.792  27.969  0.2691 -0.1386  0.0392
45022W        W87934  32.724  32.682  29.757  0.2730  0.0173 -0.0151
45023W        W87935  34.441  32.730  30.599  0.1297  0.0863 -0.2645
45024W        W87936  30.951  29.512  27.836 -0.0592 -0.1560  0.1349
45025W        W87937  30.659  29.467  31.392 -0.2213  0.4154 -0.0739
45026W        W87938  28.797  31.692  28.188 -0.0256  0.0228  0.0092
45027W        W87939  30.380  30.698  30.115  0.0819  0.0937  0.0404
45028W        W87940  29.098  31.860  29.800  0.0210 -0.0269 -0.1864
45029W        W87941  27.639  32.440  29.756 -0.0132  0.0341 -0.0184
45030W        W87942  31.549  32.904  29.685  0.3361 -0.0693 -0.0940
45031W        W87943  30.120  28.455  30.574  0.2729  0.1966  0.5267
45032W        W87944  31.039  30.160  28.782 -0.1303 -0.2383 -0.2458
45033W        W87945  29.864  31.529  29.477 -0.0107 -0.0850 -0.2384
45034W        W87946  31.752  30.509  29.809  0.2074 -0.0194 -0.0591
45035W        W87947  31.225  31.956  29.872 -0.1557 -0.1518 -0.0045
45036W        W87948  29.300  31.929  28.927  0.0035  0.1643  0.0412
45037W        W87949  32.618  32.125  31.142 -0.1580  0.1135 -0.0181
45038W        W87950  31.527  30.901  29.084 -0.1053 -0.0453 -0.1156
45039W        W87951  30.794  31.627  29.135 -0.1581  0.2412 -0.0390
45040W        W87952  30.665  31.746  30.497 -0.0867 -0.2559 -0.0027
45041W        W87953  30.342  32.095  31.181 -0.1649  0.0230  0.2314
45042W        W87954  32.197  32.808  29.031 -0.1038  0.0187 -0.3757
45043W        W87955  29.579  29.622  29.881  0.0356  0.1140  0.4311
45044W        W87956  30.583  30.597  27.575  0.0512 -0.1782 -0.2036
45045W        W87957  29.854  32.765  30.151  0.0165  0.0768 -0.1389
45046W        W87958  28.800  30.391  31.034  0.4021 -0.0984  0.1654
45047W        W87959  30.720  32.527  28.598  0.1475  0.0171  0.3980
45048W        W87960  31.478  32.740  28.138 -0.1129 -0.1465 -0.2477
45049W        W87961  29.820  31.015  28.783  0.0129 -0.1771  0.2345
45050W        W87962  32.705  32.399  29.151  0.0186  0.1731 -0.2276
45051W        W87963  30.216  31.145  29.326 -0.0082  0.1787 -0.0588
45052W        W87964  31.406  33.177  28.385  0.0831  0.2698 -0.3322
45053W        W87965  29.226  32.625  26.949  0.0969  0.1164  0.0489
45054W        W87966  31.344  31.803  28.706  0.3115  0.2769  0.0602
45055W        W87967  31.481  31.502  27.854  0.2297 -0.0881 -0.0399
45056W        W87968  33.142  31.710  30.337 -0.2986 -0.2087 -0.1302
45057W        W87969  31.129  30.538  27.571 -0.0065 -0.2262 -0.3557
45058W        W87970  32.636  30.582  30.407 -0.0868  0.2231  0.0506
45059W        W87971  32.146  30.899  28.363  0.0035  0.1220 -0.0663
45060W        W87972  31.782  32.579  31.523 -0.1138  0.0578 -0.1167
45061W        W87973  31.449  31.269  29.945 -0.2415  0.2327  0.1582
45062W        W87974  31.858  31.866  28.669  0.1374  0.3090 -0.1094
45063W        W87975  28.374  30.327  31.320  0.1366 -0.6170 -0.0525
45064W        W87976  32.395  28.902  31.602 -0.1374  0.0481 -0.0725
45065W        W87977  29.680  32.450  30.505 -0.2836  0.4887  0.2189
45066W        W87978  32.359  33.058  28.630 -0.2025  0.1016  0.4128
45067W        W87979  29.624  31.614  28.027  0.0263  0.0219 -0.0964
45068W        W87980  32.001  32.660  30.003  0.3340 -0.2730 -0.1298
45069W        W87981  32.794  30.069  30.356  0.0101  0.0868  0.1289
45070W        W87982  31.033  32.572  26.978 -0.1651 -0.0005  0.1155
45071W        W87983  31.173  31.323  28.293  0.1789  0.0003 -0.0733
45072W        W87984  30.921  32.897  28.985  0.0552  0.1227  0.1633
45073W        W87985  30.433  32.064  30.220  0.0205  0.1623  0.3429
45074W        W87986  31.626  32.180  30.757  0.3148  0.1852  0.1257
45075W        W87987  29.282  30.892  29.462  0.2689 -0.0300  0.0252
45076W        W87988  33.023  29.933  29.837 -0.3100 -0.2102 -0.1864
45077W        W87989  29.307  30.991  30.971 -0.1146 -0.2196 -0.2369
45078W        W87990  30.398  29.544  31.765  0.0158 -0.1461 -0.3208
45079W        W87991  29.774  30.761  30.137 -0.2311 -0.1373  0.0342
45080W        W87992  33.175  29.536  28.642  0.2233  0.0051 -0.3426
45081W        W87993  31.604  31.311  31.307 -0.2903  0.0009 -0.2433
45082W        W87994  29.271  32.150  30.324 -0.0279  0.0146 -0.3647
45083W        W87995  31.118  31.483  27.368 -0.1259 -0.0643 -0.4209
45084W        W87996  33.983  30.967  30.128 -0.2104  0.1042  0.3487
45085W        W87997  32.063  30.926  27.761 -0.4189 -0.3183  0.3862
45086W        W87998  32.011  32.424  30.522 -0.0206 -0.1905 -0.0376
45087W        W87999  29.388  30.085  29.928  0.0120  0.0001  0.0140
45088W        W88000  31.624  30.770  27.673  0.1202 -0.0023  0.0145
45089W        W88001  29.351  29.768  28.478  0.0614 -0.0223  0.0846
45090W        W88002  30.234  31.637  29.927 -0.3773 -0.0777  0.0434
45091W        W88003  34.239  30.872  30.917  0.2920 -0.1026  0.1305
45092W        W88004  29.328  30.517  30.157  0.2332  0.2740 -0.2087
45093W        W88005  33.054  31.924  28.394 -0.0988 -0.1196 -0.0653
45094W        W88006  31.523  29.959  28.849  0.0685  0.0177  0.1050
45095W        W88007  30.652  33.120  27.940 -0.2696  0.5125 -0.2323
45096W        W88008  32.565  31.430  29.378  0.2416 -0.3871  0.0378
45097W        W88009  31.116  30.921  29.338  0.2358  0.1333  0.0379
45098W        W88010  27.804  30.037  30.371  0.1973 -0.1560 -0.0320
45099W        W88011  33.183  31.817  29.820  0.1322 -0.0451  0.3118
45100W        W88012  32.410  30.687  29.548 -0.4008 -0.0067  0.0337
45101W        W88013  29.023  29.786  29.248  0.0883 -0.3263  0.1336
45102W        W88014  28.764  30.947  29.269 -0.0729  0.0546  0.0480
45103W        W88015  29.341  32.442  28.734 -0.1528  0.1275 -0.3818
45104W        W88016  31.902  30.641  29.350  0.0222  0.1065 -0.1889
45105W        W88017  32.040  30.848  31.612  0.2110  0.0841  0.2288
45106W        W88018  31.960  31.604  27.113  0.0779 -0.1052 -0.0373
45107W        W88019  31.399  29.213  31.669 -0.0949  0.0543 -0.0315
45108W        W88020  31.570  31.759  30.182  0.1980  0.0052  0.2855
45109W        W88021  30.675  32.238  30.605  0.0872 -0.0241 -0.0830
45110W        W88022  30.298  30.286  26.455  0.0525 -0.1173  0.1737
45111W        W88023  31.659  32.240  30.091  0.3000  0.1775  0.2114
45112W        W88024  31.228  31.935  29.249 -0.2240 -0.2210 -0.3469
45113W        W88025  31.472  32.303  29.564  0.0758 -0.2402  0.0039
45114W        W88026  32.759  31.908  29.130 -0.2064 -0.1101  0.1804
45115W        W88027  31.192  31.025  28.730 -0.1580 -0.2758 -0.0009
45116W        W88028  33.504  31.736  29.366  0.1292  0.0629 -0.1532
45117W        W88029  29.201  28.959  28.490 -0.0538 -0.0001  0.0345
45118W        W88030  32.151  29.768  28.387  0.1101  0.0992  0.0458
45119W        W88031  31.363  29.456  28.250  0.2720  0.1687 -0.1508
45120W        W88032  30.137  31.136  30.414  0.2246  0.0275  0.3474
45121W        W88033  29.856  29.618  28.542 -0.0792 -0.0013 -0.1940
45122W        W88034  30.832  31.541  26.615 -0.3113  0.4007 -0.2276
45123W        W88035  28.563  31.916  30.044 -0.1627  0.1702  0.0362
45124W        W88036  30.576  31.160  30.666  0.4094  0.1786  0.0436
45125W        W88037  29.331  31.597  30.189  0.2477  0.0480  0.0305
45126W        W88038  27.634  31.991  31.114  0.3038 -0.0273  0.1686
45127W        W88039  29.303  30.383  29.399 -0.0703  0.0025 -0.0531
45128W        W88040  33.144  32.380  29.856 -0.0968  0.2333  0.0610
45129W        W88041  30.033  29.771  28.975 -0.0170  0.1880  0.0530
45130W        W88042  27.388  29.828  29.160  0.0525 -0.1952  0.1461
45131W        W88043  32.248  32.689  29.511  0.0628 -0.0744 -0.0043
45132W        W88044  31.965  32.290  29.682 -0.3009 -0.0317  0.1318
45133W        W88045  29.914  29.962  29.706 -0.3608  0.0383 -0.0319
45134W        W88046  32.814  33.069  30.474  0.0170 -0.1841  0.1607
45135W        W88047  29.553  31.549  28.850  0.0465 -0.0736 -0.0224
45136W        W88048  30.440  31.250  31.302 -0.1576 -0.2110 -0.0610
45137W        W88049  30.890  29.821  30.164  0.0632  0.2267 -0.3838
45138W        W88050  29.074  29.658  29.773 -0.3713 -0.0291 -0.0561
45139W        W88051  31.577  30.909  29.632 -0.1003 -0.1589  0.1581
45140W        W88052  32.298  32.148  29.350  0.1039 -0.0460 -0.2711
45141W        W88053  32.401  32.544  28.612 -0.0749 -0.0033  0.0021
45142W        W88054  31.200  31.544  29.565 -0.3911 -0.0527 -0.1142
45143W        W88055  30.324  33.443  30.343  0.0010  0.1766 -0.1066
45144W        W88056  29.858  28.308   0.155  0.0948  0.0891  0.2034
45145W        W88057  31.937  31.535  27.728  0.2383  0.1470 -0.0949
45146W        W88058  32.073  31.888  29.988  0.3716 -0.2565  0.2197
45147W        W88059  33.321  32.725  28.422 -0.3129 -0.0149  0.1379
45148W        W88060  33.345  29.585  30.049 -0.2508  0.2124  0.4214
45149W        W88061  30.792  32.077  27.910 -0.1284  0.0958  0.0499
45150W        W88062  29.836  29.379  30.905  0.0723  0.2691  0.2617
45151W        W88063  29.458  31.860  29.417  0.3911 -0.1329  0.0159
45152W        W88064  31.964  31.835  30.522  0.2252  0.3393 -0.4156
45153W        W88065  29.561  29.923  28.861  0.0336  0.0356 -0.0886
45154W        W88066  31.965  29.772  29.617 -0.1581 -0.2493 -0.0777
45155W        W88067  32.386  33.238  30.402 -0.1114  0.1405 -0.0233
45156W        W88068  30.695  32.108  29.285 -0.0502  0.1993  0.1656
45157W        W88069  31.237  31.367  29.088 -0.0184 -0.1296 -0.1010
45158W        W88070  30.866  30.079  30.585 -0.4069 -0.0222  0.1231
45159W        W88071  30.230  31.128  29.854  0.1611  0.0351  0.0970
45160W        W88072  32.436  32.321  29.909  0.0682  0.0180  0.0174
45161W        W88073  30.617  31.389  27.166  0.1928 -0.0953 -0.1497
45162W        W88074  32.333  31.326  27.513  0.1722 -0.1762 -0.3473
45163W        W88075  33.215  33.974  31.474  0.0149  0.2335 -0.1644
45164W        W88076  32.603  33.193   0.017  0.2200  0.0877 -0.3020
45165W        W88077  32.503  32.643  30.243 -0.1442  0.0812  0.1033
45166W        W88078  33.591  31.658  30.873 -0.0638 -0.0790 -0.1524
45167W        W88079  30.237  29.169  30.622 -0.1156 -0.0514  0.0211
45168W        W88080  30.228  30.303  27.227 -0.0267  0.3617 -0.0625
45169W        W88081  30.348  30.581  29.218 -0.2122 -0.2058  0.0060
45170W        W88082  31.328  30.758  30.094 -0.0577  0.1801  0.3514
45171W        W88083  29.704  30.115  30.345  0.1483 -0.2475  0.0346
45172W        W88084  32.560  30.698  28.597  0.0219 -0.2160 -0.3779
45173W        W88085  29.563  33.045  31.315 -0.3410 -0.2382  0.0542
45174W        W88086  31.366  31.137  30.902 -0.0269 -0.0644  0.3375
45175W        W88087  32.019  31.463   0.232  0.0253  0.0885  0.1955
45176W        W88088  31.873  31.893  31.282  0.1089  0.1374 -0.1172
45177W        W88089  28.556  31.537  30.990  0.0046 -0.1471  0.2289
45178W        W88090  30.348  32.995  30.208 -0.0822 -0.2455  0.0644
45179W        W88091  31.081  32.076  31.647  0.3043  0.1366  0.0099
45180W        W88092  29.830  32.096  31.398 -0.3713 -0.0498  0.0186
45181W        W88093  31.207  30.305  31.741  0.0155  0.1669 -0.0935
45182W        W88094  30.049  31.578  30.466  0.0284  0.0666 -0.0747
45183W        W88095  30.973  30.086   0.176  0.3364 -0.1866 -0.2970
45184W        W88096  32.249  31.846   0.020 -0.1540 -0.0188  0.0119
45185W        W88097  31.412  32.225  31.254 -0.0912  0.1243 -0.1615
45186W        W88098  30.461  29.770   0.196 -0.0488  0.1614 -0.0722
45187W        W88099  32.103  29.956  31.112  0.4042  0.3360 -0.1501
45188W        W88100  29.954  32.289  31.877  0.2361  0.0967  0.1715
45189W        W88101  33.481  30.548   0.011 -0.1298 -0.0859 -0.2216
45190W        W88102  29.734  32.818  30.914  0.2503  0.1916  0.0491
45191W        W88103  29.459  32.903   0.504  0.0147  0.3657 -0.3827
45192W        W88104  32.478  32.341  31.928 -0.1499 -0.0361  0.2007
45193W        W88105  27.822  28.085  30.580 -0.0619  0.1125  0.3233
45194W        W88106  30.662  30.762  31.219  0.0176 -0.0474 -0.0640
45195W        W88107  29.299  30.163  31.287 -0.1381  0.0646 -0.1493
45196W        W88108  30.329  32.664  31.823 -0.0723 -0.2172 -0.2891
45197W        W88109  32.834  30.578   1.394 -0.0637 -0.1373 -0.0821
45198W        W88110  31.370  30.632  30.964  0.2123  0.0393  0.0392
45199W        W88111  30.327  29.599   0.693 -0.1055 -0.2578 -0.2014
45200W        W88112  29.547  29.452   1.282  0.2693 -0.2641  0.1210
45201W        W88113  30.542  30.347   0.105  0.1707 -0.0863  0.0474
45202W        W88114  29.192  33.458  31.491 -0.0404  0.2424 -0.3155
45203W        W88115  31.160  30.718  31.457 -0.0117 -0.0086  0.1680
45204W        W88116  29.831  31.892  30.935 -0.0487  0.1538 -0.1144
45205W        W88117  30.769  33.734  30.445 -0.3850  0.0066 -0.1827
45206W        W88118  29.533  31.429  30.781 -0.0395 -0.0345  0.1444
45207W        W88119  32.920  31.065  31.119 -0.2385 -0.2494 -0.4037
45208W        W88120  31.037  28.589  30.768 -0.0095  0.2721  0.0568
45209W        W88121  28.632  29.702   0.543  0.0195  0.2355  0.1932
45210W        W88122  29.022  31.078   0.658  0.3401 -0.0469  0.0157
45211W        W88123  32.718  31.801  30.764 -0.1657  0.1516  0.1179
45212W        W88124  31.339  32.781  31.267  0.2471 -0.4933  0.4164
45213W        W88125  32.544  31.919   0.950 -0.0150  0.2696  0.0115
45214W        W88126  31.328  32.605  31.739 -0.3011  0.1578  0.0106
45215W        W88127  33.160  31.984  30.795  0.2559  0.1163  0.0333
45216W        W88128  31.365  30.070  30.734 -0.1771 -0.0526 -0.4161
45217W        W88129  30.237  29.139  31.214  0.0259 -0.1375  0.2435
45218W        W88130  31.266  32.100  30.401  0.1887 -0.2503  0.1834
45219W        W88131  29.658  30.490  31.615 -0.2010 -0.0281 -0.0798
45220W        W88132  30.974  33.484  30.857  0.1236 -0.1891  0.0021
45221W        W88133  29.971  31.113  30.899  0.1571 -0.0398  0.0001
45222W        W88134  31.167  32.751   0.177 -0.2281 -0.1618  0.2139
45223W        W88135  32.091  32.188  30.960 -0.3003 -0.1294  0.0246
45224W        W88136  29.440  32.400  31.774 -0.0041 -0.0598 -0.2393
45225W        W88137  32.783  31.876  31.793  0.3416  0.0316 -0.2918
45226W        W88138  34.013  31.491   0.017 -0.1099 -0.0399 -0.1574
45227W        W88139  30.769  30.431  31.612  0.1283 -0.2659  0.0464
45228W        W88140  30.837  32.539  31.643 -0.0597  0.1490 -0.2006
45229W        W88141  31.377  31.049   0.759 -0.0897  0.3255 -0.0580
45230W        W88142  30.962  31.132  31.328  0.1000  0.5011 -0.0865
45231W        W88143  32.756  31.305  30.232 -0.0780 -0.0008  0.0977
45232W        W88144  31.021  33.041  31.614  0.2998  0.2899  0.1260
45233W        W88145  31.807  32.571  30.947  0.3053 -0.0299  0.4072
45234W        W88146  29.123  30.319  31.692 -0.1642 -0.1296  0.2485
45235W        W88147  27.282  29.536   0.172 -0.0975 -0.1103 -0.3113
45236W        W88148  29.331  31.880  30.794 -0.0874  0.2188 -0.1172
45237W        W88149  28.925  31.811  31.380  0.1807  0.2190 -0.2641
45238W        W88150  30.127  30.466   0.341  0.1779 -0.0501  0.2435
45239W        W88151  32.316  31.837  31.490 -0.0064  0.0201  0.0597
45240W        W88152  32.670  31.613  31.201  0.3017  0.1332  0.1936
45241W        W88153  32.079  31.033  30.983  0.2380  0.1507  0.1360
45242W        W88154  30.170  34.239  16.809  0.0234 -0.2038 -0.1662
45243W        W88155  32.936  34.121  16.264 -0.0665 -0.1621 -0.0330
45244W        W88156  34.568   0.317  17.878  0.2039 -0.0999  0.1080
45245W        W88157  30.193  33.350  18.299  0.3372  0.0294  0.1060
45246W        W88158  30.195  32.438  18.165 -0.1892  0.0243 -0.0077
45247W        W88159  32.063   0.328  16.602 -0.0169  0.1058 -0.0958
45248W        W88160  31.389  34.413  18.081  0.1748  0.0270  0.1089
45249W        W88161  31.470  32.837  16.546 -0.0711 -0.2092  0.1088
45250W        W88162  28.420  33.008  18.892 -0.1416  0.2288 -0.1300
45251W        W88163  31.838  33.851  17.911  0.1615 -0.1039  0.0970
45252W        W88164  28.391  33.947  17.116  0.0179  0.0087  0.0339
45253W        W88165  27.629  32.432  19.207 -0.0077 -0.0171  0.1859
45254W        W88166  30.675  34.116  16.228  0.0221 -0.2822  0.1608
45255W        W88167  31.280  33.200  17.675  0.0921 -0.2012 -0.1573
45256W        W88168  30.050  33.098  17.715 -0.0885 -0.2720 -0.1223
45257W        W88169  30.468   0.338  16.597 -0.0915  0.0695 -0.1985
45258W        W88170  29.283  34.148  16.892 -0.2384  0.1528 -0.0845
45259W        W88171  30.143  33.874  19.307  0.0086 -0.3104  0.0281
45260W        W88172  33.532  33.125  18.423  0.1442  0.2168  0.0838
45261W        W88173  31.891  34.659  18.121 -0.0529 -0.1607 -0.1833
45262W        W88174  31.755  32.968  18.977  0.2211  0.0693 -0.3454
45263W        W88175  31.335  32.473  18.207  0.0618  0.3646  0.1950
45264W        W88176  32.776   0.215  18.512 -0.0723  0.1398  0.2905
45265W        W88177  31.585  33.855  19.367  0.2803  0.3019  0.0859
45266W        W88178  31.440   0.483  15.683 -0.0392  0.0669 -0.2458
45267W        W88179  28.987   0.690  18.032 -0.0101  0.2597  0.1639
45268W        W88180  32.502  33.726  16.416  0.2471 -0.1655 -0.1236
45269W        W88181  31.712  33.275  16.704 -0.2255 -0.0176 -0.0049
45270W        W88182  30.970  31.783  17.329  0.1734 -0.0624 -0.0682
45271W        W88183  30.693  33.808  17.451  0.0486 -0.0194  0.1652
45272W        W88184  31.583  32.978  17.950 -0.1266  0.0510  0.1498
45273W        W88185  29.458  34.455  17.905  0.1829  0.1044  0.1844
45274W        W88186  29.152  34.636  17.024 -0.0729 -0.1436 -0.0429
45275W        W88187  29.488  33.511  20.396  0.1766  0.1300 -0.2493
45276W        W88188  29.145  33.080  19.050 -0.2861  0.0798  0.2543
45277W        W88189  29.591  31.463  16.537  0.0212 -0.3069 -0.1417
45278W        W88190  32.049  33.674  18.430 -0.2328 -0.1474  0.3226
45279W        W88191  31.512  32.695  17.046 -0.4824  0.1847  0.0293
45280W        W88192  30.505  33.041  19.514 -0.0131  0.0615 -0.1677
45281W        W88193  32.396   0.257  18.137 -0.0308 -0.1676  0.0897
45282W        W88194  30.781  31.754  17.847 -0.2579  0.1760 -0.1434
45283W        W88195  29.443  33.317  19.941 -0.2309  0.0832  0.0367
45284W        W88196  32.480  34.051  18.926 -0.0692  0.0012 -0.0649
45285W        W88197  30.284  34.244  19.805 -0.2469 -0.0321 -0.2115
45286W        W88198  32.692  32.508  17.397  0.0268  0.1010 -0.3206
45287W        W88199  33.834  34.308  17.846  0.0391 -0.2623 -0.2570
45288W        W88200  28.028  33.711  17.483  0.0292  0.0451 -0.0885
45289W        W88201  29.878  33.563  17.558 -0.0240  0.2452  0.0311
45290W        W88202  31.256  32.557  20.084  0.0055  0.1699  0.2372
45291W        W88203  30.760  31.467  19.272 -0.3488  0.0721  0.0370
45292W        W88204  30.812  33.690  18.723  0.0193 -0.3371 -0.1669
45293W        W88205  29.476  32.601  16.648 -0.2752  0.1198 -0.2734
45294W        W88206  31.200  33.142  16.985  0.1519 -0.0406  0.0600
45295W        W88207  31.236  34.628  17.170 -0.1445 -0.1421  0.1420
45296W        W88208  32.017  33.619  20.162 -0.0384  0.0928  0.1147
45297W        W88209  30.498  32.580  18.664 -0.4232 -0.2419 -0.0681
45298W        W88210  29.609  33.778  16.141  0.1595 -0.1840  0.0204
45299W        W88211  30.622  33.108  16.955  0.0434 -0.2909  0.1620
45300W        W88212  32.066  32.147  19.948  0.1240  0.1922 -0.1300
45301W        W88213  32.600  33.878  17.209  0.2484  0.0086  0.0418
45302W        W88214  30.212  33.419  16.147 -0.0844  0.0500  0.1231
45303W        W88215  29.231   1.212  18.356 -0.6101  0.1238 -0.2312
45304W        W88216  32.445  32.993  16.751  0.1522  0.0895  0.0214
45305W        W88217  29.364   1.107  19.256 -0.0469  0.1637  0.1359
45306W        W88218  31.743  33.318  18.647  0.0241  0.1193 -0.2311
45307W        W88219  29.962  34.543  16.455 -0.2769 -0.2759 -0.3591
45308W        W88220  31.654  33.529  17.187  0.1511  0.1180  0.1442
45309W        W88221  32.022  32.852  16.542  0.0409 -0.3047  0.2175
45310W        W88222  32.071  34.192  16.372  0.4804  0.2097 -0.2529
45311W        W88223  31.534  34.068  16.322  0.0614 -0.0909 -0.1299
45312W        W88224  30.436  33.509  16.580 -0.1160  0.0440 -0.0704
45313W        W88225  30.254  33.905  20.225 -0.1189 -0.2864  0.1348
45314W        W88226  30.830  34.438  17.429  0.0447 -0.0571  0.0431
45315W        W88227  32.608  33.020  17.216 -0.0414 -0.1087 -0.1897
45316W        W88228  32.229  32.328  17.603 -0.0572 -0.1013 -0.2136
45317W        W88229  31.541  32.048  17.663  0.0758 -0.1109 -0.2778
45318W        W88230  30.291  32.075  19.464 -0.2761  0.2546 -0.3101
45319W        W88231  32.972  34.699  19.228  0.3087 -0.0029 -0.0392
45320W        W88232  31.951  33.928  17.052 -0.0303  0.1551  0.0763
45321W        W88233  32.447  34.514  18.356 -0.0141 -0.2120 -0.1256
45322W        W88234  30.196   0.019  16.904  0.1863  0.0362  0.0015
45323W        W88235  31.856  32.612  18.457 -0.0211  0.1899  0.0339
45324W        W88236  30.302  32.531  20.287 -0.0138  0.3032 -0.2928
45325W        W88237  31.047  32.271  17.503  0.1420  0.0938 -0.0590
45326W        W88238  31.240  32.871  19.134 -0.0848 -0.0031  0.3248
45327W        W88239  32.577  32.294  19.131 -0.0552 -0.2253 -0.1573
45328W        W88240  30.272  34.446  16.117  0.1396  0.1938  0.1862
45329W        W88241  28.572  33.461  16.893 -0.2057 -0.1052 -0.5763
45330W        W88242  32.764  33.659  17.988  0.1964  0.1231 -0.1205
45331W        W88243  30.660  32.567  19.958  0.0603  0.0742 -0.2028
45332W        W88244  30.987  32.309  19.001  0.0406 -0.3249 -0.2624
45333W        W88245  31.132  33.312  19.388 -0.0978 -0.0522  0.1680
45334W        W88246  32.575  33.099  17.885  0.0452  0.2752 -0.5457
45335W        W88247  31.148   0.013  20.965  0.0845 -0.0503  0.0418
45336W        W88248  29.232  34.099  16.342 -0.0670  0.2481 -0.2172
45337W        W88249  33.324  34.033  17.784  0.1130 -0.0287 -0.1466
45338W        W88250  31.176  33.753  17.329 -0.0510  0.2589 -0.0212
45339W        W88251  29.463  33.659  16.721  0.2851 -0.2817  0.1350
45340W        W88252  28.297  34.590  18.707  0.0906 -0.3609 -0.1879
45341W        W88253  29.557  32.609  17.122 -0.2576  0.0360  0.1191
45342W        W88254  30.175  33.954  16.379 -0.1745  0.0504  0.1927
45343W        W88255  32.075  33.065  18.044 -0.2032 -0.1851 -0.3208
45344W        W88256  31.644  32.315  19.737  0.1948  0.1250 -0.3463
45345W        W88257  30.495  32.244  20.605  0.0614  0.2574 -0.0470
45346W        W88258  31.176  34.690  18.847  0.1312  0.4016  0.1123
45347W        W88259  31.390  32.050  19.282  0.0951 -0.0717  0.1159
45348W        W88260  32.170  33.323  16.497 -0.2889  0.0905 -0.0400
45349W        W88261  31.650  33.060  17.370 -0.0708  0.1582 -0.1704
45350W        W88262  32.614  33.180  19.935  0.0385  0.4116 -0.3062
45351W        W88263  31.619  33.924  17.465  0.0517  0.0272  0.2952
45352W        W88264  30.878  32.677  20.441 -0.1584  0.4428 -0.4425
45353W        W88265  30.707  33.321  18.389  0.2097 -0.0043 -0.0037
45354W        W88266  28.443  32.369  19.640  0.0648  0.2033  0.4028
45355W        W88267  28.832   0.935  19.944  0.2937 -0.1381 -0.0459
45356W        W88268  29.747  34.148  16.607  0.3149 -0.1171  0.2367
45357W        W88269  29.325  33.633  17.422 -0.2708 -0.0266 -0.1750
45358W        W88270  29.363   0.353  18.029  0.1210 -0.0674 -0.1651
45359W        W88271  32.253  33.508  17.914 -0.4616 -0.2973 -0.0565
45360W        W88272  30.206  34.421  19.306 -0.1410 -0.1194 -0.0677
45361W        W88273  32.365  32.650  18.013  0.0984  0.1275  0.2103
45362W        W88274  29.670  32.956  18.971 -0.0464  0.0499  0.0377
45363W        W88275  30.412  32.953  17.370 -0.2193 -0.0141 -0.2819
45364W        W88276  32.167  31.266  18.832  0.2884  0.0201  0.2699
45365W        W88277  31.787  34.632  20.740 -0.2050  0.0771 -0.1319
45366W        W88278  30.712  33.155  17.885 -0.0254 -0.1824  0.0630
45367W        W88279  30.126  32.652  19.085  0.2562 -0.0903 -0.1876
45368W        W88280  33.448  34.551  17.665 -0.2365  0.0146  0.0802
45369W        W88281  32.673  33.909  18.483 -0.2087 -0.0678 -0.3362
45370W        W88282  32.272  34.290  17.210  0.2033  0.1727 -0.2382
45371W        W88283  32.069  33.695  17.433 -0.0095 -0.0831 -0.0515
45372W        W88284  29.162  33.359  18.229  0.0896 -0.1015  0.0782
45373W        W88285  32.031  34.476  21.483 -0.2625  0.2623  0.0369
45374W        W88286  29.650  33.893  15.514  0.0175  0.1213  0.0931
45375W        W88287  31.653  33.401  19.155  0.2381 -0.1959 -0.1243
45376W        W88288  32.359  34.029  16.793  0.3300 -0.2301 -0.1200
45377W        W88289  29.790  32.942  20.428 -0.0731 -0.1046  0.0330
45378W        W88290  30.217  34.281  15.583 -0.3096  0.1035  0.0650
45379W        W88291  30.547  34.481  16.574  0.1305  0.0080  0.1141
45380W        W88292  31.157  33.397  15.400  0.3142  0.1462  0.4407
45381W        W88293  31.188  33.264  18.736  0.1393  0.0241 -0.0144
45382W        W88294  31.930  32.263  18.804  0.0873  0.0219 -0.3663
45383W        W88295  30.941  32.010  16.928 -0.1621 -0.1102  0.2536
45384W        W88296  29.763  32.648  18.508  0.0117  0.1326  0.3019
45385W        W88297  30.994  32.715  18.685  0.3644 -0.3086 -0.2231
45386W        W88298  31.528  34.000  18.263  0.1976 -0.1033 -0.0223
45387W        W88299  29.725  33.629  18.399 -0.2110 -0.2693 -0.1979
45388W        W88300  29.717  32.351  20.068 -0.4030 -0.0819 -0.3336
45389W        W88301  29.220  32.891  18.002  0.2244 -0.0773 -0.2128
45390W        W88302  30.924  33.379  16.594  0.1743 -0.1126  0.1364
45391W        W88303  33.003  33.003  16.048  0.0192 -0.0523  0.0190
45392W        W88304  33.306   0.092  18.856 -0.2100  0.0108  0.1508
45393W        W88305  33.656  33.897  18.184  0.3429  0.0928 -0.0328
45394W        W88306  30.800   0.653  18.504  0.0168 -0.0271  0.1829
45395W        W88307  30.788  33.682  15.599  0.0359 -0.2720  0.3278
45396W        W88308  30.213   0.150  19.610  0.0457 -0.1645  0.1185
45397W        W88309  32.649  32.165  19.624 -0.0784  0.0306 -0.1191
45398W        W88310  30.363  33.466  17.214  0.3816  0.3031  0.0120
45399W        W88311  31.197  34.270  18.568 -0.2394 -0.2608  0.0681
45400W        W88312  33.960  32.569  19.033 -0.2775  0.1199 -0.3374
45401W        W88313  30.771  33.607  16.998  0.0377  0.0767 -0.1424
45402W        W88314  29.956  32.670  16.825  0.0496 -0.0992  0.0780
45403W        W88315  32.448  34.545  17.807 -0.2092 -0.0600  0.0587
45404W        W88316  30.536  34.523  20.659  0.1363 -0.1944  0.0280
45405W        W88317  33.566  33.225  20.179 -0.0269 -0.1987  0.3250
45406W        W88318  29.718  34.278  19.235  0.1106  0.2917 -0.2261
45407W        W88319  32.957  33.827  17.561  0.1272 -0.0507 -0.0148
45408W        W88320  28.952  34.166  19.008 -0.1098  0.1159  0.0055
45409W        W88321  30.727  34.210  15.724 -0.1237  0.0119  0.0319
45410W        W88322  32.614   1.453  19.519 -0.2209  0.4409  0.1438
45411W        W88323  31.716  34.420  15.969 -0.2185  0.0754  0.3268
45412W        W88324  30.070  33.689  16.796  0.1301 -0.1544 -0.0283
45413W        W88325  32.649  33.250  16.332  0.0237 -0.1031 -0.0162
45414W        W88326  30.134  34.139  18.360  0.1151  0.1786  0.2680
45415W        W88327  29.603  34.535  18.826  0.0813 -0.0894  0.2703
45416W        W88328  29.142  32.827  16.951 -0.1232  0.0821 -0.3490
45417W        W88329  31.053  32.787  17.285 -0.0129 -0.0594  0.1126
45418W        W88330  32.751   0.682  18.285  0.0775  0.4422  0.3503
45419W        W88331  29.057  33.241  17.537  0.0654 -0.1413  0.0605
45420W        W88332  31.227  32.460  16.365  0.1397  0.0856 -0.0618
45421W        W88333  29.893  32.096  18.451 -0.2337  0.0186 -0.2041
45422W        W88334  31.791  33.411  17.693 -0.0764 -0.0017  0.0373
45423W        W88335  30.629  32.471  19.468 -0.0699 -0.4042 -0.1224
45424W        W88336  30.675  31.707  21.211 -0.1725 -0.1071 -0.2192
45425W        W88337  30.503  32.589  17.688 -0.0175  0.1242  0.1557
45426W        W88338  29.463  33.928  17.875  0.0994  0.2489  0.0954
45427W        W88339  32.489  33.355  18.313  0.1690 -0.0809  0.1656
45428W        W88340  32.869  32.629  16.887  0.0393  0.2864  0.2347
45429W        W88341  30.214  33.243  19.184 -0.2567  0.0945 -0.1270
45430W        W88342  26.079  34.325  17.169 -0.0976  0.0675  0.4073
45431W        W88343  31.872  31.745  20.180  0.0263 -0.3000  0.0072
45432W        W88344  29.603  32.760  19.466 -0.1300 -0.1027 -0.0911
45433W        W88345  29.308   0.626  17.596  0.2432  0.0578  0.1598
45434W        W88346  29.733  34.089  17.097 -0.0026 -0.2126  0.0579
45435W        W88347  29.971  33.218  19.614  0.0268  0.1167 -0.2001
45436W        W88348  29.440  33.931  18.766  0.2704  0.0491 -0.1733
45437W        W88349  31.382  33.697  16.782  0.1821 -0.1735  0.3151
45438W        W88350  30.543  33.564  19.385 -0.0314 -0.3944 -0.2496
45439W        W88351  29.416  33.832  19.878  0.0940 -0.0440  0.1319
45440W        W88352  29.045  33.053  16.382  0.2304 -0.2308  0.1752
45441W        W88353  30.876  33.620  17.906 -0.1528 -0.0306 -0.1785
45442W        W88354  27.545  31.627  20.127  0.0523 -0.3248  0.0459
45443W        W88355  31.180  31.754  19.614  0.1086 -0.0022 -0.1153
45444W        W88356  31.777   0.095  15.645  0.0780 -0.2831  0.2731
45445W        W88357  28.332  33.437  19.714  0.2323 -0.0596 -0.0984
45446W        W88358  29.569  34.223  18.364 -0.0136 -0.1700 -0.0712
45447W        W88359  30.062  33.175  16.707  0.1287 -0.1905  0.0336
45448W        W88360  29.111  34.030  18.265  0.1365  0.4168  0.0810
45449W        W88361  31.016  33.337  15.873  0.0773  0.0041 -0.0359
45450W        W88362  30.313  32.935  18.098  0.1733 -0.0807 -0.1772
45451W        W88363  31.539  32.549  17.544 -0.3870  0.1545  0.3273
45452W        W88364  32.793  34.377  17.125  0.4710  0.1800 -0.0071
45453W        W88365  30.607  31.506  20.562 -0.1772 -0.2004  0.2059
45454W        W88366  29.714  33.606  17.102  0.1624  0.1772  0.2520
45455W        W88367  30.069   0.264  17.326 -0.1874  0.0122 -0.0872
45456W        W88368  32.658  33.232  19.428  0.1921 -0.1378  0.1552
45457W        W88369  28.859  34.104  17.769  0.4126  0.1704 -0.1347
45458W        W88370  31.458  33.529  16.157 -0.3180 -0.4354 -0.0104
45459W        W88371  28.148  33.937  19.715 -0.2657 -0.2705  0.3160
45460W        W88372  31.493  34.320  19.473  0.1862 -0.3372  0.1287
45461W        W88373  32.056   0.393  20.683  0.2299 -0.0524  0.1800
45462W        W88374  28.540  33.623  21.282  0.2183  0.1392 -0.3750
45463W        W88375  28.459  32.369  22.733  0.2310 -0.2707 -0.0048
45464W        W88376  30.181  34.468  18.787  0.2191 -0.0360 -0.0622
45465W        W88377  30.238   0.729  23.422  0.2815  0.1588  0.0553
45466W        W88378  29.675  34.444  22.029  0.0886 -0.1290 -0.0365
45467W        W88379  28.306  34.110  23.072 -0.1158 -0.0559 -0.0610
45468W        W88380  32.270  33.791  23.099  0.0651  0.1311 -0.5065
45469W        W88381  29.347  33.966  19.298  0.0598  0.1119  0.0520
45470W        W88382  29.878  33.940  23.098  0.0619 -0.1150 -0.0345
45471W        W88383  30.699  33.847  21.204  0.1045  0.2052 -0.2477
45472W        W88384  31.990  33.987  23.544  0.0638  0.0849  0.3996
45473W        W88385  32.133  32.415  22.762 -0.0938  0.0055  0.5764
45474W        W88386  29.291  34.667  21.283 -0.4649  0.0236  0.1699
45475W        W88387  27.880  33.842  21.330 -0.0244  0.0036 -0.1500
45476W        W88388  28.826  34.576  21.419  0.1306  0.1358 -0.2984
45477W        W88389  32.203  33.304  21.544  0.0081  0.0706 -0.5229
45478W        W88390  30.826  33.096  22.655 -0.2553  0.2064 -0.0731
45479W        W88391  30.261  34.295  23.858 -0.1511 -0.0631 -0.0344
45480W        W88392  31.426  34.254  22.816  0.2009 -0.0897 -0.4325
45481W        W88393  29.797   0.103  21.215  0.3933  0.0711 -0.0420
45482W        W88394  32.232  33.654  26.134 -0.2666 -0.0262  0.2415
45483W        W88395  31.684   0.645  19.848 -0.0592  0.0695 -0.2843
45484W        W88396  30.951  32.862  19.627 -0.3244  0.1548  0.2357
45485W        W88397  30.955  34.240  19.783  0.1430  0.1429 -0.0976
45486W        W88398  30.713  32.448  22.308  0.4029 -0.1065  0.1625
45487W        W88399  30.112  34.579  21.894 -0.1795  0.2403 -0.1710
45488W        W88400  31.154  34.698  19.816  0.1515  0.2013 -0.0881
45489W        W88401  31.760   0.728  23.625  0.0208 -0.4200  0.1773
45490W        W88402  28.640  34.360  20.291  0.3289 -0.2488  0.0235
45491W        W88403  30.332   0.004  20.069 -0.3578  0.0377  0.3767
45492W        W88404  28.765   1.193  21.659 -0.1848 -0.1483  0.0141
45493W        W88405  28.737   0.698  21.796  0.0312  0.0477 -0.0846
45494W        W88406  29.504  31.562  19.783 -0.1744  0.0771  0.0799
45495W        W88407  30.998  33.525  20.371  0.1624 -0.1333 -0.0863
45496W        W88408  32.597  34.057  20.931 -0.3940 -0.0524  0.2096
45497W        W88409  31.540  34.097  22.345 -0.0967 -0.1699 -0.2076
45498W        W88410  31.510   0.293  19.430  0.0058  0.0834 -0.1721
45499W        W88411  29.353   0.603  22.262  0.0652 -0.1879  0.2231
45500W        W88412  28.993  33.914  22.167 -0.1532 -0.0536 -0.1741
45501W        W88413  30.933  33.073  20.702 -0.1649  0.0025 -0.0627
45502W        W88414  28.554  32.984  22.003  0.0427  0.1872 -0.1530
45503W        W88415  32.226  33.048  20.853  0.0243  0.1015 -0.0734
45504W        W88416  33.911  34.457  20.894  0.0092  0.2023  0.0563
45505W        W88417  27.009  34.278  22.302 -0.0116  0.2162 -0.0248
45506W        W88418  27.949  34.035  20.533 -0.0099 -0.2546  0.0450
45507W        W88419  29.530  34.086  24.485 -0.3201  0.0784  0.0803
45508W        W88420  27.767  32.978  22.468 -0.0328  0.1677 -0.0821
45509W        W88421  31.979   0.660  24.133 -0.0566 -0.1824  0.2479
45510W        W88422  28.467  34.340  19.763  0.0313 -0.0942 -0.2084
45511W        W88423  31.306  33.320  21.075  0.0482 -0.0319 -0.0239
45512W        W88424  29.824  34.539  19.705 -0.0824 -0.1172 -0.1229
45513W        W88425  30.813  33.594  23.568  0.0402 -0.2493 -0.3140
45514W        W88426  29.745   0.636  23.473 -0.0996  0.1452  0.3576
45515W        W88427  31.338  33.075  19.984 -0.2582 -0.1913  0.2617
45516W        W88428  30.314  33.416  19.944  0.0825 -0.0019  0.2213
45517W        W88429  30.398  34.111  22.932  0.0234 -0.0286  0.0313
45518W        W88430  29.517  33.910  22.226  0.1492  0.1063 -0.0703
45519W        W88431  30.595  34.149  17.833  0.2912  0.0360  0.1223
45520W        W88432  29.855  34.413  20.910  0.2923 -0.2655  0.0961
45521W        W88433  30.655  33.133  20.058  0.4510 -0.2878 -0.0367
45522W        W88434  29.567   0.387  22.647 -0.2345 -0.1268  0.4488
45523W        W88435  31.390  33.052  23.209  0.1807 -0.4464 -0.0213
45524W        W88436  29.053  33.582  20.049  0.1301  0.2884 -0.1652
45525W        W88437  30.979  32.391  21.361 -0.3172  0.2166  0.2543
45526W        W88438  31.432  34.578  20.318  0.0433 -0.1127  0.0908
45527W        W88439  32.218  33.316  19.654  0.4141  0.1347  0.5742
45528W        W88440  31.302  32.861  21.705  0.0264 -0.2089 -0.0958
45529W        W88441  30.843  33.378  21.081  0.1687 -0.2061  0.2080
45530W        W88442  30.334  33.872  23.347 -0.1974  0.3187  0.1794
45531W        W88443  31.035   0.578  19.729  0.1296 -0.3881 -0.0364
45532W        W88444  31.063  34.221  22.138  0.1534  0.1305 -0.0124
45533W        W88445  31.882  32.557  23.954  0.0469 -0.3241  0.3658
45534W        W88446  29.912  34.425  22.986  0.2473 -0.2536 -0.0333
45535W        W88447  29.363   0.263  24.246  0.0726  0.0278  0.1279
45536W        W88448  31.104   0.031  23.642 -0.0431  0.1237 -0.0789
45537W        W88449  31.971  33.739  18.940  0.1417  0.0483 -0.1225
45538W        W88450  31.882  34.114  22.920  0.3386  0.0923  0.2578
45539W        W88451  29.832  34.060  19.675  0.0545 -0.1224  0.1270
45540W        W88452  31.251  32.434  22.139  0.0460 -0.0461  0.1612
45541W        W88453  30.249  34.459  23.345  0.0294  0.0467  0.0073
45542W        W88454  30.646  33.851  22.291 -0.0164 -0.1358 -0.0287
45543W        W88455  30.782  33.415  21.949 -0.0856 -0.3418 -0.0765
45544W        W88456  30.619  32.907  23.634  0.1093  0.0290 -0.0445
45545W        W88457  31.718  32.699  20.007 -0.2584 -0.1427 -0.0739
45546W        W88458  28.782  34.653  19.081  0.1552 -0.3885  0.2106
45547W        W88459  32.292  33.075  22.004  0.4509 -0.1624 -0.1276
45548W        W88460  28.774  34.463  22.646  0.1786 -0.1316 -0.1105
45549W        W88461  30.093   0.241  23.224 -0.0459  0.1572  0.2003
45550W        W88462  32.166   1.021  23.409 -0.0153  0.1376  0.1933
45551W        W88463  31.457  33.321  20.468  0.1125  0.0888 -0.1863
45552W        W88464  31.046   0.376  23.193  0.0725 -0.0080 -0.0889
45553W        W88465  29.449   0.602  19.133  0.2566 -0.1051  0.1316
45554W        W88466  32.534  33.944  22.665  0.1687 -0.0900  0.1388
45555W        W88467  30.089   0.332  21.624  0.1114 -0.0064 -0.1970
45556W        W88468  29.729  33.639  20.842  0.1131  0.1227 -0.1260
45557W        W88469  28.492   1.184  22.102 -0.1778 -0.2003 -0.2118
45558W        W88470  30.236  34.560  21.418  0.0956  0.2689 -0.0171
45559W        W88471  29.464  34.214  21.152 -0.0383 -0.1531 -0.1335
45560W        W88472  30.126  34.506  22.452 -0.1369 -0.0294 -0.2759
45561W        W88473  30.943   0.349  22.681  0.2345  0.3172 -0.3226
45562W        W88474  30.719  33.621  22.811 -0.0433 -0.1407  0.4203
45563W        W88475  29.944  34.019  24.154 -0.2199 -0.0072  0.2664
45564W        W88476  29.978  33.206  21.907  0.0003  0.1105 -0.1844
45565W        W88477  30.704  33.220  18.913 -0.0025 -0.0434 -0.1395
45566W        W88478  31.573  33.977  21.810 -0.2966  0.2042 -0.0666
45567W        W88479  32.294  32.768  23.045  0.2742  0.0078 -0.1704
45568W        W88480  32.185   1.065  20.704  0.0774 -0.2323  0.0800
45569W        W88481  30.366  33.271  23.331  0.1794  0.1880 -0.1552
45570W        W88482  28.961  32.982  22.534 -0.1607 -0.1327  0.1105
45571W        W88483  29.515  34.007  22.695  0.0057  0.0049  0.1848
45572W        W88484  29.850   1.202  24.577  0.3486  0.0923 -0.0932
45573W        W88485  31.177  33.783  21.314 -0.1550  0.1919  0.0967
45574W        W88486  28.157  33.784  20.941  0.1018 -0.1278 -0.1016
45575W        W88487  29.585   0.194  21.722  0.0074 -0.0956  0.0782
45576W        W88488  32.066  34.021  21.076  0.1858 -0.0595  0.2810
45577W        W88489  28.982   0.019  20.346  0.0999 -0.1274 -0.1805
45578W        W88490  32.180   0.268  21.815 -0.1618 -0.1668  0.1447
45579W        W88491  29.506   0.089  23.039  0.0773 -0.1337 -0.2179
45580W        W88492  31.155  33.760  22.062 -0.0266  0.1835 -0.0618
45581W        W88493  31.244  33.548  23.302 -0.2120 -0.2050  0.1159
45582W        W88494  31.841  32.478  23.332 -0.0388 -0.3912  0.1790
45583W        W88495  29.306   0.110  22.161  0.0248 -0.2974  0.1590
45584W        W88496  29.834  33.586  23.801  0.1642  0.0856 -0.1166
45585W        W88497  31.912  33.166  20.045 -0.1007  0.3188  0.0285
45586W        W88498  32.777  32.352  22.978 -0.0693 -0.3405  0.6883
45587W        W88499  34.187  34.632  21.320 -0.0155  0.0249  0.2456
45588W        W88500  30.111  32.888  19.968  0.1937 -0.0830  0.1092
45589W        W88501  29.057  33.447  22.389  0.0157  0.2015  0.0609
45590W        W88502  31.634   0.163  24.792  0.2166 -0.0425 -0.1133
45591W        W88503  29.906  31.893  19.970 -0.2800  0.0669 -0.1485
45592W        W88504  31.367   0.043  22.819  0.1234 -0.0489 -0.1377
45593W        W88505  31.936   0.744  21.103  0.0096  0.1439  0.1977
45594W        W88506  28.974  33.764  23.863  0.2582 -0.1880 -0.1872
45595W        W88507  30.492  33.501  20.422 -0.1433 -0.1491 -0.0719
45596W        W88508  31.252  33.958  20.304  0.1048 -0.0701  0.2540
45597W        W88509  30.029  32.553  20.717 -0.1505  0.0365  0.0001
45598W        W88510  32.029  33.819  22.593  0.0665  0.3751  0.0149
45599W        W88511  29.223  33.868  20.879  0.1021  0.0977  0.1106
45600W        W88512  31.292  33.250  22.119 -0.0647 -0.2540  0.3822
45601W        W88513  31.336  33.466  21.640  0.1565  0.2016  0.0661
45602W        W88514  31.067  33.786  20.846 -0.1219  0.0411 -0.2458
45603W        W88515  33.461   0.150  24.782 -0.0432  0.3996  0.2267
45604W        W88516  27.725   1.247  20.497 -0.0338 -0.2746  0.3547
45605W        W88517  29.213  34.313  22.400 -0.1869  0.0677  0.1745
45606W        W88518  29.481  34.313  20.643 -0.2010  0.1242 -0.2829
45607W        W88519  30.298  33.539  20.973  0.0750  0.3236 -0.2919
45608W        W88520  32.013  32.892  19.418  0.1081 -0.0809 -0.1701
45609W        W88521  31.809  33.253  21.937 -0.1123  0.1373 -0.1629
45610W        W88522  32.399  33.648  19.225 -0.3035  0.1169 -0.0813
45611W        W88523  29.619  34.542  22.557 -0.0377 -0.3608  0.0101
45612W        W88524  29.014  33.436  20.671 -0.1527  0.1579 -0.1347
45613W        W88525  27.823  34.280  22.683 -0.0373  0.3671  0.1977
45614W        W88526  32.387  33.669  24.847  0.1963 -0.1432 -0.0908
45615W        W88527  28.098  33.667  19.250 -0.1483  0.2227 -0.0135
45616W        W88528  29.260   1.292  21.843  0.3119 -0.3075  0.1413
45617W        W88529  31.843  32.333  22.031 -0.0608  0.0062 -0.0666
45618W        W88530  32.679   0.279  22.053 -0.2038 -0.2600 -0.0749
45619W        W88531  27.637  33.887  19.131 -0.2050 -0.0109 -0.1657
45620W        W88532  31.485  32.849  19.568  0.2841 -0.1287  0.1333
45621W        W88533  28.412   1.677  22.057 -0.1090  0.0503 -0.4286
45622W        W88534  31.896  33.081  23.292 -0.1120 -0.2580  0.0157
45623W        W88535  29.440   0.193  20.715  0.2149  0.2700  0.2018
45624W        W88536  32.048  32.822  21.599  0.2421 -0.3298  0.0405
45625W        W88537  29.835   0.204  22.213  0.2625  0.2034 -0.2083
45626W        W88538  31.004  34.456  19.327  0.4195  0.0701 -0.0677
45627W        W88539  32.937  34.216  22.520 -0.0109 -0.0493  0.0411
45628W        W88540  29.829  33.454  18.885 -0.1242 -0.1801  0.2263
45629W        W88541  28.290  34.261  22.501  0.0963 -0.2244  0.2052
45630W        W88542  30.334  33.522  21.488 -0.2149 -0.2414 -0.0168
45631W        W88543  29.888   1.422  22.169 -0.0331 -0.0053 -0.1757
45632W        W88544  29.218   1.249  23.858 -0.0335  0.4561 -0.1502
45633W        W88545  29.000  34.142  21.252  0.1767  0.3508  0.2764
45634W        W88546  31.466  33.958  23.214  0.0220 -0.0980 -0.2028
45635W        W88547  31.544  34.106  21.237  0.0579  0.1586 -0.0667
45636W        W88548  28.727  33.870  20.858 -0.2769 -0.0933 -0.2322
45637W        W88549  30.196  33.535  22.840 -0.2732 -0.0323 -0.3012
45638W        W88550  29.065   0.395  19.936  0.2615  0.0295 -0.1898
45639W        W88551  31.594  31.642  21.280 -0.1159  0.3416 -0.0999
45640W        W88552  30.972  33.155  24.240  0.0001  0.3351 -0.4376
45641W        W88553  30.959  34.041  23.039 -0.2400 -0.2503  0.0300
45642W        W88554  31.044  34.595  22.439 -0.0268 -0.0925 -0.3919
45643W        W88555  31.047  34.226  21.157  0.1440 -0.1009 -0.0356
45644W        W88556  31.651  33.124  21.420  0.1190 -0.0280 -0.0076
45645W        W88557  32.037  31.866  21.075 -0.1298  0.1485  0.2798
45646W        W88558  29.054   0.312  21.706  0.0567  0.2012 -0.1443
45647W        W88559  28.413   0.311  19.056 -0.2044  0.0845 -0.0715
45648W        W88560  32.193  34.235  24.849  0.1517 -0.1072  0.3110
45649W        W88561  28.848  33.667  23.383 -0.0214  0.0572  0.1397
45650W        W88562  29.698  34.349  20.123  0.2375 -0.1447 -0.2773
45651W        W88563  28.984  33.505  21.163 -0.2366  0.2262  0.0556
45652W        W88564  27.586   0.695  21.403 -0.0359  0.0714  0.0262
45653W        W88565  28.440  34.147  21.243  0.4877  0.1586 -0.1256
45654W        W88566  31.120   0.085  21.974 -0.0338  0.1967  0.2670
45655W        W88567  30.628  33.404  23.987  0.1882 -0.0051 -0.1536
45656W        W88568  29.375  33.435  23.866  0.5529  0.0976  0.1538
45657W        W88569  30.634  34.290  20.141  0.1857 -0.2433  0.1031
45658W        W88570  29.394   0.820  21.760 -0.3446  0.2827  0.4173
45659W        W88571  27.654  33.096  22.927 -0.1035  0.0656 -0.0633
45660W        W88572  33.159  31.926  22.405 -0.0817 -0.2095 -0.1335
45661W        W88573  31.544  34.696  21.649  0.0983  0.2902 -0.2536
45662W        W88574  29.257  32.212  22.553 -0.0721  0.1620 -0.0736
45663W        W88575  28.701  33.075  20.993 -0.1159  0.0881  0.0752
45664W        W88576  31.150  34.290  21.642 -0.2450  0.2316 -0.1419
45665W        W88577  28.818  33.868  20.397  0.1309 -0.2270  0.1279
45666W        W88578  29.759  33.581  21.684 -0.0017  0.3162 -0.1506
45667W        W88579  29.320   0.317  23.527 -0.2049  0.1825 -0.0906
45668W        W88580  30.452  33.120  21.741  0.1587  0.3172 -0.0364
45669W        W88581  32.618   0.443  21.543 -0.1683  0.2684  0.0055
45670W        W88582  28.758  32.475  21.754  0.1268  0.2532 -0.0469
45671W        W88583  29.672   0.466  20.398 -0.3547  0.0600 -0.0410
45672W        W88584  29.140  34.487  21.828 -0.1946  0.1203 -0.1773
45673W        W88585  31.557  32.315  23.712  0.0103 -0.2011 -0.1720
45674W        W88586  29.407  34.028  21.704 -0.2509  0.1522 -0.1758
45675W        W88587  30.102  32.865  22.302 -0.2701 -0.2107  0.0870
45676W        W88588  30.047  33.612  25.252 -0.2811  0.2782 -0.0991
45677W        W88589  31.610  33.143  22.510  0.2676 -0.3471  0.2131
45678W        W88590  31.736   0.181  24.228  0.2648  0.0483 -0.0545
45679W        W88591  30.022  33.815  26.497  0.0981  0.1218 -0.0482
45680W        W88592  29.646  32.941  26.829 -0.1468 -0.1180 -0.0886
45681W        W88593  30.831   0.691  24.665 -0.1467  0.1830 -0.2125
45682W        W88594  29.288  33.493  27.707 -0.1531 -0.0472  0.0351
45683W        W88595  29.915  34.329  25.762  0.0105 -0.0737  0.1553
45684W        W88596  30.016  34.466  26.232 -0.0292  0.0273 -0.0209
45685W        W88597  32.682   0.595  27.528  0.3237 -0.0364  0.3463
45686W        W88598  28.805  34.452  23.969  0.1925  0.0050  0.1193
45687W        W88599  31.077  33.616  25.104  0.0738 -0.1569  0.1229
45688W        W88600  30.889  34.362  24.649 -0.1772  0.1436 -0.0752
45689W        W88601  30.347  33.482  26.806 -0.0913 -0.2341 -0.4028
45690W        W88602  32.156  32.871  26.666  0.2359 -0.0873  0.0646
45691W        W88603  28.996   0.352  23.968 -0.1617 -0.1082  0.0530
45692W        W88604  29.558  33.759  26.290 -0.2025  0.2816  0.3297
45693W        W88605  29.381  33.490  25.785  0.1719 -0.0445  0.0889
45694W        W88606  32.615   0.599  26.660 -0.1449  0.0451  0.0759
45695W        W88607  31.591  33.935  23.862  0.0352 -0.1502  0.2091
45696W        W88608  32.687  33.857  27.930  0.0001 -0.1081 -0.0281
45697W        W88609  30.219  34.651  27.049  0.2120 -0.2163  0.0926
45698W        W88610  30.276  34.031  25.552 -0.1909  0.1944 -0.0699
45699W        W88611  32.407  33.967  27.000  0.1225  0.0975 -0.2098
45700W        W88612  31.203   0.236  24.079 -0.1707 -0.1460  0.0896
45701W        W88613  30.069  33.987  22.423 -0.1176  0.1233  0.0741
45702W        W88614  31.112   0.392  26.555 -0.1012 -0.1788  0.1248
45703W        W88615  29.238  32.565  24.842  0.1947  0.1781  0.0686
45704W        W88616  32.117  33.535  26.855  0.0317  0.0622 -0.2184
45705W        W88617  32.070   0.867  25.347 -0.3335  0.2043 -0.0005
45706W        W88618  30.514   0.594  28.590 -0.1726 -0.0536  0.4097
45707W        W88619  30.812  34.585  26.550  0.0560 -0.0355  0.1913
45708W        W88620  29.900  34.074  23.594  0.0714 -0.0453 -0.0261
45709W        W88621  30.454   2.923  27.122 -0.0613  0.0468  0.0531
45710W        W88622  29.609   0.212  28.213  0.1641 -0.0394  0.0044
45711W        W88623  29.130   0.090  22.608 -0.1756  0.2668 -0.1830
45712W        W88624  33.201  33.736  25.738  0.1081  0.2323  0.1515
45713W        W88625  31.247  33.138  26.209  0.0129  0.0260  0.3232
45714W        W88626  34.048  33.960  26.113 -0.0589 -0.1014  0.0479
45715W        W88627  32.160  33.533  23.660 -0.1248  0.0861 -0.1137
45716W        W88628  31.050  33.319  27.019  0.1269  0.3142 -0.1696
45717W        W88629  29.151  34.691  26.883  0.2804  0.2820 -0.3463
45718W        W88630  33.011  33.278  25.770  0.0015 -0.0549  0.1307
45719W        W88631  29.342  34.579  27.947 -0.1840  0.4117  0.0539
45720W        W88632  31.733  32.446  25.463  0.1270 -0.1977 -0.4386
45721W        W88633  30.516  34.459  25.601 -0.2339  0.1830 -0.0063
45722W        W88634  28.563  34.096  25.474 -0.1704  0.2600 -0.1574
45723W        W88635  30.243   1.110  26.032 -0.0919 -0.0194 -0.3468
45724W        W88636  30.012  32.440  27.081 -0.1614  0.0319  0.0738
45725W        W88637  29.532  33.463  25.284 -0.2591  0.0383  0.0656
45726W        W88638  34.607   0.406  27.155 -0.0274  0.0621  0.0259
45727W        W88639  29.014  33.115  21.952 -0.0527  0.0829 -0.0451
45728W        W88640  32.207   0.486  26.187 -0.1881 -0.0029  0.2429
45729W        W88641  29.640  34.485  24.153  0.0503 -0.1952  0.0965
45730W        W88642  32.633  32.343  27.278  0.0309  0.0562  0.0765
45731W        W88643  29.729  33.331  27.619 -0.1509 -0.2397 -0.3248
45732W        W88644  29.590  32.410  22.978 -0.2169  0.0877  0.2456
45733W        W88645  29.327  32.648  24.363 -0.0309  0.0299  0.2051
45734W        W88646  33.643  33.515  26.978  0.0422  0.0335 -0.0478
45735W        W88647  31.194   0.427  24.875 -0.0024  0.0736  0.0845
45736W        W88648  28.761  33.426  22.967 -0.2841 -0.1133  0.0771
45737W        W88649  29.464  34.400  24.911  0.0182 -0.0993 -0.0015
45738W        W88650  31.791  33.594  26.316 -0.0302  0.2482 -0.1288
45739W        W88651  29.550   0.682  28.025  0.0281  0.2705 -0.0606
45740W        W88652  33.390  33.453  26.081 -0.1252  0.2082  0.0033
45741W        W88653  29.454  34.015  23.980  0.2966 -0.1202  0.0248
45742W        W88654  32.325  33.556  25.340  0.1883 -0.1015 -0.0162
45743W        W88655  32.270  34.496  23.767 -0.0440  0.0586  0.1181
45744W        W88656  32.161   0.097  23.386  0.1992  0.0801 -0.0947
45745W        W88657  31.254  33.437  24.483 -0.0162  0.0818 -0.0605
45746W        W88658  31.174   0.915  23.275 -0.1940 -0.0334 -0.0725
45747W        W88659  30.410  33.535  26.264 -0.3557 -0.2725  0.0128
45748W        W88660  29.108  32.508  23.363  0.1056  0.2825 -0.1430
45749W        W88661  32.073  33.861  24.474  0.1962  0.0020  0.0588
45750W        W88662  33.355   0.320  26.807 -0.1162  0.2001 -0.2067
45751W        W88663  31.973  34.003  26.618 -0.0062 -0.2461  0.3128
45752W        W88664  30.320  33.068  26.388 -0.5336  0.0089  0.1668
45753W        W88665  32.326  34.393  26.688 -0.1350  0.0564 -0.2194
45754W        W88666  30.688   0.790  25.727  0.0306 -0.0634 -0.1591
45755W        W88667  31.489   0.202  26.772  0.1929  0.3207 -0.1653
45756W        W88668  29.485  34.303  23.377  0.2764 -0.0260  0.1738
45757W        W88669  31.675  32.902  26.393 -0.1511 -0.0794  0.1592
45758W        W88670  31.653  33.298  26.795 -0.2408  0.1611 -0.1713
45759W        W88671  30.274  33.592  24.314  0.0309  0.0798 -0.1147
45760W        W88672  30.237  32.054  25.398 -0.0081 -0.0411 -0.0693
45761W        W88673  30.658  31.939  24.492 -0.1235 -0.0023  0.1192
45762W        W88674  29.470  33.789  23.541 -0.3286  0.0048 -0.2245
45763W        W88675  28.278  34.453  24.016 -0.0063  0.1764 -0.1186
45764W        W88676  31.973  34.056  25.944  0.0897 -0.1395  0.0163
45765W        W88677  28.840  33.525  25.608 -0.0264 -0.1243  0.1086
45766W        W88678  31.112  33.832  25.595 -0.0144  0.0298 -0.2152
45767W        W88679  30.197  32.310  26.363  0.0000 -0.0185  0.1625
45768W        W88680  31.186  34.436  23.205 -0.1043  0.2066 -0.0407
45769W        W88681  30.613  34.147  28.982  0.0865  0.1124  0.0800
45770W        W88682  28.339  33.613  23.134 -0.0653  0.0638  0.1804
45771W        W88683  32.188  32.447  26.983 -0.3549 -0.0377 -0.2502
45772W        W88684  30.184  33.953  26.018  0.0895 -0.0455 -0.2912
45773W        W88685  29.693  33.928  25.070  0.1177  0.0010  0.1271
45774W        W88686  31.329  33.559  26.555  0.0588  0.1802 -0.2484
45775W        W88687  31.204  34.392  25.509 -0.0056 -0.1924  0.0314
45776W        W88688  30.296  33.951  24.983  0.1103  0.1896  0.1869
45777W        W88689  30.556   0.900  26.882 -0.0932 -0.2914 -0.1511
45778W        W88690  31.482   0.423  26.159 -0.1968 -0.1558  0.5307
45779W        W88691  31.615  34.101  25.276  0.1449 -0.2958 -0.0027
45780W        W88692  32.897   0.337  27.122 -0.0751  0.0216  0.3427
45781W        W88693  32.082  34.683  27.042  0.4077  0.1481 -0.2426
45782W        W88694  31.868  33.364  25.192 -0.0399 -0.0390  0.1048
45783W        W88695  31.335  34.557  25.030  0.0327 -0.1223  0.0539
45784W        W88696  32.229  31.904  27.366  0.0641  0.2054  0.1172
45785W        W88697  31.961   0.515  24.587  0.0786  0.0105 -0.1776
45786W        W88698  33.596  32.982  26.963 -0.3772  0.0318 -0.0207
45787W        W88699  29.411  34.220  27.023 -0.0766 -0.1775 -0.1438
45788W        W88700  29.914   0.368  27.795 -0.0121  0.2517 -0.0737
45789W        W88701  29.432   0.840  27.167 -0.1582 -0.0137 -0.0490
45790W        W88702  31.175  34.103  25.046  0.3869  0.0090 -0.1155
45791W        W88703  29.958  33.195  24.491 -0.4254 -0.4917  0.1967
45792W        W88704  31.185  34.467  26.854  0.0907  0.1191 -0.3612
45793W        W88705  30.990   0.489  27.075 -0.1822  0.0621  0.3129
45794W        W88706  29.528   0.409  26.265  0.0110  0.0095  0.1182
45795W        W88707  31.903  34.448  25.627 -0.0876  0.0342  0.0755
45796W        W88708  29.671  33.309  27.138  0.1490 -0.1505  0.1083
45797W        W88709  30.428  34.656  24.421  0.1314  0.1073 -0.0762
45798W        W88710  30.906  33.691  26.328 -0.1170  0.3341  0.0052
45799W        W88711  31.722  34.393  26.774 -0.1245  0.1875 -0.2007
45800W        W88712  31.248   0.142  27.885  0.3221 -0.0605 -0.3423
45801W        W88713  30.437  33.890  27.932 -0.3753 -0.1234 -0.4043
45802W        W88714  31.855   0.227  23.749 -0.1424 -0.0272 -0.1287
45803W        W88715  31.495  34.155  25.913  0.4020 -0.0201  0.2933
45804W        W88716  30.720  34.191  23.486 -0.0248  0.2145  0.0867
45805W        W88717  30.277   0.314  23.710  0.1406 -0.0794 -0.4605
45806W        W88718  28.854   0.289  25.138 -0.1774  0.0682  0.2109
45807W        W88719  32.552  34.479  27.883 -0.0109  0.4101  0.2211
45808W        W88720  28.962  32.998  23.122 -0.2481  0.1236 -0.1983
45809W        W88721  32.297  32.814  28.177 -0.1186 -0.1208  0.2014
45810W        W88722  30.870  34.669  25.218 -0.2924 -0.1011 -0.1824
45811W        W88723  28.679   1.001  27.411  0.0384  0.1406 -0.0874
45812W        W88724  29.293  34.576  23.796 -0.0510  0.3094  0.4060
45813W        W88725  29.972  33.801  24.638 -0.1359  0.0790  0.1175
45814W        W88726  30.804  33.560  24.450 -0.0910  0.3566  0.1618
45815W        W88727  32.976  33.713  27.008  0.0350  0.2897 -0.2369
45816W        W88728  30.750  33.863  24.809 -0.1496  0.2704  0.2945
45817W        W88729  32.555  33.779  26.549  0.0862  0.3155 -0.1309
45818W        W88730  31.834  32.848  27.167 -0.1349  0.0551  0.1845
45819W        W88731  30.154  32.985  26.850 -0.0091 -0.1498  0.0625
45820W        W88732  33.052   0.879  27.338 -0.0615  0.0245  0.1839
45821W        W88733  30.564  34.031  26.538  0.2309 -0.1092 -0.1856
45822W        W88734  29.301  33.970  28.812 -0.2242 -0.0270 -0.3331
45823W        W88735  28.966  32.148  24.780  0.1232  0.0762 -0.0264
45824W        W88736  29.733  33.622  24.254  0.0543  0.2474  0.1936
45825W        W88737  31.141  33.581  23.974  0.1744 -0.1883  0.1378
45826W        W88738  33.089   0.776  26.860  0.0808  0.0874  0.0936
45827W        W88739  31.668  34.290  24.734  0.3588  0.2260 -0.1602
45828W        W88740  29.335  32.981  27.303 -0.2628 -0.0957  0.0195
45829W        W88741  29.708  33.172  23.582 -0.1638  0.2682 -0.2095
45830W        W88742  30.142   0.676  28.132  0.0983  0.4449  0.1832
45831W        W88743  33.682  33.287  27.772 -0.2375  0.1092  0.0336
45832W        W88744  29.469  33.546  24.755  0.0087  0.1256  0.0009
45833W        W88745  30.122  34.202  26.760  0.0315 -0.1037  0.0395
45834W        W88746  32.252  32.426  25.383 -0.0511 -0.2683 -0.1722
45835W        W88747  31.111  33.880  27.299  0.1203  0.2852  0.2562
45836W        W88748  28.226  33.609  24.275 -0.3060 -0.3465  0.0772
45837W        W88749  33.512   0.677  27.171  0.0510  0.2508  0.2684
45838W        W88750  29.919  33.721  27.011 -0.3158 -0.0430 -0.1279
45839W        W88751  32.521  32.788  26.208  0.2711  0.0048  0.1858
45840W        W88752  30.460  34.110  24.368 -0.1114  0.0003  0.2421
45841W        W88753  31.180  34.103  23.630 -0.0618 -0.3337 -0.2042
45842W        W88754  28.960  34.482  26.213  0.0046 -0.0470 -0.1750
45843W        W88755  29.758   0.113  24.496  0.3202 -0.0751  0.2972
45844W        W88756  33.995  33.433  27.398  0.1304 -0.2588  0.1298
45845W        W88757  31.190  34.009  24.317  0.0620 -0.2620 -0.0583
45846W        W88758  29.970  33.371  26.144  0.0434  0.0333 -0.3018
45847W        W88759  30.831  33.961  24.026  0.0256  0.3267 -0.1954
45848W        W88760  27.855  33.077  24.662  0.0150 -0.5550  0.0522
45849W        W88761  30.751   0.032  27.104 -0.1372 -0.0183 -0.1704
45850W        W88762  28.618  32.644  23.215  0.2376  0.0933 -0.0359
45851W        W88763  32.314   0.856  25.865  0.2399  0.0649 -0.4608
45852W        W88764  31.023  34.053  26.662 -0.2882 -0.2893  0.0114
45853W        W88765  31.049  34.191  26.159 -0.2716  0.1045  0.0247
45854W        W88766  30.821  32.692  24.992 -0.1023 -0.0696  0.2205
45855W        W88767  30.749  32.853  25.571  0.0825 -0.0906 -0.0116
45856W        W88768  31.629   0.124  25.362 -0.0824  0.0034  0.2412
45857W        W88769  32.602  34.695  26.973  0.0715 -0.0731  0.0300
45858W        W88770  33.311  33.572  27.399 -0.0162  0.4005 -0.0111
45859W        W88771  30.567  34.395  26.080 -0.0396  0.0794 -0.4847
45860W        W88772  31.363  33.601  26.013  0.2096 -0.1188  0.1106
45861W        W88773  32.644  33.296  26.087 -0.0274  0.2815 -0.0172
45862W        W88774  33.047  33.971  26.560  0.0330 -0.0052  0.0798
45863W        W88775  29.629  33.756  27.387 -0.0096 -0.0419 -0.1887
45864W        W88776  28.117  34.678  22.832  0.0462  0.0836 -0.0362
45865W        W88777  29.839  32.137  27.440  0.0077 -0.1691 -0.1692
45866W        W88778  29.482   0.915  29.164 -0.0080  0.2345  0.0805
45867W        W88779  30.301   0.735  26.453 -0.1077 -0.1221 -0.1281
45868W        W88780  29.833  33.220  24.951  0.0296  0.0914  0.0412
45869W        W88781  30.930  32.763  26.017 -0.2600 -0.2415 -0.0362
45870W        W88782  27.272  32.642  25.379  0.0190 -0.0479  0.0048
45871W        W88783  31.434  33.817  24.758  0.1451  0.2184 -0.0163
45872W        W88784  31.698  33.342  27.333 -0.1155 -0.0406  0.1011
45873W        W88785  30.672  32.974  27.007 -0.1389  0.4158 -0.0922
45874W        W88786  29.183  33.978  24.773 -0.0162  0.0065 -0.0724
45875W        W88787  30.961  33.301  25.443 -0.1101 -0.1053  0.1372
45876W        W88788  29.880  33.325  26.609  0.0595 -0.1626  0.2674
45877W        W88789  32.947  33.439  26.498  0.0388  0.2194 -0.1510
45878W        W88790  31.515  34.680  25.825 -0.0640 -0.1173 -0.2481
45879W        W88791  30.225  32.967  27.707 -0.0239 -0.0754 -0.0964
45880W        W88792  28.952  32.719  25.323  0.1288 -0.2861  0.3093
45881W        W88793  32.413  34.129  26.197 -0.0663  0.0381 -0.0907
45882W        W88794  29.219  34.598  27.361  0.0116  0.0769  0.0464
45883W        W88795  29.628   0.030  25.993  0.1534 -0.0388 -0.1945
45884W        W88796  31.462  34.088  26.457  0.0400 -0.2500 -0.0177
45885W        W88797  30.691   0.156  23.973  0.0352  0.0729  0.0238
45886W        W88798  31.414  34.457  24.007  0.0944  0.0289  0.4100
45887W        W88799  29.741  32.079  26.297 -0.2264 -0.1653  0.0628
45888W        W88800  30.726   0.529  25.097  0.3234 -0.0543 -0.0164
45889W        W88801  31.542   0.580  25.594 -0.0630 -0.1740 -0.2231
45890W        W88802  33.166  34.570  27.748  0.4165 -0.0823  0.1672
45891W        W88803  30.369   0.201  25.267  0.0908  0.2871  0.3978
45892W        W88804  31.467  33.415  25.532  0.4464  0.0511  0.1178
45893W        W88805  30.207  33.118  28.202  0.0164  0.3548  0.0676
45894W        W88806  32.610  33.747  27.439  0.4665 -0.1167 -0.2803
45895W        W88807  31.909   0.434  28.020  0.0452  0.0357  0.1684
45896W        W88808  29.702  33.316  28.160 -0.0920  0.0145  0.0135
45897W        W88809  29.186  32.665  29.122 -0.0651  0.2397 -0.2386
45898W        W88810  30.705   0.698  28.145 -0.3114 -0.1963  0.0806
45899W        W88811  31.201  33.863  29.604  0.0938  0.0261 -0.1370
45900W        W88812  30.277  33.806  27.283 -0.0719 -0.1322 -0.1165
45901W        W88813  29.208  32.396  30.769  0.2880 -0.1948  0.1450
45902W        W88814  33.241  34.311  30.613 -0.3842  0.1904  0.5018
45903W        W88815  30.310   0.088  27.524 -0.1912 -0.1485 -0.1523
45904W        W88816  30.728  34.508  29.713 -0.4179 -0.1369  0.1090
45905W        W88817  31.185  33.396  27.491 -0.1643 -0.3845  0.0353
45906W        W88818  30.598  33.955  29.964 -0.2774 -0.1643  0.0862
45907W        W88819  31.932  32.896  30.506 -0.1215  0.0090 -0.1941
45908W        W88820  29.489  33.171  29.287 -0.1285  0.1996 -0.0885
45909W        W88821  30.195  33.396  28.981  0.3668 -0.1127  0.1781
45910W        W88822  30.705  34.228  30.655 -0.2533 -0.0890  0.3124
45911W        W88823  32.948  33.292  28.648 -0.0402  0.0996  0.0792
45912W        W88824  32.437  34.304  27.395 -0.2685 -0.1199 -0.0110
45913W        W88825  32.983   0.342  30.364 -0.1100 -0.0390  0.1470
45914W        W88826  30.477   0.181  30.316  0.0893  0.0969  0.1488
45915W        W88827  31.185   1.327  28.670 -0.1146  0.1826 -0.1502
45916W        W88828  33.397  33.340   0.529 -0.4573 -0.1381 -0.0658
45917W        W88829  31.561   0.403  29.465 -0.5543  0.1879 -0.0962
45918W        W88830  31.319  32.939  27.199 -0.2229 -0.1038 -0.1829
45919W        W88831  32.013   0.252  28.461 -0.0533 -0.1472 -0.1506
45920W        W88832  31.214   0.658  29.949 -0.1200  0.3210 -0.1638
45921W        W88833  30.373  33.194  29.556 -0.0781 -0.0414  0.2526
45922W        W88834  31.967  33.514  28.021  0.0931  0.2873  0.1212
45923W        W88835  32.713  34.111  30.597 -0.1233 -0.0628  0.1377
45924W        W88836  30.778   0.380  29.818  0.0935  0.3548  0.1178
45925W        W88837  29.750  33.801  29.003 -0.1847 -0.0368 -0.4398
45926W        W88838  28.485  34.198  30.896  0.0321 -0.2716  0.1656
45927W        W88839  29.543  34.214  29.270 -0.1378 -0.3811 -0.0539
45928W        W88840  30.207  32.161  25.885  0.0221  0.0678 -0.0891
45929W        W88841  33.121  33.332  29.567 -0.1756  0.3039  0.1509
45930W        W88842  32.220  33.997  27.758 -0.2443  0.0501 -0.1666
45931W        W88843  31.945  33.475  30.615  0.1179  0.2400 -0.1044
45932W        W88844  34.193   0.522  28.766 -0.2210  0.0679 -0.0169
45933W        W88845  31.026  33.942  31.037 -0.1219  0.1846  0.0491
45934W        W88846  29.224  34.248  30.614  0.1950 -0.1433 -0.2108
45935W        W88847  33.453  33.921  28.263  0.0674  0.1533 -0.0078
45936W        W88848  29.520  34.011  30.154  0.1309 -0.1277  0.1935
45937W        W88849  31.822  33.547  30.125 -0.0161 -0.0527  0.1051
45938W        W88850  33.014  33.766  28.423  0.1076  0.1790 -0.0482
45939W        W88851  29.784  34.661  29.460  0.0530 -0.3209 -0.1265
45940W        W88852  31.211  34.481  30.717  0.4044 -0.1021  0.1058
45941W        W88853  30.793  33.046  31.108  0.1839 -0.3856 -0.1453
45942W        W88854  29.630  33.602  31.238  0.0123 -0.0999 -0.4390
45943W        W88855  31.526  33.992  29.095 -0.2049 -0.2341 -0.4924
45944W        W88856  29.650  32.758  28.492  0.0334  0.0837  0.3872
45945W        W88857  31.817  34.436  30.706  0.0230  0.3250  0.1808
45946W        W88858  30.499  34.612  28.348  0.0479  0.0230 -0.1876
45947W        W88859  32.492  33.181  31.411 -0.1884 -0.3892  0.3706
45948W        W88860  30.024  33.264  29.971 -0.0712  0.1264  0.4203
45949W        W88861  30.702  32.780  26.491  0.1512  0.1312  0.0136
45950W        W88862  30.654  33.327  29.121 -0.0744  0.1219 -0.1498
45951W        W88863  33.409  33.170  31.619 -0.3454  0.0202  0.2519
45952W        W88864  31.071  34.232  29.237  0.0681  0.4200  0.2347
45953W        W88865  30.245  33.481  27.714  0.0260  0.2676  0.2256
45954W        W88866  28.761   0.535  29.399 -0.1045 -0.0670  0.2566
45955W        W88867  33.256  34.445  29.507  0.0532 -0.3613  0.1151
45956W        W88868  29.381  34.458  31.564  0.0856 -0.0895  0.0341
45957W        W88869  33.318  33.489  31.280 -0.1589 -0.0269 -0.1351
45958W        W88870  30.487  34.276  27.388  0.2886 -0.0100 -0.0056
45959W        W88871  31.992  32.487  27.908 -0.0826 -0.1064 -0.2364
45960W        W88872  33.223  34.224  28.663  0.4458 -0.2495  0.0948
45961W        W88873  31.828  34.023  28.067 -0.1705  0.0694 -0.1554
45962W        W88874  32.801   0.261  27.865  0.2205 -0.1181 -0.0509
45963W        W88875  30.985  33.345  28.639  0.0275 -0.2585 -0.0377
45964W        W88876  30.616  32.737  29.404 -0.1822 -0.0851 -0.2294
45965W        W88877  30.061  34.092  27.703  0.1635 -0.3233  0.0592
45966W        W88878  31.434  34.467  30.269  0.3067 -0.1368  0.1404
45967W        W88879  33.642  34.089  30.680  0.1018  0.2653  0.0726
45968W        W88880  32.637  33.392  29.022  0.4447  0.2394 -0.2999
45969W        W88881  30.239  32.795  29.738  0.0362  0.2144 -0.1963
45970W        W88882  33.651  34.449  29.821  0.0569  0.0992 -0.3469
45971W        W88883  31.794  34.221  29.448 -0.1117  0.0122 -0.3087
45972W        W88884  31.504  33.985  30.038 -0.1201  0.3955  0.2783
45973W        W88885  30.519   1.219  26.420 -0.3050 -0.0767 -0.3795
45974W        W88886  32.326  32.630  30.934  0.0923  0.0480  0.0500
45975W        W88887  31.259  33.839  30.487 -0.0217 -0.0675  0.0129
45976W        W88888  31.139  33.841  28.533  0.1147 -0.3083 -0.3713
45977W        W88889  32.055   0.202  29.761 -0.1696  0.1155  0.1707
45978W        W88890  32.861  33.737  30.069  0.0496  0.4809  0.0375
45979W        W88891  30.622  34.298  26.952  0.3298 -0.1319 -0.1382
45980W        W88892  28.365  32.753  27.404 -0.1558 -0.0628  0.0260
45981W        W88893  31.640  33.102  30.901 -0.0212  0.0439 -0.0836
45982W        W88894  28.721  32.608  29.345 -0.2708 -0.0066 -0.0142
45983W        W88895  31.976  34.665  29.283 -0.0625 -0.2425  0.2659
45984W        W88896  33.022   1.231  30.605 -0.0115 -0.3633 -0.0052
45985W        W88897  31.445  34.392  27.754  0.1689  0.1211 -0.0404
45986W        W88898  30.555  34.239  31.169  0.2340  0.0864 -0.0514
45987W        W88899  28.911  33.460  28.075 -0.1532 -0.2517 -0.1294
45988W        W88900  33.399  33.583  29.287 -0.0282 -0.2466  0.0516
45989W        W88901  30.867  33.911  28.169 -0.0015  0.1754 -0.0935
45990W        W88902  29.793  34.473  28.296  0.1709 -0.0947  0.2027
45991W        W88903  28.451  34.257  31.921  0.2553  0.0541  0.1920
45992W        W88904  30.274  33.622  29.755  0.0954  0.3472  0.3907
45993W        W88905  30.642  33.675  28.783  0.0181 -0.0604  0.0999
45994W        W88906  31.992  33.842  29.015 -0.0218 -0.2205 -0.0235
45995W        W88907  30.921  34.621  30.164  0.0213  0.0246 -0.0016
45996W        W88908  32.892  32.135  30.242 -0.0838  0.0146  0.2149
45997W        W88909  31.451   0.241  30.896 -0.0631 -0.0130  0.0202
45998W        W88910  32.391  33.693  28.715  0.1733  0.0262 -0.0375
45999W        W88911  33.562  33.990  27.670  0.0923  0.1914 -0.0915
46000W        W88912  30.859  33.526  29.494  0.0490  0.1381  0.2780
46001W        W88913  33.529  33.692  31.706  0.2380  0.0604 -0.2294
46002W        W88914  31.616  33.945  28.601  0.3549  0.0049  0.0189
46003W        W88915  32.860  32.810  31.717  0.0753 -0.2733  0.1415
46004W        W88916  30.017  33.609  28.509  0.0982 -0.0215 -0.2012
46005W        W88917  29.073  33.078  30.083 -0.2436  0.0455  0.1063
46006W        W88918  30.271  33.908  31.526 -0.0508  0.0902  0.0009
46007W        W88919  31.683  33.579  29.327  0.1141  0.1118  0.2272
46008W        W88920  30.574  33.072  28.518 -0.0963  0.2314 -0.1057
46009W        W88921  30.317   0.232  31.783 -0.1145  0.0448  0.0271
46010W        W88922  32.367  33.045  29.900  0.0191  0.3792  0.0808
46011W        W88923  29.702  34.269  28.757  0.0181  0.0171  0.0052
46012W        W88924  33.295  34.690  30.158  0.0906  0.0359  0.1974
46013W        W88925  30.978  32.349  29.622  0.1820 -0.1902 -0.1646
46014W        W88926  31.281  33.221  29.234 -0.1717  0.0980  0.2551
46015W        W88927  32.989  33.052  31.286 -0.0160 -0.0581 -0.4434
46016W        W88928  32.732  32.403  30.624  0.0069 -0.3171  0.0652
46017W        W88929  31.637   0.507  31.330  0.2040 -0.0205  0.0915
46018W        W88930  29.497  34.631  30.644  0.0832  0.0392 -0.1975
46019W        W88931  34.101  34.288  27.656  0.0426 -0.0765 -0.1655
46020W        W88932  31.656  33.036  30.143  0.0091  0.1832 -0.2172
46021W        W88933  32.307  33.186  29.360  0.1165  0.3209  0.1249
46022W        W88934  31.047  33.405  28.121  0.0569  0.1662 -0.4852
46023W        W88935  29.725   0.474  28.674  0.0213  0.1570  0.1252
46024W        W88936  32.900   0.410  30.937  0.4923  0.0127  0.1750
46025W        W88937  31.159  32.957  27.901 -0.1037  0.0119  0.1808
46026W        W88938  32.060  32.984  31.130  0.1517 -0.1322 -0.1184
46027W        W88939  32.294   0.152  27.522  0.1836  0.0931  0.0885
46028W        W88940  29.623  33.379  28.839 -0.2350  0.0742 -0.1219
46029W        W88941  28.521  33.090  27.745 -0.2272  0.1335  0.0781
46030W        W88942  31.223  34.668  28.368  0.0865 -0.1144  0.1783
46031W        W88943  32.497  32.404  27.797 -0.1813 -0.2083 -0.1619
46032W        W88944  33.905  33.825  29.923 -0.1942 -0.0022  0.2253
46033W        W88945  32.276  33.522  29.970  0.0848  0.1498 -0.0405
46034W        W88946  31.052  34.147  30.171 -0.1628 -0.2301  0.0013
46035W        W88947  32.789  33.702  31.159  0.0749  0.1705 -0.4577
46036W        W88948  31.883  34.504  30.202 -0.1000 -0.1747 -0.0913
46037W        W88949   0.217  33.307  31.057  0.0988  0.1757  0.0533
46038W        W88950  29.883   0.046  28.903 -0.0191  0.0281  0.1307
46039W        W88951  29.396   0.059  31.167 -0.0176  0.5184 -0.1238
46040W        W88952  31.503  33.284  27.902  0.0968  0.4037 -0.0345
46041W        W88953  30.566  33.544  28.283 -0.0272 -0.0632  0.1021
46042W        W88954  32.683  32.892  26.646  0.0272 -0.2187  0.1372
46043W        W88955  32.777  34.523  28.496  0.2093  0.0413  0.1694
46044W        W88956  32.533  33.911  29.760 -0.3049 -0.2687  0.1199
46045W        W88957  31.518  34.098  30.888 -0.2829  0.0185 -0.0192
46046W        W88958  32.091  33.389  28.969 -0.2498  0.4323  0.0453
46047W        W88959  30.323  33.719  31.980  0.2401 -0.1501  0.3540
46048W        W88960  33.031  32.806  30.844  0.1633  0.1743 -0.1373
46049W        W88961  30.320  32.086  27.362 -0.3213  0.2348  0.2186
46050W        W88962  30.690  34.074  29.487  0.0706 -0.2683 -0.0520
46051W        W88963  33.763  33.651  30.442 -0.2269 -0.1392  0.1695
46052W        W88964  33.209  34.651  28.953 -0.0018 -0.0556  0.0549
46053W        W88965  30.413  32.901  28.952  0.0741 -0.4978  0.0697
46054W        W88966   0.114  33.217  28.950  0.0584  0.1412  0.0375
46055W        W88967  30.269  34.298  29.695  0.0818 -0.1508  0.0228
46056W        W88968  33.492  33.963  29.705 -0.1274  0.1419  0.1895
46057W        W88969  30.828  34.625  27.636  0.0127 -0.3388 -0.0883
46058W        W88970  31.428  34.608  29.290 -0.1344 -0.0344  0.3120
46059W        W88971  30.139  33.464  31.289 -0.3016  0.4536 -0.0286
46060W        W88972  31.228  33.802  27.816  0.2444 -0.1178  0.1582
46061W        W88973  32.472   0.184  29.497 -0.2483  0.3240 -0.2544
46062W        W88974  31.619  33.909  27.441  0.2116 -0.1281 -0.0743
46063W        W88975  30.519  34.115  28.454  0.0576 -0.3132 -0.0793
46064W        W88976  31.982  33.019  27.809 -0.0478 -0.0278  0.0776
46065W        W88977  29.073  34.220  29.462  0.3591  0.0680 -0.0934
46066W        W88978  29.107  34.215  31.133  0.1154 -0.1994  0.0537
46067W        W88979  29.920  33.496  29.384  0.0126 -0.2193  0.0382
46068W        W88980  33.177  33.147  29.113 -0.0345 -0.3563  0.3028
46069W        W88981  32.122  33.799  29.477 -0.0866  0.1014  0.0475
46070W        W88982  29.536  34.306  29.766  0.1681  0.2140  0.0291
46071W        W88983  31.512  33.473  28.843 -0.0412  0.0070 -0.1522
46072W        W88984  31.472  32.600  30.445 -0.0817  0.3007 -0.0143
46073W        W88985  32.309  34.544  28.780  0.1142  0.1096 -0.3453
46074W        W88986  33.697  33.508  30.967 -0.2750  0.0196 -0.0431
46075W        W88987  33.183  33.029   0.090 -0.3547 -0.1574  0.1491
46076W        W88988  31.122  33.739  29.097  0.1779  0.0483  0.1302
46077W        W88989  31.470  33.432  29.782 -0.1759  0.2071  0.2978
46078W        W88990  32.833  33.242  27.370  0.1991 -0.0340 -0.2420
46079W        W88991  32.045  34.014  29.993  0.1393  0.0579  0.0865
46080W        W88992  30.526  33.020  31.523  0.1646 -0.4302  0.1180
46081W        W88993  30.288  34.486  28.834  0.3062  0.0577  0.0032
46082W        W88994  31.445  33.617  30.924 -0.0049  0.0780  0.1785
46083W        W88995  29.585  33.834  30.727  0.1879  0.5012  0.5305
46084W        W88996  29.280   0.547  29.378  0.0816 -0.2216 -0.0915
46085W        W88997  31.617  32.151  28.279  0.2822 -0.0417 -0.1407
46086W        W88998  30.311  33.984  30.458  0.3295 -0.1601 -0.1382
46087W        W88999  29.413  33.495  30.270 -0.1803 -0.0139  0.1725
46088W        W89000  31.021  32.914  28.409  0.1764  0.0426  0.0502
46089W        W89001  31.999  33.874  30.941  0.0107 -0.0059  0.2314
46090W        W89002  30.167  34.526  31.470  0.0059 -0.0734  0.0066
46091W        W89003  30.017  33.037  28.719 -0.0861  0.1990  0.0278
46092W        W89004  32.732  34.318  29.495  0.3239 -0.0749 -0.2098
46093W        W89005  28.688  32.433   0.465 -0.2875  0.3493 -0.2796
46094W        W89006  32.776  32.973  29.299  0.1139  0.0333 -0.0749
46095W        W89007  31.350  34.142  28.160  0.1192  0.0260  0.2030
46096W        W89008  28.871  33.747  31.159 -0.1488  0.4358 -0.0412
46097W        W89009  29.653  32.755  28.989  0.0515 -0.1948 -0.0744
46098W        W89010  31.762  34.657  28.107 -0.1472 -0.0000 -0.0792
46099W        W89011  31.196   0.064  29.765  0.2126 -0.0793  0.1383
46100W        W89012  30.433  34.401  27.905 -0.2109  0.2056 -0.0415
46101W        W89013  32.780  34.611  30.480 -0.0082  0.0937 -0.2238
46102W        W89014  30.133   0.255  28.516 -0.0473  0.2709 -0.0430
46103W        W89015  31.830  33.998  30.470  0.0157 -0.0146 -0.1443
46104W        W89016  28.715  32.229  30.535 -0.0042  0.1573 -0.0351
46105W        W89017  30.821   0.634  28.979  0.0168  0.2318 -0.1559
46106W        W89018  31.325  34.313  28.781  0.1938 -0.1818  0.0946
46107W        W89019  33.181  33.285  30.880  0.0219 -0.1482 -0.2506
46108W        W89020  30.306   0.609  29.924 -0.4357  0.2993 -0.2295
46109W        W89021  32.069  33.976  28.503 -0.1512  0.1146 -0.1524
46110W        W89022  31.167  33.432  31.340 -0.5344  0.0814 -0.1813
46111W        W89023  30.964  33.947   0.124  0.1886 -0.0884 -0.0209
46112W        W89024  29.384  33.976  31.494 -0.3047  0.0813  0.3289
46113W        W89025  32.704  33.828  31.621 -0.1320  0.1095 -0.0289
46114W        W89026  30.528  34.113   0.357 -0.3695  0.4117 -0.0327
46115W        W89027  32.848  34.330  31.565 -0.3033  0.2622 -0.1499
46116W        W89028  29.001  33.919  30.321  0.1150 -0.2125 -0.2228
46117W        W89029  33.138   0.184  31.863 -0.0358  0.0243  0.0823
46118W        W89030  29.935  32.835   0.603  0.1974 -0.4561  0.1848
46119W        W89031  28.518  33.041  30.358 -0.1851 -0.0630 -0.2996
46120W        W89032  30.801  32.407  31.096 -0.1230  0.0619 -0.0503
46121W        W89033  33.532  33.039  31.145  0.1047  0.1864 -0.1702
46122W        W89034  32.611  33.056  30.893  0.1742 -0.1695 -0.0798
46123W        W89035  31.175  32.990  30.748 -0.1700 -0.0542  0.1809
46124W        W89036  32.335  33.516  31.710  0.1587 -0.1385  0.1950
46125W        W89037  31.336  34.579  31.567 -0.0849 -0.2028  0.1585
46126W        W89038  31.632  34.246  31.789 -0.1630 -0.3300 -0.4342
46127W        W89039  31.260  33.834  31.638  0.1912  0.0480  0.0156
46128W        W89040  33.194  33.563   0.094  0.1353 -0.4991 -0.0966
46129W        W89041  29.875  33.973  31.985  0.0581 -0.1143 -0.1492
46130W        W89042  30.995  34.405  31.201 -0.0668 -0.0248 -0.0731
46131W        W89043  32.154  34.516  31.911  0.0567  0.1404  0.0281
46132W        W89044  31.426  33.380  30.481 -0.0622 -0.1502  0.0097
46133W        W89045  30.813  33.212  30.449  0.1800  0.0938  0.1241
46134W        W89046  30.043  33.611  30.821  0.0675  0.0976  0.1853
46135W        W89047  30.109  33.801   0.485 -0.2102  0.2540 -0.0075
46136W        W89048  32.650  31.703  29.909 -0.1373 -0.1272 -0.1046
46137W        W89049  32.991  34.537   0.171  0.2217  0.1533 -0.4016
46138W        W89050  30.692  33.713  31.406 -0.0329 -0.1996  0.0988
46139W        W89051  31.082  33.539   0.501 -0.1779  0.0605  0.1224
46140W        W89052  33.236  34.461  31.083 -0.0280 -0.0516  0.1962
46141W        W89053  28.947  33.788  31.833  0.0740 -0.0177 -0.0549
46142W        W89054  29.475  33.297  30.874  0.1278  0.0323 -0.0381
46143W        W89055  33.418  34.421  31.546  0.2084 -0.3215 -0.0381
46144W        W89056  33.735   2.345  20.283  0.1010  0.2542 -0.1512
46145W        W89057  33.875   2.373  17.325 -0.1378  0.0025  0.1169
46146W        W89058  32.477   1.918  17.906 -0.1025  0.0252  0.3571
46147W        W89059  31.141  33.851  19.523 -0.4407 -0.0492 -0.2717
46148W        W89060  33.413   2.058  20.577 -0.0922  0.1905  0.0584
46149W        W89061  33.617   3.276  19.072  0.0028 -0.0173 -0.0563
46150W        W89062  33.621   0.180  16.161  0.4009  0.0086  0.1226
46151W        W89063  33.352  33.562  18.015  0.1143  0.4535 -0.0539
46152W        W89064  34.641   2.003  16.912 -0.1706 -0.2274 -0.3365
46153W        W89065  34.069   0.367  19.161 -0.0848 -0.1466 -0.1980
46154W        W89066   0.069   0.564  18.265 -0.0120  0.1839  0.1679
46155W        W89067  33.326   0.607  20.525  0.3341 -0.0092  0.1009
46156W        W89068  32.983   1.917  17.752 -0.6159 -0.1188 -0.0502
46157W        W89069  33.250   1.988  16.286  0.2318  0.3130 -0.0219
46158W        W89070  32.786   2.939  19.153  0.0034 -0.0818  0.2095
46159W        W89071  32.889   1.638  19.132  0.1434  0.3553  0.0048
46160W        W89072  34.697   4.560  18.012 -0.1991 -0.0113 -0.0430
46161W        W89073  34.529   4.075  18.208  0.2296  0.0787  0.2582
46162W        W89074  32.365   0.751  18.016  0.2906 -0.2098 -0.0232
46163W        W89075  33.506   2.779  18.357  0.0006 -0.2559  0.1455
46164W        W89076  34.354   2.186  17.408  0.4982 -0.0274  0.2369
46165W        W89077  33.544   5.292  20.112  0.4833  0.0482  0.1800
46166W        W89078  33.376   3.634  16.975  0.0565  0.2776 -0.0878
46167W        W89079  34.244   3.283  18.757  0.1596 -0.2659  0.5734
46168W        W89080  34.219   3.129  16.890 -0.1703  0.2212 -0.2351
46169W        W89081   0.590   2.411  18.953 -0.3669  0.0488 -0.3367
46170W        W89082  32.947   1.686  21.543  0.0809 -0.2201  0.2649
46171W        W89083  31.068   2.269  18.406 -0.1691  0.0973  0.0030
46172W        W89084  33.597   1.919  17.167 -0.0647  0.0373 -0.1800
46173W        W89085  33.856   1.328  16.031  0.1642  0.0300 -0.0286
46174W        W89086   0.744   1.205  18.108  0.1080 -0.1809  0.1245
46175W        W89087  33.366   2.387  17.991  0.1012  0.1462 -0.0058
46176W        W89088  34.657   1.310  19.192  0.3361 -0.1751  0.1012
46177W        W89089  33.791   1.786  18.817 -0.0172  0.0468  0.0116
46178W        W89090  32.622   1.950  17.384 -0.0713  0.1131 -0.1055
46179W        W89091  32.451   1.368  16.685 -0.0644 -0.0735  0.0961
46180W        W89092  32.100   2.339  19.143 -0.2328 -0.0481 -0.4925
46181W        W89093  31.969   1.839  19.906 -0.3355 -0.0466  0.0372
46182W        W89094  33.708   1.058  16.425  0.0137 -0.1836  0.0481
46183W        W89095  32.786   3.546  18.947 -0.2223  0.1745  0.3309
46184W        W89096  34.370   2.408  18.549 -0.1651 -0.0562  0.2645
46185W        W89097  33.588   0.482  17.219  0.1438  0.0958  0.1265
46186W        W89098  34.415   0.920  18.256 -0.5460  0.1242  0.1134
46187W        W89099  33.076   2.583  18.823  0.2338 -0.1016  0.2036
46188W        W89100  34.006   0.939  19.935  0.1504  0.1113  0.1206
46189W        W89101  33.659   1.570  19.777  0.1556 -0.0228  0.0182
46190W        W89102  33.869   3.310  17.157 -0.1946  0.0200  0.0082
46191W        W89103  31.177   1.566  19.339  0.1811 -0.0315  0.3341
46192W        W89104  33.677   3.267  16.707  0.0058 -0.2185 -0.0817
46193W        W89105  34.199   0.442  18.244  0.0119  0.2454 -0.0776
46194W        W89106  33.857   2.962  18.751 -0.1735 -0.0848  0.0320
46195W        W89107  33.006   1.213  18.875  0.2769  0.0689  0.1547
46196W        W89108  32.926   2.356  17.498 -0.0268  0.0577 -0.2159
46197W        W89109  32.956   0.733  19.159 -0.0774 -0.2871 -0.3099
46198W        W89110  34.264   1.136  18.887 -0.1595  0.0602 -0.1401
46199W        W89111  32.057   0.300  19.444 -0.3642  0.0213  0.0768
46200W        W89112  33.353   1.116  17.698 -0.1142  0.1133 -0.1339
46201W        W89113  33.065   0.524  16.177 -0.2994  0.2181  0.0122
46202W        W89114  34.449   0.822  19.244  0.1138 -0.4815  0.0771
46203W        W89115  32.911   1.682  16.885 -0.0679  0.0978  0.3673
46204W        W89116   0.299   1.071  19.792  0.2084 -0.1602 -0.0466
46205W        W89117  33.234   0.280  17.471  0.0726  0.0795  0.0661
46206W        W89118  33.225   1.694  18.704  0.2495 -0.0343 -0.1728
46207W        W89119   0.039   1.673  19.645 -0.0449 -0.2485  0.0265
46208W        W89120  34.376   0.676  16.859 -0.0086  0.0279  0.2777
46209W        W89121  33.723   2.281  19.055  0.0191 -0.2003 -0.0513
46210W        W89122  32.785   1.198  16.373  0.1794  0.0497 -0.0098
46211W        W89123   0.405   2.281  16.810 -0.0038 -0.0648  0.1918
46212W        W89124  32.444   0.031  17.316 -0.0328  0.0699  0.0165
46213W        W89125   0.105   3.654  17.966  0.1075  0.0243 -0.0130
46214W        W89126  31.715   1.421  19.070  0.2306  0.1233  0.2290
46215W        W89127  33.047   2.047  18.268 -0.1098 -0.0307 -0.0869
46216W        W89128  33.338   4.058  20.411  0.1025 -0.0478 -0.2638
46217W        W89129  33.173   3.034  20.246 -0.1737  0.2498 -0.0805
46218W        W89130   0.052   0.921  16.993  0.0970  0.0074  0.3322
46219W        W89131   0.602   2.227  18.277 -0.1428 -0.0385 -0.1973
46220W        W89132  32.298   1.766  18.329 -0.0966 -0.1726 -0.0996
46221W        W89133  34.430   0.269  18.810  0.0237 -0.1613  0.2222
46222W        W89134  33.223   1.079  16.666 -0.5245 -0.3583  0.1465
46223W        W89135  32.964   2.753  16.549  0.1021  0.1977  0.4590
46224W        W89136  34.137  34.589  19.981 -0.0656 -0.4188 -0.2169
46225W        W89137  33.524   2.783  16.689 -0.0875 -0.2828  0.1820
46226W        W89138   0.225  34.666  20.401  0.2294  0.1334  0.2696
46227W        W89139  32.552   0.369  19.506 -0.0647 -0.0634  0.1645
46228W        W89140  32.161   2.837  18.499 -0.1113 -0.1001  0.1954
46229W        W89141   0.822   0.380  20.092 -0.2205 -0.3888  0.1164
46230W        W89142   0.246   1.707  17.216 -0.0885 -0.0976  0.0341
46231W        W89143  34.183   2.245  16.481  0.1021 -0.0230 -0.1237
46232W        W89144  33.293  34.318  19.088  0.1183 -0.1614  0.2482
46233W        W89145  34.393   3.354  18.100 -0.0373 -0.2452  0.1000
46234W        W89146  34.292   1.713  16.657  0.2718 -0.0387  0.0017
46235W        W89147   0.198   3.100  17.865  0.3043  0.1002  0.0368
46236W        W89148  32.894   3.283  17.760 -0.0751  0.0708 -0.1308
46237W        W89149  33.581   0.795  18.651  0.0732  0.1125 -0.1573
46238W        W89150  32.511   2.061  16.043  0.0138  0.0099  0.3092
46239W        W89151  33.657   0.640  19.604 -0.1267 -0.0479  0.3424
46240W        W89152   0.456   1.939  18.707 -0.1349  0.4218 -0.1240
46241W        W89153  32.063   3.844  19.076 -0.3956 -0.3923 -0.0430
46242W        W89154  33.761   1.809  19.358  0.2729  0.2035  0.0484
46243W        W89155  32.282   2.303  17.703  0.0370  0.3212  0.0324
46244W        W89156  33.055   1.192  19.410  0.0479  0.0502 -0.1288
46245W        W89157  33.829   2.857  17.563  0.2157  0.3629 -0.0627
46246W        W89158  33.222   0.624  16.888  0.2031 -0.2510 -0.0138
46247W        W89159  32.789   2.606  18.388 -0.0057 -0.2135  0.0553
46248W        W89160  32.949   1.561  19.894  0.0695  0.3122 -0.0170
46249W        W89161  34.174   0.507  19.813  0.0688  0.0003  0.2819
46250W        W89162   0.580  34.422  18.635  0.0600  0.0005  0.0770
46251W        W89163  34.616   1.396  18.659  0.0927  0.0952 -0.1616
46252W        W89164  33.837   1.409  20.246 -0.0405  0.3544  0.2342
46253W        W89165  33.186   3.529  20.361 -0.3555 -0.2908  0.0460
46254W        W89166  32.857   2.113  16.587  0.1833  0.0452 -0.0023
46255W        W89167  31.155   2.630  19.166  0.0752 -0.0625 -0.1647
46256W        W89168  34.261   2.895  18.417  0.1455  0.0109 -0.1866
46257W        W89169  32.864   0.868  20.277  0.3953 -0.4145  0.1901
46258W        W89170  33.926   1.645  18.023 -0.0193  0.1675 -0.3804
46259W        W89171  32.783   0.582  17.193 -0.2100 -0.1904  0.0918
46260W        W89172  32.479   3.932  18.766 -0.2288 -0.0388 -0.2743
46261W        W89173   0.452   0.224  19.436  0.0401  0.1720 -0.1079
46262W        W89174  34.157  34.320  19.462 -0.1687 -0.1875 -0.0385
46263W        W89175  33.093   1.339  18.382 -0.0696 -0.2415  0.0059
46264W        W89176  31.509   1.842  20.797  0.0972  0.0303 -0.1591
46265W        W89177  31.645   0.796  16.560  0.2426  0.0399  0.0553
46266W        W89178  34.272   1.967  18.073  0.1374  0.0733 -0.0686
46267W        W89179  34.640   1.916  18.906  0.2867 -0.4335 -0.1528
46268W        W89180  33.301   2.590  19.970 -0.1282  0.2673 -0.0561
46269W        W89181  33.950   1.912  17.604  0.0125  0.0756  0.3684
46270W        W89182  34.247   1.685  19.146 -0.0269  0.3214 -0.1387
46271W        W89183  33.592   0.907  20.226 -0.1442  0.3483  0.0141
46272W        W89184  34.508   0.958  19.737 -0.1330  0.0256 -0.2112
46273W        W89185  32.459   0.409  18.975 -0.2492  0.0874  0.1353
46274W        W89186  32.666  34.523  19.639 -0.1514  0.0570 -0.0626
46275W        W89187  32.184   1.696  16.361  0.2549  0.0084 -0.0871
46276W        W89188  34.234   2.535  16.876 -0.0423  0.1912 -0.2588
46277W        W89189  33.317   1.560  17.885 -0.1265 -0.2107  0.0320
46278W        W89190  33.633   2.824  20.289 -0.0890  0.1273  0.2478
46279W        W89191  32.752   3.181  16.440  0.1817 -0.0591  0.0094
46280W        W89192  33.546   1.738  18.344 -0.1053  0.4592 -0.0151
46281W        W89193   1.735   2.590  18.173  0.1615 -0.1198  0.0703
46282W        W89194  34.212   1.148  17.219 -0.1912  0.2875 -0.2640
46283W        W89195  33.473   1.954  17.712 -0.0860 -0.1531 -0.0739
46284W        W89196  32.782   3.797  17.610 -0.2515 -0.1619  0.0333
46285W        W89197  33.465   3.065  19.596 -0.2025  0.0531 -0.0108
46286W        W89198  33.453   2.196  18.566 -0.0184 -0.3394 -0.2780
46287W        W89199  34.001   1.053  17.972  0.0802 -0.0211  0.0634
46288W        W89200  33.988   2.255  19.458  0.0441 -0.1891 -0.1284
46289W        W89201  33.853   2.105  18.267  0.0035 -0.0171  0.0757
46290W        W89202  32.685   0.914  21.324 -0.1752 -0.1082  0.0045
46291W        W89203  33.848   0.110  18.729 -0.0441  0.0102 -0.0888
46292W        W89204  31.647   5.051  20.594  0.0727  0.0586 -0.2745
46293W        W89205  33.086   3.115  18.797 -0.0116 -0.0674 -0.2264
46294W        W89206  33.109   4.540  16.964 -0.1790  0.4955 -0.0555
46295W        W89207  34.629   1.394  16.949  0.1544  0.0641 -0.3537
46296W        W89208  34.184   2.634  18.988 -0.0918  0.0777 -0.0606
46297W        W89209  31.636   2.337  16.416  0.0176 -0.0572 -0.0714
46298W        W89210  33.993   2.888  16.498 -0.1648  0.1654 -0.1112
46299W        W89211   0.281   0.826  19.277 -0.0405  0.4634  0.0398
46300W        W89212  34.567   0.153  16.578  0.0092  0.0429 -0.4089
46301W        W89213  33.894   1.015  21.161 -0.3209  0.2452  0.0623
46302W        W89214  33.403   2.422  19.457  0.1150  0.0090  0.3022
46303W        W89215  33.359   1.128  17.198 -0.2446  0.1173  0.1505
46304W        W89216  33.068   0.248  19.650 -0.1431  0.1447 -0.0657
46305W        W89217   0.129   1.388  16.435 -0.1144 -0.1169  0.4908
46306W        W89218  32.759   4.767  17.680  0.0375  0.0908 -0.1812
46307W        W89219  34.635   2.967  18.818  0.0689  0.1739 -0.2286
46308W        W89220  33.464   3.388  18.455 -0.0886  0.1936  0.0986
46309W        W89221  32.873   1.152  17.365 -0.0058  0.0396 -0.0977
46310W        W89222  33.803   0.363  20.256  0.0971  0.1179 -0.1159
46311W        W89223  33.890   1.527  16.985  0.0510  0.1378  0.1067
46312W        W89224  32.565   2.058  19.154  0.0692  0.1454 -0.2751
46313W        W89225  34.179   1.211  19.488 -0.3275  0.0777  0.1413
46314W        W89226  32.976  34.342  17.632 -0.2187  0.2067 -0.2464
46315W        W89227  33.318   1.230  19.888  0.2480  0.0529 -0.2384
46316W        W89228  33.303   0.607  19.999  0.0320  0.0784 -0.3259
46317W        W89229  34.171  34.099  18.056  0.2958 -0.0020 -0.1079
46318W        W89230  34.527   1.345  18.062 -0.0199 -0.0876 -0.0673
46319W        W89231  33.218   0.793  18.199  0.2027  0.1392  0.0796
46320W        W89232   0.502   1.156  17.196  0.1289  0.0986  0.0449
46321W        W89233  33.505   1.281  18.660  0.2910 -0.0863  0.0000
46322W        W89234  32.468   1.856  16.781  0.2242 -0.0321  0.1735
46323W        W89235  33.572   3.083  16.268  0.0761  0.1604  0.1659
46324W        W89236   0.257   1.051  18.815  0.0039 -0.0532 -0.1411
46325W        W89237  33.584   2.154  19.834  0.1582  0.1512  0.1835
46326W        W89238  33.417   2.443  17.404 -0.0850 -0.2871  0.0772
46327W        W89239  33.439   1.774  20.173  0.1178  0.2184 -0.0279
46328W        W89240   0.268   2.511  17.973  0.1463 -0.2024 -0.0503
46329W        W89241  33.427   3.492  17.569  0.1836  0.0214 -0.3153
46330W        W89242   0.885   0.904  18.623  0.2335  0.0440 -0.1092
46331W        W89243  34.594   0.764  18.749 -0.2474 -0.1362 -0.1393
46332W        W89244  33.664   0.176  20.690 -0.0332  0.2739  0.1324
46333W        W89245  31.856   1.887  19.127 -0.1560 -0.0807 -0.0373
46334W        W89246  33.272   2.403  16.842  0.0732  0.1968  0.3270
46335W        W89247  32.749   1.619  18.147  0.1322 -0.1570  0.0058
46336W        W89248  32.477   0.895  19.315  0.0381 -0.3443 -0.3922
46337W        W89249  33.009   2.033  20.049  0.1598  0.2690  0.0497
46338W        W89250  34.151  34.611  16.839  0.0300 -0.1796 -0.2181
46339W        W89251   0.843  33.950  18.520 -0.0640  0.0850  0.0198
46340W        W89252  32.915   0.153  17.016  0.2055  0.0600  0.2238
46341W        W89253   0.590   0.686  18.281  0.1498  0.0812  0.1005
46342W        W89254  33.025   2.855  17.369  0.0801 -0.1456  0.2190
46343W        W89255   1.119   0.658  20.429 -0.3231  0.1607 -0.1264
46344W        W89256  34.526  34.415  20.269 -0.2143  0.0914 -0.1519
46345W        W89257  33.102   2.034  17.186 -0.3207  0.1494 -0.3172
46346W        W89258  32.553   1.115  19.836 -0.1371  0.0411 -0.0400
46347W        W89259  33.175   1.888  19.591 -0.4261 -0.1233  0.2427
46348W        W89260   0.444   1.534  20.002  0.1212  0.0519 -0.0255
46349W        W89261  32.886  34.146  19.898  0.0188  0.0527 -0.1435
46350W        W89262  34.029   3.033  20.687 -0.3732 -0.0471  0.0713
46351W        W89263  32.960  34.603  20.071  0.0035  0.2573 -0.0118
46352W        W89264  32.869   2.422  19.757  0.2277 -0.3171  0.0740
46353W        W89265   0.211   1.056  18.245 -0.1308 -0.2780  0.2293
46354W        W89266  33.879   1.413  19.065  0.0314 -0.0068  0.1518
46355W        W89267   0.399   1.181  17.723  0.0925 -0.0124 -0.0276
46356W        W89268  34.334   0.971  20.688 -0.2714  0.0427 -0.1635
46357W        W89269  33.422   1.526  16.898 -0.0290 -0.3873  0.0584
46358W        W89270  34.396   3.108  19.275  0.0164 -0.4174 -0.1117
46359W        W89271  34.172   0.332  17.176  0.1788 -0.0264 -0.2491
46360W        W89272  34.654   2.067  17.774  0.1398  0.1249  0.1211
46361W        W89273  33.422   0.975  19.121  0.0391 -0.0906  0.1268
46362W        W89274   0.212  34.090  18.730  0.0929 -0.2034  0.0834
46363W        W89275  34.048   3.547  19.259  0.1182 -0.2080  0.0178
46364W        W89276  33.629   2.146  23.038  0.2905 -0.0332  0.0476
46365W        W89277  32.967   0.249  22.468 -0.1277 -0.0166 -0.0759
46366W        W89278  32.859   0.660  20.867 -0.3004 -0.1355  0.2814
46367W        W89279  31.801  33.591  23.238 -0.2599  0.1630 -0.2094
46368W        W89280  33.665  34.632  23.196  0.1640 -0.1016  0.0624
46369W        W89281  33.658   2.870  21.976 -0.2897 -0.2182  0.1039
46370W        W89282  34.244   0.678  21.394 -0.0731  0.4429  0.0914
46371W        W89283  32.953  33.661  22.265 -0.1282  0.0047 -0.1360
46372W        W89284  34.166   2.158  20.730  0.0783  0.0391 -0.1567
46373W        W89285  33.908   1.635  21.654  0.0026 -0.1571  0.1382
46374W        W89286  34.491   1.889  23.850 -0.1325  0.0405  0.0988
46375W        W89287  33.990   0.611  24.269 -0.0971  0.1055 -0.0746
46376W        W89288  34.485   3.151  20.881  0.1421 -0.0509  0.1770
46377W        W89289  32.759   2.264  20.521 -0.0689 -0.2520  0.1188
46378W        W89290  32.700   1.914  22.311  0.3040 -0.1308 -0.0502
46379W        W89291  32.891   0.784  22.344  0.1574  0.0833 -0.0391
46380W        W89292  34.137   2.858  22.143 -0.4226  0.0025 -0.0786
46381W        W89293  33.438   3.667  22.269 -0.1281  0.0275  0.0363
46382W        W89294  33.490   2.657  21.180 -0.0078  0.1477 -0.3064
46383W        W89295  32.357   2.827  22.551 -0.2703 -0.2975 -0.0546
46384W        W89296  33.151   2.312  21.103 -0.2358  0.0002  0.2178
46385W        W89297  33.287   3.136  23.177 -0.0921 -0.1320  0.3888
46386W        W89298  32.171   2.913  20.835  0.2632 -0.1020  0.1436
46387W        W89299  33.928   1.954  24.804 -0.0089  0.1930 -0.5245
46388W        W89300  32.172   3.123  21.518  0.0679 -0.1062 -0.0491
46389W        W89301  33.184   1.720  22.109  0.0195  0.0919 -0.0141
46390W        W89302   0.246   2.942  22.405  0.1848  0.0056  0.0270
46391W        W89303  33.598   2.067  22.204 -0.1041  0.0313 -0.1722
46392W        W89304  32.559   1.702  20.689  0.3069  0.1253  0.0155
46393W        W89305  34.297   1.376  21.139  0.0016  0.0446 -0.2732
46394W        W89306  33.504   0.905  22.097  0.2543 -0.0124  0.1178
46395W        W89307  34.313   2.302  22.343  0.2153 -0.0671 -0.0528
46396W        W89308  34.082   0.278  23.223 -0.4137  0.0830  0.2580
46397W        W89309  33.128   2.039  22.510 -0.0389 -0.0961 -0.3789
46398W        W89310  32.474   1.708  20.084 -0.0966 -0.0673  0.0790
46399W        W89311  31.741   2.327  21.407 -0.2292 -0.0585 -0.0943
46400W        W89312  33.219   1.519  24.386 -0.1513 -0.0161 -0.5580
46401W        W89313  31.908   1.187  23.892  0.0870 -0.0153 -0.1410
46402W        W89314  33.474   0.501  19.040  0.1943 -0.0773 -0.0739
46403W        W89315  33.158   2.330  23.004  0.0892 -0.0322 -0.0183
46404W        W89316   0.152   1.571  23.912  0.0336 -0.1146  0.0086
46405W        W89317  33.787   0.946  21.660  0.0884 -0.0351  0.1912
46406W        W89318   0.836   0.895  21.209  0.3164  0.0260  0.0763
46407W        W89319  33.000   2.819  22.873  0.0314 -0.0230 -0.2467
46408W        W89320  34.443  34.556  24.316  0.1704  0.2121 -0.1375
46409W        W89321   0.589   2.088  24.034 -0.2168  0.0207 -0.0080
46410W        W89322  33.143   3.335  19.868 -0.4040 -0.1436  0.1476
46411W        W89323  33.520   1.653  22.606 -0.1719 -0.1751  0.0255
46412W        W89324  32.221   2.164  19.615  0.1227 -0.0885  0.1690
46413W        W89325  32.418   1.594  22.607  0.1492 -0.1754 -0.0370
46414W        W89326  33.753   3.025  23.350 -0.1275  0.0264 -0.2231
46415W        W89327  32.472   0.943  23.842  0.2274  0.1410 -0.0427
46416W        W89328  32.638   1.926  19.641 -0.1747  0.1312  0.2119
46417W        W89329  32.905   1.434  23.064 -0.1207  0.0512  0.0865
46418W        W89330   0.103  33.620  21.989  0.2566  0.3715 -0.0681
46419W        W89331  32.747   0.427  24.364  0.0628 -0.0688 -0.0957
46420W        W89332  33.177   0.142  21.454  0.1887 -0.0171 -0.0084
46421W        W89333  32.622   0.464  20.005 -0.1386 -0.1211  0.0097
46422W        W89334  34.154   0.964  22.421 -0.2876 -0.0004  0.1064
46423W        W89335  32.304   2.497  20.486  0.0665  0.0607 -0.1129
46424W        W89336  32.801  34.217  23.160  0.0442  0.0492 -0.2552
46425W        W89337  33.442   1.341  21.738 -0.2346 -0.1798  0.1622
46426W        W89338  33.386   4.669  21.377  0.1507 -0.0075 -0.3361
46427W        W89339  34.365   3.948  23.223 -0.1656  0.0158  0.3349
46428W        W89340  33.489   0.097  19.872 -0.4607 -0.1343  0.0353
46429W        W89341  34.679   3.061  22.858  0.2204 -0.0127  0.0672
46430W        W89342  34.103   0.681  18.746  0.1388  0.6087 -0.0878
46431W        W89343  31.779   3.070  19.468 -0.0024  0.2931  0.0521
46432W        W89344  33.389   1.062  20.837  0.1097  0.2681 -0.2129
46433W        W89345  33.270   2.317  21.559  0.1150 -0.1517 -0.2643
46434W        W89346  32.620   2.161  23.320 -0.0625 -0.1168  0.0801
46435W        W89347  32.638   1.318  20.335  0.0773  0.1881  0.1496
46436W        W89348  32.716   1.091  23.416  0.0644  0.0377  0.0422
46437W        W89349  32.569   2.472  23.784 -0.0254 -0.4416 -0.0626
46438W        W89350  33.973   3.566  20.840  0.3194 -0.2619 -0.1277
46439W        W89351  33.732   0.812  22.785  0.0638  0.1487  0.3875
46440W        W89352  33.101   1.242  22.123  0.0365 -0.1023 -0.0887
46441W        W89353  34.292   0.175  23.931 -0.0281 -0.3318  0.0051
46442W        W89354  34.206   2.363  19.861 -0.0977 -0.0579 -0.1341
46443W        W89355  34.269   3.817  21.221  0.1676  0.0404  0.2845
46444W        W89356  34.333  33.485  23.993 -0.2014  0.2117 -0.1227
46445W        W89357  33.000   1.350  21.174 -0.2702 -0.2413 -0.1465
46446W        W89358   0.164   0.526  22.765 -0.2404 -0.1603  0.2893
46447W        W89359  33.307   2.714  22.490 -0.0637 -0.2383  0.0489
46448W        W89360  33.812   3.543  24.391 -0.0142  0.2063  0.2991
46449W        W89361  34.142  34.512  23.069  0.0419 -0.0123  0.0590
46450W        W89362  32.712   3.192  20.076 -0.0157 -0.1768  0.0454
46451W        W89363  33.784   2.558  20.704  0.2088  0.0723  0.0004
46452W        W89364  32.576   1.042  22.795  0.0343  0.0270 -0.2253
46453W        W89365  33.519   2.578  23.388 -0.1012  0.0302 -0.1135
46454W        W89366  33.238   2.506  20.457  0.3694  0.0777 -0.0116
46455W        W89367  32.195   3.444  20.695 -0.2161  0.0588  0.1095
46456W        W89368  32.637   5.565  22.679 -0.0420 -0.0856  0.3538
46457W        W89369  32.164   1.545  20.416  0.0935  0.2874 -0.0432
46458W        W89370  32.954   1.192  20.722  0.4772  0.1983 -0.0295
46459W        W89371  32.550   0.414  22.724 -0.2344  0.1859  0.0663
46460W        W89372  34.697   0.964  21.187 -0.0568  0.0417 -0.0653
46461W        W89373  32.130   2.882  23.191  0.0528 -0.1235  0.2229
46462W        W89374  33.428   0.754  25.511  0.2367 -0.0110  0.0525
46463W        W89375  31.101   1.260  19.758  0.1118 -0.1345 -0.0594
46464W        W89376  34.417   1.891  21.082  0.0011  0.2830 -0.0491
46465W        W89377  32.859   2.666  20.221 -0.2573  0.0962 -0.1459
46466W        W89378  31.682   0.836  21.746 -0.0894 -0.3890 -0.1936
46467W        W89379  33.183   1.838  23.107  0.0272 -0.2431 -0.2679
46468W        W89380  32.604   1.448  24.547  0.2266 -0.0880 -0.1052
46469W        W89381  32.619  34.542  22.339  0.0415 -0.1686  0.0540
46470W        W89382  32.389   0.567  21.086  0.1283 -0.0183 -0.1782
46471W        W89383  34.539   1.121  22.732 -0.0973  0.0782  0.3368
46472W        W89384  33.452   0.995  23.886 -0.0432  0.1477 -0.3449
46473W        W89385  32.787   1.858  24.804  0.3573 -0.0467  0.2393
46474W        W89386  33.342   1.891  21.261 -0.2598  0.0521 -0.0432
46475W        W89387  32.180   2.383  23.356  0.0711  0.2510 -0.1255
46476W        W89388  34.446   2.372  21.324  0.0844 -0.3477 -0.2974
46477W        W89389  34.312   0.367  22.330  0.2632  0.1648  0.1589
46478W        W89390  32.124   1.099  21.981 -0.2302 -0.2078 -0.0223
46479W        W89391  32.315   1.664  21.159  0.1049 -0.1356  0.2416
46480W        W89392  32.276   1.809  23.231 -0.0621  0.0096  0.2002
46481W        W89393  34.483  34.320  21.605 -0.2636 -0.2177 -0.0793
46482W        W89394  33.433  34.392  24.564 -0.1895  0.0095  0.1078
46483W        W89395  32.310   0.642  22.365 -0.2305  0.0913 -0.1579
46484W        W89396  33.628   1.575  25.218  0.0123  0.0392 -0.2124
46485W        W89397  33.390  34.407  20.733 -0.2194  0.1434  0.2646
46486W        W89398  33.056   1.075  22.699 -0.3979 -0.1838  0.4663
46487W        W89399  34.081   3.124  20.188 -0.3665 -0.0726  0.0007
46488W        W89400  33.512   0.596  24.148 -0.1642 -0.3024 -0.0789
46489W        W89401   0.299   2.621  20.393  0.0227 -0.2778  0.1590
46490W        W89402  33.871   1.856  20.549  0.0404  0.4703 -0.1949
46491W        W89403   0.072   0.228  23.819 -0.1659 -0.4297  0.3504
46492W        W89404  33.092  33.592  23.553 -0.0904 -0.2558  0.0962
46493W        W89405  32.699   0.259  23.705  0.1706 -0.1008 -0.0191
46494W        W89406  33.156   0.180  21.974  0.2775 -0.0889  0.2253
46495W        W89407  32.876   0.304  20.372 -0.0016  0.0435  0.3180
46496W        W89408  34.556   3.274  20.046  0.2009  0.0117  0.3756
46497W        W89409  33.295  34.589  23.541 -0.0399  0.1314  0.4664
46498W        W89410  34.186   4.003  25.568 -0.0822 -0.0320 -0.2786
46499W        W89411  33.299  34.250  20.290  0.3748  0.0219 -0.0364
46500W        W89412  34.444   2.208  20.300 -0.1800  0.0123  0.1130
46501W        W89413   0.006   4.241  23.102  0.3926  0.3073  0.0337
46502W        W89414  33.957   0.415  21.756  0.0475  0.0577 -0.0467
46503W        W89415  31.673   1.857  21.327 -0.1164  0.0352  0.2240
46504W        W89416  33.762   3.089  24.028  0.1950  0.1714  0.0845
46505W        W89417  32.189   1.994  23.702 -0.1822  0.0035 -0.2001
46506W        W89418  32.965   1.695  20.398  0.0887  0.0025  0.2116
46507W        W89419  34.426   2.609  22.719  0.2321 -0.0459 -0.0076
46508W        W89420  33.023   0.649  21.820  0.1991 -0.1809  0.2561
46509W        W89421  33.931   1.874  22.488  0.0147 -0.0957 -0.2881
46510W        W89422  33.597   0.528  23.188 -0.0535  0.3497  0.0331
46511W        W89423  34.202   1.763  19.633  0.1997 -0.0861  0.3937
46512W        W89424  33.042   2.929  24.874 -0.0503 -0.1023  0.1165
46513W        W89425  34.024   1.478  23.408  0.1862 -0.1856  0.0667
46514W        W89426  32.604   3.008  21.106  0.1747  0.0359  0.0005
46515W        W89427   0.404   0.963  21.441 -0.2273 -0.1724  0.2199
46516W        W89428  33.036   3.752  21.505 -0.1343  0.3129  0.1872
46517W        W89429  32.030   2.631  18.041  0.1608  0.2587 -0.2133
46518W        W89430  33.065   2.730  21.755  0.0279 -0.2418 -0.0743
46519W        W89431  33.339   0.196  22.871 -0.1904 -0.3900 -0.0986
46520W        W89432  33.608  33.906  20.939 -0.1474  0.2065  0.1724
46521W        W89433  33.742   0.090  23.681 -0.0356  0.1401  0.1869
46522W        W89434  33.860   2.210  23.477  0.0556 -0.1093  0.1251
46523W        W89435  33.317   1.578  20.822 -0.0177 -0.1433 -0.5042
46524W        W89436   0.018   1.720  22.000  0.0347  0.2639  0.1448
46525W        W89437  32.748   2.071  21.294 -0.0651  0.2599 -0.3263
46526W        W89438  33.332   2.931  20.803  0.4165 -0.3531 -0.1693
46527W        W89439  33.746   3.179  22.440  0.1383  0.1286 -0.2306
46528W        W89440  33.172   2.593  24.442  0.0706  0.2951  0.0612
46529W        W89441  31.857  34.165  20.540  0.0007 -0.2584  0.2869
46530W        W89442  32.693   1.571  23.464 -0.0964 -0.1803 -0.1719
46531W        W89443  33.504   0.529  21.677  0.1520  0.0058 -0.0359
46532W        W89444  34.379   1.977  23.356  0.1004  0.4812  0.0680
46533W        W89445  34.273   1.561  20.515  0.0176 -0.4357 -0.0961
46534W        W89446  33.425   0.099  22.362  0.3273  0.2871  0.1447
46535W        W89447  34.371   1.623  21.661  0.0295 -0.2990  0.3192
46536W        W89448  34.107   2.244  22.847  0.0219  0.0852 -0.1163
46537W        W89449  32.799  34.032  21.652  0.2351  0.0181  0.1099
46538W        W89450  33.738   2.231  21.143 -0.2107  0.2340  0.4954
46539W        W89451  32.264   0.813  21.523 -0.0845  0.3639 -0.0722
46540W        W89452   0.360  33.667  21.081 -0.1460  0.0987 -0.0160
46541W        W89453  33.645   1.551  22.127  0.3266  0.0616  0.0838
46542W        W89454  32.637   2.965  20.562 -0.2572  0.1292  0.0198
46543W        W89455  34.207   4.423  19.603  0.1470  0.2371 -0.0086
46544W        W89456  33.078   2.816  23.492  0.1386 -0.1663  0.2044
46545W        W89457  33.866   4.052  23.272  0.1205  0.1928 -0.0859
46546W        W89458  33.366   0.576  22.469  0.1006  0.0188  0.2773
46547W        W89459  33.987   1.876  23.814 -0.0867  0.1511 -0.0253
46548W        W89460   0.003   2.257  20.734 -0.1321  0.1840 -0.3637
46549W        W89461  33.063   2.890  21.243 -0.0535 -0.0084 -0.2160
46550W        W89462  34.064   1.958  20.086  0.0872 -0.0375 -0.3034
46551W        W89463  34.680   0.747  21.714 -0.0234 -0.0524 -0.2444
46552W        W89464  33.223   0.940  23.212 -0.0742  0.0970  0.1626
46553W        W89465  32.993   0.608  22.820 -0.2052 -0.0390  0.0651
46554W        W89466  33.315   1.279  20.394  0.3187  0.0992  0.1986
46555W        W89467  33.520   1.892  21.721  0.0605  0.0692  0.0059
46556W        W89468  32.718   1.476  24.003 -0.0234 -0.0241  0.0220
46557W        W89469  32.409   1.302  21.528 -0.1022  0.0990  0.0813
46558W        W89470  32.546   0.212  20.762 -0.1361  0.1615 -0.0024
46559W        W89471  33.833  33.592  23.967 -0.1100 -0.0889  0.4542
46560W        W89472  31.823   0.379  21.420 -0.1536 -0.0611  0.0691
46561W        W89473  33.122  33.508  21.112  0.1450  0.1013  0.2360
46562W        W89474  32.006   2.681  19.681  0.0184 -0.0578 -0.2772
46563W        W89475   0.032   2.669  23.180  0.0411  0.2116  0.0277
46564W        W89476  34.007   2.047  24.304 -0.2365 -0.1799  0.1123
46565W        W89477  30.504  33.782  18.252  0.2471 -0.2734 -0.0635
46566W        W89478   0.863   1.932  22.775 -0.1474  0.0966 -0.0660
46567W        W89479  34.267   2.754  23.303  0.0935 -0.0662 -0.0227
46568W        W89480  34.646   3.841  25.952 -0.1067  0.1411 -0.1827
46569W        W89481  33.916  34.427  24.049 -0.2745 -0.0356  0.1782
46570W        W89482  33.742   2.445  24.149 -0.0959  0.1330 -0.0207
46571W        W89483  33.168  34.100  23.578  0.0224 -0.0806  0.0033
46572W        W89484  34.340   2.348  24.673 -0.3067  0.3506 -0.1146
46573W        W89485  34.250   0.768  21.903  0.0013  0.0164 -0.0041
46574W        W89486  32.886   1.190  21.688 -0.0313 -0.0810  0.2654
46575W        W89487  33.845   1.688  23.025 -0.1397  0.0508  0.0338
46576W        W89488  33.535   2.245  24.588 -0.1031  0.3637 -0.0297
46577W        W89489   0.283   1.374  21.780  0.0824 -0.5030  0.2376
46578W        W89490  33.958   3.583  23.359 -0.0834  0.2772  0.0852
46579W        W89491  31.811   0.430  22.656  0.3081  0.1366 -0.0283
46580W        W89492  33.872   1.701  21.166  0.1497 -0.1195 -0.1804
46581W        W89493   0.144   1.955  21.523 -0.4185  0.0472  0.2775
46582W        W89494  34.601   1.099  23.782  0.0263  0.1488 -0.2213
46583W        W89495  34.002   2.807  22.777 -0.1787 -0.0923  0.1493
46584W        W89496   0.507   3.842  26.014  0.1545  0.1470  0.0173
46585W        W89497  32.989   0.585  23.981  0.0424 -0.1778 -0.0730
46586W        W89498  32.517   0.400  25.739 -0.2475  0.3679 -0.1375
46587W        W89499   0.726  34.300  26.127 -0.1955  0.6192 -0.1005
46588W        W89500  33.752   1.994  26.548  0.1558 -0.2866  0.3488
46589W        W89501  34.070   3.491  27.169 -0.3605  0.0045  0.2844
46590W        W89502  33.964   0.269  24.709 -0.2120 -0.0581 -0.1556
46591W        W89503  33.328  34.500  25.793 -0.3621 -0.5169 -0.0913
46592W        W89504  32.984   1.098  24.128  0.1418  0.4651  0.1179
46593W        W89505  33.461   1.784  25.686 -0.1094 -0.0454  0.2874
46594W        W89506   0.356   1.164  24.824  0.2057  0.0245 -0.2573
46595W        W89507   0.087   0.725  27.470  0.0358 -0.0140  0.1690
46596W        W89508  34.303   3.482  25.860  0.1651 -0.0010  0.0547
46597W        W89509  32.127   2.430  24.719  0.4582  0.0423  0.1119
46598W        W89510  33.855   1.620  26.195 -0.1100 -0.0251 -0.1963
46599W        W89511  33.650   2.104  27.048 -0.1111 -0.1063  0.0787
46600W        W89512  34.319   2.668  26.664  0.0649  0.2004 -0.4561
46601W        W89513   0.735   3.538  24.269 -0.1592 -0.0810  0.1189
46602W        W89514  32.065   2.501  27.659  0.0798 -0.2087  0.3004
46603W        W89515  31.930   2.816  25.984  0.0193  0.0985 -0.0215
46604W        W89516   0.884   4.342  25.036 -0.0995  0.4646 -0.1639
46605W        W89517  32.950   4.022  27.047  0.0503 -0.0200  0.0596
46606W        W89518   0.243   3.246  24.999 -0.0385 -0.1858 -0.0584
46607W        W89519  34.368   3.452  27.561 -0.0669  0.0844  0.0286
46608W        W89520   0.257   3.616  25.556 -0.2381  0.5171  0.0692
46609W        W89521   1.217   2.527  25.476  0.2062  0.2336  0.0661
46610W        W89522  33.185   3.091  25.704 -0.0145 -0.1288 -0.0370
46611W        W89523  32.882   1.867  24.284 -0.0050 -0.0696 -0.0516
46612W        W89524  33.525   1.692  23.492  0.1357  0.1426 -0.1548
46613W        W89525  33.285   0.643  23.600 -0.1162  0.1037  0.1161
46614W        W89526  34.087   0.703  25.081  0.3301 -0.0842 -0.0997
46615W        W89527  33.719   3.769  26.397  0.0406  0.2466 -0.3766
46616W        W89528  34.656   0.896  25.913  0.0857  0.4158 -0.1265
46617W        W89529  34.605   3.083  26.752  0.2022  0.2197  0.2169
46618W        W89530  33.787   1.190  25.947  0.0476 -0.0469 -0.1079
46619W        W89531  32.581   0.519  25.281  0.0043  0.1689  0.0580
46620W        W89532  33.467   2.586  28.848 -0.1425  0.1277  0.0724
46621W        W89533  33.653   1.729  28.050 -0.0696 -0.0586 -0.0844
46622W        W89534  33.853  33.092  24.010 -0.1956 -0.0368 -0.1438
46623W        W89535  31.945   3.138  28.902 -0.0047  0.1773  0.2206
46624W        W89536   0.698   2.305  26.601  0.0859  0.0681  0.1584
46625W        W89537  34.367   3.223  23.314  0.1547 -0.0697  0.0441
46626W        W89538   1.004   2.757  25.890  0.2516  0.0086 -0.2281
46627W        W89539  33.880   2.465  26.678  0.1892  0.3151 -0.0406
46628W        W89540  34.584   1.789  26.861 -0.0380  0.0611 -0.2474
46629W        W89541   0.443   3.588  26.537 -0.1820  0.2906 -0.0823
46630W        W89542  32.721   5.045  22.096  0.3020 -0.1664  0.2072
46631W        W89543  31.437   2.180  25.494  0.3624  0.0110  0.1844
46632W        W89544  32.918   0.738  25.556 -0.1171 -0.2574  0.1449
46633W        W89545  33.401   0.215  25.538  0.0132  0.2936 -0.1412
46634W        W89546  32.757   4.029  26.220  0.1028  0.1441  0.0504
46635W        W89547  33.188   1.733  27.115  0.1116  0.1424  0.1749
46636W        W89548  32.553   1.697  25.570  0.0886  0.1679 -0.0635
46637W        W89549  32.169   1.344  27.086 -0.0542  0.0657 -0.0275
46638W        W89550  31.905  34.528  25.107 -0.1463  0.1195  0.1925
46639W        W89551  33.670   1.822  27.455 -0.0842  0.4125  0.0849
46640W        W89552  33.773  34.518  25.618  0.1569 -0.0873 -0.0020
46641W        W89553  32.833  33.905  24.931  0.0407  0.1246  0.3308
46642W        W89554  34.655   1.276  24.512 -0.0567  0.2114  0.0399
46643W        W89555  32.577   1.509  25.130 -0.0397  0.4304 -0.1548
46644W        W89556  33.816  34.216  26.507  0.3857 -0.1209 -0.0994
46645W        W89557  33.073   0.457  25.200 -0.2416 -0.1870  0.3179
46646W        W89558  33.738   2.139  26.036 -0.0974  0.2123  0.4343
46647W        W89559   0.113   3.347  24.506  0.0409  0.0759 -0.0343
46648W        W89560  33.076  34.152  25.522 -0.1353 -0.1717 -0.2620
46649W        W89561  33.218   1.870  28.453 -0.0373 -0.2477  0.4315
46650W        W89562  33.047   0.295  23.283  0.1147  0.1168 -0.0610
46651W        W89563  33.059   1.744  25.355 -0.1764  0.1286 -0.2894
46652W        W89564  32.963   1.257  25.395 -0.0072 -0.1868  0.0712
46653W        W89565   1.772   3.395  24.583  0.0372 -0.0722 -0.3726
46654W        W89566  31.985   1.527  28.020 -0.2286 -0.0221  0.2081
46655W        W89567  34.123   0.696  25.933  0.1803 -0.0367 -0.0780
46656W        W89568  33.582   3.701  27.322  0.0222  0.0494  0.0084
46657W        W89569  32.347   2.496  28.346 -0.0719  0.0784 -0.0622
46658W        W89570   1.359   3.016  24.888  0.1294 -0.2248 -0.0517
46659W        W89571   0.540   2.865  25.940  0.1297 -0.2064 -0.1777
46660W        W89572  32.523   2.416  27.472  0.3116 -0.0095  0.0325
46661W        W89573   0.871   1.354  25.657  0.0854 -0.0293 -0.1100
46662W        W89574  34.039   1.013  23.783  0.0768  0.1942 -0.1748
46663W        W89575  33.980   2.648  25.440 -0.0450 -0.0661  0.2199
46664W        W89576   0.245   0.472  26.110 -0.2652  0.1695 -0.0274
46665W        W89577  33.421   1.287  25.625 -0.0403  0.2985  0.2313
46666W        W89578  34.644   2.296  26.630 -0.2363 -0.1846 -0.1830
46667W        W89579  32.395   2.790  27.873 -0.0801 -0.0242 -0.1537
46668W        W89580  32.684   3.257  27.780 -0.3829  0.1002  0.2369
46669W        W89581   1.132   0.590  27.582 -0.1535  0.2219  0.0389
46670W        W89582  33.218   3.828  26.506  0.3224  0.1382 -0.1427
46671W        W89583   0.621   4.095  24.683  0.0529 -0.2420 -0.0342
46672W        W89584   0.793   0.325  25.942  0.4665  0.2039 -0.1385
46673W        W89585  34.321   3.842  26.324  0.2881 -0.2280  0.2958
46674W        W89586   0.529   2.132  23.286 -0.3250  0.0695  0.0221
46675W        W89587  33.561   0.497  25.078  0.1424 -0.0426 -0.0658
46676W        W89588  32.240   2.586  27.069  0.1075 -0.0218 -0.0122
46677W        W89589   0.147   1.757  23.338  0.2357  0.3664 -0.0023
46678W        W89590  32.421   2.011  24.228 -0.4479  0.5322  0.1480
46679W        W89591  34.118   0.646  26.526 -0.1829 -0.2744 -0.0929
46680W        W89592  34.684   1.324  27.179 -0.4085 -0.1547  0.3242
46681W        W89593  33.600   4.994  25.606 -0.1149  0.1324 -0.1591
46682W        W89594  32.707   2.128  28.409 -0.3339 -0.2784 -0.0305
46683W        W89595  32.062   1.656  24.118  0.1885 -0.0310 -0.0596
46684W        W89596   0.430   1.168  25.576  0.2018  0.1723  0.4264
46685W        W89597  33.632   2.553  25.785  0.0482 -0.0401  0.3387
46686W        W89598  32.333  34.667  25.446  0.0570 -0.0522 -0.2515
46687W        W89599  34.317   3.073  26.340  0.2583  0.0647  0.0135
46688W        W89600   0.443   0.529  28.704 -0.1364 -0.0480  0.1942
46689W        W89601  34.422   1.764  25.373 -0.2172  0.1903 -0.3716
46690W        W89602  34.555   1.220  25.040  0.1221  0.2640  0.2194
46691W        W89603  33.994   1.546  25.595 -0.3833 -0.2924 -0.1994
46692W        W89604  34.202   1.927  25.929 -0.0752 -0.1950 -0.2478
46693W        W89605  34.569   3.330  28.651  0.0632  0.1930  0.2399
46694W        W89606  33.634   2.356  25.093  0.2316 -0.2802  0.1349
46695W        W89607  33.415   1.611  26.682 -0.3304  0.0461  0.0107
46696W        W89608   0.883   1.420  24.668  0.1291  0.1701  0.2579
46697W        W89609  33.820   1.596  27.061  0.1462 -0.1673 -0.1439
46698W        W89610  33.432   2.439  26.388  0.0979 -0.0106  0.0747
46699W        W89611  32.931   0.083  25.454  0.1626 -0.2954 -0.0260
46700W        W89612  32.932   3.324  25.254 -0.4266  0.0224 -0.2106
46701W        W89613  34.177   1.350  27.234  0.1248  0.2566 -0.0119
46702W        W89614  34.393   1.104  28.489  0.0293 -0.2871  0.0106
46703W        W89615  34.449   1.176  26.690 -0.0040 -0.1119 -0.0225
46704W        W89616  32.542   1.919  27.367 -0.0678  0.0751 -0.1610
46705W        W89617  32.483   0.564  24.815 -0.0713 -0.0451 -0.0203
46706W        W89618   0.641   3.376  26.089 -0.3835 -0.0181 -0.2523
46707W        W89619   0.699   2.573  25.537  0.0702  0.0559  0.0930
46708W        W89620  33.151   2.558  25.776  0.0938  0.3152 -0.2987
46709W        W89621   0.161   1.639  24.766  0.0620  0.3362  0.0433
46710W        W89622   0.282   2.440  26.234 -0.0502 -0.0056 -0.0169
46711W        W89623   0.119   1.337  27.649 -0.3703  0.2698  0.0532
46712W        W89624  32.767   2.263  27.014 -0.1159  0.3824  0.0476
46713W        W89625  32.625   1.615  28.264 -0.0906  0.0775  0.2300
46714W        W89626  33.416   1.075  26.452 -0.1845 -0.2506 -0.0127
46715W        W89627  32.965  34.374  24.762  0.3474  0.2602  0.1523
46716W        W89628   0.134   3.698  23.253  0.0078  0.2353 -0.3027
46717W        W89629  34.034   0.120  25.218 -0.1363 -0.2816  0.1067
46718W        W89630  33.502   3.296  28.297  0.0309 -0.2921  0.0552
46719W        W89631  32.957  34.572  22.847 -0.1135  0.1727  0.0660
46720W        W89632   0.436   2.623  25.149 -0.0471 -0.3379 -0.4318
46721W        W89633   0.886   3.826  25.005  0.0550 -0.2605 -0.0100
46722W        W89634   0.239   0.928  25.182 -0.0912  0.1270  0.0574
46723W        W89635  33.147   1.442  24.954  0.0768  0.0386 -0.2274
46724W        W89636   1.069   5.172  25.486 -0.2519  0.0392 -0.0803
46725W        W89637  33.831   3.245  26.405  0.0578 -0.1805  0.1878
46726W        W89638  33.899   2.798  26.265 -0.0380  0.0277 -0.0936
46727W        W89639   1.018   2.042  25.715  0.0758  0.1552 -0.0153
46728W        W89640  34.654   2.051  26.143  0.1441  0.2123 -0.1226
46729W        W89641  34.138   2.433  25.874 -0.1063 -0.0149  0.0043
46730W        W89642  33.382   0.624  28.208 -0.0679 -0.3518 -0.2510
46731W        W89643  33.666   0.645  26.168  0.0343  0.1353 -0.1037
46732W        W89644  32.920   2.505  27.750  0.0674  0.1199  0.0070
46733W        W89645  33.997   1.508  27.708 -0.2524  0.2275  0.0898
46734W        W89646   0.198   4.661  25.753 -0.1699  0.2116 -0.2302
46735W        W89647  34.476   1.920  24.917  0.1487  0.4484 -0.3020
46736W        W89648   0.129   3.389  25.946  0.3459  0.3503 -0.2336
46737W        W89649  33.359   1.908  24.923  0.2522  0.2370  0.3721
46738W        W89650  34.154   3.517  24.920  0.1922 -0.0704  0.3424
46739W        W89651  34.345   0.783  28.142 -0.1181  0.2395  0.0733
46740W        W89652  34.427   0.360  24.504 -0.2224 -0.0231  0.3902
46741W        W89653  33.301   2.347  27.330  0.0759  0.2908  0.0265
46742W        W89654  34.522   3.836  26.763 -0.2684  0.3113  0.0721
46743W        W89655  32.873  34.669  24.100  0.3845 -0.3184 -0.0401
46744W        W89656  34.091   1.411  25.104 -0.2701 -0.1088 -0.0585
46745W        W89657  34.422   1.601  23.102 -0.0346 -0.1861 -0.1588
46746W        W89658  33.623   4.136  25.577  0.3548  0.1279  0.1255
46747W        W89659  33.826   2.097  25.541  0.0257  0.1586 -0.0308
46748W        W89660   0.815   4.718  26.400 -0.2586 -0.0983 -0.2194
46749W        W89661  33.913   1.212  24.350 -0.0407  0.0514 -0.1365
46750W        W89662  33.651   2.674  27.120 -0.1218 -0.2407  0.1315
46751W        W89663  33.920   1.030  25.425 -0.2079 -0.3743 -0.0396
46752W        W89664   0.373   2.805  27.430 -0.0297 -0.0493 -0.2236
46753W        W89665  33.732   1.210  22.470  0.1003  0.2126 -0.0076
46754W        W89666  33.297  33.825  25.222  0.1028  0.1370  0.1131
46755W        W89667  33.221   0.597  24.661  0.1667 -0.0975  0.1056
46756W        W89668  34.228   2.984  25.823  0.0015  0.1080  0.0667
46757W        W89669  33.215   0.183  24.378  0.0365  0.3086  0.1215
46758W        W89670  33.698   3.659  25.285  0.0762 -0.4057  0.0937
46759W        W89671  33.244   1.992  26.138 -0.0744  0.1802  0.1895
46760W        W89672   0.676   0.606  25.077  0.1173 -0.1089  0.0336
46761W        W89673  32.880   2.110  25.688 -0.1771  0.0062  0.1916
46762W        W89674  33.849   3.676  25.867  0.0045  0.0068 -0.0328
46763W        W89675  34.088   3.216  25.281  0.3788  0.1748  0.0807
46764W        W89676  34.043   3.995  26.754 -0.1844 -0.1322 -0.3222
46765W        W89677   0.303   2.773  26.687 -0.1579 -0.0801  0.1297
46766W        W89678  33.176   1.352  23.490 -0.2201 -0.0343 -0.0069
46767W        W89679  33.192   2.078  26.653  0.2194  0.4165 -0.2511
46768W        W89680   0.793   3.340  25.111 -0.2401 -0.1071 -0.0041
46769W        W89681   0.599   2.476  24.724  0.0939  0.3183  0.3469
46770W        W89682   1.033   1.099  24.309  0.2019  0.1457  0.2966
46771W        W89683   0.204   1.691  25.246 -0.3719  0.2146  0.3222
46772W        W89684  32.794   3.061  25.997 -0.3735  0.0862 -0.2383
46773W        W89685  31.510   1.885  24.516  0.0620 -0.3360 -0.3161
46774W        W89686   0.117   2.214  24.634 -0.0165  0.0189 -0.1103
46775W        W89687  33.009   1.852  27.546  0.2197 -0.1673  0.0137
46776W        W89688  32.720   1.822  26.754 -0.2742  0.0399  0.2456
46777W        W89689  33.424   1.498  26.108 -0.3208  0.2268  0.0356
46778W        W89690  33.787   0.790  24.663 -0.1135  0.3058  0.0448
46779W        W89691  33.945   1.252  26.490  0.0969 -0.0396 -0.1275
46780W        W89692  32.049   0.393  25.551 -0.1320 -0.4007  0.3103
46781W        W89693  33.677   1.156  24.991 -0.3001  0.0368  0.3467
46782W        W89694  34.189   1.604  24.590 -0.0393 -0.3695  0.0206
46783W        W89695   0.583   2.627  27.874 -0.0351  0.1240  0.2245
46784W        W89696  34.277   2.326  27.612  0.0703  0.0973  0.0732
46785W        W89697  32.060   1.048  24.395 -0.0524  0.1396 -0.2138
46786W        W89698  34.260   1.719  26.488  0.2648  0.2182  0.0788
46787W        W89699  34.118   2.094  26.863 -0.0426 -0.1464 -0.0781
46788W        W89700  34.601   3.415  27.148 -0.2302 -0.1712  0.0609
46789W        W89701  34.235   0.066  27.298  0.3197  0.2959  0.4543
46790W        W89702  33.940   2.701  27.580  0.3977  0.1188  0.0902
46791W        W89703   0.491   0.832  27.727  0.2266  0.3259  0.2229
46792W        W89704  33.323   2.871  27.498 -0.1845 -0.3420 -0.0445
46793W        W89705  32.956   0.175  24.790  0.2980 -0.3826 -0.0561
46794W        W89706  34.132   2.257  26.345  0.1264 -0.1643 -0.2248
46795W        W89707   0.707   0.853  24.630 -0.0233 -0.3481 -0.4923
46796W        W89708   0.974   3.741  26.040  0.1639  0.0383  0.1752
46797W        W89709  34.475   2.650  25.301 -0.0656  0.1797 -0.0378
46798W        W89710   1.529   4.072  26.139 -0.0454  0.0139 -0.0463
46799W        W89711  33.213   0.611  26.399  0.2604  0.2742  0.2416
46800W        W89712  33.264   0.946  26.011 -0.1828  0.0575  0.1650
46801W        W89713  34.463   2.588  26.184  0.2104 -0.1300 -0.1433
46802W        W89714   0.405  34.700  25.851  0.1271  0.1021 -0.1528
46803W        W89715   0.106   5.690  27.186  0.0800 -0.0180  0.0803
46804W        W89716  34.428   2.492  28.052  0.2516  0.1705 -0.1339
46805W        W89717  33.482   1.385  27.675 -0.1842 -0.1100 -0.0749
46806W        W89718  34.057   0.088  27.782  0.0937  0.3464 -0.1493
46807W        W89719   0.748   0.200  30.757 -0.0415  0.4830  0.1821
46808W        W89720  34.392   2.601  30.409  0.2267  0.3690 -0.1027
46809W        W89721  32.927   2.991  30.006  0.3193  0.0211 -0.0595
46810W        W89722   0.312  34.117  27.994  0.1838  0.0886 -0.2046
46811W        W89723  32.205  34.366  29.715  0.0080  0.1855  0.0745
46812W        W89724  34.013   2.610  29.559 -0.1085  0.2341 -0.0245
46813W        W89725   0.058   1.059  28.106  0.2960 -0.0489 -0.1086
46814W        W89726   0.129  34.413  29.315 -0.0097 -0.2063  0.2999
46815W        W89727  33.802   1.251  31.812 -0.0520  0.0745 -0.0514
46816W        W89728   0.335   3.292  28.880  0.1695 -0.1614  0.2033
46817W        W89729  32.154   1.692  27.610 -0.0362 -0.0607 -0.2093
46818W        W89730   0.011   2.048  28.066  0.2261 -0.1458 -0.0485
46819W        W89731  34.480   2.095  31.303 -0.0882  0.0272 -0.0887
46820W        W89732  34.193   3.596  29.365  0.1327 -0.2912  0.2132
46821W        W89733   0.794   4.940  29.019  0.1348  0.1128  0.2448
46822W        W89734  32.761   0.944  29.800 -0.4016  0.0960 -0.3467
46823W        W89735  32.651   3.476  29.207  0.2942 -0.0320 -0.3120
46824W        W89736  34.145   2.908  28.694  0.2241  0.1735  0.1243
46825W        W89737  32.360   4.733  31.745  0.2655  0.1322  0.1396
46826W        W89738  33.181   3.541  28.600  0.1225 -0.0445  0.1911
46827W        W89739  32.988   3.813  29.552  0.2293 -0.0835  0.0814
46828W        W89740  34.458   2.511  28.552  0.0839  0.0823  0.0865
46829W        W89741  34.343   3.120  29.414 -0.1656 -0.0108 -0.2491
46830W        W89742  33.668   3.738  30.766  0.0453 -0.2085  0.3616
46831W        W89743  34.224   2.383  29.974  0.1424 -0.2651  0.0913
46832W        W89744  32.600   3.391  29.705 -0.0837  0.0270 -0.0739
46833W        W89745  34.529   2.934  28.270 -0.2010 -0.0552  0.1086
46834W        W89746  33.863   0.752  28.419 -0.4997  0.0860  0.1727
46835W        W89747  34.661   2.854  28.838 -0.0212  0.1878  0.1071
46836W        W89748  34.029   1.449  31.004 -0.2045  0.2050  0.2662
46837W        W89749  34.027   1.984  31.119 -0.2245  0.2106 -0.3566
46838W        W89750  33.431   1.013  29.178  0.1090 -0.0729  0.1852
46839W        W89751  34.619   1.196  29.002 -0.1366  0.2651 -0.0797
46840W        W89752  34.650   2.122  30.335  0.2803 -0.1961 -0.3270
46841W        W89753   0.160   2.539  30.561 -0.0176  0.0488  0.0646
46842W        W89754  33.708   0.322  27.503  0.1876  0.0530  0.1832
46843W        W89755  32.774   3.912  31.241  0.1383  0.1671 -0.1726
46844W        W89756   0.663   3.221  30.689  0.0169 -0.1967 -0.0549
46845W        W89757  33.960   1.532  29.597 -0.0253 -0.0413 -0.0587
46846W        W89758   0.080   1.624  31.188 -0.0826  0.0877  0.2990
46847W        W89759  33.265   2.925  31.461  0.1051  0.0198 -0.0008
46848W        W89760   0.364  34.221  29.696  0.1741 -0.1864 -0.0205
46849W        W89761   0.830   3.518  31.567 -0.0351 -0.0899  0.1173
46850W        W89762  34.201   3.789  27.994 -0.3393 -0.0927  0.1066
46851W        W89763  32.788   2.814  28.269 -0.1578 -0.0218 -0.0596
46852W        W89764  34.293   2.052  28.471  0.0499 -0.0445 -0.1392
46853W        W89765  32.329  33.766  30.475 -0.1496 -0.0227  0.1117
46854W        W89766  33.798   3.250  30.734  0.4580 -0.0884 -0.0175
46855W        W89767  34.222  33.717  28.890 -0.1062  0.1341 -0.1761
46856W        W89768  34.447   1.563  27.897  0.0163 -0.2655  0.1361
46857W        W89769  32.815   1.934  31.493 -0.1585 -0.0190  0.0072
46858W        W89770  33.743   0.086  28.929 -0.0871  0.0796 -0.2961
46859W        W89771  32.980   1.559  31.184  0.0638  0.1411 -0.0421
46860W        W89772  33.119   0.683  29.536 -0.1176  0.0959  0.2013
46861W        W89773   0.091  34.585  28.190  0.2068  0.2470 -0.0177
46862W        W89774  34.156   1.900  27.364  0.1860 -0.1591 -0.0394
46863W        W89775  32.989   3.090  30.968  0.1210  0.0284 -0.0587
46864W        W89776  34.071  34.284  31.130  0.0489 -0.2833 -0.1767
46865W        W89777   0.414   1.784  28.640  0.1001  0.3435 -0.1078
46866W        W89778  32.999   4.215  28.735 -0.4187  0.1458  0.5059
46867W        W89779  33.188   2.545  31.024 -0.3235  0.1190 -0.0843
46868W        W89780   0.598   1.749  27.508  0.0410 -0.0778  0.2140
46869W        W89781  34.429   1.834  29.743 -0.0525 -0.0225 -0.0858
46870W        W89782  34.324   0.477  29.213  0.0858 -0.2617 -0.1110
46871W        W89783  32.855   3.151  28.793 -0.3793  0.0596 -0.0290
46872W        W89784  33.765   1.216  28.667 -0.1866 -0.1278  0.0915
46873W        W89785   1.355   4.078  29.266  0.1477  0.3571 -0.2379
46874W        W89786  32.739   2.551  31.205  0.0872 -0.1213  0.1118
46875W        W89787  33.650   2.263  28.259  0.0481  0.1141 -0.1615
46876W        W89788  33.417   2.880  30.776  0.0757  0.0837 -0.2344
46877W        W89789  31.705   4.448  30.603 -0.0477 -0.1753 -0.0477
46878W        W89790   1.160   3.046  29.834  0.4210 -0.0618  0.4146
46879W        W89791   0.094   2.719  29.914  0.1016  0.0566 -0.0156
46880W        W89792  33.273   2.543  30.030 -0.2693  0.2388 -0.4543
46881W        W89793   1.428  34.563  30.800  0.0000  0.1546 -0.0584
46882W        W89794  33.528   2.895  26.630 -0.0477  0.0985 -0.1446
46883W        W89795  32.511   4.441  26.868 -0.4586 -0.0568  0.1468
46884W        W89796  34.476  34.445  31.555 -0.0857  0.1098 -0.1666
46885W        W89797  34.086   2.041  28.033  0.0352 -0.1868 -0.0978
46886W        W89798   0.880   0.714  30.651 -0.3815  0.0763 -0.0880
46887W        W89799   0.237   1.004  31.737 -0.0994 -0.0243  0.0336
46888W        W89800  33.478   4.593  30.124 -0.1171 -0.1749  0.0244
46889W        W89801  34.265   1.045  30.834  0.0296  0.1613  0.2371
46890W        W89802  33.894   2.452  28.613 -0.2439  0.3372  0.3711
46891W        W89803  34.128   2.484  27.170  0.2550 -0.1676  0.0755
46892W        W89804  33.994   1.385  30.494 -0.0224 -0.0643 -0.4925
46893W        W89805  34.118   3.379   0.101 -0.0987 -0.1099 -0.3353
46894W        W89806  32.631   2.140  27.953 -0.0344  0.1355  0.1913
46895W        W89807  33.164   2.417  28.395 -0.2553  0.1867 -0.2117
46896W        W89808  34.208   2.910   0.048  0.3208 -0.1810  0.0765
46897W        W89809  34.688   1.870  27.541 -0.2004  0.1068  0.2229
46898W        W89810  31.913   1.246  29.757  0.2369 -0.0112  0.0378
46899W        W89811  34.131  34.208  29.025 -0.1301 -0.1556 -0.0721
46900W        W89812  34.348   1.137  30.277  0.1992 -0.0818  0.0989
46901W        W89813  33.196   4.087  30.919  0.0540 -0.0044  0.0819
46902W        W89814   0.681   0.347  31.302 -0.0713 -0.0269  0.0616
46903W        W89815  32.041   0.964  28.294  0.1222  0.0667 -0.0887
46904W        W89816   1.173   1.812  27.817  0.0346 -0.0819  0.1347
46905W        W89817  32.440   3.586  30.548 -0.1464 -0.0987  0.1081
46906W        W89818   0.560   2.527  28.796  0.1254 -0.0712 -0.0083
46907W        W89819  33.467   2.829  29.594 -0.4415 -0.0823 -0.2745
46908W        W89820  34.539   0.693  31.637 -0.2276  0.0564 -0.0388
46909W        W89821  34.283   2.340  30.816 -0.2603  0.0025  0.0155
46910W        W89822  34.573   1.615  28.381  0.1398  0.1395  0.1691
46911W        W89823  33.802   1.396  29.165 -0.0854  0.1708  0.1544
46912W        W89824   0.996   1.523  31.277 -0.3449  0.1810 -0.2924
46913W        W89825  34.145   3.041  31.167  0.0149  0.1449  0.0559
46914W        W89826  33.488   2.073  28.817 -0.0067 -0.2621  0.3513
46915W        W89827  32.578   1.750  30.358  0.0937 -0.0858  0.1147
46916W        W89828   0.004   3.552  29.205 -0.1784 -0.0651  0.1881
46917W        W89829  34.157   1.163  31.423  0.2540 -0.0036  0.1604
46918W        W89830  33.576   1.726  29.838 -0.0087 -0.0147  0.2198
46919W        W89831  33.190   3.033  28.027  0.4097  0.1452 -0.0569
46920W        W89832  32.960   2.731  30.443 -0.1944 -0.3012  0.2694
46921W        W89833   0.062   0.943  29.941 -0.1561 -0.2556  0.3509
46922W        W89834  33.499  34.212  30.205  0.1977 -0.2011 -0.2023
46923W        W89835  33.382   2.349  31.452  0.2987  0.1869  0.1041
46924W        W89836  32.952   1.717   0.174 -0.0260  0.2562  0.0003
46925W        W89837  33.056   1.340  26.870 -0.1089  0.2109 -0.2693
46926W        W89838  32.821   3.212  30.456 -0.0319 -0.1465 -0.3061
46927W        W89839   0.139   2.169  28.571  0.0153 -0.1185 -0.0070
46928W        W89840  34.594   1.812  28.841 -0.0759 -0.0863  0.3946
46929W        W89841  34.690   2.691  27.123 -0.2643 -0.0522  0.0877
46930W        W89842   0.494   3.640  29.770 -0.1300 -0.0083 -0.1188
46931W        W89843  33.706  34.535  30.886 -0.1081  0.2104  0.2256
46932W        W89844   0.323   0.043  31.444  0.0977  0.1228 -0.0666
46933W        W89845  33.881   0.237  29.921 -0.2442  0.0505 -0.1354
46934W        W89846  34.362   1.202  29.776  0.1035 -0.1006  0.2418
46935W        W89847  33.924   1.007  26.969 -0.2040 -0.1710 -0.3265
46936W        W89848  33.010   2.760  26.384  0.1556 -0.2548  0.0293
46937W        W89849  34.147   1.528  28.829 -0.1684 -0.1294 -0.0451
46938W        W89850  33.527   3.423   0.357  0.0331 -0.1416  0.0198
46939W        W89851  33.465   0.832  27.691 -0.3076 -0.1909  0.1139
46940W        W89852  33.673   2.842  28.428 -0.0578 -0.0047  0.1577
46941W        W89853  34.268   3.250  30.646 -0.0557  0.0717  0.0322
46942W        W89854   0.063   0.106  28.654 -0.0996 -0.3880 -0.0584
46943W        W89855  33.325   3.065  29.017 -0.0779 -0.3418 -0.0597
46944W        W89856  33.769   2.371  29.174 -0.1148  0.1456 -0.0727
46945W        W89857  32.175   3.182  31.261  0.0213  0.1478 -0.4709
46946W        W89858  34.582   2.628  29.481 -0.2591  0.2366  0.1095
46947W        W89859   0.081   1.342  29.534 -0.0858  0.2853  0.1744
46948W        W89860   0.203   1.963  30.877 -0.3280 -0.2046 -0.0596
46949W        W89861   0.191   1.064  30.389 -0.4713  0.2478 -0.2631
46950W        W89862  33.054   1.099  31.323  0.2094  0.0655 -0.1505
46951W        W89863  33.879   1.148  28.088 -0.1593 -0.2331  0.1601
46952W        W89864  33.911   2.127  31.716  0.3769  0.4493 -0.3259
46953W        W89865  33.057   1.967  30.850  0.1972  0.2333  0.0793
46954W        W89866  32.764   3.722  28.800  0.2815 -0.1036 -0.2818
46955W        W89867   0.771   2.217  29.870 -0.1662  0.0599  0.1711
46956W        W89868  33.859   3.133  29.749 -0.4044 -0.0016  0.2159
46957W        W89869  33.582   2.323  29.630  0.2192  0.3137 -0.2832
46958W        W89870   0.631   3.675  28.738 -0.1892  0.3928  0.0759
46959W        W89871   0.400   0.512  29.973 -0.3372 -0.0363  0.3039
46960W        W89872  34.098   0.964  28.924 -0.3914 -0.2871  0.0598
46961W        W89873  33.701   2.622  31.724 -0.0255 -0.0654 -0.1993
46962W        W89874  31.607   4.627   0.101 -0.0568 -0.0060 -0.3702
46963W        W89875  32.915   0.364  28.927 -0.0905 -0.0388 -0.1650
46964W        W89876  34.116   3.542  30.237  0.1203 -0.0105 -0.1913
46965W        W89877  34.596   2.727  27.665 -0.0630 -0.1683 -0.1798
46966W        W89878   0.212   2.178  29.891  0.0538 -0.2595  0.1801
46967W        W89879  33.092   3.245  29.509  0.0398  0.2415 -0.2703
46968W        W89880  34.001   3.042  30.310  0.2685  0.0667 -0.1598
46969W        W89881  31.807  34.404  28.615  0.3317  0.2172  0.0403
46970W        W89882  32.988   2.001  30.174 -0.2297  0.1984  0.0149
46971W        W89883   0.500   0.829  28.281 -0.1047 -0.1294  0.0827
46972W        W89884  33.865   0.674  31.566  0.2239  0.1524  0.2816
46973W        W89885   1.184   2.447  27.755  0.2122 -0.0167  0.1620
46974W        W89886   0.323   0.718  29.332 -0.0936  0.0832 -0.0381
46975W        W89887  34.544   0.856  29.431 -0.1876  0.1259 -0.1558
46976W        W89888   0.650   1.857   0.171  0.0773 -0.0902  0.0434
46977W        W89889  34.300  33.249  29.074  0.1789  0.1180 -0.0831
46978W        W89890  34.302   4.347  27.004 -0.0004 -0.0236 -0.3243
46979W        W89891  33.871   0.473  29.374  0.0096 -0.1851 -0.2768
46980W        W89892   2.072  34.600  28.201  0.0963 -0.0514 -0.0372
46981W        W89893   0.272   1.562  30.515  0.2456 -0.3209 -0.0060
46982W        W89894  32.779   2.955  29.281 -0.1880 -0.0040 -0.0231
46983W        W89895   0.114   4.304  26.837  0.1031 -0.0297  0.0845
46984W        W89896  34.048   2.746  30.799  0.1874 -0.1252  0.0062
46985W        W89897  33.435   3.267  31.125 -0.1232  0.1688  0.1477
46986W        W89898  33.220   2.073  28.019  0.1405 -0.2837 -0.1211
46987W        W89899  33.715   3.063   0.040  0.1464 -0.1067 -0.3601
46988W        W89900  34.323   3.387  29.840  0.0423  0.0719 -0.1630
46989W        W89901   1.011   3.919  28.973 -0.0960 -0.2987  0.2777
46990W        W89902   2.216   1.636  27.809 -0.0519  0.1548 -0.2802
46991W        W89903  34.216   1.599  30.088 -0.0519  0.2133  0.0454
46992W        W89904  33.806   2.638  30.006 -0.0442 -0.0629  0.0389
46993W        W89905  33.349   0.014  28.321 -0.3390 -0.2197  0.0336
46994W        W89906  33.721   2.211  27.720 -0.2617 -0.1550  0.2715
46995W        W89907  34.261   2.513  29.038  0.0899  0.1215 -0.1437
46996W        W89908  34.156   2.540  31.618  0.0592  0.2597 -0.1198
46997W        W89909  33.932   1.992  30.118 -0.0791  0.1190 -0.2717
46998W        W89910  33.912   0.976  29.457  0.1646  0.0976  0.6580
46999W        W89911   0.026   0.387  29.725  0.1238 -0.1614  0.3805
47000W        W89912  33.699   1.423  30.129 -0.0388  0.0514  0.0429
47001W        W89913   0.794   1.653  29.323  0.0611 -0.4964  0.1097
47002W        W89914  33.035   1.289  27.993 -0.0876 -0.0333  0.1434
47003W        W89915   1.106   0.139  31.087 -0.1701 -0.2229 -0.0225
47004W        W89916   1.923  34.476  31.497 -0.3082  0.2003 -0.3055
47005W        W89917  33.941   0.927  27.523  0.3756 -0.1647  0.0121
47006W        W89918   0.097   1.480  30.052 -0.1674 -0.1638  0.0036
47007W        W89919  33.807   2.373  30.523 -0.0058  0.5220  0.3046
47008W        W89920  33.105   4.925  31.796  0.0512 -0.2419 -0.0211
47009W        W89921  34.094  34.261  29.576  0.0211 -0.0974  0.1199
47010W        W89922  33.543   3.899  31.807  0.2510  0.0267 -0.0742
47011W        W89923  33.323   0.202  30.687  0.3998  0.4072  0.2385
47012W        W89924  33.739   3.232  31.574 -0.0430 -0.1341  0.1820
47013W        W89925  34.516  34.033  29.381  0.1930  0.0151 -0.0949
47014W        W89926  33.625   1.864  29.319  0.1050 -0.0214  0.0389
47015W        W89927   0.332   1.626  29.099 -0.1286 -0.2441 -0.0169
47016W        W89928  34.520   1.411  30.646  0.1569  0.1998  0.0544
47017W        W89929   0.966   3.184  30.259  0.1971 -0.1301 -0.0002
47018W        W89930   0.288   4.223  31.062 -0.3343 -0.0450 -0.0543
47019W        W89931  32.675  34.151  28.830  0.0407 -0.0224 -0.2249
47020W        W89932   0.119   3.221  29.799  0.1406 -0.1562  0.0627
47021W        W89933   0.441   2.587  29.535 -0.4016  0.2815 -0.0785
47022W        W89934  34.427   1.595  29.295  0.0973 -0.3958 -0.4421
47023W        W89935  34.422   4.814   0.259  0.1738  0.7294  0.0000
47024W        W89936  33.561   1.251  31.328 -0.0943  0.0801 -0.0726
47025W        W89937  33.851   2.671   0.334 -0.0206  0.2419 -0.0007
47026W        W89938   0.078   3.264  31.480  0.1922 -0.0906 -0.2464
47027W        W89939  32.504   5.016  31.029 -0.1337  0.0041  0.3541
47028W        W89940   0.302   0.497  31.631 -0.1157  0.1403  0.0469
47029W        W89941  33.878   0.411  31.097  0.0152 -0.1392 -0.1129
47030W        W89942   0.198   2.496  31.617  0.0678  0.1978 -0.0408
47031W        W89943  32.493   4.725   1.190 -0.1183 -0.1702 -0.2182
47032W        W89944  33.980   3.363   1.694  0.0337  0.2621  0.2603
47033W        W89945  34.653   0.377  31.294 -0.0196  0.0791 -0.0686
47034W        W89946   0.508   1.402  31.970  0.0713 -0.3120  0.2310
47035W        W89947  34.540   1.886  31.825  0.1463 -0.1699 -0.2725
47036W        W89948  31.546   3.793  31.819 -0.1631 -0.1541 -0.2324
47037W        W89949   0.796   0.286  31.785  0.0717 -0.2437 -0.1948
47038W        W89950  33.270   2.413   0.734 -0.1186 -0.0476  0.0914
47039W        W89951  33.739   1.808  30.607 -0.1487 -0.1014  0.0007
47040W        W89952   0.088   2.374   0.571  0.0420 -0.1088  0.3116
47041W        W89953  34.308   2.860  29.855 -0.0213  0.1977 -0.0789
47042W        W89954   0.776   2.027  31.280  0.0180  0.1205  0.2088
47043W        W89955  33.663   1.747   0.148  0.1636 -0.0525  0.0759
47044W        W89956  33.832   2.448   0.750  0.1360  0.3277 -0.0063
47045W        W89957  33.518   4.448  31.001 -0.2980 -0.1268  0.0258
47046W        W89958  34.616   2.870  30.843  0.0781 -0.0724  0.1908
47047W        W89959  33.526  34.587   0.019 -0.1849 -0.4872 -0.0236
47048W        W89960   0.323   3.593  31.815  0.0075  0.4407 -0.0605
47049W        W89961  34.031   2.200   0.277 -0.0267  0.0294 -0.1866
47050W        W89962  34.547   1.520   1.351 -0.2980  0.2894 -0.0930
47051W        W89963  34.546  34.647   0.728 -0.1996 -0.1456  0.2175
47052W        W89964  32.784   3.233  31.632 -0.0291 -0.2943  0.2824
47053W        W89965  34.170  34.649  30.635 -0.2576  0.1602  0.3988
47054W        W89966  34.551   2.861  31.382  0.1360 -0.1331  0.1056
47055W        W89967  34.384   1.465   0.312  0.2279  0.1091 -0.0602
47056W        W89968  34.215   5.141  31.554  0.0833 -0.2172  0.1936
47057W        W89969  33.413   3.803  31.322  0.1279 -0.2607  0.0868
47058W        W89970   1.151   2.212  31.641 -0.0332 -0.0649 -0.0916
47059W        W89971  33.453   2.352   0.193 -0.2076  0.1623  0.2960
47060W        W89972  31.852   1.444   0.612 -0.1186 -0.0342 -0.1901
47061W        W89973  31.446   1.019   0.256  0.1307  0.1067  0.3403
47062W        W89974  34.119   0.198  31.530 -0.0205 -0.4351 -0.2299
47063W        W89975  32.929   6.386  18.892  0.0761  0.0128  0.4009
47064W        W89976  34.603   4.545  16.586 -0.2792  0.2368 -0.1732
47065W        W89977  32.688   4.678  17.203  0.0240 -0.3182  0.0944
47066W        W89978  33.361   2.843  19.150 -0.0024  0.1522 -0.1164
47067W        W89979  33.846   4.271  17.855 -0.0198  0.1961  0.0220
47068W        W89980  33.738   5.557  19.078 -0.2449 -0.0248 -0.3218
47069W        W89981  34.161   2.384  17.773 -0.2463  0.2034  0.1461
47070W        W89982  32.369   5.271  18.217 -0.1436  0.1808 -0.0249
47071W        W89983  32.972   7.224  18.418 -0.2673 -0.4564 -0.2832
47072W        W89984  34.541   4.936  18.549 -0.0248 -0.0558  0.0105
47073W        W89985  34.233   3.918  17.131  0.2731  0.2197 -0.1550
47074W        W89986  32.216   4.098  19.693 -0.1575  0.2564  0.2269
47075W        W89987   0.815   6.351  15.672 -0.1627 -0.0989 -0.1973
47076W        W89988  33.669   5.513  16.732 -0.2988  0.3076 -0.0869
47077W        W89989  33.632   5.431  17.265 -0.0150  0.0081  0.0263
47078W        W89990  33.826   5.182  18.739 -0.1235 -0.1790 -0.0447
47079W        W89991  33.211   7.019  17.490 -0.1809  0.0525  0.2398
47080W        W89992  34.141   6.939  17.295  0.2256  0.0141  0.2233
47081W        W89993  33.026   5.245  17.538  0.0093  0.0442 -0.0046
47082W        W89994  32.380   7.728  16.489  0.2052 -0.1252  0.1186
47083W        W89995  34.417   6.290  16.873  0.1944 -0.2299 -0.0841
47084W        W89996  34.139   8.131  19.994  0.0645  0.1929  0.3317
47085W        W89997  32.382   6.783  16.557 -0.1727 -0.1648  0.2164
47086W        W89998   0.870   7.582  18.563  0.2302 -0.0048  0.4628
47087W        W89999  33.287   6.953  16.310 -0.3283 -0.1683 -0.1767
47088W        W90000  34.144   6.357  18.285  0.2839  0.2474  0.0105
47089W        W90001   0.233   5.209  18.892  0.1257  0.2862  0.0061
47090W        W90002  31.796   6.863  18.367 -0.1506  0.1181  0.1879
47091W        W90003  32.746   6.514  16.240 -0.4081 -0.3224  0.1216
47092W        W90004   0.969   5.353  16.509  0.1330  0.1117 -0.1298
47093W        W90005   0.323   4.245  18.250  0.0095 -0.1200 -0.0651
47094W        W90006  34.648   6.386  17.780 -0.0930  0.2001 -0.0173
47095W        W90007   0.880   4.366  18.222 -0.1071 -0.0987  0.0082
47096W        W90008  32.002   7.457  17.737 -0.1979  0.0472  0.2367
47097W        W90009  33.643   4.668  18.141  0.3633 -0.1338 -0.0840
47098W        W90010  32.612   5.681  16.767 -0.1017 -0.0247  0.3755
47099W        W90011  32.588   5.480  18.974  0.0594  0.0931 -0.0219
47100W        W90012  33.166   4.528  19.611  0.3484 -0.1902  0.1327
47101W        W90013  34.695   3.360  15.997 -0.1568 -0.0344  0.2169
47102W        W90014  31.968   7.432  19.358 -0.1323  0.0093 -0.0359
47103W        W90015  34.069   5.246  17.558  0.1243  0.2790  0.2862
47104W        W90016  33.491   5.987  16.563  0.0116 -0.2161 -0.0705
47105W        W90017  34.259   5.725  17.560  0.0565 -0.0690  0.3267
47106W        W90018  32.310   7.478  18.457  0.1216  0.1428 -0.3009
47107W        W90019  33.626   3.695  18.109 -0.0881  0.0513  0.1466
47108W        W90020   0.836   7.005  20.402  0.3785 -0.0272 -0.1439
47109W        W90021  32.737   6.942  16.049  0.2578 -0.0327  0.1332
47110W        W90022  34.007   7.515  18.917  0.0515  0.2169  0.0752
47111W        W90023  32.431   6.595  17.359 -0.2493 -0.1546 -0.0824
47112W        W90024  32.021   4.366  19.307  0.3414 -0.1640 -0.5632
47113W        W90025  34.085   5.510  18.008  0.0963 -0.2756  0.1822
47114W        W90026  33.644   3.970  20.802 -0.2060  0.0547  0.2350
47115W        W90027  33.092   6.624  16.640  0.0647  0.2156  0.0219
47116W        W90028  33.844   7.285  18.128 -0.0818 -0.2243  0.3115
47117W        W90029  33.147   4.818  17.381  0.0773 -0.1171  0.0522
47118W        W90030  32.755   3.643  19.911  0.0520  0.0474 -0.2011
47119W        W90031  32.511   4.590  18.063  0.0269  0.1224 -0.0333
47120W        W90032  33.314   4.089  16.785  0.2418 -0.3317  0.0416
47121W        W90033   1.173   4.014  17.315  0.0280 -0.0417 -0.0796
47122W        W90034  33.793   6.575  17.369 -0.2472 -0.0355 -0.0826
47123W        W90035  34.252   4.494  18.189  0.1283 -0.0421 -0.0742
47124W        W90036  33.943   5.363  16.357  0.1328 -0.0982 -0.0747
47125W        W90037  33.687   8.097  18.458 -0.3181 -0.0631 -0.2202
47126W        W90038   0.292   6.269  17.249 -0.0918  0.0089 -0.2797
47127W        W90039  33.455   3.100  17.253 -0.1196 -0.1192  0.2221
47128W        W90040  33.613   7.084  18.606 -0.1889 -0.1638  0.2346
47129W        W90041   0.013   2.534  16.987  0.0770 -0.5633 -0.1180
47130W        W90042  32.413   7.966  17.052 -0.0599  0.2525  0.0397
47131W        W90043  34.057   5.037  18.288  0.1254  0.0661  0.1793
47132W        W90044  34.071   6.267  16.484 -0.1189 -0.0803 -0.3970
47133W        W90045  33.305   5.979  20.433  0.0479  0.1362  0.1498
47134W        W90046  33.794   4.900  16.676 -0.1436 -0.0724  0.0372
47135W        W90047  34.317   7.227  19.200  0.4706  0.0884 -0.0725
47136W        W90048  34.250   6.230  20.068 -0.0224 -0.0403 -0.0720
47137W        W90049   0.410   5.654  17.611  0.2093  0.0554 -0.0400
47138W        W90050  33.858   6.686  19.484  0.2462 -0.0992 -0.1909
47139W        W90051  33.274   5.980  19.901 -0.2795 -0.1333 -0.1593
47140W        W90052   0.208   3.269  19.131 -0.2243 -0.1054  0.1377
47141W        W90053   0.405   3.213  16.351  0.0096 -0.2522  0.1741
47142W        W90054  31.047   7.532  15.518  0.4172 -0.2833  0.2232
47143W        W90055  34.348   4.195  18.614 -0.0475  0.1791  0.1300
47144W        W90056  33.063   6.186  16.431 -0.2703 -0.2679  0.1685
47145W        W90057   0.536   5.128  19.707 -0.3197  0.0469 -0.1581
47146W        W90058  33.179   5.886  18.346  0.1386  0.0100 -0.2420
47147W        W90059  32.378   7.810  19.220 -0.1490  0.1054  0.0430
47148W        W90060   0.948   4.839  19.793  0.0797 -0.1341  0.0339
47149W        W90061  33.782   7.666  16.752  0.2204  0.2113 -0.1187
47150W        W90062  34.087   7.067  16.014 -0.2417 -0.0973  0.1628
47151W        W90063  33.157   3.686  18.086 -0.0285 -0.2070 -0.1747
47152W        W90064  34.008   6.029  19.134  0.1348 -0.0793 -0.1090
47153W        W90065  33.488   6.458  16.837  0.4154 -0.2619  0.1284
47154W        W90066  32.338   6.984  17.017 -0.1018  0.2197  0.2412
47155W        W90067  32.297   6.512  18.373  0.1291 -0.2883  0.0476
47156W        W90068   0.019   5.326  15.869  0.1556 -0.0893  0.0385
47157W        W90069  34.460   4.770  17.505 -0.2391  0.2998 -0.3430
47158W        W90070  34.361   4.201  17.777 -0.0465 -0.0532  0.1821
47159W        W90071   0.674   3.388  17.283  0.0219  0.0546 -0.0426
47160W        W90072  32.191   6.811  20.058  0.0237  0.1251  0.2150
47161W        W90073  33.878   6.366  18.704  0.2516 -0.3622  0.0329
47162W        W90074  34.046   4.728  17.835 -0.1530 -0.0186 -0.1399
47163W        W90075   0.495   3.726  18.260 -0.2078  0.0601 -0.0849
47164W        W90076  31.069   7.183  16.936  0.1556 -0.1034 -0.0543
47165W        W90077  34.050   5.630  17.137 -0.1049 -0.2355 -0.2165
47166W        W90078  33.340   6.225  17.457 -0.0966 -0.3176 -0.0013
47167W        W90079  34.071   4.184  20.050  0.1254 -0.1324 -0.1967
47168W        W90080   0.157   5.205  19.438  0.0903  0.0038  0.1122
47169W        W90081  32.863   3.600  16.846  0.3721  0.1351 -0.0738
47170W        W90082  33.172   5.397  18.050  0.3106  0.1610  0.4950
47171W        W90083   0.700   4.861  20.420  0.0839  0.2877  0.3144
47172W        W90084  34.175   6.558  20.479  0.1786 -0.1288  0.1322
47173W        W90085  32.970   6.027  16.937 -0.0883  0.0422 -0.2275
47174W        W90086  32.374   5.061  16.967  0.0547  0.0611  0.0713
47175W        W90087  32.574   6.904  17.798  0.2886  0.1386  0.2559
47176W        W90088  34.490   5.561  18.995 -0.2554 -0.1342  0.1263
47177W        W90089  34.305   6.999  17.737  0.0935 -0.1701  0.0939
47178W        W90090  33.565   7.332  17.180  0.3873  0.0465  0.0444
47179W        W90091  33.532   6.945  17.963 -0.0737 -0.1542  0.0050
47180W        W90092  33.500   3.188  17.967  0.1769  0.0595 -0.0237
47181W        W90093  33.426   3.977  17.719 -0.0353  0.0606  0.1686
47182W        W90094  33.541   4.238  17.253  0.0501  0.1114  0.0825
47183W        W90095  33.617   6.337  19.239  0.1473 -0.0646 -0.0574
47184W        W90096  33.288   4.945  17.876  0.5813 -0.0875 -0.0933
47185W        W90097  33.611   6.701  18.926  0.0019  0.3004 -0.2159
47186W        W90098  34.178   6.526  16.094  0.0551 -0.1829  0.0459
47187W        W90099  34.095   5.647  18.674  0.1555  0.1357 -0.1451
47188W        W90100  33.717   5.962  17.494 -0.5055  0.2161  0.3110
47189W        W90101  33.161   6.751  18.228  0.1805  0.0622  0.2644
47190W        W90102  32.680   3.288  19.536  0.1615  0.3854 -0.1038
47191W        W90103  34.175   5.404  19.343 -0.1018 -0.1382  0.0063
47192W        W90104  32.474   4.298  19.099 -0.1222 -0.0973  0.2329
47193W        W90105  33.884   3.818  17.618 -0.4913  0.1203  0.0361
47194W        W90106  33.924   3.462  16.321  0.4131 -0.1912  0.1259
47195W        W90107  34.539   6.675  17.271 -0.0680  0.1320  0.0298
47196W        W90108  32.485   4.044  17.963  0.1705  0.1737  0.2242
47197W        W90109  32.899   7.941  20.569 -0.4050  0.0490 -0.1006
47198W        W90110  32.930   5.009  16.914 -0.2262 -0.0154 -0.0203
47199W        W90111  34.634   6.453  15.776  0.0262  0.0451 -0.0554
47200W        W90112   1.047   5.925  18.618 -0.0332  0.0526  0.1354
47201W        W90113  34.465   2.796  16.405 -0.1060  0.0191  0.0853
47202W        W90114  33.143   6.659  17.200 -0.1721 -0.0603 -0.1224
47203W        W90115  34.617   6.652  18.827  0.0558  0.0784 -0.0130
47204W        W90116  33.105   6.557  21.123 -0.1681  0.2828  0.2899
47205W        W90117  33.779   7.092  17.572 -0.0082 -0.1292 -0.2668
47206W        W90118   0.222   5.527  16.642 -0.1995 -0.3467  0.0241
47207W        W90119  33.983   5.142  17.067 -0.0603  0.0087  0.1043
47208W        W90120  33.736   7.585  18.527  0.0398 -0.0477  0.0051
47209W        W90121  33.783   6.030  18.372 -0.1786 -0.1024  0.0241
47210W        W90122  32.431   3.445  17.866 -0.0682 -0.1641 -0.1218
47211W        W90123  32.708   6.846  20.831 -0.3502  0.1395 -0.1888
47212W        W90124  32.821   5.364  18.475 -0.1754  0.3273  0.0187
47213W        W90125  32.715   7.083  16.684  0.0409  0.0277  0.1249
47214W        W90126   0.241   4.116  16.420  0.0340  0.1315 -0.0516
47215W        W90127  33.003   7.133  17.945  0.2952  0.1069  0.0401
47216W        W90128  31.399   6.744  16.671  0.0191 -0.0562 -0.1346
47217W        W90129  32.887   7.587  15.899 -0.4578 -0.2620 -0.2198
47218W        W90130  33.434   4.481  17.679  0.0783  0.0097 -0.0107
47219W        W90131   0.038   3.051  16.707  0.4154  0.0034  0.0321
47220W        W90132  33.569   4.761  19.910 -0.1048 -0.0480 -0.2484
47221W        W90133  34.022   7.351  19.599 -0.0813  0.1115  0.0016
47222W        W90134  33.025   3.435  17.244 -0.3690  0.0334  0.1155
47223W        W90135  33.874   6.117  17.001  0.0082 -0.1488 -0.4472
47224W        W90136   1.256   6.924  16.546 -0.0906 -0.1378 -0.2353
47225W        W90137  34.229   6.923  18.207 -0.0775 -0.2448  0.3209
47226W        W90138   0.016   6.844  18.004 -0.0828 -0.1493  0.0324
47227W        W90139  33.316   7.884  19.691 -0.3104  0.1053  0.1360
47228W        W90140  33.652   4.398  16.551  0.0900 -0.1973 -0.3771
47229W        W90141  32.803   6.848  19.495  0.2901 -0.0251  0.1013
47230W        W90142  32.133   4.779  17.352 -0.0774  0.0823  0.5193
47231W        W90143  32.999   4.254  17.893  0.0181  0.1564  0.3313
47232W        W90144  32.720   4.151  16.974  0.1091  0.3163  0.2757
47233W        W90145  33.918   2.745  18.052  0.0201 -0.1107 -0.0281
47234W        W90146  33.574   6.874  17.090 -0.1764  0.0973 -0.1489
47235W        W90147  33.223   5.440  18.680 -0.2551 -0.0508  0.0018
47236W        W90148  32.423   3.261  16.843  0.0675  0.3916  0.0313
47237W        W90149  33.802   6.841  16.358  0.2468  0.3819  0.2840
47238W        W90150  32.662   5.486  17.794  0.0383 -0.0373 -0.1581
47239W        W90151  34.134   3.814  18.049 -0.1565  0.0050  0.0018
47240W        W90152  31.632   4.317  17.975 -0.4018 -0.0814  0.0147
47241W        W90153  31.532   7.012  17.110 -0.4285 -0.2719 -0.1761
47242W        W90154  32.903   7.839  16.914 -0.2766 -0.1212 -0.0725
47243W        W90155   0.532   5.645  18.728 -0.1450  0.0448  0.3335
47244W        W90156  33.269   6.971  19.938 -0.1086 -0.1323  0.2065
47245W        W90157  32.528   6.225  16.607  0.3307 -0.2700  0.2078
47246W        W90158  34.501   6.938  20.201 -0.2938 -0.1034 -0.0639
47247W        W90159  34.454   5.470  16.349  0.1190 -0.2036  0.1195
47248W        W90160  33.142   7.159  16.933  0.0573  0.0453 -0.1611
47249W        W90161   0.029   3.898  17.314 -0.0424 -0.3179  0.2134
47250W        W90162  34.462   4.987  17.997 -0.0453  0.1228 -0.4316
47251W        W90163  32.668   6.831  18.342  0.0002  0.2591  0.0338
47252W        W90164  33.472   5.048  16.997 -0.2009  0.0363  0.1996
47253W        W90165  32.727   6.498  16.972 -0.0038  0.1803 -0.0025
47254W        W90166  33.434   5.872  17.060  0.1633 -0.2463 -0.1690
47255W        W90167  33.484   3.554  19.504  0.0796  0.2971  0.4618
47256W        W90168  32.827   6.315  18.265  0.0366 -0.0532 -0.1217
47257W        W90169  32.888   6.064  17.849 -0.0273  0.0016  0.0324
47258W        W90170  33.765   4.874  17.436 -0.4934 -0.1728 -0.0688
47259W        W90171  32.861   2.101  18.748  0.1588  0.2904  0.0149
47260W        W90172  32.815   5.012  18.098 -0.1087 -0.0031 -0.1615
47261W        W90173  34.276   5.108  16.639  0.0792 -0.1643 -0.0502
47262W        W90174  31.939   6.770  16.726 -0.2949 -0.1748  0.0621
47263W        W90175  33.384   4.067  19.511 -0.1540  0.0473 -0.0515
47264W        W90176  34.218   3.655  19.992  0.1172 -0.2492  0.4080
47265W        W90177  32.313   4.473  16.221  0.0011 -0.0131  0.0236
47266W        W90178  33.565   5.852  19.442 -0.2028  0.3273 -0.0421
47267W        W90179   0.529   6.134  18.525  0.2782  0.4606 -0.0742
47268W        W90180   1.094   7.331  19.892  0.1900  0.0673 -0.0505
47269W        W90181  33.440   4.129  18.703 -0.0044  0.1485 -0.1695
47270W        W90182  33.418   5.087  18.402  0.0227 -0.1106 -0.0107
47271W        W90183  33.296   3.663  18.853 -0.1208 -0.0231 -0.0530
47272W        W90184  34.287   7.838  19.177 -0.2711  0.2932  0.0476
47273W        W90185  33.957   3.257  18.371 -0.1015 -0.1811 -0.0358
47274W        W90186  33.339   6.292  18.177  0.0602  0.0990  0.1601
47275W        W90187  33.894   4.752  16.212 -0.0317  0.0559  0.0864
47276W        W90188   1.079   6.368  19.580 -0.2550  0.2383  0.2229
47277W        W90189   0.301   4.377  16.917  0.2736  0.0927  0.2024
47278W        W90190  34.495   8.258  18.625 -0.0585  0.6815  0.1979
47279W        W90191  32.535   2.742  17.573 -0.3427 -0.1327 -0.1563
47280W        W90192  33.585   7.159  16.693  0.0941 -0.3026  0.1230
47281W        W90193  34.643   6.411  18.294  0.1403 -0.2099  0.4014
47282W        W90194  34.514   4.352  17.295 -0.1244 -0.2288  0.1201
47283W        W90195  33.544   7.506  19.357 -0.1183  0.0831  0.0303
47284W        W90196  34.675   5.939  22.997  0.1004  0.0558 -0.4128
47285W        W90197  34.260   5.657  20.074  0.0173 -0.1757 -0.1487
47286W        W90198  32.823   4.161  20.161 -0.1740  0.1024 -0.3242
47287W        W90199  33.753   3.584  23.857  0.0576  0.1998  0.0037
47288W        W90200  33.353   5.380  23.016  0.0863 -0.2586  0.4983
47289W        W90201   0.184   6.399  23.144  0.0438  0.3971  0.2862
47290W        W90202  34.072   5.183  20.888  0.0385 -0.0007  0.0836
47291W        W90203  33.014   4.282  21.583  0.0331  0.0595  0.5631
47292W        W90204  32.904   6.245  20.161 -0.0814 -0.2331  0.0705
47293W        W90205  32.530   5.525  22.179 -0.0897  0.1549 -0.1813
47294W        W90206  34.306   3.982  19.086  0.2402  0.1348  0.2221
47295W        W90207  34.115   5.819  23.664  0.1736 -0.2125 -0.0901
47296W        W90208  34.162   8.021  21.015 -0.0050  0.1629  0.1768
47297W        W90209  32.881   5.099  19.652  0.1943 -0.0448  0.0097
47298W        W90210  33.162   5.805  23.415 -0.1576  0.2413 -0.1635
47299W        W90211  32.940   4.619  21.084 -0.2711 -0.3581 -0.0649
47300W        W90212  34.106   8.727  22.681 -0.2908  0.0470 -0.1230
47301W        W90213  33.874   6.798  23.387 -0.0001  0.3185 -0.0511
47302W        W90214  32.126   6.664  22.686  0.2041 -0.2758 -0.1512
47303W        W90215  31.311   6.861  22.099  0.0584 -0.4289  0.0360
47304W        W90216  33.594   7.034  23.779  0.0069  0.0855  0.3672
47305W        W90217   1.294   7.523  23.569 -0.0983  0.1922 -0.0394
47306W        W90218  33.345   4.921  19.441  0.1119  0.0716 -0.1469
47307W        W90219  33.189   7.033  24.099  0.0786 -0.1667  0.2959
47308W        W90220  33.010   6.478  20.631 -0.0613 -0.0582  0.2846
47309W        W90221  33.649   7.057  24.352 -0.0291  0.0345 -0.2821
47310W        W90222   0.310   5.959  21.751 -0.1341  0.2764 -0.0429
47311W        W90223  31.913   7.642  22.253 -0.0232 -0.0609 -0.0390
47312W        W90224  33.399   8.500  21.508  0.3281  0.0281 -0.0844
47313W        W90225  34.478   3.532  19.582  0.0306  0.0890 -0.1027
47314W        W90226  33.717   3.169  21.074 -0.3122 -0.2442  0.0568
47315W        W90227  31.979   7.984  22.668 -0.0779 -0.0541 -0.0215
47316W        W90228  34.000   5.215  23.136 -0.0584  0.3158  0.1740
47317W        W90229  32.342   7.658  22.577  0.0330 -0.2208  0.0306
47318W        W90230  31.346   6.404  22.262  0.2432 -0.2619 -0.1062
47319W        W90231  32.365   5.920  21.887 -0.2132 -0.1641  0.5554
47320W        W90232  33.449   6.589  23.503 -0.2621  0.1466  0.1113
47321W        W90233  31.586   5.117  22.911  0.0269 -0.1813 -0.0265
47322W        W90234  32.673   3.623  20.384  0.0622  0.1240  0.0806
47323W        W90235  33.290   7.486  23.020 -0.3580  0.2941  0.0064
47324W        W90236  33.921   4.411  22.531 -0.0649  0.1665  0.1959
47325W        W90237  34.324   5.135  20.169  0.2107 -0.2356  0.2235
47326W        W90238   0.087   6.565  20.812  0.1429 -0.0007 -0.2007
47327W        W90239  32.637   7.521  23.397  0.0889 -0.1259  0.3076
47328W        W90240  33.431   3.986  23.731  0.1297  0.0792 -0.0021
47329W        W90241   0.132   6.405  23.719 -0.1407  0.0450 -0.1788
47330W        W90242  32.711   7.011  19.956  0.0209  0.1439  0.0932
47331W        W90243  33.256   5.049  21.856  0.0859  0.4908 -0.2454
47332W        W90244  31.883   5.161  19.187  0.2859 -0.1314  0.1716
47333W        W90245  33.140   3.915  22.596 -0.1267 -0.2149 -0.2275
47334W        W90246   0.591   5.778  24.897  0.1232 -0.2463  0.0727
47335W        W90247  34.240   4.924  23.606  0.1631  0.1027 -0.1995
47336W        W90248  33.775   5.836  21.338 -0.2071  0.0693  0.0421
47337W        W90249  31.824   5.852  23.323 -0.1871 -0.2198  0.0320
47338W        W90250  33.134   5.793  22.613  0.4804 -0.1259 -0.1710
47339W        W90251  34.177   3.126  24.502 -0.0615 -0.1870  0.1745
47340W        W90252  33.502   3.669  21.679  0.0951 -0.1227 -0.2142
47341W        W90253  33.616   3.366  20.113 -0.3313  0.0508 -0.0001
47342W        W90254  33.926   6.700  19.944 -0.0476  0.2538 -0.0382
47343W        W90255  32.992   5.473  20.582  0.3725  0.2285 -0.1064
47344W        W90256  33.471   3.603  22.921 -0.2037  0.0243 -0.1781
47345W        W90257  33.022   5.663  19.563  0.1637 -0.1266 -0.2169
47346W        W90258  32.112   7.127  22.513 -0.0214  0.3862  0.1127
47347W        W90259  33.936   6.728  21.207  0.2888 -0.0659  0.1961
47348W        W90260  34.518   5.379  19.740 -0.3442  0.3031  0.2643
47349W        W90261  32.911   6.253  22.649  0.2742 -0.1721 -0.0659
47350W        W90262  32.976   2.893  19.591  0.2444 -0.0932  0.0654
47351W        W90263  33.607   7.489  19.829 -0.1209  0.1674 -0.3204
47352W        W90264  33.268   7.040  20.527  0.1306  0.0064 -0.1060
47353W        W90265  34.480   6.585  22.453 -0.0762  0.2534  0.0575
47354W        W90266  32.682   5.874  23.519 -0.3667 -0.0081 -0.1632
47355W        W90267  34.596   5.949  19.741  0.0884 -0.1313 -0.0317
47356W        W90268  33.384   7.400  24.626 -0.0156  0.2544  0.1614
47357W        W90269  32.521   6.314  23.369 -0.3103 -0.0241 -0.1583
47358W        W90270  34.652   6.273  20.422  0.0944  0.1644  0.0310
47359W        W90271  33.702   6.463  23.026  0.1197 -0.3144 -0.1256
47360W        W90272  33.690   6.307  22.145  0.0087 -0.2642  0.0370
47361W        W90273  33.850   4.474  21.867 -0.2545  0.2479  0.0294
47362W        W90274  33.487   5.872  18.758  0.2421  0.2315 -0.1213
47363W        W90275  33.756   7.098  20.208 -0.0202 -0.0355 -0.1470
47364W        W90276  34.527   3.676  23.672  0.0663  0.0859 -0.2669
47365W        W90277  33.714   5.759  19.940 -0.1259 -0.1657 -0.2193
47366W        W90278  33.624   4.449  23.607 -0.2009 -0.1130  0.0047
47367W        W90279  32.899   4.611  22.876  0.0787 -0.0497  0.0927
47368W        W90280  32.001   6.338  23.947 -0.2783  0.0177 -0.1727
47369W        W90281  34.676   5.058  23.707  0.0002 -0.1327 -0.1556
47370W        W90282  33.467   6.831  20.934  0.0733  0.1307  0.2497
47371W        W90283  31.931   6.567  20.420  0.4071 -0.0776 -0.3295
47372W        W90284  33.800   3.391  21.989 -0.0427  0.3627 -0.2936
47373W        W90285  33.655   5.610  22.269 -0.1213 -0.0460 -0.4354
47374W        W90286   0.411   7.005  20.657  0.1393  0.1016 -0.0845
47375W        W90287  32.535   8.589  21.381  0.3623 -0.0232  0.1563
47376W        W90288  32.873   7.138  23.064  0.1945  0.0142 -0.1065
47377W        W90289  33.603   4.914  20.895 -0.0308  0.1850  0.0469
47378W        W90290  33.952   5.451  20.447 -0.1043 -0.2611 -0.3800
47379W        W90291  33.237   3.096  22.137 -0.2943 -0.1845 -0.0493
47380W        W90292  34.578   3.783  22.154  0.0082  0.1038  0.0543
47381W        W90293  33.207   7.034  23.492 -0.1427 -0.1028 -0.6637
47382W        W90294  34.664   5.268  24.412 -0.1037 -0.1132 -0.1873
47383W        W90295  32.422   4.378  20.373  0.2056 -0.1943 -0.2764
47384W        W90296  32.821   5.831  21.029  0.0427 -0.1705 -0.0502
47385W        W90297  32.722   7.051  21.916  0.0127  0.2719  0.1003
47386W        W90298  33.565   7.072  19.599 -0.2677 -0.2028  0.3602
47387W        W90299  33.087   5.568  21.732 -0.0699  0.0779 -0.1652
47388W        W90300  33.808   5.060  24.043  0.0647 -0.1159 -0.1373
47389W        W90301  33.462   5.177  22.385 -0.0653  0.0277 -0.0025
47390W        W90302  33.532   2.765  22.910  0.2399 -0.0680 -0.0491
47391W        W90303  34.220   5.718  22.198 -0.1762  0.2630  0.0038
47392W        W90304  33.950   5.354  23.657 -0.0173 -0.0342 -0.2125
47393W        W90305  32.835   6.631  23.237 -0.4249 -0.0403  0.1765
47394W        W90306  33.833   4.940  20.386 -0.1125  0.6430  0.0177
47395W        W90307  33.493   6.248  22.594 -0.1640  0.1776 -0.1516
47396W        W90308  34.137   7.674  21.502  0.1928 -0.2503  0.0592
47397W        W90309  33.445   4.838  23.821  0.1564 -0.4566  0.1485
47398W        W90310  33.328   6.370  21.764  0.2261 -0.0431  0.1783
47399W        W90311  32.264   6.941  20.591  0.0778 -0.2241  0.1190
47400W        W90312  33.914   6.667  24.010  0.3778 -0.1465 -0.1351
47401W        W90313   1.104   5.052  20.684 -0.0524  0.1436  0.0801
47402W        W90314  32.650   3.889  22.092 -0.2667 -0.0577  0.1915
47403W        W90315  33.332   4.860  22.800  0.2629  0.0858  0.0674
47404W        W90316  32.357   5.808  23.104  0.0763  0.2082  0.0814
47405W        W90317  33.328   4.501  20.775 -0.3912 -0.0178 -0.2024
47406W        W90318  33.001   5.521  22.232 -0.1374 -0.0826 -0.0057
47407W        W90319  33.761   5.945  21.830 -0.1234  0.0467  0.2386
47408W        W90320  33.333   6.288  23.883 -0.2750  0.3611 -0.0088
47409W        W90321  34.569   5.994  19.274 -0.0524  0.2812  0.1864
47410W        W90322  34.654   6.194  22.138 -0.1158  0.3645  0.1204
47411W        W90323  33.560   4.151  22.184  0.2268 -0.3521  0.0485
47412W        W90324  33.332   4.380  22.594 -0.0635  0.1827 -0.0189
47413W        W90325  34.319   4.004  24.937 -0.0512 -0.1508  0.0000
47414W        W90326  33.089   5.065  23.280  0.3641  0.0890  0.0028
47415W        W90327  33.197   3.890  19.907  0.1134  0.1566  0.2624
47416W        W90328  34.298   6.588  20.958  0.1230 -0.0657 -0.0851
47417W        W90329  32.009   5.165  21.383  0.0470 -0.1686  0.2988
47418W        W90330  32.483   7.612  23.871  0.2268  0.2071  0.2855
47419W        W90331  33.514   4.655  18.617 -0.1010 -0.0082  0.2389
47420W        W90332   0.207   6.266  19.008  0.0884 -0.1002  0.0017
47421W        W90333  34.471   6.685  24.128  0.0191  0.4979  0.1474
47422W        W90334   0.144   3.487  20.448  0.1515 -0.0920  0.0789
47423W        W90335  32.369   7.953  20.714 -0.0724 -0.2957 -0.5200
47424W        W90336  33.033   7.049  21.130 -0.0986  0.1804  0.1711
47425W        W90337  33.968   6.407  22.524  0.0315 -0.2927  0.1130
47426W        W90338  33.050   6.762  21.628 -0.2299 -0.0159  0.1056
47427W        W90339  34.303   5.629  23.087 -0.2258  0.2496 -0.3043
47428W        W90340  33.543   6.830  21.458  0.1160 -0.0374  0.0068
47429W        W90341  32.276   7.358  23.063  0.1867  0.0776  0.0300
47430W        W90342  32.741   4.241  23.871  0.0137  0.3274  0.2059
47431W        W90343  33.029   3.805  20.776 -0.4101  0.1208 -0.0406
47432W        W90344  33.272   8.095  23.895  0.1224 -0.2080 -0.1239
47433W        W90345  33.574   5.479  21.714 -0.1123  0.2105 -0.0394
47434W        W90346  34.036   7.676  20.084  0.0168  0.3195  0.1995
47435W        W90347  34.143   3.287  21.237 -0.1824  0.0283 -0.1949
47436W        W90348  32.980   8.193  21.519  0.1732  0.2281  0.0701
47437W        W90349  32.602   6.515  19.835 -0.3142  0.0125 -0.2305
47438W        W90350  32.439   8.930  21.831 -0.2212  0.0691 -0.0537
47439W        W90351  32.631   5.953  22.362 -0.1021 -0.2591  0.3069
47440W        W90352  32.285   3.324  19.917 -0.4343 -0.1422  0.1938
47441W        W90353   0.406   6.143  24.509 -0.4404  0.1614  0.1694
47442W        W90354  33.035   6.263  23.510 -0.1631  0.3034  0.1379
47443W        W90355  34.390   4.210  22.041 -0.2460  0.0015 -0.1152
47444W        W90356  32.893   4.800  21.668  0.1124  0.1981  0.0180
47445W        W90357  34.279   7.703  20.575 -0.2816  0.1961 -0.1302
47446W        W90358  33.649   8.231  20.911 -0.2020  0.0509  0.0510
47447W        W90359   0.091   8.370  24.425  0.4342 -0.0588 -0.1598
47448W        W90360  34.676   7.084  23.834 -0.0625  0.0946  0.2329
47449W        W90361  31.985   3.552  20.247  0.4182 -0.0010 -0.1753
47450W        W90362  31.971   4.826  23.843 -0.0255  0.1902  0.1773
47451W        W90363  33.784   5.292  21.257  0.0850 -0.2946  0.3819
47452W        W90364  33.292   5.940  22.123  0.2351 -0.0605  0.1577
47453W        W90365  34.059   4.805  19.946 -0.0463 -0.1729 -0.1148
47454W        W90366  33.276   4.155  21.129  0.1507 -0.0388  0.4298
47455W        W90367   0.005   5.778  20.273 -0.1971 -0.0380  0.0680
47456W        W90368  34.028   6.072  23.092  0.1043  0.1041  0.0734
47457W        W90369  32.945   3.280  20.756 -0.2192 -0.1334  0.1779
47458W        W90370   0.343   7.850  20.376  0.1622 -0.0663 -0.3963
47459W        W90371  32.570   4.644  22.426 -0.2514  0.1856 -0.2683
47460W        W90372   0.139   4.187  22.214  0.4874 -0.2237 -0.2261
47461W        W90373  33.286   5.235  21.420 -0.0886  0.2967 -0.0124
47462W        W90374  32.729   7.877  21.098 -0.1694 -0.0053  0.1872
47463W        W90375  32.583   6.670  20.378 -0.4104 -0.1615 -0.3066
47464W        W90376   0.557   5.604  22.237  0.0861  0.0028  0.2002
47465W        W90377  33.433   6.609  24.261 -0.1301  0.0216 -0.0261
47466W        W90378  32.836   4.743  20.422 -0.0831  0.3555  0.1044
47467W        W90379   0.744   6.790  24.577  0.1511 -0.2361 -0.2365
47468W        W90380  33.859   4.783  21.274 -0.2007  0.0496 -0.0219
47469W        W90381  33.938   6.935  20.706  0.0843  0.0480  0.1269
47470W        W90382  34.222   6.141  21.952 -0.0022 -0.1752 -0.0443
47471W        W90383  33.773   4.289  21.191 -0.0230 -0.1921  0.0353
47472W        W90384  32.814   5.120  22.759 -0.1617 -0.1518 -0.1064
47473W        W90385  33.584   4.205  19.993  0.2031 -0.2068 -0.0316
47474W        W90386  33.466   6.563  20.492 -0.0885  0.0480 -0.0123
47475W        W90387  33.581   6.781  21.971 -0.1683  0.1558  0.1587
47476W        W90388  33.651   4.456  22.987  0.0650  0.4889 -0.0219
47477W        W90389  32.217   4.529  22.942  0.0054 -0.3972 -0.3284
47478W        W90390  32.530   5.480  19.744 -0.4402  0.0447 -0.2653
47479W        W90391  33.726   4.522  19.494 -0.0736  0.0534  0.1286
47480W        W90392  32.985   3.475  22.451 -0.0533  0.1691  0.2337
47481W        W90393  32.451   4.954  21.238 -0.0484  0.0967 -0.0682
47482W        W90394  34.351   4.620  20.313  0.1297  0.1626 -0.1157
47483W        W90395  32.521   3.865  19.335  0.0432  0.1840  0.0051
47484W        W90396  33.938   3.919  22.744 -0.3415 -0.2306 -0.1728
47485W        W90397  34.621   3.177  24.102  0.4195 -0.2139 -0.3447
47486W        W90398  33.666   5.513  18.374  0.3390 -0.1811  0.3080
47487W        W90399  34.138   4.829  22.336 -0.2149  0.0021 -0.0965
47488W        W90400   0.435   4.734  21.859 -0.0442  0.0002  0.0044
47489W        W90401  34.664   7.540  22.844  0.1369 -0.0599  0.1211
47490W        W90402  32.912   4.218  22.336  0.1102 -0.1346  0.1846
47491W        W90403  33.592   4.701  22.264  0.1492 -0.0829  0.1166
47492W        W90404  34.470   3.655  25.288 -0.0544 -0.0171  0.0767
47493W        W90405  33.212   6.341  23.036 -0.1809 -0.1437  0.0176
47494W        W90406  32.912   3.488  21.975  0.1412  0.3584  0.2597
47495W        W90407  33.094   4.778  22.322  0.3520 -0.0816  0.0016
47496W        W90408  33.689   4.951  21.695 -0.2485  0.0926  0.0461
47497W        W90409   1.613   5.486  22.017  0.3868  0.0340  0.0554
47498W        W90410  34.630   6.462  19.900  0.1556 -0.0758  0.0851
47499W        W90411  34.386   6.099  22.593 -0.2359  0.1376 -0.1684
47500W        W90412  32.795   2.428  22.616  0.0132 -0.0249 -0.0286
47501W        W90413  33.880   5.755  20.840  0.1659 -0.0280  0.0579
47502W        W90414  34.506   6.959  20.692 -0.3383  0.0126 -0.3844
47503W        W90415  33.824   4.969  22.681  0.0944 -0.1582  0.0360
47504W        W90416  33.861   8.233  22.819 -0.1157  0.2882  0.0220
47505W        W90417   0.576   4.374  25.426  0.1912 -0.0845 -0.0002
47506W        W90418  34.473   5.936  25.866 -0.0656  0.1472  0.0043
47507W        W90419  33.256   3.921  24.648  0.3380 -0.1506 -0.0989
47508W        W90420  33.257   3.570  25.603 -0.1474  0.0062 -0.0594
47509W        W90421  34.431   5.603  26.197 -0.0059 -0.0278 -0.0693
47510W        W90422  33.781   7.163  28.111  0.3328 -0.0172  0.0359
47511W        W90423  34.069   3.946  23.741 -0.0054 -0.1575 -0.1466
47512W        W90424  33.000   3.998  25.750 -0.2063  0.2314 -0.1580
47513W        W90425  32.707   4.729  24.074  0.0774 -0.0583 -0.0931
47514W        W90426  34.001   4.112  26.066  0.3226 -0.0271 -0.0907
47515W        W90427  34.545   5.173  23.201 -0.2135  0.1530 -0.1576
47516W        W90428  34.475   4.802  27.025  0.0986  0.0921  0.1517
47517W        W90429  34.404   5.999  25.343  0.0556 -0.1876 -0.1330
47518W        W90430  33.041   4.148  23.434  0.0106  0.3337  0.3448
47519W        W90431  33.070   5.140  25.579  0.2598  0.1902  0.0939
47520W        W90432  33.947   5.703  25.741 -0.0694  0.0689 -0.1334
47521W        W90433  33.329   7.017  25.117 -0.0107 -0.3357 -0.0197
47522W        W90434  32.824   7.263  27.289 -0.2903  0.3284  0.0411
47523W        W90435  32.151   5.766  25.968 -0.2577  0.1462 -0.1112
47524W        W90436  31.986   7.751  24.940  0.1751  0.1135 -0.0130
47525W        W90437  34.236   5.896  24.289 -0.1117  0.0307 -0.0364
47526W        W90438  34.655   8.165  26.920  0.2477  0.0913 -0.0451
47527W        W90439  33.089   6.984  24.613  0.1557  0.0967 -0.2218
47528W        W90440   0.140   6.565  27.666 -0.1037 -0.0181 -0.1776
47529W        W90441   0.609   6.440  23.429  0.0009 -0.2381  0.2881
47530W        W90442  33.980   6.366  25.696  0.0105 -0.3464 -0.2260
47531W        W90443  34.154   5.114  27.933 -0.2113  0.4083  0.0285
47532W        W90444  33.176   6.586  26.735 -0.0350  0.1089 -0.0416
47533W        W90445  33.385   5.510  24.223 -0.2826  0.1277 -0.0603
47534W        W90446  34.033   4.563  24.022  0.0285  0.2789 -0.2659
47535W        W90447   0.423   3.924  25.158  0.0202 -0.0932  0.1822
47536W        W90448  33.695   6.118  27.143  0.0285 -0.0149  0.0211
47537W        W90449   0.457   4.329  26.134 -0.0094  0.0702  0.2623
47538W        W90450  33.468   6.214  27.670 -0.0479  0.1085 -0.0514
47539W        W90451  33.864   5.350  25.400  0.1635 -0.1749 -0.1269
47540W        W90452  32.499   5.061  23.764 -0.1243 -0.1429 -0.0024
47541W        W90453  33.613   5.643  26.607 -0.1274  0.2893  0.1406
47542W        W90454  33.869   5.661  27.212  0.0702  0.3179  0.1252
47543W        W90455  33.417   3.838  24.200 -0.0382  0.2750  0.0253
47544W        W90456  33.561   7.177  26.152 -0.0315  0.2294  0.2985
47545W        W90457   0.023   5.101  27.338  0.5308  0.0126 -0.1644
47546W        W90458  33.806   5.490  22.731  0.0260  0.3355  0.0096
47547W        W90459   0.130   5.312  24.953  0.0740 -0.1232  0.1375
47548W        W90460  32.122   7.418  26.559  0.0468 -0.1120  0.1258
47549W        W90461  34.368   5.412  27.069 -0.0830  0.2225  0.2969
47550W        W90462   0.965   6.339  27.375 -0.1534 -0.3664 -0.1044
47551W        W90463  32.969   7.359  23.798 -0.1778 -0.1811 -0.0262
47552W        W90464  31.892   7.859  26.525  0.0614  0.0106 -0.2377
47553W        W90465  33.592   5.856  23.799  0.0682  0.3334 -0.0186
47554W        W90466  32.897   5.065  27.415 -0.2055 -0.0313 -0.0511
47555W        W90467  33.605   6.982  26.733  0.1727 -0.1554 -0.0578
47556W        W90468  33.580   4.366  26.383 -0.1335  0.2622  0.1859
47557W        W90469  33.820   5.790  24.582 -0.2268  0.0061  0.0337
47558W        W90470  33.403   3.350  27.668 -0.0003 -0.0076  0.2020
47559W        W90471  33.786   6.249  24.787 -0.0037 -0.0377  0.1372
47560W        W90472  34.132   4.507  27.425  0.1414 -0.0776 -0.0781
47561W        W90473  33.430   4.015  26.057  0.0371  0.0608  0.1432
47562W        W90474  34.206   3.050  23.781  0.1100 -0.0401  0.1579
47563W        W90475  34.191   3.532  24.044  0.0405  0.2123  0.1616
47564W        W90476  33.046   6.223  25.532 -0.2814  0.2247  0.0554
47565W        W90477  32.968   4.280  26.614 -0.0120 -0.0203  0.1896
47566W        W90478  33.067   4.331  24.271  0.0276 -0.1105 -0.0363
47567W        W90479  32.981   8.100  25.030 -0.0928 -0.0453  0.0426
47568W        W90480  34.311   7.195  24.752  0.0109 -0.0146  0.0535
47569W        W90481  33.517   4.635  25.333 -0.2732 -0.0367 -0.0244
47570W        W90482  34.172   7.586  28.030  0.2171 -0.2552 -0.0052
47571W        W90483   0.310   3.838  24.337 -0.1946 -0.0468  0.3560
47572W        W90484  32.542   6.469  23.866  0.2727 -0.1460  0.3502
47573W        W90485  32.126   5.257  24.777  0.1332 -0.0071 -0.2894
47574W        W90486  32.365   7.136  24.085 -0.2069 -0.2354  0.0533
47575W        W90487  32.373   4.995  28.017  0.1250 -0.0145 -0.3024
47576W        W90488  32.512   5.255  24.250 -0.1414  0.0945 -0.0551
47577W        W90489  32.622   7.685  27.101 -0.0914 -0.0302  0.1299
47578W        W90490  32.763   5.776  28.062 -0.0029 -0.1593  0.1261
47579W        W90491   0.722   6.014  25.746 -0.0343 -0.0142  0.0064
47580W        W90492  33.714   7.769  26.095 -0.3454  0.1833  0.0329
47581W        W90493  32.837   6.357  25.094  0.4572 -0.0525 -0.0894
47582W        W90494   0.115   4.115  24.701 -0.1264 -0.3050  0.0142
47583W        W90495  32.835   7.363  24.305  0.0549 -0.1188  0.0205
47584W        W90496  32.722   6.737  24.313 -0.0381  0.0772 -0.0157
47585W        W90497  34.314   4.331  26.543  0.1380  0.2556  0.5319
47586W        W90498  33.309   4.059  23.015  0.0637  0.1803 -0.0522
47587W        W90499   0.637   4.876  25.702 -0.1700 -0.0964 -0.0567
47588W        W90500  33.419   5.236  26.206 -0.0651 -0.1248  0.2106
47589W        W90501  32.426   7.242  26.954  0.2185  0.1351 -0.0127
47590W        W90502   0.928   4.950  27.458  0.0467 -0.1323 -0.1875
47591W        W90503  33.778   7.524  23.931  0.0937 -0.0119 -0.0856
47592W        W90504   0.535   6.477  24.913 -0.3708 -0.1535 -0.0288
47593W        W90505  33.521   3.959  26.903 -0.0218  0.0986  0.2316
47594W        W90506  34.423   6.364  27.437 -0.1196 -0.3766  0.2963
47595W        W90507  33.771   5.652  23.297  0.2695 -0.0053 -0.0180
47596W        W90508  33.494   7.210  25.643 -0.2554  0.1406 -0.3521
47597W        W90509  31.446   5.540  24.852 -0.0172  0.1337  0.1236
47598W        W90510  33.878   5.534  24.139 -0.3730  0.1821 -0.1072
47599W        W90511  31.804   5.384  24.453 -0.4645 -0.2761  0.1080
47600W        W90512  33.428   5.560  24.811 -0.1037  0.0796  0.1114
47601W        W90513   0.984   4.041  25.493 -0.2311 -0.3284 -0.2685
47602W        W90514  32.520   7.175  25.296  0.0915  0.2120  0.0119
47603W        W90515  34.618   5.837  27.882  0.1558 -0.2515 -0.1176
47604W        W90516  34.337   4.605  25.018  0.2959  0.3722  0.0966
47605W        W90517  34.052   4.618  25.880 -0.1953 -0.2535 -0.2116
47606W        W90518  32.522   6.182  25.525  0.1299 -0.2191 -0.0267
47607W        W90519  33.771   6.229  24.160 -0.4843 -0.0768  0.2325
47608W        W90520  32.767   6.799  26.271 -0.5241  0.3567  0.0950
47609W        W90521  33.621   5.353  28.005 -0.2543 -0.3185 -0.0325
47610W        W90522  34.576   5.262  26.608 -0.0360 -0.1037 -0.3085
47611W        W90523  32.536   5.650  25.552 -0.2184  0.3160 -0.0552
47612W        W90524  33.918   5.445  24.935  0.0627 -0.1763 -0.2701
47613W        W90525  32.859   6.549  25.857 -0.0742 -0.0281  0.2246
47614W        W90526  33.133   7.005  27.629  0.1486 -0.0792 -0.0808
47615W        W90527  32.933   7.839  23.696  0.5022 -0.0605 -0.1305
47616W        W90528  32.608   6.350  27.300  0.1582 -0.0835  0.0667
47617W        W90529  33.175   4.427  23.818  0.2845 -0.1829  0.1744
47618W        W90530   0.888   4.524  25.886 -0.2705 -0.1392 -0.2426
47619W        W90531  33.777   4.853  26.299  0.1913 -0.2126  0.0667
47620W        W90532  33.041   5.873  23.960 -0.1253 -0.3568 -0.2348
47621W        W90533  33.570   7.452  26.853  0.0933 -0.0603 -0.0460
47622W        W90534  34.098   4.309  24.656 -0.1203 -0.2730 -0.0648
47623W        W90535   0.393   4.921  26.159 -0.0851 -0.5059  0.0338
47624W        W90536  32.564   3.692  27.390 -0.2491 -0.2557  0.0555
47625W        W90537  34.081   5.438  26.664  0.1373  0.4562  0.3693
47626W        W90538  32.398   3.215  25.735  0.1536  0.0089  0.1884
47627W        W90539   0.497   6.319  27.168 -0.0591 -0.1237  0.0924
47628W        W90540  34.293   4.940  24.180  0.3646 -0.1121  0.0601
47629W        W90541  34.159   4.953  26.565  0.0948 -0.2660  0.1399
47630W        W90542   1.870   5.501  24.098 -0.4467  0.4325 -0.1475
47631W        W90543  32.626   5.236  25.204 -0.2063  0.0252  0.1349
47632W        W90544   0.254   4.722  27.093 -0.1909 -0.0528 -0.0757
47633W        W90545   0.367   4.787  27.575  0.1281  0.2902 -0.0015
47634W        W90546  33.398   5.258  27.271  0.1323  0.0378  0.1120
47635W        W90547  33.476   5.136  25.057 -0.0219  0.0663 -0.0694
47636W        W90548  33.627   5.166  24.583 -0.1439 -0.0447  0.0754
47637W        W90549  34.074   6.755  24.964  0.1830 -0.1069 -0.1189
47638W        W90550  32.258   3.043  26.752  0.0253  0.0372  0.1614
47639W        W90551  33.277   7.500  26.410 -0.1552 -0.0589 -0.2450
47640W        W90552  33.428   5.374  23.580  0.0009  0.1809 -0.0553
47641W        W90553   0.628   5.729  24.313  0.1846 -0.0325 -0.2628
47642W        W90554  33.177   5.517  26.850  0.3154 -0.1539  0.3128
47643W        W90555   1.242   4.264  24.748  0.0178 -0.0522 -0.1388
47644W        W90556  32.779   6.801  24.946 -0.0801  0.2589  0.1203
47645W        W90557  32.889   8.054  26.689 -0.3225 -0.0540 -0.0305
47646W        W90558  32.995   5.930  27.597  0.1334  0.1080  0.1200
47647W        W90559  33.354   6.115  24.484  0.0202  0.0592  0.2343
47648W        W90560  33.109   4.518  25.611 -0.1524 -0.2154  0.1499
47649W        W90561  33.448   5.668  25.359 -0.1354 -0.0380  0.1683
47650W        W90562  33.254   7.566  25.885 -0.0599  0.2440  0.2271
47651W        W90563  33.252   4.734  26.447 -0.2892  0.2243 -0.0279
47652W        W90564  34.436   5.031  26.121  0.3815 -0.1448  0.2256
47653W        W90565  34.258   6.889  27.937  0.3931 -0.1216  0.1483
47654W        W90566  33.044   5.725  25.674  0.0570 -0.3630 -0.2004
47655W        W90567  34.092   7.431  24.321  0.0405 -0.1980  0.5573
47656W        W90568   0.125   5.756  24.377  0.3361 -0.0515 -0.1164
47657W        W90569  31.746   5.422  26.122 -0.0739  0.0629 -0.1064
47658W        W90570  31.156   6.729  22.635  0.1103  0.0467 -0.0933
47659W        W90571  31.937   6.766  25.544  0.3792  0.2112  0.0018
47660W        W90572  32.643   5.445  24.751 -0.0605 -0.0608  0.2947
47661W        W90573  34.648   2.762  24.549 -0.0166 -0.2849 -0.2132
47662W        W90574  34.286   4.584  27.973  0.0523 -0.3418 -0.4032
47663W        W90575  32.019   7.566  27.078 -0.2127 -0.1768  0.5348
47664W        W90576  32.930   3.404  24.723  0.2424 -0.0861  0.1421
47665W        W90577  32.173   6.295  25.877 -0.0972  0.0027  0.2350
47666W        W90578   0.222   5.972  23.462  0.2612 -0.1987  0.1206
47667W        W90579  32.304   5.642  25.104 -0.0144 -0.0571 -0.1448
47668W        W90580  32.554   6.360  26.194 -0.1033 -0.2591 -0.0175
47669W        W90581  33.792   8.277  25.657  0.0407  0.2969  0.0149
47670W        W90582  32.477   3.680  24.671  0.1620  0.2950 -0.0583
47671W        W90583  33.867   5.459  26.219 -0.0736  0.0453  0.2319
47672W        W90584  33.356   4.864  24.323 -0.1175  0.1026  0.0384
47673W        W90585  32.445   5.452  26.225 -0.0669 -0.0249 -0.4991
47674W        W90586   0.668   5.787  23.264 -0.2913  0.1576 -0.2021
47675W        W90587  33.558   4.585  25.906 -0.1333 -0.1676 -0.0019
47676W        W90588  33.958   4.329  25.210  0.2379  0.0603 -0.1412
47677W        W90589   0.028   4.803  25.197  0.4325  0.0076 -0.2523
47678W        W90590  34.481   4.337  26.073  0.3162 -0.2618  0.1693
47679W        W90591  33.061   6.488  24.651 -0.2723 -0.2906 -0.0670
47680W        W90592  33.796   3.126  27.295 -0.0739 -0.2236  0.0927
47681W        W90593   0.268   4.604  23.797 -0.1754 -0.0109 -0.3838
47682W        W90594  33.025   4.972  25.109  0.0537  0.3023  0.1244
47683W        W90595  31.913   7.592  25.911 -0.1106 -0.0389  0.0033
47684W        W90596   0.982   7.336  23.142  0.0999 -0.0230 -0.3415
47685W        W90597   0.797   7.720  26.980 -0.1382  0.0495  0.1812
47686W        W90598  34.672   6.787  28.255  0.2557 -0.1007  0.0465
47687W        W90599  33.008   5.709  24.469 -0.0500 -0.2336  0.0088
47688W        W90600  34.427   5.431  27.609 -0.0684  0.1166  0.1981
47689W        W90601   0.479   5.356  24.634  0.0599 -0.0435  0.1022
47690W        W90602  32.942   6.800  25.438  0.1088  0.1069  0.0928
47691W        W90603  33.615   4.499  24.816 -0.1099  0.0804 -0.2718
47692W        W90604   0.146   4.119  23.566 -0.3694 -0.1515 -0.0567
47693W        W90605  34.332   7.261  27.097 -0.0375  0.0301  0.0561
47694W        W90606  31.384   5.545  23.112 -0.0062  0.2021 -0.1717
47695W        W90607  32.954   5.433  23.669  0.1227 -0.0759  0.3309
47696W        W90608  33.897   5.930  25.187 -0.0040 -0.1280 -0.2652
47697W        W90609  33.629   4.791  27.281 -0.0954  0.1874  0.0386
47698W        W90610   0.633   4.471  26.829  0.2322  0.1579 -0.2415
47699W        W90611  33.436   6.742  27.352  0.2534  0.2523  0.2219
47700W        W90612  34.438   4.457  25.515  0.2044  0.1948 -0.1158
47701W        W90613  34.691   4.062  25.285 -0.2479 -0.0878 -0.0375
47702W        W90614  32.867   2.706  25.306 -0.3058  0.1338 -0.0705
47703W        W90615  33.998   5.146  25.867 -0.3345 -0.2371  0.0214
47704W        W90616  33.544   5.852  22.929  0.1694 -0.0663  0.2336
47705W        W90617   0.257   5.847  25.863 -0.0840  0.0522  0.2076
47706W        W90618  33.882   3.530  27.741  0.1855 -0.2870  0.1372
47707W        W90619  32.033   4.377  24.126 -0.2379 -0.1600 -0.4038
47708W        W90620  34.480   5.781  26.613  0.1806 -0.0767  0.3220
47709W        W90621  34.077   7.287  26.627 -0.0539 -0.2303  0.0626
47710W        W90622   0.277   7.251  28.248  0.3872 -0.3605 -0.0012
47711W        W90623  31.683   4.070  27.776  0.2137  0.2234 -0.2003
47712W        W90624   0.463   6.908  27.879  0.0044  0.0372  0.3655
47713W        W90625  34.591   4.578  27.500  0.0483  0.0775 -0.1527
47714W        W90626  33.623   8.015  27.071  0.0456  0.0575  0.0592
47715W        W90627   0.231   4.160  25.723 -0.1300  0.2193 -0.2586
47716W        W90628  32.925   4.759  24.627 -0.0461 -0.1823 -0.3954
47717W        W90629   0.948   6.120  24.616  0.3373  0.1865 -0.0087
47718W        W90630   0.356   5.252  26.843 -0.0141  0.0110 -0.1704
47719W        W90631  34.273   6.050  24.825 -0.2450  0.4039  0.0705
47720W        W90632  34.049   6.030  27.580  0.0607 -0.0538 -0.1596
47721W        W90633  33.703   3.078  25.731 -0.2382 -0.3638 -0.0637
47722W        W90634  33.891   6.312  23.528  0.1890  0.1475 -0.1039
47723W        W90635  34.079   5.959  26.243 -0.0660 -0.0646  0.2312
47724W        W90636  32.551   4.284  24.298  0.0439  0.0345 -0.0127
47725W        W90637  33.871   6.922  27.204 -0.0360  0.3844 -0.0721
47726W        W90638   0.092   7.800  30.503  0.1277  0.0984  0.0245
47727W        W90639  32.606   4.355  29.020 -0.1969 -0.0399  0.0836
47728W        W90640  33.856   2.902  29.128  0.3109  0.1729 -0.1787
47729W        W90641  33.451   3.957  29.479 -0.2231 -0.0171  0.0180
47730W        W90642  34.656   3.536  30.404  0.0061 -0.1038  0.0302
47731W        W90643  33.671   7.014  31.230  0.3937  0.0560 -0.0396
47732W        W90644   0.366   3.631  27.128 -0.0682  0.0360 -0.2306
47733W        W90645  33.444   2.116  30.150 -0.0955 -0.0174 -0.0362
47734W        W90646  33.191   4.668  28.782 -0.1393  0.0735  0.3793
47735W        W90647  33.630   4.056  29.989  0.1809 -0.2359  0.1695
47736W        W90648  33.120   3.596  29.081  0.2074  0.0926 -0.1239
47737W        W90649   0.375   3.328  30.257  0.1188  0.0019  0.1163
47738W        W90650  34.663   7.049  27.801 -0.1301  0.2986  0.0136
47739W        W90651  33.253   4.180  27.403 -0.0806  0.0869  0.1074
47740W        W90652  33.486   3.933  28.749  0.0497 -0.2188 -0.0500
47741W        W90653  33.744   4.685  30.553  0.2718  0.0024 -0.0843
47742W        W90654  33.803   5.915  29.352 -0.3214  0.2597 -0.0345
47743W        W90655   0.127   6.081  29.774 -0.4680 -0.0624  0.3764
47744W        W90656  33.166   5.683  28.782  0.1288 -0.2585 -0.1643
47745W        W90657  31.797   7.130  29.401 -0.1777  0.2045  0.1258
47746W        W90658   0.150   6.663  28.953 -0.0721  0.1399 -0.1042
47747W        W90659   0.336   5.795  31.296 -0.0188  0.2443  0.0464
47748W        W90660  33.494   6.734  27.841 -0.1175 -0.2107  0.0490
47749W        W90661   0.316   6.492  31.654 -0.0854  0.0655  0.1077
47750W        W90662   0.576   6.351  27.695  0.0910 -0.2070 -0.0389
47751W        W90663  34.667   5.650  28.912  0.3523 -0.5520  0.0293
47752W        W90664  34.210   7.249  31.145 -0.1351  0.1505  0.3076
47753W        W90665  33.666   5.425  30.928 -0.1118 -0.1037  0.0665
47754W        W90666  33.520   6.003  28.725  0.0646 -0.1146 -0.0880
47755W        W90667   0.215   4.466  27.936 -0.6363  0.3362 -0.0472
47756W        W90668  33.566   4.697  29.650 -0.3315 -0.0355 -0.2021
47757W        W90669  33.896   7.631  29.520  0.2114 -0.2432  0.3196
47758W        W90670  34.061   4.486  29.163  0.0523  0.0784 -0.0189
47759W        W90671  33.620   6.586  29.429  0.0407 -0.0657  0.1682
47760W        W90672  32.956   4.569  27.689  0.0404 -0.1587 -0.1578
47761W        W90673  31.980   3.899  29.442  0.2358 -0.0545  0.4429
47762W        W90674  33.387   5.226  31.383 -0.0336 -0.2576 -0.2242
47763W        W90675  33.465   4.973  30.992 -0.0962 -0.0127  0.2206
47764W        W90676  34.226   3.477  26.672  0.1857 -0.1590 -0.0336
47765W        W90677  32.576   7.753  30.543 -0.3449  0.2433  0.0158
47766W        W90678  33.514   4.484  27.738  0.1050  0.1217  0.0616
47767W        W90679  34.062   5.631  28.047  0.0625  0.0372  0.3908
47768W        W90680  34.032   5.997  28.515  0.0221  0.2193 -0.2746
47769W        W90681  34.502   7.458  30.759 -0.1607 -0.2016  0.1357
47770W        W90682  34.018   4.066  30.411 -0.2148  0.1528  0.1612
47771W        W90683   0.038   4.206  31.479  0.0346 -0.1251 -0.1753
47772W        W90684  33.766   6.046  28.106 -0.0970 -0.1476 -0.1428
47773W        W90685  33.260   5.003  30.079  0.0906 -0.3055 -0.0179
47774W        W90686  33.364   6.326  28.142 -0.3765 -0.1401  0.2537
47775W        W90687  32.286   4.517  30.612  0.0780  0.1830 -0.1825
47776W        W90688  34.685   7.017  30.821  0.0860  0.1763 -0.0540
47777W        W90689  32.492   4.918  30.284  0.0165 -0.1854  0.0560
47778W        W90690  33.177   5.499  27.745  0.1313 -0.4646 -0.2179
47779W        W90691  32.316   4.224  31.476  0.0187  0.1987  0.0136
47780W        W90692  32.262   4.339  29.395 -0.2702  0.1976 -0.2298
47781W        W90693  33.085   4.603  31.054  0.0473  0.1002  0.2389
47782W        W90694  32.671   5.774  30.113  0.0344  0.2035 -0.0104
47783W        W90695  32.957   2.648  28.886  0.2789  0.1883  0.5718
47784W        W90696   1.153   5.288  28.582  0.0512 -0.0278 -0.2921
47785W        W90697  31.906   6.420  28.503  0.2669  0.2160 -0.0900
47786W        W90698  34.568   4.445  29.190 -0.1650 -0.0697 -0.0780
47787W        W90699  33.061   4.084  27.831 -0.0472  0.0314 -0.3539
47788W        W90700  33.434   7.477  29.676 -0.1416  0.0465 -0.2207
47789W        W90701  34.593   5.186  28.776 -0.3258 -0.1005  0.2682
47790W        W90702   0.309   4.244  27.468  0.1977  0.0120  0.1445
47791W        W90703  34.426   7.922  29.989  0.1052  0.4069  0.0336
47792W        W90704  34.039   3.040  26.835 -0.1618 -0.0407 -0.1690
47793W        W90705  33.152   7.353  29.285  0.2981  0.1175  0.0211
47794W        W90706  32.439   4.901  29.068  0.1028 -0.1100 -0.2200
47795W        W90707   0.944   6.729  28.383  0.1188 -0.2258 -0.0296
47796W        W90708  32.617   4.413  31.124  0.0170 -0.4361 -0.1440
47797W        W90709  33.327   5.783  28.154  0.1267  0.1554  0.2194
47798W        W90710  32.933   7.365  29.719 -0.2923  0.2739 -0.2410
47799W        W90711  33.157   5.559  31.094 -0.0043  0.3381 -0.2771
47800W        W90712   0.214   5.553  28.387 -0.0973 -0.2241 -0.3190
47801W        W90713   0.366   4.880  28.651  0.1398 -0.0327  0.0672
47802W        W90714  33.869   4.963  28.343 -0.1214  0.1448 -0.4489
47803W        W90715  32.971   4.579  30.123 -0.1098 -0.1696  0.0375
47804W        W90716  33.762   4.890  27.847 -0.0524  0.3895 -0.1167
47805W        W90717  33.022   6.517  27.620 -0.1059 -0.2177 -0.2585
47806W        W90718  34.263   3.961  30.000 -0.2641 -0.1030  0.0071
47807W        W90719  31.809   5.008  28.298  0.0388 -0.1462 -0.2618
47808W        W90720   0.932   3.649  30.075  0.2322 -0.1822  0.1955
47809W        W90721  34.276   4.763  30.711 -0.3140 -0.1919 -0.1917
47810W        W90722  32.843   6.942  29.427 -0.2284 -0.1771  0.2418
47811W        W90723   0.197   3.285  30.777 -0.2854  0.3242 -0.1324
47812W        W90724  32.701   8.179  28.201  0.4351  0.3194  0.0661
47813W        W90725  33.262   5.418  29.247 -0.0703 -0.0846 -0.1318
47814W        W90726  33.882   3.651  29.770 -0.0332  0.3486 -0.1180
47815W        W90727  34.273   6.856  30.646  0.0006 -0.1945  0.4666
47816W        W90728  32.742   5.454  27.106  0.2516  0.2286  0.0809
47817W        W90729  34.080   6.437  29.387 -0.2090  0.1034 -0.1702
47818W        W90730  33.406   4.840  28.339  0.0221 -0.1355  0.2495
47819W        W90731  34.382   3.915  28.980  0.1021 -0.3234  0.0229
47820W        W90732  32.869   4.998  28.163  0.1120 -0.0725 -0.0334
47821W        W90733  32.168   3.893  30.919  0.1112  0.0663 -0.2277
47822W        W90734   1.179   4.538  29.180  0.0536  0.1380  0.0296
47823W        W90735  33.822   7.021  29.654 -0.2237 -0.1676  0.0963
47824W        W90736  32.890   3.729  30.585 -0.0885 -0.1465 -0.0959
47825W        W90737  33.754   3.788  28.289 -0.2067  0.0717  0.0831
47826W        W90738  34.345   4.486  29.765 -0.3279  0.0013  0.1610
47827W        W90739  32.723   4.617  28.616 -0.0051 -0.0546  0.2247
47828W        W90740  33.203   4.990  27.822 -0.1624 -0.0574 -0.0431
47829W        W90741  34.354   6.718  28.806  0.1242  0.0013  0.1074
47830W        W90742  33.924   3.602  31.222 -0.1220  0.0288 -0.2684
47831W        W90743   0.446   4.501  30.270  0.1234 -0.2011  0.2661
47832W        W90744   0.093   4.266  29.945  0.0571 -0.0978  0.0276
47833W        W90745   0.181   3.966  29.459  0.2160  0.1817 -0.0165
47834W        W90746  34.293   4.252  31.674 -0.1597 -0.1855 -0.1066
47835W        W90747  32.415   6.071  31.559 -0.0688  0.0046 -0.1992
47836W        W90748  33.630   5.757  27.674  0.0594  0.2448  0.1574
47837W        W90749  32.110   6.516  30.257  0.1801  0.0886  0.0135
47838W        W90750  33.685   4.622  28.721  0.1114 -0.2016 -0.0224
47839W        W90751  33.878   3.902  29.130  0.1402  0.2621  0.0736
47840W        W90752  34.209   5.600  29.575 -0.0074  0.1551 -0.0172
47841W        W90753  33.717   6.540  28.549  0.2537  0.1188  0.1044
47842W        W90754  32.891   6.435  30.826 -0.3130  0.1088  0.1159
47843W        W90755  34.140   3.372  28.904 -0.0735 -0.0479  0.1197
47844W        W90756  34.427   5.062  29.762  0.1542 -0.0613 -0.0764
47845W        W90757  32.083   4.878  31.271  0.3874  0.3602  0.4540
47846W        W90758  32.489   6.549  31.149 -0.2710  0.1464  0.1539
47847W        W90759   0.172   3.287  27.554  0.1678 -0.1023  0.1341
47848W        W90760  34.406   4.097  29.476 -0.0820  0.0130  0.0475
47849W        W90761   0.934   6.039  27.894  0.0563 -0.2669 -0.3422
47850W        W90762  33.439   5.551  30.291  0.1585  0.3217  0.2125
47851W        W90763   0.033   6.087  26.335  0.2470 -0.0807  0.0314
47852W        W90764  33.671   5.537  28.434  0.2077  0.1179  0.0390
47853W        W90765   0.017   4.015  30.367  0.0371  0.4371 -0.3393
47854W        W90766   1.069   5.675  30.042 -0.1893  0.1556 -0.2862
47855W        W90767  33.084   4.028  30.181  0.2819 -0.4382  0.0116
47856W        W90768  32.262   3.037  29.282 -0.1400  0.0957 -0.1235
47857W        W90769  33.633   3.347  29.374 -0.0996 -0.2121 -0.0121
47858W        W90770  33.672   7.293  29.255 -0.1131  0.1671 -0.1658
47859W        W90771  33.463   5.131  28.791  0.0081  0.3389 -0.2483
47860W        W90772  34.359   7.549   0.658  0.1075  0.0055 -0.0227
47861W        W90773  33.839   5.252  27.494  0.1053  0.1967 -0.1633
47862W        W90774   0.064   6.312  28.081 -0.0457 -0.1357 -0.2667
47863W        W90775  34.071   5.459  30.067  0.2357 -0.4670  0.1582
47864W        W90776  34.691   3.988  27.241  0.0115  0.1768  0.0043
47865W        W90777  32.778   6.280  27.974  0.2179 -0.1613  0.1289
47866W        W90778  33.586   7.606  30.979 -0.1343  0.1331 -0.0749
47867W        W90779  33.407   5.990  30.762 -0.0123  0.1053  0.1735
47868W        W90780  33.300   6.939  29.609 -0.1274  0.3939  0.4662
47869W        W90781   0.523   3.922  30.164 -0.0398  0.0313  0.0438
47870W        W90782  34.674   5.436  29.402 -0.0809 -0.2888 -0.2741
47871W        W90783  33.271   5.974  29.190 -0.2586  0.2325 -0.1712
47872W        W90784  33.214   5.245  30.583  0.0947 -0.0910  0.1013
47873W        W90785  34.022   3.291  28.276 -0.1615  0.0382  0.0405
47874W        W90786  33.616   5.835  31.402  0.0173  0.0342  0.0042
47875W        W90787  32.747   7.367  30.277 -0.0925 -0.0993  0.1501
47876W        W90788  33.746   8.022  28.606 -0.1054 -0.1213 -0.3242
47877W        W90789   0.361   4.557  29.061  0.0903  0.0669 -0.0235
47878W        W90790  32.727   5.876  29.107 -0.0762  0.0246 -0.2303
47879W        W90791  32.633   6.807  27.488  0.2582 -0.2219  0.1462
47880W        W90792  33.532   7.833  29.226  0.1515  0.1294 -0.0121
47881W        W90793  33.996   4.908  29.492 -0.0340 -0.1196 -0.0129
47882W        W90794   0.169   5.325  25.924  0.2328 -0.0397  0.3615
47883W        W90795  32.613   5.246  30.640 -0.2946 -0.0783  0.0422
47884W        W90796  33.193   5.890   0.347 -0.7132  0.1753 -0.0239
47885W        W90797  33.707   4.251  27.269  0.0414  0.1269  0.0690
47886W        W90798  33.801   4.505  28.154 -0.1729  0.2813  0.1319
47887W        W90799  34.294   6.428  28.403  0.2048  0.0383 -0.3683
47888W        W90800  33.645   7.921  29.845  0.1047  0.0109  0.0584
47889W        W90801  33.566   6.705  30.055 -0.0220  0.0043 -0.0502
47890W        W90802  34.006   6.457  29.848 -0.2704 -0.0654 -0.0003
47891W        W90803  32.601   5.374  27.733  0.0409  0.0988 -0.0544
47892W        W90804  33.739   5.192  30.448 -0.0061  0.1132  0.2120
47893W        W90805  33.910   4.166  28.636 -0.0402  0.4060  0.2111
47894W        W90806  34.601   4.953  29.279  0.0699 -0.1735 -0.1209
47895W        W90807  33.427   4.122  28.242  0.1452 -0.5000  0.1567
47896W        W90808  34.685   3.760  29.889 -0.1419  0.0823  0.1865
47897W        W90809  33.001   6.026  28.408  0.4161 -0.0256 -0.2939
47898W        W90810  34.442   5.048  31.117  0.3141 -0.3825 -0.0031
47899W        W90811  33.655   3.430  28.836 -0.0057  0.2729 -0.3739
47900W        W90812  33.392   7.317  28.350 -0.1809  0.1366  0.0763
47901W        W90813  32.878   5.125  28.795 -0.4467  0.0338 -0.0017
47902W        W90814   0.028   4.255  28.705  0.3687  0.4324  0.1704
47903W        W90815  33.102   4.813  29.359  0.0422  0.1559  0.0722
47904W        W90816  34.258   5.427  28.478 -0.0497 -0.1311  0.0879
47905W        W90817   0.016   7.196  28.784 -0.1618 -0.0927 -0.2133
47906W        W90818   0.176   5.980  30.349 -0.1568 -0.1281  0.0428
47907W        W90819  34.228   7.084   0.658 -0.1836  0.2508 -0.4171
47908W        W90820  33.333   6.071  26.798  0.1449 -0.2037  0.0697
47909W        W90821  34.234   6.565  30.250  0.1528  0.1046  0.1023
47910W        W90822  33.860   5.665  28.874  0.3264  0.4568  0.0929
47911W        W90823  34.393   6.875  27.402  0.1295  0.0116 -0.0004
47912W        W90824  34.311   4.227  28.296  0.1085 -0.3283 -0.2050
47913W        W90825  34.513   3.414  28.113  0.2669 -0.1606  0.1363
47914W        W90826  33.747   6.834  30.483 -0.2764  0.0855  0.1467
47915W        W90827  33.659   6.447  26.730  0.1195  0.0612 -0.2424
47916W        W90828  33.911   4.155  27.833  0.0503 -0.1006  0.2262
47917W        W90829  32.732   5.507  28.496  0.1504  0.1929 -0.2309
47918W        W90830  34.217   3.946   0.108 -0.0695  0.1835 -0.2282
47919W        W90831  32.340   3.665  31.463  0.2270  0.1907  0.0661
47920W        W90832  33.089   6.464  29.298  0.2220  0.0403 -0.0601
47921W        W90833  34.198   3.714  28.542  0.2019  0.1139  0.1667
47922W        W90834  33.214   4.673  30.609 -0.1201  0.0115  0.1103
47923W        W90835  32.459   4.166  28.593  0.0236  0.3330 -0.0428
47924W        W90836  33.902   4.296  29.616  0.1499 -0.1971  0.0925
47925W        W90837  32.036   5.963  28.203  0.4304  0.2811 -0.1348
47926W        W90838   1.175   6.166  30.789  0.2056 -0.3649  0.0604
47927W        W90839  33.904   5.243   0.371 -0.0366 -0.0642  0.0535
47928W        W90840  33.186   4.940  26.956  0.1949  0.0580  0.2339
47929W        W90841   0.613   5.678  29.194 -0.1924  0.1328 -0.2465
47930W        W90842  33.864   6.073  31.774 -0.2191 -0.3220  0.0875
47931W        W90843  34.321   6.001  30.945  0.1189 -0.2039  0.0561
47932W        W90844  31.917   3.019  30.323  0.0291 -0.2213  0.0979
47933W        W90845   0.744   4.142  29.331 -0.1248 -0.2823  0.4145
47934W        W90846  33.169   2.952  31.968 -0.0474 -0.1692  0.1688
47935W        W90847  33.827   5.785  30.508 -0.0219  0.1318 -0.0327
47936W        W90848  33.408   3.292  29.845  0.0801 -0.0381 -0.4600
47937W        W90849  33.979   4.853  30.040  0.0435  0.0644  0.0449
47938W        W90850   1.376   4.943  28.218 -0.1234 -0.1160 -0.0795
47939W        W90851  34.181   3.706  30.688  0.0105 -0.0541 -0.0931
47940W        W90852  34.600   5.162  28.249 -0.0762  0.3608 -0.0090
47941W        W90853   0.129   8.300  31.393  0.1091 -0.2174 -0.0256
47942W        W90854  32.827   3.327  28.316 -0.0179  0.0324 -0.1515
47943W        W90855  33.976   4.990  28.893  0.1224  0.1439  0.2506
47944W        W90856   0.334   5.671  29.653  0.0407 -0.0654  0.0245
47945W        W90857  33.589   4.849  29.163 -0.2174  0.0555 -0.1989
47946W        W90858   0.378   8.416  30.800  0.1984 -0.2142 -0.0722
47947W        W90859  33.338   3.677   1.143  0.0494 -0.1455 -0.3174
47948W        W90860  32.030   7.122   1.057  0.3639 -0.1078 -0.2531
47949W        W90861  32.959   5.075   0.505  0.1468  0.1756  0.0782
47950W        W90862  31.248   5.627   0.725  0.3783  0.3145  0.1381
47951W        W90863  33.914   4.759  31.118 -0.0042  0.1228  0.1791
47952W        W90864  33.483   3.675  30.304 -0.2591 -0.3613 -0.0902
47953W        W90865  33.044   6.071  30.381 -0.2837  0.0148 -0.0432
47954W        W90866   0.155   6.246  31.217  0.1389  0.0378  0.1176
47955W        W90867  34.140   5.359  30.794  0.1104 -0.1438  0.3124
47956W        W90868  33.723   3.864   0.265  0.1458  0.3529 -0.2903
47957W        W90869  32.645   4.093  30.744 -0.2152  0.1918  0.2824
47958W        W90870  32.955   3.352   0.282  0.2907 -0.1386  0.3085
47959W        W90871  32.960   5.410   0.128 -0.0461 -0.0592 -0.5200
47960W        W90872  34.327   4.417  30.261 -0.0420 -0.0506  0.4606
47961W        W90873  32.452   8.207  30.285 -0.2662  0.2444  0.2436
47962W        W90874  32.893   5.709  30.658 -0.0027  0.0648 -0.2293
47963W        W90875  32.899   6.383  31.528 -0.0074  0.0174  0.0641
47964W        W90876  34.629   6.451  29.506  0.1092  0.0691  0.0472
47965W        W90877  32.832   4.425  31.677 -0.2309 -0.4622 -0.3166
47966W        W90878  31.717   5.041  30.913  0.0645 -0.1490  0.3616
47967W        W90879   0.179   4.639  29.536  0.1705 -0.1142 -0.0942
47968W        W90880  33.921   5.546  31.757 -0.4773 -0.2237 -0.1214
47969W        W90881   0.289   6.462   0.448  0.0442  0.2658 -0.0004
47970W        W90882  34.264   3.966  31.159  0.1189  0.1953  0.1428
47971W        W90883  33.659   5.817   0.172  0.4661 -0.1926  0.2481
47972W        W90884  33.994   4.376  30.834  0.0087  0.1644  0.3328
47973W        W90885   0.473   2.665   0.057  0.0659 -0.2171  0.1169
47974W        W90886  33.740   4.029   1.222  0.1944 -0.2546 -0.1282
47975W        W90887  33.367   7.219  30.529  0.0734 -0.3691 -0.1090
47976W        W90888  32.657   4.642   0.144 -0.3890 -0.1580 -0.0722
47977W        W90889  34.530   5.616  30.488 -0.1530 -0.1525 -0.0248
47978W        W90890  32.891   5.300  31.531  0.1914 -0.1809 -0.0559
47979W        W90891  34.626   7.009  31.332  0.0169 -0.5857  0.2045
47980W        W90892  34.520   5.569  31.154  0.2791  0.2040 -0.0685
47981W        W90893  32.987   5.112  30.981  0.5553  0.0243  0.0197
47982W        W90894  33.820   4.719   0.417 -0.2120 -0.0271 -0.1463
47983W        W90895  33.380   4.756   0.217  0.1728 -0.1884  0.0573
47984W        W90896  33.132   6.149  31.134 -0.1061 -0.0577 -0.0746
47985W        W90897  33.281   4.226   1.079  0.1023 -0.0843  0.0820
47986W        W90898  33.686  10.607  18.850  0.0158  0.1182 -0.0740
47987W        W90899  32.784   8.644  18.853  0.0275  0.2168  0.2157
47988W        W90900  33.788   6.682  18.277  0.1170 -0.1064 -0.3637
47989W        W90901  33.775   6.179  20.293 -0.1465  0.4289 -0.3832
47990W        W90902  33.134   9.509  17.127  0.0946  0.0394 -0.0621
47991W        W90903  32.920   9.434  18.560  0.2216  0.5086  0.1264
47992W        W90904  34.541   7.960  17.301  0.1279 -0.0216  0.1596
47993W        W90905  31.943   7.335  17.166 -0.0042  0.0742  0.1281
47994W        W90906  32.310   9.199  17.348  0.0760 -0.0164 -0.0578
47995W        W90907  33.676   8.478  18.728 -0.2097  0.3455  0.4423
47996W        W90908  32.542   8.150  17.948 -0.0215  0.3064 -0.0224
47997W        W90909  34.362   8.784  18.721  0.0620  0.0026 -0.0641
47998W        W90910  33.398   7.760  17.108 -0.0832 -0.1429  0.2119
47999W        W90911  32.648   8.876  16.380 -0.0261 -0.2224 -0.1583
48000W        W90912  32.124   9.869  19.059 -0.3696 -0.3657 -0.3040
48001W        W90913   0.591  10.090  18.078  0.3336 -0.1724 -0.1558
48002W        W90914  34.042   8.700  18.102  0.0122 -0.1736  0.1280
48003W        W90915  34.622  10.103  18.325  0.1001 -0.3098 -0.1113
48004W        W90916  32.846  10.299  18.519 -0.1027  0.1359  0.0344
48005W        W90917  32.800  10.151  17.314 -0.1969  0.4156  0.1476
48006W        W90918  34.176   9.171  16.976 -0.0868 -0.2391 -0.1818
48007W        W90919  33.134  10.654  18.790 -0.0006 -0.0048 -0.0614
48008W        W90920  33.163  11.354  15.744  0.1223 -0.0277 -0.0789
48009W        W90921  34.652   9.535  19.463  0.0587 -0.3061 -0.6155
48010W        W90922  33.960   9.511  17.836  0.5297 -0.0913  0.1035
48011W        W90923   0.479   9.627  17.996  0.2581 -0.2326 -0.1443
48012W        W90924  33.990   9.234  19.352  0.2588 -0.1503 -0.1480
48013W        W90925  31.018  10.559  17.783 -0.2108 -0.2527  0.3062
48014W        W90926  34.288   9.794  16.289 -0.0220 -0.0641  0.0668
48015W        W90927  33.411   8.609  17.216  0.3996 -0.0580 -0.0678
48016W        W90928  34.282   7.444  18.458  0.2180 -0.2307  0.1037
48017W        W90929  33.052  10.688  18.249  0.0376  0.0576 -0.1570
48018W        W90930   1.185   8.011  17.478 -0.3673  0.0854  0.1351
48019W        W90931  33.399  10.306  18.475  0.0378  0.1644  0.0065
48020W        W90932  33.039   9.711  16.521 -0.3500  0.0763  0.0898
48021W        W90933  33.149   9.771  19.682  0.1196 -0.4000 -0.0628
48022W        W90934  32.994  10.483  20.406  0.2341 -0.1087  0.1130
48023W        W90935  33.040   9.346  19.482  0.0335 -0.2555  0.3067
48024W        W90936   0.186   8.366  16.131  0.1418  0.1080  0.3523
48025W        W90937  31.538  11.397  19.758 -0.2655  0.0102  0.1511
48026W        W90938  31.979   7.786  18.198 -0.1749 -0.2282  0.1072
48027W        W90939  33.332   9.289  16.396 -0.0060  0.0879 -0.0407
48028W        W90940   0.458  10.443  17.054  0.0455 -0.1606 -0.1597
48029W        W90941  32.270  12.282  19.222  0.3203  0.1807 -0.0639
48030W        W90942  33.618   8.918  19.529 -0.1591  0.2738 -0.0991
48031W        W90943   0.970   9.840  19.445  0.2703 -0.0710  0.1793
48032W        W90944  32.556  11.375  16.672 -0.1648 -0.1269  0.2556
48033W        W90945  33.337   9.161  18.563  0.0490 -0.0282 -0.3123
48034W        W90946  32.986   9.225  16.711  0.0350 -0.3391  0.0223
48035W        W90947  33.229   7.799  18.433  0.0215  0.0893 -0.1347
48036W        W90948  33.799  11.653  18.609  0.0113  0.0901 -0.0429
48037W        W90949  32.835   8.076  19.086 -0.1710 -0.0265 -0.0112
48038W        W90950  32.518   9.670  16.557  0.0545 -0.3252 -0.0729
48039W        W90951  32.278   9.300  19.204 -0.1601  0.1199 -0.0002
48040W        W90952  32.958   8.166  18.218 -0.0849  0.0353 -0.2672
48041W        W90953  34.463   8.268  19.476  0.1023 -0.0566 -0.1121
48042W        W90954  33.508   7.552  17.599 -0.0151 -0.1529  0.1721
48043W        W90955  32.794   6.977  17.232  0.2007 -0.1827  0.1436
48044W        W90956  33.751   9.985  16.405  0.0671  0.2488 -0.3728
48045W        W90957  32.250   8.269  16.539 -0.1275 -0.0132 -0.1614
48046W        W90958  32.634   8.659  19.860 -0.2438 -0.1948 -0.1297
48047W        W90959  32.052   8.320  16.980 -0.1235  0.1030  0.3800
48048W        W90960  31.910  11.599  18.625 -0.2870 -0.0801 -0.1002
48049W        W90961  34.024  10.536  17.619  0.3280 -0.2083  0.2323
48050W        W90962  32.439   7.256  16.300 -0.1510 -0.1271  0.1092
48051W        W90963  33.554   9.388  19.609  0.2604 -0.1750  0.0927
48052W        W90964  33.303   7.567  16.678 -0.2375 -0.3815  0.1484
48053W        W90965  33.250  10.197  16.570  0.0475 -0.0074  0.1428
48054W        W90966  31.991   7.840  18.870  0.3359 -0.1702  0.2913
48055W        W90967  34.131   9.173  18.215 -0.1376  0.5269  0.0048
48056W        W90968  30.452   9.789  19.153  0.1960  0.0169 -0.1640
48057W        W90969  33.247   9.373  17.598  0.0047  0.1716  0.0260
48058W        W90970  32.710  10.841  18.657  0.1820  0.0176 -0.1579
48059W        W90971  32.008   9.824  21.298  0.1513 -0.0701  0.1145
48060W        W90972  34.314   9.401  17.503  0.2272  0.3049 -0.2181
48061W        W90973   0.302   9.018  17.650  0.2019  0.0338 -0.1459
48062W        W90974  32.619  10.048  18.947  0.2210 -0.1878 -0.2330
48063W        W90975   0.020   8.749  19.543 -0.3289 -0.0698  0.0475
48064W        W90976  33.510   7.976  16.488 -0.1844 -0.2358  0.1800
48065W        W90977  33.163  10.435  15.724  0.2183 -0.2423  0.0653
48066W        W90978   0.282   7.738  19.781  0.2921  0.1930 -0.0078
48067W        W90979  33.599   8.442  16.506  0.0800 -0.1587 -0.4109
48068W        W90980  34.164   8.733  19.389 -0.0527  0.2636  0.0838
48069W        W90981  32.423   8.859  20.289 -0.0322 -0.1056  0.0243
48070W        W90982  32.239  10.664  20.255 -0.1270 -0.2457  0.0757
48071W        W90983   0.828   8.023  18.800  0.1622  0.1443  0.1771
48072W        W90984  33.160   9.842  17.513  0.1388  0.1110 -0.2880
48073W        W90985  32.348   9.959  17.015  0.0854 -0.1555  0.1582
48074W        W90986  34.184   7.868  18.619  0.0183 -0.0061 -0.0052
48075W        W90987  34.264   9.655  18.929  0.0751  0.4366  0.2397
48076W        W90988  34.156  10.208  16.616  0.1927 -0.0048 -0.0353
48077W        W90989  32.830   9.308  16.207 -0.1394  0.2598 -0.2430
48078W        W90990  33.091   9.001  17.235  0.1411 -0.1111 -0.0894
48079W        W90991  33.988   8.109  16.402 -0.1172 -0.0298 -0.2690
48080W        W90992  31.468   9.034  17.356  0.1160  0.0896  0.1072
48081W        W90993  34.580   8.535  19.062 -0.0019  0.1508 -0.0186
48082W        W90994  34.603   8.567  18.226 -0.0962  0.2729  0.2621
48083W        W90995  33.283  11.248  19.327 -0.2803 -0.0252  0.1120
48084W        W90996  33.678   8.543  17.584  0.4139 -0.0710 -0.1069
48085W        W90997  32.139   8.077  16.120 -0.0642  0.0868 -0.1860
48086W        W90998  34.593   9.071  18.368 -0.0703  0.2822 -0.2256
48087W        W90999  32.755  10.632  16.702  0.1479  0.2086  0.1243
48088W        W91000  32.733   8.633  18.109  0.1143  0.2123 -0.0972
48089W        W91001  33.757  10.038  16.937 -0.0150  0.1853  0.0352
48090W        W91002  32.250   9.248  20.016  0.0987  0.0266 -0.1988
48091W        W91003  33.642   9.224  16.787 -0.0890  0.2750 -0.3369
48092W        W91004  32.398   8.361  18.972  0.1026  0.0528  0.0360
48093W        W91005  33.608   8.412  18.049  0.2205  0.1935  0.0044
48094W        W91006  33.196   8.223  18.749  0.2591  0.0501 -0.0837
48095W        W91007  32.693   9.316  20.242 -0.1688  0.0590 -0.0314
48096W        W91008  34.210   9.244  18.676 -0.1230  0.0562  0.1935
48097W        W91009  31.546   9.341  18.307  0.0582  0.0916  0.2587
48098W        W91010  33.272   9.972  17.037 -0.2837 -0.0002 -0.2495
48099W        W91011  32.613   7.822  18.262 -0.1672  0.1450  0.2330
48100W        W91012  32.279  11.931  18.812  0.2072 -0.0837  0.0157
48101W        W91013  33.473   9.686  16.712 -0.1041  0.1376 -0.1920
48102W        W91014  32.694  10.610  19.114 -0.0843  0.1912  0.2386
48103W        W91015  33.361   8.819  16.686  0.0133 -0.0364 -0.0621
48104W        W91016  33.735   7.923  18.930  0.0999 -0.0804  0.0176
48105W        W91017  33.379   9.774  18.422 -0.0383 -0.0498 -0.1357
48106W        W91018  32.155   9.253  20.668  0.0997  0.1082  0.1872
48107W        W91019  34.090   7.273  16.477 -0.2006  0.0451  0.1227
48108W        W91020  34.098   8.777  17.589  0.1557 -0.2789 -0.3967
48109W        W91021  33.227   8.797  17.677  0.0413 -0.0355  0.0701
48110W        W91022  33.776  10.072  18.877 -0.2033  0.0483  0.1316
48111W        W91023  33.697   8.943  16.299  0.1698 -0.0315 -0.0634
48112W        W91024  32.728  10.006  19.453  0.1098  0.0597  0.1825
48113W        W91025  34.029   7.501  17.664  0.1305 -0.0577 -0.0882
48114W        W91026  34.020   8.743  17.093  0.2025  0.1948 -0.0265
48115W        W91027  33.412   7.925  20.578 -0.0204 -0.1740  0.0816
48116W        W91028  32.589   9.341  17.940 -0.0125 -0.1246 -0.3225
48117W        W91029  33.111   8.505  16.399 -0.0358  0.2152 -0.0362
48118W        W91030   0.906  10.513  17.286  0.1161 -0.0463  0.0370
48119W        W91031  32.134   8.793  19.058 -0.0953  0.1835 -0.0425
48120W        W91032  33.576  10.771  18.397  0.1686  0.1725 -0.1421
48121W        W91033  32.860   8.756  16.849  0.0512  0.2455  0.1183
48122W        W91034  34.458  10.906  16.032 -0.2076 -0.3311  0.1526
48123W        W91035  32.761   9.413  17.496  0.0530  0.0915 -0.0122
48124W        W91036   0.915   6.993  17.049  0.0197  0.0097 -0.2373
48125W        W91037  33.685   9.204  17.295  0.1618 -0.0627 -0.2099
48126W        W91038   0.161  10.112  19.303 -0.0347  0.1857  0.1164
48127W        W91039  32.700   9.596  19.120  0.0269 -0.1837  0.2031
48128W        W91040  34.078   9.689  17.123  0.1189 -0.0145  0.0636
48129W        W91041  32.215   8.695  18.538  0.0445  0.3713  0.2177
48130W        W91042  34.320  10.450  18.235 -0.0590 -0.0349 -0.0553
48131W        W91043  33.624   9.727  17.370 -0.1496  0.0429 -0.1445
48132W        W91044  33.039   7.289  19.660 -0.0665 -0.1503  0.0944
48133W        W91045  32.985   7.370  16.318  0.2800  0.0157  0.0806
48134W        W91046  33.318  10.632  19.267  0.3261  0.0409  0.2296
48135W        W91047  33.145  10.211  20.066 -0.1014  0.2592 -0.1646
48136W        W91048  33.430  10.512  16.160 -0.0817  0.0178 -0.1403
48137W        W91049  33.754   8.269  16.961 -0.2299  0.0520 -0.2116
48138W        W91050  33.184  10.077  18.089 -0.0752 -0.5063  0.0487
48139W        W91051  32.664   9.592  17.051  0.2644  0.1200  0.0931
48140W        W91052  33.563  11.269  18.454 -0.0619 -0.0188  0.0635
48141W        W91053  32.671   9.855  17.763  0.1199  0.1719 -0.2838
48142W        W91054  34.177   7.397  17.074  0.0883 -0.0662  0.1366
48143W        W91055  34.090   8.833  20.956  0.0816  0.0158 -0.1015
48144W        W91056  32.382  12.806  19.201 -0.1187 -0.1049  0.2398
48145W        W91057  32.388   7.218  17.489  0.0357 -0.2350  0.2466
48146W        W91058  33.404   7.947  17.909  0.4531 -0.0778 -0.0684
48147W        W91059   0.059  10.909  16.945  0.0696 -0.0870 -0.0331
48148W        W91060   0.221   9.998  17.010 -0.0687  0.0392 -0.0652
48149W        W91061  33.199   9.602  18.984  0.2296 -0.0916  0.0261
48150W        W91062   0.034   9.712  19.002 -0.0757 -0.2555  0.2563
48151W        W91063  32.952   7.406  17.523 -0.0948 -0.1360 -0.0483
48152W        W91064  33.037   8.495  19.246 -0.2670  0.0639  0.0439
48153W        W91065  32.749   8.950  17.723 -0.2116  0.1511  0.1485
48154W        W91066  32.134  10.178  20.428 -0.0368 -0.1177  0.4216
48155W        W91067  34.535   8.484  16.974 -0.5041 -0.0103  0.0898
48156W        W91068  32.885   8.353  17.187  0.1276 -0.1246 -0.2329
48157W        W91069  31.213   9.425  17.219 -0.0994 -0.2404 -0.2904
48158W        W91070  33.304   8.737  18.876 -0.0197 -0.3415 -0.2209
48159W        W91071  33.845   8.051  17.684  0.0659  0.0072 -0.0334
48160W        W91072   0.138   9.991  17.851 -0.0620 -0.1297  0.2112
48161W        W91073  33.922   8.350  19.599 -0.0859 -0.1644  0.0185
48162W        W91074  34.158   8.215  18.276  0.0211 -0.0458  0.0429
48163W        W91075  33.787   9.525  18.717  0.3353  0.1909  0.2491
48164W        W91076  33.723  10.466  16.534 -0.0371 -0.0167  0.1159
48165W        W91077  33.457  11.109  16.837 -0.2794 -0.0390  0.2268
48166W        W91078   0.696   9.494  18.705  0.0759  0.0194  0.2676
48167W        W91079  33.613  10.966  19.531 -0.1325 -0.1007 -0.3540
48168W        W91080  32.082   9.511  17.064 -0.0953  0.1400 -0.2370
48169W        W91081   0.302   9.177  19.558  0.1354 -0.3472  0.1558
48170W        W91082  34.591  10.405  19.040 -0.1546  0.0544  0.1369
48171W        W91083   0.068  11.163  18.343  0.2279 -0.0775  0.0506
48172W        W91084  33.590   9.337  18.245  0.0362 -0.0720  0.1849
48173W        W91085  33.866   7.775  17.236 -0.2413 -0.0222  0.1323
48174W        W91086  34.485   9.617  18.450  0.1802 -0.0955 -0.0534
48175W        W91087  33.792   9.765  15.853  0.1361 -0.1635  0.2153
48176W        W91088  33.589   9.312  15.752  0.1890 -0.2180 -0.1139
48177W        W91089  34.332   9.819  18.021 -0.0214  0.2635  0.3643
48178W        W91090  34.597   7.571  18.868  0.1067  0.0278  0.1163
48179W        W91091  33.005   9.158  19.009 -0.1145 -0.1005 -0.0860
48180W        W91092  33.076   9.597  18.000  0.0878 -0.0049 -0.0736
48181W        W91093  33.665   8.550  19.245 -0.0157  0.1758 -0.3275
48182W        W91094  33.234   8.247  16.829  0.5207 -0.1315  0.0992
48183W        W91095  32.372   7.696  17.496  0.2299 -0.3061 -0.1573
48184W        W91096  33.366   8.145  17.448  0.1694 -0.3402 -0.0572
48185W        W91097  33.263  11.153  16.352 -0.0224  0.2325 -0.3212
48186W        W91098  33.931   7.841  19.512  0.0405  0.2006 -0.0715
48187W        W91099  33.641   8.012  20.125 -0.2631 -0.2462 -0.1669
48188W        W91100  31.725   7.845  15.983  0.0794 -0.1517 -0.2119
48189W        W91101   0.288   9.224  18.165  0.1933 -0.2491  0.0851
48190W        W91102  32.689  10.452  19.667 -0.5199 -0.2938  0.2916
48191W        W91103  33.149   8.775  19.671  0.0109  0.0544  0.0720
48192W        W91104  33.307   7.469  18.862  0.1020 -0.0886  0.0485
48193W        W91105  33.497   9.168  19.057  0.0718 -0.1653 -0.2981
48194W        W91106  34.532   7.656  19.572  0.2410 -0.2375  0.0113
48195W        W91107  33.986  10.924  19.041 -0.0884 -0.1643 -0.1040
48196W        W91108  33.372   7.414  18.148  0.2139  0.2623  0.2209
48197W        W91109  32.953   7.563  19.199  0.0711  0.1023 -0.1109
48198W        W91110  33.246   8.689  18.351 -0.2848 -0.2509 -0.0115
48199W        W91111   0.213   9.343  18.712 -0.2000  0.2326 -0.4375
48200W        W91112  32.572   8.738  17.311 -0.1247  0.1770  0.3181
48201W        W91113  34.411  10.014  19.250  0.2701 -0.0652  0.0279
48202W        W91114   0.133   7.201  19.313  0.3562  0.3578  0.0840
48203W        W91115  34.000   9.626  16.678 -0.0659 -0.1532  0.1148
48204W        W91116  34.405  10.254  17.694 -0.0860 -0.1350 -0.1018
48205W        W91117  32.904   7.783  17.859 -0.1807  0.0042  0.1917
48206W        W91118   0.228  11.480  19.724  0.0825  0.0984  0.2823
48207W        W91119  33.584  10.137  22.613 -0.0231  0.3229 -0.0370
48208W        W91120  33.333   8.842  20.548 -0.0403 -0.2797  0.1474
48209W        W91121  31.634   7.596  20.876  0.1272  0.0008  0.0273
48210W        W91122  33.374   8.026  21.751 -0.2267  0.0277 -0.0163
48211W        W91123   0.724   9.555  23.029  0.2196  0.2388  0.1001
48212W        W91124  34.004  10.242  22.265 -0.0868  0.1102 -0.0661
48213W        W91125  32.712   8.340  20.782  0.0883 -0.1888 -0.2395
48214W        W91126  32.064   7.857  21.804 -0.2185  0.0013  0.0287
48215W        W91127  33.135   7.985  20.139  0.0142  0.1196  0.4661
48216W        W91128  33.949   7.949  23.282 -0.0272  0.0264 -0.2796
48217W        W91129  33.449   9.261  22.680  0.0185  0.0014 -0.0637
48218W        W91130   0.074   8.160  22.866  0.0971 -0.0144  0.3165
48219W        W91131  34.692  11.340  20.648 -0.2713 -0.0066 -0.0011
48220W        W91132  33.114   9.383  20.022  0.0320  0.2979 -0.2112
48221W        W91133  32.955   8.922  20.169 -0.0280 -0.0205 -0.0615
48222W        W91134  33.564   9.973  23.139  0.0676  0.0331  0.0940
48223W        W91135  34.476  11.315  21.187 -0.0783 -0.0421 -0.0126
48224W        W91136   0.981  10.324  21.339 -0.0012 -0.1070 -0.0263
48225W        W91137  33.288  10.357  20.972 -0.2978  0.3642 -0.1257
48226W        W91138  33.208  11.057  21.721 -0.0661  0.1353 -0.2254
48227W        W91139  33.501   9.880  20.044 -0.1345  0.0559  0.0585
48228W        W91140   0.457  11.599  24.171  0.0050 -0.2242 -0.0870
48229W        W91141  31.430  10.779  20.043  0.1171  0.0556  0.2076
48230W        W91142  34.148  10.657  23.202 -0.2606  0.0253 -0.1906
48231W        W91143  34.327  10.553  21.002  0.3894  0.0067 -0.1804
48232W        W91144   0.471   9.546  21.181  0.0510  0.3627  0.0398
48233W        W91145  34.639   8.619  24.876  0.1788  0.2529 -0.2258
48234W        W91146  33.156  10.714  22.895 -0.2279  0.2265  0.1757
48235W        W91147  32.283  10.626  20.896  0.1554  0.3176 -0.2774
48236W        W91148  33.243   8.509  21.972 -0.1140  0.2389 -0.1073
48237W        W91149  33.790   7.234  21.917  0.1001  0.3613  0.0721
48238W        W91150  33.554   9.902  20.968  0.1535 -0.1773  0.2946
48239W        W91151  33.425   6.867  23.038 -0.1554 -0.0132 -0.1513
48240W        W91152  33.582   9.435  21.701  0.1989 -0.0362 -0.3279
48241W        W91153  32.758   9.065  21.327 -0.1140 -0.2443 -0.0775
48242W        W91154  32.332   8.242  21.118  0.0131 -0.1225 -0.0779
48243W        W91155  33.891  10.748  23.625 -0.0063  0.2478 -0.2544
48244W        W91156  33.754   8.251  24.314 -0.2552 -0.1583  0.2129
48245W        W91157  33.813   9.127  21.268  0.0915  0.0082 -0.0588
48246W        W91158  32.024  10.839  22.914 -0.5363  0.3628 -0.1015
48247W        W91159   0.090  10.857  23.170  0.0815 -0.1437 -0.1977
48248W        W91160  31.741  10.482  19.349  0.0347 -0.1593  0.1163
48249W        W91161  34.649   7.930  20.868  0.2238 -0.3436  0.1936
48250W        W91162   0.301  11.262  23.415 -0.0581 -0.1804 -0.1075
48251W        W91163  34.210   8.391  24.106 -0.1500  0.0303  0.1275
48252W        W91164  34.598   8.571  23.721  0.1140 -0.0073  0.3413
48253W        W91165  31.780  10.517  20.470 -0.2419  0.4304  0.0236
48254W        W91166  33.130  10.368  23.261 -0.0239 -0.0755  0.1055
48255W        W91167  32.487   9.792  20.630  0.3700 -0.4438 -0.2193
48256W        W91168  32.005   7.940  23.179 -0.1548 -0.1634  0.0981
48257W        W91169  33.029  10.217  22.054  0.0884 -0.1701 -0.3709
48258W        W91170  32.753   7.539  22.875  0.2043 -0.2460 -0.2361
48259W        W91171  33.307   9.054  21.438 -0.0370 -0.1319 -0.0496
48260W        W91172  31.502   8.334  22.346 -0.2138  0.1525 -0.0659
48261W        W91173  32.477   9.043  18.842 -0.4473  0.0023 -0.0223
48262W        W91174  33.612   8.883  23.544 -0.0239  0.1760  0.2031
48263W        W91175  32.848   9.337  23.232  0.2966  0.1227 -0.4005
48264W        W91176  31.603   7.484  20.330 -0.2650 -0.0432  0.0630
48265W        W91177  34.495   8.640  21.353  0.1001  0.0319 -0.0454
48266W        W91178  33.279   9.428  20.512  0.2821  0.1767 -0.0870
48267W        W91179  34.027   8.741  23.181  0.3160  0.1196  0.0205
48268W        W91180  33.901   8.308  21.788 -0.1065 -0.1578  0.2272
48269W        W91181  33.142  10.951  20.340 -0.2367  0.0849  0.0034
48270W        W91182  34.663  11.001  22.712  0.0410 -0.1467 -0.2499
48271W        W91183  33.967   7.208  21.418 -0.0825 -0.0339 -0.3333
48272W        W91184  33.593   8.927  23.023 -0.2914  0.0990  0.0698
48273W        W91185  33.405   6.471  20.009  0.2975  0.1412 -0.0036
48274W        W91186  33.849  10.763  20.967  0.0151 -0.2746  0.0068
48275W        W91187  33.391   9.524  21.218 -0.1501 -0.0992 -0.2112
48276W        W91188   0.430   8.847  20.922 -0.0761  0.0238  0.2397
48277W        W91189  32.119   9.072  22.563 -0.0091 -0.2277  0.0153
48278W        W91190  31.292  10.235  20.186 -0.1626 -0.0861 -0.2138
48279W        W91191  33.749   9.648  22.710 -0.0972  0.1624 -0.0119
48280W        W91192  33.418  10.461  24.573  0.0020  0.0366  0.1494
48281W        W91193   0.244   9.092  20.545  0.0327  0.0936  0.2746
48282W        W91194  33.303   9.543  23.052  0.0100  0.1354  0.0708
48283W        W91195  32.023   9.907  22.401 -0.1070 -0.1726 -0.2363
48284W        W91196   0.799   7.084  22.651  0.2981 -0.3842  0.0400
48285W        W91197  31.430   8.124  18.964 -0.0594  0.1774  0.1051
48286W        W91198  31.146  11.056  19.676  0.3247  0.1779  0.1322
48287W        W91199  34.309   8.019  23.671  0.1502  0.1747  0.1231
48288W        W91200  34.313   9.316  20.709 -0.0097 -0.0755 -0.1526
48289W        W91201   1.145   6.767  22.918 -0.0446 -0.0470  0.0832
48290W        W91202  33.811   9.317  23.963 -0.1194  0.0588 -0.0576
48291W        W91203  34.021  11.318  23.565  0.1322  0.0355 -0.1851
48292W        W91204   1.016   6.866  23.714  0.1609 -0.1724  0.1783
48293W        W91205  32.198   9.642  20.304 -0.0023  0.0289 -0.1607
48294W        W91206  34.311   9.476  19.981 -0.1677  0.4341  0.1555
48295W        W91207  34.518   7.877  23.246 -0.2238 -0.0086  0.1014
48296W        W91208   0.056   9.688  22.455  0.1124 -0.3508  0.0169
48297W        W91209  33.522  10.876  20.068  0.0944 -0.2302 -0.0629
48298W        W91210  32.672  10.867  20.553 -0.0722  0.0274  0.1490
48299W        W91211  31.961  11.265  19.485  0.1793  0.0941 -0.2371
48300W        W91212  34.075   9.675  19.603  0.2469  0.0926 -0.3455
48301W        W91213  32.137  10.384  21.372  0.1045 -0.0473 -0.0573
48302W        W91214  33.636   7.272  23.289 -0.0778  0.2857 -0.1757
48303W        W91215  33.529   7.547  21.621 -0.3763  0.1233  0.1778
48304W        W91216  32.127  10.401  22.557 -0.0008  0.0082  0.2249
48305W        W91217  34.439   9.029  22.834  0.3885  0.1711 -0.0993
48306W        W91218  32.521   8.041  20.147  0.3654 -0.1383 -0.3521
48307W        W91219  33.831   7.779  21.900  0.1740 -0.0847 -0.1793
48308W        W91220  33.577  10.674  21.859 -0.3690  0.2588 -0.0302
48309W        W91221  33.943   9.122  19.849 -0.0446  0.2653 -0.0767
48310W        W91222  33.622  10.888  22.720  0.0729  0.1004 -0.1088
48311W        W91223  32.711   9.527  23.751 -0.0114  0.0101  0.0759
48312W        W91224  33.227   7.029  22.248  0.1180  0.3033 -0.0507
48313W        W91225  32.762   8.463  20.281 -0.2123  0.2598  0.1247
48314W        W91226  33.620   8.739  22.491 -0.3550 -0.2176 -0.0651
48315W        W91227  33.688   8.402  23.291  0.1136  0.2874  0.0547
48316W        W91228  33.821  11.295  24.658  0.0097  0.0091 -0.1453
48317W        W91229  32.023   9.781  20.749 -0.1687  0.1323  0.1338
48318W        W91230  33.215   9.787  21.763  0.1489 -0.2853  0.1794
48319W        W91231  32.762  10.929  19.525  0.0047 -0.0451 -0.2667
48320W        W91232  34.261   8.340  23.099 -0.1568  0.1128  0.0262
48321W        W91233  33.202   9.743  22.290 -0.3095  0.1500  0.2634
48322W        W91234  33.404  10.225  21.648 -0.2635 -0.2278 -0.1228
48323W        W91235  33.993  10.523  22.680  0.2255 -0.1810  0.0522
48324W        W91236  34.374   9.250  21.280 -0.0990  0.2448  0.0136
48325W        W91237  33.197   6.463  22.233 -0.2039  0.0876  0.1433
48326W        W91238  33.175   8.630  23.915  0.6731 -0.1438  0.2502
48327W        W91239  32.786   9.772  24.436 -0.3154 -0.1938 -0.0088
48328W        W91240  32.961   8.106  22.056 -0.0599  0.0144 -0.1868
48329W        W91241  33.804  11.041  23.145 -0.1028  0.0235 -0.0711
48330W        W91242  34.316   8.668  19.950 -0.0135  0.2075 -0.2873
48331W        W91243  33.151   9.280  22.035 -0.0595 -0.0193 -0.1032
48332W        W91244  33.755   9.652  19.232 -0.1993 -0.1807 -0.0895
48333W        W91245  33.798  11.409  22.644  0.0365  0.0049  0.2118
48334W        W91246  32.637   6.687  22.277 -0.1287 -0.5072  0.0746
48335W        W91247   0.315   7.240  22.906 -0.2906 -0.1830  0.2335
48336W        W91248  33.044   8.187  24.472 -0.0981 -0.1061 -0.1941
48337W        W91249  32.989   8.639  21.137  0.0397  0.0267  0.1491
48338W        W91250  32.088   8.443  19.379  0.1626 -0.1449  0.0638
48339W        W91251  33.271  10.123  18.911 -0.1117  0.1489  0.0049
48340W        W91252  32.661   7.196  22.409 -0.0988  0.0689  0.0876
48341W        W91253   0.693  10.254  22.813  0.0200 -0.2605 -0.0748
48342W        W91254  34.193  10.012  21.053  0.0092 -0.0454  0.0270
48343W        W91255  33.428   9.016  20.068 -0.2171 -0.1106  0.1268
48344W        W91256   1.043   9.488  22.566  0.0207  0.0999  0.0997
48345W        W91257  34.153   6.989  22.443  0.2998 -0.0348  0.2022
48346W        W91258  32.659   9.159  19.735 -0.0924 -0.0590 -0.2790
48347W        W91259  34.359  10.395  21.493  0.0052 -0.2094  0.2172
48348W        W91260  32.556  10.889  23.783 -0.1503  0.1740 -0.1036
48349W        W91261  34.003   9.837  21.882  0.0564  0.1581 -0.0454
48350W        W91262  34.270   9.535  22.844 -0.4322 -0.2232 -0.2956
48351W        W91263  33.768   8.791  21.613 -0.2519  0.1296  0.0168
48352W        W91264  34.409   9.912  21.576 -0.1636  0.0179  0.2480
48353W        W91265  31.877   8.712  24.879  0.2784  0.3569  0.0398
48354W        W91266  32.938   8.260  19.776  0.0394  0.2150 -0.1773
48355W        W91267  34.565  10.373  23.385 -0.1891  0.0271 -0.0774
48356W        W91268  33.510   9.652  23.660  0.0431 -0.1344  0.4164
48357W        W91269  33.679  12.515  20.988  0.0401  0.1001 -0.1137
48358W        W91270  34.087   9.030  22.158 -0.0770 -0.1221 -0.3489
48359W        W91271  32.785  10.394  21.127 -0.0062  0.1710  0.0452
48360W        W91272  32.246  10.335  19.178  0.0002 -0.0925  0.1139
48361W        W91273  33.468  10.673  20.616 -0.1222 -0.1758  0.0035
48362W        W91274  32.989  10.233  24.257  0.0866  0.3486 -0.0414
48363W        W91275  34.202   8.519  20.403 -0.2110  0.2005  0.0499
48364W        W91276  33.630  10.451  23.060  0.1056  0.0950 -0.2743
48365W        W91277  34.083  10.241  24.286  0.1132  0.1241 -0.1706
48366W        W91278  33.269   8.455  20.195  0.1952 -0.1456  0.1073
48367W        W91279  33.790   9.739  20.503  0.2257 -0.1597 -0.1893
48368W        W91280   0.075   8.978  20.022 -0.0163 -0.1525 -0.3886
48369W        W91281   0.161  12.070  21.664 -0.0608 -0.2599 -0.0137
48370W        W91282  33.097  10.566  21.534  0.1778 -0.0710 -0.1279
48371W        W91283   0.598   9.741  22.543 -0.0690 -0.0682  0.1023
48372W        W91284  32.259   7.080  21.051 -0.6066  0.1092  0.1908
48373W        W91285  33.127   8.819  23.308  0.3745  0.1969  0.0573
48374W        W91286  34.458   9.282  22.380 -0.0665 -0.2253 -0.2738
48375W        W91287  32.477   7.934  24.911  0.0056  0.3733 -0.0636
48376W        W91288  33.754   8.908  18.469 -0.2235 -0.3359  0.2405
48377W        W91289  32.937   8.884  21.793 -0.1747  0.3638  0.2527
48378W        W91290  34.115   9.352  21.655  0.0501 -0.0643  0.0202
48379W        W91291  33.633   9.497  22.229 -0.0414 -0.0848 -0.3743
48380W        W91292  31.586   6.219  19.080 -0.1264  0.0822 -0.0417
48381W        W91293  33.371  10.127  20.490  0.0686 -0.0862  0.1270
48382W        W91294  34.350   7.710  21.966 -0.1426  0.1592  0.3015
48383W        W91295  33.011   7.534  22.125 -0.0615  0.2792 -0.1116
48384W        W91296  33.070   9.982  22.948 -0.0962 -0.1024 -0.1359
48385W        W91297  32.360  11.309  21.554 -0.1914 -0.0238  0.0750
48386W        W91298  34.643  11.949  20.690  0.0296 -0.1893  0.0562
48387W        W91299   0.288   9.928  22.861  0.0686 -0.3841  0.0645
48388W        W91300  34.083  11.099  22.253 -0.0383  0.0618 -0.1563
48389W        W91301  33.749   8.567  20.588  0.0274  0.1669 -0.2312
48390W        W91302   1.098  10.322  22.505  0.0774 -0.0068  0.2960
48391W        W91303   1.408  10.682  22.639  0.0792 -0.0324 -0.0756
48392W        W91304  33.828  10.276  20.734  0.0611  0.1038  0.1420
48393W        W91305  34.264   7.171  23.373 -0.0418 -0.1710  0.1923
48394W        W91306  33.065   8.991  22.880  0.3345  0.0381 -0.1032
48395W        W91307  33.197   9.072  20.948  0.1341  0.2271  0.2685
48396W        W91308  32.619   7.405  20.941 -0.1565  0.0215 -0.0419
48397W        W91309  33.732  10.346  20.256  0.0525  0.1027 -0.1173
48398W        W91310  33.942   9.560  20.990 -0.0580  0.0877 -0.2546
48399W        W91311  34.484   7.503  24.021 -0.0867 -0.0416 -0.0631
48400W        W91312  32.118   8.478  22.691  0.4431  0.1838 -0.1936
48401W        W91313  33.539   8.977  22.041 -0.0588 -0.1790  0.1566
48402W        W91314  33.457   8.373  19.696 -0.0934 -0.0995  0.3362
48403W        W91315  33.473   8.247  22.485  0.1345  0.1103 -0.1614
48404W        W91316  32.993   8.315  22.597 -0.0003  0.0035  0.4287
48405W        W91317  32.468   8.133  22.428  0.2582  0.2397  0.1387
48406W        W91318  31.843  10.517  19.831 -0.3275 -0.1168 -0.1727
48407W        W91319   0.291   8.809  24.202 -0.2280 -0.2404 -0.1681
48408W        W91320   0.518   8.347  23.128 -0.0233  0.0049  0.0490
48409W        W91321  32.158   5.607  19.090  0.4105  0.0531 -0.1289
48410W        W91322  34.517   9.996  22.785 -0.2706  0.2186 -0.2195
48411W        W91323  34.068  10.174  23.017  0.1026  0.1085 -0.0803
48412W        W91324  34.642   9.298  23.354 -0.1500 -0.2575  0.1883
48413W        W91325  32.229   8.827  23.550  0.2385  0.2927  0.1424
48414W        W91326  34.683  10.935  24.225 -0.0089  0.1366 -0.0878
48415W        W91327  33.381   7.728  23.545 -0.2681 -0.0483  0.2010
48416W        W91328  33.112   9.675  24.015 -0.2683  0.4130 -0.2230
48417W        W91329  33.743   7.973  21.400  0.3083 -0.1135  0.0267
48418W        W91330  32.802   9.929  22.489 -0.0053 -0.3823  0.2661
48419W        W91331  34.492   8.125  20.359 -0.2477  0.1895 -0.1829
48420W        W91332  34.529   9.590  24.555 -0.1797 -0.0697  0.0206
48421W        W91333  34.416   9.092  19.651  0.3193  0.0245  0.1642
48422W        W91334   0.997  10.755  22.918  0.1222  0.1962  0.2117
48423W        W91335  33.796   7.733  22.861  0.1065  0.3315  0.0624
48424W        W91336  33.945   9.175  22.660 -0.1398  0.0750  0.1506
48425W        W91337  33.822   9.856  21.400 -0.1491 -0.0788  0.0309
48426W        W91338  33.630   7.284  22.667 -0.0858  0.0761  0.0804
48427W        W91339  34.460  10.029  22.163 -0.0665  0.1555  0.0776
48428W        W91340  32.660   9.630  25.801 -0.0466  0.2299 -0.2457
48429W        W91341  32.808   7.743  24.581 -0.2189  0.0728 -0.1207
48430W        W91342  31.743   7.860  24.502  0.2895 -0.0146 -0.2638
48431W        W91343  34.362   7.722  26.981  0.1479  0.1365  0.1110
48432W        W91344  31.992   9.300  26.531  0.1891 -0.0300 -0.1291
48433W        W91345  33.399  10.111  26.546  0.1572 -0.2125  0.0065
48434W        W91346  33.735   6.602  25.377  0.0270  0.0056 -0.0272
48435W        W91347  31.702   7.139  26.089 -0.1895 -0.0780  0.0227
48436W        W91348  33.976   8.917  24.927  0.1998 -0.3477  0.1470
48437W        W91349  33.975   9.443  25.776  0.3820 -0.0885 -0.1234
48438W        W91350  34.674   7.979  24.165 -0.0102 -0.0948 -0.1101
48439W        W91351  34.107   7.738  25.755  0.3325 -0.0717  0.1360
48440W        W91352  34.271  10.357  26.261 -0.0226  0.1053  0.0208
48441W        W91353  32.166   8.446  23.235 -0.2048 -0.1327  0.1800
48442W        W91354  33.462   9.277  26.415  0.0675  0.3419 -0.4067
48443W        W91355  33.111   9.682  26.540  0.0716  0.2518  0.1234
48444W        W91356  33.847  12.467  25.392  0.0717  0.1660 -0.0127
48445W        W91357   0.962   9.933  25.430 -0.0171 -0.0096 -0.0575
48446W        W91358  31.676  10.088  24.693  0.2379 -0.0601 -0.0976
48447W        W91359  31.787  11.223  25.115  0.0965  0.0141  0.0000
48448W        W91360  34.207  10.815  25.059 -0.1659  0.2158 -0.2412
48449W        W91361  33.743  10.495  26.367  0.2171 -0.2611  0.0315
48450W        W91362  32.736  10.448  23.665  0.0621 -0.0219 -0.2439
48451W        W91363  34.183   8.947  27.109  0.3863 -0.0561 -0.1270
48452W        W91364  34.125   9.729  24.305 -0.1340  0.1919  0.4233
48453W        W91365   0.795  11.010  26.233 -0.0220 -0.2356  0.0506
48454W        W91366  32.784   8.565  26.677 -0.1013 -0.1176  0.0221
48455W        W91367  33.671  10.016  25.411  0.3650 -0.0479  0.2929
48456W        W91368  33.557  10.118  24.079  0.1645  0.2289  0.1842
48457W        W91369  33.372   9.087  23.980  0.2948 -0.3474  0.1100
48458W        W91370   0.208   7.289  25.490  0.1859 -0.3054  0.2480
48459W        W91371  33.896  11.141  25.305 -0.0361  0.0026  0.0776
48460W        W91372  33.777   8.324  26.591 -0.0257 -0.1196  0.0565
48461W        W91373  32.718   9.123  25.751 -0.1438  0.1683  0.0058
48462W        W91374  33.262   9.049  25.475  0.2733  0.1684 -0.0832
48463W        W91375  33.284   8.788  24.947 -0.0779 -0.1139  0.0164
48464W        W91376  32.228   9.212  27.042 -0.1154 -0.1845 -0.1063
48465W        W91377  32.732   9.054  27.002 -0.0201  0.0282  0.1049
48466W        W91378  34.522   7.597  24.524 -0.1249 -0.1068 -0.0302
48467W        W91379  33.433   9.929  28.114  0.1883  0.1969  0.2401
48468W        W91380  33.090   9.807  25.834 -0.0554  0.2265  0.1091
48469W        W91381  33.648  10.814  24.926 -0.1744  0.2054  0.5919
48470W        W91382  32.875  10.835  24.563 -0.1691 -0.1392  0.1869
48471W        W91383  32.594  10.395  25.111 -0.2558  0.0926 -0.2994
48472W        W91384  32.532   8.305  26.340  0.0560  0.1161 -0.0131
48473W        W91385  34.597   9.930  27.044  0.4716 -0.1026 -0.0473
48474W        W91386   1.252  11.191  23.750  0.0958  0.3088 -0.0704
48475W        W91387  31.953   9.639  24.463  0.0200  0.0768 -0.0299
48476W        W91388  31.434   9.550  24.518  0.1683  0.0943 -0.0102
48477W        W91389  32.303   7.711  26.219  0.2214 -0.3454 -0.1943
48478W        W91390  34.058  10.032  26.991 -0.1892 -0.1358  0.0704
48479W        W91391  33.263   7.075  27.069  0.0484 -0.0691 -0.1461
48480W        W91392  33.730  10.047  24.525  0.4818 -0.1466  0.1039
48481W        W91393  34.182   8.725  26.668  0.1229  0.0428 -0.0645
48482W        W91394  32.464   9.387  24.536  0.1662  0.0342 -0.0161
48483W        W91395  34.332   7.836  27.488 -0.1689  0.3107 -0.2827
48484W        W91396  32.699   7.602  26.511  0.3069 -0.0718  0.1361
48485W        W91397  32.519   8.070  23.456 -0.0550  0.0524  0.1922
48486W        W91398   0.244   8.949  25.127 -0.2917 -0.3001  0.1409
48487W        W91399  32.897  10.309  24.751  0.2425 -0.2608 -0.0135
48488W        W91400   0.445   7.397  27.762  0.1922  0.1869  0.4092
48489W        W91401  33.270   7.624  25.197 -0.1990  0.1240 -0.1589
48490W        W91402  32.989  10.744  23.985  0.1728 -0.0209 -0.1250
48491W        W91403  33.397  10.176  25.982  0.2463  0.0994 -0.0521
48492W        W91404  34.181   7.514  25.239  0.2902 -0.0808  0.2586
48493W        W91405  32.980   9.931  26.910 -0.0257 -0.3419  0.0176
48494W        W91406  33.693   8.500  23.845 -0.2476 -0.3989  0.4712
48495W        W91407  33.096  12.050  23.314 -0.0738 -0.0473 -0.1500
48496W        W91408  32.187  10.642  25.147  0.0169  0.1249  0.1784
48497W        W91409   0.584  10.598  26.062 -0.2374 -0.0719 -0.0129
48498W        W91410  31.826   8.658  28.385  0.1830 -0.1018 -0.2356
48499W        W91411  33.356   8.579  25.723 -0.1141 -0.0797  0.0376
48500W        W91412  32.810   8.587  28.496 -0.1229  0.0365  0.0292
48501W        W91413  33.369   8.808  27.910 -0.1145  0.2773  0.1342
48502W        W91414  34.210  10.784  25.571 -0.2750 -0.1622 -0.1252
48503W        W91415  33.514   9.682  26.794  0.3398 -0.1799 -0.0912
48504W        W91416  32.428   9.261  25.425  0.0226 -0.1657  0.4162
48505W        W91417  33.112   8.447  26.223  0.0604  0.1474  0.3778
48506W        W91418   0.467   6.088  23.992  0.0648  0.0307 -0.2076
48507W        W91419  32.287  10.590  23.464  0.0533 -0.1468  0.1628
48508W        W91420  33.529   9.313  25.922 -0.1263 -0.1865  0.2889
48509W        W91421  32.912   9.121  24.153 -0.1970  0.0074  0.0519
48510W        W91422  34.671   7.577  27.939 -0.0518  0.0414  0.4332
48511W        W91423  33.668   9.059  26.989  0.2344 -0.1412 -0.0426
48512W        W91424  32.441  10.160  26.012 -0.0859 -0.1226  0.0620
48513W        W91425   0.085   8.896  27.308 -0.1110  0.4444 -0.0009
48514W        W91426  33.488  11.038  26.260  0.2270  0.1212  0.0207
48515W        W91427  34.074   9.497  24.759 -0.2433 -0.0337  0.0889
48516W        W91428  31.941   7.758  27.649  0.0419  0.2377  0.2810
48517W        W91429  32.151  10.922  25.557 -0.1450  0.2378  0.2109
48518W        W91430  34.358   9.560  25.139  0.1112  0.1864 -0.0590
48519W        W91431  32.612   9.871  25.212 -0.1827 -0.1946  0.1775
48520W        W91432  31.650  10.761  25.392 -0.0209 -0.0339  0.0585
48521W        W91433  33.798   8.010  23.788  0.1061  0.2389  0.3136
48522W        W91434  33.240   9.984  24.579  0.2977  0.0715  0.0135
48523W        W91435  32.596   8.126  25.413  0.1024  0.0559  0.3080
48524W        W91436  34.502   9.299  27.342 -0.2755  0.0217 -0.1025
48525W        W91437  33.506  10.630  25.881  0.3400 -0.0187 -0.0453
48526W        W91438   0.739   6.897  27.395  0.1028  0.0036  0.1810
48527W        W91439  33.300   8.524  22.912 -0.0806 -0.1342 -0.2074
48528W        W91440  33.820   7.913  25.087  0.0643 -0.0336  0.0020
48529W        W91441  32.330   9.684  24.100  0.0662  0.1094 -0.1434
48530W        W91442   0.124   8.189  23.506  0.1024  0.0259  0.0526
48531W        W91443  32.910  10.538  25.873 -0.1944 -0.0760  0.1468
48532W        W91444  33.414   8.391  27.324 -0.0973 -0.1120 -0.1701
48533W        W91445  33.579   9.652  24.864 -0.2361  0.0725  0.3055
48534W        W91446  33.215   9.280  25.038  0.0654  0.1280 -0.2007
48535W        W91447   0.491   7.064  24.234 -0.1485 -0.1317  0.1181
48536W        W91448  33.950   7.579  27.215  0.5340 -0.0787 -0.0262
48537W        W91449  34.350  10.434  28.092 -0.0873  0.1390  0.4812
48538W        W91450  31.891   9.949  23.908  0.0185 -0.2010 -0.0974
48539W        W91451  32.391   8.952  26.561  0.0126 -0.0525  0.1330
48540W        W91452  34.468  10.321  25.470  0.3672 -0.3360 -0.1717
48541W        W91453  33.932   9.534  26.389 -0.1968  0.1236 -0.1615
48542W        W91454  32.301   9.997  25.524 -0.1808 -0.3183  0.0542
48543W        W91455  33.562   9.662  24.259  0.1040  0.0743 -0.0598
48544W        W91456  31.503  10.319  25.737  0.1515 -0.1423  0.1246
48545W        W91457  34.074   8.162  24.686  0.1179 -0.1762  0.0252
48546W        W91458  33.070   8.157  27.675  0.1797  0.1612  0.0299
48547W        W91459  32.904   7.886  26.115  0.0633 -0.0785 -0.0213
48548W        W91460  32.402   8.530  27.981 -0.1405 -0.0233  0.2037
48549W        W91461  32.952   7.282  24.983 -0.3240 -0.3817  0.0562
48550W        W91462  33.743   8.791  27.491 -0.3438  0.0061 -0.2985
48551W        W91463   0.640  10.951  25.721 -0.1793 -0.2919 -0.3539
48552W        W91464  33.925   9.493  26.904  0.0137  0.0056  0.2142
48553W        W91465  33.684   8.461  24.751 -0.0320 -0.0209  0.1559
48554W        W91466  33.517   9.753  26.154  0.0667 -0.0419 -0.0674
48555W        W91467  33.549   8.741  26.633  0.1635  0.1948  0.1184
48556W        W91468  33.870   9.971  27.463 -0.2418  0.2334  0.2061
48557W        W91469  32.867   8.635  27.962 -0.0774  0.1153 -0.0039
48558W        W91470  32.175   8.363  25.176  0.0273 -0.1520  0.0656
48559W        W91471  34.121   7.591  23.544 -0.0467 -0.0536 -0.2219
48560W        W91472   2.042  10.560  24.250 -0.0423  0.3184  0.1412
48561W        W91473  33.444   8.209  25.280 -0.2859 -0.0820  0.0292
48562W        W91474  33.950  11.163  25.799 -0.2443  0.3026  0.4171
48563W        W91475  33.182   8.269  23.451 -0.0404 -0.0323  0.1372
48564W        W91476   0.369   8.472  25.251  0.0758 -0.5828 -0.0189
48565W        W91477  33.857  10.503  26.857  0.0635 -0.0165  0.0393
48566W        W91478   0.035   7.028  24.374 -0.3009 -0.0164  0.1705
48567W        W91479  32.438  10.894  24.290  0.0889 -0.1238 -0.0120
48568W        W91480  34.031  11.236  26.257  0.3230 -0.0148  0.0055
48569W        W91481  32.180   8.331  26.710 -0.2798 -0.0100  0.1159
48570W        W91482  33.096  12.619  24.703 -0.1706 -0.0496 -0.1596
48571W        W91483   0.123  10.924  26.756  0.3990  0.1254 -0.2045
48572W        W91484  33.396   9.158  27.537  0.0092  0.0324 -0.0118
48573W        W91485  33.132  10.348  25.425  0.3101  0.0905 -0.0264
48574W        W91486  32.628   9.474  26.714 -0.1918 -0.2332 -0.1837
48575W        W91487  32.443   6.981  24.666  0.2741 -0.0496  0.0612
48576W        W91488  34.374  10.367  26.750 -0.1115  0.0437  0.0081
48577W        W91489  32.407   9.274  26.164 -0.3951 -0.0657  0.3045
48578W        W91490  32.952  11.939  25.033 -0.0256  0.4283  0.1026
48579W        W91491  33.413   7.915  24.760 -0.0304  0.0063 -0.0701
48580W        W91492  34.592  10.557  25.882  0.0691  0.0553 -0.2268
48581W        W91493  32.308  11.049  23.378  0.0881 -0.1588 -0.1053
48582W        W91494  32.603  10.942  24.984  0.0897 -0.0587 -0.0433
48583W        W91495  34.286   8.650  26.171  0.0576 -0.0981  0.0346
48584W        W91496  34.125   8.466  23.571 -0.0885 -0.0259 -0.3093
48585W        W91497  33.885   9.101  27.859 -0.1941  0.1454  0.0289
48586W        W91498  32.757  10.404  26.768 -0.1740 -0.3489 -0.2594
48587W        W91499  34.151   7.654  24.757  0.0543  0.2901  0.1788
48588W        W91500  33.864   9.373  25.255 -0.2552  0.1899 -0.1031
48589W        W91501  33.948  10.815  24.518  0.2885 -0.3349 -0.1719
48590W        W91502   0.416  11.475  25.432  0.1823  0.2329  0.0501
48591W        W91503  33.640  10.483  27.316 -0.0006 -0.2148  0.0860
48592W        W91504  33.846  10.527  25.300 -0.0715 -0.0244 -0.2247
48593W        W91505  31.550   7.378  24.347  0.0396  0.4431  0.1934
48594W        W91506  33.795   8.569  27.065 -0.3427 -0.0407  0.0646
48595W        W91507  33.119   9.392  24.537  0.2571  0.0768 -0.0678
48596W        W91508  34.350  10.030  27.611  0.1793  0.3494 -0.0478
48597W        W91509   0.937   9.138  23.271 -0.0784 -0.0772 -0.0504
48598W        W91510  33.209   7.676  24.128  0.4415 -0.0146  0.3052
48599W        W91511  32.964   9.335  26.167 -0.2310  0.2626  0.2680
48600W        W91512   0.637   8.868  27.491  0.2139  0.0179  0.1150
48601W        W91513  32.030   6.696  24.859 -0.1019 -0.0892 -0.1182
48602W        W91514  34.250  11.200  24.295  0.0097 -0.1052  0.0256
48603W        W91515  32.936   9.439  25.410 -0.0693  0.1251  0.0755
48604W        W91516  33.844   7.232  24.831  0.2665 -0.2204  0.0195
48605W        W91517  33.677   8.794  24.321  0.1784  0.3999 -0.1016
48606W        W91518  33.947  10.398  24.779  0.1603  0.0734  0.2651
48607W        W91519  34.565  10.497  23.932 -0.2319  0.0370 -0.0825
48608W        W91520  34.196  10.426  27.266 -0.2129  0.1614  0.1740
48609W        W91521  33.973  10.360  27.737  0.2766 -0.1271  0.1741
48610W        W91522  33.117   9.772  25.044 -0.3209 -0.1111  0.3243
48611W        W91523  33.910   9.015  26.230 -0.1725  0.1641 -0.0892
48612W        W91524   0.203  10.216  26.053 -0.1653  0.0202 -0.0237
48613W        W91525  33.503  10.615  24.064  0.0260  0.0028  0.0739
48614W        W91526  34.186   7.913  24.258  0.0545 -0.0694 -0.1086
48615W        W91527  33.072   7.495  26.898 -0.0738  0.2768 -0.0039
48616W        W91528  34.081  10.776  26.058  0.0843 -0.2472  0.1603
48617W        W91529  30.866   8.465  22.288 -0.0525  0.3293 -0.2147
48618W        W91530  32.969   7.843  23.211  0.1958  0.0502  0.3352
48619W        W91531  32.512   8.287  27.043 -0.1645 -0.4007 -0.0136
48620W        W91532  33.314   7.409  27.861 -0.3594 -0.2019 -0.2025
48621W        W91533  32.486   7.834  27.588  0.1085  0.0056 -0.4446
48622W        W91534  33.018   8.460  25.383 -0.0192 -0.2317 -0.0799
48623W        W91535  32.801   8.396  23.107  0.0793 -0.0326 -0.0336
48624W        W91536  33.086   6.289  27.165 -0.1669 -0.0259  0.1369
48625W        W91537  32.469   8.230  24.523 -0.1157  0.2285 -0.2870
48626W        W91538  34.109   6.433  24.414 -0.0882  0.0135 -0.2341
48627W        W91539  33.611  10.267  23.582  0.1042 -0.4141 -0.1703
48628W        W91540   0.489   9.023  28.935 -0.0879 -0.1228 -0.0165
48629W        W91541  33.454   7.498  27.330  0.4218 -0.2848 -0.0668
48630W        W91542  33.215   8.717  24.447 -0.1662  0.1536  0.1318
48631W        W91543   0.436   8.051  26.159  0.1128 -0.1382 -0.0267
48632W        W91544  33.301   8.318  26.841 -0.0481 -0.1418  0.3568
48633W        W91545  34.018   9.335  27.471  0.0002 -0.2838  0.1418
48634W        W91546  32.969   7.678  27.536 -0.0149 -0.0683  0.3280
48635W        W91547  33.699   9.629  27.785 -0.0294 -0.2292 -0.0717
48636W        W91548  33.011   8.047  27.147  0.2877 -0.2330  0.0923
48637W        W91549  32.120   9.163  28.090  0.2383 -0.2866 -0.0898
48638W        W91550  32.715   7.678  25.266 -0.0167 -0.0155  0.0615
48639W        W91551  33.689   8.586  26.140  0.2438  0.2745 -0.3627
48640W        W91552  34.511   8.835  24.205  0.0409 -0.0075 -0.0792
48641W        W91553   0.372   7.530  26.233  0.2976  0.0081 -0.3920
48642W        W91554  34.407   8.981  25.194  0.0685 -0.0980  0.1080
48643W        W91555   0.252  11.681  26.674 -0.0251  0.2074  0.0821
48644W        W91556  33.310   8.124  25.929 -0.3030  0.1295  0.1733
48645W        W91557  33.492  10.208  24.971 -0.1694 -0.0739  0.1254
48646W        W91558  34.491   9.367  25.630  0.3939  0.2175  0.1349
48647W        W91559  32.498   7.441  24.852  0.2977 -0.0461 -0.1136
48648W        W91560  33.635  11.503  26.118 -0.1974 -0.3007  0.0159
48649W        W91561  33.587  10.578  28.521 -0.2988 -0.0610  0.0815
48650W        W91562  34.581   8.560  27.962  0.2098  0.0296  0.1681
48651W        W91563  32.091   8.112  29.520 -0.0693 -0.1683 -0.0681
48652W        W91564  32.471   7.779  31.139  0.0203  0.0087  0.0278
48653W        W91565   0.057   8.291  30.142  0.0519  0.1204  0.1218
48654W        W91566  34.679   9.400  30.890  0.0280 -0.0576 -0.3848
48655W        W91567  32.023   7.092  28.393  0.1050  0.2367  0.4668
48656W        W91568  32.269   6.905  29.379  0.0828  0.0181 -0.0768
48657W        W91569  31.012   8.437  28.775  0.2157 -0.0437 -0.4082
48658W        W91570  33.638   9.360  29.619  0.3829 -0.1307 -0.2499
48659W        W91571  34.074   9.185  29.632 -0.3307  0.1020  0.3445
48660W        W91572  33.996   8.693  31.981  0.1207 -0.3385 -0.1610
48661W        W91573   1.639  11.211  29.451 -0.0925 -0.0652  0.0643
48662W        W91574  32.372   8.759  27.084  0.4409 -0.2130  0.1558
48663W        W91575  33.495   8.361  29.722 -0.0661  0.3507  0.1257
48664W        W91576   1.723   6.778   0.109 -0.2054  0.1342 -0.0723
48665W        W91577   0.952  10.755  28.603  0.0490 -0.0765 -0.2164
48666W        W91578   0.137  10.432  30.109 -0.0560 -0.5506  0.1362
48667W        W91579  33.168   9.906  28.999  0.0240 -0.1190  0.1514
48668W        W91580  32.507  10.731  30.923  0.1883  0.0770  0.1518
48669W        W91581  33.911   9.743  29.872 -0.2077 -0.0208 -0.0533
48670W        W91582  34.644   9.725  30.505  0.0196  0.1753  0.1978
48671W        W91583  32.468   9.665  28.258 -0.1221  0.0481 -0.0475
48672W        W91584  32.869   8.026  30.961  0.0563 -0.4900 -0.1687
48673W        W91585  34.168   8.983  28.768  0.2196 -0.3451  0.3198
48674W        W91586  33.482   9.880  29.439  0.2389  0.0556  0.0065
48675W        W91587   0.043   8.812   0.462  0.1705 -0.1133  0.1759
48676W        W91588  32.517   9.817  30.275  0.0115 -0.2238  0.1307
48677W        W91589  34.076   9.864  28.023 -0.0010 -0.0076  0.0271
48678W        W91590  33.927   7.994  28.132 -0.0150  0.0726 -0.0629
48679W        W91591  33.764   6.339  29.015  0.1269 -0.2582  0.0270
48680W        W91592  34.480  10.190  28.527 -0.1900  0.1039  0.5781
48681W        W91593   0.229   7.944  31.010  0.1566 -0.1108  0.2235
48682W        W91594  33.394  10.796  29.911 -0.2352  0.2359 -0.0385
48683W        W91595  32.300   8.497  29.894 -0.0191  0.0328 -0.1036
48684W        W91596  34.060   8.261  31.131 -0.0202 -0.0740 -0.0824
48685W        W91597  32.098   9.224  30.843  0.0018  0.3581 -0.3135
48686W        W91598  33.985   7.683  31.216  0.3017 -0.0748 -0.0047
48687W        W91599  33.645   8.630  28.246 -0.1577 -0.2055  0.1893
48688W        W91600  32.654   9.005  30.843 -0.1127  0.3018  0.1491
48689W        W91601  34.528   9.671  29.454  0.0879  0.1356  0.2642
48690W        W91602  33.302   7.981  28.775  0.2293  0.3426  0.4679
48691W        W91603  33.495  10.048  28.607 -0.0446  0.1681 -0.0323
48692W        W91604  33.279  10.266  29.809 -0.0531  0.1955 -0.2880
48693W        W91605  34.272   8.977  31.621 -0.2481  0.1498 -0.0278
48694W        W91606   0.921   9.704  31.896 -0.0292  0.0729 -0.3208
48695W        W91607  33.370  10.051  27.593  0.0871 -0.3332  0.0407
48696W        W91608  34.343   9.475  30.038 -0.2007 -0.1558  0.0389
48697W        W91609  33.318  10.684  28.893 -0.2576  0.0567  0.2475
48698W        W91610  33.101   7.998  30.162  0.0827 -0.1805  0.3062
48699W        W91611  34.321   9.184  31.198  0.0062  0.0934  0.3449
48700W        W91612  33.958   7.069  31.611  0.0990 -0.0014 -0.0491
48701W        W91613  33.149   8.894  28.392 -0.2094 -0.1390  0.0630
48702W        W91614  32.303   8.108  30.843  0.0279 -0.2278 -0.2770
48703W        W91615  34.503   8.581  30.423 -0.3174  0.1366 -0.1059
48704W        W91616  33.010   6.389   0.213  0.0264 -0.4426  0.0099
48705W        W91617  33.937   8.109  30.193  0.0569 -0.0100  0.2101
48706W        W91618  33.911   8.548  28.678  0.0017 -0.3354  0.2409
48707W        W91619  34.229   8.729  29.602 -0.1248 -0.0552  0.2106
48708W        W91620  33.623  10.822  27.674  0.0777 -0.5349  0.0293
48709W        W91621  34.263   8.624   0.558  0.1078  0.0232  0.0880
48710W        W91622  32.570   7.815  30.028  0.0012 -0.0524 -0.1205
48711W        W91623  34.360  11.033  28.749 -0.0179 -0.2215 -0.0332
48712W        W91624  33.347   9.498  28.627 -0.2222 -0.0608 -0.1232
48713W        W91625  32.388   7.878  28.498 -0.0870 -0.1440  0.1803
48714W        W91626  32.914   8.416  30.298 -0.0924 -0.2067  0.2689
48715W        W91627  32.360   6.582  27.834  0.0145  0.0475 -0.1918
48716W        W91628  32.072   9.681  27.955  0.4579 -0.0254  0.1867
48717W        W91629  32.630   9.227  29.663  0.1864 -0.0277 -0.2937
48718W        W91630  34.183  10.704  29.713 -0.0972  0.1137  0.3190
48719W        W91631  31.802   8.381  31.031 -0.3042 -0.1760 -0.2702
48720W        W91632  33.332   8.510  28.652  0.2702  0.0721 -0.0108
48721W        W91633  33.114   9.932  31.941  0.1613  0.0553 -0.0414
48722W        W91634  33.631   9.984   0.053 -0.0982  0.2066 -0.0604
48723W        W91635   0.053   8.808  29.028  0.2410  0.0514  0.2970
48724W        W91636   0.440   8.936  30.742  0.3538  0.0232 -0.0270
48725W        W91637  32.467   8.619  28.910 -0.0964 -0.2450  0.0085
48726W        W91638  34.368   8.123  30.538 -0.1108  0.1949 -0.0624
48727W        W91639  32.567   8.970  28.225 -0.1590 -0.1249  0.0816
48728W        W91640  33.478  11.342  25.601  0.1835  0.0556  0.1372
48729W        W91641   0.017   6.971  30.216  0.0275  0.1924 -0.2821
48730W        W91642  32.911   8.556  27.267 -0.3644  0.0621 -0.1346
48731W        W91643   0.492   7.315  30.337  0.1461 -0.2269 -0.0505
48732W        W91644  33.955   9.056  30.561  0.2081  0.2887 -0.1017
48733W        W91645  33.830  10.931  30.714  0.0568  0.1648  0.1254
48734W        W91646  34.292   7.361  29.805  0.1173  0.2396  0.0351
48735W        W91647  33.179  10.528  27.541  0.1930 -0.0774  0.3266
48736W        W91648   0.195   9.409  28.054 -0.0022 -0.1411  0.0811
48737W        W91649  34.493   6.560  31.017 -0.1882 -0.1951  0.0601
48738W        W91650  33.765  11.066  29.716 -0.0301  0.1456 -0.2248
48739W        W91651  34.105   8.871  28.303 -0.2036  0.0263 -0.1773
48740W        W91652  32.133   9.829  27.477 -0.1310  0.0220 -0.1576
48741W        W91653  34.110   9.789  30.373 -0.4973  0.1337 -0.1460
48742W        W91654  32.614   9.365  27.788 -0.1555 -0.1918  0.1436
48743W        W91655  31.593   8.882  29.271 -0.2696  0.1599  0.0590
48744W        W91656  33.585   8.692  30.688  0.3958 -0.2300  0.0240
48745W        W91657   0.343   8.683  30.265 -0.3160 -0.0738  0.0689
48746W        W91658  33.035   8.988  30.460  0.1521  0.0865 -0.1356
48747W        W91659  34.413   9.324   0.570 -0.0613 -0.0770  0.1081
48748W        W91660  32.245   7.992  28.035 -0.0797 -0.1265  0.2800
48749W        W91661  33.255   9.077  28.855  0.0834 -0.1048 -0.2979
48750W        W91662   0.250  11.310  27.140 -0.2780 -0.1984 -0.0777
48751W        W91663  33.180   9.256  29.828  0.1646 -0.2354  0.0347
48752W        W91664  33.140  10.915  28.351  0.0656  0.1042  0.2515
48753W        W91665  34.684   6.522  30.012 -0.2119  0.2315 -0.1281
48754W        W91666   0.165   7.025  29.727 -0.0397  0.1441  0.0612
48755W        W91667  33.931   8.213  29.036  0.0205 -0.1068 -0.1942
48756W        W91668  34.434   7.948  29.361  0.3115  0.0464 -0.0409
48757W        W91669   0.580   7.313  31.409 -0.0521  0.1796 -0.2305
48758W        W91670  32.964   9.458  31.060  0.0659 -0.2127  0.0588
48759W        W91671  32.917   9.087  29.252 -0.0998 -0.1388  0.1244
48760W        W91672  33.303   9.442  29.241  0.0226 -0.3401 -0.0799
48761W        W91673  33.667   9.009  28.603  0.1186  0.1040  0.0057
48762W        W91674   1.351   6.539  29.414  0.2236 -0.0113  0.1253
48763W        W91675  33.665   9.683  31.081  0.0904  0.0146 -0.0151
48764W        W91676  34.194   9.596  28.891 -0.2772 -0.3444  0.1769
48765W        W91677  33.864   9.359  30.213 -0.0285 -0.0686  0.0499
48766W        W91678  34.667   8.354  29.607 -0.0126  0.2200  0.3107
48767W        W91679  34.166   8.661  30.790 -0.0816 -0.0068  0.0459
48768W        W91680   0.190   7.740  31.760 -0.2520  0.1245 -0.0584
48769W        W91681  33.100   9.151   0.185  0.4310 -0.1887 -0.1666
48770W        W91682  32.593   7.851  29.476  0.1053 -0.1590  0.0474
48771W        W91683  34.332  10.990  30.699 -0.2792 -0.0761  0.2836
48772W        W91684  34.478   9.570  27.789  0.1234 -0.2487 -0.3970
48773W        W91685  33.415   8.887  29.419  0.3787 -0.1799  0.1854
48774W        W91686   0.703   9.171  27.935 -0.3192 -0.1421  0.1912
48775W        W91687  33.503   8.929  30.293 -0.0841 -0.2970 -0.0242
48776W        W91688  34.382   7.017  31.930 -0.0360 -0.2259 -0.2019
48777W        W91689  33.923   9.329  31.496 -0.1718  0.4143  0.3351
48778W        W91690  34.319   7.713   0.190  0.0026  0.0757  0.2416
48779W        W91691  32.062   7.978  29.999  0.3745  0.2268  0.1526
48780W        W91692  33.433   7.465  28.816 -0.2329  0.2917 -0.0220
48781W        W91693   0.887  10.117  28.047 -0.0330  0.1240 -0.1691
48782W        W91694  32.073   7.584  29.647  0.0332  0.0748 -0.1638
48783W        W91695  34.330  10.719  30.267 -0.1172 -0.3475 -0.0002
48784W        W91696  34.374   8.045  27.980 -0.1858  0.2186  0.0729
48785W        W91697  32.744   8.180  28.849  0.0192 -0.1166 -0.2612
48786W        W91698   0.007   9.877  29.988  0.0705  0.3244 -0.0192
48787W        W91699  34.436   8.129  28.780  0.0629  0.1629  0.2524
48788W        W91700  33.396  10.431  27.997 -0.1411 -0.1796 -0.0622
48789W        W91701  32.919  10.331  29.070 -0.0495  0.0184  0.1512
48790W        W91702  33.820  10.421  31.793 -0.1724  0.1526  0.2033
48791W        W91703  34.340  10.514  29.097  0.0805 -0.1600  0.2434
48792W        W91704   0.369   9.512  28.558 -0.2785 -0.2498 -0.0126
48793W        W91705  34.250   8.941  30.121  0.0219 -0.0861  0.2106
48794W        W91706  33.365   9.455  31.934  0.3970 -0.0368  0.4015
48795W        W91707  31.870   8.232  30.532 -0.1050 -0.0915  0.2345
48796W        W91708  32.500   7.286  28.586 -0.0681  0.0483 -0.1369
48797W        W91709  32.290   8.838  30.397  0.1438  0.1646  0.0545
48798W        W91710  31.479   8.690  30.241 -0.2071  0.2285 -0.1355
48799W        W91711  34.623  11.415  30.328 -0.0169 -0.0508 -0.2618
48800W        W91712  33.878   6.491  27.557 -0.2894 -0.0549  0.2683
48801W        W91713  34.057   9.565  29.346 -0.0178 -0.2984  0.1433
48802W        W91714  32.665   9.724  26.269 -0.1172  0.0478  0.2736
48803W        W91715  33.964  11.277  27.717 -0.6354  0.1593  0.2853
48804W        W91716  33.856   9.109  31.066  0.0866 -0.0108 -0.0352
48805W        W91717   0.378   8.781  27.913  0.0326 -0.1958 -0.2376
48806W        W91718  32.583   8.462  31.273 -0.1535 -0.1591 -0.0058
48807W        W91719  33.467   8.648  31.187  0.2013 -0.0617 -0.0977
48808W        W91720  32.069   7.492  30.164 -0.0069 -0.4188 -0.3798
48809W        W91721  33.993   7.616  30.094 -0.2280 -0.1179  0.2681
48810W        W91722  33.748   7.783  27.654  0.2738 -0.0212  0.5575
48811W        W91723  33.837   9.707  28.454 -0.0926 -0.1796  0.0043
48812W        W91724   0.385   8.790  29.390  0.0610  0.2284  0.1794
48813W        W91725  34.639   9.249  29.723 -0.2601 -0.1725  0.0483
48814W        W91726  32.423   7.876  28.999  0.3759  0.1354 -0.0061
48815W        W91727  34.435   8.690  31.236 -0.0879  0.2554  0.0000
48816W        W91728  33.972   8.211  29.597  0.3032  0.1257 -0.3925
48817W        W91729   0.229   7.195  31.780 -0.0109 -0.0871  0.0220
48818W        W91730   0.166   8.311  28.961 -0.1833 -0.3086 -0.2061
48819W        W91731  33.512   7.750  28.251  0.0297  0.3003 -0.2036
48820W        W91732  32.911   9.509  28.908 -0.0742  0.4568  0.0333
48821W        W91733  33.923   8.677  31.334  0.2347  0.1157 -0.0327
48822W        W91734  32.647   7.391  29.260 -0.2149 -0.2323  0.0536
48823W        W91735  32.945  11.528  27.908  0.0290  0.1826 -0.1941
48824W        W91736  31.864   8.782  30.638 -0.0279 -0.0747  0.1580
48825W        W91737   0.042   6.203  28.802  0.1450  0.1617  0.0907
48826W        W91738  34.258   7.326  29.274 -0.1741 -0.1126 -0.1505
48827W        W91739  32.941   9.883  28.415 -0.0542  0.2699  0.0642
48828W        W91740   0.476  10.196  27.866  0.1400  0.0884  0.1289
48829W        W91741  33.609   8.997  31.695 -0.0234 -0.3643  0.2766
48830W        W91742  33.946  10.073  31.264  0.0572  0.3999 -0.1142
48831W        W91743  33.822   8.762  29.870 -0.0286 -0.1681  0.5142
48832W        W91744  34.210   9.619  30.944 -0.0403  0.2002  0.0723
48833W        W91745   0.021   9.054  27.769  0.0531 -0.0582  0.0659
48834W        W91746   0.611  10.380  28.455 -0.4083 -0.2994  0.2236
48835W        W91747   0.222   7.784  29.177  0.1361  0.0044 -0.0773
48836W        W91748  34.486   6.608  31.627  0.4831  0.1890 -0.0187
48837W        W91749   0.079   9.051  31.249  0.4444  0.0881  0.0461
48838W        W91750  31.899   7.846  29.123  0.2261 -0.0159  0.2383
48839W        W91751  34.212   9.341  28.449 -0.1296 -0.0181  0.0386
48840W        W91752  33.962  10.022  29.291 -0.3961  0.0466  0.0903
48841W        W91753   0.207   6.819   0.159 -0.3312  0.0768  0.1909
48842W        W91754  33.283   8.108  30.680 -0.1558 -0.3866  0.2493
48843W        W91755  33.378   9.214  30.802  0.0635 -0.1241  0.1762
48844W        W91756  31.960   8.978  27.322 -0.2724  0.0865 -0.0569
48845W        W91757  33.905   6.525  28.074 -0.0849  0.0615  0.1664
48846W        W91758  33.468   8.400  29.148  0.1238  0.0408 -0.2004
48847W        W91759  34.063   6.988  30.092 -0.0809  0.1529  0.1137
48848W        W91760  32.762   8.274  29.788  0.1712  0.1595  0.3123
48849W        W91761   1.118   9.073  30.825 -0.0634 -0.1464 -0.2146
48850W        W91762   0.780   7.118  31.020 -0.0930 -0.0463  0.0361
48851W        W91763  33.525   8.311  27.886  0.0964  0.1899 -0.2477
48852W        W91764  34.597   8.353  30.899  0.2080  0.0617  0.1227
48853W        W91765  34.407  10.085  30.734 -0.0369 -0.0258  0.4347
48854W        W91766   0.108  11.068  31.449 -0.2559 -0.1009 -0.0891
48855W        W91767  33.500   6.362  31.428 -0.0916  0.0956  0.0254
48856W        W91768   0.782   9.478  31.499 -0.1286 -0.1019 -0.1123
48857W        W91769  33.108   7.002  30.169  0.2371 -0.1789 -0.0650
48858W        W91770  33.043   9.103  31.702 -0.1657  0.2786  0.0206
48859W        W91771  33.910   6.843  29.080 -0.0789 -0.0257 -0.1863
48860W        W91772  33.597   7.194  30.089  0.0045 -0.0885 -0.3215
48861W        W91773  34.254   7.797  28.474  0.0528 -0.0560  0.1421
48862W        W91774  34.353   9.640  31.491  0.2997 -0.1735  0.0526
48863W        W91775  34.311   8.857  27.568  0.0771 -0.1723 -0.3041
48864W        W91776  34.100  10.620  31.062  0.0479 -0.0084  0.1221
48865W        W91777  33.452   6.200  29.681  0.0630  0.5014 -0.4514
48866W        W91778  32.976   8.674  29.003  0.1929  0.1902 -0.1393
48867W        W91779  34.288   8.423  29.966 -0.0556 -0.2007  0.0634
48868W        W91780  33.430   8.378  30.270 -0.3603 -0.1854  0.1155
48869W        W91781   0.484   9.901  30.985  0.0476 -0.2797 -0.0328
48870W        W91782  31.295   9.083  31.290 -0.1372  0.3468 -0.1457
48871W        W91783  32.487   9.166   0.063 -0.4976 -0.3210  0.0993
48872W        W91784   0.795   9.709   1.095  0.0786  0.0928 -0.0366
48873W        W91785  33.042  10.600  30.370  0.3779  0.0292 -0.0011
48874W        W91786  34.642   7.232   0.325  0.0407 -0.3536 -0.1833
48875W        W91787  33.182   8.148  31.807 -0.0365  0.1332  0.0589
48876W        W91788  34.421   8.964   0.907  0.0026  0.3807  0.1491
48877W        W91789   0.001   9.942  31.699  0.1184  0.0095 -0.0747
48878W        W91790  34.108  10.167   0.251  0.3601  0.1788  0.3612
48879W        W91791  32.116   7.816   0.534  0.1857 -0.0493 -0.1278
48880W        W91792  30.826   8.220  31.306  0.0760  0.0026 -0.2653
48881W        W91793  33.891   7.697   0.420  0.1337 -0.0164 -0.1660
48882W        W91794  33.104   8.861   0.994 -0.1228 -0.2333  0.1148
48883W        W91795   0.405   8.734  31.176  0.0219  0.0850  0.3331
48884W        W91796  31.228   9.578  31.366 -0.0412  0.1591 -0.2771
48885W        W91797  33.761   8.191  30.681  0.1492  0.4714 -0.1524
48886W        W91798  33.259   9.732   0.419  0.0273 -0.0931  0.0531
48887W        W91799  34.117   9.837  31.841 -0.1969 -0.0682 -0.0853
48888W        W91800   0.889   8.566  31.062  0.2623  0.0374  0.0960
48889W        W91801  32.237   8.144  31.354  0.0610 -0.1183  0.0610
48890W        W91802  34.490   9.824   0.190  0.2004 -0.2466  0.0442
48891W        W91803  34.011  10.455  30.542  0.2702  0.0418  0.1464
48892W        W91804   0.119   7.607   0.800  0.0820  0.1790  0.3919
48893W        W91805  33.357   6.421   1.018  0.1308 -0.3639 -0.0668
48894W        W91806   0.584  10.534   0.797  0.1901  0.0657  0.0379
48895W        W91807  32.367   7.625   0.157 -0.2306  0.1911  0.1493
48896W        W91808   0.028   8.782  31.740  0.1699 -0.0986 -0.0615
48897W        W91809   0.724   7.571   0.662 -0.3882 -0.0782  0.0923
48898W        W91810  32.399   9.748  31.673  0.4044  0.0775  0.1333
48899W        W91811  32.717   8.006   0.095 -0.2520 -0.2247 -0.2641
48900W        W91812  34.094   9.337  31.957  0.0741 -0.0419  0.0188
48901W        W91813  34.097   7.868  31.699 -0.0106 -0.1063 -0.0030
48902W        W91814  33.232   9.759  30.726 -0.1637  0.1486  0.0344
48903W        W91815   0.157   9.578  31.325  0.1155 -0.0235 -0.1003
48904W        W91816  33.019   8.852  31.241  0.0271  0.0493 -0.2133
48905W        W91817  33.600   8.057   0.094 -0.4593 -0.0383  0.0503
48906W        W91818  32.630   8.773  31.655  0.1069  0.0447 -0.3880
48907W        W91819  33.594   7.911  31.582  0.1781 -0.0067 -0.4642
48908W        W91820  32.732   6.981  31.114  0.0495 -0.0694  0.3958
48909W        W91821  33.487  12.251  19.649 -0.2936  0.0542 -0.1046
48910W        W91822  31.773  12.309  17.725 -0.1038 -0.0567  0.0639
48911W        W91823  31.228  12.442  17.742 -0.1659  0.0448  0.1635
48912W        W91824  31.056  11.859  18.637 -0.3578  0.1717  0.0575
48913W        W91825  34.051  10.846  19.954 -0.0871  0.2863  0.1257
48914W        W91826  34.521  13.948  18.312 -0.0211 -0.1497  0.0761
48915W        W91827  33.599  10.258  17.380 -0.2714  0.0205  0.1566
48916W        W91828  32.829  10.108  16.810  0.0704 -0.2803 -0.0672
48917W        W91829  33.191  13.925  17.368  0.0452  0.2154  0.0454
48918W        W91830  30.457  11.676  18.473  0.2527 -0.2297  0.0147
48919W        W91831  33.405  11.914  17.552 -0.2301  0.1575 -0.2138
48920W        W91832  33.493  10.495  17.997  0.1136 -0.1160 -0.0866
48921W        W91833  33.008  12.909  17.134  0.0216 -0.0183 -0.0214
48922W        W91834  33.983  12.144  16.760 -0.1335 -0.0529 -0.1363
48923W        W91835  32.529  13.914  18.714  0.0009  0.2196  0.2702
48924W        W91836  33.026  11.969  19.544  0.2732  0.5393 -0.0072
48925W        W91837  34.316  14.790  17.928  0.1744 -0.2271 -0.0686
48926W        W91838  34.005  13.684  17.299  0.0863 -0.2018 -0.1492
48927W        W91839  31.862  14.934  18.283 -0.1527  0.1524  0.3063
48928W        W91840  32.731  15.021  19.581 -0.0952  0.0317 -0.1620
48929W        W91841  32.504  13.853  17.360  0.0058  0.4310  0.0369
48930W        W91842  34.200  14.415  19.653 -0.0207  0.2294  0.0654
48931W        W91843  33.504  12.888  16.573  0.0337  0.2217  0.6189
48932W        W91844  33.329  14.293  19.816 -0.0127 -0.0902 -0.2491
48933W        W91845  33.250  13.324  16.787  0.0093 -0.0466 -0.0817
48934W        W91846  33.127  14.832  17.608  0.3247 -0.1608  0.1334
48935W        W91847  34.235  12.454  19.125 -0.0901 -0.1876  0.3719
48936W        W91848  32.146  13.457  18.728  0.2942 -0.5293  0.1101
48937W        W91849  32.600  12.704  17.458 -0.1923 -0.0838 -0.0024
48938W        W91850  33.600  10.773  17.519 -0.0870 -0.0421  0.0449
48939W        W91851   0.378   9.787  18.466 -0.0001 -0.0612 -0.1900
48940W        W91852   0.861  13.381  18.215  0.0412 -0.3038 -0.0056
48941W        W91853  32.509  11.660  19.965  0.3066 -0.1400  0.2239
48942W        W91854  33.080  14.256  19.382  0.0091  0.0307  0.0644
48943W        W91855  32.024  13.112  19.013 -0.1199  0.1294  0.1328
48944W        W91856  33.641  12.216  17.219  0.0458 -0.1473  0.0026
48945W        W91857  31.320  12.145  17.226 -0.1892  0.0021  0.1494
48946W        W91858  33.731  12.729  19.616 -0.4204 -0.0140  0.0529
48947W        W91859  34.136  11.359  16.270 -0.2422 -0.0696 -0.1481
48948W        W91860  32.016  14.586  20.409 -0.2027  0.4008 -0.1660
48949W        W91861  32.230  11.711  18.271 -0.1177 -0.1791 -0.0075
48950W        W91862  33.539  13.568  17.324  0.0612 -0.1192 -0.1614
48951W        W91863  33.574  13.813  16.360 -0.1796  0.0377 -0.0089
48952W        W91864  32.349  14.969  19.993  0.0810 -0.3065  0.0497
48953W        W91865  33.830  12.112  19.275 -0.0941 -0.0447 -0.0184
48954W        W91866  33.220  12.715  19.779 -0.1597 -0.1000 -0.4181
48955W        W91867  34.201  14.641  16.202 -0.1484  0.0572 -0.2554
48956W        W91868  32.715  13.416  19.639 -0.2722 -0.2949  0.0145
48957W        W91869  32.917  12.716  15.719 -0.2631  0.2907 -0.0485
48958W        W91870  32.648  10.281  18.015  0.2112  0.1255 -0.0652
48959W        W91871  33.966  13.396  18.728 -0.0526 -0.1457 -0.2846
48960W        W91872  33.164  11.528  18.691  0.0830  0.0522 -0.2361
48961W        W91873  33.393  13.099  17.433  0.1173  0.1248  0.0815
48962W        W91874  33.328  12.586  20.662  0.2776 -0.1898  0.1359
48963W        W91875  33.201  12.006  17.953 -0.1580  0.0366 -0.0093
48964W        W91876  34.694  12.593  19.190 -0.0676 -0.0056 -0.3743
48965W        W91877  32.113  12.618  18.005 -0.0598  0.0071  0.0598
48966W        W91878  31.691  11.177  17.647  0.1022 -0.2860  0.0542
48967W        W91879  33.312  13.100  18.087  0.0276  0.0550  0.0639
48968W        W91880  32.395  12.565  18.700 -0.0481  0.1440  0.2178
48969W        W91881  31.994  12.811  20.009  0.1216 -0.2444  0.2021
48970W        W91882  33.091  11.977  17.152  0.2749 -0.0245 -0.0966
48971W        W91883  32.981  13.598  18.826 -0.4011  0.0365 -0.2240
48972W        W91884  33.560  13.060  19.980  0.1156  0.1546 -0.0204
48973W        W91885  33.572  11.062  18.002 -0.0560  0.1557 -0.0491
48974W        W91886  32.356  13.080  20.178 -0.0114  0.1207 -0.1403
48975W        W91887  31.674  10.743  17.165 -0.0471  0.1005  0.1149
48976W        W91888  32.363  13.589  17.795  0.0435 -0.0199 -0.1479
48977W        W91889  32.773  13.860  17.859 -0.1037  0.0654 -0.1334
48978W        W91890  34.169  13.327  16.911  0.2540 -0.1883  0.1510
48979W        W91891  32.990  14.015  18.390 -0.0808  0.3407  0.0354
48980W        W91892  33.527  12.400  16.332 -0.1377 -0.0705  0.2037
48981W        W91893   0.017  14.616  20.458 -0.1523 -0.0306  0.6076
48982W        W91894  34.680  14.340  20.038  0.1083  0.1801 -0.3705
48983W        W91895  33.181  12.675  17.863  0.0239  0.0589 -0.3515
48984W        W91896  33.977  14.272  17.566 -0.2405  0.1557 -0.0428
48985W        W91897  32.058  13.879  19.047 -0.1624 -0.0795  0.0934
48986W        W91898  34.449  10.799  19.249 -0.1295 -0.1693  0.1260
48987W        W91899  33.961  11.058  15.792 -0.0298  0.0290 -0.1267
48988W        W91900  32.110  15.067  16.209 -0.3395  0.1426  0.0264
48989W        W91901   0.124  11.806  19.343  0.2110  0.0355 -0.3176
48990W        W91902  33.129  11.701  16.724 -0.1095 -0.1497 -0.0499
48991W        W91903  34.321  10.993  18.257 -0.1372 -0.0166  0.1378
48992W        W91904  32.551  13.417  18.380 -0.2310 -0.2367  0.0854
48993W        W91905  33.500  14.567  19.135  0.3469 -0.0583 -0.0401
48994W        W91906  34.632  12.832  19.924 -0.0381  0.1648  0.5450
48995W        W91907  32.968  14.136  16.543 -0.1102 -0.0211 -0.1926
48996W        W91908  33.648  13.166  17.003  0.2329  0.1372  0.0650
48997W        W91909  33.762  11.428  19.138 -0.2946 -0.0984  0.1940
48998W        W91910  34.429  13.539  18.690 -0.1192  0.2171  0.0190
48999W        W91911  33.735  14.546  16.341  0.0816 -0.0703  0.3179
49000W        W91912  34.527  13.981  16.353  0.3599 -0.0289 -0.0894
49001W        W91913  33.979  13.919  18.764  0.1120  0.2494 -0.1874
49002W        W91914  34.064  12.739  16.400  0.2625  0.1553 -0.0484
49003W        W91915  33.381  11.990  18.482 -0.0024 -0.0935  0.0686
49004W        W91916  32.750  11.750  18.485 -0.1944  0.1728  0.2389
49005W        W91917  34.435  11.017  18.765  0.0618  0.0819  0.3741
49006W        W91918  32.836  14.725  19.216 -0.1482 -0.1732 -0.3397
49007W        W91919  34.126  12.384  19.645  0.0525  0.1379  0.0436
49008W        W91920  32.577  10.948  17.063 -0.2914 -0.2076  0.0217
49009W        W91921  33.880  11.739  19.674  0.0099  0.0729 -0.0489
49010W        W91922  32.736  13.770  16.923 -0.0484 -0.1227  0.2229
49011W        W91923  32.689  12.876  18.389 -0.1657 -0.0427 -0.0983
49012W        W91924  33.642  14.059  17.131 -0.0379  0.0278 -0.4004
49013W        W91925   1.375  12.469  20.076 -0.3741 -0.3798  0.2209
49014W        W91926  34.454  10.764  17.791 -0.1669  0.2005  0.0284
49015W        W91927  32.883  11.751  17.552 -0.1872  0.0853 -0.0688
49016W        W91928  34.649  13.297  18.280 -0.0767  0.0601  0.0377
49017W        W91929   0.694  12.079  18.112  0.2211 -0.3469 -0.0830
49018W        W91930  33.761  14.317  20.861  0.1433 -0.1217 -0.0438
49019W        W91931  32.831  12.445  17.068  0.0618  0.1278 -0.0759
49020W        W91932  32.558  13.157  18.877  0.0855 -0.0105  0.0701
49021W        W91933  34.130  13.636  16.476 -0.2675  0.0065  0.0511
49022W        W91934   0.261  10.939  17.938  0.1215  0.3521  0.0380
49023W        W91935  32.376  13.889  18.236 -0.1484  0.1671  0.1425
49024W        W91936  32.517  12.006  17.277 -0.2214  0.1346  0.1711
49025W        W91937  33.423  13.637  18.582  0.1301  0.1239 -0.3015
49026W        W91938  33.622  11.742  17.006  0.1075  0.0289  0.0817
49027W        W91939  33.515  11.889  18.974  0.2785  0.0269  0.2036
49028W        W91940  32.838  11.400  20.222  0.1005 -0.0728  0.0139
49029W        W91941  32.887  13.411  21.219  0.0127 -0.1778  0.1804
49030W        W91942  33.296  10.523  17.056  0.0065 -0.1904 -0.1739
49031W        W91943  34.207  11.350  19.019 -0.1642 -0.0661 -0.0115
49032W        W91944  34.130  13.491  15.598  0.2791  0.1120  0.2421
49033W        W91945  32.031  13.504  18.212  0.3576  0.4604 -0.2697
49034W        W91946  33.889  11.681  17.570  0.2698 -0.0178  0.1799
49035W        W91947  33.078  13.511  18.275 -0.2287 -0.2275  0.0514
49036W        W91948  32.146  10.771  19.432 -0.2808 -0.1231  0.1629
49037W        W91949   0.807  12.049  20.289 -0.0590  0.1301 -0.0327
49038W        W91950  33.668   9.438  20.125  0.0347  0.3778  0.0107
49039W        W91951  32.443  12.249  18.238 -0.0807  0.0934  0.2214
49040W        W91952  33.198  11.459  17.152 -0.2255 -0.1938  0.0966
49041W        W91953   0.415  14.553  17.592 -0.0635  0.0754 -0.0987
49042W        W91954  33.955  10.208  17.968 -0.2419  0.3033  0.0574
49043W        W91955  33.463  13.438  20.746  0.0638  0.0450  0.1759
49044W        W91956  32.833  11.542  16.160 -0.3399 -0.0094  0.0833
49045W        W91957  32.732  12.219  17.773  0.0862 -0.2251  0.1188
49046W        W91958   0.184  13.665  18.554 -0.0316 -0.0525  0.3582
49047W        W91959  34.433   9.833  16.812  0.1255 -0.2292  0.0493
49048W        W91960  32.959  14.286  17.726  0.0647 -0.0868 -0.1080
49049W        W91961  33.489  13.228  18.971 -0.2055 -0.0368 -0.1914
49050W        W91962  32.010  13.693  20.836  0.3202 -0.2168  0.1539
49051W        W91963  34.026  13.923  19.406 -0.0430 -0.0249  0.2277
49052W        W91964  34.043  12.852  18.833 -0.0141  0.1808  0.2193
49053W        W91965  33.192  12.385  17.453  0.2357 -0.2326 -0.0054
49054W        W91966  33.718  13.645  18.148 -0.1288  0.2319  0.0571
49055W        W91967  32.673  12.139  20.056 -0.0903  0.4120 -0.1953
49056W        W91968  32.305  12.352  17.648 -0.0480  0.2555 -0.0934
49057W        W91969  32.808  15.026  21.616  0.6106 -0.0473  0.2462
49058W        W91970  32.737  11.720  19.031 -0.3909 -0.1916 -0.0410
49059W        W91971  34.346  14.361  16.598 -0.1073 -0.1165  0.1792
49060W        W91972   0.808  13.140  16.692  0.0939  0.0500 -0.1309
49061W        W91973  33.058  13.400  17.243 -0.0498  0.1401  0.0995
49062W        W91974  31.866  13.391  16.754  0.2746  0.0054  0.0684
49063W        W91975  34.135  14.110  17.084  0.2390  0.1946  0.0748
49064W        W91976   0.623  11.730  19.528  0.2383 -0.1802  0.1895
49065W        W91977  34.424  11.144  16.612  0.0065 -0.0462  0.0326
49066W        W91978  33.127  11.674  19.949  0.3242 -0.0302 -0.1880
49067W        W91979  34.165  14.734  21.639 -0.0724  0.2142  0.0749
49068W        W91980  31.928  12.064  17.293 -0.2861 -0.1921  0.0909
49069W        W91981  33.105  11.477  18.159  0.1300 -0.1011  0.2032
49070W        W91982  33.803  13.294  16.533  0.2765  0.0619  0.1108
49071W        W91983  34.182  13.601  18.294 -0.2094  0.3430 -0.0519
49072W        W91984   0.278  14.441  19.273  0.0206 -0.1376 -0.0517
49073W        W91985  33.473  13.204  19.476 -0.0132 -0.0400 -0.0938
49074W        W91986  33.348  12.568  17.038 -0.0851 -0.1311  0.0963
49075W        W91987  33.277  12.275  19.168 -0.2460 -0.0698 -0.1182
49076W        W91988  34.171  12.387  17.326  0.2124  0.1769  0.0886
49077W        W91989  33.857  12.216  18.750 -0.0798  0.0668  0.2586
49078W        W91990  33.816  10.785  17.059  0.1949 -0.0076  0.1323
49079W        W91991  33.118  10.326  17.634  0.0835  0.2015 -0.0025
49080W        W91992  33.277  15.093  16.998 -0.1553 -0.3352 -0.0215
49081W        W91993  33.203  12.764  19.275 -0.0910  0.0649  0.1205
49082W        W91994  34.050   9.894  17.584  0.1600 -0.1222  0.0259
49083W        W91995  33.837  13.991  15.716 -0.2237 -0.3854 -0.3601
49084W        W91996  32.176  12.046  19.920 -0.1693 -0.0674 -0.0566
49085W        W91997   0.161  10.155  18.705 -0.0617 -0.3388 -0.1249
49086W        W91998  32.559  11.324  18.663 -0.0623 -0.0815  0.2140
49087W        W91999  31.679  15.309  16.924  0.0969 -0.0857 -0.2596
49088W        W92000  34.297  13.700  16.000  0.0430 -0.0112  0.4121
49089W        W92001   1.189  13.077  18.440  0.1959 -0.3221 -0.1261
49090W        W92002   1.495  13.836  22.198 -0.0639  0.4894 -0.2266
49091W        W92003  32.492  11.889  16.330 -0.1069  0.2474  0.2711
49092W        W92004  33.419  11.692  19.422  0.0712  0.1292  0.0780
49093W        W92005  33.686  13.896  17.692  0.2701 -0.0228  0.0130
49094W        W92006  33.830  15.640  17.664 -0.0512 -0.0343 -0.1080
49095W        W92007  33.929  10.737  18.065 -0.2567 -0.0341 -0.1566
49096W        W92008  34.537  11.261  17.886 -0.1658  0.1800 -0.2453
49097W        W92009  31.629  13.022  18.647 -0.2653  0.0830  0.3180
49098W        W92010  31.398  11.613  18.282 -0.1317  0.0686  0.2096
49099W        W92011  33.068  12.240  16.671  0.2219  0.0274  0.0874
49100W        W92012  32.334  12.564  19.660 -0.2035 -0.1343  0.0605
49101W        W92013  33.978  11.263  21.043 -0.3297  0.2497  0.0842
49102W        W92014  32.869  11.126  19.059  0.4378 -0.3451 -0.2159
49103W        W92015  32.748  12.426  19.348  0.0841 -0.0094 -0.0405
49104W        W92016  33.396  11.352  17.663  0.0162  0.1694  0.2302
49105W        W92017  34.279  11.544  18.556  0.0611 -0.2737 -0.0116
49106W        W92018  33.174  10.965  17.283 -0.2641  0.0967  0.1049
49107W        W92019  34.172  10.214  17.214  0.0415 -0.0036 -0.3840
49108W        W92020  32.304  10.943  16.484 -0.0816 -0.0841 -0.2334
49109W        W92021  34.408  13.101  20.347  0.1501  0.1139 -0.0870
49110W        W92022  34.093  11.140  19.487 -0.0273 -0.1618  0.2315
49111W        W92023  32.049  11.298  16.729 -0.1393 -0.1728  0.0757
49112W        W92024   0.012  13.841  20.246 -0.0281 -0.2260 -0.1345
49113W        W92025  33.729  13.605  19.159 -0.3564  0.3562  0.0003
49114W        W92026   0.158  14.263  18.603  0.1201 -0.3625 -0.0869
49115W        W92027  32.800  11.477  19.567 -0.2770  0.1658 -0.1560
49116W        W92028  34.289  12.832  19.485 -0.0485  0.0275 -0.1236
49117W        W92029  32.383   9.688  19.468  0.0967  0.0085  0.0849
49118W        W92030  32.897  12.206  18.802 -0.0054 -0.0944  0.1716
49119W        W92031  33.647  11.643  18.027 -0.1439 -0.2513  0.0203
49120W        W92032  32.300  13.089  18.011  0.0674  0.2605  0.3011
49121W        W92033  34.352  10.841  17.197  0.1860 -0.0226  0.0380
49122W        W92034   0.293  14.003  18.988  0.0100 -0.2370 -0.0022
49123W        W92035  34.621  10.416  16.954  0.0845  0.0758 -0.0392
49124W        W92036   0.045  13.179  18.761 -0.0947  0.1042  0.1315
49125W        W92037  32.640  11.647  17.996 -0.0664 -0.1481 -0.0778
49126W        W92038  32.630  12.671  17.970  0.0339 -0.0844  0.2110
49127W        W92039  33.586  12.734  18.643  0.0029  0.2769 -0.1617
49128W        W92040  32.791  12.626  19.987  0.0457 -0.2414  0.1770
49129W        W92041  33.587  13.596  20.262  0.1806 -0.2466 -0.0509
49130W        W92042  34.321  14.835  23.438  0.3560 -0.2809 -0.0069
49131W        W92043  34.537  12.028  19.701 -0.1428 -0.2111 -0.0317
49132W        W92044  32.490  11.756  21.842  0.1439  0.0625  0.0355
49133W        W92045  33.540  12.012  23.543 -0.0009 -0.0474 -0.1165
49134W        W92046   1.264  12.201  23.621 -0.0021  0.1719 -0.0978
49135W        W92047   1.036  14.824  22.427 -0.2825 -0.3785  0.3147
49136W        W92048  33.849  11.052  20.505 -0.2248 -0.4049  0.0708
49137W        W92049  33.319  11.193  23.177  0.1735  0.1870  0.3227
49138W        W92050  32.740  12.628  22.188 -0.2162 -0.1690  0.0641
49139W        W92051  34.142  11.530  21.882 -0.1407  0.0005  0.0881
49140W        W92052  33.507  11.949  20.391  0.2547 -0.1206 -0.0540
49141W        W92053  33.561  11.622  23.169 -0.0302 -0.1162 -0.2231
49142W        W92054  34.579  13.974  21.664 -0.0347  0.0014  0.0807
49143W        W92055  33.128  10.688  19.756 -0.2792 -0.0367 -0.0191
49144W        W92056  32.557  12.291  21.807 -0.1934  0.1392  0.1905
49145W        W92057  34.091  13.730  21.620  0.0309 -0.0748  0.0662
49146W        W92058  34.642  13.372  22.767 -0.2422 -0.1399 -0.2131
49147W        W92059   0.419  15.977  20.702  0.0520  0.0076 -0.2803
49148W        W92060  33.599  13.815  21.618 -0.1950  0.0453 -0.1468
49149W        W92061  33.109  14.424  22.384 -0.1564 -0.1665 -0.2049
49150W        W92062   0.886  15.248  20.881  0.1195  0.2227 -0.0039
49151W        W92063  33.775  14.633  24.048 -0.2783  0.1696  0.0560
49152W        W92064  32.472  13.762  21.599  0.2775  0.1470  0.2259
49153W        W92065  33.933  14.376  23.598  0.0990 -0.4105 -0.2262
49154W        W92066  33.724  14.500  20.016 -0.1192 -0.0452  0.1698
49155W        W92067   2.750  12.619  22.958 -0.0543 -0.1488  0.1274
49156W        W92068  33.979  12.886  24.632  0.0952  0.1088  0.0578
49157W        W92069  34.140  14.250  21.633 -0.0125 -0.2272 -0.3118
49158W        W92070  34.682  14.324  21.346 -0.2600 -0.2723 -0.0164
49159W        W92071  34.454  12.619  18.680  0.0611  0.0067 -0.4306
49160W        W92072  34.689  13.007  20.993 -0.2976 -0.0563 -0.1984
49161W        W92073  33.640  15.145  21.343  0.2823  0.2108 -0.1474
49162W        W92074   0.283  11.925  22.907  0.1059  0.0884 -0.0654
49163W        W92075  34.093  14.799  22.578 -0.2737 -0.1873 -0.1006
49164W        W92076  32.691  11.135  22.068 -0.0649  0.1212 -0.0661
49165W        W92077  33.924  13.982  22.062 -0.4850  0.0355 -0.1299
49166W        W92078  33.669  13.158  24.277  0.0795  0.0844 -0.3293
49167W        W92079  32.725  12.872  23.154 -0.0457  0.1504 -0.0001
49168W        W92080  32.963   9.948  20.903  0.4426  0.1075  0.3399
49169W        W92081  33.193  14.786  22.917  0.5048  0.1219 -0.1570
49170W        W92082  33.874  13.809  20.680 -0.0457  0.0253 -0.1924
49171W        W92083  33.487  11.044  18.905 -0.1736  0.1753 -0.2572
49172W        W92084  33.924  13.333  20.479 -0.3247 -0.0079  0.1255
49173W        W92085  34.249  12.868  22.020  0.1413  0.2195 -0.0486
49174W        W92086  33.971  12.128  23.859  0.4018 -0.3186  0.2693
49175W        W92087   0.023  13.326  23.973 -0.1006  0.1506 -0.0262
49176W        W92088  33.837  14.038  21.268 -0.0174  0.1344 -0.2279
49177W        W92089  34.403  13.970  22.150 -0.1141  0.1433 -0.0543
49178W        W92090  32.875  15.264  21.141 -0.0982 -0.1081 -0.0231
49179W        W92091  33.703  11.558  22.150  0.2077  0.1356 -0.0885
49180W        W92092   1.366  14.094  24.665 -0.0609  0.3293  0.0179
49181W        W92093  34.014  11.892  23.424  0.0928  0.1194 -0.2645
49182W        W92094  33.627  13.333  21.860 -0.0195 -0.0182 -0.0448
49183W        W92095  33.950  13.160  22.213  0.2501 -0.0516  0.2084
49184W        W92096  32.802  12.906  21.241 -0.0950  0.1787  0.3695
49185W        W92097  33.547  11.488  23.711  0.0237  0.1159 -0.0441
49186W        W92098  32.990  11.242  20.691 -0.0834  0.1205 -0.1114
49187W        W92099  32.181  11.737  21.027  0.2587  0.0525  0.2364
49188W        W92100  34.649  11.186  22.126 -0.0259  0.1905  0.0630
49189W        W92101  31.684  12.477  20.579 -0.0672 -0.3583 -0.1292
49190W        W92102  34.393  10.847  23.608 -0.0164  0.0314 -0.0066
49191W        W92103  34.028  12.896  20.674  0.3546  0.0971 -0.0451
49192W        W92104  33.179  14.937  22.378 -0.0674 -0.0377  0.1578
49193W        W92105  33.262  13.087  23.012 -0.1323 -0.0851  0.4847
49194W        W92106  34.118  12.752  22.527 -0.2038  0.0512 -0.2610
49195W        W92107  34.408  14.670  23.970 -0.2596  0.0784 -0.0190
49196W        W92108  33.566  10.474  19.763 -0.1822 -0.1796 -0.0154
49197W        W92109  33.696  14.682  20.486  0.2265 -0.0907  0.1686
49198W        W92110  33.599  14.431  21.707 -0.0144  0.0950 -0.2523
49199W        W92111   1.104  14.200  21.656 -0.1083 -0.0488  0.2322
49200W        W92112  33.844  12.289  22.478 -0.2516  0.0231  0.0081
49201W        W92113  33.849  11.643  20.140  0.2967  0.4483  0.0321
49202W        W92114  34.146  13.645  22.545 -0.0447  0.2214 -0.1430
49203W        W92115  32.289  14.902  23.978 -0.0035  0.0531  0.0517
49204W        W92116   0.310  12.898  22.624  0.0541 -0.0791 -0.3144
49205W        W92117   0.856  15.456  21.405 -0.2928 -0.2044  0.4575
49206W        W92118  32.294  12.073  23.257 -0.1090 -0.1070  0.3742
49207W        W92119  34.419  11.420  22.542 -0.0722  0.0362 -0.0635
49208W        W92120  34.352  11.643  19.379 -0.1503  0.1989  0.0805
49209W        W92121  31.548  13.748  20.579  0.1110  0.0204  0.1038
49210W        W92122  34.496  12.061  23.856  0.0876 -0.1687  0.0721
49211W        W92123  33.033  11.844  20.425 -0.0889 -0.0921 -0.3560
49212W        W92124   0.174  11.372  22.891  0.1864 -0.1907 -0.0808
49213W        W92125  34.465  13.400  21.639  0.1064  0.0279 -0.5266
49214W        W92126  32.169  15.048  23.064 -0.0641 -0.0663 -0.1905
49215W        W92127   0.669  10.738  23.327 -0.2339 -0.0360 -0.0907
49216W        W92128  33.393  14.047  22.540 -0.0057  0.1194  0.1681
49217W        W92129  34.296  13.180  21.216 -0.0553 -0.0680  0.0061
49218W        W92130   0.169  10.210  21.923  0.0175 -0.0170  0.2003
49219W        W92131   0.764  14.426  22.765 -0.5576 -0.1778  0.3718
49220W        W92132  33.594  12.979  20.535  0.0555  0.2045  0.0301
49221W        W92133  34.441  15.193  22.566 -0.0556  0.1637  0.0278
49222W        W92134  32.290  13.058  22.846  0.0244 -0.2778  0.2137
49223W        W92135  34.287  11.234  20.322  0.1366 -0.0603  0.2214
49224W        W92136  33.245  11.221  22.695  0.0702  0.2093  0.0644
49225W        W92137  34.015  12.419  23.426 -0.3148 -0.1499  0.1417
49226W        W92138  34.329  12.413  22.242 -0.2004  0.2907 -0.1670
49227W        W92139  33.039  14.376  23.370 -0.1507  0.0354 -0.1642
49228W        W92140  34.053  11.528  23.080 -0.0086 -0.1263 -0.0335
49229W        W92141  33.827  12.148  20.038  0.1701 -0.2679 -0.1974
49230W        W92142   0.132  10.267  22.511  0.3519  0.0363 -0.0927
49231W        W92143  33.231  14.150  21.541  0.0729 -0.4423 -0.2232
49232W        W92144  33.863  12.289  20.573 -0.0703  0.1600  0.1261
49233W        W92145  33.409  13.262  21.317 -0.0413 -0.0534 -0.3103
49234W        W92146  34.446  11.589  23.377  0.1901 -0.3341  0.0982
49235W        W92147  33.957  12.745  23.043 -0.0668  0.0324 -0.2840
49236W        W92148  33.802  11.779  21.651  0.1576  0.2404  0.3535
49237W        W92149  34.080  12.154  21.427 -0.1485  0.2836  0.1107
49238W        W92150   1.208  12.171  25.090 -0.1740  0.3765  0.1668
49239W        W92151  33.774  13.247  23.162  0.0588 -0.0193  0.2477
49240W        W92152  33.787  13.013  21.185 -0.2099  0.1475 -0.4475
49241W        W92153  34.244  13.521  22.074  0.0661  0.0946  0.0286
49242W        W92154   0.051  13.873  20.701  0.0924 -0.1749 -0.0679
49243W        W92155  33.651  12.286  23.063 -0.1899 -0.0407 -0.0652
49244W        W92156  33.611  14.147  23.958  0.0358 -0.0077 -0.0680
49245W        W92157  32.990  13.588  20.299 -0.0064  0.0009  0.1868
49246W        W92158  32.121  13.962  23.289 -0.0057 -0.2849 -0.1056
49247W        W92159  33.139  11.865  21.275 -0.4679 -0.0056  0.0417
49248W        W92160   0.213  10.754  22.304 -0.1934 -0.4888  0.0634
49249W        W92161  34.532  12.088  23.298  0.2767  0.0548 -0.1483
49250W        W92162   0.715  14.125  24.018  0.1410 -0.3644 -0.1645
49251W        W92163  33.600  11.338  19.843 -0.0777 -0.1044  0.1178
49252W        W92164   0.220  12.729  23.129  0.1183 -0.1734  0.2658
49253W        W92165  34.099  13.736  20.229 -0.2779  0.0065  0.1774
49254W        W92166  34.378  14.331  22.635  0.4089 -0.0240 -0.1198
49255W        W92167   1.964  13.929  20.115 -0.4798  0.0426 -0.2881
49256W        W92168  34.441  12.633  23.320 -0.0113  0.2222  0.0295
49257W        W92169  33.077  12.507  23.567  0.0786  0.1423  0.0555
49258W        W92170   1.151  11.724  23.766  0.1113  0.3112  0.2047
49259W        W92171  33.266  12.106  22.778 -0.2724 -0.1634  0.1113
49260W        W92172  33.492  12.032  22.051 -0.0458  0.0259 -0.0872
49261W        W92173  34.035  10.637  20.452  0.1028 -0.0491  0.2134
49262W        W92174  34.052  12.998  19.922  0.0700 -0.0186 -0.0091
49263W        W92175  33.475  12.320  21.452  0.2256  0.0180  0.2314
49264W        W92176  34.221  15.617  24.966  0.0606 -0.3053 -0.0467
49265W        W92177  34.697  11.747  20.228  0.1337 -0.0116  0.1295
49266W        W92178   0.610  13.385  21.325 -0.0034  0.1998 -0.2419
49267W        W92179  34.458  13.145  22.401  0.0489  0.2878 -0.0474
49268W        W92180   0.758  10.687  20.387 -0.2010  0.4256  0.1773
49269W        W92181  33.331  13.805  21.213 -0.2879  0.1259 -0.0245
49270W        W92182  34.023  13.895  22.997 -0.0589 -0.2091  0.0280
49271W        W92183  31.887  13.368  23.020 -0.1356 -0.1859 -0.2708
49272W        W92184  33.211  14.818  21.309 -0.0497  0.2601 -0.1014
49273W        W92185  34.157  12.128  22.960  0.2119 -0.2196  0.2423
49274W        W92186  33.612  10.551  22.369  0.2355  0.2082  0.2028
49275W        W92187   0.221  13.693  23.136 -0.1246 -0.2095  0.0631
49276W        W92188  32.651  11.890  22.781 -0.2865 -0.1277  0.0373
49277W        W92189  33.360  11.561  21.773 -0.0402  0.2488  0.1719
49278W        W92190  32.616  13.824  22.946  0.1206 -0.1890  0.1818
49279W        W92191  33.123  13.873  23.039  0.3678  0.1577  0.1678
49280W        W92192  34.550  15.146  21.738  0.1665  0.2879  0.0940
49281W        W92193  34.209  11.924  20.262 -0.1910  0.1028  0.3034
49282W        W92194   0.232  13.199  23.249  0.1011  0.2360  0.3449
49283W        W92195  33.616  12.614  20.143  0.3524 -0.0763  0.1055
49284W        W92196  32.582  16.147  21.738  0.1836 -0.1665  0.2770
49285W        W92197  33.470  12.483  22.277 -0.2106 -0.2543 -0.0819
49286W        W92198  33.784  11.586  20.615 -0.3192  0.1070 -0.1834
49287W        W92199  34.468  12.883  22.873 -0.0020  0.1339  0.0226
49288W        W92200  33.385  14.312  23.036  0.0524 -0.0955  0.1233
49289W        W92201  32.429  11.830  20.474  0.0670  0.0701  0.1407
49290W        W92202  34.253  12.018  20.948 -0.0924  0.3364  0.1727
49291W        W92203  32.770  12.866  19.514 -0.0972  0.1309 -0.2598
49292W        W92204   0.012  14.627  21.762  0.0676  0.2958 -0.2216
49293W        W92205   0.053  14.398  22.283 -0.2363 -0.0214 -0.0041
49294W        W92206   1.104  15.035  23.392 -0.1983 -0.2132  0.0790
49295W        W92207  31.912  10.991  19.986  0.2200  0.1923  0.0310
49296W        W92208  34.025  12.683  21.488  0.2109 -0.3556 -0.0397
49297W        W92209  33.839  12.557  21.945 -0.0438 -0.1812  0.0413
49298W        W92210  34.375  13.339  23.143  0.1357  0.2370 -0.0380
49299W        W92211   0.330  11.989  19.907  0.2627  0.2456  0.1209
49300W        W92212  32.774  11.486  22.520 -0.0560 -0.6841  0.2227
49301W        W92213  33.103  11.347  22.174  0.0412 -0.2090  0.5001
49302W        W92214   0.569  13.336  22.665 -0.1189  0.1461  0.2235
49303W        W92215  34.377  12.413  21.769 -0.0253 -0.0872 -0.0825
49304W        W92216  33.310  14.412  21.088 -0.0779  0.2993  0.0156
49305W        W92217  33.546  12.745  22.721 -0.0180 -0.0264  0.1616
49306W        W92218  34.051  11.695  21.247 -0.2127 -0.0671  0.1213
49307W        W92219  34.031  13.205  21.657 -0.0953 -0.1646  0.3407
49308W        W92220  33.600  14.372  22.205 -0.3230 -0.1530 -0.1376
49309W        W92221  33.802  14.011  19.963  0.3181  0.0206 -0.0394
49310W        W92222   2.078  12.490  23.219  0.0015  0.1617 -0.0328
49311W        W92223  33.476  14.673  23.369  0.0369 -0.3989  0.1608
49312W        W92224  33.169  12.398  21.863  0.3705  0.1128  0.1166
49313W        W92225  34.058  13.486  23.478 -0.1324 -0.3051  0.1206
49314W        W92226   0.121  13.982  22.559  0.3245 -0.0793 -0.1285
49315W        W92227  33.738  14.663  21.252 -0.0192  0.1809  0.0925
49316W        W92228   0.008  12.708  22.314  0.3900  0.1360 -0.1602
49317W        W92229  33.368  11.598  20.849  0.3301 -0.1255  0.1228
49318W        W92230  32.713  12.302  23.020  0.0851  0.2024 -0.1157
49319W        W92231  33.134  11.179  19.805 -0.0221 -0.1460 -0.0041
49320W        W92232  34.394  13.543  20.644  0.0185  0.1044 -0.2499
49321W        W92233  34.317  11.924  22.496 -0.4352  0.0327  0.2650
49322W        W92234  33.791  11.228  24.104 -0.2357  0.1533 -0.1528
49323W        W92235  32.779  12.982  22.627  0.1212  0.1324  0.0098
49324W        W92236  32.929  14.312  22.874 -0.0347 -0.0226  0.0494
49325W        W92237  33.302  12.082  20.821  0.0245 -0.1885 -0.1073
49326W        W92238  33.641  11.371  21.396  0.2671 -0.0964  0.1826
49327W        W92239  33.777  12.035  20.989  0.3140 -0.1711  0.1432
49328W        W92240  34.032  11.979  22.075 -0.0180  0.0433  0.0416
49329W        W92241  33.512  13.888  19.496 -0.1656 -0.1329 -0.4614
49330W        W92242   1.792  12.465  23.613  0.2647 -0.0750  0.0714
49331W        W92243   0.480  11.187  24.578  0.0568  0.3506 -0.2733
49332W        W92244  34.162  10.630  18.686  0.0447 -0.1818 -0.0395
49333W        W92245   0.118  11.444  21.648  0.2534  0.0535  0.0881
49334W        W92246  34.532  13.669  23.563 -0.5886  0.1641 -0.2571
49335W        W92247   0.967  13.201  23.543  0.1279  0.0735  0.3318
49336W        W92248  33.104  11.146  23.689  0.0937  0.0471 -0.1874
49337W        W92249   0.695  14.656  24.107  0.1990  0.0245  0.1123
49338W        W92250   0.026   9.839  23.261 -0.3166 -0.3528 -0.0673
49339W        W92251  33.661  13.951  23.389  0.3386  0.0853 -0.0254
49340W        W92252  33.401  11.418  20.390 -0.1989 -0.2795 -0.1218
49341W        W92253  34.555  11.691  22.114  0.1480  0.0964  0.0921
49342W        W92254  34.404  11.115  21.618 -0.3613 -0.3231 -0.0982
49343W        W92255   0.289  12.799  24.023  0.0818 -0.0256 -0.1221
49344W        W92256   0.144  11.640  21.179 -0.1243 -0.0359  0.5205
49345W        W92257   0.701  14.321  22.170  0.0387 -0.1195 -0.2766
49346W        W92258  34.427  10.695  22.333  0.1158  0.2826 -0.0132
49347W        W92259  33.324  11.702  22.447 -0.1534  0.3580  0.2577
49348W        W92260   0.576  13.780  22.366  0.2713 -0.0736  0.3732
49349W        W92261  33.800  11.180  21.796 -0.0166  0.0516 -0.1444
49350W        W92262   1.179  13.552  23.280  0.1256 -0.1266  0.2616
49351W        W92263  33.323  13.797  27.436 -0.0421  0.0991 -0.0929
49352W        W92264  32.576  12.729  24.515 -0.2778 -0.1326 -0.1566
49353W        W92265  32.266  12.499  24.146  0.1231 -0.1942  0.2684
49354W        W92266  33.189  11.877  26.317  0.1115  0.1432 -0.1082
49355W        W92267  34.038  11.860  27.036 -0.2049 -0.1453  0.2050
49356W        W92268  33.579  12.846  26.654 -0.4900 -0.1547  0.1673
49357W        W92269   0.284  10.521  25.631  0.2944 -0.0167 -0.0903
49358W        W92270  31.346  10.906  26.264  0.0211  0.0439  0.4004
49359W        W92271  33.075  12.614  22.575 -0.0082 -0.2978 -0.1915
49360W        W92272  34.431  12.493  27.049  0.1992 -0.0254  0.7270
49361W        W92273  33.906  11.951  24.835  0.1214 -0.3937  0.6048
49362W        W92274  34.555  11.791  25.462  0.2197 -0.3308  0.0525
49363W        W92275   0.931  14.336  23.606 -0.1343 -0.3324 -0.1379
49364W        W92276  31.584  13.005  24.285 -0.2890  0.1418 -0.0100
49365W        W92277  33.349  10.978  24.526 -0.0790 -0.0452  0.1586
49366W        W92278  33.911  13.361  25.681 -0.0433  0.0700 -0.1917
49367W        W92279   0.142  14.321  24.784  0.1243 -0.0629  0.1051
49368W        W92280   0.611  15.306  25.524  0.2097  0.2576 -0.0219
49369W        W92281  33.420  14.781  24.569  0.1009 -0.0428  0.0353
49370W        W92282  33.238  14.287  25.509 -0.0014 -0.0817 -0.1706
49371W        W92283  33.326  15.794  25.294 -0.0184 -0.0326  0.2286
49372W        W92284  33.122  14.278  27.318 -0.3352 -0.2910  0.0635
49373W        W92285  32.939  14.812  24.654 -0.2533 -0.0032  0.1956
49374W        W92286  34.043  14.668  27.199  0.1252  0.0622 -0.3418
49375W        W92287  34.402  13.685  24.028  0.0338  0.0473 -0.2820
49376W        W92288   1.422  13.228  24.642  0.1909  0.0892  0.5765
49377W        W92289  34.613  13.404  28.560 -0.2619 -0.1054  0.0324
49378W        W92290  32.851  13.521  27.213  0.3176  0.2305 -0.0318
49379W        W92291  33.890  13.215  22.681  0.3734  0.0250 -0.0615
49380W        W92292  33.753  12.099  24.339  0.1470  0.1058 -0.0062
49381W        W92293  33.890  11.864  25.400  0.0291 -0.3019  0.1591
49382W        W92294   0.131  15.058  24.926 -0.0882  0.0309 -0.1535
49383W        W92295  32.928  12.606  27.679 -0.1640 -0.1689 -0.0627
49384W        W92296  33.618  14.329  27.039 -0.0525 -0.1507 -0.0482
49385W        W92297  32.726  14.123  25.554 -0.0029  0.0638  0.1501
49386W        W92298  34.042  12.420  24.900 -0.0842 -0.2181 -0.0988
49387W        W92299  32.457  13.547  26.282  0.1897  0.4352 -0.1327
49388W        W92300  32.320  12.585  26.927 -0.0358 -0.2970 -0.3338
49389W        W92301  34.506  10.383  24.947 -0.0248  0.0725  0.1114
49390W        W92302  32.591  12.212  28.169  0.0140 -0.2464 -0.0306
49391W        W92303  34.526  12.992  27.089 -0.1451  0.0697  0.1043
49392W        W92304  34.507  12.908  24.235 -0.1398  0.0600  0.1443
49393W        W92305  34.179  13.351  24.430  0.2513  0.1116 -0.1792
49394W        W92306  33.503  15.011  26.478 -0.0124  0.0239 -0.0104
49395W        W92307  34.061  12.739  26.455  0.0945 -0.1901  0.3133
49396W        W92308  33.781  13.526  28.188  0.3049  0.2239  0.1026
49397W        W92309  33.859  14.552  23.078 -0.0881 -0.0753 -0.0689
49398W        W92310  32.105  13.630  26.832  0.0754  0.0815 -0.1261
49399W        W92311  33.112  14.241  24.233  0.1462 -0.0124 -0.0155
49400W        W92312  32.152  11.269  25.926 -0.0727  0.0611  0.0029
49401W        W92313  34.163  13.640  26.810  0.1609 -0.1652  0.2669
49402W        W92314  33.158  11.128  25.138 -0.2303  0.1082  0.0847
49403W        W92315  33.245  13.300  23.908  0.2419 -0.2546 -0.0520
49404W        W92316  31.900  12.349  26.861 -0.0522 -0.2166 -0.0456
49405W        W92317  33.050  11.591  25.429  0.1180  0.0590  0.0777
49406W        W92318  32.947  11.438  26.541  0.0611  0.2363 -0.3722
49407W        W92319  33.122  11.453  26.029  0.1610  0.0832  0.1046
49408W        W92320  34.287  12.583  23.851  0.0177 -0.0742  0.1631
49409W        W92321  34.640  12.413  24.150 -0.0613 -0.0563  0.2619
49410W        W92322  32.326  12.758  25.086 -0.3800 -0.1308  0.2880
49411W        W92323  33.599  12.177  26.550 -0.1658  0.0315  0.2698
49412W        W92324  32.358  11.397  24.039 -0.1269  0.1208 -0.2056
49413W        W92325  33.659  15.175  26.039 -0.1180 -0.3664 -0.1611
49414W        W92326   0.674  14.340  24.592 -0.0642  0.2863  0.0147
49415W        W92327  34.255  11.984  24.266 -0.0789  0.1522  0.0610
49416W        W92328  32.548  13.863  26.974  0.1012  0.1242 -0.0235
49417W        W92329  33.562  11.434  25.082  0.0906  0.0124  0.0212
49418W        W92330  33.412  15.300  24.602 -0.3213  0.0367 -0.2030
49419W        W92331  32.233  12.124  24.487  0.4020  0.2884  0.2249
49420W        W92332   2.252  13.835  25.799 -0.2509 -0.0562 -0.0695
49421W        W92333  33.125  10.955  27.817 -0.1657  0.0421  0.3154
49422W        W92334  33.522  12.394  23.886 -0.1750 -0.2437  0.1772
49423W        W92335  33.368  14.314  28.842  0.0498 -0.1701  0.2523
49424W        W92336  32.461  13.121  25.974 -0.3137 -0.1830 -0.0514
49425W        W92337  34.418  14.836  25.569  0.0895 -0.1451  0.1428
49426W        W92338  33.494  13.524  25.345 -0.0058 -0.1682  0.2421
49427W        W92339  33.036  12.920  25.745  0.3905 -0.2625 -0.1397
49428W        W92340  34.167  12.163  25.685 -0.0960 -0.0571 -0.1333
49429W        W92341  34.072  12.490  24.332  0.0634  0.3700 -0.1632
49430W        W92342  33.864  13.627  23.962  0.1885 -0.1576 -0.0064
49431W        W92343   0.835  10.118  27.015  0.2041  0.1287  0.0105
49432W        W92344  32.703  11.761  23.244 -0.1472 -0.1217 -0.2773
49433W        W92345   0.722  11.568  27.906  0.2477 -0.4703 -0.2941
49434W        W92346  33.208  12.768  27.041  0.0622  0.2332 -0.0054
49435W        W92347  32.144  14.770  26.972  0.1120 -0.1917  0.1505
49436W        W92348   0.856  10.457  27.589  0.0353 -0.1517 -0.0662
49437W        W92349   0.960  13.802  24.414 -0.0607  0.1751  0.1892
49438W        W92350   0.786  13.975  24.919  0.0800 -0.1057  0.0271
49439W        W92351  34.004  11.886  26.539  0.0131 -0.0203  0.2537
49440W        W92352  33.602  13.892  24.979 -0.4248 -0.1574 -0.0575
49441W        W92353   0.735  13.736  23.556  0.1581  0.0077  0.0734
49442W        W92354   0.363  15.476  25.191 -0.1890 -0.1049  0.0314
49443W        W92355  32.928  14.389  25.977 -0.1387  0.1658 -0.1108
49444W        W92356  33.474  13.606  22.813 -0.0280 -0.1271 -0.1210
49445W        W92357  31.264  12.182  23.436  0.2481  0.3702  0.1570
49446W        W92358  33.032  12.221  25.448 -0.0374 -0.3793  0.2014
49447W        W92359   0.076  12.734  26.051 -0.1220  0.1886  0.1333
49448W        W92360  32.875  14.411  26.515  0.2200 -0.0195 -0.2108
49449W        W92361   0.947  13.247  27.486 -0.2734  0.2639  0.2412
49450W        W92362  32.245  11.604  23.525 -0.1886  0.0322  0.0874
49451W        W92363  34.622  12.215  25.262 -0.0904 -0.1270  0.2628
49452W        W92364  34.010  13.832  25.343 -0.2326 -0.0322 -0.1751
49453W        W92365  34.438  12.149  24.732 -0.0490 -0.3899  0.0360
49454W        W92366  34.172  13.939  23.659 -0.1637  0.2443  0.0579
49455W        W92367  34.071  12.829  26.904  0.2158 -0.1923  0.0166
49456W        W92368  34.125  12.255  27.368  0.2020  0.1171  0.2650
49457W        W92369  34.440  11.184  24.766 -0.1892  0.1867 -0.2284
49458W        W92370  33.759  13.354  24.775 -0.0456  0.0695  0.1294
49459W        W92371   0.111  12.287  26.267 -0.3461  0.2251  0.1281
49460W        W92372  33.137  13.148  26.673  0.0608 -0.0877  0.1019
49461W        W92373  34.198  13.736  25.845 -0.1165 -0.0521  0.1305
49462W        W92374  31.388  13.288  27.182  0.0779  0.3917 -0.1364
49463W        W92375  33.740  12.994  25.315  0.0128  0.0073 -0.2396
49464W        W92376  33.446  11.959  25.322 -0.1681 -0.2160  0.2313
49465W        W92377  33.878  14.959  25.523 -0.0154  0.5032  0.0184
49466W        W92378  33.529  15.039  23.782 -0.0744  0.1559  0.0145
49467W        W92379  31.949  14.496  26.589  0.3631 -0.2012 -0.0751
49468W        W92380  32.619  12.634  25.632 -0.0694  0.2332 -0.1909
49469W        W92381  32.551  11.272  24.629 -0.0195 -0.0704  0.0883
49470W        W92382  32.830  11.300  27.014 -0.0827  0.1063  0.1330
49471W        W92383  33.384  12.664  27.487  0.0097  0.0341  0.0275
49472W        W92384  32.784  11.233  24.161 -0.2079  0.0397  0.0534
49473W        W92385  33.779  13.317  26.653  0.1972  0.0135 -0.0020
49474W        W92386   0.945  14.759  24.549 -0.1432 -0.0182 -0.2732
49475W        W92387  32.731  13.014  27.027 -0.0006 -0.2122 -0.1762
49476W        W92388   0.078  12.509  23.693  0.1411 -0.0563  0.1362
49477W        W92389  34.427  12.667  24.667  0.0631 -0.1598  0.0635
49478W        W92390  33.439  10.941  27.199  0.1733  0.2301 -0.0392
49479W        W92391  34.019  13.198  27.747  0.1261  0.2411  0.1600
49480W        W92392  32.458  11.121  26.441  0.0752 -0.1161 -0.1150
49481W        W92393  33.599  12.219  25.820  0.1230  0.1945 -0.1470
49482W        W92394  32.504  12.503  22.615  0.2262 -0.1399 -0.2912
49483W        W92395   1.572  13.596  25.056  0.1513 -0.1468 -0.0392
49484W        W92396  32.788  12.742  23.944 -0.0247  0.1583 -0.2247
49485W        W92397  32.506  14.426  27.815 -0.2305  0.3503  0.2726
49486W        W92398  33.419  12.978  24.770 -0.1819 -0.2089 -0.2670
49487W        W92399  33.846  12.805  23.921  0.3166 -0.1004  0.1682
49488W        W92400   0.373  13.362  27.738  0.0163  0.0407  0.1091
49489W        W92401   0.181  11.305  25.012 -0.2256 -0.0367 -0.1042
49490W        W92402  34.260  13.859  24.465 -0.1449 -0.0267 -0.0282
49491W        W92403  34.479  14.776  26.084  0.0908  0.0868  0.1211
49492W        W92404  33.210  12.600  26.475  0.0107 -0.0484  0.3065
49493W        W92405   0.090  14.632  25.176  0.1833 -0.0018  0.0787
49494W        W92406  33.362  13.323  25.810 -0.0157  0.1700  0.1929
49495W        W92407  32.835  12.876  26.196 -0.1137  0.2006  0.0117
49496W        W92408  33.873  14.162  26.105 -0.1216  0.0090 -0.0065
49497W        W92409  33.569  11.617  26.638 -0.1860 -0.0591 -0.3826
49498W        W92410   0.715  11.509  25.024 -0.1888  0.0208 -0.0047
49499W        W92411  32.617  13.978  28.234  0.3286  0.0248  0.0677
49500W        W92412  33.689  12.531  26.205  0.1327  0.0759 -0.3062
49501W        W92413   0.193  14.587  25.680 -0.1550 -0.3371  0.1189
49502W        W92414   0.030  11.455  24.384  0.2016  0.1007 -0.0378
49503W        W92415  34.387  14.090  25.084  0.0576  0.1581  0.1502
49504W        W92416   0.297  14.470  23.869  0.1243 -0.5299 -0.0306
49505W        W92417  32.681  14.824  25.093  0.3118  0.0403 -0.1152
49506W        W92418  33.405  12.612  25.585  0.0525  0.1171 -0.2578
49507W        W92419   0.479  11.833  24.639  0.0510  0.0762  0.0940
49508W        W92420  34.222  13.230  25.023 -0.1069 -0.0077 -0.0780
49509W        W92421  32.592  13.413  26.781 -0.1250 -0.2125 -0.2205
49510W        W92422  33.121  11.606  23.509  0.0919 -0.1417  0.2351
49511W        W92423  34.281  12.329  26.217  0.1478 -0.1636  0.0966
49512W        W92424   0.165  14.900  23.736 -0.2651 -0.0294  0.1710
49513W        W92425  34.062  13.677  24.877 -0.2368  0.1996 -0.1466
49514W        W92426  34.084  13.623  26.316 -0.4105 -0.4624  0.1768
49515W        W92427  34.422  14.342  25.521  0.0465 -0.0535  0.0671
49516W        W92428  34.239  11.574  23.984  0.0321 -0.2098  0.0326
49517W        W92429  33.952  11.911  26.037 -0.1741 -0.1079 -0.2901
49518W        W92430  33.193  13.408  24.912  0.0608 -0.1622 -0.1164
49519W        W92431  32.354  11.888  25.983 -0.3364  0.0373  0.5008
49520W        W92432   0.085  11.549  23.875  0.3116  0.3000 -0.1632
49521W        W92433  33.391  11.788  25.798 -0.4460  0.1928  0.1092
49522W        W92434  33.303  12.161  24.708  0.1152 -0.0592 -0.1059
49523W        W92435   0.268  12.617  26.758  0.0629  0.0521 -0.2119
49524W        W92436  33.293  11.242  24.131 -0.0451 -0.0919 -0.1752
49525W        W92437   1.371  13.601  24.239 -0.0655  0.3458  0.3023
49526W        W92438  33.059  12.266  26.920  0.1582  0.1662 -0.1499
49527W        W92439  32.087  10.151  25.065 -0.3814  0.1145  0.0548
49528W        W92440  34.223  11.657  24.605 -0.2058  0.0797  0.0371
49529W        W92441  33.093  13.851  25.147  0.0205 -0.1203  0.0397
49530W        W92442  33.930  15.365  24.613 -0.1072  0.2114 -0.1268
49531W        W92443   0.642  14.068  26.368  0.0980  0.2440  0.1182
49532W        W92444  33.586  14.578  27.509 -0.1702 -0.0547  0.3625
49533W        W92445  32.663  12.227  23.648 -0.0013 -0.2243  0.0584
49534W        W92446  33.311  13.323  27.143 -0.0601  0.0890  0.1038
49535W        W92447   0.635  15.027  25.027  0.0955 -0.0878 -0.1027
49536W        W92448  34.374  14.370  24.439 -0.4925 -0.0437 -0.0869
49537W        W92449  33.194  12.426  26.027  0.1375  0.4752 -0.0475
49538W        W92450  34.040  10.854  26.539 -0.1316  0.3085 -0.0648
49539W        W92451  33.731  12.456  27.086 -0.0156  0.0019 -0.2050
49540W        W92452  32.345  12.943  23.772 -0.1484 -0.1027 -0.3057
49541W        W92453  34.207  13.224  23.893  0.0574  0.0319 -0.1856
49542W        W92454  33.326  13.631  26.661 -0.1179  0.0102 -0.1384
49543W        W92455  33.567  10.058  27.080 -0.0480 -0.2708  0.2572
49544W        W92456  33.282  10.942  26.747  0.2012  0.3618 -0.2571
49545W        W92457  33.643  13.688  27.018  0.2485 -0.3353  0.0452
49546W        W92458  34.429  10.575  24.459 -0.2123 -0.1414  0.1386
49547W        W92459  33.155  10.995  25.838  0.0434 -0.2817  0.1267
49548W        W92460  32.821  12.177  24.600 -0.1852  0.2436  0.0341
49549W        W92461   0.072  11.981  24.306  0.3051 -0.0312  0.0158
49550W        W92462  33.166  13.298  24.401 -0.1834  0.0003 -0.0940
49551W        W92463  34.559  12.120  27.600  0.0542  0.0607  0.2246
49552W        W92464   0.729  12.371  27.070 -0.0800  0.0198  0.0413
49553W        W92465  33.093  11.707  24.246  0.2031  0.2622 -0.1284
49554W        W92466  34.634  13.682  26.051  0.0570 -0.2264 -0.0698
49555W        W92467  34.599  13.505  27.024  0.1187 -0.2139  0.2148
49556W        W92468  32.552  14.836  26.565  0.1246  0.1107 -0.2630
49557W        W92469  32.567  10.962  25.936 -0.0608 -0.1552  0.0543
49558W        W92470   0.004  13.015  27.595 -0.1436 -0.1520  0.0012
49559W        W92471  33.712  11.147  26.774 -0.2759 -0.1662  0.3111
49560W        W92472  33.463  11.318  27.690 -0.0120  0.0136 -0.2200
49561W        W92473  32.763  12.280  26.273  0.0282 -0.0764 -0.1124
49562W        W92474  32.641  11.182  25.514 -0.2829 -0.1993  0.1115
49563W        W92475   0.176  12.834  24.569  0.2102 -0.3474  0.1391
49564W        W92476  34.082  13.284  27.214 -0.1795  0.1982  0.3215
49565W        W92477  34.412  11.238  25.489 -0.0342  0.1010  0.1288
49566W        W92478   0.415  14.547  27.794 -0.0631 -0.0021 -0.1124
49567W        W92479  33.127  10.659  24.996  0.0985 -0.1938  0.2814
49568W        W92480  33.687  13.750  24.442  0.1291  0.2320  0.0103
49569W        W92481  34.010  14.181  24.767 -0.0553 -0.0047 -0.2780
49570W        W92482  32.604  11.460  26.049  0.1754  0.0423  0.0049
49571W        W92483  34.087  14.112  27.011 -0.0408  0.2077  0.1254
49572W        W92484  33.973  12.660  29.760 -0.1465  0.0969 -0.1371
49573W        W92485  32.983   9.812  27.428  0.1626 -0.1655 -0.1044
49574W        W92486  32.597   9.991  28.984  0.2527  0.0691 -0.1277
49575W        W92487  33.659  10.557  31.308  0.2377  0.4099 -0.2193
49576W        W92488  34.381  12.449  29.411  0.0233 -0.1046  0.0972
49577W        W92489  34.533  14.478  29.513  0.0531  0.3536  0.1651
49578W        W92490   0.099  10.849  27.915 -0.0711 -0.0895 -0.1830
49579W        W92491  33.771  12.296  29.537  0.2666  0.0798 -0.0932
49580W        W92492  33.094  12.024  28.355 -0.0645 -0.2237 -0.2247
49581W        W92493  33.422  11.598  29.650 -0.1503  0.1993  0.0901
49582W        W92494  34.618  12.128  28.927 -0.1124 -0.1843 -0.3469
49583W        W92495  34.671   9.992  28.026 -0.0546 -0.2350 -0.1110
49584W        W92496  34.644  13.158  28.034  0.2791 -0.1334 -0.0326
49585W        W92497  33.489  11.964  27.032  0.3694 -0.0881  0.0672
49586W        W92498  32.732  12.220  30.024  0.3695  0.1354 -0.0088
49587W        W92499  34.263  11.127  29.953  0.1626  0.1145  0.0489
49588W        W92500  34.527  15.154  30.186 -0.1776 -0.2572 -0.0556
49589W        W92501  34.046  14.260  29.517  0.3133 -0.0637 -0.1466
49590W        W92502  32.679  14.213  28.723 -0.0715 -0.1957  0.1926
49591W        W92503  33.287  13.540  30.168 -0.0441 -0.0462 -0.1876
49592W        W92504  34.461  13.458  27.518  0.1568  0.0040 -0.3960
49593W        W92505  34.305  13.025  30.889 -0.1243 -0.3402 -0.4326
49594W        W92506  33.461  14.296  27.924  0.0249  0.0007 -0.1024
49595W        W92507  33.056  14.066  31.099 -0.4819 -0.0876  0.0704
49596W        W92508   0.644  14.848  29.132 -0.0599  0.1369  0.0970
49597W        W92509   0.697  13.173  30.197  0.1367 -0.1235  0.0907
49598W        W92510   0.185  13.285  29.994 -0.0788 -0.0672  0.0881
49599W        W92511  33.721  13.369  29.994 -0.1109  0.0855 -0.0229
49600W        W92512  33.433  13.169  27.639  0.0140  0.3357  0.2049
49601W        W92513  34.204  11.718  27.596  0.1515  0.1479  0.1281
49602W        W92514  34.585   9.677  28.470 -0.0722  0.1026 -0.1056
49603W        W92515  33.659  14.428  29.808  0.1684  0.2065  0.3584
49604W        W92516  34.209  10.567  28.638  0.2248 -0.4082  0.1216
49605W        W92517  34.497  13.633  29.923 -0.2931  0.1761  0.0483
49606W        W92518  33.250  14.138  30.284  0.1322 -0.2172  0.0558
49607W        W92519  34.250  11.935  29.547 -0.1314  0.1780 -0.0526
49608W        W92520  32.993  13.089   0.853  0.0664 -0.0771 -0.0705
49609W        W92521  33.842  11.040  31.274  0.2122 -0.1701 -0.2012
49610W        W92522  33.814  11.469  27.275  0.0823  0.0343 -0.2368
49611W        W92523  32.007  13.262  29.825  0.1585 -0.4481 -0.1203
49612W        W92524  34.267  13.465  29.229  0.1901 -0.0323 -0.1679
49613W        W92525  34.157  13.195  28.232 -0.1239  0.0606  0.0013
49614W        W92526   0.083  12.591  27.817  0.1685 -0.1345  0.1797
49615W        W92527  32.530  14.131  29.774 -0.0931 -0.0578  0.3138
49616W        W92528  33.890   9.987  30.764 -0.0333  0.1147  0.0102
49617W        W92529  34.503  13.181  31.724 -0.0305  0.0421 -0.0257
49618W        W92530  31.849  15.797  27.928  0.1111  0.4074 -0.2959
49619W        W92531  32.844  12.696  29.882  0.1865  0.2732 -0.1071
49620W        W92532  32.351  13.183  28.823  0.1468 -0.1566 -0.1766
49621W        W92533  33.623  11.343  30.628  0.1598  0.0257  0.3197
49622W        W92534   0.535  13.034  29.732  0.0857  0.2556  0.0555
49623W        W92535  32.783  11.604  29.414  0.4514  0.0940  0.0916
49624W        W92536   0.027  12.636  28.989 -0.0495 -0.1112  0.0274
49625W        W92537  32.621  10.992  29.466 -0.0427 -0.0201  0.0091
49626W        W92538  33.883  12.060  28.772 -0.1658 -0.2439  0.2168
49627W        W92539  33.791  10.529  28.998  0.0170  0.1835 -0.1838
49628W        W92540  33.125  12.191  30.491 -0.0176 -0.0742  0.0296
49629W        W92541  32.835  11.818  26.956 -0.2515 -0.2504 -0.1706
49630W        W92542  34.062  11.435  28.899  0.0278  0.1345 -0.2063
49631W        W92543  32.771  12.411  28.624  0.1098  0.0339 -0.3335
49632W        W92544  32.624  12.861  29.129 -0.0662  0.0832 -0.2253
49633W        W92545  33.103   9.614  27.886 -0.2075  0.0288 -0.0855
49634W        W92546  32.801  14.424  29.403 -0.3136 -0.0254 -0.0268
49635W        W92547   0.446  12.734  30.810 -0.0965 -0.0063  0.2961
49636W        W92548  34.485  11.884  27.161 -0.1502 -0.2532  0.0275
49637W        W92549  33.359  12.008  29.208 -0.0630  0.2386  0.1774
49638W        W92550  32.913  10.156  26.306 -0.0041  0.2078  0.0662
49639W        W92551  32.919  13.086  27.456  0.1947 -0.0979 -0.0798
49640W        W92552  33.866  12.743  28.727 -0.1849  0.1666  0.0034
49641W        W92553   0.596  12.497  28.131 -0.2685 -0.1072 -0.0972
49642W        W92554  34.110  12.642  30.615  0.3490  0.1289  0.1567
49643W        W92555  34.353  11.367  27.240 -0.0848 -0.0311  0.1282
49644W        W92556  33.946  14.471  30.426  0.0752  0.1456  0.2339
49645W        W92557   0.636  13.266  30.885 -0.0933  0.0112 -0.1043
49646W        W92558  33.247  13.191  28.430  0.3203  0.1585  0.1793
49647W        W92559  33.993  13.431  31.965 -0.1614  0.0816 -0.3594
49648W        W92560  33.696  13.417  29.193 -0.3518 -0.0734  0.0347
49649W        W92561  33.756   9.223  29.121 -0.0898  0.0828  0.0746
49650W        W92562   0.319  12.005  27.671 -0.0638 -0.3525  0.0185
49651W        W92563   0.508  13.497  28.763  0.1028  0.0237  0.2079
49652W        W92564   0.245  11.711  31.309  0.0200  0.0169 -0.1319
49653W        W92565   0.340  11.247  27.736 -0.0620 -0.2120  0.2344
49654W        W92566   0.414  10.827  29.321  0.0146 -0.0261  0.1765
49655W        W92567  33.851  12.802  30.245 -0.5068 -0.0174  0.0336
49656W        W92568  33.684  14.052  30.558  0.5327 -0.2706 -0.1182
49657W        W92569  34.501  11.522  31.396 -0.0866 -0.3018  0.1214
49658W        W92570  34.052  14.420  27.655  0.0298  0.0146  0.0134
49659W        W92571  32.935  14.126  27.846 -0.0349  0.0378 -0.0948
49660W        W92572  33.092  10.378  28.471  0.0654 -0.0719 -0.1214
49661W        W92573  34.644  13.750  30.793  0.0878  0.1341  0.0499
49662W        W92574  33.716  14.098  27.492  0.1615  0.4302  0.2457
49663W        W92575  34.492  14.134  27.904  0.0168 -0.0046  0.3401
49664W        W92576  33.914  14.766  28.483 -0.4079 -0.3264  0.0376
49665W        W92577  34.443  11.753  26.218  0.1137 -0.1013 -0.3756
49666W        W92578  31.926  11.820  29.328  0.2284  0.1312 -0.0067
49667W        W92579  33.038  12.658  29.285 -0.0472 -0.0184 -0.0143
49668W        W92580   0.016  11.855  29.446 -0.0827 -0.1020 -0.3169
49669W        W92581  33.358  13.295  30.892  0.1616 -0.0941  0.1029
49670W        W92582  33.250  12.709  30.396 -0.0992 -0.0019  0.1544
49671W        W92583  31.887  11.693  25.868  0.3287 -0.0893  0.0815
49672W        W92584  33.090  11.909  29.814 -0.0535 -0.1845 -0.1972
49673W        W92585  33.860  14.283  28.764 -0.1916  0.1986  0.1394
49674W        W92586  34.093  12.538  28.290 -0.4052 -0.1240 -0.1557
49675W        W92587  33.400  13.817  27.938 -0.5426 -0.1041  0.1378
49676W        W92588  33.616   9.857  30.342  0.1198 -0.2801 -0.1740
49677W        W92589   0.147  12.799  29.473  0.0558  0.1444  0.2516
49678W        W92590  33.650  13.008  27.190 -0.0409  0.0987 -0.0396
49679W        W92591   0.383  11.624  30.541  0.2819 -0.0577 -0.0788
49680W        W92592  34.197  11.740  30.753  0.2123 -0.2263 -0.0519
49681W        W92593  33.569  13.779  30.977 -0.2245  0.0371  0.0960
49682W        W92594  32.821  13.000  28.677 -0.0908  0.1653 -0.1476
49683W        W92595  33.568  12.009  30.981 -0.0224  0.2781  0.0028
49684W        W92596   0.251  12.665  29.929  0.1615 -0.1218  0.1039
49685W        W92597  34.637  11.436  30.880  0.3507 -0.2818  0.0981
49686W        W92598  33.100  13.246  27.964  0.2627  0.1054  0.1190
49687W        W92599  33.914  13.223  29.581 -0.2989  0.0737 -0.1109
49688W        W92600  34.511  12.872  30.302 -0.1330 -0.0311  0.3953
49689W        W92601  34.332  11.829  28.643  0.3548  0.0060  0.1590
49690W        W92602   0.692  10.875  30.998  0.0757 -0.0426  0.1101
49691W        W92603  34.258  12.434  28.913 -0.0062 -0.3142  0.3107
49692W        W92604  33.047  11.404   0.079  0.2804  0.1119 -0.0913
49693W        W92605  33.325  10.415  26.923 -0.1533  0.3548 -0.3472
49694W        W92606  33.204  13.158  28.972  0.1372 -0.0091 -0.2198
49695W        W92607   0.268  13.724  27.305 -0.0507 -0.0585 -0.0681
49696W        W92608  32.270  12.661  28.028  0.2105  0.0605  0.2710
49697W        W92609   0.205  12.803  28.319  0.0269  0.1043 -0.0507
49698W        W92610   1.015  12.280  28.527  0.3122  0.0387 -0.1476
49699W        W92611  34.095  11.315  30.939 -0.0789 -0.1121 -0.0038
49700W        W92612  33.782  11.821  31.688 -0.1410 -0.2297  0.1646
49701W        W92613  33.755  10.733   1.140  0.1097  0.0913  0.0966
49702W        W92614  33.532  11.374  30.066 -0.2698 -0.2070 -0.0443
49703W        W92615  34.689  10.530  27.159 -0.0968  0.1481  0.2985
49704W        W92616  34.259  13.983  27.473  0.2461  0.0623 -0.0212
49705W        W92617   0.120  11.800  28.543  0.1270 -0.0484  0.0163
49706W        W92618   0.048  13.907  31.529 -0.1515 -0.1658 -0.0650
49707W        W92619  31.663  10.373  26.258 -0.2230  0.0074  0.1662
49708W        W92620   1.061  13.375  28.001  0.2030  0.1690  0.1341
49709W        W92621   0.240  13.047  30.440  0.1662 -0.0141 -0.0200
49710W        W92622   0.915  11.167  28.303 -0.1303  0.1367 -0.0570
49711W        W92623  32.775  15.054  27.892 -0.0626 -0.1190 -0.3134
49712W        W92624  33.352  14.257  29.402 -0.2906 -0.0259 -0.0814
49713W        W92625  33.721  13.566  30.508 -0.1131 -0.0202  0.0543
49714W        W92626  34.057  13.734  29.644 -0.2073  0.1955 -0.1070
49715W        W92627   0.076  11.776  29.977  0.2287  0.0526  0.1773
49716W        W92628  34.065  12.799  29.232 -0.5202  0.2725 -0.2596
49717W        W92629  33.225  14.718  29.192 -0.0868 -0.1677 -0.5599
49718W        W92630  34.487  10.293  31.973 -0.1808 -0.1305  0.0371
49719W        W92631  33.790  11.644  28.537 -0.1460  0.0418  0.3159
49720W        W92632  32.141  13.454  31.719 -0.0284  0.0444 -0.1569
49721W        W92633  32.928  12.974  31.162 -0.0279  0.1614  0.1563
49722W        W92634  33.786  15.345  27.785 -0.1271  0.0823  0.1426
49723W        W92635  34.630  11.010  27.455  0.0543  0.0148 -0.1248
49724W        W92636  34.695  13.767  28.892  0.0274  0.0308  0.0750
49725W        W92637  33.604  13.949  28.514 -0.0529  0.0788  0.0025
49726W        W92638   0.057  14.234  28.856 -0.0557  0.0399  0.0131
49727W        W92639   0.367  11.813  29.102  0.0812 -0.0970 -0.0333
49728W        W92640  33.051  11.271  27.461 -0.1463 -0.1440 -0.1680
49729W        W92641  32.920  13.122  29.633  0.0344 -0.0144  0.0968
49730W        W92642  33.111  13.499  31.267  0.1276 -0.1538 -0.1386
49731W        W92643  34.192  11.382  28.399 -0.0682  0.0520  0.0473
49732W        W92644   0.132  11.274  29.892 -0.3558 -0.0876 -0.0811
49733W        W92645  34.536  12.014  26.623  0.1791 -0.1955  0.2114
49734W        W92646  34.494  14.754  28.133 -0.3445  0.1196 -0.3186
49735W        W92647  33.924  14.963  29.892 -0.1086  0.0193 -0.2464
49736W        W92648  32.584  14.616  30.311 -0.1160 -0.0612  0.0004
49737W        W92649  32.538   9.849  27.710 -0.1098 -0.1268  0.0420
49738W        W92650  34.643  12.092  30.538  0.0701  0.2855 -0.2388
49739W        W92651  33.876  12.638  27.814  0.2164  0.1963  0.2260
49740W        W92652  33.346  10.992  30.994 -0.0075  0.3931 -0.0624
49741W        W92653   0.800  12.358  26.233 -0.1973  0.0275 -0.0631
49742W        W92654  33.692  11.158  28.168 -0.0150 -0.2961 -0.0096
49743W        W92655  34.140  13.106  28.897 -0.0129 -0.1578  0.0378
49744W        W92656  34.147  12.411  30.140 -0.0045  0.3351  0.0980
49745W        W92657  32.835  10.557  27.948  0.0471 -0.0514  0.0083
49746W        W92658  33.763  13.567  27.553  0.2254 -0.0457  0.1031
49747W        W92659  32.677  11.672  28.361  0.1342  0.1613 -0.4306
49748W        W92660  34.423  10.896  28.249  0.0951 -0.4661 -0.0096
49749W        W92661  34.454  11.286  29.440  0.2223  0.0386  0.3165
49750W        W92662  34.282  14.306  29.076  0.0913  0.1660  0.1174
49751W        W92663   0.305  13.659  28.131  0.0392 -0.2770 -0.2439
49752W        W92664   0.696  12.683  30.365 -0.3537  0.0463 -0.0312
49753W        W92665  33.926  13.429  31.000  0.2898 -0.1533  0.2569
49754W        W92666  32.865  12.690  28.197 -0.1704  0.3561 -0.0343
49755W        W92667  33.767  12.575  31.111 -0.0592 -0.1649  0.0447
49756W        W92668   0.498  14.294  29.148 -0.0718  0.0682 -0.2879
49757W        W92669   0.029  13.542  29.502 -0.1966 -0.2777 -0.3651
49758W        W92670   1.279  11.886  28.728  0.3605  0.1543 -0.1273
49759W        W92671  34.687  10.589  28.680  0.0052  0.0970 -0.2511
49760W        W92672  33.333  12.369  29.753 -0.0842 -0.0573 -0.0885
49761W        W92673  33.735  12.953  28.244  0.0969  0.0370 -0.2635
49762W        W92674  33.365  13.401  29.662  0.3732 -0.1471  0.0965
49763W        W92675  33.075  13.078  30.108 -0.4559 -0.1521 -0.5466
49764W        W92676   0.000  10.005  31.096 -0.0180  0.1985 -0.0673
49765W        W92677  33.420  10.123  31.057 -0.1484 -0.0702 -0.0726
49766W        W92678  33.731  13.228  28.673 -0.1700  0.4027 -0.0624
49767W        W92679  32.614  10.603  26.262 -0.1418 -0.3128  0.0244
49768W        W92680  32.771  11.679  30.425  0.3764  0.1783  0.0850
49769W        W92681  32.495  12.004  28.684 -0.0143 -0.2624 -0.1000
49770W        W92682  33.953  10.910  27.289 -0.2630  0.3521  0.1492
49771W        W92683  33.735  14.621  26.220 -0.1826  0.1119  0.3221
49772W        W92684   0.806  12.779  31.800  0.1202  0.1330  0.2481
49773W        W92685   0.429  11.329  30.996 -0.1212 -0.2113  0.0255
49774W        W92686  32.716  10.868  26.796 -0.0510  0.0208  0.1553
49775W        W92687  34.587  12.004  31.050  0.4061  0.0384  0.0439
49776W        W92688  34.246  14.085  30.204  0.2638  0.0528  0.1304
49777W        W92689  33.263  13.915  29.790 -0.2695  0.0697  0.1131
49778W        W92690  33.878  10.877  30.196 -0.1745  0.3450  0.1647
49779W        W92691  34.150  13.805  30.704 -0.1499  0.4385  0.1265
49780W        W92692  32.151  10.813  30.448 -0.2482 -0.0009  0.5054
49781W        W92693  34.040  13.181  30.500 -0.2374  0.0401  0.4330
49782W        W92694  33.199  11.462  28.298  0.3351  0.2934  0.0839
49783W        W92695  32.518  11.779  29.883 -0.0764 -0.2206 -0.0374
49784W        W92696  34.238  11.463  26.724  0.2084 -0.2250  0.0559
49785W        W92697  33.534  12.730  29.472 -0.2222  0.1099 -0.2284
49786W        W92698  33.333  13.567  28.698  0.1137  0.0537  0.0889
49787W        W92699   0.731  13.494  31.370  0.0511  0.3081 -0.2500
49788W        W92700  33.468  10.469  30.659  0.0004  0.0057  0.1541
49789W        W92701  32.793  13.393  29.233  0.0149 -0.2083  0.1516
49790W        W92702  34.564  12.314  28.452  0.2624 -0.1940  0.0572
49791W        W92703  33.924  11.696  28.078 -0.0078 -0.1769 -0.0271
49792W        W92704  32.698  14.503  31.631  0.0408  0.1317  0.2031
49793W        W92705  34.056  11.738  31.291 -0.2343 -0.1718  0.1481
49794W        W92706  32.767  12.885  31.769 -0.1379 -0.1436  0.0229
49795W        W92707  33.780  13.972  31.843  0.3305  0.0946 -0.1138
49796W        W92708  33.864  13.489   0.468  0.2758 -0.1606 -0.0305
49797W        W92709  33.807  11.817  30.525 -0.1118  0.0589 -0.1083
49798W        W92710   0.830  11.632  30.850  0.0513 -0.3389 -0.1273
49799W        W92711  33.610  11.979  29.935  0.1170 -0.0340 -0.3621
49800W        W92712  34.397  12.928   0.644 -0.0801 -0.2749  0.0015
49801W        W92713  33.114  12.619  31.510  0.2409 -0.2753 -0.3185
49802W        W92714  33.072  11.919   0.704  0.1060  0.2028 -0.6767
49803W        W92715  34.608  11.343  31.867 -0.0497  0.2091  0.1326
49804W        W92716  33.333  10.216  31.558 -0.0187 -0.0576  0.1193
49805W        W92717  34.319  13.721  31.740  0.0143 -0.2102 -0.1110
49806W        W92718   0.995  12.317  31.692 -0.0789 -0.2508 -0.1091
49807W        W92719  32.113  13.481   0.567 -0.4656  0.1701  0.0992
49808W        W92720  33.018  11.459  30.028  0.1157  0.1813  0.4527
49809W        W92721   0.183  12.353  31.262 -0.1542 -0.1241  0.0439
49810W        W92722  33.749  12.088   0.105  0.1920  0.0113 -0.0999
49811W        W92723  34.120  10.750  31.564  0.0033 -0.0021 -0.1376
49812W        W92724  32.984  10.801  31.439 -0.2083 -0.1446 -0.0257
49813W        W92725  33.581  11.420   0.081 -0.0327 -0.1488  0.0640
49814W        W92726  34.040  12.945  31.867 -0.0316 -0.1508 -0.2807
49815W        W92727  34.180  11.132   0.054 -0.2290 -0.1281 -0.0529
49816W        W92728  34.098  11.008  29.184  0.0855  0.1163  0.2787
49817W        W92729  34.515  13.519  31.301 -0.1237 -0.4208  0.1577
49818W        W92730  33.320  10.699  31.788 -0.1902  0.0685  0.1550
49819W        W92731  34.457  12.657  31.667 -0.1585  0.0046 -0.0835
49820W        W92732   0.030  10.609  31.616  0.2446 -0.0415  0.1770
49821W        W92733  33.589  13.116  31.314  0.0311  0.0695 -0.1463
49822W        W92734  34.615  10.819   0.066 -0.0236  0.0114 -0.3903
49823W        W92735   1.176  11.778  31.454  0.0357  0.0909 -0.4595
49824W        W92736   0.123  12.685   0.629 -0.0792 -0.2559 -0.0483
49825W        W92737  33.518  14.286  31.001 -0.1472 -0.1988  0.0885
49826W        W92738  34.016  12.425  31.794 -0.1331  0.1239 -0.2602
49827W        W92739   1.159  12.951  30.406  0.0081  0.0231 -0.1722
49828W        W92740  33.378  11.563  31.608 -0.0790 -0.3052 -0.0076
49829W        W92741  34.327  12.411  31.227 -0.0788 -0.0128 -0.0250
49830W        W92742  33.618  12.751  31.617  0.1031 -0.1452 -0.3717
49831W        W92743  32.550  11.032  31.334 -0.0510  0.0067 -0.4026
49832W        W92744  32.975  17.122  19.241 -0.0112 -0.2265 -0.0694
49833W        W92745  32.866  15.240  17.409 -0.1378 -0.0560 -0.1808
49834W        W92746  32.842  15.715  17.254  0.0354 -0.2585 -0.1168
49835W        W92747  33.040  13.669  19.343 -0.0495 -0.2212  0.3518
49836W        W92748  33.254  15.938  18.600  0.2341  0.1408  0.0497
49837W        W92749   0.226  18.046  19.404  0.2310  0.2454 -0.1696
49838W        W92750  34.677  14.348  17.511 -0.3087 -0.1399  0.0219
49839W        W92751  33.681  13.261  17.769 -0.0471 -0.5273  0.2296
49840W        W92752  33.164  17.144  16.758 -0.0900 -0.0588 -0.0151
49841W        W92753  32.762  15.178  18.916 -0.1661 -0.0166  0.1323
49842W        W92754  33.373  14.939  18.002 -0.0691  0.0063  0.2825
49843W        W92755  31.354  13.985  18.638  0.2214  0.1437 -0.3566
49844W        W92756  33.047  17.731  16.925  0.4241 -0.2046 -0.3336
49845W        W92757  33.025  15.562  16.330  0.0886  0.1878  0.1563
49846W        W92758  33.223  16.297  18.220 -0.1814 -0.2195 -0.0932
49847W        W92759  33.121  16.849  18.220 -0.1130  0.0032  0.1629
49848W        W92760   1.032  18.271  17.548  0.0086 -0.1901 -0.1616
49849W        W92761   1.124  17.096  18.310  0.4380  0.0956 -0.4048
49850W        W92762  33.195  16.897  17.269 -0.1638  0.2184 -0.1171
49851W        W92763  33.195  18.251  16.934 -0.1379 -0.0522  0.3684
49852W        W92764  34.695  17.439  16.216 -0.3683  0.1658  0.1125
49853W        W92765  33.496  17.076  19.153 -0.1374  0.1121  0.0324
49854W        W92766   0.024  17.188  17.527 -0.4939  0.2893  0.4619
49855W        W92767  33.403  17.214  18.121 -0.0285 -0.1261 -0.0744
49856W        W92768   0.977  17.618  16.197  0.1085  0.0242  0.2040
49857W        W92769  34.132  15.440  18.237  0.0719  0.2555 -0.0865
49858W        W92770  33.993  16.950  19.488 -0.0684  0.2991 -0.0505
49859W        W92771  32.560  17.832  17.121 -0.0560  0.2555  0.1112
49860W        W92772  34.633  17.512  17.072 -0.0361 -0.2633 -0.1030
49861W        W92773  33.737  13.635  16.862  0.0961 -0.0796 -0.0627
49862W        W92774   0.372  12.635  17.851 -0.0860  0.1534 -0.2352
49863W        W92775  32.853  19.150  17.734 -0.1792 -0.3107 -0.2375
49864W        W92776  33.965  14.391  18.614  0.3187  0.4350  0.2190
49865W        W92777  32.871  17.630  19.447  0.1749 -0.0152 -0.1272
49866W        W92778  32.447  15.823  17.560  0.2473  0.3815 -0.3454
49867W        W92779  32.283  15.251  18.107 -0.0489  0.2524 -0.0531
49868W        W92780  32.411  17.432  19.657  0.0846  0.0912 -0.0367
49869W        W92781  33.322  15.010  20.405  0.2220  0.0832 -0.0085
49870W        W92782  33.752  13.053  16.121  0.1220 -0.0716  0.0493
49871W        W92783  34.008  17.056  18.973  0.0080  0.0887 -0.0140
49872W        W92784  33.020  15.590  18.859 -0.1616  0.1019 -0.0801
49873W        W92785  33.598  16.117  15.938  0.4708 -0.0538 -0.3617
49874W        W92786  31.934  16.630  16.677  0.1613 -0.2209 -0.3347
49875W        W92787  32.207  17.162  17.817 -0.2419  0.0431 -0.2548
49876W        W92788  31.337  15.985  19.946  0.5084  0.0376 -0.0671
49877W        W92789   0.155  16.605  19.203 -0.3319  0.3722 -0.0429
49878W        W92790  34.193  17.359  16.126  0.3949 -0.0697  0.2215
49879W        W92791  31.964  16.303  17.865  0.1861 -0.1553  0.1008
49880W        W92792  33.725  16.026  17.238  0.1090  0.2381 -0.0634
49881W        W92793  33.742  14.325  19.525  0.1324 -0.1138  0.1314
49882W        W92794  33.560  17.390  17.609 -0.1460  0.3208 -0.1104
49883W        W92795   0.474  14.538  18.246  0.3039  0.2571 -0.2770
49884W        W92796  33.570  16.922  16.936 -0.0305 -0.2426  0.0862
49885W        W92797  31.370  14.799  19.257 -0.1638  0.1119 -0.0492
49886W        W92798  33.886  14.061  16.661 -0.0297 -0.1614 -0.0764
49887W        W92799  33.771  15.089  20.111 -0.1661 -0.0616 -0.0405
49888W        W92800  32.287  14.327  18.596  0.2124 -0.0517  0.0603
49889W        W92801  34.030  14.770  16.714 -0.1938  0.3594  0.1538
49890W        W92802  33.224  16.173  17.374  0.0884 -0.0220 -0.1167
49891W        W92803  31.009  16.949  18.117 -0.1958  0.0144 -0.1800
49892W        W92804  32.055  15.793  17.912  0.1320  0.2961  0.0157
49893W        W92805  32.489  14.830  16.862  0.0236  0.2034  0.1477
49894W        W92806  32.628  17.328  17.668  0.0968 -0.0836  0.0544
49895W        W92807  34.554  15.848  17.667  0.1359 -0.0971  0.2727
49896W        W92808  33.029  16.532  16.737  0.1612  0.4299 -0.1569
49897W        W92809  32.680  15.931  19.864  0.0707 -0.1288 -0.1121
49898W        W92810  32.472  14.224  16.477 -0.1482 -0.0726 -0.0042
49899W        W92811  33.743  17.786  16.896 -0.2224  0.0638 -0.1323
49900W        W92812  32.584  17.364  16.883 -0.0472  0.1212 -0.1294
49901W        W92813  34.343  17.210  18.155  0.0118 -0.0532 -0.0289
49902W        W92814  31.268  15.305  19.606 -0.0830  0.1508 -0.0858
49903W        W92815  32.727  14.731  17.282 -0.1389 -0.2457 -0.2694
49904W        W92816  31.633  15.719  19.717 -0.2499  0.0875  0.1600
49905W        W92817  34.159  17.387  20.153 -0.3343 -0.0379 -0.0392
49906W        W92818   0.056  17.548  18.242 -0.2002 -0.0265  0.2810
49907W        W92819  33.513  17.240  18.675 -0.0537 -0.4647  0.1619
49908W        W92820  32.724  16.231  17.408 -0.1227 -0.0291 -0.1190
49909W        W92821   0.185  14.796  17.921  0.4955  0.1723 -0.1317
49910W        W92822  33.481  15.975  16.403 -0.1197 -0.1603  0.5698
49911W        W92823  32.401  17.351  16.405  0.0915 -0.0724  0.1035
49912W        W92824  34.019  14.338  19.141 -0.0447 -0.1222 -0.1980
49913W        W92825  33.279  16.061  16.858 -0.3472  0.2720  0.0635
49914W        W92826   0.063  14.334  17.997  0.0058 -0.0879 -0.0028
49915W        W92827  32.332  16.564  19.507 -0.1843 -0.0163  0.1516
49916W        W92828  33.415  17.750  20.323  0.0139  0.2708 -0.0497
49917W        W92829  34.495  13.951  21.142 -0.0223 -0.0492  0.1440
49918W        W92830  32.404  17.909  17.626 -0.1710  0.1938 -0.1184
49919W        W92831  34.064  16.291  16.468 -0.0068 -0.4456 -0.2224
49920W        W92832  34.051  13.623  17.762  0.0391 -0.0735 -0.1077
49921W        W92833  34.246  17.387  17.471 -0.1319  0.2392 -0.2872
49922W        W92834  34.233  16.924  18.512 -0.2725  0.1063 -0.0172
49923W        W92835  33.985  17.322  17.013  0.1609 -0.0271 -0.1495
49924W        W92836  32.689  17.997  19.108  0.0642  0.1997  0.1068
49925W        W92837   0.295  13.954  16.698  0.2674 -0.0695  0.0021
49926W        W92838  33.778  15.059  17.027 -0.0846  0.3249  0.0800
49927W        W92839  31.876  14.798  19.171  0.1035 -0.1930  0.1226
49928W        W92840   0.078  14.895  17.456  0.0157 -0.0094 -0.1150
49929W        W92841  32.926  16.765  20.035  0.1459 -0.1187 -0.1162
49930W        W92842  34.220  15.208  19.295  0.1602 -0.1494 -0.2206
49931W        W92843  33.417  14.208  16.114  0.0704  0.1322 -0.1728
49932W        W92844  34.153  15.910  18.050 -0.1184  0.0141 -0.0327
49933W        W92845  33.647  16.721  18.747 -0.1770 -0.2249 -0.2697
49934W        W92846  33.495  15.409  17.993 -0.1008  0.5079  0.3233
49935W        W92847  34.269  17.906  17.479  0.1588  0.1118  0.3471
49936W        W92848  34.123  14.588  20.707 -0.2025  0.0053  0.0053
49937W        W92849  32.674  14.930  18.434 -0.0677 -0.0976 -0.1257
49938W        W92850  33.818  14.783  17.596 -0.0117  0.0949  0.1113
49939W        W92851  32.846  15.154  17.950 -0.2261  0.0990  0.3119
49940W        W92852  34.301  14.944  18.531 -0.0740 -0.1800  0.2731
49941W        W92853  33.841  16.614  19.171 -0.0019 -0.1467 -0.1511
49942W        W92854  33.953  16.448  17.030  0.0572 -0.1354  0.2301
49943W        W92855  32.213  15.779  18.362  0.0340  0.0498  0.1787
49944W        W92856  34.592  17.717  16.612  0.3072  0.1258 -0.0224
49945W        W92857  34.503  15.371  18.728 -0.0110  0.0342  0.0249
49946W        W92858  33.684  16.437  18.008 -0.2316 -0.2982 -0.0261
49947W        W92859   0.134  16.223  17.528  0.0944  0.1428  0.0335
49948W        W92860  32.715  16.746  19.039  0.0532  0.0356  0.1450
49949W        W92861  33.941  15.147  17.910  0.1397  0.0674 -0.1026
49950W        W92862  34.594  15.173  18.230 -0.0067 -0.2109  0.2335
49951W        W92863  33.156  15.020  19.896  0.1410 -0.0446 -0.3955
49952W        W92864  32.147  15.714  19.262 -0.2820  0.0157  0.1499
49953W        W92865   0.004  14.167  17.044  0.2049 -0.1477  0.0263
49954W        W92866   1.067  15.884  17.880  0.3347  0.1669 -0.1843
49955W        W92867  34.567  17.584  17.822  0.0541 -0.0862 -0.0562
49956W        W92868  33.117  16.996  18.777  0.2482  0.0656  0.0342
49957W        W92869  34.580  16.253  16.338  0.0142  0.0476  0.2823
49958W        W92870   0.567  18.126  17.492  0.0676 -0.1790  0.2781
49959W        W92871  33.293  13.602  19.853  0.3145  0.3408  0.1018
49960W        W92872  34.582  15.889  19.588 -0.2613 -0.0179  0.0231
49961W        W92873  33.166  14.494  18.333  0.2037 -0.1684  0.3090
49962W        W92874  32.167  15.128  18.593  0.1240 -0.0106  0.1476
49963W        W92875   0.006  14.749  16.084  0.3060 -0.1974  0.0094
49964W        W92876   1.523  18.319  17.346 -0.2914  0.0407  0.1489
49965W        W92877  31.303  17.181  17.793  0.1363 -0.2323  0.2092
49966W        W92878  33.735  18.710  20.044 -0.0258  0.0465 -0.3562
49967W        W92879  32.966  14.734  16.845 -0.1949  0.2112 -0.2963
49968W        W92880   0.202  16.702  16.698  0.1202  0.0181 -0.0158
49969W        W92881  33.686  17.719  18.486  0.0453 -0.0717 -0.0752
49970W        W92882  33.885  15.273  16.595  0.1236 -0.2438 -0.3595
49971W        W92883  33.591  17.850  17.846 -0.0808 -0.2041 -0.2028
49972W        W92884  33.603  18.451  18.742 -0.0678  0.2749 -0.0203
49973W        W92885  32.763  16.502  17.925  0.2036 -0.0618 -0.0440
49974W        W92886  32.867  18.639  17.625  0.1699  0.0672  0.1782
49975W        W92887   0.330  15.897  17.947 -0.4936  0.3758  0.0835
49976W        W92888   0.233  15.308  17.806  0.0204  0.2161 -0.1220
49977W        W92889  33.152  16.467  18.661 -0.0199  0.0676 -0.0653
49978W        W92890  31.692  14.233  20.107 -0.2544  0.0709  0.1544
49979W        W92891  33.097  14.804  18.837 -0.0068  0.1009 -0.0450
49980W        W92892  32.700  17.866  19.892 -0.0867 -0.0725 -0.1376
49981W        W92893  33.142  15.122  18.437  0.1598 -0.1270 -0.2573
49982W        W92894  32.739  17.804  16.539 -0.0180 -0.0574  0.1433
49983W        W92895  34.291  14.617  17.209 -0.0732 -0.0793 -0.0693
49984W        W92896  31.902  18.019  19.720  0.2057 -0.2669  0.1826
49985W        W92897  33.478  17.406  17.094 -0.1527 -0.0410 -0.0420
49986W        W92898  33.951  17.505  17.925  0.1224  0.0529  0.1287
49987W        W92899  33.817  15.534  17.109  0.0817 -0.3520 -0.3961
49988W        W92900  33.349  15.107  16.328 -0.1182 -0.0503 -0.0022
49989W        W92901  32.261  15.204  19.241 -0.0906  0.1382  0.2634
49990W        W92902  33.657  18.190  20.197  0.0662  0.0780  0.1614
49991W        W92903  33.123  15.592  17.726  0.2558 -0.0082  0.1559
49992W        W92904  34.670  16.677  17.714  0.1621 -0.2447 -0.0766
49993W        W92905  34.428  16.553  16.711  0.1155 -0.0813  0.0204
49994W        W92906  33.484  18.976  18.433  0.0978  0.0577 -0.1176
49995W        W92907  34.489  18.849  17.732  0.2897 -0.2802 -0.1544
49996W        W92908  34.230  16.958  17.753 -0.0918 -0.3401  0.3908
49997W        W92909  33.469  14.813  16.661  0.0591 -0.0882 -0.1573
49998W        W92910  32.330  16.186  18.581  0.0004 -0.2804  0.1265
49999W        W92911  33.498  14.164  18.502  0.5308 -0.1842 -0.0575
50000W        W92912  33.560  16.900  17.751 -0.0943  0.1851  0.1002
50001W        W92913  34.248  15.252  16.163  0.1765 -0.1800  0.0823
50002W        W92914  32.950  13.997  19.779 -0.2697 -0.0257 -0.2722
50003W        W92915  33.428  16.478  17.083 -0.0048  0.3295 -0.0073
50004W        W92916  33.662  16.280  18.499 -0.4278 -0.0353  0.1330
50005W        W92917  32.669  14.705  17.831 -0.0161 -0.0828  0.0208
50006W        W92918  33.637  18.172  17.198 -0.0879  0.4599  0.3210
50007W        W92919  32.630  15.590  17.990 -0.2699 -0.0890 -0.1221
50008W        W92920   0.378  13.473  18.138 -0.0601 -0.1459 -0.1869
50009W        W92921  32.663  15.517  18.506  0.1519 -0.1304  0.3295
50010W        W92922  33.204  18.013  19.355  0.1759  0.0759  0.0251
50011W        W92923   0.396  17.617  17.622 -0.0850  0.0128 -0.0063
50012W        W92924  34.104  16.469  18.343 -0.0481 -0.0253  0.1126
50013W        W92925  33.843  17.969  18.907 -0.0695 -0.0549  0.5076
50014W        W92926  32.981  16.024  16.464  0.2766 -0.0824 -0.0324
50015W        W92927   0.767  15.648  18.838 -0.1704 -0.0024  0.2740
50016W        W92928  34.515  16.980  17.040 -0.2711  0.2216  0.1864
50017W        W92929   0.616  17.752  18.440 -0.0766 -0.0777 -0.2225
50018W        W92930  34.536  13.769  16.792 -0.2401  0.0554 -0.0044
50019W        W92931  33.748  15.100  18.346  0.0099 -0.1054 -0.0942
50020W        W92932  32.767  16.023  18.373  0.2171 -0.1995 -0.0555
50021W        W92933  33.809  13.540  16.008  0.1577  0.0946 -0.1872
50022W        W92934  34.041  16.775  16.553 -0.0667  0.0515  0.0601
50023W        W92935  33.064  15.602  18.228 -0.2667 -0.0771 -0.2880
50024W        W92936  33.651  14.204  20.387  0.1000 -0.2853 -0.1683
50025W        W92937  32.933  13.679  20.759  0.3169  0.2017 -0.2529
50026W        W92938  33.886  17.016  17.381 -0.0706 -0.0846 -0.0335
50027W        W92939  31.790  15.321  17.745  0.0037 -0.0961  0.2160
50028W        W92940  33.021  14.079  18.913  0.0530  0.1260 -0.0133
50029W        W92941  32.762  14.455  18.646 -0.1493 -0.2489  0.1057
50030W        W92942  33.455  14.445  17.779 -0.1833 -0.1454 -0.1756
50031W        W92943  32.203  16.082  16.888 -0.3870 -0.0043 -0.0097
50032W        W92944  33.544  15.482  18.586  0.0304 -0.1348 -0.0223
50033W        W92945  34.470  14.869  19.738  0.1727 -0.1533 -0.0571
50034W        W92946  33.012  15.617  16.806  0.2627  0.1613 -0.0154
50035W        W92947   0.331  16.607  18.491 -0.0962  0.1246  0.2664
50036W        W92948  33.889  18.845  18.875  0.3581 -0.0773  0.1190
50037W        W92949  33.976  17.364  18.563  0.0617 -0.2054  0.3027
50038W        W92950  31.612  14.401  19.608  0.3277 -0.1471  0.0192
50039W        W92951  32.417  18.887  18.698  0.1590  0.2819 -0.2389
50040W        W92952  30.786  15.584  19.457 -0.0517 -0.2945 -0.0823
50041W        W92953  33.952  15.667  19.087  0.0465  0.2525 -0.0059
50042W        W92954  33.344  13.970  18.025  0.0051 -0.1481  0.1274
50043W        W92955  32.707  16.572  18.426 -0.0412 -0.5898 -0.0424
50044W        W92956  33.711  15.837  18.227  0.0536 -0.1469 -0.0792
50045W        W92957  34.256  17.760  19.332  0.1506  0.0636 -0.0052
50046W        W92958  34.492  14.920  16.482 -0.0248  0.2336  0.0971
50047W        W92959  34.303  18.481  18.778 -0.0543  0.0817  0.1785
50048W        W92960  34.368  14.047  17.870  0.0705  0.4438 -0.0885
50049W        W92961  33.475  15.593  16.704  0.0694  0.0764 -0.3379
50050W        W92962  33.804  15.970  16.759  0.0663 -0.2994 -0.3232
50051W        W92963  32.295  14.700  18.233 -0.0054 -0.1504 -0.0327
50052W        W92964  33.703  17.911  19.406 -0.1410  0.1049  0.1035
50053W        W92965  33.007  18.057  23.481  0.1706 -0.0617  0.2139
50054W        W92966  32.722  14.331  20.836 -0.2019 -0.2991 -0.0359
50055W        W92967  33.155  15.369  21.596  0.0562 -0.1212  0.0664
50056W        W92968   0.707  14.793  23.637  0.0757  0.3039 -0.3087
50057W        W92969   0.242  15.080  22.864  0.2210  0.1033  0.3952
50058W        W92970  34.453  17.279  21.870  0.3849  0.1454  0.1061
50059W        W92971   0.598  13.036  20.389  0.0096  0.2436  0.1298
50060W        W92972  31.828  15.023  22.207 -0.0990  0.2426  0.0314
50061W        W92973  33.613  17.344  20.007  0.3454 -0.1677  0.0053
50062W        W92974  33.566  16.212  21.802  0.0483  0.0462 -0.1248
50063W        W92975   0.118  15.972  20.101  0.0914 -0.2973  0.1748
50064W        W92976  33.498  15.491  22.938 -0.1622  0.2935  0.1704
50065W        W92977  34.535  18.265  20.230  0.1006 -0.0279  0.2275
50066W        W92978  31.637  14.566  21.041  0.1166  0.1198 -0.0265
50067W        W92979  32.302  15.800  22.051  0.1677  0.0082 -0.0377
50068W        W92980  34.609  17.317  23.336 -0.2318  0.2680 -0.2452
50069W        W92981   0.557  17.958  23.535 -0.1476 -0.1376 -0.0622
50070W        W92982   0.064  17.859  21.988  0.2149 -0.0151  0.1802
50071W        W92983  33.265  17.795  23.118 -0.1675 -0.1019  0.1217
50072W        W92984  33.507  18.129  22.121 -0.1289  0.1989  0.0180
50073W        W92985  33.360  17.493  22.680  0.0109 -0.1396  0.0565
50074W        W92986  34.574  17.268  23.851 -0.1597 -0.2288  0.1572
50075W        W92987  32.959  18.211  21.082  0.0381 -0.1793  0.2717
50076W        W92988  32.288  17.780  23.335 -0.0275 -0.2125  0.1939
50077W        W92989  33.810  17.492  19.080  0.2229  0.2454  0.1039
50078W        W92990  34.124  16.820  21.096 -0.2234 -0.0796  0.1579
50079W        W92991  34.485  16.403  23.741 -0.0125  0.0291  0.2619
50080W        W92992  33.730  17.781  21.777  0.1402  0.2744  0.2179
50081W        W92993  33.861  18.737  21.239 -0.0885  0.1317 -0.2009
50082W        W92994  34.124  15.734  19.537  0.0368  0.1836 -0.1925
50083W        W92995  33.983  15.178  21.701 -0.2561 -0.1347  0.0709
50084W        W92996  33.996  17.892  22.321 -0.1118  0.2724  0.1562
50085W        W92997  32.739  15.731  22.682  0.0783  0.1589 -0.0534
50086W        W92998  32.362  17.218  22.396 -0.2320  0.0219  0.0264
50087W        W92999  32.875  16.534  22.822 -0.0904  0.2318 -0.0566
50088W        W93000  32.769  15.843  22.154 -0.3585  0.1703 -0.0243
50089W        W93001  33.489  16.693  24.484  0.1590 -0.1179  0.0908
50090W        W93002  32.907  16.104  23.045 -0.4839  0.0895  0.2875
50091W        W93003   0.240  15.942  19.243  0.1743  0.0273  0.2389
50092W        W93004  32.303  18.071  22.503  0.0305 -0.1792 -0.1766
50093W        W93005  34.142  16.812  22.167  0.1815  0.2076 -0.1357
50094W        W93006  33.435  14.730  19.613 -0.0658  0.1975 -0.0871
50095W        W93007  34.211  16.529  20.630  0.0083  0.3516  0.0740
50096W        W93008  32.480  16.914  22.798  0.1902 -0.0035  0.0600
50097W        W93009  34.531  16.090  22.786  0.1204  0.2806 -0.4207
50098W        W93010   0.201  16.897  23.817 -0.1274  0.0976 -0.2996
50099W        W93011  33.887  17.181  21.991 -0.0789  0.3727 -0.2083
50100W        W93012  33.430  16.519  21.277 -0.0790 -0.0638 -0.1714
50101W        W93013  31.777  17.761  20.201  0.3482  0.0466 -0.0820
50102W        W93014  32.732  14.902  22.104  0.1328  0.0985  0.1760
50103W        W93015   1.144  17.520  22.351 -0.0372  0.0635  0.1498
50104W        W93016  32.693  15.397  23.114  0.0815 -0.1139  0.0136
50105W        W93017  32.459  15.749  20.729 -0.1400  0.1069  0.0964
50106W        W93018  31.842  15.591  22.002 -0.0430  0.0193 -0.1766
50107W        W93019  33.545  16.407  20.565 -0.3763  0.0115 -0.2279
50108W        W93020  34.609  14.737  22.701  0.1196 -0.1896  0.0543
50109W        W93021  33.134  15.331  22.107 -0.1833 -0.2434  0.2419
50110W        W93022  32.414  15.227  20.883 -0.1262  0.0534  0.0471
50111W        W93023  34.152  16.393  21.465 -0.1028 -0.0661 -0.0570
50112W        W93024  33.154  16.914  21.024  0.3470 -0.2306  0.0163
50113W        W93025   0.243  14.667  23.176  0.1497 -0.0504 -0.1198
50114W        W93026  32.940  14.588  19.967  0.3730 -0.1287 -0.0590
50115W        W93027  34.337  18.598  21.292 -0.0330 -0.2975  0.0545
50116W        W93028  34.233  16.843  21.649 -0.1105 -0.0571 -0.1487
50117W        W93029  34.485  15.489  22.126 -0.1689 -0.0444 -0.1296
50118W        W93030  33.822  17.262  22.530  0.0700 -0.0210 -0.0279
50119W        W93031  33.553  14.997  20.862 -0.1769 -0.0594  0.1108
50120W        W93032  33.094  18.126  20.230 -0.0125  0.0851  0.0671
50121W        W93033  33.609  15.890  20.418 -0.2683  0.0762  0.1777
50122W        W93034   0.064  17.263  22.241  0.5077  0.1347  0.2418
50123W        W93035  33.180  17.332  24.045 -0.0342 -0.0702  0.0804
50124W        W93036  34.261  16.190  20.993 -0.3156 -0.0454 -0.1691
50125W        W93037  32.069  18.076  23.731 -0.3310 -0.0335  0.0359
50126W        W93038  31.970  16.979  23.282  0.1947  0.0666  0.4063
50127W        W93039  34.502  17.141  19.862  0.0635  0.0575  0.2148
50128W        W93040  34.681  16.875  22.538  0.1394  0.2023 -0.0124
50129W        W93041  33.342  16.573  22.937  0.1511  0.0973  0.2306
50130W        W93042   0.777  15.941  23.445  0.2617  0.0078  0.2464
50131W        W93043  33.429  15.634  19.179 -0.0540 -0.0299 -0.0786
50132W        W93044  34.256  16.815  20.194 -0.2031 -0.0605 -0.1176
50133W        W93045  34.636  14.413  23.512  0.1942  0.1028  0.1888
50134W        W93046  32.815  16.184  18.868 -0.0366  0.4057  0.1750
50135W        W93047   0.143  16.523  22.835 -0.2164 -0.2833  0.1143
50136W        W93048  33.743  16.345  23.481  0.2462 -0.4034  0.0080
50137W        W93049  32.864  17.862  22.840 -0.3306  0.0931 -0.2560
50138W        W93050   0.932  16.156  23.845 -0.0772  0.1636  0.0559
50139W        W93051  32.837  18.331  20.612 -0.3665 -0.1409 -0.1342
50140W        W93052  34.276  15.589  21.590  0.3193 -0.1923  0.0685
50141W        W93053   0.725  13.863  21.882  0.3802  0.1429 -0.1220
50142W        W93054  34.602  17.337  22.786 -0.1331  0.1309 -0.1807
50143W        W93055  34.046  16.019  20.599 -0.2147 -0.0377 -0.1310
50144W        W93056  33.322  17.357  20.661 -0.1536  0.0390 -0.1772
50145W        W93057  31.661  16.282  23.134  0.0288 -0.0316  0.1863
50146W        W93058  34.166  14.295  20.272 -0.1087 -0.2349  0.1412
50147W        W93059  31.237  16.251  21.815  0.1533 -0.1770  0.0756
50148W        W93060  34.509  15.956  21.821 -0.0047 -0.1928 -0.1578
50149W        W93061   0.622  14.990  23.090 -0.1933 -0.0667 -0.5321
50150W        W93062  32.140  17.632  22.258 -0.1287 -0.2158 -0.0899
50151W        W93063   0.165  15.507  23.594  0.2963 -0.1601  0.2390
50152W        W93064  32.428  14.740  20.704 -0.0312 -0.1758  0.0833
50153W        W93065  33.994  15.520  20.339 -0.0673 -0.0356 -0.3524
50154W        W93066  31.409  18.223  22.264  0.1023 -0.1476 -0.1682
50155W        W93067  33.815  16.507  19.629 -0.0988 -0.0621  0.0659
50156W        W93068  32.745  18.297  22.626  0.0783  0.3210 -0.1673
50157W        W93069  33.551  15.250  22.399 -0.1340  0.1144  0.1631
50158W        W93070  33.692  15.565  21.551  0.1889 -0.2228  0.1707
50159W        W93071   1.306  15.782  20.836 -0.0472 -0.3679  0.1126
50160W        W93072  34.406  16.423  21.946 -0.1383  0.2281  0.2735
50161W        W93073   0.006  15.902  22.287  0.1567 -0.0941 -0.0426
50162W        W93074  32.458  18.041  24.759  0.3478 -0.0531  0.0295
50163W        W93075  33.354  16.913  20.374  0.1209 -0.1081 -0.1346
50164W        W93076  31.949  16.276  22.483  0.2374 -0.1245  0.1319
50165W        W93077  33.910  15.648  20.859  0.2922 -0.0229  0.2547
50166W        W93078  34.049  15.459  22.744 -0.3437 -0.1586  0.0083
50167W        W93079  33.909  16.293  22.289 -0.3764  0.1704 -0.1242
50168W        W93080  34.333  17.253  19.314 -0.0814  0.0874 -0.3365
50169W        W93081  32.749  18.388  24.233 -0.0911 -0.1195  0.2737
50170W        W93082  33.236  15.711  22.470  0.0886  0.3369 -0.0517
50171W        W93083  33.366  16.132  22.235 -0.2063  0.1303  0.1018
50172W        W93084  34.009  15.478  24.105  0.1274 -0.2097  0.0661
50173W        W93085  33.190  15.181  23.217 -0.2361 -0.1088  0.0495
50174W        W93086  33.467  15.353  19.627  0.0945 -0.1083  0.3585
50175W        W93087  34.075  16.791  22.752 -0.0981 -0.0696 -0.4799
50176W        W93088  33.217  18.521  21.870 -0.2808 -0.0434  0.0245
50177W        W93089  34.679  16.833  22.005 -0.0137 -0.1230 -0.0658
50178W        W93090   0.069  16.358  19.744 -0.2859 -0.1753 -0.2445
50179W        W93091  33.840  17.227  20.487  0.2132  0.1577 -0.0799
50180W        W93092  33.763  15.041  22.916 -0.0086 -0.1143 -0.1041
50181W        W93093  34.393  16.798  24.038  0.0243  0.1716  0.0747
50182W        W93094  33.178  14.879  24.130 -0.0330 -0.3152 -0.0923
50183W        W93095  32.451  15.352  21.364 -0.1411 -0.1869 -0.0033
50184W        W93096  33.188  15.817  21.852  0.1396 -0.0728  0.0740
50185W        W93097  34.179  16.218  19.625  0.0951  0.0447 -0.2213
50186W        W93098  32.442  16.427  22.673  0.3574 -0.1620  0.1728
50187W        W93099  32.828  18.800  22.597 -0.0794 -0.2439  0.2028
50188W        W93100  31.951  15.365  19.954 -0.4267 -0.0293 -0.3391
50189W        W93101  34.528  15.561  20.354  0.1737  0.1594  0.2529
50190W        W93102   1.143  17.758  21.677  0.0665  0.1850  0.0290
50191W        W93103   0.432  14.068  20.019  0.0277  0.3065  0.0529
50192W        W93104  33.788  17.742  20.705  0.2501 -0.1850 -0.1355
50193W        W93105  33.203  17.939  22.480  0.0422 -0.2064  0.0793
50194W        W93106  32.903  16.577  24.300  0.3143  0.0882 -0.2445
50195W        W93107  33.831  17.323  20.971 -0.1173  0.4080 -0.1630
50196W        W93108   0.228  17.434  21.767 -0.1399 -0.0309 -0.0334
50197W        W93109  33.177  16.648  22.285 -0.1344  0.1209 -0.2632
50198W        W93110  34.270  17.337  22.419  0.1099  0.2059 -0.1127
50199W        W93111  33.617  15.424  25.040  0.2665  0.0241  0.1827
50200W        W93112   0.115  13.704  19.806 -0.1617  0.2311 -0.0941
50201W        W93113  33.200  18.245  24.361 -0.0904 -0.1344 -0.2161
50202W        W93114  32.598  16.317  22.199  0.2045 -0.2038 -0.0110
50203W        W93115  33.125  17.489  22.227 -0.2026 -0.0640 -0.1529
50204W        W93116  33.933  14.802  19.668 -0.0159 -0.0244  0.4527
50205W        W93117  32.747  17.568  21.937 -0.2261  0.4028  0.4331
50206W        W93118  31.473  16.458  19.944 -0.0901  0.2757 -0.0645
50207W        W93119  33.484  17.189  21.762  0.2429 -0.3690  0.1266
50208W        W93120  32.951  16.179  22.478 -0.0737 -0.3359  0.3070
50209W        W93121  33.132  16.421  20.303  0.0169  0.1088  0.2640
50210W        W93122   0.546  15.218  23.568  0.1251  0.0930 -0.0426
50211W        W93123  32.410  17.105  24.096 -0.2927 -0.1031 -0.2168
50212W        W93124  32.213  16.024  19.678 -0.0481 -0.0783 -0.0593
50213W        W93125  34.620  16.337  21.332 -0.5269  0.1208  0.0261
50214W        W93126  33.768  15.579  19.869  0.1121 -0.1349  0.0581
50215W        W93127  34.515  17.653  21.448 -0.2152 -0.1790 -0.1004
50216W        W93128  33.602  17.571  22.165 -0.0564  0.2453  0.1001
50217W        W93129  34.528  17.770  23.121 -0.2919  0.0805  0.2969
50218W        W93130  34.197  15.267  19.914  0.0421 -0.2247  0.1724
50219W        W93131  32.224  16.730  22.281  0.1467  0.0078 -0.2625
50220W        W93132  33.995  15.135  20.706 -0.1200 -0.4015 -0.1573
50221W        W93133  33.212  17.237  23.151 -0.4429 -0.0587  0.1610
50222W        W93134   0.616  15.918  20.181 -0.1528  0.0805 -0.0372
50223W        W93135  33.832  16.434  20.965 -0.1093 -0.1861 -0.3293
50224W        W93136  32.949  17.064  22.055 -0.2375  0.0472  0.1141
50225W        W93137   0.368  15.466  23.135  0.0845  0.4634  0.1481
50226W        W93138  32.686  14.005  20.248 -0.3490 -0.3515  0.0287
50227W        W93139  33.784  16.881  21.449  0.1276  0.0431  0.0527
50228W        W93140  32.717  15.486  21.781 -0.0370 -0.0879  0.4968
50229W        W93141  34.299  14.001  19.837 -0.0257 -0.1024  0.0104
50230W        W93142  33.664  16.855  20.844  0.1115  0.0783  0.1435
50231W        W93143  32.665  18.709  21.233  0.2576 -0.0118  0.4538
50232W        W93144   0.337  17.258  19.806  0.0036  0.1741  0.2448
50233W        W93145   0.500  17.891  24.053 -0.0531  0.0661 -0.3856
50234W        W93146  34.524  17.890  23.627 -0.1282 -0.0195  0.2317
50235W        W93147  33.072  16.181  19.351 -0.3395  0.2407 -0.3442
50236W        W93148  34.148  17.256  23.045  0.3875  0.0957  0.0426
50237W        W93149  33.427  17.086  22.248  0.2351  0.1128  0.1623
50238W        W93150  33.954  17.333  21.500  0.1885 -0.0734  0.1323
50239W        W93151  34.552  15.096  20.693 -0.0350 -0.1068  0.1490
50240W        W93152  34.187  15.854  22.411 -0.2832 -0.1471  0.3645
50241W        W93153  33.682  18.035  23.300 -0.1853  0.0973  0.1418
50242W        W93154  33.537  14.702  18.618  0.0863 -0.2187 -0.0676
50243W        W93155  33.238  15.798  19.700 -0.1179 -0.0954 -0.1040
50244W        W93156  33.643  16.685  22.439  0.3644 -0.0140 -0.0163
50245W        W93157   0.685  15.435  24.742  0.0282 -0.0245 -0.1994
50246W        W93158  34.689  15.154  23.303  0.2300 -0.0103 -0.0687
50247W        W93159  33.346  16.086  22.766 -0.0573  0.1064 -0.2401
50248W        W93160  34.194  14.449  21.172 -0.3454  0.0259 -0.0920
50249W        W93161   0.387  14.709  22.548 -0.0826  0.1838  0.2762
50250W        W93162  33.340  15.579  21.133  0.0722  0.0265  0.1936
50251W        W93163   0.445  14.569  20.269  0.1553  0.0954  0.2095
50252W        W93164  33.448  16.042  20.924 -0.0403  0.1829 -0.0221
50253W        W93165   0.092  15.985  23.797 -0.0581 -0.1070  0.2592
50254W        W93166   0.386  15.218  21.503  0.1270 -0.2928  0.1118
50255W        W93167  32.149  14.379  20.899  0.0407  0.1780 -0.0792
50256W        W93168  33.976  15.874  21.968  0.0232  0.1058  0.0480
50257W        W93169   0.083  15.900  23.327 -0.1393 -0.1036  0.4180
50258W        W93170  33.709  17.160  23.399  0.1032 -0.0063  0.0830
50259W        W93171  33.742  13.591  22.312  0.0417  0.1712  0.1953
50260W        W93172   0.159  16.452  22.318  0.1891 -0.1001 -0.2467
50261W        W93173  32.498  15.181  23.522 -0.0955 -0.0957 -0.2475
50262W        W93174  33.287  18.257  22.995 -0.0003  0.1706  0.0550
50263W        W93175  33.038  16.296  21.922 -0.0178  0.0417  0.1084
50264W        W93176  33.687  16.689  21.929 -0.0399 -0.1326 -0.0721
50265W        W93177  34.023  15.330  22.214  0.0877  0.1589 -0.0751
50266W        W93178  34.506  16.887  23.025 -0.0329  0.1769 -0.0091
50267W        W93179  33.679  15.952  19.455  0.0142  0.1944 -0.0265
50268W        W93180   0.381  18.559  23.389 -0.0639  0.3521  0.0364
50269W        W93181  34.132  14.444  22.101  0.1444  0.0354  0.2771
50270W        W93182  34.003  16.304  20.168 -0.1205  0.1686 -0.1711
50271W        W93183   1.254  15.371  21.735 -0.1562 -0.0606  0.1925
50272W        W93184  33.295  16.064  21.400  0.0298 -0.1596  0.1330
50273W        W93185  33.613  18.185  23.811  0.0256 -0.3551  0.1627
50274W        W93186  34.190  17.153  26.695 -0.0142  0.1171  0.1469
50275W        W93187  33.979  16.642  25.631  0.0584  0.1057  0.1697
50276W        W93188  33.800  16.263  25.958 -0.1152  0.1553  0.0974
50277W        W93189  33.334  14.839  27.146 -0.1415 -0.3031  0.1209
50278W        W93190  32.604  15.041  26.986  0.1193 -0.0243  0.2883
50279W        W93191  34.339  17.565  25.889 -0.0256 -0.1695  0.2617
50280W        W93192  33.863  16.273  24.117  0.3246 -0.0360 -0.0666
50281W        W93193  32.245  16.372  25.930 -0.1419 -0.0136  0.2432
50282W        W93194  32.690  16.289  23.431 -0.1011  0.0507  0.0790
50283W        W93195  34.299  16.194  25.457 -0.1604  0.1461  0.0221
50284W        W93196  33.745  15.786  22.485 -0.0145 -0.2385 -0.0877
50285W        W93197  34.160  15.441  27.420 -0.2078 -0.2324  0.3466
50286W        W93198   0.101  17.105  24.237 -0.3208 -0.0405  0.0919
50287W        W93199  32.954  14.827  23.624 -0.1810  0.2161  0.1488
50288W        W93200  33.093  16.292  26.212 -0.2655 -0.0973 -0.2759
50289W        W93201   0.040  16.372  25.300 -0.0247  0.0591  0.3520
50290W        W93202   0.136  19.634  25.063  0.0476  0.0304  0.0023
50291W        W93203   1.115  18.021  26.604 -0.0266  0.0670  0.2313
50292W        W93204  33.910  17.369  25.521  0.0100  0.3540 -0.0006
50293W        W93205  33.617  18.340  25.823  0.2676 -0.4651  0.2261
50294W        W93206  34.521  18.003  26.061  0.1136  0.1614 -0.0486
50295W        W93207   0.196  18.857  26.065 -0.3085  0.0806 -0.1329
50296W        W93208  33.948  16.791  24.247  0.1557 -0.3333 -0.2924
50297W        W93209  33.625  17.836  26.403 -0.1849 -0.2529  0.1880
50298W        W93210  33.641  15.743  24.457  0.0411 -0.1451 -0.0871
50299W        W93211   1.153  18.773  25.773  0.0986 -0.0704  0.0493
50300W        W93212  33.135  16.862  28.062 -0.0643 -0.0268 -0.0315
50301W        W93213  33.204  17.077  25.675 -0.0181  0.4223 -0.3987
50302W        W93214  33.504  17.202  24.394 -0.4258 -0.0670  0.2784
50303W        W93215   0.445  16.235  23.136  0.1342  0.0698  0.0074
50304W        W93216  34.419  14.658  24.838 -0.1550 -0.0925  0.0703
50305W        W93217  33.667  17.969  27.310  0.0233 -0.0931 -0.0381
50306W        W93218  33.364  16.077  25.865  0.3253  0.1454  0.0777
50307W        W93219  32.523  17.159  26.948  0.0414 -0.1637  0.0243
50308W        W93220  32.525  17.049  27.449 -0.1310  0.0716 -0.2648
50309W        W93221  33.429  17.044  24.922 -0.0657  0.2705  0.0231
50310W        W93222  33.782  17.598  28.737  0.1618 -0.2013 -0.2126
50311W        W93223  31.591  17.169  28.118 -0.0867 -0.1459 -0.1296
50312W        W93224   0.007  15.541  24.765  0.0164  0.1877  0.0708
50313W        W93225  33.226  18.482  27.268 -0.0834 -0.1552  0.2064
50314W        W93226  34.564  16.715  25.633  0.1851 -0.1256 -0.0137
50315W        W93227  34.402  16.893  23.531  0.0687  0.1350  0.0030
50316W        W93228  32.752  17.339  22.847 -0.0088  0.0048 -0.5845
50317W        W93229  33.036  17.526  25.594  0.1717 -0.2376  0.1775
50318W        W93230   0.143  14.243  27.352  0.3263  0.0815  0.0823
50319W        W93231  34.404  16.741  28.164 -0.1229 -0.1498 -0.3250
50320W        W93232  33.090  19.121  24.765 -0.3446 -0.0338  0.0221
50321W        W93233  33.465  16.771  25.352  0.0802 -0.3441  0.1637
50322W        W93234  32.784  17.797  24.503  0.2140 -0.1888  0.1683
50323W        W93235  33.026  15.450  27.675 -0.1734  0.3865 -0.2785
50324W        W93236  34.277  16.655  25.228  0.1577 -0.1670  0.1435
50325W        W93237  32.598  14.829  27.432 -0.3966 -0.0311  0.3484
50326W        W93238  33.824  15.469  25.504  0.1852  0.2212 -0.3999
50327W        W93239  32.433  17.478  27.617  0.2154 -0.1501  0.3436
50328W        W93240  33.289  16.326  25.493 -0.3887 -0.2537  0.2298
50329W        W93241  32.445  15.558  27.135  0.4099  0.1384 -0.1058
50330W        W93242  33.060  14.989  25.789 -0.0092  0.1066 -0.4416
50331W        W93243  32.537  13.607  25.698 -0.3275 -0.0005 -0.0355
50332W        W93244   0.468  16.366  23.739 -0.0390  0.0929  0.4428
50333W        W93245  32.693  16.775  23.732 -0.0075 -0.0549 -0.3626
50334W        W93246  33.290  15.841  27.127 -0.0932  0.0943 -0.0560
50335W        W93247  33.691  15.079  24.243 -0.0704 -0.1877  0.3536
50336W        W93248  34.292  18.742  25.090 -0.1241  0.2875 -0.1734
50337W        W93249  33.739  16.004  25.508  0.0394  0.2054 -0.1852
50338W        W93250  34.150  14.881  24.337  0.1610  0.1783 -0.3158
50339W        W93251  32.604  18.642  26.514  0.0545 -0.0854 -0.0645
50340W        W93252  32.614  15.767  23.460 -0.0217 -0.0110  0.5401
50341W        W93253  32.832  17.737  25.150 -0.0211  0.0042  0.0304
50342W        W93254  33.493  16.641  25.847  0.0911 -0.0908 -0.2618
50343W        W93255   0.226  18.398  26.352 -0.1343  0.2927  0.1766
50344W        W93256  32.050  17.229  27.746  0.2133 -0.0075  0.0761
50345W        W93257  34.476  15.265  23.849 -0.2011 -0.0793  0.3000
50346W        W93258  33.442  17.247  26.843  0.2729 -0.0449 -0.1436
50347W        W93259  32.976  16.520  26.666  0.2142  0.1119  0.0580
50348W        W93260   0.810  18.101  25.005 -0.1729  0.1149 -0.0448
50349W        W93261  34.073  18.254  27.581  0.1277  0.2220 -0.0590
50350W        W93262  32.447  17.564  25.472 -0.0975 -0.2911 -0.0053
50351W        W93263   0.490  14.964  25.878  0.0272  0.0474  0.1222
50352W        W93264  34.118  16.029  23.528  0.1009 -0.0083  0.0822
50353W        W93265  32.279  17.570  24.466  0.1991  0.0753 -0.1134
50354W        W93266   0.277  14.604  26.218  0.1643  0.2008  0.2872
50355W        W93267  33.806  16.353  22.826  0.0630 -0.0413 -0.0039
50356W        W93268  34.427  16.443  27.648 -0.3274 -0.1738 -0.0669
50357W        W93269  33.411  17.455  27.320  0.0981  0.1155 -0.1108
50358W        W93270  33.701  17.241  26.365  0.2089 -0.1278 -0.1117
50359W        W93271   0.409  15.975  25.948 -0.0069  0.1955  0.2524
50360W        W93272  32.494  18.140  23.061 -0.0864  0.0690 -0.1306
50361W        W93273  33.816  17.504  24.179 -0.0047 -0.2977  0.0511
50362W        W93274  34.275  15.827  27.116 -0.5610 -0.0643 -0.2860
50363W        W93275   1.126  18.330  26.203 -0.1042  0.1011 -0.0057
50364W        W93276  33.317  17.462  23.552  0.0038  0.0023  0.0650
50365W        W93277  34.452  17.605  26.882  0.0837  0.1400  0.3344
50366W        W93278  32.352  18.355  27.038 -0.0224 -0.0563 -0.0483
50367W        W93279  34.380  15.583  23.325 -0.0661 -0.3245 -0.1585
50368W        W93280  34.409  16.144  24.982  0.5276  0.3405  0.1627
50369W        W93281  33.403  15.608  26.342  0.0573 -0.1836  0.2911
50370W        W93282   1.248  14.400  26.067 -0.2130  0.1055  0.0576
50371W        W93283  32.774  18.113  26.410  0.0989 -0.0550 -0.0569
50372W        W93284  34.636  15.964  28.769  0.1876  0.1288 -0.0049
50373W        W93285  33.154  15.704  24.800 -0.2011 -0.0206  0.1593
50374W        W93286   0.761  15.834  25.124  0.2901 -0.3085  0.1052
50375W        W93287  34.261  17.402  24.955  0.0609 -0.1371 -0.3710
50376W        W93288  32.969  16.600  25.814 -0.0989 -0.1364  0.3115
50377W        W93289  33.875  17.580  26.051 -0.1616  0.1940  0.1933
50378W        W93290  33.813  15.802  27.382 -0.1434 -0.0851 -0.1404
50379W        W93291  32.866  15.534  26.763 -0.1166  0.0008  0.0363
50380W        W93292  33.590  14.926  25.079 -0.2030 -0.1916 -0.3426
50381W        W93293   0.019  17.169  26.688 -0.1632 -0.0525 -0.0617
50382W        W93294  34.027  16.413  26.519  0.2302 -0.1804  0.0761
50383W        W93295  33.481  16.298  27.302 -0.0032 -0.1453 -0.1986
50384W        W93296  33.902  16.336  25.151 -0.1983 -0.0780 -0.0949
50385W        W93297  33.097  16.989  27.111 -0.3889  0.1648 -0.3418
50386W        W93298  33.938  17.138  24.666  0.1217  0.0246 -0.1372
50387W        W93299   0.867  16.936  24.587 -0.1516  0.0163  0.1867
50388W        W93300  33.277  17.722  27.682 -0.0126  0.3278 -0.2626
50389W        W93301  34.356  17.850  25.114 -0.0207 -0.2685 -0.1884
50390W        W93302  32.829  17.754  26.808  0.4764 -0.1246  0.4721
50391W        W93303  34.440  15.025  27.305 -0.0014 -0.0826 -0.1042
50392W        W93304  33.320  15.531  25.798  0.0635  0.0359  0.0267
50393W        W93305  32.691  15.517  28.039  0.2234 -0.2623  0.2712
50394W        W93306  32.606  15.310  26.390  0.0803 -0.0432 -0.1807
50395W        W93307  33.309  15.360  24.092 -0.2982 -0.1760 -0.1751
50396W        W93308  34.183  15.982  25.994  0.0573 -0.1540 -0.1721
50397W        W93309  34.417  17.313  25.416  0.0024  0.3120  0.2115
50398W        W93310  33.501  16.628  26.378 -0.2373 -0.0144 -0.2152
50399W        W93311  34.082  17.180  23.807  0.0377 -0.0804 -0.0728
50400W        W93312  33.328  17.442  25.960 -0.3370  0.0454 -0.1189
50401W        W93313  33.375  15.364  26.862 -0.0579 -0.2464  0.0815
50402W        W93314  33.262  14.675  26.194  0.1813  0.0833 -0.0607
50403W        W93315  32.414  15.388  27.630 -0.0535  0.1930  0.0538
50404W        W93316  32.434  15.768  26.674 -0.0119  0.2884  0.0925
50405W        W93317  33.863  15.059  23.416  0.1272 -0.0418 -0.2272
50406W        W93318  34.477  18.831  23.174  0.6004  0.4693 -0.0101
50407W        W93319  33.715  15.908  25.022  0.0758  0.1091 -0.2078
50408W        W93320  33.493  17.640  28.281  0.1755 -0.1283  0.2023
50409W        W93321  33.638  17.017  22.894 -0.2544 -0.0229 -0.0384
50410W        W93322  33.090  16.132  25.039 -0.3272  0.0942 -0.0519
50411W        W93323   0.166  18.801  25.099 -0.0492 -0.0723 -0.1158
50412W        W93324   0.685  15.354  22.742 -0.1100  0.1200  0.2350
50413W        W93325  32.611  16.401  25.012 -0.0269  0.1090 -0.1385
50414W        W93326  33.718  17.103  25.886 -0.0148  0.0614 -0.1690
50415W        W93327  32.279  17.386  25.990  0.1864 -0.1717  0.0412
50416W        W93328  34.423  18.307  25.160  0.1251  0.1459 -0.0519
50417W        W93329  33.766  16.882  26.771 -0.0076  0.1049 -0.1044
50418W        W93330  34.437  16.839  24.723  0.1131 -0.2429 -0.0676
50419W        W93331  33.115  19.186  26.180  0.0776  0.0845 -0.2441
50420W        W93332  31.989  16.308  27.630 -0.0436 -0.0625 -0.0676
50421W        W93333  34.419  15.173  24.691 -0.2330  0.1807 -0.0500
50422W        W93334  33.516  18.192  28.288  0.1378  0.0043  0.1358
50423W        W93335  32.605  16.585  27.156 -0.0490  0.0194 -0.0683
50424W        W93336  33.889  18.316  25.245  0.0631 -0.4587  0.1671
50425W        W93337   0.270  14.606  24.346  0.2178  0.0482 -0.1318
50426W        W93338   0.665  18.835  26.918 -0.1796 -0.1846 -0.1382
50427W        W93339  33.591  17.792  25.656 -0.4991  0.2283  0.5496
50428W        W93340  34.370  18.133  24.220  0.2153 -0.4183  0.0061
50429W        W93341  34.627  16.262  27.214  0.0748 -0.0349 -0.1679
50430W        W93342  33.869  14.259  22.562  0.0326 -0.1289  0.2644
50431W        W93343  34.666  17.127  26.013  0.0847  0.0032 -0.2519
50432W        W93344  33.796  18.152  26.775  0.1469 -0.2928  0.1324
50433W        W93345  33.123  13.819  25.689 -0.0253  0.1570 -0.0545
50434W        W93346  34.214  15.842  24.488  0.0469 -0.2782  0.2771
50435W        W93347  33.396  15.463  23.545  0.2406 -0.1776  0.1845
50436W        W93348  33.616  20.547  25.003 -0.0622 -0.0643  0.0276
50437W        W93349  34.217  18.376  25.620 -0.3264 -0.2837  0.1453
50438W        W93350  34.306  18.197  26.707 -0.1437  0.0536 -0.0127
50439W        W93351  32.984  15.805  26.141  0.0641 -0.2243  0.0934
50440W        W93352  33.170  17.129  27.650  0.0503 -0.0597  0.1479
50441W        W93353  34.623  15.016  24.312  0.3140 -0.0053 -0.0275
50442W        W93354  32.944  16.196  27.064  0.1416 -0.1321 -0.0385
50443W        W93355   0.048  15.997  24.430  0.2661  0.0961 -0.1106
50444W        W93356  33.409  15.201  25.478  0.2681  0.0804  0.1621
50445W        W93357  32.694  15.850  25.130  0.1162  0.3299  0.1951
50446W        W93358  34.149  17.206  26.183  0.2959  0.0942 -0.3768
50447W        W93359   0.513  13.587  24.633 -0.2251 -0.1223  0.1056
50448W        W93360  33.308  17.712  24.440  0.3076  0.4445  0.2624
50449W        W93361  32.434  15.866  26.125 -0.1562  0.1719 -0.1046
50450W        W93362  34.045  15.875  22.987 -0.1361 -0.2997  0.1896
50451W        W93363  34.193  17.059  25.754 -0.3055 -0.0787 -0.2332
50452W        W93364  33.803  16.249  24.609  0.0578  0.2743 -0.0832
50453W        W93365  34.159  17.616  23.422  0.1211  0.3217  0.1167
50454W        W93366  34.065  17.099  27.141  0.3719  0.2168 -0.1323
50455W        W93367   0.022  17.463  27.683  0.3719 -0.0491  0.2066
50456W        W93368  33.471  15.976  23.249  0.4845 -0.1754 -0.1951
50457W        W93369  34.076  16.217  27.370  0.1660 -0.0524  0.0195
50458W        W93370   0.000  17.969  24.718  0.2365 -0.1820  0.1913
50459W        W93371  34.574  18.699  24.143 -0.2028 -0.2711 -0.0057
50460W        W93372  32.766  15.428  25.884 -0.1318 -0.0328 -0.0328
50461W        W93373  34.068  15.108  25.023 -0.0493 -0.0564 -0.0113
50462W        W93374  33.198  15.976  26.634 -0.0688 -0.1766 -0.1510
50463W        W93375  33.641  15.838  23.927  0.1638 -0.1216 -0.1209
50464W        W93376  32.263  16.517  23.093 -0.1093 -0.0418 -0.4033
50465W        W93377  32.749  17.253  26.092 -0.0164 -0.1252 -0.0628
50466W        W93378  34.198  14.948  27.738  0.0193 -0.1237 -0.0398
50467W        W93379  33.009  15.290  27.191 -0.1786 -0.1561 -0.2751
50468W        W93380  33.815  16.064  26.948  0.0527  0.0519  0.0054
50469W        W93381  33.544  16.542  23.832  0.1642  0.0752 -0.1333
50470W        W93382  33.726  15.052  27.377 -0.0107 -0.1525  0.3998
50471W        W93383  32.938  15.400  25.393  0.1762 -0.2634  0.1746
50472W        W93384   0.318  16.918  24.624 -0.1924 -0.2417  0.2722
50473W        W93385  33.982  16.703  23.746 -0.2195  0.1264 -0.2528
50474W        W93386  34.066  14.902  26.342 -0.0028  0.0451  0.1736
50475W        W93387  34.673  15.530  27.320 -0.2953 -0.0684  0.1991
50476W        W93388  31.828  13.819  24.920  0.3500  0.3885 -0.0079
50477W        W93389   0.828  15.723  25.699  0.1481 -0.2297 -0.0134
50478W        W93390  34.232  17.566  28.530 -0.1680 -0.0926  0.0671
50479W        W93391  33.565  16.952  27.242 -0.1633 -0.0951 -0.1326
50480W        W93392  33.051  15.000  26.704  0.5760  0.0016 -0.0534
50481W        W93393  34.538  16.571  28.626  0.3545 -0.1351  0.3265
50482W        W93394  31.197  15.760  28.638 -0.0873 -0.2208 -0.1429
50483W        W93395  32.805  18.211  27.145  0.1924  0.2604 -0.1327
50484W        W93396  33.456  14.433  25.050  0.0191  0.4913  0.2802
50485W        W93397  32.518  16.721  26.631 -0.0051  0.1906 -0.1602
50486W        W93398   0.785  17.573  23.800  0.1659 -0.1393  0.0545
50487W        W93399  34.329  16.201  26.827  0.0666 -0.0148 -0.0899
50488W        W93400  34.375  16.396  24.463  0.0482 -0.1503  0.1754
50489W        W93401  34.305  18.568  27.022 -0.0165 -0.1589 -0.1223
50490W        W93402  32.881  14.633  27.030 -0.0942  0.0529 -0.3221
50491W        W93403  34.027  16.625  24.780  0.0297 -0.0595 -0.2391
50492W        W93404  34.067  17.858  25.544  0.1481 -0.0885  0.1893
50493W        W93405  34.142  15.256  25.794  0.0366  0.1694 -0.1667
50494W        W93406  34.395  18.717  26.003 -0.1166 -0.1454 -0.0274
50495W        W93407  34.327  18.394  30.970 -0.0134 -0.0044  0.0848
50496W        W93408  32.708  16.044  29.376  0.2217  0.0391 -0.0056
50497W        W93409  33.113  15.698  29.415 -0.0968 -0.2581 -0.0227
50498W        W93410  33.032  14.441  29.915  0.2116  0.1200  0.2326
50499W        W93411   1.424  16.838  30.819 -0.1236 -0.0596  0.2050
50500W        W93412   0.492  18.442  29.552  0.3726  0.0052  0.0745
50501W        W93413  34.534  14.955  28.576 -0.3184 -0.3011 -0.1336
50502W        W93414  33.214  15.242  29.253  0.0882 -0.0176 -0.0444
50503W        W93415  33.245  15.972  28.355 -0.3267  0.3630 -0.0347
50504W        W93416  34.273  15.561  30.537  0.2072  0.1472 -0.0970
50505W        W93417  34.482  15.931  27.596 -0.2235  0.2155 -0.1397
50506W        W93418   1.119  14.350  30.436  0.1941 -0.1711  0.0705
50507W        W93419   1.353  15.777  27.568 -0.1251  0.4168  0.1664
50508W        W93420  32.915  17.351  28.882  0.0895 -0.2849  0.0366
50509W        W93421  34.089  15.302  29.500  0.0984  0.0459  0.1217
50510W        W93422  34.493  15.670  30.015 -0.2607  0.2094 -0.0896
50511W        W93423   0.321  17.957  28.839 -0.1480 -0.3097  0.1381
50512W        W93424   0.915  17.395  28.075  0.2313 -0.0397  0.0237
50513W        W93425  32.700  17.600  29.256  0.2415  0.0628 -0.3664
50514W        W93426  33.820  18.893  28.396  0.1138  0.2120  0.2045
50515W        W93427  34.377  16.356  29.292 -0.0966  0.2928 -0.2348
50516W        W93428  33.999  18.352  30.562  0.1863  0.0387 -0.3845
50517W        W93429  32.554  17.668  26.352 -0.2261 -0.1292  0.3849
50518W        W93430  32.901  19.016  30.241 -0.0956  0.0602  0.0301
50519W        W93431  33.528  18.799  27.563 -0.1358 -0.3760 -0.2321
50520W        W93432   0.993  15.978  28.898 -0.2875  0.1680 -0.3958
50521W        W93433   0.251  17.482  30.141 -0.1329  0.0970 -0.1234
50522W        W93434  32.821  16.637  30.774 -0.2208  0.0206 -0.0655
50523W        W93435  33.513  19.629  27.897  0.0237 -0.1991 -0.0559
50524W        W93436   0.068  16.458  26.679  0.0183 -0.0252 -0.1004
50525W        W93437   0.406  15.378  30.845 -0.0784  0.2019  0.0455
50526W        W93438  33.762  16.622  28.959  0.4842 -0.2410  0.0952
50527W        W93439  33.132  14.806  30.368 -0.2632  0.0833  0.1845
50528W        W93440  32.096  17.752  30.810  0.3008  0.0114 -0.3290
50529W        W93441  32.993  15.336  30.485 -0.2678  0.2536  0.3007
50530W        W93442  32.758  17.036  29.405 -0.0473 -0.0214  0.2865
50531W        W93443  31.965  16.517  30.536  0.2294 -0.3590 -0.1046
50532W        W93444  33.463  15.268  30.449 -0.2545 -0.0003 -0.1050
50533W        W93445  34.095  13.925  28.400  0.0006 -0.0851  0.1386
50534W        W93446  33.437  16.635   0.188 -0.1736  0.2116 -0.0737
50535W        W93447   0.224  15.297  29.790 -0.0426 -0.2720  0.0191
50536W        W93448  34.271  16.621  27.142 -0.0942 -0.1431 -0.0671
50537W        W93449  33.755  15.546  28.308  0.0167 -0.2597 -0.2261
50538W        W93450  33.520  16.227  30.200 -0.0519 -0.0028 -0.0667
50539W        W93451   0.155  15.832  29.751  0.0946  0.2206 -0.1160
50540W        W93452  34.689  18.033  31.628  0.1679  0.0657  0.1500
50541W        W93453  33.370  19.232  28.263  0.1079 -0.1527  0.0080
50542W        W93454  32.146  18.079  29.330 -0.0114 -0.0499  0.1125
50543W        W93455  34.344  15.748  29.113  0.0757  0.1658 -0.1335
50544W        W93456  32.142  15.874  30.679 -0.1929  0.3340  0.0099
50545W        W93457  34.395  16.980  29.428  0.2672  0.1935  0.0906
50546W        W93458  32.491  15.483  30.533  0.1422 -0.1637 -0.0587
50547W        W93459  33.998  16.178  29.077 -0.0023 -0.3300  0.0227
50548W        W93460  32.000  14.769  31.550  0.1617 -0.0167 -0.1197
50549W        W93461  33.614  15.105  28.315  0.3347  0.0036 -0.1031
50550W        W93462  33.771  14.403  31.490  0.0635 -0.0528 -0.1152
50551W        W93463  33.007  15.329  29.740 -0.0883 -0.3341  0.1392
50552W        W93464  33.409  14.670  28.293  0.1367  0.0340 -0.0695
50553W        W93465   0.607  15.500  29.556  0.2104  0.1978 -0.1261
50554W        W93466  33.630  16.900  28.573  0.2260  0.0004 -0.0925
50555W        W93467  34.612  15.227  31.122 -0.0546 -0.0525 -0.2195
50556W        W93468  33.101  15.057  28.331 -0.1053  0.0890  0.1563
50557W        W93469  33.858  18.354  30.043 -0.2182 -0.0320 -0.0627
50558W        W93470  34.568  18.316  28.966  0.0494 -0.4334  0.3340
50559W        W93471  33.529  15.833  27.943  0.2653  0.0254 -0.0472
50560W        W93472  34.275  17.657  30.928 -0.1546  0.0306  0.0320
50561W        W93473  33.782  14.753  27.921 -0.2013 -0.0357  0.2742
50562W        W93474  33.761  17.936  27.869 -0.0298  0.1046  0.2258
50563W        W93475  32.713  18.008  28.828 -0.1407 -0.3674 -0.1113
50564W        W93476  34.038  15.827  27.845 -0.1105  0.1178 -0.1797
50565W        W93477  32.914  16.949  29.932 -0.0763  0.2599  0.1396
50566W        W93478  32.630  15.008  28.463  0.0396  0.0907 -0.2484
50567W        W93479  33.108  17.332  30.118 -0.1258 -0.1308 -0.1258
50568W        W93480  32.614  17.089  30.856  0.0038  0.0536  0.2362
50569W        W93481   0.294  17.720  27.377 -0.1883  0.1943 -0.1969
50570W        W93482   1.018  17.073  30.489  0.0403 -0.1746 -0.0557
50571W        W93483  32.603  18.284  29.200  0.2174 -0.0421 -0.0896
50572W        W93484  33.963  15.120  30.421 -0.2254 -0.2998 -0.0020
50573W        W93485  34.481  16.031  26.386  0.2555 -0.0695 -0.0748
50574W        W93486  33.513  18.944  26.341 -0.1412  0.2956 -0.1359
50575W        W93487  34.089  12.851  31.341  0.1390 -0.0805  0.0434
50576W        W93488  32.918  16.468  29.140 -0.2774 -0.0838 -0.1110
50577W        W93489   2.173  17.554  30.769 -0.0153 -0.1121  0.3204
50578W        W93490  33.549  16.848  30.491  0.1252  0.1001  0.0272
50579W        W93491  33.040  18.271  28.443 -0.0448 -0.1468 -0.1562
50580W        W93492   1.836  16.650  30.426  0.2296  0.0791  0.2259
50581W        W93493  34.187  18.659  28.625 -0.1981  0.1048 -0.2121
50582W        W93494  34.483  17.311  28.152 -0.0279 -0.0605 -0.2476
50583W        W93495  33.454  15.577  30.058 -0.0151 -0.2501  0.3131
50584W        W93496  33.921  16.815  28.083  0.0251  0.1154 -0.1654
50585W        W93497   0.071  15.505  28.952 -0.0651 -0.3299 -0.2471
50586W        W93498  33.952  18.072  28.489  0.2563  0.0856  0.0522
50587W        W93499  34.048  18.483  29.082 -0.0054  0.1283  0.0757
50588W        W93500  33.005  16.487  30.133  0.2512  0.4629 -0.2055
50589W        W93501  31.788  17.632  27.629  0.1141 -0.2462 -0.0149
50590W        W93502  33.139  15.051  30.836  0.1248 -0.0329  0.1340
50591W        W93503  34.090  14.727  29.406  0.0773 -0.0539  0.0453
50592W        W93504  32.205  18.204  28.830 -0.0121  0.6141  0.3421
50593W        W93505  33.667  16.552  30.926 -0.0158 -0.0599 -0.2259
50594W        W93506  32.292  15.265  28.160 -0.0349 -0.0311  0.0659
50595W        W93507  33.637  15.867  29.687  0.1851  0.1269 -0.2887
50596W        W93508   0.118  17.504  28.666  0.1870 -0.0567 -0.0962
50597W        W93509  33.338  16.343  28.758 -0.0543 -0.0249 -0.0228
50598W        W93510  32.855  17.836  30.092  0.0030 -0.0053  0.0505
50599W        W93511  33.849  17.092  30.859 -0.3194  0.3443  0.1915
50600W        W93512   0.470  15.006  30.384 -0.1792 -0.1768  0.1113
50601W        W93513  34.300  14.447  28.563  0.2071  0.0868  0.2602
50602W        W93514  33.941  16.025  30.115  0.2140  0.0179  0.0470
50603W        W93515   1.000  15.936  30.698 -0.0252  0.0456  0.1164
50604W        W93516  33.905  17.936  30.870  0.2994  0.1127  0.1136
50605W        W93517  33.850  15.566  28.988  0.3529  0.0006  0.1540
50606W        W93518  32.498  16.663  30.361 -0.1330  0.0282  0.2361
50607W        W93519  34.613  18.004  28.464 -0.1515 -0.2072  0.2748
50608W        W93520  34.457  15.019  29.618 -0.1242  0.2999  0.2451
50609W        W93521   0.062  17.027  30.374  0.2983  0.2202 -0.0039
50610W        W93522   0.267  16.504  29.606 -0.1100 -0.0305 -0.1282
50611W        W93523  33.153  19.099  29.715  0.0611 -0.1514 -0.0850
50612W        W93524  33.997  15.225  28.693  0.0259  0.2492  0.1339
50613W        W93525   0.251  15.740  31.214 -0.0299  0.1127 -0.1256
50614W        W93526  31.292  15.073  30.336  0.1916  0.0068  0.1499
50615W        W93527  32.852  18.545  30.406  0.1656 -0.0533 -0.0424
50616W        W93528  33.944  13.934  27.942  0.1393  0.0328  0.2946
50617W        W93529  34.386  17.450  29.663 -0.0240 -0.1663  0.3075
50618W        W93530  33.794  17.130  28.983  0.0816 -0.1358  0.0404
50619W        W93531  32.776  15.094  30.085 -0.0174  0.2619 -0.0110
50620W        W93532  34.171  17.062  28.566  0.0387  0.2053 -0.0728
50621W        W93533  34.296  16.607  29.724 -0.1868  0.0490  0.0684
50622W        W93534   0.194  16.224  30.981 -0.4718 -0.0069 -0.0037
50623W        W93535  32.880  15.670  30.156  0.3409  0.2084  0.2474
50624W        W93536  32.667  14.243  30.925 -0.0247 -0.0463  0.0207
50625W        W93537  34.366  15.248  29.071  0.2600 -0.2124 -0.0542
50626W        W93538  33.448  15.476  27.460  0.0713 -0.0283  0.1195
50627W        W93539  34.695  17.310  27.217 -0.1219 -0.0072 -0.1133
50628W        W93540  33.425  15.429  28.669 -0.1757  0.1554  0.1652
50629W        W93541  32.963  16.700  31.283  0.0683  0.0399  0.1988
50630W        W93542  34.425  15.702  25.698  0.1507 -0.3412 -0.1571
50631W        W93543  34.384  16.150  29.788  0.1165  0.0623 -0.1899
50632W        W93544   0.868  15.836  29.367 -0.0704  0.0091 -0.0733
50633W        W93545   0.442  13.769  29.166 -0.2575 -0.0062  0.0199
50634W        W93546  32.819  15.789  27.386  0.4051 -0.1224  0.0242
50635W        W93547  33.164  17.257  29.643 -0.0915 -0.1605  0.0145
50636W        W93548  33.004  16.936  30.451  0.3875  0.2726  0.0113
50637W        W93549  34.427  18.756  29.326  0.0299  0.4306  0.0106
50638W        W93550  34.093  15.797  29.551  0.0170  0.2115  0.4038
50639W        W93551  33.478  16.931  29.954 -0.1102 -0.2812  0.2459
50640W        W93552  33.931  17.512  30.096 -0.0514 -0.0305  0.0862
50641W        W93553  33.794  15.242  31.382 -0.0673  0.0819  0.1048
50642W        W93554  33.988  13.655  28.805 -0.1729  0.0317 -0.1250
50643W        W93555  33.662  16.925  31.821  0.1193 -0.0169 -0.1758
50644W        W93556  31.734  17.109  29.700 -0.0510 -0.0404 -0.0890
50645W        W93557  33.537  16.760  27.749  0.2262 -0.0165 -0.0426
50646W        W93558  34.434  15.501  27.879 -0.0382 -0.2340  0.1621
50647W        W93559  34.678  17.891  27.952 -0.3237 -0.1735 -0.1687
50648W        W93560  33.392  16.515  28.210  0.1832 -0.0815 -0.0615
50649W        W93561  34.216  17.730  27.854  0.3821 -0.1997  0.2501
50650W        W93562   0.266  15.470  30.409 -0.0914 -0.2095 -0.0972
50651W        W93563  34.657  15.094  27.755 -0.3699  0.0168 -0.1795
50652W        W93564   0.825  16.558  29.592 -0.2495  0.0572 -0.1362
50653W        W93565  33.425  18.384  31.368 -0.0349 -0.0200  0.1404
50654W        W93566  33.702  14.537  29.174 -0.2537 -0.2332 -0.1912
50655W        W93567  33.613  16.016  30.847 -0.2344  0.1792 -0.1609
50656W        W93568   1.102  16.605  27.747 -0.2980  0.1400  0.0430
50657W        W93569  33.802  19.439  28.296 -0.1097  0.1113  0.0433
50658W        W93570  34.625  17.721  29.235 -0.0472  0.1611 -0.1078
50659W        W93571  33.484  18.627  29.619  0.0547  0.0247  0.1609
50660W        W93572  32.966  15.128  28.811  0.1358  0.0093 -0.1680
50661W        W93573  34.689  15.831  30.730 -0.0802 -0.2083  0.3265
50662W        W93574  33.662  15.943  28.671  0.0768 -0.0315 -0.2350
50663W        W93575  33.957  15.505  29.991  0.1687 -0.0832  0.0283
50664W        W93576   0.669  15.174  27.333 -0.0296 -0.1068  0.0481
50665W        W93577  34.314  16.244  28.053 -0.0241  0.0809  0.1796
50666W        W93578  32.587  16.258  29.960 -0.0665 -0.2704 -0.1162
50667W        W93579  34.104  15.228  30.958  0.0383 -0.3386  0.1197
50668W        W93580  33.605  14.730  30.191 -0.2194  0.2358 -0.0354
50669W        W93581   0.015  19.366  28.615 -0.1498  0.1101  0.2437
50670W        W93582  34.321  16.613  30.270  0.0381  0.3192 -0.0054
50671W        W93583   0.322  15.035  28.735 -0.0451 -0.2812 -0.2293
50672W        W93584  33.286  16.699  29.430  0.0588 -0.1522  0.0100
50673W        W93585  32.715  17.408  29.790 -0.2011  0.3423  0.2095
50674W        W93586  33.844  17.608  26.930  0.0187 -0.1989  0.3354
50675W        W93587  34.695  17.028  28.497  0.0079 -0.1460  0.0166
50676W        W93588  34.068  16.997  30.391  0.0136 -0.0974 -0.3293
50677W        W93589  33.845  15.423  27.014  0.1369 -0.4130  0.0199
50678W        W93590   0.528  16.864  30.383  0.1264 -0.3639 -0.1407
50679W        W93591  34.252  16.797  29.012  0.1681  0.3964 -0.1752
50680W        W93592  33.216  16.340  27.802  0.2448  0.2880  0.0653
50681W        W93593  34.166  14.774  28.908  0.1340 -0.1047 -0.4901
50682W        W93594   0.512  15.888  30.757 -0.4124 -0.1099 -0.3363
50683W        W93595   0.469  16.735  30.876  0.0260 -0.1816  0.1806
50684W        W93596  32.982  15.910  27.897  0.1332 -0.0345  0.1593
50685W        W93597  33.862  16.299  27.791  0.1649 -0.1069 -0.2900
50686W        W93598  32.281  17.612  29.468  0.0880  0.0982 -0.4254
50687W        W93599   0.464  14.052  31.264 -0.2261 -0.1527  0.0971
50688W        W93600  33.249  15.922  30.462  0.2176 -0.1748 -0.0038
50689W        W93601  32.719  15.846  30.868 -0.0915 -0.2334 -0.0591
50690W        W93602  33.922  14.340  28.221 -0.0127 -0.1155  0.0518
50691W        W93603  32.043  14.241  29.894  0.1354  0.5522  0.0400
50692W        W93604  33.627  15.241  30.920 -0.3546  0.1364  0.1617
50693W        W93605  34.212  15.148  28.184  0.0292  0.3751 -0.3899
50694W        W93606  32.106  18.149  27.418 -0.1626  0.1509  0.0499
50695W        W93607  31.453  15.056  30.852 -0.2733  0.1352 -0.3374
50696W        W93608  33.387  15.772  31.382  0.0330 -0.1301 -0.1198
50697W        W93609  32.950  14.627  28.021 -0.0663 -0.0320 -0.0139
50698W        W93610   0.622  16.532  30.039  0.0105 -0.1476  0.1692
50699W        W93611  33.866  16.594  29.969  0.0811  0.0889 -0.0533
50700W        W93612  33.807  17.936  30.322 -0.1299  0.1907 -0.1610
50701W        W93613  32.261  13.944  30.859 -0.0774  0.0122  0.0609
50702W        W93614   0.016  18.373  29.573 -0.1665  0.1427  0.1077
50703W        W93615  31.655  13.792  31.702  0.0335  0.1052  0.0883
50704W        W93616  31.730  16.018  31.633 -0.0820 -0.2357  0.0801
50705W        W93617  34.641  13.960  28.407  0.1738 -0.3362  0.0617
50706W        W93618  33.254  16.427  30.609 -0.1186 -0.0419  0.2395
50707W        W93619  34.501  15.844  28.284 -0.1124 -0.0122  0.1417
50708W        W93620  34.618  17.045  29.913 -0.0097  0.2970  0.1876
50709W        W93621   0.177  16.323  28.405  0.0710  0.1939 -0.0348
50710W        W93622  33.615  18.745  30.622 -0.0557  0.2696  0.2091
50711W        W93623  32.459  14.111  30.310 -0.1542 -0.4143 -0.0635
50712W        W93624  33.719  17.204  29.598 -0.0342  0.0812  0.2389
50713W        W93625  33.843  17.296  28.316  0.1882 -0.1081 -0.1456
50714W        W93626  34.298  16.091  30.504 -0.0556  0.2330 -0.2379
50715W        W93627  33.962  17.503  30.594  0.0591 -0.2059 -0.1702
50716W        W93628  32.133  15.681  31.611 -0.1325 -0.0713  0.2113
50717W        W93629  33.155  18.529  31.908 -0.0761 -0.2750 -0.0930
50718W        W93630  32.877  17.607  30.897 -0.2480  0.2735 -0.1884
50719W        W93631  33.924  18.518  31.261 -0.1005 -0.3758  0.0463
50720W        W93632  33.174  15.577  30.878 -0.1294  0.1447 -0.1117
50721W        W93633  33.518  14.844  31.174  0.1726 -0.2048 -0.0652
50722W        W93634  33.928  16.417  30.478  0.0212 -0.0425  0.0913
50723W        W93635  32.956  17.653  31.880  0.0237 -0.0008  0.0843
50724W        W93636  32.267  16.197  31.678  0.2656 -0.2238 -0.2486
50725W        W93637  33.887  12.183  31.358 -0.0100  0.1961  0.1287
50726W        W93638  33.179  15.194   0.264 -0.2121 -0.0090 -0.0281
50727W        W93639  32.365  14.597  31.233 -0.0470  0.0933 -0.0156
50728W        W93640  31.357  19.342  31.747 -0.0147  0.1716  0.0878
50729W        W93641  33.247  16.876  30.910  0.1994 -0.3098 -0.3108
50730W        W93642  33.083  18.076  31.560  0.0593 -0.0505 -0.1493
50731W        W93643  33.342  15.220  31.757  0.1534 -0.0005  0.0734
50732W        W93644  34.116  17.069  29.922  0.1647  0.2446  0.0683
50733W        W93645  33.052  18.325  30.001 -0.3042  0.2745 -0.3643
50734W        W93646  32.211  16.656  31.811 -0.0485 -0.0057 -0.1529
50735W        W93647  33.072  14.444  30.756  0.2250  0.0819 -0.0742
50736W        W93648  33.445  17.597  31.513 -0.2159 -0.2077  0.0772
50737W        W93649   0.028  17.390  31.011 -0.3023  0.0467  0.0534
50738W        W93650   0.379  16.937  31.742  0.1261  0.1125 -0.2350
50739W        W93651  33.790  15.687  30.479  0.1334 -0.1083  0.0245
50740W        W93652   0.024  18.473  31.358 -0.0049  0.1646  0.0259
50741W        W93653  33.567  14.894   0.182 -0.2190  0.1381  0.1401
50742W        W93654  34.072  15.698  31.567  0.0366 -0.2741 -0.1962
50743W        W93655  32.254  15.575  31.087 -0.1811  0.1208 -0.0418
50744W        W93656  32.575  17.140  30.315  0.1434  0.1078 -0.3197
50745W        W93657  34.264  14.259  31.563  0.0565 -0.1177 -0.2345
50746W        W93658   0.579  18.077  30.857  0.1642 -0.0178  0.0333
50747W        W93659  33.958  14.785  30.832  0.3016 -0.0035 -0.1584
50748W        W93660  34.314  18.741   0.317  0.0135  0.2169 -0.0725
50749W        W93661  34.347  18.745  31.382  0.0772  0.1300  0.2939
50750W        W93662  34.241  16.754  30.771 -0.2890  0.0265  0.1565
50751W        W93663  32.638  15.924  31.889 -0.1224  0.0792 -0.2462
50752W        W93664  34.417  17.576  31.375 -0.0890  0.0869 -0.1524
50753W        W93665  33.413  17.376  30.862 -0.1751  0.0769 -0.3182
50754W        W93666  34.438  14.267  30.672  0.1489 -0.3740 -0.3984
50755W        W93667  33.313  21.222  20.046  0.2886 -0.1752  0.3051
50756W        W93668  34.046  20.083  17.042  0.1357 -0.0618 -0.1254
50757W        W93669  33.112  18.328  18.913 -0.0982 -0.1237  0.0486
50758W        W93670  33.986  17.436  19.642 -0.1076  0.0334 -0.1683
50759W        W93671  32.598  20.025  17.824 -0.1490  0.1021  0.3028
50760W        W93672   0.095  20.410  18.266 -0.2689  0.2713  0.0187
50761W        W93673  33.109  19.045  17.330  0.2469 -0.2848  0.0223
50762W        W93674  32.455  18.504  18.293  0.5741  0.0413 -0.1762
50763W        W93675  33.092  20.450  17.174 -0.1530  0.1086 -0.2622
50764W        W93676  31.424  18.306  18.522  0.1116 -0.0739 -0.1930
50765W        W93677  32.979  18.757  18.671 -0.0822  0.0428 -0.0637
50766W        W93678  33.590  19.276  19.397  0.1807  0.0309 -0.1215
50767W        W93679  34.635  19.942  16.940 -0.1562 -0.2886 -0.2957
50768W        W93680  32.750  19.727  16.732 -0.2068  0.3376  0.1895
50769W        W93681  32.553  18.412  18.768  0.0768 -0.0690  0.0260
50770W        W93682  32.589  18.917  17.304  0.4146  0.2808 -0.0573
50771W        W93683  32.954  21.575  17.461 -0.0996 -0.2227 -0.1786
50772W        W93684   1.105  21.571  17.930  0.1511  0.0087 -0.2218
50773W        W93685  32.901  20.424  16.609  0.1392 -0.0298 -0.2522
50774W        W93686  32.990  20.043  19.308 -0.0651  0.2440 -0.2015
50775W        W93687  34.380  21.788  17.499 -0.2064 -0.0249 -0.5054
50776W        W93688  33.564  21.926  18.604 -0.2141  0.0726 -0.0278
50777W        W93689  32.544  22.445  17.113  0.2532 -0.0762  0.3468
50778W        W93690  34.186  20.144  19.462 -0.0574  0.0324  0.0516
50779W        W93691  34.018  21.580  16.846  0.1048 -0.2523 -0.1460
50780W        W93692  33.491  21.737  17.149 -0.0183 -0.0205  0.0716
50781W        W93693  33.735  21.108  19.559  0.0098  0.1340 -0.2987
50782W        W93694  33.201  20.934  18.600 -0.2797  0.2088 -0.1015
50783W        W93695  33.846  19.565  16.762 -0.0816  0.3511  0.0408
50784W        W93696   0.799  19.489  16.302 -0.2485  0.0173 -0.0911
50785W        W93697  34.181  18.495  17.956  0.0548 -0.1556  0.0826
50786W        W93698  34.208  21.328  17.623  0.0049  0.0868 -0.1429
50787W        W93699  32.846  19.288  20.045 -0.3368  0.1840  0.3757
50788W        W93700  33.707  21.148  18.315  0.2735 -0.1443 -0.0915
50789W        W93701  32.911  18.695  18.113  0.0054 -0.3288 -0.0152
50790W        W93702  33.982  19.922  18.682  0.0959  0.3250 -0.0324
50791W        W93703  34.423  20.104  18.402 -0.0623 -0.2530 -0.1646
50792W        W93704  31.642  19.588  18.792 -0.0558 -0.1091 -0.1914
50793W        W93705  34.575  18.281  17.644 -0.0440  0.0275 -0.0895
50794W        W93706  32.211  21.143  18.360  0.0104  0.0177  0.1296
50795W        W93707  32.892  21.163  18.978  0.1549  0.0200 -0.0109
50796W        W93708  33.477  20.359  16.819  0.0028  0.2285  0.3027
50797W        W93709  34.047  20.201  18.162 -0.0781 -0.1817  0.4072
50798W        W93710  33.521  21.590  18.208 -0.1175 -0.1245 -0.0726
50799W        W93711  34.048  20.073  19.916  0.2263 -0.1154  0.1671
50800W        W93712  34.307  20.578  19.188 -0.1098 -0.1923  0.0619
50801W        W93713  32.381  21.384  16.179  0.1994  0.0454  0.3952
50802W        W93714  32.674  21.877  17.861  0.1770 -0.0681  0.2489
50803W        W93715  32.919  19.459  17.089 -0.1026 -0.0633  0.5068
50804W        W93716  32.021  17.698  18.503  0.0246 -0.0143  0.1443
50805W        W93717  32.450  19.862  18.496 -0.0197 -0.1492 -0.1224
50806W        W93718  33.261  17.904  18.256  0.1374  0.1992  0.0479
50807W        W93719   0.499  21.415  18.033  0.0179  0.0197  0.0925
50808W        W93720  32.815  19.950  17.275 -0.0263  0.2922 -0.1095
50809W        W93721  33.992  20.627  16.991  0.1784  0.2171 -0.0147
50810W        W93722  34.106  18.770  19.398  0.1493 -0.3140 -0.1699
50811W        W93723  32.613  18.262  17.844 -0.3339  0.0763  0.0509
50812W        W93724  33.966  18.482  16.333 -0.2331  0.0679 -0.1992
50813W        W93725   0.986  19.749  17.283 -0.0012  0.1439  0.0934
50814W        W93726  32.311  20.627  16.693  0.1000  0.0587  0.2021
50815W        W93727  32.238  19.526  19.423 -0.1876  0.0728 -0.0256
50816W        W93728  34.062  18.955  16.321 -0.1734 -0.4041  0.0799
50817W        W93729  32.830  21.025  17.831  0.1232 -0.0118 -0.0583
50818W        W93730  34.106  20.900  17.900  0.0888 -0.0933 -0.0238
50819W        W93731  33.623  18.354  17.722  0.4618 -0.1081 -0.0220
50820W        W93732  32.954  20.975  20.409  0.0615 -0.0044  0.1702
50821W        W93733  34.378  17.192  16.508 -0.1821  0.1393  0.0382
50822W        W93734  32.170  21.589  16.786 -0.1017  0.1312 -0.0488
50823W        W93735  32.618  20.627  17.208  0.3895 -0.0529 -0.1328
50824W        W93736   0.384  21.482  17.143 -0.0383 -0.2372 -0.1500
50825W        W93737  32.522  19.641  21.775  0.1199 -0.1355 -0.2477
50826W        W93738  33.332  17.842  17.376  0.0509 -0.1273 -0.1675
50827W        W93739   0.251  20.931  19.708  0.0152 -0.1989  0.1437
50828W        W93740  32.759  19.857  20.063  0.0836  0.4372  0.1371
50829W        W93741  33.893  20.219  16.556 -0.1727  0.2622  0.1103
50830W        W93742  33.540  19.776  17.756  0.0158 -0.0827 -0.3092
50831W        W93743  33.182  19.708  19.710  0.1787 -0.3231  0.0098
50832W        W93744  32.619  18.533  19.241 -0.1202 -0.0855 -0.0119
50833W        W93745  34.338  20.348  16.645  0.2981 -0.1655 -0.2012
50834W        W93746  31.852  22.245  17.584  0.1637  0.2996  0.0756
50835W        W93747  32.424  17.888  18.693  0.4792  0.1737 -0.1867
50836W        W93748  34.300  19.355  16.590 -0.2996  0.0777 -0.3703
50837W        W93749  33.371  18.886  19.004  0.0576 -0.0825  0.2188
50838W        W93750  31.804  20.154  17.861 -0.0885  0.3743 -0.1741
50839W        W93751  33.359  21.648  19.038 -0.3084 -0.1230 -0.0233
50840W        W93752  33.029  19.061  19.569 -0.0385  0.1483 -0.0281
50841W        W93753  33.789  21.321  17.862 -0.1274  0.0245  0.5665
50842W        W93754  33.558  21.112  16.163 -0.0039  0.1382  0.0356
50843W        W93755  33.334  18.529  18.300  0.3040  0.0346  0.0174
50844W        W93756   0.279  21.165  17.614  0.0783  0.1342  0.2161
50845W        W93757  33.352  22.240  16.078  0.0525  0.1043  0.1441
50846W        W93758  32.956  20.898  16.849 -0.0973  0.1467 -0.0991
50847W        W93759  34.634  20.233  19.285  0.0678 -0.0560  0.2697
50848W        W93760  33.296  18.521  17.378  0.1446  0.2483 -0.1266
50849W        W93761  33.869  20.997  17.451 -0.1653 -0.3538  0.1221
50850W        W93762  32.824  18.946  19.107  0.2112  0.2068 -0.0470
50851W        W93763  32.698  17.451  18.901  0.0706 -0.0241 -0.3554
50852W        W93764  33.463  21.104  18.995  0.1853  0.3309  0.3233
50853W        W93765   0.439  19.672  18.608 -0.1437 -0.0755 -0.0474
50854W        W93766  33.318  18.842  17.808 -0.1021 -0.0870 -0.4254
50855W        W93767  33.364  19.504  18.128  0.0107  0.3135  0.0647
50856W        W93768  33.583  20.840  17.877  0.1084  0.0297  0.0825
50857W        W93769  33.967  19.044  17.009  0.1049  0.0461 -0.2991
50858W        W93770  34.390  20.893  17.451  0.1853 -0.1103 -0.0800
50859W        W93771  31.983  19.917  20.213  0.0374  0.2292  0.2059
50860W        W93772  32.434  19.278  19.021  0.0158  0.1354 -0.1719
50861W        W93773  32.561  19.094  18.140  0.3448  0.0225  0.2061
50862W        W93774   0.089  19.458  16.809  0.0457 -0.3961  0.1331
50863W        W93775   0.635  19.498  19.146  0.0134 -0.0507 -0.2290
50864W        W93776  33.661  21.805  19.725  0.0052 -0.0740  0.3197
50865W        W93777  33.728  20.410  17.429 -0.1872 -0.1142  0.1525
50866W        W93778  32.370  20.945  17.618 -0.0086  0.0195 -0.0021
50867W        W93779  33.580  21.898  16.453 -0.1192 -0.0243  0.2630
50868W        W93780  33.157  19.329  19.152 -0.2140  0.0651 -0.0438
50869W        W93781  34.298  21.008  19.452  0.2673  0.0055 -0.1850
50870W        W93782  31.968  21.671  17.725 -0.0053  0.1210 -0.4750
50871W        W93783  33.933  21.022  19.052  0.1161  0.0409  0.1357
50872W        W93784  34.487  18.654  18.330 -0.0352  0.1079  0.0043
50873W        W93785  32.792  19.244  18.654  0.1351 -0.0479 -0.2799
50874W        W93786  32.101  18.593  18.920  0.1115 -0.1353 -0.1960
50875W        W93787  33.232  20.126  17.563  0.0849  0.0007 -0.2830
50876W        W93788  34.024  19.091  17.541  0.3596 -0.0576 -0.1243
50877W        W93789  33.700  19.857  18.267  0.2129 -0.0947 -0.0462
50878W        W93790  34.358  19.920  17.949 -0.1956  0.1329  0.0930
50879W        W93791  32.303  19.356  18.523  0.2595 -0.1318 -0.0685
50880W        W93792  33.782  20.601  16.248  0.2233  0.1983  0.1864
50881W        W93793  33.369  21.369  17.613  0.1012 -0.0898 -0.1233
50882W        W93794  32.841  18.270  19.595 -0.0304 -0.0639  0.3649
50883W        W93795  32.730  19.601  19.617 -0.0297 -0.1575 -0.0823
50884W        W93796  33.421  19.749  19.182 -0.0154 -0.3955 -0.3015
50885W        W93797  32.142  20.140  18.228  0.4387  0.0785  0.2968
50886W        W93798  33.980  19.323  15.954 -0.0055 -0.2500 -0.0600
50887W        W93799   0.171  22.517  16.012  0.4482 -0.2836  0.0849
50888W        W93800  31.683  18.872  19.270  0.1425  0.1574  0.1468
50889W        W93801  33.724  22.021  19.109 -0.0265 -0.1727  0.0900
50890W        W93802  32.432  18.420  17.384  0.1935 -0.3828 -0.0368
50891W        W93803  32.545  19.598  18.036 -0.3336 -0.1527 -0.1396
50892W        W93804  34.597  19.796  18.719  0.2824 -0.3082 -0.0268
50893W        W93805  34.065  18.614  17.444 -0.1745 -0.1492 -0.1623
50894W        W93806  32.810  21.670  18.795 -0.4725  0.1984 -0.0301
50895W        W93807  33.350  22.498  18.078  0.1023 -0.3169 -0.1084
50896W        W93808  32.239  21.491  21.128  0.2946  0.1112  0.2999
50897W        W93809   0.825  21.102  17.820  0.0510  0.1292 -0.0290
50898W        W93810  34.293  19.588  17.071  0.0020 -0.0580 -0.3972
50899W        W93811  34.185  20.949  18.454 -0.0320 -0.0771  0.0190
50900W        W93812  34.605  20.985  17.877 -0.1592 -0.0263 -0.0972
50901W        W93813  31.974  19.172  19.728 -0.1671  0.0928  0.1987
50902W        W93814  32.300  18.057  18.149  0.4291  0.0285  0.0271
50903W        W93815  32.688  21.129  20.804 -0.1621 -0.2824  0.0572
50904W        W93816  31.869  20.174  19.638  0.3089  0.2110  0.0221
50905W        W93817  33.520  22.171  17.338  0.1289 -0.2184  0.2915
50906W        W93818   0.217  18.951  16.996  0.3929  0.2402  0.0593
50907W        W93819  32.742  20.501  17.720  0.0616  0.1329 -0.0764
50908W        W93820  33.669  21.240  17.026 -0.1205  0.1363  0.0201
50909W        W93821  34.186  21.905  18.894 -0.1254 -0.3054  0.0267
50910W        W93822  33.583  20.264  17.958  0.3013  0.0524 -0.0362
50911W        W93823  34.386  18.862  16.745 -0.1522 -0.3267 -0.0458
50912W        W93824  33.871  20.183  19.047  0.1496  0.1301  0.0182
50913W        W93825  31.749  21.072  19.881 -0.0742 -0.2289 -0.1638
50914W        W93826  32.278  19.710  16.980  0.3407  0.0524 -0.0505
50915W        W93827   0.213  19.048  18.059  0.1811  0.0254  0.3069
50916W        W93828  34.408  19.549  16.096  0.0667 -0.0328 -0.0808
50917W        W93829  33.251  22.994  17.178 -0.3032 -0.1114 -0.0553
50918W        W93830   0.150  18.983  19.093 -0.0618  0.2345  0.0858
50919W        W93831  34.684  21.476  17.852 -0.2988 -0.0312  0.1831
50920W        W93832  31.710  19.251  17.534  0.2253  0.0295 -0.0480
50921W        W93833  33.247  20.096  20.259 -0.0997  0.0366 -0.1969
50922W        W93834  33.529  20.001  17.197  0.1846 -0.0719  0.0278
50923W        W93835  31.958  18.802  17.738  0.0861  0.1496  0.0202
50924W        W93836   0.051  19.229  16.385 -0.0754  0.2557 -0.1406
50925W        W93837  32.768  17.878  18.165  0.0266  0.0754  0.1449
50926W        W93838  33.839  21.708  17.550  0.1651  0.0283  0.0888
50927W        W93839  33.095  19.967  18.081  0.0448  0.0709 -0.0490
50928W        W93840  32.103  18.339  17.777  0.2748  0.2418 -0.0143
50929W        W93841  34.571  21.289  16.765 -0.0652 -0.0851  0.1572
50930W        W93842  31.684  17.961  18.740 -0.1889  0.3763 -0.2283
50931W        W93843  33.743  18.247  18.220  0.0464 -0.0330 -0.0423
50932W        W93844  33.408  20.238  18.461 -0.5796 -0.1454  0.3025
50933W        W93845  32.682  20.611  18.699 -0.4437  0.2585 -0.3166
50934W        W93846  33.730  22.529  16.524  0.2659 -0.3825  0.2205
50935W        W93847   0.356  20.373  19.074 -0.2434 -0.2534 -0.0873
50936W        W93848   0.066  21.643  18.883 -0.0520 -0.2801  0.3007
50937W        W93849  34.249  19.865  16.634  0.0645 -0.2598  0.2299
50938W        W93850  34.690  19.298  18.478  0.0177  0.0086  0.1145
50939W        W93851  33.454  20.929  16.658  0.0968  0.0796  0.0782
50940W        W93852  33.478  21.390  16.568 -0.2711 -0.1223  0.2933
50941W        W93853   1.752  18.852  17.089  0.2677 -0.0627 -0.1239
50942W        W93854  34.022  18.590  16.832 -0.0387 -0.1086  0.1121
50943W        W93855  32.759  19.619  19.054  0.2603 -0.3740  0.2952
50944W        W93856  33.142  19.963  16.924  0.0539  0.2948  0.1093
50945W        W93857  33.402  20.351  16.338 -0.4045 -0.0172  0.2043
50946W        W93858  31.495  21.261  19.469 -0.2371 -0.2874  0.1152
50947W        W93859  33.799  17.832  19.904  0.3544  0.0078  0.3830
50948W        W93860  32.466  19.198  19.705 -0.1894 -0.0248  0.0309
50949W        W93861  34.150  20.480  17.686  0.2328 -0.0133 -0.1738
50950W        W93862  33.782  18.808  17.966 -0.0419 -0.2906  0.1583
50951W        W93863  32.065  18.291  18.557  0.1863 -0.3610 -0.2572
50952W        W93864  32.742  16.846  16.972 -0.1020 -0.4710 -0.0752
50953W        W93865   0.615  18.731  18.424  0.0230  0.0687  0.0357
50954W        W93866  33.088  19.062  16.864 -0.3706 -0.0352 -0.2993
50955W        W93867  33.880  20.768  20.392  0.0652 -0.1123 -0.0310
50956W        W93868  34.042  18.259  19.228 -0.1998  0.0003  0.0552
50957W        W93869  33.515  19.253  16.995  0.2408 -0.0015  0.5046
50958W        W93870   0.006  19.547  19.895 -0.1393  0.4901 -0.1693
50959W        W93871  33.306  20.208  18.963  0.0351 -0.0578  0.1574
50960W        W93872   0.232  21.864  20.017  0.1536  0.0235  0.3910
50961W        W93873  33.395  17.904  18.834  0.0932  0.1329 -0.2223
50962W        W93874   0.252  20.124  18.665  0.0060 -0.2490 -0.1599
50963W        W93875  33.157  18.216  17.857 -0.2191  0.2293 -0.1633
50964W        W93876  34.330  20.134  18.928  0.2477 -0.1597 -0.1131
50965W        W93877  32.895  18.618  17.118  0.1801 -0.3168 -0.0808
50966W        W93878  32.435  18.707  17.860  0.1627  0.1174 -0.0579
50967W        W93879  33.852  19.530  17.338 -0.2938  0.0098  0.0493
50968W        W93880   0.316  20.740  17.990  0.4286 -0.1600  0.2012
50969W        W93881  32.892  18.189  17.366 -0.0474 -0.0532  0.0239
50970W        W93882  32.129  19.669  18.906 -0.1885 -0.0136 -0.0781
50971W        W93883  33.334  18.285  19.777 -0.4884  0.0332  0.2212
50972W        W93884  33.276  19.587  17.374 -0.2505 -0.1793  0.0515
50973W        W93885  34.361  19.506  17.560  0.2811 -0.1224 -0.2448
50974W        W93886  33.076  19.143  18.233 -0.0429 -0.0956 -0.0500
50975W        W93887   0.309  21.152  18.777  0.1025  0.0115  0.2003
50976W        W93888  33.759  21.045  23.158  0.2512 -0.2937  0.0760
50977W        W93889  33.661  21.057  21.707  0.2806  0.2274 -0.3663
50978W        W93890  33.574  19.436  22.272 -0.0645 -0.1098  0.1604
50979W        W93891  34.068  18.126  23.578 -0.2283 -0.0008 -0.0845
50980W        W93892   0.287  18.844  22.489 -0.2728 -0.2041  0.0827
50981W        W93893   0.666  21.663  21.612 -0.0409 -0.2073 -0.0373
50982W        W93894  34.414  18.147  21.139 -0.1328 -0.2169 -0.0080
50983W        W93895  33.031  17.953  22.014 -0.0486 -0.0075 -0.2223
50984W        W93896  32.817  19.500  20.480  0.0066 -0.0677  0.1049
50985W        W93897  33.918  19.188  22.485  0.0020 -0.1380 -0.3640
50986W        W93898   1.315  18.739  21.049  0.1460 -0.0883  0.2102
50987W        W93899   0.061  19.616  22.673  0.0660  0.0418 -0.3269
50988W        W93900  34.616  21.256  19.782 -0.1986 -0.3222 -0.0669
50989W        W93901  32.261  19.769  19.827 -0.0450  0.0299  0.3920
50990W        W93902  32.457  19.463  22.255  0.0154  0.1158  0.2520
50991W        W93903  33.682  21.706  22.436  0.1262  0.1363  0.3212
50992W        W93904   1.047  21.197  21.706  0.0597 -0.0277 -0.0234
50993W        W93905   0.414  20.520  22.828  0.1128 -0.0295 -0.1014
50994W        W93906  32.796  18.843  21.709 -0.0463  0.1006 -0.0490
50995W        W93907  32.503  21.304  21.816 -0.1672  0.0488  0.0670
50996W        W93908  33.944  21.585  21.100 -0.0175 -0.0008  0.0060
50997W        W93909   0.803  22.332  23.058  0.3859 -0.1033  0.1096
50998W        W93910  33.039  22.209  20.183 -0.1731 -0.0232  0.1513
50999W        W93911   1.178  22.067  23.258  0.0630 -0.0862  0.1849
51000W        W93912  33.966  21.102  21.294  0.0192  0.0994 -0.1362
51001W        W93913  33.944  19.942  20.755 -0.0447  0.3657  0.0229
51002W        W93914  33.821  21.297  23.752 -0.1043  0.0535 -0.1970
51003W        W93915  34.505  20.495  22.363  0.0944  0.2879 -0.1062
51004W        W93916  34.388  20.680  20.509  0.1591 -0.0105  0.3110
51005W        W93917  34.065  18.973  20.325  0.2538 -0.1189 -0.2302
51006W        W93918  34.086  18.424  20.303  0.2041 -0.2186 -0.1219
51007W        W93919  34.036  22.019  22.671 -0.4543  0.1936 -0.0704
51008W        W93920   0.205  20.665  23.592  0.0690  0.0620 -0.1486
51009W        W93921   0.630  22.182  22.583  0.0092 -0.2589  0.1724
51010W        W93922  33.716  19.696  21.885 -0.0531  0.1334 -0.0041
51011W        W93923  32.760  21.152  21.316 -0.1011 -0.2167 -0.0113
51012W        W93924  32.264  20.103  23.218 -0.1787 -0.2147  0.0687
51013W        W93925  32.558  19.765  22.643  0.3097 -0.0175 -0.0493
51014W        W93926  34.223  18.126  19.813  0.3603 -0.1322 -0.0716
51015W        W93927  34.214  20.876  22.311 -0.0095 -0.0235  0.1352
51016W        W93928   1.011  19.194  21.721 -0.2022 -0.0353 -0.0985
51017W        W93929  33.308  20.622  20.404 -0.3153  0.0834 -0.2537
51018W        W93930  33.240  19.609  20.209 -0.1058  0.3194  0.0580
51019W        W93931  33.927  23.486  23.236 -0.2382 -0.0717  0.4480
51020W        W93932  34.080  19.111  23.142 -0.0681 -0.1795  0.2244
51021W        W93933   0.824  19.925  23.378 -0.1987  0.0252  0.1298
51022W        W93934  33.744  22.203  20.657 -0.2468  0.2069 -0.2793
51023W        W93935  33.509  20.481  22.331 -0.1106 -0.0776 -0.0103
51024W        W93936  33.134  20.971  21.018  0.3660  0.0609  0.2133
51025W        W93937  33.662  18.548  22.280 -0.0916  0.1727  0.0932
51026W        W93938   0.545  21.221  21.879 -0.1151 -0.3219  0.1022
51027W        W93939  34.130  18.314  22.570  0.1072 -0.2957  0.3540
51028W        W93940  33.566  21.253  21.017  0.2858  0.1433  0.2734
51029W        W93941  32.843  19.983  22.118 -0.3175  0.1994  0.2525
51030W        W93942  34.299  19.492  22.248 -0.2119  0.0577 -0.1023
51031W        W93943  33.886  19.733  22.828  0.0546 -0.0046  0.0487
51032W        W93944  34.064  18.251  21.997  0.1663 -0.4346  0.0542
51033W        W93945  32.916  18.920  20.444 -0.2296  0.1183  0.1670
51034W        W93946   0.283  19.336  22.335 -0.1705 -0.0163 -0.0365
51035W        W93947  34.084  20.378  20.845 -0.1559  0.0413  0.0326
51036W        W93948  33.325  19.732  22.633  0.0750 -0.0703 -0.1765
51037W        W93949  31.562  20.248  20.063 -0.0351  0.2209  0.3725
51038W        W93950  34.372  21.536  21.607 -0.1643  0.1060  0.1148
51039W        W93951  34.565  20.134  21.119  0.0305 -0.1781 -0.0706
51040W        W93952  32.883  20.128  20.660  0.1546  0.2493 -0.0694
51041W        W93953  33.027  20.705  23.953  0.1407 -0.0869 -0.1678
51042W        W93954  32.460  18.965  20.212  0.2161  0.0915 -0.1773
51043W        W93955  34.216  21.671  20.599 -0.0061  0.1822  0.0708
51044W        W93956  32.630  20.655  21.365 -0.2111 -0.1585  0.0233
51045W        W93957   0.182  21.417  20.142  0.0134  0.2881  0.0939
51046W        W93958  34.046  20.259  23.616  0.1087  0.3285  0.3493
51047W        W93959  33.005  20.195  19.851 -0.2747 -0.3282 -0.1129
51048W        W93960   0.393  19.939  22.997 -0.0890 -0.2897  0.0153
51049W        W93961   0.025  20.893  22.596 -0.0533  0.2182  0.0878
51050W        W93962  34.217  20.812  20.009 -0.2880  0.2353  0.1316
51051W        W93963   0.373  21.747  22.683  0.2821  0.1955 -0.4206
51052W        W93964  34.260  20.017  22.150 -0.1430 -0.2070  0.3167
51053W        W93965   0.160  18.089  23.271 -0.0182  0.0356 -0.1992
51054W        W93966  33.567  20.296  19.965  0.0115  0.1149  0.2179
51055W        W93967  32.658  21.359  20.256  0.0259  0.1484 -0.0772
51056W        W93968  34.049  19.654  23.359  0.1829 -0.2304  0.0157
51057W        W93969  32.235  20.047  19.301  0.1920 -0.0329 -0.0824
51058W        W93970  33.343  18.473  23.459  0.0205 -0.1533 -0.1898
51059W        W93971  32.525  20.018  24.683  0.1766 -0.2636  0.0400
51060W        W93972  33.795  20.744  22.714 -0.1573 -0.0983 -0.2660
51061W        W93973   0.166  19.210  24.178  0.0039 -0.1028  0.0888
51062W        W93974  33.478  22.016  21.439 -0.0350  0.0730  0.1585
51063W        W93975  34.672  20.596  20.932 -0.1251 -0.3497 -0.1994
51064W        W93976   0.371  17.740  22.623 -0.0864 -0.1841  0.0222
51065W        W93977   0.896  21.746  22.682  0.0909 -0.1754  0.4301
51066W        W93978  34.066  21.428  19.693  0.1437 -0.0633  0.0395
51067W        W93979   0.320  22.297  20.208 -0.0220 -0.0541 -0.0705
51068W        W93980  33.182  20.912  22.107 -0.0453  0.5965  0.1271
51069W        W93981  34.009  19.179  19.850  0.0168 -0.4330 -0.0948
51070W        W93982  31.672  18.948  21.865 -0.1250 -0.4024 -0.0965
51071W        W93983  34.587  17.734  22.485  0.0210  0.1317 -0.0258
51072W        W93984  34.331  19.891  22.613  0.1513  0.0210  0.2011
51073W        W93985  33.515  21.856  22.887  0.0455 -0.3826  0.0336
51074W        W93986  32.305  19.929  22.142 -0.0330 -0.3566  0.0348
51075W        W93987  33.678  20.725  20.946  0.0159  0.0013 -0.0181
51076W        W93988  33.473  19.049  21.107  0.4087  0.1042 -0.2557
51077W        W93989  34.447  20.006  21.693  0.0993  0.0554 -0.1480
51078W        W93990  32.191  20.029  21.184  0.1374  0.0672  0.0957
51079W        W93991  34.142  20.890  20.853 -0.1271  0.0264 -0.2158
51080W        W93992  32.854  20.002  23.587 -0.0010 -0.0265 -0.1684
51081W        W93993   0.401  19.499  23.414  0.2319  0.0680 -0.1199
51082W        W93994  32.822  19.227  21.383 -0.0949 -0.1661 -0.0930
51083W        W93995  33.240  19.286  20.784 -0.1469 -0.2907  0.0113
51084W        W93996  34.273  19.462  22.869  0.2085 -0.1675 -0.0938
51085W        W93997  34.489  21.114  24.272 -0.3733  0.0214 -0.1339
51086W        W93998  33.724  19.913  20.282  0.3812 -0.1254  0.1580
51087W        W93999  33.214  19.983  23.121 -0.0558 -0.4209  0.1014
51088W        W94000  33.623  21.580  20.472 -0.3348  0.0383 -0.1069
51089W        W94001  33.711  17.733  23.669  0.0097 -0.0338  0.0191
51090W        W94002  33.170  20.831  21.558  0.0004 -0.0213  0.2741
51091W        W94003  34.080  22.582  20.879  0.2281  0.1727 -0.0300
51092W        W94004  32.715  22.076  22.307  0.2433 -0.1225 -0.0076
51093W        W94005   1.357  19.009  21.445 -0.5411  0.4386  0.0981
51094W        W94006  33.409  17.308  21.262 -0.2436 -0.1399  0.2210
51095W        W94007  33.368  18.748  22.865 -0.1974 -0.1757  0.0761
51096W        W94008  33.839  21.030  24.904 -0.1859 -0.0121 -0.1486
51097W        W94009  33.179  18.779  19.973 -0.0298 -0.2602  0.1864
51098W        W94010   0.290  20.054  21.835 -0.1910 -0.2300  0.1242
51099W        W94011  33.963  21.458  19.178  0.1801 -0.5620 -0.2182
51100W        W94012  33.444  20.548  21.870  0.1353  0.0529  0.3756
51101W        W94013  34.555  20.217  20.634  0.1254 -0.0596  0.0124
51102W        W94014  34.173  21.055  21.802 -0.0776  0.0931  0.1142
51103W        W94015  33.711  17.531  23.043 -0.0713 -0.0520 -0.1420
51104W        W94016  34.085  20.582  23.197  0.0331 -0.1349 -0.4097
51105W        W94017  32.180  18.529  24.312 -0.1549  0.2053 -0.1698
51106W        W94018  33.639  17.946  22.719  0.3420  0.1792 -0.0061
51107W        W94019  33.536  17.421  19.523 -0.1196  0.0270 -0.1940
51108W        W94020   0.000  22.918  20.936 -0.2321  0.3243 -0.0800
51109W        W94021  33.243  19.102  21.615  0.2128 -0.2558  0.2390
51110W        W94022  33.007  22.177  24.364  0.1832 -0.0385 -0.0919
51111W        W94023  33.136  18.576  19.348 -0.1752 -0.2238  0.2744
51112W        W94024  34.627  20.454  18.741 -0.1009 -0.2609 -0.1976
51113W        W94025   0.868  20.314  22.884  0.1214  0.3134  0.0687
51114W        W94026  33.406  19.026  20.380 -0.3882  0.2519 -0.0471
51115W        W94027  33.922  21.276  20.619  0.0258 -0.2607  0.2122
51116W        W94028  33.414  21.199  23.549 -0.1659 -0.1294  0.2284
51117W        W94029  33.030  20.441  22.233 -0.0735 -0.1749 -0.0685
51118W        W94030  34.496  20.979  21.297 -0.0454  0.0432  0.0717
51119W        W94031   0.371  20.820  21.583  0.0801 -0.1521 -0.1917
51120W        W94032  34.413  20.614  21.816 -0.0184  0.3209 -0.1475
51121W        W94033   0.425  20.337  22.352 -0.0680  0.1777 -0.0528
51122W        W94034  31.394  19.555  23.691  0.1409  0.3537  0.0623
51123W        W94035  33.226  18.910  22.301 -0.3151 -0.1219  0.2033
51124W        W94036  33.007  20.660  24.463  0.1492 -0.0536 -0.1687
51125W        W94037  32.644  20.547  23.303  0.3981 -0.2875  0.4531
51126W        W94038  34.616  21.999  20.513 -0.0155 -0.2003 -0.3478
51127W        W94039  33.674  19.623  19.852  0.2665  0.0074  0.0827
51128W        W94040   0.011  20.385  21.497  0.0918 -0.0327  0.1297
51129W        W94041  33.129  22.038  18.804  0.1120  0.4623  0.4307
51130W        W94042  34.353  22.851  21.316 -0.0271  0.1280 -0.1085
51131W        W94043   0.615  19.819  21.544 -0.1263  0.0805 -0.5426
51132W        W94044  33.307  18.515  20.384  0.1253  0.1047  0.1390
51133W        W94045  34.227  21.413  24.623  0.2701  0.2310  0.2811
51134W        W94046  34.230  20.851  22.812  0.3296  0.0121  0.1843
51135W        W94047  33.787  19.482  20.967  0.1877 -0.0748 -0.1962
51136W        W94048  33.716  20.144  21.121 -0.1480 -0.6488  0.2646
51137W        W94049   0.065  20.756  19.232  0.0009 -0.0662 -0.1194
51138W        W94050  32.990  21.625  22.182 -0.1700  0.2097  0.1247
51139W        W94051   0.241  19.855  21.254  0.0673 -0.0778  0.3361
51140W        W94052   0.209  21.990  22.323  0.2522  0.1146  0.1637
51141W        W94053  32.743  19.188  20.897  0.2561  0.1602 -0.0884
51142W        W94054  32.964  19.821  21.550 -0.1013 -0.4080 -0.0803
51143W        W94055  33.714  18.603  20.639  0.3610 -0.0939  0.0014
51144W        W94056  32.025  19.602  22.455 -0.2892 -0.2919  0.1941
51145W        W94057  34.620  20.373  20.149 -0.2437  0.1929 -0.3006
51146W        W94058  33.735  17.785  21.216 -0.1285  0.0386 -0.2194
51147W        W94059  33.722  20.550  21.473  0.0039 -0.1784  0.0452
51148W        W94060  34.435  19.551  21.520  0.0986  0.2061 -0.1815
51149W        W94061  33.904  18.213  20.934  0.1356 -0.2607  0.1533
51150W        W94062   0.083  21.569  20.643  0.0127 -0.0115  0.0506
51151W        W94063  32.031  18.807  23.308 -0.2688  0.1210  0.0889
51152W        W94064  34.681  18.810  20.955  0.0562 -0.0857 -0.1039
51153W        W94065   0.073  18.913  21.540 -0.2004  0.0528 -0.0080
51154W        W94066  33.577  22.520  20.243 -0.2645  0.0108 -0.0443
51155W        W94067  34.602  21.781  21.172  0.1312  0.0280  0.0119
51156W        W94068   0.411  22.546  22.289  0.2680 -0.0156  0.0836
51157W        W94069  33.871  22.131  25.034 -0.1300 -0.0971 -0.3933
51158W        W94070  33.607  20.252  20.561  0.2792  0.2796 -0.1120
51159W        W94071   0.342  20.003  23.553  0.1110 -0.0534  0.3811
51160W        W94072   0.161  19.946  20.230 -0.2956  0.0246 -0.3216
51161W        W94073   0.180  22.098  21.462  0.0873  0.1710 -0.1873
51162W        W94074  33.749  19.250  21.472 -0.2841  0.0578 -0.1702
51163W        W94075  33.474  19.263  22.736 -0.2388  0.1060  0.2019
51164W        W94076   0.248  22.418  22.888  0.0485 -0.0143 -0.1316
51165W        W94077  33.241  19.478  21.239  0.0057 -0.0668 -0.3425
51166W        W94078  33.135  21.399  20.607  0.1493 -0.1340  0.0553
51167W        W94079  33.957  20.501  22.050  0.3106  0.0086  0.3194
51168W        W94080  33.148  16.826  23.950 -0.0761  0.0116  0.0053
51169W        W94081  34.291  18.250  23.017 -0.1742 -0.3332  0.0082
51170W        W94082  33.893  20.091  21.703 -0.0115  0.1122  0.0534
51171W        W94083  32.782  18.349  21.599 -0.1092 -0.0817  0.1159
51172W        W94084  33.652  19.004  22.054 -0.2449  0.2404 -0.1627
51173W        W94085  32.674  17.683  22.408  0.0743  0.2694  0.2648
51174W        W94086   0.619  18.796  21.639 -0.3766 -0.1317 -0.0219
51175W        W94087  32.329  20.273  19.979  0.1449 -0.2436 -0.2700
51176W        W94088  34.509  20.460  24.398  0.0561 -0.0171  0.0239
51177W        W94089  34.357  19.336  23.534 -0.0722 -0.0990  0.1080
51178W        W94090  32.423  19.503  20.204 -0.0063 -0.0779  0.1055
51179W        W94091  33.649  19.733  21.404 -0.0800 -0.0799  0.0710
51180W        W94092   0.066  19.972  22.316 -0.1246 -0.1789 -0.2096
51181W        W94093   1.137  22.101  24.539  0.0376  0.0671 -0.4334
51182W        W94094  31.875  17.357  22.521  0.3549  0.2655 -0.0679
51183W        W94095   1.287  21.740  23.672  0.0012  0.2519 -0.0065
51184W        W94096  32.811  17.616  23.305 -0.3174 -0.0719 -0.1099
51185W        W94097   0.585  19.787  22.536  0.1386 -0.1692 -0.0060
51186W        W94098  34.491  18.609  21.817 -0.1024  0.2337 -0.2927
51187W        W94099  33.217  19.577  21.896 -0.2081 -0.4375 -0.0266
51188W        W94100  33.929  19.032  20.837  0.1428 -0.2311  0.1955
51189W        W94101  34.488  19.964  23.648 -0.0464 -0.2121  0.1014
51190W        W94102  34.465  19.122  20.061  0.1503  0.0510  0.2003
51191W        W94103   0.605  21.302  22.668 -0.1113  0.1157 -0.1750
51192W        W94104  32.763  18.950  23.966 -0.1390  0.1466  0.0688
51193W        W94105  34.154  19.907  21.258 -0.1358  0.0771  0.0432
51194W        W94106  34.101  20.285  20.323 -0.3130  0.1729 -0.3087
51195W        W94107  34.118  18.952  21.632  0.1476 -0.0643 -0.2350
51196W        W94108  34.565  21.824  22.886  0.1814  0.1654  0.3944
51197W        W94109  33.466  22.769  27.112 -0.0484 -0.1417  0.3360
51198W        W94110  33.353  18.452  25.325 -0.3919  0.2065 -0.0293
51199W        W94111  31.999  18.169  24.784  0.1481 -0.1162 -0.2794
51200W        W94112  34.033  18.862  27.455  0.2125 -0.0484  0.0747
51201W        W94113  33.762  19.755  27.290 -0.4178 -0.1073 -0.0785
51202W        W94114  33.584  21.613  27.002 -0.0118  0.1055 -0.0014
51203W        W94115  34.613  18.750  25.523  0.0215 -0.1651 -0.2636
51204W        W94116  33.329  17.926  25.222 -0.0733  0.1646  0.0526
51205W        W94117  34.646  20.315  23.361 -0.0660  0.1868 -0.2439
51206W        W94118  33.487  21.011  27.660  0.1706 -0.0263  0.1193
51207W        W94119  32.755  19.294  23.613 -0.0722  0.1159 -0.4544
51208W        W94120  34.105  18.201  26.291  0.0119  0.0688 -0.1144
51209W        W94121   0.444  22.362  24.426  0.1168 -0.1947  0.3335
51210W        W94122  33.189  19.430  23.485  0.3048  0.0373  0.3411
51211W        W94123  33.742  18.888  23.961 -0.3432  0.3133 -0.1003
51212W        W94124  33.943  20.131  26.977  0.1743 -0.0252  0.3197
51213W        W94125  33.726  22.478  26.834 -0.0794  0.2603  0.4058
51214W        W94126  34.636  20.306  27.292  0.1072  0.0479 -0.1592
51215W        W94127  33.740  21.755  25.910 -0.0983  0.0707  0.2896
51216W        W94128  33.488  21.939  24.286  0.0182 -0.1546  0.1980
51217W        W94129   0.225  22.459  26.108 -0.0684 -0.0763  0.2670
51218W        W94130  33.913  21.728  28.839  0.1611  0.1973  0.2678
51219W        W94131  33.258  21.743  24.910 -0.1102  0.2382  0.2027
51220W        W94132  34.383  22.454  27.575  0.1936 -0.0406 -0.0818
51221W        W94133   0.228  20.501  25.266 -0.2152  0.1605 -0.0072
51222W        W94134   0.609  21.633  26.271 -0.0405 -0.2587 -0.0272
51223W        W94135  33.841  22.671  28.194  0.0360 -0.0555  0.3028
51224W        W94136  33.943  20.636  26.948 -0.3106  0.0701  0.3050
51225W        W94137  33.731  21.745  24.713  0.3224  0.1146  0.3022
51226W        W94138  33.676  19.357  23.627  0.1061  0.0405  0.1061
51227W        W94139  33.553  19.457  26.444 -0.0905 -0.4686 -0.0663
51228W        W94140  33.934  22.601  25.866 -0.1202  0.0882  0.5033
51229W        W94141  32.830  19.650  25.591 -0.2915 -0.0616 -0.3820
51230W        W94142  31.699  23.187  26.510  0.0882  0.1140  0.2490
51231W        W94143  33.546  19.990  25.050 -0.0738  0.2868  0.0149
51232W        W94144  33.330  19.622  23.918 -0.0272  0.1346  0.1340
51233W        W94145  33.490  21.514  27.872 -0.1067  0.3347  0.1500
51234W        W94146  33.131  20.705  28.078  0.1807  0.0355 -0.1952
51235W        W94147  32.606  17.990  23.703  0.0875 -0.0223  0.2261
51236W        W94148  33.671  21.245  26.108  0.1204 -0.1765  0.1574
51237W        W94149  34.143  20.873  26.447 -0.0761 -0.1644  0.1077
51238W        W94150  33.511  21.348  22.034 -0.2467 -0.0465 -0.3297
51239W        W94151   0.455  21.712  23.609  0.3422 -0.1160 -0.2564
51240W        W94152  33.605  22.348  26.364 -0.0863 -0.5310 -0.0182
51241W        W94153   0.074  19.569  27.186 -0.1571  0.0134 -0.0137
51242W        W94154   0.464  20.409  26.776 -0.3597  0.1258  0.1283
51243W        W94155  33.009  21.385  25.232 -0.0185  0.0051  0.1110
51244W        W94156  33.297  20.371  25.342  0.0142  0.0740 -0.0256
51245W        W94157  33.460  20.688  23.565 -0.1199 -0.0434 -0.0608
51246W        W94158  33.987  19.148  24.670  0.1006 -0.0854 -0.3579
51247W        W94159  33.954  21.168  26.853 -0.2543 -0.2750 -0.2513
51248W        W94160  32.809  18.409  27.986  0.0049  0.1557 -0.3445
51249W        W94161  34.689  21.753  25.182  0.1409  0.4317 -0.1444
51250W        W94162  33.493  19.933  26.821 -0.0313 -0.2853 -0.2621
51251W        W94163  32.514  19.177  24.860  0.3796 -0.0492  0.5008
51252W        W94164  33.974  19.605  27.725 -0.0555 -0.1091  0.0532
51253W        W94165  32.904  19.794  26.889  0.2012 -0.0021 -0.4053
51254W        W94166  33.736  17.585  24.700  0.1994  0.1593 -0.0546
51255W        W94167  33.543  20.568  24.294 -0.1341 -0.2028  0.0419
51256W        W94168  31.554  20.618  25.363 -0.0466 -0.1835 -0.0970
51257W        W94169  34.007  20.578  28.340 -0.0931 -0.1589 -0.1592
51258W        W94170  33.036  18.826  24.417 -0.2004  0.0747 -0.2015
51259W        W94171  34.162  22.498  25.104  0.2044  0.0221 -0.0161
51260W        W94172   0.064  21.497  26.725  0.1489 -0.0961  0.2650
51261W        W94173  33.932  21.032  24.441  0.0546 -0.0408  0.2255
51262W        W94174  32.456  19.564  26.701  0.1619  0.1765 -0.1909
51263W        W94175  33.649  18.434  24.348  0.1486 -0.3483  0.2196
51264W        W94176  33.473  22.666  25.628 -0.0800 -0.3250 -0.1405
51265W        W94177  33.535  19.307  25.391 -0.3754 -0.0378 -0.1878
51266W        W94178   0.568  22.733  27.275  0.0002 -0.0897  0.2253
51267W        W94179  33.070  21.997  27.636 -0.3121  0.0960 -0.0982
51268W        W94180  33.971  20.525  24.563  0.0219 -0.1819 -0.0099
51269W        W94181  33.901  22.106  25.536  0.1094  0.0310 -0.4183
51270W        W94182  32.636  22.374  27.544  0.2165  0.2629  0.0083
51271W        W94183   0.498  20.942  25.658 -0.1627  0.0380 -0.2160
51272W        W94184   0.723  20.928  26.989  0.1663 -0.0832 -0.1561
51273W        W94185  33.939  20.794  26.014  0.1761  0.1705  0.1120
51274W        W94186   0.056  17.966  26.587  0.3645  0.1490 -0.1161
51275W        W94187  34.603  19.789  23.216 -0.3123  0.0979 -0.0610
51276W        W94188  34.330  21.805  24.885  0.0867  0.0340 -0.2099
51277W        W94189  34.028  18.616  26.566 -0.0408 -0.0131 -0.0440
51278W        W94190  32.628  19.689  25.021 -0.0433  0.0335 -0.4144
51279W        W94191   1.673  17.855  27.217 -0.3495  0.0846 -0.0571
51280W        W94192  32.996  21.097  27.372  0.1343 -0.0405 -0.3548
51281W        W94193  33.130  20.452  26.157 -0.0186  0.1862 -0.1387
51282W        W94194   1.228  19.818  27.164  0.2383  0.1696  0.0379
51283W        W94195   0.045  21.384  24.791  0.1258 -0.1630 -0.0889
51284W        W94196   0.529  21.928  24.185 -0.0174  0.2651 -0.1390
51285W        W94197  33.746  19.481  25.981 -0.1598 -0.0461 -0.0661
51286W        W94198  34.502  22.084  27.001 -0.1061 -0.1921 -0.2565
51287W        W94199  34.287  20.840  23.593  0.2734  0.1046 -0.0104
51288W        W94200  33.431  22.060  25.230 -0.2876  0.3519 -0.0354
51289W        W94201  33.375  21.680  25.554 -0.0019  0.4080 -0.0515
51290W        W94202  33.599  20.184  22.806  0.1152 -0.0509  0.1390
51291W        W94203  33.268  19.795  25.373 -0.1417  0.0039 -0.1515
51292W        W94204  32.813  20.156  25.681 -0.1220  0.1428 -0.1895
51293W        W94205   0.670  18.995  25.842  0.1378  0.2223 -0.0251
51294W        W94206  34.234  20.874  25.626  0.1410 -0.2156 -0.1388
51295W        W94207  34.130  20.747  27.834  0.0165 -0.3137 -0.3253
51296W        W94208  32.787  18.384  24.733  0.2249 -0.1446  0.0979
51297W        W94209  32.999  19.771  26.106 -0.2237  0.1863 -0.0847
51298W        W94210  32.748  21.921  26.779 -0.2901  0.2915  0.0629
51299W        W94211  34.138  19.054  25.741 -0.1254 -0.3792 -0.1216
51300W        W94212  34.423  22.874  25.579  0.3022 -0.1171 -0.2578
51301W        W94213  34.221  19.198  28.401 -0.1183 -0.0445 -0.0653
51302W        W94214  34.476  20.027  26.363  0.2572  0.5855 -0.4035
51303W        W94215  33.502  19.401  24.900 -0.1040 -0.2042 -0.0014
51304W        W94216  34.660  20.374  26.769  0.2412 -0.2162 -0.0955
51305W        W94217   1.018  20.405  26.910  0.0278 -0.3113  0.1014
51306W        W94218  33.472  22.383  27.994 -0.1600 -0.0570  0.0414
51307W        W94219  34.264  20.040  24.768 -0.0154  0.2749 -0.1402
51308W        W94220  33.170  20.641  26.647 -0.4134  0.1663 -0.0468
51309W        W94221  34.689  22.293  24.260 -0.3397 -0.1147 -0.3416
51310W        W94222  34.411  19.946  26.931 -0.1904 -0.0613 -0.0437
51311W        W94223  33.714  19.824  25.470 -0.1166 -0.0773  0.0122
51312W        W94224   0.684  20.284  25.159  0.1557  0.0156  0.1733
51313W        W94225  33.506  20.762  25.772 -0.2737  0.0357 -0.0401
51314W        W94226   0.203  20.034  25.406  0.2004  0.1503 -0.0150
51315W        W94227  33.901  20.023  25.931  0.4584  0.0554  0.0439
51316W        W94228  32.318  20.003  26.901 -0.3039 -0.2014  0.1038
51317W        W94229  34.310  21.197  26.020  0.0886  0.1773  0.1008
51318W        W94230  33.759  18.656  24.920 -0.0438 -0.3119 -0.1327
51319W        W94231  34.496  20.423  27.767 -0.2099 -0.0585 -0.3101
51320W        W94232   0.920  21.390  23.721  0.2629 -0.1718 -0.0096
51321W        W94233  34.224  20.583  27.361  0.3010 -0.0096 -0.0850
51322W        W94234   0.126  21.019  23.951 -0.1744  0.2089  0.0881
51323W        W94235  34.523  21.334  25.588 -0.3366  0.0435 -0.0413
51324W        W94236   0.197  20.025  27.630 -0.0943  0.2300  0.1717
51325W        W94237  33.936  21.020  27.403  0.1547  0.3835 -0.1772
51326W        W94238  31.999  19.148  26.541  0.1371  0.3218 -0.1544
51327W        W94239  33.200  20.513  27.591  0.1235  0.0918  0.2066
51328W        W94240  33.767  19.854  23.842  0.0328 -0.0343 -0.1581
51329W        W94241   0.043  21.305  22.882  0.1321  0.4514  0.0809
51330W        W94242  33.454  18.988  23.284  0.0640  0.1293 -0.1912
51331W        W94243  33.647  21.507  28.415  0.1101 -0.0485  0.2641
51332W        W94244  33.365  18.590  23.979  0.1123 -0.1298 -0.1042
51333W        W94245   0.401  20.993  22.990 -0.2536  0.0684  0.0178
51334W        W94246   0.134  22.585  26.938 -0.0986  0.1938  0.0289
51335W        W94247  34.073  18.461  23.994  0.1780 -0.1787  0.1473
51336W        W94248  33.897  21.307  25.633 -0.2678 -0.0447  0.0061
51337W        W94249   0.060  23.428  26.474 -0.0950  0.1233  0.0776
51338W        W94250  32.697  20.860  26.556 -0.0421 -0.1828  0.1578
51339W        W94251  34.522  22.120  26.135 -0.0784  0.2392 -0.2763
51340W        W94252   0.960  21.211  24.232 -0.1700  0.2533 -0.4717
51341W        W94253  34.465  20.363  25.424 -0.1481  0.1595 -0.0253
51342W        W94254  33.645  21.791  26.380  0.0545  0.0818 -0.2114
51343W        W94255  33.336  19.969  27.564  0.0630  0.0178  0.3324
51344W        W94256  33.312  19.487  24.451  0.0881  0.1023 -0.4211
51345W        W94257  33.637  23.182  28.095  0.1328 -0.0778 -0.3265
51346W        W94258  34.615  20.740  26.355 -0.0318 -0.0833  0.1175
51347W        W94259  32.471  21.433  25.227 -0.2013 -0.0722  0.1735
51348W        W94260   0.027  19.984  24.699 -0.0606 -0.2044 -0.1722
51349W        W94261   0.530  21.676  25.070 -0.1946  0.1257 -0.0367
51350W        W94262  33.974  22.170  26.093 -0.0830  0.0297 -0.0343
51351W        W94263  33.012  23.002  26.369  0.3654 -0.2855  0.0718
51352W        W94264   0.886  22.283  24.129 -0.0578  0.0262 -0.2331
51353W        W94265  34.169  18.752  22.746 -0.0834 -0.2193 -0.0062
51354W        W94266  34.207  20.060  28.036 -0.0384  0.1740 -0.3640
51355W        W94267  32.245  22.816  27.842  0.2470 -0.2261 -0.0687
51356W        W94268  32.619  18.021  25.537 -0.0769 -0.1582  0.2414
51357W        W94269  33.287  19.478  25.834  0.3150  0.1053 -0.3706
51358W        W94270   0.554  20.407  25.677  0.1011 -0.0614  0.0296
51359W        W94271  33.630  22.990  26.045  0.1163 -0.2139  0.3906
51360W        W94272  33.926  21.187  27.875 -0.1067 -0.1152 -0.3589
51361W        W94273  33.140  21.587  26.734 -0.0860 -0.0140  0.1601
51362W        W94274  31.504  19.044  24.573  0.0899  0.0310 -0.1920
51363W        W94275  34.167  20.081  27.422  0.1180  0.0248 -0.2949
51364W        W94276  34.165  20.372  26.591  0.2165 -0.2850 -0.2899
51365W        W94277  34.020  21.501  26.484  0.0247  0.2326  0.1597
51366W        W94278  32.532  20.440  24.376 -0.0007 -0.3048 -0.2361
51367W        W94279  32.755  18.850  26.041 -0.0725  0.0248  0.0954
51368W        W94280  33.000  19.920  24.400  0.0004 -0.1449 -0.2413
51369W        W94281  34.258  21.650  25.973 -0.0151 -0.0883 -0.0175
51370W        W94282  33.577  18.919  24.500 -0.3980  0.1334  0.1336
51371W        W94283  33.869  21.530  24.242 -0.2002  0.2105 -0.1208
51372W        W94284  33.318  18.909  25.167  0.0185 -0.1586 -0.1765
51373W        W94285  34.144  19.079  24.164  0.0659 -0.1589 -0.2028
51374W        W94286  33.866  18.709  26.060 -0.0733  0.0643  0.1669
51375W        W94287  32.690  23.277  24.409 -0.0090 -0.1082 -0.1071
51376W        W94288   0.456  22.030  23.125 -0.1349  0.0907 -0.0187
51377W        W94289   0.088  20.841  27.226  0.0235 -0.2046 -0.2997
51378W        W94290  34.645  21.411  30.177 -0.1003 -0.0746 -0.3887
51379W        W94291  34.009  20.655  24.015 -0.2704  0.1130  0.0185
51380W        W94292  34.427  21.026  27.579 -0.2590 -0.0407 -0.0824
51381W        W94293  34.599  20.407  24.940  0.0828  0.1087 -0.1705
51382W        W94294   0.228  21.900  24.659  0.0542  0.0212  0.1010
51383W        W94295   0.223  20.256  26.325  0.0827 -0.0300  0.1520
51384W        W94296  34.136  19.538  25.550 -0.1966  0.0283 -0.2588
51385W        W94297  33.952  21.576  27.527 -0.0653 -0.1687 -0.0011
51386W        W94298  32.812  17.740  25.949 -0.0772 -0.1529  0.3751
51387W        W94299  34.688  20.215  22.797 -0.2812 -0.2090  0.1421
51388W        W94300  34.698  20.794  25.628 -0.1572 -0.2219 -0.0736
51389W        W94301   0.625  18.599  27.364 -0.0885  0.0229  0.1060
51390W        W94302  34.106  19.186  26.281 -0.1639  0.2800  0.0763
51391W        W94303  33.945  19.621  25.068 -0.1536  0.0685  0.1898
51392W        W94304  33.598  20.104  24.436 -0.1269 -0.0352  0.1497
51393W        W94305  33.563  18.351  26.332 -0.3775 -0.1239 -0.1223
51394W        W94306  32.810  16.322  25.454 -0.1583 -0.0125 -0.2166
51395W        W94307  34.151  19.579  23.919 -0.3092  0.3524  0.0411
51396W        W94308  34.401  20.422  23.901 -0.1104 -0.3676  0.0728
51397W        W94309   0.267  19.258  29.045 -0.2018 -0.0875  0.1259
51398W        W94310  34.255  19.213  27.750  0.0974  0.0821 -0.2967
51399W        W94311  33.167  18.002  24.811  0.1421 -0.2230 -0.1595
51400W        W94312  34.650  19.546  25.535  0.0915  0.3517  0.2739
51401W        W94313   0.060  19.847  25.988 -0.1048  0.2357 -0.0588
51402W        W94314  34.511  21.734  27.354 -0.1976 -0.0988 -0.1842
51403W        W94315  32.869  17.522  27.380 -0.1150  0.0545 -0.3192
51404W        W94316  34.218  21.001  28.235 -0.1969 -0.3580  0.1258
51405W        W94317  34.172  19.786  28.483 -0.0300  0.2143 -0.3261
51406W        W94318  33.221  22.312  27.175  0.2100 -0.0721 -0.1695
51407W        W94319   0.207  18.303  25.149  0.1086  0.2950 -0.0504
51408W        W94320  33.672  20.837  26.406 -0.1756  0.0547 -0.0172
51409W        W94321  33.879  19.681  24.525  0.0316  0.1164 -0.1830
51410W        W94322   0.796  21.412  27.169  0.1202  0.2112  0.2741
51411W        W94323   0.093  19.290  24.730 -0.0671  0.0162  0.0987
51412W        W94324  34.524  23.034  24.906 -0.3650 -0.0845  0.0007
51413W        W94325  33.286  19.415  26.873 -0.1401 -0.5213  0.1167
51414W        W94326  34.222  21.169  25.218  0.1542 -0.1451 -0.1754
51415W        W94327  34.453  19.915  25.193 -0.0114  0.3125 -0.2591
51416W        W94328  32.802  19.338  27.062  0.1283 -0.1009  0.3666
51417W        W94329   0.007  23.052  27.112  0.0558  0.0182 -0.0938
51418W        W94330  32.904  20.504  31.058  0.1012  0.0407 -0.4561
51419W        W94331  32.140  20.104  27.498 -0.0376  0.1087  0.1759
51420W        W94332  33.820  19.074  27.934 -0.1734  0.3733  0.2313
51421W        W94333   0.022  17.826  29.722 -0.0170  0.3684 -0.1382
51422W        W94334   0.629  19.472  29.996 -0.1685 -0.1760 -0.0638
51423W        W94335   0.885  23.183  31.049  0.0248  0.3310  0.1021
51424W        W94336  34.462  18.587  27.622  0.0790  0.3178 -0.2638
51425W        W94337  32.570  20.025  29.486  0.0887  0.0325 -0.0733
51426W        W94338  33.085  20.686  28.808  0.2268  0.3492 -0.0457
51427W        W94339  34.364  19.072  29.818 -0.0210 -0.1106  0.0275
51428W        W94340  33.962  18.767  29.524  0.2065  0.0586  0.2393
51429W        W94341   1.384  20.086  28.827  0.0724 -0.0434 -0.1723
51430W        W94342   1.463  21.170  29.462  0.0172  0.2855  0.0188
51431W        W94343  31.928  18.199  25.377 -0.0377 -0.0044  0.1197
51432W        W94344  32.794  20.596  29.229 -0.1260 -0.0917 -0.0162
51433W        W94345  33.005  19.312  29.205 -0.1715  0.1140 -0.0330
51434W        W94346  32.709  21.529  29.645  0.0825  0.1009 -0.0436
51435W        W94347   0.341  20.278  31.034  0.0291 -0.0594  0.3535
51436W        W94348  31.365  22.153  28.431  0.1621 -0.2461  0.0218
51437W        W94349  33.075  22.182  29.427 -0.1519 -0.1377 -0.0948
51438W        W94350  33.484  21.408  29.534  0.4827 -0.0686  0.1947
51439W        W94351   0.948  19.596  31.009  0.1040  0.2628 -0.0300
51440W        W94352  33.737  22.071  27.198  0.1079 -0.1343 -0.2927
51441W        W94353   0.428  19.750  31.706  0.0127 -0.1345  0.0632
51442W        W94354  32.062  20.567  27.666 -0.1581  0.1121  0.3380
51443W        W94355  34.371  21.666  29.868 -0.2295  0.2213  0.0233
51444W        W94356  33.524  19.813  30.967 -0.0795 -0.2793  0.0605
51445W        W94357  32.806  21.016  28.983 -0.2427 -0.0130 -0.3287
51446W        W94358  32.005  22.407  29.125 -0.2096 -0.0467  0.0144
51447W        W94359  34.475  19.782  27.694  0.2189 -0.0246 -0.0537
51448W        W94360  34.193  18.159  28.081  0.0677 -0.0407 -0.0644
51449W        W94361  33.865  21.541  30.681  0.0989  0.0952 -0.1493
51450W        W94362  34.485  20.057  30.054 -0.3470  0.0072  0.2248
51451W        W94363  32.380  20.130  30.314  0.1197 -0.1409 -0.3403
51452W        W94364  33.438  19.591  28.615 -0.0880 -0.2140 -0.0911
51453W        W94365  32.772  20.912  28.403 -0.0355  0.0761  0.1455
51454W        W94366  32.210  21.541  31.166 -0.1695 -0.0721 -0.1215
51455W        W94367  31.036  19.628  30.953 -0.3105 -0.0048 -0.2364
51456W        W94368  34.127  17.729  26.502 -0.0176  0.0557 -0.2140
51457W        W94369  31.751  20.933  31.804 -0.0262 -0.1356 -0.3399
51458W        W94370  34.198  20.483  29.973  0.1359  0.3082 -0.2658
51459W        W94371   0.418  21.171  29.348 -0.2028 -0.0298  0.0819
51460W        W94372  34.230  20.115  29.159  0.1710  0.1868  0.0062
51461W        W94373  34.087  21.448  30.253 -0.3929  0.3651 -0.2699
51462W        W94374   0.259  19.143  29.910  0.0049 -0.0415  0.0596
51463W        W94375   1.691  21.365   0.744  0.1139  0.2131  0.1656
51464W        W94376  33.405  22.069  26.785 -0.1773  0.1233 -0.0164
51465W        W94377  32.074  20.551  30.081 -0.0610  0.2251  0.1894
51466W        W94378  32.783  22.161  28.566  0.1978 -0.0410 -0.1840
51467W        W94379  33.346  17.829  30.595  0.0065 -0.0522  0.3501
51468W        W94380  33.502  20.047  31.528 -0.0659  0.1044  0.0573
51469W        W94381  33.313  17.821  31.114 -0.0564 -0.0198  0.1928
51470W        W94382  32.542  20.676  29.642  0.1483 -0.0220  0.3063
51471W        W94383  33.133  17.785  29.577  0.2098 -0.0940 -0.0046
51472W        W94384  33.196  19.627  29.637 -0.3353  0.0185  0.0704
51473W        W94385  34.335  17.908  30.506  0.1941 -0.2355 -0.0327
51474W        W94386  32.957  19.673  30.913  0.0676 -0.2540  0.0413
51475W        W94387  33.247  19.196  27.763  0.3997 -0.2194  0.0459
51476W        W94388  33.526  20.559  29.186  0.0952  0.2180  0.1625
51477W        W94389  32.430  20.888  27.373 -0.1400  0.4076  0.3776
51478W        W94390  33.676  19.251  30.339  0.0109  0.1270 -0.1117
51479W        W94391  33.020  19.547  28.024  0.1703 -0.2112 -0.1387
51480W        W94392  33.767  22.959  29.497  0.3896 -0.0966 -0.0936
51481W        W94393  34.353  20.986  30.191  0.0585  0.2425  0.1982
51482W        W94394  33.775  18.547  28.039  0.2712  0.3671  0.2333
51483W        W94395  32.246  20.362  30.887 -0.1323  0.1439  0.0245
51484W        W94396  33.796  18.487  27.232 -0.2727 -0.4509 -0.3112
51485W        W94397  31.310  21.104  28.890 -0.1343 -0.0783  0.3200
51486W        W94398  32.894  20.606  27.165  0.3297 -0.0939  0.2781
51487W        W94399  33.378  20.401  29.745 -0.1022  0.1111 -0.1178
51488W        W94400  32.728  19.790  31.354  0.3400 -0.1512 -0.1503
51489W        W94401  32.923  20.088  27.823 -0.0051  0.0069  0.0968
51490W        W94402  32.336  20.132  31.511 -0.0015  0.2374 -0.0596
51491W        W94403  33.845  21.211  31.754 -0.1024 -0.0018 -0.2300
51492W        W94404   0.829  20.705  28.248  0.0526 -0.3281 -0.0061
51493W        W94405  33.689  20.065  29.274  0.0290 -0.1290  0.1842
51494W        W94406  31.156  20.595  30.303  0.4808  0.2355  0.1176
51495W        W94407  33.511  18.269  30.875 -0.3973 -0.1266  0.0523
51496W        W94408  33.348  20.229  27.990 -0.2020 -0.0227 -0.1614
51497W        W94409  33.077  22.318  28.923  0.0126 -0.1145 -0.1223
51498W        W94410   0.559  18.634  30.559  0.0492 -0.0939  0.2431
51499W        W94411  33.251  21.066  28.538 -0.0358 -0.2320  0.2575
51500W        W94412   0.864  19.062  30.708  0.2940 -0.1805 -0.3448
51501W        W94413  33.004  19.563  30.148  0.1155 -0.0992  0.0339
51502W        W94414  33.156  20.175  30.717  0.0438 -0.3710 -0.0100
51503W        W94415   1.911  19.923  31.296 -0.1269  0.4133  0.0760
51504W        W94416  33.784  22.219  28.976 -0.0593  0.1374  0.1862
51505W        W94417   0.666  21.379  28.839  0.0470  0.1528  0.2337
51506W        W94418   0.229  18.868  29.416  0.0745 -0.2519  0.1212
51507W        W94419  33.886  21.057  29.929 -0.0726 -0.0659 -0.1299
51508W        W94420  33.779  20.768  28.795 -0.1604 -0.4482 -0.3146
51509W        W94421  32.125  22.075  29.800 -0.2869  0.1167 -0.2578
51510W        W94422  32.359  21.014  28.640  0.2399 -0.0192  0.0623
51511W        W94423  33.678  18.946  26.958 -0.0972  0.0739  0.1202
51512W        W94424  32.245  20.995  28.036 -0.0052  0.2617 -0.2510
51513W        W94425  34.083  19.547  30.104  0.1566 -0.0526  0.0315
51514W        W94426  34.020  19.274  29.299 -0.1466  0.2125 -0.1111
51515W        W94427  33.402  20.948  29.680 -0.1079 -0.0321  0.0395
51516W        W94428  33.479  20.785  30.242  0.2137  0.0421  0.0019
51517W        W94429  33.629  20.640  27.916  0.0713 -0.0060  0.1150
51518W        W94430  33.828  19.333  28.788 -0.1926  0.0613 -0.0286
51519W        W94431  32.871  21.016  29.525 -0.0655  0.1482 -0.1097
51520W        W94432  33.933  20.438  29.456 -0.0778  0.0721  0.2794
51521W        W94433  33.178  21.355  28.194 -0.1554  0.1476 -0.1376
51522W        W94434  34.501  19.247   0.227 -0.0874 -0.0547  0.0050
51523W        W94435   0.856  19.699  29.641 -0.1802 -0.2209  0.0204
51524W        W94436  32.623  18.724  28.304 -0.1131  0.0939 -0.1318
51525W        W94437  33.835  20.173  30.684  0.0330  0.1768 -0.1079
51526W        W94438   0.860  18.209  30.418 -0.0095  0.3369 -0.1215
51527W        W94439  34.063  20.785  31.846  0.1205  0.0273  0.0113
51528W        W94440  33.485  20.490  28.431  0.1686 -0.1891  0.0191
51529W        W94441  31.802  18.812  30.760 -0.2183  0.0074 -0.0581
51530W        W94442   0.515  20.492  27.254  0.2274 -0.0304 -0.2129
51531W        W94443  34.516  20.186  31.411 -0.0669 -0.1191  0.2328
51532W        W94444  33.117  20.132  31.228  0.2991  0.0677 -0.0029
51533W        W94445  33.208  21.569  28.722 -0.2476 -0.0310 -0.1425
51534W        W94446  34.178  21.979  30.790  0.2999  0.1482  0.0902
51535W        W94447  34.610  18.850  28.454 -0.1684  0.1399  0.0553
51536W        W94448  33.963  18.280  29.556 -0.2707  0.1340  0.0724
51537W        W94449  32.948  19.411  28.471 -0.0008  0.3285  0.1672
51538W        W94450  30.876  20.033   0.153 -0.1114  0.3165 -0.0161
51539W        W94451  33.657  19.282  27.490 -0.0590 -0.4437 -0.0282
51540W        W94452  33.968  20.671  30.386  0.0834  0.0266 -0.0929
51541W        W94453  33.788  20.982  29.241  0.1207  0.1378 -0.0217
51542W        W94454  32.856  19.298  31.345  0.4230  0.0353  0.1045
51543W        W94455   1.172  21.488  28.705 -0.0072  0.2102 -0.0501
51544W        W94456  34.168  21.366  29.046  0.0585  0.3084 -0.1320
51545W        W94457   0.293  18.876  31.471 -0.0286 -0.0997  0.1065
51546W        W94458  34.138  18.974  31.876  0.1719 -0.1089 -0.4113
51547W        W94459  33.500  18.309  30.386 -0.2186  0.3950 -0.0613
51548W        W94460  33.382  17.743  30.061  0.0701 -0.0731  0.0571
51549W        W94461  32.927  18.865  27.643  0.1233  0.0112 -0.3106
51550W        W94462  34.047  21.340  29.510  0.0320  0.0143 -0.1198
51551W        W94463  33.335  19.606  30.525 -0.1088 -0.0006 -0.0630
51552W        W94464  34.211  20.545  31.399 -0.2456 -0.1101 -0.4157
51553W        W94465  33.711  20.991  28.317  0.0108 -0.0195  0.0703
51554W        W94466  34.498  20.461  28.217  0.2250 -0.2191 -0.0402
51555W        W94467  33.671  20.341  31.123 -0.0954 -0.0956 -0.1678
51556W        W94468  33.727  20.488  27.407  0.3297 -0.2102  0.0407
51557W        W94469  31.293  20.809  28.320  0.2958 -0.2979  0.0381
51558W        W94470  33.210  21.761  30.492  0.0047 -0.0858  0.1952
51559W        W94471  31.712  19.534  30.191 -0.2195  0.0148  0.2612
51560W        W94472  34.094  21.118  30.615  0.3915  0.0792  0.3157
51561W        W94473  34.561  21.331  29.479 -0.2658  0.1707  0.0363
51562W        W94474  33.277  19.694  29.108  0.0597  0.0912  0.1909
51563W        W94475  34.188  21.954  30.319 -0.1820 -0.1045 -0.0260
51564W        W94476  31.640  20.332  30.957 -0.0928 -0.0371 -0.0908
51565W        W94477  33.109  17.895  28.111 -0.2624 -0.3031 -0.1300
51566W        W94478   0.310  19.288  31.716 -0.3804  0.1676 -0.1490
51567W        W94479  32.318  19.013  30.671 -0.1224 -0.0092  0.1484
51568W        W94480  33.365  22.007  28.606  0.1830 -0.1174 -0.0128
51569W        W94481  34.164  19.082  26.757  0.0299 -0.0710  0.0190
51570W        W94482  33.121  21.316  29.848  0.2260 -0.1036 -0.0285
51571W        W94483  32.064  22.270  27.239 -0.1754 -0.1049 -0.0392
51572W        W94484   0.376  22.160  29.677  0.0117  0.2744 -0.1300
51573W        W94485  34.360  19.553  29.018 -0.1975 -0.1570 -0.0959
51574W        W94486  34.450  17.932  27.471  0.0054 -0.1594  0.2501
51575W        W94487  32.809  19.369  31.866 -0.1869  0.0246 -0.3773
51576W        W94488  32.524  21.143  31.167 -0.2279  0.0652  0.1085
51577W        W94489  32.546  20.115  28.483 -0.1257 -0.1914  0.0588
51578W        W94490   0.085  21.765  27.794 -0.3298  0.2290  0.0056
51579W        W94491  33.625  21.293  28.869 -0.0612 -0.1263 -0.2869
51580W        W94492  33.119  21.846  28.143 -0.1893  0.0463  0.1881
51581W        W94493   0.672  21.045  30.114  0.0484  0.4263  0.1147
51582W        W94494   0.838  21.049  29.573 -0.2035  0.0050  0.4446
51583W        W94495  32.977  17.654  28.497 -0.0685 -0.1945 -0.1123
51584W        W94496  32.286  19.717  30.576  0.1930  0.1387  0.0177
51585W        W94497  32.585  20.564  28.760 -0.1654 -0.0679  0.1948
51586W        W94498  32.183  18.547  30.452  0.1054 -0.0084  0.1410
51587W        W94499  32.962  20.397  28.431  0.0485 -0.0276  0.1188
51588W        W94500  33.258  18.618  28.030  0.1723 -0.0753 -0.1324
51589W        W94501  32.483  21.427  29.077 -0.1417 -0.0911  0.0908
51590W        W94502  33.684  19.232  30.881 -0.2464 -0.0220 -0.1098
51591W        W94503  33.279  18.808  29.159  0.1292  0.1341 -0.1950
51592W        W94504  33.757  21.778  29.338  0.2938 -0.4047  0.1268
51593W        W94505  32.619  19.195  29.810 -0.0285 -0.0943  0.2658
51594W        W94506   0.595  17.546  28.379  0.2878  0.1827 -0.3643
51595W        W94507  34.318  19.765  29.579  0.0048 -0.0363 -0.1216
51596W        W94508  32.366  22.376  28.084  0.0059 -0.1132 -0.0728
51597W        W94509  34.062  21.648  28.099 -0.1539 -0.0780 -0.3499
51598W        W94510   0.636  21.827  30.609 -0.5829 -0.2790  0.1128
51599W        W94511   0.343  20.047   0.111 -0.2230 -0.2995  0.0679
51600W        W94512  33.837  20.217  28.810 -0.0030  0.0122 -0.3223
51601W        W94513  33.608  20.603  30.711  0.1446 -0.2987 -0.4061
51602W        W94514  33.115  20.657  30.508  0.0910  0.0912 -0.2259
51603W        W94515  33.780  22.117  28.371 -0.5792 -0.0629  0.1475
51604W        W94516   0.332  20.391  28.035 -0.0215  0.1289  0.1806
51605W        W94517   0.181  18.403  28.546  0.0303 -0.0070  0.2319
51606W        W94518  32.054  19.958  31.100  0.3451  0.1056 -0.0510
51607W        W94519  31.718  19.810  27.871  0.2065  0.1021  0.0645
51608W        W94520  32.437  21.353  27.649  0.2106 -0.0357 -0.0008
51609W        W94521  32.858  20.325  30.267 -0.0833 -0.1456  0.3287
51610W        W94522  34.187  19.158  31.229  0.1802 -0.1144  0.0147
51611W        W94523  32.629  19.810  29.935  0.1288  0.1415  0.1835
51612W        W94524  32.115  19.227  29.909 -0.0202  0.0772  0.0247
51613W        W94525  34.277  19.057  28.974  0.0191  0.1906  0.0809
51614W        W94526  33.533  18.282  29.220 -0.1092 -0.2256 -0.2607
51615W        W94527  33.926  17.979  29.062  0.0477 -0.0099 -0.0254
51616W        W94528  34.256  18.781  28.089 -0.1156 -0.0377  0.0572
51617W        W94529  32.436  20.428  27.120  0.0406  0.1439 -0.1129
51618W        W94530   0.038  20.395   0.279 -0.1573  0.0693 -0.0504
51619W        W94531   1.115  18.787  29.539  0.1460  0.0960 -0.0402
51620W        W94532  33.406  18.260  27.702 -0.0868 -0.0408  0.0694
51621W        W94533   1.977  18.892  29.904  0.1349  0.0219 -0.1521
51622W        W94534  33.840  18.977  29.926  0.0422  0.3056 -0.6309
51623W        W94535  33.577  22.199  31.398  0.0144  0.0249  0.0046
51624W        W94536  32.786  19.198  30.691 -0.0580 -0.1367  0.0993
51625W        W94537   0.702  21.174  31.022  0.2880 -0.1181  0.2419
51626W        W94538  33.281  19.107  30.553  0.2021 -0.3906 -0.1369
51627W        W94539  32.486  21.543  31.599  0.0044 -0.2045 -0.1173
51628W        W94540  33.705  19.965  28.293  0.2446  0.0234 -0.0355
51629W        W94541  33.716  19.832  30.292  0.2402  0.0407  0.1426
51630W        W94542  33.764  20.081  27.749  0.2742  0.1386 -0.1111
51631W        W94543  33.740  20.520  31.640  0.1096 -0.0503  0.4285
51632W        W94544   0.055  20.787  29.442 -0.0467  0.1789  0.1668
51633W        W94545  33.413  20.949  31.776  0.2599  0.1663 -0.2110
51634W        W94546  33.089  18.364  29.440 -0.1608  0.0846 -0.0544
51635W        W94547  32.226  21.032  29.951 -0.0416  0.0746  0.0993
51636W        W94548  34.285  21.778  29.244  0.2040 -0.2133 -0.1722
51637W        W94549  33.276  18.773  28.479  0.1363  0.1041  0.1138
51638W        W94550  34.532  20.933  31.190 -0.0204  0.3482  0.3528
51639W        W94551  32.235  18.780   0.029 -0.0463  0.0939 -0.2908
51640W        W94552  31.368  21.390   0.244  0.0893 -0.3715 -0.1224
51641W        W94553  34.077  21.316  31.093 -0.0557  0.2864  0.1037
51642W        W94554  33.658  20.739   0.129 -0.0252  0.1816  0.3826
51643W        W94555   1.447  18.917  29.886  0.0342  0.2419 -0.2413
51644W        W94556  33.822  17.500  31.152  0.0719  0.1658  0.0499
51645W        W94557  34.070  18.766  30.803 -0.1945  0.1129 -0.1620
51646W        W94558  33.644  21.731  31.085  0.2495  0.0830  0.2702
51647W        W94559  32.781  20.117   0.243  0.2815  0.2748 -0.1019
51648W        W94560  33.996  18.181  31.822  0.0269 -0.1193 -0.1416
51649W        W94561  33.585  18.772  31.072 -0.1263 -0.2259  0.2052
51650W        W94562  32.476  19.467  31.004  0.0626  0.1643 -0.0895
51651W        W94563  33.872  20.946  31.368  0.1215 -0.1170  0.0980
51652W        W94564   0.259  19.058   0.501 -0.1412  0.0515  0.0686
51653W        W94565  33.014  22.281  31.161 -0.0306 -0.1744  0.3614
51654W        W94566  33.184  19.769   0.396 -0.0256 -0.1076  0.1331
51655W        W94567  32.893  21.249  31.795  0.1433  0.0578  0.3194
51656W        W94568  34.316  21.267  31.516 -0.4090 -0.0500 -0.1295
51657W        W94569  33.278  19.274  31.723  0.0167  0.1845  0.3380
51658W        W94570  34.312  19.493  31.573  0.1096  0.2171 -0.0943
51659W        W94571   0.258  19.968   0.578  0.1602  0.0303 -0.0434
51660W        W94572  33.864  20.916   0.953 -0.3909  0.1674  0.1054
51661W        W94573   0.097  20.854   0.950 -0.1861  0.0298  0.1010
51662W        W94574  34.075  20.698  30.915  0.2108 -0.1208 -0.2601
51663W        W94575  33.729  21.709  31.529 -0.0392  0.3417 -0.1754
51664W        W94576  32.595  18.872  31.163  0.0796  0.0843  0.2000
51665W        W94577  34.348  19.637  31.001  0.0090  0.2046  0.0125
51666W        W94578  33.757  18.780  31.653  0.0931  0.4586  0.3323
51667W        W94579  32.181  20.587  31.838 -0.0987 -0.0302  0.1843
51668W        W94580  34.169  17.948  29.826 -0.1187  0.2485 -0.0966
51669W        W94581   0.189  20.344  31.741 -0.4479  0.1405 -0.0825
51670W        W94582   0.645  18.894  31.902  0.1944 -0.1285 -0.2805
51671W        W94583  34.225  22.831  31.706  0.1814 -0.0562 -0.2690
51672W        W94584   1.714  20.854   0.513  0.1463 -0.0202 -0.2250
51673W        W94585  32.574  18.612   0.968  0.1341 -0.1497 -0.2471
51674W        W94586  32.593  18.520  30.811 -0.1047 -0.6597  0.2092
51675W        W94587   1.312  19.655  31.903 -0.0651 -0.2420 -0.0544
51676W        W94588  34.369  20.338  31.872 -0.2959  0.2969  0.1119
51677W        W94589  31.231  18.202  31.003 -0.2423  0.4826 -0.0207
51678W        W94590  34.491  25.344  19.956  0.1768 -0.0479  0.1536
51679W        W94591  32.855  22.829  17.383  0.1308 -0.0764  0.3070
51680W        W94592  32.465  22.821  16.677 -0.1687  0.0061  0.2275
51681W        W94593  33.129  21.458  18.488  0.1684  0.0359 -0.1792
51682W        W94594  33.715  22.536  19.089  0.0383 -0.2475  0.2468
51683W        W94595  34.634  24.337  18.771 -0.0595 -0.4349 -0.0701
51684W        W94596  34.552  22.222  17.365  0.0275 -0.1704 -0.0662
51685W        W94597  33.249  21.105  18.118 -0.0673  0.0897  0.3793
51686W        W94598  32.045  23.937  16.363  0.0011  0.2676 -0.2694
51687W        W94599  34.056  23.563  18.476 -0.0760  0.0265 -0.1545
51688W        W94600  34.333  23.562  17.961  0.0527 -0.2466  0.0254
51689W        W94601   0.002  20.962  18.397 -0.1088 -0.0246 -0.2178
51690W        W94602  33.910  24.477  17.837 -0.0818 -0.2494 -0.0438
51691W        W94603  34.083  23.639  16.447 -0.0014 -0.0773 -0.1535
51692W        W94604  32.835  22.416  17.880 -0.1399 -0.0546 -0.1066
51693W        W94605   0.012  23.269  18.967 -0.0015  0.0000  0.2740
51694W        W94606   1.119  25.544  17.366  0.2065  0.0868 -0.2120
51695W        W94607   0.653  25.876  17.487 -0.1319 -0.2078  0.0762
51696W        W94608  33.079  24.551  18.921  0.1897 -0.0651  0.0693
51697W        W94609  33.516  26.239  18.793  0.1705  0.2640  0.2689
51698W        W94610  33.293  25.443  16.466 -0.1836  0.0263 -0.1037
51699W        W94611  34.679  24.708  19.728  0.2037  0.0553 -0.0294
51700W        W94612  32.933  24.725  16.349  0.1261  0.1428  0.2917
51701W        W94613  34.271  25.148  19.034  0.2826 -0.6792  0.0172
51702W        W94614  33.539  23.623  16.361 -0.0394 -0.0841 -0.2666
51703W        W94615  33.752  24.876  16.976  0.0337 -0.2191  0.0023
51704W        W94616  32.755  22.600  20.008 -0.0862 -0.1943  0.0783
51705W        W94617   0.036  24.841  18.635 -0.1598 -0.0312 -0.2450
51706W        W94618  32.918  24.587  15.887 -0.2177 -0.1278  0.2040
51707W        W94619   0.251  22.890  16.937  0.0162  0.0434  0.4189
51708W        W94620  34.523  22.006  16.497 -0.2075  0.0978  0.2506
51709W        W94621  33.479  25.405  17.821 -0.0468 -0.0411 -0.0918
51710W        W94622  34.084  22.707  17.832 -0.3475 -0.1684  0.1831
51711W        W94623  33.058  25.406  19.194 -0.3551 -0.0913 -0.0218
51712W        W94624  33.765  25.007  18.822  0.3660 -0.2771  0.0995
51713W        W94625  32.790  24.133  16.522 -0.2008 -0.2241 -0.3531
51714W        W94626  33.877  23.512  20.115  0.0935  0.2955  0.1172
51715W        W94627  32.593  23.429  18.369 -0.3111  0.1185 -0.2056
51716W        W94628  32.655  21.844  17.052  0.0149 -0.1839 -0.0824
51717W        W94629  33.522  26.879  19.445  0.2631  0.0327  0.1579
51718W        W94630   0.179  25.608  17.928  0.1867 -0.0200 -0.0653
51719W        W94631  33.167  23.892  16.634 -0.0660  0.1532 -0.2124
51720W        W94632  33.828  23.605  16.904 -0.2814 -0.2735 -0.1258
51721W        W94633  32.872  26.290  19.473 -0.1176  0.1175  0.3486
51722W        W94634  33.842  22.467  18.270  0.2063  0.1280  0.0895
51723W        W94635  34.366  25.464  19.416  0.4771  0.0996  0.0605
51724W        W94636  33.440  23.926  17.056 -0.3262  0.0234  0.2901
51725W        W94637  31.648  23.070  18.795  0.0613 -0.1235 -0.1116
51726W        W94638  33.676  24.016  16.620  0.1043 -0.0297 -0.1177
51727W        W94639  30.828  23.792  20.385 -0.1110 -0.1636  0.0792
51728W        W94640  33.636  23.720  19.184 -0.0570  0.0046  0.1752
51729W        W94641  34.285  23.032  18.573  0.2299  0.0490  0.0517
51730W        W94642  33.246  24.360  16.510  0.3185 -0.1731  0.1719
51731W        W94643  32.335  24.021  19.726 -0.1833  0.2007  0.1554
51732W        W94644  32.214  23.489  17.575 -0.1239 -0.0948 -0.2425
51733W        W94645   0.243  21.260  19.254  0.3361  0.1122 -0.2027
51734W        W94646  32.521  22.371  18.801  0.2028 -0.1821 -0.1786
51735W        W94647  33.218  22.276  16.515  0.3551  0.1189 -0.1206
51736W        W94648  33.630  23.461  17.792  0.0388  0.0184  0.0499
51737W        W94649  32.436  24.242  17.635 -0.0800  0.2225 -0.1341
51738W        W94650  33.623  23.299  18.303 -0.1322 -0.0137 -0.2219
51739W        W94651  31.760  24.317  18.368  0.0482  0.0463 -0.0812
51740W        W94652  32.317  26.288  17.965 -0.0157 -0.0729 -0.1088
51741W        W94653  32.329  23.878  18.478 -0.1040 -0.2219  0.0953
51742W        W94654  33.196  23.453  18.086 -0.2893  0.1477  0.1348
51743W        W94655  33.541  23.415  18.765 -0.0283  0.0113  0.2358
51744W        W94656  33.358  22.744  16.194  0.0671 -0.1606 -0.1031
51745W        W94657  33.713  25.360  17.278 -0.0483  0.1826 -0.2853
51746W        W94658  31.848  24.527  17.667  0.1971 -0.2347 -0.0256
51747W        W94659  34.115  24.882  17.475  0.1111  0.0214 -0.2320
51748W        W94660  32.268  22.712  20.243  0.0080 -0.1408  0.3502
51749W        W94661  32.135  24.156  17.221  0.0362  0.0690 -0.0153
51750W        W94662  32.217  25.141  19.627 -0.1105  0.0271 -0.0114
51751W        W94663  32.827  23.981  19.724 -0.0837  0.1578 -0.0168
51752W        W94664   0.721  23.281  16.830  0.1084 -0.3060  0.2123
51753W        W94665   0.307  24.187  17.856  0.4194 -0.3325  0.5392
51754W        W94666  32.708  22.089  19.139 -0.2218  0.1138  0.0035
51755W        W94667   0.642  21.531  18.651  0.2100  0.0974  0.0540
51756W        W94668   0.250  22.933  16.401  0.1210  0.0537  0.5190
51757W        W94669  32.317  24.302  16.488  0.0603 -0.0013  0.1186
51758W        W94670  34.221  21.395  18.734 -0.1441  0.2112 -0.0297
51759W        W94671  32.884  23.005  16.342  0.0229  0.2755 -0.0072
51760W        W94672   0.358  20.472  19.560 -0.0736  0.0046  0.0266
51761W        W94673  33.322  22.359  19.759 -0.1054 -0.1148 -0.1089
51762W        W94674  31.782  25.442  19.339 -0.5442  0.0251  0.1521
51763W        W94675   0.268  22.047  18.717  0.1357  0.0628  0.3097
51764W        W94676  34.565  26.017  17.773 -0.0472 -0.1193  0.2610
51765W        W94677  33.868  24.470  17.292 -0.1443  0.0010 -0.1588
51766W        W94678  34.189  23.072  17.427 -0.0069 -0.1655  0.2248
51767W        W94679  34.606  24.839  17.329  0.1450  0.3975 -0.0151
51768W        W94680  33.597  24.554  18.806  0.3126 -0.3098  0.1794
51769W        W94681  33.125  25.214  17.436 -0.1545  0.1428  0.0743
51770W        W94682  32.825  25.628  18.788  0.0043  0.1214  0.1676
51771W        W94683  33.315  23.751  17.538  0.0406 -0.1379 -0.0729
51772W        W94684  31.876  23.164  17.294  0.0323 -0.2750 -0.0070
51773W        W94685  34.338  23.080  19.260 -0.3187 -0.3409  0.0110
51774W        W94686  33.671  22.414  17.725  0.0023 -0.0839  0.2649
51775W        W94687  33.221  25.846  17.948  0.2177 -0.0679 -0.1244
51776W        W94688   0.413  23.514  19.079  0.3006  0.0149  0.0257
51777W        W94689  33.144  22.437  17.482  0.0099 -0.0709 -0.1166
51778W        W94690  33.293  24.330  18.459 -0.1948  0.0834 -0.0576
51779W        W94691  33.161  24.781  16.788  0.0433  0.0139  0.1149
51780W        W94692  32.445  22.549  18.296  0.0544 -0.3833  0.0712
51781W        W94693  33.731  25.191  18.337  0.0106 -0.2071 -0.0790
51782W        W94694  32.924  22.549  19.478 -0.0971  0.1371  0.1337
51783W        W94695  34.453  22.679  17.197  0.4263 -0.0168 -0.0841
51784W        W94696  32.829  23.503  16.571  0.0727 -0.3646 -0.3445
51785W        W94697   0.044  23.762  18.762  0.1025 -0.2395 -0.1025
51786W        W94698  33.803  22.888  18.550 -0.0676  0.2847  0.0457
51787W        W94699  33.623  24.590  19.739  0.0356  0.1588  0.0058
51788W        W94700  33.533  24.992  16.472 -0.2185  0.1586  0.0188
51789W        W94701  32.849  24.531  17.374 -0.0733  0.0028  0.0790
51790W        W94702  32.820  24.440  18.064 -0.2910 -0.1804  0.0753
51791W        W94703  34.090  21.870  17.972 -0.1972 -0.1612  0.2859
51792W        W94704  33.761  23.915  18.688 -0.0588  0.4237  0.1214
51793W        W94705  33.068  24.310  16.951 -0.0217  0.1103 -0.2515
51794W        W94706  34.689  24.800  19.153  0.0791  0.1854  0.0380
51795W        W94707  34.230  24.156  16.503  0.0706 -0.0209 -0.1502
51796W        W94708  33.805  20.653  18.335 -0.2702  0.1905  0.1548
51797W        W94709  33.855  23.112  19.030 -0.0593  0.1167  0.0544
51798W        W94710  34.197  23.140  19.874 -0.2025  0.1354  0.2970
51799W        W94711  32.636  21.727  16.518  0.3560 -0.2657  0.2592
51800W        W94712  33.298  24.075  18.893  0.3385 -0.0367  0.0495
51801W        W94713   1.284  24.193  17.730 -0.4338  0.1919  0.4908
51802W        W94714  34.223  23.538  18.951  0.0966  0.0777  0.0002
51803W        W94715  34.596  23.251  16.177 -0.2567 -0.1422 -0.3280
51804W        W94716  34.238  24.623  18.794  0.2967 -0.1224 -0.4063
51805W        W94717  33.718  21.419  18.705  0.1563 -0.1551 -0.2439
51806W        W94718  33.981  23.341  19.487  0.0829  0.2012  0.0179
51807W        W94719  31.885  22.323  19.464  0.1295  0.2751  0.3732
51808W        W94720  33.011  22.858  17.864  0.0318  0.2406 -0.2373
51809W        W94721  34.575  23.179  17.123  0.1124 -0.0208  0.1485
51810W        W94722   0.851  24.295  16.828 -0.0464  0.3916  0.0755
51811W        W94723  32.351  22.701  17.726  0.0887 -0.1494 -0.1975
51812W        W94724  33.379  25.707  19.469 -0.0406 -0.0468  0.0206
51813W        W94725  33.429  23.638  15.755  0.0895 -0.4179 -0.0295
51814W        W94726  33.910  23.629  15.985  0.0463 -0.0417  0.0197
51815W        W94727   0.658  24.325  18.254  0.2657  0.2298 -0.4903
51816W        W94728   0.056  22.494  16.550  0.0944  0.0415  0.0861
51817W        W94729  33.579  24.935  17.567 -0.0417  0.0916  0.2205
51818W        W94730  33.336  24.002  19.416  0.1784  0.1551 -0.3433
51819W        W94731  32.124  22.720  18.777 -0.1754  0.1929 -0.0194
51820W        W94732  33.238  24.909  18.530  0.1263 -0.0867 -0.2680
51821W        W94733   0.126  23.729  17.037 -0.0897 -0.1240 -0.0593
51822W        W94734  31.992  25.222  18.779  0.1885  0.0635 -0.1058
51823W        W94735  33.727  25.363  19.209  0.0817 -0.2069 -0.1932
51824W        W94736  33.464  22.447  18.673  0.0465 -0.2000 -0.3249
51825W        W94737  33.676  22.145  16.870  0.0368 -0.0751 -0.0577
51826W        W94738  32.867  24.940  18.222  0.1446 -0.0209  0.1231
51827W        W94739  33.285  22.926  18.434  0.3334  0.0732  0.0257
51828W        W94740  32.514  24.261  16.048  0.0798  0.2663  0.1276
51829W        W94741  34.074  22.833  16.845 -0.1267  0.1208 -0.0520
51830W        W94742  32.778  25.092  16.719  0.4153  0.1444 -0.0462
51831W        W94743  33.084  23.553  17.166  0.5536 -0.3605  0.2832
51832W        W94744  32.337  26.629  17.367  0.1315  0.0392 -0.0614
51833W        W94745  33.406  23.801  18.426 -0.0563  0.3397  0.1078
51834W        W94746  33.507  22.605  16.981  0.2099 -0.1308  0.1029
51835W        W94747  32.367  22.092  19.570  0.3929  0.0608 -0.1070
51836W        W94748  33.385  24.777  20.253  0.3593 -0.1001  0.0662
51837W        W94749  32.999  22.689  16.750 -0.3050 -0.2707  0.0045
51838W        W94750  32.459  24.914  18.645  0.0054 -0.2214 -0.1256
51839W        W94751   0.875  23.200  16.361  0.0568 -0.0493  0.0562
51840W        W94752  34.176  24.506  16.880  0.2642 -0.0652 -0.0998
51841W        W94753  33.487  24.848  18.060 -0.0287 -0.0260 -0.1138
51842W        W94754  33.423  25.329  18.801  0.0474  0.0616 -0.0253
51843W        W94755  32.347  21.512  17.364  0.2097 -0.2299  0.0151
51844W        W94756  33.157  23.605  19.128 -0.0468  0.1664 -0.0964
51845W        W94757  32.504  24.402  18.879  0.1344 -0.0612 -0.1946
51846W        W94758  32.183  23.051  18.389 -0.0031 -0.3286  0.1312
51847W        W94759  34.247  22.487  16.404  0.2437  0.1907 -0.1700
51848W        W94760  32.199  21.758  18.187  0.0840 -0.1501 -0.2401
51849W        W94761  34.225  24.866  17.981 -0.2664  0.3023 -0.1277
51850W        W94762  34.391  22.578  19.675 -0.2810  0.0443  0.1868
51851W        W94763  31.261  22.784  16.824  0.0602 -0.0789  0.0298
51852W        W94764  33.815  25.386  16.784 -0.3483 -0.1742  0.0983
51853W        W94765  33.163  22.032  18.256 -0.0992 -0.4010 -0.1350
51854W        W94766  34.028  21.981  16.548 -0.0644 -0.0680 -0.0008
51855W        W94767  32.686  23.491  18.936  0.2290 -0.0445  0.2650
51856W        W94768  33.345  24.690  17.260  0.2285  0.0909 -0.0369
51857W        W94769  32.788  25.210  16.248 -0.0464 -0.2211  0.0619
51858W        W94770   0.554  25.943  18.971 -0.0084 -0.2836 -0.1191
51859W        W94771  33.725  24.229  19.204 -0.0882 -0.2053  0.0215
51860W        W94772  32.836  23.926  18.556 -0.0607 -0.0134 -0.0681
51861W        W94773  34.257  25.032  19.619  0.0244 -0.1133 -0.1104
51862W        W94774  34.436  24.643  16.429  0.0102  0.0502 -0.0640
51863W        W94775   0.073  26.036  18.817  0.0230  0.0957  0.0509
51864W        W94776  34.084  24.033  16.954  0.1321 -0.0464  0.0662
51865W        W94777  32.632  23.273  17.351 -0.3267  0.2496 -0.3646
51866W        W94778   0.361  23.443  19.651  0.3419 -0.0792  0.1309
51867W        W94779  31.970  23.612  17.112  0.1729  0.1530 -0.1848
51868W        W94780  33.551  24.041  16.031 -0.0802  0.1373  0.1977
51869W        W94781  33.117  24.805  17.693  0.0754 -0.1940  0.0839
51870W        W94782   0.981  21.740  18.992  0.1167 -0.2508  0.0707
51871W        W94783  32.552  21.551  18.425  0.3642  0.0376  0.2591
51872W        W94784  32.838  23.626  17.748  0.1686  0.1871  0.0772
51873W        W94785  33.109  21.762  16.799  0.0421 -0.2282  0.3624
51874W        W94786  33.054  22.232  17.034 -0.1099 -0.3770 -0.3136
51875W        W94787  33.017  21.551  17.978  0.1127  0.0795 -0.2105
51876W        W94788  34.038  21.984  17.175  0.1785 -0.0883 -0.1670
51877W        W94789  32.012  24.421  16.081 -0.0480 -0.1513  0.1712
51878W        W94790   0.074  22.610  19.207 -0.0225  0.0209  0.0333
51879W        W94791   0.447  21.450  19.729 -0.2048 -0.1893 -0.0614
51880W        W94792  33.172  21.304  17.055 -0.1576  0.1039  0.3424
51881W        W94793  34.129  22.667  18.859 -0.0356  0.0784  0.0787
51882W        W94794   0.085  25.094  18.115  0.3475 -0.1801  0.1213
51883W        W94795  33.981  22.810  19.463 -0.2115  0.1721 -0.2094
51884W        W94796  32.622  22.932  19.692 -0.1157  0.0538  0.0687
51885W        W94797  34.631  24.385  20.089  0.1206  0.1009  0.0873
51886W        W94798  34.514  21.828  18.506 -0.0310  0.0950 -0.4739
51887W        W94799  33.307  23.350  20.313  0.2445 -0.0938  0.2908
51888W        W94800  33.633  23.411  17.284  0.1598  0.1841 -0.2526
51889W        W94801  32.930  22.464  18.436  0.0162 -0.1163  0.0753
51890W        W94802  33.884  23.946  17.476  0.0342  0.1785  0.0676
51891W        W94803   0.119  23.028  19.407  0.1029  0.3486  0.0001
51892W        W94804  33.805  24.436  16.405 -0.1975 -0.0530 -0.2146
51893W        W94805   0.967  26.064  18.247  0.1641  0.2531 -0.0754
51894W        W94806  34.084  23.176  18.180  0.5212  0.0600 -0.0321
51895W        W94807  33.322  24.422  17.929 -0.4463 -0.0438  0.0990
51896W        W94808  34.482  24.105  18.001  0.0661 -0.0571  0.2944
51897W        W94809  32.105  23.076  17.890  0.1195 -0.0602 -0.0780
51898W        W94810   0.271  23.920  19.487 -0.0369 -0.3250 -0.1946
51899W        W94811  33.399  25.356  23.128 -0.0413  0.4157  0.1244
51900W        W94812  33.562  22.790  20.684  0.2061 -0.2024  0.0168
51901W        W94813  32.636  22.600  20.827  0.0130  0.1745 -0.3216
51902W        W94814  33.071  20.902  23.273 -0.0253 -0.0634 -0.0344
51903W        W94815  33.934  23.641  22.301  0.1647 -0.3405 -0.1600
51904W        W94816  34.078  24.735  22.070  0.1054 -0.1762  0.0386
51905W        W94817  34.074  22.450  20.374  0.0397  0.1627  0.0767
51906W        W94818   0.086  21.238  21.642 -0.6329  0.0093  0.0284
51907W        W94819  33.793  22.294  19.562  0.2081 -0.0854 -0.0876
51908W        W94820  33.976  21.858  21.511 -0.2580 -0.3336 -0.1863
51909W        W94821  34.308  23.916  20.256 -0.3507  0.1493  0.2600
51910W        W94822   1.341  22.764  21.278  0.0484 -0.3247  0.0254
51911W        W94823   1.085  25.383  19.570 -0.0015 -0.1017  0.0283
51912W        W94824  33.497  23.321  19.424  0.0707 -0.4569  0.3092
51913W        W94825  33.583  23.269  21.895 -0.0162 -0.1235 -0.3749
51914W        W94826  33.419  22.726  23.061  0.0308  0.0815  0.1314
51915W        W94827  32.767  23.954  20.689  0.0484  0.0550 -0.0846
51916W        W94828   0.719  24.168  20.898  0.2189  0.1923  0.2127
51917W        W94829   0.048  23.794  21.344 -0.3378 -0.2609 -0.1900
51918W        W94830  33.156  24.929  19.693 -0.2227 -0.0229 -0.2181
51919W        W94831   1.104  25.896  20.577  0.2087 -0.2573  0.2488
51920W        W94832   0.133  26.424  22.253  0.0061 -0.0301 -0.0146
51921W        W94833  34.099  23.809  19.346 -0.0432 -0.2572  0.4155
51922W        W94834  33.773  24.820  23.926  0.0086 -0.1671 -0.0322
51923W        W94835   1.007  23.639  20.129  0.0526  0.2255 -0.1387
51924W        W94836   0.159  24.331  20.876  0.2019  0.1392  0.0791
51925W        W94837  31.998  24.321  24.757 -0.3793 -0.2917  0.0065
51926W        W94838  33.830  23.090  22.904  0.2261  0.0471  0.2429
51927W        W94839  34.686  23.681  20.476  0.0651  0.0718  0.1298
51928W        W94840  33.643  23.168  19.866 -0.0620 -0.0277  0.1578
51929W        W94841  33.968  22.105  22.095  0.3006 -0.0791  0.0420
51930W        W94842  33.066  24.312  21.548  0.3400 -0.2748  0.1839
51931W        W94843  33.662  22.690  23.522  0.1817  0.0677 -0.0087
51932W        W94844  31.184  25.318  21.733 -0.0590 -0.0375  0.1475
51933W        W94845  32.365  23.701  22.123 -0.1473  0.2082  0.0204
51934W        W94846  32.681  25.021  20.794 -0.1297  0.1938 -0.3653
51935W        W94847  32.139  24.268  24.229 -0.3508  0.2929 -0.1785
51936W        W94848  33.308  23.173  22.753  0.2733 -0.0706 -0.1024
51937W        W94849  33.047  21.689  20.174 -0.0977  0.0407  0.0958
51938W        W94850  31.109  25.965  23.342 -0.0840 -0.1869  0.2267
51939W        W94851  33.586  24.397  22.923  0.0223  0.0452 -0.0644
51940W        W94852  34.305  23.635  19.818  0.1449 -0.1246 -0.1484
51941W        W94853   0.472  23.397  20.668 -0.0458  0.3585 -0.1921
51942W        W94854  32.268  23.420  23.818 -0.0518  0.0452 -0.2373
51943W        W94855  33.087  24.455  24.214  0.0752  0.1779 -0.1603
51944W        W94856  33.883  25.407  24.015  0.0799  0.0706 -0.0223
51945W        W94857  33.877  24.701  19.293 -0.0305 -0.1955 -0.1014
51946W        W94858  31.437  23.591  22.734  0.1661 -0.0024 -0.1124
51947W        W94859  32.493  25.259  19.054 -0.2287 -0.0878 -0.1919
51948W        W94860  32.887  20.673  22.850 -0.0947  0.0135 -0.1646
51949W        W94861  33.883  24.805  23.396  0.1204  0.3004 -0.2112
51950W        W94862  33.026  22.709  22.780  0.1182 -0.0017 -0.0263
51951W        W94863  34.107  24.733  20.493 -0.1373 -0.1090  0.3300
51952W        W94864  34.227  22.077  23.114 -0.0765 -0.0238  0.0013
51953W        W94865  32.127  22.562  20.882 -0.1757 -0.1421  0.0228
51954W        W94866   0.099  21.614  23.900 -0.1493  0.0603  0.0073
51955W        W94867  33.426  22.290  22.217  0.3121 -0.3657 -0.0578
51956W        W94868  33.980  21.709  20.136  0.2690  0.1636 -0.0506
51957W        W94869  34.476  24.043  21.039  0.0488  0.4070  0.0620
51958W        W94870  33.450  22.835  19.449 -0.0774  0.2072 -0.0783
51959W        W94871   0.211  24.538  23.334  0.1407 -0.0216 -0.2876
51960W        W94872  32.468  22.547  19.258  0.0774  0.1268  0.0857
51961W        W94873  33.441  25.329  21.800  0.3620  0.1021  0.1048
51962W        W94874  34.448  24.206  20.578  0.0021  0.1143 -0.0981
51963W        W94875  33.422  22.950  18.918 -0.2030  0.0828  0.0500
51964W        W94876  32.931  25.084  23.384 -0.1467 -0.2126  0.2007
51965W        W94877  32.989  22.553  18.986 -0.1475 -0.1110 -0.0447
51966W        W94878  34.014  24.264  20.283 -0.3038 -0.3283  0.0809
51967W        W94879  32.137  24.972  21.237  0.2788  0.0498 -0.1224
51968W        W94880  34.365  24.499  20.948  0.0606 -0.1472  0.4400
51969W        W94881  33.420  23.659  23.674  0.1461 -0.2337 -0.1224
51970W        W94882  33.434  22.363  22.722 -0.0202 -0.0946  0.0033
51971W        W94883  32.307  24.583  23.813  0.1829 -0.0119  0.1187
51972W        W94884  33.845  23.010  24.447  0.0114 -0.0958 -0.0188
51973W        W94885   0.072  23.385  20.037  0.4230 -0.0317 -0.1229
51974W        W94886  33.379  25.215  22.551 -0.0300  0.0074  0.0079
51975W        W94887  33.094  23.853  22.313  0.1600 -0.0304  0.0789
51976W        W94888   0.126  22.294  21.907 -0.1251 -0.1781  0.1051
51977W        W94889  34.358  22.862  20.256  0.1912 -0.1412 -0.0591
51978W        W94890  34.164  24.536  19.803 -0.0756  0.4197 -0.0518
51979W        W94891   0.719  23.101  24.035  0.3891 -0.1336  0.0367
51980W        W94892  33.871  24.629  21.215 -0.0095 -0.4836 -0.1635
51981W        W94893  34.259  22.170  23.752 -0.2018 -0.0502  0.3492
51982W        W94894  33.673  23.553  22.729  0.1755 -0.4161 -0.1290
51983W        W94895  32.685  25.073  22.472 -0.0181  0.2672 -0.1173
51984W        W94896   0.472  22.821  22.751 -0.4601  0.0569 -0.0151
51985W        W94897  33.919  25.488  20.102  0.2850  0.4404  0.0645
51986W        W94898  32.560  24.086  21.209 -0.0105 -0.2696  0.0910
51987W        W94899   0.171  20.520  21.965  0.0460 -0.1931  0.0339
51988W        W94900  33.884  25.154  22.308 -0.1539 -0.1299  0.1413
51989W        W94901   0.335  23.843  20.816  0.0095  0.0198  0.0511
51990W        W94902  33.239  25.250  21.355 -0.1476  0.2852  0.0650
51991W        W94903  33.135  24.711  21.038 -0.1506 -0.1110  0.1381
51992W        W94904  34.475  21.761  20.005 -0.2373 -0.4987  0.0418
51993W        W94905  32.481  22.940  21.168  0.0169 -0.0066 -0.3123
51994W        W94906   0.069  21.427  22.388  0.0100  0.2088 -0.0223
51995W        W94907  34.484  23.786  21.860  0.1915  0.1645 -0.2769
51996W        W94908  32.781  24.047  22.796  0.2257 -0.1416  0.1648
51997W        W94909   0.263  23.888  23.427  0.0551  0.0395 -0.4070
51998W        W94910  32.202  23.780  20.979  0.3119 -0.2697 -0.1253
51999W        W94911  33.459  22.412  21.017  0.2877  0.2210 -0.1471
52000W        W94912  34.183  23.669  20.703  0.0999  0.0338 -0.0317
52001W        W94913  34.606  23.501  20.973 -0.3992  0.0825  0.0120
52002W        W94914  32.809  22.868  21.531 -0.0352  0.0829  0.2564
52003W        W94915  33.532  23.493  24.184 -0.1343 -0.2251  0.1108
52004W        W94916  33.220  22.944  22.028  0.0119 -0.0218  0.1478
52005W        W94917  34.688  23.171  20.497 -0.1296  0.1533 -0.0536
52006W        W94918   0.988  23.374  19.733 -0.3936 -0.2969 -0.0811
52007W        W94919   0.934  24.307  21.356 -0.1747  0.2769  0.1133
52008W        W94920  33.049  25.570  23.411 -0.0751 -0.4095 -0.0532
52009W        W94921  33.686  23.829  20.496  0.1043  0.5856 -0.2522
52010W        W94922  32.982  22.562  22.258  0.1263 -0.1114 -0.2899
52011W        W94923  33.867  23.765  21.784  0.4145 -0.2707  0.0258
52012W        W94924  34.161  23.642  22.743  0.0924  0.6304  0.0545
52013W        W94925  33.328  23.413  22.297  0.2685 -0.1602  0.1057
52014W        W94926  33.250  22.872  20.174 -0.1949  0.1851 -0.1359
52015W        W94927  32.916  23.514  22.676  0.1201  0.1204 -0.2142
52016W        W94928   0.261  23.305  22.974 -0.1935 -0.0502  0.0028
52017W        W94929  34.141  22.615  23.561 -0.0573  0.4563 -0.2037
52018W        W94930  33.807  22.999  21.155  0.0872  0.1466 -0.1837
52019W        W94931  34.101  24.627  22.998 -0.0208  0.1111 -0.0170
52020W        W94932  31.998  22.295  18.946 -0.0700  0.2230  0.1483
52021W        W94933  34.389  23.928  22.408 -0.0393 -0.1252  0.2862
52022W        W94934   0.346  24.179  20.426 -0.1749 -0.1610 -0.1347
52023W        W94935  33.295  24.332  22.003 -0.0046  0.0231  0.2107
52024W        W94936  33.863  24.138  19.692 -0.1233 -0.1697  0.0358
52025W        W94937  33.573  23.824  20.988 -0.2123  0.0132  0.2361
52026W        W94938  33.546  21.814  23.402  0.2676 -0.0534  0.2602
52027W        W94939  33.497  24.408  23.457 -0.3405 -0.1016  0.2075
52028W        W94940  32.879  21.331  22.984  0.2913  0.1384  0.0166
52029W        W94941  34.289  23.378  20.352  0.0027  0.1821 -0.2809
52030W        W94942   0.707  21.248  19.354 -0.0806  0.0711 -0.0015
52031W        W94943  34.598  24.648  20.543  0.0498 -0.0887 -0.0232
52032W        W94944  32.711  21.894  23.501  0.0197 -0.1064 -0.2220
52033W        W94945  34.254  25.845  23.822 -0.0437  0.1049 -0.1518
52034W        W94946  32.270  22.018  21.120 -0.3523 -0.1148  0.0408
52035W        W94947   0.822  23.247  19.267  0.0685 -0.0428 -0.3100
52036W        W94948  34.477  25.102  21.996  0.0952 -0.2050  0.0760
52037W        W94949   0.030  21.703  19.401  0.1796 -0.0540  0.4635
52038W        W94950  33.688  25.231  20.512 -0.1606  0.2367 -0.4503
52039W        W94951  33.666  26.436  21.749 -0.1248  0.0127  0.5232
52040W        W94952  33.708  23.938  23.427 -0.0448  0.0724 -0.0873
52041W        W94953  34.017  24.127  20.790  0.1626 -0.1752  0.1325
52042W        W94954   0.396  24.734  22.882  0.2452  0.1148  0.1695
52043W        W94955  34.556  24.156  23.345  0.2404  0.0372  0.0598
52044W        W94956  33.494  24.306  21.072  0.2869 -0.0108  0.3611
52045W        W94957  33.419  21.401  23.091 -0.0380  0.0951 -0.1075
52046W        W94958  32.666  23.438  19.910  0.0996 -0.1134  0.3301
52047W        W94959  32.509  25.518  23.565  0.2543 -0.0336 -0.0642
52048W        W94960  33.966  24.149  22.643  0.0382  0.1121 -0.1307
52049W        W94961  34.648  26.372  20.648  0.1159 -0.1564 -0.2975
52050W        W94962  34.233  21.823  19.379  0.1078  0.1424 -0.0200
52051W        W94963  33.561  24.014  21.511  0.1658 -0.0940  0.0428
52052W        W94964  32.976  25.111  20.285  0.0218  0.1394  0.0586
52053W        W94965  34.511  25.541  20.777 -0.1023  0.0922  0.1315
52054W        W94966   0.551  24.205  21.694 -0.4006  0.0456  0.0567
52055W        W94967  34.515  22.379  18.746  0.0306  0.3587  0.1208
52056W        W94968  34.337  22.776  23.005  0.1900  0.2094 -0.2618
52057W        W94969  31.611  25.544  23.219  0.3560  0.1037 -0.0547
52058W        W94970  33.395  22.303  23.335  0.1459  0.2245 -0.3511
52059W        W94971  33.923  22.611  22.464  0.0111 -0.4863 -0.1524
52060W        W94972  34.361  24.457  19.256 -0.0353  0.1838 -0.1293
52061W        W94973  33.877  25.153  21.066  0.1243  0.1478  0.1487
52062W        W94974  33.356  24.479  22.479  0.2272  0.1243 -0.0383
52063W        W94975  33.687  24.523  21.826 -0.1085 -0.0687  0.0464
52064W        W94976  33.477  22.930  21.567 -0.0647 -0.0177 -0.2730
52065W        W94977  32.890  23.031  22.455  0.0710  0.3167 -0.1099
52066W        W94978  32.484  23.217  21.750 -0.0155 -0.0047  0.0886
52067W        W94979  33.273  24.737  23.809  0.0719 -0.3351  0.2470
52068W        W94980  33.943  22.266  18.703 -0.3828 -0.0659  0.2399
52069W        W94981  33.080  22.589  20.655 -0.2814 -0.3593 -0.0377
52070W        W94982  34.020  23.038  23.360  0.1460 -0.1565 -0.2765
52071W        W94983   0.925  23.457  22.053 -0.0957  0.0196  0.0853
52072W        W94984  32.479  21.807  20.388  0.0401  0.4516 -0.1695
52073W        W94985  33.565  25.663  18.442  0.0358 -0.3623  0.1951
52074W        W94986  33.968  23.446  21.144  0.0019  0.2404  0.1694
52075W        W94987   0.086  23.374  21.755 -0.0536  0.2767  0.2053
52076W        W94988  33.093  23.343  21.724  0.0790  0.3477  0.3264
52077W        W94989  33.476  25.298  19.817  0.0284  0.2872 -0.1178
52078W        W94990  34.436  24.128  19.622  0.1364  0.1808 -0.2731
52079W        W94991  33.784  25.389  22.768  0.0113 -0.1331  0.0736
52080W        W94992  32.724  24.678  23.193  0.2779  0.1588 -0.3916
52081W        W94993  33.182  23.450  20.943  0.1135  0.2686  0.1658
52082W        W94994   0.557  24.942  23.455 -0.0958 -0.1377  0.2306
52083W        W94995   0.345  22.533  20.735  0.0865  0.0755 -0.1508
52084W        W94996   0.120  25.800  21.102  0.0427  0.2118  0.0767
52085W        W94997   1.561  24.412  21.807  0.1439 -0.0943  0.1407
52086W        W94998  33.548  23.441  21.390  0.1108 -0.1953 -0.0331
52087W        W94999  33.578  24.032  22.318  0.0174 -0.0028 -0.1398
52088W        W95000  32.812  23.976  19.147 -0.0861 -0.1152  0.1787
52089W        W95001  33.093  23.760  21.349 -0.0500 -0.0304 -0.1190
52090W        W95002  33.401  25.730  22.577  0.2437  0.1204 -0.2911
52091W        W95003  34.032  23.482  24.192 -0.1135  0.1651 -0.1041
52092W        W95004  34.029  23.976  23.094  0.0051  0.1550 -0.0989
52093W        W95005  33.236  23.563  23.070  0.2422  0.1062  0.1253
52094W        W95006  34.217  23.127  20.774  0.2845  0.1311 -0.1672
52095W        W95007  32.909  22.060  19.716 -0.1067 -0.1363  0.2836
52096W        W95008  33.549  21.839  20.965  0.1347 -0.1121 -0.0101
52097W        W95009  33.215  22.097  19.306  0.1978 -0.1460  0.1976
52098W        W95010  31.360  25.033  19.553  0.0323 -0.3526 -0.2216
52099W        W95011   0.546  23.464  23.384 -0.1327 -0.1661  0.0031
52100W        W95012   0.021  21.902  23.414 -0.1599 -0.0552 -0.2343
52101W        W95013  33.265  21.538  19.668  0.0342  0.0032  0.1866
52102W        W95014  33.831  23.001  20.369 -0.1286  0.1159  0.2220
52103W        W95015  34.314  24.514  22.478 -0.4093  0.2083 -0.1676
52104W        W95016  33.832  24.613  22.478  0.3873 -0.1966  0.2581
52105W        W95017  33.400  21.014  22.580 -0.0998 -0.0621 -0.4116
52106W        W95018   0.160  25.083  23.707 -0.0538  0.2046  0.0040
52107W        W95019  34.685  21.014  22.045 -0.1620 -0.0241 -0.0456
52108W        W95020  34.575  24.689  22.961 -0.0570  0.2366 -0.0284
52109W        W95021  33.785  23.120  22.336 -0.0866  0.2294  0.0864
52110W        W95022  34.402  21.911  22.072  0.1669  0.0449 -0.1699
52111W        W95023   0.721  22.285  20.532 -0.0712  0.1005 -0.1119
52112W        W95024  34.424  22.366  22.756 -0.0814  0.0403  0.0768
52113W        W95025   0.328  23.411  21.141 -0.1604  0.1522 -0.3118
52114W        W95026  34.203  25.688  23.056  0.1515 -0.0628 -0.1238
52115W        W95027  34.372  21.364  20.973 -0.1497  0.0508 -0.1399
52116W        W95028  33.096  23.010  19.733 -0.3080 -0.0129  0.2799
52117W        W95029  34.669  23.752  22.966  0.2206 -0.2347 -0.1251
52118W        W95030  34.050  24.146  22.136  0.3254  0.1011 -0.1571
52119W        W95031  33.609  25.863  22.991 -0.0081 -0.2777  0.1403
52120W        W95032  33.759  24.914  28.149  0.0080  0.1409 -0.2673
52121W        W95033  34.235  21.198  23.270  0.0671  0.0282 -0.2142
52122W        W95034  32.205  22.631  25.744  0.1684 -0.0780 -0.0943
52123W        W95035   0.096  22.284  27.903 -0.0584  0.0337  0.1274
52124W        W95036  33.582  23.231  26.809 -0.0397  0.0421  0.0478
52125W        W95037   0.369  25.788  27.498 -0.1980  0.2547  0.1661
52126W        W95038  33.837  22.400  23.914  0.1439 -0.2340 -0.1615
52127W        W95039  32.166  23.008  26.483 -0.0803  0.1527 -0.1563
52128W        W95040  32.671  24.383  25.187 -0.1659 -0.1193  0.0902
52129W        W95041  32.304  23.509  27.068 -0.3011  0.2028 -0.0493
52130W        W95042  34.503  23.707  24.851  0.1239  0.0828  0.0151
52131W        W95043   0.408  23.081  26.235  0.1193  0.0923 -0.0833
52132W        W95044   0.375  25.486  23.470  0.1483 -0.2547 -0.1172
52133W        W95045  32.905  22.454  23.292 -0.2398  0.0449 -0.2633
52134W        W95046  32.974  23.867  25.877 -0.1223  0.3814 -0.1485
52135W        W95047  32.911  23.332  25.546  0.1864 -0.3017 -0.0045
52136W        W95048  33.794  27.430  27.314 -0.0914  0.2669  0.1514
52137W        W95049   0.030  26.505  25.697 -0.1967 -0.2389 -0.1623
52138W        W95050  32.152  24.740  24.318  0.2095 -0.0233  0.1027
52139W        W95051  31.487  25.348  24.721  0.2210  0.0869  0.2812
52140W        W95052  34.242  25.147  24.800  0.0576 -0.1080  0.2379
52141W        W95053   0.160  25.567  28.699 -0.1991  0.0952 -0.2160
52142W        W95054  33.051  24.899  22.869  0.1164 -0.3171  0.0005
52143W        W95055  33.214  25.202  27.108  0.0515  0.3714 -0.1613
52144W        W95056  33.362  25.596  23.907  0.1838 -0.1329  0.0201
52145W        W95057   0.902  24.343  26.163 -0.2120 -0.2237  0.1757
52146W        W95058  33.115  23.250  28.021 -0.3454  0.1864  0.0314
52147W        W95059  32.333  25.462  25.835 -0.5189 -0.1181  0.0427
52148W        W95060  34.621  24.851  24.522  0.2419  0.1142  0.0233
52149W        W95061   0.925  21.634  23.295  0.0747  0.0591 -0.3230
52150W        W95062  33.960  22.926  26.855 -0.1016  0.0059  0.1017
52151W        W95063  34.107  24.740  26.346 -0.2009  0.0107  0.1913
52152W        W95064  34.264  22.341  26.529  0.0292 -0.0069  0.0205
52153W        W95065  34.210  25.351  26.001  0.0346 -0.1689 -0.0305
52154W        W95066  33.321  24.802  24.647 -0.0357  0.0969  0.1555
52155W        W95067  33.433  22.779  24.622 -0.2361  0.0587 -0.2330
52156W        W95068  33.522  25.053  28.629 -0.1125 -0.1319 -0.2373
52157W        W95069  32.510  23.038  27.093 -0.0031  0.2232 -0.1114
52158W        W95070  34.430  23.276  23.096 -0.1909  0.0534 -0.1037
52159W        W95071  32.572  24.089  28.204 -0.3478 -0.0647 -0.1499
52160W        W95072   0.138  24.503  25.612 -0.1448 -0.2884 -0.0625
52161W        W95073  32.399  24.747  24.759 -0.2726 -0.2319 -0.0667
52162W        W95074  33.268  25.279  24.332  0.3063  0.3201 -0.0079
52163W        W95075  33.722  24.446  26.873 -0.2377  0.2282  0.4498
52164W        W95076   0.114  23.018  28.058  0.0163 -0.1356  0.3042
52165W        W95077  34.449  25.534  28.347 -0.2850 -0.0146  0.2222
52166W        W95078  34.191  25.121  24.311  0.1448 -0.2591  0.2507
52167W        W95079  31.818  24.766  25.961  0.0253 -0.5121  0.1005
52168W        W95080  33.448  23.780  25.092  0.0630  0.1272  0.1220
52169W        W95081  34.047  22.307  27.961  0.1415  0.0239 -0.1486
52170W        W95082  34.466  24.427  27.174  0.1273  0.0474 -0.0500
52171W        W95083  33.208  23.090  27.381  0.1216 -0.1078 -0.2486
52172W        W95084  33.340  25.031  25.539  0.1091 -0.0585 -0.3037
52173W        W95085  33.245  23.566  26.896  0.0478 -0.2705 -0.3666
52174W        W95086  32.936  23.363  26.053  0.3507 -0.0318 -0.1260
52175W        W95087  33.606  22.462  27.500  0.1572 -0.1899 -0.0932
52176W        W95088  32.824  22.043  24.836  0.1294  0.0643  0.1433
52177W        W95089  32.390  22.484  24.227 -0.4514  0.0613  0.0535
52178W        W95090  33.589  25.668  24.401 -0.1625 -0.2773  0.0204
52179W        W95091  31.807  23.902  24.563  0.2015  0.0871 -0.0317
52180W        W95092  34.114  24.047  27.066 -0.1083  0.1260 -0.2237
52181W        W95093  33.425  21.287  24.945  0.1621 -0.1411  0.2362
52182W        W95094  33.255  25.155  26.601  0.1177  0.0718  0.1097
52183W        W95095   0.398  25.019  26.638 -0.1851  0.2090  0.2008
52184W        W95096   0.129  23.465  25.966 -0.0120 -0.2570 -0.0286
52185W        W95097  31.692  24.195  27.336 -0.1488  0.0569  0.2523
52186W        W95098  33.040  21.483  23.418  0.0259 -0.1660 -0.1118
52187W        W95099  32.619  25.530  24.238  0.0409  0.0584 -0.2216
52188W        W95100  33.157  24.325  25.920  0.2243 -0.1479 -0.0017
52189W        W95101   0.158  26.633  26.178  0.2844  0.0165 -0.1790
52190W        W95102  33.227  24.576  27.851  0.2110 -0.1411 -0.1126
52191W        W95103  32.964  22.642  24.204  0.1271  0.0148 -0.2358
52192W        W95104  34.096  25.534  26.649 -0.1528  0.0075 -0.3820
52193W        W95105  33.145  24.759  28.924  0.0160  0.2046 -0.0320
52194W        W95106  34.419  24.920  25.998  0.0079 -0.1394  0.1299
52195W        W95107   0.375  23.964  26.465  0.1613  0.0264  0.0998
52196W        W95108  33.197  25.895  25.493  0.2175  0.0879 -0.0985
52197W        W95109  34.692  22.783  26.461 -0.0970 -0.0409  0.1632
52198W        W95110   0.018  23.367  23.495 -0.3311 -0.1724  0.3234
52199W        W95111  32.442  25.744  24.643 -0.1685 -0.0647  0.0374
52200W        W95112  34.306  22.962  27.363 -0.0307  0.1743 -0.0072
52201W        W95113  33.433  21.519  23.965 -0.1327 -0.1287  0.2200
52202W        W95114   0.525  22.229  28.270  0.0584 -0.1421  0.3977
52203W        W95115  33.371  25.064  27.863  0.2995  0.0633 -0.0175
52204W        W95116  32.766  24.784  26.165 -0.3668  0.0361 -0.0904
52205W        W95117   1.017  23.180  27.987  0.0595  0.0583  0.2167
52206W        W95118  34.294  26.749  24.963 -0.3323  0.0745  0.1467
52207W        W95119  32.264  24.493  25.528  0.0648  0.0409  0.1980
52208W        W95120   0.936  21.691  26.718 -0.1614 -0.0192 -0.0903
52209W        W95121  34.577  26.125  25.919  0.0943  0.0151 -0.1374
52210W        W95122  34.412  24.719  23.436  0.0176  0.1932 -0.0694
52211W        W95123  34.253  25.576  25.528  0.1007 -0.0300 -0.1035
52212W        W95124  33.913  25.941  26.420  0.1502  0.3068 -0.3113
52213W        W95125  33.422  22.394  24.219 -0.0340 -0.0103 -0.3920
52214W        W95126  33.379  24.128  24.453 -0.0516  0.0218  0.1397
52215W        W95127  33.477  23.658  25.580  0.0573  0.3648 -0.0436
52216W        W95128  33.919  23.030  24.951  0.0299 -0.0564 -0.0381
52217W        W95129  32.843  24.774  26.952 -0.0398 -0.0791  0.1715
52218W        W95130  34.559  23.990  27.359  0.1145  0.1826 -0.3518
52219W        W95131  33.611  22.811  23.972 -0.0944 -0.3872 -0.3996
52220W        W95132  32.793  22.407  26.377 -0.2600  0.0585 -0.0145
52221W        W95133  31.204  25.691  25.536  0.0517 -0.2493 -0.1831
52222W        W95134  33.147  23.131  24.310 -0.0854  0.1010 -0.3980
52223W        W95135  34.206  24.513  26.805  0.1354  0.0754  0.1052
52224W        W95136  32.610  22.760  26.667  0.0491  0.0997  0.1095
52225W        W95137  33.355  23.364  26.408 -0.1976 -0.3578  0.1727
52226W        W95138  33.211  22.540  26.100  0.4274 -0.0563  0.0168
52227W        W95139  32.172  24.070  26.368 -0.2049  0.0266 -0.0448
52228W        W95140  34.272  24.220  25.620 -0.0156  0.0313 -0.0406
52229W        W95141   0.348  24.865  25.883 -0.2178  0.0064 -0.1778
52230W        W95142  31.956  25.744  24.649 -0.2731 -0.1438  0.1166
52231W        W95143  33.125  24.201  28.220 -0.0776  0.0842 -0.0947
52232W        W95144  31.825  25.018  24.571 -0.0038 -0.3117  0.0684
52233W        W95145   0.358  23.085  26.759  0.2261 -0.1428  0.1016
52234W        W95146  32.721  24.290  26.144 -0.2301  0.4185 -0.1578
52235W        W95147  33.319  24.157  25.402 -0.2614  0.0548 -0.2254
52236W        W95148  32.448  24.492  26.527 -0.0619  0.0398  0.1006
52237W        W95149  33.538  22.661  25.104  0.0771 -0.4930  0.3666
52238W        W95150   0.586  22.318  26.967 -0.1531  0.0639 -0.0957
52239W        W95151  33.608  23.525  26.046  0.2266 -0.1202  0.0116
52240W        W95152  33.811  23.142  27.269 -0.1443 -0.0509  0.2309
52241W        W95153   0.168  22.002  26.478  0.2054  0.1042  0.0431
52242W        W95154  34.617  24.377  26.131 -0.1055  0.0920  0.0207
52243W        W95155  34.411  24.834  23.973  0.4096  0.1513  0.0997
52244W        W95156  33.624  23.961  26.838 -0.0865  0.2658  0.3124
52245W        W95157  33.768  24.688  24.877 -0.0541  0.2197 -0.0271
52246W        W95158  33.407  25.692  25.090  0.1464 -0.0034 -0.0369
52247W        W95159   0.105  22.398  25.612 -0.0699 -0.2404  0.0026
52248W        W95160  33.257  24.228  26.961  0.2217 -0.3520  0.0307
52249W        W95161  34.437  22.655  27.996 -0.1077  0.3023  0.0788
52250W        W95162  33.598  24.547  25.512 -0.3030  0.2142 -0.3274
52251W        W95163  34.364  23.667  23.472  0.3196 -0.0683  0.0683
52252W        W95164  32.860  25.275  23.857 -0.0686 -0.0822 -0.0027
52253W        W95165  32.451  23.653  25.780 -0.0613 -0.1585  0.1264
52254W        W95166  33.262  25.382  28.888  0.0270 -0.0658 -0.1546
52255W        W95167  34.261  22.521  24.139  0.0559 -0.0578  0.3027
52256W        W95168  33.704  23.680  24.675 -0.1581  0.3397 -0.1200
52257W        W95169   0.078  26.139  26.401  0.2002 -0.1151 -0.1079
52258W        W95170   1.162  22.769  24.023 -0.0102  0.2916  0.0343
52259W        W95171  33.019  25.500  24.763  0.1892 -0.0301  0.1795
52260W        W95172   0.469  25.688  28.258  0.0694  0.2997  0.0069
52261W        W95173  30.978  24.405  27.046  0.3165  0.1032  0.0016
52262W        W95174  33.741  25.562  26.141 -0.1347 -0.2713 -0.0967
52263W        W95175  33.942  23.582  26.912  0.1333 -0.0679  0.0853
52264W        W95176  33.630  24.294  26.381  0.0110 -0.1544 -0.4385
52265W        W95177  33.673  25.125  25.946 -0.1307 -0.0587 -0.0819
52266W        W95178  31.420  23.274  27.477 -0.1756 -0.2280 -0.0811
52267W        W95179  34.203  21.720  25.382 -0.1398 -0.0406 -0.2562
52268W        W95180  33.721  24.628  29.073 -0.0491  0.0305  0.1547
52269W        W95181  32.117  25.453  26.963  0.2079 -0.1062 -0.1966
52270W        W95182  33.753  25.033  24.441 -0.1099  0.1581 -0.3430
52271W        W95183  34.453  23.809  24.261  0.0445  0.2645  0.0606
52272W        W95184  33.164  24.465  26.410  0.0015 -0.2743  0.1500
52273W        W95185  32.625  24.082  25.605  0.0964  0.0192 -0.0385
52274W        W95186  33.548  24.785  26.384 -0.1217  0.2218  0.1455
52275W        W95187  34.557  23.893  26.275 -0.1015  0.0687  0.1255
52276W        W95188  33.892  22.812  25.385  0.0058 -0.1709  0.1983
52277W        W95189  33.123  22.549  26.700 -0.2011  0.2620  0.1799
52278W        W95190  32.296  25.494  27.803 -0.1595  0.1795 -0.1692
52279W        W95191  34.499  21.736  24.324  0.1815 -0.0259 -0.0958
52280W        W95192  32.838  25.876  25.046  0.0200 -0.0335  0.2445
52281W        W95193  32.954  24.900  24.335  0.1199 -0.0637  0.3220
52282W        W95194  33.015  26.330  25.223  0.2029 -0.0432  0.0700
52283W        W95195  34.425  25.796  26.376  0.0798 -0.3053 -0.4812
52284W        W95196  34.425  25.080  28.870 -0.1171 -0.3165 -0.0175
52285W        W95197  32.364  22.115  24.623 -0.2769  0.2165  0.3349
52286W        W95198  33.901  23.253  25.651 -0.0309  0.0227 -0.1511
52287W        W95199  33.134  24.581  25.293 -0.1078 -0.1902  0.1008
52288W        W95200  32.959  23.860  25.188  0.0066  0.1016 -0.0704
52289W        W95201   0.066  22.769  24.528 -0.0795  0.2083  0.0296
52290W        W95202  33.490  22.838  26.525 -0.0558  0.0394  0.3248
52291W        W95203  32.784  24.700  23.872  0.0140  0.1435 -0.0505
52292W        W95204  33.626  23.655  27.245  0.0543 -0.0893  0.2599
52293W        W95205  33.999  21.990  24.326  0.4610  0.1355  0.3121
52294W        W95206  34.487  27.015  24.573 -0.1983 -0.0925 -0.1123
52295W        W95207  33.117  23.799  26.383 -0.0730 -0.2303 -0.3418
52296W        W95208   0.586  23.331  25.843 -0.2599  0.0101  0.2012
52297W        W95209  31.850  25.047  25.496 -0.0826 -0.2718 -0.0276
52298W        W95210  33.298  26.357  25.704  0.1772  0.3270 -0.1072
52299W        W95211  33.085  25.774  22.963 -0.1590  0.3509 -0.1843
52300W        W95212   0.176  25.757  26.098 -0.2299  0.1005 -0.0753
52301W        W95213   1.159  24.778  26.239 -0.0456  0.0700 -0.3542
52302W        W95214  33.866  23.379  23.705  0.0747  0.1339 -0.1561
52303W        W95215  34.422  23.192  26.741  0.4050 -0.2048  0.2788
52304W        W95216  32.781  24.554  25.649  0.1244 -0.1052 -0.1442
52305W        W95217  34.092  26.103  23.457 -0.1273  0.1192 -0.0735
52306W        W95218   0.425  23.701  25.577 -0.0081  0.2255  0.4932
52307W        W95219  32.364  21.746  25.628 -0.0882 -0.1537  0.3314
52308W        W95220  34.615  24.179  26.734 -0.0301 -0.1645  0.0898
52309W        W95221  33.510  24.249  23.947  0.1717  0.6285 -0.0673
52310W        W95222  33.822  24.945  25.280 -0.1188  0.2066  0.1546
52311W        W95223  32.751  24.273  27.719 -0.2002 -0.2201  0.0567
52312W        W95224  34.356  21.891  28.694 -0.1802  0.4531 -0.0050
52313W        W95225  33.973  22.723  26.358 -0.1559  0.2768 -0.0159
52314W        W95226  31.885  23.671  26.078 -0.0484  0.0088  0.4190
52315W        W95227  33.414  20.897  24.629  0.0872  0.2191 -0.0247
52316W        W95228  34.422  21.813  26.566 -0.0419  0.1733  0.0174
52317W        W95229  33.079  22.369  25.626  0.2500  0.3374 -0.2734
52318W        W95230  33.737  21.609  25.210 -0.1290 -0.2032  0.0421
52319W        W95231  33.971  23.574  25.121 -0.2791  0.2828 -0.2122
52320W        W95232  32.653  25.356  26.927  0.1598 -0.2760  0.0619
52321W        W95233   0.210  22.657  28.363 -0.1139  0.0086 -0.0863
52322W        W95234  33.302  21.523  24.484  0.0098 -0.0044 -0.0736
52323W        W95235  34.429  24.979  27.242 -0.0166  0.0548  0.2218
52324W        W95236   0.416  24.357  26.080 -0.2148  0.0431 -0.3896
52325W        W95237  33.927  23.197  26.416  0.4275 -0.0099 -0.3091
52326W        W95238  32.742  22.924  27.540 -0.3088 -0.4279 -0.3782
52327W        W95239  33.340  24.654  28.364 -0.0377 -0.0346  0.2180
52328W        W95240  32.430  23.580  28.391 -0.2768 -0.2319 -0.0823
52329W        W95241  33.572  24.811  27.375  0.1055  0.3071 -0.0304
52330W        W95242  33.085  22.437  25.026 -0.0232 -0.0606  0.3495
52331W        W95243  32.345  24.920  25.752 -0.1293 -0.0249  0.1279
52332W        W95244  34.141  24.694  24.575  0.0456  0.4878  0.0866
52333W        W95245   0.074  24.329  27.732  0.1998  0.0807  0.1995
52334W        W95246  34.477  23.420  23.911  0.1189  0.0997  0.0676
52335W        W95247   1.126  25.254  28.623 -0.1700 -0.0774 -0.1940
52336W        W95248  34.122  21.698  27.020 -0.0092 -0.2833 -0.1344
52337W        W95249  34.307  22.342  25.631 -0.0456  0.0337  0.0944
52338W        W95250   0.447  25.345  25.645  0.1851  0.0000 -0.3868
52339W        W95251  32.418  23.172  25.682  0.0265 -0.2343 -0.2897
52340W        W95252  34.528  25.267  26.435  0.4628 -0.0761 -0.0727
52341W        W95253  34.321  25.084  31.761 -0.1091  0.0498 -0.0523
52342W        W95254  33.863  23.296  28.993  0.1382  0.1725 -0.0105
52343W        W95255  32.674  21.811  27.950 -0.0263  0.2531  0.0650
52344W        W95256  34.381  22.846  30.680 -0.0050  0.2678  0.1071
52345W        W95257  33.585  23.835  30.078  0.0924  0.1754 -0.0703
52346W        W95258  33.145  24.959  31.030 -0.0872 -0.2189  0.0670
52347W        W95259   0.143  22.013  28.564  0.1814  0.1662  0.1799
52348W        W95260  32.332  21.410  30.340 -0.0967  0.3545 -0.1921
52349W        W95261  31.682  25.587  28.705  0.3577  0.1198 -0.1443
52350W        W95262  33.760  23.448  29.631 -0.1415 -0.0359  0.2275
52351W        W95263  33.138  24.006  28.640  0.1355  0.0605  0.0858
52352W        W95264  34.626  21.435  31.106 -0.0437  0.0578 -0.1564
52353W        W95265   0.141  25.570  27.915  0.0448  0.1403 -0.1373
52354W        W95266  32.696  24.659  28.128 -0.1125 -0.1203  0.0475
52355W        W95267  33.248  23.035  29.421  0.1500  0.1435 -0.0451
52356W        W95268  34.200  23.128  29.811 -0.5234 -0.0469 -0.4382
52357W        W95269  34.076  25.135  29.915  0.3687  0.0334 -0.1987
52358W        W95270   1.039  24.448  29.929 -0.2136  0.0810 -0.0839
52359W        W95271  32.096  24.170  30.060 -0.1431 -0.4881 -0.3433
52360W        W95272  33.907  24.210  30.012  0.1685  0.0828 -0.0342
52361W        W95273  34.684  24.246  30.217 -0.5084  0.2502  0.1899
52362W        W95274  33.501  25.717  31.769  0.0447  0.0151 -0.1065
52363W        W95275  33.528  24.208  27.357 -0.0441 -0.2210 -0.3280
52364W        W95276  33.711  25.900   0.258  0.3319 -0.1598  0.2808
52365W        W95277   0.572  24.273  27.528 -0.0673 -0.0834 -0.1180
52366W        W95278  34.060  24.900  27.608 -0.0690 -0.2325 -0.2195
52367W        W95279  33.272  25.159  31.874 -0.2858  0.1903  0.2938
52368W        W95280  33.510  25.157  29.224 -0.0860 -0.1746 -0.2640
52369W        W95281  34.204  24.706  29.160  0.2724 -0.0749  0.0821
52370W        W95282  34.285  22.785  29.424 -0.2117  0.0352 -0.3999
52371W        W95283  33.784  23.631  31.168 -0.2114  0.0167  0.0593
52372W        W95284  33.569  25.104  30.107 -0.2180 -0.2377 -0.3806
52373W        W95285  33.606  22.508  30.341  0.0352 -0.0619 -0.3037
52374W        W95286  32.818  24.282  30.101  0.0732 -0.3202 -0.2328
52375W        W95287  32.021  23.213  28.598  0.0595  0.0472 -0.1050
52376W        W95288  32.730  23.603  27.907  0.0424 -0.0135 -0.0378
52377W        W95289  32.653  23.730  29.333 -0.2020  0.0060  0.1890
52378W        W95290  33.404  23.309  30.920 -0.1316 -0.0952 -0.0195
52379W        W95291  33.193  22.062  26.294 -0.0904 -0.0842  0.3295
52380W        W95292  34.493  26.219   0.160 -0.0401 -0.1116  0.2347
52381W        W95293   0.568  24.379  30.344  0.3009  0.0668  0.5624
52382W        W95294  33.916  22.850  27.718 -0.3080  0.2622 -0.2104
52383W        W95295   0.069  24.713  29.081 -0.2275  0.0279  0.4051
52384W        W95296  33.640  24.754  31.421 -0.2719 -0.0821 -0.3425
52385W        W95297  33.906  23.911   0.168 -0.2524  0.0185 -0.3393
52386W        W95298  33.741  25.081  31.780  0.3793 -0.0651 -0.2353
52387W        W95299  32.999  25.144  29.262  0.1062  0.0326  0.0330
52388W        W95300  32.755  24.862  30.380  0.2350  0.2556 -0.1532
52389W        W95301  33.805  24.696  29.951  0.3671  0.0375  0.0923
52390W        W95302  33.676  22.950  29.981 -0.0217  0.3924  0.1729
52391W        W95303  34.026  24.576  30.926  0.1566  0.0137  0.5382
52392W        W95304  33.865  22.715  30.887  0.3439  0.0024 -0.0027
52393W        W95305  32.025  25.110  28.720 -0.0277  0.0738  0.0355
52394W        W95306  32.428  21.917  30.264  0.6808  0.3831 -0.1991
52395W        W95307  31.851  22.955  29.123  0.2765  0.0149 -0.0705
52396W        W95308  32.464  22.281   0.383 -0.2847 -0.0636 -0.0865
52397W        W95309  32.255  23.141  29.534 -0.1238 -0.2949 -0.1460
52398W        W95310  34.016  22.762  29.016  0.1353 -0.1327 -0.0547
52399W        W95311  33.878  24.719  28.608 -0.2171  0.1903 -0.0092
52400W        W95312  33.242  25.570  29.405  0.0438 -0.2303 -0.1963
52401W        W95313   0.476  22.975  30.895 -0.0461 -0.0400 -0.1573
52402W        W95314  33.424  23.373  28.640 -0.2060  0.2642  0.0204
52403W        W95315  32.610  27.383  30.717  0.2097  0.1271  0.5150
52404W        W95316   0.251  25.163  30.015  0.1309  0.0372  0.2915
52405W        W95317  34.288  22.341  29.147  0.2903  0.3392  0.0638
52406W        W95318  34.293  24.518  30.452 -0.2719 -0.0706  0.1362
52407W        W95319  32.895  22.847  28.983 -0.0612  0.0429  0.0579
52408W        W95320  33.146  23.824  27.498 -0.0357 -0.2175 -0.2546
52409W        W95321  32.074  25.389  28.280  0.3877  0.0576 -0.1074
52410W        W95322  34.557  25.498  29.820 -0.1420 -0.0973 -0.1909
52411W        W95323  33.321  24.223  30.143  0.1747 -0.3579  0.2555
52412W        W95324  34.006  23.389  27.765  0.0905  0.0315 -0.0411
52413W        W95325  32.474  24.200  30.489  0.2982  0.0083 -0.1282
52414W        W95326  33.379  24.456  31.118 -0.0671 -0.1300 -0.0718
52415W        W95327   1.401  25.143  29.476 -0.0263 -0.0965  0.5514
52416W        W95328   0.638  24.496  30.869  0.0762  0.2180  0.1075
52417W        W95329  32.152  23.774  29.642 -0.2831 -0.3465 -0.0464
52418W        W95330   1.351  23.708  30.403 -0.1550 -0.2593 -0.2396
52419W        W95331  34.259  24.413  27.742 -0.3399  0.0793 -0.1128
52420W        W95332  33.616  25.725  27.912  0.0577 -0.2995 -0.1279
52421W        W95333   0.562  22.722  31.274  0.0453 -0.0338  0.0575
52422W        W95334  33.619  22.577  28.631 -0.0886  0.0032  0.2748
52423W        W95335  33.694  21.956  30.466  0.2193  0.0337  0.5776
52424W        W95336  33.188  24.548  30.620 -0.2089  0.3803 -0.0053
52425W        W95337  33.900  25.557  30.137 -0.1163  0.1328  0.0550
52426W        W95338   1.574  22.678  30.802 -0.0706  0.0526  0.1340
52427W        W95339  34.229  24.762  28.104  0.0220 -0.1455 -0.0196
52428W        W95340  33.366  23.621  28.184 -0.1236  0.1172 -0.0853
52429W        W95341  33.021  21.457  29.222  0.1299 -0.1994  0.2230
52430W        W95342   0.006  25.499  30.945 -0.0579  0.0235 -0.0637
52431W        W95343  33.537  23.950  27.812  0.1134 -0.1268  0.0026
52432W        W95344  34.015  24.275  28.804  0.0953 -0.0787 -0.2266
52433W        W95345  32.548  25.283  30.474  0.1426  0.1188  0.1467
52434W        W95346  33.844  22.988  28.567 -0.1734  0.3141 -0.0604
52435W        W95347  32.582  24.219  28.711  0.0187  0.2126  0.2129
52436W        W95348  33.193  21.826  29.782  0.0301 -0.2230 -0.1207
52437W        W95349   0.417  22.946  30.172 -0.0189  0.1705 -0.3691
52438W        W95350  30.475  26.235  29.587  0.1164 -0.0783  0.0261
52439W        W95351  34.157  24.978   0.276 -0.0973 -0.0098  0.1927
52440W        W95352  32.970  23.477  28.449  0.0201 -0.0600 -0.1584
52441W        W95353   0.572  24.070  28.806 -0.1459  0.0289 -0.0092
52442W        W95354  32.824  25.188  28.750 -0.2029  0.1308 -0.1203
52443W        W95355  33.634  25.335  27.388  0.1259  0.1539  0.2539
52444W        W95356  34.469  25.135  30.209  0.3063  0.0430  0.0249
52445W        W95357  33.411  23.893  30.742  0.2541 -0.0177 -0.1930
52446W        W95358  32.945  24.138  31.160 -0.0021 -0.1653 -0.0145
52447W        W95359  33.045  22.988  28.494 -0.1770  0.0137 -0.2715
52448W        W95360  34.410  24.704  28.563  0.0797  0.1467  0.0157
52449W        W95361  34.080  24.053  30.956  0.1190  0.1008 -0.0084
52450W        W95362  31.995  24.353  30.811 -0.1581  0.0487 -0.1712
52451W        W95363  34.257  24.612  29.698 -0.3246  0.2445  0.3570
52452W        W95364  33.044  23.817  30.049  0.0712  0.1236 -0.0199
52453W        W95365   0.604  24.110  29.753 -0.0620 -0.1340 -0.1469
52454W        W95366   0.347  21.879  30.127 -0.1666  0.2136 -0.0535
52455W        W95367  34.085  23.916  31.580  0.1101 -0.1776  0.0435
52456W        W95368  33.717  24.532  27.856 -0.1821 -0.0828 -0.1868
52457W        W95369  34.161  23.939  30.454  0.1211 -0.1445 -0.0826
52458W        W95370  34.349  23.747  28.422  0.1597  0.2428  0.1548
52459W        W95371  34.621  22.081  30.048  0.4675  0.0009  0.1355
52460W        W95372  33.284  22.509  29.795  0.0003  0.2080 -0.0703
52461W        W95373  33.042  23.479  29.482 -0.1706 -0.3168 -0.0479
52462W        W95374  34.314  21.412  28.478  0.1360  0.2180  0.1360
52463W        W95375   0.789  24.981  30.885 -0.1891 -0.0326 -0.0671
52464W        W95376   1.273  24.197  27.090  0.2283 -0.3133  0.0463
52465W        W95377  33.247  24.717  30.121 -0.2312 -0.2252 -0.1075
52466W        W95378   0.490  23.863  27.829 -0.0741  0.0888 -0.0232
52467W        W95379  32.826  24.685  29.344 -0.2391 -0.3769 -0.1069
52468W        W95380  34.230  22.911  31.158 -0.1671  0.2075 -0.0188
52469W        W95381  34.410  24.263  31.864  0.0481  0.1774 -0.1784
52470W        W95382  32.189  23.271  30.011 -0.1855  0.0767  0.2428
52471W        W95383  34.307  23.128  28.892 -0.1243 -0.0345  0.1886
52472W        W95384  33.140  22.475  28.430 -0.1861 -0.2344  0.3626
52473W        W95385   0.384  25.129  27.927 -0.2105  0.1525  0.1243
52474W        W95386  32.025  22.842  30.348  0.0372 -0.0610  0.1129
52475W        W95387  33.416  25.326  31.334 -0.1547  0.1090  0.1188
52476W        W95388  32.616  23.187  28.131  0.1222  0.0538 -0.0578
52477W        W95389   0.203  24.138  28.284 -0.0434 -0.1354 -0.0461
52478W        W95390  34.443  26.287  29.129  0.3148  0.1013  0.1074
52479W        W95391   0.010  22.009  29.029  0.0972  0.2072  0.1017
52480W        W95392  32.972  24.452  28.655 -0.0162  0.1867  0.2478
52481W        W95393  34.190  25.295  30.972  0.0554 -0.4539 -0.2605
52482W        W95394  32.924  25.752  31.305  0.1298  0.4055 -0.0169
52483W        W95395   1.068  24.792  28.678  0.2240  0.3320 -0.3319
52484W        W95396  33.014  23.323  28.950 -0.0113  0.3857 -0.0340
52485W        W95397  33.770  23.590  30.591 -0.1024 -0.0775 -0.0432
52486W        W95398  34.082  23.791  29.427 -0.0798  0.2699  0.2942
52487W        W95399  32.754  21.528  30.784  0.0286  0.1830  0.1289
52488W        W95400  33.441  22.491  29.262  0.0432 -0.1599 -0.2528
52489W        W95401  32.107  25.046  30.458 -0.1594 -0.0370  0.5751
52490W        W95402  32.726  22.076  30.640  0.0707 -0.0607  0.0266
52491W        W95403  34.312  25.216  29.383 -0.1643  0.0338 -0.1132
52492W        W95404   0.448  22.741  29.694 -0.0140 -0.3031 -0.0292
52493W        W95405  32.452  26.607  29.880 -0.0213  0.2189  0.1110
52494W        W95406  32.288  25.009  27.866  0.4198  0.0583 -0.1330
52495W        W95407  34.025  25.801  29.725 -0.1771  0.2220  0.1145
52496W        W95408  33.416  23.840  29.631 -0.1012 -0.2310 -0.0466
52497W        W95409  32.854  22.275  28.026 -0.0122  0.1711  0.1584
52498W        W95410  34.457  23.575  29.641  0.2554  0.2387  0.1174
52499W        W95411  33.055  25.743  29.918  0.2016  0.1147 -0.0746
52500W        W95412  32.671  23.655  28.816 -0.1435 -0.0352  0.1478
52501W        W95413  32.373  24.629  30.135 -0.1502  0.2628  0.4909
52502W        W95414  33.022  25.075  28.324 -0.0334  0.0664  0.0279
52503W        W95415  33.873  24.950  29.512 -0.0084 -0.2134  0.1988
52504W        W95416  33.704  24.231  30.488 -0.2723  0.0314 -0.1676
52505W        W95417  33.435  25.721  30.245  0.0927 -0.0274  0.2069
52506W        W95418  32.711  23.097  29.380 -0.2443  0.1359 -0.1248
52507W        W95419   1.102  24.029  31.233  0.0860 -0.2133 -0.0803
52508W        W95420  33.641  24.042  29.220  0.0563 -0.0134  0.2757
52509W        W95421  34.489  22.473  29.763 -0.0112 -0.0030  0.0318
52510W        W95422   0.262  24.185  27.071 -0.1383  0.0288  0.0893
52511W        W95423  34.586  22.039  29.536  0.2207  0.1424 -0.0812
52512W        W95424   0.198  24.467  29.697 -0.3801 -0.1676  0.1964
52513W        W95425   0.451  23.680  29.235 -0.0196 -0.2430 -0.0040
52514W        W95426  31.703  21.375  27.346  0.0463  0.0244  0.3291
52515W        W95427  33.540  25.373  28.293 -0.1201 -0.2245 -0.0354
52516W        W95428  32.661  21.198  29.958 -0.2268  0.2198  0.1172
52517W        W95429   1.121  22.482  29.657 -0.0835 -0.3173  0.0652
52518W        W95430  32.528  24.372  29.529  0.0075 -0.1796 -0.2452
52519W        W95431  32.383  23.766  30.156  0.0287  0.3200  0.1455
52520W        W95432   0.122  24.666  28.079  0.2003 -0.1706 -0.2605
52521W        W95433   0.684  25.341  30.067 -0.2041  0.1271 -0.0712
52522W        W95434  33.713  25.545  31.006 -0.0961  0.0713 -0.0504
52523W        W95435  32.504  23.867  27.402  0.1591 -0.1035 -0.0400
52524W        W95436   0.050  24.893   0.627  0.1012 -0.2629 -0.0314
52525W        W95437   0.422  24.744  27.063  0.1109 -0.2114 -0.1061
52526W        W95438   0.429  25.577  29.645 -0.0893  0.1869  0.1425
52527W        W95439  34.173  23.280  29.332 -0.1732 -0.0360 -0.1000
52528W        W95440  33.823  21.634  29.846  0.0562  0.0815 -0.2618
52529W        W95441  34.497  24.684  31.056  0.1559 -0.0672 -0.0620
52530W        W95442  33.611  23.740  28.847  0.1300  0.0229 -0.2751
52531W        W95443   0.357  24.249  29.295 -0.1616  0.0045 -0.3310
52532W        W95444  34.021  24.281  29.402  0.4121 -0.0573 -0.3325
52533W        W95445   0.911  22.439  31.534 -0.0527 -0.0436 -0.3033
52534W        W95446  33.976  23.172  30.824 -0.0567 -0.0724  0.1074
52535W        W95447  33.443  23.423  29.189 -0.2375  0.0625  0.1096
52536W        W95448  32.854  21.868  29.018  0.3118 -0.0963 -0.1695
52537W        W95449  34.009  22.589  29.952 -0.2629 -0.0201  0.1346
52538W        W95450  32.311  21.763  30.716 -0.0793 -0.0943 -0.1698
52539W        W95451   0.370  21.281  29.830  0.2087  0.1005 -0.0693
52540W        W95452  32.081  24.482  28.562 -0.1690  0.0153 -0.0749
52541W        W95453  34.592  23.019  30.264  0.2236 -0.2094  0.0052
52542W        W95454  33.578  23.017  31.751  0.1919  0.1370  0.1102
52543W        W95455  32.539  23.156  28.715 -0.1296 -0.2608 -0.0510
52544W        W95456  34.527  23.764  30.124  0.1305  0.0822 -0.0121
52545W        W95457   0.187  22.705  30.577 -0.0228 -0.1973  0.2437
52546W        W95458   0.864  26.421  29.505  0.1385 -0.2658  0.0419
52547W        W95459  33.622  23.112  30.500 -0.1086 -0.0611  0.2138
52548W        W95460   0.243  25.518  31.389 -0.1034 -0.1784 -0.3045
52549W        W95461  32.931  21.479  31.281 -0.1567  0.2395 -0.0462
52550W        W95462  34.549  25.151  31.267  0.2061  0.1433  0.0884
52551W        W95463  34.695  22.889  29.057 -0.1145  0.3945 -0.0959
52552W        W95464  33.001  23.048  29.830  0.0678 -0.2951 -0.3978
52553W        W95465   0.070  23.545  27.296  0.0186  0.1267 -0.1569
52554W        W95466  32.946  23.983  30.495 -0.1395  0.0536  0.0537
52555W        W95467  34.508  24.093  28.844  0.4469 -0.0396 -0.0043
52556W        W95468  33.919  25.756  30.600  0.1444 -0.2482  0.1561
52557W        W95469  33.215  21.393  30.769 -0.0148 -0.3028  0.0252
52558W        W95470  34.244  23.693  28.904  0.3147  0.1129  0.2032
52559W        W95471   0.548  24.945  30.433 -0.0028  0.0021 -0.0914
52560W        W95472  33.409  22.946  28.927  0.1490 -0.1204 -0.2095
52561W        W95473  33.808  26.163  30.987 -0.2560 -0.1434  0.2111
52562W        W95474  32.956  23.620  31.084  0.2846 -0.0517 -0.1680
52563W        W95475  31.676  25.542  30.477 -0.0056  0.2004 -0.4161
52564W        W95476  33.596  26.200  31.786  0.2433 -0.0230  0.0889
52565W        W95477  33.020  25.283   0.862  0.2079  0.0741 -0.1713
52566W        W95478   0.075  23.223  31.657  0.1685  0.2058 -0.0344
52567W        W95479  33.876  22.598  31.438 -0.0828 -0.2784  0.0429
52568W        W95480  34.569  25.014  30.712  0.0346 -0.1230 -0.1470
52569W        W95481  33.209  26.155   0.141  0.1649 -0.1222 -0.0198
52570W        W95482  33.388  24.623  31.921  0.0904 -0.0833  0.0242
52571W        W95483  33.239  21.776   1.030  0.1754 -0.1109  0.1709
52572W        W95484  33.607  22.508  31.859  0.4224 -0.0485  0.0741
52573W        W95485  33.369  21.425  31.870  0.3001  0.2631  0.0477
52574W        W95486  31.776  25.867  30.899 -0.3417 -0.0838 -0.0018
52575W        W95487  34.042  24.686  31.741  0.0761  0.1914  0.0440
52576W        W95488  32.420  26.833  30.777  0.1210 -0.0387 -0.1485
52577W        W95489  34.063  23.031   0.187 -0.2920 -0.0966  0.0738
52578W        W95490  33.206  25.824   1.212 -0.0799  0.0885 -0.0395
52579W        W95491  32.968  25.253  31.496 -0.2566 -0.0673  0.2022
52580W        W95492  34.343  22.196   0.687  0.1504  0.0020 -0.0497
52581W        W95493  33.245  23.320  31.924  0.0142  0.3194  0.0033
52582W        W95494  33.116  24.713   0.348  0.1188  0.3175 -0.1156
52583W        W95495  32.256  25.424   0.618 -0.0406 -0.2775 -0.1138
52584W        W95496  34.265  24.957   1.379  0.1437  0.0971 -0.0487
52585W        W95497  32.992  22.173   1.285 -0.1580 -0.3671 -0.0968
52586W        W95498  34.423  26.317  31.634 -0.0095 -0.1290 -0.1965
52587W        W95499  32.779  23.810   0.210  0.3048 -0.0010  0.1391
52588W        W95500  33.723  23.083  31.260 -0.1800  0.0828  0.2771
52589W        W95501   0.393  23.510  31.890 -0.2713  0.0197  0.0575
52590W        W95502  31.795  26.082  31.420  0.0332  0.3188 -0.0036
52591W        W95503   1.285  23.644  31.002 -0.2464  0.3666  0.0054
52592W        W95504  32.482  24.143  30.982  0.1493 -0.0374 -0.1238
52593W        W95505  34.274  24.336  31.307  0.5014 -0.0753 -0.3518
52594W        W95506  33.755  27.187   0.580  0.1258 -0.2148  0.0599
52595W        W95507  34.278  26.160  30.593  0.0649  0.0871  0.1180
52596W        W95508  32.896  24.830   1.349 -0.3241 -0.3268  0.1387
52597W        W95509  34.577  25.270   1.127  0.2114  0.0085 -0.2433
52598W        W95510   0.084  25.975  31.021  0.2696 -0.0288  0.4072
52599W        W95511  32.701  24.420  31.558 -0.2858  0.2684  0.2825
52600W        W95512  32.741  23.255   0.078  0.1122 -0.2061 -0.2053
52601W        W95513  34.368  28.856  18.872  0.1686  0.1773  0.1191
52602W        W95514  33.941  25.785  17.056  0.0458 -0.2815 -0.1068
52603W        W95515  32.888  26.936  17.575  0.0962 -0.4072  0.1167
52604W        W95516  33.953  25.495  18.770  0.1267  0.3874  0.0295
52605W        W95517  33.768  27.720  19.331  0.0467 -0.1587  0.2940
52606W        W95518  32.153  29.262  19.439 -0.0861 -0.0669 -0.1467
52607W        W95519   1.414  25.715  16.991 -0.0985  0.2426  0.3141
52608W        W95520  32.937  25.363  17.908  0.0497  0.1862 -0.0855
52609W        W95521  33.317  27.826  15.938 -0.1024 -0.1326 -0.3454
52610W        W95522  33.713  27.177  19.062 -0.0015 -0.2382  0.1028
52611W        W95523  33.978  25.306  17.767 -0.0672 -0.1398 -0.4135
52612W        W95524  33.576  26.380  19.315  0.2961  0.1570  0.1970
52613W        W95525   0.331  28.421  17.753 -0.0347 -0.0098  0.1639
52614W        W95526  33.768  26.527  16.420 -0.3803 -0.3273  0.0381
52615W        W95527  32.299  26.320  16.890 -0.2212  0.0908 -0.0154
52616W        W95528  34.051  28.588  17.801 -0.1340 -0.1690 -0.1521
52617W        W95529  33.960  27.591  18.163  0.2166 -0.1010  0.3598
52618W        W95530   1.268  28.721  17.618  0.2039  0.0600 -0.1103
52619W        W95531  32.925  28.235  17.764 -0.0062 -0.2463  0.0089
52620W        W95532  31.795  29.025  17.929  0.0663 -0.0385 -0.0292
52621W        W95533  33.486  29.341  17.415  0.0030  0.1028  0.0738
52622W        W95534  34.604  29.457  19.800 -0.0937  0.0261 -0.4094
52623W        W95535  32.917  27.377  17.361  0.1487 -0.0569  0.0863
52624W        W95536  34.092  29.732  19.962 -0.3344  0.3335 -0.0872
52625W        W95537  34.276  28.017  15.891  0.3448 -0.2047  0.3087
52626W        W95538   0.410  28.097  17.405  0.2091 -0.2244 -0.1779
52627W        W95539  33.631  28.841  20.928 -0.3184 -0.1008  0.0410
52628W        W95540  33.513  27.239  18.406  0.2179  0.0476  0.0106
52629W        W95541  33.048  28.390  15.734 -0.0972  0.0119  0.0594
52630W        W95542  32.436  24.746  16.348  0.1179 -0.1315 -0.0321
52631W        W95543  33.980  25.988  18.534 -0.0491  0.0658 -0.2037
52632W        W95544  33.135  30.717  17.442  0.0923 -0.0604  0.0892
52633W        W95545  33.381  26.865  17.764 -0.2324 -0.0206  0.1134
52634W        W95546  32.953  30.465  19.368  0.1395 -0.1978  0.0183
52635W        W95547  33.709  26.201  17.253 -0.0386 -0.0060  0.0825
52636W        W95548  33.292  25.700  17.423 -0.6593 -0.0228  0.0724
52637W        W95549  32.857  28.204  19.228  0.1011  0.0609 -0.3113
52638W        W95550  32.535  27.777  18.748  0.1976 -0.1637 -0.0490
52639W        W95551  32.850  25.979  17.249  0.2570 -0.0471  0.2510
52640W        W95552  33.401  28.630  18.094 -0.2453  0.1923  0.2066
52641W        W95553  34.183  28.388  18.771  0.0369 -0.0272  0.1615
52642W        W95554  33.732  27.141  15.892  0.0185 -0.1239 -0.1720
52643W        W95555  33.777  25.780  17.542 -0.2217 -0.0968  0.0331
52644W        W95556  33.074  29.005  18.720  0.0017  0.0910 -0.1709
52645W        W95557  33.905  27.095  18.158  0.0187  0.1439 -0.0163
52646W        W95558   0.399  29.098  19.908  0.0130 -0.1815  0.2522
52647W        W95559  32.949  28.463  16.686 -0.0985 -0.2896 -0.0148
52648W        W95560  33.228  28.140  17.015  0.0501  0.3423 -0.1025
52649W        W95561  34.115  27.193  16.266 -0.2155 -0.1560  0.2637
52650W        W95562  33.825  25.869  18.048 -0.0318  0.1071 -0.0126
52651W        W95563  34.546  28.379  17.983 -0.4259  0.0727 -0.0377
52652W        W95564  33.163  27.172  19.094 -0.1113 -0.3983  0.0526
52653W        W95565  33.126  29.045  17.390 -0.0730  0.0724  0.2049
52654W        W95566  31.929  26.249  17.519 -0.1797 -0.2219  0.0760
52655W        W95567  32.883  25.597  16.953 -0.0171 -0.0677 -0.0889
52656W        W95568  32.689  27.390  17.963 -0.2404  0.0388 -0.0546
52657W        W95569  33.182  24.482  19.444  0.2764  0.3095  0.2354
52658W        W95570  32.396  24.747  15.842 -0.0749  0.1139 -0.4006
52659W        W95571  33.527  26.161  18.323 -0.1400 -0.2431  0.2981
52660W        W95572  32.858  27.980  17.328  0.1340 -0.3217 -0.0310
52661W        W95573  32.061  25.537  19.909 -0.0186 -0.2622 -0.0495
52662W        W95574  32.216  25.978  16.459 -0.1894  0.0105  0.0260
52663W        W95575  33.723  28.470  18.900 -0.0414  0.0396  0.0474
52664W        W95576   1.306  28.233  18.150 -0.0123  0.0667  0.1519
52665W        W95577  33.980  26.209  16.778 -0.1298 -0.0347 -0.1028
52666W        W95578  33.458  28.425  19.646 -0.1053 -0.1246 -0.0418
52667W        W95579  33.311  26.590  16.599 -0.0290  0.0625 -0.3108
52668W        W95580  33.238  29.386  16.508 -0.2260 -0.1309  0.0862
52669W        W95581  34.263  27.224  17.092 -0.3580  0.2968  0.0842
52670W        W95582  33.685  29.557  18.518  0.2955  0.1380  0.2123
52671W        W95583  31.598  27.662  19.009  0.2709  0.0657  0.3054
52672W        W95584  33.573  27.534  16.284 -0.0267 -0.0932 -0.2832
52673W        W95585  32.794  28.677  18.985  0.0089 -0.3358  0.2636
52674W        W95586  32.434  28.383  20.022 -0.1077  0.1971 -0.2928
52675W        W95587   0.785  27.737  17.191  0.3737  0.1756 -0.1382
52676W        W95588   0.712  29.059  16.993  0.0336  0.1953 -0.3916
52677W        W95589  32.490  27.738  17.638 -0.1686  0.1530  0.0856
52678W        W95590  34.457  26.860  17.424  0.0634  0.0177 -0.0046
52679W        W95591  33.646  26.549  16.957  0.1809 -0.2336  0.0911
52680W        W95592  32.914  29.590  16.121 -0.0331 -0.0470 -0.0564
52681W        W95593  34.405  26.641  20.236 -0.0518 -0.1284  0.2488
52682W        W95594  33.098  27.059  16.797  0.1103 -0.3325  0.0199
52683W        W95595   0.112  25.244  19.526  0.2454 -0.0263 -0.2443
52684W        W95596  33.409  27.518  20.501  0.3594  0.1792  0.2606
52685W        W95597  33.491  28.921  18.952 -0.1333  0.2138  0.1621
52686W        W95598  34.048  26.785  19.024  0.2093  0.0298 -0.0388
52687W        W95599  32.730  29.329  16.781  0.1709  0.0516  0.1371
52688W        W95600   0.034  27.873  15.660 -0.1356 -0.1306 -0.1587
52689W        W95601  33.809  25.843  16.488  0.3663 -0.1625  0.1185
52690W        W95602  33.330  29.110  17.921  0.0933  0.0678  0.1665
52691W        W95603  34.626  27.130  16.066 -0.2261 -0.2309  0.2361
52692W        W95604  34.253  28.599  18.338 -0.2022  0.0769  0.2577
52693W        W95605  32.465  28.714  18.551 -0.2298 -0.1523 -0.1484
52694W        W95606  33.437  25.720  16.924  0.1385  0.0480  0.3974
52695W        W95607  32.304  26.856  16.749 -0.1966 -0.1793  0.3075
52696W        W95608  32.700  27.209  20.000 -0.0205  0.2178  0.4569
52697W        W95609  34.168  27.715  17.743 -0.4126 -0.0372 -0.1594
52698W        W95610  33.238  28.165  18.243  0.2847 -0.1773  0.0851
52699W        W95611  34.167  29.636  19.334  0.2903  0.1116  0.2588
52700W        W95612  31.888  26.528  17.035  0.5243  0.0575  0.0841
52701W        W95613  34.218  25.815  19.113  0.1952  0.1747  0.1125
52702W        W95614  32.551  26.742  17.873 -0.2175  0.0130  0.1266
52703W        W95615  34.341  26.719  16.318 -0.2518 -0.0459 -0.1193
52704W        W95616  33.191  28.637  17.103  0.1422  0.1137 -0.0966
52705W        W95617  33.257  28.080  20.106  0.2104  0.3501 -0.2605
52706W        W95618  34.233  27.783  18.588 -0.1618  0.1644  0.2290
52707W        W95619  33.377  27.333  17.532  0.0161  0.4305 -0.1473
52708W        W95620  34.603  26.500  17.703  0.2283  0.0018 -0.2511
52709W        W95621   0.642  27.137  19.339  0.3166 -0.0015  0.1480
52710W        W95622  33.652  28.894  19.952 -0.2982 -0.0990 -0.0250
52711W        W95623  34.333  27.579  15.822  0.1392 -0.1038 -0.2569
52712W        W95624  33.305  27.574  19.322 -0.1662 -0.1460 -0.0388
52713W        W95625  34.680  29.225  17.672  0.0065  0.1047  0.0864
52714W        W95626  34.203  26.317  18.956 -0.2359  0.1262  0.0786
52715W        W95627  33.701  27.902  18.447  0.1361  0.3727  0.4326
52716W        W95628  33.839  28.672  16.746  0.1319 -0.2226  0.2968
52717W        W95629  32.713  27.025  19.354  0.1506  0.0575 -0.1639
52718W        W95630   0.176  25.603  17.433 -0.0639  0.0510  0.0088
52719W        W95631  33.207  25.310  18.300 -0.1456  0.1574 -0.0115
52720W        W95632  32.170  27.649  19.655 -0.2335 -0.1618  0.3189
52721W        W95633  33.090  27.876  19.611  0.1069  0.3396 -0.1299
52722W        W95634  33.417  26.134  16.686  0.4605  0.1451 -0.0253
52723W        W95635  32.718  27.561  19.463 -0.1785 -0.1343  0.0305
52724W        W95636  34.687  28.162  17.185 -0.0337 -0.1766 -0.1190
52725W        W95637  32.984  27.773  18.480  0.0576 -0.1450  0.0891
52726W        W95638   0.185  26.973  17.623 -0.0238  0.0256 -0.0682
52727W        W95639  33.374  28.115  18.805  0.0406  0.2202 -0.1852
52728W        W95640  34.431  27.161  18.033 -0.2414  0.1153  0.0870
52729W        W95641  34.399  27.708  19.462  0.2407 -0.0837  0.2427
52730W        W95642  33.120  26.968  20.185  0.1151  0.0939  0.0848
52731W        W95643  33.995  27.215  17.571 -0.0105 -0.3214  0.2000
52732W        W95644  33.312  25.871  16.277 -0.2074 -0.3310  0.1830
52733W        W95645   0.139  28.830  17.353  0.0259 -0.0792  0.0398
52734W        W95646  31.101  24.463  19.706  0.0124 -0.0409  0.0917
52735W        W95647  32.935  29.476  18.860  0.0207  0.0123 -0.1657
52736W        W95648  33.219  23.257  17.580  0.1782  0.1459  0.2625
52737W        W95649  34.323  27.760  17.235  0.1537 -0.3729  0.0071
52738W        W95650  34.327  29.103  18.449  0.1434 -0.0126  0.0971
52739W        W95651   0.354  25.521  16.394  0.0123 -0.2415 -0.1665
52740W        W95652  33.791  28.065  16.069  0.0763 -0.0438 -0.1363
52741W        W95653  33.485  30.675  19.180  0.1472 -0.0395  0.0767
52742W        W95654  32.462  26.645  19.454  0.0638  0.1449 -0.3860
52743W        W95655  31.779  29.425  17.186 -0.0575  0.2084 -0.0562
52744W        W95656  33.858  28.957  18.133  0.0173 -0.0267  0.3223
52745W        W95657  33.377  27.631  18.143  0.0190 -0.1416 -0.0898
52746W        W95658   0.459  28.521  18.260 -0.0278  0.4412  0.1871
52747W        W95659  33.077  26.787  21.031  0.7511 -0.3181 -0.0010
52748W        W95660  34.509  25.183  17.670  0.0736 -0.0648 -0.0048
52749W        W95661  32.951  28.033  20.521 -0.0108  0.1502  0.0593
52750W        W95662  32.527  27.428  18.423 -0.1115  0.0517  0.3209
52751W        W95663  32.660  29.171  17.521  0.0370 -0.0155  0.2397
52752W        W95664  33.506  26.729  18.854 -0.1614  0.0192 -0.0895
52753W        W95665  34.665  30.256  18.234  0.1992  0.1223 -0.0846
52754W        W95666  32.840  28.925  16.520 -0.0140 -0.0160  0.2459
52755W        W95667  32.744  29.226  18.001 -0.0313 -0.3251 -0.0663
52756W        W95668  32.399  27.911  19.247 -0.1067  0.1088 -0.0635
52757W        W95669   0.056  24.609  16.824 -0.0170  0.0408  0.2206
52758W        W95670  34.058  27.006  19.516 -0.1287  0.2807  0.3222
52759W        W95671  32.652  29.301  18.495  0.1288  0.1931  0.0660
52760W        W95672  33.245  26.246  17.175 -0.0398 -0.0031  0.1797
52761W        W95673  34.677  27.493  16.916 -0.3456  0.1923  0.2843
52762W        W95674  34.561  27.344  17.532  0.1595  0.0243  0.2208
52763W        W95675  34.003  29.444  17.251  0.2366 -0.0198  0.2927
52764W        W95676  33.689  29.832  17.358 -0.2109  0.0424 -0.2781
52765W        W95677  34.082  29.664  17.723  0.1320  0.0384  0.0043
52766W        W95678  32.382  26.138  17.364 -0.0284  0.3235 -0.0609
52767W        W95679  34.574  26.189  19.236 -0.0929 -0.2214  0.1060
52768W        W95680  33.753  28.423  18.349  0.0897 -0.2532  0.3591
52769W        W95681  33.399  27.620  18.773  0.1034  0.1087  0.0864
52770W        W95682  34.559  25.417  16.562  0.0685 -0.2904 -0.1888
52771W        W95683  33.028  25.994  19.788 -0.1099 -0.0893 -0.1857
52772W        W95684  33.590  27.083  16.937  0.1415  0.0605  0.0577
52773W        W95685  34.426  28.882  17.892 -0.4466 -0.2466 -0.0368
52774W        W95686  31.976  26.557  16.465 -0.2308  0.0783 -0.2000
52775W        W95687  33.523  28.426  15.801 -0.2400  0.1776 -0.1732
52776W        W95688  33.658  27.967  19.766 -0.0854  0.1003  0.2448
52777W        W95689   0.117  25.979  16.590  0.0318  0.1554 -0.0015
52778W        W95690  32.973  27.696  17.806  0.3769 -0.2015 -0.1846
52779W        W95691  32.756  28.484  17.368 -0.0460 -0.1127  0.0335
52780W        W95692  32.604  28.955  17.073 -0.1445 -0.1747  0.2417
52781W        W95693   0.883  28.341  18.489  0.0599  0.0725 -0.2714
52782W        W95694  33.082  29.795  19.850  0.0970 -0.0100  0.1299
52783W        W95695  34.136  26.228  16.212 -0.0857 -0.1086  0.1976
52784W        W95696  33.774  28.753  19.314 -0.1857  0.0061 -0.1732
52785W        W95697  34.050  28.294  16.467 -0.0410  0.2311  0.1892
52786W        W95698  33.624  28.857  17.666 -0.1182  0.3433 -0.3386
52787W        W95699   0.921  27.423  18.423 -0.0782  0.2970 -0.0508
52788W        W95700  33.420  26.697  18.325  0.2326  0.3192  0.0030
52789W        W95701   0.091  27.447  18.373  0.0433 -0.2673  0.0313
52790W        W95702  32.631  27.244  16.622 -0.1807  0.0006  0.0658
52791W        W95703  34.249  28.257  16.988  0.1974  0.2523  0.1728
52792W        W95704  32.963  28.743  17.750  0.0404 -0.1790  0.1940
52793W        W95705   0.328  25.138  19.933 -0.1926 -0.0621  0.1360
52794W        W95706  34.538  26.906  19.810  0.2671 -0.2592  0.0504
52795W        W95707  33.317  27.894  16.500  0.3221 -0.1428  0.3428
52796W        W95708  33.656  26.165  16.061 -0.0557 -0.3862  0.5864
52797W        W95709   0.504  26.070  18.508 -0.3909 -0.2416  0.2989
52798W        W95710  32.711  26.031  17.744  0.1102 -0.2144 -0.0611
52799W        W95711   1.575  25.328  18.472 -0.1768  0.0808  0.3678
52800W        W95712  33.097  27.434  16.429  0.1403 -0.0026 -0.2485
52801W        W95713  34.659  29.027  20.121  0.0241 -0.0558  0.2185
52802W        W95714  33.151  26.690  19.210 -0.1516  0.0922 -0.1286
52803W        W95715  32.330  25.312  16.961 -0.0031  0.2355  0.0906
52804W        W95716  34.663  28.149  18.417  0.0535  0.1792  0.1663
52805W        W95717   0.076  29.253  18.506 -0.1705 -0.1243  0.2356
52806W        W95718   0.424  29.362  18.945  0.0770  0.0493  0.0466
52807W        W95719  33.351  26.428  19.806 -0.2222 -0.0072  0.1388
52808W        W95720  34.423  29.496  20.270  0.3466  0.1996  0.3747
52809W        W95721   0.068  25.710  19.718  0.0145 -0.1570 -0.1134
52810W        W95722   0.199  26.951  19.207 -0.2712 -0.1470  0.1085
52811W        W95723  32.759  25.826  19.241  0.1864  0.1765 -0.2612
52812W        W95724  33.880  27.000  18.639 -0.3507  0.0714  0.3489
52813W        W95725  34.188  26.476  17.196  0.0918  0.0273  0.2811
52814W        W95726   0.504  27.330  18.655 -0.0056  0.1787 -0.0711
52815W        W95727  33.650  28.154  17.877  0.0581 -0.3616  0.0910
52816W        W95728   0.738  29.456  19.318 -0.2320 -0.0440 -0.1007
52817W        W95729  33.287  24.932  19.157 -0.2145 -0.0672 -0.1171
52818W        W95730  34.323  29.057  17.361  0.3071  0.0902 -0.0586
52819W        W95731  32.926  27.563  16.891 -0.0084 -0.0375 -0.1767
52820W        W95732  34.151  25.548  18.220 -0.1858 -0.2219 -0.0918
52821W        W95733  34.663  28.453  18.899  0.1143  0.3308  0.2112
52822W        W95734  33.419  28.738  22.676 -0.0947 -0.0884  0.1286
52823W        W95735  33.649  26.288  20.206 -0.1543  0.1151  0.3268
52824W        W95736  33.632  25.951  21.132 -0.0494 -0.1286  0.1113
52825W        W95737  34.106  26.623  23.722  0.2413  0.0491  0.0503
52826W        W95738  33.293  26.133  22.346  0.1736  0.0244  0.2265
52827W        W95739   0.891  28.220  22.332  0.3511  0.1239 -0.1113
52828W        W95740   0.663  25.868  20.277  0.0931  0.2573  0.1463
52829W        W95741  32.549  24.812  20.270 -0.0361 -0.4583  0.3247
52830W        W95742  32.291  27.391  21.770  0.1524 -0.1495  0.1690
52831W        W95743  34.575  27.131  22.041 -0.0617  0.0167  0.0287
52832W        W95744  33.585  26.991  20.072  0.2796  0.4240 -0.0830
52833W        W95745  33.485  26.328  22.946  0.0727  0.1649  0.0254
52834W        W95746   0.212  30.175  19.760 -0.0865 -0.1123 -0.0283
52835W        W95747  32.283  27.869  20.113  0.1514 -0.0851  0.2877
52836W        W95748  33.206  25.734  21.492  0.0481  0.4309  0.1909
52837W        W95749  33.675  27.298  23.133 -0.1805 -0.1898  0.0973
52838W        W95750  34.296  27.545  23.072  0.5784 -0.0215  0.1003
52839W        W95751   0.393  29.842  21.569  0.2048 -0.1507  0.1629
52840W        W95752  33.783  27.682  20.903 -0.3690 -0.3255 -0.0003
52841W        W95753  32.295  29.502  20.463  0.1521 -0.4574 -0.3917
52842W        W95754   0.076  27.906  21.929  0.0761 -0.1780  0.1441
52843W        W95755  33.835  29.726  22.077 -0.0895  0.0540 -0.0111
52844W        W95756  34.335  28.081  19.096  0.0384  0.1478 -0.0648
52845W        W95757  33.849  27.966  22.952  0.1367  0.0899  0.1177
52846W        W95758  33.767  29.375  20.156 -0.0243  0.0078 -0.0110
52847W        W95759   0.611  29.258  20.850 -0.1871  0.3199 -0.0291
52848W        W95760   0.064  28.141  23.223 -0.0000 -0.0603  0.0555
52849W        W95761  33.145  27.305  21.012  0.1522 -0.1261 -0.1041
52850W        W95762  33.673  28.329  20.094 -0.2708 -0.1307 -0.0296
52851W        W95763  34.245  25.959  19.587 -0.3393  0.1376 -0.0050
52852W        W95764  34.548  26.474  21.212  0.3722  0.0684 -0.1817
52853W        W95765  33.445  29.579  20.711 -0.1114  0.0230  0.1440
52854W        W95766  34.278  25.947  21.163 -0.0474  0.2979  0.2454
52855W        W95767   0.074  27.323  23.133  0.0968  0.0330 -0.1773
52856W        W95768  33.712  27.994  21.929 -0.0206  0.3183 -0.1150
52857W        W95769  33.314  26.601  22.102 -0.0441 -0.2671 -0.1497
52858W        W95770  31.601  28.577  24.406  0.1798 -0.0316  0.1034
52859W        W95771  32.535  25.973  22.952 -0.1820  0.0220  0.0127
52860W        W95772  33.731  25.868  19.101  0.1881 -0.3039 -0.1254
52861W        W95773  33.438  28.393  21.819 -0.2112 -0.0047  0.2829
52862W        W95774  34.623  26.890  22.547 -0.0815 -0.0018 -0.0832
52863W        W95775  34.430  28.037  20.093  0.0600  0.0770  0.2396
52864W        W95776   0.054  28.262  21.043 -0.0100  0.0462 -0.2686
52865W        W95777  34.268  28.536  22.630  0.1192 -0.3356 -0.1206
52866W        W95778  33.118  26.186  21.833 -0.4844 -0.1416 -0.2324
52867W        W95779  34.402  28.899  23.140  0.0145 -0.2138  0.0020
52868W        W95780  33.482  29.522  19.750  0.0464 -0.0190 -0.3025
52869W        W95781  32.366  26.782  21.938 -0.3673  0.1402  0.0645
52870W        W95782  33.802  26.805  20.444 -0.2421  0.0430 -0.3107
52871W        W95783  33.110  26.503  22.679  0.0787 -0.2577  0.2426
52872W        W95784   1.216  28.633  22.360  0.2306 -0.2916  0.0748
52873W        W95785  33.524  25.182  23.613 -0.0143 -0.0655 -0.3518
52874W        W95786  33.489  28.989  20.485  0.0736  0.0261  0.4776
52875W        W95787  33.204  26.966  22.464  0.0289  0.2382  0.1009
52876W        W95788  33.890  26.851  21.539  0.1685 -0.1821  0.2224
52877W        W95789  33.560  26.760  23.620  0.2296 -0.0732  0.0935
52878W        W95790  32.839  26.097  22.588  0.2816  0.0826 -0.1726
52879W        W95791  33.825  28.021  18.932 -0.5485  0.2092 -0.2489
52880W        W95792  34.470  27.665  22.223 -0.4589  0.0229  0.2577
52881W        W95793  32.380  27.915  21.199 -0.1310 -0.0198 -0.0802
52882W        W95794  33.739  26.070  22.514 -0.2472 -0.1193  0.1089
52883W        W95795  33.927  27.336  20.437  0.3583  0.0400  0.1207
52884W        W95796  34.011  28.636  21.239  0.0871 -0.0488 -0.2447
52885W        W95797  33.941  27.631  22.228  0.1757  0.2888 -0.0720
52886W        W95798  34.300  26.022  20.655 -0.0896  0.2228  0.2320
52887W        W95799  34.279  28.040  23.401 -0.3810  0.0915  0.3075
52888W        W95800  34.068  27.689  19.790 -0.0305  0.5420  0.0039
52889W        W95801  32.993  29.349  20.658 -0.2089 -0.0400  0.3016
52890W        W95802  32.006  27.053  21.507 -0.0050 -0.1871  0.1649
52891W        W95803  34.163  28.852  20.819 -0.1135  0.0051  0.1896
52892W        W95804  33.227  27.936  23.672  0.1880 -0.2833  0.1989
52893W        W95805  32.562  27.123  20.976  0.1937  0.0388  0.0293
52894W        W95806  32.884  28.589  23.114 -0.4011  0.1060 -0.1856
52895W        W95807  32.905  27.495  22.989 -0.2742 -0.0425  0.3532
52896W        W95808   0.676  27.833  21.978 -0.0900 -0.2200  0.0758
52897W        W95809   0.285  29.570  22.923 -0.1001 -0.1711  0.0222
52898W        W95810  33.224  27.634  21.487 -0.1422  0.0098 -0.0329
52899W        W95811  34.193  26.633  22.630 -0.2970 -0.1139  0.0377
52900W        W95812  34.269  28.733  19.360  0.0658 -0.1965 -0.1000
52901W        W95813  33.693  30.252  18.995 -0.0435 -0.1911 -0.1775
52902W        W95814  34.407  26.264  21.836 -0.2097 -0.0575  0.1827
52903W        W95815  34.310  28.500  20.219 -0.1562  0.4753 -0.1401
52904W        W95816  33.048  26.227  23.160 -0.0079 -0.0575 -0.1021
52905W        W95817  34.182  27.043  22.913 -0.2412 -0.1833  0.3086
52906W        W95818  32.921  28.726  20.768 -0.1499 -0.2883 -0.0163
52907W        W95819  34.320  26.575  23.245 -0.0679 -0.2994 -0.3128
52908W        W95820  34.291  28.527  21.656  0.0925 -0.2152 -0.2106
52909W        W95821  34.700  28.543  22.902 -0.0959  0.0160 -0.1490
52910W        W95822  32.972  25.230  22.098  0.2818  0.0435 -0.1344
52911W        W95823  34.634  28.863  21.646 -0.2808  0.1555  0.1464
52912W        W95824  32.733  29.209  20.226 -0.2433 -0.0682 -0.1341
52913W        W95825  33.283  28.471  20.487  0.0037  0.2343  0.1066
52914W        W95826  33.274  28.879  21.645  0.2785 -0.0768 -0.3027
52915W        W95827  34.469  26.737  19.323 -0.1811  0.0062  0.0404
52916W        W95828  32.133  26.257  21.944 -0.2064  0.0658  0.0631
52917W        W95829  32.748  23.785  21.828  0.0741  0.1477 -0.0576
52918W        W95830  33.618  24.809  20.788  0.1749  0.0055  0.1403
52919W        W95831  32.939  28.064  21.311  0.4686  0.0206 -0.0364
52920W        W95832  34.428  28.019  22.898 -0.1982 -0.1897 -0.2025
52921W        W95833  33.624  27.407  19.664  0.0251 -0.1769 -0.1269
52922W        W95834  33.745  27.705  20.202 -0.1746 -0.3292  0.2459
52923W        W95835  32.915  28.473  21.852 -0.0675 -0.2278 -0.5917
52924W        W95836  34.066  28.589  19.753  0.1422 -0.0834  0.0272
52925W        W95837  33.835  28.787  21.828 -0.1778  0.1408  0.1594
52926W        W95838  32.584  27.411  23.965 -0.3768  0.1068 -0.0194
52927W        W95839   0.325  26.283  21.710 -0.1876  0.0534 -0.2750
52928W        W95840   0.225  26.792  20.634  0.0330  0.2525 -0.1485
52929W        W95841  33.649  25.804  21.731  0.0179 -0.2999 -0.0413
52930W        W95842  34.106  27.543  23.543  0.0919 -0.3623  0.0536
52931W        W95843  33.936  28.880  22.440  0.1059 -0.2863 -0.3869
52932W        W95844  33.593  28.055  20.579  0.3168  0.1314 -0.0490
52933W        W95845  32.530  25.583  21.205 -0.0546  0.0259  0.0215
52934W        W95846  34.212  27.855  20.672 -0.0236 -0.0791  0.0151
52935W        W95847  34.596  25.482  21.662  0.2097  0.2200  0.0198
52936W        W95848  33.238  27.906  22.023  0.2842 -0.2019 -0.0424
52937W        W95849  33.521  28.018  21.492  0.0968  0.1581  0.1187
52938W        W95850  33.458  28.544  21.273  0.0598 -0.3010  0.3225
52939W        W95851  34.193  25.213  20.401  0.0765  0.0183  0.2453
52940W        W95852  33.669  25.628  22.193  0.0675  0.0255  0.0809
52941W        W95853  33.609  26.269  23.489  0.1585 -0.0561  0.0543
52942W        W95854  33.847  28.984  23.892 -0.1049  0.0696  0.4051
52943W        W95855  32.691  26.459  21.232 -0.0767 -0.0288 -0.3825
52944W        W95856  34.342  26.932  20.598 -0.0749  0.0890 -0.0124
52945W        W95857   0.396  28.437  20.731 -0.1648  0.0367  0.0300
52946W        W95858  34.134  28.046  22.500  0.1488  0.1788 -0.0719
52947W        W95859  34.625  29.887  20.044  0.0814 -0.1874  0.3517
52948W        W95860  33.544  27.562  21.889 -0.1068  0.0193  0.0879
52949W        W95861  33.969  26.270  24.012 -0.2740  0.4635 -0.1605
52950W        W95862  33.169  28.385  23.461 -0.0513  0.0495  0.3165
52951W        W95863  33.044  26.777  23.536 -0.0335 -0.3609 -0.0367
52952W        W95864  33.637  26.588  21.169  0.1664 -0.1832 -0.0968
52953W        W95865  33.281  25.502  20.475 -0.2209  0.2488  0.0270
52954W        W95866   0.858  29.873  20.196  0.1226 -0.2609 -0.1871
52955W        W95867  34.286  25.006  21.383 -0.0561 -0.1922 -0.2106
52956W        W95868  34.039  29.278  22.074  0.2809 -0.1272  0.1915
52957W        W95869  33.342  27.583  19.996  0.3235  0.0316  0.0579
52958W        W95870   0.700  27.204  20.657  0.0062  0.0600  0.3826
52959W        W95871   0.539  28.587  22.852  0.1775  0.0094 -0.0842
52960W        W95872  34.310  26.360  19.829  0.3172  0.1599 -0.0806
52961W        W95873  32.614  29.066  19.423 -0.0490 -0.0292 -0.1420
52962W        W95874   0.365  28.536  22.380  0.0604 -0.0057  0.0264
52963W        W95875  32.635  27.022  22.347  0.0180 -0.0577 -0.0444
52964W        W95876   0.411  28.798  21.845  0.0700 -0.2992  0.1113
52965W        W95877   0.400  28.115  22.661  0.0538 -0.1031  0.0699
52966W        W95878  33.734  26.982  22.737 -0.0665 -0.2623 -0.0224
52967W        W95879  33.604  27.872  22.526  0.1179 -0.1017  0.1157
52968W        W95880  32.792  26.875  22.949  0.2156  0.0222  0.1011
52969W        W95881  33.575  23.795  19.768 -0.0455  0.0499  0.0359
52970W        W95882  33.332  29.169  23.784  0.1951 -0.0372  0.0111
52971W        W95883  33.015  27.115  21.435  0.2774 -0.0137 -0.0187
52972W        W95884  33.890  29.259  20.663 -0.0010 -0.3008 -0.0610
52973W        W95885  34.470  27.462  19.942 -0.2163 -0.1373  0.1032
52974W        W95886  32.824  28.522  20.326  0.1595  0.2524  0.0772
52975W        W95887  32.545  29.108  20.785  0.0959 -0.0406 -0.2110
52976W        W95888  33.136  28.871  19.958  0.0262  0.2767 -0.5191
52977W        W95889  33.214  28.220  22.923 -0.2102 -0.1851 -0.4382
52978W        W95890   0.278  25.541  20.243 -0.0542 -0.1828  0.0034
52979W        W95891  33.665  26.546  22.505 -0.2001 -0.1275 -0.0205
52980W        W95892  32.770  29.083  22.770 -0.3547 -0.1652  0.0718
52981W        W95893  33.152  26.649  21.608  0.4148 -0.1658  0.0522
52982W        W95894  34.659  28.133  20.520  0.3815  0.1413  0.0119
52983W        W95895   0.540  27.698  19.916 -0.2853 -0.2187 -0.4020
52984W        W95896  32.731  27.912  21.749 -0.0645  0.2251  0.0835
52985W        W95897  32.934  27.040  20.652 -0.3224  0.2550  0.1403
52986W        W95898   0.158  29.854  22.060  0.0050  0.1031 -0.0020
52987W        W95899  33.093  26.357  20.221 -0.2749  0.3566 -0.1446
52988W        W95900  34.359  26.655  22.147 -0.0146 -0.0918  0.1096
52989W        W95901  32.981  28.392  19.831 -0.2879 -0.0591  0.0204
52990W        W95902  32.643  26.403  21.727  0.0594 -0.1502 -0.2228
52991W        W95903   0.106  25.738  19.227 -0.1096 -0.0807 -0.0326
52992W        W95904  32.248  27.362  20.166 -0.0047  0.2393 -0.2699
52993W        W95905  33.741  28.217  21.073 -0.1132  0.1566 -0.0743
52994W        W95906  34.125  27.160  22.377  0.1545 -0.0593 -0.0466
52995W        W95907  33.613  26.344  20.724  0.1593  0.0982  0.0307
52996W        W95908  34.205  30.184  19.911  0.1603 -0.0190 -0.0159
52997W        W95909  32.656  24.611  21.695  0.5053  0.0356 -0.0743
52998W        W95910   0.316  26.378  19.088  0.2255 -0.0197 -0.1174
52999W        W95911  33.414  24.680  21.465  0.0315  0.0800 -0.0415
53000W        W95912  33.176  28.315  20.963 -0.1663  0.0362 -0.0809
53001W        W95913   1.488  28.758  20.108 -0.1709  0.0707 -0.1094
53002W        W95914  34.492  29.623  22.624 -0.1437  0.0062 -0.3305
53003W        W95915  34.046  28.210  24.293  0.2660  0.1081  0.1049
53004W        W95916  31.772  27.329  20.843  0.0453 -0.2984 -0.3188
53005W        W95917  33.664  27.726  23.939  0.1660 -0.0161 -0.0848
53006W        W95918   0.548  29.653  20.598 -0.3917 -0.0418  0.2999
53007W        W95919  34.301  29.030  19.789 -0.0146  0.0922 -0.0240
53008W        W95920  33.816  27.626  21.435  0.1565  0.4140 -0.2249
53009W        W95921  34.136  26.419  20.921  0.1395 -0.1833  0.2179
53010W        W95922  33.612  27.229  22.319 -0.1882  0.0604  0.1518
53011W        W95923  32.767  27.738  20.142 -0.0867  0.1610  0.0627
53012W        W95924  34.533  28.656  21.168 -0.1805 -0.0038 -0.1301
53013W        W95925  33.475  27.096  20.780 -0.1912  0.1460 -0.3227
53014W        W95926   0.718  25.096  24.510  0.1409 -0.0700  0.1001
53015W        W95927  33.089  27.348  22.199  0.1446  0.0405 -0.0916
53016W        W95928  32.545  27.730  22.188  0.1172  0.1184  0.3196
53017W        W95929  34.069  26.014  20.134 -0.2230 -0.1217 -0.0359
53018W        W95930  34.007  25.564  20.826  0.0734 -0.1999 -0.1181
53019W        W95931  33.106  24.955  21.718  0.0492 -0.1929 -0.2090
53020W        W95932  34.447  25.731  20.316 -0.1884 -0.1091  0.0514
53021W        W95933  32.691  28.218  20.884 -0.1595 -0.3054 -0.2567
53022W        W95934   0.204  27.400  21.764 -0.2638 -0.1101 -0.3515
53023W        W95935  33.945  26.178  22.057  0.1447  0.0601  0.8302
53024W        W95936  33.334  26.005  20.510  0.0202 -0.0753  0.1768
53025W        W95937  34.377  25.770  22.078  0.2699  0.2842  0.1839
53026W        W95938   1.737  28.774  23.228 -0.2724  0.0593  0.3120
53027W        W95939  34.310  29.732  23.377  0.1513 -0.1259  0.3824
53028W        W95940  33.861  25.860  25.246  0.2289  0.1709 -0.0699
53029W        W95941  34.538  29.051  23.648  0.0011  0.0471 -0.2372
53030W        W95942  34.129  25.107  23.679  0.1460  0.0557 -0.0764
53031W        W95943  33.469  28.622  23.156  0.0899 -0.0435  0.0804
53032W        W95944  33.210  25.101  20.753 -0.1615  0.2441  0.0508
53033W        W95945  34.118  26.436  21.492  0.1787 -0.0946 -0.2639
53034W        W95946   0.155  26.475  19.586  0.0669  0.0257  0.3396
53035W        W95947  32.793  25.453  21.689 -0.4753  0.3417  0.0666
53036W        W95948  34.041  27.054  20.021 -0.2119  0.2308 -0.0921
53037W        W95949  34.015  28.690  23.492 -0.1173 -0.4829  0.0687
53038W        W95950  32.365  24.139  21.764  0.5052 -0.1260 -0.0063
53039W        W95951   0.196  28.257  20.076 -0.2796  0.2381 -0.1973
53040W        W95952   0.888  28.825  22.642 -0.0104 -0.1876  0.0115
53041W        W95953  34.637  27.120  20.226 -0.0759  0.0611  0.2081
53042W        W95954  33.985  30.528  23.280 -0.0248  0.0467  0.1039
53043W        W95955  33.214  27.973  26.098  0.0758 -0.0846 -0.0746
53044W        W95956  33.322  27.590  24.473  0.3216  0.0691 -0.3153
53045W        W95957  32.940  25.341  25.234 -0.0598  0.0060 -0.0961
53046W        W95958  34.693  25.227  26.894 -0.0003 -0.2029  0.0668
53047W        W95959  34.075  25.322  27.261 -0.1564  0.0147 -0.1579
53048W        W95960  31.727  28.377  27.962  0.0765 -0.0448 -0.1046
53049W        W95961  33.804  26.348  25.549 -0.3115 -0.4552 -0.0156
53050W        W95962  33.273  25.526  26.303  0.3072  0.0084 -0.2451
53051W        W95963  33.218  27.497  23.980  0.1184 -0.2330 -0.1660
53052W        W95964  33.672  29.141  25.504  0.2574  0.0110  0.1208
53053W        W95965   0.248  26.132  24.639  0.3611  0.0304 -0.2114
53054W        W95966  33.122  25.643  26.847  0.3586 -0.1482  0.2291
53055W        W95967  33.730  28.604  24.610  0.1153  0.1307 -0.2038
53056W        W95968  32.836  26.499  22.214  0.3100  0.2277 -0.1288
53057W        W95969  32.932  26.152  26.859  0.3281 -0.2874 -0.1619
53058W        W95970  32.839  25.499  26.046 -0.0925 -0.1223  0.0161
53059W        W95971  34.000  28.972  25.065  0.0420 -0.0835 -0.2572
53060W        W95972  33.799  30.029  26.150  0.3074 -0.1840 -0.3693
53061W        W95973  33.444  29.450  24.242 -0.0459  0.2537 -0.3180
53062W        W95974  32.998  29.806  24.888 -0.2265  0.0057  0.1780
53063W        W95975  34.229  29.266  24.084  0.2840 -0.0207 -0.3573
53064W        W95976  32.873  28.804  27.674  0.0789 -0.0406 -0.1989
53065W        W95977  33.362  28.110  24.253 -0.0676  0.3061 -0.3287
53066W        W95978  33.937  26.716  27.637  0.0465  0.0716 -0.4666
53067W        W95979  33.906  28.806  22.947 -0.2162  0.0766 -0.1059
53068W        W95980   0.370  29.525  26.123  0.0174 -0.1761  0.2166
53069W        W95981  33.399  27.650  27.488 -0.0702 -0.1135  0.0073
53070W        W95982  32.594  29.082  25.404 -0.0292  0.1455 -0.1528
53071W        W95983  33.815  29.544  23.239  0.0135  0.1804 -0.2638
53072W        W95984  34.210  27.822  23.953  0.2553  0.1747 -0.1092
53073W        W95985  33.212  25.946  25.995 -0.0778  0.2970  0.2880
53074W        W95986  34.274  30.022  26.413 -0.1160 -0.0315  0.3233
53075W        W95987  33.305  24.700  26.837 -0.4056  0.3699  0.0714
53076W        W95988  32.462  28.068  27.880  0.0348 -0.0637 -0.0542
53077W        W95989  33.581  27.195  25.558  0.0748  0.1108  0.1579
53078W        W95990  32.621  29.584  24.514  0.2614 -0.1947 -0.0644
53079W        W95991  33.004  28.787  28.221 -0.4227 -0.0136  0.0240
53080W        W95992  32.169  26.297  26.186  0.0491  0.2310 -0.2277
53081W        W95993  33.202  26.041  24.680  0.0064 -0.1387  0.0793
53082W        W95994  33.012  27.955  27.574  0.1723  0.1222 -0.0227
53083W        W95995  33.667  27.629  25.999 -0.1389 -0.1704  0.0957
53084W        W95996  34.635  28.840  24.938  0.2402  0.1346  0.1371
53085W        W95997   0.256  27.733  25.208  0.0769  0.2653  0.2616
53086W        W95998  33.827  29.459  25.191 -0.1162  0.5174  0.2001
53087W        W95999  33.847  27.354  26.773 -0.0708  0.2792 -0.0444
53088W        W96000   0.026  28.461  27.394  0.1966  0.0743  0.1730
53089W        W96001  33.347  29.312  25.036 -0.3248  0.1479  0.3434
53090W        W96002  32.730  27.784  25.280  0.0774 -0.3502 -0.0487
53091W        W96003  32.863  27.830  23.975  0.4393 -0.2094 -0.0612
53092W        W96004  33.051  27.253  27.420  0.1539 -0.2835  0.2314
53093W        W96005  34.220  28.413  27.515 -0.1726 -0.0538 -0.0355
53094W        W96006  32.028  25.937  27.188 -0.0636  0.0622  0.1569
53095W        W96007  33.427  28.912  24.398  0.0337  0.0465  0.0720
53096W        W96008  32.295  27.600  26.337 -0.0620  0.1140  0.3969
53097W        W96009  33.894  25.974  24.767 -0.0387  0.1361 -0.2195
53098W        W96010  33.821  26.211  28.436 -0.1109  0.2047 -0.3433
53099W        W96011  34.152  26.227  27.498  0.2343  0.1219  0.2302
53100W        W96012  32.240  26.181  24.773  0.1742  0.1849  0.1764
53101W        W96013  34.332  27.693  25.258 -0.2250  0.1525 -0.0295
53102W        W96014  32.617  27.051  25.662  0.2260  0.1198 -0.0560
53103W        W96015  34.330  25.783  27.890 -0.0019 -0.0114  0.1594
53104W        W96016  33.278  26.970  24.021 -0.0052 -0.2205  0.1278
53105W        W96017  32.935  28.320  25.446 -0.0390 -0.1500 -0.0402
53106W        W96018  34.035  29.021  26.203 -0.2506  0.0262  0.0713
53107W        W96019  32.476  27.383  25.194  0.0919 -0.1549 -0.1572
53108W        W96020  32.918  27.620  27.053  0.0491 -0.1197 -0.0569
53109W        W96021  33.204  26.032  23.629 -0.2099 -0.1335 -0.1338
53110W        W96022  31.845  26.871  23.600  0.1759 -0.3811  0.1859
53111W        W96023  33.118  26.838  25.677 -0.1240 -0.0673  0.0100
53112W        W96024  33.920  30.235  24.562  0.2115  0.1130 -0.1247
53113W        W96025  30.914  28.584  28.173  0.1508 -0.1356  0.3157
53114W        W96026  33.291  27.759  23.144  0.2360  0.0839 -0.1091
53115W        W96027  31.707  27.396  27.589  0.1022  0.0867  0.1054
53116W        W96028  33.248  28.572  26.754 -0.0740 -0.1236  0.0880
53117W        W96029  33.809  27.561  25.405 -0.1527 -0.0960  0.4590
53118W        W96030  33.726  29.590  25.800  0.2084 -0.1653  0.1708
53119W        W96031  32.941  26.888  26.221  0.0548 -0.0252  0.2455
53120W        W96032   0.975  26.088  25.879  0.1813  0.0792 -0.0091
53121W        W96033  33.215  28.514  24.655  0.1906  0.0999  0.0825
53122W        W96034  33.115  29.362  22.964  0.0200  0.0853 -0.0524
53123W        W96035  34.384  25.364  27.732  0.2160 -0.1341 -0.0570
53124W        W96036  33.577  27.270  24.273  0.2346  0.0046 -0.2256
53125W        W96037  34.452  26.571  27.220 -0.0103  0.0714  0.1881
53126W        W96038  33.567  27.131  27.697 -0.0084 -0.1160  0.3600
53127W        W96039  32.710  28.885  27.199 -0.1210 -0.1935  0.0526
53128W        W96040  34.273  25.976  28.435  0.4267 -0.1416  0.0604
53129W        W96041  34.186  30.330  25.418  0.0300  0.0708 -0.1312
53130W        W96042  33.976  27.570  24.887  0.0433  0.1167  0.2107
53131W        W96043   0.606  25.621  26.505 -0.2880 -0.1109 -0.0737
53132W        W96044  33.750  29.762  26.667 -0.1619  0.2820  0.1149
53133W        W96045   0.380  28.321  23.619 -0.1444 -0.1904  0.2030
53134W        W96046  33.612  30.445  25.033  0.2065 -0.1565 -0.0744
53135W        W96047  33.616  29.723  24.772 -0.0465  0.0113  0.3836
53136W        W96048  33.622  26.296  24.452  0.1536  0.3372  0.1222
53137W        W96049  33.066  26.395  26.129 -0.0500  0.1047 -0.0029
53138W        W96050  33.383  26.017  26.542  0.0092  0.1297 -0.0428
53139W        W96051  33.410  25.829  27.229  0.0643 -0.1928 -0.4856
53140W        W96052  32.878  27.492  25.784  0.3045  0.1782 -0.3085
53141W        W96053  33.106  27.461  28.953 -0.1576 -0.0610 -0.0244
53142W        W96054  33.323  27.371  22.738 -0.0910  0.1912 -0.0779
53143W        W96055  33.317  27.164  26.025 -0.0847  0.3868  0.1820
53144W        W96056  32.226  29.304  26.358 -0.1868  0.0232 -0.1040
53145W        W96057  34.326  27.942  24.664  0.2218 -0.2374  0.1359
53146W        W96058  32.821  28.334  23.794 -0.0147 -0.2903  0.5016
53147W        W96059  33.451  27.125  28.150 -0.2526  0.4304  0.2445
53148W        W96060  34.020  26.821  26.689  0.0462  0.1020 -0.3432
53149W        W96061  33.243  25.486  25.778  0.1206 -0.0460 -0.1855
53150W        W96062  33.072  27.222  26.687  0.0348  0.0811 -0.0182
53151W        W96063  33.952  27.109  28.138  0.1358  0.0160 -0.1409
53152W        W96064   0.124  26.883  28.113 -0.2730 -0.0577  0.0997
53153W        W96065  33.424  28.729  23.665  0.0574  0.2230  0.1670
53154W        W96066  32.151  28.182  26.466 -0.2660  0.0589  0.1257
53155W        W96067  33.458  26.709  25.361 -0.0324  0.0674  0.1019
53156W        W96068   0.688  24.188  25.713  0.3913 -0.0361  0.1664
53157W        W96069  33.085  28.969  26.178 -0.3038 -0.1607 -0.0200
53158W        W96070  33.678  29.511  23.773  0.2400  0.0978 -0.0329
53159W        W96071  32.555  27.870  27.323 -0.2820  0.1031  0.2095
53160W        W96072  34.161  27.044  25.633 -0.2279  0.1009  0.0325
53161W        W96073  31.411  25.140  27.412  0.2396  0.1418 -0.1475
53162W        W96074  33.529  26.927  26.688  0.1395 -0.1018 -0.2362
53163W        W96075  33.623  26.198  27.500 -0.3346  0.2041  0.1193
53164W        W96076  33.246  26.489  23.873 -0.0885 -0.0760 -0.1121
53165W        W96077  34.337  28.567  26.023 -0.1945 -0.3982 -0.0179
53166W        W96078  34.608  29.208  24.648  0.0264 -0.0263 -0.0533
53167W        W96079  33.012  26.612  26.592 -0.0296 -0.1013  0.1879
53168W        W96080  34.198  27.183  25.152 -0.1465 -0.2290  0.0391
53169W        W96081  33.411  29.798  25.287 -0.0619 -0.0069 -0.1936
53170W        W96082  33.193  25.995  27.654 -0.3584 -0.0432  0.1044
53171W        W96083  34.199  26.297  26.727  0.0557 -0.2851 -0.0267
53172W        W96084  31.636  26.151  27.536  0.0627 -0.0842  0.1354
53173W        W96085  32.014  25.892  26.655  0.2494 -0.2088  0.2494
53174W        W96086  32.839  25.836  23.907 -0.1593 -0.0881  0.0548
53175W        W96087  33.634  29.256  22.824  0.0724  0.0978  0.0020
53176W        W96088  33.854  25.143  26.424 -0.0280 -0.4120  0.0189
53177W        W96089  32.248  29.255  27.613  0.1512  0.2431  0.1196
53178W        W96090  33.258  26.839  23.045  0.0203  0.2330  0.1106
53179W        W96091  33.991  28.432  25.061 -0.2279 -0.1928  0.1181
53180W        W96092  34.303  27.266  26.556 -0.1158 -0.1592  0.1135
53181W        W96093  33.654  26.242  26.019 -0.2823 -0.2817 -0.1412
53182W        W96094  32.656  28.136  22.838 -0.2016  0.0722 -0.1596
53183W        W96095  33.501  31.204  25.511  0.1730  0.1401  0.2049
53184W        W96096  31.663  27.328  26.114 -0.1121  0.2215  0.1113
53185W        W96097  33.684  29.220  24.676  0.2458 -0.0152 -0.1269
53186W        W96098  33.719  26.945  27.182 -0.1978 -0.0421 -0.0473
53187W        W96099  34.083  28.344  25.616 -0.1062 -0.1430 -0.1797
53188W        W96100  34.441  28.170  25.141  0.0545 -0.1065 -0.0923
53189W        W96101  32.620  26.954  26.600  0.0668  0.5271 -0.2729
53190W        W96102  32.700  26.058  24.294  0.0626  0.1278 -0.1830
53191W        W96103  32.260  28.833  29.006  0.0856 -0.3119  0.3597
53192W        W96104  32.586  27.883  26.048 -0.2881  0.1877 -0.0352
53193W        W96105  33.123  28.526  24.126 -0.0991  0.1794  0.0673
53194W        W96106  33.742  26.748  24.809 -0.2998  0.2297  0.2240
53195W        W96107  34.069  29.570  26.164  0.0053 -0.1090 -0.4363
53196W        W96108  32.962  28.958  24.884  0.4762  0.1512  0.0805
53197W        W96109  33.379  28.395  25.153 -0.1695  0.0572  0.3637
53198W        W96110  32.939  27.570  26.298 -0.0178 -0.2448  0.2115
53199W        W96111  34.323  25.558  25.067 -0.0049 -0.0725  0.1103
53200W        W96112  33.325  27.808  28.316 -0.1537  0.1909 -0.1420
53201W        W96113  32.158  29.165  28.491 -0.3103  0.2661 -0.2173
53202W        W96114  33.972  26.789  24.238  0.6083  0.1665  0.1452
53203W        W96115  34.601  28.953  25.814  0.1640  0.0380  0.0316
53204W        W96116   0.289  28.697  24.495  0.1271 -0.2594  0.3046
53205W        W96117  34.154  29.850  25.664  0.3260  0.0028 -0.0303
53206W        W96118  33.500  28.882  27.143 -0.0512  0.0294 -0.3042
53207W        W96119  33.302  29.270  26.684 -0.0758 -0.0772 -0.0678
53208W        W96120  32.250  25.320  24.482  0.2675  0.0806 -0.0736
53209W        W96121  33.449  26.480  26.925 -0.1577  0.2192 -0.1445
53210W        W96122  33.214  27.038  24.596  0.0364 -0.0787 -0.0137
53211W        W96123  32.901  25.874  26.398  0.3998  0.0360  0.1273
53212W        W96124  34.036  27.280  24.443 -0.0467  0.0494  0.0449
53213W        W96125  33.722  25.876  23.834  0.0947 -0.0065  0.2381
53214W        W96126  32.575  28.615  24.696 -0.2808 -0.0328 -0.0629
53215W        W96127  33.176  26.854  27.074 -0.1528 -0.0848  0.4825
53216W        W96128  31.998  26.594  24.585  0.0083 -0.0004 -0.4059
53217W        W96129  33.628  29.784  22.742 -0.0142  0.0039  0.1332
53218W        W96130  32.254  26.520  27.437  0.3117  0.1798 -0.1541
53219W        W96131   0.107  27.009  24.914  0.4029  0.2491  0.1318
53220W        W96132   0.000  27.070  27.189  0.0774  0.0435  0.1257
53221W        W96133  32.366  29.091  24.396  0.1253 -0.0694  0.2014
53222W        W96134  33.775  28.412  22.695  0.0441  0.0718  0.0221
53223W        W96135   0.200  29.617  26.970  0.0593 -0.1114 -0.0349
53224W        W96136  33.318  28.018  27.119  0.0943 -0.1044 -0.1864
53225W        W96137  32.839  27.626  23.521  0.1914  0.1912  0.0536
53226W        W96138   0.452  27.338  27.257  0.1104 -0.1207 -0.0902
53227W        W96139  33.664  28.396  27.300  0.2645 -0.4573  0.1553
53228W        W96140  34.081  29.769  23.828 -0.0610 -0.0188  0.4574
53229W        W96141   1.530  27.078  24.113 -0.1055  0.0645  0.2975
53230W        W96142   0.101  26.670  27.579  0.0711 -0.0505  0.0423
53231W        W96143  32.690  27.115  27.057 -0.2015 -0.1658  0.1570
53232W        W96144  32.320  26.609  23.769 -0.2375 -0.1136  0.0022
53233W        W96145  33.317  28.030  24.753 -0.0643 -0.2644  0.3812
53234W        W96146  32.636  26.374  26.433 -0.2372 -0.0304  0.1828
53235W        W96147  34.663  26.046  28.691 -0.0063 -0.2638  0.0716
53236W        W96148  32.657  27.354  27.823  0.0251  0.0153  0.1352
53237W        W96149  32.171  27.786  25.123  0.0136  0.4465 -0.0449
53238W        W96150  33.474  27.128  25.004 -0.2578  0.3045 -0.0798
53239W        W96151  33.637  25.830  25.714 -0.0317  0.0894 -0.0178
53240W        W96152  30.760  25.853  25.632 -0.2910  0.1009  0.1500
53241W        W96153  34.550  26.846  25.350 -0.1475 -0.0003 -0.1429
53242W        W96154  33.554  27.279  23.609 -0.3881  0.0219 -0.0601
53243W        W96155  33.590  27.672  28.944  0.0820  0.0951 -0.0368
53244W        W96156  33.935  25.326  27.888 -0.1969  0.1251 -0.1298
53245W        W96157  32.745  26.389  23.884 -0.0998  0.2133  0.3623
53246W        W96158   0.098  27.273  26.676 -0.1323 -0.1869  0.2757
53247W        W96159  34.533  29.291  26.161  0.1817  0.1447  0.3607
53248W        W96160  34.249  29.568  26.637 -0.0922 -0.0537 -0.2389
53249W        W96161  31.856  26.454  27.133 -0.1926 -0.1951 -0.4221
53250W        W96162   0.066  28.086  27.913 -0.1107  0.1536  0.1491
53251W        W96163  33.926  26.101  27.985  0.1725 -0.1298  0.0651
53252W        W96164  33.268  28.481  26.223  0.0941 -0.0832  0.2916
53253W        W96165  33.626  25.597  26.622 -0.2458 -0.1286 -0.0858
53254W        W96166  34.090  27.809  25.771  0.1809 -0.0571 -0.2146
53255W        W96167  33.966  26.698  26.194 -0.1738  0.0737 -0.0238
53256W        W96168   0.297  28.402  26.950  0.0324  0.0739 -0.0232
53257W        W96169   0.324  27.445  23.995  0.3961  0.2134 -0.1728
53258W        W96170  34.423  29.838  28.278 -0.1350  0.0064 -0.2521
53259W        W96171  34.606  24.749  26.579  0.1328  0.2351  0.0921
53260W        W96172   0.061  28.147  24.732 -0.0904  0.2609  0.1169
53261W        W96173  33.772  28.071  25.345  0.3256 -0.0579 -0.0963
53262W        W96174  32.672  25.783  25.597 -0.3878  0.6347 -0.0832
53263W        W96175  33.433  28.861  25.842  0.0129 -0.1949  0.1622
53264W        W96176  33.587  28.045  30.605 -0.1388 -0.1519  0.2690
53265W        W96177  32.449  28.081  28.500  0.0005  0.1793 -0.1935
53266W        W96178  32.666  28.028  29.485  0.1674  0.1354  0.1284
53267W        W96179  32.530  26.284  30.722 -0.1081 -0.1509 -0.1450
53268W        W96180  34.335  26.884  29.843  0.1097 -0.1874 -0.0041
53269W        W96181  32.388  29.557  29.444  0.1516  0.4131  0.1420
53270W        W96182  33.536  24.463  29.542 -0.0382  0.0769 -0.2176
53271W        W96183  32.366  26.445  30.302 -0.0077  0.1008  0.1951
53272W        W96184  33.052  28.310  28.378  0.0839 -0.0225  0.0316
53273W        W96185  32.631  27.098  29.682 -0.3403  0.0098 -0.0384
53274W        W96186  33.791  26.535  28.973 -0.1261  0.0476 -0.5184
53275W        W96187  33.520  25.961  29.527 -0.4759 -0.1005 -0.2376
53276W        W96188   0.136  29.024  28.540  0.3101 -0.0376 -0.0347
53277W        W96189  32.435  27.639  28.238  0.2029  0.4998 -0.0409
53278W        W96190  32.923  28.085  30.035  0.1323 -0.1725  0.2044
53279W        W96191  32.955  28.125  30.554 -0.0888 -0.4182 -0.2275
53280W        W96192  33.430  29.159  29.276  0.2576  0.0906 -0.0240
53281W        W96193  34.282  29.293  29.097  0.0517  0.0640  0.1100
53282W        W96194  33.426  28.878  30.329  0.0186  0.1288 -0.2781
53283W        W96195  33.589  28.218  29.747 -0.0281 -0.2431 -0.2114
53284W        W96196  34.189  27.619  27.805  0.1955  0.2156  0.0811
53285W        W96197  34.070  27.937  30.661 -0.0324 -0.3293  0.0259
53286W        W96198  32.622  28.482  28.081 -0.1903 -0.1077  0.0547
53287W        W96199  33.538  27.182  30.215 -0.0846  0.1423 -0.3366
53288W        W96200  34.163  27.484  28.600 -0.1166 -0.2480  0.2090
53289W        W96201   1.383  27.606  28.846  0.0804  0.3935 -0.3215
53290W        W96202  32.892  28.091   0.009  0.0069 -0.0682 -0.0997
53291W        W96203  34.237  28.369  28.958 -0.1705  0.1206  0.3123
53292W        W96204  33.386  28.004  27.851 -0.0161 -0.2098 -0.0808
53293W        W96205  34.226  25.062  26.770  0.1982  0.0446  0.0887
53294W        W96206   0.574  24.722  29.951 -0.2152  0.2582  0.1999
53295W        W96207  32.745  29.490  29.939  0.2244 -0.1504 -0.3787
53296W        W96208  34.353  26.505  30.198 -0.1623 -0.0237 -0.0733
53297W        W96209  34.290  28.206  29.900  0.1412  0.0388 -0.2043
53298W        W96210  34.028  27.842  29.645 -0.0642  0.2690  0.1860
53299W        W96211  32.123  28.435  28.298  0.0312 -0.2479 -0.0443
53300W        W96212  31.451  28.591  29.793  0.0387 -0.1094  0.2812
53301W        W96213  32.949  26.809  31.432  0.1410  0.0657 -0.0187
53302W        W96214  34.601  25.124  28.120 -0.0233 -0.0325  0.0785
53303W        W96215  32.764  27.964  31.044  0.2149  0.1454 -0.0171
53304W        W96216  34.081  27.620  29.128 -0.0912  0.3137  0.4960
53305W        W96217   0.541  26.591  27.856  0.4017 -0.1429  0.2283
53306W        W96218  34.321  27.223  28.973  0.0972  0.2004 -0.1351
53307W        W96219  32.983  29.075  30.250  0.1807 -0.2630 -0.0545
53308W        W96220  33.761  27.485  30.641  0.2461  0.1775 -0.2509
53309W        W96221  34.539  29.247  30.616 -0.3055 -0.0239 -0.1241
53310W        W96222  32.028  27.666  28.526  0.3394  0.0841  0.4853
53311W        W96223  31.306  28.896  28.955  0.2992  0.1928  0.0476
53312W        W96224  33.710  28.124  26.277 -0.0421 -0.0197 -0.1557
53313W        W96225  32.050  25.584  30.107  0.0250  0.0111 -0.0954
53314W        W96226   0.342  27.820  28.318 -0.2080  0.0609  0.0551
53315W        W96227  31.683  27.354  30.684  0.2134  0.4098 -0.3528
53316W        W96228  32.313  28.807  29.517 -0.3345 -0.0241 -0.1437
53317W        W96229  32.268  26.964  31.331  0.1233  0.0963 -0.0772
53318W        W96230  34.384  26.296  27.963 -0.1059 -0.0999 -0.0100
53319W        W96231  32.893  26.437  31.765 -0.1845  0.3343 -0.1491
53320W        W96232  32.939  25.891  30.442  0.1222 -0.1728  0.0073
53321W        W96233  32.553  24.708  28.735  0.2169 -0.3324 -0.1640
53322W        W96234   0.498  26.646  28.397  0.1939 -0.1563  0.1514
53323W        W96235  33.526  28.134  28.728 -0.0191  0.0882  0.0290
53324W        W96236  33.180  26.301  29.875  0.0876  0.1081  0.1180
53325W        W96237  32.369  27.734  28.920 -0.1590 -0.1850  0.2753
53326W        W96238  33.736  29.142  30.662 -0.1866 -0.0824  0.3020
53327W        W96239   0.019  27.352  28.668 -0.3163 -0.2249 -0.1786
53328W        W96240  33.668  26.496  29.685 -0.0698 -0.1739 -0.0900
53329W        W96241  33.830  28.679  30.493 -0.0958  0.1775  0.1994
53330W        W96242  33.930  25.663  28.301 -0.3617 -0.1218  0.1657
53331W        W96243  33.830  29.302  27.873 -0.0597 -0.1484  0.1487
53332W        W96244  31.755  26.340  29.456 -0.0668  0.0272  0.0533
53333W        W96245   0.074  28.361  29.577 -0.2349 -0.0104 -0.0232
53334W        W96246  32.228  27.515  31.541 -0.1485  0.2336  0.0723
53335W        W96247  33.903  26.490  27.074 -0.3588  0.1292 -0.1492
53336W        W96248  33.157  28.609  31.949  0.1655  0.1106 -0.5409
53337W        W96249  32.514  28.321  30.275 -0.0004 -0.1370  0.0832
53338W        W96250   0.214  27.637  27.646 -0.1434 -0.0605  0.1418
53339W        W96251   0.881  27.442  28.953 -0.2326 -0.2009  0.0985
53340W        W96252  34.130  28.614  31.211  0.1604 -0.0698  0.1413
53341W        W96253  32.743  26.200  30.070  0.3516  0.2190  0.0584
53342W        W96254  33.488  26.038  28.891 -0.1528 -0.0752 -0.0430
53343W        W96255  34.419  29.182  27.595 -0.1323  0.0001  0.1325
53344W        W96256  33.678  26.086  30.016  0.0571  0.2261  0.2605
53345W        W96257  33.006  26.965  27.841 -0.1121 -0.0378 -0.1098
53346W        W96258  33.513  25.882  31.302 -0.2337  0.1865  0.0448
53347W        W96259  33.779  27.661  31.937 -0.0302  0.0599  0.0459
53348W        W96260  33.861  28.252  30.135 -0.0305 -0.1943  0.0764
53349W        W96261  33.632  25.312  30.570 -0.2067 -0.1468 -0.0415
53350W        W96262  34.509  28.690  28.402  0.0192  0.0068  0.2356
53351W        W96263  33.928  27.817  28.177  0.0322 -0.1362 -0.0020
53352W        W96264  33.891  25.590  29.270  0.1324  0.3517  0.2575
53353W        W96265   0.037  27.109  29.526 -0.1917  0.1182 -0.0745
53354W        W96266  33.714  27.543  27.835 -0.3899  0.0319 -0.4807
53355W        W96267  32.581  28.503  28.611  0.0196  0.0062  0.1979
53356W        W96268  31.723  29.166  29.037 -0.0698  0.2475  0.3947
53357W        W96269  34.358  25.571  28.880  0.0683 -0.1560 -0.0913
53358W        W96270  32.149  28.347  28.823 -0.5255  0.1839 -0.1331
53359W        W96271  33.037  26.387  30.444  0.3074 -0.0798  0.0061
53360W        W96272  33.674  24.744  30.454 -0.1143  0.0119 -0.2600
53361W        W96273  33.172  29.267  29.707  0.0386  0.0934  0.2503
53362W        W96274  34.348  26.940  30.405  0.1175  0.0300  0.0573
53363W        W96275  32.716  27.087  29.158 -0.0293  0.0834  0.0181
53364W        W96276  34.442  27.997  29.343 -0.2656 -0.0600  0.0282
53365W        W96277  33.941  29.090  28.404 -0.1072 -0.2066  0.0472
53366W        W96278  33.185  28.517  27.266  0.1742 -0.0895 -0.1722
53367W        W96279  33.200  27.897  29.642  0.1932  0.1637 -0.1054
53368W        W96280  33.162  27.033  30.612 -0.4072 -0.0232  0.2391
53369W        W96281  34.208  26.474  28.727 -0.1377 -0.1118 -0.0120
53370W        W96282  33.153  28.030  29.152 -0.2599  0.2951  0.1430
53371W        W96283   0.151  26.896  28.594  0.4164  0.1251 -0.1693
53372W        W96284  33.548  27.010  31.067  0.2523  0.0882  0.1754
53373W        W96285  31.013  27.448  30.518 -0.1500  0.1805  0.0696
53374W        W96286  33.742  28.473  27.833  0.1936  0.1489 -0.0028
53375W        W96287  31.986  26.430  30.739 -0.1138 -0.1079 -0.0590
53376W        W96288   0.045  27.502  29.204 -0.0155  0.0253  0.0399
53377W        W96289  33.521  27.028  29.713 -0.2219  0.6018 -0.1186
53378W        W96290  33.885  29.611  29.098 -0.0725  0.0087 -0.0544
53379W        W96291  32.981  27.402  28.406 -0.1083  0.1290  0.2633
53380W        W96292  32.262  29.271  31.923  0.1403 -0.0660  0.2083
53381W        W96293  34.262  27.317  29.501  0.2616 -0.1478 -0.0115
53382W        W96294  33.264  24.319  29.149 -0.1340 -0.0909  0.1526
53383W        W96295  32.624  27.626  31.853 -0.0957 -0.1637  0.1522
53384W        W96296  33.488  27.269   0.138  0.0571 -0.0730 -0.3109
53385W        W96297  33.377  26.671  27.514 -0.2335  0.0644  0.1672
53386W        W96298  33.973  27.208  29.927 -0.2780  0.3968  0.2904
53387W        W96299  34.620  28.086  27.004 -0.1255 -0.1552  0.2546
53388W        W96300  33.190  29.063  30.717 -0.0023 -0.0325 -0.3046
53389W        W96301   1.240  27.514  27.572 -0.1989  0.0081 -0.0680
53390W        W96302   0.034  28.316  29.040  0.3003 -0.1491  0.0496
53391W        W96303  33.155  26.916   0.225 -0.0209  0.1095  0.2752
53392W        W96304  34.470  27.350  30.051 -0.3143  0.1022 -0.1261
53393W        W96305  32.149  26.995  29.863  0.1000  0.1494  0.1107
53394W        W96306  33.737  28.076  29.257 -0.1201 -0.1160  0.0016
53395W        W96307  34.699  26.174  27.345  0.0135 -0.0300 -0.0800
53396W        W96308   0.078  29.932  27.888  0.0921 -0.1925  0.0064
53397W        W96309  32.759  26.821  30.406  0.2075  0.2443  0.2196
53398W        W96310  33.289  29.902  30.816 -0.1258  0.1732 -0.0704
53399W        W96311  32.522  26.101  27.214  0.0782  0.2071 -0.1663
53400W        W96312   0.672  27.527  28.038  0.0779  0.0375 -0.0939
53401W        W96313   0.261  27.925  29.357  0.3182  0.0753 -0.0484
53402W        W96314  33.422  27.138  28.702 -0.1579  0.1153 -0.0595
53403W        W96315  33.232  29.008  28.723 -0.0500  0.1506 -0.3455
53404W        W96316  32.995  29.575  30.425 -0.1137 -0.0681 -0.1569
53405W        W96317  32.103  27.190  30.940  0.3359 -0.1840 -0.0793
53406W        W96318  33.527  28.916  28.176  0.1893  0.0959  0.0774
53407W        W96319  34.471  27.789  28.839 -0.0352  0.0071  0.2835
53408W        W96320  33.994  26.673  31.000  0.0877 -0.1008 -0.0965
53409W        W96321   0.108  27.026  30.120  0.1471  0.1507 -0.0899
53410W        W96322  32.665  27.822   0.405  0.0308 -0.0966  0.1043
53411W        W96323  34.007  26.598  28.176  0.2251  0.2539 -0.3514
53412W        W96324  33.105  28.177  31.537  0.1787 -0.1555  0.0373
53413W        W96325  33.588  27.636  29.452 -0.1576 -0.2864 -0.1967
53414W        W96326   0.440  28.316  28.225  0.1569 -0.0080 -0.1223
53415W        W96327  34.037  26.006  28.914  0.1259 -0.0106 -0.1328
53416W        W96328  32.493  29.721  30.717  0.0044  0.1901 -0.0573
53417W        W96329  33.627  28.704  28.615 -0.1600 -0.1511  0.1160
53418W        W96330  34.007  29.858  29.573  0.2795  0.0479  0.3186
53419W        W96331   0.275  27.516  29.845 -0.0133 -0.1065  0.0031
53420W        W96332  34.089  27.181  27.636  0.2736 -0.1081 -0.3154
53421W        W96333  34.316  26.838  31.329 -0.0962  0.0844  0.1116
53422W        W96334  33.534  30.277  31.535  0.2114 -0.1682 -0.0541
53423W        W96335  31.731  27.269  28.591 -0.0833  0.1163 -0.1822
53424W        W96336   0.521  27.271  28.533  0.0204 -0.1465 -0.1532
53425W        W96337  34.421  28.010  26.106  0.1419 -0.3698  0.2907
53426W        W96338  34.599  28.222  28.546  0.0293 -0.2522 -0.0815
53427W        W96339  33.654  27.818  30.178 -0.0335  0.0057 -0.3690
53428W        W96340   0.563  28.512  29.725  0.2743 -0.1190  0.1942
53429W        W96341  33.243  26.409  29.353  0.2974  0.1238 -0.1335
53430W        W96342  31.969  27.435  30.257  0.2650  0.1742  0.2507
53431W        W96343  33.453  26.605  30.140  0.1110 -0.4201 -0.1310
53432W        W96344  31.968  26.521  30.013  0.0198 -0.0793  0.0254
53433W        W96345  32.982  26.359  27.350 -0.0487 -0.1586 -0.1732
53434W        W96346  32.743  27.604  29.231  0.4150 -0.1100 -0.0484
53435W        W96347  33.976  28.906  28.895 -0.1685  0.2230  0.1381
53436W        W96348   0.463  27.422  29.376 -0.2916  0.0921  0.0884
53437W        W96349  33.658  25.414  29.723  0.1558 -0.2994  0.1688
53438W        W96350  32.919  27.897  28.652  0.1749  0.1283 -0.2258
53439W        W96351  32.390  26.756  29.334  0.0468  0.0264  0.0944
53440W        W96352   0.057  25.300  29.147  0.0332 -0.0947  0.1785
53441W        W96353  33.032  28.434  28.852 -0.0696 -0.3475  0.1732
53442W        W96354  34.423  28.660  29.509  0.1931  0.0482  0.0064
53443W        W96355   1.448  29.394  26.884  0.0864  0.0068 -0.1277
53444W        W96356   1.439  27.968  28.453 -0.4295  0.1382  0.2138
53445W        W96357  33.724  29.010   0.351 -0.0711  0.0144 -0.2218
53446W        W96358  34.297  26.906  28.528 -0.2235 -0.0740  0.1047
53447W        W96359   0.512  28.345  29.272  0.1111 -0.1710 -0.1971
53448W        W96360  33.560  27.176  29.227  0.0993  0.0704 -0.0031
53449W        W96361   0.042  29.181  28.002 -0.0526 -0.0403  0.0716
53450W        W96362  34.142  24.879  31.286 -0.0963  0.4493  0.0586
53451W        W96363  33.233  26.309  28.507 -0.2712 -0.0898  0.1658
53452W        W96364  33.355  28.636  30.805 -0.0747  0.1282  0.1302
53453W        W96365  32.045  28.436  29.322 -0.2590  0.0960 -0.0421
53454W        W96366  32.860  28.150  27.006 -0.0607 -0.0431 -0.1173
53455W        W96367  32.192  27.148  28.927  0.4819 -0.1273 -0.3743
53456W        W96368  33.779  26.855  30.595  0.0004  0.1186 -0.0103
53457W        W96369  33.595  26.881  31.650 -0.2271 -0.0684  0.1132
53458W        W96370  33.527  28.721  29.864  0.1114 -0.0238 -0.0535
53459W        W96371  33.885  27.014  28.831 -0.0751 -0.4306  0.4068
53460W        W96372  33.616  26.661  28.519  0.0864 -0.0239 -0.3001
53461W        W96373  33.050  25.847  28.646  0.0278 -0.2043 -0.3049
53462W        W96374  33.950  26.225  29.367  0.5779  0.0746 -0.1315
53463W        W96375  33.709  27.474  28.499 -0.0796 -0.1151  0.1112
53464W        W96376   1.063  27.864   0.802 -0.2474 -0.0449 -0.2921
53465W        W96377  33.256  27.637  30.490 -0.1397 -0.1695 -0.1315
53466W        W96378  32.907  25.744  27.262  0.1828  0.2968 -0.0731
53467W        W96379  34.614  28.118  30.237  0.2774  0.0982  0.0801
53468W        W96380  32.854  28.476  30.945  0.3790 -0.0808 -0.0266
53469W        W96381   1.161  27.875  29.770 -0.2085  0.0636 -0.2721
53470W        W96382  33.408  25.938  30.779 -0.1874 -0.0683 -0.1304
53471W        W96383  32.572  27.542  31.198  0.2267 -0.0369 -0.1866
53472W        W96384  32.905  26.184  31.050  0.1918  0.1236  0.2717
53473W        W96385  33.915  26.733  30.096 -0.0875  0.2092 -0.2149
53474W        W96386  32.924  26.929  28.728 -0.1519 -0.0290 -0.2198
53475W        W96387  33.268  27.541  29.960  0.0876 -0.1429 -0.2870
53476W        W96388  34.282  26.379  29.704  0.4405  0.0175  0.1601
53477W        W96389   0.091  26.468  29.960  0.0062  0.1894 -0.1498
53478W        W96390  34.617  26.481  28.383 -0.1981  0.0960  0.0536
53479W        W96391   0.768  28.912  29.408  0.1591  0.0445  0.0413
53480W        W96392  32.198  25.553  30.713 -0.0511 -0.0448  0.2134
53481W        W96393  33.986  27.975  28.799 -0.0401  0.1387 -0.0800
53482W        W96394   0.222  27.379  28.139  0.0652  0.0963 -0.0652
53483W        W96395  33.057  27.395  29.496  0.1654 -0.0725  0.1575
53484W        W96396  34.487  29.654  31.057 -0.0228  0.0044  0.1290
53485W        W96397  32.227  27.904   0.648  0.2177  0.3872  0.0272
53486W        W96398  34.056  28.481   1.512  0.2217 -0.0897  0.3076
53487W        W96399  32.759  29.272  30.884 -0.0006  0.0531  0.0142
53488W        W96400  32.919  28.609  30.355 -0.0110  0.2333 -0.0475
53489W        W96401  32.840  26.622  29.114 -0.1677  0.0760  0.0111
53490W        W96402  31.847  26.912  31.686 -0.1610  0.1918 -0.0061
53491W        W96403  33.267  27.568   0.735  0.1110 -0.3468 -0.0657
53492W        W96404  33.814  30.880  29.654 -0.0911  0.2532  0.0555
53493W        W96405  34.474  28.091   0.036 -0.0994 -0.4238 -0.1501
53494W        W96406   1.044  24.879  29.742 -0.0965 -0.3609  0.1234
53495W        W96407  32.666  26.615   0.299 -0.0572  0.0659  0.0339
53496W        W96408  31.666  26.913  30.078 -0.0500  0.0328 -0.1407
53497W        W96409  33.060  28.338  29.517  0.1108  0.1437  0.1531
53498W        W96410  33.994  28.099  31.828 -0.1862  0.2705 -0.0845
53499W        W96411  33.853  30.588  31.712 -0.0060 -0.0466 -0.0047
53500W        W96412  33.817  27.678  31.115  0.0444  0.0147 -0.1940
53501W        W96413  34.625  27.808  30.649 -0.1265  0.4902  0.0177
53502W        W96414  33.344  28.647   0.451  0.0279 -0.1658 -0.0755
53503W        W96415  33.008  27.674  31.429 -0.0129  0.3304 -0.0442
53504W        W96416  32.996  26.612  30.906  0.0773  0.0646  0.0588
53505W        W96417  32.594  28.023  31.531 -0.0392  0.1860 -0.0374
53506W        W96418  34.343  29.380   0.932  0.1846 -0.0909 -0.0042
53507W        W96419   0.336  28.394  30.845  0.1037  0.1367  0.0872
53508W        W96420  34.041  27.256  31.232 -0.0027  0.0636 -0.0673
53509W        W96421   0.157  27.254  31.801 -0.1570  0.0028 -0.0128
53510W        W96422  32.477  26.736  31.739 -0.0093 -0.0613  0.1011
53511W        W96423  33.759  28.882  31.057 -0.1364  0.1341  0.0554
53512W        W96424  33.319  26.450  31.323  0.0017  0.0302 -0.1394
53513W        W96425  33.253  28.154  31.054 -0.5672 -0.0347 -0.1783
53514W        W96426   0.111  26.510  31.901 -0.0389 -0.3163  0.0110
53515W        W96427  33.303  27.424  30.942  0.0415  0.0544 -0.2734
53516W        W96428   1.181  26.740  31.261 -0.2140 -0.2267 -0.0547
53517W        W96429  32.963  28.337   0.775  0.3410 -0.2203 -0.1645
53518W        W96430   0.311  28.009  29.828  0.0305 -0.3253  0.0931
53519W        W96431  31.369  25.142   0.792 -0.1121 -0.1849 -0.2026
53520W        W96432  31.963  27.947  31.640  0.0896 -0.1226  0.0647
53521W        W96433  33.358  27.310  31.424  0.0809 -0.0407 -0.0528
53522W        W96434  32.860  27.166  31.049  0.1151  0.0212 -0.0092
53523W        W96435  32.244  25.810  31.600  0.4110 -0.0221 -0.2287
53524W        W96436  33.227  30.937  18.269 -0.2569 -0.1993 -0.2572
53525W        W96437  34.571  30.461  16.397 -0.4937 -0.0051  0.2003
53526W        W96438  32.418  30.692  17.429  0.2018 -0.0346  0.4415
53527W        W96439  33.322  28.532  18.622 -0.1522  0.1319  0.0226
53528W        W96440  33.835  29.943  18.080  0.1997  0.1550 -0.1328
53529W        W96441   0.181  31.627  17.634 -0.0070 -0.1473 -0.0472
53530W        W96442  34.002  28.690  17.237 -0.1276 -0.1355 -0.2711
53531W        W96443  32.344  28.994  18.172 -0.0286  0.2118 -0.1288
53532W        W96444  33.086  31.174  16.545 -0.2084  0.0839 -0.1076
53533W        W96445  32.960  31.860  18.001  0.3187 -0.2964 -0.0169
53534W        W96446  33.844  30.717  16.954  0.0675 -0.4188  0.0820
53535W        W96447  32.736  30.517  18.840  0.2441  0.1265  0.1470
53536W        W96448  33.887  32.966  17.561  0.3334  0.1949 -0.0047
53537W        W96449  33.175  31.567  16.216  0.2713  0.2077 -0.0186
53538W        W96450  34.052  29.187  17.768 -0.0677  0.1988  0.0259
53539W        W96451  33.397  31.214  18.705 -0.0267  0.1601 -0.0176
53540W        W96452  34.405  31.543  17.794  0.0364 -0.1514 -0.3896
53541W        W96453   0.451  32.691  18.628 -0.4330 -0.1397 -0.0037
53542W        W96454  32.051  31.802  17.752 -0.3937 -0.0862 -0.0097
53543W        W96455  32.658  32.156  16.738  0.0131  0.1996  0.0284
53544W        W96456  33.563  33.127  17.210  0.1663  0.1878 -0.0787
53545W        W96457  32.216  34.034  19.967 -0.0823  0.0409 -0.0800
53546W        W96458  33.272  32.058  16.358  0.0305 -0.1748  0.0640
53547W        W96459  34.124  30.797  18.437 -0.0723  0.1997 -0.2291
53548W        W96460  34.144  33.053  17.096  0.1063  0.2136  0.5010
53549W        W96461  34.000  32.591  17.180  0.0848  0.2061 -0.2232
53550W        W96462  33.260  32.084  18.411  0.1132 -0.0007 -0.0223
53551W        W96463  32.233  30.291  18.372  0.0698 -0.0431  0.1371
53552W        W96464  34.639  33.623  17.540 -0.1382 -0.1332  0.0505
53553W        W96465   1.355  30.823  17.580  0.0119 -0.2287  0.0421
53554W        W96466  34.483  28.498  17.507  0.1115 -0.1769  0.3201
53555W        W96467  33.422  33.366  18.825  0.0839  0.1332 -0.1747
53556W        W96468  33.543  30.820  17.744 -0.0678  0.1562 -0.0208
53557W        W96469  33.740  32.319  18.179 -0.1471 -0.0747  0.1791
53558W        W96470  33.135  29.067  16.913 -0.0241 -0.0199 -0.0346
53559W        W96471  32.880  30.321  16.693  0.2115 -0.1325  0.0086
53560W        W96472  31.722  31.824  18.811  0.0395  0.1446  0.3549
53561W        W96473  32.547  30.496  19.763 -0.1909 -0.0035 -0.0706
53562W        W96474  33.191  30.017  15.792 -0.2824 -0.0499  0.0265
53563W        W96475  31.640  32.511  19.212 -0.0689  0.3672  0.0992
53564W        W96476  33.412  32.596  18.349  0.1427  0.3543  0.1144
53565W        W96477  34.347  31.553  17.249  0.0647 -0.0813  0.3347
53566W        W96478  33.888  31.182  16.783 -0.0274 -0.3497  0.0477
53567W        W96479  32.592  31.537  18.713 -0.0506  0.1290 -0.0946
53568W        W96480  34.399  29.218  19.229 -0.1823  0.0629  0.0751
53569W        W96481   0.172  31.345  19.615 -0.1045  0.1308  0.2942
53570W        W96482  33.344  32.735  16.915 -0.2748 -0.1292 -0.1543
53571W        W96483  32.011  31.331  18.035  0.0363  0.2230 -0.2701
53572W        W96484  33.795  31.318  16.261 -0.0397 -0.0065  0.1613
53573W        W96485  32.732  30.821  18.347 -0.0624  0.0848 -0.1208
53574W        W96486  33.752  31.116  17.256  0.2580  0.1152  0.0721
53575W        W96487  32.616  28.831  19.881 -0.2975  0.0188 -0.0769
53576W        W96488  33.527  30.139  16.800  0.1543  0.1158  0.0433
53577W        W96489  32.557  31.114  17.887  0.0352 -0.0280 -0.2041
53578W        W96490  34.124  31.041  17.923 -0.2787  0.1299 -0.0870
53579W        W96491   0.856  29.979  19.011  0.0694 -0.1003 -0.1669
53580W        W96492  33.275  30.406  18.555 -0.1968  0.1468 -0.1510
53581W        W96493  33.680  29.155  16.739  0.1508  0.0469  0.1636
53582W        W96494  34.316  32.103  16.541  0.0096  0.0739  0.1050
53583W        W96495  32.404  30.058  16.542 -0.2078 -0.0217  0.1721
53584W        W96496   0.045  30.341  19.090  0.0927 -0.2447  0.1917
53585W        W96497  33.447  29.636  16.931 -0.0934 -0.1634  0.2455
53586W        W96498  33.909  33.678  18.639  0.4650 -0.1450 -0.0644
53587W        W96499  33.526  32.237  19.360  0.0039  0.0545  0.5774
53588W        W96500   1.314  29.827  16.776  0.0973  0.0614  0.1513
53589W        W96501  33.906  31.398  18.565 -0.0830 -0.1129 -0.0282
53590W        W96502  33.570  30.908  16.559  0.4193  0.0860  0.4591
53591W        W96503  33.070  32.949  15.572 -0.1232  0.1905  0.1932
53592W        W96504  33.288  30.549  16.741  0.1160 -0.1571 -0.2190
53593W        W96505  34.334  32.405  17.592  0.0026  0.2326 -0.0018
53594W        W96506  32.824  30.720  20.588 -0.1080 -0.0634  0.3477
53595W        W96507  33.465  30.999  16.050 -0.0323  0.0384  0.2217
53596W        W96508  32.868  31.353  18.246  0.0316 -0.1593  0.3511
53597W        W96509  31.780  33.564  21.034  0.3177 -0.2237  0.2960
53598W        W96510  34.114  31.991  17.510  0.1533 -0.1545  0.0464
53599W        W96511   0.210  32.351  17.504 -0.1356  0.1975  0.1032
53600W        W96512  32.806  31.341  20.180  0.1641  0.2270 -0.1061
53601W        W96513   0.836  30.730  17.681 -0.1531 -0.0625 -0.0993
53602W        W96514   0.269  29.332  17.245 -0.0769  0.2479  0.1778
53603W        W96515  32.650  32.682  16.387  0.1002  0.1391 -0.0061
53604W        W96516  33.655  30.319  17.759  0.1270  0.3003  0.0159
53605W        W96517  34.005  30.845  16.218 -0.1414  0.0503 -0.0373
53606W        W96518  34.253  30.689  19.812 -0.0554  0.0367  0.1628
53607W        W96519  32.901  31.421  17.698  0.1798 -0.0581 -0.0181
53608W        W96520  33.035  32.475  19.469  0.0971 -0.0647 -0.0498
53609W        W96521   0.772  29.451  19.819 -0.1138 -0.2187 -0.0423
53610W        W96522  33.074  32.932  18.594  0.1404 -0.3364 -0.0067
53611W        W96523  32.984  33.045  16.601  0.1758 -0.0516  0.0947
53612W        W96524  33.935  29.809  18.906 -0.0821 -0.2396  0.1798
53613W        W96525  34.135  32.141  17.016  0.0897  0.3265  0.0832
53614W        W96526  34.132  32.609  16.328 -0.5669 -0.1724 -0.2243
53615W        W96527   0.252  33.742  17.073 -0.1104 -0.0491  0.0009
53616W        W96528  32.456  31.574  17.990  0.0382 -0.1532  0.0777
53617W        W96529  32.870  30.080  17.167 -0.1192  0.0758  0.0188
53618W        W96530  32.840  30.798  16.631  0.0475  0.0716  0.0367
53619W        W96531   0.340  29.895  17.342 -0.0608 -0.2819  0.1816
53620W        W96532   1.093  28.730  18.883 -0.0424 -0.2479  0.3150
53621W        W96533  32.281  31.944  18.823 -0.3815  0.2060 -0.0935
53622W        W96534  33.565  31.870  18.032  0.1617  0.2959  0.4821
53623W        W96535  32.385  30.814  16.939  0.4009  0.0913  0.5973
53624W        W96536   0.302  30.122  16.600 -0.2116  0.0911 -0.0314
53625W        W96537  33.101  32.492  16.117  0.0237  0.2667  0.1571
53626W        W96538  33.539  31.615  16.563 -0.1300 -0.0173 -0.0579
53627W        W96539  33.315  31.707  17.581  0.1065 -0.0771 -0.0790
53628W        W96540  34.038  31.111  19.469  0.0374  0.1642 -0.2026
53629W        W96541   1.347  30.956  18.386  0.1671 -0.0434 -0.0714
53630W        W96542  33.526  29.093  18.464 -0.2141 -0.3285 -0.0730
53631W        W96543   0.910  30.963  17.178  0.0889  0.0330 -0.2790
53632W        W96544   0.366  30.595  18.585 -0.1760 -0.0625  0.0903
53633W        W96545  33.287  31.488  19.600 -0.0680 -0.5686  0.1833
53634W        W96546  33.159  32.361  17.270 -0.1447  0.2548  0.3626
53635W        W96547  33.575  32.114  17.435  0.2399 -0.1473 -0.1004
53636W        W96548  32.439  30.286  16.979 -0.1206  0.1557 -0.5494
53637W        W96549  34.534  30.689  18.743  0.2551  0.3615  0.0535
53638W        W96550  33.475  32.750  19.289  0.2220  0.1522  0.2928
53639W        W96551  33.851  32.490  17.670 -0.1660 -0.0804 -0.1190
53640W        W96552  32.593  31.905  18.346  0.0814 -0.0707  0.0649
53641W        W96553   1.314  30.075  17.287  0.0487  0.2050  0.1646
53642W        W96554  32.818  30.302  18.316 -0.1495  0.0382 -0.2737
53643W        W96555  34.123  30.074  17.457  0.3299  0.0186  0.1289
53644W        W96556  31.801  29.707  20.484  0.0558  0.4249  0.2773
53645W        W96557   0.419  28.876  16.440  0.2509  0.0008  0.0916
53646W        W96558  33.321  31.850  17.058 -0.1285  0.1992  0.1985
53647W        W96559  34.116  31.683  16.752 -0.2636 -0.1628  0.1607
53648W        W96560   0.008  31.774  19.725 -0.0107  0.0786  0.0765
53649W        W96561  33.721  30.607  18.202  0.1501  0.2083  0.1747
53650W        W96562   0.689  33.055  17.783 -0.0510 -0.0182  0.3432
53651W        W96563  33.927  29.191  19.004 -0.1133 -0.2279  0.1166
53652W        W96564  33.624  29.470  17.932  0.0042  0.0157  0.1476
53653W        W96565   0.210  29.804  18.248 -0.0076  0.1283  0.1866
53654W        W96566  34.534  30.309  17.699  0.1253 -0.2642 -0.1240
53655W        W96567  33.569  30.392  16.254  0.0656  0.2839  0.1228
53656W        W96568   0.395  32.666  16.779 -0.3203  0.1458 -0.2440
53657W        W96569  32.788  31.078  18.724 -0.0213  0.0093  0.0160
53658W        W96570  33.697  31.763  19.504 -0.0066 -0.2609 -0.1618
53659W        W96571  33.345  30.602  15.813 -0.0693  0.1547  0.1713
53660W        W96572  34.542  31.846  16.887 -0.4899  0.1026  0.0523
53661W        W96573   1.024  32.612  18.560 -0.1523 -0.1053  0.3914
53662W        W96574  34.333  28.692  16.574  0.3959  0.1291 -0.0427
53663W        W96575  32.709  32.300  17.971 -0.0714  0.1418  0.0746
53664W        W96576  32.997  33.445  19.153 -0.3383 -0.2685 -0.2119
53665W        W96577  32.209  32.391  19.453  0.0566 -0.1401 -0.2800
53666W        W96578  33.810  32.626  16.708  0.2258 -0.0025 -0.4114
53667W        W96579  33.811  31.728  17.128  0.0779  0.0695  0.0633
53668W        W96580  34.351  32.524  18.182 -0.1383  0.0342  0.2468
53669W        W96581  33.119  32.418  19.009  0.1316  0.2149  0.1029
53670W        W96582  32.120  32.069  20.507  0.3658  0.0902 -0.0419
53671W        W96583  34.489  29.470  17.099 -0.0947 -0.1521  0.0054
53672W        W96584  30.812  31.987  19.321 -0.1323  0.0964 -0.0993
53673W        W96585  33.040  29.852  18.548 -0.1905 -0.1615 -0.2148
53674W        W96586  32.062  32.957  17.000  0.0691 -0.1331  0.0068
53675W        W96587  34.527  29.438  18.059 -0.0933  0.1107  0.1763
53676W        W96588   0.135  32.962  17.672  0.2061  0.1410 -0.1045
53677W        W96589  33.103  33.337  17.558  0.0153  0.1144 -0.1785
53678W        W96590  33.054  32.658  17.991  0.2285  0.0122 -0.1849
53679W        W96591  33.193  30.492  18.078 -0.1993 -0.1795  0.3002
53680W        W96592  34.019  29.853  16.964 -0.0542  0.2203 -0.0502
53681W        W96593  32.824  30.896  19.596 -0.0882 -0.1622  0.2266
53682W        W96594  32.550  32.786  19.336  0.1565  0.1647  0.1328
53683W        W96595  33.312  29.974  16.288  0.2931 -0.2878  0.1693
53684W        W96596   0.595  30.236  16.960  0.2215  0.1995  0.1400
53685W        W96597  34.214  31.070  17.144  0.0413 -0.0992  0.1569
53686W        W96598   0.434  31.965  17.290 -0.1797 -0.2871 -0.1909
53687W        W96599  33.707  31.892  18.512 -0.1600  0.4167 -0.0398
53688W        W96600  34.003  33.519  19.263  0.1247  0.2570 -0.0353
53689W        W96601  31.846  30.010  17.348 -0.1587 -0.4347 -0.2349
53690W        W96602  32.607  31.829  19.264  0.0281  0.0659  0.1317
53691W        W96603  33.923  30.617  17.410  0.0171  0.0563  0.2069
53692W        W96604  33.346  31.571  18.377 -0.1987 -0.2728 -0.1208
53693W        W96605   2.955  29.913  17.126  0.1602  0.3089  0.0941
53694W        W96606   0.271  29.605  17.786 -0.0988 -0.1170  0.2903
53695W        W96607  33.601  32.301  16.989  0.1326 -0.3645  0.1603
53696W        W96608   0.247  30.606  17.747  0.1625 -0.3651 -0.2505
53697W        W96609  32.540  29.748  16.991  0.0161  0.0842  0.1118
53698W        W96610  32.714  33.479  16.844  0.0323  0.1757  0.1939
53699W        W96611  33.093  29.534  17.693  0.1336 -0.1415  0.0287
53700W        W96612  34.246  29.166  16.012  0.0133  0.2442  0.0415
53701W        W96613  33.248  30.957  16.989 -0.0833 -0.1180  0.0297
53702W        W96614  32.352  32.542  16.951  0.0510  0.0770  0.1119
53703W        W96615  33.380  32.816  16.380  0.2942 -0.0990 -0.3491
53704W        W96616  34.607  32.252  19.627 -0.1267  0.1535 -0.0107
53705W        W96617  33.002  32.980  19.093 -0.2525 -0.4106  0.0936
53706W        W96618  32.459  30.950  16.356  0.0549  0.0439 -0.0483
53707W        W96619  33.882  32.408  20.259  0.0076  0.0954 -0.0217
53708W        W96620  34.587  30.715  18.215  0.3033  0.2677  0.3100
53709W        W96621   0.330  32.739  17.275  0.3860 -0.0853  0.2544
53710W        W96622   1.969  30.370  18.046  0.0240 -0.2551 -0.1317
53711W        W96623   0.245  30.551  16.779 -0.0392  0.3865  0.3072
53712W        W96624  33.523  31.247  18.010 -0.0544 -0.2227  0.1445
53713W        W96625  33.972  32.586  15.779  0.1303 -0.0589  0.1733
53714W        W96626  33.134  32.216  16.782 -0.1473  0.1226 -0.2343
53715W        W96627  34.058  31.505  19.182 -0.0114 -0.1434  0.0591
53716W        W96628  33.268  28.522  19.152 -0.3510 -0.1255 -0.1800
53717W        W96629  34.563  29.907  19.521 -0.3471  0.2312  0.0468
53718W        W96630  32.855  30.372  17.664  0.0015 -0.0013  0.2224
53719W        W96631  34.063  29.426  18.180  0.1699 -0.4660  0.0283
53720W        W96632  34.401  30.811  17.545  0.0215  0.0492 -0.0163
53721W        W96633  32.328  29.373  17.237 -0.0653 -0.0172 -0.0385
53722W        W96634   0.431  29.807  16.207 -0.2095  0.1237 -0.1484
53723W        W96635  32.332  31.869  16.526  0.0175  0.1420 -0.2284
53724W        W96636   0.495  31.286  17.950  0.0898 -0.0749  0.0319
53725W        W96637  33.728  31.319  19.850 -0.0169 -0.1085  0.7107
53726W        W96638  33.465  30.440  17.252 -0.1527 -0.2215 -0.2678
53727W        W96639   0.734  31.676  17.771  0.0997  0.0983 -0.0450
53728W        W96640  34.155  32.013  17.995  0.1717  0.0657 -0.1212
53729W        W96641  34.052  30.536  18.886  0.0531  0.1689  0.2541
53730W        W96642  33.107  29.702  19.345  0.1640 -0.2037 -0.2932
53731W        W96643  34.327  31.272  18.806  0.0687  0.1032 -0.0593
53732W        W96644  33.888  30.086  19.430  0.0382 -0.0671  0.0022
53733W        W96645  32.940  32.833  19.835 -0.1238  0.2293  0.0733
53734W        W96646  34.359  29.955  18.012 -0.0361  0.1098 -0.1363
53735W        W96647  32.839  30.624  17.086 -0.0236  0.1950  0.2135
53736W        W96648   0.444  30.658  17.210 -0.0766  0.0521  0.1225
53737W        W96649  34.681  31.074  17.873  0.1291 -0.2324 -0.4000
53738W        W96650   0.164  31.004  16.478  0.0452 -0.1153 -0.0598
53739W        W96651  34.403  33.707  17.108  0.2622 -0.1474  0.1026
53740W        W96652  33.588  28.927  17.141 -0.0056  0.0458 -0.1905
53741W        W96653  33.834  29.939  16.465  0.0759 -0.0745  0.0350
53742W        W96654  33.287  31.201  17.468  0.2758 -0.3713  0.2727
53743W        W96655  33.583  30.731  18.679 -0.0770 -0.1317 -0.1830
53744W        W96656  33.467   0.188  18.402  0.0174  0.1833 -0.2568
53745W        W96657  33.729  32.555  23.877 -0.0210  0.5037 -0.2689
53746W        W96658  32.694  29.697  20.229 -0.1071  0.1100 -0.3326
53747W        W96659  32.188  30.616  20.169  0.1718 -0.1451  0.2963
53748W        W96660  34.077  28.088  21.483  0.0130 -0.4871 -0.1291
53749W        W96661  34.325  31.450  21.749 -0.4698 -0.0162  0.4058
53750W        W96662   0.384  31.319  24.590  0.0160  0.0617 -0.2904
53751W        W96663  34.241  31.119  20.121 -0.1197  0.0625  0.0421
53752W        W96664  32.315  29.083  23.075  0.2262 -0.0780  0.0822
53753W        W96665  31.696  32.227  20.867 -0.0265 -0.0648 -0.1159
53754W        W96666  33.153  29.537  22.018 -0.1834  0.0257  0.0005
53755W        W96667  33.811  30.326  20.553  0.1279  0.1387 -0.0464
53756W        W96668   0.212  29.473  22.358 -0.2470  0.0132 -0.0814
53757W        W96669   0.265  32.932  21.515  0.1462 -0.2602  0.0594
53758W        W96670  33.591  31.956  20.357  0.2742 -0.0171 -0.2849
53759W        W96671  32.233  29.950  20.647  0.3036  0.1033 -0.1303
53760W        W96672  33.266  30.439  21.877 -0.1774 -0.3098  0.2225
53761W        W96673  33.076  32.999  22.223 -0.0186 -0.3524  0.1393
53762W        W96674   0.970  33.191  21.070  0.1363  0.0059 -0.3754
53763W        W96675  34.664  31.728  22.335 -0.0839 -0.1983  0.0366
53764W        W96676  32.748  32.757  21.022  0.0537  0.1236  0.0006
53765W        W96677  32.049  31.381  19.783 -0.0547 -0.3355 -0.0195
53766W        W96678  32.371  33.555  24.107  0.2597 -0.0465 -0.0924
53767W        W96679  32.278  33.174  19.081  0.2680 -0.2211  0.2697
53768W        W96680  33.013  32.573  23.904  0.0274  0.2087  0.1697
53769W        W96681  33.951  31.981  19.064 -0.0094 -0.2424 -0.0439
53770W        W96682  34.231  33.414  21.342 -0.0648  0.1183  0.3976
53771W        W96683  32.616  31.967  23.864  0.0303 -0.3282 -0.2896
53772W        W96684  33.653  32.523  22.792 -0.2845  0.0525 -0.1239
53773W        W96685  32.938  31.816  19.865 -0.0068  0.1073  0.3406
53774W        W96686  34.123  31.081  20.647 -0.0667 -0.0347  0.0108
53775W        W96687  34.128  29.237  21.116  0.2419 -0.0200 -0.1263
53776W        W96688  33.106  32.320  21.021 -0.3857 -0.1510 -0.2839
53777W        W96689  34.507  30.085  22.537 -0.3063 -0.1159  0.0849
53778W        W96690  33.199  33.332  25.033 -0.2906  0.2345  0.0100
53779W        W96691  34.275  30.520  20.805 -0.0907  0.0684  0.1106
53780W        W96692  34.109  31.408  21.275  0.0411  0.0476 -0.1311
53781W        W96693  33.098  31.152  23.787  0.3716  0.0003  0.2921
53782W        W96694  33.333  31.483  22.160  0.0477  0.0492  0.0235
53783W        W96695  33.923  29.202  19.492  0.1491 -0.0362  0.0786
53784W        W96696  31.708  33.572  24.116  0.1148 -0.1355 -0.3394
53785W        W96697  33.984  32.271  21.470 -0.2324 -0.1648 -0.0833
53786W        W96698  33.411  32.056  19.869  0.1385  0.2702 -0.0956
53787W        W96699  32.999  32.010  20.340  0.1661  0.3381 -0.1402
53788W        W96700  31.729  31.932  21.711 -0.0815 -0.0563  0.2649
53789W        W96701   0.345  30.701  23.129  0.2187 -0.2652  0.1192
53790W        W96702   0.251  32.362  23.175 -0.0125  0.0536  0.0934
53791W        W96703  33.347  31.865  19.031 -0.0062  0.1111  0.0637
53792W        W96704  31.026  31.063  21.340 -0.0897  0.0097  0.6030
53793W        W96705  32.389  31.691  20.146  0.1739 -0.0766 -0.1714
53794W        W96706  33.260  29.489  21.492 -0.2562  0.2199 -0.2051
53795W        W96707  33.545  31.926  23.150 -0.1715  0.3822  0.0648
53796W        W96708  32.958  28.553  22.629 -0.0842  0.1148  0.0161
53797W        W96709  32.315  31.580  21.614 -0.0493  0.0140 -0.0305
53798W        W96710  33.881  30.986  21.608 -0.0119 -0.1901  0.1193
53799W        W96711  32.737  30.222  21.779 -0.0816 -0.2717 -0.2098
53800W        W96712  33.499  31.097  22.470  0.3979  0.1679 -0.0920
53801W        W96713  34.071  29.982  21.690  0.0167 -0.3665 -0.1989
53802W        W96714  33.305  31.018  19.944 -0.3237 -0.0580  0.0232
53803W        W96715  33.905  31.608  20.704 -0.3035 -0.0131  0.3749
53804W        W96716  31.645  29.983  21.675 -0.2884 -0.1738  0.4363
53805W        W96717  33.114  30.281  22.833 -0.0759 -0.0617 -0.0747
53806W        W96718  33.304  31.550  20.118 -0.2191  0.1157  0.2772
53807W        W96719  32.532  31.905  21.100 -0.2918 -0.0774 -0.0523
53808W        W96720  32.513  33.175  22.765 -0.1983 -0.1280 -0.1815
53809W        W96721  32.852  31.264  20.686  0.0220  0.1682 -0.1435
53810W        W96722  33.645  31.882  23.630  0.1617  0.0494  0.1482
53811W        W96723  33.214  31.048  20.473  0.0085 -0.1826 -0.3452
53812W        W96724  32.195  33.066  18.618  0.0737 -0.1461  0.0155
53813W        W96725  32.953  30.717  21.555  0.3960 -0.0691  0.1007
53814W        W96726   1.140  32.333  21.246 -0.1732 -0.3694 -0.1745
53815W        W96727  33.399  30.588  23.197  0.0788  0.0183  0.1932
53816W        W96728  32.312  30.926  20.918  0.0199  0.4518  0.0829
53817W        W96729  33.379  32.413  24.231  0.0745  0.1484  0.1243
53818W        W96730  32.914  32.876  24.868 -0.1173  0.1129 -0.3063
53819W        W96731   0.880  32.185  20.776 -0.1692  0.3797  0.0465
53820W        W96732  33.517  32.322  21.680 -0.0462 -0.5698 -0.1092
53821W        W96733  32.076  32.195  23.694  0.0049  0.0321  0.3666
53822W        W96734  34.206  30.453  22.772 -0.1213 -0.0268  0.0651
53823W        W96735  34.283  30.117  19.138  0.1260 -0.1212 -0.1878
53824W        W96736  33.860  33.293  21.761  0.1445  0.2215  0.0022
53825W        W96737  34.140  30.177  23.541 -0.1766  0.0613  0.0087
53826W        W96738  33.543  31.064  19.466 -0.1524 -0.4360  0.1652
53827W        W96739  34.326  30.948  25.140  0.0015 -0.1568 -0.0288
53828W        W96740  32.829  31.259  22.627 -0.0194 -0.1780  0.3838
53829W        W96741  32.935  32.949  22.907  0.1297 -0.0642 -0.0204
53830W        W96742   0.322  29.923  22.556 -0.4530  0.0910 -0.0253
53831W        W96743  34.102  33.231  20.165 -0.4356  0.2496 -0.1790
53832W        W96744  32.798  32.024  18.804  0.0013 -0.0327  0.1834
53833W        W96745  34.353  29.693  22.113  0.1017  0.4490  0.2589
53834W        W96746  33.926  31.740  20.126  0.0356  0.2140 -0.3112
53835W        W96747  32.572  31.454  19.665  0.1199 -0.1024  0.0173
53836W        W96748  32.857  32.405  20.627  0.0039 -0.1105  0.1753
53837W        W96749  31.781  32.097  22.961 -0.1044 -0.2719  0.0776
53838W        W96750  33.363  29.996  18.219 -0.0631 -0.2379 -0.1449
53839W        W96751  32.197  30.573  21.862  0.1612  0.1324  0.1559
53840W        W96752  33.994  29.468  22.599  0.3020  0.2192  0.1953
53841W        W96753  34.640  29.129  21.195  0.0954 -0.2115  0.0446
53842W        W96754  31.358  32.146  24.508  0.2563 -0.1584  0.1273
53843W        W96755  32.876  31.572  23.663  0.0061  0.0443  0.0970
53844W        W96756  32.788  30.021  19.502  0.2508  0.2741 -0.1056
53845W        W96757  33.896  29.878  20.931  0.0974  0.0717 -0.2556
53846W        W96758  32.006  31.080  22.068 -0.0614 -0.1728  0.2865
53847W        W96759  33.945  31.978  21.011  0.1127 -0.3891  0.0642
53848W        W96760  32.527  32.168  20.135 -0.0668 -0.3194  0.0742
53849W        W96761  33.699  30.247  22.970 -0.1393  0.3351 -0.0835
53850W        W96762  34.566  29.998  21.630  0.2396  0.2431  0.0557
53851W        W96763  34.617  30.391  20.108  0.0118  0.3359 -0.1558
53852W        W96764  34.181  29.673  21.307 -0.0599 -0.3085  0.0075
53853W        W96765  34.581  30.878  22.826  0.0796  0.0822 -0.2776
53854W        W96766  32.479  31.337  23.438 -0.4086  0.0831  0.0762
53855W        W96767  32.242  31.832  19.612  0.0696 -0.1922  0.0384
53856W        W96768  32.909  31.204  21.605 -0.0849 -0.1875 -0.1341
53857W        W96769  33.367  33.400  22.068 -0.3444 -0.0288 -0.4702
53858W        W96770  34.644  30.436  21.808 -0.0691  0.0181  0.1333
53859W        W96771  32.665  31.918  22.316  0.3485 -0.1922  0.2401
53860W        W96772  32.773  30.784  20.088  0.1087 -0.0965  0.0936
53861W        W96773  32.258  32.104  24.164  0.1858  0.1388  0.1721
53862W        W96774   0.084  29.543  20.952  0.3682  0.1783 -0.1888
53863W        W96775  34.246  29.393  23.016  0.0575  0.0766  0.1050
53864W        W96776  33.603  29.343  21.092 -0.4968  0.0632  0.0482
53865W        W96777  33.370  30.376  24.310  0.0570  0.1195  0.1042
53866W        W96778  33.622  30.817  20.622  0.1176  0.0298 -0.1708
53867W        W96779  34.130  30.904  22.595 -0.3511  0.3095 -0.0774
53868W        W96780  34.019  32.550  20.926 -0.0192  0.2608  0.1757
53869W        W96781  32.194  30.948  23.352 -0.2992  0.1281 -0.0897
53870W        W96782   1.192  31.873  20.969  0.1694 -0.0392  0.1727
53871W        W96783  33.600  31.624  21.174  0.4276 -0.0523 -0.0431
53872W        W96784  33.503  30.066  22.379 -0.1602 -0.4726 -0.1172
53873W        W96785   0.315  32.209  24.069  0.0367  0.3318  0.1991
53874W        W96786  33.720  30.786  22.879  0.4359  0.0508  0.2976
53875W        W96787  33.382  30.372  20.936 -0.3048  0.2089  0.5345
53876W        W96788  32.966  30.860  17.869 -0.1531 -0.2087 -0.3011
53877W        W96789  33.517  31.441  19.160  0.1478  0.0352 -0.1530
53878W        W96790  31.740  29.219  20.655  0.0047  0.0199  0.2654
53879W        W96791  32.397  33.106  24.339  0.2242  0.3271 -0.0313
53880W        W96792  33.921  28.822  18.642  0.1432  0.0963 -0.0890
53881W        W96793  33.059  31.477  18.960 -0.1825 -0.1661  0.2233
53882W        W96794  33.611  32.269  20.750 -0.0815 -0.1509 -0.0609
53883W        W96795   0.223  29.436  20.297  0.1746 -0.0410  0.1671
53884W        W96796  32.098  31.361  21.178 -0.0445  0.2382 -0.4732
53885W        W96797  32.274  32.391  22.277  0.1147  0.0832 -0.1159
53886W        W96798  31.391  33.243  25.088  0.3186 -0.1368 -0.2115
53887W        W96799  33.606  32.600  21.180  0.1107  0.4770 -0.1334
53888W        W96800  32.953  31.095  22.140  0.0340 -0.2276 -0.1165
53889W        W96801  33.873  32.294  23.274 -0.0410 -0.0348 -0.0198
53890W        W96802   0.364  31.623  21.367  0.0424 -0.4692 -0.3413
53891W        W96803  33.559  29.461  22.366 -0.0786 -0.1008  0.0221
53892W        W96804  33.527  29.923  21.241 -0.0040 -0.1121 -0.2221
53893W        W96805  32.822  33.690  24.444  0.3953  0.0615 -0.0911
53894W        W96806  31.577  30.974  21.881 -0.0940 -0.0453  0.0342
53895W        W96807  31.726  34.086  19.905  0.1307  0.4080  0.0946
53896W        W96808  33.489  30.633  19.747 -0.0402 -0.0938  0.0767
53897W        W96809  32.125  31.385  22.568  0.3789 -0.1433 -0.0118
53898W        W96810  32.503  30.094  20.008  0.0466  0.0831 -0.0818
53899W        W96811  33.002  32.367  20.018  0.0468  0.0880 -0.1662
53900W        W96812  33.140  30.845  20.982 -0.1297  0.1396  0.2412
53901W        W96813  33.790  30.830  20.075  0.2881  0.0486  0.1538
53902W        W96814  33.636  31.921  24.321  0.1621  0.1195 -0.0838
53903W        W96815  32.227  34.342  23.248 -0.1779 -0.0882 -0.6233
53904W        W96816  32.716  31.477  21.167  0.0150  0.0987 -0.0093
53905W        W96817  32.917  30.422  21.033 -0.1835  0.3700 -0.1011
53906W        W96818  34.227  31.535  19.690  0.0165 -0.0537 -0.2979
53907W        W96819  33.379  34.364  22.728 -0.3844  0.0427 -0.0459
53908W        W96820  32.443  30.418  20.859  0.1714  0.1377 -0.2361
53909W        W96821  34.375  31.838  21.406  0.3028 -0.0787 -0.2670
53910W        W96822  32.305  30.232  19.404 -0.1671 -0.1135 -0.0755
53911W        W96823  34.222  29.149  21.617 -0.1380 -0.0689 -0.0401
53912W        W96824  33.389  31.482  20.717  0.3583 -0.2321 -0.3621
53913W        W96825  32.935  31.340  23.212 -0.1167  0.2248 -0.0023
53914W        W96826  34.482  31.276  19.329  0.0241  0.0084 -0.0235
53915W        W96827  34.273  28.749  22.090  0.0425  0.1529 -0.0050
53916W        W96828  32.908  31.617  21.869 -0.0660 -0.0517  0.2347
53917W        W96829  34.200  31.364  22.370  0.0410  0.0326  0.0923
53918W        W96830  32.693  30.060  21.229 -0.0339 -0.1524 -0.0117
53919W        W96831  34.445  32.866  19.068  0.0620  0.1783  0.0191
53920W        W96832  33.677  28.979  21.420 -0.0422 -0.3023 -0.0537
53921W        W96833  33.597  30.084  19.900 -0.0818  0.3950  0.2022
53922W        W96834  32.533  31.065  21.859 -0.1101 -0.0536  0.3422
53923W        W96835  32.171  31.946  21.992 -0.1981 -0.1027  0.2703
53924W        W96836  34.403  32.234  19.025  0.3178  0.1869  0.3621
53925W        W96837  34.253  31.861  22.091 -0.0665 -0.2158 -0.1238
53926W        W96838  32.499  33.951  23.570 -0.2040  0.0227  0.0781
53927W        W96839  32.647  30.974  21.259 -0.4011  0.1199  0.0914
53928W        W96840  34.153  31.937  23.773  0.0735 -0.1385 -0.2013
53929W        W96841   0.022  32.418  20.155 -0.0875  0.1064 -0.0459
53930W        W96842  33.527  32.866  21.878 -0.0033 -0.1336 -0.0520
53931W        W96843   0.378  30.120  20.233 -0.1872  0.2998  0.3070
53932W        W96844  34.329  30.944  21.071  0.1199  0.0390 -0.1620
53933W        W96845   0.410  31.933  23.107  0.2744  0.2232 -0.5239
53934W        W96846  32.099  29.760  20.073 -0.2673 -0.0056 -0.2783
53935W        W96847  32.560  31.821  20.588  0.0012  0.0897 -0.1072
53936W        W96848  33.405  31.415  22.891  0.0809 -0.0924  0.0228
53937W        W96849  33.682  28.535  24.130 -0.2515  0.2438 -0.1168
53938W        W96850  33.376  31.455  23.413  0.0920  0.1324 -0.3316
53939W        W96851  31.950  30.919  22.747 -0.1690 -0.1722 -0.1933
53940W        W96852  33.391  30.434  20.292 -0.0288 -0.1812 -0.0774
53941W        W96853   0.003  28.908  22.222  0.0105  0.2536 -0.1540
53942W        W96854  33.132  30.235  21.450  0.1099 -0.0378  0.0240
53943W        W96855  33.081  29.955  20.934  0.0477 -0.0158 -0.1718
53944W        W96856  31.609  30.508  19.500 -0.1022 -0.1278 -0.1171
53945W        W96857  33.530  31.340  21.558  0.0213 -0.2257 -0.1369
53946W        W96858  34.111  29.863  22.957 -0.0224  0.0641  0.1218
53947W        W96859  33.385  28.064  19.290  0.1992  0.0346 -0.0820
53948W        W96860  34.577  31.306  21.337 -0.0972  0.0519 -0.0010
53949W        W96861  33.942  32.209  22.145 -0.2462  0.5963 -0.0513
53950W        W96862  34.311  33.066  21.892 -0.0432 -0.1093 -0.2045
53951W        W96863  34.287  30.233  22.098  0.0440 -0.1155 -0.1139
53952W        W96864   0.339  32.243  22.651 -0.0865 -0.0546  0.2791
53953W        W96865  33.864  28.397  22.194  0.0316 -0.3835 -0.1386
53954W        W96866  32.935  31.803  22.831 -0.0295  0.2186 -0.0545
53955W        W96867  33.749  31.281  20.332  0.1445  0.3498  0.1463
53956W        W96868  33.142  32.921  23.601 -0.0048 -0.0179 -0.0077
53957W        W96869  34.080  32.039  19.591 -0.0893  0.2002 -0.1608
53958W        W96870  34.154  31.850  22.570 -0.2126 -0.1374 -0.0211
53959W        W96871  33.126  31.944  19.428  0.0950  0.0169  0.0626
53960W        W96872  34.555  32.694  21.612 -0.0288 -0.1241 -0.0721
53961W        W96873  34.460  30.894  21.664  0.2400 -0.0329 -0.0873
53962W        W96874  33.006  31.805  20.885  0.1736 -0.4021  0.1434
53963W        W96875  33.264  32.698  20.740  0.2429  0.2983  0.0215
53964W        W96876  34.109  30.545  21.678  0.0550 -0.0598  0.0438
53965W        W96877  33.181  32.382  22.679 -0.1938  0.1926  0.1746
53966W        W96878  33.628  31.676  26.977 -0.0103 -0.0521  0.1994
53967W        W96879  32.130  30.591  23.748  0.0460  0.1135  0.3477
53968W        W96880  31.169  31.006  26.130 -0.2711 -0.0634  0.0165
53969W        W96881  33.485  30.141  26.500  0.0701  0.2207  0.2698
53970W        W96882  34.266  30.392  26.019  0.2874 -0.4830  0.0340
53971W        W96883  34.513  32.646  27.318  0.0890 -0.1819  0.2830
53972W        W96884  33.280  30.143  25.954 -0.2498 -0.0893 -0.0298
53973W        W96885  31.847  28.222  26.885 -0.0252 -0.1122 -0.1028
53974W        W96886  33.567  31.979  25.905 -0.1935  0.0500 -0.0249
53975W        W96887  33.513  29.301  27.495  0.0700  0.0353 -0.1687
53976W        W96888  33.766  31.235  24.593 -0.0486  0.3772  0.1492
53977W        W96889   0.263  29.452  27.607  0.3649  0.2814  0.2162
53978W        W96890  34.031  32.225  24.206 -0.0331 -0.1116 -0.1361
53979W        W96891  32.236  31.087  24.430  0.4732  0.2314 -0.2415
53980W        W96892  32.828  32.437  26.848  0.0737  0.0493 -0.2529
53981W        W96893  33.453  30.724  26.601  0.0317  0.1407 -0.0176
53982W        W96894  33.163  32.006  24.507  0.0145  0.0107  0.2052
53983W        W96895  33.828  32.587  24.917  0.0413 -0.1737  0.1977
53984W        W96896  33.664  30.170  25.456  0.1991 -0.0095 -0.3252
53985W        W96897  31.742  33.190  25.871 -0.0780  0.1855 -0.0736
53986W        W96898  32.532  32.074  25.536  0.4202 -0.1996 -0.0962
53987W        W96899  34.030  33.962  25.412 -0.1301  0.1126  0.1462
53988W        W96900  32.358  32.628  24.329  0.1297 -0.1615  0.0391
53989W        W96901   0.362  31.818  28.055 -0.1104  0.1935  0.1821
53990W        W96902  33.112  32.020  23.982 -0.1821 -0.3743  0.2213
53991W        W96903  33.112  31.158  24.940 -0.2141  0.1531  0.1615
53992W        W96904  33.761  29.692  27.522 -0.0549  0.0761 -0.1330
53993W        W96905  33.058  32.660  27.224 -0.2097 -0.0878 -0.0433
53994W        W96906  33.513  33.967  23.957  0.1657  0.1336  0.0341
53995W        W96907  33.547  29.908  24.073 -0.1288  0.1134 -0.3062
53996W        W96908  34.599  30.689  24.747 -0.2296 -0.0816 -0.0769
53997W        W96909  33.421  33.252  26.551  0.0008 -0.2018 -0.1277
53998W        W96910  33.276  31.187  26.962 -0.2303  0.1834 -0.1483
53999W        W96911  34.588  32.202  26.497  0.0065  0.1392 -0.0184
54000W        W96912  32.983  29.946  26.319 -0.0612  0.0738  0.1004
54001W        W96913  32.564  30.161  26.605 -0.0528 -0.1644 -0.0549
54002W        W96914  32.889  30.836  28.207  0.2552  0.3741 -0.2329
54003W        W96915  32.996  30.806  26.712  0.0532  0.0288 -0.0374
54004W        W96916  32.471  29.993  24.681 -0.3656  0.3849 -0.2527
54005W        W96917  32.521  32.803  27.134 -0.0083  0.1499  0.0461
54006W        W96918  34.007  31.342  26.796 -0.2334  0.2538 -0.1612
54007W        W96919  32.582  30.740  23.748  0.0111 -0.0142 -0.0006
54008W        W96920   0.373  31.086  24.115 -0.1702 -0.0997 -0.0869
54009W        W96921  32.139  31.470  26.132 -0.1733 -0.1615 -0.2053
54010W        W96922  34.341  28.849  27.252  0.2006  0.1567  0.0412
54011W        W96923   0.863  31.260  26.910 -0.1327  0.1745  0.2579
54012W        W96924  32.532  33.832  25.754 -0.0478  0.0931  0.1818
54013W        W96925  32.816  31.880  26.792 -0.5740  0.0153 -0.1088
54014W        W96926  32.944  31.621  24.871 -0.0358 -0.1479 -0.3126
54015W        W96927  33.942  29.248  27.196  0.2454  0.2234 -0.1122
54016W        W96928  33.003  31.969  26.352 -0.0647  0.0162  0.2375
54017W        W96929  33.244  29.170  27.872  0.0514  0.1900  0.0929
54018W        W96930  32.226  31.603  24.955 -0.0203  0.0145  0.0908
54019W        W96931  32.639  30.339  26.071 -0.3708  0.0522 -0.1275
54020W        W96932  31.928  30.370  25.420 -0.1290 -0.1329  0.1722
54021W        W96933   0.038  29.962  27.398 -0.0501  0.0502 -0.3281
54022W        W96934  33.811  30.758  25.444  0.0227  0.1926  0.2769
54023W        W96935  33.296  30.176  24.744  0.1562 -0.0517 -0.2271
54024W        W96936  33.812  30.603  24.147 -0.2686 -0.1468  0.2364
54025W        W96937  32.254  31.608  25.658 -0.1754  0.0448  0.0936
54026W        W96938   0.026  29.677  26.486  0.0748 -0.0724 -0.0091
54027W        W96939  33.700  29.043  23.396  0.1043  0.1786 -0.0358
54028W        W96940  32.983  32.489  26.292  0.0394 -0.1392  0.0990
54029W        W96941  33.317  31.468  24.537  0.1906 -0.3237 -0.0360
54030W        W96942  32.474  30.446  24.165 -0.0772 -0.0910 -0.2539
54031W        W96943  34.569  30.869  26.913 -0.2550 -0.2430 -0.2284
54032W        W96944  33.560  29.914  23.488  0.0001  0.4228  0.1713
54033W        W96945  33.634  33.050  25.074  0.0353  0.2168 -0.0229
54034W        W96946  33.515  31.478  25.978  0.0279  0.1789  0.1943
54035W        W96947  33.370  31.015  24.372  0.0488 -0.3167  0.1796
54036W        W96948  33.779  29.850  28.005  0.2544 -0.1069 -0.2016
54037W        W96949  32.882  30.239  24.497 -0.0483  0.0663 -0.1081
54038W        W96950   0.013  33.083  27.119  0.1080  0.0639  0.0009
54039W        W96951  33.271  32.882  27.875 -0.1427  0.2254  0.3146
54040W        W96952   0.622  31.478  23.302 -0.1962  0.1216 -0.0138
54041W        W96953   0.363  32.445  26.507 -0.3742 -0.4351  0.2583
54042W        W96954  32.462  30.745  27.969  0.0391  0.1565 -0.1855
54043W        W96955   0.215  29.234  26.569  0.2818  0.3275 -0.1427
54044W        W96956  34.039  30.209  24.059 -0.0053  0.3307 -0.2829
54045W        W96957  33.854  33.232  26.221 -0.1732  0.0628 -0.1662
54046W        W96958  34.179  30.117  27.945  0.0804  0.1837 -0.0649
54047W        W96959  32.826  30.735  23.299 -0.0924  0.4315  0.2215
54048W        W96960  33.000  30.320  26.907  0.1723 -0.0870 -0.1018
54049W        W96961  33.781  31.256  29.091 -0.1784 -0.0373  0.0616
54050W        W96962   0.507  33.812  27.468  0.1653  0.3799  0.2419
54051W        W96963   0.961  30.867  27.199 -0.0624  0.1404 -0.4292
54052W        W96964  34.055  33.068  24.770 -0.1197 -0.3006 -0.1376
54053W        W96965   0.720  32.583  24.350 -0.4316  0.2356  0.0061
54054W        W96966   0.671  30.524  26.857 -0.2388  0.0558 -0.1060
54055W        W96967   0.293  31.875  25.532  0.3667 -0.2683  0.0492
54056W        W96968  33.565  32.241  24.687 -0.1374 -0.2256 -0.2662
54057W        W96969  34.283  32.614  24.597  0.3088 -0.2227 -0.0652
54058W        W96970  32.065  32.203  25.824  0.3039 -0.1035  0.0279
54059W        W96971  32.832  31.186  24.454 -0.1957 -0.1810 -0.1592
54060W        W96972  31.283  30.563  23.318 -0.0587  0.4735 -0.2815
54061W        W96973  33.085  30.463  26.294 -0.0711  0.1791 -0.1507
54062W        W96974   0.384  31.060  26.097  0.1791  0.0553  0.1072
54063W        W96975  32.106  32.510  26.214 -0.1890 -0.1053  0.0264
54064W        W96976  34.580  30.353  28.157  0.0551 -0.3086  0.1567
54065W        W96977  32.942  30.340  23.894  0.1706  0.0677  0.2196
54066W        W96978  32.478  31.190  25.764  0.2239 -0.0260  0.0766
54067W        W96979  33.323  32.575  26.730 -0.0853  0.3761  0.0735
54068W        W96980  34.337  30.537  24.329  0.0396  0.0200 -0.3006
54069W        W96981  32.649  30.842  26.348 -0.1317 -0.2367 -0.0285
54070W        W96982  33.999  30.174  26.868  0.1143  0.0130  0.2954
54071W        W96983  33.465  30.758  26.108 -0.1505 -0.2261 -0.2240
54072W        W96984  32.493  30.718  24.630 -0.0037  0.1512 -0.0025
54073W        W96985  34.332  30.764  25.605  0.2362 -0.1379  0.2041
54074W        W96986   0.137  30.516  26.751 -0.2073  0.1760 -0.0516
54075W        W96987  33.745  30.929  28.226 -0.0419 -0.0627  0.0025
54076W        W96988  33.068  30.676  24.697 -0.0622 -0.2658  0.1370
54077W        W96989  33.019  31.500  26.118  0.2663 -0.2217  0.1368
54078W        W96990  33.716  31.613  25.359 -0.0603  0.1950 -0.0869
54079W        W96991  33.815  30.445  25.829  0.2768 -0.1114 -0.2415
54080W        W96992   0.315  32.020  26.746  0.2777 -0.0498 -0.1932
54081W        W96993  32.979  32.404  24.802  0.0749  0.0949  0.0589
54082W        W96994  33.758  32.075  27.220  0.3106 -0.2389 -0.0713
54083W        W96995  34.477  29.850  24.901  0.3391  0.2093  0.0428
54084W        W96996  33.073  30.168  27.429  0.0754  0.2443 -0.0408
54085W        W96997  32.528  29.899  27.014  0.0606  0.1166 -0.0201
54086W        W96998  34.570  31.249  28.312  0.0926  0.3088 -0.0725
54087W        W96999  33.130  29.860  24.348  0.2850  0.5678  0.3147
54088W        W97000  34.543  31.132  25.974 -0.2270 -0.0156 -0.0041
54089W        W97001   0.177  31.444  23.445  0.0741 -0.1370 -0.0297
54090W        W97002  33.647  31.182  26.409  0.1723  0.3081 -0.3366
54091W        W97003  34.611  31.267  24.827  0.2094  0.1656  0.0718
54092W        W97004   0.870  32.786  25.784 -0.1887 -0.1424 -0.1076
54093W        W97005  33.887  28.844  27.527  0.2429  0.1582  0.1236
54094W        W97006  32.694  31.769  27.322 -0.1479  0.1429 -0.0360
54095W        W97007  34.657  28.618  27.939  0.0650 -0.0048  0.1928
54096W        W97008  32.204  30.816  26.081  0.2913  0.1319  0.2786
54097W        W97009  33.150  30.702  25.181  0.0750 -0.3078 -0.0755
54098W        W97010   0.538  32.845  24.788  0.1046  0.3878 -0.3063
54099W        W97011  32.369  29.909  25.589  0.0068 -0.3147  0.0896
54100W        W97012  33.879  33.295  28.442  0.0217  0.2243 -0.2710
54101W        W97013  32.848  30.736  24.201  0.1615 -0.0287  0.0991
54102W        W97014  34.097  32.132  24.745 -0.0933  0.0465 -0.2828
54103W        W97015   0.224  32.369  27.072  0.0455 -0.1538 -0.2191
54104W        W97016  33.332  29.442  23.400  0.0220  0.2046 -0.3660
54105W        W97017  32.738  32.543  25.218  0.1787 -0.2767  0.0404
54106W        W97018  34.389  33.110  25.998  0.1120  0.1931 -0.1245
54107W        W97019  33.274  32.049  26.765  0.0510  0.2727  0.0815
54108W        W97020  32.653  30.838  25.226  0.2712 -0.1745 -0.2085
54109W        W97021  34.671  32.664  26.234  0.1688 -0.0431 -0.1750
54110W        W97022  34.419  31.540  25.777 -0.3917 -0.1464  0.0967
54111W        W97023  33.413  31.857  25.015 -0.1848  0.1096 -0.2964
54112W        W97024  32.921  29.399  28.103  0.1930  0.0243  0.2265
54113W        W97025  32.910  31.217  25.420 -0.0568 -0.0881 -0.1949
54114W        W97026  33.118  32.122  27.390 -0.0832  0.0336 -0.2396
54115W        W97027  33.151  31.669  27.094 -0.1589  0.1647  0.0155
54116W        W97028  33.385  33.963  26.109  0.0141  0.0337  0.0357
54117W        W97029  32.948  30.927  25.808  0.1693  0.0962 -0.3265
54118W        W97030  33.036  32.138  25.317 -0.3856 -0.0443 -0.0942
54119W        W97031  32.554  31.857  24.534  0.0358 -0.2769  0.0292
54120W        W97032  32.536  32.101  24.997  0.0357 -0.3193  0.3474
54121W        W97033  34.209  30.878  26.211  0.0952 -0.0271  0.1613
54122W        W97034  32.809  29.869  23.548 -0.0021  0.0360 -0.2156
54123W        W97035  32.827  31.287  26.674 -0.3739 -0.1153  0.1910
54124W        W97036  34.515  33.540  26.789  0.2062 -0.0345  0.1585
54125W        W97037  32.233  31.192  25.328 -0.1359 -0.2874  0.0866
54126W        W97038  33.654  30.686  24.605  0.0835  0.0395 -0.0549
54127W        W97039  34.064  30.795  23.683 -0.0931 -0.1686 -0.0972
54128W        W97040  33.551  34.040  25.657  0.2484  0.3621 -0.1099
54129W        W97041  33.174  31.083  26.287  0.1890  0.0469  0.1103
54130W        W97042  33.043  31.960  25.865  0.1005  0.0775  0.0231
54131W        W97043  30.821  30.086  24.378 -0.2715 -0.0502  0.1299
54132W        W97044  33.472  31.454  27.383 -0.0628  0.0500 -0.0272
54133W        W97045  33.226  31.673  25.428 -0.0055 -0.0221  0.0489
54134W        W97046  32.610  29.782  26.031  0.1096 -0.3144  0.0760
54135W        W97047  34.088  31.053  24.111 -0.2857 -0.1315  0.1624
54136W        W97048  32.661  28.666  25.159 -0.1547  0.2115  0.1417
54137W        W97049  33.349  30.602  25.633 -0.1596  0.2013  0.0599
54138W        W97050   0.667  31.720  28.405  0.0548  0.0915 -0.0298
54139W        W97051  30.924  29.717  26.430  0.0278  0.0249 -0.0702
54140W        W97052  34.088  32.277  22.830  0.0657 -0.2773  0.1218
54141W        W97053  32.535  29.370  27.139 -0.1576  0.1873 -0.1080
54142W        W97054   1.305  29.289  25.409  0.3242  0.0974 -0.1887
54143W        W97055  34.024  31.442  26.158  0.1627  0.1028  0.0496
54144W        W97056  31.931  31.145  25.792 -0.3976  0.2692 -0.2977
54145W        W97057  33.550  33.265  24.552  0.0623  0.1528 -0.0348
54146W        W97058  34.346  32.206  27.007  0.0672 -0.3968  0.0085
54147W        W97059   0.637  33.931  28.401 -0.0133 -0.3624 -0.0309
54148W        W97060  32.927  29.418  24.119  0.1388 -0.1972  0.0542
54149W        W97061  34.300  31.382  27.815  0.2556  0.2861 -0.0450
54150W        W97062  33.810  32.800  25.520 -0.1477 -0.2854  0.0587
54151W        W97063  33.841  31.716  24.770 -0.1961  0.2357 -0.2645
54152W        W97064   1.151  31.554  23.550 -0.1025 -0.0508  0.1920
54153W        W97065  34.391  29.729  27.642 -0.0115 -0.0616  0.4003
54154W        W97066  34.066  31.219  25.492  0.1560 -0.0460  0.2574
54155W        W97067  31.314  30.465  23.853  0.2810  0.0386 -0.0818
54156W        W97068  33.228  30.676  23.630  0.0289  0.2735 -0.1672
54157W        W97069  32.094  32.003  26.271  0.0151  0.2147 -0.0300
54158W        W97070   0.060  30.202  26.303  0.1594 -0.1554 -0.0780
54159W        W97071  33.311  30.174  27.915  0.1919 -0.3369 -0.0316
54160W        W97072  32.421  31.717  26.457 -0.0095  0.1170 -0.0029
54161W        W97073  32.575  31.229  24.871  0.0078 -0.0750  0.1299
54162W        W97074  32.855  30.496  25.563 -0.0560  0.0551 -0.1746
54163W        W97075  33.184  30.215  25.321  0.0672  0.4470  0.1461
54164W        W97076  33.211  29.695  23.841  0.0335  0.2388  0.2501
54165W        W97077  32.930  29.839  23.023  0.1200  0.1234 -0.2314
54166W        W97078   0.450  30.847  27.141  0.0910  0.0163  0.0500
54167W        W97079  33.868  30.541  27.173 -0.2451 -0.1129  0.1984
54168W        W97080  32.205  30.700  25.054  0.0091  0.0616  0.1489
54169W        W97081  33.752  31.010  25.007  0.1548  0.1219  0.0128
54170W        W97082  34.084  31.802  26.617 -0.1084 -0.0811 -0.0988
54171W        W97083   0.758  32.008  26.398  0.0747  0.0863 -0.0657
54172W        W97084  33.423  28.791  27.625  0.2295  0.2655  0.2365
54173W        W97085  33.377  33.085  27.431  0.2228  0.0925  0.0388
54174W        W97086  32.659  28.958  28.694 -0.0514  0.2304 -0.0759
54175W        W97087  34.637  31.750  27.696 -0.1377  0.1547  0.3457
54176W        W97088  34.084  30.537  25.001 -0.3256  0.1622  0.0572
54177W        W97089  33.484  29.530  27.055 -0.0995 -0.1250 -0.2338
54178W        W97090   0.810  30.419  24.281  0.0737 -0.2573 -0.1094
54179W        W97091  33.290  31.526  26.585 -0.0910 -0.0674  0.0159
54180W        W97092  33.771  31.402  24.114 -0.1691  0.0909  0.1084
54181W        W97093   0.760  32.021  26.939 -0.0147  0.1310 -0.1180
54182W        W97094  32.861  29.922  25.551  0.2036 -0.1125 -0.1307
54183W        W97095  33.581  32.161  25.424 -0.1065 -0.1652 -0.1731
54184W        W97096  34.528  31.700  26.328  0.1568  0.2737 -0.3292
54185W        W97097  33.931  29.981  25.020 -0.0483  0.0783  0.2686
54186W        W97098   0.001   0.006  25.452 -0.2288  0.2090  0.2401
54187W        W97099  34.382  32.975  31.530 -0.3683  0.0614  0.1263
54188W        W97100  34.524  30.120  29.106 -0.0531  0.2261  0.0304
54189W        W97101  32.443  30.066  28.684  0.1055 -0.0348 -0.3720
54190W        W97102  32.789  29.152  31.336 -0.2516 -0.1975 -0.2034
54191W        W97103   0.264  29.493  31.002  0.0742  0.1031  0.5446
54192W        W97104  33.834  31.868  31.643 -0.1643  0.0795 -0.3115
54193W        W97105  34.111  30.608  28.342  0.1404  0.3272  0.2457
54194W        W97106  33.474  29.452  30.977 -0.2418 -0.1677 -0.2453
54195W        W97107  33.871  32.454  27.964 -0.0007  0.0469 -0.2040
54196W        W97108  33.578  29.965  29.781  0.2853 -0.5320 -0.2278
54197W        W97109  34.327  30.782  30.426  0.0946 -0.0576  0.1768
54198W        W97110  33.715  29.282  31.410  0.1983  0.1521 -0.0076
54199W        W97111   0.400  32.346  29.832  0.2581  0.3105  0.4513
54200W        W97112  33.960  30.095  28.402  0.1843 -0.0327  0.1720
54201W        W97113  32.850  29.652  29.462 -0.1471 -0.0025 -0.0699
54202W        W97114  31.747  29.477  29.992  0.2599 -0.1552  0.2175
54203W        W97115  34.487  31.810  30.849 -0.0771  0.1064  0.1118
54204W        W97116   2.026  32.295  30.606  0.1539 -0.1954  0.2223
54205W        W97117  33.214  32.127  29.360  0.1072 -0.2494 -0.2401
54206W        W97118  30.971  33.033  29.538  0.1291  0.2583 -0.0403
54207W        W97119  34.536  31.655  29.761 -0.1793  0.0640 -0.0908
54208W        W97120  34.188  32.340  30.851  0.0240 -0.0175  0.0170
54209W        W97121  33.956  30.894  28.725  0.0813  0.3112 -0.2223
54210W        W97122  33.302  32.024  31.794 -0.2014  0.2469 -0.1335
54211W        W97123   0.055  33.726  27.270 -0.0684 -0.0945 -0.2410
54212W        W97124   0.018  30.912  30.712 -0.4072  0.0884  0.0059
54213W        W97125   0.433  30.882  30.967 -0.2459  0.1219  0.0183
54214W        W97126  33.627  31.950  30.247 -0.0077  0.1715 -0.1807
54215W        W97127  34.679  32.133  28.065 -0.0907 -0.0677 -0.1742
54216W        W97128  33.222  30.954  27.433 -0.0424 -0.2298 -0.1953
54217W        W97129  33.474  28.543  29.144  0.1577 -0.1043 -0.2453
54218W        W97130   0.103  31.541  29.283  0.2558  0.0640 -0.0220
54219W        W97131  33.673  29.512  29.586  0.2428 -0.0719  0.1018
54220W        W97132   1.155  30.832  31.326 -0.1736 -0.1901 -0.0160
54221W        W97133  32.339  30.217  30.222 -0.1789  0.0660  0.0827
54222W        W97134  31.798  31.945  29.233  0.0978  0.3478 -0.0769
54223W        W97135  33.142  31.028  30.175 -0.0109  0.1409  0.0135
54224W        W97136  33.472  31.149  30.860 -0.2804 -0.2189  0.2050
54225W        W97137  33.879  27.928  27.536 -0.2896 -0.1491  0.1121
54226W        W97138  33.501  31.352  30.409  0.0190  0.1917  0.1490
54227W        W97139  34.191  30.806  29.275 -0.2063  0.0329 -0.2598
54228W        W97140   0.212  30.345  27.224  0.0733 -0.3692  0.2350
54229W        W97141  33.319  30.553  28.256 -0.1295 -0.1161  0.0784
54230W        W97142  33.544  31.434  29.870  0.0548  0.2517  0.2268
54231W        W97143   0.101  30.923  31.485 -0.2100  0.2441 -0.1858
54232W        W97144   0.451  32.429  30.832 -0.1474  0.0302  0.0071
54233W        W97145  34.605  32.255  27.582  0.0159  0.1917 -0.1049
54234W        W97146  33.039  31.544  29.324  0.0503  0.2106  0.1193
54235W        W97147  33.264  31.045  27.904  0.0326 -0.0956  0.1060
54236W        W97148  32.503  29.549  31.183 -0.1197  0.1094  0.0793
54237W        W97149  34.003  32.829  30.303 -0.0845  0.3916  0.3338
54238W        W97150  32.243  29.702  30.294  0.2291 -0.0246  0.1449
54239W        W97151  32.866  31.975  27.929 -0.1720 -0.0245  0.2188
54240W        W97152  31.608  30.814  30.549 -0.2349  0.1087 -0.2975
54241W        W97153  32.759  30.271  29.036  0.0450 -0.0898 -0.2339
54242W        W97154  33.557  30.878  30.409 -0.0978 -0.4419 -0.3591
54243W        W97155  32.620  30.018  31.139 -0.1270 -0.0049 -0.1961
54244W        W97156  31.807  28.726  28.587  0.1000  0.4299  0.0356
54245W        W97157   0.514  29.487  28.843 -0.1283  0.1491  0.0338
54246W        W97158  31.502  32.359  27.795 -0.2548  0.2472 -0.4242
54247W        W97159   0.390  30.360  30.824  0.2290 -0.0027 -0.1728
54248W        W97160  33.086  29.968  28.821 -0.0943  0.0005  0.2127
54249W        W97161  33.026  31.310  28.329 -0.0477  0.0569  0.0265
54250W        W97162   0.593  31.924  29.553  0.4069 -0.0824  0.2710
54251W        W97163  34.208  28.914  28.028 -0.0879 -0.2328  0.1479
54252W        W97164  34.081  31.887  30.551 -0.1671  0.0749 -0.1599
54253W        W97165  32.596  29.099  28.143  0.4218  0.0982  0.0476
54254W        W97166  34.197  32.065  27.848 -0.1420  0.0327  0.1964
54255W        W97167  32.943  30.582  27.748  0.3768 -0.0330  0.3301
54256W        W97168   0.794  33.385  29.690  0.1875  0.2094  0.2196
54257W        W97169  32.561  31.300  30.770  0.0364 -0.2411  0.1558
54258W        W97170  31.521  29.707  27.836  0.0701  0.3097  0.3715
54259W        W97171   0.447  30.484  31.950  0.1377  0.1487  0.0077
54260W        W97172  34.628  31.316  31.931  0.0975  0.0586 -0.0354
54261W        W97173   0.780  32.862  29.894  0.0878  0.0543 -0.3451
54262W        W97174  33.482  29.782  31.469 -0.3118  0.3338 -0.0401
54263W        W97175  32.401  31.401  31.840 -0.0028  0.0242  0.1167
54264W        W97176   0.584  29.897  30.172 -0.0441  0.1939  0.5157
54265W        W97177  34.348  31.084  28.735 -0.6582 -0.2577  0.3164
54266W        W97178  34.411  33.686  28.122  0.0935  0.1792 -0.1233
54267W        W97179  34.160  29.057  30.309  0.2053 -0.0686  0.0752
54268W        W97180  33.871  29.256  26.667  0.0660  0.1792 -0.3634
54269W        W97181  34.405  29.533  30.197 -0.4005  0.1022  0.0311
54270W        W97182   0.163  30.013   0.367  0.1455 -0.1102 -0.2231
54271W        W97183   0.316  31.903  30.800  0.0619 -0.1599  0.0733
54272W        W97184   0.188  29.000  30.884 -0.0333 -0.0125  0.2970
54273W        W97185  34.010  32.938  28.827 -0.1160 -0.1678 -0.2978
54274W        W97186  33.986  31.402  27.378  0.0971  0.1043  0.0411
54275W        W97187   1.439  28.640  28.988 -0.2007  0.0988 -0.0935
54276W        W97188  33.967  31.973  31.044  0.2957 -0.0576 -0.0103
54277W        W97189  33.925  32.891  27.395  0.0558 -0.1735 -0.1074
54278W        W97190  34.236  31.587  28.650  0.1770  0.0850 -0.1565
54279W        W97191  33.755  33.936  28.759 -0.0729 -0.2802 -0.0781
54280W        W97192  32.457  29.708  27.532  0.1014 -0.3527 -0.1088
54281W        W97193  33.000  30.899  28.710  0.0894 -0.0293  0.1386
54282W        W97194  33.665  29.671  30.429  0.1865  0.3766 -0.0497
54283W        W97195   0.095  29.855  29.943 -0.2541  0.1187 -0.1584
54284W        W97196  32.408  31.637  30.348 -0.0419  0.1152 -0.0193
54285W        W97197   0.587  29.610  31.483 -0.1977 -0.3339  0.1594
54286W        W97198  33.129  30.151  29.375 -0.0794  0.4309  0.3135
54287W        W97199  34.399  29.616  29.730  0.2620  0.1234  0.0828
54288W        W97200  33.772  32.526  28.485 -0.0037 -0.1157  0.0381
54289W        W97201  33.792  30.651  29.088  0.2326 -0.3122  0.0168
54290W        W97202  33.601  32.065  29.746 -0.1347 -0.1793  0.0464
54291W        W97203  33.742  30.639  30.855  0.1223  0.1454 -0.0284
54292W        W97204  34.599  30.433  30.629  0.0592  0.0876  0.1077
54293W        W97205  33.516  30.471  29.547 -0.0163  0.0450  0.0420
54294W        W97206  34.061  28.766  29.901 -0.2216  0.1728  0.1053
54295W        W97207  34.689  30.438  31.654  0.0291  0.1635 -0.0519
54296W        W97208  34.132  31.329  31.507 -0.1170 -0.0798  0.0730
54297W        W97209  33.769  30.378  28.041 -0.3833  0.0446  0.3082
54298W        W97210  31.707  30.316  30.369 -0.0766  0.1029 -0.1479
54299W        W97211   0.820  31.479  29.785  0.0483  0.0160 -0.2340
54300W        W97212  34.091  29.558  30.664  0.0532  0.4629  0.1801
54301W        W97213  32.677  30.323  29.864 -0.1950 -0.1703 -0.1257
54302W        W97214   0.543  32.872  28.086 -0.2111 -0.0175  0.1513
54303W        W97215  33.651  32.497  29.461  0.0627 -0.2916  0.0873
54304W        W97216  33.950  31.681  29.580  0.1107 -0.3134  0.1254
54305W        W97217  34.228  30.031  30.271  0.2410 -0.2014 -0.1749
54306W        W97218  32.445  31.023  31.312  0.0342  0.0911  0.3626
54307W        W97219  33.672  30.148  31.056 -0.0636 -0.3995 -0.0997
54308W        W97220  33.614  29.813  28.711 -0.2075  0.1314 -0.1638
54309W        W97221  33.770  32.354  30.479  0.0971 -0.2993  0.1403
54310W        W97222  34.401  31.836  29.235  0.0799  0.0510 -0.1968
54311W        W97223  32.172  30.649  30.040 -0.0214 -0.1974 -0.0930
54312W        W97224  33.472  32.176  28.648  0.0512  0.0049 -0.1556
54313W        W97225  34.262  30.542  28.850  0.0160 -0.4972 -0.0660
54314W        W97226  33.002  30.379  28.602  0.3229  0.0755  0.2435
54315W        W97227  34.161  30.098  30.806 -0.0348 -0.1809 -0.1946
54316W        W97228  34.333  30.463   0.036 -0.0483 -0.3690 -0.0345
54317W        W97229  33.341  30.049  30.250  0.1224 -0.0507  0.3788
54318W        W97230  34.059  29.589  28.497  0.1925  0.1042  0.2876
54319W        W97231   1.130  32.363  26.658  0.2976 -0.1718 -0.2327
54320W        W97232  32.628  28.413  29.783 -0.0621 -0.1205  0.0129
54321W        W97233  34.017  32.309  31.408 -0.0094  0.1272  0.0623
54322W        W97234  33.089  29.788  26.795  0.0574 -0.0284  0.0717
54323W        W97235  33.483  30.606  27.653 -0.4799  0.0218  0.4653
54324W        W97236  34.528  32.512  29.556 -0.2481 -0.0915  0.0556
54325W        W97237  34.288  28.166  28.044  0.3812  0.1697  0.1194
54326W        W97238  34.445  32.734  28.742 -0.0033 -0.1653  0.1208
54327W        W97239  33.207  32.388  31.070 -0.2349  0.3777 -0.0490
54328W        W97240  31.609  31.338  30.406  0.2607 -0.0987  0.0925
54329W        W97241  34.250  32.912  28.286 -0.3547 -0.2803 -0.1774
54330W        W97242  33.409  30.947  29.218 -0.0142 -0.0879 -0.2608
54331W        W97243  33.229  31.823  28.943 -0.2068  0.0038  0.1656
54332W        W97244  33.133  32.652  29.107 -0.2230  0.0245  0.0638
54333W        W97245  33.050  30.890  30.653  0.1387 -0.1867 -0.1534
54334W        W97246  33.988  28.473  28.300 -0.5520 -0.1810 -0.0007
54335W        W97247  34.140  32.066   0.082  0.1478 -0.0151  0.0369
54336W        W97248  32.908  30.417  30.869  0.0313  0.3317  0.1168
54337W        W97249  33.665  32.996  29.307  0.0122 -0.1146 -0.0549
54338W        W97250   0.675  29.868  29.141 -0.1627  0.1760  0.0259
54339W        W97251  34.016  31.297  28.308 -0.0151  0.0353 -0.1943
54340W        W97252  33.748  31.998  27.736  0.3097  0.0381  0.3333
54341W        W97253  32.991  33.746  28.926 -0.2396 -0.1518  0.0249
54342W        W97254  33.481  30.907  28.741 -0.1553 -0.1433  0.0544
54343W        W97255   0.036  29.667  29.289  0.0880 -0.0752 -0.0134
54344W        W97256   0.216  30.406   0.917  0.0176  0.0418 -0.1650
54345W        W97257  34.098  32.459  29.809 -0.0486  0.0378  0.2271
54346W        W97258  33.628  30.420  28.635 -0.0204  0.0641  0.0147
54347W        W97259  34.554  30.721  28.491 -0.1217  0.2033 -0.2496
54348W        W97260  34.195  33.070  26.968  0.1623 -0.1216  0.0679
54349W        W97261   0.099  33.689  28.468  0.1903 -0.2155 -0.0589
54350W        W97262  33.630  32.524  29.977  0.0102  0.0905  0.0838
54351W        W97263   0.097  31.709  31.248 -0.1108 -0.2972  0.0514
54352W        W97264  33.527  29.414  28.288 -0.1080 -0.1390  0.2389
54353W        W97265  32.434  30.224  30.718  0.0505  0.0887 -0.0504
54354W        W97266  33.952  30.277  29.853  0.1565 -0.0436  0.0095
54355W        W97267  33.047  30.480  30.131 -0.0983 -0.0590 -0.0334
54356W        W97268   0.803  30.830  28.279  0.1752  0.1875 -0.0953
54357W        W97269  33.324  29.636  29.227 -0.2357  0.0086  0.3578
54358W        W97270  32.885  31.035  29.431 -0.2498  0.1433  0.1437
54359W        W97271  33.271  30.652  31.092 -0.1667 -0.0405 -0.0993
54360W        W97272  31.880  28.897  29.806 -0.2079 -0.2591 -0.1515
54361W        W97273   0.933  32.874  27.436 -0.0914 -0.1243 -0.0144
54362W        W97274  31.518  30.246  31.256  0.0800  0.2051  0.3328
54363W        W97275   0.883  29.828  28.713  0.1317 -0.0049  0.4087
54364W        W97276  32.749  30.825  29.899 -0.1331 -0.1525 -0.0750
54365W        W97277  33.710  31.694  28.815  0.1179  0.1125  0.4813
54366W        W97278   0.424  32.895  27.257  0.1017  0.1275  0.0118
54367W        W97279   0.216  31.735  31.769  0.1865 -0.0483  0.0824
54368W        W97280   0.493  32.525   0.785  0.0899  0.0411 -0.2886
54369W        W97281  33.687  30.157  27.482  0.3723  0.0672  0.1842
54370W        W97282  33.345  30.443  30.655  0.2237 -0.2568 -0.2298
54371W        W97283  34.072  32.397  28.866 -0.0547 -0.1388  0.0455
54372W        W97284  34.665  32.368  29.082 -0.0572 -0.2942 -0.0087
54373W        W97285  33.956  29.598  29.998 -0.1224 -0.2570 -0.0101
54374W        W97286   0.503  28.992  28.891 -0.1591 -0.3339  0.0217
54375W        W97287  34.003  31.525  30.141 -0.1733 -0.1114  0.3344
54376W        W97288  32.568  31.177  28.446 -0.3111  0.3244  0.2429
54377W        W97289  34.424  32.086  28.640 -0.2290  0.0163  0.0491
54378W        W97290   0.316  31.824  29.924  0.0703 -0.0493 -0.3864
54379W        W97291  34.176  29.259  31.043 -0.0571 -0.1269  0.1404
54380W        W97292  33.454  29.988   0.141  0.3493 -0.0989 -0.0725
54381W        W97293  33.057  31.393  30.740 -0.2871  0.0726 -0.2718
54382W        W97294  33.643  30.137  29.124 -0.3448 -0.1948  0.3010
54383W        W97295  32.528  30.054  29.444 -0.1742 -0.2225 -0.2453
54384W        W97296  32.943  28.804  29.775 -0.2612 -0.1323 -0.1413
54385W        W97297  34.478  28.806  28.855 -0.0421 -0.0757  0.1114
54386W        W97298  32.775  30.316  28.125  0.3401  0.3710 -0.3352
54387W        W97299   0.692  29.878  31.865  0.2721  0.1702  0.3333
54388W        W97300  33.421  28.563  31.443  0.0275 -0.1457 -0.0642
54389W        W97301  32.528  30.945  26.877 -0.0473 -0.0058  0.0798
54390W        W97302  33.160  30.551  29.053  0.1435 -0.0479 -0.0231
54391W        W97303   0.179  31.267  30.353 -0.1786 -0.0165  0.1518
54392W        W97304  34.482  31.752  30.235  0.1494 -0.0643 -0.0226
54393W        W97305  31.665  29.343  30.556  0.0319 -0.4087 -0.3027
54394W        W97306  34.578  30.568  31.122 -0.2042 -0.0052  0.2219
54395W        W97307  34.577  29.806  30.575  0.0565  0.3304  0.1338
54396W        W97308  32.969  30.592  29.521 -0.1159  0.1291  0.1124
54397W        W97309  34.077  30.047  28.836 -0.2282 -0.1381 -0.0632
54398W        W97310  31.836  30.972  30.113  0.2997 -0.1438  0.0708
54399W        W97311   0.262  30.153  29.289  0.0926 -0.2704 -0.1561
54400W        W97312  34.300  30.857  31.474  0.4981 -0.2103 -0.0895
54401W        W97313  34.188  30.176  27.374  0.3416 -0.1307 -0.0017
54402W        W97314  34.638  32.145  29.932 -0.0112 -0.0553 -0.0942
54403W        W97315  32.173  30.530  31.210  0.0511  0.0072  0.1123
54404W        W97316  34.083  32.011  29.962 -0.2790  0.2104 -0.3834
54405W        W97317  33.998  30.604  27.641 -0.0875  0.0345  0.1424
54406W        W97318  33.040  29.573  31.206 -0.1641 -0.2697  0.1874
54407W        W97319   0.371  33.701  30.538 -0.2258 -0.2211 -0.1646
54408W        W97320  33.061  31.970  31.337  0.1642  0.0000  0.1096
54409W        W97321  33.642  31.472  31.397  0.0057  0.1437 -0.3372
54410W        W97322  34.494  32.498  31.367 -0.0765 -0.1210 -0.1825
54411W        W97323  33.525  31.093   0.816 -0.1535 -0.0059 -0.1713
54412W        W97324  32.650  29.548  31.700  0.1657 -0.0699  0.4296
54413W        W97325   0.765  27.564  29.880 -0.1729 -0.2194 -0.0452
54414W        W97326  34.360  30.933   0.396  0.0207  0.0177  0.3055
54415W        W97327  33.132  34.536   0.687  0.1680 -0.0293  0.0157
54416W        W97328  32.741  31.561   0.544 -0.0479  0.0885  0.2988
54417W        W97329  32.449  28.846   0.208  0.1361  0.1676 -0.0749
54418W        W97330  32.731  30.141  31.612 -0.2125 -0.1141  0.4803
54419W        W97331  33.723  29.154  30.058 -0.3825  0.1865  0.3827
54420W        W97332   0.656  33.803  31.839 -0.2247 -0.0068  0.0364
54421W        W97333   0.343  30.481  31.325  0.1584  0.0497  0.2803
54422W        W97334  33.754  32.356  31.849  0.2731 -0.1569  0.0261
54423W        W97335  34.289  32.491  31.835 -0.1878  0.1112 -0.1223
54424W        W97336  33.835  30.828   0.279 -0.0840 -0.0960  0.1421
54425W        W97337  34.313  31.638   0.916 -0.2915  0.0672 -0.1646
54426W        W97338  33.583  29.421   0.044  0.3787  0.3231 -0.0684
54427W        W97339  33.292  29.649   0.459  0.1815  0.1202  0.1289
54428W        W97340  33.874  31.756   0.438  0.0508  0.2158  0.0327
54429W        W97341  33.543  33.659   0.876  0.0136  0.0746  0.2717
54430W        W97342   0.912  31.334  31.621 -0.1037 -0.1336  0.1018
54431W        W97343  34.129  28.122  31.338  0.1510  0.0514  0.1692
54432W        W97344   0.600  32.349  31.855 -0.0295  0.0682 -0.3557
54433W        W97345  33.306  31.057  31.489  0.1350 -0.2058  0.2085
54434W        W97346   0.705  29.172  31.331  0.3926  0.2287 -0.2176
54435W        W97347   0.826  29.967   0.976  0.1105 -0.0241  0.1376
54436W        W97348  34.406  31.992  31.369  0.2035  0.2495 -0.2040
54437W        W97349  33.271  29.058  31.207  0.2316 -0.0988  0.0488
54438W        W97350  34.682  32.281  30.774 -0.1014 -0.0525  0.0870
54439W        W97351  33.925  29.134  31.902  0.3742  0.1445 -0.0698
54440W        W97352  33.895  33.531   0.482  0.0493  0.2518  0.0847
54441W        W97353  33.841  32.768  31.515  0.3324  0.0694  0.0183
54442W        W97354  34.303  32.341  30.329  0.0178  0.2386 -0.2393
54443W        W97355  33.159  31.495  31.218 -0.0241  0.0737  0.0760
54444W        W97356  33.782  30.915  31.306  0.1926 -0.1481 -0.0663
54445W        W97357  32.746  31.279   0.127 -0.1636  0.0894 -0.1304
54446W        W97358  31.643  29.427   0.650  0.0965  0.0005 -0.1725
54447W        W97359  34.568  34.640  17.073 -0.3317 -0.1323  0.1725
54448W        W97360  33.037  33.483  18.441  0.1083 -0.0831 -0.0776
54449W        W97361  34.268  32.535  19.425 -0.1167 -0.2891 -0.0794
54450W        W97362  34.136  34.132  20.181 -0.0546  0.0183  0.2815
54451W        W97363  33.824  33.155  16.671 -0.0615 -0.0341 -0.1458
54452W        W97364  32.973  32.463  18.463  0.1309 -0.2890 -0.0819
54453W        W97365  33.867   0.011  17.437 -0.1377 -0.0649  0.0993
54454W        W97366  33.886  33.499  17.229  0.1225  0.2415  0.3128
54455W        W97367  33.258  34.213  17.116 -0.2845 -0.0574  0.2229
54456W        W97368  33.184  32.840  20.260  0.3067 -0.3831 -0.5822
54457W        W97369  33.242   0.142  16.552 -0.3915 -0.0199  0.2889
54458W        W97370  32.135  33.029  17.529 -0.0770 -0.0413 -0.1733
54459W        W97371  34.009  33.983  19.057 -0.0123 -0.0022 -0.1938
54460W        W97372  33.531  34.411  18.214  0.1813 -0.0805 -0.1766
54461W        W97373  34.639  33.234  17.148  0.1899 -0.4569 -0.1834
54462W        W97374  34.098  34.281  17.168 -0.0551 -0.1986  0.1148
54463W        W97375   0.447  32.985  18.989  0.1481 -0.2693 -0.1431
54464W        W97376  34.647  33.571  16.702  0.2273  0.0115 -0.1035
54465W        W97377  33.039  34.505  18.160  0.2256 -0.1268  0.0460
54466W        W97378  32.206  33.813  20.649  0.4226  0.2704  0.0305
54467W        W97379  33.325  33.638  20.515 -0.0062 -0.0226  0.2603
54468W        W97380   0.721  33.547  17.109  0.0558 -0.1705 -0.0994
54469W        W97381  33.886   0.162  19.578 -0.0710 -0.0008  0.2189
54470W        W97382  33.483  32.903  19.812 -0.1459 -0.1526 -0.0056
54471W        W97383  33.924  32.942  19.430 -0.3956  0.1443  0.1497
54472W        W97384  32.978  33.895  18.859  0.0455  0.3337  0.0145
54473W        W97385  33.082  33.705  17.086  0.0256  0.1220 -0.1708
54474W        W97386  32.304  33.099  20.359 -0.0548 -0.1573  0.2229
54475W        W97387  33.897  33.200  18.889  0.2396  0.1285  0.1129
54476W        W97388  33.076  33.142  17.093  0.0779 -0.0255  0.0989
54477W        W97389  34.658  34.692  17.523 -0.0170  0.0909  0.1791
54478W        W97390   0.067  33.529  19.700  0.1859  0.2655  0.1040
54479W        W97391  33.029  33.655  16.497  0.0122 -0.0254  0.0178
54480W        W97392  33.375  33.297  16.281 -0.1077  0.1277  0.0278
54481W        W97393  34.216  33.427  16.767  0.1602  0.1928 -0.1611
54482W        W97394  33.732   0.573  18.211 -0.3296 -0.2072 -0.2170
54483W        W97395  32.073   0.508  20.138 -0.0919  0.2461 -0.1229
54484W        W97396  34.388  34.052  17.560 -0.2310  0.1569 -0.2933
54485W        W97397  34.622  34.188  19.225 -0.0548  0.1089 -0.0336
54486W        W97398   0.288   0.083  16.172  0.0195  0.0423 -0.0423
54487W        W97399  34.622  32.066  17.814  0.1425  0.0738  0.1740
54488W        W97400  33.618  33.764  16.523 -0.0095  0.1492  0.2080
54489W        W97401   0.154  32.427  19.251  0.3980  0.2700 -0.0869
54490W        W97402  33.755  34.068  20.498 -0.3411  0.0342 -0.1601
54491W        W97403  33.630  34.146  17.412  0.0348  0.1870 -0.0740
54492W        W97404  33.312  34.120  16.582  0.0713 -0.0458 -0.1081
54493W        W97405  32.430  33.913  17.708 -0.0418 -0.1447  0.3964
54494W        W97406  32.751  33.626  19.712 -0.0888 -0.0119 -0.3552
54495W        W97407   0.430  34.138  16.732  0.0570 -0.1227  0.1962
54496W        W97408  33.870  34.566  19.154  0.1028  0.0569  0.0130
54497W        W97409  32.920  34.461  16.652 -0.2080 -0.2157 -0.0764
54498W        W97410   0.361  33.943  17.561  0.0378 -0.2893  0.1657
54499W        W97411  33.745  34.297  16.786 -0.2446 -0.1840 -0.1519
54500W        W97412  34.544   0.198  20.074  0.1688  0.0476 -0.0348
54501W        W97413  33.520   0.598  17.732  0.0752 -0.1594  0.0803
54502W        W97414  34.233  33.343  17.559 -0.3998 -0.0874  0.2197
54503W        W97415   0.421   0.157  18.298  0.0395 -0.0700  0.3044
54504W        W97416  34.222  34.610  17.768  0.1123  0.0174 -0.4893
54505W        W97417  34.158  33.209  18.401  0.2475  0.2536 -0.1138
54506W        W97418  34.548  34.181  15.992 -0.1915 -0.0549  0.2756
54507W        W97419  33.601  32.332  18.806 -0.4216 -0.0659  0.0999
54508W        W97420  32.002  34.424  19.591 -0.1453  0.0486  0.1208
54509W        W97421  31.736   0.108  19.861 -0.1154 -0.0739  0.0805
54510W        W97422  33.902  33.067  16.166  0.2005  0.3428 -0.1788
54511W        W97423  33.684  34.179  19.428  0.5392  0.2543 -0.0824
54512W        W97424   0.116   0.339  19.116 -0.2227 -0.0451  0.1770
54513W        W97425  33.533  33.782  19.098  0.0597  0.1972  0.0584
54514W        W97426  34.261  34.494  18.847  0.0046  0.0860  0.1497
54515W        W97427  32.402  33.613  18.759  0.1030  0.1831 -0.0301
54516W        W97428  32.589  33.486  17.515  0.0929 -0.1145 -0.0719
54517W        W97429  34.384  34.449  16.365  0.1695  0.1341  0.0110
54518W        W97430  33.611  33.864  16.982  0.0176  0.2689  0.1466
54519W        W97431  33.276   0.964  16.085 -0.1231  0.0734  0.0467
54520W        W97432   0.021   0.516  16.176  0.0170 -0.2822 -0.1874
54521W        W97433   0.654  34.051  17.193 -0.0459 -0.2197  0.0671
54522W        W97434   0.360   0.547  18.699  0.0835  0.1172  0.1885
54523W        W97435  33.680   1.470  17.462 -0.1283 -0.2123 -0.1221
54524W        W97436  30.778  32.715  18.187  0.1951  0.1202 -0.0101
54525W        W97437  33.733  33.358  17.755  0.0295 -0.1549  0.2316
54526W        W97438  34.145  34.397  15.939  0.1818  0.0152 -0.2380
54527W        W97439  34.646  33.164  18.238 -0.0958 -0.3272  0.1576
54528W        W97440  32.859  33.993  16.788  0.1858 -0.0430  0.0559
54529W        W97441  32.050   1.187  19.432  0.3897  0.0345 -0.0782
54530W        W97442  33.069  33.113  18.133  0.1616  0.1860  0.4178
54531W        W97443  33.137  34.016  18.277  0.2226 -0.0548  0.1807
54532W        W97444  31.843  33.127  16.151  0.1702 -0.1223 -0.5275
54533W        W97445  33.024  33.408  20.191  0.0427  0.2182  0.3800
54534W        W97446  34.591   0.072  18.338  0.1936 -0.0330  0.0537
54535W        W97447  32.233  34.463  18.846  0.1253 -0.2264 -0.0052
54536W        W97448  34.318   0.805  17.699 -0.3234 -0.0669  0.0552
54537W        W97449   0.033  33.912  18.012  0.0758  0.2331 -0.1049
54538W        W97450  33.717   0.134  17.957 -0.1344 -0.0835 -0.1367
54539W        W97451  33.988  34.209  18.551 -0.1346 -0.1905 -0.0637
54540W        W97452  33.441  33.923  18.638  0.3104 -0.1764 -0.0013
54541W        W97453  33.239  33.813  19.492  0.0021  0.3140 -0.2213
54542W        W97454  34.643  34.110  16.883  0.1774  0.1495  0.1057
54543W        W97455  33.455  33.622  17.443 -0.2603 -0.0955  0.4090
54544W        W97456   0.277  34.353  17.275 -0.0196  0.1800 -0.0224
54545W        W97457  32.365  32.342  18.582  0.0806  0.1374 -0.0057
54546W        W97458  33.958   0.888  19.205 -0.0483  0.4071  0.0421
54547W        W97459  32.737   0.393  16.577  0.0388 -0.0068  0.1726
54548W        W97460  34.169  33.783  19.733  0.0070 -0.1705 -0.1235
54549W        W97461  33.646  34.285  22.166 -0.2031 -0.3254  0.2396
54550W        W97462  32.663  34.181  18.044 -0.0578  0.0956 -0.1266
54551W        W97463  32.260  33.412  17.020 -0.0192  0.1793 -0.3748
54552W        W97464  33.901  33.819  17.663  0.1841  0.2017 -0.0398
54553W        W97465  34.112  32.214  18.615  0.2187 -0.0514 -0.1145
54554W        W97466  33.399  33.409  16.815  0.0338  0.0590 -0.2901
54555W        W97467  33.712  34.538  20.295 -0.1526  0.1025  0.1075
54556W        W97468  34.365  33.224  19.686  0.0088 -0.1245  0.1730
54557W        W97469  32.374   0.222  16.254 -0.1374 -0.0290 -0.4314
54558W        W97470  33.540  32.855  18.820  0.1061  0.0501 -0.0306
54559W        W97471  32.690  33.208  18.805  0.0981  0.0299  0.0841
54560W        W97472  32.675  32.726  18.851  0.1254 -0.2593 -0.0021
54561W        W97473  32.567  31.935  17.663  0.2410 -0.3867  0.1976
54562W        W97474  34.142  33.562  18.004 -0.3527  0.2389  0.0758
54563W        W97475  33.738   0.685  16.073 -0.0926  0.3144  0.1461
54564W        W97476  34.318   0.627  20.303  0.0028 -0.1857  0.0489
54565W        W97477  33.432   0.015  17.079  0.0564 -0.2228  0.0462
54566W        W97478  33.903  32.772  18.180 -0.0533 -0.2203  0.0232
54567W        W97479  33.878   0.467  16.780  0.2821  0.1428  0.1465
54568W        W97480  34.228   1.375  17.656 -0.0069 -0.0379  0.1470
54569W        W97481  33.701  33.677  19.604 -0.1369 -0.0769  0.2877
54570W        W97482  33.121  33.011  21.149  0.1645  0.2339 -0.0774
54571W        W97483  31.671  31.644  20.728 -0.1252 -0.2563 -0.0096
54572W        W97484  31.836  31.622  22.125 -0.4002  0.1129 -0.1809
54573W        W97485  33.537  33.324  22.516 -0.1756  0.2077  0.3135
54574W        W97486  33.021  32.473  21.521 -0.1332  0.0283  0.1233
54575W        W97487  32.443  31.564  22.893  0.1944 -0.0633  0.3067
54576W        W97488  32.789   0.112  21.166 -0.0923 -0.2528  0.1392
54577W        W97489  32.627  32.168  21.495  0.1545 -0.2179  0.2169
54578W        W97490  33.382  33.159  20.631 -0.1440 -0.0845 -0.2109
54579W        W97491  33.909  33.020  22.719  0.0536 -0.2308 -0.0434
54580W        W97492  33.198  34.386  19.615  0.2681 -0.0773 -0.0611
54581W        W97493  32.028  34.308  22.460 -0.0781  0.1785  0.1306
54582W        W97494  31.630  32.798  22.118 -0.0464  0.2435 -0.1292
54583W        W97495   0.442  33.750  21.620  0.0368 -0.0660  0.0768
54584W        W97496  34.378  34.651  20.787 -0.2148  0.2273 -0.1022
54585W        W97497  33.800  33.818  21.415 -0.1579  0.1876  0.4630
54586W        W97498  33.605  32.081  22.495  0.0366 -0.1283 -0.0392
54587W        W97499  33.365  33.856  22.387  0.3315  0.3004  0.0857
54588W        W97500  32.505  34.407  21.309 -0.0449 -0.2578 -0.2791
54589W        W97501  31.213   0.557  23.632 -0.1173 -0.1510  0.0864
54590W        W97502  31.670  31.660  22.589  0.0939  0.0499  0.2875
54591W        W97503  32.273  33.534  21.051  0.1507  0.1169  0.1558
54592W        W97504  33.574  33.670  22.838  0.1858 -0.1116 -0.0918
54593W        W97505  32.629  34.128  24.511 -0.0544  0.1192  0.1993
54594W        W97506  33.146  33.974  22.914 -0.2379  0.3584  0.0231
54595W        W97507  32.009  33.293  22.769 -0.0677  0.0573  0.0791
54596W        W97508  32.873  33.897  20.413 -0.0237  0.1040  0.2770
54597W        W97509  33.410  32.358  22.132  0.2599 -0.2615 -0.2684
54598W        W97510  32.676  33.164  21.336  0.1865 -0.0512  0.0111
54599W        W97511  31.647  33.274  19.634 -0.1347 -0.1634 -0.1065
54600W        W97512  33.739   0.250  21.300  0.2817  0.1265 -0.0665
54601W        W97513  32.883  32.755  24.360 -0.0332  0.1543 -0.0277
54602W        W97514  32.725  33.198  21.938  0.2967  0.0518 -0.0774
54603W        W97515  33.288  33.831  19.973 -0.3105  0.0805  0.0132
54604W        W97516  33.209  33.347  19.745 -0.0868 -0.0118 -0.0717
54605W        W97517  33.007  34.347  21.144  0.2037  0.2213 -0.0064
54606W        W97518  32.948  34.265  26.084 -0.0532  0.0128  0.1939
54607W        W97519  32.561  34.315  20.293  0.3342  0.0186 -0.0634
54608W        W97520  34.420  32.929  22.668 -0.0561  0.0846  0.1196
54609W        W97521   1.543   0.885  20.149 -0.2145 -0.2679 -0.3504
54610W        W97522  34.200  32.481  23.587 -0.1884  0.3050 -0.2617
54611W        W97523  33.157   0.198  20.856 -0.2468 -0.3398  0.0833
54612W        W97524  33.916  33.067  22.202  0.0106 -0.0165  0.0369
54613W        W97525  34.687  34.685  24.896  0.1449  0.1937 -0.0123
54614W        W97526  32.561  32.740  21.763  0.0470 -0.2474  0.0603
54615W        W97527   0.577  33.418  21.963 -0.0452 -0.0223  0.1034
54616W        W97528  32.825  34.517  20.717 -0.2152  0.0168 -0.1075
54617W        W97529  33.679  32.862  23.280 -0.3927  0.0460 -0.1565
54618W        W97530  33.607  33.428  21.067 -0.2517  0.1067  0.3189
54619W        W97531  33.771   0.598  23.697 -0.1404 -0.0469  0.1186
54620W        W97532  31.610  33.745  20.580 -0.3478 -0.3636  0.1237
54621W        W97533  31.929  33.365  20.591 -0.2979 -0.0447 -0.0598
54622W        W97534  33.295  34.393  21.684  0.0033 -0.0408  0.2830
54623W        W97535  33.753  33.773  21.984 -0.3266  0.1520 -0.0285
54624W        W97536  33.637   0.028  21.851 -0.1446 -0.1567 -0.1436
54625W        W97537  33.593  34.443  21.289  0.3045  0.2396 -0.2344
54626W        W97538  33.849   0.079  22.676 -0.0787  0.2829  0.1950
54627W        W97539  33.799  33.320  23.153  0.1303 -0.2440  0.0178
54628W        W97540  32.802  33.608  23.132  0.2874  0.0649 -0.0767
54629W        W97541   0.538  32.943  21.086 -0.0482 -0.1224 -0.1068
54630W        W97542  32.428  32.033  22.818 -0.2271  0.0610 -0.1484
54631W        W97543  31.091  33.513  22.485  0.1405  0.1636  0.0160
54632W        W97544  31.774  34.580  26.330 -0.0917 -0.1503  0.0373
54633W        W97545  33.805  33.670  20.115  0.3081 -0.3099  0.0793
54634W        W97546  34.101   0.503  22.741  0.0227  0.0691 -0.2941
54635W        W97547  32.034  33.856  22.045  0.0391 -0.2474 -0.1093
54636W        W97548  33.881  34.217  22.753 -0.0904  0.2211 -0.0514
54637W        W97549  34.277  33.617  21.915 -0.2343  0.1494 -0.0175
54638W        W97550  32.176  33.157  24.809 -0.2005  0.2372 -0.0327
54639W        W97551  31.881  34.351  22.009  0.1453  0.1013 -0.1331
54640W        W97552  32.488  33.594  20.256 -0.0696 -0.0632  0.0720
54641W        W97553  31.547  33.633  20.034 -0.1053  0.0504 -0.0836
54642W        W97554  34.136   0.459  20.934 -0.0518  0.3278 -0.1352
54643W        W97555  34.505   0.198  21.632 -0.4341 -0.0581  0.1824
54644W        W97556  34.468  32.909  20.088 -0.0577 -0.1364  0.0122
54645W        W97557  33.549  34.126  23.134 -0.0847  0.1903  0.3085
54646W        W97558  32.699  32.426  22.498  0.1910 -0.1707 -0.0448
54647W        W97559  32.427  33.450  22.343  0.0921 -0.2793  0.1945
54648W        W97560  32.477  32.661  19.841 -0.3756  0.0558  0.2304
54649W        W97561  34.543  34.186  19.739  0.3298  0.3171 -0.2312
54650W        W97562  32.566  33.991  22.159 -0.1701  0.1817 -0.1283
54651W        W97563  32.421  32.360  20.944  0.0866  0.0481  0.0398
54652W        W97564   0.230  33.932  23.010  0.1096 -0.0839 -0.2471
54653W        W97565  32.726  33.550  20.719  0.0157  0.4330  0.2068
54654W        W97566  32.812  34.594  21.698  0.2778  0.0041  0.0398
54655W        W97567  31.574  34.650  21.202  0.1544  0.0948  0.0558
54656W        W97568  32.705  32.690  23.357 -0.1662 -0.1094 -0.1466
54657W        W97569  32.619  33.700  21.315  0.0395  0.2061 -0.2292
54658W        W97570  33.102  31.889  23.315  0.2250 -0.2523 -0.2342
54659W        W97571  34.639  33.391  20.158  0.0743  0.0041  0.0699
54660W        W97572  33.441  33.543  21.588 -0.1124 -0.0006  0.0191
54661W        W97573  34.016  34.192  21.653 -0.2711 -0.2025 -0.3220
54662W        W97574  33.611  33.752  23.477 -0.2733  0.0485 -0.1578
54663W        W97575  31.008  32.873  21.172 -0.2744 -0.3333 -0.1145
54664W        W97576  32.227  32.733  23.539 -0.2444  0.2706  0.1501
54665W        W97577   0.450  32.848  19.488  0.3289 -0.0092  0.1088
54666W        W97578  32.624  32.884  22.326 -0.2768 -0.0623  0.1440
54667W        W97579  34.268  33.670  20.423 -0.3492 -0.1276 -0.2739
54668W        W97580  33.076  32.947  21.600  0.0632 -0.0932 -0.0460
54669W        W97581  33.706  34.255  23.610  0.0377 -0.0604  0.0906
54670W        W97582  34.365  34.107  20.624  0.2691  0.0329  0.0273
54671W        W97583  33.232  32.550  23.172  0.0626 -0.2015  0.0381
54672W        W97584  32.353  33.320  23.225 -0.1143 -0.0866 -0.3008
54673W        W97585  31.818  33.642  21.530 -0.0146 -0.0352 -0.2300
54674W        W97586  31.947  32.604  21.138 -0.0431 -0.1412  0.2368
54675W        W97587  33.275  33.946  21.887 -0.0201  0.1159  0.1470
54676W        W97588  32.945  32.131  21.944 -0.1669 -0.0183 -0.0023
54677W        W97589  34.249  32.423  19.945  0.1180  0.0191 -0.0469
54678W        W97590  34.438   0.899  25.424 -0.1071 -0.0985 -0.0313
54679W        W97591  34.599  32.797  23.359 -0.1641  0.2182 -0.0659
54680W        W97592  33.296  33.966  21.382  0.0400 -0.1401  0.0932
54681W        W97593  32.990  33.420  22.695 -0.0006  0.1961  0.0690
54682W        W97594  34.151  32.754  23.109 -0.2662  0.3823  0.0878
54683W        W97595  34.150  33.612  23.479  0.0970  0.2744  0.3028
54684W        W97596   0.048  33.374  21.545 -0.2851 -0.0338  0.0922
54685W        W97597  32.488  33.636  21.831  0.0679 -0.0024 -0.0751
54686W        W97598  34.683  32.981  20.668  0.1434  0.0062  0.2730
54687W        W97599  34.515  32.691  22.174 -0.1100 -0.0751 -0.0627
54688W        W97600   0.147  33.023  22.036 -0.2099  0.2214 -0.5291
54689W        W97601  31.062  31.912  21.647 -0.1301 -0.0831 -0.1833
54690W        W97602  32.118   0.089  21.126  0.2314 -0.2021  0.1437
54691W        W97603  33.497  32.807  22.403 -0.0069 -0.0679 -0.0595
54692W        W97604  32.426  31.491  22.140 -0.0503 -0.0885  0.2501
54693W        W97605  33.665  33.918  24.470  0.1836  0.3071 -0.3522
54694W        W97606  32.093   0.350  26.706 -0.0152  0.0198  0.1477
54695W        W97607  34.041  33.491  25.295 -0.1383 -0.0673  0.0185
54696W        W97608  34.586  34.699  25.984 -0.1154  0.3959 -0.0634
54697W        W97609  32.455  32.972  23.880 -0.0754  0.1429 -0.3884
54698W        W97610  34.468  33.192  27.518 -0.2665  0.3299  0.1759
54699W        W97611  32.472   0.067  26.436 -0.2285 -0.2745 -0.2149
54700W        W97612  34.404   0.409  26.228 -0.2246 -0.0901 -0.0492
54701W        W97613  34.535  33.917  25.209  0.1653 -0.0365  0.0434
54702W        W97614   0.869  34.195  26.715 -0.1871 -0.0621  0.1934
54703W        W97615  32.766  34.432  23.677 -0.1016 -0.1063  0.1296
54704W        W97616  32.951   0.227  26.554  0.0437 -0.0364  0.3531
54705W        W97617  34.057   0.544  27.086 -0.1671 -0.1621 -0.3023
54706W        W97618   0.400  33.525  26.345  0.0310  0.1041  0.3102
54707W        W97619   0.537  34.222  23.310  0.1506  0.0661  0.0694
54708W        W97620  32.514  32.425  25.857  0.0199 -0.0038 -0.0088
54709W        W97621   0.357  34.405  26.608 -0.1675  0.0714 -0.0123
54710W        W97622  34.014  33.437  26.657  0.2102  0.0658 -0.3103
54711W        W97623   0.204   0.829  24.416  0.0959 -0.2074  0.0223
54712W        W97624  34.398   1.096  27.715 -0.1103 -0.1117 -0.0730
54713W        W97625  32.966   0.780  27.911  0.2609  0.1020 -0.0518
54714W        W97626  33.368  34.503  25.151 -0.4141 -0.1940  0.0085
54715W        W97627   0.614  34.333  25.542 -0.2262 -0.0846 -0.1783
54716W        W97628  32.227  33.196  27.335  0.0670 -0.0716 -0.0441
54717W        W97629  33.273  34.692  26.292 -0.5281 -0.0204 -0.2769
54718W        W97630  32.875  34.133  27.574 -0.2280  0.1884 -0.2115
54719W        W97631  32.592  34.334  25.760 -0.0304 -0.3937  0.0341
54720W        W97632   0.007  33.140  26.505  0.2348  0.1851  0.1413
54721W        W97633   0.058   0.109  26.496 -0.1701 -0.0964 -0.1868
54722W        W97634  32.583  34.230  24.076  0.3161  0.0613 -0.0517
54723W        W97635  32.800  34.382  26.513  0.0385  0.0963 -0.2244
54724W        W97636  32.217  34.659  25.995  0.0190  0.0217 -0.0435
54725W        W97637  31.656  34.407  23.586 -0.2514 -0.0203 -0.0337
54726W        W97638  33.303  33.589  24.212 -0.1914 -0.1473 -0.0548
54727W        W97639  32.977  33.205  24.011 -0.3126  0.0180  0.2057
54728W        W97640  32.138   0.816  26.815 -0.0788  0.0610 -0.0819
54729W        W97641  33.543   0.230  27.932 -0.2392 -0.0614  0.1560
54730W        W97642  33.306   0.230  23.881  0.2510 -0.1602 -0.0297
54731W        W97643  34.631  33.445  25.330 -0.1429 -0.1413  0.2372
54732W        W97644   0.213  34.556  24.238  0.1031 -0.0031  0.1166
54733W        W97645  34.171  34.639  26.240 -0.0653  0.0670  0.2462
54734W        W97646  33.542  33.288  23.656 -0.0248 -0.0718  0.2287
54735W        W97647   1.327  33.449  26.633  0.2714 -0.2506  0.1379
54736W        W97648   0.932   0.170  27.441 -0.0726  0.1722  0.2326
54737W        W97649  34.037  32.726  26.068 -0.0374  0.1115 -0.0576
54738W        W97650   0.531  33.138  24.340 -0.0093  0.0077  0.1800
54739W        W97651  32.112  34.019  24.016  0.0823  0.0429 -0.2225
54740W        W97652  33.769  33.653  25.860  0.0166  0.3526 -0.0804
54741W        W97653  34.415  32.647  25.714 -0.0729 -0.1794 -0.1528
54742W        W97654   0.059   0.492  27.917 -0.0108 -0.0143 -0.2967
54743W        W97655  33.243  33.295  23.188 -0.0234 -0.2408  0.0480
54744W        W97656  34.012  33.199  25.749  0.2768  0.1954 -0.3047
54745W        W97657  32.540  34.268  25.215 -0.2182  0.0132  0.4418
54746W        W97658  33.799  34.313  27.116  0.2017  0.2118 -0.1475
54747W        W97659  33.768   0.238  25.933  0.1704 -0.2379 -0.2084
54748W        W97660  32.551   0.060  25.017  0.0365 -0.1098 -0.5498
54749W        W97661   1.038   1.162  26.119  0.2881 -0.0325 -0.1049
54750W        W97662   0.353  33.389  26.982 -0.0651  0.0242  0.0605
54751W        W97663  34.287  34.324  25.775  0.1358  0.2483  0.2287
54752W        W97664  33.260  33.753  24.718  0.0326  0.4417  0.1577
54753W        W97665   0.239  34.295  26.071  0.1200 -0.0154 -0.0067
54754W        W97666  34.353   0.260  28.211  0.4247 -0.3923 -0.2046
54755W        W97667  33.775   0.266  28.375  0.2558 -0.0289  0.1781
54756W        W97668  33.788  32.823  24.405 -0.2272  0.0976  0.2605
54757W        W97669  34.656   0.586  26.670 -0.0907 -0.2191  0.1433
54758W        W97670  34.395   0.885  27.228 -0.0198  0.0073  0.0547
54759W        W97671  34.537  34.319  26.462 -0.1115  0.2211 -0.0446
54760W        W97672  34.696   0.702  28.485  0.3274 -0.4439 -0.3027
54761W        W97673  34.244  33.931  26.593 -0.0948  0.1283 -0.1900
54762W        W97674  33.744  32.176  26.734  0.0230 -0.1273 -0.0947
54763W        W97675   0.113   0.028  22.601  0.0305 -0.0680  0.0676
54764W        W97676  33.983  32.534  26.995  0.0651 -0.0100  0.1987
54765W        W97677  33.057  33.200  24.512 -0.0702 -0.0691  0.3742
54766W        W97678  34.197  34.047  23.830  0.0701 -0.4409 -0.4630
54767W        W97679   0.184  33.421  24.117  0.2031  0.1930  0.1729
54768W        W97680  34.233   0.211  25.709  0.0832  0.0956 -0.0960
54769W        W97681  33.726  34.457  26.107 -0.2498  0.1738  0.2276
54770W        W97682  33.263  34.609  27.190  0.1152 -0.2168  0.0819
54771W        W97683   0.693  33.487  24.031 -0.1554  0.1379 -0.0477
54772W        W97684  32.894  32.273  23.503  0.2679 -0.2091 -0.0320
54773W        W97685  33.378  34.504  26.702 -0.2364  0.1148 -0.0517
54774W        W97686  34.366  33.099  24.364  0.1314  0.4169 -0.0652
54775W        W97687  33.748   0.130  27.029  0.0726  0.0679  0.1347
54776W        W97688  33.076  34.101  24.221 -0.0887  0.1404  0.2811
54777W        W97689  33.910   0.527  25.520 -0.3153  0.1655 -0.0614
54778W        W97690  32.145  33.997  25.394  0.1506  0.0544 -0.0200
54779W        W97691  33.352  34.140  27.253  0.2478  0.1452 -0.0980
54780W        W97692  33.514  33.383  25.512 -0.1448  0.0703 -0.0365
54781W        W97693  34.204  34.430  26.824 -0.0271 -0.2455  0.0665
54782W        W97694  33.959  34.406  24.672 -0.1805 -0.1070  0.0497
54783W        W97695  33.526  32.969  25.925 -0.0227  0.0068 -0.3141
54784W        W97696   0.030   0.430  25.667  0.0086 -0.0912  0.0822
54785W        W97697   0.210   0.955  26.955  0.2885 -0.3352 -0.2073
54786W        W97698  32.626  33.380  26.906 -0.1956 -0.1404 -0.0541
54787W        W97699  32.774  34.676  27.470 -0.0760  0.1652 -0.0941
54788W        W97700  34.253  33.029  25.239 -0.1297 -0.4208 -0.3815
54789W        W97701  32.598  32.885  25.741  0.2790 -0.1099  0.1543
54790W        W97702  34.504  34.219  24.652 -0.1764  0.0159  0.0821
54791W        W97703  33.023  32.978  26.194 -0.2204 -0.0385 -0.1924
54792W        W97704  33.785   0.256  26.442  0.0842 -0.1135  0.0288
54793W        W97705  32.671  33.385  23.644 -0.0516  0.1063  0.2126
54794W        W97706   0.346  32.885  26.747  0.2523 -0.0029 -0.2588
54795W        W97707  32.676   0.547  26.175  0.0190 -0.0247 -0.3872
54796W        W97708  32.894   1.047  26.394 -0.2404 -0.1044 -0.1087
54797W        W97709  32.785  33.779  23.927  0.0995 -0.2641 -0.2752
54798W        W97710  34.149  33.949  24.854 -0.0889 -0.0535  0.2938
54799W        W97711  32.899  34.268  27.097 -0.1945  0.4533  0.0862
54800W        W97712  33.689  33.583  24.988 -0.1896  0.2826 -0.1260
54801W        W97713   1.098   0.521  28.824  0.0643 -0.1330 -0.1169
54802W        W97714   1.122  34.574  28.400  0.2403 -0.0857  0.0709
54803W        W97715  32.832  33.645  25.371 -0.0016  0.1843  0.1235
54804W        W97716   0.301   0.484  24.788 -0.1098 -0.3138  0.1724
54805W        W97717   0.256  32.587  25.658 -0.0663  0.0987 -0.1128
54806W        W97718   0.013  34.652  27.594 -0.2070  0.2862 -0.0667
54807W        W97719  33.909  32.251  26.065 -0.2834 -0.1875  0.1446
54808W        W97720  33.517  33.976  26.779  0.0548 -0.0329 -0.0207
54809W        W97721   0.589  34.382  25.059  0.1342  0.1611 -0.0488
54810W        W97722   1.028  34.665  27.932  0.2293 -0.2559 -0.0340
54811W        W97723  34.058  33.507  24.414  0.1150  0.1291  0.0760
54812W        W97724  33.450  32.289  26.316  0.1079  0.1547 -0.2439
54813W        W97725  34.133  34.042  24.366 -0.0687 -0.0315  0.0216
54814W        W97726   0.327   0.378  24.250 -0.1086  0.0558 -0.0716
54815W        W97727  33.388  32.761  24.675  0.0190  0.1174 -0.2243
54816W        W97728  34.669  34.089  26.890 -0.0696 -0.1192 -0.2741
54817W        W97729  34.253  32.363  28.270  0.0618  0.2747 -0.3726
54818W        W97730  32.736  32.606  31.225  0.1706  0.2206  0.0614
54819W        W97731   0.218   0.037  30.037 -0.5529  0.2235 -0.0227
54820W        W97732   0.885   0.111  26.869  0.0278  0.2887 -0.3515
54821W        W97733  33.121  32.814  29.579 -0.0661  0.3227  0.0286
54822W        W97734   0.122  34.183  28.479 -0.0982 -0.0586  0.3218
54823W        W97735   0.305  32.714  29.028 -0.0909 -0.0666 -0.0528
54824W        W97736   0.777  33.456  30.216  0.2093 -0.0325 -0.4288
54825W        W97737  34.434  34.059  29.901  0.0328  0.0434 -0.0116
54826W        W97738  32.108  34.449  27.754 -0.1015  0.0956 -0.1597
54827W        W97739  32.342   0.304  28.982  0.0162  0.2311 -0.0871
54828W        W97740   0.017  33.547  30.305  0.1387  0.0117  0.0997
54829W        W97741   0.974  34.486  30.579 -0.2641  0.0604  0.4410
54830W        W97742   0.373   0.300  28.306  0.1933 -0.0220 -0.0669
54831W        W97743   0.830  31.926  30.006 -0.1947  0.0746 -0.0557
54832W        W97744  34.232  33.292  30.662  0.1208 -0.2783 -0.2297
54833W        W97745  34.428  33.504  29.859  0.2469 -0.0687 -0.2095
54834W        W97746   0.497  33.164  29.253  0.2567 -0.1105  0.1480
54835W        W97747  34.242  33.723  30.347  0.0684  0.0985 -0.0441
54836W        W97748  31.987   0.167  31.036 -0.0210 -0.2286  0.4671
54837W        W97749   0.367   0.260  27.402 -0.1909 -0.2486  0.2797
54838W        W97750  34.468  33.982  31.299 -0.3207 -0.1420  0.2303
54839W        W97751  32.351  32.113  30.398 -0.0503  0.4649 -0.2468
54840W        W97752  33.405  33.041  29.951  0.0491  0.1203 -0.2693
54841W        W97753  33.468  32.785  30.398 -0.0762 -0.2323 -0.2169
54842W        W97754  34.649  33.622  29.190  0.2926 -0.1606  0.3995
54843W        W97755   0.240  33.933  31.497  0.1136  0.0930 -0.1121
54844W        W97756  32.996  32.760  30.170 -0.0130  0.1319  0.0669
54845W        W97757  33.305  33.312  28.292 -0.3973  0.0584 -0.0296
54846W        W97758  34.206  34.687  28.624  0.0081 -0.4715  0.0092
54847W        W97759   0.052  33.242  29.495  0.2983 -0.2572  0.0639
54848W        W97760  34.186  33.836  27.131 -0.1027 -0.1247  0.3638
54849W        W97761  34.100  32.694  29.274  0.0420 -0.3297  0.3260
54850W        W97762  33.949  31.988  28.355  0.1340 -0.0966 -0.4124
54851W        W97763  34.355  34.621  29.188  0.1145  0.3136  0.1656
54852W        W97764  33.161   0.661  30.049  0.1467  0.1893 -0.1404
54853W        W97765  32.566  34.063  28.375  0.2740  0.3517  0.0071
54854W        W97766   1.033  32.960  29.238 -0.0143 -0.0079  0.1281
54855W        W97767  34.304   0.235  26.728  0.2763  0.0957 -0.0289
54856W        W97768   0.178  33.631  31.932 -0.1364 -0.3351  0.3677
54857W        W97769  33.670   0.705  26.666  0.0337 -0.0164 -0.1583
54858W        W97770  34.602  32.679  30.034  0.0441  0.0099 -0.3272
54859W        W97771   2.944  32.928   0.236 -0.3160  0.0304  0.1239
54860W        W97772   0.116  33.158  31.808  0.1948 -0.0909  0.0873
54861W        W97773   0.601  33.356  28.221  0.2013  0.2780 -0.1450
54862W        W97774  34.290  34.085  28.514  0.0528 -0.2471 -0.0133
54863W        W97775  34.591  33.656  30.891 -0.0503 -0.0844 -0.2237
54864W        W97776   0.796  33.149  31.270 -0.1742 -0.0871  0.0700
54865W        W97777   0.229  33.053  30.519 -0.0675 -0.0797  0.1448
54866W        W97778  33.045  34.227  28.187 -0.4071  0.0370  0.0150
54867W        W97779  34.467  33.127  30.250  0.0155 -0.4142  0.3454
54868W        W97780  34.325   0.671  29.833 -0.0097 -0.0060  0.1215
54869W        W97781  32.919  32.333  31.613  0.2998  0.0410  0.1657
54870W        W97782  34.567   0.696  30.377  0.2298  0.3121 -0.0034
54871W        W97783  34.534  34.146  27.887  0.3653  0.0627  0.0019
54872W        W97784   0.183  33.715  29.747 -0.1420 -0.0605  0.0007
54873W        W97785   0.210  34.026  30.139  0.0996 -0.0429 -0.0567
54874W        W97786   0.255  34.095  30.982  0.2503  0.0034 -0.0425
54875W        W97787   0.625  33.294  30.682  0.2020 -0.1363  0.0050
54876W        W97788   0.249  32.899  31.429  0.2015  0.1053 -0.0354
54877W        W97789  34.311  33.035  29.626  0.2253  0.4316  0.0659
54878W        W97790  32.846   0.069  31.330 -0.0932  0.0564 -0.0823
54879W        W97791  34.573  32.886  29.209 -0.1985  0.1702 -0.0245
54880W        W97792   0.122   0.214  29.132  0.1890 -0.2085 -0.1956
54881W        W97793  33.634  34.302  29.214  0.1853  0.3291 -0.2036
54882W        W97794  33.781  33.014  30.739 -0.1818  0.0965 -0.1779
54883W        W97795   1.029  33.510  30.919 -0.2997 -0.0235  0.0430
54884W        W97796  33.286  33.271  30.354  0.0362  0.0321  0.0291
54885W        W97797  33.908  33.736  28.157  0.0712  0.1690  0.0630
54886W        W97798   0.170  33.054  28.490  0.1272 -0.3170  0.1030
54887W        W97799  33.259  33.813  30.381 -0.2340 -0.1562  0.2569
54888W        W97800  32.583  33.429  28.265  0.0520 -0.0287  0.0800
54889W        W97801   0.868   0.454  28.331 -0.1735  0.1510 -0.2202
54890W        W97802   0.724  33.354  27.293  0.0508  0.0155 -0.0337
54891W        W97803  34.075   0.575  30.237  0.3663 -0.1696  0.0317
54892W        W97804  34.218  33.549  29.425 -0.2471  0.1537  0.0282
54893W        W97805  32.983  34.098   0.432  0.0892 -0.0779 -0.2378
54894W        W97806  34.429  32.652  27.823 -0.1616  0.1374 -0.1364
54895W        W97807   0.052  33.086  27.978  0.1298  0.0820 -0.1973
54896W        W97808   1.028  33.805  30.548  0.0370  0.4018 -0.4002
54897W        W97809   0.425  33.898  26.928 -0.2777  0.2411 -0.2221
54898W        W97810  34.335   1.639  31.379  0.0635 -0.0811 -0.1365
54899W        W97811  33.759  34.414  28.033 -0.1265 -0.6320  0.1086
54900W        W97812   1.013  34.000  29.534  0.1218  0.0525  0.0832
54901W        W97813   0.077  33.629  27.819  0.0399 -0.3303 -0.1534
54902W        W97814  34.118  34.519  30.021 -0.0965  0.2595 -0.1382
54903W        W97815  34.436  33.361  28.582 -0.2518 -0.0876  0.1030
54904W        W97816   0.211  33.161  29.963 -0.0950  0.0889  0.1546
54905W        W97817   0.580   0.693  27.203  0.2383  0.0345 -0.0678
54906W        W97818  33.773  33.431  28.958  0.1339  0.3379  0.1768
54907W        W97819  34.555  34.513  29.769 -0.2071 -0.0758 -0.3455
54908W        W97820   1.631  34.345  30.310  0.0424  0.1855 -0.1470
54909W        W97821  33.392  33.609  28.690 -0.1124  0.2635  0.1624
54910W        W97822  33.799  33.855  29.320  0.1047 -0.0375 -0.1309
54911W        W97823   0.663  34.297  29.312 -0.0066 -0.1778 -0.1070
54912W        W97824  33.348  33.549  29.965 -0.4086 -0.2386 -0.1183
54913W        W97825   0.547  33.798  29.424 -0.0336  0.0079  0.0576
54914W        W97826   0.050  32.767  30.986  0.1130 -0.0931 -0.1100
54915W        W97827  33.426   0.161  29.704 -0.0822 -0.0050  0.0609
54916W        W97828  34.454  34.258  27.296  0.4813  0.0601 -0.1156
54917W        W97829   0.909  31.751  31.939  0.1233  0.0284  0.2004
54918W        W97830  33.231  32.368  30.551 -0.3112 -0.2771 -0.2454
54919W        W97831  34.284   0.209  29.654  0.2909 -0.2666 -0.0088
54920W        W97832   0.563  34.441  28.325 -0.0707  0.2569  0.2815
54921W        W97833  33.871  32.931  29.772  0.2534  0.1521  0.0590
54922W        W97834  34.111  32.159  29.417  0.0763  0.2494  0.1500
54923W        W97835  33.730  33.396  29.587 -0.0771 -0.0007 -0.0640
54924W        W97836  34.661  34.027  30.543  0.0306 -0.2378  0.2113
54925W        W97837  34.166  32.775  31.083 -0.0745  0.2980 -0.1437
54926W        W97838  33.177  33.695  27.869 -0.1896  0.1123  0.1012
54927W        W97839   0.885   1.353  29.822 -0.0248 -0.2678  0.1439
54928W        W97840  33.534  32.164  31.412  0.3600 -0.3274  0.1172
54929W        W97841  33.308  32.559  31.975  0.0998  0.1009 -0.1785
54930W        W97842  34.162  33.291  27.993 -0.0442 -0.0471  0.1357
54931W        W97843  32.577  33.858  29.217 -0.1216 -0.2927  0.0331
54932W        W97844   1.047  33.781  28.652  0.3421  0.3517 -0.2300
54933W        W97845   0.290   0.269  30.953 -0.1248  0.1751 -0.0379
54934W        W97846  34.233  33.774  27.679 -0.2220 -0.2945  0.0132
54935W        W97847  33.778  33.231  30.175 -0.1758 -0.0055  0.0759
54936W        W97848   0.202   1.314  28.569 -0.1335  0.0163  0.1060
54937W        W97849   0.575  33.051  28.776 -0.1966 -0.0691 -0.0140
54938W        W97850   0.771  32.570  29.467  0.1125  0.2095 -0.0243
54939W        W97851  33.973  33.806  31.328  0.1491  0.2886 -0.2766
54940W        W97852  32.715  34.492   0.959 -0.1425 -0.0779 -0.1099
54941W        W97853  33.582  32.872   0.397  0.1040  0.1591 -0.0231
54942W        W97854  32.831  32.725   0.279 -0.2935 -0.0551 -0.2259
54943W        W97855  33.603  34.694   0.844 -0.4397  0.3511 -0.1876
54944W        W97856   0.431  33.025   0.738 -0.2416  0.0155 -0.1372
54945W        W97857  34.050  34.199  30.415 -0.0912  0.2824  0.4690
54946W        W97858  32.777   0.504   0.075 -0.0129 -0.0137  0.0792
54947W        W97859  33.205  33.872  30.933  0.1781  0.0547 -0.2250
54948W        W97860  32.246  33.767   1.286 -0.1175  0.0006  0.2193
54949W        W97861  34.682  31.914   0.151  0.0178 -0.1013  0.0297
54950W        W97862  33.963  34.351  31.633  0.0841 -0.0808 -0.1531
54951W        W97863  33.408   0.895  31.738 -0.0826  0.0051  0.2199
54952W        W97864   0.872  33.617  31.446 -0.1998 -0.6143  0.0304
54953W        W97865  33.937  32.862  31.969 -0.2625 -0.2590 -0.2718
54954W        W97866   1.225  32.242  30.340 -0.0750  0.2476  0.2573
54955W        W97867  33.362   0.583   0.103  0.1912 -0.1256 -0.1093
54956W        W97868   0.035  32.672   0.045 -0.2488  0.0414 -0.0601
54957ION     NA97869  24.737  16.117   6.936 -0.2291  0.3270  0.5990
54958ION     NA97870  14.206   1.596   5.225  0.0811  0.5438  0.2953
54959ION     NA97871   8.130  13.759   8.931 -0.4086 -0.1407  0.0873
54960ION     NA97872  26.831   6.708   5.447  0.0156  0.2727  0.2288
54961ION     NA97873  29.167  17.089   6.964  0.6234 -0.3235 -0.5975
54962ION     NA97874  33.666  25.990   7.965 -0.1845 -0.1896  0.2050
54963ION     NA97875   4.742   0.253   4.378 -0.5928 -0.1852  0.5568
54964ION     NA97876  24.337  30.051  31.837 -0.5098  0.1415 -0.3042
54965ION     NA97877  24.157   5.587   7.297  0.0599 -0.0722  0.1220
54966ION     NA97878  21.009   6.951   7.045 -0.6814  0.1035  0.6200
54967ION     NA97879  25.320  25.592   1.960 -0.5175  0.3286 -0.4464
54968ION     NA97880  29.508   6.822   7.563  0.2639  0.5311  0.2164
54969ION     NA97881  30.180   5.845   4.782  0.1813 -0.0371 -0.0510
54970ION     NA97882  33.985  23.166   9.224 -0.1809 -0.3562 -0.1791
54971ION     NA97883  19.815  25.975   8.609  0.2948  0.4745  0.0021
54972ION     NA97884  31.847  28.708   4.028  0.6824  0.3546 -0.3434
54973ION     NA97885  16.535  32.567   3.737 -0.5354  0.1493 -0.1099
54974ION     NA97886  14.299  28.340   2.736 -0.3393 -0.0880  0.6432
54975ION     NA97887   9.787  33.170   3.313 -0.4236 -0.0587  0.3891
54976ION     NA97888  25.825  10.305   6.019  0.3373  0.1451 -0.0343
54977ION     NA97889  31.757  27.956   6.123 -0.0675 -0.5705  0.1246
54978ION     NA97890   4.073  31.717   0.071 -0.2746  0.1313  0.4887
54979ION     NA97891  24.884   1.330   6.121 -0.2387  0.5697  0.2789
54980ION     NA97892  32.903  29.753   8.917  0.2586  0.0546  0.2731
54981ION     NA97893  33.083  16.912   0.132  0.6050  0.2310  0.2322
54982ION     NA97894  26.967  34.149   1.041  0.0812 -0.0552 -0.2455
54983ION     NA97895   5.853  18.977   5.600 -0.4103 -0.8469 -0.6006
54984ION     NA97896  17.934  30.698   3.280  0.2565 -0.3185 -0.2811
54985ION     NA97897   8.343   3.336   5.609  0.1815 -0.1172 -0.0192
54986ION     NA97898  17.511  30.098   3.170 -0.1848 -0.4368  0.0841
54987ION     NA97899  22.833  32.186   6.266  0.2562  0.5387 -0.0113
54988ION     NA97900  10.863  33.322   5.763  0.1138 -0.1294 -0.1090
54989ION     NA97901  24.154  17.233   5.271  0.0824  0.1828 -0.7086
54990ION     NA97902   3.177   0.960   0.151 -0.0966  0.1210 -0.1170
54991ION     NA97903  28.377   2.070   0.959  0.2449  0.0523 -0.1750
54992ION     NA97904  14.355  17.877   7.996 -1.0779  0.2276  0.0049
54993ION     NA97905   6.498  25.213   2.635 -0.5040  0.0831  0.5037
54994ION     NA97906  10.564  33.616   7.948 -0.2601  0.4238 -0.2156
54995ION     NA97907  31.507  14.210   7.021  0.1040  0.1474 -0.2999
54996ION     NA97908  22.975   1.908   8.843 -0.5193  0.0523  0.0104
54997ION     NA97909  17.681  28.430   8.690  0.4710  0.3301  0.7256
54998ION     NA97910  14.644  32.957  31.428  0.0330 -0.5133 -0.2336
54999ION     NA97911  27.351  25.289   2.163 -0.1237 -0.4359 -0.3912
55000ION     NA97912  30.057  33.427   3.749  0.2151 -0.3366 -0.6943
55001ION     NA97913  23.330  12.226   4.276  0.4528 -0.2670  0.0527
55002ION     NA97914   6.329  33.781   7.337 -0.6122  0.3566 -0.4900
55003ION     NA97915  20.229   5.804   8.209 -0.5433 -0.0048 -0.5483
55004ION     NA97916  12.859   1.118   0.767  0.3555 -0.4592  0.4391
55005ION     NA97917  26.559   7.464   0.194  0.6346 -0.2009 -0.2246
55006ION     NA97918  12.779   6.816   4.377  0.1077  0.3166  0.2533
55007ION     NA97919  30.845  23.777   2.383 -0.0208 -0.2435 -0.0489
55008ION     NA97920   7.271  28.612   9.553 -0.3869  0.3917  0.1006
55009ION     NA97921   9.697   9.637   2.277  0.5002  0.3021  0.3273
55010ION     NA97922  15.311   8.729   6.108  0.3755  0.0649  0.0719
55011ION     NA97923  11.253   5.597   6.416 -0.3304  0.3156 -0.5653
55012ION     NA97924  22.790  25.000   5.688  0.2044  0.2012 -0.3538
55013ION     NA97925   0.128  22.092   3.009  0.3672 -0.5013  0.3255
55014ION     NA97926  15.623  25.866   4.872  0.6382  0.3413  0.8328
55015ION     NA97927  26.998  27.557   8.323 -0.0634  0.6910  0.1396
55016ION     NA97928  18.116  32.890   5.590 -0.2717 -0.1745 -0.4316
55017ION     NA97929  32.752   6.186   3.875 -0.1667  0.0968 -0.3967
55018ION     NA97930  34.566   6.833   9.353 -0.2008 -0.3150 -0.4614
55019ION     NA97931  13.370  19.725   6.446 -0.0663  0.2108 -0.1238
55020ION     NA97932  18.978   8.714   5.072 -0.0854 -0.4978  0.0349
55021ION     NA97933   6.600  29.525   2.646  0.6109  0.0819  0.2736
55022ION     NA97934   9.603  24.224   3.566  0.1402  0.1782 -0.5926
55023ION     NA97935  12.900  29.197   8.393 -0.3585  0.4027  0.2726
55024ION     NA97936   6.795  10.370  31.191  0.1545 -0.3100 -0.8018
55025ION     NA97937  29.307  12.731   1.946 -0.0546 -0.4627 -0.0937
55026ION     NA97938  15.505  10.295   5.256  0.4012  0.4683 -0.7093
55027ION     NA97939   7.045  21.416   7.142 -0.4174 -0.1748  0.6929
55028ION     NA97940   0.584  26.394   1.343  0.2079 -0.6916  0.3724
55029ION     NA97941  10.069  10.194   3.411 -0.3129 -0.2342 -0.1921
55030ION     NA97942  20.688  12.060   3.833  0.3024  0.0760 -0.0489
55031ION     NA97943   3.813  31.024   6.034  0.2941 -0.2583 -0.0870
55032ION     NA97944  10.078  23.515   4.405 -0.0494  0.2151  0.2869
55033ION     NA97945  29.482  16.094   5.070  0.3841 -0.1132  0.1709
55034ION     NA97946  15.501  15.648   2.651  0.1442 -0.4673  0.6671
55035ION     NA97947  28.475  21.064   5.304 -0.4668 -0.3499 -0.6617
55036ION     NA97948  26.357   6.538   8.023 -0.2186  0.1853  0.0931
55037ION     NA97949  29.048  16.599   4.695 -0.2660  0.1032 -0.0043
55038ION     NA97950  26.135   6.278   6.104  0.3523  0.5670 -0.0405
55039ION     NA97951  29.345  28.027   6.242  0.1598  0.5341 -0.7390
55040ION     NA97952  23.170  17.713   5.585  0.2263  0.1656 -0.3128
55041ION     NA97953  16.903  16.173   6.987  0.4943  0.3712  0.2330
55042ION     NA97954   9.094  14.135   9.227 -0.1497 -1.0642  0.7848
55043ION     NA97955   0.057   3.222   3.959 -0.3186  0.0191 -0.3619
55044ION     NA97956  16.002  17.446   7.543 -0.3402  0.0450  0.2053
55045ION     NA97957   8.875  24.946   5.609  0.5581  0.0455 -0.4521
55046ION     NA97958   5.678  25.882   0.961 -0.2035  0.3082  0.0249
55047ION     NA97959   9.259  18.612   1.434 -0.0822  0.2623  0.0626
55048ION     NA97960  29.585   4.069   6.928  0.4576  0.2938 -0.0066
55049ION     NA97961  28.916  30.293   1.875  0.4942 -0.0310 -0.0213
55050ION     NA97962  14.716   1.689   8.005 -0.1901  0.0114  0.2358
55051ION     NA97963  32.299  19.766   8.518  0.2000 -0.2972 -1.1764
55052ION     NA97964  23.000  31.159   1.101  0.1908  0.2745 -0.2767
55053ION     NA97965  32.920  10.005   1.173 -0.0507  0.0266 -0.0744
55054ION     NA97966  33.247  16.130   2.864  0.1641 -0.1420 -0.0392
55055ION     NA97967  27.068   7.114   2.630 -0.2217  0.5153  0.0106
55056ION     NA97968   7.017  32.070   8.114  0.0263 -0.3100 -0.1963
55057ION     NA97969   3.663   5.365   4.657 -0.7244 -0.1407 -0.3268
55058ION     NA97970  23.832   4.081   8.914 -0.3861  0.3324  0.0922
55059ION     NA97971   8.029  21.275   2.860 -0.0955  0.4283  0.2570
55060ION     NA97972   7.061  10.810   1.677  0.4781 -0.2624 -0.4520
55061ION     NA97973   2.408  27.380   6.383 -0.2708 -0.6833 -0.4152
55062ION     NA97974   7.950   3.528   7.517  0.0830  0.0171 -0.0571
55063ION     NA97975   3.616   3.096   3.185  0.2519  0.6058 -0.5925
55064ION     NA97976   1.777  19.368   2.347  0.1728  0.6011  0.0427
55065ION     NA97977   4.664   5.381   6.079  0.0102 -0.2705 -0.2304
55066ION     NA97978   3.683  34.308   1.396  0.2113 -0.0421  0.0243
55067ION     NA97979  14.895  24.176   6.338  0.1114 -0.0570 -0.4721
55068ION     NA97980  31.189   4.039   4.259  0.6110  0.1969  0.2097
55069ION     NA97981  17.817   3.033   8.810  0.4189  0.0034  0.3909
55070ION     NA97982  32.324  18.285   1.208 -0.1768  0.0187  0.2021
55071ION     NA97983  26.843   3.166   5.233 -0.0893  0.1660  0.0722
55072ION     NA97984  26.968  29.409   9.078  0.0531  0.2601  0.1274
55073ION     NA97985  30.798   2.149   0.632  0.3603  0.1404 -0.3661
55074ION     NA97986  21.681  32.875   9.056 -0.5242  0.0753 -0.0650
55075ION     NA97987  25.638   0.642   6.007  0.1536  0.0995 -0.2265
55076ION     NA97988  16.554   6.867   2.571 -0.6332 -0.1362  0.0591
55077ION     NA97989   9.371  22.794   3.590 -0.5160 -0.0270  0.2988
55078ION     NA97990  23.618  23.084   5.018 -0.1826 -0.4437  0.4553
55079ION     NA97991  20.236  33.509   0.175  0.1141  0.4900  0.1738
55080ION     NA97992  12.012   7.148   6.945 -0.2004 -0.0200  0.0907
55081ION     NA97993  29.235  23.890   7.395 -0.2382 -0.3492  0.1433
55082ION     NA97994  21.417   3.031   1.224 -0.3572 -0.0772 -0.3410
55083ION     NA97995  33.804   7.676   9.065 -0.5135  0.6412 -0.7748
55084ION     NA97996  12.873  13.124   8.012  0.2757 -0.0272  0.2097
55085ION     NA97997   2.645   1.113   5.399  0.2147  0.0739  0.7720
55086ION     NA97998  10.724   3.719   6.456 -0.1152 -0.0722 -0.3641
55087ION     NA97999  16.859  21.605   7.431 -0.1201  0.2078  0.2045
55088ION     NA98000  19.391  15.877   4.670  0.2342  0.1081 -0.1714
55089ION     NA98001  28.798  18.054   0.982 -0.0645  0.1684 -0.0023
55090ION     NA98002  23.016   8.140   3.422 -0.0694  0.1559  0.1088
55091ION     NA98003   0.847   4.572   1.297  0.0404 -0.3816  0.4350
55092ION     NA98004   6.130  12.350   6.059 -0.0479  0.0190  0.7298
55093ION     NA98005   0.585  31.835   4.561 -0.0812  0.4079  0.0162
55094ION     NA98006  14.125  11.085   6.855  0.6402  0.1317 -0.7423
55095ION     NA98007   0.551  21.372   8.875  0.2928 -0.1827 -0.2269
55096ION     NA98008  23.826   4.370   4.024 -0.0874  0.3903 -0.1106
55097ION     NA98009   6.997  26.602   7.352 -0.2017  0.1774  0.3295
55098ION     NA98010  15.492  15.605   5.567 -0.6895 -0.5102 -0.8476
55099ION     NA98011  23.274  19.157   4.047  0.1459  0.0956  0.0006
55100ION     NA98012  26.155  28.991   6.717 -0.2151  0.0402 -0.0879
55101ION     NA98013  27.095  33.386   3.576  0.8380  0.4320  0.6476
55102ION     NA98014  21.687  30.816   3.620 -0.0824 -0.0546 -0.2612
55103ION     NA98015   2.747  22.426  31.346  0.2146 -0.3696  0.4030
55104ION     NA98016   7.696  33.505   6.462  0.7607 -0.0729  0.0722
55105ION     NA98017  33.641   0.443   4.446 -0.2546 -0.7815 -0.4118
55106ION     NA98018  34.426   3.549   5.282  0.1584  0.0120  0.3852
55107ION     NA98019  28.370  23.071   3.999  0.0556 -0.1783 -0.2419
55108ION     NA98020  33.995   0.488   8.128  0.0235 -0.0391 -0.6626
55109ION     NA98021   2.477  24.285   8.136 -0.0978  0.2137  0.4141
55110ION     NA98022  29.506   6.203   2.436 -0.1871  0.1908 -0.2151
55111ION     NA98023   7.599  13.493   6.464 -0.5505 -0.5320  0.3153
55112ION     NA98024  29.623   2.255   2.393  0.1625  0.2313 -0.2311
55113ION     NA98025  13.164  14.823   3.936  0.2325 -0.0715 -0.6349
55114ION     NA98026  17.556  21.578   4.868  0.1422 -0.2312 -0.0130
55115ION     NA98027  14.225   9.557   1.272  0.1015 -0.5891  0.4492
55116ION     NA98028   3.468  13.610   4.177  0.5623  0.0485 -0.3648
55117ION     NA98029  23.634  30.097   2.432 -0.1542 -0.1209 -0.1158
55118ION     NA98030  24.792   1.243   8.222 -0.3272 -0.2934 -0.0254
55119ION     NA98031  10.607  28.827   5.042 -0.5608 -0.1757  0.5886
55120ION     NA98032  19.515   9.391   8.876 -0.1498 -0.0345  0.3390
55121ION     NA98033  17.754  20.382   8.971  0.0562 -0.1299 -0.0789
55122ION     NA98034  30.146  26.726   5.045  0.5643 -0.3753  0.0242
55123ION     NA98035  16.415  23.237   2.385 -0.2072  0.0143 -0.2391
55124ION     NA98036   7.547  31.662   0.269 -0.2905 -0.0427 -0.0366
55125ION     NA98037   9.971   6.687   5.094  0.4141 -0.4300 -0.0479
55126ION     NA98038  22.871   9.145   1.338 -0.5291  0.0895  0.3913
55127ION     NA98039  25.168   3.009   7.209  0.7997  0.5551  0.0367
55128ION     NA98040   4.739  24.586   7.268  0.7134  0.2738 -0.6169
55129ION     NA98041  18.288  15.618   4.791  0.1087  0.0341  0.0152
55130ION     NA98042   2.326  29.560  31.138  0.2771  0.0665  0.0446
55131ION     NA98043  14.104  15.958   6.203  0.0206 -0.3559  0.2044
55132ION     NA98044  32.507  20.236   8.030 -0.2653  0.5757  0.0026
55133ION     NA98045  10.474   4.424   3.051 -0.5359 -0.0374  0.5175
55134ION     NA98046  18.299  24.137   6.746  0.0089  0.1004  0.2839
55135ION     NA98047  11.042   0.994  31.476  0.5489  0.0360 -0.5545
55136ION     NA98048  24.454   2.527   0.974 -0.1439  0.0472 -0.5234
55137ION     NA98049   0.973  12.946   7.053  0.3279 -0.2938  0.1662
55138ION     NA98050  16.768  17.544  31.685  0.0493  0.1730  0.0957
55139ION     NA98051  30.843   6.517   7.056 -0.5607 -0.4211 -0.0985
55140ION     NA98052  32.885  18.732   1.265  0.0118  0.2650  0.0185
55141ION     NA98053  20.191  23.687   4.087 -0.3475 -0.1564  0.2360
55142ION     NA98054  20.038  32.005   8.982  0.6908  0.2590  0.3961
55143ION     NA98055  10.560  23.716   6.773 -0.3121 -0.1053 -0.1260
55144ION     NA98056   1.744  31.747   1.372 -0.0858 -0.1260  0.5649
55145ION     NA98057  25.429  20.643   8.023 -0.3362  0.0908 -0.1438
55146ION     NA98058   8.848  20.954   6.679  0.2604 -0.1901  0.0438
55147ION     NA98059  15.888  24.943   0.723 -0.6444  0.2553 -0.2803
55148ION     NA98060  18.248   2.613   7.756 -0.0104 -0.0065 -0.0190
55149ION     NA98061  28.760  25.668   8.357  0.2076 -0.6546  0.0443
55150ION     NA98062  19.319   6.186   0.668 -0.4806  0.2609  0.2272
55151ION     NA98063  26.181  22.199   8.226  0.1220 -0.4070 -0.2000
55152ION     NA98064  32.087  27.530   0.512 -0.0224  0.0275 -0.1523
55153ION     NA98065  10.275  32.583   4.161  0.3174  0.1668  0.0930
55154ION     NA98066  24.757   8.086   9.290  0.3671  0.1003 -0.2603
55155ION     NA98067   1.045   0.693   5.686 -0.3898  0.2940 -0.2246
55156ION     NA98068  16.450  19.114   7.593 -0.0089  0.0436 -0.2103
55157ION     NA98069  13.607  31.062   1.942 -0.4129  0.3252 -0.1153
55158ION     NA98070  10.448   0.767   3.661  0.2997  0.5350  0.1630
55159ION     NA98071  31.694  16.803   5.135  0.0321 -0.6301 -0.1483
55160ION     NA98072  18.122  21.344   0.863 -0.3663 -0.2679  0.4052
55161ION     NA98073  32.836  18.232   5.656 -0.3001 -0.0345 -0.3504
55162ION     NA98074  30.350  26.998   1.492 -0.2546  0.2381 -0.2892
55163ION     NA98075  30.162  21.877   7.730  0.0357  0.3215  0.0451
55164ION     NA98076  11.406   2.026   2.828  0.1669 -0.4758 -0.0794
55165ION     NA98077  22.266  25.343   0.125  0.0680  0.5177 -0.0666
55166ION     NA98078  16.617   0.892   3.945 -0.0303  0.1174  0.1477
55167ION     NA98079   1.792  13.605   5.728  0.4089 -0.0180 -0.0381
55168ION     NA98080  23.070  30.779   2.429  0.1925 -0.2948  0.3701
55169ION     NA98081  22.093  17.361   2.918  0.4267 -0.0153 -0.1389
55170ION     NA98082  14.981  25.327   2.939  0.5131 -0.1652  0.3384
55171ION     NA98083  16.768  29.297   2.468 -0.4944 -0.4054  0.0669
55172ION     NA98084   2.840   0.118   2.422 -0.4612  0.3151 -0.1168
55173ION     NA98085  22.177   6.405   1.195 -0.5227  0.3766 -0.0077
55174ION     NA98086  17.635  13.350   1.995  0.3064 -0.2630 -0.2351
55175ION     NA98087  24.411  21.430   0.788 -0.0306  0.2018  0.0456
55176ION     NA98088   9.851  21.008   8.059 -0.4196 -0.3707 -0.2792
55177ION     NA98089  32.248  15.856   5.406  0.2979 -0.0159  0.1142
55178ION     NA98090  19.165  14.020  31.255  0.0502 -0.4441  0.2823
55179ION     NA98091   9.290  27.762   0.857  0.0514 -0.1344  0.1517
55180ION     NA98092  19.595  29.833   6.905 -0.1943 -0.3043  0.2925
55181ION     NA98093  34.034  27.021   1.798 -0.0155  0.6470 -0.4497
55182ION     NA98094  22.942  22.751   2.306  0.4748 -0.3769  0.7833
55183ION     NA98095  21.379   2.001   8.605  0.3704  0.4433  0.4366
55184ION     NA98096  19.653  24.390   9.149 -0.1406  0.2285  0.3536
55185ION     NA98097   2.742  10.554   8.489 -0.2330  0.0146 -0.1038
55186ION     NA98098   2.228  10.015   9.293 -0.1105 -0.1833 -0.1969
55187ION     NA98099  10.001  17.133   6.797 -0.0782 -0.3110  0.3540
55188ION     NA98100  16.692   8.410   8.136 -0.2769 -0.1064 -0.1490
55189ION     NA98101   6.038   9.669   4.293  0.2368  0.2978  0.2333
55190ION     NA98102  30.758   1.715   4.529 -0.4824  0.0139  0.1069
55191ION     NA98103  34.504  17.121   0.052  0.1343  0.0730 -0.1057
55192ION     NA98104  20.273  25.976   9.873 -0.0833 -0.0553 -0.0271
55193ION     NA98105  24.271  18.369   5.211 -0.1137  0.2020  0.1820
55194ION     NA98106  23.564  32.778   3.122  0.6645 -0.1393 -0.3613
55195ION     NA98107  17.756  24.568   4.091 -0.1140  0.4627  0.4130
55196ION     NA98108  26.698  25.319   7.533  0.0884  0.1364  0.5557
55197ION     NA98109  27.844  23.380   7.786 -0.4645  0.4791  0.5843
55198ION     NA98110  20.387  16.759   4.506  0.5285  0.5320  0.0809
55199ION     NA98111  24.531  29.445   3.593  0.2799  0.2358  0.4041
55200ION     NA98112   6.447  16.615   6.048 -0.5095  0.2353 -0.1465
55201ION     NA98113  20.278  25.390   1.800  0.0600 -0.4972 -0.3626
55202ION     NA98114  11.541   4.765   7.647 -0.3663  0.0131 -0.2509
55203ION     NA98115   7.848   7.195   5.093  0.3006  0.7398  0.1777
55204ION     NA98116  16.630   7.749   5.729 -0.2075 -0.9256  0.0238
55205ION     NA98117   3.207   7.569   3.089 -0.1782  0.1729  0.1293
55206ION     NA98118   0.055  29.008   5.723  0.0482  0.6512 -0.2613
55207ION     NA98119   2.247   7.836   3.579  0.6185 -0.3628  0.5930
55208ION     NA98120   9.659   2.178   6.223  0.2466 -0.4256  0.2904
55209ION     NA98121   4.257  32.278   8.455 -0.0486  0.1375  0.4293
55210ION     NA98122   7.558  23.261   4.236 -0.2529 -0.5091  0.3718
55211ION     NA98123  28.414  19.622   4.917  0.3157 -0.4095 -0.0890
55212ION     NA98124  23.392   4.735  31.796 -0.0326  0.4571 -0.6935
55213ION     NA98125  14.973  14.726  30.792  0.0108 -0.1359  0.5243
55214ION     NA98126  25.918  26.632   8.750 -0.0517  0.1745  0.1653
55215ION     NA98127  30.847   9.711   1.683 -0.1439 -0.1431 -0.3118
55216ION     NA98128   7.532  11.950   7.163  0.0533  0.5017 -0.2718
55217ION     NA98129  28.983  14.344   1.390 -0.1204  0.0269 -0.4590
55218ION     NA98130  18.210  25.900   2.131  0.0945  0.4334  0.0564
55219ION     NA98131   3.116  24.166   1.733 -0.1128 -0.1883  0.0344
55220ION     NA98132  22.618   7.768   6.377 -0.0518 -0.0108 -0.1621
55221ION     NA98133  15.922   4.601   6.680  0.3943  0.1162  0.1978
55222ION     NA98134  10.849  21.012   8.986 -0.4092 -0.0997  0.2611
55223ION     NA98135  22.636   2.439   6.710 -0.8404 -0.4448 -0.3864
55224ION     NA98136  27.374  21.246   4.411 -0.5315  0.1796 -0.2138
55225ION     NA98137   4.852   5.621   2.136 -0.1538 -1.0223  0.1327
55226ION     NA98138  10.771  11.155   7.395  0.1844  0.2890  0.4421
55227ION     NA98139   1.967   8.546   8.395 -0.1482  0.6550  0.2916
55228ION     NA98140   5.754  20.674   3.788 -0.2111 -0.3784  0.4736
55229ION     NA98141  19.525  31.950   9.510 -0.1214  0.7785  0.4415
55230ION     NA98142   3.418   7.110   1.941 -0.5741 -0.2494 -0.9430
55231ION     NA98143  15.200  24.107   1.370  0.2654  0.1067 -0.0775
55232ION     NA98144  30.848   9.560   8.784 -0.6890  0.4753  0.3039
55233ION     NA98145  20.342  23.394   7.086 -0.4091 -0.3878 -0.3243
55234ION     NA98146  16.227  11.754   9.145 -0.2324  0.0634  0.1123
55235ION     NA98147  30.647   6.403   3.187  0.6317  0.4259  0.0157
55236ION     NA98148  22.888  28.328   4.025  0.0959 -0.1634  0.3182
55237ION     NA98149  22.538  16.265   4.869  0.3152 -0.1462  0.1590
55238ION     NA98150  25.680  15.715   8.581  0.2132  0.2460  0.5136
55239ION     NA98151  16.948  21.740   5.985 -0.4958 -0.3726 -0.4350
55240ION     NA98152   2.200  34.585   2.509  0.0759 -0.6031 -0.3402
55241ION     NA98153  24.371   0.453   5.441  0.1254 -0.4209 -0.4897
55242ION     NA98154  12.208  15.522   0.331 -0.0765 -0.1904 -0.0931
55243ION     NA98155  30.761   4.923   2.267  0.8522 -0.4107  0.8741
55244ION     NA98156  20.841  34.135   1.767 -0.1849  0.3491 -0.1844
55245ION     NA98157  31.322   4.105   1.194 -0.4426 -0.1474 -0.0751
55246ION     NA98158   3.352  25.454   4.498  0.0148 -0.4687  0.0517
55247ION     NA98159  33.319  32.490   3.331  0.0026 -0.4679 -0.1847
55248ION     NA98160  29.379  24.050   8.860 -0.8978  0.3598  0.0247
55249ION     NA98161  27.637   6.702   0.557 -0.0728  0.6284 -0.5267
55250ION     NA98162  25.199  20.082   6.856 -0.2793 -0.7024  0.2252
55251ION     NA98163  21.576  19.287   6.648  0.4326 -0.0978  0.0743
55252ION     NA98164  10.105  31.523   4.717 -0.0979 -0.7888  0.1763
55253ION     NA98165   5.348   8.559   9.490  0.2167 -0.2874  0.2379
55254ION     NA98166  20.567  25.794   3.909 -0.1044  0.3036 -0.4439
55255ION     NA98167  32.850  12.273   8.930 -0.6203  0.6969 -0.0542
55256ION     NA98168   4.860  25.358   2.554 -0.3241 -0.3710 -0.1145
55257ION     NA98169   8.006  26.207   2.712  0.0476  0.3929 -0.5748
55258ION     NA98170  10.554   0.683   2.915 -0.3327  0.8208 -0.0133
55259ION     NA98171   7.928  31.428   7.922 -0.4193  0.1383  0.3865
55260ION     NA98172  12.774  16.604   3.367  0.5758  0.2595 -0.0550
55261ION     NA98173  21.855   9.379   6.073 -0.1189  0.2695 -0.3325
55262ION     NA98174  13.693  19.131   4.426 -0.1583 -0.0567  0.4092
55263ION     NA98175   9.218  13.042   2.054  0.1815  0.1234 -0.1687
55264ION     NA98176  24.967   9.739   1.815  0.0236  0.1276  0.1353
55265ION     NA98177  22.957  28.818   5.766  0.0088 -0.1034  0.7078
55266ION     NA98178  12.302  30.568   4.611 -0.1548  0.0950 -0.0247
55267ION     NA98179  28.946  24.630   3.471 -0.1979  0.1442  0.4440
55268ION     NA98180  24.196  22.869   0.193  0.4242 -0.3811 -0.2108
55269ION     NA98181   9.857   5.923   3.058  0.2803 -0.1284 -0.3096
55270ION     NA98182   7.352  27.456   2.514  0.2986  0.3391  0.0316
55271ION     NA98183  17.480   9.643   5.893 -0.3451 -0.2460 -0.6697
55272ION     NA98184   4.423  23.458   9.021 -0.0391  0.2794 -0.3006
55273ION     NA98185  33.563  14.403   7.936 -0.0809  0.0643  0.3976
55274ION     NA98186  30.988  12.131   1.883  0.1948 -0.0675  0.4377
55275ION     NA98187  31.698  25.458   2.305 -0.0851  0.2526  0.2534
55276ION     NA98188  11.095  25.092   0.725 -0.3115  0.0124  0.3170
55277ION     NA98189  11.222  23.837   3.860 -0.0883  0.3098  0.0918
55278ION     NA98190  15.420  33.966   6.265  0.3648 -0.4372 -0.6342
55279ION     NA98191  34.064  19.991   8.326  0.0586 -0.2694 -0.2621
55280ION     NA98192  27.380   3.232   7.277  0.0239  0.3343 -0.0216
55281ION     NA98193  29.867  31.748   3.130 -0.4564  0.0269  0.0682
55282ION     NA98194  11.979  29.806   8.182  0.0672  0.2178 -0.4547
55283ION     NA98195   1.882  27.212   2.345 -0.4951 -0.2170 -0.1344
55284ION     NA98196   3.042  29.085   2.069  0.2114 -0.1851 -0.2143
55285ION     NA98197   9.258  32.888   1.687  0.0385  0.0449  0.3602
55286ION     NA98198  17.502   4.550   4.535  0.0096  0.0442  0.6535
55287ION     NA98199   1.315   9.690   8.714 -0.1694  0.0966  0.0000
55288ION     NA98200   0.410   6.429   2.889 -0.3972  0.0471 -0.5007
55289ION     NA98201  31.431  20.398   2.393  0.3021  0.1319  0.0783
55290ION     NA98202  28.572   6.496   4.637  0.6850  0.2222  0.2473
55291ION     NA98203   8.550   6.412   7.301  0.0133  0.3125 -0.2887
55292ION     NA98204  12.449  21.844   8.164  0.1294  0.2453 -0.3732
55293ION     NA98205  26.242  33.289   8.189 -0.7666  0.4974  0.3291
55294ION     NA98206  10.546   0.984   2.191 -0.0055 -0.0013  0.2633
55295ION     NA98207  32.891  28.429   7.205  0.2621  0.0257 -0.1942
55296ION     NA98208  16.877  30.583   1.402 -0.2974 -0.3274 -0.1864
55297ION     NA98209  21.907   6.149   3.058  0.5462  0.1650 -0.3138
55298ION     NA98210  27.733  24.719   1.678  0.1038  0.5656 -0.0362
55299ION     NA98211  15.442  16.974   8.608 -0.1125  0.2702  0.5450
55300ION     NA98212  10.442  13.394   0.289  0.1576 -0.7373 -0.0424
55301ION     NA98213   7.393  18.990   5.954  0.2038  0.1751 -0.2250
55302ION     NA98214  11.240  33.975   3.876  0.1314 -0.0213 -0.0467
55303ION     NA98215  33.623  25.044   7.023 -0.0111  0.0148  0.3553
55304ION     NA98216  15.891  29.961   2.028 -0.0492 -0.6604 -0.0002
55305ION     NA98217   8.108  16.149   5.180  0.0200  0.3643  0.0748
55306ION     NA98218  11.668   1.326   1.278  0.2283 -0.3462 -0.0076
55307ION     NA98219   7.339  31.763   3.106  0.1437  0.6258 -0.7197
55308ION     NA98220  21.188  22.038   4.695  0.0441 -0.4180 -0.2816
55309ION     NA98221  33.825   4.496   2.357 -0.5646 -0.1835 -0.4181
55310ION     NA98222  26.974  32.515   0.509  0.1737  0.1998 -0.2338
55311ION     NA98223   5.708  23.416   5.217  0.1114 -0.2086 -0.2441
55312ION     NA98224   6.171  20.467   9.343  0.1118 -0.4733  0.2262
55313ION     NA98225  29.611  26.186   6.764  0.4098  0.0770 -0.0636
55314ION     NA98226  25.324  10.363   3.823  0.0623 -0.4159 -0.1963
55315ION     NA98227  26.952  30.515   4.578 -0.0423  0.1602  0.1922
55316ION     NA98228  24.155  33.813   6.942  0.2285 -0.5028  0.5517
55317ION     NA98229  22.159  11.975   2.108 -0.1532 -0.0807  0.4073
55318ION     NA98230  14.086  25.385   3.062 -0.0321  0.0680  0.0080
55319ION     NA98231  34.436   3.261   2.778 -0.2827 -0.0576  0.3902
55320ION     NA98232  30.508  21.908   1.142 -0.1949  0.1212  0.5698
55321ION     NA98233  12.368  12.620   8.679 -0.1996 -0.5245  0.1769
55322ION     NA98234   3.764  15.341   8.146  0.2040  0.0776  0.2765
55323ION     NA98235   7.148   7.040   6.777  0.8529 -0.2842  0.0540
55324ION     NA98236  19.854   4.060   6.268  0.4531  0.5185  0.1850
55325ION     NA98237  10.476  12.174   3.866  0.0792 -0.1505  0.0533
55326ION     NA98238   7.713   0.123   7.471 -0.6332  0.7680  0.1196
55327ION     NA98239  25.639  10.980   1.725  0.2712 -0.1547  0.0663
55328ION     NA98240  10.205  15.845   0.768  0.3310 -0.1031 -0.1184
55329ION     NA98241   4.433   2.703   4.048 -0.1538  0.1552 -0.1693
55330ION     NA98242  15.723   0.734   1.506 -0.0054  0.2463  0.5724
55331ION     NA98243   2.593  23.051   3.940 -0.5906  0.4640 -0.0653
55332ION     NA98244  34.070  26.671   3.390  0.1327  0.1982  0.2664
55333ION     NA98245  31.561  26.419   5.051  0.0528  0.2350  0.2010
55334ION     NA98246   3.866   6.299   3.334  0.6036 -0.0527  0.1270
55335ION     NA98247  30.062  24.553   4.800  0.1178 -0.2247  0.1364
55336ION     NA98248  31.342   3.414   2.333  0.1999  0.2707  0.2314
55337ION     NA98249  21.421  13.580   8.055  0.6461 -0.1809 -0.4325
55338ION     NA98250  26.847  14.085   9.543  0.0213  0.0807  0.1021
55339ION     NA98251   3.807  25.423   4.073  0.4196  0.0114 -0.5958
55340ION     NA98252  26.615   5.280   6.787  0.8803 -0.3005  0.0078
55341ION     NA98253  33.891   2.708   6.647  0.1080  0.0496 -0.1782
55342ION     NA98254  18.289  26.754  31.451  0.0182 -0.1524  0.4345
55343ION     NA98255  30.406  32.380  30.913  0.0315 -0.3211 -0.0805
55344ION     NA98256   9.811  28.214   1.552  0.3898  0.4905 -0.3347
55345ION     NA98257  14.924  11.886   5.505 -0.7344 -0.0891 -0.3633
55346ION     NA98258   1.154  32.073  30.723 -0.4089  0.1309  0.0742
55347ION     NA98259  13.261  25.082  31.714  0.1858 -0.1301  0.2737
55348ION     NA98260  23.297  26.333  31.090  0.0290  0.4664  0.4634
55349ION     NA98261  26.944  21.780   8.509 -0.2714 -0.1220  0.1970
55350ION     NA98262  19.607   4.974   6.407 -0.3533  0.1967 -0.3321
55351ION     NA98263  15.029   9.938   0.759  0.3210  0.1713  0.6552
55352ION     NA98264   2.745  15.104   6.078 -0.0423  0.3289  0.9448
55353ION     NA98265   5.881  20.930   8.439 -0.1819  0.2622  0.0933
55354ION     NA98266  15.427  20.383   6.286 -0.2538 -0.6509 -0.6627
55355ION     NA98267  34.285  10.951   4.131 -0.1445 -0.5188 -0.2408
55356ION     NA98268  20.896  32.021   6.971 -0.0742  0.0271 -0.0879
55357ION     NA98269  24.694  20.001   2.345 -0.1043  0.1117 -0.3433
55358ION     NA98270  30.449   1.385   8.888 -0.2198  0.2819 -0.0862
55359ION     NA98271  32.060  30.053   2.868  0.3552  0.2062 -0.0440
55360ION     NA98272  24.244   9.134   5.081  0.5564  0.1469 -0.1066
55361ION     NA98273  23.462  26.766   9.039 -0.0729 -0.3118 -0.2023
55362ION     NA98274  25.329  20.750   3.570  0.5297  0.0227 -0.2682
55363ION     NA98275   2.148   7.510   2.170 -0.1311  0.0428 -0.3566
55364ION     NA98276  29.851  25.596   0.483  0.4342 -0.4593 -0.4023
55365ION     NA98277  15.295  30.970   2.654  0.1914  0.4162  0.3356
55366ION     NA98278  24.390   9.374   0.326 -0.2136  0.1436 -0.4012
55367ION     NA98279  24.689  30.757   2.759 -0.1488  0.3109 -0.0678
55368ION     NA98280  26.874  10.710   7.604  0.0466  0.2031  0.1411
55369ION     NA98281  10.214   4.784   7.762 -0.0909 -0.5272 -0.5757
55370ION     NA98282   6.774  19.278   5.055 -0.1762  0.3105  0.2997
55371ION     NA98283  19.764  16.114   6.763  0.1797  0.5205  0.1834
55372ION     NA98284   5.793   5.394   7.490 -0.2390 -0.3803  0.2489
55373ION     NA98285   6.613  12.505   4.904 -0.5812  0.3349  0.2499
55374ION     NA98286  28.087   9.568   6.587  0.1213 -0.9936  0.5113
55375ION     NA98287  17.475  32.006   8.488 -0.5538  0.0742 -0.1413
55376ION     NA98288  10.755  15.673   7.460  0.0533 -0.1524 -0.4008
55377ION     NA98289  26.275   8.519   3.726  0.1492  0.2070  0.2778
55378ION     NA98290  25.958  14.125   2.236 -0.1529  0.0006 -0.5544
55379ION     NA98291  14.960  15.373   0.250  0.3864 -0.1100  0.1477
55380ION     NA98292   0.918  30.179   9.015 -0.2314  0.0521 -0.1264
55381ION     NA98293  26.475  27.836   6.727  0.1913  0.2432  0.9066
55382ION     NA98294  24.982  20.909   0.526  0.2842  0.3541  0.0165
55383ION     NA98295  29.321   9.054   3.976 -0.3961 -0.3290  0.2530
55384ION     NA98296  10.587  18.175   5.611 -0.2191 -0.1680  0.0067
55385ION     NA98297  34.127  19.989   3.519  0.1135  0.6667 -0.3310
55386ION     NA98298  26.568  20.491   3.822  0.5085 -0.0041  0.4889
55387ION     NA98299   1.349  16.196  31.349  0.1698 -0.0104  0.5795
55388ION     NA98300  25.207  21.570   6.819  0.2009 -0.0059 -0.0252
55389ION     NA98301  24.860  32.554   5.935 -0.2983  0.5912  0.1228
55390ION     NA98302  29.104  24.111  31.423 -0.3205 -0.2553 -0.0729
55391ION     NA98303  22.472  10.905   3.383  0.4961 -0.6029 -0.5586
55392ION     NA98304  23.318   7.156   3.978 -0.2721  0.2112  0.2970
55393ION     NA98305  20.067  25.343   6.482 -0.5100 -0.2448 -0.1391
55394ION     NA98306   8.617   7.486   3.325 -0.1606 -0.8978 -0.0604
55395ION     NA98307  30.896  12.886   3.563 -0.2163 -0.6301  0.3273
55396ION     NA98308  26.081  16.964   0.162  0.5258 -0.0916 -0.0531
55397ION     NA98309  18.912  10.520   4.813  0.2822  0.1407  0.1476
55398ION     NA98310   8.162  21.905   1.939  0.3588  0.6005 -0.1362
55399ION     NA98311  33.592  26.685   8.204  0.3161  0.1407 -0.1429
55400ION     NA98312  10.461  18.679   9.380  0.0028 -0.2016 -0.1179
55401ION     NA98313  34.193  23.787   6.841 -0.0305  0.2759 -0.2489
55402ION     NA98314  18.585  33.271   1.086 -0.3100  0.7336 -0.1105
55403ION     NA98315  32.219   2.964   0.184 -0.2983 -0.2123 -0.2804
55404ION     NA98316  32.896  17.638   9.633  0.5726 -0.4141 -0.6833
55405ION     NA98317  15.204  24.784  31.980  0.1208  0.0314 -0.0588
55406ION     NA98318  15.957  23.880   1.120 -0.0342  0.4810 -0.1876
55407ION     NA98319  11.537  26.553   7.293  0.6375 -0.4797 -0.3105
55408ION     NA98320  34.261   4.254   8.454  0.3405 -0.3088 -0.3071
55409ION     NA98321  18.346  18.141   4.719  0.0579  0.2449 -0.2984
55410ION     NA98322  31.598   6.695   6.319 -0.0828  0.1159  0.0953
55411ION     NA98323  26.763   3.716   8.881  0.2210  0.1488  0.4348
55412ION     NA98324  16.521  14.043   6.707 -0.2440 -0.0950 -0.1925
55413ION     NA98325  12.773  21.107   6.876 -0.1319  0.3010 -0.3356
55414ION     NA98326  12.455  26.316  31.810  0.0155  0.4861 -0.3456
55415ION     NA98327  19.665  21.605   5.832  0.2422 -0.3750  0.1178
55416ION     NA98328   9.171   5.268   4.270 -0.4344  0.0216  0.2581
55417ION     NA98329  22.009  16.324   9.190  0.0311  0.5619 -0.1025
55418ION     NA98330   5.215  23.636   4.050  0.1838  0.0247 -0.0031
55419ION     NA98331  29.242  15.925   6.180  0.2301  0.1754 -0.0929
55420ION     NA98332  15.553   9.908   9.607  0.4202  0.1068  0.1194
55421ION     NA98333  32.640  27.084   4.083  0.2965  0.5891 -0.0465
55422ION     NA98334  31.685   8.040   6.939  0.0898 -0.4149  0.5249
55423ION     NA98335  23.746  11.093   5.135 -0.4182 -0.0461  0.0737
55424ION     NA98336  25.027  31.181   8.298  0.4748 -0.2177  0.3222
55425ION     NA98337  15.696  21.849   5.844 -0.1977 -0.1490 -0.1887
55426ION     NA98338  30.534  19.020   5.324 -0.5757  0.0081  0.5272
55427ION     NA98339  11.418  20.415   1.491 -0.6134 -0.3576 -0.2003
55428ION     NA98340  21.951  28.603   5.922  0.2001 -0.4571 -0.5658
55429ION     NA98341  22.629   0.762   8.741 -0.3246  0.6257  0.4753
55430ION     NA98342  28.131  33.071   0.729 -0.2253  0.0893  0.0153
55431ION     NA98343   9.819  15.476   6.953  0.4015 -0.0428 -0.3727
55432ION     NA98344  32.903  10.954   3.306  0.4786 -0.6557 -0.3606
55433ION     NA98345  27.862   0.223   2.547 -0.5278  0.1670  0.5793
55434ION     NA98346  26.404  30.176   4.925  0.1304 -0.0118 -0.0391
55435ION     NA98347  31.636  34.132   4.019 -0.0106  0.1282  0.4425
55436ION     NA98348  31.452   6.366   9.842  0.0465 -0.2729 -0.2410
55437ION     NA98349  14.428  16.651   9.021  0.1770 -0.4435  0.3623
55438ION     NA98350   1.888   4.229   7.667  0.0042  0.2961  0.0817
55439ION     NA98351  18.862   2.197   0.692  0.0527  0.0767  0.5306
55440ION     NA98352  21.652  23.025   2.959  0.2201  0.0945 -0.0328
55441ION     NA98353   8.606  21.650   8.367  0.0588  0.3727 -0.0125
55442ION     NA98354  31.927  14.200   9.718 -0.0626 -0.2630 -0.2743
55443ION     NA98355  27.150  26.714   0.692  0.1327 -0.3056 -0.1718
55444ION     NA98356  21.238  26.738   4.817 -0.5686 -0.2281  0.0714
55445ION     NA98357  30.953  26.019   7.337  0.1099 -0.5391 -0.3333
55446ION     NA98358  25.253  33.039   9.206  0.2843  0.5745 -0.1849
55447ION     NA98359   6.726  21.627   3.150  0.4558 -0.2173 -0.3460
55448ION     NA98360  30.752  27.194   7.379  0.4247 -0.2066  0.2964
55449ION     NA98361  30.998  29.501   4.119 -0.0107 -0.7547  0.5922
55450ION     NA98362  26.392  25.366   6.679  0.2042  0.1844  0.0435
55451ION     NA98363  10.975   6.632   7.670  0.7418 -0.1826 -0.3476
55452ION     NA98364   5.927  32.516   2.588 -0.0779  0.0616  0.6612
55453ION     NA98365  18.241  20.250   2.471 -0.2552  0.0370  0.1454
55454ION     NA98366  23.030  16.880   1.524  0.1579  0.0987  0.0495
55455ION     NA98367  23.234  25.353   9.655 -0.1372  0.2522  0.3690
55456ION     NA98368  34.076  12.444   9.445 -0.2447  0.1977  0.6126
55457ION     NA98369  19.017   4.503   2.783 -0.0037 -0.5184  0.6704
55458ION     NA98370  21.826  17.459   6.491  0.0969  0.0614 -0.4200
55459ION     NA98371  33.413   6.243   8.503 -0.4028 -0.3506  0.0168
55460ION     NA98372  28.665   3.956   1.926  0.4261 -0.4598  0.4943
55461ION     NA98373  16.437  14.902   6.673 -0.5806  0.0157 -0.6036
55462ION     NA98374  21.574   2.484   6.334  0.3364  0.0480  0.2059
55463ION     NA98375   9.353  25.378   5.159 -0.3722  0.0567  0.1092
55464ION     NA98376  29.130  26.306   1.281 -0.3744 -0.4936 -0.1351
55465ION     NA98377  15.686  15.419  30.483 -0.0904  0.1025 -0.0507
55466ION     NA98378  26.346   6.219   0.090 -0.0020 -0.1276  0.0563
55467ION     NA98379   0.851  10.847   5.492 -0.0679  0.0440 -0.4200
55468ION     NA98380  20.960  25.416   9.076 -0.6453 -0.1744  0.3842
55469ION     NA98381  27.508  22.534   1.561  0.1705 -0.3294  0.1342
55470ION     NA98382  28.787   5.399   3.709 -0.3883  0.1165 -0.1558
55471ION     NA98383   6.556   7.034   4.846  0.0561 -0.5574  0.1676
55472ION     NA98384  25.113  14.700   8.429 -0.3160  0.0163 -0.2032
55473ION     NA98385  11.162   0.670   6.374 -0.4547  0.5250  0.1854
55474ION     NA98386  27.616  22.789   9.364 -0.1099  0.6993  0.4212
55475ION     NA98387   0.047  14.706   7.940 -0.2565 -0.3204  0.0847
55476ION     NA98388  17.898  31.714   5.224  0.1284 -0.0575 -0.3107
55477ION     NA98389   5.969   6.767   6.517  0.2114 -0.2406  0.3644
55478ION     NA98390  15.378  21.198   8.383 -0.4089  0.3099  0.2697
55479ION     NA98391  23.257   3.979   3.375  0.4824 -0.5838  0.3424
55480ION     NA98392  17.692  13.796   5.234  0.0004 -0.1901 -0.1344
55481ION     NA98393  13.367  18.265  30.979 -0.6673 -0.1144 -0.4442
55482ION     NA98394  18.749  18.566   6.687  0.2993 -0.0286  0.0704
55483ION     NA98395  23.402   6.822   2.795  0.1341  0.3180  0.1500
55484ION     NA98396  33.743  14.679   8.972  0.1142  0.0754 -0.0068
55485ION     NA98397  31.642  11.479   0.231  0.1602  0.1277 -0.1361
55486ION     NA98398  16.476  25.127   1.575  0.1294 -0.3365  0.0691
55487ION     NA98399  25.042   3.422   0.522  0.4424  0.4360  0.0960
55488ION     NA98400  17.134  32.363   7.919 -0.3964 -0.4087 -0.0445
55489ION     NA98401  25.083  17.400   0.149 -0.3219 -0.0893  0.1973
55490ION     NA98402  26.918   4.798   0.528 -0.0763 -0.4110  0.7836
55491ION     NA98403   9.889  33.609   7.052  0.2703  0.7317  0.1436
55492ION     NA98404   0.996  23.123   0.821 -0.3603 -0.1001 -0.0400
55493ION     NA98405   1.257  16.116   0.079 -0.0430  0.2824 -0.2728
55494ION     NA98406   8.349   6.554   4.876 -0.7871  0.2242  0.2400
55495ION     NA98407  31.751   6.626   4.397  0.2092  0.0994  0.5675
55496ION     NA98408  29.335  30.490   4.924 -0.0432 -0.3228 -0.3714
55497W        W98409   3.064   2.565   2.972 -0.2494  0.0190  0.0084
55498W        W98410   2.357   1.101   0.213 -0.3144  0.2884 -0.0888
55499W        W98411   3.099   0.734  31.819 -0.0836  0.1341  0.2872
55500W        W98412   2.965   1.491   0.706  0.1266  0.1582 -0.0818
55501W        W98413   0.376   0.033   0.971 -0.1862 -0.0045 -0.0918
55502W        W98414   2.174   3.579  31.903 -0.1108  0.3263 -0.0311
55503W        W98415  34.167   0.024   3.435 -0.2052 -0.2052 -0.0654
55504W        W98416   3.844   2.140   2.104  0.2964 -0.0698  0.4424
55505W        W98417   4.834   3.404   2.323  0.2570 -0.1531  0.3967
55506W        W98418   1.599   1.418   0.042 -0.0451 -0.1093  0.3112
55507W        W98419   3.081   1.323   3.771  0.0272 -0.3154  0.1925
55508W        W98420   2.678   2.505   3.793 -0.1009  0.4024  0.0792
55509W        W98421   1.599  34.079   1.394  0.0945  0.0181  0.1252
55510W        W98422   0.431   0.974   1.952  0.0951  0.1362 -0.0373
55511W        W98423   2.276   2.162   2.608  0.1860 -0.0491 -0.0373
55512W        W98424   0.869   2.575   1.930  0.3302  0.0959  0.5393
55513W        W98425   2.013   1.785   2.222 -0.1309 -0.3110 -0.3977
55514W        W98426   1.391   0.949   0.013  0.1803  0.1105  0.2253
55515W        W98427   2.210   3.208   1.538 -0.0418 -0.2216 -0.1852
55516W        W98428   1.752   1.931   2.621 -0.1151  0.2950 -0.0603
55517W        W98429   3.727  33.925   3.321  0.2061  0.1634 -0.1465
55518W        W98430   2.734   3.375   0.853  0.2852 -0.3903  0.4801
55519W        W98431  33.722   2.792  31.267 -0.3715  0.0205 -0.0500
55520W        W98432  34.495   1.510   2.359  0.1244  0.0092  0.3406
55521W        W98433   0.383   0.583   2.556  0.1385  0.0529 -0.2492
55522W        W98434   3.372   2.526   2.559  0.1631  0.0032  0.0335
55523W        W98435   3.396   1.812   2.071  0.3227  0.0798  0.0186
55524W        W98436   2.068   2.926   2.175 -0.0829  0.0044 -0.0735
55525W        W98437   2.721   2.690   1.332  0.2097  0.0866  0.1395
55526W        W98438   4.053   1.636   3.491 -0.2158  0.3094  0.2413
55527W        W98439   1.143   3.232   2.463  0.1639  0.0470 -0.2255
55528W        W98440   0.111   4.717   2.011  0.1495  0.1791  0.1699
55529W        W98441   2.221   2.652   0.320 -0.0171  0.1058  0.0310
55530W        W98442   3.677   2.423   1.492  0.2231  0.0088 -0.1066
55531W        W98443   2.947   2.910   2.640  0.2357  0.4444 -0.1686
55532W        W98444   2.614   1.991   2.935  0.3465 -0.1207  0.1092
55533W        W98445   1.446   2.741   0.075 -0.0078  0.0646  0.0142
55534W        W98446   4.101   2.009   3.163  0.1115  0.0385 -0.2683
55535W        W98447   1.550   2.559   3.271 -0.0577 -0.1446  0.1297
55536W        W98448   3.085   1.171   2.915 -0.1734 -0.0021 -0.1597
55537W        W98449   0.914   2.029   2.075 -0.1958 -0.1950 -0.0582
55538W        W98450   1.593   2.292  31.820 -0.2341  0.1017 -0.0002
55539W        W98451   3.213   1.423   2.481 -0.1968 -0.0213 -0.0630
55540W        W98452   1.725   2.101   3.478 -0.0225 -0.0744  0.3200
55541W        W98453   1.294   2.324   1.982  0.1710 -0.0240 -0.4560
55542W        W98454   3.970   1.177   3.604 -0.2902  0.2113 -0.1148
55543W        W98455   2.708   4.034   1.067  0.1366 -0.0928 -0.1505
55544W        W98456   3.722   1.736   1.673  0.0997 -0.1324  0.0398
55545W        W98457   2.069   1.758   0.862  0.4083 -0.0523 -0.1293
55546W        W98458   3.534   0.978   1.107  0.2111  0.0880  0.0559
55547W        W98459   1.719   1.202   2.646  0.0892  0.0350 -0.2107
55548W        W98460   2.035   3.642   1.287 -0.2991  0.1386 -0.2063
55549W        W98461  34.680   0.551   1.664 -0.0702  0.1195  0.0042
55550W        W98462   5.678   1.706   3.246 -0.0824 -0.0193  0.0484
55551W        W98463   0.754   0.497   0.593  0.2287 -0.0281  0.2448
55552W        W98464   5.000   1.748   2.597 -0.2438 -0.0275  0.1408
55553W        W98465   1.068   2.059   2.600  0.0550 -0.0946  0.0240
55554W        W98466   1.025   1.225   0.303  0.1146  0.0701 -0.2634
55555W        W98467   4.108   2.952   0.206  0.0024  0.2229  0.1575
55556W        W98468   4.687   3.384   0.565 -0.2267  0.3363 -0.0017
55557W        W98469   4.543   2.542  31.205  0.0239 -0.0114 -0.3624
55558W        W98470   0.387   1.908   1.410  0.0249 -0.1590 -0.0682
55559W        W98471  33.985   1.359   2.112 -0.2921 -0.0647  0.0583
55560W        W98472   0.978   1.216   4.515 -0.1130  0.2520  0.3180
55561W        W98473   1.515  34.325  31.237  0.1356  0.0658  0.0109
55562W        W98474   6.204   2.711   3.009 -0.1712 -0.0993 -0.0197
55563W        W98475  34.503   2.764   2.800  0.2759 -0.2183 -0.1029
55564W        W98476   3.283   2.034   1.644  0.2144  0.1613  0.2749
55565W        W98477   2.262   1.940   1.608 -0.1318 -0.0452  0.0329
55566W        W98478   2.754   1.805   1.724 -0.2249  0.0344 -0.0731
55567W        W98479   2.147   1.261   0.879 -0.0054 -0.1793  0.2518
55568W        W98480   3.872  34.363   2.677  0.3737  0.1414  0.1427
55569W        W98481   3.120  34.486   3.722 -0.6009  0.3517 -0.0144
55570W        W98482   1.191   1.034  31.441  0.2043 -0.0456 -0.1626
55571W        W98483   3.233   1.424   1.650 -0.1004 -0.0136 -0.1533
55572W        W98484   3.127   2.483   1.542 -0.1642  0.0633  0.1118
55573W        W98485   2.591   2.210  31.299  0.1578 -0.0860 -0.0081
55574W        W98486   1.239   3.450   1.785 -0.0363 -0.2331  0.0830
55575W        W98487   2.667   0.799   2.253  0.3100 -0.0049 -0.2750
55576W        W98488   3.872   3.295   2.387  0.0978 -0.3407 -0.1663
55577W        W98489  34.032   3.988   0.802 -0.1066  0.0111  0.0939
55578W        W98490   0.431   1.877   1.972 -0.1442 -0.1169 -0.1523
55579W        W98491   2.138   3.051  31.072  0.2375 -0.0046  0.1771
55580W        W98492  34.536   1.248   2.901  0.1612 -0.1178  0.0901
55581W        W98493   2.171   1.551   1.327  0.5379 -0.1252  0.1286
55582W        W98494   4.356   0.021   1.124 -0.0352  0.0976  0.1750
55583W        W98495   1.561  34.332   2.233 -0.0804  0.0648  0.0535
55584W        W98496   3.408   0.405   2.664  0.1379  0.1569  0.1173
55585W        W98497   0.866   2.831   1.414  0.3853  0.3129  0.1075
55586W        W98498   3.286   3.205   0.804  0.2584 -0.0001 -0.0320
55587W        W98499   3.254   1.111   0.699  0.3079 -0.0504 -0.3894
55588W        W98500   3.370   2.863  31.610  0.1362 -0.2143  0.0919
55589W        W98501  34.403   1.824   3.062 -0.2115  0.3971 -0.1837
55590W        W98502   0.843   1.753   1.565  0.1040  0.2413 -0.2325
55591W        W98503   0.597   0.005   4.083 -0.0787 -0.0412  0.1600
55592W        W98504   1.211   1.068   1.156  0.0953 -0.1156 -0.2969
55593W        W98505   4.631   2.939   2.391  0.1420 -0.5189  0.0357
55594W        W98506   1.576  34.126   0.851 -0.0227 -0.3132  0.1729
55595W        W98507   3.746   1.331   2.049 -0.0448 -0.3076  0.2328
55596W        W98508   2.089   1.429  31.955  0.0780 -0.2430  0.0437
55597W        W98509   1.197   2.934   1.939  0.1257  0.0630  0.0768
55598W        W98510   3.287  33.373   3.909  0.3633  0.0391 -0.1036
55599W        W98511   3.761   3.157   0.656  0.0488  0.3287  0.1166
55600W        W98512   4.103   3.704   3.044 -0.0661  0.2582 -0.0633
55601W        W98513   3.641   2.759   2.263 -0.1814  0.2286 -0.0780
55602W        W98514   1.076   0.952   3.389  0.3520  0.0150 -0.1125
55603W        W98515   2.054  34.037   1.185  0.0921 -0.0449 -0.1391
55604W        W98516  34.460   3.809   0.965 -0.3931  0.0554  0.1050
55605W        W98517   2.366   3.760   0.833  0.3217 -0.0543  0.2349
55606W        W98518   2.654   0.544   0.983  0.0235 -0.0757  0.1795
55607W        W98519   4.912   4.551   1.588 -0.0086  0.0178 -0.1799
55608W        W98520   1.816   1.183   1.252  0.2566 -0.0778 -0.0622
55609W        W98521   1.996   2.077   3.037 -0.0651 -0.0410  0.0818
55610W        W98522   3.211  33.744   4.234  0.0715  0.0214  0.0877
55611W        W98523   4.151   0.686   3.208 -0.0659  0.1680 -0.0166
55612W        W98524   4.105   1.447   2.939  0.3038 -0.2671 -0.0777
55613W        W98525   1.119  33.943   0.090 -0.0533 -0.0185  0.1279
55614W        W98526   2.514   3.061   1.150  0.2625 -0.2139 -0.1374
55615W        W98527  34.258   4.102   1.366  0.0190  0.0936 -0.1229
55616W        W98528   0.695   2.190  31.794  0.2077 -0.0359 -0.0140
55617W        W98529   4.117   1.726   2.128  0.1868  0.1968  0.0653
55618W        W98530   3.492   0.668   2.060  0.0943  0.2294 -0.1197
55619W        W98531   0.044   1.317   3.924 -0.1469 -0.6073  0.2042
55620W        W98532   3.404   0.731   3.074  0.0423  0.2548 -0.0699
55621W        W98533   1.091   1.690   0.073 -0.0043  0.2947  0.2528
55622W        W98534   0.607   2.236   2.477  0.1104 -0.0167 -0.0055
55623W        W98535   3.641  34.528   1.759  0.0871 -0.1039  0.2999
55624W        W98536   3.450   0.621   0.676  0.0202  0.0150  0.2975
55625W        W98537   2.884   1.778   3.544  0.0677  0.0244 -0.2576
55626W        W98538   3.072   1.835   1.129 -0.3842  0.2109  0.2444
55627W        W98539   3.763   1.390   0.053 -0.1555  0.0262 -0.1033
55628W        W98540   1.864   0.228   1.724 -0.1835  0.0765 -0.0676
55629W        W98541   0.932   1.869   3.785 -0.1357  0.0882  0.0763
55630W        W98542   3.228   2.328   1.048  0.2847 -0.0112  0.4343
55631W        W98543   3.427   2.329   2.033  0.3739 -0.1065  0.0995
55632W        W98544   2.727   1.491  31.361  0.1208 -0.1539 -0.0483
55633W        W98545   4.734   3.423   1.455 -0.0538 -0.0851  0.0333
55634W        W98546  34.669   2.162   1.437 -0.6010 -0.1479 -0.0679
55635W        W98547   3.259   2.189   3.553  0.0982  0.0632 -0.0740
55636W        W98548   3.752   2.812   1.034  0.0398  0.0338  0.0916
55637W        W98549   1.631   0.651   2.002  0.3501 -0.2255 -0.1932
55638W        W98550   2.357   1.792  31.500 -0.1757  0.0289 -0.0547
55639W        W98551   1.898   0.745   1.499  0.2264  0.2072 -0.0370
55640W        W98552  34.292   3.157   1.366  0.2511 -0.0060  0.0376
55641W        W98553   3.638   0.026   2.878  0.2472  0.0563  0.0880
55642W        W98554   2.596   1.445   2.881  0.0174 -0.1313 -0.2279
55643W        W98555   2.100   1.285   2.289  0.0058  0.2124  0.1280
55644W        W98556   6.021   2.365   4.462 -0.0391 -0.1752 -0.0814
55645W        W98557   2.724   1.219   2.477 -0.2151 -0.0238  0.1624
55646W        W98558   2.420   0.449   2.554 -0.2443 -0.1616 -0.0608
55647W        W98559   1.597   2.241  31.278 -0.1805  0.1051 -0.0360
55648W        W98560   3.596  34.560   3.465 -0.0672 -0.1236 -0.2970
55649W        W98561   2.762   1.257   3.313 -0.0634  0.2220 -0.1070
55650W        W98562   0.591   4.239   1.380 -0.0639  0.2029  0.1739
55651W        W98563   3.878   2.491   2.571  0.1507 -0.0267  0.2262
55652W        W98564   2.369   2.080   1.130  0.0900  0.2882 -0.0126
55653W        W98565   2.466  34.561   3.288 -0.1594 -0.0437 -0.2574
55654W        W98566   1.486   1.371  31.169 -0.0275 -0.1968 -0.0388
55655W        W98567   1.232   4.745   1.543 -0.0278 -0.1048 -0.1080
55656W        W98568   1.785   1.806  31.754  0.0679 -0.1074  0.0910
55657W        W98569   1.012   0.656   1.366  0.0211 -0.0201  0.0485
55658W        W98570   1.936   2.424   2.335 -0.2474  0.0892  0.0694
55659W        W98571   2.384   2.091   0.576 -0.5948  0.0618  0.0059
55660W        W98572   2.925   2.861   3.355 -0.3590 -0.1957 -0.0296
55661W        W98573  34.587   3.570   1.411 -0.1320 -0.0911  0.1091
55662W        W98574   4.376  34.365   3.313 -0.1014 -0.1106  0.1243
55663W        W98575   0.839   2.216   1.510 -0.1312  0.0977 -0.1566
55664W        W98576   0.144   1.697   0.195 -0.1126 -0.2057 -0.2393
55665W        W98577   0.720  34.082  31.302  0.2829  0.1022 -0.0828
55666W        W98578   3.391   0.189   1.948 -0.3585  0.0686 -0.0340
55667W        W98579   3.296   2.289  31.725  0.1705  0.0502  0.1432
55668W        W98580   0.423   1.468   1.678  0.0247 -0.0587  0.0473
55669W        W98581   2.036   0.487   0.750 -0.0827  0.2735  0.1691
55670W        W98582  34.532   3.423   2.377  0.1260  0.0426 -0.2293
55671W        W98583   4.353   1.484   2.474 -0.0348  0.0283  0.0194
55672W        W98584   2.906   0.124   0.987 -0.2300 -0.0900  0.1972
55673W        W98585   2.440   2.635   2.267  0.0142  0.2620  0.3142
55674W        W98586   2.690   2.984   3.914  0.0247 -0.1482  0.0398
55675W        W98587   0.691   0.827  31.612  0.2927 -0.1388 -0.1432
55676W        W98588   3.567   1.242   3.150  0.1999  0.1133 -0.2246
55677W        W98589   1.550   0.223   0.805 -0.0722 -0.1464 -0.0168
55678W        W98590   1.599   3.387   0.857  0.0471 -0.0361  0.1601
55679W        W98591   4.017   3.245   1.116  0.0513 -0.1177  0.2024
55680W        W98592   0.587   1.009   0.358 -0.0869 -0.2293  0.1560
55681W        W98593   1.412   2.718  31.583 -0.0631 -0.1451 -0.2233
55682W        W98594   2.764   0.923   3.726  0.1948 -0.3804  0.0082
55683W        W98595   4.567   0.996   3.250 -0.1550  0.1054  0.0663
55684W        W98596   1.424   1.605   2.821 -0.0292  0.0578  0.0106
55685W        W98597   0.992   1.248   1.610 -0.0553  0.1036 -0.0537
55686W        W98598   2.708   0.822   2.842  0.1620  0.3236  0.2041
55687W        W98599   3.577   2.130   3.931 -0.0575 -0.0976  0.1880
55688W        W98600   3.349   0.205   3.854 -0.0532 -0.0134 -0.2563
55689W        W98601   0.557   2.254   4.636  0.0750  0.2653  0.1246
55690W        W98602   2.191   0.753   1.890  0.3440 -0.2294 -0.1242
55691W        W98603   4.352   3.743   0.807 -0.1157  0.1341  0.2217
55692W        W98604   3.223   1.000   3.418 -0.0092 -0.0637 -0.0918
55693W        W98605   1.659   1.957   0.644  0.1196 -0.3440 -0.2243
55694W        W98606   0.720   1.820   0.979  0.0370  0.2281 -0.2692
55695W        W98607   1.953   3.259   0.517  0.0921 -0.1476  0.0477
55696W        W98608   1.575   0.106   2.980 -0.1543  0.0002  0.0059
55697W        W98609   0.833   3.651   2.452 -0.1033  0.1445 -0.1733
55698W        W98610   1.939   2.637  31.358 -0.3498  0.1078  0.1902
55699W        W98611   0.514   3.394   2.801 -0.0194  0.0490 -0.1714
55700W        W98612   3.947   0.405  31.611  0.0295  0.2529 -0.0718
55701W        W98613   3.810   3.021   1.504  0.0215  0.2319 -0.1326
55702W        W98614   2.377   1.595   1.991 -0.0761  0.1488  0.2361
55703W        W98615   3.088  34.540   4.296  0.2695  0.0319 -0.0548
55704W        W98616   2.379   1.560   0.509 -0.2027  0.0246  0.0362
55705W        W98617   2.002   0.823   2.352 -0.0396  0.1855 -0.2899
55706W        W98618   1.189  34.561   2.758 -0.1131  0.1094 -0.0019
55707W        W98619   3.905   2.631   1.857 -0.3194 -0.0918 -0.0528
55708W        W98620  34.108   1.036   2.496 -0.0192  0.0107  0.1682
55709W        W98621   1.823   3.050   3.052  0.0919  0.1322  0.1975
55710W        W98622   1.447   2.467   2.439 -0.1175 -0.1389 -0.3932
55711W        W98623   2.131   1.511   2.731 -0.0511 -0.1412 -0.0504
55712W        W98624   3.148   0.646   1.110  0.0270  0.2335  0.1395
55713W        W98625   2.581   2.782   3.000  0.0179 -0.1603 -0.0493
55714W        W98626   4.427   2.801   1.941 -0.0409 -0.0768  0.3224
55715W        W98627   0.996   1.462   0.724  0.4446 -0.0895  0.0477
55716W        W98628   3.069   0.468   2.300 -0.2627  0.1891  0.3318
55717W        W98629   1.950   2.287   0.926 -0.0755 -0.4922  0.1216
55718W        W98630   3.545   3.354   1.219  0.0096 -0.1774  0.0200
55719W        W98631   1.784   3.030  31.625  0.2117  0.0321 -0.1574
55720W        W98632   1.798   2.335   1.536  0.0221  0.0546  0.1119
55721W        W98633   1.814   2.131   1.989 -0.2161  0.2392  0.0762
55722W        W98634   4.513   1.937   2.475 -0.0112 -0.0099 -0.2087
55723W        W98635   2.608   1.765   2.396 -0.0226 -0.3133  0.2423
55724W        W98636   3.298  34.468   2.176  0.1371 -0.2269 -0.0432
55725W        W98637   3.631   1.620   3.812  0.1805 -0.1794 -0.2618
55726W        W98638   0.952   1.467   2.794 -0.1207  0.1684 -0.0247
55727W        W98639   0.616   1.649   2.421 -0.1028  0.0526  0.0190
55728W        W98640   4.511   4.311   3.678  0.1501 -0.1250  0.1296
55729W        W98641   3.182   1.468   0.300  0.1465 -0.0168  0.1648
55730W        W98642   3.837   0.679   2.834 -0.1925  0.1990 -0.2995
55731W        W98643   4.585   1.427   0.657 -0.0650 -0.0085  0.2055
55732W        W98644   2.548   1.647   0.968  0.0590  0.2897 -0.1918
55733W        W98645  34.668   0.618   2.260 -0.0573 -0.2300  0.0576
55734W        W98646   4.226   2.362   3.567  0.0850 -0.0487 -0.1613
55735W        W98647   1.517   1.941   0.137  0.1469  0.1486  0.2521
55736W        W98648   1.834   1.127   3.107 -0.2408 -0.1856  0.1151
55737W        W98649   1.945   2.649  31.911  0.4042 -0.1299  0.0007
55738W        W98650   4.391   3.107   1.580 -0.3815 -0.1922 -0.0378
55739W        W98651   1.697   2.847   0.494 -0.3091  0.1500  0.2012
55740W        W98652   1.393   0.808   1.622  0.0424 -0.1140 -0.0697
55741W        W98653   0.689   3.575   1.952 -0.1072 -0.0904  0.2729
55742W        W98654   0.218  34.422   0.489 -0.2460 -0.1554 -0.1521
55743W        W98655   2.540   1.642   0.034  0.0237  0.0786 -0.2339
55744W        W98656   2.452   0.461   3.168  0.4109  0.3870 -0.0916
55745W        W98657   4.015   1.951   3.877 -0.1902  0.1153 -0.0084
55746W        W98658   2.087   0.054   0.500 -0.3346  0.1528  0.1339
55747W        W98659   3.492   1.668   2.903 -0.1344  0.0585  0.0383
55748W        W98660   2.189   3.323   0.976 -0.2410 -0.1984  0.4594
55749W        W98661   3.198  34.652   2.671  0.2711 -0.0297 -0.2018
55750W        W98662   1.694   3.822   1.732  0.0478  0.0136 -0.2546
55751W        W98663  34.485   2.910   2.300 -0.0045 -0.1786  0.1028
55752W        W98664   2.156   3.416   1.987  0.2252 -0.2747  0.1567
55753W        W98665   4.208   0.007   2.309  0.2568 -0.0011  0.1262
55754W        W98666   5.161   1.012   1.992  0.1696 -0.0280 -0.0560
55755W        W98667   2.630   2.442   1.785  0.0365 -0.2016 -0.0439
55756W        W98668   2.999   1.634   3.100  0.1910  0.3658 -0.0893
55757W        W98669   3.956   2.679   3.213  0.1245  0.0251 -0.0075
55758W        W98670   3.112   0.891   1.484 -0.1356 -0.0387 -0.1996
55759W        W98671   3.059   3.235   2.075 -0.0241  0.0699 -0.2738
55760W        W98672   4.299   3.717   1.289  0.0172  0.2466  0.0861
55761W        W98673   1.685   3.279   2.087 -0.1036  0.3231 -0.2548
55762W        W98674  33.905   0.822   3.486 -0.1045  0.0325  0.0196
55763W        W98675   2.215   2.052   4.115  0.4144 -0.0530 -0.1191
55764W        W98676   2.256   2.502   1.396 -0.0247 -0.3039 -0.0145
55765W        W98677   2.634   0.784   1.515 -0.1730 -0.1429 -0.0585
55766W        W98678   2.642   3.003   0.121 -0.0598 -0.2965  0.1612
55767W        W98679   1.536   2.454   3.826  0.0035 -0.1200  0.3477
55768W        W98680   0.640   3.217   2.377  0.0893  0.2427 -0.1640
55769W        W98681   1.144   4.433   0.616 -0.1888 -0.0102 -0.1831
55770W        W98682   3.644   2.302   0.756 -0.1576  0.5379  0.1662
55771W        W98683   0.962   2.834   0.249  0.2497 -0.2816  0.0366
55772W        W98684   2.483   2.899   1.744  0.2778 -0.2808 -0.0505
55773W        W98685   2.637   1.064   1.096 -0.0726  0.2160  0.2271
55774W        W98686   2.055   2.830   1.002 -0.2465  0.1092 -0.2310
55775W        W98687   1.684   2.453  30.803 -0.3199  0.5337  0.4090
55776W        W98688   2.967   2.897   1.705 -0.0348  0.1030  0.0420
55777W        W98689   1.450   3.678   1.264 -0.0234  0.2017 -0.1373
55778W        W98690   4.856   2.140   2.916  0.1355 -0.0049 -0.2952
55779W        W98691   3.630   0.479   1.584 -0.1927 -0.2500 -0.1260
55780W        W98692   5.492   0.632   2.090  0.0052  0.0568 -0.0501
55781W        W98693   4.053   0.822   1.771 -0.1700  0.4436 -0.1300
55782W        W98694   4.823   2.410   2.467  0.4827  0.2384  0.2492
55783W        W98695   2.040   0.380   2.125 -0.0705 -0.1104 -0.3145
55784W        W98696   1.464   1.106   0.625  0.0472  0.1765  0.2486
55785W        W98697   0.075   1.676   2.762  0.1534 -0.0180 -0.1797
55786W        W98698   3.583   0.618   3.941 -0.1144 -0.0405  0.1518
55787W        W98699   1.449   3.714   3.231  0.3407 -0.2855  0.0657
55788W        W98700   3.409   2.898   1.822 -0.3056 -0.2333 -0.1254
55789W        W98701  34.587   0.051   0.204 -0.1297 -0.0878 -0.1361
55790W        W98702   2.184   0.805   1.088 -0.0326  0.2056  0.1039
55791W        W98703   4.703   0.689   2.883 -0.1425  0.0967  0.0777
55792W        W98704   2.052   2.209  31.553  0.5000 -0.0845 -0.2168
55793W        W98705   1.370   2.623   1.556 -0.0469 -0.0639 -0.0206
55794W        W98706   1.354   4.026   0.901  0.2925 -0.1768  0.0375
55795W        W98707   1.568   2.901   1.023 -0.0398  0.0606 -0.0783
55796W        W98708   3.163   2.106   3.064  0.3407  0.4100 -0.0983
55797W        W98709   0.515   1.151   0.820  0.0003  0.0190 -0.2056
55798W        W98710   4.878   0.489   1.896  0.1444 -0.1805  0.1345
55799W        W98711   0.968   0.502   4.157  0.3377 -0.0816  0.1768
55800W        W98712   5.204   0.268   1.016 -0.2831  0.0043  0.1732
55801W        W98713   0.537   1.055   1.323 -0.2781  0.3996  0.3259
55802W        W98714   3.270  34.618   1.383 -0.0828  0.2332 -0.2154
55803W        W98715   3.609   1.988   2.502  0.1675 -0.1101  0.0156
55804W        W98716   0.159   1.438   3.274  0.2115 -0.2360 -0.0961
55805W        W98717   2.847   1.145   0.373 -0.1913 -0.2686 -0.2540
55806W        W98718   5.016   1.630   3.146  0.1954  0.1134 -0.0723
55807W        W98719   3.625   1.032   1.591  0.2765  0.1958 -0.1178
55808W        W98720   3.644   3.954   3.057 -0.4463  0.0627  0.4735
55809W        W98721   1.320   0.602   0.487  0.2164 -0.1366  0.0995
55810W        W98722   1.896   0.923   0.377 -0.1156 -0.1068 -0.0351
55811W        W98723   1.432   2.391   1.089  0.0672  0.0904 -0.1347
55812W        W98724   2.353   2.181   2.094  0.1194  0.0725  0.1458
55813W        W98725   4.065   1.967   2.636  0.2761 -0.1930  0.0043
55814W        W98726   0.183   0.713   1.205  0.2619 -0.1499  0.0174
55815W        W98727   4.889   1.896   0.444  0.1496 -0.1129 -0.2539
55816W        W98728   3.713   2.425   3.575 -0.2383  0.1148 -0.3390
55817W        W98729   1.558   3.705   0.460 -0.1603 -0.0673  0.1696
55818W        W98730   4.609   1.069   2.460  0.3557  0.0964  0.3858
55819W        W98731   4.900   3.164   2.798 -0.0324 -0.1850  0.0778
55820W        W98732  34.250   1.949   1.308  0.1879  0.0236  0.0000
55821W        W98733   2.602   3.104   2.193 -0.3722  0.0318  0.1097
55822W        W98734   3.048   1.869   2.589 -0.0764  0.0384  0.0933
55823W        W98735   2.836   0.315   1.419 -0.2190 -0.0408 -0.1348
55824W        W98736   1.204   1.645   1.885 -0.1687 -0.0531 -0.2497
55825W        W98737   0.396   4.468  31.663  0.0994 -0.0892 -0.0693
55826W        W98738   4.480   0.452   2.217  0.4404  0.2748  0.2296
55827W        W98739   3.962   0.537   2.360 -0.3168  0.6908  0.0199
55828W        W98740   2.288   2.203  31.980  0.1877  0.0453  0.0639
55829W        W98741   3.803  33.228   3.546  0.1327 -0.2565  0.0757
55830W        W98742   2.377   3.085   2.682 -0.0167 -0.4021  0.4530
55831W        W98743   1.209   2.199   3.589  0.0886 -0.1993  0.0720
55832W        W98744   0.918   1.221  31.816 -0.2385  0.1678  0.1578
55833W        W98745   2.386   2.070   3.525  0.0985  0.0457 -0.0925
55834W        W98746   2.764   1.372   1.471 -0.0767  0.0740 -0.2751
55835W        W98747   2.632   4.075   1.961 -0.6370  0.0732 -0.1168
55836W        W98748   4.153   2.698   1.456 -0.2101 -0.1995  0.1793
55837W        W98749   1.015   0.963   0.705 -0.0436 -0.0214 -0.2795
55838W        W98750   4.944   1.996   1.583  0.0339 -0.0690 -0.0368
55839W        W98751   1.437   1.942   2.249  0.0918 -0.0361  0.3131
55840W        W98752   2.927   0.049   1.995 -0.3196  0.2718  0.0796
55841W        W98753   3.026   0.083   0.462  0.0613  0.1089 -0.1351
55842W        W98754   2.817   2.356   2.565  0.2165  0.0973 -0.1926
55843W        W98755   0.897  34.608  31.475 -0.1629  0.2498 -0.1359
55844W        W98756   1.689   4.059  30.665  0.0914  0.1424 -0.2816
55845W        W98757   1.422   1.992   1.615 -0.1058  0.0102 -0.2910
55846W        W98758   2.220   0.865   2.885 -0.0751  0.0214  0.1300
55847W        W98759   1.468   0.433   2.396  0.1379 -0.0007 -0.1267
55848W        W98760   1.401   2.144   3.046  0.1677 -0.2877  0.0389
55849W        W98761   1.565   0.760   0.994 -0.2772 -0.3240 -0.2239
55850W        W98762   3.634   2.761   0.362 -0.1205 -0.0779  0.2545
55851W        W98763   0.784   1.024   2.343  0.1048  0.0923 -0.2125
55852W        W98764  33.395   0.269   1.252 -0.0346 -0.0555  0.4569
55853W        W98765   2.775   2.230   0.092 -0.0068 -0.1258  0.4336
55854W        W98766   4.063   1.294   1.625 -0.2101 -0.0170  0.0387
55855W        W98767   1.740   0.413   0.346 -0.0860 -0.1590  0.0166
55856W        W98768   3.743   3.004   3.581  0.1013 -0.0581  0.0526
55857W        W98769  34.303   3.079   0.521  0.2193  0.3285 -0.3156
55858W        W98770   1.997   1.587   4.863  0.0555 -0.0069  0.2885
55859W        W98771   2.796  34.415   2.387  0.3022 -0.0692  0.0903
55860W        W98772  34.141   1.203   0.808  0.0069  0.0468  0.3734
55861W        W98773   1.815   1.107   1.874  0.2759  0.0173 -0.1479
55862W        W98774   3.028   2.579   2.176 -0.0542 -0.3328  0.0478
55863W        W98775   4.409   4.075  31.326 -0.0268  0.1726  0.3286
55864W        W98776   2.546   1.463   3.777 -0.0909 -0.3049  0.1684
55865W        W98777   3.252   3.074   2.986  0.2293  0.0142  0.2513
55866W        W98778   0.101   0.193   2.855 -0.2661  0.0692  0.0064
55867W        W98779   2.750   2.608   0.429 -0.0337 -0.0131  0.1220
55868W        W98780   1.846   2.852   1.513  0.2491 -0.0221  0.1952
55869W        W98781   4.310   1.498   0.157 -0.0068  0.2839 -0.0562
55870W        W98782   4.401   0.967   0.775  0.2419 -0.2027  0.3011
55871W        W98783   2.130   2.585   1.855 -0.0176  0.0676  0.0566
55872W        W98784   0.950   0.534   3.209  0.0704  0.0455 -0.2583
55873W        W98785   1.103   1.782   3.244 -0.1079 -0.2989 -0.0837
55874W        W98786   5.373   1.985   2.878 -0.0364  0.1491  0.0838
55875W        W98787   0.766   1.424   2.022 -0.2810 -0.4725  0.1869
55876W        W98788   2.757   2.192   1.361  0.0658 -0.2099  0.1633
55877W        W98789   2.824   2.126   0.825 -0.2599 -0.0302 -0.0391
55878W        W98790   1.981   1.861   0.244 -0.2466  0.2122  0.1033
55879W        W98791   3.458   1.061  31.846  0.1234 -0.2695 -0.0858
55880W        W98792   1.162   0.859   5.329  0.1123 -0.1444 -0.0071
55881W        W98793   1.636   2.667   1.977  0.0346  0.0875  0.2405
55882W        W98794   3.697   2.526   4.232 -0.2572 -0.2120  0.3770
55883W        W98795   1.387   1.566   0.442  0.0909  0.0538 -0.0290
55884W        W98796   4.027   1.818   1.309 -0.0472  0.0886  0.0418
55885W        W98797   2.652   3.486   3.543 -0.2113  0.0033 -0.1220
55886W        W98798   1.970   3.315   2.467 -0.3546 -0.2576 -0.0619
55887W        W98799   3.727   1.099   2.732  0.2206 -0.0221  0.2701
55888W        W98800   0.188   0.108   2.350 -0.2752  0.1479  0.0829
55889W        W98801  34.222   3.357   0.903 -0.0896  0.1169  0.0701
55890W        W98802   2.950   2.032   2.120  0.0708  0.0422  0.0469
55891W        W98803   5.182   0.256   2.296  0.0869 -0.2039 -0.1873
55892W        W98804  34.683   1.101   0.952  0.0140  0.0609  0.0727
55893W        W98805   2.470   0.915   0.654  0.1826 -0.2328  0.0088
55894W        W98806   1.876   1.567   1.723  0.0540  0.1927 -0.3318
55895W        W98807   4.419   1.357   1.943  0.2340  0.3277  0.0018
55896W        W98808   0.839   3.106   5.757 -0.0606  0.0897 -0.0828
55897W        W98809   1.488   1.058   3.658 -0.1654 -0.0322 -0.3115
55898W        W98810   3.425  34.083   3.790  0.1655 -0.0621  0.1357
55899W        W98811   3.900   0.579   4.516  0.5526 -0.1247  0.2565
55900W        W98812  33.372   1.220   5.071  0.1011  0.1648 -0.0694
55901W        W98813   2.852   3.816   4.257 -0.1498 -0.1504  0.0276
55902W        W98814  34.483   0.548   6.963 -0.4054 -0.1566  0.2501
55903W        W98815   2.553   2.556   4.816  0.1245  0.1807  0.0445
55904W        W98816   1.880   3.102   5.231  0.1198 -0.0791  0.0812
55905W        W98817   3.676   2.218   2.945  0.1641  0.1074 -0.0989
55906W        W98818   2.690   1.118   6.730  0.0084  0.1589 -0.1848
55907W        W98819  34.588   4.462   7.299  0.1323  0.1460  0.2483
55908W        W98820   3.257   0.932   2.541  0.0019  0.0577  0.0631
55909W        W98821  34.334   1.008   5.346  0.2980 -0.0309  0.0487
55910W        W98822   2.507   1.841   5.233 -0.2159 -0.1953  0.0903
55911W        W98823   1.038   2.938   5.133 -0.0088  0.0945  0.4038
55912W        W98824   1.208   0.764   6.335  0.3393 -0.1607  0.0775
55913W        W98825   2.348   0.354   5.557 -0.2805  0.1388 -0.1498
55914W        W98826   1.017   3.005   6.780 -0.0669  0.0176 -0.0526
55915W        W98827   2.091   1.019   7.428  0.0138 -0.0334  0.2328
55916W        W98828   2.340   1.759   6.732 -0.1163  0.3696  0.1496
55917W        W98829   1.515   3.726   4.160 -0.2773 -0.1501 -0.0254
55918W        W98830   0.074   1.615   4.361 -0.2726 -0.0511  0.2576
55919W        W98831  34.532   1.458   5.519  0.3367  0.0728 -0.1458
55920W        W98832  34.403   1.763   5.102  0.0669 -0.2142 -0.0386
55921W        W98833   2.377   1.395   5.607 -0.1235  0.2356 -0.2013
55922W        W98834   2.244   2.289   7.188 -0.0316  0.3595  0.1353
55923W        W98835   0.803   3.706   5.665 -0.1698  0.0337 -0.4470
55924W        W98836  34.613   2.593   4.028 -0.0532  0.0355 -0.2293
55925W        W98837   3.303   1.581   5.674 -0.0451  0.0947 -0.3090
55926W        W98838  34.392   2.114   4.043 -0.1102 -0.3162 -0.0560
55927W        W98839   0.240   3.656   4.656  0.0274  0.3046  0.3908
55928W        W98840   2.067   3.446   4.430  0.2350  0.3015  0.2455
55929W        W98841   3.172   2.968   4.250 -0.1089 -0.1772 -0.2237
55930W        W98842   2.654   3.515   6.630  0.1206 -0.1854 -0.0233
55931W        W98843   0.792   3.292   8.038 -0.3127 -0.1093 -0.3126
55932W        W98844   0.897   2.592   4.439  0.1036 -0.2376  0.1166
55933W        W98845   2.398   3.643   7.381 -0.0966  0.0574  0.3550
55934W        W98846   2.192   3.142   8.066  0.1196 -0.2179 -0.1573
55935W        W98847   1.038   1.892   7.078 -0.1062  0.0031  0.1654
55936W        W98848   3.699   1.649   4.547  0.0371  0.4866 -0.0799
55937W        W98849   2.123   2.532   3.238 -0.1990 -0.0489 -0.2200
55938W        W98850   0.956   2.145   6.062  0.1727  0.1152  0.1999
55939W        W98851   1.511   2.996   7.000 -0.0306  0.0225  0.2254
55940W        W98852  34.398   2.926   4.917 -0.3049  0.0512  0.2570
55941W        W98853   2.817   0.637   7.064 -0.0824 -0.0094 -0.3052
55942W        W98854   0.990   2.631   3.918  0.3364  0.1706  0.1289
55943W        W98855   3.661   1.952   3.409  0.0957 -0.1792  0.2763
55944W        W98856   2.079   1.631   3.817 -0.0533 -0.0743 -0.1554
55945W        W98857   2.961   0.590   3.178  0.2023  0.2066  0.0596
55946W        W98858   1.727   0.057   4.379 -0.0596  0.0562 -0.4180
55947W        W98859   0.682   3.763   5.110 -0.1859 -0.0992  0.0456
55948W        W98860  34.214   0.465   6.094 -0.0675 -0.2021  0.0912
55949W        W98861   3.132   2.233   5.707 -0.2158 -0.0059 -0.0375
55950W        W98862   1.707   3.717   4.653  0.2388 -0.0093 -0.1835
55951W        W98863   1.770   1.269   5.151  0.0378  0.1587 -0.5078
55952W        W98864  34.596   3.295   6.148  0.3024 -0.0413 -0.1980
55953W        W98865   1.012   1.395   5.361  0.0134  0.2240 -0.4284
55954W        W98866   4.138   2.832   3.742 -0.0100  0.0065  0.0080
55955W        W98867   2.886   4.245   3.718 -0.0867  0.0649 -0.2575
55956W        W98868   3.167   2.722   3.763 -0.3008 -0.2825  0.0448
55957W        W98869   1.267   1.696   4.163 -0.1444 -0.0980 -0.2394
55958W        W98870  33.112   2.605   6.216  0.3750 -0.2956  0.4252
55959W        W98871  33.583   1.036   6.979  0.1713 -0.1859  0.1315
55960W        W98872   2.486  33.988   3.270  0.7162 -0.4445 -0.0488
55961W        W98873   4.933   3.053   6.358 -0.0168  0.1340 -0.0957
55962W        W98874   0.453   3.644   7.222 -0.1052  0.1330  0.3354
55963W        W98875   3.107   0.826   4.094  0.4395  0.4158 -0.3644
55964W        W98876  34.683   3.165   5.473  0.0357 -0.1393 -0.0190
55965W        W98877   2.343   2.637   5.285  0.1153 -0.0143 -0.2251
55966W        W98878   3.392   1.400   4.217  0.1242 -0.1388 -0.4501
55967W        W98879   2.410   0.873   5.875  0.0220 -0.0920  0.0316
55968W        W98880   2.371   0.710   6.816 -0.1153 -0.0382  0.3532
55969W        W98881   1.086   2.100   4.766 -0.3968 -0.0612 -0.1930
55970W        W98882   1.555   2.948   4.899 -0.0069 -0.0008  0.3221
55971W        W98883   4.045   3.279   6.762 -0.3225 -0.2825  0.2812
55972W        W98884   4.500   1.802   2.967 -0.0976 -0.0932 -0.1181
55973W        W98885  34.269   2.435   5.996  0.0928  0.0656  0.1430
55974W        W98886   0.614   2.098   6.442  0.1040  0.0154 -0.0230
55975W        W98887   2.678   2.884   7.376 -0.1890  0.4334  0.1404
55976W        W98888   0.474   2.597   3.610 -0.2099  0.1567 -0.1409
55977W        W98889   0.821   2.315   2.984 -0.4169 -0.1181 -0.0358
55978W        W98890  33.607   2.783   2.857  0.1949  0.0655 -0.0813
55979W        W98891   0.923   2.461   5.065 -0.3796 -0.1010 -0.2337
55980W        W98892  34.464   2.104   5.639 -0.0200  0.0005 -0.1598
55981W        W98893   3.673  34.472   4.656  0.1875 -0.0645 -0.0298
55982W        W98894  33.993   0.814   6.569 -0.1408  0.0111  0.1178
55983W        W98895   4.069  34.518   4.150 -0.2650  0.3469 -0.1662
55984W        W98896   0.551   2.433   4.075 -0.0521  0.2359 -0.1514
55985W        W98897   4.430   2.928   3.329  0.0251  0.1246 -0.1219
55986W        W98898   4.027   0.906   4.094 -0.0661 -0.1330 -0.0515
55987W        W98899   3.425   2.738   3.337 -0.2503 -0.2966  0.4215
55988W        W98900   0.201   2.413   5.747 -0.0197  0.2359 -0.2313
55989W        W98901   0.874   1.622   4.906  0.1847  0.1219 -0.0099
55990W        W98902   1.215   1.811   5.817  0.0932  0.0493 -0.1036
55991W        W98903   0.758   0.502   5.419  0.2422  0.4636 -0.0905
55992W        W98904   3.773   2.553   7.497  0.1359  0.0320  0.0374
55993W        W98905   0.590   1.002   5.469 -0.2235 -0.1323  0.0940
55994W        W98906   2.119   0.120   4.629 -0.2917  0.0696 -0.0765
55995W        W98907   1.687   2.150   4.898 -0.0757 -0.3060 -0.0617
55996W        W98908  33.603   1.245   4.646  0.0140  0.2339  0.1904
55997W        W98909   3.125  34.393   7.911 -0.2272  0.0975  0.2097
55998W        W98910   1.817   2.867   4.458 -0.0570 -0.0107 -0.0856
55999W        W98911   3.952   2.813   6.891  0.2005  0.1524 -0.2246
56000W        W98912   1.958   4.886   5.007 -0.1775  0.1415 -0.1277
56001W        W98913   1.378   2.640   6.513  0.1058 -0.0030  0.1014
56002W        W98914   1.736   0.598   4.500  0.2388 -0.0158  0.1082
56003W        W98915  34.157   3.849   6.743 -0.2407  0.2025  0.1929
56004W        W98916   0.624   2.793   4.795  0.0782 -0.2930 -0.1385
56005W        W98917   2.359   0.942   3.319 -0.0085  0.2137 -0.2038
56006W        W98918   4.279   3.839   4.027  0.0875 -0.2799  0.2678
56007W        W98919   1.350   2.513   4.694 -0.1431  0.2238  0.1904
56008W        W98920  34.004   2.352   6.870  0.2204  0.2311 -0.2403
56009W        W98921   1.869   1.491   6.563 -0.0393  0.1126  0.0832
56010W        W98922   3.022   1.797   6.079 -0.2474  0.1526 -0.4187
56011W        W98923   2.530   1.287   4.634 -0.0705 -0.1241  0.2657
56012W        W98924   1.128   1.993   5.269 -0.3205 -0.4077  0.0801
56013W        W98925   1.570   3.925   2.702  0.2220 -0.0024  0.1003
56014W        W98926   1.245   2.654   2.851  0.1574  0.0754 -0.0225
56015W        W98927   0.515   1.945   4.125 -0.0175 -0.1757 -0.0122
56016W        W98928   1.028   2.665   5.559 -0.0495  0.0500 -0.2056
56017W        W98929   2.288   0.804   4.466 -0.0512  0.0882  0.0733
56018W        W98930  34.198   1.155   5.802 -0.4042 -0.0899  0.0174
56019W        W98931   1.423   0.774   5.855 -0.1726  0.0618  0.1782
56020W        W98932   1.731   1.653   3.190 -0.0643  0.2622  0.0457
56021W        W98933   1.090   3.396   7.074 -0.5095 -0.1906 -0.0979
56022W        W98934   2.834  34.005   4.459  0.0275 -0.1961 -0.0258
56023W        W98935   5.146   1.052   4.009 -0.3059  0.0079 -0.0819
56024W        W98936   1.430   1.660   7.387 -0.0011  0.0844  0.1728
56025W        W98937   2.951   3.450   3.916  0.2828  0.0305  0.0786
56026W        W98938   3.174  34.600   3.214  0.1437  0.0119 -0.0999
56027W        W98939   0.533   1.264   3.732 -0.2582  0.1366  0.2684
56028W        W98940  33.640   1.186   7.466  0.1052  0.1016 -0.0747
56029W        W98941   2.122   3.410   4.949 -0.1010 -0.2194 -0.2885
56030W        W98942   1.556   2.769   5.607  0.0238  0.1911  0.3151
56031W        W98943   2.250  34.679   3.765 -0.3517  0.2442  0.0698
56032W        W98944   4.706   3.080   4.384 -0.3248 -0.2258 -0.1761
56033W        W98945   0.221   1.751   5.579  0.1188  0.1759  0.1148
56034W        W98946   1.915   1.849   6.970  0.3381 -0.4313  0.0776
56035W        W98947   2.808   2.779   5.137 -0.2155  0.0175 -0.0205
56036W        W98948   0.549   0.173   4.993 -0.1356  0.1111 -0.2661
56037W        W98949   0.734   1.343   3.227  0.0975 -0.2260  0.1669
56038W        W98950   2.708   0.036   4.587 -0.2072 -0.0638  0.0384
56039W        W98951   0.557   4.706   5.522 -0.3464  0.0464  0.0801
56040W        W98952   1.967   0.934   6.260 -0.5190  0.0904  0.0176
56041W        W98953   2.585   1.039   7.188  0.1194 -0.0228 -0.3351
56042W        W98954   2.102   0.052   7.098 -0.1893 -0.0485 -0.2012
56043W        W98955   3.495   1.078   6.440 -0.1087 -0.2055  0.1251
56044W        W98956   3.138   1.779   4.017  0.0301 -0.0131  0.0999
56045W        W98957   2.003   0.600   5.856 -0.0990 -0.2297 -0.1362
56046W        W98958   1.372   1.341   3.291  0.1255 -0.0046 -0.1463
56047W        W98959   1.913   0.465   6.844 -0.2379 -0.3480  0.0509
56048W        W98960   0.034   1.538   6.024  0.0810 -0.1830 -0.0846
56049W        W98961   1.104   2.035   6.638 -0.0603 -0.0774 -0.0761
56050W        W98962   1.399   3.790   7.009 -0.1486 -0.1056 -0.4303
56051W        W98963   2.907   4.146   5.312  0.1939 -0.2800 -0.3098
56052W        W98964   1.014   1.811   7.684  0.0139  0.1311 -0.2678
56053W        W98965   3.335   1.580   3.444 -0.1638  0.2047  0.0551
56054W        W98966   0.766   3.013   4.287 -0.0012  0.1119  0.1614
56055W        W98967   1.125   3.099   4.632  0.1165 -0.0263 -0.3495
56056W        W98968  34.385   0.903   6.135 -0.3599 -0.1937  0.2052
56057W        W98969   1.670   3.941   6.601  0.2183 -0.1196  0.1130
56058W        W98970   1.410   2.800   4.206 -0.0071  0.1124  0.2195
56059W        W98971   1.990   2.926   5.742 -0.0639 -0.1558  0.3092
56060W        W98972  34.444   3.445   3.682 -0.0600 -0.2200 -0.0778
56061W        W98973   4.463  34.586   6.657  0.1121  0.0063  0.2393
56062W        W98974  34.024   2.107   4.864 -0.1649 -0.1065  0.0263
56063W        W98975   1.825   1.410   4.164  0.2744 -0.1437 -0.0853
56064W        W98976   0.155   2.228   4.259  0.2471  0.0687  0.3731
56065W        W98977   3.740  34.150   5.735 -0.0533  0.1584 -0.0337
56066W        W98978   4.513   1.849   3.907 -0.0597 -0.0215 -0.0695
56067W        W98979   0.194   0.137   6.197 -0.2150 -0.0799 -0.2146
56068W        W98980   0.530   2.822   6.587 -0.0341 -0.0649  0.2746
56069W        W98981   1.651   2.721   6.103 -0.2559  0.2412 -0.0928
56070W        W98982   2.107  34.295   3.546  0.1484  0.1606 -0.0471
56071W        W98983   1.382   3.147   6.491  0.1103  0.0186 -0.2915
56072W        W98984   1.667   1.194   7.135  0.2441  0.0783  0.2527
56073W        W98985   0.342   0.974   4.112 -0.0831 -0.1628 -0.0601
56074W        W98986   2.755   1.621   6.516 -0.1158 -0.1985 -0.0227
56075W        W98987   1.516   1.314   5.680  0.3212 -0.0636  0.2334
56076W        W98988   0.073   3.751   4.026  0.4977  0.1847 -0.1066
56077W        W98989   1.670   4.493   4.861 -0.2212  0.4599 -0.1847
56078W        W98990   1.468   0.585   5.036 -0.1237 -0.1613 -0.1089
56079W        W98991  33.722   2.386   3.874 -0.3690  0.1760  0.1143
56080W        W98992  34.483   2.063   6.963 -0.2003  0.2682 -0.0192
56081W        W98993   1.845   2.604   5.171  0.1102  0.0560 -0.0480
56082W        W98994   1.202   1.368   6.562 -0.1408 -0.0630  0.2369
56083W        W98995   2.311   1.035   3.861 -0.1426 -0.1373  0.3040
56084W        W98996   1.605   1.329   6.158 -0.0996  0.0235  0.0976
56085W        W98997   2.104   2.867   4.859 -0.1618  0.2041 -0.2183
56086W        W98998   0.903   2.479   6.511 -0.0166 -0.2182 -0.1359
56087W        W98999   0.382   1.916   6.980  0.3203  0.0627 -0.0303
56088W        W99000   0.897   0.054   5.617  0.3443  0.2195 -0.3500
56089W        W99001   4.773   3.698   3.822  0.2528 -0.2006 -0.0441
56090W        W99002   3.152   0.838   6.661 -0.1091 -0.2374  0.1911
56091W        W99003   0.599   3.208   5.355 -0.1355  0.0147  0.0858
56092W        W99004  34.434   1.524   6.795  0.0886 -0.2758 -0.2187
56093W        W99005   0.316   2.652   4.449 -0.1071 -0.1624  0.4181
56094W        W99006   3.766   0.787   5.068 -0.2930  0.0487  0.0958
56095W        W99007   1.311   2.283   5.733  0.5227  0.1541 -0.4023
56096W        W99008   1.415   2.953   3.645 -0.1169 -0.2118  0.3081
56097W        W99009  33.580   2.084   6.980  0.1058  0.2426 -0.1590
56098W        W99010   2.773   0.065   3.967 -0.2174  0.3468  0.1612
56099W        W99011   1.777   2.381   4.295 -0.0672 -0.1224  0.0909
56100W        W99012   1.958   1.079   5.767 -0.3176 -0.1655  0.0728
56101W        W99013   5.279  34.617   6.246 -0.2405  0.1556  0.0727
56102W        W99014   2.263   1.466   3.362  0.1395 -0.1122  0.0883
56103W        W99015   3.182   1.840   6.720 -0.4136  0.1525  0.3624
56104W        W99016  34.365  34.319   7.988  0.1366  0.2204 -0.0031
56105W        W99017   3.351   3.320   4.498 -0.0723  0.2723  0.2629
56106W        W99018  34.016   1.632   4.643 -0.0492 -0.1262 -0.1253
56107W        W99019   2.248   2.698   6.831  0.1252  0.2606  0.0920
56108W        W99020  34.457   1.409   7.279  0.0687 -0.1451  0.0283
56109W        W99021   1.841   1.077   4.552  0.3375 -0.1203 -0.0370
56110W        W99022   0.473   1.785   4.595 -0.0901 -0.0020 -0.0349
56111W        W99023   0.966   1.106   5.773 -0.0462  0.2328  0.1257
56112W        W99024   2.850   2.175   4.831 -0.2108 -0.1063  0.0604
56113W        W99025   2.528   3.876   3.857  0.1373  0.1784  0.3984
56114W        W99026   2.784   1.621   4.350  0.0331 -0.0881  0.3008
56115W        W99027  34.549   2.864   5.843  0.1627 -0.3360  0.0089
56116W        W99028   2.235   2.560   4.414  0.1197 -0.1847  0.0976
56117W        W99029   2.651   2.148   4.367 -0.0802  0.1218  0.0545
56118W        W99030  34.388   2.404   3.543  0.1478  0.1664 -0.2501
56119W        W99031   1.172   0.309   7.227  0.0720  0.3218 -0.0011
56120W        W99032   2.007   1.943   4.543 -0.0599  0.3383  0.2782
56121W        W99033   1.697   0.861   4.025  0.0378 -0.0457 -0.0735
56122W        W99034   1.996   1.031   6.765  0.0941 -0.5105 -0.0938
56123W        W99035   1.970   1.645   5.487 -0.3653 -0.4686  0.0251
56124W        W99036   0.356   0.696   6.722  0.3034  0.1284 -0.2973
56125W        W99037   0.211   1.437   7.074  0.1761 -0.2053  0.0996
56126W        W99038   3.708   2.744   6.493  0.1052  0.1175  0.1172
56127W        W99039   4.414   0.163   3.452 -0.4279  0.0495  0.0287
56128W        W99040   3.934  34.614   5.460 -0.1092  0.0131  0.0374
56129W        W99041   3.080   1.270   4.618  0.0319 -0.0807  0.0323
56130W        W99042   2.799   1.164   4.209 -0.1056 -0.0833 -0.2773
56131W        W99043   0.466   1.466   5.242  0.0902  0.2385  0.2799
56132W        W99044   2.674   3.000   6.668  0.1257 -0.1261 -0.2311
56133W        W99045   1.486   1.925   4.514 -0.3671  0.0959  0.1480
56134W        W99046   3.098   1.246   6.280  0.2055 -0.1681 -0.1622
56135W        W99047   1.286   3.085   3.130  0.3888  0.0472 -0.1291
56136W        W99048   2.141   2.463   3.758  0.1394 -0.1596  0.1829
56137W        W99049   3.853   1.358   4.120  0.0481  0.2987 -0.2846
56138W        W99050  32.884   0.700   3.865  0.0856 -0.0836 -0.3568
56139W        W99051   1.261   2.525   6.999 -0.0176  0.0269  0.0187
56140W        W99052   1.385   0.883   2.482  0.0406 -0.1563 -0.0265
56141W        W99053   1.717   1.949   4.008 -0.1194 -0.1163  0.2352
56142W        W99054   1.719   3.409   6.687 -0.2526 -0.2712 -0.0448
56143W        W99055   1.489   2.113   7.219 -0.1606  0.0360  0.1502
56144W        W99056   2.603  34.291   3.666  0.0622 -0.0009 -0.1150
56145W        W99057   3.197   1.344   6.737  0.0639 -0.0623  0.1649
56146W        W99058   0.862   3.117   3.819  0.1910 -0.2262 -0.2823
56147W        W99059   2.907   0.804   4.538  0.2650 -0.1043 -0.3661
56148W        W99060   1.353   3.094   5.955  0.0534  0.3656  0.2882
56149W        W99061  34.361   2.977   7.481 -0.2233 -0.1648  0.3661
56150W        W99062   0.360   3.372   4.179 -0.2738 -0.0226 -0.1521
56151W        W99063   0.845   0.566   6.947  0.0207  0.2145  0.2795
56152W        W99064   2.297   0.817   5.420  0.0843 -0.1780 -0.1466
56153W        W99065   1.720   1.813   5.912  0.0131  0.1087 -0.1408
56154W        W99066   3.392   1.763   7.179 -0.0950 -0.0813 -0.1451
56155W        W99067   1.151   2.654   6.052  0.1372  0.0417  0.0403
56156W        W99068  34.096   2.614   5.500  0.1464  0.0884  0.2857
56157W        W99069   2.304   3.819   6.869 -0.3643 -0.2069 -0.0557
56158W        W99070   2.859   1.506   5.376 -0.3760  0.0953  0.1833
56159W        W99071   0.744   3.495   4.472  0.2571  0.3800 -0.1228
56160W        W99072  33.906   0.288   5.558 -0.2307 -0.0127  0.1383
56161W        W99073   0.650   1.551   7.228 -0.1228  0.2116  0.0648
56162W        W99074   1.408   1.699   3.684  0.1984  0.0606  0.0146
56163W        W99075   0.989   0.644   4.835  0.0255  0.0938 -0.1553
56164W        W99076   2.362   3.333   3.154  0.0811 -0.0014 -0.0436
56165W        W99077   0.286   3.529   7.800  0.0287 -0.4449 -0.1959
56166W        W99078  34.420   2.419   6.507  0.1522  0.2957  0.0819
56167W        W99079   1.718   4.610   3.026  0.1006 -0.0081  0.3091
56168W        W99080   3.282   3.189   3.482 -0.2052  0.0038  0.0721
56169W        W99081   1.892   2.902   3.502 -0.0937 -0.2255  0.0165
56170W        W99082   1.825   4.562   5.791 -0.1129  0.1365  0.1028
56171W        W99083   1.880  34.340   4.805  0.2969 -0.0710  0.0084
56172W        W99084  34.463   3.808   4.890 -0.2444  0.2467  0.1703
56173W        W99085  33.281   2.556   3.722 -0.1254  0.0019  0.3476
56174W        W99086   2.832   3.344   3.035  0.0542 -0.3737  0.0184
56175W        W99087   1.010   3.414   5.042 -0.1046 -0.0517  0.0514
56176W        W99088   1.874   2.877   6.578  0.0005  0.0062 -0.1040
56177W        W99089   1.882   0.711   3.464  0.1654 -0.0295  0.1971
56178W        W99090   2.302   1.291   5.156  0.2191 -0.5188  0.3212
56179W        W99091   2.665   2.037   3.917 -0.1614  0.2601  0.0247
56180W        W99092   0.864   2.947   6.274  0.0322  0.2595 -0.0360
56181W        W99093   2.585   0.759   4.942 -0.2747 -0.2332 -0.0768
56182W        W99094   1.625   1.446   2.162  0.1003 -0.3777  0.2205
56183W        W99095  34.552   1.029   6.606  0.2688 -0.0732 -0.0705
56184W        W99096   3.566   1.273   7.115 -0.1551 -0.0017 -0.1097
56185W        W99097   1.340   3.183   7.883  0.1040 -0.0311 -0.0931
56186W        W99098   3.013   3.997   3.016  0.3015 -0.0824 -0.0741
56187W        W99099   1.271   0.777   4.413 -0.2849 -0.2750 -0.2675
56188W        W99100   1.756   0.738   5.412 -0.0820 -0.1461  0.0313
56189W        W99101   3.912   0.444   5.356 -0.0317  0.2581 -0.2615
56190W        W99102   2.624   3.651   5.192 -0.1295  0.1045 -0.2571
56191W        W99103   1.085   0.314   5.979 -0.0860 -0.0684 -0.0155
56192W        W99104  34.632   3.342   4.975  0.1361  0.1412 -0.1861
56193W        W99105  33.680   3.543   5.244 -0.2800 -0.3057  0.4067
56194W        W99106   1.495   3.482   5.022  0.2269 -0.1221 -0.1469
56195W        W99107   0.680   1.092   4.966  0.1188 -0.2459 -0.0645
56196W        W99108   3.379   0.692   4.506 -0.3412  0.1942  0.1970
56197W        W99109   0.920   1.647   6.267  0.1875  0.2860  0.3036
56198W        W99110   3.443  34.689   6.502 -0.1133  0.1039 -0.1932
56199W        W99111   0.735   0.944   6.406 -0.3587  0.2752 -0.2573
56200W        W99112   1.331   0.428   5.518 -0.3125  0.1833 -0.1563
56201W        W99113   1.800   2.313   5.868 -0.1928  0.2507  0.2825
56202W        W99114   0.760   2.250   5.582  0.2641 -0.2380 -0.0721
56203W        W99115   1.883   1.261   3.606 -0.1094  0.2533 -0.0106
56204W        W99116   3.312   2.495   6.610 -0.0319  0.1868  0.0559
56205W        W99117   1.127   2.187   4.224 -0.0170 -0.0871  0.2857
56206W        W99118   1.700   2.617   7.234  0.1137 -0.1142  0.1712
56207W        W99119  34.020   2.114   5.363 -0.1488  0.2438  0.2738
56208W        W99120   3.510   1.071   3.802  0.1972  0.3103  0.1916
56209W        W99121   1.169   3.376   4.128 -0.0420  0.1540  0.3153
56210W        W99122   0.735   1.610   6.747 -0.0385  0.1064 -0.0861
56211W        W99123   3.099   3.122   6.453  0.3947 -0.1945  0.5779
56212W        W99124   0.485   0.274   5.794 -0.0232  0.2200 -0.0487
56213W        W99125   3.679   2.963   4.056 -0.2190 -0.2555  0.1579
56214W        W99126   3.009   0.206   5.520 -0.1256 -0.1832 -0.1990
56215W        W99127   1.356   4.623   4.371 -0.0521  0.1154 -0.0685
56216W        W99128   2.479   1.880   4.703 -0.1431 -0.0312 -0.0256
56217W        W99129   2.007   3.701   5.930 -0.0822 -0.0407 -0.3065
56218W        W99130   0.225   0.941   6.260 -0.1454 -0.0052  0.0183
56219W        W99131   2.362   3.124   5.398 -0.4696 -0.1384 -0.4008
56220W        W99132   2.692   1.931   5.708  0.2334 -0.0250  0.4000
56221W        W99133   1.813  34.348   5.367 -0.1252  0.2504 -0.1925
56222W        W99134   1.459   2.211   6.191 -0.0909 -0.3687 -0.2397
56223W        W99135  33.927   3.310   4.155 -0.2483 -0.0225  0.0964
56224W        W99136   3.163   0.595   5.822  0.2302 -0.0012  0.0722
56225W        W99137   2.474   1.296   7.583 -0.0594 -0.1736  0.0114
56226W        W99138   1.740   3.320   3.998  0.3594 -0.2087  0.0920
56227W        W99139   2.514   0.262   7.370 -0.1561 -0.3030  0.3651
56228W        W99140   1.994   4.069   7.264 -0.1120  0.0909  0.4928
56229W        W99141  34.155   3.697   7.254 -0.0370  0.3189  0.1817
56230W        W99142   0.735   1.442   4.163  0.0754 -0.1219 -0.1722
56231W        W99143   0.097   1.010   5.645  0.2621 -0.1429 -0.0609
56232W        W99144   1.581   3.275   4.445 -0.2152  0.4441 -0.4857
56233W        W99145   2.521   3.620   4.645  0.0247  0.0181 -0.1561
56234W        W99146   2.398   3.083   4.523 -0.2637  0.4845  0.0155
56235W        W99147   2.029   0.897   4.961  0.0069  0.0174  0.2457
56236W        W99148   2.563   3.180   4.958 -0.1426  0.3949  0.0041
56237W        W99149   1.148   0.118   5.135  0.0912 -0.1957 -0.1466
56238W        W99150   4.875   0.496   5.931  0.1725 -0.2347 -0.0459
56239W        W99151   3.154   0.582   3.669 -0.2887 -0.2065  0.0250
56240W        W99152   0.512   1.875   5.970  0.0782 -0.2617 -0.1625
56241W        W99153   0.094   1.080   2.532  0.1500 -0.3200  0.0984
56242W        W99154   1.027   2.662   3.307 -0.3903 -0.0889  0.1642
56243W        W99155   0.091   2.185   5.284 -0.2124 -0.1903 -0.0060
56244W        W99156   2.191  34.438   6.175  0.0606  0.1606 -0.1095
56245W        W99157   0.659   0.720   5.879 -0.0447  0.0733  0.0599
56246W        W99158   1.461   1.632   5.082  0.1262 -0.0482 -0.1726
56247W        W99159  34.650   1.109   4.372  0.1615 -0.3323  0.0251
56248W        W99160   3.705   3.405   5.170  0.0983 -0.1792 -0.0545
56249W        W99161   1.566   1.011   6.572 -0.1835  0.0826  0.0710
56250W        W99162  34.491   0.813   4.724  0.0186 -0.0836 -0.0896
56251W        W99163   2.736   2.310   5.955  0.1860  0.0717 -0.3323
56252W        W99164   2.727   2.636   4.328 -0.0539  0.1323 -0.1367
56253W        W99165   1.210   0.434   2.797 -0.1847 -0.0331  0.1385
56254W        W99166   2.710   3.164   6.107  0.0362  0.1297  0.0948
56255W        W99167   0.664   2.130   3.407  0.2576  0.5320 -0.1750
56256W        W99168   1.644   2.261   6.735 -0.1763 -0.0866 -0.1472
56257W        W99169   1.184   0.939   6.884  0.1055 -0.0965  0.2275
56258W        W99170   1.259   0.294   4.543  0.0239  0.3129  0.0618
56259W        W99171   2.111   0.535   7.317  0.2549 -0.1251 -0.2718
56260W        W99172   2.126   3.915   4.778 -0.1625 -0.0309  0.0407
56261W        W99173   2.024   3.830   2.449 -0.1474 -0.1303 -0.1834
56262W        W99174   1.277   2.964   7.477 -0.0766 -0.0245 -0.1677
56263W        W99175   0.189   2.674   6.225  0.1051  0.1771  0.1957
56264W        W99176   0.260   0.542   5.388 -0.0656 -0.1499 -0.0289
56265W        W99177   2.347   0.175   4.182 -0.0176  0.2989  0.0248
56266W        W99178   0.695   3.104   7.609 -0.2519  0.0214 -0.0491
56267W        W99179   3.695   3.497   5.642 -0.2052  0.0714 -0.0141
56268W        W99180   3.550   0.715   6.147 -0.2924 -0.2536 -0.0084
56269W        W99181   3.127   2.338   4.111 -0.1487 -0.3604 -0.7104
56270W        W99182  34.593   0.141   6.726 -0.3518 -0.2060  0.3002
56271W        W99183  34.472   2.264   7.560  0.2247  0.0593  0.0443
56272W        W99184   2.766   2.378   5.388  0.2263  0.2711  0.2163
56273W        W99185   0.185   0.626   4.402 -0.0600  0.3566 -0.2906
56274W        W99186   3.678  33.822   4.903  0.0639 -0.0653 -0.0982
56275W        W99187   2.432   2.870   3.471  0.2640 -0.1025 -0.0829
56276W        W99188  34.681   3.020   4.507  0.0308  0.1421 -0.2040
56277W        W99189   3.092   0.307   4.439  0.2069 -0.0253 -0.2850
56278W        W99190   2.341   2.214   6.562 -0.0584 -0.1416 -0.1659
56279W        W99191   1.226   3.607   5.900  0.1267 -0.0668  0.0824
56280W        W99192   2.539   2.792   5.711  0.2113 -0.4039 -0.0394
56281W        W99193   2.250   2.170   5.030 -0.0256  0.1314 -0.0897
56282W        W99194   5.051   1.829   4.570 -0.1186 -0.0927  0.0279
56283W        W99195   2.951   3.585   6.221  0.1507 -0.2336  0.2317
56284W        W99196   2.655   3.761   8.348  0.2025  0.0195  0.1755
56285W        W99197   0.690   2.548   5.948 -0.0754 -0.0006 -0.0752
56286W        W99198   1.650   2.063   5.408 -0.1938  0.0674  0.0778
56287W        W99199   0.450  34.105   5.391  0.1822  0.2812 -0.0621
56288W        W99200  34.657   2.956   3.628 -0.0621 -0.0052  0.0474
56289W        W99201   0.713   1.749   5.541 -0.2089 -0.0150  0.0493
56290W        W99202   2.962   2.175   6.381 -0.0234 -0.3970  0.0139
56291W        W99203   0.103   2.421   4.845 -0.0105  0.1688 -0.1464
56292W        W99204   2.101   1.564   6.053  0.1559  0.0012 -0.1731
56293W        W99205   0.185   2.275   7.232  0.2228 -0.1160  0.3813
56294W        W99206   1.346   1.117   4.913 -0.2351  0.0137 -0.1354
56295W        W99207   1.947   1.149   9.403 -0.2906 -0.0910 -0.1926
56296W        W99208   1.048   0.036   8.835 -0.1440 -0.0709 -0.0894
56297W        W99209   3.340   1.488   7.596  0.0433  0.1572  0.3097
56298W        W99210   3.888   1.454   8.182 -0.0006  0.1356  0.1805
56299W        W99211  34.589   1.027   8.631 -0.0005 -0.2483 -0.1259
56300W        W99212   3.983   3.291   8.196 -0.1764 -0.1548 -0.2156
56301W        W99213   2.869   3.333   9.164 -0.2041 -0.0997 -0.1493
56302W        W99214   5.591   3.832   9.303 -0.0611  0.2903  0.0280
56303W        W99215   2.676   2.586   6.353 -0.0952 -0.0672 -0.0481
56304W        W99216  34.690   0.366   8.683 -0.1664 -0.1336 -0.2892
56305W        W99217   0.011  34.349   7.057  0.0269  0.1183 -0.0787
56306W        W99218  34.694   0.734   9.057  0.1392  0.0255  0.1271
56307W        W99219   1.907   3.216  10.018 -0.1112  0.1755 -0.0029
56308W        W99220  34.314   1.100   8.072 -0.0472  0.0471 -0.1479
56309W        W99221   0.618   0.703   9.629  0.1006 -0.0197 -0.0283
56310W        W99222   1.490   0.861   7.690 -0.1276 -0.0688  0.1268
56311W        W99223   1.654   1.487   8.198 -0.2500 -0.0333  0.0290
56312W        W99224   0.616   4.947   9.836 -0.1368  0.0676 -0.0451
56313W        W99225   1.434   1.639   8.679  0.3376  0.0914 -0.1703
56314W        W99226  33.848   0.519   6.981  0.1251  0.3184 -0.0034
56315W        W99227   0.178   1.485   9.663  0.1146  0.1746 -0.5257
56316W        W99228   0.984  34.037   9.489 -0.1480  0.3063 -0.1225
56317W        W99229   3.486   1.179   8.048 -0.0566  0.1618  0.3009
56318W        W99230   4.113   1.497   9.863  0.1041 -0.0465 -0.2427
56319W        W99231  34.584   4.857   9.925  0.0813  0.0468 -0.1267
56320W        W99232   1.342   1.879   9.266 -0.1516 -0.1005  0.2581
56321W        W99233  34.506   2.225   9.852 -0.0412 -0.1102 -0.0086
56322W        W99234  33.542   4.457   7.371  0.0970  0.0830 -0.3916
56323W        W99235   0.261   2.476   8.670  0.0875  0.0632  0.0334
56324W        W99236   2.862   1.457   8.588 -0.1352 -0.2911  0.1168
56325W        W99237   0.142   1.673   7.995 -0.1950  0.2987 -0.0120
56326W        W99238   1.055   2.157   8.949 -0.0583 -0.0686  0.0665
56327W        W99239   3.029   1.302   9.699 -0.0149 -0.2187 -0.2836
56328W        W99240   3.746   2.927   7.814 -0.1805  0.1738  0.1678
56329W        W99241   2.542   2.760   8.255 -0.2638 -0.2903  0.2631
56330W        W99242   0.106   3.068   9.614  0.1851  0.2136 -0.0855
56331W        W99243   0.360   3.845   6.797 -0.0838  0.0371 -0.2711
56332W        W99244   4.030   0.983   8.317 -0.0595  0.0511 -0.0746
56333W        W99245   2.597   0.770   7.633  0.0440 -0.1320 -0.1603
56334W        W99246   3.653   1.895   8.469 -0.0504 -0.1609  0.0768
56335W        W99247   1.217   0.728   8.990  0.0020  0.0224 -0.1118
56336W        W99248   0.298   3.303   8.216  0.0161  0.0046 -0.1855
56337W        W99249   0.573   0.015   8.460 -0.0970  0.0841 -0.1536
56338W        W99250   2.157   1.413   7.093  0.1207 -0.0188 -0.1297
56339W        W99251   0.906   1.129   9.875 -0.1134 -0.1081  0.0909
56340W        W99252   0.395   2.427   9.890  0.3469  0.0102  0.2072
56341W        W99253   0.510   1.491   8.498  0.1991  0.0684  0.2308
56342W        W99254   2.887   2.664   6.923  0.1667  0.1881  0.0971
56343W        W99255   4.711   2.977   7.311  0.1476  0.2413 -0.0082
56344W        W99256   2.347   3.235   6.962  0.1733 -0.2442 -0.0991
56345W        W99257  33.480   2.244   8.048 -0.2504  0.1827  0.1690
56346W        W99258   1.281  34.272   6.523  0.3534 -0.1632 -0.1437
56347W        W99259   3.977   0.696   9.873  0.0771  0.1613  0.2055
56348W        W99260   1.008   1.643   8.943  0.0404  0.4781 -0.1165
56349W        W99261   0.846   2.072   9.912  0.0069  0.0903  0.0024
56350W        W99262   2.887   3.423   7.458  0.0571  0.1857 -0.0793
56351W        W99263   2.129   0.653   9.369 -0.2451 -0.3547 -0.1991
56352W        W99264   0.683  34.539  10.017  0.3972 -0.0087  0.1741
56353W        W99265   1.982   1.948   6.287  0.0751 -0.4667 -0.0622
56354W        W99266   0.594   1.923   8.045 -0.3584  0.0282 -0.0155
56355W        W99267   4.786   3.568   8.245  0.3685 -0.2221  0.0712
56356W        W99268   2.279   2.924   6.185  0.0625 -0.3092  0.0428
56357W        W99269  34.682   3.728  10.058 -0.0875  0.1396  0.0006
56358W        W99270   0.465   2.024   9.597  0.1039  0.0367  0.0092
56359W        W99271   1.680   1.450   9.062  0.0265 -0.2271  0.0321
56360W        W99272   0.007   1.545   8.641 -0.0122  0.3232  0.1236
56361W        W99273  34.515   1.035   9.594  0.2572 -0.0021 -0.3531
56362W        W99274  34.211   3.953   9.726 -0.0400 -0.0820 -0.0605
56363W        W99275   2.363  34.492   9.436 -0.0881  0.3207 -0.3158
56364W        W99276   2.186   1.089   8.917  0.0369  0.0383 -0.1318
56365W        W99277   0.106   2.934   8.820 -0.0121 -0.2346 -0.0394
56366W        W99278   3.316   3.111   8.734  0.3839 -0.0963 -0.0571
56367W        W99279   3.066   1.088   7.152 -0.1346  0.2889 -0.3653
56368W        W99280   2.303   3.313   5.842  0.5453  0.3956 -0.0687
56369W        W99281  34.289   3.333  10.095  0.0708 -0.0485 -0.0073
56370W        W99282   0.292   0.761   8.649  0.0185 -0.2561 -0.1010
56371W        W99283  34.695   0.742   8.248 -0.2192 -0.1495 -0.0330
56372W        W99284  34.576  34.639   7.507 -0.1433  0.3541 -0.0217
56373W        W99285   3.475   1.085   9.714 -0.1155  0.2336  0.1842
56374W        W99286   1.932   1.793   7.557  0.1184  0.1600 -0.0525
56375W        W99287   0.390   1.234   8.895 -0.0711 -0.1032 -0.2574
56376W        W99288   1.978   2.486   8.806  0.0220  0.0923  0.1528
56377W        W99289   4.431   3.091   9.609  0.3167 -0.0091 -0.1652
56378W        W99290   3.458   2.980   8.288  0.0940  0.1106 -0.0541
56379W        W99291   1.602  32.253   8.589  0.0478  0.4478 -0.1771
56380W        W99292   0.322   0.400   8.148 -0.1290  0.0696 -0.0646
56381W        W99293   0.828   3.385   9.625  0.1023  0.3232 -0.0394
56382W        W99294   0.887   1.880   9.401  0.2217  0.0088 -0.1499
56383W        W99295   1.714   1.311   7.591  0.1408 -0.2185  0.1779
56384W        W99296   4.892   3.838   9.117 -0.0039  0.1320  0.3207
56385W        W99297   3.496   2.387   8.420 -0.3394  0.1296 -0.0217
56386W        W99298   3.511   3.749  10.286 -0.1137 -0.0107 -0.1197
56387W        W99299   2.282   0.947   9.786  0.0228  0.2159 -0.1386
56388W        W99300   2.071   0.851   7.946 -0.1074 -0.0070  0.1643
56389W        W99301   2.419   4.534  10.032 -0.2167 -0.1723 -0.2302
56390W        W99302   0.162   2.682   7.545 -0.3997  0.3224 -0.0662
56391W        W99303  34.062   2.061   7.243 -0.0260  0.2076 -0.1370
56392W        W99304   2.862   1.886   8.954 -0.3090 -0.0557 -0.0051
56393W        W99305   3.855   0.933   7.347  0.1396  0.0958 -0.0693
56394W        W99306   0.474   1.108   7.473 -0.2650  0.2140  0.1171
56395W        W99307   2.181   0.850   8.402 -0.1750 -0.0551 -0.3178
56396W        W99308   4.157   2.315   7.775  0.0080  0.3775  0.2298
56397W        W99309   2.103   3.573   8.371  0.0127 -0.0855  0.3962
56398W        W99310   1.469   1.703   6.880  0.1230  0.2426 -0.2638
56399W        W99311   2.496   0.183   6.822 -0.0992  0.1316  0.0069
56400W        W99312   1.493   2.601   8.065 -0.0241  0.2230 -0.3828
56401W        W99313  34.681   1.891   9.491  0.1370  0.0196  0.2254
56402W        W99314   2.681   2.256   7.380 -0.1442 -0.2747  0.0329
56403W        W99315   4.335   2.921   7.731 -0.2106  0.1894  0.2769
56404W        W99316   1.105   2.680   9.063  0.0916  0.1012 -0.2762
56405W        W99317   2.737   1.616   9.352 -0.0643  0.2022  0.5634
56406W        W99318   2.003   0.551   8.833  0.0163 -0.0728 -0.1482
56407W        W99319   1.079   1.361   7.085  0.2584  0.1776 -0.1103
56408W        W99320   2.362   1.686   7.798 -0.1668  0.0335 -0.2362
56409W        W99321  33.779   3.937   7.602  0.0473  0.2538 -0.0012
56410W        W99322   3.391   1.647   8.853  0.1512 -0.1844 -0.3853
56411W        W99323   2.080   0.124   8.565  0.0120  0.0178 -0.0165
56412W        W99324   3.321   1.435   8.433 -0.0885  0.0510  0.0110
56413W        W99325   2.365   3.649  10.284 -0.2732 -0.0661  0.0619
56414W        W99326   0.508   1.498   7.737 -0.1847  0.0342 -0.0536
56415W        W99327  33.241  33.444  10.240  0.2062 -0.2937 -0.0245
56416W        W99328   1.956   1.764   8.603  0.0607  0.3066 -0.1197
56417W        W99329   2.171   2.166   8.393  0.1201  0.0353 -0.2676
56418W        W99330   2.973   0.673   8.786  0.4511 -0.2574  0.0776
56419W        W99331   0.974   2.804   7.860  0.2080  0.0538 -0.2204
56420W        W99332   0.868   2.543   8.637 -0.0600  0.2125  0.4200
56421W        W99333   0.525  34.223   8.680  0.2607  0.1477 -0.0416
56422W        W99334   1.544   2.395   9.154  0.2441  0.3381 -0.1410
56423W        W99335   2.632   3.105   7.842 -0.0468 -0.1923 -0.2147
56424W        W99336   2.193   1.569   9.267 -0.0875 -0.4075 -0.0781
56425W        W99337   0.713   3.799   8.876 -0.4469  0.2963 -0.2419
56426W        W99338   1.213   1.234   9.051  0.0495  0.0204 -0.1722
56427W        W99339  34.057   3.063   9.419  0.0098  0.2401  0.0755
56428W        W99340   0.200   1.245   8.207  0.1207  0.0825  0.1708
56429W        W99341  34.318   1.798   7.612  0.1369 -0.2843 -0.2336
56430W        W99342   3.022   1.127   7.626 -0.1302  0.1379  0.0625
56431W        W99343   2.404   1.820   7.254  0.0661  0.2112  0.1891
56432W        W99344  34.589   0.642  10.055  0.0352  0.0233  0.0956
56433W        W99345   0.320   1.012   9.862 -0.2487 -0.0162  0.2008
56434W        W99346   0.555   2.880   9.732  0.2022 -0.0012 -0.0552
56435W        W99347   3.007   0.444   8.336 -0.2984  0.0464 -0.0995
56436W        W99348  33.582   2.245   7.494 -0.1324 -0.3679  0.0095
56437W        W99349   3.978   1.132   9.577 -0.0954 -0.1577 -0.0942
56438W        W99350   1.954   1.886   8.072  0.3501  0.0968  0.3052
56439W        W99351  34.143   2.804   8.623  0.0275 -0.3334  0.0468
56440W        W99352   2.198   3.586   9.760 -0.0636  0.1658  0.2003
56441W        W99353   0.965   2.267   7.983  0.2475 -0.0523  0.0414
56442W        W99354   1.262   2.332   9.539  0.2657 -0.2558  0.0370
56443W        W99355   3.177   2.024   9.763  0.0690 -0.3032 -0.1226
56444W        W99356   0.284  34.076   9.202 -0.2166  0.1625 -0.1536
56445W        W99357   1.319   1.131   8.567 -0.0657 -0.2013  0.0803
56446W        W99358   1.734   0.934   9.938  0.2470 -0.0627 -0.4591
56447W        W99359   3.290   1.526   9.341  0.0878  0.0401  0.3432
56448W        W99360  32.558  34.375  10.169 -0.3217 -0.1881  0.2110
56449W        W99361   1.538   0.679   8.624 -0.0467 -0.2030 -0.0727
56450W        W99362   4.479   4.420   7.254  0.0415 -0.1462 -0.1782
56451W        W99363   0.613   2.034   7.495  0.3745  0.0286  0.2416
56452W        W99364  34.469   2.454   8.559  0.4041  0.1264  0.0029
56453W        W99365   0.900   3.066   8.829 -0.0074 -0.3285  0.0882
56454W        W99366   1.323   0.241   9.589  0.1913 -0.1807 -0.0242
56455W        W99367   0.295   2.516   9.416  0.0414 -0.3048 -0.1276
56456W        W99368   0.427   2.841   8.030  0.1052  0.0015 -0.2621
56457W        W99369   0.303   4.732  10.180 -0.2376 -0.0537 -0.3052
56458W        W99370   3.588   0.615   9.475  0.0272  0.2502 -0.2082
56459W        W99371   1.995   3.801   7.666  0.3323  0.1365  0.0145
56460W        W99372   1.689   0.911   9.034 -0.0456 -0.0370 -0.0176
56461W        W99373   2.756   2.081   7.920  0.0548  0.1105 -0.2037
56462W        W99374  34.137   0.382  10.123  0.1156 -0.1710  0.1704
56463W        W99375   2.076   2.532   9.290  0.2431 -0.1072  0.0219
56464W        W99376   2.358   1.281   6.384  0.1158 -0.2941  0.0561
56465W        W99377   1.566   0.676   7.188 -0.0763  0.1588 -0.0990
56466W        W99378   2.581   1.119   9.436 -0.1227 -0.0365 -0.1185
56467W        W99379   3.049   1.906   8.450  0.3609 -0.0829  0.4398
56468W        W99380   0.793   2.059   8.479  0.4938 -0.1894  0.0765
56469W        W99381   4.771   1.429   7.661  0.0216  0.0246 -0.0550
56470W        W99382   0.193  34.465   9.981 -0.2721  0.0705 -0.1148
56471W        W99383   3.366   1.583   9.969 -0.1408 -0.0787 -0.1636
56472W        W99384   3.184   2.306   8.002 -0.2608  0.2826  0.1407
56473W        W99385   0.567   3.128   9.275  0.2398  0.1773  0.1402
56474W        W99386   2.966   2.246   9.262  0.0215  0.1629 -0.2560
56475W        W99387   2.534   1.760   8.327  0.0137  0.0476  0.0963
56476W        W99388   2.785   4.239  10.117  0.0453 -0.5727 -0.1998
56477W        W99389   4.384   2.362   9.428  0.2316 -0.1006 -0.0264
56478W        W99390   4.317  34.644   9.353  0.2911 -0.1486 -0.1828
56479W        W99391   4.250   0.580   8.105 -0.1143 -0.1345 -0.0486
56480W        W99392   2.232   2.333   6.042 -0.2844 -0.1562  0.1333
56481W        W99393   0.830   1.194   8.662 -0.0445  0.2546 -0.0665
56482W        W99394   1.397   0.342   8.191  0.0723 -0.1055  0.0422
56483W        W99395   1.807   2.956   7.786 -0.0452 -0.0388 -0.0594
56484W        W99396   2.661   2.235   8.465 -0.0253 -0.4229  0.0208
56485W        W99397   3.408   1.823   8.053 -0.2291  0.2314 -0.0323
56486W        W99398  34.038   0.845   9.211 -0.1081 -0.0575 -0.0448
56487W        W99399   0.960   1.299   7.592 -0.0436  0.2665  0.2043
56488W        W99400   0.643   1.136   6.922 -0.0862  0.0534  0.3578
56489W        W99401   4.738   2.740   9.420  0.0246 -0.2252  0.0214
56490W        W99402   0.403  33.921   7.321  0.0772 -0.0700  0.0379
56491W        W99403   0.532   2.750   8.973 -0.0856 -0.0660  0.2697
56492W        W99404   1.876   0.444   8.175 -0.5611 -0.2119  0.1837
56493W        W99405  34.194   4.211  10.230  0.0774  0.1238 -0.3844
56494W        W99406   1.926   2.044   9.106  0.0367  0.1433 -0.0034
56495W        W99407   1.618  34.019   9.916 -0.2108  0.1369 -0.0868
56496W        W99408   4.335   0.335   9.916  0.4086  0.0938  0.0027
56497W        W99409   2.689   1.238   8.998 -0.0567  0.1669  0.0689
56498W        W99410   1.004   2.365  10.274  0.1019 -0.0012 -0.0355
56499W        W99411   3.973   2.833   9.579  0.4395  0.1695 -0.0908
56500W        W99412   1.494   2.336  10.062  0.3794  0.2281 -0.0422
56501W        W99413   5.191   3.569  10.105 -0.0606  0.3403  0.3463
56502W        W99414   0.339  34.376   7.476 -0.0454  0.0438 -0.1884
56503W        W99415   1.510   1.991   7.813 -0.1334 -0.1904 -0.1769
56504W        W99416  34.066   2.772  10.133 -0.0079 -0.0755  0.2111
56505W        W99417  33.642   2.677   7.816  0.0209  0.0008 -0.1389
56506W        W99418   2.918   3.514   7.968 -0.2879 -0.0875 -0.0861
56507W        W99419   1.910   2.443   6.394 -0.0334  0.0736  0.1061
56508W        W99420   2.057   2.849   9.647 -0.0407  0.1893 -0.0469
56509W        W99421   1.768   0.359   7.686 -0.0900  0.1223 -0.2112
56510W        W99422  33.496   3.251   8.574 -0.3526  0.1800  0.0056
56511W        W99423  34.300   1.806   6.337 -0.1370 -0.0184 -0.2009
56512W        W99424   3.808   2.818   8.589  0.2922  0.0545 -0.1034
56513W        W99425  34.548   2.972   9.223  0.3160  0.1187 -0.0612
56514W        W99426   3.010   1.070   8.272  0.1848  0.0355  0.3118
56515W        W99427   4.803   1.505   8.704 -0.0538 -0.0226  0.3263
56516W        W99428   4.410   0.856   8.738  0.2483  0.2529 -0.1739
56517W        W99429   0.625   1.370   9.313 -0.5024 -0.1237  0.1769
56518W        W99430   0.195   0.159   7.122 -0.0055 -0.0879 -0.0598
56519W        W99431   4.240   3.092   7.224 -0.1260  0.2214  0.0017
56520W        W99432   0.814   1.305   8.135 -0.1453  0.0397 -0.1121
56521W        W99433   0.483   1.750   8.923  0.0476 -0.0953 -0.2000
56522W        W99434   2.193  33.512   9.823 -0.3777 -0.0143 -0.1609
56523W        W99435   2.297   2.678   7.817 -0.2174  0.0792  0.2224
56524W        W99436   2.639   0.973   8.571 -0.1615  0.2845 -0.2988
56525W        W99437   1.303   3.518   9.621 -0.0862 -0.0572  0.1742
56526W        W99438  34.508   1.717   9.935  0.1969 -0.2732 -0.0334
56527W        W99439   0.453   1.359  10.285  0.0422  0.2963  0.1459
56528W        W99440   0.801   0.622   8.595  0.0941 -0.0223 -0.0186
56529W        W99441   3.775   1.210   8.635 -0.1134  0.1675 -0.0575
56530W        W99442  34.320   1.672   8.971 -0.1153 -0.0017  0.3347
56531W        W99443   2.941   1.533   8.028  0.1222  0.4155 -0.1511
56532W        W99444   4.942   1.868   8.411 -0.2944 -0.0294  0.0910
56533W        W99445   3.180   2.799   9.162 -0.1616 -0.2264 -0.0611
56534W        W99446   1.274  34.355   9.697  0.0204 -0.1522 -0.0577
56535W        W99447   3.135   0.743   7.959  0.2160 -0.2342 -0.1394
56536W        W99448   2.740   1.993   6.884 -0.0987 -0.0832 -0.0031
56537W        W99449   0.048  34.011   7.695 -0.1297 -0.0888  0.1374
56538W        W99450   3.412   2.105   7.491  0.1385 -0.0730  0.0063
56539W        W99451   1.818   1.919   9.966  0.0844 -0.3272 -0.0945
56540W        W99452   0.376   0.026  10.516  0.0272 -0.1704 -0.0432
56541W        W99453  34.340   0.506   9.459 -0.1610 -0.1027  0.1599
56542W        W99454   2.864   3.215   5.458  0.0105 -0.0484  0.3409
56543W        W99455   0.252   1.042   9.374  0.2425 -0.0408 -0.2349
56544W        W99456   0.623   2.512   7.712  0.0502  0.2189 -0.1762
56545W        W99457   3.265   2.151   8.825 -0.1715  0.0671 -0.1712
56546W        W99458   3.770   2.101   8.931 -0.0085 -0.0971  0.1009
56547W        W99459   1.264   0.714   9.917 -0.1224 -0.0272  0.2275
56548W        W99460   4.141   3.713   8.398 -0.1194  0.1475  0.0894
56549W        W99461   1.788   3.749   9.561 -0.0394  0.2937 -0.1068
56550W        W99462   2.775   1.477   7.140  0.1227  0.5094 -0.0362
56551W        W99463   1.101   1.468   9.486  0.0313  0.0856  0.1601
56552W        W99464  34.626   2.929   8.354 -0.0945  0.0475 -0.0904
56553W        W99465   3.676   0.216   9.894 -0.2223 -0.0215 -0.0382
56554W        W99466   0.190   1.998   8.390  0.1284 -0.0793 -0.3655
56555W        W99467   0.347   3.529   9.782  0.1130  0.0639  0.0110
56556W        W99468  34.440   2.089   8.030  0.2347  0.0611 -0.0004
56557W        W99469   1.766   2.431   7.692 -0.2426  0.1613  0.0642
56558W        W99470   1.581   2.155   8.720 -0.1334 -0.4030  0.1572
56559W        W99471   2.783   2.957   8.789  0.0555  0.0502 -0.0943
56560W        W99472   2.264   1.392   8.492 -0.0568  0.2968  0.1511
56561W        W99473   4.276   2.930   9.079 -0.1503  0.1744  0.1778
56562W        W99474   1.508   0.148   8.647 -0.0132 -0.2299 -0.2911
56563W        W99475   3.541   0.490   6.719 -0.0565  0.2365  0.0505
56564W        W99476   1.328  34.672   7.660  0.0799 -0.1831  0.1605
56565W        W99477   0.489  34.209   9.679  0.0446 -0.0881 -0.1618
56566W        W99478  34.301   2.550   8.002 -0.1492 -0.2356 -0.3788
56567W        W99479   1.466   1.760   6.384 -0.1105  0.3048  0.1730
56568W        W99480  34.378  34.594  10.066  0.1075 -0.1801 -0.0295
56569W        W99481  34.337   1.589   8.090  0.1018 -0.1260  0.0972
56570W        W99482   1.013  34.044   8.161  0.1344 -0.0790  0.0544
56571W        W99483   3.776   3.745   8.019  0.0772  0.0910 -0.0231
56572W        W99484  34.350   1.468   9.467 -0.2112 -0.1408  0.2608
56573W        W99485  34.273   0.671   8.805 -0.2356  0.0049 -0.0273
56574W        W99486   2.116   1.356   8.009 -0.0914 -0.0033 -0.5386
56575W        W99487   2.664   5.204  10.717 -0.0828  0.1794  0.0503
56576W        W99488   2.265   0.375   7.767 -0.1546 -0.0519  0.0401
56577W        W99489   0.109   1.841   7.440 -0.2857  0.1589  0.0510
56578W        W99490  33.775   1.756   7.852  0.0374 -0.0100  0.1452
56579W        W99491   1.246   2.316   8.403  0.3287 -0.1343  0.1318
56580W        W99492   2.889   2.496   8.862  0.0210  0.1999  0.1343
56581W        W99493   3.170   3.933   8.542 -0.1118 -0.0762 -0.1100
56582W        W99494   1.533  33.238   9.346  0.0829  0.1328 -0.3520
56583W        W99495   3.200   2.983   7.863 -0.0530  0.0670  0.2600
56584W        W99496   3.810   1.805   7.704  0.2069 -0.0895 -0.1533
56585W        W99497   5.264  32.673   9.552 -0.1138  0.0009  0.0884
56586W        W99498   3.012   2.545   9.708 -0.2370 -0.2261  0.2256
56587W        W99499   3.809   1.532   9.082  0.0040 -0.0681 -0.4490
56588W        W99500   0.349   0.267   7.614  0.3858  0.0454  0.0569
56589W        W99501   3.474   0.667   8.874  0.2557 -0.0964  0.0482
56590W        W99502   0.774   2.312   6.985 -0.2570 -0.1835 -0.3891
56591W        W99503   0.671   1.875  10.439 -0.3611  0.1615  0.0723
56592W        W99504   1.248   1.778   8.208  0.2312 -0.0059  0.0447
56593W        W99505   2.460   1.667   8.849 -0.3014  0.1870 -0.4863
56594W        W99506   2.868   1.712   7.566 -0.2266  0.3258 -0.2939
56595W        W99507   4.004   0.886   7.787 -0.1781  0.0037 -0.1915
56596W        W99508   2.467   2.132   9.252  0.2410  0.4331  0.3024
56597W        W99509   1.807   3.701  10.121  0.0761 -0.1537  0.1426
56598W        W99510   3.680   1.568   9.559  0.1432 -0.1646  0.0279
56599W        W99511  33.893   0.362   8.591 -0.1174  0.1574  0.2410
56600W        W99512   4.050   2.230   8.509  0.0022  0.0382  0.1756
56601W        W99513   1.460   2.753   8.632  0.1641  0.0860  0.0354
56602W        W99514   4.154   1.791   9.388  0.1419  0.1304 -0.1735
56603W        W99515   1.213  34.544   8.294 -0.0664  0.2150  0.2609
56604W        W99516   3.785   1.336   7.600  0.0858 -0.1553  0.0157
56605W        W99517   3.470   1.996   9.330 -0.0744 -0.3451  0.1029
56606W        W99518   3.174   1.120   8.778  0.0417  0.1362 -0.0176
56607W        W99519   0.489   6.027   2.888  0.3303 -0.2297  0.2074
56608W        W99520   1.365   6.239   1.109 -0.0633 -0.1597 -0.1990
56609W        W99521   3.969   4.495   1.822  0.0544 -0.0223 -0.1997
56610W        W99522   4.078   5.973  30.920  0.1304 -0.2988 -0.3621
56611W        W99523  34.598   4.778   1.130  0.1655  0.1828 -0.0061
56612W        W99524   4.556   7.480   0.832 -0.1284 -0.4930 -0.0218
56613W        W99525   1.095   3.476   2.923  0.1357 -0.3171 -0.0133
56614W        W99526   4.214   6.395   2.445 -0.3266  0.0817 -0.2234
56615W        W99527   4.240   6.533   1.527  0.0539 -0.2665 -0.3254
56616W        W99528   0.969   6.275   0.161  0.2800  0.0769  0.2845
56617W        W99529   1.537   3.218   0.207  0.2433  0.0951 -0.2807
56618W        W99530   1.757   5.691   2.276  0.2368 -0.0924 -0.0920
56619W        W99531   0.664   4.425   0.167  0.0916 -0.1483  0.2316
56620W        W99532  34.426   4.665   1.621 -0.2029 -0.3302 -0.2323
56621W        W99533   3.537   4.466   1.610 -0.0742  0.0770  0.1680
56622W        W99534   2.543   3.562   1.237 -0.1583 -0.0569  0.0129
56623W        W99535   0.621   4.064   1.918  0.2493  0.2492  0.1925
56624W        W99536   3.169   5.750   1.427  0.1551 -0.2041  0.1296
56625W        W99537   2.824   6.474   1.090 -0.1469 -0.1612  0.1425
56626W        W99538   2.493   3.700   2.237  0.0415  0.0022 -0.4059
56627W        W99539   1.743   2.422   2.808  0.1003 -0.0467 -0.0588
56628W        W99540   2.578   6.862   1.756 -0.1269 -0.1886 -0.3312
56629W        W99541   0.434   5.470  31.733  0.0694 -0.4379 -0.0394
56630W        W99542   0.080   6.033   2.544 -0.1740 -0.0808  0.1424
56631W        W99543   2.233   4.135   1.225  0.0740 -0.2192 -0.0604
56632W        W99544   2.947   3.434   2.529 -0.2208  0.1464  0.1798
56633W        W99545   3.055   6.859   1.927  0.2157 -0.3957 -0.2221
56634W        W99546   2.588   6.287   1.910  0.0083 -0.2314 -0.2824
56635W        W99547   1.648   7.337   1.657  0.0412 -0.2253 -0.0414
56636W        W99548   2.040   5.141   3.940 -0.0225 -0.0145 -0.1441
56637W        W99549   0.640   6.180   2.070 -0.1330  0.3752 -0.1162
56638W        W99550  34.397   7.616   1.172  0.0451  0.1508 -0.2009
56639W        W99551   2.609   7.418   1.725 -0.1257  0.0296  0.0992
56640W        W99552   5.196   8.033   0.661 -0.0630 -0.1351  0.1782
56641W        W99553   5.458   6.687   3.678  0.0045  0.2169 -0.0795
56642W        W99554   3.372   6.952   3.984 -0.2820  0.1735 -0.3175
56643W        W99555   0.613   7.062   1.465 -0.0378  0.0081 -0.1638
56644W        W99556   3.377   7.264   3.433  0.0282  0.2775 -0.1417
56645W        W99557   2.218   6.598   3.102  0.0578 -0.0255 -0.0564
56646W        W99558   0.953   5.533   1.847  0.2188  0.1268  0.2581
56647W        W99559   1.978   5.526   1.850 -0.1635 -0.0531  0.0464
56648W        W99560   2.211   6.217   0.965 -0.1428 -0.3956 -0.2460
56649W        W99561   4.061   6.739   0.774 -0.2510 -0.2004 -0.0361
56650W        W99562   1.490   7.081   3.682 -0.1381 -0.2898 -0.2804
56651W        W99563   1.253   7.319   0.737 -0.1478  0.2075  0.2248
56652W        W99564   2.071   4.310   3.483 -0.1032 -0.1238  0.0703
56653W        W99565   1.823   7.782   1.223 -0.0827  0.1303  0.3761
56654W        W99566   4.775   5.050   1.421 -0.0234  0.0198  0.3816
56655W        W99567  34.623   5.114   0.631 -0.0171  0.0877  0.1409
56656W        W99568   4.552   6.018   0.177  0.0841 -0.1068  0.1012
56657W        W99569   1.719   3.376   1.615  0.0011  0.0206 -0.1301
56658W        W99570   1.168   8.117   2.682 -0.1044  0.1585 -0.2563
56659W        W99571   1.043   4.550   2.002 -0.2396  0.1513 -0.0703
56660W        W99572   4.433   5.923   3.061  0.2407  0.1311 -0.0092
56661W        W99573   1.732   6.049   0.906  0.1099  0.0968 -0.2117
56662W        W99574   3.074   4.264   0.827  0.1447 -0.0959  0.0546
56663W        W99575   1.584   6.178   2.476  0.3876 -0.4673  0.1440
56664W        W99576   0.291   4.133   0.365 -0.3650  0.1690 -0.0188
56665W        W99577   4.513   7.004  31.971 -0.1917  0.1138 -0.0021
56666W        W99578   3.877   7.013   1.777 -0.0895  0.2253  0.0999
56667W        W99579   2.744   7.274   1.296  0.2700  0.0889  0.0647
56668W        W99580  34.394   5.519   0.459  0.0822 -0.3837 -0.0182
56669W        W99581   0.731   4.804   4.876  0.2326  0.0732 -0.0526
56670W        W99582   1.135   4.897   2.396  0.2709 -0.0980  0.0372
56671W        W99583  34.678   3.762   0.192 -0.1579 -0.0476  0.3196
56672W        W99584   3.784   5.899   1.660  0.0436  0.2314  0.0381
56673W        W99585   1.488   5.784   2.731  0.0911  0.0613 -0.3898
56674W        W99586   2.961   3.716   2.048  0.0718 -0.0759  0.4847
56675W        W99587   1.059   6.129   4.559  0.0115  0.1419  0.2663
56676W        W99588   3.993   5.533   1.404  0.0120 -0.1074  0.4861
56677W        W99589   3.893   4.367   0.470  0.0345 -0.0341  0.1143
56678W        W99590   3.831   4.611   1.202  0.1618  0.0266  0.2544
56679W        W99591   2.582   3.934   3.285  0.2134 -0.0476 -0.2464
56680W        W99592   2.268   6.128   0.438 -0.0676  0.0143  0.3112
56681W        W99593   1.387   4.592   0.212  0.1476  0.2490 -0.1488
56682W        W99594   4.637   8.186   1.960  0.0586 -0.0850  0.0807
56683W        W99595   4.236   5.591  31.926  0.0429  0.0053  0.0361
56684W        W99596   1.389   6.517   1.539 -0.0543  0.1885 -0.0245
56685W        W99597   1.893   5.606   3.035 -0.2264 -0.0519 -0.0499
56686W        W99598   2.949   6.155   3.687  0.1672  0.3455  0.0001
56687W        W99599   0.375   7.506   0.232  0.0644 -0.1173 -0.1623
56688W        W99600   1.303   6.771   1.004  0.0331 -0.0158  0.1490
56689W        W99601   1.223   6.787   0.304 -0.2113 -0.1064 -0.1757
56690W        W99602   0.635   4.969   2.668 -0.1301 -0.1229  0.1158
56691W        W99603   1.327   5.704   1.010  0.1572  0.1318 -0.0591
56692W        W99604   3.732   4.067   2.006 -0.2369 -0.0100  0.0260
56693W        W99605   0.600   4.725   2.181 -0.0008 -0.1598  0.0163
56694W        W99606   4.060   2.277   1.111 -0.2140  0.1547  0.1039
56695W        W99607   1.775   6.532   0.898  0.4149  0.1841  0.1808
56696W        W99608   4.531   7.260   1.831  0.3120  0.0181 -0.1855
56697W        W99609   3.617   5.794   1.083 -0.0117 -0.2623  0.1109
56698W        W99610   3.554   6.806   0.548  0.1020 -0.1996  0.0582
56699W        W99611   0.150   5.216   2.712  0.2764  0.0978 -0.2574
56700W        W99612   0.760   5.017   1.423 -0.0147  0.2540  0.0159
56701W        W99613   1.337   4.223   3.101  0.0823  0.2457 -0.1113
56702W        W99614   1.091   4.036   2.748 -0.1126  0.2237 -0.0796
56703W        W99615   3.290   5.166   1.101 -0.0889  0.0362 -0.0057
56704W        W99616   0.817   4.073   0.523 -0.0310 -0.2690  0.1412
56705W        W99617   4.864   5.432   0.686 -0.1259  0.2278  0.1659
56706W        W99618   1.035   5.250   0.561  0.1461  0.0230  0.1648
56707W        W99619   0.332   8.057   0.801 -0.1521 -0.0401 -0.1980
56708W        W99620   3.259   4.287   3.348  0.0222  0.2646  0.3939
56709W        W99621   2.245   7.442   1.079 -0.0987  0.0589 -0.0994
56710W        W99622   5.505   6.929   3.218 -0.1304 -0.0911  0.0421
56711W        W99623   4.209   7.245   0.592  0.0725  0.1142 -0.0497
56712W        W99624   1.431   4.316   1.714  0.1419 -0.1870 -0.2285
56713W        W99625  33.644   5.474   0.866  0.2475 -0.0455  0.0581
56714W        W99626   1.155   7.006   1.583 -0.0862  0.1213 -0.0308
56715W        W99627   1.723   6.837   1.838  0.0666 -0.1437 -0.3240
56716W        W99628   0.131   4.365   1.683 -0.3009 -0.2135  0.0475
56717W        W99629   3.437   7.619   2.560 -0.0890  0.1118  0.0731
56718W        W99630   3.203   7.520   1.148 -0.0555 -0.4254 -0.0274
56719W        W99631   0.880   5.431   3.431 -0.1363  0.0628  0.2112
56720W        W99632   3.192   4.394   2.750  0.1610  0.1272 -0.1415
56721W        W99633   4.299   5.771   1.800  0.0561 -0.1193 -0.1174
56722W        W99634   3.088   5.973   2.005  0.2285  0.4887 -0.2966
56723W        W99635   1.156   3.146  31.853 -0.1836 -0.0996  0.0351
56724W        W99636   2.288   6.876   2.610  0.0793  0.3878 -0.0447
56725W        W99637   0.938   7.458   0.254  0.1068  0.2477  0.0534
56726W        W99638   1.070   5.272  31.667 -0.1240 -0.0055  0.0026
56727W        W99639   2.005   6.111   2.252  0.1897 -0.0718 -0.0484
56728W        W99640   2.586   4.842   1.468 -0.0203  0.0020 -0.2843
56729W        W99641   0.351   5.557   4.790  0.1527  0.1646 -0.2700
56730W        W99642   3.668   5.921   2.684 -0.1768 -0.1179  0.3716
56731W        W99643  34.631   5.273   1.289  0.0495 -0.1884 -0.3867
56732W        W99644   1.043   6.005   3.519  0.2379  0.0488  0.3395
56733W        W99645   3.349   4.160   1.221  0.3451  0.0684  0.2278
56734W        W99646   3.386   3.788   0.754  0.3287  0.0619  0.0026
56735W        W99647   1.689   5.314   2.611  0.0304  0.1038  0.0698
56736W        W99648   4.695   7.442   1.321  0.2271 -0.1420 -0.2730
56737W        W99649   2.645   4.244   0.526  0.1843 -0.1427  0.1917
56738W        W99650   4.269   3.092   0.642  0.3269 -0.1040 -0.1095
56739W        W99651   0.478   5.134   3.975  0.0195 -0.0772  0.0384
56740W        W99652   3.121   5.854   0.838 -0.2132  0.1226  0.1591
56741W        W99653   3.081   5.751   2.494 -0.0416  0.0614  0.2196
56742W        W99654   3.685   4.566  31.813 -0.2416 -0.2358 -0.1609
56743W        W99655   5.068   6.441   1.760 -0.2898 -0.0770 -0.1684
56744W        W99656   2.379   7.316   2.485 -0.0346 -0.3110 -0.2615
56745W        W99657   3.032   7.413   2.719 -0.0672 -0.2076  0.1303
56746W        W99658   3.457   6.928   1.529 -0.2015  0.1459  0.0049
56747W        W99659   2.129   2.691   2.696  0.0714  0.1079 -0.1728
56748W        W99660   1.374   7.300   1.238  0.3577 -0.0775 -0.0192
56749W        W99661   3.019   4.626   1.323 -0.0087  0.0488 -0.0379
56750W        W99662  32.646   8.111   1.182  0.1520 -0.3038 -0.0662
56751W        W99663   4.186   4.204   2.181 -0.0069 -0.1738  0.0216
56752W        W99664   4.521   3.252   1.036 -0.0958  0.2526  0.3250
56753W        W99665   1.408   3.595   2.301  0.2499 -0.0993  0.4209
56754W        W99666   4.358   7.246   2.334  0.0497  0.1030  0.0655
56755W        W99667   1.664   4.189   0.453 -0.0282 -0.0356 -0.0130
56756W        W99668   1.771   5.365   1.420  0.0355 -0.0768  0.1955
56757W        W99669  33.863   6.259   0.304  0.2008 -0.2243 -0.3822
56758W        W99670   3.061   4.232   1.763 -0.0317 -0.3096 -0.0681
56759W        W99671   1.034   5.006   1.928 -0.4098 -0.0697 -0.0651
56760W        W99672   0.175   7.382   5.034 -0.1023  0.0173 -0.0164
56761W        W99673   3.499   6.476   3.118  0.1046  0.1790 -0.2686
56762W        W99674   2.841   5.405   1.016  0.1712 -0.1875 -0.2482
56763W        W99675   2.837   5.419   3.280 -0.1990 -0.0548  0.0603
56764W        W99676   1.506   5.377   0.519 -0.0742  0.1928  0.2009
56765W        W99677   2.536   6.914  31.840  0.0419  0.0942  0.1682
56766W        W99678   2.618   5.873   1.577 -0.1718 -0.0578  0.0612
56767W        W99679   3.717   3.493   3.376  0.0033  0.0300  0.2090
56768W        W99680   1.347   7.193   2.824  0.0679  0.3663  0.1179
56769W        W99681  34.360   6.706   0.337  0.0274  0.0362  0.1048
56770W        W99682   3.869   6.507   1.949 -0.0849 -0.0464  0.2239
56771W        W99683   1.779   7.395   0.895  0.0370 -0.0445 -0.1758
56772W        W99684   4.357   4.811   2.818 -0.1886 -0.1857 -0.4495
56773W        W99685   0.731   5.325   2.325  0.2129 -0.0785 -0.2959
56774W        W99686   0.779   4.367   0.957  0.3617  0.1488  0.1419
56775W        W99687   0.287   5.173   2.240  0.0507  0.0062 -0.1158
56776W        W99688   3.791   5.129   0.928 -0.2957 -0.0149 -0.1026
56777W        W99689   3.806   5.476  31.623  0.0970 -0.0879 -0.2718
56778W        W99690   0.559   5.264   1.863 -0.0962  0.1048 -0.2648
56779W        W99691   2.528   3.730   2.815 -0.2465  0.0546  0.0378
56780W        W99692   1.158   6.177   2.818 -0.0213 -0.0015 -0.0898
56781W        W99693   3.550   5.430   2.536 -0.0811  0.0442 -0.0222
56782W        W99694   3.375   3.466   0.406  0.3081  0.0179  0.4539
56783W        W99695   3.495   6.263   2.292  0.0515  0.3104 -0.1873
56784W        W99696   1.481   4.659   2.067 -0.1643  0.0413  0.4912
56785W        W99697  33.937   4.945   1.169  0.0411  0.1758 -0.1638
56786W        W99698   3.920   6.266   2.875 -0.0791 -0.0125  0.0503
56787W        W99699   3.254   5.434   1.894  0.2239  0.0326  0.2230
56788W        W99700   1.750   6.965   1.170  0.0026  0.2991 -0.2012
56789W        W99701   3.499   6.804   2.261  0.2019 -0.0265 -0.3442
56790W        W99702   1.861   6.110   0.066  0.3609  0.0720 -0.0046
56791W        W99703   0.951   7.488   1.632  0.0627  0.2029 -0.2097
56792W        W99704   1.368   4.432   2.540  0.0535  0.3243  0.0680
56793W        W99705   1.876   5.025   0.913  0.0655  0.0606 -0.0678
56794W        W99706   2.037   4.394   1.590  0.2019 -0.0879 -0.0250
56795W        W99707   3.337   2.828   1.269  0.1071  0.0983  0.0275
56796W        W99708   3.005   5.239   2.870  0.0808  0.0015 -0.2073
56797W        W99709   2.496   4.791   2.432  0.1190 -0.2214  0.2172
56798W        W99710   2.091   6.559   1.830  0.0619 -0.0169 -0.1029
56799W        W99711   3.536   7.152   4.779 -0.0961  0.4387  0.0601
56800W        W99712   3.865   3.674   1.515  0.1354  0.0474 -0.2818
56801W        W99713   5.254   8.946   0.774  0.3097  0.1554  0.0700
56802W        W99714   3.380   5.578   3.049 -0.1467 -0.1123  0.0206
56803W        W99715  34.170   5.414   0.880  0.4161  0.1410  0.0245
56804W        W99716   0.347   5.735   2.143  0.2298  0.3336 -0.0947
56805W        W99717   0.867   5.730   0.568 -0.0956  0.1558 -0.4043
56806W        W99718   2.050   4.009   2.012  0.1433 -0.0552  0.0122
56807W        W99719   1.066   5.789   1.434 -0.0655  0.1115  0.0107
56808W        W99720   0.893   7.051   1.038  0.2418 -0.0391 -0.1891
56809W        W99721   0.842   4.189   3.235  0.2169  0.0579 -0.0571
56810W        W99722   3.845   3.601   0.114 -0.1297 -0.0625 -0.0343
56811W        W99723   2.442   6.847   1.253  0.2397  0.0458  0.0354
56812W        W99724   3.145   3.365   1.614  0.0575  0.1002 -0.2885
56813W        W99725   3.993   5.662   3.050  0.2306 -0.1029 -0.0189
56814W        W99726   2.965   6.259   1.515  0.3464 -0.0313 -0.0294
56815W        W99727   4.112   3.864   2.567  0.0537 -0.0467  0.0887
56816W        W99728   1.565   4.118   2.134 -0.1168 -0.0094  0.0072
56817W        W99729   4.784   5.613  31.848 -0.2463  0.1496  0.1138
56818W        W99730   0.959   5.118   3.088  0.1749  0.1504 -0.0547
56819W        W99731   3.858   7.909   2.769 -0.0374  0.1352 -0.1489
56820W        W99732   1.753   5.414   3.553  0.1502  0.1106 -0.2753
56821W        W99733   3.392   3.862   1.653  0.2227 -0.0439  0.1895
56822W        W99734   0.724   3.441   0.056  0.1487 -0.1994 -0.1320
56823W        W99735   1.009   5.744   3.103  0.2352 -0.1121 -0.0199
56824W        W99736   4.491   6.375   1.096  0.4090  0.1241  0.2887
56825W        W99737   1.644   6.339   0.471  0.3039 -0.0215  0.0855
56826W        W99738   4.675   6.750   1.569  0.0676  0.0514  0.3201
56827W        W99739   2.147   5.836   2.706  0.3012  0.2803 -0.1321
56828W        W99740   3.450   4.690   0.819 -0.3155 -0.0123  0.0654
56829W        W99741   1.326   5.938   0.562 -0.1265  0.1515 -0.2107
56830W        W99742   2.202   4.276   0.792  0.1204 -0.1016  0.0322
56831W        W99743   0.168   3.760   1.829  0.2108  0.3701 -0.0837
56832W        W99744   3.167   5.184   2.314  0.2100 -0.2138 -0.0665
56833W        W99745   2.892   4.507   2.191  0.3180  0.1167  0.3292
56834W        W99746   2.394   5.360   1.473 -0.2070  0.0242 -0.1875
56835W        W99747   4.435   5.141   0.033 -0.1837  0.1807 -0.0123
56836W        W99748   3.109   4.788   3.071 -0.2912 -0.2285  0.1349
56837W        W99749  33.987   4.396   2.755 -0.2304 -0.2485 -0.2790
56838W        W99750   4.330   7.730   2.928  0.0938 -0.0181  0.1252
56839W        W99751   5.020   2.377   0.531 -0.2049  0.0295 -0.0573
56840W        W99752   3.534   5.455   0.647  0.1107 -0.0673 -0.0941
56841W        W99753   3.980   5.337   0.434 -0.0473 -0.2082  0.2313
56842W        W99754   2.497   4.487   0.022 -0.1410 -0.0268 -0.2588
56843W        W99755   1.672   4.718   1.239  0.0102 -0.0422  0.1229
56844W        W99756   3.562   5.980   3.212 -0.1000 -0.1995 -0.0018
56845W        W99757   2.309   4.782   0.603  0.0974  0.2958 -0.1401
56846W        W99758   2.873   4.965   1.896 -0.0664  0.1251  0.2923
56847W        W99759   1.747   7.939   0.554  0.0263  0.1628  0.0561
56848W        W99760   2.534   6.638   2.237  0.2839 -0.0073 -0.0152
56849W        W99761   2.866   4.898   0.811  0.0681 -0.0604 -0.1124
56850W        W99762  34.511   5.122   1.857 -0.0130  0.1004  0.2443
56851W        W99763   1.816   6.448   4.418  0.1417 -0.3205 -0.0738
56852W        W99764   1.797   5.508   0.911  0.2379  0.1866 -0.0631
56853W        W99765   1.439   5.596  31.554 -0.0545  0.1275  0.1552
56854W        W99766   3.054   6.125   2.844 -0.0659 -0.0682  0.0828
56855W        W99767   2.423   6.057   3.931  0.1169 -0.1277 -0.3334
56856W        W99768   3.084   4.722  30.858 -0.0492  0.1449  0.0027
56857W        W99769   5.217   3.772   2.483  0.0667  0.0283 -0.0574
56858W        W99770   0.777   7.993   1.632  0.1043  0.1964 -0.1729
56859W        W99771   3.107   3.681   1.172 -0.0026  0.0642 -0.0193
56860W        W99772   2.030   7.780   2.536 -0.4214 -0.0612 -0.0173
56861W        W99773   0.254   4.709   0.227 -0.2748  0.0418 -0.2688
56862W        W99774   1.184   5.406   2.660  0.0595  0.4281 -0.2266
56863W        W99775   2.207   3.354   3.699 -0.0411 -0.0247  0.1889
56864W        W99776   2.748   5.600   1.963 -0.1889 -0.2237 -0.0356
56865W        W99777   1.416   5.632   1.771 -0.0511  0.2229  0.0686
56866W        W99778   4.261   5.891   2.593  0.1760 -0.1518 -0.1849
56867W        W99779   2.589   6.911   3.409 -0.0474  0.0100  0.1412
56868W        W99780   0.401   4.660   1.202  0.0709  0.1363  0.2182
56869W        W99781   3.856   6.665   2.604 -0.0952  0.2445  0.1725
56870W        W99782   3.482   6.997  31.814  0.0470 -0.0753 -0.0156
56871W        W99783   1.852   5.806   0.503  0.1215 -0.2086 -0.3168
56872W        W99784   0.395   4.583   3.614 -0.1643  0.3000 -0.1157
56873W        W99785   2.494   4.635   1.904  0.0627  0.0898 -0.0139
56874W        W99786   3.529   5.744   2.142  0.2710  0.0938  0.0891
56875W        W99787   1.198   4.321   1.258 -0.0976  0.2715 -0.2147
56876W        W99788   2.108   7.075   1.551 -0.2027 -0.1948 -0.3092
56877W        W99789   0.348   6.792   5.539  0.1657  0.0097  0.1874
56878W        W99790   2.111   6.082   3.142  0.3860 -0.0123 -0.4715
56879W        W99791  34.201   6.648   0.902 -0.2691 -0.0157 -0.2157
56880W        W99792   3.384   6.326   1.153  0.0152 -0.0354  0.0238
56881W        W99793   2.912   7.073   0.826 -0.1344  0.3032 -0.2459
56882W        W99794   3.625   7.535   3.012  0.0066 -0.0535 -0.2914
56883W        W99795   2.612   3.399   1.772  0.1004 -0.0671 -0.1703
56884W        W99796   0.916   6.477   1.187 -0.2055 -0.1438  0.1379
56885W        W99797  32.879   5.804  31.424  0.0790 -0.1378  0.2838
56886W        W99798   2.976   7.135  31.941 -0.1201 -0.0711 -0.0374
56887W        W99799   2.123   7.557   1.713  0.1750  0.0163  0.2988
56888W        W99800   4.524   6.847   3.338 -0.0117 -0.4359 -0.0349
56889W        W99801   3.839   4.159   0.036  0.0460 -0.0581 -0.3413
56890W        W99802   5.334   5.171   0.931  0.1379  0.0571 -0.2490
56891W        W99803   4.293   6.309   0.667 -0.0712 -0.0911  0.2398
56892W        W99804   3.593   7.783   3.506 -0.0656 -0.0500  0.0208
56893W        W99805   0.430   4.507   0.679  0.0260  0.0092  0.0407
56894W        W99806   2.194   4.139  31.818  0.0268 -0.0617 -0.1018
56895W        W99807   1.977   4.553   2.104  0.1197 -0.0730 -0.0277
56896W        W99808   3.744   2.935   2.789 -0.0721  0.1850 -0.2130
56897W        W99809  34.693   6.331   4.318 -0.0577 -0.0612 -0.3464
56898W        W99810   2.740   7.772   1.312  0.2849  0.1282  0.1388
56899W        W99811   0.642   6.411   0.807  0.0631  0.0196  0.3584
56900W        W99812   1.610   5.072   1.748  0.1885 -0.2793  0.2593
56901W        W99813   3.297   3.531   3.119 -0.0585 -0.2332 -0.0127
56902W        W99814   1.503   7.458   0.372  0.0637  0.2220 -0.0984
56903W        W99815   3.846   4.170   1.365  0.1251 -0.1998  0.1739
56904W        W99816   1.645   5.970   1.443 -0.0748 -0.1076 -0.0849
56905W        W99817   1.454   5.909   3.266 -0.1203 -0.1105  0.0614
56906W        W99818   3.007   6.477   2.273 -0.1652  0.2095 -0.0180
56907W        W99819  34.630   4.572   0.665  0.4971 -0.0216 -0.3023
56908W        W99820   4.597   4.172   1.127 -0.2051  0.2376 -0.0114
56909W        W99821   0.434   5.213   3.243  0.0139 -0.2126  0.2084
56910W        W99822   3.612   5.067   3.879 -0.1357  0.0249 -0.0664
56911W        W99823   1.155   4.745   1.047 -0.1750  0.0514 -0.2188
56912W        W99824   4.369   4.016   1.760 -0.1228 -0.0929 -0.1312
56913W        W99825   2.291   5.761   2.203  0.0586 -0.0293 -0.1604
56914W        W99826   1.403   4.900   0.677  0.1422  0.5001 -0.1960
56915W        W99827   0.044   6.095   0.956 -0.2459 -0.1014 -0.1837
56916W        W99828   4.391   5.443   2.864  0.2555  0.0878  0.0075
56917W        W99829   2.969   4.300   0.101 -0.1887 -0.3796 -0.0801
56918W        W99830   2.920   7.199   3.722  0.2038  0.1558  0.1161
56919W        W99831   0.463   3.769   1.400 -0.0467  0.0450  0.2649
56920W        W99832   3.575   5.378   0.077 -0.1859 -0.1524 -0.0933
56921W        W99833   0.747   4.864   0.890  0.2164 -0.3126 -0.1033
56922W        W99834   2.620   4.509   0.960  0.2425  0.0006  0.0408
56923W        W99835   4.973   8.375   2.304 -0.3688 -0.1667  0.2531
56924W        W99836  34.466   4.115   0.560  0.3860  0.1845 -0.0795
56925W        W99837   5.013   6.461   1.311  0.2027 -0.0264 -0.3601
56926W        W99838   3.899   4.999   2.576 -0.0589 -0.1720  0.0156
56927W        W99839   1.083   7.602  31.448 -0.0133  0.1119  0.3154
56928W        W99840   3.932   6.929   1.206 -0.1494 -0.1391 -0.0533
56929W        W99841   3.324   6.525   2.662 -0.2031 -0.0637  0.0787
56930W        W99842   0.217   4.753   2.491 -0.1211 -0.0748 -0.0730
56931W        W99843   4.091   6.856   2.234  0.0117 -0.0878 -0.0305
56932W        W99844   3.643   5.105   2.122 -0.1200  0.1931 -0.0598
56933W        W99845   3.949   3.264   1.879  0.2170 -0.0536  0.2007
56934W        W99846   1.348   5.293   2.163  0.2853  0.2059 -0.0479
56935W        W99847  32.926   6.465   1.298  0.1730 -0.3391  0.0727
56936W        W99848   5.163   4.216   1.101  0.1888  0.0446 -0.2828
56937W        W99849   3.240   3.799   2.631 -0.0426  0.2502  0.3670
56938W        W99850   2.078   6.546  31.799  0.0309  0.0039 -0.1480
56939W        W99851   3.640   4.166   3.640  0.0015  0.1386 -0.1224
56940W        W99852   2.957   6.456   3.206  0.0043 -0.1865 -0.0568
56941W        W99853   2.587   6.567   3.787  0.1832  0.0039 -0.0729
56942W        W99854   1.401   5.173   1.059  0.0462  0.2862  0.1611
56943W        W99855   2.629   4.320   1.459  0.0813 -0.0504  0.1789
56944W        W99856   1.910   5.129   2.163  0.2030 -0.2234  0.0910
56945W        W99857   2.273   7.972   1.221 -0.1262 -0.2664 -0.1159
56946W        W99858   3.355   4.926   1.604 -0.0436 -0.1566  0.2229
56947W        W99859   2.963   5.285   1.500 -0.0529 -0.1136  0.0559
56948W        W99860   4.470   5.583   1.222  0.0709  0.0813 -0.1833
56949W        W99861   1.860   4.314   2.603  0.0242  0.1131  0.6706
56950W        W99862   5.303   5.649   0.719  0.0166  0.2143 -0.0979
56951W        W99863   1.861   3.902   0.835 -0.0834 -0.1688  0.2632
56952W        W99864   2.392   5.125   2.004 -0.3206 -0.0528 -0.2010
56953W        W99865   0.137   5.329   0.234 -0.1275 -0.1189 -0.1416
56954W        W99866  34.311   6.213  31.891  0.1836  0.4608 -0.0088
56955W        W99867  34.674   5.623   0.868 -0.0197 -0.0991  0.0213
56956W        W99868   1.677   2.916   2.551  0.1862  0.1618  0.0161
56957W        W99869   0.820   5.572   3.913 -0.2775  0.1233  0.1935
56958W        W99870   1.197   5.262   1.532 -0.5350  0.0161 -0.0687
56959W        W99871   0.737   4.843  31.908  0.1542  0.0066  0.1996
56960W        W99872   2.499   6.565   0.669  0.0340 -0.1983  0.1525
56961W        W99873   1.682   4.153   1.346 -0.1198  0.0263 -0.0241
56962W        W99874  34.138   4.492   1.062  0.0137 -0.1793  0.1511
56963W        W99875   3.351   6.939   0.972  0.0240 -0.1960  0.3133
56964W        W99876   3.700   7.289   0.196  0.3267 -0.0033  0.2548
56965W        W99877   2.864   3.823   1.568 -0.2316  0.3329 -0.3430
56966W        W99878   5.124   6.021   2.632  0.0300  0.2194 -0.0904
56967W        W99879  34.038   5.559  31.259  0.5393  0.2029 -0.1771
56968W        W99880   2.690   5.311   2.397  0.0839  0.0939 -0.2221
56969W        W99881   2.772   2.316   3.266 -0.0597 -0.0915 -0.2591
56970W        W99882  34.599   5.503  31.702 -0.3055 -0.0378  0.2995
56971W        W99883   2.408   4.343   2.364  0.0085 -0.1046  0.2117
56972W        W99884   3.000   6.741   1.430  0.1247 -0.2054 -0.1864
56973W        W99885   3.566   7.440   1.763  0.0538 -0.2630 -0.1228
56974W        W99886   2.441   5.059   1.037 -0.3036 -0.0628 -0.0971
56975W        W99887   2.057   6.365   3.704 -0.0045 -0.1420  0.3852
56976W        W99888  34.431   4.459   2.315  0.1939  0.2501 -0.2355
56977W        W99889   4.145   5.891   0.395  0.2965  0.2121  0.0692
56978W        W99890   1.358   6.619   2.504 -0.0087 -0.4471  0.2570
56979W        W99891   4.926   6.903   0.986  0.2708  0.0197 -0.1006
56980W        W99892   4.315   4.460   1.354 -0.1031 -0.1493  0.1300
56981W        W99893   0.931   5.359   1.051 -0.0971 -0.1942 -0.0455
56982W        W99894   0.273   3.366   2.072 -0.1458  0.3561 -0.1003
56983W        W99895  34.122   5.131   3.923 -0.1881  0.0893  0.1700
56984W        W99896   3.532   5.386   1.463  0.3529 -0.0020 -0.1281
56985W        W99897   0.315   3.995   0.897 -0.2746 -0.1009  0.0616
56986W        W99898   2.150   4.638   1.157 -0.1893 -0.1872 -0.2187
56987W        W99899   3.317   7.890   1.525 -0.0531 -0.4467  0.3161
56988W        W99900   1.185   6.080   1.825 -0.1563  0.1334 -0.0318
56989W        W99901   0.950   4.766   0.377  0.1265 -0.1049  0.0232
56990W        W99902   2.564   4.997   2.900  0.1841 -0.2802 -0.0496
56991W        W99903   2.392   6.424   1.465 -0.0006  0.1984 -0.0198
56992W        W99904   2.655   6.122   2.433  0.1796 -0.1449 -0.0951
56993W        W99905   3.325   4.562   0.356 -0.1675  0.1961 -0.1983
56994W        W99906   3.683   4.917   0.450  0.1805  0.1533 -0.0431
56995W        W99907   4.493   8.104   3.362 -0.2336  0.2417  0.4814
56996W        W99908   3.650   7.058   3.076  0.3038 -0.0305 -0.1658
56997W        W99909   5.331   5.190   0.412 -0.0298  0.0199 -0.2826
56998W        W99910   1.065   3.957   2.119 -0.2770 -0.0655  0.1053
56999W        W99911   1.665   4.445   0.889 -0.0531 -0.0076  0.1513
57000W        W99912   0.496   5.731   0.175  0.0260 -0.0996 -0.1212
57001W        W99913   3.291   4.140   2.234 -0.0995 -0.2009 -0.0417
57002W        W99914   2.066   4.948   1.592 -0.2459  0.0543 -0.0866
57003W        W99915   2.112   4.372   0.296 -0.3359 -0.4355 -0.0184
57004W        W99916   2.712   6.545   2.775  0.0617 -0.0042  0.3307
57005W        W99917   3.299   6.458   1.831  0.3102 -0.0016  0.1648
57006W        W99918   2.774   7.258   8.637  0.1708  0.1244  0.1453
57007W        W99919   1.099   3.980   3.619  0.0846  0.4499  0.1299
57008W        W99920   1.791   3.387   3.384 -0.1827  0.0251  0.2671
57009W        W99921   2.893   5.860   4.562 -0.0598 -0.2507 -0.2111
57010W        W99922  34.648   4.042   5.827  0.0313 -0.0914  0.1350
57011W        W99923   2.547   7.400   4.103  0.2185  0.0373  0.2741
57012W        W99924   0.877   3.837   6.857 -0.0758 -0.3182 -0.1862
57013W        W99925   2.167   6.258   5.501 -0.1802 -0.0247 -0.2444
57014W        W99926   3.235   7.214   6.617 -0.3332  0.0900  0.2044
57015W        W99927   3.027   5.528   5.609 -0.2380  0.0882 -0.2097
57016W        W99928   0.947   4.503   6.038  0.0854  0.0347  0.0818
57017W        W99929   1.775   7.018   5.946 -0.0370  0.2184  0.0319
57018W        W99930  34.561   1.760   3.664 -0.1243 -0.3081 -0.1684
57019W        W99931  34.405   4.537   5.549  0.0616 -0.1378 -0.2145
57020W        W99932   2.369   6.599   6.530 -0.0078 -0.0935  0.2809
57021W        W99933   1.022   4.625   5.370 -0.2224 -0.0809 -0.1683
57022W        W99934   1.014   4.172   5.590 -0.0666 -0.1773  0.0784
57023W        W99935   1.126   4.012   6.195  0.0723 -0.1139 -0.0881
57024W        W99936   1.934   7.913   4.268 -0.2637 -0.2168  0.0359
57025W        W99937   1.603   4.316   6.939  0.0183 -0.0367 -0.1247
57026W        W99938   2.556   4.523   7.990  0.0874 -0.1506  0.0907
57027W        W99939   3.227   6.696   4.887  0.1999  0.0168 -0.1471
57028W        W99940   0.775   4.922   3.646  0.2425 -0.1300 -0.0793
57029W        W99941   0.328   4.689   7.263 -0.3197  0.3819 -0.1444
57030W        W99942   1.443   5.946   6.384 -0.0024  0.3266  0.0240
57031W        W99943   2.937   4.477   4.143  0.2133 -0.3930 -0.2447
57032W        W99944   3.291   5.882   5.363  0.0172 -0.0526  0.1412
57033W        W99945   2.149   6.911   4.826  0.1396 -0.1198  0.1551
57034W        W99946   2.102   7.660   5.395 -0.3967  0.2932  0.1393
57035W        W99947   1.811   4.496   7.358 -0.0251  0.1832  0.0008
57036W        W99948   0.826   5.687   5.336  0.1350  0.0385  0.1970
57037W        W99949  34.383   7.396   4.958 -0.0625 -0.2119 -0.0095
57038W        W99950   1.235   7.744   5.645  0.1136 -0.0254  0.0322
57039W        W99951   4.215   7.340   4.054 -0.2840  0.1896  0.0062
57040W        W99952   3.322   5.477   7.382 -0.0873  0.0659 -0.0150
57041W        W99953   1.416   7.537   7.620  0.2834 -0.0814 -0.0993
57042W        W99954   0.050   5.899   5.025  0.1942  0.1714  0.1223
57043W        W99955   2.911   6.800   6.572 -0.1808  0.1289  0.1935
57044W        W99956   1.477   7.741   6.597  0.1378  0.2182 -0.0192
57045W        W99957   1.458   4.847   7.022 -0.3005 -0.0947  0.2517
57046W        W99958   1.355   5.069   5.403  0.2429 -0.3612 -0.0963
57047W        W99959   0.002   5.888   3.991  0.1761 -0.3954  0.2656
57048W        W99960   2.595   6.016   2.988  0.0059 -0.1284  0.1746
57049W        W99961   2.224   6.909   9.416  0.1126  0.1687  0.1640
57050W        W99962   2.142   5.771   5.243 -0.2997 -0.2911  0.1357
57051W        W99963   3.363   3.472   7.165  0.1794  0.1274  0.1265
57052W        W99964   2.505   5.503   2.890 -0.0861 -0.3738  0.0595
57053W        W99965   2.999   5.656   4.988 -0.1896  0.0467 -0.0250
57054W        W99966   1.992   3.653   2.935 -0.0350 -0.2852  0.0357
57055W        W99967   2.721   5.000   3.394 -0.4356 -0.3921  0.0646
57056W        W99968   1.875   4.226   4.363  0.0950  0.1849  0.4729
57057W        W99969   2.309   8.000   4.930 -0.0982  0.0549  0.0598
57058W        W99970   1.136   4.288   7.160 -0.0579  0.0748 -0.1512
57059W        W99971   2.277   6.316   6.164  0.1407 -0.1180  0.2627
57060W        W99972   2.204   4.741   3.064 -0.2341 -0.1905  0.1293
57061W        W99973   2.302   5.000   6.518 -0.0818  0.0398 -0.0421
57062W        W99974   0.819   5.567   7.150 -0.0273 -0.1910  0.0368
57063W        W99975   2.357   5.856   5.759 -0.1709  0.0502  0.0767
57064W        W99976   3.983   6.690   3.141 -0.1327  0.0230  0.1304
57065W        W99977   5.246   6.336   4.052  0.1684  0.3366  0.0033
57066W        W99978   3.137   6.810   3.537  0.2487  0.0169 -0.0705
57067W        W99979   2.530   5.412   5.817  0.3768 -0.1193  0.1282
57068W        W99980   0.994   4.752   7.029 -0.0338  0.0336 -0.1213
57069W        W99981   0.724   5.000   7.505  0.0065  0.1133  0.0865
57070W        W99982   1.255   3.423   3.637 -0.1813 -0.0680 -0.3308
57071W        W99983   2.757   4.766   8.356  0.0379  0.2153 -0.1248
57072W        W99984  34.239   6.096   6.865  0.0769 -0.0161  0.2721
57073W        W99985   2.357   3.964   4.314  0.1693 -0.1679 -0.2747
57074W        W99986   1.841   6.242   6.502 -0.0611  0.2770 -0.3187
57075W        W99987   2.782   5.940   5.410  0.0094  0.0056 -0.0877
57076W        W99988   2.507   6.294   3.384 -0.3339  0.0662 -0.2013
57077W        W99989   2.531   5.925   4.948  0.0655  0.0557 -0.2351
57078W        W99990   1.327   3.764   5.447  0.1452 -0.1266 -0.2284
57079W        W99991   1.821   4.873   2.615  0.2982  0.1135  0.2149
57080W        W99992   1.153   4.443   4.852  0.0122 -0.0520  0.0188
57081W        W99993   4.097   6.388   6.616 -0.4369 -0.0578  0.0821
57082W        W99994   3.130   6.527   3.971 -0.4365 -0.0104 -0.1477
57083W        W99995   1.981   6.847   6.432  0.0723 -0.0145  0.0103
57084W        W99996   1.571   4.421   7.926 -0.0658  0.0778  0.1033
57085W        W99997   2.288   7.082   6.769  0.0573  0.1983  0.1909
57086W        W99998   0.500   7.893   3.454  0.1262  0.3294  0.0460
57087W        W99999   1.161   6.197   5.162 -0.2680  0.0040 -0.2753
57088W        W    0   1.499   5.768   5.036 -0.1294 -0.1581 -0.5266
57089W        W    1  34.617   3.686   6.607  0.0268 -0.0261 -0.0773
57090W        W    2   1.464   6.256   6.831 -0.2730  0.0726  0.1766
57091W        W    3   3.651   4.690   3.470  0.1331  0.1128  0.0212
57092W        W    4   0.191   4.420   6.277  0.0114 -0.1728  0.1163
57093W        W    5   2.643   4.569   5.124 -0.0942  0.0780  0.0189
57094W        W    6   0.829   6.434   4.889 -0.2454  0.1071  0.2464
57095W        W    7   4.160   7.969   4.138 -0.0414 -0.4192 -0.0624
57096W        W    8   3.466   5.464   4.259  0.2933  0.0758 -0.3753
57097W        W    9   3.163   6.680   4.414 -0.3336 -0.1555  0.2722
57098W        W   10   0.293   4.938   6.474 -0.0866  0.1548 -0.0634
57099W        W   11   0.334   5.562   5.326  0.0954  0.0529  0.2534
57100W        W   12   1.513   3.794   7.818 -0.3189 -0.1447  0.3509
57101W        W   13  33.951   4.199   6.409 -0.0031 -0.1841 -0.1764
57102W        W   14   1.995   5.448   6.995  0.2403  0.0325  0.1432
57103W        W   15   0.819   3.949   4.667  0.1429 -0.2209  0.3889
57104W        W   16   1.960   5.558   5.711 -0.0256  0.3242 -0.1496
57105W        W   17   1.929   4.623   3.961 -0.1171 -0.1612  0.0244
57106W        W   18   1.621   5.404   4.623 -0.0699 -0.2175 -0.0093
57107W        W   19   4.125   4.104   8.863  0.0337 -0.2080 -0.0593
57108W        W   20   4.436   6.727   5.105 -0.2271  0.1350 -0.0276
57109W        W   21   3.930   7.784   7.049 -0.0443  0.1405 -0.1412
57110W        W   22   1.111   7.120   5.227  0.3284 -0.0260 -0.0661
57111W        W   23  34.557   4.012   6.979  0.2961  0.0153 -0.1054
57112W        W   24   0.545   3.954   2.795  0.1035  0.1202 -0.0678
57113W        W   25   0.729   7.634   5.542 -0.0260 -0.1111  0.1518
57114W        W   26   1.148   5.665   4.330 -0.1974 -0.1644 -0.1239
57115W        W   27   0.441   4.935   4.445 -0.0118  0.2300 -0.0978
57116W        W   28   3.656   7.737   5.821  0.1190 -0.3711 -0.1642
57117W        W   29   2.256   6.033   6.683 -0.5483 -0.0146 -0.0319
57118W        W   30   0.575   6.338   6.399 -0.0337 -0.1820  0.1556
57119W        W   31   2.151   2.742   7.343 -0.0770 -0.0521  0.2550
57120W        W   32   3.344   4.381   8.338 -0.2068  0.3092 -0.0814
57121W        W   33   2.221   4.979   5.763 -0.0171  0.3664 -0.0653
57122W        W   34   0.954   4.019   4.120 -0.2367 -0.1560 -0.3205
57123W        W   35   3.496   7.718   6.806  0.0190  0.3002 -0.1672
57124W        W   36   1.895   7.711   4.760  0.1671 -0.1475 -0.0096
57125W        W   37  34.507   4.023   5.374  0.0124  0.0999  0.1427
57126W        W   38   3.100   7.284   4.293 -0.0486 -0.0756  0.1898
57127W        W   39   2.830   3.602   5.748  0.2223  0.2662 -0.2680
57128W        W   40   0.976   7.196   9.391  0.1403 -0.0688  0.0864
57129W        W   41   1.361   4.905   7.564  0.1716  0.0665 -0.0737
57130W        W   42   1.570   4.985   4.050  0.3987  0.2281 -0.1595
57131W        W   43   0.922   6.847   7.238  0.0643 -0.1772 -0.1130
57132W        W   44   2.235   4.823   3.603 -0.1666  0.1269  0.1102
57133W        W   45   3.769   5.392   3.402 -0.1316 -0.0058 -0.1915
57134W        W   46   1.791   5.115   6.674 -0.0429 -0.0076  0.2931
57135W        W   47   3.758   6.181   4.746  0.1176 -0.4204  0.0209
57136W        W   48   2.225   4.143   3.027  0.0435  0.1971  0.2818
57137W        W   49   3.400   3.104   2.479 -0.0101  0.1032  0.0626
57138W        W   50   0.753   5.976   7.473 -0.0570 -0.3176 -0.0373
57139W        W   51   2.372   6.249   4.423 -0.3684  0.0823 -0.4462
57140W        W   52   1.504   7.536   7.094  0.0245 -0.2831  0.1923
57141W        W   53   2.075   3.758   3.423  0.0036 -0.0892 -0.0744
57142W        W   54   3.470   6.266   3.707 -0.0208 -0.0022  0.1948
57143W        W   55   2.160   5.388   6.184  0.1859 -0.0644  0.1489
57144W        W   56   3.763   5.487   7.784  0.2525  0.1801  0.0691
57145W        W   57   3.185   7.822   5.526 -0.0378 -0.1949 -0.4172
57146W        W   58   1.165   3.589   6.475 -0.2031  0.0686 -0.0991
57147W        W   59   1.561   4.306   3.516  0.0526  0.2014 -0.3114
57148W        W   60   2.615   4.998   6.130 -0.4188  0.1510  0.1451
57149W        W   61   1.635   7.456   4.352  0.1582  0.0738  0.0017
57150W        W   62   2.252   4.593   6.166  0.1796  0.2497 -0.0764
57151W        W   63   2.598   4.565   5.667  0.0937  0.1073  0.3727
57152W        W   64   0.746   3.417   6.658  0.2585  0.2268 -0.1769
57153W        W   65   2.035   4.542   7.959 -0.1282 -0.2498  0.1845
57154W        W   66   3.196   5.865   4.119 -0.0999  0.1358  0.0081
57155W        W   67   1.815   4.604   6.497  0.0959  0.3069 -0.2132
57156W        W   68   2.233   5.180   2.566 -0.0283 -0.2587 -0.4154
57157W        W   69   1.695   3.312   7.437  0.0514 -0.3975  0.1256
57158W        W   70   2.309   4.188   7.624 -0.0988  0.0627  0.0887
57159W        W   71   1.163   6.211   7.825 -0.0421 -0.0148  0.1073
57160W        W   72   2.077   5.227   7.960 -0.2628  0.0635  0.1565
57161W        W   73   1.581   5.443   4.086 -0.0109 -0.1507 -0.1977
57162W        W   74   1.883   4.923   6.170  0.1017 -0.0944 -0.4013
57163W        W   75   2.651   4.470   3.313 -0.0227  0.1812  0.1059
57164W        W   76   0.793   6.908   4.749 -0.4925  0.1104 -0.1719
57165W        W   77   1.087   5.186   4.046 -0.0378 -0.2192 -0.0227
57166W        W   78   1.463   4.297   5.340 -0.3598  0.1281 -0.0386
57167W        W   79   2.533   6.697   6.042 -0.1694 -0.2469  0.0097
57168W        W   80   2.257   6.329   2.694  0.0328 -0.0684 -0.0489
57169W        W   81   1.975   5.584   7.533  0.1202 -0.3848 -0.0661
57170W        W   82   2.153   6.718   4.072 -0.1106  0.3103  0.0840
57171W        W   83   3.192   3.689   5.302  0.0219 -0.0271 -0.0398
57172W        W   84   0.423   6.738   5.067  0.1156  0.0103 -0.3110
57173W        W   85   2.268   5.263   3.308 -0.2183 -0.1191  0.1918
57174W        W   86   1.262   4.689   3.816 -0.1556 -0.0567  0.0711
57175W        W   87   3.126   4.744   3.568  0.3186  0.0527 -0.4076
57176W        W   88   2.606   6.458   5.273 -0.1815  0.1594  0.0459
57177W        W   89   1.350   4.567   5.736  0.0695  0.0536 -0.1455
57178W        W   90   1.581   3.666   6.179  0.2952  0.3026  0.1382
57179W        W   91   0.136   5.983   5.568  0.1057 -0.0775  0.1700
57180W        W   92   1.731   4.394   8.467 -0.4000 -0.4040 -0.1004
57181W        W   93   2.183   4.469   4.837 -0.1820 -0.1173 -0.2500
57182W        W   94   2.399   5.670   7.204  0.0460 -0.0195  0.2108
57183W        W   95   1.051   6.318   7.110  0.1675  0.0662 -0.1422
57184W        W   96   0.471   4.101   3.601 -0.0585  0.0498 -0.1484
57185W        W   97   1.490   4.064   5.795 -0.1392 -0.4512  0.1567
57186W        W   98   2.170   4.586   5.391  0.0411  0.3977 -0.1538
57187W        W   99   1.715   5.963   5.520 -0.3243 -0.0209 -0.3305
57188W        W  100   2.122   6.636   5.817 -0.0807  0.0010 -0.1255
57189W        W  101   0.333   5.131   5.051 -0.0381 -0.3705  0.0485
57190W        W  102   1.271   5.578   5.455 -0.1755  0.2197 -0.2767
57191W        W  103   1.143   5.591   6.399  0.0401  0.2753  0.2234
57192W        W  104   3.063   4.773   7.975  0.2278  0.1530 -0.2100
57193W        W  105   0.655   4.107   5.989 -0.0661 -0.0351  0.1020
57194W        W  106   0.256   4.028   4.987 -0.2675 -0.1082  0.1039
57195W        W  107   0.395   4.035   5.579 -0.3082 -0.0279  0.1095
57196W        W  108   3.079   5.172   5.961  0.1595 -0.1328  0.0225
57197W        W  109   2.107   3.791   6.438 -0.1172 -0.2199  0.0239
57198W        W  110   1.722   7.950   7.394  0.3385  0.1908 -0.1001
57199W        W  111   1.680   3.501   5.677  0.3597 -0.2191  0.0269
57200W        W  112   4.693   6.297   3.730 -0.3200  0.3266  0.1207
57201W        W  113   2.012   4.706   6.948  0.1006 -0.0690  0.0751
57202W        W  114   1.830   6.207   5.121  0.2686  0.2464 -0.1592
57203W        W  115   0.665   5.486   7.603 -0.2551  0.0475 -0.3016
57204W        W  116   1.886   4.936   4.440 -0.0572 -0.0505  0.1869
57205W        W  117   1.114   4.263   6.675 -0.0906  0.0850 -0.1925
57206W        W  118   2.406   6.175   7.123  0.4434 -0.1054 -0.0638
57207W        W  119   1.473   6.279   4.783 -0.0488 -0.3776 -0.1744
57208W        W  120   1.906   5.801   6.336 -0.1701  0.1328 -0.1341
57209W        W  121   2.877   3.966   4.875 -0.1624  0.1275  0.4156
57210W        W  122   4.533   7.084   4.308  0.3158 -0.0338 -0.0942
57211W        W  123   2.095   3.559   5.408  0.0273  0.1804  0.1237
57212W        W  124   3.174   4.635   5.326  0.1556 -0.3502  0.1870
57213W        W  125   3.002   5.873   3.277  0.1393 -0.1807  0.5178
57214W        W  126   2.811   3.664   7.050 -0.1217 -0.1675 -0.3059
57215W        W  127   0.790   3.514   6.162 -0.1493  0.2491  0.3890
57216W        W  128   3.560   6.374   4.196  0.1202 -0.1048 -0.2123
57217W        W  129  34.333   3.302   6.618 -0.1991 -0.0207 -0.0228
57218W        W  130   2.752   6.507   6.952  0.0177  0.4678  0.3394
57219W        W  131   0.770   5.467   6.657  0.0040 -0.2836 -0.0007
57220W        W  132   3.051   3.836   3.525 -0.3065  0.1166  0.1321
57221W        W  133  34.548   3.441   4.287  0.1027  0.0920  0.1357
57222W        W  134   1.194   4.824   6.565 -0.3123 -0.0441 -0.0041
57223W        W  135   1.548   5.331   7.240  0.2207 -0.0642  0.0692
57224W        W  136   0.666   5.809   4.335 -0.0119 -0.0438  0.1003
57225W        W  137   3.479   3.774   4.359 -0.1462 -0.0659 -0.1577
57226W        W  138   1.209   6.316   5.641  0.1910 -0.0595 -0.2932
57227W        W  139   3.319   5.291   6.546  0.1757  0.1979  0.0560
57228W        W  140   2.516   5.722   4.286  0.2253  0.4238  0.0426
57229W        W  141   2.434   5.834   6.263  0.0281 -0.0124 -0.0465
57230W        W  142   0.771   4.483   7.398 -0.0265  0.0003  0.0351
57231W        W  143   2.641   4.826   3.916 -0.2012  0.1309 -0.0009
57232W        W  144   2.472   4.922   4.793  0.0748  0.1210  0.0369
57233W        W  145   2.981   3.174   6.950  0.0043  0.3227 -0.0631
57234W        W  146   1.930   4.144   6.143  0.2056 -0.5121  0.1395
57235W        W  147   0.363   5.363   7.204 -0.0062  0.2038 -0.3138
57236W        W  148   1.504   4.116   7.432 -0.1648 -0.2966  0.1718
57237W        W  149   3.813   5.757   6.016 -0.3299 -0.2076  0.0753
57238W        W  150   3.979   5.969   3.543  0.1934 -0.0141 -0.0974
57239W        W  151   3.329   4.628   6.268  0.2237 -0.1284 -0.3553
57240W        W  152   4.249   5.063   4.038 -0.0913  0.2245  0.0712
57241W        W  153   2.829   4.866   4.493  0.0049  0.0038 -0.2228
57242W        W  154   0.695   4.564   6.483  0.0631 -0.0456 -0.2003
57243W        W  155   2.953   4.375   7.603 -0.0540  0.2973  0.2436
57244W        W  156   1.630   3.797   3.700 -0.0540  0.1399  0.2671
57245W        W  157   2.388   3.572   7.903  0.1507 -0.1443 -0.1032
57246W        W  158   2.022   5.633   4.337  0.0886 -0.2437 -0.2277
57247W        W  159   3.363   5.538   6.129 -0.1519  0.2661  0.3144
57248W        W  160   2.824   5.073   5.553  0.3186  0.0602  0.0807
57249W        W  161   0.344   4.428   5.849  0.0815 -0.2700  0.3791
57250W        W  162   0.636   6.481   7.755 -0.1672  0.1112 -0.4655
57251W        W  163   1.578   3.375   2.749  0.0387  0.1007 -0.0007
57252W        W  164   2.489   5.270   3.752 -0.4242  0.1788 -0.0237
57253W        W  165   1.212   5.268   6.813  0.0681  0.0441  0.1116
57254W        W  166   3.214   3.905   7.429  0.0434 -0.0129  0.2788
57255W        W  167   2.015   3.792   4.028  0.0690  0.1144  0.1461
57256W        W  168   4.114   4.370   8.374 -0.4797 -0.3735 -0.2096
57257W        W  169   2.825   6.280   4.260 -0.1701  0.1310 -0.2067
57258W        W  170   2.426   3.921   5.701  0.2752  0.1811 -0.1224
57259W        W  171   1.051   7.373   7.303 -0.0397  0.3345  0.0965
57260W        W  172   0.949   6.021   6.664  0.0495 -0.1028  0.2837
57261W        W  173   1.400   5.088   4.902  0.3121  0.0939 -0.0770
57262W        W  174   1.853   3.211   6.142  0.1929  0.2979 -0.0167
57263W        W  175   2.459   4.535   6.680 -0.0790 -0.2358  0.2125
57264W        W  176   1.600   5.351   6.273 -0.1506 -0.3386  0.1727
57265W        W  177   3.208   5.006   7.014 -0.0569 -0.0069  0.1654
57266W        W  178   3.196   5.628   6.925  0.3795 -0.2146 -0.0535
57267W        W  179   0.603   5.795   5.792 -0.0298 -0.2935 -0.3000
57268W        W  180   2.172   6.324   8.050 -0.1317  0.2646 -0.0634
57269W        W  181   2.726   6.240   6.415  0.2992  0.1481 -0.0307
57270W        W  182   2.874   5.028   6.612  0.2525  0.0541 -0.3455
57271W        W  183  33.664   4.875   6.094 -0.1108  0.0992  0.0671
57272W        W  184   1.842   5.043   7.540 -0.1035 -0.0989 -0.0922
57273W        W  185   1.222   3.960   5.007 -0.1594 -0.2177 -0.0203
57274W        W  186   1.212   3.592   4.580  0.2059 -0.0367  0.1475
57275W        W  187   3.691   6.329   5.401  0.4674 -0.2004  0.1816
57276W        W  188   0.594   6.977   7.749  0.2486  0.2484  0.0058
57277W        W  189   0.888   7.203   6.855  0.1582  0.0783  0.1493
57278W        W  190  34.690   6.710   4.824  0.1051 -0.1789  0.4972
57279W        W  191   3.854   7.035   5.626  0.0543  0.0512 -0.2544
57280W        W  192   2.381   5.175   4.341  0.2272  0.2989  0.2338
57281W        W  193   2.752   7.273   6.454 -0.1401  0.2538  0.2622
57282W        W  194   1.776   4.067   3.148  0.3425  0.3371  0.1709
57283W        W  195   2.126   7.159   5.404 -0.1874 -0.2455  0.3071
57284W        W  196  34.074   5.367   5.155  0.0019 -0.0320 -0.0464
57285W        W  197   2.597   6.956   5.060 -0.0307 -0.1459 -0.2274
57286W        W  198   2.126   6.699   5.283 -0.2419 -0.0646  0.2005
57287W        W  199   2.809   6.260   8.550 -0.1512 -0.2899  0.1614
57288W        W  200   2.118   2.908   4.041 -0.0149  0.0754 -0.1260
57289W        W  201   3.393   4.883   4.491  0.0789  0.1325 -0.2181
57290W        W  202   2.592   5.437   4.714  0.4147  0.2593 -0.1195
57291W        W  203   2.882   5.372   8.308 -0.0279 -0.0743  0.0852
57292W        W  204   1.530   5.710   5.950 -0.0102 -0.1346  0.0831
57293W        W  205   2.356   3.795   1.644  0.4100 -0.1218 -0.4201
57294W        W  206   1.610   5.367   7.853 -0.0859  0.0876 -0.1179
57295W        W  207   3.597   3.947   7.024  0.1599  0.0526 -0.1540
57296W        W  208   0.444   6.281   8.341  0.1318 -0.2781 -0.0308
57297W        W  209   4.934   6.751   3.790  0.2474 -0.1178 -0.0040
57298W        W  210   0.658   4.379   5.093  0.0663 -0.0940  0.0472
57299W        W  211   0.991   4.948   5.742  0.0687  0.5613 -0.3358
57300W        W  212   2.235   3.348   6.468  0.0147 -0.0397  0.0100
57301W        W  213   2.427   5.817   3.419 -0.0368 -0.0216  0.0970
57302W        W  214   1.481   4.352   6.264 -0.1522  0.0752 -0.1903
57303W        W  215   2.703   6.473   4.772  0.1143 -0.1110  0.2036
57304W        W  216   1.697   6.541   5.511 -0.1308 -0.3318  0.2684
57305W        W  217   2.497   6.935   5.599  0.2524 -0.1638 -0.2290
57306W        W  218   0.540   4.390   4.029  0.2131 -0.0185  0.0988
57307W        W  219   2.882   5.073   5.000 -0.1065  0.0730  0.3970
57308W        W  220   2.356   4.110   8.133  0.0938  0.1252  0.2146
57309W        W  221   3.219   3.659   6.693  0.4632  0.1947 -0.0482
57310W        W  222   0.139   4.398   5.361 -0.1221  0.3891  0.1429
57311W        W  223   2.747   5.912   6.817 -0.0240 -0.4546 -0.0948
57312W        W  224   1.586   6.571   6.138  0.0853  0.1885 -0.0914
57313W        W  225   0.252   5.402   6.630 -0.0803 -0.0603 -0.5498
57314W        W  226   3.020   5.174   3.833 -0.3380 -0.3377  0.2893
57315W        W  227   3.695   5.627   7.067  0.2017  0.0236 -0.3193
57316W        W  228   3.071   4.589   4.802 -0.1454 -0.3528 -0.2748
57317W        W  229   3.017   7.633   6.877  0.2636 -0.2095 -0.0972
57318W        W  230   0.288   3.829   6.302  0.2144  0.2362 -0.2401
57319W        W  231   2.883   5.380   4.296  0.0364 -0.1392 -0.0783
57320W        W  232   1.146   5.407   5.906  0.1479  0.3665 -0.2052
57321W        W  233   0.521   4.059   7.747  0.0430  0.2805 -0.3604
57322W        W  234   3.231   6.077   6.687  0.0102  0.0026 -0.0331
57323W        W  235   0.409   4.351   4.625 -0.1714 -0.1989 -0.1381
57324W        W  236   3.189   6.365   5.511 -0.0593 -0.0234  0.1836
57325W        W  237   3.583   4.193   6.625  0.1369 -0.0389 -0.0999
57326W        W  238   2.216   7.420   4.977 -0.0972 -0.0765  0.1152
57327W        W  239   3.349   6.055   5.875 -0.0802  0.0549  0.1436
57328W        W  240   3.242   7.718   4.874  0.1112 -0.1843  0.0174
57329W        W  241  34.569   5.496   5.235 -0.0085  0.1797 -0.1266
57330W        W  242   2.621   6.394   7.503  0.1583 -0.0897 -0.1082
57331W        W  243   4.595   6.230   5.249 -0.0137 -0.3909 -0.0510
57332W        W  244   1.423   4.201   3.996  0.0896  0.2075 -0.2103
57333W        W  245   1.958   4.118   5.533 -0.1366 -0.2663 -0.2327
57334W        W  246   1.791   6.954   4.452 -0.1465 -0.2990  0.0002
57335W        W  247   3.226   3.198   5.833  0.0667 -0.1598  0.1203
57336W        W  248   2.717   4.016   6.696  0.0604 -0.0238  0.1867
57337W        W  249   1.320   5.713   3.786 -0.1616  0.2114  0.2851
57338W        W  250   3.993   3.632   7.182  0.0400  0.1291 -0.0991
57339W        W  251   2.029   6.401   7.406 -0.1650  0.0691  0.0520
57340W        W  252   1.637   6.606   7.845  0.0036  0.0640  0.1682
57341W        W  253   0.243   5.440   4.307 -0.0471 -0.1073 -0.0188
57342W        W  254   1.091   5.179   7.937 -0.3035  0.1445 -0.0165
57343W        W  255   1.715   6.400   2.961  0.0749 -0.2792  0.0394
57344W        W  256   3.075   6.241   5.039  0.1580 -0.0967  0.0045
57345W        W  257   3.673   6.705   4.585  0.3039  0.0462 -0.1719
57346W        W  258   2.302   4.676   4.383  0.0741  0.0365 -0.1166
57347W        W  259   4.520   5.786   5.546 -0.0902  0.1549 -0.0693
57348W        W  260   1.316   3.288   5.450  0.2634  0.0803  0.0508
57349W        W  261   4.550   3.037   3.832  0.1754  0.0334 -0.1497
57350W        W  262   2.342   5.015   5.266 -0.2883  0.2470 -0.2590
57351W        W  263   2.294   6.001   7.658 -0.2500 -0.0330  0.1916
57352W        W  264   0.155   5.084   5.548 -0.2594  0.2028 -0.0978
57353W        W  265   1.518   6.298   3.669 -0.0354  0.0021 -0.2734
57354W        W  266   1.837   5.890   4.680  0.2503 -0.0118 -0.6441
57355W        W  267   0.553   2.451   8.275 -0.0371 -0.0394 -0.0916
57356W        W  268  34.196   5.224   6.907  0.2937  0.0614  0.0324
57357W        W  269   1.018   5.488   4.919 -0.0786  0.2749 -0.3815
57358W        W  270   1.301   4.132   4.515  0.1733  0.1033 -0.1197
57359W        W  271   4.702   7.628   4.672 -0.3931 -0.1666  0.0602
57360W        W  272   0.549   3.311   4.867 -0.1926  0.0571 -0.0260
57361W        W  273  34.099   4.448   5.181 -0.0295 -0.1489 -0.0916
57362W        W  274   3.763   5.880   5.126 -0.0769  0.1444  0.1006
57363W        W  275   3.343   5.615   3.653  0.0991 -0.2081 -0.0604
57364W        W  276   2.348   4.323   3.919 -0.0558 -0.1134  0.3221
57365W        W  277   3.760   6.730   6.660  0.3835  0.0524 -0.0920
57366W        W  278   1.334   6.574   4.386 -0.0006 -0.3581 -0.0957
57367W        W  279   1.826   3.457   7.966  0.3326  0.1077  0.0548
57368W        W  280   0.256   3.326   6.783  0.3366  0.1421  0.0954
57369W        W  281  34.678   4.546   4.512  0.0805  0.0903 -0.2771
57370W        W  282   1.591   5.700   6.746 -0.0235 -0.3265 -0.1955
57371W        W  283   2.991   7.089   6.065 -0.0442  0.3254 -0.1682
57372W        W  284   4.642   8.064   4.909  0.1075  0.1700 -0.0279
57373W        W  285   2.498   5.613   7.957 -0.1684 -0.1238 -0.2836
57374W        W  286   2.055   7.441   5.916  0.1937 -0.0079 -0.2622
57375W        W  287   0.964   3.881   7.413  0.0140  0.4109 -0.1323
57376W        W  288   1.698   4.851   3.529 -0.1034 -0.0721  0.1151
57377W        W  289   3.472   7.515   8.597 -0.0761  0.1496  0.1889
57378W        W  290   3.279   6.217   4.571  0.2231  0.4333 -0.0466
57379W        W  291   2.494   3.415   4.137 -0.1290 -0.2750  0.0792
57380W        W  292   2.094   5.394   4.829  0.0175 -0.3059 -0.0137
57381W        W  293   1.092   3.040   8.362 -0.0750  0.1185 -0.1151
57382W        W  294   1.071   6.324   6.177  0.2534 -0.1150 -0.1374
57383W        W  295   2.995   4.556   6.644 -0.3197 -0.0543 -0.0163
57384W        W  296   0.271   3.423   5.805  0.1402 -0.1243 -0.2325
57385W        W  297   2.664   4.375   4.547  0.0762 -0.1914 -0.2101
57386W        W  298   3.427   6.872   5.359  0.2408 -0.0680  0.1841
57387W        W  299   1.836   5.303   5.299  0.4071  0.3774 -0.1618
57388W        W  300   1.802   5.123   3.095  0.0190 -0.0901  0.0003
57389W        W  301   1.516   5.753   7.582 -0.0924  0.1076  0.1994
57390W        W  302   2.210   6.373   4.859  0.2372  0.1490 -0.1483
57391W        W  303   2.258   4.712   7.530  0.0671  0.1163  0.0559
57392W        W  304   1.020   4.988   4.555  0.0455  0.0336 -0.0196
57393W        W  305   2.813   5.667   3.834 -0.1285  0.3127 -0.1438
57394W        W  306   2.722   7.205   7.003 -0.1802  0.1190  0.0611
57395W        W  307   3.691   6.650   7.229 -0.2571  0.0562 -0.0811
57396W        W  308   2.622   6.302   5.730  0.0839 -0.0705 -0.1842
57397W        W  309   3.547   5.752   6.522  0.0934  0.1118  0.2909
57398W        W  310   0.678   4.066   6.502 -0.0240  0.1337  0.2205
57399W        W  311   1.630   5.164   5.788 -0.0003 -0.0652  0.0259
57400W        W  312   2.914   5.885   5.973 -0.2537 -0.1021  0.1248
57401W        W  313   2.584   5.480   5.210 -0.0671 -0.0781 -0.0679
57402W        W  314   0.885   5.140   5.276 -0.2132 -0.1075 -0.1723
57403W        W  315   2.855   4.064   2.478 -0.1674  0.0640  0.0833
57404W        W  316   1.317   6.804   6.883  0.1055  0.0105  0.1763
57405W        W  317   2.947   5.602   6.426 -0.1143  0.2255  0.1986
57406W        W  318   1.066   7.030  10.277 -0.2186 -0.1299 -0.0250
57407W        W  319   1.942   5.007   9.248  0.0966  0.2036  0.1448
57408W        W  320   3.497   4.429   7.821  0.2041  0.4039  0.0624
57409W        W  321   4.870   4.384   9.075 -0.0742  0.4841 -0.0065
57410W        W  322   2.659   7.053   9.132  0.0974 -0.0408 -0.0560
57411W        W  323   2.542   6.403   9.947 -0.0872 -0.1531 -0.2877
57412W        W  324   2.915   4.604   9.703 -0.0038 -0.1693  0.1369
57413W        W  325   2.015   5.788   8.000 -0.0765  0.0436 -0.0056
57414W        W  326  34.384   5.455   8.953  0.1411  0.3221 -0.2598
57415W        W  327   0.241   4.210   8.227  0.0085 -0.1749 -0.2385
57416W        W  328   0.979   4.532   9.844 -0.1535  0.0848 -0.0002
57417W        W  329   1.141   4.865   9.474  0.0053 -0.1414 -0.0712
57418W        W  330   1.093   6.865   8.562 -0.0178 -0.0056 -0.0436
57419W        W  331   1.261   3.590  10.097  0.0048  0.4167  0.2159
57420W        W  332   2.752   5.333   8.835  0.0403  0.2840  0.1284
57421W        W  333   2.517   8.679   8.831 -0.3220 -0.2848  0.1322
57422W        W  334   1.224   3.536  12.220  0.1296  0.0154  0.0123
57423W        W  335   4.092   6.899   8.193  0.1945  0.1101 -0.2456
57424W        W  336   0.569   5.939   7.967 -0.1194 -0.3603  0.2011
57425W        W  337   0.656   5.691   9.096 -0.2029  0.3573 -0.0828
57426W        W  338  34.170   5.071  10.049 -0.2649  0.1760  0.1382
57427W        W  339   2.010   4.498   8.927  0.0218  0.1100  0.0050
57428W        W  340   2.860   4.352   9.216 -0.0434 -0.2243 -0.0383
57429W        W  341   1.160   6.263  10.441 -0.1402 -0.0853 -0.0759
57430W        W  342   2.490   5.888   9.813 -0.2259  0.0991 -0.0226
57431W        W  343   0.969   6.185   8.981  0.0231 -0.0647 -0.0410
57432W        W  344   0.542   6.953   8.648  0.0403  0.1252 -0.0391
57433W        W  345   0.165   7.006   9.619 -0.3527 -0.2505  0.2490
57434W        W  346   4.426   6.568   8.519  0.3961 -0.1272 -0.0384
57435W        W  347   1.584   6.507   7.314 -0.3812  0.2047  0.0367
57436W        W  348   2.286   5.426   9.893  0.1997 -0.1193 -0.0252
57437W        W  349   1.188   4.803   8.900  0.2443 -0.0289 -0.5031
57438W        W  350   1.747   6.444   8.426 -0.1736  0.1200  0.0170
57439W        W  351   3.156   6.404   9.771  0.0097 -0.2660  0.0074
57440W        W  352   1.776   6.592  10.575  0.3870 -0.3644  0.0643
57441W        W  353   1.762   6.168   7.784 -0.4005 -0.1585 -0.1319
57442W        W  354   2.720   4.816   7.573 -0.0076 -0.0007 -0.3411
57443W        W  355   1.126   4.237   7.733  0.0922 -0.1805 -0.0053
57444W        W  356   1.888   4.057   8.064 -0.0304  0.3876 -0.2808
57445W        W  357   1.044   3.767   7.904  0.0146 -0.0830  0.1992
57446W        W  358   0.954   8.416  10.435 -0.0428  0.2451  0.0014
57447W        W  359   2.182   5.003   8.503  0.0423 -0.0526  0.1212
57448W        W  360   2.188   4.120   8.636  0.0053  0.1143  0.0621
57449W        W  361   5.354   4.208  10.248  0.1579 -0.1492  0.0948
57450W        W  362   3.232   4.688   9.160  0.0033  0.1744 -0.2848
57451W        W  363   1.836   5.370   8.498  0.0989  0.0715 -0.4055
57452W        W  364   2.524   7.349   5.838  0.1395 -0.2727  0.2622
57453W        W  365   4.209   7.122   8.675 -0.1253 -0.3972  0.1722
57454W        W  366   2.970   6.770   8.503 -0.2526 -0.0846 -0.1272
57455W        W  367  34.510   5.969   7.252  0.2794  0.0599 -0.1504
57456W        W  368   0.576   2.261   8.963  0.1545  0.3505  0.5432
57457W        W  369   4.321   3.741   9.113 -0.0430  0.0315  0.2948
57458W        W  370   1.715   5.664   9.001 -0.3281  0.1324  0.0905
57459W        W  371   2.241   4.074  10.051  0.0533 -0.1254  0.2204
57460W        W  372   2.860   3.887   9.033 -0.3487 -0.1850  0.1729
57461W        W  373   2.560   2.203   9.832 -0.1594  0.0396 -0.2471
57462W        W  374   2.561   2.694   9.251 -0.0614  0.3097 -0.1191
57463W        W  375   1.847   6.224   8.904  0.1273 -0.0084  0.0162
57464W        W  376   2.862   5.548   9.592  0.0828  0.0484  0.0272
57465W        W  377   3.878   6.891  10.017  0.2604 -0.3504  0.2513
57466W        W  378   3.266   4.335   8.853 -0.0745 -0.0087 -0.1081
57467W        W  379   1.383   6.715   9.595  0.2379  0.1598  0.0173
57468W        W  380   2.258   7.197   7.862  0.4412  0.1435 -0.0497
57469W        W  381   0.734   6.107   9.980  0.3203  0.0590  0.1610
57470W        W  382   0.241   7.802   8.242  0.1535  0.1166  0.0152
57471W        W  383  33.099   3.293  10.069 -0.1589  0.1934 -0.0367
57472W        W  384   2.772   7.518   9.099  0.1683 -0.1791  0.0040
57473W        W  385   3.256   4.886   7.505  0.1295  0.3622  0.0601
57474W        W  386   1.696   3.062   8.306  0.0573 -0.0003  0.4414
57475W        W  387   0.997   5.757   9.711  0.1359 -0.1756 -0.1978
57476W        W  388   4.839   7.603   9.850  0.2089 -0.1217  0.0090
57477W        W  389   3.765   4.485   8.691 -0.4489 -0.0316  0.0875
57478W        W  390   3.714   7.167   6.374  0.3440  0.1130  0.0308
57479W        W  391   0.445   5.229   9.044  0.3383  0.1889  0.1637
57480W        W  392   1.577   6.013   8.217  0.2294 -0.0747  0.0226
57481W        W  393  33.185   3.797  10.138  0.0287 -0.1830 -0.1679
57482W        W  394  34.205   3.043   8.045 -0.0520 -0.0530 -0.0612
57483W        W  395   2.508   3.718   9.383  0.1079 -0.1928  0.2943
57484W        W  396   1.323   6.440   8.671  0.0487 -0.3763  0.1133
57485W        W  397   0.510   5.782   8.502 -0.3815  0.0196 -0.1826
57486W        W  398   1.763   6.589   9.294 -0.2589  0.0074 -0.0086
57487W        W  399   3.771   5.745   9.729 -0.3436 -0.2409  0.3004
57488W        W  400   2.985   6.603   9.255  0.1013  0.4247 -0.1073
57489W        W  401   1.330   4.126   9.736 -0.3674 -0.0155  0.0134
57490W        W  402   1.019   2.956   9.469 -0.1031 -0.0535  0.1035
57491W        W  403   1.507   7.681   9.951  0.0424 -0.3365  0.0531
57492W        W  404   3.133   5.324  10.191  0.3857 -0.0819  0.0451
57493W        W  405   2.973   5.898   8.197 -0.2477  0.1440 -0.0663
57494W        W  406   2.600   6.890  10.187  0.0292 -0.2518  0.1253
57495W        W  407   4.076   4.900   9.001  0.1076 -0.0063  0.0827
57496W        W  408   4.232   6.336   9.437  0.0458  0.0866 -0.2244
57497W        W  409   3.284   3.523   9.888 -0.2950 -0.2286 -0.1116
57498W        W  410  34.678   3.875   7.978 -0.2270  0.0664 -0.2795
57499W        W  411   2.378   5.077  10.234 -0.0012 -0.5514  0.1572
57500W        W  412   1.807   6.902   9.704 -0.2665  0.2070  0.2488
57501W        W  413   1.388   5.973   8.737 -0.2599  0.1925  0.3600
57502W        W  414   1.868   7.346   8.382  0.5006 -0.2831 -0.3127
57503W        W  415   1.686   3.884   8.563 -0.0949 -0.3337 -0.1263
57504W        W  416   1.002   5.067   8.447 -0.1180  0.1868 -0.0080
57505W        W  417   0.748   2.503   9.406  0.1960 -0.2146  0.1545
57506W        W  418   2.482   5.024   8.060  0.1193  0.4021  0.1305
57507W        W  419   3.820   4.889   7.784  0.0703  0.1378  0.0133
57508W        W  420   2.206   3.209   7.526 -0.1679 -0.4005 -0.1665
57509W        W  421   2.466   3.683   8.886 -0.2153  0.0327 -0.3834
57510W        W  422   3.831   5.676   8.357  0.0461 -0.1746  0.1145
57511W        W  423   2.119   6.475   9.661 -0.0500  0.1917  0.2632
57512W        W  424   3.171   3.032   7.384  0.0346  0.0492  0.0070
57513W        W  425   4.067   6.720   7.603 -0.3413 -0.0852 -0.1667
57514W        W  426  34.613   6.472  10.477 -0.0427 -0.3161 -0.2471
57515W        W  427   3.376   5.875   8.582  0.0205  0.0987 -0.0310
57516W        W  428  34.663   4.354  10.132  0.1211 -0.1845  0.0727
57517W        W  429   1.071   5.701   7.894 -0.0890 -0.0126  0.0980
57518W        W  430   3.338   3.722   9.082 -0.0375  0.0014  0.2295
57519W        W  431   0.085   7.701   7.768  0.2060  0.1960 -0.1054
57520W        W  432   1.830   3.302   8.749  0.2190 -0.0172  0.0408
57521W        W  433   2.653   3.692   9.910 -0.1511  0.1847  0.0078
57522W        W  434   2.786   4.368   8.681 -0.2483  0.1112  0.1197
57523W        W  435   1.911   2.949   9.079 -0.0576  0.0182  0.2749
57524W        W  436  32.915   5.538   6.195 -0.0256 -0.2256  0.2688
57525W        W  437   2.038   3.432   9.199  0.1652 -0.1001  0.1839
57526W        W  438   2.601   5.644  10.311 -0.0444  0.0164 -0.3389
57527W        W  439   3.444   5.503   9.430  0.1452  0.1654  0.0618
57528W        W  440   1.309   4.662   8.347 -0.0115  0.0283 -0.0419
57529W        W  441   1.449   6.764  10.083  0.1906  0.3417  0.1946
57530W        W  442   2.373   5.510   8.430  0.2456  0.2340 -0.0484
57531W        W  443  34.430   3.417   9.626 -0.1317  0.3342  0.1247
57532W        W  444   2.203   6.406   9.164  0.4980 -0.0906  0.0174
57533W        W  445   2.247   6.366   8.620 -0.3269  0.0403 -0.1891
57534W        W  446   1.444   5.586  10.032  0.0930  0.1270 -0.0026
57535W        W  447   2.709   6.185   7.947  0.1768  0.2776  0.0415
57536W        W  448   2.440   2.630   8.776 -0.1018  0.1003  0.2016
57537W        W  449  33.936   5.878   8.078  0.1913  0.1471 -0.0471
57538W        W  450   0.868   4.186   8.115  0.0056  0.0776 -0.1937
57539W        W  451   0.382   4.613   7.851  0.0486 -0.1245 -0.0141
57540W        W  452   2.388   3.209   9.464  0.1658 -0.1761 -0.2496
57541W        W  453   3.659   4.032   8.987 -0.1142 -0.0879 -0.0623
57542W        W  454   0.332   4.536   9.710  0.0958  0.1514  0.1966
57543W        W  455   1.748   3.244   9.532  0.1399 -0.0256 -0.0429
57544W        W  456  34.624   7.979   9.594  0.1505 -0.2750 -0.1561
57545W        W  457   2.670   4.053   7.284  0.0458  0.0177  0.0933
57546W        W  458   1.130   5.322   7.442  0.2652 -0.1113  0.2275
57547W        W  459   1.687   4.934   9.694  0.2627  0.2234 -0.2718
57548W        W  460   0.974   5.639   8.654 -0.0567 -0.0009  0.0101
57549W        W  461   0.884   6.775   9.796 -0.1385  0.0384  0.2039
57550W        W  462   4.296   6.616   9.837  0.1025  0.3798  0.2128
57551W        W  463   1.891   5.892   7.182  0.0404 -0.2162 -0.1073
57552W        W  464   1.632   6.291   9.695  0.0903 -0.3856  0.0468
57553W        W  465   0.956   3.874  11.827  0.0271 -0.3189  0.5202
57554W        W  466   0.867   4.944  10.291  0.1232  0.1816  0.3343
57555W        W  467   0.547   3.657   9.321  0.0250 -0.2080 -0.2057
57556W        W  468   1.763   4.922   8.785  0.3181 -0.0241  0.1023
57557W        W  469   1.496   5.775   9.570  0.0957 -0.2941 -0.2985
57558W        W  470   0.900   3.157  10.079 -0.2289 -0.2735  0.3163
57559W        W  471   1.464   1.257   9.696  0.1699  0.2801 -0.0330
57560W        W  472   4.190   6.284   8.959 -0.0276 -0.0798 -0.1367
57561W        W  473   0.229   6.188   7.478  0.1565 -0.1591 -0.1234
57562W        W  474  32.820   7.306  10.082  0.3519  0.0691  0.2966
57563W        W  475   2.655   5.782   8.815  0.0357 -0.1664  0.0159
57564W        W  476   1.969   4.510   9.774 -0.0793  0.1174  0.1095
57565W        W  477   1.261   5.337   9.656 -0.2280 -0.1051 -0.0625
57566W        W  478   1.528   6.130   9.240 -0.1116  0.1696 -0.1929
57567W        W  479   0.431   8.415  10.617 -0.3577 -0.1885 -0.1677
57568W        W  480   4.068   3.330   7.654 -0.2199 -0.1314 -0.1607
57569W        W  481   2.286   4.539   8.411  0.1648 -0.1395  0.0763
57570W        W  482   2.182   4.977  10.693  0.0481  0.0020 -0.0841
57571W        W  483   2.413   5.223   7.409  0.0192 -0.1244 -0.0549
57572W        W  484   0.460   3.304   8.786  0.1481 -0.2440  0.0804
57573W        W  485   2.885   6.050   7.258  0.1532 -0.2061 -0.2675
57574W        W  486   1.341   4.130   8.283  0.2186  0.2390  0.0364
57575W        W  487   0.572   3.730   8.150 -0.3039  0.0074  0.0411
57576W        W  488   0.900   5.335  10.029 -0.1659  0.1527  0.0105
57577W        W  489   1.138   4.434   9.236  0.1236  0.0043 -0.1661
57578W        W  490   2.494   7.340   9.460  0.0217 -0.0192  0.0175
57579W        W  491   2.822   3.258  10.044  0.1662  0.4024  0.2281
57580W        W  492   1.197   5.711   9.156  0.0507 -0.0389 -0.1058
57581W        W  493   3.702   3.998   8.482  0.1484  0.1917  0.1070
57582W        W  494   3.148   5.201   9.205  0.0647  0.0959 -0.1146
57583W        W  495   2.023   5.529   9.439  0.0358 -0.2627 -0.1335
57584W        W  496   3.871   5.259   9.647 -0.0143  0.1596 -0.3487
57585W        W  497  34.226   1.429  10.360 -0.0401  0.1639 -0.0154
57586W        W  498   3.559   5.764   9.022  0.1354  0.0437 -0.0481
57587W        W  499   2.873   4.159   5.889  0.1815  0.0346 -0.0876
57588W        W  500   4.967   5.237   8.985  0.1919 -0.3574 -0.1175
57589W        W  501   3.290   4.011   7.991 -0.0210  0.0588 -0.0812
57590W        W  502   2.705   3.975   7.815  0.1915  0.1535  0.1619
57591W        W  503   0.228   4.198   9.289 -0.0221  0.0684  0.1824
57592W        W  504   0.662   4.371   6.925  0.2460  0.1203 -0.3031
57593W        W  505   3.213   6.398   8.209  0.1189 -0.0619  0.2240
57594W        W  506   3.263   5.034   8.366 -0.1893 -0.1617 -0.3356
57595W        W  507   1.917   3.918   9.059  0.4425  0.0378  0.0315
57596W        W  508   0.023   5.062   8.212 -0.4379  0.0773  0.0673
57597W        W  509  34.292   5.756   7.671  0.2094 -0.2251 -0.0970
57598W        W  510   2.930   5.273   7.659 -0.1031  0.1857 -0.2239
57599W        W  511   3.210   4.628  10.079 -0.0540 -0.0761  0.0773
57600W        W  512   0.813   2.696   7.262 -0.1090 -0.2346 -0.1860
57601W        W  513   0.771   6.505   8.602 -0.0161  0.1890  0.3521
57602W        W  514   3.041   2.588   8.393  0.3888  0.0920 -0.0763
57603W        W  515   1.122   8.581   9.893  0.0005  0.1220  0.0824
57604W        W  516   2.102   6.843   8.871  0.0633 -0.0240 -0.2024
57605W        W  517   1.523   4.033   9.263  0.1616 -0.2245 -0.0289
57606W        W  518   1.864   5.068  10.114  0.0144 -0.1891 -0.1470
57607W        W  519   4.642   4.923  10.142  0.0845  0.2416  0.1113
57608W        W  520   0.986   4.321   8.600  0.1717 -0.2516  0.0497
57609W        W  521   3.734   3.354   9.676  0.0518 -0.2408 -0.0496
57610W        W  522   0.974   5.762  10.285  0.3019 -0.0972  0.0643
57611W        W  523   3.711   4.523   9.152  0.3365 -0.0070 -0.2865
57612W        W  524   1.333   3.363   8.694  0.1415 -0.1089  0.1101
57613W        W  525   3.044   5.741   9.149  0.2165 -0.2709  0.0767
57614W        W  526   0.685   3.895  12.181  0.3367 -0.0905 -0.0768
57615W        W  527   0.143   6.569   6.752 -0.0890 -0.0350  0.1262
57616W        W  528   3.330   5.395   8.771 -0.1234 -0.1072 -0.3030
57617W        W  529   2.460   5.494   6.698 -0.4000 -0.2041  0.1755
57618W        W  530   2.701   4.845   9.316 -0.1143  0.0679 -0.0333
57619W        W  531   1.343   5.568   8.279 -0.0040 -0.0621  0.2336
57620W        W  532   0.502   6.571   9.550 -0.0630  0.1403  0.0015
57621W        W  533  34.211   7.030   8.394 -0.5024 -0.0919 -0.0777
57622W        W  534   3.256   6.392   7.096  0.2795 -0.0078  0.3730
57623W        W  535   0.568   7.925   9.787 -0.0056  0.1003  0.1417
57624W        W  536   3.933   4.432   7.517 -0.0057 -0.0176  0.2071
57625W        W  537   2.125   4.075   9.469  0.3177 -0.1466 -0.3411
57626W        W  538   4.794   3.752   7.752  0.0814  0.1111 -0.2529
57627W        W  539   0.453   4.220   8.734 -0.0062 -0.0903  0.2587
57628W        W  540   1.235   3.491   7.550 -0.1293 -0.1076 -0.2225
57629W        W  541   2.633   6.656   8.845  0.0240  0.2123 -0.1667
57630W        W  542  34.591   3.359   8.666  0.1652 -0.2651  0.4660
57631W        W  543   2.475   4.728   8.876 -0.0504  0.3410  0.1894
57632W        W  544   3.791   2.965   9.124 -0.2875 -0.0568 -0.0133
57633W        W  545   2.640   6.208   9.062 -0.0371 -0.0601  0.0817
57634W        W  546   2.105   2.947   8.543  0.2592  0.2208  0.0847
57635W        W  547   1.546   7.864   9.467 -0.1991  0.1786  0.0729
57636W        W  548   1.517   8.311   9.690  0.2368  0.2102 -0.1376
57637W        W  549   2.163   6.597  10.262  0.1502  0.1514 -0.1892
57638W        W  550  34.559   5.397   7.877 -0.3804  0.2683 -0.3253
57639W        W  551   3.771   3.470   9.005 -0.0804 -0.2388 -0.0700
57640W        W  552   0.034   5.078   8.798 -0.3859  0.0595 -0.0849
57641W        W  553   1.467   4.299   8.855  0.0321  0.1901 -0.1439
57642W        W  554   3.775   4.698   8.225  0.1362  0.1566 -0.1733
57643W        W  555   0.702   4.699   9.360  0.2927  0.0491 -0.0534
57644W        W  556   2.065   1.479   9.874  0.0733 -0.1569  0.4151
57645W        W  557   0.084   4.265   7.715  0.1825  0.0935  0.2169
57646W        W  558   3.534   4.933   8.789  0.1707  0.4076 -0.5048
57647W        W  559   0.178   3.855   8.940  0.1237 -0.0984 -0.3585
57648W        W  560   4.568   3.998   8.128  0.0532 -0.2067 -0.0762
57649W        W  561   2.475   5.271   9.432  0.2289 -0.1485 -0.2370
57650W        W  562   3.742   4.830   9.980  0.2774  0.1799  0.1504
57651W        W  563   0.150   3.383   9.166 -0.3570  0.2046 -0.3029
57652W        W  564   4.219   6.181   7.588  0.3791  0.1764 -0.0964
57653W        W  565   4.326   5.521  10.195 -0.0974  0.0063  0.1882
57654W        W  566   1.982   7.396   9.427  0.0907 -0.1360 -0.1176
57655W        W  567   4.298   4.462   9.272 -0.0829  0.0353  0.1432
57656W        W  568   3.079   6.309   7.623  0.1962  0.0990 -0.1067
57657W        W  569   0.862   3.429   8.500 -0.0326 -0.0209 -0.0040
57658W        W  570   2.440   4.160   9.115 -0.0555 -0.0058  0.1480
57659W        W  571   2.891   6.060   9.565  0.0406 -0.0702  0.0410
57660W        W  572   1.271   2.432   7.577  0.2215 -0.3002  0.0654
57661W        W  573   1.201   3.858   8.748 -0.0373  0.0310  0.1964
57662W        W  574   1.611   7.243  10.639 -0.0048  0.0811  0.0386
57663W        W  575   2.270   4.559   9.379 -0.0903 -0.1144  0.2982
57664W        W  576   2.364   6.709   7.762  0.0203  0.1938 -0.0767
57665W        W  577   3.414   6.527  10.190  0.0657 -0.1213  0.2956
57666W        W  578  34.499   4.711   7.777 -0.2323  0.0368  0.1260
57667W        W  579   3.665   6.570   9.111  0.2175 -0.1318 -0.1843
57668W        W  580   3.446   6.660   8.645  0.0326  0.1597  0.1539
57669W        W  581   4.186   4.874   8.510  0.2223  0.1593  0.0598
57670W        W  582   1.339   3.525   8.250  0.0086  0.1322 -0.3921
57671W        W  583   4.125   6.045   8.531  0.2347 -0.2672  0.1254
57672W        W  584   1.553   3.575   9.110 -0.0624 -0.0274  0.1103
57673W        W  585   3.670   3.922   7.534 -0.1448 -0.1972  0.0246
57674W        W  586   2.945   3.068   8.285  0.1201  0.3481  0.0715
57675W        W  587   2.259   5.550  10.704  0.1987 -0.1351 -0.0379
57676W        W  588   0.480   6.173   8.907  0.0751  0.0148 -0.1046
57677W        W  589   1.024   7.165   7.831 -0.0864  0.0938  0.2148
57678W        W  590   0.461   5.117   8.446 -0.1791 -0.1069 -0.0175
57679W        W  591   1.625   4.641   9.313  0.4504 -0.2287  0.1170
57680W        W  592  34.258   3.975   7.792 -0.1337 -0.2781 -0.0708
57681W        W  593   2.920   5.731   7.650 -0.2985  0.3030  0.1205
57682W        W  594   0.579   2.959   8.466 -0.0442  0.0795 -0.1691
57683W        W  595  33.638   3.658   8.369 -0.1700  0.1588  0.0269
57684W        W  596   3.411   5.549   8.174  0.1033  0.2308  0.0904
57685W        W  597   3.697   6.171   8.227  0.1782 -0.0497  0.0333
57686W        W  598  34.210   3.875   8.750  0.0586 -0.0711 -0.0790
57687W        W  599   0.952   6.595   9.244 -0.1792 -0.1573 -0.3174
57688W        W  600  34.592   5.451   7.332 -0.0016 -0.0698 -0.1007
57689W        W  601   1.410   3.079   9.116  0.0834  0.0628  0.2797
57690W        W  602   2.554   6.408   9.492 -0.1741  0.1152 -0.0019
57691W        W  603   2.385   6.745   7.106 -0.3097 -0.1816 -0.2359
57692W        W  604   0.674   4.663   8.777  0.1000  0.2025 -0.0245
57693W        W  605   3.276   4.143   9.321  0.1870 -0.1126  0.2039
57694W        W  606   4.407   7.802   9.700 -0.1990 -0.0939 -0.4921
57695W        W  607   4.033   3.262   8.676 -0.1411  0.1430 -0.2601
57696W        W  608   3.833   5.220   8.171 -0.2266 -0.3548 -0.1961
57697W        W  609   4.327   5.754   8.910 -0.0425 -0.1433 -0.0305
57698W        W  610   1.027   3.463   9.116  0.0178  0.1804 -0.1764
57699W        W  611   3.544   3.525   8.517 -0.1200  0.0193 -0.0322
57700W        W  612   2.224   5.927   8.972  0.0952  0.3353  0.2973
57701W        W  613   0.703   4.248   9.214 -0.2380  0.1177 -0.1296
57702W        W  614   1.728   4.947   8.190  0.2313  0.0365  0.2351
57703W        W  615   3.684   6.660   8.233  0.1349  0.1264 -0.0587
57704W        W  616   2.960   4.891   8.774  0.0417  0.4007  0.1917
57705W        W  617   3.893   5.277   8.674  0.0850 -0.1746 -0.0852
57706W        W  618   3.042   7.162   9.499 -0.2677 -0.2062  0.0121
57707W        W  619   3.266   5.073   9.700 -0.2040  0.0875 -0.0704
57708W        W  620   3.482   4.561   9.582  0.4556 -0.1237  0.0601
57709W        W  621  34.392   4.147   9.330 -0.2637 -0.1135  0.3232
57710W        W  622   1.398   5.299   8.733  0.1427 -0.0059 -0.0689
57711W        W  623   1.984   5.887   8.565 -0.0499  0.0066 -0.0913
57712W        W  624   3.194   5.778   9.932 -0.0460  0.0111 -0.1226
57713W        W  625   2.500   3.286   8.501 -0.1942 -0.1005  0.0981
57714W        W  626   1.969   2.645   8.164  0.2206  0.2227  0.2925
57715W        W  627   1.864   9.360   9.938  0.1339 -0.2660 -0.0274
57716W        W  628   2.439   4.444  10.510 -0.2068  0.3916  0.0026
57717W        W  629   0.550   9.427   2.708 -0.0930 -0.0448  0.0705
57718W        W  630   2.483   8.175   2.482  0.1657  0.1842  0.2517
57719W        W  631   3.613   8.219   1.803  0.3510 -0.2411  0.0970
57720W        W  632   3.780   8.799   0.698  0.1981 -0.1883 -0.2231
57721W        W  633  33.314   7.139   1.079 -0.4283 -0.1173  0.0017
57722W        W  634   2.393  10.378   1.585  0.2701 -0.0525 -0.3207
57723W        W  635   2.003   7.496   3.502  0.1412  0.1762  0.0463
57724W        W  636   3.107   9.718   2.621 -0.0209 -0.0345 -0.1812
57725W        W  637   3.515   9.942   1.694  0.1174  0.0985 -0.3283
57726W        W  638   2.653   9.762   2.849  0.2696 -0.0650  0.2531
57727W        W  639   2.678   7.153   2.151  0.0276 -0.1523  0.2325
57728W        W  640   0.310  10.391   2.569 -0.0074  0.3487  0.3023
57729W        W  641   2.796   7.664   0.850 -0.2548  0.1458  0.2625
57730W        W  642   0.773   6.728   2.157 -0.0112 -0.0965  0.0201
57731W        W  643   3.115   9.643   1.611  0.2408 -0.0305 -0.2067
57732W        W  644   2.346   8.588   0.579 -0.3098 -0.1217  0.2560
57733W        W  645   1.218   6.605   1.986  0.0199  0.0701 -0.6141
57734W        W  646   2.210   8.813   1.007  0.0050 -0.1274  0.2508
57735W        W  647   1.746  11.604   2.197 -0.1281  0.1354 -0.0024
57736W        W  648   2.154   7.166   3.023  0.1227  0.0653 -0.0212
57737W        W  649   2.834   6.924   4.095  0.1045  0.1093  0.0957
57738W        W  650   2.214  10.384  31.734 -0.4040 -0.3893 -0.0369
57739W        W  651   0.743   8.459   0.609 -0.0482 -0.2080 -0.2038
57740W        W  652  34.423   8.741   2.502 -0.1588  0.1731  0.0358
57741W        W  653   1.531   7.869   2.457 -0.2107 -0.0956  0.0719
57742W        W  654   2.725   8.614   2.337  0.1104 -0.0245  0.1382
57743W        W  655   3.045   9.334   2.211  0.1880 -0.0655  0.3147
57744W        W  656   0.254  10.858   1.507 -0.2796 -0.3430 -0.2609
57745W        W  657   2.524  10.754   1.236  0.0535 -0.0585 -0.1696
57746W        W  658   2.881   7.341   3.194 -0.1726  0.0171 -0.3442
57747W        W  659  34.369   8.548   1.259  0.0240 -0.4288 -0.0359
57748W        W  660  34.622  11.089   0.925 -0.1014 -0.0940 -0.0154
57749W        W  661   0.962  10.118   1.392 -0.1860  0.6058  0.4696
57750W        W  662   2.114  10.583   2.405 -0.2660 -0.3067 -0.0866
57751W        W  663   3.224  10.723   3.214  0.1876 -0.1628 -0.0653
57752W        W  664   2.116  12.553   3.082 -0.1323 -0.1537 -0.0082
57753W        W  665   0.141   8.461   2.030  0.0749  0.0370 -0.0306
57754W        W  666   2.623  11.365   3.299 -0.0756 -0.1471  0.1645
57755W        W  667   0.989   9.578   2.820 -0.0491  0.0612  0.1355
57756W        W  668   1.922   8.557   3.672 -0.0822  0.0918 -0.1826
57757W        W  669   2.031   9.402   2.378  0.0106  0.0844 -0.5225
57758W        W  670   1.542  11.144   1.176  0.0418 -0.1029 -0.2318
57759W        W  671   1.537   9.444   3.097  0.2711  0.0617  0.0022
57760W        W  672   1.171   8.911   3.443 -0.2493  0.0095  0.3449
57761W        W  673   1.226  10.527   0.046 -0.2595 -0.0133 -0.1342
57762W        W  674   4.931   8.897   3.877 -0.0997  0.0635 -0.3678
57763W        W  675   0.445   9.540  31.950  0.0812  0.1247  0.0544
57764W        W  676   4.575   8.797   0.271 -0.0434  0.3706  0.2052
57765W        W  677   2.709   8.076   0.250  0.4393  0.0235 -0.0500
57766W        W  678   2.599   8.965   0.123 -0.1172  0.0329 -0.2355
57767W        W  679   3.746   7.275   0.722  0.2817 -0.2055 -0.2107
57768W        W  680   0.547  12.103   2.666  0.1356  0.2879 -0.0765
57769W        W  681   1.183   7.193   3.321 -0.0994 -0.1571  0.0137
57770W        W  682   2.168   8.746   4.269 -0.0690 -0.0008 -0.2845
57771W        W  683   1.613   9.504  31.951 -0.0617 -0.3413  0.0923
57772W        W  684   3.044   7.895   2.308  0.2548 -0.2379 -0.2061
57773W        W  685   1.242  11.283   4.204 -0.0001  0.1121  0.2143
57774W        W  686   0.821   7.327   2.917  0.0903  0.1468  0.2331
57775W        W  687   2.806  10.300   1.176  0.0390  0.0362 -0.1085
57776W        W  688   3.557  10.752   0.908  0.2091  0.1185 -0.0668
57777W        W  689   2.513  10.082   0.306  0.0785  0.0559 -0.2000
57778W        W  690   1.468   8.601   0.304  0.1095 -0.0392 -0.1779
57779W        W  691   0.104   9.625   3.881  0.0601 -0.1567 -0.1666
57780W        W  692   0.540   8.189   2.266  0.1825 -0.1522 -0.1535
57781W        W  693   1.674   6.267   1.880  0.0198  0.2017  0.0575
57782W        W  694   3.960   9.771   3.739 -0.1064 -0.1170 -0.2367
57783W        W  695   1.267  10.962   2.802  0.2222 -0.0746 -0.0364
57784W        W  696   3.454   7.666   0.597  0.0868 -0.1077  0.2209
57785W        W  697   1.095   8.537   3.052 -0.0063 -0.2171 -0.4373
57786W        W  698   3.216   8.932   2.998  0.1357 -0.2392 -0.1026
57787W        W  699   1.235   9.073   0.707  0.1482 -0.1517 -0.0049
57788W        W  700   1.934   6.618   2.326  0.1126 -0.1496  0.3715
57789W        W  701   3.099   7.680   3.506  0.0521  0.1823 -0.0447
57790W        W  702  34.479   8.121   1.661 -0.0557  0.1078  0.1516
57791W        W  703   1.990   8.584   0.222  0.1254  0.2846  0.1464
57792W        W  704   4.471   9.949   2.495 -0.1056 -0.2332 -0.2770
57793W        W  705   4.750   8.750   2.016 -0.2922 -0.0608  0.0381
57794W        W  706  34.417  10.503   1.470  0.1167 -0.0398 -0.0955
57795W        W  707   1.467   8.093   3.747 -0.1876  0.0795  0.1672
57796W        W  708   2.062   9.022   2.950  0.0777 -0.1822 -0.2152
57797W        W  709   1.107  11.095   0.104  0.1765  0.0716 -0.4890
57798W        W  710  34.645   7.630   1.590  0.1534  0.1962  0.2504
57799W        W  711  34.661   8.479   0.856 -0.3557 -0.1398 -0.2714
57800W        W  712   1.162   6.631   3.903 -0.1880 -0.0692 -0.1563
57801W        W  713   3.187   9.048   0.731 -0.2869 -0.0082  0.1278
57802W        W  714   3.230   9.008   1.580 -0.0232 -0.0542  0.1022
57803W        W  715   0.994   7.896   3.698 -0.1935  0.2194  0.0074
57804W        W  716   1.175   8.662   1.589 -0.3970  0.0487 -0.1285
57805W        W  717   4.407  10.527   2.321 -0.1196  0.2675  0.0645
57806W        W  718   4.083   8.254   1.113 -0.1686 -0.1294 -0.2712
57807W        W  719   3.098  10.413   0.775 -0.0166  0.3414  0.1648
57808W        W  720   1.934   6.920   3.544  0.1955  0.0982  0.1481
57809W        W  721   1.268   9.110   1.368 -0.0984 -0.0822 -0.1661
57810W        W  722   0.971   6.191   4.032  0.0638 -0.1429 -0.0095
57811W        W  723   1.579   6.829   3.217  0.2109  0.0474  0.2366
57812W        W  724   2.158   9.118   3.868 -0.1787  0.2405 -0.0830
57813W        W  725   0.663   7.661  31.855  0.2366 -0.2171  0.1259
57814W        W  726   4.151   8.606   1.943 -0.0080 -0.0399 -0.3526
57815W        W  727   2.429   9.676  31.979 -0.3086  0.1420 -0.1897
57816W        W  728   1.290   9.640   2.414 -0.0357 -0.0084 -0.1944
57817W        W  729   3.877   7.347   3.452 -0.1929  0.0684  0.1050
57818W        W  730   3.583  10.541   0.465 -0.0657 -0.1379  0.2034
57819W        W  731   3.027  10.972   3.679 -0.2851  0.0581 -0.0357
57820W        W  732   2.496   9.189   2.638  0.2040 -0.1179  0.2688
57821W        W  733   2.931   7.857   2.935  0.1654  0.0919 -0.1657
57822W        W  734   0.400   6.340   1.219  0.1544 -0.1857 -0.2849
57823W        W  735   1.338  12.042   2.302  0.3484 -0.2366  0.1246
57824W        W  736   1.665  10.734   3.011 -0.1685 -0.1104  0.5156
57825W        W  737   2.195  10.062   3.079 -0.0802 -0.1640  0.1812
57826W        W  738   2.149   9.023   0.301 -0.3633 -0.3443 -0.0386
57827W        W  739   0.735   8.782   3.240 -0.0079 -0.0765  0.2131
57828W        W  740   3.950   6.834   4.166  0.0236  0.1099 -0.0260
57829W        W  741   3.318   8.448   2.977  0.1959 -0.0640 -0.0142
57830W        W  742   3.553   9.394   1.413 -0.3565  0.0417 -0.2484
57831W        W  743   0.737   8.222  31.808 -0.3352 -0.4310 -0.0428
57832W        W  744   3.881  12.623   1.044 -0.0630 -0.2073  0.3097
57833W        W  745   0.909   9.224   1.045  0.5301 -0.0054 -0.4461
57834W        W  746   1.317   7.663   1.985 -0.3151  0.2799  0.0117
57835W        W  747   0.788   9.050   1.986  0.0314  0.2431  0.0514
57836W        W  748   3.109   7.290   1.642  0.0025  0.2048 -0.0111
57837W        W  749  34.090   8.418   2.783  0.1783 -0.1627  0.1030
57838W        W  750   1.328   7.060   4.186  0.2266 -0.2002  0.1782
57839W        W  751   0.516   6.589   1.678  0.1252 -0.3025 -0.2678
57840W        W  752   0.830  11.032   2.570 -0.1614 -0.0864 -0.2032
57841W        W  753   2.591   7.661   2.245  0.2590  0.1844 -0.2946
57842W        W  754   3.332   8.217   0.549 -0.1532 -0.1036 -0.1582
57843W        W  755   1.984   9.498   3.395  0.0015 -0.5118 -0.1846
57844W        W  756   2.718   9.854   0.739 -0.0815  0.0671 -0.1181
57845W        W  757   3.451   9.240   1.955  0.0549 -0.0393 -0.0058
57846W        W  758   3.933   8.301   0.348  0.0152 -0.4566  0.1326
57847W        W  759   0.037  10.029   2.831 -0.0954  0.1637  0.0619
57848W        W  760   1.634   9.456   2.098  0.0432  0.2242  0.0668
57849W        W  761   2.701   9.018   1.395 -0.3852 -0.0243  0.1017
57850W        W  762   2.635   9.070   0.840  0.0086 -0.0546 -0.3827
57851W        W  763   3.486  11.012   2.071 -0.1727  0.1423  0.1115
57852W        W  764   1.009   9.979   2.573  0.2651 -0.1504 -0.1951
57853W        W  765   1.751   9.971   3.263  0.2762 -0.1815 -0.1935
57854W        W  766   1.827  11.593   1.226  0.3194  0.0891  0.0302
57855W        W  767   1.915   6.521   1.372 -0.2163 -0.1169 -0.2293
57856W        W  768   1.756   9.365   0.538 -0.0089  0.0815  0.1517
57857W        W  769   2.727   8.180   2.079  0.2426 -0.1581  0.3092
57858W        W  770  33.127  10.215   0.573  0.2161 -0.3147  0.1443
57859W        W  771   3.677   7.312   2.228 -0.0197  0.3056 -0.1050
57860W        W  772   2.831   8.141   3.479 -0.2122  0.2085 -0.2249
57861W        W  773   1.196   7.697   2.906 -0.0569  0.2957  0.0672
57862W        W  774   3.978   9.147   3.879  0.0844  0.2256  0.1789
57863W        W  775   1.880   9.910   1.990  0.1574 -0.1385 -0.2230
57864W        W  776   2.574   9.449   1.763  0.3169  0.1906 -0.0900
57865W        W  777   1.604   7.936   0.108  0.0273 -0.0999  0.0060
57866W        W  778   2.525   7.502   3.513  0.2317 -0.0783  0.0915
57867W        W  779   0.390   8.327   3.259  0.1672  0.1960  0.0549
57868W        W  780   1.628  10.741   2.497 -0.0517  0.1479 -0.1167
57869W        W  781   2.103  10.843   3.366 -0.0201 -0.1097  0.0338
57870W        W  782   1.400   9.884   1.753  0.1079  0.1138  0.2422
57871W        W  783   3.357   7.460   3.892 -0.1977 -0.2918  0.0615
57872W        W  784   2.489   8.250  31.541 -0.1452  0.2050  0.1281
57873W        W  785   1.529   9.082   0.181 -0.1378  0.0149 -0.0126
57874W        W  786   1.575   9.384   1.082 -0.0582 -0.1022  0.0444
57875W        W  787   1.478   7.056   2.268  0.0335 -0.1673 -0.0357
57876W        W  788   3.000   8.949   2.595  0.1937  0.1335 -0.0441
57877W        W  789   1.957  10.186   0.562 -0.2168 -0.1052 -0.1166
57878W        W  790   1.309   9.465   4.126 -0.3211 -0.0528 -0.2526
57879W        W  791   1.314  11.083   0.668 -0.2667  0.2018  0.0727
57880W        W  792   3.415   8.146   2.490  0.0772  0.0814 -0.0348
57881W        W  793   0.726   9.583   2.212  0.1145 -0.0763 -0.0273
57882W        W  794   2.212   7.795   0.702 -0.0326  0.2442  0.5050
57883W        W  795   1.808   8.522   1.984 -0.2757 -0.1565  0.0848
57884W        W  796   3.165   7.354   2.146  0.0229  0.1139 -0.1685
57885W        W  797   3.104   9.803   1.143  0.0220  0.1674  0.3128
57886W        W  798   0.726   6.993   3.298 -0.1967  0.0113  0.1197
57887W        W  799   2.239   8.746   2.422 -0.1502  0.0169 -0.1572
57888W        W  800   1.517  11.211   2.122 -0.2869 -0.0162 -0.0526
57889W        W  801   2.565   9.838   3.298  0.1089 -0.0485 -0.0165
57890W        W  802   3.124   8.420   1.439 -0.2784 -0.3025 -0.0689
57891W        W  803   2.651  10.099   3.921 -0.0569  0.0299  0.0430
57892W        W  804   0.070   9.026   2.668 -0.2197 -0.1305  0.1546
57893W        W  805  33.692   7.177   1.409 -0.0935 -0.0407  0.0677
57894W        W  806   3.195   9.792   3.149 -0.1804 -0.2092  0.0258
57895W        W  807   1.631   8.922   1.655 -0.1899 -0.2169  0.0070
57896W        W  808   0.297   9.324   1.222  0.1116  0.0152 -0.1810
57897W        W  809   2.565  10.818   2.624 -0.1842  0.1142 -0.0305
57898W        W  810   1.371   8.495  30.874 -0.3130  0.2100 -0.2094
57899W        W  811   0.298   7.987   1.778 -0.0820  0.0628 -0.2188
57900W        W  812   1.378   7.426   4.848 -0.2318 -0.1703  0.0365
57901W        W  813   4.511   9.383   2.587 -0.2888  0.0735 -0.0137
57902W        W  814   1.551   8.347   2.856 -0.1766 -0.0666  0.0750
57903W        W  815   1.387   7.756   1.442 -0.4085 -0.2510 -0.0516
57904W        W  816   2.226   8.915   1.655  0.0428  0.0462 -0.3475
57905W        W  817   2.948   9.352   2.906  0.4863  0.1070 -0.0900
57906W        W  818   1.669   7.793   2.943 -0.2320 -0.3191 -0.3436
57907W        W  819   1.401  10.323   3.199 -0.2299 -0.1426 -0.1024
57908W        W  820   2.480   7.872   1.712  0.1701  0.3067 -0.3335
57909W        W  821   4.848   9.333   1.682  0.0727 -0.1424 -0.2611
57910W        W  822   3.588   9.758   2.835  0.0995  0.0251  0.0651
57911W        W  823   1.179   9.445   0.237 -0.1683  0.1068 -0.0241
57912W        W  824   0.239   9.758   2.465 -0.0715 -0.0496 -0.0790
57913W        W  825   0.630   9.029   0.663  0.0105 -0.1468  0.0222
57914W        W  826   2.011   8.302   2.485  0.2019 -0.2051 -0.1414
57915W        W  827   1.757   9.808   2.463  0.0470  0.2579  0.3427
57916W        W  828   1.474  10.757   1.853  0.1101  0.1422  0.1067
57917W        W  829   0.440  11.298   2.403  0.0782  0.1483  0.0456
57918W        W  830   3.668   7.356   1.273  0.2737  0.0204 -0.0290
57919W        W  831   2.190   9.681   0.426  0.1803 -0.1902  0.2167
57920W        W  832   1.995   8.418   1.217  0.3888 -0.0234  0.2680
57921W        W  833   3.004   8.918   3.994 -0.2727 -0.0115  0.0296
57922W        W  834   3.053   9.320   1.149  0.1126 -0.0270  0.2071
57923W        W  835   2.918   7.018   4.657 -0.1895  0.3145  0.1706
57924W        W  836   2.964   6.913   2.506  0.0143  0.1061 -0.2065
57925W        W  837   3.495   9.267   2.544  0.2198 -0.0225  0.1477
57926W        W  838   0.382   7.032   3.761 -0.0572  0.1080 -0.0887
57927W        W  839   2.215  10.010   4.107 -0.1641  0.0699 -0.0495
57928W        W  840  34.281   9.158   3.539  0.2157 -0.1637 -0.2374
57929W        W  841   2.022   8.142   1.638 -0.1595  0.1841 -0.0095
57930W        W  842   2.602   8.116   0.809 -0.3257  0.0102  0.1454
57931W        W  843   1.066   9.117   2.980  0.0460  0.2359 -0.3443
57932W        W  844   4.049   9.629   2.995 -0.3096  0.1894  0.1259
57933W        W  845   1.454  10.313   0.509 -0.0352  0.0976 -0.0147
57934W        W  846   3.834   7.768   1.566  0.0937 -0.0515  0.2661
57935W        W  847   0.951  10.121   3.035  0.0614  0.0067 -0.2243
57936W        W  848   3.983   9.067   1.752  0.0424 -0.0157 -0.1328
57937W        W  849   2.325  10.047   1.116 -0.0388  0.0234 -0.1673
57938W        W  850   0.071   8.855   1.209  0.3942  0.0618 -0.1421
57939W        W  851   0.518   5.973   3.842  0.0579 -0.1144 -0.1625
57940W        W  852   2.334   9.931   1.783  0.2808 -0.1172 -0.1525
57941W        W  853   2.974   7.702   1.835  0.1435 -0.0444  0.0140
57942W        W  854   3.126   6.952   3.003 -0.1461  0.1424  0.0379
57943W        W  855   2.773   8.404   3.073  0.0901 -0.3177  0.1494
57944W        W  856   1.671   7.285   3.184 -0.1668 -0.2833 -0.2928
57945W        W  857   0.981   7.105   3.719 -0.0533 -0.1849  0.2012
57946W        W  858   3.462  11.730   3.863 -0.2366 -0.1514  0.4691
57947W        W  859   4.293   9.139   0.061  0.1752 -0.0509  0.0748
57948W        W  860   3.402   7.989   2.982 -0.1206  0.0376 -0.0678
57949W        W  861   4.401   7.773   1.673 -0.0807 -0.4142  0.3852
57950W        W  862   1.950   9.186   1.319 -0.0332 -0.0362 -0.1709
57951W        W  863   1.081   8.630   2.085 -0.0292 -0.0300 -0.0535
57952W        W  864   2.803   7.932   5.196  0.4738  0.0668 -0.3164
57953W        W  865   0.635   7.979   0.312  0.2956  0.2091 -0.3778
57954W        W  866   2.555   7.865   3.198  0.2388 -0.1595 -0.2077
57955W        W  867   0.847  10.028   0.670 -0.0573  0.0485 -0.1335
57956W        W  868   2.446  10.952   2.049  0.0452 -0.2199  0.4106
57957W        W  869   2.942   8.644   0.578 -0.0322  0.1842  0.0170
57958W        W  870  34.628   7.094   3.953 -0.2060 -0.0095  0.2623
57959W        W  871   0.574  12.174   3.555  0.0469 -0.2180  0.3444
57960W        W  872   1.573   7.879  31.531 -0.1332  0.2345  0.0245
57961W        W  873   1.050   8.670  31.795 -0.0697 -0.0185  0.0576
57962W        W  874   2.285   8.862   3.388 -0.0531  0.0722 -0.1884
57963W        W  875   3.375  10.585   3.733  0.0568 -0.0579 -0.1330
57964W        W  876   3.344   8.564   0.888 -0.0026  0.1126  0.0029
57965W        W  877   3.296   8.402   4.200  0.0827  0.0652  0.0901
57966W        W  878   0.746   9.147   0.006  0.1342  0.0420  0.1167
57967W        W  879   2.156   7.053   2.019 -0.1408  0.0151 -0.1131
57968W        W  880   2.239  10.017   2.609  0.3978  0.0653  0.0822
57969W        W  881  34.340   9.585   3.145 -0.2615  0.0249 -0.0685
57970W        W  882   1.176   9.423   1.856 -0.0443  0.0265 -0.1676
57971W        W  883   2.639   7.093   2.897  0.3118  0.3298  0.2210
57972W        W  884   2.965   9.822   2.037  0.2193  0.0887 -0.0632
57973W        W  885   2.464   9.716   2.205  0.5651 -0.1521  0.0187
57974W        W  886   3.082   9.333   3.437 -0.0876  0.2784  0.4214
57975W        W  887   2.128   8.131   3.875  0.1351 -0.2012 -0.1695
57976W        W  888   1.735   8.721   2.468 -0.3268 -0.0162  0.0891
57977W        W  889   2.937  10.214   3.111 -0.4385  0.1126  0.1101
57978W        W  890   3.707   8.890   3.014  0.0828  0.2771  0.0216
57979W        W  891   1.461   9.152   2.636 -0.2538 -0.0094 -0.1011
57980W        W  892   1.330   8.068   3.186  0.2140 -0.1095  0.1001
57981W        W  893   0.922   9.170   3.844  0.3046 -0.2444  0.0451
57982W        W  894   2.436  10.273   2.215 -0.1349  0.2008  0.0793
57983W        W  895   1.949   7.639   0.225  0.0398  0.1351  0.3201
57984W        W  896   0.994   8.719   0.950 -0.4776 -0.1291  0.1873
57985W        W  897  34.266  11.047   2.725 -0.2344 -0.0138 -0.0751
57986W        W  898   0.775   7.758   2.615  0.0877 -0.1952 -0.0327
57987W        W  899   0.794   9.764   1.735 -0.2267  0.1006 -0.0348
57988W        W  900   2.709   9.869   1.449 -0.0971 -0.0175 -0.1017
57989W        W  901   2.032   9.727   1.369  0.1351 -0.1665  0.1818
57990W        W  902   2.420   9.306   3.223 -0.0411 -0.0090  0.1325
57991W        W  903   2.054   7.161   0.410 -0.2502 -0.2428  0.0845
57992W        W  904   1.116  10.332   1.981 -0.1416  0.0481  0.0010
57993W        W  905  34.486  10.163   1.033 -0.2160  0.2621 -0.0072
57994W        W  906   3.131  10.028  31.246  0.1297 -0.1736 -0.1209
57995W        W  907  34.380  10.468   1.937 -0.0716 -0.0312 -0.0117
57996W        W  908   3.092  11.447   4.165  0.0941 -0.1653 -0.2913
57997W        W  909   3.317   7.526   0.012  0.2465 -0.2052  0.1380
57998W        W  910   3.152   8.303   1.955  0.0980  0.0579 -0.0691
57999W        W  911   4.067   8.267  30.911  0.2849 -0.1088 -0.0563
58000W        W  912   2.154  12.004   4.813  0.0441 -0.2467  0.0479
58001W        W  913   0.992   8.046   2.216  0.1206 -0.1671 -0.2146
58002W        W  914   4.220   7.702  31.736 -0.3168  0.2474 -0.0519
58003W        W  915   0.825   7.509   3.350 -0.0282 -0.0442  0.1525
58004W        W  916   4.009   7.822   3.306 -0.0449 -0.3967 -0.1147
58005W        W  917   1.061   9.846   4.382 -0.3606 -0.0648 -0.1775
58006W        W  918   2.021   9.600   2.880  0.2476 -0.0123  0.0843
58007W        W  919   1.411   7.740   0.946 -0.2192  0.2615 -0.0555
58008W        W  920   2.911   8.681   1.081  0.2698  0.0203  0.0307
58009W        W  921   3.878   7.829   2.289  0.1036  0.1282  0.0617
58010W        W  922   2.047   8.235  31.132 -0.1468  0.0178 -0.0822
58011W        W  923   3.727   9.261   0.944 -0.2258 -0.1636 -0.4437
58012W        W  924   2.105  10.463   1.931  0.0016  0.1065 -0.1844
58013W        W  925   1.165  11.485   2.445  0.0397 -0.1990  0.0283
58014W        W  926   1.889  12.098   2.387  0.1849 -0.0439 -0.1470
58015W        W  927  33.149   7.346   0.671 -0.0825  0.1389  0.0657
58016W        W  928   4.341   9.110   2.099 -0.1305  0.3116  0.1401
58017W        W  929   0.045   7.933   3.263 -0.0785 -0.3185 -0.1169
58018W        W  930   3.473   7.102   2.663  0.2144 -0.1895  0.0262
58019W        W  931   3.100   8.986   0.224 -0.3339  0.0732 -0.2223
58020W        W  932   3.179   8.022   1.064 -0.0800  0.0049 -0.2585
58021W        W  933   0.804   8.081   3.120 -0.0834 -0.3462  0.1413
58022W        W  934   1.219   8.637   2.575  0.3463 -0.1762 -0.1810
58023W        W  935   3.590   8.674   0.228  0.1662  0.0676 -0.1167
58024W        W  936   4.450   8.971   4.009  0.0162  0.1135  0.0587
58025W        W  937   3.357   9.972   0.724 -0.0706 -0.0119 -0.1168
58026W        W  938   2.170  11.320   3.502  0.0619  0.2479 -0.5174
58027W        W  939   0.030   7.319   2.038 -0.2381  0.4668 -0.2082
58028W        W  940   3.127   8.492   0.097 -0.0904  0.0915  0.0373
58029W        W  941  34.614   8.221   2.600  0.0178 -0.0922 -0.0999
58030W        W  942   3.443   9.362   3.066 -0.0087  0.1167 -0.1191
58031W        W  943   3.648   9.712   3.359  0.0460  0.2132 -0.0412
58032W        W  944   1.644   8.407   1.554 -0.0441 -0.1369  0.2290
58033W        W  945   3.716   9.275   0.380 -0.0234 -0.0426  0.1341
58034W        W  946   2.645   9.060   2.099  0.0535  0.0011  0.0160
58035W        W  947   0.795   9.486   0.572 -0.0482  0.1143 -0.0820
58036W        W  948   1.922  10.317   1.022  0.1017  0.1149 -0.1332
58037W        W  949   1.519  10.237   2.315 -0.3140 -0.2030 -0.3646
58038W        W  950   0.668   7.471   3.864  0.0659 -0.0094 -0.1802
58039W        W  951   2.921  10.144   2.415  0.0942 -0.1341  0.0394
58040W        W  952   4.778   9.719   2.126  0.1717 -0.1293  0.1306
58041W        W  953   2.181   8.164   0.336  0.1869  0.0598 -0.2232
58042W        W  954   1.028   8.888   0.307  0.1250  0.1929  0.2314
58043W        W  955   0.327   9.656   0.457  0.0595 -0.2199 -0.0319
58044W        W  956   3.567   8.847   1.227  0.0649  0.1611 -0.0148
58045W        W  957   3.857   8.435   3.281  0.0319 -0.0211  0.0781
58046W        W  958   3.414  11.163   1.217  0.0047 -0.0567 -0.1805
58047W        W  959   4.289   6.329   3.316 -0.4257  0.1050 -0.3340
58048W        W  960   1.913   8.482   3.201 -0.0043 -0.3662  0.0236
58049W        W  961   0.147  11.764   2.613 -0.4466  0.2112 -0.2453
58050W        W  962   0.251   8.365   0.412  0.0175  0.0334 -0.0632
58051W        W  963   2.338   8.316   3.422 -0.0525  0.2579 -0.0255
58052W        W  964   1.950   8.992   2.031  0.0997 -0.1802 -0.1252
58053W        W  965   1.632   9.465   1.562 -0.1193 -0.0364 -0.2686
58054W        W  966   4.718  10.550   1.737 -0.1449 -0.2285 -0.0450
58055W        W  967   2.503   8.361   1.490 -0.0626 -0.0211  0.0056
58056W        W  968   3.302  10.229   2.038 -0.1971  0.0969 -0.2840
58057W        W  969   2.172   7.982   2.119  0.2568  0.1520  0.1490
58058W        W  970   3.922   6.800   0.111  0.0576  0.1280  0.1146
58059W        W  971   3.569   6.007   0.616  0.3020 -0.4598 -0.1101
58060W        W  972   2.704   8.893   3.046 -0.1803  0.0058 -0.1519
58061W        W  973   1.175   7.867   0.480 -0.2787  0.0739  0.1609
58062W        W  974   0.222  10.362   1.529  0.0575 -0.0985  0.0852
58063W        W  975   0.630   8.911   2.789 -0.0589  0.0720  0.2120
58064W        W  976   3.691   6.824   3.583 -0.0703  0.2744 -0.2565
58065W        W  977   0.065   7.524   4.552  0.0512  0.0998 -0.1777
58066W        W  978  33.991   8.567   1.551  0.0735 -0.1567  0.0242
58067W        W  979   1.794   7.336   2.652 -0.2279  0.0393 -0.0847
58068W        W  980   4.341   9.934  31.972  0.1502  0.0218 -0.0170
58069W        W  981   0.635   6.452   2.513 -0.4262 -0.0885  0.0094
58070W        W  982  34.091   6.990   1.253  0.1648  0.0565  0.1860
58071W        W  983   2.432  10.451   0.773 -0.0017 -0.2423  0.0777
58072W        W  984   3.720  11.004   2.623  0.2336  0.4638 -0.1432
58073W        W  985   1.422   8.309   2.292  0.1107 -0.3694  0.3911
58074W        W  986   2.787  10.207   1.787 -0.0197 -0.2666 -0.0385
58075W        W  987   0.503  10.141   1.127  0.1653 -0.2097 -0.0441
58076W        W  988   0.893   8.412   3.501  0.1453 -0.2431  0.1350
58077W        W  989   1.388   8.489   3.468  0.1712 -0.1817 -0.1909
58078W        W  990  33.925   6.599  31.837  0.1036  0.0349  0.4107
58079W        W  991   2.486   7.740   2.715  0.3330  0.0702  0.0564
58080W        W  992   2.311   8.515   2.895 -0.0162 -0.2933  0.5375
58081W        W  993   2.945  11.198  31.949  0.0558  0.0665  0.0767
58082W        W  994   1.313  10.148   4.055 -0.2010 -0.0192  0.0454
58083W        W  995   1.758   9.224   4.226  0.0371  0.0020  0.1143
58084W        W  996   1.855   5.894   3.542 -0.1404 -0.1457  0.1243
58085W        W  997   1.983  10.165   1.503  0.1717 -0.0261 -0.0643
58086W        W  998   1.399   9.396   3.558  0.1108 -0.2015 -0.0984
58087W        W  999   5.170  10.166   0.431 -0.1322  0.0810 -0.0383
58088W        W 1000   2.962   8.314   2.647 -0.1321 -0.5178 -0.3704
58089W        W 1001   2.522   9.445   1.207  0.1508  0.3729 -0.2683
58090W        W 1002   1.074   6.551   3.394 -0.1868 -0.0659  0.0981
58091W        W 1003   1.170   9.803   3.306 -0.4155  0.0324  0.1184
58092W        W 1004   3.497   9.705   2.199 -0.1906 -0.1822 -0.1343
58093W        W 1005   1.733   7.500   2.179 -0.2346 -0.1576  0.1176
58094W        W 1006   2.451   8.457   0.063  0.0329 -0.2260 -0.1540
58095W        W 1007   3.283  11.204   0.724 -0.1585  0.1979  0.1887
58096W        W 1008   1.157   7.520   2.451 -0.2473  0.3623  0.0628
58097W        W 1009   2.339   8.481   1.987  0.0302  0.1281 -0.3637
58098W        W 1010   1.700   7.703   3.882  0.1797  0.2259  0.0661
58099W        W 1011   3.094  11.161   2.991  0.1219  0.0259 -0.0041
58100W        W 1012   1.883  10.423   3.382  0.3114 -0.3474 -0.3966
58101W        W 1013   1.936   8.211  31.762 -0.2941  0.2967  0.1125
58102W        W 1014   4.820   9.281   0.045 -0.0053  0.0051 -0.1271
58103W        W 1015   1.454   9.875   2.882 -0.2216 -0.5246  0.3256
58104W        W 1016   2.397  10.369   3.335  0.1502 -0.1219  0.3242
58105W        W 1017   1.490   8.862   3.058  0.3402 -0.1162  0.0933
58106W        W 1018   2.831   8.656   3.548  0.0730  0.1782  0.0757
58107W        W 1019   2.179   7.232   4.368  0.2001  0.2877 -0.3339
58108W        W 1020   1.379   8.271  31.802  0.1434  0.1446  0.1998
58109W        W 1021   1.340   9.039   2.064 -0.0692  0.0099 -0.2446
58110W        W 1022   5.406   7.746   2.029 -0.1819  0.1549  0.0569
58111W        W 1023   0.469   7.100   2.008 -0.1979 -0.1664  0.0591
58112W        W 1024   3.881   8.687  31.705  0.1453  0.0752 -0.1633
58113W        W 1025   1.059  12.152   2.842  0.0669 -0.2124  0.0896
58114W        W 1026   2.091   8.083   2.993 -0.2392 -0.1757 -0.0642
58115W        W 1027   1.017   9.384   7.944  0.2536  0.0235 -0.0769
58116W        W 1028  34.284   7.785   4.486 -0.0949 -0.1159 -0.1136
58117W        W 1029   4.727   7.721   4.147  0.1308 -0.2566  0.1978
58118W        W 1030   4.780   9.920   5.882  0.1259  0.1551  0.2637
58119W        W 1031  34.265   8.229   3.555  0.0684  0.2512 -0.1944
58120W        W 1032   2.177  11.070   3.944  0.1951  0.1899 -0.0790
58121W        W 1033   0.729   7.109   6.404 -0.0299 -0.2375  0.0772
58122W        W 1034   3.644  10.217   5.807  0.8002 -0.4084  0.1165
58123W        W 1035   3.020   9.200   6.041 -0.1006 -0.0145 -0.2430
58124W        W 1036   1.844   7.955   3.439 -0.1224 -0.3307  0.1463
58125W        W 1037   2.785   8.904   6.392  0.1557 -0.1277 -0.0999
58126W        W 1038   1.800   9.444   5.420 -0.2296 -0.0018  0.0507
58127W        W 1039   3.067   7.253   5.112  0.1308 -0.1744 -0.2888
58128W        W 1040   0.081   8.268   6.542  0.0945 -0.0398 -0.0110
58129W        W 1041   3.165   7.883   7.239  0.2166  0.2242  0.2241
58130W        W 1042   0.497   9.431   4.465 -0.1695  0.1768 -0.2493
58131W        W 1043   2.146   8.722   5.927  0.2549 -0.3595 -0.3168
58132W        W 1044   1.378   7.947   4.351 -0.0115  0.1851  0.1854
58133W        W 1045   1.549  11.072   5.768 -0.1078 -0.5451  0.1875
58134W        W 1046   2.668   8.436   6.708 -0.0750  0.1039  0.0069
58135W        W 1047   2.937   6.763   7.338  0.0059  0.0861 -0.1046
58136W        W 1048   1.085  10.339   4.471 -0.0677  0.2038  0.0537
58137W        W 1049   1.096   8.915   4.806 -0.2800 -0.1864 -0.1100
58138W        W 1050  34.207   9.754   4.433  0.1153  0.1964 -0.1271
58139W        W 1051   0.815   8.952   6.156  0.0364 -0.0581  0.0192
58140W        W 1052   3.975   7.389   5.997 -0.0476 -0.1743 -0.1696
58141W        W 1053   1.959   9.277   5.008 -0.0267  0.0166 -0.1435
58142W        W 1054   1.258  10.214   5.034  0.1548 -0.0010  0.0038
58143W        W 1055   1.794  10.893   6.301  0.0850 -0.0148  0.2512
58144W        W 1056   3.698   7.960   7.740 -0.0174 -0.0938  0.0302
58145W        W 1057  34.375   8.828   5.830  0.0112  0.1448  0.1487
58146W        W 1058   0.629  11.141   4.150 -0.1973  0.0953  0.0985
58147W        W 1059   1.691  11.801   4.195  0.1127  0.1262  0.0955
58148W        W 1060   4.341   9.129   5.908 -0.0007  0.1098 -0.1124
58149W        W 1061   2.167  10.702   5.423  0.1966 -0.2366  0.0160
58150W        W 1062   1.445  10.425   8.644  0.0633 -0.0514 -0.0676
58151W        W 1063   1.037  10.181   3.587  0.0377  0.0862  0.0920
58152W        W 1064   2.751  10.009   7.420 -0.0259 -0.0802 -0.3364
58153W        W 1065   1.471   9.572   6.870  0.2269  0.1074  0.0924
58154W        W 1066   2.075   8.775   5.017  0.2060  0.2243 -0.0702
58155W        W 1067   1.395   9.413   4.660  0.0804 -0.1797  0.1655
58156W        W 1068   0.530  11.607   3.534 -0.3918  0.3939  0.3843
58157W        W 1069   2.767   9.746   4.247 -0.0741  0.2502  0.1947
58158W        W 1070   1.963   8.929   5.541 -0.0886  0.0906 -0.2492
58159W        W 1071  34.291   9.362   5.057  0.0211  0.1836  0.0844
58160W        W 1072   4.074   8.506   6.530  0.1385  0.1838  0.0049
58161W        W 1073   0.787  11.907   5.208 -0.1371 -0.0120  0.2727
58162W        W 1074   4.042   9.363   4.860 -0.1987  0.0345  0.0535
58163W        W 1075   0.667   6.626   3.811  0.1427  0.2249 -0.1389
58164W        W 1076   2.638   9.109   3.731 -0.2476  0.0890  0.1292
58165W        W 1077   1.848   8.310   4.624  0.2623 -0.0954  0.3113
58166W        W 1078   0.591   9.996   5.296  0.2338  0.1355  0.2627
58167W        W 1079   3.102   7.290   7.302  0.0006 -0.0840 -0.2616
58168W        W 1080   3.697   9.717   4.874 -0.1070  0.2125 -0.1244
58169W        W 1081   3.083   8.603   4.819 -0.1050 -0.0646  0.1328
58170W        W 1082   2.788   8.675   5.892  0.1431 -0.4441  0.0975
58171W        W 1083   1.189  10.044   6.810  0.0109  0.1582 -0.1169
58172W        W 1084   0.318   8.936   5.749 -0.0510 -0.0372  0.0830
58173W        W 1085   2.710  11.718   4.200 -0.0112 -0.2267 -0.0480
58174W        W 1086   2.535  10.531   4.823 -0.1868  0.0129 -0.2332
58175W        W 1087   2.191   9.493   4.308  0.1648  0.0670  0.0432
58176W        W 1088   2.019   8.413   5.556 -0.0601 -0.1579  0.2392
58177W        W 1089   1.719   9.115   6.811  0.1188  0.0012 -0.0555
58178W        W 1090   1.219   8.212   6.643  0.1326  0.2453 -0.2172
58179W        W 1091   2.483   6.820   4.425 -0.1689  0.2303  0.0809
58180W        W 1092   3.429   9.390   7.297  0.0289 -0.1594 -0.0923
58181W        W 1093  34.329   9.805   7.690 -0.1557 -0.1641  0.0590
58182W        W 1094   3.732   8.141   5.492  0.4601  0.4776  0.1612
58183W        W 1095   0.889   8.655   4.461 -0.1586 -0.0537 -0.3583
58184W        W 1096   2.738   9.515   6.401 -0.0335 -0.0047 -0.1819
58185W        W 1097   3.465   9.000   4.893  0.2052  0.0709  0.0350
58186W        W 1098   2.417   8.358   5.848  0.2433  0.0642 -0.1873
58187W        W 1099   1.831   7.122   7.045  0.1000  0.2283 -0.2766
58188W        W 1100  34.412   9.718   3.599  0.0336  0.1267 -0.0226
58189W        W 1101   1.785   8.949   4.631 -0.1348  0.0752  0.2617
58190W        W 1102   3.767   8.973   6.162  0.0102  0.1679 -0.0372
58191W        W 1103   3.399   8.738   3.377 -0.0316 -0.3534  0.0879
58192W        W 1104   0.572   9.666   6.589 -0.1929 -0.0283 -0.0792
58193W        W 1105   0.972   8.429   6.216  0.0953  0.0627  0.0464
58194W        W 1106   2.483   9.119   6.039  0.1398  0.1043  0.1426
58195W        W 1107   0.503  11.284   4.627  0.0267 -0.3445  0.0929
58196W        W 1108   0.894  10.408   5.498  0.1634 -0.0205 -0.1989
58197W        W 1109   0.116  10.451   4.564  0.1996 -0.0501  0.0810
58198W        W 1110   1.792   7.321   6.548  0.0177 -0.2121  0.1924
58199W        W 1111   0.769   9.900   5.762 -0.4778  0.0858  0.0164
58200W        W 1112   5.437   7.627   4.734 -0.1014 -0.3087 -0.1165
58201W        W 1113   1.470   7.028   7.377  0.0148  0.1223 -0.1135
58202W        W 1114   2.719   7.804   5.692  0.2099 -0.0315 -0.0841
58203W        W 1115   0.792  10.780   4.460  0.0043  0.2910 -0.1242
58204W        W 1116   3.045  10.463   4.913  0.0143  0.0811 -0.0054
58205W        W 1117   3.809   7.571   4.834  0.3666  0.3334  0.1716
58206W        W 1118   2.199  11.475   4.581 -0.1107 -0.4618  0.0863
58207W        W 1119   0.265   9.162   6.731 -0.0004 -0.0042  0.0903
58208W        W 1120   2.339   7.731   4.453 -0.3226 -0.4745 -0.2814
58209W        W 1121   2.343   7.273   7.289 -0.3528  0.0019 -0.0385
58210W        W 1122   1.338   8.140   5.339 -0.1955  0.1620 -0.0504
58211W        W 1123   2.576   9.038   7.203 -0.2018 -0.0453 -0.4479
58212W        W 1124   0.192   7.360   5.507 -0.4409 -0.0073 -0.0177
58213W        W 1125   3.760   8.348   6.024  0.0328 -0.0944 -0.1879
58214W        W 1126   1.910   8.221   5.125 -0.1665  0.1281  0.0695
58215W        W 1127  34.554   9.975   4.135  0.2057 -0.0453 -0.2658
58216W        W 1128   4.284   7.144   7.796  0.1310  0.3367  0.1007
58217W        W 1129   1.934   9.560   3.863 -0.1529 -0.0352  0.1321
58218W        W 1130   5.279  12.206   6.564  0.2900  0.3258  0.0100
58219W        W 1131   3.426  10.201   3.387  0.0133  0.0654  0.0149
58220W        W 1132   1.273   8.787   6.096  0.2827  0.0212  0.1598
58221W        W 1133   1.504   8.549   4.950 -0.0108 -0.2608  0.0538
58222W        W 1134   1.990   9.566   6.786  0.1972  0.1236 -0.0971
58223W        W 1135   1.467   9.683   5.087 -0.1148  0.1533  0.0060
58224W        W 1136   0.545   8.194   3.861  0.0637 -0.0149  0.2263
58225W        W 1137   3.389   9.621   4.317  0.0485  0.2084  0.4305
58226W        W 1138   3.041   9.237   4.389  0.0635 -0.2610 -0.2445
58227W        W 1139   2.015  10.520   7.091  0.1293  0.0093 -0.0414
58228W        W 1140   3.294   7.313   7.790 -0.4581  0.2308 -0.1850
58229W        W 1141   3.355   8.027   6.191  0.1374  0.0906 -0.0064
58230W        W 1142   2.523   9.233   5.101 -0.4149 -0.1175 -0.2080
58231W        W 1143   0.581   7.780   4.237  0.2994 -0.0170 -0.1651
58232W        W 1144   3.681   9.221   4.498 -0.2078 -0.1742  0.0199
58233W        W 1145   0.291  10.942   3.810  0.1281  0.0437  0.1512
58234W        W 1146  34.140   7.976   4.925  0.0844 -0.0343  0.0574
58235W        W 1147   0.565  10.004   3.650  0.1994 -0.1582  0.3137
58236W        W 1148   4.323   6.979   5.847 -0.1109  0.2539 -0.3544
58237W        W 1149   2.234   7.821   7.345  0.0653 -0.1208  0.2440
58238W        W 1150   2.931   8.627   7.756  0.1578 -0.0295 -0.1358
58239W        W 1151   0.184   8.728   5.049  0.2305  0.2525  0.3316
58240W        W 1152   1.457  10.428   7.279 -0.2315 -0.0492  0.0408
58241W        W 1153   3.498   7.784   4.291  0.0396 -0.0856  0.1756
58242W        W 1154   5.107   7.269   3.425  0.1028  0.1200  0.1374
58243W        W 1155   2.852   8.476   7.263  0.2672 -0.3253  0.2233
58244W        W 1156   5.082   8.343   3.698 -0.1471 -0.0648  0.1034
58245W        W 1157   2.155   7.621   3.064  0.0605  0.1159  0.0354
58246W        W 1158   0.201   8.256   5.204 -0.3551  0.0439  0.2872
58247W        W 1159   0.548  11.969   7.994 -0.1023 -0.0483 -0.0764
58248W        W 1160   0.933   9.169   4.341 -0.0982  0.4107  0.0859
58249W        W 1161   1.970   8.159   6.083 -0.1510 -0.0680 -0.3426
58250W        W 1162   1.026   8.157   4.123 -0.1715 -0.1553  0.0471
58251W        W 1163   4.110   9.746   5.187  0.2429 -0.0855  0.0265
58252W        W 1164   1.001   7.751   6.805 -0.5336 -0.2653  0.1164
58253W        W 1165   1.806  10.601   7.616  0.0802 -0.4203  0.0959
58254W        W 1166   2.196   9.708   5.149  0.1552 -0.0423  0.1729
58255W        W 1167   2.002   7.794   6.420 -0.0451 -0.2791 -0.2379
58256W        W 1168   1.476   7.610   3.468  0.0579  0.0255  0.3833
58257W        W 1169   2.785   8.327   5.527 -0.0069 -0.0780 -0.2198
58258W        W 1170   0.737  11.017   5.046 -0.2061  0.1230 -0.3269
58259W        W 1171   2.988   6.826   5.586 -0.0740  0.1422  0.0122
58260W        W 1172   2.969   7.350   5.638 -0.0497  0.0099 -0.0388
58261W        W 1173   2.629   7.659   6.181  0.1079  0.2163  0.0835
58262W        W 1174   3.930   8.919   8.698  0.0890  0.2861  0.0857
58263W        W 1175   3.642   8.063   4.947 -0.1541 -0.3562  0.0357
58264W        W 1176   3.053   9.256   5.048 -0.2217 -0.1892 -0.4116
58265W        W 1177   0.495   9.119   3.615 -0.0518  0.0377 -0.2290
58266W        W 1178   2.761   7.103   8.149  0.2752 -0.2075  0.4079
58267W        W 1179   1.195   9.305   6.033  0.0048  0.0221  0.0216
58268W        W 1180   0.633  10.130   6.802  0.0997  0.1461  0.1766
58269W        W 1181   3.885   8.958   7.284 -0.1793 -0.2119 -0.1778
58270W        W 1182   3.631  10.486   4.222 -0.1881  0.0759 -0.2832
58271W        W 1183   2.300   7.199   6.273 -0.2120 -0.0712 -0.0028
58272W        W 1184   1.060   7.561   4.387 -0.0534  0.0167 -0.0255
58273W        W 1185   0.822  11.063   3.553  0.0027 -0.0043  0.1413
58274W        W 1186   2.524   9.077   4.224 -0.2731 -0.0533 -0.1863
58275W        W 1187   1.335   8.353   7.096  0.2408  0.4102 -0.1939
58276W        W 1188   1.737  10.000   5.416  0.4283 -0.0280 -0.3271
58277W        W 1189   1.474  11.568   3.748  0.1647  0.1343  0.2446
58278W        W 1190   2.959   9.104   6.821 -0.1962 -0.1111  0.6168
58279W        W 1191   0.563   9.531   3.909 -0.4114  0.0797 -0.1471
58280W        W 1192   3.425   7.588   6.348  0.0926  0.0126  0.0217
58281W        W 1193   0.045  10.258   6.024 -0.0882  0.1813  0.0017
58282W        W 1194   0.004   9.012   3.843 -0.0861  0.0236  0.0542
58283W        W 1195  33.499   8.099   4.011 -0.2086  0.2320  0.0009
58284W        W 1196   4.379   7.681   6.850 -0.0298  0.1029 -0.2394
58285W        W 1197   3.892   8.303   4.418 -0.0251  0.0418 -0.1645
58286W        W 1198   0.339   9.241   6.193  0.3192 -0.2219 -0.1245
58287W        W 1199   1.676   7.393   5.570  0.2721  0.3351 -0.3016
58288W        W 1200  34.033  10.325   5.306  0.4396  0.0042 -0.0506
58289W        W 1201   1.879   9.655   4.689  0.0107  0.1225  0.4063
58290W        W 1202   4.084   7.930   4.705  0.1450  0.0632  0.0948
58291W        W 1203   2.960   9.433   3.897  0.0302 -0.2393  0.1932
58292W        W 1204   2.058   8.524   6.942 -0.3872  0.1990  0.0853
58293W        W 1205   0.804   8.684   3.948 -0.1886  0.0752 -0.3151
58294W        W 1206   3.815   8.447   7.505 -0.5924  0.1724 -0.2786
58295W        W 1207   0.971   8.660   6.753 -0.1824  0.1538 -0.0868
58296W        W 1208   1.528  10.572   4.752  0.2966 -0.1897  0.0525
58297W        W 1209   1.714  10.344   4.335  0.0279 -0.1774  0.0438
58298W        W 1210   0.342   8.683   3.684 -0.1031 -0.2364 -0.1145
58299W        W 1211   0.228  10.228   5.007  0.2722  0.5409 -0.3142
58300W        W 1212   1.940   6.924   7.485 -0.0651  0.0674 -0.1778
58301W        W 1213   3.333   9.129   6.432  0.0933 -0.0837  0.0929
58302W        W 1214   1.520   9.081   5.246  0.1307 -0.0414  0.4299
58303W        W 1215   2.286   7.865   5.865 -0.2361 -0.2935  0.0652
58304W        W 1216   2.495   8.466   5.144  0.2092  0.0585  0.3795
58305W        W 1217   3.169   9.740   5.229 -0.0973  0.1415  0.0580
58306W        W 1218   3.381   8.697   7.264 -0.0289 -0.3443  0.1708
58307W        W 1219   0.985  10.068   7.284  0.2955  0.1057 -0.0933
58308W        W 1220   2.062   6.447   6.884 -0.1121 -0.1883  0.0984
58309W        W 1221   3.871  10.384   3.702  0.0094 -0.0776  0.1799
58310W        W 1222   2.756   8.163   4.762  0.1159 -0.0551  0.1186
58311W        W 1223   0.917   9.543   5.368 -0.2909  0.4359  0.3156
58312W        W 1224   0.457   9.440   5.770 -0.0815 -0.0198  0.2479
58313W        W 1225   0.134  10.265   3.790  0.1070 -0.0603  0.0217
58314W        W 1226   2.664   7.095   7.629  0.0234 -0.1793 -0.0223
58315W        W 1227   0.544   8.648   5.342 -0.0115 -0.0161 -0.0439
58316W        W 1228   0.478   9.264   3.142 -0.1729 -0.0720  0.1452
58317W        W 1229   1.687  10.474   6.643  0.0680  0.0833 -0.1876
58318W        W 1230   3.328   8.264   3.519 -0.1583 -0.0841  0.0511
58319W        W 1231   1.532   9.830   3.736 -0.0594  0.1278  0.0146
58320W        W 1232   2.964   8.775   5.326 -0.1780  0.3240  0.3191
58321W        W 1233   3.731   7.069   7.880  0.1615  0.0142 -0.2511
58322W        W 1234   3.695   7.252   4.262 -0.1864  0.1269  0.3422
58323W        W 1235   4.600   9.794   7.748  0.3001  0.2474  0.2487
58324W        W 1236   1.759   8.945   6.255 -0.3225  0.0275 -0.1404
58325W        W 1237   2.722  10.011   5.008  0.0568  0.0990 -0.2427
58326W        W 1238   0.731   8.209   7.153 -0.1972  0.1752  0.0246
58327W        W 1239   1.413  11.250   6.263 -0.3491  0.1413  0.2262
58328W        W 1240   1.329   9.033   6.519 -0.0803 -0.0679 -0.3129
58329W        W 1241   2.594   7.866   3.815 -0.2952  0.0974  0.0010
58330W        W 1242   0.871   6.666   5.431  0.1055  0.1105  0.1452
58331W        W 1243   3.332   8.837   5.924 -0.2069 -0.2626  0.0597
58332W        W 1244   4.783  10.335   4.121 -0.1151 -0.2303 -0.0893
58333W        W 1245   0.981  10.638   3.325  0.3131 -0.0187  0.0708
58334W        W 1246   2.835   8.515   4.380  0.2779 -0.1634  0.1591
58335W        W 1247   1.132   8.771   5.371  0.0944 -0.1048 -0.3795
58336W        W 1248   4.537   8.611   6.475 -0.1484  0.1816 -0.0018
58337W        W 1249   0.081   9.343   3.458 -0.1835  0.0463  0.0851
58338W        W 1250   0.383   9.373   5.257  0.3538 -0.2215  0.0779
58339W        W 1251   2.004   8.339   6.503  0.0881 -0.0471 -0.0005
58340W        W 1252   2.750   8.041   6.993  0.0698  0.0683  0.2828
58341W        W 1253   3.322   8.870   4.406 -0.2174  0.0035 -0.2455
58342W        W 1254   2.226   8.091   6.891  0.0704  0.0830  0.0554
58343W        W 1255   2.593   7.516   5.339 -0.2361  0.1388 -0.2077
58344W        W 1256   2.040   8.232   7.694 -0.0835 -0.1113  0.1164
58345W        W 1257   0.529   7.450   7.673  0.1922 -0.3611 -0.1683
58346W        W 1258   3.500  11.006   5.737  0.2855 -0.3520 -0.2081
58347W        W 1259   3.498   9.571   3.792 -0.0788 -0.3833 -0.3297
58348W        W 1260   3.713   8.132   6.671 -0.0819  0.2704 -0.1818
58349W        W 1261   5.041   8.433   5.109  0.1604  0.3233 -0.3338
58350W        W 1262   2.507   8.663   3.939  0.0602 -0.0613  0.2516
58351W        W 1263   1.356   8.259   5.852  0.1561  0.1776 -0.1199
58352W        W 1264   2.731   8.053   7.544  0.0416  0.1072 -0.0035
58353W        W 1265   1.226   7.504   3.922 -0.1017  0.1655 -0.2541
58354W        W 1266   2.860   8.199   6.010 -0.0171  0.1074 -0.1436
58355W        W 1267   2.371  10.977   4.649  0.0489 -0.1933  0.1614
58356W        W 1268   2.263   9.120   4.652 -0.1269  0.1061  0.0833
58357W        W 1269   3.208   7.930   3.904  0.2148 -0.0522 -0.0297
58358W        W 1270   1.724   7.984   5.687 -0.2071  0.0085 -0.0963
58359W        W 1271   0.458  10.050   7.450  0.0903  0.3636  0.0724
58360W        W 1272   0.467   9.695   4.927  0.0256  0.2261  0.2960
58361W        W 1273   1.690   8.550   5.942 -0.0508 -0.1774  0.2038
58362W        W 1274   0.958   9.809   4.896 -0.0876 -0.1286  0.1545
58363W        W 1275   3.600   9.993   7.540 -0.2544  0.0124  0.2246
58364W        W 1276   2.335   7.130   3.786 -0.0256  0.0701  0.0091
58365W        W 1277   4.136   7.947   7.474 -0.1469  0.0960  0.0331
58366W        W 1278   0.317  10.839   4.784  0.1451  0.1138  0.0909
58367W        W 1279   3.281   9.511   5.756  0.0019 -0.2032 -0.1844
58368W        W 1280   1.290  10.625   5.676  0.1032  0.1665  0.0749
58369W        W 1281   1.196   9.594   6.449 -0.2014 -0.0929  0.0191
58370W        W 1282   0.654  10.102   4.684  0.3340 -0.1712 -0.1249
58371W        W 1283   2.708   7.635   7.332 -0.2420  0.0736  0.0470
58372W        W 1284   3.573   8.549   4.753  0.0624  0.0570  0.0056
58373W        W 1285   1.722   8.111   6.871 -0.0262  0.0286  0.0385
58374W        W 1286   3.300   8.324   7.581  0.1010  0.1721 -0.1031
58375W        W 1287   2.037   9.089   7.208 -0.2910 -0.0576 -0.0209
58376W        W 1288  34.551   9.706   5.892  0.1734 -0.0203 -0.1947
58377W        W 1289   2.602   9.823   6.800  0.2576 -0.1213 -0.1982
58378W        W 1290   3.868   9.541   4.177  0.0336 -0.0323  0.0235
58379W        W 1291   0.516   9.014   4.114 -0.0734  0.0123 -0.0176
58380W        W 1292   0.272   8.211   7.988 -0.0153  0.1849  0.0528
58381W        W 1293   1.743   9.445   7.697  0.2090 -0.2025  0.1668
58382W        W 1294   1.558   9.059   5.726 -0.2408 -0.1079 -0.1741
58383W        W 1295   1.952   6.036   4.077 -0.0242 -0.1719  0.2152
58384W        W 1296   1.284  10.847   4.351 -0.0148  0.0287 -0.0518
58385W        W 1297  34.269  10.737   7.829 -0.2827 -0.0229 -0.2198
58386W        W 1298   0.768   9.513   6.192  0.0966  0.1925 -0.1076
58387W        W 1299   0.074  11.685   5.865  0.0024  0.3356 -0.2223
58388W        W 1300   3.524   9.085   3.981  0.0169  0.1457 -0.3521
58389W        W 1301   1.756   8.480   4.137  0.3279  0.0966 -0.1661
58390W        W 1302   1.783  10.628   5.772  0.2676  0.5968  0.0636
58391W        W 1303   0.353   8.100   2.826  0.0239 -0.2359  0.3314
58392W        W 1304   0.521  10.825   3.174 -0.1503 -0.1501  0.1509
58393W        W 1305  33.824  10.171   4.258 -0.0659  0.0662  0.1903
58394W        W 1306   2.846  11.951   5.233  0.1905  0.3828  0.0020
58395W        W 1307   0.740  10.530   4.902  0.4721  0.1927  0.0353
58396W        W 1308   3.299   9.987   8.395  0.0947  0.0370 -0.3164
58397W        W 1309   4.858   6.986   2.790 -0.1360  0.1874  0.2164
58398W        W 1310   3.905   9.066   5.197 -0.0959  0.0353  0.1567
58399W        W 1311   4.274   8.442   4.814 -0.2012  0.0582  0.1007
58400W        W 1312   4.206  10.433   6.780  0.0654 -0.1297 -0.1316
58401W        W 1313   0.276   7.904   5.629 -0.1932 -0.2909 -0.0129
58402W        W 1314   1.706   6.666   4.852  0.0954 -0.3217  0.0563
58403W        W 1315   1.602   9.984   8.825  0.2505  0.1995  0.4238
58404W        W 1316   3.478   7.306   5.931 -0.0025 -0.1169  0.0718
58405W        W 1317  33.917  10.811   5.275 -0.0513  0.1314 -0.0015
58406W        W 1318   4.282   9.719   4.561 -0.1649 -0.1030 -0.0296
58407W        W 1319  34.532   6.974   5.251 -0.0071  0.3309  0.0450
58408W        W 1320   1.393   8.880   4.347 -0.1057 -0.1324  0.0676
58409W        W 1321   3.910   7.622   5.378  0.0640  0.0611  0.1446
58410W        W 1322   1.762   8.993   3.451  0.0869 -0.3090 -0.0890
58411W        W 1323   3.138   8.557   6.271 -0.3568  0.1547  0.3036
58412W        W 1324   1.229  11.157   4.781  0.1029  0.2662 -0.2823
58413W        W 1325   2.485  10.958   5.142 -0.0933 -0.0182  0.0366
58414W        W 1326   2.173   9.418   6.327  0.1173  0.0494 -0.2645
58415W        W 1327  34.359   7.390   5.512 -0.1927 -0.1799  0.0169
58416W        W 1328   5.955   7.500   5.600 -0.1232 -0.2503 -0.0227
58417W        W 1329   0.858   9.119   5.585  0.3728 -0.0108 -0.0202
58418W        W 1330   4.141   8.762   7.705  0.1551  0.2449 -0.2814
58419W        W 1331   0.826   8.622   5.774  0.0721  0.1758  0.2054
58420W        W 1332   2.696   8.868   4.729 -0.0888 -0.1951  0.2078
58421W        W 1333   2.470   9.338   6.802 -0.1340  0.0196 -0.4267
58422W        W 1334   0.519   8.776   6.467  0.0833  0.1846  0.1807
58423W        W 1335   0.545   9.977   2.776  0.3093  0.1382 -0.1638
58424W        W 1336   3.233   8.137   6.774  0.0248 -0.2335  0.0840
58425W        W 1337   2.350   8.076   5.420  0.4007 -0.1765  0.1857
58426W        W 1338   1.890  10.913   6.821  0.1292 -0.0411 -0.2208
58427W        W 1339   2.159   7.615   3.950  0.0313 -0.0769  0.0975
58428W        W 1340   2.870   7.890   4.292  0.1306  0.0489 -0.1344
58429W        W 1341  34.397   8.424   5.120  0.1128  0.0383  0.0539
58430W        W 1342   1.466   9.963   4.656  0.3184  0.1228  0.1325
58431W        W 1343   4.605  11.164   6.888 -0.0465 -0.2117 -0.3937
58432W        W 1344   0.654   7.544   6.125 -0.3387 -0.1149  0.2309
58433W        W 1345   2.742  10.212   4.458 -0.1242 -0.2359 -0.0163
58434W        W 1346   3.598   7.579   7.392 -0.0857  0.1512 -0.1281
58435W        W 1347   1.068  11.479   3.469 -0.1858  0.0944 -0.3710
58436W        W 1348   2.584   9.589   4.659  0.0117  0.2482  0.1847
58437W        W 1349   1.834  10.098   4.957 -0.1359 -0.2306 -0.0744
58438W        W 1350   0.471   8.425   6.150 -0.0495  0.2089 -0.1172
58439W        W 1351   2.992  10.627   6.955  0.3710 -0.2522 -0.0260
58440W        W 1352   3.514  10.141   5.068  0.0135  0.0256  0.1584
58441W        W 1353   3.215   8.127   4.613 -0.1030 -0.2862  0.0473
58442W        W 1354   1.367   9.527   5.584  0.1666 -0.1715 -0.1271
58443W        W 1355   1.271  10.324   6.402  0.2470  0.1406 -0.0274
58444W        W 1356   3.452   8.274   8.040  0.3145 -0.1411  0.1300
58445W        W 1357   3.449   7.008   7.439  0.0164 -0.0134  0.0618
58446W        W 1358   0.891  11.491   4.479  0.1513 -0.1255 -0.0290
58447W        W 1359   3.345   6.826   6.896  0.2284  0.0988 -0.0847
58448W        W 1360   2.281   9.670   5.761  0.1131 -0.3404 -0.0262
58449W        W 1361   0.888  10.492   8.000 -0.2156 -0.2036 -0.0596
58450W        W 1362   0.135   9.923   3.386 -0.0217  0.2576  0.2181
58451W        W 1363   1.336  10.663   7.899 -0.0969 -0.1143 -0.1903
58452W        W 1364   0.893   9.358   3.418  0.0983 -0.0889  0.0122
58453W        W 1365   0.663  11.948   3.972 -0.0846 -0.4050 -0.0627
58454W        W 1366   2.215  10.023   7.155  0.2656 -0.2747 -0.2460
58455W        W 1367   1.561   8.614   5.464 -0.1152  0.2789  0.1583
58456W        W 1368   2.960  10.931   4.977 -0.0871 -0.0654 -0.2124
58457W        W 1369   3.301   8.259   5.722 -0.2172 -0.1731  0.2912
58458W        W 1370   5.245   7.719   3.897  0.1985 -0.3419  0.0451
58459W        W 1371   4.199   7.478   4.512  0.3060  0.2193 -0.2675
58460W        W 1372   1.540   8.620   6.697 -0.0531  0.1311 -0.3906
58461W        W 1373  34.354   8.913   4.881  0.1600  0.0511 -0.0356
58462W        W 1374   0.854  11.514   3.917 -0.0114  0.3668  0.0979
58463W        W 1375   1.597   9.937   6.474 -0.0083  0.2926  0.1659
58464W        W 1376   2.548   6.594   8.304 -0.5112  0.1231  0.1038
58465W        W 1377   1.550   8.137   6.306  0.3389  0.0728  0.0498
58466W        W 1378  34.245   9.620   5.542  0.2473  0.0872 -0.0030
58467W        W 1379   1.264   6.983   4.658  0.2234 -0.2924 -0.2771
58468W        W 1380   4.929   9.651   4.231 -0.2813 -0.3767 -0.1754
58469W        W 1381   1.581   7.624   6.107 -0.2012  0.1220 -0.0687
58470W        W 1382   0.910   7.149   5.678  0.2063  0.0298  0.0995
58471W        W 1383   4.139   9.150   4.383 -0.1603 -0.1139 -0.2528
58472W        W 1384   2.469   9.579   3.800  0.0535  0.1998  0.2111
58473W        W 1385   3.190   8.223   5.083 -0.0697 -0.1271  0.2829
58474W        W 1386   3.541  10.475   7.683  0.2648  0.0795  0.1114
58475W        W 1387   0.632   9.732   3.242 -0.0507 -0.0049  0.0473
58476W        W 1388   2.393   8.559   6.312 -0.1447  0.1457  0.0226
58477W        W 1389   2.845   6.685   7.891  0.1985 -0.0032  0.1460
58478W        W 1390   1.017   7.715   4.998  0.1964  0.5032  0.0089
58479W        W 1391   2.333   9.263   5.532 -0.2025 -0.1543  0.1028
58480W        W 1392   2.018  10.607   4.913 -0.2562 -0.1998  0.1097
58481W        W 1393   2.172  10.591   2.971 -0.3286 -0.0421  0.1208
58482W        W 1394   2.837   9.240   5.577  0.2010  0.2398 -0.0832
58483W        W 1395   1.274  10.190   7.699  0.3362 -0.2635 -0.0016
58484W        W 1396   1.170   7.934   7.270  0.0447  0.1340 -0.1829
58485W        W 1397   3.065   9.709   4.709  0.0711  0.1866 -0.0746
58486W        W 1398   2.452   8.763   5.547 -0.0059  0.5600 -0.1821
58487W        W 1399   2.927  10.403   3.616  0.0155  0.0277 -0.1009
58488W        W 1400   4.200   7.988   6.531  0.2688  0.1078 -0.1260
58489W        W 1401   2.738  10.693   4.029  0.0731  0.0397 -0.0045
58490W        W 1402   0.412   7.344   6.808  0.1119 -0.3584 -0.1878
58491W        W 1403   1.313   9.834   6.016  0.1875 -0.1139  0.1783
58492W        W 1404   3.842   9.478   7.039  0.0698  0.0668 -0.1866
58493W        W 1405   1.096   7.863   6.215  0.1592  0.0058  0.2493
58494W        W 1406   2.458   8.185   4.266  0.3506  0.1349 -0.3491
58495W        W 1407   1.495   8.963   3.865  0.1052  0.2172 -0.1162
58496W        W 1408   0.823   8.494   4.952  0.3027 -0.0064 -0.0514
58497W        W 1409   1.411   8.010   4.818 -0.5737  0.1724 -0.1547
58498W        W 1410   2.637   9.649   5.358 -0.4700 -0.1037 -0.0554
58499W        W 1411   1.682  10.762   3.993 -0.1079  0.2465 -0.3681
58500W        W 1412   3.461   8.742   7.770  0.2311  0.3666 -0.0248
58501W        W 1413   1.279   8.530   3.972  0.0995 -0.1272  0.1156
58502W        W 1414   5.554   7.908   4.360 -0.0625  0.1437  0.2996
58503W        W 1415   2.432  10.869   6.863  0.1516 -0.2992 -0.1213
58504W        W 1416   2.765  10.914   7.370 -0.2860 -0.0179 -0.2073
58505W        W 1417   1.889   9.637   7.260 -0.0366 -0.1769 -0.2203
58506W        W 1418   2.360   8.379   7.289 -0.5013 -0.0556  0.0442
58507W        W 1419   1.153   7.366   6.104 -0.1833 -0.0617  0.0371
58508W        W 1420   1.051   9.701   3.774  0.1369  0.1024 -0.1093
58509W        W 1421   0.383   9.942   4.284  0.0379 -0.1076 -0.2648
58510W        W 1422   2.941   7.903   6.474 -0.0018  0.1607  0.0993
58511W        W 1423   1.626   7.745   5.219 -0.1495  0.0626 -0.0673
58512W        W 1424   2.713   7.504   4.803 -0.2632 -0.3360 -0.2848
58513W        W 1425   1.947   9.320   5.896  0.2169 -0.2934 -0.2375
58514W        W 1426   1.577  10.471   5.263  0.3807 -0.0718 -0.1178
58515W        W 1427   0.079   9.937   7.858 -0.0119  0.0167 -0.0959
58516W        W 1428   1.401   9.007   7.756  0.3675 -0.0217 -0.1729
58517W        W 1429   3.320   7.053   8.223 -0.0560  0.0987  0.2691
58518W        W 1430   3.923   8.592   8.155 -0.0293 -0.0823 -0.1964
58519W        W 1431   0.471   7.149   9.225 -0.1641 -0.3918 -0.1184
58520W        W 1432   2.309  10.703   8.479  0.1258  0.0856 -0.0563
58521W        W 1433   2.523   9.866   9.570  0.2126  0.3183 -0.0273
58522W        W 1434   2.053  10.671  10.213  0.0781  0.0670 -0.1208
58523W        W 1435   2.239   9.272   7.630  0.1426 -0.0199 -0.0840
58524W        W 1436   4.036   7.065  10.526 -0.0672  0.2819 -0.1752
58525W        W 1437   1.713   8.324   8.106  0.1833 -0.1964  0.0544
58526W        W 1438   0.255   4.934   9.374  0.0291  0.0322 -0.0786
58527W        W 1439   3.897   8.793   9.557 -0.2623 -0.3637  0.0350
58528W        W 1440  34.255   9.220   7.418  0.0025 -0.0542 -0.4954
58529W        W 1441   0.856   8.271   9.607  0.0140 -0.0878 -0.0126
58530W        W 1442   2.132   8.739   8.069  0.1983 -0.2701  0.1043
58531W        W 1443   2.216   9.819   7.650 -0.0594  0.0374  0.1677
58532W        W 1444   1.720   9.106   9.282 -0.2774  0.2564  0.0338
58533W        W 1445   0.645  10.273   8.443 -0.1849 -0.0547  0.0640
58534W        W 1446   0.523   8.518   7.696  0.0463 -0.3575 -0.1855
58535W        W 1447   0.697   7.996  10.291  0.0642 -0.0992 -0.1172
58536W        W 1448   1.082   8.978  10.288  0.0108 -0.4205  0.1291
58537W        W 1449   3.911   8.019   9.802 -0.1821 -0.0719 -0.1112
58538W        W 1450   2.064   9.897   8.765  0.1690 -0.0803  0.0959
58539W        W 1451   0.408  10.823   8.439  0.0588 -0.3095 -0.2460
58540W        W 1452   2.027  11.220   8.643  0.4280 -0.2524  0.1304
58541W        W 1453  34.223   8.628   7.511 -0.0243 -0.1409 -0.0125
58542W        W 1454  34.101  12.845   8.920  0.1436  0.2056 -0.0274
58543W        W 1455   0.275  10.410   8.940 -0.0945  0.1755 -0.0522
58544W        W 1456   3.620  10.638   9.578  0.0761  0.4022  0.2630
58545W        W 1457   1.755  10.057   7.009  0.2759  0.0504 -0.1918
58546W        W 1458   2.021   9.692   9.549  0.2290  0.2285  0.1083
58547W        W 1459   0.842   8.960   8.910 -0.1098  0.0722  0.0158
58548W        W 1460   0.895   9.661   6.928  0.0761  0.3124 -0.0341
58549W        W 1461   2.035   9.430   8.539 -0.1077 -0.0056 -0.1770
58550W        W 1462  34.061   9.101   9.182 -0.2793 -0.1346 -0.3100
58551W        W 1463  34.538  11.212   7.860 -0.0570 -0.0703  0.2662
58552W        W 1464   2.308   7.824   7.853  0.1730 -0.0110 -0.0071
58553W        W 1465   2.903   8.982   8.922  0.0913 -0.0718  0.2839
58554W        W 1466   3.207   8.676   8.215  0.1283  0.1797 -0.1297
58555W        W 1467   1.655   9.035  10.328 -0.0222  0.0127  0.1855
58556W        W 1468  34.466  11.145   9.778  0.0044 -0.1027  0.0276
58557W        W 1469   2.245   9.540   9.113 -0.1904 -0.2295 -0.0792
58558W        W 1470   1.087  10.029   8.697  0.0004 -0.1741  0.0174
58559W        W 1471   3.141   9.428   9.458  0.2080  0.2283  0.1132
58560W        W 1472   1.674   9.801   9.950  0.0820  0.0037 -0.4057
58561W        W 1473   1.680   8.742   7.189 -0.3743  0.1746  0.0708
58562W        W 1474   1.246  11.112   8.172 -0.2103  0.1244  0.0931
58563W        W 1475   3.362  10.301   9.253 -0.1485  0.2680 -0.0277
58564W        W 1476   2.243  10.390   7.589  0.0270 -0.2369  0.4900
58565W        W 1477   1.376   8.946   8.952 -0.0435  0.0339 -0.1341
58566W        W 1478   1.322   6.920   9.060  0.2144 -0.1320 -0.0217
58567W        W 1479   3.743   9.800   9.177 -0.1255 -0.1566 -0.1197
58568W        W 1480   1.152   9.922   9.191  0.5873 -0.0486  0.0426
58569W        W 1481   0.775   9.976   9.839 -0.2892 -0.2533 -0.3429
58570W        W 1482   3.154   9.659   6.711  0.0468 -0.4362 -0.3666
58571W        W 1483   3.550   7.134   9.727  0.0190  0.3038  0.0699
58572W        W 1484   3.597   4.826  10.453  0.1323 -0.1844  0.1003
58573W        W 1485   0.199  10.696   7.983  0.1771 -0.0644 -0.1321
58574W        W 1486   2.647   9.573   7.610  0.2432  0.1409 -0.0271
58575W        W 1487   2.367   9.747  10.553  0.0349 -0.0106 -0.0491
58576W        W 1488   4.174   8.212   7.044 -0.1823  0.0445 -0.2626
58577W        W 1489  31.910  11.320  10.189  0.0509 -0.3180  0.0333
58578W        W 1490   1.050   9.315   7.387 -0.0890  0.0348 -0.1387
58579W        W 1491  33.696   9.228   8.202  0.0025 -0.0707 -0.1205
58580W        W 1492  34.166   9.064   8.286 -0.1012  0.1041  0.1009
58581W        W 1493  34.281   7.155   9.307  0.1687 -0.1358  0.1081
58582W        W 1494   0.823   9.221   8.369  0.0829 -0.0431  0.1391
58583W        W 1495   3.382   6.767   9.415  0.0098 -0.2766 -0.0619
58584W        W 1496   3.078   7.810   8.805  0.0519  0.1149  0.2318
58585W        W 1497   0.015   8.989   8.339  0.4790  0.2838  0.2195
58586W        W 1498   3.162  10.486   8.400  0.1170 -0.0275 -0.1153
58587W        W 1499   4.413   8.547   7.373  0.1428 -0.1248  0.0141
58588W        W 1500   2.682  11.074   7.870 -0.3606 -0.3823 -0.1405
58589W        W 1501   0.779   8.805   9.405  0.4086  0.2092 -0.0310
58590W        W 1502   0.928   7.180   8.862 -0.3903 -0.1033 -0.4099
58591W        W 1503   0.165   8.737  10.076 -0.2287  0.0488 -0.2113
58592W        W 1504   0.954   7.698   8.581  0.0684 -0.4477 -0.0767
58593W        W 1505   1.910   8.252  10.018  0.2156 -0.0247  0.1536
58594W        W 1506   1.718   8.832   8.645 -0.0989  0.1043 -0.0386
58595W        W 1507   0.115   8.719   7.508  0.1821  0.2795 -0.1146
58596W        W 1508   1.024  10.607   8.452 -0.1269  0.2157  0.0350
58597W        W 1509   6.099   9.421  10.352 -0.0543  0.0883  0.1904
58598W        W 1510   2.948  10.155   9.735  0.0268  0.1199  0.0242
58599W        W 1511   2.145   9.819  10.062 -0.2547 -0.2819  0.0188
58600W        W 1512   1.518   8.544   7.647  0.0802 -0.4927 -0.0188
58601W        W 1513  34.551  10.256   9.607 -0.5105  0.0851  0.5175
58602W        W 1514  34.353  10.661   8.822 -0.0035 -0.2889  0.1753
58603W        W 1515   2.499   7.489   8.282  0.1240 -0.0382 -0.1204
58604W        W 1516   3.433  10.474   8.841  0.0431 -0.0612 -0.0843
58605W        W 1517   1.131  10.171   8.220 -0.1389 -0.1165  0.0951
58606W        W 1518   3.437   9.858   9.572  0.0536  0.1935  0.1358
58607W        W 1519   2.097   8.814   9.403 -0.3074  0.1991  0.1506
58608W        W 1520   0.742   7.687   8.128 -0.1315 -0.0026 -0.0065
58609W        W 1521   2.248  11.167   9.583  0.0154  0.0110 -0.0578
58610W        W 1522   0.235  11.094   7.018 -0.0287  0.1374 -0.1055
58611W        W 1523   0.323   8.552   8.312  0.4467 -0.0620 -0.0536
58612W        W 1524   0.864  10.429   8.898 -0.2095  0.0296 -0.2471
58613W        W 1525   2.669   6.885   9.689 -0.1549 -0.1282  0.2532
58614W        W 1526   1.547   9.220   7.281 -0.1919 -0.0850  0.1343
58615W        W 1527   2.757   7.994   9.133  0.1428  0.0821 -0.0123
58616W        W 1528   4.216   8.435   8.533 -0.0328 -0.3272  0.2492
58617W        W 1529   2.461   9.267   8.236 -0.1209  0.0143 -0.1734
58618W        W 1530   1.795   7.702   7.986 -0.3781 -0.0777 -0.2252
58619W        W 1531   3.662   7.513   8.125 -0.0913  0.2102  0.0208
58620W        W 1532   3.086  10.418   7.424  0.3744  0.1099 -0.0406
58621W        W 1533   1.830  10.688   8.824  0.4554  0.1785 -0.0050
58622W        W 1534   2.807   9.140   7.885  0.3435 -0.4371 -0.1944
58623W        W 1535   3.033  10.820   8.827 -0.2374 -0.0827  0.1074
58624W        W 1536   1.309  10.374   9.179  0.0402  0.3718 -0.0461
58625W        W 1537   2.894  10.576   9.333 -0.1281  0.2729  0.1801
58626W        W 1538   1.668   8.881   9.813 -0.0789  0.2674 -0.0104
58627W        W 1539   2.493   7.701   6.724  0.1788 -0.2708  0.1105
58628W        W 1540   2.666   7.945   8.473  0.0092  0.0936 -0.0160
58629W        W 1541   0.546  10.594   7.640 -0.0994  0.2006  0.0439
58630W        W 1542   3.544   7.701   9.652  0.1489  0.2046  0.4583
58631W        W 1543   2.121   7.770   8.474 -0.0620 -0.1925  0.0049
58632W        W 1544   3.397   8.930   8.781  0.1840  0.0209  0.0137
58633W        W 1545   2.300   8.207   8.846  0.1706 -0.1615  0.0488
58634W        W 1546   1.402   8.034   7.752 -0.0720  0.1121  0.2493
58635W        W 1547   6.307   7.817   9.987  0.0084  0.2713 -0.0164
58636W        W 1548   0.277   8.956  10.508 -0.2147  0.2626  0.3078
58637W        W 1549   1.938   8.575  10.465  0.1907  0.0444 -0.0580
58638W        W 1550   2.004   6.823   8.142  0.1136  0.2614  0.0176
58639W        W 1551   0.428  10.222   7.966 -0.3302  0.0957 -0.0394
58640W        W 1552  34.017   9.409   8.631 -0.1651 -0.2105 -0.2898
58641W        W 1553   0.731   6.653  10.376 -0.0071 -0.0628 -0.4256
58642W        W 1554   1.349  10.125   9.600 -0.2735  0.1805  0.0513
58643W        W 1555  34.120  12.050   7.296 -0.1825 -0.1320  0.0758
58644W        W 1556   1.939  10.164   9.762  0.2289  0.0621  0.0003
58645W        W 1557   0.995  10.634   7.484 -0.0723  0.0200 -0.2537
58646W        W 1558   3.240   7.998   8.401  0.0925 -0.0326  0.1214
58647W        W 1559  32.458   9.803   9.693  0.0839 -0.0132  0.1666
58648W        W 1560   1.587   7.789   8.438 -0.0498  0.1137 -0.0981
58649W        W 1561  33.923   8.859   8.730  0.1543 -0.1126  0.0210
58650W        W 1562   3.304   8.378   8.993  0.2815 -0.0344  0.0904
58651W        W 1563   3.606   8.361   8.592 -0.1915 -0.1345 -0.4126
58652W        W 1564  34.218   8.224   9.611 -0.2228  0.1329 -0.1883
58653W        W 1565   3.716   6.105  10.198  0.3154 -0.1775  0.1106
58654W        W 1566  33.875   8.912  10.413  0.1422  0.1162  0.0799
58655W        W 1567   3.463   6.636   7.768  0.0693  0.1207 -0.0224
58656W        W 1568  34.506   8.058   8.151  0.1564  0.1600  0.0640
58657W        W 1569   1.596   8.645   9.329 -0.3564 -0.0889 -0.0784
58658W        W 1570   1.776   7.238  10.149  0.0173  0.1823 -0.0244
58659W        W 1571  32.587  10.978   7.932 -0.0607 -0.1547  0.1988
58660W        W 1572   2.414  10.256   9.990 -0.0195  0.3627 -0.1050
58661W        W 1573   0.150   9.426   7.643 -0.0549  0.1114  0.0222
58662W        W 1574   0.706   9.815   8.259  0.3542  0.1483  0.0375
58663W        W 1575   3.861  10.111   9.535 -0.2593 -0.1926  0.0564
58664W        W 1576   1.347   9.320  10.046 -0.0284  0.1315  0.1384
58665W        W 1577   2.438   8.756   7.593  0.0809  0.0854 -0.1657
58666W        W 1578   2.560   9.258   8.784  0.0261  0.0959 -0.1399
58667W        W 1579   2.979  10.249   8.857 -0.0038  0.2484  0.0827
58668W        W 1580   1.522   9.525   9.566  0.2427  0.0296  0.3194
58669W        W 1581   2.298   7.321   8.828 -0.2496  0.1303 -0.2824
58670W        W 1582   3.971  11.014   8.343 -0.3563 -0.1240 -0.3455
58671W        W 1583   0.508   9.480   7.966 -0.3154  0.0557  0.0597
58672W        W 1584  34.436   9.040   8.736  0.0175  0.0307  0.0549
58673W        W 1585   0.421   8.965   8.008 -0.2205 -0.0155  0.1620
58674W        W 1586   2.729   7.374  10.273 -0.1598 -0.2698 -0.2125
58675W        W 1587   0.061  10.494   8.518 -0.1598  0.1641  0.1407
58676W        W 1588  34.083   9.430   7.913  0.0889  0.1148 -0.0723
58677W        W 1589  32.865   9.887  10.313 -0.0524  0.0212  0.0964
58678W        W 1590   3.391   7.417   9.156  0.0411 -0.0525 -0.0759
58679W        W 1591   3.075   9.101   7.467  0.0569  0.0005 -0.0674
58680W        W 1592   2.847   8.418   8.598 -0.0186  0.1140  0.2228
58681W        W 1593   3.625   9.596   7.906 -0.2493 -0.0263 -0.0961
58682W        W 1594   1.863   9.621  10.404 -0.1572  0.2049 -0.1132
58683W        W 1595   1.282   9.429   9.118 -0.2966  0.0849 -0.1987
58684W        W 1596   2.855   8.514   9.169 -0.3898 -0.2788  0.0247
58685W        W 1597   1.677   6.872   8.596 -0.0400  0.2466  0.0703
58686W        W 1598   1.159   9.627   8.329  0.1202  0.0884  0.1129
58687W        W 1599   3.185   9.666  10.046  0.0961  0.3986 -0.2383
58688W        W 1600   1.621   9.692   8.456 -0.1863 -0.0363  0.1494
58689W        W 1601   3.377   5.963   9.541  0.3122 -0.1223  0.3435
58690W        W 1602   0.357   9.464   8.441  0.0971  0.2427 -0.0928
58691W        W 1603   3.352   9.500   8.425 -0.0047  0.1296 -0.1686
58692W        W 1604   2.438   9.753   8.081  0.2542 -0.0370  0.0459
58693W        W 1605   0.944   8.873   7.858  0.1938 -0.1639  0.1797
58694W        W 1606   3.347   9.202   7.927  0.0691  0.3050  0.1354
58695W        W 1607   1.950   7.877   9.076  0.0505 -0.1657 -0.0690
58696W        W 1608   1.685  12.165  10.027  0.1798 -0.0002 -0.0149
58697W        W 1609   3.151   7.815   7.707 -0.0355 -0.0256 -0.1230
58698W        W 1610   3.103   6.891   9.929  0.1500  0.0871 -0.3074
58699W        W 1611   4.290   9.095   9.548  0.3226  0.1898  0.1082
58700W        W 1612   3.038   8.308   9.594  0.2499  0.0541  0.0963
58701W        W 1613   0.026   8.655   8.800  0.0160 -0.0084  0.1114
58702W        W 1614   2.421   5.989   8.309  0.1551 -0.3422 -0.0431
58703W        W 1615   2.184  10.930   7.324  0.1316  0.0391 -0.0663
58704W        W 1616   1.777   9.548   8.932  0.1681  0.0915 -0.1797
58705W        W 1617   2.190   8.951   8.498 -0.1030  0.0683 -0.0650
58706W        W 1618  34.170   7.356   8.786 -0.2090  0.4536 -0.0695
58707W        W 1619   2.414   8.072   6.345 -0.3776 -0.4512  0.0331
58708W        W 1620   1.771  10.093   7.553 -0.3524 -0.0562  0.1600
58709W        W 1621  32.907  10.389   8.275 -0.0077 -0.0340 -0.0212
58710W        W 1622   1.722   7.197   7.860 -0.0314  0.1221 -0.1750
58711W        W 1623  34.078   9.583   6.696 -0.2356  0.1751 -0.1689
58712W        W 1624   3.598   5.028   9.278  0.2513  0.1460  0.0288
58713W        W 1625  34.313   9.842   9.722 -0.1994  0.0431  0.3070
58714W        W 1626   1.302  10.844   8.991 -0.0775 -0.0655  0.1868
58715W        W 1627   1.504   7.204   9.426 -0.1228 -0.3123  0.2684
58716W        W 1628   4.145   5.164  10.544  0.0073 -0.0659  0.1838
58717W        W 1629   2.561   9.967   9.041  0.1107  0.0771 -0.2747
58718W        W 1630   0.353   8.818   9.156  0.4311 -0.0759  0.1792
58719W        W 1631   3.762   9.083   9.947  0.1905 -0.2130  0.1331
58720W        W 1632   0.876   9.855   7.782  0.2696  0.1485 -0.0331
58721W        W 1633   1.745   7.690  10.421 -0.1898 -0.0153 -0.2649
58722W        W 1634   1.302   6.523   8.184  0.0638  0.1566  0.1170
58723W        W 1635   1.984   9.284   8.099 -0.1922  0.2629  0.0847
58724W        W 1636  34.593   9.583   8.643 -0.0126 -0.1858 -0.1092
58725W        W 1637   0.869   9.553   8.779  0.3244 -0.2090  0.0488
58726W        W 1638   2.906   8.233   8.110  0.1447  0.1403 -0.0870
58727W        W 1639   2.921   9.532   7.208  0.0947  0.1412 -0.1505
58728W        W 1640   1.892  11.449   9.446 -0.0828  0.0595  0.0523
58729W        W 1641   2.488   8.366   7.880  0.1315  0.0156 -0.3278
58730W        W 1642  34.618   9.492   8.101  0.0194 -0.0699  0.3268
58731W        W 1643  34.515  10.443   6.616 -0.2750 -0.0778 -0.0902
58732W        W 1644   2.924  10.140   6.961  0.0052 -0.3167 -0.3423
58733W        W 1645   0.188  10.342   6.968 -0.0632 -0.0745 -0.2327
58734W        W 1646   3.813   6.125   7.294 -0.1153 -0.1990  0.1966
58735W        W 1647   3.358   9.893   8.884 -0.1627  0.0843 -0.1955
58736W        W 1648   4.098   7.421   8.300 -0.2627  0.0495 -0.2493
58737W        W 1649   1.101   8.008   9.278 -0.0660 -0.1624 -0.1407
58738W        W 1650   1.783   7.268   8.961  0.1317  0.0777 -0.2448
58739W        W 1651   3.126  11.320   8.524 -0.1798  0.1504 -0.0330
58740W        W 1652   1.896   8.885   7.653 -0.0282  0.2353 -0.1577
58741W        W 1653   1.576   8.218   9.085  0.0921 -0.1964  0.0103
58742W        W 1654   3.220   6.240   8.964 -0.1137  0.2790 -0.2291
58743W        W 1655   3.168   8.656   6.793  0.2402 -0.1562 -0.1047
58744W        W 1656   1.958   8.214   9.428 -0.0247 -0.1572  0.0712
58745W        W 1657  33.999  10.234   9.624 -0.2729 -0.1294  0.0358
58746W        W 1658   0.214   9.865   8.852 -0.2259 -0.2632 -0.3426
58747W        W 1659   0.677  10.859   8.957 -0.0342  0.2490  0.0118
58748W        W 1660   0.908   7.729   7.670 -0.0035  0.2660 -0.1828
58749W        W 1661   3.945   7.523   8.806  0.0878  0.2186 -0.0167
58750W        W 1662  34.369   9.466  10.026 -0.1312 -0.0140 -0.2419
58751W        W 1663   0.505   7.104  10.013  0.1378 -0.0735 -0.2178
58752W        W 1664   3.806   7.857   8.451  0.0027  0.1348 -0.0033
58753W        W 1665   2.699   9.467   9.209  0.1099 -0.0713 -0.2087
58754W        W 1666   5.126   5.262  10.257 -0.0425 -0.0495 -0.1731
58755W        W 1667   2.493   9.690   8.569  0.1130  0.1947 -0.2619
58756W        W 1668   1.914   7.490   7.449 -0.1208  0.0361  0.0033
58757W        W 1669   0.684   7.635   9.108 -0.0175  0.0864 -0.0098
58758W        W 1670   3.087   7.519   8.237 -0.1624 -0.0790  0.0943
58759W        W 1671   1.311   7.907   8.803 -0.5221  0.1050 -0.0904
58760W        W 1672   2.150  10.338   9.033 -0.1957 -0.1120 -0.1736
58761W        W 1673   0.569   7.407   9.636  0.0928 -0.1641 -0.0559
58762W        W 1674   4.117   9.929   7.934 -0.2342  0.0118  0.2138
58763W        W 1675   1.956   9.748   8.070 -0.2262  0.1287  0.1172
58764W        W 1676   1.032  11.245   9.188 -0.2497 -0.0134  0.1402
58765W        W 1677   3.200   9.389   8.976  0.1706  0.1147 -0.1691
58766W        W 1678   2.937  10.892   8.339 -0.5874  0.1969 -0.1466
58767W        W 1679   2.477   8.373   9.402  0.0600  0.0934 -0.0220
58768W        W 1680   1.545  11.657   9.779  0.0625 -0.0600 -0.1380
58769W        W 1681   4.472   8.873   8.692  0.3442 -0.0675  0.0321
58770W        W 1682   2.200   8.189   8.263 -0.0466 -0.1439  0.0214
58771W        W 1683   1.116   8.503   9.203 -0.1501 -0.0731 -0.1013
58772W        W 1684  34.198  11.134   6.734  0.1829  0.2343 -0.0509
58773W        W 1685   4.573   7.115   9.505  0.1155  0.0271 -0.1772
58774W        W 1686   2.189   8.930   6.588  0.3471 -0.0796 -0.0732
58775W        W 1687   1.395   9.300   8.626  0.2736 -0.1960 -0.3053
58776W        W 1688   0.645   9.221   7.054  0.0830 -0.0128  0.1927
58777W        W 1689   1.627   8.849   8.116 -0.0491  0.3862  0.1689
58778W        W 1690   1.619  10.242   8.071  0.0388 -0.1293  0.0244
58779W        W 1691   3.760  10.041   8.671 -0.1012 -0.2358  0.4257
58780W        W 1692   1.513   9.334   8.150  0.1835  0.0631  0.0024
58781W        W 1693   2.233   9.257   9.645 -0.0954 -0.0976 -0.1872
58782W        W 1694   3.002   8.397  10.180  0.0377 -0.0732  0.0148
58783W        W 1695   2.545   8.993   9.284 -0.1341  0.0781 -0.2612
58784W        W 1696   2.006   8.567   8.998  0.3608  0.3946 -0.1197
58785W        W 1697  33.127  10.256   9.203 -0.2710  0.1058 -0.3510
58786W        W 1698  34.555   9.374   6.933  0.2488  0.1489 -0.1212
58787W        W 1699   0.853   8.580   8.420 -0.1155  0.0978  0.0249
58788W        W 1700  33.810   9.696   8.282  0.0676  0.1644 -0.2843
58789W        W 1701   0.215   9.481   9.320  0.1098  0.1609  0.2280
58790W        W 1702   0.149   9.213   8.907 -0.4107 -0.1637 -0.0441
58791W        W 1703   2.815  10.101   8.288  0.0548  0.4799  0.3494
58792W        W 1704   2.412   7.841   9.403  0.5693  0.0338  0.0484
58793W        W 1705   0.095   7.540   8.987  0.0532 -0.1681  0.0238
58794W        W 1706   2.261  10.287   8.113  0.0359  0.0079 -0.1207
58795W        W 1707   4.210   9.352   8.540  0.0101 -0.0829  0.1822
58796W        W 1708   2.227   7.173   9.930  0.2638 -0.2643 -0.1082
58797W        W 1709   1.110   9.161   6.949  0.1019 -0.0279 -0.0935
58798W        W 1710   1.235   7.577   8.077  0.4521  0.0621 -0.2606
58799W        W 1711   1.782   8.220   8.608 -0.0919 -0.0150  0.0840
58800W        W 1712   1.490  10.915   8.519  0.2718 -0.2243  0.1582
58801W        W 1713   1.505  11.908   8.871 -0.3350 -0.1324  0.1235
58802W        W 1714   1.129   7.612   9.587 -0.0206 -0.2416  0.2870
58803W        W 1715   3.006   9.124   8.376  0.2145 -0.2300 -0.2880
58804W        W 1716   4.131  10.287   8.289  0.2053 -0.0698 -0.2300
58805W        W 1717   2.712   5.129   9.856  0.1065  0.2019  0.3342
58806W        W 1718   2.708   8.770   8.225  0.1702  0.2622  0.0373
58807W        W 1719   2.717   9.306   9.814 -0.1352  0.1655 -0.2023
58808W        W 1720   1.269   7.500   9.101 -0.3352  0.1628 -0.2345
58809W        W 1721   2.358   7.025   8.427 -0.1393 -0.1804 -0.2297
58810W        W 1722   3.859   9.657   8.351  0.2430  0.2456 -0.1758
58811W        W 1723   0.553   9.511   9.723  0.0921  0.0509 -0.0499
58812W        W 1724   0.863   8.131   8.879 -0.0841 -0.0089 -0.0892
58813W        W 1725   2.492  10.225   8.601 -0.0842  0.0247 -0.2153
58814W        W 1726   2.152   9.017   8.966 -0.2449 -0.0173  0.1809
58815W        W 1727   3.566   7.936   8.883  0.2807 -0.1003 -0.1027
58816W        W 1728   0.294  10.130   9.366 -0.3187  0.0009 -0.1044
58817W        W 1729   2.393  10.367   9.488 -0.2041  0.1093  0.0747
58818W        W 1730   2.910   9.608   8.134  0.1460 -0.1554  0.0238
58819W        W 1731   0.441   8.527   9.725  0.4426 -0.0501  0.4698
58820W        W 1732  34.456   9.023   7.866 -0.0602 -0.1383  0.0255
58821W        W 1733   1.285   9.054   9.527  0.0111  0.1302 -0.0870
58822W        W 1734   2.827   9.438  10.394  0.1048  0.0215  0.3806
58823W        W 1735   3.721   7.113   8.528 -0.0493  0.0874 -0.2271
58824W        W 1736   0.037  11.029   8.684  0.1980 -0.2613 -0.0438
58825W        W 1737   3.855   8.482   9.905 -0.3775 -0.1059  0.1174
58826W        W 1738   1.076  13.712   4.398  0.0707  0.2303 -0.2401
58827W        W 1739   2.011  11.823   0.754  0.0866 -0.0860 -0.2114
58828W        W 1740   2.889   8.100  31.769  0.0823 -0.0310 -0.0468
58829W        W 1741   3.290  12.760   0.432  0.0751 -0.1717  0.1972
58830W        W 1742   0.248  10.144   0.645 -0.2184 -0.0942 -0.1281
58831W        W 1743   2.797  13.619   1.517  0.0745  0.0431  0.2134
58832W        W 1744   1.306  12.294   4.203 -0.0852 -0.2278  0.0184
58833W        W 1745   3.367  14.070   2.875 -0.1115 -0.4038 -0.0013
58834W        W 1746   3.087  14.163   2.367 -0.1602 -0.0669  0.5806
58835W        W 1747   1.496  12.844  30.894 -0.0711  0.1115  0.3109
58836W        W 1748   1.581  13.028   1.993  0.1534 -0.2454  0.3449
58837W        W 1749   1.624  13.349   3.305  0.2038 -0.0280  0.1530
58838W        W 1750   2.266  11.103  31.586 -0.2574  0.0835  0.0454
58839W        W 1751  34.618  11.254   2.430 -0.1711  0.0235 -0.0246
58840W        W 1752   3.449  12.478   2.719 -0.3871  0.0093  0.0343
58841W        W 1753   0.380  12.792   0.219  0.0398  0.1347  0.4539
58842W        W 1754   2.135  11.727   2.610 -0.1752  0.2319 -0.2294
58843W        W 1755   1.091  12.331   0.701 -0.0110  0.0465  0.0341
58844W        W 1756   1.892  14.498   1.633 -0.2420  0.3881  0.0777
58845W        W 1757   1.852  12.141   1.440 -0.0104 -0.0473 -0.1002
58846W        W 1758   2.576  11.122   4.214 -0.3012  0.4323 -0.1004
58847W        W 1759   2.821  12.835   0.390 -0.2121  0.2760  0.1910
58848W        W 1760   0.607  12.350   0.009  0.3870  0.4171  0.0710
58849W        W 1761   0.735  12.152   1.325  0.0023 -0.0978 -0.1103
58850W        W 1762   0.819  11.905   2.350  0.4307 -0.1358  0.4497
58851W        W 1763   2.012  12.044   1.892  0.3404 -0.1028 -0.0033
58852W        W 1764   4.339  12.409   0.586  0.1995 -0.1073 -0.1294
58853W        W 1765   1.645  13.547   2.138  0.1049  0.0379  0.0533
58854W        W 1766   2.721  15.052   0.770  0.0323 -0.1032  0.3212
58855W        W 1767   1.741  11.166   3.599 -0.0395 -0.0374 -0.1290
58856W        W 1768   1.071  13.583   0.509 -0.0984  0.1188  0.2353
58857W        W 1769   1.062  13.941   0.909 -0.0396  0.1335  0.2150
58858W        W 1770   2.106  14.837   0.166  0.2517 -0.1310 -0.0704
58859W        W 1771   3.355  12.547   0.857  0.1092 -0.0400 -0.1650
58860W        W 1772   2.711  14.197   3.449 -0.0122 -0.0145  0.2828
58861W        W 1773   1.001  14.083   3.034 -0.2764 -0.2107 -0.0960
58862W        W 1774   0.647  15.040   1.132 -0.0499 -0.0530  0.1609
58863W        W 1775   1.365  15.155   4.124  0.1161  0.1573  0.3184
58864W        W 1776   1.281  13.780   1.798 -0.0396  0.1585  0.0158
58865W        W 1777   1.599  12.507   3.287 -0.1890 -0.0171 -0.2052
58866W        W 1778   3.219  13.129   0.121 -0.0103 -0.0843  0.3380
58867W        W 1779   1.719  14.083   0.252  0.2477  0.0199  0.0291
58868W        W 1780   2.058  13.426   2.869 -0.0303 -0.0707  0.1224
58869W        W 1781   1.340  15.143   4.682 -0.0833 -0.3133  0.1113
58870W        W 1782   0.027  12.987   2.084  0.2147 -0.0607 -0.0255
58871W        W 1783   2.134  12.959   2.753 -0.1088  0.0945 -0.3514
58872W        W 1784   0.142  13.707   0.086 -0.1953  0.0247  0.0932
58873W        W 1785   4.058  11.335  31.680 -0.1090 -0.1013  0.0610
58874W        W 1786   1.965  11.484  31.455  0.0417 -0.0948 -0.4285
58875W        W 1787   3.155  11.377  31.535 -0.0136  0.2116  0.2774
58876W        W 1788   2.302  11.301   0.752 -0.0749  0.1018 -0.0696
58877W        W 1789   1.379  13.586   1.175  0.1491  0.1847  0.1728
58878W        W 1790  34.002  12.063   1.178  0.3286  0.2193  0.1435
58879W        W 1791   2.937  12.955   3.026 -0.1259  0.1904  0.2799
58880W        W 1792   1.455  11.979   0.592  0.3657  0.0569 -0.0859
58881W        W 1793   1.373  11.096   3.287  0.3539 -0.0999 -0.1999
58882W        W 1794   0.196  14.596   2.787 -0.1031  0.2356  0.0614
58883W        W 1795   2.393  12.204   1.574  0.0363  0.1534 -0.0348
58884W        W 1796   3.548  14.817   0.460  0.2699 -0.0909 -0.1277
58885W        W 1797   4.339  14.698   1.723 -0.1521 -0.0497 -0.0883
58886W        W 1798   2.000  14.814  31.617  0.2817  0.1321  0.1739
58887W        W 1799   0.161  12.519   2.001  0.4170  0.1495 -0.2224
58888W        W 1800  34.387  12.575   2.045 -0.3630 -0.1276  0.4279
58889W        W 1801   1.416  12.947   3.407 -0.0150  0.2345  0.1457
58890W        W 1802   1.793  10.733   1.489  0.2512  0.1055  0.0097
58891W        W 1803   3.685  14.253   3.879  0.0223 -0.3075  0.0365
58892W        W 1804   0.248  13.464   1.988 -0.2457  0.2205  0.1578
58893W        W 1805   5.065  11.744   1.208  0.2239 -0.4461  0.2659
58894W        W 1806   1.230  12.757   2.856 -0.1520 -0.2696 -0.0581
58895W        W 1807   2.258  13.075   3.755  0.2802  0.3637 -0.3774
58896W        W 1808   3.248  13.337  31.096  0.0187 -0.2439  0.1544
58897W        W 1809   3.454  10.642   2.392 -0.3393  0.1320  0.2419
58898W        W 1810   2.556  10.317   2.815  0.0840 -0.0173  0.3070
58899W        W 1811   2.426  12.292   0.379 -0.1624 -0.0940 -0.2082
58900W        W 1812   1.798  13.125   1.220 -0.0812 -0.0759 -0.3227
58901W        W 1813   3.955  12.304   2.557  0.0645 -0.1140 -0.0196
58902W        W 1814   3.516  12.409   0.140  0.1138 -0.2763 -0.1480
58903W        W 1815   1.198  13.327   2.296  0.0333 -0.2087  0.0932
58904W        W 1816   0.152  11.863   2.056  0.0965 -0.1811 -0.0051
58905W        W 1817   2.652  14.677   3.138 -0.0893  0.1240 -0.1974
58906W        W 1818   0.844  15.182  31.424 -0.1677  0.0714 -0.1511
58907W        W 1819  34.433  12.964   2.466 -0.0574 -0.2419 -0.4827
58908W        W 1820  34.244  13.403   1.449  0.0518 -0.0464  0.1202
58909W        W 1821   0.907  11.195   2.109 -0.3368  0.0484 -0.0687
58910W        W 1822   1.836  12.514   1.856 -0.1281  0.0054 -0.1030
58911W        W 1823   3.447  11.380   0.285 -0.3625  0.1415 -0.1386
58912W        W 1824   0.738  10.547   2.848  0.1026 -0.0236 -0.0671
58913W        W 1825   3.730  11.390   2.239 -0.1068  0.2911 -0.1406
58914W        W 1826   0.230  13.237   0.088  0.0199  0.2970 -0.1950
58915W        W 1827   3.229  14.356   1.107 -0.0385 -0.2060  0.0938
58916W        W 1828   3.586  12.094   1.005 -0.0780  0.2178 -0.0616
58917W        W 1829   2.931  13.770   0.144 -0.1630 -0.2768  0.2242
58918W        W 1830   0.669  12.352   3.105 -0.3404 -0.2314 -0.5274
58919W        W 1831   2.211  11.254   1.280 -0.1277  0.2475 -0.0676
58920W        W 1832   0.410  12.421   4.287 -0.0239  0.3841 -0.3864
58921W        W 1833  33.954  12.281   1.765  0.1099  0.0879 -0.0655
58922W        W 1834   3.287  12.508   3.264 -0.1883  0.0713  0.1418
58923W        W 1835   1.514  10.642   0.969 -0.0538 -0.0023  0.0314
58924W        W 1836   3.542  11.791   1.396  0.3577 -0.1101 -0.4078
58925W        W 1837   2.956  11.055   2.038 -0.0156 -0.2825  0.4145
58926W        W 1838  33.633  13.788   0.821 -0.2552  0.1187  0.2555
58927W        W 1839   2.223  12.272   2.663  0.3190  0.1120 -0.1668
58928W        W 1840   2.319  14.259   1.421  0.3624  0.1884 -0.1003
58929W        W 1841   3.526  15.604   1.809 -0.4883 -0.0377 -0.0018
58930W        W 1842   3.487  14.480   2.269 -0.4274 -0.0894 -0.1945
58931W        W 1843   1.646  11.745   2.730 -0.0678  0.0690 -0.2064
58932W        W 1844   0.607  11.609   1.997  0.2016 -0.0066 -0.2549
58933W        W 1845   1.409  14.054   1.378 -0.0478  0.0834  0.1527
58934W        W 1846   1.038  12.825   2.135  0.0275 -0.0653 -0.1734
58935W        W 1847   1.809  11.280  31.900  0.0938  0.0369 -0.1207
58936W        W 1848   3.362  14.791   3.676 -0.6078  0.1699 -0.0448
58937W        W 1849   2.831  13.412   1.012  0.2188  0.2296  0.0025
58938W        W 1850   1.179  13.890   3.464 -0.1572  0.3848 -0.1867
58939W        W 1851   1.905  10.890   2.088 -0.1741 -0.0364  0.0114
58940W        W 1852   3.278  11.962   3.398  0.0003  0.1572  0.1498
58941W        W 1853   3.182  12.228   2.402  0.1332  0.0407  0.0396
58942W        W 1854   0.068  11.486   1.129 -0.0044  0.0957  0.1228
58943W        W 1855   3.780  14.175   0.438  0.0669  0.2259 -0.0542
58944W        W 1856   1.622  14.588   0.268  0.2435  0.1307 -0.1831
58945W        W 1857  34.582  12.784   3.043  0.3329 -0.0238  0.1798
58946W        W 1858   1.212  14.073   0.439 -0.0482  0.0674  0.1511
58947W        W 1859   4.032  10.841   2.158 -0.2185  0.0411 -0.0633
58948W        W 1860  33.489  14.357   4.358 -0.0505  0.0855 -0.2833
58949W        W 1861   1.655  12.429   2.752 -0.0527 -0.2241  0.1518
58950W        W 1862  34.156  12.505   0.463  0.0618  0.3647  0.1426
58951W        W 1863  34.432  14.334   2.819 -0.0911  0.0914 -0.0740
58952W        W 1864   4.145  11.611   1.428  0.1876 -0.0656 -0.2077
58953W        W 1865   4.461  11.136   1.588  0.0180 -0.4297  0.0433
58954W        W 1866   2.255  13.053   4.570  0.1993 -0.2436 -0.0998
58955W        W 1867   3.019  13.879   1.093 -0.1706  0.0221  0.1043
58956W        W 1868   3.153  10.771   0.475  0.1451 -0.1600  0.2224
58957W        W 1869   2.702  10.513   0.298 -0.0439  0.0441 -0.2173
58958W        W 1870   0.391  13.576   4.025 -0.1703 -0.1657 -0.0100
58959W        W 1871   2.497  14.083   0.694  0.3310  0.1511 -0.4289
58960W        W 1872   2.649  12.999   1.720 -0.1815  0.0143 -0.2066
58961W        W 1873   3.793  10.265   0.804  0.0997  0.2286  0.1856
58962W        W 1874   4.262  12.963   0.520 -0.1916 -0.1076 -0.1027
58963W        W 1875   0.999  12.047   1.856  0.0291  0.0971  0.0134
58964W        W 1876   2.339  14.183   2.737 -0.0676  0.1775 -0.2890
58965W        W 1877   2.261  14.890   1.702 -0.0013  0.0623  0.0185
58966W        W 1878   1.794  11.197   3.073  0.1563  0.3646 -0.1541
58967W        W 1879   1.437  11.604   0.873 -0.1156  0.2323 -0.5428
58968W        W 1880   2.768  12.254  31.899 -0.0514  0.0607 -0.0310
58969W        W 1881  34.368  14.650   0.176  0.4568  0.0987 -0.0161
58970W        W 1882   2.357  12.454   2.011  0.2314 -0.1957  0.0551
58971W        W 1883   1.299  11.238   1.656  0.2095  0.1719 -0.0601
58972W        W 1884   1.800  10.241   2.826 -0.0539 -0.3097  0.0331
58973W        W 1885   3.625  11.860   2.375 -0.3885 -0.4737  0.0442
58974W        W 1886   2.381  13.341   0.812 -0.0001  0.2427 -0.0958
58975W        W 1887   1.647  13.062   2.904 -0.0895 -0.0918 -0.1490
58976W        W 1888  34.399  12.201   0.039  0.0414  0.2540  0.2528
58977W        W 1889   2.222  11.132   2.483 -0.2024 -0.1598 -0.1475
58978W        W 1890   0.706  13.344   2.295 -0.1759 -0.1758 -0.2260
58979W        W 1891   0.584  13.854   3.026  0.2044  0.1307  0.0431
58980W        W 1892   3.493  13.894   3.502 -0.2028  0.1089 -0.0705
58981W        W 1893   2.472  12.716   2.482  0.2762  0.2910  0.1157
58982W        W 1894   1.724  11.236   4.177 -0.0602  0.1577 -0.2657
58983W        W 1895   2.887  12.580   0.812 -0.0158  0.0315  0.3569
58984W        W 1896   2.359  15.164   1.077  0.0232  0.2688  0.0442
58985W        W 1897   0.707  13.310  31.891 -0.0660 -0.1587  0.0596
58986W        W 1898   2.510  11.280   1.653  0.1762 -0.1714  0.0694
58987W        W 1899   1.919  13.941   2.941  0.0021  0.0716  0.2391
58988W        W 1900   1.437  12.552   0.923  0.3532 -0.1157  0.1307
58989W        W 1901   0.789  13.544   4.880 -0.0470 -0.0721 -0.1385
58990W        W 1902   0.178  14.751   0.093 -0.0771  0.0597  0.1723
58991W        W 1903   2.222  10.556   3.887 -0.2197 -0.0089 -0.0515
58992W        W 1904   0.940  13.403   1.759 -0.1663  0.3444 -0.0835
58993W        W 1905   0.854  10.932   0.957 -0.2248 -0.2419  0.2921
58994W        W 1906   0.935  12.646   1.092  0.0849 -0.1270  0.1518
58995W        W 1907   2.554  11.366   2.249 -0.1137 -0.0666 -0.3005
58996W        W 1908   3.082  14.824   1.512  0.0814 -0.1404  0.0491
58997W        W 1909   0.492  13.301   2.932 -0.0422 -0.1553 -0.3553
58998W        W 1910   2.216  10.874   1.612  0.0185 -0.0668 -0.2355
58999W        W 1911  34.317  14.440   3.297  0.1881  0.0066 -0.2626
59000W        W 1912   2.238  12.750   1.570  0.0052  0.3647  0.0792
59001W        W 1913   3.587  10.451  31.935 -0.2834 -0.0606  0.2351
59002W        W 1914   2.808  12.969   1.254 -0.2427 -0.1163  0.1026
59003W        W 1915   0.884  13.477   3.256 -0.1686 -0.0642  0.3597
59004W        W 1916   1.187  11.541   0.369 -0.0090 -0.2309 -0.0630
59005W        W 1917   4.180  12.457   3.041 -0.0683 -0.1072  0.3033
59006W        W 1918   2.467  10.837  31.982  0.2289 -0.1258 -0.2225
59007W        W 1919   0.722  14.057   0.561  0.0850  0.0974  0.2412
59008W        W 1920   1.913  13.538   0.950 -0.2292  0.2305  0.0737
59009W        W 1921  33.750  12.536   1.339  0.1231 -0.2855 -0.0654
59010W        W 1922   0.679  14.887   0.274  0.2489  0.1817 -0.2410
59011W        W 1923   1.949  12.119   3.437  0.1894 -0.0987  0.2018
59012W        W 1924   2.671  12.265   2.450 -0.2978 -0.0654 -0.0560
59013W        W 1925   0.845  11.640   1.534 -0.0241 -0.0982 -0.2393
59014W        W 1926   1.722  12.544  31.808 -0.2550  0.2311  0.0932
59015W        W 1927   2.658  11.736   1.808  0.0591  0.0130  0.1156
59016W        W 1928   2.812  12.196   1.932  0.1473  0.2147 -0.0030
59017W        W 1929   3.241  11.633   2.594 -0.1681 -0.1069  0.3162
59018W        W 1930   0.869  13.665   3.801  0.2761  0.0394 -0.1702
59019W        W 1931   3.020  10.607   2.748 -0.2921  0.2988  0.0447
59020W        W 1932   4.433  14.330  31.737  0.0424 -0.0516  0.0560
59021W        W 1933   0.954  12.509   2.499  0.1034  0.2086  0.0228
59022W        W 1934   1.383  13.407  31.789 -0.1084 -0.3008 -0.0314
59023W        W 1935   0.414  12.770   3.082  0.0292 -0.0110  0.1432
59024W        W 1936   0.423  12.655   1.264  0.0095 -0.2270 -0.0717
59025W        W 1937   1.694  12.158   0.969 -0.1723 -0.0952  0.0978
59026W        W 1938   1.973  13.263   2.412 -0.1454 -0.0916  0.1588
59027W        W 1939   0.703  14.239   0.066 -0.2016  0.0666  0.0508
59028W        W 1940   1.456  13.289   0.675 -0.2386  0.1226 -0.2703
59029W        W 1941   3.354  10.266   1.279  0.0034  0.0079  0.0250
59030W        W 1942   2.533  14.089  31.573 -0.3379 -0.1763 -0.0261
59031W        W 1943   2.676  11.664   0.853  0.1431  0.1913 -0.1213
59032W        W 1944   3.267  11.996   4.247 -0.2290 -0.2252  0.0767
59033W        W 1945   3.911  13.194   0.238 -0.1186 -0.1979  0.3936
59034W        W 1946   3.006  11.671   3.034 -0.2692  0.0148  0.0296
59035W        W 1947   1.007  10.551   3.954 -0.2870  0.0200 -0.2824
59036W        W 1948   3.190  14.367   1.869  0.1302  0.1403  0.0109
59037W        W 1949  34.375  11.581   2.807 -0.4053 -0.0557  0.2754
59038W        W 1950   3.025  13.874   3.181 -0.1073  0.1178  0.0114
59039W        W 1951   0.630  13.235   3.768  0.1732  0.1317 -0.1397
59040W        W 1952   2.748  10.155  31.778  0.0631  0.0132  0.0816
59041W        W 1953   1.519  10.917   0.266  0.4340  0.0514 -0.0049
59042W        W 1954   0.121  12.713   2.594 -0.3159  0.0426 -0.0909
59043W        W 1955   3.241  13.941   1.505  0.1385 -0.2139  0.0256
59044W        W 1956   1.777  13.039  31.753 -0.1507  0.2210 -0.1451
59045W        W 1957   4.369  11.818   1.814  0.0291  0.2420 -0.1581
59046W        W 1958   2.450  12.079   0.858  0.1371  0.3463 -0.2980
59047W        W 1959   4.054  12.897   1.414 -0.1775  0.2010 -0.0555
59048W        W 1960   2.750  13.279  31.959  0.0833  0.0295 -0.0670
59049W        W 1961   1.982  13.342   1.749  0.2266  0.0661 -0.0236
59050W        W 1962   0.825  11.179   3.067  0.1290  0.0786 -0.2291
59051W        W 1963   2.870  13.116   2.415  0.3285  0.0330 -0.0624
59052W        W 1964   2.742  12.558   1.608  0.1120  0.2818  0.1032
59053W        W 1965   3.529  11.982   2.921 -0.4197 -0.0385  0.2973
59054W        W 1966   3.002  12.171   2.946 -0.1757  0.0075 -0.0854
59055W        W 1967   1.542  12.166   3.724  0.0976  0.3622 -0.0204
59056W        W 1968  34.594  11.958   3.005 -0.1355  0.2774  0.1681
59057W        W 1969   2.631  14.256   2.221 -0.2913  0.0012  0.1738
59058W        W 1970   3.614  11.677   0.683 -0.0610 -0.2045  0.1674
59059W        W 1971   4.537  12.195   3.320 -0.1820 -0.1562  0.1732
59060W        W 1972   3.660  11.272   1.681  0.1266  0.0032  0.0871
59061W        W 1973   2.390  12.795   0.591  0.1875  0.1195 -0.0538
59062W        W 1974   0.542  13.040   1.768  0.2140  0.1407 -0.3008
59063W        W 1975   2.974  13.466   2.776  0.1021 -0.0864 -0.1222
59064W        W 1976   2.229  11.761  31.044  0.1131 -0.1554 -0.0001
59065W        W 1977   3.489  11.171   3.319  0.2755  0.0395  0.2257
59066W        W 1978   3.091  15.232  31.932 -0.1822  0.0854  0.1642
59067W        W 1979   2.254  12.901   0.997  0.0719 -0.0314 -0.0707
59068W        W 1980   2.802  13.415  31.421 -0.0029 -0.0381  0.0270
59069W        W 1981  34.108  11.997   2.827  0.0991 -0.4833 -0.0958
59070W        W 1982   0.302  14.908   3.933  0.2585 -0.0966 -0.1006
59071W        W 1983   0.984  10.769  31.614  0.0653 -0.0532 -0.0124
59072W        W 1984   1.890  12.002   0.280  0.1046  0.1482 -0.0190
59073W        W 1985   1.959  12.956   3.326 -0.1980 -0.3440 -0.1666
59074W        W 1986   2.276  12.788   4.972 -0.1169  0.2125  0.0294
59075W        W 1987   1.933   9.806   0.886 -0.0726  0.1437  0.0390
59076W        W 1988   2.235  12.934   2.027  0.4391 -0.1461  0.0771
59077W        W 1989   0.574  13.601   0.566  0.1031 -0.2936  0.1244
59078W        W 1990   2.207  11.731   1.585  0.1288  0.0383  0.1597
59079W        W 1991   0.686  14.707   2.633 -0.0041  0.1258 -0.1382
59080W        W 1992   0.166  13.961   3.769  0.0361  0.1785 -0.0509
59081W        W 1993  34.271  13.704   0.270 -0.0670  0.0638 -0.0096
59082W        W 1994   1.722  11.651   1.701  0.0915 -0.1757 -0.3089
59083W        W 1995   3.082  12.867   1.677 -0.0468 -0.3205 -0.2434
59084W        W 1996   2.149  14.359   0.934  0.0852  0.0539  0.0852
59085W        W 1997   2.582  10.956   3.590 -0.1404  0.1409 -0.1147
59086W        W 1998   2.671  13.720   2.285  0.2039 -0.3854  0.1812
59087W        W 1999   1.006  14.486   0.396  0.0987 -0.1795 -0.1954
59088W        W 2000   2.241  13.747   1.488  0.0862  0.0913  0.1920
59089W        W 2001   2.681  14.702   1.199  0.1106  0.1389 -0.0884
59090W        W 2002   0.590  13.168   1.330 -0.4617 -0.2437  0.1242
59091W        W 2003  34.435  11.570   4.057  0.1864 -0.0575 -0.1472
59092W        W 2004   2.392  12.616   3.514  0.0026 -0.0287 -0.0170
59093W        W 2005   3.223  12.479   1.333  0.0843 -0.0314 -0.1632
59094W        W 2006   2.170  10.537   0.264 -0.1438  0.1740 -0.0867
59095W        W 2007   1.608  13.020   0.299 -0.0500 -0.1124 -0.0410
59096W        W 2008  33.325  14.862   4.626 -0.0174  0.0026 -0.0875
59097W        W 2009   0.587  11.473   1.106  0.2084 -0.0064  0.0015
59098W        W 2010   0.341  13.954   1.909  0.0023  0.0252 -0.1765
59099W        W 2011   4.755  14.028  30.397 -0.0736 -0.0846  0.0488
59100W        W 2012   2.852  12.679   2.130 -0.0077  0.1723  0.1763
59101W        W 2013   2.222  13.749   2.518  0.0156 -0.0815  0.2482
59102W        W 2014   2.367  11.292   0.149  0.2200 -0.1180  0.2003
59103W        W 2015   0.881  13.475   1.092  0.1579  0.2142 -0.0473
59104W        W 2016   1.034  13.828  31.930 -0.2801 -0.0908 -0.3345
59105W        W 2017   4.270  14.152   0.243 -0.1797 -0.4480 -0.1219
59106W        W 2018  34.665  13.633   0.643  0.1009 -0.3839  0.4162
59107W        W 2019   1.528  12.906   2.465  0.0313 -0.1573  0.2295
59108W        W 2020   3.059  11.281   1.536  0.2085 -0.1861  0.4841
59109W        W 2021   3.381  12.924   1.233  0.1157 -0.1367  0.1111
59110W        W 2022   4.886  12.659   1.557  0.0336  0.2777 -0.0492
59111W        W 2023   2.127  13.713   3.369  0.0965 -0.3807  0.4854
59112W        W 2024   2.047  12.413   0.701  0.0219  0.2096 -0.1884
59113W        W 2025   2.687  11.299   1.183 -0.2054 -0.2710 -0.2093
59114W        W 2026   0.869  13.828   2.100  0.1871 -0.1442  0.1401
59115W        W 2027   3.578  11.453   2.965  0.1467  0.1534  0.1262
59116W        W 2028   0.157  14.032   2.670  0.2810 -0.1776 -0.0654
59117W        W 2029   4.134  14.804   0.828 -0.0673 -0.1864 -0.1179
59118W        W 2030   0.291  11.396   0.654 -0.0868 -0.0322 -0.1922
59119W        W 2031   2.414  13.365   2.118  0.2172 -0.0045  0.0349
59120W        W 2032   4.842  11.237   3.026 -0.0171  0.2600 -0.0217
59121W        W 2033   2.849  12.442  30.658  0.1553 -0.0035 -0.0009
59122W        W 2034   3.716  12.530   1.503  0.0379  0.3672 -0.1398
59123W        W 2035   1.352  13.026   1.057 -0.1923 -0.1010  0.0925
59124W        W 2036   0.857  14.155   2.572 -0.0389  0.2802 -0.1778
59125W        W 2037   0.492  15.195   2.806 -0.0518  0.1384  0.1724
59126W        W 2038   1.445  10.282   1.416 -0.0790  0.2433 -0.0048
59127W        W 2039   4.915  12.152   1.994 -0.4659  0.1682  0.0260
59128W        W 2040   2.342  11.884   2.176  0.0425  0.1027 -0.3247
59129W        W 2041   3.325  11.504   1.944  0.2099  0.0038  0.0812
59130W        W 2042   1.453  12.205   1.720  0.3342 -0.0851 -0.2871
59131W        W 2043   3.778  11.081   0.606 -0.6381  0.1630 -0.1172
59132W        W 2044   2.863  12.843   3.491  0.0203 -0.3609 -0.0981
59133W        W 2045   0.904  12.865   3.264  0.0179  0.0767 -0.0879
59134W        W 2046   1.218  12.229   1.277  0.0846 -0.0243  0.0529
59135W        W 2047   2.670  13.031   4.204  0.1585 -0.2595  0.0546
59136W        W 2048   2.128  11.698  31.878  0.1550 -0.1363  0.1035
59137W        W 2049   2.423  13.730   3.001  0.2659  0.1790 -0.1849
59138W        W 2050   1.092  11.314   1.121  0.2953  0.1297  0.0170
59139W        W 2051   4.038  11.545   0.953  0.0848  0.0357  0.1895
59140W        W 2052  34.593  12.707   0.156 -0.1191 -0.0267  0.1045
59141W        W 2053   1.995  12.611   2.363 -0.0957  0.3456 -0.3126
59142W        W 2054   1.380  14.288   3.767 -0.0300 -0.0627  0.1622
59143W        W 2055  33.940  10.238   1.083  0.0489 -0.0059 -0.0580
59144W        W 2056   3.835  12.880  31.514 -0.0279  0.0209 -0.1419
59145W        W 2057   3.767  11.761   1.869 -0.2228  0.1010 -0.1294
59146W        W 2058   1.970  13.259   0.531  0.1688  0.1851 -0.2073
59147W        W 2059   3.637  14.153   1.920 -0.0241  0.0120 -0.2766
59148W        W 2060   3.136  14.445   3.202 -0.0370  0.0206 -0.0708
59149W        W 2061  34.641  12.800   1.614 -0.2292  0.1401 -0.0281
59150W        W 2062   1.847  14.162   2.515  0.1482 -0.2857 -0.0936
59151W        W 2063   3.346  13.485   3.063  0.1767  0.2135  0.0967
59152W        W 2064   2.218  12.210  31.889 -0.1575  0.3981  0.1702
59153W        W 2065   2.096  10.825   0.977 -0.1324 -0.0132  0.1146
59154W        W 2066   0.905  14.991   0.704 -0.0938  0.2936 -0.3157
59155W        W 2067   4.597  10.962   2.036  0.0003  0.3590 -0.1486
59156W        W 2068   4.953  10.200   2.203 -0.0495  0.2185 -0.1094
59157W        W 2069  34.574  13.688   1.180 -0.2763 -0.0894  0.1027
59158W        W 2070   2.638  11.438   2.791 -0.1965  0.2849  0.0495
59159W        W 2071   2.075  14.428   3.109 -0.0360  0.0116 -0.1169
59160W        W 2072   0.705  14.764   3.625 -0.1655 -0.0899  0.2267
59161W        W 2073  33.734  12.582   0.202  0.0466  0.0472  0.0625
59162W        W 2074   1.699  13.694   2.595  0.1270 -0.2507 -0.1594
59163W        W 2075   0.011  12.504   1.057 -0.1035 -0.0125  0.1277
59164W        W 2076   2.414  14.659   0.637 -0.3912  0.1747 -0.1481
59165W        W 2077   2.894  14.692   3.568 -0.1529 -0.0984 -0.2306
59166W        W 2078   3.101  12.106   0.979 -0.3000 -0.1157 -0.2011
59167W        W 2079   3.920  12.966   3.507  0.2200 -0.1154 -0.1129
59168W        W 2080   0.632  12.308   2.208  0.1972 -0.0331  0.2717
59169W        W 2081   3.655   9.802   1.146  0.1223  0.0587  0.0578
59170W        W 2082   3.182  11.955   1.734 -0.0201  0.0393  0.0215
59171W        W 2083   0.649  14.111   3.494 -0.3597 -0.0653  0.0639
59172W        W 2084  33.171  11.394   1.047 -0.1355 -0.2459 -0.1198
59173W        W 2085   1.540  13.889  31.776 -0.1655  0.0129 -0.0799
59174W        W 2086   1.363  13.243   1.542  0.2185 -0.0368 -0.1530
59175W        W 2087   2.695  10.680   3.161 -0.1622 -0.0722  0.2728
59176W        W 2088   1.096  12.421   3.456  0.0288 -0.2319  0.1685
59177W        W 2089   0.949  12.877   1.554  0.1973  0.4585  0.1370
59178W        W 2090   1.204  10.781   1.291 -0.1369  0.0485 -0.2126
59179W        W 2091   3.806  13.616   0.793  0.2866  0.2481 -0.1306
59180W        W 2092   1.290  11.678   1.933  0.2317 -0.0224  0.3552
59181W        W 2093   1.124  10.676   0.580 -0.0033  0.1679 -0.1329
59182W        W 2094   2.964  13.899   0.613 -0.1177 -0.2077 -0.0584
59183W        W 2095   3.921  14.351  31.933 -0.2596  0.2327 -0.3078
59184W        W 2096   2.446  10.900   0.473 -0.0538  0.1629  0.1213
59185W        W 2097   5.006  12.840   4.596  0.0815  0.1100  0.2349
59186W        W 2098   1.191  12.821   0.576  0.1540  0.1669 -0.0120
59187W        W 2099   2.924  11.851   3.766 -0.1073  0.1012 -0.0955
59188W        W 2100   1.775  11.650   3.300  0.0813 -0.0315  0.0459
59189W        W 2101   1.757  11.505   0.395  0.1171  0.1629  0.2065
59190W        W 2102   2.537  12.492   1.107 -0.2380  0.0214 -0.3001
59191W        W 2103   2.239  14.288   1.916 -0.0944  0.1513 -0.3193
59192W        W 2104   2.521  16.511  31.042  0.2866 -0.1964  0.3516
59193W        W 2105   0.811  15.122   2.369  0.1990  0.2028  0.1361
59194W        W 2106   1.076  14.610   2.959 -0.5045  0.1009  0.1231
59195W        W 2107  33.708  11.170   2.355  0.1581  0.1163  0.0660
59196W        W 2108   4.311  13.758   0.673 -0.0259  0.1085  0.1928
59197W        W 2109   1.709  13.105   3.778 -0.0401 -0.1753 -0.1189
59198W        W 2110   4.254  13.016   1.006 -0.0295 -0.0383  0.2334
59199W        W 2111   4.057  11.475   3.156 -0.1920  0.1602 -0.1365
59200W        W 2112   3.095  12.596  31.963  0.1253 -0.1088 -0.2313
59201W        W 2113   0.115  11.927   3.446 -0.3084 -0.2386 -0.0150
59202W        W 2114   0.446  14.315   2.372 -0.2765  0.1037  0.1457
59203W        W 2115   3.471  13.516   1.832  0.1021  0.1102 -0.0527
59204W        W 2116   1.780  11.175   1.653  0.2305 -0.1040  0.0608
59205W        W 2117   3.158  11.590   1.162 -0.3464 -0.1698  0.1470
59206W        W 2118   2.390  13.310   1.414 -0.0432  0.2247 -0.0690
59207W        W 2119   0.519  12.052   1.800 -0.0650 -0.2070 -0.0545
59208W        W 2120   3.127  13.025   0.837  0.0834  0.0556  0.0506
59209W        W 2121   1.467  12.703   1.453  0.1466  0.2161  0.1022
59210W        W 2122   2.901  13.410   1.961  0.1465 -0.1169 -0.0231
59211W        W 2123   2.397  14.591   3.612 -0.0351  0.3568  0.1884
59212W        W 2124   0.631  12.554   1.783 -0.1244  0.0553  0.0611
59213W        W 2125   4.395  12.349   1.863 -0.0368 -0.2025  0.0169
59214W        W 2126   1.939  13.968   1.135  0.0593 -0.2265  0.1869
59215W        W 2127   3.506  15.336   2.291 -0.1609 -0.1111 -0.0807
59216W        W 2128   0.856  13.917   1.506  0.1171  0.1145  0.0873
59217W        W 2129   3.712  14.159   1.365  0.2868 -0.0304 -0.0329
59218W        W 2130   0.414  10.925   1.985 -0.0035  0.2557  0.0335
59219W        W 2131   3.185  13.368   1.381  0.0390 -0.0646  0.0201
59220W        W 2132   1.504  13.555   0.266 -0.1468 -0.0854 -0.0195
59221W        W 2133   1.287  11.701   1.378 -0.2054  0.2627 -0.0808
59222W        W 2134   0.320  11.349   1.524  0.1575  0.0849 -0.0598
59223W        W 2135   2.119  11.401   1.938 -0.1468 -0.0506 -0.2574
59224W        W 2136   1.035  14.530   4.036 -0.1409  0.3804  0.0190
59225W        W 2137   2.481  13.308   2.609 -0.0581  0.0908 -0.0209
59226W        W 2138   1.555  14.031   7.012 -0.0391  0.0972 -0.0053
59227W        W 2139   0.176  11.923   3.977  0.0019  0.0011 -0.2206
59228W        W 2140   2.036  11.181   4.967 -0.1464  0.0313 -0.2588
59229W        W 2141   1.693  13.642   3.712  0.1669 -0.1092 -0.0373
59230W        W 2142  34.648  12.309   4.271  0.0815  0.2312 -0.0489
59231W        W 2143   2.073  14.398   4.028  0.1994 -0.0741  0.3263
59232W        W 2144  34.196  10.739   6.351 -0.0559  0.2495  0.1424
59233W        W 2145   3.187  14.004   4.061 -0.0829  0.1480 -0.0105
59234W        W 2146   3.926  13.509   5.678 -0.1566 -0.0501 -0.0113
59235W        W 2147   2.417  13.025   3.131  0.2187  0.0244 -0.0512
59236W        W 2148  34.645  12.844   6.998  0.1958  0.3032  0.2407
59237W        W 2149   0.166  14.511   6.092  0.1214  0.0157  0.0577
59238W        W 2150   1.291  11.442   2.945 -0.3266  0.0296 -0.0371
59239W        W 2151   0.958  10.425   6.036  0.2826  0.1059 -0.1716
59240W        W 2152   3.541  11.777   7.024 -0.1273  0.0219  0.3675
59241W        W 2153   0.832  12.405   3.958  0.0680  0.0708  0.0445
59242W        W 2154   0.426  11.228   6.517  0.1963 -0.1109 -0.0537
59243W        W 2155   2.042  11.688   5.176 -0.0244 -0.0800 -0.0640
59244W        W 2156   1.607  13.977   4.934  0.2304  0.1498 -0.1099
59245W        W 2157   0.670  12.042   6.703 -0.1175  0.0933  0.1860
59246W        W 2158   1.441   9.836   7.296  0.4721  0.1478 -0.0287
59247W        W 2159   1.255  13.384   3.610  0.4470  0.0467 -0.0397
59248W        W 2160   0.488  11.884   4.443  0.1458  0.2406  0.0874
59249W        W 2161  34.614  11.937   5.371 -0.3565 -0.3942 -0.0978
59250W        W 2162   0.049  13.585   6.231  0.0972  0.1115  0.0387
59251W        W 2163   0.885  12.952   6.005  0.0118  0.1974 -0.1813
59252W        W 2164   3.790  13.754   3.937 -0.0718  0.1910 -0.1704
59253W        W 2165   1.152  14.574   6.084 -0.0488  0.0602 -0.0319
59254W        W 2166   1.929  14.076   5.627  0.1084 -0.1259 -0.4343
59255W        W 2167   1.949  11.242   7.694 -0.0237 -0.1293  0.0414
59256W        W 2168  33.594  12.739   5.138 -0.0483  0.1542 -0.0025
59257W        W 2169  33.976  15.282   4.346 -0.2769  0.0788  0.1610
59258W        W 2170  34.588  13.080   4.828  0.0112  0.1955  0.0896
59259W        W 2171   1.490  13.340   4.181 -0.1200 -0.0674 -0.0669
59260W        W 2172   3.306  14.052   5.314 -0.3688 -0.2763 -0.0953
59261W        W 2173  34.466  13.723   7.883  0.1832  0.1859  0.1678
59262W        W 2174   0.067  13.096   3.876  0.2135 -0.1908 -0.5091
59263W        W 2175   3.035  14.309   7.005 -0.0401 -0.5404 -0.1477
59264W        W 2176   1.402  13.432   7.184  0.2342 -0.2339  0.0693
59265W        W 2177   1.423  13.885   6.347 -0.0094 -0.1347  0.2375
59266W        W 2178   1.922  13.753   6.120  0.0477  0.0291  0.1229
59267W        W 2179   0.141  14.310   4.178 -0.1881 -0.0093  0.0231
59268W        W 2180   0.765  12.351   5.441  0.2031 -0.2865 -0.0907
59269W        W 2181   0.711  13.244   7.264 -0.3410 -0.3253  0.0491
59270W        W 2182   0.157  12.659   5.171 -0.3365  0.1075  0.0302
59271W        W 2183   3.869  12.482   7.109  0.3101 -0.2416 -0.0248
59272W        W 2184  33.967  14.298   4.107 -0.0346  0.1013 -0.1676
59273W        W 2185   4.393  12.000   2.848  0.2950 -0.2138  0.0840
59274W        W 2186   2.595  11.412   3.841 -0.2647 -0.1017 -0.0890
59275W        W 2187   1.772  12.230   4.520  0.1391  0.0596  0.2351
59276W        W 2188   1.457  10.614   3.599 -0.0543 -0.1772 -0.1404
59277W        W 2189   1.488  13.974   5.424  0.0419 -0.1390  0.1199
59278W        W 2190   0.892  11.573   6.730 -0.1285  0.0638 -0.2483
59279W        W 2191   2.604  13.230   6.020 -0.0857  0.0433  0.1663
59280W        W 2192   1.789  12.712   4.176 -0.0474  0.1383 -0.2591
59281W        W 2193   1.266  12.720   5.399 -0.0565  0.1159  0.1678
59282W        W 2194   0.852  14.664   6.853 -0.3257 -0.0039  0.0318
59283W        W 2195   0.253  13.498   5.767  0.3534  0.1671  0.3814
59284W        W 2196   5.131  13.732   3.550  0.1327  0.0765 -0.1145
59285W        W 2197   3.082  13.085   4.471  0.3031 -0.1649 -0.1926
59286W        W 2198   0.846  14.077   4.055  0.1508  0.3257 -0.2539
59287W        W 2199  33.654  11.786   5.481 -0.0016  0.4917 -0.2999
59288W        W 2200  33.673  12.431   7.740  0.2649  0.2729  0.2439
59289W        W 2201  33.746  12.324   7.232  0.3091 -0.3227  0.0305
59290W        W 2202   0.170  12.438   3.390 -0.2245  0.4023  0.0889
59291W        W 2203   2.882  12.795   7.219 -0.1753 -0.0118 -0.2349
59292W        W 2204  33.523  13.893   6.147 -0.1526 -0.0616  0.4232
59293W        W 2205   3.382  12.456   5.184  0.2121 -0.2175 -0.0235
59294W        W 2206   0.818  12.671   5.007  0.2627 -0.0954 -0.1549
59295W        W 2207   3.283  12.969   5.330  0.2606 -0.4266 -0.3290
59296W        W 2208   2.773  12.594   3.922  0.0953 -0.0600  0.3400
59297W        W 2209   2.373  10.582   5.937  0.2080 -0.0810  0.1664
59298W        W 2210   2.283  11.593   6.599 -0.1352  0.1341  0.2286
59299W        W 2211   1.893  12.557   3.687  0.1369  0.0030 -0.0294
59300W        W 2212   1.081  12.231   4.897 -0.1549  0.1441  0.1520
59301W        W 2213   2.836  13.841   6.205  0.0802  0.3083 -0.3241
59302W        W 2214   3.180  13.005   3.910  0.0186  0.3080  0.1233
59303W        W 2215  33.505  12.493   5.686 -0.2458  0.1286  0.1271
59304W        W 2216   1.323  11.792   6.948 -0.1191  0.2847 -0.1190
59305W        W 2217   2.111  13.687   6.819 -0.0020  0.2247  0.0627
59306W        W 2218   0.755  15.450   3.718  0.0829 -0.0374  0.0445
59307W        W 2219  34.609  12.180   5.853  0.2582 -0.1457 -0.0061
59308W        W 2220   0.843  12.609   4.453  0.2334  0.1330 -0.0623
59309W        W 2221  34.534  11.401   5.507  0.1001  0.0511 -0.0307
59310W        W 2222   0.355  12.173   6.268 -0.3871 -0.1515  0.3521
59311W        W 2223   2.417  13.127   5.425 -0.0140  0.2271  0.2505
59312W        W 2224   0.723  10.532   7.116  0.1462  0.4142  0.1427
59313W        W 2225   2.674  12.352   4.995 -0.1711  0.2249 -0.2196
59314W        W 2226  34.077  12.749   3.335 -0.0524 -0.0576  0.0401
59315W        W 2227   3.615  14.261   4.859 -0.3629 -0.0833 -0.1735
59316W        W 2228   3.542  12.601   3.664 -0.0804  0.0239 -0.0228
59317W        W 2229   1.690  14.795   3.962 -0.0002  0.0002  0.1231
59318W        W 2230  33.654  11.500   5.031  0.1187 -0.0681  0.0019
59319W        W 2231   1.667  11.827   6.384 -0.1132  0.0059  0.1247
59320W        W 2232   0.637  11.609   7.631 -0.2122 -0.0303 -0.0765
59321W        W 2233   1.123  10.838   7.053 -0.0306 -0.3240  0.1859
59322W        W 2234   2.152  11.955   6.246  0.0177  0.1982  0.0123
59323W        W 2235  34.459  10.646   3.405 -0.1238 -0.1844 -0.0140
59324W        W 2236   1.974  12.395   5.030 -0.1636  0.0667 -0.0362
59325W        W 2237   0.915  12.047   5.872  0.3184  0.0308 -0.3516
59326W        W 2238  34.236  13.307   5.140 -0.2169  0.1624  0.1858
59327W        W 2239   2.812  11.766   6.683  0.0933  0.0745 -0.1219
59328W        W 2240   0.173  14.184   4.793 -0.1873 -0.0094 -0.0569
59329W        W 2241   3.811  14.974   6.690  0.3649  0.2834  0.1529
59330W        W 2242   2.603  14.118   4.028 -0.3367 -0.1508 -0.2879
59331W        W 2243   0.703  11.728   6.271 -0.4184 -0.1636  0.0365
59332W        W 2244  34.417  12.106   3.795  0.1431  0.1123  0.4511
59333W        W 2245  33.703  13.068   4.712 -0.1104  0.0187  0.2667
59334W        W 2246  34.320  13.746   6.512  0.1742 -0.1161 -0.3181
59335W        W 2247   2.676  10.517   5.313  0.2961 -0.1026  0.0842
59336W        W 2248   2.655  14.485   4.888 -0.1092 -0.0788 -0.3241
59337W        W 2249   2.478  12.190   3.878  0.1436  0.0472  0.2299
59338W        W 2250   0.052  12.592   6.167 -0.0385 -0.1734 -0.1752
59339W        W 2251   2.480  11.337   7.479 -0.2796 -0.2440  0.0500
59340W        W 2252   3.666  12.045   5.744  0.1575 -0.1149 -0.2266
59341W        W 2253   2.223  12.970   6.361 -0.3633 -0.1043 -0.0117
59342W        W 2254  34.524  13.591   3.853 -0.3911 -0.0130  0.3495
59343W        W 2255   3.138  14.506   5.143  0.1575  0.0127  0.0466
59344W        W 2256   0.677  15.652   4.693  0.1403  0.0586 -0.0463
59345W        W 2257   0.234  11.187   5.172 -0.0322  0.0796  0.1869
59346W        W 2258   1.775  14.208   4.491  0.3557  0.2462 -0.1317
59347W        W 2259   3.280  10.190   4.569 -0.0838  0.1263 -0.0970
59348W        W 2260   0.382  12.363   8.311  0.3752 -0.4304 -0.1096
59349W        W 2261   0.967  13.359   6.838 -0.0952 -0.0131 -0.1606
59350W        W 2262   0.588  11.574   5.781 -0.1064  0.1312  0.1752
59351W        W 2263  34.201  12.590   7.045 -0.0633 -0.1338 -0.0240
59352W        W 2264   3.090   9.940   3.782  0.0826 -0.1247  0.3042
59353W        W 2265   5.849  11.810   4.338  0.4378  0.1081 -0.0151
59354W        W 2266   2.097  14.115   7.099 -0.1272 -0.0939 -0.0128
59355W        W 2267   1.533  13.367   5.487 -0.0906 -0.1357  0.1831
59356W        W 2268   0.968  12.865   3.779 -0.0455  0.1752 -0.0663
59357W        W 2269   1.817  10.219   3.853  0.0482 -0.0206  0.1506
59358W        W 2270  34.682  13.416   6.863 -0.2323 -0.0659  0.1721
59359W        W 2271   2.056  11.761   3.786 -0.2405 -0.1222  0.2077
59360W        W 2272   0.945  14.060   6.208  0.2861 -0.1187 -0.0157
59361W        W 2273   1.636  11.937   4.997 -0.2293  0.0667 -0.1870
59362W        W 2274   3.354  13.103   2.633 -0.1815  0.5511 -0.0532
59363W        W 2275   0.099  13.215   7.729 -0.0118  0.0363  0.2784
59364W        W 2276   3.060  13.318   6.383  0.0978  0.0123  0.0141
59365W        W 2277   1.926  13.692   5.267  0.3399  0.3829 -0.0993
59366W        W 2278   1.326  11.279   6.896  0.0993 -0.0019 -0.0653
59367W        W 2279   0.727  11.606   2.706  0.0515 -0.1431  0.0769
59368W        W 2280   2.288  10.209   5.225  0.2282  0.0433 -0.3025
59369W        W 2281  34.270  15.453   4.717 -0.4327  0.0222 -0.2148
59370W        W 2282   2.363  12.055   5.307  0.1173  0.1699  0.2609
59371W        W 2283   0.352  12.073   7.589  0.1905  0.0468  0.0125
59372W        W 2284   2.128  10.119   6.653  0.0524  0.2117  0.0094
59373W        W 2285   1.866  12.762   6.603  0.2751  0.0551 -0.0413
59374W        W 2286   2.731  13.287   3.778 -0.0891 -0.1965  0.0592
59375W        W 2287   1.422  12.942   4.958  0.0185  0.1610 -0.0350
59376W        W 2288   0.205  11.187   3.348 -0.1189 -0.2759  0.1957
59377W        W 2289   1.548  11.473   7.336 -0.2161 -0.2359 -0.2058
59378W        W 2290   0.806  12.398   6.383 -0.3478  0.0754 -0.2227
59379W        W 2291  32.782  13.159   6.450  0.1461 -0.0589 -0.2312
59380W        W 2292   2.278  13.334   7.731  0.0698  0.1451  0.1788
59381W        W 2293   1.213  12.201   5.479  0.0521 -0.0998  0.0753
59382W        W 2294  34.634  11.864   7.265 -0.0348  0.0357  0.4736
59383W        W 2295   1.404  12.531   4.599  0.1252 -0.0796  0.2340
59384W        W 2296  34.377  14.119   4.977 -0.0256 -0.0643  0.0419
59385W        W 2297   1.140  13.440   6.218  0.3999  0.3684 -0.0794
59386W        W 2298   1.386  10.851   6.675  0.0966 -0.2741 -0.2597
59387W        W 2299   0.443  13.113   5.041 -0.0620 -0.2919 -0.2188
59388W        W 2300   1.870  15.277   4.027  0.0983  0.0187 -0.2289
59389W        W 2301   2.767  12.869   6.389  0.1389  0.0317  0.0076
59390W        W 2302  33.527  12.697   4.299 -0.2505  0.2678  0.0740
59391W        W 2303   2.449  10.026   6.097 -0.4540  0.2302  0.4354
59392W        W 2304  34.296  13.075   6.780  0.3604 -0.2266 -0.0682
59393W        W 2305   0.393  11.840   3.066  0.1377  0.1266  0.2483
59394W        W 2306  33.469  12.708   3.732 -0.3224 -0.0983  0.0152
59395W        W 2307   3.061  11.436   5.006  0.0463  0.1434 -0.3328
59396W        W 2308   4.552  12.994   4.707 -0.0635  0.0254 -0.0185
59397W        W 2309   1.129  11.225   5.334 -0.0068 -0.1888 -0.2938
59398W        W 2310   2.662  10.898   5.674  0.2660  0.2085  0.2285
59399W        W 2311  34.157  13.161   4.465  0.3099 -0.0904 -0.1527
59400W        W 2312   0.518  12.233   7.119 -0.2970  0.1875  0.0081
59401W        W 2313   2.551  11.918   2.793  0.0938 -0.1885 -0.0834
59402W        W 2314   2.879  13.255   5.336 -0.0558 -0.0546 -0.1123
59403W        W 2315   0.617  11.019   7.434 -0.0631  0.0401  0.2584
59404W        W 2316   1.155  11.663   5.017  0.4245 -0.0930  0.3794
59405W        W 2317   2.380  12.071   6.817 -0.5290  0.1594  0.2516
59406W        W 2318   1.889  10.875   4.520 -0.0552 -0.2850 -0.2340
59407W        W 2319  33.102  14.353   5.494 -0.1456 -0.0608  0.0343
59408W        W 2320   2.698  13.898   6.668  0.1369  0.1658  0.1022
59409W        W 2321   0.062  12.855   4.309 -0.0244 -0.1486 -0.1029
59410W        W 2322   2.391  14.014   5.339 -0.2122 -0.3113  0.0695
59411W        W 2323   1.947  11.746   7.515 -0.1459 -0.1376  0.4553
59412W        W 2324   2.034  12.278   7.538  0.0838 -0.2556 -0.1893
59413W        W 2325   0.907  11.255   6.342  0.2937 -0.2791 -0.0535
59414W        W 2326   1.213  11.695   5.483 -0.0330 -0.0365  0.0330
59415W        W 2327   1.205  11.795   4.126  0.0507 -0.2865 -0.0981
59416W        W 2328   3.742  12.790   6.737 -0.4003 -0.0476 -0.2056
59417W        W 2329   1.982  12.284   6.618 -0.0769 -0.0557 -0.0930
59418W        W 2330   0.155  13.911   6.778  0.0474 -0.0959 -0.2291
59419W        W 2331   2.208  11.090   6.472  0.0281 -0.0076  0.1984
59420W        W 2332   3.504  14.392   4.317 -0.2660 -0.0132 -0.0546
59421W        W 2333   1.408  12.970   5.802 -0.2209  0.1670 -0.0948
59422W        W 2334   0.514  12.877   4.145  0.1571 -0.3036 -0.1643
59423W        W 2335  34.368  13.264   6.315  0.2554  0.2175  0.2563
59424W        W 2336   0.734  13.052   4.650 -0.2183  0.1319 -0.1966
59425W        W 2337   1.818  12.049   5.488 -0.3133  0.0915 -0.3938
59426W        W 2338  34.521  12.238   6.930 -0.0707  0.1870 -0.1458
59427W        W 2339   0.230  14.738   3.311 -0.2839 -0.3361 -0.1804
59428W        W 2340  33.347  13.658   6.832  0.2156 -0.0755  0.2664
59429W        W 2341   2.202   9.967   3.593  0.0437 -0.1462  0.2548
59430W        W 2342   1.400  12.654   3.857  0.0659  0.1056  0.1020
59431W        W 2343   0.641  12.877   5.557  0.0110  0.0845  0.0425
59432W        W 2344   3.237  10.583   5.801  0.0526 -0.1545  0.0166
59433W        W 2345   3.286  13.467   3.623 -0.0768  0.0140 -0.0183
59434W        W 2346   2.278  11.177   8.166  0.3047 -0.1994 -0.1251
59435W        W 2347   1.551  10.201   5.845 -0.1517 -0.1885 -0.0038
59436W        W 2348   0.981  14.791   5.599  0.0167  0.1835  0.1982
59437W        W 2349   0.050  13.083   6.491  0.2874 -0.1312 -0.0546
59438W        W 2350   1.970  14.232   7.866 -0.2544 -0.1441 -0.0107
59439W        W 2351   0.538  13.362   8.084  0.0522  0.3269  0.2224
59440W        W 2352   2.205  11.741   5.675 -0.0233  0.1012 -0.0875
59441W        W 2353  33.868  12.330   4.016  0.1650 -0.2191  0.0405
59442W        W 2354   0.751  13.698   6.495  0.0259  0.1333  0.2712
59443W        W 2355   2.197  13.686   5.717 -0.2264  0.1251 -0.2573
59444W        W 2356   1.479  14.761   4.391  0.4894  0.0854 -0.0897
59445W        W 2357   2.279  12.498   6.254 -0.0275  0.1063  0.4843
59446W        W 2358   0.466  12.781   6.395 -0.2939 -0.0373 -0.0276
59447W        W 2359   2.523  11.491   5.066 -0.2357  0.2371  0.1237
59448W        W 2360   1.885  12.723   4.659  0.1782  0.1544  0.0167
59449W        W 2361   0.928  12.094   4.445  0.2315  0.0215 -0.1126
59450W        W 2362   0.769  11.127   6.894 -0.0298 -0.4321 -0.2497
59451W        W 2363   2.604  13.943   4.832 -0.0686  0.0572  0.3815
59452W        W 2364   1.705  11.496   4.662  0.0105  0.0869  0.0989
59453W        W 2365   2.380   9.584   7.226  0.0305  0.1889 -0.2621
59454W        W 2366   1.030  12.716   7.785 -0.0603 -0.0179 -0.1721
59455W        W 2367   0.832  12.657   7.344 -0.0659  0.2292  0.0276
59456W        W 2368  34.465  11.049   6.019 -0.1711  0.0414 -0.0668
59457W        W 2369   2.319  14.482   5.564  0.0944  0.2448 -0.3585
59458W        W 2370   3.006  12.660   2.658 -0.0670 -0.2122  0.1351
59459W        W 2371   3.903  11.388   5.759  0.2866 -0.2120 -0.1679
59460W        W 2372   2.792  12.309   3.434 -0.0204 -0.1723  0.2502
59461W        W 2373   2.804  12.225   4.310 -0.1167  0.0267  0.4834
59462W        W 2374  33.738  12.373   6.158 -0.2467 -0.3035  0.1085
59463W        W 2375   2.692  12.070   6.248  0.0886 -0.1353 -0.7217
59464W        W 2376   1.940  11.536   6.152  0.1275 -0.0749 -0.2658
59465W        W 2377   2.606  11.313   6.996  0.2376 -0.1581  0.1523
59466W        W 2378   1.848  13.961   4.077  0.0480 -0.1513 -0.2987
59467W        W 2379   1.249  12.879   4.283 -0.1590 -0.1067  0.1919
59468W        W 2380   2.615  10.080   5.607  0.2348  0.2260 -0.2514
59469W        W 2381  34.142  11.672   5.331  0.0655 -0.2531  0.3811
59470W        W 2382   0.398  14.454   7.024 -0.0227 -0.3103  0.0386
59471W        W 2383   1.084  11.941   3.675  0.0206 -0.1283 -0.0419
59472W        W 2384   1.982  12.273   4.075  0.1491  0.2748  0.0510
59473W        W 2385   1.955  13.152   5.613 -0.0161  0.0270 -0.0143
59474W        W 2386   3.851  13.387   7.544  0.2322 -0.0532 -0.0346
59475W        W 2387   3.332  10.703   4.647 -0.2437 -0.1807  0.0947
59476W        W 2388   3.492  12.318   6.817 -0.1110  0.1195  0.1666
59477W        W 2389  34.496  14.374   4.480 -0.0391 -0.0320  0.0564
59478W        W 2390   2.138  10.219   5.722  0.1436 -0.1842 -0.1018
59479W        W 2391   0.579  13.611   7.534 -0.1987  0.0342 -0.1911
59480W        W 2392  32.980  13.465   7.132 -0.2615  0.0485  0.0624
59481W        W 2393   1.629  13.349   6.030 -0.1124  0.2505 -0.1420
59482W        W 2394   1.116  11.988   6.373  0.0150  0.1007  0.1848
59483W        W 2395   2.752  12.822   5.148 -0.3688 -0.0460 -0.0450
59484W        W 2396   3.151  12.932   6.011 -0.1058  0.1700 -0.0267
59485W        W 2397   1.886  14.035   6.523 -0.0107  0.3244  0.0494
59486W        W 2398  34.541  12.969   5.502 -0.0162  0.1493  0.0885
59487W        W 2399   0.914  13.763   7.253  0.0556 -0.1535 -0.0812
59488W        W 2400   2.566  13.542   4.266  0.0580 -0.1068 -0.2206
59489W        W 2401  33.404  13.432   6.362 -0.0767  0.1801 -0.2066
59490W        W 2402  34.674  11.357   7.357 -0.3981  0.0720  0.0202
59491W        W 2403   1.309  12.744   6.947  0.2167 -0.1842 -0.2233
59492W        W 2404   2.003  13.225   5.096 -0.3404 -0.1898  0.0301
59493W        W 2405   1.722   9.818   4.207 -0.0180 -0.0422 -0.2398
59494W        W 2406   0.843  13.260   4.198 -0.2361 -0.2419  0.2977
59495W        W 2407  34.371  13.256   7.276 -0.2625  0.1184  0.1106
59496W        W 2408  33.936  12.415   5.381  0.3102 -0.0491 -0.0784
59497W        W 2409   0.759  13.682   5.887 -0.0338 -0.0068 -0.1005
59498W        W 2410   1.708  13.159   4.551 -0.0296 -0.0873  0.0633
59499W        W 2411   2.248  11.632   3.110 -0.1082 -0.0806  0.2594
59500W        W 2412   2.209  14.581   4.545  0.0266  0.1384  0.0185
59501W        W 2413   0.226  11.348   2.848  0.0852  0.0296 -0.2096
59502W        W 2414   1.523  13.441   4.978  0.2363  0.2852  0.0881
59503W        W 2415   0.448  13.647   3.502 -0.0289  0.1652  0.1727
59504W        W 2416   3.122  14.127   4.819  0.1868 -0.0872 -0.0736
59505W        W 2417  34.688  14.407   5.449  0.0131 -0.0860 -0.3476
59506W        W 2418   2.463  14.077   5.895 -0.1520 -0.3633 -0.1712
59507W        W 2419   3.121  11.475   3.471 -0.0661  0.4276 -0.0264
59508W        W 2420   2.799  12.875   5.677  0.0389 -0.6274 -0.4055
59509W        W 2421   3.901  11.384   4.120  0.1823  0.0268 -0.0595
59510W        W 2422   1.939  13.392   6.448  0.2286  0.1761  0.3265
59511W        W 2423   2.080  11.049   5.959  0.0651 -0.0763  0.1065
59512W        W 2424   2.852  10.722   4.517 -0.0931 -0.1491 -0.5532
59513W        W 2425   0.024  12.390   7.368 -0.1033 -0.1587  0.0798
59514W        W 2426   2.653  10.634   8.022 -0.0619 -0.2311  0.2658
59515W        W 2427  33.850  14.210   7.208 -0.1441  0.0086  0.1105
59516W        W 2428   3.202  12.743   4.843  0.2500 -0.0391 -0.0612
59517W        W 2429   1.355  11.929   4.613  0.0785  0.3437  0.3632
59518W        W 2430   1.453  12.017   5.952 -0.0844  0.3557 -0.3189
59519W        W 2431   2.284  10.098   4.635 -0.2427  0.0228  0.0426
59520W        W 2432   1.292  13.730   5.815  0.0383  0.1146  0.0100
59521W        W 2433   1.650  11.577   5.692  0.1382  0.0760  0.0839
59522W        W 2434   0.031  13.446   5.239 -0.0672 -0.4756 -0.0232
59523W        W 2435   1.262  14.953   6.517 -0.0439 -0.4025  0.2581
59524W        W 2436   0.531  13.293   6.227 -0.1389 -0.1089 -0.0695
59525W        W 2437  34.318  12.659   3.891  0.0803 -0.1562 -0.0146
59526W        W 2438   3.988  12.734   4.441  0.3712 -0.0421  0.1162
59527W        W 2439  34.655  13.085   5.945 -0.0127  0.2616  0.2934
59528W        W 2440   2.910  11.569   6.030 -0.2883 -0.1013 -0.0089
59529W        W 2441   1.419  12.635   6.283 -0.0438  0.1758  0.0700
59530W        W 2442   3.501  11.542   4.369 -0.0887  0.1652 -0.2169
59531W        W 2443   1.025  13.151   5.104  0.1837 -0.1764 -0.1901
59532W        W 2444   0.602  12.512   5.939 -0.2165 -0.0372  0.1396
59533W        W 2445   2.312  12.650   4.091  0.0192  0.1686  0.1429
59534W        W 2446   1.940  11.876   6.951 -0.2683 -0.2179 -0.2302
59535W        W 2447   2.348  12.152   3.142  0.1705 -0.0892  0.1837
59536W        W 2448   3.045  13.677   7.974 -0.1584 -0.1243  0.1597
59537W        W 2449   0.593  10.709   5.835  0.2777 -0.0892 -0.2260
59538W        W 2450   2.508  11.861   3.509 -0.4911  0.0481  0.1867
59539W        W 2451   0.315  12.750   4.728  0.2264 -0.1985  0.0206
59540W        W 2452   0.780  12.623   6.848 -0.1700 -0.1312  0.2645
59541W        W 2453   4.451  14.312   5.807 -0.1573  0.2025 -0.2035
59542W        W 2454   0.096  10.783   5.659 -0.2956 -0.1443  0.0920
59543W        W 2455   4.536  13.203   2.771  0.0177 -0.3542 -0.0813
59544W        W 2456   2.369  12.563   5.399 -0.1264  0.1472  0.0251
59545W        W 2457   1.104  14.287   5.197  0.1518  0.1233  0.2161
59546W        W 2458   1.696  14.576   5.713 -0.3062  0.1466 -0.2229
59547W        W 2459   1.712  13.719   4.519 -0.0012  0.0790 -0.2191
59548W        W 2460   0.299  11.206   5.987  0.2572 -0.0875  0.2588
59549W        W 2461   0.926  14.043   5.588  0.0017  0.0363  0.1350
59550W        W 2462   3.778  13.897   5.943  0.2614  0.1772 -0.1785
59551W        W 2463   1.405  12.091   3.179 -0.1502  0.0342 -0.1568
59552W        W 2464   2.190  10.584   6.416 -0.0459 -0.1678 -0.0808
59553W        W 2465   0.177  13.954   5.240  0.0614  0.3894 -0.1336
59554W        W 2466   1.137  12.550   5.838 -0.1363  0.1403  0.0448
59555W        W 2467   2.737  11.391   5.613  0.3266 -0.1816 -0.1380
59556W        W 2468   2.526  15.311   4.355 -0.0914  0.0164 -0.2050
59557W        W 2469   1.937  10.283   8.487 -0.2629 -0.2882 -0.3151
59558W        W 2470   2.386  14.832   6.620  0.0637  0.1577 -0.1398
59559W        W 2471   0.510  13.579   6.941  0.4082  0.0416  0.1930
59560W        W 2472   0.395  13.355   4.489 -0.1510  0.2385 -0.0732
59561W        W 2473   1.075  12.233   7.062 -0.1943 -0.0328 -0.0166
59562W        W 2474   0.555  13.918   4.435 -0.0820 -0.0631  0.0251
59563W        W 2475  34.595  14.551   4.934  0.2232  0.0040 -0.4404
59564W        W 2476   2.458  13.502   5.086  0.0227  0.3978 -0.3323
59565W        W 2477   2.193  12.262   5.785 -0.2775 -0.1793  0.1497
59566W        W 2478   3.187  12.554   4.258  0.0207  0.1021 -0.3005
59567W        W 2479   1.169  11.605   5.997  0.2620 -0.0037 -0.1753
59568W        W 2480   3.032  11.728   4.623 -0.1383  0.0064  0.0531
59569W        W 2481   2.360  10.570   4.347  0.0868 -0.0364  0.2327
59570W        W 2482   0.521  12.944   7.651 -0.1039  0.1529  0.1489
59571W        W 2483   0.138  12.568   3.898  0.0974  0.0429  0.1068
59572W        W 2484   0.900  13.663   2.714  0.1674  0.1166 -0.0958
59573W        W 2485  34.154  13.674   7.503 -0.1922  0.3479  0.1306
59574W        W 2486   1.617  12.023   7.259 -0.0001  0.0320 -0.1737
59575W        W 2487  33.349  12.316   6.973  0.0809 -0.2012 -0.2348
59576W        W 2488  33.957  11.192   6.167  0.2795 -0.2293 -0.2693
59577W        W 2489   0.360  11.696   4.926  0.0693  0.2149  0.2992
59578W        W 2490   3.762  12.744   3.085  0.0241  0.0406 -0.1072
59579W        W 2491   0.334  12.168   5.216  0.3299 -0.1685 -0.0741
59580W        W 2492  33.553  10.148   4.740 -0.2149 -0.1110  0.3831
59581W        W 2493   1.743  14.032   3.443  0.1616  0.1503 -0.0552
59582W        W 2494   1.337  13.817   4.015 -0.0460 -0.1133 -0.0281
59583W        W 2495   1.555  11.415   5.119  0.2077  0.1219  0.0405
59584W        W 2496   1.960  14.290   6.093  0.1635 -0.0137  0.0268
59585W        W 2497   1.189  13.253   2.959  0.1910  0.2330 -0.1263
59586W        W 2498   1.825  12.811   6.064  0.0279 -0.0395 -0.0295
59587W        W 2499   1.051  11.272   7.353 -0.0243  0.4588 -0.0040
59588W        W 2500  33.883  12.306   3.506 -0.0374  0.1007  0.3199
59589W        W 2501   1.438  13.141   6.594  0.1007  0.3506  0.4987
59590W        W 2502   1.320  14.175   4.305 -0.1680  0.0831 -0.0748
59591W        W 2503   2.121  15.058   4.392  0.2155 -0.0517  0.0787
59592W        W 2504  34.196  13.340   5.601 -0.0244  0.1117 -0.2216
59593W        W 2505   1.815  15.318   6.180  0.1595 -0.3049  0.2498
59594W        W 2506  34.002  10.590   7.422 -0.2056 -0.0908  0.1024
59595W        W 2507   3.337  11.941   5.078 -0.1081  0.3303  0.1922
59596W        W 2508   1.042  13.307   5.704 -0.1792  0.0211  0.1542
59597W        W 2509   3.140  14.290   3.709 -0.0221  0.1728 -0.0521
59598W        W 2510   2.674  11.981   5.761 -0.0201  0.1455 -0.2654
59599W        W 2511   1.864  12.773   5.309 -0.2196 -0.0626  0.2876
59600W        W 2512   1.752  11.094   9.082 -0.4053  0.1087 -0.2053
59601W        W 2513  34.031  12.826   6.394  0.0749 -0.2150 -0.1949
59602W        W 2514   2.047  13.331   4.169 -0.0030  0.0365 -0.1834
59603W        W 2515   1.853  10.290   6.209 -0.1735 -0.0590 -0.3871
59604W        W 2516   2.221  11.891   4.300 -0.0261  0.1067  0.1192
59605W        W 2517   0.787  14.355   4.686  0.2668  0.0413 -0.0693
59606W        W 2518  34.039  12.022   5.742  0.2648 -0.2589 -0.0005
59607W        W 2519   1.483  12.443   5.096 -0.2332  0.2331  0.2337
59608W        W 2520   2.390  11.764   7.222  0.0629 -0.1974 -0.0326
59609W        W 2521   1.090  13.943   4.818  0.0019  0.1140 -0.1982
59610W        W 2522   2.438  13.122   7.254  0.1020 -0.0830 -0.3600
59611W        W 2523   2.753  12.714   4.646 -0.0761  0.1876 -0.0157
59612W        W 2524   4.063  13.282   4.242  0.0367  0.4242 -0.1396
59613W        W 2525   3.265  14.502   6.573 -0.0362 -0.1021  0.0250
59614W        W 2526   1.765  13.883   7.472  0.1933 -0.2480 -0.0297
59615W        W 2527   0.594  12.317   4.791 -0.0016 -0.0360  0.0527
59616W        W 2528   3.128  12.214   4.735  0.3850  0.3536 -0.0901
59617W        W 2529   0.508  10.320   6.218  0.2508 -0.2129  0.0395
59618W        W 2530  34.076  12.706   4.451 -0.1206  0.1477 -0.2673
59619W        W 2531  33.260  13.086   4.486  0.2308 -0.0933  0.2557
59620W        W 2532   2.204  11.284   5.509 -0.2796  0.1755  0.1620
59621W        W 2533   1.704  10.948   5.277 -0.2299 -0.1076 -0.1762
59622W        W 2534   3.132  10.912   4.185 -0.1720  0.0355 -0.0215
59623W        W 2535   1.011  14.230   7.089 -0.0385 -0.1260 -0.2115
59624W        W 2536   2.147  13.324   6.014  0.3685  0.1138 -0.1037
59625W        W 2537   0.652  11.549   9.947  0.0217 -0.2516 -0.1382
59626W        W 2538   0.566  11.492   8.112 -0.1218 -0.0715  0.0850
59627W        W 2539   3.059  11.652   7.160 -0.0357 -0.0015 -0.2095
59628W        W 2540   2.256  13.194   8.542  0.1869  0.2589  0.0609
59629W        W 2541   0.516  10.702   9.918  0.1798  0.4222 -0.0990
59630W        W 2542   2.492  15.161   9.363  0.2313  0.1306 -0.1000
59631W        W 2543   2.407  12.976   9.876 -0.0151  0.1969  0.0234
59632W        W 2544   1.737  10.449  10.675 -0.1937 -0.2407  0.0442
59633W        W 2545   1.330  13.496   7.643  0.3815 -0.0675 -0.0284
59634W        W 2546   1.048  11.596   9.587 -0.0591 -0.1736  0.0582
59635W        W 2547   0.109  10.859   7.437 -0.2619  0.2906  0.1279
59636W        W 2548  32.782  10.519   7.810  0.0497 -0.1708  0.1480
59637W        W 2549   0.965  12.512   9.135 -0.0451  0.0657  0.0196
59638W        W 2550  33.493  12.549   8.284 -0.2838 -0.0813  0.2222
59639W        W 2551   0.307  10.198   9.890  0.2495  0.1138  0.1807
59640W        W 2552   0.861  12.147   7.544  0.0636 -0.2604 -0.0717
59641W        W 2553   0.922  13.017   9.484  0.0141  0.0427  0.0143
59642W        W 2554  33.703   9.479   9.080 -0.3017 -0.0296 -0.1289
59643W        W 2555   0.934  13.186   7.805 -0.0110  0.0776 -0.0373
59644W        W 2556   0.431  12.030   5.671  0.3305  0.0066  0.1021
59645W        W 2557  33.395  14.107   9.908  0.2241 -0.3246 -0.0393
59646W        W 2558   0.042  12.090   8.861  0.1470  0.1704  0.2236
59647W        W 2559   2.343  11.919   7.709  0.1646 -0.1950 -0.3302
59648W        W 2560   2.425  11.898   9.912  0.0942 -0.1716 -0.1817
59649W        W 2561  33.715  10.676   9.830  0.2232  0.0939 -0.2264
59650W        W 2562   2.087  13.944   8.920 -0.0777  0.1279 -0.0119
59651W        W 2563  34.209  13.660  10.041  0.0650  0.3017  0.2369
59652W        W 2564  33.630  14.133   8.253 -0.1395 -0.0418 -0.0946
59653W        W 2565  34.346  13.900   9.617  0.0477  0.0004  0.1321
59654W        W 2566   4.135  14.159   8.611 -0.0666 -0.1230  0.1325
59655W        W 2567   0.147  13.527   8.376 -0.0939 -0.1500 -0.2098
59656W        W 2568   1.396  11.157   9.547 -0.2680 -0.0188 -0.1273
59657W        W 2569   1.836  12.057   7.934 -0.4489  0.3027  0.0289
59658W        W 2570   0.025  13.630   9.379  0.2640 -0.1793  0.0634
59659W        W 2571   3.308  11.478   9.562 -0.0295  0.1477 -0.1021
59660W        W 2572  34.293  13.521   8.332 -0.4524  0.1230 -0.0117
59661W        W 2573   1.554  13.846   7.912 -0.0834  0.1278 -0.0091
59662W        W 2574   3.247  12.319   7.864  0.0018 -0.2054  0.0329
59663W        W 2575   1.422  11.112   7.717  0.1800 -0.3080  0.1810
59664W        W 2576   2.702  11.546   8.007  0.2488  0.0156  0.0914
59665W        W 2577  34.234  11.500   9.506  0.0060  0.3302  0.0479
59666W        W 2578   0.050  14.218   9.764  0.0762  0.1841 -0.2133
59667W        W 2579  34.627  10.628   9.279 -0.0440  0.3266  0.2540
59668W        W 2580   0.652  12.849   8.198  0.0087  0.3871  0.4010
59669W        W 2581   1.807  12.769   9.971 -0.1170  0.1275 -0.2886
59670W        W 2582   1.928  13.315   9.912 -0.3165  0.0460  0.1640
59671W        W 2583  34.384  12.417   9.139  0.0050  0.1288 -0.0174
59672W        W 2584   2.271  14.329   6.551 -0.4419 -0.1203 -0.0291
59673W        W 2585   2.620  13.294   9.078 -0.0656 -0.0644 -0.3597
59674W        W 2586   2.502  12.866   8.125  0.0975 -0.1955 -0.3164
59675W        W 2587  34.236  11.548   8.160  0.2186  0.6564  0.0642
59676W        W 2588   1.401   9.755   7.901 -0.1660 -0.0527 -0.0166
59677W        W 2589   1.760  12.218   8.486 -0.1675 -0.0461 -0.0082
59678W        W 2590   1.379  12.041   9.411  0.0219  0.1529  0.2851
59679W        W 2591   1.424  13.121   9.727 -0.1741 -0.0558 -0.1700
59680W        W 2592   2.835  11.809   7.557  0.4094 -0.1439 -0.1019
59681W        W 2593   0.667  12.021  10.288  0.0751  0.1784  0.0255
59682W        W 2594   0.817  10.309  10.319  0.1863  0.1278 -0.1079
59683W        W 2595   0.097  12.642   7.883 -0.0414 -0.0204 -0.0683
59684W        W 2596   0.452  11.300   9.155 -0.0254  0.0105 -0.0526
59685W        W 2597   4.702  14.718  10.015 -0.0118  0.0575  0.0605
59686W        W 2598   2.906  12.624   8.093  0.3378 -0.1127 -0.0204
59687W        W 2599   0.753  12.581   9.623 -0.0832 -0.5528 -0.0797
59688W        W 2600   0.219  14.519   7.514  0.1761 -0.1710  0.0375
59689W        W 2601  33.435  14.391   9.207 -0.1663 -0.2435 -0.0021
59690W        W 2602   0.545  12.857   8.933  0.1135 -0.1211 -0.0453
59691W        W 2603  32.774  11.973  10.298 -0.1318  0.0255 -0.0526
59692W        W 2604   0.587  14.444   9.510 -0.0685  0.1972  0.0851
59693W        W 2605   3.504  11.417   7.729  0.0589 -0.0728  0.1859
59694W        W 2606   2.935  11.527   9.228 -0.0078  0.0393 -0.3279
59695W        W 2607  33.848  14.252   8.969 -0.3446  0.0883  0.1737
59696W        W 2608   2.430  14.271   8.379  0.0838  0.0817  0.0486
59697W        W 2609   3.172  11.792   8.507 -0.0931  0.3379  0.0785
59698W        W 2610   3.501  13.046   7.063 -0.1646  0.0150 -0.1399
59699W        W 2611  33.020  14.468   9.979  0.1017 -0.3127  0.1522
59700W        W 2612   0.282  13.062   8.529 -0.1493 -0.2652  0.2672
59701W        W 2613  33.552   9.784   8.664 -0.0042  0.0951  0.0960
59702W        W 2614  34.684  11.038   6.545  0.2338 -0.0007  0.0557
59703W        W 2615   2.768  11.990   9.087 -0.1879 -0.3066 -0.1464
59704W        W 2616   0.491  12.115   9.802 -0.0738 -0.1981  0.0044
59705W        W 2617  34.213  12.774   7.968  0.0192 -0.2277  0.0978
59706W        W 2618   0.936  13.726   7.820  0.0383 -0.1564  0.2585
59707W        W 2619   2.593  14.249   8.889 -0.0314 -0.2048 -0.4908
59708W        W 2620   2.788  13.129   8.628 -0.0516  0.1883  0.1164
59709W        W 2621   2.823  11.662  10.136  0.0531 -0.0893  0.1107
59710W        W 2622  33.485  11.078   9.428  0.1316 -0.0754 -0.2810
59711W        W 2623  33.736  14.789   8.245  0.1586  0.2181  0.0187
59712W        W 2624   4.197  12.951   9.256  0.1195 -0.3056 -0.3129
59713W        W 2625  34.258  10.675   9.653  0.2620 -0.1391 -0.1927
59714W        W 2626   2.925  14.323   8.490 -0.3677 -0.2829 -0.2959
59715W        W 2627   1.503  12.629   8.653  0.1163  0.0210  0.1402
59716W        W 2628   2.718  11.284   9.739 -0.1248  0.0593 -0.2757
59717W        W 2629   1.880  12.550   8.140 -0.0935 -0.0890  0.2760
59718W        W 2630   1.054  11.537   8.310 -0.0307  0.1499  0.1135
59719W        W 2631   0.938  14.308   8.585  0.3144  0.1068  0.1022
59720W        W 2632  34.518  14.321   7.944  0.1547  0.2497  0.0479
59721W        W 2633  34.257  11.981   9.055  0.1936  0.0562  0.0865
59722W        W 2634   1.233  13.431   8.736  0.0903  0.0764  0.1106
59723W        W 2635   3.086  13.755   9.327 -0.2995  0.0398 -0.0051
59724W        W 2636  34.627  13.060   8.160  0.0162  0.1705 -0.1304
59725W        W 2637   1.915  11.752   8.580  0.0679  0.0028 -0.0089
59726W        W 2638   2.361  11.587   8.433  0.1590  0.2158  0.0194
59727W        W 2639   1.734  12.979   7.282 -0.1093  0.0263 -0.0889
59728W        W 2640   2.761   9.618   5.930  0.1416  0.1788 -0.1298
59729W        W 2641   1.806  11.410   6.679  0.3193 -0.0375  0.0018
59730W        W 2642   1.447  12.821   9.347 -0.0459  0.1552  0.0640
59731W        W 2643   0.447   9.817  10.198 -0.3548  0.4408  0.2228
59732W        W 2644   1.602  10.943   7.236 -0.1071  0.0196  0.2202
59733W        W 2645   2.497  12.680   7.581 -0.2260 -0.1571  0.3999
59734W        W 2646  32.914  11.850   9.743 -0.1289 -0.0379 -0.2288
59735W        W 2647   1.947  13.584   8.419 -0.1424  0.2559  0.0694
59736W        W 2648   2.052  10.672   9.705  0.1285  0.0931 -0.0264
59737W        W 2649   0.942  11.299   7.802  0.1318 -0.1245 -0.2554
59738W        W 2650   1.870  11.826   9.139  0.2211 -0.0565 -0.0119
59739W        W 2651   0.082  13.985   8.778  0.0712 -0.1981 -0.1184
59740W        W 2652   3.543  12.293  10.008 -0.0061 -0.2250 -0.1192
59741W        W 2653   1.670  10.658   9.335 -0.1878 -0.1765  0.1801
59742W        W 2654   2.648  14.052   7.199 -0.0113 -0.0222 -0.0406
59743W        W 2655   1.549  10.633   9.836  0.1389  0.0015  0.2159
59744W        W 2656  33.680  11.554   8.104 -0.0293  0.1334 -0.0598
59745W        W 2657  34.544  10.365   7.989 -0.1623  0.0376 -0.0899
59746W        W 2658  33.512  14.521   9.720 -0.4822 -0.0115  0.0215
59747W        W 2659   1.220  12.981   7.402 -0.3603 -0.0141  0.0092
59748W        W 2660   1.763  12.394   9.538 -0.0035 -0.3357 -0.0158
59749W        W 2661   1.265  13.463   8.142 -0.2241  0.2119 -0.2147
59750W        W 2662   1.660  13.588   6.778  0.0633  0.1340  0.0029
59751W        W 2663  32.535  10.182   8.683 -0.2681 -0.1457 -0.0896
59752W        W 2664   1.079  12.813  10.000 -0.1763 -0.0541 -0.1292
59753W        W 2665  34.314  14.016   6.906  0.2091 -0.0209  0.0353
59754W        W 2666   2.703  14.637   9.304  0.1224  0.0627 -0.1820
59755W        W 2667   0.196  13.950   7.659  0.4083  0.1141 -0.1225
59756W        W 2668   1.432  11.564   9.272 -0.0347  0.0349 -0.0534
59757W        W 2669   0.698  15.248  10.606  0.0024 -0.0011  0.0329
59758W        W 2670  34.663  12.174   8.058  0.2821  0.0395  0.1356
59759W        W 2671  33.364  12.022   7.404  0.0277 -0.3663 -0.0224
59760W        W 2672   2.520  11.087   8.711 -0.2196  0.0972  0.1923
59761W        W 2673   4.733  13.288   7.952 -0.1029  0.1293  0.1115
59762W        W 2674  33.961  14.669   9.843  0.3696 -0.0184  0.1069
59763W        W 2675   0.431  10.608   9.425  0.1410 -0.0860 -0.0604
59764W        W 2676  33.454  15.789   9.070  0.3065  0.2967 -0.2270
59765W        W 2677   2.091  11.323   7.010 -0.1640 -0.0012  0.0370
59766W        W 2678   0.440  11.501   7.176 -0.0382  0.1062 -0.0394
59767W        W 2679   2.343   9.375  10.166  0.0725 -0.5291 -0.3534
59768W        W 2680  34.062   9.332   9.644  0.1425 -0.0955  0.0261
59769W        W 2681  34.133  13.905   8.693 -0.1196  0.1765  0.2079
59770W        W 2682   1.736  13.900   9.822 -0.0579  0.0485  0.2243
59771W        W 2683  34.576  12.846   7.518 -0.0108  0.2809 -0.0067
59772W        W 2684   0.574  13.044   9.875 -0.2185  0.2468  0.1715
59773W        W 2685   1.960  11.935   9.664  0.0939 -0.0001  0.0476
59774W        W 2686   0.082  11.282   8.269 -0.1651  0.2149 -0.0775
59775W        W 2687   1.211  12.203   8.555 -0.3511 -0.1437  0.1417
59776W        W 2688  34.444  12.466   9.680  0.0586 -0.0330 -0.2003
59777W        W 2689   1.956  13.083   8.172  0.1546  0.0496  0.0121
59778W        W 2690  34.195   9.990  10.240 -0.4104 -0.0256  0.1630
59779W        W 2691   2.601  10.721   9.739 -0.1231  0.0782 -0.2538
59780W        W 2692   2.130  13.740   8.003  0.0742 -0.0811 -0.0021
59781W        W 2693  34.495  13.586   8.767 -0.0119  0.0953 -0.3164
59782W        W 2694  32.214  11.711  10.075  0.1412 -0.0571  0.0845
59783W        W 2695   1.151  11.898   8.036 -0.1374  0.2999 -0.0096
59784W        W 2696   1.019  10.439   9.865 -0.0100 -0.3996 -0.1049
59785W        W 2697   0.717  11.152  10.213  0.2245  0.1456  0.0971
59786W        W 2698   0.953  13.467   9.738 -0.0932 -0.0870 -0.0045
59787W        W 2699   0.726  11.148   9.575 -0.1488 -0.1775  0.2901
59788W        W 2700   2.643  10.117   7.869 -0.1544 -0.1773  0.1189
59789W        W 2701   3.331  13.296   7.684 -0.2857 -0.4945 -0.2080
59790W        W 2702   0.780  10.946   8.129 -0.0076  0.1769  0.1830
59791W        W 2703   0.805  11.807   7.133  0.2436 -0.1797  0.1286
59792W        W 2704   0.088  11.676   9.129 -0.0502 -0.3108  0.0327
59793W        W 2705   2.115  13.388   8.967  0.2878  0.1608 -0.1689
59794W        W 2706  34.527  10.112   8.689  0.1288  0.1768  0.0825
59795W        W 2707   0.566  11.373   8.627 -0.1610  0.1937 -0.0954
59796W        W 2708   1.299  12.442   9.728  0.0162 -0.0794 -0.0538
59797W        W 2709   3.105  13.216   8.165  0.2003  0.0791 -0.0324
59798W        W 2710   1.131  12.916   8.931  0.0964  0.0294  0.0950
59799W        W 2711   3.187  11.801   7.950  0.2249 -0.0960 -0.0892
59800W        W 2712   1.085  12.105  10.016 -0.1784 -0.0465 -0.3531
59801W        W 2713   3.592  12.047   8.164 -0.4848  0.3991 -0.1413
59802W        W 2714   0.205  13.250   7.258  0.4341  0.0777  0.1367
59803W        W 2715   0.489  12.274   9.190  0.2480  0.0632  0.2369
59804W        W 2716   1.521  14.378   7.744 -0.2457 -0.2681 -0.2180
59805W        W 2717   2.772  11.599   8.732  0.2734  0.2471 -0.0797
59806W        W 2718  34.372  13.400   9.657  0.3383  0.3515 -0.0581
59807W        W 2719   3.991  11.873   6.712 -0.0850 -0.1428  0.1691
59808W        W 2720   0.550  11.749   8.910  0.0080 -0.2495 -0.0067
59809W        W 2721   3.212  12.292   8.352 -0.0556 -0.1400 -0.0407
59810W        W 2722   3.706  11.866   7.707  0.0087  0.2650 -0.0514
59811W        W 2723  34.019  11.943  10.059 -0.1544  0.2624 -0.0029
59812W        W 2724   0.251  11.830   6.798  0.0479  0.0801  0.1169
59813W        W 2725   0.718  13.292   8.642 -0.0341  0.1698 -0.1089
59814W        W 2726   1.926  12.560  11.987 -0.1119 -0.3459 -0.2415
59815W        W 2727   1.952  11.577   8.098  0.0879 -0.0657  0.0294
59816W        W 2728  34.126  11.998   9.526 -0.3133  0.2150  0.0898
59817W        W 2729   0.583  12.415   7.830 -0.1408  0.1095 -0.0263
59818W        W 2730   0.511  13.068   6.779 -0.2590  0.1655  0.0891
59819W        W 2731   3.189  12.334   9.680  0.4050 -0.0613 -0.0902
59820W        W 2732   1.474  11.758   8.348 -0.2836  0.1630  0.0304
59821W        W 2733   0.277  14.372   7.963 -0.0564 -0.5419  0.2378
59822W        W 2734   1.074  11.577   8.784  0.3679 -0.3133 -0.0506
59823W        W 2735  34.598  11.888   9.964 -0.2078 -0.3849 -0.3183
59824W        W 2736   0.428  13.889   9.674  0.0630 -0.1275 -0.3894
59825W        W 2737   1.829  10.197  10.212  0.2964  0.0967  0.3124
59826W        W 2738   1.922  12.654   9.074 -0.3345  0.1643  0.3239
59827W        W 2739  33.941  12.534   9.911  0.0263  0.0751 -0.2969
59828W        W 2740  34.625  12.079   9.459 -0.2575  0.0965  0.1697
59829W        W 2741   2.849  12.323   7.547  0.3440 -0.2518  0.0359
59830W        W 2742   0.319  13.137   9.370 -0.4658  0.1002 -0.0417
59831W        W 2743   1.604  13.177   9.025 -0.1096 -0.0828  0.1049
59832W        W 2744  33.769  10.065   8.976 -0.0872 -0.0930 -0.3914
59833W        W 2745   1.856  14.471   6.794  0.1455 -0.1017  0.0874
59834W        W 2746  33.958   9.777   9.353  0.0309 -0.2813 -0.0178
59835W        W 2747   0.162  14.819   8.367  0.4147 -0.2169 -0.0063
59836W        W 2748   2.527  12.408   7.159 -0.1115 -0.0247 -0.0375
59837W        W 2749   1.433  12.228   6.700 -0.0454  0.3550  0.1294
59838W        W 2750   4.597  14.053   8.837 -0.0303  0.1361 -0.0115
59839W        W 2751   1.111  10.915   9.936  0.0534 -0.0734  0.1523
59840W        W 2752  33.882  14.582   9.342  0.1121  0.3038 -0.3662
59841W        W 2753  34.369  14.156   7.509  0.0036  0.1404 -0.3137
59842W        W 2754   1.545  11.589   7.786  0.0270 -0.0307 -0.0450
59843W        W 2755   0.494  13.852   8.610 -0.0413 -0.1539 -0.0219
59844W        W 2756   2.648  10.453   6.537  0.1370 -0.1023 -0.2618
59845W        W 2757   1.955  12.758   8.535  0.0351  0.4281 -0.0195
59846W        W 2758   2.774  12.061   8.036 -0.1139  0.0562 -0.0092
59847W        W 2759   1.628  13.211   8.567 -0.0905  0.2188  0.4076
59848W        W 2760   0.346  11.167   7.827  0.3505  0.2772  0.3815
59849W        W 2761   2.401  14.532   6.984 -0.0470  0.2344 -0.1893
59850W        W 2762   0.354  13.938   8.147 -0.0010 -0.0384  0.0727
59851W        W 2763   0.004  10.009  10.246  0.1750  0.0517  0.0860
59852W        W 2764   3.022   9.889   9.259 -0.0095 -0.2565  0.1055
59853W        W 2765   0.267  12.420   6.740  0.1108  0.0283  0.1453
59854W        W 2766   0.981  10.738   9.391 -0.0385 -0.0301 -0.0061
59855W        W 2767   1.716  12.490   7.107  0.0893 -0.0328 -0.2436
59856W        W 2768   0.856  14.503   9.960 -0.1543 -0.0857  0.3102
59857W        W 2769   1.404  13.907   9.348 -0.1864 -0.1810 -0.1353
59858W        W 2770  33.999  11.140   8.093 -0.0471  0.1653  0.0732
59859W        W 2771   3.983  13.416   9.365 -0.0602 -0.0450  0.3611
59860W        W 2772   0.035  11.521   9.656  0.1888 -0.0329  0.4731
59861W        W 2773  34.047  13.086   8.278  0.0530 -0.0560  0.2780
59862W        W 2774   3.862  12.474   9.024 -0.2205 -0.4168 -0.1620
59863W        W 2775   1.170  11.412  10.200  0.0306 -0.2034  0.0331
59864W        W 2776   0.026  10.693   9.828 -0.1603  0.1447 -0.0132
59865W        W 2777   1.846  10.670   8.244 -0.2782 -0.1892  0.2219
59866W        W 2778   0.999  12.946   6.527 -0.0749 -0.0187  0.0580
59867W        W 2779  34.193  10.338   9.139  0.3512  0.0385  0.0304
59868W        W 2780   1.762  11.107   8.137 -0.0471 -0.0650 -0.0221
59869W        W 2781   0.909  12.350   8.171 -0.1287  0.0301  0.0173
59870W        W 2782   0.234  11.174  10.037 -0.2708  0.0418  0.2641
59871W        W 2783  34.430  10.839   8.270  0.0008  0.0769  0.1660
59872W        W 2784   2.431  12.608   6.706  0.0912  0.0862 -0.1241
59873W        W 2785   3.822  11.642   9.102  0.1097  0.0475  0.0379
59874W        W 2786   0.421  13.980   7.206 -0.2447 -0.1057  0.0688
59875W        W 2787   2.646  12.435   8.934 -0.2512 -0.2040  0.0789
59876W        W 2788   2.926  15.399   9.565 -0.0006  0.1934  0.2014
59877W        W 2789  34.293  12.920   9.532 -0.1255  0.1044 -0.0041
59878W        W 2790   2.574  13.957   8.016  0.1354 -0.1272  0.0852
59879W        W 2791   4.238  14.013   9.330  0.0696 -0.0653  0.0137
59880W        W 2792   1.582  11.410   8.740 -0.0394 -0.1717  0.0614
59881W        W 2793   0.145  14.298   9.299  0.0741 -0.0212  0.0705
59882W        W 2794   0.053  13.093   9.850  0.1860  0.2241  0.0193
59883W        W 2795   2.017  11.541  10.012  0.1701 -0.0256 -0.0200
59884W        W 2796   1.409  14.910   7.876 -0.1262  0.2697  0.1145
59885W        W 2797   0.986  13.827   8.900 -0.1766  0.1384 -0.3286
59886W        W 2798  34.046  12.789   7.528  0.1051 -0.0147  0.1204
59887W        W 2799   0.895  13.798   8.336  0.0620  0.0104  0.4677
59888W        W 2800  34.441  13.057   8.673 -0.2245 -0.3862  0.0741
59889W        W 2801   1.997  12.894   7.715 -0.5049 -0.2193 -0.0438
59890W        W 2802   0.971  11.085   8.626  0.2172  0.2395 -0.2069
59891W        W 2803   4.289  10.946   9.862  0.1406  0.0053 -0.0786
59892W        W 2804   0.763  11.961   8.499  0.2164  0.2090 -0.2398
59893W        W 2805   3.183  10.141   7.868  0.1215 -0.3030 -0.0056
59894W        W 2806   3.338  10.858   7.416  0.1499 -0.2895 -0.1876
59895W        W 2807   2.312  11.076  10.071 -0.0139 -0.0579 -0.1504
59896W        W 2808  34.330  12.410   7.698 -0.1903  0.3944 -0.4906
59897W        W 2809  33.469  13.290   7.188  0.0929 -0.2541  0.1259
59898W        W 2810   1.249  13.390   9.297  0.2388 -0.1733 -0.0516
59899W        W 2811  34.402  14.750  10.118  0.1282 -0.2699  0.0910
59900W        W 2812   0.274  11.727   8.473  0.1843  0.2475 -0.0623
59901W        W 2813   2.182  12.733   7.119  0.1026  0.0740 -0.2063
59902W        W 2814   0.807  10.275   9.381 -0.4493  0.1105 -0.1120
59903W        W 2815  33.102  11.083   8.769 -0.2752  0.2170 -0.0856
59904W        W 2816   1.520  12.950   7.938 -0.2828  0.0652 -0.0003
59905W        W 2817   1.795  13.405   7.738  0.3472  0.1557  0.1063
59906W        W 2818   2.144  10.799   9.242 -0.0011  0.1442 -0.1523
59907W        W 2819  33.846  13.490   7.928  0.2333  0.3831 -0.0117
59908W        W 2820  34.100  11.472   7.138 -0.0612 -0.3030  0.0296
59909W        W 2821   1.809  11.096   9.852 -0.1260 -0.0970  0.0800
59910W        W 2822   1.342  12.161   7.659  0.1188 -0.1668  0.0339
59911W        W 2823   1.946  14.084   8.379 -0.1192  0.0697  0.1123
59912W        W 2824  32.995  10.071   9.713 -0.0357 -0.1052 -0.1915
59913W        W 2825   2.235  11.351   9.074  0.3347  0.0938 -0.0156
59914W        W 2826   3.423  12.947   9.009  0.0012 -0.2914  0.0904
59915W        W 2827   3.649   9.596  10.399  0.2503 -0.5290 -0.3258
59916W        W 2828   1.547  12.592   7.549 -0.1084  0.2626 -0.2088
59917W        W 2829   4.079  11.257  10.232  0.0142 -0.0678 -0.1626
59918W        W 2830  33.365  10.648   8.450 -0.0647 -0.3332 -0.1529
59919W        W 2831   3.129  10.726   7.870  0.1353 -0.1707  0.1325
59920W        W 2832   0.794  13.391   9.138  0.1267  0.0485 -0.0588
59921W        W 2833  33.241  10.632   9.589 -0.0893 -0.0619  0.2552
59922W        W 2834   1.145  11.721   7.445 -0.2222 -0.0722  0.0735
59923W        W 2835   2.274  13.903   7.537 -0.1527  0.0871  0.2906
59924W        W 2836   0.765  12.444   8.676  0.0532  0.0316  0.6274
59925W        W 2837   3.544  13.085   8.485 -0.0019 -0.0422  0.1908
59926W        W 2838   3.001  14.753   8.799 -0.2665  0.2000 -0.0303
59927W        W 2839   2.903  12.905   9.065 -0.3499  0.0556  0.0969
59928W        W 2840   1.414  12.486   8.080  0.2895  0.1443  0.0361
59929W        W 2841  34.221  10.385   8.365 -0.0297  0.0005  0.1353
59930W        W 2842   0.295  13.441   8.917 -0.0922  0.1763  0.0888
59931W        W 2843   1.015  12.004   9.046 -0.1424 -0.0000 -0.2044
59932W        W 2844   1.488  12.374   9.081  0.0149  0.2166 -0.1047
59933W        W 2845  34.545  11.257   9.089  0.3006  0.0350 -0.0527
59934W        W 2846   1.198  12.871   8.317  0.0423 -0.0864 -0.1486
59935W        W 2847   1.681  14.327   9.119  0.0552  0.0115 -0.1630
59936W        W 2848   1.419  12.466  10.279 -0.0030 -0.0173  0.0324
59937W        W 2849   0.838  18.042   2.596 -0.1703  0.0047  0.1755
59938W        W 2850   2.243  15.495   1.385  0.1281 -0.0127 -0.0988
59939W        W 2851   3.151  14.861  31.585  0.1125 -0.2552 -0.1314
59940W        W 2852   3.148  17.258   0.768 -0.2723  0.1305 -0.3091
59941W        W 2853   1.061  15.719   0.313 -0.0139 -0.0084  0.2392
59942W        W 2854   2.825  19.245   0.593  0.2210 -0.5316 -0.0779
59943W        W 2855   1.734  14.628   2.445 -0.1781 -0.1169 -0.1594
59944W        W 2856   2.243  16.754   2.978  0.0690  0.1532  0.0851
59945W        W 2857   4.016  17.849   1.626 -0.0887  0.3114 -0.1182
59946W        W 2858   0.656  16.751   0.277  0.1212 -0.6327 -0.0227
59947W        W 2859   1.561  16.468   2.425 -0.0481  0.0084 -0.1131
59948W        W 2860   2.024  17.959   3.195  0.0745 -0.0566 -0.0648
59949W        W 2861   1.371  14.422  30.833 -0.1874 -0.2301 -0.3272
59950W        W 2862   0.672  14.301   1.839 -0.2674  0.1874 -0.1917
59951W        W 2863   2.835  15.657   0.119 -0.1704 -0.1730 -0.1322
59952W        W 2864   0.153  16.923   0.258  0.0005 -0.1920  0.0246
59953W        W 2865   2.000  15.559   2.623 -0.0689  0.1559  0.0906
59954W        W 2866   0.868  15.563   0.884  0.1401 -0.1248  0.0749
59955W        W 2867   0.821  18.615   2.453  0.0823 -0.1925  0.0293
59956W        W 2868   1.370  14.268   2.614  0.1731  0.0732 -0.3558
59957W        W 2869   1.770  14.555   3.509 -0.1416  0.0197  0.1510
59958W        W 2870   2.192  17.034   0.939  0.4850  0.1650 -0.0876
59959W        W 2871  33.989  15.237  31.906 -0.2079 -0.2381  0.2418
59960W        W 2872   1.156  16.582   2.103 -0.0030  0.0203 -0.2157
59961W        W 2873   1.139  14.326   2.070 -0.2344 -0.0253 -0.2252
59962W        W 2874   3.200  15.736   2.130  0.0850  0.4108  0.0246
59963W        W 2875   3.911  15.171   0.432 -0.3002 -0.0616 -0.0482
59964W        W 2876   2.296  18.260   2.401  0.1584 -0.1648  0.1933
59965W        W 2877   2.368  16.664   1.315  0.1456  0.1443  0.1365
59966W        W 2878   4.331  15.681   3.751 -0.0970 -0.1029  0.1257
59967W        W 2879   0.643  17.404   0.950 -0.2080 -0.2331  0.0763
59968W        W 2880   0.465  18.480   1.228 -0.1984  0.1470 -0.3124
59969W        W 2881   2.118  16.074   0.409 -0.0626 -0.0865 -0.3654
59970W        W 2882   2.056  17.535   1.709 -0.1578  0.2246  0.1190
59971W        W 2883   2.046  17.662   2.218 -0.0597  0.0288  0.1289
59972W        W 2884   0.255  18.512   2.187 -0.0901 -0.1257  0.0531
59973W        W 2885   0.837  18.503  31.645 -0.0449 -0.1156 -0.0487
59974W        W 2886   2.076  18.768   2.906  0.0133 -0.2068 -0.2595
59975W        W 2887   1.474  18.511   1.565 -0.1680 -0.1434 -0.0960
59976W        W 2888   1.228  15.332   2.146  0.0763 -0.2383 -0.0211
59977W        W 2889   2.618  15.072   2.126 -0.1121 -0.0206  0.0063
59978W        W 2890   2.171  17.294   0.457  0.0986  0.3309  0.2830
59979W        W 2891   2.937  17.867   2.243  0.3019 -0.1161  0.0811
59980W        W 2892   1.089  17.650   4.179  0.1053 -0.0563 -0.0618
59981W        W 2893   1.790  16.505   1.397  0.1375 -0.3989 -0.1293
59982W        W 2894   4.297  15.110   2.748  0.1884 -0.1302 -0.4443
59983W        W 2895   1.331  18.376   0.636 -0.0817 -0.1256  0.1070
59984W        W 2896   3.421  15.376   0.291  0.1098 -0.0989 -0.1399
59985W        W 2897   0.332  16.227   0.177  0.2153 -0.1187 -0.1844
59986W        W 2898   2.515  16.176   0.921  0.0150 -0.0361  0.0268
59987W        W 2899   0.749  14.363   0.954  0.0571 -0.2661 -0.6356
59988W        W 2900   1.397  18.110   1.974 -0.0463  0.2152 -0.0930
59989W        W 2901   1.844  15.396   1.759  0.0132 -0.3930 -0.2160
59990W        W 2902   2.792  18.103   3.607 -0.1384 -0.0307 -0.2851
59991W        W 2903   2.035  16.388   0.026 -0.0624  0.0759 -0.1838
59992W        W 2904   2.100  16.202   2.315 -0.1607 -0.1949  0.0750
59993W        W 2905  34.358  17.378   3.233 -0.1835  0.0296  0.1048
59994W        W 2906   1.516  15.986   0.392 -0.2073 -0.2873 -0.0305
59995W        W 2907   1.993  17.455  31.208 -0.1806  0.1205 -0.2098
59996W        W 2908   3.485  18.440   1.020 -0.4030 -0.0320  0.3213
59997W        W 2909   2.566  17.581  31.854  0.1174 -0.0438  0.0489
59998W        W 2910  34.699  16.068   1.417 -0.0231  0.0592  0.1571
59999W        W 2911  34.063  16.549   2.700 -0.0818 -0.0253  0.0764
60000W        W 2912   0.272  15.652   3.284 -0.0156 -0.0268  0.0309
60001W        W 2913   1.791  15.120  31.281 -0.2861 -0.1838  0.2352
60002W        W 2914   2.962  16.591   3.539 -0.0883  0.1433 -0.0517
60003W        W 2915  33.869  16.952   3.838 -0.0153 -0.4901 -0.3629
60004W        W 2916   3.953  14.530   2.107  0.1687 -0.0454 -0.0357
60005W        W 2917   3.419  16.294   1.150  0.0896 -0.0109 -0.4349
60006W        W 2918   0.972  17.019   1.811 -0.1779  0.1566  0.0285
60007W        W 2919   2.337  14.472  31.790 -0.2873 -0.1900  0.3848
60008W        W 2920   1.663  14.249   2.021  0.0703 -0.2337  0.1356
60009W        W 2921   2.618  13.984   1.844  0.0209  0.0641  0.1027
60010W        W 2922   1.409  17.789  31.293 -0.2688 -0.0758  0.0598
60011W        W 2923   1.364  16.469   0.814  0.1482  0.0560  0.0145
60012W        W 2924   2.360  18.799   2.522 -0.3128  0.1434 -0.1062
60013W        W 2925   3.590  17.065   0.697  0.1531 -0.0801  0.1645
60014W        W 2926   0.893  15.905   2.572  0.2356  0.1434  0.0607
60015W        W 2927   3.254  17.018   3.905  0.0160  0.0712  0.0894
60016W        W 2928   2.214  15.911   2.990  0.1245 -0.1044 -0.3364
60017W        W 2929   0.544  18.078   0.108  0.0694 -0.1360  0.1899
60018W        W 2930   0.678  17.257   0.403 -0.2224 -0.0858 -0.2101
60019W        W 2931   1.190  17.571   1.118 -0.0622 -0.0329 -0.0766
60020W        W 2932   0.739  15.446   1.357  0.0813 -0.0122 -0.0644
60021W        W 2933   2.126  17.158   2.152 -0.2612 -0.2583 -0.1167
60022W        W 2934   3.438  15.381   2.766  0.1028 -0.1437  0.0511
60023W        W 2935   1.889  15.580   3.595  0.2117 -0.2876 -0.0577
60024W        W 2936   2.836  14.217   1.423 -0.1387 -0.2717 -0.0486
60025W        W 2937   2.128  16.492   0.895  0.1338 -0.2008  0.3149
60026W        W 2938   2.148  17.645   0.929  0.2646 -0.2821  0.1703
60027W        W 2939   2.839  16.546  31.836 -0.2119 -0.0056 -0.0818
60028W        W 2940   1.406  18.244  31.068  0.1263  0.1595 -0.0895
60029W        W 2941   0.671  14.876   3.138  0.4667  0.0100  0.0168
60030W        W 2942   1.871  15.937  31.970 -0.1605 -0.1711  0.2031
60031W        W 2943   1.344  15.428   3.711 -0.0215 -0.0332  0.0830
60032W        W 2944   1.008  14.866   1.686 -0.3806  0.1795  0.1611
60033W        W 2945   2.518  15.594   3.302 -0.2598  0.2730  0.0436
60034W        W 2946  34.425  16.748   0.317  0.0193  0.2395 -0.2103
60035W        W 2947   3.773  14.948   1.190 -0.0898  0.0033  0.2832
60036W        W 2948   0.976  16.160   0.728 -0.2636  0.1210 -0.0538
60037W        W 2949   1.056  17.690   0.164  0.1404  0.0061  0.2241
60038W        W 2950   4.015  14.769   3.070  0.4029 -0.3221 -0.2697
60039W        W 2951   2.321  18.680   1.947 -0.0996  0.2817 -0.1011
60040W        W 2952   2.964  18.519   2.857 -0.1173 -0.1050 -0.0348
60041W        W 2953   1.889  18.818   0.673  0.0345 -0.0016 -0.1370
60042W        W 2954   0.686  15.777   3.028  0.0518  0.2422  0.0221
60043W        W 2955   1.265  15.361   0.589 -0.1107  0.1452  0.0111
60044W        W 2956   0.790  16.904   1.304 -0.3806 -0.3919  0.0341
60045W        W 2957   1.879  15.754   2.139 -0.0904  0.0325  0.1065
60046W        W 2958   1.760  16.738  31.742 -0.1805 -0.0068 -0.0195
60047W        W 2959   1.752  18.368   0.927 -0.1214 -0.0054 -0.0206
60048W        W 2960   1.607  16.116   1.201  0.1127 -0.1177  0.1125
60049W        W 2961   1.179  17.109   2.241  0.3572 -0.1663 -0.0705
60050W        W 2962   2.746  15.852   3.651 -0.0282 -0.2043 -0.1144
60051W        W 2963   3.798  17.967   2.091  0.4901 -0.0506  0.1196
60052W        W 2964   2.098  16.583  31.428 -0.0359  0.3705  0.0167
60053W        W 2965   1.233  15.305  30.810  0.3256 -0.0651 -0.3600
60054W        W 2966   2.932  17.286   2.116 -0.2299  0.0194  0.0100
60055W        W 2967  34.505  18.417   0.801  0.2590  0.2851 -0.3116
60056W        W 2968  34.125  17.147   0.625  0.0165 -0.0378  0.3303
60057W        W 2969   2.676  17.362   0.936 -0.0885  0.4167 -0.1276
60058W        W 2970   2.815  13.928   2.692  0.2326 -0.0197  0.1135
60059W        W 2971   0.059  15.747   4.111 -0.3015 -0.0029 -0.0037
60060W        W 2972   2.521  16.438   2.234  0.0209  0.0193  0.3127
60061W        W 2973   1.730  15.112   0.345  0.0597  0.0912  0.1084
60062W        W 2974   1.214  18.436   2.865 -0.1641 -0.1487 -0.1336
60063W        W 2975   1.863  15.555   0.588  0.0405 -0.3908 -0.4444
60064W        W 2976   3.100  15.990  30.636  0.1987  0.2404  0.1286
60065W        W 2977   3.946  16.734   3.592  0.0894 -0.1528  0.0272
60066W        W 2978   4.689  16.205   1.729  0.2754 -0.0229  0.1389
60067W        W 2979   1.723  17.327  31.651  0.0630  0.1502  0.1641
60068W        W 2980   2.835  14.518  31.649  0.4769  0.1693 -0.1990
60069W        W 2981   0.160  17.303   4.566  0.0753  0.0051  0.1871
60070W        W 2982   3.868  17.102   3.017 -0.0206 -0.1484 -0.1032
60071W        W 2983   0.476  16.931   0.720 -0.2527  0.1737 -0.0490
60072W        W 2984   2.418  16.529  30.523 -0.1187 -0.1267  0.1450
60073W        W 2985   2.935  18.014   1.169 -0.2222 -0.4609 -0.0516
60074W        W 2986  34.562  17.481   0.899 -0.2271 -0.2984  0.2175
60075W        W 2987   2.497  16.368   3.251 -0.0437  0.3434 -0.0846
60076W        W 2988   2.588  17.806   0.743  0.0218 -0.1746  0.1259
60077W        W 2989   1.282  14.836   2.200  0.2207 -0.1537  0.1830
60078W        W 2990   0.688  15.992  31.910 -0.1128  0.2736  0.0833
60079W        W 2991   2.658  15.941   1.462  0.0830  0.1890 -0.1793
60080W        W 2992  33.531  20.232   1.027  0.0767 -0.0557  0.1518
60081W        W 2993   2.572  15.174   2.995 -0.0082 -0.0621  0.0486
60082W        W 2994   1.681  14.464   1.157 -0.1545 -0.1717 -0.1513
60083W        W 2995   1.682  14.934   1.850 -0.3744 -0.0044 -0.0670
60084W        W 2996   2.538  16.849   3.830  0.0242 -0.0370 -0.4129
60085W        W 2997   2.899  16.928   0.463  0.1317  0.2644 -0.0276
60086W        W 2998   2.798  14.912   2.612 -0.0760  0.1056 -0.1366
60087W        W 2999   0.788  17.435  31.348  0.0696  0.3460 -0.3248
60088W        W 3000   1.416  14.537   1.704  0.1219  0.2412 -0.0481
60089W        W 3001   0.746  18.193   3.539 -0.0631 -0.1062  0.0590
60090W        W 3002   0.008  17.172   1.977  0.1353 -0.1137  0.0164
60091W        W 3003   1.667  16.859   2.211 -0.1807 -0.1577 -0.2480
60092W        W 3004   3.367  17.066   2.052 -0.2254 -0.1933  0.1827
60093W        W 3005   3.549  16.495   3.756 -0.2481  0.0921 -0.2098
60094W        W 3006   1.267  14.966   0.303  0.0881  0.0802 -0.1545
60095W        W 3007   0.057  17.861   0.139 -0.2204  0.0454 -0.0240
60096W        W 3008   0.909  16.549   1.727 -0.1572  0.2347 -0.1865
60097W        W 3009   1.609  14.727   3.071  0.0174  0.0364 -0.1664
60098W        W 3010   2.499  16.877   1.959  0.2897 -0.0537  0.0395
60099W        W 3011   3.222  16.751   0.843 -0.0142  0.1351 -0.1933
60100W        W 3012   3.523  15.317   3.284 -0.1064  0.1043  0.2072
60101W        W 3013   1.726  18.775   1.203 -0.2395 -0.2525 -0.0480
60102W        W 3014   5.014  15.049   2.436 -0.1673 -0.2033 -0.0672
60103W        W 3015  33.774  18.950   0.694 -0.0505  0.1861  0.2395
60104W        W 3016   1.118  15.905  31.156 -0.1003 -0.0556 -0.1009
60105W        W 3017  33.768  17.942   0.742 -0.3495  0.1482  0.1324
60106W        W 3018   4.288  15.845   1.738 -0.0706  0.1949  0.1577
60107W        W 3019   4.153  17.682   0.341  0.1266  0.1005 -0.1995
60108W        W 3020   1.776  13.788   1.659 -0.0725  0.1007 -0.0406
60109W        W 3021   2.473  13.790   1.056 -0.2063 -0.1874  0.0153
60110W        W 3022   0.339  18.399   2.674 -0.0531 -0.2983 -0.3492
60111W        W 3023   1.970  16.288   2.800  0.3093 -0.2645  0.2316
60112W        W 3024   3.342  15.680  31.847 -0.1199  0.0914  0.0180
60113W        W 3025   1.687  16.397   1.947  0.4050  0.0026 -0.4854
60114W        W 3026   2.402  15.469   4.862  0.1220  0.1194  0.0101
60115W        W 3027   1.059  16.187   1.252 -0.0809  0.0547  0.0253
60116W        W 3028   3.053  15.659   3.035 -0.1901  0.0042  0.1949
60117W        W 3029   2.645  14.566   1.736  0.0562  0.0700 -0.2972
60118W        W 3030   0.453  19.011   2.172  0.0299  0.0231 -0.3173
60119W        W 3031   1.862  18.419   1.921  0.2277 -0.3981  0.0585
60120W        W 3032   0.943  16.299   0.238 -0.0240 -0.0117  0.1903
60121W        W 3033   0.546  17.907   1.709 -0.1164 -0.4806  0.1425
60122W        W 3034   1.199  15.893   2.933  0.3113  0.0968 -0.0873
60123W        W 3035   2.700  15.549   1.937 -0.1441  0.2938 -0.0323
60124W        W 3036   1.535  15.602   2.444  0.3366  0.2141 -0.2524
60125W        W 3037   1.938  14.759   0.669 -0.2975  0.1834 -0.2520
60126W        W 3038   3.227  15.825   0.638 -0.3346  0.4090 -0.0193
60127W        W 3039   2.910  17.149   3.462  0.0424  0.1390 -0.0580
60128W        W 3040   1.695  14.268   0.718 -0.3161  0.6138  0.0076
60129W        W 3041   1.213  17.354   3.656 -0.0611  0.4875  0.0772
60130W        W 3042   1.527  13.825   0.737 -0.0015 -0.0117  0.4269
60131W        W 3043   3.153  17.730   0.681 -0.1097  0.2162 -0.0743
60132W        W 3044   2.968  16.765   2.111  0.2132  0.5720 -0.1001
60133W        W 3045   2.274  17.279   1.335  0.0724 -0.1166 -0.1865
60134W        W 3046   0.819  16.751   2.878  0.0112  0.2776  0.2513
60135W        W 3047   1.573  17.208   2.647  0.2866  0.0365  0.2095
60136W        W 3048   2.389  15.488   3.876 -0.0688 -0.3390 -0.1889
60137W        W 3049   0.187  17.008   2.433  0.0778 -0.0485 -0.0701
60138W        W 3050   2.917  16.412   1.169  0.0681 -0.0578  0.0349
60139W        W 3051   1.212  16.144   1.786  0.0700 -0.0734  0.1734
60140W        W 3052   4.047  15.241  31.889  0.2739  0.0691 -0.5694
60141W        W 3053   1.485  17.218  30.500  0.0723  0.1861 -0.0025
60142W        W 3054   1.113  14.816   1.179  0.0407  0.0773  0.0989
60143W        W 3055   3.703  15.843   2.259 -0.0242 -0.1797  0.1701
60144W        W 3056   3.304  16.605   0.347 -0.2121 -0.1624 -0.0719
60145W        W 3057   3.571  12.933   4.344  0.1764 -0.2579  0.2420
60146W        W 3058   0.666  14.732   2.057 -0.1465 -0.0331 -0.1570
60147W        W 3059   2.357  17.806   0.283 -0.2574  0.2939 -0.1374
60148W        W 3060  34.617  17.110   2.876  0.2087  0.1498 -0.0264
60149W        W 3061   2.546  18.184   4.330  0.2054 -0.1188 -0.4253
60150W        W 3062   0.937  16.379   3.182  0.1471 -0.0513  0.1695
60151W        W 3063   2.613  14.703   0.074  0.1831  0.0788  0.2369
60152W        W 3064   2.198  15.581   0.233  0.1697 -0.3441  0.1203
60153W        W 3065   1.260  15.729   1.388  0.0563 -0.1666  0.2412
60154W        W 3066   3.428  17.736   2.255 -0.0750 -0.1431  0.3073
60155W        W 3067   2.969  17.046   1.671  0.2472  0.2579  0.0824
60156W        W 3068   3.596  14.442   3.396  0.3499  0.0920 -0.1405
60157W        W 3069   1.051  17.262   2.753  0.1811  0.2459  0.0295
60158W        W 3070   2.452  16.115   0.034 -0.0600 -0.0697 -0.0880
60159W        W 3071   2.767  15.939  31.679  0.1085  0.1121 -0.0483
60160W        W 3072   1.507  17.723   2.369 -0.0278 -0.1035 -0.0671
60161W        W 3073   1.437  12.564   2.129  0.1230  0.0032  0.0893
60162W        W 3074   3.628  16.561   2.200  0.2626  0.0872 -0.1118
60163W        W 3075   2.238  16.753   0.470 -0.1309  0.2795  0.1231
60164W        W 3076   1.833  15.103   2.768 -0.2499  0.1412  0.1470
60165W        W 3077   2.169  14.954   3.830  0.0004 -0.0108 -0.1258
60166W        W 3078   3.013  16.148   2.979  0.0662  0.0297  0.1267
60167W        W 3079   0.168  15.966   2.868  0.2503  0.2529 -0.1903
60168W        W 3080   3.979  18.445   2.594  0.3057 -0.0376 -0.1201
60169W        W 3081   3.612  16.286   0.102  0.0003 -0.2272 -0.0587
60170W        W 3082   3.034  15.310   2.500 -0.0183 -0.0991  0.1401
60171W        W 3083   2.882  14.522   0.789 -0.3515  0.0217 -0.0909
60172W        W 3084   1.413  16.489   0.148  0.1538 -0.2604 -0.4406
60173W        W 3085   0.547  16.393   1.416 -0.0994 -0.0935  0.3581
60174W        W 3086   2.141  14.915   3.142  0.1579  0.1404  0.0366
60175W        W 3087   1.652  15.906  31.382  0.0927  0.2089 -0.1199
60176W        W 3088   3.862  15.636   3.489 -0.2592  0.0970  0.0896
60177W        W 3089   1.932  16.989   0.169 -0.1095  0.3084 -0.4239
60178W        W 3090   2.704  16.089   1.938  0.2976  0.2489  0.1815
60179W        W 3091   2.891  15.839   1.036  0.3297 -0.1399 -0.0608
60180W        W 3092   2.109  14.788   1.252  0.2803  0.1571 -0.1113
60181W        W 3093   0.946  18.045   3.143  0.2225 -0.0826  0.2433
60182W        W 3094  34.576  15.047   0.430 -0.0360  0.3014  0.1246
60183W        W 3095   1.199  17.121  31.467 -0.1413  0.1810 -0.2198
60184W        W 3096   0.136  17.201   3.908  0.1390  0.0947 -0.2617
60185W        W 3097   2.700  17.676   4.455  0.1328  0.0252 -0.0281
60186W        W 3098   2.045  16.140  31.513  0.1161  0.1043  0.1217
60187W        W 3099   1.284  14.951   2.678 -0.0854 -0.2923  0.2592
60188W        W 3100   1.004  18.848   1.966 -0.1644  0.0687 -0.0082
60189W        W 3101   2.942  14.667   2.224 -0.3452 -0.2029 -0.2024
60190W        W 3102   2.470  17.949   2.059 -0.2068  0.0306  0.1849
60191W        W 3103   0.920  18.361   1.924  0.0588  0.0970  0.0597
60192W        W 3104   0.905  17.725   0.711 -0.3768  0.0290  0.0753
60193W        W 3105   2.132  14.374   0.340 -0.1983 -0.0131  0.0390
60194W        W 3106   2.237  15.366   2.125  0.1082 -0.0974  0.3179
60195W        W 3107   1.790  15.221   2.283  0.1957  0.1033 -0.4042
60196W        W 3108   2.497  16.266   2.761 -0.1025  0.1745 -0.0626
60197W        W 3109   0.284  16.814   2.925 -0.0525  0.2461 -0.1189
60198W        W 3110   1.273  16.682   1.263  0.5742 -0.3093 -0.1091
60199W        W 3111   3.491  18.277   2.907  0.0993 -0.1048 -0.0662
60200W        W 3112   3.615  17.466   1.488  0.3226  0.1173 -0.1602
60201W        W 3113   1.311  18.185   0.125 -0.1339 -0.2311  0.1944
60202W        W 3114   0.150  16.764   1.544  0.1569  0.0694  0.1232
60203W        W 3115   2.555  17.022   2.532  0.1226  0.1051  0.1533
60204W        W 3116   3.761  16.500   1.527 -0.2731 -0.1181 -0.2614
60205W        W 3117   0.627  15.424   0.410  0.2370 -0.0425 -0.0311
60206W        W 3118   1.520  16.888   0.507 -0.3773 -0.1428  0.1361
60207W        W 3119  34.305  17.725   2.747 -0.1519  0.1589  0.1181
60208W        W 3120   1.310  16.019   2.323  0.0355 -0.0116 -0.2878
60209W        W 3121  34.621  17.914   0.646 -0.1031 -0.1815 -0.2811
60210W        W 3122   1.781  16.440   0.498 -0.2330 -0.1511 -0.0256
60211W        W 3123   3.002  16.273   0.707  0.1984  0.1894  0.1642
60212W        W 3124   3.111  18.945   2.995  0.1187  0.3401 -0.2110
60213W        W 3125   1.557  15.646  30.853  0.0993 -0.0702 -0.0645
60214W        W 3126   1.912  18.891   2.328  0.3028  0.3472  0.3047
60215W        W 3127   0.216  17.475  31.517 -0.1725 -0.0200  0.1400
60216W        W 3128   3.483  17.681  31.591  0.2023 -0.2111 -0.0694
60217W        W 3129   1.265  18.622   1.134  0.0248  0.0873 -0.4662
60218W        W 3130   1.816  16.604   3.252  0.1683 -0.1119  0.0816
60219W        W 3131   2.961  14.931   0.376 -0.1538 -0.0712 -0.0331
60220W        W 3132   3.524  15.295   0.861 -0.3556 -0.0276 -0.3299
60221W        W 3133   3.629  15.851   0.302  0.0927 -0.0142  0.0040
60222W        W 3134   1.263  16.787   2.627  0.2494 -0.0569  0.0468
60223W        W 3135   1.642  17.313   1.953  0.0717  0.2065  0.0299
60224W        W 3136   1.471  15.531   0.091 -0.0872  0.1164  0.0655
60225W        W 3137  34.691  16.429   2.641 -0.0051 -0.1308  0.0081
60226W        W 3138   5.171  15.685   3.484 -0.1451  0.2026  0.0325
60227W        W 3139   0.196  17.936   2.606 -0.1836 -0.0196  0.0542
60228W        W 3140   2.466  18.261   1.676 -0.1094 -0.0070  0.2382
60229W        W 3141   0.291  16.559   1.054  0.1962 -0.0390 -0.0255
60230W        W 3142   2.263  15.988   3.696  0.1818  0.2648 -0.3241
60231W        W 3143   4.259  14.595   2.669  0.3236  0.1206  0.1973
60232W        W 3144   2.129  16.728   2.375  0.0878  0.2123  0.0129
60233W        W 3145   3.205  15.052   1.965  0.0265  0.4207 -0.0258
60234W        W 3146   1.308  19.006   1.470  0.2002  0.0034 -0.0228
60235W        W 3147   0.816  17.417   1.458  0.1331  0.0869 -0.2370
60236W        W 3148   1.865  17.958   1.827  0.2572  0.0023  0.1441
60237W        W 3149  34.487  15.546   0.066 -0.2239  0.3984  0.3559
60238W        W 3150   3.088  16.157   1.613 -0.0950  0.1978  0.3786
60239W        W 3151   1.319  15.313   1.648 -0.0725 -0.0206 -0.2128
60240W        W 3152   1.268  14.936   3.706  0.0004  0.0174 -0.0686
60241W        W 3153   2.654  15.224   1.580 -0.0627 -0.2771 -0.2363
60242W        W 3154   4.248  16.338   0.171  0.2052  0.0138  0.0288
60243W        W 3155   2.089  15.389   3.139 -0.2627 -0.1454 -0.1766
60244W        W 3156   0.810  16.196   2.127 -0.0666  0.0092  0.5424
60245W        W 3157   3.046  15.010   3.158 -0.1042  0.0451  0.1702
60246W        W 3158   2.597  15.214   0.225 -0.3533 -0.2735 -0.0530
60247W        W 3159   2.160  18.873   3.364 -0.3501 -0.0508 -0.0630
60248W        W 3160   1.236  14.410   0.918  0.0037 -0.1545 -0.2480
60249W        W 3161   3.642  17.334   2.486  0.1213  0.2918  0.3517
60250W        W 3162   0.075  16.594   2.120 -0.1000 -0.3257  0.1085
60251W        W 3163   1.746  15.652   1.337 -0.0654  0.2891  0.3969
60252W        W 3164   2.363  17.350   4.588  0.1622  0.2353  0.1500
60253W        W 3165   0.283  13.493   1.018  0.0411 -0.0861  0.0482
60254W        W 3166   3.702  17.676   0.597 -0.0273 -0.1173 -0.1444
60255W        W 3167   3.848  14.956   2.573  0.0647  0.1474 -0.0964
60256W        W 3168  34.672  18.768  31.012  0.1913 -0.2375 -0.1232
60257W        W 3169   3.708  14.997   2.001 -0.0776  0.4467 -0.0147
60258W        W 3170   3.068  17.374   2.564 -0.3571  0.0715  0.0587
60259W        W 3171   1.323  15.256   1.088  0.1003 -0.3439  0.2959
60260W        W 3172   2.022  17.890   1.376  0.0051  0.3375 -0.3848
60261W        W 3173   4.060  15.106   1.666 -0.0422  0.0349  0.0428
60262W        W 3174   1.915  15.752  29.926 -0.0879  0.3088 -0.1264
60263W        W 3175   1.830  15.975   1.650  0.0845  0.0067  0.0352
60264W        W 3176   0.974  18.561   0.203 -0.1263  0.1693 -0.0655
60265W        W 3177   2.861  16.111   2.437  0.4245  0.1021 -0.0638
60266W        W 3178   2.232  14.684   2.720 -0.0334 -0.2004  0.1431
60267W        W 3179  34.443  17.583  31.860 -0.1607 -0.0561 -0.1028
60268W        W 3180   2.595  12.538   2.964  0.3228  0.3820  0.0945
60269W        W 3181   1.261  18.221   2.421 -0.1690  0.1940 -0.3138
60270W        W 3182   1.028  19.223   3.287 -0.1881 -0.1571 -0.2930
60271W        W 3183   1.221  17.396   0.478  0.1256  0.0933 -0.0756
60272W        W 3184   0.985  14.391   1.454 -0.0123 -0.1710 -0.0325
60273W        W 3185   2.790  16.562   1.691  0.1127  0.0422  0.1075
60274W        W 3186   1.923  17.785   0.505  0.4826 -0.2706 -0.0173
60275W        W 3187   2.462  18.160   1.145  0.2112 -0.0514 -0.3647
60276W        W 3188  34.653  15.475   0.688 -0.0242  0.0419 -0.5098
60277W        W 3189   2.754  17.856   2.751 -0.0417 -0.1504  0.0111
60278W        W 3190   2.217  16.012   1.289  0.2760 -0.1851 -0.1397
60279W        W 3191   3.074  15.632   1.548 -0.0221  0.1491 -0.2962
60280W        W 3192   2.877  15.370   1.107  0.0552 -0.1117  0.0663
60281W        W 3193   0.971  16.388   2.575  0.0106 -0.3409  0.0366
60282W        W 3194   0.012  16.433   0.581  0.0566 -0.0037 -0.1492
60283W        W 3195   0.948  17.940  31.186 -0.4568  0.3602 -0.1252
60284W        W 3196   1.717  16.787   0.996  0.0816 -0.0005  0.0734
60285W        W 3197   2.369  13.703   3.857  0.0537 -0.1631 -0.1112
60286W        W 3198   0.577  16.309   2.880  0.1583 -0.0630  0.1691
60287W        W 3199   0.873  15.824   1.682 -0.1824  0.1488 -0.0083
60288W        W 3200   1.064  15.264  31.887 -0.0015  0.0657  0.2949
60289W        W 3201   3.008  17.395  31.770  0.3545 -0.1866  0.2164
60290W        W 3202   1.860  15.171   0.964 -0.1947 -0.5226 -0.4231
60291W        W 3203  34.108  13.957   1.355  0.1664 -0.1233  0.4510
60292W        W 3204   2.263  16.363   1.761  0.1200 -0.2883 -0.2782
60293W        W 3205   2.742  17.849  31.483  0.1971 -0.1911  0.1984
60294W        W 3206   1.132  16.740  31.797 -0.0532 -0.0970 -0.1022
60295W        W 3207   3.164  18.475   3.369 -0.0950 -0.0992  0.1144
60296W        W 3208   1.050  16.795   0.589 -0.0212 -0.1807 -0.0890
60297W        W 3209   3.274  15.804   3.607 -0.2950  0.7374  0.1042
60298W        W 3210   1.763  14.678   4.834  0.1986 -0.0246  0.0402
60299W        W 3211   0.161  14.386   1.841  0.0833 -0.0223  0.0468
60300W        W 3212   2.648  15.649   2.769 -0.2256  0.0496 -0.1258
60301W        W 3213   2.115  18.916   1.503 -0.1434  0.0108 -0.1321
60302W        W 3214   1.785  18.301   0.429 -0.1055 -0.3069 -0.6516
60303W        W 3215   0.529  17.243   3.037  0.3620 -0.0619  0.1906
60304W        W 3216   1.420  18.508   3.875 -0.0646 -0.1723  0.2495
60305W        W 3217   0.743  15.631   2.130  0.3421 -0.0892 -0.1432
60306W        W 3218   3.270  16.124  31.652 -0.3715 -0.0201 -0.0920
60307W        W 3219   1.673  17.741   3.870 -0.0785  0.5998 -0.0135
60308W        W 3220   2.864  17.028   1.212  0.1825  0.0926  0.3126
60309W        W 3221   5.203  16.085   1.642  0.2476  0.2572  0.3348
60310W        W 3222   2.607  17.455   1.809  0.1130 -0.3062 -0.0454
60311W        W 3223   1.507  14.272   3.070 -0.1938  0.2395 -0.4883
60312W        W 3224   0.522  17.966   2.993 -0.0992  0.1304  0.1389
60313W        W 3225   3.426  16.996   3.360 -0.0257 -0.1572 -0.2936
60314W        W 3226   2.279  15.810   1.791 -0.0981 -0.0811 -0.0548
60315W        W 3227   1.829  14.373  31.833  0.1195 -0.0829 -0.1117
60316W        W 3228   1.536  17.613   1.538  0.1613 -0.4967  0.1200
60317W        W 3229  34.649  14.933   0.934  0.0683 -0.0806 -0.0491
60318W        W 3230   0.047  14.802  31.475 -0.1736  0.1918 -0.4794
60319W        W 3231   2.858  16.632   2.595  0.2488  0.0296 -0.0258
60320W        W 3232   3.720  16.738   2.730 -0.1169 -0.2740 -0.0899
60321W        W 3233   2.515  17.884   3.927  0.1983 -0.1508 -0.0636
60322W        W 3234   1.473  16.917   1.748 -0.2505  0.1435 -0.2909
60323W        W 3235   3.687  16.670   0.955 -0.1777 -0.1768  0.0331
60324W        W 3236   2.273  17.481   3.147 -0.1180 -0.1079 -0.0563
60325W        W 3237   2.574  18.254   4.811  0.0081  0.0241 -0.0660
60326W        W 3238   2.625  18.548   3.265  0.0606  0.1915 -0.2155
60327W        W 3239   3.416  15.234   1.490 -0.2068  0.2266 -0.1564
60328W        W 3240   1.634  14.909   1.353 -0.1903  0.1116  0.0916
60329W        W 3241   0.816  16.527   0.962  0.1046  0.0515  0.2890
60330W        W 3242   1.179  15.827  31.730  0.0042 -0.3495  0.0678
60331W        W 3243   2.440  15.801   2.374 -0.5404 -0.0830 -0.0166
60332W        W 3244   1.452  15.753   1.890 -0.1374  0.0616 -0.0052
60333W        W 3245   2.600  15.177  31.685 -0.2562  0.1101 -0.1501
60334W        W 3246   1.957  19.214   3.708 -0.2243  0.0205  0.2793
60335W        W 3247   2.300  15.189   2.555  0.1122  0.1672  0.0007
60336W        W 3248   1.886  17.016   6.909 -0.1919  0.2577  0.0905
60337W        W 3249   1.200  16.760   4.502 -0.1579 -0.3066 -0.4256
60338W        W 3250   4.895  16.049   3.154 -0.1466  0.2227 -0.2319
60339W        W 3251   4.179  17.324   3.745  0.0393  0.0002  0.0307
60340W        W 3252   0.156  16.336   5.198 -0.3831 -0.0347 -0.0152
60341W        W 3253   2.051  16.801   3.674  0.3889  0.0271  0.0394
60342W        W 3254   0.713  13.434   5.428  0.0953 -0.0183  0.1738
60343W        W 3255   3.296  17.143   5.980  0.2138 -0.1741 -0.1286
60344W        W 3256   3.650  17.653   5.420 -0.0968  0.0602  0.2032
60345W        W 3257   1.475  16.425   3.634 -0.1744  0.0727  0.2501
60346W        W 3258   0.465  14.800   5.684 -0.0152  0.0511 -0.1817
60347W        W 3259   0.223  17.827   5.347  0.0638  0.0953 -0.2713
60348W        W 3260   0.478  14.602   4.300 -0.0486 -0.0873 -0.2828
60349W        W 3261  34.285  14.575   7.164  0.1766 -0.0540 -0.0522
60350W        W 3262   2.022  14.984   5.841 -0.1417  0.0477  0.0272
60351W        W 3263   0.301  17.850   4.446 -0.2631 -0.0829  0.0484
60352W        W 3264   0.201  15.515   5.055 -0.0381 -0.1577  0.1227
60353W        W 3265   2.245  14.078   4.392 -0.0920  0.1337  0.0640
60354W        W 3266   2.435  17.559   5.612 -0.4041  0.1410 -0.2811
60355W        W 3267   1.488  15.465   6.612  0.0488 -0.1031 -0.2412
60356W        W 3268   2.827  14.891   6.931  0.1359 -0.1603  0.1120
60357W        W 3269   2.561  18.014   5.837 -0.1288  0.1571 -0.2755
60358W        W 3270   0.798  16.923   2.414  0.0835 -0.4838  0.0349
60359W        W 3271   0.007  15.224   5.404 -0.0451 -0.1894  0.1790
60360W        W 3272   1.901  15.824   6.538  0.0046  0.2340  0.1684
60361W        W 3273   3.270  15.964   4.735 -0.0401  0.1009 -0.1437
60362W        W 3274   4.013  15.408   5.882 -0.2295 -0.1951 -0.2150
60363W        W 3275   2.626  17.554   6.580 -0.2864  0.2734  0.2479
60364W        W 3276   3.307  17.306   5.416  0.0346 -0.2832  0.0866
60365W        W 3277   3.335  16.160   6.478 -0.1109 -0.0021  0.2138
60366W        W 3278   0.695  17.554   4.772  0.0024 -0.2403  0.0438
60367W        W 3279  34.511  17.968   4.714 -0.2163  0.0346 -0.2433
60368W        W 3280   2.337  16.307   4.748  0.0789 -0.0376  0.1452
60369W        W 3281   3.395  17.440   3.782  0.0483  0.0948  0.0203
60370W        W 3282   3.704  17.978   7.656  0.3831  0.0354  0.3771
60371W        W 3283   1.923  18.003   6.785 -0.0003 -0.0304 -0.0981
60372W        W 3284  33.093  17.165   3.602  0.0427 -0.0749  0.1665
60373W        W 3285   2.033  18.836   7.007  0.0202 -0.0527  0.0878
60374W        W 3286   2.077  17.585   6.094  0.0155 -0.1266  0.0299
60375W        W 3287   2.263  16.153   6.540  0.2697 -0.2282  0.0274
60376W        W 3288   0.953  15.322   4.389 -0.1599 -0.1990 -0.0149
60377W        W 3289   1.407  17.270   3.144 -0.4536 -0.0078 -0.0601
60378W        W 3290   2.680  16.835   5.980 -0.0740  0.2019 -0.3555
60379W        W 3291   0.881  16.303   7.212 -0.2717 -0.0225 -0.2305
60380W        W 3292   1.389  17.520   4.658  0.2154  0.1604 -0.3477
60381W        W 3293   2.714  13.714   5.624 -0.0928  0.2814  0.0086
60382W        W 3294   1.974  17.093   3.287 -0.0321 -0.0494 -0.2108
60383W        W 3295   4.014  15.338   4.020  0.2289 -0.1790  0.0026
60384W        W 3296   1.516  15.464   3.222 -0.0353  0.0401  0.1097
60385W        W 3297   2.810  14.235   4.472  0.0432 -0.0130  0.2386
60386W        W 3298   2.892  15.234   5.684  0.0311  0.0145 -0.0244
60387W        W 3299   1.684  17.730   5.702  0.0536 -0.1579 -0.1257
60388W        W 3300   1.168  13.806   6.767 -0.0489  0.2650 -0.0761
60389W        W 3301   4.091  17.353   6.450  0.1975  0.1825  0.5684
60390W        W 3302   1.893  15.736   5.042  0.1708  0.0711 -0.0376
60391W        W 3303   4.233  15.443   6.345 -0.0950 -0.2876 -0.0543
60392W        W 3304   1.425  17.680   7.402 -0.1201 -0.2389  0.0790
60393W        W 3305  34.347  16.608   3.087 -0.0460  0.2397 -0.0209
60394W        W 3306   2.562  17.482   2.308  0.0160  0.0664  0.0822
60395W        W 3307   3.522  17.851   4.012 -0.2599  0.2785  0.1635
60396W        W 3308   1.956  18.597   3.755  0.3036 -0.1716  0.0036
60397W        W 3309   0.833  16.692   6.373 -0.1816 -0.2433 -0.1075
60398W        W 3310  34.383  16.950   7.787  0.3388  0.0017 -0.0504
60399W        W 3311   1.137  15.826   6.096  0.4208 -0.1990 -0.1777
60400W        W 3312   1.092  15.718   3.986 -0.1422  0.2649  0.1360
60401W        W 3313   3.153  16.345   6.938  0.1494  0.0611  0.0308
60402W        W 3314   1.272  17.444   7.812 -0.1373  0.0381  0.0607
60403W        W 3315   3.455  15.555   5.017 -0.1444  0.2065  0.0094
60404W        W 3316   0.955  16.958   5.412  0.0231 -0.0094  0.0170
60405W        W 3317   3.774  18.129   5.365  0.0925 -0.2425 -0.0592
60406W        W 3318   1.917  17.323   3.774 -0.1794 -0.2867 -0.0588
60407W        W 3319   2.199  14.420   5.103 -0.3489  0.1025 -0.0115
60408W        W 3320   2.348  13.808   6.333  0.0344 -0.1936 -0.0619
60409W        W 3321   1.578  17.004   3.575 -0.0225  0.1521  0.0565
60410W        W 3322   1.363  17.162   4.184 -0.0209  0.1064 -0.1863
60411W        W 3323   2.756  17.052   8.114 -0.0213  0.0093 -0.1375
60412W        W 3324   2.863  17.614   3.569 -0.1807 -0.1748 -0.0273
60413W        W 3325   1.463  18.268   6.552 -0.0288  0.1468  0.2957
60414W        W 3326   2.436  15.197   6.986 -0.0735  0.1128  0.0587
60415W        W 3327   2.692  17.694   7.200  0.0770 -0.0579  0.1523
60416W        W 3328   1.361  18.807   3.167 -0.0329 -0.0835 -0.0700
60417W        W 3329   0.641  15.895   6.353 -0.1113  0.2603 -0.2427
60418W        W 3330   0.524  16.227   5.542 -0.0574  0.1734 -0.1718
60419W        W 3331  34.333  14.796   5.335  0.3571  0.0803 -0.2647
60420W        W 3332   0.530  16.678   5.301 -0.1328  0.1147 -0.2075
60421W        W 3333   2.516  14.557   4.185  0.1591 -0.1865 -0.1228
60422W        W 3334   0.688  15.016   6.318  0.2360  0.2381  0.4298
60423W        W 3335   3.454  14.374   5.809 -0.0110  0.1027 -0.0698
60424W        W 3336   1.116  16.843   5.886  0.1413  0.3954  0.1028
60425W        W 3337   3.887  18.187   3.889 -0.2400  0.1115 -0.0171
60426W        W 3338   4.487  14.717   5.276 -0.1795  0.1094 -0.2780
60427W        W 3339   2.084  18.146   4.509  0.1245 -0.1170 -0.1959
60428W        W 3340   0.314  16.307   7.218  0.2214  0.2118  0.2425
60429W        W 3341   0.542  15.069   4.432  0.0258  0.3703  0.1900
60430W        W 3342  34.635  15.854   7.019  0.1846  0.4222  0.4300
60431W        W 3343  34.643  15.412   5.848 -0.0552  0.0875  0.0499
60432W        W 3344   3.202  15.814   5.597  0.1915 -0.0284 -0.1168
60433W        W 3345   0.959  14.845   4.699  0.0821  0.1742 -0.5261
60434W        W 3346   1.713  15.513   5.737 -0.0570  0.2521  0.0294
60435W        W 3347   2.119  16.873   4.618  0.0095  0.1125 -0.2871
60436W        W 3348   0.484  18.050   4.907  0.0437 -0.1528  0.0102
60437W        W 3349   1.308  14.754   6.965 -0.2481 -0.0568  0.3293
60438W        W 3350   2.000  17.331   5.500 -0.1539 -0.0958 -0.2168
60439W        W 3351   4.198  18.627   6.387 -0.3354  0.1073 -0.0941
60440W        W 3352   3.403  17.160   6.510  0.5085 -0.0286 -0.0480
60441W        W 3353   1.585  15.038   5.572  0.1584 -0.4295  0.2049
60442W        W 3354   0.505  15.526   4.178 -0.1704  0.0409 -0.4212
60443W        W 3355   1.523  18.226   5.714  0.2854 -0.2813 -0.2426
60444W        W 3356   1.831  17.386   4.353  0.1519  0.1766 -0.0286
60445W        W 3357   1.022  15.265   5.081 -0.3098  0.1791  0.0689
60446W        W 3358   2.438  18.477   5.334 -0.1571 -0.1022 -0.1063
60447W        W 3359   0.613  15.622   5.252  0.0502  0.2493 -0.1731
60448W        W 3360   0.668  17.190   5.732 -0.0593 -0.0595  0.1793
60449W        W 3361   1.596  14.908   7.366 -0.0539 -0.1032 -0.2855
60450W        W 3362   2.774  14.451   6.591 -0.3174 -0.5226 -0.2416
60451W        W 3363   3.744  17.115   3.897  0.0739  0.0441 -0.1482
60452W        W 3364   1.408  16.409   3.024  0.2307 -0.0236  0.4259
60453W        W 3365   1.709  18.563   4.776  0.2171  0.2381 -0.2041
60454W        W 3366  33.977  18.267   4.143 -0.3735  0.2214  0.1309
60455W        W 3367   0.639  16.697   5.811 -0.0557 -0.0126 -0.1417
60456W        W 3368   2.162  17.735   4.262 -0.3102  0.0798  0.2702
60457W        W 3369   3.198  15.018   5.294 -0.4643  0.1773  0.2279
60458W        W 3370  34.216  16.472   7.971 -0.0421 -0.1560  0.4538
60459W        W 3371   2.358  15.220   6.209  0.1037  0.1183 -0.0636
60460W        W 3372   1.365  16.043   3.369 -0.2498 -0.0070 -0.1303
60461W        W 3373  34.553  16.712   6.903  0.2320 -0.0975 -0.3982
60462W        W 3374   1.194  13.253   4.597 -0.0812 -0.0095  0.0375
60463W        W 3375   4.298  14.947   3.813 -0.1542 -0.2885  0.3445
60464W        W 3376   2.474  16.493   6.308  0.0077  0.1005 -0.1370
60465W        W 3377   2.812  17.286   4.794 -0.0623  0.0561 -0.2906
60466W        W 3378   2.224  14.721   2.211 -0.0192 -0.0329 -0.4939
60467W        W 3379   1.525  15.629   4.232  0.1323  0.2104  0.2227
60468W        W 3380  34.539  15.477   6.319 -0.2359  0.0146 -0.2547
60469W        W 3381   1.989  15.834   4.558  0.1499  0.3686  0.0583
60470W        W 3382   3.409  16.260   5.498  0.2599  0.6834  0.0674
60471W        W 3383   3.897  15.365   2.988  0.0396 -0.0315 -0.2361
60472W        W 3384   3.798  17.816   3.515  0.1755 -0.2567 -0.1382
60473W        W 3385   1.104  16.944   6.675  0.2521 -0.0148  0.1551
60474W        W 3386   1.785  17.209   7.387  0.0607  0.1696 -0.1168
60475W        W 3387   3.801  17.182   5.202  0.4177 -0.1900 -0.2534
60476W        W 3388   1.350  15.367   6.167  0.0323  0.1057 -0.0233
60477W        W 3389   2.587  16.316   3.827  0.0549  0.4168 -0.0566
60478W        W 3390   2.034  15.327   5.330  0.0584  0.1609  0.1245
60479W        W 3391  34.183  17.405   4.146 -0.0737 -0.1897  0.2237
60480W        W 3392   1.559  14.507   6.338 -0.1243 -0.2068  0.0442
60481W        W 3393   2.457  14.578   6.133  0.1626 -0.0551  0.1926
60482W        W 3394   1.009  15.315   6.863 -0.4803  0.0390 -0.2184
60483W        W 3395   3.007  15.719   6.443  0.2639  0.2030  0.0458
60484W        W 3396   3.719  15.918   3.880 -0.0370 -0.1258 -0.1284
60485W        W 3397   2.954  15.516   5.045 -0.2281  0.2046 -0.2169
60486W        W 3398   0.840  16.619   4.193  0.3405 -0.0829 -0.1099
60487W        W 3399   1.831  15.303   7.132 -0.1123 -0.1767  0.0838
60488W        W 3400   1.563  16.692   6.877 -0.0727 -0.1489 -0.0078
60489W        W 3401   0.569  16.614   7.554  0.1059 -0.1949  0.0967
60490W        W 3402   3.698  17.478   6.741  0.2571  0.1212  0.0167
60491W        W 3403   3.603  16.776   4.264  0.0839  0.1851  0.0282
60492W        W 3404   1.664  15.735   6.948 -0.0726 -0.2765  0.5152
60493W        W 3405   1.581  15.322   5.150 -0.0303 -0.4199  0.2364
60494W        W 3406   0.663  18.916   4.718  0.1337 -0.0248  0.1668
60495W        W 3407   1.196  18.071   3.888  0.1441  0.2119  0.0479
60496W        W 3408   0.711  14.486   6.342  0.0103 -0.2274 -0.0286
60497W        W 3409   3.193  16.901   6.861 -0.2662  0.2643 -0.1752
60498W        W 3410   3.380  16.242   2.612 -0.2172  0.0546  0.0327
60499W        W 3411   2.638  16.038   6.026 -0.0614  0.0065 -0.3608
60500W        W 3412   0.761  17.679   3.633 -0.1462 -0.2865 -0.1648
60501W        W 3413   4.257  14.291   5.210  0.1508  0.2931 -0.2531
60502W        W 3414   0.104  18.399   6.524 -0.2702 -0.3681  0.1619
60503W        W 3415   0.919  15.927   3.607 -0.5079  0.0028  0.2033
60504W        W 3416   0.291  16.265   3.921 -0.2346  0.0496  0.0463
60505W        W 3417   2.927  15.544   4.518 -0.1775  0.0439 -0.0024
60506W        W 3418   2.755  17.268   4.112  0.0656  0.0445 -0.0633
60507W        W 3419   0.401  14.712   4.788 -0.2911 -0.1696  0.0371
60508W        W 3420   0.882  15.187   5.896 -0.2167 -0.0423 -0.0096
60509W        W 3421   1.705  17.186   5.905  0.0913  0.4124 -0.2605
60510W        W 3422   2.566  16.645   5.531  0.2124  0.0149 -0.1597
60511W        W 3423   3.507  15.318   3.796 -0.0537 -0.2814  0.2347
60512W        W 3424   3.155  18.604   6.193 -0.4328 -0.1461 -0.1205
60513W        W 3425   0.626  15.603   6.961  0.5159  0.0514 -0.2653
60514W        W 3426   0.704  16.121   4.116  0.1138 -0.0768 -0.3904
60515W        W 3427   4.620  15.078   5.024 -0.0752 -0.1075 -0.1916
60516W        W 3428   1.032  16.459   5.548  0.1813 -0.1613  0.0040
60517W        W 3429   0.942  17.556   3.137 -0.1217  0.0514 -0.0159
60518W        W 3430   2.936  18.283   7.543 -0.0243  0.2070 -0.0514
60519W        W 3431   1.515  15.906   3.822 -0.0674 -0.1596  0.0012
60520W        W 3432   1.777  17.570   3.340 -0.1264 -0.1336 -0.1606
60521W        W 3433   2.228  15.813   6.927  0.0009  0.0934  0.1138
60522W        W 3434   3.251  16.159   5.966  0.0469  0.1821 -0.0830
60523W        W 3435   1.391  15.646   4.767 -0.0043  0.3131 -0.1362
60524W        W 3436   1.054  15.901   4.486 -0.3539 -0.0459 -0.0186
60525W        W 3437   2.913  16.339   4.637 -0.0775  0.3134  0.1203
60526W        W 3438   3.124  17.442   7.223 -0.0031 -0.0585  0.3425
60527W        W 3439   1.113  15.948   5.592  0.0822 -0.0322  0.0868
60528W        W 3440   0.058  16.577   7.920 -0.0394  0.0967  0.0169
60529W        W 3441   1.170  13.665   5.270 -0.1047  0.0287  0.0726
60530W        W 3442   4.203  19.191   3.628  0.2607  0.2620 -0.0565
60531W        W 3443   2.747  16.069   6.750  0.1961  0.0384  0.0851
60532W        W 3444   0.476  16.962   4.417 -0.1403 -0.0526  0.0689
60533W        W 3445   1.126  16.722   7.100  0.0444 -0.1038 -0.1027
60534W        W 3446   1.742  16.900   4.075  0.4215  0.2405  0.5346
60535W        W 3447   1.622  14.409   5.226 -0.1677  0.0363  0.5000
60536W        W 3448   0.360  17.120   4.960 -0.1621  0.1795 -0.1146
60537W        W 3449   0.709  17.990   4.119 -0.3743 -0.4380 -0.0379
60538W        W 3450  34.516  17.060   4.253  0.0076  0.0961  0.0109
60539W        W 3451   2.915  13.810   3.702 -0.0520  0.1924 -0.0145
60540W        W 3452   2.828  15.960   4.234 -0.0298 -0.1601  0.0160
60541W        W 3453   2.280  16.931   5.200  0.1182 -0.0742 -0.2242
60542W        W 3454   2.712  14.706   5.321  0.1387 -0.4146 -0.0156
60543W        W 3455   2.937  15.501   3.992 -0.2790  0.2764  0.0257
60544W        W 3456   2.268  14.394   7.500  0.0538 -0.1147 -0.0392
60545W        W 3457   0.333  14.758   6.641 -0.1310 -0.0592  0.0367
60546W        W 3458   3.509  18.284   4.302  0.2330  0.2982  0.1597
60547W        W 3459   0.890  16.270   6.052  0.0760  0.2109  0.0562
60548W        W 3460   3.270  18.090   7.231  0.1053  0.1092 -0.0306
60549W        W 3461   0.414  17.204   7.268  0.2396 -0.1921  0.0079
60550W        W 3462   1.373  14.385   4.753  0.0045 -0.0532 -0.3222
60551W        W 3463   0.040  14.897   4.431 -0.0362 -0.0497 -0.5723
60552W        W 3464   1.206  15.450   5.570  0.0063 -0.0832 -0.0378
60553W        W 3465   3.680  15.939   5.794 -0.1311 -0.1992  0.0492
60554W        W 3466   1.853  16.069   3.414  0.2635  0.1790 -0.4311
60555W        W 3467   5.018  16.184   5.154 -0.1213 -0.1879  0.1086
60556W        W 3468   0.057  17.042   5.875 -0.4086  0.1008 -0.1272
60557W        W 3469   3.358  15.355   5.622  0.0463 -0.0418 -0.2818
60558W        W 3470   1.946  15.765   4.053  0.0842  0.1641 -0.0495
60559W        W 3471   1.633  17.039   4.688  0.0488  0.1422 -0.0019
60560W        W 3472   0.194  15.390   7.123 -0.0081 -0.0116 -0.2376
60561W        W 3473   3.118  16.657   5.703 -0.2643  0.1294 -0.2008
60562W        W 3474   2.897  16.019   5.160  0.0835 -0.3642 -0.0489
60563W        W 3475   2.306  15.417   5.738 -0.0868 -0.4027  0.0102
60564W        W 3476   3.703  14.314   5.377  0.1448  0.1423 -0.6330
60565W        W 3477   2.087  16.048   7.359 -0.0606  0.1778 -0.1671
60566W        W 3478  34.686  14.860   7.006 -0.1272 -0.3670  0.4044
60567W        W 3479   4.321  18.583   7.631  0.0805  0.1200  0.0495
60568W        W 3480   5.850  15.131   3.511  0.0900  0.3463 -0.1412
60569W        W 3481   2.531  14.920   5.749 -0.1842 -0.1406 -0.1123
60570W        W 3482   3.898  16.347   4.117  0.0268  0.2900  0.0255
60571W        W 3483   2.545  15.113   3.491 -0.1334  0.1421  0.2656
60572W        W 3484  34.034  14.695   5.726 -0.5200  0.0309  0.0235
60573W        W 3485   2.422  16.262   7.130  0.1711  0.0717  0.2290
60574W        W 3486   0.747  14.718   5.149  0.0929  0.1025  0.2099
60575W        W 3487   2.526  14.598   7.969  0.0379  0.0446 -0.1575
60576W        W 3488   2.451  16.975   3.351 -0.1239 -0.2083  0.0895
60577W        W 3489   3.580  16.933   5.634  0.3716  0.1470  0.0135
60578W        W 3490   3.171  15.073   4.302  0.1459  0.5286 -0.2433
60579W        W 3491  34.385  15.646   5.207 -0.0045 -0.0512  0.3161
60580W        W 3492   1.363  16.994   7.460  0.0268 -0.2489 -0.1127
60581W        W 3493   1.649  16.095   4.307  0.1203 -0.2367  0.0356
60582W        W 3494   1.731  15.057   3.476  0.0043  0.0541  0.0488
60583W        W 3495   2.733  17.077   6.411  0.0508  0.1709 -0.1709
60584W        W 3496   2.271  17.046   7.259  0.1290 -0.1127 -0.0632
60585W        W 3497   0.248  13.643   4.834 -0.3369  0.0382 -0.3356
60586W        W 3498   2.864  16.230   5.585 -0.2262 -0.0578 -0.1495
60587W        W 3499  34.068  17.081   4.515 -0.0044  0.3169 -0.2002
60588W        W 3500   2.200  13.590   4.654  0.0930 -0.3679 -0.0907
60589W        W 3501   1.690  17.892   6.209  0.2021 -0.0410 -0.1255
60590W        W 3502  34.667  16.777   5.288 -0.0672  0.0356  0.0126
60591W        W 3503   0.403  18.468   4.762 -0.2426  0.0721 -0.1456
60592W        W 3504   1.139  14.324   6.602 -0.0790  0.1375  0.0336
60593W        W 3505   4.108  14.601   5.550 -0.1815 -0.3579  0.1915
60594W        W 3506   2.600  16.916   4.401 -0.3304  0.1009 -0.1099
60595W        W 3507   3.430  15.600   6.153 -0.0256  0.3521  0.1256
60596W        W 3508   2.307  16.712   6.868 -0.0877 -0.0388  0.2926
60597W        W 3509   1.302  16.150   6.959  0.1728 -0.2187 -0.4092
60598W        W 3510   3.167  17.860   8.387 -0.0272 -0.1307  0.0667
60599W        W 3511   3.735  16.251   6.267 -0.0642  0.1174  0.0877
60600W        W 3512   0.407  17.606   4.026  0.1486  0.0570  0.0172
60601W        W 3513   0.166  15.722   6.548  0.2595 -0.0462  0.3537
60602W        W 3514   1.913  16.801   5.542 -0.0341  0.2231  0.0626
60603W        W 3515   2.840  17.044   5.219  0.0610  0.0405  0.0155
60604W        W 3516  34.653  13.900   4.427  0.1744 -0.1050 -0.3141
60605W        W 3517   1.810  17.649   2.850  0.0225  0.0872 -0.3562
60606W        W 3518   0.406  17.055   6.199 -0.1824 -0.0408  0.0345
60607W        W 3519   0.268  17.226   5.441 -0.1294 -0.0232 -0.0842
60608W        W 3520   1.552  17.888   4.332 -0.0630  0.0199  0.0984
60609W        W 3521   2.783  15.679   5.482  0.2421  0.2137 -0.4875
60610W        W 3522   3.351  15.738   4.193  0.0686  0.1784 -0.1655
60611W        W 3523   3.554  18.650   7.041  0.1657  0.2082  0.0049
60612W        W 3524   0.586  14.285   5.839  0.1476  0.1243  0.2769
60613W        W 3525   1.637  17.526   5.198 -0.2739  0.1611  0.3601
60614W        W 3526  33.405  17.561   5.200  0.0093  0.0491  0.0586
60615W        W 3527   3.288  16.643   3.001  0.2168 -0.0612 -0.1375
60616W        W 3528   1.544  17.082   5.321 -0.1484 -0.1422 -0.0506
60617W        W 3529   4.042  16.523   6.588  0.0300  0.2101  0.0295
60618W        W 3530   2.139  14.119   3.646  0.1063 -0.1280 -0.2269
60619W        W 3531   3.924  15.612   5.362 -0.1400  0.0497 -0.1900
60620W        W 3532   3.719  15.984   5.090  0.0196  0.2326  0.0845
60621W        W 3533   2.745  17.269   7.487 -0.0226 -0.4279  0.3208
60622W        W 3534   1.443  15.823   5.302 -0.2020 -0.0329 -0.2424
60623W        W 3535   2.699  14.981   3.938  0.1904  0.1211 -0.0530
60624W        W 3536   0.623  16.741   7.096  0.2081 -0.0758 -0.0842
60625W        W 3537   1.967  13.147   6.920 -0.4987  0.2507 -0.0955
60626W        W 3538   0.609  17.543   6.992 -0.1817 -0.0948  0.1108
60627W        W 3539   2.130  17.786   3.642 -0.3428  0.0038  0.1469
60628W        W 3540   1.893  16.268   3.870  0.1136 -0.0388 -0.1382
60629W        W 3541   2.295  16.186   4.245 -0.0037 -0.0168  0.2073
60630W        W 3542   3.176  13.947   5.758  0.0204  0.2304 -0.0795
60631W        W 3543   3.371  16.203   3.290  0.1661  0.0185 -0.1071
60632W        W 3544   1.853  16.201   4.890  0.3005  0.1974  0.1639
60633W        W 3545   1.107  17.826   5.016  0.4278  0.0399 -0.2562
60634W        W 3546   2.368  17.086   5.684 -0.0832 -0.0798  0.2447
60635W        W 3547   1.681  16.669   6.079 -0.0696  0.0413  0.4017
60636W        W 3548   0.507  16.724   3.310 -0.0569  0.1803  0.1889
60637W        W 3549   2.375  15.947   5.113 -0.1129 -0.1343 -0.2936
60638W        W 3550   2.118  15.820   6.085 -0.0362 -0.2930 -0.1464
60639W        W 3551   3.802  13.811   5.247  0.1031 -0.1350 -0.1558
60640W        W 3552   0.804  16.392   3.752  0.0840 -0.1618 -0.1230
60641W        W 3553   2.566  15.212   5.307  0.0415  0.0123 -0.1175
60642W        W 3554   1.773  16.061   5.645 -0.0000 -0.1600 -0.1330
60643W        W 3555   2.185  16.914   6.075 -0.3378  0.0399  0.0940
60644W        W 3556   3.139  16.134   3.935 -0.0111  0.1219  0.3832
60645W        W 3557   3.233  15.005   6.701  0.1995 -0.2230  0.0409
60646W        W 3558   1.705  15.880   2.926  0.1810  0.0843  0.2615
60647W        W 3559   3.566  17.559   6.284  0.1834  0.1434 -0.4763
60648W        W 3560  33.954  14.484   4.545  0.1457 -0.0735 -0.2148
60649W        W 3561   2.262  15.021   4.916 -0.0830 -0.0510  0.1810
60650W        W 3562  33.873  16.208   5.008  0.2961 -0.2693 -0.1398
60651W        W 3563   2.818  15.862   7.273 -0.0086 -0.3265  0.1377
60652W        W 3564   1.951  16.596   8.148 -0.0274 -0.0205  0.2752
60653W        W 3565  34.084  14.588   4.992 -0.1540 -0.0062 -0.0374
60654W        W 3566   2.108  18.182   3.991  0.0455 -0.0327 -0.2740
60655W        W 3567   5.126  14.813   4.378 -0.0533  0.0830 -0.2608
60656W        W 3568   2.439  17.399   3.737  0.1981  0.1039 -0.4089
60657W        W 3569   3.012  16.477   6.305  0.1280 -0.4922  0.0486
60658W        W 3570   2.871  17.534   5.228  0.1043 -0.1677  0.1436
60659W        W 3571   0.515  15.158   5.015 -0.0788  0.1132  0.1260
60660W        W 3572   2.798  18.065   6.864 -0.0565 -0.1174 -0.0363
60661W        W 3573   3.787  15.780   6.531 -0.3008  0.0926 -0.0330
60662W        W 3574   0.669  13.968   5.083 -0.0740 -0.0206  0.2970
60663W        W 3575   1.555  16.412   7.302  0.0207 -0.1586 -0.3046
60664W        W 3576   0.527  19.262   4.271  0.1388  0.0916  0.0763
60665W        W 3577   4.977  14.398   4.178 -0.0413 -0.1202 -0.0706
60666W        W 3578   3.160  13.735   6.685  0.0103 -0.0123  0.1336
60667W        W 3579   1.268  18.387   3.431 -0.0447 -0.0990  0.0298
60668W        W 3580   2.234  15.569   7.361 -0.0731  0.0267 -0.1413
60669W        W 3581   2.214  17.108   6.553  0.0032  0.4065  0.1139
60670W        W 3582   1.202  17.917   6.139  0.0165 -0.1435 -0.2065
60671W        W 3583   0.877  16.913   4.939 -0.1465 -0.0379  0.0209
60672W        W 3584   1.027  17.287   7.227 -0.2008 -0.2317  0.1640
60673W        W 3585   1.960  17.188   5.004  0.1017 -0.1239 -0.0159
60674W        W 3586   0.923  17.972   4.580 -0.0526  0.0916  0.0886
60675W        W 3587   3.835  17.364   5.811  0.0652  0.2498 -0.1805
60676W        W 3588   1.260  14.827   5.163 -0.2219 -0.1161 -0.2110
60677W        W 3589   2.086  18.101   5.798  0.2643  0.1091 -0.0758
60678W        W 3590   2.195  16.307   5.387  0.1321 -0.2109  0.4265
60679W        W 3591   3.032  15.395   3.496  0.0354 -0.4738  0.1377
60680W        W 3592   3.152  13.275   4.933  0.4233  0.3691 -0.0977
60681W        W 3593   2.894  17.237   5.667  0.1843 -0.0008 -0.2276
60682W        W 3594  34.149  16.657   4.185  0.2302  0.1332  0.0121
60683W        W 3595   0.449  16.778   3.815  0.0812 -0.1586 -0.1760
60684W        W 3596   1.825  16.679   4.985  0.0988 -0.1643 -0.1423
60685W        W 3597   0.730  14.245   8.162 -0.0461 -0.3364  0.3225
60686W        W 3598   0.379  15.293   6.663 -0.2108 -0.0086 -0.0905
60687W        W 3599   0.775  16.402   4.629  0.1111  0.0645 -0.2551
60688W        W 3600   0.984  15.852   4.989 -0.1808 -0.3298 -0.4223
60689W        W 3601   2.494  18.491   3.868  0.0274  0.0407 -0.1441
60690W        W 3602   0.436  13.992   6.252 -0.2374  0.1301 -0.0160
60691W        W 3603  34.373  14.221   5.926 -0.1459  0.2083 -0.2989
60692W        W 3604   3.093  16.791   4.698  0.0104 -0.0425 -0.2482
60693W        W 3605   3.346  16.873   5.189  0.1309 -0.0391  0.0302
60694W        W 3606   1.481  14.167   5.913 -0.3042  0.0357 -0.0065
60695W        W 3607   4.092  16.959   7.398  0.0777 -0.2428  0.0969
60696W        W 3608  34.332  16.016   3.343  0.0535  0.4192  0.1672
60697W        W 3609   2.112  15.378   6.651  0.1837 -0.1514  0.2243
60698W        W 3610   1.523  14.897   6.025 -0.0309  0.1700  0.0256
60699W        W 3611   1.194  16.272   4.077 -0.1437  0.5073 -0.0604
60700W        W 3612   2.187  16.442   5.858  0.0667  0.1610 -0.0135
60701W        W 3613   2.244  17.134   4.129 -0.3085 -0.0945  0.1725
60702W        W 3614   2.002  18.234   5.040 -0.5862 -0.1692 -0.1905
60703W        W 3615   2.596  17.410   6.073  0.3156  0.1083  0.1330
60704W        W 3616   1.326  16.454   6.386  0.1732 -0.2763  0.0027
60705W        W 3617  33.873  13.409   6.302  0.2190 -0.0470 -0.1327
60706W        W 3618   2.942  16.541   5.213  0.1089 -0.2294 -0.1934
60707W        W 3619   1.666  16.137   8.241 -0.1977  0.0970 -0.0021
60708W        W 3620   3.258  17.962   3.583 -0.1012  0.0592  0.0929
60709W        W 3621   2.927  14.281   6.027 -0.2709  0.3294 -0.0938
60710W        W 3622   3.586  14.816   5.002 -0.0814  0.0942 -0.0989
60711W        W 3623   0.508  14.990   7.133 -0.1233  0.1049  0.0627
60712W        W 3624   1.824  16.211   6.232 -0.0019  0.3266  0.0374
60713W        W 3625   2.776  16.586   6.718 -0.2750  0.2884  0.2149
60714W        W 3626   0.525  14.349   5.361  0.1358 -0.2207  0.0006
60715W        W 3627   2.108  14.018   4.854  0.1968  0.3398  0.1531
60716W        W 3628   2.431  17.378   5.109  0.0794  0.0951 -0.0672
60717W        W 3629   1.279  16.243   4.752 -0.0075  0.0143 -0.1376
60718W        W 3630   1.515  16.349   5.306 -0.0153 -0.2959  0.0267
60719W        W 3631   2.333  15.882   5.593  0.1368 -0.1422  0.1865
60720W        W 3632   3.416  16.428   4.912 -0.3627  0.1953  0.0031
60721W        W 3633   2.145  16.959   7.739  0.1453 -0.2673 -0.0669
60722W        W 3634   1.818  15.330   4.713 -0.1139 -0.1152 -0.0390
60723W        W 3635   4.321  16.456   4.392 -0.1814  0.0497  0.0506
60724W        W 3636   4.822  18.603   7.562 -0.4573 -0.0434  0.0105
60725W        W 3637   4.277  18.147   6.492  0.0424  0.2902  0.1815
60726W        W 3638   3.231  18.241   6.666  0.0262 -0.1038 -0.1420
60727W        W 3639   2.756  15.530   6.046  0.3994  0.0746 -0.2173
60728W        W 3640  34.336  13.797   5.367 -0.1198 -0.1472 -0.3000
60729W        W 3641   1.397  16.259   5.909 -0.0080 -0.0878  0.1581
60730W        W 3642   3.086  17.535   6.262  0.1122 -0.0436 -0.2995
60731W        W 3643   3.726  14.811   4.546  0.2466  0.0350  0.1888
60732W        W 3644   0.219  14.817   5.263  0.0399  0.2128  0.1553
60733W        W 3645   2.001  14.854   5.364  0.1597 -0.0216 -0.2367
60734W        W 3646   3.591  18.586   6.565 -0.2686 -0.0444  0.1142
60735W        W 3647   3.172  15.192   6.094  0.2248  0.2600 -0.0450
60736W        W 3648   2.316  15.545   9.607  0.2294  0.0197 -0.0250
60737W        W 3649   0.343  15.832   7.309 -0.1369  0.3039  0.2431
60738W        W 3650   2.079  14.885   7.225 -0.1085 -0.0171 -0.0490
60739W        W 3651   3.017  15.736   7.757  0.1830  0.1959 -0.0588
60740W        W 3652   0.096  15.033   7.463 -0.1563 -0.2343 -0.1520
60741W        W 3653   2.317  16.439   9.957 -0.0962 -0.5368  0.2167
60742W        W 3654   3.918  18.403   8.180  0.1837  0.0339  0.0650
60743W        W 3655   4.178  17.866   9.509  0.0803 -0.0808  0.2738
60744W        W 3656   1.883  16.252   6.969 -0.0671  0.1112  0.2014
60745W        W 3657   0.532  15.041   8.670 -0.0414  0.1878  0.2169
60746W        W 3658   1.214  14.180   8.247  0.1274 -0.1512 -0.0238
60747W        W 3659  33.029  14.686   9.436 -0.0420  0.1479  0.1121
60748W        W 3660   3.692  15.597  10.089 -0.0001 -0.2007 -0.2291
60749W        W 3661  34.617  15.801   7.549  0.0379 -0.0846 -0.1867
60750W        W 3662  34.325  14.419   9.530  0.2842 -0.0774 -0.1659
60751W        W 3663   0.915  16.038   8.168  0.3548 -0.1945 -0.1348
60752W        W 3664   1.658  17.908   9.449  0.1848 -0.2127  0.2636
60753W        W 3665   1.470  14.778   9.081 -0.0011 -0.1993 -0.1406
60754W        W 3666   0.482  17.228   8.448  0.2102 -0.1616  0.2270
60755W        W 3667  33.844  15.268   8.061 -0.0501  0.0479  0.2178
60756W        W 3668   1.679  16.161  10.156  0.0411 -0.2878 -0.3790
60757W        W 3669   0.480  14.871   9.225  0.1261  0.2638 -0.1932
60758W        W 3670   0.565  14.274   8.970 -0.1609  0.0794  0.2116
60759W        W 3671   1.628  14.787   8.555 -0.2072 -0.2629 -0.0479
60760W        W 3672   0.989  15.022   9.829  0.0320 -0.0348  0.0788
60761W        W 3673   0.564  16.957   9.754 -0.1412 -0.0387 -0.4240
60762W        W 3674  34.045  15.549   8.774  0.3021  0.2132  0.0117
60763W        W 3675  34.572  17.918   8.622 -0.0540 -0.0257 -0.0077
60764W        W 3676   0.880  17.913   8.250  0.1971 -0.0785  0.3473
60765W        W 3677   3.856  16.771   8.510  0.0666 -0.1768  0.0393
60766W        W 3678  34.368  16.794   5.945 -0.3923 -0.1479 -0.0497
60767W        W 3679   6.028  16.829   9.379 -0.0114 -0.2579 -0.0540
60768W        W 3680   1.467  16.573   8.215  0.4084  0.0415 -0.0014
60769W        W 3681   1.440  17.431   8.343  0.0067  0.0554 -0.1475
60770W        W 3682   2.405  16.528   8.781 -0.0536  0.2309  0.0157
60771W        W 3683   0.052  17.623   9.334  0.3464  0.3845 -0.0466
60772W        W 3684   0.740  17.259   8.915 -0.1352 -0.0143  0.1691
60773W        W 3685   1.901  16.477   8.623  0.1508  0.2388 -0.3251
60774W        W 3686   1.957  14.841   6.339  0.0535  0.1196  0.2847
60775W        W 3687   2.704  14.574   7.395 -0.0434 -0.1887  0.4521
60776W        W 3688   1.599  14.663  10.036 -0.0786  0.0055 -0.2827
60777W        W 3689   1.891  19.503   9.264  0.1391 -0.1840  0.0920
60778W        W 3690   1.408  14.389   9.577 -0.1534 -0.2849 -0.0669
60779W        W 3691   0.286  16.074   8.407 -0.0851  0.0726 -0.0484
60780W        W 3692   1.906  14.378   9.704 -0.3356  0.3721 -0.1989
60781W        W 3693   1.175  16.948   9.015 -0.0385 -0.4200  0.1681
60782W        W 3694   0.219  15.430   7.669  0.0493  0.1456  0.2136
60783W        W 3695   3.246  16.661   9.261 -0.7009  0.2389  0.1036
60784W        W 3696   3.991  16.537   9.832 -0.1080 -0.4363  0.1221
60785W        W 3697   1.204  17.067   8.117  0.1784  0.0096  0.1098
60786W        W 3698   0.677  15.499   7.520  0.0445 -0.3701 -0.0084
60787W        W 3699   1.474  13.790   8.475  0.0086  0.2014  0.0695
60788W        W 3700   2.178  15.089   8.581  0.7124 -0.3842 -0.0416
60789W        W 3701   0.841  17.471   9.384  0.0620  0.4482 -0.2162
60790W        W 3702   2.774  16.786   9.125  0.0172 -0.4180 -0.1773
60791W        W 3703   2.791  16.267   8.540  0.2574  0.2018  0.1973
60792W        W 3704   2.216  13.449   9.485 -0.0595 -0.1622  0.0255
60793W        W 3705   3.598  17.786   9.506  0.2928 -0.0862  0.5153
60794W        W 3706   0.932  16.242   6.579 -0.1056 -0.0544  0.0864
60795W        W 3707   1.928  16.643   6.465  0.2171 -0.0573  0.2030
60796W        W 3708   5.070  15.906   9.406 -0.2760 -0.0615 -0.0375
60797W        W 3709   2.918  14.751   6.206  0.1595 -0.0708 -0.0113
60798W        W 3710  34.406  16.757  10.105 -0.3130  0.1702 -0.0773
60799W        W 3711   0.848  17.559   8.549  0.0781  0.0016 -0.2250
60800W        W 3712   0.121  15.362   8.601 -0.0633  0.2110  0.0463
60801W        W 3713   1.772  17.446   7.851 -0.3153  0.5429  0.1455
60802W        W 3714  33.849  15.714  10.725  0.0053  0.3310  0.0849
60803W        W 3715   1.023  18.347   8.526 -0.0843  0.0324 -0.1377
60804W        W 3716   1.660  14.522   8.174  0.0534 -0.0925  0.0703
60805W        W 3717   0.903  12.099   9.528 -0.1802 -0.0539 -0.0371
60806W        W 3718  33.634  16.058   9.403  0.6161 -0.1783  0.2808
60807W        W 3719   4.381  17.226   7.671  0.0889 -0.1776 -0.1805
60808W        W 3720   2.662  16.728   7.232  0.3146  0.1094 -0.0972
60809W        W 3721   3.776  17.020   6.166  0.0230 -0.1026  0.0033
60810W        W 3722   1.084  14.374   9.093  0.0150  0.0344 -0.0714
60811W        W 3723  34.599  16.102   8.043 -0.1496 -0.0883  0.0102
60812W        W 3724  34.103  14.673   8.724  0.0594 -0.1549  0.0608
60813W        W 3725  34.679  15.145   8.005 -0.1798 -0.1690 -0.3210
60814W        W 3726   1.397  15.968   6.509 -0.2460  0.0696  0.1170
60815W        W 3727   0.511  16.355   8.098  0.2242 -0.1407 -0.0873
60816W        W 3728  33.700  16.043   8.494  0.1504 -0.0627 -0.0672
60817W        W 3729   1.848  18.530   9.253  0.1433  0.3571  0.2841
60818W        W 3730   4.039  18.678   9.600  0.0181 -0.0802 -0.2306
60819W        W 3731   3.267  17.641   9.158  0.1987  0.1226 -0.0940
60820W        W 3732   1.533  14.892   9.638  0.4261 -0.2342  0.0332
60821W        W 3733   0.667  14.724   8.323  0.0945  0.0154  0.0447
60822W        W 3734  34.350  16.018   9.489 -0.2237 -0.0512  0.0406
60823W        W 3735   1.321  17.398   8.853 -0.3074  0.1100  0.3968
60824W        W 3736   1.177  14.072   7.507 -0.2810 -0.0313  0.2311
60825W        W 3737   5.129  18.401   8.824  0.0020  0.0984 -0.0075
60826W        W 3738   2.373  16.414   7.637 -0.2481  0.0619  0.0673
60827W        W 3739   3.106  15.209   9.955  0.1068  0.0775  0.0028
60828W        W 3740   1.682  17.006   9.481  0.0621 -0.0631 -0.2318
60829W        W 3741  34.660  14.258   7.102  0.2224  0.1046  0.4592
60830W        W 3742   2.303  17.643   9.086 -0.1670 -0.1649 -0.0624
60831W        W 3743   0.224  17.507   8.845 -0.0812 -0.1020  0.2021
60832W        W 3744   1.086  15.697   9.233  0.3138 -0.1199 -0.0938
60833W        W 3745   2.638  17.158   9.544  0.0437 -0.3352 -0.0683
60834W        W 3746   2.441  13.780   9.148  0.1982  0.1980 -0.0136
60835W        W 3747  34.487  15.315   6.846  0.3206 -0.0855 -0.3306
60836W        W 3748   1.832  15.885   8.664  0.2086  0.1407 -0.2325
60837W        W 3749   3.142  14.865   7.294 -0.0569 -0.0960 -0.1033
60838W        W 3750   2.255  16.567   9.254  0.1019  0.1995  0.1680
60839W        W 3751   2.470  15.836   7.693  0.0705 -0.1447 -0.2649
60840W        W 3752   1.991  13.455   7.251 -0.1052  0.1051 -0.1006
60841W        W 3753   3.884  18.047   8.664  0.0677  0.0207  0.1960
60842W        W 3754   1.398  16.434   8.707 -0.3108 -0.1443  0.1231
60843W        W 3755   1.745  15.719   7.592  0.1343 -0.0235  0.2254
60844W        W 3756   4.247  17.080   8.393  0.2942 -0.2459 -0.1510
60845W        W 3757  33.193  17.463   9.891 -0.1282  0.0141  0.2763
60846W        W 3758   1.434  16.423   9.332  0.1546  0.2659  0.1036
60847W        W 3759   1.430  13.578  10.117  0.2355  0.1774 -0.0691
60848W        W 3760   0.991  15.826   6.778  0.0744  0.0841  0.1877
60849W        W 3761   2.702  15.553  10.048  0.1612  0.3212  0.0750
60850W        W 3762   0.030  18.262   7.647 -0.0645 -0.0674 -0.1472
60851W        W 3763   2.643  15.821   8.186  0.0920 -0.1970 -0.0180
60852W        W 3764   2.330  14.772   8.996 -0.1373  0.0746 -0.1630
60853W        W 3765   1.880  15.609   8.105 -0.2144 -0.2665 -0.1488
60854W        W 3766   3.030  16.313  10.005 -0.0660  0.0421 -0.1295
60855W        W 3767   0.307  16.691   6.653  0.1219 -0.2803  0.0430
60856W        W 3768   0.191  16.718  10.040  0.0950  0.7187 -0.3002
60857W        W 3769   1.409  18.387   9.521  0.0231  0.1695  0.2269
60858W        W 3770   1.689  16.703   7.720  0.2883  0.2341  0.1178
60859W        W 3771   1.390  15.175   8.769  0.0647  0.0053 -0.2469
60860W        W 3772   1.837  17.604   7.066 -0.1882  0.1098 -0.1670
60861W        W 3773   1.745  17.032   8.196 -0.1512  0.2399 -0.1453
60862W        W 3774  34.307  14.934   9.544 -0.0793 -0.0630 -0.0855
60863W        W 3775   4.803  16.617  10.129  0.1691 -0.0987  0.0293
60864W        W 3776   1.878  17.449   6.589  0.0014  0.3116  0.1774
60865W        W 3777   3.839  15.282   9.335  0.2807  0.0240 -0.0869
60866W        W 3778   0.387  17.250   9.345  0.3850 -0.0977 -0.2030
60867W        W 3779   4.026  13.747   8.963 -0.0494  0.4810 -0.0973
60868W        W 3780  34.010  16.464   9.287  0.3451 -0.0079  0.1801
60869W        W 3781   0.743  14.577   7.434  0.1136  0.0825  0.0512
60870W        W 3782  34.527  16.343   7.414  0.2673  0.1893 -0.1754
60871W        W 3783   2.536  14.726   8.525 -0.0981  0.1388  0.1622
60872W        W 3784   3.228  17.485   8.110  0.1156  0.1390 -0.4160
60873W        W 3785  33.059  14.996  10.157 -0.2658  0.2732 -0.0127
60874W        W 3786   1.804  15.036   8.132  0.1203 -0.2691 -0.4581
60875W        W 3787  34.137  16.917   9.118  0.0047  0.2349  0.3047
60876W        W 3788   1.768  14.448   7.333 -0.2795 -0.1630  0.2480
60877W        W 3789  34.081  13.928   8.028  0.2076  0.1495 -0.2642
60878W        W 3790   5.089  13.970   8.734  0.3283 -0.0355 -0.3195
60879W        W 3791  34.524  15.733   8.581  0.0287 -0.1950  0.1217
60880W        W 3792  34.085  17.724   8.437  0.0327 -0.1671  0.0010
60881W        W 3793   0.694  17.979   9.733 -0.0027 -0.1791 -0.2027
60882W        W 3794  33.990  15.468   7.012  0.0206 -0.1947 -0.0909
60883W        W 3795   0.824  16.549   8.838 -0.2122 -0.2865  0.0780
60884W        W 3796   2.820  16.815   9.922  0.0518 -0.2480 -0.0811
60885W        W 3797   0.608  15.698   8.580 -0.0372 -0.0958  0.4100
60886W        W 3798   0.934  15.358   8.935  0.2878 -0.1332 -0.2489
60887W        W 3799   1.019  16.072   8.674 -0.1451 -0.1989 -0.1817
60888W        W 3800   2.661  16.498   9.528  0.1748 -0.3658 -0.0412
60889W        W 3801   2.660  15.695   9.211 -0.1408  0.0746  0.3910
60890W        W 3802   2.009  13.935   9.447  0.0529  0.3330 -0.0301
60891W        W 3803   4.326  19.216   8.269 -0.0407 -0.1471  0.3624
60892W        W 3804   0.452  15.774   7.979 -0.2840 -0.2626  0.0532
60893W        W 3805   1.269  15.276   9.300  0.2298  0.0581 -0.1155
60894W        W 3806   0.300  16.402   8.881 -0.0053 -0.0854  0.1412
60895W        W 3807   0.191  16.773   9.487  0.1826  0.2359  0.0660
60896W        W 3808   1.012  16.207   9.172 -0.2621  0.1740  0.0384
60897W        W 3809   1.048  16.445   7.848  0.0053 -0.0027  0.2479
60898W        W 3810   0.770  19.185   9.532 -0.2074 -0.3326  0.0061
60899W        W 3811   3.282  14.286   7.452 -0.0785 -0.0240  0.4615
60900W        W 3812   2.707  17.538   7.954 -0.0471 -0.1164 -0.1184
60901W        W 3813   1.974  15.267   9.413 -0.3225 -0.0313 -0.1945
60902W        W 3814   2.782  15.571   8.634 -0.0538 -0.2191 -0.0569
60903W        W 3815  33.748  15.303  10.312 -0.2044  0.1417  0.0606
60904W        W 3816   1.100  17.047   9.500  0.0431  0.1826 -0.1130
60905W        W 3817   1.165  14.715   8.416 -0.2172  0.1151  0.3486
60906W        W 3818   1.383  15.355   8.167 -0.0960 -0.1022  0.3026
60907W        W 3819   0.671  15.880   9.028 -0.1842 -0.1649 -0.0554
60908W        W 3820   3.346  18.293   9.917  0.3402  0.1801 -0.1782
60909W        W 3821   2.144  16.929   8.557  0.3091 -0.1260 -0.1539
60910W        W 3822   1.468  15.142  10.050  0.1703  0.0378 -0.0579
60911W        W 3823   0.403  15.433   9.102  0.0687 -0.0294  0.0517
60912W        W 3824   2.226  17.528   7.494  0.0031 -0.0828  0.0139
60913W        W 3825   2.908  16.371   7.557  0.0560  0.0114  0.1271
60914W        W 3826   0.937  16.564   8.352 -0.2387 -0.1086  0.2488
60915W        W 3827   2.274  15.538   8.492  0.1113 -0.1207  0.0904
60916W        W 3828   1.648  16.550   9.816  0.1319 -0.1891 -0.0818
60917W        W 3829   2.892  18.294   9.629  0.1355  0.0385 -0.0009
60918W        W 3830   2.698  15.575   6.883 -0.1981  0.1517  0.0014
60919W        W 3831   3.188  15.760   9.955 -0.0762 -0.0127  0.0247
60920W        W 3832   2.428  14.981   7.603  0.1584  0.0928  0.0997
60921W        W 3833   0.933  15.524   8.084  0.2992  0.4244  0.5008
60922W        W 3834   0.572  15.378   9.903 -0.0662 -0.1754 -0.2193
60923W        W 3835   1.247  15.583   7.207  0.1366  0.3323 -0.0810
60924W        W 3836   1.904  17.390   8.472  0.0100  0.1605  0.3338
60925W        W 3837   0.770  15.230   9.438 -0.3631 -0.0251 -0.1238
60926W        W 3838   1.983  15.229   7.724 -0.1010 -0.0840 -0.3392
60927W        W 3839   0.451  15.266   8.173  0.0967 -0.1279  0.1655
60928W        W 3840   0.657  14.131   6.754  0.0575 -0.2293  0.1058
60929W        W 3841   1.605  16.235   7.791  0.0977 -0.3388  0.2528
60930W        W 3842   4.893  16.334   9.664  0.2155  0.1551  0.0645
60931W        W 3843   0.665  14.128   7.680 -0.2841  0.3138  0.3615
60932W        W 3844   2.577  17.783   8.439 -0.2116 -0.3617  0.2005
60933W        W 3845   2.088  14.445   8.706  0.1111 -0.3555  0.1852
60934W        W 3846   4.673  17.027   9.320  0.0209  0.1328  0.0323
60935W        W 3847   1.806  16.697   9.102 -0.0819 -0.0031  0.1014
60936W        W 3848   1.779  15.403   8.541 -0.1188 -0.0860  0.0399
60937W        W 3849   4.046  16.841   9.354 -0.0007  0.0849  0.1571
60938W        W 3850   1.511  16.919   8.571  0.4227  0.1022 -0.1481
60939W        W 3851   1.124  16.471   9.758 -0.0403  0.1387 -0.1659
60940W        W 3852   3.065  16.699   8.276 -0.1820  0.0520  0.0969
60941W        W 3853   1.015  18.819   8.635 -0.3276  0.0345  0.0992
60942W        W 3854   1.272  16.025   7.468  0.0223 -0.1926 -0.0063
60943W        W 3855   0.374  14.365   8.508 -0.0379 -0.0904 -0.3584
60944W        W 3856   0.727  16.664   9.324  0.2740  0.1982  0.2064
60945W        W 3857  34.273  16.169   8.400 -0.1665 -0.0449  0.2291
60946W        W 3858   0.225  18.262   8.503  0.0428 -0.1516 -0.1578
60947W        W 3859   3.147  17.120   9.489 -0.2035 -0.2750 -0.0784
60948W        W 3860   2.690  16.881   8.640  0.1742  0.0381 -0.1080
60949W        W 3861   3.976  17.452  10.020  0.1874  0.1033  0.0551
60950W        W 3862   0.758  15.680   5.830 -0.0434  0.2202  0.2083
60951W        W 3863   1.532  17.842   9.959  0.1346  0.2593 -0.1006
60952W        W 3864  33.685  16.761   7.435  0.1880 -0.0540  0.2033
60953W        W 3865   3.154  17.072   7.816 -0.1108  0.0160 -0.0919
60954W        W 3866   0.507  17.834   9.230 -0.0401  0.2487  0.0117
60955W        W 3867   2.128  14.651   8.238 -0.0527  0.3434  0.2423
60956W        W 3868   3.184  16.233   9.532 -0.2266 -0.0651  0.4737
60957W        W 3869   3.521  14.642   8.856 -0.1102 -0.0216  0.0533
60958W        W 3870   1.685  17.358   9.882  0.2075  0.0563 -0.0012
60959W        W 3871  34.135  14.165   6.313 -0.0851  0.1443 -0.1803
60960W        W 3872   2.964  19.292   8.701 -0.0500 -0.0119 -0.0490
60961W        W 3873   1.381  15.363   7.650 -0.0869 -0.0974  0.1085
60962W        W 3874   0.318  16.941   8.972 -0.3058  0.1893 -0.0521
60963W        W 3875   1.657  13.661   8.968 -0.2800  0.2216  0.2948
60964W        W 3876   2.757  17.164   6.982 -0.0341  0.3014 -0.0467
60965W        W 3877   1.882  15.001   8.975  0.3273  0.0654 -0.2470
60966W        W 3878  34.209  17.941   8.010  0.0977 -0.2758  0.2078
60967W        W 3879   1.173  17.899   9.518  0.2521  0.0163  0.2744
60968W        W 3880   2.050  17.774   9.887 -0.1515  0.0217 -0.3514
60969W        W 3881   3.212  14.692   8.352  0.0313 -0.1921 -0.0332
60970W        W 3882   2.194  15.399   8.960  0.0942  0.1288 -0.1960
60971W        W 3883   0.067  16.194   9.333 -0.0284 -0.2102  0.1751
60972W        W 3884   1.579  15.502   9.574 -0.2568  0.1165  0.0027
60973W        W 3885   2.331  16.078   9.373 -0.0258  0.2873  0.2631
60974W        W 3886  34.422  14.129   9.079  0.2960 -0.0102 -0.2951
60975W        W 3887   2.060  16.060   7.898  0.0168 -0.0291  0.0176
60976W        W 3888   2.062  16.616   7.309  0.3892 -0.1448 -0.1881
60977W        W 3889   0.185  14.651   8.885 -0.0604 -0.0012 -0.2488
60978W        W 3890   1.688  14.980   6.747  0.1048  0.0280  0.0642
60979W        W 3891  34.001  16.023   8.969 -0.0248  0.0013 -0.2437
60980W        W 3892   0.165  13.710  10.044  0.0057 -0.0985  0.0362
60981W        W 3893   0.904  15.031   7.982 -0.0711  0.0715 -0.1671
60982W        W 3894   3.593  17.215   7.159 -0.1428 -0.1497 -0.0930
60983W        W 3895   1.259  16.013   9.594 -0.0003  0.1436  0.1867
60984W        W 3896   1.927  18.454   6.467 -0.4586  0.1138 -0.3000
60985W        W 3897   2.705  16.301   8.011 -0.0549  0.0412  0.0354
60986W        W 3898   3.771  18.770   9.141  0.0046 -0.2232  0.4760
60987W        W 3899   0.418  13.837   9.151 -0.3218  0.1794  0.0446
60988W        W 3900   5.913  16.570   9.983  0.1537  0.1422 -0.5608
60989W        W 3901   3.604  18.738   9.933 -0.0367  0.2427 -0.1153
60990W        W 3902   1.251  14.549   7.416 -0.1175 -0.0806  0.1312
60991W        W 3903   1.471  16.017   8.966 -0.1454 -0.0804  0.0138
60992W        W 3904   0.343  17.751   8.395 -0.1279  0.0873  0.1738
60993W        W 3905   3.836  15.154   9.838 -0.0748 -0.0953 -0.4218
60994W        W 3906   2.324  18.148   6.432 -0.0091  0.1115 -0.1265
60995W        W 3907   5.258  17.968   9.912  0.1906  0.0085 -0.0073
60996W        W 3908   0.859  16.990   7.620  0.1214  0.2555  0.3767
60997W        W 3909   2.326  17.068   9.097 -0.0754  0.2592  0.0168
60998W        W 3910   1.456  19.157   8.743 -0.0850  0.2407  0.0374
60999W        W 3911   4.157  17.704   7.507 -0.0399  0.4347 -0.0245
61000W        W 3912   0.733  15.875   9.910 -0.1244 -0.0338 -0.1541
61001W        W 3913   3.359  18.663   8.234  0.4517  0.2895 -0.4798
61002W        W 3914   3.219  14.530   9.291 -0.0304  0.1043 -0.3473
61003W        W 3915   3.926  14.709   8.588  0.0401 -0.1945  0.1775
61004W        W 3916   2.426  15.967   8.850  0.0957 -0.0736  0.2514
61005W        W 3917   2.745  17.335   9.998 -0.0757  0.1282  0.2543
61006W        W 3918   0.093  15.556  10.041 -0.1382 -0.1489 -0.0731
61007W        W 3919   0.574  16.105   6.850 -0.5197  0.1651  0.0370
61008W        W 3920   0.424  18.514   9.711 -0.4006  0.1521 -0.0053
61009W        W 3921   0.877  15.896   7.680  0.1126  0.0959  0.0012
61010W        W 3922   0.982  15.202   8.449 -0.0645  0.0572 -0.0769
61011W        W 3923   3.637  16.886   7.560 -0.0376 -0.0626 -0.1293
61012W        W 3924  34.419  14.631   9.100  0.2449 -0.0922  0.1544
61013W        W 3925  34.150  15.105   9.031  0.0855  0.1327 -0.3542
61014W        W 3926   3.162  16.546   8.737  0.0069 -0.3060  0.0307
61015W        W 3927   4.167  19.082   7.660 -0.2814  0.2057 -0.0183
61016W        W 3928   1.299  15.690   8.535 -0.2887 -0.0165 -0.1692
61017W        W 3929  34.223  16.744   7.327 -0.2058 -0.1960 -0.2874
61018W        W 3930  34.049  14.931   7.744 -0.1824 -0.1056 -0.2027
61019W        W 3931   4.154  16.329   9.215 -0.0134  0.4595  0.0561
61020W        W 3932   2.072  18.049   9.252 -0.2200 -0.0723  0.1895
61021W        W 3933   2.687  17.915   9.314 -0.0559 -0.0614 -0.1274
61022W        W 3934   0.454  14.889   9.770 -0.5699  0.0916 -0.0167
61023W        W 3935   1.992  16.188   9.028  0.3477 -0.1849 -0.1386
61024W        W 3936   3.938  16.291   8.721  0.3135 -0.0652 -0.0426
61025W        W 3937   2.620  15.167   8.809  0.0845 -0.0020 -0.0181
61026W        W 3938   2.768  15.342   7.383  0.1505 -0.0889  0.0241
61027W        W 3939   3.557  15.896   9.612 -0.0709  0.0837 -0.1374
61028W        W 3940  34.079  14.365   8.314  0.0860  0.0184 -0.4900
61029W        W 3941   1.449  14.289   8.673  0.1104 -0.0195  0.2410
61030W        W 3942   1.467  18.239   8.263  0.1273 -0.0610 -0.1127
61031W        W 3943  34.151  11.399  10.035  0.0078 -0.3062 -0.0266
61032W        W 3944   1.341  15.837   7.988  0.1531 -0.1673  0.1418
61033W        W 3945   1.854  17.208   8.987 -0.0916  0.1354 -0.2636
61034W        W 3946  34.435  15.414   7.306  0.3179  0.2071  0.0835
61035W        W 3947   2.174  16.205   8.361  0.2378  0.1161  0.1609
61036W        W 3948   5.135  15.929   9.913 -0.0305  0.1131 -0.1027
61037W        W 3949   3.777  18.532   8.664 -0.0557  0.1665  0.1903
61038W        W 3950   3.137  15.778   9.352  0.3117 -0.2860  0.1189
61039W        W 3951   0.553  15.725   9.487  0.1400  0.0122 -0.0571
61040W        W 3952   2.427  17.353   8.588  0.0477  0.0469  0.1512
61041W        W 3953   1.020  17.024   8.547 -0.0679  0.0126 -0.1544
61042W        W 3954   1.664  15.540   9.019 -0.1749 -0.1759 -0.0804
61043W        W 3955   2.006  15.319   9.938  0.2081 -0.0588 -0.1298
61044W        W 3956   1.058  14.490   7.864 -0.2316 -0.0479 -0.0385
61045W        W 3957   1.888  18.868   8.791  0.0162 -0.0514 -0.2297
61046W        W 3958   3.862  15.952   9.212 -0.1523 -0.1126  0.0057
61047W        W 3959   3.124  20.694   2.109 -0.1378  0.0779  0.1331
61048W        W 3960   0.249  20.765   1.401  0.3090  0.2840  0.3047
61049W        W 3961   1.553  16.287  31.705  0.2667  0.1135  0.0063
61050W        W 3962   2.695  20.783   1.342 -0.0722  0.0933 -0.2897
61051W        W 3963   0.179  18.790   0.868 -0.1036  0.3104  0.2146
61052W        W 3964   2.760  22.849  31.469 -0.1392 -0.1413  0.0151
61053W        W 3965   0.853  18.695   3.394 -0.3964 -0.0808  0.1032
61054W        W 3966   3.706  21.855   0.796  0.0008  0.1484  0.1186
61055W        W 3967   3.208  22.044   2.044  0.0555 -0.1163 -0.1194
61056W        W 3968   2.764  21.405   0.400 -0.1152 -0.0452 -0.1838
61057W        W 3969   2.948  19.331   1.104 -0.0181 -0.4062 -0.0242
61058W        W 3970   0.671  21.386   1.872 -0.0350  0.0664  0.1903
61059W        W 3971   0.435  18.979   1.286 -0.1474 -0.0050 -0.0136
61060W        W 3972   0.194  18.291   1.742 -0.2011  0.2074 -0.3625
61061W        W 3973   3.943  20.107   3.411  0.0824  0.0425 -0.1247
61062W        W 3974  33.991  20.400   0.953 -0.2429 -0.0047  0.0369
61063W        W 3975   2.254  20.490   1.393  0.0026 -0.0130 -0.2878
61064W        W 3976   2.524  17.901   3.228 -0.2341  0.0963 -0.0048
61065W        W 3977   2.217  22.086   0.492 -0.2760 -0.0472  0.0557
61066W        W 3978   1.490  19.257   3.420  0.1877  0.2222  0.0118
61067W        W 3979   1.755  18.158   2.398 -0.2039  0.1427 -0.0505
61068W        W 3980   1.633  21.855   0.616 -0.2908 -0.0891  0.3244
61069W        W 3981   0.997  19.285  31.921  0.0471 -0.0010 -0.0191
61070W        W 3982   0.687  19.199   1.734 -0.2398 -0.1129  0.1094
61071W        W 3983   2.374  21.413   2.436  0.0681  0.3183 -0.1682
61072W        W 3984   2.801  19.817   1.962 -0.1973 -0.1506 -0.3257
61073W        W 3985   3.798  20.302   1.878  0.1409  0.1016  0.0091
61074W        W 3986   2.391  21.418   1.722  0.2538  0.1341 -0.1972
61075W        W 3987   2.799  22.918   1.485 -0.0271  0.1854 -0.1365
61076W        W 3988   3.345  21.268   1.502 -0.1667 -0.3129  0.1330
61077W        W 3989   1.216  20.903   1.446 -0.1539 -0.0472  0.2028
61078W        W 3990  34.385  22.780   1.578 -0.3250  0.0088 -0.1866
61079W        W 3991   0.049  21.996   0.068 -0.5121 -0.1652  0.2200
61080W        W 3992   3.660  20.094   1.029  0.0560 -0.4714 -0.1402
61081W        W 3993   2.845  21.807   1.272  0.1307  0.2697  0.2700
61082W        W 3994   0.513  21.209   1.055 -0.1919 -0.2157  0.1720
61083W        W 3995   2.765  22.821   3.013  0.1818 -0.0985  0.0914
61084W        W 3996   1.505  23.156   3.312 -0.0854  0.1565  0.0786
61085W        W 3997   2.512  20.565   2.601 -0.0463  0.3203  0.0827
61086W        W 3998   2.355  20.692   0.951  0.1529 -0.0494  0.1987
61087W        W 3999   1.224  21.739   1.073 -0.0554 -0.1704 -0.4160
61088W        W 4000   1.415  20.403   0.610 -0.0537  0.0753 -0.0181
61089W        W 4001   2.728  21.239   3.249 -0.0648  0.3724 -0.2051
61090W        W 4002   0.335  22.188   1.386 -0.0443 -0.0146 -0.1956
61091W        W 4003   3.057  19.453   2.735  0.0557 -0.2776  0.1632
61092W        W 4004   1.295  22.100   1.451  0.3976 -0.0080  0.3339
61093W        W 4005   3.303  19.575  31.140 -0.0928 -0.4222  0.0476
61094W        W 4006   1.262  19.259  31.476  0.0327  0.0036  0.1550
61095W        W 4007   2.400  18.308  31.413  0.3810  0.0954  0.1953
61096W        W 4008   1.776  16.749   2.785  0.1715  0.1235 -0.0294
61097W        W 4009   1.382  23.047   0.932  0.1184 -0.1197  0.1458
61098W        W 4010   0.947  18.920   2.828  0.1176 -0.1220 -0.2079
61099W        W 4011   4.485  21.836   3.437  0.0149  0.0887 -0.0684
61100W        W 4012   1.953  18.921   0.140 -0.0132 -0.1157  0.2405
61101W        W 4013   2.359  19.375   3.447 -0.1038  0.0294  0.0205
61102W        W 4014   0.881  22.015   2.640 -0.1209 -0.0708  0.1588
61103W        W 4015   0.631  19.076   0.796  0.0332 -0.0237  0.0213
61104W        W 4016   1.691  21.874   1.118 -0.0168  0.0098  0.0682
61105W        W 4017   3.495  20.689   2.846 -0.1944  0.0829  0.1561
61106W        W 4018   2.600  22.051   0.077  0.1369  0.1031 -0.0533
61107W        W 4019   0.190  20.471   2.370  0.1526  0.0903 -0.1082
61108W        W 4020   0.608  20.542   2.600 -0.1686 -0.0790  0.0903
61109W        W 4021   1.583  20.898   2.638 -0.4111 -0.0968 -0.2364
61110W        W 4022   0.342  18.262   0.748  0.0584 -0.0464 -0.0461
61111W        W 4023   4.232  20.141   2.134 -0.0668 -0.1242  0.4357
61112W        W 4024   1.348  20.469   3.650 -0.1553  0.4249 -0.1673
61113W        W 4025   3.070  18.389   0.164 -0.2037  0.4285 -0.0489
61114W        W 4026   3.396  21.279   1.993  0.1018  0.0314  0.0466
61115W        W 4027   2.628  22.393   1.377  0.1361  0.1368  0.0287
61116W        W 4028   1.970  20.848  30.714  0.0315  0.3822  0.3636
61117W        W 4029   2.152  19.622   2.383 -0.1746 -0.1786  0.2729
61118W        W 4030   1.973  16.916   1.726  0.0275 -0.0244 -0.1713
61119W        W 4031   0.455  22.206  31.587 -0.0248 -0.0266 -0.1473
61120W        W 4032   1.505  21.314   1.272  0.0794  0.0344  0.1140
61121W        W 4033   3.009  21.472   2.758 -0.3008  0.1191 -0.0975
61122W        W 4034   3.057  19.663   0.648 -0.1888 -0.1093 -0.2596
61123W        W 4035   1.021  21.784   1.737  0.1318  0.0309  0.2350
61124W        W 4036   1.232  20.242   1.734  0.1983  0.0896  0.2957
61125W        W 4037   1.741  21.674   3.032 -0.0554  0.0515 -0.1943
61126W        W 4038   1.061  21.907  31.415  0.1610 -0.0757  0.0343
61127W        W 4039   0.876  21.046   2.240  0.0361  0.0731 -0.0345
61128W        W 4040   0.252  22.536   0.777 -0.1269  0.3767 -0.1651
61129W        W 4041  34.258  19.246   3.030 -0.2255  0.0351 -0.2779
61130W        W 4042   1.007  21.381   1.376 -0.0465  0.2079 -0.0204
61131W        W 4043   2.707  18.663  31.869 -0.1473 -0.1943  0.1680
61132W        W 4044   0.131  19.247   3.269  0.0938 -0.3518 -0.1378
61133W        W 4045   2.827  18.504   1.069  0.1388  0.5244 -0.1245
61134W        W 4046  34.385  20.483   1.659  0.0111  0.1203  0.1238
61135W        W 4047   2.539  22.764   0.849 -0.1688 -0.1282 -0.2152
61136W        W 4048   3.348  19.305   0.803  0.2844  0.3384  0.0185
61137W        W 4049   2.028  22.019   0.048  0.1138  0.2319 -0.0014
61138W        W 4050   0.578  19.370   2.552 -0.0602  0.0487 -0.1146
61139W        W 4051   0.854  20.295   2.232 -0.1412 -0.3949 -0.1162
61140W        W 4052   0.210  17.449   2.682 -0.1744  0.4756  0.0115
61141W        W 4053   0.998  19.236   2.293  0.0627  0.1728 -0.1229
61142W        W 4054   2.697  20.291   1.227  0.0613  0.3566 -0.0976
61143W        W 4055   0.483  18.618   0.357 -0.0925 -0.2764 -0.0611
61144W        W 4056   2.613  20.733   1.941 -0.1752  0.1840  0.2897
61145W        W 4057   2.165  20.100   1.083  0.0630 -0.2016  0.0367
61146W        W 4058   1.132  21.250   0.879  0.0813 -0.0739  0.1178
61147W        W 4059   2.815  16.798   3.023  0.2599  0.0838 -0.0464
61148W        W 4060   2.266  22.908  31.627 -0.1258  0.0631 -0.2166
61149W        W 4061   3.970  22.211   2.368 -0.0639  0.0384 -0.0123
61150W        W 4062   3.794  22.856   1.432 -0.0941  0.0978 -0.1430
61151W        W 4063   0.349  18.782   3.311  0.0043  0.2864  0.0411
61152W        W 4064  34.100  19.876   0.617 -0.0553 -0.2677 -0.1737
61153W        W 4065  33.718  24.146   1.164  0.0804 -0.1472  0.3828
61154W        W 4066   2.808  20.881   0.402  0.0381  0.0628 -0.0139
61155W        W 4067  33.990  19.266   0.352  0.1060 -0.1090 -0.0349
61156W        W 4068   2.433  21.788   2.732 -0.0082  0.2295 -0.1680
61157W        W 4069   2.056  19.118   1.051  0.0041  0.1481  0.1616
61158W        W 4070   0.157  21.191   1.670 -0.1025  0.0076  0.0565
61159W        W 4071   2.592  19.281   2.668 -0.4484 -0.0594  0.2686
61160W        W 4072   3.972  19.130   1.310  0.0663 -0.0325 -0.0025
61161W        W 4073   2.243  20.915   1.588  0.1582  0.1071 -0.0498
61162W        W 4074  33.442  19.366   1.216 -0.1172 -0.1688  0.0352
61163W        W 4075   2.666  22.715  31.974  0.1053  0.2968  0.1856
61164W        W 4076   1.030  22.147   0.832 -0.0562  0.1520 -0.0888
61165W        W 4077   1.625  18.873   1.821 -0.2764 -0.1998  0.1374
61166W        W 4078   3.076  21.009   2.945  0.0714 -0.1282 -0.0021
61167W        W 4079   2.266  19.674   1.918  0.0721  0.1096  0.0552
61168W        W 4080   0.217  20.829   3.376 -0.0154  0.2058  0.1541
61169W        W 4081   3.640  19.764   3.241  0.0988  0.0582 -0.0230
61170W        W 4082   0.066  19.674  31.313  0.1273 -0.1511  0.2776
61171W        W 4083   1.476  21.274   3.014 -0.0522  0.1735  0.3092
61172W        W 4084   1.727  20.157   1.828 -0.1004  0.2949  0.2043
61173W        W 4085   2.516  19.549   0.902 -0.0306 -0.4332 -0.1099
61174W        W 4086   2.288  21.018   2.151  0.3972 -0.0945 -0.1970
61175W        W 4087   0.396  20.607   1.866  0.2412  0.0500  0.0306
61176W        W 4088   2.212  18.622  31.754 -0.0188  0.1341  0.1676
61177W        W 4089   1.566  17.811  29.826  0.0318 -0.2130 -0.1531
61178W        W 4090  34.663  21.102   2.946 -0.4192  0.1777  0.0295
61179W        W 4091   1.949  23.132   1.215 -0.0038  0.1384  0.0692
61180W        W 4092   1.773  22.286   1.362 -0.2393 -0.0325  0.1920
61181W        W 4093   1.913  18.147  30.900 -0.1009 -0.1852 -0.0146
61182W        W 4094   2.730  21.948   0.552  0.2146  0.1909  0.0162
61183W        W 4095   1.489  20.675   1.876 -0.0780  0.0953  0.0033
61184W        W 4096   1.714  20.436   3.352 -0.1188  0.0657 -0.0723
61185W        W 4097   3.397  22.977   1.852  0.0470  0.0672 -0.1723
61186W        W 4098   3.174  19.893   2.430 -0.0731 -0.0843 -0.1411
61187W        W 4099   1.913  20.516   0.767  0.1151  0.2721 -0.0827
61188W        W 4100   1.688  19.403   1.437  0.2211  0.4141 -0.0887
61189W        W 4101  34.578  21.611   0.387 -0.4974 -0.2420  0.0900
61190W        W 4102   3.530  19.158   2.719 -0.1513  0.2557 -0.3201
61191W        W 4103   2.244  19.549   3.031  0.1937  0.4323 -0.1872
61192W        W 4104   1.467  20.000   4.495 -0.1117  0.1160  0.0273
61193W        W 4105   2.738  20.359   4.274 -0.1225  0.0020  0.2814
61194W        W 4106   2.237  19.190   0.588  0.1215 -0.0344 -0.0063
61195W        W 4107   2.963  21.014   1.749 -0.2168  0.2738 -0.2021
61196W        W 4108   0.838  20.118   0.444 -0.2128 -0.0157  0.1974
61197W        W 4109   1.687  19.632   1.990 -0.0020 -0.1309 -0.0909
61198W        W 4110   1.738  20.944   2.191 -0.1312 -0.0144 -0.1993
61199W        W 4111   0.875  21.428   2.696  0.0672 -0.0281 -0.0273
61200W        W 4112   2.621  20.232   2.974 -0.1325  0.0352 -0.2596
61201W        W 4113   1.931  20.933   1.101 -0.0764  0.0242  0.2980
61202W        W 4114   2.276  18.240   3.487  0.0707 -0.1026  0.2278
61203W        W 4115   2.163  19.722   0.598 -0.0374  0.1602  0.0736
61204W        W 4116   0.828  22.117   1.287 -0.1723  0.1141 -0.1597
61205W        W 4117   1.454  20.800   1.033 -0.1263  0.0040  0.3403
61206W        W 4118   1.434  18.604   2.192 -0.3395 -0.0932 -0.0229
61207W        W 4119   2.536  22.683   1.947  0.0010 -0.1200  0.4273
61208W        W 4120   1.392  21.762  30.761  0.4819 -0.1168 -0.2235
61209W        W 4121   2.511  20.402   3.438  0.0399  0.1612 -0.3606
61210W        W 4122   0.179  21.992   0.565  0.0154 -0.1868 -0.0210
61211W        W 4123   2.587  19.106   1.767 -0.2269  0.1030 -0.1784
61212W        W 4124   0.064  23.175   1.546  0.0061 -0.0658 -0.1435
61213W        W 4125   2.358  20.137   2.229  0.0882 -0.1316  0.0099
61214W        W 4126  34.331  20.906   1.285  0.1986  0.0014  0.3021
61215W        W 4127   2.096  19.209   2.656 -0.2637 -0.0058 -0.0914
61216W        W 4128   1.836  20.208   0.277 -0.1140 -0.3517 -0.1693
61217W        W 4129   0.081  18.867   3.788  0.1880  0.1055  0.1583
61218W        W 4130   1.635  18.688   2.678 -0.1628  0.3372 -0.1133
61219W        W 4131   0.612  22.549   1.105  0.2646 -0.0427  0.0266
61220W        W 4132   1.504  20.046   3.838  0.3236 -0.0338  0.1532
61221W        W 4133   1.723  19.474  31.583 -0.1092 -0.0977 -0.2054
61222W        W 4134   0.413  22.230   2.294  0.0076  0.2067  0.0769
61223W        W 4135   1.218  20.333   4.213 -0.0286 -0.1707  0.0449
61224W        W 4136  34.617  19.871  31.730  0.0523 -0.2698  0.1120
61225W        W 4137   3.783  21.536   3.152 -0.0999 -0.0661  0.2107
61226W        W 4138   1.460  19.081   2.297 -0.0330 -0.2560  0.0940
61227W        W 4139   1.495  22.489   1.895 -0.0350  0.4387  0.1766
61228W        W 4140   1.785  22.763   1.486 -0.1315 -0.1257  0.1093
61229W        W 4141  34.202  20.387   0.370 -0.1455 -0.2340  0.0113
61230W        W 4142   0.769  21.566   0.815  0.1654  0.0374  0.1436
61231W        W 4143   0.331  19.427   1.408 -0.1444 -0.1488 -0.2916
61232W        W 4144   3.977  20.915   2.656 -0.1303  0.2049 -0.1514
61233W        W 4145   0.892  19.636   1.830 -0.0754  0.0470  0.0709
61234W        W 4146   1.508  19.167   0.969 -0.3618  0.1226  0.0634
61235W        W 4147   0.942  19.424   0.808  0.0851  0.3348 -0.0574
61236W        W 4148   2.758  21.686   2.204  0.5150  0.2158  0.0706
61237W        W 4149   1.856  20.472   2.449 -0.0146  0.0274  0.0065
61238W        W 4150   0.560  20.872   3.008 -0.3508 -0.1293 -0.2528
61239W        W 4151   1.961  18.296   2.837  0.4702  0.0434  0.1998
61240W        W 4152   4.320  22.010  30.730 -0.2206  0.1696 -0.0390
61241W        W 4153   0.885  20.248   3.145  0.2426  0.1358 -0.1491
61242W        W 4154   1.314  20.079   0.148  0.1097  0.1768  0.0649
61243W        W 4155   1.013  19.428   2.831 -0.1709 -0.1519  0.0159
61244W        W 4156  34.026  21.398   1.074 -0.2105 -0.0058 -0.3388
61245W        W 4157   0.611  20.128   1.779  0.2008  0.3996  0.0010
61246W        W 4158   0.933  22.546   1.555 -0.3720 -0.0807 -0.1421
61247W        W 4159   0.620  20.981   0.618  0.3500 -0.0405  0.0148
61248W        W 4160   3.773  21.173   2.243 -0.3026 -0.0705 -0.0737
61249W        W 4161   2.778  18.604  31.010 -0.0235  0.0319  0.1841
61250W        W 4162   2.959  22.361   1.001  0.2752  0.1326  0.0340
61251W        W 4163   1.995  19.255   1.919 -0.1417 -0.3126  0.0062
61252W        W 4164   2.803  18.969   3.451  0.0343  0.0799  0.0458
61253W        W 4165   1.661  20.554   1.431 -0.0752 -0.1599 -0.1253
61254W        W 4166   2.498  18.266   2.860 -0.1037 -0.0492  0.2153
61255W        W 4167   0.569  17.351   2.112 -0.1601  0.0407 -0.0081
61256W        W 4168   2.845  22.882   0.469 -0.2353 -0.1273  0.1448
61257W        W 4169  34.290  19.699   3.859  0.2238 -0.1853  0.1294
61258W        W 4170   3.252  22.516   2.589 -0.2085 -0.2257  0.0821
61259W        W 4171   1.111  19.784   4.134 -0.4552 -0.0009  0.1523
61260W        W 4172   0.834  18.199   0.541  0.0657  0.1131  0.0123
61261W        W 4173   0.879  18.413  30.942 -0.0063  0.2491  0.2200
61262W        W 4174   0.683  19.802   0.918  0.0200  0.0559  0.0052
61263W        W 4175   4.528  20.531   1.713  0.1710 -0.2542 -0.1390
61264W        W 4176   2.142  21.759   0.853 -0.2940  0.0089  0.1420
61265W        W 4177   3.257  18.084   1.919  0.2284 -0.1695  0.0268
61266W        W 4178   1.505  22.363   0.756  0.1235  0.0717 -0.4950
61267W        W 4179   2.862  19.850   1.149  0.0478 -0.2000  0.2067
61268W        W 4180   0.912  20.123  31.037  0.0249 -0.0366 -0.3102
61269W        W 4181  34.392  19.975   1.364 -0.0773  0.1745  0.0996
61270W        W 4182   0.962  19.389   3.933 -0.1143 -0.0174 -0.2140
61271W        W 4183   3.225  20.808   1.169  0.2002  0.2675  0.0769
61272W        W 4184   2.733  18.879   2.197 -0.3591  0.0264 -0.0158
61273W        W 4185   3.001  20.035   1.576 -0.1505 -0.2115 -0.2996
61274W        W 4186   1.883  20.014   2.315 -0.1906  0.1574 -0.1210
61275W        W 4187   1.578  20.105   2.712  0.2941 -0.1021  0.0693
61276W        W 4188  34.086  19.681   3.221 -0.2269 -0.0503  0.1356
61277W        W 4189   3.870  23.116   3.506 -0.2492 -0.2107 -0.3129
61278W        W 4190   1.531  18.065   1.409  0.0078  0.0407 -0.2688
61279W        W 4191   3.072  18.229   4.535 -0.1089  0.3509  0.0966
61280W        W 4192   3.954  20.879   1.752 -0.1930  0.0157 -0.2511
61281W        W 4193   2.581  20.025   0.736  0.2253  0.2370 -0.2789
61282W        W 4194   0.821  19.714   3.185  0.1661  0.0407 -0.2573
61283W        W 4195   2.374  19.901   3.377 -0.1246 -0.3317  0.0488
61284W        W 4196   0.971  19.626   0.286 -0.1257  0.2201  0.0490
61285W        W 4197   3.156  20.031   2.919  0.1614  0.3287  0.3317
61286W        W 4198   1.759  22.967  31.421 -0.1753  0.1184  0.2386
61287W        W 4199   1.508  21.625   1.664 -0.0855  0.0169  0.1386
61288W        W 4200   2.624  18.762   0.634  0.0661  0.1327  0.0990
61289W        W 4201  34.496  19.710   2.911  0.1522 -0.0010  0.1028
61290W        W 4202   0.422  21.690   4.876  0.4038 -0.1725 -0.1493
61291W        W 4203  34.484  17.474   0.368  0.3781  0.5833 -0.2519
61292W        W 4204   1.762  20.040   0.739 -0.0408 -0.0471  0.1782
61293W        W 4205   1.824  22.684   2.764 -0.1546 -0.1557  0.1440
61294W        W 4206   3.386  20.325   2.542  0.1691 -0.2392 -0.0970
61295W        W 4207   2.240  18.651   0.985 -0.1288  0.0362 -0.0638
61296W        W 4208   3.629  20.181   3.019 -0.0707 -0.1106 -0.0103
61297W        W 4209  34.400  21.178   0.652 -0.1234  0.2865 -0.2432
61298W        W 4210   2.568  18.982   3.043  0.1984 -0.0816  0.1183
61299W        W 4211   0.585  21.652   1.311  0.0629  0.2099 -0.0380
61300W        W 4212   0.955  20.684   1.827  0.2346 -0.1105  0.0144
61301W        W 4213   1.305  21.176   1.908 -0.0743 -0.1311  0.0851
61302W        W 4214   2.891  19.416   2.262  0.0206 -0.0670 -0.3819
61303W        W 4215   1.534  20.037   1.171 -0.2214 -0.1309  0.1221
61304W        W 4216   3.474  20.708   4.636  0.0368 -0.3084 -0.2485
61305W        W 4217   2.595  21.121   2.787  0.3025 -0.0199 -0.1550
61306W        W 4218   1.744  21.036   1.595  0.1605 -0.0867  0.1190
61307W        W 4219   1.467  21.694   2.185  0.2274 -0.0282  0.1340
61308W        W 4220   3.337  19.743   1.035 -0.1045 -0.1246 -0.3841
61309W        W 4221   0.906  20.884   1.072 -0.1598 -0.3052  0.2154
61310W        W 4222  34.307  18.652   3.946 -0.0474 -0.1239  0.2566
61311W        W 4223   2.272  20.016   2.730  0.0694 -0.0393 -0.0996
61312W        W 4224   1.966  20.600   1.871  0.0923  0.0613 -0.0782
61313W        W 4225   2.414  19.250   2.218  0.0339 -0.1301  0.0478
61314W        W 4226   2.165  21.844   1.855  0.0392 -0.0904  0.0366
61315W        W 4227   1.360  22.576   3.189 -0.1416 -0.2673 -0.0171
61316W        W 4228   0.375  21.273   3.294  0.0218 -0.2686 -0.1933
61317W        W 4229   0.665  22.384   0.598  0.2783  0.1089  0.2413
61318W        W 4230   4.366  20.396   0.267  0.1894  0.1065 -0.0200
61319W        W 4231   2.007  22.266   0.893  0.0065 -0.0383 -0.0114
61320W        W 4232   5.090  22.490   0.607 -0.0931  0.3308 -0.1852
61321W        W 4233   1.194  18.090   1.009  0.1639 -0.3951  0.1129
61322W        W 4234   0.748  21.840   2.215  0.1708 -0.2624 -0.1905
61323W        W 4235  33.029  20.720   0.819 -0.2010 -0.1307  0.1069
61324W        W 4236   2.653  21.526   0.900  0.1664  0.1686 -0.1895
61325W        W 4237   1.987  20.698   0.095 -0.2294 -0.0599 -0.2944
61326W        W 4238   3.513  21.577   2.711 -0.0260  0.2089  0.1387
61327W        W 4239   2.051  18.421   1.452 -0.0418  0.1346  0.5082
61328W        W 4240   3.672  19.959   2.295 -0.1735 -0.0650  0.3478
61329W        W 4241   2.494  20.129   1.673  0.0957 -0.0189  0.0435
61330W        W 4242   3.501  22.535   2.124  0.0919  0.1117 -0.0256
61331W        W 4243   1.800  19.632   2.740 -0.0217  0.3200 -0.2142
61332W        W 4244   0.246  20.242   1.059 -0.2066  0.0855  0.2096
61333W        W 4245   1.390  20.151   2.218 -0.0631 -0.1353 -0.0454
61334W        W 4246   3.771  18.695   4.254  0.0921 -0.1047 -0.2185
61335W        W 4247  34.385  22.072   3.148 -0.0838  0.1245  0.0751
61336W        W 4248   2.557  22.452   0.457  0.2278  0.3667  0.1756
61337W        W 4249  33.893  19.701   1.256  0.0702 -0.1698 -0.0347
61338W        W 4250   3.551  19.691   0.438 -0.2943  0.0029  0.0318
61339W        W 4251   2.871  18.589   1.833 -0.1235  0.1333  0.3263
61340W        W 4252   2.064  20.280  31.719 -0.5299 -0.0455 -0.1979
61341W        W 4253   2.788  21.094   2.292 -0.0852 -0.0842  0.0715
61342W        W 4254   1.074  22.357   2.088  0.2236 -0.0115  0.2979
61343W        W 4255  34.136  22.234   2.057 -0.0605 -0.0213 -0.0927
61344W        W 4256   2.199  22.609   1.236  0.2554  0.1579 -0.1066
61345W        W 4257   1.161  18.899   0.752 -0.0381  0.3751 -0.0078
61346W        W 4258   4.330  19.871   0.150 -0.1576  0.2003 -0.0633
61347W        W 4259   1.157  19.881   2.720  0.2106  0.2113 -0.4293
61348W        W 4260   4.228  18.407   1.446 -0.1715 -0.1093  0.3476
61349W        W 4261   0.998  20.006   1.324  0.0007 -0.1516  0.0819
61350W        W 4262   3.421  19.114   1.306 -0.3417 -0.0471  0.2213
61351W        W 4263   3.220  21.612   2.295  0.1099  0.1700 -0.1725
61352W        W 4264   1.482  19.643   3.089  0.0469 -0.1089  0.2923
61353W        W 4265   1.879  21.332   0.262 -0.2600  0.0639  0.0614
61354W        W 4266   3.061  20.897   3.438 -0.0970 -0.0082  0.0045
61355W        W 4267   1.066  20.766  31.656  0.0409  0.1376  0.1991
61356W        W 4268   3.643  22.333   2.915  0.1836 -0.0088 -0.1089
61357W        W 4269   0.553  19.232   3.041  0.1512 -0.4057 -0.0226
61358W        W 4270   1.840  18.004  31.360 -0.0523 -0.3834 -0.1416
61359W        W 4271   0.244  20.050   2.095 -0.0978  0.0663 -0.1273
61360W        W 4272   1.900  20.047   3.099 -0.0440  0.3913  0.0606
61361W        W 4273   2.532  20.912   3.633 -0.0746 -0.1514 -0.0321
61362W        W 4274   1.408  19.559   2.391  0.1179 -0.1250  0.4532
61363W        W 4275   2.572  19.925  31.272  0.0405  0.3852 -0.3023
61364W        W 4276   4.935  19.863   1.607 -0.2923  0.0367  0.0370
61365W        W 4277  34.229  23.554   0.048  0.0237 -0.1965 -0.2534
61366W        W 4278   3.776  20.060   0.162 -0.0398  0.2006  0.4251
61367W        W 4279   3.685  21.094   3.001 -0.0252  0.0005 -0.1867
61368W        W 4280   0.470  18.695   1.790 -0.1135  0.3511  0.0694
61369W        W 4281   1.803  23.288   1.686 -0.0384 -0.2965  0.0289
61370W        W 4282   3.007  22.085   2.770 -0.0262 -0.0353  0.1270
61371W        W 4283   0.873  18.887  31.197 -0.0023  0.1505  0.4121
61372W        W 4284   0.794  19.403   1.311 -0.2508  0.0667  0.1405
61373W        W 4285  34.650  21.284   1.065 -0.1334  0.2281 -0.2689
61374W        W 4286   3.894  21.089   3.606  0.0905  0.1196 -0.1646
61375W        W 4287   4.128  20.629   2.138 -0.2382  0.3187  0.1801
61376W        W 4288   0.963  21.670  30.971  0.1920 -0.1634  0.0120
61377W        W 4289   3.462  18.512   3.827  0.4152 -0.1919 -0.1683
61378W        W 4290   1.649  22.016   2.674  0.0420 -0.0235  0.0297
61379W        W 4291   2.256  22.717   3.021 -0.0000  0.0922  0.0485
61380W        W 4292   0.530  21.518   0.235  0.0508 -0.1170 -0.3194
61381W        W 4293   0.692  20.551   3.505 -0.1549 -0.1095 -0.1895
61382W        W 4294   2.286  19.505   1.404 -0.1757 -0.0232 -0.2346
61383W        W 4295   2.125  21.066   0.672 -0.0464  0.0979  0.0101
61384W        W 4296   2.862  22.259  31.743  0.1717  0.1746 -0.0184
61385W        W 4297   1.389  19.784   1.619  0.5143  0.2471  0.0539
61386W        W 4298   1.260  21.750   2.895 -0.2854  0.2135  0.3156
61387W        W 4299   1.942  19.823   1.500 -0.1982 -0.0309 -0.1680
61388W        W 4300   4.648  19.257   0.534 -0.2141 -0.3668 -0.0084
61389W        W 4301   2.236  19.481   0.120  0.2158  0.0333  0.1119
61390W        W 4302   1.767  21.359   3.390 -0.2047 -0.1088 -0.2290
61391W        W 4303  34.212  19.216  30.560 -0.0638  0.0187 -0.2702
61392W        W 4304   0.786  20.298   0.928 -0.2823 -0.0601 -0.0265
61393W        W 4305   0.519  22.004   0.924 -0.1328  0.1080  0.1244
61394W        W 4306   1.294  19.323   4.389 -0.2894  0.1005 -0.1448
61395W        W 4307   0.172  19.414   3.819  0.0555  0.1552 -0.0690
61396W        W 4308  33.926  20.321   1.990  0.0924 -0.2919 -0.2991
61397W        W 4309   0.861  18.736   1.482 -0.0047 -0.1621  0.0184
61398W        W 4310   3.042  20.549   1.644 -0.3155 -0.1332  0.0383
61399W        W 4311   0.756  18.487   2.934 -0.3589  0.2114  0.1672
61400W        W 4312  34.021  19.191   1.267 -0.1540  0.3294 -0.3497
61401W        W 4313   2.188  23.152   0.695 -0.0729  0.1874  0.1993
61402W        W 4314   1.973  21.475   1.468  0.0536  0.0031 -0.0394
61403W        W 4315   2.591  18.129  31.854 -0.1076  0.1743 -0.2675
61404W        W 4316   2.784  21.826   3.152 -0.3319  0.2262  0.1460
61405W        W 4317  33.424  21.937  31.901 -0.3006 -0.0875 -0.4631
61406W        W 4318   0.993  20.181   3.743 -0.1232  0.2125 -0.2333
61407W        W 4319   1.834  19.151   3.110 -0.0747  0.2972 -0.1153
61408W        W 4320  34.569  19.073  31.686 -0.1416 -0.2932  0.0420
61409W        W 4321   3.631  20.645   2.236 -0.1404  0.1980 -0.2755
61410W        W 4322   1.724  23.328   0.779  0.1852 -0.0181 -0.1344
61411W        W 4323   3.510  22.567  31.788  0.3206  0.1670  0.0078
61412W        W 4324   1.911  21.409   1.978 -0.2171 -0.2502  0.1223
61413W        W 4325   1.345  22.956   2.815  0.1655  0.0466  0.0432
61414W        W 4326   1.080  17.838   1.589  0.1302 -0.2890  0.0764
61415W        W 4327   2.505  20.488   0.482 -0.0099 -0.0466 -0.0858
61416W        W 4328   0.629  22.147   1.797 -0.3447 -0.1235  0.0810
61417W        W 4329   3.232  20.330   1.198  0.0866  0.0728  0.2848
61418W        W 4330   3.477  18.819   1.755  0.0046 -0.0845 -0.0203
61419W        W 4331   1.173  20.434   1.247 -0.2129 -0.1937  0.0968
61420W        W 4332   0.877  17.016   3.389 -0.5221 -0.1848 -0.0365
61421W        W 4333   1.021  21.195   3.153 -0.0466 -0.2795  0.0981
61422W        W 4334   4.027  19.987   2.823 -0.0999  0.1271  0.0592
61423W        W 4335   1.291  19.284   1.873 -0.0831 -0.1273  0.0342
61424W        W 4336   1.813  19.729   0.037  0.0662 -0.1904  0.6423
61425W        W 4337   0.556  21.265  31.731  0.0619  0.0247 -0.1012
61426W        W 4338   0.429  18.898   2.674 -0.1953 -0.5277 -0.2557
61427W        W 4339   1.339  19.233   0.451 -0.3264 -0.0479 -0.0345
61428W        W 4340   2.106  20.908   2.628 -0.1034 -0.1868 -0.3808
61429W        W 4341   2.501  22.183   0.934 -0.4461  0.0219 -0.0296
61430W        W 4342   1.456  19.170   2.811  0.2200 -0.0667 -0.1648
61431W        W 4343   1.854  19.553   0.972 -0.0424 -0.2775 -0.3299
61432W        W 4344   3.192  18.227  30.758  0.0276  0.0821 -0.2080
61433W        W 4345   1.872  22.290   2.313 -0.0448 -0.1075  0.2230
61434W        W 4346   4.197  22.080   4.628  0.0269  0.3334  0.0798
61435W        W 4347   2.170  22.376   1.749  0.0575  0.1676  0.2701
61436W        W 4348   3.913  20.404   2.553 -0.0437 -0.1927 -0.1505
61437W        W 4349   0.013  18.961   2.387 -0.0209 -0.3356 -0.0724
61438W        W 4350   0.115  20.227   1.550 -0.2870  0.1552 -0.1577
61439W        W 4351   3.286  19.861   0.023  0.2555 -0.0025  0.1464
61440W        W 4352   4.127  19.631   3.386 -0.2869  0.3646 -0.1297
61441W        W 4353   1.250  20.691   2.342 -0.1880 -0.0054  0.1183
61442W        W 4354   1.642  17.763   0.965  0.3342  0.2071 -0.2503
61443W        W 4355   1.541  24.572   2.174  0.1533 -0.0645 -0.2927
61444W        W 4356   2.815  22.434   2.292 -0.1273 -0.4459 -0.3723
61445W        W 4357   1.102  21.309   6.570  0.1879 -0.0265  0.1534
61446W        W 4358   2.184  19.235   4.192  0.0626  0.0633  0.2058
61447W        W 4359   3.107  19.018   2.484 -0.1426  0.1687 -0.1721
61448W        W 4360   1.821  20.461   4.003 -0.1136  0.1622  0.0985
61449W        W 4361   0.549  20.778   4.455 -0.1195  0.2108 -0.0942
61450W        W 4362   2.558  19.560   5.652  0.1251 -0.1538 -0.5198
61451W        W 4363  34.543  17.356   7.549  0.2597  0.1047  0.0678
61452W        W 4364   2.615  21.531   5.974 -0.0337  0.0941  0.1476
61453W        W 4365   4.911  21.401   6.555  0.1498 -0.0545  0.3435
61454W        W 4366   2.712  19.811   2.515 -0.1037  0.1300 -0.3787
61455W        W 4367   1.727  19.979   5.806 -0.0542  0.0903  0.0146
61456W        W 4368   1.024  21.775   7.417  0.0062 -0.0834 -0.0538
61457W        W 4369   0.070  16.987   3.409 -0.0982 -0.3055  0.0093
61458W        W 4370   0.595  18.542   5.620 -0.0145  0.0027 -0.0562
61459W        W 4371   3.922  18.333   6.813 -0.1311 -0.1057 -0.1375
61460W        W 4372   2.527  20.016   4.556 -0.0629  0.1743  0.1831
61461W        W 4373   0.639  18.511   6.721  0.2481  0.2683  0.2052
61462W        W 4374   2.696  19.225   4.203 -0.2837 -0.2113 -0.0169
61463W        W 4375   1.701  22.240   4.361  0.2093  0.0495  0.0629
61464W        W 4376   1.685  19.456   5.411 -0.3810 -0.0190 -0.0767
61465W        W 4377   2.121  19.165   5.514  0.3788 -0.2357 -0.1373
61466W        W 4378   2.266  21.887   3.200  0.0872  0.2853 -0.3673
61467W        W 4379   0.968  19.310   4.719 -0.2444 -0.0246  0.0716
61468W        W 4380   0.870  19.550   5.670 -0.0576 -0.1488  0.1011
61469W        W 4381   2.883  19.402   6.018 -0.0544  0.0471  0.0478
61470W        W 4382   3.258  19.546   4.103  0.1877 -0.1567  0.0862
61471W        W 4383   2.615  20.991   5.882 -0.0067  0.0773 -0.4907
61472W        W 4384   1.214  21.156   5.978 -0.2748  0.0699  0.3472
61473W        W 4385   2.094  21.770   5.194 -0.0024 -0.1330  0.0152
61474W        W 4386   2.567  18.886   7.467  0.0241  0.3501  0.2084
61475W        W 4387   2.271  21.120   5.140  0.0886  0.2328  0.1030
61476W        W 4388  33.733  21.265   4.492 -0.1554  0.2277 -0.0257
61477W        W 4389   1.563  20.865   5.004 -0.1017  0.3913  0.0066
61478W        W 4390   3.251  22.151   5.682 -0.1616 -0.1495 -0.0134
61479W        W 4391   3.503  21.623   5.667  0.0129 -0.2417  0.2125
61480W        W 4392   0.710  21.071   5.639 -0.0140  0.0394 -0.1895
61481W        W 4393   1.000  21.223   4.017 -0.0419  0.1662 -0.2523
61482W        W 4394   1.526  20.835   7.723 -0.1652 -0.0651 -0.0277
61483W        W 4395   1.700  20.464   6.706  0.0201  0.0412  0.1813
61484W        W 4396   1.937  20.423   7.560 -0.4891  0.2183 -0.0038
61485W        W 4397   3.611  19.900   5.622  0.0804  0.0033  0.1072
61486W        W 4398   0.654  21.958   4.472 -0.0313 -0.2541  0.2242
61487W        W 4399   3.259  20.223   5.703  0.0239 -0.1821  0.1180
61488W        W 4400   0.350  20.602   6.572  0.1482 -0.1330  0.0278
61489W        W 4401  34.526  20.920   4.871  0.1382  0.0869 -0.0050
61490W        W 4402   3.382  18.915   8.724 -0.3509  0.0784  0.1927
61491W        W 4403   1.723  22.244   3.141  0.0913  0.0387 -0.0338
61492W        W 4404   2.968  18.646   3.786 -0.0827 -0.0332 -0.0098
61493W        W 4405   1.871  19.678   3.456  0.3382  0.0093  0.1869
61494W        W 4406   3.223  19.037   4.044  0.0698  0.0354 -0.3822
61495W        W 4407   2.033  19.359   4.956 -0.2443  0.1053 -0.3671
61496W        W 4408   1.669  21.268   5.385 -0.0140 -0.0517 -0.1466
61497W        W 4409   1.497  20.265   4.899 -0.0885  0.1837  0.2354
61498W        W 4410   4.212  21.121   5.405 -0.0953 -0.0849  0.0169
61499W        W 4411   2.651  21.309   5.555  0.0268 -0.0338  0.2137
61500W        W 4412   2.390  19.256   6.086 -0.2810 -0.2533  0.0864
61501W        W 4413   1.749  20.544   5.841  0.0257 -0.0221  0.2421
61502W        W 4414   1.754  21.842   4.782 -0.1119  0.0615  0.0381
61503W        W 4415   2.826  21.678   3.965  0.0550  0.0186  0.0378
61504W        W 4416   4.873  20.389   4.632  0.0532 -0.1888 -0.0634
61505W        W 4417   2.995  20.664   2.665 -0.1202  0.0311  0.1363
61506W        W 4418   1.308  17.772   3.390 -0.1713  0.2943  0.0719
61507W        W 4419  33.880  21.045   7.220  0.0557  0.3078 -0.4177
61508W        W 4420   0.216  19.745   6.618 -0.0658  0.1414 -0.2565
61509W        W 4421   0.773  18.431   4.413 -0.0752 -0.2537  0.0867
61510W        W 4422   2.149  19.915   7.356 -0.1881  0.1897 -0.1087
61511W        W 4423   0.644  21.508   6.791  0.0938  0.1968  0.0224
61512W        W 4424   3.892  19.772   5.228 -0.0196  0.0702  0.2159
61513W        W 4425   1.858  21.338   4.923  0.3134 -0.1343 -0.0633
61514W        W 4426   4.009  21.556   5.439 -0.1655 -0.0800  0.1993
61515W        W 4427   2.016  20.167   3.621  0.0428 -0.0178  0.0590
61516W        W 4428   2.893  17.720   5.714  0.0800  0.4441  0.0994
61517W        W 4429   4.444  18.514   6.905 -0.0347 -0.2772  0.1505
61518W        W 4430   1.520  19.426   3.918 -0.1171  0.0240 -0.0376
61519W        W 4431   2.424  19.580   3.918 -0.2977  0.0049  0.1575
61520W        W 4432   3.585  21.457   5.204 -0.3608 -0.0088  0.0296
61521W        W 4433   3.147  20.033   3.914 -0.0494 -0.1379 -0.1822
61522W        W 4434   0.329  21.634   5.370  0.0922 -0.0828 -0.4194
61523W        W 4435   2.335  19.450   6.747 -0.2379  0.0792 -0.1176
61524W        W 4436   1.559  20.570   7.269  0.0813 -0.2294 -0.3138
61525W        W 4437   1.427  22.755   3.711 -0.1359 -0.0210 -0.0390
61526W        W 4438   1.855  20.335   4.499 -0.0070 -0.0311 -0.0456
61527W        W 4439   1.363  21.465   4.867  0.1662 -0.1193  0.0016
61528W        W 4440   1.458  17.773   6.694 -0.0212  0.0507 -0.1294
61529W        W 4441   1.150  20.657   6.003 -0.0726  0.1421 -0.2488
61530W        W 4442   3.972  19.035   5.712 -0.1078  0.1151 -0.0271
61531W        W 4443   0.551  18.636   7.770  0.2399  0.0087  0.1237
61532W        W 4444   2.413  19.035   3.820  0.0814 -0.0440  0.1986
61533W        W 4445   1.094  20.523   5.026  0.2170 -0.1255  0.1393
61534W        W 4446   2.923  22.152   5.116 -0.3110  0.1558 -0.0537
61535W        W 4447   3.346  19.376   3.131 -0.2201 -0.1169 -0.0786
61536W        W 4448   2.099  20.667   3.586 -0.1781 -0.4950  0.1558
61537W        W 4449  34.347  19.571   5.825 -0.1191  0.1324 -0.3213
61538W        W 4450   1.623  17.998   5.289 -0.1415  0.0783  0.0752
61539W        W 4451   2.305  17.929   7.098  0.1766  0.0764 -0.1279
61540W        W 4452   1.464  18.500   5.180  0.2030  0.4415 -0.0538
61541W        W 4453   3.295  19.047   6.326 -0.0093 -0.1314 -0.0998
61542W        W 4454   0.734  19.028   5.654 -0.0536 -0.3865 -0.0510
61543W        W 4455   3.700  20.275   6.439 -0.0507  0.2425  0.0216
61544W        W 4456   1.914  19.888   4.802  0.0316 -0.0611 -0.0460
61545W        W 4457   0.156  20.905   3.862 -0.1716  0.1300 -0.1919
61546W        W 4458   3.370  19.268   7.440 -0.2546 -0.2348 -0.0041
61547W        W 4459   1.651  21.687   4.327 -0.2684  0.1892 -0.0719
61548W        W 4460   2.780  21.352   7.452  0.1961 -0.2191  0.2111
61549W        W 4461   5.699  21.012   4.640  0.0089  0.0584  0.0993
61550W        W 4462   1.549  18.828   6.385  0.1242  0.3301  0.0890
61551W        W 4463   0.488  18.803   4.261 -0.1341  0.0499  0.1410
61552W        W 4464  33.748  20.911   5.397  0.0290  0.0127 -0.0328
61553W        W 4465   2.247  20.666   5.828  0.3309 -0.1687 -0.0291
61554W        W 4466   1.887  18.486   3.289 -0.0140  0.1194 -0.2348
61555W        W 4467   2.437  21.535   3.554  0.0625  0.1700 -0.1194
61556W        W 4468   2.088  21.460   4.401  0.2772  0.0872  0.2611
61557W        W 4469   0.215  21.425   7.069 -0.0573  0.3582  0.0174
61558W        W 4470   2.198  17.761   7.924 -0.1048 -0.3324  0.0529
61559W        W 4471   4.452  20.133   6.989  0.1932 -0.3211  0.0660
61560W        W 4472   3.389  20.113   4.829 -0.0095 -0.1837 -0.1284
61561W        W 4473   0.707  18.970   3.786 -0.2819  0.2334  0.0820
61562W        W 4474   2.396  20.573   3.999 -0.0509  0.0015 -0.2306
61563W        W 4475   0.091  22.501   4.774  0.0431  0.2264 -0.3923
61564W        W 4476   1.370  18.835   4.612 -0.0284 -0.2697  0.1317
61565W        W 4477   1.969  20.589   4.950 -0.0357 -0.3940  0.1293
61566W        W 4478   2.296  17.842   4.889 -0.0702  0.0376  0.0916
61567W        W 4479   0.509  20.511   7.671  0.1783 -0.0228  0.0375
61568W        W 4480   2.729  20.464   8.049 -0.3299 -0.0088 -0.0969
61569W        W 4481   0.861  20.446   4.579  0.0152  0.0114 -0.4377
61570W        W 4482   1.037  20.983   5.183 -0.0068 -0.0456 -0.2237
61571W        W 4483   2.118  17.834   5.358  0.0377  0.2420  0.0573
61572W        W 4484   2.593  17.978   5.328 -0.2111 -0.0220  0.1810
61573W        W 4485   2.056  20.188   6.377 -0.1474  0.1088  0.0811
61574W        W 4486   3.973  21.660   4.409 -0.2431 -0.0219  0.0176
61575W        W 4487   1.913  19.768   3.980  0.0266 -0.3143  0.0032
61576W        W 4488   1.639  18.965   4.135 -0.2418  0.0811 -0.1782
61577W        W 4489   0.736  20.889   7.437  0.4473 -0.0100  0.2823
61578W        W 4490   3.568  21.236   6.127  0.3520  0.2558 -0.0704
61579W        W 4491   1.710  21.088   5.884 -0.2252 -0.0966 -0.0184
61580W        W 4492   2.786  19.435   3.132  0.1952  0.3138  0.0622
61581W        W 4493   4.121  22.043   3.782  0.0087  0.0883  0.1545
61582W        W 4494   1.400  20.699   6.418 -0.2949 -0.0426 -0.2280
61583W        W 4495   2.294  20.079   5.917  0.0551  0.1363 -0.1040
61584W        W 4496   2.462  22.043   4.944  0.2177 -0.0280 -0.2251
61585W        W 4497   1.012  19.982   4.756  0.0608  0.2840 -0.1236
61586W        W 4498   1.680  20.858   3.720 -0.0906  0.1138  0.0410
61587W        W 4499   2.603  18.423   6.102  0.1622 -0.0715 -0.0850
61588W        W 4500   0.678  21.471   3.738 -0.2029 -0.1023 -0.2824
61589W        W 4501   3.423  18.093   4.857  0.0717  0.0497  0.0366
61590W        W 4502   3.153  18.756   6.792  0.1864  0.1015  0.1379
61591W        W 4503   1.537  18.641   6.865 -0.1909  0.0041  0.0380
61592W        W 4504   3.715  19.607   6.649  0.0371 -0.1725 -0.0983
61593W        W 4505   3.382  20.213   3.517 -0.1976  0.0640 -0.2561
61594W        W 4506   3.006  20.073   6.679  0.2319 -0.1671  0.0640
61595W        W 4507   0.633  20.013   2.752  0.0681 -0.1475 -0.0514
61596W        W 4508   3.683  18.489   7.738  0.0179  0.0981  0.2026
61597W        W 4509  34.062  20.642   6.413 -0.2227 -0.0152 -0.1027
61598W        W 4510   0.307  21.523   5.902  0.2145  0.0484 -0.0179
61599W        W 4511   2.203  21.068   6.267 -0.0380  0.0885 -0.0499
61600W        W 4512   4.110  20.202   5.271 -0.3492  0.2483 -0.0290
61601W        W 4513   2.765  19.666   6.565 -0.1629 -0.3922 -0.1885
61602W        W 4514   1.081  18.438   4.866  0.0613  0.3095 -0.0036
61603W        W 4515   1.518  21.166   4.401  0.1231  0.1197 -0.0998
61604W        W 4516   2.030  20.936   4.158  0.0977  0.1734 -0.2487
61605W        W 4517   1.236  19.222   5.535 -0.3492 -0.3421  0.2639
61606W        W 4518   1.893  21.676   6.648  0.0522 -0.2929  0.1574
61607W        W 4519   1.340  20.728   3.080  0.0147 -0.0075  0.2703
61608W        W 4520   3.986  20.348   6.809  0.0379 -0.1304 -0.3268
61609W        W 4521   0.592  22.230   4.865  0.0322  0.3789 -0.3878
61610W        W 4522   1.839  18.660   5.994  0.1350 -0.2103 -0.2042
61611W        W 4523   1.132  21.356   5.528 -0.1060  0.0903 -0.3130
61612W        W 4524   0.926  18.501   3.878  0.3838 -0.0167 -0.2304
61613W        W 4525  34.426  20.917   5.510  0.1683 -0.0965  0.3788
61614W        W 4526   3.284  19.579   4.574  0.0647  0.0985  0.4652
61615W        W 4527   3.073  20.404   3.218  0.0597  0.1510  0.0161
61616W        W 4528   0.965  18.262   5.335 -0.1286  0.1132  0.0544
61617W        W 4529   3.372  18.439   5.309 -0.2007  0.0603  0.1991
61618W        W 4530   0.725  21.720   5.666  0.0810  0.1627  0.1649
61619W        W 4531   2.801  19.119   6.616 -0.0046  0.1762  0.1634
61620W        W 4532   2.248  18.612   4.631  0.0250  0.2235 -0.2415
61621W        W 4533   3.835  20.461   4.944 -0.1147 -0.1777 -0.2980
61622W        W 4534   1.483  19.991   6.586  0.1586  0.1142  0.2206
61623W        W 4535   0.412  18.529   3.763 -0.0244 -0.4018  0.2493
61624W        W 4536   3.342  17.727   5.846  0.0127  0.2450  0.2419
61625W        W 4537   1.624  19.082   5.007 -0.0326  0.0786 -0.0412
61626W        W 4538   1.557  21.312   3.839 -0.0278 -0.1227  0.1942
61627W        W 4539   1.867  22.060   5.564 -0.3839  0.0025 -0.0145
61628W        W 4540   1.831  19.494   4.463  0.2401  0.5002 -0.0903
61629W        W 4541  34.561  20.771   6.367 -0.0710  0.1886 -0.3070
61630W        W 4542   0.381  19.399   6.258  0.0942  0.0145 -0.2363
61631W        W 4543   2.785  19.972   7.184  0.3381  0.1339  0.0823
61632W        W 4544   1.135  18.878   5.096 -0.0149  0.1923  0.1983
61633W        W 4545   2.490  19.152   4.650  0.0923  0.2416  0.3544
61634W        W 4546   2.690  18.704   4.337  0.1044  0.3557 -0.1632
61635W        W 4547   4.020  20.293   6.030  0.1005  0.4877 -0.0510
61636W        W 4548   2.808  18.529   7.141  0.1116 -0.0365  0.1656
61637W        W 4549   0.863  20.604   5.539 -0.0732  0.0217  0.1247
61638W        W 4550   2.823  17.981   6.343 -0.0179 -0.3298 -0.0948
61639W        W 4551   3.902  20.827   4.072 -0.0799 -0.1127  0.0183
61640W        W 4552   0.972  20.018   6.557 -0.1847 -0.0101 -0.1926
61641W        W 4553   0.491  21.273   4.196 -0.4960  0.0702  0.1039
61642W        W 4554   1.293  19.799   5.521 -0.0119  0.3151  0.2640
61643W        W 4555   2.532  20.585   5.212  0.2642  0.0265  0.2460
61644W        W 4556   2.757  18.488   6.579  0.2090 -0.0651 -0.1241
61645W        W 4557   1.899  20.816   5.382 -0.2157  0.0187 -0.2183
61646W        W 4558   0.109  21.964   4.505  0.4320 -0.1130  0.0883
61647W        W 4559  34.287  19.994   5.034 -0.0127 -0.0942  0.1194
61648W        W 4560   3.845  18.848   4.831  0.0275 -0.4544 -0.1130
61649W        W 4561   3.064  21.256   4.307 -0.3088 -0.0203  0.1155
61650W        W 4562   2.336  18.782   5.733 -0.0494  0.0649 -0.1294
61651W        W 4563   4.623  17.506   6.929 -0.0701  0.2674  0.0122
61652W        W 4564   3.082  18.212   4.043  0.2990 -0.1819  0.2041
61653W        W 4565   1.738  17.841   8.252  0.0130  0.0599 -0.0518
61654W        W 4566   1.171  17.881   5.527  0.0441  0.1992 -0.1650
61655W        W 4567   3.022  20.347   5.210 -0.0012  0.0975 -0.0519
61656W        W 4568   0.839  18.752   6.117 -0.0156  0.0989 -0.0111
61657W        W 4569   1.382  21.273   9.090 -0.1463  0.2952 -0.3322
61658W        W 4570   0.626  19.997   6.970 -0.1176  0.0768 -0.1008
61659W        W 4571   3.067  19.613   5.460  0.1052 -0.2924  0.1914
61660W        W 4572   1.226  18.360   4.327  0.0290  0.0403 -0.0332
61661W        W 4573   2.295  20.158   5.005 -0.1057  0.3064  0.0309
61662W        W 4574   3.272  20.449   4.265  0.0402 -0.2038  0.1322
61663W        W 4575   2.221  20.559   3.058 -0.0153  0.0838 -0.0007
61664W        W 4576   4.626  20.145   5.167 -0.0906  0.2941 -0.1932
61665W        W 4577   1.887  20.673   6.316  0.0434 -0.0157  0.0681
61666W        W 4578   3.761  19.632   4.756 -0.0636  0.4256 -0.0403
61667W        W 4579   2.597  20.016   5.428  0.0613 -0.0435  0.1816
61668W        W 4580   1.347  20.818   4.070 -0.2332  0.0534 -0.1586
61669W        W 4581   1.673  19.226   7.619 -0.1345  0.1255  0.2798
61670W        W 4582   2.250  19.755   6.346 -0.4037 -0.2300  0.0920
61671W        W 4583   3.468  19.300   5.390  0.1361 -0.2672 -0.1731
61672W        W 4584   3.062  18.217   5.810 -0.1711  0.0680  0.1552
61673W        W 4585   3.507  20.043   6.841 -0.2168 -0.2548  0.2183
61674W        W 4586   1.922  19.114   6.623  0.0805 -0.2064 -0.0069
61675W        W 4587   0.164  17.721   7.021  0.3079  0.1069  0.1036
61676W        W 4588   2.435  21.962   6.718 -0.0074 -0.2387  0.2907
61677W        W 4589   4.509  19.351   3.276  0.0826 -0.1336 -0.0830
61678W        W 4590   2.726  20.404   5.653 -0.2076  0.0854 -0.0409
61679W        W 4591   3.276  18.801   5.748 -0.0533  0.2565  0.3278
61680W        W 4592   3.027  19.123   4.628 -0.0489 -0.0014 -0.1315
61681W        W 4593  34.187  18.471   5.602 -0.1447  0.4580  0.1986
61682W        W 4594   3.474  20.841   6.499 -0.3786  0.3269 -0.3235
61683W        W 4595   1.353  20.057   3.347 -0.0176  0.3837  0.2670
61684W        W 4596   2.721  19.371   7.032  0.1161  0.2942  0.0799
61685W        W 4597   1.924  20.923   4.637  0.3258  0.0174  0.2320
61686W        W 4598   2.175  21.241   5.717 -0.0449  0.5418 -0.1515
61687W        W 4599   2.318  20.499   4.574  0.0814 -0.0018  0.0226
61688W        W 4600   0.248  18.384   5.231 -0.1590  0.1388 -0.1949
61689W        W 4601   0.733  21.386   7.538 -0.0797  0.0211 -0.0085
61690W        W 4602   0.574  19.745   3.936 -0.2128  0.2176  0.0209
61691W        W 4603   2.919  19.860   3.408 -0.1886 -0.1798  0.0980
61692W        W 4604   2.567  20.581   6.209  0.3076  0.3436  0.3159
61693W        W 4605   2.449  21.547   7.053  0.1966  0.2521 -0.1391
61694W        W 4606   2.602  16.781   4.861  0.1488  0.2663 -0.0442
61695W        W 4607   2.560  20.193   6.487 -0.0475  0.0390  0.1385
61696W        W 4608   0.842  21.376   4.736 -0.1220 -0.0686  0.3663
61697W        W 4609   1.752  18.460   4.282  0.1571 -0.2838 -0.0210
61698W        W 4610   0.625  22.235   5.401 -0.1775  0.0387  0.0763
61699W        W 4611   0.041  20.639   5.722 -0.2117 -0.0684 -0.0147
61700W        W 4612   0.811  21.381   6.073 -0.2050 -0.1076 -0.1265
61701W        W 4613   1.902  18.354   7.156  0.1049 -0.4038  0.1784
61702W        W 4614   4.422  19.763   5.482 -0.1890  0.0893 -0.2399
61703W        W 4615   3.359  19.487   5.911  0.2045 -0.0918 -0.0095
61704W        W 4616   4.437  21.054   4.990 -0.3396 -0.1730 -0.2258
61705W        W 4617   0.995  20.069   7.746  0.0726  0.0419 -0.1630
61706W        W 4618   0.534  20.249   5.726 -0.1911 -0.2039 -0.1014
61707W        W 4619   2.235  20.790   6.712 -0.0985  0.0129  0.0007
61708W        W 4620   3.465  20.631   5.553 -0.2078 -0.0344 -0.2647
61709W        W 4621   1.459  20.273   6.168  0.1442  0.0107 -0.0434
61710W        W 4622   0.431  19.351   6.768  0.3649  0.2002 -0.3444
61711W        W 4623   1.282  17.983   7.870  0.0584 -0.1135 -0.2423
61712W        W 4624   2.983  19.854   5.919 -0.2076  0.0889  0.1974
61713W        W 4625  34.526  17.540   3.682  0.0586  0.0900  0.1013
61714W        W 4626   1.795  21.326   2.545  0.0813  0.1237 -0.0111
61715W        W 4627   0.813  19.549   7.023  0.1198 -0.1603 -0.0517
61716W        W 4628   0.466  20.096   6.420  0.1612 -0.1956 -0.0493
61717W        W 4629   0.410  21.765   4.065 -0.1268 -0.3615 -0.1633
61718W        W 4630   2.752  21.050   4.972  0.1090 -0.0110 -0.1439
61719W        W 4631   3.265  21.831   5.312 -0.2368 -0.1040 -0.3704
61720W        W 4632   2.642  21.683   5.254  0.0544  0.1537 -0.0892
61721W        W 4633   1.982  18.453   5.504 -0.5672 -0.0451  0.1821
61722W        W 4634   0.428  21.110   6.349 -0.0152 -0.0390  0.0762
61723W        W 4635   0.518  22.485   3.445  0.1895  0.0494 -0.0202
61724W        W 4636   1.849  20.858   3.034 -0.0563 -0.1119 -0.0040
61725W        W 4637   0.463  22.859   4.668 -0.2208 -0.0820  0.2623
61726W        W 4638   2.252  21.266   7.419 -0.3620 -0.4528 -0.2575
61727W        W 4639   2.582  20.062   3.778  0.1670 -0.2079 -0.1340
61728W        W 4640   3.085  20.752   6.092  0.2519  0.1279 -0.0680
61729W        W 4641   3.514  19.055   4.481 -0.0264  0.2319  0.2263
61730W        W 4642   2.113  20.323   6.973  0.3239 -0.0968  0.0487
61731W        W 4643   1.590  19.889   5.159 -0.1011  0.0758  0.0405
61732W        W 4644   1.238  18.993   3.758  0.4033  0.1799 -0.0319
61733W        W 4645   1.361  18.959   5.974  0.1708  0.0113 -0.0947
61734W        W 4646   3.556  16.594   6.596 -0.1467  0.1759  0.0140
61735W        W 4647   0.290  20.197   5.266 -0.2244 -0.2094  0.1905
61736W        W 4648   2.584  22.084   4.160 -0.2026  0.0245 -0.0429
61737W        W 4649   2.301  19.595   4.472  0.1384  0.0648 -0.1787
61738W        W 4650   2.927  19.896   5.017 -0.1105 -0.0075 -0.1132
61739W        W 4651   3.840  18.319   6.219  0.0675  0.1602 -0.1398
61740W        W 4652   2.165  21.123   3.390 -0.0708 -0.1345  0.0671
61741W        W 4653   2.799  18.916   6.037  0.2572 -0.2677 -0.0407
61742W        W 4654   1.260  21.874   4.487  0.1695 -0.1402 -0.1339
61743W        W 4655   1.682  21.592   5.756  0.0757  0.0236 -0.2487
61744W        W 4656   1.087  21.966   5.484 -0.2517 -0.2558 -0.0380
61745W        W 4657   0.472  19.356   4.841 -0.2946  0.0376  0.1632
61746W        W 4658   4.702  20.803   6.326 -0.3892  0.1248 -0.0443
61747W        W 4659   2.054  19.487   7.694 -0.3093  0.2747 -0.1295
61748W        W 4660   2.785  18.611   5.659  0.0867  0.1484  0.1580
61749W        W 4661   2.430  19.640   4.941  0.3383  0.3228 -0.2804
61750W        W 4662   3.188  18.669   4.349  0.2308 -0.0804  0.0893
61751W        W 4663   3.298  19.660   6.444 -0.0013 -0.1126  0.0577
61752W        W 4664   2.095  19.603   5.803 -0.1348  0.0261  0.0291
61753W        W 4665   2.938  20.539   3.715  0.1320  0.1640  0.0335
61754W        W 4666   4.479  19.007   7.196 -0.1956 -0.1634  0.0741
61755W        W 4667   2.840  20.307   2.256  0.1093 -0.1459 -0.0045
61756W        W 4668   2.895  21.829   7.187  0.0997 -0.0181 -0.1824
61757W        W 4669   1.678  18.180   3.608 -0.2211  0.2062 -0.1054
61758W        W 4670   1.936  19.012   4.582  0.0183  0.0012  0.1308
61759W        W 4671   2.039  19.786   5.281 -0.0235  0.0245 -0.0963
61760W        W 4672   1.658  20.943   6.903 -0.0075  0.1321 -0.0108
61761W        W 4673   3.373  21.873   7.147  0.4021 -0.1123  0.2254
61762W        W 4674  34.595  18.732   5.275  0.1735  0.1332  0.0906
61763W        W 4675   3.998  20.450   4.425  0.1180 -0.1700  0.0962
61764W        W 4676   4.525  20.279   6.169 -0.1429 -0.2287  0.1335
61765W        W 4677   2.281  21.683   4.004  0.2467  0.2472  0.0961
61766W        W 4678   3.020  20.821   4.556  0.3270  0.0155 -0.1712
61767W        W 4679   3.312  22.759   4.971  0.0962 -0.3795  0.0270
61768W        W 4680   1.222  18.703   5.567 -0.4130 -0.1744 -0.1633
61769W        W 4681   3.800  22.485   5.600  0.0362 -0.0381  0.1306
61770W        W 4682   4.897  20.465   5.603  0.1118  0.1079  0.2425
61771W        W 4683   2.163  16.637   4.131 -0.1399 -0.2541 -0.1685
61772W        W 4684   1.337  20.343   5.422 -0.4359 -0.0344  0.0661
61773W        W 4685  34.423  22.217   3.640  0.0014 -0.2397 -0.5279
61774W        W 4686   4.475  20.247   5.658 -0.1933 -0.0149  0.0720
61775W        W 4687   3.991  17.972   4.931 -0.0082 -0.0393  0.1002
61776W        W 4688   2.152  21.400   2.933  0.0580  0.3200 -0.0493
61777W        W 4689   3.223  19.552   6.925  0.0086 -0.0586  0.2012
61778W        W 4690   3.249  20.233   6.223  0.2610 -0.2877  0.1525
61779W        W 4691   1.426  20.371   7.941  0.0023 -0.1803 -0.1337
61780W        W 4692   2.831  20.406   4.748 -0.0921  0.0935 -0.1392
61781W        W 4693   2.031  18.835   7.561  0.0662  0.1115  0.1427
61782W        W 4694   1.542  22.283   5.163 -0.1694  0.0937  0.0133
61783W        W 4695   1.908  22.669   3.903 -0.1385 -0.0023  0.0266
61784W        W 4696   2.848  22.450   6.848  0.2139  0.0156  0.2767
61785W        W 4697   2.803  19.543   4.611  0.0457 -0.2736 -0.0496
61786W        W 4698   3.290  21.598   3.988 -0.2147  0.2407  0.1733
61787W        W 4699   2.912  19.361   5.081  0.0990 -0.1865  0.2224
61788W        W 4700   3.665  17.045   4.686  0.2673 -0.1691  0.5377
61789W        W 4701   2.740  18.730   4.872 -0.3134 -0.1512 -0.1909
61790W        W 4702   1.753  19.577   6.257  0.0611 -0.2690 -0.0853
61791W        W 4703   0.743  20.090   4.288  0.1745  0.0847  0.0420
61792W        W 4704   1.041  20.878   3.541 -0.0703 -0.1638 -0.1541
61793W        W 4705   1.361  20.587   4.587  0.0387  0.0929 -0.0744
61794W        W 4706   2.320  17.289   8.119  0.1582  0.0913 -0.0363
61795W        W 4707   1.454  19.461   5.873  0.0774 -0.0669  0.1718
61796W        W 4708   1.060  20.160   5.847  0.0242 -0.1426 -0.0645
61797W        W 4709   1.535  17.003   6.451 -0.1906  0.0352  0.1554
61798W        W 4710   3.070  21.812   3.566  0.0139 -0.3874  0.1007
61799W        W 4711   1.302  17.435   6.303 -0.0864 -0.2237  0.1433
61800W        W 4712   0.841  17.719   5.854 -0.0639  0.1220  0.0559
61801W        W 4713   2.924  21.204   3.786 -0.0337 -0.0097  0.1634
61802W        W 4714   2.997  21.614   4.862  0.0691 -0.2029  0.2842
61803W        W 4715   1.532  18.107   4.783 -0.0508  0.1258 -0.0549
61804W        W 4716   3.533  21.091   7.161 -0.1083  0.2714 -0.0003
61805W        W 4717   1.024  20.931   4.523 -0.0904 -0.1166 -0.0402
61806W        W 4718   2.534  18.900   6.960  0.2507  0.1767 -0.0579
61807W        W 4719   2.208  18.159   8.335 -0.1691  0.3937  0.1670
61808W        W 4720   0.255  18.250   4.146 -0.1285  0.0739  0.1402
61809W        W 4721   2.394  19.911   6.839  0.0601 -0.0289  0.2582
61810W        W 4722   2.032  21.294   3.834  0.2508  0.0161  0.0028
61811W        W 4723   2.456  21.089   4.498 -0.0458 -0.1396 -0.0576
61812W        W 4724   1.772  21.152   6.470  0.0899 -0.2838 -0.2759
61813W        W 4725   1.407  22.256   5.685 -0.0272  0.1379 -0.0012
61814W        W 4726   0.830  17.204   6.242 -0.0338 -0.2356  0.0671
61815W        W 4727   2.245  20.110   4.122  0.1599 -0.3826 -0.3823
61816W        W 4728   0.852  20.847   6.423 -0.2330  0.0781  0.0564
61817W        W 4729   3.958  22.082   3.254 -0.0628 -0.0356  0.0097
61818W        W 4730   3.070  18.884   5.273 -0.2405  0.2062  0.0393
61819W        W 4731   2.745  19.128   5.582  0.4585  0.1838  0.2328
61820W        W 4732   0.814  17.615   7.476 -0.1790 -0.2693 -0.3862
61821W        W 4733   1.127  18.752   6.508  0.0237  0.1930 -0.0394
61822W        W 4734   4.368  21.113   6.488  0.0161 -0.2579  0.0058
61823W        W 4735   1.912  19.201   6.030  0.1896  0.1071  0.3196
61824W        W 4736   1.696  18.870   5.578  0.1533  0.0959 -0.0249
61825W        W 4737   2.679  21.584   4.441  0.0833 -0.0249 -0.1924
61826W        W 4738   0.041  20.348   3.523  0.1616 -0.0878 -0.0971
61827W        W 4739   2.792  19.778   4.143 -0.0712 -0.2143  0.3957
61828W        W 4740   2.160  19.215   7.263 -0.2697 -0.0311 -0.1891
61829W        W 4741   2.947  20.892   5.480  0.1342  0.0985 -0.0003
61830W        W 4742   2.043  21.539   6.184 -0.1763  0.1507 -0.7081
61831W        W 4743   2.007  18.803   5.109 -0.2105 -0.1573 -0.1388
61832W        W 4744   2.784  20.825   4.114 -0.1279  0.0481  0.1067
61833W        W 4745   2.358  21.948   6.213 -0.2456  0.3787 -0.2367
61834W        W 4746   2.717  20.981   6.452 -0.2191  0.3184 -0.0269
61835W        W 4747   2.643  22.018   5.699  0.1295  0.0126 -0.1323
61836W        W 4748   3.543  20.592   6.988  0.1741 -0.3786  0.0108
61837W        W 4749   1.105  17.342   5.146 -0.0507 -0.2606  0.3261
61838W        W 4750   2.472  19.001   5.166  0.1105 -0.1294  0.0127
61839W        W 4751   3.663  19.916   6.098 -0.0567 -0.2681  0.1020
61840W        W 4752   3.596  18.398   5.805  0.0702 -0.0889  0.0406
61841W        W 4753   1.319  18.505   6.104 -0.0810 -0.2562  0.1155
61842W        W 4754   1.547  18.156   3.088 -0.1458  0.2904 -0.2380
61843W        W 4755   0.991  21.771   6.379 -0.1764 -0.0633 -0.0956
61844W        W 4756   3.380  19.735   5.083  0.3052  0.2695 -0.4264
61845W        W 4757   1.541  20.377   9.533 -0.0784  0.2576  0.0882
61846W        W 4758   1.355  20.519   8.418  0.1306  0.0375  0.0864
61847W        W 4759   3.503  18.218   8.399 -0.3083  0.1532  0.3652
61848W        W 4760   4.241  18.938   9.174  0.0414 -0.2352 -0.1429
61849W        W 4761  33.882  18.195   8.362  0.2356  0.0390  0.0588
61850W        W 4762   2.969  22.285   9.116 -0.1357 -0.1530 -0.0910
61851W        W 4763   2.562  19.123   9.025  0.1602 -0.1668  0.2221
61852W        W 4764   3.771  22.101   9.375 -0.0159  0.1063  0.0094
61853W        W 4765   2.346  18.463   7.414 -0.0645  0.2969 -0.0623
61854W        W 4766   2.221  17.170  10.045 -0.0769 -0.1101  0.1650
61855W        W 4767   1.282  17.841   8.540 -0.1096 -0.0302  0.1898
61856W        W 4768   0.536  16.209   9.372  0.1202 -0.0043  0.1718
61857W        W 4769   3.484  19.596   9.724  0.0432  0.1239  0.0348
61858W        W 4770   0.549  19.927   8.762  0.2248 -0.2961 -0.0609
61859W        W 4771   2.574  20.391   9.439  0.1535  0.2706  0.2945
61860W        W 4772   2.296  20.719   9.750 -0.1125  0.0477 -0.0027
61861W        W 4773   2.328  21.322   9.802  0.4944 -0.0914  0.1218
61862W        W 4774   0.597  20.107   9.672 -0.1090 -0.3256  0.1507
61863W        W 4775   1.763  21.101   7.342 -0.3906  0.0615 -0.1282
61864W        W 4776   1.324  19.255   6.431  0.1576  0.0546 -0.1225
61865W        W 4777   1.874  20.602   8.161 -0.2769 -0.0527  0.3220
61866W        W 4778   0.711  18.820   9.187 -0.1017 -0.2050  0.0683
61867W        W 4779   3.858  17.179   8.784  0.2452 -0.1865 -0.2730
61868W        W 4780   3.050  19.535   8.296 -0.1085 -0.0921  0.0375
61869W        W 4781   0.970  21.112   8.878 -0.2286  0.2543 -0.2176
61870W        W 4782   3.227  21.851   8.126  0.2124  0.2383  0.4028
61871W        W 4783   0.011  20.628   9.264 -0.2787  0.0856  0.0083
61872W        W 4784   0.664  23.061   7.789  0.1439 -0.1847 -0.0866
61873W        W 4785   0.955  20.850   8.450 -0.0341  0.2605  0.2880
61874W        W 4786   3.891  21.249   8.164  0.3149  0.1336  0.2577
61875W        W 4787   0.747  19.607   7.479 -0.1283  0.1386 -0.0367
61876W        W 4788   4.451  17.449   9.649  0.0467  0.0494  0.2234
61877W        W 4789   3.563  19.852   9.295  0.0964  0.0411 -0.0581
61878W        W 4790   2.310  21.796   7.526  0.1267 -0.1006 -0.1013
61879W        W 4791   2.018  20.356   9.546 -0.0495 -0.2021  0.0703
61880W        W 4792  34.278  21.742   9.093  0.0543 -0.3014  0.0263
61881W        W 4793   0.803  21.779   7.872 -0.1213 -0.1183 -0.1875
61882W        W 4794   3.269  18.690   7.505 -0.1396  0.0694  0.0135
61883W        W 4795   2.047  18.338   7.772 -0.0864 -0.0574  0.0671
61884W        W 4796   2.693  18.150   7.988 -0.2313 -0.0453  0.1765
61885W        W 4797   1.466  17.456   9.357 -0.0480 -0.1861 -0.1668
61886W        W 4798   0.692  22.372   8.756 -0.2882  0.2387  0.0986
61887W        W 4799   0.959  18.765   8.106 -0.0904  0.2231  0.1702
61888W        W 4800   0.896  20.316   8.134  0.1899  0.0804 -0.0252
61889W        W 4801   5.842  18.558  10.033 -0.1214 -0.2969  0.0428
61890W        W 4802  34.414  20.048   9.119 -0.0851 -0.0724 -0.1308
61891W        W 4803   1.553  20.051   8.688  0.2830 -0.1486  0.2860
61892W        W 4804   2.560  20.829   7.437  0.1282 -0.0939 -0.3298
61893W        W 4805   5.154  21.555   7.830 -0.1414 -0.0545 -0.0143
61894W        W 4806   2.461  21.178   7.932 -0.3227  0.0428 -0.1827
61895W        W 4807   1.142  19.721   8.725 -0.1889  0.3599 -0.2928
61896W        W 4808   1.956  17.941   7.464 -0.1668  0.1044 -0.1242
61897W        W 4809   4.790  19.303   8.685 -0.1948 -0.0522 -0.0047
61898W        W 4810   1.649  20.537   9.055 -0.2670  0.0038 -0.1182
61899W        W 4811   5.943  24.320  10.234  0.1440 -0.0737  0.1609
61900W        W 4812   1.654  20.085   7.062 -0.0427  0.1964  0.3726
61901W        W 4813   2.721  17.380   8.986 -0.1963  0.3522 -0.3274
61902W        W 4814   3.045  17.767   9.713  0.1196  0.0363  0.0808
61903W        W 4815   1.120  20.839   6.852 -0.1264 -0.0847  0.0339
61904W        W 4816   1.128  20.754   7.978 -0.0339 -0.0487  0.0845
61905W        W 4817   4.047  23.043   8.993 -0.1371 -0.1883 -0.0614
61906W        W 4818   2.475  19.253   7.796 -0.0590 -0.2315 -0.2514
61907W        W 4819  33.589  22.139   9.663 -0.1251 -0.1368 -0.2527
61908W        W 4820  34.655  22.472   8.511 -0.0709 -0.2469  0.2243
61909W        W 4821   0.077  20.874   8.767  0.0629 -0.0978  0.1000
61910W        W 4822   1.554  20.995   8.266 -0.1138  0.2561  0.0708
61911W        W 4823   0.770  20.197   9.167  0.1768 -0.1007 -0.1469
61912W        W 4824   2.262  21.177   9.241 -0.3324 -0.0182  0.0117
61913W        W 4825   3.323  18.468   8.919 -0.0240  0.0265 -0.1285
61914W        W 4826   3.193  18.171   9.286 -0.4715 -0.0417  0.1510
61915W        W 4827   0.943  20.298   8.667 -0.0832 -0.0214  0.1509
61916W        W 4828   3.166  22.862   8.375 -0.1989  0.0869  0.0999
61917W        W 4829   4.220  19.040   8.703  0.2250 -0.0791 -0.1336
61918W        W 4830   2.290  20.698   7.941 -0.2249  0.1935 -0.0214
61919W        W 4831   1.254  19.514   7.383 -0.3282  0.3423  0.2341
61920W        W 4832   0.592  18.369   8.215 -0.2248  0.0116  0.1937
61921W        W 4833  33.743  19.087   9.857  0.1705  0.0850  0.0636
61922W        W 4834  33.821  18.614   8.059 -0.1244  0.0306 -0.2082
61923W        W 4835   2.821  18.478   9.097 -0.3004  0.0259 -0.1061
61924W        W 4836   1.495  20.120   7.521  0.0898  0.2257 -0.3430
61925W        W 4837   1.257  19.948   8.230  0.1704  0.0803  0.0674
61926W        W 4838   3.572  21.226   8.703 -0.5876 -0.1482  0.1133
61927W        W 4839   4.821  20.276   8.614 -0.0847  0.1842 -0.0099
61928W        W 4840   2.129  22.534   8.960  0.0362  0.1085 -0.2136
61929W        W 4841   0.610  20.652   9.536  0.1551  0.0692 -0.0981
61930W        W 4842   0.557  18.482   7.287  0.1355 -0.0795  0.0780
61931W        W 4843  33.697  20.945   9.316 -0.0504 -0.1609  0.0274
61932W        W 4844   1.110  22.169   9.605 -0.0540  0.1534  0.1069
61933W        W 4845   0.943  18.311   7.861  0.0024 -0.0816 -0.2485
61934W        W 4846   5.057  21.784   8.265  0.2519 -0.1715  0.1533
61935W        W 4847   2.234  20.233   8.086  0.1631  0.1004  0.0101
61936W        W 4848   5.205  17.218   9.358 -0.1629 -0.0570 -0.1504
61937W        W 4849   3.542  20.248   9.725  0.2551 -0.2742 -0.0520
61938W        W 4850   0.060  18.047   8.090  0.2004 -0.2905  0.0006
61939W        W 4851   2.488  20.530   8.866  0.2725 -0.0822 -0.0649
61940W        W 4852  33.936  20.387   8.157  0.3054  0.2389 -0.0609
61941W        W 4853   0.536  20.668   8.160  0.0390  0.0372  0.3114
61942W        W 4854   1.669  21.485   8.247 -0.6256 -0.0478 -0.1048
61943W        W 4855   4.916  18.845   9.379 -0.1072  0.2363  0.4723
61944W        W 4856   0.519  19.158   7.370 -0.0481 -0.2143 -0.1069
61945W        W 4857   3.774  18.210   9.155 -0.0118 -0.2060  0.0194
61946W        W 4858   5.015  18.780   7.997  0.1627 -0.0287  0.3333
61947W        W 4859   4.221  19.946   8.810  0.0911  0.1537  0.2657
61948W        W 4860   3.204  18.165   7.951 -0.0611 -0.0243  0.0534
61949W        W 4861   1.586  19.192   7.033  0.0842  0.1518 -0.0327
61950W        W 4862   2.420  20.617   8.406 -0.2368 -0.2008  0.2088
61951W        W 4863   2.687  21.517   9.411 -0.1027  0.1222 -0.2394
61952W        W 4864   2.785  18.609   7.847  0.2560 -0.0468 -0.0915
61953W        W 4865   4.131  20.675   8.215 -0.1159 -0.2533 -0.0329
61954W        W 4866   0.411  19.385   9.033 -0.1791  0.1991 -0.0239
61955W        W 4867   2.643  21.420   8.388  0.0401 -0.0566  0.1146
61956W        W 4868   2.959  19.683   9.691  0.0364 -0.1012 -0.0016
61957W        W 4869   1.056  18.340   6.982 -0.1163  0.0576 -0.1079
61958W        W 4870   3.054  18.391   8.533 -0.1199  0.2544 -0.0546
61959W        W 4871  34.147  21.974   6.956 -0.0260 -0.1364 -0.1989
61960W        W 4872   3.132  17.088   8.994 -0.0029  0.0704 -0.0416
61961W        W 4873   4.084  18.416  10.247  0.2610 -0.0971 -0.2832
61962W        W 4874   2.984  19.050   7.690  0.0575  0.1398 -0.1693
61963W        W 4875   1.890  21.466   9.806  0.1692  0.0007 -0.2098
61964W        W 4876  34.446  19.839   7.155  0.4004  0.0572  0.2329
61965W        W 4877   2.449  16.662   8.132  0.2140 -0.0712  0.0812
61966W        W 4878   2.215  22.832   9.405 -0.0237 -0.1696 -0.5468
61967W        W 4879   2.906  20.349   8.488  0.0501  0.1397  0.0720
61968W        W 4880   2.308  17.432   6.925 -0.1868  0.2538  0.2304
61969W        W 4881   1.015  21.308   7.128 -0.1621  0.2836  0.1410
61970W        W 4882   2.540  21.053   7.018  0.0447 -0.0441  0.0823
61971W        W 4883   1.073  17.759   9.003 -0.1421  0.1926  0.1573
61972W        W 4884   1.858  21.001   9.652 -0.0317  0.0049 -0.1372
61973W        W 4885   0.466  20.775   5.985  0.0261  0.1671 -0.0343
61974W        W 4886   1.633  19.613   8.477  0.0860  0.0645  0.0105
61975W        W 4887   1.065  19.956   7.197  0.1490 -0.0751 -0.4275
61976W        W 4888   4.435  16.539   9.633 -0.3110  0.0077  0.0273
61977W        W 4889  34.045  20.647   9.521 -0.0591  0.3071  0.0330
61978W        W 4890   1.083  18.750   7.603 -0.2024 -0.2962  0.1378
61979W        W 4891   0.554  19.886   7.849 -0.0294  0.4203  0.2054
61980W        W 4892   3.443  19.432   8.642  0.0059  0.0561 -0.0193
61981W        W 4893   2.164  20.745   7.212 -0.3361 -0.5073  0.1750
61982W        W 4894   1.174  19.471   9.725 -0.1758  0.5565  0.0093
61983W        W 4895   2.816  18.809   8.744  0.3278 -0.0570 -0.0920
61984W        W 4896  33.791  20.656   8.965 -0.0873  0.0240 -0.3586
61985W        W 4897   2.114  19.748   8.289  0.1524  0.0591 -0.3412
61986W        W 4898  34.244  18.383   7.736 -0.2534  0.2554  0.1781
61987W        W 4899   4.383  16.853  10.242 -0.0633 -0.3374 -0.0227
61988W        W 4900   1.579  19.575   7.976 -0.2634  0.2437  0.0404
61989W        W 4901  34.646  20.386   8.803 -0.3697  0.0230  0.1753
61990W        W 4902   3.351  20.408   8.708  0.0837 -0.0337 -0.0384
61991W        W 4903   1.481  18.658   7.908 -0.1293  0.2884 -0.1119
61992W        W 4904   0.501  20.978   8.634 -0.2038 -0.1560 -0.0164
61993W        W 4905   2.658  20.910   9.342  0.1771  0.2817  0.2111
61994W        W 4906   2.073  19.317   8.791 -0.1667  0.3610  0.1518
61995W        W 4907   1.671  17.713   8.936 -0.5266 -0.1279  0.1023
61996W        W 4908   3.069  20.587   9.613 -0.2383  0.1755  0.0795
61997W        W 4909   2.810  21.495   8.834  0.1098 -0.2345  0.0050
61998W        W 4910   3.943  20.902   9.586  0.0664 -0.1046  0.0282
61999W        W 4911   2.652  20.026   9.057 -0.2148  0.1545 -0.0258
62000W        W 4912   3.699  21.103   7.641 -0.1005  0.1848 -0.4706
62001W        W 4913   0.481  18.920   8.200  0.2022 -0.0518  0.0033
62002W        W 4914   0.527  19.118   8.644 -0.0606  0.3643 -0.0279
62003W        W 4915   1.393  21.767   7.860 -0.1629 -0.1853  0.0680
62004W        W 4916   2.153  21.840   9.541 -0.0092 -0.1600 -0.1340
62005W        W 4917   2.751  22.021   8.771 -0.0967  0.0698 -0.1259
62006W        W 4918   0.323  20.093   7.420  0.3180  0.1322 -0.1209
62007W        W 4919   1.808  20.968   9.125 -0.0928 -0.1283 -0.2046
62008W        W 4920   4.648  18.640   8.944 -0.2086 -0.2599  0.1179
62009W        W 4921   1.249  21.258   7.956 -0.1243 -0.1620 -0.0144
62010W        W 4922   2.989  17.788   7.593 -0.0519 -0.0978  0.0736
62011W        W 4923   3.242  20.515   8.165 -0.0623  0.1972  0.1527
62012W        W 4924   1.009  18.267   9.049 -0.0492  0.1293 -0.2951
62013W        W 4925   5.295  20.913   9.234 -0.1701 -0.0932 -0.4419
62014W        W 4926   2.070  20.235   9.007 -0.0644  0.1200 -0.1111
62015W        W 4927   1.073  17.814   7.061  0.2545 -0.0217  0.0223
62016W        W 4928   3.524  20.994   9.339  0.1029 -0.0072 -0.2378
62017W        W 4929   2.405  18.508   9.491 -0.0333  0.1232 -0.0316
62018W        W 4930   1.313  21.319   8.537  0.2066  0.1005 -0.2379
62019W        W 4931   4.037  18.929  10.147 -0.1918  0.2134  0.2746
62020W        W 4932   2.692  19.890   8.282 -0.0849 -0.0728 -0.0755
62021W        W 4933   3.778  19.275   9.974 -0.0622 -0.3689 -0.3806
62022W        W 4934   1.918  19.962   7.809 -0.1163  0.1151 -0.1965
62023W        W 4935   0.726  22.140   9.232  0.1315  0.1898 -0.1656
62024W        W 4936   2.539  19.554   8.859 -0.2788  0.3220  0.1019
62025W        W 4937   2.862  18.979   9.482 -0.0685 -0.1202 -0.2764
62026W        W 4938   1.858  23.175   8.295  0.0561  0.0522 -0.1845
62027W        W 4939   3.043  18.986   7.172 -0.0988  0.2348  0.0330
62028W        W 4940   5.750  18.272   9.657 -0.1153  0.2181  0.1843
62029W        W 4941   3.991  19.645   9.169 -0.0195  0.4012  0.3284
62030W        W 4942   2.523  18.606   8.234  0.0634  0.0403 -0.2475
62031W        W 4943   1.581  22.109   9.629 -0.0667 -0.0291 -0.1367
62032W        W 4944   0.501  17.971   7.371  0.1790 -0.1928 -0.1810
62033W        W 4945   1.321  22.075   9.138  0.1061  0.0598 -0.0293
62034W        W 4946   2.966  21.222   7.938 -0.0049 -0.1995 -0.3127
62035W        W 4947   2.846  19.094   8.197  0.1833  0.3289  0.0258
62036W        W 4948   1.635  18.993   8.318  0.0646  0.0309  0.2022
62037W        W 4949   1.345  19.625   6.920 -0.1277 -0.2569  0.1032
62038W        W 4950   1.733  19.653   7.275  0.0255  0.4948 -0.3805
62039W        W 4951   3.297  19.104   9.718 -0.1339 -0.1618 -0.1456
62040W        W 4952   2.930  17.898   8.890  0.1649 -0.1633 -0.0039
62041W        W 4953   0.089  22.285   7.680  0.0586 -0.1453 -0.0572
62042W        W 4954   2.319  18.632   8.962  0.1555  0.0389  0.0113
62043W        W 4955   1.109  22.556   9.990 -0.2270 -0.1560 -0.2674
62044W        W 4956   0.933  20.659   9.171 -0.0233 -0.1820  0.1755
62045W        W 4957   2.052  17.415   9.505  0.0149  0.2306 -0.1920
62046W        W 4958   2.331  18.945   8.561 -0.1178 -0.1564 -0.2529
62047W        W 4959   3.476  20.798   9.865  0.2899  0.0638 -0.1977
62048W        W 4960   2.021  20.646   8.717  0.0838 -0.0307  0.0545
62049W        W 4961   3.086  19.598   9.111  0.1808  0.1000  0.2644
62050W        W 4962   1.254  20.176   9.097 -0.3350  0.0210 -0.0216
62051W        W 4963   4.782  20.480   9.826 -0.1717 -0.0666  0.1918
62052W        W 4964   0.590  18.026   8.775 -0.1018  0.0048 -0.1242
62053W        W 4965   1.934  21.062   7.816  0.0122 -0.0365 -0.0821
62054W        W 4966   1.209  19.999   9.680 -0.0021  0.1191  0.1966
62055W        W 4967   0.907  22.136   8.323  0.1340  0.0025  0.0286
62056W        W 4968   2.884  21.407   6.859 -0.0331  0.0171  0.2493
62057W        W 4969   2.032  21.282   6.932 -0.0738 -0.2025  0.0468
62058W        W 4970   3.090  22.498   8.689  0.0811  0.0359 -0.1518
62059W        W 4971   1.965  18.261   8.779 -0.0479  0.1003 -0.3391
62060W        W 4972   2.378  22.351   9.718 -0.0468 -0.0193 -0.1755
62061W        W 4973   0.733  20.408   7.236  0.2678  0.0433 -0.4634
62062W        W 4974   3.201  20.985   7.585  0.3115 -0.0308 -0.1138
62063W        W 4975   0.741  22.224   7.471 -0.2250  0.1072 -0.0279
62064W        W 4976   3.925  19.045   7.221  0.1917  0.0217  0.1299
62065W        W 4977   3.183  19.912   8.702  0.2653 -0.0207  0.0146
62066W        W 4978   4.274  19.411   9.497  0.1532  0.0332 -0.2071
62067W        W 4979   1.715  20.096   8.268  0.2791  0.2278  0.0605
62068W        W 4980   2.345  18.837   6.425  0.0944 -0.1213  0.1271
62069W        W 4981   4.021  21.591   7.779  0.0019 -0.1484  0.0823
62070W        W 4982  33.973  17.872   7.543 -0.0930 -0.3132 -0.1548
62071W        W 4983   1.430  21.262   9.620  0.1470  0.1419 -0.0124
62072W        W 4984   4.057  17.397   9.320 -0.0466 -0.2823 -0.0260
62073W        W 4985   1.006  18.167   7.419 -0.1097 -0.2508 -0.2702
62074W        W 4986   2.486  19.891   7.765  0.2744  0.2186 -0.1033
62075W        W 4987   1.133  21.682   8.885  0.1819  0.0133 -0.1069
62076W        W 4988   3.947  23.424   9.801 -0.0510 -0.0291 -0.2185
62077W        W 4989  34.029  22.952   9.605  0.1961 -0.0607 -0.2649
62078W        W 4990  34.258  17.707   7.140 -0.1428 -0.0685  0.0205
62079W        W 4991   4.016  19.494   8.622 -0.1028  0.0922 -0.3774
62080W        W 4992   2.533  17.625   9.648 -0.2914 -0.3313  0.1228
62081W        W 4993   0.803  21.329   8.483  0.5556 -0.0240  0.4116
62082W        W 4994   3.779  18.017   9.962  0.2209  0.0672 -0.0131
62083W        W 4995   3.600  21.676   8.892 -0.1323  0.0865  0.1537
62084W        W 4996   0.910  18.392   9.564 -0.3274 -0.1710 -0.0707
62085W        W 4997   1.540  18.802   7.390 -0.2590 -0.2843 -0.1225
62086W        W 4998   3.020  20.861   7.152 -0.0399 -0.0541 -0.0451
62087W        W 4999  34.413  19.165   9.331 -0.1285  0.1840 -0.1826
62088W        W 5000   2.477  17.989   7.545  0.0812 -0.0636 -0.4084
62089W        W 5001   2.351  20.027   8.620  0.1449  0.3061 -0.0084
62090W        W 5002   1.393  20.822   9.359  0.2432  0.0486 -0.0637
62091W        W 5003  33.760  17.296   9.893  0.0259 -0.2921  0.0559
62092W        W 5004   2.902  19.556   7.780 -0.6233  0.3991 -0.1816
62093W        W 5005   3.444  18.612   9.488  0.2020  0.0004  0.0794
62094W        W 5006   2.224  22.740   8.324  0.1611 -0.1919  0.0620
62095W        W 5007   3.178  19.951   8.095 -0.1067 -0.0258 -0.1832
62096W        W 5008   4.309  20.862   9.059 -0.0234 -0.0531  0.0956
62097W        W 5009  34.048  19.413   9.045  0.0683 -0.1968 -0.0392
62098W        W 5010   2.498  22.867   9.857  0.2456 -0.0023 -0.1887
62099W        W 5011   2.856  22.551   9.617  0.0853  0.3179  0.2757
62100W        W 5012   2.085  17.813   8.616  0.0379 -0.0167  0.0134
62101W        W 5013   1.518  18.286   7.565 -0.1050 -0.3131  0.1573
62102W        W 5014  34.649  21.412   7.578 -0.0081  0.2537 -0.0705
62103W        W 5015   5.305  18.207   9.411 -0.2409 -0.0406 -0.0059
62104W        W 5016   1.166  21.752   6.898 -0.3073  0.0793 -0.0433
62105W        W 5017   1.588  21.658   8.760  0.1296  0.1702 -0.0263
62106W        W 5018   1.896  19.696   6.737  0.0346  0.3964  0.0811
62107W        W 5019   2.085  21.586   8.498 -0.0201  0.1379 -0.2313
62108W        W 5020   1.309  22.209   7.687  0.1821  0.0455  0.0082
62109W        W 5021   0.794  22.583   9.611 -0.2342  0.1879 -0.0984
62110W        W 5022   2.022  19.276   8.200  0.2030 -0.1227  0.0384
62111W        W 5023   3.976  20.431   8.694  0.0372  0.1966 -0.0047
62112W        W 5024   4.386  19.839   9.853  0.1569  0.1685 -0.2517
62113W        W 5025   4.089  17.557   8.619 -0.0101 -0.1877 -0.0841
62114W        W 5026   3.402  17.992   8.811 -0.0330 -0.2598 -0.1090
62115W        W 5027   1.789  21.212   8.690 -0.3120 -0.0298 -0.3566
62116W        W 5028   0.033  18.599   8.095 -0.0979  0.0190  0.2886
62117W        W 5029   0.798  20.383   6.164 -0.1794  0.1779 -0.1611
62118W        W 5030   0.467  20.490   8.882 -0.0111 -0.1896 -0.1059
62119W        W 5031   0.802  21.439   9.234 -0.2885  0.2711  0.0464
62120W        W 5032   0.544  18.549   8.783  0.2199  0.1136  0.0633
62121W        W 5033   2.520  22.494   8.694 -0.0349  0.0470 -0.0759
62122W        W 5034  33.888  20.197   9.158 -0.0956 -0.6640 -0.1105
62123W        W 5035  33.597  19.586   9.857 -0.2655 -0.1866 -0.2702
62124W        W 5036   3.937  21.228   9.158 -0.1107 -0.1099  0.1118
62125W        W 5037   3.393  21.071   8.212  0.2705 -0.0791 -0.1163
62126W        W 5038   2.363  18.372   6.849  0.0461 -0.0499 -0.1439
62127W        W 5039   0.241  20.386   6.118  0.0488  0.1879 -0.3943
62128W        W 5040   0.891  18.882   7.153 -0.1751  0.0546  0.1139
62129W        W 5041   2.583  18.255   8.656 -0.2897  0.2631 -0.2983
62130W        W 5042   3.501  22.253   9.958 -0.0616  0.0609  0.0174
62131W        W 5043   2.690  21.668   7.842  0.0301  0.0944 -0.1863
62132W        W 5044   3.040  20.102   9.469  0.0112 -0.1402 -0.0992
62133W        W 5045   2.519  19.406   8.413 -0.2287  0.0448  0.1320
62134W        W 5046   3.591  20.659   7.477  0.0701  0.3365  0.1178
62135W        W 5047   4.574  21.597   8.546 -0.0457  0.1484 -0.0156
62136W        W 5048   3.619  19.765   8.303  0.0178  0.2480  0.4017
62137W        W 5049   4.964  20.323   8.115 -0.0513 -0.1275  0.2803
62138W        W 5050   1.469  18.590   8.675  0.1840 -0.2893  0.0714
62139W        W 5051   3.773  19.195   8.971  0.0930  0.0902 -0.2509
62140W        W 5052   2.909  20.933   8.431 -0.1031  0.2401  0.0057
62141W        W 5053   1.041  19.348   8.391 -0.3345  0.3028 -0.0313
62142W        W 5054   1.864  18.593   8.395 -0.0345  0.3734 -0.1455
62143W        W 5055   2.200  21.083   8.315  0.2806  0.1929 -0.0629
62144W        W 5056   2.491  19.466   9.410 -0.4999  0.0722  0.1574
62145W        W 5057   5.134  19.591   7.633 -0.1732 -0.0870  0.0704
62146W        W 5058   3.576  23.483   9.370 -0.0993  0.0086  0.0674
62147W        W 5059   1.985  22.408   9.439  0.0581  0.1357  0.2263
62148W        W 5060   4.904  20.780   9.449  0.1236 -0.1293  0.1624
62149W        W 5061  34.531  16.212   8.867 -0.1916  0.1402 -0.0152
62150W        W 5062   1.284  19.169   7.888 -0.0535  0.0122 -0.4196
62151W        W 5063   1.956  19.768   8.853  0.3646 -0.1758 -0.1321
62152W        W 5064   3.154  21.373   9.618  0.1900 -0.1201 -0.1483
62153W        W 5065   1.524  18.171   9.036  0.3421  0.0864  0.1289
62154W        W 5066   2.965  17.334   8.540  0.3363 -0.2293  0.3934
62155W        W 5067   1.088  22.520   9.134 -0.0812  0.1663  0.0663
62156W        W 5068   1.777  19.999   9.297  0.2652 -0.0939 -0.2036
62157W        W 5069   0.396  24.273   2.839  0.0995  0.1170  0.1882
62158W        W 5070   0.502  24.084   1.815 -0.2886 -0.1350 -0.1657
62159W        W 5071   3.148  22.570  31.368 -0.2021 -0.0529  0.0273
62160W        W 5072   3.473  24.544   1.141 -0.1023 -0.2378  0.1353
62161W        W 5073  34.041  22.534   0.146 -0.0660  0.0607  0.0162
62162W        W 5074   1.116  26.039   1.483  0.0657 -0.1447 -0.0918
62163W        W 5075   1.382  21.903   3.371  0.0466  0.0330  0.0966
62164W        W 5076   2.278  24.243   1.074  0.1645 -0.0617  0.2715
62165W        W 5077   3.220  24.603   1.596 -0.0510  0.0827  0.1666
62166W        W 5078   3.414  24.926  30.198 -0.1844  0.0413 -0.1293
62167W        W 5079   1.471  22.978   1.880  0.2140  0.0440 -0.1728
62168W        W 5080   1.659  25.724   3.010  0.2509 -0.0223  0.0596
62169W        W 5081   0.026  21.224  31.984  0.1604 -0.2669  0.0594
62170W        W 5082  34.048  23.239   2.013  0.1124  0.1805  0.2145
62171W        W 5083   3.194  24.279   2.665 -0.2817  0.0591 -0.0285
62172W        W 5084   0.919  23.757   0.257 -0.2379  0.0194 -0.0819
62173W        W 5085   1.308  22.746   2.298  0.0787 -0.1266  0.0868
62174W        W 5086   0.963  23.007   0.414 -0.1727  0.3929  0.1691
62175W        W 5087   2.260  25.886   0.973 -0.1259 -0.0124 -0.1200
62176W        W 5088  34.578  23.337   2.964  0.1225  0.0337  0.1939
62177W        W 5089   2.070  23.548   2.440 -0.0378 -0.0965  0.1476
62178W        W 5090   1.639  25.521   0.304  0.1126  0.1144 -0.2992
62179W        W 5091   1.428  24.208  31.942  0.0015  0.0269  0.5635
62180W        W 5092  33.659  23.548   1.945  0.0759  0.0256 -0.1443
62181W        W 5093   2.006  24.285   1.767  0.4892 -0.1852 -0.3284
62182W        W 5094   3.890  22.882   2.130  0.2708  0.0819  0.0459
62183W        W 5095   2.657  25.300   1.042  0.2347 -0.0059  0.0071
62184W        W 5096   2.322  26.934   0.551  0.2279  0.0611  0.0305
62185W        W 5097   2.154  26.441   0.655  0.1076  0.3334  0.1364
62186W        W 5098   4.675  23.992   3.590  0.1793 -0.0681  0.1398
62187W        W 5099   1.008  24.190   1.738  0.2709 -0.1526 -0.0987
62188W        W 5100   0.210  26.245   1.485  0.2208  0.1074 -0.3312
62189W        W 5101   0.838  25.517   1.427 -0.0529  0.1157 -0.0929
62190W        W 5102   2.416  24.439   0.379 -0.3209  0.1386  0.1172
62191W        W 5103   4.027  25.079   1.433 -0.2013  0.1513  0.1108
62192W        W 5104   1.597  26.324   3.985  0.2288 -0.0952  0.1598
62193W        W 5105   0.844  24.740   0.171 -0.2185 -0.1540 -0.1557
62194W        W 5106   2.261  25.514   3.464 -0.2146  0.2646  0.1945
62195W        W 5107   1.231  24.963   2.358  0.0727 -0.0085 -0.4263
62196W        W 5108   1.992  25.458   2.738  0.3207 -0.2349  0.1254
62197W        W 5109   3.416  23.883   0.573 -0.2442 -0.0376 -0.0909
62198W        W 5110   0.931  25.539   0.167  0.1231 -0.0061 -0.2589
62199W        W 5111   2.787  24.319  31.414 -0.0594 -0.0950 -0.1151
62200W        W 5112   1.573  24.715   2.828 -0.3810  0.0349  0.1254
62201W        W 5113   1.678  24.902   1.526 -0.0262  0.1657 -0.0726
62202W        W 5114   3.046  22.305   3.656 -0.0556  0.1366 -0.2214
62203W        W 5115   0.390  24.996   0.206 -0.1872  0.2173 -0.1115
62204W        W 5116   1.894  24.053   1.241  0.1485  0.2369 -0.0850
62205W        W 5117   1.335  22.575  31.874  0.1728  0.1459  0.1580
62206W        W 5118   1.679  23.269   0.294 -0.3239  0.0354 -0.3397
62207W        W 5119   1.018  22.856   1.920 -0.0477  0.0422 -0.0132
62208W        W 5120   1.474  25.107   1.923 -0.2535  0.0251 -0.3154
62209W        W 5121   0.023  22.404   3.300 -0.1706  0.1583 -0.3001
62210W        W 5122   2.938  25.375   2.657  0.1358 -0.4165  0.3159
62211W        W 5123   0.481  24.166   0.650  0.0372  0.0410  0.3289
62212W        W 5124   2.653  24.609   2.345 -0.1913 -0.1917 -0.1937
62213W        W 5125   0.573  25.036   2.508  0.0835  0.0746 -0.0338
62214W        W 5126  34.411  22.536   1.104  0.1889  0.0058  0.2691
62215W        W 5127   2.613  23.752   0.167  0.4508 -0.1746  0.2214
62216W        W 5128   3.777  25.174  31.908  0.0692  0.1914  0.1025
62217W        W 5129   3.815  26.329  30.526 -0.3301 -0.0543 -0.0794
62218W        W 5130   0.004  23.424   1.125  0.0392  0.0365  0.1611
62219W        W 5131   0.227  23.762   2.680  0.0955  0.0958 -0.1035
62220W        W 5132   0.592  22.793   4.169 -0.0652 -0.1165 -0.0667
62221W        W 5133   3.345  22.016  31.719  0.3100 -0.2162 -0.3368
62222W        W 5134   4.218  25.429   3.919  0.1615  0.1337 -0.1158
62223W        W 5135   0.004  25.184   2.633  0.2225 -0.0721 -0.0924
62224W        W 5136   2.443  23.214   1.132 -0.1370 -0.0561 -0.3817
62225W        W 5137   2.298  26.060   0.284  0.2866  0.0741 -0.0149
62226W        W 5138   3.065  25.045   1.389  0.0761  0.3130 -0.0299
62227W        W 5139   4.187  25.279  31.579 -0.0741  0.1096 -0.3513
62228W        W 5140   1.975  22.749   1.930  0.0330 -0.1145 -0.0345
62229W        W 5141   2.419  23.167   2.726 -0.4413  0.0041  0.1158
62230W        W 5142   0.578  23.292   1.101  0.4565 -0.0292  0.0784
62231W        W 5143   1.266  25.174   1.411 -0.1549  0.1856 -0.1354
62232W        W 5144   2.939  24.539   3.062 -0.1916  0.0899 -0.0705
62233W        W 5145   3.363  24.187   0.119  0.2738  0.0160 -0.0358
62234W        W 5146   1.324  25.536   2.220 -0.0843 -0.0371  0.0942
62235W        W 5147   0.773  22.362   3.959  0.0936 -0.2996  0.0594
62236W        W 5148   1.802  24.976   2.443 -0.1383  0.0699  0.0747
62237W        W 5149  34.280  24.488   1.105 -0.0649 -0.3121 -0.1397
62238W        W 5150   0.891  24.647   2.121 -0.1886 -0.0378 -0.0486
62239W        W 5151   1.042  23.516   1.101  0.4040  0.1539  0.1268
62240W        W 5152  34.632  21.718   1.319  0.1132  0.0428  0.1415
62241W        W 5153   2.144  25.709   1.872 -0.0084 -0.3038  0.0155
62242W        W 5154   3.236  23.445   1.768  0.2182  0.5398  0.0410
62243W        W 5155   0.783  23.811   2.071 -0.1504 -0.2394  0.0176
62244W        W 5156   3.025  22.654   1.840 -0.2972  0.0988 -0.0500
62245W        W 5157   0.454  23.749   0.996 -0.0544  0.0550 -0.1990
62246W        W 5158   3.176  25.530   0.396  0.5158  0.2758 -0.0705
62247W        W 5159   4.262  23.824   1.521  0.0299 -0.1455  0.1968
62248W        W 5160   2.437  24.882  31.523  0.0389  0.1688  0.0175
62249W        W 5161  34.481  23.900   2.816  0.1840  0.0726  0.3914
62250W        W 5162   0.193  22.977   1.064 -0.4445 -0.1658 -0.0534
62251W        W 5163   0.901  21.722   4.110  0.1134 -0.0547  0.4254
62252W        W 5164  33.988  22.141   2.528 -0.0837 -0.0315 -0.2285
62253W        W 5165   3.135  23.568   2.955  0.0675 -0.1588 -0.0147
62254W        W 5166   0.848  22.728   0.006  0.1651 -0.1542 -0.2282
62255W        W 5167   2.751  23.771   1.979  0.1465  0.1292  0.0911
62256W        W 5168   1.280  24.723   0.502 -0.0406 -0.0033 -0.0805
62257W        W 5169  34.676  22.897   2.543  0.1446  0.1302  0.0982
62258W        W 5170   2.520  23.250   3.268  0.2893 -0.3306  0.0742
62259W        W 5171   1.505  25.407  31.791  0.2054 -0.3332  0.2912
62260W        W 5172   3.930  25.898   1.923  0.4773  0.0972 -0.2337
62261W        W 5173   4.466  24.840   1.169 -0.2092 -0.0825  0.0012
62262W        W 5174   0.527  22.080   3.117  0.2339 -0.2754 -0.1001
62263W        W 5175  33.466  22.996   0.299 -0.1804 -0.3467 -0.3423
62264W        W 5176   0.333  24.935   1.972  0.1977 -0.0153 -0.0589
62265W        W 5177   1.685  26.250   0.693  0.2773 -0.3781  0.0169
62266W        W 5178   1.198  22.385   0.387  0.1096  0.2540  0.3109
62267W        W 5179   4.217  25.497   1.683 -0.2545 -0.2606  0.3835
62268W        W 5180   1.768  24.534   1.052 -0.4233 -0.1288 -0.0532
62269W        W 5181   0.676  23.710   2.988  0.0906  0.2490 -0.1354
62270W        W 5182   2.707  22.853   2.455  0.0359 -0.0078 -0.2228
62271W        W 5183   3.529  24.569   2.397 -0.1453  0.1323 -0.0392
62272W        W 5184   2.292  23.015   1.629  0.2065 -0.3265  0.1587
62273W        W 5185  34.639  22.390   0.289 -0.0909 -0.3469  0.1621
62274W        W 5186   1.955  26.357   1.121  0.1221 -0.0132 -0.0234
62275W        W 5187   0.752  25.034   1.509 -0.3972 -0.0566  0.0105
62276W        W 5188  34.595  23.454   1.919  0.0155  0.1561 -0.0485
62277W        W 5189   2.520  25.113   0.594 -0.2411  0.0349 -0.1450
62278W        W 5190   2.626  25.169   1.634 -0.1689 -0.0839  0.0501
62279W        W 5191  34.304  22.934   4.629  0.2459  0.1291  0.1967
62280W        W 5192   4.003  23.293   4.119 -0.1733  0.3652  0.1477
62281W        W 5193   0.213  22.571  31.828 -0.1734  0.3161 -0.5200
62282W        W 5194   0.640  24.969   3.764 -0.2292  0.0220 -0.0894
62283W        W 5195   2.168  23.735   0.905  0.0539 -0.0736 -0.0083
62284W        W 5196   3.417  22.489   0.583  0.0092  0.0334 -0.3590
62285W        W 5197   1.882  22.966   4.570 -0.1345  0.1786  0.1520
62286W        W 5198   2.949  24.203   0.797  0.0816  0.2530 -0.1630
62287W        W 5199   3.144  23.496  31.615  0.3281  0.0264  0.3020
62288W        W 5200   2.321  21.136  30.548  0.0593 -0.3360 -0.3254
62289W        W 5201   1.436  24.472   3.230  0.1568 -0.2158 -0.3582
62290W        W 5202   2.114  25.492  30.816 -0.3990 -0.0059 -0.1020
62291W        W 5203   3.095  26.359   1.133  0.0293 -0.2708 -0.3027
62292W        W 5204   3.138  22.991  31.825 -0.4123 -0.0942  0.0571
62293W        W 5205   4.028  24.698   0.998  0.2754  0.1431 -0.0203
62294W        W 5206   2.016  24.623   3.356  0.1212 -0.1803 -0.3095
62295W        W 5207   1.745  23.620   4.170 -0.2971  0.0161  0.3402
62296W        W 5208   3.339  25.564  31.893 -0.0100 -0.2853  0.1243
62297W        W 5209   0.856  23.381   1.559 -0.2398  0.2273  0.1289
62298W        W 5210   0.884  24.374  31.774 -0.2000 -0.1293 -0.3137
62299W        W 5211   1.465  22.833   0.469 -0.3845 -0.0378 -0.1600
62300W        W 5212  33.750  25.356   0.225 -0.4100 -0.3181 -0.1399
62301W        W 5213   3.125  22.408   3.148 -0.0676  0.0131 -0.0689
62302W        W 5214   2.199  22.671   2.328 -0.0838 -0.0986  0.3020
62303W        W 5215   1.195  23.548   3.246  0.1866  0.1043 -0.2283
62304W        W 5216   2.970  24.237   2.116  0.2345  0.2291  0.1890
62305W        W 5217   2.623  23.785   1.200 -0.0219 -0.0234 -0.5098
62306W        W 5218   2.106  24.588   1.416 -0.1442  0.0048 -0.0073
62307W        W 5219   1.439  23.650   0.087 -0.1258  0.2399  0.1271
62308W        W 5220   2.877  22.854   3.560  0.1910  0.0426  0.0514
62309W        W 5221   2.046  24.131   3.253  0.3848  0.1646 -0.2399
62310W        W 5222   0.363  25.501   2.590  0.1675  0.1923  0.1426
62311W        W 5223   1.885  25.005   3.644  0.2122  0.1765  0.0904
62312W        W 5224   2.299  25.535   1.294  0.1988  0.0660 -0.1413
62313W        W 5225   2.413  23.549   3.844  0.3228 -0.0876  0.2229
62314W        W 5226   1.318  21.918   0.179  0.2602 -0.1199 -0.3603
62315W        W 5227   0.852  25.999   1.043 -0.2227 -0.1577  0.1977
62316W        W 5228   2.558  24.606   0.864  0.1874 -0.0966  0.3018
62317W        W 5229   0.833  22.569   2.472 -0.2082  0.0553 -0.2776
62318W        W 5230   0.530  26.171   1.903  0.5785 -0.5088  0.0321
62319W        W 5231   0.547  24.347   0.184  0.0323  0.1441 -0.1958
62320W        W 5232   2.362  25.615   2.386 -0.2190  0.2882  0.0477
62321W        W 5233   0.130  24.357   0.895  0.0993  0.1245 -0.1720
62322W        W 5234   3.828  22.894   3.037 -0.1818 -0.3211  0.0233
62323W        W 5235   1.833  25.391   2.125  0.0921 -0.2624 -0.0815
62324W        W 5236   1.451  23.201  31.731  0.0177  0.0776  0.1619
62325W        W 5237   0.070  24.278   0.404  0.2004 -0.0220 -0.0350
62326W        W 5238   3.084  22.443   0.132  0.1719 -0.2060 -0.0513
62327W        W 5239   5.055  24.404   2.836 -0.2949 -0.0703  0.0402
62328W        W 5240  34.362  23.800   1.194 -0.0652  0.0939 -0.5422
62329W        W 5241   1.319  23.220   1.501 -0.1035  0.1748  0.1298
62330W        W 5242   0.510  25.391   2.094  0.0430 -0.1311 -0.0018
62331W        W 5243   2.895  24.896   2.611 -0.0259  0.0295 -0.2049
62332W        W 5244   2.444  22.212  31.173  0.1948 -0.3455 -0.0011
62333W        W 5245   4.231  24.906   1.875  0.3837  0.0766 -0.3021
62334W        W 5246   1.680  23.709   3.274 -0.3765  0.1835 -0.1055
62335W        W 5247   0.011  23.431   0.236 -0.0187  0.1168 -0.2896
62336W        W 5248   4.310  24.096   2.268  0.2434 -0.1799  0.2511
62337W        W 5249   1.314  23.317   2.254 -0.2512 -0.0045 -0.0957
62338W        W 5250   0.556  24.716   1.025 -0.1495 -0.0495 -0.0760
62339W        W 5251   2.953  24.002   3.035  0.0544  0.0674  0.0858
62340W        W 5252   0.254  23.282   0.645  0.0208 -0.0031  0.1379
62341W        W 5253   1.271  24.064   2.982  0.0072  0.3129 -0.0523
62342W        W 5254   0.325  22.904   3.116  0.1974 -0.1111  0.1634
62343W        W 5255   2.299  23.995   2.588 -0.1238  0.0515  0.1123
62344W        W 5256   0.987  22.988   1.222  0.1669  0.4633  0.0962
62345W        W 5257   0.140  22.962   2.038  0.0827 -0.3186 -0.0694
62346W        W 5258   1.534  23.591   1.163  0.0103  0.1644  0.0652
62347W        W 5259   3.083  25.706   0.874  0.2467 -0.1998 -0.1222
62348W        W 5260   2.034  24.403   2.872  0.0086 -0.1374 -0.0600
62349W        W 5261   0.263  25.838   3.367 -0.0781 -0.2264 -0.1860
62350W        W 5262   1.354  22.394   2.624 -0.0649  0.0071  0.0193
62351W        W 5263   4.488  27.129   0.596  0.1084 -0.1141 -0.1252
62352W        W 5264   1.905  23.048   5.505 -0.0039 -0.0638 -0.4743
62353W        W 5265   1.546  24.419   1.481  0.2487  0.1547 -0.0193
62354W        W 5266   0.563  24.265   2.303  0.0389 -0.0527 -0.0297
62355W        W 5267   1.631  24.936   0.832 -0.1758 -0.1236  0.3906
62356W        W 5268   2.338  24.026   1.565  0.0304 -0.0881  0.0548
62357W        W 5269   1.932  24.837   1.923  0.0708  0.1621  0.2536
62358W        W 5270  34.255  25.774  30.917 -0.3197  0.2048  0.3928
62359W        W 5271  32.742  24.400   1.561  0.0266  0.0450  0.0054
62360W        W 5272   4.332  23.842   0.086 -0.0010 -0.1756 -0.0326
62361W        W 5273   2.452  25.053  30.625  0.1257  0.3501  0.0352
62362W        W 5274   0.771  23.441   0.673 -0.0746  0.0942 -0.0682
62363W        W 5275   3.979  22.588   3.452 -0.2038 -0.0446  0.0238
62364W        W 5276   3.121  23.922  31.083  0.1064 -0.0371  0.2699
62365W        W 5277   2.107  22.222   2.787  0.2329  0.1295 -0.3086
62366W        W 5278   4.300  22.946   2.711 -0.2591 -0.0686  0.0811
62367W        W 5279   0.845  23.259   3.028  0.0436 -0.1046  0.0760
62368W        W 5280   2.401  25.096   2.677 -0.0365 -0.1028  0.1286
62369W        W 5281   1.411  23.217   4.165  0.1777  0.1944 -0.0050
62370W        W 5282   2.136  23.554   1.380 -0.0441  0.2192  0.2632
62371W        W 5283   2.404  22.410  31.597  0.5811  0.0164 -0.1244
62372W        W 5284   2.013  25.244   1.652  0.3886 -0.1313  0.1187
62373W        W 5285   3.434  24.345   1.932 -0.2043 -0.1510 -0.1023
62374W        W 5286   2.720  24.847  31.010 -0.2192  0.1008 -0.1240
62375W        W 5287   3.335  23.820   2.550 -0.1501  0.4882  0.1590
62376W        W 5288   1.063  23.273   3.754  0.2536 -0.2578  0.3952
62377W        W 5289   2.710  23.206  31.822 -0.4445 -0.1244  0.1938
62378W        W 5290   0.718  23.833   1.383  0.0392 -0.0083 -0.3726
62379W        W 5291   0.230  24.670   2.410 -0.0151  0.3238  0.1760
62380W        W 5292   0.334  21.950   2.653  0.0086 -0.1352 -0.2970
62381W        W 5293   3.527  25.013   1.515 -0.1456  0.1215 -0.4306
62382W        W 5294   2.729  24.394   1.720 -0.2670  0.1796  0.0122
62383W        W 5295   2.349  23.142   2.149 -0.0566  0.1808  0.0024
62384W        W 5296   2.966  24.080   3.560  0.0092  0.1936 -0.1719
62385W        W 5297   0.656  23.361   3.451 -0.5181  0.1401 -0.0461
62386W        W 5298   1.058  22.189   3.073  0.1952 -0.0442  0.2819
62387W        W 5299   3.496  25.933   1.123  0.3273 -0.1562 -0.3474
62388W        W 5300   3.652  23.314  31.633  0.1431 -0.1516 -0.3109
62389W        W 5301   3.331  23.109   3.681 -0.0497 -0.1917 -0.3585
62390W        W 5302   4.386  23.070   2.128  0.3449  0.2763 -0.1480
62391W        W 5303   1.356  22.609   1.264 -0.0075 -0.0155  0.1588
62392W        W 5304   0.483  22.898   2.426 -0.0954 -0.1412  0.2114
62393W        W 5305   3.193  23.637   3.466 -0.2246  0.2118 -0.1562
62394W        W 5306  34.351  22.354  31.748  0.2032 -0.0647  0.1641
62395W        W 5307   3.098  23.175   3.230  0.3550 -0.0008 -0.0526
62396W        W 5308   2.397  25.302  31.187 -0.1614 -0.0789  0.0201
62397W        W 5309   2.423  26.049   1.477  0.0102  0.2531  0.1388
62398W        W 5310   3.523  23.696   0.059 -0.0359 -0.0676  0.0486
62399W        W 5311  33.928  23.575   1.045 -0.2124  0.1660 -0.0462
62400W        W 5312   0.870  24.018   2.685  0.4636 -0.0632  0.0253
62401W        W 5313   1.699  22.320   0.288  0.2891  0.0736  0.1339
62402W        W 5314   3.021  23.781   1.485  0.0866  0.0154 -0.0617
62403W        W 5315   2.346  25.152   2.153 -0.0388  0.0086  0.3159
62404W        W 5316   3.598  24.585   3.179  0.3931 -0.1429 -0.0547
62405W        W 5317   2.892  21.936  31.285  0.1534  0.0841 -0.1877
62406W        W 5318   3.351  22.600   3.962 -0.0893  0.0059 -0.0797
62407W        W 5319   0.907  24.539  31.280  0.1717  0.2361  0.1282
62408W        W 5320   2.177  22.491   0.027 -0.2341  0.0429  0.1276
62409W        W 5321   0.866  25.512   2.406 -0.2252  0.1605 -0.0616
62410W        W 5322  34.020  24.622   1.696  0.4042 -0.1331 -0.0342
62411W        W 5323   2.129  26.853   1.025 -0.3467  0.0233  0.0043
62412W        W 5324   2.846  23.113   1.990  0.0165  0.1653 -0.1675
62413W        W 5325   3.420  24.115   1.394 -0.1054 -0.0254 -0.1578
62414W        W 5326   1.222  23.621   1.881  0.2052  0.0164 -0.1888
62415W        W 5327   4.150  24.108   2.834 -0.2833  0.2207 -0.1718
62416W        W 5328   2.830  25.935   3.924 -0.3363 -0.0773  0.1397
62417W        W 5329   0.248  23.873   2.169  0.1880  0.1546 -0.2086
62418W        W 5330   2.843  26.042   0.269  0.1817  0.2259  0.0368
62419W        W 5331   5.775  24.903   0.559 -0.1271 -0.1003  0.1907
62420W        W 5332   1.441  24.070   1.017 -0.3213 -0.0625 -0.2372
62421W        W 5333  34.527  22.005   2.600 -0.0245 -0.2117  0.0139
62422W        W 5334   2.172  21.963   4.470  0.1511 -0.0543 -0.0058
62423W        W 5335   3.280  23.861   2.017 -0.1054  0.1261 -0.2042
62424W        W 5336   0.835  21.931   0.412  0.3758 -0.1400  0.2978
62425W        W 5337   0.991  26.285  31.260 -0.0897  0.0880  0.0039
62426W        W 5338   0.978  25.185   5.178  0.0426  0.1267  0.0773
62427W        W 5339   2.207  23.700   1.914 -0.0355  0.1286 -0.1801
62428W        W 5340   0.874  24.476   0.768 -0.0683  0.0802 -0.1363
62429W        W 5341   2.544  25.650   0.628  0.0572  0.3702 -0.2928
62430W        W 5342   3.093  26.047  31.117  0.0933  0.0532  0.0133
62431W        W 5343   2.878  25.951   2.593  0.3256 -0.1340 -0.2230
62432W        W 5344   0.465  23.228  31.324  0.1440  0.0204 -0.1241
62433W        W 5345   1.802  26.387   1.973 -0.0527  0.2158 -0.1999
62434W        W 5346  33.276  25.172   0.458 -0.0427  0.4427  0.1527
62435W        W 5347   3.684  25.682  30.522  0.1922 -0.1164 -0.0483
62436W        W 5348   1.357  25.290   0.615  0.0896 -0.2339 -0.2837
62437W        W 5349   3.374  24.071   3.315  0.1015  0.0532  0.2081
62438W        W 5350   3.781  21.478  31.291 -0.0680  0.1585 -0.3297
62439W        W 5351   3.695  22.356   1.718 -0.3964 -0.2664  0.0801
62440W        W 5352   3.469  23.115   0.186 -0.0377 -0.0384 -0.0650
62441W        W 5353   4.041  24.387   1.978 -0.0302  0.0374  0.5481
62442W        W 5354   1.770  23.812   1.655  0.2517  0.1482  0.0936
62443W        W 5355   2.048  23.021  30.961  0.0818 -0.0784 -0.0983
62444W        W 5356   1.292  23.879   2.451 -0.2882  0.1220 -0.1147
62445W        W 5357   3.001  22.988   4.040  0.3203 -0.0120 -0.5587
62446W        W 5358  34.280  24.651   2.476 -0.1465  0.2251 -0.0368
62447W        W 5359   4.082  26.679  31.976  0.0782  0.0618 -0.0757
62448W        W 5360  33.805  23.762   1.504  0.0088 -0.0476 -0.2137
62449W        W 5361   1.685  25.628   1.452  0.2319 -0.0011  0.1991
62450W        W 5362   4.655  22.413   1.624  0.2309  0.1409  0.1958
62451W        W 5363   2.418  24.156  31.854 -0.1415  0.1800  0.0946
62452W        W 5364   0.477  23.567   1.768  0.0251  0.1690 -0.3225
62453W        W 5365   1.072  27.290   1.658 -0.2048 -0.0657 -0.0927
62454W        W 5366  34.696  25.897   2.419  0.1427 -0.1914  0.0495
62455W        W 5367   1.499  25.248   2.727  0.0584  0.4495  0.1525
62456W        W 5368  33.712  22.107   0.263 -0.1864 -0.0383 -0.1146
62457W        W 5369   3.746  23.430   0.647  0.0201  0.5553 -0.0434
62458W        W 5370   1.850  23.887   2.822 -0.5399 -0.1190  0.1521
62459W        W 5371   5.111  23.150   2.090 -0.0242 -0.3449 -0.0380
62460W        W 5372  34.162  23.414   1.475 -0.2372  0.3989 -0.0860
62461W        W 5373   2.877  24.201   1.270 -0.0878  0.0230 -0.1208
62462W        W 5374   2.515  24.211   3.038 -0.1946  0.0934 -0.3284
62463W        W 5375  34.197  22.639   2.432 -0.2875 -0.0511  0.0528
62464W        W 5376   2.722  23.451  31.337  0.0162  0.1320  0.1536
62465W        W 5377   3.989  25.390   2.190 -0.5277 -0.4514 -0.1761
62466W        W 5378   3.630  23.650   1.543 -0.3007 -0.0756  0.0579
62467W        W 5379   2.260  26.404   2.456 -0.1030 -0.1775 -0.3102
62468W        W 5380  33.220  22.617   1.423  0.0008  0.1910  0.0774
62469W        W 5381   2.343  23.592  31.756 -0.0832  0.1669  0.1584
62470W        W 5382   0.566  24.532   1.547 -0.0680  0.0084  0.1088
62471W        W 5383   2.196  23.659   3.120 -0.1960  0.2386  0.0469
62472W        W 5384   2.497  24.645   2.824 -0.5109  0.3179 -0.2486
62473W        W 5385  33.385  22.974   1.802 -0.1122  0.2896  0.0575
62474W        W 5386   4.800  24.831   0.481 -0.0719  0.0071  0.0638
62475W        W 5387   3.641  23.749   2.997 -0.0313  0.0908  0.0982
62476W        W 5388   2.160  25.632  31.483 -0.0234 -0.0593 -0.3085
62477W        W 5389   3.571  24.820  31.678  0.0533 -0.3025  0.3606
62478W        W 5390   3.629  25.807   0.294 -0.0690 -0.2027 -0.1120
62479W        W 5391  34.150  22.955   2.861 -0.1606 -0.2183 -0.2609
62480W        W 5392   3.528  25.526   0.716 -0.1268  0.0180 -0.1201
62481W        W 5393   4.673  25.231   3.009 -0.1957 -0.2538 -0.3026
62482W        W 5394   1.689  22.037   1.866  0.2546 -0.2196  0.0637
62483W        W 5395   1.635  23.471   2.748  0.0202  0.0927 -0.0932
62484W        W 5396   0.580  25.969   2.379 -0.0883  0.2499  0.0346
62485W        W 5397   3.648  23.461   3.765  0.2981 -0.3633  0.1276
62486W        W 5398   3.929  23.222   2.470 -0.0735  0.2300 -0.1891
62487W        W 5399   0.993  24.945  31.661 -0.1716  0.0079 -0.0506
62488W        W 5400   3.316  21.035   2.500 -0.1384 -0.0823 -0.0392
62489W        W 5401   1.848  24.640   4.280  0.1087  0.0509 -0.1930
62490W        W 5402   0.471  25.611   3.997 -0.1378  0.2323 -0.2619
62491W        W 5403   0.618  24.102  31.194  0.1514 -0.1145 -0.1574
62492W        W 5404   2.154  23.174   4.175  0.2252  0.0179 -0.2288
62493W        W 5405   2.052  25.585   0.003 -0.2407 -0.0195 -0.0223
62494W        W 5406   1.651  25.921  31.664 -0.1252 -0.0381 -0.3326
62495W        W 5407   1.665  25.846   1.970  0.2144 -0.3054 -0.2342
62496W        W 5408   2.680  23.440   1.623 -0.1653  0.0518  0.0685
62497W        W 5409   3.706  25.382   1.756  0.2599 -0.0175 -0.0080
62498W        W 5410   0.958  22.097  31.910  0.0584 -0.0207 -0.2232
62499W        W 5411   3.197  22.965   0.870  0.0312 -0.3306 -0.1080
62500W        W 5412   3.163  23.404   0.570  0.0830 -0.2348  0.2410
62501W        W 5413  34.645  24.198   3.210 -0.0491  0.0747  0.0210
62502W        W 5414  34.359  23.024   1.135  0.0388 -0.1177 -0.2742
62503W        W 5415  33.443  25.581   0.695  0.0962 -0.0686 -0.2785
62504W        W 5416  34.634  24.079   1.785 -0.1454  0.0424 -0.0829
62505W        W 5417   1.038  22.931   3.385  0.2733  0.0072  0.0520
62506W        W 5418   0.250  23.762   3.212 -0.1550 -0.3835 -0.2092
62507W        W 5419   0.591  22.915   1.526  0.0789 -0.0264  0.2426
62508W        W 5420  34.463  22.768   0.550  0.0459 -0.0953 -0.2063
62509W        W 5421   2.948  25.296  30.953  0.2258  0.0440  0.0022
62510W        W 5422   1.669  23.615   2.113  0.1390 -0.2876 -0.2877
62511W        W 5423  33.407  24.280   0.826 -0.3313  0.1555 -0.0839
62512W        W 5424   2.997  25.894  31.636  0.2224 -0.2633 -0.2151
62513W        W 5425   3.012  25.199   0.101 -0.2027  0.3463 -0.1028
62514W        W 5426   1.084  21.456  31.750 -0.3298 -0.1762 -0.1455
62515W        W 5427   2.918  25.997   1.649  0.0345 -0.1817  0.0572
62516W        W 5428   0.472  24.222   1.208 -0.2004  0.2919  0.2183
62517W        W 5429   2.651  23.667   2.839  0.0654  0.0784  0.0722
62518W        W 5430   1.021  21.894   3.669 -0.1348  0.0466 -0.0985
62519W        W 5431   0.488  22.725   0.304  0.2818 -0.0089 -0.0411
62520W        W 5432   2.068  24.581   2.351  0.0099 -0.2294  0.0337
62521W        W 5433   1.612  25.736   0.950  0.2133  0.0371 -0.0071
62522W        W 5434   3.590  26.601  31.199  0.0097 -0.0713 -0.1814
62523W        W 5435   0.136  25.806   1.331 -0.2877  0.2930 -0.1088
62524W        W 5436   1.864  25.338   3.240  0.2118  0.0045  0.1020
62525W        W 5437   0.972  22.668   2.923 -0.3273 -0.3576  0.1446
62526W        W 5438   3.384  23.672   1.076  0.0130  0.0067  0.1011
62527W        W 5439   1.470  25.348   3.716 -0.0255  0.3147  0.0062
62528W        W 5440   5.309  23.747   1.327 -0.0144 -0.0212  0.1086
62529W        W 5441   3.335  22.994   2.319 -0.0391 -0.1504 -0.0391
62530W        W 5442   1.289  24.651   0.004 -0.1084  0.2615  0.2967
62531W        W 5443   1.308  21.268   2.465  0.2039 -0.0998  0.1863
62532W        W 5444   0.868  24.472   3.518  0.1445 -0.2252 -0.0337
62533W        W 5445   4.862  24.679   1.422  0.2132  0.1725 -0.2426
62534W        W 5446  34.492  20.860   0.237 -0.2016 -0.0857 -0.0137
62535W        W 5447   2.315  22.970   0.155 -0.3787 -0.1869 -0.2029
62536W        W 5448   1.746  24.961   0.135  0.2881 -0.0651  0.0300
62537W        W 5449   0.216  23.362   2.366 -0.0014 -0.1647 -0.1254
62538W        W 5450   1.287  23.915   1.451 -0.1072  0.1292  0.0049
62539W        W 5451   1.506  23.579   3.735  0.1941  0.2545  0.0804
62540W        W 5452   2.638  24.728   1.326  0.1183 -0.2887  0.1369
62541W        W 5453   2.546  23.536   2.352 -0.0426  0.1078 -0.2834
62542W        W 5454   1.982  24.185   0.702 -0.1480  0.2442  0.0041
62543W        W 5455   4.709  23.491   2.101 -0.3973 -0.1203 -0.4155
62544W        W 5456   2.743  25.108   3.066 -0.1188 -0.0603 -0.0500
62545W        W 5457   2.942  25.345   3.925 -0.2189 -0.3799 -0.2691
62546W        W 5458   1.435  25.003   3.274 -0.3393  0.0524 -0.1342
62547W        W 5459   3.103  24.767   2.049 -0.1270 -0.0927 -0.0604
62548W        W 5460  34.665  22.506   2.219 -0.0188 -0.0167 -0.2287
62549W        W 5461   1.084  24.368   1.247 -0.0569  0.2997 -0.0613
62550W        W 5462   0.805  25.159   0.464  0.3541  0.2043  0.0029
62551W        W 5463   3.075  23.445   2.337  0.1535  0.1707 -0.0115
62552W        W 5464   0.542  22.634   2.007 -0.2075  0.0973  0.0690
62553W        W 5465   1.287  23.578   0.587 -0.1204  0.0677 -0.3421
62554W        W 5466   0.839  25.340   3.291  0.1329 -0.1283  0.0865
62555W        W 5467   2.755  24.730  31.908 -0.2960 -0.0141  0.1304
62556W        W 5468   0.728  22.390   6.448 -0.2888 -0.0128  0.1268
62557W        W 5469   1.091  23.811   4.222  0.2661 -0.2129 -0.3973
62558W        W 5470   4.842  22.871   3.957  0.1178 -0.1860  0.0286
62559W        W 5471   3.778  24.130   4.675 -0.1475  0.1251 -0.0168
62560W        W 5472   0.219  22.169   5.179  0.3877 -0.0233 -0.0791
62561W        W 5473   2.434  25.342   4.583 -0.3033  0.3663  0.0824
62562W        W 5474   1.446  21.769   5.267 -0.2035  0.2434 -0.0171
62563W        W 5475   3.105  24.287   5.412  0.0865  0.0193  0.0041
62564W        W 5476   4.056  25.377   4.731  0.2725 -0.1739 -0.0497
62565W        W 5477   1.118  23.458   2.671  0.3455 -0.1103  0.1712
62566W        W 5478   1.878  22.493   8.064 -0.0029  0.3995  0.1521
62567W        W 5479   0.985  25.158   6.574  0.1189 -0.1500 -0.3343
62568W        W 5480   1.872  22.814   3.304 -0.1378 -0.0019 -0.4005
62569W        W 5481   0.901  22.583   5.582 -0.4225  0.1361 -0.1970
62570W        W 5482   3.196  23.396   5.816 -0.0011  0.0891 -0.0529
62571W        W 5483   1.627  24.299   2.597  0.3880 -0.1665  0.0108
62572W        W 5484   1.703  22.924   6.331  0.2828  0.0482 -0.0729
62573W        W 5485   1.836  22.762   5.079 -0.0825 -0.0305 -0.2130
62574W        W 5486   2.633  25.070   4.188 -0.3308  0.0581 -0.1996
62575W        W 5487   1.598  22.473   6.622 -0.2574  0.2750  0.2180
62576W        W 5488   1.953  22.230   7.111  0.1690 -0.3627 -0.2478
62577W        W 5489   2.147  25.934   5.835 -0.0989 -0.0360  0.1303
62578W        W 5490   0.163  22.774   3.694 -0.1315  0.4736 -0.0977
62579W        W 5491   1.020  24.058   4.724  0.0155  0.1436  0.1428
62580W        W 5492   0.505  23.321   6.628 -0.1725 -0.2460 -0.1491
62581W        W 5493   3.984  23.637   5.587  0.2950 -0.0963  0.1951
62582W        W 5494   4.724  23.561   6.047  0.0952  0.0897  0.0213
62583W        W 5495   1.212  25.996   4.527  0.0285  0.0681  0.2340
62584W        W 5496   0.572  25.368   5.277 -0.0071 -0.1392  0.3417
62585W        W 5497   2.779  23.438   7.089  0.5147  0.0688 -0.4224
62586W        W 5498   0.658  24.712   5.286 -0.1660 -0.2148  0.0780
62587W        W 5499   0.972  24.277   5.278  0.2557 -0.3642 -0.1153
62588W        W 5500   0.265  23.969   4.218 -0.1334 -0.0133  0.0936
62589W        W 5501   2.606  24.183   5.334  0.0690  0.0388  0.2537
62590W        W 5502   2.472  23.666   6.109 -0.0741  0.1493 -0.0822
62591W        W 5503   1.165  23.756   6.852 -0.1049  0.0188 -0.0439
62592W        W 5504   0.822  24.743   4.198  0.2634  0.2012  0.0223
62593W        W 5505   1.764  25.274   6.473  0.0116 -0.0821  0.2730
62594W        W 5506   1.511  24.467   4.863 -0.2504  0.3263 -0.2582
62595W        W 5507   2.432  23.124   6.031  0.1629 -0.0958 -0.2283
62596W        W 5508   2.740  22.516   5.489  0.2492 -0.0793  0.2526
62597W        W 5509   2.283  23.435   4.734 -0.2623  0.3536 -0.5244
62598W        W 5510   2.761  23.909   3.998  0.2077  0.0160  0.0523
62599W        W 5511   2.638  22.314   6.391 -0.0107 -0.0806  0.0848
62600W        W 5512   1.951  24.150   5.134  0.0195  0.1862  0.0429
62601W        W 5513   1.493  23.031   7.483 -0.2241 -0.0076  0.3133
62602W        W 5514   2.228  25.785   4.468  0.0558 -0.1939  0.0044
62603W        W 5515   2.938  24.139   4.416 -0.0141 -0.0149 -0.1788
62604W        W 5516   1.286  22.306   4.065  0.1689 -0.1582  0.2786
62605W        W 5517   2.629  23.318   4.263  0.0270  0.1508 -0.2208
62606W        W 5518   1.877  22.519   5.563 -0.0680 -0.0177 -0.1976
62607W        W 5519  34.660  24.964   5.904 -0.1460 -0.0564  0.2291
62608W        W 5520   1.065  22.257   5.027 -0.0252 -0.0533 -0.0262
62609W        W 5521   2.937  24.917   5.897 -0.0768  0.0786  0.1122
62610W        W 5522   2.739  22.507   4.758 -0.0486 -0.3274  0.2598
62611W        W 5523   3.408  23.267   6.285 -0.4783 -0.1480  0.1087
62612W        W 5524  34.673  23.994   5.633 -0.1042  0.1281 -0.0553
62613W        W 5525   1.162  23.506   5.890 -0.0545 -0.0515 -0.3137
62614W        W 5526   3.422  24.970   3.595 -0.1478 -0.2276  0.3087
62615W        W 5527   5.260  25.308   4.327 -0.3407 -0.1707  0.3401
62616W        W 5528   0.922  25.395   3.775  0.1083 -0.0140 -0.0709
62617W        W 5529   0.164  24.188   4.658  0.4805 -0.0924 -0.1184
62618W        W 5530  34.628  23.961   6.125  0.4002  0.1381  0.0547
62619W        W 5531   0.316  23.763   6.366  0.0886  0.0569 -0.3878
62620W        W 5532   1.097  22.417   3.551  0.0860 -0.1499  0.1067
62621W        W 5533   1.963  24.121   8.126  0.1247 -0.4578  0.0220
62622W        W 5534  34.333  24.188   6.610  0.0886 -0.1184 -0.2774
62623W        W 5535   4.641  23.786   4.811  0.3577  0.1245 -0.1308
62624W        W 5536   2.025  24.490   4.700 -0.3354 -0.3148 -0.2572
62625W        W 5537   4.404  25.394   5.598 -0.0549  0.0021  0.0609
62626W        W 5538   2.732  25.461   3.452 -0.1219 -0.0345  0.1244
62627W        W 5539   2.833  23.040   5.630  0.0085  0.0712  0.0608
62628W        W 5540   3.198  22.601   5.451  0.1376 -0.0368  0.0370
62629W        W 5541   0.901  23.246   4.218 -0.0371  0.3618  0.1515
62630W        W 5542   1.208  23.051   6.226 -0.0061 -0.0567  0.2699
62631W        W 5543   4.877  24.563   5.328 -0.0580  0.1251  0.0813
62632W        W 5544   2.425  24.028   3.503  0.0775 -0.1535 -0.0389
62633W        W 5545   0.210  24.768   6.281 -0.0697 -0.1056  0.1895
62634W        W 5546   3.489  23.595   5.126 -0.1362  0.0876 -0.1002
62635W        W 5547   3.239  23.715   6.960 -0.0738  0.1470 -0.1998
62636W        W 5548   1.267  25.500   3.258  0.2594 -0.1638 -0.1766
62637W        W 5549  34.414  23.117   5.755  0.0257 -0.0171  0.0568
62638W        W 5550   0.589  24.235   4.977 -0.2214 -0.0868 -0.1776
62639W        W 5551  34.319  21.140   6.694 -0.0745 -0.2635 -0.1106
62640W        W 5552   1.919  24.960   5.536 -0.0196 -0.0060 -0.0592
62641W        W 5553   4.378  22.971   4.408  0.2115  0.1413 -0.0605
62642W        W 5554   0.703  22.080   6.806 -0.2304  0.2787 -0.1409
62643W        W 5555   3.197  22.090   4.108 -0.0218  0.1985  0.0023
62644W        W 5556   1.542  23.677   5.071  0.1985 -0.0492  0.1078
62645W        W 5557   2.814  25.614   4.316  0.0109  0.0861 -0.4000
62646W        W 5558   3.935  24.663   3.603 -0.0364 -0.0048  0.0211
62647W        W 5559   2.693  24.958   3.629 -0.2063 -0.0196 -0.0011
62648W        W 5560  33.766  23.139   6.051 -0.2324 -0.0541  0.2043
62649W        W 5561   0.819  22.715   6.062  0.0722  0.1140  0.3139
62650W        W 5562   0.348  22.296   7.170  0.2133 -0.1914 -0.1441
62651W        W 5563   0.110  21.447   3.759  0.3682 -0.1259 -0.1546
62652W        W 5564   3.374  22.783   6.402 -0.1007 -0.0480 -0.2039
62653W        W 5565  34.049  22.646   4.929  0.2408 -0.1298 -0.0018
62654W        W 5566   3.000  22.878   4.511  0.0648 -0.0727 -0.2540
62655W        W 5567   2.373  24.125   5.867  0.0755  0.3695 -0.0593
62656W        W 5568  33.405  24.176   3.387  0.0581 -0.2208  0.0005
62657W        W 5569   3.093  22.492   6.182 -0.0510 -0.2750  0.2528
62658W        W 5570   3.055  26.204   4.284 -0.0034  0.2995 -0.0703
62659W        W 5571   2.132  24.733   5.968  0.0559 -0.0185  0.2968
62660W        W 5572   3.611  24.780   4.078 -0.1945  0.0860 -0.1455
62661W        W 5573   0.719  23.189   6.129 -0.0416 -0.1528 -0.2306
62662W        W 5574   0.978  22.849   4.521 -0.3468  0.3092  0.2024
62663W        W 5575  34.599  25.866   5.272  0.3979  0.1686  0.2473
62664W        W 5576   1.632  24.910   5.077  0.0307 -0.2190 -0.3241
62665W        W 5577  34.323  22.272   4.775  0.1444 -0.3212 -0.2502
62666W        W 5578   2.914  24.419   4.987  0.1221  0.0881 -0.2827
62667W        W 5579   2.645  24.518   5.683 -0.0578 -0.1887 -0.0375
62668W        W 5580   2.387  24.501   4.338  0.2364  0.1968  0.0231
62669W        W 5581   2.130  22.761   7.406  0.0746 -0.2454 -0.2013
62670W        W 5582   2.951  23.106   6.196  0.1013 -0.0078 -0.1147
62671W        W 5583   2.981  23.828   5.224 -0.3063  0.3427 -0.1094
62672W        W 5584   0.475  21.955   3.616  0.1223  0.3111 -0.1361
62673W        W 5585   3.402  24.026   4.350  0.2667 -0.0294 -0.3207
62674W        W 5586   0.347  25.324   3.522 -0.2495  0.0945 -0.0217
62675W        W 5587  34.017  23.862   6.371 -0.1875 -0.0746  0.0414
62676W        W 5588   1.923  26.016   5.417 -0.4021  0.1502  0.1493
62677W        W 5589   3.737  23.158   4.780 -0.0381 -0.1880 -0.0830
62678W        W 5590   0.657  24.178   7.397  0.0744 -0.1948 -0.2583
62679W        W 5591   1.883  22.050   7.672 -0.0882  0.1955  0.2410
62680W        W 5592   0.431  22.659   5.179  0.0175 -0.0280  0.1209
62681W        W 5593   1.631  24.514   6.214 -0.1130 -0.0478 -0.0914
62682W        W 5594   3.425  23.225   4.291 -0.1176  0.1458  0.0753
62683W        W 5595   4.595  24.090   4.216  0.1276  0.2296 -0.0849
62684W        W 5596   3.111  24.274   6.557 -0.1144  0.1278  0.1174
62685W        W 5597   2.811  24.667   4.484  0.1235 -0.2936 -0.0877
62686W        W 5598   2.433  24.185   2.082 -0.1072 -0.2060  0.0999
62687W        W 5599   1.826  23.076   2.367  0.0472  0.0308 -0.1480
62688W        W 5600   0.818  23.326   6.994 -0.1128  0.0560 -0.1348
62689W        W 5601   2.382  23.169   5.255  0.0642  0.1329  0.3518
62690W        W 5602   3.225  23.122   5.375 -0.0108 -0.1386  0.1848
62691W        W 5603   3.020  23.132   2.686 -0.0524  0.1102  0.2580
62692W        W 5604   5.759  24.771   4.097  0.0401 -0.2364 -0.0430
62693W        W 5605   2.092  23.875   4.748  0.1346 -0.0394 -0.1351
62694W        W 5606   2.286  24.198   7.429  0.1748  0.1065 -0.2295
62695W        W 5607   3.090  25.366   4.933  0.4204  0.1184 -0.2527
62696W        W 5608   2.204  22.367   5.974  0.2196 -0.1294  0.0658
62697W        W 5609   1.773  23.136   3.737 -0.2552 -0.0827 -0.1158
62698W        W 5610   1.637  22.315   3.678  0.1785 -0.2244 -0.2571
62699W        W 5611  34.504  24.476   4.078  0.0676  0.0054  0.3548
62700W        W 5612   3.046  22.094   4.625  0.0022  0.2028 -0.2979
62701W        W 5613   1.437  22.697   5.366  0.0534  0.0166 -0.1721
62702W        W 5614   0.620  21.947   6.143  0.0926 -0.1702 -0.4227
62703W        W 5615   3.830  24.039   6.347 -0.1800 -0.0297 -0.0569
62704W        W 5616   3.204  24.238   3.948 -0.0448 -0.0157 -0.0905
62705W        W 5617   2.290  22.223   5.376 -0.2182  0.1141 -0.1809
62706W        W 5618   0.939  22.313   4.492  0.1107 -0.0695  0.2556
62707W        W 5619   1.592  22.011   6.805 -0.1560 -0.0793 -0.1203
62708W        W 5620   1.020  23.089   5.712  0.0906 -0.1276  0.0682
62709W        W 5621   1.439  25.127   5.625  0.1257 -0.0920 -0.0807
62710W        W 5622   4.179  23.568   6.897  0.0575 -0.2573  0.0808
62711W        W 5623   2.091  22.420   3.446 -0.0778  0.1083 -0.0900
62712W        W 5624   1.860  21.521   7.707  0.1896 -0.2446  0.0873
62713W        W 5625   1.961  22.330   4.925  0.4026  0.1729  0.0558
62714W        W 5626   2.768  24.425   3.930 -0.0821  0.1004 -0.1213
62715W        W 5627   0.672  23.606   2.485 -0.1591 -0.0878  0.2567
62716W        W 5628   0.615  21.260   5.137 -0.3772  0.3896  0.4389
62717W        W 5629   1.746  25.505   5.779  0.1950  0.2631  0.1008
62718W        W 5630   1.224  25.534   4.353  0.2979 -0.1535 -0.2247
62719W        W 5631   3.044  24.399   6.001 -0.2030  0.0528 -0.1576
62720W        W 5632   0.051  23.062   4.845  0.1807 -0.1642 -0.0828
62721W        W 5633   4.286  23.771   5.174 -0.0462  0.0840  0.2779
62722W        W 5634  33.780  24.951   4.149 -0.1414  0.1817  0.0521
62723W        W 5635   1.977  23.848   3.715 -0.1298  0.2349  0.2041
62724W        W 5636  34.192  23.396   4.267  0.0820 -0.0080 -0.3386
62725W        W 5637   3.727  22.251   4.474  0.0169  0.0267  0.0028
62726W        W 5638   3.409  24.504   4.471  0.1765  0.0674  0.2000
62727W        W 5639  34.447  22.593   5.687  0.0190  0.0852 -0.1215
62728W        W 5640   2.830  22.910   5.117  0.0284 -0.4014  0.4641
62729W        W 5641  34.228  24.902   6.356  0.0379  0.0976 -0.3193
62730W        W 5642   3.395  23.796   6.457  0.0543 -0.3038 -0.2336
62731W        W 5643   3.514  23.609   4.610 -0.2324  0.0380 -0.0445
62732W        W 5644   2.891  23.977   5.744 -0.0566 -0.1314 -0.1665
62733W        W 5645   2.025  22.889   5.956  0.2513  0.2309 -0.4315
62734W        W 5646  34.407  23.398   4.724  0.0762  0.1725  0.2119
62735W        W 5647   3.690  22.427   6.564 -0.3586 -0.0503 -0.1710
62736W        W 5648   2.243  23.445   5.700  0.1646  0.3636  0.1172
62737W        W 5649  34.537  26.380   5.556 -0.2162  0.0555  0.0092
62738W        W 5650   2.539  25.548   5.754  0.1371  0.0626  0.1201
62739W        W 5651   1.373  24.043   3.485 -0.0717 -0.1105 -0.1118
62740W        W 5652   0.481  24.549   4.620  0.2551  0.1432 -0.1238
62741W        W 5653  34.358  22.733   6.915 -0.0057  0.3154 -0.0831
62742W        W 5654   4.384  23.880   5.681  0.0494 -0.2005  0.2598
62743W        W 5655   1.759  22.448   6.157 -0.0857 -0.0899 -0.2088
62744W        W 5656   0.336  22.383   4.368  0.1952  0.0270  0.2700
62745W        W 5657   3.741  22.827   5.256 -0.0377  0.0780  0.0062
62746W        W 5658   3.406  25.114   5.947  0.1770  0.0068 -0.3849
62747W        W 5659   1.877  23.009   7.837  0.0545 -0.3068  0.0588
62748W        W 5660   1.591  23.885   7.147 -0.1505 -0.1884 -0.1949
62749W        W 5661   2.234  21.727   5.720  0.1425  0.1372  0.0942
62750W        W 5662   4.803  24.884   4.900 -0.2792  0.1674  0.2449
62751W        W 5663   3.820  23.904   6.842 -0.2650 -0.0450  0.0104
62752W        W 5664  34.521  24.553   3.574  0.2231  0.1944 -0.1285
62753W        W 5665   1.356  23.982   5.375  0.2556 -0.2301 -0.0104
62754W        W 5666   1.998  24.301   3.733 -0.0882  0.1541 -0.1805
62755W        W 5667  34.542  20.484   5.200 -0.2635 -0.0245 -0.0666
62756W        W 5668   1.704  25.332   4.240 -0.2466  0.1041  0.1024
62757W        W 5669   1.124  24.937   3.691  0.1491  0.1011  0.0256
62758W        W 5670   1.552  24.027   4.549  0.4686  0.0032 -0.0950
62759W        W 5671   3.893  22.440   3.918 -0.2672 -0.1251 -0.1592
62760W        W 5672   2.335  24.128   4.023 -0.2097  0.1233 -0.1222
62761W        W 5673   2.347  23.718   5.289 -0.3163 -0.0086  0.0765
62762W        W 5674   2.354  23.177   6.936  0.1200  0.0008 -0.1906
62763W        W 5675   3.095  24.806   4.056 -0.3703  0.2269 -0.2427
62764W        W 5676   2.822  21.772   6.453  0.2076 -0.0544 -0.2349
62765W        W 5677   0.974  22.235   5.996 -0.0707  0.0566  0.0616
62766W        W 5678   3.579  24.313   5.517 -0.1636  0.0160  0.2093
62767W        W 5679  34.365  23.208   6.302 -0.1356  0.1152  0.4658
62768W        W 5680   2.044  27.029   6.825 -0.2230 -0.0887 -0.0991
62769W        W 5681   0.268  23.342   6.124 -0.1594  0.1186 -0.3306
62770W        W 5682   3.771  23.730   4.155  0.2103  0.2602 -0.1613
62771W        W 5683   0.600  21.023   3.712  0.1462  0.2525  0.4087
62772W        W 5684   2.627  22.686   5.974 -0.3484  0.3046  0.0970
62773W        W 5685   4.463  23.384   5.637 -0.0916  0.1894  0.1219
62774W        W 5686   0.926  25.534   4.818  0.5271 -0.0823  0.1522
62775W        W 5687   3.381  23.783   5.540 -0.0480 -0.0067 -0.2342
62776W        W 5688   2.077  24.870   6.446 -0.0124  0.1613  0.0634
62777W        W 5689   3.793  24.254   4.147 -0.2413  0.4534  0.0531
62778W        W 5690   1.464  21.833   3.831  0.0741  0.1053  0.3403
62779W        W 5691   1.345  25.443   6.133 -0.1684 -0.2833 -0.2448
62780W        W 5692   1.492  21.415   6.908 -0.0036  0.3420 -0.0841
62781W        W 5693   4.189  24.337   6.155  0.0566 -0.1186 -0.1930
62782W        W 5694   2.469  22.517   3.895 -0.2356 -0.0430  0.0474
62783W        W 5695   3.092  23.296   6.696 -0.1374  0.2263  0.0349
62784W        W 5696   2.556  24.616   6.216 -0.2167 -0.0333  0.3406
62785W        W 5697   2.115  24.333   6.286 -0.0399  0.0360  0.1810
62786W        W 5698  33.852  22.193   6.315 -0.2484  0.2248 -0.2611
62787W        W 5699   1.554  25.948   6.018 -0.0469  0.3580  0.1815
62788W        W 5700   3.854  25.105   3.756  0.1901  0.1032  0.0745
62789W        W 5701   2.940  21.991   6.058  0.1856  0.0691 -0.1964
62790W        W 5702   4.755  24.343   4.871  0.1149  0.1147  0.0462
62791W        W 5703   3.059  23.663   4.458  0.1589 -0.0142  0.1534
62792W        W 5704  34.543  22.084   5.533 -0.0879 -0.1593 -0.0343
62793W        W 5705   2.770  23.355   8.146  0.3051  0.0840  0.0333
62794W        W 5706   1.909  21.776   3.647 -0.1720 -0.0239  0.4280
62795W        W 5707   3.059  21.353   6.293  0.2335 -0.4062  0.3182
62796W        W 5708   1.698  23.467   4.639  0.3602 -0.0061  0.1998
62797W        W 5709   3.236  23.227   4.819 -0.2595 -0.0385  0.1753
62798W        W 5710   4.268  23.673   3.874  0.0216 -0.2118 -0.0424
62799W        W 5711   0.025  23.414   5.165 -0.2591  0.0404 -0.0723
62800W        W 5712   0.729  24.039   6.598  0.3817  0.2033 -0.0115
62801W        W 5713   1.484  22.736   4.260 -0.1046  0.1110 -0.2533
62802W        W 5714   2.639  23.797   4.651  0.2909 -0.2913 -0.3071
62803W        W 5715   2.669  24.114   6.263 -0.0565  0.0571 -0.0172
62804W        W 5716   2.593  23.935   7.120  0.0776 -0.1214  0.1440
62805W        W 5717   2.003  23.219   2.993 -0.2755  0.0199 -0.1135
62806W        W 5718   3.745  22.831   6.039  0.0126 -0.3307 -0.0599
62807W        W 5719   2.285  24.737   3.896  0.0362 -0.0437 -0.1597
62808W        W 5720   2.375  21.535   4.862  0.0066  0.1718 -0.2629
62809W        W 5721  34.245  26.360   6.965 -0.0418 -0.0176  0.2302
62810W        W 5722   1.740  23.880   6.554 -0.1469 -0.3594  0.2806
62811W        W 5723   1.331  25.020   4.222 -0.1082  0.0299 -0.1714
62812W        W 5724   1.194  21.688   5.882 -0.0559  0.1431  0.0756
62813W        W 5725   4.147  23.931   4.395 -0.1503 -0.1271 -0.1643
62814W        W 5726   3.285  24.000   4.870 -0.0551  0.1086 -0.0567
62815W        W 5727   2.837  23.818   6.699 -0.0805  0.1001 -0.3974
62816W        W 5728   2.498  24.252   6.686  0.1127  0.1997  0.2018
62817W        W 5729   1.874  23.728   5.436 -0.3792 -0.0014  0.1065
62818W        W 5730   1.773  26.331   5.750  0.2986 -0.1385 -0.1028
62819W        W 5731   5.081  24.040   3.934  0.0923  0.5721 -0.2641
62820W        W 5732   1.368  23.057   4.775  0.1211 -0.1478 -0.0169
62821W        W 5733   0.468  22.410   6.044  0.2155  0.0588  0.1007
62822W        W 5734   2.164  23.112   6.490 -0.0734 -0.2505 -0.2940
62823W        W 5735   3.678  23.682   6.038  0.2379 -0.0436 -0.0930
62824W        W 5736   2.372  22.182   2.274  0.1741  0.0584  0.0103
62825W        W 5737   1.874  24.063   2.242  0.1652  0.0952 -0.2241
62826W        W 5738   0.890  24.298   6.243 -0.3645  0.2154  0.1024
62827W        W 5739   1.415  24.315   5.785 -0.1283  0.0955 -0.2111
62828W        W 5740   0.451  26.565   4.064 -0.0402  0.0732 -0.1958
62829W        W 5741   3.597  25.527   3.680  0.2665 -0.0482  0.0830
62830W        W 5742   2.584  24.488   3.428 -0.1989  0.2772 -0.1954
62831W        W 5743   2.143  25.127   4.157 -0.4291 -0.0808 -0.2342
62832W        W 5744   1.056  22.820   3.991 -0.4113 -0.2489 -0.0128
62833W        W 5745   0.776  24.457   5.757  0.0273 -0.1792 -0.1737
62834W        W 5746  34.559  24.616   4.541 -0.1840  0.0404 -0.2166
62835W        W 5747   3.138  25.092   4.468 -0.2415 -0.0616 -0.0245
62836W        W 5748   0.984  23.951   5.774 -0.0428  0.0202  0.0496
62837W        W 5749   2.868  24.287   7.003  0.0165  0.1645 -0.0961
62838W        W 5750   3.514  22.192   3.566 -0.1061  0.2294 -0.0615
62839W        W 5751   4.851  24.845   4.331 -0.3108 -0.0541  0.4080
62840W        W 5752   4.327  22.666   3.781 -0.1330  0.0330 -0.0014
62841W        W 5753   2.182  24.575   6.837  0.2276 -0.1691  0.0148
62842W        W 5754   2.116  22.630   6.527  0.0702 -0.1897 -0.0141
62843W        W 5755   2.529  22.825   4.311 -0.0091 -0.2723  0.1905
62844W        W 5756   0.991  24.155   7.925  0.2697 -0.0449 -0.4028
62845W        W 5757   4.074  20.629   7.182  0.0524  0.0672 -0.1965
62846W        W 5758   0.444  25.249   6.329  0.0349 -0.3662 -0.2919
62847W        W 5759   4.202  25.539   3.355  0.1067  0.2464 -0.1014
62848W        W 5760   0.455  23.291   4.467  0.1359 -0.0663  0.2346
62849W        W 5761   1.014  23.595   5.187  0.0814 -0.5294 -0.0233
62850W        W 5762   4.021  21.354   4.998 -0.0234  0.2028  0.0513
62851W        W 5763   1.558  24.034   3.962 -0.0695  0.0298 -0.2546
62852W        W 5764   2.475  22.997   4.748 -0.2712  0.0771 -0.0939
62853W        W 5765   1.945  25.501   3.875 -0.0002 -0.0342 -0.1253
62854W        W 5766   1.259  24.667   5.439  0.0783 -0.3142 -0.2206
62855W        W 5767   1.181  24.726   6.022  0.1236 -0.2616  0.0962
62856W        W 5768  34.315  23.021   5.258  0.2009 -0.0124 -0.1160
62857W        W 5769   5.033  22.818   5.660 -0.0377 -0.1793  0.1461
62858W        W 5770   1.462  23.202   6.717  0.2212 -0.0998  0.1190
62859W        W 5771   2.374  22.580   6.969 -0.0384 -0.3139  0.3058
62860W        W 5772   1.434  22.792   5.889  0.0809  0.0710  0.2673
62861W        W 5773   3.462  21.709   4.525  0.2953 -0.1351  0.3947
62862W        W 5774   2.343  22.630   5.090  0.1904 -0.1674  0.0620
62863W        W 5775   0.180  21.136   5.498 -0.0584 -0.1033 -0.0089
62864W        W 5776   3.352  22.792   2.967 -0.1820  0.0228 -0.0381
62865W        W 5777   3.877  23.050   6.519 -0.0011 -0.3411  0.0205
62866W        W 5778   2.858  23.336   3.695 -0.0395 -0.0965 -0.3000
62867W        W 5779   2.255  25.321   6.684 -0.1204 -0.0969  0.0705
62868W        W 5780  34.013  22.600   4.408  0.3162  0.0250  0.2231
62869W        W 5781   2.871  22.488   4.226  0.0754 -0.0248  0.3106
62870W        W 5782   0.504  22.940   5.684 -0.0644  0.2339 -0.0457
62871W        W 5783   2.596  22.801   6.488  0.1934 -0.2511  0.0332
62872W        W 5784   2.811  24.145   7.525 -0.0758 -0.1574 -0.1301
62873W        W 5785  33.754  22.415   3.646 -0.0201 -0.0388 -0.0411
62874W        W 5786   3.244  25.355   3.273 -0.0669  0.0964 -0.1404
62875W        W 5787   4.004  24.500   5.064 -0.1502 -0.0453 -0.1182
62876W        W 5788   0.846  26.429   4.551  0.2992 -0.3822 -0.3874
62877W        W 5789   2.722  23.431   5.025 -0.0228 -0.0664  0.1112
62878W        W 5790   2.042  25.514   5.380  0.3088  0.1257 -0.0612
62879W        W 5791   0.249  21.995   5.758  0.0941 -0.0405 -0.1704
62880W        W 5792   2.977  23.588   6.275 -0.2413  0.0057  0.1872
62881W        W 5793   3.258  24.713   5.613 -0.0384  0.3713 -0.1759
62882W        W 5794   3.695  21.973   4.073  0.2255  0.2095  0.1067
62883W        W 5795   1.036  22.777   5.017  0.2469 -0.0982 -0.0345
62884W        W 5796  34.653  25.356   3.881 -0.0577  0.0577 -0.3232
62885W        W 5797   4.244  23.267   4.809  0.4429  0.2253 -0.3789
62886W        W 5798   3.469  22.248   5.054  0.2906 -0.3808  0.1401
62887W        W 5799  34.691  26.513   3.906 -0.0667 -0.0027  0.2015
62888W        W 5800   2.415  21.515   6.558 -0.2125 -0.2784  0.0827
62889W        W 5801   2.128  25.249   5.891  0.1618  0.0794  0.2255
62890W        W 5802   1.737  25.655   7.422 -0.1406  0.1440  0.2228
62891W        W 5803   0.686  23.738   4.469  0.1832 -0.3918  0.0330
62892W        W 5804   1.984  23.362   6.110 -0.1644  0.0703 -0.2325
62893W        W 5805   1.588  25.382   5.259 -0.2510  0.1137  0.2744
62894W        W 5806   1.712  25.928   4.354 -0.1392  0.0022 -0.1965
62895W        W 5807   3.755  24.003   5.106 -0.2430  0.0422  0.1460
62896W        W 5808   2.192  22.461   4.400 -0.2199 -0.0102  0.0087
62897W        W 5809   4.243  24.906   4.810  0.3127  0.1690  0.2164
62898W        W 5810   1.213  21.434   3.525  0.3788  0.2162 -0.1773
62899W        W 5811   3.552  22.732   4.423 -0.0286 -0.5165 -0.3001
62900W        W 5812   4.292  21.265   4.525 -0.2730 -0.2867 -0.1863
62901W        W 5813   2.701  23.528   5.556 -0.1342 -0.2602 -0.4048
62902W        W 5814   0.379  23.208   3.978  0.1395 -0.0893 -0.1592
62903W        W 5815   2.089  23.400   3.510 -0.2008  0.1646 -0.0525
62904W        W 5816   2.122  25.632   6.255  0.0807  0.2252  0.0902
62905W        W 5817   1.229  20.294   6.891 -0.2126  0.0907 -0.0909
62906W        W 5818   1.499  23.496   6.223 -0.0611 -0.2009 -0.1886
62907W        W 5819   1.942  24.310   5.686 -0.0846  0.0190 -0.0614
62908W        W 5820  34.456  22.340   4.292  0.0293 -0.0472  0.0962
62909W        W 5821   3.247  24.929   3.042 -0.0634 -0.1010  0.0120
62910W        W 5822   1.249  22.582   6.290 -0.4698  0.1913 -0.5721
62911W        W 5823  33.200  23.128   4.461  0.1484  0.0568 -0.0258
62912W        W 5824   2.764  25.066   4.841  0.0549  0.3443  0.3213
62913W        W 5825   4.047  24.537   5.581 -0.0262  0.4902  0.1606
62914W        W 5826   2.647  22.416   3.300 -0.1318  0.3264 -0.0973
62915W        W 5827   3.089  24.894   7.006 -0.2030 -0.0455  0.1363
62916W        W 5828   1.174  24.321   3.871  0.1359  0.1199 -0.0284
62917W        W 5829   1.359  22.760   7.078  0.0120 -0.0948  0.0167
62918W        W 5830   1.832  22.902   7.008  0.0575 -0.2593  0.0480
62919W        W 5831  33.834  22.549   2.730 -0.1757 -0.0379 -0.1569
62920W        W 5832   2.323  22.770   5.547 -0.2132 -0.1096 -0.2047
62921W        W 5833   2.451  25.526   3.976 -0.2863 -0.2652 -0.1327
62922W        W 5834   2.852  25.235   2.127  0.0347  0.3168 -0.2814
62923W        W 5835   2.318  24.859   4.858 -0.1862  0.1668 -0.0500
62924W        W 5836   2.186  24.710   7.297 -0.0586  0.0443 -0.0866
62925W        W 5837  34.202  21.527   7.213  0.0627 -0.0161 -0.1447
62926W        W 5838   2.305  23.680   4.283  0.1903  0.0519 -0.2221
62927W        W 5839   2.270  23.759   6.613 -0.0552 -0.1811 -0.0604
62928W        W 5840   4.678  25.353   3.613 -0.1862 -0.1283  0.0658
62929W        W 5841   3.026  21.639   5.732  0.0023 -0.0681 -0.4877
62930W        W 5842   3.227  23.692   3.969 -0.1695 -0.1100 -0.1584
62931W        W 5843  34.508  21.049   7.199  0.4491 -0.0073 -0.0411
62932W        W 5844   1.333  23.961   6.170 -0.0072 -0.0595 -0.2730
62933W        W 5845   3.604  23.265   6.893  0.2170  0.2869  0.1229
62934W        W 5846   1.387  22.539   4.715 -0.2053  0.0620 -0.1464
62935W        W 5847   3.331  21.218   4.829  0.1124  0.4683 -0.1919
62936W        W 5848   1.970  25.990   3.871  0.2981  0.0707 -0.2383
62937W        W 5849   0.069  22.910   5.386 -0.2530  0.1302 -0.1682
62938W        W 5850   2.379  22.871   3.609  0.1509  0.0375 -0.2313
62939W        W 5851   3.281  22.844   5.892 -0.1577 -0.1272 -0.2277
62940W        W 5852   1.953  24.158   4.338  0.1022  0.0179 -0.0441
62941W        W 5853   2.615  23.109   7.497  0.2361  0.1893 -0.2697
62942W        W 5854   2.085  22.149   3.943  0.2642  0.0870  0.1655
62943W        W 5855   3.914  23.685   3.423 -0.2572  0.1225 -0.4761
62944W        W 5856   1.962  26.114   6.385 -0.0960  0.0156 -0.0491
62945W        W 5857   2.196  24.565   5.364 -0.1275  0.3050  0.0785
62946W        W 5858   1.086  24.679   6.570  0.3219 -0.2183 -0.0403
62947W        W 5859   4.256  24.171   4.809  0.0175 -0.1941  0.2528
62948W        W 5860   1.454  21.530   6.296 -0.0056 -0.0583 -0.0350
62949W        W 5861   1.220  24.985   4.754  0.2673  0.2130  0.1193
62950W        W 5862   1.414  23.243   5.461  0.2711 -0.0483  0.1845
62951W        W 5863   4.283  22.805   6.109  0.3141  0.0460  0.2341
62952W        W 5864   0.227  22.479   5.626 -0.0055 -0.2401 -0.2371
62953W        W 5865   2.689  23.660   3.405  0.0752  0.0929 -0.0279
62954W        W 5866   1.391  25.376   6.863 -0.1079  0.3583 -0.0046
62955W        W 5867   1.196  24.499   4.383 -0.4240 -0.0313  0.0963
62956W        W 5868   0.548  22.250   9.916  0.0635 -0.0579  0.2942
62957W        W 5869  34.197  22.618   8.748  0.0493 -0.1747 -0.0213
62958W        W 5870   3.768  23.802   7.674  0.0311  0.2725 -0.1413
62959W        W 5871   2.713  23.847   9.361 -0.2007 -0.0196  0.3559
62960W        W 5872   0.209  23.088   8.321  0.0585 -0.2031 -0.1740
62961W        W 5873   1.517  25.208   8.911  0.2532  0.1499 -0.2853
62962W        W 5874   2.653  24.796   9.790  0.0835 -0.2146 -0.1949
62963W        W 5875   4.120  24.350   9.328  0.0163  0.0253 -0.1335
62964W        W 5876   3.428  24.169   6.120  0.1465  0.0424  0.2829
62965W        W 5877   2.466  23.364   9.413 -0.2573 -0.1460  0.1923
62966W        W 5878   1.168  22.244   7.211  0.2310  0.1150 -0.3766
62967W        W 5879  34.411  21.357   8.821 -0.0439  0.0190  0.1439
62968W        W 5880   3.577  24.128   9.665 -0.0186  0.0863 -0.0998
62969W        W 5881   0.452  24.227   8.030 -0.1211 -0.0992 -0.1731
62970W        W 5882   0.266  22.198   8.992  0.1333 -0.4035 -0.2367
62971W        W 5883   2.097  23.317   9.687  0.0982 -0.2114 -0.0329
62972W        W 5884   2.209  25.884   7.308  0.0219 -0.2522  0.1673
62973W        W 5885   1.664  22.894   9.294  0.1239  0.3679 -0.2711
62974W        W 5886   1.791  24.371   6.670  0.0087  0.2184  0.0383
62975W        W 5887   0.770  22.521   7.070  0.0592 -0.4756 -0.0826
62976W        W 5888  34.030  23.541   8.987  0.1401  0.2417 -0.2834
62977W        W 5889   0.790  24.121   8.367 -0.0027 -0.0843  0.1946
62978W        W 5890   2.697  22.874   8.313 -0.0378 -0.0269 -0.0206
62979W        W 5891   2.914  24.501   7.861 -0.0647  0.1786 -0.0918
62980W        W 5892   2.386  25.213   8.566  0.0662  0.1768 -0.0958
62981W        W 5893   2.281  25.533   8.930 -0.2335 -0.1063  0.2006
62982W        W 5894  34.401  25.626   9.878  0.2413  0.2936  0.0677
62983W        W 5895  31.895  27.156   9.900 -0.0012  0.0934 -0.2082
62984W        W 5896   0.656  25.054   8.114 -0.3575  0.1051  0.0165
62985W        W 5897   2.160  24.617   8.228  0.0417 -0.0325 -0.0816
62986W        W 5898   0.561  24.701   6.629 -0.3042  0.1685  0.0524
62987W        W 5899   2.017  23.187   9.180 -0.0452 -0.0100  0.1341
62988W        W 5900   1.808  24.390   7.240  0.0921 -0.0917  0.2498
62989W        W 5901   1.571  24.810   6.606  0.2894 -0.2381 -0.1478
62990W        W 5902   0.992  23.461   8.037  0.1292 -0.1024  0.3507
62991W        W 5903   1.824  25.489   9.234  0.1318  0.0543  0.2237
62992W        W 5904   0.789  25.395   7.664 -0.1256  0.4878 -0.3885
62993W        W 5905   2.616  22.613   7.429 -0.2813 -0.3137  0.0179
62994W        W 5906   1.713  21.965   8.281 -0.1148  0.0029 -0.1714
62995W        W 5907   3.488  22.430   7.089 -0.0219  0.0486 -0.0019
62996W        W 5908   1.553  23.218   8.959  0.1539 -0.1086  0.1259
62997W        W 5909   1.937  25.017   7.626 -0.1883 -0.1978 -0.1704
62998W        W 5910   1.253  23.227   8.517  0.0626 -0.1522 -0.0364
62999W        W 5911   1.182  23.758   8.515  0.1470  0.1239 -0.1334
63000W        W 5912   1.854  23.162  10.127  0.2221 -0.1071 -0.0952
63001W        W 5913   3.109  24.709   9.903 -0.0736  0.0554 -0.0558
63002W        W 5914   0.274  23.191   9.673  0.0020 -0.2672  0.0554
63003W        W 5915   2.988  24.972   7.548 -0.1163 -0.1791  0.2498
63004W        W 5916   3.584  24.919   8.046 -0.0880 -0.0509  0.0884
63005W        W 5917   2.086  24.099   6.991  0.1310  0.1145 -0.0634
63006W        W 5918   0.216  23.414   7.816  0.2035  0.0389 -0.2190
63007W        W 5919   1.927  21.731   7.151  0.2446 -0.0700 -0.1239
63008W        W 5920   3.240  21.898   9.617  0.2238 -0.1320  0.3057
63009W        W 5921   4.180  23.341   9.336  0.2626 -0.1986  0.1067
63010W        W 5922   2.066  24.430   9.178  0.2106 -0.3610 -0.0518
63011W        W 5923   2.101  23.253   7.441 -0.0947 -0.1684 -0.1677
63012W        W 5924   1.904  22.925   8.727 -0.2028 -0.0697 -0.3248
63013W        W 5925   1.598  23.572   8.474 -0.1719  0.2785 -0.3143
63014W        W 5926   1.821  23.981   6.019  0.3376  0.0607  0.0890
63015W        W 5927   1.573  23.719   8.995 -0.0967  0.1957  0.0510
63016W        W 5928   4.236  22.793   9.508  0.2137 -0.1573  0.1671
63017W        W 5929   3.700  23.340   7.944  0.0062 -0.6725  0.1032
63018W        W 5930   0.815  25.496   9.020  0.2060  0.2458  0.1406
63019W        W 5931   1.526  25.243   7.345 -0.1841 -0.3368  0.2089
63020W        W 5932   0.774  24.468   8.766 -0.0781  0.2188  0.0766
63021W        W 5933   0.598  23.801   7.783 -0.0461  0.1126  0.1575
63022W        W 5934  34.412  23.448   9.495 -0.2698 -0.0424 -0.1724
63023W        W 5935   1.193  23.070   9.267  0.1980 -0.1145  0.1266
63024W        W 5936   4.222  21.637   7.210  0.0237  0.1556 -0.0129
63025W        W 5937   3.137  21.768   9.110 -0.2145  0.1394  0.1791
63026W        W 5938   1.015  23.428   6.542 -0.0286  0.0647 -0.1095
63027W        W 5939   2.027  25.945   9.150  0.1946 -0.0971  0.0310
63028W        W 5940   3.483  22.877   7.934 -0.2772  0.2012  0.0333
63029W        W 5941   2.596  25.202   6.239 -0.0219  0.4032 -0.2006
63030W        W 5942   1.379  25.589  10.129 -0.2138  0.1975 -0.2011
63031W        W 5943  33.913  23.362   8.193  0.1327 -0.2797  0.0859
63032W        W 5944   0.017  22.592   9.002  0.4688  0.1321 -0.3394
63033W        W 5945   0.274  22.076   8.512 -0.0198 -0.0614  0.0782
63034W        W 5946   2.183  22.111   8.184 -0.2646  0.2020 -0.0084
63035W        W 5947   1.514  22.836   8.295 -0.0982 -0.3202 -0.0664
63036W        W 5948   0.684  24.623   7.763  0.1083  0.2018 -0.3837
63037W        W 5949   1.690  26.524   7.586  0.2105  0.2147 -0.1644
63038W        W 5950   5.033  24.635   9.278  0.0645 -0.0346 -0.4668
63039W        W 5951   2.294  26.023   8.662 -0.2011 -0.1561 -0.0958
63040W        W 5952   0.576  22.636   9.163  0.3065  0.2607  0.0347
63041W        W 5953   0.538  22.914   7.318 -0.2947 -0.0831  0.1847
63042W        W 5954   1.063  25.675   8.409  0.2306 -0.0311  0.0007
63043W        W 5955   0.481  24.905   9.521 -0.1524 -0.1436  0.0272
63044W        W 5956   1.367  22.775   8.815 -0.1756  0.0518  0.0040
63045W        W 5957   3.669  26.317   9.512 -0.0657  0.0820  0.4628
63046W        W 5958   1.512  23.885   8.060 -0.2335  0.1034  0.0259
63047W        W 5959   4.650  23.043   9.376 -0.1154  0.1515 -0.1181
63048W        W 5960   2.634  23.825   8.464  0.0089  0.4141 -0.0930
63049W        W 5961   1.137  22.255   6.723 -0.3970 -0.0041  0.0539
63050W        W 5962   1.943  25.575   8.243 -0.0862  0.0309  0.1120
63051W        W 5963   1.318  26.565   7.284 -0.1672  0.2394  0.1617
63052W        W 5964   0.344  24.257   9.078 -0.1508  0.1907  0.0034
63053W        W 5965   1.602  24.232   9.082  0.2045 -0.1221 -0.0888
63054W        W 5966   3.486  22.266   8.933 -0.0332 -0.2118  0.0356
63055W        W 5967   0.062  22.614   8.075  0.0208 -0.0175  0.0097
63056W        W 5968   2.224  22.056   8.693  0.0065  0.3280  0.2320
63057W        W 5969   3.883  22.787   6.966 -0.0441  0.2907 -0.1928
63058W        W 5970   2.250  24.673   8.733 -0.3241  0.2754 -0.2034
63059W        W 5971   2.281  24.187   8.506 -0.1298 -0.1231  0.0035
63060W        W 5972   1.540  21.931   7.344  0.0774 -0.3570  0.1716
63061W        W 5973   1.799  23.532   7.854 -0.2828 -0.2697  0.2124
63062W        W 5974   2.016  25.086   9.040 -0.2110  0.1009 -0.1562
63063W        W 5975   1.043  23.271   7.572  0.1693 -0.1041 -0.2659
63064W        W 5976   3.315  24.118   7.686 -0.1192  0.0688 -0.0895
63065W        W 5977   3.198  21.278   9.116  0.0097  0.1425  0.1142
63066W        W 5978   1.450  25.113   9.895 -0.1184  0.0274  0.0964
63067W        W 5979   2.325  21.226   8.772  0.0760  0.0679 -0.0192
63068W        W 5980   1.635  22.469   7.380 -0.0933  0.4458  0.0008
63069W        W 5981   2.472  23.001   8.804  0.2466  0.0874 -0.0376
63070W        W 5982   0.753  25.917   7.396 -0.1618  0.0194 -0.2093
63071W        W 5983   2.340  21.693   9.019 -0.3829  0.0922  0.1213
63072W        W 5984   1.981  23.457   8.761 -0.0626 -0.1514 -0.5101
63073W        W 5985   2.994  23.332   9.220 -0.1543 -0.0052 -0.0508
63074W        W 5986   4.106  24.937   9.568  0.3132  0.0255  0.0517
63075W        W 5987   1.876  23.457   6.702  0.1145 -0.1979 -0.0684
63076W        W 5988   3.676  21.564   9.364 -0.1668 -0.0804 -0.0959
63077W        W 5989   0.596  26.231   9.367 -0.1892  0.2196  0.0424
63078W        W 5990   0.669  23.835   8.750 -0.3988  0.0824 -0.3141
63079W        W 5991   0.513  22.565   7.730  0.0473 -0.1794 -0.0268
63080W        W 5992   0.179  25.237   6.899  0.3016 -0.0577 -0.1953
63081W        W 5993   1.388  24.465   6.951 -0.0022 -0.2346 -0.2996
63082W        W 5994   0.541  22.674   8.210 -0.0048  0.1103 -0.2538
63083W        W 5995   2.837  24.322   9.573 -0.0011  0.0726  0.2149
63084W        W 5996   1.449  24.256   7.703 -0.0932 -0.1390  0.0504
63085W        W 5997   6.290  22.157  12.453 -0.2480  0.3187  0.1541
63086W        W 5998   1.510  25.976   8.526 -0.0218 -0.0189 -0.2944
63087W        W 5999   3.608  22.372   8.377  0.2081  0.0999  0.0015
63088W        W 6000   1.146  24.842   8.827  0.1873  0.3108  0.2690
63089W        W 6001   0.000  23.114   6.707 -0.0617  0.1674  0.0662
63090W        W 6002  34.139  23.133   8.712 -0.0938  0.2191 -0.1082
63091W        W 6003   4.047  23.385   7.618 -0.1070 -0.2896  0.2297
63092W        W 6004   1.116  23.569   9.043 -0.2483 -0.0534 -0.4017
63093W        W 6005  34.424  22.584   9.482 -0.1070  0.1764 -0.0533
63094W        W 6006   1.219  21.695   9.419 -0.1361  0.0668 -0.1458
63095W        W 6007   1.077  24.511   9.234  0.2958 -0.1671  0.0183
63096W        W 6008   2.756  21.891   8.279  0.1603 -0.4117  0.2410
63097W        W 6009   1.461  22.694   7.821 -0.2526 -0.2484  0.2236
63098W        W 6010   5.120  22.538   7.745 -0.1049  0.3837  0.3249
63099W        W 6011   2.828  21.689   9.903 -0.0449  0.1197 -0.0760
63100W        W 6012   2.730  26.104  10.140 -0.3221 -0.1166 -0.1854
63101W        W 6013   1.160  23.566  10.017  0.0036 -0.2709  0.0772
63102W        W 6014   1.652  25.408   7.889  0.1018 -0.0981 -0.0806
63103W        W 6015   1.899  25.090   8.552  0.0771 -0.3779  0.0194
63104W        W 6016   1.825  23.666   9.953 -0.0362 -0.0701 -0.2418
63105W        W 6017   3.226  22.832   9.351 -0.1585 -0.3427 -0.0780
63106W        W 6018   0.865  22.863   8.807 -0.1273 -0.0084  0.2458
63107W        W 6019   3.455  23.221   9.832  0.2787  0.0288 -0.0115
63108W        W 6020   1.423  22.848  10.287 -0.0706 -0.2574 -0.1474
63109W        W 6021   1.710  24.007   8.547  0.2664 -0.1805 -0.1040
63110W        W 6022   3.879  23.616   8.930  0.3639 -0.0313 -0.0050
63111W        W 6023   3.541  25.099   6.810 -0.2384  0.0818 -0.4332
63112W        W 6024   1.241  23.663   7.634  0.0861 -0.0790 -0.0812
63113W        W 6025  34.276  24.815   9.008  0.2298  0.0172 -0.2332
63114W        W 6026   1.536  24.741   7.442 -0.1109  0.0870 -0.0507
63115W        W 6027   1.051  24.597   9.703 -0.1615  0.1665  0.0626
63116W        W 6028   0.707  24.903   9.040 -0.0528  0.3805  0.0804
63117W        W 6029   1.246  24.911   7.021  0.1512  0.1904 -0.2529
63118W        W 6030   4.080  22.940   9.979 -0.2959  0.3080  0.0422
63119W        W 6031   3.283  21.574   6.676 -0.1706  0.2328 -0.0115
63120W        W 6032   2.693  24.736   6.645 -0.3297 -0.1097 -0.2867
63121W        W 6033   2.404  23.311   8.456  0.4552 -0.1156  0.2071
63122W        W 6034   2.257  23.356   7.962  0.1664  0.0990  0.2406
63123W        W 6035   0.988  21.059   9.500 -0.0444  0.1194  0.4530
63124W        W 6036   3.702  24.087   9.150 -0.0051 -0.3855  0.0937
63125W        W 6037   1.568  23.358   9.491  0.0330 -0.1744 -0.0213
63126W        W 6038   0.611  23.430   7.459 -0.1553 -0.3911 -0.1044
63127W        W 6039   0.891  23.542   9.501  0.2647  0.0493  0.3400
63128W        W 6040   5.327  23.622   8.906 -0.0055 -0.0897  0.0706
63129W        W 6041   1.085  25.039   7.527 -0.0549 -0.2088  0.1724
63130W        W 6042   3.057  22.952   8.869 -0.0802  0.0733 -0.0181
63131W        W 6043   2.551  23.454   9.982 -0.0300 -0.4310  0.1725
63132W        W 6044   3.518  22.709   8.758 -0.2378  0.1239 -0.0557
63133W        W 6045   3.091  23.723   7.414 -0.4256 -0.1420 -0.0417
63134W        W 6046   0.537  23.676   8.248  0.0482 -0.1875 -0.1838
63135W        W 6047   1.712  24.986   9.427  0.0378 -0.0232 -0.1979
63136W        W 6048   1.779  22.482   8.525  0.2734 -0.2731 -0.3812
63137W        W 6049   4.785  23.667   9.946  0.2288  0.1066 -0.1196
63138W        W 6050   3.141  22.766   7.398 -0.0113 -0.1315 -0.2424
63139W        W 6051   5.049  22.914   8.992 -0.2348  0.4718  0.3791
63140W        W 6052   3.667  21.958   7.970  0.1762  0.1055 -0.0627
63141W        W 6053   1.001  22.592   8.416 -0.2119 -0.1125  0.0376
63142W        W 6054   1.061  22.937   8.038 -0.2893  0.2142 -0.0740
63143W        W 6055   2.715  22.130   7.726  0.1976  0.0300 -0.3842
63144W        W 6056   1.881  25.639   6.901  0.0758  0.3095 -0.0416
63145W        W 6057   1.861  25.656   8.727  0.0727  0.0700  0.3899
63146W        W 6058   2.953  22.745   7.872 -0.3166 -0.1622  0.1034
63147W        W 6059  34.628  23.011   8.714  0.3279 -0.0296  0.4426
63148W        W 6060   0.227  22.245   6.585 -0.0173  0.3141 -0.2648
63149W        W 6061   2.663  23.612   7.706 -0.0964  0.1855 -0.0895
63150W        W 6062   2.040  23.704   9.320 -0.1107  0.1555  0.2725
63151W        W 6063   1.394  21.447   7.435 -0.1674 -0.2752  0.1384
63152W        W 6064   0.995  25.878   7.901 -0.0357 -0.2424  0.0647
63153W        W 6065  33.888  22.536   9.975  0.2939 -0.4000 -0.2039
63154W        W 6066   0.967  25.909   9.232  0.1216 -0.0857 -0.1059
63155W        W 6067   1.391  25.399   9.510 -0.2176  0.0307  0.1959
63156W        W 6068   2.716  22.895   9.230  0.3071 -0.1101 -0.2004
63157W        W 6069   4.172  21.396   9.585 -0.2171 -0.1188 -0.1391
63158W        W 6070   1.150  24.105   8.899  0.3461 -0.0798 -0.1704
63159W        W 6071   0.696  21.816   9.646 -0.1113 -0.2593 -0.1168
63160W        W 6072   4.600  23.092   8.821 -0.0212  0.3030  0.1359
63161W        W 6073   1.326  23.854   9.448  0.4150 -0.1573 -0.1636
63162W        W 6074   2.265  25.236   9.418 -0.1597  0.0094 -0.0854
63163W        W 6075   1.297  22.232   8.676  0.0273  0.0010 -0.2153
63164W        W 6076   2.148  23.625   7.061 -0.2511  0.1215 -0.0722
63165W        W 6077   2.500  22.324   9.214  0.2029  0.0216 -0.1243
63166W        W 6078   1.121  25.303   8.039  0.1269 -0.2379  0.1096
63167W        W 6079   1.507  24.373   8.156  0.0463 -0.2723  0.1566
63168W        W 6080   2.436  24.615   7.754  0.3703  0.1857  0.0055
63169W        W 6081   2.541  25.641   9.911  0.4141  0.0878 -0.0556
63170W        W 6082   1.420  23.242   7.928  0.2830 -0.0011 -0.2843
63171W        W 6083   0.651  26.469   8.505 -0.2518 -0.0880 -0.1864
63172W        W 6084   1.002  25.391   7.211  0.2104  0.0042 -0.0552
63173W        W 6085   1.255  25.556   7.584 -0.1376 -0.0687 -0.2595
63174W        W 6086   1.080  26.365   7.803 -0.0210 -0.2466  0.1683
63175W        W 6087   1.993  22.152   6.497 -0.0135  0.3304  0.0467
63176W        W 6088   3.284  23.323   8.259 -0.0154  0.0335  0.2419
63177W        W 6089   3.641  22.631   7.499  0.0157  0.3311  0.0689
63178W        W 6090   3.111  22.283   8.265  0.0933  0.1478  0.2799
63179W        W 6091   1.357  22.077   6.220 -0.1186 -0.1895  0.1634
63180W        W 6092   2.572  25.634   7.045 -0.3195  0.2652 -0.0030
63181W        W 6093   0.408  22.884   6.363 -0.0354 -0.2857  0.2610
63182W        W 6094   2.344  25.136   9.916 -0.1822 -0.0650 -0.0387
63183W        W 6095   2.967  23.562   9.639  0.1341 -0.0012 -0.1413
63184W        W 6096   1.353  23.429   7.153 -0.0272 -0.1888 -0.0501
63185W        W 6097   3.095  24.034   9.858 -0.0945  0.3338  0.1082
63186W        W 6098   1.979  24.451   7.750  0.4102 -0.1373  0.0330
63187W        W 6099   2.948  24.765   9.300  0.1620  0.1230  0.0868
63188W        W 6100   0.392  25.480   9.820 -0.0768  0.2404 -0.2098
63189W        W 6101  34.383  21.789   7.733 -0.3272  0.0386 -0.0050
63190W        W 6102   3.900  22.430   7.902 -0.1232  0.1119 -0.1989
63191W        W 6103   1.134  25.098   9.302 -0.1974 -0.0021 -0.0698
63192W        W 6104   2.146  23.715   8.330  0.2375  0.2500  0.2792
63193W        W 6105   3.119  21.755   7.681 -0.0449  0.0556  0.1291
63194W        W 6106   0.210  25.266   9.305 -0.2350  0.1887  0.0064
63195W        W 6107   0.624  23.393   9.898 -0.0347  0.0771 -0.2814
63196W        W 6108   1.871  23.970   7.532 -0.0993 -0.5454 -0.0317
63197W        W 6109   2.609  23.382   6.577  0.0324  0.1889 -0.0307
63198W        W 6110  34.549  22.066   9.439  0.2268  0.1578 -0.0120
63199W        W 6111   2.631  22.370   8.201  0.1475 -0.2114  0.0455
63200W        W 6112   0.694  23.257   8.993  0.2338  0.0621  0.0043
63201W        W 6113   3.152  26.305   9.250  0.0636  0.2033  0.2526
63202W        W 6114   0.416  21.740   9.229  0.3874  0.3026 -0.3094
63203W        W 6115   2.786  23.350   8.697 -0.0563  0.2966 -0.0135
63204W        W 6116   3.707  24.857   9.241 -0.1106  0.0958 -0.1430
63205W        W 6117   1.382  25.775   7.135 -0.1531  0.2187  0.0071
63206W        W 6118   4.012  24.271   8.837  0.2815 -0.0710 -0.2227
63207W        W 6119   3.306  25.002   9.557  0.2136 -0.0568 -0.3251
63208W        W 6120   0.707  23.102   9.462 -0.1487  0.0185  0.0244
63209W        W 6121   2.328  24.333   9.636 -0.0375 -0.1921  0.1905
63210W        W 6122   3.750  24.002   8.146  0.0217  0.1327  0.1707
63211W        W 6123   2.252  22.357   7.702 -0.0148 -0.0256 -0.1460
63212W        W 6124   0.677  23.962   9.226 -0.1912  0.0538 -0.1709
63213W        W 6125   0.671  24.717   7.246 -0.1134 -0.0354  0.2028
63214W        W 6126   3.634  23.592   8.453 -0.0097  0.3499 -0.1051
63215W        W 6127   2.189  25.127   8.110 -0.1968 -0.0780 -0.1659
63216W        W 6128   3.580  24.079   8.678  0.0280  0.2068 -0.0953
63217W        W 6129   1.144  24.025   7.313  0.0401 -0.3729 -0.1961
63218W        W 6130   2.369  23.946   7.910 -0.1894 -0.0137  0.2302
63219W        W 6131   1.878  26.032   7.743 -0.2227  0.2026  0.1411
63220W        W 6132   3.239  23.934   9.283 -0.2663  0.1034  0.0110
63221W        W 6133   4.035  23.852   8.556 -0.0504  0.1501 -0.2654
63222W        W 6134   2.524  24.282   8.950 -0.0932 -0.4341  0.0647
63223W        W 6135   1.398  22.581   9.540 -0.2315  0.4329  0.2086
63224W        W 6136   4.592  21.942   8.191  0.0658  0.1388  0.3214
63225W        W 6137   2.236  21.641   8.028  0.2021  0.2256  0.1134
63226W        W 6138   1.864  25.450  10.210 -0.0722  0.4432  0.0639
63227W        W 6139  33.853  23.084   7.025 -0.0449  0.3316 -0.3876
63228W        W 6140   0.528  26.053   8.260  0.0829  0.1622 -0.0709
63229W        W 6141   1.818  22.811   9.767 -0.0371  0.3137  0.0383
63230W        W 6142  34.515  22.843   9.857 -0.0345  0.1828 -0.1221
63231W        W 6143   0.303  22.764   6.845 -0.1210 -0.0543  0.1334
63232W        W 6144   2.031  24.050   8.898 -0.1139  0.0311  0.0465
63233W        W 6145  34.062  21.375   9.350  0.0325 -0.0650 -0.0020
63234W        W 6146  33.827  21.844   9.280 -0.1076  0.1868 -0.0800
63235W        W 6147   2.889  24.030   8.049 -0.2006 -0.2386 -0.2443
63236W        W 6148   2.881  23.874   8.898 -0.3414  0.1515 -0.2220
63237W        W 6149   2.407  23.656   8.942 -0.0998  0.2113 -0.1125
63238W        W 6150   1.238  24.181   6.614 -0.1569  0.1473 -0.3203
63239W        W 6151   0.015  21.875   7.272  0.1458  0.2993  0.0072
63240W        W 6152   0.702  23.156   8.429 -0.2402 -0.0076 -0.1635
63241W        W 6153   1.726  24.935   8.072  0.0404  0.0576  0.1799
63242W        W 6154   2.965  25.415   5.946 -0.1739 -0.0482  0.1966
63243W        W 6155  34.381  23.026   9.152 -0.2898 -0.0422 -0.1395
63244W        W 6156   1.897  24.935   9.954 -0.0525  0.0961  0.1408
63245W        W 6157   1.222  24.691   7.853 -0.2881  0.1219  0.3400
63246W        W 6158   3.730  23.046   9.465  0.3882 -0.0420  0.0130
63247W        W 6159   1.786  24.478   8.557 -0.1115  0.1505 -0.0788
63248W        W 6160   4.019  22.329   9.744  0.0799 -0.1031  0.4276
63249W        W 6161   1.388  22.346   8.203  0.0638  0.0675 -0.2381
63250W        W 6162   2.443  22.746   7.892 -0.3973  0.3151  0.2205
63251W        W 6163   1.822  24.943   7.037  0.0559 -0.1714  0.0651
63252W        W 6164   0.343  23.533   9.322 -0.2385  0.1836  0.3894
63253W        W 6165   0.950  22.735   7.490  0.1203  0.2709  0.2776
63254W        W 6166   2.879  22.227   9.991  0.0008 -0.0652 -0.2832
63255W        W 6167   0.885  22.857   6.570 -0.0879 -0.0024 -0.0783
63256W        W 6168   2.781  24.323   8.460 -0.0135 -0.2228 -0.0495
63257W        W 6169   2.781  25.219   9.529 -0.1120  0.2055  0.2184
63258W        W 6170   4.106  25.444  10.330  0.2126  0.2608  0.1247
63259W        W 6171   4.509  22.671   9.037  0.2239  0.1482 -0.1587
63260W        W 6172   0.282  22.272   9.473 -0.3079  0.2719  0.0631
63261W        W 6173   1.798  24.174   9.585  0.1418  0.0678 -0.1414
63262W        W 6174   0.946  24.583   8.252  0.0807 -0.1082 -0.2232
63263W        W 6175   1.270  22.977   9.821  0.0040 -0.1042 -0.1129
63264W        W 6176   1.641  22.442   9.080 -0.0121  0.2538 -0.0141
63265W        W 6177   1.879  21.982   6.041  0.0250  0.3416 -0.2362
63266W        W 6178   1.955  26.922   9.553 -0.1189  0.1605  0.3131
63267W        W 6179   1.000  23.199  10.278 -0.3562  0.1029 -0.1934
63268W        W 6180   0.922  28.084   2.753 -0.1428  0.1856 -0.0639
63269W        W 6181   1.085  27.200   2.266  0.3082  0.3803  0.0328
63270W        W 6182   2.836  26.334  31.833  0.3422 -0.1067  0.1449
63271W        W 6183   2.012  28.395   0.523 -0.2629  0.0442  0.0227
63272W        W 6184  33.991  25.633   0.564  0.0759 -0.0100  0.0084
63273W        W 6185   2.110  29.906   0.301  0.1593  0.1483 -0.1110
63274W        W 6186   1.575  24.642   3.771 -0.1714 -0.0817 -0.0649
63275W        W 6187   2.216  28.378   2.938 -0.1966  0.0393 -0.0910
63276W        W 6188   3.640  28.840   2.841  0.2091  0.2378 -0.1700
63277W        W 6189   1.553  26.850  31.940 -0.0965 -0.3450 -0.0723
63278W        W 6190   1.918  27.235   3.530 -0.0044 -0.1408  0.1419
63279W        W 6191   1.353  28.320   2.833 -0.0297  0.2243 -0.1085
63280W        W 6192   2.156  23.508   0.295 -0.0514  0.0322 -0.0458
63281W        W 6193  33.935  26.324   2.652  0.0449  0.1088  0.3600
63282W        W 6194   2.443  26.773   2.782  0.1549  0.0271 -0.0314
63283W        W 6195   0.752  26.927   1.371 -0.0146 -0.1099  0.0382
63284W        W 6196  34.414  27.215   3.244  0.0330  0.1437 -0.0353
63285W        W 6197   1.434  26.512   0.315 -0.0250  0.1185 -0.3849
63286W        W 6198   2.817  29.481   0.052  0.1056 -0.1356  0.1944
63287W        W 6199   1.160  26.087   2.012  0.1746  0.1226 -0.0319
63288W        W 6200   2.194  25.918   2.688  0.2279  0.1256 -0.0078
63289W        W 6201   1.020  28.665  31.462 -0.1771  0.0717  0.0338
63290W        W 6202   0.800  27.112   0.414 -0.0763 -0.3843  0.1649
63291W        W 6203  34.318  27.173   0.692 -0.2829  0.1485  0.2942
63292W        W 6204   0.980  28.096   3.787  0.4482 -0.2368  0.1477
63293W        W 6205   3.313  26.168   2.627 -0.3454 -0.0044  0.2734
63294W        W 6206   2.805  27.512   2.394 -0.0832  0.1189  0.2147
63295W        W 6207   2.167  29.057   3.559  0.1431  0.1057  0.0915
63296W        W 6208   1.850  28.466   1.895 -0.0476  0.0299  0.0080
63297W        W 6209   3.894  26.444   2.002 -0.1267  0.1744 -0.1004
63298W        W 6210   1.034  27.386   0.790 -0.1112 -0.0975 -0.1918
63299W        W 6211  34.349  29.426   2.514 -0.0814  0.1718  0.1781
63300W        W 6212   2.308  28.766   2.160 -0.2238  0.1564  0.0550
63301W        W 6213   2.139  28.345   2.427  0.1658  0.0254 -0.0994
63302W        W 6214   2.639  29.120   3.412  0.1196  0.2331 -0.1262
63303W        W 6215   2.137  28.607   3.372 -0.1155  0.1625  0.0673
63304W        W 6216  34.498  27.942  31.560 -0.2228  0.1079 -0.0983
63305W        W 6217   2.279  28.911   4.036  0.0035 -0.3599 -0.4607
63306W        W 6218   0.912  28.584   2.903  0.1182  0.0124 -0.0945
63307W        W 6219   1.015  27.561   2.588 -0.1457  0.0772  0.1076
63308W        W 6220   1.385  27.608   0.535 -0.0928 -0.2908 -0.0904
63309W        W 6221   1.530  28.767  31.750 -0.0206 -0.1091 -0.1143
63310W        W 6222   1.037  28.383   2.344 -0.4298 -0.2008  0.1491
63311W        W 6223   0.755  27.184   2.836  0.0418  0.2299 -0.1085
63312W        W 6224  33.733  29.131   1.585 -0.1166 -0.2425 -0.0328
63313W        W 6225   2.963  26.277   3.080 -0.0340 -0.2353  0.1255
63314W        W 6226   1.601  28.871  31.136  0.0327  0.1700  0.1958
63315W        W 6227   2.960  27.978   0.124  0.3595  0.1665 -0.2005
63316W        W 6228   2.215  25.046   1.215  0.2004  0.2293  0.1233
63317W        W 6229   2.499  26.500   0.272  0.3132 -0.1654 -0.4000
63318W        W 6230   0.095  26.446   2.978 -0.0666  0.0983  0.0668
63319W        W 6231   0.390  29.027   0.822  0.1411 -0.0929 -0.0224
63320W        W 6232  34.389  26.104   2.717 -0.4516 -0.2991  0.0215
63321W        W 6233   3.368  28.934   2.377 -0.1588  0.2684 -0.1066
63322W        W 6234   1.841  26.876   1.485 -0.0859  0.2126  0.1152
63323W        W 6235   1.820  27.029   2.780 -0.1224  0.0106 -0.2106
63324W        W 6236   1.029  27.559   3.645  0.0382 -0.2171 -0.2471
63325W        W 6237  33.380  27.786   3.147  0.1890 -0.0799 -0.2238
63326W        W 6238   3.895  30.148   0.151 -0.0966  0.0244 -0.3942
63327W        W 6239   2.861  30.634   1.749  0.2266  0.2799 -0.2686
63328W        W 6240   2.294  29.058  31.867  0.3089 -0.3576 -0.2100
63329W        W 6241   0.593  26.900   0.816  0.1173  0.1106  0.0819
63330W        W 6242   0.247  28.861   1.324  0.1105 -0.0395 -0.0450
63331W        W 6243  34.516  26.774   3.423  0.0524  0.0638 -0.1693
63332W        W 6244   0.884  25.575   0.752 -0.0549  0.0166 -0.0633
63333W        W 6245   3.550  26.826   2.006 -0.5268 -0.0244 -0.1159
63334W        W 6246  34.234  28.822   1.786  0.2541 -0.1986 -0.2815
63335W        W 6247   3.926  27.584   0.593 -0.0682  0.0286 -0.2507
63336W        W 6248  34.490  27.735   2.138 -0.0561  0.1910 -0.0207
63337W        W 6249   2.959  29.238   2.445 -0.0681 -0.0328  0.1096
63338W        W 6250   2.519  27.735   0.177 -0.0302 -0.0194  0.0410
63339W        W 6251   3.039  27.297   0.864  0.2542  0.1435 -0.0155
63340W        W 6252   3.858  25.626   1.279 -0.1063  0.0871  0.2588
63341W        W 6253   0.807  27.426  31.901  0.2240  0.1343 -0.2122
63342W        W 6254   1.312  28.059   1.298  0.0527  0.1042  0.2512
63343W        W 6255   3.120  28.021   2.633  0.3048 -0.2143  0.0023
63344W        W 6256   2.819  29.121  31.154 -0.1300  0.1650 -0.1535
63345W        W 6257  34.604  29.212   1.570  0.2480 -0.0178 -0.1326
63346W        W 6258   1.211  27.096   2.804 -0.1528  0.2739  0.2628
63347W        W 6259   2.827  27.696   3.248  0.1080 -0.1964 -0.1471
63348W        W 6260   1.020  29.116  30.556 -0.0062  0.1805 -0.1231
63349W        W 6261  34.434  27.662   0.886 -0.2321 -0.1672 -0.0784
63350W        W 6262   0.550  27.898  31.680  0.0439 -0.1613  0.1033
63351W        W 6263  33.507  27.089   3.417 -0.1115  0.1535 -0.1633
63352W        W 6264   1.070  27.497   3.140 -0.2260 -0.0593  0.1173
63353W        W 6265   2.839  26.377   0.671  0.2631 -0.3381  0.0169
63354W        W 6266   0.700  25.711   2.856  0.1019 -0.3794  0.2252
63355W        W 6267   3.293  27.385   1.272 -0.1455 -0.1757  0.0594
63356W        W 6268   0.830  27.646   0.383  0.3678 -0.1098 -0.0491
63357W        W 6269   3.880  29.467   0.702  0.0760 -0.0854 -0.4745
63358W        W 6270   4.683  26.660   0.653 -0.2154 -0.4962  0.1353
63359W        W 6271   0.695  28.851   1.492 -0.0410 -0.3122  0.1748
63360W        W 6272   0.872  26.797   2.538  0.1118 -0.1273 -0.3056
63361W        W 6273   0.513  27.264   1.640  0.1635 -0.1036  0.0930
63362W        W 6274   0.299  26.518   3.468 -0.4362  0.2678 -0.1700
63363W        W 6275  33.658  28.271   3.362 -0.2889  0.2851  0.3458
63364W        W 6276   3.679  26.576   2.480  0.1191 -0.1429 -0.0952
63365W        W 6277   1.278  25.544   1.743 -0.0934  0.1118  0.0353
63366W        W 6278   2.514  26.512   1.057 -0.1127 -0.0279  0.0782
63367W        W 6279   1.322  25.800   0.018  0.1342  0.2043 -0.0452
63368W        W 6280  33.996  27.160  31.721  0.0102  0.0180 -0.2721
63369W        W 6281   3.488  26.487   3.415  0.3851  0.0187 -0.1594
63370W        W 6282   1.599  27.427   2.074 -0.0528 -0.4729 -0.2258
63371W        W 6283   3.898  28.965   3.683  0.1448  0.2979  0.0053
63372W        W 6284   3.074  29.642   1.288  0.0033  0.0286  0.1161
63373W        W 6285   1.204  26.116   3.548  0.0133 -0.1433  0.0328
63374W        W 6286   0.220  25.790   1.921 -0.0227  0.3013  0.1133
63375W        W 6287   0.570  28.211   0.641  0.0074 -0.1090 -0.0979
63376W        W 6288   0.493  28.171   2.993  0.3629  0.0065  0.1132
63377W        W 6289   0.646  25.993   0.589 -0.1112  0.3931  0.3849
63378W        W 6290   2.648  28.172   2.896  0.1922  0.0055  0.2932
63379W        W 6291   1.167  28.514   1.625  0.2326  0.0724  0.1554
63380W        W 6292   0.019  26.985   2.581  0.1751 -0.3314  0.1420
63381W        W 6293   3.929  25.382   0.370  0.0485 -0.0324 -0.0579
63382W        W 6294   4.698  26.769   2.559  0.0173  0.3956  0.2290
63383W        W 6295   2.247  27.275   2.638  0.2337  0.1102  0.0653
63384W        W 6296   0.768  25.794  31.192 -0.1144  0.0668 -0.1758
63385W        W 6297   3.048  30.069   1.035 -0.1671 -0.0593  0.0312
63386W        W 6298  34.343  29.205   0.451 -0.1881  0.4307  0.1557
63387W        W 6299   0.029  28.255   2.396  0.3210  0.2172 -0.1291
63388W        W 6300   0.309  28.428   1.999 -0.0268  0.4574 -0.1421
63389W        W 6301   2.930  26.885   1.168  0.0733  0.2783 -0.1128
63390W        W 6302  34.070  27.645   3.248 -0.1159  0.4395 -0.0666
63391W        W 6303   2.110  26.319   3.508 -0.0771  0.0149  0.1882
63392W        W 6304   0.356  26.884   0.195 -0.1045  0.0765 -0.1642
63393W        W 6305  34.266  28.172   2.622  0.4718  0.0619  0.0190
63394W        W 6306   2.737  26.005   1.070 -0.0799  0.0486 -0.1190
63395W        W 6307   2.049  26.983   0.095  0.3589 -0.0025  0.0164
63396W        W 6308   2.845  27.194   3.866 -0.0616  0.1038  0.0693
63397W        W 6309   3.779  27.964  31.560  0.0945  0.0479 -0.2118
63398W        W 6310   2.651  27.569   0.659 -0.2599  0.0172  0.0956
63399W        W 6311   1.995  25.815   0.589 -0.2467 -0.1316  0.0142
63400W        W 6312   0.383  28.634   3.629 -0.0001  0.2113 -0.3021
63401W        W 6313   4.100  27.413   2.986  0.1254  0.1563  0.2433
63402W        W 6314  34.642  28.821   2.565 -0.0229  0.1371  0.0226
63403W        W 6315   1.478  25.927  29.992  0.1404 -0.1896  0.0472
63404W        W 6316   3.004  28.717   1.436 -0.2692 -0.0037 -0.3567
63405W        W 6317  34.247  27.181   2.749 -0.2230  0.4316 -0.0461
63406W        W 6318   2.653  28.572   3.173 -0.2943 -0.3199  0.1431
63407W        W 6319   2.491  28.015   1.581 -0.2735 -0.0487  0.0668
63408W        W 6320   1.053  24.771   3.122  0.0375 -0.0719 -0.2833
63409W        W 6321   1.412  28.057  31.559  0.0582  0.2070 -0.2696
63410W        W 6322   2.682  27.248   0.220 -0.1153  0.0217 -0.3470
63411W        W 6323  33.396  29.097   0.763 -0.4548 -0.0023 -0.2120
63412W        W 6324   3.226  26.910   1.575 -0.2170 -0.2053  0.0852
63413W        W 6325   2.487  25.575   2.955 -0.1120  0.1978 -0.1931
63414W        W 6326   0.830  26.392   2.243 -0.1831 -0.2791 -0.3940
63415W        W 6327   3.387  26.662   2.882  0.2113  0.1229  0.2600
63416W        W 6328   1.523  24.924  31.572  0.2825  0.1957  0.0457
63417W        W 6329   2.670  27.000   2.397  0.1312 -0.1138 -0.0589
63418W        W 6330   1.259  27.021   0.542 -0.0215  0.0470  0.2477
63419W        W 6331   2.320  26.285   1.956  0.2016  0.0052  0.1140
63420W        W 6332   2.103  27.633   4.387 -0.1514 -0.0809 -0.4755
63421W        W 6333   1.329  29.704   3.482  0.0152 -0.0919  0.2879
63422W        W 6334   2.853  26.864   3.101 -0.2739  0.0507 -0.1734
63423W        W 6335   2.253  27.307   2.146  0.1135  0.1993  0.1006
63424W        W 6336   1.509  27.286   3.697 -0.2310 -0.1850 -0.3338
63425W        W 6337   1.099  26.167   0.238  0.3675 -0.2571  0.3894
63426W        W 6338   1.080  28.617  30.777  0.2254  0.0272 -0.1248
63427W        W 6339   0.780  28.659   1.965  0.1471  0.0571 -0.0327
63428W        W 6340   0.896  25.122   1.950  0.3257 -0.1836 -0.1812
63429W        W 6341   2.579  29.579   2.282  0.0183 -0.0222  0.0906
63430W        W 6342   1.862  27.689  31.606 -0.0178  0.2713 -0.2152
63431W        W 6343   3.009  26.327   3.591 -0.2976  0.0043  0.1696
63432W        W 6344   0.063  28.771  31.904 -0.0027 -0.2312 -0.0308
63433W        W 6345   2.819  26.917   0.555  0.0354 -0.0823 -0.3813
63434W        W 6346  34.456  28.054   1.180  0.1803  0.0487 -0.0962
63435W        W 6347   1.558  26.694   1.112  0.0020  0.2050 -0.1427
63436W        W 6348   0.350  27.116   1.173 -0.1397 -0.1564 -0.0560
63437W        W 6349   3.074  25.157   0.673 -0.1232 -0.1704  0.2558
63438W        W 6350   2.651  28.003   1.028  0.1430  0.4236 -0.0875
63439W        W 6351   0.424  26.691   1.675  0.0102  0.2342  0.2224
63440W        W 6352   0.927  25.175   1.002 -0.0792 -0.0651 -0.0104
63441W        W 6353  34.086  29.572   0.129 -0.2531  0.1801 -0.0588
63442W        W 6354   1.539  27.215   3.149 -0.1315  0.3999  0.1132
63443W        W 6355   3.671  26.411   0.364 -0.3287  0.2563 -0.2323
63444W        W 6356   1.904  29.555   3.605  0.0725 -0.0295  0.1327
63445W        W 6357   1.302  28.124   4.244 -0.1936 -0.0343  0.1176
63446W        W 6358  34.493  26.729   0.298 -0.1201 -0.1738  0.1118
63447W        W 6359   2.381  27.542   1.467 -0.0042  0.1763  0.0760
63448W        W 6360   0.730  28.032   1.994  0.2039  0.1662 -0.3430
63449W        W 6361   0.837  29.171   1.072  0.3964 -0.0423 -0.3629
63450W        W 6362   1.138  29.017   3.021 -0.0896 -0.1461 -0.2588
63451W        W 6363   0.569  27.750   2.465 -0.1418  0.1618  0.2278
63452W        W 6364  34.132  29.338   1.904  0.3223 -0.0993  0.1622
63453W        W 6365   1.126  27.311   4.153 -0.0034  0.1337 -0.2663
63454W        W 6366   2.245  27.063   3.230 -0.0790 -0.2309  0.1811
63455W        W 6367   1.167  27.656   2.141 -0.2635  0.0495 -0.2067
63456W        W 6368   1.768  25.272   1.153 -0.2137 -0.2885 -0.1238
63457W        W 6369   1.264  26.824   2.007  0.2706  0.0164  0.2663
63458W        W 6370   2.307  27.834   2.653  0.1493 -0.1927  0.1666
63459W        W 6371   0.875  26.470   1.710 -0.0981 -0.3082 -0.1216
63460W        W 6372   0.528  28.248   2.481 -0.1549  0.4747  0.1824
63461W        W 6373   1.686  25.780   2.504  0.4428 -0.0758  0.0001
63462W        W 6374   4.386  29.886   1.433  0.2641 -0.0776  0.1103
63463W        W 6375   2.491  26.632   3.318  0.4644  0.1529  0.0240
63464W        W 6376   0.510  27.778   1.602 -0.0952  0.1770 -0.0372
63465W        W 6377  34.403  28.905   3.008 -0.0787  0.2169  0.0341
63466W        W 6378   0.677  27.505   2.044  0.2340 -0.2602  0.2472
63467W        W 6379   0.423  26.634   2.338 -0.2152 -0.1126  0.0223
63468W        W 6380   0.831  28.868   2.480  0.0693  0.0341 -0.0545
63469W        W 6381   0.608  28.627  31.911  0.2940 -0.2148  0.0885
63470W        W 6382   1.520  29.609   1.491  0.0691  0.3026  0.1534
63471W        W 6383   4.083  26.152   0.375  0.4094  0.0997 -0.0816
63472W        W 6384  34.672  29.204  31.249  0.0622  0.0709 -0.0967
63473W        W 6385   1.517  26.448   1.608  0.0672  0.1598  0.0940
63474W        W 6386   3.276  26.658   4.417 -0.1827 -0.1646  0.3377
63475W        W 6387   1.240  26.855   1.506  0.0934  0.1804 -0.1855
63476W        W 6388   3.324  25.684   2.716  0.0998 -0.0794 -0.0256
63477W        W 6389   1.226  25.615   2.730 -0.2169 -0.0523  0.1935
63478W        W 6390   1.888  27.632   2.449 -0.0229  0.2048  0.0037
63479W        W 6391   1.011  25.152   2.826  0.0646  0.0329 -0.1307
63480W        W 6392   2.403  29.047   2.969 -0.1754  0.2303  0.3634
63481W        W 6393  33.964  27.058   3.696 -0.1424 -0.1757  0.0475
63482W        W 6394   1.934  27.321   1.197 -0.1116 -0.1267 -0.2967
63483W        W 6395   1.242  25.607   1.171  0.0383  0.2680  0.0252
63484W        W 6396   1.560  27.742   1.657  0.0250 -0.0947  0.0323
63485W        W 6397   2.817  27.691   1.837  0.0643 -0.3790 -0.1036
63486W        W 6398   1.340  28.093   1.897 -0.2405  0.1062 -0.1824
63487W        W 6399   3.104  27.531   0.451 -0.2810 -0.0778  0.3726
63488W        W 6400  34.073  27.967   2.208 -0.0212  0.0058 -0.0289
63489W        W 6401   1.141  26.869   1.000 -0.1507  0.3508 -0.0647
63490W        W 6402   1.877  29.008   0.218  0.1436  0.1875 -0.0588
63491W        W 6403   0.265  28.124   1.232  0.1377 -0.1474  0.0313
63492W        W 6404   1.093  25.985   3.101  0.0430  0.1532 -0.1760
63493W        W 6405   3.147  27.807   2.158  0.2972 -0.0334 -0.4720
63494W        W 6406   1.760  26.519   2.435  0.0496  0.0183 -0.0619
63495W        W 6407   1.964  26.310   2.879 -0.2723 -0.2699  0.2012
63496W        W 6408   1.499  26.672   2.998  0.3013 -0.2595 -0.0296
63497W        W 6409   2.689  27.226   3.398 -0.1343 -0.0796 -0.1418
63498W        W 6410   0.629  26.148   3.167 -0.1976  0.2003  0.0527
63499W        W 6411   3.553  29.168   1.921  0.1468  0.0068  0.2647
63500W        W 6412   3.297  26.044  30.626  0.1089  0.1665  0.0849
63501W        W 6413   4.761  27.189   2.823  0.2103  0.1693  0.2508
63502W        W 6414   2.172  27.412   0.470  0.3439  0.1419 -0.3127
63503W        W 6415   0.811  27.396   1.264 -0.1140 -0.1844  0.2831
63504W        W 6416   0.191  25.905   2.880  0.1236  0.1079  0.0857
63505W        W 6417   1.775  28.110   3.181 -0.2103 -0.1291 -0.0702
63506W        W 6418   0.517  26.620  30.773  0.1527  0.1369  0.2089
63507W        W 6419   3.326  26.135   2.100  0.1174 -0.0785  0.1057
63508W        W 6420   2.648  28.376   1.341  0.0910 -0.0528 -0.0011
63509W        W 6421   1.851  28.062   2.706 -0.1159  0.2054  0.3326
63510W        W 6422   2.828  27.582   1.216 -0.2160  0.1261 -0.0964
63511W        W 6423  33.368  27.051   2.974 -0.1867 -0.0785  0.0633
63512W        W 6424   1.887  29.707   3.128  0.0446 -0.0186 -0.1581
63513W        W 6425   1.584  26.198  31.088  0.0707  0.4132 -0.4474
63514W        W 6426   0.427  27.159   2.366  0.0780  0.1482 -0.0755
63515W        W 6427   1.582  28.456   2.325  0.0375 -0.0682  0.1004
63516W        W 6428   3.904  28.240   3.369  0.0473  0.1752  0.1331
63517W        W 6429   3.266  24.500  31.432 -0.0927  0.1458 -0.0579
63518W        W 6430   3.754  26.256   2.859 -0.3383  0.2866  0.1430
63519W        W 6431  34.621  27.657   0.417 -0.2623  0.0697  0.1026
63520W        W 6432   2.382  24.679   1.932 -0.0827 -0.1333  0.3230
63521W        W 6433   1.409  27.993   2.440 -0.4241  0.0914  0.1411
63522W        W 6434  33.869  27.889   2.897  0.0679 -0.1854 -0.1198
63523W        W 6435   0.493  29.139  31.777  0.4400 -0.2000  0.2232
63524W        W 6436   4.041  25.665   2.658  0.0729 -0.0036  0.0286
63525W        W 6437   2.517  27.171   1.021 -0.3235 -0.1897  0.2304
63526W        W 6438  34.307  27.670   2.784 -0.3046 -0.0911 -0.0256
63527W        W 6439   4.327  27.005   2.779  0.0636 -0.1830  0.0182
63528W        W 6440   2.782  28.247   2.363  0.0558  0.0299 -0.1478
63529W        W 6441   0.248  27.907   2.131  0.3156  0.1881  0.0515
63530W        W 6442   2.478  28.456   3.719  0.0144  0.1770 -0.0023
63531W        W 6443   4.704  28.113   2.981 -0.0195  0.0748  0.2521
63532W        W 6444   0.590  28.111   0.122 -0.3337  0.2272 -0.3513
63533W        W 6445  33.909  26.390   4.274  0.2302  0.0245  0.0812
63534W        W 6446   2.013  27.744   3.413  0.0339  0.1056 -0.0193
63535W        W 6447   2.949  28.280   1.901  0.1458  0.3041  0.1860
63536W        W 6448   1.367  26.133   1.058  0.0166 -0.0283  0.1877
63537W        W 6449   2.543  28.195  31.950 -0.2639  0.0311 -0.0401
63538W        W 6450   1.145  28.140   3.266  0.2694  0.2510  0.2845
63539W        W 6451   0.265  27.305   2.890  0.1812 -0.2428  0.0595
63540W        W 6452   0.920  28.881   0.633  0.1352 -0.0004 -0.0727
63541W        W 6453   1.605  28.118   0.332  0.0093 -0.1123 -0.1102
63542W        W 6454   2.334  27.839   2.120  0.0552 -0.0782  0.0533
63543W        W 6455   2.335  28.313   1.973 -0.6673 -0.2185  0.1969
63544W        W 6456   0.993  25.540  31.633 -0.4519 -0.0655 -0.0761
63545W        W 6457  34.696  27.504   2.511  0.1848  0.2485  0.4226
63546W        W 6458  33.911  28.570  31.638 -0.2129  0.0820 -0.2154
63547W        W 6459   3.117  29.916   0.260  0.2386  0.0098  0.0359
63548W        W 6460   0.200  28.544   0.897  0.0533  0.0139 -0.1605
63549W        W 6461   2.501  28.669   2.588  0.0250  0.0716  0.1468
63550W        W 6462   4.949  26.167   0.624 -0.2435  0.3146 -0.0434
63551W        W 6463   3.738  27.936   2.012  0.1856  0.0808 -0.1823
63552W        W 6464   3.516  27.804   0.435  0.0835 -0.0311  0.0400
63553W        W 6465   2.395  27.413   4.050 -0.1065  0.0545  0.2875
63554W        W 6466  34.673  26.484   2.485  0.0100 -0.3248 -0.0358
63555W        W 6467   1.865  26.510   0.189 -0.2596 -0.0485 -0.0713
63556W        W 6468   1.932  26.694   3.217  0.1289 -0.0044  0.4201
63557W        W 6469   4.808  26.705   4.040  0.2604  0.0122 -0.0037
63558W        W 6470   0.112  30.142   2.797 -0.0635  0.1394  0.2356
63559W        W 6471   3.153  29.860  30.908  0.0636 -0.0052 -0.0663
63560W        W 6472  34.419  26.234   1.642 -0.0074  0.1499 -0.0578
63561W        W 6473   0.469  26.474   0.498  0.0384  0.0105  0.1379
63562W        W 6474   2.241  26.530   1.537 -0.0580  0.3150 -0.1647
63563W        W 6475   1.542  27.195   0.956  0.1439 -0.0760  0.1050
63564W        W 6476   0.626  27.658   2.963  0.2753 -0.0106 -0.2368
63565W        W 6477   0.674  29.149   0.313 -0.1785 -0.0105 -0.0956
63566W        W 6478   0.169  28.257   3.387  0.1076  0.3207  0.0960
63567W        W 6479   0.800  30.005   3.433  0.0551 -0.1615 -0.1056
63568W        W 6480   0.578  26.266   0.063 -0.1071  0.2500  0.1416
63569W        W 6481   4.901  27.364   0.986 -0.1789  0.0461 -0.0832
63570W        W 6482   0.838  26.423   3.519  0.1492 -0.0160 -0.0581
63571W        W 6483   2.800  26.187   2.114 -0.3207 -0.4515 -0.2901
63572W        W 6484   1.416  26.551   3.569 -0.0775 -0.0468  0.1589
63573W        W 6485   1.546  26.969   2.374  0.3876 -0.1961 -0.1760
63574W        W 6486   2.372  27.542   3.093  0.0349  0.1215  0.1337
63575W        W 6487   0.086  27.869   2.825 -0.1784 -0.0579 -0.1889
63576W        W 6488   1.053  26.852   0.104 -0.3220  0.1053 -0.0119
63577W        W 6489   3.202  27.031   2.544 -0.0225  0.4799  0.0794
63578W        W 6490   1.704  27.256   0.458  0.2510  0.1096 -0.3438
63579W        W 6491   0.784  28.673   4.105  0.1213  0.0874  0.2374
63580W        W 6492  34.236  25.039   2.793 -0.0139  0.0348 -0.1576
63581W        W 6493   2.051  25.179  31.758  0.0786 -0.0272 -0.0528
63582W        W 6494   0.144  27.457   1.897  0.2978  0.3440 -0.2987
63583W        W 6495   0.066  27.006   2.043  0.2638 -0.0267 -0.0920
63584W        W 6496   3.572  29.523   3.157 -0.2866  0.1282 -0.1623
63585W        W 6497   0.383  26.160   1.021 -0.2527 -0.0246 -0.1295
63586W        W 6498   2.127  28.205   1.005 -0.0737 -0.1443 -0.2032
63587W        W 6499   2.911  26.538   2.666  0.2185 -0.1822  0.0411
63588W        W 6500   2.209  28.345  31.614  0.0569 -0.0386  0.0744
63589W        W 6501   2.639  28.709   1.842 -0.2481  0.4426 -0.0425
63590W        W 6502   2.412  29.177   2.464  0.0352  0.0038 -0.0516
63591W        W 6503   0.599  25.915   1.511  0.0979 -0.0598  0.0384
63592W        W 6504   2.756  29.504   2.859 -0.1423 -0.1959 -0.1802
63593W        W 6505   3.307  28.405   2.357 -0.1488 -0.0719  0.2469
63594W        W 6506   1.758  26.009   0.169 -0.2620  0.0828 -0.2182
63595W        W 6507   0.751  26.849   2.044  0.0162  0.1455 -0.0960
63596W        W 6508   0.185  27.797   0.003  0.2237  0.3728 -0.1547
63597W        W 6509   2.322  27.012   1.496  0.3159 -0.0702  0.1520
63598W        W 6510   3.783  26.769   4.240  0.2340 -0.0462 -0.0190
63599W        W 6511   0.914  28.234  31.698 -0.2538  0.0562  0.1154
63600W        W 6512   3.752  24.897   2.057  0.0067 -0.0889  0.1269
63601W        W 6513   1.930  28.986   3.093 -0.2454 -0.0109 -0.2926
63602W        W 6514   1.498  28.692   3.309  0.1463  0.1124 -0.2515
63603W        W 6515  34.434  27.554  31.891  0.3304  0.2630  0.0804
63604W        W 6516   1.492  27.735   3.377 -0.1510  0.0673  0.2516
63605W        W 6517   2.273  28.589   0.103 -0.0112 -0.3085 -0.3398
63606W        W 6518   2.056  29.146  31.103 -0.2687  0.0100  0.0743
63607W        W 6519   2.625  29.232   0.752  0.1521  0.2184  0.1543
63608W        W 6520   2.123  26.866   2.376 -0.1934  0.0698 -0.0954
63609W        W 6521   3.357  27.567   2.702  0.1219  0.0230 -0.0269
63610W        W 6522   0.835  25.743   1.986  0.1918 -0.1863 -0.3935
63611W        W 6523   4.014  25.747  31.960 -0.0652 -0.0783 -0.0145
63612W        W 6524   2.414  25.077   0.058  0.2719 -0.0481 -0.0333
63613W        W 6525   1.278  26.501   2.429  0.0407 -0.0428 -0.0359
63614W        W 6526  34.133  26.048  31.908  0.2762 -0.2537 -0.2079
63615W        W 6527   1.355  25.890   0.545  0.1477  0.2227 -0.1482
63616W        W 6528   0.736  28.227   1.552  0.1865  0.2731  0.5482
63617W        W 6529  34.165  26.548   3.801 -0.0197 -0.1511 -0.2281
63618W        W 6530   0.482  26.754   2.946 -0.1638  0.3802 -0.4729
63619W        W 6531  33.981  27.559   1.914  0.0642 -0.1625  0.1062
63620W        W 6532  34.378  25.797   1.956  0.0518 -0.0817  0.1741
63621W        W 6533   3.396  27.930   1.273  0.0065 -0.0681  0.2249
63622W        W 6534   2.027  24.938   2.935  0.4753 -0.0364 -0.4304
63623W        W 6535  34.126  26.449   1.246  0.1331  0.0817 -0.0903
63624W        W 6536   1.821  27.730   0.737  0.0131  0.1850 -0.2188
63625W        W 6537   2.994  28.008   1.493 -0.1351  0.1127 -0.0422
63626W        W 6538   1.873  26.110   1.564 -0.1610 -0.0381 -0.4049
63627W        W 6539   3.701  27.936   2.813  0.2091 -0.0060 -0.0832
63628W        W 6540   1.003  26.416   2.842 -0.1709  0.0116 -0.2584
63629W        W 6541   0.551  26.325   2.716  0.0861 -0.0733 -0.3132
63630W        W 6542  33.918  25.844  31.497  0.2723 -0.0803  0.1329
63631W        W 6543   1.256  27.544   1.210  0.0706 -0.0528  0.3654
63632W        W 6544   2.291  29.447   3.879 -0.1528 -0.2439 -0.0569
63633W        W 6545   2.234  28.886   0.548 -0.0418 -0.3688 -0.0942
63634W        W 6546   0.966  26.827   3.201 -0.0921  0.0539  0.0513
63635W        W 6547   1.425  29.199   3.471  0.0599 -0.0686  0.0046
63636W        W 6548   0.200  27.000   3.258  0.0973  0.2336 -0.1963
63637W        W 6549   1.501  27.409   2.570 -0.1371 -0.4444  0.0849
63638W        W 6550   2.098  28.447   4.210  0.0650 -0.0991  0.0677
63639W        W 6551   3.581  28.105   0.807 -0.0553 -0.0239  0.0129
63640W        W 6552   4.416  26.217   1.811  0.1163 -0.0048  0.0357
63641W        W 6553   2.038  27.332   1.721 -0.3010 -0.0053  0.4154
63642W        W 6554   1.500  26.221   2.746 -0.1432  0.1042  0.1382
63643W        W 6555   1.493  28.191   3.731 -0.0082 -0.1410 -0.0324
63644W        W 6556   2.779  27.201   1.605 -0.0352 -0.1921 -0.1284
63645W        W 6557   2.077  25.263   0.353 -0.0125 -0.1841  0.0170
63646W        W 6558   2.526  25.924  31.716  0.0853 -0.1491  0.2176
63647W        W 6559   1.794  28.034   2.140  0.0665 -0.2082 -0.0209
63648W        W 6560  34.340  28.042   3.111 -0.1201 -0.1830  0.2576
63649W        W 6561   2.245  26.553  31.300  0.1477  0.2810 -0.4019
63650W        W 6562   1.398  27.780   2.874 -0.1676  0.0182  0.0131
63651W        W 6563   2.023  28.894   2.533  0.3287 -0.1344  0.1537
63652W        W 6564   2.623  26.127   4.478 -0.0162  0.1978  0.0945
63653W        W 6565   1.075  26.492   1.279  0.0412  0.2190  0.1393
63654W        W 6566   3.844  26.941  31.628 -0.1145 -0.1581  0.1610
63655W        W 6567   2.211  30.306   2.400  0.0646  0.5345 -0.0642
63656W        W 6568   3.377  29.282   2.694 -0.0264  0.1524  0.3701
63657W        W 6569   1.239  28.814   1.071 -0.2316  0.2808  0.3532
63658W        W 6570   2.754  27.265   2.822  0.2915 -0.0623 -0.2504
63659W        W 6571   0.063  24.960   3.368 -0.3938  0.1559 -0.0932
63660W        W 6572   1.019  27.811   1.665  0.1460  0.1299 -0.2918
63661W        W 6573   1.777  28.932   2.106 -0.2472 -0.1668 -0.0281
63662W        W 6574   3.298  26.404   1.670 -0.2400  0.1301 -0.3973
63663W        W 6575   1.815  26.912   1.959 -0.2014  0.0233 -0.0586
63664W        W 6576   2.131  25.383   0.867  0.2708 -0.1003  0.2386
63665W        W 6577   1.865  29.318   1.701  0.2292  0.2129 -0.0110
63666W        W 6578   1.928  27.608   2.928 -0.1840  0.0925 -0.0988
63667W        W 6579   2.033  28.334   5.069  0.1194  0.0619 -0.1703
63668W        W 6580   0.727  26.664   4.966  0.1975 -0.2184  0.0393
63669W        W 6581   2.072  25.924   3.230  0.1389  0.1990  0.0181
63670W        W 6582   5.327  27.054   5.309  0.2886  0.0442  0.1092
63671W        W 6583  34.449  26.072   6.346  0.1879 -0.4957  0.0697
63672W        W 6584   1.537  29.648   3.971  0.1807 -0.3633 -0.1870
63673W        W 6585  33.809  24.395   5.142 -0.2358 -0.1621 -0.4222
63674W        W 6586   2.752  29.011   6.104 -0.1596 -0.1429 -0.0464
63675W        W 6587   4.621  29.397   6.159  0.2165  0.3107 -0.0753
63676W        W 6588   1.905  27.606   3.954 -0.1777  0.1073 -0.2043
63677W        W 6589   1.104  26.310   6.058  0.1837  0.1237  0.1628
63678W        W 6590   0.466  30.756   5.712 -0.0352  0.3087  0.1488
63679W        W 6591   0.712  25.025   4.726 -0.0720 -0.0085 -0.0543
63680W        W 6592  34.344  24.502   5.021 -0.0796 -0.0333  0.0705
63681W        W 6593   3.462  26.109   6.275 -0.0427  0.3650  0.1070
63682W        W 6594  34.638  27.710   4.559 -0.2568  0.2836 -0.1019
63683W        W 6595   0.340  27.169   6.900  0.3095 -0.0779  0.0440
63684W        W 6596   1.895  26.781   5.536  0.2489 -0.0843 -0.1004
63685W        W 6597   2.071  29.524   5.551 -0.2313 -0.2311 -0.1165
63686W        W 6598   1.685  25.059   6.020 -0.2282 -0.1582 -0.0288
63687W        W 6599   2.934  26.183   6.300  0.1367  0.1862 -0.1712
63688W        W 6600   1.710  27.683   5.196  0.0053  0.1411  0.4061
63689W        W 6601   0.462  28.199   3.832 -0.0707 -0.3128 -0.4246
63690W        W 6602  34.406  27.622   4.989  0.1024  0.1837  0.0061
63691W        W 6603   0.901  27.277   6.262  0.1005 -0.1263  0.1286
63692W        W 6604   3.416  26.397   5.313 -0.3678  0.0595 -0.0971
63693W        W 6605   3.934  25.939   4.765  0.0065  0.0614 -0.0396
63694W        W 6606   1.429  29.141   6.344 -0.0342  0.1352 -0.5738
63695W        W 6607   1.597  28.687   4.973 -0.0295 -0.3774  0.0920
63696W        W 6608   3.263  25.804   5.854 -0.1395  0.0652 -0.1591
63697W        W 6609  33.671  28.299   4.548  0.1248  0.3053  0.0124
63698W        W 6610   0.680  29.792   3.977 -0.3469  0.0733  0.1087
63699W        W 6611   1.188  27.652   4.506 -0.0080 -0.6393 -0.0246
63700W        W 6612   4.843  28.027   5.397  0.2041 -0.3028 -0.0552
63701W        W 6613   3.240  29.430   6.528  0.2520  0.1779 -0.2295
63702W        W 6614   0.507  28.671   6.324  0.0617  0.0003  0.1652
63703W        W 6615   1.206  28.570   3.899 -0.0851 -0.0446 -0.0212
63704W        W 6616   2.212  29.219   6.923  0.2838 -0.0616  0.1307
63705W        W 6617   0.723  30.262   5.722  0.1974 -0.0883  0.4399
63706W        W 6618   1.942  27.863   5.925  0.0084 -0.0095  0.3990
63707W        W 6619   2.670  27.445   5.417 -0.0886 -0.0076  0.3842
63708W        W 6620   2.142  27.796   4.832  0.0676  0.1344 -0.0384
63709W        W 6621   2.544  26.442   4.994 -0.1867  0.6236 -0.2492
63710W        W 6622   0.909  28.318   6.402  0.3174  0.2791  0.0276
63711W        W 6623   0.343  28.699   5.111 -0.2675 -0.0813 -0.0172
63712W        W 6624   3.562  25.357   7.805  0.1180 -0.0302 -0.0025
63713W        W 6625   0.744  29.587   4.550 -0.0857  0.0585 -0.1628
63714W        W 6626   3.169  27.352   3.140  0.0255  0.2064  0.0050
63715W        W 6627   1.680  26.216   3.320  0.0040 -0.3331 -0.0267
63716W        W 6628   3.756  26.867   3.672  0.0821  0.2507  0.2111
63717W        W 6629   2.845  25.800   5.034  0.0974  0.1263  0.0562
63718W        W 6630   1.677  29.506   5.877  0.4373 -0.3330  0.0837
63719W        W 6631   0.868  24.985   5.736  0.0107 -0.3469  0.0226
63720W        W 6632   3.352  27.357   6.668  0.2392  0.1575 -0.2738
63721W        W 6633   2.291  27.367   5.096 -0.0366  0.0182  0.0187
63722W        W 6634   2.100  26.432   5.184 -0.2229  0.1851  0.2904
63723W        W 6635   0.427  29.600   5.106 -0.1136  0.2954 -0.1251
63724W        W 6636   0.553  28.101   5.181 -0.0699  0.0988  0.1115
63725W        W 6637   2.080  28.711   4.706 -0.1917  0.0054 -0.1874
63726W        W 6638   3.078  29.691   5.581  0.1664 -0.0041  0.1659
63727W        W 6639   1.749  28.358   4.625  0.1466 -0.0531  0.4327
63728W        W 6640   0.046  27.861   3.721 -0.2857 -0.1290 -0.0051
63729W        W 6641  34.477  28.078   8.156  0.0696  0.0762  0.0148
63730W        W 6642   0.182  27.746   6.258 -0.1098  0.1534 -0.1298
63731W        W 6643   0.906  26.286   4.023 -0.2881  0.2029 -0.0587
63732W        W 6644   2.624  27.169   6.009  0.0727 -0.1739  0.0791
63733W        W 6645   0.495  29.228   6.285  0.1622 -0.0116  0.1725
63734W        W 6646   3.086  26.282   4.900 -0.0125  0.0096 -0.0294
63735W        W 6647   1.474  28.077   5.595  0.0261  0.0601  0.0589
63736W        W 6648   2.849  27.640   6.008 -0.0622  0.1594 -0.2370
63737W        W 6649   2.772  26.562   1.614  0.0859  0.0306  0.0800
63738W        W 6650   1.233  26.313   5.614  0.0477 -0.2430 -0.0651
63739W        W 6651   2.616  25.759   6.216 -0.3260 -0.1547 -0.0021
63740W        W 6652   1.035  27.060   3.625 -0.0511 -0.0187 -0.1060
63741W        W 6653   0.918  27.162   4.587 -0.3263 -0.1664 -0.0577
63742W        W 6654   3.773  27.337   6.150  0.0044 -0.0286  0.1883
63743W        W 6655   3.366  26.669   3.926 -0.1514 -0.1269 -0.0605
63744W        W 6656   0.924  29.283   6.057 -0.0622  0.1671  0.1561
63745W        W 6657   1.527  26.791   5.899  0.2285 -0.1660  0.2749
63746W        W 6658   1.797  30.426   5.860  0.4129  0.0634  0.1452
63747W        W 6659   1.441  29.512   3.026  0.2032 -0.1175  0.1298
63748W        W 6660  33.898  27.385   5.570 -0.3206 -0.1331  0.0029
63749W        W 6661   0.067  29.256   3.579  0.1495  0.1059 -0.2656
63750W        W 6662  34.336  25.393   5.815 -0.1772  0.0776  0.1888
63751W        W 6663   0.628  28.251   5.984 -0.2875  0.0690  0.1471
63752W        W 6664   3.247  27.068   6.242 -0.3447  0.0287 -0.1388
63753W        W 6665   0.728  24.773   6.212  0.0120 -0.2674  0.2033
63754W        W 6666   3.354  25.869   5.084  0.0658  0.2214 -0.2950
63755W        W 6667   0.904  28.467   5.107  0.1056  0.3129 -0.1321
63756W        W 6668   3.244  29.180   5.952 -0.1899  0.2769 -0.1574
63757W        W 6669   4.581  27.170   4.101  0.0590 -0.0619 -0.1552
63758W        W 6670   3.450  28.419   3.172 -0.1348 -0.0033 -0.1489
63759W        W 6671  34.632  27.027   6.563 -0.3657 -0.1411 -0.0428
63760W        W 6672  34.343  27.403   6.383  0.0086 -0.3618 -0.1792
63761W        W 6673   0.635  26.928   6.050 -0.2890  0.1211  0.2744
63762W        W 6674   0.247  26.347   5.220  0.0295 -0.2300  0.0243
63763W        W 6675   3.073  26.084   5.445 -0.0322 -0.0571  0.1026
63764W        W 6676   1.704  25.717   3.505 -0.3375  0.3685 -0.1629
63765W        W 6677   2.773  26.590   4.530  0.2157  0.1235  0.4494
63766W        W 6678   1.131  26.341   4.995 -0.3466 -0.1424  0.1020
63767W        W 6679   1.233  27.862   5.064 -0.0074 -0.1398  0.3107
63768W        W 6680   3.545  26.026   6.795  0.0719 -0.0819  0.1814
63769W        W 6681   2.040  29.094   5.197  0.4542  0.0698  0.2321
63770W        W 6682   4.405  28.337   6.549  0.0203 -0.0892 -0.1589
63771W        W 6683   3.009  29.179   4.726  0.1000 -0.0082  0.3126
63772W        W 6684  34.587  27.573   5.893  0.1536 -0.1903  0.0308
63773W        W 6685   1.338  27.380   4.890  0.2480  0.2172 -0.2467
63774W        W 6686   0.957  28.750   5.942  0.0218  0.1076  0.2373
63775W        W 6687   1.228  27.724   5.900  0.2169 -0.1050 -0.1265
63776W        W 6688   1.462  25.414   4.786 -0.0694 -0.0394  0.1325
63777W        W 6689   2.652  28.800   5.636 -0.4389 -0.0667  0.1036
63778W        W 6690   1.992  26.652   6.097 -0.2787 -0.0283 -0.0417
63779W        W 6691   0.361  27.899   6.919 -0.0040 -0.1248  0.3303
63780W        W 6692   3.091  24.789   6.374 -0.0971  0.0179 -0.1510
63781W        W 6693   3.547  26.950   7.628  0.0510 -0.1696  0.2717
63782W        W 6694   2.142  27.859   5.328  0.0993 -0.0316  0.3332
63783W        W 6695  34.389  26.983   3.974  0.1510  0.0576  0.1614
63784W        W 6696   0.624  27.872   3.417 -0.0671 -0.0641 -0.1196
63785W        W 6697   1.053  28.918   3.584 -0.1707 -0.4859  0.0328
63786W        W 6698  34.199  26.776   5.195 -0.2042  0.0828 -0.0787
63787W        W 6699   1.118  28.498   5.517 -0.2075  0.0819  0.1899
63788W        W 6700   2.838  26.662   3.929  0.0329  0.0576  0.0097
63789W        W 6701  34.100  27.766   6.692 -0.0360  0.0094  0.0893
63790W        W 6702   1.261  27.640   6.955  0.0451  0.2419  0.2855
63791W        W 6703   0.544  26.791   4.484 -0.1031 -0.0832 -0.1529
63792W        W 6704   1.139  28.214   5.941 -0.0333 -0.2060  0.1365
63793W        W 6705   2.946  25.755   3.066 -0.1970  0.6178 -0.0619
63794W        W 6706   2.328  25.811   4.974  0.0016 -0.2000  0.0754
63795W        W 6707   2.463  26.749   6.998  0.2004 -0.0278  0.0523
63796W        W 6708   4.062  27.546   5.442 -0.0128 -0.0132 -0.1700
63797W        W 6709   2.489  26.303   3.833 -0.1131 -0.0698 -0.0650
63798W        W 6710   2.345  24.956   3.303  0.1259 -0.0425  0.2087
63799W        W 6711   0.856  29.491   6.561  0.1805 -0.0199 -0.0785
63800W        W 6712   1.605  28.189   5.147  0.2526  0.0361  0.0365
63801W        W 6713   2.185  27.601   6.826  0.2935  0.1530  0.1882
63802W        W 6714   2.342  26.705   4.155  0.0662 -0.0701 -0.2417
63803W        W 6715   2.744  30.305   3.505 -0.0202 -0.1359 -0.0547
63804W        W 6716  34.089  29.530   6.648  0.1615  0.0362  0.1381
63805W        W 6717   1.809  28.925   6.679 -0.0808  0.0472  0.0983
63806W        W 6718   1.244  28.638   4.417 -0.0131 -0.2962 -0.0772
63807W        W 6719   0.575  25.803   6.503 -0.2066  0.0262  0.2729
63808W        W 6720   0.515  26.909   3.724 -0.0732 -0.2351 -0.1816
63809W        W 6721   0.252  26.061   5.639 -0.2253  0.1817 -0.0927
63810W        W 6722   0.647  29.238   2.807  0.1126 -0.1878  0.1131
63811W        W 6723   3.042  25.450   5.474 -0.3094  0.1064  0.4060
63812W        W 6724   1.324  26.725   5.282  0.0892 -0.0651  0.1625
63813W        W 6725   1.528  25.840   6.658  0.2382  0.3322  0.0259
63814W        W 6726   3.220  26.828   5.790  0.0893  0.0902  0.0774
63815W        W 6727   2.736  27.049   4.320  0.1808  0.0151 -0.0655
63816W        W 6728   1.571  27.713   6.291  0.0893  0.0316  0.1167
63817W        W 6729   0.942  26.813   4.223  0.0668 -0.0640  0.0972
63818W        W 6730   3.635  26.149   5.834 -0.1693  0.1181  0.0365
63819W        W 6731   0.139  28.351   5.407 -0.1176  0.0224  0.3961
63820W        W 6732   0.080  28.261   6.300  0.0950 -0.3980 -0.2659
63821W        W 6733   3.322  28.323   6.547 -0.4113  0.1734  0.3259
63822W        W 6734   3.495  26.606   6.173 -0.4683 -0.2483 -0.2137
63823W        W 6735   1.621  26.333   6.683  0.2818  0.1418  0.2224
63824W        W 6736   2.171  26.280   4.262  0.0601 -0.0566  0.1848
63825W        W 6737   1.154  27.533   5.462 -0.4960  0.0483 -0.0486
63826W        W 6738   1.624  28.461   4.145  0.0623  0.0724 -0.0040
63827W        W 6739  34.488  25.186   5.393  0.0372 -0.3395  0.1743
63828W        W 6740   1.983  28.228   5.607  0.1173 -0.2825  0.1054
63829W        W 6741   1.689  29.552   4.436 -0.3440  0.0979 -0.0631
63830W        W 6742   2.740  28.365   5.947  0.3230  0.2642  0.1335
63831W        W 6743   1.210  28.281   4.712  0.0400 -0.3024 -0.0274
63832W        W 6744   2.458  24.282   4.823 -0.3137  0.0295  0.2585
63833W        W 6745   0.186  27.562   4.970  0.1895  0.1971 -0.2836
63834W        W 6746   0.787  25.829   3.556 -0.1609  0.0475 -0.0180
63835W        W 6747  33.761  28.013   4.936  0.2969  0.1623  0.2445
63836W        W 6748   2.112  26.919   5.071 -0.0612 -0.0508 -0.1894
63837W        W 6749   3.139  26.863   3.510  0.1720 -0.4109 -0.1858
63838W        W 6750   0.305  27.306   5.805 -0.0090  0.2303  0.1364
63839W        W 6751   0.347  27.263   5.340  0.2733  0.2861  0.0031
63840W        W 6752   0.176  28.960   6.698 -0.1214  0.4353  0.4015
63841W        W 6753   2.119  28.351   6.042  0.0936  0.1972  0.1108
63842W        W 6754   2.642  25.644   1.857  0.1107  0.1504 -0.3172
63843W        W 6755   2.291  27.548   5.994 -0.0286  0.1752  0.0243
63844W        W 6756   1.007  28.865   6.434  0.0383  0.1131 -0.0613
63845W        W 6757   0.036  27.084   4.586  0.1864  0.1433 -0.2597
63846W        W 6758   3.820  26.600   7.210 -0.1899  0.1137 -0.1425
63847W        W 6759   0.825  27.790   4.108  0.3194  0.0485 -0.0105
63848W        W 6760   0.733  29.172   4.948  0.2254 -0.3900  0.2850
63849W        W 6761   3.124  28.632   5.836  0.0064 -0.0496  0.3469
63850W        W 6762   0.010  27.359   4.181  0.3711  0.0663 -0.1771
63851W        W 6763   0.727  28.677   4.573  0.2692  0.0689 -0.1601
63852W        W 6764   1.365  26.769   7.862 -0.0610 -0.1716  0.0802
63853W        W 6765   3.841  28.961   6.272 -0.1225  0.2699 -0.0577
63854W        W 6766   0.249  25.007   5.330  0.1222 -0.0513 -0.1031
63855W        W 6767   0.743  26.327   5.409  0.3281  0.2377  0.0789
63856W        W 6768   1.644  27.500   5.776 -0.0668 -0.2428  0.3203
63857W        W 6769   4.931  27.888   5.894  0.0199 -0.2116 -0.0066
63858W        W 6770   1.672  26.915   6.427  0.0917  0.1426 -0.0432
63859W        W 6771   1.243  27.080   7.249 -0.1244 -0.2468  0.1522
63860W        W 6772   0.852  25.502   6.156 -0.2745 -0.1286  0.0535
63861W        W 6773   3.312  29.534   3.575 -0.0572  0.0490 -0.1467
63862W        W 6774   4.193  26.776   6.907 -0.0531 -0.3111 -0.0106
63863W        W 6775   0.584  27.220   4.107 -0.0319  0.0908  0.0798
63864W        W 6776  34.048  27.689   5.928  0.1547  0.3194  0.1549
63865W        W 6777   1.322  27.142   5.638 -0.0402  0.0796 -0.0349
63866W        W 6778   0.106  25.586   5.658  0.1642  0.2335  0.0414
63867W        W 6779   1.112  28.870   4.879 -0.2751 -0.0022 -0.0565
63868W        W 6780   1.605  27.440   4.308  0.0601 -0.2823 -0.3557
63869W        W 6781  34.156  29.276   5.113 -0.0974 -0.2876 -0.2081
63870W        W 6782   3.298  25.741   4.122 -0.0661  0.3524 -0.0732
63871W        W 6783   2.399  27.622   3.603 -0.0658  0.2078  0.0311
63872W        W 6784   2.053  26.216   4.694 -0.3031 -0.0140  0.4094
63873W        W 6785   3.804  25.501   6.899 -0.1775 -0.0980 -0.1810
63874W        W 6786   3.641  28.619   5.667  0.4156  0.1562  0.0631
63875W        W 6787   3.442  25.180   7.281  0.0298  0.2295  0.0592
63876W        W 6788   1.731  24.955   4.601 -0.1268 -0.0203 -0.1496
63877W        W 6789   2.913  28.004   6.401  0.0377 -0.0350  0.1400
63878W        W 6790  33.700  26.553   6.026  0.0548  0.4210 -0.0515
63879W        W 6791   2.316  29.060   7.434 -0.6143  0.1007  0.0163
63880W        W 6792   1.028  26.735   5.745  0.0201 -0.1190 -0.1184
63881W        W 6793   3.200  27.788   4.633  0.0086 -0.0587  0.0307
63882W        W 6794   2.545  26.077   5.342  0.0048  0.0412 -0.0794
63883W        W 6795   2.293  26.972   6.387  0.1715  0.3486  0.0373
63884W        W 6796   4.426  27.970   5.642  0.1863  0.1473 -0.1822
63885W        W 6797   2.772  26.941   4.868 -0.1306  0.4706 -0.2221
63886W        W 6798   4.604  27.453   5.498 -0.0611  0.1371  0.0327
63887W        W 6799   0.622  29.112   6.795  0.2339  0.0150  0.3179
63888W        W 6800   2.362  27.223   4.618 -0.0732  0.2529 -0.0508
63889W        W 6801   2.309  26.718   4.682  0.0456  0.0769 -0.0578
63890W        W 6802   0.127  26.926   4.106 -0.0451 -0.3478  0.3037
63891W        W 6803   0.008  26.847   5.501  0.1013  0.1678 -0.0116
63892W        W 6804   2.442  27.791   6.359  0.0389 -0.3245  0.0505
63893W        W 6805  34.443  26.669   4.378 -0.0612  0.2310 -0.1186
63894W        W 6806   2.717  26.079   5.799  0.0382  0.0730 -0.1556
63895W        W 6807   2.446  26.320   6.180  0.2844 -0.3564 -0.0920
63896W        W 6808   1.394  27.267   6.124  0.4421 -0.0740 -0.1611
63897W        W 6809   0.112  26.307   7.837 -0.1589 -0.4211  0.0609
63898W        W 6810   2.522  29.965   6.394 -0.0698  0.4032 -0.1552
63899W        W 6811   2.464  26.248   3.010 -0.5292 -0.0197  0.0232
63900W        W 6812   4.246  25.364   6.165 -0.4144 -0.1871  0.0559
63901W        W 6813   3.261  28.193   6.078 -0.1126 -0.1530  0.3074
63902W        W 6814   2.827  27.884   3.890 -0.1378 -0.3392 -0.0860
63903W        W 6815  34.364  25.816   4.689  0.3711 -0.1390  0.3526
63904W        W 6816   1.225  27.276   6.671  0.3594 -0.1390  0.2648
63905W        W 6817   1.473  25.808   3.928  0.0252  0.0282 -0.1195
63906W        W 6818   3.228  24.864   4.990  0.2723 -0.1719  0.0798
63907W        W 6819   1.735  28.796   3.778  0.0667  0.0212  0.0473
63908W        W 6820   2.403  27.978   5.819  0.1124  0.0995 -0.0357
63909W        W 6821   1.576  26.238   4.722 -0.1932  0.0535 -0.0876
63910W        W 6822   0.669  26.107   4.921  0.0034  0.1107  0.1834
63911W        W 6823   0.279  29.981   6.122 -0.4126 -0.2742 -0.0978
63912W        W 6824  33.184  26.925   3.794 -0.2348  0.1664  0.1919
63913W        W 6825   1.339  26.573   4.347  0.0601 -0.2717 -0.1693
63914W        W 6826   1.460  28.660   6.250  0.0969  0.1288  0.3584
63915W        W 6827   3.208  26.527   6.608  0.3662  0.0425 -0.1616
63916W        W 6828   1.836  25.849   4.973 -0.0255 -0.3293 -0.0244
63917W        W 6829   3.022  25.395   7.242 -0.0161 -0.3052 -0.0208
63918W        W 6830   0.504  27.575   3.769 -0.0918  0.3753  0.2051
63919W        W 6831   1.082  25.459   5.589 -0.1006  0.0498  0.0752
63920W        W 6832   0.477  30.869   6.370  0.1727  0.1556 -0.1609
63921W        W 6833   2.308  27.199   7.831 -0.2003 -0.1596 -0.0641
63922W        W 6834   0.817  28.229   4.336  0.1987  0.1675  0.1746
63923W        W 6835   1.984  25.379   4.889 -0.1246 -0.0839 -0.2244
63924W        W 6836   4.322  26.957   5.987 -0.1803  0.0715  0.0996
63925W        W 6837   3.121  27.351   5.679  0.0121 -0.0846  0.1089
63926W        W 6838   2.644  27.086   7.385 -0.1002  0.0192 -0.2936
63927W        W 6839   2.278  26.420   5.671 -0.2582  0.1140  0.0625
63928W        W 6840   0.707  27.548   5.183 -0.1578  0.0571 -0.4714
63929W        W 6841   1.708  27.360   6.957  0.0219 -0.0343 -0.1805
63930W        W 6842   3.164  27.085   5.271  0.2083 -0.0187  0.2054
63931W        W 6843   0.854  28.025   5.589  0.0411  0.2051 -0.2278
63932W        W 6844  34.576  26.535   6.609  0.0544  0.1545 -0.0566
63933W        W 6845   1.400  27.478   9.028 -0.5096  0.1404 -0.0078
63934W        W 6846   2.591  27.848   5.078 -0.0323  0.2173 -0.1047
63935W        W 6847   0.970  27.056   5.224  0.1089  0.0587 -0.2913
63936W        W 6848   2.012  27.109   4.241 -0.1379 -0.2176 -0.3017
63937W        W 6849   0.894  28.518   7.581  0.0833  0.0334  0.2002
63938W        W 6850  34.289  29.059   6.435 -0.1954 -0.0350 -0.0620
63939W        W 6851   1.840  29.234   4.031  0.2682  0.0149  0.0775
63940W        W 6852   3.918  28.038   5.514  0.1436 -0.0322  0.0162
63941W        W 6853   3.055  27.668   5.213 -0.2322  0.0296 -0.0272
63942W        W 6854   2.881  29.064   6.559 -0.0614  0.2787 -0.2962
63943W        W 6855   1.558  26.261   5.254  0.2385  0.0800  0.0467
63944W        W 6856   1.645  27.837   4.687  0.1653  0.2254 -0.2298
63945W        W 6857   0.815  28.462   3.471  0.0729  0.2306 -0.1690
63946W        W 6858   3.710  26.975   4.717  0.1254  0.0663  0.0500
63947W        W 6859   0.384  28.323   4.708  0.0539  0.1619 -0.4185
63948W        W 6860   5.198  28.354   6.541  0.1481 -0.3499  0.0149
63949W        W 6861   3.442  25.799   1.630  0.0993  0.0194  0.0675
63950W        W 6862   5.168  28.370   5.303 -0.0252 -0.1018  0.0011
63951W        W 6863   3.836  26.404   3.891  0.0520 -0.2582 -0.0312
63952W        W 6864   1.711  27.185   5.276  0.1017 -0.2360 -0.1648
63953W        W 6865   0.489  26.126   3.778  0.1640  0.1060 -0.3725
63954W        W 6866   0.197  26.033   6.208  0.0022  0.0201  0.1502
63955W        W 6867   2.584  25.113   7.018 -0.2775  0.1838 -0.2365
63956W        W 6868  33.029  29.423   6.960 -0.3357  0.2461  0.1608
63957W        W 6869   2.642  28.372   4.162  0.0976 -0.1580 -0.0586
63958W        W 6870  34.576  27.145   5.052 -0.1121  0.0433 -0.1090
63959W        W 6871   0.554  26.775   5.425  0.2647 -0.0876 -0.2344
63960W        W 6872   3.980  26.056   6.196 -0.0624  0.1046 -0.2639
63961W        W 6873   1.572  26.906   4.029  0.3459 -0.0607  0.0770
63962W        W 6874   3.312  26.749   4.891 -0.2041 -0.1124 -0.5152
63963W        W 6875   2.195  28.705   5.538 -0.2050  0.2125  0.0033
63964W        W 6876   0.478  28.953   5.872 -0.2572 -0.0871 -0.3433
63965W        W 6877   3.312  28.193   5.556  0.4123  0.1344  0.0727
63966W        W 6878   0.508  27.095   4.929  0.2310 -0.4053  0.0182
63967W        W 6879   4.879  27.175   5.117  0.1391 -0.0321 -0.0801
63968W        W 6880   0.315  26.563   5.860  0.2244  0.1397 -0.0177
63969W        W 6881   3.756  26.473   6.546  0.1338 -0.1684  0.0532
63970W        W 6882   0.020  25.563   6.142  0.1016 -0.0716 -0.2378
63971W        W 6883   3.437  26.136   3.776 -0.0562 -0.1779  0.0879
63972W        W 6884   2.665  27.819   6.803 -0.1425  0.0459  0.1585
63973W        W 6885  34.601  27.918   5.436  0.2003 -0.1859 -0.2205
63974W        W 6886   2.012  26.712   3.785  0.3173 -0.0287 -0.0115
63975W        W 6887   3.835  27.810   6.508 -0.0596  0.1085 -0.1768
63976W        W 6888   3.559  26.197   4.351 -0.1928 -0.0447 -0.1893
63977W        W 6889   1.982  29.769   6.278  0.1181 -0.3455 -0.0259
63978W        W 6890  34.467  25.924   5.805 -0.2303 -0.2996 -0.0857
63979W        W 6891   2.545  25.977   3.425  0.0222 -0.2080 -0.0570
63980W        W 6892  33.947  27.344   5.006 -0.1574 -0.0490  0.2246
63981W        W 6893   0.599  26.594   6.872  0.1961  0.1185 -0.0692
63982W        W 6894   2.416  28.574   7.369 -0.0349 -0.0640  0.2644
63983W        W 6895   0.163  24.523   5.069  0.1385 -0.0918 -0.0343
63984W        W 6896   2.454  28.094   3.380  0.0380 -0.1677  0.3273
63985W        W 6897   4.408  26.943   4.969 -0.0838  0.0349 -0.1585
63986W        W 6898   1.450  29.990   5.039 -0.0512  0.0625  0.0464
63987W        W 6899   2.687  27.898   4.466  0.0641 -0.0428  0.1325
63988W        W 6900   2.485  28.341   5.415 -0.4103  0.0724  0.2386
63989W        W 6901  34.656  27.033   5.955  0.0253 -0.0097 -0.2185
63990W        W 6902   2.898  28.578   6.406 -0.0477  0.1274 -0.0156
63991W        W 6903   3.359  27.596   6.129  0.2787  0.3763  0.2958
63992W        W 6904   1.074  25.859   5.860  0.2064 -0.0425 -0.2500
63993W        W 6905  34.473  27.406   5.449  0.2486 -0.1424 -0.0450
63994W        W 6906   0.610  27.854   4.729 -0.2482  0.1835  0.0499
63995W        W 6907   3.687  26.600   5.692  0.1815  0.4446 -0.1610
63996W        W 6908   2.539  25.413   5.265  0.2006  0.3753 -0.0790
63997W        W 6909   2.716  29.600   3.658  0.1319 -0.1428  0.0695
63998W        W 6910   2.463  25.054   5.620  0.1491 -0.0297 -0.2179
63999W        W 6911   2.428  28.822   6.555 -0.1825  0.3082  0.2622
64000W        W 6912   1.482  28.487   7.510  0.0672 -0.1545  0.0847
64001W        W 6913   0.325  27.944   4.338 -0.1457  0.0093 -0.1488
64002W        W 6914   2.063  26.822   8.658  0.3638  0.0268  0.1142
64003W        W 6915   1.495  27.072   4.559  0.2050 -0.1195  0.3557
64004W        W 6916   0.613  28.583   5.489  0.1996  0.3012 -0.0229
64005W        W 6917   3.534  28.425   5.089 -0.0520 -0.2538  0.0925
64006W        W 6918   3.732  27.542   3.855  0.2100  0.2357  0.2599
64007W        W 6919   3.475  27.666   5.553  0.1919 -0.1388 -0.1259
64008W        W 6920   0.076  25.529   4.409  0.1415  0.0284 -0.2535
64009W        W 6921   3.734  24.898   4.930  0.0145  0.0194 -0.2845
64010W        W 6922   3.398  25.291   4.050  0.3597 -0.0491 -0.2319
64011W        W 6923   0.695  27.701   5.915  0.0350  0.3650  0.0462
64012W        W 6924   0.555  27.332   3.334 -0.0914  0.2805 -0.0387
64013W        W 6925   1.372  27.706   3.965  0.0413  0.0434 -0.1384
64014W        W 6926   0.833  29.086   5.435  0.1834  0.0143  0.2179
64015W        W 6927   0.681  25.118   6.965 -0.2307 -0.0986 -0.0042
64016W        W 6928  34.303  27.383   6.889 -0.0377  0.3406  0.3111
64017W        W 6929  33.410  26.963   4.266  0.0364  0.3129 -0.0306
64018W        W 6930   0.884  25.880   5.382  0.2001 -0.1928 -0.1993
64019W        W 6931   3.139  28.170   4.932  0.4615  0.0528  0.0567
64020W        W 6932   0.822  27.232   5.734 -0.0543  0.1688  0.2241
64021W        W 6933  33.330  25.115   5.545  0.1804 -0.2597 -0.1585
64022W        W 6934   2.131  27.414   5.539 -0.0065  0.0610 -0.1166
64023W        W 6935   3.153  27.488   4.217  0.0893  0.0034  0.2762
64024W        W 6936   1.465  25.813   5.547  0.0160 -0.2536 -0.0667
64025W        W 6937   3.580  28.353   6.935  0.1999  0.0490 -0.2925
64026W        W 6938  34.654  28.058   4.917 -0.1526 -0.2521 -0.0870
64027W        W 6939   1.389  28.068   6.600  0.2550 -0.0168  0.2473
64028W        W 6940   1.561  26.387   6.211 -0.0933 -0.1079  0.3354
64029W        W 6941   0.399  27.441   4.523  0.3429  0.1294 -0.1702
64030W        W 6942   2.814  26.585   5.510 -0.1147  0.0081 -0.1060
64031W        W 6943   1.361  28.995   5.392 -0.1195 -0.4098  0.1144
64032W        W 6944   3.090  29.221   3.184 -0.0860 -0.5790  0.1779
64033W        W 6945   0.641  29.799   7.070 -0.0272 -0.0670 -0.0444
64034W        W 6946   1.003  30.017   6.280  0.0584  0.0162  0.0825
64035W        W 6947  33.969  26.446   6.525  0.1039  0.0610  0.2795
64036W        W 6948   3.054  28.273   4.483 -0.1884 -0.0538 -0.0598
64037W        W 6949   0.185  28.569   5.856  0.0569  0.2499 -0.0802
64038W        W 6950   2.784  27.461   4.815 -0.0544  0.2236 -0.4145
64039W        W 6951   3.936  25.711   5.721  0.1485  0.0258  0.2120
64040W        W 6952   3.434  27.438   4.911  0.1290  0.0196  0.2205
64041W        W 6953   0.628  25.716   5.761  0.0011  0.0800  0.1191
64042W        W 6954   0.807  28.151   7.264 -0.0937 -0.3387 -0.0227
64043W        W 6955   4.658  28.321   5.922  0.1076  0.0031 -0.3257
64044W        W 6956   0.419  25.470   4.800 -0.1949 -0.3931 -0.2006
64045W        W 6957   3.574  26.223   4.856 -0.1077 -0.2537 -0.2402
64046W        W 6958   1.791  28.005   4.222 -0.0195 -0.1213  0.3199
64047W        W 6959  33.506  28.530   5.753 -0.1369  0.1142  0.1159
64048W        W 6960   1.896  27.320   4.704  0.0920  0.1627 -0.3008
64049W        W 6961   1.697  26.705   4.920  0.0230 -0.1562 -0.1524
64050W        W 6962   1.548  28.567   5.734 -0.0817 -0.0480 -0.0491
64051W        W 6963   1.936  27.353   6.421 -0.0181 -0.2728  0.2505
64052W        W 6964   1.799  26.638   4.355 -0.0908 -0.0356 -0.2897
64053W        W 6965   4.084  27.756   3.504  0.0553  0.2676  0.1351
64054W        W 6966   1.194  31.109   5.925 -0.0668  0.0499  0.0055
64055W        W 6967   4.328  27.882   7.428  0.0182 -0.0556  0.0686
64056W        W 6968   1.300  30.336   6.540 -0.0896 -0.1531  0.1984
64057W        W 6969   3.856  27.192   5.130  0.0294 -0.0084  0.0179
64058W        W 6970  34.477  24.506   5.952  0.0624 -0.0040  0.1811
64059W        W 6971   0.403  27.738   5.546 -0.0238  0.0067 -0.2799
64060W        W 6972   1.179  26.789   4.760 -0.0177 -0.0884 -0.3253
64061W        W 6973   4.227  27.538   5.907  0.0288  0.2937  0.0390
64062W        W 6974   0.910  25.819   6.885 -0.0292 -0.0570 -0.1058
64063W        W 6975   3.375  26.023   3.227  0.2545 -0.1407 -0.3122
64064W        W 6976  34.258  31.085   5.803  0.1282  0.1016 -0.1776
64065W        W 6977   1.965  27.121   5.939  0.1232  0.2438 -0.2223
64066W        W 6978   0.576  28.231  10.066 -0.1409 -0.0795 -0.1483
64067W        W 6979   1.524  26.961   9.353 -0.1590 -0.2546  0.1339
64068W        W 6980   3.308  26.162   7.358  0.2589  0.0384  0.0755
64069W        W 6981   3.846  26.659   7.979  0.3840 -0.0049  0.0565
64070W        W 6982   0.356  26.365   8.888  0.1551  0.1090 -0.3132
64071W        W 6983   1.985  29.751   7.893 -0.0513  0.0731  0.3002
64072W        W 6984   1.284  27.919   8.718 -0.2231  0.3389  0.2886
64073W        W 6985   2.626  28.535   8.610 -0.0101  0.0180 -0.0515
64074W        W 6986   2.180  27.833   7.332 -0.2870  0.2748  0.2750
64075W        W 6987  34.444  27.815   9.864  0.0833  0.3440  0.1277
64076W        W 6988   1.076  25.910   6.396  0.1249 -0.3389  0.0551
64077W        W 6989   0.894  25.213   8.558  0.2107  0.1355 -0.1245
64078W        W 6990   2.918  27.546   8.867  0.0186  0.1127 -0.0392
64079W        W 6991  34.473  28.404   7.241  0.0770  0.2373 -0.3125
64080W        W 6992   1.501  27.289   9.970  0.1396 -0.2157 -0.0330
64081W        W 6993   2.417  26.217   7.073  0.2047 -0.0530 -0.2784
64082W        W 6994   2.687  28.972   7.774  0.0311 -0.3768 -0.4235
64083W        W 6995   0.558  26.929   9.255  0.0034  0.0131  0.0898
64084W        W 6996   1.230  28.131   7.767 -0.0042  0.0402  0.1253
64085W        W 6997  34.288  27.415   7.432 -0.2432  0.3237 -0.1127
64086W        W 6998  34.500  26.585   8.884 -0.0324 -0.1496  0.2313
64087W        W 6999   2.634  26.319   9.279 -0.0192 -0.1740 -0.0305
64088W        W 7000   2.896  26.690   9.083  0.2570 -0.0628 -0.0252
64089W        W 7001   4.723  26.662   9.444  0.1671 -0.0142 -0.0431
64090W        W 7002   0.596  27.555   8.359 -0.0420  0.0447  0.0853
64091W        W 7003   0.750  28.261   8.029  0.1510 -0.0701 -0.0785
64092W        W 7004   0.214  27.338   8.690  0.2261 -0.2405 -0.2154
64093W        W 7005  34.469  30.089   9.426 -0.2594 -0.0211 -0.1041
64094W        W 7006   1.680  27.718   7.390  0.1160 -0.2673 -0.0405
64095W        W 7007   3.335  28.196   7.435 -0.3244 -0.1018  0.3597
64096W        W 7008  34.609  28.965   8.452  0.5006  0.0064  0.2030
64097W        W 7009   2.163  27.727   9.453  0.1293 -0.2136  0.1668
64098W        W 7010   1.725  27.420   9.399 -0.3463 -0.0880 -0.1019
64099W        W 7011   1.248  28.534   6.682  0.0981  0.0246  0.1016
64100W        W 7012   2.041  26.441   9.461  0.4476  0.3913 -0.1747
64101W        W 7013   0.233  27.886   8.109 -0.2178  0.2359 -0.1346
64102W        W 7014   1.621  29.853   6.696 -0.0667  0.1939  0.0252
64103W        W 7015   3.190  26.375   5.868  0.0519  0.0049 -0.1792
64104W        W 7016   2.158  26.506   6.595  0.0158 -0.0145 -0.0235
64105W        W 7017   2.642  26.419   6.644 -0.1366  0.1267  0.1004
64106W        W 7018   2.389  27.022   8.291 -0.1456 -0.0704 -0.1529
64107W        W 7019   0.320  29.493   8.262  0.2002  0.1071  0.0699
64108W        W 7020   2.404  25.708   9.435 -0.1036  0.1536  0.0933
64109W        W 7021   0.796  27.413   9.238  0.2108  0.1512  0.2838
64110W        W 7022   3.008  27.262   9.681 -0.1616  0.1265 -0.1504
64111W        W 7023   0.935  28.665   9.320 -0.0122 -0.1158  0.1200
64112W        W 7024   1.062  26.242   8.305 -0.3065 -0.2838  0.0580
64113W        W 7025   3.361  27.862   6.652  0.1120 -0.0705  0.2170
64114W        W 7026   3.080  28.083   6.990 -0.1515 -0.0708  0.0531
64115W        W 7027   1.354  29.518   6.894  0.3383 -0.0465 -0.2282
64116W        W 7028  34.297  26.869   6.889 -0.0868 -0.0917 -0.1075
64117W        W 7029   0.630  26.182   6.005 -0.1143 -0.0830  0.2886
64118W        W 7030   2.594  25.779   7.660 -0.0926 -0.0759  0.0475
64119W        W 7031   0.859  27.982   8.495  0.0455 -0.2032 -0.0593
64120W        W 7032   1.676  28.710   8.946 -0.0204 -0.0493 -0.1709
64121W        W 7033   2.488  28.294   6.396 -0.2209 -0.0858  0.0707
64122W        W 7034   3.244  26.253   9.853 -0.0985 -0.1896 -0.1019
64123W        W 7035   0.769  25.410   9.523  0.1153  0.0569  0.0250
64124W        W 7036   1.789  27.106   7.836 -0.4661  0.0699  0.0809
64125W        W 7037   1.359  27.112   8.255  0.0248 -0.2214  0.1286
64126W        W 7038   3.030  28.463   8.884  0.0206  0.1558  0.1621
64127W        W 7039   1.863  27.863   8.690  0.1625 -0.0182 -0.1015
64128W        W 7040   0.097  28.583   8.626 -0.1914  0.2011 -0.2215
64129W        W 7041   0.958  29.025   7.695 -0.3158 -0.2249  0.0404
64130W        W 7042   0.106  28.005   8.989  0.1227  0.0971  0.0191
64131W        W 7043  33.704  28.514   7.615  0.1000 -0.0516 -0.2727
64132W        W 7044   1.444  26.104  10.197 -0.2288  0.1198  0.1748
64133W        W 7045   0.591  28.530   8.469 -0.1093  0.2808  0.5060
64134W        W 7046   3.097  25.491   7.740  0.0810 -0.1009 -0.0564
64135W        W 7047   1.010  26.103   9.746  0.2085  0.1787  0.0213
64136W        W 7048   0.047  27.416   7.721  0.2807  0.0424 -0.1408
64137W        W 7049   3.043  26.844   7.622  0.1139 -0.1226  0.0464
64138W        W 7050   2.082  27.318   7.297 -0.3609 -0.2313 -0.1549
64139W        W 7051   2.538  27.516   7.231 -0.1306  0.0768 -0.0057
64140W        W 7052   1.049  26.507   9.424 -0.2243 -0.1047  0.0968
64141W        W 7053   1.775  26.736   8.252  0.0864 -0.3181 -0.2029
64142W        W 7054   1.589  24.722   8.975 -0.2928  0.4776 -0.2154
64143W        W 7055   0.454  26.132   7.090  0.0486 -0.1646 -0.0469
64144W        W 7056   1.585  27.038   8.727 -0.3638  0.0807 -0.5175
64145W        W 7057  34.650  27.877   7.561  0.0608 -0.1315 -0.2931
64146W        W 7058  34.486  27.580   8.140  0.1815 -0.1736 -0.1415
64147W        W 7059   1.957  28.639   7.763 -0.0711  0.3192  0.1754
64148W        W 7060   3.516  29.957   9.074 -0.1250 -0.0059  0.1138
64149W        W 7061   1.578  29.937   8.471 -0.0838 -0.0885  0.4424
64150W        W 7062   0.262  25.745   8.661 -0.1760  0.0704 -0.0158
64151W        W 7063   0.805  27.004   6.680 -0.1635  0.1596 -0.2772
64152W        W 7064  34.377  29.238   8.079  0.2714  0.1305 -0.4596
64153W        W 7065   1.536  26.305   9.482 -0.0569  0.0060 -0.1214
64154W        W 7066  34.676  25.443   7.678  0.0419 -0.0914  0.0781
64155W        W 7067   1.755  28.958   8.163  0.0437 -0.0403  0.0192
64156W        W 7068   1.301  28.118   7.140 -0.1249  0.0939 -0.3726
64157W        W 7069   2.671  25.676   8.576  0.1657 -0.1441 -0.1644
64158W        W 7070   2.631  27.473   8.290 -0.1627  0.3477 -0.3231
64159W        W 7071   0.595  27.039   7.301 -0.1977 -0.1182 -0.3283
64160W        W 7072   1.693  28.088   7.809 -0.1564  0.0139  0.0006
64161W        W 7073   0.669  28.885   7.235 -0.1542 -0.0505  0.0482
64162W        W 7074   0.075  27.575   7.188 -0.2046 -0.0831  0.0224
64163W        W 7075   1.685  27.923   9.131  0.1082 -0.0219  0.1205
64164W        W 7076   3.195  25.630   8.241  0.1128  0.0723 -0.1181
64165W        W 7077   0.076  27.503   6.683  0.0103 -0.1356 -0.1890
64166W        W 7078   2.769  26.357   8.693  0.2033  0.1236  0.2072
64167W        W 7079   2.711  26.681   5.978 -0.0559 -0.0114 -0.0272
64168W        W 7080   2.825  27.198   7.906  0.1296 -0.2814  0.1357
64169W        W 7081   3.348  26.733   7.237  0.1560  0.0425 -0.1603
64170W        W 7082   1.391  26.851   6.832  0.0401 -0.2750  0.3289
64171W        W 7083   1.348  29.306   7.385  0.0946  0.1457 -0.1514
64172W        W 7084   1.739  28.182  12.115 -0.0312 -0.0501 -0.0372
64173W        W 7085   1.715  26.919   7.224 -0.0885  0.0085 -0.2219
64174W        W 7086   3.916  28.590   7.191 -0.5161 -0.1448 -0.1022
64175W        W 7087   0.846  29.485   9.813  0.0924 -0.0174 -0.4731
64176W        W 7088   2.220  28.175   7.696  0.0196  0.3385 -0.1208
64177W        W 7089   2.457  26.242   9.760  0.0091 -0.0757  0.0946
64178W        W 7090   1.038  27.820   6.350 -0.2204  0.0005 -0.1918
64179W        W 7091  34.137  27.231   9.100 -0.1934  0.3357  0.0518
64180W        W 7092  34.352  29.737   6.258 -0.1477  0.2078 -0.3420
64181W        W 7093   4.182  24.771   9.062  0.1534  0.4248  0.1316
64182W        W 7094   0.031  29.136   9.423  0.1099 -0.0748 -0.0807
64183W        W 7095   2.314  25.827   8.155 -0.1514 -0.1397  0.1423
64184W        W 7096   1.297  28.587   9.781  0.3734 -0.0644 -0.0373
64185W        W 7097   0.551  27.657   7.353  0.5286  0.0553 -0.0064
64186W        W 7098   4.518  25.175   9.974  0.1379  0.1475  0.2438
64187W        W 7099   1.592  29.792   8.940 -0.0675  0.1537  0.1325
64188W        W 7100   2.383  26.505   8.346  0.1716 -0.1609  0.1343
64189W        W 7101   2.157  26.868   7.483  0.3311  0.0999 -0.0979
64190W        W 7102   1.159  28.787   7.221 -0.2068  0.1493 -0.2388
64191W        W 7103   0.875  27.370   7.035  0.1251 -0.1954  0.0664
64192W        W 7104  34.526  27.594   9.064  0.1579 -0.0790  0.0445
64193W        W 7105   0.590  28.594   9.660 -0.1458  0.0105  0.1731
64194W        W 7106   2.024  27.965   6.456 -0.2069  0.1443  0.1218
64195W        W 7107   1.385  28.362   9.292 -0.0137 -0.4279  0.0925
64196W        W 7108  34.031  28.394   8.436 -0.1399  0.1177 -0.1993
64197W        W 7109   2.766  25.867   9.073  0.0110 -0.1307 -0.1052
64198W        W 7110  33.664  28.602   8.126  0.0732 -0.0409  0.2029
64199W        W 7111   0.689  27.107   8.782  0.0593 -0.0433  0.0053
64200W        W 7112  33.965  28.213   7.390 -0.2770 -0.1687 -0.2462
64201W        W 7113   3.924  26.637   9.209  0.0831  0.1559 -0.1995
64202W        W 7114   1.870  28.186   7.341  0.2158  0.2636 -0.1496
64203W        W 7115   0.038  27.790   9.421 -0.1434 -0.1104 -0.2483
64204W        W 7116   1.905  25.984   9.695  0.0118  0.1006 -0.0565
64205W        W 7117  34.611  29.502   8.599  0.0823 -0.1336 -0.4421
64206W        W 7118   2.848  26.019   7.257  0.2261 -0.3528  0.0197
64207W        W 7119  34.042  26.387   7.394  0.0398  0.1778  0.0142
64208W        W 7120   2.278  27.793   8.884 -0.0744  0.0087 -0.1723
64209W        W 7121   1.176  26.189   8.879 -0.2819 -0.3128  0.1424
64210W        W 7122  34.664  28.536   9.105  0.0653  0.0406  0.3229
64211W        W 7123   0.978  28.807   8.423 -0.0203  0.1059 -0.2211
64212W        W 7124   0.380  26.590   7.458 -0.1173 -0.0051  0.1078
64213W        W 7125   1.966  27.359   8.854 -0.2321  0.0475 -0.4027
64214W        W 7126   1.851  28.626   9.397  0.1673 -0.0974  0.1361
64215W        W 7127   1.958  26.187   8.273  0.0875 -0.1243  0.1171
64216W        W 7128   2.041  26.579   7.890 -0.3120 -0.1712 -0.3126
64217W        W 7129   2.190  27.588   8.420  0.0435  0.0638 -0.0972
64218W        W 7130   1.405  29.154   9.953 -0.0190  0.0669 -0.0789
64219W        W 7131   3.374  25.882   9.205  0.1735  0.2996  0.1761
64220W        W 7132   1.394  24.176   9.828  0.4112 -0.2044  0.3746
64221W        W 7133   3.702  29.327   7.952  0.1038 -0.1249  0.1646
64222W        W 7134   0.151  27.263   8.175 -0.0198  0.3063 -0.1719
64223W        W 7135   0.445  28.875   9.280  0.2353  0.1470  0.1823
64224W        W 7136   0.637  27.503   7.818 -0.0452  0.0251 -0.0214
64225W        W 7137   0.080  26.040  10.039 -0.1979 -0.2700 -0.0706
64226W        W 7138  34.270  28.337  10.170  0.2568 -0.2365  0.2790
64227W        W 7139   1.537  27.492   8.539  0.3733 -0.0352  0.1346
64228W        W 7140   0.330  28.239   9.404  0.0612 -0.0545 -0.0833
64229W        W 7141   2.484  25.195   7.605 -0.0709 -0.1488 -0.0485
64230W        W 7142   1.858  27.219   8.308 -0.0146  0.4053 -0.1084
64231W        W 7143   2.156  25.562   7.743 -0.3871  0.0362 -0.2735
64232W        W 7144   2.883  27.470   6.455  0.2363 -0.0509  0.0011
64233W        W 7145   2.483  27.195   9.690  0.1304 -0.1265 -0.2761
64234W        W 7146   3.011  28.025   8.313  0.1126  0.1449  0.1131
64235W        W 7147   2.597  26.780   7.828 -0.0160 -0.2131 -0.1526
64236W        W 7148   1.404  26.047   7.568  0.6690 -0.1220 -0.0842
64237W        W 7149   3.644  28.393   8.800  0.0592 -0.4173 -0.1640
64238W        W 7150   2.881  28.451   9.458 -0.3085 -0.0901 -0.0492
64239W        W 7151   1.685  28.475   6.838  0.2681 -0.1647 -0.0493
64240W        W 7152   2.704  27.700   9.431  0.5137  0.2109 -0.0836
64241W        W 7153   1.535  27.771   9.715 -0.2195 -0.0733 -0.2353
64242W        W 7154   1.789  28.577   9.945 -0.1077 -0.2381  0.2546
64243W        W 7155   2.573  28.122   7.296 -0.2082 -0.1389 -0.0805
64244W        W 7156   0.161  26.599   9.302 -0.1940  0.0498  0.0966
64245W        W 7157   2.169  27.224   9.270  0.0499 -0.0385  0.1052
64246W        W 7158   2.288  26.447   8.956  0.0082  0.0128  0.1229
64247W        W 7159   1.011  28.328   8.893  0.1972 -0.0738 -0.1923
64248W        W 7160   3.648  27.125   5.630  0.0181 -0.0320 -0.2655
64249W        W 7161   3.489  27.515   8.879  0.0096  0.4352  0.2719
64250W        W 7162   2.868  26.829   6.450 -0.2768 -0.2119 -0.2645
64251W        W 7163   1.879  26.762   9.092 -0.0824 -0.0082 -0.0419
64252W        W 7164  33.873  26.531   8.590  0.1025  0.1083  0.1261
64253W        W 7165   1.515  26.335   8.022 -0.1933 -0.0917  0.0870
64254W        W 7166   3.110  28.695   6.926  0.1653 -0.1149 -0.3042
64255W        W 7167   2.444  27.298   8.772 -0.1670 -0.0213  0.1015
64256W        W 7168   2.619  28.624   9.124  0.1669  0.1421 -0.0077
64257W        W 7169   1.410  26.572   9.079 -0.1805 -0.2471  0.1448
64258W        W 7170   0.118  26.710   6.993  0.1799 -0.2154  0.0442
64259W        W 7171   2.001  27.604   7.740 -0.3631 -0.2906 -0.0038
64260W        W 7172   2.270  26.728   9.844  0.0435 -0.0715 -0.2134
64261W        W 7173   2.121  26.343   7.424  0.1240  0.3096  0.1621
64262W        W 7174   0.214  28.184   7.331 -0.1081  0.2295  0.4502
64263W        W 7175   1.499  25.891   9.162 -0.0909 -0.1085  0.0360
64264W        W 7176   0.318  26.793   8.680 -0.0932 -0.0932  0.0250
64265W        W 7177  33.228  29.182  12.712  0.0817  0.1223  0.3539
64266W        W 7178   0.633  26.118  10.117  0.1173 -0.1894  0.0997
64267W        W 7179   3.184  26.633   8.604 -0.2451 -0.1194 -0.0415
64268W        W 7180   2.428  26.780   9.310  0.2406 -0.0262 -0.2514
64269W        W 7181   0.299  27.555   9.881  0.2436  0.2716  0.0759
64270W        W 7182  34.684  23.591   9.849  0.0122  0.0934 -0.4882
64271W        W 7183   0.210  29.621   8.996  0.0828  0.1782  0.3865
64272W        W 7184  34.316  26.515   8.374  0.0322  0.0661  0.2692
64273W        W 7185   1.447  25.797   8.058 -0.0324 -0.1959  0.1469
64274W        W 7186   1.057  27.636   8.190  0.2863  0.0368  0.1169
64275W        W 7187  34.102  27.630   9.578 -0.1853 -0.0937 -0.1539
64276W        W 7188   0.720  29.523   7.501  0.2022  0.2468 -0.2224
64277W        W 7189   2.067  27.992   8.102  0.3435 -0.1057 -0.1023
64278W        W 7190   1.764  28.338   8.629  0.3987  0.2672  0.4806
64279W        W 7191   1.908  29.569   8.559  0.0733  0.2138  0.0054
64280W        W 7192   0.301  26.743   6.421 -0.3602 -0.0625  0.0921
64281W        W 7193  34.000  27.928   9.960 -0.2583 -0.0739 -0.0576
64282W        W 7194  34.251  26.880   7.428  0.0923  0.1061  0.1041
64283W        W 7195   1.981  28.467   6.476  0.0576  0.1765 -0.3467
64284W        W 7196   1.486  27.623   7.913  0.0969 -0.2469 -0.2586
64285W        W 7197   2.966  26.457   7.043 -0.2305  0.1504 -0.2426
64286W        W 7198   2.906  26.485   8.137 -0.2496 -0.1008 -0.2269
64287W        W 7199   2.829  25.969   8.167  0.0713  0.0378 -0.2051
64288W        W 7200   3.086  30.441  10.401  0.1563  0.2725  0.0506
64289W        W 7201   1.148  26.839   6.358 -0.1073 -0.1159 -0.4404
64290W        W 7202   2.157  30.028   7.414  0.0340 -0.1532  0.0339
64291W        W 7203   0.851  26.368   7.273  0.0037  0.1882  0.0328
64292W        W 7204   1.119  27.898   9.233  0.0017  0.0078  0.0508
64293W        W 7205   5.052  24.293   9.682 -0.1686  0.1424  0.4507
64294W        W 7206   1.658  28.241   6.199 -0.2174 -0.0359  0.0852
64295W        W 7207   2.730  25.294   9.038  0.1037 -0.0132  0.1266
64296W        W 7208   2.171  28.640   8.338 -0.0297 -0.2904  0.1242
64297W        W 7209   0.466  28.977   8.386 -0.0832 -0.2181  0.0078
64298W        W 7210   0.435  29.440   9.435 -0.1557  0.0262  0.0077
64299W        W 7211  34.106  25.476   7.253 -0.0589 -0.0170  0.1280
64300W        W 7212   4.370  27.078   9.632  0.2857  0.0952  0.2080
64301W        W 7213   1.215  27.307   9.516 -0.1105  0.2429 -0.0697
64302W        W 7214   0.690  27.827   8.957 -0.0383 -0.4032 -0.0503
64303W        W 7215   2.719  27.157   9.221  0.3220 -0.2455 -0.2657
64304W        W 7216   2.537  29.062   8.783 -0.4231  0.0438  0.1577
64305W        W 7217  34.624  28.371   7.744 -0.0152 -0.2653  0.0626
64306W        W 7218   2.246  28.115   6.897 -0.2258 -0.0085 -0.1253
64307W        W 7219   2.565  27.166   6.736 -0.1301  0.0203  0.0094
64308W        W 7220   0.574  26.206   7.770 -0.1413 -0.2153 -0.5030
64309W        W 7221   1.974  26.563   7.029 -0.0847 -0.0806  0.1233
64310W        W 7222  33.986  26.877   8.242 -0.2017 -0.0520  0.1359
64311W        W 7223   3.045  24.371   8.893  0.1791  0.3508  0.2647
64312W        W 7224   0.166  25.920   7.463 -0.0914 -0.1719  0.4728
64313W        W 7225   2.589  27.724   7.856  0.1319 -0.1906  0.2109
64314W        W 7226   3.304  25.019   8.963  0.0289 -0.0747  0.2351
64315W        W 7227   1.563  28.987   7.697 -0.3270  0.0744 -0.0697
64316W        W 7228   2.859  28.111   7.706 -0.0816 -0.3526 -0.0004
64317W        W 7229   1.720  28.436   8.140 -0.1041 -0.1127  0.3552
64318W        W 7230   0.180  26.946   9.659  0.0551 -0.0442  0.0017
64319W        W 7231   2.271  28.057   9.988 -0.0690  0.1963  0.0706
64320W        W 7232   2.814  28.004   9.063 -0.0360  0.2113  0.0394
64321W        W 7233   0.752  26.520   6.338  0.3219 -0.2849 -0.0133
64322W        W 7234   2.120  27.049  10.253  0.2220  0.2523  0.0201
64323W        W 7235   0.443  28.039   7.727  0.2664 -0.0737  0.1327
64324W        W 7236   3.119  27.082   8.858 -0.1001 -0.2759  0.0761
64325W        W 7237   1.760  27.932   6.937  0.2655 -0.0351 -0.1539
64326W        W 7238   0.685  28.917   8.858  0.0929  0.0003 -0.0888
64327W        W 7239   0.087  29.722   7.124 -0.0500  0.1189  0.0678
64328W        W 7240   0.862  27.103   8.338 -0.0835  0.1705  0.1170
64329W        W 7241   1.660  29.428   8.077  0.2324  0.0782  0.3586
64330W        W 7242   3.842  28.677   9.742 -0.0864 -0.0451 -0.1303
64331W        W 7243   0.136  26.670  10.245 -0.0901 -0.1314 -0.0732
64332W        W 7244   2.816  29.140   9.199 -0.2172 -0.0288  0.0146
64333W        W 7245   1.303  25.619   8.813  0.0282  0.2322 -0.2641
64334W        W 7246   3.105  25.082   8.059 -0.1402  0.0536 -0.1619
64335W        W 7247   1.844  25.421   9.734  0.1760 -0.2853  0.0592
64336W        W 7248   0.486  28.414   8.947 -0.1083 -0.1814 -0.1534
64337W        W 7249   0.252  28.466   6.772 -0.0891 -0.0407 -0.0579
64338W        W 7250   0.499  28.040   6.483  0.2770  0.4357  0.5288
64339W        W 7251  34.007  27.134   9.756 -0.0797 -0.1677 -0.0027
64340W        W 7252  33.757  26.846   9.084 -0.2911  0.0565 -0.3016
64341W        W 7253   0.259  26.662   8.126  0.0221  0.1409  0.1096
64342W        W 7254   2.172  28.702   6.965  0.0296 -0.1334  0.2104
64343W        W 7255   1.096  26.964   9.086 -0.0779 -0.0687  0.2661
64344W        W 7256   0.378  25.739   9.175 -0.1190  0.4903  0.1766
64345W        W 7257   2.161  29.071   7.954  0.0822  0.1491 -0.2111
64346W        W 7258   2.454  28.581   7.862  0.3031 -0.0035 -0.0315
64347W        W 7259   1.329  26.674   8.480 -0.0535  0.0138 -0.1319
64348W        W 7260   0.474  27.032   7.789 -0.0137 -0.3539 -0.1824
64349W        W 7261  33.314  25.816   7.384 -0.1195 -0.2043  0.1043
64350W        W 7262   2.535  26.819   8.763 -0.1106  0.0047 -0.0241
64351W        W 7263   1.560  27.969   8.268  0.2359 -0.0938  0.0298
64352W        W 7264   1.184  29.449   5.603  0.0236 -0.1330 -0.2302
64353W        W 7265   0.035  26.070   9.513 -0.2193 -0.0122  0.1508
64354W        W 7266   3.086  27.712   7.931 -0.0021  0.2997 -0.5662
64355W        W 7267   4.672  27.445   7.526 -0.1085 -0.3102  0.1940
64356W        W 7268   2.435  24.741   9.284 -0.0763  0.3455 -0.6518
64357W        W 7269   1.034  27.404   8.680  0.0269  0.0797 -0.1174
64358W        W 7270   4.500  27.599   9.281  0.1061 -0.2000 -0.1693
64359W        W 7271   1.508  25.381   8.419  0.0998  0.1512 -0.0495
64360W        W 7272   2.173  25.331   7.232  0.0303  0.4757  0.0030
64361W        W 7273   2.086  29.112   8.564 -0.2112 -0.0621  0.0870
64362W        W 7274  34.473  27.235   9.496 -0.0706  0.0157 -0.1011
64363W        W 7275   1.763  26.283   8.854  0.1666  0.1866 -0.0710
64364W        W 7276   2.147  28.278   9.122  0.0427  0.0714  0.1610
64365W        W 7277   1.123  27.252   7.802 -0.2182  0.3469 -0.2356
64366W        W 7278   4.823  26.761   7.009 -0.1404  0.1367  0.1217
64367W        W 7279   0.226  31.483   9.330 -0.1263 -0.1418 -0.0976
64368W        W 7280   0.978  28.934   9.756  0.2460  0.0313  0.4970
64369W        W 7281   3.458  27.730   7.605  0.1473 -0.2503 -0.0059
64370W        W 7282   2.004  27.370   9.802  0.2613 -0.1788 -0.0677
64371W        W 7283   1.144  27.699   7.451  0.1516  0.0162 -0.2189
64372W        W 7284   0.802  26.730   8.055 -0.3186  0.2342 -0.0181
64373W        W 7285   3.210  26.069   8.560  0.2166 -0.2832 -0.0609
64374W        W 7286   0.840  26.561   8.927  0.0100  0.0379  0.0464
64375W        W 7287   1.756  26.110   7.147  0.0162 -0.0164  0.2130
64376W        W 7288   1.504  30.502   9.944  0.0786  0.2138 -0.0340
64377W        W 7289   0.606  27.805   9.467 -0.2650 -0.1583 -0.0737
64378W        W 7290   1.801  31.977   3.750 -0.2166  0.0722  0.0128
64379W        W 7291   1.449  30.340   1.032  0.3695  0.1742  0.1300
64380W        W 7292   3.091  30.403   1.404 -0.2828  0.0667 -0.2343
64381W        W 7293   5.795  31.118  31.810 -0.0562 -0.2097  0.1626
64382W        W 7294   1.328  29.330   1.065  0.0204 -0.2116  0.1007
64383W        W 7295   3.316  31.430   1.094  0.1928  0.0832  0.1873
64384W        W 7296   1.642  28.449   1.279 -0.1077 -0.1741 -0.1195
64385W        W 7297   2.505  32.531   2.086  0.2872  0.0632  0.0494
64386W        W 7298   3.828  32.837   2.324  0.2769  0.1428  0.0307
64387W        W 7299   2.097  30.839   0.086  0.2540 -0.1423  0.0030
64388W        W 7300   3.170  31.864   1.267  0.2737  0.3999 -0.1657
64389W        W 7301   2.743  32.145   3.500  0.0046 -0.1012 -0.0255
64390W        W 7302   1.745  29.614   0.655 -0.1754  0.0931  0.1602
64391W        W 7303   0.596  30.763   3.599  0.4485 -0.1584  0.0556
64392W        W 7304   3.206  31.235   3.474 -0.2108 -0.1227 -0.2796
64393W        W 7305   0.736  30.863   1.618 -0.0891 -0.0474 -0.2465
64394W        W 7306   1.809  29.808   1.867  0.1914 -0.1272  0.0280
64395W        W 7307   1.405  30.086   1.864 -0.1476 -0.2355  0.0408
64396W        W 7308   4.102  32.674   1.185  0.3433 -0.0538  0.2104
64397W        W 7309   2.026  31.617   2.842 -0.0089 -0.2677  0.1360
64398W        W 7310   2.267  28.170   4.612  0.4789 -0.3082  0.3753
64399W        W 7311   1.611  32.210   0.378  0.2906  0.0957 -0.1779
64400W        W 7312   0.011  30.491   0.431 -0.3441  0.1093  0.2043
64401W        W 7313   0.754  32.182   3.033 -0.1109 -0.2727  0.0605
64402W        W 7314   2.093  31.147   2.007 -0.1752  0.0938  0.0305
64403W        W 7315   2.608  29.500   1.220  0.1838 -0.1207 -0.0628
64404W        W 7316   3.114  32.444   2.040  0.4679  0.0330 -0.0151
64405W        W 7317   2.106  32.286   1.786 -0.0231  0.1841 -0.1216
64406W        W 7318   4.342  33.458   1.354  0.0424  0.0213  0.0507
64407W        W 7319   2.982  30.679   2.934  0.2557  0.0683  0.4010
64408W        W 7320   0.266  30.901   0.686 -0.2479  0.0883 -0.3249
64409W        W 7321   0.899  32.650   2.083  0.2515  0.1643  0.1283
64410W        W 7322   1.450  32.862   1.894 -0.0080  0.0966 -0.2572
64411W        W 7323   5.343  31.582   0.994  0.2355 -0.2385  0.1794
64412W        W 7324   2.717  31.181   3.348  0.2157  0.1012  0.2080
64413W        W 7325   0.761  33.063   3.244 -0.0349  0.1226 -0.2268
64414W        W 7326   1.898  32.156  31.924  0.1454  0.0808 -0.0268
64415W        W 7327   2.500  31.427   2.108  0.1511 -0.2010 -0.0931
64416W        W 7328   1.194  33.027   3.504  0.1253 -0.1451 -0.1108
64417W        W 7329   2.615  31.054   1.806  0.1188  0.2165 -0.0930
64418W        W 7330   2.870  30.192   0.604  0.2400  0.1686 -0.0746
64419W        W 7331   1.907  33.416   0.316  0.1220 -0.0459 -0.1722
64420W        W 7332   1.614  32.400   1.681  0.3579  0.0798 -0.2222
64421W        W 7333   0.488  33.310   2.917  0.2410 -0.2238 -0.0481
64422W        W 7334   0.301  33.059   3.498 -0.3063 -0.0003  0.0041
64423W        W 7335   4.158  30.471   3.655 -0.2372 -0.0150 -0.1963
64424W        W 7336   3.266  31.707   0.184  0.1860 -0.1362  0.0625
64425W        W 7337   3.155  30.726   0.011 -0.2575 -0.1782 -0.2484
64426W        W 7338  34.494  29.264  31.872 -0.1456 -0.1166 -0.1256
64427W        W 7339   4.308  30.256   0.787 -0.0219  0.0577  0.1667
64428W        W 7340   0.590  28.919   3.258 -0.2053  0.1036  0.0175
64429W        W 7341   1.049  33.215   2.212  0.4274  0.1322  0.1806
64430W        W 7342   1.640  30.551   2.697 -0.1052 -0.3140  0.0934
64431W        W 7343   3.016  31.463   2.969  0.1653  0.1069 -0.0334
64432W        W 7344   1.154  30.671   1.349 -0.0421 -0.2400 -0.0203
64433W        W 7345   1.979  30.908   1.500  0.2297  0.1396  0.0695
64434W        W 7346   0.675  31.492   1.490 -0.0083 -0.2301  0.0478
64435W        W 7347  34.267  30.148   1.406 -0.1153  0.1123  0.1104
64436W        W 7348   4.144  32.648  31.761 -0.0532 -0.2999 -0.1897
64437W        W 7349   5.452  32.706   0.734 -0.0056 -0.2729  0.0300
64438W        W 7350   2.749  32.189  31.494 -0.1319  0.1104  0.1743
64439W        W 7351   1.138  29.149   1.479 -0.0412 -0.0704 -0.0248
64440W        W 7352  34.425  30.799   2.960 -0.0607 -0.0704 -0.0157
64441W        W 7353   1.423  31.720   3.641  0.0698  0.2702 -0.2680
64442W        W 7354   0.161  27.623   1.204  0.0741 -0.0494 -0.2168
64443W        W 7355   4.254  31.877   3.321  0.2904  0.0008 -0.2483
64444W        W 7356  34.108  34.085   2.713  0.1848 -0.1060 -0.0151
64445W        W 7357   2.474  30.107   0.927  0.1006 -0.2687 -0.1046
64446W        W 7358   0.841  32.192   2.459 -0.2394 -0.3101  0.1300
64447W        W 7359   1.953  30.867   2.475 -0.3013  0.1843 -0.0824
64448W        W 7360   3.006  32.158   0.062  0.4128 -0.0786  0.2513
64449W        W 7361   2.707  29.732   0.718  0.3065  0.1458  0.0897
64450W        W 7362   2.576  29.155   1.974  0.0098 -0.3411  0.0270
64451W        W 7363   2.371  30.755  31.598  0.1698 -0.1792  0.2600
64452W        W 7364   1.651  31.438   1.073 -0.0172  0.1314 -0.0135
64453W        W 7365   2.445  30.859   2.773  0.1388  0.2039 -0.1773
64454W        W 7366   2.577  32.695  31.412 -0.4017 -0.5013  0.2326
64455W        W 7367   0.947  31.867   1.733 -0.0868  0.1049 -0.3309
64456W        W 7368   2.493  30.357   2.954 -0.2040 -0.0305 -0.2109
64457W        W 7369   1.713  31.154   4.248 -0.2375  0.2830  0.3170
64458W        W 7370   2.213  33.390   0.683 -0.0413  0.2298  0.1562
64459W        W 7371  34.650  32.541   1.682 -0.2576 -0.0662  0.0626
64460W        W 7372   1.507  31.041   1.515 -0.1904 -0.2906 -0.1483
64461W        W 7373   1.073  29.895   2.973  0.1379  0.1595  0.0155
64462W        W 7374   2.174  32.081   2.899  0.0245  0.0094  0.0921
64463W        W 7375   4.819  28.691   1.505  0.1076 -0.1287  0.0579
64464W        W 7376   0.178  29.637   2.597 -0.2764  0.1552 -0.0084
64465W        W 7377   3.432  29.083   1.380  0.2456 -0.0750  0.0035
64466W        W 7378   1.371  31.549   1.471 -0.0939  0.2196  0.1979
64467W        W 7379   4.578  32.537   1.015  0.1794  0.0418  0.4256
64468W        W 7380   3.499  31.041  31.818  0.0493  0.0786 -0.0710
64469W        W 7381   3.780  31.903   0.329  0.0403  0.1621  0.1556
64470W        W 7382   1.195  30.359   2.791 -0.2882  0.1687  0.3357
64471W        W 7383  34.438  31.368   1.362  0.0147  0.1751 -0.0405
64472W        W 7384  34.571  29.681   4.999  0.1237  0.0429  0.1560
64473W        W 7385   0.128  31.205   2.875 -0.2111  0.1657 -0.2718
64474W        W 7386   2.153  30.459   1.424 -0.1602 -0.1530 -0.1813
64475W        W 7387   1.445  29.764   0.321 -0.2144 -0.0633 -0.0258
64476W        W 7388   2.298  31.045   0.480 -0.0311  0.0815  0.0235
64477W        W 7389   3.862  29.994   0.669  0.3236  0.0463  0.2114
64478W        W 7390   1.449  30.587   2.216  0.1151  0.3921  0.0014
64479W        W 7391   3.076  29.468   3.999  0.4988 -0.0423 -0.3874
64480W        W 7392   3.565  33.353   0.888  0.1263  0.0086  0.0553
64481W        W 7393   3.382  31.740   3.080 -0.1934 -0.2691 -0.0946
64482W        W 7394   4.385  32.805   0.406 -0.1319 -0.0981  0.1522
64483W        W 7395   0.898  30.577   2.446  0.3269  0.2925  0.0759
64484W        W 7396   0.228  29.351   1.215  0.0128  0.1980 -0.1644
64485W        W 7397   0.457  33.198   1.359  0.4727  0.0328 -0.0050
64486W        W 7398   1.966  31.964   2.215  0.2116 -0.0453  0.0828
64487W        W 7399   2.578  28.431   0.430 -0.0153  0.0135  0.1466
64488W        W 7400   3.328  32.795   2.363  0.3523  0.3527 -0.0769
64489W        W 7401   2.852  31.295   1.382  0.3243 -0.0697 -0.0788
64490W        W 7402   1.422  31.569   1.973 -0.3099 -0.1009 -0.0885
64491W        W 7403   3.930  30.000   1.681  0.0179 -0.1562 -0.2597
64492W        W 7404   3.481  31.433   2.708  0.2357 -0.0312 -0.3315
64493W        W 7405   2.110  29.730   1.470  0.3657  0.2027  0.2103
64494W        W 7406   1.596  30.158  31.558 -0.0613 -0.0393  0.1562
64495W        W 7407   3.201  31.346   0.604 -0.2172 -0.0508  0.1417
64496W        W 7408   0.826  32.259   0.381  0.0772  0.2712  0.1476
64497W        W 7409  33.914  30.801   0.767  0.2406 -0.2303  0.0007
64498W        W 7410   3.395  32.848   0.439 -0.2814 -0.0266 -0.1914
64499W        W 7411   3.843  29.386   1.543  0.0150  0.3810 -0.1546
64500W        W 7412  34.456  31.247   3.232 -0.1630  0.1905  0.1276
64501W        W 7413   2.620  29.767   4.150  0.5188  0.0682 -0.0371
64502W        W 7414   1.222  30.147   1.412 -0.1855  0.0842  0.0274
64503W        W 7415   0.186  31.566   1.591 -0.1011 -0.0279  0.3730
64504W        W 7416   2.613  29.935   0.243 -0.4117  0.2785 -0.0480
64505W        W 7417   2.653  29.718  30.929 -0.2038 -0.2125  0.0316
64506W        W 7418   2.945  31.657   3.437  0.0340 -0.2532  0.2234
64507W        W 7419   4.260  31.329   0.887 -0.1485  0.0903 -0.2864
64508W        W 7420   2.361  30.356   0.258  0.0138 -0.0052 -0.1941
64509W        W 7421   2.946  30.455  31.585 -0.0643 -0.3240 -0.1168
64510W        W 7422   0.219  31.719   2.854 -0.1147  0.1821  0.0218
64511W        W 7423   3.934  31.473   1.695 -0.1212  0.1843  0.0742
64512W        W 7424   2.562  31.406   2.785 -0.1283 -0.0331 -0.0829
64513W        W 7425   1.842  29.134   0.731 -0.1942 -0.1832  0.0020
64514W        W 7426   4.090  32.621  30.581  0.3022 -0.3540 -0.0498
64515W        W 7427   0.649  31.564   0.937 -0.4536  0.0632 -0.1279
64516W        W 7428   2.129  30.900   4.402  0.1428  0.1026  0.0737
64517W        W 7429   3.061  33.277   0.994  0.0722 -0.1840 -0.3036
64518W        W 7430   0.303  30.159   3.310  0.0313 -0.0125  0.5679
64519W        W 7431   1.636  30.668  29.967 -0.1264 -0.2124  0.0411
64520W        W 7432   0.182  28.245   0.318  0.0083 -0.0776 -0.0188
64521W        W 7433   1.740  33.272   0.755  0.0854 -0.0061 -0.3328
64522W        W 7434   3.114  31.169   1.942 -0.1433 -0.1450  0.0904
64523W        W 7435   2.575  28.932   1.411 -0.0118 -0.1498  0.1970
64524W        W 7436   1.549  30.538   3.634 -0.0395  0.0439  0.3127
64525W        W 7437   2.172  31.365   4.085 -0.2442 -0.3189 -0.2527
64526W        W 7438   3.306  30.190  31.851  0.1462  0.1036 -0.2606
64527W        W 7439   4.695  31.655   0.435  0.0649  0.2355 -0.0125
64528W        W 7440   1.794  31.410   1.674 -0.2124 -0.0459  0.1643
64529W        W 7441   2.375  29.921   3.702  0.2684 -0.1524  0.3918
64530W        W 7442   2.500  31.738   3.220 -0.1148  0.2786 -0.0982
64531W        W 7443   0.780  33.582   3.215 -0.2612  0.2312  0.2316
64532W        W 7444   3.207  32.069   3.361  0.0988  0.2584 -0.2938
64533W        W 7445   3.043  30.855   1.353  0.3284 -0.1456  0.2335
64534W        W 7446   2.204  31.183   3.086 -0.2609 -0.0246 -0.0328
64535W        W 7447   2.213  29.603   0.774  0.0698 -0.0966 -0.1429
64536W        W 7448   2.341  32.912   0.440  0.0298  0.0368 -0.0053
64537W        W 7449   1.008  31.163   1.361  0.2197 -0.0997 -0.1412
64538W        W 7450   2.032  29.835   2.374  0.0843  0.0251 -0.0467
64539W        W 7451   2.396  32.488   2.960 -0.0569  0.2079 -0.0611
64540W        W 7452   2.801  32.252   1.216  0.1590 -0.1201 -0.0838
64541W        W 7453   1.770  30.244   2.221  0.2097  0.0698 -0.0844
64542W        W 7454   1.473  32.439   1.173 -0.0544  0.1851 -0.0502
64543W        W 7455   2.322  29.342   1.610 -0.0965 -0.1659  0.0906
64544W        W 7456  34.378  33.598   1.874 -0.0995  0.1338  0.1216
64545W        W 7457   1.149  29.988  31.902 -0.1226  0.1690  0.0323
64546W        W 7458   1.143  31.457   3.336  0.0647  0.1049 -0.0820
64547W        W 7459   2.707  28.732   0.825 -0.1549 -0.1807 -0.2275
64548W        W 7460   3.983  30.918   0.105 -0.0851 -0.0231 -0.0810
64549W        W 7461   0.751  29.653   2.552 -0.4415 -0.0253 -0.0609
64550W        W 7462   2.257  29.170   1.043  0.4558  0.2536  0.0417
64551W        W 7463  33.870  32.907   3.044  0.2015 -0.1621  0.1167
64552W        W 7464   3.348  30.764   1.778  0.1566 -0.0977  0.0442
64553W        W 7465   2.519  30.023   1.434 -0.0662  0.2880 -0.0657
64554W        W 7466   1.649  32.329   2.163 -0.0084  0.0595 -0.0651
64555W        W 7467   0.911  31.019   3.262 -0.0597  0.1983  0.1272
64556W        W 7468   0.932  30.475   0.866 -0.3531  0.2394 -0.0422
64557W        W 7469   2.808  30.100   2.128  0.0550  0.4936  0.1088
64558W        W 7470   2.476  30.906   1.330 -0.0372 -0.0811  0.2893
64559W        W 7471   0.132  33.567   1.466  0.0018 -0.1665 -0.0575
64560W        W 7472   2.794  31.937   2.873  0.0292 -0.1684 -0.0625
64561W        W 7473   1.827  32.159   1.311  0.0126  0.0764  0.1158
64562W        W 7474   0.160  31.207   1.190  0.0764 -0.0995  0.0813
64563W        W 7475   0.567  30.968   2.921  0.1113  0.0611 -0.4734
64564W        W 7476   3.323  31.000   3.021 -0.0545 -0.2330 -0.1728
64565W        W 7477   1.999  29.398   2.694 -0.1768 -0.1355 -0.0827
64566W        W 7478   1.789  31.544   2.334 -0.0628  0.3718  0.1372
64567W        W 7479   1.788  30.149   1.485 -0.0785  0.0467 -0.1144
64568W        W 7480   1.898  30.817   3.441  0.1512  0.0143 -0.2078
64569W        W 7481   2.283  29.777   1.933  0.0013  0.2564 -0.0863
64570W        W 7482   1.746  32.055   3.238  0.1165 -0.0562  0.2295
64571W        W 7483   1.601  28.149   0.849 -0.2901 -0.1460  0.0829
64572W        W 7484   4.213  33.172  31.307 -0.1723  0.0282 -0.4117
64573W        W 7485   3.418  30.138   1.868 -0.2599 -0.0621  0.1407
64574W        W 7486   1.101  31.391   0.842  0.1333 -0.1402  0.0139
64575W        W 7487  34.097  31.909   2.281  0.1466 -0.0244  0.0235
64576W        W 7488   1.010  31.299   1.879 -0.0922  0.2437 -0.0781
64577W        W 7489   2.694  29.584   1.718 -0.0845 -0.0190 -0.2805
64578W        W 7490   0.826  30.995   0.861 -0.2521 -0.1387  0.1185
64579W        W 7491   0.499  30.790   1.172 -0.4361 -0.0948 -0.1371
64580W        W 7492   1.920  31.924   0.769  0.0312  0.5322  0.1481
64581W        W 7493   4.673  29.923   0.571  0.1672 -0.0728 -0.1425
64582W        W 7494   1.576  31.778  31.188 -0.0474  0.2475 -0.0563
64583W        W 7495   1.609  29.122   2.681 -0.1612  0.0398  0.1415
64584W        W 7496   3.124  30.638   2.191 -0.0883  0.0347  0.5595
64585W        W 7497   4.368  30.865   0.760  0.3316 -0.1684 -0.1326
64586W        W 7498   2.849  27.909   5.563 -0.2238 -0.2998  0.1675
64587W        W 7499   0.539  31.200   1.940  0.5018 -0.2654  0.3671
64588W        W 7500   2.456  32.960   1.795 -0.0849 -0.1636  0.1282
64589W        W 7501   1.159  30.295   3.305  0.1996  0.1230  0.1859
64590W        W 7502   3.320  32.484   3.076  0.0555  0.1387 -0.0100
64591W        W 7503  33.601  31.568   5.234  0.1268 -0.0074 -0.0933
64592W        W 7504   2.127  28.859   1.727  0.0867  0.1873  0.0031
64593W        W 7505   1.607  28.812   1.673  0.1213 -0.0535 -0.0599
64594W        W 7506   0.271  32.248   2.280  0.2501 -0.0286  0.2053
64595W        W 7507   2.838  32.710   0.698 -0.3612  0.2167  0.0077
64596W        W 7508   1.425  31.278   0.483  0.1602  0.1206 -0.0733
64597W        W 7509   2.780  30.563   1.018 -0.0388 -0.1946  0.1475
64598W        W 7510   2.437  32.043   2.079 -0.1211  0.0029  0.0991
64599W        W 7511   3.073  30.926   0.473 -0.3399  0.0640  0.0516
64600W        W 7512   2.805  31.375   0.376 -0.0568  0.3343  0.3875
64601W        W 7513   2.320  31.317   1.482  0.2582  0.1620  0.2217
64602W        W 7514   1.948  29.915   4.133 -0.1772 -0.1034 -0.0071
64603W        W 7515   3.730  30.453   1.715 -0.2882 -0.4253  0.1481
64604W        W 7516   3.233  28.678   1.882 -0.0012 -0.2884 -0.2701
64605W        W 7517   2.693  29.297   4.352 -0.0499  0.2550  0.3745
64606W        W 7518   2.023  30.117   4.759 -0.0007 -0.1661 -0.2170
64607W        W 7519   1.918  30.638   1.944  0.1195  0.2240 -0.3981
64608W        W 7520   0.372  29.042   1.804 -0.1473 -0.2190  0.0331
64609W        W 7521   3.887  31.673   2.971 -0.0936 -0.2100 -0.2922
64610W        W 7522   2.666  30.891   0.039  0.0949  0.1874 -0.1341
64611W        W 7523   3.527  30.669   1.285  0.0504  0.0236 -0.1245
64612W        W 7524   4.645  30.605   0.474 -0.2955  0.1570  0.4191
64613W        W 7525   3.698  31.412   0.155  0.0189 -0.3759  0.0292
64614W        W 7526   0.808  30.197   2.195 -0.4612 -0.1182  0.0173
64615W        W 7527   3.015  29.733   3.238 -0.0683 -0.0386 -0.0556
64616W        W 7528  34.403  28.295  30.843 -0.0096 -0.3044  0.0533
64617W        W 7529   1.854  30.014   3.636 -0.3519 -0.5970 -0.0472
64618W        W 7530   2.134  32.510   0.192 -0.0303  0.0850  0.2980
64619W        W 7531   3.307  31.811   0.744 -0.1874  0.2936  0.1367
64620W        W 7532   4.207  30.499  31.927 -0.1605 -0.5567  0.0337
64621W        W 7533   0.592  29.765   2.035 -0.0761 -0.1635  0.0398
64622W        W 7534   1.279  32.479   3.148  0.0105 -0.1004 -0.0008
64623W        W 7535   0.588  30.930   0.325  0.0061 -0.1592  0.0183
64624W        W 7536   1.211  31.778  31.538 -0.1060 -0.3694 -0.2816
64625W        W 7537   2.714  31.861   3.948 -0.4032  0.0056 -0.0087
64626W        W 7538   4.095  30.952   3.777 -0.0823  0.1216  0.0002
64627W        W 7539   2.388  29.411   0.338  0.2128  0.1802 -0.1108
64628W        W 7540   2.596  29.919   3.198 -0.1238 -0.2695 -0.1228
64629W        W 7541   1.477  31.898   0.971  0.0606 -0.2268 -0.0124
64630W        W 7542   1.840  29.537   0.131 -0.0061  0.1570 -0.0292
64631W        W 7543   0.672  33.145   1.889 -0.0934 -0.2544 -0.1696
64632W        W 7544   0.724  31.286   2.580  0.2344  0.0308  0.0457
64633W        W 7545   3.364  32.203   0.411  0.1981  0.1322  0.2998
64634W        W 7546   2.090  29.303   2.147  0.2587 -0.1260  0.1989
64635W        W 7547   1.666  29.003   1.223  0.0546  0.3265 -0.0555
64636W        W 7548   2.897  31.600   1.795 -0.3785 -0.0383  0.0783
64637W        W 7549   4.924  30.827   3.477  0.4172  0.2780 -0.2071
64638W        W 7550   1.619  29.780   2.620 -0.0001 -0.3441 -0.4783
64639W        W 7551   0.492  31.703   1.919 -0.0864 -0.0870 -0.1107
64640W        W 7552   3.082  32.393   2.568  0.0579  0.1650  0.2136
64641W        W 7553   3.855  31.109   0.575 -0.0087  0.0827 -0.3423
64642W        W 7554   1.713  31.897   1.784 -0.1124  0.2183 -0.2720
64643W        W 7555   0.753  30.535   3.107  0.1159 -0.3535 -0.0166
64644W        W 7556   1.926  31.786   4.779 -0.2049 -0.2425  0.2759
64645W        W 7557   4.111  32.058  31.716 -0.1669 -0.0408 -0.0074
64646W        W 7558   1.334  29.297   1.875 -0.2667 -0.3288  0.1039
64647W        W 7559   0.603  31.875  31.457 -0.2091  0.0708  0.2533
64648W        W 7560   0.175  33.878   2.134  0.0989 -0.2599  0.1139
64649W        W 7561  34.469  32.295   2.172  0.0641  0.1223 -0.1542
64650W        W 7562   0.498  32.654   1.464  0.2091  0.1258 -0.1829
64651W        W 7563   3.436  30.245   0.379 -0.1119 -0.0683 -0.0229
64652W        W 7564   1.384  32.044   0.003 -0.1631  0.3070  0.1366
64653W        W 7565   4.018  33.362   2.475  0.3157  0.4606  0.2569
64654W        W 7566   1.552  29.341  31.124  0.0491  0.1411 -0.0220
64655W        W 7567   0.824  32.914   1.171 -0.0286 -0.0613 -0.0354
64656W        W 7568  34.467  31.139   0.878  0.1648 -0.2116 -0.1456
64657W        W 7569   2.732  33.340   0.610 -0.1415  0.1428  0.0335
64658W        W 7570   1.260  33.088   0.546  0.0791  0.2444 -0.1768
64659W        W 7571   4.035  32.699   3.786 -0.0213  0.1996 -0.4068
64660W        W 7572   4.893  30.276   1.484  0.1290  0.0125 -0.0665
64661W        W 7573   3.959  31.380   2.526  0.1646 -0.2963 -0.5165
64662W        W 7574   3.648  30.522   0.840 -0.0662  0.1450 -0.0268
64663W        W 7575   3.530  32.452   3.585 -0.0758 -0.2001  0.3300
64664W        W 7576   1.053  29.773   1.834  0.0560  0.0388 -0.1078
64665W        W 7577   2.328  29.540  31.840  0.3127  0.1102  0.0487
64666W        W 7578   0.397  31.146   3.918 -0.3720  0.4409 -0.1875
64667W        W 7579   3.950  30.028   3.731  0.1947 -0.0939 -0.2406
64668W        W 7580  34.024  32.490   3.214  0.0709 -0.0295  0.1649
64669W        W 7581   4.183  32.338   0.660  0.0742 -0.1239 -0.0455
64670W        W 7582   1.857  29.432   1.131 -0.0247 -0.0588 -0.2741
64671W        W 7583   3.811  31.186   1.126 -0.0808 -0.0870  0.2626
64672W        W 7584   2.334  29.515   3.246  0.0526  0.0405  0.0684
64673W        W 7585  34.564  31.936   0.623 -0.0104  0.1455  0.0639
64674W        W 7586   2.945  31.109   0.939  0.4786  0.0344  0.3195
64675W        W 7587   1.982  32.756   1.981 -0.0653 -0.1372 -0.1081
64676W        W 7588   1.923  32.436   0.928  0.0983 -0.1652  0.0033
64677W        W 7589   1.623  32.708   3.481  0.0538  0.0525  0.0483
64678W        W 7590  34.421  30.659   0.809 -0.0433  0.1095 -0.2727
64679W        W 7591   4.900  30.711   2.833 -0.2229 -0.0342  0.0364
64680W        W 7592   0.703  29.362   1.594  0.2703  0.7042 -0.0569
64681W        W 7593   4.231  30.508   2.221  0.2888  0.1168 -0.0814
64682W        W 7594   2.424  30.663   2.107  0.0214 -0.1188  0.1585
64683W        W 7595   3.419  30.033   1.346  0.2680 -0.1634  0.1582
64684W        W 7596   2.271  30.237   1.897 -0.0560 -0.0965 -0.0702
64685W        W 7597   1.574  30.087   3.204  0.0130  0.1282  0.1781
64686W        W 7598   1.620  30.182   0.100  0.2412 -0.0558  0.3476
64687W        W 7599   4.643  31.215   2.320  0.0805  0.0260  0.4256
64688W        W 7600   2.302  30.655   0.868 -0.0866 -0.1937 -0.1651
64689W        W 7601   2.198  32.678   4.265  0.2331  0.0236  0.0983
64690W        W 7602   1.434  29.827   1.041  0.2857 -0.2070 -0.0514
64691W        W 7603   2.819  31.143  30.480  0.4300  0.0265  0.0630
64692W        W 7604   1.507  30.562   1.597 -0.2406  0.1036  0.1892
64693W        W 7605   1.241  32.287   2.720 -0.0894 -0.0859 -0.0528
64694W        W 7606   4.073  32.392   4.395  0.0776 -0.3971  0.2438
64695W        W 7607  33.530  28.200   2.805 -0.0991  0.3790 -0.5185
64696W        W 7608   4.562  32.968   1.363 -0.0892 -0.2401 -0.1301
64697W        W 7609   2.933  31.944   2.239  0.3390  0.1221 -0.1905
64698W        W 7610   2.693  31.845   0.223  0.2912  0.1873 -0.3300
64699W        W 7611   5.137  30.558   0.199  0.1064  0.1401  0.0116
64700W        W 7612   3.413  32.898   0.975 -0.2145  0.0170 -0.2101
64701W        W 7613   0.925  31.680   2.235  0.1196 -0.0282  0.1831
64702W        W 7614   3.369  33.024   1.447 -0.1687  0.0582  0.0686
64703W        W 7615   3.933  31.992   1.660 -0.2720 -0.0133  0.0691
64704W        W 7616   2.418  29.272  31.442 -0.0586 -0.2962 -0.1211
64705W        W 7617   3.380  31.580   2.181 -0.1502 -0.0164  0.1146
64706W        W 7618  34.465  32.395   0.824 -0.0573  0.1022 -0.3386
64707W        W 7619   3.692  30.655   2.199 -0.3438  0.0488  0.2137
64708W        W 7620   3.145  29.559   2.081  0.1269  0.3865 -0.1421
64709W        W 7621   1.565  32.147  31.548 -0.0569 -0.2158 -0.1021
64710W        W 7622   3.024  29.988   3.777 -0.1504 -0.1295  0.1673
64711W        W 7623   2.498  32.065   1.561  0.2797 -0.2450 -0.1320
64712W        W 7624   2.421  32.877   3.863  0.2473  0.1190 -0.2050
64713W        W 7625   2.473  31.279   0.945 -0.2962 -0.0678  0.0823
64714W        W 7626   3.051  30.644   3.410 -0.1752 -0.2223  0.1108
64715W        W 7627   1.648  31.171   2.765  0.0777 -0.2301 -0.0121
64716W        W 7628   1.164  32.124   2.101 -0.1327  0.0632 -0.2331
64717W        W 7629   3.776  31.553   0.744  0.0102 -0.0762 -0.0284
64718W        W 7630   2.881  29.980   2.702 -0.1008  0.1326  0.0159
64719W        W 7631   3.559  30.738   0.320  0.1189  0.2208 -0.1303
64720W        W 7632   1.881  29.218  31.721 -0.1127 -0.3569  0.1240
64721W        W 7633   3.049  29.139   1.053 -0.1677  0.0114  0.2014
64722W        W 7634   3.625  29.745   0.317 -0.1726 -0.1699 -0.1043
64723W        W 7635   2.545  31.484   3.745 -0.2056 -0.0700  0.1046
64724W        W 7636   0.638  29.860   1.538  0.0663 -0.2306 -0.3262
64725W        W 7637   0.635  30.276   1.287 -0.0755 -0.0434  0.2265
64726W        W 7638   1.184  29.291   4.441  0.0005  0.3270  0.1567
64727W        W 7639   1.043  30.596   3.761  0.1290  0.0393  0.0620
64728W        W 7640   1.327  31.264   2.356 -0.0397  0.1349 -0.0328
64729W        W 7641   1.352  28.803   0.241  0.3817 -0.1485 -0.0242
64730W        W 7642   4.706  31.173   0.546 -0.2180  0.0508  0.1889
64731W        W 7643   1.601  29.370   2.248 -0.2245  0.2545  0.0267
64732W        W 7644   1.090  29.622   0.748  0.1581  0.0732 -0.1457
64733W        W 7645   5.185  31.483   0.508  0.2418 -0.3907 -0.3518
64734W        W 7646   3.244  32.407   0.850 -0.3369 -0.6653 -0.1773
64735W        W 7647   0.723  28.629   1.022  0.4166  0.0618 -0.1223
64736W        W 7648   3.224  32.077   3.957  0.1603  0.0159 -0.3410
64737W        W 7649   1.136  30.761   1.854 -0.0976  0.1475  0.0063
64738W        W 7650   1.175  30.369   4.701 -0.4365 -0.1798 -0.0923
64739W        W 7651   1.360  29.120   3.967  0.2874 -0.0589 -0.0765
64740W        W 7652   0.433  29.578   0.131  0.2439 -0.0589 -0.3572
64741W        W 7653   3.471  31.687   1.633  0.0106 -0.5451 -0.0361
64742W        W 7654   2.860  31.625   0.837 -0.2442 -0.0330 -0.0119
64743W        W 7655   3.925   0.051  31.970  0.0092  0.1472 -0.0482
64744W        W 7656   1.173  32.063   4.045 -0.0970 -0.1626 -0.3706
64745W        W 7657   1.324  33.362   2.593  0.0712 -0.1199 -0.1249
64746W        W 7658   0.673  30.204   2.732  0.0839  0.1516 -0.0311
64747W        W 7659   4.768  30.594  31.529 -0.2245  0.1167  0.0120
64748W        W 7660   2.126  31.195   3.577 -0.0829  0.0403 -0.2525
64749W        W 7661   4.704  31.503   1.376 -0.2220 -0.3290 -0.0715
64750W        W 7662   3.378  29.612   1.659 -0.2280  0.2924 -0.2557
64751W        W 7663   3.415  30.954   0.892 -0.3726  0.0519  0.0594
64752W        W 7664   2.143  29.227   4.488  0.1051 -0.1677  0.2718
64753W        W 7665   0.314  32.236   2.814  0.4054 -0.2307  0.1064
64754W        W 7666   4.388  30.974   2.669  0.1041 -0.0537 -0.0555
64755W        W 7667   1.168  31.359   2.876 -0.0373  0.1556  0.2495
64756W        W 7668   1.867  30.500   1.069  0.0235 -0.2934 -0.1587
64757W        W 7669   1.778  32.726   0.570  0.0165  0.0196  0.1988
64758W        W 7670   1.020  29.633   1.285  0.3011  0.0196 -0.0232
64759W        W 7671   1.430  30.542   0.585  0.0883  0.0083  0.0289
64760W        W 7672   1.307  30.132   2.362  0.0052 -0.0671 -0.1943
64761W        W 7673   2.678  32.747   2.615  0.0790 -0.3531 -0.3132
64762W        W 7674   3.381  30.516   2.588  0.2000 -0.1396 -0.0656
64763W        W 7675   1.584  28.608   0.707 -0.0703 -0.4132 -0.0888
64764W        W 7676   4.189  31.876   0.839 -0.4730 -0.1341  0.0810
64765W        W 7677   3.163  32.869   3.398  0.0403  0.1286 -0.3668
64766W        W 7678   4.620  32.818   2.915 -0.2404 -0.1165 -0.0482
64767W        W 7679   1.565  32.692   4.200  0.2113 -0.1720 -0.0630
64768W        W 7680   3.288  31.890   2.616  0.0164  0.1859 -0.0558
64769W        W 7681  34.568  28.429   2.927 -0.1224  0.0196 -0.2763
64770W        W 7682   3.488  31.175   1.511  0.0989 -0.1782 -0.0368
64771W        W 7683   2.987  31.467   2.467  0.1324 -0.1263 -0.1761
64772W        W 7684   1.939  30.109   2.814 -0.0503  0.1547  0.0023
64773W        W 7685   0.348  28.840   2.296 -0.3289 -0.0020 -0.1542
64774W        W 7686   1.942  29.957   1.047  0.1117 -0.1953 -0.3504
64775W        W 7687   1.217  32.759   2.519 -0.1456 -0.0212  0.1272
64776W        W 7688   3.001  32.061   1.716 -0.2096 -0.0297  0.1210
64777W        W 7689   0.503  32.207   5.914 -0.1020  0.2800  0.0200
64778W        W 7690   0.649  30.747   4.108  0.0272  0.1239 -0.1758
64779W        W 7691   2.114  30.408   3.772 -0.1822  0.1877 -0.1946
64780W        W 7692   4.502  29.847   5.019  0.1748  0.1722 -0.3925
64781W        W 7693   0.659  31.495   4.299  0.2572  0.2285 -0.1823
64782W        W 7694   2.329  33.530   5.212  0.0959  0.1090 -0.0143
64783W        W 7695   1.908  28.879   6.162  0.0966 -0.0079 -0.0469
64784W        W 7696   3.614  32.865   6.213 -0.2097 -0.0064 -0.0122
64785W        W 7697   2.018  32.307   5.581  0.0569 -0.0151 -0.2824
64786W        W 7698   2.182  31.280   2.523 -0.1926  0.1368 -0.1886
64787W        W 7699   0.154  31.155   5.787  0.3026 -0.0073  0.3404
64788W        W 7700  34.091  32.551   5.739 -0.0291 -0.1980 -0.0740
64789W        W 7701   1.921  29.546   4.854 -0.0896  0.1091  0.0701
64790W        W 7702   0.906  30.719   5.925 -0.3353  0.0459 -0.0317
64791W        W 7703   1.121  32.400   5.772  0.0947 -0.0274  0.1148
64792W        W 7704   0.187  30.332   5.703  0.1181 -0.0579 -0.1011
64793W        W 7705   0.745  30.467   4.908 -0.1125 -0.0609 -0.1666
64794W        W 7706   0.551  30.117   5.234  0.3407  0.0301  0.0688
64795W        W 7707   1.928  32.995   3.872 -0.0360 -0.0405 -0.0637
64796W        W 7708   1.483  31.117   5.414 -0.0508  0.2824  0.0194
64797W        W 7709   1.609  30.088   6.167 -0.2783  0.1303  0.1984
64798W        W 7710   1.836  31.716   4.232  0.2970 -0.0555 -0.1659
64799W        W 7711  34.530  29.647   3.728  0.1598 -0.1103 -0.0065
64800W        W 7712   0.448  30.760   4.682 -0.0713 -0.2062 -0.2545
64801W        W 7713   1.002  30.792   4.518  0.0259 -0.3596 -0.3984
64802W        W 7714   2.501  30.116   4.557  0.0187  0.0877 -0.2341
64803W        W 7715   3.472  29.904   5.224 -0.2522  0.2140 -0.2374
64804W        W 7716   1.708  34.001   4.469 -0.1768 -0.3923  0.5170
64805W        W 7717   2.980  32.794   5.723 -0.0606 -0.0219 -0.2000
64806W        W 7718   3.205  29.233   7.045 -0.0361  0.2263  0.2505
64807W        W 7719  34.617  31.297   4.264  0.3184 -0.0002 -0.0067
64808W        W 7720  34.007  31.335   3.786  0.1723  0.2328  0.0139
64809W        W 7721   1.811  33.408   4.284 -0.3146 -0.0895 -0.0455
64810W        W 7722   4.484  30.629   4.713  0.0549  0.0701 -0.0992
64811W        W 7723   2.314  32.777   7.077 -0.1721  0.1585 -0.0503
64812W        W 7724   1.230  33.746   7.055 -0.0001  0.2500 -0.4796
64813W        W 7725  34.647  32.036   2.577 -0.1975  0.3242 -0.2228
64814W        W 7726   1.970  33.816   6.533 -0.1732 -0.0006 -0.4876
64815W        W 7727   0.208  32.597   6.283  0.1580  0.0816 -0.1023
64816W        W 7728   0.783  31.632   5.395 -0.0841 -0.2721 -0.1715
64817W        W 7729   0.240  31.719   4.333  0.2108 -0.2954 -0.3160
64818W        W 7730   2.283  31.955   3.646 -0.2151  0.1086 -0.2031
64819W        W 7731   0.775  32.644   5.468  0.2313 -0.3024  0.0248
64820W        W 7732   1.583  32.540   6.835 -0.0531  0.1787 -0.1955
64821W        W 7733  34.490  31.856   4.530  0.0671 -0.0146  0.0823
64822W        W 7734   2.685  30.279   7.215  0.0322  0.0269  0.1052
64823W        W 7735   1.120  32.300   4.805  0.4204 -0.0015  0.1284
64824W        W 7736   1.503  32.046   4.546  0.2381 -0.0273  0.1417
64825W        W 7737   2.521  29.167   4.804 -0.1296 -0.1438  0.2435
64826W        W 7738   2.431  30.121   5.101  0.0138 -0.3321 -0.0121
64827W        W 7739   0.308  29.182   5.408 -0.0152  0.1214  0.0832
64828W        W 7740   1.965  33.285   6.383  0.1117 -0.2542  0.1990
64829W        W 7741   1.173  30.270   5.869 -0.3118  0.2776  0.0082
64830W        W 7742   3.436  31.968   6.801  0.0952  0.1785 -0.3670
64831W        W 7743   3.063  31.358   3.924 -0.0269  0.0326  0.1486
64832W        W 7744   2.204  31.124   5.802 -0.2529  0.1087 -0.2988
64833W        W 7745   0.503  32.941   4.916  0.0022 -0.0474 -0.1415
64834W        W 7746   1.848  30.741   3.983  0.0002  0.0321 -0.2592
64835W        W 7747   2.840  30.965   3.753 -0.0951 -0.3461  0.0742
64836W        W 7748   3.604  32.497   4.594 -0.3586  0.0318 -0.1258
64837W        W 7749   3.032  30.574   3.992  0.0152 -0.2832 -0.3456
64838W        W 7750   0.905  31.152   4.001  0.0177  0.1682 -0.0017
64839W        W 7751   0.045  31.613   7.110  0.0774 -0.1940  0.1263
64840W        W 7752   0.084  31.599   4.878 -0.0364 -0.0992 -0.0858
64841W        W 7753   2.405  29.946   2.660 -0.0563  0.4599  0.1558
64842W        W 7754   3.713  31.589   6.539 -0.2199  0.1694  0.0543
64843W        W 7755  34.379  31.701   5.402  0.1564  0.1816  0.0427
64844W        W 7756   3.961  28.637   6.690 -0.1943 -0.1374 -0.3355
64845W        W 7757   1.487  31.857   5.049  0.1743  0.2213  0.1880
64846W        W 7758   2.668  32.782   6.644 -0.1317  0.1532  0.1495
64847W        W 7759   3.174  30.983   2.546 -0.2764 -0.2423  0.2762
64848W        W 7760   2.964  29.525   6.153 -0.0686 -0.1094 -0.0453
64849W        W 7761   2.496  29.666   6.007  0.2732  0.0958 -0.1578
64850W        W 7762   1.653  31.275   3.343 -0.0549 -0.0982  0.1728
64851W        W 7763   1.174  30.395   4.189 -0.1664 -0.0568  0.3730
64852W        W 7764   3.034  31.746   6.066 -0.0817  0.3912 -0.1285
64853W        W 7765   3.897  31.545   4.526  0.1801 -0.2523  0.0209
64854W        W 7766  34.320  32.989   4.390 -0.1221 -0.1243 -0.0759
64855W        W 7767   1.895  32.247   6.440  0.1620  0.2033 -0.1551
64856W        W 7768   2.495  33.515   6.384  0.3819 -0.1293 -0.1017
64857W        W 7769   2.024  32.486   3.816  0.0790 -0.3181  0.1643
64858W        W 7770   0.213  32.043   4.739  0.2038 -0.1688 -0.2386
64859W        W 7771   0.418  31.717   3.871  0.4000 -0.0456 -0.0522
64860W        W 7772   0.996  29.828   5.837 -0.3876 -0.0145 -0.0430
64861W        W 7773   1.807  32.981   5.932  0.0814  0.3258  0.0428
64862W        W 7774   2.750  28.851   3.836 -0.1483  0.0537 -0.1832
64863W        W 7775  33.732  30.348   6.750 -0.1345 -0.3695 -0.1025
64864W        W 7776   3.451  29.368   5.257 -0.1536 -0.2707 -0.0755
64865W        W 7777   0.658  32.026   4.156 -0.0931 -0.1535 -0.1063
64866W        W 7778   3.621  31.813   4.222  0.0221  0.0473 -0.1549
64867W        W 7779   2.811  30.374   4.866 -0.1767  0.0541 -0.0991
64868W        W 7780   3.167  30.200   3.078 -0.1849  0.0998 -0.0247
64869W        W 7781  33.769  29.755   7.795 -0.1938  0.1442 -0.1612
64870W        W 7782   0.706  29.125   4.273  0.3032  0.1088 -0.1694
64871W        W 7783   0.304  29.478   6.702 -0.3819 -0.0198  0.1420
64872W        W 7784  34.591  30.756   5.471  0.1847  0.2134  0.1520
64873W        W 7785   1.995  31.231   6.451 -0.2984  0.0077  0.1665
64874W        W 7786   0.167  30.555   3.739  0.3117  0.1008 -0.1657
64875W        W 7787   1.620  29.409   5.276  0.1907 -0.1207  0.0304
64876W        W 7788  34.612  32.593   3.554  0.0413 -0.0512  0.0300
64877W        W 7789  34.472  32.064   5.026 -0.0076 -0.1581 -0.0953
64878W        W 7790   3.682  30.167   6.057  0.0728  0.2185 -0.1830
64879W        W 7791   1.121  32.851   5.068 -0.0909  0.1350  0.2255
64880W        W 7792   4.104  32.998   6.490  0.0057  0.2216  0.1300
64881W        W 7793   2.869  32.456   4.753 -0.0329 -0.0164  0.1057
64882W        W 7794  34.521  30.488   6.566  0.3229  0.2403 -0.0388
64883W        W 7795   1.082  29.517   3.868  0.1713  0.1111 -0.2163
64884W        W 7796   1.119  32.869   4.225  0.1642 -0.1957 -0.0357
64885W        W 7797   2.120  33.098   4.994 -0.0520  0.2228  0.2469
64886W        W 7798   0.887  30.609   5.407 -0.0579  0.0271 -0.0437
64887W        W 7799   4.304  33.295   4.718  0.0427  0.1230 -0.0796
64888W        W 7800   1.420  30.811   3.137  0.1841 -0.3301 -0.0562
64889W        W 7801   0.240  32.585   5.759  0.2775  0.2266  0.0125
64890W        W 7802   3.347  28.847   6.474 -0.0008  0.2826 -0.0727
64891W        W 7803   1.508  31.144   6.363 -0.1138  0.0922 -0.0786
64892W        W 7804   3.002  29.952   5.095  0.3498  0.1820 -0.1235
64893W        W 7805   0.240  29.587   4.026  0.1078  0.0145  0.1206
64894W        W 7806   2.436  32.676   4.814 -0.0505 -0.2756  0.2245
64895W        W 7807   0.190  32.769   3.898  0.0970  0.0577 -0.0524
64896W        W 7808  34.162  30.502   4.200  0.0150  0.0646 -0.1279
64897W        W 7809   1.873  33.592   3.837  0.2277 -0.1323  0.0063
64898W        W 7810   3.237  30.389   5.297  0.2756  0.1953 -0.1071
64899W        W 7811  34.260  31.414   7.278 -0.0082  0.2068  0.3382
64900W        W 7812   1.463  31.218   7.214 -0.1512 -0.0905  0.3587
64901W        W 7813  34.016  30.801   3.788  0.0562  0.0859  0.1386
64902W        W 7814  33.395  31.621   6.214 -0.2452  0.2325 -0.2361
64903W        W 7815   1.702  28.916   4.405  0.0855  0.4040 -0.1369
64904W        W 7816   3.886  30.618   4.058 -0.2459 -0.2021  0.3724
64905W        W 7817   1.910  33.216   7.987  0.1016  0.2253  0.1411
64906W        W 7818   3.400  31.690   3.694  0.2800 -0.3228  0.0086
64907W        W 7819   2.336  29.594   5.038 -0.0366  0.1339  0.2987
64908W        W 7820   2.888  28.967   2.857 -0.2640  0.0914  0.0032
64909W        W 7821  34.547  31.523   5.845 -0.2398 -0.2237  0.0041
64910W        W 7822   1.589  32.474   5.955 -0.1910  0.0042  0.1306
64911W        W 7823   1.486  32.024   5.560 -0.1245  0.0807  0.4683
64912W        W 7824   1.416  31.038   3.663 -0.0113  0.1254  0.1875
64913W        W 7825   5.034  31.242   4.024 -0.1816  0.0035 -0.1880
64914W        W 7826  34.492  32.766   4.999  0.2006  0.0441  0.4608
64915W        W 7827   1.750  32.714   6.371 -0.2508 -0.0143 -0.0702
64916W        W 7828   2.740  31.817   6.468  0.0328  0.2784  0.0299
64917W        W 7829   1.124  29.323   5.139  0.0828 -0.0444  0.0085
64918W        W 7830   2.762  31.023   2.285  0.0967  0.0762  0.0800
64919W        W 7831   2.916  29.002   5.192  0.1786 -0.0820  0.1400
64920W        W 7832   0.887  32.636   2.898 -0.0937  0.0528 -0.1355
64921W        W 7833   2.509  30.443   6.732  0.1054  0.2264 -0.0336
64922W        W 7834   2.750  30.548   5.441  0.1390 -0.1228 -0.1229
64923W        W 7835   1.037  30.929   6.347 -0.2705  0.2739 -0.2193
64924W        W 7836   3.418  32.386   6.496 -0.3047 -0.3085  0.1482
64925W        W 7837   3.607  30.429   3.665 -0.0708 -0.1593  0.0266
64926W        W 7838   1.679  30.515   4.963 -0.3340  0.0565  0.0263
64927W        W 7839   0.858  30.964   4.984  0.3896 -0.0825  0.0357
64928W        W 7840   1.767  30.579   6.550 -0.5559  0.1094 -0.1626
64929W        W 7841  34.594  31.284   5.326 -0.2305 -0.0116 -0.2777
64930W        W 7842  34.641  33.577   4.549 -0.0049  0.4484  0.0389
64931W        W 7843   1.860  32.166   7.356  0.0112 -0.1283 -0.0071
64932W        W 7844   2.332  33.121   6.683 -0.2164 -0.0766  0.2454
64933W        W 7845   1.796  31.052   6.842  0.2118  0.1998 -0.2677
64934W        W 7846   1.328  30.772   5.128 -0.0845 -0.1785 -0.0236
64935W        W 7847   2.488  34.127   5.270 -0.0496 -0.0765 -0.1017
64936W        W 7848   0.705  31.336   3.579  0.0710 -0.2634 -0.2209
64937W        W 7849   1.433  30.618   6.130 -0.1554 -0.1087  0.1988
64938W        W 7850   1.442  32.733   5.544  0.2631 -0.0553  0.0703
64939W        W 7851   1.564  31.483   4.590 -0.0728  0.1452  0.0047
64940W        W 7852   2.934  31.183   6.600 -0.0342  0.0382  0.2463
64941W        W 7853   1.406  33.257   5.499 -0.0830  0.1242 -0.1379
64942W        W 7854   4.474  27.824   6.763 -0.0626 -0.0335  0.0760
64943W        W 7855  33.873  32.288   3.945 -0.0029  0.0964  0.2776
64944W        W 7856   1.119  29.865   4.244  0.0534  0.1503  0.0040
64945W        W 7857  34.349  30.572   5.866  0.0519  0.1914 -0.1956
64946W        W 7858   3.326  30.288   6.421  0.1831  0.1500  0.0038
64947W        W 7859   2.938  32.077   5.253 -0.0829 -0.0593 -0.1435
64948W        W 7860   0.645  31.196   5.917 -0.0652  0.0620 -0.1063
64949W        W 7861   1.885  30.777   5.421  0.0891  0.2840  0.0935
64950W        W 7862  33.975  32.893   4.740  0.4099  0.2335 -0.0416
64951W        W 7863   2.328  30.647   5.756  0.3128 -0.2011  0.1783
64952W        W 7864   2.162  30.366   4.302 -0.0998 -0.0356  0.2653
64953W        W 7865   1.020  32.098   5.366  0.0200  0.0949  0.2221
64954W        W 7866   1.679  31.610   6.332  0.0374 -0.0526 -0.1318
64955W        W 7867  34.381  29.372   4.161  0.1774 -0.1011 -0.1561
64956W        W 7868   3.342  30.096   5.701  0.3014  0.0780  0.1266
64957W        W 7869   1.339  30.704   5.623  0.0213 -0.0679 -0.0884
64958W        W 7870  34.176  33.567   3.672 -0.0357 -0.0355 -0.0046
64959W        W 7871   0.545  33.023   5.803  0.0149  0.2177  0.0621
64960W        W 7872   1.250  30.031   3.813 -0.3065 -0.1304 -0.0216
64961W        W 7873  34.019  32.013   3.116  0.0444  0.1919  0.0817
64962W        W 7874   0.079  30.607   6.115 -0.0919 -0.0507 -0.0723
64963W        W 7875   2.861  32.354   5.786  0.1115  0.1582  0.2023
64964W        W 7876   1.531  31.994   6.042 -0.0025  0.1605 -0.0199
64965W        W 7877   1.074  30.105   5.368  0.0647 -0.0781 -0.1348
64966W        W 7878   2.263  31.353   5.202  0.1832  0.0236  0.2801
64967W        W 7879   2.329  31.667   5.699  0.0587  0.2121 -0.0366
64968W        W 7880   2.009  30.212   6.868 -0.2376  0.0693 -0.1312
64969W        W 7881   0.306  31.171   6.715 -0.0320 -0.1379  0.2636
64970W        W 7882   2.347  30.100   5.902 -0.0491  0.3334 -0.0881
64971W        W 7883   3.841  33.360   4.995 -0.0492  0.4560  0.0327
64972W        W 7884   2.632  31.461   6.034 -0.2513  0.0016 -0.1108
64973W        W 7885   2.029  31.640   3.362  0.0016  0.2131 -0.0445
64974W        W 7886  33.747  31.029   5.069 -0.1268 -0.0764 -0.1415
64975W        W 7887   1.369  33.887   4.888 -0.0871 -0.1474 -0.3868
64976W        W 7888   1.307  29.667   6.339 -0.0609  0.1002 -0.0974
64977W        W 7889  34.665  32.191   6.624  0.0987 -0.2021 -0.2791
64978W        W 7890   0.920  31.676   3.836  0.0504  0.1347 -0.0709
64979W        W 7891   0.173  32.229   4.289 -0.1853  0.2348  0.2124
64980W        W 7892   3.134  28.844   4.234 -0.3044 -0.0721 -0.0544
64981W        W 7893   2.622  31.169   4.294 -0.1772 -0.0618  0.0590
64982W        W 7894   1.537  31.011   4.713  0.2208  0.1031  0.0523
64983W        W 7895   4.046  31.297   6.357  0.1500 -0.1192 -0.2521
64984W        W 7896   3.417  30.958   3.873  0.1223  0.2015 -0.1511
64985W        W 7897   2.413  29.430   7.723 -0.0567  0.3333 -0.1091
64986W        W 7898   0.846  29.669   5.329  0.2023  0.0402 -0.0937
64987W        W 7899   3.040  31.151   6.064  0.0123  0.2404  0.0029
64988W        W 7900  34.402  28.755   5.878 -0.2336  0.2351 -0.0203
64989W        W 7901   3.297  32.798   6.730 -0.3578  0.1930  0.1727
64990W        W 7902  34.195  31.634   6.785 -0.0822 -0.1717  0.1140
64991W        W 7903   2.485  29.788   5.514  0.4597  0.0050 -0.0363
64992W        W 7904   0.061  29.722   3.160 -0.0167 -0.0444 -0.0856
64993W        W 7905   1.024  31.736   6.685  0.0761 -0.0369 -0.1004
64994W        W 7906   2.792  31.805   5.652 -0.0174 -0.3592 -0.2144
64995W        W 7907   2.360  32.170   4.783 -0.0645  0.0349  0.2529
64996W        W 7908   3.305  30.026   4.754 -0.0066  0.2843  0.0131
64997W        W 7909   0.933  31.877   5.844 -0.0192 -0.1795 -0.0123
64998W        W 7910   2.490  31.695   4.377 -0.1763  0.1477  0.2333
64999W        W 7911   3.342  32.445   5.402  0.2966 -0.2253 -0.2583
65000W        W 7912   1.102  32.515   3.815  0.1142 -0.0127 -0.2697
65001W        W 7913   0.265  29.223   7.173 -0.2290  0.1781 -0.3801
65002W        W 7914   2.115  30.369   5.423  0.0558 -0.1229 -0.1864
65003W        W 7915   2.455  31.714   4.956 -0.0251  0.0138  0.2625
65004W        W 7916   2.030  30.801   6.196  0.3703 -0.1220  0.0606
65005W        W 7917   1.188  31.637   6.223 -0.2933 -0.0098 -0.1168
65006W        W 7918   0.994  32.172   6.311 -0.0234  0.0596  0.1444
65007W        W 7919   1.706  28.839   7.191 -0.1048  0.0401  0.3376
65008W        W 7920   1.669   0.146   4.896  0.3868 -0.1342 -0.2151
65009W        W 7921   4.017  30.530   2.701 -0.2532  0.2233  0.0104
65010W        W 7922   3.903  30.832   6.389  0.0934 -0.0906 -0.0480
65011W        W 7923   4.877  29.116   4.235  0.1589  0.2965 -0.2754
65012W        W 7924   1.563  30.348   5.415  0.1810 -0.0255 -0.2548
65013W        W 7925  34.457  29.908   5.776  0.0194  0.1304  0.1392
65014W        W 7926   2.241  31.616   6.284  0.0034 -0.2960 -0.1973
65015W        W 7927   2.645  30.271   4.031  0.0953 -0.2551 -0.2346
65016W        W 7928   1.355  29.108   5.865 -0.1670 -0.1521  0.0595
65017W        W 7929   2.145  32.113   4.150 -0.0593 -0.0384  0.0958
65018W        W 7930   3.747  33.335   6.240  0.2146 -0.0966  0.0401
65019W        W 7931   2.678  29.654   4.684  0.2236 -0.0818 -0.0623
65020W        W 7932   0.087  31.022   4.922 -0.2276  0.0236  0.1500
65021W        W 7933   0.226  33.345   6.037  0.2435  0.0485 -0.3032
65022W        W 7934   0.725  30.088   4.370  0.2430 -0.0904  0.4393
65023W        W 7935   1.356  30.836   4.120 -0.1810  0.0901  0.0757
65024W        W 7936   2.004  31.937   5.950  0.3264  0.2083 -0.1975
65025W        W 7937   3.717  30.972   5.285  0.0411 -0.3666 -0.0005
65026W        W 7938   2.321  27.906   4.020  0.0140 -0.1451 -0.2148
65027W        W 7939   2.973  30.667   6.308 -0.2573 -0.1297 -0.1984
65028W        W 7940   0.793  32.614   3.401  0.1076 -0.4663 -0.3028
65029W        W 7941   0.097  28.949   6.158 -0.1123  0.2336 -0.1115
65030W        W 7942   0.669  32.405   5.019  0.0994  0.0312  0.0259
65031W        W 7943  34.334  31.931   6.359 -0.2662 -0.1537 -0.1365
65032W        W 7944   1.402  33.868   3.992 -0.0872 -0.0759  0.5045
65033W        W 7945   2.059  30.255   6.354 -0.0560 -0.1566 -0.0095
65034W        W 7946   2.301  29.152   5.859  0.0556 -0.2046 -0.0596
65035W        W 7947   0.990  31.089   5.480 -0.0091  0.2047 -0.0946
65036W        W 7948   3.114  30.533   5.804 -0.1754  0.2574 -0.4730
65037W        W 7949   0.721  33.402   6.077  0.0784 -0.1741 -0.3709
65038W        W 7950   0.542  31.877   5.041  0.3059  0.1368 -0.0344
65039W        W 7951   0.967  33.301   4.706  0.1326  0.1122  0.1312
65040W        W 7952   3.572  30.630   5.653  0.2239  0.6184  0.2477
65041W        W 7953   0.810  32.688   6.105 -0.0056  0.2058  0.0193
65042W        W 7954  33.361  30.235   7.089 -0.2854  0.2347 -0.2030
65043W        W 7955   1.461  31.956   6.555 -0.0159  0.1130 -0.2092
65044W        W 7956   3.190  31.681   5.159  0.1742  0.4468 -0.1741
65045W        W 7957   1.267  29.666   4.715  0.2035  0.0121  0.1010
65046W        W 7958   2.069  30.620   3.020  0.1218 -0.0476  0.3016
65047W        W 7959  34.288  32.534   8.130  0.0706 -0.1513  0.0382
65048W        W 7960  34.081  31.292   5.294  0.0880  0.0644 -0.1438
65049W        W 7961   0.373  32.818   2.978  0.0509  0.0742  0.3470
65050W        W 7962   2.274  32.329   3.387 -0.1192  0.0547 -0.1804
65051W        W 7963   1.479  32.351   5.155  0.3544  0.4031  0.1617
65052W        W 7964   2.604  34.138   5.821 -0.2146  0.3456  0.2456
65053W        W 7965   1.586  30.011   4.523  0.1977  0.3228 -0.1558
65054W        W 7966   0.881  32.800   4.646 -0.1618  0.1619 -0.1495
65055W        W 7967  33.490  32.303   4.304 -0.0905 -0.2161  0.1259
65056W        W 7968   2.587  33.025   5.204  0.2114 -0.2442 -0.1754
65057W        W 7969   1.448  33.177   3.917  0.0944  0.0707 -0.1757
65058W        W 7970   2.220  31.352   7.076 -0.0937  0.1273  0.0502
65059W        W 7971   2.626  30.587   4.411 -0.1909  0.0785  0.0472
65060W        W 7972   4.022  30.264   5.674 -0.1904  0.0385 -0.0947
65061W        W 7973   3.971  29.680   5.897 -0.0396 -0.0450  0.1289
65062W        W 7974   1.269  32.911   5.958 -0.0751 -0.0662  0.2536
65063W        W 7975   2.404  30.834   5.266 -0.1139 -0.0330  0.0822
65064W        W 7976   2.219  30.245   3.336 -0.2742 -0.0590 -0.0197
65065W        W 7977  33.826  31.282   6.020  0.1113 -0.0211 -0.1033
65066W        W 7978   3.040  29.848   6.634  0.0720  0.0001  0.5216
65067W        W 7979   0.969  33.068   6.482  0.0422  0.2141 -0.2117
65068W        W 7980   3.119  31.033   4.369 -0.0968 -0.3831  0.2039
65069W        W 7981  33.553  31.071   3.521 -0.2523 -0.3236  0.4553
65070W        W 7982   0.082  32.088   3.789 -0.0836 -0.0078 -0.1598
65071W        W 7983   2.416  28.704   6.067 -0.0181 -0.1640 -0.1110
65072W        W 7984   2.379  30.862   3.924 -0.1749 -0.2112 -0.3257
65073W        W 7985   1.736  31.384   5.066 -0.1861 -0.2113  0.3529
65074W        W 7986   1.915  32.408   4.581  0.3609  0.1518 -0.0255
65075W        W 7987  34.520  32.623   5.473  0.0339 -0.0135 -0.5397
65076W        W 7988   1.156  33.552   5.174  0.4301 -0.0663 -0.0232
65077W        W 7989  34.596  29.984   4.219 -0.1558  0.0210  0.0475
65078W        W 7990   4.445  28.799   4.938  0.0761 -0.4641 -0.1290
65079W        W 7991  33.746  30.816   5.969  0.1512  0.2159  0.1769
65080W        W 7992   2.925  30.070   6.109 -0.1331 -0.0915 -0.1587
65081W        W 7993   1.061  31.818   4.542 -0.2926  0.3606 -0.0769
65082W        W 7994   2.468  29.225   5.394 -0.0790  0.0922 -0.0045
65083W        W 7995   2.439  32.621   5.764  0.0727 -0.4258  0.0688
65084W        W 7996  34.181  30.937   6.336 -0.0646  0.1911 -0.0524
65085W        W 7997   1.731  30.511   4.476  0.1807 -0.2947 -0.0357
65086W        W 7998   3.419  30.730   6.652 -0.0914  0.1883  0.2889
65087W        W 7999   2.746  30.488   2.538  0.0276 -0.2557 -0.0125
65088W        W 8000   3.063  32.907   7.188 -0.1141 -0.0737  0.1776
65089W        W 8001  34.537  28.811   5.389  0.0994 -0.1375 -0.1332
65090W        W 8002   1.339  31.504   4.104 -0.3402 -0.2889  0.0380
65091W        W 8003   0.204  31.503   3.421 -0.2320  0.2084 -0.1038
65092W        W 8004   0.468  31.687   5.799 -0.3698  0.4353  0.2775
65093W        W 8005   2.744  32.516   7.131 -0.0478  0.2026  0.1393
65094W        W 8006   0.597  29.310   3.680 -0.3571 -0.0339 -0.1994
65095W        W 8007   3.734  30.955   2.590 -0.2462 -0.1689 -0.3537
65096W        W 8008   2.803  30.109   5.651  0.0995 -0.3202  0.0070
65097W        W 8009   1.076  32.414   4.330 -0.0812  0.1271  0.1819
65098W        W 8010   2.499  32.091   5.989 -0.1305 -0.0483 -0.2169
65099W        W 8011   2.821  32.560   5.292  0.1261 -0.2583 -0.0860
65100W        W 8012  34.267  29.769   7.065  0.0107  0.1912 -0.3066
65101W        W 8013   2.554  31.982   6.875  0.1740  0.1626 -0.0479
65102W        W 8014   3.451  30.682   4.974  0.2453  0.0215 -0.3256
65103W        W 8015   1.504  29.241   4.829  0.5399  0.1155  0.1387
65104W        W 8016   2.012  30.908   4.941 -0.2491 -0.1248  0.2054
65105W        W 8017  34.531  32.580   4.185  0.0191  0.0210 -0.3086
65106W        W 8018   3.684  29.413   6.236 -0.1587  0.1512  0.1455
65107W        W 8019   2.713  30.930   5.709  0.0010 -0.0948 -0.3686
65108W        W 8020   0.584  31.910   3.422 -0.0615  0.0341 -0.1799
65109W        W 8021   4.547  28.399   7.292 -0.0036  0.0515  0.0723
65110W        W 8022   2.311  32.954   6.179 -0.0518  0.2491  0.1945
65111W        W 8023  34.297  32.785   6.149  0.1436 -0.0803  0.0618
65112W        W 8024  34.510  31.143   3.736 -0.0610 -0.0032 -0.0561
65113W        W 8025   0.476  32.050   6.391  0.2440  0.0343  0.0279
65114W        W 8026   3.019  31.731   4.316  0.3384  0.2706  0.3957
65115W        W 8027   0.977  32.136   3.514 -0.1090 -0.1687  0.0330
65116W        W 8028   3.009  32.232   6.259  0.0099  0.1543 -0.0834
65117W        W 8029   1.835  31.492   5.815 -0.0584  0.0271 -0.1215
65118W        W 8030   3.183  31.485   5.618  0.2521  0.0510 -0.0725
65119W        W 8031   1.923  29.933   5.760  0.2033  0.0856  0.2070
65120W        W 8032   2.999  28.499   5.312  0.3685  0.1404 -0.1681
65121W        W 8033   2.485  28.791   5.132 -0.2796  0.1932 -0.1837
65122W        W 8034  34.668  33.015   5.802  0.0405  0.0294 -0.2667
65123W        W 8035   0.297  30.319   4.792 -0.0801 -0.2740 -0.0710
65124W        W 8036  34.253  31.682   3.408 -0.1886 -0.0079  0.1879
65125W        W 8037   1.711  32.798   5.125  0.1211  0.2656  0.1859
65126W        W 8038   0.799  30.427   6.657  0.1332 -0.2840 -0.0449
65127W        W 8039   0.658  30.410   6.232 -0.0763  0.0733 -0.2004
65128W        W 8040  34.543  30.488   4.510 -0.0422  0.0176  0.2790
65129W        W 8041   1.649  30.258   4.028  0.2623 -0.1092 -0.0643
65130W        W 8042   3.680  32.779   3.234 -0.3286 -0.0210 -0.0177
65131W        W 8043   0.030  30.070   5.174  0.3491 -0.1109 -0.1157
65132W        W 8044  34.277  28.413   6.305 -0.2346 -0.1230 -0.3779
65133W        W 8045   2.341  32.573   5.293  0.2028 -0.0143 -0.0304
65134W        W 8046   3.886  31.930   3.842 -0.2285  0.0143  0.0415
65135W        W 8047   1.777  29.103   5.625 -0.2105  0.0871 -0.0291
65136W        W 8048   3.992  33.286   7.427 -0.1334  0.2333 -0.3096
65137W        W 8049  34.300  32.500   2.646 -0.0243  0.3098  0.0129
65138W        W 8050   1.047  31.274   6.944  0.5284 -0.1605  0.1723
65139W        W 8051   1.711  31.652   7.189 -0.0656 -0.0521  0.1372
65140W        W 8052  34.560  31.505   2.531 -0.0590  0.2066 -0.0021
65141W        W 8053   1.697  30.967   5.901  0.1582 -0.3238  0.4040
65142W        W 8054   1.956  31.817   5.388 -0.0170  0.0194 -0.0443
65143W        W 8055   3.572  32.876   3.835  0.2160 -0.0670  0.2150
65144W        W 8056   2.554  33.138   5.685 -0.1159 -0.0683  0.0798
65145W        W 8057   1.178  34.396   5.960 -0.0069 -0.3465 -0.1368
65146W        W 8058   0.587  29.971   6.521 -0.3097  0.0580  0.1676
65147W        W 8059   2.151  31.374   4.630 -0.0735 -0.2470  0.0176
65148W        W 8060  34.589  32.849   6.611  0.0211 -0.2933 -0.2414
65149W        W 8061   3.330  32.078   4.836  0.0687 -0.2451 -0.1404
65150W        W 8062   3.206  30.897   5.412  0.0175 -0.0871 -0.1012
65151W        W 8063   2.900  30.873   5.003 -0.1264  0.4020 -0.0880
65152W        W 8064   0.889  30.014   8.190 -0.2874 -0.1230 -0.3235
65153W        W 8065   0.397  33.386   5.501 -0.0603 -0.2180  0.0886
65154W        W 8066   3.343  32.521   5.909 -0.4858 -0.0688 -0.1578
65155W        W 8067   1.462  29.859   5.593  0.0659 -0.1133  0.1611
65156W        W 8068   1.790  31.436   3.828 -0.0908 -0.1004 -0.1472
65157W        W 8069   1.858  32.923   4.553  0.1644 -0.0246  0.1267
65158W        W 8070  34.218  30.879   5.110  0.3050  0.3006  0.2849
65159W        W 8071   1.962  29.912   5.222 -0.1298  0.1569 -0.0275
65160W        W 8072   2.216  29.729   4.490  0.2215 -0.3244 -0.1889
65161W        W 8073   2.472  32.012   5.349 -0.1821  0.1443  0.2923
65162W        W 8074   2.563  30.994   6.245  0.0342  0.1565 -0.1265
65163W        W 8075   1.097  31.294   4.494  0.0077  0.1757  0.0456
65164W        W 8076   3.111  29.568   4.483 -0.3404 -0.1239  0.0486
65165W        W 8077   2.769  33.048   6.137  0.3290 -0.1434  0.0632
65166W        W 8078   2.700  33.163   8.668  0.0091 -0.0069 -0.0049
65167W        W 8079   1.717  34.304   5.829  0.0882  0.0652 -0.0116
65168W        W 8080   2.782  31.343   5.258  0.1391 -0.0261 -0.1571
65169W        W 8081   0.580  29.479   5.726  0.2124 -0.1212  0.1503
65170W        W 8082   1.585  31.648   3.046 -0.2491  0.1651 -0.0296
65171W        W 8083   0.482  31.167   5.276  0.2293 -0.1489 -0.2636
65172W        W 8084   1.259  31.541   5.640 -0.0034  0.3728 -0.0823
65173W        W 8085   0.316  29.824   5.522  0.3662 -0.0480  0.0935
65174W        W 8086   3.068  30.102   4.290 -0.1815 -0.2033 -0.3373
65175W        W 8087   1.586  33.851   6.237  0.1330  0.0970  0.1572
65176W        W 8088   2.092  32.925   5.547 -0.0546  0.0989 -0.0129
65177W        W 8089   1.451  31.393   9.663 -0.2801 -0.0179 -0.2289
65178W        W 8090   1.127  31.286   7.594  0.3867 -0.2412  0.0653
65179W        W 8091   2.198  29.573   7.267  0.1203 -0.2376  0.2037
65180W        W 8092   2.723  31.431   7.824 -0.0265 -0.1041 -0.1718
65181W        W 8093   0.633  29.733   8.558  0.0988 -0.3244 -0.3492
65182W        W 8094   3.115  33.237   8.178  0.2785 -0.0885 -0.1556
65183W        W 8095   2.842  32.196   8.680 -0.1117 -0.0209  0.2582
65184W        W 8096   2.612  29.114   9.665  0.1503  0.3241 -0.0422
65185W        W 8097   2.003  31.693   6.753  0.1552  0.1761  0.0466
65186W        W 8098  34.635  30.737   8.358  0.1043 -0.3752  0.2322
65187W        W 8099   1.951  29.336   7.626  0.3422  0.3922 -0.0644
65188W        W 8100  33.995  27.737   8.976 -0.2220 -0.2978 -0.0705
65189W        W 8101   2.438  30.827   9.104  0.0527 -0.0950 -0.2003
65190W        W 8102   0.585  30.688   7.172  0.3316  0.1244 -0.2987
65191W        W 8103   0.643  29.367   8.946  0.1917 -0.0964 -0.1469
65192W        W 8104   1.461  30.607   8.074  0.0548  0.0541  0.2028
65193W        W 8105   1.140  32.738   7.775 -0.1299 -0.0039  0.1201
65194W        W 8106   0.557  29.964   9.042 -0.0517 -0.2753  0.1868
65195W        W 8107   0.594  32.233   7.744 -0.2097 -0.2319 -0.1300
65196W        W 8108  34.266  31.409   6.356 -0.1086 -0.1421  0.3071
65197W        W 8109  34.524  31.808   8.408  0.2557 -0.1728 -0.2059
65198W        W 8110  33.936  29.377   9.152 -0.3587 -0.2523  0.0457
65199W        W 8111   2.040  29.951   8.863 -0.1395 -0.1082 -0.0383
65200W        W 8112   2.147  30.382   9.817 -0.0045 -0.2157 -0.2237
65201W        W 8113   0.557  31.819   9.898  0.1429 -0.0906 -0.0087
65202W        W 8114   1.872  32.853   9.533  0.0185  0.2287  0.0418
65203W        W 8115  33.956  32.440   7.834  0.2163 -0.0106  0.2328
65204W        W 8116  32.920  32.396   8.701 -0.3695  0.1495 -0.2370
65205W        W 8117   0.397  32.331   8.169  0.2823  0.2193 -0.2041
65206W        W 8118   2.708  32.172   7.677 -0.0576  0.2469  0.0060
65207W        W 8119   0.740  32.546   6.592 -0.3153  0.1180 -0.1366
65208W        W 8120   3.353  31.114   9.643  0.1238 -0.2055  0.0309
65209W        W 8121   0.530  30.483   7.690  0.1203  0.1762  0.3115
65210W        W 8122   1.924  32.977   6.892 -0.0276 -0.0097  0.2245
65211W        W 8123   2.667  31.436   9.096 -0.0830 -0.1327 -0.2076
65212W        W 8124  33.912  32.119   9.264 -0.0061 -0.1118 -0.1467
65213W        W 8125  34.594  32.574   7.067 -0.1244  0.2013 -0.2002
65214W        W 8126   2.223  30.524   7.169 -0.2577  0.1534 -0.0477
65215W        W 8127   0.733  30.916   6.799  0.1338  0.1719 -0.0084
65216W        W 8128   3.001  30.117   7.595  0.1268  0.2337  0.1379
65217W        W 8129   1.454  29.220   8.562  0.0539  0.1746 -0.0843
65218W        W 8130   2.031  31.780   8.771  0.1822 -0.0933  0.5247
65219W        W 8131   1.477  28.961   9.359  0.0781 -0.1503  0.2506
65220W        W 8132   1.068  30.864   7.203  0.4319 -0.0135  0.0491
65221W        W 8133   0.929  30.645   9.044 -0.1976  0.2214 -0.1029
65222W        W 8134  34.171  32.447   9.737  0.0728 -0.3193 -0.2178
65223W        W 8135   0.666  31.212   7.873 -0.0146  0.0241 -0.0123
65224W        W 8136   4.124  32.796   7.749 -0.1418  0.1042  0.2593
65225W        W 8137   2.801  31.942   9.687 -0.1725 -0.1931  0.0592
65226W        W 8138   1.963  33.173   7.473  0.0339  0.0854 -0.1223
65227W        W 8139   0.803  30.986   8.340 -0.1334 -0.0321 -0.0296
65228W        W 8140   1.370  28.998   6.817 -0.2664  0.2442  0.0625
65229W        W 8141   3.886  29.813   8.761  0.0736 -0.0121  0.2024
65230W        W 8142  33.592  31.309   8.542 -0.1495  0.2502 -0.0745
65231W        W 8143   2.584  32.023   8.174  0.1685 -0.1018  0.3631
65232W        W 8144   1.000  32.349   7.395  0.1263  0.1978 -0.0302
65233W        W 8145   2.092  29.893   9.392  0.2689  0.3560  0.1432
65234W        W 8146   2.608  30.196   9.925  0.1496  0.1039  0.1986
65235W        W 8147   0.783  31.343   6.516  0.0064  0.3147 -0.2049
65236W        W 8148   1.264  31.766   7.759 -0.3263 -0.0463  0.0491
65237W        W 8149   3.166  31.080   9.094  0.1142 -0.2022 -0.3635
65238W        W 8150   2.350  29.278   6.319 -0.0079 -0.2481  0.0005
65239W        W 8151   0.463  31.422   8.870  0.3119  0.1576  0.1015
65240W        W 8152   0.202  33.075   7.949 -0.0089  0.1551  0.1235
65241W        W 8153  33.638  31.153   9.104  0.1631 -0.2175  0.0140
65242W        W 8154  34.310  31.497   7.963 -0.0986 -0.1151  0.0505
65243W        W 8155  32.698  30.484   9.680  0.2399 -0.2533  0.0538
65244W        W 8156   1.338  31.317   8.562 -0.1760  0.1615  0.0189
65245W        W 8157   4.196  29.431   7.639  0.2138 -0.1810  0.1596
65246W        W 8158   2.254  29.527   8.949  0.0719  0.0508  0.0354
65247W        W 8159   0.538  32.889   8.264  0.1962  0.0258 -0.4690
65248W        W 8160   3.698  33.125   8.405 -0.1364 -0.2688  0.0631
65249W        W 8161   2.452  30.320   7.709 -0.2277  0.2335  0.1838
65250W        W 8162   2.182  32.638   6.557 -0.2535 -0.2275 -0.0980
65251W        W 8163  33.571  30.655   9.342 -0.4009  0.3467 -0.3090
65252W        W 8164   0.006  30.547   9.440  0.2330  0.1299  0.2323
65253W        W 8165   0.309  30.003   9.567  0.0408  0.0290  0.0076
65254W        W 8166   1.222  30.311   8.351  0.0313 -0.3555  0.0642
65255W        W 8167   2.027  30.765   8.340 -0.0936  0.1528 -0.4386
65256W        W 8168   1.459  30.806   7.550  0.1107  0.2730 -0.0651
65257W        W 8169  34.364  31.989   7.131 -0.2581  0.1432  0.1757
65258W        W 8170   3.404  33.210   7.403 -0.2993 -0.0513 -0.0814
65259W        W 8171   1.384  31.139   8.103 -0.2700  0.0805 -0.0242
65260W        W 8172   3.043  32.764   8.046 -0.0055 -0.2402 -0.1942
65261W        W 8173   3.545  28.933   8.550 -0.2079 -0.1253 -0.1050
65262W        W 8174   1.561  30.131   7.074  0.0924 -0.0098 -0.1027
65263W        W 8175   1.171  32.277   8.895 -0.4277 -0.2077  0.3136
65264W        W 8176   2.193  31.286   9.133 -0.2191 -0.0137  0.0152
65265W        W 8177   1.167  30.403   7.078 -0.2511  0.0535  0.0449
65266W        W 8178   3.542  33.706   7.657  0.3011 -0.1360 -0.3638
65267W        W 8179   1.006  31.639   7.246  0.0084 -0.0085  0.0244
65268W        W 8180   3.475  29.657   9.575 -0.2890 -0.0683  0.3098
65269W        W 8181   1.914  30.794   9.037  0.0175 -0.0704  0.2819
65270W        W 8182   0.837  29.982   7.717  0.1697  0.3105  0.1806
65271W        W 8183   1.640  32.536   7.742  0.2968 -0.0652 -0.1280
65272W        W 8184  34.222  32.295   6.769  0.1378 -0.1017 -0.0722
65273W        W 8185  34.090  30.939   7.328 -0.1307  0.3484 -0.0549
65274W        W 8186   2.213  32.166   9.042 -0.2541  0.2712  0.1670
65275W        W 8187   2.922  29.499   7.613 -0.0737  0.2038  0.4572
65276W        W 8188  33.694  30.999   6.426 -0.3089  0.2182 -0.0871
65277W        W 8189   2.688  30.127   8.403  0.1062 -0.1246 -0.1126
65278W        W 8190   3.323  29.658   7.836  0.2486 -0.0588 -0.1929
65279W        W 8191   3.149  32.169   9.316 -0.2373 -0.0370 -0.2750
65280W        W 8192   3.238  31.585   7.401 -0.1302  0.0464  0.1215
65281W        W 8193   1.893  29.322   6.421  0.1772 -0.1381 -0.0603
65282W        W 8194   2.653  31.729   8.750 -0.1433  0.0597 -0.0267
65283W        W 8195   1.064  32.195   7.861  0.0615  0.3361 -0.0950
65284W        W 8196   1.319  30.886   6.756 -0.2921 -0.3547 -0.4571
65285W        W 8197   5.250  32.224   7.190  0.1213  0.1485  0.2325
65286W        W 8198   0.535  30.797   8.709 -0.2491 -0.0030  0.0159
65287W        W 8199   2.699  31.987   9.173  0.5110  0.3301  0.0497
65288W        W 8200   0.934  28.236   9.563 -0.3532 -0.1261  0.2469
65289W        W 8201   0.369  31.372   6.248  0.2294 -0.2303  0.1934
65290W        W 8202   1.255  29.904   9.332 -0.3803 -0.1339 -0.3358
65291W        W 8203  34.330  32.446   7.446 -0.1914  0.1716 -0.0599
65292W        W 8204   3.992  29.534   9.876 -0.0774  0.2053 -0.2099
65293W        W 8205   2.165  28.687   8.802  0.1316  0.0976 -0.0796
65294W        W 8206   3.257  30.516   7.699  0.2652  0.3445  0.0843
65295W        W 8207   1.148  29.915   8.728  0.0616  0.0644 -0.0698
65296W        W 8208   0.787  30.235   7.309  0.1353  0.0071  0.0781
65297W        W 8209   1.428  29.662   9.854 -0.0076  0.1206 -0.3277
65298W        W 8210  33.477  31.115   9.568 -0.2080  0.1704 -0.0039
65299W        W 8211   1.591  32.170   8.083  0.1213 -0.1451 -0.1534
65300W        W 8212   1.234  29.654   8.334 -0.1388 -0.0517  0.4341
65301W        W 8213   1.065  32.730   8.694 -0.0476  0.2518  0.0225
65302W        W 8214   0.319  32.272   6.988 -0.1491 -0.0189  0.1791
65303W        W 8215   1.854  29.489   9.286 -0.0482  0.0950 -0.0364
65304W        W 8216   0.867  29.655   9.314  0.0547  0.2007  0.2612
65305W        W 8217   1.204  33.499   5.920 -0.0225 -0.1683 -0.0275
65306W        W 8218   3.033  31.852   8.377  0.0437 -0.1230  0.3619
65307W        W 8219   0.529  31.685   6.865  0.1389  0.3403 -0.3480
65308W        W 8220   0.936  30.548   9.819 -0.1516  0.4498  0.1867
65309W        W 8221  34.179  32.141   8.425  0.2076  0.0344  0.0863
65310W        W 8222   0.830  32.143   6.935  0.0650  0.0352  0.0487
65311W        W 8223  33.822  31.624   7.106  0.1792 -0.2298  0.0127
65312W        W 8224   3.011  29.586   9.690 -0.0552  0.2001  0.0370
65313W        W 8225   3.407  32.222   7.725  0.2731 -0.0457  0.1855
65314W        W 8226   1.212  31.420   9.245  0.1140  0.4251  0.4082
65315W        W 8227   1.756  29.179   8.937  0.0771  0.0417 -0.0116
65316W        W 8228  34.673  32.262   8.408 -0.0901 -0.0745 -0.2529
65317W        W 8229   2.614  29.854   7.475 -0.1385 -0.0809 -0.2572
65318W        W 8230   0.249  30.674   6.792 -0.2784 -0.2908 -0.1241
65319W        W 8231   0.411  30.502   9.756 -0.2794  0.1936  0.3163
65320W        W 8232   0.739  32.973   6.950 -0.1947 -0.2034  0.0888
65321W        W 8233  34.521  31.435   9.812 -0.0802 -0.1497  0.0513
65322W        W 8234   0.887  31.633   8.580 -0.1374  0.4003  0.0411
65323W        W 8235  34.136  31.802   8.906 -0.0467  0.4243 -0.0819
65324W        W 8236   2.112  29.065   9.216 -0.0206 -0.2234  0.0107
65325W        W 8237   1.708  30.112   9.687  0.2217 -0.0554  0.0181
65326W        W 8238   1.460  29.972   7.980  0.1458  0.0289 -0.2768
65327W        W 8239   1.257  30.813   8.578  0.2277  0.0098  0.0045
65328W        W 8240   1.315  32.526   8.313 -0.0876 -0.2693  0.0002
65329W        W 8241   0.736  32.283   8.627 -0.1694  0.0053 -0.2555
65330W        W 8242   1.158  28.906   8.934 -0.0694 -0.1083 -0.0639
65331W        W 8243   3.981  33.812   7.934  0.0935 -0.1680  0.3146
65332W        W 8244   0.452  31.864   7.408  0.1030  0.0053  0.0463
65333W        W 8245  34.120  30.053   7.967  0.0682  0.0137 -0.0303
65334W        W 8246   0.093  32.273   7.433 -0.1939 -0.0033  0.1093
65335W        W 8247   0.785  30.264   9.386 -0.0329  0.0650 -0.3088
65336W        W 8248   0.221  31.044   9.102 -0.2529 -0.2039  0.1961
65337W        W 8249   0.670  31.232   7.285 -0.5412  0.0439 -0.1079
65338W        W 8250   0.230  33.405   9.805 -0.0965  0.0256  0.0378
65339W        W 8251   2.913  28.453   7.328 -0.0779  0.2369 -0.0550
65340W        W 8252   1.323  32.023   7.170 -0.1895  0.0407 -0.0294
65341W        W 8253   1.150  30.375   7.729  0.2930 -0.1076  0.0034
65342W        W 8254   1.253  32.535   6.455 -0.0110 -0.1006 -0.1035
65343W        W 8255   0.084  28.716   9.728 -0.1145 -0.2349 -0.2574
65344W        W 8256   3.313  32.599   9.360  0.3084 -0.0441  0.1764
65345W        W 8257   1.729  30.621   7.012 -0.0304  0.0447  0.0686
65346W        W 8258  34.524  31.239   6.771 -0.0883 -0.1174  0.1019
65347W        W 8259  34.300  30.586   8.026  0.2093  0.1112 -0.1313
65348W        W 8260   2.168  31.503   8.387 -0.0059  0.2191  0.1036
65349W        W 8261   1.991  32.641   7.435  0.1750  0.1003 -0.3380
65350W        W 8262   2.749  29.640   8.527  0.2365  0.1946  0.3876
65351W        W 8263   0.174  29.928   8.480  0.1437  0.2936  0.1688
65352W        W 8264   1.576  31.668   8.171 -0.0621 -0.1122 -0.1423
65353W        W 8265   1.809  31.818   7.755 -0.1094  0.1230  0.0470
65354W        W 8266   1.429  31.744   8.753 -0.1357 -0.1305  0.2637
65355W        W 8267   1.968  31.477   9.730  0.2513 -0.0725  0.1522
65356W        W 8268   2.938  29.008   7.369 -0.2699 -0.0645 -0.1240
65357W        W 8269   2.623  30.639  10.225  0.1975 -0.0688 -0.0258
65358W        W 8270   1.787  29.355   7.097 -0.1422  0.4026 -0.1258
65359W        W 8271   1.878  28.171   9.557  0.2976 -0.2293 -0.2370
65360W        W 8272   3.384  31.161   8.433 -0.1215 -0.0581  0.1709
65361W        W 8273   2.411  30.928   7.251  0.2702 -0.1657 -0.1151
65362W        W 8274   1.311  29.411   9.433 -0.1367  0.0847 -0.2201
65363W        W 8275  34.514  30.796   7.038  0.0008  0.1905 -0.3462
65364W        W 8276   2.660  32.572   6.198  0.2632 -0.1165  0.3271
65365W        W 8277   1.444  32.579   7.298 -0.1592  0.2026 -0.0958
65366W        W 8278   2.413  31.051   8.074 -0.1050 -0.0665 -0.2005
65367W        W 8279  34.343  28.812   9.370 -0.0535 -0.2401 -0.1591
65368W        W 8280  33.773  29.912   7.091 -0.3031  0.1055  0.0416
65369W        W 8281   1.089  32.646   6.952 -0.2314  0.0390 -0.1110
65370W        W 8282   2.135  32.764   7.898 -0.0245  0.2093  0.3078
65371W        W 8283   1.666  30.346   7.499  0.1685  0.3726 -0.2842
65372W        W 8284   0.255  32.910   6.948  0.3252  0.3065 -0.0865
65373W        W 8285   1.704  28.913  10.286 -0.2521 -0.0592  0.0637
65374W        W 8286   0.686  31.271   9.247  0.0126 -0.1906 -0.0716
65375W        W 8287   1.242  32.010   9.970 -0.0640  0.1354 -0.0040
65376W        W 8288   1.481  28.761   8.479  0.0678 -0.1815 -0.1043
65377W        W 8289   2.207  30.330   9.198 -0.0069  0.7236 -0.5348
65378W        W 8290   1.722  31.364   8.926 -0.0431 -0.1872 -0.1560
65379W        W 8291   0.407  30.822   8.136 -0.1146 -0.3534  0.2508
65380W        W 8292   2.827  32.738   8.505  0.1298 -0.2408  0.2090
65381W        W 8293   2.194  31.796   9.344 -0.1234 -0.2594  0.1322
65382W        W 8294   3.000  32.226   6.836  0.0196 -0.0124 -0.0547
65383W        W 8295   0.371  28.588   7.628  0.0678  0.0714 -0.2944
65384W        W 8296   2.041  32.335   6.919 -0.0958  0.1518 -0.0501
65385W        W 8297  34.567  31.320   8.490  0.0736 -0.1180 -0.1851
65386W        W 8298   0.118  32.854   7.504  0.0511 -0.1805 -0.2444
65387W        W 8299   1.904  31.190   8.119  0.1375 -0.1821 -0.0648
65388W        W 8300   1.940  30.272   7.923 -0.0613 -0.0124  0.1465
65389W        W 8301   1.224  31.872   9.454  0.0615  0.3429  0.1598
65390W        W 8302   1.650  31.331   7.694  0.2199  0.3009 -0.1871
65391W        W 8303  34.484  32.222   8.888  0.0967 -0.3367  0.0994
65392W        W 8304  33.951  31.158   6.827 -0.1044  0.4014  0.0597
65393W        W 8305   2.523  32.789   7.539 -0.0763 -0.0773 -0.0080
65394W        W 8306   2.093  31.978   8.308  0.0017  0.1795  0.0416
65395W        W 8307   2.649  28.428   6.827  0.5202 -0.0498 -0.0020
65396W        W 8308   1.819  30.565   9.531  0.2132 -0.3622  0.0449
65397W        W 8309   3.320  29.340   8.303 -0.2925 -0.0379  0.0277
65398W        W 8310   0.889  31.170   8.797  0.3817  0.0951  0.1758
65399W        W 8311   1.212  28.640   7.911 -0.1085 -0.0361  0.3813
65400W        W 8312   2.748  31.806   7.351  0.0134 -0.1116 -0.1098
65401W        W 8313   0.393  30.957   7.575  0.2105 -0.1399 -0.2327
65402W        W 8314   0.244  31.103   8.555 -0.0755  0.1289  0.1106
65403W        W 8315   4.253  27.977  10.032  0.0544 -0.1441 -0.0786
65404W        W 8316   0.515  32.175   5.432 -0.2410 -0.2918  0.2360
65405W        W 8317   2.007  29.495   9.850 -0.0608 -0.1222  0.0290
65406W        W 8318   0.728  31.942   8.179  0.3417 -0.0071  0.1637
65407W        W 8319   1.681  30.942   9.905 -0.0463  0.0109 -0.2239
65408W        W 8320   1.544  32.336   9.613  0.0254 -0.2200 -0.0816
65409W        W 8321   0.324  30.068   7.473 -0.1298 -0.0479  0.0879
65410W        W 8322   2.882  30.372   7.983  0.0909 -0.1454 -0.3305
65411W        W 8323  33.487  30.176   9.156 -0.1167 -0.2507 -0.0125
65412W        W 8324   1.287  30.387   8.839  0.1509  0.1161 -0.3079
65413W        W 8325   2.269  31.744   7.940  0.0996 -0.0532  0.3801
65414W        W 8326   2.239  30.497   8.678 -0.1791  0.2752  0.0320
65415W        W 8327  33.880  30.429   8.201 -0.1808  0.1790  0.0952
65416W        W 8328   2.792  31.486   7.003  0.0546 -0.2006 -0.0348
65417W        W 8329   2.371  32.201   6.448 -0.0039  0.0488 -0.0884
65418W        W 8330   0.213  29.103   8.832 -0.0333  0.3569 -0.0700
65419W        W 8331   1.737  29.738   7.389  0.0922  0.0521 -0.1335
65420W        W 8332   0.559  31.402   8.358 -0.0346  0.1588 -0.1425
65421W        W 8333  33.526  29.691   9.120 -0.1906  0.2932 -0.0202
65422W        W 8334   0.947  29.287   8.515  0.3710  0.3592 -0.1604
65423W        W 8335   3.471  31.502   6.950 -0.3099 -0.1291  0.0751
65424W        W 8336   3.050  30.058   9.491 -0.2463 -0.2312  0.1790
65425W        W 8337   0.470  33.035   6.369  0.3388 -0.1043  0.0372
65426W        W 8338   3.665  31.866   7.517 -0.0372  0.1756  0.3440
65427W        W 8339   1.347  32.842   9.662  0.1084 -0.1622 -0.0680
65428W        W 8340  34.632  30.215   9.904  0.0223 -0.0448  0.0456
65429W        W 8341   0.107  31.826   9.731  0.4309 -0.5027  0.2918
65430W        W 8342   3.067  30.658   9.871 -0.0386 -0.1212 -0.2629
65431W        W 8343   2.353  29.469   9.428 -0.0580 -0.4471  0.2699
65432W        W 8344   1.735  31.010   8.621 -0.0233 -0.0798  0.0714
65433W        W 8345   1.244  33.429   7.443 -0.0563  0.1068 -0.2247
65434W        W 8346   4.349  28.680   9.990 -0.1757  0.2098  0.0772
65435W        W 8347   1.752  33.595   5.791 -0.0349 -0.2333 -0.2441
65436W        W 8348   1.424  30.886   9.088  0.0354 -0.0981 -0.0728
65437W        W 8349   0.320  31.479   7.617 -0.0242 -0.1592  0.3123
65438W        W 8350   1.058  31.502   8.113 -0.3166 -0.0832  0.0808
65439W        W 8351   1.548  33.106   7.173 -0.1156 -0.1587  0.0743
65440W        W 8352   3.589  32.843   8.037  0.0040  0.0458 -0.1447
65441W        W 8353   1.678  30.193   9.185 -0.1240  0.1424  0.1691
65442W        W 8354   2.712  30.697   8.719 -0.1321 -0.2442 -0.0225
65443W        W 8355   0.445  30.462   9.153  0.0896  0.2268 -0.0903
65444W        W 8356   3.640  28.877   7.964  0.0397 -0.0369  0.1104
65445W        W 8357   3.464  29.341   7.517 -0.1052 -0.1378  0.0684
65446W        W 8358  34.662  30.723   9.910  0.1017  0.1410 -0.2792
65447W        W 8359  33.029  31.362   7.292  0.0892 -0.1099  0.1168
65448W        W 8360   0.120  31.148   7.195 -0.2692  0.2593 -0.1914
65449W        W 8361  34.605  31.676   8.871  0.2945  0.1626 -0.0175
65450W        W 8362  32.749  30.274   9.187 -0.0315 -0.2561 -0.3409
65451W        W 8363   1.161  29.837   7.265  0.3366 -0.1541  0.0108
65452W        W 8364   3.599  32.799   7.503 -0.1591  0.0044 -0.1296
65453W        W 8365   0.260  28.456   8.093  0.0905  0.3726  0.2220
65454W        W 8366  34.105  30.284   9.165 -0.2185 -0.1203 -0.2950
65455W        W 8367   2.379  32.267   7.308  0.1401  0.1113  0.0689
65456W        W 8368   3.411  31.908   8.089  0.2653  0.1653 -0.0668
65457W        W 8369   0.657  28.724   8.030 -0.0367  0.4768  0.0897
65458W        W 8370   0.735  31.671   7.747 -0.3404 -0.1394 -0.1631
65459W        W 8371  34.599  30.218   6.992 -0.1417  0.2770 -0.1312
65460W        W 8372   1.228  30.962   9.530  0.0865  0.1501  0.0504
65461W        W 8373   1.038  33.016   7.352 -0.2218  0.1127  0.0135
65462W        W 8374   3.547  31.949   6.246 -0.0431 -0.1663 -0.1777
65463W        W 8375   0.284  29.603   9.902 -0.0596  0.2058 -0.0234
65464W        W 8376   3.133  29.785   7.125  0.2204 -0.0511  0.0040
65465W        W 8377   3.269  31.089   7.214  0.1731  0.0790  0.0993
65466W        W 8378   2.067  30.057   8.341 -0.3019  0.1228  0.0664
65467W        W 8379   1.919  30.780   7.810  0.1253 -0.0398  0.0583
65468W        W 8380   3.200  30.639   9.432  0.0869 -0.2408 -0.1502
65469W        W 8381   1.232  28.326   8.425 -0.1759  0.2563 -0.0740
65470W        W 8382   2.595  28.906   7.025 -0.0886 -0.1559 -0.3258
65471W        W 8383   1.446  33.004   6.681 -0.0122 -0.0214 -0.2437
65472W        W 8384  33.662  30.708   8.814  0.1810 -0.1398  0.2139
65473W        W 8385   1.449  31.495   6.755  0.0980 -0.1053 -0.1085
65474W        W 8386   2.384  32.375   8.499 -0.0555  0.2481  0.0714
65475W        W 8387   0.968  30.878   7.769  0.0399 -0.2696  0.2784
65476W        W 8388   2.215  31.727   7.414 -0.3172  0.1076 -0.0217
65477W        W 8389   2.491  31.360   9.594  0.1124 -0.2363 -0.2544
65478W        W 8390   1.862  31.983   9.657 -0.0862 -0.3724 -0.1765
65479W        W 8391   1.733  31.147   9.364 -0.0477 -0.1304  0.1155
65480W        W 8392  34.646  29.650   9.503 -0.1119  0.0498  0.1210
65481W        W 8393   1.733  30.433   8.620  0.2515  0.1867  0.2521
65482W        W 8394   0.316  31.808   8.485  0.1146 -0.0284 -0.2094
65483W        W 8395   2.574  29.961   9.445  0.1867  0.0228 -0.3527
65484W        W 8396   1.227  29.138   8.114  0.2447  0.1654  0.0075
65485W        W 8397   0.966  29.254   7.082  0.0069 -0.2032 -0.0743
65486W        W 8398   0.007  32.345   9.866  0.2819  0.0586 -0.1414
65487W        W 8399   0.731  30.807   9.456 -0.0103 -0.2782  0.0976
65488W        W 8400   0.755  33.628   1.413  0.0253 -0.1867  0.1624
65489W        W 8401   5.053  31.792  30.788 -0.1110 -0.3293 -0.3197
65490W        W 8402   3.290  33.883   0.341  0.2734 -0.4117 -0.0409
65491W        W 8403   1.884  34.007   2.003 -0.1215  0.1094  0.1626
65492W        W 8404   1.922  32.501   3.007 -0.0473  0.0148 -0.0059
65493W        W 8405   2.982   1.201  31.871 -0.0474  0.0497 -0.0152
65494W        W 8406   2.418  34.216   2.745 -0.0937  0.2074  0.2399
65495W        W 8407   2.777  32.851   1.330 -0.0931  0.0806  0.0226
65496W        W 8408   0.913  32.355   1.249  0.2409  0.0801 -0.2418
65497W        W 8409   3.454  33.345   2.567  0.0328  0.0509 -0.1274
65498W        W 8410   1.474  33.675   0.537 -0.0305 -0.0557  0.1544
65499W        W 8411   1.691  34.437   1.675  0.2050 -0.0471  0.1053
65500W        W 8412   1.867  32.748   1.365 -0.2414  0.0508 -0.3414
65501W        W 8413   2.514  33.819   2.396  0.0103  0.0282  0.0968
65502W        W 8414   3.023  32.611   3.849  0.2418 -0.1990  0.2810
65503W        W 8415   1.926  33.767   0.700 -0.1088 -0.0427 -0.1614
65504W        W 8416   0.370  33.968   1.286  0.2952  0.1704  0.2891
65505W        W 8417   1.132   0.001   2.290  0.2987  0.0474  0.2624
65506W        W 8418   4.014  33.836   2.825  0.1190 -0.0939 -0.1398
65507W        W 8419   4.379  33.643   2.338 -0.1217  0.0841  0.0578
65508W        W 8420   4.226  33.879   3.413  0.0274  0.0755 -0.1010
65509W        W 8421   2.942   0.361   2.789 -0.0000  0.2092  0.0781
65510W        W 8422   2.242   1.127   1.540 -0.3781 -0.0015 -0.2236
65511W        W 8423   3.957  33.333   4.075  0.2210 -0.1636  0.1803
65512W        W 8424   4.451  33.549  31.766  0.0823 -0.0383  0.1760
65513W        W 8425   3.854  33.447   1.455 -0.1473 -0.1639 -0.0054
65514W        W 8426   3.926  34.031   1.673  0.3787  0.0265  0.3461
65515W        W 8427   1.354  32.028   1.453 -0.3980 -0.0893 -0.1904
65516W        W 8428   2.428   0.079   2.250  0.5327 -0.0090 -0.2975
65517W        W 8429   2.556   0.405   1.891  0.0001 -0.3664 -0.0399
65518W        W 8430   2.271   0.281   1.413  0.1274  0.2004  0.1450
65519W        W 8431   1.029  33.925   1.096 -0.1037  0.0428  0.4240
65520W        W 8432   2.044  34.518   1.241 -0.2508  0.0111 -0.0411
65521W        W 8433   0.997   1.408   3.666  0.2322  0.3959  0.0367
65522W        W 8434   0.852   0.871   3.872 -0.0256  0.3200 -0.0879
65523W        W 8435   2.497  33.314  30.927  0.2644 -0.0135 -0.2410
65524W        W 8436   5.546  34.281   1.742 -0.1312  0.0018  0.2472
65525W        W 8437   2.463  33.490   1.552 -0.2188 -0.1295 -0.1716
65526W        W 8438   3.540  33.681   1.793  0.1783  0.4375 -0.1247
65527W        W 8439   3.333  34.495  31.061  0.2491 -0.2534  0.1843
65528W        W 8440   2.045  33.343   3.157  0.0683 -0.1917 -0.1561
65529W        W 8441  34.697  32.899   2.383  0.0443 -0.3087 -0.0401
65530W        W 8442   4.332  32.678   2.188  0.2181  0.2810  0.0637
65531W        W 8443   0.897  33.104   2.733 -0.5211 -0.0887 -0.2028
65532W        W 8444   3.984  33.564   0.792 -0.0046 -0.1391  0.2181
65533W        W 8445   3.495   1.572   0.873 -0.0548  0.2252  0.2144
65534W        W 8446   1.361  33.904   1.876 -0.0795  0.1998 -0.0769
65535W        W 8447   1.566  34.546   1.159  0.3430 -0.2641  0.2324
65536W        W 8448   1.228  31.938   3.098 -0.1512  0.0323 -0.2066
65537W        W 8449  33.999  33.308   3.255 -0.1374 -0.1519 -0.0998
65538W        W 8450   5.064  33.386   3.549 -0.2625  0.2329  0.1343
65539W        W 8451   0.590  33.626   0.284  0.0551 -0.1721  0.0303
65540W        W 8452   2.544  33.979   1.388 -0.3234 -0.5040 -0.4733
65541W        W 8453   1.970  34.535   2.087  0.1808 -0.1015 -0.0769
65542W        W 8454   2.816  32.396   3.069 -0.2091  0.2080  0.4500
65543W        W 8455   2.623  33.024   3.104 -0.0312 -0.1352 -0.1407
65544W        W 8456   0.808  33.277   0.587  0.1692  0.2951  0.1176
65545W        W 8457   1.851   0.373   1.176  0.0604  0.0989  0.0939
65546W        W 8458   3.700  32.005   3.402 -0.0686 -0.1017 -0.1899
65547W        W 8459   3.571  34.079   2.091  0.1312  0.2717  0.1554
65548W        W 8460   0.413  33.123   0.228  0.2070  0.2223 -0.0978
65549W        W 8461   0.020  33.794   1.006  0.2181  0.4385  0.1775
65550W        W 8462   4.291  34.014   1.362  0.1453 -0.3409  0.0893
65551W        W 8463   0.450   1.334   2.794  0.0144 -0.1559 -0.2328
65552W        W 8464   3.515  33.771   2.871  0.1273  0.0041  0.0689
65553W        W 8465   0.988  33.754   0.557  0.0375  0.3681 -0.1898
65554W        W 8466   3.130  34.310   0.617 -0.1396  0.2326 -0.1580
65555W        W 8467   3.066  34.139   1.098 -0.0651 -0.0604 -0.0871
65556W        W 8468   5.067   0.071   0.053 -0.1053 -0.1379 -0.1921
65557W        W 8469   3.977  33.341  31.897 -0.0161 -0.0310  0.0304
65558W        W 8470   2.580  34.685   2.729 -0.1278 -0.0970  0.1255
65559W        W 8471   2.592  32.245   4.376 -0.2001  0.1483 -0.0092
65560W        W 8472   2.511  32.751  31.973  0.1325  0.0156 -0.0426
65561W        W 8473   2.334  32.117   1.088 -0.1133  0.0347  0.2307
65562W        W 8474   3.488  32.683   1.828 -0.1372 -0.1533  0.2983
65563W        W 8475   1.820   0.544   2.798  0.1310  0.2563  0.3327
65564W        W 8476   2.945  32.925   1.959 -0.1879  0.0225 -0.0889
65565W        W 8477   4.548  34.154   3.709  0.2275 -0.2730 -0.1448
65566W        W 8478   2.370   0.014   0.939  0.1669 -0.0400  0.2528
65567W        W 8479   2.342  33.818   1.894 -0.0462 -0.3995 -0.0281
65568W        W 8480   1.176  34.600   1.563 -0.1584 -0.0342  0.0666
65569W        W 8481   2.269  32.905   2.351 -0.0274  0.2123 -0.1793
65570W        W 8482   2.508  33.520   3.025  0.3219  0.2563 -0.1136
65571W        W 8483   2.304  32.530   1.416  0.2070 -0.3146  0.0048
65572W        W 8484   2.184  32.897   3.419  0.0283  0.0706  0.2449
65573W        W 8485   3.180  32.903   2.857 -0.0319  0.0852  0.0539
65574W        W 8486   2.589  34.530   0.481 -0.1118  0.2473  0.0876
65575W        W 8487   1.158   0.116   0.523  0.4422  0.2756  0.3445
65576W        W 8488   3.737  33.922   1.201  0.2759  0.2743 -0.0560
65577W        W 8489   1.722  33.787   2.409  0.3276  0.0566  0.0292
65578W        W 8490   2.221  31.725   1.809  0.1131  0.2275 -0.0622
65579W        W 8491   3.930   0.141   3.722  0.0576  0.1374 -0.0649
65580W        W 8492   4.740  33.788   1.378 -0.2000  0.0885 -0.3467
65581W        W 8493   1.808   0.023   2.513 -0.0011 -0.1926  0.1353
65582W        W 8494  34.117  33.303  31.188  0.0120  0.2708  0.1490
65583W        W 8495   4.280  31.938   2.685  0.2184  0.1871  0.3150
65584W        W 8496   1.499  32.870   0.945 -0.0345 -0.0814  0.0899
65585W        W 8497   2.444  34.643   1.791 -0.0418  0.1087 -0.2535
65586W        W 8498   1.637  33.251   3.452 -0.1034 -0.1294  0.0258
65587W        W 8499   2.090  33.509   1.127  0.3486  0.0828 -0.0476
65588W        W 8500   1.918  33.310   1.861  0.1043 -0.1134  0.1862
65589W        W 8501   1.969   0.126   3.358  0.1899 -0.1642 -0.2513
65590W        W 8502   2.376  31.789   2.498  0.1076 -0.0201 -0.2239
65591W        W 8503   2.480  33.838   4.845 -0.1712 -0.0635 -0.1341
65592W        W 8504   3.327  34.101   1.575  0.1730 -0.0084  0.1149
65593W        W 8505   3.959  33.143   1.026 -0.3335  0.1652  0.1123
65594W        W 8506   1.495  33.601   1.029  0.2804 -0.1848 -0.1019
65595W        W 8507   3.559  32.420   4.112  0.1097 -0.1552 -0.0353
65596W        W 8508   2.536   0.321   0.510 -0.2067  0.2528 -0.2477
65597W        W 8509   4.420  33.524   4.164  0.0306 -0.1200 -0.1245
65598W        W 8510   3.480  32.169   1.531 -0.2919 -0.0379 -0.0585
65599W        W 8511   2.003  34.421   3.016  0.1873  0.2671 -0.1778
65600W        W 8512   2.151  34.666   5.154  0.0795  0.0883 -0.1337
65601W        W 8513   2.156  33.143   1.439  0.0384 -0.0486 -0.0381
65602W        W 8514   0.589  32.049   0.847 -0.2002  0.0655 -0.1426
65603W        W 8515   1.159   1.425   2.380 -0.2596  0.1425 -0.2498
65604W        W 8516   3.892   0.014   0.820  0.2239 -0.0960  0.1467
65605W        W 8517   0.697  34.597   1.820 -0.0223 -0.2537  0.0790
65606W        W 8518   3.009   0.537   1.837  0.2732 -0.0409 -0.2178
65607W        W 8519   2.098  32.914   2.795 -0.2113  0.0514 -0.1652
65608W        W 8520   3.461  34.234   3.025 -0.1414  0.2403 -0.1282
65609W        W 8521   4.390  33.098   1.804 -0.1001 -0.0228 -0.0482
65610W        W 8522   2.705  33.631   4.184 -0.0449  0.0806 -0.0618
65611W        W 8523   2.370  33.371   3.613  0.3147  0.1038 -0.1832
65612W        W 8524   0.366  34.222   2.438 -0.0813 -0.2703 -0.0973
65613W        W 8525   5.324   0.652   0.039  0.0659 -0.0198 -0.1911
65614W        W 8526   5.150  32.474   1.697  0.1195 -0.2046  0.0136
65615W        W 8527   4.132  34.499   1.543 -0.0062 -0.0582 -0.2178
65616W        W 8528   2.725  32.516   1.660 -0.1795  0.1799 -0.2652
65617W        W 8529   1.540  34.232   2.910 -0.3164  0.0644  0.0660
65618W        W 8530   3.630   0.288   4.902  0.2556  0.1442 -0.0370
65619W        W 8531   1.046  32.655  31.848  0.3213 -0.3253  0.0697
65620W        W 8532   3.047  33.839   3.046  0.0642  0.2662 -0.1157
65621W        W 8533   2.682  34.516   1.359 -0.1463  0.0835 -0.0563
65622W        W 8534   0.995  33.199   1.541  0.1623 -0.2117 -0.1591
65623W        W 8535   1.289  32.332   0.751  0.3151  0.1980 -0.0691
65624W        W 8536   1.255  33.856  31.161 -0.0094  0.1143 -0.1852
65625W        W 8537   2.808  32.139   0.708  0.0368 -0.1486 -0.3033
65626W        W 8538   4.188  32.914   4.283  0.0100  0.0529  0.1059
65627W        W 8539   3.808  33.237   1.985 -0.0605  0.0326  0.0412
65628W        W 8540   2.110  32.371   2.493  0.1367 -0.0681  0.2591
65629W        W 8541   3.282  34.061   2.540  0.0132  0.1302 -0.1983
65630W        W 8542   1.392   0.333   1.322 -0.0752 -0.4084 -0.2595
65631W        W 8543   5.047  33.143   3.009  0.0883 -0.1102 -0.0037
65632W        W 8544   1.061   0.366   1.799 -0.2142  0.3620  0.1785
65633W        W 8545   0.588   0.872   3.373  0.1764  0.0528  0.2550
65634W        W 8546   1.235  32.588   0.335  0.0185  0.0867  0.4101
65635W        W 8547   2.223  34.198   0.253  0.3508 -0.1422  0.0528
65636W        W 8548   3.347  32.080  30.880  0.1007  0.2443 -0.0305
65637W        W 8549   2.186  34.245   1.658  0.2223 -0.1360 -0.1564
65638W        W 8550   3.621   0.215  31.329  0.1635 -0.3931  0.1738
65639W        W 8551   3.089  33.970   2.094  0.0636  0.2001 -0.0378
65640W        W 8552   2.895  33.277   1.520  0.0975  0.2445 -0.0081
65641W        W 8553   1.082   0.007   3.227 -0.1447  0.1137 -0.1010
65642W        W 8554   4.081  32.324   3.529 -0.0156  0.0886 -0.3112
65643W        W 8555  33.925  34.028   0.503 -0.0340  0.0449 -0.3060
65644W        W 8556   2.382  34.256   2.191  0.2548 -0.2674  0.3009
65645W        W 8557   2.607  32.254   2.548  0.3193 -0.1402  0.0676
65646W        W 8558   1.261  32.789   1.450  0.3226  0.3766  0.0292
65647W        W 8559  33.445  33.874   0.397  0.0045  0.1106 -0.3460
65648W        W 8560   4.299  34.566   0.633  0.2006 -0.0094 -0.1503
65649W        W 8561   1.917  34.201   2.536 -0.0521 -0.1830  0.0705
65650W        W 8562   3.632  32.671   2.727  0.1528  0.1263 -0.1710
65651W        W 8563   0.523   0.426   2.115 -0.3910  0.2078 -0.0816
65652W        W 8564   4.875   0.249   1.430 -0.1919 -0.0467  0.0654
65653W        W 8565   0.709  34.429   3.452 -0.0630  0.1451 -0.1405
65654W        W 8566   2.535  34.245   0.919  0.1001 -0.0154  0.0216
65655W        W 8567   3.847  33.741   3.810 -0.1796 -0.1457 -0.2390
65656W        W 8568   3.765  33.692   0.347  0.0107  0.0262 -0.1377
65657W        W 8569   0.845  31.764   2.780  0.0529  0.1322 -0.1258
65658W        W 8570   3.654  34.209   0.469  0.0137  0.0466 -0.1189
65659W        W 8571   1.292   1.113   2.061 -0.1034  0.0187  0.0505
65660W        W 8572   1.963  33.708   1.588 -0.1442  0.2682  0.1775
65661W        W 8573   1.074  32.427   1.689 -0.1326  0.0931  0.2475
65662W        W 8574   3.935  34.363   3.145 -0.1745 -0.0713  0.2057
65663W        W 8575   3.718   0.074   1.306 -0.0911  0.3169 -0.0190
65664W        W 8576   0.383  33.324   2.322 -0.1855  0.0506 -0.0838
65665W        W 8577   2.149  33.436   2.310 -0.0575 -0.2345  0.1916
65666W        W 8578   1.478   0.173   1.993 -0.0893 -0.0403 -0.0126
65667W        W 8579   2.860  34.311   2.947  0.1142 -0.2679  0.1007
65668W        W 8580   5.014  33.244   1.552  0.0906 -0.1168  0.1237
65669W        W 8581   4.083  30.916   3.054  0.1980 -0.0220 -0.0406
65670W        W 8582   4.685  33.564   1.861 -0.0627 -0.3346 -0.1999
65671W        W 8583   1.749  33.175   2.384  0.0898 -0.0997  0.0112
65672W        W 8584   5.135  33.771   1.633 -0.4208 -0.0272 -0.0880
65673W        W 8585   4.471  34.043   1.814  0.2392 -0.3025  0.4293
65674W        W 8586   0.644  34.612   2.315  0.1778 -0.2128  0.0840
65675W        W 8587   0.219  34.174  31.970 -0.0857 -0.2156 -0.1836
65676W        W 8588   1.400  34.396   4.666  0.0491 -0.3017 -0.1651
65677W        W 8589   1.693  32.107   2.780  0.1101 -0.0948  0.1027
65678W        W 8590   0.878   0.822   1.866  0.2996 -0.2477 -0.2518
65679W        W 8591   1.194  33.778   2.360 -0.0063 -0.0612  0.2282
65680W        W 8592   0.768  33.357   3.639 -0.2600  0.2180  0.3001
65681W        W 8593  34.563  33.067   1.460 -0.1839  0.5833 -0.0399
65682W        W 8594   1.652  33.315   1.382 -0.0851 -0.2233 -0.2407
65683W        W 8595   3.049  34.090   3.456  0.0644 -0.3397  0.0001
65684W        W 8596   1.999   0.498   4.122  0.5069  0.2985  0.1206
65685W        W 8597   0.890  32.732   0.692 -0.2275 -0.3857  0.0668
65686W        W 8598   2.688  34.222   1.820 -0.0915  0.5786 -0.1368
65687W        W 8599  34.505  33.047   3.823  0.2407  0.2592  0.0760
65688W        W 8600   4.106  32.569   2.953  0.1896 -0.1712 -0.0205
65689W        W 8601   2.921  33.756   1.624 -0.0951 -0.0321 -0.0416
65690W        W 8602   1.619  34.469   3.353  0.1165  0.1805  0.0474
65691W        W 8603   2.712  33.427   2.069  0.1579  0.1797 -0.0360
65692W        W 8604   4.186  33.594   1.830  0.0438 -0.2227 -0.1843
65693W        W 8605   1.241  33.627   1.443 -0.0983  0.2284  0.1968
65694W        W 8606   4.272  33.355   0.294 -0.0916  0.2004 -0.2078
65695W        W 8607   2.140   0.152   2.861 -0.0986  0.3655  0.0699
65696W        W 8608   1.789  33.896   0.180 -0.1074 -0.2582  0.1120
65697W        W 8609   3.829   0.327   0.485  0.4012 -0.0571 -0.3138
65698W        W 8610   0.487  32.808   2.426  0.0653 -0.1480  0.0072
65699W        W 8611   1.119   0.527   0.911  0.1152 -0.1315 -0.0773
65700W        W 8612   2.541   1.146   1.943 -0.0626  0.1870  0.1389
65701W        W 8613   3.236  33.286   1.955 -0.1846  0.0026  0.1377
65702W        W 8614   2.132  33.712   2.711  0.3830  0.1607 -0.3061
65703W        W 8615   1.041  33.406   1.037 -0.0425 -0.0667 -0.2715
65704W        W 8616   0.847   0.340   3.671 -0.0832 -0.0173 -0.0152
65705W        W 8617   4.404  33.862   4.905 -0.0132 -0.0476 -0.3144
65706W        W 8618   4.045  34.637   4.996 -0.1855  0.1971 -0.1199
65707W        W 8619  34.616  34.511   4.275 -0.0318 -0.1572 -0.6766
65708W        W 8620   0.052  33.108   4.776 -0.0561 -0.2783 -0.4274
65709W        W 8621   3.605  34.496   3.957  0.3515  0.0016  0.0094
65710W        W 8622   2.917  34.188   7.434 -0.1092 -0.2278  0.2518
65711W        W 8623   2.541  33.246   2.621 -0.2339 -0.2018  0.1935
65712W        W 8624  34.023  33.397   4.573 -0.0204  0.1744 -0.1766
65713W        W 8625   3.031   0.415   4.983  0.0352  0.0412  0.0631
65714W        W 8626   0.424   1.253   4.576 -0.2957 -0.3509  0.1597
65715W        W 8627   1.484   0.090   6.342 -0.0743  0.0576  0.1976
65716W        W 8628   0.901  33.344   4.125 -0.0157 -0.2954  0.1226
65717W        W 8629   3.437  32.446   7.103  0.0239 -0.3760 -0.2151
65718W        W 8630   2.452  31.369   6.639  0.0479  0.2003 -0.4573
65719W        W 8631   0.918  33.621   1.930  0.3450 -0.1567 -0.2184
65720W        W 8632   0.100  34.523   5.731  0.2365  0.2679 -0.0737
65721W        W 8633   1.676   0.540   6.239  0.0721 -0.2142  0.0465
65722W        W 8634   4.198  33.472   6.318  0.1505 -0.0289 -0.1178
65723W        W 8635   1.340  34.318   5.159 -0.1081  0.1582 -0.0024
65724W        W 8636   3.800  34.620   6.846 -0.0513 -0.5022  0.1975
65725W        W 8637   3.582   0.260   5.765 -0.2207  0.0893 -0.4274
65726W        W 8638   2.444  34.358   4.791  0.2590 -0.5731 -0.1846
65727W        W 8639   3.259  32.982   8.589 -0.2097  0.3388  0.0287
65728W        W 8640   3.061  33.590   2.462  0.0938  0.3000  0.5325
65729W        W 8641   3.095  33.268   4.382 -0.1160 -0.3333  0.4712
65730W        W 8642   3.314  33.663   3.471 -0.0160  0.0177  0.1407
65731W        W 8643   0.552  32.342   3.777 -0.2109 -0.0846 -0.1355
65732W        W 8644   0.911  33.979   4.980  0.1858  0.1931  0.2498
65733W        W 8645   1.450  34.343   4.153  0.1681  0.1117  0.0948
65734W        W 8646   2.566  33.671   5.684 -0.2005 -0.3033  0.3275
65735W        W 8647   0.669   0.816   4.443 -0.1178 -0.1182 -0.2662
65736W        W 8648   0.781  33.836   4.054  0.0259 -0.1366  0.1251
65737W        W 8649  33.295   0.720   6.315  0.1583  0.3881 -0.1263
65738W        W 8650  34.115  33.815   6.332 -0.3738  0.0596  0.0980
65739W        W 8651   1.704  32.760   2.582  0.1576 -0.3149 -0.1296
65740W        W 8652   3.346  34.080   4.646  0.0651 -0.0468  0.0379
65741W        W 8653   3.076  34.142   6.010 -0.2001  0.1593 -0.2764
65742W        W 8654   2.156  33.364   5.932  0.1066 -0.1216 -0.2028
65743W        W 8655   4.979   0.034   4.111 -0.0209  0.2217  0.0819
65744W        W 8656   2.229  33.620   7.533  0.2104  0.0226  0.0062
65745W        W 8657  34.218  33.727   5.864 -0.0381  0.1834  0.0475
65746W        W 8658   3.258  33.564   4.885 -0.3676  0.1989 -0.1230
65747W        W 8659   0.085  31.879   6.112 -0.0583 -0.1373  0.1661
65748W        W 8660   3.124  33.036   5.260  0.2638  0.0612  0.0576
65749W        W 8661   3.708  34.262   5.099 -0.2977  0.0280  0.2177
65750W        W 8662   0.415  33.465   4.963 -0.3316 -0.0246  0.1467
65751W        W 8663  34.569   0.254   3.558 -0.2337 -0.0190  0.3300
65752W        W 8664   0.769  34.665   6.107 -0.0070 -0.2126 -0.3316
65753W        W 8665  33.833  33.990   5.339  0.0774 -0.1113  0.3606
65754W        W 8666   1.626  34.569   6.824  0.0761  0.0155  0.2477
65755W        W 8667  33.957  33.152   4.089 -0.1081  0.0646  0.1364
65756W        W 8668   3.553  33.502   4.474 -0.2513  0.0013  0.3074
65757W        W 8669   1.465   1.406   4.520 -0.3264  0.2064  0.0144
65758W        W 8670   3.102  33.870   7.845  0.1296  0.0293  0.1918
65759W        W 8671   1.761   0.095   5.938  0.0113 -0.0629  0.3089
65760W        W 8672   0.360  33.635   3.510  0.0905 -0.3934 -0.1431
65761W        W 8673   0.362   0.066   3.591  0.0498 -0.0972  0.1239
65762W        W 8674   2.657  33.197   7.050 -0.0388  0.1692 -0.1631
65763W        W 8675   1.996   0.439   5.014  0.0301  0.3099  0.2703
65764W        W 8676  34.587  33.468   2.389 -0.2819 -0.2307 -0.3227
65765W        W 8677   0.279   0.050   4.497  0.1738 -0.2419 -0.2034
65766W        W 8678   3.700  32.920   4.323  0.3179 -0.2065 -0.3824
65767W        W 8679  34.674   0.962   7.100  0.1137 -0.0035 -0.3025
65768W        W 8680   3.084  34.325   6.491 -0.0138  0.0657 -0.1315
65769W        W 8681   0.837   0.897   2.815 -0.0437 -0.1652 -0.0705
65770W        W 8682   2.311  33.297   4.072 -0.0047 -0.3548 -0.1166
65771W        W 8683   3.952  33.342   5.671  0.0203  0.1734 -0.0659
65772W        W 8684   2.789  33.690   3.682 -0.0925  0.0130 -0.0174
65773W        W 8685   2.934  33.356   2.857 -0.1184 -0.1310 -0.0091
65774W        W 8686   2.041  33.821   3.364 -0.1258  0.0916 -0.4863
65775W        W 8687  34.671   0.127   5.295 -0.1187  0.1123 -0.0488
65776W        W 8688   1.184  33.356   3.115  0.1604  0.0654 -0.3014
65777W        W 8689  34.629  34.308   5.264 -0.1320 -0.1711  0.0262
65778W        W 8690   3.884  33.774   6.527 -0.3460  0.1855  0.3142
65779W        W 8691   2.206  33.485   4.677  0.0925 -0.0447 -0.2072
65780W        W 8692   2.983  33.689   6.643 -0.1131  0.0327 -0.1844
65781W        W 8693   3.199   0.323   6.213  0.1982 -0.0421 -0.0799
65782W        W 8694   3.400  33.991   5.298  0.2537  0.0160  0.2360
65783W        W 8695   2.611  34.576   5.529 -0.2634  0.0659  0.0720
65784W        W 8696   0.675  32.873   3.834  0.1760  0.0392  0.0071
65785W        W 8697   2.090  32.468   6.027  0.3185 -0.1066 -0.0065
65786W        W 8698   1.603  33.480   6.789 -0.2702 -0.1460 -0.0872
65787W        W 8699   0.405  33.378   3.959  0.0205 -0.1515 -0.0189
65788W        W 8700   1.425  33.197   4.897 -0.2107 -0.1335 -0.1813
65789W        W 8701   1.619  33.890   5.325 -0.1963  0.1549 -0.4561
65790W        W 8702   0.092   0.199   4.043  0.0800 -0.2891 -0.0539
65791W        W 8703  34.632  34.430   3.692 -0.1100  0.0478  0.0490
65792W        W 8704   3.779  32.648   5.632 -0.3105  0.1842 -0.0354
65793W        W 8705   1.435  34.644   5.614  0.0715  0.1577  0.0797
65794W        W 8706   1.740  33.583   4.821 -0.1765  0.0025  0.1563
65795W        W 8707   2.691   0.880   6.270 -0.0099 -0.4351 -0.1628
65796W        W 8708   4.166  31.865   4.300 -0.1103 -0.1065 -0.0283
65797W        W 8709   2.489  34.474   7.264  0.0652  0.0766 -0.0333
65798W        W 8710   0.345  33.726   2.613  0.0148 -0.1823 -0.3547
65799W        W 8711   2.813  34.167   6.915  0.0577  0.1486  0.2864
65800W        W 8712   0.503  34.278   4.433 -0.1607 -0.0878 -0.0652
65801W        W 8713   1.260   0.661   3.732  0.2630 -0.1354 -0.2196
65802W        W 8714   0.075  34.283   6.195  0.2543 -0.0349 -0.3262
65803W        W 8715   0.845  34.295   3.917  0.0933 -0.3263 -0.1375
65804W        W 8716  34.361  33.445   4.161  0.1044 -0.0400 -0.3006
65805W        W 8717   0.452  34.596   5.430 -0.0880 -0.1154 -0.0566
65806W        W 8718   2.104  34.312   6.770  0.2093 -0.0149 -0.1009
65807W        W 8719   2.705  32.724   4.259  0.0267  0.1657  0.0008
65808W        W 8720   2.061   0.044   6.557  0.2161 -0.1761  0.1806
65809W        W 8721   2.092  33.874   5.542 -0.0225  0.1705 -0.3439
65810W        W 8722   3.516  31.297   4.280 -0.1000 -0.3448 -0.0427
65811W        W 8723   2.173  34.368   5.689  0.0202 -0.2516  0.0556
65812W        W 8724   2.904  33.610   6.099 -0.0771  0.0391 -0.0700
65813W        W 8725   4.539  34.468   4.403  0.1721  0.0875  0.0259
65814W        W 8726   2.606  34.546   6.513 -0.1775  0.0824 -0.0367
65815W        W 8727   0.901  33.934   6.036  0.0775 -0.1086 -0.1543
65816W        W 8728   1.203  33.762   6.566  0.0972  0.1516 -0.0905
65817W        W 8729  33.902   0.075   6.091 -0.1674 -0.0679 -0.0154
65818W        W 8730   3.221  34.631   4.787 -0.1172  0.3814  0.0610
65819W        W 8731   1.198  33.630   3.626 -0.1905  0.2501 -0.0519
65820W        W 8732   1.304   1.300   7.913  0.0207  0.0022  0.1706
65821W        W 8733   2.424  33.039   4.488  0.1898 -0.2359 -0.2593
65822W        W 8734  34.301   0.642   5.644  0.0901  0.0526  0.0790
65823W        W 8735   3.489  33.091   4.707 -0.2876  0.0032  0.0217
65824W        W 8736   2.232   0.532   6.380  0.2343 -0.1597  0.2494
65825W        W 8737   1.826  34.101   3.919 -0.1792  0.1503  0.1744
65826W        W 8738   2.402  33.859   6.780  0.1172  0.0573 -0.0457
65827W        W 8739   4.271  34.123   5.753 -0.1364  0.2346  0.1502
65828W        W 8740   2.279  34.063   7.262  0.1309 -0.0586 -0.0116
65829W        W 8741  34.353  33.007   7.268 -0.1992  0.0324  0.2368
65830W        W 8742   2.559  32.348   3.899 -0.0946  0.0924 -0.0500
65831W        W 8743   4.213  34.207   5.210 -0.2938 -0.1136 -0.0072
65832W        W 8744   4.826  34.227   6.214 -0.0521 -0.1074 -0.2095
65833W        W 8745   3.724  34.084   4.237 -0.0751 -0.0598 -0.1639
65834W        W 8746   2.605  34.376   4.254  0.0392  0.1087 -0.1586
65835W        W 8747   3.282   0.189   7.913  0.0960  0.0827  0.0340
65836W        W 8748   1.983  32.336   5.075 -0.0687 -0.1635  0.1135
65837W        W 8749   3.728  34.121   7.118  0.2021 -0.2637 -0.1817
65838W        W 8750   1.558  33.866   3.343  0.1054 -0.1967 -0.0008
65839W        W 8751  34.106  34.308   4.225  0.0238  0.2214  0.1862
65840W        W 8752   0.708   0.273   2.705  0.0627 -0.2086 -0.1667
65841W        W 8753   1.530   0.387   3.441  0.1309  0.0306 -0.0308
65842W        W 8754   2.015  34.364   4.280 -0.2518  0.2416 -0.1747
65843W        W 8755   3.037  33.793   5.611 -0.0119  0.1989 -0.0684
65844W        W 8756   1.882  33.419   5.356  0.0840 -0.3128  0.0205
65845W        W 8757   2.326  33.988   4.377  0.0409 -0.1644  0.2124
65846W        W 8758   2.019  33.940   5.008 -0.0329  0.1460 -0.2195
65847W        W 8759   2.798  34.606   5.040 -0.2172  0.0614  0.6078
65848W        W 8760   3.015   0.068   6.697  0.0456 -0.1963  0.0891
65849W        W 8761   0.671   0.467   6.311  0.0809 -0.0840 -0.4489
65850W        W 8762   0.402  33.783   5.799  0.1101  0.4124 -0.0026
65851W        W 8763   1.413  33.130   4.453 -0.1385 -0.0045  0.2793
65852W        W 8764  34.694  33.585   3.859  0.1487  0.0317 -0.0758
65853W        W 8765   3.381  33.296   3.126  0.2074 -0.0628 -0.1359
65854W        W 8766   2.313  33.908   3.852  0.1304 -0.0079 -0.0030
65855W        W 8767   3.103  32.222   4.406 -0.0285 -0.1507  0.1403
65856W        W 8768   2.766   0.633   5.377 -0.0126  0.3662 -0.3822
65857W        W 8769   1.559  32.967   3.011 -0.2606  0.0084 -0.2787
65858W        W 8770   1.398   0.497   6.733  0.1197  0.1975  0.3272
65859W        W 8771   3.747  33.116   6.927 -0.2497  0.1663 -0.1847
65860W        W 8772   1.455  32.266   3.548  0.3729 -0.0272 -0.3234
65861W        W 8773   1.492   0.358   4.057 -0.0644  0.0118 -0.3706
65862W        W 8774   3.061  34.371   5.430 -0.0854 -0.2418  0.0095
65863W        W 8775   2.537   0.280   5.130  0.0108  0.1630  0.0341
65864W        W 8776   0.592  33.989   2.996 -0.2665 -0.1444 -0.0355
65865W        W 8777   3.460  33.468   5.328 -0.1984  0.1568  0.0335
65866W        W 8778   1.012   0.002   6.643  0.1469  0.2645 -0.1131
65867W        W 8779   3.521  34.275   6.253  0.0358  0.0319  0.1209
65868W        W 8780   0.217  34.505   4.937 -0.0127 -0.3689 -0.1257
65869W        W 8781   2.931  33.300   3.402 -0.2252  0.3714  0.0078
65870W        W 8782   0.427  33.981   4.886  0.2478 -0.1367  0.2313
65871W        W 8783   1.074  34.699   4.172  0.2005  0.4071  0.2106
65872W        W 8784   2.673   1.452   6.022  0.0523  0.1004 -0.1424
65873W        W 8785   3.910  32.879   4.781 -0.0053  0.2559  0.2207
65874W        W 8786  33.940  33.700   4.101  0.1403 -0.0914  0.0116
65875W        W 8787   2.706  32.683   3.498  0.0751 -0.2389 -0.0567
65876W        W 8788   2.322   0.512   3.698 -0.1210 -0.1733  0.0578
65877W        W 8789   2.281   0.184   6.011  0.0354 -0.4664  0.0435
65878W        W 8790  34.377  32.143   4.065  0.2150  0.0847 -0.0423
65879W        W 8791   4.557  34.689   5.279 -0.0821 -0.1133 -0.0824
65880W        W 8792   2.874  33.444   5.167  0.0089 -0.0431  0.0637
65881W        W 8793   0.550  33.115   4.385 -0.0170 -0.3922 -0.0078
65882W        W 8794   1.053  34.099   4.388 -0.1119 -0.0418  0.0958
65883W        W 8795   1.818   0.288   5.448  0.2370  0.2755 -0.1257
65884W        W 8796   3.859  32.451   6.178  0.0993  0.0075 -0.0435
65885W        W 8797   2.615  34.073   6.320  0.1467  0.3405  0.0791
65886W        W 8798   4.087  32.805   7.283  0.3209  0.2127  0.0704
65887W        W 8799   2.918  34.146   4.977  0.3189 -0.1134  0.1459
65888W        W 8800   0.858  33.237   5.363 -0.2034  0.1399 -0.1383
65889W        W 8801   2.716  33.439   4.656 -0.1451 -0.2003  0.5050
65890W        W 8802   2.809  31.961   4.739  0.0871  0.2294  0.2634
65891W        W 8803  34.683   0.526   6.399 -0.0918 -0.1020  0.1606
65892W        W 8804   0.999   0.580   2.335 -0.1156 -0.1431  0.1036
65893W        W 8805   1.878  34.041   7.565  0.3248  0.0866  0.0538
65894W        W 8806   0.242  34.446   6.623  0.0446 -0.2771 -0.2062
65895W        W 8807   0.757  34.249   6.410  0.1423 -0.2560  0.3763
65896W        W 8808   0.586  32.613   4.242 -0.1086 -0.2185  0.3890
65897W        W 8809   0.828  33.791   5.462  0.2220 -0.1760  0.2893
65898W        W 8810  33.549  33.419   4.306 -0.1853  0.0023 -0.0314
65899W        W 8811   1.558  33.616   2.924  0.2414 -0.0222 -0.3228
65900W        W 8812   2.164  33.098   8.851 -0.2673 -0.2156 -0.1686
65901W        W 8813   0.545  34.249   5.907 -0.2345 -0.0016 -0.2192
65902W        W 8814  33.269  34.079   3.525  0.2528  0.0722 -0.0439
65903W        W 8815   2.185  33.910   5.990 -0.0770 -0.1987 -0.2034
65904W        W 8816  34.007  32.343   6.329  0.0150 -0.1939 -0.2905
65905W        W 8817   3.510  33.558   5.814 -0.0471  0.1315  0.3696
65906W        W 8818   2.659   0.621   4.119  0.0678  0.4521  0.1698
65907W        W 8819   0.118  33.856   6.756  0.2077  0.1203 -0.0446
65908W        W 8820   0.561  33.659   4.458  0.1630 -0.1685 -0.0085
65909W        W 8821   2.817  33.156   3.913 -0.2715 -0.1290 -0.1666
65910W        W 8822   1.221  34.635   3.695 -0.3283  0.1839 -0.0727
65911W        W 8823   2.703   0.450   5.905 -0.1144 -0.1675  0.1091
65912W        W 8824   2.917  34.096   3.985  0.1230 -0.2430 -0.0926
65913W        W 8825   3.668   0.778   3.459  0.0579  0.2942  0.1566
65914W        W 8826   0.031  33.978   4.204  0.0179  0.2835  0.2247
65915W        W 8827   0.706   0.313   4.524 -0.0012  0.0193  0.2513
65916W        W 8828   1.720  34.672   3.814  0.3139 -0.0596  0.2388
65917W        W 8829   3.200   0.878   4.935  0.2942 -0.0386 -0.1072
65918W        W 8830   0.690  34.406   5.020  0.0456  0.0744  0.0101
65919W        W 8831   3.194  32.767   4.399 -0.1510 -0.1288  0.0660
65920W        W 8832   1.212  34.404   7.042 -0.0055 -0.2003  0.2208
65921W        W 8833   2.996  33.026   7.645 -0.2349 -0.0276 -0.1464
65922W        W 8834   2.761   0.808   9.739  0.3805 -0.2484  0.1992
65923W        W 8835   0.686  32.331   9.137  0.0222  0.3672 -0.3628
65924W        W 8836   2.853   0.342   7.866  0.1711 -0.1994  0.2546
65925W        W 8837   1.727  32.907  10.037 -0.0931 -0.1577  0.0764
65926W        W 8838   0.518  33.061   7.444 -0.5986  0.2090 -0.1826
65927W        W 8839   0.261  32.505   8.855  0.2654  0.1098  0.2334
65928W        W 8840   1.904   0.173   9.449  0.0532 -0.2566 -0.1632
65929W        W 8841   0.556  34.077   7.844 -0.2082 -0.0825 -0.2568
65930W        W 8842   1.596  32.825   8.591 -0.2160  0.1054 -0.1967
65931W        W 8843   2.218  33.434   7.039  0.1488  0.3137  0.0883
65932W        W 8844   2.015  32.573   8.779  0.0176  0.0895 -0.2155
65933W        W 8845  33.788   0.039   7.379  0.2211 -0.0176  0.2212
65934W        W 8846   0.174  34.514   9.415  0.0128 -0.0368 -0.0179
65935W        W 8847  34.638  34.617   8.310 -0.1010  0.0349 -0.0101
65936W        W 8848   2.606  33.882   9.995  0.0166  0.0259  0.0941
65937W        W 8849   1.612   0.400   9.077 -0.2215 -0.4276  0.2609
65938W        W 8850   0.590   0.808   9.145 -0.1572 -0.4192  0.1553
65939W        W 8851   2.136  34.601   7.598 -0.2633 -0.1554  0.1709
65940W        W 8852   3.405  34.164   7.475 -0.2718  0.2162 -0.0203
65941W        W 8853   0.518   0.213   6.741 -0.3086 -0.0198 -0.1012
65942W        W 8854   2.217  34.332   8.247  0.1210 -0.3036  0.1593
65943W        W 8855   0.872  34.474   7.784  0.0245 -0.2513 -0.1170
65944W        W 8856   0.879   0.334   9.836  0.1372  0.2886 -0.2587
65945W        W 8857   1.121   0.869   8.219 -0.1208 -0.0887 -0.1084
65946W        W 8858   1.792  34.338   9.557  0.0567  0.0031  0.4393
65947W        W 8859   1.743  34.414   8.441  0.2023  0.1012  0.1507
65948W        W 8860   0.627  33.814   8.287  0.2282 -0.0721 -0.2561
65949W        W 8861   1.425  33.330   6.360  0.1846  0.0220 -0.2003
65950W        W 8862   3.508  33.026   9.187 -0.3158 -0.3150  0.1524
65951W        W 8863   1.637   0.611   9.570 -0.2454  0.2328 -0.0609
65952W        W 8864   0.885  31.775   9.030 -0.1696  0.2125  0.2300
65953W        W 8865   2.552   0.615   8.121  0.1453  0.1477 -0.0022
65954W        W 8866   0.374  33.665   8.799 -0.1961 -0.0991  0.0352
65955W        W 8867   2.696  34.588   7.709  0.1643 -0.2441  0.3472
65956W        W 8868   2.652  33.658   8.775 -0.1774 -0.0640 -0.2851
65957W        W 8869   2.284  34.267   8.744  0.0526  0.0932 -0.1483
65958W        W 8870   0.004  33.526   8.564  0.1459  0.2356  0.0414
65959W        W 8871   0.824  32.514   8.195 -0.1908  0.0910  0.1757
65960W        W 8872   0.185  32.170   9.358  0.0202 -0.0420  0.0503
65961W        W 8873   1.090  32.946   8.273  0.0202  0.1705 -0.1842
65962W        W 8874   0.472   0.346   8.876 -0.4553  0.0692  0.0237
65963W        W 8875   0.904  34.614   9.476 -0.0073 -0.0429 -0.0355
65964W        W 8876  34.650   0.137   9.697  0.0604  0.3255 -0.0848
65965W        W 8877  34.192  34.349   7.018 -0.3708  0.0528 -0.1976
65966W        W 8878   1.120  33.480   8.170  0.2773  0.0713  0.0349
65967W        W 8879   2.401   0.187   9.084 -0.0177  0.1036  0.2335
65968W        W 8880   0.645  33.388   6.670 -0.2212  0.0943  0.0176
65969W        W 8881   0.218  33.172   8.882 -0.0425  0.0355  0.1931
65970W        W 8882   2.310  33.378   8.375  0.2930  0.0817 -0.0607
65971W        W 8883  34.624   0.273   7.879  0.0845 -0.0160  0.0690
65972W        W 8884   3.010  33.298   9.454 -0.0403  0.2834  0.0144
65973W        W 8885   3.138  33.400   7.036  0.0241 -0.1793  0.0219
65974W        W 8886   2.447  34.157   7.745  0.4243  0.0218  0.2223
65975W        W 8887   0.945  33.736   7.634 -0.0769  0.1907  0.2527
65976W        W 8888   0.346  34.534   7.981 -0.0432  0.0604  0.2442
65977W        W 8889   2.357  32.764   9.447 -0.2157  0.0719  0.1561
65978W        W 8890   1.602  34.026   6.835  0.2447 -0.1543 -0.2778
65979W        W 8891   2.144  32.230   7.747  0.1037 -0.0364  0.0933
65980W        W 8892   1.701  31.672   9.340  0.0979 -0.1254  0.1080
65981W        W 8893   1.680  33.461   8.924  0.0496 -0.1730 -0.3504
65982W        W 8894   3.388   0.137   8.778  0.2495  0.0449 -0.2264
65983W        W 8895   1.482  33.990   8.848 -0.2770 -0.0605  0.0122
65984W        W 8896   1.854  34.678   8.002  0.0344  0.2248  0.1011
65985W        W 8897   1.037  32.307   9.625 -0.1480 -0.2280 -0.1610
65986W        W 8898   0.611  34.399   6.999  0.0157  0.0572  0.2403
65987W        W 8899   0.735  34.019   9.076  0.0402  0.1705 -0.3047
65988W        W 8900   2.347  31.824   9.826  0.2397 -0.0457 -0.1558
65989W        W 8901   0.794  34.166   7.402 -0.2751  0.0533  0.0903
65990W        W 8902  33.774  33.696   8.006 -0.0959 -0.0092 -0.0794
65991W        W 8903   3.247  33.628   8.578  0.2006  0.0610 -0.2057
65992W        W 8904   1.254  33.310   8.640 -0.0212 -0.0052 -0.1353
65993W        W 8905   1.967  34.101   9.113  0.3891  0.0359 -0.0894
65994W        W 8906   2.910   0.218   8.848  0.0602 -0.1032 -0.1458
65995W        W 8907   0.763  33.407   7.219  0.1707 -0.1357 -0.2843
65996W        W 8908   2.337  33.877   8.420 -0.1565  0.0746 -0.1611
65997W        W 8909   1.452  33.590   7.848  0.2092 -0.1995  0.3420
65998W        W 8910   1.147   0.466   7.783 -0.1389  0.0679  0.1064
65999W        W 8911   3.174   0.454   9.205  0.1082 -0.2685 -0.0530
66000W        W 8912   1.304  33.639   9.735 -0.0054  0.2023  0.0550
66001W        W 8913   1.837  32.591   8.253 -0.2524 -0.0489  0.0904
66002W        W 8914   2.857   3.041   9.537 -0.1126  0.2005  0.1087
66003W        W 8915   1.801   1.159   8.605  0.0002 -0.1329 -0.0258
66004W        W 8916   2.254  32.811   8.386 -0.0870  0.1787 -0.0593
66005W        W 8917   1.905  33.818   8.648  0.0072  0.2068 -0.1415
66006W        W 8918   4.091  32.991   8.730 -0.0130  0.1266  0.0074
66007W        W 8919   0.726   0.058   7.344 -0.0640  0.3971 -0.0295
66008W        W 8920   2.764   0.411   6.443  0.1012  0.0230  0.3769
66009W        W 8921  33.910  30.932   9.637 -0.1620 -0.0018 -0.0478
66010W        W 8922   1.768  32.912   9.097 -0.1161  0.0307  0.1509
66011W        W 8923   1.755  34.284   6.396  0.0990  0.1619 -0.0654
66012W        W 8924   0.129   0.640   9.630  0.2844  0.0669  0.3304
66013W        W 8925   2.186  33.956   9.618 -0.0802 -0.1875 -0.4148
66014W        W 8926   1.017  34.245   8.685 -0.0435 -0.4383  0.1795
66015W        W 8927   3.023  34.633   8.348 -0.2571 -0.0297 -0.2823
66016W        W 8928   2.522  33.074   8.043  0.2322 -0.1844  0.0415
66017W        W 8929   3.240  33.868   7.096 -0.0539  0.0523  0.1688
66018W        W 8930   0.294  31.000   9.553  0.1232  0.0360 -0.1143
66019W        W 8931   1.958  33.839   8.055  0.0275 -0.0417 -0.0733
66020W        W 8932   3.352  34.618   7.493 -0.1514 -0.0175 -0.1469
66021W        W 8933   1.967  32.442   9.315 -0.0973  0.3298  0.0626
66022W        W 8934   1.335  33.951   5.812 -0.1024  0.2090  0.2226
66023W        W 8935   1.498  33.050   8.031  0.2075  0.3811  0.2363
66024W        W 8936  33.890  34.183   8.228 -0.0028  0.3764  0.1406
66025W        W 8937   0.649  33.858   6.893 -0.0037 -0.1138 -0.2144
66026W        W 8938  34.151   0.310   6.605  0.0191 -0.2426  0.2612
66027W        W 8939   2.631  33.335   7.668 -0.0725 -0.0758  0.1360
66028W        W 8940   2.079  34.571   9.836  0.0088 -0.0409 -0.0963
66029W        W 8941   1.439  33.828   8.304 -0.0230 -0.0360 -0.0883
66030W        W 8942   2.528   0.735   8.999  0.0576 -0.0214  0.2648
66031W        W 8943   1.339  34.504   9.196  0.1249 -0.2211 -0.0572
66032W        W 8944  34.501  33.953   9.357  0.2235  0.1747 -0.0434
66033W        W 8945   1.193  32.000   8.356  0.2829 -0.2722  0.0932
66034W        W 8946   0.507  33.532   7.685  0.2229  0.2613 -0.0207
66035W        W 8947   3.472  31.131   6.325  0.0727  0.0414 -0.2534
66036W        W 8948   2.279  33.647   9.041  0.1638  0.3913 -0.0994
66037W        W 8949   3.072  33.516   7.504  0.1576  0.0055  0.0515
66038W        W 8950   1.767   2.214   9.558  0.0042  0.2762 -0.2181
66039W        W 8951   1.724  34.407   7.285  0.0125  0.3991 -0.1522
66040W        W 8952  34.268  33.707   7.853  0.0568  0.1919 -0.0846
66041W        W 8953   0.498   0.241   9.454 -0.1320 -0.0952 -0.3140
66042W        W 8954   0.864  31.578  10.376 -0.1494 -0.3500 -0.2813
66043W        W 8955   1.871  34.608   8.984  0.1309 -0.0440 -0.2618
66044W        W 8956  34.006  33.304   7.839  0.0518 -0.0693 -0.1266
66045W        W 8957   3.067  34.009   9.207  0.1915  0.0233 -0.1384
66046W        W 8958   1.211  33.616   9.173  0.2316 -0.0035  0.0978
66047W        W 8959   0.728  33.472   9.093  0.0226 -0.3058  0.3153
66048W        W 8960   2.405   0.110   8.138 -0.0571  0.1368 -0.2003
66049W        W 8961   1.631  32.119   9.102 -0.2562  0.0331  0.0500
66050W        W 8962   1.276  34.132   7.407 -0.2399 -0.0302 -0.3216
66051W        W 8963   1.817  33.706   7.192  0.0308 -0.0295 -0.0977
66052W        W 8964   0.491  32.545   7.327  0.2266  0.2122  0.0790
66053W        W 8965   1.723  33.436   8.389  0.0405  0.0972  0.0508
66054W        W 8966  33.997   0.302   9.102 -0.0456  0.1529  0.4556
66055W        W 8967  32.784   0.611  10.319 -0.2312  0.0884 -0.1762
66056W        W 8968   0.847  32.751   9.483  0.1068 -0.1130 -0.0005
66057W        W 8969   2.194  32.965   9.897  0.2881  0.6512 -0.2682
66058W        W 8970   1.509  34.661   9.993 -0.0718 -0.0180 -0.2840
66059W        W 8971   0.013  34.064   8.735  0.1855 -0.0522 -0.1230
66060W        W 8972   2.731  33.705   7.192  0.1454  0.0340  0.0501
66061W        W 8973   0.398  33.110   9.396  0.2834 -0.1840  0.1913
66062W        W 8974   2.019  34.226  10.188 -0.0459  0.0548  0.2682
66063W        W 8975   1.666   0.182   7.205  0.1089  0.3845  0.4812
66064W        W 8976   2.505  32.712   8.881  0.0364 -0.1768 -0.1364
66065W        W 8977   3.518  33.901   9.128 -0.0248  0.1020  0.1814
66066W        W 8978   2.403  32.218   9.511 -0.4183 -0.1339  0.4027
66067W        W 8979   0.867  33.235   9.572 -0.2824 -0.1331  0.1819
66068W        W 8980  34.638   0.459   7.440 -0.0922 -0.2467 -0.0273
66069W        W 8981   0.154  33.662   8.068 -0.1588 -0.3904  0.2889
66070W        W 8982   0.450  33.356   8.344  0.0639  0.0448  0.1518
66071W        W 8983   1.415  34.290   7.905  0.1493 -0.1101  0.1916
66072W        W 8984   0.057  32.912   8.516 -0.1930 -0.4963  0.1833
66073W        W 8985   1.127  33.303   6.920  0.2087 -0.0871 -0.0685
66074W        W 8986  33.834  33.972   7.211 -0.0806 -0.1595 -0.0132
66075W        W 8987   0.599  34.571   9.051  0.2210 -0.0052 -0.2920
66076W        W 8988   0.914   0.363   9.244  0.0515 -0.0513  0.1437
66077W        W 8989   2.645  33.689   9.456 -0.1563 -0.0038 -0.0520
66078W        W 8990   0.396   0.618   7.250 -0.3770  0.0596  0.1078
66079W        W 8991   2.578  32.535   8.013 -0.0470  0.2239 -0.0756
66080W        W 8992   2.593  33.289   9.172  0.3056  0.2331  0.1759
66081W        W 8993   0.735  33.193   8.679 -0.0249 -0.2355 -0.1252
66082W        W 8994   2.605   1.163   8.040 -0.1533 -0.0194  0.0776
66083W        W 8995   0.694   0.643   7.771  0.0880  0.2304 -0.3699
66084W        W 8996   4.426   0.407   9.126 -0.0699 -0.0523 -0.2012
66085W        W 8997   0.381  31.964   8.941 -0.0407  0.0026  0.0690
66086W        W 8998  34.289  33.901   6.876 -0.0849  0.0407 -0.0072
66087W        W 8999   1.627   0.942   8.154 -0.1112 -0.0664  0.1362
66088W        W 9000   1.685  33.383   9.873 -0.1979 -0.2622 -0.0745
66089W        W 9001   0.291  32.649   9.411  0.0279  0.0404 -0.1953
66090W        W 9002   2.422  33.683   7.979  0.0150 -0.0572 -0.1593
66091W        W 9003   4.991   4.116   3.058  0.0311 -0.1400 -0.3436
66092W        W 9004   4.076   0.908   1.265  0.0786  0.3206 -0.0778
66093W        W 9005   6.361  34.650  31.775 -0.3058 -0.1937  0.0354
66094W        W 9006   7.197   1.871   0.455  0.1280  0.0041  0.0622
66095W        W 9007   2.919   1.490   2.077 -0.2547  0.0134  0.0639
66096W        W 9008   6.470   3.327   1.254 -0.1006  0.0268  0.2856
66097W        W 9009   4.889  34.244   4.097 -0.1849  0.2160 -0.0414
66098W        W 9010   8.434   2.500   2.113 -0.4718  0.1244  0.0870
66099W        W 9011   6.560   3.289   2.049 -0.0311 -0.1340 -0.1620
66100W        W 9012   7.544   2.340  31.638 -0.0872  0.0149 -0.2327
66101W        W 9013   6.718   1.505   1.679  0.1359  0.0049  0.2197
66102W        W 9014   3.977   3.323   3.834 -0.1106  0.1858 -0.0743
66103W        W 9015   5.274  34.063  31.590 -0.0252 -0.0111  0.2790
66104W        W 9016   4.461   0.138   1.818 -0.1458  0.5893 -0.0367
66105W        W 9017   6.774   0.391   3.423  0.0098  0.2917  0.2372
66106W        W 9018   4.776   1.397   0.193 -0.0315  0.1004  0.3416
66107W        W 9019   4.811  34.587   3.506  0.2072 -0.0102 -0.0930
66108W        W 9020   4.979   1.005  31.965  0.0171  0.0278  0.0980
66109W        W 9021   6.665   2.810   1.132  0.2707 -0.0995  0.1185
66110W        W 9022   5.407   0.551   3.259 -0.0153  0.0788  0.3544
66111W        W 9023   6.372   1.372   2.944  0.0212 -0.3029 -0.1294
66112W        W 9024   7.202   2.790  31.772  0.0587 -0.1253  0.5784
66113W        W 9025   4.228   0.543   0.028 -0.0262 -0.0556  0.0881
66114W        W 9026   4.267   0.947   2.764  0.1247  0.0115 -0.0680
66115W        W 9027   4.975   2.035   2.168  0.0259 -0.1451 -0.1796
66116W        W 9028   6.261   0.251   3.215  0.1481  0.1078  0.2838
66117W        W 9029   7.627   1.666   2.249  0.0734 -0.1198  0.0020
66118W        W 9030   4.853   2.992   1.905  0.1403  0.0997 -0.0905
66119W        W 9031   5.414   2.942   1.905 -0.1992  0.0009  0.1069
66120W        W 9032   6.419   1.750   3.614  0.0745 -0.1830 -0.0650
66121W        W 9033   5.146   3.388   0.336  0.0868  0.1451 -0.0692
66122W        W 9034   3.825   3.730   0.985 -0.1945  0.0087 -0.3895
66123W        W 9035   5.708   3.965  31.844 -0.0268  0.2714 -0.1891
66124W        W 9036   8.842   3.242   0.606  0.2915 -0.1319 -0.2799
66125W        W 9037   6.750   3.025   2.481 -0.3430  0.1410  0.1237
66126W        W 9038   5.375   2.905   3.789  0.2812  0.0512 -0.0148
66127W        W 9039   4.219   2.152   1.754  0.3817  0.1388 -0.1567
66128W        W 9040   5.737   3.438   3.024  0.0387 -0.0528  0.0854
66129W        W 9041   5.233   2.467   3.144 -0.1729  0.0194 -0.0398
66130W        W 9042   6.316   1.808   2.596  0.2990 -0.3170 -0.4081
66131W        W 9043   6.118   2.478   0.206 -0.2175  0.1689  0.0457
66132W        W 9044   6.122   2.553  31.202  0.1739  0.0059 -0.1570
66133W        W 9045   5.214   3.249   1.610  0.2068 -0.1585 -0.2259
66134W        W 9046   5.382   4.021   3.404  0.1474 -0.0201  0.3784
66135W        W 9047   5.138   2.518   1.993  0.0836  0.0555  0.0249
66136W        W 9048   8.656   1.252   3.172  0.2124  0.2640 -0.0558
66137W        W 9049   5.052   3.804   0.588  0.0276 -0.0701  0.1801
66138W        W 9050   5.913   0.258  31.735 -0.3384 -0.1526 -0.1469
66139W        W 9051   5.212   1.529   0.395 -0.0318  0.1155 -0.1193
66140W        W 9052   6.319  33.058  31.265 -0.3597 -0.0672  0.1164
66141W        W 9053   5.753   0.005   1.649  0.1208  0.0623 -0.2632
66142W        W 9054   5.271   3.681   1.320 -0.0580 -0.0031  0.3192
66143W        W 9055   6.180   0.613   1.177  0.3764 -0.0129 -0.0821
66144W        W 9056   7.510   4.257   2.164 -0.1431  0.1037  0.3686
66145W        W 9057   5.662   1.882   1.015 -0.2319  0.1925 -0.2604
66146W        W 9058   7.830   1.157   3.232  0.3347 -0.4691  0.1819
66147W        W 9059   4.623   0.874   1.941 -0.0810  0.1262  0.2180
66148W        W 9060   4.700   0.199   2.544  0.0364  0.0388  0.1275
66149W        W 9061   7.143   3.696  31.615 -0.0517 -0.0507  0.3347
66150W        W 9062   7.891   2.188   0.002  0.1159  0.2819  0.2859
66151W        W 9063   6.490   2.088   0.016  0.0872 -0.0377  0.0430
66152W        W 9064   4.117   1.095   2.223  0.3504  0.1224  0.0060
66153W        W 9065   5.369   1.759   3.639 -0.2068  0.0221  0.0025
66154W        W 9066   3.986   0.180   3.264 -0.0483 -0.4535 -0.2567
66155W        W 9067   5.741  33.620   0.382  0.0113  0.1290  0.0706
66156W        W 9068   7.872   2.638   3.868  0.0099 -0.0296 -0.2328
66157W        W 9069   4.380   2.909   2.830 -0.3633 -0.0046  0.1170
66158W        W 9070   7.615   1.603   0.672 -0.1507  0.0004 -0.0412
66159W        W 9071   5.032   2.691   0.957  0.0897 -0.1404  0.1131
66160W        W 9072   8.184   3.383   1.754  0.1692  0.0131  0.1463
66161W        W 9073   7.015   2.340  31.779 -0.1686  0.1550  0.1508
66162W        W 9074   7.629   0.328   1.445  0.1275 -0.0260  0.1395
66163W        W 9075   7.913   0.715   3.499 -0.5620 -0.1986 -0.0519
66164W        W 9076   4.039   2.190   0.339 -0.2024  0.1680 -0.0131
66165W        W 9077   6.294   2.215  31.557 -0.0152 -0.1319  0.0129
66166W        W 9078   7.568   3.347   2.856 -0.1700  0.2027 -0.1321
66167W        W 9079   6.418   1.450  31.241 -0.1801  0.2109  0.4032
66168W        W 9080   5.219   2.858   2.308 -0.0898  0.1502 -0.1792
66169W        W 9081   7.188   1.567   2.639 -0.1884  0.1666  0.2351
66170W        W 9082   6.495   3.595   2.842  0.1154  0.2435 -0.0120
66171W        W 9083   5.362   3.841   0.189  0.1062 -0.2363  0.0817
66172W        W 9084   5.203   1.165   1.238  0.2336 -0.2568  0.0059
66173W        W 9085   4.197   1.439   1.026  0.1947  0.0280 -0.3086
66174W        W 9086   4.838   0.560   3.345 -0.0012 -0.0374  0.1566
66175W        W 9087   4.402   3.448   3.575 -0.1188 -0.0713  0.0623
66176W        W 9088   6.572   0.839   0.232  0.3305 -0.2621 -0.0787
66177W        W 9089   2.814   0.154   3.473  0.2042  0.0513  0.0274
66178W        W 9090   6.232   0.666   0.589  0.0371  0.4978  0.3182
66179W        W 9091   5.766   3.564   0.263  0.3665 -0.0057 -0.1881
66180W        W 9092   7.825   3.863   1.257 -0.1975  0.0691  0.0646
66181W        W 9093   5.830   1.449   1.442 -0.0835  0.1445 -0.0478
66182W        W 9094   7.002   1.630  30.663  0.0988  0.0516 -0.0583
66183W        W 9095   4.306   0.432   2.672 -0.1992  0.0537  0.1736
66184W        W 9096   5.596   1.962   1.521 -0.0848 -0.0095  0.2015
66185W        W 9097   6.224   0.326   1.669  0.2121  0.0068 -0.0206
66186W        W 9098   4.582  34.437   2.185  0.1077 -0.0448 -0.5098
66187W        W 9099   8.078   2.174   1.995  0.1371 -0.0482 -0.2256
66188W        W 9100   5.483  34.430   0.019  0.0916 -0.1935 -0.1771
66189W        W 9101   7.045   0.951   0.907  0.1199  0.0825  0.0561
66190W        W 9102   6.633   0.256   0.665  0.1005 -0.0065  0.0389
66191W        W 9103   4.524   1.665   1.476 -0.1477 -0.4756 -0.0556
66192W        W 9104   9.051  32.860   2.597  0.4146  0.0496 -0.0087
66193W        W 9105   6.611   2.674   0.534 -0.2150  0.0322  0.2508
66194W        W 9106   6.806   2.991   3.819 -0.0585 -0.2902  0.0249
66195W        W 9107   8.653   3.665   0.298 -0.1338  0.2320  0.1749
66196W        W 9108   5.696   0.192   3.116  0.1233  0.0895 -0.1202
66197W        W 9109   4.057   1.025   0.203  0.2099  0.1776 -0.0708
66198W        W 9110   4.345   2.355   2.251  0.0911  0.2317  0.1423
66199W        W 9111   5.428   2.359   0.992 -0.2305  0.0078 -0.0299
66200W        W 9112   6.181   1.124  31.519 -0.1558  0.2543 -0.0844
66201W        W 9113   7.134   4.318   0.338 -0.3302 -0.1105 -0.0804
66202W        W 9114   6.744   2.078   1.284  0.2613 -0.2018  0.0166
66203W        W 9115   6.764   1.237   2.673 -0.1337  0.1873 -0.0433
66204W        W 9116   8.010   0.320   2.665 -0.1616 -0.1552 -0.0983
66205W        W 9117   8.042   1.787   2.527  0.0387 -0.1478 -0.2565
66206W        W 9118   6.280   2.424   1.413  0.1926  0.0753  0.0018
66207W        W 9119   4.141  33.430  30.162  0.0720 -0.1676  0.2608
66208W        W 9120   7.052   3.256   2.026 -0.0950 -0.1301 -0.2247
66209W        W 9121   6.494   4.309   1.468 -0.2701  0.5300  0.2364
66210W        W 9122   4.893   1.311   1.613 -0.1245 -0.0465  0.1192
66211W        W 9123   5.571   3.915  31.132 -0.1244  0.4445 -0.2192
66212W        W 9124   8.081   1.631   2.050  0.1819  0.0049  0.2376
66213W        W 9125   5.439   0.813   2.812  0.2397 -0.0443  0.1795
66214W        W 9126   6.268   1.213   2.467 -0.0246  0.1751 -0.0968
66215W        W 9127   3.696   1.906  31.834 -0.1435  0.4355 -0.3876
66216W        W 9128   4.362   2.329   2.860 -0.0531  0.0063  0.0088
66217W        W 9129   6.258  34.147  31.849 -0.3449  0.2014  0.1684
66218W        W 9130   6.504   0.413  30.528 -0.0732  0.1037  0.2930
66219W        W 9131   6.342   2.624   2.527  0.3928  0.3195 -0.0683
66220W        W 9132   6.788   1.979  31.431 -0.0843  0.1468 -0.2968
66221W        W 9133   6.249  33.682  30.533 -0.1375 -0.2848 -0.1648
66222W        W 9134   6.448   0.372   0.190  0.0140 -0.0305 -0.0876
66223W        W 9135   5.524   2.080   3.967  0.2909 -0.0921  0.1298
66224W        W 9136   5.600   2.838   0.882  0.1586  0.1013  0.0049
66225W        W 9137   5.234   1.721   1.886 -0.0280 -0.0913 -0.0464
66226W        W 9138   6.905   0.510   0.023  0.0902  0.0483 -0.1810
66227W        W 9139   7.715   2.686   0.021  0.0175  0.4229  0.0308
66228W        W 9140   3.821   1.497   2.487  0.0723  0.0011 -0.1150
66229W        W 9141   8.361   2.887   3.925 -0.3475  0.1387 -0.3596
66230W        W 9142   7.081   3.870   0.117 -0.0871 -0.1165  0.3318
66231W        W 9143   5.124  33.963   2.803  0.1428 -0.1211  0.0430
66232W        W 9144   5.498   1.872   0.138 -0.1293 -0.3091 -0.1608
66233W        W 9145   6.190  34.577   1.940  0.0975 -0.3353 -0.0166
66234W        W 9146   3.937   3.902   0.561  0.0216  0.0672 -0.3247
66235W        W 9147   6.556   0.747   2.561  0.3382 -0.3861  0.1824
66236W        W 9148   7.055  34.015   2.060  0.1710  0.1749  0.0021
66237W        W 9149   5.353  33.971   3.409  0.0211 -0.0924 -0.0053
66238W        W 9150   8.011   1.878   3.552 -0.1104  0.3395 -0.1644
66239W        W 9151   6.080   1.752  30.836 -0.0650 -0.1084 -0.0730
66240W        W 9152   6.711   1.095   1.244 -0.0455 -0.1227  0.2631
66241W        W 9153   6.103   1.623   0.788  0.0444  0.3524  0.0135
66242W        W 9154   6.890   0.854   3.501 -0.1348 -0.0932 -0.0020
66243W        W 9155   5.421   1.473   2.840 -0.2101  0.1131 -0.0037
66244W        W 9156   4.293   3.384   2.661  0.1313 -0.1034 -0.1060
66245W        W 9157   6.618   4.512   2.788  0.0451 -0.1809  0.0947
66246W        W 9158   6.748   1.565   0.226 -0.1877 -0.3072  0.1757
66247W        W 9159   7.358   1.425   3.122  0.0106  0.1237  0.1016
66248W        W 9160   6.229   0.672  31.852  0.1999 -0.2482  0.0344
66249W        W 9161   4.178   3.262  31.755 -0.0311 -0.4977 -0.0774
66250W        W 9162   6.215   2.764  31.696 -0.0719  0.0245  0.1294
66251W        W 9163   5.264  34.194   0.404 -0.1474 -0.0616 -0.1630
66252W        W 9164   5.615   3.921   2.217 -0.1512  0.0859 -0.2948
66253W        W 9165   4.897   3.369  31.192  0.2406  0.0198  0.3247
66254W        W 9166   7.416   2.525   4.181  0.1245  0.1887  0.3712
66255W        W 9167   6.005   3.207  31.956 -0.2167 -0.0878 -0.1249
66256W        W 9168   7.045  34.481   3.499 -0.1177 -0.0381 -0.4448
66257W        W 9169   5.091   3.262   0.977  0.0489 -0.2868  0.0031
66258W        W 9170   4.969   2.044   0.972  0.0848 -0.1932  0.0779
66259W        W 9171   3.908   0.933   0.713  0.0125  0.1988 -0.0228
66260W        W 9172   7.894   0.391   1.018  0.2342 -0.0373  0.0005
66261W        W 9173   5.834   2.014   0.441  0.0826  0.0669  0.1709
66262W        W 9174   5.852   0.308   2.002  0.1813 -0.0756  0.1446
66263W        W 9175   6.882  34.009   3.400 -0.2676  0.2676  0.0028
66264W        W 9176   4.128   2.869   2.345  0.0567 -0.1703 -0.0634
66265W        W 9177   5.945   2.263   1.718  0.0246 -0.0530 -0.1089
66266W        W 9178   6.744  34.442   0.697  0.0941  0.1328  0.2564
66267W        W 9179   6.417   2.965   1.618 -0.0823 -0.0279 -0.5369
66268W        W 9180   6.082   2.337   3.364  0.1820 -0.0556 -0.2347
66269W        W 9181   5.112   1.635  31.882 -0.2324  0.0032  0.2064
66270W        W 9182   7.129   1.821   1.588 -0.1793 -0.3143  0.1763
66271W        W 9183   6.221   1.151   1.095 -0.2006  0.2015  0.2812
66272W        W 9184   4.700   2.369   1.887  0.2190 -0.1177  0.0186
66273W        W 9185   6.392   1.887   1.588  0.0663 -0.0313  0.0170
66274W        W 9186   5.824   1.447   0.338  0.0030 -0.0354 -0.0361
66275W        W 9187   4.889   2.978   1.353 -0.0050  0.0664 -0.1433
66276W        W 9188   6.327   1.001   4.218  0.0522 -0.4226 -0.1532
66277W        W 9189   7.424   3.012   2.151 -0.2303  0.1234 -0.0760
66278W        W 9190   5.395   0.776   1.550 -0.0636 -0.2074 -0.2638
66279W        W 9191   6.578   1.335   0.737 -0.0020 -0.0617  0.1257
66280W        W 9192   6.572   1.592   1.163  0.0377 -0.0235  0.2687
66281W        W 9193   5.962   0.796   2.308 -0.0462 -0.3015 -0.1626
66282W        W 9194   6.799   0.663   2.140  0.2197 -0.3320  0.1311
66283W        W 9195   6.310   3.124   2.677  0.0636  0.4123 -0.1577
66284W        W 9196   6.068  34.521   2.894 -0.2072  0.0137 -0.1565
66285W        W 9197   9.688   3.651   0.690  0.1826 -0.0606  0.0440
66286W        W 9198   7.388   2.423   3.586  0.0728  0.2111 -0.1027
66287W        W 9199   5.782   2.535  31.716 -0.1965  0.1394  0.0519
66288W        W 9200   4.501   3.387   3.093  0.1678  0.0336 -0.0170
66289W        W 9201   5.496   3.377   0.695 -0.2511  0.0047 -0.1063
66290W        W 9202   5.594  34.521   1.167  0.1256  0.1171  0.0487
66291W        W 9203   6.116   2.248   2.789  0.0376 -0.1494 -0.0766
66292W        W 9204   5.568   3.853   0.903  0.1671 -0.0830  0.2203
66293W        W 9205   4.844   3.214   3.441 -0.0488  0.2282  0.0012
66294W        W 9206   6.433  34.438   1.067 -0.0730  0.3730  0.1003
66295W        W 9207   6.267   2.135  30.441 -0.2814 -0.1644  0.1351
66296W        W 9208   5.430   1.321   1.726  0.0511  0.0204 -0.0571
66297W        W 9209   8.261   0.759   2.498  0.0228  0.0134 -0.0153
66298W        W 9210   7.210   1.101   1.363 -0.3521  0.1148 -0.0324
66299W        W 9211   7.433   0.882   3.326 -0.1502  0.0980 -0.1348
66300W        W 9212   5.230  34.646   3.226  0.3798  0.0945 -0.3417
66301W        W 9213   7.808   3.149   0.324  0.0284  0.2793 -0.1572
66302W        W 9214   4.648   1.347   2.902 -0.2649  0.1635 -0.1246
66303W        W 9215   7.822   4.859   3.313 -0.2263  0.0233  0.1777
66304W        W 9216   6.497   3.597   3.400  0.0510 -0.3109  0.2782
66305W        W 9217   5.787   0.866   0.754  0.0833  0.1152  0.0369
66306W        W 9218   5.727   0.371   0.234 -0.2718 -0.1416  0.1003
66307W        W 9219   5.927   1.591   2.808  0.2502 -0.0532  0.1862
66308W        W 9220   6.894   2.652   1.548  0.1366  0.2255  0.0083
66309W        W 9221   4.694   2.850   0.520  0.3451  0.0971 -0.0971
66310W        W 9222   7.668   1.985   1.715  0.2082 -0.0048  0.1123
66311W        W 9223   6.016   1.243   1.966 -0.2412  0.0080  0.3490
66312W        W 9224   7.369   2.280   0.214 -0.1080  0.4051  0.1319
66313W        W 9225   5.326   1.798  30.573 -0.2097 -0.0234  0.1006
66314W        W 9226   5.406   1.732   2.333 -0.0035  0.5687  0.1910
66315W        W 9227   4.559   1.489   3.431 -0.0930  0.0907  0.0539
66316W        W 9228   6.332   2.583   2.051 -0.0494  0.0166  0.2537
66317W        W 9229   7.727   1.257   1.829  0.0097  0.1551  0.0175
66318W        W 9230   6.977   0.884   2.987 -0.1706  0.1760 -0.0553
66319W        W 9231   6.749   1.782   2.954  0.3058 -0.1606 -0.2398
66320W        W 9232   7.481   1.081   2.212  0.3747  0.0124  0.1238
66321W        W 9233   3.518   0.325   3.357 -0.1007 -0.0333 -0.2532
66322W        W 9234   5.915   3.379   2.490  0.1255 -0.0639 -0.0807
66323W        W 9235   6.481   0.714  31.365  0.2087 -0.0235  0.1301
66324W        W 9236   7.777   0.693   1.732 -0.0528  0.0391 -0.4703
66325W        W 9237   7.031   0.999   1.845 -0.0114 -0.1151 -0.3342
66326W        W 9238   6.758   0.682  30.942 -0.3032  0.2059 -0.2008
66327W        W 9239   5.716  34.275   3.614 -0.1646 -0.2122  0.3663
66328W        W 9240   7.839   3.088   3.611 -0.1619  0.1307 -0.2447
66329W        W 9241   4.790   0.772   0.361 -0.1030 -0.0814 -0.0442
66330W        W 9242   7.491   0.262   2.533  0.3559 -0.1072 -0.0442
66331W        W 9243   5.703   2.889   0.172 -0.1859 -0.0385 -0.0390
66332W        W 9244   7.865   2.987   1.778 -0.1072  0.2190  0.0375
66333W        W 9245   5.979  34.559   0.086 -0.1169 -0.1760 -0.2226
66334W        W 9246   5.193  34.359   3.662 -0.1017  0.1937  0.1323
66335W        W 9247   5.583   3.412   4.080 -0.1387  0.0088  0.1230
66336W        W 9248   4.925  34.219   0.052 -0.0216 -0.1658  0.5196
66337W        W 9249   4.043   2.563   0.632  0.3050  0.3176 -0.1213
66338W        W 9250   6.111   3.002   2.134  0.3521 -0.1416  0.5062
66339W        W 9251   8.940   1.799   4.378 -0.2351 -0.1616 -0.2003
66340W        W 9252   5.389   0.639  30.839 -0.0337  0.2541  0.1971
66341W        W 9253   7.891   0.785   2.895  0.0041 -0.3491 -0.3142
66342W        W 9254   4.886   1.249  31.564  0.2111  0.3529 -0.0628
66343W        W 9255   6.522   0.179   1.250 -0.1333 -0.0541  0.1052
66344W        W 9256   5.841   2.564   2.234  0.2694 -0.0354  0.0856
66345W        W 9257   5.058   2.087   3.350 -0.0460 -0.2335  0.3427
66346W        W 9258   5.019   2.486   1.422  0.1741  0.2115 -0.2240
66347W        W 9259   5.081   0.032   5.052  0.0766  0.2779  0.3623
66348W        W 9260   6.293   1.350   1.533  0.0146  0.2259  0.3611
66349W        W 9261   6.841   2.202   0.400 -0.2853  0.1468  0.0943
66350W        W 9262   7.125   2.202   2.648  0.2863 -0.0876  0.2612
66351W        W 9263   5.761   1.976   2.487 -0.1002 -0.3060 -0.0116
66352W        W 9264   5.791   2.546   1.270  0.2433  0.2542  0.0376
66353W        W 9265   5.836   3.447   2.026 -0.2713 -0.1181  0.0669
66354W        W 9266   6.295   2.081   0.556 -0.0402  0.2750 -0.0738
66355W        W 9267   4.542   1.867   1.950 -0.1558 -0.3244 -0.0477
66356W        W 9268   4.694   1.027   3.734 -0.0144 -0.0345 -0.0382
66357W        W 9269   6.208   2.097   2.140  0.0654 -0.1939  0.1657
66358W        W 9270   6.949   2.446   0.911  0.0318 -0.0481  0.0996
66359W        W 9271   5.010   1.067   0.774 -0.1389 -0.0428 -0.0592
66360W        W 9272   5.628   3.047  30.885  0.2255  0.0872  0.3542
66361W        W 9273   5.459   2.675   5.122 -0.0159 -0.2281 -0.0052
66362W        W 9274   5.029   0.780   2.460  0.0664  0.1731  0.0553
66363W        W 9275   4.823   3.794   1.050 -0.0386  0.2045 -0.1106
66364W        W 9276   6.077   2.666   0.664 -0.0290 -0.1782 -0.0533
66365W        W 9277   7.358   3.045   0.199  0.3489  0.0810  0.2148
66366W        W 9278   8.224   2.942   2.585 -0.1639 -0.0266 -0.2845
66367W        W 9279   6.196   1.319  30.032 -0.3247  0.0799  0.3040
66368W        W 9280   5.517   3.674   1.737  0.0171  0.2476 -0.0211
66369W        W 9281   3.653   1.783   0.341  0.3610  0.0988  0.1784
66370W        W 9282   8.311   2.307   0.846  0.4453 -0.0993 -0.1599
66371W        W 9283   5.524   4.082   1.415  0.0592  0.2700 -0.2478
66372W        W 9284   7.548   3.936   3.759 -0.0056  0.0087 -0.2791
66373W        W 9285   6.493  32.772  31.621 -0.0744 -0.2518 -0.0370
66374W        W 9286   6.200   1.985   1.130  0.0690  0.1111  0.0542
66375W        W 9287   7.091   0.984  31.940 -0.2709  0.2336 -0.1141
66376W        W 9288   5.943   3.879   2.641  0.1405 -0.3222  0.1273
66377W        W 9289   5.751   0.979   1.290  0.0191 -0.1644  0.4008
66378W        W 9290   5.518   0.482  31.494  0.2828 -0.1736  0.0352
66379W        W 9291   4.839   1.547   2.184 -0.3639  0.1502 -0.2281
66380W        W 9292   9.013   0.586   3.027 -0.0899 -0.0129  0.2407
66381W        W 9293   6.195   3.230  31.504  0.2380 -0.1753 -0.0545
66382W        W 9294   4.486   1.065   1.499  0.1795  0.0480 -0.0617
66383W        W 9295   5.898   2.274   0.889 -0.2675 -0.1434  0.2298
66384W        W 9296   8.128  33.735   3.336 -0.2947 -0.0024  0.2551
66385W        W 9297   4.989   2.129   0.033  0.3160  0.1423 -0.0993
66386W        W 9298   5.319   0.749   1.011  0.2417  0.1476 -0.0680
66387W        W 9299   5.316   4.217   0.558  0.0221  0.2011  0.1191
66388W        W 9300   5.302   3.371   2.096 -0.0516  0.1984  0.1795
66389W        W 9301   3.329   4.689   2.051 -0.1372 -0.0348 -0.0208
66390W        W 9302   3.988   0.311   1.900  0.1535 -0.1329  0.0575
66391W        W 9303   7.474   0.199   0.936 -0.2025  0.0519 -0.1698
66392W        W 9304   5.534   1.175   3.243 -0.0046 -0.0160 -0.3228
66393W        W 9305   7.255   0.134   2.047  0.2155  0.0964 -0.3312
66394W        W 9306   7.211   1.432   0.181 -0.4640  0.4096 -0.0818
66395W        W 9307   6.692   2.223   1.760  0.1499 -0.1405  0.0795
66396W        W 9308   7.179   2.712   2.497  0.0797 -0.1819 -0.0089
66397W        W 9309   5.333   0.273   1.712 -0.0036  0.2638 -0.1973
66398W        W 9310   6.138   0.201   0.714  0.0510  0.0209 -0.3870
66399W        W 9311   7.325   3.459   3.813 -0.0428  0.0854 -0.2238
66400W        W 9312   5.963   2.040  31.924 -0.1279 -0.0219  0.0959
66401W        W 9313   7.675   5.235   4.260 -0.2193 -0.1320  0.0502
66402W        W 9314   4.262   0.350   0.730  0.0484 -0.1297 -0.1933
66403W        W 9315   6.639  33.913  30.249 -0.0816  0.0358 -0.1692
66404W        W 9316   5.140   1.549   0.887 -0.1421 -0.5047 -0.1392
66405W        W 9317   6.142   1.977   4.190 -0.1148 -0.1475 -0.1411
66406W        W 9318   7.883   4.357   4.357 -0.2176  0.3070 -0.4641
66407W        W 9319   3.686   0.075   2.359  0.0805 -0.3091  0.1413
66408W        W 9320   6.239   1.749  29.760  0.1015  0.1045 -0.4707
66409W        W 9321   8.510   1.964   2.201  0.2034  0.0374 -0.1453
66410W        W 9322   5.400   2.443   0.074  0.1663  0.2276 -0.3497
66411W        W 9323   7.433   2.331   0.743  0.3223  0.1125  0.1746
66412W        W 9324   7.812   2.829   1.335  0.1065  0.3001  0.2533
66413W        W 9325   4.190  33.978   4.075 -0.0934 -0.0838 -0.1452
66414W        W 9326   7.089   3.741   3.501 -0.1212 -0.1659 -0.0090
66415W        W 9327   7.257   1.425   1.874  0.0422 -0.1096 -0.0850
66416W        W 9328   6.272  33.720  31.506 -0.0545  0.1477 -0.0093
66417W        W 9329   6.954   1.120   0.422  0.5076 -0.2231  0.1356
66418W        W 9330   4.214   5.022   1.214  0.0379 -0.1757 -0.1061
66419W        W 9331   8.032   1.390   1.205 -0.3259  0.0159  0.2158
66420W        W 9332   6.484   0.645   3.027  0.0035  0.1507  0.1023
66421W        W 9333   5.304   4.033  30.106  0.1299 -0.2393  0.3255
66422W        W 9334   7.846   1.042   3.845  0.1089 -0.0502  0.3718
66423W        W 9335   5.403   3.254   2.543 -0.1104 -0.1515 -0.2884
66424W        W 9336   4.093   3.853   3.538 -0.1706 -0.0439 -0.0436
66425W        W 9337   3.765   1.419   1.278  0.1586 -0.5146  0.2507
66426W        W 9338   5.983   0.951   2.819 -0.0539  0.0252 -0.3142
66427W        W 9339   6.380   2.996   0.298 -0.0878  0.0702 -0.2113
66428W        W 9340   5.792   4.046   0.399  0.0070 -0.1988  0.3028
66429W        W 9341   8.200   3.156   1.244 -0.0031  0.1453  0.2338
66430W        W 9342   6.229   1.695   0.255 -0.1868  0.0144  0.0340
66431W        W 9343   8.293   3.788   1.097 -0.0387  0.3942  0.2203
66432W        W 9344   6.000   0.001   2.438  0.0468 -0.2046  0.0683
66433W        W 9345   7.229   1.213  31.508 -0.0021  0.0946  0.1025
66434W        W 9346   8.208  33.355   1.090 -0.0094  0.0055  0.0856
66435W        W 9347   5.413   2.922   1.347  0.1744  0.4059 -0.1167
66436W        W 9348   4.008   1.406   0.534 -0.4389  0.1659  0.1030
66437W        W 9349   4.512   1.852   1.006  0.2351 -0.2903  0.0654
66438W        W 9350   5.480   2.150   2.072  0.4323 -0.3215 -0.2489
66439W        W 9351   6.812   0.038   3.078 -0.3443  0.1959 -0.0712
66440W        W 9352   4.879  33.660   3.228 -0.2183  0.0001 -0.0619
66441W        W 9353   4.947  34.695   1.899  0.1919  0.0149 -0.1940
66442W        W 9354   5.490  33.977   1.349  0.0476  0.1878  0.3220
66443W        W 9355   6.704   1.813   0.693 -0.0834 -0.3554 -0.3256
66444W        W 9356   4.759   0.710   1.051 -0.4344  0.1158 -0.1794
66445W        W 9357   4.133   0.362   1.363 -0.2456 -0.0838  0.4418
66446W        W 9358   6.861   2.766   0.097 -0.0403 -0.1276  0.1644
66447W        W 9359   7.496   2.211   1.290  0.1002 -0.1851  0.0264
66448W        W 9360   6.211   1.174   0.471 -0.4287  0.4035 -0.1636
66449W        W 9361   6.555   3.874   4.313  0.0148  0.0833  0.1238
66450W        W 9362   3.584   1.960   1.165 -0.1041 -0.1804  0.1647
66451W        W 9363   7.093   0.991   4.213 -0.0851  0.0631 -0.0494
66452W        W 9364   7.655   1.374   2.626  0.1946  0.1071 -0.2155
66453W        W 9365   3.404   0.087   0.832  0.1020 -0.0626  0.0644
66454W        W 9366   6.307   1.006   3.364 -0.1430  0.1293 -0.0941
66455W        W 9367   7.347   3.083   1.643  0.2110 -0.3196 -0.0412
66456W        W 9368   7.179   3.569   0.540  0.1677 -0.5452  0.0827
66457W        W 9369   5.838   2.940   2.636  0.0031  0.5727  0.0015
66458W        W 9370   5.710   2.464   2.936  0.1537  0.0881  0.2474
66459W        W 9371   5.546   0.064   3.630  0.1698 -0.1922  0.2924
66460W        W 9372   6.584   2.902  31.335  0.3193  0.0831  0.3537
66461W        W 9373   5.457   2.423   1.657  0.2190  0.0624 -0.0415
66462W        W 9374   7.912   1.299   0.349 -0.1125  0.0844 -0.1426
66463W        W 9375   7.302   0.613   2.085 -0.0694 -0.1565  0.0908
66464W        W 9376   7.528   1.224   0.974  0.1124 -0.4313  0.0398
66465W        W 9377   5.125   0.370   2.818 -0.2081  0.0744 -0.0494
66466W        W 9378   6.482   2.721   3.459  0.0998 -0.2768 -0.0119
66467W        W 9379   6.468   2.377   0.907  0.0265 -0.0469 -0.3145
66468W        W 9380   5.602  34.018   0.737  0.1178 -0.1875 -0.0544
66469W        W 9381   7.071   1.457   0.748 -0.2912 -0.2352 -0.1443
66470W        W 9382   6.554   1.801  30.596  0.1270  0.1067  0.3750
66471W        W 9383   6.336   0.835   1.862  0.1837  0.0613  0.1165
66472W        W 9384   4.686   1.303   1.155  0.2266 -0.0522  0.0642
66473W        W 9385   8.070   2.302   2.486 -0.0243  0.0276  0.0567
66474W        W 9386   6.788   2.755   1.993 -0.2087 -0.1772 -0.1072
66475W        W 9387   7.353   1.893   3.450  0.0896 -0.1665 -0.2360
66476W        W 9388   6.361   1.728  31.700  0.0808 -0.0043 -0.0818
66477W        W 9389   8.458   1.824   1.216 -0.0169  0.0252 -0.1604
66478W        W 9390   5.347   2.842   2.777 -0.2789  0.2076 -0.2178
66479W        W 9391   7.178   4.297   5.551  0.1785 -0.1595  0.1952
66480W        W 9392   5.642   4.324   2.592  0.0043 -0.0109  0.1746
66481W        W 9393   6.742   2.350   2.325  0.0659 -0.2282 -0.1059
66482W        W 9394   5.402  34.190   2.442 -0.1819 -0.0407  0.3304
66483W        W 9395   5.241   2.939   0.581 -0.1849 -0.0311  0.0899
66484W        W 9396   5.340   2.012   0.614 -0.0784  0.1273 -0.3617
66485W        W 9397   6.712  34.454   1.552 -0.0146  0.0566 -0.2714
66486W        W 9398   5.616   1.232   2.332 -0.1724  0.0256 -0.0202
66487W        W 9399   5.606   0.384   1.292  0.2767  0.2029 -0.0647
66488W        W 9400   4.078   4.328   3.924  0.1610 -0.4200  0.0273
66489W        W 9401   7.418   2.698   1.126 -0.0200  0.2244  0.0955
66490W        W 9402   4.518   2.759   5.566 -0.2252 -0.1611  0.1337
66491W        W 9403   5.620   0.844   4.187 -0.0728 -0.0725 -0.0047
66492W        W 9404   6.813   1.355   3.252  0.2585 -0.1060  0.0885
66493W        W 9405   8.763   0.667   4.828  0.5254  0.1967  0.3446
66494W        W 9406   2.825   1.149   5.022 -0.2270  0.0481  0.0863
66495W        W 9407   6.836   3.048   4.713  0.1122 -0.1251  0.1042
66496W        W 9408   4.390  34.105   7.424  0.0572  0.2261 -0.4048
66497W        W 9409   7.189   2.459   6.255 -0.0629  0.2488  0.0356
66498W        W 9410   8.087   3.147   4.822  0.0672 -0.0080 -0.0360
66499W        W 9411   5.877   1.739   1.882 -0.0103  0.0079 -0.1684
66500W        W 9412   6.054   0.610   5.524  0.2213 -0.2292 -0.1334
66501W        W 9413   5.140   3.765   5.559  0.1352  0.1019  0.2373
66502W        W 9414   6.012   0.272   3.708 -0.0561  0.5072 -0.2151
66503W        W 9415   4.396  33.972   6.277 -0.2028  0.1104  0.2063
66504W        W 9416   7.266   0.935   5.467  0.0593 -0.3103 -0.2540
66505W        W 9417   4.723   0.953   4.293 -0.0518  0.2281 -0.3102
66506W        W 9418   3.259   1.044   5.418 -0.3846  0.2033 -0.0217
66507W        W 9419   5.154   0.758   4.544  0.0330  0.1235  0.0141
66508W        W 9420   6.379   3.271   4.676  0.1035  0.1969 -0.1966
66509W        W 9421   4.348   0.940   6.670  0.0353  0.1605 -0.2556
66510W        W 9422   5.600  34.026   7.654 -0.3518  0.0920 -0.0257
66511W        W 9423   5.453   2.194   5.106  0.1640 -0.0979 -0.2100
66512W        W 9424   5.604   2.171   3.465 -0.0790  0.1078 -0.1225
66513W        W 9425   3.435   2.033   4.843 -0.0545  0.2352 -0.3602
66514W        W 9426   4.280   1.178   6.177  0.2418 -0.1845 -0.0776
66515W        W 9427   6.277  34.582   4.970 -0.1401  0.3193 -0.0356
66516W        W 9428   7.193   1.207   5.063 -0.0562 -0.0274 -0.2017
66517W        W 9429   5.444   3.722   5.968 -0.0408  0.0277  0.2551
66518W        W 9430   6.015   3.355   5.354  0.0800  0.2783  0.0855
66519W        W 9431   5.439   0.616   6.808  0.1056 -0.3479  0.4100
66520W        W 9432   3.680   2.754   5.207 -0.1934  0.2161 -0.0460
66521W        W 9433   3.283   3.176   5.226 -0.2335 -0.2689 -0.2959
66522W        W 9434   6.299   2.810   4.484  0.2442 -0.2762  0.0109
66523W        W 9435   7.658   3.099   4.107  0.1768 -0.2510  0.3085
66524W        W 9436   6.309   2.617   6.285  0.0081 -0.1462 -0.1205
66525W        W 9437   5.307   3.398   6.357  0.0480  0.1567  0.1392
66526W        W 9438   4.205   2.351   4.081  0.1031  0.2544  0.0576
66527W        W 9439   6.039   2.496   6.833  0.1538 -0.1401 -0.1025
66528W        W 9440   4.150   2.584   4.507 -0.0356  0.0528  0.0192
66529W        W 9441   5.918   1.052   5.927 -0.0738  0.1863 -0.3082
66530W        W 9442   4.711   1.394   4.572 -0.2028 -0.5835  0.0019
66531W        W 9443   5.551   3.187   5.131  0.2091 -0.2177 -0.3325
66532W        W 9444   5.602   2.635   4.139  0.0303  0.2362  0.0696
66533W        W 9445   4.855   1.243   6.702 -0.1900 -0.1972  0.0365
66534W        W 9446   3.641   2.975   5.628  0.0148  0.0564 -0.1791
66535W        W 9447   7.201   0.702   8.119 -0.1087  0.1124 -0.0435
66536W        W 9448   5.375   3.086   4.404 -0.0466  0.0389 -0.0213
66537W        W 9449   7.561   0.660   3.873  0.0146  0.0672  0.0308
66538W        W 9450   5.326   1.587   4.128  0.1715  0.1393 -0.2676
66539W        W 9451   7.260   1.147   3.736 -0.1026  0.2686  0.0778
66540W        W 9452   6.076  34.341   4.439 -0.2871  0.3305 -0.0484
66541W        W 9453   5.044   2.906   5.395 -0.0021 -0.3018  0.0870
66542W        W 9454   5.996  34.072   5.673  0.1310  0.0114 -0.2856
66543W        W 9455   7.464   1.598   6.012 -0.1052  0.1305 -0.1765
66544W        W 9456   5.227   2.266   4.281  0.2097 -0.2952 -0.1637
66545W        W 9457   6.283   1.763   6.908  0.1154  0.0514 -0.2055
66546W        W 9458   3.554   2.422   5.533  0.0877 -0.0821  0.2066
66547W        W 9459   3.740   2.511   4.766 -0.0564 -0.0222  0.6180
66548W        W 9460   7.842   3.538   3.882  0.0591  0.0467 -0.0321
66549W        W 9461   6.389   2.009   5.048  0.0557 -0.1582  0.0021
66550W        W 9462   6.291   3.163   3.661 -0.0588  0.3271 -0.0154
66551W        W 9463   4.367   1.320   4.011 -0.0599  0.2575 -0.0264
66552W        W 9464   4.305   1.261   5.677  0.3465 -0.0059  0.0315
66553W        W 9465   5.177   2.334   6.375  0.0534  0.1214  0.0928
66554W        W 9466   5.157   0.739   3.652 -0.0854 -0.1752 -0.0402
66555W        W 9467   7.071   1.977   6.251  0.1760  0.1652  0.0735
66556W        W 9468   4.027   2.394   6.298  0.0091 -0.0139 -0.1235
66557W        W 9469   7.420   0.630   2.874  0.1265 -0.0224 -0.1790
66558W        W 9470   6.424   2.688   5.750  0.0120  0.2355 -0.2728
66559W        W 9471   6.806   2.399   6.571 -0.2077  0.1093 -0.0209
66560W        W 9472   6.712   2.825   4.284 -0.2265  0.0001  0.0698
66561W        W 9473   8.208  33.830   5.691  0.3119 -0.0060  0.3859
66562W        W 9474   6.115  34.479   5.428  0.0039 -0.0737 -0.1380
66563W        W 9475   6.884   2.027   3.549 -0.0225  0.2696  0.2445
66564W        W 9476   5.525   1.554   4.766 -0.3924  0.0484  0.1148
66565W        W 9477   6.842   2.988   5.689 -0.0654  0.1552  0.1677
66566W        W 9478   7.487   1.646   4.002 -0.1207  0.0366 -0.2217
66567W        W 9479   4.182   3.463   5.439  0.0823 -0.3343 -0.0958
66568W        W 9480   5.274   0.879   6.451 -0.0130 -0.2005  0.0810
66569W        W 9481   6.650   3.529   5.859 -0.2775  0.3387  0.1710
66570W        W 9482   5.747   3.808   3.800  0.1976 -0.1352 -0.0075
66571W        W 9483   3.252   2.533   5.120 -0.0271 -0.0071  0.2032
66572W        W 9484   4.035   3.900   4.471  0.1196 -0.0775  0.2786
66573W        W 9485   4.616  34.361   4.916 -0.3982 -0.0328 -0.0405
66574W        W 9486   5.176   1.745   5.718 -0.0843  0.3897  0.3248
66575W        W 9487   7.886   0.002   5.621 -0.0872 -0.0314  0.1343
66576W        W 9488   3.770   0.306   6.276  0.0626  0.1009 -0.0171
66577W        W 9489   7.261  34.433   3.988  0.0828  0.1454 -0.3786
66578W        W 9490   3.232   2.443   4.643 -0.0274 -0.0663  0.0017
66579W        W 9491   6.768   2.767   6.149  0.0090  0.0069  0.0058
66580W        W 9492   7.492   2.218   4.508  0.0738  0.2880  0.1640
66581W        W 9493   6.250   1.880   3.142 -0.1624 -0.0350  0.3935
66582W        W 9494   3.788   1.807   6.794 -0.1667  0.1490  0.2553
66583W        W 9495   4.682   0.956   4.834 -0.2154 -0.1631  0.0676
66584W        W 9496   4.183  34.347   7.041  0.3289  0.1449 -0.1922
66585W        W 9497   5.022   0.103   5.575 -0.1592  0.1152  0.2719
66586W        W 9498   6.711   2.292   5.309  0.0980 -0.2343  0.0025
66587W        W 9499   5.598  34.568   4.566 -0.3724 -0.0426 -0.0690
66588W        W 9500   7.369  34.566   5.579  0.1336 -0.1921 -0.4279
66589W        W 9501   6.046   0.906   4.599  0.0117 -0.3947  0.1221
66590W        W 9502   4.636   2.503   4.374 -0.1203 -0.1363  0.0267
66591W        W 9503   5.807   1.461   6.197 -0.0502  0.1760  0.3162
66592W        W 9504   6.760   4.462   4.061  0.0615  0.0198 -0.0314
66593W        W 9505   7.354   2.834   6.568  0.1495 -0.0419  0.0738
66594W        W 9506   7.524   2.355   5.672  0.1056  0.0976  0.0797
66595W        W 9507   5.743  34.646   6.458  0.1622  0.0749 -0.2330
66596W        W 9508   4.211   0.302   4.129 -0.2202  0.0889  0.2624
66597W        W 9509   4.583   3.660   5.236  0.2653  0.2181 -0.1182
66598W        W 9510   4.974   3.362   5.179 -0.0331  0.1998 -0.0717
66599W        W 9511   5.957   1.343   3.509 -0.0481 -0.0469 -0.0741
66600W        W 9512   8.169   3.093   5.898  0.2639 -0.1975  0.1531
66601W        W 9513   4.549   1.791   4.881  0.0642  0.3999  0.1147
66602W        W 9514   5.802   0.530   5.937 -0.0322  0.2362  0.1553
66603W        W 9515   6.892  34.598   5.769  0.4488 -0.1943  0.1988
66604W        W 9516   6.748   0.970   6.392 -0.0984  0.0253  0.1131
66605W        W 9517   6.647   1.011   4.554  0.1910 -0.1342  0.5226
66606W        W 9518   5.423  34.459   4.150  0.3247 -0.0586 -0.3861
66607W        W 9519   6.174   3.921   5.543 -0.0099 -0.1985  0.0702
66608W        W 9520   6.566   2.276   3.283 -0.1912  0.1863  0.0269
66609W        W 9521   4.244   2.616   5.142 -0.2087  0.0889  0.1318
66610W        W 9522   5.032   2.028   5.287  0.0690 -0.2068 -0.2077
66611W        W 9523   6.061   1.790   4.733 -0.3031 -0.0947  0.0740
66612W        W 9524   4.080   1.808   6.336 -0.0013  0.2095  0.0893
66613W        W 9525   7.849   1.102   7.230  0.1732  0.2197  0.0895
66614W        W 9526   5.049   1.422   3.626  0.1743  0.5065 -0.1495
66615W        W 9527   4.047   2.614   5.750 -0.1011 -0.0618  0.1673
66616W        W 9528   6.398   0.528   4.433 -0.0065  0.1182 -0.0512
66617W        W 9529   8.023   1.029   4.865 -0.1078 -0.1860 -0.2408
66618W        W 9530   5.450   1.191   7.340  0.0697 -0.3216 -0.1445
66619W        W 9531   6.337   2.752   3.973  0.0508 -0.1737  0.3834
66620W        W 9532   8.502   1.544   3.767 -0.0006 -0.1382  0.1721
66621W        W 9533   5.977   0.610   3.207 -0.0930  0.2371 -0.1137
66622W        W 9534   4.506   2.469   6.028 -0.4050  0.0991  0.0589
66623W        W 9535   5.800   2.445   5.495 -0.2266 -0.1319 -0.0583
66624W        W 9536   6.089   1.243   4.931 -0.0894  0.2029  0.2260
66625W        W 9537   6.577   0.809   3.880  0.1732  0.0587 -0.1660
66626W        W 9538   7.553   2.661   5.170 -0.3357 -0.3854 -0.1097
66627W        W 9539   3.110   2.746   5.605 -0.0821 -0.0243  0.0063
66628W        W 9540   4.769   1.172   5.840  0.0533  0.1588  0.0830
66629W        W 9541   7.078   1.938   5.750 -0.0411 -0.1311 -0.0617
66630W        W 9542   6.310   0.791   6.086 -0.0628  0.0045  0.0128
66631W        W 9543   5.728   1.793   4.346 -0.0689  0.0620  0.1610
66632W        W 9544   5.699   0.517   4.687 -0.1184 -0.2146  0.1006
66633W        W 9545   4.870   2.671   2.841  0.0018  0.2090  0.1100
66634W        W 9546   8.027   1.079   6.626  0.2098  0.1029  0.1799
66635W        W 9547   5.461  34.428   5.429  0.0355 -0.0923 -0.1983
66636W        W 9548   5.335  34.683   6.871  0.2196  0.1858  0.0883
66637W        W 9549   7.542   1.245   6.746  0.0904  0.1412 -0.0492
66638W        W 9550   8.022   1.582   4.010 -0.3805  0.2770 -0.2289
66639W        W 9551   4.993   0.811   7.044 -0.0327 -0.2021  0.0760
66640W        W 9552   5.294   2.346   2.516  0.1161  0.1872  0.1399
66641W        W 9553   5.859   0.776   7.124  0.1235 -0.0016  0.2387
66642W        W 9554   3.292   1.476   5.069 -0.2219 -0.1816  0.1424
66643W        W 9555   3.966   3.471   6.290 -0.1598  0.1390 -0.0123
66644W        W 9556   5.485   2.905   5.630 -0.0074  0.1946 -0.3666
66645W        W 9557   7.008   2.307   4.351  0.5472 -0.2158 -0.0017
66646W        W 9558   6.203   0.819   6.756  0.2071  0.2953 -0.1509
66647W        W 9559   7.049   0.600   3.861  0.1921  0.3675 -0.2006
66648W        W 9560   4.543   2.763   4.769 -0.2388  0.0950 -0.1108
66649W        W 9561   6.359   2.258   3.754 -0.3947  0.1304 -0.0176
66650W        W 9562   5.425  33.332   5.090 -0.3994 -0.0192  0.0774
66651W        W 9563   5.518   2.653   4.617 -0.1229  0.1978 -0.0169
66652W        W 9564   5.932   2.219   5.000  0.0528 -0.2457 -0.3407
66653W        W 9565   5.647   2.199   6.581 -0.1807  0.2102 -0.4250
66654W        W 9566   4.932   2.782   3.665 -0.1131  0.2911 -0.3723
66655W        W 9567   8.424   0.172   5.632 -0.1952 -0.0336 -0.0713
66656W        W 9568   3.164   4.124   4.519  0.3067  0.1195  0.0907
66657W        W 9569   5.878   1.765   3.753 -0.1538  0.1545  0.1363
66658W        W 9570   3.906   2.043   4.445 -0.1737 -0.0427  0.2533
66659W        W 9571   7.272   0.305   3.455 -0.1281 -0.1589 -0.3866
66660W        W 9572   6.859   2.180   4.808  0.0714  0.1664 -0.2477
66661W        W 9573   3.589   2.055   5.872  0.1376  0.0981  0.0124
66662W        W 9574   6.735   0.438   4.849 -0.0563  0.1331 -0.2370
66663W        W 9575   3.058   3.466   4.903  0.2501  0.1065  0.3647
66664W        W 9576   6.100   1.571   5.821  0.1224 -0.1504 -0.2245
66665W        W 9577   6.959   1.565   3.703 -0.1365  0.0199  0.1756
66666W        W 9578   6.534   2.534   4.850 -0.1374  0.1570 -0.1701
66667W        W 9579   4.719   1.645   5.399  0.1125 -0.1015 -0.1835
66668W        W 9580   5.558   0.994   4.723 -0.2727 -0.2357 -0.2141
66669W        W 9581   6.217   1.723   6.297 -0.1260  0.2628 -0.0725
66670W        W 9582   4.009   0.463   5.867 -0.2481 -0.4110 -0.0945
66671W        W 9583   3.100   1.932   5.272  0.0974 -0.0378  0.0670
66672W        W 9584   4.999   2.733   5.834  0.1014 -0.2546  0.1664
66673W        W 9585   6.207   1.495   3.996  0.0374  0.3610 -0.0331
66674W        W 9586   3.219   1.789   4.513 -0.2133  0.0602 -0.0987
66675W        W 9587   3.434   0.909   7.603 -0.0030 -0.0006 -0.1982
66676W        W 9588   6.379   1.260   6.332 -0.0641  0.1906 -0.0644
66677W        W 9589   5.156   1.310   5.473  0.0978 -0.0672  0.2625
66678W        W 9590   4.476  34.619   3.928 -0.0513  0.1502 -0.0972
66679W        W 9591   5.453   1.709   5.248  0.0666  0.2039 -0.2912
66680W        W 9592   6.267   3.033   6.035  0.2265  0.2355 -0.0408
66681W        W 9593   4.673   1.010   5.311  0.1617 -0.0468  0.0593
66682W        W 9594   5.527   3.390   7.130  0.3023  0.1167  0.1338
66683W        W 9595   5.675  34.295   6.070  0.2779 -0.2335  0.1145
66684W        W 9596   7.992   2.342   4.289  0.1088 -0.0914 -0.2170
66685W        W 9597   5.791   1.707   6.633  0.2815  0.1156 -0.1586
66686W        W 9598   4.657   2.384   3.858 -0.0295  0.2399  0.0373
66687W        W 9599   2.870   1.101   5.757 -0.0526  0.1158 -0.3525
66688W        W 9600   4.827   1.437   4.068  0.1801 -0.1068 -0.1791
66689W        W 9601   5.185   1.247   4.574  0.0779 -0.0976 -0.0594
66690W        W 9602   3.151   2.933   4.769 -0.0945  0.2403 -0.0618
66691W        W 9603   4.719   2.496   3.300  0.0838  0.0874 -0.2233
66692W        W 9604   3.557   3.125   6.812  0.1622 -0.2656  0.0617
66693W        W 9605   6.131  33.538   5.574  0.2195 -0.0542  0.2330
66694W        W 9606   6.462  34.695   3.640 -0.2085  0.2749 -0.1083
66695W        W 9607   5.990   1.668   5.223  0.2018  0.4891  0.0256
66696W        W 9608   7.537  34.484   6.984  0.1400 -0.2597 -0.1918
66697W        W 9609   6.540   1.903   4.560  0.2194 -0.0216 -0.0971
66698W        W 9610   6.077   0.779   7.951 -0.0157  0.0408 -0.0411
66699W        W 9611   4.960  34.451   6.621  0.0564  0.1213 -0.4289
66700W        W 9612   7.231   3.497   4.780  0.4014 -0.3349 -0.1527
66701W        W 9613   3.385   1.156   5.883 -0.0761  0.0689 -0.2641
66702W        W 9614   5.655   3.609   7.887  0.0447  0.1687 -0.1511
66703W        W 9615   3.941   1.350   6.472 -0.1217 -0.3777 -0.2305
66704W        W 9616   6.059   1.156   5.417  0.3586 -0.3218 -0.3379
66705W        W 9617   6.089   0.843   3.737  0.0530  0.1153  0.0320
66706W        W 9618   4.238   1.697   5.441  0.2335 -0.1135 -0.1283
66707W        W 9619   7.246   2.220   5.168 -0.0662 -0.2744 -0.0839
66708W        W 9620   5.903   2.355   3.814  0.0272 -0.1313  0.1936
66709W        W 9621   7.107   0.848   4.695  0.1185 -0.3722 -0.1227
66710W        W 9622   3.631   2.606   5.997 -0.0112 -0.0431 -0.0790
66711W        W 9623   6.091   2.045   5.493  0.1162 -0.1109 -0.1060
66712W        W 9624   5.602   2.135   4.630  0.1036  0.1763  0.0634
66713W        W 9625   3.609   1.885   5.386 -0.6376  0.4061  0.0403
66714W        W 9626   3.872   0.400   7.078  0.1462  0.0903  0.1216
66715W        W 9627   7.329   1.547   5.412  0.0570 -0.1779  0.0145
66716W        W 9628   6.000   0.369   5.069  0.1150  0.2359 -0.0359
66717W        W 9629   6.939   1.358   5.633  0.2237 -0.2761  0.0484
66718W        W 9630   6.878   0.451   5.647  0.2420  0.2587  0.3331
66719W        W 9631   3.892   1.114   5.927 -0.2730 -0.1479  0.3143
66720W        W 9632   3.616   0.456   7.477 -0.3685  0.4263 -0.0779
66721W        W 9633   7.769   2.809   5.952 -0.2940 -0.0839 -0.0073
66722W        W 9634   7.902  34.621   2.889  0.2005  0.0722 -0.1391
66723W        W 9635   6.475   0.266   5.780  0.0268  0.2192 -0.1730
66724W        W 9636   7.328   1.142   5.929  0.0108  0.3253 -0.2637
66725W        W 9637   7.058   1.772   4.394  0.0176  0.1052  0.2883
66726W        W 9638   2.272   1.523   4.314  0.1684  0.0202  0.3003
66727W        W 9639   5.980   1.210   6.597 -0.1934  0.0492 -0.0264
66728W        W 9640   5.756   1.271   4.360 -0.5139  0.1754  0.0069
66729W        W 9641   6.699  34.100   6.170 -0.1280 -0.1883  0.0754
66730W        W 9642   4.901   5.220   4.840  0.1601 -0.0297  0.3383
66731W        W 9643   6.589   3.726   5.360  0.0358  0.1792  0.0405
66732W        W 9644   5.160   1.084   5.032  0.3473  0.2500  0.0142
66733W        W 9645   3.569   1.180   4.694  0.2076  0.2363 -0.2487
66734W        W 9646   4.976   1.838   7.300 -0.0674 -0.2006 -0.1781
66735W        W 9647   4.206   0.677   3.701  0.0366  0.0437  0.1834
66736W        W 9648   6.827   2.434   3.854 -0.1433  0.0109 -0.0668
66737W        W 9649   6.683   3.296   5.111  0.0872  0.0753  0.1982
66738W        W 9650   7.247   2.192   7.790  0.1046  0.0644  0.3144
66739W        W 9651   6.561   1.260   3.742 -0.2829  0.2267 -0.1328
66740W        W 9652   6.477   1.224   6.955 -0.0328  0.0649 -0.0724
66741W        W 9653   4.136   2.993   4.230  0.1588  0.0002 -0.0446
66742W        W 9654   5.833  32.709   4.450 -0.1275  0.2011  0.2422
66743W        W 9655   4.425   3.051   5.213  0.0435 -0.1285  0.1030
66744W        W 9656   3.231   2.564   7.556  0.0489 -0.0696  0.3679
66745W        W 9657   5.054   2.911   4.881 -0.1119 -0.1267 -0.1450
66746W        W 9658   5.729   0.277   7.130  0.1060  0.0706 -0.2544
66747W        W 9659   6.481   0.301   5.253 -0.0916  0.0229 -0.2720
66748W        W 9660   5.615   1.210   5.191  0.3393  0.2230  0.1667
66749W        W 9661   7.179   1.342   4.586 -0.2726  0.1421 -0.1303
66750W        W 9662   4.541   2.963   6.832  0.1094 -0.0838 -0.0028
66751W        W 9663   2.432   1.894   6.161 -0.0328 -0.0546 -0.2460
66752W        W 9664   5.943   2.656   5.921  0.1765 -0.1809 -0.1963
66753W        W 9665   7.467   0.681   4.389  0.0557 -0.1503  0.0329
66754W        W 9666   3.739   1.235   5.436  0.2217 -0.2380  0.1920
66755W        W 9667   3.286  34.415   7.040  0.0189 -0.3208 -0.2427
66756W        W 9668   6.474   1.276   5.794 -0.0256  0.0286 -0.1955
66757W        W 9669   4.987   1.637   4.997 -0.1908  0.1708  0.1354
66758W        W 9670   3.766   1.587   5.816  0.1580  0.1036 -0.1367
66759W        W 9671   5.771   2.930   3.153 -0.2699  0.1862 -0.0745
66760W        W 9672   4.510   2.120   5.322  0.1651  0.0254 -0.0238
66761W        W 9673   4.140   2.009   5.848  0.2677 -0.2812  0.2448
66762W        W 9674   3.463   3.392   3.980  0.0382  0.0350 -0.0573
66763W        W 9675   7.725   2.779   2.761 -0.1505 -0.0295 -0.0329
66764W        W 9676   5.893   3.818   3.262  0.1200  0.2488 -0.0483
66765W        W 9677   5.280   4.178   5.724 -0.0162 -0.0438 -0.1652
66766W        W 9678   6.986   2.761   3.458  0.1339 -0.1647  0.1726
66767W        W 9679   4.428   2.267   4.837 -0.1612  0.0130 -0.0662
66768W        W 9680   4.548   2.042   3.424 -0.2342  0.0921 -0.0169
66769W        W 9681   7.475   3.061   4.629  0.0600  0.0080 -0.0901
66770W        W 9682   4.049   3.020   4.873  0.0588  0.2493  0.1432
66771W        W 9683   5.636   1.943   5.698 -0.3243 -0.1507 -0.1817
66772W        W 9684   7.726   1.440   3.626 -0.1530  0.0964 -0.0412
66773W        W 9685   8.475   0.864   6.919  0.2426 -0.1593 -0.2273
66774W        W 9686   7.929   0.455   5.440 -0.0301 -0.1649  0.0741
66775W        W 9687   5.804   2.691   6.427  0.3881  0.1845  0.0799
66776W        W 9688   5.598   0.845   5.520 -0.0944 -0.0015  0.1756
66777W        W 9689   5.063   1.012   3.150 -0.2985  0.0715 -0.1241
66778W        W 9690   5.320   0.425   5.773  0.0408  0.1864  0.0861
66779W        W 9691   8.621  34.101   6.037 -0.1161  0.3681  0.0908
66780W        W 9692   4.458   1.648   7.196 -0.2100  0.0230  0.0914
66781W        W 9693   5.946   2.680   4.880  0.3205 -0.0698  0.0396
66782W        W 9694   4.061   0.122   4.575 -0.1955  0.3944 -0.1058
66783W        W 9695   5.089   0.253   3.624 -0.3142  0.0276  0.4088
66784W        W 9696   7.682   0.792   5.757  0.2383 -0.0329 -0.0245
66785W        W 9697   7.253   2.699   3.031  0.0762  0.3408 -0.0288
66786W        W 9698   5.850   0.842   5.062  0.0488  0.1446 -0.0974
66787W        W 9699   5.815   3.098   4.645 -0.1172 -0.1701  0.1669
66788W        W 9700   5.162   3.240   5.858 -0.0830 -0.1621 -0.2266
66789W        W 9701   5.027   3.980   6.110  0.3023 -0.1014  0.1569
66790W        W 9702   3.924  33.789   6.058  0.2614  0.1978 -0.1806
66791W        W 9703   7.726   0.924   5.249  0.2092  0.0369 -0.0078
66792W        W 9704   3.662   0.771   5.668 -0.2929 -0.0873  0.0573
66793W        W 9705   7.008  34.097   5.702 -0.0260  0.0697  0.1906
66794W        W 9706   4.283   0.559   4.955  0.0324 -0.0742 -0.0999
66795W        W 9707   7.521   1.203   4.275  0.0889 -0.0186 -0.0557
66796W        W 9708   5.574   1.346   5.715 -0.2698  0.2946  0.1355
66797W        W 9709   4.280   1.160   7.451  0.1405 -0.2252 -0.2185
66798W        W 9710   6.380   1.455   4.532 -0.1967  0.1233  0.0141
66799W        W 9711   7.551   2.101   6.113 -0.2354  0.0734  0.2366
66800W        W 9712   7.170   2.930   4.284 -0.1968  0.3120  0.0433
66801W        W 9713   5.736   2.507   7.747 -0.2056 -0.5269 -0.1663
66802W        W 9714   4.258   0.978   4.571  0.5157  0.4183 -0.3320
66803W        W 9715   7.745   0.596   4.856 -0.1083 -0.0912 -0.2376
66804W        W 9716   4.078   1.908   4.855 -0.4738  0.1003  0.0701
66805W        W 9717   5.570   0.019   5.843 -0.1939 -0.0089  0.2328
66806W        W 9718   5.472   1.801   6.111  0.1620 -0.4300 -0.0270
66807W        W 9719   4.505   0.521   5.441 -0.1835  0.2792 -0.0283
66808W        W 9720   7.797   3.243   2.407 -0.1854  0.1135 -0.0790
66809W        W 9721   7.237   1.608   6.549 -0.0174 -0.1177  0.0683
66810W        W 9722   5.893   2.785   3.592  0.0452 -0.1019 -0.3255
66811W        W 9723   7.290   1.826   4.879 -0.0007  0.0141 -0.1056
66812W        W 9724   7.220   2.932   5.989 -0.1056  0.0167 -0.2429
66813W        W 9725   3.341   0.545   5.318 -0.2563  0.0682  0.0023
66814W        W 9726   6.408   3.344   6.853  0.0263  0.0515 -0.1170
66815W        W 9727   5.938   2.927   5.523  0.1179 -0.1048 -0.0793
66816W        W 9728   5.665  33.589   4.278  0.1451  0.0621  0.4603
66817W        W 9729   2.833   1.648   4.917 -0.0355 -0.1196 -0.0694
66818W        W 9730   3.651   2.969   4.593  0.0871 -0.2980  0.1484
66819W        W 9731   8.360   0.970   5.568 -0.1170  0.0758 -0.1071
66820W        W 9732   6.728  34.429   6.634 -0.0091  0.0658  0.0536
66821W        W 9733   7.232   3.147   3.337 -0.0072  0.0004  0.1453
66822W        W 9734   6.522   0.281   6.615 -0.0234 -0.0136 -0.1677
66823W        W 9735   4.652   3.288   5.601 -0.3432 -0.2958 -0.2130
66824W        W 9736   5.248   1.594   7.627 -0.1341  0.0705 -0.2114
66825W        W 9737   4.986   1.955   3.962 -0.4853  0.0528 -0.2593
66826W        W 9738   6.854   0.920   5.878  0.0265 -0.0246 -0.1884
66827W        W 9739   5.144   2.309   4.749 -0.1070 -0.1645  0.0272
66828W        W 9740   5.709   3.994   4.274 -0.1527  0.1192  0.2290
66829W        W 9741   7.006   4.643   5.134  0.2030  0.1043  0.3604
66830W        W 9742   6.698  34.298   3.776  0.0170 -0.0429 -0.0574
66831W        W 9743   6.768   1.477   4.862  0.2487  0.1067  0.1835
66832W        W 9744   4.840   0.510   4.936  0.1138 -0.1269 -0.0939
66833W        W 9745   8.287   1.157   3.564  0.0032  0.0694 -0.1114
66834W        W 9746   6.751  33.559   3.983  0.0457 -0.0771  0.0232
66835W        W 9747   4.495   1.667   6.019  0.0170 -0.3330  0.3030
66836W        W 9748   4.558   2.001   4.408  0.1610  0.5394 -0.0080
66837W        W 9749   6.727   2.787   2.939  0.1885 -0.0325  0.4047
66838W        W 9750   4.023   2.226   5.357 -0.0763  0.1770  0.2457
66839W        W 9751   5.916  33.666   7.330  0.2865  0.1345  0.1776
66840W        W 9752   5.350   1.353   6.325 -0.2052  0.0991  0.2435
66841W        W 9753   3.835   1.518   5.016  0.1025  0.0348 -0.3838
66842W        W 9754   4.491   0.555   4.512  0.1026 -0.0300 -0.0479
66843W        W 9755   6.964   3.448   4.302  0.1105 -0.1672 -0.3757
66844W        W 9756   5.274  34.035   6.157 -0.0415 -0.0004 -0.3290
66845W        W 9757   5.058   0.352   6.501  0.1285 -0.1968  0.0692
66846W        W 9758   6.231   2.528   5.297  0.2882 -0.2420  0.5380
66847W        W 9759   7.445   3.758   4.226  0.2245 -0.0198 -0.1025
66848W        W 9760   5.561   1.179   3.796  0.2260  0.0284 -0.2097
66849W        W 9761   7.326   2.636   7.435  0.1518 -0.2849  0.2104
66850W        W 9762   5.174   2.358   3.769 -0.2061 -0.1246  0.1838
66851W        W 9763   5.922   0.679   8.522 -0.1849  0.1764 -0.0061
66852W        W 9764   5.173  34.373   5.850 -0.2495 -0.0286 -0.0291
66853W        W 9765   5.193   0.198   4.520 -0.0586  0.0685 -0.0097
66854W        W 9766   6.466   1.624   5.445 -0.0192 -0.1761  0.0125
66855W        W 9767   6.060   3.621   4.409 -0.0577 -0.0143  0.2986
66856W        W 9768   6.733   3.663   4.717 -0.1607 -0.0766  0.1189
66857W        W 9769   5.276   2.446   5.563  0.1909 -0.3598  0.0297
66858W        W 9770   5.621   4.530   6.413  0.1287  0.1926 -0.0769
66859W        W 9771   4.650  34.405   5.701 -0.1166  0.1808 -0.1473
66860W        W 9772   6.735   1.348   4.230  0.2399  0.2350 -0.1474
66861W        W 9773   4.396   1.338   5.016  0.1338  0.0515 -0.1426
66862W        W 9774   5.475   4.821   4.131 -0.0515 -0.0864 -0.0392
66863W        W 9775   7.281   0.273   4.650 -0.3263  0.0103  0.0965
66864W        W 9776   6.529   1.145   5.213  0.1488  0.1855  0.0711
66865W        W 9777   3.863   0.864   6.777 -0.2304 -0.0835 -0.0832
66866W        W 9778   4.176   2.888   6.276 -0.0306 -0.0415  0.0612
66867W        W 9779   8.151   1.946   5.390 -0.0321 -0.0942  0.0876
66868W        W 9780   5.608   0.303   5.411  0.2121  0.1868  0.0807
66869W        W 9781   6.507   0.801   5.607 -0.1294 -0.0204 -0.2300
66870W        W 9782   6.512   2.331   4.222  0.1162 -0.0737  0.1928
66871W        W 9783   3.513   1.658   6.267  0.1176  0.0198  0.1852
66872W        W 9784   7.124   1.981   3.967  0.1586  0.1249  0.1038
66873W        W 9785   5.928   0.477   7.584 -0.0251 -0.1944  0.3350
66874W        W 9786   6.293   2.991   5.097  0.2295 -0.2441  0.0871
66875W        W 9787   4.799   1.821   6.821  0.3904 -0.0043 -0.1490
66876W        W 9788   6.357   1.590   2.097  0.1491 -0.0433  0.0149
66877W        W 9789   9.420   1.971   4.608 -0.0644 -0.1394  0.1726
66878W        W 9790   6.338   3.909   6.011 -0.0531  0.1377  0.0931
66879W        W 9791   7.529   2.785   7.996  0.1030 -0.0855 -0.0271
66880W        W 9792   6.197   3.627   4.972 -0.2372 -0.0500  0.1483
66881W        W 9793   7.959   2.520   5.543 -0.0099 -0.3263 -0.1907
66882W        W 9794   4.562   0.363   6.346  0.1329 -0.2318  0.0396
66883W        W 9795   4.249   1.634   4.410  0.0694 -0.0646 -0.2119
66884W        W 9796   4.070   0.709   6.287 -0.1457 -0.0463 -0.0027
66885W        W 9797   7.397   0.432   5.543  0.3260 -0.3461 -0.0406
66886W        W 9798   4.172   0.906   5.360 -0.0280  0.1183  0.0418
66887W        W 9799   6.432  34.587   4.182  0.0129 -0.1974  0.2402
66888W        W 9800   4.842   3.513   6.076  0.3980  0.2595  0.0855
66889W        W 9801   6.699   2.806   5.270  0.0426 -0.0593  0.0065
66890W        W 9802   4.002   2.535   9.112 -0.3015 -0.4289 -0.4256
66891W        W 9803   5.641   1.129   8.261  0.0792  0.1650  0.2009
66892W        W 9804   7.013   0.390   7.766 -0.1004 -0.0856 -0.2219
66893W        W 9805   7.279   1.569   7.022 -0.1976 -0.0851  0.0230
66894W        W 9806   3.971   0.708   9.070 -0.0149 -0.1520 -0.1042
66895W        W 9807   5.659   2.942   8.403  0.3157 -0.2047 -0.1134
66896W        W 9808   6.954   2.645   7.769 -0.1537 -0.1957 -0.1427
66897W        W 9809   5.446   2.694   8.761 -0.1776 -0.1047  0.0050
66898W        W 9810   5.959   1.736   7.421  0.2293 -0.1937  0.1424
66899W        W 9811   7.099   0.070   8.797 -0.0113  0.1736  0.2774
66900W        W 9812   5.355  34.490   7.805  0.1678  0.0195  0.0369
66901W        W 9813   3.430   2.498   9.423  0.0863  0.0300  0.1727
66902W        W 9814   6.702   1.437   9.762  0.1450  0.2483  0.0478
66903W        W 9815   4.075   2.730   8.098  0.0329  0.0418  0.3247
66904W        W 9816   4.725   1.558   9.821  0.1362  0.2077  0.0504
66905W        W 9817   5.193   1.289   8.998  0.2466  0.2446  0.0826
66906W        W 9818   5.422   3.655   8.870  0.2598 -0.0674 -0.1371
66907W        W 9819   6.578   1.773   8.893 -0.4356 -0.1089 -0.2075
66908W        W 9820   5.378   2.639   6.671  0.0523 -0.1521 -0.1802
66909W        W 9821   3.627   2.250   6.927 -0.0379 -0.0756 -0.0149
66910W        W 9822   3.371  34.166   9.615 -0.1334  0.1468 -0.0134
66911W        W 9823   4.924   2.893   8.799  0.1569 -0.2006  0.0208
66912W        W 9824   6.871   1.060  10.039 -0.2312  0.0320 -0.1238
66913W        W 9825   6.197   1.278   9.490  0.3169  0.1460 -0.1072
66914W        W 9826   4.784   2.335   8.589  0.1681  0.1096  0.0695
66915W        W 9827   5.272   2.231   8.592 -0.1640  0.1906  0.0987
66916W        W 9828   4.451   1.595   9.016 -0.0869  0.1203 -0.2753
66917W        W 9829   3.337   3.212   9.285  0.0144 -0.1244  0.3286
66918W        W 9830   5.174   2.791   7.717  0.1904  0.1880 -0.0459
66919W        W 9831   6.843   2.925   7.288 -0.1205  0.0763  0.1467
66920W        W 9832   3.568   2.119   6.417 -0.3339  0.0080 -0.1978
66921W        W 9833   7.426   4.388  12.004 -0.1846  0.0593  0.2535
66922W        W 9834   5.641   1.285   8.784 -0.0917 -0.2735  0.1318
66923W        W 9835   5.392   2.891   6.164  0.0942  0.0773 -0.0207
66924W        W 9836   6.130   2.631   8.375  0.1351  0.0211 -0.0795
66925W        W 9837   2.737   2.554   7.788 -0.3522 -0.0006  0.4572
66926W        W 9838   4.317   2.609   7.302  0.0408 -0.0438 -0.1631
66927W        W 9839   7.662   0.731   6.738  0.0141 -0.0470  0.1222
66928W        W 9840   4.941   1.589   6.234 -0.1178  0.0279  0.0723
66929W        W 9841   6.886   0.407   8.392 -0.1091  0.2011 -0.2137
66930W        W 9842   6.284  34.309   8.758 -0.0742  0.1895  0.0758
66931W        W 9843   5.721   3.676   9.950 -0.1846 -0.1965 -0.1090
66932W        W 9844   6.993   2.732   9.837  0.0157 -0.4025  0.1866
66933W        W 9845   5.609   1.955   7.740  0.0289  0.3803 -0.0635
66934W        W 9846   6.861   0.326   9.936  0.0886 -0.2575 -0.0405
66935W        W 9847   7.277   2.794   9.396 -0.2316 -0.1537  0.0787
66936W        W 9848   3.393   0.796   8.369 -0.0070  0.1921 -0.0225
66937W        W 9849   7.051   3.097   8.054  0.0424  0.2675  0.0755
66938W        W 9850   6.202   2.872   7.502 -0.0550  0.2842 -0.0133
66939W        W 9851   4.504   3.456   6.920 -0.1735 -0.3191  0.0261
66940W        W 9852   4.368   1.850   7.696 -0.0982  0.0493  0.4109
66941W        W 9853   5.047   0.498   7.621 -0.1127  0.3077 -0.1569
66942W        W 9854   6.613   1.362   9.221  0.0563 -0.1480 -0.0168
66943W        W 9855   7.215   0.723   9.193 -0.0112 -0.0198  0.1489
66944W        W 9856   6.269   1.636  10.137 -0.0980 -0.1089 -0.1016
66945W        W 9857   5.307   1.740   6.637  0.3383 -0.3702  0.3048
66946W        W 9858   7.161   1.497   9.689  0.0882 -0.2624 -0.0522
66947W        W 9859   5.708  33.778  10.526  0.1349 -0.0334 -0.0402
66948W        W 9860   4.876   2.539   6.708 -0.0402  0.1991 -0.0499
66949W        W 9861   4.552   2.134   6.405 -0.2651 -0.2876 -0.0770
66950W        W 9862   9.045   3.407   9.500 -0.2065  0.0008 -0.2537
66951W        W 9863   6.064   2.162   7.826  0.0747 -0.0922 -0.0532
66952W        W 9864   4.755   2.615   7.910  0.0665 -0.1487 -0.0611
66953W        W 9865   4.092   4.111   7.023 -0.1313 -0.0561 -0.2696
66954W        W 9866   3.613   1.120   9.146 -0.0592  0.0278  0.2187
66955W        W 9867   3.719   2.228   7.927  0.0277 -0.2110  0.0215
66956W        W 9868   3.915   2.289   9.572 -0.2645 -0.0451 -0.3508
66957W        W 9869   4.359   2.697   9.974  0.3524  0.2935 -0.0913
66958W        W 9870   6.564   0.035   8.581  0.0480 -0.0945 -0.0493
66959W        W 9871   7.902   0.240   8.240 -0.0400 -0.4171  0.0428
66960W        W 9872   4.170   1.347   6.914  0.1808  0.1851 -0.1198
66961W        W 9873   6.557   2.970   7.814 -0.0569 -0.1813  0.1494
66962W        W 9874   5.511   1.136   7.812  0.1784 -0.0799 -0.0733
66963W        W 9875   5.566   2.369   5.970 -0.1057 -0.4183 -0.0803
66964W        W 9876   5.533   2.767   9.797  0.1793  0.0151 -0.0233
66965W        W 9877   6.735   1.812   8.403 -0.1564  0.2460 -0.1155
66966W        W 9878   4.256   1.318   7.944 -0.1054 -0.1513  0.2466
66967W        W 9879   4.056  34.267   6.455 -0.2582 -0.0961  0.1162
66968W        W 9880   6.513   0.040   9.064 -0.0730  0.1260 -0.1035
66969W        W 9881   4.576   1.692   8.129 -0.0387  0.1418  0.0350
66970W        W 9882   2.243   2.170   7.683  0.0841 -0.2028 -0.1291
66971W        W 9883   5.005   3.496   7.093  0.1215  0.0935 -0.5373
66972W        W 9884   7.712   0.858   8.979 -0.2485  0.0188 -0.3942
66973W        W 9885   6.397   1.997   7.495  0.1006 -0.0704 -0.1284
66974W        W 9886   4.618  34.685   8.872  0.2041 -0.0847 -0.0274
66975W        W 9887   4.990   0.979   7.486  0.4177 -0.0018  0.0682
66976W        W 9888   4.335   2.704   8.596  0.0380 -0.1500 -0.0011
66977W        W 9889   5.547   2.110   9.607  0.2444  0.1345  0.2347
66978W        W 9890   5.896   1.431   7.981  0.0365  0.1726  0.2004
66979W        W 9891   8.493   3.638   8.378  0.1612 -0.1278  0.0158
66980W        W 9892   4.647   2.226   7.570  0.1740 -0.1357  0.0721
66981W        W 9893   7.427   2.234   8.657  0.0261 -0.1247 -0.0280
66982W        W 9894   6.380   1.781   9.399  0.1061  0.4659  0.1801
66983W        W 9895   3.134   0.568   7.469 -0.0176  0.1862 -0.0603
66984W        W 9896   6.173   3.883   9.255 -0.0931  0.0783 -0.3154
66985W        W 9897   3.733   3.690   6.673 -0.0801  0.0179 -0.1175
66986W        W 9898   4.050   1.711   8.661  0.0754 -0.2422  0.3607
66987W        W 9899   4.517   2.176   8.134  0.0460  0.1486 -0.0370
66988W        W 9900   7.613   1.025   9.452  0.0946  0.2169  0.0568
66989W        W 9901   4.621   1.183   7.116  0.2309 -0.3749 -0.1826
66990W        W 9902   7.380   0.030   9.988  0.2368  0.0221 -0.0802
66991W        W 9903   7.273   0.216   7.377  0.2048 -0.3122  0.2054
66992W        W 9904   6.856   1.129   7.356  0.0201  0.0075 -0.2306
66993W        W 9905   6.431   0.448   7.638  0.0556 -0.2655 -0.2810
66994W        W 9906   7.221   0.637   5.990 -0.4143  0.0116  0.0806
66995W        W 9907   4.925   3.103   8.290 -0.0042  0.0753 -0.2227
66996W        W 9908   6.046   2.126   9.451  0.3183 -0.0177  0.0135
66997W        W 9909   6.385   0.859   7.405  0.1688 -0.1774  0.1331
66998W        W 9910   9.165   3.072   7.120 -0.1761  0.2137  0.1551
66999W        W 9911   4.975   3.138   9.652  0.2309  0.3264 -0.1299
67000W        W 9912   6.744   1.650   7.148 -0.3310  0.1699  0.2240
67001W        W 9913   5.450  33.875   9.779 -0.1606  0.1236 -0.1724
67002W        W 9914   5.494   1.359   6.864 -0.0057 -0.1141  0.0970
67003W        W 9915   4.768   1.077   8.434  0.0216  0.0700 -0.0727
67004W        W 9916   3.110   2.819   6.087  0.1234  0.1580 -0.0096
67005W        W 9917   6.479   3.514   9.360 -0.1198 -0.2161 -0.0277
67006W        W 9918   5.057  34.499   9.789 -0.1927  0.0089  0.0474
67007W        W 9919   5.959   1.064   7.555 -0.3078  0.2702  0.1355
67008W        W 9920   6.202   2.064   8.959 -0.3416  0.0555  0.0321
67009W        W 9921   5.212   0.274   8.029 -0.1636  0.0778 -0.2558
67010W        W 9922   6.908   1.859   9.439 -0.0122  0.0925 -0.0328
67011W        W 9923   4.651  34.198   9.607 -0.1087  0.2394  0.0232
67012W        W 9924   6.048   1.591   9.035 -0.0303  0.1024  0.3458
67013W        W 9925   4.335   0.132   8.004 -0.1411 -0.0087 -0.0761
67014W        W 9926   4.317   3.541   5.953 -0.0090  0.1660  0.1297
67015W        W 9927   5.034   2.961   6.896 -0.2090  0.1583  0.2717
67016W        W 9928   4.269  34.516   9.896 -0.4172  0.0441  0.0602
67017W        W 9929   5.351  34.400  10.161  0.1322 -0.2677 -0.2854
67018W        W 9930   4.910   3.537   6.604  0.1795 -0.0019 -0.0878
67019W        W 9931   7.231   2.701   8.859 -0.0443  0.2571 -0.1063
67020W        W 9932   4.581   2.235   7.025 -0.1178 -0.1024  0.1864
67021W        W 9933   6.914   0.612  11.895  0.0126  0.2723  0.2280
67022W        W 9934   4.436   3.056   8.192 -0.1282  0.1539 -0.2377
67023W        W 9935   5.161   2.266   7.646  0.1681 -0.2064  0.2205
67024W        W 9936   5.054   1.369   8.047  0.2101 -0.4997  0.2033
67025W        W 9937   5.492   0.758   9.238  0.0760 -0.2637 -0.0721
67026W        W 9938   6.940   2.104   7.381  0.4660  0.1058  0.0696
67027W        W 9939   5.025   2.458   9.079 -0.1430  0.0600 -0.1590
67028W        W 9940   6.277   0.556   8.863 -0.0881  0.2233  0.0499
67029W        W 9941   4.770   3.200   7.839  0.1104 -0.1062 -0.0142
67030W        W 9942   6.835   0.607   7.394 -0.4045  0.1846  0.0064
67031W        W 9943   3.708   0.586   7.999  0.1771  0.0231 -0.2033
67032W        W 9944   9.482   1.091  10.268  0.0344 -0.1061 -0.1769
67033W        W 9945   4.717   0.473   8.050 -0.1878  0.0088 -0.1206
67034W        W 9946   4.059   1.914   8.132  0.2006 -0.2598 -0.1533
67035W        W 9947   4.529   3.404  10.030 -0.3476 -0.2002  0.4429
67036W        W 9948   4.886   1.879   7.822  0.0332 -0.5069 -0.0846
67037W        W 9949   4.961   2.495   7.237  0.2355 -0.3589  0.0836
67038W        W 9950   7.996   2.963   9.859  0.1174 -0.1054  0.1065
67039W        W 9951   5.363   0.299   9.074  0.0001 -0.2702 -0.1798
67040W        W 9952   4.572   0.908   7.861  0.0565  0.6876  0.0991
67041W        W 9953   5.134  34.117   9.446  0.0737  0.0453  0.1263
67042W        W 9954   4.693   4.435  10.030 -0.1018 -0.0987  0.2810
67043W        W 9955   7.160  34.085   9.095 -0.2304  0.0991  0.0036
67044W        W 9956   4.386  34.060  10.232 -0.2345 -0.0436  0.1347
67045W        W 9957   7.547   3.497   7.374 -0.0735  0.2937  0.0073
67046W        W 9958   4.309   1.387   8.470  0.0496  0.1410 -0.0432
67047W        W 9959   2.627   1.425   9.927 -0.0026  0.0610  0.3261
67048W        W 9960   3.917   1.637   7.248 -0.3477 -0.2837 -0.0729
67049W        W 9961   6.967   0.324   9.389  0.0930 -0.2624  0.1636
67050W        W 9962   4.554   2.534   8.983  0.0075  0.0251  0.0790
67051W        W 9963   4.275   1.896   6.806 -0.1969 -0.1363 -0.0713
67052W        W 9964   4.749   0.203   9.495 -0.2217  0.0672  0.0847
67053W        W 9965   6.709   0.099   7.384  0.0215 -0.1663 -0.0368
67054W        W 9966   5.255   2.115   8.112 -0.2487  0.1244 -0.0741
67055W        W 9967   5.106   0.445   8.478  0.0804 -0.0839 -0.1089
67056W        W 9968   6.120   1.109   8.329 -0.1204 -0.0102  0.0176
67057W        W 9969   4.893   0.717   9.518  0.0494 -0.0520  0.1847
67058W        W 9970   6.475   2.799   6.975 -0.0114  0.0566 -0.1859
67059W        W 9971   5.593   0.662   8.050  0.0224 -0.0088 -0.1666
67060W        W 9972   4.469   0.739   7.266  0.0914 -0.1945 -0.1822
67061W        W 9973   6.725   2.806   9.412  0.2458  0.1731  0.0421
67062W        W 9974   6.705   2.801   8.289  0.0760  0.1691 -0.0898
67063W        W 9975   5.871   1.959   8.210 -0.2082 -0.2826 -0.3387
67064W        W 9976   6.733   2.677   8.896  0.0171  0.1432  0.3003
67065W        W 9977   4.463   0.953   9.867  0.0650  0.2757  0.1152
67066W        W 9978   6.535   0.892   9.175  0.2191 -0.0753 -0.0734
67067W        W 9979   5.500   1.603   8.118  0.0345 -0.2093 -0.0949
67068W        W 9980   4.474   1.915   8.607  0.3551  0.2519  0.0435
67069W        W 9981   5.949   1.026   9.041  0.1381  0.0276  0.1045
67070W        W 9982   6.648   0.162   7.968  0.0999  0.0442  0.2282
67071W        W 9983   7.890   3.236   8.668 -0.0646  0.0222  0.0392
67072W        W 9984   6.736   0.771   7.978  0.2928  0.3194  0.0021
67073W        W 9985   7.787  34.003   9.591 -0.1556  0.0466 -0.0106
67074W        W 9986   7.097   1.209   7.787 -0.3173  0.0672 -0.0031
67075W        W 9987   5.054   1.404   7.116 -0.1290 -0.0856 -0.1395
67076W        W 9988   4.925   0.449   8.995  0.1915  0.1561 -0.0241
67077W        W 9989   4.643   0.545   6.839  0.0284 -0.0548  0.0292
67078W        W 9990   5.489   2.274   7.288  0.0684  0.1747 -0.0962
67079W        W 9991   7.181   2.647   8.330  0.1447 -0.0161  0.0575
67080W        W 9992   5.236   1.324   8.480  0.0386 -0.3935 -0.1223
67081W        W 9993   4.170   1.174   9.015 -0.1850  0.0588 -0.0774
67082W        W 9994   3.364   0.213   7.109 -0.1391 -0.0913  0.0601
67083W        W 9995   5.180   2.179   6.901  0.0647  0.1528  0.1397
67084W        W 9996   7.460   3.161   8.333  0.0025 -0.0869 -0.0725
67085W        W 9997   5.320  33.818   7.342 -0.1444  0.2972  0.0334
67086W        W 9998   3.405   3.464   7.726  0.2595 -0.2142  0.5970
67087W        W 9999   7.879   0.120   8.784 -0.2690  0.1903 -0.1675
67088W        W10000   4.802   1.958   8.965  0.0759 -0.3207  0.0753
67089W        W10001   4.364   3.547   7.956 -0.1613  0.0304 -0.0361
67090W        W10002   8.155  33.711   9.847  0.0356  0.0505 -0.4621
67091W        W10003   6.567   1.984   9.876 -0.2028  0.3462  0.0543
67092W        W10004   5.556   1.611   9.207  0.0593  0.1502  0.1136
67093W        W10005   3.630   1.999   9.829 -0.1774  0.2160 -0.0511
67094W        W10006   6.722   2.334   8.464 -0.0909 -0.0154  0.0947
67095W        W10007   5.024   3.380   8.705  0.0708 -0.0095  0.1187
67096W        W10008   5.892   1.689   9.581  0.1641 -0.2099 -0.2339
67097W        W10009   4.429   0.365   8.570  0.0440 -0.1028  0.0035
67098W        W10010   4.184   3.741   6.688 -0.2372  0.1155 -0.4114
67099W        W10011   4.447   1.364   9.466 -0.0916 -0.1716  0.0565
67100W        W10012   5.452   3.109   7.976  0.2211  0.1498  0.0984
67101W        W10013   6.359   1.453   7.402 -0.1272  0.0181  0.0467
67102W        W10014   6.169   1.650   8.442 -0.0521  0.1040 -0.0137
67103W        W10015   5.208   2.041   9.251  0.0209  0.0935  0.1559
67104W        W10016   5.489   0.709   7.457 -0.1257  0.0669 -0.2537
67105W        W10017   5.127   2.470   9.616  0.1960  0.3192  0.1508
67106W        W10018   4.082   2.362   6.802 -0.1416  0.1380 -0.1356
67107W        W10019   5.837   3.245   6.194  0.2948  0.0500 -0.1317
67108W        W10020   4.111   2.152   7.290  0.1146 -0.0801  0.1711
67109W        W10021   6.693   0.760   6.835 -0.0847  0.2159 -0.2715
67110W        W10022   6.886   1.363   8.659  0.0179 -0.0320  0.1216
67111W        W10023   8.111   0.656   7.950 -0.2419  0.2250 -0.1959
67112W        W10024   6.270   2.932   9.683 -0.0168  0.1575  0.0902
67113W        W10025   4.515  33.860   7.846  0.1981  0.1367 -0.0505
67114W        W10026   6.051   2.347   7.338  0.1259  0.1747  0.0531
67115W        W10027   5.779   1.885   8.697  0.0364  0.1690  0.1368
67116W        W10028   6.394   0.505   9.936  0.2624 -0.2765 -0.1927
67117W        W10029   7.559  32.128   8.926  0.0168 -0.0632  0.2585
67118W        W10030   4.725   2.013   5.758  0.1770  0.0410 -0.1074
67119W        W10031   6.319   1.087  10.086  0.0245 -0.0179  0.0233
67120W        W10032   4.044   4.152   7.923 -0.1804 -0.0975  0.1754
67121W        W10033   5.912   0.797   9.924 -0.1183 -0.2062  0.0177
67122W        W10034   5.112   2.613   8.276 -0.1443 -0.0115 -0.2350
67123W        W10035   3.879   0.596   8.563  0.0724 -0.0182 -0.0521
67124W        W10036   7.544   0.343   6.413  0.1712 -0.2021 -0.0961
67125W        W10037   3.125   0.983   9.297  0.4032  0.2352  0.3184
67126W        W10038   5.441   0.824   8.734  0.0216 -0.1496 -0.0804
67127W        W10039   7.114   0.837   8.658 -0.0138  0.1900  0.3290
67128W        W10040   6.294   6.536   9.580  0.4787 -0.2157  0.1180
67129W        W10041   5.222   0.253   9.660 -0.1064 -0.3426 -0.0518
67130W        W10042   6.414   0.500   8.268  0.0275 -0.2047  0.0452
67131W        W10043   6.981   1.992   6.852  0.2350 -0.0332  0.1471
67132W        W10044   2.355   0.296   9.767 -0.3096 -0.0288 -0.1188
67133W        W10045   4.726   0.887   6.343 -0.1748  0.0821 -0.1758
67134W        W10046   5.324   1.163   9.951 -0.1801 -0.2071 -0.0825
67135W        W10047   4.350   4.048  10.239 -0.1872 -0.0180 -0.4897
67136W        W10048   4.745   1.036   9.069  0.0104 -0.0287 -0.1429
67137W        W10049   6.870   2.370   5.886  0.2951 -0.0993  0.0804
67138W        W10050   6.632   1.352   8.236 -0.2047 -0.3567  0.0884
67139W        W10051   5.396   2.795   7.251  0.1177 -0.1620  0.2690
67140W        W10052   6.389   1.678   7.944  0.0267  0.0272 -0.1645
67141W        W10053   6.559   2.506   7.495  0.2438  0.2356 -0.0360
67142W        W10054   2.548  34.621   8.615 -0.0271  0.1021  0.0600
67143W        W10055   9.548   2.426  10.050 -0.5094 -0.0525 -0.1133
67144W        W10056   7.824   3.549   8.257  0.1850  0.0982  0.3223
67145W        W10057   4.803   0.048   8.354  0.1075  0.2160 -0.0350
67146W        W10058   5.281  33.661  10.196 -0.3655  0.0833  0.0290
67147W        W10059   5.636   3.108   6.685  0.0818  0.0633 -0.1297
67148W        W10060   7.170   1.412   9.153 -0.0944  0.3850  0.0669
67149W        W10061   6.452   3.843   6.982 -0.1896 -0.1606  0.2025
67150W        W10062   7.362   3.314   9.415 -0.1819 -0.1604 -0.1263
67151W        W10063   3.435   0.759   7.089 -0.0519  0.0405  0.0307
67152W        W10064   6.048   3.257   8.431 -0.2947  0.1349 -0.0090
67153W        W10065   5.180   5.037   8.479 -0.1763  0.1324 -0.3147
67154W        W10066   8.332   2.932   8.756 -0.2131  0.0762 -0.2922
67155W        W10067   6.365   1.187   7.830 -0.0481  0.0005  0.0284
67156W        W10068   7.025   2.482   7.001 -0.1055  0.0691  0.1912
67157W        W10069   5.111   0.829   8.182  0.0470 -0.1325  0.1781
67158W        W10070   6.023   0.236   8.408  0.4610  0.1743  0.1536
67159W        W10071   6.175   0.048   7.419  0.0555 -0.0428  0.2647
67160W        W10072   4.382   0.872   9.416  0.0037  0.2783 -0.0354
67161W        W10073   4.209   0.461   7.590 -0.0678  0.1105  0.0552
67162W        W10074   4.433   0.710   5.969 -0.0625 -0.3721 -0.0162
67163W        W10075   5.572   1.857  10.098 -0.0326 -0.0331  0.2477
67164W        W10076   4.720  34.505  10.179  0.0518 -0.1403 -0.0805
67165W        W10077   4.452   1.502   6.550 -0.1917  0.0433 -0.0523
67166W        W10078   6.823   1.636   7.644  0.1136  0.1069  0.0802
67167W        W10079   3.685  34.539   9.627 -0.0799  0.1092  0.1914
67168W        W10080   4.214  33.602  10.093 -0.1270 -0.2128 -0.2538
67169W        W10081   5.550   1.743   7.170  0.0977  0.0212 -0.0598
67170W        W10082   5.858   2.047   7.009  0.1682 -0.0881  0.2348
67171W        W10083   3.814   0.092   7.831  0.2928  0.2390 -0.0092
67172W        W10084   3.126   2.225   7.007 -0.3883  0.2379  0.0099
67173W        W10085   3.961   0.175   8.364 -0.2772 -0.0209  0.2104
67174W        W10086   6.480   0.471   9.427 -0.0140  0.1387  0.2147
67175W        W10087   6.256   2.148   8.375 -0.0983  0.1333  0.1091
67176W        W10088   7.230   3.121   7.609 -0.0206 -0.3162  0.3556
67177W        W10089   3.041  32.239   8.051 -0.1618 -0.0500 -0.1461
67178W        W10090   5.704   1.154   9.557 -0.1202  0.0255  0.0049
67179W        W10091   7.319   1.686   7.546  0.1316  0.3963  0.0689
67180W        W10092   6.983  34.568   9.269 -0.3653  0.0467  0.1630
67181W        W10093   5.946   1.317   7.110 -0.0025  0.0651  0.1878
67182W        W10094   9.838   3.673   8.977  0.2105  0.0456  0.0760
67183W        W10095   3.699  34.409   9.120  0.0581  0.1956  0.0249
67184W        W10096   5.551   0.341   8.457  0.0776  0.0898  0.0289
67185W        W10097   5.852   2.420   8.761  0.0249  0.3530 -0.2543
67186W        W10098   5.158   1.208   9.491  0.0951 -0.0580 -0.2496
67187W        W10099   7.366   0.739   7.617  0.0659 -0.0031  0.0022
67188W        W10100   5.988   2.848   8.838  0.1016 -0.0563 -0.0825
67189W        W10101   5.230   0.398   7.173  0.1085  0.2272 -0.3051
67190W        W10102   6.930   1.434   6.186  0.0202 -0.1342 -0.0471
67191W        W10103   5.173   4.628   9.959 -0.0061  0.1350 -0.1780
67192W        W10104   5.684   2.082   9.120 -0.0432 -0.0359  0.1917
67193W        W10105   6.616   2.093   7.970 -0.3542 -0.0033 -0.0894
67194W        W10106   4.252  33.973   9.771 -0.2175 -0.2800 -0.0881
67195W        W10107   4.902   1.581   9.259 -0.1185  0.0494 -0.0159
67196W        W10108   4.308   2.098   9.053  0.4550  0.0050  0.1731
67197W        W10109   8.014  34.364   8.664 -0.1047  0.1924  0.4078
67198W        W10110   5.243   1.806   8.814 -0.2688 -0.0046 -0.1297
67199W        W10111   5.700   0.049   8.087  0.0597  0.0102 -0.1001
67200W        W10112   4.358   1.926   9.884  0.3051 -0.2468 -0.2188
67201W        W10113   6.062   2.568   9.243  0.0470 -0.0215 -0.4240
67202W        W10114   4.200   4.736   3.654 -0.0749  0.1451 -0.3174
67203W        W10115   6.218   5.340   0.192  0.2823  0.1460 -0.0753
67204W        W10116   7.441   3.591  30.723 -0.1641  0.1812  0.2067
67205W        W10117   7.810   6.078  31.907 -0.1219  0.1582 -0.2612
67206W        W10118   3.663   4.061   2.518  0.0398  0.0463 -0.0671
67207W        W10119   6.907   6.563   0.067 -0.0987 -0.0258  0.1777
67208W        W10120   4.817   3.671   3.284  0.1633 -0.0197  0.1154
67209W        W10121   6.708   5.058   2.044  0.4321  0.0380  0.3813
67210W        W10122   7.904   4.854   1.374 -0.0968 -0.0601  0.1170
67211W        W10123   5.903   3.176  30.484  0.5050 -0.3590 -0.0101
67212W        W10124   5.089   4.270   2.586  0.1480  0.2629 -0.3136
67213W        W10125   5.925   5.368   1.771  0.2032  0.0943 -0.1896
67214W        W10126   6.297   3.963   0.273  0.2512 -0.1230  0.2860
67215W        W10127   4.384   3.278   2.090 -0.1356 -0.1400 -0.2830
67216W        W10128   6.554   5.031   3.109  0.2355 -0.1483 -0.3012
67217W        W10129   4.202   4.769   0.297  0.0786  0.0124 -0.2563
67218W        W10130   6.347   4.102   0.957  0.0502  0.1097 -0.1146
67219W        W10131   6.653   4.239   0.076 -0.1569 -0.0649 -0.1659
67220W        W10132   6.155   7.621   0.822  0.0284 -0.0338 -0.1991
67221W        W10133   6.464   5.054   2.504 -0.3723  0.0198  0.0456
67222W        W10134   8.281   2.964   2.083  0.3142 -0.0120 -0.0819
67223W        W10135   6.069   4.977  31.622  0.0263 -0.2385  0.0076
67224W        W10136   5.026   4.668   0.494  0.3588  0.1104 -0.1386
67225W        W10137   4.458   4.821   1.737  0.0151  0.0149 -0.0337
67226W        W10138   4.585   5.897   0.687 -0.0760 -0.0099  0.1400
67227W        W10139   6.158   4.378   0.546  0.1379 -0.0865  0.1710
67228W        W10140   7.150   5.389   1.971  0.2430 -0.2034  0.1818
67229W        W10141   5.181   7.316   1.228 -0.2209  0.2893  0.0706
67230W        W10142   6.381   6.051   1.472  0.2305  0.1138  0.1544
67231W        W10143   7.914   5.630   3.897 -0.1143 -0.2312  0.3704
67232W        W10144   4.007   7.360   2.701 -0.2054 -0.0618 -0.0555
67233W        W10145   4.181   8.208   2.981  0.1067  0.2287 -0.2948
67234W        W10146   6.695   6.018   0.008  0.0690 -0.3737 -0.1829
67235W        W10147   8.201   5.838  30.861  0.2918 -0.1327  0.0128
67236W        W10148   6.810   6.602   2.704  0.3267 -0.4118 -0.0189
67237W        W10149   5.836   7.577   4.033 -0.1264  0.2266  0.1379
67238W        W10150   4.931   5.197   0.148  0.4832 -0.0503 -0.0069
67239W        W10151   6.397   5.482   2.044 -0.0531 -0.1151 -0.0357
67240W        W10152   4.841   5.694   3.118 -0.1183 -0.0942  0.0627
67241W        W10153   5.778   4.892   1.642  0.0116 -0.3601 -0.2505
67242W        W10154   4.644   3.975   2.315  0.0851 -0.0714  0.1342
67243W        W10155   5.914   5.856  31.851 -0.1066  0.3701 -0.2965
67244W        W10156   6.365   5.057   1.517  0.0218  0.1653  0.0716
67245W        W10157   4.645   4.953   3.680  0.1047  0.0322 -0.1409
67246W        W10158   3.745   6.519   1.440  0.2786  0.1348 -0.1092
67247W        W10159   6.111   5.085   3.358 -0.1660  0.1114  0.0747
67248W        W10160   5.369   7.120   0.806  0.2744 -0.0911  0.0920
67249W        W10161   7.768   3.301  31.198 -0.2781  0.0490  0.2645
67250W        W10162   5.615   5.490  31.259 -0.0783  0.1424 -0.2368
67251W        W10163   8.676   4.162   0.183 -0.3544  0.0774 -0.3676
67252W        W10164   5.605   3.331   1.217 -0.1996 -0.2149 -0.2526
67253W        W10165   4.467   5.463   2.130  0.0558 -0.1802  0.3076
67254W        W10166   6.027   3.394   1.566  0.1439  0.1289 -0.0455
67255W        W10167   7.783   5.172   2.392 -0.2350  0.1475 -0.0613
67256W        W10168   6.830   6.317  30.203 -0.0225 -0.0102 -0.2079
67257W        W10169   8.183   4.870   1.860  0.1143 -0.0136  0.0107
67258W        W10170   5.579   6.124   2.723  0.2341 -0.0434 -0.2034
67259W        W10171   3.836   6.236   1.018 -0.1000 -0.2614  0.0952
67260W        W10172   6.114   6.299  30.874 -0.1461  0.0292  0.0537
67261W        W10173   7.063   6.594   0.545 -0.1948  0.0149 -0.1611
67262W        W10174   6.676   7.524  30.325 -0.0695  0.3338  0.2247
67263W        W10175   5.829   4.485  31.614  0.0034 -0.0212  0.2512
67264W        W10176   4.184   6.070   1.414 -0.0066  0.0335 -0.0124
67265W        W10177   4.196   5.072   2.039  0.0665 -0.4175  0.2369
67266W        W10178   5.560   4.792   0.590 -0.1899 -0.1642  0.1143
67267W        W10179   6.422   6.345   2.398 -0.3618  0.3240 -0.1006
67268W        W10180   4.653   6.220   2.623 -0.0217 -0.4615  0.6228
67269W        W10181   6.906   6.383   1.447 -0.1196 -0.0079 -0.1931
67270W        W10182   5.519   6.690   1.859 -0.1521 -0.1028 -0.0063
67271W        W10183   7.044   5.292   0.594  0.3445  0.2912 -0.1860
67272W        W10184   6.984   4.165  31.668 -0.0218  0.0070 -0.1274
67273W        W10185   6.517   3.923   2.491 -0.0913  0.3685  0.1295
67274W        W10186   6.488   4.559   2.243  0.2102  0.4166  0.0474
67275W        W10187   5.441   5.064  30.918  0.0879 -0.1088 -0.1099
67276W        W10188   5.816   5.103   0.285  0.4976  0.1471 -0.0250
67277W        W10189   6.349   5.988   1.996  0.4309 -0.2595 -0.0392
67278W        W10190   5.800   6.614  31.681 -0.2171  0.2864  0.0426
67279W        W10191   4.403   7.729   2.258 -0.2285 -0.0632 -0.0933
67280W        W10192   5.279   5.131   4.517  0.2248  0.0540  0.2076
67281W        W10193   5.026   5.319   2.358 -0.0014 -0.2204 -0.0573
67282W        W10194   5.642   6.660  30.194  0.1251 -0.2064 -0.0472
67283W        W10195   4.483   5.509   0.342 -0.0320 -0.0025 -0.1813
67284W        W10196   5.269   7.326   0.218 -0.1702  0.0620  0.0105
67285W        W10197   4.044   3.180   3.161  0.0051 -0.0385 -0.1426
67286W        W10198   5.986   5.350   2.406 -0.2725  0.5414 -0.0042
67287W        W10199   7.332   4.004   0.703  0.1262  0.2268 -0.0640
67288W        W10200   4.831   4.561   3.384  0.0813  0.1519 -0.2336
67289W        W10201   7.471   3.526   0.021  0.1795  0.3175 -0.0624
67290W        W10202   5.344   6.061   1.156 -0.0661 -0.3311  0.0075
67291W        W10203   8.198   7.675   0.562 -0.1319 -0.0966 -0.0937
67292W        W10204   7.787   6.085  30.396 -0.4935 -0.0303 -0.2372
67293W        W10205   6.980   6.770  30.490  0.0367 -0.4389 -0.2666
67294W        W10206   3.813   4.629   2.264  0.1875  0.2960  0.2687
67295W        W10207   4.410   4.382   0.555 -0.0524  0.1038  0.2633
67296W        W10208   4.689   5.666   2.562  0.0963 -0.0766 -0.1731
67297W        W10209   4.035   4.992   3.214 -0.0468  0.1916 -0.0658
67298W        W10210   5.511   5.118   2.297  0.3160  0.2811 -0.1400
67299W        W10211   5.231   4.317   0.024 -0.0024 -0.2174 -0.1741
67300W        W10212   6.005   4.385   1.328  0.0885 -0.0285  0.0619
67301W        W10213   6.041   3.781   0.712  0.0956  0.2261  0.1596
67302W        W10214   5.324   5.437  31.919  0.1918 -0.2709 -0.1085
67303W        W10215   7.709   4.017   3.105 -0.0519  0.0687 -0.2010
67304W        W10216   5.530   5.987  30.912  0.0982 -0.0302  0.1551
67305W        W10217   7.511   5.854   4.034 -0.1757  0.1603 -0.5226
67306W        W10218   7.681   5.080   1.781  0.1749 -0.2435  0.3158
67307W        W10219   4.834   4.792   2.256  0.2565  0.0823  0.0764
67308W        W10220   4.446   3.445  30.860  0.2034  0.0328 -0.0741
67309W        W10221   5.152   6.894   1.560  0.0639 -0.1173  0.0186
67310W        W10222   5.982   6.319   0.068 -0.1131  0.0119 -0.0726
67311W        W10223   5.793   4.371   0.839 -0.2307  0.1347 -0.4763
67312W        W10224   8.196   5.818   0.007 -0.1275  0.0294 -0.1178
67313W        W10225   5.910   5.861   1.053  0.0241 -0.2653 -0.5193
67314W        W10226   4.042   5.475   2.475 -0.0558  0.0438 -0.2249
67315W        W10227   5.385   4.422   3.050  0.1100  0.0942  0.2069
67316W        W10228   6.561   5.232   3.629 -0.3080  0.0220 -0.3710
67317W        W10229   7.848   4.795   0.277  0.0656 -0.3608 -0.2095
67318W        W10230   4.654   3.687   0.053 -0.0179  0.1866 -0.0243
67319W        W10231   7.663   5.527   2.061  0.0466 -0.1412 -0.1192
67320W        W10232   4.036   7.105  31.637  0.0790 -0.1326  0.0196
67321W        W10233   4.149   5.856   0.967  0.0565  0.1308  0.1686
67322W        W10234   5.445   6.113   0.020 -0.1766 -0.0811  0.0275
67323W        W10235   7.533   4.246   1.087 -0.0865  0.0967  0.1214
67324W        W10236   4.793   6.323   3.149  0.0227 -0.2470  0.1159
67325W        W10237   5.899   4.771   2.460  0.3236 -0.3004 -0.0302
67326W        W10238   6.473   5.776   1.005  0.0128 -0.0176  0.4486
67327W        W10239   5.071   5.677   4.435  0.2341  0.4811  0.3246
67328W        W10240   6.727   3.386   0.381 -0.5975 -0.0549 -0.2209
67329W        W10241   7.311   4.193  31.239  0.1659 -0.2555  0.1392
67330W        W10242   6.564   4.604   0.998 -0.1888 -0.2126 -0.2175
67331W        W10243   8.184   5.852  31.492  0.2378 -0.0127 -0.0010
67332W        W10244   7.189   5.561  31.081  0.4092 -0.2086  0.4676
67333W        W10245   6.503   3.479  31.229  0.0890  0.0085  0.1460
67334W        W10246   4.576   5.098   3.195  0.3468  0.1080 -0.1412
67335W        W10247   6.242   4.638   1.738 -0.2949  0.2558  0.0051
67336W        W10248   6.314   4.697   0.086  0.1423  0.0078 -0.0601
67337W        W10249   7.427   4.049  31.734  0.1969 -0.0010  0.1619
67338W        W10250   7.627   6.173   1.979  0.2653  0.0413  0.1456
67339W        W10251   4.634   6.107   1.635 -0.0685  0.0169  0.3297
67340W        W10252   5.300   5.140   1.491  0.2620  0.1608 -0.1456
67341W        W10253   7.391   6.289   0.382 -0.4356 -0.0609 -0.1370
67342W        W10254   3.783   3.736   4.024 -0.0074  0.1795  0.3579
67343W        W10255   6.082   5.300  31.169  0.2638  0.1003  0.0356
67344W        W10256   6.917   3.986   1.623  0.1619  0.4117  0.1457
67345W        W10257   4.534   7.917   1.257 -0.0824  0.1568 -0.0463
67346W        W10258   7.291   3.587   1.627 -0.1698  0.0676 -0.0375
67347W        W10259   6.351   4.563  31.499 -0.2164  0.1539 -0.1495
67348W        W10260   5.008   4.500   3.840 -0.0582 -0.1058 -0.1359
67349W        W10261   6.748   5.463   2.382  0.3691  0.0003  0.4167
67350W        W10262   6.914   3.958   1.014  0.2233  0.1561  0.3101
67351W        W10263   5.717   4.781   3.099  0.0350  0.1609  0.0206
67352W        W10264   4.111   4.148   0.950  0.2247  0.0545 -0.1567
67353W        W10265   5.879   4.548   3.498  0.1982  0.1289  0.3285
67354W        W10266   5.374   5.636   2.496 -0.1282 -0.0770  0.0003
67355W        W10267   4.902   7.866   2.166 -0.0183  0.1983 -0.0870
67356W        W10268   5.824   5.952   1.660  0.2827  0.2061  0.2757
67357W        W10269   7.234   4.848   0.342 -0.1744 -0.0845 -0.0915
67358W        W10270   7.392   4.988   3.537 -0.0537  0.0172 -0.2902
67359W        W10271   6.099   3.752  31.263 -0.1061 -0.0679 -0.2153
67360W        W10272   5.090   7.780   0.222  0.0597 -0.2364 -0.0758
67361W        W10273   6.294   5.568  31.564 -0.1194 -0.1087 -0.4051
67362W        W10274   6.108   3.842   2.167  0.1627  0.1161  0.1442
67363W        W10275   6.039   6.118   2.865 -0.1628 -0.0938 -0.0203
67364W        W10276   5.998   5.873  31.314  0.0008  0.0059 -0.3514
67365W        W10277   5.975   4.098   1.741 -0.2599 -0.1236 -0.2694
67366W        W10278   5.752   7.094   0.262  0.0195 -0.0596  0.0356
67367W        W10279   6.148   4.391   2.633 -0.1436 -0.2075  0.0026
67368W        W10280   4.055   7.504   1.967  0.0459  0.0891 -0.0390
67369W        W10281   5.749   4.545   0.125 -0.3179 -0.0094 -0.0903
67370W        W10282   3.851   6.392   0.439  0.0536 -0.0873  0.1714
67371W        W10283   8.386   4.678   1.406 -0.1542 -0.2058  0.1616
67372W        W10284   6.430   7.166  31.431  0.1126 -0.1621  0.3730
67373W        W10285   2.945   4.814   2.601 -0.2459  0.3496  0.1705
67374W        W10286   5.871   2.790   1.693  0.0032  0.0284 -0.0525
67375W        W10287   4.570   6.815   2.430 -0.0792 -0.0076 -0.0704
67376W        W10288   5.012   5.550   1.184  0.2593  0.0773 -0.0977
67377W        W10289   6.918   3.920  31.211 -0.0226 -0.0882 -0.1569
67378W        W10290   6.791   6.003   2.403  0.0705  0.0262 -0.3974
67379W        W10291   5.394   4.547   2.222  0.1285  0.0278 -0.0084
67380W        W10292   4.618   5.050   0.560  0.1971 -0.1889  0.0259
67381W        W10293   7.515   4.754   1.141  0.1609 -0.0497  0.2469
67382W        W10294   4.615   4.698   1.066 -0.0125 -0.0896 -0.0908
67383W        W10295   5.145   7.358   1.801  0.1297 -0.2037  0.0382
67384W        W10296   6.061   6.362   1.257  0.0856 -0.2109  0.1058
67385W        W10297   4.591   4.896  30.929  0.1207  0.0077  0.3645
67386W        W10298   5.289   6.606   0.891 -0.1404  0.0924  0.0587
67387W        W10299   6.275   5.107   4.384 -0.2757  0.1283 -0.0555
67388W        W10300   6.125   5.049   2.840  0.3759 -0.0177  0.0442
67389W        W10301   5.935   3.174   0.520 -0.3013  0.2355 -0.2440
67390W        W10302   4.494   4.852  31.584  0.2790 -0.2775 -0.3658
67391W        W10303   7.030   5.251   0.037  0.3766 -0.0358  0.3515
67392W        W10304   8.131   4.455   3.040  0.0002  0.0700 -0.3299
67393W        W10305   6.202   4.998   2.076 -0.1022  0.0543  0.1035
67394W        W10306   5.062   5.331   4.090  0.0712 -0.0204  0.0247
67395W        W10307   6.140   2.865   1.223  0.0845 -0.2097 -0.2748
67396W        W10308   8.273   6.870   2.744 -0.4373 -0.1966  0.3063
67397W        W10309   5.561   5.553   4.620  0.1520  0.0758 -0.0954
67398W        W10310   5.725   5.569   0.238  0.0475 -0.1192 -0.0064
67399W        W10311   5.386   5.077  31.500 -0.0188  0.0231 -0.3445
67400W        W10312   6.213   5.941   0.273  0.1513 -0.1113 -0.0946
67401W        W10313   6.662   3.131   3.348 -0.1058 -0.1109  0.2857
67402W        W10314   4.894   6.326   2.193  0.2471 -0.3658 -0.0365
67403W        W10315   4.795   5.663   1.717  0.0363  0.0001 -0.1256
67404W        W10316   3.902   5.429   1.891 -0.0698 -0.2864 -0.0803
67405W        W10317   6.394   3.124   0.793  0.1890  0.3630  0.1375
67406W        W10318   5.692   7.669   0.027  0.2445  0.1484 -0.0410
67407W        W10319   5.954   3.879   1.214 -0.1633 -0.1769 -0.3627
67408W        W10320   7.235   3.870   2.103 -0.0548 -0.3232 -0.2664
67409W        W10321   4.429   6.358  30.245 -0.3362  0.0175  0.0143
67410W        W10322   6.254   4.293   4.132  0.1928  0.0121 -0.1432
67411W        W10323   4.514   4.088   3.141 -0.2205 -0.1259 -0.0626
67412W        W10324   7.130   4.513   0.863 -0.1954  0.0854 -0.0642
67413W        W10325   5.268   3.573   3.538  0.3656  0.2054  0.0361
67414W        W10326   6.730   5.810   3.633  0.0226  0.1811 -0.0246
67415W        W10327   4.506   5.891   3.551 -0.0462  0.0816  0.2955
67416W        W10328   5.022   4.845  31.163 -0.0789 -0.3752  0.0190
67417W        W10329   4.347   4.068   0.139  0.1394 -0.1268  0.0808
67418W        W10330   5.607   4.476   1.743  0.2645  0.0854  0.0655
67419W        W10331   6.896   4.792   2.434 -0.1010 -0.2006  0.1021
67420W        W10332   6.760   4.948   0.340  0.1625 -0.0160  0.1327
67421W        W10333   8.021   4.685   0.766  0.1272  0.1246  0.0341
67422W        W10334   5.333   5.486   1.912  0.1803 -0.0927 -0.0935
67423W        W10335   8.422   5.250   0.536  0.3142 -0.1578 -0.1022
67424W        W10336   4.842   6.402  30.642  0.2138  0.0278  0.1004
67425W        W10337   5.789   5.353  31.675  0.0162 -0.0260  0.2854
67426W        W10338   5.270   4.844   2.665  0.0305  0.0446 -0.1115
67427W        W10339   6.664   4.433   0.558  0.0252  0.0949 -0.0023
67428W        W10340   6.913   3.030   0.677 -0.0623  0.0485  0.0079
67429W        W10341   7.004   4.908   1.143 -0.0357 -0.0245 -0.0101
67430W        W10342   6.821   4.256   2.294  0.1020  0.2049  0.5309
67431W        W10343   6.964   5.470   1.072  0.0259 -0.1255 -0.0189
67432W        W10344   3.431   4.834   2.581  0.0123  0.0271 -0.1372
67433W        W10345   7.064   5.685   2.698  0.3159 -0.0403 -0.0626
67434W        W10346   6.960   4.709  31.949  0.1319  0.3163 -0.2199
67435W        W10347   6.934   5.168   2.768 -0.1562  0.0318 -0.1179
67436W        W10348   8.634   5.752  31.300  0.0015  0.0363  0.4116
67437W        W10349   6.463   5.000  31.275 -0.1447  0.1573  0.0268
67438W        W10350   3.528   3.571   2.159 -0.3167 -0.0737 -0.1122
67439W        W10351   4.348   4.650   2.306  0.2624 -0.0644  0.4064
67440W        W10352   6.178   4.287  31.886 -0.0082 -0.1994 -0.2553
67441W        W10353   6.811   3.988   2.948  0.2555  0.0908  0.0828
67442W        W10354   5.266   7.565  31.744  0.1303 -0.1635 -0.3635
67443W        W10355   5.862   5.415   0.701 -0.0972  0.0473 -0.1667
67444W        W10356   6.466   5.373   0.603 -0.2141  0.2088 -0.0373
67445W        W10357   4.446   5.317   1.652 -0.0391  0.0520  0.0024
67446W        W10358   5.861   5.971   4.401  0.0657 -0.0783 -0.0830
67447W        W10359   6.028   4.227  31.158  0.1175  0.1367 -0.2730
67448W        W10360   4.196   3.756  31.788  0.0653 -0.2294  0.3345
67449W        W10361   5.851   7.544   3.033  0.2415  0.0396  0.3151
67450W        W10362   7.854   5.029   5.506 -0.0321 -0.0420  0.2070
67451W        W10363   5.250   1.655   1.341 -0.1480  0.0905 -0.0108
67452W        W10364   7.296   4.849   2.156 -0.1878 -0.0334 -0.0558
67453W        W10365   5.290   6.132   0.687 -0.0872  0.1220 -0.0677
67454W        W10366   7.798   4.237   2.615  0.1741 -0.3016 -0.0329
67455W        W10367   4.454   6.918   1.137 -0.1272  0.0617  0.1264
67456W        W10368   4.112   4.742   0.819  0.0191 -0.0402 -0.0861
67457W        W10369   6.257   8.175   1.203 -0.1379 -0.1628  0.0920
67458W        W10370   5.864   4.206   2.993  0.2945 -0.2056  0.1039
67459W        W10371   6.532   5.092  31.846  0.2309  0.0075 -0.1579
67460W        W10372   5.797   5.302   1.255  0.0872 -0.0978 -0.0111
67461W        W10373   8.403   4.466   2.029 -0.0484  0.0292 -0.1465
67462W        W10374   5.228   4.812   1.881  0.1598  0.1973 -0.1108
67463W        W10375   4.315   5.313   0.821  0.0095  0.2519 -0.0677
67464W        W10376   5.021   7.834   1.238  0.1106  0.1180 -0.2794
67465W        W10377   8.313   5.629   1.005  0.1392  0.0707 -0.0051
67466W        W10378   5.061   6.411   0.368  0.2133 -0.5054  0.3458
67467W        W10379   3.294   5.197   3.380  0.0102 -0.0412  0.0883
67468W        W10380   5.091   5.312   2.818  0.2095 -0.1630 -0.0170
67469W        W10381   6.442   3.725   1.582 -0.0095 -0.1754  0.1189
67470W        W10382   6.984   3.368  31.950  0.0728  0.1746  0.1839
67471W        W10383   4.605   6.817  30.420 -0.0241 -0.1806  0.0141
67472W        W10384   5.095   6.650   2.511  0.0699  0.2898  0.3259
67473W        W10385   3.951   5.908   2.171 -0.4326 -0.1615 -0.1672
67474W        W10386   5.585   8.475   0.685 -0.0802 -0.2983  0.1278
67475W        W10387   7.747   3.627   0.476 -0.0334  0.0082  0.0061
67476W        W10388   7.687   6.483  29.890  0.0675  0.0890 -0.1222
67477W        W10389   6.477   7.228   0.778 -0.2445  0.0694 -0.2411
67478W        W10390   5.122   4.641  30.747  0.2039 -0.1324  0.1732
67479W        W10391   6.204   6.153   0.707  0.0295 -0.3176 -0.0862
67480W        W10392   3.693   7.550  31.673  0.1488  0.0139  0.2006
67481W        W10393   6.496   6.519  30.556  0.5181 -0.0503 -0.0378
67482W        W10394   4.978   6.965   0.416 -0.0053  0.0294  0.1411
67483W        W10395   7.309   7.055   4.354 -0.2455 -0.1965 -0.1603
67484W        W10396   6.249   3.482   0.302  0.1096  0.0234 -0.2347
67485W        W10397   7.261   5.835   2.276  0.2156  0.1133 -0.0829
67486W        W10398   8.146   5.824   0.495 -0.2154 -0.0167 -0.1512
67487W        W10399   6.126   7.517   3.647 -0.1328  0.2656  0.2655
67488W        W10400   5.488   5.655   1.435 -0.1035  0.2650 -0.1289
67489W        W10401   5.913   4.235  30.228  0.0383  0.1737  0.0816
67490W        W10402   3.554   4.993   3.058  0.3128  0.1022 -0.1103
67491W        W10403   7.147   3.115   2.778 -0.1729 -0.0961 -0.1813
67492W        W10404   4.425   6.569   2.861  0.1509 -0.0890  0.2098
67493W        W10405   6.333   6.622  31.352  0.1224 -0.2042 -0.1308
67494W        W10406   5.323   4.789  31.935  0.0942  0.1619  0.1277
67495W        W10407   5.171   5.910   2.111  0.0361  0.0572 -0.1205
67496W        W10408   7.685   2.747   3.272  0.1159 -0.2919 -0.1559
67497W        W10409   5.267   6.488  31.543 -0.3406 -0.1127  0.1504
67498W        W10410   4.830   3.656   1.878 -0.0150  0.1739 -0.2880
67499W        W10411   5.606   7.578   0.528 -0.3637 -0.2575 -0.3000
67500W        W10412   5.201   7.521   2.452  0.1271 -0.2369  0.1574
67501W        W10413   7.065   7.378   3.595 -0.2933  0.2234  0.2438
67502W        W10414   4.264   3.457   0.287  0.0585 -0.0343  0.2581
67503W        W10415   8.968   5.284   2.018  0.0635  0.0740 -0.2030
67504W        W10416   6.528   5.156   1.037 -0.0280 -0.1431 -0.4794
67505W        W10417   7.805   4.667   2.218 -0.1121  0.2481  0.1254
67506W        W10418   6.363   4.845   0.583  0.3087  0.1365  0.1680
67507W        W10419   8.197   5.127   1.008  0.3309  0.0202 -0.3333
67508W        W10420   6.776   5.283   1.560  0.0601  0.1139 -0.0960
67509W        W10421   4.848   4.033   1.533  0.1407  0.0995 -0.1556
67510W        W10422   6.033   5.806  30.767  0.1299 -0.1510 -0.1809
67511W        W10423   8.155   6.762   3.241  0.0041  0.1919 -0.2140
67512W        W10424   8.241   3.892   0.463 -0.1611  0.2631  0.0649
67513W        W10425   5.423   5.672   3.019  0.2963  0.4100 -0.2228
67514W        W10426   5.531   4.614   1.224  0.1860 -0.2482 -0.1320
67515W        W10427   7.425   3.560   0.994 -0.2561  0.0445 -0.2809
67516W        W10428   5.089   4.730   1.096 -0.1975 -0.2770 -0.1624
67517W        W10429   5.215   3.501   2.999  0.2415 -0.0213  0.1556
67518W        W10430   6.696   6.565   4.145  0.3293  0.1885 -0.0892
67519W        W10431   4.122   3.677   2.110  0.3837 -0.1365 -0.1498
67520W        W10432   8.343   6.450   0.677  0.1209  0.1004 -0.1761
67521W        W10433   7.338   5.347   2.441  0.2551 -0.1798 -0.2840
67522W        W10434   4.935   7.927  31.764 -0.0399  0.1263  0.2028
67523W        W10435   7.146   5.756   0.054 -0.0331 -0.2391 -0.0979
67524W        W10436   7.024   5.719   4.054 -0.0445  0.2649  0.0198
67525W        W10437   4.513   4.648   4.082 -0.2454 -0.2636 -0.0306
67526W        W10438   6.411   6.801   1.209  0.1773  0.1074 -0.0356
67527W        W10439   8.360   4.891   3.132  0.1440  0.0199 -0.2461
67528W        W10440   6.103   3.728  31.783 -0.1415 -0.0819 -0.1054
67529W        W10441   6.060   4.820   1.019 -0.0402  0.0331 -0.3298
67530W        W10442   4.210   7.236   1.489  0.0378  0.0882  0.2029
67531W        W10443   7.983   4.145   2.151  0.0660  0.2641 -0.1758
67532W        W10444   5.627   5.033   3.705  0.0532  0.1301 -0.1699
67533W        W10445   4.714   6.809  30.922  0.0474  0.1046  0.3642
67534W        W10446   7.346   3.463   2.399 -0.2835 -0.2466 -0.1646
67535W        W10447   5.960   6.469   1.815 -0.0046 -0.1688 -0.0071
67536W        W10448   5.662   6.103   3.779  0.2624 -0.2517 -0.0781
67537W        W10449   4.244   6.373   0.139  0.0328  0.0820  0.0317
67538W        W10450   4.852   4.679   2.836  0.1324  0.1293 -0.3140
67539W        W10451   6.017   6.748   0.901 -0.0698 -0.3144 -0.0236
67540W        W10452   5.481   7.589   0.990  0.1083 -0.1145  0.0841
67541W        W10453   7.177   5.763   0.645 -0.0550  0.0042  0.0021
67542W        W10454   6.733   3.918   0.555 -0.3180 -0.2196  0.0288
67543W        W10455   7.684   5.574  31.864 -0.0245 -0.2261 -0.1737
67544W        W10456   6.027   3.390   0.993  0.1130  0.0625  0.0066
67545W        W10457   7.258   5.471  31.607  0.1711 -0.0973  0.0195
67546W        W10458   6.754   3.751   2.085  0.2796 -0.1589 -0.0492
67547W        W10459   6.418   6.535   1.595  0.1376 -0.1674  0.0430
67548W        W10460   4.550   6.032  29.738  0.1304 -0.0117 -0.1601
67549W        W10461   5.639   6.378  31.216  0.0023  0.2615 -0.3539
67550W        W10462   5.099   5.990   1.575  0.0942  0.0351  0.1526
67551W        W10463   6.099   4.085   3.717 -0.2989 -0.1499 -0.1879
67552W        W10464   5.147   4.054   2.065 -0.1679 -0.1965 -0.3148
67553W        W10465   4.523   5.991   2.160  0.0133 -0.0125 -0.2034
67554W        W10466   6.492   4.198   1.922  0.0719 -0.2405  0.1369
67555W        W10467   7.314   7.300  31.558  0.1126 -0.3126  0.0738
67556W        W10468   4.788   3.669   2.752  0.2843 -0.2343 -0.2230
67557W        W10469   4.492   4.307   2.644 -0.1549  0.0732  0.2355
67558W        W10470   6.674   5.576   0.220  0.1645  0.3206 -0.0104
67559W        W10471   6.742   6.040   0.569 -0.3024  0.3424  0.0316
67560W        W10472   6.738   4.704   1.673  0.2303 -0.1272 -0.3650
67561W        W10473   8.539   5.868   4.178 -0.3404  0.1463 -0.0043
67562W        W10474   4.273   7.041  31.054  0.2256  0.1504  0.3292
67563W        W10475   6.106   5.621   4.189  0.1664 -0.1007 -0.0644
67564W        W10476   5.932   3.028   4.174  0.3027  0.0698  0.1551
67565W        W10477   3.724   6.351  31.966  0.1006 -0.1571  0.2346
67566W        W10478   6.230   4.613   3.063  0.0306 -0.0471  0.1727
67567W        W10479   6.759   5.489  31.715  0.1230 -0.1181  0.1042
67568W        W10480   6.376   6.042  31.605  0.0288 -0.1464  0.3558
67569W        W10481   4.785   6.024   1.182  0.0871 -0.0432  0.2084
67570W        W10482   4.838   7.324   2.167 -0.2514  0.0214 -0.1959
67571W        W10483   3.685   3.449   2.821 -0.0172  0.1045  0.4173
67572W        W10484   6.797   6.379  31.591  0.5904 -0.1573  0.0060
67573W        W10485   6.065   6.012   3.381  0.0795  0.1121 -0.1371
67574W        W10486   7.873   5.230  31.522 -0.2566 -0.1437  0.2190
67575W        W10487   9.255   4.811   1.812  0.1605 -0.0063 -0.1986
67576W        W10488   6.280   4.833  30.871 -0.1165 -0.0625 -0.0848
67577W        W10489   3.742   4.567   3.013  0.0120 -0.1241 -0.2478
67578W        W10490   4.048   4.422   2.665  0.1865 -0.1873  0.2052
67579W        W10491   8.652   6.011   3.154  0.0595  0.0726 -0.1043
67580W        W10492   5.998   4.456   2.109  0.1545 -0.0467 -0.1745
67581W        W10493   8.447   4.428  31.820 -0.1571  0.0307  0.1949
67582W        W10494   5.857   7.274   0.770  0.0261  0.2378 -0.1871
67583W        W10495   4.903   5.175   1.906  0.1717  0.0493 -0.0672
67584W        W10496   6.726   4.311  30.919 -0.0849 -0.1701  0.1485
67585W        W10497   7.456   4.840   2.614 -0.2400  0.1032  0.1054
67586W        W10498   5.522   6.428   1.384  0.4531 -0.1795 -0.2471
67587W        W10499   6.490   6.257   3.667  0.2002  0.0160 -0.0649
67588W        W10500   6.508   3.583   0.833  0.0183 -0.1744  0.2517
67589W        W10501   8.690   6.077  30.855  0.1719 -0.3597  0.1881
67590W        W10502   6.331   5.550   1.489 -0.1475 -0.0270 -0.1015
67591W        W10503   7.359   8.733   4.388 -0.0314  0.0427  0.2512
67592W        W10504   5.887   6.780   2.218  0.1888  0.0029  0.2460
67593W        W10505   8.240   5.617   3.477  0.1179  0.3229  0.2776
67594W        W10506   5.331   3.072   3.293 -0.1849 -0.3341  0.0761
67595W        W10507   5.085   5.531  31.454 -0.1717  0.0183 -0.1530
67596W        W10508   7.177   4.412   1.348  0.1401  0.1153 -0.1631
67597W        W10509   8.245   5.405   2.038 -0.0297  0.2179 -0.0688
67598W        W10510   3.856   4.985   1.609  0.0521 -0.0707 -0.2087
67599W        W10511   6.073   3.482  30.028  0.0651  0.3839  0.0456
67600W        W10512   5.579   6.098   3.265 -0.2942 -0.0347 -0.0969
67601W        W10513   5.707   6.323   0.906  0.2393  0.0908 -0.3215
67602W        W10514   4.160   6.112   6.189 -0.3817  0.0497  0.2250
67603W        W10515   5.732   4.358   3.910 -0.0816 -0.1193  0.1247
67604W        W10516   7.219   4.295   2.643  0.1403  0.1499  0.2475
67605W        W10517   7.000   5.815   4.563  0.1535  0.3400  0.2829
67606W        W10518   2.426   4.103   5.121 -0.0064 -0.1656  0.2495
67607W        W10519   7.173   6.705   4.023 -0.3587 -0.4687 -0.4703
67608W        W10520   2.859   3.277   4.449  0.5349 -0.0916  0.0365
67609W        W10521   6.969   5.727   5.401 -0.1377 -0.3261  0.0388
67610W        W10522   5.854   6.104   5.869 -0.0206 -0.1371  0.1434
67611W        W10523   6.401   5.464   2.769 -0.0155 -0.3261  0.0104
67612W        W10524   6.032   4.036   4.662 -0.0808  0.2143 -0.0853
67613W        W10525   4.724   5.895   6.068 -0.0943 -0.2661  0.1886
67614W        W10526   5.257   3.769   4.311  0.0719 -0.3569 -0.0052
67615W        W10527   1.752   3.919   5.097  0.0172  0.2402 -0.0069
67616W        W10528   5.963   3.622   6.778 -0.2166 -0.0219  0.1029
67617W        W10529   3.320   5.155   5.451 -0.1024 -0.0499 -0.4404
67618W        W10530   3.583   4.397   4.742  0.1333 -0.4008 -0.2080
67619W        W10531   4.853   4.081   5.262 -0.1962 -0.0585  0.0336
67620W        W10532   6.060   6.330   4.733  0.2905 -0.0930  0.1708
67621W        W10533   5.020   4.022   6.626  0.2409 -0.3477  0.0066
67622W        W10534   6.121   3.468   5.824  0.3413 -0.0866  0.1678
67623W        W10535   5.214   6.141   5.068  0.1095 -0.3911 -0.1085
67624W        W10536   3.310   4.035   4.021 -0.1295 -0.0505 -0.0589
67625W        W10537   1.927   3.626   7.072 -0.1407 -0.0781 -0.0346
67626W        W10538   3.377   6.819   6.300  0.0530 -0.0674  0.0113
67627W        W10539   6.503   4.150   4.743  0.0753 -0.2637 -0.1862
67628W        W10540   6.468   4.801   5.123 -0.3902 -0.0130  0.2721
67629W        W10541   4.450   7.136   5.329 -0.0900 -0.0455  0.1280
67630W        W10542   8.228   6.982   4.046  0.0884 -0.0313  0.2504
67631W        W10543   5.923   4.016   7.806 -0.2542  0.0299  0.2207
67632W        W10544   3.417   6.678   5.835 -0.0132  0.1281 -0.2756
67633W        W10545   4.355   6.622   4.599 -0.1952 -0.1451 -0.0496
67634W        W10546   5.452   6.581   5.068 -0.2476 -0.0643  0.0892
67635W        W10547   7.744   6.155   5.682 -0.2589 -0.0336  0.0066
67636W        W10548   6.878   5.249   6.390 -0.0034  0.2126  0.0177
67637W        W10549   4.964   6.854   6.865 -0.1556 -0.2945 -0.0294
67638W        W10550   3.973   6.439   3.737 -0.3026 -0.0272  0.0198
67639W        W10551   6.626   6.598   7.167  0.2033 -0.1944 -0.1327
67640W        W10552   3.817   7.863   6.252 -0.5269 -0.0171 -0.0512
67641W        W10553   4.939   5.545   6.446 -0.2511 -0.0794 -0.0791
67642W        W10554   6.059   5.665   4.837 -0.0634 -0.1072  0.2638
67643W        W10555   5.373   4.952   5.037 -0.0246  0.2771 -0.5246
67644W        W10556   5.114   5.274   5.344  0.0303  0.0609  0.0600
67645W        W10557   4.581   5.871   7.371  0.0809 -0.2060 -0.4772
67646W        W10558   3.743   4.530   5.160 -0.0259  0.0136 -0.1463
67647W        W10559   7.137   3.405   5.923 -0.1726  0.1547 -0.3229
67648W        W10560   5.818   5.716   2.672  0.2167  0.1534  0.0918
67649W        W10561   7.985   5.728   4.369 -0.0080 -0.0497  0.0846
67650W        W10562   5.656   5.306   4.153 -0.2158  0.2683 -0.2936
67651W        W10563   6.845   5.174   5.414 -0.1511 -0.3534  0.3184
67652W        W10564   5.080   3.353   4.685 -0.0442 -0.1500  0.0577
67653W        W10565   6.037   7.049   3.348  0.0115  0.3612 -0.0177
67654W        W10566   5.466   4.077   4.652  0.0277  0.0212  0.0564
67655W        W10567   6.442   5.351   6.196  0.0973 -0.1784 -0.1985
67656W        W10568   4.750   5.334   5.670 -0.0505  0.1402 -0.2006
67657W        W10569   7.074   3.998   4.430 -0.0447 -0.0540  0.1192
67658W        W10570   4.086   6.061   5.584 -0.0048 -0.1836 -0.3542
67659W        W10571   3.843   4.803   4.241 -0.0644 -0.0806 -0.2872
67660W        W10572   5.910   5.500   3.143  0.1018 -0.0497 -0.1084
67661W        W10573   6.775   6.433   5.082 -0.0518  0.0396 -0.0893
67662W        W10574   6.011   7.064   4.431  0.1529 -0.1928 -0.4847
67663W        W10575   4.010   5.557   3.875  0.0036  0.3339 -0.0977
67664W        W10576   3.396   5.160   7.898  0.1541 -0.0505  0.0464
67665W        W10577   3.412   4.367   7.299  0.0605  0.0006  0.0264
67666W        W10578   6.146   3.232   3.162 -0.2691  0.0356  0.0339
67667W        W10579   7.474   6.775   7.027  0.0046 -0.0602  0.0613
67668W        W10580   2.483   4.971   7.001  0.1633  0.2548  0.3493
67669W        W10581   8.237   4.812   4.176 -0.0498  0.3161 -0.0293
67670W        W10582   3.464   5.434   5.108  0.0874  0.0094 -0.0894
67671W        W10583   6.860   5.875   6.275  0.0060 -0.1194 -0.1087
67672W        W10584   8.272   6.686   4.457  0.0469 -0.1477 -0.1841
67673W        W10585   7.473   3.676   6.302 -0.2471  0.2691 -0.1858
67674W        W10586   6.309   4.350   5.777  0.1885 -0.2132  0.0540
67675W        W10587   4.329   4.058   5.318 -0.0902 -0.2753 -0.0961
67676W        W10588   5.384   4.531   3.577 -0.0088  0.4328  0.1904
67677W        W10589   6.480   5.166   5.722 -0.2297 -0.1820 -0.0884
67678W        W10590   6.803   7.105   4.045 -0.2194  0.4785 -0.1582
67679W        W10591   4.777   6.804   5.593  0.2760 -0.2981 -0.2250
67680W        W10592   5.508   4.400   7.276 -0.0497 -0.1409  0.3252
67681W        W10593   6.755   7.029   6.932  0.4394  0.2426 -0.0528
67682W        W10594   4.846   6.150   4.338 -0.1510 -0.1743  0.2274
67683W        W10595   3.535   5.069   6.133  0.4955 -0.0808  0.1491
67684W        W10596   3.452   4.909   4.997 -0.1501  0.0621  0.1606
67685W        W10597   3.308   3.709   5.813  0.1251 -0.2623 -0.2511
67686W        W10598   5.399   6.344   6.240  0.3341  0.0487  0.0630
67687W        W10599   7.409   5.059   4.780 -0.1271  0.1882 -0.1006
67688W        W10600   4.162   3.674   4.964 -0.2104 -0.1073 -0.2354
67689W        W10601   6.454   3.241   4.167 -0.2366 -0.0730 -0.3346
67690W        W10602   3.941   5.734   4.425 -0.2366  0.1362  0.1167
67691W        W10603   7.716   5.617   5.769  0.1332  0.2268 -0.0428
67692W        W10604   7.087   4.681   2.959 -0.0049  0.0284 -0.1198
67693W        W10605   7.069   6.623   4.542  0.2162 -0.1408 -0.3527
67694W        W10606   3.088   4.197   6.990  0.0141 -0.0198  0.1148
67695W        W10607   4.321   4.349   4.432 -0.3309 -0.3621 -0.1231
67696W        W10608   4.688   4.872   5.891 -0.0290  0.1254  0.1979
67697W        W10609   5.356   4.186   5.236 -0.2834  0.0868  0.1385
67698W        W10610   8.638   4.069   6.733 -0.0248 -0.2480  0.2201
67699W        W10611   5.328   4.043   3.921  0.1625  0.0209 -0.1793
67700W        W10612   5.172   4.710   6.099  0.3110  0.1334  0.2154
67701W        W10613   5.030   3.817   4.876  0.0676  0.1338 -0.2049
67702W        W10614   3.434   4.541   3.974 -0.0202 -0.0235  0.0469
67703W        W10615   7.825   3.939   6.605 -0.0071 -0.0139 -0.1633
67704W        W10616   7.536   6.551   4.388  0.2256  0.2625  0.0357
67705W        W10617   8.028   7.475   5.836 -0.0705 -0.0381 -0.1008
67706W        W10618   7.044   8.272   4.543  0.0654  0.0024  0.1014
67707W        W10619   4.048   4.256   6.474 -0.1637  0.2833 -0.1527
67708W        W10620   4.754   4.766   4.631 -0.0934  0.0060 -0.1058
67709W        W10621   4.391   7.629   6.288  0.0228  0.1567 -0.0404
67710W        W10622   4.391   6.657   3.934 -0.1892 -0.0779 -0.3128
67711W        W10623   5.794   3.350   3.542  0.0411  0.2144 -0.0384
67712W        W10624   7.631   6.824   5.277  0.2000 -0.1958  0.0141
67713W        W10625   5.217   5.620   4.953  0.1863  0.1196 -0.0526
67714W        W10626   3.714   6.191   6.838  0.1321  0.0124 -0.2165
67715W        W10627   5.227   3.303   7.539 -0.3214  0.0809  0.3052
67716W        W10628   7.598   4.836   6.430 -0.1383 -0.1348  0.1924
67717W        W10629   5.595   5.225   5.522  0.3930  0.3167 -0.1087
67718W        W10630   4.035   4.235   3.128  0.1066 -0.1747  0.1985
67719W        W10631   7.340   7.342   5.084  0.0046  0.0210 -0.0916
67720W        W10632   5.227   6.525   4.613  0.1423  0.0332 -0.1900
67721W        W10633   3.440   5.774   4.721 -0.1614  0.2709  0.0036
67722W        W10634   4.812   5.902   4.873  0.2166  0.1697 -0.1631
67723W        W10635   6.323   4.071   3.173  0.0635  0.0017 -0.0419
67724W        W10636   2.440   4.155   6.265  0.0906  0.1324 -0.2882
67725W        W10637   6.798   4.364   5.982 -0.1760  0.0399  0.0777
67726W        W10638   4.312   5.491   3.462  0.0405  0.0778 -0.0491
67727W        W10639   4.340   5.134   6.165  0.0648  0.5603  0.0408
67728W        W10640   7.063   4.212   4.861 -0.0437  0.0076  0.2395
67729W        W10641   6.147   3.558   3.941  0.0986 -0.2878 -0.0781
67730W        W10642   5.927   4.186   7.158  0.2558 -0.0596 -0.1273
67731W        W10643   7.433   6.083   4.664 -0.2495 -0.0484 -0.0335
67732W        W10644   5.144   4.928   3.118  0.0954 -0.1454 -0.0426
67733W        W10645   7.556   3.611   3.355  0.1801 -0.5268  0.2267
67734W        W10646   4.570   6.203   6.506 -0.4090  0.0254 -0.4700
67735W        W10647   5.718   5.341   5.058  0.1179  0.0581  0.1468
67736W        W10648   5.631   5.684   6.736 -0.3326  0.2454 -0.1427
67737W        W10649   4.922   4.062   3.555 -0.1086  0.1491  0.0917
67738W        W10650   9.293   5.761   4.887  0.6135 -0.1758  0.3899
67739W        W10651   3.240   4.092   6.244  0.3700 -0.0561 -0.0858
67740W        W10652   6.464   3.535   6.350 -0.2374  0.1413 -0.0071
67741W        W10653   5.658   5.967   4.890 -0.0342  0.2950 -0.2480
67742W        W10654   4.712   3.895   7.093  0.1598  0.4110  0.2515
67743W        W10655   6.292   5.876   2.503  0.0392 -0.2499  0.0267
67744W        W10656   5.640   3.405   5.658  0.0714  0.1265 -0.0977
67745W        W10657   4.203   7.014   3.658 -0.1039 -0.0059 -0.1723
67746W        W10658   7.447   4.170   5.146 -0.0782  0.0869  0.5552
67747W        W10659   5.821   3.968   5.130 -0.1402  0.0622  0.0542
67748W        W10660   5.645   3.909   5.603  0.0393 -0.0536 -0.0873
67749W        W10661   6.788   4.642   7.316 -0.3980 -0.0171 -0.1615
67750W        W10662   7.266   5.406   5.639 -0.0170 -0.3164  0.1273
67751W        W10663   6.044   5.597   6.354  0.3375  0.0926 -0.3689
67752W        W10664   4.474   5.165   2.490  0.0344 -0.2544 -0.2470
67753W        W10665   5.017   4.529   5.111  0.0026 -0.0843  0.0833
67754W        W10666   4.046   5.689   7.441 -0.1162 -0.2052  0.0216
67755W        W10667   4.158   7.849   5.870 -0.2882  0.0122 -0.0904
67756W        W10668   7.182   6.192   6.632  0.0110 -0.0599  0.2157
67757W        W10669   4.438   5.632   4.471 -0.2756 -0.2617 -0.1686
67758W        W10670   5.454   4.072   6.332 -0.0720 -0.0680  0.3691
67759W        W10671   7.827   4.854   4.482  0.4373 -0.2847 -0.0988
67760W        W10672   6.397   6.788   3.864 -0.1655  0.1617  0.1343
67761W        W10673   5.773   5.587   3.626 -0.2824 -0.0270  0.5446
67762W        W10674   3.914   4.851   6.432 -0.1951 -0.1550 -0.0142
67763W        W10675   5.510   5.711   5.369  0.2911  0.1718 -0.4207
67764W        W10676   6.585   6.115   2.829  0.3984  0.0061  0.0026
67765W        W10677   5.748   4.642   5.952 -0.1412  0.0148 -0.0302
67766W        W10678   4.036   6.346   4.350 -0.3283 -0.0254 -0.0053
67767W        W10679   7.001   3.439   5.478  0.0940  0.0010 -0.0221
67768W        W10680   3.859   6.710   5.131  0.0101 -0.0854 -0.0169
67769W        W10681   5.333   4.611   4.694 -0.3645 -0.2109 -0.0675
67770W        W10682   4.289   4.806   4.502 -0.1957 -0.2826 -0.0346
67771W        W10683   6.974   3.858   3.982 -0.0676 -0.0832 -0.0573
67772W        W10684   6.837   4.963   4.326  0.2217  0.2320 -0.3510
67773W        W10685   3.116   4.674   5.828  0.0818  0.1103  0.4372
67774W        W10686   4.584   3.981   5.716 -0.1680 -0.1710 -0.0073
67775W        W10687   3.945   7.174   5.162 -0.1186 -0.0030 -0.0771
67776W        W10688   6.227   5.203   4.937 -0.1979  0.0310 -0.1582
67777W        W10689   8.043   2.975   4.371 -0.0753  0.0139  0.1805
67778W        W10690   5.920   4.907   5.212  0.1089  0.2469 -0.1246
67779W        W10691   5.510   4.203   6.809 -0.2626 -0.1283  0.3559
67780W        W10692   2.670   4.382   2.784  0.0241  0.0372  0.0117
67781W        W10693   5.996   5.171   5.943 -0.0757  0.1962 -0.1656
67782W        W10694   4.671   4.887   5.124  0.0984  0.2739 -0.0225
67783W        W10695   4.368   5.182   4.861 -0.2114 -0.2016  0.2952
67784W        W10696   6.748   6.390   5.718  0.1238 -0.0415 -0.2624
67785W        W10697   4.629   5.194   4.355  0.3481 -0.0437 -0.1553
67786W        W10698   4.079   5.557   5.444  0.4452  0.0811 -0.0822
67787W        W10699   4.557   4.332   7.746  0.0856 -0.0307  0.1621
67788W        W10700   6.172   4.807   5.661  0.3039  0.3248 -0.0479
67789W        W10701   3.974   4.361   5.573 -0.3571  0.2197  0.1288
67790W        W10702   4.577   4.470   5.459 -0.4678 -0.0542  0.1409
67791W        W10703   4.172   4.772   5.877 -0.1411 -0.0702  0.2468
67792W        W10704   6.159   6.967   6.166  0.1449 -0.1205  0.0446
67793W        W10705   5.254   5.508   5.793 -0.1462  0.2682 -0.1966
67794W        W10706   4.273   6.014   6.927 -0.3709  0.1104  0.0091
67795W        W10707   4.596   3.326   4.816  0.0119 -0.0389  0.3182
67796W        W10708   8.308   8.094   4.412  0.0049 -0.2423 -0.0492
67797W        W10709   5.480   4.657   5.498 -0.2802  0.3303  0.1561
67798W        W10710   3.912   4.895   4.792  0.1427  0.1395  0.0398
67799W        W10711   2.411   4.453   7.161  0.1689  0.3381 -0.2744
67800W        W10712   5.129   6.337   3.518 -0.1204  0.0422 -0.3397
67801W        W10713   4.494   4.118   6.719  0.1097  0.1130  0.0939
67802W        W10714   3.628   6.240   6.362  0.0768 -0.2184 -0.1747
67803W        W10715   4.492   5.484   3.918  0.1671  0.1396 -0.1468
67804W        W10716   4.173   6.606   5.555 -0.3900  0.2812 -0.3303
67805W        W10717   7.589   4.481   3.002 -0.1050 -0.0276  0.0799
67806W        W10718   7.137   6.177   4.194  0.1154 -0.0519 -0.2138
67807W        W10719   6.649   4.098   3.720  0.0164 -0.2599 -0.0160
67808W        W10720   7.383   3.998   7.393  0.0621 -0.2070 -0.0028
67809W        W10721   6.007   5.942   5.308  0.1009 -0.2856 -0.0551
67810W        W10722   6.012   2.121   6.085  0.2746 -0.1733  0.1252
67811W        W10723   4.542   3.064   6.026 -0.0078  0.3649  0.0335
67812W        W10724   7.476   5.873   5.340  0.1066  0.2838 -0.3799
67813W        W10725   3.847   5.076   5.266 -0.0204 -0.0482 -0.1059
67814W        W10726   5.716   7.000   7.375 -0.1149 -0.0647  0.0316
67815W        W10727   3.450   4.690   6.745  0.0570  0.0438 -0.2901
67816W        W10728   7.267   4.197   3.234  0.2468  0.0145  0.3309
67817W        W10729   7.479   4.294   4.107 -0.0455 -0.2714 -0.0736
67818W        W10730   5.042   5.205   6.120 -0.0155 -0.0109  0.0444
67819W        W10731   6.508   4.776   6.065 -0.2565  0.2790 -0.1350
67820W        W10732   6.496   5.872   4.995  0.0013 -0.0277 -0.1365
67821W        W10733   8.423   4.633   5.736  0.1180  0.1827 -0.1185
67822W        W10734   3.941   6.838   6.107  0.4557 -0.0996  0.0406
67823W        W10735   7.421   5.259   6.135  0.2733  0.0600 -0.0236
67824W        W10736   4.630   5.472   5.212 -0.3340  0.1989 -0.1909
67825W        W10737   5.419   5.765   4.030 -0.1124 -0.0894 -0.2250
67826W        W10738   4.709   4.566   6.789 -0.0890 -0.2864 -0.0073
67827W        W10739   6.267   5.651   5.803  0.2384 -0.0643  0.2390
67828W        W10740   5.886   4.127   6.008  0.0065 -0.1222  0.0355
67829W        W10741   6.579   4.163   6.475 -0.1014 -0.1219 -0.0030
67830W        W10742   6.804   3.959   5.704 -0.0297 -0.3187 -0.5458
67831W        W10743   4.527   3.865   6.273  0.0094 -0.3502 -0.2713
67832W        W10744   4.093   3.088   5.794  0.1542 -0.3403  0.1877
67833W        W10745   8.329   6.958   6.597  0.0843 -0.1643  0.1013
67834W        W10746   8.369   4.339   4.224 -0.2011  0.0305 -0.1416
67835W        W10747   6.944   4.991   5.929 -0.0734 -0.1589  0.0247
67836W        W10748   7.360   5.033   5.308  0.2456 -0.1362 -0.0160
67837W        W10749   6.427   5.852   4.501 -0.1804  0.6341  0.0309
67838W        W10750   3.597   5.540   5.648  0.0091  0.1570 -0.0324
67839W        W10751   8.218   4.160   7.127  0.0552 -0.1148  0.0114
67840W        W10752   5.455   3.934   2.944 -0.0597  0.0386  0.0323
67841W        W10753   6.762   3.976   7.363 -0.1278 -0.4035 -0.2360
67842W        W10754   4.937   6.468   5.944 -0.0185 -0.0881  0.1331
67843W        W10755   6.863   5.533   5.936  0.3961 -0.0234  0.1391
67844W        W10756   7.204   5.362   4.341 -0.1396  0.1918  0.0802
67845W        W10757   3.318   4.196   5.080 -0.1168 -0.2265 -0.0284
67846W        W10758   5.000   6.235   7.380  0.2072  0.0561  0.1405
67847W        W10759   4.718   4.153   4.198 -0.1129 -0.2563  0.0223
67848W        W10760   4.884   5.418   3.556  0.0861  0.1357  0.5257
67849W        W10761   6.361   6.130   5.952 -0.0986 -0.2174 -0.2965
67850W        W10762   6.725   5.695   7.144 -0.1358 -0.1433  0.1054
67851W        W10763   5.628   3.578   4.718  0.0044  0.0214  0.2029
67852W        W10764   7.122   3.970   6.666 -0.0114  0.3621  0.0091
67853W        W10765   4.337   5.118   5.499 -0.2190  0.0546  0.3358
67854W        W10766   4.986   4.760   5.537 -0.1319 -0.3258 -0.4263
67855W        W10767   4.927   7.345   7.046 -0.3234  0.2261  0.2246
67856W        W10768   3.722   5.144   6.837 -0.1379  0.0297 -0.3106
67857W        W10769   4.381   5.810   4.986 -0.1485 -0.1101 -0.0399
67858W        W10770   4.936   4.260   4.648 -0.2000 -0.0087  0.2283
67859W        W10771   7.084   3.876   5.288 -0.0880  0.1135 -0.1974
67860W        W10772   5.778   5.604   5.874 -0.0443 -0.0421  0.1204
67861W        W10773   7.433   5.253   6.725  0.1198  0.1445  0.0950
67862W        W10774   6.236   4.378   5.112 -0.2317 -0.2098  0.1209
67863W        W10775   4.290   5.548   5.928 -0.2558  0.0295 -0.0173
67864W        W10776   5.774   6.273   7.193  0.0461  0.0362  0.1091
67865W        W10777   8.710   5.504   5.668  0.0805  0.0540  0.1714
67866W        W10778   3.900   5.357   6.421  0.1761  0.0708 -0.4494
67867W        W10779   2.041   4.236   6.717  0.1141  0.3344 -0.3225
67868W        W10780   5.805   3.779   7.358 -0.0966 -0.3431 -0.4618
67869W        W10781   6.634   5.474   4.791  0.0582  0.3992  0.1066
67870W        W10782   4.555   3.928   4.666  0.2383 -0.0567 -0.2505
67871W        W10783   5.217   5.822   3.507 -0.0233  0.0028  0.1791
67872W        W10784   3.378   5.966   7.328 -0.2162 -0.1364  0.2223
67873W        W10785   2.844   5.396   7.200  0.1844  0.1083 -0.0108
67874W        W10786   4.122   6.232   5.081  0.1950 -0.1289  0.0367
67875W        W10787   6.516   5.576   3.212 -0.1644 -0.2873 -0.3473
67876W        W10788   5.373   6.079   4.450 -0.0612  0.3969 -0.3379
67877W        W10789   6.676   7.247   5.614 -0.0699 -0.0289 -0.0349
67878W        W10790   6.912   5.028   4.857 -0.1635  0.0117  0.2222
67879W        W10791   4.965   6.804   5.009  0.0981 -0.0755 -0.3679
67880W        W10792   4.296   7.034   2.765  0.1314 -0.1609 -0.0987
67881W        W10793   6.559   5.493   5.265 -0.1928  0.0573  0.0486
67882W        W10794   3.946   5.422   4.938 -0.2067 -0.0298 -0.0565
67883W        W10795   6.563   4.385   6.939  0.0266 -0.3103 -0.0403
67884W        W10796   7.704   2.180   3.905  0.2262  0.0730 -0.0138
67885W        W10797   7.245   4.092   6.187 -0.1796 -0.0156 -0.0560
67886W        W10798   8.128   4.111   5.623 -0.1414  0.1505  0.1649
67887W        W10799   6.328   6.047   6.438  0.0613 -0.0499  0.3272
67888W        W10800   4.750   4.989   6.505 -0.0247  0.1736 -0.0014
67889W        W10801   5.200   4.388   4.265 -0.0428 -0.2511 -0.0895
67890W        W10802   4.982   5.164   7.477  0.0324 -0.0830  0.0650
67891W        W10803   7.892   3.254   7.846 -0.2330 -0.1217 -0.3888
67892W        W10804   3.789   6.384   5.861  0.1115 -0.0257  0.3172
67893W        W10805   7.048   8.148   5.029 -0.1866 -0.0013 -0.0122
67894W        W10806   3.984   5.222   4.414 -0.1359  0.0394 -0.4271
67895W        W10807   4.433   5.519   6.453 -0.2200  0.0486  0.0330
67896W        W10808   7.320   3.848   5.747 -0.2445  0.0198  0.0497
67897W        W10809   5.684   5.791   2.151  0.0417  0.2384  0.0370
67898W        W10810   5.745   4.505   4.968  0.2105  0.1169  0.2340
67899W        W10811   5.410   7.072   5.015 -0.1728  0.2343 -0.2152
67900W        W10812   5.765   6.777   4.718 -0.2793 -0.1994  0.3232
67901W        W10813   6.241   6.448   5.318  0.2917 -0.0758  0.0855
67902W        W10814   3.698   4.226   4.316 -0.1313 -0.0551 -0.2391
67903W        W10815   6.657   4.570   4.604 -0.2478  0.0532 -0.0909
67904W        W10816   3.742   4.709   7.126  0.1282 -0.0347  0.0990
67905W        W10817   6.822   3.241   6.270 -0.1329 -0.0165 -0.0810
67906W        W10818   6.144   5.216   3.894 -0.2295  0.1299 -0.0207
67907W        W10819   9.444   5.137   3.552 -0.0229  0.2212 -0.0675
67908W        W10820   5.377   5.547   6.264  0.0568  0.0075 -0.2564
67909W        W10821   2.912   4.609   7.175  0.0998  0.1957 -0.3020
67910W        W10822   6.155   6.119   4.015 -0.2777  0.2606  0.3488
67911W        W10823   7.956   5.855   6.124 -0.0274  0.0421  0.1728
67912W        W10824   6.360   4.511   3.631  0.1590  0.1396 -0.3954
67913W        W10825   6.602   6.864   5.881  0.2435  0.0922 -0.0028
67914W        W10826   4.517   4.363   4.925 -0.2919  0.1985 -0.1257
67915W        W10827   7.110   4.362   3.701 -0.4792  0.1326  0.0286
67916W        W10828   4.210   4.714   5.148  0.2368 -0.0056 -0.0594
67917W        W10829   5.890   5.304   6.911 -0.0193  0.1439 -0.0459
67918W        W10830   6.646   7.838   6.595  0.2800  0.2278 -0.1313
67919W        W10831   5.043   3.275   4.043  0.0783  0.0579 -0.1743
67920W        W10832   6.991   5.221   3.867  0.0461 -0.3224 -0.0859
67921W        W10833   7.547   4.317   6.481  0.3572 -0.0432  0.1098
67922W        W10834   6.706   6.268   4.569  0.0021 -0.1787 -0.0711
67923W        W10835   7.650   4.534   5.421 -0.3779  0.1548  0.0262
67924W        W10836   7.172   7.311   5.631 -0.3491  0.2621 -0.2675
67925W        W10837   3.565   4.120   5.691 -0.0082 -0.0466  0.1911
67926W        W10838   6.161   6.605   5.850  0.0938  0.0351  0.1583
67927W        W10839   7.539   7.430   5.977 -0.2532 -0.1039 -0.0290
67928W        W10840   5.433   3.682   5.182  0.3482  0.0528  0.2049
67929W        W10841   5.771   5.003   4.667  0.0570  0.0950 -0.3641
67930W        W10842   5.062   6.331   5.509  0.2407  0.1142  0.2129
67931W        W10843   8.071   2.979   6.390 -0.1289  0.1484  0.0603
67932W        W10844   7.573   3.203   6.255 -0.0876  0.5101  0.0834
67933W        W10845   6.648   6.032   4.096 -0.1854  0.2994 -0.1123
67934W        W10846   6.153   2.116   6.561  0.1940 -0.2152  0.0475
67935W        W10847   6.455   6.501   6.326 -0.0254  0.1040 -0.1096
67936W        W10848   4.398   6.629   6.223 -0.0687 -0.0464  0.1456
67937W        W10849   4.265   5.935   4.079  0.0566  0.2636 -0.0436
67938W        W10850   4.659   4.920   7.147 -0.4561  0.3182  0.1704
67939W        W10851   5.554   6.245   5.461 -0.1595  0.2674  0.1514
67940W        W10852   6.317   7.459   3.171 -0.0585 -0.0249  0.0348
67941W        W10853   6.158   4.558   4.630  0.3045  0.1443 -0.0357
67942W        W10854   5.918   4.370   5.517 -0.3577  0.0119  0.0548
67943W        W10855   8.561   3.777   4.784 -0.0430 -0.1132  0.1427
67944W        W10856   4.776   3.563   4.310  0.2238  0.3225  0.0745
67945W        W10857   7.146   4.551   4.483 -0.3680 -0.0758  0.3252
67946W        W10858   7.535   4.017   4.638  0.0960  0.2431 -0.1004
67947W        W10859   5.161   4.848   7.931 -0.2396 -0.1395  0.2436
67948W        W10860   3.695   5.924   4.039 -0.1604 -0.3469  0.2682
67949W        W10861   4.975   4.868   4.224 -0.0344  0.3527 -0.1395
67950W        W10862   3.606   4.733   5.658  0.1159  0.2228 -0.1992
67951W        W10863   6.018   2.901   7.981  0.0568  0.3230 -0.2411
67952W        W10864   3.800   4.462   6.109  0.0658  0.1587 -0.1905
67953W        W10865   4.011   5.774   6.586 -0.1098 -0.2646 -0.3459
67954W        W10866   4.069   4.228   4.893 -0.3738 -0.0663 -0.3640
67955W        W10867   6.904   7.259   4.649 -0.0485  0.0475  0.2604
67956W        W10868   5.070   2.727   4.272  0.0140  0.1892  0.2676
67957W        W10869   2.466   3.678   6.097 -0.1195 -0.1100  0.0795
67958W        W10870   6.399   6.642   4.825 -0.1020  0.1180  0.1853
67959W        W10871   7.033   6.890   4.928 -0.0992  0.1444 -0.0284
67960W        W10872   4.781   2.523   5.151  0.0761 -0.0489  0.1191
67961W        W10873   6.839   6.602   6.689  0.0948  0.2608 -0.0846
67962W        W10874   5.269   6.418   3.029 -0.2805 -0.0593  0.2780
67963W        W10875   5.221   5.378   6.870  0.5437  0.0929  0.0983
67964W        W10876   5.028   4.357   7.077 -0.0057  0.5271 -0.1079
67965W        W10877   3.816   3.462   4.651 -0.2195 -0.0518 -0.1416
67966W        W10878   5.158   4.617   6.579  0.1776  0.1978 -0.2735
67967W        W10879   6.520   6.023   5.506  0.1983  0.4748 -0.2201
67968W        W10880   6.264   5.699   3.703 -0.1054  0.2109  0.3375
67969W        W10881   3.920   5.237   5.831 -0.3279 -0.1794  0.0171
67970W        W10882   4.860   5.917   6.862 -0.1620 -0.0533  0.0834
67971W        W10883   3.461   3.458   6.211 -0.1379 -0.1445  0.1408
67972W        W10884   6.691   5.486   4.264  0.2861  0.3506 -0.0120
67973W        W10885   5.999   4.916   6.475  0.2355  0.1932  0.0022
67974W        W10886   5.802   6.525   3.107  0.1833  0.1862 -0.0637
67975W        W10887   7.342   3.048   5.525  0.2852 -0.0758 -0.0127
67976W        W10888   6.679   4.744   5.597  0.5149 -0.1488  0.4339
67977W        W10889   4.444   3.387   6.413 -0.1117 -0.1184 -0.2878
67978W        W10890   4.986   5.703   7.273  0.3036 -0.0306 -0.1505
67979W        W10891   7.382   5.240   7.699  0.0124  0.3154  0.1322
67980W        W10892   5.606   5.244   2.783  0.0661 -0.4481 -0.2526
67981W        W10893   7.175   4.802   3.998  0.1685 -0.2330 -0.1558
67982W        W10894   5.173   7.015   4.577 -0.1685 -0.0024  0.0967
67983W        W10895   3.867   5.197   7.364 -0.0910 -0.2100 -0.1348
67984W        W10896   7.043   6.032   5.024  0.0432  0.2141  0.2970
67985W        W10897   6.287   3.882   7.502 -0.1934 -0.1241 -0.2673
67986W        W10898   6.603   4.786   6.539 -0.4264  0.1720 -0.1071
67987W        W10899   6.555   5.463   8.242  0.0831 -0.0196  0.1524
67988W        W10900   5.707   4.431   4.396 -0.1564 -0.0927 -0.1551
67989W        W10901   6.869   4.840   3.523  0.0748 -0.0083  0.1083
67990W        W10902   6.243   6.402   6.762 -0.3622 -0.1805  0.1231
67991W        W10903   7.119   6.442   7.096  0.0745 -0.0717 -0.1094
67992W        W10904   4.889   6.547   6.423  0.3120 -0.0166  0.2976
67993W        W10905   5.924   4.061   6.555 -0.1604  0.1802  0.0776
67994W        W10906   3.498   3.773   4.842  0.4406 -0.0654 -0.0448
67995W        W10907   3.227   5.342   4.706  0.0183  0.0433 -0.0225
67996W        W10908   4.845   4.417   6.250 -0.0760 -0.0441 -0.0201
67997W        W10909   5.924   3.710   6.242  0.0553 -0.0386 -0.2328
67998W        W10910   4.309   3.426   4.450 -0.0064 -0.1473  0.1424
67999W        W10911   5.168   5.057   3.734  0.0340  0.1647  0.0256
68000W        W10912   4.739   6.964   6.130 -0.3364 -0.0631 -0.0820
68001W        W10913   6.206   4.391   6.269  0.1800 -0.0078  0.0232
68002W        W10914   7.088   4.710   9.532 -0.1514  0.1826 -0.0989
68003W        W10915   4.928   4.671   7.479  0.0796  0.2154  0.0222
68004W        W10916   6.914   2.919   6.798  0.0269 -0.1770 -0.2021
68005W        W10917   5.382   5.060   6.504 -0.2432 -0.1128 -0.2582
68006W        W10918   4.815   4.832   8.740 -0.1425 -0.2663  0.1172
68007W        W10919   6.013   6.215   7.678 -0.1340 -0.2674  0.2356
68008W        W10920   5.939   5.660   8.399  0.1220  0.0006  0.0001
68009W        W10921   7.259   6.596   9.397  0.1280 -0.0794 -0.0961
68010W        W10922   6.714   4.245   5.340 -0.1844 -0.2078 -0.0339
68011W        W10923   7.868   3.424   9.093 -0.0280  0.2397 -0.0131
68012W        W10924   4.447   3.540   7.394  0.1181 -0.1567  0.0840
68013W        W10925   3.017   3.750   9.533  0.2300 -0.1523  0.0356
68014W        W10926   5.554   3.170   8.965  0.1352  0.1207 -0.3870
68015W        W10927   4.509   5.326   7.460 -0.0843 -0.4015  0.1444
68016W        W10928   4.834   2.129   9.895 -0.3010 -0.0222 -0.1013
68017W        W10929   5.541   5.012   7.395 -0.0872 -0.4131 -0.0138
68018W        W10930   5.632   7.270   8.732  0.1614  0.0258 -0.1242
68019W        W10931   6.539   2.339   9.251 -0.3151  0.1568 -0.2032
68020W        W10932   5.432   5.934   7.564  0.0398  0.3492 -0.0089
68021W        W10933   3.711   3.897   6.150  0.0679  0.3844 -0.4397
68022W        W10934   4.656   3.582   9.517 -0.0903 -0.2307  0.0132
68023W        W10935   4.816   5.323   9.745 -0.1222  0.1315 -0.0762
68024W        W10936   7.727   2.912   9.252 -0.0462  0.0861 -0.1362
68025W        W10937   8.001   4.027   9.064  0.1518 -0.0197  0.2573
68026W        W10938   6.315   7.323   8.815  0.1334  0.1645  0.0482
68027W        W10939   5.935   5.568   7.862  0.3141 -0.1052  0.1965
68028W        W10940   4.670   6.610   9.500  0.2714  0.4793  0.0388
68029W        W10941   3.926   6.607   8.658  0.0968  0.1115  0.0751
68030W        W10942   5.824   6.718   7.749 -0.1004  0.2212 -0.2185
68031W        W10943   6.906   5.110   7.511 -0.0965 -0.1924 -0.0272
68032W        W10944   3.425   5.987   7.843 -0.0671 -0.3823  0.0080
68033W        W10945   5.589   4.101   9.725 -0.2400  0.0778 -0.0579
68034W        W10946   5.655   6.012   8.019  0.0367 -0.2383  0.0286
68035W        W10947   6.740   6.964   8.814 -0.1552 -0.1247  0.1040
68036W        W10948   6.787   6.764   9.278 -0.1077  0.0155  0.1566
68037W        W10949   4.259   6.813   9.119 -0.1669 -0.1178 -0.0741
68038W        W10950   4.543   7.061   7.376  0.2296  0.2252 -0.2167
68039W        W10951   7.038   3.596   8.315 -0.1642 -0.2471  0.1540
68040W        W10952   5.934   3.516   8.905  0.1918  0.1275  0.1829
68041W        W10953   6.277   4.317   8.891 -0.0389 -0.1141 -0.0152
68042W        W10954   5.613   4.531   8.771  0.3081  0.2900  0.0228
68043W        W10955   4.672   6.188   9.089 -0.0695 -0.2539  0.2643
68044W        W10956   4.616   1.875   9.459 -0.0657 -0.1028  0.1794
68045W        W10957   5.260   6.799   6.146 -0.0016 -0.1716  0.1006
68046W        W10958   7.463   3.950   9.150 -0.1888 -0.3375 -0.0489
68047W        W10959   3.935   5.445   9.177 -0.0697  0.2365  0.0359
68048W        W10960   5.762   5.062   8.706  0.0935 -0.0711 -0.1219
68049W        W10961   6.610   5.626   6.643  0.0848 -0.0792 -0.1035
68050W        W10962   7.717   6.243   8.718 -0.4637 -0.2535 -0.0811
68051W        W10963   5.318   6.025   7.036 -0.0243  0.0583  0.0759
68052W        W10964   4.973   5.323   7.941 -0.1038  0.2820  0.1078
68053W        W10965   5.693   3.097   7.560 -0.0101 -0.3253  0.1698
68054W        W10966   7.193   4.901   9.028  0.2299  0.2192 -0.0649
68055W        W10967   4.822   5.637   8.747  0.1547 -0.0512 -0.2160
68056W        W10968   6.361   5.976   8.472  0.3157 -0.0236 -0.3421
68057W        W10969   6.080   4.507   6.782  0.0441 -0.3264 -0.1827
68058W        W10970   8.000   3.714   8.697  0.0830 -0.3692  0.0806
68059W        W10971   7.576   3.384   9.983  0.0675  0.0090  0.2510
68060W        W10972   4.179   5.471   7.049  0.0534  0.1900 -0.1314
68061W        W10973   5.095   6.266   9.815 -0.0000  0.1172  0.0014
68062W        W10974   5.658   6.919   8.362  0.0747  0.0520  0.0763
68063W        W10975   7.363   4.927   8.198 -0.2082  0.2623 -0.1008
68064W        W10976   2.127   5.765  10.261 -0.0648  0.0084 -0.0474
68065W        W10977   3.945   7.143   7.371 -0.1477 -0.0856 -0.2136
68066W        W10978   2.529   5.798   9.350  0.0805  0.1752 -0.2563
68067W        W10979   4.950   6.742   7.357 -0.1819 -0.0417 -0.0917
68068W        W10980   2.352   3.144   8.946  0.2323 -0.1934 -0.1597
68069W        W10981   6.031   4.624   8.520  0.1389  0.1926  0.1424
68070W        W10982   6.881   5.129   8.024  0.0204  0.0359  0.6457
68071W        W10983   6.788   3.633   7.904 -0.1050 -0.1822  0.0627
68072W        W10984   4.200   6.512   7.084  0.0366  0.0281 -0.1904
68073W        W10985   6.351   7.382   8.050 -0.0324  0.0844  0.3260
68074W        W10986   6.662   4.458   8.471  0.0393 -0.0405 -0.1946
68075W        W10987   6.674   6.102   6.854 -0.1623  0.0775  0.1491
68076W        W10988   4.605   4.855   9.180  0.0993  0.1924  0.1105
68077W        W10989   4.154   3.751   9.800 -0.0312 -0.2995 -0.0855
68078W        W10990   3.491   2.570   8.878  0.2539 -0.0820 -0.0432
68079W        W10991   4.283   4.307   6.022 -0.2350  0.3381  0.0357
68080W        W10992   4.023   4.664  10.329 -0.0898 -0.0198 -0.0895
68081W        W10993   5.158   5.698   9.195 -0.2882 -0.0107  0.0261
68082W        W10994   4.263   5.505   8.367 -0.0914  0.2844 -0.0511
68083W        W10995   6.809   6.164   7.405 -0.2956 -0.0956  0.2108
68084W        W10996   5.935   6.940   9.383  0.4557  0.4117  0.1462
68085W        W10997   7.074   5.394   8.397  0.0740 -0.1615  0.1197
68086W        W10998   5.213   2.872   9.269 -0.0809  0.0597 -0.0441
68087W        W10999   4.184   4.619   6.847  0.0155 -0.2175 -0.1597
68088W        W11000   3.873   7.126   9.076  0.0963  0.3696  0.2514
68089W        W11001   6.809   4.235   9.269 -0.0137  0.1214  0.1640
68090W        W11002   4.255   3.999   7.499  0.1383  0.0891  0.0691
68091W        W11003   6.654   6.328   8.684  0.0588 -0.1178 -0.0887
68092W        W11004   4.989   6.698   8.280 -0.0137  0.3826  0.0632
68093W        W11005   7.523   4.852   9.352 -0.3492  0.2613  0.0340
68094W        W11006   6.491   4.888   8.309 -0.0049 -0.2440  0.0257
68095W        W11007   3.681   3.139   7.359 -0.1981 -0.1331  0.0991
68096W        W11008   6.741   7.024   7.454  0.0430 -0.1344 -0.0571
68097W        W11009   4.650   6.114   8.583  0.2954  0.0730 -0.0802
68098W        W11010   4.089   6.420   8.103  0.0307 -0.0013 -0.2327
68099W        W11011   6.479   6.406   8.213 -0.2032  0.1851 -0.0003
68100W        W11012   8.809   4.821   8.229 -0.0883  0.0155  0.0554
68101W        W11013   4.688   5.055   8.363 -0.2744  0.2493 -0.5071
68102W        W11014   6.580   3.342   8.322  0.0391 -0.3054 -0.2566
68103W        W11015   6.278   5.545   6.996  0.4780 -0.1432  0.1621
68104W        W11016   6.983   4.816   8.545  0.0473 -0.0954 -0.2179
68105W        W11017   6.506   4.209   7.947 -0.2909 -0.0552  0.0004
68106W        W11018   7.393   3.681   6.960 -0.0670 -0.6453  0.0425
68107W        W11019   5.480   7.753   9.090  0.3558  0.1081  0.3651
68108W        W11020   6.094   6.376   8.698 -0.4484 -0.3131 -0.1808
68109W        W11021   6.571   3.441   7.480  0.0413 -0.2107 -0.3194
68110W        W11022   8.044   6.902   8.267 -0.0139 -0.0233  0.0897
68111W        W11023   4.584   4.081   9.495  0.0308  0.1657  0.0123
68112W        W11024   6.701   5.174   8.730 -0.1876  0.0352  0.2498
68113W        W11025   6.430   2.999   8.663 -0.0365 -0.0984  0.2330
68114W        W11026   5.502   5.075   6.007  0.0768  0.0937  0.1968
68115W        W11027   5.880   3.515   9.492 -0.0693  0.1452  0.1818
68116W        W11028   3.002   6.481   6.085  0.0035  0.0986 -0.1906
68117W        W11029   6.637   3.122   9.989 -0.4567 -0.0305  0.1578
68118W        W11030   6.968   3.112   8.615  0.2024  0.2809  0.0076
68119W        W11031   5.939   4.678   7.251  0.1279  0.2470 -0.0385
68120W        W11032   5.419   5.002   9.040  0.0623  0.3111 -0.3352
68121W        W11033   4.215   4.697   8.009  0.4586 -0.0789  0.2047
68122W        W11034   8.068   5.087   9.997  0.3940  0.0809  0.0745
68123W        W11035   5.265   6.968   8.699 -0.2942 -0.0373 -0.0016
68124W        W11036   6.139   4.217   8.307  0.2719 -0.1185 -0.1752
68125W        W11037   5.879   2.851   7.121  0.1413 -0.4339  0.1714
68126W        W11038   4.603   7.493   8.669  0.0049  0.1383  0.0331
68127W        W11039   5.711   4.536   7.729 -0.2431 -0.3210 -0.0483
68128W        W11040   5.188   4.441   8.473 -0.2486  0.3310  0.1135
68129W        W11041   5.951   7.387   9.155  0.0547 -0.0443 -0.2378
68130W        W11042   6.353   5.182   6.666 -0.1910 -0.1091 -0.1616
68131W        W11043   6.103   6.016   9.589 -0.3299  0.0389  0.0932
68132W        W11044   6.035   7.381   7.401  0.0479 -0.1583 -0.2159
68133W        W11045   7.399   3.498   7.870  0.0925 -0.0986 -0.2273
68134W        W11046   3.187   7.030   8.893  0.0597 -0.1655  0.3488
68135W        W11047   4.644   4.871   7.856 -0.0724  0.1561 -0.0722
68136W        W11048   4.721   4.165   8.629 -0.2286 -0.0673  0.0978
68137W        W11049   7.504   3.629   8.654 -0.1841  0.4127 -0.0488
68138W        W11050   6.077   5.917   6.820  0.1459 -0.6747  0.2013
68139W        W11051   4.477   4.721   9.665 -0.2827 -0.0351 -0.0971
68140W        W11052   5.282   4.158   8.938  0.0407  0.0996 -0.1036
68141W        W11053   4.023   5.876   7.916  0.1366  0.1544 -0.2303
68142W        W11054   6.558   3.422   8.843 -0.0503 -0.2620 -0.2683
68143W        W11055   4.047   3.886   5.736 -0.2427 -0.1111  0.0133
68144W        W11056   8.537   2.600   9.189 -0.2076 -0.0353 -0.0814
68145W        W11057   5.481   3.384   8.448 -0.1144  0.1486  0.1452
68146W        W11058   3.395   7.089  10.279 -0.2842  0.1708  0.0605
68147W        W11059   6.081  10.920  12.548  0.0489 -0.0312  0.2030
68148W        W11060   4.252   4.853   7.505  0.0625 -0.1385 -0.3241
68149W        W11061   3.888   6.838   9.498 -0.0504 -0.0597 -0.2375
68150W        W11062   5.831   1.340  10.041 -0.1143 -0.1216 -0.3206
68151W        W11063   4.643   3.238   9.165  0.1069 -0.0011 -0.2440
68152W        W11064   6.317   3.525   9.856 -0.1083 -0.2754  0.1826
68153W        W11065   5.460   4.545   9.247  0.0020  0.0691  0.1310
68154W        W11066   7.198   7.463   9.340 -0.0051  0.0470  0.0275
68155W        W11067   5.470   6.579   9.157  0.2204  0.0115 -0.4406
68156W        W11068   5.342   1.644   9.681 -0.1082 -0.1751  0.1409
68157W        W11069   7.353   6.011   7.097  0.0797 -0.2755 -0.1295
68158W        W11070   5.534   5.551   7.224  0.1343 -0.2426 -0.3243
68159W        W11071   5.242   5.208   9.518 -0.2707 -0.2967  0.0637
68160W        W11072   5.530   7.499   8.278  0.2009 -0.1446  0.0644
68161W        W11073   7.443   3.167   8.911 -0.1276 -0.0010  0.0276
68162W        W11074   5.210   7.949  10.082 -0.0856  0.1445 -0.0104
68163W        W11075   4.661   5.317   6.829 -0.1265  0.1077 -0.1445
68164W        W11076   3.720   4.249  10.126  0.1508 -0.2228 -0.1729
68165W        W11077   7.174   3.940   7.860  0.0778 -0.0402  0.0175
68166W        W11078   7.065   4.257   7.095 -0.0977  0.2079 -0.3484
68167W        W11079   5.951   4.313   9.289 -0.3183  0.2163  0.1862
68168W        W11080   5.627   4.729   6.872 -0.0950 -0.1463 -0.2335
68169W        W11081   4.841   3.932   9.932  0.1753  0.1808  0.0656
68170W        W11082   7.469   4.692   8.686 -0.0745  0.1089  0.0582
68171W        W11083   6.369   4.822   8.825 -0.0703 -0.1297 -0.0432
68172W        W11084   4.380   4.657   6.346  0.2115 -0.3787 -0.3762
68173W        W11085   5.639   6.115   8.904  0.1159  0.0393 -0.1228
68174W        W11086   6.713   4.851   9.167  0.1101 -0.3906  0.0835
68175W        W11087   7.001   4.209   9.787  0.0888 -0.1071 -0.0207
68176W        W11088   8.551   4.214   9.299  0.1626 -0.0620 -0.1965
68177W        W11089   5.558   6.898   9.764 -0.0052  0.0492  0.0597
68178W        W11090   6.101   4.683   8.023  0.0844 -0.0445  0.0444
68179W        W11091   5.351   3.853   7.154 -0.0878  0.0114  0.1756
68180W        W11092   5.427   5.435   7.704 -0.4034 -0.0750  0.3756
68181W        W11093   6.865   5.567   9.772 -0.0572  0.0940 -0.3287
68182W        W11094   5.937   2.275   9.949 -0.2283 -0.1566 -0.3574
68183W        W11095   7.857   8.484   9.850  0.0645  0.3338 -0.1501
68184W        W11096   7.814   5.060   7.348 -0.0134 -0.0494  0.2050
68185W        W11097   7.762   4.520   9.099 -0.0581  0.1103 -0.0166
68186W        W11098   6.488   4.967   7.091  0.0875  0.0155 -0.1103
68187W        W11099   5.857   3.725   8.335 -0.0617  0.2118 -0.0666
68188W        W11100   5.172   3.412   9.251  0.1606 -0.0903 -0.0465
68189W        W11101   4.228   5.117   6.683  0.1188  0.2545 -0.2432
68190W        W11102   6.365   5.891   7.976 -0.0346 -0.0369 -0.3392
68191W        W11103   4.687   5.538   9.296  0.0449  0.0717 -0.0862
68192W        W11104   5.218   3.899   8.484 -0.0354 -0.0639  0.2965
68193W        W11105   2.624   4.199   9.680  0.0450  0.0402  0.0673
68194W        W11106   3.711   3.877   5.303  0.1228 -0.0101  0.0230
68195W        W11107   4.464   5.679   7.804  0.2714  0.0132  0.1645
68196W        W11108   5.740   5.088   9.548  0.1533  0.1791  0.1933
68197W        W11109   6.090   3.285   7.235  0.2314 -0.1193  0.1776
68198W        W11110   5.075   6.196   8.323  0.1340 -0.3163  0.2649
68199W        W11111   5.677   2.409   8.247  0.1331 -0.0112  0.2485
68200W        W11112   6.031   8.938  10.069  0.0605 -0.3001  0.3581
68201W        W11113   5.030   6.887   9.209 -0.1714 -0.1563  0.0599
68202W        W11114   5.766   4.004   8.700 -0.2640  0.0525  0.0297
68203W        W11115   7.371   3.882   9.694  0.0055  0.1033  0.2418
68204W        W11116   7.482   4.405   9.570  0.3091  0.0880 -0.3669
68205W        W11117   3.313   4.106   9.824  0.0535  0.0841  0.0197
68206W        W11118   6.999   3.745   9.383 -0.0899  0.1906 -0.1542
68207W        W11119   5.446   5.875   8.474  0.0593 -0.1954  0.1492
68208W        W11120   5.603   5.818   9.475  0.1082 -0.3488 -0.1414
68209W        W11121   5.100   4.213   9.447  0.0046 -0.3986  0.3523
68210W        W11122   6.158   6.638   7.406  0.1138  0.1011  0.0489
68211W        W11123   4.310   6.106   9.877 -0.1723  0.2213  0.0095
68212W        W11124   5.479   6.393   7.571 -0.2545 -0.2138 -0.1627
68213W        W11125   6.588   4.684   7.798 -0.1651  0.2284 -0.3590
68214W        W11126   5.595   4.780   8.217  0.1521 -0.3070 -0.0494
68215W        W11127   5.938   6.426   8.188  0.2553  0.3712 -0.0532
68216W        W11128   5.170   4.901   6.981 -0.1810  0.0219 -0.0995
68217W        W11129   2.805   4.897  10.318 -0.1572 -0.1465 -0.1159
68218W        W11130   4.244   7.112   6.374  0.0633 -0.1767 -0.2182
68219W        W11131   6.497   6.441   7.661 -0.0947  0.1974 -0.3643
68220W        W11132   4.935   6.533   8.749 -0.0294 -0.1093 -0.0743
68221W        W11133   7.064   3.581   7.466 -0.1281 -0.0736 -0.1942
68222W        W11134   5.280   7.128  10.048  0.1269  0.1808 -0.0855
68223W        W11135   6.894   3.557   6.971 -0.0687 -0.3102  0.1985
68224W        W11136   5.128   5.659   9.674  0.0051 -0.0689  0.1011
68225W        W11137   6.120   3.419   7.737 -0.2634 -0.0129 -0.1361
68226W        W11138   7.266   6.019   7.637  0.0169  0.0967 -0.1081
68227W        W11139   4.255   5.855   9.415  0.1508 -0.1986  0.4370
68228W        W11140   6.061   5.192   8.255 -0.2103 -0.4449 -0.4353
68229W        W11141   8.720   3.203   8.508  0.3803  0.0992  0.2951
68230W        W11142   5.218   6.351   6.718 -0.0637  0.0269  0.0010
68231W        W11143   5.762   2.994   9.382  0.0854 -0.1053  0.1660
68232W        W11144   5.287   7.815   9.550 -0.0327  0.2500  0.1055
68233W        W11145   6.179   6.922   9.935  0.1866 -0.0408 -0.0993
68234W        W11146   3.601   7.721  10.389 -0.1772  0.1213 -0.0894
68235W        W11147   5.033   4.364   7.973 -0.1814 -0.3061 -0.0625
68236W        W11148   6.351   4.433   7.415 -0.3362  0.4927 -0.1383
68237W        W11149   6.170   5.256   9.263  0.1431 -0.0064  0.1298
68238W        W11150   3.664   3.888   9.483 -0.0681 -0.0066 -0.1458
68239W        W11151   6.663   3.872   8.991  0.2644 -0.0920 -0.2143
68240W        W11152   5.539   2.539   9.253  0.1986 -0.0612 -0.2634
68241W        W11153   3.984   4.760   9.519  0.0244  0.0246 -0.0235
68242W        W11154   5.552   5.315   8.274 -0.1151  0.2075  0.0391
68243W        W11155   5.439   3.680   6.730  0.0169  0.0389  0.2557
68244W        W11156   2.969   3.473   8.687  0.0349 -0.0416 -0.0632
68245W        W11157   6.507   2.247   7.028  0.1819 -0.0761 -0.1555
68246W        W11158   5.488   5.382   9.999 -0.1254 -0.2665  0.2581
68247W        W11159   5.912   4.767   9.119  0.1427  0.0089 -0.0113
68248W        W11160   4.612   3.719   8.668 -0.0486 -0.3976 -0.1038
68249W        W11161   7.356   5.772   6.226  0.1779 -0.3747 -0.3868
68250W        W11162   6.753   3.782  10.097 -0.0603  0.0251 -0.2761
68251W        W11163   6.278   7.066   7.681  0.0072  0.0079 -0.3398
68252W        W11164   6.764   5.322   9.247  0.1678 -0.0582 -0.0517
68253W        W11165   6.698   5.810   8.829 -0.2888  0.0582 -0.1922
68254W        W11166   4.352   5.165   9.465  0.0844 -0.3765 -0.3519
68255W        W11167   7.261   6.256   8.308 -0.0235  0.2273  0.2298
68256W        W11168   6.630   6.070   9.674 -0.4219  0.2067  0.1725
68257W        W11169   6.393   2.499   7.983 -0.0545 -0.0947 -0.2467
68258W        W11170   5.159   3.743   9.628  0.2741 -0.1337  0.0782
68259W        W11171   4.457   7.880   9.054 -0.1641  0.0081 -0.0408
68260W        W11172   7.223   4.407   9.060 -0.1487 -0.0817  0.1137
68261W        W11173   5.402   6.660   7.111  0.1654  0.3505 -0.0307
68262W        W11174   6.591   5.107   9.688  0.2470  0.0760  0.2888
68263W        W11175   2.887   4.270   8.201 -0.1402 -0.0333 -0.0839
68264W        W11176   4.954   5.919   7.748  0.0029 -0.2021  0.0836
68265W        W11177   5.069   7.342   8.978  0.1230 -0.0287  0.1541
68266W        W11178   5.294   5.702   8.038  0.0781  0.3403 -0.1373
68267W        W11179   5.005   4.144   7.503  0.4235  0.1273 -0.3087
68268W        W11180   6.926   6.654   8.313 -0.1212 -0.0242  0.0422
68269W        W11181   5.296   5.461   8.680  0.1067  0.0950  0.0911
68270W        W11182   7.885   4.462   8.004 -0.1758 -0.1438  0.4841
68271W        W11183   6.682   3.964   8.358 -0.0134  0.1064 -0.3104
68272W        W11184   6.276   3.141   9.210 -0.0585  0.3709 -0.0196
68273W        W11185   4.241   5.191   7.834  0.0301  0.2738  0.2883
68274W        W11186   4.011   7.512   6.595  0.0768 -0.1062  0.3900
68275W        W11187   3.700   6.191   8.760  0.0266  0.3977 -0.1358
68276W        W11188   3.807   6.122   9.272  0.0595 -0.3858  0.2382
68277W        W11189   4.731   4.565   8.310  0.2742 -0.1748  0.3070
68278W        W11190   7.667   6.319   6.925 -0.0137 -0.0032 -0.2813
68279W        W11191   5.463   3.268   9.720  0.1926  0.1433  0.1289
68280W        W11192   4.189   4.345   9.858  0.0152  0.0756  0.2954
68281W        W11193   5.791   5.093   7.797 -0.3600  0.1009  0.0371
68282W        W11194   5.723   5.957   6.350  0.0797  0.0164  0.0493
68283W        W11195   5.211   3.618   8.014 -0.1170  0.0130  0.3302
68284W        W11196   4.414   4.516   8.804 -0.0266 -0.1075  0.2766
68285W        W11197   3.426   2.664   7.097  0.3070  0.1108  0.1107
68286W        W11198   5.011   4.712   9.430 -0.2142  0.1713  0.1764
68287W        W11199   6.836   5.928   8.388  0.1928 -0.0987 -0.2869
68288W        W11200   7.254   7.818   7.314  0.0581 -0.1290 -0.2659
68289W        W11201   6.946   3.160   9.112  0.0313  0.0762  0.0611
68290W        W11202   6.137   5.208   7.349 -0.1656  0.1083  0.1471
68291W        W11203   7.924   6.228   6.458 -0.2083  0.0899  0.3238
68292W        W11204   6.264   3.689   8.087 -0.2040  0.2321  0.0213
68293W        W11205   5.656   4.219   8.199  0.0843  0.1269  0.0717
68294W        W11206   6.449   5.691   9.388 -0.5212 -0.2794 -0.3705
68295W        W11207   4.505   3.222   8.666 -0.3466 -0.1949  0.1555
68296W        W11208   7.048   3.639   8.787  0.0309  0.1451 -0.2922
68297W        W11209   6.317   6.124   7.286  0.1499  0.0319 -0.0961
68298W        W11210   5.229   6.168   9.337  0.4068 -0.0058  0.1181
68299W        W11211   5.441   4.045   7.697  0.0969 -0.2450  0.0115
68300W        W11212   5.953   5.808   7.433 -0.2504 -0.1027  0.2195
68301W        W11213   4.426   5.225   8.774 -0.2746  0.2883 -0.0404
68302W        W11214   7.137   5.623   7.396  0.1682 -0.1225  0.1460
68303W        W11215   6.216   5.432   8.753  0.1231 -0.0362  0.0636
68304W        W11216   5.102   7.285   9.567 -0.1497 -0.0821  0.2938
68305W        W11217   8.016   5.103   9.422 -0.2226 -0.0407 -0.0475
68306W        W11218   4.090   3.345   9.344 -0.0910 -0.3003  0.3397
68307W        W11219   4.736   5.653   8.234 -0.0208 -0.0450 -0.0939
68308W        W11220   6.400   5.652   7.565 -0.0093 -0.0255 -0.2175
68309W        W11221   5.618   5.874   9.972  0.0292  0.1172 -0.0985
68310W        W11222   6.126   4.077   9.748  0.0742 -0.0123 -0.2822
68311W        W11223   6.234   3.761   8.630 -0.0463 -0.1154 -0.1171
68312W        W11224   7.377   5.147  10.077 -0.0553  0.2789  0.1099
68313W        W11225   7.105   5.663   6.708  0.0397  0.1000 -0.0669
68314W        W11226   5.305  10.215   3.057 -0.0080  0.0846 -0.4022
68315W        W11227   5.716   7.823  31.456 -0.0719 -0.1365  0.1789
68316W        W11228   8.337   8.194   0.076 -0.3522 -0.1696  0.2776
68317W        W11229   7.380   9.433   0.636 -0.0048  0.0059  0.1091
68318W        W11230   3.803   8.397   2.219 -0.1900  0.0040  0.0262
68319W        W11231   6.898  10.319   0.120 -0.1277 -0.2723  0.3318
68320W        W11232   5.367   7.135   3.884  0.1021  0.0208 -0.1063
68321W        W11233   7.390   8.580   1.150 -0.0376 -0.2273  0.0741
68322W        W11234   7.089  10.293   1.053  0.0694  0.0465  0.0081
68323W        W11235   5.000   9.720   1.352  0.0729 -0.3468  0.0677
68324W        W11236   6.897   7.262   2.766 -0.1094  0.0014  0.0057
68325W        W11237   5.579  11.840   1.963 -0.0180 -0.2373 -0.0645
68326W        W11238   6.135   7.014  31.857 -0.0189 -0.4161 -0.3634
68327W        W11239   4.138   8.095   1.863  0.1368  0.1280 -0.2931
68328W        W11240   8.821   8.384   2.046 -0.4554 -0.0150  0.2475
68329W        W11241   4.041   9.123   2.621 -0.0645 -0.0922  0.0970
68330W        W11242   5.501   9.152   2.860 -0.2800  0.1534  0.0435
68331W        W11243   5.802   9.004   0.503 -0.1073  0.0061  0.3064
68332W        W11244   5.722  11.027   0.947  0.1172  0.1018  0.2809
68333W        W11245   4.939   7.827   1.717  0.0821 -0.0052 -0.0069
68334W        W11246   5.953   6.867   1.537  0.1135  0.2503  0.2170
68335W        W11247   6.233  10.999  31.696  0.3005 -0.2522  0.1261
68336W        W11248   2.931   9.364  31.883 -0.1141 -0.0491 -0.3393
68337W        W11249   3.836   8.435   2.774  0.1736 -0.0128  0.1688
68338W        W11250   4.095   8.214   3.681 -0.0823  0.0087 -0.4204
68339W        W11251   7.670   8.483   1.535 -0.1684  0.1850  0.1146
68340W        W11252   6.630   7.537   2.339 -0.0328  0.0097 -0.1331
68341W        W11253   5.594  10.033   1.365  0.3428 -0.1833 -0.0309
68342W        W11254   5.853   9.488   1.945  0.0141 -0.0333 -0.0700
68343W        W11255   7.568   6.754   2.264  0.0456 -0.1650  0.0453
68344W        W11256   3.987  10.016   2.673  0.1469 -0.0782  0.0602
68345W        W11257   3.231  10.642   1.864  0.2183 -0.0496 -0.2646
68346W        W11258   5.875  10.824   0.433 -0.1472 -0.2019 -0.3868
68347W        W11259   7.790   9.011  30.969  0.3308 -0.1510 -0.1688
68348W        W11260   8.362   9.767   2.604  0.2683  0.2288  0.0475
68349W        W11261   6.790  10.311   3.036  0.0755  0.0065  0.2974
68350W        W11262   3.876   9.744   0.670 -0.2382 -0.0199  0.2506
68351W        W11263   6.043  10.767   3.085 -0.0969 -0.0595  0.1312
68352W        W11264   4.583   9.288   4.690  0.0141 -0.1214  0.1200
68353W        W11265   5.703   8.652   2.384 -0.2084  0.1185 -0.1756
68354W        W11266   5.688   8.882   1.059 -0.0153  0.1420 -0.0694
68355W        W11267   4.763  10.895   0.766  0.1307 -0.0859 -0.4711
68356W        W11268   6.272  10.511   1.509  0.2479 -0.0904  0.1552
68357W        W11269   4.514   9.566   3.148 -0.0881 -0.0771  0.2219
68358W        W11270   2.753  10.762   1.639 -0.2296  0.0194 -0.1399
68359W        W11271   7.277   8.607   3.809  0.2297 -0.0798 -0.0437
68360W        W11272   4.208  10.067   0.985 -0.0902 -0.1529  0.3974
68361W        W11273   7.207   7.675   1.172  0.0227  0.2126 -0.2343
68362W        W11274   6.791   8.013  30.363 -0.2239 -0.2090 -0.3004
68363W        W11275   6.528   8.546   0.916 -0.1632 -0.1694 -0.3633
68364W        W11276   5.046   8.618   1.097 -0.2958 -0.0068  0.0396
68365W        W11277   4.375  10.533   1.390 -0.1934 -0.1190 -0.0964
68366W        W11278   5.146   8.079   2.796 -0.0305  0.0948  0.0175
68367W        W11279   6.837   7.938   2.535  0.3656 -0.0097 -0.0812
68368W        W11280   7.062   8.792   0.799 -0.0751 -0.0881  0.0209
68369W        W11281   7.254   7.346   2.315  0.3141 -0.0908 -0.0730
68370W        W11282   5.550  10.045   2.622  0.0781  0.1371  0.0053
68371W        W11283   5.355   8.237   1.756 -0.0952 -0.1037 -0.1362
68372W        W11284   8.164  10.602  30.926  0.0812  0.0420  0.2570
68373W        W11285   6.411  12.281   1.449 -0.1866  0.0891  0.3345
68374W        W11286   7.727  10.135   0.376  0.0772  0.2999  0.1087
68375W        W11287   4.874   9.489   0.917 -0.1142  0.2486 -0.3425
68376W        W11288   4.283   9.427   3.560 -0.0672  0.1485  0.3827
68377W        W11289   4.226   8.188   2.466  0.1998  0.2379 -0.1016
68378W        W11290   6.157   7.525   1.708  0.1613 -0.0372  0.2746
68379W        W11291   7.323   9.936   3.584  0.1044  0.0228  0.0313
68380W        W11292   4.333  10.977   3.249 -0.1900  0.4007  0.2737
68381W        W11293   7.394   6.862  31.308 -0.1580  0.1734 -0.0776
68382W        W11294   4.589   8.332   1.028  0.1059 -0.2016  0.0157
68383W        W11295   7.823   9.096   1.857  0.2096 -0.1635  0.1134
68384W        W11296   6.571   9.571  31.394  0.1370  0.0086  0.0345
68385W        W11297   7.410   6.718   1.315 -0.1555 -0.2037  0.3695
68386W        W11298   6.786   5.749   1.829  0.0270 -0.2936  0.0422
68387W        W11299   3.978   8.591   1.505 -0.2247 -0.0935  0.2820
68388W        W11300   6.743   9.109   1.526  0.1200 -0.5921 -0.0182
68389W        W11301   6.000   9.082   2.925 -0.0274  0.3406  0.2131
68390W        W11302   8.188   8.714   0.280  0.0350 -0.1584  0.0174
68391W        W11303   5.534  10.483   2.181 -0.3970  0.1461 -0.2299
68392W        W11304   6.196   7.401   2.657 -0.1652 -0.2383 -0.3390
68393W        W11305   6.710   9.370   3.254 -0.0214  0.2145 -0.3163
68394W        W11306   3.587  11.593  31.786 -0.3309  0.1610 -0.0217
68395W        W11307   5.185   8.854   2.432 -0.0381  0.0641  0.2975
68396W        W11308   3.572  10.820   1.511  0.1212 -0.1288  0.2945
68397W        W11309   3.456   7.788   2.054  0.2838 -0.3495  0.2070
68398W        W11310   4.576   9.331   1.282  0.0076 -0.2704  0.0738
68399W        W11311   7.187   6.406   2.381  0.1386  0.3070 -0.2251
68400W        W11312   4.930   8.273   1.416  0.0540 -0.1146  0.1024
68401W        W11313   8.120   6.946  31.845 -0.0786 -0.0879 -0.0946
68402W        W11314   4.733   9.037   3.384  0.1558 -0.0543 -0.3169
68403W        W11315   7.399  11.130   1.192  0.2606  0.0962  0.0762
68404W        W11316   6.177   9.072   0.816  0.4510  0.3609 -0.1689
68405W        W11317   7.010   9.930  31.394 -0.0081  0.2070 -0.0474
68406W        W11318   3.767   8.731   4.254 -0.0889 -0.0693 -0.2536
68407W        W11319   5.356   8.774   2.002  0.0112  0.1138  0.2324
68408W        W11320   4.898   7.771   3.128  0.0133 -0.0426  0.1733
68409W        W11321   4.582   8.431   2.750 -0.0985 -0.1520 -0.0489
68410W        W11322   7.106   8.424   2.281 -0.2148 -0.0537  0.0716
68411W        W11323   4.440   8.385   1.541  0.1671  0.1213 -0.1566
68412W        W11324   6.774   7.274   1.246  0.2949  0.0465 -0.3849
68413W        W11325   4.105   7.584   1.150 -0.3314  0.1037 -0.1252
68414W        W11326   4.102   9.979   1.642  0.0998  0.0119 -0.1817
68415W        W11327   5.671   7.844   2.496 -0.0031 -0.1474 -0.0673
68416W        W11328   7.236  10.419  31.174  0.0845 -0.0058 -0.2725
68417W        W11329   7.487   9.497   2.009 -0.1431  0.0438  0.0877
68418W        W11330   7.263   9.777   1.210  0.0227 -0.1051  0.0823
68419W        W11331   4.993   9.756   4.804 -0.2126  0.0765  0.4010
68420W        W11332   4.214   9.055   1.080  0.1461 -0.1396  0.0389
68421W        W11333   5.602  10.610   3.402  0.1888  0.1369 -0.0238
68422W        W11334   5.023   8.888   1.666 -0.0750 -0.0198  0.0734
68423W        W11335   4.303   8.079   0.735  0.0923 -0.0628 -0.2635
68424W        W11336   6.774  10.439   1.999 -0.3410  0.3193 -0.4653
68425W        W11337   6.052   9.506   0.626 -0.0370  0.3117 -0.0645
68426W        W11338   4.267   9.163   3.067  0.2006  0.0648  0.3093
68427W        W11339   7.613   6.953   4.775 -0.0080 -0.1619 -0.0414
68428W        W11340   6.363   6.498   3.257 -0.0956 -0.2270 -0.0649
68429W        W11341   6.059   9.392   2.442  0.0484  0.0919 -0.0700
68430W        W11342   6.511   8.130  31.113  0.3050 -0.0010 -0.0730
68431W        W11343   5.459   9.161   1.720  0.0978  0.0176 -0.2124
68432W        W11344   3.128  10.725   1.207 -0.0992  0.0064 -0.0737
68433W        W11345   3.868   9.522   1.848 -0.0524  0.1068  0.0384
68434W        W11346   4.504   9.873   1.350 -0.0207 -0.0104 -0.0617
68435W        W11347   7.232   8.724   1.602 -0.0221  0.1360  0.2954
68436W        W11348   2.854   8.282   3.947  0.0606 -0.1632  0.3431
68437W        W11349   6.735   6.498   1.981 -0.0175  0.0759  0.2757
68438W        W11350   4.249   9.190   0.546  0.0851 -0.0006 -0.0908
68439W        W11351   4.360   9.982   3.556  0.2538 -0.0667 -0.0449
68440W        W11352   7.510   5.237   0.292 -0.2096  0.0104  0.2187
68441W        W11353   7.331   6.235  31.736 -0.1087  0.0356  0.0131
68442W        W11354   6.759   8.692   2.457 -0.1817  0.3032 -0.2465
68443W        W11355   7.362   7.980  31.660  0.4004 -0.2978  0.1998
68444W        W11356   7.062   7.882   0.640 -0.3778  0.0310  0.0724
68445W        W11357   7.209   7.159   0.050  0.2330 -0.0501 -0.1077
68446W        W11358   3.667   8.200   3.921  0.1316  0.0062 -0.0500
68447W        W11359   7.621  10.211   1.740  0.0771  0.1596 -0.1293
68448W        W11360   5.870   8.969   2.052 -0.1412  0.2888  0.0579
68449W        W11361   5.913   9.755   1.024 -0.2083  0.1736 -0.3431
68450W        W11362   7.385  10.317   0.036 -0.1164  0.1098 -0.2828
68451W        W11363   5.350   9.260   4.233  0.1048 -0.4780 -0.0738
68452W        W11364   6.192   9.360   3.511  0.1595 -0.2843 -0.1350
68453W        W11365   7.660   9.033   1.311 -0.1659  0.0398  0.3776
68454W        W11366   5.411   8.206   1.124 -0.1457  0.1985  0.4044
68455W        W11367   6.228   8.444  31.974 -0.3226 -0.3295  0.0467
68456W        W11368   5.768   6.017   0.514 -0.1001 -0.2174 -0.2607
68457W        W11369   1.942   9.029  31.867 -0.4039  0.0234 -0.1274
68458W        W11370   7.866   8.441   4.421 -0.0701  0.1633  0.0996
68459W        W11371   6.548   6.286   1.079 -0.2919  0.0218 -0.1326
68460W        W11372   5.806   7.231   2.420  0.0530 -0.0315 -0.2932
68461W        W11373   6.890   9.168   2.486 -0.2332  0.1286  0.1681
68462W        W11374   6.327   9.035  31.495 -0.1497  0.0682 -0.2050
68463W        W11375   6.325   9.463   2.955  0.2710  0.1490  0.2585
68464W        W11376   5.260   8.403   0.351  0.2051  0.1216  0.0208
68465W        W11377   7.381   5.155   3.016  0.0478 -0.2484 -0.2736
68466W        W11378   5.143   8.201   4.335 -0.2275 -0.2488 -0.0729
68467W        W11379   5.877  10.148   3.007 -0.0909  0.1642 -0.0861
68468W        W11380   5.641   9.638   2.380 -0.0772  0.1250  0.1866
68469W        W11381   6.443   9.574   1.432 -0.1981 -0.1403  0.2996
68470W        W11382   5.739   8.537   3.658  0.3428 -0.1644 -0.0048
68471W        W11383   6.948   5.844   1.346 -0.2885 -0.0156  0.3318
68472W        W11384   6.075  10.188   1.180 -0.1862  0.3256  0.0289
68473W        W11385   6.108   9.783   0.233  0.1012 -0.0501  0.5367
68474W        W11386   4.817   6.385   0.769 -0.3896 -0.1305 -0.1731
68475W        W11387   5.754  10.405   1.673 -0.0729 -0.2523 -0.1255
68476W        W11388   3.869  10.332   1.395 -0.1067 -0.0195 -0.0493
68477W        W11389   4.832   8.462   4.651 -0.0477 -0.2148  0.3022
68478W        W11390   5.092   9.659   0.417  0.0471 -0.2962 -0.2031
68479W        W11391   8.246   6.133   2.593  0.1111  0.0036  0.0411
68480W        W11392   5.216  10.946   0.989  0.2106  0.1098  0.1546
68481W        W11393   3.111   8.976  31.286 -0.0099 -0.3460  0.1792
68482W        W11394   4.362   9.610   0.882 -0.0243  0.0117 -0.2348
68483W        W11395   7.269   5.409   1.490 -0.0983 -0.0810  0.2606
68484W        W11396   8.549   9.854  31.967 -0.0523 -0.1936  0.2438
68485W        W11397   5.433   8.340   3.326  0.1845  0.0691  0.1780
68486W        W11398   6.323   6.811   1.985 -0.0336  0.2070 -0.2130
68487W        W11399   5.242   9.544   2.043  0.1478 -0.0048 -0.2965
68488W        W11400   5.765   9.468   3.189 -0.1879  0.1460 -0.0859
68489W        W11401   6.922   7.376   0.816  0.1989 -0.2122  0.0823
68490W        W11402   6.740   9.328   4.143  0.0665  0.0423 -0.1582
68491W        W11403   5.116   8.022   4.809  0.0679  0.2642 -0.0472
68492W        W11404   4.622   7.474  31.881 -0.2294 -0.3971  0.1316
68493W        W11405   6.490   7.015   2.497  0.1342 -0.1827  0.1083
68494W        W11406   5.435   8.199   2.280 -0.0151 -0.0971  0.1572
68495W        W11407   5.101   9.372   2.627 -0.1889  0.2106 -0.0530
68496W        W11408   6.097   9.815   3.268  0.1026 -0.0504 -0.1239
68497W        W11409   5.661   8.672   0.188  0.2410 -0.1158 -0.2004
68498W        W11410   6.280   9.637  31.781 -0.0312 -0.2095  0.2335
68499W        W11411   5.755   7.380   1.930 -0.0589 -0.1088  0.2482
68500W        W11412   6.533   9.532   2.503 -0.2248  0.1233  0.0949
68501W        W11413   6.169   8.722   2.420  0.2319  0.1376  0.0696
68502W        W11414   6.531   7.417   0.020 -0.0496 -0.1789 -0.2539
68503W        W11415   5.917   8.756   1.485  0.0394  0.0399 -0.1151
68504W        W11416   6.755   9.986   1.244 -0.0218  0.0921  0.1718
68505W        W11417   6.425   7.143   1.608 -0.1278  0.1749 -0.3163
68506W        W11418   3.970  11.169   3.620 -0.3766 -0.0431  0.0446
68507W        W11419   6.511   6.904   3.023  0.1730 -0.2901 -0.2123
68508W        W11420   7.850  11.738  31.488 -0.1189  0.1634  0.0383
68509W        W11421   8.865   8.824   2.998  0.1076 -0.0463 -0.0371
68510W        W11422   6.028   9.875   1.638  0.0645 -0.0243 -0.1161
68511W        W11423   2.798  10.564   2.178  0.0407 -0.1600  0.0107
68512W        W11424   4.081   9.511   1.293 -0.4454  0.2983 -0.0611
68513W        W11425   7.019   7.797   2.094  0.1592  0.0218  0.1007
68514W        W11426   4.118   9.535   2.273 -0.0509  0.1601 -0.0381
68515W        W11427   5.308   9.672  31.925 -0.1092  0.1372  0.4364
68516W        W11428   5.053   8.941   2.936  0.0629 -0.0863 -0.0084
68517W        W11429   7.364   6.728  31.806  0.0758  0.1205 -0.0523
68518W        W11430   6.609   9.829   0.372  0.3003  0.0120 -0.0152
68519W        W11431   6.386   7.986   1.756  0.2450  0.1246  0.0568
68520W        W11432   6.579   7.167   3.558  0.0354 -0.3455  0.0600
68521W        W11433   6.889   8.539  30.320  0.2096 -0.0288 -0.1613
68522W        W11434   7.921   7.436   3.839  0.0555 -0.3647 -0.0437
68523W        W11435   5.344   7.540   2.991  0.1919  0.1817 -0.0184
68524W        W11436   8.153   9.492   1.745  0.1264  0.0856 -0.1897
68525W        W11437   3.156   8.759   2.134  0.0589 -0.3744  0.0520
68526W        W11438   6.235  10.278   4.689 -0.1734  0.1151  0.2082
68527W        W11439   3.567  10.046   3.959  0.0700 -0.1211  0.3421
68528W        W11440   6.126   7.509   0.343  0.0532  0.0090  0.2566
68529W        W11441   4.337   7.811   0.178  0.0543 -0.3285  0.2608
68530W        W11442   4.521  11.493   3.851  0.0173  0.0938 -0.1362
68531W        W11443   6.893   9.721   1.659  0.0849  0.4094  0.2451
68532W        W11444   4.352   9.491   1.768 -0.0077 -0.0972  0.0752
68533W        W11445   7.204   9.364   1.600  0.2158 -0.2035  0.0699
68534W        W11446   5.128  10.800   3.180  0.0634  0.1533 -0.2076
68535W        W11447   6.050   8.237   2.336  0.0397 -0.2998  0.1658
68536W        W11448   6.623   9.281  31.868  0.2788 -0.0438 -0.1121
68537W        W11449   6.159   7.785   2.141 -0.1272  0.0211  0.0906
68538W        W11450   6.156   7.915   2.759 -0.3377  0.2025 -0.3598
68539W        W11451   5.445   9.397   0.860 -0.1815 -0.0034  0.1135
68540W        W11452   6.415   7.685   1.271  0.2006 -0.0540 -0.0390
68541W        W11453   6.861   7.896   1.474  0.2634  0.0537 -0.1586
68542W        W11454   7.738   8.146   1.959 -0.1693 -0.1726  0.1109
68543W        W11455   6.256   7.258   2.107  0.0456  0.0411 -0.2513
68544W        W11456   5.498   7.305   4.351 -0.0339  0.2577 -0.2420
68545W        W11457   6.786  11.865   1.534  0.0449 -0.0256 -0.0048
68546W        W11458   7.850   7.900  30.841 -0.0294 -0.0316  0.1033
68547W        W11459   7.812   6.438   3.457 -0.0284  0.0040  0.0306
68548W        W11460   7.029   8.234   1.022  0.1849  0.0799 -0.1699
68549W        W11461   5.809   8.270   1.407 -0.2368  0.0512  0.0867
68550W        W11462   6.043   8.631   3.180 -0.0579  0.0730 -0.0856
68551W        W11463   7.054   8.993   3.482 -0.0316 -0.2049  0.0761
68552W        W11464   6.582   8.016   0.047 -0.0320 -0.0935  0.0334
68553W        W11465   5.449   5.288   3.306 -0.1261  0.0092  0.0760
68554W        W11466   6.889   9.489   1.198  0.1374  0.0130  0.0157
68555W        W11467   8.537   9.766   2.094  0.2240 -0.2124  0.1007
68556W        W11468   6.807   8.331   0.472 -0.2536  0.1652  0.0270
68557W        W11469   4.673   8.876   2.535 -0.0545 -0.2832  0.1540
68558W        W11470   4.390  10.219   2.961 -0.0168 -0.1726  0.2722
68559W        W11471   5.910   7.027  31.413 -0.0141  0.3208 -0.3057
68560W        W11472   6.762   9.384   0.544  0.1129  0.4312  0.2965
68561W        W11473   5.469   9.904   3.516 -0.1552 -0.0125 -0.1069
68562W        W11474   7.773   9.748   3.542  0.2732  0.1445 -0.2692
68563W        W11475   5.605   6.851  31.003  0.0330 -0.3140 -0.0842
68564W        W11476   7.529   7.697   2.001  0.0342  0.0518 -0.4090
68565W        W11477   4.445  10.034   2.010  0.1330  0.1529  0.2812
68566W        W11478   7.058   6.125   1.977  0.0874  0.1892 -0.0546
68567W        W11479   5.154   9.827   2.462  0.0252  0.1547  0.5599
68568W        W11480   3.541  10.108   2.466 -0.0231 -0.1838  0.1107
68569W        W11481   4.802  10.108   3.272 -0.1450  0.0416 -0.1620
68570W        W11482   5.431   6.347   2.232 -0.1016 -0.0180 -0.1313
68571W        W11483   7.135   7.488   1.670 -0.4088  0.2287 -0.0054
68572W        W11484   5.084  10.678   2.556  0.2264 -0.0615 -0.0470
68573W        W11485   7.292   8.827   2.518 -0.4831  0.1885 -0.2196
68574W        W11486   5.567   9.567   4.869  0.0294  0.2557  0.3748
68575W        W11487   5.193   8.741   3.460 -0.1150 -0.0436  0.1851
68576W        W11488   6.343   9.955   2.718 -0.0980  0.2121  0.1568
68577W        W11489   6.667   9.071   0.979 -0.1277  0.0584 -0.0913
68578W        W11490   4.887   9.229   2.169  0.0010  0.0153  0.2398
68579W        W11491   4.198   8.920   3.507 -0.0362 -0.2505  0.0974
68580W        W11492   6.304   8.106   3.227 -0.0401  0.0519  0.0832
68581W        W11493   5.126   9.228   1.244 -0.4010 -0.2330 -0.2149
68582W        W11494   5.640   6.877   1.160 -0.0686 -0.1044 -0.0616
68583W        W11495   5.312  11.545  31.084 -0.1941  0.1375  0.0846
68584W        W11496   3.645  10.406   2.934 -0.1645  0.0590 -0.0567
68585W        W11497   2.791   8.622   1.832 -0.0914  0.1350 -0.0478
68586W        W11498   2.759  12.021   1.313 -0.0724  0.2045  0.1908
68587W        W11499   6.208   8.122  31.506 -0.2276  0.1581 -0.1585
68588W        W11500   5.761   8.389  31.683 -0.1170 -0.2865 -0.3082
68589W        W11501   6.336  10.494   2.817 -0.1374 -0.0257  0.1483
68590W        W11502   4.721   7.550  31.391 -0.2288 -0.0717  0.0910
68591W        W11503   4.852  10.033   1.733  0.1122  0.3207 -0.0663
68592W        W11504   4.953  10.851   1.396  0.1601 -0.0906  0.1013
68593W        W11505   5.184   9.037  31.375  0.2690 -0.0907 -0.3735
68594W        W11506   4.684  10.958   2.606 -0.0095 -0.0959  0.0260
68595W        W11507   6.998   9.562   3.678 -0.0314  0.0318  0.0496
68596W        W11508   5.364   6.695   0.058 -0.0735  0.0916 -0.2061
68597W        W11509   9.038   7.974   1.828  0.0304  0.0225  0.0668
68598W        W11510   7.722   7.650  31.261  0.0803  0.0954 -0.2342
68599W        W11511   5.873   9.733   2.784 -0.1255 -0.2944 -0.2253
68600W        W11512   5.445   9.055   3.815 -0.1681 -0.1744  0.2507
68601W        W11513   5.428   8.068  31.931  0.3014  0.2627 -0.1127
68602W        W11514   4.559   9.682   4.983  0.2776 -0.0832 -0.0729
68603W        W11515   7.453   8.051   4.288  0.2163 -0.2826 -0.5048
68604W        W11516   3.812  11.898   4.140  0.0095  0.0427  0.0689
68605W        W11517   7.024  10.787   0.440 -0.0560 -0.2339  0.3568
68606W        W11518   3.620   8.725   1.800 -0.0108 -0.0429 -0.0560
68607W        W11519   4.872   8.454   0.589 -0.0345  0.2926  0.1519
68608W        W11520   7.376   5.801   1.729 -0.3244 -0.2177 -0.1416
68609W        W11521   4.974  10.661   0.199 -0.0444  0.0089 -0.3559
68610W        W11522   7.073   6.880   2.429  0.0123  0.1862 -0.1156
68611W        W11523   6.728  11.226   0.446  0.0625  0.2700  0.1340
68612W        W11524   5.993  10.985   3.576 -0.0571  0.2574  0.1274
68613W        W11525   6.211  11.184   2.059 -0.0181 -0.0291  0.3087
68614W        W11526   4.015   9.624   0.149  0.2406 -0.3243 -0.1257
68615W        W11527   6.848   8.600   1.332 -0.0523 -0.3368 -0.1866
68616W        W11528   5.737   9.449   3.655 -0.1548  0.1399 -0.1586
68617W        W11529   6.170   6.624   2.694  0.0755  0.0084 -0.3649
68618W        W11530   5.347   9.702   2.947 -0.1192 -0.1978  0.1436
68619W        W11531   7.025   7.914  31.267  0.0611  0.0106 -0.0622
68620W        W11532   7.007  10.002   2.032 -0.1651 -0.2789  0.0468
68621W        W11533   4.941   8.488   3.053 -0.0948  0.2615 -0.2075
68622W        W11534   6.125   8.915  31.927  0.4227 -0.0355 -0.1537
68623W        W11535   7.191   9.062   2.094 -0.0948  0.0241 -0.3624
68624W        W11536   7.236   8.987  31.013  0.1942 -0.3132 -0.1077
68625W        W11537   6.508  12.419   2.447 -0.1494  0.2302 -0.0916
68626W        W11538   4.920   6.822   2.042  0.0816  0.0348 -0.0466
68627W        W11539   7.023   7.223  30.116 -0.2232 -0.2254  0.1734
68628W        W11540   4.321   8.665   0.718  0.0364 -0.2465 -0.3285
68629W        W11541   5.417   8.545   2.811  0.1269  0.0293 -0.2809
68630W        W11542   7.937   9.472   2.260 -0.2319  0.0667 -0.3030
68631W        W11543   6.161   8.624   0.508 -0.0521 -0.0271 -0.4095
68632W        W11544   6.677  11.291  29.748  0.1458 -0.3311 -0.0583
68633W        W11545   8.124   9.968   1.659 -0.1950  0.2135 -0.1177
68634W        W11546   5.505  10.635  31.980 -0.0806  0.1602 -0.3163
68635W        W11547   8.633   9.107   0.629 -0.2491  0.0715 -0.1407
68636W        W11548   6.502  10.343   0.994  0.0709 -0.0198 -0.0486
68637W        W11549   4.438   8.642   3.160 -0.1514 -0.1281  0.4933
68638W        W11550   6.174   9.163   1.726  0.1651  0.0488 -0.2704
68639W        W11551   7.750   8.901   2.797  0.0486 -0.0955  0.1675
68640W        W11552   6.759   6.951  31.771 -0.1288 -0.1344  0.2244
68641W        W11553   6.041   9.299   4.065  0.1080 -0.0587 -0.3132
68642W        W11554   5.233  10.420   1.769 -0.0987 -0.0479  0.0366
68643W        W11555   6.947   5.885   3.173 -0.0727 -0.1393  0.0395
68644W        W11556   6.752   7.090   2.074  0.0831  0.1413  0.2142
68645W        W11557   6.002  10.539  31.885  0.1052 -0.2250  0.0467
68646W        W11558   5.859   7.066   3.875  0.0743  0.1905 -0.1428
68647W        W11559   6.487   9.708   3.635  0.0814  0.3951  0.2021
68648W        W11560   4.883  10.295   2.728 -0.0550 -0.0432  0.2904
68649W        W11561   5.359   8.661  31.759  0.0345  0.0338 -0.0990
68650W        W11562   7.506   8.441   2.717  0.1863  0.0063 -0.0285
68651W        W11563   6.971   9.795   0.808  0.0138 -0.3013  0.1064
68652W        W11564   6.030   8.538   0.967  0.1981  0.0972  0.0911
68653W        W11565   6.813  10.212   0.607 -0.2080 -0.0331  0.0056
68654W        W11566   5.886   7.753   1.251  0.2748 -0.3942 -0.0601
68655W        W11567   6.466   9.091   2.171  0.0716  0.0003 -0.0352
68656W        W11568   5.087   7.528   0.713  0.2360 -0.3420  0.0199
68657W        W11569   7.502   5.205   0.863  0.2406 -0.0709 -0.0298
68658W        W11570   7.077   6.506  30.974  0.0667 -0.4630  0.0871
68659W        W11571   6.425   8.981   3.294  0.1069 -0.0757  0.1072
68660W        W11572   4.991   7.232  31.072 -0.1177  0.3840 -0.3255
68661W        W11573   6.157  10.111  31.641 -0.2963  0.0255 -0.1078
68662W        W11574   5.468   8.620   1.482  0.3510 -0.0583 -0.0059
68663W        W11575   6.868   6.795   3.637 -0.0888  0.2856 -0.0333
68664W        W11576   5.321   7.838   3.398  0.0682 -0.1124 -0.1447
68665W        W11577   4.814   7.739   3.609 -0.2057 -0.0537 -0.0095
68666W        W11578   3.798   8.957   2.218  0.2371  0.0722  0.0990
68667W        W11579   7.581   9.202  31.881 -0.0674  0.0394 -0.2553
68668W        W11580   5.693   7.285   1.442  0.0167 -0.3264 -0.1701
68669W        W11581   4.201   8.656   2.474  0.4127 -0.0067  0.1851
68670W        W11582   7.250   9.152   1.076  0.2742 -0.0493  0.0816
68671W        W11583   7.071  10.421  31.638  0.1891  0.0568 -0.3290
68672W        W11584   5.735   6.597   0.405  0.2248 -0.0125  0.0317
68673W        W11585   6.908   9.574   2.810  0.2341 -0.0536  0.0825
68674W        W11586   4.882   8.350  31.927 -0.2418  0.1845 -0.0631
68675W        W11587   6.295   8.528   3.600 -0.0790  0.0629  0.2452
68676W        W11588   7.108   7.519   3.140 -0.0551 -0.0179 -0.0945
68677W        W11589   4.727   7.445   0.363  0.1084  0.1475  0.0643
68678W        W11590   6.142   7.254   1.152 -0.2373  0.0583 -0.0262
68679W        W11591   6.800   8.768   1.893  0.0394  0.0814  0.0532
68680W        W11592   7.896  12.142  31.739 -0.0230 -0.0929 -0.1509
68681W        W11593   5.478   9.188   2.277  0.1700 -0.0579 -0.3444
68682W        W11594   5.247   9.575   3.779  0.2303  0.1026  0.3283
68683W        W11595   5.051   6.801   3.274 -0.2907 -0.2600  0.4179
68684W        W11596   5.927   9.308   1.251 -0.0953 -0.2823 -0.0639
68685W        W11597   5.537  10.103   3.926 -0.1390 -0.0358 -0.0121
68686W        W11598   6.478   9.641   0.917 -0.2648 -0.1611 -0.4734
68687W        W11599   6.312   8.958   1.301 -0.1071  0.2518  0.0395
68688W        W11600   6.642   8.774   0.419 -0.0464 -0.1397 -0.3114
68689W        W11601   4.659   7.513   2.617 -0.0047  0.2261 -0.2210
68690W        W11602   3.924  10.116   3.193 -0.1113  0.1531 -0.1170
68691W        W11603   7.508   8.637   2.077 -0.1568  0.1685  0.1161
68692W        W11604   5.441   7.809   1.529 -0.0295  0.1120 -0.0074
68693W        W11605   6.660   7.528   1.823  0.1412  0.2782 -0.1247
68694W        W11606   6.258   8.140   0.450  0.1634  0.1784  0.2985
68695W        W11607   3.518   8.727   2.557  0.1971 -0.2823 -0.1837
68696W        W11608   6.212   6.837   0.412  0.0172  0.0652  0.1593
68697W        W11609   5.875   7.021   2.898 -0.2467 -0.3069 -0.2758
68698W        W11610   4.440   8.915   1.566 -0.1404  0.2243  0.3575
68699W        W11611   5.245   9.255   3.396  0.0485  0.2536 -0.0392
68700W        W11612   5.058   8.868   0.238 -0.3011 -0.2595  0.1661
68701W        W11613   7.229   8.534   0.280  0.2828 -0.1189  0.1136
68702W        W11614   5.341  11.336   3.395 -0.0107  0.0097  0.0196
68703W        W11615   6.831  10.515   4.001 -0.2034 -0.0079  0.3659
68704W        W11616   5.184  10.313   3.546  0.1415  0.1021  0.0727
68705W        W11617   6.869   8.297   1.836 -0.2417  0.0590 -0.2232
68706W        W11618   5.354   7.000   2.782 -0.2661 -0.0503  0.0792
68707W        W11619   4.557   9.571   0.352 -0.1464 -0.0192  0.0012
68708W        W11620   4.675   8.927   0.994 -0.0191 -0.0426  0.0236
68709W        W11621   7.399   7.285   0.620  0.1144  0.0599 -0.2498
68710W        W11622   5.771   8.469   1.950 -0.5909  0.0206  0.0399
68711W        W11623   7.604   5.772   0.343 -0.1644  0.0877 -0.3888
68712W        W11624   3.895  10.461   2.444 -0.1871 -0.5089 -0.1078
68713W        W11625   5.548  10.639   2.826 -0.2172  0.0693  0.0635
68714W        W11626   4.658  10.339   9.321  0.1498 -0.0320 -0.2047
68715W        W11627   6.033   8.023   4.288  0.1183 -0.0852  0.0336
68716W        W11628   5.835   7.903   3.448  0.3016  0.0168 -0.2545
68717W        W11629   7.370  10.002   5.084 -0.1619 -0.0275 -0.2378
68718W        W11630   4.767   6.373   4.808  0.0291  0.2485 -0.3940
68719W        W11631   6.982   9.960   3.950 -0.0918 -0.1608 -0.0231
68720W        W11632   4.768   6.391   6.916 -0.0875 -0.1587 -0.1998
68721W        W11633   5.891  10.673   4.786  0.0555  0.1865  0.0115
68722W        W11634   6.635   9.565   6.352  0.0410  0.1524 -0.0884
68723W        W11635   5.237   8.967   5.248 -0.2172  0.0246  0.3235
68724W        W11636   4.781   9.218   7.038  0.0781  0.1094  0.1938
68725W        W11637   4.305   9.815   6.139  0.1567  0.1348  0.3097
68726W        W11638   5.965   6.289   2.320  0.1633 -0.1195 -0.3477
68727W        W11639   4.367   7.514   7.384  0.0590 -0.1668 -0.0685
68728W        W11640   6.217   9.826   6.305  0.0332  0.0149  0.1335
68729W        W11641   5.946   7.564   4.554  0.0256 -0.1352  0.0403
68730W        W11642   5.108   9.530   6.699  0.2893  0.0066 -0.3831
68731W        W11643   6.644   7.754   4.482 -0.0311 -0.1071  0.1468
68732W        W11644   4.965  10.485   4.590 -0.2004 -0.0987  0.0661
68733W        W11645   5.020   7.845   6.917  0.3007  0.3524 -0.1861
68734W        W11646   5.094   5.998   6.413 -0.3300  0.1846  0.0703
68735W        W11647   5.433   7.311   5.458 -0.2592  0.0062 -0.2969
68736W        W11648   4.765   8.500   4.155  0.1771 -0.4641 -0.2685
68737W        W11649   4.682   8.100   6.550 -0.1235 -0.1984  0.0668
68738W        W11650   5.029   8.141   5.510  0.2638 -0.1757 -0.1616
68739W        W11651   5.983   6.470   3.623 -0.0553  0.0263  0.2270
68740W        W11652   6.608   9.239   4.891 -0.0848 -0.0502 -0.3539
68741W        W11653   4.057  11.356   4.965  0.1424 -0.0540  0.1464
68742W        W11654   4.827  10.783   5.365 -0.1982  0.0255 -0.2132
68743W        W11655   5.203   7.998   6.393 -0.0085 -0.3255 -0.2367
68744W        W11656   4.378   9.315   5.305  0.3616 -0.0368 -0.0259
68745W        W11657   3.068  10.342   4.132  0.1722  0.1551 -0.0338
68746W        W11658   4.626   9.670   5.493 -0.2694  0.0713  0.0820
68747W        W11659   6.801  11.211   2.893  0.0235 -0.0137 -0.3096
68748W        W11660   6.650   9.053   5.972 -0.0479  0.1798 -0.0988
68749W        W11661   4.434  11.715   7.091 -0.1415 -0.2141  0.0101
68750W        W11662   4.367   9.514   4.097 -0.1572 -0.0611 -0.1724
68751W        W11663   5.003  10.534   6.734  0.0934 -0.0978 -0.1726
68752W        W11664   5.125  10.016   6.814  0.0724  0.2111  0.3036
68753W        W11665   5.365   8.157   5.921  0.0892  0.3338 -0.2025
68754W        W11666   5.448   7.621   6.735 -0.0658  0.0589 -0.1379
68755W        W11667   5.947  10.348   3.671  0.2020 -0.1968 -0.4697
68756W        W11668   5.554   9.022   4.786  0.1077 -0.0881 -0.1202
68757W        W11669   4.734  10.732   7.664 -0.1171  0.3182  0.0937
68758W        W11670   3.774   9.733   6.031 -0.0777  0.2887 -0.0200
68759W        W11671   6.295   8.131   6.955 -0.1948  0.0293  0.2888
68760W        W11672   5.451  10.230   4.699  0.2166 -0.1764  0.2747
68761W        W11673   7.865   8.388   2.349  0.3465  0.1788  0.1235
68762W        W11674   5.624   7.968   2.998 -0.2650  0.0731 -0.2509
68763W        W11675   8.179   8.825   3.696 -0.0996 -0.0410  0.1615
68764W        W11676   5.058   7.233   5.928  0.0932 -0.0795 -0.1071
68765W        W11677   3.450  11.537   6.009  0.1935  0.0664  0.3786
68766W        W11678   5.742   7.131   6.404  0.3252 -0.2013  0.1405
68767W        W11679   5.845  10.415   5.190  0.1868  0.2558 -0.0523
68768W        W11680   5.796   7.496   5.090 -0.0601  0.0285  0.2443
68769W        W11681   3.606  11.004   6.371 -0.2984 -0.0999  0.1258
68770W        W11682   4.008   8.839   4.776  0.0636  0.4800  0.0768
68771W        W11683   7.435  10.758   4.239  0.3622  0.0173  0.0094
68772W        W11684   5.698  10.594   6.210 -0.0377 -0.2691  0.0868
68773W        W11685   5.923   9.875   5.207  0.1143  0.3274  0.0528
68774W        W11686   4.210   8.776   5.533 -0.1613  0.2607  0.4307
68775W        W11687   4.686  10.252   6.996 -0.0047 -0.0183 -0.3138
68776W        W11688   4.856   7.662   6.348 -0.1398 -0.1351  0.1416
68777W        W11689   5.314   7.028   2.251 -0.3610 -0.1902 -0.0170
68778W        W11690   7.319   8.644   6.245 -0.0476 -0.4111  0.0405
68779W        W11691   3.099  11.185   6.899 -0.0166  0.0890  0.2303
68780W        W11692   9.153   7.532   5.631  0.0350  0.0535 -0.1944
68781W        W11693   5.000   9.690   3.360  0.2834  0.1367 -0.0529
68782W        W11694   7.129  10.824   5.840  0.2475  0.0613  0.1425
68783W        W11695   5.852   8.353   2.771  0.1786 -0.2157  0.3464
68784W        W11696   7.288   8.316   5.765  0.1938  0.2943  0.2323
68785W        W11697   6.839   8.197   5.491  0.0049  0.3480 -0.0293
68786W        W11698   5.398   8.450   4.766 -0.0396 -0.4760 -0.1192
68787W        W11699   6.482   8.252   5.935  0.1788  0.0082 -0.0775
68788W        W11700   6.182  10.035   5.718 -0.1506 -0.0605 -0.0086
68789W        W11701   6.821   9.573   4.563 -0.0481  0.0319 -0.3699
68790W        W11702   4.425  10.662   5.619  0.2324 -0.0712 -0.0502
68791W        W11703   5.558   8.561   7.681  0.3661  0.0099  0.1375
68792W        W11704   5.406  10.045   8.124 -0.1078  0.0085  0.1577
68793W        W11705   3.796  10.774   3.365  0.2851 -0.1601 -0.2801
68794W        W11706   4.182   9.606   5.699  0.0710  0.0324  0.1078
68795W        W11707   4.802   9.353   3.777 -0.1212  0.0434 -0.0822
68796W        W11708   4.883   7.057   7.922 -0.0890 -0.0639  0.0998
68797W        W11709   4.556  10.076   6.558  0.1029  0.0097  0.1238
68798W        W11710   7.718   8.857   3.920 -0.0714 -0.1271  0.0189
68799W        W11711   3.908   8.978   6.620 -0.2066  0.1617 -0.0454
68800W        W11712   7.126   6.317   5.390 -0.1341 -0.1046  0.1911
68801W        W11713   4.406   8.845   5.060  0.0272 -0.1203  0.0407
68802W        W11714   6.723  10.569   5.021 -0.1319  0.2076 -0.3184
68803W        W11715   6.828   8.960   2.962 -0.2136  0.0606  0.0273
68804W        W11716   6.854  10.243   3.515  0.2206 -0.1126 -0.0436
68805W        W11717   3.935   8.502   5.198  0.1030 -0.0814 -0.0806
68806W        W11718   4.947   8.380   6.095  0.0298 -0.0074 -0.2216
68807W        W11719   4.689   8.473   6.968 -0.0546 -0.1416  0.1568
68808W        W11720   6.385   7.411   6.518  0.2584 -0.2112 -0.0144
68809W        W11721   5.820   8.862   6.028  0.0159 -0.2113 -0.1211
68810W        W11722   6.247   6.616   4.305 -0.1495 -0.1758 -0.2093
68811W        W11723   6.623   8.134   4.756 -0.0073 -0.0982 -0.1018
68812W        W11724   4.260   8.532   4.119  0.2133  0.1258  0.0749
68813W        W11725   2.312   8.456   4.661  0.0816 -0.1722 -0.4288
68814W        W11726   5.727   7.148   5.877 -0.0859 -0.0948 -0.2375
68815W        W11727   6.151  10.107   4.226  0.0121 -0.1313 -0.2182
68816W        W11728   8.220   9.935   6.477 -0.1444 -0.1097 -0.0576
68817W        W11729   6.622  11.063   5.201 -0.1069  0.0069  0.0007
68818W        W11730   5.570   8.110   6.769  0.0094 -0.1011 -0.0086
68819W        W11731   4.577   8.091   3.868  0.0589  0.0116 -0.1255
68820W        W11732   3.705  11.028   4.681  0.1827 -0.0054 -0.0099
68821W        W11733   5.257  10.759   4.896 -0.4088 -0.3574  0.1022
68822W        W11734   6.656   8.150   3.632 -0.0250 -0.1069  0.1747
68823W        W11735   6.261  10.492   5.605 -0.2889  0.2671  0.1002
68824W        W11736   5.218   9.375   6.126  0.1394  0.0018 -0.0310
68825W        W11737   3.567   9.838   6.644  0.0437 -0.2251  0.2036
68826W        W11738   6.386   6.907   6.623 -0.2032  0.0450  0.1072
68827W        W11739   6.150   9.008   5.640 -0.2648  0.2099  0.0482
68828W        W11740   7.630   9.909   4.211 -0.0095 -0.0150 -0.2155
68829W        W11741   4.396   7.348   3.317 -0.0103  0.0830  0.0134
68830W        W11742   6.143  11.270   5.149  0.0488 -0.4874 -0.2094
68831W        W11743   4.176   9.982   4.150  0.0478  0.0338 -0.1340
68832W        W11744   4.387   8.222   6.162 -0.1206 -0.2061 -0.3208
68833W        W11745   5.516   8.191   5.451 -0.2113  0.0451  0.1557
68834W        W11746   7.161   7.947   3.444  0.0891  0.2396 -0.0877
68835W        W11747   4.318   9.278   6.927 -0.0941 -0.3915  0.0306
68836W        W11748   5.903   8.441   6.605 -0.1746 -0.3388  0.1457
68837W        W11749   4.698   7.298   3.790  0.3007 -0.1608  0.0481
68838W        W11750   3.417  10.128   6.256 -0.2072  0.4361 -0.3773
68839W        W11751   7.876   6.514   4.706 -0.2023  0.0336 -0.1144
68840W        W11752   7.570   8.416   3.407 -0.1729  0.3248  0.3031
68841W        W11753   4.669   9.436   6.073 -0.1278  0.1393  0.0506
68842W        W11754   7.413   9.316   3.826  0.0387 -0.0784  0.0260
68843W        W11755   7.286   8.163   1.677  0.0622  0.0927  0.2751
68844W        W11756   7.069   8.020   3.911  0.1199 -0.2206 -0.0964
68845W        W11757   3.295   9.879   7.194 -0.4739 -0.1735  0.2277
68846W        W11758   5.317   8.830   5.995  0.1134 -0.0816  0.1783
68847W        W11759   4.981  10.246   5.009 -0.4804  0.0473  0.0008
68848W        W11760   7.028   7.582   4.226 -0.0826  0.0797 -0.1337
68849W        W11761   6.127  11.486   3.944 -0.3399 -0.0278  0.0064
68850W        W11762   3.588   8.611   6.488  0.2668  0.0431  0.1003
68851W        W11763   5.113  10.698   6.251 -0.2483  0.0158 -0.0393
68852W        W11764   5.223  11.312   4.981  0.1922  0.0771  0.0731
68853W        W11765   4.517   6.260   5.709 -0.1283  0.1873 -0.0763
68854W        W11766   5.844   7.961   1.787 -0.2842  0.0429 -0.1233
68855W        W11767   5.937   7.943   5.325 -0.0285  0.1779 -0.2856
68856W        W11768   2.341  11.092   3.017 -0.3835 -0.0253  0.0516
68857W        W11769   8.648   7.952   5.607 -0.0637  0.0926 -0.1216
68858W        W11770   5.638   6.585   5.826 -0.2647  0.2679  0.2300
68859W        W11771   5.531   7.726   5.724 -0.2602  0.0998 -0.1127
68860W        W11772   5.587   9.474   7.828 -0.0517  0.1524 -0.0754
68861W        W11773   6.841   9.960   5.033 -0.1112 -0.2782  0.1405
68862W        W11774   6.352   7.429   5.229 -0.0097  0.1001  0.2280
68863W        W11775   5.197   8.806   4.451 -0.0112  0.3202 -0.2303
68864W        W11776   6.098   7.036   4.990  0.2481  0.2553  0.1789
68865W        W11777   4.168   9.753   6.772 -0.0399 -0.2035  0.1311
68866W        W11778   3.392  10.377   6.964 -0.1264  0.0323 -0.1047
68867W        W11779   6.423   9.567   5.884 -0.0670 -0.3096  0.3162
68868W        W11780   6.209   8.972   5.159 -0.2548  0.2339 -0.0286
68869W        W11781   4.616   9.545   6.580  0.2041 -0.3013 -0.2036
68870W        W11782   6.307   7.236   4.021  0.1624 -0.0878  0.1460
68871W        W11783   4.348  10.354   3.871  0.0258  0.0037 -0.0214
68872W        W11784   5.340   8.595   4.027 -0.0953 -0.1717 -0.0460
68873W        W11785   4.399   6.131   4.572  0.2155  0.1070 -0.4627
68874W        W11786   5.311  10.419   5.350  0.0164  0.0051 -0.0902
68875W        W11787   4.842   9.131   4.282 -0.1341  0.0084 -0.3385
68876W        W11788   6.328   8.299   7.431 -0.1677 -0.0542 -0.1591
68877W        W11789   4.726   9.021   5.488  0.1198 -0.1236  0.0744
68878W        W11790   6.983   6.397   6.205  0.1661 -0.1285 -0.5443
68879W        W11791   3.114  10.009   5.845 -0.2016  0.1488 -0.1066
68880W        W11792   3.831   7.668   3.934  0.1783 -0.0495  0.2732
68881W        W11793   3.831   9.236   3.357 -0.1553  0.0124  0.2333
68882W        W11794   6.069   8.607   4.077  0.1269 -0.0122 -0.2600
68883W        W11795   7.102   9.922   3.102 -0.1355  0.1410 -0.2066
68884W        W11796   5.092   8.378   6.658  0.1913 -0.2849 -0.0101
68885W        W11797   5.811   6.934   5.403  0.1880  0.2243 -0.0392
68886W        W11798   3.357   9.593   6.226  0.0426 -0.2364  0.1380
68887W        W11799   5.955   8.462   7.170  0.1202  0.3313 -0.2252
68888W        W11800   6.635   8.678   4.616 -0.0801  0.0803  0.0211
68889W        W11801   4.825  10.718   5.872 -0.1088  0.1590 -0.0571
68890W        W11802   5.613   9.565   7.293  0.0191  0.2076 -0.2730
68891W        W11803   3.848   8.669   3.771  0.2583  0.1455  0.0032
68892W        W11804   5.744   9.139   5.300 -0.0310  0.2216  0.0404
68893W        W11805   5.403   7.560   6.208  0.0432  0.0986  0.2494
68894W        W11806   3.886  10.683   5.771 -0.0765 -0.0964 -0.1398
68895W        W11807   4.048  10.712   6.206  0.0488 -0.2935 -0.0346
68896W        W11808   5.149   9.316   4.666 -0.1168  0.1870  0.1863
68897W        W11809   3.257  10.645   6.481 -0.2060 -0.0489  0.0026
68898W        W11810   5.613   9.651   6.833 -0.1276  0.1608  0.0843
68899W        W11811   7.031   9.129   6.260 -0.0884  0.1296  0.1274
68900W        W11812   6.395   7.817   5.590  0.0681  0.2515 -0.0889
68901W        W11813   6.792   7.295   5.126 -0.1725  0.0860 -0.0076
68902W        W11814   6.405   8.285   5.172  0.1515 -0.1379  0.1009
68903W        W11815   6.045   9.473   5.437 -0.2054  0.1932 -0.1200
68904W        W11816   6.288   7.064   7.118  0.0129  0.0993 -0.0282
68905W        W11817   3.782  10.060   7.086 -0.0697  0.3351  0.3348
68906W        W11818   5.987   6.393   6.263 -0.0975  0.1070  0.0636
68907W        W11819   8.090  11.507   5.341  0.1690  0.0269  0.1068
68908W        W11820   6.612   8.798   6.386 -0.1762 -0.1851  0.2386
68909W        W11821   4.544   8.555   3.698 -0.1011  0.0798  0.1260
68910W        W11822   3.402   9.054   5.416 -0.1798 -0.3180  0.0856
68911W        W11823   6.196  10.774   5.154 -0.1157 -0.1192  0.0517
68912W        W11824   5.937   7.328   6.840  0.5441 -0.0914 -0.1039
68913W        W11825   4.228  11.346   6.584 -0.0422  0.0330  0.2884
68914W        W11826   3.507  11.112   3.828  0.3213  0.0764  0.1505
68915W        W11827   3.611   8.109   7.209 -0.2811 -0.1973  0.2311
68916W        W11828   7.845   7.787   4.470 -0.0643  0.1899 -0.2362
68917W        W11829   6.425   9.699   4.104  0.0940  0.1045  0.0596
68918W        W11830   5.272   6.818   5.539  0.1391  0.2977  0.0854
68919W        W11831   6.871   8.555   6.015  0.0016  0.1217 -0.1413
68920W        W11832   4.872   9.340   5.124 -0.0053  0.1220 -0.1585
68921W        W11833   5.544   6.726   6.556 -0.1936 -0.1310 -0.2085
68922W        W11834   4.605   7.284   6.667 -0.2503  0.3336 -0.1090
68923W        W11835   6.687  10.532   4.551 -0.0316  0.0143  0.2255
68924W        W11836   3.539   7.272   7.011 -0.2427 -0.1648  0.1817
68925W        W11837   5.358  10.009   7.576 -0.0501  0.0114 -0.0039
68926W        W11838   5.053   7.812   7.466 -0.1508 -0.1272  0.2149
68927W        W11839   5.777   6.479   4.098 -0.3524  0.0187 -0.1793
68928W        W11840   5.633   7.329   3.420 -0.0697 -0.5547 -0.2807
68929W        W11841   4.394   9.081   6.459 -0.1523 -0.0972 -0.1165
68930W        W11842   6.307  10.200   5.178  0.3692 -0.2244 -0.2164
68931W        W11843   4.590   8.545   5.831 -0.1734  0.2098  0.1186
68932W        W11844   7.873   8.571   5.291 -0.1082 -0.1991  0.1665
68933W        W11845   3.796   8.514   6.990  0.1826  0.1789 -0.1491
68934W        W11846   7.108   8.644   4.883 -0.0703 -0.0207  0.0246
68935W        W11847   6.630   9.155   3.687  0.2652  0.2110 -0.0471
68936W        W11848   4.165   8.703   6.060  0.2072 -0.0297  0.4022
68937W        W11849   4.289   8.743   6.926  0.3915 -0.1024 -0.3001
68938W        W11850   7.104   9.093   4.557  0.4581 -0.0091  0.0280
68939W        W11851   6.692   7.664   3.488  0.2695 -0.1356  0.0825
68940W        W11852   7.057   7.744   5.413  0.1717 -0.1168 -0.0813
68941W        W11853   5.958   7.515   6.177 -0.3559  0.0149  0.0304
68942W        W11854   5.833   9.922   7.921  0.2190  0.2067  0.4615
68943W        W11855   4.595   6.115   8.018  0.1316 -0.1105  0.2493
68944W        W11856   6.315  10.271   6.816 -0.0919  0.0569  0.4309
68945W        W11857   6.754   8.039   3.079  0.0208 -0.2367 -0.1941
68946W        W11858   8.106   7.707   6.836 -0.0544 -0.1506 -0.0087
68947W        W11859   7.837   7.503   6.370  0.0561 -0.3030 -0.0561
68948W        W11860   5.989   8.962   3.720 -0.1187  0.3244 -0.3112
68949W        W11861   5.714   7.991   4.906  0.1958 -0.0183  0.0556
68950W        W11862   6.222   9.132   6.232 -0.1429  0.0365  0.0547
68951W        W11863   5.634   6.623   2.635  0.2869  0.4494 -0.0621
68952W        W11864   6.571   7.372   6.087 -0.1698  0.0822  0.0013
68953W        W11865   6.018   9.814   3.827 -0.1458  0.3053 -0.2412
68954W        W11866   7.107   8.983   4.087 -0.3218 -0.1334 -0.0919
68955W        W11867   6.462   8.418   2.780  0.1852 -0.1901 -0.2362
68956W        W11868   4.296   7.425   5.628  0.3269 -0.1896 -0.3232
68957W        W11869   5.521  10.471   6.787 -0.0178  0.1508  0.2938
68958W        W11870   4.693   7.988   2.601  0.2099  0.5637 -0.2891
68959W        W11871   5.657   8.928   3.332 -0.1097  0.0672 -0.0131
68960W        W11872   4.969   9.802   6.345 -0.0132  0.3179  0.1995
68961W        W11873   6.439   9.458   7.166  0.0411 -0.2858  0.1065
68962W        W11874   7.526   7.523   4.129 -0.0392 -0.0515 -0.0684
68963W        W11875   7.049   8.068   6.260  0.0045  0.2022 -0.0713
68964W        W11876   3.748   9.980   4.451 -0.0024 -0.0141 -0.0910
68965W        W11877   6.561   6.951   4.442  0.1663  0.1948 -0.1744
68966W        W11878   3.926  11.554   7.339 -0.3815  0.0855 -0.0526
68967W        W11879   2.945  10.001   6.323  0.0584  0.0678 -0.2996
68968W        W11880   4.724   8.918   6.093  0.2020 -0.0237 -0.2728
68969W        W11881   7.491   7.996   5.310 -0.3519 -0.0737 -0.1840
68970W        W11882   6.206   8.413   4.577 -0.2265 -0.0558  0.0062
68971W        W11883   5.165  10.275   5.867  0.0134 -0.2147  0.1422
68972W        W11884   6.145   8.494   5.588 -0.2200 -0.0199  0.1256
68973W        W11885   5.327   9.805   5.920  0.1834  0.0333 -0.1765
68974W        W11886   3.927   9.503   6.406  0.4049  0.1870  0.1077
68975W        W11887   5.363  10.193   6.295  0.0268  0.1016  0.2434
68976W        W11888   8.091   9.131   5.114  0.2157 -0.3280  0.1057
68977W        W11889   5.141   9.434   5.586  0.2384  0.0942 -0.1221
68978W        W11890   4.582   7.985   7.196  0.2333  0.0159 -0.3162
68979W        W11891   5.773   8.530   8.137  0.0204 -0.0018 -0.1186
68980W        W11892   6.503   8.294   4.088 -0.0752  0.3897 -0.0572
68981W        W11893   4.880   5.840   3.933 -0.0773  0.0003 -0.1289
68982W        W11894   5.898   8.490   5.086 -0.0236 -0.1976  0.1812
68983W        W11895   3.903  10.640   7.128  0.1628 -0.1604  0.0064
68984W        W11896   3.096   7.697   5.976 -0.0398 -0.4408  0.0664
68985W        W11897   3.940  11.634   4.571 -0.2494 -0.2022 -0.1553
68986W        W11898   6.440   9.788   4.764  0.2944 -0.2209  0.2750
68987W        W11899   5.902   9.857   4.648 -0.0266 -0.1920 -0.0977
68988W        W11900   4.296  11.103   5.916  0.3034  0.1305 -0.0439
68989W        W11901   5.669   8.474   4.394 -0.4365 -0.0360  0.3053
68990W        W11902   5.288   7.789   5.209  0.0182  0.2652  0.0867
68991W        W11903   3.998  10.249   5.462 -0.1524  0.1570  0.2565
68992W        W11904   6.559  10.904   2.649 -0.0445 -0.1943 -0.2231
68993W        W11905   3.823  11.029   5.383  0.1958  0.2378 -0.0189
68994W        W11906   6.286  11.072   7.395  0.2728 -0.0853  0.0993
68995W        W11907   7.509   7.929   4.816 -0.0551 -0.0768 -0.2627
68996W        W11908   7.989   9.269   3.839  0.2023  0.0355  0.3373
68997W        W11909   8.047   9.318   4.625  0.0167 -0.1634 -0.1829
68998W        W11910   5.580   8.835   7.291  0.0364 -0.1825 -0.0535
68999W        W11911   5.316   8.493   7.069 -0.0572 -0.1873  0.3360
69000W        W11912   5.617   8.080   3.870  0.1458  0.2293  0.0001
69001W        W11913   5.287   8.832   6.570 -0.5943 -0.0486  0.0240
69002W        W11914   7.172   6.987   6.020 -0.2961 -0.0160 -0.0285
69003W        W11915   4.024  10.890   6.677 -0.2238 -0.1689  0.1133
69004W        W11916   7.644   9.523   5.054 -0.1568 -0.2871 -0.2027
69005W        W11917   4.212   7.998   5.230 -0.5611  0.0307 -0.0677
69006W        W11918   5.886   8.076   5.810 -0.0382 -0.1300 -0.1336
69007W        W11919   7.802   7.597   5.020  0.1511 -0.1663  0.2519
69008W        W11920   5.430   9.962   5.118 -0.2502  0.0385  0.2620
69009W        W11921   6.423   7.406   4.716  0.1090  0.0539 -0.1112
69010W        W11922   4.371  10.083   5.706  0.4608 -0.1465 -0.2957
69011W        W11923   4.792  10.335   5.528 -0.2505 -0.3670 -0.2701
69012W        W11924   5.342  10.774   5.775 -0.1160 -0.3181 -0.0712
69013W        W11925   5.027   7.349   4.892  0.3461 -0.2738 -0.0649
69014W        W11926   8.441   8.625   4.459  0.3223 -0.0690  0.4249
69015W        W11927   5.711   8.044   6.277 -0.0680  0.1195 -0.0045
69016W        W11928   7.973   7.250   4.689 -0.0436  0.1104  0.0203
69017W        W11929   5.674   9.134   6.417 -0.0294 -0.1017 -0.1092
69018W        W11930   7.798   7.012   4.297  0.0420 -0.1547 -0.4399
69019W        W11931   5.833   9.372   4.524 -0.2089 -0.1761 -0.1165
69020W        W11932   3.504   9.042   6.913 -0.2615 -0.0518  0.3770
69021W        W11933   5.086   8.629   5.621 -0.0617  0.0577  0.1854
69022W        W11934   7.103   9.878   5.465 -0.0148 -0.2901  0.0437
69023W        W11935   6.365   9.270   4.438  0.2547 -0.0414 -0.0586
69024W        W11936   5.574   9.713   6.354  0.0620 -0.1958 -0.1322
69025W        W11937   4.926   7.273   5.384 -0.0299 -0.2873 -0.1726
69026W        W11938   5.467   6.811   4.216  0.1090  0.1234  0.0327
69027W        W11939   4.623   8.473   5.373  0.1446 -0.0230  0.4209
69028W        W11940   6.319   8.702   6.801 -0.1037  0.0359 -0.4188
69029W        W11941   5.879   7.842   7.107 -0.1913  0.2370  0.0603
69030W        W11942   4.301   7.554   5.062  0.0496  0.2798 -0.0414
69031W        W11943   7.249   9.641   4.163 -0.0761  0.1401 -0.0850
69032W        W11944   6.626   8.504   3.241 -0.0675  0.1830 -0.0552
69033W        W11945   6.339  10.223   3.315  0.0063 -0.1970  0.1265
69034W        W11946   6.125   9.395   4.930  0.2965 -0.1847 -0.1320
69035W        W11947   6.485  11.556   5.344  0.3844  0.1426  0.1468
69036W        W11948   4.128   7.142   6.888 -0.4483  0.0723  0.0617
69037W        W11949   5.654  10.313   5.733  0.2800 -0.2796  0.2552
69038W        W11950   6.706  10.138   5.562 -0.2060 -0.2550  0.0687
69039W        W11951   7.073   7.711   4.789  0.1650  0.1621 -0.3848
69040W        W11952   4.868   9.075   6.558  0.2452  0.2994  0.1011
69041W        W11953   4.299  10.457   3.386  0.0752  0.2329 -0.2315
69042W        W11954   7.532   7.604   6.823  0.3607  0.0532  0.2349
69043W        W11955   6.886   8.587   4.228  0.0838 -0.3316  0.0786
69044W        W11956   5.736   8.941   4.187  0.1321  0.2878 -0.0345
69045W        W11957   7.161   8.021   6.768 -0.0163 -0.2022  0.2811
69046W        W11958   4.424  10.428   6.082 -0.2358  0.3374  0.1123
69047W        W11959   4.874  10.284   6.264  0.2381 -0.0102 -0.2002
69048W        W11960   4.500   8.780   4.522  0.0049  0.0367 -0.0107
69049W        W11961   5.067  10.419   7.310 -0.0960  0.2174  0.1535
69050W        W11962   4.683  10.064   4.503 -0.2536  0.2914  0.1056
69051W        W11963   5.188  10.062   4.262 -0.1131  0.3283 -0.0859
69052W        W11964   6.697  10.762   5.602  0.0132 -0.2378 -0.0957
69053W        W11965   6.656   7.813   5.101 -0.2529  0.0666  0.2486
69054W        W11966   7.052   9.510   5.057 -0.2301 -0.1924 -0.0606
69055W        W11967   5.036   7.725   5.817  0.2520 -0.2699  0.0701
69056W        W11968   7.852   6.298   5.165  0.1364  0.0974 -0.0553
69057W        W11969   8.294   5.351   4.277 -0.2948  0.0792 -0.0466
69058W        W11970   5.453   8.440   6.289 -0.4316  0.0873  0.0968
69059W        W11971   4.527   8.129   4.429  0.2784 -0.1289 -0.0618
69060W        W11972   4.829   9.915   3.775  0.1115  0.1061  0.3723
69061W        W11973   3.784   8.667   5.670 -0.0492 -0.0609 -0.0908
69062W        W11974   5.770   6.325   6.717  0.0954 -0.0520  0.2165
69063W        W11975   5.422   8.045   7.262 -0.2391  0.0392  0.0728
69064W        W11976   3.766   9.255   5.728 -0.1170 -0.4970 -0.0720
69065W        W11977   4.997   7.312   4.191 -0.0612  0.0361  0.1199
69066W        W11978   5.590   9.199   5.768 -0.1921  0.0390  0.0380
69067W        W11979   4.511   7.179   4.832 -0.1803  0.0587  0.1315
69068W        W11980   3.444   7.383   5.410 -0.1044 -0.0913  0.2143
69069W        W11981   5.679   9.814   5.604  0.0634 -0.1152  0.2178
69070W        W11982   7.225  11.438   3.084 -0.1671  0.1289 -0.2069
69071W        W11983   4.902   6.639   4.279 -0.0720 -0.0616 -0.1549
69072W        W11984   6.930  10.454   7.215  0.0043 -0.0829 -0.4332
69073W        W11985   3.462   8.587   5.289  0.0304 -0.0599  0.1283
69074W        W11986   5.564   7.591   7.714 -0.0002 -0.3339 -0.1153
69075W        W11987   6.099   5.319   5.462 -0.2277 -0.0510  0.0992
69076W        W11988   4.289   7.681   3.674  0.1406 -0.1335 -0.0020
69077W        W11989   5.094   7.199   6.442  0.2450  0.2077 -0.0861
69078W        W11990   6.527   9.721   5.312  0.0487 -0.4012  0.2049
69079W        W11991   6.610   9.841   3.181 -0.0832  0.1517  0.0113
69080W        W11992   6.018   9.259   7.168 -0.3259 -0.0852 -0.3099
69081W        W11993   4.582  10.690   6.582 -0.0048  0.0228 -0.0330
69082W        W11994   5.272   6.011   5.901  0.1230  0.0028  0.1358
69083W        W11995   6.929  10.742   3.527  0.0351  0.0442  0.0629
69084W        W11996   5.846  10.074   6.588  0.1200  0.1726  0.1121
69085W        W11997   6.579  10.833   3.162  0.2016 -0.0670 -0.0228
69086W        W11998   7.463   7.421   4.606 -0.0138 -0.1319  0.1055
69087W        W11999   6.539   7.702   3.976 -0.2619  0.1578 -0.0957
69088W        W12000   4.521   6.541   7.475  0.1747 -0.1417 -0.1981
69089W        W12001   4.482  10.343   7.761  0.0683 -0.0473  0.3088
69090W        W12002   6.132   8.886   4.644  0.0226 -0.1054  0.0779
69091W        W12003   4.044   7.006   4.707 -0.1675  0.2319  0.0024
69092W        W12004   8.319   6.197   4.489 -0.2796 -0.0806  0.0961
69093W        W12005   5.711  11.166   4.879 -0.1372  0.1310  0.0589
69094W        W12006   4.139   8.339   5.723 -0.1708  0.2248  0.0768
69095W        W12007   6.227   7.099   5.648 -0.4313 -0.0115 -0.1167
69096W        W12008   6.395   8.264   6.428 -0.2582 -0.3969 -0.1921
69097W        W12009   5.064   9.958   5.469 -0.0011  0.0719 -0.0229
69098W        W12010   6.476   9.951   7.349 -0.0869 -0.0855  0.1940
69099W        W12011   6.205   7.844   4.899  0.3661  0.1903 -0.1190
69100W        W12012   7.729  10.340   4.105  0.2361  0.2384  0.0773
69101W        W12013   5.731  11.602   6.055  0.1154  0.4550  0.0607
69102W        W12014   5.414  11.351   6.882 -0.1543 -0.1608 -0.0304
69103W        W12015   4.902  11.503   7.086 -0.1190  0.0970 -0.3949
69104W        W12016   6.632  10.108   4.376 -0.0405 -0.3706 -0.2289
69105W        W12017   5.013   5.778   5.397  0.0947  0.1742  0.0151
69106W        W12018   4.636   7.955   5.787  0.0528 -0.0639  0.0213
69107W        W12019   4.916   8.909   4.839  0.0275  0.1316 -0.0818
69108W        W12020   6.774   8.625   3.725  0.2732 -0.0467 -0.3346
69109W        W12021   4.626   9.664   7.034 -0.0567 -0.0468 -0.2211
69110W        W12022   8.116   7.948   3.959  0.1837  0.3471 -0.1332
69111W        W12023   3.992  10.064   6.401 -0.0874  0.0721 -0.0495
69112W        W12024   6.214  10.322   6.282  0.1005  0.2107 -0.0883
69113W        W12025   5.228   9.454  10.293 -0.0516 -0.0762  0.1265
69114W        W12026   4.045   8.036   8.808  0.5760 -0.1566 -0.2808
69115W        W12027   5.902   6.806   6.943 -0.0620  0.0635 -0.3737
69116W        W12028   5.918   9.093   7.610  0.0108  0.0899 -0.1413
69117W        W12029   4.467   8.556   9.626  0.0129 -0.4135 -0.3870
69118W        W12030   6.079  11.329   8.191 -0.2628  0.1690  0.1216
69119W        W12031   5.194   8.808   9.230 -0.1241 -0.2748  0.1271
69120W        W12032   7.100  10.153   9.720 -0.0276  0.0132  0.1451
69121W        W12033   6.052   9.688   7.526 -0.1207  0.1095 -0.0844
69122W        W12034   6.856   8.755   9.584  0.0704 -0.1392  0.0528
69123W        W12035   5.151   7.752   7.994 -0.0792  0.3250 -0.1265
69124W        W12036   5.499   7.115   9.243 -0.2225  0.2120  0.2050
69125W        W12037   5.056   8.514   8.725  0.1990 -0.4976  0.0904
69126W        W12038   4.138   9.749   8.833  0.2041 -0.1611  0.2459
69127W        W12039   5.486   8.979  10.651  0.2607 -0.1124  0.0302
69128W        W12040   5.629   7.950   8.105  0.2024 -0.1251  0.2286
69129W        W12041   6.775  10.716   8.950  0.2424  0.0925 -0.1440
69130W        W12042   3.136   7.429   9.895 -0.2652 -0.0569  0.0832
69131W        W12043   7.228  11.029   7.850  0.3593 -0.0831 -0.2548
69132W        W12044   3.922   7.787   9.308  0.1885  0.0416 -0.0795
69133W        W12045   4.515   8.224  10.033  0.0242 -0.0474  0.0682
69134W        W12046   3.580   8.277   9.432 -0.0564  0.0861  0.0930
69135W        W12047   7.184   7.724   9.742 -0.2362  0.1899  0.0125
69136W        W12048   6.381   9.451   9.285  0.4547  0.1445  0.0167
69137W        W12049   5.741  10.004   9.662 -0.0323 -0.3630 -0.1666
69138W        W12050   6.091   9.894   8.362  0.2235 -0.2564  0.1412
69139W        W12051   2.573  10.657   8.950  0.0272 -0.0489  0.0504
69140W        W12052   3.347  11.667   8.942  0.1077 -0.0809 -0.2597
69141W        W12053   5.193  10.312   8.545  0.0123  0.0591  0.3669
69142W        W12054   4.674   9.295   8.083 -0.1066 -0.0061 -0.2253
69143W        W12055   4.304   9.125   7.397 -0.1108  0.1450 -0.0274
69144W        W12056   5.098   8.937  10.144 -0.4101  0.0262 -0.2183
69145W        W12057   4.302   8.882   8.209  0.2188  0.1279 -0.3048
69146W        W12058   4.985  11.080   7.322 -0.0482 -0.1221 -0.1680
69147W        W12059   4.968   8.920   8.322 -0.0815  0.1827 -0.4707
69148W        W12060   4.788   8.110  10.481  0.0726 -0.1345 -0.1202
69149W        W12061   3.493  10.162   9.941 -0.1498 -0.0569 -0.2898
69150W        W12062   6.905   6.992   6.430 -0.0193  0.1459  0.4676
69151W        W12063   5.447   7.565   7.241  0.2533  0.1319  0.1401
69152W        W12064   7.431   7.818   6.411 -0.3326  0.1093 -0.1348
69153W        W12065   5.279   8.327  10.496 -0.2059 -0.0739 -0.0747
69154W        W12066   5.626   9.976   8.555  0.3309 -0.3178 -0.1372
69155W        W12067   6.064   7.455   9.734  0.0678  0.1725 -0.0489
69156W        W12068   5.626   9.190   9.311  0.1849  0.0339 -0.0920
69157W        W12069   6.175   8.545   9.333  0.1950 -0.1063  0.3299
69158W        W12070   2.620   8.135   9.799  0.0112  0.0070  0.1079
69159W        W12071   4.496   7.197  10.037 -0.1379  0.1107 -0.0928
69160W        W12072   7.285  10.761   7.243 -0.2435  0.2318 -0.2653
69161W        W12073   6.694   9.297   8.379  0.0148  0.1520  0.1770
69162W        W12074   6.937  10.690   8.091  0.3582  0.0340  0.1253
69163W        W12075   4.210   9.372   7.890 -0.1717 -0.1365 -0.3886
69164W        W12076   5.435   6.488   8.081  0.2978  0.3056  0.2686
69165W        W12077   6.981   7.351   8.582 -0.0943 -0.1557 -0.2077
69166W        W12078   4.977   8.719   9.698 -0.0838  0.1490  0.1447
69167W        W12079   6.561   9.573   8.837  0.0134 -0.1221 -0.2634
69168W        W12080   5.844   8.091   7.675  0.1006 -0.2162 -0.0087
69169W        W12081   6.572   8.359   9.536  0.1956  0.2601 -0.0163
69170W        W12082   5.718   5.508   9.039  0.1227 -0.0671  0.3824
69171W        W12083   4.846  10.057   8.087 -0.0168 -0.0476  0.1638
69172W        W12084   4.753   9.356   7.501  0.1863  0.0420 -0.2094
69173W        W12085   6.837   8.544   9.075  0.0858 -0.2814 -0.0234
69174W        W12086   6.691   7.925   7.224 -0.2517  0.3060 -0.0976
69175W        W12087   2.444   8.427  10.219  0.2099  0.0962  0.3028
69176W        W12088   5.018  11.024   6.686  0.0555 -0.1620  0.1510
69177W        W12089   2.914   9.697   8.789 -0.0243  0.2095  0.0163
69178W        W12090   4.637  10.265   8.521  0.0858  0.0299 -0.0025
69179W        W12091   3.811   6.624  10.507  0.0812 -0.1283 -0.0484
69180W        W12092   4.709   9.985   9.767  0.2140 -0.1139 -0.1294
69181W        W12093   6.947   8.256   8.188  0.3168 -0.5344 -0.1464
69182W        W12094   6.100   7.833   8.940  0.0453 -0.1155 -0.0754
69183W        W12095   3.736   9.731   9.931  0.0471  0.1108 -0.0582
69184W        W12096   8.701  11.349   8.020  0.2265 -0.1370 -0.0051
69185W        W12097   5.692   8.694   9.267 -0.2635 -0.0554  0.0486
69186W        W12098   5.875  10.937   8.545 -0.1291 -0.0118 -0.3176
69187W        W12099   2.113   8.812  10.024 -0.1780 -0.1504 -0.1710
69188W        W12100   5.060   7.281   8.366 -0.0142 -0.1260  0.0611
69189W        W12101   5.400   8.111   8.721 -0.0629 -0.1707 -0.1018
69190W        W12102   4.495   6.677   7.985 -0.1966  0.3392  0.2028
69191W        W12103   5.955   8.840   8.523  0.3224 -0.1223  0.3163
69192W        W12104   4.952   8.213   7.886 -0.1247 -0.0241 -0.0733
69193W        W12105   3.736   9.161   8.277 -0.1427 -0.0158  0.1509
69194W        W12106   6.750  11.278   7.996 -0.0236  0.3383 -0.1651
69195W        W12107   8.163  10.162   8.227  0.1193 -0.1975  0.4920
69196W        W12108   6.493   9.893   7.993  0.0957  0.0959 -0.1978
69197W        W12109   5.588   7.355   9.650 -0.1662 -0.2799  0.3981
69198W        W12110   4.980   6.457   7.807  0.1331  0.2050 -0.0523
69199W        W12111   5.453   9.684   9.439  0.1053  0.0813 -0.0630
69200W        W12112   5.312   9.098   9.685 -0.2564 -0.3758 -0.0708
69201W        W12113   5.552   8.607   8.757  0.0558  0.1409 -0.0427
69202W        W12114   8.356  10.448   9.231  0.0721 -0.0896  0.0580
69203W        W12115   6.220   9.290   8.562 -0.2336 -0.1439  0.0782
69204W        W12116   9.080   8.583   9.283  0.0396 -0.1174 -0.0763
69205W        W12117   5.663   8.721   9.773  0.0254 -0.4582  0.4284
69206W        W12118   3.986   7.531   7.740  0.2690 -0.0367 -0.1513
69207W        W12119   5.479  11.247   8.333 -0.1500 -0.0816  0.1989
69208W        W12120   4.070  10.749   9.466  0.1620 -0.1945  0.0974
69209W        W12121   2.973   8.952   9.489  0.0008 -0.0347 -0.1243
69210W        W12122   5.118   9.298   9.180 -0.1003 -0.2099 -0.2725
69211W        W12123   7.184   6.998   9.058 -0.1117 -0.3041 -0.1100
69212W        W12124   4.085   9.221   9.092 -0.2678  0.2312 -0.0057
69213W        W12125   5.930   6.897   8.859 -0.0495 -0.1372 -0.2658
69214W        W12126   4.434  10.659   8.312  0.1135  0.0650  0.2257
69215W        W12127   4.802   7.731   5.248 -0.3515 -0.1409 -0.4001
69216W        W12128   4.766   7.484   7.709  0.0843  0.3344  0.0042
69217W        W12129   5.865   7.815   9.403 -0.0761  0.1960  0.2611
69218W        W12130   3.360   9.175  10.351 -0.1136 -0.2069  0.1682
69219W        W12131   6.375   9.189   7.721 -0.0842 -0.4209 -0.6731
69220W        W12132   7.221  10.515   7.702  0.1059  0.0464 -0.0568
69221W        W12133   4.848  10.473   9.860  0.4588  0.1752 -0.3701
69222W        W12134   6.858  10.238   9.139 -0.0704 -0.0008 -0.0891
69223W        W12135   6.651   7.504   9.700  0.1657  0.0527  0.0134
69224W        W12136   6.283   8.877   7.307 -0.0721 -0.0509  0.0149
69225W        W12137   4.733   7.555   8.183 -0.0066 -0.2951 -0.1399
69226W        W12138   2.567  10.503   7.194 -0.2071 -0.0964 -0.0815
69227W        W12139   6.354   6.702   9.033  0.3503  0.4668  0.2910
69228W        W12140   7.271   8.607   9.947 -0.1613  0.1031  0.0530
69229W        W12141   5.423   6.475   8.597  0.1912  0.0606 -0.6143
69230W        W12142   5.552   9.099  10.116  0.0445  0.1804  0.2027
69231W        W12143   5.159   9.555   7.175  0.0857 -0.2172  0.2143
69232W        W12144   4.739   5.999   9.583 -0.1470 -0.0717 -0.1531
69233W        W12145   5.188  11.240   9.351 -0.0707  0.1064 -0.1180
69234W        W12146   6.171   9.531   8.030 -0.2181  0.0818 -0.0499
69235W        W12147   6.670   7.588   7.580  0.2374 -0.1074 -0.0397
69236W        W12148   4.894  10.757   8.453  0.3362  0.3488  0.4389
69237W        W12149   4.350  10.204   8.903 -0.2882  0.1511 -0.1087
69238W        W12150   5.954   7.606  10.378 -0.1140  0.0537  0.0562
69239W        W12151   6.221   9.920  10.044  0.2651 -0.2046 -0.0362
69240W        W12152   5.382  10.872   7.019 -0.2091 -0.4125 -0.3143
69241W        W12153   6.043  10.571   8.826  0.0592 -0.0382 -0.0165
69242W        W12154   5.022  10.495   7.983 -0.0141  0.0760 -0.0424
69243W        W12155   6.362   7.657   9.364  0.0476 -0.0371  0.1523
69244W        W12156   3.263  11.177   9.052 -0.1026 -0.0665 -0.2741
69245W        W12157   4.702   8.878   7.747 -0.0063 -0.1556  0.2068
69246W        W12158   3.578   9.153   9.308 -0.2416  0.0256 -0.0196
69247W        W12159   6.290   8.419   8.231  0.0590 -0.1895  0.0931
69248W        W12160   5.917  10.908   8.003 -0.2926 -0.1254  0.0570
69249W        W12161   2.462   7.634   9.925  0.1073  0.1859 -0.0156
69250W        W12162   6.314   6.885   8.565  0.1060 -0.0358 -0.1544
69251W        W12163   3.259   9.144   9.836 -0.1596 -0.0055  0.1097
69252W        W12164   5.475   8.923   8.359  0.2035 -0.1093  0.0823
69253W        W12165   2.754   7.559   7.855  0.0871 -0.0338 -0.0022
69254W        W12166   7.684   9.452   9.825 -0.1810  0.0732  0.3814
69255W        W12167   7.413   9.808  10.065  0.1290  0.0262 -0.3067
69256W        W12168   3.663  10.845   9.138  0.0495 -0.2727  0.0401
69257W        W12169   5.504  10.393   8.876 -0.0009 -0.2293 -0.0912
69258W        W12170   4.443   9.804   8.300 -0.2509  0.3550 -0.0466
69259W        W12171   4.989  10.373   8.948  0.1048 -0.0282 -0.0129
69260W        W12172   5.585   9.577   8.947 -0.0482  0.3149 -0.0166
69261W        W12173   4.101   8.179  10.341  0.3325 -0.0819 -0.0996
69262W        W12174   5.973   7.322   8.369  0.1808  0.1050  0.1920
69263W        W12175   7.572   8.606   9.451  0.0200  0.0252 -0.0470
69264W        W12176   6.495   9.133   9.843 -0.0765 -0.0367 -0.3214
69265W        W12177   6.119   9.457   9.843 -0.3081  0.0539 -0.5963
69266W        W12178   4.945   8.201   9.734  0.3299  0.1330 -0.2277
69267W        W12179   6.875   9.373   6.844 -0.0481  0.1771  0.0703
69268W        W12180   4.322   9.869   9.387  0.0687  0.0898 -0.0773
69269W        W12181   3.418   8.662  10.014 -0.0111 -0.1729  0.1065
69270W        W12182   4.388   7.921   8.468  0.3128  0.2424  0.0436
69271W        W12183   4.626   9.641  10.199  0.1356  0.0153 -0.0622
69272W        W12184   2.696   9.753  10.027  0.2008 -0.3458  0.1069
69273W        W12185   4.552   9.289   9.152 -0.5728 -0.1758  0.0364
69274W        W12186   5.254   9.833   9.893  0.4138 -0.1507 -0.3374
69275W        W12187   6.699   6.850   7.928  0.0344 -0.0405 -0.0380
69276W        W12188   5.104   9.639   7.805  0.1335  0.2057  0.1066
69277W        W12189   5.744   8.229   9.065  0.3821  0.1590 -0.2369
69278W        W12190   5.218   8.244   9.239  0.1023 -0.0225  0.5036
69279W        W12191   4.588   9.056  10.007 -0.0778  0.1491 -0.0722
69280W        W12192   6.833  10.014  10.123 -0.1498 -0.0896 -0.1051
69281W        W12193   5.182   7.700   8.553 -0.1116 -0.1095 -0.2114
69282W        W12194   4.474   8.450   7.887  0.1198  0.0276  0.0909
69283W        W12195   5.651   9.494   9.889  0.1598 -0.1899  0.0071
69284W        W12196   6.020   9.770   8.896 -0.3074 -0.1362 -0.0086
69285W        W12197   4.695   9.408   8.624 -0.0915  0.1757  0.0189
69286W        W12198   7.629   7.895   8.848 -0.0931 -0.0858 -0.3115
69287W        W12199   4.164   9.896  10.057  0.0843 -0.1243 -0.0897
69288W        W12200   6.105   9.068   9.510  0.4723  0.0629 -0.1719
69289W        W12201   5.266   8.355   8.277  0.1240 -0.2497 -0.0297
69290W        W12202   5.095   9.814   8.597 -0.0184 -0.0397  0.1660
69291W        W12203   6.099   8.227   9.720 -0.0704 -0.0244 -0.4186
69292W        W12204   5.829   7.224   7.847 -0.0805  0.1466  0.1374
69293W        W12205   7.042   8.285   9.443  0.2078 -0.2370  0.4301
69294W        W12206   5.629   9.101   8.825  0.0497  0.1549 -0.3852
69295W        W12207   6.400   8.697  10.411  0.2257  0.2059  0.2616
69296W        W12208   7.654   7.436   8.420  0.0241  0.2309 -0.0671
69297W        W12209   6.100   6.886   8.124  0.1374 -0.1095 -0.0311
69298W        W12210   4.960   7.951   8.964 -0.1616 -0.0617 -0.1637
69299W        W12211   4.878   8.344   7.382  0.1256 -0.0184  0.1570
69300W        W12212   5.600  10.038   7.093  0.0004  0.1166 -0.2230
69301W        W12213   5.445  10.748   8.581 -0.1989 -0.3922  0.1870
69302W        W12214   6.989   7.736   7.903  0.1293  0.1963  0.1278
69303W        W12215   3.755   8.583   9.065 -0.1062  0.1705  0.3210
69304W        W12216   5.149   8.678   7.928 -0.1464 -0.0039  0.2269
69305W        W12217   5.246   9.164   7.458 -0.2042 -0.0092  0.2497
69306W        W12218   5.756   9.854  10.277  0.1702 -0.1841 -0.2228
69307W        W12219   7.146   7.336   7.601  0.3940 -0.1406 -0.0084
69308W        W12220   3.176   9.595   7.647  0.0610  0.0399 -0.0746
69309W        W12221   6.406   6.200   9.200 -0.1308  0.1001  0.3401
69310W        W12222   7.019  11.499  10.103  0.0398 -0.0903 -0.3375
69311W        W12223   5.454  10.834   8.055 -0.1396 -0.0232 -0.0649
69312W        W12224   6.367   8.970   8.190  0.1799 -0.0229  0.3228
69313W        W12225   6.269   7.816   7.408 -0.2314  0.2509 -0.0620
69314W        W12226   5.182   9.298   8.690 -0.1444 -0.1562  0.1615
69315W        W12227   4.729   7.601   9.341 -0.1331 -0.0513 -0.0692
69316W        W12228   6.230   7.766   8.472 -0.0031  0.1260  0.3122
69317W        W12229   4.407   7.704  10.222 -0.1395 -0.0880 -0.2026
69318W        W12230   5.898   9.133   8.127 -0.1639  0.0909 -0.0122
69319W        W12231   4.310   7.408   9.125  0.0317  0.1616  0.0457
69320W        W12232   6.016  10.677   7.607 -0.1236  0.4197 -0.2774
69321W        W12233   4.180   6.364  10.578 -0.1078 -0.0202 -0.1278
69322W        W12234   5.555  10.512   9.398 -0.1672 -0.2493 -0.3408
69323W        W12235   5.611  10.402   7.778 -0.1223  0.1168  0.1113
69324W        W12236   5.241   9.145   7.952  0.2089 -0.1619  0.1839
69325W        W12237   3.927   9.488   9.550 -0.0965  0.0003  0.4393
69326W        W12238   4.941   8.804   7.335  0.2008 -0.0763 -0.0346
69327W        W12239   5.477  11.910  10.235 -0.4368 -0.0817  0.2680
69328W        W12240   3.684   9.426   8.767 -0.2668 -0.0891  0.0153
69329W        W12241   6.850  10.994   7.518 -0.0642  0.1384 -0.0356
69330W        W12242   5.122  10.723   9.512 -0.0131  0.0812  0.2791
69331W        W12243   6.527   6.864   5.283  0.3011  0.3110  0.1271
69332W        W12244   7.731   8.834   8.571  0.1155 -0.0342  0.0656
69333W        W12245   7.368   7.214   7.107 -0.2588  0.1759 -0.2440
69334W        W12246   5.663   8.602  10.274  0.3032 -0.3374  0.1159
69335W        W12247   5.441   7.115   6.905 -0.1575 -0.0400  0.0429
69336W        W12248   6.985  11.553   7.665 -0.1370 -0.1441 -0.1522
69337W        W12249   4.550   7.096   8.306  0.2598 -0.1110  0.0302
69338W        W12250   6.338   8.666   9.845 -0.2549  0.0832  0.3194
69339W        W12251   6.872   6.797  10.108 -0.1412  0.2729 -0.1525
69340W        W12252   4.034  10.656   7.950 -0.1243 -0.0422 -0.0096
69341W        W12253   6.823   7.830   9.326  0.0409  0.0532  0.1749
69342W        W12254   3.731  10.575   8.347  0.1071  0.0791  0.0316
69343W        W12255   2.553   8.689   9.784  0.0643 -0.0048 -0.1008
69344W        W12256   3.799  11.181   9.630  0.1120  0.1580  0.0831
69345W        W12257   4.652   7.030   8.880  0.1238  0.2130 -0.1730
69346W        W12258   6.885   7.288   8.120  0.2038 -0.1020 -0.1481
69347W        W12259   2.892   7.676   9.537  0.0568  0.1620 -0.0882
69348W        W12260   4.584   8.291   8.802  0.2010 -0.1240  0.2059
69349W        W12261   6.574   8.199   7.885  0.2165  0.0803 -0.0014
69350W        W12262   7.842  10.714  10.116  0.0042  0.0583 -0.0350
69351W        W12263   3.152   5.086  10.648 -0.0350 -0.1824 -0.2036
69352W        W12264   5.402   9.184   6.937 -0.0031 -0.1940 -0.2662
69353W        W12265   6.362   7.612   6.992 -0.1091  0.4551  0.0038
69354W        W12266   4.124   8.257   9.255  0.0641  0.1494 -0.0612
69355W        W12267   5.135   7.172   7.506  0.0426 -0.1899 -0.0137
69356W        W12268   4.726   9.880   9.014  0.1713 -0.2083  0.0083
69357W        W12269   4.747   8.592  10.236  0.0422  0.2038  0.3256
69358W        W12270   3.242   7.933   9.272  0.2956  0.1283  0.1983
69359W        W12271   6.269  10.363   7.938 -0.4081 -0.2509  0.1913
69360W        W12272   6.989   8.106   8.866 -0.0213 -0.4329 -0.0065
69361W        W12273   5.539  10.532   7.302 -0.3370  0.1242 -0.3453
69362W        W12274   6.739   9.848   8.466 -0.1552  0.1282  0.2283
69363W        W12275   6.034  10.388   9.671  0.2912  0.0531  0.0574
69364W        W12276   3.839   7.417  10.053 -0.0282  0.0605 -0.1072
69365W        W12277   6.517   9.687   9.726  0.0382 -0.0451  0.1617
69366W        W12278   6.921   9.206   8.859  0.0335  0.1415 -0.2373
69367W        W12279   6.028   7.658   7.818 -0.0291 -0.0943 -0.1491
69368W        W12280   4.217   8.737   9.199  0.1831  0.1118 -0.2295
69369W        W12281   4.969   9.674   9.426  0.0537 -0.2057 -0.0022
69370W        W12282   5.582   8.211   9.615 -0.0467 -0.2174 -0.2240
69371W        W12283   4.707  11.036   6.249 -0.2661 -0.0151 -0.2219
69372W        W12284   4.888   9.307  10.603  0.1822  0.1555  0.2618
69373W        W12285   4.888   9.924   7.372 -0.2867  0.0292 -0.1327
69374W        W12286   5.353   9.524   8.250  0.0693  0.0687 -0.1446
69375W        W12287   5.196  11.777   8.499  0.1263 -0.2532 -0.0138
69376W        W12288   6.263  10.765  10.289  0.2991  0.0688 -0.2523
69377W        W12289   4.731   8.703   9.120  0.1065  0.0961  0.0378
69378W        W12290   7.261  10.658  10.147 -0.1014 -0.3843  0.0905
69379W        W12291   6.499   8.137  10.371  0.0867  0.1353  0.2418
69380W        W12292   6.844   6.137   7.942  0.0261  0.1834 -0.0523
69381W        W12293   5.724   7.776   8.646  0.1253 -0.2442 -0.1338
69382W        W12294   6.448   9.801  10.585 -0.1390  0.0631 -0.0497
69383W        W12295   4.677   8.476   8.313 -0.2111 -0.0290  0.0250
69384W        W12296   3.923   9.553   7.493 -0.0442 -0.0572  0.0167
69385W        W12297   4.222   8.767  10.033 -0.0693 -0.0530 -0.0329
69386W        W12298   3.350   8.683   9.457  0.1057  0.2434  0.2123
69387W        W12299   4.104   8.158   8.137  0.0840  0.1469 -0.0426
69388W        W12300   5.400  11.234   8.840 -0.1037 -0.0278  0.3242
69389W        W12301   4.696   8.235   9.294  0.0302  0.0545  0.0083
69390W        W12302   4.105   7.408   9.587 -0.2812 -0.0199 -0.0872
69391W        W12303   5.993  10.153   7.412 -0.1773 -0.2717 -0.0608
69392W        W12304   8.155  11.543   7.375  0.0332  0.0778 -0.1466
69393W        W12305   4.866   8.007   8.336  0.0452 -0.0904  0.3090
69394W        W12306   3.799   9.110   7.750 -0.0473  0.0256 -0.1771
69395W        W12307   4.402   7.796   7.902 -0.0802  0.0673  0.0781
69396W        W12308   5.883  10.154   9.176 -0.1234  0.2182 -0.1368
69397W        W12309   6.384  10.887   8.255  0.1365 -0.1872  0.2683
69398W        W12310   5.799  10.028   6.074 -0.1645  0.0098 -0.0320
69399W        W12311   4.178   5.061   9.965 -0.0770  0.1920 -0.1400
69400W        W12312   6.917   7.482   7.119  0.0641 -0.3227 -0.2260
69401W        W12313   6.833   9.235   7.407  0.0145 -0.5551 -0.3531
69402W        W12314   7.605   7.115   9.310 -0.2692 -0.3058  0.0183
69403W        W12315   6.443   7.083   9.380 -0.0991 -0.1753 -0.1517
69404W        W12316   7.336   9.381  10.432 -0.1400  0.0800 -0.0203
69405W        W12317   3.656   6.376   9.676 -0.1441 -0.0124 -0.2922
69406W        W12318   7.245   7.775   8.402  0.1676  0.0625 -0.0845
69407W        W12319   5.375  11.261   7.778  0.1161 -0.0367  0.0928
69408W        W12320   2.824   9.005  10.161  0.1726 -0.1314  0.1623
69409W        W12321   5.291   8.430   9.973 -0.1590 -0.1592 -0.0327
69410W        W12322   4.464   8.953  10.523  0.0430 -0.1719 -0.0944
69411W        W12323   5.371   7.011   8.007  0.0457  0.1701 -0.3021
69412W        W12324   6.689  10.300   7.624 -0.1272  0.1320 -0.0396
69413W        W12325   4.523   9.526   9.704 -0.0776  0.0569 -0.2768
69414W        W12326   5.231   9.880   9.069 -0.2204  0.0987  0.0404
69415W        W12327   7.108   9.533   8.543 -0.1110  0.0418  0.2009
69416W        W12328   5.096   6.035   8.798 -0.2888  0.1231 -0.1516
69417W        W12329   4.822   9.112   9.518 -0.3446 -0.1161 -0.2985
69418W        W12330   5.779   9.521   8.486 -0.2480  0.0340 -0.2525
69419W        W12331   6.555   8.976   9.240 -0.3306 -0.2671  0.0692
69420W        W12332   3.328   8.049  10.012 -0.1956  0.1374  0.3831
69421W        W12333   4.481   6.815   6.764 -0.2572  0.2578  0.0143
69422W        W12334   3.142  11.197  10.053 -0.0730 -0.0291  0.3338
69423W        W12335   4.183   9.341  10.021 -0.1480 -0.1404  0.0007
69424W        W12336   5.008  13.769   1.704 -0.0888  0.2915  0.2242
69425W        W12337   5.154  10.799  31.652 -0.0503  0.2125  0.1114
69426W        W12338   6.356  12.119   0.539  0.1184  0.0038 -0.1207
69427W        W12339   6.669  12.472   0.520 -0.1185  0.2802 -0.1278
69428W        W12340   5.494   9.557   1.408 -0.0261  0.2234  0.0826
69429W        W12341   6.697  13.419   0.068  0.1240 -0.0819  0.0847
69430W        W12342   5.593   9.706   4.263  0.1863 -0.1620 -0.0480
69431W        W12343   6.938  14.368   1.915 -0.1555  0.2309 -0.0922
69432W        W12344   6.908  14.876   1.869 -0.1668  0.0523 -0.2735
69433W        W12345   6.769  13.203  31.486  0.3282  0.0325 -0.2649
69434W        W12346   6.867  13.270   2.819 -0.1910  0.3015 -0.1016
69435W        W12347   4.131  13.586   2.463  0.0686 -0.1871  0.0755
69436W        W12348   6.484  10.088  31.288 -0.0604 -0.1700 -0.2078
69437W        W12349   4.781   9.795   2.819 -0.4147  0.0272  0.0310
69438W        W12350   6.592  13.838   4.711 -0.1115  0.5760 -0.0753
69439W        W12351   4.011  12.093   1.554 -0.1767 -0.0559  0.1951
69440W        W12352   4.818  11.861   4.228  0.0004  0.1021  0.2341
69441W        W12353   6.371  10.813   0.211  0.1665 -0.2420 -0.2684
69442W        W12354   5.853  14.679   2.751 -0.0800  0.2113  0.0750
69443W        W12355   5.698  11.897   2.835  0.2112 -0.0791 -0.0195
69444W        W12356   6.476  10.174   3.845 -0.0582 -0.1461 -0.0913
69445W        W12357   6.329  12.557  31.319 -0.0834  0.0259 -0.1867
69446W        W12358   4.381  11.194   1.111  0.0893  0.0733  0.0283
69447W        W12359   4.486  12.169   2.292  0.0765  0.2726 -0.2269
69448W        W12360   5.584  12.500   2.716 -0.0072  0.0078  0.1027
69449W        W12361   6.416  11.677   1.112  0.0182  0.1609 -0.2696
69450W        W12362   6.240  13.172   0.454  0.0999 -0.1511 -0.3126
69451W        W12363   5.418  12.450   2.115  0.2211  0.1908  0.0772
69452W        W12364   4.476  13.135   3.709 -0.1664 -0.1975 -0.0526
69453W        W12365   6.668  11.697   2.925  0.2698 -0.0446 -0.1910
69454W        W12366   4.430  12.528   1.388  0.4223  0.1215  0.0475
69455W        W12367   3.656  14.439   2.755  0.0604 -0.3347  0.3048
69456W        W12368   3.797  13.155   1.003  0.1033 -0.1329  0.0302
69457W        W12369   7.229  13.140  31.800  0.4790 -0.0966  0.0062
69458W        W12370   8.471  14.187   2.227 -0.0772 -0.3238  0.2247
69459W        W12371   5.599  13.943   3.344  0.0400  0.0165 -0.2815
69460W        W12372   5.197  12.245   1.245 -0.0488  0.2368  0.2275
69461W        W12373   6.193  14.525   3.634  0.1275  0.1950 -0.1032
69462W        W12374   6.426  14.207   2.609  0.1421  0.1784 -0.2784
69463W        W12375   6.084  11.651   1.660 -0.1060 -0.3063 -0.1444
69464W        W12376   5.576  13.061   1.979 -0.2549 -0.0603  0.0028
69465W        W12377   5.722  13.035   1.357 -0.2652 -0.0860  0.0327
69466W        W12378   4.778  13.596   2.593 -0.4635 -0.3415  0.0503
69467W        W12379   5.897  13.569   3.506 -0.3806  0.1405  0.2558
69468W        W12380   3.684  13.243   1.443  0.1018 -0.2015 -0.2373
69469W        W12381   8.296  12.103   2.126  0.0487 -0.0649  0.3462
69470W        W12382   4.144  14.398   1.183  0.3969  0.1220 -0.1365
69471W        W12383   6.025  12.898   0.104 -0.0861  0.2141 -0.0617
69472W        W12384   4.804  11.663  30.918 -0.0579  0.2663 -0.0278
69473W        W12385   6.551  10.473  31.586  0.0683  0.1738  0.0392
69474W        W12386   6.572  11.427   1.661 -0.0670  0.3426 -0.1424
69475W        W12387   5.570  14.673   1.419  0.0762  0.0294  0.1330
69476W        W12388   4.607  10.458   0.987 -0.0328 -0.0078  0.0769
69477W        W12389   5.663  13.592   2.073  0.1961  0.2004  0.1856
69478W        W12390   6.207  12.608  30.783  0.2131 -0.1910  0.2858
69479W        W12391   6.921  12.485   2.111 -0.0536  0.1301  0.0500
69480W        W12392   3.759  13.228   2.895 -0.1190 -0.2661  0.0390
69481W        W12393   5.413  10.574   1.295  0.0586 -0.1591 -0.1486
69482W        W12394   7.330  14.361  30.762 -0.0064  0.3697 -0.3498
69483W        W12395   6.638  14.944   1.437  0.2702 -0.1102  0.0651
69484W        W12396   6.509  14.686  31.114 -0.3154  0.1075 -0.1149
69485W        W12397   4.585  13.343   0.777  0.1287 -0.1785  0.0321
69486W        W12398   4.634  12.581   3.768 -0.2933 -0.0028  0.0434
69487W        W12399   4.745  11.430   2.520  0.0092  0.3210 -0.0111
69488W        W12400   4.719  12.082   1.421  0.1323  0.0881 -0.1099
69489W        W12401   8.998  13.310   2.869  0.1804  0.1163  0.1793
69490W        W12402   2.873  13.363   3.269 -0.1791 -0.2748  0.1587
69491W        W12403   7.195  13.358   1.870 -0.1699  0.1108 -0.1426
69492W        W12404   4.716  13.342   1.730 -0.1995 -0.0876 -0.3032
69493W        W12405   8.537  14.166   2.744  0.0021 -0.0492 -0.1526
69494W        W12406   5.455  13.061  31.194 -0.0637  0.0778  0.2511
69495W        W12407   6.545   9.995   2.189 -0.0420 -0.2141  0.2782
69496W        W12408   6.163  11.835   2.951  0.0689  0.1090 -0.0663
69497W        W12409   4.308  13.412   1.389  0.0285  0.1140 -0.0073
69498W        W12410   5.635  12.568   0.359  0.2204  0.0035  0.3820
69499W        W12411   8.438  14.176   1.062 -0.1448 -0.0856 -0.3318
69500W        W12412   6.700  12.252  31.060  0.0894  0.0894  0.3047
69501W        W12413   3.748  13.790   2.249  0.2480  0.0467 -0.2032
69502W        W12414   4.056  12.835   2.689  0.1935  0.3079  0.0587
69503W        W12415   5.417  13.441   3.249 -0.0674  0.1988 -0.2384
69504W        W12416   3.567  15.304  31.588  0.3287  0.0055  0.0047
69505W        W12417   2.857  11.799   2.280 -0.0462 -0.1872  0.3289
69506W        W12418   4.389  12.331  31.736  0.2489 -0.1257  0.0134
69507W        W12419   3.164  11.148   2.491  0.1228  0.0707 -0.3417
69508W        W12420   5.619  13.929   1.573 -0.2309 -0.0148 -0.0441
69509W        W12421   6.113  11.970  31.595 -0.1437  0.3036 -0.1475
69510W        W12422   4.751  10.572   3.627  0.1776  0.4263 -0.4677
69511W        W12423   6.911  13.157   1.479 -0.0817  0.2491  0.2504
69512W        W12424   5.077  11.679   1.700 -0.0226  0.0935  0.0678
69513W        W12425   6.130  14.013   0.414  0.1151 -0.0154 -0.2476
69514W        W12426   6.922  13.784   0.312  0.3606 -0.0789  0.0321
69515W        W12427   6.374  12.937  31.650 -0.0752 -0.0071 -0.3140
69516W        W12428   4.546  12.031   3.782  0.0168 -0.1143 -0.2787
69517W        W12429   5.829  11.235   1.712  0.2300  0.2391  0.2206
69518W        W12430   4.846  13.073   4.068  0.0751  0.1116 -0.4408
69519W        W12431   4.913  11.202   1.756 -0.1685 -0.3174 -0.0816
69520W        W12432   7.969  12.909   2.053  0.1969  0.0178  0.2163
69521W        W12433   4.028  10.895   1.642 -0.2551 -0.3977  0.1250
69522W        W12434   5.520  11.927   1.015 -0.1036 -0.0546 -0.1203
69523W        W12435   5.587  11.824  31.862  0.0365  0.1478  0.0674
69524W        W12436   3.289  12.471   1.905 -0.2029  0.0601 -0.1271
69525W        W12437   5.048  11.317   4.011 -0.1812  0.1349 -0.0535
69526W        W12438   6.203  14.680   0.623 -0.2906 -0.3203 -0.2468
69527W        W12439   8.151  13.066   2.457  0.0478  0.0285  0.0831
69528W        W12440   8.446  15.273   0.858 -0.5293  0.0647  0.0307
69529W        W12441   4.978  11.732   3.714 -0.0864 -0.0777  0.0300
69530W        W12442   4.050  10.712   1.006  0.0982  0.1581  0.1818
69531W        W12443   4.773  13.563   1.221 -0.1902 -0.3197  0.3560
69532W        W12444   5.539  14.097   2.074  0.1125  0.1275  0.2764
69533W        W12445   5.986  11.958   0.861 -0.1496 -0.4253 -0.1078
69534W        W12446   7.278  14.720   2.166 -0.2690  0.0271 -0.0729
69535W        W12447   6.233  12.464   0.975 -0.0581 -0.1742  0.2714
69536W        W12448   5.669  13.152   2.860  0.2174  0.0352  0.1383
69537W        W12449   6.319  11.297   3.135  0.1146  0.1552 -0.2137
69538W        W12450   8.031  14.112   3.005  0.0214  0.4356  0.2323
69539W        W12451   6.474  12.623   1.848 -0.2413  0.0966  0.2620
69540W        W12452   4.181  10.054  31.444 -0.1657  0.0677  0.0015
69541W        W12453   5.094  15.031   0.996  0.0864  0.0389  0.0095
69542W        W12454   3.195  14.599   0.094 -0.1925 -0.0207  0.0423
69543W        W12455   4.495  12.903   1.782  0.2771  0.0574 -0.1841
69544W        W12456   7.353  13.506   2.904  0.1746  0.1512  0.0221
69545W        W12457   6.913  10.933   2.048 -0.0342 -0.1657 -0.2087
69546W        W12458   3.631  13.243   3.968 -0.2856  0.2004  0.0348
69547W        W12459   5.290  10.531   4.138 -0.0206 -0.0472  0.2155
69548W        W12460   4.566  11.665   0.984  0.0981 -0.2477 -0.0674
69549W        W12461   3.781  13.177   2.344  0.0550 -0.2725 -0.2213
69550W        W12462   7.383  11.210   2.227  0.2532 -0.1358  0.1445
69551W        W12463   8.035  10.810   0.582  0.0778  0.0758  0.1094
69552W        W12464   6.271  13.334   5.879  0.1555 -0.0053  0.0275
69553W        W12465   6.197  13.241   1.148 -0.1419  0.1801 -0.0176
69554W        W12466   6.620  12.205  31.740 -0.1130 -0.1984 -0.1929
69555W        W12467   5.664  11.272  31.272  0.0673  0.3508 -0.1459
69556W        W12468   4.906  12.593   3.321  0.3232 -0.0597 -0.2529
69557W        W12469   5.308  12.242   0.688  0.1265  0.0217 -0.0972
69558W        W12470   5.072  14.156   3.285 -0.0577 -0.0111  0.0520
69559W        W12471   5.032  11.262  30.674 -0.3677  0.1277 -0.3439
69560W        W12472   7.057  14.237   0.555 -0.0782  0.3275 -0.0714
69561W        W12473   3.973  12.750   2.044 -0.1077  0.0709  0.0186
69562W        W12474   5.838  13.640   4.386 -0.3312 -0.2897 -0.4183
69563W        W12475   5.450  13.264  31.656 -0.2869  0.2081  0.0001
69564W        W12476   4.981  12.469   2.480 -0.1823  0.0758  0.1247
69565W        W12477   5.285  11.684   0.237  0.1295 -0.0956  0.0164
69566W        W12478   5.387  12.721   1.699 -0.1620  0.0423  0.4840
69567W        W12479   3.064  15.568  30.877 -0.2295  0.1292 -0.2506
69568W        W12480   5.934  10.805   1.899 -0.1332  0.1414 -0.0531
69569W        W12481   6.318  12.150   1.955  0.0118  0.0435 -0.0552
69570W        W12482   5.601  11.586   2.399 -0.3218  0.2570  0.1085
69571W        W12483   6.851  13.326   4.673 -0.0364 -0.2214  0.2568
69572W        W12484   6.650  12.124   0.943 -0.1488 -0.2159  0.0344
69573W        W12485   4.509  13.564   2.129  0.2540  0.3047 -0.1219
69574W        W12486   7.108  12.352  31.557  0.1434 -0.1222  0.0677
69575W        W12487   5.681  10.711   3.943 -0.0466  0.1476 -0.0266
69576W        W12488   4.274  11.198   2.575 -0.0654  0.0824 -0.1540
69577W        W12489   3.290  13.172   2.150  0.1332  0.1592  0.2234
69578W        W12490   6.849  13.807   4.353 -0.0663 -0.0613 -0.0682
69579W        W12491   5.627  13.090   0.410  0.2894 -0.1192  0.2629
69580W        W12492   5.383  11.881   3.327 -0.1418 -0.0827  0.1929
69581W        W12493   6.624  10.047  31.806  0.1708 -0.0054  0.2100
69582W        W12494   4.729  14.041   0.083  0.0679 -0.0617 -0.0575
69583W        W12495   5.815  13.501  30.803 -0.1057 -0.0817  0.1748
69584W        W12496   6.148  10.277   1.919  0.1418  0.0968 -0.1503
69585W        W12497   6.720  13.241   2.096  0.1595  0.0954 -0.1770
69586W        W12498   4.459  15.101  31.206  0.0093 -0.2327  0.2413
69587W        W12499   6.231  13.115   4.633  0.0304  0.1388 -0.1568
69588W        W12500   5.001  13.171   0.950 -0.1299  0.0195 -0.0265
69589W        W12501   7.924   9.960   2.116 -0.1273  0.3086 -0.0155
69590W        W12502   4.292  15.453   1.400  0.0400  0.2062  0.0052
69591W        W12503   4.790  12.170   0.879 -0.0594 -0.0217  0.1170
69592W        W12504   3.101  12.074  30.845 -0.1521 -0.0171 -0.0679
69593W        W12505   7.363  13.318   1.241 -0.2842  0.1444 -0.0870
69594W        W12506   6.649  13.540  31.131  0.5007 -0.0868 -0.0088
69595W        W12507   4.487  11.550   4.711 -0.1658  0.2814  0.0458
69596W        W12508   7.066  10.797   0.960 -0.0258  0.3607  0.0076
69597W        W12509   4.464  13.775   1.680  0.0113 -0.3139  0.1066
69598W        W12510   5.839  12.920   0.865  0.0817 -0.2392 -0.0201
69599W        W12511   7.517   9.957   0.819  0.1102 -0.0764  0.0811
69600W        W12512   6.087  13.409   3.929  0.2449  0.0658  0.0998
69601W        W12513   3.950  12.858   3.963 -0.1898 -0.1119 -0.3965
69602W        W12514   4.081  10.341  31.885 -0.3774  0.4662  0.0065
69603W        W12515   6.883  12.858   2.467 -0.1211 -0.0350 -0.1290
69604W        W12516   5.553  11.671   1.475  0.1719 -0.0626  0.1046
69605W        W12517   3.594  13.718   1.244 -0.1741 -0.2103 -0.0574
69606W        W12518   6.074  13.864   2.367  0.2264 -0.0437  0.0254
69607W        W12519   5.401  11.425   0.911 -0.1213 -0.2228 -0.0557
69608W        W12520   4.068  13.810   1.213  0.1623 -0.3214  0.0097
69609W        W12521   4.165  11.796   2.251 -0.3264 -0.1010  0.0043
69610W        W12522   5.975  13.439   1.670 -0.2107 -0.2615 -0.1002
69611W        W12523   5.368  12.855   2.384  0.0904 -0.0390  0.0694
69612W        W12524   5.355  10.712   0.560  0.4680 -0.0360  0.2923
69613W        W12525   6.017  12.793   2.676 -0.2212  0.0885 -0.2141
69614W        W12526   7.132  13.457   2.384 -0.0005  0.1199 -0.1651
69615W        W12527   6.868  11.934   2.043  0.1972 -0.0585 -0.0279
69616W        W12528   5.505  14.858   2.463  0.2571 -0.1589  0.2773
69617W        W12529   6.119  10.340   2.396  0.0197 -0.0249 -0.2982
69618W        W12530   9.044  15.918  31.751  0.0342  0.1291 -0.3735
69619W        W12531   7.269  14.353   2.833  0.1052 -0.2101  0.0647
69620W        W12532   5.125  13.218   1.444  0.0011 -0.0723  0.0602
69621W        W12533   3.480  12.670   2.279  0.0887  0.0793 -0.0562
69622W        W12534   5.505  13.469   1.635 -0.0745  0.4000  0.3230
69623W        W12535   5.506  10.865   1.705  0.0617  0.0974  0.0380
69624W        W12536   3.921  13.718   1.754 -0.2614 -0.0733 -0.2368
69625W        W12537   6.018  12.517  31.725 -0.0418 -0.2929  0.2502
69626W        W12538   4.517  14.074   2.577  0.0063 -0.2530 -0.1034
69627W        W12539   6.471  11.796   0.117  0.1670  0.0871 -0.1921
69628W        W12540   5.308  12.811   1.207 -0.1508 -0.3457  0.1678
69629W        W12541   6.325  12.993   2.339  0.0006  0.1078  0.3476
69630W        W12542   6.010  10.847   2.555 -0.2063  0.0528 -0.0646
69631W        W12543   5.318  12.210   0.199 -0.1369  0.0784 -0.2664
69632W        W12544   5.754  10.351   4.352  0.3768 -0.2226  0.1840
69633W        W12545   5.256  11.154   2.457  0.1641 -0.0387  0.0258
69634W        W12546   6.848  15.214   0.203 -0.2218  0.0767  0.0119
69635W        W12547   4.636  11.510   2.054 -0.0419  0.0722  0.0319
69636W        W12548   6.681  13.896   3.896  0.2154  0.0760  0.0979
69637W        W12549   5.311  14.492   3.540  0.1317 -0.1189 -0.1539
69638W        W12550   7.201  12.467   0.360 -0.0640 -0.0661 -0.0759
69639W        W12551   6.402  10.277   0.220  0.1550 -0.3933 -0.2040
69640W        W12552   3.346  13.615   2.440 -0.3647  0.0992 -0.1783
69641W        W12553   7.397  14.172   2.014  0.0225 -0.2948  0.0848
69642W        W12554   5.789  13.633   1.182  0.1391 -0.3544  0.1677
69643W        W12555   6.192  13.396   2.137  0.1063  0.2226  0.2552
69644W        W12556   4.607  12.458   2.796 -0.0677  0.1791 -0.0478
69645W        W12557   7.513  14.470  31.189  0.0219  0.2471 -0.3434
69646W        W12558   5.082  11.682   2.185  0.0091 -0.0595 -0.0520
69647W        W12559   5.839  13.176   2.386 -0.1809 -0.0746  0.1913
69648W        W12560   4.051  10.713   2.855 -0.1653 -0.2194 -0.2749
69649W        W12561   6.137  14.657   0.164  0.0782 -0.1036  0.0716
69650W        W12562   6.555  10.717   0.644 -0.1662  0.1174  0.2754
69651W        W12563   6.048  10.961   4.131  0.2508 -0.0460  0.0466
69652W        W12564   6.276  11.933   2.471 -0.4383 -0.2011 -0.2610
69653W        W12565   7.088  12.867   3.061  0.0628  0.0551 -0.0730
69654W        W12566   4.027  10.835   4.182 -0.0676  0.0213 -0.0867
69655W        W12567   7.520  15.488   3.025  0.2077 -0.1473 -0.1909
69656W        W12568   7.095  13.621  31.432  0.2722 -0.0698  0.1718
69657W        W12569   7.407  12.517   2.906  0.1197 -0.2416  0.2919
69658W        W12570   6.849  12.542   1.189  0.0088 -0.0599  0.2407
69659W        W12571   5.902  11.530  31.600  0.2227 -0.0204  0.1552
69660W        W12572   3.596  12.921   1.815 -0.1051 -0.1790  0.0651
69661W        W12573   8.897  14.609   3.053 -0.4261  0.2087  0.1312
69662W        W12574   4.431  11.500   0.008  0.1083 -0.0732 -0.1058
69663W        W12575   5.299  10.899   3.692  0.0491  0.2104 -0.0205
69664W        W12576   5.839  12.170   0.211  0.0477 -0.2464 -0.1312
69665W        W12577   6.854  12.045   0.288  0.0969 -0.1347 -0.0699
69666W        W12578   5.920  11.517   1.031 -0.0815  0.2131  0.1142
69667W        W12579   6.247  11.172   1.358 -0.2082 -0.3021  0.0652
69668W        W12580   4.860  13.067   2.417 -0.0742  0.2918  0.0247
69669W        W12581   2.822  10.828   0.786 -0.0405 -0.2677  0.1232
69670W        W12582   5.472  12.838  31.954 -0.4300 -0.1007 -0.0102
69671W        W12583   6.138  13.902   3.269  0.0264 -0.0431 -0.1145
69672W        W12584   7.332  13.301   3.336  0.0414  0.0381 -0.0210
69673W        W12585   6.192  11.083   0.751  0.0280 -0.1724  0.0486
69674W        W12586   7.219  13.265   3.830 -0.1197  0.1619  0.0409
69675W        W12587   4.910  12.826   2.874 -0.0470 -0.2196 -0.1910
69676W        W12588   6.354   9.588   1.944 -0.0499  0.1257 -0.2545
69677W        W12589   4.695  14.396   1.623 -0.1161 -0.2905 -0.2789
69678W        W12590   4.761  14.591   2.524  0.1641  0.0312 -0.1013
69679W        W12591   4.742  13.618   0.332  0.2240  0.2840 -0.2510
69680W        W12592   6.831  11.316   2.366 -0.1008  0.1431 -0.3397
69681W        W12593   5.729  12.388   0.895 -0.0774 -0.1642  0.1240
69682W        W12594   5.196  13.381   2.032 -0.0806 -0.0546  0.3011
69683W        W12595   7.516  12.801   3.344 -0.1790 -0.2894  0.0066
69684W        W12596   6.137  13.316   2.716 -0.1801 -0.2454 -0.4377
69685W        W12597   4.985  14.143   1.330 -0.2686 -0.2469 -0.3696
69686W        W12598   6.074  14.029   1.380  0.3394 -0.0560  0.1035
69687W        W12599   5.877  12.351  31.273 -0.0987  0.0368  0.1444
69688W        W12600   5.318  12.174   1.715  0.1026 -0.0182  0.0588
69689W        W12601   3.695  11.741   3.364  0.3134 -0.2857 -0.1485
69690W        W12602   6.866  11.979   2.556 -0.2101  0.0998  0.2345
69691W        W12603   5.586  13.818   2.481  0.1923 -0.2620 -0.2679
69692W        W12604   5.299  11.209   1.429 -0.0848 -0.0035  0.1530
69693W        W12605   4.066  12.741  31.893  0.0007 -0.2720 -0.1623
69694W        W12606   4.501  14.218   3.393 -0.0949 -0.3223 -0.2963
69695W        W12607   4.345  13.125   2.301 -0.1183  0.0109  0.1359
69696W        W12608   3.722  14.518   0.838  0.1602  0.3954 -0.0900
69697W        W12609   5.687  14.431   0.148  0.0714 -0.1592 -0.2411
69698W        W12610   4.659  13.055   1.330 -0.4082 -0.0160  0.4171
69699W        W12611   6.716  14.760   2.303 -0.2372 -0.0963 -0.2191
69700W        W12612   5.965  12.026   1.348 -0.0850  0.1172 -0.1140
69701W        W12613   3.136  13.863   2.013 -0.2854 -0.1004  0.0089
69702W        W12614   3.441  13.656   0.333  0.0336  0.1088 -0.0458
69703W        W12615   6.572  14.023  31.355 -0.3938 -0.0610  0.1573
69704W        W12616   5.284  12.793   0.730  0.0802  0.0857 -0.1160
69705W        W12617   7.917  13.966   3.626  0.1510 -0.0287 -0.4168
69706W        W12618   7.432  10.948  31.306  0.0491  0.0848 -0.1462
69707W        W12619   7.242  12.827   1.413 -0.2510 -0.0593 -0.2797
69708W        W12620   6.510  12.884   0.779 -0.2753  0.0236 -0.0791
69709W        W12621   6.744  14.105   3.027 -0.1193 -0.1148  0.1739
69710W        W12622   4.560  12.640   2.199 -0.3268 -0.2181  0.0017
69711W        W12623   5.520  11.854  31.376  0.3003  0.0082  0.0285
69712W        W12624   4.405  12.877   3.283 -0.1567  0.2188 -0.0428
69713W        W12625   6.862  10.404   2.484 -0.1134 -0.1722 -0.1956
69714W        W12626   4.077  14.275   3.036 -0.1524  0.2015  0.0559
69715W        W12627   7.287  15.148   0.416  0.0051  0.1490 -0.0386
69716W        W12628   4.730  11.627   0.451 -0.1014 -0.2506  0.1044
69717W        W12629   5.299  11.044   0.168 -0.1300  0.1251  0.0657
69718W        W12630   6.477  11.628   2.090  0.0634  0.1980  0.2715
69719W        W12631   6.125  13.427  31.247 -0.2709  0.2407  0.0291
69720W        W12632   5.899  10.722   1.282 -0.0684  0.1689 -0.1791
69721W        W12633   5.265  14.185   0.315  0.1299 -0.1665 -0.2838
69722W        W12634   5.187  13.924   2.770  0.0381 -0.1415 -0.1881
69723W        W12635   5.169  14.833   1.940 -0.0869  0.4079 -0.1763
69724W        W12636   4.866  11.276   1.106 -0.1250  0.1216 -0.2058
69725W        W12637   7.667  12.006   1.634  0.0210 -0.1773  0.3565
69726W        W12638   6.161  12.332   2.824  0.1284  0.1410  0.2770
69727W        W12639   7.815  11.742   2.389 -0.0199  0.0681 -0.0627
69728W        W12640   5.432  11.362   1.965  0.0810 -0.0579 -0.1129
69729W        W12641   6.427  12.810   1.311  0.0284  0.3539 -0.4378
69730W        W12642   5.925  11.895   3.622  0.1209 -0.2732 -0.0374
69731W        W12643   4.932  11.877   3.138 -0.0743 -0.4092  0.3212
69732W        W12644   5.074  11.235   0.553  0.0246  0.0159  0.2318
69733W        W12645   6.220  12.669   3.214 -0.1378  0.2006 -0.0687
69734W        W12646   5.153  11.769   0.690  0.2408  0.1527 -0.0642
69735W        W12647   6.384  14.310   4.686  0.3649 -0.0233 -0.1345
69736W        W12648   5.193  10.847   2.058 -0.0999 -0.1482  0.0168
69737W        W12649   5.869  10.297   0.318  0.1135 -0.1711  0.2401
69738W        W12650   6.696  11.732   0.720 -0.2846 -0.1168 -0.0393
69739W        W12651   5.889  12.578   2.243  0.1058  0.0378 -0.2110
69740W        W12652   6.454  13.538   3.518  0.0222  0.0931 -0.1028
69741W        W12653   4.212  10.447   1.849  0.0449  0.3369 -0.2986
69742W        W12654   6.292  15.643  31.435 -0.2974 -0.0686  0.2115
69743W        W12655   7.051  12.892   1.883 -0.2361  0.0979 -0.1977
69744W        W12656   5.728  14.321   0.612  0.0435 -0.1052  0.0331
69745W        W12657   6.874  12.332   1.662  0.1959 -0.1362  0.3167
69746W        W12658   6.982  14.310   2.409 -0.0064  0.1211  0.1831
69747W        W12659   3.788  12.312   1.962 -0.2976  0.2988 -0.0717
69748W        W12660   4.791  13.247   3.327  0.1672  0.1509  0.0368
69749W        W12661   7.031  13.046   0.991  0.1542 -0.0067  0.2614
69750W        W12662   6.555  10.058   1.702 -0.2121  0.1165  0.2020
69751W        W12663   5.341  12.095   2.420  0.0395 -0.2458  0.0720
69752W        W12664   4.690  14.134   0.556 -0.0808  0.1758  0.2834
69753W        W12665   6.915  11.062   1.399  0.1190  0.1143  0.0215
69754W        W12666   6.194  12.201   3.317  0.0430 -0.0627 -0.2928
69755W        W12667   5.086  13.869   0.821 -0.0921 -0.0104  0.3817
69756W        W12668   6.428  10.678   3.693  0.2151 -0.0938  0.1930
69757W        W12669   4.296  13.366   3.210  0.0447  0.1392 -0.1017
69758W        W12670   5.794  14.262   3.663 -0.2696 -0.3285 -0.0687
69759W        W12671   4.784  12.676   0.998 -0.0792  0.2892  0.2619
69760W        W12672   6.114  12.967   3.604  0.0762 -0.2247 -0.0561
69761W        W12673   6.418  13.633   1.427  0.0810 -0.0800  0.1039
69762W        W12674   5.460  13.269   1.066 -0.0222 -0.2435 -0.0390
69763W        W12675   6.709  15.808   1.524  0.0934 -0.0368  0.3248
69764W        W12676   6.892  12.454   2.787 -0.1396 -0.4023 -0.2246
69765W        W12677   6.055  14.916   1.355  0.5139  0.0936  0.0520
69766W        W12678   6.096  10.625   0.814  0.0974 -0.1082 -0.0438
69767W        W12679   7.557  10.288   2.207  0.1576 -0.0574 -0.1122
69768W        W12680   6.693  11.261   0.949  0.0118  0.0938 -0.2628
69769W        W12681   6.543  12.802   2.807 -0.0576 -0.0398 -0.1299
69770W        W12682   3.529  13.208   0.550  0.3029 -0.0045 -0.2017
69771W        W12683   4.732  12.977   0.519  0.1175 -0.2179  0.0153
69772W        W12684   4.075  13.238   1.840  0.1471 -0.1358 -0.1402
69773W        W12685   5.646  11.084   3.098  0.0790  0.2893  0.1795
69774W        W12686   4.383  10.976   3.808 -0.1189 -0.2709 -0.1162
69775W        W12687   4.919  11.936   2.629  0.0698  0.0482 -0.0310
69776W        W12688   3.711  10.560   1.921  0.2319 -0.0266 -0.0463
69777W        W12689   6.156  14.170  31.906 -0.1474 -0.1581  0.1252
69778W        W12690   5.597   9.991   1.945 -0.3357  0.1850 -0.1651
69779W        W12691   4.861  11.234   3.541  0.0332 -0.4054 -0.0377
69780W        W12692   7.093  14.131   1.021 -0.0237  0.0632  0.1056
69781W        W12693   5.446  14.663   0.912  0.1205 -0.1233  0.0360
69782W        W12694   5.013  12.791   2.001 -0.1639  0.1876 -0.0675
69783W        W12695   8.420  14.339   3.315 -0.0179  0.2076  0.3065
69784W        W12696   4.594  12.636   0.081 -0.0890  0.0487  0.0024
69785W        W12697   7.004  11.838   3.357  0.3619 -0.0318  0.2424
69786W        W12698   4.124  12.498   3.558 -0.2789 -0.1199 -0.5001
69787W        W12699   3.782  10.086   0.235 -0.1804  0.0095  0.0775
69788W        W12700   5.258  12.927   3.207  0.1238 -0.1469 -0.2737
69789W        W12701   4.265  14.363   0.705 -0.1438  0.0876 -0.0504
69790W        W12702   5.728  14.836   0.498  0.2426  0.1602  0.0486
69791W        W12703   6.503  15.179   2.150 -0.4555  0.0221  0.0873
69792W        W12704   5.759  15.106   2.995  0.1356  0.1968 -0.0924
69793W        W12705   3.920  10.072   2.119  0.0759 -0.1071  0.1047
69794W        W12706   7.663  12.065   0.331  0.2489  0.1386  0.0928
69795W        W12707   5.353  13.385   2.516 -0.2377 -0.0159 -0.1464
69796W        W12708   6.512  13.576  31.619  0.0147 -0.2232 -0.0207
69797W        W12709   8.865  11.343   2.314  0.2539  0.1437 -0.0156
69798W        W12710   6.519  10.810   1.192 -0.1794 -0.1267  0.0909
69799W        W12711   3.196  11.203   4.599  0.2803 -0.1075  0.1062
69800W        W12712   5.559  13.395   3.924 -0.0192 -0.0450  0.2320
69801W        W12713   6.440  14.126   1.684 -0.0335  0.2198  0.1296
69802W        W12714   5.061  10.193   1.323  0.0731  0.0843  0.1537
69803W        W12715   7.531  10.925   0.747 -0.1160  0.0763 -0.0425
69804W        W12716   5.098  13.289   0.047 -0.1016  0.0809 -0.1068
69805W        W12717   5.268  11.567   2.885 -0.0470  0.1520 -0.1616
69806W        W12718   5.719  12.732  30.578 -0.0742 -0.3840 -0.0326
69807W        W12719   6.035  12.931   1.751 -0.1681 -0.0393  0.0742
69808W        W12720   6.548  13.606   2.456 -0.0861  0.2266  0.0490
69809W        W12721   7.617  13.922   2.792  0.0158  0.0132 -0.2963
69810W        W12722   6.088  12.697   0.543  0.1552  0.1355 -0.2349
69811W        W12723   6.575  14.336   0.380 -0.2694 -0.0700 -0.3744
69812W        W12724   7.027  13.800   2.692  0.2679  0.3400  0.1895
69813W        W12725   7.402  15.119   3.420 -0.0447  0.0744 -0.3216
69814W        W12726   6.025  13.892   1.888  0.1413 -0.1558 -0.1177
69815W        W12727   5.143  13.819   2.260  0.3330 -0.0466  0.1052
69816W        W12728   5.833  11.395   2.800  0.2359  0.1755 -0.1189
69817W        W12729   5.614  11.809   0.559 -0.0562  0.1772 -0.1245
69818W        W12730   5.690  11.311   0.527  0.1941  0.1071 -0.3153
69819W        W12731   5.786  12.355   1.730  0.2252 -0.1346  0.0622
69820W        W12732   5.215  12.250   2.956  0.1593  0.1571  0.2608
69821W        W12733   6.759  10.892  31.869  0.0762  0.1519  0.2065
69822W        W12734   3.390  13.063   3.353 -0.1849  0.2760 -0.0293
69823W        W12735   6.399  13.099   3.162  0.0559 -0.0986 -0.0820
69824W        W12736   4.970  12.823   5.594  0.1640 -0.1303 -0.2349
69825W        W12737   4.010  13.054   5.830 -0.2124 -0.0273  0.0862
69826W        W12738   5.016  12.232   3.746 -0.2299  0.0575 -0.2063
69827W        W12739   6.453  11.751   4.311  0.0795  0.2526 -0.2475
69828W        W12740   4.351  11.614   5.937  0.0162 -0.0875 -0.1782
69829W        W12741   7.362  13.911   3.317  0.0107  0.1502  0.0007
69830W        W12742   3.104  10.966   5.457  0.0104  0.0193  0.0358
69831W        W12743   6.206  15.198   5.449 -0.3540 -0.0027 -0.0593
69832W        W12744   6.906  13.648   7.608 -0.3404  0.3119  0.1596
69833W        W12745   5.593  13.001   3.583  0.0403  0.2678 -0.0226
69834W        W12746   4.576  10.550   4.905  0.1948 -0.1769  0.1769
69835W        W12747   2.806  15.210   6.494 -0.0123  0.1741 -0.3031
69836W        W12748   4.163  10.204   4.769 -0.0779 -0.4459 -0.1548
69837W        W12749   3.710   9.788   5.469  0.0587 -0.3368  0.2077
69838W        W12750   4.618  12.390   6.467  0.1029 -0.1281  0.2895
69839W        W12751   4.850  14.068   3.786  0.0429 -0.2590  0.0686
69840W        W12752   4.683  12.048   5.497 -0.0749 -0.2851 -0.0727
69841W        W12753   5.457  11.339   4.400  0.0871 -0.2745 -0.1129
69842W        W12754   6.613  13.691   5.767  0.4239 -0.2076 -0.0723
69843W        W12755   4.308  10.980   5.210 -0.1886  0.0175 -0.1913
69844W        W12756   4.887  11.765   5.885  0.1458  0.2211  0.1991
69845W        W12757   4.894  13.311   4.548 -0.1582 -0.1069 -0.1826
69846W        W12758   3.609  11.999   4.661  0.3125  0.0603 -0.4015
69847W        W12759   4.435  12.818   4.252  0.1007  0.1626 -0.1866
69848W        W12760   2.294  12.799   5.844 -0.1888 -0.2744 -0.0374
69849W        W12761   5.882  12.691   4.517  0.0831  0.1194  0.0652
69850W        W12762   7.086  13.560   5.770 -0.0545 -0.1450  0.4051
69851W        W12763   6.210  14.807   5.802  0.1984 -0.0881  0.0570
69852W        W12764   6.758  14.026   6.211 -0.0823  0.0196 -0.2253
69853W        W12765   5.466  13.442   6.198  0.1777  0.1773 -0.0129
69854W        W12766   3.355  12.415   5.876 -0.2077 -0.1659  0.0790
69855W        W12767   4.323  15.587   4.561  0.5973  0.0765 -0.0116
69856W        W12768   4.651  14.521   3.771  0.1474  0.0282  0.1027
69857W        W12769   7.745  13.350   4.023  0.0996 -0.1419  0.1484
69858W        W12770   7.370  13.889   7.952 -0.0566 -0.0428  0.0639
69859W        W12771   4.241  14.275   7.255 -0.0741  0.3373  0.0416
69860W        W12772   4.424  14.261   4.087  0.0931  0.0026  0.1694
69861W        W12773   4.665  14.779   5.746  0.1916 -0.0310  0.2536
69862W        W12774   4.118  14.095   6.315  0.0046  0.1263 -0.2543
69863W        W12775   4.111  13.086   6.598  0.0724 -0.1224 -0.1486
69864W        W12776   6.013  13.127   5.172 -0.0753  0.3102 -0.0999
69865W        W12777   4.691  13.560   3.961 -0.2408  0.1735 -0.1142
69866W        W12778   4.960  13.551   5.863  0.0579 -0.1825  0.2070
69867W        W12779   3.644  13.636   8.010 -0.0544  0.1012  0.1203
69868W        W12780   4.825  14.361   6.140  0.0961  0.1127 -0.4394
69869W        W12781   6.671  11.882   7.214  0.1403 -0.2220 -0.2449
69870W        W12782   6.162  13.937   3.848 -0.0020  0.1525 -0.0436
69871W        W12783   6.844  13.342   4.136 -0.0157  0.1972  0.0476
69872W        W12784   4.588  11.597   3.365  0.0185 -0.1305  0.0203
69873W        W12785   6.649  12.166   3.097 -0.3008 -0.1451 -0.2350
69874W        W12786   5.793  11.347   5.509  0.0910  0.0689 -0.1072
69875W        W12787   5.724  14.323   4.989  0.2984 -0.0292 -0.3231
69876W        W12788   4.684  11.271   5.123  0.1739 -0.1451  0.2927
69877W        W12789   6.897  12.333   6.015 -0.2190 -0.0081 -0.0446
69878W        W12790   5.342  13.542   4.434 -0.3270 -0.1050 -0.3313
69879W        W12791   5.237  14.030   6.108 -0.3267  0.0617  0.0679
69880W        W12792   4.480  13.549   4.667  0.0859  0.1245 -0.0044
69881W        W12793   2.288  12.422   4.551  0.0056 -0.0332  0.0647
69882W        W12794   5.452  12.946   5.864  0.0953  0.1580  0.0183
69883W        W12795   7.055  13.242   5.148  0.0994 -0.0826  0.1462
69884W        W12796   6.028  14.646   4.719  0.0954 -0.3509 -0.0648
69885W        W12797   3.969  11.997   4.977 -0.0761  0.0123 -0.0007
69886W        W12798   4.929  13.736   6.828 -0.4413  0.1059 -0.1081
69887W        W12799   3.909  11.464   6.270  0.0791 -0.2174  0.0818
69888W        W12800   4.926  11.423   4.474 -0.0710  0.2526  0.1955
69889W        W12801   7.104  14.035   6.736 -0.0214 -0.0507  0.0143
69890W        W12802   3.925  14.361   5.975 -0.2678 -0.5024  0.1008
69891W        W12803   6.931  10.944   6.579 -0.0278 -0.1610  0.0144
69892W        W12804   1.619  12.518   5.676 -0.2309 -0.1593 -0.0518
69893W        W12805   7.256  12.633   6.769  0.0516 -0.2269  0.1864
69894W        W12806   6.334  12.844   4.187  0.1686 -0.1659 -0.1012
69895W        W12807   6.599  11.321   6.484  0.2001  0.2929  0.2916
69896W        W12808   6.350  11.469   6.001  0.2730  0.2079 -0.2402
69897W        W12809   5.156  12.699   3.873 -0.1722 -0.2165  0.2104
69898W        W12810   5.602  13.843   4.819 -0.2539  0.1041  0.1655
69899W        W12811   7.492  13.899   6.508  0.3108  0.0132 -0.0771
69900W        W12812   8.172  13.235   4.664  0.0923  0.5358  0.2472
69901W        W12813   4.980  14.567   5.279  0.3085  0.0373 -0.2676
69902W        W12814   4.936  11.594   5.447 -0.1118  0.1202 -0.0017
69903W        W12815   4.585  13.014   6.475  0.0586  0.1062  0.1701
69904W        W12816   4.048  13.877   3.356  0.1164 -0.1380 -0.1720
69905W        W12817   4.324  13.689   5.086 -0.0877 -0.0319  0.1439
69906W        W12818   4.980  14.871   3.782  0.1821 -0.3474  0.2085
69907W        W12819   1.793  12.303   6.160  0.0272 -0.0974 -0.0152
69908W        W12820   3.539  12.483   6.367  0.0457  0.4771 -0.0849
69909W        W12821   6.329  10.560   4.232  0.1306 -0.0915  0.1384
69910W        W12822   3.706  10.470   6.591 -0.1230 -0.1044  0.2889
69911W        W12823   5.710  12.100   5.185 -0.0529 -0.2869 -0.0190
69912W        W12824   4.058  14.608   4.157  0.1510  0.0561  0.2061
69913W        W12825   8.101  13.244   6.087 -0.2175 -0.1976  0.0868
69914W        W12826   5.868  11.448   3.357 -0.0543 -0.2712 -0.1516
69915W        W12827   7.257  14.620   3.370  0.0613  0.3820 -0.1423
69916W        W12828   3.661  12.502   4.775  0.0321  0.1878 -0.1170
69917W        W12829   4.429  10.503   4.441 -0.3127 -0.0421  0.1320
69918W        W12830   4.488  12.248   5.924  0.0667 -0.1597 -0.0253
69919W        W12831   2.799  10.805   6.181 -0.1741 -0.3377  0.1082
69920W        W12832   6.141  12.966   7.310  0.1935 -0.0865  0.0471
69921W        W12833   4.735  10.839   4.156 -0.0703  0.1940 -0.3334
69922W        W12834   6.181  11.943   5.375 -0.0131  0.0954 -0.0225
69923W        W12835   6.362  11.968   3.841 -0.1933  0.2581  0.1917
69924W        W12836   3.483  13.963   4.504 -0.3413  0.1019  0.0148
69925W        W12837   7.534  12.829   7.624 -0.0646 -0.2546 -0.0990
69926W        W12838   5.757  15.297   5.266  0.6376  0.3018  0.1640
69927W        W12839   6.999  14.547   6.212  0.1150 -0.1094  0.0085
69928W        W12840   7.279  12.743   6.206 -0.2056  0.2641 -0.0172
69929W        W12841   6.003  10.741   6.550 -0.1730  0.0368  0.1847
69930W        W12842   5.521  12.813   4.800  0.1045  0.3645 -0.0425
69931W        W12843   4.852  15.715   3.895 -0.1650  0.0395 -0.1448
69932W        W12844   4.700  14.740   4.659 -0.0748 -0.0059 -0.3602
69933W        W12845   3.542  10.591   5.400 -0.0366 -0.0091 -0.1566
69934W        W12846   8.287  12.879   5.283 -0.1946  0.3086  0.0332
69935W        W12847   5.189  13.263   5.451  0.4005  0.0940  0.3324
69936W        W12848   3.979  13.923   6.925 -0.0095  0.2970  0.0746
69937W        W12849   6.679  11.032   6.095  0.1022 -0.0752 -0.1875
69938W        W12850   6.802  13.324   6.690  0.3907 -0.1668 -0.0690
69939W        W12851   6.342  12.440   4.497 -0.2925  0.2043 -0.3110
69940W        W12852   3.661  12.474   4.143  0.0038  0.3150 -0.0982
69941W        W12853   6.397  14.750   4.351  0.0274 -0.3862 -0.3494
69942W        W12854   3.315  14.880   2.584 -0.2990 -0.0972 -0.1207
69943W        W12855   3.171  12.255   3.822  0.0665 -0.4147  0.2129
69944W        W12856   5.142  14.310   6.556  0.0561  0.0176  0.2180
69945W        W12857   6.292  11.088   5.589 -0.0597 -0.0688 -0.2298
69946W        W12858   4.849  11.959   6.775  0.0714  0.3365 -0.2834
69947W        W12859   5.395  12.389   7.804 -0.1329  0.0891 -0.5894
69948W        W12860   2.995  13.784   4.460 -0.0346  0.0135 -0.2510
69949W        W12861   3.794  13.442   6.184 -0.2341 -0.1599  0.4092
69950W        W12862   4.909  12.428   5.287  0.0158  0.2483  0.0192
69951W        W12863   6.594  12.007   4.680 -0.2585 -0.0776 -0.1964
69952W        W12864   5.752  14.041   6.328  0.0157  0.1064 -0.2703
69953W        W12865   6.296  13.984   5.158 -0.3307  0.0558  0.2161
69954W        W12866   5.938  12.502   3.597 -0.0542  0.0264  0.4331
69955W        W12867   5.333  12.424   4.448  0.3888  0.0928  0.2074
69956W        W12868   3.633  12.833   7.552  0.1645 -0.2029  0.1100
69957W        W12869   5.497  14.689   5.314 -0.0710 -0.0049 -0.2177
69958W        W12870   5.035  13.138   6.127  0.1371  0.2579 -0.2595
69959W        W12871   3.753  12.121   3.705 -0.0674  0.1739 -0.4544
69960W        W12872   6.824  14.043   5.320  0.0995  0.1122  0.1300
69961W        W12873   3.544  13.219   5.787 -0.1121 -0.3217  0.2364
69962W        W12874   5.999  11.628   9.603  0.0012 -0.0271 -0.4262
69963W        W12875   7.048  13.670   6.435  0.2329 -0.0488 -0.0183
69964W        W12876   4.505  10.134   5.146 -0.2743  0.2200 -0.2591
69965W        W12877   6.416  12.488   3.752 -0.0059 -0.0057  0.0449
69966W        W12878   6.916  11.537   6.173  0.0859  0.1700  0.2396
69967W        W12879   5.545  15.767   2.392  0.3490 -0.0993 -0.2216
69968W        W12880   6.609  10.545   6.003 -0.0942  0.0807  0.2899
69969W        W12881   5.331  11.857   4.519 -0.0591 -0.1364 -0.3507
69970W        W12882   5.474  11.093   6.459  0.1178 -0.0669 -0.1863
69971W        W12883   7.769  11.231   7.886 -0.1311 -0.2251  0.0545
69972W        W12884   5.874  12.600   5.095  0.1170 -0.1839 -0.2106
69973W        W12885   5.059  12.841   5.071 -0.1819  0.0166 -0.1100
69974W        W12886   4.494  12.519   4.732  0.3070  0.1319  0.1202
69975W        W12887   6.494  10.680   6.523 -0.0541 -0.1612 -0.0278
69976W        W12888   5.063  12.251   5.798 -0.1564  0.1475 -0.2778
69977W        W12889   3.334  14.073   6.261  0.1175  0.2447  0.0524
69978W        W12890   6.285  13.855   7.986  0.0113 -0.1069 -0.3044
69979W        W12891   6.017  12.632   6.410 -0.2828 -0.2751  0.1917
69980W        W12892   6.218  11.718   7.405  0.3788  0.0876  0.1360
69981W        W12893   5.672  11.237   3.942 -0.1056  0.0296  0.0418
69982W        W12894   4.304  13.758   4.240 -0.0901  0.0942  0.1735
69983W        W12895   4.355  13.895   3.757  0.0196  0.2947 -0.2596
69984W        W12896   3.844  11.690   5.378  0.1627 -0.0417 -0.2291
69985W        W12897   5.000  12.724   6.571 -0.1635  0.1695 -0.4367
69986W        W12898   5.321  13.034   4.269 -0.0980 -0.0332  0.0321
69987W        W12899   6.645  13.146   7.508  0.3302  0.0402  0.0379
69988W        W12900   3.910  14.803   3.579  0.0438  0.2878 -0.0100
69989W        W12901   7.312  11.435   5.807  0.3971 -0.1523  0.0676
69990W        W12902   3.950  14.113   4.274 -0.1322  0.0451 -0.1705
69991W        W12903   4.329  11.818   4.287 -0.1678  0.2237 -0.1305
69992W        W12904   3.615  13.025   4.834  0.0587  0.0541  0.1984
69993W        W12905   6.326  11.007   4.726  0.0677  0.1871 -0.2264
69994W        W12906   7.009  14.226   4.111 -0.4053  0.2445 -0.1775
69995W        W12907   2.224  10.833   7.795  0.0467 -0.2683  0.1826
69996W        W12908   5.504  11.636   5.209  0.1034  0.2708 -0.1255
69997W        W12909   2.928  13.712   5.150  0.0757 -0.0268 -0.1951
69998W        W12910   5.976  13.454   7.078  0.2792  0.1134 -0.1245
69999W        W12911   5.351  12.461   3.444 -0.0715  0.0237 -0.0840
70000W        W12912   6.127  14.523   6.492  0.1649  0.2001 -0.0527
70001W        W12913   3.607  12.507   8.573  0.2139 -0.1895  0.1069
70002W        W12914   4.054  11.616   2.694  0.0754 -0.2679 -0.2139
70003W        W12915   6.866  13.271   6.141 -0.1142 -0.0564  0.0085
70004W        W12916   5.402  12.445   5.548 -0.0067  0.1637  0.1599
70005W        W12917   3.045  13.447   4.109  0.2376  0.3189 -0.1360
70006W        W12918   4.215  13.736   6.015 -0.0953 -0.0718 -0.0054
70007W        W12919   3.890  13.679   4.580 -0.2353  0.0429  0.2744
70008W        W12920   5.075  13.747   5.293  0.0751  0.2280  0.0781
70009W        W12921   5.255  12.742   6.972 -0.2330 -0.1122  0.0950
70010W        W12922   5.640  13.055   7.101 -0.1298 -0.0971 -0.4091
70011W        W12923   4.280  12.674   5.652 -0.1413  0.0220 -0.3467
70012W        W12924   3.786  10.543   4.686 -0.1036 -0.3239 -0.4396
70013W        W12925   5.229  11.220   5.477  0.2967  0.1718 -0.1095
70014W        W12926   5.960  13.870   6.760 -0.1407  0.3223  0.0375
70015W        W12927   5.992  12.342   4.111  0.2132  0.4110  0.1869
70016W        W12928   3.465  13.804   7.604  0.1421  0.0264  0.0254
70017W        W12929   5.676  11.143   5.954 -0.2136 -0.1026  0.5545
70018W        W12930   7.331  13.624   4.382 -0.1783 -0.1390  0.1528
70019W        W12931   6.378  12.633   8.216 -0.0715 -0.1986  0.1055
70020W        W12932   5.646  12.734   4.007  0.1149 -0.0253  0.3305
70021W        W12933   3.075  13.378   5.807 -0.1959 -0.4215  0.3077
70022W        W12934   4.090  12.275   4.055 -0.2037 -0.0529 -0.2566
70023W        W12935   5.354  11.650   5.781 -0.1314  0.1923  0.3159
70024W        W12936   3.711  12.959   6.242 -0.1277  0.0500  0.2467
70025W        W12937   6.330  13.984   4.310 -0.1885 -0.1832  0.1508
70026W        W12938   4.142  13.989   5.595 -0.0135  0.2204 -0.2348
70027W        W12939   5.809  12.081   2.376  0.1712 -0.0458  0.0721
70028W        W12940   6.012  13.608   4.929 -0.1525 -0.0262 -0.1243
70029W        W12941   4.328  11.400   5.460  0.1201  0.0913  0.2128
70030W        W12942   6.315  12.221   7.340 -0.0618  0.1447  0.0963
70031W        W12943   5.167  10.934   4.369 -0.2331  0.3720 -0.2907
70032W        W12944   7.022  11.982   8.161  0.0150  0.0324 -0.0624
70033W        W12945   2.430  11.445   6.112  0.0784 -0.0645  0.1618
70034W        W12946   6.532  13.600   6.306  0.0532 -0.0802 -0.0256
70035W        W12947   3.592  12.005   6.471  0.1853  0.1444 -0.0947
70036W        W12948   5.849  14.572   7.744  0.1411 -0.0314  0.1237
70037W        W12949   4.300  12.236   6.931  0.1308  0.1310  0.1730
70038W        W12950   6.765  11.683   3.877 -0.0780 -0.4378 -0.0921
70039W        W12951   4.049  13.244   4.838 -0.1168 -0.1436 -0.2143
70040W        W12952   4.617  13.136   5.829 -0.0321 -0.0535 -0.2562
70041W        W12953   7.561  13.621   5.685  0.2333 -0.0371 -0.0399
70042W        W12954   5.820  13.113   4.200  0.1290 -0.2404 -0.0139
70043W        W12955   6.054  12.969   6.772 -0.1054  0.0076 -0.2531
70044W        W12956   3.052  12.475   6.278  0.1119 -0.0557  0.1925
70045W        W12957   6.283  12.739   4.920 -0.1245 -0.0548  0.0747
70046W        W12958   6.196  12.787   5.944  0.4611 -0.4006 -0.2669
70047W        W12959   3.545  13.398   4.531  0.0462  0.1364  0.1913
70048W        W12960   3.525  10.887   6.909 -0.3207  0.0589  0.1430
70049W        W12961   6.466  14.482   6.143  0.0393 -0.1430  0.0554
70050W        W12962   5.780  12.250   4.649 -0.0710  0.2638 -0.0129
70051W        W12963   5.523  12.073   5.958  0.1581 -0.4174 -0.0587
70052W        W12964   5.891  12.179   6.463  0.0170  0.0716 -0.0418
70053W        W12965   4.025  12.000   6.158  0.0594  0.1313  0.0067
70054W        W12966   4.705  11.505   6.293  0.3070 -0.1320 -0.2881
70055W        W12967   6.201  14.589   7.295  0.4383  0.2728 -0.1151
70056W        W12968   6.469  11.242   4.231 -0.2782  0.1086  0.1048
70057W        W12969   6.054  11.907   7.841 -0.0273  0.2145  0.0163
70058W        W12970   6.196  12.179   4.907  0.0479 -0.1845 -0.1372
70059W        W12971   5.219  13.281   4.933 -0.4619  0.4530  0.4094
70060W        W12972   3.413  11.038   5.040  0.0277 -0.0662 -0.1518
70061W        W12973   5.260  12.426   8.776  0.3151  0.1696 -0.1225
70062W        W12974   4.135  11.929   3.280  0.0296 -0.1577  0.0305
70063W        W12975   6.300  11.678   6.882 -0.2677  0.0531  0.0170
70064W        W12976   5.695  13.993   4.046  0.4233  0.0710  0.1587
70065W        W12977   5.492  12.958   6.372 -0.2157  0.0352  0.1032
70066W        W12978   5.447  11.737   3.931  0.0853  0.0992  0.0426
70067W        W12979   3.190  11.114   6.132 -0.1029 -0.1874 -0.0651
70068W        W12980   3.337  13.548   5.435  0.1760 -0.1883 -0.0933
70069W        W12981   2.679  11.388   4.596 -0.1045 -0.0112  0.1145
70070W        W12982   5.044  13.327   2.912 -0.1848  0.0136 -0.5204
70071W        W12983   4.735  12.833   7.724 -0.2238 -0.3135  0.3568
70072W        W12984   6.863  12.857   7.012 -0.1226 -0.1351 -0.2017
70073W        W12985   4.090  11.707   3.742  0.1516  0.0152  0.1349
70074W        W12986   6.827  12.288   7.572  0.0941  0.1726  0.0517
70075W        W12987   4.517  11.252   4.279  0.1029  0.2250 -0.1680
70076W        W12988   4.805  13.852   4.348  0.2852 -0.1018  0.1639
70077W        W12989   3.275  12.530   7.270 -0.1188 -0.0315 -0.0776
70078W        W12990   4.759  13.935   5.645  0.1631 -0.2874 -0.4320
70079W        W12991   5.755  11.829   5.615  0.0121  0.3065 -0.2274
70080W        W12992   6.946  10.046   6.508  0.0239  0.0833 -0.4709
70081W        W12993   6.026  11.352   4.472  0.2310 -0.0848 -0.1291
70082W        W12994   5.573  12.081   8.478  0.1391  0.0487 -0.3106
70083W        W12995   5.312  14.386   6.998  0.1548  0.0041 -0.1856
70084W        W12996   3.235  11.985   6.093  0.2113  0.3740  0.2129
70085W        W12997   5.421  13.885   6.736  0.0691  0.4004  0.1299
70086W        W12998   8.439  12.788   4.322 -0.2475 -0.2486  0.0534
70087W        W12999   2.743  13.455   4.706  0.0109 -0.1551  0.0797
70088W        W13000   2.751  11.295   6.475  0.0478  0.2176 -0.1112
70089W        W13001   5.139  13.078   7.312  0.0791 -0.0629  0.1385
70090W        W13002   4.240  13.601   6.531  0.2928 -0.1319 -0.2990
70091W        W13003   3.992  10.616   5.115 -0.3250  0.1154  0.0823
70092W        W13004   6.517  13.640   2.995 -0.3230  0.0852 -0.0499
70093W        W13005   2.619  13.543   7.052 -0.0669 -0.1947  0.0279
70094W        W13006   2.898  12.413   5.460  0.1596 -0.1408 -0.3213
70095W        W13007   4.219  14.584   4.633  0.0755  0.0655 -0.2893
70096W        W13008   6.234  13.517   5.415 -0.0233  0.1046 -0.0120
70097W        W13009   6.922  13.630   3.458  0.2906 -0.2034 -0.4357
70098W        W13010   5.926  13.138   6.150  0.3102 -0.2621 -0.1283
70099W        W13011   4.873  12.442   4.232 -0.0015  0.0140  0.1006
70100W        W13012   5.982  14.806   5.324  0.3313  0.2420 -0.2749
70101W        W13013   2.773  14.849   4.498  0.2715 -0.0031 -0.1640
70102W        W13014   6.092  14.347   5.560 -0.0611  0.0658 -0.3766
70103W        W13015   4.466  14.839   3.315 -0.1869 -0.0291  0.1143
70104W        W13016   6.723  12.940   8.001  0.1238 -0.0274 -0.2743
70105W        W13017   6.444  11.770   3.379 -0.0379 -0.2984  0.1849
70106W        W13018   7.231  12.722   5.292 -0.0294  0.1227 -0.2063
70107W        W13019   6.636  12.003   5.259 -0.0828  0.1878  0.1574
70108W        W13020   5.414  14.044   7.741 -0.0227 -0.1042  0.2515
70109W        W13021   4.747  12.726   6.043  0.0368  0.2601 -0.2465
70110W        W13022   4.419  11.773   5.146  0.1425  0.1289  0.2039
70111W        W13023   4.802  12.405   6.955  0.4108  0.1134  0.0414
70112W        W13024   4.909  12.151   7.698 -0.0332  0.3563  0.1357
70113W        W13025   3.720  13.829   6.482 -0.0202  0.1699  0.0232
70114W        W13026   7.100  13.821   4.864 -0.1215 -0.0177 -0.1150
70115W        W13027   5.479  12.231   3.894  0.1718 -0.0889  0.2180
70116W        W13028   4.242  12.719   6.189  0.1564  0.2044  0.1119
70117W        W13029   7.396   9.895   6.036  0.0418  0.2119  0.3379
70118W        W13030   3.727  13.433   3.459 -0.1712  0.0821 -0.2294
70119W        W13031   5.182  12.018   5.394 -0.0064  0.2438  0.0591
70120W        W13032   4.481  14.923   7.071 -0.4015 -0.2157  0.1732
70121W        W13033   4.152  14.925   5.972  0.0379  0.1163 -0.1477
70122W        W13034   4.593  13.888   6.272 -0.3475  0.1175 -0.3957
70123W        W13035   2.610  11.893   4.741 -0.0801 -0.0535  0.1223
70124W        W13036   7.377  12.498   5.727 -0.0082  0.1385 -0.1006
70125W        W13037   3.734  11.383   6.748 -0.1389 -0.3593  0.0040
70126W        W13038   5.137  11.574   6.557 -0.1234  0.0553 -0.5665
70127W        W13039   4.749  13.333   5.124  0.2627 -0.2074 -0.3915
70128W        W13040   6.630  12.252   4.189  0.0977 -0.2966 -0.0818
70129W        W13041   4.588  12.790   5.209  0.1576 -0.1778  0.1512
70130W        W13042   3.858  12.332   5.344 -0.0593 -0.1037 -0.0307
70131W        W13043   5.712  12.251   3.180  0.0283  0.3648  0.1527
70132W        W13044   6.440  12.914   5.518 -0.2412  0.2181  0.2373
70133W        W13045   6.838  12.211   3.653 -0.2761 -0.0523  0.0631
70134W        W13046   6.398  14.285   6.908  0.0129  0.0624  0.0084
70135W        W13047   3.563  11.532   4.899  0.0482  0.0371  0.1269
70136W        W13048   4.207  10.881   4.701 -0.2521  0.0074 -0.2675
70137W        W13049   4.187  12.088   5.589 -0.0129  0.1672 -0.0890
70138W        W13050   4.301  13.290   6.165  0.1747  0.3130  0.0024
70139W        W13051   6.166  11.880   8.545  0.1302 -0.1489  0.1207
70140W        W13052   4.475  12.046   4.712 -0.2303  0.1261 -0.0687
70141W        W13053   9.008  14.856   2.281  0.2972  0.1607 -0.2780
70142W        W13054   5.934  12.415   5.558 -0.0274 -0.3411  0.1206
70143W        W13055   4.633  15.258   3.663 -0.0905 -0.2355  0.3106
70144W        W13056   5.726  12.558   6.020 -0.1950 -0.1776 -0.3840
70145W        W13057   5.760  13.325   6.648  0.0831 -0.0034 -0.0955
70146W        W13058   2.701  12.496   5.967 -0.0636  0.1227 -0.3673
70147W        W13059   4.601  14.871   6.219  0.2053  0.1359 -0.1434
70148W        W13060   7.718  14.151   5.788  0.1980  0.1770 -0.1210
70149W        W13061   5.868  10.778   5.707 -0.3932 -0.1124 -0.2198
70150W        W13062   4.225  13.124   5.358  0.0684 -0.2736  0.2478
70151W        W13063   3.798  15.100   5.445 -0.0324  0.3166  0.0059
70152W        W13064   6.442  12.309   5.740  0.0370 -0.1023 -0.0231
70153W        W13065   6.632  11.406   7.308  0.0958 -0.1186  0.0333
70154W        W13066   5.611  13.470   5.268  0.0710 -0.2683 -0.0096
70155W        W13067   8.103  11.274   6.911 -0.1828  0.1894 -0.1961
70156W        W13068   5.741  13.688   8.143  0.1026 -0.0833  0.1443
70157W        W13069   4.004  14.401   6.781 -0.2734  0.1505  0.1596
70158W        W13070   5.777  12.787   3.173 -0.1293  0.0873 -0.1017
70159W        W13071   5.755  11.580   6.671  0.0483  0.1012  0.0919
70160W        W13072   4.037  12.289   4.575 -0.5135 -0.2011 -0.1034
70161W        W13073   4.696  14.099   5.132  0.2642  0.2847  0.1266
70162W        W13074   8.799  13.850   6.514  0.6412  0.1853 -0.0092
70163W        W13075   5.242  12.545   6.124 -0.1768  0.0499 -0.2191
70164W        W13076   7.761  13.700   6.134 -0.0289 -0.0690 -0.1064
70165W        W13077   4.734  11.201   5.672  0.0587 -0.2727 -0.1274
70166W        W13078   5.872  11.783   4.851 -0.0738  0.2917 -0.0682
70167W        W13079   5.643  10.870   4.374 -0.0604  0.0732 -0.2060
70168W        W13080   3.278  12.952   6.554 -0.0521  0.1763  0.1197
70169W        W13081   2.097  13.765   2.032  0.0136 -0.1119  0.0271
70170W        W13082   3.747  12.272   3.258  0.1219  0.1909 -0.0797
70171W        W13083   3.350  13.602   6.138 -0.3232 -0.2724 -0.1096
70172W        W13084   4.281   9.825   7.329  0.0622  0.3600  0.0639
70173W        W13085   4.666  10.728   7.127  0.3921  0.2182  0.0178
70174W        W13086   3.654  12.758   5.594 -0.1372 -0.0615  0.2130
70175W        W13087   4.929  12.217   4.767  0.4400  0.1708 -0.0220
70176W        W13088   6.270  14.053   6.417 -0.0214 -0.3006  0.0594
70177W        W13089   4.417  12.287   5.160  0.1751  0.2001 -0.0892
70178W        W13090   3.090  10.218   5.341 -0.1385 -0.0156 -0.5131
70179W        W13091   6.267  13.475   6.702  0.0164 -0.0683 -0.0699
70180W        W13092   5.764  13.579   5.777 -0.0756  0.0040 -0.0643
70181W        W13093   3.903  12.492   5.949 -0.1854  0.0100 -0.2610
70182W        W13094   7.345  14.354   8.685 -0.2531 -0.1212  0.0284
70183W        W13095   3.691  13.247   5.267 -0.1985 -0.3636 -0.0517
70184W        W13096   5.398  11.811   6.984  0.0767  0.0771 -0.0961
70185W        W13097   5.410  12.279   7.148 -0.0133 -0.3721  0.0588
70186W        W13098   4.677  10.672   3.042  0.1443 -0.1756 -0.0359
70187W        W13099   6.120  11.952   5.962 -0.1916 -0.1596  0.2337
70188W        W13100   5.917  14.144   4.545  0.0797  0.2214  0.0294
70189W        W13101   5.500  12.854   5.316  0.1967  0.3313  0.2805
70190W        W13102   5.036  13.630   6.371  0.0814 -0.2224 -0.0357
70191W        W13103   5.430  13.555   7.570  0.0579  0.2150  0.1551
70192W        W13104   3.429  11.304   7.227  0.0059 -0.2458 -0.3204
70193W        W13105   5.355  13.484   7.078  0.1813 -0.0872 -0.1572
70194W        W13106   5.670  12.769   7.957 -0.2129 -0.0551  0.0399
70195W        W13107   7.238  13.042   5.683 -0.0524  0.0892 -0.1520
70196W        W13108   6.171  11.721   6.413  0.4441  0.3088 -0.4370
70197W        W13109   5.881  12.975   5.648 -0.0943 -0.2156 -0.2215
70198W        W13110   5.039  11.947   7.261 -0.1508 -0.0414  0.0314
70199W        W13111   4.258  13.646   7.184 -0.2372  0.0231 -0.1310
70200W        W13112   6.534  13.554   7.286 -0.2302  0.1865 -0.1393
70201W        W13113   3.354  11.414   5.410 -0.0225  0.0036 -0.0238
70202W        W13114   5.363  12.334   4.938  0.0138  0.0116  0.1711
70203W        W13115   5.823  13.950   5.266  0.2821 -0.0268  0.0424
70204W        W13116   3.438  13.686   4.927 -0.0141 -0.0543 -0.1465
70205W        W13117   4.769  10.977   4.706  0.1761 -0.1483  0.3441
70206W        W13118   4.568  13.358   6.856  0.0247  0.0581  0.1119
70207W        W13119   5.063  13.745   7.754  0.2973  0.0065 -0.3309
70208W        W13120   5.730  13.182   7.683 -0.1485  0.1017  0.0625
70209W        W13121   5.170  13.189   3.694 -0.0799 -0.0011 -0.3010
70210W        W13122   8.386  13.084   3.598 -0.0179  0.1392  0.3421
70211W        W13123   5.365  14.875   6.815  0.0132  0.1308 -0.2399
70212W        W13124   6.199  12.893   7.777 -0.2420 -0.0721 -0.0619
70213W        W13125   4.548  14.358   6.559 -0.2060  0.2190 -0.1697
70214W        W13126   6.183  13.381   7.638  0.1333  0.2942 -0.1886
70215W        W13127   3.200  11.599   6.490 -0.1681  0.1882 -0.0377
70216W        W13128   4.027  12.731   5.029  0.0251 -0.1537  0.0088
70217W        W13129   4.994  11.731   4.964  0.0544  0.3724 -0.4052
70218W        W13130   6.417  11.521   4.784  0.0845 -0.2957  0.2142
70219W        W13131   3.248  11.953   5.553 -0.0633  0.0881  0.0832
70220W        W13132   5.591  10.880   5.304  0.4997 -0.3307  0.1878
70221W        W13133   3.450  14.096   6.928  0.0527 -0.1776  0.1288
70222W        W13134   6.021  13.586   6.261  0.0622 -0.1610  0.0841
70223W        W13135   2.974  14.481   9.764 -0.0843  0.1038  0.4880
70224W        W13136   4.551  12.176   7.311  0.0566  0.2508 -0.0584
70225W        W13137   5.243  12.932   7.789 -0.1255  0.0100  0.2334
70226W        W13138   5.960  12.266   8.139  0.2234 -0.1790 -0.0184
70227W        W13139   3.745  12.377   7.648  0.1028  0.1650  0.0205
70228W        W13140   6.674  14.057   7.334 -0.3290 -0.2646 -0.0692
70229W        W13141   4.927  15.507   9.818 -0.1221 -0.3295 -0.1611
70230W        W13142  10.296  13.111   9.870  0.1859  0.2407  0.0773
70231W        W13143   6.331  12.703   8.717 -0.0964  0.0303  0.0908
70232W        W13144   0.608  12.610  10.333  0.2500  0.1208 -0.0215
70233W        W13145   5.364  11.493   7.359  0.1030 -0.1971  0.0306
70234W        W13146   4.087  11.518   9.822  0.1252  0.3014  0.3459
70235W        W13147   6.746  11.336   9.034  0.1169 -0.1010 -0.2045
70236W        W13148   3.304  11.992   7.420 -0.0151 -0.3771 -0.0704
70237W        W13149   3.271  12.512   9.178 -0.0532 -0.0500 -0.1042
70238W        W13150   4.053  11.417   7.803  0.2041 -0.0097  0.0897
70239W        W13151   5.757  15.656   8.805  0.1737 -0.3261 -0.0443
70240W        W13152   2.876  10.096  10.593 -0.2282  0.0577 -0.1549
70241W        W13153   4.486  13.192   7.447 -0.3420  0.0586  0.3041
70242W        W13154   4.151  11.219   7.044  0.3211 -0.0731 -0.2364
70243W        W13155   2.462  12.962   9.425  0.2950 -0.1441 -0.0367
70244W        W13156   5.578  11.586   9.120  0.2978 -0.3218  0.1018
70245W        W13157   4.628  12.224   9.514 -0.0997  0.1388  0.2295
70246W        W13158   6.209  12.258   9.444 -0.0108 -0.0496  0.3291
70247W        W13159   5.021  12.996   8.196 -0.0415  0.0825 -0.2130
70248W        W13160   5.599  12.817   8.779  0.0860  0.0566 -0.0685
70249W        W13161   2.370  12.506   8.525  0.0646  0.0806 -0.0137
70250W        W13162   2.707  14.106   9.471 -0.2612 -0.1260  0.0073
70251W        W13163   4.406  13.322   9.742 -0.1306  0.4889 -0.0976
70252W        W13164   7.924  12.903   8.832  0.1355 -0.1397  0.0541
70253W        W13165   3.629  13.342   6.652  0.1086  0.0005  0.2443
70254W        W13166   4.847  15.084   9.458 -0.0529  0.0522 -0.4156
70255W        W13167   3.622  10.886  10.315  0.0141  0.0578  0.0181
70256W        W13168   4.189  13.386   7.995 -0.0590 -0.1026  0.1605
70257W        W13169   5.700  12.424   9.158  0.1749 -0.0768 -0.1538
70258W        W13170   2.867  13.251   9.520 -0.3460 -0.0994 -0.2875
70259W        W13171   2.879  13.132   6.865  0.0538 -0.3465 -0.2131
70260W        W13172   6.499  11.806   8.168  0.5655  0.2576  0.0818
70261W        W13173   5.103  11.190   5.997  0.2178  0.4076  0.0160
70262W        W13174   6.369  11.443   8.674 -0.1705 -0.2665 -0.1489
70263W        W13175   5.644  10.873   9.033 -0.2629 -0.1012  0.2077
70264W        W13176   3.969  15.418   8.525  0.0276  0.1064 -0.3414
70265W        W13177   3.902  10.466   9.913 -0.0683  0.0742  0.3862
70266W        W13178   4.553  11.424   7.953 -0.1072 -0.3686  0.0527
70267W        W13179   7.159  12.572   8.926 -0.1881 -0.1310 -0.1911
70268W        W13180   2.397  14.421   9.682  0.0530  0.1055 -0.2858
70269W        W13181   2.085  12.215   8.843  0.3048  0.1025 -0.0395
70270W        W13182   6.213  14.193   7.656 -0.3411 -0.3733 -0.0245
70271W        W13183   7.054  14.897   8.696  0.1188 -0.1451 -0.2997
70272W        W13184   3.898  12.924   8.801  0.3030 -0.1154  0.2547
70273W        W13185   3.973  12.181   8.430  0.1580 -0.2421 -0.0830
70274W        W13186   4.901  12.043   6.273 -0.0324 -0.0185  0.1972
70275W        W13187   6.759  11.113   8.578  0.1384 -0.1142 -0.0615
70276W        W13188   4.692  13.021   8.981 -0.1566 -0.0865  0.2748
70277W        W13189   7.844  14.244   9.370  0.5317  0.2607  0.2489
70278W        W13190   5.890  14.357   6.895  0.0944 -0.0891  0.0161
70279W        W13191   6.298   9.960   9.371  0.0878 -0.0860 -0.1077
70280W        W13192   6.479  10.479   9.340  0.1332 -0.1604  0.0271
70281W        W13193   4.477  13.957   6.902 -0.0691 -0.0743  0.2144
70282W        W13194   6.485  11.972   8.876 -0.1844 -0.0749 -0.0672
70283W        W13195   7.569  15.105   9.525 -0.0936  0.2694 -0.3208
70284W        W13196   7.243  12.386   7.829 -0.0818  0.0751  0.2807
70285W        W13197   3.972  14.326   9.747 -0.1199 -0.1081 -0.1378
70286W        W13198   3.133  13.837   7.253 -0.1971  0.0690 -0.2716
70287W        W13199   2.274  12.442   9.741  0.0169 -0.1233 -0.1372
70288W        W13200   4.850  13.535   7.290  0.0754  0.0836 -0.0639
70289W        W13201   3.157  11.004   9.585 -0.0806  0.3303  0.0017
70290W        W13202   2.299  12.181   9.325  0.2101 -0.0992 -0.2989
70291W        W13203   7.588  11.589   7.459 -0.2405 -0.1959 -0.1085
70292W        W13204   5.055  10.888   8.918  0.0106 -0.3116  0.1548
70293W        W13205   4.162  12.962   7.767 -0.0679 -0.1388 -0.2015
70294W        W13206   6.883  13.997   8.052 -0.0295  0.4137 -0.1200
70295W        W13207   7.130  11.402   8.284 -0.1959  0.1219  0.2315
70296W        W13208   6.836  12.427   8.056 -0.3596 -0.0254  0.1042
70297W        W13209   5.833  12.446   9.712  0.0286 -0.1909  0.0152
70298W        W13210   3.132  12.858   7.690  0.2883  0.0891 -0.0171
70299W        W13211   4.308  10.991   7.857 -0.0142 -0.0440 -0.1627
70300W        W13212   4.112  10.742   8.797 -0.2545  0.1505 -0.1846
70301W        W13213   5.275  12.163   9.772  0.1185  0.0580 -0.3736
70302W        W13214   4.370  12.725   8.758  0.1188  0.0034 -0.2032
70303W        W13215   3.211  13.465   8.925 -0.2461  0.3075 -0.0587
70304W        W13216   4.177  14.422   9.016  0.0627 -0.2628 -0.1277
70305W        W13217   6.726  14.403   9.522 -0.0295 -0.2746 -0.0402
70306W        W13218   5.267  13.918   8.249 -0.3700 -0.1986 -0.1353
70307W        W13219   4.564  11.847   9.002  0.1165 -0.3926 -0.0313
70308W        W13220   3.707  11.777   8.617  0.3264 -0.1870 -0.3903
70309W        W13221   4.707  14.583   8.804  0.3400 -0.0872  0.2451
70310W        W13222   4.128  13.022   8.330 -0.4493  0.0208  0.2873
70311W        W13223   4.259  10.717   7.436 -0.0685  0.1460  0.2487
70312W        W13224   6.007  13.153   8.759 -0.1202 -0.0323  0.1182
70313W        W13225   5.096  11.568   8.087 -0.1480  0.2161 -0.2648
70314W        W13226   6.494  13.411   8.787  0.0009 -0.2885 -0.2169
70315W        W13227   4.326  10.337  10.270  0.0472 -0.3023  0.2188
70316W        W13228   3.560  11.469   8.261 -0.1564  0.0270 -0.0647
70317W        W13229   5.015  13.482   8.317 -0.0380 -0.3340  0.0564
70318W        W13230   2.828  13.735   8.879 -0.0054  0.0097  0.0815
70319W        W13231   2.897  12.109   7.064 -0.0173  0.0129  0.0021
70320W        W13232   4.100  14.429   8.145 -0.0042 -0.0896 -0.2475
70321W        W13233   7.441  11.240  10.087 -0.3466 -0.3091 -0.1177
70322W        W13234   4.329  12.698   6.821  0.1826 -0.3904  0.0233
70323W        W13235   5.108  10.202   9.464 -0.1172  0.0554  0.0080
70324W        W13236   5.406  11.830   7.698 -0.2387  0.1620  0.0950
70325W        W13237   7.368  12.859   8.566 -0.2830  0.0954  0.2014
70326W        W13238   5.960  12.498   7.157  0.3955  0.2194  0.0146
70327W        W13239   5.816  11.592   7.170 -0.0665  0.1227  0.1300
70328W        W13240   7.848  14.726   8.105 -0.1939  0.0672 -0.0980
70329W        W13241   3.703  13.389   8.894  0.2766 -0.2127  0.1139
70330W        W13242   5.936  12.497   7.625  0.0227  0.3025 -0.0134
70331W        W13243   6.785  15.358   9.394  0.2872  0.3014 -0.1566
70332W        W13244   2.817  11.894   9.549  0.2021  0.1361 -0.2193
70333W        W13245   5.848  12.966   9.761  0.1045  0.0937 -0.1186
70334W        W13246   4.182  11.273   9.244 -0.1031 -0.1359  0.1958
70335W        W13247   4.477  12.465   7.800 -0.0017  0.0649  0.1237
70336W        W13248   6.325  10.965   8.955  0.2519 -0.1215  0.1061
70337W        W13249   2.721  13.135   7.685  0.4923  0.2540  0.1953
70338W        W13250   7.050  11.870   9.516 -0.0363 -0.0368 -0.1071
70339W        W13251   4.995  11.536   8.928  0.0622 -0.0650 -0.0049
70340W        W13252   6.937  12.153   8.734 -0.0828  0.0174  0.0141
70341W        W13253   5.820  11.468   8.663  0.1295 -0.4276  0.2435
70342W        W13254   4.712  12.924   7.088 -0.2049 -0.1064  0.2335
70343W        W13255   6.438  11.775   9.310  0.1192 -0.1038 -0.2759
70344W        W13256   2.415  13.753   8.566  0.0607  0.0862  0.0648
70345W        W13257   7.210  11.209   8.829  0.0946 -0.0725  0.1475
70346W        W13258   4.358  11.993   8.547  0.1630  0.4263 -0.1426
70347W        W13259   3.326  15.081   8.050 -0.0728  0.0197 -0.3095
70348W        W13260   3.037  12.553   6.811  0.0230  0.0628  0.0669
70349W        W13261   5.268  10.807   7.616 -0.1502  0.2696 -0.2145
70350W        W13262   4.780  13.506   8.819  0.0770 -0.1502  0.0189
70351W        W13263   5.936  13.205   8.223  0.0146  0.1284  0.2166
70352W        W13264   5.287  11.994   8.961 -0.0707 -0.0428 -0.1490
70353W        W13265   4.410  12.388   8.292  0.1387 -0.0435  0.0610
70354W        W13266   6.457  10.837   7.782  0.2138 -0.1219 -0.2029
70355W        W13267   3.002  15.357   9.082 -0.1048  0.0845 -0.2035
70356W        W13268   3.988  12.386   6.574 -0.3963  0.1474 -0.0178
70357W        W13269   3.020  11.300   7.592 -0.2489  0.3130 -0.1813
70358W        W13270   7.383  10.547   8.188  0.0978  0.1816  0.1255
70359W        W13271   6.828  12.833   6.508  0.1046  0.1217 -0.2005
70360W        W13272   4.995   9.449   9.862  0.2569 -0.0287  0.1732
70361W        W13273   5.288  11.138   9.892  0.1250  0.4636  0.1246
70362W        W13274   1.964  12.905   9.535  0.0289 -0.0253  0.3218
70363W        W13275   6.909  10.617   9.602 -0.1612  0.2349  0.0495
70364W        W13276   4.025  10.248   7.498 -0.1561  0.0996  0.0088
70365W        W13277   5.093  11.854   9.393 -0.2230  0.0847 -0.1199
70366W        W13278   4.290  12.695   7.399  0.0112  0.2477 -0.0605
70367W        W13279   4.593  13.146   8.512 -0.2796 -0.1407 -0.0038
70368W        W13280   6.166  14.377   9.487  0.1980  0.1611 -0.3205
70369W        W13281   4.023  12.064   7.334 -0.0715 -0.3377 -0.2852
70370W        W13282   5.625  12.397  10.309  0.1111 -0.4245 -0.0423
70371W        W13283   6.852  13.398   9.248 -0.3343 -0.0238  0.0361
70372W        W13284   3.786  10.207  10.337 -0.2634 -0.0529 -0.1706
70373W        W13285   3.910  12.594   8.076  0.0257  0.0647 -0.1743
70374W        W13286   4.079  12.524   9.540  0.1068 -0.1322  0.2139
70375W        W13287   5.765  14.003   8.663  0.3843 -0.2325 -0.0511
70376W        W13288   6.803  11.707   8.573 -0.1142  0.1155  0.0938
70377W        W13289   4.355  10.270   9.684  0.3367  0.1937 -0.0662
70378W        W13290   7.354  14.343   8.154 -0.2185  0.0419  0.0557
70379W        W13291   5.029  12.506   7.424  0.0704  0.1170  0.0631
70380W        W13292   2.621  10.999   9.305  0.0736  0.0338  0.1516
70381W        W13293   4.545  12.823   8.159  0.0690  0.0399  0.1169
70382W        W13294   6.749  11.437   9.539  0.0197  0.0230 -0.2599
70383W        W13295   2.347  11.786   8.886  0.1931 -0.0160 -0.0644
70384W        W13296   4.499  13.672   7.677  0.2589 -0.2653 -0.2183
70385W        W13297   1.736  13.422   9.494  0.2611  0.2542  0.1370
70386W        W13298   6.788  10.342   8.584 -0.0402 -0.1419  0.0888
70387W        W13299   5.131  13.260   6.713  0.1376  0.1545 -0.0902
70388W        W13300   6.971  11.055   9.822  0.2573  0.1895  0.1262
70389W        W13301   6.349  12.324   7.833 -0.1612  0.1985  0.1828
70390W        W13302   5.020   9.945  10.340 -0.0185 -0.0713 -0.0364
70391W        W13303   6.539  12.470   9.072  0.2331  0.0272 -0.0209
70392W        W13304   4.582  11.919   8.122 -0.1739 -0.1505  0.0419
70393W        W13305   4.617  10.841   9.355  0.1090  0.0077  0.0489
70394W        W13306   3.755  13.171   8.012  0.0636 -0.0896 -0.2414
70395W        W13307   5.986  11.951   9.063  0.0345 -0.1671  0.4302
70396W        W13308   4.730  11.533   9.389  0.1668 -0.3617 -0.0860
70397W        W13309   8.333  10.638   8.303  0.0118 -0.1110 -0.1193
70398W        W13310   3.383  14.236   9.938  0.1783  0.2232 -0.0952
70399W        W13311   5.402  12.697   9.671 -0.2374  0.2761  0.0516
70400W        W13312   5.378  12.634   8.325 -0.1535  0.0294  0.0434
70401W        W13313   5.352  13.357   8.005 -0.3884 -0.2619 -0.0170
70402W        W13314   7.324  13.944   8.446 -0.1282 -0.1436 -0.4470
70403W        W13315   5.835  10.460   8.322 -0.1094  0.1400  0.0664
70404W        W13316   5.461  14.035   9.276  0.2956 -0.2308 -0.1934
70405W        W13317   7.637  12.627   8.148  0.2124 -0.1158  0.2091
70406W        W13318   6.312  10.343   8.426  0.0559 -0.1838 -0.1917
70407W        W13319   8.011  11.057   8.345 -0.0687  0.0181  0.0301
70408W        W13320   5.651  12.482   6.759  0.1051 -0.0024 -0.1977
70409W        W13321   4.149  11.456   8.776  0.1190  0.1569  0.2982
70410W        W13322   5.006  11.225   8.519  0.1597 -0.1305  0.0105
70411W        W13323   4.944  14.912   8.383 -0.1107 -0.1885 -0.0943
70412W        W13324   5.174  12.049   8.114  0.2318 -0.0403  0.0687
70413W        W13325   4.877  11.542   7.589 -0.2628 -0.0795 -0.1248
70414W        W13326   3.883  10.355   9.021  0.1684 -0.0776  0.0150
70415W        W13327   4.449  11.889   6.471  0.5409  0.1010 -0.1445
70416W        W13328   6.511  12.666   7.438  0.0248 -0.3232  0.1955
70417W        W13329   7.396  11.455   9.604 -0.0623 -0.0450 -0.2090
70418W        W13330   5.997  11.238   6.376 -0.3105 -0.1059 -0.1183
70419W        W13331   3.150  12.735   8.653 -0.4150 -0.0796  0.0482
70420W        W13332   4.594  10.708   8.828  0.0846  0.0020  0.0817
70421W        W13333   4.671  13.747   8.133 -0.0566 -0.0042 -0.1442
70422W        W13334   3.859  11.848  10.146  0.4329 -0.1506 -0.0304
70423W        W13335   2.936  13.981   9.896  0.0192 -0.0671  0.0600
70424W        W13336   5.111  12.328  10.394  0.0727  0.0903  0.2433
70425W        W13337   4.762  12.979  10.004 -0.0597 -0.0766  0.1453
70426W        W13338   2.855  10.633  10.190 -0.3595  0.3745  0.1412
70427W        W13339   7.790  13.627   7.737  0.1106  0.2187  0.2252
70428W        W13340   5.085  12.844   9.256 -0.2226 -0.3746  0.0246
70429W        W13341   4.770  12.130   9.993  0.1464  0.0716  0.2604
70430W        W13342   4.651  11.587   8.577 -0.2653 -0.1486 -0.1044
70431W        W13343   6.675  13.718   8.408  0.1287  0.3855  0.2615
70432W        W13344   2.336  11.639   9.481  0.1634 -0.3392  0.0959
70433W        W13345   3.435  12.788   8.112  0.0040  0.0427 -0.1308
70434W        W13346   7.106  13.887   7.183  0.0187 -0.0467  0.0816
70435W        W13347   5.212  12.365   9.313 -0.1715  0.0668  0.0894
70436W        W13348   5.466  17.628  12.585  0.0041 -0.2927  0.0292
70437W        W13349   4.393  11.754   7.638 -0.1398 -0.1843 -0.0878
70438W        W13350   4.450  14.125   7.836  0.0231 -0.1224  0.0657
70439W        W13351   2.373  12.421   7.974 -0.0486 -0.0514 -0.1392
70440W        W13352   6.013  12.320   8.703 -0.1104  0.1001 -0.2063
70441W        W13353   3.627  12.787   9.492  0.5138 -0.2451  0.2583
70442W        W13354   6.361  11.435   7.789  0.0384 -0.1227 -0.4025
70443W        W13355   7.258  13.134   6.579  0.0797 -0.1172 -0.3091
70444W        W13356   7.403  10.757   8.993  0.2622 -0.0921 -0.0606
70445W        W13357   2.765  12.406   9.408  0.1065 -0.0084 -0.2252
70446W        W13358   5.831  11.123   6.925 -0.4143 -0.0368 -0.3276
70447W        W13359   6.538  14.543   8.596  0.0178 -0.2383 -0.2175
70448W        W13360   3.845  11.050   7.511 -0.3736 -0.0377 -0.5193
70449W        W13361   4.355  12.371   9.123 -0.2255 -0.2715  0.0136
70450W        W13362   6.852   9.416  10.113 -0.4258 -0.0869 -0.3119
70451W        W13363   5.490  13.123   8.398  0.2140 -0.1022 -0.1384
70452W        W13364   3.729  11.850   9.614  0.0283  0.1624 -0.0860
70453W        W13365   4.205  13.302   8.873  0.1191 -0.3150  0.1460
70454W        W13366   4.907  13.243   9.361  0.0265 -0.0152  0.2570
70455W        W13367   4.605  12.771   9.394 -0.0168 -0.0385 -0.1027
70456W        W13368   3.414  10.949   8.421 -0.0245  0.0035  0.1075
70457W        W13369   7.518  10.835   9.706 -0.1315  0.2871 -0.0562
70458W        W13370   4.898  11.628   9.883  0.0961  0.1352 -0.0569
70459W        W13371   3.148  12.253   8.819  0.2030  0.0023 -0.0050
70460W        W13372   6.071  10.752   9.338 -0.0454  0.1499  0.0918
70461W        W13373   3.589  14.048   8.440  0.0488 -0.3499 -0.2203
70462W        W13374   3.616  11.440  10.046  0.1177 -0.0261  0.0784
70463W        W13375   5.799  12.048   7.407 -0.2597 -0.0630 -0.1970
70464W        W13376   5.497  12.700   7.414  0.0865  0.0049 -0.1262
70465W        W13377   3.175  11.217   8.048 -0.3802  0.2714 -0.2584
70466W        W13378   5.705  11.051   7.387 -0.1016 -0.1231  0.2072
70467W        W13379   2.747  12.072   8.521  0.0692 -0.0645 -0.1317
70468W        W13380   4.093  11.993   8.916 -0.2431  0.1720 -0.0677
70469W        W13381   3.679  11.253   8.697 -0.1107  0.3220 -0.0315
70470W        W13382   7.014  12.788   7.493 -0.3103  0.1939  0.2805
70471W        W13383   6.140  11.165   9.597 -0.6357 -0.0339  0.0149
70472W        W13384   4.692  14.016   7.354  0.1967  0.1851 -0.1422
70473W        W13385   7.561  11.575   9.006  0.0000  0.1577  0.3978
70474W        W13386   6.100  11.443   9.135 -0.1754  0.1200  0.2073
70475W        W13387   1.799  10.080   9.254 -0.2274  0.0141  0.1204
70476W        W13388   7.058  13.540   8.132 -0.1466  0.0292  0.0483
70477W        W13389  10.061  13.162   9.361  0.1502 -0.3319  0.0246
70478W        W13390   4.817  12.202   8.607  0.1715  0.0950 -0.2448
70479W        W13391   4.266  12.787  10.080 -0.2870  0.0376  0.4001
70480W        W13392   2.587  13.494   8.104  0.0986  0.1636  0.1415
70481W        W13393   4.811  11.118   9.702 -0.0122  0.1159  0.0308
70482W        W13394   4.830  14.784   6.707 -0.0163  0.1032 -0.0747
70483W        W13395   3.591  12.093   8.981 -0.3073 -0.2432 -0.0658
70484W        W13396   5.192  13.936   7.295 -0.2139 -0.0513  0.1892
70485W        W13397   4.214  11.941   9.397 -0.0270  0.1147 -0.0525
70486W        W13398   4.760  15.882   8.909  0.1385 -0.1641  0.0838
70487W        W13399   4.875  12.564   9.784 -0.0184  0.0728 -0.2630
70488W        W13400   4.499  11.249   7.458 -0.1172  0.3841 -0.0812
70489W        W13401   5.900  11.989   9.933 -0.1131 -0.0356  0.1323
70490W        W13402   4.476  11.144   8.354 -0.0298  0.1863 -0.5179
70491W        W13403   7.395   9.913   9.092 -0.0011  0.1146  0.2321
70492W        W13404   5.674  11.644   8.115 -0.1296  0.3395 -0.2972
70493W        W13405   3.709  13.225   9.750  0.1033  0.0466 -0.4242
70494W        W13406   2.214  12.036   8.286 -0.1137  0.0486 -0.0677
70495W        W13407   4.951  12.510   8.077  0.0080  0.1968 -0.1395
70496W        W13408   4.299  12.194  10.105 -0.0278  0.1382  0.1583
70497W        W13409   2.393  12.894   8.905  0.0294  0.0958 -0.1362
70498W        W13410   4.951  11.070   8.016  0.1695  0.2392  0.0149
70499W        W13411   7.914  12.975   8.349 -0.2316 -0.2955 -0.2741
70500W        W13412   4.627  11.201   8.947  0.3209 -0.1975 -0.1645
70501W        W13413   3.589  10.992   7.961  0.3173  0.0927 -0.3741
70502W        W13414   6.438  14.317   9.923 -0.0867 -0.1823 -0.1205
70503W        W13415   6.422  14.042   8.700  0.0754  0.0489  0.0275
70504W        W13416   4.123  11.596   8.261  0.2392 -0.0671 -0.2214
70505W        W13417   4.030  13.030   7.110  0.0983  0.1992  0.1340
70506W        W13418   3.662  10.092   8.023 -0.0432 -0.0277  0.1980
70507W        W13419   5.477  11.598   9.630 -0.1487  0.2508 -0.2372
70508W        W13420   6.116  13.626   8.474  0.0399  0.1417  0.3423
70509W        W13421   4.857  12.722   8.584  0.0493  0.0663  0.2652
70510W        W13422   3.291  10.671   9.961  0.0028  0.3399  0.1079
70511W        W13423   7.063  11.021   9.310  0.0381 -0.0166 -0.2347
70512W        W13424   7.973  12.823   9.450  0.0181  0.2310 -0.2486
70513W        W13425   6.588  10.997   9.393 -0.0198 -0.0954  0.0333
70514W        W13426   6.271  11.660  10.029 -0.0995  0.1909  0.0976
70515W        W13427   5.066  13.134   8.694  0.1741 -0.1483 -0.0944
70516W        W13428   5.397  10.398   9.882  0.0736 -0.1061  0.1345
70517W        W13429   5.814  11.497   7.685  0.0524  0.2281 -0.0656
70518W        W13430   5.918  13.803   7.692 -0.1079 -0.0042 -0.1120
70519W        W13431   3.229  11.977   9.306  0.0967 -0.1973  0.3078
70520W        W13432   5.673  12.027   9.427 -0.1585  0.3959  0.0689
70521W        W13433   5.876  11.342  10.010  0.1385  0.0589  0.0297
70522W        W13434   6.453  13.117   6.974 -0.2317 -0.1676  0.0792
70523W        W13435   8.223  11.431   7.855  0.5198 -0.0067  0.0916
70524W        W13436   5.992  13.929   9.426  0.1187  0.1082 -0.3011
70525W        W13437   5.455  13.574   8.615  0.0619 -0.0693 -0.3210
70526W        W13438   4.334  13.652   8.581  0.1925 -0.0623  0.0742
70527W        W13439   2.266  10.288  10.531  0.0252 -0.1756 -0.1538
70528W        W13440   5.885  12.684   8.437 -0.0283 -0.0821  0.0301
70529W        W13441   4.118  12.075   7.957 -0.0460 -0.0069 -0.0711
70530W        W13442   4.806  12.443   9.029 -0.0209 -0.1796  0.2166
70531W        W13443   3.638  12.297   9.464 -0.1864  0.0393  0.4273
70532W        W13444   6.239  10.841   6.136 -0.0946 -0.2281 -0.5690
70533W        W13445   3.643  13.809   9.262  0.1323 -0.1261  0.0730
70534W        W13446   3.289  11.802   9.930 -0.1138  0.0193  0.0369
70535W        W13447   4.302  16.756   2.838 -0.2883 -0.0813 -0.2289
70536W        W13448   3.825  16.606   0.478 -0.0478  0.1182  0.0772
70537W        W13449   8.698  15.539  31.932  0.0237  0.6009 -0.1894
70538W        W13450   7.939  15.460   0.690  0.0521  0.0488  0.0751
70539W        W13451   3.868  15.922   1.488 -0.4869 -0.0629 -0.1746
70540W        W13452   6.510  17.777   0.406  0.1261  0.0371 -0.0912
70541W        W13453   5.179  14.697   2.786  0.1600  0.0460  0.2709
70542W        W13454   6.183  18.344   2.633  0.0214  0.2081  0.2379
70543W        W13455   6.300  17.215   2.440  0.0305  0.1714  0.4031
70544W        W13456   6.380  17.799  31.050  0.2474 -0.0859 -0.2945
70545W        W13457   6.325  14.857   2.783  0.3173  0.1094  0.2126
70546W        W13458   5.883  17.981   2.887  0.0041  0.0721 -0.3040
70547W        W13459   5.179  14.684   0.257 -0.0421  0.1636  0.2410
70548W        W13460   4.435  14.418   2.186 -0.3079  0.1582  0.1733
70549W        W13461   6.664  16.678   2.374  0.0461 -0.4164  0.1209
70550W        W13462   3.761  17.439   1.969  0.4058  0.0243 -0.2435
70551W        W13463   5.580  16.276   2.291  0.1219  0.4868 -0.0905
70552W        W13464   4.877  15.017   0.032  0.1151  0.1276 -0.0172
70553W        W13465   6.249  18.828   1.219 -0.1478 -0.0137 -0.5488
70554W        W13466   5.596  15.081   1.935  0.0811  0.0521  0.1408
70555W        W13467   5.407  14.125   4.432 -0.0674 -0.1801 -0.0046
70556W        W13468   5.618  18.107   1.864 -0.0318 -0.0812  0.0623
70557W        W13469   4.523  15.257  30.679  0.0369 -0.1919 -0.0277
70558W        W13470   6.044  16.502   1.161  0.3863  0.0249 -0.1486
70559W        W13471   4.708  16.594   2.546 -0.0605 -0.2671  0.2031
70560W        W13472   6.878  14.501   1.399 -0.4844 -0.2435 -0.0295
70561W        W13473   6.390  16.299   1.436 -0.0147 -0.2186 -0.0950
70562W        W13474   5.210  17.109   3.672  0.1211  0.0458 -0.0756
70563W        W13475   6.803  17.435   1.628 -0.2524  0.2099 -0.0430
70564W        W13476   6.499  15.509   4.642  0.3134 -0.3055 -0.2739
70565W        W13477   4.067  16.235   2.517  0.1254 -0.1013 -0.0362
70566W        W13478   2.493  17.696   1.371  0.0580  0.0048  0.1672
70567W        W13479   5.503  16.976   2.093  0.1371  0.0185 -0.2433
70568W        W13480   6.365  16.927   0.723 -0.1617  0.1967  0.1293
70569W        W13481   6.307  18.309   3.101 -0.1572 -0.3987  0.2672
70570W        W13482   5.402  18.845   2.382 -0.1950 -0.1133  0.1379
70571W        W13483   3.672  16.997   1.666  0.1894 -0.0505  0.1102
70572W        W13484   5.943  17.144   1.923 -0.3868 -0.1177 -0.1741
70573W        W13485   3.793  18.787   3.583 -0.1225  0.2799  0.2047
70574W        W13486   6.788  16.080   2.068  0.0756  0.1800 -0.2979
70575W        W13487   3.922  14.552  31.459 -0.2082  0.1557  0.0021
70576W        W13488   4.447  17.616   0.766 -0.0165 -0.4550  0.0791
70577W        W13489   5.694  16.964   3.564  0.2835  0.2291 -0.1499
70578W        W13490   4.182  18.470   3.592  0.0458 -0.0113  0.0185
70579W        W13491   3.301  16.633   1.737  0.2473  0.1931 -0.1121
70580W        W13492   7.080  16.338   3.194 -0.0751 -0.0784  0.0243
70581W        W13493   4.387  17.279   1.160  0.2298 -0.0562  0.1238
70582W        W13494   4.991  15.217   0.523 -0.3520  0.2607 -0.0590
70583W        W13495   5.008  16.443   0.811  0.1650  0.0377 -0.1664
70584W        W13496   7.545  13.708  31.040 -0.2214  0.2502 -0.0017
70585W        W13497   4.721  14.026   2.078 -0.1380 -0.2732  0.1866
70586W        W13498   4.279  18.116   2.367 -0.3455  0.0896  0.1879
70587W        W13499   4.310  13.815   2.934 -0.1821 -0.1363 -0.3492
70588W        W13500   5.962  17.492   2.858  0.0819  0.1427  0.0897
70589W        W13501   4.018  15.519  31.498 -0.1558  0.0195  0.4293
70590W        W13502   6.396  15.728   2.038  0.0872 -0.1054 -0.3720
70591W        W13503   3.235  18.628   2.139 -0.1339 -0.0743  0.0282
70592W        W13504   4.303  15.911   3.134 -0.0035  0.1985 -0.0520
70593W        W13505   9.262  17.220  31.891 -0.1047  0.2069 -0.4555
70594W        W13506   8.139  18.199   1.118  0.0140  0.0663  0.0126
70595W        W13507   6.258  17.492   0.895 -0.2364 -0.0421  0.2114
70596W        W13508   4.999  17.374   1.433  0.2768  0.1732  0.2024
70597W        W13509   3.290  18.452   1.498 -0.0454 -0.0405  0.0028
70598W        W13510   3.545  16.108   1.825 -0.3486 -0.2599  0.1526
70599W        W13511   3.256  14.334   0.520 -0.2426 -0.0350 -0.2815
70600W        W13512   5.398  16.574   3.614 -0.1428 -0.2871 -0.1920
70601W        W13513   2.301  17.713   2.634 -0.0232 -0.3383 -0.1085
70602W        W13514   7.799  16.415   0.679 -0.1589 -0.3515 -0.3666
70603W        W13515   4.254  16.652   2.330  0.0133  0.2213  0.2195
70604W        W13516   5.381  16.819   3.169  0.2696 -0.0416  0.0991
70605W        W13517   6.360  17.456  31.454 -0.3286 -0.1910 -0.0688
70606W        W13518   5.903  15.558   1.058 -0.0317 -0.2352  0.0489
70607W        W13519   6.075  14.341   2.162 -0.0357  0.1654 -0.1264
70608W        W13520   5.215  16.503   0.172  0.2375  0.2084  0.0109
70609W        W13521   4.892  17.254   0.951  0.1552 -0.0695  0.3305
70610W        W13522   7.129  18.330   3.384 -0.1592  0.1581  0.0384
70611W        W13523   6.343  16.399  30.875  0.3121 -0.1834  0.0742
70612W        W13524   5.331  17.445   2.121  0.1905  0.0869 -0.0376
70613W        W13525   6.277  14.896   3.280 -0.1340 -0.1682  0.1856
70614W        W13526   6.928  16.911   3.853 -0.2821 -0.1339 -0.0771
70615W        W13527   2.516  18.973  30.793 -0.1575 -0.3189 -0.0750
70616W        W13528   3.418  15.821   1.220  0.2593  0.0841 -0.0622
70617W        W13529   5.137  16.855   2.459  0.0550 -0.0770  0.2363
70618W        W13530   3.010  14.485   2.742  0.1233 -0.0793  0.2605
70619W        W13531   4.576  16.180   2.307 -0.0431 -0.2876  0.0493
70620W        W13532   7.619  15.816   0.309  0.1283 -0.0372 -0.3950
70621W        W13533   4.172  15.000   2.172  0.3893  0.1616  0.0780
70622W        W13534   7.817  14.989   0.732 -0.0485  0.1975  0.2701
70623W        W13535   3.336  16.973   1.275  0.1817 -0.4406  0.1609
70624W        W13536   7.107  17.547   0.500  0.1095  0.0108 -0.0164
70625W        W13537   5.518  15.285   0.618  0.0755 -0.2070 -0.0938
70626W        W13538   5.743  16.840  31.726  0.1084  0.1323  0.0892
70627W        W13539   3.179  16.292   2.101 -0.1198  0.4308 -0.1857
70628W        W13540   3.732  15.778   0.831  0.0622  0.2600  0.0877
70629W        W13541   5.451  16.149   3.274  0.1256  0.2720 -0.1262
70630W        W13542   5.481  14.180   1.169  0.1187  0.1769 -0.0020
70631W        W13543   6.734  15.711   2.497  0.0937 -0.0558 -0.3076
70632W        W13544   4.639  16.048   0.177  0.1443 -0.3342  0.0718
70633W        W13545   4.676  15.638   0.452 -0.1449  0.1647 -0.0100
70634W        W13546   4.591  17.146   1.697 -0.1064 -0.1289 -0.0330
70635W        W13547   2.214  18.165   0.684  0.1091 -0.0700 -0.1501
70636W        W13548   6.275  15.495   2.534  0.5841  0.0984 -0.1229
70637W        W13549   5.535  18.172   1.080 -0.0130 -0.0980 -0.2637
70638W        W13550   6.718  17.619   2.108 -0.0490  0.1365  0.0607
70639W        W13551   7.174  18.424   0.976 -0.2735  0.1119  0.0783
70640W        W13552   4.448  15.339   1.892 -0.0566  0.1071 -0.0146
70641W        W13553   4.390  16.417   0.630 -0.0445 -0.2392 -0.3301
70642W        W13554   3.352  17.899   1.429 -0.1126  0.2971  0.2122
70643W        W13555   5.015  17.104   1.973 -0.0611 -0.1658 -0.1497
70644W        W13556   5.471  15.629   0.268  0.0017 -0.0547  0.1166
70645W        W13557   7.775  17.281   2.111 -0.2100 -0.0106  0.0551
70646W        W13558   5.619  16.676   1.387 -0.1182 -0.1717  0.0552
70647W        W13559   4.042  17.647   2.367  0.0012 -0.2537  0.1033
70648W        W13560   5.606  14.596   1.991 -0.1876 -0.0717 -0.1502
70649W        W13561   7.252  16.092   1.695 -0.2340 -0.0683  0.1135
70650W        W13562   5.342  16.573   1.834  0.0074  0.1060  0.1420
70651W        W13563   3.459  16.231   0.630  0.1468  0.0618 -0.2303
70652W        W13564   5.707  18.125   0.627 -0.0222  0.3036  0.1181
70653W        W13565   5.827  17.612   1.864  0.0021  0.3189 -0.0951
70654W        W13566   2.978  15.418   0.584 -0.1866 -0.0362 -0.0692
70655W        W13567   5.835  17.305   1.311  0.2153 -0.0139  0.1653
70656W        W13568   7.420  15.215   0.918 -0.0498  0.0931 -0.1516
70657W        W13569   4.087  15.778   2.692  0.1819  0.0667 -0.0876
70658W        W13570   6.569  15.429   3.509  0.3848 -0.1592 -0.1691
70659W        W13571   4.199  15.822   1.000  0.1210 -0.1047 -0.2623
70660W        W13572   5.446  17.856   2.310  0.1134  0.0360 -0.2628
70661W        W13573   5.277  13.711   1.293  0.1695 -0.0239 -0.1795
70662W        W13574   7.917  15.314  31.406 -0.2024  0.4426 -0.1548
70663W        W13575   7.183  16.572   4.178  0.0715 -0.2919  0.0184
70664W        W13576   8.403  15.231   0.359  0.1413  0.1083 -0.2514
70665W        W13577   8.251  15.297  31.838  0.0715  0.1435 -0.0408
70666W        W13578   7.663  14.713   0.131  0.0800 -0.1397  0.3226
70667W        W13579   3.864  17.585   2.854 -0.1053 -0.0744 -0.0698
70668W        W13580   5.592  15.802   1.365  0.1788 -0.1239  0.0603
70669W        W13581   6.152  16.866   1.564 -0.1160  0.0463  0.0873
70670W        W13582   5.363  15.745  31.798 -0.4337 -0.1350  0.2032
70671W        W13583   7.544  17.349   0.566  0.0147  0.0789  0.2515
70672W        W13584   4.951  17.954   2.378  0.2067 -0.1071 -0.0437
70673W        W13585   6.022  17.110   3.968 -0.1568  0.1365 -0.2372
70674W        W13586   7.523  18.023   1.868 -0.0091  0.1006 -0.0787
70675W        W13587   5.433  16.205   1.011 -0.0953 -0.0041  0.1959
70676W        W13588   4.118  15.879  31.925  0.2208 -0.1893  0.2601
70677W        W13589   5.967  13.403   0.762  0.0243 -0.1225 -0.3563
70678W        W13590   0.854  19.030   0.348 -0.0756 -0.3896  0.0864
70679W        W13591   7.769  13.412   2.514  0.0433  0.0411  0.1189
70680W        W13592   5.932  14.023   0.915 -0.2104  0.1514  0.1032
70681W        W13593   6.193  15.359   3.205 -0.2573  0.1042 -0.0835
70682W        W13594   6.871  14.281   4.828  0.4187 -0.1095 -0.2275
70683W        W13595   5.637  14.845  31.802  0.3186  0.0719  0.0087
70684W        W13596   6.526  16.267   2.585  0.0354  0.3622 -0.0521
70685W        W13597   4.065  16.777   1.264  0.3291  0.3272  0.1148
70686W        W13598   5.913  14.138   2.818 -0.2569 -0.1909  0.1696
70687W        W13599   3.849  16.305   2.958 -0.3140  0.0699 -0.1466
70688W        W13600   3.080  17.455   1.341 -0.0216 -0.4949  0.2091
70689W        W13601   4.496  16.263   2.835 -0.1414 -0.1431 -0.1395
70690W        W13602   5.684  15.824   0.678 -0.1714 -0.0133 -0.0665
70691W        W13603   5.963  16.004   4.042 -0.0898  0.0873 -0.0903
70692W        W13604   4.815  15.633  30.845  0.3681 -0.2897 -0.3363
70693W        W13605   5.464  17.611   0.471  0.0611 -0.2121 -0.2623
70694W        W13606   5.024  18.227  31.230  0.0005  0.0119 -0.2030
70695W        W13607   5.084  14.374   0.834 -0.0974 -0.1037 -0.0073
70696W        W13608   6.256  17.424   1.565 -0.0691 -0.0563 -0.2467
70697W        W13609   5.443  18.501  31.858 -0.2160  0.0038  0.1671
70698W        W13610   6.041  16.422   2.429  0.0732  0.0048 -0.0015
70699W        W13611   5.277  17.730   1.742 -0.1731  0.1532  0.1921
70700W        W13612   6.504  14.960   0.975  0.0338 -0.2116 -0.0198
70701W        W13613   3.821  18.084   1.207  0.1558  0.0722  0.4428
70702W        W13614   4.855  15.129   1.434  0.0358  0.0451 -0.1675
70703W        W13615   2.590  15.948   0.487 -0.2685  0.0432  0.1883
70704W        W13616   6.063  15.109   0.827  0.0301  0.0622  0.1021
70705W        W13617   7.331  17.318   0.122 -0.1962 -0.1781 -0.1096
70706W        W13618   5.059  14.384   2.189  0.0755  0.3024 -0.0324
70707W        W13619   5.327  15.159   1.491 -0.1857  0.0343  0.1120
70708W        W13620   3.434  17.583   1.037 -0.2595 -0.1293  0.0635
70709W        W13621   7.359  15.560   1.581 -0.0857  0.0741 -0.1455
70710W        W13622   7.376  14.517   1.176 -0.3779 -0.1647 -0.0950
70711W        W13623   7.403  16.264   1.017 -0.2455  0.2194  0.0774
70712W        W13624   4.276  17.277   2.106 -0.1311 -0.0270  0.1766
70713W        W13625   3.634  15.845  31.432 -0.2279  0.1815  0.2243
70714W        W13626   7.098  15.503   2.773 -0.1826 -0.3249  0.0552
70715W        W13627   4.579  15.329   2.428 -0.0284 -0.0553  0.0572
70716W        W13628   3.382  17.781   2.763  0.1249 -0.2941  0.1941
70717W        W13629   5.840  17.422   2.390  0.1186 -0.0066 -0.1027
70718W        W13630   5.741  17.810   1.391 -0.0014 -0.0196  0.1670
70719W        W13631   3.386  18.037  31.232 -0.2200 -0.2205  0.2070
70720W        W13632   5.420  14.516   4.011 -0.1588 -0.2326  0.0988
70721W        W13633   7.219  16.571   1.958 -0.0082 -0.4570 -0.4003
70722W        W13634   6.152  15.857   1.569  0.0473  0.0787 -0.0594
70723W        W13635   5.049  16.467   1.318 -0.3342  0.0392 -0.2365
70724W        W13636   5.970  15.428   2.093  0.1924 -0.2561 -0.0530
70725W        W13637   6.135  17.256   3.364 -0.2198 -0.1023 -0.0261
70726W        W13638   6.501  14.089   3.512 -0.4209 -0.0285  0.0276
70727W        W13639   5.251  17.931   4.509 -0.0283  0.0448 -0.1203
70728W        W13640   5.826  15.345   1.495 -0.2079  0.0993 -0.0964
70729W        W13641   7.083  16.872  31.956  0.0522 -0.1754  0.1318
70730W        W13642   6.392  15.798   2.947 -0.3154  0.3357  0.1941
70731W        W13643   5.143  18.019   1.348 -0.2700  0.1349 -0.0244
70732W        W13644   4.103  16.250   2.017 -0.1592 -0.0782  0.1725
70733W        W13645   3.739  18.080  31.699 -0.0154  0.3483 -0.2155
70734W        W13646   6.314  15.356   1.549 -0.1784  0.1668  0.0387
70735W        W13647   5.037  18.083   1.932  0.1879  0.2116 -0.0225
70736W        W13648   3.967  17.623   1.168 -0.1396 -0.1068  0.2022
70737W        W13649   3.054  18.036   3.121  0.2850 -0.2112 -0.0209
70738W        W13650   7.351  14.594   1.694  0.0414  0.1087 -0.1626
70739W        W13651   5.961  16.981   0.970  0.0410  0.1086 -0.2328
70740W        W13652   5.044  16.930   1.541  0.1750  0.1534  0.1507
70741W        W13653   7.965  15.285   2.152 -0.1826  0.2853 -0.0634
70742W        W13654   5.509  16.450  31.467 -0.2769 -0.1662  0.0606
70743W        W13655   6.009  14.491   4.108 -0.0941 -0.1652 -0.0179
70744W        W13656   5.853  15.230   2.527 -0.1198  0.2249  0.2850
70745W        W13657   6.574  16.288   0.284  0.2002  0.1006 -0.1006
70746W        W13658   4.655  15.616   3.309  0.1095  0.0039  0.0515
70747W        W13659   6.485  17.618   3.598  0.0949  0.0738 -0.1280
70748W        W13660   4.998  17.317   2.592 -0.1750 -0.1937 -0.5483
70749W        W13661   5.052  14.675   1.408 -0.3251  0.2412 -0.1419
70750W        W13662   4.730  14.607   0.426  0.0041  0.1410  0.1734
70751W        W13663   4.620  16.640   1.974  0.1155  0.1071  0.1212
70752W        W13664   6.895  16.364   1.466  0.0679 -0.2248 -0.2217
70753W        W13665   4.571  17.975   0.325  0.1126 -0.0534  0.0342
70754W        W13666   6.015  15.520   0.500 -0.4422  0.0475 -0.3396
70755W        W13667   3.895  16.969   2.208  0.1398 -0.1420 -0.0382
70756W        W13668   4.728  15.475   1.037  0.0424  0.1937 -0.0490
70757W        W13669   5.811  16.251   1.610  0.1676  0.0598  0.2611
70758W        W13670   5.641  17.356   3.223  0.0782  0.0358 -0.1441
70759W        W13671   5.830  13.618   2.961  0.1697  0.1126  0.1806
70760W        W13672   7.734  16.888   0.765  0.0223 -0.0070 -0.1622
70761W        W13673   5.178  15.226   2.874 -0.0095  0.4310 -0.0560
70762W        W13674   6.100  14.862   2.309 -0.0681  0.0061  0.0054
70763W        W13675   6.445  14.585   1.865 -0.3465 -0.0310  0.0103
70764W        W13676   5.502  14.349   3.021 -0.3663 -0.1526  0.1598
70765W        W13677   5.039  15.540   2.517 -0.3068 -0.0320  0.0726
70766W        W13678   6.791  17.158   2.370  0.1207 -0.0253 -0.0395
70767W        W13679   6.765  15.860  30.301  0.1022 -0.0945  0.2001
70768W        W13680   8.189  14.985   1.750  0.1054 -0.1085  0.2297
70769W        W13681   6.571  15.562   0.460  0.2872 -0.0307 -0.3536
70770W        W13682   7.278  15.944  31.895 -0.2539 -0.3589 -0.3634
70771W        W13683   4.694  14.871   2.013  0.1630  0.1173 -0.0489
70772W        W13684   6.507  16.645   5.201 -0.1042  0.0493  0.1057
70773W        W13685   5.916  14.418   1.639  0.1350  0.0249 -0.1364
70774W        W13686   7.236  15.867   4.986 -0.1301  0.2721 -0.0280
70775W        W13687   5.781  18.544   0.278  0.1443 -0.0804  0.0761
70776W        W13688   6.379  15.096   0.460 -0.0884 -0.1379  0.2083
70777W        W13689   4.628  14.948   0.826 -0.1772  0.1677 -0.0138
70778W        W13690   4.339  15.765   2.275  0.1789 -0.0132  0.0154
70779W        W13691   3.571  18.774   3.124  0.1962  0.1527  0.2398
70780W        W13692   4.687  18.115   1.555 -0.1340 -0.0161  0.1983
70781W        W13693   6.116  16.898   0.163  0.2852  0.0487 -0.0259
70782W        W13694   5.816  15.853   1.902  0.3109 -0.3669  0.0104
70783W        W13695   6.688  16.490   3.603 -0.1623  0.0104 -0.1225
70784W        W13696   5.079  13.818  31.856  0.1603  0.0714  0.0920
70785W        W13697   6.793  14.670   2.804  0.0539 -0.0314 -0.1838
70786W        W13698   4.182  18.250   1.909  0.1186 -0.0580 -0.3781
70787W        W13699   6.357  14.509   1.326 -0.2022 -0.0914 -0.2697
70788W        W13700   4.594  17.230   2.922 -0.1410 -0.0230  0.0419
70789W        W13701   3.416  17.239   2.898  0.1702 -0.2654 -0.1888
70790W        W13702   7.195  17.900   1.398  0.1613 -0.1858  0.3718
70791W        W13703   5.271  14.277   1.703  0.0339 -0.0309 -0.2366
70792W        W13704   7.849  15.934   0.795  0.0532  0.3504 -0.1765
70793W        W13705   4.578  15.931   1.300  0.3595 -0.1734 -0.0246
70794W        W13706   5.892  15.937   3.192  0.1080 -0.0563  0.1846
70795W        W13707   6.254  16.233   1.987 -0.0478 -0.1995 -0.1228
70796W        W13708   6.380  15.465   0.934  0.3778 -0.1780  0.1318
70797W        W13709   4.915  16.852   2.922 -0.2836  0.1888  0.1886
70798W        W13710   6.687  15.994  31.711 -0.2732  0.1064 -0.2379
70799W        W13711   3.699  18.425   2.124  0.1966  0.0252  0.2831
70800W        W13712   4.929  15.201   3.295 -0.1854  0.1800 -0.0236
70801W        W13713   5.677  17.468   3.688 -0.0297  0.0736  0.0649
70802W        W13714   5.886  16.311   0.714 -0.1146 -0.1242 -0.0686
70803W        W13715   3.483  14.002   0.829 -0.0022 -0.2776 -0.0815
70804W        W13716   5.464  17.226   1.694 -0.1422  0.0362  0.2499
70805W        W13717   2.811  17.388   3.000  0.1476  0.1373 -0.0391
70806W        W13718   3.653  15.828   3.034 -0.2285 -0.0625 -0.0633
70807W        W13719   2.971  18.850   0.252 -0.0097 -0.1567  0.0566
70808W        W13720   7.375  17.365   1.173 -0.3117  0.3540 -0.1778
70809W        W13721   6.395  16.333   0.715  0.0673  0.0853 -0.1025
70810W        W13722   8.347  17.282   1.297  0.0345  0.2291 -0.1377
70811W        W13723   4.253  14.783  31.748 -0.1200  0.0233  0.0466
70812W        W13724   4.881  17.604   2.044  0.0099 -0.1289 -0.0307
70813W        W13725   2.791  17.412   0.457 -0.0879  0.2853 -0.0898
70814W        W13726   6.823  18.108   1.224  0.1212  0.1131 -0.0401
70815W        W13727   3.705  18.213   1.666 -0.0408 -0.0056  0.2440
70816W        W13728   6.980  17.160   2.860  0.0252  0.0788 -0.0548
70817W        W13729   6.178  15.527  30.896  0.6745  0.0869  0.0057
70818W        W13730   6.755  14.527   0.820 -0.2546 -0.0669 -0.0211
70819W        W13731   8.276  14.837   0.930 -0.1943  0.0529  0.0593
70820W        W13732   6.129  16.239   2.878 -0.0099 -0.2515  0.1656
70821W        W13733   7.059  15.946   1.159  0.1525  0.2210  0.0330
70822W        W13734   5.321  15.972  31.386  0.2584 -0.1995  0.0012
70823W        W13735   4.618  17.342   4.557  0.2891  0.1793 -0.3278
70824W        W13736   6.859  15.071   3.269  0.3122 -0.4273 -0.0429
70825W        W13737   2.080  17.212   2.775 -0.4766 -0.0392  0.2749
70826W        W13738   6.449  17.104   1.220  0.2936 -0.0032 -0.2217
70827W        W13739   4.595  16.370   1.091  0.0457 -0.1367 -0.1029
70828W        W13740   4.626  15.989   0.775  0.0645  0.1517  0.0022
70829W        W13741   9.122  14.930   1.781 -0.1363  0.3721  0.1046
70830W        W13742   5.306  17.561   1.034  0.1894  0.3874  0.0495
70831W        W13743   5.909  14.507   1.078  0.1647  0.0706 -0.1413
70832W        W13744   5.293  18.379   2.221 -0.1512 -0.0537 -0.2980
70833W        W13745   3.675  18.290   3.418 -0.1721 -0.0063 -0.5041
70834W        W13746   7.131  18.476   2.650 -0.0768  0.3150 -0.2015
70835W        W13747   3.247  15.108  31.133  0.1260 -0.1017 -0.1192
70836W        W13748   8.208  16.382   0.941 -0.2889  0.4153 -0.1954
70837W        W13749   5.403  15.515   1.817  0.3335 -0.0439  0.1647
70838W        W13750   7.204  14.964   2.854  0.2027 -0.0096 -0.0812
70839W        W13751   4.496  17.893   1.968 -0.0209  0.0148  0.1214
70840W        W13752   5.303  15.488   1.043  0.1521  0.1763  0.5001
70841W        W13753   4.399  15.010   1.313  0.1361 -0.0683  0.2246
70842W        W13754   4.702  14.351   2.973  0.2043  0.0896 -0.0611
70843W        W13755   4.609  16.886   0.935  0.4563 -0.2043 -0.0141
70844W        W13756   7.067  17.019   2.029  0.2203 -0.0221 -0.0469
70845W        W13757   4.140  15.578   0.353  0.1113 -0.0247 -0.1170
70846W        W13758   6.600  18.037   3.339  0.2794 -0.1136  0.0265
70847W        W13759   3.785  13.738   2.874 -0.0507 -0.4344 -0.2166
70848W        W13760   4.994  15.507   0.089 -0.1229 -0.0476 -0.0294
70849W        W13761   3.774  17.181   1.130  0.1384 -0.1228  0.2267
70850W        W13762   4.587  17.090   2.398 -0.2408 -0.0004  0.2586
70851W        W13763   6.295  18.358   4.157  0.1002 -0.2351 -0.0382
70852W        W13764   3.409  14.070   0.028  0.2911  0.1011 -0.0065
70853W        W13765   7.387  17.900   0.225 -0.0192  0.2768 -0.3797
70854W        W13766   7.284  17.504   1.767 -0.0634 -0.0951 -0.1795
70855W        W13767   4.742  17.631  31.977  0.0007  0.0047  0.1185
70856W        W13768   5.381  17.091   1.192 -0.0625 -0.2348  0.5481
70857W        W13769   8.218  17.750   1.403  0.2302 -0.0435 -0.0119
70858W        W13770   6.220  14.409   3.104  0.0930 -0.1172 -0.0129
70859W        W13771   5.363  18.244   4.130 -0.1281  0.1535  0.2305
70860W        W13772   6.621  16.617   1.103  0.1282  0.1434 -0.1522
70861W        W13773   4.375  14.975   0.206  0.1606  0.0758 -0.1952
70862W        W13774   4.909  15.649   1.498 -0.0540 -0.1951  0.3518
70863W        W13775   3.504  18.140   0.497 -0.0584 -0.1713  0.1029
70864W        W13776   6.970  16.948   1.517 -0.1136  0.1871  0.3092
70865W        W13777   7.398  16.549   2.860 -0.1084 -0.0648  0.0966
70866W        W13778   5.697  18.085   0.138  0.1676 -0.0580  0.0148
70867W        W13779   7.559  15.624   2.025  0.2035  0.3803 -0.0159
70868W        W13780   6.265  16.759   2.729  0.0063  0.0187 -0.4657
70869W        W13781   6.775  17.423   4.078 -0.2614 -0.1571  0.5023
70870W        W13782   3.313  17.329   0.256  0.0169 -0.1100  0.1633
70871W        W13783   4.586  17.510   3.419  0.1736  0.1182  0.1744
70872W        W13784   4.152  15.306   0.890  0.0773  0.0866 -0.1461
70873W        W13785   4.966  17.661   0.679 -0.0443 -0.2768  0.0699
70874W        W13786   6.745  17.571   2.658  0.2307  0.1831 -0.2699
70875W        W13787   4.552  16.747   1.438 -0.1208  0.3029  0.2621
70876W        W13788   7.077  16.394   0.177  0.1120  0.1887 -0.2209
70877W        W13789   6.055  14.934   1.826 -0.0753 -0.2427  0.1546
70878W        W13790   5.854  15.733  31.697  0.0575  0.1289 -0.3445
70879W        W13791   5.655  15.124   1.083 -0.2966  0.1859 -0.1183
70880W        W13792   3.949  15.377   2.464 -0.1001  0.1276  0.0664
70881W        W13793   4.241  16.268   1.505 -0.2929 -0.0944  0.2068
70882W        W13794   5.854  18.381   1.434 -0.0387 -0.0163 -0.2229
70883W        W13795   4.334  16.403   3.892 -0.3031 -0.1075  0.1896
70884W        W13796   4.918  14.638   3.305  0.0690 -0.0868 -0.0508
70885W        W13797   4.736  14.907   2.914  0.1935 -0.1576  0.1536
70886W        W13798   3.991  15.487   2.005  0.3281  0.1510  0.0274
70887W        W13799   4.522  15.618   0.007  0.2422  0.2491  0.1666
70888W        W13800   5.801  17.710   0.876 -0.0820  0.3046 -0.0867
70889W        W13801   5.430  15.304   2.296 -0.2353  0.0654 -0.2284
70890W        W13802   4.633  15.815   2.637 -0.2775  0.0721 -0.1926
70891W        W13803   7.319  15.430   0.013 -0.0517 -0.2202 -0.2121
70892W        W13804   5.923  15.894   0.222 -0.0037 -0.3171 -0.1299
70893W        W13805   4.760  13.723   3.112  0.1140 -0.0578 -0.0050
70894W        W13806   7.518  16.899   1.709  0.2284 -0.1366  0.0222
70895W        W13807   5.069  17.066   0.515 -0.1077 -0.3410  0.3418
70896W        W13808   6.627  16.433   4.234 -0.3180 -0.0627  0.0278
70897W        W13809   5.509  14.357   2.491  0.1975  0.0938  0.0001
70898W        W13810   2.805  15.137  30.718  0.2565  0.0736 -0.0945
70899W        W13811   6.001  16.052   1.136 -0.0271 -0.1344  0.1527
70900W        W13812   5.031  16.424   2.195  0.1169  0.2370 -0.0790
70901W        W13813   6.150  18.793   0.710  0.1753 -0.0855 -0.0355
70902W        W13814   5.036  15.911   1.099  0.1627  0.0674 -0.0433
70903W        W13815   5.415  17.694   2.879 -0.0798  0.1576 -0.0882
70904W        W13816   3.518  14.820   3.052  0.1249  0.3256 -0.0645
70905W        W13817   5.735  16.595   0.251  0.5595  0.0719 -0.0105
70906W        W13818   5.926  17.977   2.262  0.4085  0.1032  0.1984
70907W        W13819   7.660  17.118  31.690  0.1550  0.3159 -0.1731
70908W        W13820   6.763  15.381   1.758 -0.4595  0.0889  0.0374
70909W        W13821   5.523  16.172   0.395 -0.1351 -0.0099 -0.2850
70910W        W13822   4.133  14.385   3.683  0.2759 -0.2060 -0.3933
70911W        W13823   3.300  17.594   3.303 -0.0720  0.3250 -0.1432
70912W        W13824   7.245  16.783   1.055 -0.0990 -0.0586  0.0990
70913W        W13825   4.241  13.975   2.102 -0.2096  0.1170  0.0637
70914W        W13826   7.271  16.120   0.571  0.2513  0.1599 -0.3057
70915W        W13827   6.521  15.975   1.079 -0.1013  0.6414 -0.0553
70916W        W13828   4.003  14.193   2.473 -0.4572 -0.2683  0.1701
70917W        W13829   4.074  16.041   0.526 -0.1850  0.0701  0.3147
70918W        W13830   5.267  16.379   2.863  0.1026 -0.2002 -0.0363
70919W        W13831   6.690  16.756   0.252 -0.0100 -0.0291  0.1624
70920W        W13832   5.902  16.995   3.014 -0.2857  0.0627  0.0878
70921W        W13833   3.806  17.245   0.244 -0.2802  0.2420 -0.0792
70922W        W13834   7.960  16.933   0.001 -0.0130 -0.0654  0.0085
70923W        W13835   4.863  17.923   3.419  0.2187 -0.1826  0.0071
70924W        W13836   6.296  18.779   3.035 -0.2291 -0.2602 -0.1823
70925W        W13837   6.591  18.152   2.263  0.2068  0.3624  0.1770
70926W        W13838   6.871  16.263   0.780  0.0940  0.0700 -0.1473
70927W        W13839   3.051  14.613   4.101 -0.1306 -0.0418  0.3213
70928W        W13840   4.149  16.732   1.768  0.1945 -0.0584 -0.2158
70929W        W13841   5.899  16.921   2.455  0.2783 -0.0826  0.1695
70930W        W13842   7.568  15.064   1.920 -0.4279 -0.3318  0.2179
70931W        W13843   3.598  14.598   1.585  0.3178  0.0091 -0.1227
70932W        W13844   6.660  16.679   1.857  0.0571  0.0592 -0.3331
70933W        W13845   5.356  18.138   3.191 -0.2469  0.0426 -0.1656
70934W        W13846   7.419  16.484   1.466  0.0459 -0.1290  0.0010
70935W        W13847   4.977  16.975   6.201 -0.3728 -0.3141 -0.0841
70936W        W13848   5.638  15.935   4.431  0.1215  0.0562 -0.2478
70937W        W13849   6.084  15.653   3.604  0.2374 -0.0089 -0.0123
70938W        W13850   7.738  16.121   4.945 -0.1293  0.2658 -0.0958
70939W        W13851   4.291  15.094   5.546 -0.0983 -0.3729 -0.0241
70940W        W13852   4.278  17.528   4.818  0.1400  0.0642 -0.1293
70941W        W13853   5.131  14.796   5.746  0.0379 -0.2166 -0.2212
70942W        W13854   5.220  17.603   4.899  0.1817  0.0267 -0.2272
70943W        W13855   6.501  17.209   6.744  0.1062 -0.0847 -0.1433
70944W        W13856   7.607  17.196   4.651  0.0767  0.0075  0.1401
70945W        W13857   5.797  15.817   6.665  0.0922  0.1779  0.0047
70946W        W13858   6.050  17.903   6.192  0.2024 -0.2634  0.1085
70947W        W13859   5.287  15.693   4.176 -0.1447  0.0436 -0.4387
70948W        W13860   4.152  14.029   4.737 -0.0315 -0.1166 -0.1453
70949W        W13861   7.157  16.850   5.785  0.1961 -0.0745 -0.0867
70950W        W13862   4.646  16.143   4.624 -0.2261  0.0733  0.2502
70951W        W13863   4.388  15.915   4.174 -0.1781  0.1303  0.3158
70952W        W13864   5.313  14.184   5.205 -0.0708 -0.1898 -0.2427
70953W        W13865   4.978  18.062   5.059 -0.4037 -0.0470 -0.2197
70954W        W13866   3.873  15.730   4.330  0.2627  0.0405 -0.4242
70955W        W13867   5.390  14.529   6.069 -0.2156 -0.0141  0.0313
70956W        W13868   6.451  16.857   3.970  0.2037  0.1226 -0.0947
70957W        W13869   4.178  15.232   3.453  0.2265  0.0934 -0.1101
70958W        W13870   4.274  15.418   5.049 -0.0088  0.0721 -0.0553
70959W        W13871   4.494  15.579   5.922 -0.3628 -0.0288  0.1172
70960W        W13872   5.281  15.105   5.379  0.1042 -0.0148 -0.1709
70961W        W13873   6.077  16.915   5.006  0.0230  0.0047  0.2204
70962W        W13874   5.513  18.332   6.937 -0.0241  0.0966 -0.2045
70963W        W13875   6.952  18.510   5.282  0.1938  0.0501 -0.0258
70964W        W13876   6.873  15.585   7.530 -0.0406  0.1483  0.0169
70965W        W13877   4.130  16.054   4.712  0.2044  0.1134  0.2018
70966W        W13878   3.196  17.251   4.483  0.2050  0.1271  0.1072
70967W        W13879   4.108  17.342   4.282 -0.1615  0.0402  0.1981
70968W        W13880   8.167  17.439   3.744 -0.1661 -0.1778 -0.0853
70969W        W13881   7.356  16.852   7.231  0.1269  0.1550 -0.2051
70970W        W13882   4.603  16.860   8.147 -0.0548 -0.0937  0.2261
70971W        W13883   4.739  17.004   4.212  0.0246  0.0551  0.0022
70972W        W13884   5.492  16.959   7.650  0.2164  0.0479  0.0398
70973W        W13885   4.981  16.573   7.656 -0.2297 -0.2872 -0.1307
70974W        W13886   4.258  16.890   5.217  0.0979  0.2755  0.3398
70975W        W13887   4.942  17.029   5.665 -0.0888  0.3864  0.2337
70976W        W13888   4.390  18.361   4.105 -0.0875 -0.2074 -0.0235
70977W        W13889   5.088  17.094   4.639  0.0888  0.1327 -0.3201
70978W        W13890   5.147  17.529   8.426 -0.3348 -0.0691 -0.1494
70979W        W13891   4.949  17.649   6.441  0.1489 -0.1847 -0.2221
70980W        W13892   8.500  14.571   6.743 -0.0624 -0.2724 -0.3507
70981W        W13893   4.562  17.634   2.437  0.0420  0.0646  0.0051
70982W        W13894   5.950  16.011   5.761  0.2321  0.3728 -0.1843
70983W        W13895   5.666  16.091   2.788 -0.0383  0.2042  0.2107
70984W        W13896   6.682  14.259   5.753  0.0138  0.1236 -0.1632
70985W        W13897   4.811  15.683   4.410 -0.0085  0.1788  0.0887
70986W        W13898   4.667  18.000   6.137 -0.0417  0.0314 -0.4105
70987W        W13899   4.979  16.650   6.782  0.3242 -0.2702  0.3705
70988W        W13900   5.867  16.665   7.137 -0.2284 -0.1825 -0.2157
70989W        W13901   6.198  16.460   4.035 -0.2520 -0.0089 -0.0674
70990W        W13902   7.313  14.584   5.839  0.0991 -0.2151 -0.0026
70991W        W13903   3.614  16.739   7.069  0.1532  0.2162  0.3297
70992W        W13904   3.859  15.437   4.771 -0.2216  0.1661  0.2570
70993W        W13905   7.217  17.561   2.752 -0.0030 -0.0309 -0.0321
70994W        W13906   7.858  15.843   5.333  0.1662 -0.1569 -0.0038
70995W        W13907   4.751  16.648   4.533  0.1858 -0.0902  0.4749
70996W        W13908   3.501  16.633   6.078  0.3122  0.1923 -0.0480
70997W        W13909   3.250  15.860   6.865  0.2856 -0.2435  0.1260
70998W        W13910   4.575  14.588   7.524 -0.3414 -0.0435  0.0049
70999W        W13911   4.502  15.342   4.154  0.0509  0.0824  0.0408
71000W        W13912   7.085  15.973   7.921 -0.3419 -0.0512 -0.1899
71001W        W13913   3.707  17.722   7.208  0.1133  0.0720 -0.0697
71002W        W13914   7.475  15.701   4.581 -0.0043 -0.1298 -0.0296
71003W        W13915   5.240  16.467   4.580 -0.1887 -0.0147 -0.1582
71004W        W13916   6.119  18.782   5.291  0.3532 -0.2515 -0.2157
71005W        W13917   6.603  17.102   3.549  0.2220  0.1573  0.1456
71006W        W13918   6.142  13.994   5.940  0.0470  0.0580 -0.0340
71007W        W13919   7.577  15.080   6.759  0.0978 -0.0711 -0.0423
71008W        W13920   5.129  17.309   3.099 -0.1512 -0.1942  0.2262
71009W        W13921   5.150  16.753   4.156  0.0207  0.1068 -0.2581
71010W        W13922   6.514  18.086   6.121 -0.0260 -0.3641  0.0820
71011W        W13923   7.071  15.192   3.905 -0.1432  0.2426 -0.1438
71012W        W13924   4.689  18.445   6.361 -0.2984  0.2653  0.1775
71013W        W13925   4.715  15.196   7.511  0.0315  0.2536  0.1379
71014W        W13926   4.699  16.680   7.213 -0.1533 -0.0903 -0.1357
71015W        W13927   4.338  17.777   4.384 -0.0257 -0.0573 -0.0764
71016W        W13928   3.575  16.767   8.084 -0.2055  0.3902  0.1103
71017W        W13929   5.034  16.095   2.526 -0.0529  0.3051 -0.0961
71018W        W13930   3.571  15.161   7.160 -0.2192 -0.0204  0.3343
71019W        W13931   5.491  16.914   6.760  0.0023 -0.1614  0.4424
71020W        W13932   6.910  14.651   5.477  0.0928  0.1423 -0.4762
71021W        W13933   4.033  14.526   7.660  0.0919 -0.1187 -0.0030
71022W        W13934   6.744  13.585   5.153 -0.0656  0.1124  0.3400
71023W        W13935   4.885  17.443   5.243  0.0530  0.3235 -0.3769
71024W        W13936   7.317  16.431   4.862 -0.0715  0.0037 -0.5648
71025W        W13937   6.561  14.811   3.732 -0.0144 -0.1504 -0.0077
71026W        W13938   6.837  16.560   4.800 -0.4319 -0.0047 -0.1429
71027W        W13939   2.831  15.054   4.928 -0.3209 -0.0494  0.0098
71028W        W13940   5.989  15.057   4.408  0.4201 -0.3451  0.0030
71029W        W13941   2.547  13.377   6.512 -0.1664 -0.3532  0.0869
71030W        W13942   4.622  14.226   4.616 -0.0046  0.2844  0.1639
71031W        W13943   6.556  16.021   7.699 -0.1414 -0.1898  0.0555
71032W        W13944   5.360  14.828   3.208  0.2081  0.1066 -0.4082
71033W        W13945   7.130  15.292   5.124 -0.3537 -0.1552  0.1255
71034W        W13946   4.932  16.260   4.199  0.0353 -0.2351 -0.1059
71035W        W13947   2.950  16.590   4.173 -0.0117  0.1935 -0.1268
71036W        W13948   6.631  15.376   6.532  0.1456  0.2325 -0.0312
71037W        W13949   4.785  17.838   4.626  0.1870 -0.0739 -0.2754
71038W        W13950   5.456  17.223   6.352  0.1212  0.0588 -0.1975
71039W        W13951   6.960  18.490   4.308 -0.0560  0.1983  0.1882
71040W        W13952   4.323  15.033   6.653  0.1137  0.0596 -0.1428
71041W        W13953   4.860  15.177   4.560 -0.1720 -0.1199 -0.1209
71042W        W13954   3.657  18.795   6.080  0.0412  0.1475  0.0848
71043W        W13955   4.428  17.866   5.608 -0.5618 -0.1327  0.2223
71044W        W13956   5.453  15.162   4.277  0.1876  0.2186 -0.2107
71045W        W13957   7.176  18.242   5.761  0.0635 -0.0626 -0.1477
71046W        W13958   4.672  16.560   5.347 -0.0138  0.0992  0.1529
71047W        W13959   5.006  15.686   6.209  0.1700  0.0126  0.0175
71048W        W13960   5.345  13.826   5.695  0.0404  0.1314 -0.2091
71049W        W13961   8.078  15.416   5.633  0.2549  0.1706 -0.3842
71050W        W13962   7.264  15.751   5.478 -0.1619 -0.0443 -0.1008
71051W        W13963   4.157  15.007   4.385 -0.0308 -0.0353  0.0073
71052W        W13964   5.620  17.643   5.177 -0.1007 -0.0275 -0.1748
71053W        W13965   4.931  19.214   4.159  0.3032 -0.0392 -0.1506
71054W        W13966   5.670  16.810   4.544  0.5590 -0.3835 -0.2197
71055W        W13967   6.380  17.239   4.336 -0.2370  0.0741 -0.0536
71056W        W13968   6.650  13.784   6.844  0.0846 -0.0546  0.0232
71057W        W13969   2.833  16.189   9.132 -0.1217  0.3838  0.0137
71058W        W13970   6.134  16.313   6.144 -0.1511 -0.1888 -0.0105
71059W        W13971   4.053  16.147   3.524  0.0395 -0.1487  0.1823
71060W        W13972   3.294  15.894   7.451  0.0883  0.1179 -0.0126
71061W        W13973   6.268  15.572   5.108 -0.0535  0.1202 -0.0500
71062W        W13974   7.234  14.981   6.135 -0.1540 -0.0131  0.3289
71063W        W13975   6.386  15.372   8.282  0.2725  0.1277  0.0356
71064W        W13976   6.146  16.773   4.394  0.0787 -0.2926 -0.2082
71065W        W13977   6.699  15.192   4.295  0.2906 -0.3272 -0.2286
71066W        W13978   6.438  14.665   5.112  0.2237  0.0562  0.1172
71067W        W13979   4.141  16.714   8.921 -0.0021 -0.2176  0.1825
71068W        W13980   6.460  16.910   4.734 -0.2053  0.0917 -0.2562
71069W        W13981   6.028  17.268   5.459  0.1792 -0.0297  0.0491
71070W        W13982   5.655  16.621   2.738  0.2475  0.1683  0.0664
71071W        W13983   6.702  17.420   4.649 -0.1095 -0.1305  0.0649
71072W        W13984   4.010  15.437   6.828 -0.1124  0.0775 -0.2034
71073W        W13985   6.716  16.514   7.600 -0.0542  0.3571  0.0866
71074W        W13986   6.662  18.298   3.794 -0.1616 -0.2149  0.2791
71075W        W13987   3.989  14.735   7.122  0.0254 -0.0976  0.0830
71076W        W13988   5.413  15.215   3.673 -0.0577  0.1399  0.0188
71077W        W13989   7.401  13.333   6.128  0.0004 -0.1354 -0.1274
71078W        W13990   2.780  18.374   2.347 -0.1068  0.1419 -0.4253
71079W        W13991   6.998  15.853   6.590 -0.1202  0.1136  0.0015
71080W        W13992   7.073  15.261   5.701 -0.0747 -0.1232 -0.1246
71081W        W13993   5.108  14.853   6.253 -0.2061  0.0927  0.3041
71082W        W13994   7.083  14.848   7.457 -0.4000 -0.0658  0.1266
71083W        W13995   8.300  16.674   5.916 -0.0537  0.0886 -0.1686
71084W        W13996   7.606  15.265   6.277  0.1886  0.2906 -0.0230
71085W        W13997   4.357  16.493   3.295 -0.2168  0.0202 -0.2950
71086W        W13998   6.148  14.955   6.319 -0.1190 -0.1067 -0.0905
71087W        W13999   5.751  16.501   5.832  0.0558 -0.0272 -0.0366
71088W        W14000   3.767  17.951   6.516 -0.0392  0.1954  0.1241
71089W        W14001   6.089  18.756   6.373 -0.1259 -0.0875  0.0514
71090W        W14002   5.769  17.703   5.705  0.0239  0.2898 -0.2095
71091W        W14003   5.608  14.549   6.532  0.1315 -0.0600  0.2465
71092W        W14004   5.694  16.714   4.077 -0.0232  0.0946 -0.0852
71093W        W14005   4.066  17.724   3.975  0.0189  0.2498 -0.0849
71094W        W14006   4.268  17.031   3.318  0.0426 -0.1913  0.2139
71095W        W14007   5.722  13.253   4.688 -0.0253 -0.2316 -0.2590
71096W        W14008   6.169  17.430   4.798  0.0083  0.0571 -0.2215
71097W        W14009   5.291  17.701   3.365 -0.0131 -0.0965  0.4256
71098W        W14010   6.334  17.196   6.315 -0.2558  0.1391  0.1495
71099W        W14011   4.315  17.743   2.885 -0.1373 -0.0378  0.0159
71100W        W14012   7.883  14.504   7.290 -0.0612 -0.2621  0.0305
71101W        W14013   3.788  16.677   5.286 -0.0934 -0.0078  0.3980
71102W        W14014   5.868  15.633   2.807  0.2168 -0.1228  0.0580
71103W        W14015   3.295  15.100   4.758 -0.1446  0.0793 -0.1221
71104W        W14016   8.514  15.295   3.648  0.0266 -0.3032 -0.2789
71105W        W14017   7.004  16.154   3.940 -0.1264 -0.1413 -0.0008
71106W        W14018   5.154  15.570   5.190 -0.0562 -0.0780 -0.1364
71107W        W14019   5.104  14.397   4.812 -0.1198  0.0340 -0.0560
71108W        W14020   4.393  19.342   6.265 -0.0857  0.1318 -0.1214
71109W        W14021   5.520  15.571   5.579  0.0559 -0.1000  0.5211
71110W        W14022   5.634  14.960   4.875  0.2296  0.2834 -0.0736
71111W        W14023   4.488  16.904   6.756 -0.0322  0.0747  0.0639
71112W        W14024   4.979  15.697   6.755 -0.0616  0.2973 -0.1157
71113W        W14025   4.838  16.556   3.768  0.0771  0.2490 -0.0639
71114W        W14026   6.061  16.796   6.075 -0.1952  0.2298 -0.0723
71115W        W14027   6.005  16.329   5.163  0.0473 -0.3008  0.1279
71116W        W14028   3.892  18.366   4.608  0.0093 -0.4008 -0.0512
71117W        W14029   5.355  18.026   6.551 -0.1580  0.2662 -0.0632
71118W        W14030   5.006  15.277   4.075 -0.1752 -0.0816 -0.1728
71119W        W14031   5.087  16.698   5.000 -0.0626  0.4758 -0.0324
71120W        W14032   3.667  14.686   8.023 -0.2674 -0.0833  0.0436
71121W        W14033   6.396  16.694   6.469  0.1931  0.3691  0.4263
71122W        W14034   5.870  16.347   4.414  0.0091 -0.3275 -0.1895
71123W        W14035   4.742  16.042   5.628 -0.1972 -0.3072  0.0850
71124W        W14036   5.408  16.237   4.056  0.2627 -0.2742  0.1072
71125W        W14037   5.230  17.700   5.552 -0.0565  0.0354  0.2844
71126W        W14038   5.985  16.437   6.660 -0.2621  0.2842  0.1084
71127W        W14039   5.067  16.713   8.128 -0.0209  0.1573 -0.0057
71128W        W14040   5.616  14.297   5.581  0.3133  0.0238 -0.4358
71129W        W14041   8.422  17.839   5.377  0.0277 -0.0516  0.3506
71130W        W14042   6.435  15.739   7.304  0.0958 -0.3290  0.0069
71131W        W14043   3.821  17.911   4.416  0.1372  0.2226 -0.0087
71132W        W14044   2.736  16.796   7.708  0.2245  0.1423 -0.1708
71133W        W14045   4.587  16.090   3.533  0.1882 -0.0760  0.2988
71134W        W14046   5.169  15.950   4.601 -0.0410 -0.0181 -0.0895
71135W        W14047   4.229  16.886   4.641 -0.2020 -0.0943 -0.0179
71136W        W14048   5.082  17.474   4.336 -0.0426  0.0841 -0.2476
71137W        W14049   3.889  16.415   5.786 -0.0173 -0.0392  0.2164
71138W        W14050   6.726  15.948   3.429 -0.0409  0.4355 -0.0592
71139W        W14051   6.833  16.237   5.207  0.0087  0.5063  0.2339
71140W        W14052   6.554  14.353   3.987  0.0607  0.2461 -0.2361
71141W        W14053   8.111  14.821   7.642  0.1850 -0.0683  0.2472
71142W        W14054   6.012  15.876   2.349 -0.0906 -0.3118  0.2833
71143W        W14055   6.125  14.666   9.000  0.0121 -0.3269 -0.0482
71144W        W14056   4.088  15.243   7.250 -0.1484  0.0548 -0.2219
71145W        W14057   6.711  16.575   5.650 -0.4245  0.2252 -0.0092
71146W        W14058   3.047  14.663   5.721 -0.0654  0.1382 -0.1815
71147W        W14059   6.050  17.859   7.458  0.1153 -0.0260 -0.2230
71148W        W14060   4.148  16.572   7.142  0.4805  0.0724  0.4447
71149W        W14061   6.720  14.895   5.945  0.0353  0.2671 -0.0203
71150W        W14062   4.093  13.396   3.746 -0.0131  0.0837  0.2531
71151W        W14063   5.993  16.951   6.720 -0.1784  0.0286  0.3539
71152W        W14064   6.942  17.062   4.973  0.3426  0.0192  0.2073
71153W        W14065   5.560  16.262   5.394  0.1317 -0.1756  0.1254
71154W        W14066   6.552  15.319   6.060 -0.2362  0.4181  0.1108
71155W        W14067   4.556  15.582   5.390  0.0389 -0.3979  0.2898
71156W        W14068   6.218  16.512   5.550 -0.0324  0.0435  0.4388
71157W        W14069   5.232  16.601   5.513  0.3430 -0.0201  0.2538
71158W        W14070   4.223  15.958   5.627  0.0247  0.0036 -0.2883
71159W        W14071   4.565  15.761   6.536  0.1635  0.0074  0.1965
71160W        W14072   6.807  16.849   6.130  0.0434 -0.2234  0.2445
71161W        W14073   6.083  15.921   4.736 -0.2262 -0.2827  0.1938
71162W        W14074   5.638  14.956   6.220 -0.0236 -0.2327 -0.1194
71163W        W14075   5.681  16.696   6.344 -0.0463  0.1417 -0.4079
71164W        W14076   5.238  15.272   7.443  0.2595  0.2284 -0.1455
71165W        W14077   2.927  14.131   7.668 -0.3508  0.2163 -0.2108
71166W        W14078   6.262  15.320   6.958  0.1964  0.1174 -0.3535
71167W        W14079   7.422  16.189   5.366  0.0347  0.3014 -0.0016
71168W        W14080   5.475  16.437   6.769  0.0030 -0.0396  0.1886
71169W        W14081   6.541  16.163   5.929 -0.1899  0.0364 -0.0435
71170W        W14082   7.013  16.243   4.506 -0.1363 -0.0545 -0.1289
71171W        W14083   5.559  15.863   3.736  0.4117 -0.1169 -0.0162
71172W        W14084   6.964  16.045   7.398 -0.1594 -0.0112  0.1157
71173W        W14085   4.983  16.575   3.306 -0.1072 -0.1790 -0.1709
71174W        W14086   4.974  14.784   7.210  0.0454  0.1838 -0.1237
71175W        W14087   5.059  17.719   3.829  0.0663 -0.3309  0.2127
71176W        W14088   7.022  18.030   6.244  0.5121 -0.0142 -0.1061
71177W        W14089   6.645  15.832   6.288 -0.0301 -0.0739  0.1137
71178W        W14090   4.442  15.993   5.150 -0.0407  0.1157  0.1859
71179W        W14091   3.894  16.959   6.712 -0.0375 -0.0109 -0.0321
71180W        W14092   4.828  15.846   2.009 -0.1228  0.1512 -0.3144
71181W        W14093   4.457  16.877   3.741  0.0615  0.3500  0.1577
71182W        W14094   6.232  17.900   5.756  0.2931  0.0760  0.0022
71183W        W14095   8.267  16.155   7.037  0.2461  0.0478 -0.0746
71184W        W14096   5.143  14.893   4.970 -0.0506  0.5637 -0.1199
71185W        W14097   6.372  15.794   6.781 -0.1814 -0.1319  0.4765
71186W        W14098   3.423  16.329   4.415  0.0170 -0.2320 -0.0544
71187W        W14099   5.955  15.363   6.443  0.0769  0.1250  0.1044
71188W        W14100   4.469  17.200   5.575 -0.1641  0.1547  0.0114
71189W        W14101   3.253  15.285   7.517  0.1945 -0.0071 -0.0552
71190W        W14102   4.077  16.812   4.091  0.1676 -0.0240  0.2883
71191W        W14103   5.060  13.881   4.786  0.0344 -0.2215  0.1896
71192W        W14104   5.689  16.195   6.305  0.1310  0.1120  0.4278
71193W        W14105   6.756  15.656   5.258 -0.0869 -0.0684  0.0358
71194W        W14106   6.160  15.789   6.229 -0.1875 -0.0902 -0.0402
71195W        W14107   5.582  17.237   7.159  0.2703  0.1690  0.0663
71196W        W14108   5.210  16.509   6.285  0.1361  0.2138 -0.1060
71197W        W14109   6.345  19.010   6.759  0.0374  0.1911 -0.0349
71198W        W14110   7.736  16.537   5.215  0.0773 -0.0575  0.1843
71199W        W14111   3.865  16.530   4.643  0.1896 -0.2997 -0.4927
71200W        W14112   2.854  14.187   5.416  0.0288  0.0709 -0.2334
71201W        W14113   4.417  15.668   7.448 -0.0901 -0.0994  0.0953
71202W        W14114   5.238  17.128   5.274 -0.1520 -0.1679  0.1569
71203W        W14115   5.883  15.400   4.780 -0.0285 -0.0931  0.1680
71204W        W14116   6.272  16.431   4.748 -0.2641  0.0097 -0.1108
71205W        W14117   3.147  16.794   7.366 -0.1183 -0.0183 -0.0035
71206W        W14118   4.795  15.304   6.467  0.1070  0.0787  0.1510
71207W        W14119   3.617  17.412   4.252 -0.2207 -0.0127 -0.2096
71208W        W14120   6.747  17.953   4.444  0.2250 -0.3174 -0.3516
71209W        W14121   6.166  16.720   3.558 -0.2518  0.1477 -0.1382
71210W        W14122   4.543  18.939   6.685  0.0256  0.1148  0.1685
71211W        W14123   5.726  15.450   3.966  0.1005 -0.0585  0.0715
71212W        W14124   4.201  16.411   5.423 -0.0129 -0.5780  0.0062
71213W        W14125   3.746  19.297   3.474  0.3472 -0.2913  0.2212
71214W        W14126   7.171  16.836   4.611  0.3599 -0.3107 -0.2692
71215W        W14127   3.017  17.697   4.060 -0.2686  0.0368  0.0523
71216W        W14128   7.854  15.906   6.284  0.1168 -0.0300  0.2581
71217W        W14129   6.721  14.587   3.342 -0.0535 -0.1514 -0.2406
71218W        W14130   7.977  16.393   5.618 -0.2607  0.1667  0.1910
71219W        W14131   6.891  15.744   5.806  0.2085  0.1401 -0.1885
71220W        W14132   5.372  16.623   7.324  0.2578 -0.1461  0.1407
71221W        W14133   4.551  16.722   5.832 -0.1179  0.0301  0.0941
71222W        W14134   6.612  15.336   2.954 -0.1563  0.3648 -0.2458
71223W        W14135   5.025  15.213   6.924 -0.2320 -0.1752 -0.1139
71224W        W14136   7.579  14.865   7.216  0.0680 -0.2113  0.3102
71225W        W14137   4.341  16.618   8.473  0.0279 -0.1421 -0.2078
71226W        W14138   6.767  16.936   4.328 -0.0343 -0.0511  0.1943
71227W        W14139   5.288  15.349   4.759 -0.1139  0.0094  0.2349
71228W        W14140   5.597  17.211   4.854 -0.0928 -0.0832  0.1140
71229W        W14141   6.811  14.922   6.470  0.2443 -0.4050 -0.1180
71230W        W14142   4.805  17.033   3.376 -0.0931 -0.3597  0.1552
71231W        W14143   5.881  14.480   6.066 -0.1684 -0.1375 -0.2126
71232W        W14144   3.858  17.907   5.881  0.2315 -0.0841  0.1708
71233W        W14145   4.119  17.353   7.080 -0.1028 -0.0096 -0.0419
71234W        W14146   4.862  19.424   6.092  0.1583  0.2066  0.1381
71235W        W14147   3.642  14.901   4.056  0.0416  0.0063 -0.0967
71236W        W14148   7.925  15.542   4.397 -0.0348  0.3917 -0.0750
71237W        W14149   5.345  15.247   5.900 -0.0282 -0.3907  0.0865
71238W        W14150   5.705  14.900   5.723 -0.0013  0.1698  0.0138
71239W        W14151   4.524  16.390   6.821  0.0097 -0.0868 -0.3115
71240W        W14152   6.803  17.283   5.781 -0.3013  0.1385 -0.0314
71241W        W14153   5.869  15.872   5.289  0.1229 -0.0032 -0.0025
71242W        W14154   3.152  15.350   7.028 -0.0158 -0.0386 -0.1600
71243W        W14155   5.521  15.496   3.148  0.0830  0.1054 -0.0593
71244W        W14156   6.824  17.501   8.490  0.1042  0.0011  0.2505
71245W        W14157   6.244  15.188   3.902  0.1563 -0.4143  0.1954
71246W        W14158   5.810  17.906   6.662  0.2372 -0.1698  0.2740
71247W        W14159   4.088  14.957   4.925  0.0528  0.2069  0.1606
71248W        W14160   5.831  16.371   3.751  0.1907 -0.1788  0.0383
71249W        W14161   4.133  17.504   3.274  0.1458 -0.0185  0.2227
71250W        W14162   4.691  16.028   6.125  0.0460  0.0142 -0.1301
71251W        W14163   6.020  18.271   7.109 -0.1010  0.5091 -0.2678
71252W        W14164   3.181  14.627   4.629  0.2886  0.3248  0.1028
71253W        W14165   8.089  16.862   5.506 -0.1362 -0.0855  0.3617
71254W        W14166   6.368  16.735   6.955 -0.4024  0.0205 -0.0410
71255W        W14167   5.880  18.119   4.164 -0.2977  0.0003  0.1714
71256W        W14168   5.815  17.307   4.381  0.1714  0.2519 -0.2715
71257W        W14169   9.097  17.160   6.267 -0.1370 -0.0474 -0.1515
71258W        W14170   4.789  14.357   7.012  0.0454  0.1954 -0.1435
71259W        W14171   6.705  18.957   6.104  0.1251 -0.0924  0.2586
71260W        W14172   6.915  17.567   5.352  0.3602  0.1015  0.3143
71261W        W14173   6.933  14.617   4.488 -0.2948 -0.1408 -0.0715
71262W        W14174   4.392  16.463   4.907  0.0892 -0.0353 -0.1112
71263W        W14175   3.231  17.949   5.316 -0.0964 -0.2947 -0.1534
71264W        W14176   6.446  15.998   4.401  0.2116 -0.1741  0.1830
71265W        W14177   5.040  14.888   7.793  0.0836 -0.1046 -0.4298
71266W        W14178   4.884  17.763   2.869  0.0087  0.0515  0.0004
71267W        W14179   6.588  13.443   7.961  0.1793 -0.0510 -0.2299
71268W        W14180   6.439  18.283   5.131 -0.0658  0.1449 -0.0711
71269W        W14181   3.438  16.411   7.393 -0.1323 -0.5009 -0.1361
71270W        W14182   4.970  15.296   1.996 -0.3153 -0.0067  0.6152
71271W        W14183   4.931  16.167   6.596 -0.1984  0.2327  0.0055
71272W        W14184   3.775  17.523   4.731 -0.0279 -0.0739  0.0931
71273W        W14185   5.551  16.088   4.884  0.4820  0.5370 -0.0531
71274W        W14186   6.406  16.969   5.736 -0.1423 -0.2777 -0.3505
71275W        W14187   6.379  16.055   5.355 -0.2853 -0.1036  0.0957
71276W        W14188   8.184  15.749   4.915  0.1738 -0.0350 -0.1163
71277W        W14189   4.688  15.383   2.901 -0.1078 -0.1365  0.0237
71278W        W14190   8.269  13.571   4.313 -0.0026  0.1559 -0.0768
71279W        W14191   6.715  15.145   5.365 -0.1160  0.1334  0.0367
71280W        W14192   5.082  17.005   7.148 -0.2731  0.2626 -0.2477
71281W        W14193   5.757  14.898   3.964  0.0757 -0.0528  0.2236
71282W        W14194   4.653  16.965   4.928  0.0353  0.2448  0.1221
71283W        W14195   3.350  17.582   5.025 -0.1331  0.0088 -0.0249
71284W        W14196   5.262  14.490   7.543 -0.0235 -0.2009  0.1522
71285W        W14197   3.727  15.730   7.125  0.1837 -0.4002 -0.1027
71286W        W14198   4.297  16.392   6.139  0.1258 -0.2030  0.3187
71287W        W14199   4.589  14.810   4.189  0.5133 -0.1652  0.1436
71288W        W14200   8.174  17.399   5.211  0.3265 -0.1720 -0.2702
71289W        W14201   5.581  14.600   4.491  0.1254 -0.2198  0.0080
71290W        W14202   3.593  15.285   4.385  0.1460 -0.3522 -0.1388
71291W        W14203   5.714  17.722   4.677  0.1929 -0.2100 -0.0031
71292W        W14204   6.060  17.581   3.981  0.2605  0.0075  0.2793
71293W        W14205   6.714  15.031   4.749  0.1518 -0.2113  0.2125
71294W        W14206   7.210  17.152   8.705 -0.0832  0.0031  0.2050
71295W        W14207   4.590  17.532   4.061  0.1770  0.2393  0.2549
71296W        W14208   5.956  15.661   7.164 -0.0652 -0.0830  0.0553
71297W        W14209   4.037  13.862   7.645 -0.1403  0.0255  0.1278
71298W        W14210   5.831  14.692   3.267 -0.0385 -0.2637  0.0833
71299W        W14211   5.059  16.121   3.732 -0.1977  0.1879 -0.3919
71300W        W14212   6.430  17.676   5.311 -0.0822 -0.1959  0.1849
71301W        W14213   7.402  17.018   5.114  0.0042  0.1422 -0.0367
71302W        W14214   5.056  17.765   7.009 -0.0038  0.1654  0.2398
71303W        W14215   4.259  16.907   6.310  0.0374  0.2280  0.1245
71304W        W14216   3.713  14.683   6.274  0.0126 -0.0908 -0.1093
71305W        W14217   5.807  16.803   5.463 -0.0483 -0.0578 -0.1063
71306W        W14218   4.697  16.611   6.351 -0.1986 -0.2624 -0.0802
71307W        W14219   6.793  18.504   3.056  0.1294 -0.1450 -0.3488
71308W        W14220   7.358  14.229   5.110  0.1384 -0.2151  0.0666
71309W        W14221   6.082  15.606   4.323 -0.1507 -0.0050  0.3111
71310W        W14222   3.746  14.167   7.333  0.0832  0.1445 -0.1325
71311W        W14223   4.628  16.098   7.558 -0.2178  0.1406  0.2705
71312W        W14224   8.423  17.116   4.904 -0.2634  0.3552  0.2012
71313W        W14225   3.590  14.831   5.774 -0.3663 -0.0521  0.1449
71314W        W14226   7.468  14.169   3.829 -0.1672 -0.1456  0.0478
71315W        W14227   5.496  17.181   4.075 -0.1994  0.0788  0.1652
71316W        W14228   4.681  15.619   4.888 -0.0990 -0.0199 -0.4388
71317W        W14229   5.293  16.110   5.843  0.3177  0.1936  0.2394
71318W        W14230   5.067  15.645   5.723  0.2523  0.0742 -0.0613
71319W        W14231   4.858  18.139   4.130  0.0061 -0.0518 -0.3028
71320W        W14232   5.623  16.224   7.283  0.3315 -0.0222  0.0699
71321W        W14233   6.533  15.626   4.005  0.2344  0.0707  0.2436
71322W        W14234   6.191  16.206   3.498  0.2864  0.1780 -0.0442
71323W        W14235   5.294  19.148   6.077 -0.1674 -0.4497  0.1512
71324W        W14236   8.311  17.141   7.861  0.3394 -0.0344  0.0050
71325W        W14237   6.085  17.394   7.091 -0.0776 -0.0889 -0.2784
71326W        W14238   7.294  16.851   6.351 -0.1222  0.2197  0.0701
71327W        W14239   4.191  14.607   6.328  0.0448 -0.1969  0.1073
71328W        W14240   5.588  16.633   5.029  0.2771  0.2158  0.0307
71329W        W14241   4.486  18.287   5.361  0.0534 -0.2685 -0.1734
71330W        W14242   7.012  15.376   6.253  0.0717  0.0616 -0.0659
71331W        W14243   4.097  16.050   7.306 -0.1369 -0.0551 -0.0846
71332W        W14244   5.204  13.794   4.043 -0.0486  0.0517 -0.0293
71333W        W14245   4.812  17.531   5.941  0.0575  0.2813 -0.0332
71334W        W14246   5.278  17.358   5.920 -0.2826  0.1604 -0.2911
71335W        W14247   5.067  17.781   9.332  0.1119 -0.3381 -0.3509
71336W        W14248   3.794  15.095   7.769  0.1690  0.0053  0.1969
71337W        W14249   5.678  15.298   6.951  0.0622  0.0084  0.1400
71338W        W14250   6.281  16.424   7.917  0.0282  0.2252 -0.0952
71339W        W14251   3.133  16.008   8.166 -0.2317  0.0082 -0.0334
71340W        W14252   6.498  17.362   8.159  0.2364  0.3095  0.3171
71341W        W14253   6.316  16.719   8.916  0.0538  0.0951  0.0639
71342W        W14254   7.275  16.107   9.155 -0.0526  0.1116 -0.0386
71343W        W14255   7.142  17.112   7.607 -0.2336 -0.1680  0.1400
71344W        W14256   5.849  12.897   9.227 -0.0002  0.2179  0.0711
71345W        W14257   2.865  13.839   8.373  0.0176 -0.2502 -0.0750
71346W        W14258   3.701  14.179   8.967  0.0784 -0.1749  0.3434
71347W        W14259   4.704  16.468   9.220 -0.0806  0.1196  0.3576
71348W        W14260   3.508  15.567   7.875  0.0348  0.2153  0.0669
71349W        W14261   5.977  14.937   9.522 -0.1347  0.0765  0.3242
71350W        W14262   4.284  14.979   7.633 -0.0831  0.0979  0.1475
71351W        W14263   7.166  17.324   9.753 -0.1242 -0.3212 -0.0511
71352W        W14264   4.353  15.144   8.769  0.1415  0.1557 -0.0501
71353W        W14265   5.868  16.569   7.646 -0.0477 -0.0144 -0.0203
71354W        W14266   4.112  15.890   6.176  0.2807  0.1766  0.0301
71355W        W14267   3.483  15.628   8.375 -0.1555  0.2628  0.1999
71356W        W14268   4.035  16.054   9.667  0.0848 -0.1435  0.0389
71357W        W14269   6.972  15.676   9.040  0.1112 -0.0391  0.0805
71358W        W14270   5.482  14.419   8.569 -0.3578 -0.0393 -0.1675
71359W        W14271   4.207  18.571   8.498 -0.3034 -0.2160  0.0139
71360W        W14272   5.700  17.733   8.581  0.0840 -0.0144 -0.1295
71361W        W14273   3.604  16.087   7.983  0.0796  0.0751 -0.0738
71362W        W14274   3.812  17.888   8.120 -0.1814 -0.2278 -0.0173
71363W        W14275   4.171  18.105   7.810  0.2617  0.2466 -0.0505
71364W        W14276   7.062  17.191   8.125  0.1635  0.2671 -0.0735
71365W        W14277   3.215  16.405   7.916  0.5144 -0.4508  0.2511
71366W        W14278   5.388  15.222   9.740 -0.1382  0.2749  0.0655
71367W        W14279   5.995  15.065   7.395 -0.0178 -0.0085  0.1541
71368W        W14280   4.881  15.951   8.399 -0.2186 -0.2169 -0.1552
71369W        W14281   4.753  15.518   9.316  0.0401 -0.4373 -0.0137
71370W        W14282   3.600  16.178  10.055 -0.0445 -0.1136  0.0203
71371W        W14283   5.317  18.630   7.318  0.0421  0.0632 -0.1925
71372W        W14284   4.861  15.192   5.992 -0.0107 -0.2215 -0.2160
71373W        W14285   5.881  15.499   7.662  0.0534  0.0373  0.0999
71374W        W14286   5.968  14.871   6.848  0.0110 -0.1067 -0.4352
71375W        W14287   5.725  14.319   7.335  0.2235 -0.1581 -0.0841
71376W        W14288   5.163  16.228   8.889  0.0995  0.2813 -0.0260
71377W        W14289   6.377  14.958  10.059  0.1137  0.3463  0.1960
71378W        W14290   5.399  15.792   8.304  0.2655 -0.1023 -0.0277
71379W        W14291   6.364  15.606   8.673  0.2700  0.0989  0.0952
71380W        W14292   4.289  17.786   8.999  0.0265  0.0416  0.1015
71381W        W14293   3.136  15.915   8.738 -0.0900  0.1264  0.0280
71382W        W14294   7.546  17.998   8.498  0.0321 -0.0135 -0.3304
71383W        W14295   8.085  17.123   9.384 -0.0249  0.3837 -0.1530
71384W        W14296   6.401  17.966   7.035 -0.1155  0.3566 -0.0909
71385W        W14297   3.023  15.505   8.177 -0.1308 -0.1601 -0.2481
71386W        W14298   4.440  13.511   5.564  0.2363  0.2505  0.0647
71387W        W14299   5.638  14.504   9.053  0.1049 -0.1105 -0.0070
71388W        W14300   5.406  16.331   9.776  0.0488  0.1546  0.1781
71389W        W14301   7.467  17.979  10.053 -0.1260  0.0866  0.1594
71390W        W14302   5.863  17.425   6.644 -0.3227  0.0851  0.0078
71391W        W14303   6.525  14.912   9.307 -0.0065  0.3446  0.1017
71392W        W14304   5.024  14.358   8.423  0.1830  0.0299 -0.4234
71393W        W14305   4.176  16.003   6.737 -0.0000 -0.2173 -0.3675
71394W        W14306   5.862  16.491   8.189  0.0553 -0.0523  0.0031
71395W        W14307   8.733  18.109   8.619  0.0290  0.3853  0.1361
71396W        W14308   7.716  15.956   7.142  0.0030  0.1721 -0.0643
71397W        W14309   7.166  16.709   9.860  0.0226  0.2831 -0.3426
71398W        W14310   3.449  17.565   7.608  0.0704  0.0878 -0.2579
71399W        W14311   2.082  14.820   9.828 -0.0199 -0.1906 -0.1479
71400W        W14312   3.944  15.606   7.552  0.0829 -0.1598 -0.0977
71401W        W14313   3.221  14.072   8.983  0.1041 -0.1735 -0.0538
71402W        W14314   4.223  14.952   9.219 -0.0354  0.0411 -0.2158
71403W        W14315   6.440  14.892   7.656  0.1817  0.1014 -0.0271
71404W        W14316   7.522  14.803   8.448  0.3170  0.0901  0.0930
71405W        W14317   4.060  16.881   7.962 -0.1177 -0.1635 -0.0867
71406W        W14318   7.695  17.086   9.068 -0.0183  0.2290 -0.0273
71407W        W14319   7.619  15.707   7.961 -0.1485  0.1761  0.0530
71408W        W14320   7.289  16.278   6.771  0.1369 -0.2800 -0.1097
71409W        W14321   3.792  14.686   9.288 -0.2675  0.0025  0.0505
71410W        W14322   3.840  15.134   8.877  0.1292  0.1119 -0.2040
71411W        W14323   3.400  13.600   8.469 -0.1308 -0.1357 -0.1715
71412W        W14324   3.243  14.177   8.142  0.0545  0.0979  0.0542
71413W        W14325   6.652  14.985   8.366 -0.0093  0.2797 -0.3427
71414W        W14326   3.955  16.369   8.187 -0.0805  0.0480  0.2387
71415W        W14327   2.164  16.848   9.595  0.1917  0.0143  0.0792
71416W        W14328   5.313  18.428   7.830 -0.0752 -0.1096 -0.1350
71417W        W14329   1.006   9.560   9.604 -0.4496  0.0396 -0.4407
71418W        W14330   7.332  16.581   9.009 -0.0926 -0.2193  0.2245
71419W        W14331   3.442  15.397   9.640  0.1579  0.2586  0.2465
71420W        W14332   3.543  13.585   7.108 -0.4125 -0.0395  0.0546
71421W        W14333   5.336  19.522   9.018  0.0964 -0.0550 -0.1353
71422W        W14334   4.610  18.298   8.583 -0.1878 -0.2349 -0.3486
71423W        W14335   3.742  14.225   7.888 -0.0222  0.4178 -0.1477
71424W        W14336   7.824  15.915   8.392  0.1134 -0.0261  0.0968
71425W        W14337   5.912  17.110   7.953 -0.1789  0.1512 -0.3486
71426W        W14338   5.560  16.855   8.180 -0.0508 -0.0770  0.1825
71427W        W14339   7.973  16.256   8.776 -0.3215  0.4573 -0.4545
71428W        W14340   2.694  13.604   7.557 -0.0429  0.1206 -0.0996
71429W        W14341   5.700  16.053   7.929  0.1710 -0.1533 -0.2225
71430W        W14342   4.277  17.962   8.295 -0.1528 -0.0893  0.1365
71431W        W14343   3.465  15.530   9.050  0.0412 -0.0376  0.1806
71432W        W14344   6.024  16.071   9.015 -0.3149 -0.3345  0.0100
71433W        W14345   7.050  14.562   9.160 -0.1692  0.2215  0.0021
71434W        W14346   3.677  15.194   6.162 -0.0841  0.0850 -0.2898
71435W        W14347   5.204  14.783   8.795 -0.0016 -0.0374  0.1012
71436W        W14348   6.643  14.407   7.762  0.4631 -0.1909  0.1610
71437W        W14349   6.725  15.645   7.993  0.0141  0.0665 -0.1214
71438W        W14350   6.685  15.097   7.228  0.0570 -0.0661 -0.2235
71439W        W14351   5.680  13.869   7.163 -0.0748 -0.2441 -0.0091
71440W        W14352   6.570  17.481   7.168  0.1168  0.1409  0.0185
71441W        W14353   3.365  16.675   9.773 -0.1137  0.3268 -0.1531
71442W        W14354   5.548  14.805   7.277 -0.2289 -0.1746 -0.1687
71443W        W14355   6.778  17.398   9.495  0.4185  0.2429  0.1041
71444W        W14356   4.842  18.205   9.215 -0.1039 -0.0132  0.0537
71445W        W14357   9.634  18.780   9.919  0.3036  0.2029  0.0793
71446W        W14358   5.821  15.410   8.383  0.1165 -0.0723 -0.1992
71447W        W14359   5.156  16.025   7.946 -0.0734  0.0113 -0.0016
71448W        W14360   6.204  14.922   8.534  0.1805 -0.2092  0.3252
71449W        W14361   3.481  19.119   6.866 -0.0150  0.1157 -0.1409
71450W        W14362   5.753  14.917   8.755 -0.2516 -0.4370 -0.0648
71451W        W14363   6.645  15.169   8.834 -0.2428  0.1666 -0.1202
71452W        W14364   6.017  15.126   7.989  0.0638 -0.2159 -0.0950
71453W        W14365   5.548  15.854   9.199  0.1829 -0.4738  0.1194
71454W        W14366   4.585  15.970   7.058 -0.3719 -0.2048 -0.1196
71455W        W14367   6.067  17.219   9.952 -0.0637  0.0333 -0.0759
71456W        W14368   5.427  19.675   9.836 -0.0809  0.0145 -0.0991
71457W        W14369   4.957  17.362   8.896 -0.3492  0.1400  0.2961
71458W        W14370   5.369  15.803   7.544  0.4633  0.2911 -0.0011
71459W        W14371   6.144  19.353   8.466 -0.1353 -0.3466 -0.0932
71460W        W14372   3.779  17.277   7.788 -0.2816 -0.2068 -0.0004
71461W        W14373   4.555  15.542   8.524  0.1380 -0.3280 -0.1878
71462W        W14374   6.424  17.155   9.234 -0.3321 -0.2803  0.2004
71463W        W14375   5.707  18.299   6.331 -0.0549  0.1037  0.3290
71464W        W14376   4.816  15.195  10.306 -0.0051 -0.1828 -0.0681
71465W        W14377   4.706  17.330   8.045 -0.2236 -0.0483 -0.1815
71466W        W14378   5.393  13.395   9.092  0.1671  0.0080 -0.0650
71467W        W14379   5.223  16.770   8.628 -0.2410 -0.2657 -0.2112
71468W        W14380   2.931  14.979   7.753  0.0153  0.3497  0.0602
71469W        W14381   1.990  14.742   7.783 -0.0452 -0.0805  0.2491
71470W        W14382   6.885  14.135   8.730 -0.0483 -0.0530 -0.0745
71471W        W14383   7.572  16.165   7.692  0.1423 -0.1016  0.2573
71472W        W14384   3.392  13.367   9.390  0.3055  0.0442  0.2657
71473W        W14385   5.411  15.290   8.782  0.3618  0.4034 -0.1754
71474W        W14386   4.640  17.536   9.211 -0.1189 -0.0153 -0.2966
71475W        W14387   5.854  14.212   8.100  0.2410 -0.1490  0.2691
71476W        W14388   2.465  15.690   6.443  0.0001 -0.2132  0.0471
71477W        W14389   7.825  15.268   9.147 -0.3159 -0.2541  0.2986
71478W        W14390   5.120  14.332   9.070 -0.0647  0.1710 -0.1722
71479W        W14391   4.641  17.065   9.861  0.0223 -0.2556  0.0857
71480W        W14392   4.571  17.539   8.568  0.1896 -0.1560 -0.0003
71481W        W14393   5.271  15.770   8.760  0.1368  0.0877 -0.0170
71482W        W14394   3.657  16.369   9.450  0.3301 -0.0015 -0.0111
71483W        W14395   6.833  16.473   8.095 -0.0020 -0.2660  0.2973
71484W        W14396   5.383  15.042   8.269  0.1096  0.0497 -0.1876
71485W        W14397   4.624  15.132   8.036  0.1864 -0.0547  0.1109
71486W        W14398   5.483  15.005   9.196 -0.0402  0.1953  0.1151
71487W        W14399   5.582  15.757   9.724 -0.0566 -0.1512  0.3232
71488W        W14400   6.565  17.174  10.167  0.0226 -0.0034  0.1146
71489W        W14401   4.946  13.810   9.225  0.0165 -0.1085 -0.2162
71490W        W14402   6.893  17.080   7.011 -0.0740 -0.4690  0.0957
71491W        W14403   4.579  15.721   8.068  0.1374  0.0352  0.1000
71492W        W14404   3.459  14.776   9.697  0.0679  0.0256  0.2670
71493W        W14405   6.050  15.945   8.468  0.0834 -0.0080 -0.2599
71494W        W14406   6.325  15.286   9.540  0.1094  0.1472 -0.1933
71495W        W14407   4.847  17.119   8.468  0.0862  0.0637 -0.1473
71496W        W14408   3.422  16.935   8.586 -0.1289  0.0133  0.1037
71497W        W14409   4.167  17.035   9.807 -0.0809 -0.0036 -0.1208
71498W        W14410   4.921  14.192   7.926 -0.1589  0.2880 -0.0624
71499W        W14411   6.575  16.932   7.338 -0.0074  0.2462  0.1136
71500W        W14412   4.173  15.817   8.796 -0.3860 -0.0322 -0.2470
71501W        W14413   7.203  16.575   7.676 -0.0783 -0.1757  0.0217
71502W        W14414   1.941  14.765   9.388 -0.3865  0.1252  0.0935
71503W        W14415   8.230  16.006   9.290 -0.1007  0.0183  0.1795
71504W        W14416   5.802  14.721   8.236 -0.0810 -0.0789  0.0949
71505W        W14417   4.058  13.920   8.206  0.1076  0.0624 -0.0441
71506W        W14418   6.258  18.269   9.755  0.0698 -0.3499  0.0159
71507W        W14419   7.655  16.919   9.671 -0.1742  0.0316 -0.1391
71508W        W14420   6.868  16.720   6.610 -0.0403  0.1796 -0.3054
71509W        W14421   5.464  15.477   7.917 -0.1539 -0.1145 -0.1199
71510W        W14422   4.481  13.459   9.284  0.0205 -0.1577  0.0457
71511W        W14423   6.051  16.027   7.529 -0.0372 -0.2871 -0.1380
71512W        W14424   6.597  16.219   7.076 -0.1219 -0.1111 -0.1051
71513W        W14425   4.671  16.815   8.825  0.0105  0.0254  0.1001
71514W        W14426   7.143  16.611   8.496 -0.1773  0.0639  0.0566
71515W        W14427   7.372  15.668   9.417 -0.0137  0.1317  0.3163
71516W        W14428   5.489  17.464   8.986 -0.0278  0.3730  0.1988
71517W        W14429   7.089  14.836   6.959  0.0038 -0.1965  0.0552
71518W        W14430   8.044  15.152   9.639  0.0187 -0.1931  0.3524
71519W        W14431   5.731  16.710   8.626  0.2017 -0.1656  0.1898
71520W        W14432   5.392  15.407   6.548  0.1154  0.1352 -0.2499
71521W        W14433   5.266  14.859  10.087  0.4457 -0.0409 -0.2605
71522W        W14434   3.494  15.405   6.692 -0.0325  0.3235  0.1842
71523W        W14435   5.090  16.755   9.114 -0.1009 -0.1618 -0.0363
71524W        W14436   5.559  16.954   9.052 -0.1645  0.0682 -0.0203
71525W        W14437   5.429  15.772   6.994  0.1411  0.2921  0.0109
71526W        W14438   1.786  16.066   9.650  0.0541  0.2109  0.0776
71527W        W14439   4.937  15.691   7.275  0.0871  0.2917 -0.2523
71528W        W14440   6.298  16.485   7.367 -0.0774  0.2139 -0.1008
71529W        W14441   6.885  16.598   9.343 -0.1136 -0.2225  0.2845
71530W        W14442   5.433  14.436   8.028 -0.2688  0.0679 -0.0114
71531W        W14443   3.484  17.533   8.680  0.0218  0.2182 -0.2257
71532W        W14444   6.095  14.414   8.494 -0.2332 -0.0349  0.5232
71533W        W14445   3.625  17.148   9.661 -0.1382  0.2988  0.0031
71534W        W14446   5.031  16.821   9.625 -0.2650  0.0725  0.0400
71535W        W14447   6.183  16.408   9.569 -0.0916 -0.0080  0.2514
71536W        W14448   6.496  16.065   8.751  0.0744 -0.0276  0.0975
71537W        W14449   6.848  16.001   9.468 -0.0281 -0.0522  0.0065
71538W        W14450   4.320  14.991   9.696  0.2792  0.2767 -0.0782
71539W        W14451   6.147  15.744   8.032 -0.1953  0.0387 -0.0081
71540W        W14452   8.610  14.789   9.897  0.0027  0.1120 -0.1492
71541W        W14453   5.240  15.460   9.314  0.0933 -0.3056 -0.0954
71542W        W14454   3.280  15.221   8.644  0.0841 -0.0071 -0.0724
71543W        W14455   5.560  17.540   8.176  0.0209  0.0207  0.2749
71544W        W14456   3.668  15.878   8.734  0.0999  0.0290 -0.1013
71545W        W14457   5.575  19.424   7.981  0.2023 -0.0694  0.2169
71546W        W14458   6.335  17.454   7.668  0.1549 -0.5805  0.0504
71547W        W14459   6.169  16.805   8.358 -0.0907  0.2448  0.1009
71548W        W14460   7.955  19.200  10.029 -0.1220 -0.3045 -0.0650
71549W        W14461   3.687  16.216   6.948  0.0768 -0.2687 -0.2942
71550W        W14462   3.751  17.750   9.043  0.4046  0.3726  0.6064
71551W        W14463   3.904  16.404   7.670  0.1902  0.1672  0.2330
71552W        W14464   6.043  17.602   8.049  0.0992 -0.1701 -0.0605
71553W        W14465   5.561  18.959   8.176  0.1126 -0.0615  0.3639
71554W        W14466   4.843  15.211   5.426 -0.1809 -0.1230  0.0022
71555W        W14467   6.126  15.203   8.996 -0.0109  0.1937 -0.2470
71556W        W14468   7.218  15.381   7.778  0.1872 -0.0483  0.3135
71557W        W14469   4.486  15.769   9.828 -0.2193  0.0625  0.0851
71558W        W14470   4.638  14.643   8.018 -0.1527 -0.0153 -0.1412
71559W        W14471   8.267  17.339   6.638  0.0100  0.1220 -0.0366
71560W        W14472   2.306  15.148   8.132 -0.0709 -0.1794 -0.0998
71561W        W14473   4.486  16.017   9.299  0.1236 -0.0876 -0.1721
71562W        W14474   3.397  13.732   9.753  0.2867  0.0355 -0.1560
71563W        W14475   4.550  15.429   6.960 -0.0162  0.0730 -0.1115
71564W        W14476   7.020  15.028   9.785 -0.1995  0.1643  0.2624
71565W        W14477   6.696  16.432   9.903  0.1200 -0.1307 -0.3028
71566W        W14478   6.476  15.709   9.209  0.0081 -0.1102  0.0268
71567W        W14479   7.402  20.550  10.036 -0.0370  0.2644 -0.2279
71568W        W14480   3.579  14.714   7.510 -0.2941 -0.1340  0.1689
71569W        W14481   8.200  14.893   8.723  0.1059 -0.0862  0.2304
71570W        W14482   5.417  13.160   9.485  0.4003 -0.2589 -0.1828
71571W        W14483   4.183  15.459   7.966 -0.1359 -0.0012 -0.3165
71572W        W14484   4.954  15.509   7.841  0.2065  0.1039  0.0167
71573W        W14485   4.518  14.545   9.461  0.2402 -0.0585 -0.2357
71574W        W14486   5.933  17.383   9.423 -0.2051 -0.0727  0.1418
71575W        W14487   6.095  16.115   7.016 -0.0687 -0.1877  0.0931
71576W        W14488   5.058  16.241   7.101 -0.2573  0.2643  0.2959
71577W        W14489   3.649  15.045   8.401 -0.1341 -0.0955 -0.0320
71578W        W14490   4.277  15.464   9.138  0.2249 -0.0989 -0.3231
71579W        W14491   3.393  16.206   9.070  0.2479  0.0585 -0.0399
71580W        W14492   4.057  15.571   9.699 -0.2335 -0.2309 -0.3763
71581W        W14493   3.014  14.938   9.536  0.0627 -0.1320  0.1339
71582W        W14494   7.540  17.457   8.420  0.1002 -0.1773  0.1223
71583W        W14495   8.948  17.432   9.507 -0.1448  0.0585 -0.0857
71584W        W14496   5.768  18.518   8.080  0.0445 -0.1942  0.0911
71585W        W14497   5.201  17.212   8.043 -0.0136  0.0359 -0.1159
71586W        W14498   5.502  17.563   9.764 -0.1316 -0.0457  0.0249
71587W        W14499   2.197  14.319   9.235 -0.0280  0.0362 -0.0829
71588W        W14500   9.316  17.463   9.185  0.0818  0.1587  0.2066
71589W        W14501   6.529  14.384   9.053  0.0938  0.2565 -0.3634
71590W        W14502   5.543  14.998   7.811 -0.1483 -0.2542  0.2563
71591W        W14503   3.417  15.043   9.215  0.2122 -0.0383  0.0723
71592W        W14504   5.446  16.477   7.849 -0.0454  0.1793 -0.0311
71593W        W14505   7.635  15.680   8.870  0.1561 -0.1477  0.2156
71594W        W14506   5.572  17.760   7.269  0.1280  0.2043  0.0798
71595W        W14507   5.973  17.258   8.482 -0.0163  0.0408  0.0431
71596W        W14508   3.505  14.707   6.975 -0.2349  0.1114 -0.3709
71597W        W14509   4.231  16.003   7.832 -0.1540  0.0950 -0.1397
71598W        W14510   5.074  17.678   7.948 -0.2643 -0.2916  0.3645
71599W        W14511   7.532  17.422   9.382 -0.2965 -0.2229 -0.0535
71600W        W14512   4.453  14.729   8.446  0.0801 -0.3570 -0.0144
71601W        W14513   8.043  16.124   8.006 -0.2670  0.1225 -0.0565
71602W        W14514   4.524  14.250   8.333 -0.0353  0.3606  0.2190
71603W        W14515   6.850  15.602   8.468  0.1309  0.2623  0.0408
71604W        W14516   6.818  15.145   7.834 -0.1291  0.1946 -0.1861
71605W        W14517   4.373  17.213   8.902  0.2013 -0.0662 -0.1168
71606W        W14518   2.828  15.038   8.310 -0.0481 -0.0637  0.0152
71607W        W14519   4.537  17.132   7.235  0.1366  0.1359 -0.1244
71608W        W14520   4.450  16.218   8.780  0.4571  0.2478  0.0246
71609W        W14521   3.650  16.689   8.990 -0.0403  0.1491 -0.1280
71610W        W14522   3.924  15.774   8.208  0.1812  0.2055  0.1214
71611W        W14523   7.647  16.828   8.658 -0.1729 -0.0087 -0.0759
71612W        W14524   3.552  14.199   9.495  0.0923  0.0382  0.4928
71613W        W14525   4.332  16.120   8.330 -0.0675 -0.1862 -0.0860
71614W        W14526   7.050  17.772   9.354 -0.2806 -0.1508 -0.2990
71615W        W14527   6.858  16.342   8.939 -0.1110 -0.2080 -0.1087
71616W        W14528   2.583  14.940   9.812  0.0427  0.0569  0.3626
71617W        W14529   2.618  15.419   7.886 -0.1015  0.0397 -0.0877
71618W        W14530   3.182  14.590   7.847  0.0618  0.0001 -0.0734
71619W        W14531   6.004  14.164   9.026  0.0126  0.0081  0.3266
71620W        W14532   4.401  16.229  10.029  0.0515 -0.0472  0.2287
71621W        W14533   6.086  17.002   7.454  0.0097 -0.0108 -0.1758
71622W        W14534   3.014  14.787  10.153  0.0401 -0.1991 -0.2820
71623W        W14535   6.093  16.394   8.612 -0.1638 -0.3886 -0.2663
71624W        W14536   8.140  17.795   6.822 -0.3313  0.0608 -0.1371
71625W        W14537   5.846  15.395   9.968 -0.0524  0.1987  0.2591
71626W        W14538   4.701  16.336   8.057 -0.0058  0.0482  0.0562
71627W        W14539   6.661  17.943   9.713  0.0213 -0.0208 -0.1150
71628W        W14540   4.141  14.916   8.117 -0.1322 -0.0318  0.0481
71629W        W14541   7.125  14.381   7.137  0.0651  0.0035 -0.3499
71630W        W14542   6.684  16.939   8.338 -0.0201  0.0062 -0.0522
71631W        W14543   6.478  16.237   9.261  0.2034 -0.2436 -0.0712
71632W        W14544   5.809  15.423   9.401  0.1785 -0.0516  0.0010
71633W        W14545   5.299  16.324   8.335  0.0603  0.0324  0.2324
71634W        W14546   5.352  15.981   6.541 -0.1050  0.2767 -0.0589
71635W        W14547   8.668  16.887   7.577  0.0807  0.2632 -0.4005
71636W        W14548   6.786  18.940  10.191 -0.0514 -0.3395  0.2116
71637W        W14549   6.684  16.856  10.796  0.1066  0.0844  0.0217
71638W        W14550   9.202  16.396   9.643 -0.3881  0.2158  0.0288
71639W        W14551   4.873  15.162   8.869  0.0007 -0.0347  0.1676
71640W        W14552   3.550  16.274   8.453  0.1902  0.0689 -0.0947
71641W        W14553   4.840  16.440   8.547 -0.0494 -0.1192  0.1819
71642W        W14554   3.914  13.441   8.446 -0.0012  0.2514 -0.0252
71643W        W14555   5.010  15.441   8.316  0.1878  0.1665  0.3047
71644W        W14556   7.631  14.440   7.760  0.3062  0.0808  0.1415
71645W        W14557   5.712  16.516   9.181  0.4229 -0.3793  0.2894
71646W        W14558   6.013  15.896   9.478 -0.0932 -0.0051 -0.1798
71647W        W14559   6.379  21.780   1.463 -0.1230  0.2604 -0.0597
71648W        W14560   4.601  19.991  31.572  0.0646  0.0360 -0.1126
71649W        W14561   8.174  17.581   0.457 -0.1266 -0.4753 -0.1803
71650W        W14562   8.912  19.752  31.868  0.2243 -0.3132  0.0085
71651W        W14563   4.540  20.065   0.669  0.0272 -0.2032 -0.0499
71652W        W14564   6.174  22.453   0.909 -0.2385  0.0750 -0.1464
71653W        W14565   3.968  18.951   2.679 -0.1038  0.3099 -0.1571
71654W        W14566   5.249  19.927   0.007 -0.0279 -0.2128 -0.0383
71655W        W14567   7.526  19.583   2.019 -0.2859 -0.0977 -0.0947
71656W        W14568   5.335  19.056   1.013  0.1328 -0.0456  0.1482
71657W        W14569   5.679  19.395   2.647 -0.1974  0.0965 -0.0395
71658W        W14570   5.371  22.566   2.781 -0.3892  0.2739  0.0347
71659W        W14571   5.909  19.662   1.743  0.1012  0.4796 -0.3165
71660W        W14572   4.868  18.993   2.422  0.2049 -0.1284 -0.0251
71661W        W14573   7.457  20.165   2.842  0.0582  0.1459 -0.0686
71662W        W14574   3.888  19.620   1.480  0.1601  0.3046  0.0556
71663W        W14575   5.408  18.701   3.375 -0.0362  0.1106  0.2748
71664W        W14576   5.588  19.479   0.819  0.2348 -0.2836 -0.2282
71665W        W14577   5.400  20.850   0.758 -0.0441  0.1014 -0.0883
71666W        W14578   4.281  19.152   2.380 -0.1129 -0.1923 -0.0624
71667W        W14579   5.930  17.753   3.355  0.2323 -0.1367  0.0041
71668W        W14580   5.006  19.593  31.665  0.0014  0.3333 -0.2907
71669W        W14581   2.722  21.243  31.854  0.1620  0.0888  0.3973
71670W        W14582   4.020  18.709   0.082 -0.2461  0.1806 -0.0086
71671W        W14583   3.513  19.719   2.724 -0.1581  0.0169  0.2871
71672W        W14584   6.893  18.028   0.716  0.0743 -0.3991 -0.1323
71673W        W14585   5.585  20.077   0.988 -0.0704  0.1034 -0.3723
71674W        W14586   4.799  21.314   1.483 -0.0782 -0.2612 -0.0397
71675W        W14587   5.914  20.328   0.219 -0.1708 -0.2288 -0.0219
71676W        W14588   8.147  19.234   3.736 -0.0569  0.3343  0.0031
71677W        W14589   2.063  21.801   2.383  0.0232 -0.1323  0.0522
71678W        W14590   2.839  21.243   1.349 -0.1116 -0.0250 -0.1546
71679W        W14591   3.777  18.648   1.381  0.0055  0.1391 -0.1724
71680W        W14592   8.397  20.170  31.431 -0.2084 -0.1348  0.0059
71681W        W14593   6.661  20.295   2.193 -0.1669 -0.2295 -0.0673
71682W        W14594   5.811  20.686   2.034  0.2008 -0.0871  0.1214
71683W        W14595   3.656  21.653  31.828  0.3852  0.0047 -0.0523
71684W        W14596   6.195  21.566   2.475  0.2420  0.0665 -0.3051
71685W        W14597   4.588  21.403   3.224  0.0406  0.1346  0.1327
71686W        W14598   6.382  19.764   1.509  0.2349  0.0021  0.0238
71687W        W14599   5.543  20.372   0.578  0.1622 -0.3918 -0.0335
71688W        W14600   4.731  21.200  31.638 -0.0243  0.1347 -0.2409
71689W        W14601   5.015  19.265   0.160  0.1225 -0.5545 -0.0383
71690W        W14602   4.719  21.320   4.239  0.0791 -0.0805  0.0396
71691W        W14603   4.211  21.636   1.764 -0.0591  0.1438 -0.0503
71692W        W14604   6.678  18.688   3.506 -0.0583 -0.0724 -0.1042
71693W        W14605   5.005  21.484   0.169  0.2977 -0.2954 -0.1820
71694W        W14606   6.584  19.448   0.063 -0.0138 -0.1910  0.1737
71695W        W14607   4.124  19.535  30.489 -0.0085  0.2800  0.4734
71696W        W14608   8.226  18.814   0.022 -0.0791 -0.2104 -0.1065
71697W        W14609   6.265  16.769   2.131  0.2756  0.1180 -0.0546
71698W        W14610   4.412  22.107   2.659 -0.2531  0.1185  0.4067
71699W        W14611   5.816  18.477   2.121 -0.0818  0.1380 -0.1736
71700W        W14612   6.292  20.759   2.163 -0.2006  0.3179 -0.0186
71701W        W14613   4.331  19.197   0.902 -0.1184 -0.2096  0.0132
71702W        W14614   5.499  19.641   2.169  0.0179  0.2836 -0.1097
71703W        W14615   4.126  21.211   1.362  0.2550 -0.0487 -0.1418
71704W        W14616   6.415  18.308   1.397  0.0259  0.0550  0.1264
71705W        W14617   5.201  21.177  31.224 -0.1033  0.2033  0.1157
71706W        W14618   6.391  20.863   1.325 -0.1066 -0.1985  0.0511
71707W        W14619   6.119  21.544  30.751  0.0098 -0.0627  0.1434
71708W        W14620   4.366  17.986   1.136 -0.2220  0.1171  0.0506
71709W        W14621   4.051  20.550   3.636 -0.2119 -0.3302 -0.3223
71710W        W14622   4.899  20.060   3.353 -0.1284  0.0784 -0.0763
71711W        W14623   4.036  17.318   0.701 -0.4407 -0.0030  0.0146
71712W        W14624   7.140  20.429   2.023 -0.2418  0.1226 -0.1317
71713W        W14625   4.733  21.835   2.409  0.1553 -0.1289 -0.1132
71714W        W14626   6.370  18.010   0.831 -0.1518 -0.0586 -0.1781
71715W        W14627   5.181  19.437   2.606  0.0380  0.1522 -0.2204
71716W        W14628   7.100  19.441   2.301  0.1806 -0.0278  0.1923
71717W        W14629   5.138  22.039   0.993 -0.4811 -0.1833  0.1911
71718W        W14630   7.335  18.243   2.264 -0.2922 -0.2108  0.1818
71719W        W14631   6.595  18.046   2.795 -0.1198  0.0038 -0.2312
71720W        W14632   2.715  19.620  31.845 -0.1337  0.0435 -0.1344
71721W        W14633   3.383  20.437   0.302  0.1834  0.1083 -0.0066
71722W        W14634   6.637  19.347   1.788 -0.2707  0.1709 -0.0596
71723W        W14635   6.212  19.443  31.760  0.0086  0.3647 -0.0401
71724W        W14636   5.999  20.989   1.583  0.3758  0.0242  0.1128
71725W        W14637   4.810  20.317   2.901  0.0425  0.2970 -0.2331
71726W        W14638   5.378  21.999   3.604 -0.1425  0.0639  0.1141
71727W        W14639   5.127  21.923  31.946 -0.0007 -0.0793  0.0176
71728W        W14640   3.723  22.752   2.591  0.1683 -0.1519 -0.2429
71729W        W14641   3.203  19.469  31.717  0.1889 -0.0068 -0.0390
71730W        W14642   3.390  19.245   2.196  0.1139  0.1844 -0.1231
71731W        W14643   4.769  20.683   1.320  0.0828 -0.1251 -0.2611
71732W        W14644   6.961  18.716   0.084 -0.4694 -0.1925  0.0844
71733W        W14645   4.458  18.961   2.835  0.1274  0.2141 -0.1785
71734W        W14646   6.272  17.326   0.382 -0.2444 -0.0467 -0.0272
71735W        W14647   3.977  19.909   0.635 -0.0670 -0.0954 -0.2792
71736W        W14648   6.695  20.641   1.828 -0.1192 -0.3513  0.4672
71737W        W14649   5.994  18.860   1.640  0.1247  0.0218 -0.1468
71738W        W14650   6.607  21.367  31.671 -0.1919  0.1597  0.0791
71739W        W14651   4.166  20.187   3.987 -0.0697 -0.0913  0.0699
71740W        W14652   2.558  19.037   1.054  0.0989  0.1103  0.1557
71741W        W14653   5.310  18.545   5.040  0.1670  0.3360 -0.0272
71742W        W14654   3.370  19.014   3.515  0.0747  0.4193 -0.3445
71743W        W14655   8.649  18.499   2.627  0.2618 -0.0393  0.0807
71744W        W14656   2.849  19.136  31.808 -0.0283 -0.0028  0.0987
71745W        W14657   5.576  18.565   0.763  0.2888  0.2986 -0.0974
71746W        W14658   6.005  20.089   1.385  0.1482  0.1337 -0.2050
71747W        W14659   2.219  22.003   1.381 -0.1122  0.1083  0.2564
71748W        W14660   7.677  18.304   3.129  0.0397 -0.1745  0.0960
71749W        W14661   5.564  20.783   0.010 -0.0413  0.4099  0.2804
71750W        W14662   7.275  21.135   2.655 -0.0790 -0.0222 -0.0676
71751W        W14663   6.452  19.977   1.065  0.0659 -0.0561  0.2613
71752W        W14664   4.700  18.428   3.615  0.2173 -0.1214 -0.2997
71753W        W14665   2.346  18.810  31.283 -0.2216  0.1211  0.1175
71754W        W14666   4.124  22.461   1.280 -0.0237  0.1754 -0.0364
71755W        W14667   4.633  20.194   1.219 -0.6398  0.0619 -0.0780
71756W        W14668   5.040  18.504   1.487 -0.0800  0.2439 -0.0801
71757W        W14669   7.105  20.725   1.520 -0.4520 -0.2189  0.0614
71758W        W14670   6.756  19.212   1.288  0.3982 -0.2273  0.1969
71759W        W14671   4.949  19.689   2.161 -0.0504  0.0676 -0.1619
71760W        W14672   6.581  18.662   2.562  0.2058 -0.0374 -0.0300
71761W        W14673   8.099  20.275   1.273 -0.0531 -0.1530  0.2669
71762W        W14674   4.838  18.496   0.406  0.1680 -0.0815  0.0272
71763W        W14675   2.663  18.307   0.536  0.0036  0.1670  0.0379
71764W        W14676   6.089  20.468   1.659  0.2727  0.1535  0.2811
71765W        W14677   4.681  21.394   0.558  0.0185 -0.3493  0.4489
71766W        W14678   4.443  21.054   1.795  0.1098 -0.1980  0.1518
71767W        W14679   4.615  22.271   0.631  0.2325  0.0440  0.0905
71768W        W14680   7.570  17.776   2.292 -0.0232  0.0631  0.0844
71769W        W14681   5.030  18.628   4.017 -0.1065 -0.0019 -0.1349
71770W        W14682   5.946  18.690   4.328  0.1423  0.1949  0.1113
71771W        W14683   3.680  19.504  31.958  0.1960 -0.0800  0.0668
71772W        W14684   3.982  21.391   2.686 -0.0594 -0.0466  0.0309
71773W        W14685   7.604  18.204   1.246  0.1292 -0.0644 -0.1568
71774W        W14686   6.987  18.485   0.545  0.3313  0.1031 -0.1391
71775W        W14687   5.843  18.873   2.575  0.2264 -0.2010 -0.0087
71776W        W14688   6.484  20.157   0.589  0.2706  0.1881 -0.0092
71777W        W14689   7.399  17.940  31.687 -0.2287 -0.0889  0.2142
71778W        W14690   4.623  18.482   1.170 -0.2934 -0.0327 -0.1743
71779W        W14691   4.524  20.062   2.611 -0.0973  0.2008  0.0405
71780W        W14692   6.100  20.976   0.070  0.0648 -0.0293  0.1627
71781W        W14693   5.003  19.892   0.923 -0.0087 -0.0586 -0.2503
71782W        W14694   4.213  19.495   0.541  0.1725  0.2877 -0.1178
71783W        W14695   6.783  21.652   0.697 -0.0007 -0.3934  0.1705
71784W        W14696   3.937  19.708   1.939 -0.0150 -0.0242 -0.0692
71785W        W14697   5.452  21.015   2.307  0.3080  0.0551  0.0111
71786W        W14698   5.210  19.258   2.181  0.2090  0.0326 -0.1688
71787W        W14699   4.433  18.455   2.755 -0.1343  0.1423 -0.0390
71788W        W14700   4.800  19.113  31.623  0.0297  0.0796  0.1152
71789W        W14701   6.126  18.033   1.821 -0.0130  0.1802  0.0253
71790W        W14702   3.729  22.191   0.372  0.0711  0.1228  0.0114
71791W        W14703   6.383  19.109   3.386  0.0771  0.2188  0.0542
71792W        W14704   4.810  19.214   1.125 -0.1754 -0.0436 -0.1685
71793W        W14705   4.983  18.460   2.644  0.0428 -0.0068 -0.1244
71794W        W14706   6.724  19.145   3.765  0.3037 -0.0647 -0.1184
71795W        W14707   6.580  19.022   0.855  0.2254  0.1779  0.0052
71796W        W14708   5.508  19.826   1.533 -0.3107 -0.0809 -0.1150
71797W        W14709   2.643  19.665   0.365 -0.2773  0.1877  0.0589
71798W        W14710   5.399  20.017   3.278 -0.0314  0.2368  0.2661
71799W        W14711   4.060  19.022   3.153  0.2728  0.1057  0.0390
71800W        W14712   3.295  21.405   3.147  0.2842 -0.2181 -0.2989
71801W        W14713   4.718  21.459   2.001  0.2474  0.2337 -0.0677
71802W        W14714   6.736  19.913   0.198  0.3470 -0.0274  0.3447
71803W        W14715   6.195  17.836   4.454 -0.2652  0.3186 -0.2014
71804W        W14716   4.470  19.294  31.003  0.0619 -0.0745  0.5098
71805W        W14717   3.832  21.373   1.734 -0.2032 -0.0884  0.2247
71806W        W14718   5.962  21.951  30.389 -0.3391  0.2058  0.1672
71807W        W14719   6.298  17.697   2.555  0.1070  0.1414  0.4178
71808W        W14720   4.905  20.861   0.834 -0.2391  0.1791 -0.0387
71809W        W14721   4.822  20.331  31.186 -0.0461  0.0744 -0.1825
71810W        W14722   4.764  20.895   2.172  0.2809  0.0773 -0.0174
71811W        W14723   4.845  20.925   0.343  0.1111 -0.0103 -0.2105
71812W        W14724   7.288  17.321   2.322 -0.2773 -0.0462  0.4572
71813W        W14725   2.723  22.113   1.956 -0.5820  0.1386 -0.2742
71814W        W14726   3.840  18.834  31.614 -0.3071  0.2726  0.4031
71815W        W14727   3.733  18.891   0.962  0.2138  0.1046  0.0234
71816W        W14728   7.330  17.803   0.893  0.3418 -0.2849  0.0608
71817W        W14729   7.680  20.185   0.477  0.0613  0.0972  0.2086
71818W        W14730   4.427  19.698   1.902 -0.1055 -0.0636  0.1961
71819W        W14731   5.346  18.827   2.876  0.2881 -0.1375  0.1345
71820W        W14732   3.467  20.825   1.746  0.1469  0.0913  0.0331
71821W        W14733   7.882  19.932   2.371  0.0199  0.0866 -0.1393
71822W        W14734   6.791  19.055   0.379  0.1966  0.0450  0.1254
71823W        W14735   7.499  20.089   1.893 -0.0410 -0.1945  0.2252
71824W        W14736   5.977  19.840   2.216  0.1806  0.0126 -0.0888
71825W        W14737   3.386  19.842  30.692  0.1883  0.0732  0.1253
71826W        W14738   7.159  19.072   2.036 -0.0913  0.0567  0.2150
71827W        W14739   3.765  19.144   0.456  0.2484 -0.1638 -0.2558
71828W        W14740   3.518  20.579   0.865  0.5020 -0.0070  0.2172
71829W        W14741   5.543  21.654   1.162 -0.0192 -0.1533 -0.0395
71830W        W14742   4.734  18.096   0.802 -0.0218 -0.0617 -0.3359
71831W        W14743   4.181  21.976   0.655 -0.1158  0.0124 -0.0240
71832W        W14744   4.278  18.633   4.497  0.1873 -0.0965  0.1148
71833W        W14745   6.071  19.373   2.269  0.3011  0.1924 -0.0940
71834W        W14746   2.521  18.660   1.434  0.2216 -0.0491  0.0099
71835W        W14747   5.264  19.476   1.728  0.0049 -0.1256  0.2803
71836W        W14748   4.808  19.308   1.629  0.3210 -0.2427 -0.1609
71837W        W14749   5.217  20.095   2.380 -0.1035  0.0328  0.3039
71838W        W14750   5.289  19.445   3.910  0.0329  0.0587 -0.0739
71839W        W14751   4.391  22.869   3.283 -0.3862 -0.1019  0.4230
71840W        W14752   5.464  17.120   2.776  0.1829  0.0117 -0.4746
71841W        W14753   6.740  21.616   1.877  0.1130 -0.0621  0.1143
71842W        W14754   5.864  18.239   3.361  0.2619  0.0311  0.1487
71843W        W14755   3.194  18.863   0.880 -0.1073  0.1903  0.2884
71844W        W14756   3.560  20.759   3.467  0.1186  0.0979  0.0918
71845W        W14757   4.385  20.919  31.968  0.2166 -0.2293 -0.0538
71846W        W14758   4.642  19.130   2.031 -0.1246 -0.1583  0.0186
71847W        W14759   5.220  20.434   1.016  0.0928  0.2666  0.2135
71848W        W14760   4.723  22.069  31.186  0.2869 -0.3599 -0.2711
71849W        W14761   3.491  22.084   2.485 -0.1409 -0.0904 -0.1170
71850W        W14762   6.717  17.439   0.702  0.1550 -0.0777 -0.3297
71851W        W14763   6.311  20.974  31.602 -0.0799  0.0248 -0.1220
71852W        W14764   5.634  19.367   1.326 -0.1808 -0.1864 -0.0287
71853W        W14765   6.696  19.082   2.952  0.0091  0.1361 -0.0106
71854W        W14766   6.057  20.168  31.625 -0.2256  0.4711 -0.1066
71855W        W14767   6.251  19.569   3.520  0.0306 -0.0938  0.1836
71856W        W14768   5.172  19.928   2.838 -0.1675 -0.1212 -0.0884
71857W        W14769   7.072  19.361   2.857 -0.2138  0.2386  0.0766
71858W        W14770   3.373  19.553   3.646 -0.2872 -0.1464  0.3451
71859W        W14771   6.229  21.541   1.978  0.0882 -0.1646  0.1992
71860W        W14772   3.707  19.868   3.789 -0.2198  0.0257 -0.0732
71861W        W14773   5.311  18.364   0.340 -0.0443 -0.0690 -0.1138
71862W        W14774   4.769  17.692   1.129  0.4945 -0.0223 -0.1939
71863W        W14775   5.035  21.400   2.453 -0.0946 -0.1940  0.2229
71864W        W14776   7.498  19.105   1.647 -0.2309 -0.2844 -0.2786
71865W        W14777   3.873  18.523   0.587 -0.5137  0.0299 -0.0081
71866W        W14778   6.009  19.217   0.901 -0.1999 -0.1237  0.0560
71867W        W14779   3.732  21.725   2.235 -0.1716  0.4498  0.0735
71868W        W14780   7.064  18.907   0.849 -0.3162  0.2386  0.2138
71869W        W14781   4.370  18.854  31.692 -0.4115  0.2365 -0.2229
71870W        W14782   3.716  21.494   1.157  0.0062  0.2291  0.0577
71871W        W14783   4.484  17.672   1.523  0.0941 -0.5277  0.0708
71872W        W14784   6.458  19.493   0.984  0.1875  0.1697 -0.0321
71873W        W14785   4.081  18.559   1.013  0.0657 -0.0261  0.1206
71874W        W14786   6.078  18.904   2.138  0.0865  0.0488 -0.1950
71875W        W14787   5.131  19.139   3.497 -0.2501  0.2008 -0.1413
71876W        W14788   4.941  19.090   3.026 -0.2356  0.0250  0.2905
71877W        W14789   4.242  18.691   2.260  0.1899 -0.5671  0.4005
71878W        W14790   8.935  21.208   2.727 -0.0963  0.3140  0.0572
71879W        W14791   6.850  20.157  31.736  0.1820  0.1134  0.1342
71880W        W14792   7.967  18.060   2.517  0.0623  0.0594 -0.1649
71881W        W14793   7.369  19.911   0.985  0.3383  0.0722 -0.3143
71882W        W14794   5.178  19.542   1.209 -0.4539  0.0006  0.2259
71883W        W14795   3.172  17.582   1.848 -0.0816 -0.1176  0.0800
71884W        W14796   6.197  19.477   4.010 -0.2462 -0.3086  0.0689
71885W        W14797   2.087  18.170   0.014 -0.0813 -0.0226  0.0223
71886W        W14798   6.169  18.886   4.784  0.1811  0.3383 -0.0395
71887W        W14799   5.824  19.504  31.444 -0.1595 -0.3486  0.0329
71888W        W14800   4.574  19.627   0.923 -0.0394 -0.2098 -0.3351
71889W        W14801   5.659  19.247   1.889 -0.0180  0.3141  0.0035
71890W        W14802   3.417  18.734   0.438  0.2760  0.1227 -0.2770
71891W        W14803   2.718  20.740   3.113 -0.0768  0.1355  0.0093
71892W        W14804   4.713  18.522  30.418  0.0177 -0.0636  0.1068
71893W        W14805   3.396  19.075  31.435 -0.1296  0.1640  0.0171
71894W        W14806   5.813  21.291   0.756  0.0592  0.1949 -0.1366
71895W        W14807   7.968  19.948   2.948  0.2284 -0.1966 -0.4877
71896W        W14808   4.375  18.448   0.535  0.2994  0.0548 -0.3077
71897W        W14809   8.483  18.562   2.063  0.0056  0.2525 -0.1729
71898W        W14810   4.189  19.827   1.137  0.0109  0.1706 -0.2331
71899W        W14811   6.258  17.536   2.090  0.6782 -0.0945  0.2912
71900W        W14812   4.349  21.740   4.074 -0.5537 -0.0145  0.0237
71901W        W14813   4.128  22.549   0.715 -0.0322 -0.1065 -0.0907
71902W        W14814   4.161  20.737   1.319 -0.0886 -0.0584 -0.2904
71903W        W14815   6.985  18.964   2.504  0.0059 -0.1230  0.1050
71904W        W14816   6.597  19.028   2.150  0.3686 -0.1306 -0.1716
71905W        W14817   6.924  18.568   2.158  0.0398  0.0156 -0.2328
71906W        W14818   8.283  20.283   2.328 -0.1265  0.1481  0.0699
71907W        W14819   5.275  19.038   1.507  0.0550  0.2095  0.0948
71908W        W14820   2.493  19.062   0.205 -0.0202  0.1059  0.2517
71909W        W14821   4.979  20.850   2.625 -0.2143  0.0314 -0.1290
71910W        W14822   5.996  19.663   1.150  0.1323 -0.1668  0.1721
71911W        W14823   4.111  20.311   1.044  0.2805  0.0340 -0.2671
71912W        W14824   2.775  19.550   1.537 -0.5479  0.2014 -0.0475
71913W        W14825   5.367  19.378   3.054 -0.0905  0.2960 -0.2222
71914W        W14826   6.001  20.287   0.677  0.2788 -0.2248 -0.4370
71915W        W14827   4.626  18.631   1.760  0.0357 -0.1650  0.1317
71916W        W14828   3.694  21.377   0.642 -0.0054 -0.1849 -0.0920
71917W        W14829   4.404  20.613   2.629 -0.3100  0.0701 -0.3033
71918W        W14830   3.631  19.293   1.768 -0.0903  0.4788  0.1067
71919W        W14831   3.611  21.812   1.776  0.0064  0.1759  0.0946
71920W        W14832   6.928  19.951   0.633  0.2236 -0.1156 -0.2151
71921W        W14833   4.794  20.458   0.543 -0.4405  0.2411  0.1485
71922W        W14834   5.418  21.974   2.628  0.0072 -0.0268 -0.0411
71923W        W14835   4.628  18.806   0.791  0.4499  0.1388  0.0422
71924W        W14836   4.417  21.155   0.912 -0.1089  0.1322  0.0287
71925W        W14837   3.404  21.222  31.617  0.2418  0.0162 -0.0312
71926W        W14838   7.166  21.145  31.828  0.0839  0.0482  0.2821
71927W        W14839   4.566  21.325   2.657 -0.0679 -0.2020 -0.1936
71928W        W14840   6.528  20.250   2.946  0.0109  0.0983  0.0384
71929W        W14841   6.562  18.406  31.754 -0.0161 -0.1079  0.1188
71930W        W14842   7.596  20.232   1.365 -0.2372  0.0688 -0.0482
71931W        W14843   7.275  19.321   1.268 -0.0244  0.0168  0.2896
71932W        W14844   4.158  20.173   1.597 -0.2419  0.0186  0.3180
71933W        W14845   4.464  18.792   3.349  0.1963 -0.0737 -0.0771
71934W        W14846   4.067  19.181  31.911  0.2548  0.1335 -0.2052
71935W        W14847   4.576  19.415   2.726  0.1186 -0.0142  0.1441
71936W        W14848   8.140  17.543   2.492  0.2706 -0.0089 -0.1961
71937W        W14849   2.548  22.002   3.626 -0.0073  0.0800 -0.1969
71938W        W14850   7.867  20.044   0.887  0.0386  0.0058  0.2503
71939W        W14851   3.170  19.358   0.209 -0.0583  0.1829 -0.0565
71940W        W14852   3.741  20.485   1.389 -0.0289 -0.2455 -0.0278
71941W        W14853   8.174  18.526   2.477  0.2764 -0.1536 -0.3866
71942W        W14854   4.112  18.353  31.638 -0.0687  0.1585  0.1165
71943W        W14855   5.069  18.455   0.931 -0.1034 -0.2464 -0.3905
71944W        W14856   5.830  20.874   0.456 -0.1117 -0.2639 -0.3927
71945W        W14857   4.283  21.140   2.292 -0.0497  0.4198  0.2716
71946W        W14858   5.339  21.902   2.077 -0.1205  0.1817 -0.0565
71947W        W14859   1.145  19.971   0.803 -0.3224 -0.0366 -0.0396
71948W        W14860   8.961  19.336   1.105 -0.4143  0.0107  0.2427
71949W        W14861   3.753  19.483   2.379  0.4688 -0.1016 -0.2272
71950W        W14862   7.624  18.463   2.633  0.0664  0.5683  0.0271
71951W        W14863   4.402  19.432   1.382 -0.2274 -0.0148  0.0541
71952W        W14864   6.364  18.491   1.967 -0.1860 -0.1568 -0.0019
71953W        W14865   4.173  19.230   1.845 -0.1537  0.1420  0.0973
71954W        W14866   3.058  19.261   1.825 -0.2706  0.0014 -0.1543
71955W        W14867   4.786  20.176   0.096  0.2606 -0.0760  0.3197
71956W        W14868   6.269  20.407   1.122  0.0110 -0.3552 -0.3261
71957W        W14869   4.889  17.923  31.607  0.0423 -0.1886 -0.2287
71958W        W14870   5.679  21.157   1.216 -0.0942 -0.0541  0.1026
71959W        W14871   3.116  18.414   0.700  0.1312  0.2766  0.1990
71960W        W14872   6.529  18.491   0.773 -0.0089 -0.4578 -0.3404
71961W        W14873   4.188  19.727   2.389  0.1786 -0.3712  0.1516
71962W        W14874   5.281  20.120   1.884 -0.0509  0.0354 -0.2840
71963W        W14875   6.801  20.804   2.338  0.1315  0.3570  0.1026
71964W        W14876   4.377  18.866   1.296  0.2146 -0.2063  0.0507
71965W        W14877   7.235  20.540   1.113 -0.0863  0.2085 -0.0799
71966W        W14878   6.554  18.780   1.671 -0.0323 -0.1266  0.3110
71967W        W14879   4.176  21.518   0.728 -0.1082 -0.1398 -0.0500
71968W        W14880   7.843  20.695   0.490  0.0872  0.2023  0.2051
71969W        W14881   5.631  21.317   1.912 -0.0273 -0.0757 -0.2126
71970W        W14882   4.038  18.511   3.068 -0.1710 -0.2052  0.1722
71971W        W14883   6.613  20.168   1.567 -0.0975 -0.1592 -0.1010
71972W        W14884   6.796  19.694   1.332  0.0585 -0.0780  0.0658
71973W        W14885   5.128  17.372   0.112  0.0613  0.2619  0.2546
71974W        W14886   4.056  18.748   1.788  0.3076 -0.2061 -0.0632
71975W        W14887   3.295  20.255   1.981 -0.0235 -0.1124  0.1180
71976W        W14888   7.405  18.729   2.275 -0.2337 -0.0999  0.1175
71977W        W14889   7.794  18.393   2.140  0.1360 -0.1434 -0.3587
71978W        W14890   6.022  21.892  31.955 -0.1630  0.0465  0.1259
71979W        W14891   5.456  18.321   2.716  0.1842 -0.0967 -0.1141
71980W        W14892   4.981  21.236   2.949  0.0206 -0.1231 -0.1813
71981W        W14893   4.110  19.597   3.914 -0.1780 -0.4284 -0.0819
71982W        W14894   3.680  20.955   1.299 -0.2955  0.1107  0.1001
71983W        W14895   5.048  20.357   1.542 -0.0873 -0.2436  0.1277
71984W        W14896   5.190  20.061   0.476  0.0156 -0.1042  0.3210
71985W        W14897   4.796  19.711   0.364 -0.1062 -0.0076  0.2347
71986W        W14898   8.522  21.673   1.970 -0.0513 -0.2619 -0.1281
71987W        W14899   5.192  18.866   0.582 -0.0556 -0.2171 -0.3622
71988W        W14900   7.109  20.242   1.525 -0.0634  0.0935  0.2508
71989W        W14901   6.213  17.842   1.284  0.0321  0.1324  0.0379
71990W        W14902   8.421  18.375   0.257  0.1944 -0.2102 -0.1233
71991W        W14903   6.166  18.255   0.474 -0.1810  0.1628 -0.3495
71992W        W14904   3.678  19.180   4.015  0.0603  0.0224  0.0919
71993W        W14905   1.492  18.789   0.304 -0.4191  0.0535  0.1040
71994W        W14906   5.066  19.854  31.245 -0.0145  0.1655  0.1627
71995W        W14907   3.827  19.381   0.865 -0.0155  0.1059 -0.4227
71996W        W14908   4.746  18.366   2.223  0.1423 -0.0407  0.0633
71997W        W14909   4.703  20.356   2.246 -0.2420  0.2338 -0.4407
71998W        W14910   3.479  20.083   1.565 -0.1219 -0.2441 -0.1809
71999W        W14911   4.137  18.045   0.719  0.0202  0.0546 -0.2112
72000W        W14912   6.968  22.047  31.519  0.1366  0.3795 -0.5042
72001W        W14913   2.947  18.923   1.411  0.0920 -0.1863 -0.2953
72002W        W14914   2.848  17.901   1.649  0.2702  0.0216  0.2451
72003W        W14915   5.233  20.882   1.239  0.2153 -0.0949 -0.0115
72004W        W14916   7.842  18.757   1.438  0.2636  0.3016 -0.1436
72005W        W14917   5.131  17.870   0.212  0.1577  0.0642 -0.1410
72006W        W14918   6.352  19.853   2.635 -0.1293  0.1627  0.1789
72007W        W14919   3.615  20.876   0.453 -0.2030 -0.1623  0.1462
72008W        W14920   5.756  19.871   3.656 -0.0211 -0.0516 -0.0691
72009W        W14921   4.075  19.126   4.496  0.2853 -0.3786  0.2355
72010W        W14922   1.242  18.829  31.862  0.1562  0.3327  0.0905
72011W        W14923   5.724  18.821   1.211  0.2856  0.3535 -0.0284
72012W        W14924   7.278  20.364   0.694 -0.1322 -0.1368  0.0049
72013W        W14925   4.385  21.281  31.250  0.1613  0.0991  0.0573
72014W        W14926   4.943  20.887   1.739 -0.4537 -0.2430 -0.1235
72015W        W14927   4.240  21.656   2.299 -0.0046 -0.0086 -0.2972
72016W        W14928   4.142  17.231   2.607 -0.0135 -0.0390 -0.1651
72017W        W14929   6.894  20.449   0.310 -0.2632  0.1907  0.1851
72018W        W14930   5.193  20.587   2.138 -0.2457 -0.2574 -0.0506
72019W        W14931   7.993  21.975   1.287  0.1934  0.2997  0.1449
72020W        W14932   6.631  17.998   1.691 -0.1432 -0.2702 -0.2556
72021W        W14933   6.724  18.647   1.211 -0.0951 -0.0786  0.1703
72022W        W14934   3.347  18.203   2.412 -0.0908 -0.0620  0.0426
72023W        W14935   4.250  21.269   4.024  0.0278  0.1946 -0.0084
72024W        W14936   9.480  20.156   0.088  0.1693 -0.0781  0.0012
72025W        W14937   5.541  18.609   1.731 -0.1353  0.2363 -0.0269
72026W        W14938   5.250  18.066   0.697 -0.0212 -0.0125 -0.2116
72027W        W14939   5.170  20.483   0.192 -0.3968  0.1037 -0.0719
72028W        W14940   3.332  19.747   1.972  0.1940  0.0478  0.0772
72029W        W14941   6.305  19.237   0.481 -0.2516  0.3275 -0.0664
72030W        W14942   5.842  18.532   2.986 -0.2208 -0.2796 -0.2270
72031W        W14943   5.085  21.473   1.128 -0.2092  0.4251  0.1182
72032W        W14944   6.493  19.687   3.106 -0.0084 -0.1310  0.0619
72033W        W14945   4.191  18.927   0.502 -0.1131 -0.1268 -0.3507
72034W        W14946   5.969  19.490   0.179  0.2001 -0.0936  0.3004
72035W        W14947   4.816  21.947   1.913  0.2105 -0.2281 -0.1796
72036W        W14948   6.766  20.852   3.685 -0.1193  0.1767 -0.1168
72037W        W14949   6.443  19.870   1.990 -0.1489  0.0623 -0.0711
72038W        W14950   5.080  18.849   1.937 -0.0176  0.1756  0.0256
72039W        W14951   3.751  17.970   2.572 -0.1228  0.1085 -0.0337
72040W        W14952   3.279  19.538   1.484 -0.4200  0.0127  0.1544
72041W        W14953   4.316  20.844   0.519  0.0481  0.3790 -0.1211
72042W        W14954   6.868  19.839   2.515  0.0659 -0.2737  0.1623
72043W        W14955   3.808  18.984   2.125  0.1320  0.1832 -0.0763
72044W        W14956   6.747  17.583   1.161  0.5174 -0.1350 -0.1965
72045W        W14957   4.374  22.070   2.061 -0.1173 -0.1277  0.1276
72046W        W14958   5.765  20.648   1.073 -0.3304 -0.0621  0.0108
72047W        W14959   5.666  20.170   5.473  0.2829 -0.0581  0.1536
72048W        W14960   4.391  19.789   6.028  0.0529 -0.2397  0.0019
72049W        W14961   5.852  19.074   3.061 -0.1110  0.2375  0.1869
72050W        W14962   7.457  19.310   4.335  0.0837  0.0192  0.0401
72051W        W14963   3.699  18.822   5.331  0.0464  0.1200 -0.1154
72052W        W14964   6.604  22.691   5.902 -0.1328 -0.2309 -0.2138
72053W        W14965   4.794  17.564   7.397 -0.0454 -0.1593  0.0115
72054W        W14966   6.855  21.375   4.955 -0.0534 -0.0459 -0.0289
72055W        W14967   7.342  20.553   6.546  0.0654  0.0252 -0.2648
72056W        W14968   6.130  20.079   3.280 -0.2294 -0.1411  0.0338
72057W        W14969   5.101  19.793   6.483  0.2092 -0.0569  0.1665
72058W        W14970   6.041  21.110   6.088 -0.0554 -0.0449 -0.2185
72059W        W14971   5.134  18.423   4.566  0.0463 -0.1391  0.0291
72060W        W14972   3.238  17.758   6.674  0.1059 -0.2655 -0.1796
72061W        W14973   7.508  20.116   5.634  0.1412 -0.0987  0.0158
72062W        W14974   4.758  18.882   5.605 -0.3640  0.0286 -0.0173
72063W        W14975   4.671  18.385   5.868 -0.0135  0.0695  0.0850
72064W        W14976   5.462  18.973   3.807 -0.1443 -0.0396  0.0707
72065W        W14977   5.962  20.713   2.531 -0.0646 -0.0213 -0.0013
72066W        W14978   5.905  18.636   6.823  0.2557 -0.1559 -0.2123
72067W        W14979   6.826  17.484   7.798  0.2100  0.0318  0.1572
72068W        W14980   5.525  20.491   4.096 -0.7276 -0.0327 -0.1130
72069W        W14981   4.480  19.810   3.082 -0.0622  0.2563  0.1700
72070W        W14982   4.081  19.963   6.420 -0.1146 -0.1036 -0.2011
72071W        W14983   4.912  19.164   7.469  0.0996  0.1928 -0.1710
72072W        W14984   5.679  18.564   5.454  0.1388  0.0892  0.0082
72073W        W14985   6.593  18.777   4.595  0.0243 -0.2579 -0.0750
72074W        W14986   4.669  21.691   4.613  0.0782  0.3091  0.1988
72075W        W14987   6.708  22.637   5.029  0.1748 -0.0786  0.2122
72076W        W14988   6.975  19.255   6.497  0.1218 -0.2873  0.2569
72077W        W14989   3.072  21.334   5.285 -0.2224  0.0733  0.0316
72078W        W14990   4.855  22.088   4.311 -0.3051 -0.0950  0.2903
72079W        W14991   5.560  21.119   5.295  0.0757  0.0351  0.0279
72080W        W14992   7.975  19.889   4.811 -0.1878 -0.1464  0.1269
72081W        W14993   5.637  21.662   4.226 -0.3092 -0.2705  0.1219
72082W        W14994   5.694  21.854   5.923 -0.2607  0.2181  0.1632
72083W        W14995   3.743  21.396   3.945 -0.0807 -0.5170 -0.4240
72084W        W14996   6.039  22.308   5.615 -0.0791  0.0038 -0.2750
72085W        W14997   6.236  22.073   6.289  0.2183 -0.2697  0.2433
72086W        W14998   5.915  19.441   5.339 -0.3196 -0.0260  0.1321
72087W        W14999   5.066  20.511   3.791 -0.1779  0.3006  0.0398
72088W        W15000   5.015  20.532   3.277  0.0763  0.0070 -0.3055
72089W        W15001   5.422  20.413   4.643 -0.0716 -0.1016 -0.0240
72090W        W15002   5.284  20.587   6.584 -0.0703 -0.1048  0.1624
72091W        W15003   4.098  20.619   6.401  0.2980  0.1456 -0.1479
72092W        W15004   6.729  19.480   6.116 -0.2830 -0.0678  0.1557
72093W        W15005   4.156  21.149   3.129  0.0490  0.0772  0.0068
72094W        W15006   8.311  18.983   3.296  0.2075 -0.1853  0.1618
72095W        W15007   4.964  19.568   3.186  0.1389  0.2877  0.3268
72096W        W15008   7.400  19.005   3.853 -0.2263  0.1560  0.1103
72097W        W15009   4.124  18.371   5.821  0.2405  0.0859  0.0448
72098W        W15010   5.415  21.413   4.811  0.2071 -0.0315 -0.1952
72099W        W15011   6.910  20.677   6.214 -0.1389 -0.2031  0.0370
72100W        W15012   8.546  19.158   6.662 -0.1019  0.1976 -0.0746
72101W        W15013   5.481  18.693   4.264  0.1349 -0.0204  0.2228
72102W        W15014   7.177  21.042   4.691 -0.4321  0.1615 -0.2979
72103W        W15015   3.718  20.951   5.170  0.2817 -0.0371  0.0689
72104W        W15016   4.377  20.607   5.334  0.0636  0.0212 -0.0798
72105W        W15017   6.916  20.492   3.123  0.3179 -0.2702 -0.1367
72106W        W15018   7.204  20.932   3.172 -0.0050 -0.0974  0.0094
72107W        W15019   6.377  21.433   2.906  0.1178 -0.1290  0.1308
72108W        W15020   4.026  19.580   5.784 -0.1083 -0.1153  0.2029
72109W        W15021   2.481  20.323   7.574 -0.0115 -0.0850  0.0523
72110W        W15022   3.835  19.353   6.209  0.2322  0.2052 -0.2966
72111W        W15023   4.252  18.794   3.990  0.0932 -0.3024 -0.1547
72112W        W15024   6.789  21.095   5.932  0.0735  0.0678 -0.0266
72113W        W15025   3.103  20.649   6.719  0.2237 -0.3341  0.2961
72114W        W15026   6.200  18.864   5.838 -0.2688  0.1904 -0.2424
72115W        W15027   5.197  20.014   5.474  0.3126 -0.1729  0.4012
72116W        W15028   5.115  22.417   5.368 -0.1578 -0.0919 -0.2356
72117W        W15029   6.576  20.072   3.476  0.3374 -0.1094  0.3655
72118W        W15030   6.472  17.173   5.178 -0.1065 -0.2075 -0.2426
72119W        W15031   4.952  17.161   6.669 -0.5073 -0.3052  0.2355
72120W        W15032   5.144  19.925   3.773 -0.3320  0.0129 -0.4727
72121W        W15033   6.396  19.753   5.609 -0.1100  0.0501  0.0627
72122W        W15034   5.341  22.375   5.829  0.1333  0.0202  0.0878
72123W        W15035   7.045  19.003   4.225 -0.0844  0.0770 -0.0869
72124W        W15036   4.590  21.229   6.088  0.1648  0.4724  0.4179
72125W        W15037   7.098  20.026   5.324 -0.1657  0.0954 -0.0619
72126W        W15038   5.401  20.190   6.326 -0.2324 -0.0302 -0.0857
72127W        W15039   3.590  21.681   3.562 -0.3185 -0.1900 -0.0183
72128W        W15040   4.573  20.777   5.831  0.0341  0.1073  0.1156
72129W        W15041   3.670  20.401   3.963  0.1578 -0.0789 -0.1042
72130W        W15042   3.058  20.021   7.617  0.0233  0.2549 -0.1403
72131W        W15043   3.995  20.996   6.108  0.0429 -0.2158  0.1038
72132W        W15044   6.534  18.764   4.016 -0.1824  0.2198  0.4563
72133W        W15045   4.852  17.061   7.659 -0.0445  0.0201  0.2159
72134W        W15046   8.009  18.771   3.773  0.3428  0.2285 -0.1998
72135W        W15047   4.703  18.979   3.728 -0.4964 -0.1389 -0.0626
72136W        W15048   5.952  21.322   3.265  0.3108 -0.0786 -0.1129
72137W        W15049   6.120  19.034   3.838 -0.3060  0.1773  0.4185
72138W        W15050   6.965  20.358   2.597  0.2071  0.1833  0.0028
72139W        W15051   3.982  18.305   7.353 -0.0315  0.0036  0.2239
72140W        W15052   4.861  19.724   5.235 -0.1113 -0.0872  0.0178
72141W        W15053   4.289  17.570   5.967  0.0690 -0.2065  0.2753
72142W        W15054   4.140  17.923   6.998 -0.0931 -0.2001 -0.0435
72143W        W15055   6.541  19.007   7.214  0.0710 -0.2104 -0.0280
72144W        W15056   2.142  18.726   4.188  0.2462 -0.1718 -0.0725
72145W        W15057   6.775  19.480   5.429  0.0243 -0.1910 -0.1416
72146W        W15058   5.676  18.848   4.748  0.1861  0.2857  0.0773
72147W        W15059   3.375  20.876   3.937 -0.2014  0.0863 -0.3032
72148W        W15060   7.663  17.914   7.174  0.4263  0.1590 -0.0169
72149W        W15061   7.475  21.808   3.010  0.1718 -0.3464 -0.0312
72150W        W15062   5.817  22.335   6.083 -0.1501  0.1107 -0.0662
72151W        W15063   7.033  22.285   4.844  0.1918  0.1104  0.1088
72152W        W15064   5.263  17.462   7.564 -0.4192  0.1623 -0.1654
72153W        W15065   2.904  18.312   5.147  0.1320 -0.2422  0.0666
72154W        W15066   4.621  22.145   4.867  0.0987 -0.1386 -0.2940
72155W        W15067   5.251  20.770   5.421  0.0288 -0.1554  0.0038
72156W        W15068   5.597  19.000   5.238  0.0520  0.0635 -0.0610
72157W        W15069   7.535  20.560   4.218  0.1474  0.1799  0.0687
72158W        W15070   5.761  19.159   4.209 -0.0335 -0.1300 -0.4004
72159W        W15071   5.688  20.661   6.305 -0.1385  0.1812  0.1709
72160W        W15072   7.219  19.673   6.214 -0.0183 -0.1197  0.0337
72161W        W15073   6.467  20.372   5.971  0.1562 -0.0280 -0.2315
72162W        W15074   5.959  20.260   3.904 -0.0257  0.0739 -0.0160
72163W        W15075   3.515  18.728   2.516  0.0433  0.2612 -0.4952
72164W        W15076   6.943  23.063   6.786  0.1767 -0.0546  0.0822
72165W        W15077   4.031  22.567   4.677  0.1905 -0.1168 -0.1239
72166W        W15078   5.030  19.964   7.126 -0.2268 -0.0864 -0.2127
72167W        W15079   6.380  21.380   4.751 -0.0563  0.3928  0.0572
72168W        W15080   7.286  17.315   5.595 -0.1719  0.1210  0.0866
72169W        W15081   3.903  19.364   8.112  0.2341 -0.0624 -0.0856
72170W        W15082   5.562  19.347   5.651 -0.3315 -0.1871 -0.2490
72171W        W15083   4.290  19.628   4.456  0.1241 -0.1893  0.0385
72172W        W15084   4.455  21.734   6.186 -0.0784  0.0506  0.0562
72173W        W15085   6.101  18.013   3.696  0.2610  0.2557  0.1084
72174W        W15086   8.230  17.607   4.186 -0.0378  0.0506  0.3265
72175W        W15087   6.866  20.133   6.196 -0.2586 -0.1111  0.0948
72176W        W15088   6.672  19.308   4.271 -0.2099 -0.3208  0.0548
72177W        W15089   5.568  17.713   4.120  0.3845  0.1653  0.0540
72178W        W15090   6.880  17.671   3.142  0.0447 -0.1592  0.1122
72179W        W15091   2.946  20.553   7.546 -0.1808 -0.1735 -0.0459
72180W        W15092   6.829  19.953   5.750  0.0536 -0.2055 -0.1685
72181W        W15093   4.955  18.438   3.159 -0.2502 -0.2671 -0.1093
72182W        W15094   7.825  20.939   2.493  0.0691  0.1791  0.2531
72183W        W15095   4.330  21.993   5.631  0.1624 -0.2983 -0.1527
72184W        W15096   6.019  20.614   5.881 -0.0315  0.0392 -0.1547
72185W        W15097   7.315  20.164   4.477  0.1399  0.0907  0.1251
72186W        W15098   5.386  19.721   5.890  0.0164 -0.0864 -0.4404
72187W        W15099   3.722  19.566   4.269 -0.0039 -0.2060 -0.3655
72188W        W15100   4.460  18.213   4.694 -0.1140 -0.0651 -0.0071
72189W        W15101   2.485  21.233   4.025  0.1164 -0.2913 -0.0796
72190W        W15102   5.745  18.682   5.938 -0.1331 -0.4050 -0.0801
72191W        W15103   5.361  18.155   5.524  0.0693  0.2040  0.2387
72192W        W15104   5.124  18.067   7.393  0.2423 -0.0748  0.1694
72193W        W15105   8.095  20.016   6.642 -0.1014  0.0188 -0.1328
72194W        W15106   5.755  21.121   4.118 -0.0636  0.0399 -0.0925
72195W        W15107   6.623  20.440   4.884 -0.1330  0.0866  0.2238
72196W        W15108   4.718  19.561   3.682 -0.2999 -0.1800 -0.0569
72197W        W15109   5.670  18.349   7.483 -0.0423  0.1011 -0.1181
72198W        W15110   5.131  19.029   6.756  0.1508 -0.1570 -0.0085
72199W        W15111   4.058  21.131   7.293  0.0002  0.2786 -0.1522
72200W        W15112   6.833  22.258   6.037  0.1115  0.0614 -0.0795
72201W        W15113   6.658  19.711   3.907  0.0664  0.2929 -0.1904
72202W        W15114   5.147  17.941   5.977 -0.2048 -0.1717 -0.3274
72203W        W15115   5.522  18.069   4.967  0.1730 -0.0525  0.0979
72204W        W15116   4.659  19.979   4.554 -0.0198 -0.0681 -0.1628
72205W        W15117   5.482  20.933   2.806 -0.1125 -0.1607  0.1461
72206W        W15118   4.779  18.521   4.925 -0.1763 -0.0674  0.0015
72207W        W15119   4.536  19.830   4.068  0.1821 -0.0704  0.0521
72208W        W15120   4.457  20.469   3.338  0.0026 -0.1797  0.1590
72209W        W15121   7.030  22.063   6.578  0.2286 -0.2344  0.0771
72210W        W15122   5.038  21.018   3.472  0.2442  0.3385  0.3938
72211W        W15123   5.366  17.559   6.704  0.2151  0.1093  0.0964
72212W        W15124   3.267  20.815   5.087 -0.0273  0.1179 -0.0797
72213W        W15125   4.477  19.279   4.070 -0.0006  0.3234  0.1998
72214W        W15126   4.948  19.702   4.228 -0.0961  0.1090 -0.0564
72215W        W15127   6.213  18.323   4.647 -0.0692 -0.1737  0.0428
72216W        W15128   6.662  20.160   4.181 -0.1923 -0.0083 -0.0858
72217W        W15129   4.384  18.891   5.983  0.1585 -0.0050 -0.0828
72218W        W15130   5.562  18.873   6.477  0.0495 -0.1165  0.1496
72219W        W15131   4.073  22.360   5.120  0.0614 -0.1682 -0.2673
72220W        W15132   6.406  21.471   6.021  0.0212  0.3017  0.2040
72221W        W15133   7.171  18.543   3.836 -0.0869  0.2634  0.0862
72222W        W15134   6.585  21.333   5.562  0.2261  0.0881 -0.3811
72223W        W15135   6.206  19.626   6.427  0.0758 -0.1664  0.1739
72224W        W15136   4.438  19.716   5.011 -0.2379  0.2682 -0.3386
72225W        W15137   7.048  18.907   4.796 -0.0597  0.0856 -0.0957
72226W        W15138   5.139  19.014   4.592 -0.2365 -0.2882  0.2182
72227W        W15139   4.504  20.391   4.324  0.0133 -0.3494  0.0875
72228W        W15140   6.841  21.352   4.445  0.1075 -0.0240  0.1353
72229W        W15141   5.695  19.350   4.874  0.0465  0.3999 -0.1177
72230W        W15142   5.608  19.797   5.154  0.5521 -0.2045 -0.0688
72231W        W15143   4.798  19.342   6.592 -0.0672 -0.4593 -0.3787
72232W        W15144   6.517  21.015   6.369 -0.1370  0.0224 -0.2965
72233W        W15145   5.310  18.916   5.668  0.0857  0.1086  0.2218
72234W        W15146   4.940  18.455   5.401  0.2072  0.4707 -0.1033
72235W        W15147   5.737  20.674   5.311  0.2607 -0.0379  0.2131
72236W        W15148   6.565  21.795   5.160  0.1620  0.3890  0.1465
72237W        W15149   5.784  19.918   4.708  0.3181  0.2358 -0.1941
72238W        W15150   4.511  21.140   6.976  0.3232  0.2914  0.0552
72239W        W15151   5.215  18.528   5.990 -0.2204 -0.3626 -0.0245
72240W        W15152   8.373  21.833   4.467 -0.2373 -0.2512  0.0461
72241W        W15153   5.852  20.566   6.792 -0.1557 -0.0975  0.1293
72242W        W15154   5.126  19.909   4.753  0.0950 -0.1345  0.0057
72243W        W15155   3.935  19.923   7.031 -0.2587 -0.1413  0.0058
72244W        W15156   5.781  19.675   3.151 -0.1740 -0.0800  0.0900
72245W        W15157   4.611  19.805   6.576 -0.1555  0.1665  0.1761
72246W        W15158   4.398  20.662   6.819 -0.0572 -0.1983  0.1747
72247W        W15159   5.282  21.131   4.379  0.2476  0.3207  0.0927
72248W        W15160   3.114  21.194   5.829 -0.2245 -0.0930 -0.2680
72249W        W15161   7.296  18.032   4.647 -0.0654  0.2288 -0.2189
72250W        W15162   6.502  21.906   2.786  0.0866 -0.0243 -0.2411
72251W        W15163   6.064  17.893   4.952  0.2129 -0.0424  0.0406
72252W        W15164   7.320  18.315   6.508  0.1613  0.1625 -0.2511
72253W        W15165   6.113  20.797   3.941  0.0558 -0.1042 -0.1710
72254W        W15166   7.473  17.546   6.858 -0.0185  0.0115 -0.0976
72255W        W15167   4.088  19.253   5.223 -0.2045 -0.0575 -0.0260
72256W        W15168   6.177  21.035   4.365  0.0095 -0.2839 -0.2129
72257W        W15169   4.880  18.773   7.096  0.0524 -0.1508  0.0182
72258W        W15170   5.716  21.407   6.714 -0.1213 -0.0573  0.1101
72259W        W15171   4.604  19.439   7.697  0.0087  0.1276  0.1089
72260W        W15172   6.650  19.732   5.023 -0.2027 -0.1972 -0.3821
72261W        W15173   5.162  18.316   3.600  0.1755  0.2370 -0.0168
72262W        W15174   6.458  20.792   5.742 -0.0935  0.1515 -0.0765
72263W        W15175   6.896  20.949   5.433  0.1353 -0.1370  0.0145
72264W        W15176   6.195  20.157   4.983  0.0097  0.1567 -0.1800
72265W        W15177   7.969  18.159   6.173  0.1652  0.0177 -0.3582
72266W        W15178   5.156  20.361   5.105 -0.0202  0.2447 -0.2312
72267W        W15179   7.051  20.028   3.119 -0.0752 -0.1793  0.0326
72268W        W15180   4.874  20.921   3.930  0.0208  0.2583 -0.1740
72269W        W15181   3.669  20.089   4.420  0.0058 -0.1608 -0.0274
72270W        W15182   5.044  18.343   6.961  0.0001 -0.4186 -0.1141
72271W        W15183   7.019  20.598   4.560 -0.3317  0.1782 -0.0324
72272W        W15184   6.996  18.016   5.106 -0.0154  0.0488 -0.0751
72273W        W15185   7.103  20.513   5.109  0.2188 -0.2674 -0.1836
72274W        W15186   6.405  20.148   6.491 -0.1376  0.2825 -0.2538
72275W        W15187   7.703  19.610   6.401  0.2233 -0.3207 -0.3200
72276W        W15188   4.419  19.470   9.007 -0.1938  0.2710  0.0333
72277W        W15189   5.879  21.483   4.600  0.0479 -0.1932 -0.0973
72278W        W15190   6.256  18.530   3.677 -0.0957 -0.0482  0.4714
72279W        W15191   7.620  19.281   6.969  0.7159 -0.2156  0.0606
72280W        W15192   8.352  18.330   4.064  0.1121 -0.1728 -0.0783
72281W        W15193   6.280  19.063   4.309 -0.1398  0.1935  0.1776
72282W        W15194   5.017  20.152   6.041 -0.1474 -0.0537 -0.1705
72283W        W15195   7.270  18.824   6.697  0.2078  0.0579  0.0197
72284W        W15196   4.449  17.993   3.714 -0.1021  0.0313 -0.2898
72285W        W15197   6.500  18.395   7.918 -0.0379  0.0519  0.1080
72286W        W15198   4.584  20.896   3.075 -0.0600 -0.0783 -0.0133
72287W        W15199   4.493  20.938   3.601  0.0919  0.1772  0.3357
72288W        W15200   7.432  18.255   5.284  0.1478 -0.0603  0.1635
72289W        W15201   4.623  19.285   5.307  0.2765 -0.1683 -0.0713
72290W        W15202   3.860  21.605   6.405  0.3207 -0.2216 -0.0428
72291W        W15203   3.414  19.157   4.972 -0.0339  0.0060  0.2868
72292W        W15204   5.278  20.449   2.818 -0.3821  0.2676 -0.0925
72293W        W15205   6.616  20.950   4.640 -0.0424  0.2452  0.3159
72294W        W15206   7.545  20.142   7.393  0.1093 -0.0436  0.1709
72295W        W15207   5.552  17.981   3.712 -0.1951 -0.1486 -0.0999
72296W        W15208   7.861  19.152   5.219 -0.0376 -0.1281  0.0300
72297W        W15209   4.741  19.420   4.656  0.0201  0.2289 -0.1907
72298W        W15210   6.821  18.362   4.818  0.0145  0.0714 -0.0611
72299W        W15211   3.996  20.675   5.646 -0.0431  0.0086 -0.1780
72300W        W15212   4.160  19.317   6.746  0.3720  0.2466 -0.5128
72301W        W15213   5.111  20.671   4.307 -0.0893 -0.0021  0.4234
72302W        W15214   5.549  17.713   6.236  0.1467 -0.1704  0.1300
72303W        W15215   5.856  19.764   5.789 -0.1923 -0.2029  0.1165
72304W        W15216   6.154  19.998   4.319  0.0733 -0.2873 -0.0313
72305W        W15217   7.935  19.835   5.754  0.0960  0.1587  0.1012
72306W        W15218   5.226  21.775   5.637  0.1282 -0.1073  0.0028
72307W        W15219   4.801  20.671   5.072 -0.0940  0.1544 -0.0343
72308W        W15220   6.346  21.479   6.610 -0.0645  0.1206 -0.2023
72309W        W15221   6.001  20.536   3.460 -0.0888  0.2306 -0.1104
72310W        W15222   5.483  20.921   5.908  0.0570 -0.1911  0.0423
72311W        W15223   4.420  19.328   5.767  0.1506  0.1699 -0.0959
72312W        W15224   6.241  20.599   6.318  0.0733 -0.0332  0.0495
72313W        W15225   6.924  20.064   4.840 -0.2791  0.1262  0.0611
72314W        W15226   5.261  19.440   5.163 -0.2437  0.0187  0.0045
72315W        W15227   5.695  20.342   3.012  0.2136 -0.0723  0.4634
72316W        W15228   3.943  22.244   6.975  0.0364 -0.1049  0.2098
72317W        W15229   4.207  18.801   8.087 -0.1055  0.0116 -0.1083
72318W        W15230   3.706  22.932   3.941  0.3083 -0.1659 -0.2783
72319W        W15231   6.196  20.290   2.229 -0.1648 -0.1006  0.0886
72320W        W15232   5.807  20.228   1.927 -0.1846 -0.1007  0.0128
72321W        W15233   5.532  21.615   5.273  0.3362 -0.2233 -0.0091
72322W        W15234   4.746  18.745   4.407  0.0140  0.1278  0.1016
72323W        W15235   5.143  21.268   5.669  0.1930 -0.1901 -0.0270
72324W        W15236   4.010  20.464   3.073 -0.2478 -0.0218 -0.1827
72325W        W15237   6.436  20.637   2.621 -0.1566  0.1967 -0.3785
72326W        W15238   4.566  20.823   4.463  0.2545 -0.0387  0.0361
72327W        W15239   7.152  21.608   6.745  0.0346  0.3247  0.0565
72328W        W15240   5.891  18.825   3.487  0.3362  0.3640 -0.1074
72329W        W15241   7.096  19.597   5.080  0.2382 -0.3628 -0.0051
72330W        W15242   6.970  20.287   3.623 -0.2940 -0.0101 -0.1909
72331W        W15243   6.116  21.119   5.564  0.2192 -0.1304 -0.2363
72332W        W15244   5.121  20.623   6.087 -0.1670 -0.0938 -0.0384
72333W        W15245   4.427  18.154   3.191  0.0722  0.0285 -0.3193
72334W        W15246   6.578  19.397   6.848  0.3681  0.1050  0.0257
72335W        W15247   8.257  17.344   6.134  0.0112 -0.0973  0.1916
72336W        W15248   3.630  22.057   7.498  0.2305  0.0428 -0.1387
72337W        W15249   7.350  20.412   3.299  0.0851 -0.1212 -0.1621
72338W        W15250   4.437  19.062   4.784 -0.1333  0.0115  0.0496
72339W        W15251   5.357  19.517   4.462  0.0141 -0.1369 -0.2618
72340W        W15252   7.312  18.180   7.387  0.1899 -0.3258 -0.2064
72341W        W15253   5.632  19.858   2.629 -0.1606  0.4335  0.0300
72342W        W15254   5.098  18.969   5.144  0.3585  0.0471  0.1595
72343W        W15255   5.215  20.864   4.832  0.3033  0.0157  0.0816
72344W        W15256   5.104  21.413   5.225 -0.1010 -0.1192  0.2526
72345W        W15257   4.741  21.043   5.476 -0.0488  0.0694 -0.1901
72346W        W15258   3.317  17.751   4.518 -0.2273 -0.0455 -0.2102
72347W        W15259   6.589  18.861   5.061 -0.1774  0.0421 -0.2064
72348W        W15260   4.563  17.795   7.830 -0.1555  0.4743  0.1035
72349W        W15261   7.811  16.663   5.983 -0.0050  0.3295 -0.3747
72350W        W15262   4.994  19.369   5.621 -0.0166 -0.2588  0.1715
72351W        W15263   6.976  19.793   4.305 -0.0975  0.3126  0.1849
72352W        W15264   6.925  20.452   5.667 -0.0180 -0.3245 -0.2269
72353W        W15265   4.629  19.509   7.091 -0.0436  0.2019  0.1131
72354W        W15266   5.681  19.313   3.548 -0.1537 -0.1926 -0.2018
72355W        W15267   7.395  19.681   5.686  0.2557 -0.1188  0.0577
72356W        W15268   5.661  18.287   4.548 -0.1794 -0.1173 -0.3241
72357W        W15269   6.680  21.876   6.342 -0.0921 -0.2696  0.1050
72358W        W15270   4.266  18.601   5.008 -0.2604 -0.0447 -0.2587
72359W        W15271   5.698  18.448   3.800 -0.2034 -0.3001 -0.0330
72360W        W15272   4.336  20.473   4.804  0.1051 -0.3840 -0.0840
72361W        W15273   3.894  20.912   6.769  0.2890 -0.1772 -0.0097
72362W        W15274   6.933  20.827   7.785  0.2132 -0.0220 -0.1269
72363W        W15275   4.307  18.768   5.448 -0.0303 -0.1210  0.0575
72364W        W15276   7.021  19.880   1.983  0.2767  0.0043 -0.3927
72365W        W15277   7.100  19.228   5.848 -0.2614 -0.0300 -0.0242
72366W        W15278   5.683  22.229   3.013 -0.4909 -0.5849  0.0379
72367W        W15279   6.531  19.729   4.519  0.1769  0.1151 -0.0818
72368W        W15280   5.913  20.555   4.390  0.1920  0.0486 -0.0530
72369W        W15281   3.945  18.897   6.765  0.1574  0.0418 -0.0284
72370W        W15282   6.386  19.915   6.053  0.0201 -0.1975 -0.1010
72371W        W15283   7.514  20.677   4.794  0.1958 -0.0338  0.0436
72372W        W15284   4.474  17.896   5.069  0.0111  0.0894 -0.0827
72373W        W15285   5.450  20.020   4.205 -0.1132  0.1437  0.0882
72374W        W15286   4.105  21.533   3.567  0.0538 -0.0404  0.0045
72375W        W15287   6.681  18.993   5.611  0.2792  0.2877  0.2728
72376W        W15288   6.401  19.930   6.962  0.1110 -0.1942 -0.1302
72377W        W15289   5.926  22.051   4.002 -0.0512  0.1110 -0.1422
72378W        W15290   7.386  16.321   7.281 -0.0876 -0.0990  0.0775
72379W        W15291   6.236  20.612   5.330  0.0177 -0.0681  0.1196
72380W        W15292   5.980  21.780   7.746  0.0258  0.1275 -0.1542
72381W        W15293   2.869  19.413   3.760 -0.4157 -0.2208  0.1850
72382W        W15294   4.190  20.198   7.467  0.1524  0.0220 -0.1281
72383W        W15295   5.932  20.822   3.077  0.0294  0.1308 -0.0809
72384W        W15296   5.510  20.316   3.624 -0.0141  0.1620 -0.4277
72385W        W15297   6.668  21.750   4.652  0.2429  0.1821 -0.0554
72386W        W15298   6.364  19.269   5.244 -0.1082  0.0652 -0.0516
72387W        W15299   7.947  20.390   5.021  0.0465  0.1171 -0.3549
72388W        W15300   4.858  19.831   5.760  0.0140  0.1661  0.3587
72389W        W15301   7.355  18.469   4.856 -0.3683 -0.0284 -0.2551
72390W        W15302   8.700  17.138   3.900 -0.1446  0.2474 -0.4429
72391W        W15303   4.928  20.236   6.603  0.2878 -0.0746 -0.0004
72392W        W15304   3.063  20.023   4.491 -0.0654  0.3120  0.1136
72393W        W15305   3.976  19.481   2.896 -0.1058  0.2009 -0.4524
72394W        W15306   4.161  20.020   4.758  0.0357  0.2201  0.4375
72395W        W15307   6.258  18.395   5.583  0.0036 -0.1398 -0.0856
72396W        W15308   4.663  18.810   8.403  0.0355 -0.1210  0.2835
72397W        W15309   5.496  20.403   5.875 -0.0866 -0.1367 -0.1232
72398W        W15310   4.577  17.253   6.339 -0.2447 -0.4526  0.2628
72399W        W15311   8.386  20.303   2.864 -0.1149 -0.1677 -0.0239
72400W        W15312   3.382  18.097   6.230  0.0844 -0.1220  0.2114
72401W        W15313   2.902  17.894   4.877 -0.0579  0.1926  0.2808
72402W        W15314   6.571  20.887   4.126  0.1962  0.0576 -0.1628
72403W        W15315   6.453  20.460   3.849 -0.1181  0.2583 -0.2219
72404W        W15316   6.126  19.449   2.807 -0.2016 -0.1469 -0.0678
72405W        W15317   6.942  21.561   5.943  0.1934 -0.0506 -0.3641
72406W        W15318   3.414  21.242   3.616 -0.0381  0.0265  0.3528
72407W        W15319   5.592  19.538   7.387 -0.0113  0.2128  0.2243
72408W        W15320   5.663  19.754   6.310  0.0020 -0.3405  0.1262
72409W        W15321   3.225  18.676   4.831 -0.1394  0.0208  0.1495
72410W        W15322   6.596  20.164   5.350 -0.2197  0.3900 -0.4489
72411W        W15323   6.416  20.504   4.387 -0.1639 -0.0727  0.1599
72412W        W15324   7.133  21.452   3.138 -0.2576 -0.2076 -0.0165
72413W        W15325   5.936  20.162   6.119  0.2940 -0.0438 -0.0553
72414W        W15326   6.885  21.369   6.393  0.0206 -0.1155  0.1486
72415W        W15327   4.702  18.028   6.679  0.0529 -0.2488 -0.4154
72416W        W15328   6.925  20.568   4.043  0.3199 -0.0294  0.3412
72417W        W15329   6.255  20.236   7.340 -0.2482 -0.1824 -0.0515
72418W        W15330   7.735  20.442   2.228 -0.1700  0.0750 -0.0030
72419W        W15331   6.320  17.458   5.852 -0.2022  0.2104 -0.0560
72420W        W15332   6.453  19.281   4.787 -0.1267 -0.0511 -0.0174
72421W        W15333   4.477  18.099   7.380  0.0118 -0.0356 -0.3521
72422W        W15334   3.609  20.566   6.055 -0.0975  0.0952 -0.2651
72423W        W15335   6.360  20.590   6.808 -0.0098  0.1236  0.1838
72424W        W15336   4.115  17.478   5.401 -0.2418 -0.0905 -0.0833
72425W        W15337   5.922  18.088   5.378 -0.2374  0.0054  0.0419
72426W        W15338   5.371  20.888   3.843  0.1762 -0.1204 -0.1854
72427W        W15339   4.892  18.873   6.133  0.2398  0.0560  0.3399
72428W        W15340   5.735  19.613   4.052  0.4110 -0.0294 -0.2063
72429W        W15341   6.681  20.365   7.088 -0.3419 -0.1882  0.4291
72430W        W15342   4.958  20.186   4.183 -0.0822  0.3340 -0.3512
72431W        W15343   6.283  21.096   8.307  0.1470 -0.2110  0.1548
72432W        W15344   4.594  20.436   3.838  0.0362  0.0280  0.0594
72433W        W15345   7.353  19.433   3.417 -0.0490 -0.1775 -0.1591
72434W        W15346   7.058  22.538   6.670  0.0891 -0.5269 -0.6031
72435W        W15347   5.684  22.050   6.418 -0.0286 -0.0239 -0.0395
72436W        W15348   6.042  22.413   5.083  0.1905  0.0513  0.0043
72437W        W15349   7.114  18.739   5.703  0.0500 -0.1095 -0.0612
72438W        W15350   4.091  16.901   5.737 -0.0459 -0.3278 -0.3626
72439W        W15351   6.197  19.327   5.792  0.2312 -0.0251  0.3347
72440W        W15352   4.399  19.990   3.601  0.0756 -0.0331  0.3836
72441W        W15353   5.836  18.445   5.041  0.1070  0.2111  0.1264
72442W        W15354   5.739  18.198   5.863  0.0529  0.0707 -0.0935
72443W        W15355   6.469  17.898   4.047  0.4057 -0.2515  0.1145
72444W        W15356   4.959  20.958   6.718  0.0869 -0.3198 -0.0003
72445W        W15357   6.172  20.770   4.815 -0.2628  0.0214  0.2143
72446W        W15358   4.939  21.277   8.343 -0.5334  0.2784 -0.2731
72447W        W15359   4.606  19.931   7.434 -0.0089 -0.0162  0.2770
72448W        W15360   6.780  17.616   6.719 -0.1504 -0.2056  0.2927
72449W        W15361   8.529  20.297   5.544  0.2358  0.0221 -0.4822
72450W        W15362   4.524  19.717   8.395  0.3737  0.1546  0.0196
72451W        W15363   5.839  20.974   7.971  0.0508 -0.0979 -0.1433
72452W        W15364   6.193  20.793   8.718  0.0985  0.0433  0.1608
72453W        W15365   7.940  21.163   9.585 -0.1773 -0.2321 -0.1114
72454W        W15366   6.814  18.549   7.412  0.0116  0.3502 -0.1696
72455W        W15367   7.015  19.491  10.359  0.0713  0.1537 -0.0946
72456W        W15368   5.809  19.177   9.660 -0.0069  0.1355 -0.2053
72457W        W15369   2.743  15.930   9.747  0.0163  0.3815 -0.0311
72458W        W15370   6.109  20.214   8.935 -0.2462  0.0908 -0.1013
72459W        W15371   4.764  19.798   8.893 -0.3451  0.0539  0.1963
72460W        W15372   5.071  21.059   9.874  0.1022  0.1529  0.1917
72461W        W15373   6.471  17.225   8.728  0.2357 -0.0913 -0.1130
72462W        W15374   7.109  22.441   7.369  0.2161 -0.0668 -0.0723
72463W        W15375   6.669  18.489   9.749 -0.0160  0.0741 -0.0126
72464W        W15376   7.049  19.517   7.643  0.1819 -0.1345  0.1706
72465W        W15377   4.159  19.461   7.359  0.3369 -0.1061  0.2052
72466W        W15378   4.462  20.383   8.974 -0.0279  0.1228  0.0198
72467W        W15379   4.854  18.416   9.736 -0.0822  0.0892  0.1584
72468W        W15380   6.850  17.419   8.986 -0.1668 -0.1280  0.1259
72469W        W15381   6.179  19.203   9.055  0.2411  0.2929  0.0915
72470W        W15382   5.825  21.600   8.169 -0.1394  0.1206 -0.0375
72471W        W15383   5.494  20.755   8.316  0.0913  0.2387 -0.2595
72472W        W15384   3.693  19.924   8.777  0.1777  0.1200 -0.1672
72473W        W15385   4.743  22.703   8.558  0.0644 -0.1092  0.1737
72474W        W15386   4.461  21.788   7.684  0.2190  0.3074 -0.1067
72475W        W15387   6.628  19.316   8.135 -0.1158 -0.0685 -0.0580
72476W        W15388   3.399  19.839   7.313 -0.1248 -0.4239 -0.1398
72477W        W15389   5.944  20.136   9.444  0.1527  0.1790 -0.3600
72478W        W15390   4.486  20.232   8.292 -0.2908 -0.1655 -0.0017
72479W        W15391   6.142  20.196   5.606 -0.0655 -0.0622  0.1113
72480W        W15392   5.689  20.860   8.875 -0.0748  0.0390  0.1926
72481W        W15393   4.880  20.284   9.236  0.1256 -0.0881 -0.2263
72482W        W15394   5.948  21.559   6.339 -0.0260 -0.1541  0.1934
72483W        W15395   6.681  18.087   5.565 -0.1824  0.2082  0.0701
72484W        W15396   5.420  20.040   7.512 -0.0299 -0.0828 -0.1200
72485W        W15397   6.744  19.755   6.552 -0.2321 -0.1176 -0.0609
72486W        W15398   6.839  16.848   8.869 -0.3053  0.1471  0.1857
72487W        W15399   4.014  20.977   8.703 -0.0655 -0.0196  0.1836
72488W        W15400   6.036  17.710   9.719  0.0185  0.0083 -0.2194
72489W        W15401   6.463  18.159   7.477  0.0991  0.0403 -0.1021
72490W        W15402   5.818  18.723   9.416  0.1164 -0.0305 -0.1064
72491W        W15403   5.055  21.399   9.291  0.0047 -0.0858  0.0820
72492W        W15404   4.425  21.323   9.171  0.0023 -0.2304 -0.1393
72493W        W15405   6.657  22.017   7.417 -0.1077 -0.1457 -0.1373
72494W        W15406   6.701  19.763   7.926  0.0501  0.1871 -0.0532
72495W        W15407   5.307  21.222   7.407 -0.0355 -0.3142 -0.2724
72496W        W15408   5.074  18.931   8.900 -0.0193 -0.2521 -0.0037
72497W        W15409   4.887  18.185   7.806  0.0719 -0.1355 -0.0702
72498W        W15410   6.471  18.649   8.736  0.2213  0.0100  0.0445
72499W        W15411   5.866  20.462   8.526  0.0386  0.1329 -0.2807
72500W        W15412   8.188  19.805  10.679 -0.1243 -0.0177  0.1900
72501W        W15413   6.790  21.178   6.866  0.1149 -0.0804 -0.0565
72502W        W15414   5.468  17.180   8.582  0.0689 -0.3100 -0.0676
72503W        W15415   7.442  18.744   9.506  0.0185  0.0436  0.1337
72504W        W15416   3.801  18.998   8.434 -0.1609 -0.0765  0.0036
72505W        W15417   3.677  20.232   7.267 -0.0556  0.1067 -0.0428
72506W        W15418   6.412  21.437   8.671  0.3152  0.0495  0.0086
72507W        W15419   8.023  20.768   7.169  0.0003  0.0511  0.1931
72508W        W15420   5.307  21.112   7.931  0.1882  0.0332 -0.0741
72509W        W15421   3.694  20.272   8.322 -0.0296 -0.1666 -0.0362
72510W        W15422   3.453  20.394   9.218 -0.1109  0.1271  0.0401
72511W        W15423   3.537  20.171   7.770 -0.0310 -0.2511 -0.1215
72512W        W15424   3.902  19.828   9.739 -0.2614  0.2613  0.0747
72513W        W15425   5.037  19.816   9.365  0.0186  0.1515  0.1886
72514W        W15426   6.677  18.077   6.614 -0.0335  0.0795 -0.0951
72515W        W15427   6.044  17.731   8.940 -0.2371 -0.0945  0.1500
72516W        W15428   5.334  19.976   8.030 -0.2396 -0.1696 -0.3550
72517W        W15429   6.959  21.867   8.467 -0.2009 -0.0363  0.0482
72518W        W15430   6.909  19.024   7.524 -0.3857  0.3818  0.2183
72519W        W15431   7.284  20.347   6.047 -0.2020 -0.1291 -0.1101
72520W        W15432   4.135  21.755   9.213 -0.0932 -0.0642  0.2413
72521W        W15433   5.165  19.177   9.663  0.0914  0.0422 -0.1582
72522W        W15434   3.342  19.107   9.185 -0.3429 -0.0967  0.0996
72523W        W15435   4.211  17.523   8.046 -0.2287 -0.1201 -0.0017
72524W        W15436   7.461  19.341   9.035  0.1115  0.0257  0.2360
72525W        W15437   5.582  19.806   8.417  0.1210  0.0496 -0.1797
72526W        W15438   2.567  19.547   7.435  0.1207  0.0713  0.1420
72527W        W15439   4.180  21.714   8.238 -0.2666  0.0943 -0.0458
72528W        W15440   6.946  21.786  10.041 -0.3173  0.2284  0.2727
72529W        W15441   6.547  20.151   8.754 -0.2463  0.2070 -0.0645
72530W        W15442   5.323  21.092   8.675  0.3394 -0.1853  0.0514
72531W        W15443   5.730  18.811   7.622 -0.0459  0.1545  0.1350
72532W        W15444   3.273  21.934   8.625  0.2072  0.0048 -0.0584
72533W        W15445   6.192  20.600   8.163 -0.1146  0.0218  0.0855
72534W        W15446   6.788  18.895   6.707 -0.1392 -0.1808  0.1962
72535W        W15447   6.983  22.262   9.766  0.0570  0.0572 -0.1379
72536W        W15448   5.484  20.323   7.008  0.0654  0.2498  0.0824
72537W        W15449   6.670  21.114   9.191 -0.0578  0.1650 -0.2534
72538W        W15450   5.831  19.254   6.729 -0.3501 -0.0721 -0.3095
72539W        W15451   4.527  18.344   8.094 -0.1664 -0.0897  0.0207
72540W        W15452   5.871  21.296   8.604 -0.0456 -0.1999  0.1893
72541W        W15453   4.341  21.121   7.759 -0.2248  0.1153 -0.2931
72542W        W15454   4.814  21.249   8.835 -0.2442  0.1327 -0.0504
72543W        W15455   5.972  20.051   6.651  0.0611  0.1495 -0.0241
72544W        W15456   6.003  17.210   8.965  0.1971  0.0206  0.2614
72545W        W15457   5.496  19.135   7.087 -0.2439  0.4005  0.0704
72546W        W15458   7.017  18.219  10.120  0.0552 -0.2283 -0.2033
72547W        W15459   5.769  17.482   7.597 -0.0751  0.1616 -0.1241
72548W        W15460   6.624  20.379   7.812  0.1128 -0.2679  0.0728
72549W        W15461   6.611  19.469   7.338 -0.4810 -0.3112 -0.0636
72550W        W15462   7.029  19.301   7.041  0.1411  0.0935 -0.0998
72551W        W15463   6.060  20.735   7.228 -0.1809  0.2743 -0.1631
72552W        W15464   4.508  20.674   8.559 -0.0210  0.2375  0.0687
72553W        W15465   6.935  17.180   6.496 -0.3277 -0.1044 -0.3799
72554W        W15466   6.148  20.174   7.852 -0.1506 -0.0350 -0.1675
72555W        W15467   2.799  20.983   8.886  0.2863 -0.2442 -0.0095
72556W        W15468   7.259  21.127   7.463  0.2324  0.1307  0.0663
72557W        W15469   5.719  18.353   9.096 -0.0388  0.3361  0.1240
72558W        W15470   5.391  19.381   6.512  0.0410  0.1570 -0.2429
72559W        W15471   6.145  18.125   9.309 -0.0623  0.0668 -0.0464
72560W        W15472   4.894  22.403   8.207  0.0025 -0.1049  0.0921
72561W        W15473   6.659  18.981   9.636  0.0913  0.0608 -0.0598
72562W        W15474   5.707  18.418   8.582  0.1330 -0.0989  0.1276
72563W        W15475   6.852  18.031   7.220 -0.0020 -0.0935 -0.0809
72564W        W15476   5.558  18.926   8.824  0.0868  0.1130 -0.0453
72565W        W15477   4.100  19.911   8.318 -0.0370  0.1983 -0.1097
72566W        W15478   5.639  16.165   8.654 -0.2912  0.1157  0.1141
72567W        W15479   3.761  19.155   9.488 -0.1836  0.0823 -0.0908
72568W        W15480   6.683  19.725   8.453  0.1158 -0.0199 -0.0244
72569W        W15481   6.186  17.869   8.467 -0.0282  0.1005 -0.0878
72570W        W15482   5.080  21.073   6.167  0.1351 -0.4135 -0.1775
72571W        W15483   4.033  20.200   7.931  0.1534  0.0414  0.1747
72572W        W15484   4.356  18.178   9.919  0.0412 -0.2308  0.2267
72573W        W15485   4.687  21.370   9.670 -0.0775 -0.0194 -0.0426
72574W        W15486   5.974  19.338   7.612 -0.1911  0.0116  0.0765
72575W        W15487   6.787  19.799   9.918 -0.0499 -0.1675  0.0472
72576W        W15488   4.698  21.478   7.408  0.0132 -0.0360  0.1532
72577W        W15489   6.959  18.639   9.309  0.1857 -0.0062  0.0756
72578W        W15490   4.423  21.133   8.371  0.2406 -0.5015  0.0499
72579W        W15491   5.124  19.484   7.002  0.1886 -0.1033 -0.0812
72580W        W15492   4.218  18.458   9.027  0.2284  0.1512  0.0878
72581W        W15493   6.558  17.818   8.819  0.2100  0.1159  0.0734
72582W        W15494   7.289  19.720   7.257 -0.1426 -0.1113  0.3892
72583W        W15495   4.407  18.303   9.430  0.2480  0.1721 -0.1807
72584W        W15496   4.837  18.287  10.203  0.1949 -0.0526 -0.2005
72585W        W15497   3.488  21.455   7.933  0.0391 -0.4334 -0.0847
72586W        W15498   6.759  18.069   8.409 -0.1412  0.0371  0.1035
72587W        W15499   5.328  19.097   7.655 -0.4996  0.0469 -0.1771
72588W        W15500   6.829  18.563   8.369  0.2428 -0.2058  0.1922
72589W        W15501   7.518  19.582  10.025 -0.3800  0.0135 -0.1177
72590W        W15502   3.688  20.676   8.014 -0.4268  0.0055  0.2843
72591W        W15503   5.711  21.195   9.313 -0.0580  0.1499 -0.1420
72592W        W15504   4.726  19.877   7.968 -0.4429 -0.0636 -0.0300
72593W        W15505   3.834  19.788   7.543 -0.1091 -0.0237 -0.1890
72594W        W15506   6.168  19.731   8.941 -0.1640 -0.0756  0.0872
72595W        W15507   5.698  20.084   9.957  0.0182  0.0366 -0.1023
72596W        W15508   5.527  16.826  10.106  0.3328 -0.3058 -0.1217
72597W        W15509   5.516  19.949   9.433 -0.1013 -0.0161  0.2490
72598W        W15510   6.550  20.654   9.015 -0.0260  0.2003 -0.2189
72599W        W15511   5.175  18.815   8.439  0.1088  0.1163 -0.2579
72600W        W15512   5.342  17.976   8.357  0.3249  0.0729 -0.1688
72601W        W15513   6.886  22.216   7.844  0.0071  0.2760  0.0619
72602W        W15514   4.521  20.321   7.795  0.1227 -0.0148 -0.0908
72603W        W15515   3.165  21.477   8.483 -0.0230 -0.0204  0.2711
72604W        W15516   4.571  20.597   7.381  0.1363 -0.0824 -0.0472
72605W        W15517   7.006  19.350   8.650  0.3263 -0.0397 -0.0446
72606W        W15518   5.301  20.563   8.910  0.1724 -0.0883  0.0284
72607W        W15519   3.704  19.472   7.152 -0.1209  0.0842 -0.0866
72608W        W15520   4.916  22.383   9.321 -0.0617 -0.2688  0.1707
72609W        W15521   7.533  17.606   8.912 -0.1377 -0.0104  0.0476
72610W        W15522   5.482  21.053   6.490  0.2228 -0.2386  0.0065
72611W        W15523   6.014  18.712   8.945 -0.0453  0.3135 -0.2059
72612W        W15524   7.301  18.801   7.222 -0.4747  0.0444  0.3422
72613W        W15525   5.588  16.982   9.580  0.1835  0.0922  0.0923
72614W        W15526   7.313  19.115   7.931  0.0305 -0.3041  0.0936
72615W        W15527   6.063  18.208   7.802  0.1899 -0.0508 -0.1340
72616W        W15528   5.139  18.543   6.528 -0.1134  0.2798  0.0314
72617W        W15529   5.759  18.031  10.172  0.0547 -0.2894 -0.0983
72618W        W15530   6.555  20.177   8.235  0.0608  0.0933  0.1918
72619W        W15531   4.908  20.977   7.232 -0.2213  0.0950 -0.0168
72620W        W15532   7.977  20.187   8.300 -0.2065  0.3407 -0.1551
72621W        W15533   4.935  18.867   9.997 -0.2082  0.0769 -0.1314
72622W        W15534   7.416  18.597   7.694 -0.0399 -0.0539  0.0405
72623W        W15535   6.309  18.633   7.477  0.0272 -0.2964  0.1716
72624W        W15536   5.368  19.350   8.529  0.1377  0.0214  0.1992
72625W        W15537   6.080  20.041   8.464  0.0405 -0.1458  0.2531
72626W        W15538   7.134  18.666   9.952 -0.0853  0.2155 -0.1000
72627W        W15539   6.564  22.532   9.628  0.1035 -0.0047  0.2170
72628W        W15540   7.281  19.616   6.698 -0.0841 -0.2267 -0.1025
72629W        W15541   7.377  18.537   8.552 -0.2229  0.0635 -0.3041
72630W        W15542   6.433  19.113   7.722  0.0930 -0.2245 -0.2669
72631W        W15543   6.042  19.086   8.028  0.0658 -0.0489 -0.2877
72632W        W15544   4.477  20.941   9.597  0.0132  0.2357 -0.0103
72633W        W15545   5.814  19.232   6.192  0.0108 -0.0912  0.1198
72634W        W15546   4.786  22.564   7.374 -0.0845  0.2287 -0.1004
72635W        W15547   6.286  21.588   8.106 -0.1513 -0.0165 -0.1821
72636W        W15548   5.787  18.028   8.196 -0.0701  0.0091 -0.2451
72637W        W15549   4.482  19.189   9.974 -0.0419 -0.0783  0.2085
72638W        W15550   3.456  19.561   7.850 -0.0065  0.0615 -0.1119
72639W        W15551   6.261  19.743   7.579 -0.0336  0.0404 -0.5590
72640W        W15552   5.507  20.801   9.782  0.1263 -0.0113 -0.0964
72641W        W15553   5.576  17.910   7.749 -0.0978  0.1873  0.1968
72642W        W15554   4.350  22.061   8.639  0.0742  0.1902  0.0115
72643W        W15555   6.605  16.507   8.563  0.0741 -0.0434 -0.2693
72644W        W15556   4.876  22.160   8.765  0.4073  0.4491  0.0228
72645W        W15557   5.810  19.812   7.729  0.2932 -0.1476  0.1364
72646W        W15558   6.142  18.233   8.815 -0.2266  0.0424 -0.1333
72647W        W15559   6.237  18.741   9.756  0.1086 -0.0279  0.3716
72648W        W15560   5.185  20.015   8.889  0.2640  0.1918 -0.1784
72649W        W15561   4.469  19.884   9.283 -0.0984 -0.1158 -0.1499
72650W        W15562   7.105  19.556   8.105  0.1116 -0.1224  0.1050
72651W        W15563   5.130  21.914   9.180 -0.0828  0.0728 -0.0188
72652W        W15564   6.219  19.694   8.072  0.0834 -0.2067  0.0297
72653W        W15565   4.800  17.878   8.290  0.0242  0.5351  0.1000
72654W        W15566   4.932  20.543   7.013 -0.0716 -0.2384  0.0969
72655W        W15567   3.314  22.355   9.473 -0.1168 -0.2526  0.0016
72656W        W15568   3.666  20.755   8.486  0.0969  0.0831  0.1083
72657W        W15569   6.098  19.504   7.180 -0.2239 -0.0267  0.0501
72658W        W15570   6.579  19.107   8.600  0.1929 -0.0918  0.0836
72659W        W15571   5.559  21.835   8.611  0.2092 -0.1062 -0.0793
72660W        W15572   5.986  18.874   8.501 -0.3943 -0.2103 -0.2520
72661W        W15573   4.123  20.675   7.656  0.0890  0.3328 -0.0210
72662W        W15574   3.773  21.413   6.843 -0.2499  0.2057 -0.1578
72663W        W15575   6.936  20.351   6.668 -0.0570  0.2260  0.0330
72664W        W15576   3.955  20.221   9.281  0.2968  0.2962 -0.0278
72665W        W15577   7.916  17.790   5.847  0.2126 -0.2423 -0.3557
72666W        W15578   7.687  19.386   8.211  0.0705  0.1034  0.0573
72667W        W15579   7.534  17.404   7.337  0.1262  0.1043  0.3314
72668W        W15580   4.480  18.697  10.042 -0.1055  0.3347 -0.0984
72669W        W15581   4.478  16.692   7.691 -0.0844 -0.0692  0.1210
72670W        W15582   6.523  21.926   6.779 -0.1582 -0.0386 -0.0056
72671W        W15583   5.796  19.410   8.804  0.1706 -0.0479  0.1028
72672W        W15584   5.369  17.905   8.889 -0.1507  0.0991 -0.2480
72673W        W15585   7.081  18.260   9.583  0.2125 -0.0306 -0.1180
72674W        W15586   6.652  21.194   7.384 -0.3407 -0.1070  0.1549
72675W        W15587   6.240  19.791   9.732  0.2060 -0.0932  0.2231
72676W        W15588   5.391  21.406   8.307  0.1469 -0.0665  0.1348
72677W        W15589   5.372  20.484   7.856 -0.0569 -0.2052 -0.0271
72678W        W15590   4.826  20.743   8.927  0.0895  0.2957 -0.1100
72679W        W15591   6.487  18.464   7.003  0.3763  0.0864 -0.1150
72680W        W15592   7.989  17.809   8.683  0.0036 -0.1441  0.0278
72681W        W15593   4.485  18.902   9.590 -0.2188  0.0751 -0.1128
72682W        W15594   4.839  19.368   9.207  0.1009 -0.1859 -0.0881
72683W        W15595   6.164  18.370   6.067  0.1292 -0.2704  0.1026
72684W        W15596   6.545  19.957   9.198 -0.2210  0.0756 -0.3533
72685W        W15597   7.148  20.151  10.108  0.0580  0.0114 -0.0601
72686W        W15598   6.303  19.191   6.300 -0.0057 -0.1095  0.2036
72687W        W15599   6.963  19.928   6.944  0.0020 -0.2573  0.0647
72688W        W15600   6.352  18.554  10.285 -0.2043  0.0639 -0.2281
72689W        W15601   6.767  17.531   6.209  0.0632  0.0472  0.0744
72690W        W15602   4.793  19.562   9.698  0.0545  0.0044  0.3651
72691W        W15603   5.650  21.459  10.054 -0.1495  0.0523 -0.1940
72692W        W15604   4.731  17.916   9.696  0.1666  0.2121  0.0282
72693W        W15605   7.275  21.044   6.003  0.2393 -0.0705  0.0204
72694W        W15606   7.634  19.503  10.520  0.2318 -0.1284  0.2879
72695W        W15607   5.190  22.210   7.311  0.0353  0.2158  0.2105
72696W        W15608   7.090  20.057   8.383  0.4025  0.0584 -0.1311
72697W        W15609   6.180  21.915   8.743  0.1457  0.1152  0.0289
72698W        W15610   4.954  17.424   9.874 -0.2353  0.2283  0.0330
72699W        W15611   4.543  24.168   9.825 -0.0533 -0.0740 -0.1772
72700W        W15612   6.014  22.419   9.636  0.0909  0.2922  0.0394
72701W        W15613   5.031  18.375   8.329  0.0868  0.1186  0.1987
72702W        W15614   5.217  20.278   9.628 -0.2620  0.1748  0.1571
72703W        W15615   4.578  20.773   8.081 -0.0119 -0.2601  0.1638
72704W        W15616   6.185  18.395   8.368 -0.2346  0.1317 -0.1394
72705W        W15617   6.040  20.972   6.617 -0.1493 -0.0563 -0.4948
72706W        W15618   5.274  20.584   7.356  0.1391 -0.1247  0.3126
72707W        W15619   4.226  19.710   7.893 -0.0549  0.2389 -0.1027
72708W        W15620   5.761  20.404   7.465 -0.2208  0.2214 -0.2449
72709W        W15621   5.576  19.795   6.838 -0.0354 -0.0600 -0.0280
72710W        W15622   6.948  21.491   8.785 -0.3660  0.3584  0.0310
72711W        W15623   5.014  19.823   8.465  0.2019  0.0181 -0.0247
72712W        W15624   6.854  20.476   8.508  0.0074 -0.3333 -0.2719
72713W        W15625   6.868  20.445   9.880  0.1013  0.0625  0.0865
72714W        W15626   7.169  17.132   9.239  0.2920 -0.1251 -0.0927
72715W        W15627   6.662  18.115   9.242 -0.0429 -0.0695 -0.3432
72716W        W15628   1.947  22.027   9.086  0.2633 -0.0149  0.1432
72717W        W15629   3.335  19.176   8.117  0.2910  0.0677  0.1778
72718W        W15630   3.143  20.336   7.133 -0.2061  0.3033 -0.2089
72719W        W15631   3.965  20.460   9.891 -0.0180 -0.1668 -0.1560
72720W        W15632   3.268  20.868   8.814  0.4641 -0.1318  0.1364
72721W        W15633   4.600  19.000   7.896 -0.0125  0.3630  0.0775
72722W        W15634   7.712  20.668   8.176  0.0248 -0.0901  0.2115
72723W        W15635   4.792  17.887   8.814 -0.2075 -0.5510  0.0233
72724W        W15636   5.363  18.660   9.204 -0.1409 -0.0889 -0.0946
72725W        W15637   6.297  20.771   7.739 -0.0862  0.2206 -0.1521
72726W        W15638   5.411  20.856   7.010  0.2578  0.0375 -0.1421
72727W        W15639   5.331  20.276   8.478 -0.3458 -0.0393  0.3063
72728W        W15640   3.704  18.994   7.829  0.0938  0.0262  0.0677
72729W        W15641   5.507  19.146   9.279  0.0008  0.2331 -0.2711
72730W        W15642   5.727  20.302   8.070  0.1495  0.0535 -0.2286
72731W        W15643   4.937  20.734   7.760 -0.0635  0.0256 -0.0151
72732W        W15644   6.126  21.184   7.584  0.2633 -0.3435  0.0106
72733W        W15645   3.745  17.268   8.324 -0.0573  0.0154 -0.1818
72734W        W15646   6.817  19.979   7.500 -0.2391  0.2441 -0.3555
72735W        W15647   7.632  20.816   6.858  0.1231 -0.0542 -0.0381
72736W        W15648   6.393  18.617   9.306 -0.0750  0.0667 -0.0672
72737W        W15649   7.159  17.730   8.139  0.2011  0.2214 -0.2426
72738W        W15650   6.970  19.909   8.939  0.0289 -0.0622 -0.1630
72739W        W15651   5.074  19.375   8.070  0.1069  0.1764  0.1913
72740W        W15652   7.982  17.234   8.636 -0.0736  0.0328  0.0875
72741W        W15653   5.661  20.886   7.519  0.1928  0.1549  0.0551
72742W        W15654   2.982  20.494   9.118  0.3919 -0.0431 -0.0250
72743W        W15655   7.055  18.486   6.957  0.3502 -0.0289 -0.0285
72744W        W15656   6.299  21.663  10.219  0.2405  0.0565 -0.1155
72745W        W15657   5.915  18.966   7.214 -0.2846 -0.0871 -0.0603
72746W        W15658   6.668  21.602   7.142  0.0369  0.0469  0.3092
72747W        W15659   4.969  20.232   7.570  0.0504  0.0946  0.1659
72748W        W15660   3.849  20.727   9.085 -0.0114  0.1799 -0.1997
72749W        W15661   5.734  20.599   9.394 -0.0616 -0.3705  0.0822
72750W        W15662   5.664  17.805   9.300  0.0612 -0.0591 -0.0733
72751W        W15663   5.810  19.579   9.324 -0.1029  0.0049 -0.0641
72752W        W15664   6.435  18.815   8.192 -0.1259  0.2217  0.0458
72753W        W15665   5.652  19.916   8.913  0.1230  0.0133 -0.1863
72754W        W15666   5.313  18.664   9.783  0.0180 -0.1089 -0.1206
72755W        W15667   7.251  17.613   6.450  0.0545  0.2150 -0.1855
72756W        W15668   3.550  23.204   8.925 -0.0369  0.0810 -0.3781
72757W        W15669   6.145  20.902   9.196 -0.6954 -0.0267 -0.3047
72758W        W15670   5.520  23.916   4.090  0.1243  0.0646 -0.3089
72759W        W15671   4.206  22.537  31.870  0.1434  0.1482 -0.1659
72760W        W15672   6.072  21.895  31.105 -0.0377  0.1792 -0.3021
72761W        W15673   6.289  24.715   0.509 -0.0940 -0.0876 -0.0361
72762W        W15674   3.699  22.937   0.657  0.1585 -0.1289  0.3016
72763W        W15675   6.401  25.826   1.990 -0.4740  0.1059 -0.1143
72764W        W15676   4.264  22.697   1.798  0.1750  0.2598 -0.1226
72765W        W15677   6.440  25.371   2.222  0.0835  0.1319 -0.1072
72766W        W15678   6.186  24.443   2.471  0.0785  0.1582  0.1680
72767W        W15679   5.244  25.116   0.463  0.4172  0.2343  0.2088
72768W        W15680   4.771  22.578   2.060 -0.2135  0.1261 -0.4169
72769W        W15681   5.565  25.240   3.965 -0.2770 -0.2033  0.0561
72770W        W15682   4.658  21.049  30.427  0.0529  0.0568 -0.0098
72771W        W15683   3.016  21.646   1.719 -0.4014 -0.3464 -0.1355
72772W        W15684   6.464  22.763   3.123 -0.1483 -0.0182 -0.3785
72773W        W15685   5.227  24.092   0.110  0.0193 -0.0157 -0.2012
72774W        W15686   5.023  22.239   2.916  0.0342  0.2203  0.0409
72775W        W15687   4.686  22.596   2.692 -0.1159  0.0257  0.2074
72776W        W15688   5.125  25.839   1.429 -0.1991  0.1058  0.1637
72777W        W15689   5.097  23.607   2.404  0.0791  0.3063  0.0227
72778W        W15690   6.131  23.083   2.603  0.0044  0.0130 -0.2942
72779W        W15691   6.492  26.244   1.330 -0.0745  0.0151  0.7133
72780W        W15692   6.161  24.324  31.501 -0.0320 -0.0205  0.1174
72781W        W15693   4.587  24.311   2.665  0.1218 -0.2194 -0.2035
72782W        W15694   6.306  22.999   2.095 -0.0613 -0.2218  0.1127
72783W        W15695   6.421  22.282   1.393 -0.0772  0.1672 -0.3776
72784W        W15696   5.361  22.264   1.360 -0.2532  0.1824 -0.1026
72785W        W15697   5.844  24.968   1.679  0.0665  0.0700  0.2112
72786W        W15698   5.756  24.972   2.511 -0.2594 -0.0493 -0.1499
72787W        W15699   6.662  23.562   3.796  0.1026  0.0458  0.0368
72788W        W15700   5.437  24.591   2.581 -0.1688 -0.0823  0.0588
72789W        W15701   5.093  23.519   0.322 -0.0232 -0.0893 -0.2533
72790W        W15702   4.909  24.898   1.936 -0.0046  0.1952  0.4038
72791W        W15703   8.200  23.315   1.722  0.1586  0.0915 -0.1483
72792W        W15704   6.414  23.969   1.940  0.1942 -0.1108  0.0840
72793W        W15705   5.049  26.749   2.891 -0.2744 -0.0309  0.2107
72794W        W15706   4.292  25.804   0.756 -0.1162 -0.0455  0.0173
72795W        W15707   5.335  27.327   2.678  0.1788 -0.0287  0.1106
72796W        W15708   3.202  25.322   1.789  0.1841  0.1862  0.2036
72797W        W15709   5.559  22.704   1.409  0.3918  0.2669 -0.0895
72798W        W15710   5.713  24.432   1.687 -0.2047 -0.0263 -0.0239
72799W        W15711   3.824  27.249   1.067 -0.2707  0.2082  0.0133
72800W        W15712   6.439  25.410   1.056  0.1992  0.1071  0.0116
72801W        W15713   5.561  22.794   3.239  0.0321  0.2201 -0.0176
72802W        W15714   4.374  25.254   0.686  0.0650 -0.1191  0.2467
72803W        W15715   6.982  22.372   3.245 -0.0402  0.1493 -0.0219
72804W        W15716   4.303  25.204   0.092  0.3728  0.2047 -0.1116
72805W        W15717   6.249  23.588   0.734  0.2349  0.1593  0.1733
72806W        W15718   4.977  23.155   1.120  0.1513 -0.1545 -0.3640
72807W        W15719   5.734  23.198   1.458  0.1259  0.0507  0.0980
72808W        W15720   4.113  21.811   1.132 -0.0343 -0.0379 -0.2857
72809W        W15721   5.262  25.359   1.215  0.1251 -0.0822  0.0309
72810W        W15722   4.696  21.731   0.939  0.0134 -0.1332  0.0311
72811W        W15723   5.687  23.766   2.742  0.1008  0.0217  0.0386
72812W        W15724   5.537  23.989   1.719  0.1978  0.0249 -0.0939
72813W        W15725   6.084  23.886   2.393 -0.1262 -0.1000  0.1536
72814W        W15726   4.362  25.781   2.153  0.0282  0.0030 -0.1283
72815W        W15727   4.117  23.541   2.128  0.3401  0.1737  0.3442
72816W        W15728   5.341  25.876   0.478  0.0413 -0.1242  0.0365
72817W        W15729   7.407  23.812   1.559 -0.1690  0.0737 -0.1773
72818W        W15730   6.004  25.585   0.868 -0.0583 -0.1167 -0.4544
72819W        W15731   4.342  23.340   1.723 -0.1843 -0.1417  0.2272
72820W        W15732   4.669  24.721   2.957 -0.0376 -0.1650 -0.0572
72821W        W15733   4.379  23.425   3.498  0.1113 -0.1927 -0.1258
72822W        W15734   5.641  22.459   0.942  0.2154  0.1418  0.2578
72823W        W15735   8.949  24.172   4.641  0.0950 -0.0043 -0.2133
72824W        W15736   3.077  25.675   2.215 -0.1683 -0.0024 -0.0148
72825W        W15737   7.605  22.762   0.521  0.1046 -0.1956  0.1615
72826W        W15738   3.885  24.256   1.231 -0.2043 -0.0427  0.2723
72827W        W15739   5.889  24.499   2.912 -0.1169 -0.1797 -0.2014
72828W        W15740   6.505  23.966   0.371 -0.1873  0.1914 -0.0954
72829W        W15741   6.802  22.624   1.526  0.1359 -0.1543  0.0033
72830W        W15742   5.488  20.864   1.706  0.2548 -0.1161  0.1463
72831W        W15743   4.691  25.109  31.779  0.4630 -0.0085 -0.0840
72832W        W15744   5.118  23.628   1.791 -0.0162  0.1792 -0.2037
72833W        W15745   6.710  24.260   2.840  0.0552  0.1200 -0.3260
72834W        W15746   6.241  23.321  31.611 -0.0784  0.0399  0.1059
72835W        W15747   4.848  25.787   2.246 -0.2422  0.0476 -0.2185
72836W        W15748   5.251  22.447   3.325  0.0280  0.2183  0.1895
72837W        W15749   3.542  25.077   0.437  0.2577  0.2440 -0.2792
72838W        W15750   4.795  24.018   2.376 -0.1037  0.0537 -0.2809
72839W        W15751   4.090  24.743  31.714  0.0491  0.2448 -0.0675
72840W        W15752   3.574  23.430   2.152 -0.0978 -0.0605  0.0880
72841W        W15753   6.012  24.674   3.396 -0.0625 -0.2417  0.1298
72842W        W15754   6.818  21.911   0.056 -0.5131 -0.3271 -0.0093
72843W        W15755   4.931  22.813   3.067  0.1329  0.1681 -0.1822
72844W        W15756   6.901  21.518   1.166 -0.1055 -0.0836  0.0430
72845W        W15757   4.686  23.777   0.553 -0.1290  0.2561  0.1340
72846W        W15758   7.978  26.874   0.528  0.0713 -0.0149  0.1226
72847W        W15759   6.733  23.366  31.448  0.0829 -0.2954 -0.1441
72848W        W15760   5.783  23.530   0.947  0.0720  0.3304  0.2792
72849W        W15761   2.814  23.963   2.518 -0.1187  0.0815  0.0972
72850W        W15762   4.645  23.917   1.903 -0.1360 -0.1334  0.0579
72851W        W15763   5.676  23.227   2.863 -0.2759  0.4026  0.1124
72852W        W15764   3.090  22.248   1.481 -0.0592 -0.0390 -0.1322
72853W        W15765   7.096  23.986   2.517 -0.0880 -0.2077 -0.0437
72854W        W15766   5.995  21.454   1.482 -0.0718 -0.0367  0.0094
72855W        W15767   6.732  21.108   0.598  0.0405  0.4007  0.0473
72856W        W15768   4.637  23.269   2.971 -0.0418  0.4535 -0.1735
72857W        W15769   2.670  25.563   0.160 -0.4980 -0.2239 -0.0647
72858W        W15770   8.424  22.224   2.071  0.1945 -0.1189 -0.1817
72859W        W15771   6.042  25.724   2.337  0.1073 -0.1082 -0.1649
72860W        W15772   6.989  24.082   1.397 -0.0459  0.1463  0.1539
72861W        W15773   7.101  24.789   2.025  0.0868  0.0326 -0.1257
72862W        W15774   3.297  22.767   1.347  0.1692  0.1969  0.0511
72863W        W15775   3.953  20.913   0.888 -0.1203  0.2641 -0.0030
72864W        W15776   4.314  25.875   3.013 -0.0780 -0.0961  0.1133
72865W        W15777   4.707  25.758   1.110 -0.2908 -0.2214  0.1130
72866W        W15778   4.645  22.725   0.830  0.0684  0.1878  0.1777
72867W        W15779   6.723  25.014   1.241 -0.1551 -0.1932 -0.1755
72868W        W15780   6.166  25.083   0.854 -0.2309  0.1532  0.0129
72869W        W15781   4.068  23.342   3.040 -0.0396 -0.0189 -0.0589
72870W        W15782   6.287  22.121   2.345  0.0509 -0.1922  0.0168
72871W        W15783   6.433  23.500   2.479 -0.0984  0.3163  0.3061
72872W        W15784   4.982  24.103   1.026  0.2506  0.3973 -0.1988
72873W        W15785   4.200  22.293   0.285  0.0544 -0.2202 -0.0667
72874W        W15786   7.462  25.854   0.440 -0.2692  0.1479 -0.1006
72875W        W15787   4.331  25.388   1.155 -0.2123  0.1802  0.3035
72876W        W15788   3.740  24.597   1.585  0.0082  0.0351  0.0250
72877W        W15789   5.890  24.698   2.116 -0.2272  0.1177  0.0026
72878W        W15790   6.201  23.269   1.101 -0.3136 -0.1223  0.3079
72879W        W15791   4.409  24.564   4.446  0.0488 -0.0545 -0.1950
72880W        W15792   6.501  25.032   3.444  0.3682 -0.0294  0.0300
72881W        W15793   4.641  21.942   0.242 -0.1293 -0.0953 -0.0964
72882W        W15794   5.097  25.257   3.791  0.2299 -0.4905 -0.1580
72883W        W15795   7.867  21.171   1.129  0.1412  0.0087 -0.1273
72884W        W15796   6.001  23.135   0.635 -0.0226  0.0759 -0.0030
72885W        W15797   5.981  25.102   3.722 -0.0093 -0.3301 -0.0523
72886W        W15798   5.791  24.089   1.143 -0.0306 -0.0645 -0.0015
72887W        W15799   5.776  23.073   0.192 -0.0651 -0.0379  0.2225
72888W        W15800   6.425  21.322   1.184  0.1179  0.2891  0.2518
72889W        W15801   5.895  25.401   4.920 -0.1171  0.3065 -0.2848
72890W        W15802   6.497  25.355   1.647 -0.0424 -0.0936 -0.0571
72891W        W15803   4.768  23.145   2.482 -0.0147 -0.1825  0.0210
72892W        W15804   4.597  21.744   1.415  0.0261  0.2521 -0.3939
72893W        W15805   7.484  24.477   1.592 -0.1293  0.0196  0.2882
72894W        W15806   5.080  25.348   2.202 -0.4393 -0.0256  0.0415
72895W        W15807   6.382  23.688   4.215 -0.0206 -0.2235  0.3805
72896W        W15808   6.274  23.912   1.130 -0.1074  0.0707 -0.3183
72897W        W15809   5.290  21.282   1.548  0.2972  0.3844 -0.0229
72898W        W15810   5.651  23.931  31.678 -0.1187 -0.1783  0.1223
72899W        W15811   5.703  21.813   0.722  0.2141  0.3148 -0.0227
72900W        W15812   3.573  26.441   1.095  0.0110 -0.0369  0.0642
72901W        W15813   7.113  24.709   1.388 -0.0800  0.1638  0.1900
72902W        W15814   6.018  23.640   1.872 -0.3245 -0.0928 -0.1904
72903W        W15815   5.987  21.153   2.751 -0.2030  0.0265 -0.2395
72904W        W15816   8.280  24.397   1.873  0.0618  0.0732  0.0395
72905W        W15817   6.861  21.878  31.059  0.1349 -0.1626  0.1311
72906W        W15818   5.403  23.787   3.656 -0.0156 -0.0213 -0.1465
72907W        W15819   3.842  24.716   0.153  0.3215 -0.0928  0.0212
72908W        W15820   5.732  23.597   3.285 -0.0443 -0.0826  0.3092
72909W        W15821   3.669  24.099   2.366  0.0962  0.2348 -0.1906
72910W        W15822   3.570  25.612   2.279 -0.1710 -0.0197 -0.0166
72911W        W15823   5.542  24.395   2.150  0.3305  0.0424  0.1562
72912W        W15824   6.503  24.430   2.125  0.2186 -0.0200  0.1782
72913W        W15825   5.989  23.407   2.273  0.1311  0.1831  0.2647
72914W        W15826   6.213  22.750   0.395 -0.0585 -0.5007 -0.1982
72915W        W15827   3.798  25.949   0.714 -0.2683 -0.1987  0.1312
72916W        W15828   4.995  24.095   1.619 -0.0977 -0.1297 -0.3049
72917W        W15829   5.485  22.367   2.247  0.0157 -0.0119 -0.2893
72918W        W15830   5.088  25.709   4.116  0.2532  0.0620  0.0584
72919W        W15831   5.440  26.359   0.421  0.1113  0.2134  0.1790
72920W        W15832   6.116  23.613   2.877 -0.3621  0.2593 -0.1906
72921W        W15833   5.188  26.551   1.599 -0.1251  0.3254  0.0757
72922W        W15834   6.034  20.223   2.708 -0.1978 -0.0073  0.0852
72923W        W15835   3.920  26.288   1.471 -0.2457  0.1448 -0.0948
72924W        W15836   4.516  23.187   0.742  0.0931 -0.0221  0.2196
72925W        W15837   3.503  23.212   1.258 -0.0548  0.0344 -0.1037
72926W        W15838   6.885  20.970   1.052  0.0754 -0.1730  0.1538
72927W        W15839   4.649  23.315   0.272 -0.1937 -0.1370 -0.0731
72928W        W15840   3.057  24.753   0.992 -0.1914 -0.0814 -0.2413
72929W        W15841   8.734  20.812   0.723  0.2341  0.2009 -0.1212
72930W        W15842   3.921  26.063   2.422  0.0864  0.2678 -0.0822
72931W        W15843   5.955  22.740   2.989  0.0639 -0.0231  0.4217
72932W        W15844   6.468  21.811  31.657 -0.2657  0.0807 -0.0630
72933W        W15845   5.229  25.174   2.659  0.0843  0.2842 -0.1131
72934W        W15846   5.714  23.473   3.927 -0.2052  0.0424  0.2213
72935W        W15847   5.946  22.864   1.035  0.2543  0.2779 -0.0237
72936W        W15848   6.686  23.410   1.079 -0.1665 -0.1508 -0.0529
72937W        W15849   3.802  23.269   1.755  0.0664 -0.1084  0.0991
72938W        W15850   5.882  24.623   1.274 -0.0698 -0.0576  0.0879
72939W        W15851   4.831  24.914   3.419 -0.1463  0.0270 -0.1109
72940W        W15852   4.778  23.553  31.774  0.0113 -0.1094  0.1659
72941W        W15853   5.754  24.210   2.544  0.1624  0.0073 -0.3714
72942W        W15854   5.078  22.724   2.413  0.0870 -0.1899  0.1033
72943W        W15855   6.036  24.013   3.309 -0.0565 -0.0891 -0.2286
72944W        W15856   6.177  22.097   1.868 -0.1253 -0.1171  0.0865
72945W        W15857   5.043  22.710   1.567 -0.0342  0.0219  0.0456
72946W        W15858   5.254  23.166   1.593  0.3390 -0.0393 -0.0652
72947W        W15859   4.979  24.551   2.297  0.0514  0.0929  0.2944
72948W        W15860   6.465  22.551   1.919  0.1754 -0.0232  0.4236
72949W        W15861   4.653  24.248   3.161 -0.0183 -0.1212  0.1039
72950W        W15862   6.675  22.114   1.810 -0.3855  0.0455 -0.2324
72951W        W15863   7.620  26.087   1.647  0.0615 -0.3597 -0.0649
72952W        W15864   6.105  24.151   4.315  0.0513 -0.0159 -0.0038
72953W        W15865   4.199  26.821   0.931 -0.2134 -0.2235  0.0154
72954W        W15866   5.524  23.326   2.393  0.0107  0.0787  0.1747
72955W        W15867   4.894  25.170   0.980  0.0350  0.0629  0.0740
72956W        W15868   5.861  22.986   1.838  0.0655 -0.1452  0.0231
72957W        W15869   4.552  25.312   2.086  0.1422 -0.0961 -0.2212
72958W        W15870   4.408  23.765   0.971 -0.2020 -0.2156 -0.1011
72959W        W15871   4.792  25.860   3.385 -0.2853 -0.0242  0.1695
72960W        W15872   6.555  22.337   0.533 -0.0081  0.2516  0.0382
72961W        W15873   5.643  23.744   0.197  0.1884 -0.1483  0.0803
72962W        W15874   3.916  21.857   2.739 -0.0041  0.0861 -0.2593
72963W        W15875   7.810  22.440   2.691  0.0021  0.0964  0.0274
72964W        W15876   6.519  24.274  31.986  0.1339  0.0379  0.1526
72965W        W15877   6.733  21.203   3.278  0.0808  0.0235  0.1066
72966W        W15878   5.152  21.644   4.424 -0.0896  0.1128 -0.1363
72967W        W15879   7.112  23.658   0.198 -0.1091 -0.2293 -0.1561
72968W        W15880   3.512  24.469   3.679 -0.1079  0.1320  0.0100
72969W        W15881   6.472  25.849   4.137  0.0649 -0.2139  0.2747
72970W        W15882   4.089  24.637   4.072  0.0869  0.1044  0.2485
72971W        W15883   4.505  22.206   1.157 -0.1810 -0.0017  0.0900
72972W        W15884   4.890  23.120  31.500  0.0009 -0.3016 -0.0785
72973W        W15885   5.130  24.042   3.363  0.1554 -0.5648  0.2596
72974W        W15886   6.622  23.961   2.384 -0.0813 -0.0955  0.2189
72975W        W15887   6.085  24.589   0.044  0.2979 -0.0995 -0.0710
72976W        W15888   6.233  23.220   1.648 -0.2524  0.3400  0.2376
72977W        W15889   4.814  23.874   2.865 -0.3204 -0.2836 -0.1597
72978W        W15890   7.106  22.289   0.102  0.1128 -0.3125 -0.0070
72979W        W15891   5.013  24.509  31.738 -0.2810  0.1321  0.0524
72980W        W15892   5.653  22.315   1.759  0.2102  0.0511  0.1036
72981W        W15893   4.775  21.731   2.873 -0.3140 -0.1259 -0.0587
72982W        W15894   6.883  25.350   1.988 -0.1616 -0.2657  0.1801
72983W        W15895   7.420  22.954   1.888 -0.0389 -0.0802  0.2106
72984W        W15896   6.475  21.994   0.986 -0.2828  0.0390 -0.4548
72985W        W15897   6.725  22.323   2.874  0.0802  0.2745  0.1509
72986W        W15898   5.664  23.044   3.632  0.4990  0.0322  0.0964
72987W        W15899   3.399  21.898   3.032 -0.0394  0.0814 -0.3018
72988W        W15900   7.748  23.481   3.044 -0.0218 -0.1012  0.1679
72989W        W15901   7.398  21.820  31.282 -0.2705  0.1158  0.2626
72990W        W15902   6.904  22.913   1.929 -0.0052 -0.4029  0.2163
72991W        W15903   5.371  22.549   0.123  0.0233 -0.0387  0.2879
72992W        W15904   4.464  23.335   1.217 -0.0091  0.1889  0.2250
72993W        W15905   3.797  23.940   1.903  0.0249 -0.2941 -0.1742
72994W        W15906   7.328  23.237   3.169 -0.2959  0.2710 -0.0656
72995W        W15907   4.535  22.806   1.318  0.1045  0.0631 -0.2543
72996W        W15908   6.440  23.108   3.527 -0.2959 -0.0770 -0.2395
72997W        W15909   4.992  27.122   0.570  0.0968  0.1725  0.2404
72998W        W15910   6.953  25.278   2.540  0.0150 -0.0408  0.2640
72999W        W15911   5.117  21.853   1.516 -0.1867 -0.0740 -0.0892
73000W        W15912   3.922  23.858   0.858 -0.2370 -0.1896  0.1043
73001W        W15913   6.097  25.377   2.715 -0.0418 -0.3496 -0.4015
73002W        W15914   5.107  22.198  31.567 -0.1533 -0.4323  0.3471
73003W        W15915   4.556  23.017  30.513 -0.3456  0.4089 -0.2257
73004W        W15916   5.514  24.352   4.223  0.1436 -0.0392  0.4513
73005W        W15917   6.691  23.073   2.544  0.1071 -0.3049 -0.4980
73006W        W15918   5.417  21.198   0.242 -0.3314 -0.2275  0.1170
73007W        W15919   7.803  21.961   1.734  0.4832  0.0329 -0.1358
73008W        W15920   4.468  24.626   2.262 -0.0092  0.0263 -0.2080
73009W        W15921   5.514  20.327   1.442  0.0362  0.1563  0.0343
73010W        W15922   5.067  26.495   2.111 -0.0605 -0.0214  0.0545
73011W        W15923   5.422  24.926   2.104  0.1370 -0.2004 -0.1588
73012W        W15924   5.202  24.489   1.822 -0.2196 -0.1010 -0.2958
73013W        W15925   5.601  21.775   1.674  0.0822 -0.0339  0.3522
73014W        W15926   5.218  24.035   2.105  0.3056  0.0358 -0.2002
73015W        W15927   4.633  25.093   1.581  0.1197 -0.3223  0.0256
73016W        W15928   7.203  22.382   1.919 -0.0325 -0.0715  0.2569
73017W        W15929   5.445  24.382   3.123 -0.1563  0.1392 -0.0912
73018W        W15930   5.390  22.779   1.867 -0.1710  0.2596 -0.1811
73019W        W15931   7.349  24.707   2.440 -0.4960  0.0851  0.1099
73020W        W15932   7.274  24.372   1.108  0.2068  0.0824 -0.2272
73021W        W15933   5.278  24.036   2.642 -0.2278 -0.1911  0.2978
73022W        W15934   4.069  24.465   2.527  0.1694  0.1929  0.2785
73023W        W15935   6.353  22.956   3.989  0.2275  0.0353 -0.0939
73024W        W15936   5.984  24.202   2.040  0.0271 -0.2224 -0.1406
73025W        W15937   6.142  20.886   0.844 -0.0698  0.4206  0.3435
73026W        W15938   4.862  25.629   0.641  0.0638  0.2245  0.3445
73027W        W15939   5.075  25.432   3.253 -0.1866  0.0464  0.5326
73028W        W15940   3.387  25.431   1.263 -0.2500 -0.0544 -0.1557
73029W        W15941   3.297  26.576   0.654  0.1993 -0.2342  0.3848
73030W        W15942   5.161  22.680   1.049  0.2260 -0.3322 -0.0383
73031W        W15943   5.311  23.839   0.644 -0.2690  0.2956  0.1639
73032W        W15944   5.085  25.320   1.708  0.3196  0.2225 -0.1928
73033W        W15945   6.014  22.672   1.499 -0.0016  0.1908  0.0409
73034W        W15946   5.435  24.319   0.835  0.3294 -0.0121  0.2438
73035W        W15947   4.400  25.681   0.299  0.0444  0.0896 -0.0308
73036W        W15948   7.248  25.424   0.604  0.3034  0.1549  0.0007
73037W        W15949   4.489  26.029   2.598  0.0866  0.1491  0.3281
73038W        W15950   6.254  24.108   2.816  0.0684  0.0147 -0.0387
73039W        W15951   7.590  22.948  30.713 -0.0645  0.1138 -0.1522
73040W        W15952   7.558  23.246   0.547 -0.0518 -0.0418  0.0268
73041W        W15953   6.243  22.974  30.885  0.0434 -0.0063 -0.1656
73042W        W15954   5.604  25.401   2.287 -0.1620 -0.0329  0.1558
73043W        W15955   4.759  23.131   1.707  0.0348  0.1709 -0.1098
73044W        W15956   4.639  22.069  31.753 -0.0768 -0.0557 -0.1510
73045W        W15957   3.287  25.054   2.416  0.2317 -0.2132  0.1591
73046W        W15958   6.531  23.004   0.831  0.1999 -0.3926  0.0419
73047W        W15959   3.706  25.601   3.123 -0.0276 -0.0757  0.0075
73048W        W15960   7.186  25.094   1.090  0.1874 -0.1217 -0.0355
73049W        W15961   3.742  22.187   1.161  0.1450  0.1006  0.1494
73050W        W15962   5.191  23.091   2.752  0.0066  0.1132 -0.2776
73051W        W15963   7.340  20.775   2.326  0.1793 -0.2922 -0.3168
73052W        W15964   5.306  23.523  31.154  0.2755  0.1056  0.2728
73053W        W15965   5.014  21.817   0.515 -0.1782  0.0584 -0.0095
73054W        W15966   5.337  24.895   1.504  0.0095 -0.1099  0.0510
73055W        W15967   5.549  25.367   1.692  0.0849  0.3684 -0.3126
73056W        W15968   6.300  24.921   1.926 -0.1271 -0.1072  0.0073
73057W        W15969   4.712  22.740   0.344  0.4284  0.0564 -0.2199
73058W        W15970   7.682  24.026   1.207 -0.4720  0.0022  0.2376
73059W        W15971   3.930  23.717   2.567  0.0978  0.2748 -0.2370
73060W        W15972   6.583  21.146   2.035  0.2383 -0.0526  0.0428
73061W        W15973   5.147  22.285   1.823  0.1417 -0.0097 -0.2302
73062W        W15974   5.877  22.146   1.331 -0.0440  0.2317  0.1152
73063W        W15975   5.643  22.798   2.446  0.3619 -0.0655  0.2571
73064W        W15976   4.142  24.526   3.098 -0.1788 -0.1178  0.2072
73065W        W15977   4.248  22.058   1.598  0.0660 -0.3510  0.4154
73066W        W15978   6.947  24.424   2.363  0.0090 -0.2059  0.1559
73067W        W15979   5.531  23.396   0.502  0.2052 -0.0036  0.0860
73068W        W15980   6.754  25.190   3.002 -0.0643  0.0953 -0.0040
73069W        W15981   4.160  22.502   2.802 -0.2421 -0.0668  0.1819
73070W        W15982   5.596  22.157  31.902 -0.2850 -0.2202  0.0589
73071W        W15983   4.401  24.320   0.941 -0.0851 -0.0276 -0.4158
73072W        W15984   6.320  22.606   2.582 -0.0840 -0.1315 -0.1299
73073W        W15985   6.844  24.203   3.354 -0.0788 -0.0127 -0.0421
73074W        W15986   3.632  22.637   1.036 -0.0264 -0.0082 -0.2257
73075W        W15987   7.018  23.589   1.473  0.0674  0.1297  0.3625
73076W        W15988   6.696  24.070   0.960 -0.1762  0.0343 -0.0427
73077W        W15989   4.282  27.313   2.174 -0.0729 -0.0542  0.0671
73078W        W15990   6.651  24.475   1.393 -0.1204 -0.0363  0.1754
73079W        W15991   7.153  24.943   2.875 -0.0775 -0.2480 -0.1310
73080W        W15992   5.620  24.272   3.625 -0.1010  0.0861 -0.0463
73081W        W15993   5.501  26.747   2.074 -0.1713  0.3432  0.2912
73082W        W15994   8.019  25.023   0.775 -0.2389 -0.1327  0.3520
73083W        W15995   5.740  19.867   0.494  0.2801 -0.0800 -0.2205
73084W        W15996   3.478  23.348   2.646 -0.0619  0.0579  0.0628
73085W        W15997   5.029  26.543   0.250 -0.1344  0.1125  0.1200
73086W        W15998   7.176  21.025   1.932 -0.2401 -0.2289  0.3208
73087W        W15999   6.725  22.475   2.344 -0.1057  0.0884  0.3612
73088W        W16000   3.738  25.288  30.960 -0.1480  0.2109  0.2661
73089W        W16001   7.375  20.617   2.842  0.1346 -0.1434  0.2542
73090W        W16002   6.267  24.933   2.449 -0.1901  0.1112 -0.1367
73091W        W16003   4.832  26.221   4.439  0.1268 -0.1451  0.0206
73092W        W16004   3.971  23.270   0.169 -0.0647 -0.2638  0.3784
73093W        W16005   6.465  23.703   3.279  0.2182  0.3614 -0.0334
73094W        W16006   6.482  23.611   1.469 -0.1954 -0.2495 -0.3585
73095W        W16007   4.613  27.028   1.177 -0.2615  0.0197 -0.5662
73096W        W16008   7.454  25.181   2.231 -0.2550 -0.3488  0.1233
73097W        W16009   6.097  23.518   0.166 -0.0454  0.0041 -0.1941
73098W        W16010   7.931  25.124   1.315  0.0921  0.3190 -0.0786
73099W        W16011   4.999  22.250   2.405  0.0302  0.0591 -0.5001
73100W        W16012   6.993  22.182   0.771  0.1162 -0.1976  0.1729
73101W        W16013   6.323  21.398   0.676 -0.0297  0.0993 -0.2306
73102W        W16014   5.240  23.182   3.227 -0.2431  0.0092  0.1257
73103W        W16015   4.192  23.600   0.516 -0.1817  0.1005  0.0172
73104W        W16016   5.057  23.083   0.611 -0.1444  0.3194 -0.0039
73105W        W16017   5.343  24.931   0.971 -0.0282 -0.1290  0.2828
73106W        W16018   5.890  21.905   3.463 -0.0171  0.2312 -0.2918
73107W        W16019   3.689  24.218   2.855  0.0001  0.0270 -0.1560
73108W        W16020   3.928  25.213   0.889 -0.1117  0.0563  0.2071
73109W        W16021   3.744  21.983  31.317 -0.2037 -0.0134 -0.0986
73110W        W16022   7.988  25.816   0.508 -0.2462 -0.0656  0.3177
73111W        W16023   4.381  23.551   2.603 -0.0408 -0.2592 -0.2211
73112W        W16024   3.695  24.005   3.724 -0.3459 -0.5396 -0.2139
73113W        W16025   5.628  23.837   2.240 -0.1853  0.2336  0.2010
73114W        W16026   6.711  25.095   0.685  0.1542  0.2040 -0.0623
73115W        W16027   3.407  21.829   1.245  0.0567  0.0507  0.1260
73116W        W16028   7.703  23.938   3.220  0.1321 -0.0865 -0.0493
73117W        W16029   2.875  24.724   0.488 -0.0172  0.1949 -0.2158
73118W        W16030   5.141  23.292   3.756 -0.4470 -0.1451 -0.0288
73119W        W16031   5.590  21.511   3.691  0.1027 -0.3256  0.1758
73120W        W16032   4.936  22.350   0.094  0.0127 -0.1349  0.1872
73121W        W16033   5.609  21.527   2.347  0.0275 -0.1316  0.2121
73122W        W16034   6.739  25.753   2.401 -0.2264 -0.2243  0.0394
73123W        W16035   5.759  25.226   1.171 -0.0379  0.1208 -0.0118
73124W        W16036   6.284  25.205   4.686  0.2894  0.0140  0.2695
73125W        W16037   6.056  24.405   3.862  0.0204 -0.0843 -0.0030
73126W        W16038   2.563  22.379   2.739  0.0074  0.3601 -0.3209
73127W        W16039   5.333  24.421   1.331 -0.1472 -0.0334 -0.0675
73128W        W16040   4.726  26.211   3.025  0.1419  0.0887 -0.1915
73129W        W16041   7.081  24.900   0.327  0.0077  0.2815 -0.0721
73130W        W16042   8.298  22.522   2.432 -0.1790 -0.0531  0.0177
73131W        W16043   7.114  22.621   0.523  0.0713 -0.0610  0.0892
73132W        W16044   4.412  22.288   3.318  0.0968  0.3484 -0.2175
73133W        W16045   4.161  24.979   2.428  0.0715 -0.2327 -0.1877
73134W        W16046   7.041  25.366   1.488  0.0901  0.0708 -0.1705
73135W        W16047   6.087  21.691   0.986  0.1060 -0.2452 -0.2620
73136W        W16048   6.654  22.516   0.962 -0.1625  0.4581 -0.1218
73137W        W16049   6.770  24.934   1.725  0.3920 -0.3607  0.2452
73138W        W16050   4.562  24.438   1.794 -0.1835  0.0894  0.1503
73139W        W16051   5.490  23.081   1.018  0.0338 -0.1816  0.2626
73140W        W16052   5.951  22.598   2.107  0.0578 -0.0335 -0.4088
73141W        W16053   5.593  23.451   1.932 -0.0405  0.1156  0.1486
73142W        W16054   6.433  22.868   1.335 -0.2325  0.1795 -0.2756
73143W        W16055   4.126  22.963   1.017  0.2214  0.2451 -0.0307
73144W        W16056   7.026  24.084   0.535 -0.1128  0.0207  0.2027
73145W        W16057   6.225  24.955   2.921  0.0588 -0.0506  0.1800
73146W        W16058   7.444  25.330   3.874 -0.0437 -0.0406  0.4177
73147W        W16059   5.394  26.316   2.950  0.0365 -0.0599 -0.0278
73148W        W16060   6.620  23.508   1.993 -0.3564  0.1949 -0.0555
73149W        W16061   5.057  21.549   3.456  0.2348  0.0479 -0.1403
73150W        W16062   4.470  24.233   0.386 -0.0864 -0.1290  0.1098
73151W        W16063   3.969  23.445   1.169  0.2446  0.1899 -0.1005
73152W        W16064   6.890  23.643   0.647 -0.3282 -0.0095 -0.1000
73153W        W16065   4.269  22.626   2.344  0.2225  0.0733 -0.2227
73154W        W16066   5.365  21.425   0.702 -0.2653 -0.0619  0.3078
73155W        W16067   5.154  26.936   2.380  0.0270 -0.0042 -0.2665
73156W        W16068   6.090  24.064   1.552 -0.2787  0.2986 -0.0517
73157W        W16069   3.365  23.706   7.937  0.3645 -0.1281  0.3391
73158W        W16070   4.781  22.594   3.494  0.0539 -0.0313 -0.2672
73159W        W16071   6.670  23.271   4.263 -0.1534  0.2836 -0.5138
73160W        W16072   6.911  23.576   3.374  0.1391 -0.1367 -0.0298
73161W        W16073   3.956  23.665   4.787  0.0146  0.0490  0.0015
73162W        W16074   7.640  25.275   4.352 -0.1282  0.1177  0.1030
73163W        W16075   4.808  22.048   5.874  0.1898 -0.2075  0.4366
73164W        W16076   5.800  24.201   5.557  0.3199 -0.2211  0.3014
73165W        W16077   7.523  25.631   5.256  0.0593  0.0870 -0.1963
73166W        W16078   5.274  23.621   3.000  0.0099 -0.2480 -0.0249
73167W        W16079   5.125  22.882   6.208  0.0428  0.2081 -0.0486
73168W        W16080   4.483  25.028   7.285  0.1093 -0.3024 -0.0367
73169W        W16081   5.481  21.434   2.811 -0.0216  0.1925  0.3268
73170W        W16082   3.429  21.803   6.212  0.0760  0.2914 -0.1969
73171W        W16083   6.751  24.039   5.489  0.0613 -0.0483  0.0330
73172W        W16084   4.665  24.550   3.994  0.0151 -0.0428  0.1792
73173W        W16085   4.082  21.436   5.969  0.2012  0.1785  0.0398
73174W        W16086   5.890  22.812   4.074  0.0620 -0.0120 -0.1997
73175W        W16087   6.426  24.729   4.196 -0.0018 -0.0667 -0.2406
73176W        W16088   5.040  22.425   6.400  0.1633 -0.0108  0.0133
73177W        W16089   5.241  22.038   6.205 -0.1258 -0.0073 -0.2308
73178W        W16090   5.947  24.549   4.506 -0.0262 -0.3437  0.0218
73179W        W16091   3.883  24.646   4.545 -0.1084  0.3698 -0.0638
73180W        W16092   5.901  23.818   5.247 -0.0031 -0.1237  0.0712
73181W        W16093   5.151  23.786   5.859  0.0359 -0.0329 -0.2743
73182W        W16094   5.472  23.202   5.518  0.2632 -0.3089  0.2221
73183W        W16095   4.417  25.704   4.886  0.5144 -0.2272  0.1634
73184W        W16096   6.032  26.175   5.861 -0.2208 -0.1011  0.1446
73185W        W16097   6.519  24.763   6.311 -0.0810  0.0133  0.2089
73186W        W16098   4.644  25.261   4.623  0.1549  0.2051 -0.3171
73187W        W16099   4.391  26.240   4.711 -0.1850 -0.2515  0.3490
73188W        W16100   5.229  24.760   3.949  0.1545 -0.2167 -0.0166
73189W        W16101   7.108  23.309   4.400  0.0195 -0.0636 -0.1481
73190W        W16102   8.080  25.248   4.590  0.1060 -0.0435  0.4077
73191W        W16103   5.478  24.486   7.301  0.2622 -0.0860  0.1669
73192W        W16104   3.563  25.231   2.766 -0.1427  0.0347 -0.0444
73193W        W16105   5.867  24.406   6.968  0.3746  0.2594 -0.2325
73194W        W16106   4.704  24.834   7.679 -0.0291 -0.2889  0.0128
73195W        W16107   5.968  23.422   4.913  0.2220  0.1517 -0.0130
73196W        W16108   4.990  23.797   4.401 -0.2253 -0.4393  0.0733
73197W        W16109   4.662  25.346   4.113 -0.0561 -0.0632  0.0061
73198W        W16110   5.838  24.763   5.468 -0.0555  0.1576 -0.1080
73199W        W16111   4.547  23.898   7.032 -0.1315 -0.0225 -0.0970
73200W        W16112   3.955  25.178   6.526 -0.0562 -0.1205 -0.4559
73201W        W16113   5.670  23.680   6.280  0.1136 -0.0591 -0.0944
73202W        W16114   4.261  25.682   4.380 -0.0864  0.0669  0.0101
73203W        W16115   7.318  22.955   4.106 -0.0955  0.2305 -0.0309
73204W        W16116   5.488  20.699   3.278 -0.1531 -0.0770 -0.3235
73205W        W16117   6.182  22.253   3.059  0.0809 -0.0694  0.2669
73206W        W16118   3.673  21.155   4.439 -0.0880  0.2409  0.0063
73207W        W16119   5.359  26.159   6.451  0.0951 -0.0717 -0.0469
73208W        W16120   4.250  21.884   5.140  0.1617  0.1684 -0.4234
73209W        W16121   7.876  23.835   6.358  0.0954 -0.0427  0.2233
73210W        W16122   5.388  22.044   4.130 -0.2735  0.3510 -0.1833
73211W        W16123   5.668  22.637   4.822  0.0726  0.3322 -0.0228
73212W        W16124   3.480  25.092   5.330 -0.2626 -0.0779 -0.0739
73213W        W16125   4.580  21.526   5.050 -0.2140 -0.1405  0.0806
73214W        W16126   6.495  24.560   3.758 -0.0045 -0.0223 -0.0690
73215W        W16127   8.662  25.978   4.611  0.0092 -0.0854  0.1354
73216W        W16128   7.234  25.347   3.143  0.0699  0.1289  0.0094
73217W        W16129   5.668  24.766   4.898 -0.1114  0.1171 -0.0293
73218W        W16130   3.208  24.458   7.295 -0.0741 -0.2270  0.0409
73219W        W16131   4.323  23.023   6.777 -0.1642  0.2641  0.0405
73220W        W16132   4.906  22.051   3.409  0.0176 -0.0782 -0.1670
73221W        W16133   6.394  25.846   5.943  0.0349 -0.1041 -0.1599
73222W        W16134   2.679  24.767   5.254  0.1590 -0.1115 -0.3243
73223W        W16135   6.539  22.215   4.860  0.1470  0.1000 -0.2660
73224W        W16136   5.457  24.064   5.260 -0.2622  0.2556 -0.0493
73225W        W16137   8.065  24.489   5.691  0.1871  0.0433 -0.0124
73226W        W16138   6.882  23.128   1.474 -0.3018 -0.1396 -0.1273
73227W        W16139   7.121  21.932   4.495  0.1471 -0.1148  0.0333
73228W        W16140   5.569  22.844   5.908  0.0636 -0.0174 -0.1024
73229W        W16141   5.201  24.862   2.987 -0.1125  0.0285 -0.2891
73230W        W16142   3.498  22.735   3.404 -0.0990 -0.0945 -0.0684
73231W        W16143   8.257  24.780   6.109  0.1381  0.0258 -0.0429
73232W        W16144   8.053  24.471   2.380 -0.0446 -0.1605  0.1112
73233W        W16145   4.496  25.980   6.409 -0.1041 -0.0426  0.1868
73234W        W16146   4.499  23.000   7.480 -0.1515  0.2747  0.0718
73235W        W16147   5.417  24.115   6.778 -0.0405 -0.1753 -0.1049
73236W        W16148   3.882  25.977   3.419 -0.1270 -0.1167 -0.4167
73237W        W16149   4.374  24.913   5.748 -0.0860  0.0570 -0.0210
73238W        W16150   3.106  24.606   3.504 -0.0658 -0.2154 -0.3638
73239W        W16151   3.668  21.912   6.763  0.0185 -0.2418 -0.1284
73240W        W16152   5.176  25.511   6.491  0.1080  0.0850  0.2575
73241W        W16153   7.493  21.691   3.731  0.1665 -0.3439 -0.1615
73242W        W16154   4.226  21.545   6.675 -0.3365  0.1669  0.3998
73243W        W16155   7.954  21.384   3.673  0.1934 -0.2526  0.2191
73244W        W16156   4.032  25.569   5.188 -0.1713  0.1350 -0.0440
73245W        W16157   6.606  25.440   4.364  0.2289  0.0950  0.0336
73246W        W16158   7.243  22.513   3.726  0.0847  0.0267  0.1274
73247W        W16159   6.354  24.409   3.162  0.0769  0.2738  0.0360
73248W        W16160   4.718  22.541   5.981  0.3222 -0.0183 -0.1254
73249W        W16161   3.688  25.202   4.408 -0.0969 -0.0150  0.1640
73250W        W16162   4.372  22.098   6.747 -0.0942 -0.2087  0.0916
73251W        W16163   4.067  22.954   5.649  0.3039  0.0709  0.2448
73252W        W16164   7.203  24.849   5.294  0.4127  0.0216 -0.4916
73253W        W16165   4.489  23.185   3.981  0.0775  0.0749  0.0114
73254W        W16166   6.174  21.989   4.613 -0.0846  0.0205  0.2001
73255W        W16167   4.961  23.292   4.247 -0.2010 -0.1148 -0.1364
73256W        W16168   3.926  24.193   3.338  0.2036 -0.1821 -0.2871
73257W        W16169   6.519  23.154   5.759  0.1681  0.2314 -0.1156
73258W        W16170   5.017  26.708   3.389 -0.0702  0.1070 -0.1383
73259W        W16171   6.910  25.229   6.491 -0.0978 -0.5357 -0.1295
73260W        W16172   6.474  25.955   5.433  0.1851  0.2712 -0.1831
73261W        W16173   4.629  22.131   7.209 -0.0594 -0.0804 -0.0760
73262W        W16174   5.084  23.061   5.185  0.1453 -0.2222 -0.0202
73263W        W16175   4.752  25.087   5.347 -0.1448 -0.4019 -0.0530
73264W        W16176   4.395  24.684   5.229  0.1896  0.0452 -0.2633
73265W        W16177   5.986  21.191   5.034 -0.2990  0.2487 -0.0970
73266W        W16178   7.694  25.638   4.687 -0.0652  0.1276  0.0772
73267W        W16179   6.012  23.264   4.286  0.2497  0.2708  0.1088
73268W        W16180   4.231  23.786   6.172 -0.1762 -0.0417  0.1625
73269W        W16181   6.222  22.549   6.221 -0.0195 -0.1436 -0.0628
73270W        W16182   6.309  23.805   5.573 -0.1064 -0.0978  0.3184
73271W        W16183   6.198  24.059   4.854 -0.0370  0.2842 -0.2644
73272W        W16184   4.311  22.431   4.245 -0.0928  0.0401  0.1612
73273W        W16185   6.586  25.512   5.595 -0.0016 -0.2235  0.2578
73274W        W16186   3.666  25.721   4.414  0.0997  0.2366 -0.1231
73275W        W16187   4.511  24.215   5.313  0.2175  0.2490  0.0602
73276W        W16188   6.080  24.967   5.102  0.2472  0.2544 -0.1927
73277W        W16189   6.044  22.812   5.742  0.0238  0.1216 -0.0092
73278W        W16190   3.143  23.212   7.731 -0.1981  0.0983  0.1900
73279W        W16191   6.049  22.927   6.584 -0.1838  0.0195 -0.1216
73280W        W16192   4.325  23.908   3.273 -0.2304 -0.1106  0.2081
73281W        W16193   6.131  24.138   6.057 -0.0214  0.1068 -0.2306
73282W        W16194   6.659  21.343   3.935 -0.1471  0.0105 -0.1135
73283W        W16195   7.406  22.319   2.923 -0.0029 -0.0711 -0.0414
73284W        W16196   5.553  25.065   5.764  0.0545 -0.0778 -0.0343
73285W        W16197   6.387  23.465   4.651  0.0987 -0.1170  0.0895
73286W        W16198   8.469  22.612   2.926 -0.3495 -0.0993  0.5118
73287W        W16199   7.388  22.194   2.437  0.1844  0.1038 -0.1219
73288W        W16200   4.486  24.413   6.992  0.0196  0.0469  0.1362
73289W        W16201   7.403  24.438   4.666  0.0722 -0.3692  0.0217
73290W        W16202   5.492  25.724   5.256 -0.0265 -0.0917 -0.3060
73291W        W16203   5.833  21.749   2.892 -0.0132 -0.3595 -0.1178
73292W        W16204   7.529  26.332   4.088 -0.0395  0.3167 -0.1244
73293W        W16205   3.905  24.109   5.883  0.0721  0.2259 -0.0027
73294W        W16206   5.367  24.629   6.860 -0.0849 -0.2772  0.0202
73295W        W16207   6.934  24.482   4.374  0.1398 -0.0870 -0.1372
73296W        W16208   5.008  21.596   6.084 -0.1278  0.1677 -0.0617
73297W        W16209   5.855  21.946   2.246  0.4215  0.1220  0.1922
73298W        W16210   6.340  21.594   4.285  0.0983 -0.0255  0.0685
73299W        W16211   4.225  25.066   4.286  0.2192 -0.1984 -0.0617
73300W        W16212   5.256  22.343   4.622 -0.0680  0.1628 -0.2367
73301W        W16213   5.643  22.695   5.441 -0.0665 -0.1918  0.1982
73302W        W16214   6.586  21.871   5.679 -0.1189  0.4866  0.0936
73303W        W16215   5.169  23.529   6.374 -0.0284  0.6495  0.1438
73304W        W16216   7.315  22.043   3.378 -0.0695 -0.2671  0.0724
73305W        W16217   5.732  22.311   4.400 -0.0044 -0.2310  0.0011
73306W        W16218   5.864  22.319   2.588 -0.0279 -0.2332 -0.0320
73307W        W16219   5.381  21.659   6.464  0.3454  0.1478 -0.0298
73308W        W16220   5.040  24.347   5.898 -0.2793 -0.1746  0.0383
73309W        W16221   4.242  26.443   6.528 -0.0621  0.1718  0.2770
73310W        W16222   5.791  24.588   5.959 -0.2626  0.2852 -0.4368
73311W        W16223   6.073  24.470   5.045  0.0597  0.2461  0.0420
73312W        W16224   5.532  24.120   5.949 -0.1410 -0.3043 -0.3369
73313W        W16225   6.111  21.342   3.923  0.0577  0.0732 -0.1745
73314W        W16226   5.792  25.742   3.790  0.2435  0.1109 -0.0168
73315W        W16227   4.282  25.011   3.358 -0.2277  0.1627  0.0734
73316W        W16228   4.638  21.512   5.691  0.2429  0.0252 -0.0620
73317W        W16229   6.347  24.411   5.463  0.2237  0.2716 -0.1885
73318W        W16230   5.424  27.035   3.168 -0.1402  0.0211 -0.2010
73319W        W16231   6.802  24.567   5.395  0.4101 -0.0180  0.1305
73320W        W16232   4.596  25.783   3.972 -0.2523  0.1259 -0.4568
73321W        W16233   7.299  21.975   6.104 -0.0944  0.0223 -0.0341
73322W        W16234   3.562  25.439   4.867  0.2323 -0.0803 -0.3030
73323W        W16235   4.945  21.862   3.918  0.2627  0.0360 -0.2078
73324W        W16236   4.509  23.576   4.357 -0.0008  0.1029  0.3199
73325W        W16237   6.881  21.711   3.554 -0.0626  0.0184  0.1483
73326W        W16238   7.366  23.660   3.460  0.0090 -0.3184 -0.1917
73327W        W16239   3.005  22.253   7.382  0.0798 -0.1885  0.0924
73328W        W16240   5.650  20.302   2.431  0.1240 -0.2152 -0.2061
73329W        W16241   4.795  26.213   5.602  0.0786 -0.0624 -0.0932
73330W        W16242   4.953  24.125   5.478 -0.2677 -0.1268  0.3172
73331W        W16243   5.802  21.014   3.570  0.0185 -0.0854 -0.1715
73332W        W16244   7.024  25.568   5.365  0.2885 -0.0972 -0.0833
73333W        W16245   4.769  22.921   6.964 -0.2800 -0.0122  0.0126
73334W        W16246   4.847  22.615   4.483 -0.4457  0.1713 -0.2339
73335W        W16247   8.325  24.855   7.503  0.0885  0.1192 -0.0506
73336W        W16248   5.113  22.663   4.925  0.1778 -0.0977  0.0387
73337W        W16249   5.223  24.521   4.993 -0.1460  0.5483  0.4279
73338W        W16250   7.454  24.971   4.709  0.1828  0.1625  0.1118
73339W        W16251   3.489  24.433   4.965  0.1758 -0.0391  0.2039
73340W        W16252   5.313  24.771   4.476  0.2238 -0.0809  0.1040
73341W        W16253   4.249  24.078   6.657  0.3845  0.0454 -0.0084
73342W        W16254   7.119  24.359   5.741  0.0146 -0.1958 -0.4043
73343W        W16255   4.889  21.304   4.717 -0.1320  0.0367  0.3734
73344W        W16256   5.174  23.006   4.578 -0.0291  0.3035 -0.0968
73345W        W16257   5.097  23.945   4.939 -0.0594 -0.1264 -0.1489
73346W        W16258   6.871  23.487   5.521  0.0945 -0.0751  0.1662
73347W        W16259   3.705  21.970   5.428  0.0668 -0.1332  0.0613
73348W        W16260   5.043  24.864   7.282 -0.1242 -0.0594 -0.2671
73349W        W16261   5.763  21.435   5.669 -0.1467 -0.2477 -0.5405
73350W        W16262   8.640  25.459   4.549  0.0546 -0.0854 -0.0836
73351W        W16263   6.169  24.469   6.424 -0.0149  0.0493 -0.0393
73352W        W16264   4.418  24.945   3.870 -0.1739  0.1355  0.2002
73353W        W16265   3.970  23.265   5.231 -0.2515 -0.2973  0.0871
73354W        W16266   4.751  23.110   3.516 -0.0960  0.1599 -0.0122
73355W        W16267   6.048  23.336   5.605  0.3271 -0.0904  0.1574
73356W        W16268   4.815  24.774   6.808 -0.1886 -0.3602 -0.0526
73357W        W16269   4.464  24.576   3.518  0.1194  0.1213  0.2186
73358W        W16270   4.034  24.609   6.614  0.2181 -0.2192 -0.0665
73359W        W16271   6.324  21.085   3.598 -0.0521 -0.0771 -0.3173
73360W        W16272   7.070  25.685   4.042  0.3693 -0.1810  0.0354
73361W        W16273   5.164  21.393   3.969 -0.0442  0.4001  0.0048
73362W        W16274   7.261  23.856   5.676 -0.0269 -0.1828  0.5746
73363W        W16275   6.636  22.668   3.576 -0.3752  0.0594 -0.0317
73364W        W16276   6.064  21.550   7.279  0.2499 -0.1026 -0.1543
73365W        W16277   5.068  21.936   4.900 -0.3309  0.0303 -0.0006
73366W        W16278   7.143  23.404   3.909 -0.1156 -0.0366 -0.0867
73367W        W16279   3.175  22.172   6.595  0.1863 -0.1736  0.0741
73368W        W16280   5.541  25.426   8.037 -0.0081  0.1370 -0.0693
73369W        W16281   4.029  23.288   6.024  0.4458 -0.1657 -0.0670
73370W        W16282   6.816  21.347   2.750  0.2259 -0.4714  0.0837
73371W        W16283   4.591  22.214   3.783 -0.0377 -0.1002  0.4220
73372W        W16284   5.684  23.631   5.739  0.1425  0.1512 -0.3588
73373W        W16285   7.661  24.652   5.055 -0.1429  0.0750 -0.3977
73374W        W16286   5.528  24.818   3.468 -0.1318 -0.1622  0.2961
73375W        W16287   7.075  22.988   5.862 -0.1417 -0.2741 -0.2748
73376W        W16288   5.023  24.846   5.816  0.2133 -0.0725  0.2332
73377W        W16289   7.151  21.551   4.073 -0.1719 -0.1777  0.0861
73378W        W16290   5.403  23.456   4.475 -0.2450  0.1863  0.1585
73379W        W16291   6.765  25.103   5.328 -0.1431 -0.1523 -0.1142
73380W        W16292   3.971  20.914   4.753  0.1683 -0.2390  0.2671
73381W        W16293   6.511  23.712   5.099  0.3715 -0.3321 -0.2308
73382W        W16294   6.189  21.616   5.521 -0.0880  0.4920 -0.1847
73383W        W16295   5.495  22.184   5.148  0.0258  0.1555 -0.0800
73384W        W16296   5.275  23.589   5.358 -0.1583 -0.2163 -0.2224
73385W        W16297   5.254  21.965   6.850  0.0242  0.2225  0.2508
73386W        W16298   4.213  22.559   6.580 -0.0668 -0.0558  0.1204
73387W        W16299   6.709  25.693   6.930 -0.1586  0.0897 -0.2195
73388W        W16300   6.064  23.207   3.194  0.0418  0.2338 -0.0322
73389W        W16301   6.059  21.725   5.039  0.0088 -0.2309  0.0159
73390W        W16302   6.868  22.775   4.004 -0.0017 -0.0950  0.0833
73391W        W16303   6.994  21.905   2.953  0.0167 -0.1604 -0.5604
73392W        W16304   4.904  23.607   3.288  0.0384 -0.0771  0.0471
73393W        W16305   7.192  25.586   7.144 -0.3091 -0.1401 -0.2839
73394W        W16306   3.562  23.305   3.170  0.5857  0.1873  0.0764
73395W        W16307   5.606  23.004   7.153  0.1096  0.1293 -0.1164
73396W        W16308   5.269  25.694   3.622 -0.2894  0.0739  0.0666
73397W        W16309   6.932  23.777   4.228  0.0301  0.2839 -0.3155
73398W        W16310   6.597  22.826   4.492  0.1981  0.0997  0.3549
73399W        W16311   4.538  22.407   5.271 -0.0917 -0.0181  0.1696
73400W        W16312   4.469  24.237   7.422  0.0533 -0.0840  0.0261
73401W        W16313   5.107  22.391   3.937  0.0358 -0.1760 -0.1661
73402W        W16314   6.419  24.481   4.597 -0.0024  0.1021 -0.1350
73403W        W16315   6.218  23.661   6.213 -0.0857 -0.2541 -0.1224
73404W        W16316   7.211  24.573   7.192  0.0813  0.2384  0.2344
73405W        W16317   5.446  21.246   3.243  0.1742  0.1471  0.0220
73406W        W16318   6.752  22.795   6.402  0.2491  0.0648  0.0990
73407W        W16319   4.452  25.356   2.579  0.1595 -0.1367 -0.0255
73408W        W16320   6.474  21.012   5.164  0.1852  0.0588 -0.0607
73409W        W16321   4.098  25.095   5.233 -0.0647 -0.1054 -0.1269
73410W        W16322   3.838  23.545   6.457 -0.3610  0.1627  0.1159
73411W        W16323   4.632  24.064   6.135  0.1771  0.1976 -0.2423
73412W        W16324   5.472  21.395   6.067 -0.0765  0.0109  0.1316
73413W        W16325   6.419  22.804   5.422  0.2051 -0.2063 -0.3091
73414W        W16326   6.380  24.941   5.534  0.1478 -0.1240 -0.3636
73415W        W16327   6.368  24.261   7.032 -0.1645 -0.1421 -0.0486
73416W        W16328   5.315  24.024   7.313 -0.2242 -0.0785  0.2149
73417W        W16329   5.593  25.537   5.750 -0.2345 -0.0272 -0.2886
73418W        W16330   5.950  24.004   6.587 -0.2182 -0.0870  0.1322
73419W        W16331   6.557  24.229   4.138  0.1112 -0.0628  0.0604
73420W        W16332   4.454  25.901   5.903 -0.3060 -0.1426 -0.2155
73421W        W16333   2.474  22.162   7.254 -0.2792  0.0934 -0.1190
73422W        W16334   7.223  23.614   7.419  0.1288 -0.3706 -0.0759
73423W        W16335   4.856  23.161   6.533 -0.1240 -0.0446  0.1370
73424W        W16336   4.307  22.805   5.001  0.0988 -0.1150  0.0846
73425W        W16337   5.595  25.352   3.418 -0.3516  0.0569 -0.0574
73426W        W16338   2.811  25.444   6.655  0.1099 -0.0417 -0.2669
73427W        W16339   4.526  24.441   5.753 -0.1373  0.0714 -0.2157
73428W        W16340   4.538  26.627   5.646 -0.1551 -0.0197  0.5027
73429W        W16341   6.802  24.682   3.247 -0.1914 -0.3105 -0.0739
73430W        W16342   6.136  23.492   3.618 -0.1404  0.2821 -0.2793
73431W        W16343   6.975  24.616   6.288 -0.0229 -0.1494 -0.1994
73432W        W16344   5.179  22.840   3.638 -0.1873 -0.0458 -0.1648
73433W        W16345   3.332  25.545   6.821 -0.0268 -0.1234 -0.0477
73434W        W16346   3.912  26.750   2.904  0.1315 -0.1317  0.0870
73435W        W16347   6.074  25.484   4.137 -0.1491  0.1733 -0.3911
73436W        W16348   3.209  25.865   4.601  0.0750 -0.0458  0.0943
73437W        W16349   7.355  24.986   6.395  0.0178 -0.0199 -0.1588
73438W        W16350   7.919  20.353   2.670  0.0872  0.0509 -0.0629
73439W        W16351   7.298  24.324   5.265  0.1097 -0.1345 -0.0155
73440W        W16352   7.140  21.227   3.604  0.1761 -0.0856  0.1316
73441W        W16353   6.242  24.734   5.901  0.0674 -0.2918  0.0310
73442W        W16354   4.532  22.849   5.472  0.2371 -0.2339 -0.0331
73443W        W16355   6.357  21.584   3.434 -0.2892  0.0313 -0.0200
73444W        W16356   4.715  23.063   6.041  0.1570  0.0162  0.0829
73445W        W16357   6.564  23.472   6.556  0.0059  0.0451  0.0865
73446W        W16358   3.623  24.363   6.719  0.3151 -0.1190 -0.0051
73447W        W16359   6.878  25.025   4.050 -0.1718 -0.1837  0.0071
73448W        W16360   5.449  22.699   4.277 -0.1796  0.1936 -0.1307
73449W        W16361   5.850  25.824   4.626  0.1490  0.3110 -0.3399
73450W        W16362   5.884  23.197   6.118  0.3004  0.3385 -0.0393
73451W        W16363   5.361  24.455   5.542 -0.3801 -0.0932 -0.0438
73452W        W16364   6.347  21.804   3.862  0.1181 -0.2734  0.0828
73453W        W16365   5.741  25.185   4.476  0.1140 -0.1747 -0.1293
73454W        W16366   4.564  26.048   7.565 -0.1056  0.0560  0.1569
73455W        W16367   4.804  25.655   5.385  0.1767  0.0982 -0.1515
73456W        W16368   3.798  21.909   4.911  0.0818  0.2258 -0.0671
73457W        W16369   6.736  22.158   3.764 -0.2764 -0.1756  0.1539
73458W        W16370   5.401  25.179   6.224 -0.2611  0.0932 -0.3202
73459W        W16371   7.461  22.825   5.574  0.1474  0.1560 -0.1095
73460W        W16372   5.037  24.342   4.385 -0.0660 -0.3152 -0.1160
73461W        W16373   7.137  22.714   4.609  0.2788 -0.3674  0.1499
73462W        W16374   5.665  26.065   5.535  0.2253 -0.2186 -0.2013
73463W        W16375   4.942  22.378   6.896 -0.2971 -0.1023 -0.0105
73464W        W16376   6.114  22.720   3.630  0.0310 -0.2726 -0.3901
73465W        W16377   6.607  24.343   5.960 -0.1019  0.1009 -0.0435
73466W        W16378   5.943  23.903   3.861  0.1764  0.1355  0.0382
73467W        W16379   6.725  25.499   7.861 -0.0455  0.2666 -0.1978
73468W        W16380   4.845  21.885   5.337  0.1527 -0.0268 -0.0499
73469W        W16381   7.331  22.430   4.229 -0.1505 -0.1101 -0.1243
73470W        W16382   6.784  25.011   4.576  0.0843  0.2983 -0.4112
73471W        W16383   4.638  24.582   6.202  0.0908  0.0681 -0.1512
73472W        W16384   6.020  25.224   7.103 -0.0710  0.0519  0.0945
73473W        W16385   5.563  21.856   4.709  0.2350  0.4771  0.1269
73474W        W16386   8.606  24.729   3.982  0.2931 -0.1513 -0.2579
73475W        W16387   6.784  23.327   6.148  0.1433  0.0351 -0.3455
73476W        W16388   5.583  27.283   4.141 -0.1165  0.2025 -0.3018
73477W        W16389   6.257  22.909   4.878 -0.0365 -0.1514 -0.0512
73478W        W16390   7.143  25.221   4.986 -0.1186  0.0990  0.0936
73479W        W16391   3.908  21.880   5.910 -0.0492 -0.2054 -0.0807
73480W        W16392   7.690  25.231   5.071  0.4719 -0.2831 -0.1280
73481W        W16393   8.271  24.508   5.239  0.1332 -0.3085 -0.0014
73482W        W16394   4.618  21.436   3.761  0.0725  0.0219  0.0492
73483W        W16395   4.623  21.639   6.942 -0.0835  0.0651  0.2959
73484W        W16396   4.818  25.689   4.523 -0.1612  0.0512 -0.1069
73485W        W16397   6.423  23.284   5.299 -0.2305  0.0666  0.3583
73486W        W16398   5.563  22.665   6.343  0.3814  0.3235 -0.0329
73487W        W16399   6.020  26.038   4.173  0.2180  0.0086 -0.2636
73488W        W16400   6.494  22.675   6.856  0.0163  0.0021  0.2554
73489W        W16401   5.563  25.934   6.063 -0.0747  0.2353 -0.0501
73490W        W16402   5.053  24.654   8.116  0.0086  0.0498  0.1849
73491W        W16403   5.030  24.455   3.612  0.0113 -0.1047  0.0050
73492W        W16404   4.761  23.738   5.316  0.1025 -0.1911  0.0104
73493W        W16405   6.591  24.294   5.030  0.1793  0.2547 -0.1423
73494W        W16406   5.452  25.563   4.758  0.2142 -0.1642  0.1657
73495W        W16407   7.409  25.204   5.557 -0.0062  0.0138  0.1237
73496W        W16408   5.809  22.986   4.565  0.0631 -0.0994 -0.0180
73497W        W16409   8.478  24.413   4.627 -0.0514  0.1802  0.1180
73498W        W16410   3.638  21.156   5.623  0.0759  0.0441  0.3266
73499W        W16411   8.255  22.191   4.170  0.2026  0.0332  0.3751
73500W        W16412   6.631  22.003   3.278  0.1470 -0.3264 -0.4078
73501W        W16413   4.622  23.318   5.186  0.0983  0.1082  0.2157
73502W        W16414   5.597  24.247   4.793 -0.1880 -0.1718 -0.0577
73503W        W16415   5.041  23.478   4.897  0.0248 -0.0854 -0.1338
73504W        W16416   5.315  24.882   5.332  0.2143 -0.2782  0.0609
73505W        W16417   5.978  21.868   6.771  0.1145  0.2189 -0.2487
73506W        W16418   4.992  23.304   5.678  0.0551 -0.0377  0.4735
73507W        W16419   4.820  23.631   3.885  0.0664  0.0674  0.3253
73508W        W16420   4.746  23.020   4.799  0.3330  0.0469  0.0178
73509W        W16421   6.491  24.039   3.644  0.0235 -0.1086 -0.1139
73510W        W16422   4.273  22.498   5.659 -0.3704  0.0095 -0.2727
73511W        W16423   3.624  23.160   5.654  0.0091  0.1458 -0.0566
73512W        W16424   6.655  25.413   3.844  0.5600  0.1937 -0.0490
73513W        W16425   7.684  24.540   2.774 -0.1136 -0.0727  0.1534
73514W        W16426   6.393  22.311   4.108  0.1876 -0.0735  0.2932
73515W        W16427   8.049  25.279   7.492 -0.4485  0.0297  0.2734
73516W        W16428   3.776  25.058   3.239  0.4375 -0.0859  0.0198
73517W        W16429   5.987  22.392   6.654  0.0884 -0.3524 -0.2686
73518W        W16430   4.776  21.883   6.518 -0.2045  0.0865  0.1698
73519W        W16431   5.267  21.840   3.083  0.3817 -0.0857 -0.2829
73520W        W16432   5.231  22.821   6.705 -0.3845  0.1001  0.1826
73521W        W16433   7.230  25.806   4.890  0.1311  0.0711 -0.1737
73522W        W16434   6.387  26.358   4.445  0.0648  0.0172 -0.2370
73523W        W16435   5.528  26.575   5.191  0.0828  0.1183 -0.2187
73524W        W16436   5.553  23.521   7.887  0.2168  0.2223 -0.1873
73525W        W16437   2.694  20.541   6.931  0.1541  0.0263  0.0469
73526W        W16438   5.853  23.673   4.479  0.1733 -0.0603  0.0106
73527W        W16439   5.630  25.209   5.258 -0.2176  0.2116 -0.1863
73528W        W16440   7.567  23.855   3.844  0.0771 -0.1578  0.1478
73529W        W16441   6.802  22.228   5.293  0.4092  0.3715 -0.0151
73530W        W16442   5.620  22.524   3.711  0.0615 -0.1472 -0.2689
73531W        W16443   5.584  21.629   7.196 -0.0035  0.1838 -0.1631
73532W        W16444   4.736  23.756   6.543  0.1446  0.1897  0.0528
73533W        W16445   7.812  23.718   5.750 -0.2351  0.1066  0.0555
73534W        W16446   4.490  22.259   6.310  0.0183  0.0543 -0.0749
73535W        W16447   6.998  21.329   2.286 -0.0259  0.2599 -0.3795
73536W        W16448   6.585  23.963   4.569 -0.0222  0.3721 -0.0493
73537W        W16449   3.993  22.074   6.431 -0.1245  0.0951  0.2135
73538W        W16450   6.144  22.557   4.532 -0.3517 -0.4516 -0.2068
73539W        W16451   5.380  23.270   5.991 -0.1711 -0.2093  0.1875
73540W        W16452   6.047  25.729   5.532  0.5992  0.1516  0.0759
73541W        W16453   6.885  23.622   4.753  0.0442  0.0868  0.1413
73542W        W16454   6.276  22.256   3.574 -0.1609 -0.0841  0.4176
73543W        W16455   7.591  22.007   4.240  0.3779  0.1340 -0.1123
73544W        W16456   5.404  25.944   8.029 -0.2968 -0.0981 -0.2878
73545W        W16457   6.246  25.064   7.529  0.0314 -0.2781 -0.1044
73546W        W16458   6.949  25.789   5.869 -0.0972  0.2701 -0.3873
73547W        W16459   5.941  23.014   5.269  0.1587 -0.2036 -0.1818
73548W        W16460   3.539  22.261   6.043  0.0131 -0.1462 -0.4621
73549W        W16461   4.193  24.219   3.799  0.0264 -0.2755 -0.1125
73550W        W16462   5.435  23.126   4.083  0.1520  0.1931  0.3146
73551W        W16463   7.031  23.688   6.523  0.2106 -0.2253 -0.0399
73552W        W16464   4.005  22.381   6.060  0.1035 -0.2190 -0.2206
73553W        W16465   7.560  21.907   4.767 -0.1610  0.3165  0.1348
73554W        W16466   5.770  26.501   5.626  0.0234  0.0142  0.3013
73555W        W16467   5.292  24.682   6.241 -0.0818 -0.1403  0.1899
73556W        W16468   7.389  25.044   9.981  0.2536 -0.0949 -0.0092
73557W        W16469   4.681  23.308   7.828  0.2811  0.3270  0.1480
73558W        W16470   6.374  23.092   6.225 -0.0065  0.2938  0.0761
73559W        W16471   7.186  24.607   8.455 -0.0367 -0.1214  0.1360
73560W        W16472   4.117  21.465   8.753  0.2138 -0.1715  0.0932
73561W        W16473   6.912  25.719   8.321 -0.0741  0.0842  0.0722
73562W        W16474   6.788  23.532   9.312  0.0422  0.2464 -0.2449
73563W        W16475   8.031  24.169   8.713  0.2159 -0.0579  0.1402
73564W        W16476   6.240  24.699   6.839  0.0332 -0.2222 -0.0506
73565W        W16477   5.053  23.748   9.543  0.0077 -0.0681 -0.3130
73566W        W16478   5.137  21.696   7.331  0.0650  0.0643 -0.2199
73567W        W16479   3.663  21.631   8.409  0.0536 -0.1126  0.1821
73568W        W16480   4.584  23.628   9.411 -0.0894  0.0670  0.0618
73569W        W16481   3.283  23.616   8.920  0.1399 -0.2770 -0.0345
73570W        W16482   5.124  23.021   9.539  0.5985 -0.1872 -0.1827
73571W        W16483   5.744  23.076   8.181  0.2081  0.0661  0.1029
73572W        W16484   6.295  25.537   9.644 -0.0292  0.2106 -0.0583
73573W        W16485   5.425  22.314   9.453 -0.2691 -0.0981  0.0366
73574W        W16486   6.091  25.337   8.500 -0.2775  0.0088 -0.0228
73575W        W16487   4.658  23.419   6.907  0.1541  0.0388 -0.0106
73576W        W16488   7.122  23.168   9.216  0.1530 -0.1578  0.3729
73577W        W16489   6.265  21.290   9.515  0.1954  0.2714 -0.3724
73578W        W16490   6.800  24.093   9.243 -0.1920 -0.1084 -0.2254
73579W        W16491   5.455  24.444   8.322  0.2883  0.0310  0.2138
73580W        W16492   5.811  24.016   8.314  0.1542 -0.3971 -0.0841
73581W        W16493   3.241  24.741   8.496 -0.0595 -0.2198  0.3244
73582W        W16494   2.750  25.447   8.127  0.2298  0.0471 -0.0488
73583W        W16495   4.903  24.131   8.057 -0.3175  0.0521 -0.1561
73584W        W16496   7.061  25.070   8.256 -0.0873  0.2656 -0.2016
73585W        W16497   4.883  25.077   6.306  0.1877 -0.0889  0.0487
73586W        W16498   7.672  23.782  10.347  0.3041 -0.0516  0.0437
73587W        W16499   5.126  22.855   8.274  0.0122  0.0465 -0.0418
73588W        W16500   5.985  24.613   9.141 -0.1661 -0.2902 -0.2506
73589W        W16501   7.161  23.808   9.176 -0.0991 -0.2133 -0.2718
73590W        W16502   4.485  24.664  10.094 -0.0498  0.0565 -0.0232
73591W        W16503   4.155  24.077   7.872  0.1469 -0.0331  0.1772
73592W        W16504   7.597  23.401   6.497  0.1179 -0.6108 -0.0657
73593W        W16505   4.166  22.650   7.485  0.0947 -0.1495  0.1992
73594W        W16506   6.373  23.172   6.950 -0.1141  0.0074  0.0182
73595W        W16507   5.660  21.433   7.638 -0.0948 -0.2183  0.0441
73596W        W16508   5.181  24.896   8.613  0.3343 -0.1503 -0.0160
73597W        W16509   5.078  21.625   8.709 -0.2104 -0.0320 -0.4497
73598W        W16510   6.784  23.922   8.168  0.1385  0.1854 -0.2623
73599W        W16511   5.794  23.789  10.076 -0.0998  0.2119 -0.2258
73600W        W16512   3.764  26.426  10.025  0.0974  0.0874  0.2267
73601W        W16513   3.761  23.104   8.432 -0.0536  0.0743  0.2470
73602W        W16514   6.277  25.645   7.501  0.0287 -0.0582  0.1317
73603W        W16515   8.407  25.945   9.755 -0.1987  0.0943  0.0780
73604W        W16516   6.728  24.197   6.472  0.1732 -0.2037 -0.0402
73605W        W16517   3.198  23.237   7.265  0.3694  0.3446  0.0847
73606W        W16518   5.302  21.351   6.943  0.2073  0.2853  0.0731
73607W        W16519   6.878  23.308   8.185 -0.2818 -0.0558  0.0440
73608W        W16520   6.952  24.070   9.928 -0.0500 -0.2687  0.0363
73609W        W16521   8.167  23.377   9.529 -0.0435 -0.5154  0.1904
73610W        W16522   6.362  24.670   7.293 -0.0408 -0.0702  0.1530
73611W        W16523   5.317  22.122   8.081  0.0760 -0.0884  0.1610
73612W        W16524   6.024  21.509   9.035  0.0088 -0.3543 -0.1012
73613W        W16525   5.487  23.139   9.196  0.0491 -0.1575  0.1875
73614W        W16526   5.576  23.555   8.449  0.0017  0.2998 -0.1759
73615W        W16527   6.186  23.923   8.644  0.0210 -0.0894  0.0796
73616W        W16528   7.404  22.296   7.914 -0.3196  0.1090  0.2253
73617W        W16529   4.816  25.235   8.508  0.3522  0.3129  0.1609
73618W        W16530   4.159  24.855   6.198 -0.3292 -0.0743 -0.1226
73619W        W16531   4.066  24.740   7.914 -0.2296  0.1120  0.2227
73620W        W16532   3.091  23.731   8.447 -0.1653 -0.1649 -0.1377
73621W        W16533   2.944  23.072   9.706  0.0334  0.0059  0.0260
73622W        W16534   3.780  24.916   7.579  0.0816 -0.0462  0.1570
73623W        W16535   6.733  22.454   8.656  0.1794 -0.0813  0.1738
73624W        W16536   6.966  22.839   8.456  0.0231  0.0020 -0.2893
73625W        W16537   3.740  24.463   8.290  0.2833  0.1366  0.0744
73626W        W16538   6.967  25.362   8.645 -0.4329 -0.2918 -0.2109
73627W        W16539   7.382  22.740   7.572  0.0007 -0.6597 -0.2189
73628W        W16540   6.773  24.305   7.349 -0.0690  0.1470  0.1729
73629W        W16541   5.607  22.395   9.976  0.0685  0.1563  0.0440
73630W        W16542   4.551  23.102   8.274  0.0697 -0.0367 -0.2244
73631W        W16543   5.349  21.702   9.635 -0.1957 -0.1365  0.1214
73632W        W16544   4.861  22.049   7.757  0.0986  0.1048  0.0985
73633W        W16545   6.442  21.614   7.623  0.1739  0.1079  0.1259
73634W        W16546   5.015  23.446   8.588 -0.0183 -0.1507 -0.4048
73635W        W16547   3.225  24.312   8.234 -0.1655  0.0503 -0.0577
73636W        W16548   5.136  25.331   7.565 -0.1957 -0.0603 -0.1385
73637W        W16549   5.139  24.345   8.756 -0.0443  0.1756 -0.0077
73638W        W16550   6.531  24.754   9.190  0.0251 -0.0198  0.0547
73639W        W16551   6.306  24.274   9.313 -0.1566  0.1296  0.1366
73640W        W16552   4.274  22.455   8.354 -0.2079 -0.2698 -0.0037
73641W        W16553   3.582  25.891   7.781  0.2234 -0.0825 -0.0165
73642W        W16554   6.047  24.797  10.081 -0.1620  0.0460  0.0495
73643W        W16555   5.613  22.562   7.421  0.0149  0.1075 -0.1935
73644W        W16556   6.696  26.051   9.940 -0.2276  0.0497  0.0882
73645W        W16557   5.524  23.002   7.711 -0.0768 -0.1413 -0.0663
73646W        W16558   7.630  23.771   8.930  0.1371 -0.1109 -0.1580
73647W        W16559   5.976  23.354   7.653 -0.0794  0.1523  0.2666
73648W        W16560   3.688  21.512   7.412 -0.2049  0.1038  0.0250
73649W        W16561   6.369  24.156   7.625  0.1455  0.1676 -0.0492
73650W        W16562   3.953  24.330   7.046  0.1521 -0.3303  0.4962
73651W        W16563   4.473  23.512   7.364 -0.0473 -0.2193  0.3943
73652W        W16564   5.155  23.917   8.467 -0.0080 -0.0809 -0.1183
73653W        W16565   6.521  21.618   9.237 -0.0084  0.0925  0.0831
73654W        W16566   3.719  23.560   7.224  0.0019 -0.0837  0.1375
73655W        W16567   5.895  19.954   7.160 -0.1784 -0.2338  0.2595
73656W        W16568   7.077  22.370   8.287 -0.1228  0.1401 -0.3662
73657W        W16569   6.744  24.822   6.755  0.3685 -0.2210 -0.0904
73658W        W16570   6.487  23.135   7.578  0.2481 -0.0535 -0.0304
73659W        W16571   6.558  22.505   7.534 -0.0762  0.3078  0.0215
73660W        W16572   6.536  23.627   8.451 -0.2170 -0.1909 -0.1540
73661W        W16573   6.190  22.887   9.682 -0.1654 -0.0977  0.0232
73662W        W16574   5.480  23.585   7.363  0.0959  0.1389  0.0676
73663W        W16575   6.640  24.925   7.912 -0.2485  0.1667  0.2012
73664W        W16576   4.679  25.374   8.981  0.0239  0.1194 -0.1531
73665W        W16577   7.592  25.142   7.930 -0.0862 -0.2408  0.0869
73666W        W16578   5.132  22.098   9.920  0.1964  0.0154  0.0316
73667W        W16579   5.675  24.394   6.428  0.2109  0.2236  0.1865
73668W        W16580   7.216  23.574  10.396 -0.1832  0.0994 -0.1462
73669W        W16581   2.684  24.624   7.300  0.1813 -0.1533 -0.1289
73670W        W16582   6.789  22.251   9.219 -0.1431 -0.2011 -0.1123
73671W        W16583   6.825  21.304   8.318  0.0641 -0.1231  0.1278
73672W        W16584   7.233  23.740   8.441 -0.0134  0.1137 -0.1241
73673W        W16585   5.541  20.783  12.553  0.1179 -0.1410  0.1215
73674W        W16586   5.179  22.734   7.165  0.2314 -0.0791  0.1040
73675W        W16587   4.636  21.766   9.007 -0.0816 -0.0826  0.2104
73676W        W16588   3.672  22.678   9.793 -0.1367 -0.1010 -0.1241
73677W        W16589   6.280  24.575   7.810 -0.0444 -0.0144 -0.1067
73678W        W16590   4.986  23.440   7.323 -0.2248 -0.0179  0.0887
73679W        W16591   4.440  25.051   6.564  0.1039 -0.0747 -0.2411
73680W        W16592   5.904  24.399   7.541  0.0955 -0.1962 -0.1438
73681W        W16593   5.513  21.449   8.953  0.1089  0.0149  0.3128
73682W        W16594   6.271  23.938  10.096 -0.2411  0.4023 -0.1997
73683W        W16595   5.083  23.778   6.894  0.3467  0.0753 -0.2087
73684W        W16596   5.986  22.316   7.586  0.2312 -0.3276  0.1343
73685W        W16597   3.993  25.579   7.845 -0.3348  0.0221  0.0283
73686W        W16598   5.430  22.955  10.020 -0.0403  0.2470 -0.2375
73687W        W16599   2.663  24.772   8.231  0.2855  0.1961 -0.2611
73688W        W16600   3.365  22.384   7.818 -0.1274  0.0006  0.0175
73689W        W16601   4.117  23.587   8.068 -0.3972  0.4446 -0.0015
73690W        W16602   4.679  22.765   7.842 -0.1578 -0.2969  0.2795
73691W        W16603   7.476  25.920   6.864 -0.1982  0.2723 -0.0696
73692W        W16604   5.081  22.568   9.783 -0.2853  0.1860  0.0307
73693W        W16605   6.247  22.674   8.578 -0.1099 -0.1623 -0.0634
73694W        W16606   4.165  25.459   9.742  0.0715 -0.0837  0.1872
73695W        W16607   7.062  21.610   7.542 -0.2940 -0.1970 -0.1839
73696W        W16608   3.835  22.017   8.642 -0.0716 -0.0110  0.1954
73697W        W16609   7.035  20.760   9.390 -0.1293  0.1016  0.2563
73698W        W16610   5.650  21.898   9.147 -0.1829 -0.0957 -0.3191
73699W        W16611   3.851  24.271   7.539  0.0684 -0.1230  0.1037
73700W        W16612   4.812  23.881   8.933 -0.1614 -0.0853  0.1965
73701W        W16613   5.518  22.610   8.085 -0.0496 -0.0398  0.0445
73702W        W16614   5.774  24.108   9.249 -0.2875 -0.0977 -0.2025
73703W        W16615   7.377  22.528  10.078  0.1208 -0.1911  0.1886
73704W        W16616   4.475  22.325   7.677  0.0587 -0.0667  0.3470
73705W        W16617   4.224  22.898   8.552 -0.1197 -0.1652  0.1730
73706W        W16618   4.956  23.226   9.980 -0.2834 -0.0263  0.2050
73707W        W16619   6.480  23.335   8.926  0.0179 -0.1268 -0.1222
73708W        W16620   4.652  22.734   9.853  0.3714  0.1526 -0.2962
73709W        W16621   5.834  22.355   9.142 -0.1439  0.0540 -0.3210
73710W        W16622   6.504  25.307   8.855 -0.2049 -0.1004 -0.0639
73711W        W16623   4.401  23.358   6.392  0.1423  0.2573  0.5183
73712W        W16624   4.618  23.624   8.283 -0.1298  0.1985 -0.1840
73713W        W16625   5.037  24.325   7.035  0.0640  0.1914 -0.0531
73714W        W16626   4.411  21.406  10.174  0.3784 -0.1682 -0.0034
73715W        W16627   4.547  24.360   8.980  0.1645 -0.3081  0.2104
73716W        W16628   4.594  23.844   7.783 -0.0097 -0.0626  0.1870
73717W        W16629   3.621  25.370   9.015 -0.0040  0.2177  0.2499
73718W        W16630   7.347  21.195   6.930 -0.0497 -0.6121 -0.1534
73719W        W16631   6.295  23.794   6.889 -0.1928 -0.0448 -0.0385
73720W        W16632   5.583  23.191   6.580 -0.3747  0.0445 -0.3063
73721W        W16633   6.353  23.667   7.398 -0.1214 -0.1713  0.0759
73722W        W16634   3.846  21.780   9.821  0.0017  0.0248  0.0232
73723W        W16635   7.164  25.828   9.828  0.0621  0.0433 -0.2099
73724W        W16636   5.139  23.245   7.977  0.0072  0.2734 -0.0542
73725W        W16637   4.356  22.573   7.075 -0.2872  0.1420 -0.2846
73726W        W16638   6.538  23.947   9.683 -0.0556  0.1756  0.1070
73727W        W16639   7.754  24.244   7.812 -0.0811 -0.3059 -0.2260
73728W        W16640   5.841  23.904   7.797  0.2931  0.1352  0.0174
73729W        W16641   6.910  22.789   7.732  0.0903  0.0124  0.1784
73730W        W16642   4.705  24.180   8.508 -0.2273 -0.0030 -0.1793
73731W        W16643   5.786  22.394   8.680 -0.1192  0.0336  0.1658
73732W        W16644   5.559  23.632   6.758 -0.0915  0.1759  0.1405
73733W        W16645   4.718  24.108   9.386  0.0516  0.1268 -0.0551
73734W        W16646   6.376  23.826   9.143  0.2187  0.2178  0.2109
73735W        W16647   5.401  23.141   8.673 -0.4188 -0.1177  0.0010
73736W        W16648   6.345  25.161  10.012 -0.1316  0.4161  0.0366
73737W        W16649   8.052  23.326   6.184  0.0918 -0.1359  0.2761
73738W        W16650   6.325  22.145  10.457  0.2547  0.2850  0.1847
73739W        W16651   6.053  22.653   7.997  0.1786 -0.1654  0.0522
73740W        W16652   7.235  23.073   7.229  0.1711 -0.0683  0.1885
73741W        W16653   6.327  22.788   9.097 -0.0029  0.1786 -0.2641
73742W        W16654   5.162  23.251   6.916 -0.0017  0.0100 -0.0176
73743W        W16655   5.896  23.908   7.159  0.1916 -0.2131 -0.1305
73744W        W16656   7.779  23.619   9.794  0.1390  0.1011 -0.0480
73745W        W16657   6.708  22.313   7.030  0.1130  0.0035 -0.0800
73746W        W16658   4.050  22.490   8.812 -0.0925 -0.0939 -0.0237
73747W        W16659   4.111  23.184   7.171 -0.5041 -0.1768 -0.1408
73748W        W16660   6.794  23.922   7.670 -0.1661  0.1801 -0.3492
73749W        W16661   6.374  23.416   9.662  0.0351 -0.2110 -0.1717
73750W        W16662   5.951  22.710   7.026  0.0039  0.1392 -0.0626
73751W        W16663   3.665  24.710   7.125 -0.4190  0.2113 -0.0935
73752W        W16664   5.479  21.993   7.613  0.1898 -0.0516 -0.0417
73753W        W16665   3.889  25.894   9.093 -0.0080 -0.0148  0.2024
73754W        W16666   4.541  24.967   8.177  0.1190  0.1393 -0.3756
73755W        W16667   5.853  21.694   9.565 -0.1023  0.3093 -0.0923
73756W        W16668   6.395  21.964   9.788 -0.1419 -0.1927 -0.2977
73757W        W16669   6.493  23.564   7.892 -0.1793  0.0741 -0.1501
73758W        W16670   4.732  24.687   8.564  0.0994 -0.0467  0.0099
73759W        W16671   7.284  25.057   8.907 -0.4048  0.1123 -0.0040
73760W        W16672   4.227  24.261   8.347 -0.0047  0.0693  0.0384
73761W        W16673   6.782  23.792   8.855  0.0879 -0.0271 -0.1573
73762W        W16674   5.798  21.160   7.121 -0.1186 -0.2675  0.0252
73763W        W16675   5.911  25.835   7.828 -0.0033 -0.1603  0.0376
73764W        W16676   3.665  24.607   9.688 -0.1474  0.0530 -0.2469
73765W        W16677   3.616  24.843   6.329  0.0285  0.1365  0.1109
73766W        W16678   5.907  24.419   8.066 -0.1310  0.4387 -0.1606
73767W        W16679   5.757  24.914   7.534  0.2293 -0.1327  0.1883
73768W        W16680   5.006  26.169   9.371 -0.1104  0.1861  0.2145
73769W        W16681   5.495  22.439   6.871 -0.0675  0.3786  0.1103
73770W        W16682   3.210  25.457   9.343  0.1484  0.0905  0.0970
73771W        W16683   3.465  24.598   7.704 -0.0149 -0.3092  0.0294
73772W        W16684   6.090  24.915   8.135  0.0868  0.1035  0.1188
73773W        W16685   4.477  24.462   7.917 -0.2449 -0.4268 -0.0489
73774W        W16686   7.726  21.254   7.209 -0.2656  0.2718 -0.3056
73775W        W16687   7.147  23.166   9.757 -0.0045 -0.1996  0.0183
73776W        W16688   6.052  22.885   7.492 -0.0168  0.0403 -0.2551
73777W        W16689   6.789  22.830   8.950 -0.2223 -0.2585  0.1567
73778W        W16690   4.652  22.752   6.476 -0.2605  0.0121 -0.2018
73779W        W16691   5.422  25.298   8.524  0.2236  0.0632  0.1599
73780W        W16692   2.819  22.953   6.984  0.0517 -0.0763 -0.0530
73781W        W16693   5.351  22.528   9.059  0.1951 -0.4126 -0.2559
73782W        W16694   4.659  22.149   9.688 -0.5220 -0.2947 -0.1201
73783W        W16695   5.090  24.069   6.329 -0.0731 -0.0475  0.2382
73784W        W16696   6.259  23.152   8.050 -0.3572 -0.1445 -0.0175
73785W        W16697   6.205  24.855   8.679 -0.3207 -0.0801  0.0903
73786W        W16698   5.404  23.427   9.850 -0.2519 -0.0680  0.2252
73787W        W16699   4.529  24.610   9.527  0.0872  0.0162  0.1002
73788W        W16700   3.210  21.435   7.240 -0.0104 -0.2614  0.2576
73789W        W16701   7.268  24.259   9.392  0.0246  0.3376  0.1005
73790W        W16702   4.108  23.836   9.501 -0.4366  0.0535  0.0910
73791W        W16703   4.864  23.883   7.412 -0.2120 -0.0566 -0.2146
73792W        W16704   6.503  23.075   8.510 -0.0887  0.3616  0.0576
73793W        W16705   7.131  21.916   9.248 -0.3577  0.2031 -0.1995
73794W        W16706   1.843  21.501   9.271 -0.4026  0.0890  0.0507
73795W        W16707   5.055  23.024   7.550 -0.2265 -0.0012 -0.1917
73796W        W16708   5.558  23.093   4.980  0.3292 -0.1963 -0.0944
73797W        W16709   4.259  23.414   8.637  0.4343 -0.0146  0.1664
73798W        W16710   5.686  22.126   7.155 -0.0200 -0.3085  0.2218
73799W        W16711   4.341  23.856   9.045 -0.0248 -0.0459  0.1102
73800W        W16712   8.585  21.484   9.528  0.3481 -0.0648  0.0134
73801W        W16713   5.265  22.468   8.550 -0.0886  0.1548  0.2336
73802W        W16714   7.430  25.309   8.477 -0.1932 -0.2209 -0.1390
73803W        W16715   6.064  23.286   8.535  0.5002  0.0591  0.3187
73804W        W16716   5.141  25.300   8.928 -0.2535 -0.0709 -0.3804
73805W        W16717   7.341  23.518   6.924 -0.0563 -0.0159 -0.0348
73806W        W16718   6.486  24.699   8.309 -0.4386  0.1374 -0.0588
73807W        W16719   3.871  22.577   9.266 -0.2058 -0.2151 -0.0071
73808W        W16720   5.469  24.535   9.548  0.0623  0.3022 -0.2614
73809W        W16721   7.007  24.503   9.012  0.0670 -0.1357  0.0776
73810W        W16722   6.299  21.113   7.021  0.2091  0.0595  0.1371
73811W        W16723   5.672  22.779   9.556  0.0740  0.1648  0.0242
73812W        W16724   4.130  24.749   8.417  0.0502  0.1492 -0.0783
73813W        W16725   7.414  22.046   8.408  0.0417 -0.1930  0.1934
73814W        W16726   5.865  23.410   7.095 -0.4498 -0.2841 -0.0641
73815W        W16727   5.571  24.023   8.750 -0.0192  0.2800  0.1583
73816W        W16728   4.088  23.899   7.317  0.3461  0.3241  0.1964
73817W        W16729   5.029  24.375   7.563 -0.0362  0.1557 -0.0262
73818W        W16730   5.330  25.736   8.684 -0.1334  0.3815  0.0357
73819W        W16731   6.138  25.436   7.963  0.1583 -0.1121  0.0351
73820W        W16732   6.328  24.118   8.109  0.0362 -0.0922 -0.3696
73821W        W16733   7.480  25.478   9.210 -0.0018  0.2161 -0.0987
73822W        W16734   4.075  22.136   7.426  0.1664  0.2546  0.0325
73823W        W16735   7.820  23.023   8.219  0.2279  0.1218 -0.0377
73824W        W16736   5.798  22.113   8.179 -0.3412  0.1757  0.1996
73825W        W16737   4.362  25.106   8.662  0.1477 -0.1241  0.0684
73826W        W16738   3.278  22.847   6.877  0.0615 -0.0571  0.0960
73827W        W16739   4.154  24.670   7.332  0.0208  0.2348 -0.0838
73828W        W16740   3.527  24.564   8.889  0.0185  0.1770 -0.1811
73829W        W16741   4.146  24.501   9.818  0.0184 -0.0819 -0.1616
73830W        W16742   4.170  22.887   7.936  0.3453  0.0248 -0.1434
73831W        W16743   7.272  24.191   7.590  0.1197 -0.1524 -0.1284
73832W        W16744   4.986  20.797   8.414 -0.0766  0.0905 -0.1028
73833W        W16745   6.068  23.210   9.197  0.2853 -0.0244 -0.1665
73834W        W16746   6.407  24.388   8.830 -0.1439  0.0211 -0.1775
73835W        W16747   6.759  24.900   8.690  0.0677  0.1751 -0.0507
73836W        W16748   4.801  21.238   7.865 -0.0087  0.0179 -0.1248
73837W        W16749   3.529  24.102   7.165 -0.4089  0.1221 -0.1522
73838W        W16750   3.616  23.136   7.470  0.1835  0.0468 -0.1816
73839W        W16751   6.374  22.316   8.964 -0.2611  0.0292  0.2673
73840W        W16752   5.426  24.079   7.951 -0.0619 -0.0497 -0.0437
73841W        W16753   6.895  24.828   7.432  0.1258  0.0127  0.2409
73842W        W16754   2.755  22.068   9.524 -0.1350  0.1186 -0.1808
73843W        W16755   7.847  23.689   6.890 -0.1868 -0.3728 -0.1235
73844W        W16756   7.580  23.767   7.686 -0.0525  0.1044 -0.0123
73845W        W16757   7.067  21.412   9.241 -0.0096 -0.0190  0.0831
73846W        W16758   6.956  23.263   7.651  0.0403 -0.3042  0.4213
73847W        W16759   5.665  25.383   9.540  0.0128 -0.0092 -0.0181
73848W        W16760   4.397  20.353   9.464 -0.0689  0.3521  0.1358
73849W        W16761   6.552  21.229   7.900  0.1029 -0.0574  0.2678
73850W        W16762   5.591  24.939   8.098 -0.1049 -0.2314  0.1295
73851W        W16763   6.066  23.813   9.540  0.1406 -0.0015  0.1789
73852W        W16764   6.004  23.445   6.573  0.0215 -0.3699  0.0726
73853W        W16765   5.499  24.050   9.713 -0.0169 -0.1173 -0.0073
73854W        W16766   4.651  24.277   6.592 -0.0288 -0.2435 -0.1837
73855W        W16767   7.612  24.516   8.836  0.1564  0.2275 -0.0038
73856W        W16768   3.660  28.157   9.563 -0.0461  0.0129  0.1043
73857W        W16769   6.150  23.348  10.128  0.0190  0.1811 -0.0522
73858W        W16770   9.122  24.097  10.275  0.0855  0.1608  0.0338
73859W        W16771   4.319  22.222   9.175  0.2049 -0.2824 -0.1140
73860W        W16772   5.552  23.652   9.364  0.1625 -0.3014  0.1531
73861W        W16773   5.062  23.694   7.827 -0.1367  0.2660  0.0600
73862W        W16774   6.641  23.056   9.373  0.0992  0.1771  0.1364
73863W        W16775   6.492  22.180   8.363 -0.1702  0.2305 -0.2791
73864W        W16776   6.213  22.161   7.153 -0.2040 -0.1109 -0.2328
73865W        W16777   8.177  28.451   9.496  0.2226 -0.2290  0.1934
73866W        W16778   4.853  23.398   9.097  0.0166 -0.0477  0.0536
73867W        W16779   4.852  29.177   2.436 -0.0038 -0.2811  0.0050
73868W        W16780   5.466  27.269   0.566  0.0465  0.1077  0.1942
73869W        W16781   6.785  26.314   1.782 -0.1552 -0.3397 -0.0039
73870W        W16782   6.931  28.122   1.653  0.2068  0.2275 -0.2510
73871W        W16783   3.986  27.685   2.435  0.2357  0.0020  0.0497
73872W        W16784   5.270  28.618   1.679  0.4316  0.1914 -0.1330
73873W        W16785   5.742  25.001   3.030  0.0695  0.0363  0.0105
73874W        W16786   6.211  28.370   1.820  0.2237 -0.1295  0.0360
73875W        W16787   5.655  29.428   3.618  0.0630  0.0129  0.0152
73876W        W16788   6.475  26.614   0.139 -0.2385 -0.2241  0.4068
73877W        W16789   6.159  26.998   1.564  0.0708 -0.0029  0.0064
73878W        W16790   3.994  29.753   3.137  0.0373 -0.1991  0.3550
73879W        W16791   6.810  27.001   0.899  0.1139  0.1184 -0.3299
73880W        W16792   3.750  26.788   1.495 -0.0664  0.0320 -0.1077
73881W        W16793   6.160  27.011   2.932  0.3187 -0.1409 -0.0944
73882W        W16794   4.417  28.162   0.712  0.0776 -0.0105  0.2913
73883W        W16795   3.659  27.192   2.968  0.2000  0.0512  0.0809
73884W        W16796   4.824  27.778   0.121  0.1344 -0.1102  0.1128
73885W        W16797   5.887  29.836   0.450  0.0625 -0.2332  0.1074
73886W        W16798   4.974  27.686   2.878  0.1978 -0.3208  0.0820
73887W        W16799   5.692  25.991   3.301  0.0472  0.0276  0.1378
73888W        W16800   5.558  29.608   1.308 -0.0901  0.1676 -0.2937
73889W        W16801   1.800  26.850   0.651 -0.3508  0.2292  0.1185
73890W        W16802   4.006  26.334   0.896  0.3323 -0.1081 -0.0356
73891W        W16803   3.681  27.737   3.234 -0.0524  0.0937 -0.2456
73892W        W16804   6.807  26.162   2.693  0.2872 -0.1081 -0.0648
73893W        W16805   8.071  27.214   1.724  0.2845  0.1908 -0.2918
73894W        W16806   4.045  30.523   0.460  0.1673 -0.0824 -0.1580
73895W        W16807   6.168  29.134   0.011  0.1163  0.1637 -0.0353
73896W        W16808   8.113  28.409   3.014 -0.2929 -0.1318  0.3704
73897W        W16809   3.880  28.218   2.381 -0.0470 -0.2125 -0.3026
73898W        W16810   3.161  29.505   0.602  0.3376  0.0238  0.5911
73899W        W16811   4.141  29.727   0.333 -0.4104  0.1869 -0.0033
73900W        W16812   7.263  28.976   0.770 -0.0823  0.0848  0.0511
73901W        W16813   8.011  28.914   2.376  0.0018  0.0186  0.1975
73902W        W16814   3.649  30.124   2.767  0.0034 -0.0947  0.1824
73903W        W16815   4.585  29.741  31.934 -0.1008 -0.0262  0.3669
73904W        W16816   6.529  29.269   3.352 -0.1723 -0.0063 -0.1706
73905W        W16817   5.635  30.429   3.925  0.0643  0.2402  0.2113
73906W        W16818   6.348  26.535   3.399  0.1017  0.2200 -0.5209
73907W        W16819   5.711  26.009   2.722 -0.1378 -0.3193  0.0902
73908W        W16820   4.729  29.117   1.185  0.3284  0.2745  0.0302
73909W        W16821   4.614  28.859   2.132  0.0354 -0.0590 -0.2919
73910W        W16822   6.045  28.339   5.572  0.1191  0.1209 -0.2661
73911W        W16823   4.020  29.109   1.908 -0.0781  0.0677 -0.0930
73912W        W16824   7.882  26.269   4.528  0.1001  0.0726 -0.1736
73913W        W16825   3.245  28.727   0.820  0.0350  0.0154  0.1318
73914W        W16826   7.439  26.287  31.807  0.0346  0.1892 -0.0523
73915W        W16827   4.538  26.286   0.909  0.1752 -0.1851  0.3708
73916W        W16828   6.845  27.440   1.090  0.1823 -0.0162 -0.1314
73917W        W16829   4.322  26.027   1.272 -0.0794  0.0333 -0.0003
73918W        W16830   5.303  29.199   2.056  0.0574 -0.3380 -0.0189
73919W        W16831   4.642  26.394   3.598 -0.0755  0.0842 -0.0868
73920W        W16832   6.946  28.284   3.392 -0.0782  0.0285 -0.3910
73921W        W16833   5.959  26.972   2.011  0.0090  0.0125  0.4970
73922W        W16834   6.087  25.808   3.115  0.2021 -0.2100  0.0306
73923W        W16835   4.396  28.515   2.977  0.3520  0.0912 -0.3884
73924W        W16836   4.332  27.956   2.129 -0.1885 -0.3187  0.1915
73925W        W16837   7.594  27.377  31.790  0.0898 -0.0526 -0.2847
73926W        W16838   6.924  28.090   0.726 -0.1613  0.1269 -0.2007
73927W        W16839   4.966  29.408  31.922  0.1543 -0.0092 -0.1332
73928W        W16840   2.142  28.402   1.515  0.1207 -0.2112 -0.0972
73929W        W16841   4.821  27.467   3.730 -0.0292  0.1358 -0.0978
73930W        W16842   5.125  29.000   2.897  0.3972  0.0441  0.0975
73931W        W16843   5.068  26.957   1.923 -0.0841  0.0998 -0.0772
73932W        W16844   7.564  27.473   3.309 -0.0760  0.0196  0.1432
73933W        W16845   3.519  28.285   1.638 -0.1651 -0.1267  0.0926
73934W        W16846   5.823  25.809   1.816 -0.2123  0.2506  0.2520
73935W        W16847   4.016  27.916   0.988  0.1704  0.0941 -0.0657
73936W        W16848   6.975  29.264   3.196 -0.1746  0.0476  0.2066
73937W        W16849   6.180  27.833   1.109  0.0720  0.3402  0.2540
73938W        W16850   4.738  24.954   2.538 -0.0806  0.0064  0.1234
73939W        W16851   6.065  26.289   3.077 -0.3806  0.3260 -0.0109
73940W        W16852   3.265  28.739   0.305 -0.2353  0.1118 -0.1957
73941W        W16853   3.997  28.036   1.535  0.2833 -0.0588  0.0994
73942W        W16854   6.503  29.969   3.287 -0.2325  0.0589  0.0685
73943W        W16855   6.218  26.209   1.735 -0.2656  0.1767  0.0435
73944W        W16856   4.962  27.926   1.888 -0.2582  0.1211 -0.2217
73945W        W16857   6.088  27.578   4.807  0.2730 -0.4660 -0.3358
73946W        W16858   6.291  29.823   4.197  0.0302 -0.1544  0.1061
73947W        W16859   5.140  28.945  31.724 -0.1040 -0.0862  0.0594
73948W        W16860   4.380  29.015   2.634  0.0303  0.3213 -0.0016
73949W        W16861   4.239  29.091   0.064  0.1512  0.1883 -0.0338
73950W        W16862   4.512  27.243   3.224 -0.1055  0.2428  0.0868
73951W        W16863   4.962  28.235   1.430 -0.2147 -0.2794 -0.0473
73952W        W16864   7.331  26.520   1.665 -0.2403  0.0264 -0.0946
73953W        W16865   5.221  25.693   2.611  0.0165 -0.0921 -0.0750
73954W        W16866   7.284  26.536   0.737 -0.0509 -0.1020 -0.3294
73955W        W16867   3.904  28.464  31.406 -0.2634 -0.0224  0.2042
73956W        W16868   6.297  27.638   1.930 -0.0194 -0.2564 -0.3539
73957W        W16869   5.256  25.821   0.952  0.1090 -0.0175  0.0101
73958W        W16870   6.399  26.713   0.652  0.0283  0.4211 -0.5578
73959W        W16871   4.050  26.991   1.891  0.0630 -0.1740 -0.1435
73960W        W16872   4.853  27.682   1.474  0.1576 -0.1230 -0.3023
73961W        W16873   4.103  26.942   3.353 -0.1866  0.1346  0.2279
73962W        W16874   2.873  25.571   1.405 -0.0498 -0.0739 -0.1412
73963W        W16875   8.461  28.431   3.732 -0.0806  0.1313  0.0392
73964W        W16876   4.099  27.218   1.474  0.1993 -0.2530  0.0442
73965W        W16877   4.886  26.128   1.712 -0.0682 -0.1211 -0.2096
73966W        W16878   5.392  28.116   1.660 -0.1235  0.3946 -0.1285
73967W        W16879   2.880  28.769   2.298  0.3686  0.0606  0.3631
73968W        W16880   7.034  25.194   3.553 -0.1811  0.0065  0.0643
73969W        W16881   6.055  29.584   1.988 -0.1923  0.3640  0.0200
73970W        W16882   8.642  28.775   4.114 -0.0432  0.1003 -0.1137
73971W        W16883   6.771  27.906   1.186 -0.2250  0.2195  0.0062
73972W        W16884   4.106  25.163   2.896  0.3751 -0.0601 -0.1644
73973W        W16885   1.554  27.267   1.533 -0.0692  0.0214  0.2286
73974W        W16886   5.801  29.963   1.089 -0.2171 -0.1438 -0.0333
73975W        W16887   5.713  28.539   1.816  0.0508  0.3750 -0.0133
73976W        W16888   3.325  26.184   0.037  0.1289  0.0897 -0.2498
73977W        W16889   8.633  27.743   1.943  0.1799 -0.2004  0.0144
73978W        W16890   5.823  26.561   1.742  0.0292 -0.0884 -0.0902
73979W        W16891   5.248  29.076   3.429 -0.2730 -0.2611 -0.0039
73980W        W16892   4.775  25.682   2.853 -0.1972 -0.0128  0.0346
73981W        W16893   7.943  27.767   3.672 -0.0389 -0.0250  0.0447
73982W        W16894   6.531  27.610   2.402 -0.0365  0.0721 -0.2374
73983W        W16895   5.022  26.753   1.044  0.3384  0.2373 -0.0733
73984W        W16896   6.503  29.307   1.919 -0.4731 -0.0176 -0.2274
73985W        W16897   3.313  29.616  31.868 -0.2457  0.3489  0.0424
73986W        W16898   3.875  27.093   2.485 -0.1410  0.0497  0.0093
73987W        W16899   5.647  29.380   1.728 -0.1608 -0.0846 -0.2092
73988W        W16900   7.275  27.140   0.856  0.3478 -0.1492 -0.1802
73989W        W16901   4.000  27.546   1.863  0.2520 -0.0019 -0.3665
73990W        W16902   5.654  25.560   2.903  0.0021  0.2735  0.1084
73991W        W16903   4.533  27.616   0.576  0.2560  0.0093  0.2458
73992W        W16904   4.089  29.565   4.035  0.0404  0.1360 -0.2283
73993W        W16905   6.217  24.513   1.677 -0.1178  0.0386  0.2013
73994W        W16906   6.987  26.138  31.648 -0.1730 -0.1969  0.0230
73995W        W16907   6.553  28.143   3.698  0.3014  0.2978  0.1102
73996W        W16908   6.518  28.506   1.383 -0.1051 -0.0603 -0.0213
73997W        W16909   6.297  27.217  31.923  0.0052 -0.0253 -0.1110
73998W        W16910   7.186  26.228   0.254  0.3616 -0.0820 -0.0495
73999W        W16911   3.819  28.067   3.849 -0.1214 -0.2190  0.0825
74000W        W16912   6.418  26.768   1.218  0.1842  0.0168  0.0639
74001W        W16913   5.121  28.206   2.636 -0.1767  0.2936  0.1143
74002W        W16914   7.056  27.670  31.699 -0.1532  0.3082  0.0557
74003W        W16915   6.608  28.000   2.038 -0.0960 -0.0843  0.1999
74004W        W16916   5.434  28.629   3.209  0.2535  0.1630 -0.2394
74005W        W16917   6.740  28.532   2.865 -0.1321  0.0815 -0.3379
74006W        W16918   6.206  28.831   3.204  0.0185 -0.1167 -0.0230
74007W        W16919   4.929  26.330   1.233  0.0152  0.2834 -0.1484
74008W        W16920   6.085  28.457   0.658  0.0369 -0.3078  0.0565
74009W        W16921   5.803  26.570  31.892  0.2869  0.1536  0.1227
74010W        W16922   3.031  28.435  31.939  0.0161  0.1244 -0.1625
74011W        W16923   6.994  27.166   2.454  0.1197  0.3471 -0.0526
74012W        W16924   7.365  25.792   1.297  0.0613 -0.0216 -0.0897
74013W        W16925   5.603  26.951   3.654 -0.1076 -0.5147  0.3511
74014W        W16926   7.469  26.201   3.582 -0.1255  0.1064  0.2118
74015W        W16927   7.270  26.761   2.153  0.1348 -0.0629 -0.0119
74016W        W16928   5.959  26.330   2.217 -0.0285 -0.1578 -0.1622
74017W        W16929   4.777  27.315  31.951 -0.1015  0.0597 -0.2162
74018W        W16930   5.253  25.735   1.887 -0.0557 -0.0947 -0.4368
74019W        W16931   5.240  27.798   2.348 -0.0653  0.1608  0.0812
74020W        W16932   3.836  29.155   2.463  0.2487 -0.2636 -0.4109
74021W        W16933   6.750  29.804   4.349 -0.0137 -0.1661 -0.2604
74022W        W16934   7.801  27.100   1.272  0.0706  0.1655  0.3111
74023W        W16935   5.556  26.468   4.593 -0.3786 -0.0602  0.0260
74024W        W16936   5.780  27.228  31.473  0.1373 -0.0846 -0.1959
74025W        W16937   5.620  29.818   1.971 -0.1318 -0.2993 -0.0005
74026W        W16938   3.724  28.614   0.714  0.5203 -0.1218  0.0964
74027W        W16939   4.957  26.178   2.556  0.0729  0.0424  0.0868
74028W        W16940   5.468  29.775   3.933 -0.1627 -0.3100  0.0395
74029W        W16941   6.087  29.597   1.277  0.3957  0.1484  0.0261
74030W        W16942   6.865  29.130   3.712  0.1454  0.1456 -0.0930
74031W        W16943   3.436  29.876   0.809 -0.0187 -0.2425  0.1522
74032W        W16944   7.531  26.324   1.159 -0.1371 -0.0984 -0.1728
74033W        W16945   4.784  30.019   1.049  0.0254  0.1092  0.1761
74034W        W16946   5.304  29.317   1.002 -0.1197 -0.1174  0.1170
74035W        W16947   3.016  26.768   2.093 -0.4835  0.1941 -0.0799
74036W        W16948   6.222  26.288   0.827 -0.3926  0.1187 -0.0768
74037W        W16949   7.041  29.003   0.342  0.2342  0.0779  0.2378
74038W        W16950   5.389  26.421   2.451  0.0727  0.0882 -0.1527
74039W        W16951   5.825  27.577   0.788 -0.0400 -0.2267  0.3806
74040W        W16952   3.017  29.203   1.668 -0.2211 -0.0145  0.0261
74041W        W16953   5.819  27.784   3.165  0.4014 -0.0381  0.0408
74042W        W16954   5.660  25.710   1.352  0.0200 -0.0210  0.1347
74043W        W16955   5.917  27.849   1.549  0.0044  0.0961 -0.1180
74044W        W16956   4.771  28.304   3.800 -0.1938 -0.2381 -0.3168
74045W        W16957   4.367  26.478   1.370  0.3182  0.1531 -0.1121
74046W        W16958   7.817  25.481   2.240 -0.2632 -0.1391 -0.1728
74047W        W16959   5.113  28.751   2.245 -0.2000  0.2039  0.1703
74048W        W16960   3.705  28.722   2.065 -0.0691  0.1066  0.1680
74049W        W16961   7.557  29.659   3.985  0.1326 -0.0283 -0.1190
74050W        W16962   3.439  28.369  31.686  0.5069  0.1949  0.0369
74051W        W16963   4.290  28.635   0.807 -0.3021  0.0220 -0.1455
74052W        W16964   5.127  27.858   3.906  0.0923  0.0823  0.0652
74053W        W16965   6.827  26.975   2.866  0.0021  0.0797 -0.1272
74054W        W16966   4.562  26.870   2.096 -0.1718  0.2516 -0.1085
74055W        W16967   4.590  27.604   1.952  0.0459  0.0417 -0.2198
74056W        W16968   6.791  26.487   3.086 -0.2541  0.0685  0.0869
74057W        W16969   5.867  27.090   2.505 -0.2269 -0.2263  0.1155
74058W        W16970   5.718  26.598   3.214 -0.0804 -0.2208  0.1805
74059W        W16971   4.153  28.537   3.789 -0.0687 -0.1075  0.1901
74060W        W16972   4.192  24.603   1.491 -0.1630 -0.1801 -0.1792
74061W        W16973   7.382  30.649  31.680  0.1134 -0.2631 -0.1289
74062W        W16974   7.007  26.077   3.319 -0.2303 -0.1252  0.0614
74063W        W16975   5.440  28.981   0.107 -0.0753  0.1478  0.1988
74064W        W16976   4.194  26.693   2.338 -0.0399 -0.0140  0.1188
74065W        W16977   5.430  29.705   0.636 -0.3854  0.1257  0.1210
74066W        W16978   6.111  25.326   3.237 -0.1416  0.1988 -0.2504
74067W        W16979   5.688  29.033   2.962  0.3031  0.0594  0.2602
74068W        W16980   4.767  28.987   0.200 -0.1639 -0.1188  0.2544
74069W        W16981   4.495  29.156   1.624 -0.2208  0.3646  0.0190
74070W        W16982   6.274  24.954   1.425  0.0576 -0.1057  0.0704
74071W        W16983   5.130  29.149   1.546  0.0445  0.0356  0.0545
74072W        W16984   5.873  26.548   0.637  0.2393 -0.0064 -0.2111
74073W        W16985   8.208  24.734   2.788 -0.1061  0.3556 -0.1089
74074W        W16986   5.578  26.208   1.413 -0.0903 -0.1154 -0.3194
74075W        W16987   7.314  24.824   4.229  0.2449 -0.0158  0.0735
74076W        W16988   5.510  28.149   4.123  0.0436  0.0262  0.1855
74077W        W16989   5.855  27.458   1.810  0.0322 -0.1039 -0.3695
74078W        W16990   4.616  27.732   3.338  0.1337  0.2435 -0.3623
74079W        W16991   5.698  28.882   5.860 -0.0325 -0.0315 -0.0592
74080W        W16992   4.484  28.250   3.423 -0.1219 -0.4018 -0.0863
74081W        W16993   6.027  26.860   0.264 -0.1257  0.0328  0.2223
74082W        W16994   3.756  27.643   1.371  0.0122  0.1241  0.4812
74083W        W16995   3.998  29.228   4.474  0.0766  0.0872 -0.0663
74084W        W16996   6.390  28.322   3.156 -0.0586 -0.0130 -0.2614
74085W        W16997   5.945  26.556   2.695  0.2226 -0.0009  0.0946
74086W        W16998   7.790  26.493   2.008  0.1567 -0.0014 -0.2062
74087W        W16999   2.921  28.205   3.472  0.0256 -0.3438  0.1892
74088W        W17000   5.434  26.254   1.903  0.2382 -0.1554 -0.2600
74089W        W17001   5.355  27.598   1.576  0.1432 -0.1947 -0.3905
74090W        W17002   4.742  28.511   1.035  0.2132  0.0370  0.2408
74091W        W17003   4.611  27.237   1.626 -0.2093  0.0490  0.2959
74092W        W17004   5.901  28.627   2.354  0.2028  0.2323  0.2990
74093W        W17005   4.846  25.382   0.217  0.1453  0.1088 -0.0613
74094W        W17006   5.536  25.880   2.278  0.1038 -0.0238  0.0165
74095W        W17007   6.063  27.013   3.498 -0.0497  0.1409  0.1428
74096W        W17008   5.445  28.139   3.097  0.1323 -0.2711 -0.1742
74097W        W17009   4.353  26.014   3.620 -0.0180  0.3025  0.1654
74098W        W17010   7.241  29.594   3.457 -0.2527  0.2749  0.0229
74099W        W17011   6.120  26.278   0.287 -0.0534 -0.0236  0.2139
74100W        W17012   8.305  25.595   3.383  0.1981 -0.1448 -0.0369
74101W        W17013   6.937  27.215   1.925 -0.2932 -0.0745  0.6188
74102W        W17014   6.503  26.747   1.814 -0.0357  0.1222  0.2883
74103W        W17015   4.373  27.667   1.439  0.2693  0.2129  0.1638
74104W        W17016   6.123  28.124   2.803 -0.3407  0.1194 -0.0291
74105W        W17017   5.553  26.289   0.939 -0.2463  0.0039 -0.2159
74106W        W17018   6.270  26.059   2.638  0.2167  0.1621  0.0241
74107W        W17019   5.999  28.920   0.510  0.1441 -0.0613  0.0792
74108W        W17020   6.112  26.100   3.555  0.2519  0.1046 -0.4776
74109W        W17021   6.075  25.953   1.158 -0.1451  0.0629 -0.2921
74110W        W17022   2.538  26.853   1.936 -0.2095  0.1314  0.3431
74111W        W17023   4.432  29.068   3.969 -0.1565  0.1675 -0.1843
74112W        W17024   3.806  26.205  31.887 -0.1287  0.3304 -0.1210
74113W        W17025   5.023  28.121   0.498  0.0149  0.1874 -0.0149
74114W        W17026   5.150  27.868   1.107 -0.1683 -0.0577  0.2427
74115W        W17027   6.236  27.374   3.255 -0.1043  0.0975 -0.0173
74116W        W17028   5.559  25.405   0.756 -0.0388 -0.3412  0.3051
74117W        W17029   7.586  27.715   4.254  0.3410  0.1204 -0.0846
74118W        W17030   4.006  28.381   1.136 -0.3057  0.2811  0.1774
74119W        W17031   6.499  25.646   2.857  0.0144  0.3100  0.0102
74120W        W17032   4.351  29.250   2.216  0.3330 -0.1130  0.1413
74121W        W17033   3.948  29.191   2.989  0.1859 -0.0959  0.1565
74122W        W17034   3.968  30.223   1.135 -0.1265 -0.2438 -0.1327
74123W        W17035   6.029  25.360   1.974 -0.0143  0.1046 -0.0325
74124W        W17036   6.799  28.011   2.998 -0.1256 -0.1207 -0.0375
74125W        W17037   5.273  28.249   2.144  0.1319 -0.0982 -0.0953
74126W        W17038   7.332  26.158   2.671  0.1417  0.1319 -0.0647
74127W        W17039   6.891  28.609   3.770  0.3772  0.0308 -0.1953
74128W        W17040   3.851  28.748   1.557  0.1450 -0.2026  0.1047
74129W        W17041   6.633  28.918   4.092  0.1773  0.2769 -0.1020
74130W        W17042   5.657  27.697   2.671  0.1080 -0.1375 -0.0625
74131W        W17043   5.405  28.611   2.696 -0.5362  0.2244  0.0368
74132W        W17044   3.589  27.304   3.458 -0.0025  0.2332 -0.4144
74133W        W17045   7.255  26.995   3.113 -0.2016  0.1458 -0.3417
74134W        W17046   6.802  26.714   2.298 -0.1995  0.1391  0.1281
74135W        W17047   5.570  28.085   0.634  0.3566 -0.3030 -0.2429
74136W        W17048   5.205  28.817   1.152 -0.2753  0.2768 -0.3451
74137W        W17049   3.247  27.637   3.644  0.1151 -0.0647 -0.0322
74138W        W17050   4.764  28.329   2.109  0.3627  0.1449 -0.1051
74139W        W17051   4.015  30.736   1.104 -0.0323  0.2191  0.0505
74140W        W17052   6.978  27.637   2.189  0.0987  0.0953 -0.0601
74141W        W17053   5.118  27.147   1.450  0.2416 -0.0814  0.0985
74142W        W17054   7.046  29.363   2.651 -0.1831 -0.0326  0.0457
74143W        W17055   4.929  26.821  31.319  0.1025  0.4074  0.0934
74144W        W17056   4.285  28.834   1.309  0.4257 -0.0554 -0.1101
74145W        W17057   2.272  27.620   0.995 -0.1464  0.1271 -0.0834
74146W        W17058   7.172  27.214   1.425  0.1449  0.0849  0.0100
74147W        W17059   3.531  28.593   1.205  0.0188 -0.0185 -0.1701
74148W        W17060   6.170  28.172   4.037  0.0284  0.0845  0.0164
74149W        W17061   7.087  25.756   0.058  0.0212  0.4109  0.3616
74150W        W17062   7.802  26.951   2.225  0.1827  0.0210 -0.1674
74151W        W17063   8.579  25.736  29.944  0.1237  0.0682 -0.2049
74152W        W17064   6.320  28.627   5.214 -0.1385  0.0379  0.2295
74153W        W17065   5.533  27.307   2.159 -0.2414  0.0293 -0.0350
74154W        W17066   5.470  26.927  31.721 -0.1314  0.1074 -0.3023
74155W        W17067   6.168  27.594   2.743 -0.4794  0.1444 -0.0401
74156W        W17068   8.365  24.788   2.167  0.1912  0.2571 -0.0340
74157W        W17069   4.123  28.698   2.305  0.4939  0.0491 -0.2846
74158W        W17070   5.999  28.294   1.171 -0.0435 -0.2927  0.2469
74159W        W17071   5.078  27.244  31.555  0.2577  0.3651 -0.0520
74160W        W17072   4.250  29.589   1.793 -0.1476 -0.0981  0.0877
74161W        W17073   6.614  26.204   2.237 -0.0956  0.0843  0.0083
74162W        W17074   6.456  28.234   0.936  0.1134 -0.0532  0.0044
74163W        W17075   6.975  25.818   1.979 -0.0690  0.0506  0.0722
74164W        W17076   4.458  27.639   2.748  0.0428 -0.0788  0.2241
74165W        W17077   4.494  28.799   3.473 -0.0011  0.0777  0.1029
74166W        W17078   5.215  29.726   1.707 -0.1951  0.0144 -0.0181
74167W        W17079   3.611  27.224   1.718  0.0473 -0.0100  0.0320
74168W        W17080   8.154  26.333   1.714  0.1327 -0.1132  0.0978
74169W        W17081   4.573  26.366   2.276 -0.0988 -0.0551 -0.0434
74170W        W17082   7.008  25.677   2.833  0.0320  0.0807 -0.1237
74171W        W17083   4.655  27.922   1.055 -0.0394  0.2066 -0.0917
74172W        W17084   6.632  27.163   1.452  0.3034 -0.1055  0.2378
74173W        W17085   6.312  28.542   3.630 -0.1231  0.2073  0.2836
74174W        W17086   4.788  28.694   2.664  0.2042 -0.5098  0.0421
74175W        W17087   6.045  28.250  31.668  0.0278  0.0177 -0.2886
74176W        W17088   7.035  27.362   3.398  0.3136 -0.1503 -0.2750
74177W        W17089   4.328  27.433   1.003  0.2650 -0.0027  0.2629
74178W        W17090   6.241  29.658   3.653  0.2506  0.0236  0.0390
74179W        W17091   4.464  28.285   1.441  0.0043 -0.0843 -0.1636
74180W        W17092   7.065  26.192   1.302 -0.1217 -0.0893  0.1437
74181W        W17093   4.439  28.192   2.535 -0.1764  0.1679 -0.0224
74182W        W17094   4.765  27.864   2.381  0.1783 -0.1937  0.0389
74183W        W17095   9.451  28.452   3.852  0.3674 -0.0439  0.2849
74184W        W17096   4.709  25.659   1.653 -0.0945  0.1111  0.2650
74185W        W17097   8.777  26.730   1.112 -0.1133  0.0440  0.0845
74186W        W17098   6.053  28.148   2.216  0.2236 -0.0392  0.3570
74187W        W17099   4.825  28.642  31.439 -0.0621  0.2905  0.0567
74188W        W17100   5.519  26.796   2.784 -0.2329 -0.0540 -0.0896
74189W        W17101   6.603  29.931   2.545 -0.2494  0.2050 -0.0193
74190W        W17102   5.231  26.226   3.462 -0.0481  0.0253  0.0964
74191W        W17103   6.404  28.628   2.535  0.1085 -0.0605  0.1828
74192W        W17104   7.437  28.228   2.522  0.0844 -0.1894 -0.0472
74193W        W17105   5.496  26.813   0.236  0.0175 -0.0350  0.1335
74194W        W17106   4.951  28.575   3.240  0.1388  0.1656  0.0600
74195W        W17107   4.327  29.726   0.889  0.2306 -0.1998 -0.0667
74196W        W17108   7.155  26.675   2.674  0.1101  0.1837  0.1183
74197W        W17109   6.518  26.095   3.194 -0.0995 -0.0733 -0.0717
74198W        W17110   6.650  29.578  31.688  0.1664  0.0614  0.1617
74199W        W17111   7.313  24.246   3.489  0.0111  0.1329  0.0235
74200W        W17112   5.148  28.746   4.135 -0.2083  0.1270 -0.1885
74201W        W17113   3.956  29.379   5.425 -0.2598 -0.0551  0.1529
74202W        W17114   3.462  28.294   0.250 -0.2009 -0.0141 -0.1291
74203W        W17115   5.879  28.317   3.267 -0.1713  0.0178  0.0523
74204W        W17116   5.647  28.995   1.424 -0.5398 -0.0381  0.0819
74205W        W17117   5.573  27.804   2.018 -0.0355 -0.1026  0.1535
74206W        W17118   7.650  29.381  31.789  0.1515 -0.4059 -0.0697
74207W        W17119   3.510  27.560   0.880  0.3427  0.0067  0.2144
74208W        W17120   6.406  28.035   1.556 -0.0111  0.2881  0.0189
74209W        W17121   5.086  27.459   1.932 -0.1518 -0.2199  0.1628
74210W        W17122   6.988  26.003   0.795 -0.0070 -0.0696  0.0642
74211W        W17123   6.911  25.523   0.985  0.0674 -0.2594 -0.2397
74212W        W17124   5.245  29.257   3.877  0.0790  0.1867  0.1004
74213W        W17125   5.093  27.616   0.501 -0.1621  0.3355  0.2012
74214W        W17126   3.551  29.040   0.561  0.0934 -0.1712 -0.2294
74215W        W17127   3.222  27.973   3.152 -0.2899 -0.2277  0.0967
74216W        W17128   7.070  26.181   3.956  0.3846 -0.0820  0.1555
74217W        W17129   3.414  28.112   3.611  0.0474  0.0310  0.0497
74218W        W17130   2.043  28.699   1.066  0.2741 -0.0441  0.2056
74219W        W17131   5.689  27.685   0.347 -0.0338  0.0649 -0.4667
74220W        W17132   5.557  28.447   1.298  0.0016 -0.1287  0.1517
74221W        W17133   4.594  26.740   3.155 -0.3940  0.1320 -0.2880
74222W        W17134   3.267  26.072   0.571  0.1750  0.3133  0.1524
74223W        W17135   6.502  27.165   2.549  0.1271 -0.0680  0.1279
74224W        W17136   6.398  28.762   0.917  0.0781 -0.1439 -0.5091
74225W        W17137   3.541  27.510   2.230 -0.0276  0.0065 -0.0483
74226W        W17138   8.670  27.125   2.709 -0.1235  0.1305  0.0483
74227W        W17139   4.407  28.513  31.166 -0.2802  0.2027 -0.3448
74228W        W17140   5.910  28.621   2.867 -0.3069 -0.0415 -0.0562
74229W        W17141   4.251  26.709   3.825  0.1366 -0.1412  0.1210
74230W        W17142   4.635  25.356  31.342 -0.3369 -0.2971 -0.1217
74231W        W17143   6.781  25.811   1.460 -0.0472 -0.1870 -0.3006
74232W        W17144   5.543  29.056   0.718  0.2365 -0.0538 -0.3739
74233W        W17145   5.832  29.439   0.896 -0.0111  0.0255 -0.2106
74234W        W17146   4.704  29.680   2.378 -0.0194  0.2768  0.1841
74235W        W17147   5.388  28.660   4.976 -0.0475 -0.2196  0.0653
74236W        W17148   4.477  26.338   4.041  0.2111 -0.3159 -0.3090
74237W        W17149   6.950  26.718   1.389  0.3570 -0.0338 -0.2675
74238W        W17150   4.084  28.782   3.254 -0.0495  0.1093 -0.1031
74239W        W17151   6.051  29.642  31.862 -0.0475 -0.1842  0.1077
74240W        W17152   8.558  27.247   1.771 -0.4153 -0.0909  0.0911
74241W        W17153   5.504  26.722   1.280 -0.1579  0.3256  0.1191
74242W        W17154   4.972  26.204   3.921  0.3306  0.1582 -0.5586
74243W        W17155   3.049  28.500   2.865 -0.0156  0.3733  0.0213
74244W        W17156   7.210  27.836   3.283  0.0748  0.1459  0.0383
74245W        W17157   4.721  26.748   1.587  0.0067 -0.1937 -0.2800
74246W        W17158   5.391  27.199   1.056 -0.2952  0.2520 -0.0532
74247W        W17159   5.268  28.651   0.484 -0.0277  0.0820 -0.2425
74248W        W17160   4.181  28.027   3.017 -0.2335 -0.1660  0.0926
74249W        W17161   6.067  29.022   2.668  0.0453  0.0467 -0.0578
74250W        W17162   5.299  28.409   3.648  0.0907 -0.0640  0.1663
74251W        W17163   6.640  27.533   2.930 -0.1237 -0.0088 -0.2594
74252W        W17164   6.724  28.777   3.313 -0.0028 -0.0240 -0.1905
74253W        W17165   5.160  28.308   0.919 -0.0268 -0.3563  0.2266
74254W        W17166   7.602  27.451   1.556 -0.2168  0.3957  0.2058
74255W        W17167   4.676  29.446   3.867 -0.1416 -0.0689  0.0258
74256W        W17168   7.490  29.182   3.181  0.0220 -0.2996  0.1438
74257W        W17169   6.074  28.747   1.410  0.1643  0.1463  0.1021
74258W        W17170   7.033  28.146   2.238 -0.0177  0.1125  0.0310
74259W        W17171   4.319  26.464   2.767 -0.0526 -0.0107  0.2756
74260W        W17172   3.086  27.253   2.064  0.1430  0.0647 -0.0497
74261W        W17173   4.923  29.583   1.351  0.0403 -0.1007  0.0821
74262W        W17174   6.746  25.582   3.304  0.1570  0.0560 -0.2909
74263W        W17175   5.590  27.049   1.658  0.2013 -0.1740  0.1782
74264W        W17176   5.738  26.029   0.077 -0.0609  0.0838  0.0878
74265W        W17177   4.893  30.481   4.259 -0.0061  0.0408  0.5870
74266W        W17178   6.448  26.571   2.729 -0.1368  0.3085 -0.0751
74267W        W17179   4.346  27.943   6.190  0.1778 -0.0608  0.1306
74268W        W17180   6.078  27.118   4.475 -0.0029 -0.1279  0.0216
74269W        W17181   6.239  25.628   3.643  0.0317  0.1876  0.2386
74270W        W17182   5.915  26.650   4.273  0.3521 -0.0547 -0.1944
74271W        W17183   3.899  25.806   3.971  0.2283  0.0542 -0.3383
74272W        W17184   6.912  29.399   5.156 -0.0289 -0.0675  0.1127
74273W        W17185   4.073  25.045   6.983 -0.1515  0.1890 -0.0183
74274W        W17186   6.766  28.211   6.135 -0.1361  0.2064 -0.2117
74275W        W17187   6.539  28.415   5.662  0.1198  0.0389 -0.3768
74276W        W17188   5.790  27.738   4.005  0.1832 -0.0676  0.0011
74277W        W17189   4.153  26.268   5.674  0.1166 -0.0791  0.1640
74278W        W17190   4.349  28.796   6.241 -0.1409 -0.0591  0.3055
74279W        W17191   5.591  25.641   4.260 -0.3015 -0.2612 -0.0350
74280W        W17192   4.336  25.924   5.398 -0.1303 -0.0952  0.0949
74281W        W17193   6.229  26.609   5.999 -0.0041  0.1916 -0.2585
74282W        W17194   4.748  27.742   4.848 -0.0382 -0.1253 -0.1056
74283W        W17195   4.996  25.919   6.694  0.0116  0.3740 -0.1707
74284W        W17196   5.579  26.967   4.528 -0.0080 -0.0782 -0.0483
74285W        W17197   6.141  29.562   5.697 -0.1096  0.2649  0.0084
74286W        W17198   6.357  26.670   5.484  0.2151  0.0477  0.2702
74287W        W17199   5.790  25.555   6.568  0.3232  0.0156 -0.0500
74288W        W17200   6.966  28.554   5.292 -0.1864 -0.0217 -0.1795
74289W        W17201   4.260  27.328   3.637  0.4586 -0.0944  0.0144
74290W        W17202   3.982  26.529   6.073  0.2330  0.1573 -0.0002
74291W        W17203   4.499  26.803   8.411 -0.1748 -0.0795 -0.1632
74292W        W17204   6.594  27.156   5.452  0.2068 -0.2928 -0.3888
74293W        W17205   7.058  28.118   3.874 -0.1022  0.1659  0.4280
74294W        W17206   4.182  28.804   5.791 -0.1333  0.4852 -0.1746
74295W        W17207   5.365  30.171   6.122 -0.0953 -0.1177 -0.0400
74296W        W17208   6.496  27.373   7.740 -0.0664 -0.0113  0.0037
74297W        W17209   3.934  27.622   4.890  0.0283 -0.0254 -0.1331
74298W        W17210   3.740  27.883   5.989  0.2272 -0.0492  0.0805
74299W        W17211   5.910  27.982   4.461 -0.1437 -0.1324 -0.1136
74300W        W17212   6.602  28.981   5.472 -0.0995 -0.1115  0.0777
74301W        W17213   6.937  27.903   7.298  0.2564 -0.0127  0.3317
74302W        W17214   4.896  29.438   6.673  0.1223  0.0959  0.3336
74303W        W17215   3.992  28.944   4.883  0.3459 -0.0753 -0.1415
74304W        W17216   6.353  29.491   6.988 -0.0689 -0.0982 -0.4865
74305W        W17217   4.066  29.101   6.787 -0.2288  0.1336  0.0122
74306W        W17218   4.609  26.823   6.546  0.0587  0.0944 -0.1391
74307W        W17219   5.178  26.436   6.880 -0.0583 -0.0612  0.0424
74308W        W17220   5.717  28.586   4.348 -0.0091 -0.1916 -0.2000
74309W        W17221   5.604  26.111   4.970  0.1313  0.0020 -0.2436
74310W        W17222   5.464  27.386   8.515  0.0784  0.2875  0.0447
74311W        W17223   4.435  28.964   4.482 -0.5735  0.2871  0.1368
74312W        W17224   6.217  25.286   6.462 -0.2297 -0.0072 -0.1472
74313W        W17225   3.439  29.187   4.516  0.1295 -0.1292  0.0521
74314W        W17226   7.191  28.275   2.975  0.0175 -0.0167 -0.0140
74315W        W17227   5.652  27.956   4.872 -0.2229  0.1566  0.1163
74316W        W17228   7.395  26.356   4.662 -0.0719  0.0958 -0.0736
74317W        W17229   4.938  25.388   5.875  0.3646 -0.1092 -0.2445
74318W        W17230   3.516  29.541   5.748 -0.0204 -0.0182 -0.0196
74319W        W17231   5.419  26.875   7.016 -0.2809 -0.2866 -0.0070
74320W        W17232   6.365  27.036   7.163  0.0123 -0.3323  0.2462
74321W        W17233   6.162  27.551   4.257 -0.2231  0.0561 -0.3124
74322W        W17234   5.337  26.264   7.623  0.1981  0.1899 -0.1420
74323W        W17235   4.113  28.722   7.662  0.2454  0.1038  0.2491
74324W        W17236   2.383  26.953   5.559  0.1957 -0.1376 -0.0454
74325W        W17237   7.487  28.549   3.948 -0.0523 -0.2868 -0.2007
74326W        W17238   7.403  29.374   5.318  0.0530 -0.2650 -0.0218
74327W        W17239   6.633  28.374   4.160 -0.0281 -0.1741  0.0116
74328W        W17240   5.068  26.894   4.436 -0.0911 -0.1019  0.2886
74329W        W17241   3.886  27.492   7.496 -0.0406  0.0655 -0.3952
74330W        W17242   4.288  26.884   7.948  0.0703  0.0239 -0.3164
74331W        W17243   6.017  26.267   4.737  0.0820 -0.0052  0.0855
74332W        W17244   8.009  27.318   7.401 -0.1354  0.1369 -0.0775
74333W        W17245   2.594  29.925   6.905 -0.4547  0.0245  0.1821
74334W        W17246   6.542  26.256   6.152 -0.0532 -0.0633  0.2855
74335W        W17247   6.258  27.426   6.319 -0.1383 -0.0329  0.0862
74336W        W17248   6.910  27.320   6.399  0.2898  0.0668 -0.0480
74337W        W17249   6.439  27.808   3.288 -0.1172  0.1451 -0.1818
74338W        W17250   6.948  24.638   4.874 -0.0179 -0.0165 -0.2331
74339W        W17251   5.721  26.586   6.670  0.0686 -0.1596 -0.2761
74340W        W17252   6.062  27.935   3.596  0.1124 -0.2226  0.5662
74341W        W17253   6.155  28.696   4.076 -0.2053  0.3873 -0.1308
74342W        W17254   7.442  27.964   6.419 -0.0872  0.0756  0.1605
74343W        W17255   6.658  27.051   3.348 -0.1066  0.0357  0.0092
74344W        W17256   3.572  28.647   4.565 -0.1304 -0.1316 -0.1798
74345W        W17257   6.125  26.244   6.911  0.0227 -0.0596  0.1718
74346W        W17258   5.774  27.766   7.445  0.1128  0.0372 -0.2801
74347W        W17259   4.074  30.255   3.136  0.0307  0.0859  0.0724
74348W        W17260   3.664  27.140   7.165  0.3419 -0.1752 -0.2758
74349W        W17261   4.153  27.297   4.587 -0.2338 -0.0217  0.2057
74350W        W17262   3.538  26.920   6.603  0.0117  0.2033  0.0268
74351W        W17263   4.197  28.183   7.928 -0.0789  0.3488 -0.1893
74352W        W17264   7.065  25.446   4.494 -0.2032  0.0591 -0.2259
74353W        W17265   5.671  27.213   7.630 -0.4353 -0.1060  0.1010
74354W        W17266   8.281  26.152   4.248  0.2204 -0.0447 -0.0796
74355W        W17267   5.641  28.175   2.617 -0.0681  0.0460 -0.1398
74356W        W17268   6.683  28.693   6.799  0.2769  0.1012 -0.0315
74357W        W17269   7.083  26.050   5.322  0.1510  0.0233 -0.1324
74358W        W17270   6.926  29.326   4.594  0.0005 -0.2320 -0.0218
74359W        W17271   3.746  25.530   6.287  0.1329  0.2891  0.0890
74360W        W17272   3.531  25.588   5.460 -0.0330 -0.1778  0.2745
74361W        W17273   4.950  26.432   6.440 -0.0054 -0.0784  0.0212
74362W        W17274   4.038  26.045   6.847 -0.0458 -0.1120  0.3020
74363W        W17275   5.402  27.070   8.048  0.2447  0.0659 -0.2112
74364W        W17276   4.771  26.604   4.767 -0.4114  0.1376  0.0449
74365W        W17277   5.261  26.665   5.648  0.0880 -0.1026 -0.0516
74366W        W17278   5.185  27.289   4.739 -0.2088 -0.3188  0.0345
74367W        W17279   2.029  28.161   3.707 -0.1135 -0.0507 -0.0633
74368W        W17280   5.698  25.412   7.454 -0.3445  0.0128  0.0253
74369W        W17281   5.226  29.122   5.905  0.1307 -0.1912  0.0049
74370W        W17282   8.078  28.618   6.863 -0.3432  0.1228  0.1429
74371W        W17283   5.761  27.706   5.275 -0.2788 -0.2164 -0.0687
74372W        W17284   4.581  25.902   6.985  0.2373  0.0200  0.2922
74373W        W17285   5.059  28.053   3.376 -0.0093  0.3468 -0.0658
74374W        W17286   3.592  28.904   6.937 -0.0065  0.1139 -0.0953
74375W        W17287   5.870  28.476   6.100  0.0463  0.0288  0.0906
74376W        W17288   4.991  27.427   4.220  0.2229  0.2676 -0.2049
74377W        W17289   7.080  29.853   5.321  0.2168 -0.0594 -0.2539
74378W        W17290   5.647  27.289   5.003 -0.2999  0.0930  0.1539
74379W        W17291   5.236  27.161   6.144  0.3001 -0.0925  0.0061
74380W        W17292   5.953  25.639   6.090  0.2494  0.4123 -0.1747
74381W        W17293   6.013  27.659   5.808  0.0981 -0.0244  0.3579
74382W        W17294   5.664  27.310   5.616  0.3561 -0.0483  0.3150
74383W        W17295   4.068  26.601   4.650  0.0478  0.0510 -0.4513
74384W        W17296   5.762  29.086   4.953  0.2591 -0.0244  0.1721
74385W        W17297   3.851  29.552   3.573  0.0601 -0.0034  0.2258
74386W        W17298   3.347  27.174   3.900 -0.1063  0.1081  0.0983
74387W        W17299   6.234  28.020   6.123 -0.4131 -0.0874 -0.1468
74388W        W17300   7.693  26.199   5.500  0.1666 -0.2927  0.1549
74389W        W17301   4.817  27.952   7.619 -0.0239  0.0152  0.0256
74390W        W17302   4.916  26.333   7.352 -0.1278 -0.0520  0.1178
74391W        W17303   5.337  27.538   3.188 -0.3772  0.0882  0.0700
74392W        W17304   3.965  29.877   6.411  0.2175 -0.0575  0.0259
74393W        W17305   5.863  26.783   4.897  0.0905  0.0529  0.0047
74394W        W17306   7.696  24.901   3.899 -0.0252  0.3168  0.0917
74395W        W17307   5.824  27.297   6.141  0.0535  0.1675 -0.1212
74396W        W17308   6.269  27.110   4.963 -0.0230 -0.1932 -0.2898
74397W        W17309   6.795  26.491   3.603  0.0035  0.1678  0.0415
74398W        W17310   7.497  25.311   2.720  0.1509 -0.0357 -0.2033
74399W        W17311   4.169  28.189   6.976  0.0440  0.0666 -0.1535
74400W        W17312   6.875  28.055   4.534  0.0357 -0.0622  0.0144
74401W        W17313   5.724  26.867   5.942 -0.1364 -0.0858 -0.0367
74402W        W17314   5.790  27.335   2.975  0.3606  0.3300 -0.1524
74403W        W17315   8.373  27.991   4.921  0.1408  0.1784  0.0689
74404W        W17316   6.055  28.887   6.345 -0.0154  0.1517 -0.1378
74405W        W17317   5.764  27.919   6.922 -0.0324 -0.3522 -0.1031
74406W        W17318   7.255  28.896   5.475 -0.1086 -0.1760 -0.0304
74407W        W17319   6.048  26.909   6.383  0.0246  0.1717 -0.0749
74408W        W17320   5.819  27.439   3.565  0.0277 -0.0951 -0.0499
74409W        W17321   4.696  26.138   5.120  0.0131  0.2355 -0.1505
74410W        W17322   4.244  28.418   1.899  0.0146  0.2350  0.2668
74411W        W17323   6.757  26.307   5.663 -0.1882 -0.0014  0.2402
74412W        W17324   5.238  26.246   5.926  0.1603  0.1252 -0.0544
74413W        W17325   5.723  26.043   6.717 -0.2447 -0.0582  0.1642
74414W        W17326   7.317  27.611   7.803  0.1144 -0.0755  0.2069
74415W        W17327   5.127  27.017   3.809 -0.2217 -0.0960  0.1352
74416W        W17328   6.641  28.188   6.960 -0.2526 -0.1540 -0.0787
74417W        W17329   5.395  28.328   4.630 -0.1868 -0.3142  0.2981
74418W        W17330   5.708  24.860   6.525 -0.3103 -0.3618  0.0830
74419W        W17331   4.796  28.060   6.355 -0.1060  0.0651  0.1258
74420W        W17332   4.428  29.850   6.448 -0.2207 -0.1160  0.2057
74421W        W17333   5.006  28.366   7.823  0.1972  0.0004  0.0587
74422W        W17334   6.088  28.068   5.184 -0.2330  0.0873 -0.1093
74423W        W17335   5.010  26.204   8.181 -0.2198 -0.0623  0.1119
74424W        W17336   5.192  25.777   5.663 -0.0013 -0.4311  0.0593
74425W        W17337   4.942  28.866   5.100 -0.0802 -0.3392  0.2245
74426W        W17338   3.599  29.035   3.328 -0.1730  0.2594 -0.1603
74427W        W17339   4.265  27.086   5.454 -0.0226  0.4727  0.1865
74428W        W17340   5.758  29.415   5.341  0.0360  0.1672 -0.2459
74429W        W17341   5.913  29.144   4.454 -0.0566  0.2722  0.0764
74430W        W17342   6.469  29.135   5.935 -0.0205  0.1100  0.0303
74431W        W17343   3.619  28.591   3.633  0.2773  0.3831  0.2184
74432W        W17344   5.687  26.383   7.157  0.2799  0.1668  0.3033
74433W        W17345   3.885  27.832   4.374  0.0801 -0.0901 -0.2341
74434W        W17346   4.956  28.124   4.545  0.3627  0.2207  0.0134
74435W        W17347   4.382  27.477   5.029 -0.1057 -0.2785 -0.0384
74436W        W17348   5.991  25.232   5.618 -0.0241  0.1466 -0.0305
74437W        W17349   6.501  26.843   4.585  0.0559  0.0211 -0.1786
74438W        W17350   5.163  26.826   7.678 -0.1124  0.1035 -0.1263
74439W        W17351   4.015  26.901   6.387 -0.1807  0.1664  0.2174
74440W        W17352   4.175  29.377   6.367  0.1755  0.0941 -0.1390
74441W        W17353   5.713  26.709   7.660  0.3262 -0.1254 -0.0884
74442W        W17354   6.320  25.876   4.604  0.0334  0.2692  0.1942
74443W        W17355   6.762  28.375   7.447 -0.2812  0.0905 -0.2093
74444W        W17356   5.139  27.504   7.707 -0.2220 -0.3853 -0.0793
74445W        W17357   3.614  27.395   4.451 -0.1038 -0.1004  0.0603
74446W        W17358   5.874  26.960   7.256 -0.3307 -0.0021  0.1140
74447W        W17359   4.870  26.802   6.109 -0.0085  0.1158  0.2555
74448W        W17360   3.752  28.408   6.270  0.3389  0.0713  0.1329
74449W        W17361   5.672  28.732   5.367  0.0814  0.0798  0.1098
74450W        W17362   4.460  28.366   4.620  0.0076  0.1266  0.0215
74451W        W17363   4.810  28.367   5.000 -0.0794 -0.1353 -0.0434
74452W        W17364   4.158  25.644   6.600  0.0028  0.0139 -0.1146
74453W        W17365   5.626  27.065   6.548  0.1561 -0.0241  0.0634
74454W        W17366   4.089  26.205   4.296  0.4443 -0.0626 -0.2042
74455W        W17367   5.161  28.031   4.940  0.0871  0.0106  0.1381
74456W        W17368   4.849  27.039   5.640 -0.0908 -0.0765  0.0778
74457W        W17369   6.367  26.497   6.526 -0.0876  0.2024 -0.2850
74458W        W17370   5.015  27.477   8.396  0.0275 -0.0296  0.2334
74459W        W17371   4.889  29.895   6.296 -0.0963 -0.2275  0.0178
74460W        W17372   6.816  24.776   5.828  0.1344 -0.0036 -0.2079
74461W        W17373   7.148  28.906   4.084 -0.0370  0.0034 -0.1634
74462W        W17374   5.728  27.683   6.473 -0.0601  0.0392 -0.0146
74463W        W17375   3.946  28.154   4.889 -0.1165  0.0378 -0.2791
74464W        W17376   5.364  27.420   3.647  0.0703 -0.4366 -0.1378
74465W        W17377   5.147  27.475   5.726 -0.0558 -0.1545  0.1557
74466W        W17378   5.391  25.512   6.993 -0.1831  0.2352 -0.0951
74467W        W17379   3.748  29.104   5.774 -0.2778  0.0604 -0.1162
74468W        W17380   3.362  28.016   4.132 -0.0608 -0.0232 -0.2031
74469W        W17381   5.952  29.259   6.697  0.3091  0.0514  0.0967
74470W        W17382   6.359  26.337   3.932 -0.3012  0.3631 -0.0360
74471W        W17383   5.358  29.497   4.510  0.1083  0.1050  0.1550
74472W        W17384   5.200  26.815   4.878  0.2849  0.1592  0.0100
74473W        W17385   6.950  25.302   5.842 -0.0782  0.1700 -0.0574
74474W        W17386   4.943  28.782   3.670 -0.3439  0.0387  0.0957
74475W        W17387   6.557  26.050   6.665 -0.2178 -0.2140 -0.0709
74476W        W17388   4.511  26.363   6.952 -0.2325  0.0499  0.2740
74477W        W17389   6.560  28.179   5.206  0.1340  0.1081  0.2201
74478W        W17390   4.644  25.439   7.470 -0.1796  0.1216  0.0043
74479W        W17391   4.526  28.519   7.788  0.0481  0.3307 -0.0318
74480W        W17392   4.168  29.098   8.040  0.0018 -0.0366 -0.2645
74481W        W17393   5.449  26.696   4.089  0.0945  0.1183 -0.2439
74482W        W17394   4.993  27.251   3.302 -0.1837  0.4731 -0.3208
74483W        W17395   6.378  28.312   6.576  0.0715  0.1390 -0.1165
74484W        W17396   7.200  28.984   4.946  0.0270  0.0550 -0.2177
74485W        W17397   4.940  27.484   6.501 -0.2017  0.1154  0.1030
74486W        W17398   6.428  26.503   4.977 -0.0966 -0.0176  0.0764
74487W        W17399   4.841  28.631   6.310 -0.1855  0.0036 -0.0537
74488W        W17400   6.839  27.748   3.671  0.0535  0.1614  0.0672
74489W        W17401   5.557  27.896   3.573 -0.1612  0.0338 -0.0793
74490W        W17402   4.382  28.100   4.018  0.4030 -0.0854  0.1190
74491W        W17403   5.300  25.076   6.746  0.1073 -0.2447 -0.1968
74492W        W17404   6.234  27.495   5.363 -0.1758  0.2915  0.2571
74493W        W17405   5.725  26.394   6.177  0.1104 -0.3242 -0.0754
74494W        W17406   6.129  26.773   6.857 -0.2860 -0.0594 -0.3197
74495W        W17407   6.112  27.427   7.346  0.1506  0.1488 -0.4454
74496W        W17408   4.169  25.782   7.305 -0.2663  0.1556  0.2638
74497W        W17409   5.317  27.379   6.811  0.2703 -0.2934  0.1813
74498W        W17410   5.988  27.714   7.870 -0.4075 -0.0128  0.0201
74499W        W17411   7.504  27.015   3.518 -0.1858  0.1824 -0.0587
74500W        W17412   8.148  25.990   5.392 -0.1032 -0.1955  0.1633
74501W        W17413   7.358  25.948   4.421 -0.1801  0.1516  0.2511
74502W        W17414   7.137  27.401   2.883  0.3466 -0.0187 -0.2263
74503W        W17415   4.920  26.649   5.313 -0.0738  0.0679 -0.0137
74504W        W17416   7.361  27.861   7.055 -0.0432  0.0763  0.2052
74505W        W17417   4.045  27.075   3.994 -0.4603 -0.0535 -0.2038
74506W        W17418   6.226  26.503   7.888  0.2148  0.0503  0.0351
74507W        W17419   5.119  28.641   5.755 -0.0832  0.0567  0.0535
74508W        W17420   7.287  27.856   5.363  0.0564  0.0694  0.2779
74509W        W17421   6.696  25.512   4.907  0.0669 -0.0588  0.0187
74510W        W17422   3.971  27.256   6.754 -0.0343 -0.1168 -0.1873
74511W        W17423   4.087  29.695   6.864  0.0198  0.2874 -0.0077
74512W        W17424   4.056  26.437   3.372  0.1668  0.0961 -0.0496
74513W        W17425   5.373  29.552   2.755  0.1481 -0.1896 -0.0513
74514W        W17426   7.112  29.339   7.151  0.1245  0.2430 -0.3454
74515W        W17427   6.549  27.441   5.949  0.1701  0.2276  0.0547
74516W        W17428   5.466  26.147   3.981 -0.0425  0.1561  0.2806
74517W        W17429   7.026  26.672   6.930 -0.1195  0.1540 -0.0880
74518W        W17430   3.465  28.965   4.947  0.2176 -0.1618 -0.0806
74519W        W17431   6.167  25.808   5.070  0.1922  0.2785 -0.1031
74520W        W17432   4.485  29.082   5.328  0.2563 -0.0918 -0.3166
74521W        W17433   4.405  28.717   6.927 -0.0812 -0.2599  0.0601
74522W        W17434   4.058  28.503   5.212  0.4088  0.0163 -0.1180
74523W        W17435   6.023  26.198   7.542 -0.0442 -0.1776 -0.2765
74524W        W17436   5.234  26.253   5.362  0.1293 -0.1430  0.2141
74525W        W17437   5.377  26.704   6.267 -0.1156  0.0123  0.2382
74526W        W17438   5.985  27.026   5.351  0.1094  0.2639 -0.0981
74527W        W17439   6.384  28.551   6.131 -0.1019 -0.2554  0.2626
74528W        W17440   5.176  27.866   6.621  0.2916  0.1543 -0.1228
74529W        W17441   6.713  29.535   6.691 -0.3128 -0.4471 -0.0395
74530W        W17442   7.114  26.814   6.437  0.1597 -0.0303  0.1496
74531W        W17443   3.315  28.928   5.478 -0.1409 -0.0008 -0.0168
74532W        W17444   2.933  27.779   7.368 -0.1646  0.1488 -0.2007
74533W        W17445   5.852  28.218   7.791  0.0968  0.2463 -0.0392
74534W        W17446   5.208  27.584   5.203 -0.0973  0.2159 -0.0395
74535W        W17447   5.303  26.001   4.526  0.0983 -0.0852  0.0662
74536W        W17448   5.626  28.214   5.297 -0.0977 -0.5879  0.2777
74537W        W17449   5.010  28.514   7.204 -0.0893  0.1159  0.1000
74538W        W17450   2.971  26.949   7.004 -0.1451 -0.1322  0.1574
74539W        W17451   3.222  29.057   3.739  0.3313 -0.1387 -0.1357
74540W        W17452   6.229  28.394   4.577 -0.2134  0.0978 -0.4015
74541W        W17453   5.388  28.688   6.250  0.1228  0.1371  0.0273
74542W        W17454   5.691  29.525   5.855 -0.0514 -0.0288  0.1317
74543W        W17455   5.841  26.478   3.840  0.2103 -0.0632  0.0453
74544W        W17456   4.719  28.896   5.838 -0.0885  0.1012  0.1090
74545W        W17457   3.509  28.499   4.116 -0.0459  0.1042 -0.3575
74546W        W17458   5.308  29.228   4.971 -0.0014 -0.1595 -0.1142
74547W        W17459   3.113  28.672   4.762 -0.0163 -0.0467 -0.1265
74548W        W17460   6.344  27.465   6.815  0.2660  0.0609 -0.1768
74549W        W17461   7.194  24.443   2.962  0.0771 -0.0745 -0.1271
74550W        W17462   6.873  26.751   5.231  0.5033  0.0155 -0.0137
74551W        W17463   7.962  27.148   3.381  0.0012 -0.1311 -0.1892
74552W        W17464   5.799  28.266   7.331 -0.0063 -0.2494 -0.0850
74553W        W17465   4.302  27.359   6.403  0.1401  0.0599 -0.0924
74554W        W17466   5.101  26.251   4.902 -0.0710 -0.1535 -0.2737
74555W        W17467   4.028  26.916   7.517 -0.3603 -0.2128 -0.0086
74556W        W17468   7.211  24.550   6.728 -0.0607  0.1213  0.1485
74557W        W17469   2.693  29.415   7.108  0.0338 -0.1174 -0.5957
74558W        W17470   7.780  29.137   4.912  0.0883 -0.1548  0.0777
74559W        W17471   4.438  26.788   4.377 -0.2993  0.0752  0.1090
74560W        W17472   5.686  27.987   6.073 -0.0203 -0.2414  0.1159
74561W        W17473   7.509  26.892   6.760  0.0241  0.2565 -0.1598
74562W        W17474   5.881  28.619   4.847 -0.2549  0.0111  0.1389
74563W        W17475   6.067  26.249   5.253  0.2705  0.0205  0.0893
74564W        W17476   5.588  29.184   6.277 -0.0842 -0.1244  0.1030
74565W        W17477   3.838  29.453   4.902 -0.1376 -0.0527  0.0120
74566W        W17478   4.260  29.279   5.838 -0.2925  0.1798 -0.1849
74567W        W17479   3.132  25.720   3.622 -0.4093 -0.0179 -0.0101
74568W        W17480   7.885  27.156   4.301 -0.1596  0.0252 -0.0098
74569W        W17481   4.972  25.913   6.183  0.1475  0.1632  0.1231
74570W        W17482   6.418  25.167   6.019  0.1866  0.0969  0.2038
74571W        W17483   3.554  28.133   4.570 -0.3751 -0.1000 -0.1953
74572W        W17484   6.082  26.040   6.326 -0.1743  0.0164 -0.0553
74573W        W17485   5.566  28.431   5.760 -0.2229  0.0975 -0.0555
74574W        W17486   3.180  25.694   6.306 -0.2725 -0.0933 -0.2179
74575W        W17487   6.078  27.160   3.943  0.1377 -0.2626 -0.1853
74576W        W17488   7.420  27.256   6.455  0.6063 -0.1842 -0.0757
74577W        W17489   4.760  27.294   2.303 -0.2487 -0.1601 -0.1311
74578W        W17490   6.691  29.807   7.796  0.0806  0.0057 -0.0755
74579W        W17491   3.776  26.043   5.288 -0.2476  0.2374 -0.2811
74580W        W17492   6.483  27.437   4.607  0.3139  0.5755 -0.1204
74581W        W17493   4.200  27.586   4.116 -0.1695  0.1365  0.4582
74582W        W17494   4.393  25.432   6.965  0.0413  0.2287  0.0840
74583W        W17495   7.798  29.200   7.123 -0.0885 -0.0449 -0.1553
74584W        W17496   4.344  26.456   5.155  0.1447 -0.2077  0.0339
74585W        W17497   7.437  28.196   3.564  0.2985  0.0072  0.0215
74586W        W17498   6.936  26.787   5.827 -0.1342 -0.0161 -0.0215
74587W        W17499   6.457  30.122   3.889  0.1820 -0.1535  0.3660
74588W        W17500   7.279  28.692   3.414 -0.2889  0.1077  0.2063
74589W        W17501   8.562  28.960   5.566  0.2300 -0.3037 -0.3550
74590W        W17502   3.096  27.160   4.602 -0.0527 -0.6590 -0.4501
74591W        W17503   6.976  28.064   6.602  0.1875 -0.2561 -0.0306
74592W        W17504   6.529  26.973   6.243  0.0746 -0.0200  0.1442
74593W        W17505   5.061  25.788   4.998 -0.4338  0.2594 -0.0470
74594W        W17506   4.637  28.507   5.467 -0.0656 -0.2105 -0.1574
74595W        W17507   3.356  29.795   6.165  0.2482  0.0100 -0.0810
74596W        W17508   6.701  26.081   4.964  0.2831  0.3483  0.0947
74597W        W17509   6.497  26.062   7.216 -0.3368  0.1080  0.0585
74598W        W17510   4.424  30.118   3.940  0.0884 -0.1215 -0.1637
74599W        W17511   6.423  25.243   6.897 -0.2994  0.1702  0.1293
74600W        W17512   5.693  29.662   6.455 -0.0291  0.1932  0.1375
74601W        W17513   6.105  29.409   6.250 -0.2160 -0.1739 -0.0921
74602W        W17514   4.679  26.984   3.640  0.5443 -0.1737 -0.0062
74603W        W17515   5.794  28.740   7.212  0.2110  0.0344  0.2621
74604W        W17516   3.794  28.921   5.330  0.1326  0.2004 -0.0363
74605W        W17517   6.217  29.175   4.965 -0.0523 -0.3416  0.0513
74606W        W17518   6.987  28.069   4.999 -0.2100  0.1629 -0.0450
74607W        W17519   7.825  26.091   5.044 -0.0309  0.3421  0.0276
74608W        W17520   6.618  27.712   4.967 -0.2564 -0.3093  0.0607
74609W        W17521   5.363  26.014   7.086  0.2734 -0.0593  0.1964
74610W        W17522   7.252  26.623   3.757 -0.2472 -0.0528 -0.0920
74611W        W17523   7.215  26.730   4.224 -0.0773 -0.2517 -0.0115
74612W        W17524   4.566  26.951   7.523  0.0075 -0.2775  0.3127
74613W        W17525   2.371  27.019   3.736 -0.1694 -0.0855  0.0523
74614W        W17526   5.567  28.834   3.928 -0.1466  0.3192  0.0304
74615W        W17527   4.397  28.107   5.121  0.1567  0.2377  0.1088
74616W        W17528   5.880  25.133   6.090 -0.0576 -0.4426  0.1630
74617W        W17529   5.586  27.196   9.577  0.1730 -0.0029  0.1418
74618W        W17530   4.675  27.780   4.336 -0.2994  0.0123  0.0533
74619W        W17531   4.686  27.230   4.658 -0.0566 -0.0409  0.1449
74620W        W17532   7.122  28.414   4.253 -0.2048  0.0961 -0.0392
74621W        W17533   5.172  25.351   5.452  0.1045  0.1480  0.1903
74622W        W17534   3.795  26.652   5.168 -0.1009  0.1870 -0.2641
74623W        W17535   5.338  27.655   6.126 -0.4482 -0.0451  0.1057
74624W        W17536   6.956  26.674   4.690  0.0122  0.2607 -0.5213
74625W        W17537   5.262  25.856   3.083  0.0609  0.2023 -0.1998
74626W        W17538   7.459  29.392   6.780  0.0377  0.1254  0.1990
74627W        W17539   3.069  28.442   3.878 -0.0182 -0.0523  0.0457
74628W        W17540   4.968  25.788   7.241 -0.2100  0.3783 -0.0508
74629W        W17541   5.572  25.015   7.119  0.0243 -0.1435 -0.2603
74630W        W17542   3.786  24.761   2.790 -0.2745 -0.2070  0.3594
74631W        W17543   4.739  26.531   7.816 -0.0525 -0.0562  0.2137
74632W        W17544   5.198  28.266   6.039 -0.3458  0.0239  0.2255
74633W        W17545   6.440  28.805   4.535 -0.1530  0.1832  0.1388
74634W        W17546   4.139  28.298   5.939 -0.0385 -0.0314 -0.2163
74635W        W17547   6.747  29.500   6.199  0.5490 -0.2309  0.0600
74636W        W17548   4.008  25.330   7.347  0.0467 -0.3386 -0.0257
74637W        W17549   5.281  27.759   4.458 -0.0463 -0.1430  0.0081
74638W        W17550   5.772  28.194   6.497 -0.0846 -0.4521 -0.0834
74639W        W17551   6.396  27.520   3.701 -0.1981  0.1386 -0.1705
74640W        W17552   8.318  27.427   6.065 -0.2375  0.1955  0.0096
74641W        W17553   6.451  26.851   3.806  0.3655  0.2139 -0.0871
74642W        W17554   4.384  26.551   7.360 -0.0828 -0.0833  0.2206
74643W        W17555   5.341  28.089   7.210  0.0905  0.3368  0.0399
74644W        W17556   7.262  26.252   5.854 -0.1627  0.0910 -0.0102
74645W        W17557   5.198  25.262   4.970 -0.1575  0.2180  0.1786
74646W        W17558   6.322  25.377   5.209  0.0722 -0.1227 -0.1362
74647W        W17559   6.402  27.902   4.567 -0.0800 -0.1252 -0.2195
74648W        W17560   4.600  27.232   6.795  0.3746 -0.2664  0.0056
74649W        W17561   6.729  26.622   4.110  0.1375 -0.2011 -0.1137
74650W        W17562   5.378  27.525   7.299 -0.0695  0.1067 -0.1641
74651W        W17563   7.581  27.612   4.799 -0.0858  0.0322  0.1104
74652W        W17564   6.565  27.823   6.448  0.2305 -0.0981 -0.1543
74653W        W17565   5.689  27.554   4.568 -0.1631  0.1687  0.0160
74654W        W17566   6.536  27.195   4.179  0.1048  0.0578  0.3218
74655W        W17567   6.542  28.806   7.577 -0.3152  0.1835 -0.2728
74656W        W17568   6.832  27.739   7.758 -0.1339 -0.0841 -0.1770
74657W        W17569   4.534  29.156   6.583 -0.2259 -0.0456  0.0221
74658W        W17570   6.172  27.084   5.793 -0.1277 -0.1597 -0.0483
74659W        W17571   4.566  26.357   6.086 -0.2030  0.1159 -0.0296
74660W        W17572   5.336  27.956   5.589  0.0515 -0.0806  0.0364
74661W        W17573   5.109  26.939   6.618 -0.0670  0.1115  0.3035
74662W        W17574   6.797  27.203   4.927  0.1644  0.0222 -0.0217
74663W        W17575   4.700  27.425   6.079 -0.0653  0.1304  0.1737
74664W        W17576   6.948  27.139   4.415 -0.2018  0.2270 -0.0211
74665W        W17577   4.872  29.177   7.176 -0.2651  0.0840  0.1130
74666W        W17578   6.933  28.057   5.660 -0.1038 -0.2676  0.1350
74667W        W17579   5.734  27.203  10.090 -0.0634 -0.1221  0.0563
74668W        W17580   4.607  25.722   9.436  0.1249  0.1002 -0.1200
74669W        W17581   6.143  27.871   6.635  0.0123  0.2191  0.1808
74670W        W17582   7.545  27.974   8.569 -0.3444 -0.1652 -0.2165
74671W        W17583   3.964  25.511   8.625 -0.2141  0.1797 -0.1073
74672W        W17584   7.628  28.961   7.554  0.2051  0.4702  0.1436
74673W        W17585   6.742  27.394   9.977  0.2051 -0.1246  0.0850
74674W        W17586   5.996  28.355   6.903 -0.2292 -0.3906  0.1668
74675W        W17587   2.058  26.324  10.035 -0.3023 -0.1325  0.1137
74676W        W17588   4.676  25.521   6.496 -0.1641 -0.0592 -0.0669
74677W        W17589   2.938  25.222   8.542 -0.1356 -0.2174 -0.2088
74678W        W17590   6.432  27.470   9.510  0.0563 -0.2598  0.1961
74679W        W17591   3.256  28.002   8.763 -0.3269  0.0972  0.1072
74680W        W17592   2.269  25.944  10.303 -0.0238  0.1108 -0.0259
74681W        W17593   5.134  25.151   8.117 -0.1829 -0.1561  0.4475
74682W        W17594   5.786  29.136   9.257 -0.1086 -0.3548 -0.1855
74683W        W17595   2.544  23.928   9.832  0.1251 -0.1060  0.0783
74684W        W17596   5.422  29.317   6.781 -0.1501  0.1536 -0.3153
74685W        W17597   3.705  25.628   8.229 -0.2830 -0.0753  0.1371
74686W        W17598   3.200  27.947   9.494  0.0259  0.1637 -0.3625
74687W        W17599   3.346  28.454   9.789 -0.1506 -0.0378  0.0750
74688W        W17600   6.316  25.766   8.663  0.1128  0.0531 -0.0617
74689W        W17601   6.878  27.245   9.555 -0.3210 -0.1200  0.0770
74690W        W17602   5.325  30.569   8.720 -0.4928 -0.0356 -0.0826
74691W        W17603   6.680  28.087  10.066  0.1361 -0.3878 -0.4090
74692W        W17604   3.900  27.376   8.512  0.0211 -0.1700 -0.0810
74693W        W17605   3.388  28.128   7.927 -0.2773 -0.1677 -0.1511
74694W        W17606   4.792  29.677   8.110 -0.2362  0.2797  0.0302
74695W        W17607   7.166  28.778   9.169 -0.2098  0.6596  0.1058
74696W        W17608   3.997  27.672   7.015 -0.1046  0.0035  0.2926
74697W        W17609   6.810  24.920  10.075  0.1605  0.0525 -0.2208
74698W        W17610   5.435  26.852   8.630 -0.0130  0.0146  0.4429
74699W        W17611   5.983  28.653   7.666 -0.0222 -0.0041 -0.1296
74700W        W17612   5.875  28.677   8.748 -0.2660 -0.0446  0.0147
74701W        W17613   3.333  28.391   9.253 -0.4809 -0.1167 -0.0763
74702W        W17614   3.452  28.797   7.482 -0.1029 -0.3622  0.0512
74703W        W17615   5.852  25.893   7.241 -0.2035 -0.1349  0.3315
74704W        W17616   5.378  25.769   7.532  0.1484 -0.0907 -0.3192
74705W        W17617   4.778  27.044   8.108  0.0251 -0.4639 -0.0378
74706W        W17618   5.721  24.899   8.611  0.2352 -0.0180 -0.0849
74707W        W17619   4.817  28.799   8.608 -0.1544 -0.1290  0.0946
74708W        W17620   4.547  26.306   8.547 -0.0445 -0.1630  0.1539
74709W        W17621   4.896  27.984   8.547  0.3260  0.0386 -0.0681
74710W        W17622   7.540  26.139   9.717  0.1252 -0.0178 -0.0726
74711W        W17623   4.543  27.623   8.743  0.0896  0.1513 -0.0257
74712W        W17624   4.170  25.275   9.157 -0.1399 -0.0509  0.1524
74713W        W17625   5.481  28.452   6.937 -0.1174  0.0438 -0.2634
74714W        W17626   6.397  28.604   8.038 -0.0001  0.0829 -0.0100
74715W        W17627   5.475  28.290   8.058 -0.0606 -0.2107 -0.2239
74716W        W17628   3.968  26.036   8.174 -0.0746 -0.3568 -0.1626
74717W        W17629   3.925  25.142   5.834 -0.0033 -0.5239  0.0402
74718W        W17630   7.074  27.058   9.126  0.2343  0.1132  0.0087
74719W        W17631   3.446  26.743   9.076  0.0247  0.0435  0.0362
74720W        W17632   5.188  28.592   9.819 -0.2639 -0.1090 -0.1271
74721W        W17633   6.665  27.038   6.784 -0.3138  0.3716  0.1625
74722W        W17634   6.143  26.335   9.965  0.1862 -0.2938  0.3438
74723W        W17635   5.366  24.655  11.422 -0.3667  0.0344  0.2456
74724W        W17636   4.280  27.302   7.211  0.0602  0.0950  0.0893
74725W        W17637   5.425  27.708   9.761  0.0528  0.0968 -0.0816
74726W        W17638   4.296  28.829   9.485 -0.0659  0.0171 -0.3129
74727W        W17639   7.908  26.612   6.654  0.2858 -0.2999 -0.2445
74728W        W17640   4.300  27.887   8.403 -0.1588 -0.1923 -0.0269
74729W        W17641   4.840  28.199   6.862  0.1976  0.2252 -0.0715
74730W        W17642   2.279  28.520   9.690  0.0327  0.2257 -0.0542
74731W        W17643   4.681  27.585   8.052 -0.0614 -0.1904  0.1386
74732W        W17644   3.335  24.445   9.368  0.0594  0.2307  0.0952
74733W        W17645   4.760  27.117   9.326  0.3765 -0.0470  0.0752
74734W        W17646   5.933  27.009   8.539 -0.0844  0.1359 -0.0172
74735W        W17647   6.717  25.324   7.258  0.1250 -0.1619 -0.2453
74736W        W17648   3.877  28.403   9.250 -0.1616  0.0033 -0.0176
74737W        W17649   5.303  28.450   9.343  0.0310 -0.2852  0.1994
74738W        W17650   6.920  27.432   8.171  0.0655  0.3506  0.0631
74739W        W17651   6.809  28.287   7.929  0.0710  0.1814 -0.1520
74740W        W17652   3.615  27.959   9.106  0.6008 -0.1985 -0.2308
74741W        W17653   3.504  25.715   8.650  0.3935  0.2177  0.0528
74742W        W17654   4.002  27.516   8.983 -0.2802 -0.3187 -0.0501
74743W        W17655   3.563  26.426   7.663  0.3618  0.3324 -0.3967
74744W        W17656   6.305  26.168   8.960 -0.0211 -0.0997 -0.1703
74745W        W17657   5.004  26.619   8.444 -0.1615 -0.4306 -0.1013
74746W        W17658   2.651  27.984   8.615 -0.1610  0.0822 -0.1066
74747W        W17659   5.576  28.977   7.675 -0.3595  0.0555  0.0179
74748W        W17660   4.533  25.817  10.513 -0.0886 -0.0392  0.0800
74749W        W17661   5.837  28.585   9.240  0.0024 -0.0184  0.3116
74750W        W17662   3.360  27.263   9.313 -0.1236  0.1570 -0.1315
74751W        W17663   5.804  26.303   8.053  0.0504  0.1443  0.2562
74752W        W17664   2.844  28.496   8.111  0.0181  0.0430 -0.0337
74753W        W17665   4.904  27.840  10.040  0.0908 -0.0781  0.0386
74754W        W17666   4.003  25.200   8.155  0.3133  0.1377  0.2071
74755W        W17667   6.365  28.910   9.031  0.0008 -0.1646  0.1064
74756W        W17668   4.950  28.122   9.110  0.3389  0.1390 -0.1311
74757W        W17669   7.301  23.652   9.634  0.1561  0.2222 -0.3059
74758W        W17670   5.840  26.457   8.742  0.0868 -0.1714  0.2486
74759W        W17671   3.781  26.104   7.316  0.3481 -0.1892 -0.2294
74760W        W17672   4.919  28.633   9.068  0.2712 -0.2003 -0.0052
74761W        W17673   4.143  29.017   8.557 -0.0368 -0.0020 -0.0165
74762W        W17674   2.208  28.209   8.575 -0.0988 -0.0804 -0.0184
74763W        W17675   5.099  29.255   8.072 -0.0328 -0.3929  0.2421
74764W        W17676   5.862  25.946   9.960 -0.1159  0.1189 -0.1620
74765W        W17677   4.325  26.375   8.117  0.1906 -0.1305  0.1835
74766W        W17678   5.955  24.439   8.531  0.3075 -0.0534 -0.0103
74767W        W17679   6.540  27.008   9.240  0.2456  0.0411 -0.0617
74768W        W17680   5.386  28.466   7.548  0.0698 -0.0728  0.0109
74769W        W17681   5.884  26.343   9.275 -0.3170  0.2510  0.0334
74770W        W17682   5.832  25.777   8.318  0.0662  0.2667 -0.0122
74771W        W17683   4.113  30.007   8.198  0.0678 -0.1891  0.0216
74772W        W17684   7.199  28.203   9.861  0.1764 -0.2226 -0.1449
74773W        W17685   4.620  28.358   8.729  0.0248 -0.1445  0.0672
74774W        W17686   7.152  28.817   8.598  0.1716  0.2333  0.3390
74775W        W17687   3.792  27.902   8.662 -0.0672  0.1474 -0.0144
74776W        W17688   5.402  27.921   8.473  0.1568  0.0285  0.0996
74777W        W17689   5.831  23.245   9.601 -0.1602  0.0817 -0.0442
74778W        W17690   5.965  27.594   8.465  0.1609  0.4919 -0.3269
74779W        W17691   6.611  25.199   9.446  0.2289 -0.1227  0.1933
74780W        W17692   3.464  27.669   7.105 -0.0148  0.1633  0.1293
74781W        W17693   4.905  26.094  10.269  0.2083  0.0470 -0.0964
74782W        W17694   3.585  25.823   9.724 -0.4031  0.0356 -0.1258
74783W        W17695   6.144  26.754   8.976 -0.3111 -0.1460 -0.1217
74784W        W17696   4.788  27.012   9.848 -0.1673 -0.2124  0.0533
74785W        W17697   5.009  27.130   7.286  0.1409 -0.1650  0.2674
74786W        W17698   5.421  26.070  10.192 -0.1473  0.1094 -0.1293
74787W        W17699   0.418  29.056   9.776 -0.1218 -0.1790 -0.0279
74788W        W17700   6.014  27.104   9.369 -0.0928  0.0275  0.0700
74789W        W17701   4.734  25.417   8.009  0.1068  0.1195  0.3236
74790W        W17702   5.001  28.839   7.600 -0.0663 -0.2261 -0.1104
74791W        W17703   4.669  28.165   8.148  0.0304  0.0456 -0.1976
74792W        W17704   6.114  25.129   9.268 -0.2107 -0.1087 -0.0456
74793W        W17705   5.901  28.398   9.812 -0.2448  0.2373  0.0746
74794W        W17706   5.591  28.876   6.693 -0.1494 -0.0705  0.2873
74795W        W17707   5.962  24.303   9.730 -0.2903  0.1380  0.0159
74796W        W17708   4.493  28.607   8.322  0.2604  0.2702  0.0261
74797W        W17709   6.633  26.148   8.505 -0.0445  0.0159 -0.0111
74798W        W17710   2.460  28.126   9.480 -0.1915  0.1410  0.2731
74799W        W17711   4.516  25.876   8.005 -0.0071 -0.1198 -0.0891
74800W        W17712   2.532  26.301   7.853 -0.1383 -0.0465  0.2173
74801W        W17713   6.281  26.609   9.434  0.0896  0.0081  0.2067
74802W        W17714   6.581  27.521   7.284  0.2020  0.0809  0.3844
74803W        W17715   6.477  24.549  10.243  0.0587  0.2568  0.3460
74804W        W17716   5.033  26.805   9.056  0.1500  0.3252 -0.0902
74805W        W17717   2.356  29.574   8.236 -0.3233 -0.0531  0.0897
74806W        W17718   4.921  25.762   7.755 -0.0772  0.2347 -0.1488
74807W        W17719   2.640  26.529   7.412 -0.3422  0.1497  0.4776
74808W        W17720   7.932  25.826   9.101 -0.1231 -0.0152  0.3475
74809W        W17721   4.370  25.759   8.935 -0.1755 -0.0765 -0.0437
74810W        W17722   2.525  28.145   8.131 -0.3831 -0.2748 -0.1582
74811W        W17723   4.143  28.432   8.683 -0.0611 -0.1821 -0.3399
74812W        W17724   4.243  26.250   9.169 -0.1297  0.0679  0.0381
74813W        W17725   3.343  28.504   8.301  0.3435 -0.1472 -0.2663
74814W        W17726   5.451  24.459  10.122 -0.1730  0.0102 -0.0012
74815W        W17727   3.337  26.719   8.036  0.0109 -0.1123 -0.1326
74816W        W17728   3.841  25.010   8.755  0.1123 -0.0761  0.1360
74817W        W17729   5.289  27.230   9.182 -0.0902  0.1167 -0.1845
74818W        W17730   8.630  26.518  10.031  0.3045 -0.1765 -0.0216
74819W        W17731   4.952  25.716   9.811  0.2482 -0.0807 -0.0966
74820W        W17732   7.710  24.053   9.348  0.2187 -0.0686 -0.2323
74821W        W17733   8.022  28.412   8.158 -0.0118 -0.0155 -0.0719
74822W        W17734   3.904  27.186   7.996  0.0173  0.2317  0.1088
74823W        W17735   4.195  28.309   9.625 -0.1382  0.1518 -0.0634
74824W        W17736   5.038  28.408   8.349  0.0044 -0.2559  0.2181
74825W        W17737   3.248  26.819   9.521 -0.2255 -0.1310 -0.3450
74826W        W17738   1.699  29.501  10.293 -0.0522  0.1911  0.1851
74827W        W17739   3.780  28.177   8.257 -0.3169  0.0940  0.0306
74828W        W17740   3.361  27.254   7.960 -0.2672  0.0183  0.0957
74829W        W17741   6.467  26.059   7.694  0.1730 -0.1870 -0.0544
74830W        W17742   5.547  27.565   8.014 -0.0820 -0.3944  0.0526
74831W        W17743   5.488  26.250   8.413  0.0705  0.0165  0.1681
74832W        W17744   6.727  27.019   8.704 -0.0679  0.0601  0.1087
74833W        W17745   3.813  25.188   9.996 -0.1316  0.0902 -0.0891
74834W        W17746   5.935  27.517   9.742  0.2331  0.0215 -0.2889
74835W        W17747   4.102  26.193   7.685 -0.2556 -0.3170 -0.1247
74836W        W17748   3.667  24.622   5.883  0.3007 -0.1514  0.1856
74837W        W17749   5.129  27.664   8.875  0.0751  0.0348 -0.1424
74838W        W17750   4.545  26.188   9.652 -0.0871  0.0611 -0.0342
74839W        W17751   5.101  27.885   8.061  0.1029  0.1262  0.1554
74840W        W17752   6.292  26.601   8.524 -0.0572  0.1898  0.1498
74841W        W17753   5.777  28.016   9.363  0.0607  0.1892  0.2858
74842W        W17754   5.810  27.791   8.905  0.1148 -0.1520  0.1182
74843W        W17755   6.208  27.851   7.137 -0.2423 -0.0442 -0.2886
74844W        W17756   4.930  25.823   8.974  0.1412 -0.1254 -0.0273
74845W        W17757   5.391  27.698   9.277 -0.3633  0.0446 -0.2315
74846W        W17758   5.751  25.470   8.902  0.1609 -0.2959 -0.0264
74847W        W17759   5.530  28.250   8.942 -0.1291 -0.0521 -0.0218
74848W        W17760   7.046  27.427   7.449 -0.1252 -0.0571 -0.1551
74849W        W17761   7.081  26.313   9.686 -0.1282 -0.1419 -0.1234
74850W        W17762   8.080  27.477   9.422  0.1401 -0.1174  0.1173
74851W        W17763   5.960  27.295   8.077  0.0408  0.1792  0.0033
74852W        W17764   3.124  25.528   8.868 -0.0581  0.6473  0.0915
74853W        W17765   3.708  26.427   8.408  0.1077  0.0028 -0.0993
74854W        W17766   6.150  30.069   9.394 -0.0928  0.0313 -0.2459
74855W        W17767   5.821  26.714   9.730 -0.1247  0.1666  0.1001
74856W        W17768   6.427  25.859   8.167 -0.0766 -0.1784  0.1657
74857W        W17769   3.524  25.660   7.341 -0.0852 -0.0110 -0.1429
74858W        W17770   2.954  25.923   6.793 -0.1700  0.0133  0.0170
74859W        W17771   4.131  26.077   8.634 -0.0367  0.3386  0.3473
74860W        W17772   3.826  28.278  10.035  0.1049  0.0581  0.0790
74861W        W17773   4.281  25.186   7.743 -0.0465 -0.0181 -0.1953
74862W        W17774   4.014  28.623   8.265  0.0168 -0.2002 -0.4843
74863W        W17775   6.761  25.735   9.494  0.2418 -0.0633  0.0380
74864W        W17776   4.431  28.752   8.915  0.2233 -0.0129 -0.0896
74865W        W17777   3.906  29.116   7.297 -0.3829  0.0736  0.1262
74866W        W17778   5.378  25.091   9.895  0.2623  0.0882 -0.1030
74867W        W17779   5.510  26.258   9.780 -0.0056 -0.0758  0.0993
74868W        W17780   5.082  25.651   8.266 -0.0934  0.0762  0.2332
74869W        W17781   1.187  26.836   9.749  0.2099  0.2484 -0.0962
74870W        W17782   7.555  27.994   9.603 -0.0022  0.3952  0.0367
74871W        W17783   3.741  26.813   9.675 -0.2093  0.0645 -0.3507
74872W        W17784   6.395  26.978   9.725  0.1531 -0.0294 -0.2583
74873W        W17785   4.780  26.311   8.989 -0.3281  0.3237  0.0305
74874W        W17786   4.022  26.943   8.394 -0.2218  0.0410  0.1691
74875W        W17787   3.937  27.154   9.356 -0.2244  0.1735  0.2502
74876W        W17788   4.577  29.147   8.325 -0.2017  0.1145 -0.2471
74877W        W17789   6.452  28.019   7.501  0.1618  0.1840  0.0828
74878W        W17790   5.383  28.005   7.674  0.1115 -0.0002 -0.2187
74879W        W17791   6.300  28.845   8.439  0.2039  0.1801  0.1805
74880W        W17792   5.349  26.574   8.076  0.1339 -0.4395  0.2267
74881W        W17793   5.633  29.204   8.147  0.0448  0.1827 -0.0988
74882W        W17794   2.971  27.465   7.002 -0.2031  0.2537  0.0637
74883W        W17795   4.828  28.845   8.053 -0.5376  0.3937  0.0582
74884W        W17796   3.864  28.815   8.992  0.0565 -0.3713 -0.2153
74885W        W17797   6.247  26.592   7.359 -0.1438 -0.1048  0.0213
74886W        W17798   7.666  27.637   8.253 -0.3171 -0.2008 -0.0070
74887W        W17799   7.546  26.810   7.891  0.0600  0.3933 -0.1084
74888W        W17800   5.841  25.970   8.837  0.1326 -0.3711 -0.0458
74889W        W17801   5.499  24.535   7.776 -0.0922  0.1965  0.1282
74890W        W17802   6.061  29.128   7.759 -0.0248  0.1159  0.1131
74891W        W17803   3.636  27.665   8.125 -0.0309  0.0260 -0.0896
74892W        W17804   3.144  25.835  10.146 -0.1275  0.1737  0.2342
74893W        W17805   5.841  23.515   8.917  0.2487  0.2713 -0.1239
74894W        W17806   5.847  27.391   6.937 -0.1061 -0.2075  0.0627
74895W        W17807   5.376  25.703   9.157  0.1658 -0.1080 -0.3304
74896W        W17808   6.422  29.279   9.338  0.2108 -0.0813 -0.2330
74897W        W17809   5.296  28.788   8.000 -0.2952  0.3085  0.0061
74898W        W17810   5.707  27.321   8.972 -0.2723  0.0978  0.0347
74899W        W17811   2.357  25.921   6.644  0.0924 -0.0335 -0.1328
74900W        W17812   7.362  26.491   8.857  0.0085 -0.3526  0.1949
74901W        W17813   2.605  27.607   9.942 -0.0232 -0.0577 -0.0264
74902W        W17814   4.573  25.149   9.434  0.1677 -0.1726  0.1922
74903W        W17815   6.781  26.623   9.423  0.2657  0.0537 -0.4285
74904W        W17816   2.781  26.706   9.676 -0.2032  0.2975  0.0242
74905W        W17817   3.484  25.203   8.462  0.1248  0.1696  0.2260
74906W        W17818   4.978  27.534   9.569  0.3055  0.0995  0.1711
74907W        W17819   6.586  26.527   6.964 -0.1695 -0.1339  0.0724
74908W        W17820   2.997  26.232   7.723 -0.3143 -0.0865 -0.0542
74909W        W17821   5.896  26.769   8.100 -0.0421  0.0131  0.1607
74910W        W17822   2.881  26.906   8.352 -0.0053  0.0471  0.2618
74911W        W17823   5.463  26.270   9.025 -0.1496  0.0821 -0.0019
74912W        W17824   4.666  25.842   8.487 -0.0762 -0.3335 -0.2728
74913W        W17825   7.378  27.459   8.744  0.2319  0.1087  0.2044
74914W        W17826   5.688  28.868   9.747  0.0938  0.0213 -0.0163
74915W        W17827   5.256  29.764   7.951  0.0490  0.0386 -0.2205
74916W        W17828   6.383  27.931   8.635  0.0520  0.1618 -0.1540
74917W        W17829   4.050  27.417   9.826 -0.2301 -0.0147  0.1085
74918W        W17830   3.334  26.223   8.108  0.1585  0.0774 -0.2069
74919W        W17831   5.024  29.627   9.015 -0.1358 -0.1000 -0.2071
74920W        W17832   7.027  28.838   9.847  0.0300  0.0051  0.1192
74921W        W17833   4.651  24.878   9.023  0.0876  0.1380 -0.1880
74922W        W17834   3.779  25.383   9.473 -0.1191  0.2167 -0.0124
74923W        W17835   3.726  28.387   7.753 -0.0267 -0.3946 -0.0745
74924W        W17836   7.244  27.600   9.500  0.1598  0.1016 -0.2605
74925W        W17837   6.204  28.833   6.842 -0.0903  0.1406 -0.3015
74926W        W17838   5.636  26.569  10.187 -0.3208 -0.0311 -0.0812
74927W        W17839   3.152  27.344   7.441  0.3288 -0.0110 -0.0936
74928W        W17840   2.749  29.693   9.022 -0.0832  0.0229 -0.0501
74929W        W17841   5.747  30.115   9.072 -0.3914 -0.2023  0.0059
74930W        W17842   5.331  29.008   9.460 -0.0509  0.0080  0.0036
74931W        W17843   6.110  26.190   8.368  0.0158 -0.0386 -0.0192
74932W        W17844   6.775  30.864   9.494  0.1355 -0.2368 -0.1524
74933W        W17845   6.212  25.612   9.113  0.2762  0.1215  0.1181
74934W        W17846   6.643  26.512   8.145  0.0735 -0.2105  0.2269
74935W        W17847   6.671  26.585   8.944 -0.0053 -0.2187  0.3237
74936W        W17848   7.733  26.521   9.247  0.1568  0.0323 -0.1725
74937W        W17849   4.213  27.611   7.845 -0.1109 -0.3282  0.0171
74938W        W17850   3.464  26.993   8.465 -0.3448  0.1027  0.0996
74939W        W17851   1.007  28.711  10.221  0.5252  0.3742 -0.0637
74940W        W17852   3.179  27.505   8.428  0.0408  0.0232 -0.0755
74941W        W17853   3.803  27.033   8.896 -0.3363  0.2532  0.0202
74942W        W17854   5.414  28.826   8.959 -0.2267 -0.2651 -0.2099
74943W        W17855   5.505  24.559   9.020  0.2093  0.0273 -0.0036
74944W        W17856   2.791  24.777   8.773 -0.1772 -0.0625 -0.0208
74945W        W17857   5.211  29.326   7.555  0.0683 -0.0089  0.1583
74946W        W17858   5.280  28.949   7.169 -0.0031 -0.2196  0.0600
74947W        W17859   4.940  25.357   7.002  0.1989  0.2737  0.0425
74948W        W17860   4.901  27.642   7.023 -0.4153  0.2254  0.0192
74949W        W17861   3.271  25.231   6.406 -0.0346  0.1810 -0.0284
74950W        W17862   5.064  25.254   9.416  0.1375  0.1448 -0.0727
74951W        W17863   4.900  29.238   9.266 -0.5159  0.0101  0.0208
74952W        W17864   6.984  29.130   7.664 -0.0221 -0.0355 -0.1772
74953W        W17865   4.333  25.841  10.004 -0.1499 -0.1859  0.0419
74954W        W17866   4.445  28.372   9.201  0.0958  0.2601  0.0150
74955W        W17867   5.519  28.457   8.479  0.2040  0.0902 -0.0425
74956W        W17868   7.658  26.124   8.803 -0.1201  0.2480  0.0482
74957W        W17869   5.302  26.584   9.425  0.0733 -0.2681  0.1955
74958W        W17870   6.785  27.874   9.538  0.3108 -0.0636 -0.0946
74959W        W17871   4.338  25.481   8.344 -0.1359  0.0430  0.0570
74960W        W17872   6.348  26.948   8.171 -0.0268 -0.1257 -0.0605
74961W        W17873   6.499  29.158   7.906 -0.1649  0.1089  0.3140
74962W        W17874   4.141  25.930   9.542  0.1986  0.2067 -0.3510
74963W        W17875   4.964  26.442   9.931  0.2932  0.0840  0.0369
74964W        W17876   5.079  26.171   8.650  0.0643 -0.1781  0.4637
74965W        W17877   4.373  27.306   8.358 -0.5449  0.2600  0.0259
74966W        W17878   8.173  27.333   6.519 -0.0522  0.1871 -0.1435
74967W        W17879   5.337  29.015   8.505 -0.1257 -0.1762  0.0941
74968W        W17880   4.824  27.221   8.814 -0.4141 -0.0691 -0.0031
74969W        W17881   8.259  25.484  10.060 -0.0522 -0.1852 -0.1996
74970W        W17882   3.534  26.255   8.910 -0.2677  0.1410 -0.0405
74971W        W17883   4.313  27.132   9.082 -0.0058  0.0786 -0.2222
74972W        W17884   4.367  26.686   8.875  0.1409 -0.2059 -0.0944
74973W        W17885   6.728  25.838   8.891 -0.0798 -0.0267 -0.3148
74974W        W17886   4.916  24.847   9.738 -0.1160 -0.0611  0.0859
74975W        W17887   6.823  24.245   8.622 -0.3893  0.0249  0.1722
74976W        W17888   5.141  28.096   9.640 -0.0749  0.1296  0.3595
74977W        W17889   5.586  26.809   9.096  0.0936  0.0056 -0.1149
74978W        W17890   6.562  32.798   3.174 -0.0816 -0.0352  0.3320
74979W        W17891   5.117  30.856   0.611 -0.0047  0.0034 -0.1818
74980W        W17892   7.623  28.771  31.804 -0.0710  0.1506 -0.0055
74981W        W17893   7.478  32.093   0.208 -0.1229  0.1747 -0.1471
74982W        W17894   5.384  30.550   2.760  0.5628  0.1083  0.1456
74983W        W17895   5.461  32.539  31.934  0.2615 -0.0695 -0.1255
74984W        W17896   3.958  28.459   2.760  0.1811 -0.1569  0.0237
74985W        W17897   7.191  31.786   1.913  0.2977  0.4085 -0.2190
74986W        W17898   8.369  32.164   2.028 -0.1355 -0.1435 -0.0406
74987W        W17899   6.693  31.081   0.210  0.2822 -0.0126 -0.3300
74988W        W17900   6.784  29.603   3.626  0.0478  0.0905 -0.0075
74989W        W17901   5.637  32.233   2.335 -0.0691  0.0114 -0.3839
74990W        W17902   5.253  29.949   1.190 -0.0735  0.1182  0.0085
74991W        W17903   3.813  29.020   1.056 -0.0805  0.1823  0.0330
74992W        W17904   6.662  29.699   2.105  0.1915 -0.2788 -0.1236
74993W        W17905   4.171  31.421   0.395 -0.0801 -0.2850  0.0710
74994W        W17906   4.826  29.348   1.947  0.0109 -0.0168  0.0322
74995W        W17907   5.955  30.310   0.322  0.1685  0.1527 -0.0897
74996W        W17908   8.011  32.634   2.584 -0.2982 -0.0597  0.3087
74997W        W17909   5.062  29.936   2.726  0.1029 -0.1158 -0.2730
74998W        W17910   6.072  30.312   4.185 -0.2212  0.1289 -0.0030
74999W        W17911   6.369  32.474   1.154 -0.3195 -0.1512  0.0912
75000W        W17912   4.168  29.849  31.101  0.5631  0.1912  0.1180
75001W        W17913   4.383  31.460   2.813  0.0819 -0.4211 -0.2164
75002W        W17914   4.366  29.987   2.081  0.1390  0.4285 -0.1608
75003W        W17915   7.563  30.133   1.037 -0.0536 -0.3323  0.0659
75004W        W17916   7.163  30.902   1.649  0.0827  0.2338 -0.2070
75005W        W17917   3.915  32.907   1.585  0.2768 -0.1732 -0.1882
75006W        W17918   6.014  31.355   2.158  0.2679 -0.3383  0.3036
75007W        W17919   7.617  30.545   2.590  0.3131 -0.1844 -0.0947
75008W        W17920   6.216  32.111   0.806 -0.0051  0.1269 -0.0261
75009W        W17921   4.799  33.275   1.063 -0.1608 -0.0619  0.0353
75010W        W17922   6.042  31.988   2.113 -0.0304  0.2118  0.3137
75011W        W17923   8.078  31.037   1.822 -0.0741 -0.1665  0.2072
75012W        W17924   6.053  34.389   1.458  0.0012  0.0997 -0.1485
75013W        W17925   6.302  32.809   3.606  0.3424  0.0036 -0.0781
75014W        W17926   3.716  31.899   1.181  0.4137  0.3003 -0.1955
75015W        W17927   4.634  30.520   3.786  0.3172  0.2654  0.0132
75016W        W17928   6.194  30.890   4.211 -0.1115 -0.0231 -0.2151
75017W        W17929   7.337  29.676   1.317  0.1005  0.0323  0.0715
75018W        W17930   5.522  32.069   0.123 -0.1565 -0.0852  0.1840
75019W        W17931   5.754  32.285   0.896  0.0090  0.0691  0.1753
75020W        W17932   5.243  31.732   4.311 -0.2051 -0.2717  0.2890
75021W        W17933   2.967  33.152   2.390  0.0829  0.1099 -0.1164
75022W        W17934   8.602  28.605   3.302 -0.2001 -0.2857 -0.0077
75023W        W17935   5.992  30.453  31.052  0.0140 -0.3817  0.0678
75024W        W17936   7.071  31.210   2.071  0.5931 -0.0112 -0.1959
75025W        W17937   5.091  30.322   0.721 -0.1578 -0.0463  0.0670
75026W        W17938   6.294  30.106   1.180  0.3058  0.2368  0.2576
75027W        W17939   4.606  30.240   2.470  0.1816 -0.1964  0.0399
75028W        W17940   4.310  31.920   0.348  0.0737  0.0920  0.2768
75029W        W17941   5.450  30.133   2.452  0.0033 -0.1435 -0.0638
75030W        W17942   7.209  30.593   3.096 -0.2057 -0.5003 -0.1698
75031W        W17943   6.730  30.054   0.991  0.0253 -0.2694  0.0232
75032W        W17944   6.775  30.898   3.175 -0.0853  0.3881 -0.0951
75033W        W17945   5.644  31.714   2.433 -0.0958  0.1052  0.0008
75034W        W17946   4.399  30.396   1.377 -0.2845  0.0515 -0.0696
75035W        W17947   7.730  31.136   1.211  0.1340 -0.0217  0.2295
75036W        W17948   8.426  31.965   1.544  0.1109 -0.0978  0.0939
75037W        W17949   5.943  32.769   0.989  0.0603  0.0317  0.0400
75038W        W17950   5.392  30.488   1.100  0.1044  0.1817 -0.1538
75039W        W17951   4.323  32.082   2.187  0.1560  0.1991  0.0803
75040W        W17952   4.367  31.298   1.884  0.0884  0.0158  0.2162
75041W        W17953   4.314  29.168   0.752 -0.0969  0.1072  0.2687
75042W        W17954   7.516  32.341   3.620  0.1436  0.1054  0.1730
75043W        W17955   5.339  31.119   3.613  0.0641  0.2107 -0.3068
75044W        W17956   5.877  29.095   2.074  0.1272 -0.0100  0.0070
75045W        W17957   5.495  31.442   1.933  0.1024  0.2178 -0.0882
75046W        W17958   7.949  31.776   3.569 -0.0799  0.3610 -0.1298
75047W        W17959   6.143  30.858   0.311 -0.3623 -0.2143 -0.0700
75048W        W17960   5.704  29.526   2.341 -0.2985 -0.2716  0.3941
75049W        W17961   4.863  29.434   2.856  0.2441 -0.1458  0.3142
75050W        W17962   4.133  31.935  30.448 -0.2334 -0.0257  0.0027
75051W        W17963   5.637  30.543   1.495  0.0408  0.3802 -0.1322
75052W        W17964   7.016  31.939   4.397  0.2393  0.0352 -0.0686
75053W        W17965   7.399  30.904   0.175  0.0084 -0.0551  0.1186
75054W        W17966   5.237  31.841   2.825 -0.0114  0.1264 -0.3634
75055W        W17967   5.544  30.131   3.495 -0.0572 -0.1743  0.1501
75056W        W17968   5.790  32.593   3.006  0.0669  0.4507  0.0706
75057W        W17969   5.116  32.781  31.709 -0.0980 -0.0471 -0.0632
75058W        W17970   4.154  30.996   2.223 -0.0170 -0.4382  0.2314
75059W        W17971   3.853  31.773   2.230  0.0309 -0.0867  0.1524
75060W        W17972   3.359  30.032   2.376  0.0076 -0.2710 -0.0396
75061W        W17973   6.501  30.934   2.131 -0.3120 -0.0873  0.0847
75062W        W17974   7.213  29.083  31.804  0.5445 -0.2296  0.0126
75063W        W17975   3.876  29.755   1.204  0.0405 -0.1955 -0.1213
75064W        W17976   7.197  29.915   0.772  0.0869 -0.0297 -0.2622
75065W        W17977   4.469  31.472   0.044  0.0823  0.1608  0.1004
75066W        W17978   6.761  31.636   0.420  0.1780 -0.0004 -0.2652
75067W        W17979   7.772  29.396   0.745 -0.1808  0.1543  0.0887
75068W        W17980   6.145  31.155  29.872 -0.1041  0.1004 -0.1034
75069W        W17981   3.874  30.161   2.186 -0.1343 -0.0128 -0.0996
75070W        W17982   6.221  31.151   3.599 -0.1408 -0.1029 -0.0786
75071W        W17983   4.943  30.071   2.142 -0.0657 -0.1759 -0.1842
75072W        W17984   4.721  29.796   1.778  0.4725 -0.2281 -0.1435
75073W        W17985   8.567  30.504   0.980 -0.0486 -0.1414 -0.0399
75074W        W17986   4.497  30.162  31.360 -0.2953 -0.1209 -0.2307
75075W        W17987   8.231  30.104   1.755  0.1812  0.0182 -0.2794
75076W        W17988   5.392  31.098   0.169  0.0272 -0.1468 -0.0393
75077W        W17989   4.396  30.142   0.178  0.1146 -0.1055 -0.5146
75078W        W17990   7.875  29.361   4.320 -0.0340  0.0671  0.1742
75079W        W17991   6.372  32.501   0.488 -0.2212 -0.1642  0.0565
75080W        W17992   8.760  32.300   1.699  0.0423  0.1608  0.0048
75081W        W17993   7.164  31.692   0.153  0.1348  0.0405 -0.3829
75082W        W17994   3.678  29.680   2.010  0.1059  0.0912 -0.0325
75083W        W17995   5.380  30.040  31.258  0.2102  0.4487 -0.1631
75084W        W17996   4.496  32.397   2.710 -0.1305  0.1308 -0.1723
75085W        W17997   6.028  31.977   2.640 -0.0296 -0.1012 -0.4169
75086W        W17998   4.768  30.519   1.016  0.0309 -0.1163 -0.1537
75087W        W17999   6.272  31.396   1.692 -0.0994 -0.3057  0.0757
75088W        W18000   7.503  30.418   0.634  0.0976  0.0639  0.0018
75089W        W18001   4.151  30.077   2.581 -0.0449 -0.0498  0.1863
75090W        W18002   5.827  28.913   3.434  0.1560  0.1485 -0.2767
75091W        W18003   7.219  30.962   2.650 -0.3501 -0.2025 -0.0221
75092W        W18004   6.153  30.898   0.852 -0.4909 -0.2911  0.1989
75093W        W18005   4.180  30.020  31.715  0.0246  0.0144  0.2800
75094W        W18006   6.668  32.666   2.194 -0.0696 -0.0417  0.2376
75095W        W18007   5.863  31.834   0.553  0.1340 -0.0180 -0.1892
75096W        W18008   3.447  32.051   2.153  0.1925  0.2393 -0.1571
75097W        W18009   5.395  32.031   0.673  0.2064  0.0285 -0.1110
75098W        W18010   7.637  28.851   1.278  0.2148 -0.2674 -0.1953
75099W        W18011   3.866  31.506   3.497  0.0184 -0.3300 -0.2106
75100W        W18012   6.864  29.732   2.943 -0.1841 -0.0462  0.1587
75101W        W18013   4.291  31.128   1.366 -0.1053  0.1051 -0.0137
75102W        W18014   4.319  32.508   1.725 -0.2716  0.0295 -0.0273
75103W        W18015   6.670  29.067   2.326 -0.0194 -0.2484 -0.0934
75104W        W18016   8.000  28.276   0.515 -0.2144  0.0426  0.1473
75105W        W18017   7.002  30.113   3.328  0.0406 -0.0402 -0.1100
75106W        W18018   6.820  31.708   1.560  0.0497  0.1195 -0.0208
75107W        W18019   7.244  30.937  30.892 -0.3897  0.1374 -0.2126
75108W        W18020   6.787  29.673   0.574 -0.1627  0.0825  0.1775
75109W        W18021   4.538  32.034   3.685 -0.2746  0.1594  0.2517
75110W        W18022   6.599  32.080   2.127 -0.0591  0.2957  0.1352
75111W        W18023   5.804  31.495   3.126 -0.0103 -0.0098  0.1557
75112W        W18024   6.375  31.936   1.723  0.0784  0.1169  0.2774
75113W        W18025   6.257  31.554   0.759  0.0002 -0.0095 -0.0210
75114W        W18026   4.353  31.565   2.309  0.3236  0.1439 -0.3641
75115W        W18027   6.248  31.620   3.019 -0.3040  0.0574 -0.0538
75116W        W18028   7.085  32.437   2.416 -0.1488 -0.1919  0.0466
75117W        W18029   4.668  28.960   3.059  0.2031  0.0136 -0.1554
75118W        W18030   5.602  30.642   0.081 -0.1435 -0.1976 -0.0033
75119W        W18031   6.347  29.226   0.684 -0.3207 -0.0195  0.0822
75120W        W18032   2.519  33.241   1.103  0.2923 -0.2553 -0.0531
75121W        W18033   5.857  30.397   2.532  0.0620 -0.0744 -0.4385
75122W        W18034   6.058  29.890   2.471  0.0394  0.1112 -0.0834
75123W        W18035   4.296  27.838   4.650  0.1769 -0.1862 -0.0002
75124W        W18036   8.751  29.810   4.214  0.0567 -0.0833 -0.3344
75125W        W18037   8.012  30.164   0.795 -0.1485 -0.1120  0.1616
75126W        W18038   5.920  31.387   2.622  0.2007  0.2560 -0.5208
75127W        W18039   5.126  29.273   0.436  0.0470  0.0496 -0.1615
75128W        W18040   5.909  29.471   2.809  0.1876  0.2969  0.1023
75129W        W18041   6.853  31.027   3.634  0.2654  0.5251  0.0861
75130W        W18042   5.152  32.172   2.460 -0.0550  0.2726  0.1419
75131W        W18043   6.093  32.902   2.688 -0.0813  0.0213  0.1308
75132W        W18044   7.068  31.485   0.834 -0.0168  0.4100 -0.0883
75133W        W18045   6.707  30.840   4.115 -0.2498  0.1759 -0.2483
75134W        W18046   6.767  28.483   0.058  0.0668  0.2217  0.2165
75135W        W18047   6.329  31.993   0.267 -0.2786 -0.0769  0.0250
75136W        W18048   5.511  30.469  30.960 -0.0116  0.0977  0.0674
75137W        W18049   5.363  30.250   1.812 -0.2084 -0.1616 -0.2485
75138W        W18050   5.464  32.943   2.922 -0.1235 -0.1798  0.1687
75139W        W18051   6.224  31.633  31.690 -0.0352 -0.3140  0.0816
75140W        W18052   6.790  30.907   1.188 -0.0070  0.3119  0.0830
75141W        W18053   3.262  33.516  30.984  0.1503  0.0495 -0.2307
75142W        W18054   7.090  27.853   2.619  0.0555  0.1122  0.0711
75143W        W18055   4.945  34.185   1.939  0.2936  0.2269  0.0045
75144W        W18056   5.237  29.882  31.789  0.1100  0.2228 -0.1775
75145W        W18057   3.661  32.124   2.932 -0.1762 -0.0318  0.1951
75146W        W18058   7.041  30.455   0.842 -0.0029  0.1547 -0.2268
75147W        W18059   6.500  30.049  31.749 -0.0834 -0.2858 -0.0079
75148W        W18060   4.825  31.583   1.896  0.0321  0.0586 -0.0773
75149W        W18061   6.479  30.547   1.007  0.2180 -0.0621  0.3434
75150W        W18062   4.721  31.674   3.135  0.1074  0.3917 -0.1252
75151W        W18063   6.221  31.145   3.101  0.2266  0.2102 -0.1563
75152W        W18064   6.779  30.267  30.931 -0.0748 -0.1752 -0.2596
75153W        W18065   7.187  32.058   2.824 -0.2126 -0.1511 -0.3081
75154W        W18066   5.802  31.414   3.613 -0.0393  0.0328  0.0239
75155W        W18067   2.687  30.698   0.539  0.1131  0.1800 -0.1269
75156W        W18068   6.897  29.012   1.836  0.0534 -0.2603  0.3895
75157W        W18069   4.808  30.208  31.775 -0.1061 -0.1334  0.2204
75158W        W18070   4.407  31.862   1.718  0.0105  0.0756 -0.3387
75159W        W18071   7.406  32.752   3.245  0.0820  0.1968  0.1586
75160W        W18072   5.000  30.938  31.876 -0.0089  0.2019 -0.2883
75161W        W18073   6.170  33.084   0.678  0.1947  0.6000  0.1050
75162W        W18074   6.070  30.462   4.641 -0.0106  0.1488  0.0384
75163W        W18075   7.722  31.793   2.050  0.5840 -0.2115  0.0601
75164W        W18076   5.214  30.591   2.247  0.2292  0.1188 -0.0276
75165W        W18077   5.797  30.936   2.815 -0.3178 -0.0428  0.2877
75166W        W18078   6.214  30.650   3.271 -0.2755 -0.1526 -0.2923
75167W        W18079   6.115  30.594   1.383 -0.1434  0.0474  0.0941
75168W        W18080   6.050  29.388   3.280  0.2133  0.0484 -0.0634
75169W        W18081   5.027  32.194   4.784  0.1120  0.0241 -0.1697
75170W        W18082   4.901  28.931   0.742  0.2392  0.1397 -0.1577
75171W        W18083   8.037  32.209  30.847 -0.0265 -0.0266 -0.1730
75172W        W18084   5.848  29.829   3.319  0.0835  0.4347  0.1027
75173W        W18085   5.068  31.066   2.119 -0.1182 -0.0980  0.0242
75174W        W18086   5.198  31.497   2.366 -0.0688  0.2263  0.2176
75175W        W18087   5.664  31.245   1.515 -0.2261 -0.2068  0.0236
75176W        W18088   5.389  29.587   3.227 -0.3362 -0.4012  0.2426
75177W        W18089   4.764  32.761   1.780  0.1521 -0.1723 -0.0355
75178W        W18090   4.667  32.211   0.529  0.0725 -0.1753  0.0416
75179W        W18091   4.028  33.290   3.025  0.0218 -0.1074 -0.0327
75180W        W18092   7.443  28.663   0.368  0.0777 -0.3404 -0.1509
75181W        W18093   5.586  31.195  30.557  0.3574  0.2559 -0.1745
75182W        W18094   6.358  29.640   2.964  0.0208 -0.0660 -0.0407
75183W        W18095   9.130  29.842   2.367  0.0407 -0.0749 -0.1989
75184W        W18096   7.632  31.736  31.809 -0.2310 -0.1917 -0.2841
75185W        W18097   7.466  29.202   3.740 -0.0353 -0.1386 -0.1856
75186W        W18098   4.798  29.392   3.368 -0.4076 -0.1748  0.1991
75187W        W18099   5.642  30.847   1.894 -0.2173 -0.0014 -0.3847
75188W        W18100   5.793  30.435   3.080 -0.1101 -0.1176  0.1105
75189W        W18101   5.896  32.065   3.109 -0.3660  0.3703  0.0913
75190W        W18102   5.242  30.974   3.136 -0.1194  0.0897 -0.3140
75191W        W18103   5.817  29.318   0.290 -0.1644 -0.1834 -0.1335
75192W        W18104   4.812  29.462   0.859 -0.0173  0.1347  0.1691
75193W        W18105   6.496  31.202   4.433 -0.0619 -0.0911  0.2384
75194W        W18106   6.213  32.378   2.892 -0.2781  0.0227 -0.2627
75195W        W18107   6.407  30.483  31.972  0.1613 -0.2937 -0.3188
75196W        W18108   6.342  28.833   1.863  0.0488  0.2364  0.0609
75197W        W18109   4.862  31.310   3.428 -0.3293  0.0924 -0.0888
75198W        W18110   6.351  30.007   0.227  0.0607 -0.0607  0.1174
75199W        W18111   5.644  30.734   0.635 -0.0370 -0.1360 -0.3859
75200W        W18112   4.721  30.747   2.258 -0.1197  0.1337 -0.2553
75201W        W18113   3.556  29.990   3.403 -0.1776  0.3750 -0.1345
75202W        W18114   6.608  32.286   3.162  0.3052  0.1115  0.3093
75203W        W18115   7.235  29.438   0.860  0.0652 -0.0603  0.1605
75204W        W18116   5.430  28.913   4.543  0.1449 -0.0085 -0.3356
75205W        W18117   7.116  30.341   2.498 -0.4126 -0.0914  0.0076
75206W        W18118   4.543  29.950   2.899 -0.0017 -0.2666 -0.1187
75207W        W18119   4.951  29.886   3.719  0.0557 -0.0016  0.0176
75208W        W18120   7.603  34.163   3.040 -0.0719 -0.0782 -0.2427
75209W        W18121   7.813  30.785   0.362 -0.1086  0.2774 -0.0615
75210W        W18122   7.978  29.831   2.192 -0.2858  0.4179 -0.0780
75211W        W18123   6.580  31.196   0.699  0.1306 -0.0665  0.2128
75212W        W18124   6.877  30.225   2.115  0.1122 -0.1084  0.1219
75213W        W18125   4.320  30.739   1.722 -0.1733  0.0109  0.1793
75214W        W18126   6.349  30.305   2.407 -0.0227 -0.1102  0.0263
75215W        W18127   5.072  28.439  31.985  0.2139 -0.0642  0.1359
75216W        W18128   7.209  30.005   3.796  0.0949  0.0408 -0.1530
75217W        W18129   6.401  32.158  31.055  0.1045 -0.1219  0.0364
75218W        W18130   6.356  31.157   2.588 -0.2471  0.0501  0.0533
75219W        W18131   6.265  30.019  31.310 -0.0658  0.2743  0.0096
75220W        W18132   3.905  30.933   1.670  0.0763  0.1570  0.1156
75221W        W18133   5.819  32.498   3.525  0.1687 -0.0353  0.1781
75222W        W18134   4.263  31.147  31.412  0.1326  0.0229 -0.1381
75223W        W18135   5.715  30.210  30.553 -0.0339  0.1402  0.1873
75224W        W18136   5.807  31.004   3.325 -0.2713  0.4422 -0.2000
75225W        W18137   7.404  31.763   3.516 -0.0404 -0.3960 -0.0065
75226W        W18138   6.924  29.536   1.702  0.0563 -0.2951 -0.0810
75227W        W18139   7.730  28.601   2.694  0.1281  0.1088  0.3054
75228W        W18140   4.621  32.952  31.458  0.1326  0.1325 -0.1515
75229W        W18141   6.572  29.082   2.830  0.2715 -0.0171  0.0591
75230W        W18142   5.368  32.665   2.494  0.2518  0.2604 -0.0011
75231W        W18143   3.690  31.163   2.019 -0.1721 -0.1169  0.0052
75232W        W18144   6.303  31.451   0.231  0.1733  0.2398 -0.0040
75233W        W18145   4.256  29.247   3.423  0.2411 -0.0992 -0.1829
75234W        W18146   7.524  29.472   2.382 -0.2389 -0.0215  0.1562
75235W        W18147   6.658  31.782   2.811 -0.0165  0.0462  0.1011
75236W        W18148   7.685  30.264   3.890  0.2164  0.0338 -0.3076
75237W        W18149   6.271  30.034   2.001  0.1129 -0.2177 -0.0641
75238W        W18150   5.517  30.649   3.510  0.0377  0.2329  0.2936
75239W        W18151   7.425  32.983   2.734  0.1595 -0.1091 -0.1885
75240W        W18152   7.558  31.596   1.091  0.0271 -0.0360 -0.0009
75241W        W18153   5.403  31.264   2.773 -0.0394  0.2129 -0.3843
75242W        W18154   3.673  31.042   3.400  0.1853  0.0213 -0.1894
75243W        W18155   6.254  30.669   2.728  0.3376  0.0356 -0.1556
75244W        W18156   5.822  31.446   1.080  0.2827  0.0513 -0.1294
75245W        W18157   5.269  30.911   1.360 -0.3354 -0.2337 -0.0582
75246W        W18158   6.660  31.401   1.184  0.0369 -0.1630 -0.1468
75247W        W18159   4.958  31.964   3.524  0.0529  0.0498 -0.1551
75248W        W18160   4.964  31.204   2.663  0.0679 -0.2769 -0.1192
75249W        W18161   4.808  32.708   0.624 -0.2932 -0.1555 -0.0418
75250W        W18162   6.301  31.097   1.269 -0.1326 -0.1514 -0.1195
75251W        W18163   7.023  33.202   0.672  0.2147  0.3806 -0.1344
75252W        W18164   8.182  33.141   2.429 -0.1324  0.0864 -0.0734
75253W        W18165   6.365  29.738   0.799 -0.1086  0.0415  0.1619
75254W        W18166   5.613  32.235   1.685 -0.1684  0.1123 -0.1257
75255W        W18167   3.211  32.260  31.499  0.0520 -0.1436 -0.0770
75256W        W18168   6.896  33.808   1.579  0.1806  0.1538  0.2643
75257W        W18169   5.591  31.058   2.365  0.0582 -0.1839  0.1256
75258W        W18170   6.945  31.809   3.265  0.1020 -0.0082 -0.0183
75259W        W18171   6.714  29.777  31.133  0.2680  0.0377 -0.0536
75260W        W18172   6.963  30.024   1.518 -0.2156  0.0684 -0.0198
75261W        W18173   8.505  29.793  31.611  0.0617  0.6176 -0.1082
75262W        W18174   7.127  32.314   3.344 -0.1622  0.0385 -0.2847
75263W        W18175   5.681  30.804   4.314  0.0612  0.1130  0.1128
75264W        W18176   6.015  30.157  31.825  0.0523  0.0036  0.0277
75265W        W18177   4.652  30.366   1.925  0.0833 -0.4094  0.0126
75266W        W18178   8.555  29.903   3.247  0.2646 -0.2363  0.1201
75267W        W18179   4.713  33.117   3.889 -0.0205  0.3328 -0.0854
75268W        W18180   7.751  33.529   0.575  0.0806  0.0546 -0.0430
75269W        W18181   4.499  30.937  31.956  0.2238 -0.0809 -0.1495
75270W        W18182   5.334  31.513   3.317  0.1397  0.1406  0.1738
75271W        W18183   7.010  28.641   2.398  0.3365  0.3550  0.4338
75272W        W18184   5.992  32.300  31.960 -0.0765  0.0865 -0.1710
75273W        W18185   6.731  30.775   2.671  0.0368 -0.0456  0.0881
75274W        W18186   4.767  32.262   1.492 -0.1332  0.1211  0.0796
75275W        W18187   5.275  31.619   3.798  0.0326 -0.1183 -0.2125
75276W        W18188   4.850  32.132   1.976  0.0197  0.1283  0.0091
75277W        W18189   5.455  31.111   0.858  0.0131  0.2648  0.0733
75278W        W18190   7.678  30.767   1.562  0.3147  0.2800  0.0277
75279W        W18191   6.037  30.804   2.290  0.2567 -0.2763 -0.4720
75280W        W18192   7.775  29.161   2.711  0.2164 -0.0801 -0.1576
75281W        W18193   5.863  31.729   1.611  0.1547  0.1145 -0.1771
75282W        W18194   7.218  29.984   0.245 -0.3240 -0.2993 -0.0732
75283W        W18195   5.825  31.264   4.460 -0.1219  0.0495  0.1379
75284W        W18196   4.467  30.508   2.948 -0.1734 -0.2318 -0.2962
75285W        W18197   5.908  30.754  30.471 -0.0422  0.1593 -0.1628
75286W        W18198   8.058  29.919   3.226 -0.0581 -0.0246  0.1579
75287W        W18199   5.791  30.942   1.145  0.0527 -0.3246  0.2097
75288W        W18200   6.540  31.301   3.929  0.0915  0.2011  0.0050
75289W        W18201   5.265  31.842   1.563  0.0918 -0.0019  0.0395
75290W        W18202   6.298  30.224   0.687 -0.2041 -0.0310  0.0325
75291W        W18203   4.702  31.018   1.575  0.2667  0.1016  0.3777
75292W        W18204   4.980  29.890   3.228  0.1088 -0.1871  0.0672
75293W        W18205   7.992  32.283   3.481 -0.0784 -0.0414  0.3493
75294W        W18206   4.998  30.684   1.763  0.1022 -0.1745  0.0879
75295W        W18207   6.312  32.316  31.505 -0.0684  0.0596 -0.1754
75296W        W18208   7.547  30.110   2.291  0.0581 -0.2462 -0.3214
75297W        W18209   6.730  31.495  31.956  0.1902  0.2197  0.2725
75298W        W18210   5.140  31.312   1.581 -0.0982 -0.0101 -0.2988
75299W        W18211   6.254  32.376   2.357  0.2927 -0.0869  0.1548
75300W        W18212   3.288  29.789   2.832  0.2310 -0.1161 -0.2534
75301W        W18213   7.077  33.023   2.309 -0.0368 -0.1218  0.3970
75302W        W18214   6.634  31.521   2.009  0.3739 -0.0415 -0.2730
75303W        W18215   6.579  29.424   1.209  0.1311 -0.0165 -0.2288
75304W        W18216   6.123  31.808   3.436  0.2573 -0.1007 -0.0034
75305W        W18217   5.059  32.835   1.288 -0.1448  0.3252  0.3300
75306W        W18218   7.804  29.643   1.731  0.1714 -0.2552 -0.1529
75307W        W18219   7.732  29.562   3.419 -0.0894 -0.2076  0.4396
75308W        W18220   5.600  32.977  31.804  0.0473  0.1837 -0.3223
75309W        W18221   8.264  28.875   2.783 -0.1884 -0.0578 -0.2226
75310W        W18222   7.029  32.608   2.905  0.0996  0.2036 -0.0485
75311W        W18223   4.603  31.128   3.810  0.1063 -0.1136 -0.0132
75312W        W18224   5.686  31.613  31.456  0.0046 -0.1321  0.2846
75313W        W18225   5.204  30.748   4.002 -0.1647  0.1465 -0.1948
75314W        W18226   5.834  31.236   0.520 -0.1958  0.2168 -0.1010
75315W        W18227   5.841  32.596  31.539 -0.1318  0.0837  0.0138
75316W        W18228   7.555  32.170   1.080  0.2854 -0.0382  0.1373
75317W        W18229   6.786  29.866   0.091  0.1570  0.1527 -0.1912
75318W        W18230   7.915  31.894   1.229 -0.1193 -0.1034 -0.1236
75319W        W18231   6.116  30.224   3.514 -0.1795  0.1850  0.1649
75320W        W18232   6.582  30.313   1.493 -0.1614 -0.0874  0.3352
75321W        W18233   6.745  29.365   0.206 -0.0051 -0.1401 -0.0522
75322W        W18234   5.548  31.948   3.559 -0.2325  0.1586 -0.0613
75323W        W18235   2.857  30.321   0.117 -0.0061 -0.1859  0.0831
75324W        W18236   5.208  30.501  31.711 -0.1613 -0.1617  0.1710
75325W        W18237   5.616  29.934   2.858  0.0036 -0.1471 -0.4483
75326W        W18238   6.687  30.299   2.876 -0.0603 -0.3945  0.4366
75327W        W18239   5.215  30.385   3.211 -0.2025  0.0019  0.0036
75328W        W18240   4.780  31.756   2.444 -0.2371  0.1720 -0.2880
75329W        W18241   5.818  30.300   2.032 -0.5758  0.5406 -0.1414
75330W        W18242   7.793  32.564   0.258  0.0046  0.0179  0.0776
75331W        W18243   5.955  30.086   1.567 -0.2264 -0.1006 -0.0517
75332W        W18244   4.108  29.627   2.356  0.2245  0.0580  0.0283
75333W        W18245   7.278  32.928   1.448 -0.3152  0.0095  0.2220
75334W        W18246   7.257  31.949   0.661 -0.0104  0.0265 -0.0842
75335W        W18247   6.393  30.489   1.918  0.0491  0.0039 -0.0628
75336W        W18248   6.692  32.249   2.637  0.1089  0.2105  0.3610
75337W        W18249   2.504  30.769  30.851 -0.3004 -0.0251  0.5445
75338W        W18250   6.464  29.391   4.115  0.1626 -0.2115 -0.0858
75339W        W18251   5.097  30.320   3.829  0.0267  0.1088 -0.1650
75340W        W18252   3.679  29.934  31.722 -0.1170  0.0169 -0.1707
75341W        W18253   7.157  30.470   3.662  0.0015  0.1914  0.1312
75342W        W18254   5.204  33.165   0.809 -0.1593 -0.1299 -0.0051
75343W        W18255   6.766  31.996  31.969 -0.2170 -0.1162  0.0609
75344W        W18256   7.654  30.784   3.011 -0.2814 -0.0743 -0.1911
75345W        W18257   4.581  32.390   3.321  0.3552  0.0503 -0.0968
75346W        W18258   3.051  29.918   1.675 -0.0416  0.0132 -0.3883
75347W        W18259   7.076  30.979   0.805 -0.1930 -0.0399  0.3633
75348W        W18260   5.314  31.885   2.094  0.1494  0.0293 -0.0893
75349W        W18261   7.041  30.560   0.347  0.0430  0.1108  0.0947
75350W        W18262   7.081  29.351   2.172 -0.2978 -0.0581 -0.0421
75351W        W18263   6.296  29.536   0.324 -0.2179 -0.1977 -0.0605
75352W        W18264   4.268  29.365   1.273 -0.1246  0.2395  0.1212
75353W        W18265   5.460  30.461   4.597  0.0657  0.1134  0.0486
75354W        W18266   8.546  31.025   3.323  0.2284  0.1155 -0.0489
75355W        W18267   5.109  30.054   0.255 -0.3523  0.1204  0.1252
75356W        W18268   7.652  29.863   0.003 -0.2026  0.0978 -0.0641
75357W        W18269   6.803  32.120   0.482  0.1353  0.4517 -0.0997
75358W        W18270   4.205  31.653   1.302 -0.0225 -0.1305 -0.1865
75359W        W18271   5.541  30.219   0.662  0.0032 -0.0422  0.0021
75360W        W18272   6.173  30.097   2.892  0.0001 -0.1140 -0.0180
75361W        W18273   6.994  31.857   2.364  0.1943  0.2092  0.0578
75362W        W18274   7.699  31.442   3.215 -0.0492  0.3076 -0.1497
75363W        W18275   5.910  30.426   0.942  0.2788  0.0946  0.0387
75364W        W18276   8.586  30.991   0.833  0.2407  0.1357 -0.1451
75365W        W18277   6.191  32.850   2.204  0.0714  0.0447 -0.2807
75366W        W18278   7.600  31.767   2.733  0.1149 -0.1298 -0.0217
75367W        W18279   5.510  32.620   2.022  0.2310  0.0744  0.1337
75368W        W18280   6.662  31.313   2.919  0.2868  0.1092  0.0752
75369W        W18281   4.328  29.487   2.838 -0.2002 -0.0138  0.2081
75370W        W18282   4.923  31.123   0.996  0.1382 -0.1559 -0.3342
75371W        W18283   5.670  31.917   1.198 -0.1875 -0.0022 -0.2288
75372W        W18284   7.432  29.579   2.950  0.1003 -0.0889  0.1621
75373W        W18285   5.178  29.650   2.283 -0.1626  0.1193  0.1326
75374W        W18286   6.110  28.996  31.473 -0.2856 -0.1548 -0.0823
75375W        W18287   6.389  31.655   2.434  0.1336  0.0348 -0.1258
75376W        W18288   6.127  30.912   1.764 -0.0374  0.0923  0.0594
75377W        W18289   3.495  30.699   6.129 -0.0264 -0.1238  0.1972
75378W        W18290   3.576  29.850   3.987  0.1189  0.0333 -0.1086
75379W        W18291   8.042  29.391   3.810 -0.0110 -0.2305  0.2208
75380W        W18292   8.537  29.281   5.129  0.2460 -0.1114 -0.2054
75381W        W18293   2.828  29.348   5.736  0.6048 -0.0408 -0.3220
75382W        W18294   6.979  31.688   3.886  0.0522 -0.0707 -0.1332
75383W        W18295   4.211  30.255   6.187 -0.1747 -0.0852 -0.0378
75384W        W18296   5.265  32.036   5.837 -0.0048  0.1785  0.1708
75385W        W18297   7.930  32.798   4.154  0.0183 -0.1582  0.0386
75386W        W18298   6.940  31.045   4.625  0.0562 -0.0199 -0.1628
75387W        W18299   4.922  30.483   6.120 -0.2059 -0.0090 -0.0493
75388W        W18300   5.065  31.218   6.591 -0.1321  0.3197  0.0313
75389W        W18301   4.522  28.570   4.129 -0.2477  0.0171 -0.1129
75390W        W18302   2.703  29.506   6.622  0.5131 -0.0309  0.1974
75391W        W18303   6.769  31.028   6.759  0.0150 -0.1546 -0.0201
75392W        W18304   3.351  31.557   4.682 -0.0181  0.0896  0.2157
75393W        W18305   5.547  30.167   6.599 -0.1204  0.3292  0.1772
75394W        W18306   4.890  29.496   5.185 -0.0373 -0.1037  0.0751
75395W        W18307   5.554  32.289   4.944 -0.0612 -0.0608 -0.0654
75396W        W18308   5.193  29.586   7.106  0.2860  0.0700 -0.2310
75397W        W18309   6.293  30.063   7.639  0.0495 -0.5459 -0.2400
75398W        W18310   6.207  31.604   5.206 -0.3629  0.0454  0.1588
75399W        W18311   2.496  31.034   4.779  0.2201 -0.1571  0.1129
75400W        W18312   3.534  29.906   6.669  0.1094  0.0020 -0.2304
75401W        W18313   5.301  30.869   7.418 -0.2615  0.0715  0.1646
75402W        W18314   5.017  30.414   5.525  0.0783 -0.4699  0.1279
75403W        W18315   7.802  30.655   5.373  0.4761 -0.1305 -0.1954
75404W        W18316   5.296  32.863   5.148  0.0704 -0.1407 -0.0202
75405W        W18317   6.004  32.123   6.440  0.0926 -0.2727 -0.3831
75406W        W18318   5.125  30.366   6.589  0.0522 -0.0063  0.0730
75407W        W18319   3.719  31.128   4.801 -0.0897 -0.0751 -0.1162
75408W        W18320   3.654  31.597   5.009 -0.0979 -0.1177 -0.0115
75409W        W18321   4.314  32.325   4.815  0.1044  0.1479  0.0293
75410W        W18322   7.790  30.735   4.071 -0.1687 -0.0487 -0.0608
75411W        W18323   6.575  32.107   6.012  0.0146  0.2489  0.0214
75412W        W18324   5.657  33.729   8.241 -0.3251 -0.3967  0.1461
75413W        W18325   6.043  32.271   4.329 -0.2527 -0.0427 -0.2085
75414W        W18326   5.282  31.434   6.176 -0.2796  0.0406 -0.1832
75415W        W18327   3.819  33.337   7.878 -0.1385 -0.2051  0.2090
75416W        W18328   5.017  30.112   7.013  0.0472  0.1450  0.1698
75417W        W18329   6.343  30.855   6.544  0.1466  0.3176 -0.2654
75418W        W18330   4.553  31.474   5.200  0.1405  0.1372 -0.2814
75419W        W18331   5.117  30.811   5.261  0.1104 -0.1257  0.0899
75420W        W18332   5.254  30.825   6.256 -0.3789 -0.0229  0.0945
75421W        W18333   4.046  31.337   5.160  0.1742 -0.1125 -0.3332
75422W        W18334   6.814  30.278   7.682  0.1234  0.0361 -0.1608
75423W        W18335   5.484  32.236   2.820  0.3519 -0.0769 -0.2585
75424W        W18336   7.380  30.935   3.505  0.1291 -0.2310  0.0793
75425W        W18337   6.259  30.912   4.743  0.0357 -0.0150  0.2385
75426W        W18338   6.392  30.466   5.013 -0.0589 -0.1081  0.1905
75427W        W18339   4.849  29.395   5.687  0.0054  0.1706 -0.0247
75428W        W18340   5.096  32.515   6.781  0.0606  0.2852 -0.3711
75429W        W18341   4.154  30.811   5.532 -0.0157  0.0679 -0.3077
75430W        W18342   7.493  30.294   6.526  0.1412  0.0697  0.0620
75431W        W18343   6.027  30.335   5.371  0.0936  0.0504 -0.1720
75432W        W18344   6.391  31.140   5.974 -0.0153  0.1839 -0.3627
75433W        W18345   5.022  31.314   5.613  0.0201 -0.1182  0.1922
75434W        W18346   3.221  29.576   4.930  0.1200  0.3028 -0.1187
75435W        W18347   7.358  31.612   4.405 -0.1426  0.1066 -0.1838
75436W        W18348   7.840  33.123   2.922 -0.1146 -0.0945  0.0500
75437W        W18349   4.437  29.607   5.409 -0.1552  0.0297 -0.1672
75438W        W18350   2.792  30.809   7.008  0.1684 -0.0016 -0.0709
75439W        W18351   4.662  29.266   7.812 -0.1968  0.0635 -0.4973
75440W        W18352   3.816  29.649   2.702  0.0607  0.3972 -0.0581
75441W        W18353   6.235  31.324   6.510 -0.1492 -0.0413  0.4043
75442W        W18354   3.970  32.066   6.533  0.0854  0.0438  0.2891
75443W        W18355   6.875  28.660   6.269 -0.1467  0.1613  0.1951
75444W        W18356   4.423  31.146   4.752 -0.1551  0.1955 -0.2087
75445W        W18357   7.269  30.092   5.764  0.0335  0.1829  0.2615
75446W        W18358   6.651  30.670   4.636 -0.1455  0.0432 -0.0733
75447W        W18359   6.011  29.808   5.235  0.1365  0.2463 -0.1730
75448W        W18360   6.857  29.358   5.700  0.3285 -0.0285 -0.2391
75449W        W18361   4.593  30.235   3.404  0.1435 -0.2679 -0.0861
75450W        W18362   6.450  32.008   5.045  0.0328 -0.2285  0.0039
75451W        W18363   7.256  30.574   6.084  0.0996 -0.2047 -0.1695
75452W        W18364   6.904  30.304   4.154 -0.0826 -0.0881 -0.2908
75453W        W18365   4.668  32.067   5.605 -0.1632 -0.1259 -0.0346
75454W        W18366   6.273  30.092   7.050  0.2428  0.2419  0.0805
75455W        W18367   4.980  31.268   7.509 -0.2020 -0.1064  0.0324
75456W        W18368   4.956  32.183   4.160 -0.0722 -0.1300 -0.0147
75457W        W18369   3.117  32.756   6.252  0.0588 -0.0559 -0.1935
75458W        W18370   2.288  30.525   4.845  0.1982  0.0456  0.1798
75459W        W18371   3.918  30.576   6.872 -0.1797 -0.0953  0.2645
75460W        W18372   4.925  29.661   4.681 -0.1560 -0.1187  0.1861
75461W        W18373   6.952  28.802   4.514 -0.1041 -0.1857 -0.2579
75462W        W18374   3.289  31.982   5.671 -0.1607 -0.0752  0.0742
75463W        W18375   6.697  30.312   5.927  0.0079 -0.0524  0.2227
75464W        W18376   4.391  30.162   4.501  0.0857 -0.1591 -0.1268
75465W        W18377   7.734  33.059   4.636  0.3256 -0.1065  0.3417
75466W        W18378   7.528  29.990   3.387  0.0827 -0.0296 -0.0065
75467W        W18379   6.692  31.675   4.654 -0.0601 -0.0653 -0.4631
75468W        W18380   2.518  30.418   6.235  0.3392  0.1007 -0.0127
75469W        W18381   4.806  29.183   4.750 -0.0348  0.0400  0.2077
75470W        W18382   6.511  29.466   7.479 -0.0721 -0.0876  0.0065
75471W        W18383   3.948  30.626   5.973 -0.0656  0.3919 -0.0875
75472W        W18384   7.531  30.792   7.448 -0.1715 -0.0093 -0.0638
75473W        W18385   3.612  29.351   4.048  0.3095 -0.2792  0.2079
75474W        W18386   6.097  29.986   4.748 -0.1141 -0.2833  0.0099
75475W        W18387   4.454  29.410   4.346 -0.0138  0.1880  0.0470
75476W        W18388   2.893  31.352   4.776 -0.3611 -0.1518  0.3431
75477W        W18389   6.693  29.843   7.180  0.4134  0.2008 -0.0960
75478W        W18390   5.454  32.275   4.409 -0.3861  0.0546  0.1064
75479W        W18391   7.574  31.920   6.033 -0.1448  0.0957  0.3262
75480W        W18392   7.191  32.595   5.533 -0.1133 -0.3617  0.1935
75481W        W18393   4.283  31.699   6.642  0.0237 -0.0320 -0.0469
75482W        W18394   4.347  29.721   3.610 -0.1147 -0.4084  0.1491
75483W        W18395   3.896  32.509   5.134  0.0884 -0.5397 -0.0007
75484W        W18396   4.085  31.825   5.080 -0.1176 -0.0821 -0.2127
75485W        W18397   3.126  28.719   3.396 -0.3283  0.4110 -0.0977
75486W        W18398   7.935  30.168   5.225 -0.0425 -0.0354 -0.1224
75487W        W18399   5.544  31.308   4.083  0.0027  0.0032 -0.0264
75488W        W18400   3.886  31.855   7.028 -0.2954 -0.0045  0.3391
75489W        W18401   8.059  29.086   6.648  0.0322  0.0566  0.0150
75490W        W18402   7.617  31.446   6.203 -0.1045 -0.1641  0.0577
75491W        W18403   6.274  31.027   5.236 -0.1968  0.1186 -0.1941
75492W        W18404   4.716  29.833   4.257  0.0014  0.0826  0.0297
75493W        W18405   5.819  32.594   5.582 -0.3669 -0.1204  0.0243
75494W        W18406   4.474  32.231   4.124  0.0236 -0.0909 -0.0849
75495W        W18407   5.129  29.963   5.736  0.0842  0.3418 -0.4093
75496W        W18408   4.174  31.708   5.602 -0.4714  0.1355  0.3173
75497W        W18409   6.874  30.330   5.426  0.0231  0.1070 -0.0981
75498W        W18410   3.645  30.793   7.246  0.3046 -0.2000  0.0738
75499W        W18411   5.437  29.837   7.483 -0.0295  0.0250  0.1396
75500W        W18412   3.116  30.563   4.539  0.2052  0.3130 -0.0196
75501W        W18413   6.548  30.508   6.918 -0.0539 -0.0963  0.3367
75502W        W18414   6.095  29.042   5.515  0.4674 -0.0971 -0.2638
75503W        W18415   8.481  29.561   3.583  0.0323  0.0784  0.0746
75504W        W18416   5.751  30.564   7.480  0.1042 -0.0589  0.0576
75505W        W18417   7.384  30.452   4.279 -0.3087  0.1810  0.0676
75506W        W18418   7.037  29.547   4.012  0.0133  0.1302  0.3074
75507W        W18419   6.214  29.096   3.727  0.0941 -0.1594 -0.1312
75508W        W18420   3.940  30.883   7.773  0.3971 -0.1187  0.0159
75509W        W18421   7.055  32.072   4.939  0.1120 -0.2762 -0.1742
75510W        W18422   5.573  30.556   5.435 -0.0620  0.3455 -0.0659
75511W        W18423   5.904  29.547   4.028  0.1592  0.0124 -0.3011
75512W        W18424   7.509  31.001   4.635  0.0804  0.0146  0.0254
75513W        W18425   3.816  32.619   6.867  0.0259 -0.3115 -0.0442
75514W        W18426   5.566  31.146   6.491  0.1532 -0.2098 -0.1348
75515W        W18427   8.336  31.321   4.396 -0.0178 -0.3053  0.1823
75516W        W18428   5.283  29.610   6.159 -0.1370  0.0936  0.2967
75517W        W18429   4.345  31.318   3.332 -0.1227  0.0202 -0.1054
75518W        W18430   5.189  29.836   6.658 -0.2437  0.2035 -0.0753
75519W        W18431   5.580  33.325   3.790 -0.0273 -0.2678 -0.3057
75520W        W18432   8.075  30.079   7.204  0.0935  0.1087 -0.0894
75521W        W18433   7.203  29.772   4.834  0.0277 -0.0193 -0.0995
75522W        W18434   7.057  29.055   6.022 -0.3885  0.5169  0.0320
75523W        W18435   7.354  30.609   5.627 -0.0242 -0.2804 -0.2878
75524W        W18436   7.819  29.892   4.377 -0.1549 -0.1400 -0.2859
75525W        W18437   6.911  30.846   5.694 -0.0588 -0.2927 -0.3017
75526W        W18438   5.352  29.849   4.865 -0.1379 -0.1997 -0.1211
75527W        W18439   4.561  29.993   5.841  0.3693 -0.1202  0.3970
75528W        W18440   4.083  30.968   7.316 -0.0293 -0.0400 -0.0148
75529W        W18441   3.835  32.296   7.319  0.1912  0.3151  0.0361
75530W        W18442   6.749  31.468   6.491 -0.1760 -0.2611  0.0056
75531W        W18443   8.142  29.685   5.242  0.1182  0.1605 -0.1926
75532W        W18444   5.707  29.740   6.962  0.0148  0.0498 -0.1308
75533W        W18445   4.022  28.808   4.221 -0.1537  0.0288  0.1690
75534W        W18446   5.220  32.649   4.656 -0.0488 -0.1831 -0.1843
75535W        W18447   4.419  30.789   3.418  0.0998 -0.0902  0.1382
75536W        W18448   4.675  29.640   7.443 -0.0252  0.0101 -0.1018
75537W        W18449   5.986  31.878   5.626  0.0084  0.0473 -0.1032
75538W        W18450   6.113  32.198   3.801  0.2592 -0.0771  0.2502
75539W        W18451   5.977  30.992   6.211  0.1015  0.3602  0.3011
75540W        W18452   4.383  31.413   4.325  0.0335 -0.1433 -0.2039
75541W        W18453   7.187  28.654   7.679 -0.1467  0.2283 -0.1798
75542W        W18454   3.296  33.229   6.153  0.1951 -0.0030  0.1607
75543W        W18455   4.975  30.748   4.770 -0.0419  0.2366 -0.3294
75544W        W18456   3.963  30.094   4.240  0.0952 -0.1520 -0.0327
75545W        W18457   7.696  29.674   4.930 -0.3421  0.1142 -0.0500
75546W        W18458   7.356  31.398   3.826 -0.1610 -0.1972  0.1604
75547W        W18459   4.603  30.985   5.261 -0.0249  0.1820  0.2777
75548W        W18460   6.168  30.260   6.573  0.1227 -0.1276 -0.0187
75549W        W18461   3.065  33.293   5.713 -0.0327  0.0771  0.1917
75550W        W18462   6.684  31.288   5.492  0.0269 -0.1031  0.1673
75551W        W18463   6.713  29.822   5.705 -0.2719 -0.3389  0.4955
75552W        W18464   7.548  31.081   5.629  0.0555  0.0051 -0.1458
75553W        W18465   4.796  30.773   6.483 -0.1881 -0.0013 -0.2152
75554W        W18466   3.470  30.320   4.196  0.0832 -0.3318  0.0450
75555W        W18467   7.089  30.661   6.675 -0.0824  0.4181  0.2116
75556W        W18468   3.951  28.331   4.310  0.0690 -0.1257  0.3631
75557W        W18469   3.323  31.193   5.053  0.3726 -0.0518  0.0789
75558W        W18470   5.406  31.385   5.187  0.0320 -0.0592 -0.0631
75559W        W18471   5.795  30.929   3.863  0.1378  0.2311  0.0379
75560W        W18472   5.285  31.759   4.883 -0.1081 -0.0626 -0.3299
75561W        W18473   4.617  30.728   7.407  0.0567  0.2618 -0.0691
75562W        W18474   6.777  30.968   6.259  0.1885  0.1094 -0.1677
75563W        W18475   4.802  30.857   5.743  0.1419 -0.0807  0.2113
75564W        W18476   5.296  29.551   5.504 -0.0297 -0.3221 -0.0928
75565W        W18477   5.747  29.861   4.378  0.2722  0.1038 -0.0522
75566W        W18478   7.662  31.053   5.066  0.2072  0.0315  0.2856
75567W        W18479   6.777  30.104   6.742  0.1948 -0.1793  0.3233
75568W        W18480   4.119  31.355   6.999 -0.1577  0.1749 -0.1351
75569W        W18481   7.097  30.101   6.278 -0.0432  0.3034  0.1165
75570W        W18482   8.243  31.915   4.797  0.0334  0.0040 -0.1309
75571W        W18483   5.085  29.063   6.372 -0.3206 -0.1902 -0.1261
75572W        W18484   4.134  30.842   5.019 -0.2632 -0.0406  0.2456
75573W        W18485   3.658  32.044   5.255 -0.1053 -0.0254  0.0184
75574W        W18486   4.009  31.064   4.343 -0.0153 -0.2418  0.0845
75575W        W18487   4.905  30.001   5.237  0.0810 -0.2657 -0.0890
75576W        W18488   3.975  31.750   6.118  0.0760 -0.1685 -0.3227
75577W        W18489   4.926  31.695   5.912  0.1778 -0.3573 -0.1608
75578W        W18490   3.796  32.059   5.772 -0.0721  0.1220 -0.0496
75579W        W18491   8.237  29.272   4.723  0.0921 -0.0861 -0.1757
75580W        W18492   7.646  31.192   4.211  0.2844 -0.1608 -0.1777
75581W        W18493   6.152  29.790   6.606 -0.1318 -0.0764  0.0101
75582W        W18494   8.136  28.932   7.313  0.2485 -0.1696 -0.3517
75583W        W18495   6.565  31.764   4.176  0.2343  0.2866 -0.0504
75584W        W18496   7.023  30.276   7.158  0.0870 -0.1758  0.1994
75585W        W18497   4.652  30.284   6.492  0.2122 -0.1751 -0.2754
75586W        W18498   8.459  33.563   4.156 -0.0291  0.4350  0.1424
75587W        W18499   4.809  31.919   7.417  0.2005 -0.0792 -0.3033
75588W        W18500   5.782  31.665   6.510  0.1410  0.2121 -0.1594
75589W        W18501   4.245  29.964   7.389  0.1374 -0.0776 -0.1386
75590W        W18502   7.235  30.894   5.248  0.2481 -0.0808 -0.0177
75591W        W18503   5.879  30.004   3.880  0.2336 -0.1801 -0.0268
75592W        W18504   5.284  30.794   6.784  0.1131  0.0850  0.1739
75593W        W18505   7.965  30.110   6.681 -0.2170 -0.1111  0.0024
75594W        W18506   5.383  31.301   4.709 -0.1560  0.0467 -0.0221
75595W        W18507   7.268  29.956   4.318  0.1978  0.0085 -0.0826
75596W        W18508   4.565  32.099   6.645  0.0793 -0.0297 -0.0467
75597W        W18509   7.353  29.452   4.431  0.4007  0.1585  0.2068
75598W        W18510   7.197  31.412   5.448  0.1470 -0.1095  0.0520
75599W        W18511   5.720  31.761   4.496  0.0519 -0.0322 -0.0271
75600W        W18512   4.935  28.809   6.788 -0.0910  0.4234 -0.0638
75601W        W18513   6.351  32.282   5.520 -0.0783  0.1175 -0.0041
75602W        W18514   6.483  30.097   5.305 -0.0226  0.0389 -0.2078
75603W        W18515   7.184  29.567   6.428  0.1168 -0.0627 -0.0690
75604W        W18516   7.156  31.193   6.483  0.0027  0.0383 -0.0076
75605W        W18517   6.285  30.558   6.111 -0.2912 -0.0889  0.4008
75606W        W18518   3.635  29.681   7.175 -0.1175  0.2119  0.2071
75607W        W18519   6.235  31.700   6.029  0.2940 -0.2359 -0.1330
75608W        W18520   8.213  30.425   3.836  0.3066  0.2367  0.2163
75609W        W18521   7.037  28.572   5.798 -0.0878  0.0812  0.3274
75610W        W18522   7.669  29.835   5.420 -0.2999  0.0009 -0.3526
75611W        W18523   6.680  30.514   3.455  0.0508 -0.2723  0.1124
75612W        W18524   3.754  30.338   5.233  0.1166  0.0674  0.0250
75613W        W18525   7.474  31.032   6.931  0.2769  0.0834 -0.3691
75614W        W18526   5.242  30.092   4.314  0.1393 -0.1252 -0.2711
75615W        W18527   6.174  29.080   7.265 -0.3134  0.0078 -0.0455
75616W        W18528   6.699  32.105   3.662  0.3381  0.0090  0.0682
75617W        W18529   5.742  31.756   5.007  0.0424  0.1403 -0.0812
75618W        W18530   6.785  30.785   5.108 -0.1119  0.1206  0.0687
75619W        W18531   4.035  29.884   5.390  0.1026  0.0348 -0.0340
75620W        W18532   4.257  32.534   6.436 -0.0983 -0.1669 -0.1205
75621W        W18533   3.928  30.511   4.567  0.1884 -0.1345  0.1408
75622W        W18534   6.923  30.213   4.939  0.3381  0.2101 -0.2788
75623W        W18535   5.334  32.612   5.623 -0.0999  0.1437  0.0804
75624W        W18536   7.816  30.572   7.891  0.0564  0.0001  0.2872
75625W        W18537   4.894  28.694   4.582 -0.2329 -0.1328 -0.3158
75626W        W18538   6.340  31.013   7.008  0.3239  0.2194 -0.0186
75627W        W18539   4.658  30.977   4.293 -0.1091 -0.0042 -0.1285
75628W        W18540   6.049  30.809   5.664 -0.1052  0.0200 -0.0170
75629W        W18541   4.741  33.871   7.098  0.0880 -0.0645  0.1776
75630W        W18542   3.158  32.058   7.275  0.0237 -0.1735  0.1790
75631W        W18543   4.534  32.555   5.351 -0.1202  0.1853 -0.2086
75632W        W18544   6.497  29.948   6.227  0.0670 -0.0361 -0.1469
75633W        W18545   8.337  30.428   5.396 -0.0120 -0.2312  0.0800
75634W        W18546   4.202  30.291   4.935  0.0348  0.0629  0.2109
75635W        W18547   7.220  29.899   7.889 -0.0319 -0.0350  0.0399
75636W        W18548   5.640  31.898   6.970  0.0733  0.1311  0.1666
75637W        W18549   4.975  31.280   5.048  0.0419 -0.0619 -0.2441
75638W        W18550   5.925  32.879   7.064  0.1469  0.3347 -0.0886
75639W        W18551   7.763  30.694   5.937 -0.1327 -0.1683 -0.0303
75640W        W18552   3.685  31.592   5.460  0.2123 -0.0681  0.0775
75641W        W18553   3.496  31.054   5.773 -0.0479  0.0336  0.0620
75642W        W18554   6.184  32.149   7.631  0.1420  0.0780 -0.0055
75643W        W18555   4.716  30.470   5.109  0.2165 -0.1242 -0.1882
75644W        W18556   2.705  28.758   4.469 -0.1527  0.0878  0.1349
75645W        W18557   6.594  32.162   4.588  0.1134 -0.0052 -0.4948
75646W        W18558   4.440  31.519   6.211  0.0944  0.3104  0.1140
75647W        W18559   3.970  31.215   5.685  0.1734 -0.2197  0.2687
75648W        W18560   4.745  31.767   4.031  0.3837  0.0395  0.0362
75649W        W18561   6.245  30.634   3.783 -0.0887  0.1967 -0.1496
75650W        W18562   5.928  30.714   5.100 -0.1174 -0.0712 -0.1700
75651W        W18563   7.091  31.860   5.678 -0.0135 -0.1090  0.3250
75652W        W18564   5.473  30.856   4.897  0.1917  0.0642 -0.0417
75653W        W18565   4.989  32.317   5.363 -0.0549 -0.1071 -0.0847
75654W        W18566   3.548  30.824   4.439  0.1148  0.2884 -0.0386
75655W        W18567   7.636  33.205   3.827 -0.3020 -0.2338  0.1152
75656W        W18568   3.648  32.950   5.274 -0.0260  0.1489 -0.0827
75657W        W18569   6.085  32.349   7.199 -0.4092  0.3549  0.2506
75658W        W18570   7.607  28.481   4.456 -0.1553 -0.1010 -0.0371
75659W        W18571   7.904  30.324   6.253  0.4383 -0.0114 -0.4582
75660W        W18572   8.028  29.269   5.390 -0.0369  0.1561 -0.1306
75661W        W18573   4.892  31.558   6.949 -0.1509 -0.1889 -0.0956
75662W        W18574   5.770  30.593   6.535  0.0472 -0.1679  0.0403
75663W        W18575   5.736  30.235   4.994  0.1636  0.0902  0.1625
75664W        W18576   4.042  31.321   7.885 -0.0385  0.0036 -0.2541
75665W        W18577   6.310  28.452   7.266 -0.1881 -0.0862 -0.1391
75666W        W18578   4.138  33.840   6.946  0.2570 -0.2169  0.0381
75667W        W18579   6.670  32.283   4.132 -0.1651 -0.0152  0.0871
75668W        W18580   4.399  30.184   5.383  0.0908 -0.0593  0.2109
75669W        W18581   5.210  30.959   4.415  0.1958  0.0070  0.2281
75670W        W18582   7.360  28.098   5.955 -0.0588 -0.1670  0.0406
75671W        W18583   6.147  31.906   4.701  0.0935  0.1801 -0.1456
75672W        W18584   6.896  31.732   5.278 -0.0477  0.3670 -0.0548
75673W        W18585   6.208  32.702   5.199  0.1343 -0.0826 -0.1153
75674W        W18586   5.514  31.606   5.652 -0.0892  0.2440  0.0521
75675W        W18587   4.904  33.124   5.885 -0.2232 -0.0149  0.1284
75676W        W18588   2.650  28.309   4.882 -0.0794 -0.0762 -0.1407
75677W        W18589   9.686  29.781   4.941 -0.0816 -0.0117 -0.1283
75678W        W18590   3.763  31.116   6.790 -0.3208 -0.1222 -0.1641
75679W        W18591   7.574  28.906   6.554 -0.1710  0.3849 -0.0546
75680W        W18592   4.127  29.736   4.564  0.1766 -0.2392 -0.1911
75681W        W18593   7.957  28.779   4.572  0.0071 -0.4122 -0.1275
75682W        W18594   5.502  30.371   7.056  0.0296  0.0126 -0.0372
75683W        W18595   4.425  30.352   6.948 -0.0122 -0.1206  0.0588
75684W        W18596   6.219  30.134   5.802 -0.0077  0.0780 -0.0526
75685W        W18597   7.906  31.916   4.323  0.0767  0.2770 -0.0576
75686W        W18598   6.617  31.264   4.906 -0.2326 -0.1027 -0.0119
75687W        W18599   6.500  32.226   6.887 -0.2674 -0.2175 -0.0100
75688W        W18600   3.579  29.651   4.523  0.1376  0.1367  0.0917
75689W        W18601   6.717  28.925   4.973  0.1391  0.1880 -0.1578
75690W        W18602   4.324  29.331   4.892  0.0652  0.0658 -0.0782
75691W        W18603   5.921  30.010   6.205  0.0188  0.1592  0.3186
75692W        W18604   6.253  33.136   6.677  0.0567  0.1777  0.1232
75693W        W18605   3.596  27.909   5.136 -0.0361 -0.0271  0.0444
75694W        W18606   7.216  31.438   4.931  0.0544 -0.2593 -0.0659
75695W        W18607   7.949  28.031   6.155  0.1526  0.0947 -0.0485
75696W        W18608   4.819  32.103   2.928  0.1916 -0.1636  0.3340
75697W        W18609   6.427  30.567   5.515 -0.2543 -0.1918 -0.1447
75698W        W18610   7.742  31.597   5.643  0.1089 -0.1108 -0.1306
75699W        W18611   4.484  30.494   5.794 -0.0273  0.2912 -0.1138
75700W        W18612   8.754  31.482   6.769 -0.1334 -0.4710 -0.1084
75701W        W18613   8.902  32.412   6.250 -0.3665  0.1233  0.1237
75702W        W18614   6.546  29.830   4.863  0.2660 -0.0861 -0.1262
75703W        W18615   4.605  29.819   6.966  0.4343  0.3999 -0.1695
75704W        W18616   4.868  31.448   4.526 -0.0804 -0.0380 -0.1980
75705W        W18617   8.244  28.864   5.180 -0.1242  0.1599  0.3347
75706W        W18618   7.236  31.211   5.968  0.0221  0.1953 -0.1333
75707W        W18619   6.625  32.691   4.485  0.3376 -0.2081 -0.0446
75708W        W18620   6.718  29.152   6.999 -0.1292  0.0061 -0.1294
75709W        W18621   5.314  31.730   7.357 -0.0955  0.1384 -0.1983
75710W        W18622   4.936  33.274   8.719  0.1143  0.0913 -0.1272
75711W        W18623   2.969  32.991   4.778  0.3179 -0.5912  0.0415
75712W        W18624   4.304  30.609   6.527  0.4968  0.0103  0.3531
75713W        W18625   4.649  32.026   5.094 -0.3452  0.3088 -0.0431
75714W        W18626   6.002  32.197   5.205  0.1108 -0.1187 -0.0155
75715W        W18627   7.739  31.834   4.873 -0.2535  0.0305 -0.4005
75716W        W18628   7.184  30.577   4.763 -0.1788  0.4250 -0.3062
75717W        W18629   8.140  30.885   5.173  0.0818 -0.1837  0.0526
75718W        W18630   5.261  29.056   5.429 -0.1892 -0.2181 -0.1182
75719W        W18631   6.705  28.415   4.788  0.0065 -0.0532  0.0265
75720W        W18632   6.475  29.560   5.313 -0.1654  0.0730 -0.0868
75721W        W18633   5.772  31.402   6.032 -0.1125  0.2629  0.1070
75722W        W18634   3.621  30.488   3.122  0.1455  0.0944  0.1464
75723W        W18635   4.682  31.130   3.023 -0.2595 -0.0253 -0.1525
75724W        W18636   4.923  30.180   4.730 -0.0647 -0.2851 -0.0248
75725W        W18637   6.079  29.329   8.257  0.2825 -0.1169  0.1116
75726W        W18638   4.447  30.597   8.783 -0.1773  0.1086  0.0894
75727W        W18639   3.551  31.491   6.049 -0.2847  0.1559  0.2746
75728W        W18640   3.833  29.980   4.887  0.0560  0.1283 -0.1683
75729W        W18641   8.089  30.019   4.750  0.2109 -0.1903  0.2447
75730W        W18642   2.168  29.740   6.735  0.2631  0.2132 -0.2616
75731W        W18643   3.831  30.321   6.496  0.2308  0.0471 -0.0354
75732W        W18644   7.381  30.397   5.179  0.1568  0.1051  0.0476
75733W        W18645   5.522  32.107   5.394  0.0818 -0.4183 -0.2930
75734W        W18646   5.266  30.372   5.111 -0.0540 -0.1567 -0.0796
75735W        W18647   7.332  32.752   6.070 -0.0814 -0.3226 -0.2999
75736W        W18648   3.940  31.370   3.976  0.1404  0.2180  0.1427
75737W        W18649   5.934  31.011   7.874 -0.0760 -0.0608  0.0604
75738W        W18650   4.862  30.562   6.979  0.0837 -0.1048  0.2149
75739W        W18651   2.433  30.710   3.374 -0.1808 -0.1229 -0.2397
75740W        W18652   5.669  31.050   5.472  0.0670  0.0647  0.0216
75741W        W18653   6.611  33.526   5.273 -0.1242  0.1785 -0.1001
75742W        W18654   7.447  33.055   4.230  0.0833  0.0349  0.2269
75743W        W18655   4.860  31.200   6.091  0.2240  0.0336 -0.0760
75744W        W18656   5.028  32.043   6.808 -0.0129  0.2851  0.1671
75745W        W18657   4.437  29.970   7.820  0.0223  0.1834 -0.0292
75746W        W18658   6.054  31.324   5.627  0.1169  0.1010  0.0956
75747W        W18659   4.354  30.918   6.099  0.1100 -0.1177 -0.0427
75748W        W18660   6.636  31.442   3.460  0.3212  0.1672 -0.0628
75749W        W18661   7.716  28.907   5.373 -0.2292  0.1176 -0.0710
75750W        W18662   6.904  31.375   4.259 -0.2058  0.3465 -0.4545
75751W        W18663   3.888  30.117   7.030 -0.1326 -0.0533 -0.0776
75752W        W18664   4.504  31.236   7.317  0.1205 -0.2553 -0.0074
75753W        W18665   7.382  31.851   5.235  0.2224  0.1723 -0.1386
75754W        W18666   2.842  29.446   5.176 -0.2770 -0.0874 -0.0927
75755W        W18667   7.269  29.550   5.901  0.2356 -0.0529 -0.0612
75756W        W18668   6.516  30.237   4.456  0.1758 -0.3626  0.3214
75757W        W18669   4.317  30.571   4.196  0.3469  0.5403 -0.1732
75758W        W18670   5.702  30.539   5.931  0.3657  0.0642  0.1221
75759W        W18671   5.839  30.078   7.957  0.1032  0.1251  0.0816
75760W        W18672   6.172  31.418   4.751  0.2389  0.0381  0.2040
75761W        W18673   5.852  31.398   6.974  0.1563 -0.0484  0.1213
75762W        W18674   5.530  30.058   5.398  0.1676  0.0396  0.1110
75763W        W18675   7.638  30.480   3.448  0.0480  0.0232 -0.1499
75764W        W18676   4.934  32.406   5.857  0.2671 -0.0736  0.1840
75765W        W18677   7.736  32.067   6.680  0.2300  0.1554 -0.0007
75766W        W18678   5.279  31.686   6.590 -0.0489  0.1788 -0.0755
75767W        W18679   6.574  29.084   6.505  0.4121 -0.4991  0.1049
75768W        W18680   5.185  30.322   7.433  0.2799  0.1385  0.0243
75769W        W18681   6.075  31.417   4.040 -0.1431 -0.0472  0.0369
75770W        W18682   7.568  30.109   4.778  0.0692 -0.2487  0.0819
75771W        W18683   7.673  29.233   5.725 -0.3239 -0.0779 -0.2619
75772W        W18684   6.283  29.451   4.587  0.2694  0.0140  0.3181
75773W        W18685   5.827  28.391   3.760  0.0121  0.1139  0.1655
75774W        W18686   3.346  32.660   4.940  0.0441  0.3579 -0.0353
75775W        W18687   5.284  30.874   5.771 -0.0488 -0.2980  0.1211
75776W        W18688   2.334  31.068  10.006 -0.0604 -0.0195 -0.1870
75777W        W18689   3.135  30.536   8.415  0.1501 -0.2824 -0.0079
75778W        W18690   7.212  29.879   6.838  0.2511 -0.2491 -0.2292
75779W        W18691   7.722  31.052   8.606  0.1941  0.0534 -0.4150
75780W        W18692   4.381  29.376   7.073 -0.1477 -0.0929  0.1220
75781W        W18693   7.446  33.732   8.060  0.0185 -0.0216  0.1476
75782W        W18694   4.827  31.647   8.291 -0.0114 -0.1204  0.0450
75783W        W18695   7.822  33.568   8.595  0.3148  0.0050 -0.4049
75784W        W18696   6.496  31.898   7.346 -0.2281  0.1047 -0.1075
75785W        W18697   5.207  32.165   8.269 -0.0629 -0.0397 -0.0946
75786W        W18698   4.321  29.585   8.613  0.3009 -0.0279 -0.2323
75787W        W18699   1.898  29.064   9.638 -0.1311 -0.0259  0.1738
75788W        W18700   7.404  31.819   9.471  0.1999  0.1400 -0.0147
75789W        W18701   2.814  31.244   7.423 -0.0189  0.2414  0.2718
75790W        W18702   3.226  29.551   9.147 -0.0373 -0.3657 -0.1049
75791W        W18703   2.152  30.932   9.545  0.0308 -0.1293  0.3887
75792W        W18704   4.310  31.799   8.272  0.1214 -0.1885 -0.1696
75793W        W18705   3.298  28.877   9.057 -0.2843  0.2099 -0.4088
75794W        W18706   5.088  32.313   7.663  0.2642  0.0053  0.1621
75795W        W18707   3.455  31.647   8.556  0.0634  0.0436 -0.3816
75796W        W18708   2.787  30.426   9.272  0.2196  0.4319 -0.3206
75797W        W18709   6.273  30.943   9.654  0.0586  0.0851  0.2193
75798W        W18710   6.128  29.631   7.871  0.0663  0.0853 -0.0117
75799W        W18711   5.930  31.568   8.894  0.0735  0.2860 -0.0829
75800W        W18712   5.006  32.918   8.344 -0.1485 -0.1934  0.0606
75801W        W18713   5.598  32.426   8.101  0.1200  0.1566 -0.0210
75802W        W18714   3.117  31.378   8.099  0.2720 -0.0263  0.0012
75803W        W18715   3.503  31.396   9.238  0.3071  0.1279 -0.2736
75804W        W18716   5.484  30.867   7.919  0.0711 -0.1868 -0.1839
75805W        W18717   6.311  33.056   7.970  0.0486 -0.0251  0.2434
75806W        W18718   4.861  31.048   7.027  0.3879 -0.1800 -0.1888
75807W        W18719   4.130  31.199   9.102  0.0305  0.1336  0.1625
75808W        W18720   3.902  31.049   8.295 -0.1259  0.1122 -0.1293
75809W        W18721   4.420  31.071   7.747 -0.0721 -0.1303  0.0113
75810W        W18722   4.739  30.672   8.362 -0.1662 -0.2966  0.0967
75811W        W18723   2.970  31.295   8.698  0.0095  0.0733  0.1003
75812W        W18724   4.840  31.739   6.397 -0.1067  0.0672  0.3697
75813W        W18725   7.136  29.879   7.398  0.0020 -0.0834  0.0176
75814W        W18726   3.958  30.312   7.801  0.2135  0.2663 -0.2689
75815W        W18727   7.314  29.761   8.957  0.1092 -0.1888  0.0310
75816W        W18728   4.237  29.241   9.011  0.4270 -0.3115 -0.1215
75817W        W18729   4.176  32.151   9.237 -0.0742  0.5112 -0.0907
75818W        W18730   4.360  30.067   8.655  0.0728 -0.2581 -0.1083
75819W        W18731   5.541  30.980   9.566  0.2830 -0.1675 -0.2390
75820W        W18732   3.599  30.732   8.678 -0.0844  0.1573  0.0213
75821W        W18733   1.385  33.599  12.618 -0.2608  0.0568 -0.1104
75822W        W18734   3.887  31.704   9.553 -0.3341 -0.4673  0.0976
75823W        W18735   6.528  31.889   6.447  0.1363 -0.0731  0.0606
75824W        W18736   6.412  31.704   8.893 -0.1327  0.0908 -0.1149
75825W        W18737   6.007  32.322   8.902 -0.5567  0.1196  0.0188
75826W        W18738   3.253  31.019   7.703  0.0559  0.0181 -0.0331
75827W        W18739   5.684  29.290   7.273  0.1987  0.0405  0.0199
75828W        W18740   7.622  29.463   7.950  0.2093  0.1841  0.1586
75829W        W18741   5.054  31.244   7.991  0.1960  0.1650 -0.0311
75830W        W18742   7.811  31.780   9.131  0.0178  0.0402 -0.2207
75831W        W18743   5.657  31.795   8.035  0.2795 -0.0108 -0.2734
75832W        W18744   6.016  28.244   8.945 -0.0811  0.0411  0.1189
75833W        W18745   6.829  28.436   9.643 -0.0449 -0.0223  0.1120
75834W        W18746   4.969  30.730   7.881  0.0936  0.0063 -0.1939
75835W        W18747   5.840  31.686   7.468  0.2182 -0.1244  0.0707
75836W        W18748   5.475  32.378   8.698  0.2654 -0.1108 -0.1566
75837W        W18749   6.834  30.425   8.376  0.0280 -0.0200  0.0371
75838W        W18750   5.264  32.787   8.996 -0.2115 -0.2572  0.2805
75839W        W18751   4.432  32.877   6.833 -0.1327 -0.1657  0.3729
75840W        W18752   2.549  30.130   8.894 -0.0352 -0.0325  0.0580
75841W        W18753   3.669  31.251   7.406 -0.2183 -0.2631  0.0262
75842W        W18754   3.859  29.107   9.423  0.1582  0.1865  0.0891
75843W        W18755   3.175  30.610   8.889  0.0411  0.1465  0.1379
75844W        W18756   7.159  30.666   8.739 -0.0460 -0.2638 -0.1766
75845W        W18757   7.636  28.469   7.806  0.0929  0.0117  0.1847
75846W        W18758   4.864  30.307   8.678  0.2382  0.1993  0.3020
75847W        W18759   7.836  32.978   8.343 -0.0303  0.0688 -0.0024
75848W        W18760   7.791  31.314   9.401  0.0790 -0.2002  0.0518
75849W        W18761   6.921  31.822   7.080  0.1251 -0.0160 -0.0587
75850W        W18762   0.901  29.181   9.384  0.2649 -0.1788 -0.0239
75851W        W18763   2.557  30.579   8.280  0.1081 -0.0921  0.4289
75852W        W18764   3.173  29.076   7.865 -0.0234  0.1363 -0.5374
75853W        W18765   3.825  28.075   7.359  0.2472 -0.0272 -0.0789
75854W        W18766   4.138  27.819   9.508  0.0325  0.1664  0.0842
75855W        W18767   4.103  30.108   9.101  0.2359 -0.2586 -0.2304
75856W        W18768   4.071  30.909   8.709 -0.1149  0.2644  0.2007
75857W        W18769   5.472  32.783   8.456 -0.0001  0.1319  0.2551
75858W        W18770   7.255  34.046   8.594 -0.0987 -0.0101 -0.0821
75859W        W18771   6.240  31.667   9.351 -0.2982  0.0086  0.1335
75860W        W18772   2.505  32.203  10.232  0.3292  0.0277  0.2350
75861W        W18773   5.450  29.833   8.742  0.2541 -0.0568  0.0636
75862W        W18774   2.683  32.534   9.893 -0.0400  0.0212  0.4010
75863W        W18775   5.199  30.463   8.260 -0.0479 -0.0845 -0.0467
75864W        W18776   4.932  30.212   7.882  0.1076 -0.0085 -0.1934
75865W        W18777   5.191  32.287   9.067 -0.2942 -0.0306 -0.1691
75866W        W18778   6.316  32.195   8.538 -0.1159  0.0230 -0.0463
75867W        W18779   6.727  29.156   8.355 -0.0635 -0.1399 -0.4018
75868W        W18780   5.709  29.840   9.621 -0.0666  0.1435  0.1619
75869W        W18781   3.854  29.783   7.704 -0.1590 -0.0650 -0.1359
75870W        W18782   6.574  32.084   9.338 -0.1580 -0.3801  0.1476
75871W        W18783   4.623  32.455   7.598  0.3763  0.0138 -0.0939
75872W        W18784   3.040  31.794   7.819 -0.1560  0.0132  0.1530
75873W        W18785   6.076  30.494   7.875 -0.2416  0.1468 -0.0564
75874W        W18786   8.469  30.347   8.222  0.1339 -0.1830  0.1384
75875W        W18787   4.673  30.229   7.414 -0.2047  0.2521 -0.0080
75876W        W18788   5.834  28.759   8.181  0.0086  0.0212 -0.3590
75877W        W18789   7.763  29.905   7.571 -0.1081 -0.1760 -0.0911
75878W        W18790   6.214  32.569   8.002  0.0056  0.0630 -0.0160
75879W        W18791   7.149  29.289   8.150 -0.3352  0.0623 -0.1272
75880W        W18792   6.572  29.946   8.729  0.2964  0.1502  0.0056
75881W        W18793   5.177  31.612  12.736  0.2352 -0.0146 -0.0538
75882W        W18794   3.658  32.154   9.462  0.2424  0.1728  0.0626
75883W        W18795   5.662  29.490   7.757 -0.0036 -0.0611 -0.1634
75884W        W18796   6.486  33.562   8.300 -0.0524 -0.1172 -0.1125
75885W        W18797   3.650  30.452   9.137 -0.1445  0.0220  0.1652
75886W        W18798   5.341  30.958   8.381  0.2380 -0.0083 -0.0308
75887W        W18799   5.637  30.358   9.512  0.0663 -0.1276  0.2214
75888W        W18800   6.615  30.652   7.988  0.1228 -0.3730 -0.0550
75889W        W18801   4.723  29.269   8.797  0.0245 -0.1606  0.2569
75890W        W18802   3.690  33.569   7.114  0.4181  0.0859  0.1283
75891W        W18803   6.339  28.414   9.305  0.0609  0.0264 -0.1742
75892W        W18804   6.703  28.851   9.359  0.0896 -0.0466  0.1401
75893W        W18805   6.426  30.192   8.115  0.1183  0.0738 -0.3724
75894W        W18806   4.663  29.095   9.710  0.1881  0.1498  0.0884
75895W        W18807   4.392  30.930   6.883  0.0462  0.0395  0.0489
75896W        W18808   3.039  29.226   8.736 -0.3465 -0.0777  0.0955
75897W        W18809   1.642  31.815  10.978  0.0243 -0.1851  0.1417
75898W        W18810   5.057  31.928   8.663 -0.1101  0.1363 -0.1116
75899W        W18811   6.120  29.898   8.503 -0.0764 -0.2357 -0.0695
75900W        W18812   4.829  33.757   8.309  0.2116  0.1122 -0.0942
75901W        W18813   6.107  29.627   7.354  0.0313 -0.1941  0.0833
75902W        W18814   3.311  29.121   9.519 -0.3869 -0.0523  0.0445
75903W        W18815   4.537  32.655   8.362  0.0702 -0.2517  0.0726
75904W        W18816   4.586  31.562   7.790  0.0473 -0.1226 -0.4043
75905W        W18817   2.039  30.701  10.239  0.0154 -0.2538  0.0404
75906W        W18818   4.006  32.355   8.794  0.0777 -0.0199  0.0010
75907W        W18819   4.662  28.040   9.515  0.0325  0.2549  0.0466
75908W        W18820   3.321  32.269   9.757 -0.0721  0.3500 -0.2623
75909W        W18821   5.610  30.238   8.395  0.1444  0.1574  0.0475
75910W        W18822   2.168  31.261   7.626  0.1381 -0.0410 -0.0585
75911W        W18823   7.165  28.334   8.693 -0.0896  0.0026  0.1678
75912W        W18824   6.747  31.403   8.673  0.1601 -0.2942  0.0543
75913W        W18825   2.629  30.653   9.665 -0.1603 -0.1643  0.0013
75914W        W18826   4.586  30.179   9.160  0.1951 -0.1282 -0.1938
75915W        W18827   2.363  31.096   8.655 -0.2580 -0.3087 -0.0622
75916W        W18828   6.937  29.939   8.265 -0.1086  0.2226 -0.0783
75917W        W18829   2.345  30.899   6.740 -0.0001  0.2985  0.0654
75918W        W18830   6.232  31.255   8.599 -0.0908  0.3199 -0.0062
75919W        W18831   3.458  30.831   8.100 -0.0286 -0.0203 -0.1765
75920W        W18832   3.807  32.009   8.452 -0.2320  0.1977 -0.0862
75921W        W18833   5.953  32.578   8.453 -0.0806 -0.2520 -0.5279
75922W        W18834   4.575  30.222   8.250  0.1363 -0.0671 -0.0581
75923W        W18835   5.522  31.365   7.762  0.3318  0.1904  0.1187
75924W        W18836   4.785  28.324   9.956  0.1707 -0.1988 -0.0142
75925W        W18837   4.091  30.718   9.198  0.0425  0.0704 -0.3637
75926W        W18838   5.091  30.374   9.504  0.1718  0.0589  0.3729
75927W        W18839   3.750  30.677   9.586 -0.1720 -0.0520 -0.0562
75928W        W18840   4.680  31.628   8.742  0.0651 -0.0781  0.0403
75929W        W18841   4.970  32.469   8.638 -0.1190  0.2238  0.0842
75930W        W18842   5.163  29.496   8.512  0.3384  0.1930  0.0877
75931W        W18843   7.148  32.282   7.410 -0.0199  0.0144 -0.0526
75932W        W18844   5.178  30.016   8.358  0.3291  0.0921  0.3853
75933W        W18845   3.547  32.099   8.919  0.1276 -0.0265 -0.0778
75934W        W18846   4.258  30.710   8.280 -0.0884  0.2234 -0.0680
75935W        W18847   3.820  30.093   9.528 -0.2026  0.0796 -0.1445
75936W        W18848   4.551  31.149   8.235  0.2870 -0.2137  0.0749
75937W        W18849   3.739  31.263   8.767 -0.2461  0.0418 -0.0457
75938W        W18850   2.850  31.037   9.461  0.1037  0.2629  0.2140
75939W        W18851   7.615  28.681   7.030 -0.1779  0.0984  0.0541
75940W        W18852   6.608  32.359   7.537  0.2496  0.0427 -0.1342
75941W        W18853   5.404  29.492   9.294 -0.1240 -0.0776  0.1772
75942W        W18854   6.229  30.915   8.233 -0.1026  0.1004 -0.0297
75943W        W18855   4.287  29.851   9.560  0.0697  0.3917  0.1132
75944W        W18856   6.225  32.754   7.544 -0.0320 -0.3114 -0.1488
75945W        W18857   6.218  30.815   8.869  0.2150 -0.1852 -0.2545
75946W        W18858   5.899  30.464   8.732 -0.0543 -0.2547  0.1707
75947W        W18859   5.917  31.113   9.270  0.1547 -0.1157 -0.2050
75948W        W18860   6.604  34.357   8.057  0.0481 -0.2035 -0.4765
75949W        W18861   6.270  31.425   7.360 -0.1360 -0.1943 -0.2751
75950W        W18862   6.051  29.346   9.651 -0.0244  0.0875  0.3078
75951W        W18863   4.000  30.372   8.689 -0.2754 -0.0472 -0.3545
75952W        W18864   4.683  30.697   9.244 -0.2392 -0.1823  0.0147
75953W        W18865   4.527  31.111   8.769 -0.0575  0.1729  0.2851
75954W        W18866   3.533  31.474   7.832  0.0779  0.2079 -0.2401
75955W        W18867   4.381  31.632   9.286  0.1887 -0.0854  0.1425
75956W        W18868   6.013  29.638   9.053 -0.0383 -0.3473 -0.3670
75957W        W18869   5.950  33.561   8.637 -0.2721  0.0412  0.0296
75958W        W18870   7.467  29.702   8.356  0.1659 -0.2169 -0.3484
75959W        W18871   4.223  28.027   8.969  0.1535 -0.5908 -0.1413
75960W        W18872   8.360  30.138   9.681  0.0913  0.0014 -0.0966
75961W        W18873   6.634  30.937   8.561  0.1437  0.3823  0.2129
75962W        W18874   3.381  29.631   8.688 -0.1738 -0.3331  0.2814
75963W        W18875   5.791  30.981   8.683  0.1222 -0.0476 -0.1116
75964W        W18876   6.162  31.810   6.806 -0.2611  0.2758 -0.2849
75965W        W18877   4.942  30.839   8.824  0.1380 -0.2327  0.1117
75966W        W18878   4.351  30.359   9.547 -0.2088 -0.4798 -0.2593
75967W        W18879   4.770  29.800   8.584  0.1598  0.1459  0.1958
75968W        W18880   3.222  31.662   6.535  0.1534  0.1683 -0.1694
75969W        W18881   6.519  32.143   7.984 -0.0304 -0.2296 -0.2014
75970W        W18882   4.965  32.234   9.604 -0.0055 -0.1257  0.1000
75971W        W18883   7.429  28.894   8.030  0.3107  0.1745 -0.0891
75972W        W18884   3.840  31.579   8.206  0.0480  0.2245 -0.2306
75973W        W18885   5.743  29.317   8.667 -0.2176 -0.0785 -0.0520
75974W        W18886   3.383  31.765   9.740  0.4482 -0.3162  0.0079
75975W        W18887   4.020  31.867   7.879 -0.1351  0.2449  0.2362
75976W        W18888   3.905  32.708   9.591  0.0490 -0.0974 -0.0737
75977W        W18889   3.916  29.625   9.249  0.2804 -0.2685  0.0567
75978W        W18890   4.682  32.057   9.124 -0.0817  0.4883 -0.0026
75979W        W18891   5.985  30.610   9.282  0.1237 -0.0935  0.0548
75980W        W18892   7.972  30.976   9.107  0.1124 -0.2823 -0.1919
75981W        W18893   5.765  30.683   8.252  0.1107 -0.1326  0.3379
75982W        W18894   5.140  31.347   9.664  0.1965 -0.2039 -0.2019
75983W        W18895   4.490  28.963   7.493  0.0520  0.0420  0.0826
75984W        W18896   5.754  31.129   7.369  0.2740  0.3997 -0.0479
75985W        W18897   1.190  30.104   9.761 -0.0124 -0.2894 -0.3104
75986W        W18898   3.113  31.732   8.901 -0.0556 -0.0151 -0.1529
75987W        W18899   5.752  32.002   8.539  0.0841 -0.0191 -0.0274
75988W        W18900   5.024  31.261   8.608  0.2179 -0.3922  0.1515
75989W        W18901   5.595  33.097   9.351 -0.2271  0.2065  0.0949
75990W        W18902   3.420  30.240   8.056  0.0482 -0.1472  0.2028
75991W        W18903   3.369  32.219   8.473  0.0153  0.2074  0.0240
75992W        W18904   3.761  32.369   8.088 -0.2882 -0.0475 -0.0836
75993W        W18905   7.086  31.387   6.931 -0.1592 -0.0356 -0.1555
75994W        W18906   4.234  32.314   8.008 -0.4327 -0.1566  0.2551
75995W        W18907   6.997  30.157   8.825 -0.1326  0.2372 -0.0702
75996W        W18908   6.968  31.950   9.690  0.0528 -0.0319  0.0732
75997W        W18909   7.536  29.703   7.185 -0.1262  0.2897 -0.0033
75998W        W18910   3.057  30.117   8.860 -0.0034 -0.3609  0.4491
75999W        W18911   5.743  29.676   8.265  0.0670  0.0412 -0.0329
76000W        W18912   7.304  32.682   7.085 -0.1341 -0.0500 -0.1269
76001W        W18913   3.146  29.897   8.327 -0.1264  0.1525  0.0531
76002W        W18914   3.877  31.695   8.985  0.0031  0.2186  0.1725
76003W        W18915   6.204  28.003   9.641  0.0996 -0.0090  0.2238
76004W        W18916   5.985  30.622   7.033 -0.1984 -0.4516 -0.0699
76005W        W18917   5.168  29.935   9.863  0.3547 -0.1567  0.0297
76006W        W18918   4.655  32.920   7.903 -0.1498  0.1335 -0.0409
76007W        W18919   6.796  29.110   8.844  0.1181 -0.0939  0.0044
76008W        W18920   7.811  32.465   9.804 -0.1616 -0.1193 -0.0731
76009W        W18921   3.417  30.329   6.979 -0.0975  0.5061 -0.1202
76010W        W18922   8.241  28.719   8.556  0.3518  0.2136  0.1140
76011W        W18923   3.471  30.229   8.550 -0.3725 -0.0162 -0.3640
76012W        W18924   3.578  30.123   7.440 -0.0464  0.0546 -0.1619
76013W        W18925   7.671  32.295   9.382 -0.2663  0.0063 -0.2540
76014W        W18926   2.896  31.397   9.848  0.0372 -0.3137  0.1064
76015W        W18927   1.248  30.435   9.340  0.1457  0.0870  0.2063
76016W        W18928   5.842  30.120   7.286  0.2749 -0.0253 -0.3234
76017W        W18929   6.149  30.872   7.465 -0.4101  0.3142 -0.0322
76018W        W18930   3.874  29.354   8.417  0.4270 -0.0140  0.0047
76019W        W18931   7.573  31.358   8.203 -0.2197  0.5104 -0.1879
76020W        W18932   2.919  30.960   8.329  0.1030  0.0161  0.1881
76021W        W18933   6.877  31.662   9.298  0.2444 -0.0229  0.2275
76022W        W18934   3.126  28.564   7.731  0.0200 -0.1502  0.2386
76023W        W18935   7.558  30.911   6.362 -0.0502 -0.4722  0.1577
76024W        W18936   6.428  31.236   9.058  0.0432 -0.1526 -0.0720
76025W        W18937   5.381  31.278   7.017 -0.2454  0.1590  0.0096
76026W        W18938   5.963  32.075   9.349  0.2233  0.0449  0.2017
76027W        W18939   5.541  31.525   9.270  0.1113 -0.2181 -0.1528
76028W        W18940   2.534  28.967   8.302 -0.1634  0.1032 -0.1537
76029W        W18941   4.828  31.287   9.156 -0.4973 -0.0250  0.0236
76030W        W18942   7.299  33.039   8.811 -0.0050 -0.0114  0.0393
76031W        W18943   6.367  30.466   8.538  0.1487 -0.2237  0.0306
76032W        W18944   5.215  30.155   9.044 -0.0405  0.1790 -0.2985
76033W        W18945   3.675  32.618   8.518  0.3656 -0.0047 -0.2511
76034W        W18946   6.669  30.670   9.002  0.1567  0.1777 -0.0861
76035W        W18947   5.266  32.815   7.835  0.3459  0.2670  0.0062
76036W        W18948   4.215  31.406   8.535  0.1604  0.0397 -0.0517
76037W        W18949   2.803  30.757   7.666  0.0477  0.2927  0.3082
76038W        W18950   5.810  31.363   8.267 -0.1134 -0.0435 -0.0623
76039W        W18951   5.477  33.218   8.843 -0.1047  0.2332 -0.2462
76040W        W18952   5.318  31.551   8.292 -0.0367 -0.1345 -0.0374
76041W        W18953   6.406  29.411   8.810  0.4405 -0.0391  0.0140
76042W        W18954   7.735  31.846   8.181 -0.0341  0.0564 -0.0034
76043W        W18955   2.810  29.432   8.085 -0.0957 -0.1277 -0.3191
76044W        W18956   8.030  28.966   8.107  0.5976  0.1526  0.1623
76045W        W18957   6.313  28.116   7.977 -0.0963 -0.0458  0.2350
76046W        W18958   5.086  31.750   9.196 -0.4450  0.1180  0.1226
76047W        W18959   2.690  29.898   7.984  0.1480 -0.1363  0.0333
76048W        W18960   4.063  31.575   7.438 -0.3193 -0.0725  0.3917
76049W        W18961   1.984  29.947  10.106 -0.2146 -0.0802  0.0187
76050W        W18962   2.675  31.439   8.313  0.0179 -0.0728  0.0846
76051W        W18963   3.686  29.427   6.749 -0.2347  0.1670  0.5579
76052W        W18964   5.524  32.590   7.487  0.2040  0.0863 -0.0844
76053W        W18965   3.021  28.878   8.319  0.0922 -0.0967 -0.0477
76054W        W18966   4.308  29.542   8.109 -0.3956  0.4190  0.0432
76055W        W18967   5.586  31.935   9.009  0.0248  0.4249  0.0662
76056W        W18968   6.972  34.512   7.744  0.1213 -0.0395  0.1013
76057W        W18969   4.762  28.599   9.521  0.1198 -0.0730  0.3221
76058W        W18970   1.881  30.983   7.370  0.2515 -0.1780  0.2692
76059W        W18971   2.963  30.373   6.729  0.0361 -0.0941 -0.1991
76060W        W18972   3.674  29.757   8.163  0.0471 -0.0567 -0.5498
76061W        W18973   5.161  31.826   7.887  0.1589 -0.0620 -0.0252
76062W        W18974   6.861  33.172   6.828 -0.0406 -0.0968 -0.0745
76063W        W18975   4.001  28.942  10.186  0.1397  0.1043 -0.0854
76064W        W18976   7.488  31.626   8.681  0.1821 -0.0138  0.0156
76065W        W18977   6.446  32.828   8.377  0.1454 -0.3064 -0.0176
76066W        W18978   8.472  30.104   9.157  0.1271  0.0867  0.0975
76067W        W18979   5.328  31.058   9.037 -0.1668  0.3099 -0.1165
76068W        W18980   9.122  30.928   9.081  0.0245  0.0605 -0.0328
76069W        W18981   3.810  30.491   8.247  0.2475  0.2438 -0.0600
76070W        W18982   7.304  30.242   8.455  0.1566  0.3582 -0.2244
76071W        W18983   6.221  31.737   8.383 -0.1095 -0.0160 -0.2326
76072W        W18984   3.693  30.964   9.155  0.1080 -0.2217 -0.0732
76073W        W18985   5.416  31.492   8.767  0.0714 -0.0758 -0.0470
76074W        W18986   6.011  32.108   8.092  0.0482  0.2940  0.1696
76075W        W18987   5.424  30.314   7.847  0.1460  0.0923  0.2345
76076W        W18988   7.015  31.360   7.823  0.0149  0.0783 -0.0727
76077W        W18989   7.325  31.428   9.110 -0.0586 -0.0670 -0.1231
76078W        W18990   5.350  34.265   8.945 -0.2724 -0.2552 -0.0322
76079W        W18991   7.927  32.424   8.975  0.0375 -0.0672  0.2491
76080W        W18992   3.667  29.299   8.946  0.0121 -0.1808  0.0291
76081W        W18993   4.173  30.456   7.354  0.0729  0.1307 -0.4782
76082W        W18994   4.489  30.470   7.829  0.1855  0.1012  0.1603
76083W        W18995   6.509  29.635   8.292  0.0306  0.0913 -0.1747
76084W        W18996   4.524  29.689   9.060  0.2814 -0.2366  0.0102
76085W        W18997   6.058  29.785  10.021 -0.1149 -0.0477  0.3223
76086W        W18998   1.888  33.636   9.383 -0.0839  0.0437 -0.4277
76087W        W18999   6.192  31.895   9.770 -0.1401  0.1119  0.1478
76088W        W19000   5.389  33.773   0.068 -0.1773 -0.2206  0.1514
76089W        W19001   6.629  32.838   0.832  0.0646 -0.0778 -0.2803
76090W        W19002   7.128   0.008  31.613  0.1007 -0.1698 -0.2324
76091W        W19003   4.767  33.982   2.358 -0.3330 -0.0338  0.1639
76092W        W19004   5.280  32.338   3.290  0.1286 -0.0626 -0.0860
76093W        W19005   6.262  33.587   0.304  0.1114 -0.0645  0.0948
76094W        W19006   4.806  34.144   3.266 -0.2110 -0.3940  0.3607
76095W        W19007   5.480  31.829  31.019  0.0668 -0.3888 -0.0616
76096W        W19008   3.923  32.736   0.716 -0.6089  0.0292  0.1732
76097W        W19009   7.229  33.786   3.103  0.1830  0.1363 -0.0727
76098W        W19010   4.756   0.374   0.673 -0.1353  0.0874  0.0277
76099W        W19011   4.564  33.551   3.612 -0.1127  0.0637  0.1488
76100W        W19012   6.189  33.841   2.282  0.0263 -0.2359  0.2549
76101W        W19013   5.819  33.053   1.910  0.3885 -0.1189  0.1304
76102W        W19014   6.922  32.782   3.528 -0.0693  0.1057  0.0365
76103W        W19015   4.049  32.418  31.249  0.0016  0.0630  0.1962
76104W        W19016   4.475   0.602   1.574  0.1919 -0.0416 -0.2063
76105W        W19017   5.579  33.841   3.011 -0.1078  0.1022 -0.0051
76106W        W19018   5.979  32.472   1.934  0.0455 -0.2142 -0.1967
76107W        W19019   6.621   0.688   0.907 -0.0006  0.1636 -0.3475
76108W        W19020   7.217  33.899   2.537 -0.1720  0.1502  0.4014
76109W        W19021   7.747  34.468   3.949 -0.1177 -0.3130 -0.1580
76110W        W19022   5.746  34.066  31.764 -0.2611  0.2235  0.1020
76111W        W19023   7.160  32.182   3.998 -0.0470 -0.0067  0.1336
76112W        W19024   7.480   0.564  29.834  0.0404 -0.0557 -0.2807
76113W        W19025   7.075  32.457  30.879  0.1616  0.1500 -0.0025
76114W        W19026   7.256  33.440   1.355  0.1310 -0.1130  0.0803
76115W        W19027   5.856  33.181   0.191 -0.2425  0.2352  0.0536
76116W        W19028   5.914  33.519   2.026  0.1411  0.0163  0.1275
76117W        W19029   5.191  33.813   2.143 -0.0702  0.0705 -0.1095
76118W        W19030   6.560  34.294   2.867 -0.3487 -0.2318 -0.0006
76119W        W19031   5.745  34.555   0.513  0.0059 -0.1465  0.3142
76120W        W19032   4.770  34.604   0.508  0.1273  0.0610  0.1718
76121W        W19033   5.366  33.159   4.295  0.1384  0.1754  0.1999
76122W        W19034   5.881  34.030   4.129 -0.0730 -0.2967 -0.0430
76123W        W19035   5.883  31.520  30.881 -0.1538  0.4253  0.1574
76124W        W19036   6.135  33.569   1.561  0.0914 -0.1014  0.1333
76125W        W19037   7.351  32.422   0.558 -0.1413  0.0337 -0.1030
76126W        W19038   6.372  33.256   2.960 -0.1648 -0.1781  0.0955
76127W        W19039   7.158  32.971  31.481  0.2778  0.1001  0.0542
76128W        W19040   5.039  32.525   2.845  0.4687  0.1676  0.1106
76129W        W19041   3.157  32.570   1.381  0.1120  0.0095  0.2327
76130W        W19042   6.389  32.991   1.239 -0.2179 -0.3479 -0.0761
76131W        W19043   4.292  32.997   3.343  0.0736 -0.2755 -0.0207
76132W        W19044   7.783  33.066   1.487  0.1950 -0.2740  0.1014
76133W        W19045   7.729  33.508   1.236  0.1660 -0.0728  0.1066
76134W        W19046   4.740   0.114   3.090 -0.1355 -0.1482  0.2502
76135W        W19047   4.056  34.319   1.086  0.2234  0.1328 -0.1167
76136W        W19048   6.014  33.788   4.529 -0.1690 -0.0208  0.0809
76137W        W19049   5.620  33.351   3.298 -0.3570 -0.0083  0.0581
76138W        W19050   7.508  34.419   2.649  0.0062 -0.2995  0.1018
76139W        W19051   4.088  34.306   2.029 -0.0119 -0.2617  0.0666
76140W        W19052   5.410  32.932   1.624 -0.1717  0.0094 -0.1726
76141W        W19053   6.092  33.118  31.715 -0.2527 -0.1215  0.1008
76142W        W19054   8.294  32.612   3.857  0.0108 -0.0603 -0.1336
76143W        W19055   5.850  32.898   3.854 -0.0286 -0.1228 -0.0477
76144W        W19056   4.275  32.911   2.603  0.5160  0.1189  0.1020
76145W        W19057   5.221  33.513   1.197  0.1493  0.2840 -0.0552
76146W        W19058   8.045  31.700   2.965  0.2734 -0.3272  0.1073
76147W        W19059   5.222  33.753   0.705  0.4027 -0.0843 -0.2582
76148W        W19060   3.828  33.174   0.494 -0.1579  0.2165  0.2499
76149W        W19061   4.870  33.283  31.926 -0.3998  0.1310  0.0829
76150W        W19062   8.749  33.808   1.363  0.1739  0.2847 -0.2399
76151W        W19063   5.128  33.870   4.327 -0.1749 -0.2347  0.0479
76152W        W19064   6.323  33.831   2.804 -0.1800  0.3721  0.0360
76153W        W19065   4.479  33.693   0.909 -0.1733  0.0296 -0.1807
76154W        W19066   6.986  32.340   1.850 -0.1598  0.2131 -0.0963
76155W        W19067   6.882  33.624   1.044 -0.0416  0.1069 -0.4778
76156W        W19068   6.905  33.098   1.163 -0.0418 -0.2463 -0.2498
76157W        W19069   6.595  32.435  31.968 -0.2696  0.0855  0.1521
76158W        W19070   6.509  33.425   0.846 -0.0830  0.0519 -0.0523
76159W        W19071   6.720  33.557   3.161 -0.2359 -0.2437  0.0958
76160W        W19072   6.463  34.192  31.397  0.1955  0.0850  0.2616
76161W        W19073   7.157  34.272   1.508 -0.0915 -0.0623  0.1090
76162W        W19074   7.801  32.706   1.824  0.0044 -0.0331 -0.0033
76163W        W19075   6.213  33.324   2.509 -0.1140 -0.2863  0.1330
76164W        W19076   5.668  33.131   2.413  0.2113 -0.2339  0.2341
76165W        W19077   8.178  34.226   3.075  0.2103 -0.0940 -0.0170
76166W        W19078   7.716   1.071   1.405 -0.0778 -0.2988  0.1682
76167W        W19079   6.070   0.425   2.727 -0.5362  0.1734  0.1231
76168W        W19080   5.414   1.121  30.739 -0.2100 -0.1367 -0.1004
76169W        W19081   7.478  33.313   3.251 -0.2650  0.1413 -0.3414
76170W        W19082   6.056  33.347   3.686 -0.0734  0.2490  0.1453
76171W        W19083   6.013  33.279   1.133  0.0604 -0.4005  0.2552
76172W        W19084   4.836  32.698   0.128 -0.2404  0.1212 -0.1073
76173W        W19085   7.480  32.303   1.832 -0.0974 -0.3080  0.1224
76174W        W19086   6.495  34.058   0.379  0.2456 -0.0228 -0.0236
76175W        W19087   6.674  32.172   1.387  0.0723  0.2133  0.2116
76176W        W19088   5.874  33.377   2.857 -0.1226  0.0594  0.1671
76177W        W19089   5.352  33.329   1.951 -0.0540  0.2209 -0.2480
76178W        W19090   6.922   0.443   2.828  0.2537 -0.0798 -0.0936
76179W        W19091   7.337  33.467   0.233 -0.0120 -0.1030  0.0350
76180W        W19092   6.428  34.228   3.314 -0.1734 -0.0339  0.0576
76181W        W19093   6.139  32.743   0.075  0.1915 -0.2612 -0.1747
76182W        W19094   6.934  34.475   2.635  0.0877 -0.3633 -0.1768
76183W        W19095   5.155  32.886   2.086 -0.1053 -0.0911 -0.0428
76184W        W19096   5.644  33.616   1.028 -0.3110 -0.2428  0.2458
76185W        W19097   3.961  34.214   3.674  0.0996  0.2712 -0.0966
76186W        W19098   6.841  33.888   2.828  0.0864 -0.2158  0.1098
76187W        W19099   5.511  34.592   2.694 -0.2049 -0.0509 -0.2569
76188W        W19100   5.932  34.111   2.712 -0.0796 -0.1119  0.0564
76189W        W19101   5.928  34.042   3.263 -0.2797 -0.1473 -0.0499
76190W        W19102   6.588  33.436   1.412  0.0079 -0.0424  0.0004
76191W        W19103   6.908  34.190   4.255 -0.1352  0.3525  0.1182
76192W        W19104   5.703  33.364   1.496  0.1275  0.2643 -0.3191
76193W        W19105   7.121  33.536   2.155  0.0191  0.1890  0.1278
76194W        W19106   6.661  33.877   2.326  0.3103  0.0920  0.1309
76195W        W19107   9.370  31.757   2.302  0.0090  0.0301  0.2466
76196W        W19108   7.091   0.104   0.599  0.1072  0.0117 -0.0952
76197W        W19109   7.304  33.932   4.378 -0.2502  0.0833  0.0408
76198W        W19110   4.697  32.057   0.976 -0.1220 -0.2602  0.3124
76199W        W19111   5.217   0.612   0.567  0.0806  0.5252  0.0063
76200W        W19112   4.641   0.349   3.841 -0.3535 -0.1028  0.0122
76201W        W19113   6.450  33.943   1.437  0.0218 -0.0803  0.1580
76202W        W19114   4.936  32.541  31.258 -0.2019 -0.2394  0.0576
76203W        W19115   6.028  34.139   0.956 -0.1389  0.2979 -0.0310
76204W        W19116   7.396  33.807   1.683  0.0523 -0.2353 -0.0223
76205W        W19117   4.988  33.878   3.742  0.2866 -0.2008 -0.1067
76206W        W19118   5.946  34.637   4.094 -0.0269 -0.1109  0.1223
76207W        W19119   5.650  33.740   2.544  0.0089  0.0692 -0.3584
76208W        W19120   8.192  33.111   3.866 -0.2653 -0.2479 -0.1414
76209W        W19121   6.891  33.368   2.654  0.0492  0.4347  0.0455
76210W        W19122   7.859  34.635   2.349 -0.1028  0.2046  0.3065
76211W        W19123   5.854  33.803   3.652  0.0426  0.0974 -0.0059
76212W        W19124   5.503  32.854   3.439  0.0843  0.2342  0.0217
76213W        W19125   7.661  32.612   1.278  0.1921  0.1606  0.0779
76214W        W19126   7.752  33.529   2.090 -0.0361  0.1693 -0.1140
76215W        W19127   7.772  34.100   1.535  0.2768 -0.1319 -0.1411
76216W        W19128   6.840  34.109   1.131  0.3576  0.0468  0.0702
76217W        W19129   4.271  34.628   2.788 -0.0366 -0.5059  0.1257
76218W        W19130   7.101  34.289   3.025 -0.0171  0.1625  0.0619
76219W        W19131   4.682  33.703   0.303 -0.1208  0.1134 -0.2175
76220W        W19132   6.533  33.277   3.612  0.0146  0.3089 -0.1058
76221W        W19133   6.452  34.155   1.927  0.1750 -0.1649 -0.1633
76222W        W19134   4.743  34.393   2.815  0.1629  0.0654  0.0562
76223W        W19135   4.223  34.303   0.051 -0.1124  0.0160  0.0240
76224W        W19136   4.356  33.175   0.747  0.0053  0.0493  0.1005
76225W        W19137   5.136  32.378   0.383 -0.0951 -0.1808 -0.1405
76226W        W19138   7.630  34.532   3.410 -0.0021  0.0188  0.4761
76227W        W19139   7.546  32.577   2.320 -0.1351  0.0551 -0.2215
76228W        W19140   6.343  33.052   1.745 -0.0171 -0.2190  0.2454
76229W        W19141   6.905  34.460   2.015  0.3943 -0.0311  0.1104
76230W        W19142   5.625   0.364   2.510  0.3177  0.2418 -0.0504
76231W        W19143   7.341   0.065   3.029  0.2576  0.0683 -0.1819
76232W        W19144   5.682  33.258   0.711  0.0059 -0.1484 -0.1451
76233W        W19145   4.742  33.486   5.552  0.0197  0.3259  0.1081
76234W        W19146   4.616  34.395   1.511 -0.1351 -0.3134 -0.0379
76235W        W19147   5.233  33.381   0.362 -0.0961  0.1069  0.1014
76236W        W19148   6.168  32.117  30.202 -0.3636  0.1099  0.2829
76237W        W19149   7.672   1.711   0.146  0.2076  0.1952  0.0553
76238W        W19150   6.711   1.257   2.167  0.0926 -0.2580 -0.0608
76239W        W19151   5.408  34.586   2.083  0.0343 -0.1349 -0.1316
76240W        W19152   5.858  32.700   0.475 -0.0359 -0.0764 -0.1280
76241W        W19153   4.925  32.999   2.565 -0.2676 -0.5034  0.1648
76242W        W19154   9.352  31.682   3.158  0.0963  0.3009 -0.1645
76243W        W19155   4.804  34.062   0.601  0.0614  0.0790  0.3447
76244W        W19156   5.056  34.553   2.471 -0.2093  0.0290  0.0910
76245W        W19157   8.267  32.721   2.131 -0.1087  0.1325  0.3227
76246W        W19158   5.557  34.313   3.084 -0.0058 -0.2230 -0.0481
76247W        W19159   5.136  34.570   1.367  0.0686  0.1636  0.1618
76248W        W19160   7.087   0.143   1.555 -0.0783  0.3265  0.0946
76249W        W19161   4.591  33.349   2.730  0.1068 -0.3040  0.2190
76250W        W19162   7.455  33.262   1.791 -0.1683  0.0041 -0.0039
76251W        W19163   4.518  33.189   2.264  0.1776 -0.2770  0.2256
76252W        W19164   7.589  34.141   2.112  0.3154 -0.0950  0.1730
76253W        W19165   5.824  34.263   2.247  0.0382 -0.0571 -0.1660
76254W        W19166   5.878  32.733   1.525 -0.0221  0.2432 -0.3642
76255W        W19167   8.518   0.396   2.757  0.3064  0.0409 -0.0901
76256W        W19168   6.966  33.923   0.639  0.0358 -0.0920  0.0495
76257W        W19169   5.058  32.372   0.873 -0.2026 -0.0079  0.3389
76258W        W19170   6.244  34.453   0.570  0.0819 -0.0996 -0.0951
76259W        W19171   5.859  34.463  31.530 -0.1698 -0.1934  0.3025
76260W        W19172   6.138  33.628   3.214  0.1359  0.2888 -0.0213
76261W        W19173   5.263  32.889   0.235 -0.1369 -0.2212  0.1216
76262W        W19174   6.808   0.183   2.354 -0.1059  0.1911 -0.0306
76263W        W19175   7.390  33.920   1.144  0.1761 -0.0880  0.0954
76264W        W19176   4.380  34.157   2.629  0.0196 -0.1648  0.0405
76265W        W19177   6.540  33.677   1.907  0.0771  0.2004  0.2718
76266W        W19178   5.383  33.389   2.748 -0.1370 -0.1472 -0.3353
76267W        W19179   7.067  33.506   3.547 -0.0163  0.1962  0.0778
76268W        W19180   9.381  34.227   2.995 -0.0257  0.0511  0.1788
76269W        W19181   7.934  33.179   3.408  0.1986  0.1190  0.1345
76270W        W19182   6.485   0.086   2.735  0.0488  0.0534  0.2972
76271W        W19183   5.435  32.463   1.241 -0.0860  0.0845  0.2523
76272W        W19184   6.928  33.206   1.733  0.2949 -0.1227 -0.0284
76273W        W19185   8.246  32.911   1.371 -0.0027  0.1058  0.2133
76274W        W19186   5.638   0.609   3.702 -0.1050 -0.0864  0.0093
76275W        W19187   5.278  34.454   0.814  0.2034  0.3551  0.0899
76276W        W19188   4.609  32.658   3.789  0.1351 -0.3660 -0.1232
76277W        W19189   4.814  32.562   2.333 -0.2114 -0.0101  0.3436
76278W        W19190   4.539  34.203   0.978  0.1819  0.0360 -0.0676
76279W        W19191   4.718  33.187   0.403  0.2866  0.2302  0.2606
76280W        W19192   4.988  33.425   2.327 -0.1187  0.0015 -0.0857
76281W        W19193   3.916  33.873   2.372 -0.1539  0.1798 -0.5264
76282W        W19194   4.999  31.924   0.216 -0.2138  0.1234 -0.1947
76283W        W19195   7.040  33.143   3.107  0.1490  0.2149  0.1836
76284W        W19196   5.273  33.873   5.264  0.0066 -0.1816 -0.0500
76285W        W19197   3.855  32.817   0.183 -0.3136  0.2070  0.0629
76286W        W19198   6.665   0.229   1.893 -0.2263  0.1013  0.4662
76287W        W19199   4.303  33.420   5.270 -0.0241  0.0925 -0.0838
76288W        W19200   7.953  33.636   1.642 -0.2120  0.0526 -0.2633
76289W        W19201   6.746  34.412   0.143 -0.1083  0.0104 -0.0429
76290W        W19202   5.242  32.967   3.860  0.2086  0.1155  0.0868
76291W        W19203   5.040  34.121   1.167 -0.0923  0.1250 -0.1483
76292W        W19204   5.528  33.027   1.156  0.1541 -0.1499 -0.0305
76293W        W19205   4.525  33.804   2.923  0.3818  0.0006 -0.0077
76294W        W19206   6.457  33.945   0.856 -0.0066  0.0900  0.0039
76295W        W19207   6.452   0.343   3.964 -0.1510 -0.0004 -0.0884
76296W        W19208   6.288   0.441   2.204  0.1957 -0.0358 -0.0237
76297W        W19209   7.394   0.355   0.235  0.2021  0.1250  0.2255
76298W        W19210   3.883  32.217   2.492  0.1979  0.0569 -0.0213
76299W        W19211   4.795  34.687   1.018 -0.1036 -0.1338  0.1268
76300W        W19212   4.927   0.830   1.514  0.1948  0.1397  0.0750
76301W        W19213   7.197  32.410   1.387  0.0374 -0.2544  0.2254
76302W        W19214   3.850  32.335   2.031  0.0008 -0.2872  0.2050
76303W        W19215   4.976  33.464  31.453  0.0409 -0.0457  0.1345
76304W        W19216   5.061  33.340   6.358  0.1351  0.2523 -0.0493
76305W        W19217   7.644  34.050   4.825 -0.0368 -0.0706  0.1282
76306W        W19218   8.165  34.533   3.498  0.3560 -0.0685  0.0491
76307W        W19219   4.789  33.691   6.091 -0.0092 -0.3687 -0.3232
76308W        W19220   4.441  31.761   7.102  0.3048  0.2117  0.0976
76309W        W19221   7.305  34.044   3.671  0.1604  0.2184  0.1476
76310W        W19222   6.629  32.739   6.680  0.1970 -0.2273 -0.0763
76311W        W19223   4.836  32.646   4.965 -0.1582  0.0337  0.0641
76312W        W19224   4.228  32.192   5.410 -0.4304  0.1673  0.0731
76313W        W19225   7.184  33.436   6.564 -0.0117 -0.0485  0.1346
76314W        W19226   5.135  33.492   4.023 -0.2270 -0.3615  0.3866
76315W        W19227   4.684  33.312   7.084  0.0991  0.2757  0.0272
76316W        W19228   4.971  34.322   5.333  0.3526  0.1318 -0.0568
76317W        W19229   5.657  32.466   6.935 -0.0973  0.3154  0.2032
76318W        W19230   6.077  32.251   5.971 -0.0160 -0.1457 -0.0073
76319W        W19231   5.567  34.076   4.517  0.2253  0.2825  0.0792
76320W        W19232   5.247   0.946   5.954 -0.1860  0.2442 -0.0444
76321W        W19233   5.456  33.391   7.771  0.2480 -0.1036 -0.0066
76322W        W19234   7.013  33.552   5.042  0.2843 -0.2208 -0.1664
76323W        W19235   7.268   0.569   5.063 -0.3425  0.2829 -0.0771
76324W        W19236   5.915  33.357   6.937 -0.1778  0.0690 -0.1559
76325W        W19237   6.259  33.964   5.288  0.2329  0.0313 -0.1584
76326W        W19238   5.755  33.155   4.738  0.0029 -0.0257 -0.0439
76327W        W19239   8.166  32.687   6.319  0.1449  0.1128  0.0123
76328W        W19240   6.455  33.774   3.540  0.0914 -0.0896 -0.1695
76329W        W19241   4.991  32.728   3.410  0.2833 -0.0590  0.0140
76330W        W19242   7.026  33.481   5.613 -0.0709 -0.2496  0.2368
76331W        W19243   5.813  31.199   4.995  0.1774  0.0193  0.0071
76332W        W19244   5.571  33.206   5.833  0.0042 -0.1894  0.2517
76333W        W19245   6.357   0.744   4.988 -0.0490 -0.1088  0.3135
76334W        W19246   6.106  33.110   5.889  0.0221 -0.0729 -0.4129
76335W        W19247   4.208  32.293   5.884  0.1401 -0.0885 -0.2486
76336W        W19248   5.540  33.968   5.683  0.0429 -0.0146 -0.0989
76337W        W19249   3.304  34.591   5.885  0.3369 -0.3140 -0.1540
76338W        W19250   4.285   0.136   7.099 -0.2018 -0.0625  0.0984
76339W        W19251   4.582  32.575   4.494 -0.1831 -0.0602 -0.2083
76340W        W19252   6.595  33.078   4.125  0.1766  0.4144  0.1239
76341W        W19253   5.421  32.910   7.092 -0.0302 -0.1127 -0.0590
76342W        W19254   5.647  31.923   6.078  0.0537  0.0372  0.1164
76343W        W19255   8.290  32.947   2.915 -0.0072 -0.1298 -0.3777
76344W        W19256   5.291  33.617   8.528 -0.1684  0.2991 -0.0342
76345W        W19257   3.960  34.254   7.628  0.0772 -0.2277  0.0726
76346W        W19258   7.592  32.608   4.455 -0.0430  0.2468 -0.0755
76347W        W19259   2.794  34.611   6.033 -0.0390  0.0339  0.2637
76348W        W19260   6.495  31.777   5.607 -0.3270  0.1783 -0.1809
76349W        W19261   6.595  34.334   4.636 -0.0551  0.0036 -0.0662
76350W        W19262   4.186   0.357   6.633 -0.0227 -0.0181  0.1558
76351W        W19263   5.542  33.769   4.880 -0.0486  0.0954  0.0639
76352W        W19264   3.442  33.406   6.643 -0.0573 -0.0699  0.0514
76353W        W19265   4.999  33.958   5.685  0.1140  0.0692  0.1677
76354W        W19266   6.036   0.266   6.708 -0.0249 -0.4659  0.1882
76355W        W19267   4.579  31.923   4.571  0.3210  0.0632  0.0105
76356W        W19268   6.887  33.075   5.201 -0.2214  0.0472  0.2020
76357W        W19269   5.079   0.497   4.132  0.0673  0.0384  0.0336
76358W        W19270   7.657  32.217   7.287 -0.1077  0.2181 -0.0496
76359W        W19271   4.605  34.144   6.732  0.1058  0.0783 -0.0396
76360W        W19272   5.682  33.620   5.361  0.1036  0.1739 -0.1288
76361W        W19273   6.125  33.433   4.931  0.0650 -0.2061 -0.1297
76362W        W19274   6.957  32.227   6.471 -0.0381  0.0076 -0.1149
76363W        W19275   6.853  33.762   4.522 -0.0086 -0.2409 -0.1233
76364W        W19276   5.326  34.267   4.984 -0.0481 -0.1513  0.0597
76365W        W19277   4.558   0.144   4.776 -0.2364  0.3875 -0.3624
76366W        W19278   6.690  33.217   4.762  0.2878 -0.1208  0.2384
76367W        W19279   2.937   0.034   7.242  0.1307 -0.0527  0.0779
76368W        W19280   6.211   0.274   6.232  0.0289 -0.0092  0.1125
76369W        W19281   3.912  33.826   5.380 -0.3163  0.3650 -0.0925
76370W        W19282   6.193  32.987   4.732  0.1530 -0.0466 -0.0230
76371W        W19283   7.801  32.731   3.627  0.1034  0.0136  0.1017
76372W        W19284   7.601  33.674   3.614 -0.0407 -0.0247  0.0979
76373W        W19285   6.614  32.919   2.643 -0.3596  0.3376  0.1614
76374W        W19286   5.997   0.144   4.602 -0.0981 -0.3121  0.0046
76375W        W19287   4.354  32.046   7.536  0.2421  0.2389  0.1824
76376W        W19288   5.998  34.541   3.365  0.1198 -0.0539 -0.2408
76377W        W19289   5.253  32.898   6.098  0.1189  0.1804  0.1661
76378W        W19290   5.460  33.325   6.757 -0.1363  0.0132  0.0550
76379W        W19291   6.798  32.556   4.978 -0.0241 -0.1157 -0.3062
76380W        W19292   5.457  32.756   6.555 -0.2880 -0.0200 -0.1855
76381W        W19293   6.846  33.841   6.591 -0.2071  0.0386  0.3058
76382W        W19294   7.306  34.441   4.529  0.1112 -0.4685  0.1704
76383W        W19295   6.938   0.505   4.337 -0.5570  0.2207 -0.0481
76384W        W19296   4.575  33.990   4.390 -0.0516 -0.3222  0.2270
76385W        W19297   5.440  32.230   6.546  0.1127  0.1877 -0.3265
76386W        W19298   5.837  34.076   6.521  0.1707 -0.0894  0.0827
76387W        W19299   4.304  31.569   3.796  0.0234  0.0532  0.0342
76388W        W19300   4.461  31.312   5.749  0.0104  0.1689 -0.4216
76389W        W19301   6.996  31.803   6.222 -0.1666 -0.3144  0.4607
76390W        W19302   5.105  34.403   4.571  0.2116 -0.2080  0.1905
76391W        W19303   4.173  34.228   4.633  0.1607 -0.0194 -0.0782
76392W        W19304   5.985  32.968   3.243 -0.0059 -0.1407  0.0920
76393W        W19305   4.978  33.815   6.511 -0.1907 -0.0412 -0.0932
76394W        W19306   6.894  33.050   5.772 -0.0171  0.1372  0.0341
76395W        W19307   6.082  34.584   5.905 -0.0483  0.3769 -0.0789
76396W        W19308   7.324  33.568   4.047 -0.3588 -0.0828 -0.0131
76397W        W19309   5.272  34.587   8.319  0.3050  0.0064  0.2761
76398W        W19310   4.418  33.219   5.838 -0.1030  0.0378 -0.0661
76399W        W19311   6.479  34.300   5.782  0.0113  0.1236  0.1057
76400W        W19312   5.376   0.613   5.093 -0.0244 -0.2159  0.0176
76401W        W19313   5.985   0.476   4.180 -0.1390 -0.2132 -0.0184
76402W        W19314   5.068  33.189   7.416 -0.0690 -0.1253  0.0087
76403W        W19315   6.064  33.572   6.465 -0.2511  0.2401 -0.2266
76404W        W19316   4.898  32.823   5.508  0.2144 -0.3228  0.2029
76405W        W19317   6.186  34.245   3.793 -0.1673  0.0253 -0.1598
76406W        W19318   6.471  32.993   6.229  0.2513 -0.3031  0.2687
76407W        W19319   4.861  33.605   7.494 -0.3028 -0.0940 -0.0998
76408W        W19320   4.245  33.961   8.353 -0.3763 -0.4249 -0.1561
76409W        W19321   6.363  32.443   6.328  0.0221  0.4002  0.0034
76410W        W19322   8.269  32.069   3.860 -0.0544  0.0047 -0.0018
76411W        W19323   5.015  33.026   6.779 -0.0157 -0.1203  0.1709
76412W        W19324   8.161  32.858   6.827  0.3304 -0.1876 -0.3247
76413W        W19325   6.430  33.995   4.185  0.1645  0.0728 -0.4013
76414W        W19326   7.112  33.666   7.075  0.0792 -0.1467 -0.2079
76415W        W19327   4.203  32.276   6.988 -0.2000  0.2866 -0.3594
76416W        W19328   4.395   0.133   5.794 -0.2292  0.1117  0.0768
76417W        W19329   4.970  34.272   8.035  0.0476 -0.0765 -0.0856
76418W        W19330   6.230  32.453   4.772 -0.0249 -0.1214  0.1219
76419W        W19331   4.731  33.575   4.580  0.2604 -0.1889  0.3281
76420W        W19332   5.561   0.359   6.330  0.1174  0.0409  0.0530
76421W        W19333   7.520  33.701   5.764  0.3447 -0.0108  0.0214
76422W        W19334   5.818   0.758   6.443  0.0829  0.0720 -0.0152
76423W        W19335   6.156  33.639   4.049 -0.2077 -0.2449  0.0168
76424W        W19336   4.673  32.400   7.067  0.1122 -0.2590 -0.0324
76425W        W19337   5.526  33.677   6.381 -0.2190 -0.1150  0.1310
76426W        W19338   5.522  32.448   6.051  0.0081  0.1257 -0.3597
76427W        W19339   6.164  34.123   6.165  0.3298  0.0322  0.3470
76428W        W19340   6.095  33.953   6.962 -0.2709  0.1172 -0.2587
76429W        W19341   2.927  33.228   6.539 -0.0446  0.0129  0.1793
76430W        W19342   7.120  33.135   3.883  0.1282 -0.0324  0.0838
76431W        W19343   7.386  33.311   6.097 -0.0881  0.0730  0.0865
76432W        W19344   6.778  34.012   5.256  0.2029 -0.0416 -0.0467
76433W        W19345   5.236  33.503   4.635 -0.0443  0.0488 -0.1898
76434W        W19346   5.378  34.160   6.596  0.1713  0.1211 -0.1267
76435W        W19347   6.083  34.427   7.808 -0.1082 -0.2579 -0.1878
76436W        W19348   4.880  33.572   5.025  0.5733  0.0344 -0.2303
76437W        W19349   6.118  32.562   6.731 -0.1181 -0.0064  0.1139
76438W        W19350   6.392  33.049   5.473 -0.0351 -0.3449  0.0265
76439W        W19351   4.823   0.024   6.116 -0.1782 -0.0280 -0.0312
76440W        W19352   3.985  33.750   4.523 -0.0237  0.2897 -0.2254
76441W        W19353   5.417  33.965   3.954 -0.2071  0.1107 -0.1007
76442W        W19354   6.948  32.684   4.090 -0.0699  0.2452 -0.1852
76443W        W19355   6.700  34.047   7.105  0.0771  0.1997  0.3078
76444W        W19356   4.994  32.235   6.302 -0.1645 -0.0181 -0.0197
76445W        W19357   6.389  34.002   6.565  0.3133  0.0860 -0.0825
76446W        W19358   6.658   1.865   4.110  0.0111  0.1604 -0.0582
76447W        W19359   6.643  34.491   5.345 -0.1206 -0.0704 -0.1636
76448W        W19360   7.537  33.756   6.783 -0.0048 -0.2270 -0.2453
76449W        W19361   5.106  33.605   6.953 -0.1101  0.2607  0.0671
76450W        W19362   3.547  34.048   6.671  0.0128  0.0506 -0.1348
76451W        W19363   4.711  33.122   5.157  0.1108  0.4750 -0.0109
76452W        W19364   4.958  33.950   4.790 -0.1480  0.0306  0.0049
76453W        W19365   7.846  33.376   4.266  0.1108  0.0643 -0.1415
76454W        W19366   6.851   0.789   5.164  0.1792  0.0697  0.1492
76455W        W19367   7.392  33.128   5.619  0.1844 -0.0390 -0.0341
76456W        W19368   5.784  33.651   6.005 -0.0447  0.0023  0.1973
76457W        W19369   5.253  32.396   3.792  0.0190 -0.1995  0.2693
76458W        W19370   4.893  34.101   7.569  0.2326 -0.2113 -0.1214
76459W        W19371   8.130  32.335   7.004  0.0402  0.1006 -0.1325
76460W        W19372   4.350  32.789   4.940  0.0648 -0.0931 -0.2448
76461W        W19373   4.563  32.078   6.094  0.4570  0.2971 -0.1815
76462W        W19374   8.461  31.527   5.284 -0.0949  0.2035  0.0088
76463W        W19375   5.705  34.675   5.043 -0.3775  0.0065 -0.3080
76464W        W19376   3.441  33.009   5.771 -0.2187  0.2710 -0.1931
76465W        W19377   7.887  33.576   4.709  0.1390  0.0442 -0.1826
76466W        W19378   5.530  33.365   7.232  0.1358  0.0894  0.1117
76467W        W19379   5.971  32.677   6.164 -0.0698 -0.1837  0.2525
76468W        W19380   5.794  34.119   5.209  0.0802 -0.0098 -0.0822
76469W        W19381   7.116  32.438   4.480  0.1857  0.1155  0.2135
76470W        W19382   4.824   0.119   6.976  0.1076 -0.0789  0.0418
76471W        W19383   6.878   0.106   3.883 -0.0640  0.2050 -0.1306
76472W        W19384   7.009  33.715   6.126  0.3283 -0.0736  0.0794
76473W        W19385   6.657  32.639   5.436  0.2988  0.0773 -0.0116
76474W        W19386   4.555  32.754   5.902  0.1523  0.1195 -0.0798
76475W        W19387   6.993  33.315   4.347 -0.3513  0.1492  0.1272
76476W        W19388   4.383  33.679   5.828 -0.0778 -0.0047 -0.0184
76477W        W19389   5.824  33.131   6.421  0.0424  0.2876 -0.0312
76478W        W19390   3.837  32.056   4.713 -0.2276 -0.0145 -0.0327
76479W        W19391   6.932  33.179   6.280 -0.1492  0.0598 -0.1738
76480W        W19392   7.846   0.277   4.277 -0.3032  0.0209 -0.4404
76481W        W19393   3.412   0.006   5.328 -0.2758  0.1703  0.0910
76482W        W19394   6.349  32.645   5.839  0.0609  0.0283 -0.0410
76483W        W19395   6.868  32.241   5.346 -0.0866  0.3359  0.2657
76484W        W19396   7.832  32.921   5.878 -0.0273  0.3064 -0.2521
76485W        W19397   6.294  33.687   6.033 -0.0688  0.4308  0.1827
76486W        W19398   7.658  32.183   5.509 -0.1031 -0.0507 -0.1972
76487W        W19399   5.878  33.102   5.431 -0.1757 -0.0092  0.0953
76488W        W19400   6.436  33.798   4.814  0.0634  0.0314  0.0658
76489W        W19401   7.152  34.035   4.821  0.0171  0.4347  0.2423
76490W        W19402   8.847  32.930   4.756  0.0097 -0.1213 -0.3839
76491W        W19403   4.469  34.322   7.991 -0.2322 -0.0597 -0.0044
76492W        W19404   3.628   0.232   4.288  0.1163  0.0446  0.0398
76493W        W19405   5.605  32.085   7.638  0.0493 -0.1958  0.1248
76494W        W19406   5.165  34.167   7.052  0.0339  0.2652  0.0108
76495W        W19407   5.282  33.560   5.931  0.0390 -0.0085 -0.4884
76496W        W19408   5.206  33.298   5.502 -0.1402  0.0741  0.0748
76497W        W19409   4.608  33.142   6.323 -0.0866  0.1518 -0.0013
76498W        W19410   4.054  32.906   5.998 -0.2069 -0.1908 -0.1676
76499W        W19411   5.701  32.481   4.023  0.1287  0.0825  0.0675
76500W        W19412   5.885  34.461   6.968 -0.0035  0.4597  0.1913
76501W        W19413   4.536  31.247   6.585  0.5441  0.1727  0.1209
76502W        W19414   4.970  32.692   4.144 -0.3359 -0.0846 -0.1554
76503W        W19415   7.051   0.135   5.286  0.3489  0.1877  0.0383
76504W        W19416   3.372  33.770   6.293  0.0032 -0.2552  0.6259
76505W        W19417   8.682  31.628   4.598 -0.1185 -0.3794  0.1699
76506W        W19418   6.383  33.488   4.458 -0.0751 -0.4707  0.0939
76507W        W19419   4.203  32.925   5.502  0.2682 -0.0512  0.1532
76508W        W19420   5.013  33.095   4.748 -0.5014 -0.0312  0.2659
76509W        W19421   6.007  33.174   4.265  0.0591 -0.0422 -0.0520
76510W        W19422   4.563  33.576   6.672  0.0513 -0.2055 -0.3673
76511W        W19423   5.715  31.926   4.061  0.0669  0.0676 -0.0771
76512W        W19424   5.579  33.812   6.923  0.0301 -0.2179 -0.1166
76513W        W19425   5.536   0.238   4.074  0.0706  0.0607 -0.2499
76514W        W19426   7.887  34.313   4.437  0.2830  0.1096 -0.0009
76515W        W19427   4.405  34.454   6.157  0.1552 -0.1497 -0.0866
76516W        W19428   4.662  33.929   5.297 -0.0216  0.1311 -0.1243
76517W        W19429   5.015   0.580   5.426 -0.1948  0.0620 -0.1045
76518W        W19430   6.783  32.632   6.074 -0.4819  0.1028  0.0109
76519W        W19431   5.120  31.784   5.352  0.1516  0.1554  0.2191
76520W        W19432   4.647  33.071   4.401 -0.0549  0.3296  0.2254
76521W        W19433   4.936  33.118   9.735 -0.1297  0.1144  0.3132
76522W        W19434   7.681  32.979   6.389  0.2671  0.3634  0.3146
76523W        W19435   6.337   0.447   7.104  0.1306 -0.1089 -0.1311
76524W        W19436   3.737  32.528   9.173  0.1627  0.2614 -0.1609
76525W        W19437   5.469   0.223   7.605  0.4128 -0.0413 -0.0327
76526W        W19438   3.847  34.104   9.493 -0.0822 -0.0529  0.2710
76527W        W19439   6.495  32.650   7.133  0.0427 -0.1856 -0.0071
76528W        W19440   3.015  31.549   9.389 -0.4122 -0.0110  0.0925
76529W        W19441   5.580  33.146   9.970  0.1187 -0.1261 -0.0861
76530W        W19442   2.751  34.463   9.131  0.0716 -0.2511  0.0815
76531W        W19443   4.056   3.175  10.028 -0.0941  0.1079 -0.1692
76532W        W19444   4.001  33.895   8.880  0.1322  0.0866 -0.2621
76533W        W19445   6.553  33.803   7.868  0.2533 -0.0004 -0.0672
76534W        W19446   3.236  34.099   8.356 -0.3477 -0.1386 -0.0580
76535W        W19447   2.763  34.129   9.569  0.0652 -0.2204 -0.0329
76536W        W19448   3.517  33.466   9.418 -0.1260 -0.0851  0.1259
76537W        W19449   6.151  33.924   8.305  0.0848  0.2513 -0.0152
76538W        W19450   6.158  34.451   8.339 -0.2003  0.1398 -0.1189
76539W        W19451   6.511  34.692   9.592 -0.2181  0.0965  0.1052
76540W        W19452   5.861   0.423   9.069  0.0570  0.1792  0.2478
76541W        W19453   8.134  33.457   7.253  0.4703  0.1408 -0.3683
76542W        W19454   6.272  33.459   7.613  0.1595 -0.0762 -0.0472
76543W        W19455   6.475  33.610   6.931  0.2507 -0.1200  0.0631
76544W        W19456   4.277  31.944   8.759  0.0656  0.1869 -0.3481
76545W        W19457   3.300  34.290   8.859 -0.1515  0.1497 -0.4116
76546W        W19458   3.217  34.656   9.208  0.0241  0.0956  0.1041
76547W        W19459   5.887  33.600   9.954 -0.2164 -0.0283  0.1180
76548W        W19460   2.815  32.495   9.278  0.0791 -0.1738  0.3248
76549W        W19461   2.692  34.334   8.154 -0.2436  0.2502 -0.0492
76550W        W19462   3.009  32.554   7.569 -0.1834 -0.0841  0.1205
76551W        W19463   7.600  32.539   8.594  0.1133  0.0396 -0.0894
76552W        W19464   5.073  33.213   9.206  0.2459  0.1195 -0.0058
76553W        W19465   6.676  31.375   9.636 -0.0604  0.0071 -0.0823
76554W        W19466   7.950  33.933   7.028 -0.1582  0.1407 -0.0640
76555W        W19467   4.301  33.427   9.623 -0.3033 -0.2848 -0.1813
76556W        W19468   6.639  33.053   7.545  0.0864  0.1081  0.0429
76557W        W19469   6.405  33.809   8.771 -0.1603 -0.3224 -0.0826
76558W        W19470   7.949  34.469   7.377  0.2667  0.0778  0.0742
76559W        W19471   3.136  34.630   9.749 -0.1814 -0.0666 -0.0356
76560W        W19472   5.564  34.408   7.304  0.1400  0.1170  0.1241
76561W        W19473   3.555  32.725  10.010  0.1984  0.0152 -0.0798
76562W        W19474   4.670  32.005   7.934 -0.0678 -0.1876 -0.2531
76563W        W19475   3.720  33.149   9.696 -0.1935 -0.0666 -0.1145
76564W        W19476   4.039   0.358   9.519 -0.3289  0.0342 -0.0696
76565W        W19477   2.580  33.181   9.644 -0.0442  0.1232  0.2185
76566W        W19478   4.003  34.411   8.078  0.1963  0.4106  0.2326
76567W        W19479   4.178  33.342   6.861 -0.1424  0.2322 -0.0369
76568W        W19480   6.993  33.617   8.271 -0.0385  0.1417 -0.0039
76569W        W19481   3.977  33.797   7.456 -0.5489 -0.4987 -0.0014
76570W        W19482   3.653   0.205   9.211  0.0199  0.0477 -0.0582
76571W        W19483   6.818  32.336   8.390  0.1023 -0.2819  0.1718
76572W        W19484   4.388  34.625   7.562  0.2002  0.0768 -0.2519
76573W        W19485   5.969  33.086   8.503  0.1663  0.1230  0.3097
76574W        W19486   7.778  33.294   7.782 -0.2318 -0.1241 -0.1849
76575W        W19487   6.503  34.635   6.985 -0.0345  0.2765 -0.1019
76576W        W19488   4.843  32.687   6.366 -0.0413 -0.0805  0.0579
76577W        W19489   4.004  33.514   8.350 -0.2377 -0.2963  0.2232
76578W        W19490   4.264  32.696   9.091 -0.2316 -0.2032 -0.2273
76579W        W19491   4.326  34.462   8.449 -0.0895  0.2487  0.2007
76580W        W19492   4.348  33.485   8.820  0.0236 -0.2799  0.1694
76581W        W19493   7.957  31.863   9.605 -0.0911 -0.0134  0.0458
76582W        W19494   6.520  33.516   9.228  0.0451 -0.2250  0.1019
76583W        W19495   7.023  34.403   7.187  0.3183 -0.3049 -0.3761
76584W        W19496   6.963  34.594   8.282  0.0600  0.0664  0.1939
76585W        W19497   4.388  33.581   7.396 -0.1061  0.0891  0.1403
76586W        W19498   4.058  33.130   9.256  0.0890  0.1963  0.1874
76587W        W19499   6.026  33.447   8.083 -0.0830  0.3693 -0.2021
76588W        W19500   3.125  33.530   9.071  0.0096  0.1293  0.3001
76589W        W19501   6.919  33.843   9.485 -0.1681 -0.1965  0.0384
76590W        W19502   4.566  32.913   7.377 -0.0827  0.0810 -0.1722
76591W        W19503   2.783   0.159   9.413 -0.2768  0.0172 -0.2941
76592W        W19504   6.668  34.030   8.430  0.1809  0.1810  0.1358
76593W        W19505   3.097  34.123  10.026  0.2217  0.1500  0.0559
76594W        W19506   7.448  34.560   8.500  0.0756  0.1606 -0.1779
76595W        W19507   6.321  33.193   7.180 -0.1589 -0.1729 -0.2221
76596W        W19508   3.902  34.566   5.979  0.1277  0.0904  0.0879
76597W        W19509   5.859  34.071   8.787  0.1755 -0.2837 -0.0215
76598W        W19510   5.152  34.598   9.327 -0.1453 -0.1283  0.2104
76599W        W19511   4.784  34.293   8.542  0.2760 -0.2396 -0.0565
76600W        W19512   5.719  33.592   9.414  0.0447  0.0896 -0.0954
76601W        W19513   5.514  32.034   9.512 -0.1431 -0.2161 -0.0599
76602W        W19514   3.467  33.615   8.151 -0.0103  0.1585 -0.1688
76603W        W19515   5.684  34.070   9.329  0.0823  0.4619 -0.0128
76604W        W19516   3.555  33.778   9.767 -0.2766 -0.2914 -0.2472
76605W        W19517   4.906  32.498   8.066  0.3797  0.4271 -0.1117
76606W        W19518   5.272  33.462   9.672 -0.0991  0.0175  0.1107
76607W        W19519   7.108  32.746   6.570  0.2356  0.3757 -0.1978
76608W        W19520   4.230  34.375   8.922  0.1061 -0.2049  0.1317
76609W        W19521   6.151  34.154   7.396  0.0686 -0.0997 -0.4719
76610W        W19522   1.406  32.616   9.240  0.0779 -0.0254 -0.0030
76611W        W19523   5.125  33.802   9.047 -0.2530 -0.1596  0.0028
76612W        W19524   5.382  33.181   8.197  0.2513 -0.1794  0.1700
76613W        W19525   4.899  34.058  10.407  0.1059  0.1201  0.0270
76614W        W19526   7.732  34.046   7.737 -0.0830  0.0568 -0.2244
76615W        W19527   4.774  34.232   9.053  0.2689 -0.0872  0.1704
76616W        W19528   5.564  34.405   9.655  0.0010 -0.3649  0.2235
76617W        W19529   4.540  33.189   9.117 -0.1966 -0.3482 -0.0691
76618W        W19530   8.406  34.465   7.682  0.1187  0.0228  0.1698
76619W        W19531   8.311  33.244   9.980  0.2290 -0.4622 -0.1218
76620W        W19532   7.157  34.104   6.844  0.1222  0.2342  0.2577
76621W        W19533   5.727  34.208   8.079  0.0353  0.0129  0.3453
76622W        W19534   3.070  33.733   9.698 -0.0738 -0.0549  0.0868
76623W        W19535   5.040  32.706   7.327 -0.0321 -0.0778 -0.1046
76624W        W19536   5.572  33.705   8.919  0.1318 -0.0021  0.3253
76625W        W19537   2.154  33.193   9.316 -0.2241 -0.1307 -0.1258
76626W        W19538   4.669  34.387   7.170 -0.2065 -0.1783  0.0700
76627W        W19539   5.087  34.562   7.366 -0.2753 -0.2956  0.0274
76628W        W19540   5.213  33.793   7.959 -0.1137 -0.4129  0.0820
76629W        W19541   5.764  32.849   7.952 -0.3014 -0.3477 -0.2118
76630W        W19542   4.834  32.686   9.271  0.0809  0.3238  0.0233
76631W        W19543   6.578  34.086   9.736  0.3112  0.1119 -0.1712
76632W        W19544   6.051   0.785   9.434 -0.0371  0.4497 -0.1543
76633W        W19545   3.868  34.307   8.581 -0.0449  0.2222  0.1625
76634W        W19546   4.708  32.877   8.773  0.0923 -0.1384  0.0717
76635W        W19547   4.336  33.353   7.838  0.1472 -0.3092  0.1201
76636W        W19548   6.925  32.396   7.003 -0.2272  0.1110  0.1904
76637W        W19549   7.397   0.029   8.035  0.0703  0.0219 -0.1474
76638W        W19550   7.620  33.627   7.345 -0.1168 -0.1367 -0.0290
76639W        W19551   5.731  32.716   8.969  0.0705 -0.1904  0.0938
76640W        W19552   4.544  33.333   8.387  0.2063  0.0614  0.0695
76641W        W19553   3.075  32.853   9.752  0.0082 -0.1142  0.0388
76642W        W19554   5.667  34.492   8.569 -0.2538  0.0146 -0.2609
76643W        W19555   7.497  34.447  11.900 -0.1751 -0.0770 -0.1070
76644W        W19556   6.584   0.863   9.709 -0.0804  0.1295  0.2880
76645W        W19557   3.510  34.575   8.260 -0.1853  0.3075 -0.2495
76646W        W19558   6.109  33.910   7.824 -0.0743  0.1770  0.0515
76647W        W19559   6.244  33.649   9.584 -0.2449  0.0393 -0.0124
76648W        W19560   2.839  34.117   8.688  0.2966  0.1808 -0.1789
76649W        W19561   6.103  33.722   9.132  0.0890 -0.0984 -0.4193
76650W        W19562   4.928  33.826   9.841 -0.0724  0.0931  0.0678
76651W        W19563   4.350  33.980   9.225 -0.0443  0.1075  0.1146
76652W        W19564   6.228  34.497   6.574  0.1424  0.4121 -0.1413
76653W        W19565   3.108  32.526   8.898  0.0997 -0.1739 -0.2887
76654W        W19566   5.368  34.106   8.462  0.0779  0.1774 -0.2843
76655W        W19567   3.962   0.161   8.860  0.2550  0.0768  0.0595
76656W        W19568   4.666  33.302  10.158  0.2967 -0.1059 -0.0030
76657W        W19569   4.655  32.106   8.438 -0.2156  0.1918  0.2332
76658W        W19570   6.786  34.371   8.851  0.1355  0.1485  0.1636
76659W        W19571   6.564  34.316   7.512 -0.0217 -0.0411  0.0672
76660W        W19572   3.139   0.496   9.751 -0.0280 -0.0201  0.0971
76661W        W19573   6.748  33.553   7.401 -0.2360  0.0731  0.0233
76662W        W19574   3.745  33.428   8.846  0.2092  0.0603 -0.0747
76663W        W19575   8.943  33.973  10.258 -0.0625  0.1848 -0.2062
76664W        W19576   5.084  34.648   8.818 -0.1389  0.0871  0.0138
76665W        W19577   2.052  32.468   9.813 -0.3060 -0.0511 -0.3865
76666W        W19578   8.356  34.047   7.369 -0.0815 -0.0505 -0.0202
76667W        W19579   5.866  33.089   7.495 -0.1072 -0.0176 -0.2448
76668W        W19580   3.602  34.296  10.100 -0.0138 -0.1195  0.1221
76669W        W19581   3.827  34.620   7.348 -0.0332 -0.3610 -0.1703
76670W        W19582   2.521   0.402   8.594 -0.0950 -0.1750  0.1047
76671W        W19583   4.188  33.032   8.191 -0.1607  0.2606  0.0904
76672W        W19584   4.455  32.937   9.540 -0.2801 -0.0396 -0.1590
76673W        W19585   3.025  33.012   9.000  0.2193 -0.0440 -0.0203
76674W        W19586   5.979  33.215   9.087  0.1471 -0.0579  0.0553
76675W        W19587   2.849  33.699   8.244  0.1789 -0.0626 -0.0539
76676W        W19588   7.347  33.577   8.789 -0.0520 -0.3548  0.2237
76677W        W19589   1.464  34.037   9.335  0.2826 -0.1834  0.1725
76678W        W19590   7.137  34.157   8.109  0.0645  0.3260 -0.1502
76679W        W19591   4.812  34.677   7.837 -0.0856 -0.1186  0.0993
76680W        W19592   3.659  33.826   8.533 -0.1078  0.1911  0.0783
76681W        W19593   7.477  33.050   6.833  0.0040  0.1306 -0.0000
76682W        W19594   4.754  33.669   9.375 -0.1087 -0.3534 -0.4273
76683W        W19595   4.689  33.830   8.790 -0.0028  0.1679  0.1513
76684W        W19596   3.608  34.150   7.995 -0.1876  0.0320 -0.1185
76685W        W19597   7.427   0.234   6.903 -0.1669  0.1313  0.1549
76686W        W19598   4.517  32.393   8.808 -0.1310  0.2520 -0.2585
76687W        W19599   4.687   0.309   7.417 -0.1088  0.1429  0.1369
76688W        W19600   6.046   0.039   8.846 -0.0888 -0.2273 -0.0589
76689W        W19601   6.311  33.303   8.748  0.0907  0.0596 -0.0165
76690W        W19602   2.490  34.035   9.161  0.0291  0.0774  0.0545
76691W        W19603   4.885  33.392   7.950 -0.0315 -0.0780  0.1071
76692W        W19604   9.371   2.252   3.675 -0.1720  0.0554  0.0872
76693W        W19605   8.181   1.748   0.279 -0.4338  0.2172 -0.3135
76694W        W19606  10.245   0.474  31.268 -0.1633 -0.2809  0.1666
76695W        W19607  11.977   0.954  31.220  0.1182  0.0766 -0.1794
76696W        W19608   8.870   1.473   0.304  0.1383 -0.6986 -0.0854
76697W        W19609  10.065   3.827   0.451 -0.0689 -0.0951 -0.1398
76698W        W19610   8.017  34.168   2.619 -0.0882  0.0969  0.1492
76699W        W19611  12.158   3.630   0.935  0.3940 -0.2758  0.2246
76700W        W19612  11.376   3.397   2.192 -0.3139 -0.1155  0.3258
76701W        W19613   9.794  34.679  31.722 -0.0808 -0.2704 -0.0786
76702W        W19614   9.662   2.538   1.641  0.0601  0.0349  0.4645
76703W        W19615   8.523   3.011   3.060 -0.2261 -0.0360  0.0449
76704W        W19616   8.697   1.001   0.092  0.1670 -0.0425 -0.2520
76705W        W19617   7.466   0.716   1.078  0.2267 -0.1162  0.1221
76706W        W19618  10.811   2.676   1.898  0.0548 -0.1654  0.1151
76707W        W19619   7.852   2.509   0.952  0.1391  0.1881 -0.1638
76708W        W19620   9.299   1.064   3.179  0.3286  0.0268 -0.1693
76709W        W19621   9.146   1.382   1.002  0.2709  0.0354 -0.1512
76710W        W19622   9.992   1.734   1.033  0.1001  0.1866 -0.0964
76711W        W19623   7.812   2.695   2.221  0.5763  0.1152 -0.0805
76712W        W19624  10.188   0.410   3.877 -0.0080 -0.3289  0.2976
76713W        W19625  10.509   1.979   0.801 -0.1877 -0.1364  0.0841
76714W        W19626   7.113   0.631   0.522  0.4349  0.0183 -0.1170
76715W        W19627   7.572   1.637   1.336 -0.0671 -0.0047  0.1133
76716W        W19628   9.296   2.084   2.330 -0.1135 -0.2044 -0.0933
76717W        W19629  10.111   0.683   0.937  0.1981 -0.2941 -0.1093
76718W        W19630  10.429   0.957   1.790  0.1022 -0.1941 -0.1581
76719W        W19631  10.561   3.931   2.100  0.2329  0.0415 -0.1338
76720W        W19632  10.113   3.438   0.869  0.1284  0.1104  0.0173
76721W        W19633  10.519   2.387   2.965  0.0943 -0.2962 -0.3350
76722W        W19634   9.438   3.166   2.604  0.1259 -0.1235  0.5115
76723W        W19635   7.881   4.054   0.764  0.1301  0.5635  0.0208
76724W        W19636   8.227   1.210   1.692  0.0036  0.1363 -0.3614
76725W        W19637  11.110   1.433   0.220 -0.0279 -0.0791  0.2606
76726W        W19638  11.174   2.821   2.644 -0.0002  0.3351  0.1229
76727W        W19639   9.976   3.514   3.811  0.0592 -0.3351 -0.0278
76728W        W19640   8.112   2.460  31.641 -0.1105  0.0306 -0.1649
76729W        W19641   9.721   3.071   3.434 -0.0549 -0.0435 -0.1383
76730W        W19642   8.895   3.292   2.780  0.2223  0.2989 -0.0211
76731W        W19643   9.645   2.166   1.078  0.0976  0.2073 -0.1162
76732W        W19644   9.134   2.751   2.466 -0.1359  0.0977 -0.0941
76733W        W19645   8.332   1.292   0.008 -0.0314 -0.4464  0.0327
76734W        W19646   9.672   2.653   1.156  0.3555  0.4009 -0.1283
76735W        W19647   9.459   2.757   3.916 -0.0978 -0.0468  0.1632
76736W        W19648   8.202   2.634   1.714  0.2208  0.0133 -0.2483
76737W        W19649  12.249   0.665   3.768 -0.0520  0.2617 -0.0794
76738W        W19650   7.650   2.655   0.492  0.1929 -0.2410  0.0376
76739W        W19651  10.447   0.651   1.425 -0.0471  0.1785  0.0997
76740W        W19652  10.435  33.717   0.893  0.0302 -0.1350  0.0926
76741W        W19653  11.834  34.290   0.347 -0.0994  0.0909 -0.1602
76742W        W19654   8.861   1.062   0.633 -0.3664 -0.1064  0.0611
76743W        W19655   9.295   2.183   1.422  0.0831  0.1619 -0.1347
76744W        W19656   9.089   2.339   2.790  0.2765  0.0996  0.1589
76745W        W19657  11.119   2.184   1.933  0.1374  0.0764 -0.0954
76746W        W19658   9.519   1.468   1.721 -0.0724 -0.0905  0.1322
76747W        W19659  10.906   1.870   1.646  0.0277  0.2616 -0.0669
76748W        W19660   6.961   3.746   2.528  0.0943 -0.0047  0.0336
76749W        W19661   8.976   0.926   1.212 -0.3841  0.0161 -0.0010
76750W        W19662  10.839   4.860  31.320 -0.0854  0.0322 -0.4306
76751W        W19663  11.370   3.441   1.672 -0.2550 -0.0996 -0.0117
76752W        W19664  12.382   3.388   0.573 -0.0837  0.3319 -0.0285
76753W        W19665   7.044   0.477   1.022 -0.2265  0.2365 -0.2838
76754W        W19666   7.864   2.336   3.441 -0.0246 -0.2057 -0.1246
76755W        W19667   9.327   1.936   4.083 -0.0654 -0.0485  0.1653
76756W        W19668   7.257  34.506   0.209  0.0549 -0.0641  0.0181
76757W        W19669  12.140   1.665   2.502 -0.2653 -0.0283  0.2216
76758W        W19670   8.504   4.072   3.800  0.3329  0.0690  0.0953
76759W        W19671  11.693  33.701   1.112 -0.0703  0.2811  0.2113
76760W        W19672   8.770   2.339   1.301  0.0236  0.1871  0.1832
76761W        W19673  11.517   3.261   3.395  0.4563  0.2877  0.0055
76762W        W19674  10.957   0.870   2.015 -0.1122  0.0166  0.1857
76763W        W19675   9.596   0.215   1.006 -0.1813 -0.0016  0.0846
76764W        W19676   8.823  34.190   3.088 -0.1150 -0.0915  0.5262
76765W        W19677   8.378   1.336   0.488  0.3591  0.0635  0.1376
76766W        W19678   9.322   1.381   0.461 -0.0608 -0.1967 -0.1699
76767W        W19679  12.148   3.045   2.630 -0.0432  0.0308 -0.0520
76768W        W19680  10.326  34.618   0.543 -0.4075  0.0075 -0.2456
76769W        W19681   8.507   3.597   1.494  0.0619 -0.0649  0.0763
76770W        W19682   9.017   2.272   4.404 -0.1957 -0.1111 -0.0244
76771W        W19683   9.300   2.526   3.263  0.2779 -0.2812 -0.0262
76772W        W19684   7.689   2.877  30.818  0.2272 -0.1475 -0.0643
76773W        W19685   6.807   1.746   2.376 -0.1115 -0.2967 -0.0769
76774W        W19686   8.091   2.257   1.394 -0.0410  0.0894 -0.1212
76775W        W19687   8.426   1.241   2.152 -0.0244  0.1252 -0.0725
76776W        W19688  10.057   2.986   1.831  0.3348 -0.0633 -0.0506
76777W        W19689  10.035   3.003   1.198 -0.3230 -0.1172 -0.0158
76778W        W19690   9.059   1.430   2.910  0.1251  0.4519  0.1282
76779W        W19691   8.726  34.680   2.276 -0.2053  0.1079 -0.3702
76780W        W19692   8.432   3.133   0.253  0.0575  0.0951  0.3604
76781W        W19693  11.346   3.346   0.099 -0.0985 -0.2502  0.2367
76782W        W19694  10.351  34.225   0.819 -0.1566  0.3647 -0.2808
76783W        W19695  11.012   1.860   1.077  0.2065 -0.0981  0.0911
76784W        W19696   8.694   0.991   2.686 -0.1857 -0.1569  0.0030
76785W        W19697   8.743   1.871   3.009  0.4603 -0.1802 -0.2436
76786W        W19698   8.407  34.427   2.699 -0.0076 -0.1659  0.1341
76787W        W19699   7.766   0.204   1.930  0.3947  0.1064  0.2552
76788W        W19700  10.561   0.984   3.241 -0.0715  0.5182 -0.1425
76789W        W19701   7.482   1.612  31.671  0.2287 -0.1616  0.1016
76790W        W19702   9.279   0.944   1.623 -0.0560  0.1338 -0.1682
76791W        W19703   9.768   2.226   2.261  0.0389 -0.1232 -0.2571
76792W        W19704   6.614   2.249   2.767 -0.2928  0.4413 -0.2152
76793W        W19705  12.226  34.589   2.591 -0.4477  0.0609 -0.0446
76794W        W19706   8.794   2.286   0.755  0.0283 -0.3351  0.0011
76795W        W19707  11.002   3.709   3.334 -0.0907 -0.1636 -0.1431
76796W        W19708  10.494   3.378  31.420  0.1018  0.0587 -0.0586
76797W        W19709   8.864   1.371   2.402 -0.3238 -0.0909  0.0519
76798W        W19710   7.570   0.766  31.821 -0.0226  0.0301  0.3208
76799W        W19711   7.495   3.112   0.702  0.2761  0.2461 -0.0135
76800W        W19712   8.524   2.729   0.674 -0.1545 -0.3355  0.2805
76801W        W19713   9.218   0.722   0.297  0.3199  0.2747  0.0384
76802W        W19714  10.435   3.121   1.539  0.0618 -0.1075 -0.3327
76803W        W19715   9.279   1.160   2.102 -0.2220 -0.1835  0.2187
76804W        W19716   7.597   2.240   3.052  0.1855 -0.5686  0.1049
76805W        W19717  10.001   0.304   3.455  0.1991  0.1657  0.0464
76806W        W19718  10.469   1.407   2.275 -0.2170 -0.1334  0.0024
76807W        W19719  10.022   2.568   2.083 -0.5223 -0.1246  0.0058
76808W        W19720   7.936   0.989   0.766 -0.1988  0.1030  0.0786
76809W        W19721  11.050   2.657  31.833  0.0021  0.1838 -0.1157
76810W        W19722   8.381   4.251   0.923  0.0444  0.0115 -0.3944
76811W        W19723   7.193   1.968   0.971 -0.2194  0.0483 -0.0631
76812W        W19724   9.102   1.811   0.553 -0.0485 -0.1291 -0.2496
76813W        W19725  10.873   0.448   1.700 -0.0792 -0.2108  0.2165
76814W        W19726   8.052   1.866   4.423 -0.1925 -0.1985  0.2082
76815W        W19727   9.912   1.734   1.542  0.0546 -0.3634  0.1263
76816W        W19728   8.912   0.567   1.492 -0.2221 -0.1206  0.1812
76817W        W19729   7.660   4.375   3.531  0.1914  0.2026 -0.3968
76818W        W19730   8.941   0.767  31.756 -0.1198 -0.0137 -0.1154
76819W        W19731  11.393  34.399  31.604 -0.1188 -0.3650 -0.2209
76820W        W19732  11.470   3.740   3.063  0.1981  0.3187 -0.3952
76821W        W19733  10.652   2.928  31.146 -0.0861 -0.1360  0.1890
76822W        W19734  10.867  34.574   0.502 -0.0757 -0.1855  0.2100
76823W        W19735   8.380  34.473   0.414 -0.1973  0.0034  0.3476
76824W        W19736   8.181   2.734   3.414  0.0627  0.0528 -0.3368
76825W        W19737  10.016   2.150   1.826 -0.0060 -0.0245  0.1651
76826W        W19738  10.814   3.663   2.392  0.0031 -0.1856  0.0518
76827W        W19739   8.900   0.805  30.938 -0.1198  0.0184  0.2536
76828W        W19740  12.652   3.286   1.812 -0.2531  0.1331  0.1571
76829W        W19741   9.117   3.249   2.242 -0.0916 -0.0941  0.0379
76830W        W19742  10.842   3.501   3.954 -0.3070  0.0943 -0.0231
76831W        W19743  11.233   1.903   0.583  0.1047 -0.2833  0.0397
76832W        W19744   8.467   1.553   2.724 -0.0416  0.0166 -0.2074
76833W        W19745   9.400   2.029  31.487 -0.0641 -0.1269  0.1008
76834W        W19746   8.998   0.404   0.912 -0.2335  0.0017  0.5447
76835W        W19747   8.725   2.961   1.026 -0.2017  0.0517  0.1757
76836W        W19748  10.172   2.621   1.560  0.2840  0.0787  0.0163
76837W        W19749   8.260   0.293   2.245 -0.1131 -0.0755  0.1024
76838W        W19750   9.784   1.292   4.031  0.0627 -0.0530  0.1216
76839W        W19751  11.410   0.030   3.260 -0.0388  0.2354  0.5126
76840W        W19752  10.487   0.372   0.030 -0.1431 -0.2043  0.2039
76841W        W19753  10.112   2.125   1.316 -0.0277  0.0504  0.3722
76842W        W19754   9.648   1.699  31.770 -0.1558 -0.0570 -0.1018
76843W        W19755   9.401   1.523   3.735  0.0484 -0.0679 -0.0991
76844W        W19756   7.975   0.917   4.329 -0.2590  0.2602  0.1448
76845W        W19757   7.008   3.527   3.038 -0.0015  0.2248  0.2203
76846W        W19758  11.115   2.574   3.752 -0.2365 -0.1964 -0.2727
76847W        W19759  10.816   2.714   1.409  0.0977 -0.2106  0.0844
76848W        W19760   8.879  34.335   0.399  0.1057  0.0595 -0.3095
76849W        W19761   9.888   2.903  31.788 -0.0095  0.0183 -0.1590
76850W        W19762   9.972   2.067  31.976 -0.0636 -0.3472  0.2503
76851W        W19763   9.595  33.540   0.593 -0.0629  0.1449 -0.2589
76852W        W19764  10.373   3.276   2.655 -0.0703 -0.2514 -0.3825
76853W        W19765   6.630   2.414  31.250  0.0774 -0.2460  0.3263
76854W        W19766   9.830   1.656   2.134  0.0925 -0.0126  0.1092
76855W        W19767   8.130   2.690   0.330 -0.0716 -0.2203  0.0015
76856W        W19768  10.085   1.125   3.058  0.0008  0.0624  0.2732
76857W        W19769   8.829   2.530   1.819 -0.1103 -0.2917 -0.0851
76858W        W19770   8.297   0.727  31.074 -0.0620 -0.0820  0.1510
76859W        W19771   6.654   0.988  31.734 -0.2848 -0.0398 -0.0626
76860W        W19772  10.377   0.173   1.666 -0.0253  0.0323 -0.3344
76861W        W19773  11.505   1.701  31.767  0.1929  0.1419  0.0041
76862W        W19774   8.155   0.377   1.479 -0.0319  0.1771 -0.1560
76863W        W19775   9.481   0.575   2.763  0.1857  0.1339 -0.0060
76864W        W19776   7.647   3.504   2.002 -0.0405 -0.1269  0.0591
76865W        W19777  10.527   2.941   3.757 -0.2801 -0.0821 -0.1841
76866W        W19778   9.893   0.081  31.217 -0.0532 -0.2412  0.0931
76867W        W19779  10.809   2.000   2.566  0.1041  0.0733  0.0950
76868W        W19780   9.599   2.356   2.694  0.0026  0.0253  0.0507
76869W        W19781   6.263   0.013  31.287  0.3152 -0.0043 -0.1469
76870W        W19782  10.743   1.819   2.094 -0.0584  0.3932  0.0259
76871W        W19783   8.105   1.706   1.565 -0.1717 -0.0105  0.4851
76872W        W19784   8.076   2.947   0.783  0.2900  0.1513 -0.3172
76873W        W19785  11.228   2.901   1.654  0.0683 -0.0959  0.2909
76874W        W19786   7.282   2.492   2.060 -0.2417  0.0046  0.1251
76875W        W19787   8.136   3.603   2.246 -0.2271 -0.4662  0.1450
76876W        W19788   9.187   0.555   3.486 -0.0366  0.1697 -0.1384
76877W        W19789  11.262   2.230   1.369  0.0054  0.0660  0.2179
76878W        W19790   8.623   1.301   1.350  0.0329  0.1759 -0.1339
76879W        W19791   8.211   0.778  31.858  0.2450  0.0136 -0.0241
76880W        W19792   9.039   1.543   1.563  0.2191  0.1210 -0.0776
76881W        W19793  10.845   2.368   1.068  0.0217  0.3726  0.2426
76882W        W19794  10.407   2.331   2.481  0.1259 -0.4057  0.0242
76883W        W19795   8.935   2.437   3.872 -0.0409 -0.0980 -0.2756
76884W        W19796   9.632   0.723   3.221 -0.1219  0.2080  0.1010
76885W        W19797  10.963   3.093  31.608 -0.2453 -0.4149 -0.0794
76886W        W19798  10.780   2.236   3.561 -0.2241 -0.1045  0.2028
76887W        W19799   8.825   2.717  31.592 -0.0231  0.0549  0.1888
76888W        W19800   8.707   0.649   2.239  0.0272 -0.0494 -0.1045
76889W        W19801   9.017   3.617   1.306 -0.0519  0.0980  0.1563
76890W        W19802   9.265   0.977   2.600 -0.0524 -0.1552 -0.1363
76891W        W19803   8.569   3.321   2.408 -0.1070 -0.2183  0.1301
76892W        W19804   8.281   2.203   0.302 -0.1174  0.0641  0.3370
76893W        W19805   8.513   2.145   1.672 -0.2057  0.2322 -0.1418
76894W        W19806  10.713   0.696  31.482 -0.3488 -0.3606  0.3972
76895W        W19807  10.309   2.568  31.921  0.1319 -0.0306 -0.1900
76896W        W19808   9.348  34.498   1.670 -0.0223 -0.4696  0.3901
76897W        W19809  10.907   1.267   2.756 -0.0418 -0.3047 -0.0376
76898W        W19810  10.449   1.406   1.507 -0.1633  0.0941  0.0911
76899W        W19811  11.446  34.372   2.275 -0.0713  0.0635  0.3645
76900W        W19812   9.730   1.159   2.288  0.1047 -0.1357  0.3158
76901W        W19813  10.915   1.364   0.724  0.3347 -0.1311 -0.0965
76902W        W19814   8.097   1.246   2.838  0.4010 -0.1074  0.0278
76903W        W19815  10.525   4.047   3.170 -0.1307 -0.0501  0.2193
76904W        W19816   7.099   2.275   3.200  0.1534 -0.2279 -0.2745
76905W        W19817   9.750   0.891   1.815  0.4639 -0.1896 -0.2620
76906W        W19818   7.912   0.190   0.524 -0.1510  0.4434 -0.4100
76907W        W19819   9.988   2.628   2.612  0.1516 -0.1262 -0.4700
76908W        W19820  11.326   3.128   0.830  0.0408  0.0191  0.1823
76909W        W19821  10.281   2.567   0.997  0.1879 -0.0017 -0.0296
76910W        W19822  10.062   1.325   1.903 -0.1629 -0.1553 -0.0886
76911W        W19823   8.244   1.565   3.238  0.0776  0.3363  0.1715
76912W        W19824  11.497   2.002   0.973 -0.1500  0.0179  0.0923
76913W        W19825   9.961   1.292   0.248  0.2761  0.0077 -0.6417
76914W        W19826   7.802   1.620   3.057 -0.0125 -0.1352  0.0386
76915W        W19827   9.776   1.842   2.607  0.3506  0.0008 -0.1098
76916W        W19828  11.259   1.818   2.356  0.1174 -0.3898  0.3172
76917W        W19829   9.666   0.912   0.378  0.0334 -0.0424  0.0124
76918W        W19830   9.876   0.854   2.679  0.1855 -0.0890 -0.0307
76919W        W19831  10.246   1.919   2.261  0.0216  0.2029 -0.0420
76920W        W19832  10.369   2.022   3.920  0.0059  0.1204  0.3741
76921W        W19833   8.115  33.663   2.548 -0.2228  0.0279  0.0355
76922W        W19834  11.446   2.235   3.519  0.0258 -0.0890 -0.1868
76923W        W19835  12.341   1.320  31.223  0.2176 -0.1474 -0.0452
76924W        W19836  10.119   0.924   2.222  0.1981 -0.0971  0.2196
76925W        W19837  10.969   1.382   1.234 -0.1553  0.2017  0.0467
76926W        W19838   9.095   1.935   1.040  0.3186  0.2431  0.2347
76927W        W19839   7.994   1.205   2.320  0.1094 -0.1028  0.0918
76928W        W19840  12.309   1.181   2.560 -0.1406 -0.2732 -0.5841
76929W        W19841  11.438   1.717  31.206  0.2226 -0.0200 -0.0393
76930W        W19842  10.492   1.620   2.736  0.2135 -0.1349 -0.0049
76931W        W19843   9.829   3.354   0.222  0.2031  0.2397  0.1953
76932W        W19844   9.373   2.227   0.632  0.0829 -0.0652 -0.0335
76933W        W19845  10.660  34.646   0.936  0.2591 -0.2003 -0.0720
76934W        W19846   6.619   0.613   1.476 -0.2352 -0.0722 -0.1878
76935W        W19847   7.699   4.774   3.925  0.2787  0.1944 -0.2839
76936W        W19848   7.949   0.521  31.480  0.1908  0.1547  0.4480
76937W        W19849   8.709   0.206   0.422  0.0900  0.4476 -0.3621
76938W        W19850  10.219   3.181   3.436  0.0159  0.1704  0.2156
76939W        W19851  12.308   1.433   5.001  0.1843  0.1618 -0.1828
76940W        W19852   8.776  33.536   0.945 -0.3320  0.4358  0.0600
76941W        W19853  10.833   0.401   2.559  0.3946  0.1384 -0.2195
76942W        W19854   8.332   3.451   0.631 -0.0671 -0.3773 -0.2248
76943W        W19855   9.144   0.059   1.307  0.1363 -0.3735 -0.0874
76944W        W19856   9.344   3.990   2.265 -0.2456 -0.0014 -0.2562
76945W        W19857   8.300   2.331   3.726 -0.1690  0.2104 -0.0511
76946W        W19858   9.370   2.811  31.820 -0.0734 -0.1158  0.0027
76947W        W19859   9.412   1.539   2.448  0.0148 -0.1419 -0.3544
76948W        W19860  10.028   1.373   2.598  0.2190 -0.1133 -0.1794
76949W        W19861   9.192   2.783   1.437 -0.2989 -0.3257 -0.0726
76950W        W19862  11.433   0.883   3.584 -0.1141 -0.2919 -0.1696
76951W        W19863  11.101   3.107   3.704 -0.2117 -0.0116  0.2561
76952W        W19864  10.240   2.640   3.479 -0.1529  0.2094  0.1587
76953W        W19865  11.821   2.860   1.853 -0.2884 -0.4943 -0.2797
76954W        W19866  10.322   1.478   0.708 -0.1664  0.2225 -0.3086
76955W        W19867   8.541   2.178   2.632 -0.0374 -0.1027 -0.2364
76956W        W19868   9.462   1.605   3.275 -0.2513 -0.3167  0.2153
76957W        W19869  10.827   2.638   4.618 -0.0509  0.1123 -0.1752
76958W        W19870  10.374   1.837   1.767  0.0823 -0.0760 -0.3156
76959W        W19871   7.872   0.388  31.945  0.1188 -0.3270 -0.2074
76960W        W19872   9.156   2.457   1.049  0.2138  0.0284  0.2653
76961W        W19873   8.335   3.335   4.056  0.1598 -0.1670  0.2400
76962W        W19874   8.507   1.943   3.481 -0.0736  0.1525 -0.0029
76963W        W19875   9.135   4.007  31.200 -0.1240  0.0354 -0.4878
76964W        W19876  10.526   0.402   0.809 -0.0184 -0.1465  0.3823
76965W        W19877  10.074   1.059   1.387  0.0104  0.0285  0.0372
76966W        W19878  11.281   3.850   2.507  0.1958  0.2976  0.1942
76967W        W19879   8.746   1.417  31.793  0.0651 -0.1614  0.0139
76968W        W19880   8.598   1.873   0.550 -0.2890  0.0395 -0.0636
76969W        W19881   8.937   2.259   0.238  0.0953 -0.1452  0.1144
76970W        W19882  10.079   1.796   0.379 -0.3224  0.0628  0.1674
76971W        W19883   9.148   4.622   0.154 -0.1659 -0.0544  0.2820
76972W        W19884  10.845   1.453   3.221  0.1941  0.1344 -0.3785
76973W        W19885  10.076   0.585   0.281  0.1308 -0.0675  0.0826
76974W        W19886  10.545   1.841   1.276  0.1861  0.0368  0.1562
76975W        W19887  11.079  34.524   1.947 -0.4065 -0.0144  0.4211
76976W        W19888  11.620   2.524   1.495 -0.2289 -0.0404 -0.2318
76977W        W19889   8.620   2.685   2.603 -0.1414  0.0406  0.1657
76978W        W19890   9.200   1.094  31.414  0.0487 -0.3142  0.1654
76979W        W19891   8.616   1.077   5.082 -0.0900 -0.3628 -0.0423
76980W        W19892  12.119  33.823   4.150 -0.4685  0.0018 -0.1085
76981W        W19893   8.058   3.560   3.445  0.2471 -0.0683 -0.3111
76982W        W19894  11.330   2.772  31.435  0.0301 -0.0677 -0.0590
76983W        W19895   7.836   2.003   1.010 -0.0484  0.0106 -0.0822
76984W        W19896   8.800   2.912   2.113  0.0021  0.0697 -0.2957
76985W        W19897  10.361   0.613   2.532  0.0563  0.0009  0.2534
76986W        W19898  10.735   1.676  31.887 -0.2509  0.4018  0.0240
76987W        W19899   9.467   1.746   1.327 -0.2990 -0.3252  0.0235
76988W        W19900   8.996   4.393  31.593 -0.0873  0.3972 -0.3798
76989W        W19901   8.620   3.447   1.046  0.0118  0.1902 -0.2405
76990W        W19902  10.051   4.847   2.998  0.0204  0.3498  0.0250
76991W        W19903   7.843   0.504  30.979 -0.0801  0.2870  0.0549
76992W        W19904  11.630   0.066   1.170 -0.1200 -0.0267  0.1540
76993W        W19905   9.710   2.106   3.146  0.3392  0.3357 -0.0880
76994W        W19906  10.507   0.566   2.083 -0.0646 -0.0655 -0.0902
76995W        W19907   8.625   1.894   0.025  0.3941 -0.0999 -0.3022
76996W        W19908  10.032   0.403   1.942  0.0767  0.1714 -0.0888
76997W        W19909   9.412   2.991   1.883 -0.0574 -0.0070 -0.0618
76998W        W19910   8.903   1.638   3.513 -0.0100 -0.2857  0.3055
76999W        W19911  10.277   1.503  31.844 -0.1701  0.3964  0.2488
77000W        W19912  11.924   1.480   3.026  0.2585 -0.0221  0.1167
77001W        W19913  10.758   0.795   0.018 -0.2155 -0.1706 -0.0085
77002W        W19914  10.900   2.504   2.346  0.0920  0.0638  0.0417
77003W        W19915   8.395   1.049   0.935 -0.1090 -0.0439  0.1496
77004W        W19916   9.578   0.962  30.931  0.3688 -0.0408  0.1378
77005W        W19917   7.223   1.945   2.074 -0.2138 -0.1370 -0.1293
77006W        W19918   9.294   1.851   2.863 -0.1314  0.1928 -0.0629
77007W        W19919  11.256   3.341   2.726 -0.1462 -0.2252  0.1259
77008W        W19920   7.989  34.090   0.414 -0.0273  0.0602 -0.2167
77009W        W19921  10.381   2.135  31.709  0.1426 -0.2639  0.0070
77010W        W19922   9.168   1.624   2.055 -0.0348 -0.1170  0.0053
77011W        W19923   9.570   1.814   0.336 -0.2166 -0.1277 -0.3092
77012W        W19924  11.361   1.637   1.378 -0.2607 -0.0328 -0.0360
77013W        W19925  10.459   3.485   1.176 -0.2078  0.0206  0.0459
77014W        W19926   8.241   0.760   1.998  0.0455  0.1892 -0.1737
77015W        W19927  10.820   3.258   1.845  0.2598  0.0605 -0.2294
77016W        W19928  11.967   0.388   1.962  0.1874 -0.2098  0.0233
77017W        W19929   8.826   1.044   1.875 -0.0530 -0.1011  0.2613
77018W        W19930   7.695   2.502   1.731  0.0086  0.1090 -0.1747
77019W        W19931   8.709   3.835   0.713 -0.1580 -0.1930 -0.0750
77020W        W19932  11.596   0.085   2.030 -0.2909  0.1139 -0.0740
77021W        W19933  10.410   1.059   2.726  0.1529 -0.2641  0.3353
77022W        W19934  10.727   3.525   0.029  0.0684 -0.2793  0.0758
77023W        W19935   9.719   2.586   3.506 -0.0113 -0.1895 -0.0755
77024W        W19936   9.650   2.249   5.036  0.0143  0.2825 -0.0538
77025W        W19937   6.945   2.048  30.917 -0.2013 -0.0220 -0.2618
77026W        W19938  11.091   1.865   3.353 -0.3721 -0.0883  0.0077
77027W        W19939   9.778   2.375  31.694 -0.2019 -0.1388  0.3850
77028W        W19940   9.133   2.704   0.288  0.2254  0.0265 -0.2572
77029W        W19941   9.791   3.997   2.531  0.2400  0.1694  0.0581
77030W        W19942   9.496   2.035   1.843 -0.2928 -0.0713 -0.1302
77031W        W19943  11.357   2.774   1.187 -0.1978 -0.1030  0.2656
77032W        W19944   8.974   0.133   1.790 -0.2262 -0.6599  0.1249
77033W        W19945  11.866   0.029   0.683  0.0894 -0.3158  0.1648
77034W        W19946  10.572  34.577   0.024 -0.1162  0.1622  0.0643
77035W        W19947   7.634   2.159   2.240 -0.3917 -0.2493 -0.0242
77036W        W19948   7.023   0.669  31.485  0.0682  0.3335  0.2099
77037W        W19949   7.812   2.025   0.531  0.3555  0.0597  0.4121
77038W        W19950   9.299   2.487   1.985 -0.2445  0.2282  0.2226
77039W        W19951   9.424   1.470   4.313 -0.2941 -0.1002 -0.0090
77040W        W19952   9.085   1.091   3.663  0.0367 -0.1661 -0.2757
77041W        W19953   8.382   2.609   1.213  0.0053 -0.3735  0.1446
77042W        W19954   9.586   1.182   1.281  0.0165  0.0129 -0.3757
77043W        W19955  11.523   1.059  31.512 -0.2743 -0.2146 -0.1100
77044W        W19956   8.541   0.407   1.797 -0.2072  0.1627 -0.0649
77045W        W19957   8.705   0.036  31.388 -0.3241  0.1775  0.1337
77046W        W19958  10.474   2.744   0.506  0.1744 -0.0890 -0.0308
77047W        W19959  10.847   3.618   0.801 -0.1609 -0.0076 -0.0513
77048W        W19960   8.188   0.150  31.194  0.0629 -0.1800 -0.2279
77049W        W19961  10.668   3.451   3.022  0.0082  0.0082 -0.0637
77050W        W19962   7.068   1.886  31.935 -0.3305 -0.0085 -0.0648
77051W        W19963  10.657   2.249   1.515  0.0542 -0.2108 -0.0890
77052W        W19964  10.510   0.241   2.910 -0.0190 -0.2933 -0.2160
77053W        W19965   8.601   1.022  31.489 -0.1692  0.0465 -0.1918
77054W        W19966   8.860   2.364   2.304 -0.1981  0.1118  0.3240
77055W        W19967   9.225   3.368   1.651  0.0976  0.1080 -0.1316
77056W        W19968   9.480   4.995  30.724 -0.0797 -0.2284 -0.0325
77057W        W19969   8.691   2.418   4.751 -0.1063 -0.0556  0.2883
77058W        W19970   8.010   3.139   3.125  0.0111  0.4524 -0.2303
77059W        W19971   8.069  33.941   2.146  0.1523  0.1026  0.1612
77060W        W19972  10.598   0.823   0.550  0.0352 -0.1053 -0.2592
77061W        W19973   9.854   3.549   2.772  0.1985 -0.0569  0.1423
77062W        W19974  11.208   3.221  31.151  0.1884 -0.0687 -0.2004
77063W        W19975   9.674  34.527   0.495 -0.2206  0.2786 -0.0383
77064W        W19976   8.960   2.072   1.927  0.1030 -0.0225  0.0539
77065W        W19977   8.266  33.431   2.952 -0.2517 -0.0887 -0.0508
77066W        W19978   8.618   2.368   3.117  0.2683 -0.1991  0.0544
77067W        W19979  11.806   2.122   2.729 -0.1838 -0.1211 -0.1429
77068W        W19980   8.580   0.610   1.068 -0.1045  0.0577 -0.2754
77069W        W19981  10.717  34.544  31.245  0.0683 -0.2663 -0.3266
77070W        W19982  10.332   2.285   0.376  0.0185 -0.4074 -0.1714
77071W        W19983   8.981   2.795   2.947  0.0876 -0.2373 -0.2570
77072W        W19984   9.549   1.502  31.315  0.1288 -0.2417 -0.0876
77073W        W19985   9.150   2.073   3.290 -0.0807  0.5085 -0.3350
77074W        W19986  10.854   4.357   0.162  0.0734  0.1417 -0.3660
77075W        W19987   9.599   2.766   2.349 -0.1766 -0.0118 -0.1237
77076W        W19988   8.690   1.507   0.865 -0.0684 -0.0782 -0.1657
77077W        W19989  10.396   1.500  31.311 -0.3587 -0.0950  0.1968
77078W        W19990  11.109   3.044   3.180 -0.2396 -0.0448 -0.2481
77079W        W19991  10.827   3.010   4.111  0.2592  0.3482 -0.3407
77080W        W19992   9.006   3.300   3.248  0.2116 -0.0603  0.2478
77081W        W19993  11.095   1.314   2.284 -0.1500 -0.2670  0.2419
77082W        W19994   9.145   0.598   1.977  0.1625 -0.1065 -0.3272
77083W        W19995   9.110   1.786   0.021  0.0551 -0.1160  0.0725
77084W        W19996   8.570   1.619   1.737  0.0721 -0.4529 -0.3406
77085W        W19997  10.460   2.336   2.033  0.1208  0.1092 -0.1626
77086W        W19998   8.147   1.665   0.829  0.0484  0.0270  0.3820
77087W        W19999   9.727  34.265   1.984 -0.1085  0.3406  0.1910
77088W        W20000   9.889   3.972   2.029  0.1140 -0.1087  0.2247
77089W        W20001  10.010   3.010   2.968 -0.0390  0.0189  0.0004
77090W        W20002   8.782   3.259   6.752 -0.0984 -0.3214 -0.0014
77091W        W20003   9.753   0.410   4.105 -0.1532  0.0564  0.0478
77092W        W20004  11.704   0.928   3.127 -0.0292  0.0050  0.2493
77093W        W20005  11.216   1.461   5.760  0.1225 -0.2972 -0.2316
77094W        W20006   7.610   0.142   5.188  0.1817 -0.1131  0.2675
77095W        W20007   9.432   4.374   4.028 -0.1803  0.2195 -0.2018
77096W        W20008   8.463  33.625   6.227  0.2422 -0.4005 -0.0176
77097W        W20009  10.682   3.541   4.973 -0.1990 -0.0882  0.0191
77098W        W20010   8.991   2.518   6.269  0.1031 -0.0559  0.0087
77099W        W20011  11.042   1.633   4.680 -0.3107 -0.0865 -0.3680
77100W        W20012   9.219   1.924   7.351  0.2199 -0.1305  0.0233
77101W        W20013   8.971   3.141   6.216  0.2853  0.0224  0.2115
77102W        W20014  10.343   0.415   4.799 -0.1230  0.1003  0.0091
77103W        W20015   7.454  33.794   6.267  0.2388 -0.0980 -0.1280
77104W        W20016  11.651   1.167   5.734 -0.4700 -0.1803 -0.3641
77105W        W20017   8.116   1.399   5.427 -0.0751  0.1916 -0.0720
77106W        W20018   7.698   1.323   5.684 -0.1052  0.2489  0.2466
77107W        W20019   9.507   0.270   4.547 -0.0212 -0.0106 -0.1759
77108W        W20020   9.672   3.165   5.356 -0.0653 -0.4875  0.0187
77109W        W20021   9.195   1.350   7.013  0.0558  0.0813  0.0136
77110W        W20022   9.716   0.211   7.273 -0.0107 -0.1229  0.1047
77111W        W20023  11.941   1.577   3.995  0.0502 -0.0721  0.0165
77112W        W20024   8.854   1.947   3.918 -0.0261 -0.0572 -0.0281
77113W        W20025   8.929   0.216   5.486  0.1661  0.4597  0.1028
77114W        W20026   8.006   1.681   5.957 -0.0860  0.0601 -0.1474
77115W        W20027   9.488   0.185   6.391  0.3657 -0.1511 -0.0147
77116W        W20028   9.812   0.277   5.079 -0.2933 -0.0195  0.0351
77117W        W20029   7.468   3.468   5.320 -0.2006  0.1525  0.0949
77118W        W20030   9.907   2.252   4.593  0.0679  0.1905 -0.0371
77119W        W20031   9.963   0.834   7.431  0.2418 -0.0353  0.0292
77120W        W20032   7.701   1.844   5.496 -0.0618  0.0906  0.1390
77121W        W20033   7.108   3.061   5.093 -0.1244 -0.1180  0.4232
77122W        W20034   8.981   1.994   4.822 -0.1640 -0.2897 -0.0095
77123W        W20035  11.021   2.251   4.834  0.1977 -0.2399 -0.0780
77124W        W20036  10.053   2.346   6.265 -0.0015  0.4611 -0.0067
77125W        W20037   9.278   3.712   8.930  0.0667  0.3055 -0.1597
77126W        W20038   9.232   2.982   3.537  0.1589  0.2661 -0.0630
77127W        W20039  10.439   2.915   6.436 -0.0622 -0.1508 -0.0290
77128W        W20040   9.249   3.698   7.710 -0.2522 -0.3103  0.0366
77129W        W20041   8.548   2.369   6.438  0.1903  0.3421 -0.3329
77130W        W20042   9.812   0.557   5.500  0.1030 -0.0171 -0.2686
77131W        W20043   8.712   1.519   4.781 -0.4051 -0.0735  0.0100
77132W        W20044   9.351   2.984   5.797  0.0605  0.0456 -0.1466
77133W        W20045  10.043   2.849   7.398  0.3011 -0.3390 -0.0569
77134W        W20046   6.422   3.173   5.557  0.2923  0.2279 -0.0931
77135W        W20047  11.498  34.303   7.109  0.0510  0.0690 -0.1627
77136W        W20048   8.948   3.470   3.873  0.2192 -0.1634 -0.0060
77137W        W20049  10.190   2.082   3.440 -0.1720 -0.0398  0.1444
77138W        W20050   9.959   2.500   3.083 -0.0035 -0.2283  0.3565
77139W        W20051  10.207   1.442   3.482 -0.0135  0.1623 -0.1749
77140W        W20052   8.550  34.498   4.694  0.0355  0.3735 -0.1527
77141W        W20053   9.118   2.564   4.907  0.1725 -0.2072 -0.0890
77142W        W20054  10.067  33.902   5.931  0.1991 -0.1557  0.0042
77143W        W20055  11.187   0.856   8.103 -0.1229 -0.0749  0.0711
77144W        W20056  10.895   1.192   4.940  0.4717 -0.1823  0.0521
77145W        W20057  11.142   1.512   6.490  0.1931 -0.1125 -0.5471
77146W        W20058   7.934   2.186   6.855 -0.0278 -0.2030  0.2607
77147W        W20059   8.838   1.986   5.676 -0.6183 -0.1875  0.4019
77148W        W20060  10.856   2.196   4.341 -0.0616 -0.0026 -0.1930
77149W        W20061  10.542   2.098   5.472  0.4460 -0.1783  0.0251
77150W        W20062   9.593   3.682   4.205  0.4188 -0.0770 -0.2266
77151W        W20063   8.845   1.331   5.452 -0.0797  0.2719  0.2256
77152W        W20064   8.522   1.919   7.615  0.2979  0.0889  0.1134
77153W        W20065   9.160   1.834   6.745 -0.2208  0.1199  0.0947
77154W        W20066   8.234   0.676   3.907  0.0203  0.1824  0.1210
77155W        W20067  11.547   1.390   6.901  0.0253  0.3193  0.0440
77156W        W20068   7.198   3.347   6.592 -0.3386  0.1690 -0.0544
77157W        W20069  11.308   0.215   6.325  0.0315 -0.3794 -0.1968
77158W        W20070   9.243   2.025   6.021 -0.0920  0.2224  0.0260
77159W        W20071  10.307   1.300   5.537 -0.2242 -0.1276 -0.0065
77160W        W20072  10.632   2.783   2.657  0.1399  0.1202 -0.0090
77161W        W20073  10.005   0.973   5.254  0.0856  0.2271 -0.1498
77162W        W20074  10.606  34.616   5.530 -0.3572 -0.1461  0.0872
77163W        W20075  10.167   2.059   2.896  0.2073 -0.0968 -0.2101
77164W        W20076   9.853   1.505   5.598  0.0643 -0.2762  0.2179
77165W        W20077  11.241   2.739   5.851  0.0092  0.1902  0.0785
77166W        W20078  11.575   1.657   2.674  0.0867  0.1718 -0.3876
77167W        W20079   7.795   3.478   4.406 -0.3709  0.2338  0.1386
77168W        W20080  10.042   0.192   6.285 -0.0285 -0.0753 -0.0310
77169W        W20081   8.947   2.041   7.770 -0.4409  0.0321 -0.1632
77170W        W20082   7.838   3.578   4.954  0.3197  0.0005 -0.0714
77171W        W20083   7.180   2.628   4.692  0.0654  0.2342 -0.0668
77172W        W20084   7.735   2.169   5.119 -0.0533 -0.3102 -0.1049
77173W        W20085   8.081   0.526   6.837 -0.0792  0.0034 -0.0506
77174W        W20086   9.478   3.013   6.305  0.1105  0.0517  0.1012
77175W        W20087  10.685   1.307   4.341  0.0994 -0.1471 -0.0677
77176W        W20088   8.446   0.195   6.145 -0.1847  0.1539  0.0167
77177W        W20089  11.681   0.685   4.000 -0.2140 -0.2181  0.3435
77178W        W20090   8.054   3.893   4.586  0.1122 -0.0687  0.1537
77179W        W20091   9.819   3.121   4.136 -0.3869 -0.1194  0.0512
77180W        W20092  11.371   0.591   3.162  0.2026 -0.1250 -0.0714
77181W        W20093  12.195   1.935   3.143 -0.1306 -0.0278  0.1617
77182W        W20094   7.809  34.210   5.597  0.2650  0.1990  0.0382
77183W        W20095   8.752   0.460   3.870 -0.0135  0.2812 -0.0395
77184W        W20096   7.743  34.530   6.102 -0.0999 -0.2105  0.3207
77185W        W20097   6.892   0.051   4.392 -0.2406 -0.0894  0.0910
77186W        W20098  10.557   1.617   7.139 -0.0332  0.1880  0.0440
77187W        W20099   8.197   0.084   4.591 -0.0075 -0.1567  0.2659
77188W        W20100   9.818   1.638   4.628 -0.0765 -0.1224 -0.1091
77189W        W20101   9.377   1.337   5.283  0.0733 -0.0671 -0.0967
77190W        W20102   8.507   1.974   4.563 -0.0407 -0.0350 -0.0746
77191W        W20103  10.540   0.076   6.094 -0.1152 -0.0454 -0.1664
77192W        W20104  10.544   4.271   4.402 -0.0295 -0.0559 -0.0266
77193W        W20105  11.097   3.504   6.512 -0.1860  0.1246  0.0810
77194W        W20106  10.195   1.834   6.287 -0.0343 -0.0697 -0.0497
77195W        W20107   8.128   0.687   6.338  0.0669 -0.2416  0.4363
77196W        W20108   8.080   1.364   4.467  0.0854 -0.0878 -0.0306
77197W        W20109   8.347   3.473   4.501 -0.2660  0.0860 -0.2548
77198W        W20110   8.608   2.049   5.176 -0.0568 -0.1342  0.0827
77199W        W20111   8.814   0.245   3.328 -0.2298 -0.0917 -0.1225
77200W        W20112  11.447   3.632   5.561 -0.0573  0.0302  0.2139
77201W        W20113   9.389   1.767   5.615 -0.0112  0.3418 -0.0670
77202W        W20114   8.268   1.791   7.174 -0.0151 -0.1651 -0.0120
77203W        W20115   9.684  34.453   6.472 -0.0367  0.0184 -0.1309
77204W        W20116  10.960   2.253   7.411 -0.0194 -0.3662 -0.1368
77205W        W20117  10.677   1.359   6.489 -0.0098  0.4008 -0.0301
77206W        W20118   8.789   0.927   4.028 -0.1366 -0.2272 -0.1575
77207W        W20119   9.421   2.743   5.338  0.1428 -0.0380 -0.0141
77208W        W20120   8.646   3.927   4.296 -0.3574 -0.3703 -0.1069
77209W        W20121   7.812   2.609   4.715  0.1756 -0.2509  0.1852
77210W        W20122  10.182   2.436   5.279 -0.1273  0.2007 -0.0550
77211W        W20123  10.300   1.764   5.783 -0.1487 -0.3016  0.1408
77212W        W20124   7.414   2.145   7.257 -0.0640 -0.0905 -0.0439
77213W        W20125   9.832   1.055   6.770  0.0715 -0.0720 -0.0574
77214W        W20126   9.023   1.569   5.970 -0.0540 -0.4938  0.0952
77215W        W20127   7.692   2.520   7.116 -0.0610 -0.1742  0.2360
77216W        W20128   9.713   0.859   4.271 -0.2937  0.0182  0.1406
77217W        W20129  11.151   1.040   3.189  0.0025  0.3058 -0.4517
77218W        W20130  10.211   1.503   6.713  0.0948 -0.1694 -0.1295
77219W        W20131  10.798   0.563   4.586 -0.0702 -0.1483  0.0477
77220W        W20132  10.483   0.535   3.321  0.1969 -0.3558  0.1165
77221W        W20133  11.053  33.913   4.376 -0.0063 -0.2715 -0.1742
77222W        W20134   8.194   2.600   6.762 -0.1218  0.1560  0.0553
77223W        W20135   9.408   1.710   6.360  0.0901  0.1785  0.1089
77224W        W20136   9.085   2.866   6.631 -0.0314 -0.0074 -0.1339
77225W        W20137  10.771   1.309   1.871  0.0410 -0.1439 -0.0734
77226W        W20138  11.584   2.346   4.995 -0.0391 -0.1855 -0.1006
77227W        W20139   7.461   2.227   6.648  0.1207  0.0864  0.0722
77228W        W20140   9.312   2.222   6.472  0.1766 -0.0764 -0.0315
77229W        W20141   9.221   2.177   5.267  0.0734 -0.2886  0.0430
77230W        W20142   9.800  34.253   5.667 -0.0117 -0.0351  0.1318
77231W        W20143  10.466   2.113   4.647  0.0565 -0.3532  0.0330
77232W        W20144  10.151  34.411   6.098  0.0042 -0.0213 -0.1987
77233W        W20145   8.183   4.524   3.705 -0.3695  0.1888 -0.0365
77234W        W20146  10.293   0.577   6.470  0.0817  0.0103  0.0425
77235W        W20147  10.319  34.177   5.625 -0.0484  0.3044  0.1602
77236W        W20148   9.257   0.656   6.453 -0.1117 -0.1785 -0.1416
77237W        W20149  11.047   1.817   6.900  0.1134 -0.1376 -0.0309
77238W        W20150  10.592   1.698   3.631 -0.0135  0.0034  0.0106
77239W        W20151   9.614   1.005   5.614  0.1250 -0.0048  0.0266
77240W        W20152   8.288   1.176   4.056  0.1503  0.3772  0.2153
77241W        W20153   9.638   1.609   6.866 -0.1877  0.0459 -0.4225
77242W        W20154   8.701   0.574   6.392  0.3292  0.1706 -0.5362
77243W        W20155   8.469   2.264   7.131 -0.1537  0.2154 -0.1083
77244W        W20156  10.355   1.404   6.078  0.1546  0.2143  0.0654
77245W        W20157  12.200   2.260   4.939  0.0042  0.0092  0.0868
77246W        W20158   9.699  34.408   7.884  0.2678  0.1387 -0.0198
77247W        W20159  10.209  34.282   4.229 -0.0967  0.0625  0.0612
77248W        W20160   8.519   5.145   4.756 -0.0720  0.1354  0.1682
77249W        W20161   9.786   1.780   4.101  0.3298  0.1664  0.1165
77250W        W20162   9.266   1.491   4.775  0.2085 -0.0692 -0.1326
77251W        W20163   8.787   3.417   5.168 -0.0372 -0.0098  0.0338
77252W        W20164   8.555   5.439   3.113 -0.0254 -0.2576  0.0737
77253W        W20165   9.949   2.828   6.303 -0.1386  0.2746 -0.0156
77254W        W20166   8.575   2.958   4.414 -0.4870 -0.1205  0.2005
77255W        W20167  11.222   1.162   4.407 -0.1806  0.1368  0.0762
77256W        W20168   7.864   3.077   5.310  0.2019 -0.0025  0.3018
77257W        W20169   9.250   1.024   4.155  0.0113 -0.1936  0.0325
77258W        W20170   6.929   1.794   5.251 -0.1457  0.1510  0.3412
77259W        W20171  10.980   0.237   5.185  0.0997 -0.0590  0.2396
77260W        W20172  11.095   1.729   2.873 -0.1292  0.0095 -0.0251
77261W        W20173   6.683   0.465   6.213  0.2667 -0.2591  0.3637
77262W        W20174   8.740  34.550   5.843  0.1978 -0.2698 -0.0067
77263W        W20175   6.580   2.143   6.241 -0.0444  0.1353 -0.2047
77264W        W20176  11.002   1.320   6.950 -0.0042 -0.1667 -0.1115
77265W        W20177  10.968   0.210   3.383  0.2274 -0.1630 -0.0978
77266W        W20178   9.897   1.959   5.436 -0.1773 -0.1335  0.3128
77267W        W20179   9.397   3.439   6.091 -0.1600  0.3847 -0.2103
77268W        W20180   7.578   1.892   2.710 -0.2125 -0.0904  0.3145
77269W        W20181  11.111   1.107   6.114  0.3990  0.0536  0.1072
77270W        W20182   9.124  34.516   5.037  0.2052 -0.0872  0.2541
77271W        W20183   8.567   2.860   6.449 -0.2562  0.0268  0.0265
77272W        W20184  10.085   3.527   4.401 -0.1806 -0.1347 -0.2153
77273W        W20185   8.946   1.441   3.970  0.2848 -0.2290  0.1325
77274W        W20186   8.304   3.477   5.102  0.0356  0.0635  0.1026
77275W        W20187   9.514   0.433   5.943  0.0456 -0.0477  0.2852
77276W        W20188  10.158   1.591   7.556 -0.3982 -0.2515  0.2107
77277W        W20189   9.054   1.171   6.237 -0.1026 -0.0453 -0.1904
77278W        W20190   9.399   0.157   5.306  0.0634  0.0737  0.0485
77279W        W20191  10.384   0.356   5.344  0.1195 -0.0663 -0.4013
77280W        W20192   8.840   1.978   6.365 -0.0452  0.0879 -0.1366
77281W        W20193   9.651   1.706   7.399  0.1369 -0.0413  0.0257
77282W        W20194   8.606   4.045   8.011 -0.1506 -0.3218 -0.1588
77283W        W20195   8.717  34.105   4.880  0.1604  0.0834 -0.0660
77284W        W20196  10.494   3.806   4.203  0.2026 -0.2003 -0.3436
77285W        W20197   9.903   1.668   8.001  0.0632  0.2386 -0.0227
77286W        W20198   8.996   1.762   5.263  0.2257  0.0461 -0.0413
77287W        W20199   7.077   2.599   5.483  0.0602  0.0740  0.2264
77288W        W20200   8.292   2.593   5.114 -0.0445 -0.1999  0.2586
77289W        W20201   9.939   1.144   5.955 -0.1363  0.2868 -0.0214
77290W        W20202   6.662   1.679   6.532  0.0033  0.1021 -0.2630
77291W        W20203   8.753   2.763   3.486  0.1050  0.0574  0.4051
77292W        W20204   7.659   1.755   6.621  0.0433  0.0205 -0.1662
77293W        W20205  10.882   0.329   4.172 -0.0270  0.0704  0.3104
77294W        W20206  11.273   0.819   4.830 -0.0219  0.0530  0.0953
77295W        W20207   9.868  34.661   4.282  0.1291 -0.0821  0.1992
77296W        W20208  11.234   1.019   6.617  0.1151  0.2521  0.0369
77297W        W20209   9.893   3.244   2.369  0.1424  0.3454 -0.0512
77298W        W20210  10.595   0.075   7.771 -0.3812  0.3649 -0.0238
77299W        W20211  10.471  33.608   6.634  0.0562 -0.1392  0.3654
77300W        W20212  10.391   2.439   4.281  0.0668  0.2807  0.0844
77301W        W20213   7.207   0.742   7.013 -0.1180 -0.0064 -0.0758
77302W        W20214  11.249   1.158   8.541  0.1064 -0.0488  0.1822
77303W        W20215   8.139   1.547   6.439 -0.3159 -0.0097  0.0768
77304W        W20216  10.396   0.046   3.388 -0.2410 -0.0388 -0.1062
77305W        W20217   8.597  34.610   4.181  0.1175 -0.0433  0.0667
77306W        W20218   9.620   0.913   6.232 -0.2397  0.0929  0.0507
77307W        W20219   9.495   2.545   6.075 -0.2319 -0.0287 -0.2822
77308W        W20220   8.155   2.047   4.893 -0.1236  0.3451  0.0294
77309W        W20221  10.419   0.945   4.749 -0.0930  0.1282 -0.1140
77310W        W20222   8.707   3.292   5.806  0.3128  0.0626  0.1327
77311W        W20223  11.072   1.318   3.641  0.3951  0.1254 -0.1889
77312W        W20224  10.098   1.948   4.923 -0.0222  0.0210  0.0164
77313W        W20225   8.751   2.789   5.954  0.1807  0.1622  0.2285
77314W        W20226   8.249  34.302   6.290 -0.3393  0.0355 -0.2610
77315W        W20227  10.541   0.858   6.106  0.1652 -0.1002  0.2135
77316W        W20228  10.149   0.693   4.329  0.0688  0.1442 -0.0656
77317W        W20229   9.654   1.225   7.204  0.1022 -0.0661 -0.2723
77318W        W20230  10.011   0.659   6.966 -0.2269  0.0268 -0.0155
77319W        W20231   9.585   0.720   7.778 -0.2284 -0.0483 -0.0858
77320W        W20232   7.318   1.197   7.301 -0.1218 -0.0208  0.2086
77321W        W20233  10.749   3.413   6.849 -0.0448 -0.0912 -0.0175
77322W        W20234  11.657   1.171   3.904 -0.0958 -0.1455 -0.1160
77323W        W20235  10.712   0.730   5.173 -0.0949  0.0380  0.0063
77324W        W20236  10.789   1.170   5.736 -0.2031 -0.0059 -0.3632
77325W        W20237  11.004   1.678   4.137 -0.0804 -0.1380 -0.0269
77326W        W20238   9.045   0.129   4.631  0.0694 -0.0257  0.0446
77327W        W20239  10.238   0.846   8.254  0.0992 -0.1653 -0.1466
77328W        W20240   8.625  34.047   4.371 -0.3853  0.3235  0.2039
77329W        W20241  10.377   1.055   7.795 -0.1462 -0.0633  0.1542
77330W        W20242   9.379   4.211   4.565 -0.2534 -0.3151 -0.4226
77331W        W20243   9.053   2.459   5.748 -0.2335 -0.2157  0.0680
77332W        W20244  10.584   1.888   3.148 -0.0024 -0.2674  0.1965
77333W        W20245   7.564   1.096   4.769 -0.2880  0.2169 -0.4444
77334W        W20246   8.061   4.716   7.121  0.1500  0.0269 -0.0943
77335W        W20247   8.469   1.454   5.734  0.0823  0.0174  0.1338
77336W        W20248  10.429   1.480   4.798  0.0284 -0.0459  0.0624
77337W        W20249   9.550   1.777   5.132 -0.0519  0.0514  0.2674
77338W        W20250  10.605   2.250   7.051  0.3690  0.0344  0.2526
77339W        W20251   9.553  33.737   2.824  0.3012 -0.1981 -0.1304
77340W        W20252  10.517   0.468   6.943 -0.1140  0.2096  0.2863
77341W        W20253   8.831   2.956   3.956  0.2395 -0.1511 -0.1917
77342W        W20254  10.037  34.106   4.644 -0.1660  0.2478 -0.1156
77343W        W20255   8.464   3.387   6.287 -0.2591 -0.1065  0.0416
77344W        W20256   7.858   2.495   6.357  0.0424 -0.1962 -0.2252
77345W        W20257   9.808   3.137   5.892 -0.4326 -0.1922 -0.1135
77346W        W20258   9.799   0.557   6.517 -0.0637 -0.0649  0.1045
77347W        W20259  10.648   0.341   3.761  0.0213 -0.0270 -0.0545
77348W        W20260   9.478   1.371   5.961 -0.1495 -0.5306 -0.1797
77349W        W20261  10.689   1.030   8.209 -0.2046 -0.0210  0.0484
77350W        W20262  10.117   3.402   5.535  0.4001 -0.1275  0.1436
77351W        W20263   7.987   2.151   5.822  0.0600 -0.1310  0.1453
77352W        W20264   9.909   2.776   5.034 -0.1624 -0.2721 -0.0117
77353W        W20265  11.361   1.937   5.731 -0.1678 -0.1241  0.0531
77354W        W20266   8.240   2.638   6.036 -0.0010  0.0690 -0.2371
77355W        W20267   7.286   0.116   6.010  0.1400 -0.1624 -0.4229
77356W        W20268  10.177   1.832   8.433  0.0351  0.0809  0.0350
77357W        W20269  10.636   2.420   5.039 -0.0484 -0.2456 -0.2433
77358W        W20270   8.283   0.155   3.918  0.0905  0.0788 -0.3578
77359W        W20271   9.946   1.381   5.035 -0.0433 -0.0234  0.1714
77360W        W20272   8.281   3.287   7.567  0.0544 -0.2344 -0.1782
77361W        W20273   7.665   0.852   6.243 -0.1003 -0.0037 -0.1900
77362W        W20274   7.363   2.929   3.756  0.2291 -0.0501 -0.1895
77363W        W20275  10.728   3.333   3.512  0.1257  0.0365  0.0638
77364W        W20276   8.576   2.489   4.234  0.1909 -0.1610  0.1559
77365W        W20277   9.852   3.289   6.553 -0.0224  0.0443  0.1925
77366W        W20278   8.948  34.222   3.975 -0.2929  0.2894 -0.0250
77367W        W20279   8.660   2.959   4.912 -0.1773 -0.1576 -0.2002
77368W        W20280   9.456   3.327   3.048 -0.0235 -0.0072  0.1340
77369W        W20281  11.104   3.111   4.566  0.0199 -0.0828  0.1042
77370W        W20282   8.476   2.902   5.524  0.0992  0.1157  0.0805
77371W        W20283  12.553   1.047   5.132  0.0762 -0.3566 -0.1191
77372W        W20284  11.023  34.620   2.413 -0.2475  0.3308  0.2287
77373W        W20285  10.749   0.788   6.554 -0.0365  0.2490 -0.0073
77374W        W20286  10.574   0.744   4.082  0.0206 -0.0155 -0.0758
77375W        W20287  10.098   3.599   7.945  0.0538 -0.2532  0.1282
77376W        W20288   9.210   0.519   4.956 -0.1319  0.0499  0.0257
77377W        W20289   7.950  34.426   5.123  0.1829  0.0833 -0.1242
77378W        W20290   8.887   1.517   7.524 -0.0176  0.2911 -0.1118
77379W        W20291   9.640  34.497   6.997  0.1056 -0.1346 -0.1638
77380W        W20292   8.906   2.373   7.400 -0.1457 -0.2427  0.1646
77381W        W20293  11.377   1.473   3.257 -0.2380  0.2141  0.0054
77382W        W20294   8.257   1.498   4.954 -0.1961  0.0142 -0.2453
77383W        W20295   9.982   0.600   6.033 -0.1570 -0.1313 -0.2398
77384W        W20296  10.565  34.007   5.169  0.0547  0.3619  0.2408
77385W        W20297  10.095   2.764   3.958 -0.0955  0.1533 -0.1120
77386W        W20298  10.178   0.216   5.756  0.2594  0.3148 -0.1142
77387W        W20299  10.373   3.338   4.006  0.2158 -0.2243 -0.3235
77388W        W20300   9.453   3.534   7.125 -0.0502 -0.1047 -0.0258
77389W        W20301   8.972   2.931   5.436 -0.2032 -0.0446  0.1613
77390W        W20302   7.560   1.660   4.474 -0.0286  0.1793  0.0430
77391W        W20303  11.755   0.335   6.080 -0.1507  0.2284  0.0892
77392W        W20304   8.315   0.698   5.185  0.1713 -0.1374 -0.0357
77393W        W20305  11.017   0.091   5.931 -0.0262  0.1569  0.1150
77394W        W20306   8.479   0.905   4.461  0.0665  0.0379 -0.1117
77395W        W20307  10.099   0.018   4.718  0.0364 -0.1615 -0.1124
77396W        W20308  10.263   2.786   5.951 -0.2791  0.1889 -0.2463
77397W        W20309   8.402   0.624   5.909  0.0849  0.0195  0.2613
77398W        W20310   9.502   2.476   4.334 -0.0460 -0.0667 -0.0704
77399W        W20311  11.014   1.657   7.419 -0.0760 -0.4558 -0.2587
77400W        W20312   9.838   1.777   3.580  0.0544 -0.0188  0.4380
77401W        W20313  10.717   3.305   6.305  0.1174 -0.0777  0.0973
77402W        W20314   8.223   0.556   4.690  0.1282 -0.0067 -0.1025
77403W        W20315  10.104   1.272   4.457  0.0678  0.0196 -0.0862
77404W        W20316   7.693   1.577   5.075 -0.1500  0.1242  0.0179
77405W        W20317   8.540   1.051   6.434 -0.0899  0.1282  0.0101
77406W        W20318  10.502   2.343   6.494  0.0572  0.1414  0.0834
77407W        W20319   7.356   0.236   4.075 -0.2793 -0.0964  0.0333
77408W        W20320  11.638   1.875   3.151  0.0471  0.1462  0.1546
77409W        W20321  11.263   1.579   5.190  0.1381 -0.1070 -0.0371
77410W        W20322   9.245   3.758   3.327 -0.0835  0.2155 -0.2106
77411W        W20323  10.271   0.802   5.671  0.2121 -0.2196 -0.1383
77412W        W20324  10.754   4.573   4.030 -0.1005  0.1162  0.1869
77413W        W20325   6.963   1.272   6.843  0.1555  0.0888  0.3700
77414W        W20326  10.961   3.875   6.135  0.2979 -0.0499  0.0953
77415W        W20327  12.022   1.856   6.772  0.0011 -0.2803  0.0211
77416W        W20328   8.208  34.094   4.890 -0.0767 -0.4488  0.2089
77417W        W20329   8.510  34.489   5.280 -0.1031 -0.1435  0.1280
77418W        W20330   8.273   2.606   4.618  0.1562 -0.1734 -0.0232
77419W        W20331  11.281   0.466   3.766  0.1936  0.3073  0.0164
77420W        W20332  10.901   0.504   6.114 -0.2348 -0.0855 -0.0115
77421W        W20333   9.898   2.802   4.497  0.2624 -0.1083 -0.1503
77422W        W20334   9.673  34.102   6.140  0.0535  0.1274 -0.3363
77423W        W20335   9.747   2.532   7.108  0.0859  0.3468 -0.3705
77424W        W20336   9.620   3.049   7.413 -0.4757 -0.0775 -0.1370
77425W        W20337   8.550   1.502   4.306  0.0708 -0.1231  0.0186
77426W        W20338   9.425   0.577   8.672 -0.1169  0.0744 -0.2052
77427W        W20339   8.477   2.036   5.982  0.0096 -0.0464  0.4874
77428W        W20340   9.434   2.866   4.684 -0.2836 -0.1335  0.0159
77429W        W20341  11.139   3.184   5.399  0.2648 -0.0455  0.0269
77430W        W20342   9.092   1.027   4.971  0.0172  0.2123 -0.0076
77431W        W20343  11.039   2.688   5.351  0.5085  0.4943 -0.3787
77432W        W20344   8.961   0.010   3.757 -0.1363 -0.1838  0.2432
77433W        W20345  11.406  34.293   3.648  0.0437  0.0138 -0.0519
77434W        W20346  11.922  34.676   5.037 -0.2711 -0.0780 -0.2039
77435W        W20347   8.579   1.433   6.787 -0.0841 -0.0125  0.0311
77436W        W20348   8.212   2.060   3.026  0.0477 -0.1775 -0.0668
77437W        W20349   8.611   1.529   6.209 -0.5324 -0.3049  0.3158
77438W        W20350   8.466   2.390   5.637 -0.0648  0.0988 -0.0846
77439W        W20351   9.282  34.564   7.314  0.0737 -0.1616  0.1678
77440W        W20352   8.833   1.088   7.780  0.0004 -0.4509 -0.3942
77441W        W20353   8.061   2.033   6.336  0.0390 -0.2962  0.0560
77442W        W20354   8.388   0.402   3.446  0.1280 -0.4224  0.2394
77443W        W20355  12.555   1.901   4.947  0.1337 -0.2289 -0.0371
77444W        W20356   8.452  33.807   5.222 -0.2250  0.0877 -0.0686
77445W        W20357   9.661   1.187   4.670 -0.2383 -0.1206  0.0434
77446W        W20358  10.867   1.712   5.552  0.1342 -0.2133  0.0634
77447W        W20359  10.116   4.937   3.728  0.1481  0.3184  0.0931
77448W        W20360   9.171  33.966   3.446 -0.0114  0.0649  0.1179
77449W        W20361  10.629   3.344   5.464  0.0964  0.1196 -0.1564
77450W        W20362   8.330   1.988   4.040 -0.5367  0.2694  0.1535
77451W        W20363   9.937   0.189   7.861  0.1435  0.1639  0.1760
77452W        W20364   9.233   0.384   7.319  0.2628 -0.0631  0.1808
77453W        W20365   7.919   0.386   3.160  0.0944  0.2515 -0.1418
77454W        W20366   9.231  34.427   5.613 -0.2028 -0.0073 -0.1595
77455W        W20367  11.371   2.078   4.402  0.0144 -0.2501 -0.0650
77456W        W20368  10.923   3.124   2.309 -0.3178  0.0298  0.2236
77457W        W20369   8.705   1.093   5.890  0.0233  0.1132 -0.2543
77458W        W20370   8.885   3.392   7.571 -0.3787  0.0220  0.2743
77459W        W20371   7.820  34.016   6.046  0.0127  0.0982 -0.3071
77460W        W20372  11.949   1.440   4.491 -0.0234 -0.1223 -0.0687
77461W        W20373   9.825   2.058   6.606 -0.0002  0.0901  0.0243
77462W        W20374  11.390   3.508   3.958  0.1610 -0.0855  0.0390
77463W        W20375  12.486   0.290   5.079  0.2710 -0.1994  0.0971
77464W        W20376   9.145   1.002   5.762 -0.2353  0.1293  0.2861
77465W        W20377   7.183  34.251   6.170  0.0657 -0.2124  0.2607
77466W        W20378   8.725   0.700   7.339  0.2978 -0.0109  0.0830
77467W        W20379   9.759   1.863   5.951 -0.1809  0.1935 -0.0182
77468W        W20380   8.127   0.201   5.099  0.1738  0.2479  0.2921
77469W        W20381   9.917   0.728   4.790  0.2939  0.1111  0.1016
77470W        W20382   9.861   3.206   4.755  0.1657 -0.2967  0.1054
77471W        W20383   7.747   1.332   6.327  0.1785  0.0320 -0.1297
77472W        W20384  10.205   1.781   4.407 -0.1472  0.0266 -0.1907
77473W        W20385   9.416   1.247   6.580 -0.1432 -0.4945  0.2014
77474W        W20386  10.259   2.951   5.358 -0.0334  0.0390  0.1409
77475W        W20387   9.604   2.613   6.631 -0.0460 -0.2039  0.0679
77476W        W20388  10.264   1.524   3.982 -0.4194 -0.0154 -0.1244
77477W        W20389  11.454   1.604   4.291  0.0687  0.0255  0.3571
77478W        W20390  11.107   3.456   5.900 -0.0686 -0.0586 -0.1620
77479W        W20391  10.999   5.176   8.252  0.0494 -0.0238  0.1194
77480W        W20392  10.088   2.884   6.872  0.3007 -0.0150  0.1109
77481W        W20393  10.331   1.653   5.251  0.0312 -0.1783 -0.1003
77482W        W20394   8.252  34.406   5.762 -0.3158 -0.1025  0.0709
77483W        W20395   8.778   0.735   5.351 -0.2001  0.0403  0.0548
77484W        W20396   9.269   0.636   5.455 -0.0736  0.0016 -0.2813
77485W        W20397   9.860   1.470   6.372  0.0080  0.1316 -0.4103
77486W        W20398   7.347  34.422   5.114 -0.1329  0.0590  0.4071
77487W        W20399  10.725   0.087   4.689  0.0907 -0.3628 -0.2014
77488W        W20400  10.058   4.235   7.056 -0.2226 -0.0313  0.2258
77489W        W20401   9.545   0.852   5.104  0.2544  0.2485 -0.0720
77490W        W20402   7.914   1.871   9.228  0.0907 -0.0266  0.0041
77491W        W20403   9.267   1.079   7.481 -0.2129 -0.0711 -0.2943
77492W        W20404  10.127   1.056   6.402  0.0704 -0.0607  0.1340
77493W        W20405  11.200   2.911   8.357  0.1338 -0.3081 -0.0639
77494W        W20406   6.807   0.498   8.883 -0.1927  0.0879  0.3650
77495W        W20407  10.093   3.101   8.416 -0.1299 -0.5002  0.1259
77496W        W20408  11.050   2.138   8.794 -0.1544 -0.0022  0.0954
77497W        W20409  12.104   4.310  10.002 -0.3296  0.1981 -0.0568
77498W        W20410  10.159   1.258   7.216  0.1293 -0.0860  0.0908
77499W        W20411   9.361   2.032   9.780 -0.2053  0.0908 -0.1030
77500W        W20412   8.872  34.274   9.238  0.1573  0.3756  0.2436
77501W        W20413   7.557  34.420   9.077  0.1020 -0.1608 -0.0192
77502W        W20414  10.954   2.035   9.298 -0.1407  0.3597 -0.0463
77503W        W20415   8.493   1.445   7.906  0.1079 -0.0732 -0.0571
77504W        W20416   8.855   0.389   9.448  0.2752  0.0185 -0.0603
77505W        W20417   8.407   0.967   7.670 -0.0899  0.3231  0.2678
77506W        W20418   8.627   2.925   7.545 -0.2802  0.0191  0.0253
77507W        W20419   8.888   0.042  12.068 -0.0735 -0.0703 -0.2814
77508W        W20420   8.867   2.581   7.897  0.0703 -0.1841  0.0920
77509W        W20421   8.037   1.602   7.580 -0.2905  0.1537  0.1762
77510W        W20422   8.015   3.334   7.117  0.1148  0.2551 -0.1563
77511W        W20423   7.676   2.476   9.669 -0.1079 -0.1125  0.0515
77512W        W20424   9.955   0.115   9.245 -0.0597  0.3279 -0.0934
77513W        W20425   8.774   2.300   8.881 -0.0344 -0.2491 -0.3126
77514W        W20426   9.578   2.760   7.808 -0.1586  0.1239  0.0278
77515W        W20427  10.390   4.026   9.493 -0.2146  0.0222  0.0434
77516W        W20428   7.973   4.037   8.223  0.2190  0.2858 -0.2656
77517W        W20429   9.634   4.450   8.699  0.1789  0.2099 -0.2261
77518W        W20430   8.626   3.231   7.187  0.0282 -0.3078 -0.0174
77519W        W20431  11.094   3.280   7.958  0.0780 -0.1779 -0.0613
77520W        W20432   8.928   2.253   6.872  0.0826 -0.1052  0.0313
77521W        W20433   7.212   2.081   9.785 -0.1886 -0.1966  0.0820
77522W        W20434   8.996   0.895   8.716  0.2603  0.2297  0.2470
77523W        W20435  10.343   2.497   7.369  0.0658  0.5031 -0.0660
77524W        W20436   9.290   2.433   8.037  0.0786  0.0620  0.2424
77525W        W20437   8.392   3.422   8.820 -0.1688  0.0180  0.0241
77526W        W20438  10.090   3.210   9.025  0.2643  0.1273  0.0342
77527W        W20439  11.479   0.846   7.686  0.0083  0.0526 -0.0485
77528W        W20440   8.982   1.014   6.679  0.0844  0.0237  0.0238
77529W        W20441  10.715   0.842   9.088  0.2670 -0.0181  0.2569
77530W        W20442   8.247   1.506   8.934  0.0887 -0.1194  0.1004
77531W        W20443   9.901   3.858   9.416  0.2044 -0.0351 -0.2605
77532W        W20444   9.039  34.450   7.755 -0.1254 -0.3047  0.0190
77533W        W20445   7.552   1.396   7.922 -0.2418  0.0674 -0.3302
77534W        W20446   8.725   0.456   8.930  0.2772  0.1182  0.3468
77535W        W20447  10.081   2.068  10.217 -0.2816 -0.2379 -0.0586
77536W        W20448   8.554   2.732   8.252  0.2183 -0.2054  0.1252
77537W        W20449  10.224   3.317   7.513 -0.0801  0.0819  0.0815
77538W        W20450  10.803   3.882   9.030 -0.2201  0.1726  0.1089
77539W        W20451  10.564   1.873   6.652 -0.2071 -0.0746 -0.1539
77540W        W20452   7.094   1.630   8.115 -0.0409 -0.1608  0.0460
77541W        W20453   8.715   0.094   7.529  0.0829  0.2215  0.2345
77542W        W20454  11.412  32.655  11.768 -0.1528 -0.0909  0.1532
77543W        W20455   9.027   2.995   8.165 -0.0842 -0.1854 -0.4716
77544W        W20456  11.084   2.989   8.832  0.1113 -0.1432  0.1487
77545W        W20457  11.123   2.292   5.939 -0.1260 -0.4329 -0.2847
77546W        W20458   8.864  34.360   9.943 -0.3864 -0.5329  0.1504
77547W        W20459   8.091   1.081   9.239  0.0134  0.2283 -0.0009
77548W        W20460   8.873   0.564   6.913  0.0397  0.0726 -0.0088
77549W        W20461   7.767   1.402   9.163 -0.2361  0.0708 -0.0690
77550W        W20462  11.529   2.983   9.212  0.4810 -0.2128 -0.2453
77551W        W20463  10.853   1.268   8.833  0.1129  0.0291 -0.0789
77552W        W20464   9.800   4.963   9.618 -0.2305  0.5949 -0.1557
77553W        W20465   8.332   3.640   6.732 -0.3574 -0.4927 -0.3329
77554W        W20466   7.785   2.903   7.456  0.1128  0.0128  0.1464
77555W        W20467   8.109   2.280   7.983 -0.3128 -0.0269  0.1070
77556W        W20468   7.369  33.892   9.803 -0.1262 -0.0879  0.1734
77557W        W20469   9.324   2.156   9.249  0.1310  0.1903 -0.1333
77558W        W20470  10.324  33.448   8.960 -0.0834  0.5771  0.1885
77559W        W20471  10.973   0.827   9.902 -0.0189  0.0000 -0.2432
77560W        W20472   8.033   2.166   7.400 -0.2739  0.2045 -0.0249
77561W        W20473  10.471   2.979   9.222 -0.0234  0.0042  0.2707
77562W        W20474  11.131   1.539   9.123 -0.3523  0.1478  0.0325
77563W        W20475  10.478   1.989   7.460 -0.1857 -0.1704 -0.1670
77564W        W20476   8.411  34.492   9.071 -0.1240 -0.0959  0.2637
77565W        W20477   7.028   1.087   9.492  0.1142 -0.1586 -0.0227
77566W        W20478   7.464   0.334   8.980 -0.1598  0.1782  0.3016
77567W        W20479   7.961   0.142   6.508 -0.1863  0.1801  0.0669
77568W        W20480   9.975   1.156   9.472 -0.3616 -0.0208  0.0659
77569W        W20481   7.031   2.366   9.412 -0.2224 -0.0082  0.0542
77570W        W20482   7.304   3.081   7.084  0.1172  0.3547  0.3029
77571W        W20483  11.469   2.512   9.537 -0.1057 -0.2170 -0.0724
77572W        W20484  11.064   2.890   9.370 -0.0856  0.0049  0.0588
77573W        W20485  10.961   4.077   9.701  0.0948  0.0802  0.1135
77574W        W20486   8.049   2.520   9.336  0.1226  0.5679  0.3135
77575W        W20487   7.458   1.234   8.700  0.1222  0.0386  0.1597
77576W        W20488   8.441   3.914   8.895 -0.1557  0.0132 -0.0590
77577W        W20489   9.188   2.162   8.764  0.1885  0.0769  0.2592
77578W        W20490   8.818   0.633   8.261  0.0970  0.0696  0.2304
77579W        W20491   9.320   2.857  10.126 -0.1419 -0.1475 -0.2138
77580W        W20492   9.834  34.196   8.715  0.2228  0.1542 -0.1431
77581W        W20493  10.133   2.511   9.259 -0.1545  0.0422  0.0837
77582W        W20494  10.665   0.229   8.631 -0.3710  0.0631  0.0468
77583W        W20495   7.640   1.918   7.839  0.2640 -0.4370 -0.1630
77584W        W20496  10.060   2.630   8.711  0.0462  0.1453  0.0808
77585W        W20497   7.885   5.189   7.821  0.0902 -0.0577 -0.1346
77586W        W20498   7.903   1.006   7.721  0.2236  0.1984 -0.3230
77587W        W20499   9.170   1.920   8.330  0.2901 -0.1146  0.2331
77588W        W20500  10.123   0.846   9.090  0.0441  0.0235  0.0957
77589W        W20501   8.163   2.812   7.777 -0.3877  0.0159 -0.0209
77590W        W20502   9.326  33.655  10.057  0.0081  0.4186  0.0891
77591W        W20503  10.733  33.964   8.346 -0.1647 -0.2636 -0.0402
77592W        W20504  11.513   1.284   7.922  0.0489 -0.2411  0.1328
77593W        W20505  10.444   0.878   9.526  0.5665  0.0573  0.0310
77594W        W20506   9.472  33.925   8.941 -0.2612 -0.5172 -0.2338
77595W        W20507  10.567   2.351   8.784 -0.1911  0.0250 -0.1518
77596W        W20508   9.728   1.358   8.972 -0.0817 -0.2879  0.0381
77597W        W20509   8.831   1.157   7.224 -0.0335  0.0799  0.2559
77598W        W20510  11.545   3.252   8.198  0.1368  0.3118 -0.2273
77599W        W20511   8.041   2.452   8.845 -0.1806 -0.3782 -0.0783
77600W        W20512  10.888   2.500   8.457  0.2374 -0.1103 -0.0394
77601W        W20513   8.414   2.053   9.964 -0.1538 -0.2205  0.0698
77602W        W20514   9.027   0.193   6.520 -0.2951 -0.0278  0.1295
77603W        W20515   9.355  34.336   8.612  0.0859 -0.3562  0.2314
77604W        W20516   7.711   3.417   6.682 -0.0773 -0.0025 -0.5878
77605W        W20517   9.489   0.199   9.409  0.1734 -0.0045  0.0253
77606W        W20518   7.866   0.500   9.329 -0.4642 -0.1388  0.1737
77607W        W20519   9.764   0.509   8.212  0.2058  0.3630  0.0638
77608W        W20520   9.202   1.635   8.732 -0.1772 -0.0657  0.1050
77609W        W20521   8.768   1.776   7.077 -0.3706  0.0864 -0.2624
77610W        W20522   6.813  33.079   8.660 -0.1954  0.0992 -0.2037
77611W        W20523   9.832   4.282  10.017 -0.0731  0.0325  0.3549
77612W        W20524   9.895   0.479   8.848  0.1940 -0.2400 -0.0282
77613W        W20525   9.310  34.644   8.226 -0.0785  0.1089 -0.0594
77614W        W20526   9.561   3.001   6.872 -0.1338 -0.1783 -0.1277
77615W        W20527   8.950   1.514   8.118  0.0420 -0.1534  0.0397
77616W        W20528   7.924   0.045   9.261  0.0470 -0.1558  0.2297
77617W        W20529   9.658   2.354   8.942 -0.1358  0.0723  0.1003
77618W        W20530   9.471   2.336   7.518 -0.2161  0.0080  0.1641
77619W        W20531  10.373   1.668   9.935  0.0750  0.1931  0.1458
77620W        W20532   9.729   3.401   8.204 -0.1314  0.1316 -0.2381
77621W        W20533   7.265  33.341   9.795  0.2000 -0.2629  0.0382
77622W        W20534   7.126   2.098   8.276 -0.2213  0.2142 -0.0670
77623W        W20535   9.106   1.246   9.099 -0.1259 -0.2853 -0.4289
77624W        W20536   7.229   1.046   6.446 -0.0508 -0.0393  0.0336
77625W        W20537  11.901  33.685   9.396 -0.0352  0.1984  0.3221
77626W        W20538  10.601   2.361   8.008  0.1694  0.1950  0.0022
77627W        W20539   8.554   2.622   9.699  0.0664  0.0191 -0.2669
77628W        W20540   7.638   0.454   7.862 -0.1641  0.0174  0.0809
77629W        W20541   9.565   2.527   9.440 -0.0159  0.1515 -0.4716
77630W        W20542  10.612   1.457   7.834 -0.1715 -0.0313 -0.2073
77631W        W20543   7.209   1.169   8.238  0.0002 -0.1248 -0.0905
77632W        W20544  11.148   1.640   9.632 -0.0160  0.1966 -0.2078
77633W        W20545   7.452   1.835   9.345  0.1380 -0.3451  0.1385
77634W        W20546   7.650   2.758   8.598 -0.1847 -0.0487  0.0366
77635W        W20547   8.896   2.340  10.050  0.0119  0.1353  0.1634
77636W        W20548   9.240   2.578   7.031  0.0762  0.2020  0.0183
77637W        W20549   8.559   1.888   8.152  0.1957 -0.0531 -0.3315
77638W        W20550   8.362  31.911  10.029  0.0384  0.5197  0.1055
77639W        W20551   8.031   1.496   9.606  0.2914  0.1713 -0.0955
77640W        W20552   8.387   2.265   8.556  0.3704  0.2166 -0.1224
77641W        W20553   8.812   1.387   8.745  0.0767  0.1054  0.1355
77642W        W20554  11.548   3.056   9.722  0.1997  0.0634  0.0654
77643W        W20555  10.618   1.653   9.505 -0.2604  0.2469  0.0939
77644W        W20556   8.538  33.422   9.506  0.1922  0.0476 -0.3228
77645W        W20557  11.924   3.157   7.373  0.2284 -0.2047 -0.1448
77646W        W20558   8.449   1.987   6.730  0.3637  0.0914 -0.1903
77647W        W20559   6.960   2.176   8.922  0.0011  0.0842  0.2388
77648W        W20560   9.773   0.022   8.410  0.2410  0.4579  0.2358
77649W        W20561   9.549   0.889   9.067 -0.3350 -0.1761 -0.0612
77650W        W20562   8.841   3.308   8.952  0.1537 -0.0298 -0.0116
77651W        W20563   7.720   2.412   7.690  0.2289 -0.1740  0.2118
77652W        W20564   6.047  34.046   9.829  0.1904 -0.0014 -0.0903
77653W        W20565  10.620  33.115   8.676  0.1155  0.0236  0.3170
77654W        W20566   9.434   1.877   7.875  0.2223  0.1346  0.1950
77655W        W20567   8.313   0.632   8.440  0.0244  0.0680 -0.0527
77656W        W20568  10.239   1.344   8.146 -0.2002 -0.1439  0.3211
77657W        W20569   9.278  34.395   9.531  0.3337 -0.0454 -0.1376
77658W        W20570  11.112   0.746   9.376  0.0923  0.3313 -0.0830
77659W        W20571   9.903  34.041   8.269  0.0987 -0.1866 -0.0002
77660W        W20572   8.385  34.062   6.872  0.5433  0.1262  0.1165
77661W        W20573   8.858   1.836   9.783 -0.1753 -0.1267  0.1296
77662W        W20574  11.501   1.870   8.782 -0.1751 -0.0319 -0.1358
77663W        W20575   9.206   2.809   7.497 -0.0038 -0.0168  0.1283
77664W        W20576  10.841   0.417   9.600  0.1121 -0.0568 -0.0506
77665W        W20577   8.828   2.753   8.731  0.1522  0.1383  0.2182
77666W        W20578  10.407   0.776   7.333  0.0470 -0.0916  0.1612
77667W        W20579   9.776   1.295   7.659 -0.1315  0.0030  0.1180
77668W        W20580   9.907   1.418   8.498  0.3051 -0.0368  0.5212
77669W        W20581   9.907   1.296   9.927 -0.0826  0.0556 -0.0019
77670W        W20582   8.814   0.413  10.000  0.3915 -0.0445 -0.3289
77671W        W20583   9.371   2.966   9.550 -0.1343 -0.0715 -0.0022
77672W        W20584  11.384   1.184   9.535  0.0823  0.2168  0.0605
77673W        W20585   8.216  34.250  10.048 -0.1640  0.2029 -0.0616
77674W        W20586  10.089   1.675   9.411 -0.1991 -0.0474 -0.0686
77675W        W20587  10.538  34.440   8.423  0.0945 -0.1112 -0.1853
77676W        W20588   6.334   1.325   8.786 -0.0988  0.0236  0.0486
77677W        W20589   9.279   0.166   7.757 -0.2236  0.2401  0.0093
77678W        W20590   9.929   3.070   7.923 -0.4354  0.0492  0.1065
77679W        W20591   9.382   1.544   9.913 -0.1531  0.2639 -0.0329
77680W        W20592   9.403   1.175   8.636 -0.0982  0.0149 -0.1286
77681W        W20593   7.383   1.123   9.899 -0.0790 -0.2284 -0.1754
77682W        W20594   8.431   0.278   7.112 -0.3918  0.4214  0.0559
77683W        W20595   9.483   2.109   6.993  0.4772 -0.0968  0.0575
77684W        W20596   9.684   1.941   8.354  0.5012 -0.1331 -0.0559
77685W        W20597   9.499  32.791   8.118  0.2405  0.5686 -0.1302
77686W        W20598   8.879   3.591   8.069 -0.0840 -0.2106  0.0295
77687W        W20599   8.235  34.427   8.177 -0.5558 -0.0832  0.2030
77688W        W20600   8.700   4.345  10.346  0.0005  0.0947 -0.1210
77689W        W20601   8.578   3.194   8.008 -0.0891  0.1554  0.1758
77690W        W20602   8.480   0.740   9.299  0.0733  0.0161  0.1192
77691W        W20603  11.880   2.173   9.685 -0.3512  0.1648  0.3511
77692W        W20604   8.381   2.039   9.039  0.3236 -0.1408  0.2104
77693W        W20605   7.483   2.306   9.164  0.0830  0.1347  0.1508
77694W        W20606   9.399   1.699   9.353  0.3021 -0.6351  0.2634
77695W        W20607   8.229   3.201   8.316  0.0287  0.0257 -0.0682
77696W        W20608   8.578   1.243   9.211  0.1784 -0.0384 -0.0735
77697W        W20609   9.279  34.117   8.051 -0.0627  0.2077  0.1285
77698W        W20610   9.777   2.429   8.298  0.1056 -0.2867 -0.0218
77699W        W20611   8.014   1.069   9.908 -0.1571 -0.1369 -0.3239
77700W        W20612   9.228   3.441   8.368  0.1332 -0.1262 -0.1341
77701W        W20613  11.043   1.429   8.056  0.0119  0.1040  0.1509
77702W        W20614   9.434   1.489   8.172  0.1153 -0.1829  0.0993
77703W        W20615  11.277   3.889   8.658  0.2772 -0.1035 -0.0306
77704W        W20616   9.424  34.120   7.556 -0.2771  0.1630 -0.1855
77705W        W20617   9.571   2.945   8.346 -0.0025 -0.4187 -0.0398
77706W        W20618   7.769   3.858   7.723  0.3914 -0.3094  0.1349
77707W        W20619  10.547   2.679   6.836  0.2169  0.1089 -0.0167
77708W        W20620   8.246   3.662   7.924  0.1732 -0.1666 -0.1519
77709W        W20621  10.047   0.193   6.821 -0.0755  0.0201  0.0874
77710W        W20622  10.471   0.108   9.436  0.2250 -0.1106  0.0368
77711W        W20623  10.394   0.377   9.041 -0.0629  0.1744 -0.1554
77712W        W20624   9.341   3.218   9.154 -0.2167 -0.1052  0.3664
77713W        W20625   9.404  33.119  10.032  0.2353 -0.0027  0.0053
77714W        W20626   9.704   2.851   9.021  0.0724 -0.3374  0.0172
77715W        W20627   8.096   1.783   8.059 -0.0786  0.1003 -0.1483
77716W        W20628   9.228   2.663   9.072 -0.2009 -0.0122  0.1210
77717W        W20629  11.470  31.944   9.367 -0.0887 -0.2202  0.0269
77718W        W20630  10.134   1.818   7.126  0.0295  0.0535 -0.2132
77719W        W20631   8.861   1.416   9.589 -0.5108 -0.0363 -0.3383
77720W        W20632  10.519   2.862   8.664 -0.2288  0.2164 -0.1727
77721W        W20633  10.021   2.905   9.566  0.1423 -0.1639  0.0056
77722W        W20634   8.151   0.550   8.956  0.0623  0.0251  0.1264
77723W        W20635   8.179   0.746   7.322 -0.3296 -0.2172  0.0744
77724W        W20636   9.913   0.919   8.611  0.2272  0.2682 -0.3725
77725W        W20637   7.575   1.738   8.864 -0.4170 -0.0536  0.0661
77726W        W20638  10.466   0.658   8.664  0.3331 -0.0278  0.1564
77727W        W20639   9.149   0.569   9.135  0.1392 -0.1776  0.0154
77728W        W20640   9.179   3.619   9.948  0.2470  0.4336  0.0662
77729W        W20641   9.133   1.043   8.223  0.2327  0.1197 -0.1793
77730W        W20642   9.274   0.429   8.163 -0.0348 -0.0541 -0.0905
77731W        W20643   9.667   1.045   8.178  0.2437 -0.2421  0.2079
77732W        W20644   7.392   0.365   8.428  0.0364 -0.2054 -0.2331
77733W        W20645   9.437   0.128   8.936 -0.1686  0.0346  0.1009
77734W        W20646   7.999   2.781   8.215 -0.0172  0.0221 -0.4490
77735W        W20647   7.972   2.038   9.688 -0.3280 -0.1176  0.1687
77736W        W20648   8.383   0.215   8.033 -0.2143  0.0617 -0.3785
77737W        W20649  10.351   1.901   7.952  0.2062  0.2101  0.0577
77738W        W20650  10.678   2.030  10.323  0.0322 -0.5960 -0.0370
77739W        W20651  10.289   3.790   6.393  0.0747  0.0400  0.0370
77740W        W20652   9.684   1.855   8.849  0.4259  0.4404  0.1899
77741W        W20653  10.472   2.904  10.239  0.0480 -0.3325  0.3051
77742W        W20654   7.160   1.806   8.667  0.4697  0.1543 -0.0170
77743W        W20655  10.445   2.087   9.297 -0.0070  0.2182 -0.0706
77744W        W20656  10.990   2.493   9.708  0.1850  0.0631 -0.3076
77745W        W20657  10.596  34.116   6.832 -0.2444 -0.1343 -0.1381
77746W        W20658   8.049   1.847   8.693  0.1844 -0.2715  0.1254
77747W        W20659   9.234   3.372   6.681 -0.0753  0.0944 -0.0083
77748W        W20660   9.659   0.235   9.953  0.3052 -0.0435  0.0171
77749W        W20661  10.069   3.612   8.476  0.3359 -0.0983  0.0968
77750W        W20662   8.885   1.752   9.084  0.2222 -0.0941 -0.0420
77751W        W20663   6.600   0.876   8.591  0.0758 -0.0105 -0.3303
77752W        W20664   8.869   2.379   8.389 -0.1862 -0.0482  0.0945
77753W        W20665  10.044   2.525   7.874  0.0926 -0.1879 -0.0757
77754W        W20666  10.112   2.121   8.871 -0.0562 -0.1452 -0.1054
77755W        W20667   9.034   0.195   8.579  0.2404  0.0419  0.2513
77756W        W20668  11.700   2.337   8.962 -0.1150  0.0538 -0.2359
77757W        W20669   8.399   1.545   8.453  0.0625 -0.3417  0.1780
77758W        W20670  11.196   0.187   9.894 -0.3043 -0.0849 -0.2287
77759W        W20671  10.091  34.616   9.726 -0.2508 -0.5005  0.2697
77760W        W20672   8.336   1.538   9.998  0.0813  0.0047  0.2320
77761W        W20673   6.418   2.204   5.792  0.5225  0.2608  0.1179
77762W        W20674   8.031   1.461   6.900 -0.5428  0.2722  0.1179
77763W        W20675   7.536   1.811   8.308 -0.0416 -0.0400  0.0996
77764W        W20676   7.882   1.406   8.425  0.2086 -0.0147 -0.0817
77765W        W20677   9.092   0.642   7.734  0.0789 -0.1307  0.2401
77766W        W20678  11.095   1.662   8.558  0.0177  0.1078 -0.0591
77767W        W20679   7.712   0.625   9.782  0.3032  0.1820 -0.1149
77768W        W20680   7.820   0.608   8.584  0.2502  0.1166 -0.2121
77769W        W20681  10.160   1.629   8.903  0.1270 -0.0344 -0.0700
77770W        W20682  10.460   1.341   9.174  0.0749  0.3047 -0.0651
77771W        W20683   8.650   1.123   8.325  0.0781  0.0213 -0.1684
77772W        W20684   6.587   1.745   5.949  0.3348  0.0516  0.1935
77773W        W20685   7.757   1.809   7.223 -0.0189  0.2136  0.2161
77774W        W20686   8.211   0.597   9.705 -0.2160 -0.0600  0.3454
77775W        W20687  10.677   1.792   8.857 -0.0016 -0.0212  0.0543
77776W        W20688  10.949   2.528   6.604 -0.0917  0.0852  0.1532
77777W        W20689   7.883   0.178   9.860 -0.3347 -0.0974 -0.2511
77778W        W20690  10.247   2.288   8.372  0.0622  0.0494 -0.2091
77779W        W20691  10.555   3.026   7.151  0.0971  0.1126  0.0337
77780W        W20692   9.017   1.737  10.269  0.0522  0.1933 -0.2010
77781W        W20693  10.148  34.654   8.787 -0.0264 -0.1351  0.1276
77782W        W20694  11.476   3.544   9.912  0.0736  0.0086 -0.1362
77783W        W20695   8.525   0.920   8.791  0.0468 -0.1306 -0.5748
77784W        W20696   9.880  34.453   7.442 -0.1807 -0.1180 -0.1175
77785W        W20697   9.962   2.092   7.593  0.0576 -0.3575  0.1086
77786W        W20698   8.797   2.173   9.345 -0.0319  0.0154  0.0134
77787W        W20699   9.377  33.816   8.461 -0.1819 -0.3000  0.0471
77788W        W20700   8.739   1.863   8.620 -0.1331  0.0277 -0.0180
77789W        W20701   8.311   1.294   7.307 -0.1123 -0.1244  0.1186
77790W        W20702  10.548   2.925   7.639  0.0141 -0.3740  0.2543
77791W        W20703  11.211   3.342   9.472  0.4855  0.0227  0.1037
77792W        W20704   8.915   0.904   9.562 -0.0335  0.1295 -0.3304
77793W        W20705  11.605   1.473   9.094  0.2350 -0.0135 -0.1297
77794W        W20706   7.445   0.267   9.509  0.0495  0.1860  0.0581
77795W        W20707   7.643   2.280   8.258 -0.0393  0.0728  0.0179
77796W        W20708   8.205   2.744   7.235  0.0144 -0.0484  0.0223
77797W        W20709   9.870   0.771   9.898  0.0630  0.4722  0.0452
77798W        W20710   9.069   2.450   9.616  0.3448  0.0426 -0.0311
77799W        W20711   9.122  33.441   8.721 -0.1861 -0.1096  0.0389
77800W        W20712   7.583   1.725   9.861  0.1633  0.0169  0.0720
77801W        W20713   9.780   2.070   9.332 -0.1739 -0.2295 -0.3110
77802W        W20714   8.620   6.816   3.253 -0.0380 -0.0264 -0.0469
77803W        W20715  10.098   4.743   2.131  0.0942  0.1167 -0.1939
77804W        W20716  10.484   3.963   1.177 -0.1135  0.1550 -0.0533
77805W        W20717  11.282   4.903   0.901 -0.1479 -0.0915 -0.0826
77806W        W20718   7.470   6.855   0.408  0.0084  0.2900 -0.0100
77807W        W20719   8.889   6.558   1.294 -0.2872  0.1508 -0.0540
77808W        W20720   7.350   3.846   2.847  0.2242  0.3049  0.0045
77809W        W20721   9.652   5.798   0.580 -0.1199 -0.0522  0.3862
77810W        W20722  11.905   6.313   2.560 -0.2152  0.0362  0.1937
77811W        W20723   8.214   5.428  31.164  0.0694  0.2753  0.1760
77812W        W20724   9.813   5.624   1.959 -0.0147 -0.0975 -0.0917
77813W        W20725   9.174   7.181   4.106  0.1482  0.2455  0.0109
77814W        W20726   8.248   2.466  30.817  0.1485  0.2770  0.0883
77815W        W20727   7.172   3.146   1.154 -0.1020 -0.3017  0.1248
77816W        W20728  10.670   5.318   2.215 -0.0060 -0.2417  0.1667
77817W        W20729   7.834   5.668   0.894  0.1527  0.1522  0.2249
77818W        W20730   8.046   3.822   1.731  0.1034  0.1476 -0.2127
77819W        W20731   9.556   4.116   0.896 -0.1739 -0.1977  0.1455
77820W        W20732   9.925   8.692  31.925  0.0027  0.0631  0.0477
77821W        W20733   8.502   3.470   3.105  0.1876 -0.0167  0.1540
77822W        W20734   9.651   4.884   3.910  0.2527 -0.0947  0.1791
77823W        W20735  10.093   5.761   1.224  0.1554  0.1297  0.0614
77824W        W20736   8.490   6.290  31.236  0.1471 -0.0262  0.0246
77825W        W20737   9.261   4.984   0.783  0.1484 -0.3182 -0.0587
77826W        W20738   8.165   5.351   1.527 -0.0697 -0.3301 -0.6096
77827W        W20739  10.492   4.481   0.423 -0.1798  0.0009  0.0367
77828W        W20740  11.158   5.076   2.314 -0.0213 -0.2582 -0.1575
77829W        W20741   9.393   5.834   1.661  0.0294  0.1881  0.2176
77830W        W20742   8.251   5.806   2.953  0.2508  0.1159 -0.2063
77831W        W20743   9.867   4.598   2.586 -0.2223 -0.1357 -0.0481
77832W        W20744   7.464   5.866   1.230 -0.0006  0.0447  0.4362
77833W        W20745   7.220   6.566   1.939 -0.0820 -0.2962  0.0443
77834W        W20746   8.460   7.757   0.945  0.0735 -0.0801 -0.0451
77835W        W20747  11.675   6.134  31.493  0.1155  0.0023 -0.0597
77836W        W20748  10.943   6.609   1.819 -0.0850 -0.0984 -0.1070
77837W        W20749  10.578   6.783   1.413  0.0635 -0.4203 -0.0879
77838W        W20750   8.075   6.158   0.966 -0.0307  0.0336 -0.1244
77839W        W20751  10.556   6.815   0.457 -0.2271 -0.1357  0.0394
77840W        W20752   7.996   6.528   2.311 -0.2375 -0.1277  0.1279
77841W        W20753  11.111   6.135   2.199 -0.1451 -0.2081  0.1492
77842W        W20754  11.070   7.012   1.452  0.0662 -0.0467 -0.1516
77843W        W20755   9.550   7.156  31.005  0.2592 -0.2645 -0.0648
77844W        W20756   9.585   4.603   1.481 -0.0669 -0.1214 -0.1346
77845W        W20757   9.630   6.080   3.537  0.1762  0.0554  0.1987
77846W        W20758   7.088   6.162   2.783  0.1108 -0.2047  0.0225
77847W        W20759  11.036   4.863   4.403  0.1065 -0.2110  0.2455
77848W        W20760   8.592   8.400  30.250 -0.0551 -0.0273  0.1268
77849W        W20761  10.625   6.385  31.416 -0.0659  0.0269  0.0644
77850W        W20762   9.910   4.419   1.784  0.0099  0.1143 -0.3141
77851W        W20763   9.620   4.114   0.385 -0.1847  0.0965  0.0296
77852W        W20764   9.600   3.156   1.356 -0.1890  0.1353 -0.0406
77853W        W20765   9.431   6.178   3.108  0.2669 -0.2611 -0.0217
77854W        W20766   8.325   5.205   2.746 -0.0163 -0.1477 -0.0390
77855W        W20767  11.585   6.184   3.171  0.2720 -0.0243  0.0817
77856W        W20768   8.968   4.600   0.668 -0.1164  0.1039 -0.1392
77857W        W20769  10.070   4.229   2.874  0.1605 -0.3466 -0.0914
77858W        W20770   7.312   5.671   3.561  0.0922 -0.2121  0.4576
77859W        W20771   9.170   3.689   0.817  0.0309  0.3771  0.0016
77860W        W20772  11.481   6.022   0.378  0.2715 -0.0400 -0.0194
77861W        W20773  11.367   5.606   0.597  0.0912  0.0085  0.2376
77862W        W20774   9.208   6.013  31.711  0.0680  0.2362  0.2330
77863W        W20775   8.734   4.726   1.063 -0.1867 -0.1547 -0.4643
77864W        W20776   8.569   6.005   3.669 -0.1051  0.0738  0.2100
77865W        W20777   8.125   3.817   3.018 -0.1602 -0.2044  0.0517
77866W        W20778   8.277   3.722  31.386  0.4699  0.2070  0.4987
77867W        W20779   9.500   5.709   2.940 -0.1655  0.0885  0.1041
77868W        W20780   8.132   6.069   3.877  0.2008 -0.0277  0.2198
77869W        W20781  10.646   4.974   0.248 -0.2977  0.0481 -0.0463
77870W        W20782   7.115   6.219   0.977 -0.2494  0.1100 -0.0611
77871W        W20783  11.576   5.954   2.321 -0.2103 -0.1621  0.3215
77872W        W20784   9.825   5.627  31.237 -0.0071  0.3021  0.0630
77873W        W20785  10.173   4.281   2.332 -0.2263  0.4310 -0.1498
77874W        W20786   9.703   5.199   3.126  0.5290  0.1228  0.0841
77875W        W20787   9.250   5.494   1.220  0.4417  0.3118 -0.0876
77876W        W20788  11.154   6.289  31.277 -0.2574  0.2420 -0.0793
77877W        W20789  12.058   6.476   3.063 -0.2219  0.4562 -0.3359
77878W        W20790  10.975   4.773  31.886  0.0502  0.2852 -0.0894
77879W        W20791   7.790   5.843   3.463 -0.1761 -0.0725  0.0490
77880W        W20792   8.096   4.067   3.483 -0.0392  0.1926  0.0635
77881W        W20793  10.236   6.038   1.906  0.1511  0.1110  0.1098
77882W        W20794   9.066   8.987   0.085  0.0415 -0.3508  0.3129
77883W        W20795   7.750   5.354   3.410  0.0025  0.0973  0.2379
77884W        W20796   8.778   7.738   0.273  0.1131  0.1285  0.0143
77885W        W20797   7.083   4.338   1.915  0.1573  0.2727  0.0041
77886W        W20798   8.922   6.030   1.670 -0.0396 -0.1970 -0.0376
77887W        W20799  10.468   4.429   1.949 -0.0071 -0.0181 -0.0844
77888W        W20800   7.832   5.773   1.637  0.0850  0.0996  0.0864
77889W        W20801  11.047   4.974   1.277  0.2007  0.2312 -0.0590
77890W        W20802   7.443   6.306   1.563  0.0111 -0.0528  0.2505
77891W        W20803  10.620   8.074   0.635  0.1429 -0.4358  0.0482
77892W        W20804  11.684   6.191   1.359 -0.0385 -0.3312 -0.0531
77893W        W20805  11.380   6.132  31.908  0.0346 -0.0372  0.1909
77894W        W20806   7.450   5.660   3.043 -0.0201  0.0139 -0.3562
77895W        W20807   8.384   5.940   1.440  0.1755 -0.0444  0.1917
77896W        W20808   8.602   4.572   3.397 -0.1283 -0.1981  0.2641
77897W        W20809   8.462   3.889   2.002  0.1286 -0.1369  0.1493
77898W        W20810  10.718   5.316   2.752 -0.2138  0.0308 -0.3352
77899W        W20811   7.487   3.254  31.574 -0.1167 -0.0658  0.1516
77900W        W20812   9.757   5.545   1.456  0.0285 -0.0036 -0.2373
77901W        W20813   9.281   6.138   2.074  0.0213 -0.0091 -0.2733
77902W        W20814   9.199   5.787   0.799  0.3875  0.2458  0.0346
77903W        W20815  10.463   2.867   2.164  0.0675  0.1847 -0.2595
77904W        W20816   9.021   7.093  31.521 -0.3672 -0.1701  0.0264
77905W        W20817  11.110   7.590   2.317  0.2145  0.0134  0.0324
77906W        W20818   9.248   6.648   1.977 -0.1155  0.1722 -0.1084
77907W        W20819  10.221   3.999   1.661 -0.1103 -0.0061 -0.0030
77908W        W20820  10.037   4.323   0.609  0.1092  0.0296  0.0734
77909W        W20821   8.053   7.340   1.592 -0.3693 -0.2383  0.1499
77910W        W20822  11.362   6.384   0.955  0.0328 -0.4878 -0.1427
77911W        W20823   9.588   5.093   1.307 -0.2385 -0.0683 -0.1188
77912W        W20824  10.409   7.228   0.014 -0.0862 -0.1590  0.0438
77913W        W20825   9.989   4.828   1.345  0.4976 -0.0309 -0.1737
77914W        W20826   8.196   5.373   5.141  0.1539 -0.0868 -0.2478
77915W        W20827  10.863   4.354   2.888  0.1538 -0.0147  0.0152
77916W        W20828  12.362   6.152   2.704  0.1200 -0.1340  0.1012
77917W        W20829  10.408   6.505  31.961 -0.0964  0.0673  0.2165
77918W        W20830   8.397   3.472  30.542 -0.0823  0.3537  0.4357
77919W        W20831   8.399   7.274   1.888  0.0037  0.1552 -0.1986
77920W        W20832   7.977   7.469  31.828  0.2012 -0.0636 -0.0127
77921W        W20833   8.050   6.023   2.161 -0.0228 -0.0363 -0.1505
77922W        W20834   8.824   7.496   1.147 -0.0120  0.3766  0.0830
77923W        W20835  10.551   4.989   1.118 -0.1743  0.0947 -0.0988
77924W        W20836   6.783   4.377   3.297  0.0922 -0.2753  0.1990
77925W        W20837   9.038   5.803   2.946 -0.1761 -0.0880 -0.3253
77926W        W20838   7.599   4.412   0.532 -0.2080  0.0781  0.0008
77927W        W20839   8.107   7.372   3.251 -0.1593  0.0640 -0.0935
77928W        W20840   9.602   3.286  31.788 -0.2553  0.1957  0.1555
77929W        W20841  12.941   3.368   0.478  0.0993 -0.0531  0.0758
77930W        W20842   9.456   5.169   2.170 -0.2926 -0.3330 -0.0588
77931W        W20843  11.630   6.419   2.153  0.3702  0.1189  0.2253
77932W        W20844   9.472   3.818   1.721 -0.3111  0.1119  0.0720
77933W        W20845   9.239   3.248   1.000 -0.3504  0.0649  0.0026
77934W        W20846   7.914   6.955   3.658  0.1592  0.2458  0.0289
77935W        W20847   8.636   5.716  31.773 -0.2378 -0.1348  0.2596
77936W        W20848  10.210   5.365   1.992 -0.1511  0.0908 -0.1446
77937W        W20849  10.259   3.093   0.062 -0.1792  0.3483 -0.1397
77938W        W20850  12.096   6.139   0.354 -0.1015 -0.0101 -0.4775
77939W        W20851   8.637   5.690   1.932  0.1572 -0.1243 -0.0427
77940W        W20852  10.506   6.492   3.274 -0.1855  0.2071 -0.0035
77941W        W20853   9.825   5.194  31.985 -0.2332 -0.2474 -0.2366
77942W        W20854   8.492   4.206   1.616 -0.4612  0.0077  0.2222
77943W        W20855   8.959   4.914  31.654 -0.0642  0.0606 -0.3439
77944W        W20856   9.529   3.633   1.213  0.0986  0.3080  0.1616
77945W        W20857   8.078   9.041  31.765 -0.2052 -0.3815  0.0716
77946W        W20858  10.368   4.644   2.655 -0.0367 -0.0536 -0.1093
77947W        W20859   9.379   3.664   2.686  0.0899  0.3154  0.0322
77948W        W20860   8.085   2.540   2.975 -0.1544 -0.2224 -0.1171
77949W        W20861  10.843   5.162   3.233  0.0424 -0.1276  0.2913
77950W        W20862  10.288   4.716   0.785 -0.0239 -0.0979  0.4286
77951W        W20863  10.296   6.301   1.450  0.3248  0.2945 -0.0411
77952W        W20864   8.708   3.997   1.254 -0.3859  0.1426 -0.0967
77953W        W20865  10.522   2.932   3.125 -0.1214  0.2581 -0.2363
77954W        W20866   8.533   2.970   1.585 -0.3370 -0.3592  0.0290
77955W        W20867   7.369   6.142   3.259 -0.0380  0.2256  0.2159
77956W        W20868  11.318   6.447   2.567  0.2830 -0.4119 -0.0672
77957W        W20869   9.856   5.348   0.488  0.1687 -0.0240  0.1350
77958W        W20870   8.921   3.804   2.981  0.1366  0.0369 -0.1232
77959W        W20871   9.820   3.978   1.392 -0.1585 -0.1896 -0.0921
77960W        W20872   7.923   6.601   1.273 -0.0815 -0.1098 -0.0131
77961W        W20873   8.962   7.010   0.965  0.0251 -0.0802  0.3063
77962W        W20874  10.177   3.709   2.358  0.0613 -0.0346 -0.1551
77963W        W20875   9.387   7.205   3.553  0.1140 -0.0113 -0.1818
77964W        W20876   9.940   7.476   0.861  0.0581 -0.4013 -0.0149
77965W        W20877  10.260   6.322   2.452  0.1799 -0.0228 -0.0980
77966W        W20878   7.027   7.521   0.311  0.1631 -0.0238 -0.1557
77967W        W20879  10.511   3.639   1.691  0.0172 -0.1567  0.2351
77968W        W20880   7.842   6.767  31.019  0.1422  0.2484  0.2767
77969W        W20881   8.013   4.372   1.224 -0.1893  0.2091  0.0883
77970W        W20882   7.933   5.279   0.505 -0.0569 -0.1453 -0.3031
77971W        W20883  10.981   3.160   1.252 -0.2659 -0.1196 -0.0836
77972W        W20884  11.849   5.664   0.379 -0.2269 -0.0199 -0.1321
77973W        W20885   9.014   5.047   1.353 -0.0957 -0.2839 -0.0410
77974W        W20886   8.900   3.271   0.132  0.2089  0.2013 -0.2814
77975W        W20887   8.963   6.097   3.953  0.2150  0.1102  0.1799
77976W        W20888   9.166   5.286   2.615  0.1404 -0.1898 -0.0545
77977W        W20889  10.625   4.443   1.008  0.1408  0.0901  0.2668
77978W        W20890  10.929   6.398   0.726 -0.5008  0.2457 -0.0551
77979W        W20891   9.591   5.700   2.442  0.2245  0.0265  0.2578
77980W        W20892   9.736   4.760  31.185  0.0649  0.2405 -0.2130
77981W        W20893  10.412   4.898   1.772  0.0334  0.1820  0.1325
77982W        W20894   9.835   4.416   1.119 -0.0296 -0.0878  0.1179
77983W        W20895   7.717   5.413   1.317  0.1513 -0.3822  0.1870
77984W        W20896  10.567   6.577   2.767 -0.2786  0.0901 -0.0179
77985W        W20897   9.112   5.616   0.012  0.1251  0.2671 -0.1550
77986W        W20898   7.738   6.666   1.772 -0.2029  0.2005 -0.2034
77987W        W20899   8.315   4.251   2.559  0.0268  0.0806 -0.2273
77988W        W20900  10.581   5.949   2.218 -0.0237  0.1642 -0.1319
77989W        W20901   7.738   3.346   1.461 -0.1147  0.0674 -0.0459
77990W        W20902   8.785   5.399   0.998  0.1788 -0.0425  0.0643
77991W        W20903   8.095   5.609   2.445 -0.4528  0.0841 -0.1804
77992W        W20904   9.963   6.413   1.795  0.0755 -0.0596 -0.4037
77993W        W20905   9.615   4.667   2.163  0.0871 -0.1349  0.0007
77994W        W20906   7.545   7.604   3.542  0.0115 -0.0471 -0.2317
77995W        W20907   9.732   3.578   3.383 -0.0751  0.0379 -0.1429
77996W        W20908  12.563   6.732   0.467 -0.0888 -0.0777  0.1215
77997W        W20909  10.263   6.234   3.580  0.2344 -0.2305 -0.0406
77998W        W20910   9.561   4.912   0.331  0.3189 -0.0685 -0.2558
77999W        W20911   8.798   6.420   3.521  0.0668 -0.3725 -0.2487
78000W        W20912   8.671   5.250   0.026  0.3531 -0.4954  0.3171
78001W        W20913   9.195   5.260   3.137  0.2874 -0.2524  0.2441
78002W        W20914   8.162   5.082   3.656  0.1929 -0.1842  0.1452
78003W        W20915   8.766   5.501   1.488 -0.0314 -0.1786 -0.0764
78004W        W20916   7.638   5.783   2.642  0.1427 -0.1967 -0.0627
78005W        W20917   9.352   4.792   2.836 -0.0953  0.1066  0.1956
78006W        W20918   8.975   5.706  30.808 -0.0509  0.0516 -0.1535
78007W        W20919   8.952   4.427   1.599 -0.3627 -0.1950  0.2049
78008W        W20920  11.582   4.753   2.309 -0.0655  0.0162 -0.2129
78009W        W20921  10.302   5.373   0.141  0.1890 -0.4760 -0.0333
78010W        W20922   9.661   3.947   3.031  0.1105  0.0172  0.0844
78011W        W20923   8.918   4.223   2.128  0.3751  0.2981  0.0133
78012W        W20924  10.057   6.385  31.439  0.0276  0.0835 -0.0911
78013W        W20925   8.512   3.769   2.662 -0.2205 -0.0543  0.1154
78014W        W20926  10.706   7.694   2.880  0.0239 -0.1280 -0.1234
78015W        W20927   9.116   6.021   3.473 -0.1715  0.0198 -0.0402
78016W        W20928   9.115   4.211   0.452  0.0678 -0.0759 -0.2783
78017W        W20929   9.161   3.763   0.208  0.2205  0.2352  0.2017
78018W        W20930   8.558   5.135   1.705  0.0359 -0.0487  0.1012
78019W        W20931  11.022   5.675   2.358  0.0697 -0.0822  0.2828
78020W        W20932  10.041   5.758  30.790  0.2041  0.0119  0.2254
78021W        W20933  10.474   5.633  31.615  0.4245 -0.0751 -0.3232
78022W        W20934   9.296   6.494   3.661  0.3167  0.2974 -0.1376
78023W        W20935   9.353   5.339   0.436  0.0023  0.3389 -0.1098
78024W        W20936   9.751   4.892   0.813  0.0115  0.2057  0.1173
78025W        W20937   7.671   6.240   2.541  0.3480 -0.2838  0.2248
78026W        W20938   8.026   4.412   1.731 -0.0594  0.2967  0.2587
78027W        W20939  10.364   6.274   0.494 -0.2483  0.1827 -0.0197
78028W        W20940   8.846   4.153   2.653  0.0954  0.1819  0.2009
78029W        W20941  10.326   5.299   3.114 -0.0081 -0.0739 -0.0190
78030W        W20942  10.051   6.665   1.189  0.0526  0.0466 -0.1189
78031W        W20943   9.216   4.949   5.325  0.0555  0.2853  0.2248
78032W        W20944   8.911   3.686   2.198  0.0402 -0.0710  0.2725
78033W        W20945   8.939   6.504   0.661  0.1126 -0.3846  0.0793
78034W        W20946  10.185   5.745   0.729  0.0893  0.0035 -0.2036
78035W        W20947  12.154   5.994   2.160 -0.0588  0.1717  0.0159
78036W        W20948  11.459   5.479   2.167 -0.1231  0.2560 -0.2553
78037W        W20949  10.327   5.205   0.642  0.1501  0.3618  0.0981
78038W        W20950   8.579   5.156   2.306 -0.1630  0.0833  0.2987
78039W        W20951  10.241   6.048   2.936  0.2112 -0.1354 -0.3346
78040W        W20952   8.786   3.294  30.892  0.1743 -0.1447 -0.1162
78041W        W20953   9.439   3.355   3.715  0.2787  0.1430 -0.0619
78042W        W20954   9.495   6.523   2.346 -0.1392 -0.2086 -0.2338
78043W        W20955   9.413   6.251   0.728 -0.2187  0.0229  0.2706
78044W        W20956  10.753   6.192   1.777 -0.0093  0.0765 -0.1473
78045W        W20957   6.881   3.567   1.326  0.1685 -0.2523 -0.2626
78046W        W20958   7.894   8.359   3.872 -0.3201 -0.1372  0.0072
78047W        W20959   7.998   4.281  31.487 -0.0099 -0.2234  0.1208
78048W        W20960  10.025   4.525  30.758 -0.1003 -0.0411 -0.0184
78049W        W20961   8.996   6.437   2.884 -0.1555  0.1098  0.1836
78050W        W20962  11.336   5.950   2.733  0.2396  0.0885  0.1795
78051W        W20963   9.907   2.102   0.683 -0.3646  0.0439 -0.2173
78052W        W20964  10.360   4.423   1.427 -0.0993  0.1519 -0.2459
78053W        W20965   7.993   6.274   0.421  0.1367  0.1206  0.1981
78054W        W20966   9.634   3.730   0.045 -0.0628  0.2352  0.1555
78055W        W20967   8.403   6.423   2.939 -0.0089  0.1675 -0.2078
78056W        W20968   7.574   5.591   4.582 -0.1694 -0.1091  0.1666
78057W        W20969   7.646   6.076   0.745  0.1010  0.1423 -0.1622
78058W        W20970  10.964   3.874   2.872  0.0711 -0.0672 -0.0588
78059W        W20971  11.114   7.786   1.279 -0.0766  0.1894  0.0792
78060W        W20972   9.239   4.084   1.355 -0.0455  0.1375 -0.1726
78061W        W20973  10.820   6.175   2.582  0.1730  0.2003 -0.2189
78062W        W20974   8.045   6.262   1.661  0.0215  0.2278 -0.2532
78063W        W20975   9.038   5.112   3.814  0.3029  0.0838 -0.2536
78064W        W20976  10.691   7.056   1.782  0.1367 -0.1433  0.3388
78065W        W20977  13.606   6.123  31.937  0.1915 -0.0478  0.1629
78066W        W20978   8.424   6.403   1.331  0.0852 -0.2484 -0.0695
78067W        W20979   8.769   5.163   4.235  0.2801  0.1855 -0.1930
78068W        W20980   8.551   6.462   4.082  0.0262 -0.0173  0.1848
78069W        W20981  10.607   5.754   2.767 -0.3418  0.0384 -0.1196
78070W        W20982   7.504   4.054   1.607  0.0598 -0.0180 -0.2453
78071W        W20983   7.737   6.559   0.045 -0.2479 -0.1468  0.0395
78072W        W20984   7.917   5.944   4.799 -0.1800 -0.3297  0.3134
78073W        W20985   7.730   3.760   2.501  0.2200 -0.4951  0.0792
78074W        W20986   8.997   7.343   0.556  0.1612 -0.0177  0.2299
78075W        W20987   9.377   6.745   0.967  0.1381 -0.3197  0.1568
78076W        W20988   9.043   5.947   0.322  0.0744 -0.2895  0.0272
78077W        W20989  10.014   7.961   1.732 -0.1131  0.1245 -0.1890
78078W        W20990   9.007   4.201   0.927 -0.1075 -0.0063 -0.0087
78079W        W20991   9.182   7.006   2.332 -0.1121  0.1773  0.0152
78080W        W20992   9.305   7.633   0.883 -0.2769 -0.1368  0.0384
78081W        W20993  10.308   7.249  30.964  0.0659 -0.2802 -0.0506
78082W        W20994   7.985   6.823   0.372 -0.1884  0.0473 -0.0309
78083W        W20995  10.987   6.339   3.007  0.2229  0.1586  0.4765
78084W        W20996  11.853   2.631  31.588  0.2174  0.2659 -0.1666
78085W        W20997  10.770   6.519   2.232 -0.1023 -0.0178 -0.0608
78086W        W20998  11.179   3.921   0.980 -0.0908  0.2093  0.1100
78087W        W20999   9.669   7.003   2.545  0.2171  0.0262  0.1370
78088W        W21000   9.503   2.774   2.904  0.0216 -0.2815 -0.2203
78089W        W21001   8.567   3.458  31.776 -0.2809 -0.0705 -0.0904
78090W        W21002   9.988   5.550   2.871 -0.2125 -0.3002  0.0780
78091W        W21003  11.160   2.102   3.918  0.0234 -0.1273  0.0088
78092W        W21004   8.205   7.558   4.235 -0.1827  0.3410 -0.1950
78093W        W21005  10.919   6.297   0.227  0.1075 -0.0655 -0.0642
78094W        W21006   7.081   3.836  29.909  0.0809 -0.2561 -0.1855
78095W        W21007  10.094   5.707   2.448 -0.1360  0.1485  0.0659
78096W        W21008  11.109   4.201   3.330  0.0099  0.2394 -0.0080
78097W        W21009   7.532   5.013  31.856 -0.1284  0.0939  0.3074
78098W        W21010   8.702   3.330   1.876  0.2369 -0.2067  0.0890
78099W        W21011   7.828   7.125   1.093  0.1728  0.1591 -0.2334
78100W        W21012   8.881   5.599   3.449  0.1716 -0.0246  0.0984
78101W        W21013   8.583   7.160   2.426 -0.2616  0.0366 -0.0788
78102W        W21014   7.925   4.182  31.964 -0.1656 -0.0312 -0.0819
78103W        W21015  11.423   4.382   0.879  0.0253  0.1900  0.2495
78104W        W21016   9.774   5.000   1.784  0.0593 -0.1181  0.0190
78105W        W21017  10.855   3.993   3.899  0.0863  0.0778  0.2329
78106W        W21018  10.028   5.316   1.035  0.2380 -0.0529  0.1892
78107W        W21019  10.376   3.333   2.083  0.3186 -0.4201 -0.1531
78108W        W21020  10.055   6.682   2.779  0.0240  0.2114  0.0837
78109W        W21021   7.619   5.456   5.054 -0.2956 -0.0508  0.1983
78110W        W21022   9.474   4.532   0.654  0.1002  0.1736  0.1680
78111W        W21023  11.275   5.228   2.979 -0.2128 -0.0217  0.0678
78112W        W21024  10.805   4.814   0.714  0.0006  0.0714  0.3754
78113W        W21025  10.575   7.389   1.319 -0.0297 -0.0513 -0.3098
78114W        W21026   9.421   4.353   2.647 -0.3106 -0.3381  0.1320
78115W        W21027  10.061   2.976   0.536  0.2244  0.0588 -0.3880
78116W        W21028   8.589   6.179   2.129  0.1279 -0.1870  0.1786
78117W        W21029   8.975   5.577   4.009  0.2318  0.0262  0.0714
78118W        W21030  11.003   6.967   2.183  0.1159  0.3371 -0.0660
78119W        W21031   9.695   3.151   0.821 -0.0860  0.0950 -0.2328
78120W        W21032  10.687   5.943   0.739 -0.0516 -0.0275 -0.1739
78121W        W21033   9.728   5.141   2.620 -0.2338  0.1262 -0.1425
78122W        W21034   9.340   6.335   1.552  0.0720 -0.0980 -0.1445
78123W        W21035  11.119   5.111   0.349  0.1323 -0.1854 -0.1413
78124W        W21036   8.706   6.533   1.776 -0.0273  0.3214  0.1086
78125W        W21037   8.814   4.764   2.023  0.0852  0.0427  0.2371
78126W        W21038   9.850   6.002   1.581  0.3008 -0.0024  0.2053
78127W        W21039  12.281   6.365   1.805 -0.0365 -0.2749 -0.0142
78128W        W21040   7.707   2.782  31.490  0.1062 -0.2837 -0.1457
78129W        W21041   9.180   4.853   2.385 -0.0696  0.1919 -0.3230
78130W        W21042   6.857   7.061   0.399 -0.1289  0.2141 -0.0213
78131W        W21043  10.684   5.209   1.558  0.0606  0.0348  0.2115
78132W        W21044   9.036   4.388   3.101 -0.3016 -0.0887  0.3513
78133W        W21045   9.996   5.626  31.803 -0.2099 -0.0193  0.0316
78134W        W21046   8.969   7.244   3.260  0.2025 -0.2271 -0.0810
78135W        W21047   8.027   7.072   2.282  0.2071 -0.0816  0.0254
78136W        W21048   7.935   6.192  31.161  0.1373 -0.0278  0.1970
78137W        W21049   9.419   5.796   3.890  0.0561  0.1959  0.1708
78138W        W21050   9.885   6.222   0.545  0.0228 -0.0322  0.5028
78139W        W21051   8.551   5.974   0.739 -0.0614  0.1556 -0.1234
78140W        W21052  11.554   6.868   2.273 -0.1571  0.1767  0.0046
78141W        W21053  10.295   6.129   0.995 -0.1057  0.0868  0.2214
78142W        W21054  12.043   5.510   1.033  0.3278 -0.0790  0.2571
78143W        W21055   9.240   4.627   1.093  0.0480  0.3081 -0.0527
78144W        W21056  11.139   1.927   0.074 -0.3921 -0.2097  0.2524
78145W        W21057  10.052   3.899   0.921  0.0684  0.0304  0.0516
78146W        W21058   9.194   6.767   3.234 -0.1205 -0.0253  0.1228
78147W        W21059   8.111   5.304   0.020  0.2212  0.2210  0.0387
78148W        W21060   8.568   6.201   0.273 -0.0026 -0.0802  0.0385
78149W        W21061   8.309   6.605   3.684  0.2518  0.1366 -0.1589
78150W        W21062   9.861   2.289   3.841  0.0870  0.0472 -0.0348
78151W        W21063   7.900   4.884   2.822 -0.1568 -0.0766 -0.4736
78152W        W21064   8.810   6.060   2.607  0.3153  0.4037  0.0570
78153W        W21065   8.903   3.925   1.751 -0.0841 -0.1788 -0.2355
78154W        W21066  10.823   6.008  31.782  0.1650 -0.1972 -0.0947
78155W        W21067   8.555   3.265   3.571  0.1472 -0.1523 -0.1714
78156W        W21068   7.532   4.595   1.669  0.3051  0.2959 -0.0707
78157W        W21069  10.906   7.736  31.362  0.1980 -0.0225  0.1253
78158W        W21070  10.608   8.564   0.446 -0.0423  0.1527  0.1020
78159W        W21071   8.128   3.526   0.097 -0.3439 -0.0347 -0.2946
78160W        W21072  11.323   7.800   3.751 -0.1092 -0.0326  0.0934
78161W        W21073   7.859   8.004  31.711 -0.1147 -0.0577 -0.1740
78162W        W21074   9.553   5.611   3.400  0.0131 -0.3208  0.1719
78163W        W21075   9.542   3.527   2.199  0.1212  0.1429 -0.1714
78164W        W21076   6.896   4.998  31.549 -0.1116  0.2641  0.0600
78165W        W21077   9.583   5.401   0.892  0.0405  0.0110  0.2489
78166W        W21078   9.033   6.423   0.146 -0.2153  0.4845  0.1865
78167W        W21079  12.003   6.780   0.430  0.2313 -0.2455 -0.0407
78168W        W21080   9.572   6.883   3.924 -0.1419  0.0379 -0.1660
78169W        W21081   9.285   7.066   2.841  0.0028  0.1165 -0.2088
78170W        W21082   6.966   5.335   3.296  0.0237 -0.0006 -0.3966
78171W        W21083  11.046   5.826   0.275 -0.0828  0.3120  0.2826
78172W        W21084   8.550   7.275   2.894  0.0721 -0.1455  0.1990
78173W        W21085  11.309   5.280  31.635 -0.1479  0.2596 -0.2337
78174W        W21086  11.601   4.374   1.931  0.2925 -0.2728 -0.1476
78175W        W21087  11.280   5.782  31.537 -0.4696  0.1440 -0.2517
78176W        W21088   8.642   4.614   2.554 -0.1229  0.0767  0.0172
78177W        W21089   8.241   6.211   3.372  0.4621 -0.0433  0.1043
78178W        W21090  10.433   5.622   1.606  0.1817 -0.0791 -0.0175
78179W        W21091   7.905   3.420   0.925 -0.0827  0.0522  0.2459
78180W        W21092   9.977   3.484   1.399 -0.0637 -0.3352  0.2703
78181W        W21093   8.440   6.822   1.026 -0.0292 -0.1956  0.2456
78182W        W21094   9.043   5.744   2.208  0.2953 -0.2218 -0.1041
78183W        W21095   9.313   5.371   1.709  0.2449  0.3086  0.0954
78184W        W21096  10.141   5.217   1.512  0.0148 -0.3720 -0.0695
78185W        W21097   8.786   5.956   1.163  0.3483  0.1362  0.2747
78186W        W21098  10.477   5.302   3.610 -0.1023  0.0662 -0.5966
78187W        W21099   9.607   5.889   1.092  0.2244 -0.3495 -0.3597
78188W        W21100  12.465   5.101  31.938  0.3071  0.1715 -0.1036
78189W        W21101   9.519   6.643   2.847 -0.4421  0.2163 -0.0672
78190W        W21102  11.743   7.631   2.984 -0.1981 -0.0862 -0.0418
78191W        W21103   8.816   6.848   2.781 -0.4669  0.0077  0.1330
78192W        W21104  11.239   5.406   3.464 -0.0157 -0.1329 -0.4804
78193W        W21105   9.902   3.436   1.869 -0.3631 -0.2308  0.1220
78194W        W21106   8.245   4.413   0.394  0.0825 -0.1300 -0.0418
78195W        W21107   8.069   4.722  31.778  0.1468  0.0316 -0.0369
78196W        W21108   9.416   4.291   1.804 -0.0416 -0.0775 -0.0916
78197W        W21109   7.182   4.950   1.657 -0.2853  0.0164 -0.0901
78198W        W21110   9.338   2.824   0.780 -0.0714 -0.0389  0.2644
78199W        W21111   6.822   6.885   1.631  0.3702  0.4304  0.1483
78200W        W21112  10.980   7.329   1.064 -0.1160 -0.2716 -0.0880
78201W        W21113   9.450   5.556   6.249 -0.1363  0.2416 -0.1164
78202W        W21114   8.937   4.297   4.252 -0.0974  0.0499 -0.0408
78203W        W21115  10.677   4.314   3.550 -0.0542 -0.1911 -0.4487
78204W        W21116   9.644   4.483   3.075 -0.0411 -0.1070  0.2214
78205W        W21117   8.705   4.664   3.941 -0.0543 -0.0623  0.2065
78206W        W21118  10.129   7.291   3.384 -0.3030  0.2109  0.2334
78207W        W21119   8.435   3.914   6.273  0.2860 -0.1829 -0.0559
78208W        W21120  10.195   7.380   5.560 -0.0018  0.0194  0.1220
78209W        W21121  10.818   7.243   6.213 -0.3303  0.1309 -0.1428
78210W        W21122   9.877   6.669   4.293 -0.1534  0.0872 -0.1683
78211W        W21123   9.408   4.113   5.082 -0.0789 -0.0166  0.1106
78212W        W21124   7.323   6.558   5.838 -0.0928  0.1822  0.0858
78213W        W21125   9.135   3.778   4.475 -0.0200  0.1162  0.2406
78214W        W21126   7.795   2.934   6.879  0.0525 -0.0508  0.2096
78215W        W21127  10.736   4.209   5.243 -0.2372  0.1174  0.1947
78216W        W21128   8.372   6.297   5.523  0.0294  0.2720  0.0869
78217W        W21129   8.203   4.766   5.329 -0.1006 -0.1744  0.1778
78218W        W21130   9.762   3.933   4.730  0.0951  0.2677 -0.0376
78219W        W21131   9.964   9.229   4.323  0.2920 -0.2808  0.0363
78220W        W21132   9.232   4.021   7.194 -0.0053  0.1214 -0.4892
78221W        W21133  10.387   3.817   6.835 -0.0954  0.3384  0.2362
78222W        W21134   9.141   8.151   3.825  0.1578  0.0956 -0.1787
78223W        W21135   7.863   5.425   2.860  0.2748 -0.0994  0.0057
78224W        W21136   7.991   4.697   6.029 -0.2163  0.1829 -0.2244
78225W        W21137   9.210   5.261   6.530 -0.3041  0.1576  0.0104
78226W        W21138   9.594   4.484   5.365 -0.1114  0.0252 -0.2485
78227W        W21139   9.667   4.156   5.881 -0.0747  0.0724 -0.3314
78228W        W21140   8.564   7.477   5.499 -0.0451  0.1048  0.2112
78229W        W21141   9.665   7.494   5.468  0.1254 -0.1457 -0.2210
78230W        W21142  10.580   4.271   6.723  0.5828 -0.2221 -0.1817
78231W        W21143   7.152   5.501   4.992  0.2873  0.0034  0.0424
78232W        W21144   8.312   7.464   6.398 -0.3601  0.1310 -0.0789
78233W        W21145   8.059   8.703   4.816  0.0553 -0.0686  0.0259
78234W        W21146  10.530   6.625   3.743  0.0670  0.2125  0.1638
78235W        W21147  10.963   5.916   6.418 -0.1281 -0.1175  0.0706
78236W        W21148   7.765   8.078   7.343 -0.0715 -0.0529  0.3492
78237W        W21149   7.378   6.499   4.985 -0.0951 -0.1260 -0.0664
78238W        W21150   9.583   6.608   7.353 -0.1005 -0.2237 -0.1676
78239W        W21151   8.790   6.234   6.996 -0.1598 -0.0614 -0.2429
78240W        W21152   9.360   6.074   6.303  0.0074  0.0206  0.2752
78241W        W21153   9.779   5.642   4.774  0.0703  0.2007 -0.1553
78242W        W21154   9.896   6.481   3.801  0.1526 -0.4751  0.0136
78243W        W21155  10.331   6.809   4.448  0.1703  0.0163 -0.2333
78244W        W21156  10.034   6.569   6.193  0.0807 -0.0879  0.1822
78245W        W21157   8.019   7.176   5.483 -0.0100 -0.2922  0.1852
78246W        W21158  11.409   3.917   6.403  0.0361  0.3308 -0.1709
78247W        W21159  10.715   6.132   3.653  0.0810  0.2132  0.2341
78248W        W21160  10.986   4.879   2.741 -0.0522 -0.1291  0.1775
78249W        W21161   8.786   5.054   2.820  0.1375  0.0118 -0.2857
78250W        W21162   9.103   4.430   5.381 -0.1637  0.0395 -0.0576
78251W        W21163   8.673   4.200   5.798 -0.3430  0.0422 -0.0593
78252W        W21164   9.828   7.094   5.798  0.2094  0.2919 -0.0832
78253W        W21165   9.333   3.904   6.106 -0.0291  0.2255  0.3240
78254W        W21166  10.315   6.132   7.121 -0.1615  0.1702  0.0271
78255W        W21167   9.056   5.080   4.627 -0.0087  0.1684 -0.1846
78256W        W21168   9.073   5.767   6.475 -0.3571  0.2500 -0.0270
78257W        W21169   7.620   5.909   6.671 -0.0366 -0.1151 -0.4085
78258W        W21170   9.635   3.592   5.059 -0.2185 -0.1882  0.2315
78259W        W21171  10.333   7.103   2.964 -0.0249 -0.1265  0.0664
78260W        W21172   9.901   8.105   4.230  0.0443 -0.2109 -0.1508
78261W        W21173   9.403   7.612   3.800 -0.0105 -0.0206 -0.0747
78262W        W21174   8.423   5.684   4.738  0.0813 -0.0432  0.2746
78263W        W21175   8.181   5.419   5.626 -0.2646 -0.0781  0.0249
78264W        W21176   9.253   5.374   7.083  0.2279  0.2635 -0.2842
78265W        W21177   8.570   4.119   3.125  0.2695  0.0432  0.1770
78266W        W21178  10.824   6.920   5.787 -0.2450  0.0502  0.0999
78267W        W21179   7.814   6.596   5.979  0.0789 -0.1179 -0.3950
78268W        W21180  10.779   5.149   3.995  0.0568  0.1451 -0.1152
78269W        W21181   9.636   6.119   4.466  0.1256 -0.0195 -0.1006
78270W        W21182  10.137   5.503   5.513  0.1004 -0.1720  0.0883
78271W        W21183  11.125   6.181   4.026 -0.1713 -0.0587 -0.0799
78272W        W21184   9.861   3.770   6.911 -0.1790  0.1807  0.0999
78273W        W21185   8.892   4.882   6.886  0.1745  0.0841 -0.4547
78274W        W21186   8.908   5.352   5.010 -0.0312 -0.1629 -0.2902
78275W        W21187  10.056   5.765   3.387 -0.1276  0.0985 -0.0327
78276W        W21188  10.638   6.703   6.196  0.0296  0.2744  0.3995
78277W        W21189   9.929   6.350   3.195 -0.1112  0.1271  0.0311
78278W        W21190   8.389   6.405   6.569  0.4039 -0.1585 -0.1138
78279W        W21191   9.829   4.559   6.585 -0.2100  0.3369 -0.2698
78280W        W21192   9.191   7.582   6.509 -0.2583 -0.2247 -0.2480
78281W        W21193   7.419   7.098   3.848  0.0640  0.0193 -0.1776
78282W        W21194   7.157   6.022   5.844 -0.1504  0.2840 -0.2992
78283W        W21195   8.551   5.745   5.249  0.0547 -0.1050  0.0054
78284W        W21196   8.303   3.148   6.782  0.0009  0.0070 -0.1388
78285W        W21197   9.020   7.753   6.033 -0.1372  0.2869  0.1511
78286W        W21198  11.391   2.973   4.127  0.0923  0.2639 -0.2550
78287W        W21199   7.947   5.232   6.015  0.0191  0.1260  0.0020
78288W        W21200  11.583   3.105   5.800  0.0942 -0.2069 -0.0858
78289W        W21201   7.937   5.317   4.731 -0.0999  0.1188  0.0853
78290W        W21202  11.478   6.848   5.057 -0.2012 -0.4088  0.0379
78291W        W21203  10.261   4.170   3.888 -0.4015 -0.4226 -0.3365
78292W        W21204  10.475   6.907   2.330  0.1290 -0.0778  0.1690
78293W        W21205   6.992   4.432   6.522  0.0086 -0.2100  0.0319
78294W        W21206   9.363   5.663   4.355  0.1728 -0.0567  0.0304
78295W        W21207   7.341   4.634   7.296  0.2137  0.1102 -0.1217
78296W        W21208   7.857   4.878   4.979 -0.1184  0.1424 -0.0386
78297W        W21209   9.257   5.353   5.738 -0.0209  0.0831 -0.3121
78298W        W21210   7.209   4.627   6.166 -0.1227  0.0634 -0.0100
78299W        W21211  10.714   3.420   4.478  0.1426  0.2084  0.1335
78300W        W21212  10.079   4.065   3.414 -0.0394  0.1387 -0.1412
78301W        W21213   7.785   6.155   4.294  0.3403  0.1598 -0.0521
78302W        W21214  10.928   4.597   6.907  0.1497  0.0396 -0.0655
78303W        W21215   9.044   7.669   4.139 -0.0017 -0.4693  0.1284
78304W        W21216  10.830   6.987   6.697  0.0876  0.2064  0.0382
78305W        W21217  10.533   7.052   3.482 -0.1674  0.0241  0.0904
78306W        W21218  10.048   6.604   7.189 -0.0414 -0.0447  0.1682
78307W        W21219   9.060   6.044   4.496  0.0568  0.3734  0.2196
78308W        W21220   8.334   7.011   5.845  0.0998  0.2530 -0.0943
78309W        W21221   8.310   7.670   3.563 -0.1639  0.0792  0.0322
78310W        W21222   8.758   3.727   3.436 -0.0531  0.3210  0.1255
78311W        W21223  10.640   8.027   4.500 -0.1347 -0.1294  0.2942
78312W        W21224   9.767   6.325   5.109 -0.3617  0.0437 -0.1231
78313W        W21225   8.680   6.771   6.301  0.0382  0.0691  0.2992
78314W        W21226   9.615   4.212   6.827  0.0671  0.1492  0.0312
78315W        W21227  10.700   5.097   7.004 -0.2415 -0.0347 -0.1696
78316W        W21228   9.027   3.788   4.965  0.0864  0.1752  0.2022
78317W        W21229   8.121   3.421   2.720 -0.4026 -0.2783 -0.2189
78318W        W21230   9.906   8.452   5.055 -0.0740 -0.2213 -0.3189
78319W        W21231   8.593   7.852   3.908  0.1714  0.1452 -0.0341
78320W        W21232   8.809   6.027   4.946 -0.0313 -0.1090 -0.0426
78321W        W21233  10.408   6.900   5.406 -0.2478 -0.2604  0.1728
78322W        W21234  10.385   3.151   4.785 -0.0600 -0.1839  0.2715
78323W        W21235   7.984   5.278   6.916  0.3177 -0.2007  0.1849
78324W        W21236  10.175   4.947   5.695 -0.0881  0.1038 -0.2254
78325W        W21237   7.983   4.197   6.163  0.2799 -0.0754  0.1128
78326W        W21238   9.259   6.746   8.325  0.1500  0.4675  0.1795
78327W        W21239  10.163   4.543   4.517  0.0429 -0.1202 -0.0400
78328W        W21240  10.570   4.821   3.069 -0.2301 -0.0428 -0.0223
78329W        W21241   9.618   7.379   7.700  0.2629  0.2697 -0.1228
78330W        W21242  10.683   4.130   5.732 -0.2106 -0.0279 -0.5499
78331W        W21243   9.027   4.249   3.561  0.3935  0.1737 -0.0299
78332W        W21244   9.853   4.447   3.841  0.1736 -0.1318  0.2221
78333W        W21245   7.877   5.937   7.242 -0.0091 -0.1218 -0.0141
78334W        W21246   8.917   7.262   4.696  0.0853 -0.1755 -0.0586
78335W        W21247   9.566   6.600   5.892  0.3402  0.2183  0.0107
78336W        W21248   9.250   4.665   3.552  0.2894  0.1509  0.0921
78337W        W21249  11.083   6.366   4.491 -0.0566  0.4124 -0.0307
78338W        W21250   8.744   7.234   6.666  0.3389  0.2198 -0.1672
78339W        W21251  10.070   7.521   7.364 -0.1086 -0.3482 -0.3903
78340W        W21252  10.670   5.953   4.177  0.0032  0.0405  0.1953
78341W        W21253   8.385   3.668   7.255  0.3734 -0.0525  0.1345
78342W        W21254   8.656   5.543   2.644 -0.1330  0.1219 -0.0937
78343W        W21255   9.243   3.192   4.257  0.1991 -0.1621  0.0258
78344W        W21256   7.322   6.664   3.414 -0.0325  0.1476 -0.2426
78345W        W21257   9.908   4.581   5.888 -0.4134  0.1538 -0.2428
78346W        W21258   9.301   4.201   7.725 -0.1349 -0.0571  0.1832
78347W        W21259   9.810   2.673   5.669 -0.1213  0.3199  0.0059
78348W        W21260  11.851   6.069   7.164 -0.2762 -0.0648  0.0166
78349W        W21261  10.307   5.408   4.630 -0.1301 -0.2374  0.1175
78350W        W21262  10.506   5.036   6.221  0.0588 -0.0180  0.3259
78351W        W21263   8.719   5.067   3.423  0.3216 -0.2969  0.1306
78352W        W21264   9.916   3.311   7.128 -0.0678 -0.0640 -0.0111
78353W        W21265   8.818   6.748   6.805  0.1071  0.0842  0.2575
78354W        W21266   8.252   6.350   5.974 -0.0259  0.0912 -0.1876
78355W        W21267   9.330   7.104   5.557 -0.1018 -0.0973  0.1656
78356W        W21268  10.781   6.704   4.762 -0.0763 -0.3597  0.4034
78357W        W21269  11.093   4.196   7.163  0.0274 -0.0403  0.0214
78358W        W21270   8.871   5.586   4.518 -0.0677 -0.0024  0.2285
78359W        W21271   9.628   6.646   4.779 -0.3623  0.2659  0.0544
78360W        W21272   9.770   3.900   6.444  0.1701 -0.1721 -0.0308
78361W        W21273   9.459   5.330   5.019 -0.0727 -0.0980  0.2322
78362W        W21274   9.648   6.752   3.456 -0.0595  0.0686 -0.3490
78363W        W21275   9.819   6.186   7.400  0.1040 -0.0985 -0.0680
78364W        W21276   8.339   5.858   5.747 -0.0618 -0.3447 -0.3052
78365W        W21277  10.714   3.838   7.732  0.2249  0.0367  0.2732
78366W        W21278   7.155   6.833   5.438 -0.1364 -0.1514  0.0070
78367W        W21279   8.804   6.833   4.448  0.1928  0.0611 -0.1622
78368W        W21280   8.198   4.826   2.480 -0.1097  0.1178 -0.2078
78369W        W21281  10.219   4.560   3.418  0.0818 -0.0725 -0.1434
78370W        W21282  10.541   5.691   3.346 -0.1487  0.1898  0.1283
78371W        W21283   7.612   4.281   7.043 -0.1987  0.2519  0.0676
78372W        W21284   9.427   3.417   4.650 -0.0797  0.1600 -0.0207
78373W        W21285   7.780   5.528   6.403 -0.4690 -0.4409 -0.1095
78374W        W21286  10.637   5.617   5.532  0.1367 -0.0764 -0.0584
78375W        W21287  11.084   3.804   4.332  0.0741 -0.3172 -0.0158
78376W        W21288   9.670   6.181   6.924 -0.3748  0.0086  0.1054
78377W        W21289   9.567   5.745   7.225 -0.1878  0.4426 -0.3532
78378W        W21290   7.555   4.390   5.911  0.2456  0.0091 -0.3275
78379W        W21291  10.736   4.659   5.773 -0.0075  0.0544  0.0667
78380W        W21292   8.942   5.244   6.094  0.3198  0.0158  0.0031
78381W        W21293   9.112   5.838   5.968  0.0439 -0.3232 -0.0199
78382W        W21294  10.704   7.340   5.474  0.0730  0.0873 -0.1094
78383W        W21295   8.044   5.864   5.325  0.2223 -0.1637  0.0672
78384W        W21296   8.319   6.131   5.001 -0.0531 -0.0514 -0.2637
78385W        W21297   9.776   3.468   7.593 -0.2715  0.2519 -0.1467
78386W        W21298  11.338   5.723   6.019  0.0966 -0.2713 -0.1690
78387W        W21299   8.872   3.651   6.414  0.2356  0.0212 -0.0150
78388W        W21300   8.248   3.978   5.172  0.1034 -0.1999 -0.0825
78389W        W21301   9.914   5.485   4.255 -0.2780  0.1828  0.0581
78390W        W21302  11.391   5.572   5.415 -0.4425  0.0884 -0.0288
78391W        W21303   9.872   4.738   7.106  0.0574 -0.0259  0.0430
78392W        W21304   8.832   5.787   7.218  0.2065  0.0121  0.1404
78393W        W21305   9.592   2.269   5.692 -0.1888  0.3420 -0.3181
78394W        W21306  11.619   8.257   3.565 -0.0527 -0.0830  0.0327
78395W        W21307  10.439   5.997   7.543 -0.4224 -0.2149 -0.0861
78396W        W21308   8.930   6.909   3.677 -0.3036  0.1853  0.0815
78397W        W21309   8.033   5.069   6.485  0.2691  0.2973  0.1639
78398W        W21310   9.227   6.550   4.516 -0.0101  0.2216  0.3439
78399W        W21311  10.047   5.643   6.917  0.1384  0.1990  0.1024
78400W        W21312   9.224   6.877   6.065 -0.0514 -0.1102 -0.0689
78401W        W21313   8.424   7.204   4.520  0.1278  0.0967 -0.3694
78402W        W21314  11.257   3.544   4.714 -0.0370  0.0571  0.1401
78403W        W21315   9.326   6.147   2.574  0.2061  0.2578  0.2373
78404W        W21316   8.359   4.503   6.287 -0.2210  0.1846 -0.1001
78405W        W21317  11.517   3.482   6.172 -0.1337 -0.1905 -0.1187
78406W        W21318  10.628   4.791   3.616  0.3456  0.0400 -0.2464
78407W        W21319  10.132   2.265   5.762  0.0344 -0.1655 -0.2362
78408W        W21320   8.018   3.547   5.514 -0.0417 -0.1018 -0.2220
78409W        W21321  10.091   4.937   4.796 -0.1145 -0.3002 -0.3074
78410W        W21322   6.174   2.979   6.569  0.1400  0.2058 -0.1343
78411W        W21323   9.595   5.375   7.653 -0.2269  0.1275 -0.2643
78412W        W21324   9.006   4.335   6.864  0.0814 -0.1015 -0.1131
78413W        W21325   9.178   3.065   4.983 -0.1002  0.2640  0.1627
78414W        W21326   9.913   4.366   4.948  0.0348  0.1455 -0.0387
78415W        W21327   8.796   6.097   5.684 -0.2495 -0.2103  0.0436
78416W        W21328  11.194   4.134   5.531 -0.1087 -0.0552  0.0082
78417W        W21329   9.384   7.016   4.511 -0.0503  0.4079  0.0969
78418W        W21330  10.389   3.814   5.446  0.1951  0.0074  0.1641
78419W        W21331   8.955   6.305   6.520 -0.1936 -0.2822  0.0205
78420W        W21332  11.670   5.431   4.504 -0.2406 -0.1067 -0.1689
78421W        W21333  10.030   6.316   4.616 -0.1487 -0.3860  0.0893
78422W        W21334   8.752   6.428   4.669 -0.2681  0.0658 -0.2191
78423W        W21335   8.301   3.623   5.930  0.2714 -0.2966  0.2795
78424W        W21336  10.233   5.904   4.446  0.2826  0.0427 -0.2078
78425W        W21337   9.779   5.251   5.933  0.0167  0.0580 -0.1460
78426W        W21338  10.249   4.378   5.511  0.1250  0.0323 -0.2835
78427W        W21339   9.877   3.989   5.252 -0.1592 -0.0539  0.0847
78428W        W21340  10.359   4.592   6.104  0.1145  0.3012  0.1131
78429W        W21341   7.360   4.384   7.807 -0.0201  0.2741 -0.0335
78430W        W21342   9.526   7.304   6.760  0.1259  0.1444  0.4124
78431W        W21343  11.958   4.059   1.979 -0.1571  0.0366 -0.3795
78432W        W21344  11.495   3.985   5.934 -0.3370  0.0405 -0.0216
78433W        W21345  10.276   4.627   4.045 -0.2902 -0.2643 -0.1473
78434W        W21346   9.918   5.357   3.689 -0.1100  0.0876 -0.0135
78435W        W21347   8.656   4.745   5.000  0.0279 -0.0248  0.0576
78436W        W21348  10.179   6.477   7.686  0.2390 -0.1027 -0.2266
78437W        W21349   7.505   4.569   4.896 -0.0827 -0.2803 -0.0402
78438W        W21350  10.896   3.917   6.782  0.0206  0.0654 -0.2164
78439W        W21351   8.550   8.348   3.879 -0.2676  0.0334 -0.1538
78440W        W21352   9.588   3.647   5.624  0.0948  0.1433 -0.2547
78441W        W21353  10.081   5.020   4.280 -0.4847 -0.3591 -0.1214
78442W        W21354   7.470   4.900   5.791 -0.0829  0.0154 -0.1495
78443W        W21355   7.754   7.146   6.811 -0.1988  0.2635 -0.0590
78444W        W21356   9.478   4.124   3.531 -0.1698 -0.0936 -0.3078
78445W        W21357   9.538   7.964   4.721 -0.1396 -0.2144 -0.1677
78446W        W21358  10.376   4.738   6.589  0.1158 -0.1379  0.1490
78447W        W21359  11.403   5.784   6.862 -0.1653  0.2506  0.2041
78448W        W21360   9.820   3.953   3.849  0.1332  0.0261  0.1211
78449W        W21361  10.908   5.444   6.228 -0.0142 -0.2637 -0.0469
78450W        W21362   6.503   4.909   3.982  0.0405 -0.0890 -0.1784
78451W        W21363  10.536   3.656   5.881 -0.1474  0.3498 -0.0047
78452W        W21364   8.321   6.173   7.019 -0.2750 -0.3891 -0.2352
78453W        W21365   8.552   5.619   6.129 -0.1203 -0.0457  0.3340
78454W        W21366   9.263   6.270   4.937  0.0580 -0.1376 -0.2253
78455W        W21367  10.583   4.143   6.226  0.0583 -0.3742 -0.2951
78456W        W21368   9.603   5.714   5.703 -0.0079 -0.0276 -0.3489
78457W        W21369   9.568   5.217   4.538  0.0826  0.3394  0.1183
78458W        W21370  11.086   5.391   5.757  0.1070 -0.2714 -0.2651
78459W        W21371  10.250   5.346   5.985  0.1780 -0.0789  0.2269
78460W        W21372   8.665   6.460   5.161  0.3693 -0.1054 -0.1887
78461W        W21373   8.963   6.603   7.294  0.2464 -0.1076 -0.0753
78462W        W21374  11.526   7.250   4.150  0.2513  0.1729 -0.1127
78463W        W21375   9.078   6.657   4.059 -0.0371  0.2078  0.2116
78464W        W21376   7.106   4.843   6.806 -0.1731  0.1106 -0.2004
78465W        W21377   9.825   4.896   7.558 -0.0442 -0.3543 -0.3772
78466W        W21378   9.725   6.133   5.985 -0.3367 -0.3762  0.1052
78467W        W21379   8.789   2.521   5.274  0.2791  0.1177 -0.2201
78468W        W21380  10.341   6.307   4.120  0.0324 -0.4213 -0.0326
78469W        W21381   8.601   5.954   6.586  0.0942  0.2069  0.0025
78470W        W21382  10.013   4.976   6.293 -0.1509  0.0743 -0.3687
78471W        W21383   8.994   8.066   5.100  0.1221  0.0835 -0.1000
78472W        W21384  10.619   7.373   2.163  0.2690  0.2046  0.1301
78473W        W21385   9.669   5.773   5.208 -0.1702 -0.0490  0.3030
78474W        W21386  11.045   6.453   6.471  0.1932 -0.1413  0.3168
78475W        W21387  10.411   3.693   3.616  0.2953 -0.0382  0.0974
78476W        W21388   9.560   6.699   5.289 -0.1673 -0.0601 -0.1310
78477W        W21389   8.103   6.889   5.032 -0.2409  0.1307  0.0067
78478W        W21390  10.701   8.543   4.058 -0.0466 -0.0857 -0.2524
78479W        W21391   8.530   6.870   5.402 -0.4450 -0.3708 -0.1688
78480W        W21392   9.734   6.860   6.801  0.2076  0.1586 -0.0078
78481W        W21393  11.872   3.033   3.666 -0.0766 -0.0848 -0.1668
78482W        W21394  10.524   6.335   4.616  0.1667  0.0317 -0.2584
78483W        W21395  10.556   5.494   5.047  0.1707 -0.4394  0.5292
78484W        W21396  10.815   6.052   7.069 -0.1201 -0.2050  0.3810
78485W        W21397   8.465   5.069   6.008  0.0610 -0.2848 -0.0161
78486W        W21398   6.688   3.481   3.829  0.1764 -0.1109 -0.3493
78487W        W21399  10.595   4.154   7.291  0.0658 -0.1688  0.1787
78488W        W21400  11.515   4.053   6.864 -0.0107 -0.0433 -0.3042
78489W        W21401   7.093   7.477   6.165 -0.0901  0.1644 -0.3134
78490W        W21402  11.390   7.974   3.193 -0.2822  0.0335  0.3901
78491W        W21403   9.223   4.611   4.773 -0.0074  0.3020 -0.2461
78492W        W21404   9.693   5.133   5.428  0.2210  0.0033 -0.1858
78493W        W21405  11.455   3.253   7.478  0.1028 -0.2625  0.0444
78494W        W21406   9.067   6.766   4.976  0.1312  0.0718 -0.2128
78495W        W21407   9.173   3.446   5.412 -0.0384 -0.0263 -0.0642
78496W        W21408   9.076   6.579   5.471  0.2419 -0.1622  0.0136
78497W        W21409   8.824   7.100   5.718 -0.2418 -0.0608  0.1360
78498W        W21410   8.680   6.619   5.810 -0.0906  0.1780  0.1347
78499W        W21411   7.989   4.071   3.978 -0.0244  0.2229 -0.1989
78500W        W21412  11.364   4.493   5.214 -0.4780 -0.0818 -0.0825
78501W        W21413   8.085   5.854   6.759  0.0808  0.0479  0.2398
78502W        W21414   9.888   3.621   6.014  0.3281 -0.0932  0.1446
78503W        W21415   9.165   4.841   4.192  0.0645 -0.3983 -0.0686
78504W        W21416   9.675   4.646   4.467  0.0081  0.1624  0.3216
78505W        W21417  11.243   6.017   4.776  0.0620  0.1602 -0.0278
78506W        W21418   9.307   4.436   6.387  0.0903  0.1342 -0.0213
78507W        W21419  10.375   5.750   3.857 -0.0277  0.0358  0.0696
78508W        W21420  11.043   4.929   6.063  0.1140  0.0451 -0.0354
78509W        W21421   9.480   5.333   4.005  0.2068  0.0217  0.1672
78510W        W21422   8.796   7.108   7.153  0.1850  0.0865  0.3074
78511W        W21423   8.389   4.236   4.736 -0.1603 -0.1716  0.1892
78512W        W21424  11.420   4.193   2.903 -0.1030 -0.0979  0.1266
78513W        W21425   9.034   3.937   5.448  0.1256 -0.1906  0.0871
78514W        W21426   8.928   4.912   5.734 -0.1195 -0.0876 -0.4593
78515W        W21427  10.312   6.982   7.457 -0.0128  0.1909 -0.0590
78516W        W21428   7.793   3.809   5.933 -0.3997  0.1205 -0.1300
78517W        W21429  10.835   7.263   2.616 -0.0556 -0.0227 -0.2929
78518W        W21430  10.187   3.598   4.968  0.0617  0.1206  0.0293
78519W        W21431   8.638   7.729   4.438  0.1651 -0.1197  0.0082
78520W        W21432  12.274   5.636   5.091  0.0045 -0.1089 -0.3017
78521W        W21433  10.236   7.270   4.369  0.4519 -0.1426  0.0002
78522W        W21434   6.871   3.790   6.249  0.1059  0.1239 -0.0307
78523W        W21435   9.337   6.177   5.425 -0.0515  0.0866 -0.1953
78524W        W21436  10.179   5.909   4.988  0.2980 -0.0292 -0.1320
78525W        W21437   9.039   2.722   4.389  0.0924  0.0661 -0.3843
78526W        W21438   9.155   4.418   5.882 -0.0566  0.0269  0.0249
78527W        W21439   8.364   7.350   5.059 -0.2913 -0.0971 -0.0911
78528W        W21440  10.185   4.024   5.887  0.0924  0.0222 -0.0701
78529W        W21441  11.111   4.254   6.508  0.0126 -0.2998  0.3299
78530W        W21442   8.296   8.184   3.528 -0.0223 -0.0182  0.0608
78531W        W21443   9.680   6.986   6.335 -0.1030  0.5462  0.1150
78532W        W21444   9.204   6.959   6.550 -0.0907  0.0546  0.0013
78533W        W21445   8.499   7.154   3.554  0.0351  0.0323 -0.1354
78534W        W21446   9.118   6.376   5.898 -0.0838 -0.0863  0.0192
78535W        W21447   9.457   7.548   4.495 -0.0839  0.0530  0.0573
78536W        W21448   7.972   8.196   4.934  0.1317 -0.1441 -0.0279
78537W        W21449  10.344   6.806   4.937  0.2916  0.0960 -0.1582
78538W        W21450  10.051   6.457   6.715  0.1839  0.0611  0.0242
78539W        W21451  10.337   7.302   4.838 -0.2453 -0.0788  0.1380
78540W        W21452  10.253   3.292   6.068 -0.0649 -0.1027  0.3832
78541W        W21453  10.538   4.910   4.417 -0.0333 -0.1983 -0.2051
78542W        W21454  10.829   4.572   4.773 -0.2940  0.1050 -0.1317
78543W        W21455  10.556   6.407   6.755  0.1838 -0.3208  0.2443
78544W        W21456   6.019   4.786   4.138  0.0403 -0.0028 -0.0280
78545W        W21457   9.494   6.289   4.054  0.0209  0.0789  0.0140
78546W        W21458   9.498   4.854   5.737  0.0014  0.1424 -0.0404
78547W        W21459  10.146   2.273   6.900 -0.0979  0.0141 -0.1187
78548W        W21460   7.606   4.814   6.916 -0.1475  0.2003 -0.3808
78549W        W21461   7.733   3.936   5.395 -0.1738 -0.0974  0.1218
78550W        W21462   8.890   3.333   4.636 -0.0279 -0.3976  0.0933
78551W        W21463  11.141   5.684   4.231 -0.0496 -0.0678  0.1039
78552W        W21464   7.948   4.341   5.013 -0.0921  0.1710 -0.1908
78553W        W21465   8.226   4.702   4.700  0.0673  0.1347  0.1491
78554W        W21466   9.966   5.986   3.988 -0.1750  0.2288  0.0566
78555W        W21467  10.127   6.985   3.843  0.0593 -0.0747 -0.1151
78556W        W21468   9.216   3.934   3.959 -0.0080 -0.1241 -0.2268
78557W        W21469  10.641   6.696   7.952  0.3135 -0.1844 -0.2404
78558W        W21470   7.484   6.303   3.861 -0.3335 -0.0513  0.0005
78559W        W21471  10.416   4.606   7.040 -0.2592  0.2740 -0.1182
78560W        W21472  10.272   3.348   6.792  0.1557 -0.1281 -0.3468
78561W        W21473   8.603   5.125   5.359 -0.2469  0.1667 -0.1361
78562W        W21474  10.030   5.493   6.409 -0.2858 -0.2627 -0.2134
78563W        W21475   9.193   5.723   5.386 -0.1780  0.2271 -0.0106
78564W        W21476  10.367   8.069   3.100 -0.0042 -0.1653 -0.1570
78565W        W21477   9.922   6.054   5.496 -0.0158 -0.1191  0.1177
78566W        W21478   9.727   7.115   7.268 -0.0927 -0.1485 -0.1872
78567W        W21479   7.612   3.341   5.800  0.2469 -0.1367  0.0236
78568W        W21480  11.116   4.939   3.673  0.1200 -0.0999 -0.1086
78569W        W21481   9.592   5.703   6.737  0.0029  0.0893  0.0634
78570W        W21482  11.978   6.375   4.121 -0.1589  0.2693 -0.1572
78571W        W21483  10.917   3.721   5.522 -0.0853  0.0602  0.4577
78572W        W21484  10.417   5.382   4.131 -0.1251  0.1389 -0.0318
78573W        W21485   7.985   3.507   6.289  0.1318 -0.1101  0.2027
78574W        W21486   8.846   6.223   7.642 -0.0059  0.1300  0.0742
78575W        W21487  10.032   5.330   5.090  0.1964  0.3459  0.2305
78576W        W21488   8.858   4.281   4.858 -0.1021 -0.1952  0.1736
78577W        W21489  10.321   2.973   4.362  0.1925  0.4076  0.0215
78578W        W21490  11.431   5.144   4.199 -0.1249  0.0553  0.0665
78579W        W21491   8.574   4.359   5.281 -0.0426 -0.0235 -0.1057
78580W        W21492  10.385   4.475   4.962  0.0633 -0.0407  0.1331
78581W        W21493   8.815   4.657   6.166  0.0497  0.0682  0.1055
78582W        W21494  10.764   8.184   5.095 -0.2078  0.0675  0.2016
78583W        W21495  10.460   5.338   6.596 -0.1662 -0.1181 -0.0136
78584W        W21496  10.001   4.753   5.215  0.3507 -0.2492 -0.0717
78585W        W21497  12.055   4.787   3.380 -0.1174  0.0020  0.2317
78586W        W21498   9.441   7.109   4.989  0.0291  0.0376  0.1547
78587W        W21499   9.921   7.528   5.935  0.0271  0.2040 -0.2197
78588W        W21500   8.905   8.788   4.554  0.1255  0.3816 -0.2318
78589W        W21501  12.064   5.699   4.672 -0.0951 -0.1171  0.0433
78590W        W21502   8.708   2.724   7.036 -0.0117 -0.1019  0.3626
78591W        W21503   8.700   4.670   4.482 -0.1817 -0.1434  0.0622
78592W        W21504   8.562   5.328   3.812 -0.4048 -0.5054 -0.1691
78593W        W21505  10.122   4.269   6.356  0.3116 -0.2342 -0.1614
78594W        W21506   8.925   3.782   5.912  0.0641 -0.0423 -0.3183
78595W        W21507  11.639   2.571   3.924  0.0099 -0.2149  0.1289
78596W        W21508   8.803   5.421   6.832 -0.1461  0.0653  0.2673
78597W        W21509  10.421   5.068   5.286  0.3784 -0.2967  0.0386
78598W        W21510   9.712   5.720  10.077 -0.0438  0.1054  0.3941
78599W        W21511   8.320   5.156   7.459 -0.1621  0.0183  0.2218
78600W        W21512  11.650   5.645   7.301  0.2059  0.3265  0.1973
78601W        W21513  10.870   4.434   9.240  0.1905  0.2811 -0.2176
78602W        W21514   7.443   4.428   8.265  0.1984 -0.1228 -0.1446
78603W        W21515   9.857   6.820   9.467 -0.0735 -0.1144  0.1016
78604W        W21516   8.981   6.184   9.525  0.1795  0.1962  0.0548
78605W        W21517  10.633   6.021   9.375 -0.0503  0.4386  0.2879
78606W        W21518  10.518   5.808   6.741  0.2570 -0.1705  0.0099
78607W        W21519  10.731   4.791   9.618 -0.2181  0.0107 -0.0546
78608W        W21520   9.697   3.987   7.454 -0.4386  0.3188  0.0074
78609W        W21521   8.182   4.127   7.675  0.1476 -0.1035 -0.1026
78610W        W21522   8.168   5.285   8.512  0.0754  0.1525 -0.3781
78611W        W21523   7.608   4.793   7.744 -0.0941 -0.0503  0.1158
78612W        W21524   8.393   3.113   9.552 -0.0407 -0.0280  0.0771
78613W        W21525  10.111   4.052   7.755  0.3318 -0.1647  0.1376
78614W        W21526   8.322   7.101   7.893  0.1088 -0.0331  0.0911
78615W        W21527   8.799   3.909   9.736 -0.0217  0.0906  0.4112
78616W        W21528   8.943   6.071   8.890  0.0400  0.1916 -0.0334
78617W        W21529   8.639   5.026   6.493  0.0499 -0.0573 -0.0980
78618W        W21530   7.857   5.464   9.727  0.2004  0.0769  0.0675
78619W        W21531   6.340   4.541   9.477  0.0167 -0.1775  0.1790
78620W        W21532  10.747   3.181   9.636 -0.2412 -0.1553 -0.1751
78621W        W21533   9.246   5.438   8.848 -0.0998 -0.1156  0.1261
78622W        W21534   8.234   7.968   9.165  0.1550 -0.0920  0.0088
78623W        W21535   8.350   6.485   9.133 -0.1366 -0.2263 -0.0345
78624W        W21536   5.938   6.342   9.211  0.0643  0.3086 -0.1380
78625W        W21537   7.389   7.010   8.514  0.0132  0.1036 -0.1231
78626W        W21538   7.829   6.514   9.451 -0.0593 -0.3965  0.1381
78627W        W21539   9.111   5.642  10.260 -0.2068  0.0923 -0.1467
78628W        W21540   6.834   5.239   6.910 -0.1918 -0.2532 -0.0193
78629W        W21541  10.140   4.617  10.177  0.1927  0.0905 -0.2103
78630W        W21542   9.513   4.679  10.273  0.0847  0.4038 -0.3320
78631W        W21543   9.205   6.050   8.075 -0.1216  0.1612  0.0687
78632W        W21544  10.203   6.309   8.353  0.1703  0.1591  0.4763
78633W        W21545   6.988   4.317   8.109  0.3424  0.0857  0.0340
78634W        W21546   8.054   6.436   7.365  0.1809 -0.1052 -0.0628
78635W        W21547   9.979   5.973   6.532  0.0910  0.0644 -0.1130
78636W        W21548   8.961   3.628   7.105 -0.0765 -0.1648 -0.2832
78637W        W21549  10.992   4.307   7.693  0.0736  0.0213 -0.1899
78638W        W21550   8.454   2.420   7.636 -0.1082  0.1923  0.1060
78639W        W21551   6.927   6.195   9.202 -0.0033 -0.1294 -0.1433
78640W        W21552  10.061   4.315   9.149  0.1726 -0.1308 -0.0353
78641W        W21553   8.882   4.358   7.396 -0.3211  0.0109  0.0200
78642W        W21554   9.217   5.212   8.329  0.4564  0.2589  0.2888
78643W        W21555   8.764   5.979  10.053  0.0191  0.1470  0.1843
78644W        W21556   7.596   5.778   9.026 -0.0060  0.1607  0.1123
78645W        W21557   9.751   6.425   8.004 -0.0708  0.1224 -0.0801
78646W        W21558  10.609   5.799   8.704 -0.1433  0.1924  0.1072
78647W        W21559   9.225   4.878   7.345 -0.0462 -0.0825 -0.1059
78648W        W21560   8.225   5.521   8.008 -0.1960 -0.0617 -0.1105
78649W        W21561   7.850   3.847   7.196 -0.4080  0.3511  0.1174
78650W        W21562   9.559   3.312   9.969 -0.3994  0.0839 -0.3067
78651W        W21563   9.315   5.911   9.835  0.1967  0.1596 -0.0678
78652W        W21564   9.536   7.592   9.197 -0.0406 -0.0574 -0.0855
78653W        W21565  10.226   6.259   5.843 -0.0410 -0.4428  0.1348
78654W        W21566  11.179   4.575  10.029  0.0731  0.1140  0.0891
78655W        W21567  10.608   3.375   8.671  0.0115 -0.1001  0.2213
78656W        W21568   8.589   6.211   8.463  0.0182 -0.1989  0.3324
78657W        W21569   9.863   5.616   8.079  0.0374  0.2867  0.1628
78658W        W21570   9.281   4.781   9.623 -0.1984 -0.2355 -0.0398
78659W        W21571  10.870   5.746   7.536 -0.2999 -0.1247  0.1517
78660W        W21572   8.155   6.951   9.267 -0.0112  0.0173  0.0594
78661W        W21573   7.904   6.920   7.248  0.0183  0.2650 -0.2399
78662W        W21574   6.362   5.135   7.881  0.0573 -0.2265  0.0872
78663W        W21575   7.464   6.310   6.223  0.0917  0.1697 -0.0607
78664W        W21576   6.569   3.976   9.606 -0.0976 -0.0705 -0.1844
78665W        W21577   8.843   6.516   9.227  0.0117 -0.1942 -0.2691
78666W        W21578  10.444   3.827   8.118  0.1637 -0.1395  0.0685
78667W        W21579   8.452   4.960   9.592  0.0205  0.0034 -0.0675
78668W        W21580   7.662   5.733   7.715 -0.0791  0.0305 -0.0994
78669W        W21581   9.710   6.025   8.306  0.0863  0.5495  0.3613
78670W        W21582  10.845   4.688   7.355  0.1431  0.3913 -0.1854
78671W        W21583  10.340   7.095   6.430  0.1523 -0.0476  0.0380
78672W        W21584   8.828   3.784   9.256 -0.1216  0.1664 -0.0152
78673W        W21585   8.797   5.241   7.274  0.1859  0.1049 -0.0572
78674W        W21586   8.324   3.683   9.379  0.0702 -0.0037 -0.4004
78675W        W21587   7.788   4.300   7.484 -0.1767 -0.0014 -0.1200
78676W        W21588   9.700   5.022   8.711 -0.1668 -0.1911  0.1441
78677W        W21589  10.031   5.719   8.615  0.3357  0.0328  0.2136
78678W        W21590   7.071   5.699   9.301  0.0295  0.3298 -0.1629
78679W        W21591   8.174   6.456   8.683  0.2428 -0.0621  0.0340
78680W        W21592  10.567   5.956   9.916  0.0178 -0.0908 -0.0750
78681W        W21593  10.432   7.172   7.948 -0.2853 -0.0737 -0.2996
78682W        W21594   9.388   5.593   8.053  0.2237 -0.1790 -0.1207
78683W        W21595   8.440   5.119   6.959 -0.0827 -0.1487  0.2535
78684W        W21596   7.144   6.548   8.770  0.0854 -0.2314 -0.3760
78685W        W21597   7.719   5.357   8.215  0.2012 -0.1057  0.0942
78686W        W21598   9.551   4.267   8.265  0.1108  0.2411  0.0515
78687W        W21599  10.848   6.800   9.319  0.0449 -0.1666  0.2432
78688W        W21600   7.995   5.749   8.570  0.0400  0.0240 -0.0346
78689W        W21601  10.467   5.594   9.556 -0.1902 -0.3439  0.1646
78690W        W21602  11.108   5.415   7.785  0.0472  0.1894 -0.0776
78691W        W21603   8.136   5.584   7.558  0.1111 -0.1813  0.1083
78692W        W21604   9.235   6.680   8.809 -0.0061  0.2149  0.1797
78693W        W21605   7.822   6.786   7.766  0.0664  0.2454  0.2330
78694W        W21606   7.502   5.189   8.624  0.0884 -0.0098 -0.1636
78695W        W21607   9.306   5.772   9.251 -0.1539 -0.1255  0.0114
78696W        W21608  10.788   3.653   9.475 -0.1827 -0.3239 -0.2483
78697W        W21609   9.551   4.473   7.394  0.0707  0.3485  0.2957
78698W        W21610   9.425   3.697   9.393  0.0714  0.1141 -0.2130
78699W        W21611  12.082   5.334   7.455  0.0024  0.1274 -0.0241
78700W        W21612  10.741   6.596   8.401  0.2485 -0.1009  0.1969
78701W        W21613  11.235   4.942   7.085 -0.1805  0.0073 -0.1769
78702W        W21614  10.229   3.815   7.337 -0.1037 -0.4474 -0.2888
78703W        W21615  10.797   5.173   9.971 -0.1880 -0.3981  0.1496
78704W        W21616   8.918   5.699   9.545  0.1056  0.0221  0.0730
78705W        W21617  10.620   4.337   8.364  0.1037  0.1141 -0.3565
78706W        W21618  10.621   5.185   9.171 -0.3064 -0.0609  0.2343
78707W        W21619   7.210   6.137   9.705 -0.1069  0.0334  0.1637
78708W        W21620   8.333   4.805   8.497 -0.0015  0.0112  0.1111
78709W        W21621  10.258   3.429   9.631 -0.0678 -0.1773  0.2296
78710W        W21622   9.739   5.208   7.192  0.0403  0.0468 -0.2897
78711W        W21623  10.989   3.574   9.912  0.0309 -0.2364 -0.0772
78712W        W21624   8.114   7.247   7.497 -0.1960  0.1206 -0.1837
78713W        W21625  11.491   5.785   9.166 -0.1324  0.1728  0.0733
78714W        W21626   8.213   4.690   9.268  0.1406 -0.2179 -0.1768
78715W        W21627  10.125   5.288   8.343 -0.0456  0.1701 -0.0092
78716W        W21628   9.770   5.465   9.606  0.0277 -0.1844 -0.2834
78717W        W21629   8.935   4.184   6.282  0.0722 -0.3530  0.2385
78718W        W21630  10.775   2.505   9.214 -0.0194 -0.0381  0.1446
78719W        W21631   9.796   7.754   9.837 -0.2535  0.0070 -0.2570
78720W        W21632   8.849   6.473   8.076 -0.0374  0.1111 -0.0793
78721W        W21633  10.152   4.498   7.465  0.1201  0.0391 -0.0403
78722W        W21634   7.961   6.081   7.735  0.2451 -0.1350 -0.0158
78723W        W21635  10.522   5.692   6.241  0.0120  0.1633 -0.1603
78724W        W21636   9.225   5.034  10.095  0.3474 -0.0677 -0.0787
78725W        W21637   6.895   8.216   9.922 -0.1513 -0.0323  0.2354
78726W        W21638   9.304   6.621   6.865 -0.2837  0.2032 -0.2203
78727W        W21639  11.165   6.814   9.998 -0.2815 -0.0358  0.0822
78728W        W21640   8.420   6.402   7.792 -0.0922  0.2957 -0.4868
78729W        W21641  10.242   2.192   9.760  0.1269  0.1000  0.0501
78730W        W21642   6.090   8.369  10.224 -0.1475  0.0980 -0.1626
78731W        W21643   8.575   4.750   7.263 -0.2655 -0.1555  0.3516
78732W        W21644   7.599   5.366   9.293  0.0151  0.1918 -0.0484
78733W        W21645   8.826   2.701  10.381 -0.0303 -0.0177 -0.1311
78734W        W21646   9.660   5.129   6.711 -0.1971 -0.1701 -0.0361
78735W        W21647   9.512   5.117   9.227  0.1420  0.3665  0.3946
78736W        W21648   7.448   2.657  10.103 -0.1037 -0.2035 -0.0999
78737W        W21649   5.710   7.799   9.868 -0.0141 -0.0107  0.0773
78738W        W21650  12.076   4.216   6.651  0.2097  0.0082  0.0335
78739W        W21651   7.081   4.761   7.824 -0.2289  0.1713 -0.0014
78740W        W21652  11.365   3.257  10.292 -0.0700 -0.0912 -0.3541
78741W        W21653   8.760   4.728   9.151  0.0925  0.2116  0.0418
78742W        W21654   8.303   5.547   8.887 -0.1240  0.2414 -0.4608
78743W        W21655  11.632   6.474  11.795  0.0534 -0.0028  0.0465
78744W        W21656   7.498   5.734   8.543 -0.1308  0.0954 -0.0002
78745W        W21657   9.642   5.452   8.518  0.0277 -0.0411  0.0818
78746W        W21658  11.265   3.971  10.283 -0.1730 -0.1775 -0.1198
78747W        W21659  10.483   3.666  10.005  0.1867  0.1141 -0.0586
78748W        W21660   8.398   4.157   8.472 -0.1119  0.0442 -0.0479
78749W        W21661   9.751   5.549   9.038  0.0872 -0.0124 -0.1165
78750W        W21662  10.296   4.072  10.076  0.3996 -0.0790 -0.3052
78751W        W21663   8.410   5.378   9.328  0.0065  0.4042  0.2984
78752W        W21664   9.413   3.223   7.809 -0.1370 -0.0267 -0.2477
78753W        W21665  11.700   7.137   7.252  0.0724  0.0830 -0.1595
78754W        W21666   8.431   4.526   8.118  0.1181 -0.1787 -0.5141
78755W        W21667   6.119   5.865   8.980  0.1224  0.3207 -0.2955
78756W        W21668   8.258   5.975   8.205 -0.1346  0.0480 -0.1650
78757W        W21669   9.995   4.125   8.690 -0.1052  0.1003  0.2653
78758W        W21670   7.413   5.641   9.712  0.0812  0.0179  0.2415
78759W        W21671   7.158   5.471   8.881  0.2627  0.0681  0.1372
78760W        W21672   7.777   5.955   9.643  0.1515  0.0516  0.3745
78761W        W21673  10.488   3.900   8.648  0.0979  0.0099 -0.1494
78762W        W21674  10.499   5.523   7.754 -0.0394  0.0560  0.2612
78763W        W21675   9.709   3.889   7.984 -0.1973 -0.5503 -0.1287
78764W        W21676   9.717   6.613   9.024  0.2418 -0.0742  0.1428
78765W        W21677  10.491   2.704   9.693  0.1844  0.3026  0.1955
78766W        W21678  10.488   6.253   8.941 -0.0178 -0.1042 -0.1976
78767W        W21679   9.139   3.988   8.118  0.5122 -0.0201  0.1834
78768W        W21680   6.926   4.351   7.641 -0.0958 -0.1612  0.0803
78769W        W21681   8.515   3.004  10.116 -0.2419  0.0395 -0.1410
78770W        W21682   9.870   5.092  10.091  0.0481  0.1928 -0.1364
78771W        W21683   9.298   6.397   7.797 -0.0248  0.0266 -0.0215
78772W        W21684  10.563   4.490   7.802 -0.2076  0.0096  0.1273
78773W        W21685   8.033   4.638   9.735  0.0815  0.0254  0.0240
78774W        W21686  10.611   4.989   7.817 -0.2339  0.4110 -0.2177
78775W        W21687   8.800   5.200   8.598 -0.3600  0.2288 -0.0611
78776W        W21688  12.014   4.323   9.335 -0.2384  0.1224  0.2374
78777W        W21689   9.555   5.863   8.776 -0.0740  0.0727  0.1806
78778W        W21690   8.705   4.876  10.022 -0.1863  0.0026  0.2511
78779W        W21691  10.943   5.083   6.585 -0.2993  0.0845  0.3767
78780W        W21692  11.852   4.020   8.518  0.2107  0.0134  0.0320
78781W        W21693  12.340   4.761   7.410 -0.2352  0.0495 -0.1730
78782W        W21694   9.749   4.387   7.824 -0.1654  0.1038 -0.0511
78783W        W21695   9.052   4.278   8.939  0.0875  0.1231  0.1513
78784W        W21696   8.797   4.975   7.692 -0.3030  0.0819 -0.0310
78785W        W21697  10.373   6.206   6.317 -0.2543  0.0495 -0.0317
78786W        W21698   9.243   5.290   9.636  0.4309  0.2909  0.2872
78787W        W21699  10.700   4.824   8.690 -0.1508 -0.3860 -0.1587
78788W        W21700   7.593   4.212   8.775 -0.0240 -0.1209 -0.2582
78789W        W21701   8.393   5.587   7.096 -0.3983  0.0283 -0.0888
78790W        W21702   9.016   4.369   8.451  0.2315 -0.2003  0.0695
78791W        W21703   7.612   3.878  10.173 -0.2797  0.2411  0.1407
78792W        W21704  10.862   2.772   8.007  0.3402 -0.1233  0.0320
78793W        W21705   7.663   6.622   8.421  0.3084  0.3586 -0.0942
78794W        W21706   9.797   3.297   9.425  0.1751 -0.1197 -0.0421
78795W        W21707   8.587   7.785   9.607 -0.0511 -0.1274 -0.3089
78796W        W21708   8.752   5.438   9.979  0.0883 -0.0269  0.1767
78797W        W21709   7.664   2.206  10.121 -0.0622  0.1194 -0.0059
78798W        W21710   8.502   4.293   9.837 -0.1268 -0.2409  0.0673
78799W        W21711   9.611   4.112   9.083  0.0048  0.0731  0.0686
78800W        W21712   9.675   5.121   8.088  0.0445  0.0467 -0.0580
78801W        W21713  10.352   4.778   8.268 -0.0254 -0.0348  0.1124
78802W        W21714   9.155   4.892   8.787 -0.0047 -0.1146  0.0846
78803W        W21715  10.165   5.825   9.189  0.1644  0.3338  0.3136
78804W        W21716   8.756   3.867   7.546  0.1276 -0.2457  0.0764
78805W        W21717  10.333   5.054   7.341 -0.1902 -0.0171 -0.0399
78806W        W21718   8.506   4.505   8.824 -0.3187  0.1598 -0.3738
78807W        W21719   7.323   7.435   8.066  0.0780  0.2799 -0.0151
78808W        W21720   9.287   6.262   8.546  0.0365  0.3179 -0.1356
78809W        W21721   9.970   5.707   7.518  0.3509 -0.1842  0.0133
78810W        W21722  10.509  10.019  10.044  0.0452  0.2282  0.2028
78811W        W21723   8.903   3.849   8.620 -0.2980  0.2193 -0.0778
78812W        W21724   5.611   6.333   9.634  0.0465 -0.3637 -0.2276
78813W        W21725   7.428   7.133   6.381 -0.0643  0.0107  0.0079
78814W        W21726   9.746   7.336   8.202 -0.0228  0.2880 -0.0405
78815W        W21727   7.533   6.431   7.433 -0.2940 -0.2256 -0.3155
78816W        W21728  10.720   3.643   7.277 -0.0344 -0.0884 -0.0452
78817W        W21729  11.454   4.334   8.516  0.0234 -0.1995 -0.0975
78818W        W21730  11.928   4.319   7.125  0.1994  0.0998 -0.3551
78819W        W21731   8.289   4.634  10.151 -0.1022 -0.2531 -0.0607
78820W        W21732   9.321   4.766   6.728  0.1045  0.1952 -0.4104
78821W        W21733  10.853   7.491   7.980 -0.0811  0.3175  0.1286
78822W        W21734   7.355   5.112   7.207  0.1938 -0.1064 -0.4012
78823W        W21735  10.257   5.081   9.738 -0.2612  0.1062  0.1296
78824W        W21736  12.198   2.738   9.940 -0.1833  0.1152 -0.0789
78825W        W21737  10.167   5.137   6.889 -0.0569 -0.0191  0.1232
78826W        W21738   9.870   4.653   8.242  0.0214  0.1439 -0.1571
78827W        W21739   8.932   6.715   9.741  0.0134  0.0971  0.0087
78828W        W21740   8.040   5.671   9.297 -0.0427  0.3449 -0.0157
78829W        W21741   7.181   5.974   8.793  0.0815  0.2437 -0.1996
78830W        W21742   7.603   5.549   7.189  0.1209 -0.0305  0.0296
78831W        W21743  11.904   4.441   7.711  0.3382 -0.1144 -0.1410
78832W        W21744   8.954   5.199   9.233 -0.0735 -0.2433  0.0377
78833W        W21745   8.784   5.295   8.067  0.1690  0.1564 -0.0368
78834W        W21746  10.380   3.681   9.097  0.2392 -0.0692  0.1901
78835W        W21747   9.421   6.936   9.657  0.3012 -0.3323  0.0494
78836W        W21748   6.858   3.273   9.569  0.1408 -0.4374 -0.1130
78837W        W21749   9.262   3.856   6.669  0.1585 -0.0288 -0.2649
78838W        W21750  11.182   5.475   7.237  0.0047  0.0246  0.1379
78839W        W21751   8.552   5.665   8.459  0.0196 -0.1111  0.0829
78840W        W21752  10.638   4.533  10.018 -0.2706  0.2265  0.0904
78841W        W21753   8.285   5.021   8.052  0.0706 -0.1617 -0.2696
78842W        W21754   7.481   3.928   8.283 -0.0812  0.0721 -0.1837
78843W        W21755   9.566   3.847   8.503 -0.0649  0.1330  0.2155
78844W        W21756  10.900   6.151   8.524 -0.1687 -0.0697  0.2234
78845W        W21757  10.198   5.298   8.900 -0.4361  0.2998  0.0349
78846W        W21758   7.874   7.878   8.405 -0.0581 -0.0500 -0.1652
78847W        W21759  10.458   4.724   9.197  0.0535  0.0598  0.0251
78848W        W21760   9.358   6.261   9.056 -0.3144 -0.0940  0.0249
78849W        W21761   9.396   4.573   9.103  0.0895 -0.1340  0.1635
78850W        W21762   8.975   7.431   9.491  0.0118  0.0708  0.1211
78851W        W21763  10.326   6.307   9.654  0.0947  0.0827  0.0341
78852W        W21764   9.346   2.562   8.590 -0.2016  0.2263 -0.0294
78853W        W21765   7.886   4.876   8.366 -0.3047 -0.0362  0.4902
78854W        W21766   7.711   5.984   8.189 -0.2630  0.1561  0.1100
78855W        W21767  10.457   4.372   8.846  0.2427  0.0602  0.0647
78856W        W21768   9.146   5.816   7.659 -0.0801 -0.1398 -0.2386
78857W        W21769   8.020   4.139   9.537  0.1762  0.0122  0.1490
78858W        W21770   9.256   4.872   6.180  0.1621 -0.3547 -0.0364
78859W        W21771   8.126   6.048   8.970 -0.0345  0.0216 -0.0513
78860W        W21772   8.966   7.222   9.996  0.2947  0.1259  0.1756
78861W        W21773   9.605   8.061   9.182 -0.1158 -0.0955 -0.0182
78862W        W21774   8.520   4.517   6.864 -0.2073  0.1530 -0.3413
78863W        W21775  10.250   6.405  10.199 -0.1206 -0.4962 -0.0225
78864W        W21776   8.936   4.441   7.934  0.1074  0.4455  0.0704
78865W        W21777  10.873   3.660   8.260  0.2878  0.0846  0.1407
78866W        W21778   9.677   3.296   8.679  0.1699  0.1081 -0.0777
78867W        W21779   8.704   3.435   9.949  0.0616  0.0919 -0.2107
78868W        W21780   6.897   5.592   7.848  0.3590 -0.2157 -0.2828
78869W        W21781   8.043   4.378   6.687 -0.1680  0.0903  0.0118
78870W        W21782   7.851   5.000   8.956 -0.0789 -0.0528  0.3656
78871W        W21783   7.184   5.188   9.473  0.1205  0.0170 -0.0863
78872W        W21784   8.465   5.975   7.499 -0.2492  0.0133 -0.0219
78873W        W21785  10.372   5.735   8.218  0.4725 -0.0179  0.1050
78874W        W21786   7.779   3.666   9.484 -0.0048  0.1117 -0.0029
78875W        W21787   7.142   4.239   8.619 -0.0758 -0.0090 -0.1626
78876W        W21788   9.674   6.535   8.519 -0.1343  0.0565  0.2458
78877W        W21789  10.007   6.311   9.276 -0.0402  0.0043  0.0041
78878W        W21790  10.095   4.216   8.215  0.0935  0.0162 -0.0656
78879W        W21791   8.344   5.439   6.521  0.1241 -0.2418 -0.0724
78880W        W21792   8.535   3.754   5.495 -0.0113 -0.1339  0.1588
78881W        W21793  11.097   2.907   9.919  0.2900  0.1026  0.0697
78882W        W21794   9.847   6.364   9.805  0.0586 -0.2360 -0.0160
78883W        W21795   8.851   6.921   7.691 -0.2079  0.1253  0.3672
78884W        W21796   9.088   4.476   9.980 -0.1982  0.0943 -0.2107
78885W        W21797   9.118   5.324   7.729 -0.2798 -0.1962  0.0566
78886W        W21798  10.067   6.061   7.928 -0.0107 -0.0696  0.0511
78887W        W21799  11.352   4.357   9.515  0.0122 -0.2456  0.0746
78888W        W21800   9.386   4.813   7.829  0.2026 -0.1595 -0.1515
78889W        W21801   8.742   7.097   9.051  0.0953 -0.0256 -0.2148
78890W        W21802   8.829   3.006   9.348 -0.1101  0.2547 -0.1505
78891W        W21803   9.373   4.712   8.314 -0.1347  0.0903  0.0605
78892W        W21804  10.105   5.253   7.757 -0.0096  0.0088  0.1081
78893W        W21805   7.998   4.453   8.633 -0.1078 -0.0368  0.3615
78894W        W21806   8.657   5.526   7.636  0.0279  0.1735  0.2675
78895W        W21807   8.091   3.478  10.023 -0.0380 -0.3893 -0.1432
78896W        W21808   9.166   5.958   6.895 -0.0029 -0.1170 -0.1919
78897W        W21809  11.069   6.382   8.074 -0.1069  0.1648  0.2660
78898W        W21810   8.678   7.770   9.112  0.0250  0.2393  0.1565
78899W        W21811  10.813   4.041  10.176  0.2680  0.2091  0.3828
78900W        W21812  11.964   5.537   9.263 -0.0332  0.2162  0.1631
78901W        W21813   8.926   2.876   9.816  0.0502 -0.0470 -0.0309
78902W        W21814   9.296   6.209   7.358 -0.2326 -0.1132  0.3854
78903W        W21815  10.070   4.683   8.701  0.0556 -0.2371  0.0850
78904W        W21816  10.927   5.381   9.546 -0.1474  0.4535  0.1691
78905W        W21817   8.201   4.679   7.611  0.4265 -0.0089 -0.2606
78906W        W21818  10.568   3.318   7.923  0.0771  0.0521  0.0894
78907W        W21819   8.396   5.003   8.974 -0.2965  0.1025  0.0290
78908W        W21820   7.566   6.834   9.757 -0.3848 -0.1298 -0.0664
78909W        W21821   8.934   9.853   2.675  0.0073 -0.0237 -0.1976
78910W        W21822   9.560   9.575   1.526 -0.0777  0.0288  0.2662
78911W        W21823  10.758   9.408   0.590  0.0975  0.2989  0.0537
78912W        W21824  10.203   9.418  30.994  0.1987  0.1133  0.0556
78913W        W21825   7.057   8.008   0.122  0.0959 -0.0747  0.1935
78914W        W21826   9.489  11.566   1.847 -0.2329  0.0770 -0.1526
78915W        W21827   9.417   7.468   3.102 -0.0105  0.2956  0.1898
78916W        W21828  10.148  10.481   1.146  0.0551  0.1585  0.3584
78917W        W21829  11.438   9.742   2.743  0.2658 -0.0395 -0.1350
78918W        W21830  10.348   8.728  30.720 -0.0598 -0.0771 -0.1489
78919W        W21831   9.421   7.491   2.399  0.0295  0.0463  0.2373
78920W        W21832   8.073   9.774   2.975  0.0493  0.1525  0.3008
78921W        W21833   8.263   6.469  31.944 -0.0756 -0.0336  0.1682
78922W        W21834   7.699   7.555   2.471  0.1634 -0.1746  0.1234
78923W        W21835   9.397   9.545   2.614 -0.0509  0.1551  0.0647
78924W        W21836   7.650   8.813   0.237  0.3218  0.2228  0.0580
78925W        W21837   7.567   7.803   0.582 -0.1236 -0.0435 -0.1826
78926W        W21838   9.764   8.360   0.287  0.2309  0.3530 -0.0927
78927W        W21839   8.598  11.822   1.838  0.0960  0.0781 -0.0243
78928W        W21840   8.025   7.958   2.458  0.0387  0.3943  0.1009
78929W        W21841   9.237   7.829   3.411  0.0303  0.0487 -0.1734
78930W        W21842  10.439   9.980   1.096 -0.1963 -0.0197 -0.0287
78931W        W21843   8.631   8.766   1.237 -0.0733 -0.2869 -0.0041
78932W        W21844   7.890   8.333   0.337  0.1014 -0.3612  0.2671
78933W        W21845   9.018   8.928   2.145 -0.1018 -0.2839  0.1896
78934W        W21846  10.018   8.064   0.943  0.2953  0.1900  0.2190
78935W        W21847  10.729   9.732   1.590 -0.0118  0.3386 -0.2184
78936W        W21848   7.805  10.726   1.609 -0.0332  0.4488 -0.2460
78937W        W21849  10.554  10.474   1.854  0.0900  0.2112  0.0927
78938W        W21850   9.106   7.872   2.313 -0.0340 -0.1734 -0.1051
78939W        W21851   8.601   9.422  31.663  0.0736 -0.3010 -0.3792
78940W        W21852   7.301  10.560   1.942 -0.1578 -0.1053 -0.0966
78941W        W21853   8.240   9.994  31.574  0.0374  0.0487  0.1811
78942W        W21854  11.256   9.099   0.489  0.1349 -0.1095  0.0534
78943W        W21855   9.865  11.111   1.801  0.1484 -0.1447  0.0837
78944W        W21856   8.534  11.148   2.630  0.3189  0.4099  0.2349
78945W        W21857   8.136  10.429  31.403  0.2622  0.1210 -0.4802
78946W        W21858   9.719  10.332   3.210 -0.3028  0.0136 -0.1886
78947W        W21859   9.046   9.829   3.176 -0.0482  0.1670  0.1033
78948W        W21860   8.585   9.509   1.054  0.4961 -0.2917  0.1354
78949W        W21861  10.174  10.031   0.234 -0.1314  0.1674  0.2917
78950W        W21862   8.613  11.777   1.305 -0.2693 -0.0372 -0.0303
78951W        W21863   8.101  10.394   1.888  0.1978  0.0207  0.2676
78952W        W21864   9.715   7.642   1.970  0.1228  0.0160 -0.0852
78953W        W21865   7.183  10.138   1.581 -0.0706 -0.0273 -0.0360
78954W        W21866  10.176   7.791   1.323 -0.2959 -0.0553  0.1152
78955W        W21867   8.238  11.728   0.474 -0.0780 -0.1883  0.0537
78956W        W21868  10.573   8.281  31.983  0.2830  0.0807  0.2838
78957W        W21869  10.077   8.824  31.156 -0.1728 -0.0107 -0.2097
78958W        W21870   8.998   7.720  31.833  0.1483 -0.3415 -0.2116
78959W        W21871   8.438   6.749   2.238  0.2163  0.1109 -0.0808
78960W        W21872   8.281  11.135   1.896  0.0894  0.1089 -0.0863
78961W        W21873   9.481   8.546   1.234  0.1194 -0.3843 -0.2083
78962W        W21874  11.222  11.207   1.696 -0.1504 -0.0691 -0.1158
78963W        W21875   8.767  10.121  31.573  0.1081 -0.3249  0.1425
78964W        W21876   9.233   7.830   1.377  0.0726 -0.5371 -0.2413
78965W        W21877   8.373  10.230   2.351  0.0217  0.1854  0.0951
78966W        W21878   6.850   8.336  31.777  0.1833 -0.0624  0.1016
78967W        W21879  12.097  10.494   0.233  0.1780  0.2235 -0.0816
78968W        W21880  11.502  11.053   0.793  0.5390  0.0839  0.1474
78969W        W21881  10.736   9.664  31.409 -0.1965  0.1586  0.0788
78970W        W21882   7.859   7.368   0.401 -0.0159  0.2326 -0.1215
78971W        W21883   8.880   8.266   3.015 -0.1923 -0.1354 -0.0123
78972W        W21884   6.985   8.444   2.802 -0.2156 -0.1113  0.0743
78973W        W21885   8.638   7.967  31.621 -0.5278 -0.2002  0.1190
78974W        W21886  10.881   9.859   2.751  0.1616 -0.1694 -0.2736
78975W        W21887   7.781  10.773   2.092  0.0702 -0.2511 -0.0431
78976W        W21888  11.118   8.409   1.365  0.2742 -0.2310  0.0294
78977W        W21889   7.758  10.627   2.554  0.2093  0.0077 -0.0363
78978W        W21890  10.810  10.107  30.666  0.0689  0.4941  0.0663
78979W        W21891  10.344  10.711  30.993  0.2309  0.0583 -0.6534
78980W        W21892   9.385   7.559   0.150 -0.0103 -0.1548 -0.2053
78981W        W21893  10.475   7.757   0.941  0.0810  0.0067  0.0317
78982W        W21894   9.069  11.515  31.478 -0.1007  0.0662 -0.0823
78983W        W21895   9.375  10.488   0.070  0.0867 -0.0897 -0.1484
78984W        W21896  11.210   9.903   3.125  0.1635  0.4442 -0.0378
78985W        W21897  11.000  10.363   1.978  0.0724  0.0947  0.0820
78986W        W21898   7.655   9.897   2.581  0.1412  0.0839  0.0257
78987W        W21899   9.030   8.392   2.547  0.3408  0.0902 -0.2008
78988W        W21900   9.513   9.649   3.087 -0.0886 -0.2143 -0.0044
78989W        W21901   8.895  10.600   0.848 -0.0399 -0.1235  0.0126
78990W        W21902   9.091   9.579   1.327  0.1068  0.0309 -0.1619
78991W        W21903   7.121   9.368  31.555  0.0519 -0.1582 -0.1050
78992W        W21904   7.396   7.142   2.771 -0.1855 -0.0219  0.0208
78993W        W21905   8.559  10.592   2.687 -0.1180  0.1437 -0.1217
78994W        W21906   9.767   6.441  31.909  0.1249 -0.0244 -0.2811
78995W        W21907   7.427   8.063   2.361 -0.0684  0.0419 -0.1843
78996W        W21908   9.548   6.602   0.336  0.0166 -0.0184  0.2205
78997W        W21909   9.851   9.508   1.083  0.1778  0.2264  0.0025
78998W        W21910  12.381  12.062  31.417  0.0346  0.0965 -0.2041
78999W        W21911  10.915   8.443   0.843 -0.1057  0.0707  0.1977
79000W        W21912   9.902  10.958  31.006 -0.0066 -0.0707  0.1196
79001W        W21913   9.308   8.468   2.070 -0.1078  0.0340 -0.2368
79002W        W21914   8.991   9.312   1.740 -0.3387 -0.2991  0.0536
79003W        W21915   7.588   7.638   3.065 -0.1242 -0.0627  0.3750
79004W        W21916   6.858   6.518   3.222  0.2273 -0.0139 -0.4314
79005W        W21917   9.865   8.218   2.088  0.1451  0.0103 -0.1804
79006W        W21918   7.537   8.110   0.184 -0.0656 -0.1449  0.2763
79007W        W21919  10.551   7.826   0.135 -0.3157  0.0401  0.2754
79008W        W21920   8.529   8.290   1.105 -0.2381 -0.0560  0.0002
79009W        W21921   7.891   7.616   0.929  0.0235 -0.1501  0.0589
79010W        W21922  10.156   7.206   2.128 -0.2321 -0.0267  0.3355
79011W        W21923   9.508  10.703   1.135 -0.1863  0.0345 -0.0568
79012W        W21924  11.885  10.450   2.483 -0.1339  0.0682  0.1434
79013W        W21925   9.944   9.342   2.541 -0.0985 -0.2926  0.3114
79014W        W21926   7.858   8.124   2.899 -0.0129 -0.1349 -0.0865
79015W        W21927   7.535   8.040   1.144 -0.3088  0.3450 -0.4785
79016W        W21928   8.502   9.675   0.589 -0.2722 -0.0352 -0.3010
79017W        W21929   8.550  10.212   0.563 -0.3857  0.0476  0.1917
79018W        W21930   9.471   7.279   0.590 -0.2507 -0.0548 -0.0273
79019W        W21931  12.081  10.005   1.339 -0.3293 -0.0466 -0.2681
79020W        W21932  10.066   9.687   1.741  0.1302 -0.0492 -0.1822
79021W        W21933   6.443   9.090   2.688 -0.1055 -0.1628  0.0106
79022W        W21934   9.911   7.482   3.895 -0.1632 -0.1980 -0.3568
79023W        W21935  10.475   9.401   1.985  0.0128  0.0017 -0.3611
79024W        W21936  11.431   8.842   0.998  0.2087 -0.0293  0.1269
79025W        W21937   8.424   6.835  30.761  0.1265  0.2659 -0.0666
79026W        W21938   8.928  10.538   1.845 -0.0070  0.0324  0.0806
79027W        W21939   8.493  10.691   1.483  0.0494 -0.2488 -0.1697
79028W        W21940   8.476   9.985   1.225 -0.2555  0.0182  0.0701
79029W        W21941   6.794  10.487   1.482 -0.0441  0.1125  0.0572
79030W        W21942  11.575   7.799   0.395  0.2362  0.3006 -0.0243
79031W        W21943   7.474   9.414   2.483 -0.0796  0.0789  0.0340
79032W        W21944  10.119   6.911   1.725  0.0484 -0.2152  0.0717
79033W        W21945   8.999   9.388   0.650  0.0528 -0.0318 -0.0417
79034W        W21946   9.771  11.430   2.295  0.0758 -0.2359  0.1137
79035W        W21947  10.422   7.112   0.924  0.1403  0.1327  0.1066
79036W        W21948  11.178   7.260  30.421  0.1637  0.1235 -0.0936
79037W        W21949  10.138   9.034   2.909 -0.1338  0.1994  0.0167
79038W        W21950  11.545   9.991  31.097 -0.0512 -0.2455 -0.2852
79039W        W21951   9.176   6.627  31.720 -0.1779 -0.1148  0.2378
79040W        W21952   9.911   7.922  30.982 -0.0768  0.1297  0.1566
79041W        W21953   6.847   9.438   2.066  0.0171  0.0257 -0.1705
79042W        W21954  10.229   9.431   0.786  0.0593 -0.1639 -0.0734
79043W        W21955   7.928   8.721   0.724  0.0927 -0.2380 -0.2301
79044W        W21956   7.678   9.662   1.602 -0.0537 -0.0988  0.1017
79045W        W21957  11.108  10.387  31.456  0.0250  0.0624 -0.0841
79046W        W21958   8.527   9.202   1.945  0.1683 -0.0680  0.3340
79047W        W21959   9.407  11.851   3.811 -0.1201  0.5165 -0.1832
79048W        W21960   9.678   9.892   1.932  0.3033 -0.1500 -0.1472
79049W        W21961   8.784   7.931   2.664  0.0366 -0.4158 -0.2736
79050W        W21962   7.602   9.757   0.054 -0.0263  0.0217  0.1895
79051W        W21963   8.528   7.278   0.616  0.4375  0.1066 -0.2573
79052W        W21964   7.198   9.914   0.363  0.2781 -0.1663  0.2473
79053W        W21965  11.626   7.742   0.983  0.3303 -0.0850 -0.1966
79054W        W21966   9.839   6.121   2.193  0.1444 -0.0294  0.0965
79055W        W21967   7.220   7.053   1.893  0.1661 -0.2036  0.2909
79056W        W21968  10.515   8.763   2.713  0.2038  0.1596 -0.1078
79057W        W21969   9.148  10.334   0.548 -0.0736  0.2403  0.2252
79058W        W21970  10.507   8.731   1.371 -0.1606  0.0126 -0.2070
79059W        W21971   8.737  11.348  30.692  0.0254  0.1735 -0.1459
79060W        W21972   8.350   7.745   3.071 -0.5538  0.0776 -0.0238
79061W        W21973   8.262   8.942   3.051  0.0450 -0.0144 -0.2203
79062W        W21974   9.144  10.362   3.208 -0.1645 -0.0854  0.0082
79063W        W21975   9.361  10.300   1.997  0.2739  0.1925 -0.1613
79064W        W21976   8.944   9.103   1.097  0.2164 -0.0876  0.0336
79065W        W21977   7.874   7.097   2.921 -0.0401  0.0785 -0.0796
79066W        W21978  10.194   8.218   0.374  0.0252 -0.2670  0.0102
79067W        W21979   9.479  11.172   1.401  0.0481  0.1171 -0.0651
79068W        W21980   8.545  10.305  31.153 -0.2246  0.0392  0.0128
79069W        W21981   8.247   6.810   1.613 -0.1437 -0.2105 -0.0283
79070W        W21982  10.174  10.171   2.839  0.1457  0.1939  0.2294
79071W        W21983   8.610  10.988   0.975  0.0834 -0.2209  0.2817
79072W        W21984   9.063  10.136   3.715 -0.1704  0.0557 -0.0053
79073W        W21985   7.960  10.793   1.108 -0.0887 -0.0063 -0.2236
79074W        W21986  11.024   7.431   1.700 -0.1913 -0.4924 -0.2678
79075W        W21987   8.090   9.360   3.305 -0.0357  0.0717 -0.5993
79076W        W21988   7.158   9.067   0.384 -0.0865 -0.0499  0.0349
79077W        W21989   8.575   9.041  31.983 -0.4702 -0.2598  0.0148
79078W        W21990  10.168   7.639  31.838 -0.0630  0.0134 -0.0509
79079W        W21991  12.002  10.794  31.512 -0.1144  0.2419  0.1614
79080W        W21992   7.980   7.515   2.090 -0.0367 -0.2725  0.0390
79081W        W21993   8.705   7.880   1.379 -0.1759 -0.0306 -0.2505
79082W        W21994   7.660   9.440   1.041 -0.1930 -0.1710  0.2881
79083W        W21995   9.270   7.371   1.853 -0.0771 -0.1244 -0.0034
79084W        W21996   9.837   7.467  31.297  0.1206  0.1914 -0.1234
79085W        W21997  10.924  11.431   2.820 -0.0652  0.0466  0.1630
79086W        W21998   8.823   9.509   3.628 -0.0181  0.0343 -0.0233
79087W        W21999   8.959   9.829   0.373 -0.2944 -0.0715 -0.2320
79088W        W22000   9.781   7.546   2.791  0.4037  0.0412 -0.2152
79089W        W22001   8.430   8.635   0.771  0.0753 -0.0155 -0.0622
79090W        W22002   8.047   9.742   1.158  0.1624  0.1824  0.2180
79091W        W22003  10.272  11.012   2.235 -0.1313  0.1027  0.1167
79092W        W22004   7.722  10.467  31.139  0.0197  0.0399 -0.0222
79093W        W22005   8.456  10.646   2.134 -0.1119 -0.0366  0.2674
79094W        W22006   8.542   8.939   4.042  0.3763 -0.0237 -0.0233
79095W        W22007  10.307   9.520   1.333  0.3329  0.0691  0.0361
79096W        W22008   8.968   7.394   2.643  0.1950 -0.0446 -0.0290
79097W        W22009   7.968   9.656   0.661  0.2932 -0.0796  0.2081
79098W        W22010  10.425   8.751   0.033  0.1705  0.2002  0.0809
79099W        W22011  10.528   9.111   1.011  0.0044  0.3192  0.0707
79100W        W22012   8.103   7.496   2.734 -0.1946 -0.0351  0.0418
79101W        W22013   8.074  11.111   4.636  0.3919 -0.3259  0.1326
79102W        W22014   8.947   6.552   2.373  0.1276  0.1523  0.2050
79103W        W22015  11.820  11.007   2.521 -0.1140 -0.0465  0.0334
79104W        W22016  10.324   7.434   2.573 -0.4702 -0.0754  0.0795
79105W        W22017   8.787  11.094  31.585 -0.1500 -0.2154  0.0805
79106W        W22018   6.053   9.855   2.193 -0.3325 -0.3013 -0.0994
79107W        W22019  10.079  10.451   0.630 -0.1359 -0.0206 -0.0256
79108W        W22020   9.617   7.039   2.023 -0.1457 -0.2673 -0.0599
79109W        W22021   6.265   8.643   1.953 -0.3411 -0.2142 -0.1743
79110W        W22022   8.552  10.233   1.742 -0.0777 -0.2935  0.0461
79111W        W22023   7.643   9.988   3.074  0.0446 -0.5804  0.2039
79112W        W22024  11.385   9.311  31.960 -0.1754  0.0331  0.0017
79113W        W22025  10.363   9.544   0.354  0.0261  0.1956 -0.3183
79114W        W22026   9.981   8.656   1.260 -0.1367 -0.0865  0.0514
79115W        W22027  10.160   7.727   2.180 -0.0373  0.3236  0.3726
79116W        W22028   9.518   8.043  31.879  0.2054 -0.0186 -0.0829
79117W        W22029  10.797   7.055   3.108 -0.3744  0.2468 -0.1449
79118W        W22030   8.097   8.480   1.268 -0.1277 -0.1768 -0.3303
79119W        W22031  11.323   9.593  31.292 -0.4702 -0.3536 -0.1386
79120W        W22032   7.911   6.543   2.850 -0.0326 -0.1980 -0.0926
79121W        W22033   9.309  11.168   0.961 -0.1082  0.0068  0.2132
79122W        W22034   7.746   9.370   2.943 -0.1344 -0.1943 -0.0067
79123W        W22035  10.277   7.477   0.441 -0.1044 -0.0032  0.2697
79124W        W22036   8.022   8.084   0.785  0.2074 -0.2728 -0.2097
79125W        W22037   7.769   8.994   2.348 -0.0765 -0.1947 -0.2468
79126W        W22038   9.405  10.739   0.559 -0.1033  0.1574 -0.2128
79127W        W22039   8.112  10.379   1.385  0.3220 -0.1839 -0.2270
79128W        W22040  11.255   9.481   1.437 -0.3350 -0.1693  0.2760
79129W        W22041   8.272   8.734   2.116 -0.0174  0.1491 -0.1354
79130W        W22042   9.058   8.834   0.556 -0.1299 -0.2295 -0.1491
79131W        W22043   9.248   9.644  31.306 -0.0437 -0.2037  0.2555
79132W        W22044   9.467   8.126   0.962  0.2717  0.0298  0.2105
79133W        W22045   7.331   6.667   2.847 -0.2124  0.1459 -0.0010
79134W        W22046   9.962   9.307   2.014  0.2258  0.1343 -0.2231
79135W        W22047   8.837   7.473   1.659 -0.0404 -0.1413 -0.0484
79136W        W22048  10.201   7.627   3.039 -0.1266 -0.1462  0.3421
79137W        W22049  10.967   8.884   1.211  0.1101  0.0495  0.0185
79138W        W22050  10.203   7.413   1.672  0.3185 -0.0640  0.1014
79139W        W22051   7.262   8.071   2.982  0.3582 -0.1857 -0.2480
79140W        W22052  11.370  11.091   3.009 -0.2734  0.3908  0.1492
79141W        W22053  10.936   9.023   0.164 -0.2190  0.1969  0.0086
79142W        W22054  11.439   7.292   2.068  0.2015 -0.1705 -0.1102
79143W        W22055  10.788  10.034   0.288 -0.3790  0.0158 -0.1445
79144W        W22056   9.738   7.339   1.602 -0.2434  0.3201  0.4585
79145W        W22057   8.698   7.054   1.444  0.1023 -0.1348  0.0370
79146W        W22058  10.293   9.843   4.089  0.2741  0.0425 -0.2519
79147W        W22059   8.152   9.923   0.263  0.2040  0.2765 -0.2670
79148W        W22060  10.034   9.096   1.451 -0.1988  0.0879  0.1907
79149W        W22061  10.264  10.559  31.890  0.0677 -0.0232 -0.0603
79150W        W22062  10.376   9.044   0.464  0.2401 -0.1910  0.1746
79151W        W22063   8.845   7.016   1.932 -0.0251 -0.0698 -0.0603
79152W        W22064   6.631   7.980   0.888  0.0653  0.0357 -0.2417
79153W        W22065   7.748  10.664   3.069  0.2755  0.0396 -0.0958
79154W        W22066   8.873   8.648  31.290 -0.1287 -0.2102  0.1353
79155W        W22067   8.893  10.658   0.226  0.4739  0.1009  0.0717
79156W        W22068   9.594   9.023   1.361 -0.0310 -0.0803 -0.0484
79157W        W22069   9.442  10.122   2.886 -0.0425 -0.3019  0.0994
79158W        W22070   9.870   7.143   0.258  0.1374  0.4102 -0.0781
79159W        W22071   9.791   8.639   3.098  0.0099  0.0837  0.0544
79160W        W22072   7.337  10.608   1.351 -0.1600 -0.0316 -0.2956
79161W        W22073   9.955   6.725   2.243 -0.0480 -0.0356 -0.1880
79162W        W22074   7.429  10.996   1.741 -0.1675 -0.0929 -0.1782
79163W        W22075   7.125   8.487   3.291  0.0693  0.5696 -0.0695
79164W        W22076   8.576  11.312   1.480 -0.1528 -0.1867  0.1062
79165W        W22077   9.639   6.875   1.453  0.0222  0.1385  0.1333
79166W        W22078  10.892   9.980   0.762 -0.0344 -0.0004  0.0531
79167W        W22079  10.771   9.555   0.086  0.1122 -0.2093  0.0234
79168W        W22080   9.886   8.820   2.152 -0.0063  0.1541  0.0651
79169W        W22081   9.371   9.478   2.100  0.4412  0.3157 -0.1940
79170W        W22082   8.773  10.984   1.838 -0.0778 -0.3364  0.1504
79171W        W22083   9.379   9.955   2.395 -0.0624 -0.0054 -0.1392
79172W        W22084   9.282   9.466   0.224  0.2648  0.0779  0.0561
79173W        W22085   9.007   8.378   1.500  0.0133  0.0755  0.4183
79174W        W22086   7.247   7.655   2.690 -0.1996  0.1305 -0.3159
79175W        W22087  10.244   9.695   2.797  0.1175 -0.1882  0.0881
79176W        W22088  11.222   9.898   1.191 -0.1689 -0.3344  0.1588
79177W        W22089   9.848   6.965   0.796 -0.0072  0.0714 -0.2421
79178W        W22090   8.932  10.951  31.130  0.3833 -0.0214  0.0324
79179W        W22091   8.144  10.142   3.368  0.3063 -0.1410  0.1318
79180W        W22092   8.647   8.781   2.435  0.1181 -0.1917  0.1361
79181W        W22093   7.867  10.120  31.832  0.1474 -0.1640 -0.2152
79182W        W22094   9.762   8.508   0.776  0.3514 -0.1327  0.1807
79183W        W22095   9.312  10.195   1.428 -0.1231  0.1512 -0.1216
79184W        W22096  10.468  11.431   2.525 -0.1838  0.1104 -0.1807
79185W        W22097   9.697   9.876  31.603  0.1941 -0.1620 -0.2619
79186W        W22098   8.140  10.987   2.313 -0.2034 -0.2167 -0.0939
79187W        W22099   7.784   9.427  30.694  0.1469 -0.1016  0.1820
79188W        W22100  10.306  10.144   1.568  0.0677 -0.0759 -0.0257
79189W        W22101   9.399  10.727   1.630 -0.0978 -0.1290 -0.1076
79190W        W22102  10.527  10.096   2.455  0.0915 -0.0787 -0.1840
79191W        W22103  11.582   7.890  31.854  0.1881 -0.2779  0.1583
79192W        W22104  11.469   8.268   1.026  0.3141 -0.2137  0.0424
79193W        W22105  11.083   9.247   0.906 -0.5088  0.0715 -0.1958
79194W        W22106   9.765  10.333   2.493 -0.0314 -0.3306  0.0570
79195W        W22107   9.506   8.166   1.712 -0.1790 -0.0340  0.1112
79196W        W22108   9.560   7.289   1.109 -0.0644  0.0960  0.0967
79197W        W22109   8.570   9.524   3.153  0.1001  0.6645 -0.1483
79198W        W22110  11.312   6.728   3.138  0.0190 -0.0916  0.0582
79199W        W22111   7.274  10.405   3.234  0.2284 -0.1963  0.2889
79200W        W22112   9.650  11.142   0.234 -0.0538  0.1700 -0.1319
79201W        W22113   6.616   8.793  31.912  0.0387 -0.0269  0.3488
79202W        W22114   9.451   9.871   1.089  0.2202 -0.2402  0.0635
79203W        W22115  12.249   8.623   0.582  0.0662 -0.0832 -0.2034
79204W        W22116   8.517  10.622  31.647  0.0279 -0.2240  0.1692
79205W        W22117  11.035   6.837   2.674  0.2353  0.0793 -0.2344
79206W        W22118   8.310  11.448   1.003 -0.0703 -0.0651 -0.1930
79207W        W22119   8.141  10.128   3.888 -0.0168  0.0535  0.5169
79208W        W22120   8.930  10.837   2.333  0.0628  0.1239  0.0079
79209W        W22121   6.572   8.285   2.239  0.0019  0.1002  0.2325
79210W        W22122  11.531   8.038  30.306 -0.2926 -0.1611 -0.3444
79211W        W22123   7.348   9.446   3.366 -0.1126  0.1286  0.2463
79212W        W22124  10.354   8.943   1.866 -0.1066 -0.0470 -0.1860
79213W        W22125   8.921   8.495   0.902  0.2018 -0.1785  0.1205
79214W        W22126  11.051   7.963  31.777 -0.1844 -0.0870  0.1210
79215W        W22127   9.157   8.883   1.497 -0.2482 -0.0651 -0.0290
79216W        W22128   8.396   7.649   2.344 -0.0134  0.0015  0.4262
79217W        W22129   8.509   8.128   0.619 -0.0970 -0.2726  0.2620
79218W        W22130  11.496  10.252   1.951  0.4174  0.2114 -0.1915
79219W        W22131  11.650   8.572  31.230  0.0473 -0.1519  0.1494
79220W        W22132  10.780  10.517   2.359  0.0474 -0.1193 -0.0147
79221W        W22133   7.678   7.649   1.438  0.1558  0.0180 -0.0868
79222W        W22134   9.853   7.068  31.723 -0.0633  0.0571 -0.0347
79223W        W22135   8.202   9.230   0.796  0.1306 -0.0046 -0.1418
79224W        W22136   9.674   7.754   1.257 -0.0899 -0.3037  0.0024
79225W        W22137  10.014  11.077   3.463  0.0519  0.1964 -0.0206
79226W        W22138   6.528   6.670   0.743  0.0901  0.0881 -0.0663
79227W        W22139  10.587  10.238  31.309 -0.0782 -0.2155  0.3932
79228W        W22140   8.879   7.520   2.130 -0.0317  0.1018 -0.0719
79229W        W22141   9.445   9.808   0.574  0.1016  0.3259  0.0415
79230W        W22142  10.405   9.994  30.286 -0.2858 -0.0713  0.2965
79231W        W22143  10.162  10.670   1.656 -0.1216  0.2491 -0.2579
79232W        W22144   8.914   7.694   3.041 -0.0276  0.0319  0.1008
79233W        W22145  11.229  10.982   1.248 -0.0780 -0.0138  0.2139
79234W        W22146  10.129   9.709   2.257 -0.1754  0.0234 -0.2145
79235W        W22147   8.924   7.980   0.910  0.2486  0.1213 -0.2037
79236W        W22148   8.410   7.743   1.803 -0.0924  0.0038 -0.1278
79237W        W22149   7.281  10.814  31.881 -0.1753 -0.0511  0.3120
79238W        W22150   9.833   8.201   1.337  0.0553  0.0665 -0.5996
79239W        W22151  10.074   7.131   1.226 -0.3101  0.1147  0.0936
79240W        W22152   9.000   9.889   0.847 -0.0811 -0.1293 -0.2267
79241W        W22153  11.909   7.515   1.788  0.1591 -0.0033 -0.1853
79242W        W22154   9.807   9.836   2.631  0.0440  0.0803  0.2488
79243W        W22155   8.160  10.876   2.831  0.2768 -0.0732 -0.0596
79244W        W22156   8.468  10.352   0.062  0.1535 -0.1104  0.0477
79245W        W22157   9.098   9.666   3.968 -0.2348  0.2324 -0.0854
79246W        W22158   8.629   9.622   1.579  0.0648 -0.1327 -0.1452
79247W        W22159   9.982  11.436  31.982  0.2507 -0.1629  0.1127
79248W        W22160  11.181   9.682   0.492 -0.0539  0.0175 -0.1605
79249W        W22161   8.062   7.880   1.341  0.1262 -0.1809  0.1647
79250W        W22162  11.669  10.753   1.149 -0.0520  0.2059  0.1726
79251W        W22163   7.641   6.603   0.817  0.0443 -0.1492  0.3351
79252W        W22164  11.268   7.416   0.643  0.1008 -0.3867  0.6366
79253W        W22165   9.433   7.440  31.513  0.1667  0.0643 -0.0705
79254W        W22166   8.881   9.441   2.234  0.1143 -0.0364 -0.0885
79255W        W22167   8.456   9.926  30.193 -0.0941 -0.0362  0.0693
79256W        W22168   7.726  10.632  31.703 -0.1586  0.3083 -0.2873
79257W        W22169   8.203   8.801   1.647 -0.3838  0.3617 -0.1769
79258W        W22170   8.862   7.506   3.682 -0.3369 -0.0069  0.2746
79259W        W22171   7.885   7.977   3.372 -0.0815 -0.1121  0.0862
79260W        W22172   8.051  10.178   0.822 -0.1462 -0.0101  0.0038
79261W        W22173   8.715   8.722   1.726  0.1010 -0.3220 -0.0034
79262W        W22174  11.635  10.438  31.906  0.0652  0.1117  0.1968
79263W        W22175   7.298   7.175   1.189  0.2936 -0.2968 -0.0626
79264W        W22176   8.263   8.167   2.105 -0.1806  0.1239  0.2137
79265W        W22177   9.096   8.301  31.571  0.0589  0.3077  0.1332
79266W        W22178   9.674  10.278   0.418  0.2990 -0.0482 -0.0101
79267W        W22179   8.395   9.195   1.374 -0.1035 -0.3757 -0.1074
79268W        W22180   9.485  11.439   3.418 -0.1671 -0.1985 -0.1364
79269W        W22181   7.795   9.285   0.344  0.4800 -0.1582  0.0409
79270W        W22182   9.313   7.944   2.834 -0.0677  0.4025  0.0239
79271W        W22183   9.823   7.063   3.057 -0.1388 -0.0289 -0.0745
79272W        W22184   6.952   6.788   1.087  0.2354  0.1136 -0.1305
79273W        W22185   9.168   7.145   1.371 -0.2147  0.0128 -0.0748
79274W        W22186   9.808  10.363   1.489 -0.3729  0.2259  0.1382
79275W        W22187  11.623  10.688   2.832  0.2608 -0.0832  0.0870
79276W        W22188   8.844  10.227   2.237 -0.1593  0.0596  0.0787
79277W        W22189   7.798  11.165   3.066  0.0234  0.1050 -0.2457
79278W        W22190   7.049   6.988   3.125 -0.1577 -0.1449  0.1005
79279W        W22191  11.830   7.286   0.442 -0.0813 -0.2149 -0.0676
79280W        W22192  11.199  11.491   3.689  0.1135 -0.0848 -0.0536
79281W        W22193  12.190  10.362  31.159 -0.2462 -0.3068 -0.3647
79282W        W22194  11.494   7.174   1.053  0.3828  0.0457 -0.0090
79283W        W22195  10.105   8.672   0.446  0.3476  0.0615 -0.0146
79284W        W22196   7.927   6.549   4.032  0.1034 -0.1663  0.1903
79285W        W22197   8.560   8.238   1.651  0.2467  0.1780  0.2824
79286W        W22198  10.345   8.116   2.044  0.1944  0.1359 -0.1027
79287W        W22199   7.691   7.154   1.962 -0.1160 -0.0674  0.4055
79288W        W22200  10.809   7.241  31.203 -0.1303  0.0842  0.0067
79289W        W22201   9.943   9.904   0.759 -0.1921 -0.0186 -0.3622
79290W        W22202   8.509   8.303   2.522  0.1018 -0.3184  0.1928
79291W        W22203   9.394   8.514  31.910  0.1756  0.1514 -0.0604
79292W        W22204   9.622   8.622   1.710 -0.3634 -0.3290 -0.2587
79293W        W22205   9.948   9.928   1.251 -0.3377  0.3277 -0.0315
79294W        W22206   9.562   9.106   2.376 -0.1203 -0.2020  0.3283
79295W        W22207   8.261   7.313   1.109  0.1613  0.0800  0.2487
79296W        W22208  12.300   9.074  30.946 -0.5564 -0.0921  0.0388
79297W        W22209  10.389  11.938   2.715 -0.1076 -0.0011 -0.0026
79298W        W22210  11.735  10.554   3.845 -0.0994 -0.1246 -0.0122
79299W        W22211  10.129  10.159   2.066  0.2598  0.0218 -0.2501
79300W        W22212  11.121   8.579   0.367 -0.1458 -0.0834 -0.0643
79301W        W22213   7.806   6.039   3.028 -0.0250  0.3917  0.0691
79302W        W22214   9.912   9.047   0.812  0.2337  0.1830 -0.0044
79303W        W22215  10.829   8.921   0.709  0.0259  0.3587 -0.1351
79304W        W22216  11.101   6.860   0.931  0.4336 -0.0765 -0.2864
79305W        W22217   8.022   9.550  31.793  0.2282  0.1264 -0.1473
79306W        W22218  10.336   8.700   0.872  0.1049 -0.0759  0.3112
79307W        W22219   8.371  11.974   2.614 -0.0799  0.0067 -0.0781
79308W        W22220  10.723   9.565   1.066  0.2278 -0.0846 -0.2143
79309W        W22221   8.534   9.550   6.220  0.5622 -0.1344  0.0297
79310W        W22222   9.188   8.335   4.654 -0.0485  0.1481 -0.0036
79311W        W22223  11.113   9.519   2.393 -0.2205  0.0531  0.0445
79312W        W22224  10.765   9.896   4.343  0.2592  0.2406 -0.2739
79313W        W22225   8.006   8.878   4.303 -0.1024  0.2343 -0.2309
79314W        W22226  10.381  11.919   3.548 -0.0199 -0.3911 -0.0017
79315W        W22227   7.614   7.206   7.567  0.1188 -0.1828  0.1775
79316W        W22228   9.893  10.163   5.727  0.2696 -0.2213 -0.1709
79317W        W22229   8.930  11.039   7.281 -0.1746  0.0362  0.1569
79318W        W22230   9.684   9.584   4.071 -0.0999  0.0005 -0.0145
79319W        W22231   8.862   9.733   5.614 -0.0679  0.2140  0.3146
79320W        W22232   6.610   8.625   5.614  0.3278  0.0123  0.0819
79321W        W22233   8.359   8.291   2.990  0.0217 -0.1369  0.0055
79322W        W22234   7.671   7.541   5.489  0.2675  0.1090  0.2778
79323W        W22235   9.702   8.838   5.323 -0.1421  0.0927 -0.1425
79324W        W22236   7.212  11.092   4.487 -0.3510 -0.1197  0.1376
79325W        W22237   9.111   7.457   7.008  0.4249 -0.0752  0.1276
79326W        W22238   9.004   8.510   3.405 -0.3000 -0.2172  0.0881
79327W        W22239   9.458   8.978   3.989 -0.1598  0.2387 -0.1072
79328W        W22240   8.572   7.888   6.408  0.2004  0.0657 -0.0163
79329W        W22241   9.764   8.012   5.210  0.3117 -0.2256 -0.2189
79330W        W22242   8.302  10.861   3.876  0.0625 -0.2835 -0.0232
79331W        W22243   8.195   8.647   2.665  0.0048  0.1784  0.0663
79332W        W22244   7.574   7.984   3.817  0.0025  0.0122 -0.2675
79333W        W22245   8.283   8.238   6.685 -0.1121 -0.0927 -0.4108
79334W        W22246  10.294   8.171   5.245 -0.3895 -0.0154 -0.0923
79335W        W22247   9.293   8.940   4.907  0.1864  0.0727  0.0605
79336W        W22248   9.418  10.444   4.513  0.0020 -0.2074 -0.3555
79337W        W22249   8.516  10.184   4.553 -0.1526 -0.2280  0.3025
79338W        W22250   8.831   8.307   6.666 -0.1238 -0.1901 -0.4067
79339W        W22251   7.207   9.958   4.560 -0.2654  0.3603  0.0299
79340W        W22252   7.016  11.898   4.976  0.1211  0.1747 -0.5227
79341W        W22253   8.810  10.841   4.007  0.0558  0.2445  0.1736
79342W        W22254  10.753   9.216   5.210 -0.3059 -0.1552 -0.0072
79343W        W22255  11.104   9.285   6.068  0.2601 -0.0089  0.4869
79344W        W22256   8.084  11.835   6.878 -0.2196 -0.0584  0.2178
79345W        W22257   8.250   9.173   2.505 -0.0176  0.0138 -0.1360
79346W        W22258   8.804  10.925   4.886  0.1304 -0.1739 -0.0390
79347W        W22259   7.446  10.700   6.583 -0.0187 -0.2944  0.0337
79348W        W22260   8.720  10.426   5.000 -0.0583 -0.0012  0.1984
79349W        W22261   9.292   8.522   2.905  0.0202  0.0895  0.2409
79350W        W22262   7.308   8.949   3.007 -0.3044 -0.3001  0.1186
79351W        W22263  10.172  10.418   4.091  0.5269 -0.2112  0.3765
79352W        W22264   6.700   8.920   7.019 -0.2362 -0.0264 -0.0011
79353W        W22265   7.452   9.389   6.033 -0.1215 -0.0919 -0.2777
79354W        W22266   9.916   7.015   7.821  0.3170  0.1328  0.4893
79355W        W22267   7.643  11.788   2.866  0.1126  0.2771  0.2028
79356W        W22268   9.437   8.903   3.350  0.1194  0.0681 -0.3875
79357W        W22269   8.338   9.687   3.586 -0.0352 -0.1082 -0.2084
79358W        W22270   9.847   9.361   3.341 -0.0907  0.1045 -0.1937
79359W        W22271  10.179   7.710   5.170 -0.1082  0.0019 -0.3393
79360W        W22272   7.789   9.787   4.669  0.0709  0.0330 -0.1135
79361W        W22273   8.888   8.411   5.548  0.0876 -0.1603  0.0057
79362W        W22274  11.490   9.430   6.366  0.1891 -0.1174 -0.2414
79363W        W22275   9.914  10.582   3.587  0.0849  0.2977 -0.1886
79364W        W22276  10.024   7.872   5.623 -0.1821 -0.0908  0.0821
79365W        W22277   6.050   9.450   6.628  0.0013 -0.1181 -0.2070
79366W        W22278   7.156   8.921   5.813 -0.1726 -0.1512 -0.2199
79367W        W22279  11.700  10.189   3.379 -0.2193  0.3010  0.2750
79368W        W22280  11.740   9.968   5.530 -0.1221 -0.3602  0.1661
79369W        W22281   9.256  11.691   2.334  0.1553 -0.0382 -0.1680
79370W        W22282   8.723   8.942   5.432  0.0246 -0.2042  0.1837
79371W        W22283   5.900   9.493   6.010  0.1186 -0.1910  0.2416
79372W        W22284   7.771   8.946   7.391 -0.0089  0.1797 -0.1808
79373W        W22285   9.808   7.684   3.357 -0.0264 -0.1245 -0.0678
79374W        W22286  10.268   9.630   7.172 -0.1861  0.1333  0.0208
79375W        W22287   7.714   8.926   6.184 -0.2111 -0.1249  0.0813
79376W        W22288  12.386   9.171   5.806 -0.1813  0.0680  0.1369
79377W        W22289   8.987   9.159   4.079  0.1052 -0.0128 -0.0070
79378W        W22290  10.754   9.167   5.778  0.0959 -0.0684  0.0327
79379W        W22291   9.878  10.170   3.794  0.0614 -0.2389 -0.0705
79380W        W22292  10.769   6.594   4.238 -0.2401  0.1852 -0.1529
79381W        W22293  11.515   8.215   4.373 -0.1898  0.0044  0.1214
79382W        W22294   9.029  10.378   2.728 -0.0046  0.1151  0.3428
79383W        W22295   8.061  10.888   3.409  0.0835 -0.3178  0.0659
79384W        W22296  11.367   9.891   7.403  0.3865  0.0038 -0.2385
79385W        W22297  10.312  10.516   3.271 -0.2911  0.1488  0.2539
79386W        W22298   6.645  10.060   6.133 -0.1680 -0.1312  0.0394
79387W        W22299   7.037   7.426   6.641  0.2234  0.1179  0.3641
79388W        W22300   9.232  10.417   6.601 -0.2653 -0.0459  0.0192
79389W        W22301   7.218  10.963   3.849  0.0191 -0.0395  0.1119
79390W        W22302   6.476   8.847   4.086  0.1656  0.2626  0.0447
79391W        W22303   7.162  10.662   4.707 -0.1959  0.2693 -0.0740
79392W        W22304   7.607   7.007   5.726 -0.1366 -0.1103  0.4471
79393W        W22305   8.387   9.735   4.421 -0.1578  0.0596  0.0337
79394W        W22306  10.807   8.671   3.599  0.2030  0.1087 -0.2162
79395W        W22307   7.293   7.855   5.873  0.2474 -0.3642 -0.1684
79396W        W22308  10.757   7.836   3.780  0.2198  0.0017 -0.0442
79397W        W22309   8.453  10.936   4.367 -0.0384 -0.0857  0.0105
79398W        W22310  11.428  10.937   3.544 -0.0606 -0.0406  0.3496
79399W        W22311  11.543   9.640   2.190  0.2883 -0.0306 -0.4757
79400W        W22312  10.941  11.190   3.341 -0.0737  0.1189  0.2394
79401W        W22313   7.597   8.204   6.177  0.2654  0.2278  0.4199
79402W        W22314   7.606   8.970   3.472 -0.2606 -0.2451 -0.2019
79403W        W22315   9.184   7.960   6.889  0.0433  0.0102 -0.0904
79404W        W22316   9.320   8.028   5.474 -0.2775 -0.0759 -0.1496
79405W        W22317  11.246   7.835   6.727 -0.0131  0.1545 -0.1693
79406W        W22318   8.603   6.920   4.920  0.1871  0.0911 -0.0726
79407W        W22319   9.574   8.794   5.838  0.1493 -0.3673  0.0100
79408W        W22320   8.229   9.673   4.910  0.2369 -0.2515 -0.0359
79409W        W22321   7.617   9.005   4.812  0.0524 -0.2901  0.1039
79410W        W22322  10.767   8.075   6.857 -0.0395  0.2438 -0.1479
79411W        W22323   9.089  11.301   3.193 -0.1551  0.0527 -0.0564
79412W        W22324  11.383  11.113   6.512 -0.0159 -0.1985 -0.1593
79413W        W22325  10.875  10.953   3.773  0.1675  0.0998 -0.1299
79414W        W22326   7.890   6.680   6.686  0.2706 -0.2709  0.1541
79415W        W22327   8.226   7.759   4.790  0.1517  0.0736  0.2633
79416W        W22328   7.532  10.740   5.376 -0.0006 -0.1672 -0.0400
79417W        W22329   7.706  10.812   4.631  0.1174  0.0627 -0.0105
79418W        W22330   8.725   7.896   3.431  0.2793 -0.0235 -0.1147
79419W        W22331   9.448  10.050   4.042  0.0328  0.1555  0.0332
79420W        W22332   9.945   9.901   3.165 -0.2735 -0.3913 -0.0203
79421W        W22333   7.760   8.203   5.686 -0.0972 -0.0065 -0.0663
79422W        W22334   9.101   7.769   7.860 -0.0783  0.2551 -0.4379
79423W        W22335   9.774   8.442   6.072  0.0403 -0.0895 -0.0537
79424W        W22336   9.254   8.411   5.884  0.3317  0.0405  0.1605
79425W        W22337   8.030   8.513   3.211 -0.1000  0.0617  0.0903
79426W        W22338  10.593  10.394   5.151  0.1468 -0.1465  0.1078
79427W        W22339   7.718  11.393   3.494 -0.1563  0.3363 -0.0299
79428W        W22340   8.268   7.879   5.974 -0.2043  0.0968  0.0050
79429W        W22341   9.507  10.978   3.718 -0.0050 -0.0398  0.1731
79430W        W22342  10.377   8.158   5.913  0.2901 -0.0398  0.3418
79431W        W22343   6.772   8.733   8.371  0.0648  0.1285 -0.1313
79432W        W22344   9.975   9.234   6.996  0.3037 -0.0484  0.2134
79433W        W22345   8.500   9.137   3.480  0.1514  0.0179 -0.2215
79434W        W22346   6.462   9.177   6.665 -0.0737  0.0177  0.2516
79435W        W22347   9.892   8.769   4.160  0.0812  0.2580  0.1185
79436W        W22348  11.277   8.527   3.219 -0.1636  0.1209  0.1997
79437W        W22349   7.579  10.308   4.606  0.2487  0.1645 -0.1376
79438W        W22350  11.466   9.999   5.097 -0.0629  0.3384 -0.0149
79439W        W22351  10.539   8.293   2.640 -0.3483  0.1581  0.2095
79440W        W22352  10.929   7.928   3.327 -0.1106  0.0839  0.2908
79441W        W22353   8.018   9.501   7.420  0.3123 -0.2864 -0.1389
79442W        W22354   9.816  10.742   4.971 -0.1073 -0.3637 -0.1213
79443W        W22355  10.061   9.758   3.640  0.0813 -0.3073  0.4707
79444W        W22356  10.162   7.952   2.600 -0.1325  0.1315 -0.1010
79445W        W22357  10.684   9.860   3.755 -0.0221  0.0929  0.0636
79446W        W22358   6.928   9.749   5.890 -0.1069  0.0029 -0.3327
79447W        W22359   8.984  10.264   6.137 -0.0507  0.0922 -0.1675
79448W        W22360  10.522   8.991   6.298 -0.4009 -0.0266 -0.1915
79449W        W22361   9.920   7.114   5.244  0.2003  0.2845 -0.0791
79450W        W22362   9.004   9.016   3.605 -0.1939 -0.2192 -0.0979
79451W        W22363   9.262   7.629   5.089 -0.1852 -0.2758  0.2638
79452W        W22364   7.290  11.920   3.861  0.2797 -0.1281  0.2323
79453W        W22365  10.742   7.156   4.992  0.0556  0.0946 -0.0142
79454W        W22366   9.074   7.842   4.609  0.1109  0.2032 -0.0003
79455W        W22367   8.712   7.820   6.910 -0.0484  0.0284 -0.1285
79456W        W22368  12.247   8.741   7.056  0.0860  0.1631  0.0093
79457W        W22369  10.592   9.549   2.424  0.1086  0.1038  0.1381
79458W        W22370  10.000  10.491   5.351 -0.1471 -0.0097 -0.0386
79459W        W22371   7.126  10.347   4.323 -0.1089  0.3578  0.1925
79460W        W22372   9.709   8.249   6.596  0.0590  0.2561 -0.2279
79461W        W22373   7.497   8.796   7.004 -0.0881  0.1697  0.0610
79462W        W22374   7.220  11.501   6.588  0.0728 -0.1194 -0.1388
79463W        W22375   9.397   9.636   5.483 -0.0283  0.0058 -0.0506
79464W        W22376  10.192  10.221   4.965  0.0067 -0.1557 -0.3433
79465W        W22377   7.911   7.397   7.977  0.1052  0.2041 -0.0635
79466W        W22378   9.796   8.098   2.968 -0.2171 -0.2442  0.3995
79467W        W22379   6.839  10.950   4.186  0.1500  0.2037  0.0655
79468W        W22380   7.333   9.516   4.688  0.0515 -0.4492 -0.0129
79469W        W22381  10.011   6.695   5.530 -0.1632  0.0316 -0.0762
79470W        W22382   8.896   9.541   4.512 -0.1645 -0.3454  0.3074
79471W        W22383   9.496  10.632   2.850  0.2027 -0.0332  0.0385
79472W        W22384   8.500  10.500   6.858  0.0965 -0.1213  0.1319
79473W        W22385   7.886  10.935   5.074 -0.1183  0.0521 -0.1522
79474W        W22386   9.505   6.524   6.404 -0.1430 -0.3736  0.2893
79475W        W22387   8.076   9.714   6.066  0.1060 -0.2192 -0.2088
79476W        W22388   9.499   9.057   1.857 -0.1017 -0.0329 -0.0715
79477W        W22389   7.937   9.551   4.213 -0.1441 -0.2516 -0.1469
79478W        W22390  11.086   8.299   3.721  0.1286 -0.2441 -0.0769
79479W        W22391   9.668  10.055   4.884 -0.1155  0.1834 -0.1380
79480W        W22392   9.136   8.090   6.360  0.2118  0.1800 -0.0291
79481W        W22393   9.200   8.780   5.464 -0.2333 -0.1493  0.0504
79482W        W22394   7.895  10.464   6.473  0.1769  0.0931 -0.4259
79483W        W22395   9.054   9.263   5.304  0.2457 -0.0116 -0.0656
79484W        W22396   9.620   7.959   2.474  0.2109 -0.1729  0.0299
79485W        W22397   9.378  11.634   6.144 -0.3231 -0.0852 -0.1644
79486W        W22398   8.524  10.039   6.050 -0.1471 -0.2403  0.0107
79487W        W22399   7.040   6.208   3.667 -0.0128 -0.1640  0.1633
79488W        W22400   9.455   7.434   6.019  0.2638  0.1720  0.1656
79489W        W22401   8.918   8.604   5.078 -0.1601  0.3339 -0.1562
79490W        W22402   7.695  11.135   3.961  0.3121 -0.1614 -0.2571
79491W        W22403   9.939   9.731   5.183 -0.4294  0.0461  0.4205
79492W        W22404   9.400   9.824   4.540 -0.1407 -0.2227  0.3672
79493W        W22405   9.458  10.461   3.622 -0.3723  0.3492 -0.1294
79494W        W22406   8.474   8.114   7.185  0.1888 -0.3329  0.2658
79495W        W22407  10.157   8.516   6.359 -0.1233 -0.1194  0.4601
79496W        W22408   9.399   8.472   5.065 -0.3262 -0.3143  0.3063
79497W        W22409   9.561   8.408   4.011 -0.1835 -0.2937  0.0544
79498W        W22410   9.718   8.441   4.608 -0.0523  0.3109  0.1499
79499W        W22411  10.861   8.984   4.647  0.5834 -0.1125  0.0938
79500W        W22412  10.432   7.622   6.649  0.2311 -0.0454  0.0873
79501W        W22413   6.881  10.458   6.726  0.1228 -0.1557  0.1697
79502W        W22414  10.129   8.073   4.754  0.0538 -0.1217 -0.0735
79503W        W22415  10.300   9.851   4.648  0.1712 -0.1467 -0.0540
79504W        W22416   8.586   8.744   5.889 -0.0919  0.2725 -0.3116
79505W        W22417   8.078  10.638   4.261  0.1832 -0.2295 -0.2155
79506W        W22418   6.625   8.745   5.127 -0.1232 -0.0313  0.1213
79507W        W22419   7.029  10.749   3.004 -0.0323 -0.0996 -0.1483
79508W        W22420   8.963   7.256   5.212  0.2004  0.1380 -0.1818
79509W        W22421   7.636   8.661   5.744 -0.1098  0.0119 -0.0426
79510W        W22422   6.764  11.381   3.340  0.1247  0.3098  0.1881
79511W        W22423   7.135  10.408   5.321  0.2970  0.0253  0.0576
79512W        W22424   9.742   7.990   3.772 -0.1226  0.1126  0.1269
79513W        W22425   9.507   9.883   3.567  0.0699 -0.2092 -0.1450
79514W        W22426   8.757   9.817   4.888 -0.0802 -0.1321  0.0951
79515W        W22427   9.993   8.650   6.793  0.3844 -0.1634 -0.0273
79516W        W22428  10.342   9.406   3.324 -0.0023 -0.0902 -0.1428
79517W        W22429  10.117   7.283   6.859  0.3960 -0.0932  0.0435
79518W        W22430   9.293   7.043   7.093 -0.2471  0.2553 -0.0091
79519W        W22431  10.268   9.317   4.791 -0.0563  0.1669 -0.0832
79520W        W22432   6.019   7.803   6.646  0.3124  0.2658 -0.0743
79521W        W22433   9.103  12.319   7.102 -0.1033  0.0377  0.0839
79522W        W22434   7.728   8.044   6.820 -0.1820 -0.1147 -0.2276
79523W        W22435   9.846   8.683   3.619  0.1603  0.0121 -0.4431
79524W        W22436   8.874   8.179   4.242 -0.2393  0.1291 -0.3176
79525W        W22437   8.538   8.814   4.872  0.0030 -0.1122 -0.3098
79526W        W22438   9.447   9.555   6.004 -0.2519  0.0089 -0.4340
79527W        W22439   7.217  11.362   3.570 -0.4112  0.1045 -0.0909
79528W        W22440  11.552   8.695   4.134 -0.0038  0.1467 -0.0913
79529W        W22441   6.336   7.816   6.103 -0.0208 -0.1010  0.0173
79530W        W22442   9.339   8.766   4.410 -0.1082  0.1255 -0.1579
79531W        W22443   8.532   8.583   3.336 -0.0448  0.2011  0.0808
79532W        W22444   8.066  10.178   4.388  0.2634  0.0049  0.1860
79533W        W22445   9.068   7.329   7.503  0.1332  0.1665 -0.0376
79534W        W22446   9.387   9.299   4.379 -0.3848 -0.3774  0.2701
79535W        W22447  10.248   7.875   3.543  0.0870 -0.0682  0.0908
79536W        W22448   8.936   8.281   7.178 -0.0034  0.0503  0.0269
79537W        W22449   9.653   8.375   5.516 -0.3045  0.1071  0.0097
79538W        W22450   7.849   8.940   6.714  0.1340  0.2684  0.0491
79539W        W22451   8.608   7.475   7.789 -0.3535  0.1654  0.0639
79540W        W22452   8.880  10.801   5.840 -0.2787  0.0713  0.0404
79541W        W22453  12.098   8.558   2.181  0.2767 -0.1200  0.0375
79542W        W22454  10.412   8.897   6.867 -0.1134 -0.0869 -0.0748
79543W        W22455  10.348   8.874   3.786 -0.1755 -0.2272 -0.1136
79544W        W22456   9.112   9.282   3.112 -0.0775 -0.1632 -0.2285
79545W        W22457   7.370   8.498   5.299 -0.0549  0.4245 -0.0894
79546W        W22458   9.006   9.642   7.243  0.0307 -0.0824 -0.2109
79547W        W22459   8.616   7.333   4.080  0.2928 -0.0647  0.0097
79548W        W22460   8.314   7.170   7.007 -0.3504  0.0899  0.0721
79549W        W22461   9.620  11.111   3.088 -0.0048 -0.0509 -0.3224
79550W        W22462  10.470  10.789   4.276  0.2741 -0.1573 -0.1430
79551W        W22463   9.564  10.127   5.394  0.0710  0.0529 -0.0359
79552W        W22464   5.627   8.672   5.551  0.0627 -0.1376  0.0466
79553W        W22465   8.042  10.238   6.965 -0.0757 -0.0887  0.0812
79554W        W22466   7.518   7.103   3.323  0.2756  0.2549  0.1846
79555W        W22467   9.412   9.326   3.600 -0.1593 -0.0101  0.0582
79556W        W22468   9.248   9.904   6.861 -0.2492  0.0495 -0.0479
79557W        W22469  11.287   8.880   7.262  0.0843  0.1309  0.1935
79558W        W22470   9.511   8.321   3.499 -0.1116  0.0339 -0.1663
79559W        W22471   9.648   9.408   6.459  0.4365 -0.3330  0.2045
79560W        W22472   7.704  11.311   4.400 -0.0276 -0.1499 -0.1185
79561W        W22473  10.548   8.274   3.535 -0.0175 -0.0078  0.1862
79562W        W22474   7.913  10.897   6.206 -0.0115  0.0528  0.2213
79563W        W22475   7.931  10.193   6.049 -0.1088 -0.0643  0.2039
79564W        W22476   7.213   9.351   5.599  0.0015 -0.0826  0.2271
79565W        W22477   9.972   8.000   6.193 -0.0720  0.3364  0.1960
79566W        W22478  10.226   8.151   6.797  0.0260  0.0865 -0.0285
79567W        W22479   8.519   9.284   5.751  0.0330 -0.2373  0.1490
79568W        W22480  10.610   8.525   6.563 -0.1604  0.0096 -0.0486
79569W        W22481   9.385  10.795   6.218 -0.0159  0.0665 -0.2151
79570W        W22482   7.792   9.228   5.753 -0.0152 -0.3619  0.0660
79571W        W22483   8.972  10.021   4.319 -0.1486  0.3214 -0.2842
79572W        W22484   9.591   9.219   5.646  0.3014  0.1317  0.0613
79573W        W22485   7.556   9.219   4.332 -0.1617 -0.0883  0.0682
79574W        W22486   6.659   8.406   7.034  0.1636 -0.0912  0.1542
79575W        W22487   9.151   9.395   6.706  0.1955  0.1989 -0.2355
79576W        W22488   9.036  10.089   5.313  0.0938 -0.0590 -0.1153
79577W        W22489   9.882   7.118   4.712  0.1030  0.2812  0.0420
79578W        W22490   8.219  11.347   3.409 -0.1036 -0.2268  0.0714
79579W        W22491   6.489   9.796   6.776  0.2391  0.0074  0.1099
79580W        W22492   7.064   9.025   5.222 -0.2189 -0.2092 -0.3005
79581W        W22493   7.859  11.963   3.715 -0.2254 -0.2452  0.1098
79582W        W22494  10.956   9.410   4.364 -0.2126  0.2510  0.0391
79583W        W22495  10.407   9.917   3.323 -0.1243  0.0070 -0.0692
79584W        W22496   8.624  11.357   3.997  0.3706 -0.1281  0.3030
79585W        W22497   8.992   8.686   4.004 -0.1266 -0.0470  0.2570
79586W        W22498   7.580   9.685   5.539  0.0564  0.1548  0.1424
79587W        W22499   7.530  11.845   3.373  0.4201  0.1592  0.0618
79588W        W22500  10.475  11.004   3.266  0.0457 -0.3476 -0.0631
79589W        W22501   7.392  10.955   3.373  0.2075  0.2725 -0.2393
79590W        W22502  11.178   9.361   7.344  0.2591  0.0358 -0.0969
79591W        W22503  10.592   7.527   3.345 -0.3181 -0.0035 -0.0396
79592W        W22504  12.052   8.590   5.020 -0.0688 -0.2446 -0.1571
79593W        W22505   9.368   8.012   4.229 -0.2541  0.2647  0.2837
79594W        W22506  10.107   9.672   6.494 -0.1829 -0.0550 -0.0407
79595W        W22507   9.964   7.505   6.445  0.0936 -0.1024  0.0808
79596W        W22508   8.082   8.470   6.244 -0.0510 -0.0184  0.0919
79597W        W22509  11.223   6.901   6.192  0.5375 -0.1840 -0.2112
79598W        W22510   6.569  11.875   7.722  0.3916 -0.2820  0.0447
79599W        W22511  11.110  10.775   2.702  0.2588 -0.0698  0.0032
79600W        W22512   8.460   8.430   5.226  0.1518  0.0203 -0.0564
79601W        W22513   8.161   8.870   5.579 -0.1471 -0.3616 -0.4020
79602W        W22514  10.843   7.549   6.907 -0.2377 -0.0615  0.1449
79603W        W22515   8.420  10.555   3.253  0.0832 -0.0880 -0.3492
79604W        W22516   9.553   9.265   5.150 -0.2374 -0.0498  0.1779
79605W        W22517   8.224  10.624   4.764  0.1156 -0.0780 -0.1479
79606W        W22518   7.735  10.433   5.056 -0.2223  0.1889  0.2349
79607W        W22519   8.845  10.611   4.479  0.1364  0.0662  0.0974
79608W        W22520   8.277   8.347   5.736  0.1723  0.0479  0.2204
79609W        W22521  11.557   9.490   4.724  0.2464 -0.2161 -0.2064
79610W        W22522   8.457  10.008   5.286  0.0898  0.0966  0.0283
79611W        W22523  10.370   7.089   5.885  0.1478  0.0986 -0.3546
79612W        W22524   8.858   9.173   4.846 -0.2438 -0.0220 -0.0118
79613W        W22525   9.710   8.965   4.662 -0.3502  0.1225  0.0347
79614W        W22526   9.781   9.838   6.140 -0.1108  0.0228  0.0195
79615W        W22527   8.004   7.985   6.397 -0.3312  0.0935 -0.2085
79616W        W22528  10.593   7.797   1.750  0.0403 -0.2617 -0.1908
79617W        W22529   9.687  10.119   6.685 -0.2596  0.1858  0.0486
79618W        W22530  10.005   8.256   3.433 -0.2813  0.4351  0.3174
79619W        W22531   9.453  10.869   6.736 -0.1148  0.3958 -0.1529
79620W        W22532   8.198   9.117   6.098  0.0263  0.0310  0.0173
79621W        W22533   9.665   9.108   2.879  0.0750 -0.3751  0.1120
79622W        W22534   6.676   9.311   5.525  0.0111 -0.2504  0.1061
79623W        W22535   7.910   9.973   5.312 -0.2200  0.0191 -0.1663
79624W        W22536  11.382  10.851   6.939 -0.1941 -0.3086  0.3852
79625W        W22537   8.920   7.241   6.197  0.2048  0.1362  0.0109
79626W        W22538  10.228  10.534   2.405  0.2380  0.1340 -0.1775
79627W        W22539   9.483   7.916   5.924 -0.0033  0.3241 -0.0510
79628W        W22540   8.679  10.068   3.406 -0.0828  0.1720  0.0546
79629W        W22541   9.272   9.088   6.327 -0.1249 -0.1725 -0.0116
79630W        W22542   9.948  10.375   4.585  0.2527 -0.0321 -0.0630
79631W        W22543   8.523   7.430   5.991  0.1032 -0.1973  0.1055
79632W        W22544  10.908  10.586   4.838 -0.1198 -0.0387  0.2648
79633W        W22545  10.115   8.480   5.611  0.0829 -0.1154  0.1427
79634W        W22546  10.451   8.895   4.423  0.3068 -0.1655  0.1077
79635W        W22547   8.552   8.313   6.173  0.0638  0.2348  0.1510
79636W        W22548   7.635  11.229   5.402 -0.0717  0.2017  0.0336
79637W        W22549  11.704   8.081   5.880  0.0602 -0.0700 -0.1625
79638W        W22550  10.383   6.857   6.940 -0.0492  0.2473  0.0859
79639W        W22551   9.354  10.590   2.417 -0.0616 -0.1508 -0.3291
79640W        W22552   9.566   7.765   8.045  0.1021  0.1003  0.0224
79641W        W22553   9.370   9.953   6.347  0.1486  0.0949 -0.1145
79642W        W22554   7.393   9.277   6.623 -0.4543 -0.2486 -0.2176
79643W        W22555   8.695   9.277   2.728  0.2375 -0.0850 -0.2978
79644W        W22556   8.561   9.371   5.228 -0.1477  0.0844 -0.0294
79645W        W22557   8.572  10.363   4.091  0.0422  0.4452 -0.1947
79646W        W22558   8.921  10.631   3.533  0.2020 -0.2634  0.1962
79647W        W22559  10.277  10.073   5.427 -0.2903  0.1153  0.2818
79648W        W22560   9.951   9.185   3.780 -0.0649 -0.0363  0.0726
79649W        W22561   9.774   9.498   4.763  0.2397  0.1619 -0.0010
79650W        W22562   9.717   7.537   4.974  0.0846 -0.0359  0.2170
79651W        W22563  10.136   6.754   3.407  0.3283 -0.4591 -0.1969
79652W        W22564  10.388   7.980   4.066 -0.2467 -0.0595 -0.0477
79653W        W22565   7.556   8.969   5.324  0.0953  0.3211  0.0920
79654W        W22566   6.186   8.096   3.797  0.0363 -0.1408  0.0650
79655W        W22567   7.714  10.715   3.751  0.0786  0.1793 -0.1386
79656W        W22568   6.005   8.449   6.140  0.2652 -0.0537 -0.0501
79657W        W22569   8.698   5.914   7.999 -0.2236 -0.2499 -0.0467
79658W        W22570   7.805   7.587   7.240  0.3606 -0.0300  0.1718
79659W        W22571   7.610   8.470   4.811  0.4244  0.0385 -0.0834
79660W        W22572   8.695   8.164   4.722 -0.1651  0.1958  0.0157
79661W        W22573  11.441   9.571   4.204 -0.0718  0.0831  0.0577
79662W        W22574   8.345   6.680   6.985  0.0761 -0.3287  0.1086
79663W        W22575   8.143   7.690   5.393 -0.0930  0.0598 -0.1427
79664W        W22576  10.392  10.265   3.659 -0.2777 -0.2142 -0.4787
79665W        W22577  10.724   9.694   5.595  0.0374 -0.2028 -0.3410
79666W        W22578   9.618   8.490   2.528 -0.0042 -0.0280 -0.1106
79667W        W22579  11.790   9.137   7.309 -0.0727 -0.0568  0.4247
79668W        W22580   6.457  11.224   3.672 -0.1948  0.2067 -0.0265
79669W        W22581   8.695   9.114   6.363  0.2628 -0.0303 -0.0217
79670W        W22582   9.907   6.189   8.779 -0.1349  0.0982 -0.2806
79671W        W22583   8.527  10.145   2.896 -0.0752 -0.1044 -0.0984
79672W        W22584   8.915   8.652   6.219  0.0874  0.1983  0.1935
79673W        W22585   9.111  10.460   4.046  0.2488 -0.3832  0.0655
79674W        W22586   9.759  10.893   2.517  0.0652  0.0182 -0.1049
79675W        W22587   9.906  10.653   5.872  0.0932 -0.2117 -0.0338
79676W        W22588   7.632  10.199   7.841 -0.4395  0.0501 -0.0896
79677W        W22589   7.875   7.049   6.245 -0.0551  0.2901  0.1694
79678W        W22590   9.863   9.653   5.689 -0.1639  0.0142 -0.1585
79679W        W22591   7.760   9.280   7.807 -0.1758  0.1236 -0.1153
79680W        W22592  10.452   9.439   4.361  0.1041 -0.0086 -0.0526
79681W        W22593  10.686   7.564   4.311 -0.1431 -0.1617  0.1482
79682W        W22594  10.899   9.027   3.145  0.0857  0.0885 -0.5162
79683W        W22595   7.358   6.696   6.540 -0.1450  0.0367 -0.0345
79684W        W22596   8.146   9.529   5.450  0.0439 -0.1543 -0.0873
79685W        W22597  10.033   9.243   5.287  0.3469  0.0385  0.1630
79686W        W22598   8.697   7.717   4.998 -0.1910 -0.0019  0.2081
79687W        W22599  10.255   8.448   4.426 -0.0052  0.2386 -0.2309
79688W        W22600  10.378  10.758   3.731  0.4200 -0.2726  0.4150
79689W        W22601   8.529   7.522   7.325  0.1655  0.1176  0.0704
79690W        W22602   9.153   8.981   2.636 -0.0766  0.1389  0.0589
79691W        W22603   8.366  10.461   6.319 -0.2132  0.0733 -0.0565
79692W        W22604   9.453  10.528   5.791  0.1563 -0.0387  0.0238
79693W        W22605   9.522   8.902   6.768  0.1086 -0.2834  0.1602
79694W        W22606   8.593   9.868   3.963 -0.0675 -0.4786  0.0796
79695W        W22607  10.809   9.237   3.592 -0.2301 -0.5477  0.0434
79696W        W22608   9.006  11.122   5.370  0.3182  0.0178 -0.0545
79697W        W22609  10.842  10.755   5.963 -0.0856  0.5189  0.3242
79698W        W22610   8.636  10.777   5.393 -0.1387  0.0764 -0.0748
79699W        W22611  11.179   8.231   5.558 -0.0331  0.1525 -0.0310
79700W        W22612   8.079   6.697   5.571  0.1033 -0.1081 -0.2991
79701W        W22613   8.532   9.255   4.510  0.0359  0.2459  0.1744
79702W        W22614   9.204   9.572   4.898  0.5097 -0.0355 -0.0169
79703W        W22615  10.026   8.956   5.799 -0.3055  0.0228 -0.0273
79704W        W22616  10.079   8.495   2.621 -0.2297  0.1445  0.0702
79705W        W22617  11.088   8.510   4.400 -0.0028 -0.0210  0.0171
79706W        W22618   8.887  11.733   5.881  0.2729  0.2381 -0.1855
79707W        W22619   8.439   9.388   3.998  0.3087 -0.0334  0.4265
79708W        W22620   6.419  10.202   8.914  0.0178  0.0828  0.0043
79709W        W22621   8.625   8.696   7.498 -0.2632 -0.3197 -0.1735
79710W        W22622   9.877   7.778   6.894  0.0577 -0.0121  0.0696
79711W        W22623  11.004   8.794   8.511  0.1756 -0.2590  0.1689
79712W        W22624   7.495   6.447   7.904 -0.2227 -0.0021  0.0946
79713W        W22625   9.949  10.066   7.753  0.3270 -0.2466  0.1399
79714W        W22626  10.894   9.716   9.807 -0.0842 -0.0853 -0.1346
79715W        W22627  10.721  12.179   9.866 -0.2289 -0.1774  0.0967
79716W        W22628  10.572   9.885   6.435  0.0119 -0.1773  0.1830
79717W        W22629   9.018   8.190   9.683 -0.1345  0.0765 -0.2697
79718W        W22630   7.296   6.899   7.918 -0.2621 -0.4599  0.1704
79719W        W22631   7.144   7.056   9.632  0.0468 -0.1358 -0.1168
79720W        W22632   8.530   8.396   9.836 -0.0552 -0.0871 -0.0681
79721W        W22633   7.245   9.498   7.966  0.2759  0.1704 -0.1231
79722W        W22634   8.378   8.427   8.937 -0.0685 -0.1044 -0.1249
79723W        W22635   9.550   8.795   7.256  0.1830 -0.2661  0.3928
79724W        W22636   8.007  11.239   9.820 -0.1588  0.1154 -0.2670
79725W        W22637   8.370   9.978   9.287 -0.2213  0.0329 -0.2023
79726W        W22638   7.565   9.736   7.548  0.0106 -0.1003  0.1260
79727W        W22639   7.342   8.274   7.119  0.2344  0.0702 -0.1172
79728W        W22640   7.168   7.321  10.071 -0.4058  0.0538 -0.0181
79729W        W22641   9.327   9.411   8.566  0.0026  0.2801  0.0608
79730W        W22642  10.357   7.630   9.672  0.1849  0.0559 -0.4494
79731W        W22643  10.955  10.281   9.780 -0.1820 -0.0290  0.0214
79732W        W22644   8.697   9.275   9.099 -0.0980  0.0797  0.0781
79733W        W22645   9.668  10.386   8.507  0.0926 -0.0948  0.0965
79734W        W22646   8.212   9.112   7.133 -0.2393  0.2271  0.2382
79735W        W22647   7.214  11.275   7.300 -0.0346  0.0977 -0.0649
79736W        W22648   8.699  11.239   6.499 -0.1254 -0.3573  0.0740
79737W        W22649  10.176  10.155   6.765 -0.3735 -0.0331 -0.1994
79738W        W22650   6.805   8.946   7.882 -0.3089  0.0799  0.2088
79739W        W22651   9.016   8.758   9.736 -0.0130 -0.1181  0.0028
79740W        W22652   8.566   8.641   7.037  0.0955  0.1241 -0.1217
79741W        W22653   8.138   9.634   6.902  0.1017 -0.0071 -0.1770
79742W        W22654   8.473   9.913   8.721  0.2732 -0.0464 -0.2745
79743W        W22655   8.181   8.795   8.276 -0.0457 -0.0873 -0.2432
79744W        W22656   6.864   9.969   7.075 -0.2072 -0.0767 -0.0771
79745W        W22657   9.360   8.576   6.429 -0.2497 -0.1516 -0.1936
79746W        W22658   8.465   8.501   7.941  0.2076  0.0888 -0.1723
79747W        W22659   9.477   8.692   7.862 -0.2602  0.0821 -0.0065
79748W        W22660   8.178   9.017   9.273  0.0675 -0.0957 -0.1936
79749W        W22661   7.645  10.331   9.887  0.1303 -0.1174  0.1387
79750W        W22662   8.354   7.411   9.174 -0.1181  0.1287  0.2917
79751W        W22663   9.000   9.716   6.097  0.0431  0.1790 -0.0923
79752W        W22664   8.211   8.952   9.775 -0.3090 -0.0889 -0.0822
79753W        W22665   7.336   9.493   9.392 -0.0626 -0.0309  0.2628
79754W        W22666   8.234  10.384   9.888 -0.1807  0.1056  0.0118
79755W        W22667  10.303   9.715   8.228  0.1893 -0.1914  0.0829
79756W        W22668  10.571  10.088   8.527  0.4179  0.0842 -0.0923
79757W        W22669   9.779   9.723   7.364  0.2526  0.1754 -0.1954
79758W        W22670   7.349   8.343   8.509 -0.0566 -0.0829  0.1426
79759W        W22671   7.711   8.476   6.574 -0.0377 -0.1025  0.1926
79760W        W22672   9.834   7.923   7.581  0.0963  0.2709  0.1817
79761W        W22673  10.084  10.705   9.591  0.0844 -0.0935 -0.1681
79762W        W22674   9.501  10.750  10.227 -0.3521  0.2031  0.0516
79763W        W22675   9.736   8.918   6.310  0.1081 -0.0392 -0.4594
79764W        W22676   7.713   7.774   7.735 -0.2493  0.2264 -0.2492
79765W        W22677   9.559   8.321   9.727 -0.2954  0.2336 -0.0295
79766W        W22678   7.328  10.101   7.315 -0.2254 -0.1819 -0.1154
79767W        W22679   8.190   9.052   7.643 -0.0292 -0.0885  0.0917
79768W        W22680  11.019   9.553   7.944  0.1341 -0.2563 -0.1318
79769W        W22681   9.202   8.587   8.438  0.0402  0.0184  0.4231
79770W        W22682   8.683  10.683   8.653 -0.0102 -0.2269  0.0682
79771W        W22683   6.378  10.520   7.261 -0.1341  0.2749 -0.1934
79772W        W22684   7.165   9.626   7.337 -0.0673 -0.2005  0.1034
79773W        W22685   8.208   6.210   9.585  0.4110  0.3838 -0.1303
79774W        W22686   7.154   8.747   8.711  0.3430  0.0538 -0.2210
79775W        W22687   9.544   7.082   8.560 -0.1853  0.3071 -0.1609
79776W        W22688  10.175   7.560   8.384  0.1168 -0.2778  0.0026
79777W        W22689   8.518   9.362   8.578 -0.1760  0.1191 -0.1347
79778W        W22690  10.327  10.317   8.058 -0.0088  0.1578  0.1424
79779W        W22691   9.356   9.310   7.173  0.3925  0.0424  0.3857
79780W        W22692   8.477   8.669   6.442 -0.3340 -0.0012  0.0701
79781W        W22693   8.661  10.255   9.581 -0.1431  0.1247  0.1230
79782W        W22694   8.369   7.889   8.626  0.2912 -0.4492  0.2130
79783W        W22695   6.468   8.160   9.093 -0.1608  0.1500  0.2586
79784W        W22696   7.023   6.539   7.719  0.2424 -0.1201  0.3601
79785W        W22697   9.088   7.878   9.293  0.2530 -0.2901  0.1478
79786W        W22698   8.139   9.370   8.212  0.4315 -0.2048 -0.1464
79787W        W22699   6.425   8.832   8.710  0.0681  0.1644 -0.0631
79788W        W22700   8.918  10.290   7.054 -0.1823  0.3820  0.1250
79789W        W22701  10.442  11.511   8.598 -0.1976 -0.4285 -0.1055
79790W        W22702   9.418  10.049   7.898  0.1602 -0.0434  0.2689
79791W        W22703  10.054   5.869   9.743 -0.0336 -0.1503 -0.1196
79792W        W22704   8.672   8.116   7.657  0.0297  0.1099  0.1190
79793W        W22705   7.994   9.765   7.971 -0.3881 -0.2464 -0.0828
79794W        W22706   9.463  10.410   9.815  0.1035  0.0251  0.2445
79795W        W22707   8.094   8.189   7.958  0.0647 -0.2533  0.0331
79796W        W22708  12.236  10.877   9.957 -0.2033 -0.0073 -0.1013
79797W        W22709   9.898   9.492   8.364  0.4323  0.0128  0.2863
79798W        W22710   8.849   8.536   8.782 -0.0911 -0.0304 -0.0331
79799W        W22711   9.972   8.078   8.069 -0.0539 -0.0131 -0.0191
79800W        W22712   6.813   7.827   5.825  0.2144  0.1267 -0.3423
79801W        W22713  10.055  10.047   8.732  0.1746  0.0099 -0.2746
79802W        W22714   7.283   9.778   6.779 -0.4473  0.0590  0.1202
79803W        W22715   7.313   7.958   9.209  0.0358 -0.1694  0.0002
79804W        W22716   9.346  11.416   7.416  0.1997 -0.2880  0.2511
79805W        W22717   9.047   7.111   8.601 -0.2596 -0.2019  0.2081
79806W        W22718   7.358   8.626   8.046 -0.0709  0.1482 -0.1250
79807W        W22719   8.880   9.293   8.178 -0.0056 -0.4160 -0.1377
79808W        W22720   9.196   7.234   8.142 -0.1449  0.0478  0.0759
79809W        W22721  10.886   9.118   6.686  0.3863  0.0923  0.0497
79810W        W22722   9.155   8.561   7.519 -0.2777 -0.1974  0.1397
79811W        W22723   9.576   5.955   7.763  0.2285  0.1561 -0.3240
79812W        W22724  10.127   9.278  11.715 -0.0181  0.0938  0.0701
79813W        W22725   8.343  10.104  10.340  0.1183  0.0443  0.0940
79814W        W22726   8.776  10.163   6.558  0.0806  0.0632 -0.1083
79815W        W22727  10.934  10.389   9.233  0.1726  0.1083  0.0558
79816W        W22728   6.800   9.771   9.317  0.0077 -0.0114 -0.1686
79817W        W22729   9.009   9.955   8.744 -0.0855 -0.1456  0.2183
79818W        W22730   9.182   4.111   9.479  0.0851  0.0679 -0.1141
79819W        W22731   7.862   9.335   6.420 -0.2553  0.1977 -0.1961
79820W        W22732   7.438   6.212   9.162 -0.2860  0.2269  0.2269
79821W        W22733   7.707  11.141   7.229  0.0822  0.1194 -0.0379
79822W        W22734   9.737   7.920   8.510  0.0040 -0.2274  0.2988
79823W        W22735   6.451  10.281  10.363  0.0714  0.2278  0.3044
79824W        W22736   8.956   7.821   7.319  0.2437 -0.0690 -0.1629
79825W        W22737   9.513   8.869   8.674  0.1615 -0.1370 -0.1120
79826W        W22738   7.305   9.048   7.781 -0.0952 -0.2634 -0.2217
79827W        W22739   9.753   8.841   9.152  0.0359  0.1936 -0.1400
79828W        W22740   7.920   9.932   9.922  0.0979 -0.1627  0.0094
79829W        W22741   8.980   9.777   8.304  0.0847  0.2289 -0.4428
79830W        W22742   9.097   7.472   8.994 -0.1255 -0.0315 -0.1592
79831W        W22743   7.527  10.243   6.868 -0.1370  0.0736  0.1040
79832W        W22744   9.044  11.215   7.724  0.0498 -0.0979  0.1660
79833W        W22745   8.556   7.109   9.552  0.3807 -0.1360 -0.0946
79834W        W22746   8.468   9.996   7.842 -0.0003 -0.1014 -0.3387
79835W        W22747   7.722   9.854   7.064 -0.2664 -0.2221 -0.1877
79836W        W22748  11.084   9.371   9.467  0.0765 -0.0695  0.0492
79837W        W22749   7.259  10.071   8.298  0.1807 -0.1841 -0.0338
79838W        W22750   9.263   8.272   8.941  0.2815  0.1169  0.0757
79839W        W22751   7.534   9.952   9.546 -0.0695  0.0950  0.1729
79840W        W22752   9.318   9.032   9.115 -0.0984  0.0655 -0.2951
79841W        W22753   7.164   9.086   8.328 -0.0117 -0.1915  0.0267
79842W        W22754   8.946   9.066   8.665 -0.2026 -0.0841  0.1924
79843W        W22755  10.177   9.214   7.979 -0.0955  0.4773 -0.1069
79844W        W22756   7.788   7.602   9.286  0.2039 -0.1922  0.1102
79845W        W22757   7.848   9.575  10.350  0.2476  0.0084 -0.1108
79846W        W22758   7.691  10.163   8.430  0.2250  0.1275 -0.1674
79847W        W22759  10.413   7.811   7.099  0.1226  0.0781  0.4589
79848W        W22760   7.067   8.157   7.680  0.1493  0.2966  0.0151
79849W        W22761  10.403   8.837   8.217  0.1187  0.1280  0.0703
79850W        W22762   7.703   8.965   8.143 -0.3242 -0.1465 -0.0736
79851W        W22763   7.616   9.613   8.781  0.0293 -0.0495 -0.0418
79852W        W22764   8.658   8.299   9.284 -0.1589  0.2071 -0.2110
79853W        W22765   7.868   8.451   7.034 -0.1648 -0.1892 -0.1243
79854W        W22766   6.775   9.468   7.875 -0.0696  0.4662  0.1174
79855W        W22767  11.874  10.533   9.445 -0.1059  0.0385  0.1535
79856W        W22768   9.245   7.727   9.776 -0.0287 -0.0666 -0.0055
79857W        W22769   8.249   7.328   8.347  0.1645  0.2451 -0.3040
79858W        W22770   8.699   9.191   7.496 -0.1696 -0.0187  0.1574
79859W        W22771  10.795   9.129   8.192 -0.2647  0.0841  0.3315
79860W        W22772   9.270   7.556   8.505 -0.0948 -0.5016 -0.1266
79861W        W22773   8.317   5.733   9.697  0.1941 -0.1477  0.0395
79862W        W22774  11.828  10.250   7.795  0.1581  0.2269  0.2940
79863W        W22775   7.116   8.828   6.683  0.0135 -0.0701  0.1773
79864W        W22776   6.783   8.836  10.159 -0.0447 -0.4560  0.0315
79865W        W22777   7.099   8.637   7.383 -0.0188  0.1788  0.2666
79866W        W22778   8.173   8.471   9.398 -0.2302 -0.2027 -0.1901
79867W        W22779   9.605   9.724   9.826 -0.1654  0.0365 -0.1028
79868W        W22780   7.299   9.143   7.260  0.0751  0.1460 -0.0508
79869W        W22781   7.971  10.170   9.447  0.3895  0.3546  0.2064
79870W        W22782   9.557   7.591   7.193  0.0314 -0.0502  0.1134
79871W        W22783   9.092  11.271   6.774  0.0985  0.0792 -0.1618
79872W        W22784   9.329   9.057   8.208  0.1594 -0.1060 -0.1829
79873W        W22785   8.694   9.184   6.972  0.0209  0.2222  0.1947
79874W        W22786   7.944   8.670   8.983 -0.0353  0.1577  0.0604
79875W        W22787  10.807   9.699   8.394  0.0907  0.3111 -0.1894
79876W        W22788   9.777   8.413   8.829  0.1647 -0.0151  0.0963
79877W        W22789   6.692   7.742   8.268  0.0026 -0.1085  0.1294
79878W        W22790   6.891   9.286   9.480  0.0583  0.0255 -0.1636
79879W        W22791  10.539  10.047   9.516 -0.2650 -0.1844 -0.1559
79880W        W22792   8.521   9.691   8.238  0.3172  0.5414 -0.0733
79881W        W22793   9.763   7.284   9.620  0.1415  0.1077 -0.0649
79882W        W22794   9.482   8.956   9.589 -0.3093  0.1090 -0.1345
79883W        W22795   8.881   9.607   7.793 -0.1265  0.1323 -0.2193
79884W        W22796   9.397   8.069   7.292 -0.2009  0.1973 -0.2615
79885W        W22797   7.069   9.996   7.716 -0.1057 -0.4178  0.0821
79886W        W22798   9.161  10.101   9.224 -0.0049  0.2903  0.0502
79887W        W22799   8.610   7.424   8.704  0.3014  0.1496 -0.1646
79888W        W22800  12.262  11.823   9.726  0.1965 -0.1938 -0.0710
79889W        W22801   8.276   7.731   8.063 -0.3514 -0.1930  0.0323
79890W        W22802  10.562   8.504   9.453  0.4386 -0.2723  0.2613
79891W        W22803  11.114   8.121   8.021 -0.4897 -0.2216 -0.1692
79892W        W22804   9.117   9.057   5.865 -0.0532  0.0410 -0.0844
79893W        W22805  10.078   8.843   9.529 -0.1399 -0.1366  0.0903
79894W        W22806   8.059   6.430   8.124 -0.1951  0.0741  0.0003
79895W        W22807   7.772  11.185   6.612 -0.0378 -0.1803  0.0357
79896W        W22808   9.823   9.605   7.868 -0.2112  0.0551 -0.2824
79897W        W22809   8.894   8.854   7.885 -0.0657 -0.1568 -0.0684
79898W        W22810   6.112   8.410   8.760  0.1681 -0.3108 -0.1422
79899W        W22811   8.184   7.832   7.501 -0.1019  0.1526  0.0788
79900W        W22812   8.240  10.239   5.668  0.1349  0.0399  0.4161
79901W        W22813  10.035   8.812   8.613  0.3568 -0.2354  0.0657
79902W        W22814   9.044   5.801   8.493 -0.1522 -0.1409 -0.0701
79903W        W22815   6.066   8.996   9.053  0.6116 -0.1461  0.0257
79904W        W22816   8.761   6.620   8.760  0.3011 -0.1598 -0.0165
79905W        W22817   7.348  10.437   9.388 -0.2848  0.2107  0.0521
79906W        W22818   8.239   9.534   9.045 -0.2935  0.0045  0.1636
79907W        W22819   9.411   6.438   9.519  0.1114  0.0218  0.1990
79908W        W22820  10.525   8.874   8.712  0.2171  0.1643 -0.0834
79909W        W22821   9.699   8.487   8.279 -0.0914 -0.1353  0.3341
79910W        W22822   7.156   9.076   9.870  0.0137 -0.0822  0.3223
79911W        W22823   9.758   9.062   7.600 -0.0911 -0.4025 -0.2189
79912W        W22824   8.003   9.219   8.788 -0.3053 -0.5065 -0.0926
79913W        W22825   8.257  10.810   6.579 -0.0851  0.0699  0.2808
79914W        W22826   8.522   5.910   9.278  0.1704  0.0995  0.1041
79915W        W22827  10.023  10.141   7.286  0.3012 -0.1185 -0.0833
79916W        W22828   7.512   8.144   9.714  0.1419 -0.1684 -0.0763
79917W        W22829   7.732  10.450   7.311 -0.0195  0.0623  0.0934
79918W        W22830   8.377   9.525   7.764  0.2306 -0.1860 -0.0713
79919W        W22831  10.219   9.217   7.482 -0.0204  0.0131 -0.3863
79920W        W22832  11.966  10.041   9.556 -0.1709 -0.0863 -0.0883
79921W        W22833   8.285   9.224   6.677  0.0209  0.4999 -0.0901
79922W        W22834   9.138  10.022   9.721 -0.1699  0.2590 -0.1359
79923W        W22835   6.089   9.854   7.027 -0.0833 -0.1467 -0.0186
79924W        W22836   8.624  10.263   8.360 -0.0847 -0.1284  0.2430
79925W        W22837   8.415   8.919   8.794 -0.0798 -0.0184  0.2625
79926W        W22838   9.863   8.282   7.238 -0.2860  0.1947  0.2078
79927W        W22839   9.907   7.624   8.864  0.1669  0.0610 -0.0813
79928W        W22840   9.057   8.382   7.985 -0.0989  0.1096 -0.0695
79929W        W22841   9.132   9.487   9.018 -0.4287  0.5240  0.0405
79930W        W22842   8.459   6.798   7.452 -0.2535 -0.1386  0.0234
79931W        W22843  11.044  11.203   7.029  0.1762  0.1815  0.2406
79932W        W22844   8.270   8.311   8.428  0.3344 -0.0454 -0.0582
79933W        W22845   8.478   9.061   8.016 -0.1729 -0.0450  0.1291
79934W        W22846  12.443   8.611   9.798  0.0105  0.0625 -0.2035
79935W        W22847   8.937   8.843   6.663  0.2336 -0.2239  0.0598
79936W        W22848  10.080   8.514  10.000  0.0507 -0.1643  0.0594
79937W        W22849   8.830  10.036   7.477  0.3146 -0.1617  0.2651
79938W        W22850   8.884  10.526   9.984  0.0071 -0.1421  0.0871
79939W        W22851   8.418   9.459   9.566 -0.1236  0.0320  0.2302
79940W        W22852   6.790   7.356   9.082  0.1195 -0.2044 -0.0995
79941W        W22853   9.247   9.066   7.610  0.0169  0.0046  0.0489
79942W        W22854   8.009   7.556   8.818  0.0339  0.1293 -0.0549
79943W        W22855   8.490  10.006   6.985  0.0668 -0.3184 -0.0763
79944W        W22856   8.672   8.062   8.246  0.0554  0.0474  0.1123
79945W        W22857  10.591   9.548   9.273  0.1183  0.0513 -0.2473
79946W        W22858   5.358  11.390  10.294 -0.0769  0.1757 -0.0939
79947W        W22859   8.003   9.751   8.557 -0.3171 -0.2616 -0.0649
79948W        W22860   8.875  10.755   6.351 -0.0524  0.1576 -0.1061
79949W        W22861   7.512   8.059   8.059  0.3452 -0.1656 -0.1768
79950W        W22862   8.690   7.136   8.224  0.0770 -0.0930 -0.2182
79951W        W22863   7.948   8.220   8.797  0.0574  0.0140 -0.1079
79952W        W22864   7.969  10.703   9.541  0.3839 -0.1187  0.0305
79953W        W22865   6.653   7.712   8.807  0.1406 -0.1136  0.3602
79954W        W22866  11.259  10.348   6.955  0.1792 -0.0337 -0.5318
79955W        W22867   8.146   8.040   9.702  0.2904 -0.1354 -0.1434
79956W        W22868   7.769   9.886   6.559  0.3656 -0.2045 -0.5323
79957W        W22869   9.310   8.463   6.954 -0.3677 -0.0524 -0.2198
79958W        W22870  10.661   9.379   7.601  0.0031 -0.4495 -0.3417
79959W        W22871   6.069   5.654  10.049 -0.0524 -0.1136  0.2411
79960W        W22872  11.273  10.583   9.579  0.2742  0.0926 -0.1208
79961W        W22873  10.090   9.725   9.159 -0.2601 -0.0396 -0.4513
79962W        W22874   9.498   8.190   7.871  0.0223 -0.2654 -0.0163
79963W        W22875   7.407   7.453   8.848 -0.0725 -0.1597  0.1844
79964W        W22876   8.724  10.223   9.044  0.2357 -0.1422 -0.0331
79965W        W22877  10.151   9.722   9.643 -0.2677  0.1999  0.3459
79966W        W22878   9.648  11.347   6.932  0.3204 -0.0493 -0.2400
79967W        W22879   8.939   9.235   9.654 -0.1132 -0.1248 -0.1839
79968W        W22880   6.650   8.605   7.590 -0.2009  0.1532 -0.2673
79969W        W22881   8.074   9.994   7.498  0.1203  0.2174  0.1261
79970W        W22882   8.486  10.548   7.364  0.4197 -0.1978  0.2028
79971W        W22883  10.701   9.332   8.824 -0.3755  0.2008  0.0704
79972W        W22884   8.204   8.436   7.458 -0.0042 -0.0104 -0.2193
79973W        W22885   9.969   8.583   7.814 -0.2605 -0.0341 -0.0418
79974W        W22886   8.871   7.857   8.662 -0.0057 -0.1106  0.1905
79975W        W22887   9.291   8.066   8.375 -0.3197  0.1511 -0.0439
79976W        W22888   8.457   6.976   8.653  0.0578 -0.1568  0.0930
79977W        W22889   5.799  10.744   9.872  0.0479 -0.0776 -0.3357
79978W        W22890   6.122   8.667   7.756  0.1125 -0.4722  0.0088
79979W        W22891   5.814   8.876   6.812  0.0001  0.1113  0.0523
79980W        W22892   9.619  10.228   8.932  0.2986  0.1897  0.0778
79981W        W22893   7.687   9.138   9.380 -0.1832  0.2335 -0.2592
79982W        W22894   7.805   8.429   8.274  0.2612  0.2028 -0.2510
79983W        W22895   8.957  10.160   7.970 -0.1341 -0.1682 -0.4994
79984W        W22896   7.788   8.150   9.244 -0.2306  0.1195 -0.0626
79985W        W22897   7.668   6.658   9.004 -0.0518  0.1279 -0.1944
79986W        W22898  10.841   9.510   7.065  0.5201  0.1603  0.1433
79987W        W22899  11.649   9.633   7.033  0.0194 -0.2379 -0.0289
79988W        W22900   7.974   8.657   7.811 -0.1268  0.1546 -0.4953
79989W        W22901   7.735   9.322   7.021  0.3351  0.4218  0.3802
79990W        W22902   6.850   8.430   6.537 -0.1317  0.1577  0.0818
79991W        W22903   8.605   8.814   9.390 -0.2823  0.3062 -0.1275
79992W        W22904   9.396   9.554   7.620 -0.3216 -0.1927  0.0617
79993W        W22905   9.295  10.598   8.007  0.2240  0.2745 -0.0458
79994W        W22906   8.777   5.522   8.949 -0.3149  0.1785  0.0859
79995W        W22907   9.902  10.010   8.247  0.0723 -0.1289  0.0745
79996W        W22908   8.751   9.662   6.743  0.1572 -0.1250  0.2573
79997W        W22909  10.006   7.021   8.542 -0.1733  0.0691  0.1864
79998W        W22910   9.020   8.890   7.202 -0.1154 -0.1366  0.3915
79999W        W22911  10.226   8.627   9.061 -0.2274 -0.1536  0.0461
80000W        W22912   7.972   7.074   8.758  0.0477  0.0852  0.0082
80001W        W22913   8.461   6.696   8.228  0.0240 -0.0504 -0.1548
80002W        W22914   8.779  10.346   5.660  0.3705 -0.1100 -0.1246
80003W        W22915   7.423   8.467   9.003 -0.1050 -0.1216 -0.0413
80004W        W22916   8.791   7.570   8.270  0.1194  0.0119 -0.0647
80005W        W22917   9.442  10.894   7.691 -0.1672  0.0632  0.0087
80006W        W22918   8.531   9.578   7.299  0.5311 -0.3708 -0.1824
80007W        W22919  10.995   8.779   6.275  0.1428  0.0720  0.2497
80008W        W22920   8.199   9.507   9.986 -0.1150  0.4630  0.4890
80009W        W22921   6.754  10.588  10.115 -0.1482 -0.0501 -0.1611
80010W        W22922   9.372   9.533   8.112  0.1245 -0.1017  0.1529
80011W        W22923   7.213   6.873   7.413 -0.0542  0.0452  0.1239
80012W        W22924   7.510   8.477   7.578 -0.0375 -0.2546 -0.2700
80013W        W22925   8.794   9.753   9.427 -0.1925 -0.1541  0.1910
80014W        W22926  10.368   7.971   8.696 -0.1244  0.2113  0.1461
80015W        W22927   8.679   8.749   8.336 -0.2917 -0.1027  0.0079
80016W        W22928   9.371   6.857   7.782  0.2849  0.1654 -0.1568
80017W        W22929  10.244   9.222   9.016  0.0929  0.1911 -0.3470
80018W        W22930   9.608   9.757   8.997  0.1014  0.4301 -0.0662
80019W        W22931   8.655  13.685   3.071  0.0016  0.3829  0.6441
80020W        W22932   7.736  11.330   1.974  0.2247  0.2836  0.0011
80021W        W22933  10.405  12.608   1.140 -0.2157 -0.2874 -0.0937
80022W        W22934   9.833  13.523   0.121  0.1799 -0.1377  0.0077
80023W        W22935   6.508  13.887   0.061 -0.0807  0.0620 -0.1508
80024W        W22936   9.449  14.611   0.778  0.1492 -0.0314  0.1438
80025W        W22937   7.679  10.451   0.945  0.0907  0.3758  0.3062
80026W        W22938  10.232  13.811   2.285 -0.1260  0.1531  0.0346
80027W        W22939  13.209  14.321   2.392 -0.1618  0.2961 -0.1758
80028W        W22940  10.823  13.460   0.066  0.4917 -0.2206 -0.1965
80029W        W22941   9.067  11.442   1.335  0.0082 -0.0769 -0.1642
80030W        W22942   9.146  14.461   2.002 -0.2094 -0.1275  0.1753
80031W        W22943   8.855  10.369   1.317 -0.0114  0.1280  0.0512
80032W        W22944   7.085   9.892   2.515 -0.0632 -0.3700 -0.2377
80033W        W22945   9.819  12.835   2.793  0.0709 -0.1283 -0.1900
80034W        W22946   8.461  12.705   0.318  0.2874 -0.1650  0.1879
80035W        W22947   7.768  12.199   2.093 -0.0357  0.0380  0.0269
80036W        W22948   9.439  13.297  31.779 -0.2095 -0.0081  0.0382
80037W        W22949   8.359  14.341   0.560 -0.0237  0.1586  0.0274
80038W        W22950  10.561  10.917   2.624  0.1729  0.2184 -0.0479
80039W        W22951   9.316  11.157   2.508  0.2873 -0.0982  0.0566
80040W        W22952   8.420  13.176   0.643  0.2198 -0.1426  0.3846
80041W        W22953   7.901  12.820  31.416  0.0044  0.0833 -0.3212
80042W        W22954   6.534  12.936   0.151 -0.0695 -0.1528  0.1479
80043W        W22955   8.481  12.758   2.124 -0.0696 -0.1554  0.0535
80044W        W22956  11.824  12.289   1.588  0.2336 -0.1396  0.0933
80045W        W22957  10.016  13.286   3.202 -0.2026  0.2735  0.2387
80046W        W22958   8.605  13.212   1.493 -0.2166  0.2584 -0.0152
80047W        W22959   8.411  13.232   1.924 -0.1404 -0.1207 -0.0906
80048W        W22960   9.992  11.663   2.693  0.1008  0.1270 -0.0658
80049W        W22961   7.607  13.577   1.644 -0.0561  0.0188  0.0698
80050W        W22962   9.247  15.516   0.728 -0.1790  0.0508 -0.2450
80051W        W22963   7.554  13.747   1.048 -0.2255 -0.2014  0.0604
80052W        W22964  10.088  13.153   0.364 -0.1484  0.1189 -0.0032
80053W        W22965  11.202  14.992   3.729 -0.3697  0.1007  0.0115
80054W        W22966   9.723  15.647   2.744 -0.1657 -0.0921 -0.0366
80055W        W22967   8.047  12.843   0.743 -0.2602 -0.2429 -0.0956
80056W        W22968  10.176  12.707   2.422 -0.0177 -0.1572 -0.1220
80057W        W22969   8.835  14.575   1.420  0.2311 -0.1372  0.0961
80058W        W22970  10.311  12.809   0.676  0.2701  0.2512 -0.1935
80059W        W22971   8.877  13.156  31.566 -0.1092  0.0643  0.1228
80060W        W22972   9.564  13.449  30.641  0.1032 -0.1030  0.0901
80061W        W22973   9.250  13.620   1.275  0.0315  0.0932  0.2380
80062W        W22974   9.310  13.465   2.331 -0.3568 -0.0021  0.0927
80063W        W22975   6.652  13.377   1.078 -0.0660  0.2590 -0.3144
80064W        W22976  10.791  13.011   1.939 -0.1084  0.3556 -0.2314
80065W        W22977   8.534  13.627  31.591  0.2750 -0.0412 -0.0404
80066W        W22978  11.448  11.586  31.762 -0.1017 -0.4766 -0.3738
80067W        W22979   8.679  11.434  31.166  0.1045 -0.0036  0.1052
80068W        W22980  10.139  13.008  31.387  0.2575  0.0630  0.2388
80069W        W22981   7.033  11.408   1.885 -0.1083 -0.1582 -0.5423
80070W        W22982   9.066  13.750   0.835 -0.0949  0.0264  0.0242
80071W        W22983   7.697  12.772   2.573  0.4883  0.1731 -0.2086
80072W        W22984  10.571  13.995   3.314 -0.0723 -0.3807 -0.2715
80073W        W22985   9.784  11.993  31.896  0.1165  0.1109 -0.1692
80074W        W22986   9.227  11.844   0.662 -0.2444  0.0297  0.0845
80075W        W22987   9.349  14.434   2.517 -0.0557  0.0669  0.2651
80076W        W22988   9.886  11.452   1.450  0.0178  0.1574  0.2209
80077W        W22989  10.092  15.006  30.347 -0.0145 -0.0593  0.1885
80078W        W22990  10.191  14.606   0.568 -0.2498  0.1465 -0.2046
80079W        W22991   9.912  13.377  31.633 -0.2907  0.1420  0.1764
80080W        W22992   8.127  11.661   1.864  0.3337  0.0684 -0.0195
80081W        W22993   7.473  13.117   2.208  0.1035 -0.2024 -0.2278
80082W        W22994   7.205  12.065   2.953 -0.1636 -0.3208  0.2107
80083W        W22995   8.769  11.680   0.389 -0.0135 -0.0331  0.3266
80084W        W22996  11.167  12.764   3.158 -0.0279  0.2022 -0.2762
80085W        W22997   8.795  13.751   2.450 -0.1059 -0.2357  0.0963
80086W        W22998  12.143  11.274   1.942 -0.1867  0.0377 -0.1190
80087W        W22999   9.590  13.076   1.197 -0.1254  0.1445 -0.3295
80088W        W23000   9.288  14.975   3.306 -0.1924 -0.3403  0.1394
80089W        W23001   9.439  14.677  31.321  0.2838 -0.0143 -0.1125
80090W        W23002  11.423  11.753   2.430  0.0939  0.3102  0.3046
80091W        W23003  11.879  10.714   3.387 -0.2708  0.1366  0.0163
80092W        W23004   7.596  12.986   0.289 -0.0290  0.0223  0.0380
80093W        W23005   8.525  13.157   0.077  0.0986 -0.3192  0.0055
80094W        W23006  11.178  13.980   1.852  0.0486 -0.1320 -0.1004
80095W        W23007  10.410  14.343  31.982  0.0747  0.1440 -0.1072
80096W        W23008   7.587  14.364   2.434 -0.2158  0.3738  0.0334
80097W        W23009   8.139  12.115   1.614 -0.1221 -0.0144  0.0352
80098W        W23010   9.430  14.332   3.908 -0.1503  0.1950 -0.2102
80099W        W23011   8.015  14.350   0.072  0.0871 -0.0961  0.2583
80100W        W23012   5.897  12.598   1.327 -0.4177  0.0825 -0.1083
80101W        W23013   8.448  13.738  31.096 -0.0490  0.0657 -0.1418
80102W        W23014   7.305  10.389   3.799 -0.0021  0.0965  0.0900
80103W        W23015   7.493  13.783   2.280  0.4068  0.0301  0.0984
80104W        W23016  10.562  10.933   0.452  0.3011  0.0354  0.0777
80105W        W23017   8.980  10.852   1.389  0.3109 -0.0310 -0.2242
80106W        W23018  12.053   9.875   0.873 -0.0509  0.1280 -0.1802
80107W        W23019   7.732  12.852   1.216  0.4292  0.2226  0.2247
80108W        W23020  11.245  15.474   0.687 -0.1253  0.1406 -0.4344
80109W        W23021  11.477  12.492  29.925 -0.0324 -0.0925 -0.2067
80110W        W23022   9.392  14.956  30.880 -0.2944  0.2331  0.0196
80111W        W23023   8.075  12.541   2.336 -0.1161 -0.1162  0.0446
80112W        W23024   8.240  12.225   0.180  0.3116  0.1565  0.1432
80113W        W23025   7.357  12.103   4.679 -0.1926  0.2593  0.3303
80114W        W23026   7.414  11.031   2.832  0.0842  0.2259  0.0310
80115W        W23027   9.775  13.636   2.437  0.1014 -0.0327  0.1819
80116W        W23028   7.283  10.382   0.567  0.1478  0.0769 -0.2134
80117W        W23029  11.002   9.455   1.960  0.1615  0.0549 -0.2056
80118W        W23030   9.041  12.454   0.798 -0.3179 -0.2601  0.0688
80119W        W23031   7.055  12.857   0.528  0.1850  0.0680  0.1341
80120W        W23032  10.712  12.814   2.398 -0.1730 -0.0940  0.0471
80121W        W23033   9.810  14.301  31.347  0.0419 -0.0593  0.0364
80122W        W23034  10.313  14.976   4.153 -0.3459 -0.0890  0.2474
80123W        W23035  11.628  14.233   0.573 -0.0605  0.0466 -0.2301
80124W        W23036   8.809  11.934   2.320  0.0071  0.3461 -0.2426
80125W        W23037   8.229  12.637  31.773 -0.1884  0.0450 -0.0051
80126W        W23038   8.628  14.765   0.494  0.0469 -0.0429  0.0780
80127W        W23039   9.719  13.125   2.285  0.1391  0.2737  0.1656
80128W        W23040   8.681  11.148   0.109  0.1767  0.0759 -0.4115
80129W        W23041  10.995  14.675   1.863  0.0466  0.0178  0.1823
80130W        W23042   7.694  12.513   1.579 -0.0949  0.0803 -0.0973
80131W        W23043   8.668  12.256   1.412 -0.0742 -0.2756 -0.1488
80132W        W23044  10.431  12.618   2.010  0.1754 -0.0658 -0.1335
80133W        W23045  10.609  13.425   2.140 -0.0204  0.1063  0.3631
80134W        W23046  11.147  13.014   0.828 -0.0963 -0.1815 -0.1912
80135W        W23047   7.874  11.872   0.833 -0.0746 -0.0562 -0.0362
80136W        W23048   9.870  14.869   0.139 -0.1262  0.1105  0.0254
80137W        W23049   7.209  13.258   0.289  0.1815  0.0879  0.2586
80138W        W23050   8.044  13.626  31.869  0.0197 -0.0121 -0.2023
80139W        W23051   9.735  14.229   0.791  0.2113  0.0067  0.0767
80140W        W23052  10.671  10.465   0.848  0.1208 -0.0545 -0.2647
80141W        W23053   8.830  13.059   3.283  0.0335 -0.0144 -0.0651
80142W        W23054  11.345  10.720   1.727 -0.0337 -0.1390 -0.1679
80143W        W23055   9.104  11.958   1.697  0.0149  0.4508  0.2017
80144W        W23056   8.321  14.685   2.866  0.1535  0.2316  0.2049
80145W        W23057  10.109  11.167   2.891 -0.0506 -0.1053  0.0097
80146W        W23058  11.635  11.313   1.194  0.0453  0.2135  0.1095
80147W        W23059   9.387  11.538   2.876  0.0483 -0.2935 -0.1658
80148W        W23060   9.793  12.714   0.507 -0.1811  0.1154  0.1710
80149W        W23061  10.129  13.369  30.588  0.1975 -0.1741  0.2021
80150W        W23062  10.977  11.815  31.763  0.0235 -0.0159  0.1462
80151W        W23063   8.510  14.439   3.791 -0.0464  0.1915  0.2645
80152W        W23064   8.317  13.068   1.095 -0.1573  0.4008  0.4104
80153W        W23065   8.796  12.831   2.654  0.3279 -0.5172  0.4332
80154W        W23066  10.203  11.825   0.343  0.1195  0.0376 -0.1463
80155W        W23067  10.637  14.292   1.063 -0.0874 -0.0221  0.0319
80156W        W23068   6.614  13.640   1.854 -0.0973  0.1717  0.1243
80157W        W23069  10.077  11.986   3.187 -0.0962  0.1058 -0.5203
80158W        W23070  10.605  12.870   0.297  0.0533  0.3730 -0.1099
80159W        W23071   9.282  11.060   2.025 -0.2014  0.4062 -0.0763
80160W        W23072   7.588  13.554  31.612 -0.0739 -0.0505 -0.1227
80161W        W23073   8.255  12.078   1.079 -0.1434 -0.1164 -0.1703
80162W        W23074   8.209  13.616   0.455  0.2844  0.1301 -0.1820
80163W        W23075  10.038  11.761   0.834  0.0480  0.0403 -0.0310
80164W        W23076  10.145  11.950   2.305  0.1915 -0.2453  0.0215
80165W        W23077   9.045  11.815   3.353  0.0152 -0.0218 -0.0472
80166W        W23078   9.832  12.730   3.775 -0.2210 -0.2456 -0.1331
80167W        W23079  11.348  13.131  31.129 -0.0802  0.2002 -0.1726
80168W        W23080   9.030  11.029   0.540 -0.1775 -0.0236  0.2206
80169W        W23081   8.764  12.207   0.434  0.1630 -0.0787 -0.0499
80170W        W23082  10.289  11.836   4.007 -0.3199 -0.1305  0.0470
80171W        W23083   8.860  12.884   1.831 -0.1485 -0.0771  0.1377
80172W        W23084   8.762  13.676   1.602 -0.2100 -0.2278 -0.0292
80173W        W23085   9.688  13.237   3.605  0.2193  0.2077  0.3411
80174W        W23086  10.131  13.050   1.386  0.2297 -0.2696 -0.1678
80175W        W23087   8.877  11.550   2.763  0.1736 -0.4127  0.0311
80176W        W23088   9.054   9.832   1.891  0.1374 -0.3594 -0.3914
80177W        W23089   7.166  13.483   0.782  0.1214 -0.0922  0.0327
80178W        W23090   8.795  13.721   0.116 -0.0118  0.1389  0.0370
80179W        W23091   7.665  10.274   3.484 -0.0690  0.0235 -0.0133
80180W        W23092   9.328  15.579   1.230 -0.2951 -0.0493 -0.3014
80181W        W23093   9.113  13.049   0.089 -0.2543 -0.0856 -0.2424
80182W        W23094   8.727  14.096  31.746  0.1154 -0.0944 -0.0496
80183W        W23095  10.195  11.501   2.031  0.1900 -0.0677  0.2260
80184W        W23096   7.844  15.366   0.195 -0.1085  0.0452 -0.1034
80185W        W23097   9.924  12.660   0.979  0.2119 -0.1582  0.0837
80186W        W23098   7.431  13.032   0.774 -0.1023 -0.0883  0.1095
80187W        W23099   9.931  10.955   1.264  0.1148  0.1001  0.3022
80188W        W23100  10.444  12.099   0.853 -0.1625 -0.0156 -0.0880
80189W        W23101   7.534  12.628   2.089 -0.5477  0.1062  0.0189
80190W        W23102  10.908  11.535   2.319  0.4077 -0.0619 -0.1322
80191W        W23103   8.557  14.146   1.584  0.2912 -0.1805 -0.1421
80192W        W23104   9.501  13.201   1.811 -0.2002  0.1734 -0.0854
80193W        W23105   8.708  12.264  31.947 -0.1498 -0.0828 -0.1826
80194W        W23106  10.824  13.639   1.050  0.2197  0.0667  0.2513
80195W        W23107   9.090  12.539   1.558 -0.0491  0.0226 -0.0182
80196W        W23108   6.438  13.205   1.690 -0.2373  0.0736 -0.0152
80197W        W23109  10.680  13.501   4.117  0.1359 -0.1192  0.0551
80198W        W23110   7.410  11.612   1.045 -0.2105  0.2058 -0.0287
80199W        W23111   7.764  14.369   1.574 -0.1587 -0.3818  0.0776
80200W        W23112  10.665  13.874   1.474 -0.0939 -0.1001  0.3322
80201W        W23113   7.825  13.430   0.705  0.0364 -0.2975  0.1420
80202W        W23114   6.772  13.287   0.561 -0.1371  0.0379 -0.3067
80203W        W23115   7.963  12.685   3.524  0.0384  0.2208  0.3743
80204W        W23116   9.301  12.968   2.527  0.0131  0.0763 -0.1209
80205W        W23117   8.210  12.564   1.180 -0.1547  0.0420  0.0249
80206W        W23118   7.527  11.491   1.534  0.1566  0.2069 -0.1249
80207W        W23119   8.852  13.236   1.027 -0.0724 -0.3333 -0.1886
80208W        W23120  10.588  13.372   1.629  0.2682 -0.2132  0.1016
80209W        W23121   8.351  11.781   3.682  0.0490  0.1265  0.0334
80210W        W23122   9.095  13.712   3.285  0.1746 -0.0378  0.1236
80211W        W23123   9.022  10.931   2.883  0.0482 -0.0222  0.2093
80212W        W23124  12.893  15.254  30.424  0.1555 -0.0914 -0.0820
80213W        W23125   9.584  11.891   3.192 -0.1664  0.4837  0.0089
80214W        W23126   8.527  12.464   0.775 -0.2437 -0.1828  0.0635
80215W        W23127   6.552  14.110   2.169 -0.3196  0.3331  0.0872
80216W        W23128   8.690  11.973   0.862 -0.0665 -0.2241 -0.1890
80217W        W23129   9.169  12.460   2.691  0.2760  0.1394  0.3717
80218W        W23130   7.840  13.939   1.892  0.1540  0.2037  0.1507
80219W        W23131   8.152  13.593   1.449  0.0817  0.3877  0.1756
80220W        W23132   8.871  12.629   3.499 -0.1791  0.1993 -0.1215
80221W        W23133  10.893  11.282   0.507 -0.1290  0.0607  0.1251
80222W        W23134   8.966  13.569  31.173  0.4397 -0.1588 -0.0246
80223W        W23135   9.752  12.792   1.565  0.0051  0.3435  0.4337
80224W        W23136  11.625  12.772   3.772 -0.1521 -0.2218 -0.0295
80225W        W23137   9.174  12.032   0.107 -0.1061 -0.2939 -0.0521
80226W        W23138  11.836  11.492   2.763 -0.0175  0.2333  0.1025
80227W        W23139   7.795  12.263   2.677 -0.2282  0.0919  0.0001
80228W        W23140  11.667  14.157   1.507 -0.3460  0.0293  0.0547
80229W        W23141   7.175  12.372   3.331  0.0507 -0.2690  0.1168
80230W        W23142   9.125  14.128   2.835  0.0420 -0.0971  0.0974
80231W        W23143   9.240  12.206   2.150 -0.1036  0.1267  0.0687
80232W        W23144   9.762  12.006   1.956 -0.0100 -0.1373  0.1773
80233W        W23145   7.153  11.226   0.734 -0.0526  0.2646 -0.1880
80234W        W23146   9.157  13.066   1.440  0.1633  0.1532  0.1620
80235W        W23147  11.139  14.098   2.351  0.0673 -0.1131 -0.2211
80236W        W23148   7.432  13.769   0.494 -0.3586 -0.1525  0.0796
80237W        W23149  11.025  13.248   1.322  0.2162  0.1900  0.2475
80238W        W23150   7.256  12.529   2.473 -0.3179 -0.1246  0.0582
80239W        W23151   9.117  12.105   1.211 -0.1366  0.1439  0.3043
80240W        W23152  10.468  12.401   0.425  0.3338 -0.2169  0.1468
80241W        W23153   7.421  14.066   1.431 -0.0008 -0.1515 -0.0850
80242W        W23154   6.301  11.401   2.577  0.2364 -0.0613 -0.0437
80243W        W23155  10.337  13.413   1.083  0.2546  0.2333  0.3415
80244W        W23156  11.274  11.620   1.385 -0.1236 -0.4603 -0.0175
80245W        W23157   9.622  11.860   1.278 -0.0257 -0.2906  0.2684
80246W        W23158  10.169  12.424   1.560 -0.0773 -0.2693 -0.5649
80247W        W23159   8.312  12.657   2.733 -0.1968 -0.0056  0.0367
80248W        W23160   7.213  11.636   2.602 -0.2264 -0.0296  0.1433
80249W        W23161  11.368  13.808   0.636  0.1510 -0.2272  0.3071
80250W        W23162  10.505  11.840   1.309  0.3595 -0.0933 -0.2735
80251W        W23163  12.672  11.635   2.569 -0.5023  0.0662 -0.2607
80252W        W23164  11.074  12.615   1.275  0.0990  0.0452  0.0486
80253W        W23165  10.169  12.209  31.165  0.1164 -0.1346  0.1256
80254W        W23166   7.652  13.129   2.977  0.3179  0.1856 -0.3328
80255W        W23167  11.268  11.581   1.971  0.1910  0.0922  0.0619
80256W        W23168   8.848  11.939  31.527 -0.0295 -0.0302  0.0622
80257W        W23169   9.621  12.541   2.403  0.2534  0.2865 -0.0661
80258W        W23170   9.434  15.121  31.859  0.3234 -0.3553  0.1558
80259W        W23171  11.018  14.178   1.362  0.0111  0.0111  0.1226
80260W        W23172  11.362  11.062   0.263 -0.0316 -0.1333 -0.5130
80261W        W23173   7.091  11.657   0.394 -0.3405  0.1848 -0.2328
80262W        W23174   8.634  15.088   1.389 -0.0144 -0.0943 -0.0437
80263W        W23175   8.821  12.867   0.663 -0.2162 -0.0345  0.0144
80264W        W23176   8.309  13.152  31.623  0.3001 -0.2029  0.2012
80265W        W23177  10.613  14.313   1.710 -0.0309  0.5231  0.3285
80266W        W23178   9.981  13.728   2.945  0.2262 -0.0187  0.1322
80267W        W23179  10.723  10.862  31.962 -0.3175  0.1358  0.0643
80268W        W23180  10.204  13.034   1.923  0.2118  0.1535 -0.1372
80269W        W23181   7.715  15.074  31.782  0.0687  0.1459 -0.2298
80270W        W23182   8.969  11.427   1.857 -0.4769  0.0878  0.4383
80271W        W23183   7.965  13.918   0.776  0.1695  0.2397  0.2572
80272W        W23184   6.712  12.605   3.295  0.0884  0.2074  0.2173
80273W        W23185   7.467  14.230   0.198 -0.2627 -0.2973 -0.1715
80274W        W23186   9.405  12.681   1.903 -0.4697  0.1817 -0.2290
80275W        W23187   9.998  12.214   0.619 -0.0656 -0.0153  0.2283
80276W        W23188   8.741  12.761   1.278 -0.1253 -0.1750  0.3669
80277W        W23189  11.608  13.215   1.421 -0.0650 -0.0605  0.1091
80278W        W23190   9.441  13.968   2.333 -0.2121 -0.2654 -0.0636
80279W        W23191   7.876  13.482   2.038 -0.1146 -0.1698 -0.0879
80280W        W23192  10.165  13.320   2.457  0.3346 -0.2587 -0.0937
80281W        W23193  10.223  13.557   0.618  0.2608  0.0154  0.0987
80282W        W23194   8.822  13.960   2.023 -0.0563 -0.2311  0.3359
80283W        W23195   7.392  12.084   2.446 -0.2000  0.3335  0.0922
80284W        W23196   9.002  12.689   2.249 -0.2714 -0.0627  0.3992
80285W        W23197   9.928  12.471   1.979 -0.1346 -0.1113  0.2785
80286W        W23198   8.458  11.233   0.559  0.0892 -0.0551  0.0509
80287W        W23199   9.972  13.871  30.661  0.5221  0.3001 -0.3237
80288W        W23200   7.274  14.080   5.587 -0.1310  0.0169  0.4893
80289W        W23201   6.980  13.856   2.143 -0.2045 -0.1101  0.0239
80290W        W23202   9.190  14.985   0.480 -0.1905  0.0425  0.2354
80291W        W23203  10.067  14.166   0.312 -0.3886  0.0499  0.1002
80292W        W23204   9.599  14.420   0.290  0.0064 -0.0197  0.3783
80293W        W23205  10.977  14.061   2.873 -0.2031 -0.2278 -0.0585
80294W        W23206  10.451  11.734  31.884 -0.1229 -0.1214 -0.0783
80295W        W23207   7.872  13.272   1.135 -0.1725  0.0412 -0.3276
80296W        W23208   6.739  13.916   0.778 -0.1988  0.1539 -0.1505
80297W        W23209   9.938  13.130   0.814  0.1408 -0.1248  0.1154
80298W        W23210   7.821  14.501   0.557 -0.2368  0.1520  0.5396
80299W        W23211  10.569  14.339   2.894 -0.0892  0.1658 -0.0440
80300W        W23212  11.160  12.272  31.973  0.0380  0.3234 -0.0007
80301W        W23213  10.654  13.011   1.005 -0.2916 -0.2511 -0.0797
80302W        W23214  11.691  10.950  31.900 -0.0354 -0.0424 -0.1306
80303W        W23215   9.665  14.642   3.488 -0.4177 -0.2342  0.0043
80304W        W23216   8.657  12.395   2.440 -0.0440 -0.1458  0.1252
80305W        W23217   9.704  11.452   0.785 -0.2234 -0.1789 -0.0873
80306W        W23218   9.111  11.990   2.828 -0.2071 -0.1933  0.0413
80307W        W23219  10.012  10.701   2.914  0.0958 -0.0304 -0.0509
80308W        W23220   6.837  15.148   2.541 -0.3052  0.0730  0.0312
80309W        W23221   8.859  12.292  31.075  0.0004  0.2669 -0.1551
80310W        W23222   6.972  11.589   1.144  0.0759  0.0583 -0.3876
80311W        W23223   8.052  13.164   0.262  0.1294  0.3497  0.4238
80312W        W23224  12.467  10.247   0.952  0.1456  0.0786 -0.2529
80313W        W23225   9.453  12.697   0.072 -0.2563  0.1120 -0.0761
80314W        W23226   8.406  12.596   1.675  0.0592 -0.2185 -0.1570
80315W        W23227   9.602  15.264   0.336  0.0077  0.1901  0.0435
80316W        W23228   7.898  13.969   1.296 -0.3000  0.0634  0.0632
80317W        W23229   9.382  15.390   2.474 -0.0874 -0.4672  0.0201
80318W        W23230   8.247  11.017  31.732 -0.0866  0.1929  0.1985
80319W        W23231  11.311  12.387   1.739 -0.4448 -0.1205 -0.1882
80320W        W23232   8.771  13.257   2.260 -0.2641 -0.0798 -0.3207
80321W        W23233  11.970  11.917   2.422 -0.1683 -0.0139 -0.2845
80322W        W23234   7.919  11.208   1.477 -0.1160 -0.0496  0.2200
80323W        W23235   9.360  12.836   0.771 -0.0156  0.2126  0.1302
80324W        W23236   9.013  13.343   1.834  0.1203  0.2551  0.0303
80325W        W23237   6.836  13.152   3.356 -0.1044  0.0653 -0.0721
80326W        W23238   9.034  11.561   0.008  0.2018 -0.0089 -0.1317
80327W        W23239  11.538  13.245   1.961  0.1013  0.0295  0.0138
80328W        W23240  10.425  13.249  30.967  0.3331  0.1899  0.0161
80329W        W23241  11.472  14.991   2.708 -0.2087  0.2146 -0.0686
80330W        W23242   7.222  12.054   1.305  0.1787 -0.2559 -0.1882
80331W        W23243   9.416  12.573   1.210  0.1294 -0.1213 -0.3754
80332W        W23244   8.113  13.006   1.544 -0.0292 -0.1302  0.1384
80333W        W23245   7.637  13.074   1.705 -0.0064  0.2665  0.1103
80334W        W23246  10.999  13.607   3.684  0.2764 -0.1622 -0.3812
80335W        W23247   6.964  11.769  31.864  0.2708 -0.2770 -0.1561
80336W        W23248  11.279  13.970  31.274  0.1831  0.2101 -0.0396
80337W        W23249  11.755  11.496   2.144  0.1674  0.0284 -0.0071
80338W        W23250   8.914  14.521  31.026 -0.0230  0.4079 -0.4210
80339W        W23251   9.097  13.680  31.635 -0.3175  0.2210  0.3535
80340W        W23252   9.769  14.780   1.154  0.1011  0.3855  0.2613
80341W        W23253   8.184  12.214   2.986  0.1453  0.0538 -0.1472
80342W        W23254  10.260  13.915   1.783 -0.0009  0.1943 -0.3340
80343W        W23255  11.370  13.660   2.211 -0.5086  0.2414  0.2436
80344W        W23256   9.663  11.736   0.377 -0.1331 -0.1132 -0.2207
80345W        W23257   7.744  10.078   1.260  0.1213  0.0614 -0.1352
80346W        W23258   6.294  13.689   0.950 -0.2835 -0.0381 -0.0086
80347W        W23259  10.077  12.165   1.135  0.2317  0.1724 -0.0701
80348W        W23260   9.952  13.561   1.960 -0.4859 -0.0629 -0.1273
80349W        W23261   7.394  14.860  30.879  0.1700 -0.1560 -0.0002
80350W        W23262  10.848  10.875   1.688 -0.4488  0.1236 -0.4532
80351W        W23263   9.446  14.477   2.997 -0.1942 -0.0988 -0.2553
80352W        W23264   8.229  14.056   4.074  0.1599  0.5585 -0.1664
80353W        W23265   7.874  13.971   0.327  0.1091  0.2430 -0.1068
80354W        W23266   8.563  11.279   3.104  0.0125  0.0969  0.3518
80355W        W23267   9.558  12.213   0.392  0.0689  0.0360 -0.0290
80356W        W23268  10.406  14.806   1.563 -0.1276 -0.0406  0.2192
80357W        W23269  10.331  14.932   1.047  0.2966  0.0824 -0.0689
80358W        W23270  11.880  12.148   0.785 -0.1786 -0.1518  0.0420
80359W        W23271   9.711  13.814   0.482 -0.1072 -0.0154  0.0152
80360W        W23272   8.394  11.540   2.300 -0.0247 -0.0726 -0.1798
80361W        W23273  11.522  12.874   0.440 -0.1029  0.3991 -0.1346
80362W        W23274  11.060  11.343  31.962 -0.0899 -0.1991 -0.1616
80363W        W23275   8.355  13.804   1.892  0.1136  0.2685 -0.2535
80364W        W23276   7.036  13.678   1.200  0.5398  0.0473 -0.0741
80365W        W23277   8.016  13.065  30.999 -0.0251  0.1845 -0.2323
80366W        W23278   7.999  13.908   2.376 -0.0996  0.0400  0.1065
80367W        W23279   9.310  10.888   4.248 -0.4372  0.0791 -0.0272
80368W        W23280   8.191  12.235   3.491 -0.0379 -0.3749  0.1283
80369W        W23281   6.647  14.087   1.247  0.0189 -0.5440 -0.0706
80370W        W23282   7.303  12.223   1.863  0.1520 -0.0096  0.0122
80371W        W23283   9.451  14.562  31.828 -0.0032 -0.3041  0.0486
80372W        W23284   8.789  11.472   0.902 -0.0499  0.1903  0.0340
80373W        W23285   6.493  10.891   1.731  0.2093 -0.1588  0.1104
80374W        W23286   9.002  14.735  31.693  0.0124  0.2111  0.1786
80375W        W23287  10.275  14.810  31.772 -0.0444 -0.2416  0.2197
80376W        W23288   9.796  10.578   2.042  0.0874  0.0489 -0.0785
80377W        W23289   9.891  14.197   3.651  0.0327 -0.0182 -0.1455
80378W        W23290   7.617  12.577  31.773 -0.0460  0.0778 -0.0319
80379W        W23291   9.582  12.286   1.572  0.1244  0.2350 -0.1003
80380W        W23292   7.739  11.749   4.548 -0.3873 -0.0510 -0.0373
80381W        W23293   7.350  12.141  31.925  0.0456 -0.1735 -0.0038
80382W        W23294   8.779  12.352   1.963 -0.1239  0.1765 -0.0974
80383W        W23295   9.284  13.616   0.245 -0.2363  0.1779  0.3753
80384W        W23296   9.127  14.274  31.386  0.2689 -0.3603  0.2897
80385W        W23297   9.381  13.724   2.845  0.1207 -0.1114  0.0188
80386W        W23298   8.878  14.363   2.408  0.0452  0.1492 -0.0056
80387W        W23299   6.372  10.746   2.201 -0.0078  0.1781  0.1902
80388W        W23300   9.872  13.692   0.974  0.0942 -0.2636  0.2021
80389W        W23301   9.784  14.058   1.885  0.0184 -0.1971 -0.2479
80390W        W23302  10.157  13.784  31.807 -0.3882  0.4373  0.1285
80391W        W23303  12.223  11.335   2.419  0.0215  0.2838  0.5047
80392W        W23304  10.973  12.548   0.353  0.2122  0.2174 -0.0721
80393W        W23305   7.345  10.346   2.706  0.0948  0.0329 -0.1295
80394W        W23306   8.319  13.497   2.324 -0.2044  0.1143  0.0259
80395W        W23307   9.735  13.507   1.440  0.1079  0.0189 -0.1656
80396W        W23308   8.037  10.279   2.823 -0.4008 -0.0812  0.0009
80397W        W23309  11.374  11.212   2.528 -0.1679  0.0473  0.1608
80398W        W23310   8.655  13.891   0.610 -0.0418  0.2093 -0.0155
80399W        W23311   7.354  11.699   2.119 -0.2158 -0.0321 -0.0773
80400W        W23312  10.097  11.916   1.554 -0.3929  0.0833  0.2085
80401W        W23313   9.261  12.899   3.056  0.5139  0.1081 -0.0980
80402W        W23314  10.024  13.988   1.343  0.0852 -0.2313 -0.0017
80403W        W23315   9.993  14.211   3.156 -0.0857 -0.2747  0.1023
80404W        W23316   9.288  11.440   0.371 -0.0630 -0.2995  0.1246
80405W        W23317  11.900  13.326  30.594  0.3068 -0.0359  0.2646
80406W        W23318  10.151  14.450   1.220  0.3625 -0.1976 -0.0966
80407W        W23319  11.052  14.212   4.274 -0.2535 -0.0389  0.1074
80408W        W23320   9.526  13.990   1.450  0.1291  0.1114  0.0804
80409W        W23321  10.874  12.426   1.900 -0.3671 -0.0933 -0.3787
80410W        W23322   7.216  10.755   2.439 -0.1314 -0.2208  0.1330
80411W        W23323   9.634  12.302   0.880  0.3603 -0.0002 -0.0410
80412W        W23324  10.603  12.868   1.518 -0.2511 -0.4861  0.1386
80413W        W23325  10.686  12.323   1.454  0.0313 -0.2123 -0.1568
80414W        W23326   7.761  11.312   2.600 -0.4042 -0.1353  0.0594
80415W        W23327  10.098  11.371   0.505  0.2901 -0.0306  0.1073
80416W        W23328   8.830  14.134   3.271 -0.2544 -0.1165  0.1146
80417W        W23329   8.500  13.663   1.039 -0.0931  0.0253  0.2581
80418W        W23330   9.389  13.613   6.482  0.0327  0.0575 -0.2306
80419W        W23331   6.915  12.354   5.487 -0.3936  0.1484  0.0240
80420W        W23332  10.901  11.896   2.686 -0.0997 -0.2253 -0.2218
80421W        W23333  10.840  12.899   4.245  0.0435 -0.4331  0.1678
80422W        W23334   7.761  11.690   4.091  0.3333  0.1522  0.1792
80423W        W23335  10.655  13.987   2.492 -0.3858  0.0723  0.1074
80424W        W23336   7.380  11.644   7.899 -0.2553 -0.2304 -0.0896
80425W        W23337  10.342  13.538   5.388  0.0048  0.1802  0.3794
80426W        W23338  10.191  13.848   6.126 -0.3753  0.3419  0.0730
80427W        W23339  10.235  12.966   3.468  0.2068  0.1432  0.2017
80428W        W23340   8.679  11.980   4.746  0.1178  0.1236  0.1123
80429W        W23341   8.551  14.997   7.450  0.3078  0.0410 -0.1379
80430W        W23342   8.555  11.772   3.166 -0.2499 -0.3348 -0.0964
80431W        W23343   7.531  10.202   5.662  0.0039  0.1821  0.2798
80432W        W23344   9.956  11.658   5.298  0.1769  0.0696  0.0855
80433W        W23345   6.726  12.829   4.642  0.0873  0.1309 -0.0020
80434W        W23346   9.055  12.779   4.975 -0.2570  0.0301  0.1850
80435W        W23347   7.390  11.598   5.155  0.0366  0.0082 -0.1588
80436W        W23348   9.504  14.758   4.746 -0.0100 -0.2772  0.1803
80437W        W23349   8.654  11.580   5.146  0.1701  0.0293 -0.0832
80438W        W23350   9.089  10.622   5.411 -0.0486  0.0689 -0.0601
80439W        W23351   9.843  13.100   4.343  0.1742  0.0410 -0.3799
80440W        W23352   7.546  12.388   3.716  0.4049 -0.2899  0.1074
80441W        W23353   6.828  11.872   6.671 -0.2996  0.0830  0.1460
80442W        W23354   8.248  13.295   7.145 -0.3996  0.1450 -0.1823
80443W        W23355  10.341  11.185   4.620 -0.3886  0.0482  0.1761
80444W        W23356  10.302  11.735   4.885 -0.1065  0.0074 -0.2049
80445W        W23357   9.779  13.538   4.017  0.2171 -0.1822  0.0069
80446W        W23358   9.773  13.269   5.347  0.2019  0.0376  0.0870
80447W        W23359   8.438  11.883   5.722 -0.0425  0.2232 -0.0908
80448W        W23360   7.771  13.512   4.510  0.0492 -0.3403  0.0956
80449W        W23361   7.922  13.731   6.721 -0.4119 -0.1195 -0.2448
80450W        W23362  10.202  13.213   3.974  0.0265 -0.1151 -0.1491
80451W        W23363  10.622  12.357   4.269  0.1544 -0.1967  0.0940
80452W        W23364   8.830  13.934   8.013  0.1934 -0.0311  0.0716
80453W        W23365   9.991  13.886   5.687 -0.1882 -0.4093 -0.1240
80454W        W23366   7.179  13.774   3.875  0.1920 -0.1652 -0.0180
80455W        W23367   9.064  14.110   7.267 -0.1091 -0.0128  0.1985
80456W        W23368   8.597  13.598   5.590  0.0577 -0.2529 -0.2295
80457W        W23369   8.331  11.941   5.242 -0.1823 -0.0518 -0.0151
80458W        W23370   9.477  13.014   4.001 -0.1155 -0.2947 -0.0880
80459W        W23371   9.077  13.729   4.693 -0.2720 -0.0764  0.1444
80460W        W23372   9.317  12.812   4.555 -0.1323 -0.1301 -0.0078
80461W        W23373   8.723  12.387   8.800  0.1168  0.0600  0.0357
80462W        W23374   7.778  13.103   6.432  0.0431 -0.2743 -0.0303
80463W        W23375  11.068  12.625   5.811  0.0838 -0.1582 -0.3727
80464W        W23376   7.026  14.149   3.560 -0.2118 -0.0601  0.2887
80465W        W23377   8.859  11.833   3.899 -0.1630 -0.3808  0.2005
80466W        W23378   9.122  12.286   3.718 -0.1592  0.0911 -0.1505
80467W        W23379   8.113  12.063   4.094 -0.0207  0.1644 -0.0307
80468W        W23380   9.336  10.952   4.818 -0.1184  0.2371  0.0617
80469W        W23381   8.337  14.214   4.868  0.0357  0.3721  0.4079
80470W        W23382   7.397  11.061   4.981  0.0421  0.1187  0.2141
80471W        W23383   9.071  12.090   6.199 -0.1851 -0.0280  0.1500
80472W        W23384   9.897  11.496   3.183  0.0684  0.3467 -0.0766
80473W        W23385   8.561  12.418   5.016 -0.0730 -0.0401  0.2045
80474W        W23386   8.382  14.093   6.509  0.1448  0.1033 -0.1320
80475W        W23387   7.036  11.971   4.334 -0.1369 -0.1062 -0.1920
80476W        W23388  11.277  14.545   2.341  0.2007 -0.0056 -0.1651
80477W        W23389  10.327  14.124   5.333  0.0110  0.3070  0.1699
80478W        W23390   8.547  14.946   3.995 -0.1074 -0.2822 -0.3027
80479W        W23391   8.970  14.022   3.737  0.0343 -0.0266  0.1529
80480W        W23392   5.868  12.062   6.936 -0.1001 -0.4829 -0.1024
80481W        W23393   7.201  11.917   6.320 -0.4531  0.0619  0.0801
80482W        W23394   8.087  11.372   3.842  0.3351  0.0100  0.2320
80483W        W23395  10.128  11.617   6.258  0.2154 -0.2595  0.0631
80484W        W23396   7.538  14.120   7.001  0.0021  0.2925  0.1029
80485W        W23397  10.583  12.149   3.153  0.0447 -0.2003  0.2098
80486W        W23398   9.269  12.960   5.393  0.2565  0.1150 -0.1661
80487W        W23399  10.912  11.199   5.277  0.1336  0.1629 -0.0329
80488W        W23400   9.890  11.480   3.767 -0.1037  0.0204 -0.1118
80489W        W23401   8.896  11.126   4.382 -0.2618  0.2881  0.1001
80490W        W23402   8.786  12.031   6.673 -0.2669 -0.0754  0.0096
80491W        W23403   7.996  12.553   4.205  0.2939 -0.0255 -0.1899
80492W        W23404   9.741  12.882   3.259 -0.0961 -0.0640 -0.0641
80493W        W23405   9.481  13.848   7.361  0.0506 -0.3002  0.0067
80494W        W23406  11.460  13.501   3.398  0.0478  0.1913 -0.1267
80495W        W23407   7.557  13.172   5.313 -0.0830 -0.0684 -0.0675
80496W        W23408   8.536  11.885   7.926 -0.6281 -0.0361 -0.0523
80497W        W23409   8.713  12.661   8.334  0.2088  0.0497 -0.3740
80498W        W23410   9.107  15.013   2.741 -0.2538  0.1537 -0.1244
80499W        W23411   7.311  13.520   6.852  0.0052 -0.1842 -0.1806
80500W        W23412   6.425  13.474   4.357 -0.0572 -0.1286  0.2156
80501W        W23413   5.955  10.556   6.995 -0.0347 -0.1895 -0.0528
80502W        W23414   7.652  14.792   6.332 -0.0238  0.1435  0.2508
80503W        W23415  12.027  11.625   4.816 -0.1954  0.3296  0.0532
80504W        W23416   7.357  11.076   6.872  0.0246  0.1177 -0.1970
80505W        W23417  10.759  10.500   3.909  0.1674  0.2798  0.1494
80506W        W23418   8.437  12.666   3.214  0.1175 -0.1953  0.0694
80507W        W23419   9.549  14.234   4.889  0.0214 -0.3827 -0.1478
80508W        W23420  11.497  12.417   3.070 -0.1939 -0.2614 -0.0366
80509W        W23421   8.237  13.521   3.356  0.0364 -0.1214  0.0824
80510W        W23422   7.616  11.886   6.619  0.0385  0.0989 -0.4607
80511W        W23423   7.047  12.365   4.994 -0.1950  0.2912 -0.3507
80512W        W23424   7.627  10.798   7.683 -0.0952 -0.0060 -0.2318
80513W        W23425   6.538  11.990   6.284 -0.0367  0.2965 -0.1805
80514W        W23426   7.715  13.256   6.903 -0.0746  0.0299  0.3341
80515W        W23427   5.647  10.972   2.248 -0.1138 -0.0400  0.5730
80516W        W23428  11.983  11.470   4.244 -0.2454 -0.2380 -0.3673
80517W        W23429   7.839  13.060   4.395  0.1368 -0.0321  0.3820
80518W        W23430   7.258  13.651   5.276  0.1323  0.0852  0.2900
80519W        W23431   9.150  11.703   7.021 -0.0134  0.1919 -0.0430
80520W        W23432   9.341  14.181   4.379 -0.4372 -0.1723 -0.0015
80521W        W23433  11.730  12.962   6.095  0.1055  0.1015 -0.2559
80522W        W23434  11.427  13.197   5.820 -0.2886 -0.4463 -0.1242
80523W        W23435   7.554  10.584   6.114  0.0362  0.3437  0.0059
80524W        W23436   7.007  12.860   4.175  0.0795  0.2167  0.0200
80525W        W23437   8.063  13.287   5.531  0.0148  0.2072  0.0453
80526W        W23438   7.738  13.917   4.136 -0.3254  0.6014  0.1136
80527W        W23439   6.826  11.477   4.495  0.1733 -0.0152  0.2363
80528W        W23440  10.593  14.115   6.404  0.3030 -0.0202  0.2427
80529W        W23441   8.956  13.335   4.987 -0.2010 -0.0822  0.0024
80530W        W23442   8.148  14.112   7.017  0.1325 -0.0208 -0.0146
80531W        W23443   8.501  11.048   7.053  0.0236  0.0158  0.2962
80532W        W23444  11.384  10.413   4.729 -0.1230  0.1348  0.1554
80533W        W23445   8.585  11.810   4.301 -0.0367 -0.3956  0.2771
80534W        W23446   8.146  11.572   2.816 -0.0369  0.0802  0.3603
80535W        W23447   9.156  15.168   4.729 -0.1570 -0.2213 -0.2002
80536W        W23448   8.163  13.045   3.067 -0.1629  0.0257 -0.3502
80537W        W23449   6.771  13.252   5.581 -0.2041 -0.4308  0.0761
80538W        W23450   9.858  13.685   3.478 -0.1779  0.1573  0.0327
80539W        W23451   9.706  11.844   4.275 -0.1862  0.0500 -0.0584
80540W        W23452   7.074  13.339   7.231  0.0461  0.0024  0.0640
80541W        W23453   8.248  12.684   6.848  0.2048 -0.0377  0.2390
80542W        W23454   7.582  14.340   6.220 -0.1418  0.1508  0.1135
80543W        W23455   9.639  11.320   4.164 -0.1444  0.2826  0.1857
80544W        W23456  11.277  12.439   3.516 -0.3055 -0.1777  0.1938
80545W        W23457   8.832  13.415   6.774 -0.0365  0.1818  0.0482
80546W        W23458  10.824  12.582   3.821  0.2327 -0.0195 -0.1084
80547W        W23459  10.332  12.442   3.576  0.4139 -0.0630 -0.0754
80548W        W23460   8.738  11.508   3.556 -0.2913  0.1361 -0.0692
80549W        W23461   7.119  14.253   7.660 -0.1174 -0.1336  0.1543
80550W        W23462   9.593  12.691   4.963  0.0242 -0.1768 -0.1831
80551W        W23463   9.745  12.027   6.014 -0.1532 -0.0907 -0.3224
80552W        W23464   7.570  12.147   4.201 -0.1840 -0.1203  0.4194
80553W        W23465   9.801  14.014   4.147  0.1059 -0.1970  0.0941
80554W        W23466   8.101  12.263   6.519  0.3536 -0.1177  0.0446
80555W        W23467   8.779  12.794   6.745  0.0298 -0.0267  0.0138
80556W        W23468   9.438  13.196   6.164 -0.3570 -0.2124  0.0677
80557W        W23469   9.105  10.141   4.801 -0.1626  0.2327 -0.0743
80558W        W23470   8.695  12.303   2.939 -0.2325 -0.1265  0.0315
80559W        W23471   7.296  11.538   4.676  0.0152  0.3202  0.0714
80560W        W23472   6.372  15.691   5.705  0.2960 -0.1350  0.0293
80561W        W23473  10.405  10.542   5.660  0.1838  0.2404 -0.2150
80562W        W23474   9.523  11.418   4.661 -0.1283  0.0522  0.3562
80563W        W23475   8.165  10.577   5.307  0.2042 -0.0100 -0.4740
80564W        W23476  10.473  11.887   5.970 -0.1072  0.1439 -0.5229
80565W        W23477  11.761  11.987   2.855  0.3114 -0.0623 -0.2803
80566W        W23478   8.530  12.427   6.438 -0.2585 -0.3746  0.1109
80567W        W23479   7.869  12.669   3.031  0.3600  0.2983  0.0044
80568W        W23480   8.079  11.601   5.885 -0.0439 -0.0605  0.2791
80569W        W23481   6.493  12.528   6.244  0.0160 -0.1043  0.2585
80570W        W23482   8.313  13.118   6.620  0.1840  0.1365 -0.2504
80571W        W23483   8.910  13.118   8.434  0.0755  0.0677 -0.0507
80572W        W23484   9.040  12.276   4.905 -0.1000  0.2630  0.3635
80573W        W23485   8.207  12.296   6.047  0.1432  0.0614 -0.1015
80574W        W23486  11.079  12.130   3.145 -0.0332 -0.2313 -0.0430
80575W        W23487   8.059  14.656   3.241  0.2029 -0.0559  0.2670
80576W        W23488   9.668  14.108   2.789 -0.2024 -0.0111  0.1617
80577W        W23489   7.562  11.550   6.218  0.1438  0.0748 -0.1150
80578W        W23490   8.147  12.738   6.322  0.0532  0.1968  0.0319
80579W        W23491   7.287  13.046   2.690  0.1932  0.0183  0.0338
80580W        W23492   9.089  13.554   5.415 -0.1418 -0.5049 -0.1473
80581W        W23493   7.840  13.247   3.520 -0.0258  0.1105 -0.0925
80582W        W23494   9.667  10.324   6.197  0.2570  0.4434  0.1555
80583W        W23495   8.410  12.366   5.521 -0.1203 -0.2260 -0.0257
80584W        W23496   7.759  12.268   3.253  0.0119  0.0846  0.0493
80585W        W23497   6.585  13.070   3.810 -0.1808 -0.1719  0.2397
80586W        W23498   7.398  12.114   5.392 -0.1578  0.0783  0.1588
80587W        W23499  10.552  13.677   4.636 -0.2477 -0.4029  0.1655
80588W        W23500   7.060  10.351   5.813  0.0582 -0.1334  0.0041
80589W        W23501   8.131  10.150   4.919  0.3915  0.3528 -0.1652
80590W        W23502   5.970  15.293   5.910  0.0850  0.2536  0.0229
80591W        W23503   9.905  12.994   6.189  0.1061  0.0775 -0.1079
80592W        W23504  10.865  11.684   3.336  0.0891  0.0361 -0.1090
80593W        W23505   9.936  13.430   6.459  0.0975  0.0126  0.1805
80594W        W23506   8.055  12.259   8.125 -0.1748 -0.1396 -0.0390
80595W        W23507   7.395  13.154   4.329 -0.0857 -0.2990  0.0726
80596W        W23508   9.512  11.281   5.163 -0.0620  0.1176  0.0212
80597W        W23509   7.825  12.985   4.921  0.4562  0.0467 -0.0784
80598W        W23510   7.661  12.990   5.913  0.2631  0.2109  0.0605
80599W        W23511   8.717  13.809   5.029  0.2661 -0.0879 -0.1904
80600W        W23512   6.980  12.449   4.494  0.3232  0.0947  0.0390
80601W        W23513   7.776  14.518   2.856 -0.0217  0.0130 -0.0989
80602W        W23514   6.922  12.354   6.492  0.3038 -0.0162 -0.3373
80603W        W23515   9.144  11.570   5.361 -0.0167  0.0507 -0.0604
80604W        W23516   8.046  12.377   5.127 -0.1343 -0.0305 -0.0564
80605W        W23517   7.120  11.032   5.366  0.1933 -0.0414 -0.0502
80606W        W23518   8.647  13.449   4.612  0.0019 -0.2865  0.0569
80607W        W23519   9.409  12.584   5.815  0.1781 -0.1512  0.0287
80608W        W23520   7.014  11.657   5.431  0.0816 -0.3076 -0.1102
80609W        W23521   9.780  13.601   8.137 -0.2472  0.0404 -0.2103
80610W        W23522   9.335  10.995   5.728 -0.1992  0.0584  0.3417
80611W        W23523  12.348  14.979   1.928  0.1153  0.2537 -0.0441
80612W        W23524  10.134  11.050   6.618  0.1643 -0.0832 -0.1239
80613W        W23525   8.733  12.350   4.014  0.0981  0.1121  0.2475
80614W        W23526   6.378  12.447   5.282  0.3408 -0.0388 -0.0354
80615W        W23527   8.726  13.618   4.132 -0.1762 -0.0442  0.1484
80616W        W23528   7.126  11.882   5.858 -0.0058  0.0457  0.1310
80617W        W23529   8.560  12.871   6.138 -0.2576  0.0674 -0.0896
80618W        W23530   8.454  13.910   3.629 -0.0511  0.1768  0.1494
80619W        W23531   7.239  13.971   6.079 -0.1275  0.0038 -0.0783
80620W        W23532  10.835   9.646   3.263 -0.1622  0.1035 -0.1493
80621W        W23533   9.554  12.378   2.925  0.0465  0.0297 -0.0314
80622W        W23534   8.670  12.160   3.493  0.1779  0.1286 -0.2560
80623W        W23535  10.342  10.600   6.128 -0.2136 -0.0256 -0.3825
80624W        W23536   7.798  11.930   5.086  0.0044 -0.1136  0.0327
80625W        W23537   8.464  11.868   6.324 -0.2925 -0.2539  0.1381
80626W        W23538   7.271  11.060   6.204  0.1910 -0.2053  0.0527
80627W        W23539  10.313  12.182   5.613  0.2995  0.2948  0.1401
80628W        W23540   7.149  11.750   7.188 -0.1802 -0.2693  0.5223
80629W        W23541  10.807  13.914   8.977 -0.1013  0.3551  0.0221
80630W        W23542   7.522  12.105   5.995 -0.2046  0.0599  0.2135
80631W        W23543   9.563  10.797   5.398  0.1860  0.0123 -0.0213
80632W        W23544   7.256  11.420   4.105  0.1258  0.0547 -0.3021
80633W        W23545   7.738  12.529   6.114  0.0040  0.0038  0.7257
80634W        W23546   9.652  13.001   5.738  0.3050 -0.1822 -0.0040
80635W        W23547   9.191  14.516   3.526 -0.1642  0.1570 -0.1546
80636W        W23548  11.340  10.886   4.832  0.1829 -0.0789  0.2436
80637W        W23549   9.203  11.800   4.743 -0.0638 -0.0560  0.2382
80638W        W23550   9.727  12.643   4.309 -0.2693 -0.1019 -0.0942
80639W        W23551   9.577  12.256   4.039 -0.0258  0.1276 -0.1947
80640W        W23552   8.567  12.956   4.840 -0.0584 -0.2452  0.1723
80641W        W23553   6.761  12.353   7.012  0.1043 -0.0084  0.1006
80642W        W23554  10.391  10.833   5.240  0.0232  0.2341  0.0893
80643W        W23555   8.410  13.369   5.124 -0.4035  0.4782 -0.1517
80644W        W23556  10.109  12.086   5.125 -0.0767  0.0041 -0.2225
80645W        W23557   9.637  12.323   6.501 -0.0120  0.2413 -0.3637
80646W        W23558   7.825  12.676   7.246  0.0538 -0.1417 -0.0661
80647W        W23559   8.098  11.069   5.595  0.0580 -0.0932 -0.3056
80648W        W23560  10.187  13.277   6.901 -0.5230 -0.0885 -0.0428
80649W        W23561  10.427  11.594   3.086  0.3508  0.2745 -0.3576
80650W        W23562  10.333  10.733   4.766  0.0887 -0.0501 -0.0501
80651W        W23563  10.967  10.920   4.413 -0.0038  0.1254 -0.0881
80652W        W23564   9.390  13.332   3.255  0.3336  0.1450  0.1991
80653W        W23565   7.125  12.356   4.031  0.3268  0.2119 -0.0458
80654W        W23566   9.954  13.160   8.342 -0.0524 -0.0928  0.2136
80655W        W23567   7.501  12.613   4.366  0.0971  0.1217  0.0023
80656W        W23568   8.378  10.819   5.920  0.2703 -0.2351 -0.3945
80657W        W23569   9.292  15.341   1.997 -0.0532 -0.1532 -0.1747
80658W        W23570   8.884  14.194   4.177  0.0208 -0.0552  0.0541
80659W        W23571  11.777  12.940   2.919 -0.0002  0.1113 -0.4188
80660W        W23572   7.080  10.594   6.248  0.2730  0.0277 -0.3179
80661W        W23573   7.290  14.839   7.890  0.2248 -0.4223 -0.1645
80662W        W23574   8.015  11.762   3.250  0.0396  0.1523 -0.0878
80663W        W23575   9.436  12.313   4.589  0.0406 -0.2482  0.2281
80664W        W23576   9.936  12.907   6.739  0.0702  0.1805  0.0243
80665W        W23577  11.999  12.515   6.191  0.1814  0.2168  0.0208
80666W        W23578   8.204  11.822   4.791 -0.1026 -0.2616 -0.0492
80667W        W23579  10.855  10.649   5.444  0.3038  0.1026 -0.1148
80668W        W23580   7.179  12.891   4.796 -0.1244 -0.0876 -0.2402
80669W        W23581   8.612  11.235   5.670  0.1625  0.1157 -0.2154
80670W        W23582   8.626  13.932   6.045  0.0950 -0.0643  0.0029
80671W        W23583   7.343  12.485   7.200 -0.2089  0.0697  0.0434
80672W        W23584  10.043  12.906   4.914  0.0004  0.2049 -0.2346
80673W        W23585   9.949  11.133   5.390  0.0008 -0.1491 -0.2228
80674W        W23586   8.998  12.103   4.346  0.0829 -0.1955 -0.1327
80675W        W23587   9.315  12.039   5.754 -0.0550  0.0134 -0.1616
80676W        W23588  10.379  13.139   6.437 -0.0586  0.1745  0.0995
80677W        W23589   7.961  12.051   5.558  0.1046 -0.2883 -0.0712
80678W        W23590   7.375  13.377   4.788  0.0687 -0.1705  0.0776
80679W        W23591   9.493  12.936   6.557 -0.0300  0.2866  0.1148
80680W        W23592   9.789  14.953   3.149 -0.2780  0.1581 -0.0126
80681W        W23593   8.216  13.705   4.784  0.0542 -0.1428 -0.0091
80682W        W23594   6.383  12.127   6.782  0.0531  0.0037  0.1334
80683W        W23595  10.317  11.912   6.916 -0.1867  0.2590 -0.1180
80684W        W23596   9.425  11.908   5.272 -0.4646  0.0332  0.2342
80685W        W23597   8.575  11.065   3.521 -0.1280 -0.0725 -0.2772
80686W        W23598   8.690  13.475   3.659  0.1758  0.0365  0.0906
80687W        W23599   7.784  13.626   8.306 -0.1713  0.3660  0.0540
80688W        W23600   8.709  12.285   5.924  0.4047  0.1963 -0.0305
80689W        W23601   9.117  15.289   3.676  0.2286 -0.0449  0.1549
80690W        W23602   9.659  11.888   4.795  0.1587 -0.0265 -0.2539
80691W        W23603  11.410  13.730   2.722  0.0630  0.0878 -0.2281
80692W        W23604  10.280  12.710   5.869  0.0396 -0.2994 -0.0990
80693W        W23605   9.131  12.308   3.194 -0.1372 -0.0422 -0.0055
80694W        W23606   8.635  13.934   4.495 -0.0737  0.2368 -0.2548
80695W        W23607   6.223  15.083   4.970  0.2041  0.1048  0.2132
80696W        W23608  10.214  13.015   5.421 -0.2930 -0.0807 -0.2669
80697W        W23609   7.721  13.972   5.338 -0.0372  0.3743 -0.2345
80698W        W23610  10.013  12.394   6.849 -0.2019 -0.1629  0.1301
80699W        W23611  11.468  11.400   3.333 -0.1476  0.2118 -0.2805
80700W        W23612  11.154  12.362   2.645  0.2369 -0.3147 -0.1976
80701W        W23613  11.271  12.640   4.170  0.1928  0.1346 -0.0863
80702W        W23614   9.551  12.638   7.071 -0.1757  0.0572 -0.2412
80703W        W23615   7.635  12.535   4.872  0.1788 -0.0100  0.2136
80704W        W23616   9.684  10.520   4.105  0.5526 -0.3906  0.1235
80705W        W23617   7.386  12.987   7.117  0.0212  0.0331 -0.1935
80706W        W23618   9.601  10.387   7.603 -0.0762  0.1159 -0.1892
80707W        W23619   6.736  14.555   7.286 -0.0540  0.3895  0.0703
80708W        W23620  10.305  12.735   4.005 -0.0521  0.3703 -0.1462
80709W        W23621   7.038  12.764   3.676 -0.0832 -0.1745  0.0309
80710W        W23622   8.120  13.587   2.849 -0.0356 -0.2374  0.0322
80711W        W23623  10.147  10.178   6.251 -0.0571 -0.1322  0.0492
80712W        W23624   9.315  12.908   3.537 -0.3493  0.1844 -0.2655
80713W        W23625   8.873  12.072   5.318 -0.2010 -0.4753  0.1993
80714W        W23626   9.449  14.099   3.315 -0.0076  0.2349 -0.2755
80715W        W23627   8.243  12.725   5.782  0.0587 -0.0469  0.0790
80716W        W23628   8.233  13.836   5.311 -0.1901 -0.0063  0.3632
80717W        W23629   6.824  11.047   4.753 -0.2212 -0.1309  0.1898
80718W        W23630  10.580  11.640   4.413  0.3133 -0.3850  0.2078
80719W        W23631   7.627  13.212   7.933  0.1422 -0.2354 -0.3155
80720W        W23632  10.591  11.054   5.614  0.3126  0.1572 -0.1914
80721W        W23633   8.153  12.652   4.766  0.4385  0.0969  0.0342
80722W        W23634  10.602  12.274   2.328 -0.0777  0.2051  0.2600
80723W        W23635   9.830  12.541   6.018 -0.0526  0.1870 -0.0564
80724W        W23636   6.908  11.406   5.039 -0.1057  0.1382 -0.0998
80725W        W23637   8.878  13.043   3.853 -0.2432  0.0167 -0.1468
80726W        W23638   9.303  11.895   6.579 -0.1383 -0.1763 -0.3877
80727W        W23639   9.872  11.986   3.668 -0.2258 -0.0334 -0.0574
80728W        W23640   9.501  12.829   8.519 -0.1889 -0.2033 -0.0657
80729W        W23641   7.649  11.672   5.627  0.0655 -0.0665  0.0731
80730W        W23642   9.889  11.229   4.890 -0.0863  0.1963  0.2021
80731W        W23643   6.811  12.813   5.888 -0.2079 -0.0327  0.1198
80732W        W23644   8.939  13.179   6.328 -0.0468  0.1542 -0.2104
80733W        W23645  11.314  12.988   6.308 -0.2978  0.3002  0.0563
80734W        W23646   8.153  13.562   3.820 -0.0148  0.0774  0.2570
80735W        W23647  10.520  14.108   4.331  0.0592  0.0748 -0.0900
80736W        W23648   8.983  11.358   4.878  0.2511 -0.3142  0.1437
80737W        W23649   9.467  15.278   2.991 -0.2507  0.2166 -0.0332
80738W        W23650  10.186  12.620   4.467 -0.1589 -0.2960 -0.2466
80739W        W23651  10.651  12.840   5.575 -0.0709  0.0767 -0.1567
80740W        W23652   7.216  12.127   6.866  0.3067 -0.0248 -0.1399
80741W        W23653   9.061  14.203   6.774  0.4495 -0.1731  0.0163
80742W        W23654  10.230  12.681   6.357 -0.0884  0.0175  0.0483
80743W        W23655   9.254  11.609   4.238  0.0957 -0.4204  0.2393
80744W        W23656   6.839  11.244   5.680  0.0856  0.1668 -0.2352
80745W        W23657   7.863  13.534   5.136  0.0098  0.0471  0.1405
80746W        W23658   8.512  11.400   4.703  0.1229  0.5481  0.0243
80747W        W23659   8.212  12.290   7.604 -0.2469 -0.1441  0.2957
80748W        W23660   8.801  14.858   3.568  0.0732  0.1890 -0.1709
80749W        W23661  10.284   9.393   5.672  0.0316  0.0891 -0.4232
80750W        W23662   7.494  13.986   7.473  0.2103 -0.4984 -0.2145
80751W        W23663   7.801  14.105   8.151 -0.2431  0.1885 -0.0726
80752W        W23664   8.022  12.952   3.930  0.0062 -0.1777 -0.1081
80753W        W23665   8.522  14.235   5.650  0.0803  0.0477  0.1615
80754W        W23666   9.417  13.518   5.070 -0.1667 -0.1654  0.3171
80755W        W23667   9.379  14.931   3.831 -0.1403  0.2834  0.3537
80756W        W23668   9.868  12.665   7.598  0.3449 -0.0575  0.4299
80757W        W23669   9.031  13.155   4.319  0.2153 -0.1002  0.0922
80758W        W23670  10.891  13.234   5.739 -0.0258  0.0599  0.0742
80759W        W23671   8.380  12.609   3.810  0.0678 -0.4961  0.0978
80760W        W23672  11.146  12.903   3.656 -0.0233 -0.2991  0.2198
80761W        W23673   9.956  10.896   3.977  0.0685 -0.1076  0.2213
80762W        W23674   7.868  13.734   7.216  0.3539  0.0496  0.1497
80763W        W23675   7.547  12.823   3.887 -0.0220 -0.0160  0.0421
80764W        W23676   9.614  12.049   2.474 -0.2845  0.2349 -0.0547
80765W        W23677   7.783  12.706   5.473  0.0711  0.1719 -0.0628
80766W        W23678   8.998  11.282   6.067 -0.0150  0.0258  0.0255
80767W        W23679   8.303  11.259   6.155 -0.1140  0.0797 -0.2764
80768W        W23680   6.506  13.170   5.023  0.2290 -0.1118 -0.1403
80769W        W23681   7.812  11.442   4.917  0.1016 -0.2470 -0.1378
80770W        W23682  10.109  14.049   4.548 -0.0745 -0.2613  0.1901
80771W        W23683   7.648  11.109   5.903 -0.0550  0.0880 -0.0970
80772W        W23684   6.619  11.800   5.785 -0.3634 -0.3257  0.0908
80773W        W23685   9.115  12.674   4.068 -0.1497 -0.2975 -0.0140
80774W        W23686   9.673  13.792   4.633 -0.1259  0.0827  0.1941
80775W        W23687   8.157  11.485   4.328  0.0068 -0.1709  0.0000
80776W        W23688  10.510  11.445   6.641 -0.0372  0.1128 -0.3064
80777W        W23689   8.520  13.355   2.731  0.0862  0.1791 -0.5336
80778W        W23690   8.492  12.718   7.488  0.3493 -0.1175  0.0327
80779W        W23691   7.846  10.617   5.727  0.0859 -0.3191  0.0516
80780W        W23692   6.009  11.679   2.158 -0.0569 -0.1994  0.1762
80781W        W23693   8.019  11.602   6.479  0.1259 -0.1239 -0.1890
80782W        W23694   9.928  12.363   4.781  0.0433 -0.2744 -0.2035
80783W        W23695  10.939  14.977   3.295  0.2828 -0.1238  0.0643
80784W        W23696   7.780  12.718   6.728 -0.0738  0.0402  0.0269
80785W        W23697   9.071  13.668   6.100 -0.2059 -0.2247  0.0779
80786W        W23698   7.393  10.211   6.412 -0.1707  0.3285 -0.1270
80787W        W23699   8.857  12.548   4.525  0.0003 -0.1612 -0.2471
80788W        W23700   9.207  13.693   6.934 -0.1105  0.0302 -0.1338
80789W        W23701  10.434  13.400   3.450 -0.0227  0.0995 -0.0131
80790W        W23702  11.012   9.801   6.066  0.2102 -0.0770  0.0824
80791W        W23703  10.085  11.569   4.434 -0.0200  0.3550 -0.2242
80792W        W23704   6.292  11.074   6.859  0.1208 -0.2595 -0.0319
80793W        W23705   8.073  15.114   7.285  0.2860  0.1535  0.0788
80794W        W23706  10.440  13.264   5.932  0.2241  0.1549 -0.2661
80795W        W23707   9.415  10.514   5.041 -0.1850 -0.3582  0.0787
80796W        W23708  10.749  11.727   3.850  0.0951 -0.0958  0.3544
80797W        W23709   9.584  12.411   3.456  0.1501  0.0040  0.2796
80798W        W23710   8.397  12.273   4.442  0.2787 -0.1283 -0.0627
80799W        W23711   9.154  11.346   3.844  0.2639 -0.3177  0.4402
80800W        W23712   9.183  13.066   6.935 -0.0663 -0.0764  0.0778
80801W        W23713  10.344  13.299   4.939 -0.2535 -0.2533 -0.2529
80802W        W23714   9.805  12.130   5.529 -0.2562  0.0873  0.2527
80803W        W23715   7.886  12.210   4.603 -0.2969  0.0204 -0.0513
80804W        W23716  11.058  13.663   3.111  0.0278 -0.0743  0.3213
80805W        W23717   9.059  14.600   6.453  0.0957 -0.1740  0.1392
80806W        W23718  10.041  13.286   7.815 -0.1434 -0.1784  0.2088
80807W        W23719   8.496  15.139   5.850 -0.0441 -0.1081  0.1059
80808W        W23720   9.366  12.401   5.281 -0.0299 -0.3167  0.0080
80809W        W23721   7.113   9.583   6.355 -0.1138  0.0278 -0.1596
80810W        W23722   6.786  12.779   5.171  0.0536 -0.2110 -0.0250
80811W        W23723   8.459  13.207   4.051  0.1714 -0.0511  0.0077
80812W        W23724  10.773  11.050   4.837 -0.0858  0.1102  0.1351
80813W        W23725   8.358  11.065   5.090  0.2110 -0.0425  0.2813
80814W        W23726  10.403  11.387   3.562 -0.1647  0.2040 -0.1371
80815W        W23727   8.993  15.511   6.831  0.0498 -0.4587  0.3070
80816W        W23728  10.027  12.869   7.206 -0.0388  0.0884 -0.0589
80817W        W23729   7.443  12.121   8.890 -0.0621 -0.1511 -0.0568
80818W        W23730   8.538  12.427   7.934 -0.0090  0.1807  0.2395
80819W        W23731  10.378  10.462   7.103 -0.0659 -0.1520  0.0019
80820W        W23732  11.248  11.839   7.676 -0.2389 -0.2335  0.2266
80821W        W23733   7.505  11.132   8.374 -0.3410 -0.2681  0.0103
80822W        W23734   9.788  15.045   7.694  0.2671  0.0264  0.1184
80823W        W23735  11.003  13.471   9.118  0.1223  0.3063  0.0255
80824W        W23736  11.625  12.707   9.280  0.1331 -0.3831  0.3850
80825W        W23737   9.107  12.809   7.379 -0.0288  0.2447  0.2495
80826W        W23738  10.200  11.193   9.164  0.0371  0.2116  0.1739
80827W        W23739   8.609  11.184   8.495  0.1555 -0.1684  0.1106
80828W        W23740   6.598  10.207   9.699 -0.0536 -0.1659 -0.0593
80829W        W23741  10.875  12.428   8.522 -0.1376  0.3234 -0.1323
80830W        W23742   9.150  11.240   8.216  0.2183 -0.0614  0.0679
80831W        W23743   8.273  11.017   9.333 -0.0686 -0.0778 -0.3251
80832W        W23744   9.227  10.796   8.465  0.2357 -0.2642  0.2106
80833W        W23745   9.553  14.084   7.844 -0.0028 -0.0117  0.0818
80834W        W23746   7.922   9.973   9.017  0.3968 -0.1389  0.0399
80835W        W23747   9.579  13.065   7.356  0.1371  0.2553  0.0215
80836W        W23748   6.345  13.001   6.375 -0.3494  0.2648 -0.3724
80837W        W23749   8.360  10.907   9.817 -0.0100 -0.3594  0.2439
80838W        W23750   7.846  11.950   9.036 -0.2025  0.0145 -0.2086
80839W        W23751   9.172  10.306   8.381 -0.3008 -0.0597  0.2516
80840W        W23752   9.752  12.533   9.325  0.1399  0.0710  0.1267
80841W        W23753   9.567  12.297   9.892  0.2773  0.0337 -0.0887
80842W        W23754  10.614  14.482   9.561 -0.0787 -0.0650 -0.1602
80843W        W23755   7.310  11.781   8.521 -0.0855 -0.2598  0.0706
80844W        W23756   7.231  15.286   9.139  0.2052  0.1651  0.3032
80845W        W23757   8.789  13.329   8.868 -0.2723  0.0241  0.0263
80846W        W23758  10.511  13.931   7.974  0.0309  0.0829 -0.2612
80847W        W23759   7.135  13.216   7.668 -0.3102 -0.0077  0.2493
80848W        W23760   9.769  11.001   9.206  0.0308  0.0040  0.0107
80849W        W23761   9.077  11.869   7.507  0.1628 -0.2340 -0.2865
80850W        W23762   9.893  12.885   8.935  0.1275 -0.1269 -0.0545
80851W        W23763  11.645  14.036  10.162  0.1095 -0.1060 -0.4392
80852W        W23764   8.182  12.531   8.533 -0.1914 -0.0122  0.4913
80853W        W23765   7.988  14.081   7.593  0.2066  0.3294 -0.1769
80854W        W23766   8.550  13.449   6.265 -0.2440 -0.0561  0.2167
80855W        W23767   9.177  11.669   7.923  0.1389 -0.0497 -0.1596
80856W        W23768   8.933  12.803   7.904 -0.1229  0.1114 -0.2901
80857W        W23769   8.819  11.296   9.413  0.1208  0.1740  0.0446
80858W        W23770   9.465  14.583   8.851 -0.1988 -0.0239 -0.0989
80859W        W23771   8.509   9.890   9.875  0.1614 -0.2756  0.0437
80860W        W23772  10.097  10.235   9.286 -0.0246 -0.1325 -0.2907
80861W        W23773  10.755  11.678   9.298  0.1961 -0.0047  0.0767
80862W        W23774   9.449  13.637   9.113  0.1967 -0.1752  0.2649
80863W        W23775   5.960  10.379  10.172  0.3106  0.1050 -0.0373
80864W        W23776  10.603  12.338   6.028 -0.1000  0.0695  0.1067
80865W        W23777  11.115  14.692   8.316 -0.0029 -0.3031 -0.1697
80866W        W23778   8.258  13.683   7.515  0.1835 -0.1721  0.1361
80867W        W23779   6.769  10.696  10.596  0.0132 -0.3172 -0.1674
80868W        W23780   7.638  11.528   6.975 -0.1854 -0.0016 -0.1406
80869W        W23781   9.149  12.083   9.567  0.1933 -0.1516  0.4553
80870W        W23782   9.735  12.034   9.060  0.0135  0.0417  0.1472
80871W        W23783  10.387  14.020   9.298  0.1913  0.1831  0.2246
80872W        W23784   8.695  13.083   7.195 -0.1545  0.1840  0.0362
80873W        W23785  10.005  10.596   8.884 -0.2272 -0.2451  0.4916
80874W        W23786  10.089  10.235   9.805 -0.1136  0.0754  0.3966
80875W        W23787   8.586  14.143   7.585  0.1025  0.0220  0.0282
80876W        W23788   8.420  13.675   6.796  0.2280 -0.0579 -0.1272
80877W        W23789  10.238  12.813   8.082  0.1443 -0.3428  0.3769
80878W        W23790  10.147  11.408   6.987 -0.0895  0.0572 -0.0720
80879W        W23791   7.406  14.229   9.158 -0.1897  0.2721 -0.0454
80880W        W23792   6.899  13.182   8.524  0.0427 -0.0053 -0.0326
80881W        W23793   7.697  13.440   8.849 -0.1181  0.1682  0.2574
80882W        W23794   7.866  11.906   8.552  0.6773 -0.1090 -0.1969
80883W        W23795   9.252   9.596   9.499 -0.1776  0.1311 -0.1539
80884W        W23796   9.244  12.651   9.552  0.2706 -0.0777  0.2189
80885W        W23797  10.343  10.828   8.089  0.0593  0.0433  0.0673
80886W        W23798  10.347   9.646   8.748  0.0127  0.2451  0.0723
80887W        W23799   8.985  11.047   8.842 -0.0892  0.0459  0.0371
80888W        W23800  10.961  14.356   7.136 -0.0125  0.0294 -0.0833
80889W        W23801  11.197  11.957   8.158  0.0395  0.0511  0.1667
80890W        W23802   9.532  13.479   7.690  0.1700  0.1896 -0.2919
80891W        W23803   6.690  12.954   9.441 -0.0820  0.0403  0.2960
80892W        W23804   8.240  10.835   8.818  0.0002  0.0083 -0.0509
80893W        W23805   7.992   9.664   9.445  0.2096  0.0501 -0.0444
80894W        W23806   8.075  10.858   7.406  0.1546  0.0638  0.0620
80895W        W23807   9.738   9.342   8.800 -0.0989  0.1897  0.3238
80896W        W23808   9.633  11.434   8.336  0.3039  0.2216 -0.1049
80897W        W23809   8.307  11.537   8.378  0.4664  0.2956 -0.1817
80898W        W23810   9.169  14.161   8.815 -0.0889 -0.1956 -0.1588
80899W        W23811  11.350  12.749   8.105  0.0287 -0.0636 -0.1754
80900W        W23812  11.727  12.208   8.013 -0.3407  0.0951  0.0738
80901W        W23813   7.921  11.409   9.309 -0.0633  0.0575 -0.2034
80902W        W23814   7.544  12.099   8.118  0.1168  0.0980  0.1064
80903W        W23815   8.166  13.383   8.478 -0.0656 -0.4572 -0.1889
80904W        W23816  10.410  13.090   9.000  0.0805  0.1464 -0.0643
80905W        W23817   7.842  10.693   6.913  0.2398 -0.0135  0.2578
80906W        W23818  10.820  12.568   7.553 -0.0772 -0.2519  0.1481
80907W        W23819   9.209  13.750  10.118 -0.0224  0.1323 -0.0850
80908W        W23820  12.297  13.212   9.794  0.0254 -0.3064 -0.1239
80909W        W23821   9.752  11.519   9.179 -0.0891  0.1225 -0.2379
80910W        W23822   6.753  10.895   6.999  0.0957 -0.0396  0.0561
80911W        W23823   9.636  13.496   9.619  0.1245  0.2028  0.0356
80912W        W23824   7.295  13.148   8.936  0.0917  0.3599 -0.3008
80913W        W23825   7.255  12.367   8.379  0.0405  0.0583  0.3335
80914W        W23826  10.677  12.520   9.489  0.3618  0.1006 -0.1393
80915W        W23827  10.486  11.007   8.486 -0.0796 -0.2107  0.2172
80916W        W23828   7.661  12.333   7.598  0.1593  0.1543  0.0197
80917W        W23829  10.836  10.506   7.883  0.0714  0.1577 -0.1573
80918W        W23830   9.709  11.212   6.483  0.1098 -0.1015  0.1748
80919W        W23831  10.490  13.001   8.473 -0.1608 -0.1792 -0.3402
80920W        W23832   8.913  11.655   6.382 -0.0088  0.1836  0.3382
80921W        W23833   9.346   9.954   7.397  0.1033 -0.2497 -0.0395
80922W        W23834   9.495  13.217   8.208 -0.3424  0.2068  0.2600
80923W        W23835  10.282  12.220   9.263  0.0305 -0.1406 -0.2027
80924W        W23836   9.978  10.949   7.108  0.1461 -0.0018 -0.2371
80925W        W23837  11.782  13.733   7.978 -0.0403 -0.0204  0.0881
80926W        W23838   6.743  12.325   9.474 -0.1470 -0.1276  0.2912
80927W        W23839  10.198  13.561   8.677 -0.0760 -0.0391  0.6112
80928W        W23840   9.245  11.432   9.772  0.0223  0.0828 -0.1221
80929W        W23841   7.926  11.997   7.317  0.0210 -0.2160  0.3214
80930W        W23842   9.341  10.041   5.827  0.0007 -0.1299  0.0258
80931W        W23843   6.214  13.903   7.221 -0.0977 -0.1438 -0.3212
80932W        W23844  10.738  11.017   8.894  0.0553 -0.2616 -0.2169
80933W        W23845  11.809  15.065   9.897  0.0820 -0.0255  0.3322
80934W        W23846  10.518  11.012   7.050 -0.2110  0.1823 -0.1633
80935W        W23847   9.088  12.197   9.084  0.2306  0.2098 -0.0857
80936W        W23848   6.433  12.621   6.744 -0.0758 -0.0057 -0.0026
80937W        W23849   9.251  11.022   9.292 -0.2598  0.1642  0.0828
80938W        W23850   6.404  13.912   9.191  0.1973  0.1622  0.0681
80939W        W23851  10.248  11.841   8.251 -0.1295  0.1542 -0.1320
80940W        W23852   8.540  10.491   7.851 -0.0601  0.0057 -0.0300
80941W        W23853   9.075  14.321   7.770  0.1409  0.3408  0.0832
80942W        W23854   8.123  13.297   7.972 -0.5744 -0.1817  0.0344
80943W        W23855   9.204  10.154  10.237 -0.1691 -0.3039  0.1185
80944W        W23856  10.489  15.318   8.677  0.3827 -0.0305 -0.0294
80945W        W23857   8.855  12.314   7.563  0.1199  0.1954 -0.3429
80946W        W23858  10.562  11.440   8.141 -0.1307 -0.1846 -0.2866
80947W        W23859   8.216  13.974   8.492  0.1657  0.3130  0.3247
80948W        W23860  10.533  10.503   9.590  0.0719  0.1336 -0.1809
80949W        W23861   6.397  13.136   8.405  0.2913 -0.2892 -0.1160
80950W        W23862   9.110  10.541   8.881  0.0778  0.0068 -0.0253
80951W        W23863   7.338  10.311   8.812  0.2075 -0.1478 -0.3297
80952W        W23864  10.655  11.290   6.082 -0.0111 -0.2141  0.1223
80953W        W23865  10.799  12.319   8.029 -0.0685  0.0300 -0.2447
80954W        W23866   7.822  10.504   9.076 -0.2455 -0.0631 -0.1192
80955W        W23867   9.094  10.547   9.450  0.5005  0.0279  0.0445
80956W        W23868   6.099  13.453   9.653 -0.3167 -0.0796  0.0159
80957W        W23869   8.619  11.976   7.189  0.0815 -0.4345  0.3472
80958W        W23870   8.307  12.141   8.836 -0.1187  0.0131 -0.0808
80959W        W23871  11.487  14.450   9.275 -0.0724  0.0250  0.3737
80960W        W23872   8.084  11.557   8.829 -0.0059  0.1287 -0.2305
80961W        W23873   6.578  12.223   8.424 -0.4960  0.1931  0.0347
80962W        W23874  11.173  11.323   8.838  0.1864  0.0630  0.2882
80963W        W23875   9.315  11.723   9.295  0.0606  0.2110 -0.2453
80964W        W23876   8.290  11.823   9.259  0.1274 -0.1707  0.1240
80965W        W23877  12.099  14.248   9.321  0.0257  0.0386 -0.3124
80966W        W23878   8.893  12.919   9.128  0.0028  0.0098  0.2234
80967W        W23879   9.779  11.739   6.639 -0.3209  0.0366 -0.0051
80968W        W23880  10.498  10.500   8.943  0.0030  0.2410  0.0988
80969W        W23881  10.801  11.968   6.966 -0.0264  0.0936  0.1744
80970W        W23882  10.531  10.520  10.179  0.1550  0.0643 -0.1922
80971W        W23883  10.498  10.022   9.038  0.1751 -0.0550  0.1591
80972W        W23884  10.218  14.503   6.857 -0.3029 -0.0577 -0.2700
80973W        W23885   7.726  12.278   6.965 -0.0343 -0.0806 -0.0230
80974W        W23886   7.533  11.107   9.279 -0.2346  0.2271 -0.0194
80975W        W23887  10.236  12.710   9.466  0.1646 -0.2176  0.1883
80976W        W23888  10.016  12.103   7.886 -0.1812 -0.0942  0.4660
80977W        W23889   8.779  14.257  10.126  0.1890 -0.1906 -0.1043
80978W        W23890   8.907  13.691   9.177 -0.0745  0.1686 -0.0545
80979W        W23891   6.209  13.239   9.197  0.0194 -0.1932 -0.1765
80980W        W23892   9.317  10.463   7.262 -0.2704 -0.1316  0.0799
80981W        W23893   9.942  14.083   7.347  0.1020  0.1035  0.0459
80982W        W23894   8.206  10.336   8.763 -0.1272  0.1600 -0.1763
80983W        W23895   9.135  13.278   7.427  0.0985  0.2048  0.0036
80984W        W23896  10.283   9.264   9.734 -0.0497 -0.1127 -0.0677
80985W        W23897   9.785  12.543   8.156  0.0109 -0.1552  0.1401
80986W        W23898   8.209  10.903   7.899  0.1429 -0.0434 -0.1404
80987W        W23899   8.627  10.958   7.706  0.0427 -0.1035  0.0764
80988W        W23900   9.913  11.674   8.720 -0.4420 -0.2323 -0.0806
80989W        W23901  12.518  12.267   9.612 -0.2162 -0.1726 -0.1576
80990W        W23902   9.948  13.609   9.138  0.2706 -0.2105  0.2501
80991W        W23903  10.095  11.347   8.252 -0.1623 -0.3942 -0.1737
80992W        W23904   8.569  11.708   8.779 -0.2040  0.6321  0.0904
80993W        W23905  10.158  11.564   7.820  0.0908 -0.4187 -0.0535
80994W        W23906   9.036  13.344   8.006 -0.2302 -0.0505 -0.0789
80995W        W23907   8.597  12.140   8.364  0.0645 -0.0764 -0.0735
80996W        W23908   8.907  11.633   8.397  0.1502 -0.3012  0.0271
80997W        W23909   9.637  10.050   9.445  0.2378  0.0354 -0.0219
80998W        W23910  11.066  14.165   8.125  0.1414 -0.0933  0.0266
80999W        W23911  10.110   9.202   6.526 -0.1778 -0.1536 -0.1868
81000W        W23912  10.974  11.475   6.516  0.2539  0.0120 -0.3053
81001W        W23913  10.351  12.039   8.782  0.2236  0.2249 -0.1471
81002W        W23914   9.807  11.742   7.118 -0.2079 -0.3288  0.0878
81003W        W23915   8.706  10.815   9.163  0.1181  0.1420 -0.2339
81004W        W23916   8.649  11.465   7.376 -0.2370 -0.1673  0.1841
81005W        W23917   8.633  14.372   8.196 -0.0580 -0.1205 -0.0072
81006W        W23918  10.397  14.292   7.290 -0.0746 -0.3284 -0.3602
81007W        W23919   9.696  11.884   9.601 -0.0907 -0.0588  0.1084
81008W        W23920   6.849  12.654   8.489  0.2685 -0.2601 -0.2667
81009W        W23921   7.332  11.984   7.538  0.0597  0.1495  0.0077
81010W        W23922   9.976  12.145   7.386  0.0537 -0.1584  0.0677
81011W        W23923  11.837  13.024   9.970 -0.0194 -0.0156  0.0022
81012W        W23924   8.929  10.771   6.839 -0.0352  0.0463  0.1908
81013W        W23925   7.798  11.606   8.188  0.0511  0.0777  0.2290
81014W        W23926   9.466  10.938   9.742 -0.1382  0.0048 -0.1595
81015W        W23927   8.287  13.270   9.553 -0.2703 -0.0298 -0.6776
81016W        W23928  10.447  11.346   9.575 -0.0525 -0.0520  0.1941
81017W        W23929   9.620  10.558   9.318 -0.0110  0.0846  0.4380
81018W        W23930  10.738  12.105   7.427 -0.0091 -0.0669  0.0385
81019W        W23931   9.448  11.783   8.722  0.1400 -0.4415 -0.1016
81020W        W23932   8.028  12.213   9.499  0.0297  0.1685  0.1085
81021W        W23933  11.321  12.405   8.427 -0.1504 -0.2212  0.0889
81022W        W23934   9.153  13.407   9.463 -0.2535  0.1309 -0.4239
81023W        W23935   9.057  11.511   8.895  0.1686 -0.3926 -0.3644
81024W        W23936   7.572   9.426   8.337  0.1033 -0.0548 -0.2466
81025W        W23937   8.476  12.837   8.776 -0.3422  0.0657 -0.2316
81026W        W23938   7.298  12.371   9.398  0.2210  0.0684  0.1190
81027W        W23939   8.201  13.782   8.028 -0.1234  0.0341 -0.1607
81028W        W23940   9.097  13.686   7.665  0.2917 -0.0649 -0.1301
81029W        W23941   9.798  12.457   8.732 -0.0693 -0.0203 -0.0439
81030W        W23942  11.345  15.173   9.524  0.1080  0.1449 -0.2745
81031W        W23943   8.613  12.446   7.058 -0.1711  0.1745 -0.0466
81032W        W23944   7.718  12.381   8.558  0.3779  0.1041  0.1986
81033W        W23945   7.198  12.813   7.978  0.1214  0.1683 -0.0021
81034W        W23946  11.172  13.918   6.851 -0.1033 -0.0349 -0.2041
81035W        W23947   6.889  14.041   9.281 -0.2576  0.1256  0.0742
81036W        W23948   9.445  10.989   7.213  0.0105  0.2687  0.0126
81037W        W23949  11.109  11.230   9.565 -0.1074  0.0348  0.0141
81038W        W23950  11.252  11.317   7.608 -0.2357 -0.2858 -0.1978
81039W        W23951   8.952  10.589   7.583 -0.3291  0.1377  0.2317
81040W        W23952   8.543  11.527   6.925 -0.0815 -0.1539 -0.0129
81041W        W23953   9.295  13.700   8.236  0.0568  0.0364  0.1342
81042W        W23954   7.894  11.830   7.777  0.0553  0.0265 -0.1322
81043W        W23955   9.639  11.774   7.697 -0.1292 -0.2705  0.0792
81044W        W23956  11.474  12.983   9.620 -0.2070  0.3188 -0.3222
81045W        W23957   9.044  12.721   6.136  0.0497  0.0922 -0.2716
81046W        W23958  10.022  11.020   7.787 -0.2866 -0.1701  0.1230
81047W        W23959   9.643  14.117   9.037 -0.0059 -0.0292  0.1354
81048W        W23960   8.471  12.842   9.407  0.0203  0.1621 -0.3255
81049W        W23961   9.507  14.947   9.406 -0.1093 -0.0524  0.1984
81050W        W23962   7.892  10.581   8.123  0.0906  0.0041  0.0907
81051W        W23963  11.372  12.987   6.939  0.1259 -0.1037 -0.0005
81052W        W23964   6.653  11.947   9.805  0.2340  0.0782  0.1215
81053W        W23965   8.460  11.375   9.074 -0.0860 -0.4231 -0.2029
81054W        W23966  10.503  11.977   7.850  0.1002 -0.0585 -0.1773
81055W        W23967   9.100  12.154   7.965 -0.0887  0.2804  0.3310
81056W        W23968   5.911   9.624   9.400  0.0419  0.0446 -0.1106
81057W        W23969   9.350  12.675   9.074  0.1603 -0.0350  0.1783
81058W        W23970   7.506  12.315   6.479  0.2483 -0.0637 -0.2984
81059W        W23971   7.462   9.114   8.855 -0.1643 -0.1312 -0.0656
81060W        W23972  10.312   9.728   7.734 -0.2254 -0.0647  0.1474
81061W        W23973   5.698  11.111   9.476 -0.0252 -0.2227 -0.0560
81062W        W23974   7.462  11.892  10.152 -0.0780  0.0392  0.1175
81063W        W23975   7.086  10.748   8.559  0.0272  0.3738  0.1212
81064W        W23976  11.185  13.420   6.682  0.0067 -0.3668 -0.0862
81065W        W23977   9.963  11.079   8.664 -0.1159  0.2355  0.2448
81066W        W23978   9.069  14.715   8.087 -0.0203  0.1075  0.0286
81067W        W23979   9.652  11.991   8.308 -0.1753 -0.0509 -0.2908
81068W        W23980   6.485  13.838   9.728 -0.2998  0.3943 -0.0470
81069W        W23981   6.836  10.226   8.077 -0.0658 -0.0207 -0.0692
81070W        W23982  11.305  16.009   8.819  0.0567 -0.0487 -0.4186
81071W        W23983  11.460  13.567   8.281 -0.1766 -0.1519 -0.2161
81072W        W23984  10.689  10.566   8.352  0.1189  0.1726  0.1474
81073W        W23985   6.543  11.213   9.984  0.0435 -0.0106  0.1641
81074W        W23986   8.187  12.546   9.089 -0.1850  0.2974 -0.1314
81075W        W23987   9.707  10.879   8.292 -0.0197  0.1739  0.1429
81076W        W23988   8.468  14.378   8.701  0.1445  0.2176  0.0953
81077W        W23989  10.360  12.603   8.881 -0.2217  0.0324 -0.3531
81078W        W23990   7.546  13.349   7.391  0.1708 -0.1300  0.1414
81079W        W23991  10.080  14.126   6.563  0.0689 -0.2022 -0.0954
81080W        W23992   7.945  14.441   8.569  0.0673  0.1975 -0.0445
81081W        W23993  10.702  13.432   8.669 -0.1473 -0.3806  0.2013
81082W        W23994   9.402  12.944   7.814 -0.0030 -0.2295  0.0202
81083W        W23995  10.570  13.929   8.535  0.3219 -0.0851  0.3883
81084W        W23996  10.729  11.329  10.024 -0.3332  0.2461  0.2787
81085W        W23997  10.619  10.066   7.027 -0.1507 -0.3291 -0.0362
81086W        W23998   9.650   9.642   6.876 -0.0346 -0.1235 -0.1024
81087W        W23999   9.081  12.728   8.683 -0.4514  0.2003  0.0305
81088W        W24000   8.458  13.050   8.227  0.2118  0.1758 -0.1854
81089W        W24001   8.013  13.061   7.524  0.0140 -0.1155  0.1636
81090W        W24002   8.591  12.259   9.356 -0.0194 -0.3097 -0.0435
81091W        W24003   7.063  11.744   9.032 -0.0491 -0.3256  0.1063
81092W        W24004   8.083  10.449   7.684  0.2942  0.0257 -0.1452
81093W        W24005   9.945  14.110   8.215 -0.1018 -0.1130  0.2101
81094W        W24006   7.686  10.689   8.589 -0.1176  0.1014 -0.0278
81095W        W24007   6.390  10.709   9.758  0.2227 -0.0973 -0.3058
81096W        W24008  10.839  12.901   6.651  0.2022  0.1313 -0.1570
81097W        W24009  10.281  13.565   8.201 -0.2623  0.0388  0.2583
81098W        W24010   9.529   9.812   8.484  0.3130 -0.0952  0.2342
81099W        W24011   7.383  13.396   8.498  0.0918  0.0560  0.0589
81100W        W24012   6.903  11.379   6.920 -0.2019 -0.1145 -0.0393
81101W        W24013   9.084   9.556  10.070  0.1960 -0.0746 -0.0569
81102W        W24014  10.602  13.280   7.852 -0.1393 -0.2805 -0.0774
81103W        W24015  10.380  12.879   7.561  0.1086  0.0897 -0.1362
81104W        W24016   6.617   8.327   8.593  0.1786 -0.2419 -0.1762
81105W        W24017  10.650  11.488   7.133  0.0452 -0.3257  0.1936
81106W        W24018  11.258  12.671   7.320  0.0750  0.0252 -0.1453
81107W        W24019  11.443  10.213   9.316 -0.1589 -0.3037 -0.3675
81108W        W24020   9.831  11.341   7.404  0.2327  0.2791 -0.2857
81109W        W24021  11.666  11.984   8.483  0.0471  0.1456  0.1500
81110W        W24022   8.852  10.800   8.122 -0.2158 -0.2853 -0.0173
81111W        W24023  10.374  11.205   7.477  0.0281  0.0762 -0.1666
81112W        W24024  10.638  13.743   7.511  0.0413 -0.1819  0.1486
81113W        W24025   7.782  11.128   8.852  0.1179  0.0213 -0.1895
81114W        W24026   9.154  12.461   6.565 -0.3491 -0.1719 -0.0955
81115W        W24027   9.058  12.046   8.578 -0.1518 -0.2180 -0.2469
81116W        W24028   9.549  11.288   7.875  0.3510 -0.2514 -0.3315
81117W        W24029  10.401  12.401   7.197  0.3162  0.0344  0.1647
81118W        W24030  10.361  15.902   9.172 -0.4266  0.2637  0.0370
81119W        W24031  11.055  14.860   9.898 -0.3162 -0.3000 -0.0525
81120W        W24032  11.748  12.423   9.800 -0.1737  0.0932  0.0901
81121W        W24033   7.245   8.949   9.284 -0.1351  0.1965 -0.1512
81122W        W24034   9.478  11.256   8.847 -0.0945  0.1231  0.3852
81123W        W24035   8.601  13.404   7.769  0.1428  0.1980 -0.0784
81124W        W24036  11.198  13.832   9.857 -0.0272 -0.1000 -0.0233
81125W        W24037   7.537  11.920   9.445 -0.0441 -0.0131 -0.1002
81126W        W24038  10.792  11.542   7.603  0.0140 -0.2441  0.0004
81127W        W24039   7.705  12.480   9.102 -0.0652  0.0540  0.2690
81128W        W24040   9.239  12.464   8.313  0.1684  0.1401 -0.1044
81129W        W24041   7.522  16.122   2.160 -0.2293 -0.2614  0.0793
81130W        W24042   9.843  16.154  31.236  0.0165  0.1584 -0.0363
81131W        W24043  11.884  14.889  31.704 -0.5229  0.0462 -0.1575
81132W        W24044  11.321  17.371   1.450 -0.3241 -0.1927  0.1150
81133W        W24045   8.353  16.534   0.459 -0.1327  0.0138  0.0347
81134W        W24046  11.405  18.353   0.764 -0.2135 -0.1712  0.2513
81135W        W24047   8.588  17.077   1.707  0.1742 -0.1164  0.0792
81136W        W24048  10.093  19.012   0.993 -0.2725 -0.0241 -0.2334
81137W        W24049  11.170  18.662   2.040 -0.2728 -0.2319  0.1613
81138W        W24050  10.936  16.287  30.859  0.2768  0.3834  0.0501
81139W        W24051   9.321  17.700   1.390 -0.1267 -0.0394 -0.1115
81140W        W24052   8.777  16.642   2.134 -0.0020 -0.1089 -0.6597
81141W        W24053   8.546  14.624  31.946  0.1219  0.1444  0.2561
81142W        W24054   6.966  14.008   1.634  0.0740 -0.0038 -0.0305
81143W        W24055  11.090  18.197   1.576 -0.0556 -0.0146 -0.1761
81144W        W24056   6.859  15.502  31.685  0.1254  0.1019  0.0840
81145W        W24057   8.648  15.764   1.400  0.0149  0.1965 -0.2298
81146W        W24058   9.451  16.061   0.909  0.0710  0.0456  0.1410
81147W        W24059   9.269  17.745  31.930  0.0219  0.3398 -0.2536
81148W        W24060   9.938  15.340   1.229  0.0243  0.0812  0.2162
81149W        W24061  10.842  14.866   2.373 -0.1221 -0.0163  0.0914
81150W        W24062   9.918  18.370   0.520  0.2727 -0.2715  0.1725
81151W        W24063   8.377  15.939  31.199 -0.0375 -0.1187 -0.1924
81152W        W24064   8.249  15.679   0.142 -0.0426  0.1128 -0.1369
81153W        W24065   8.161  15.675   1.403  0.1689 -0.0056  0.0965
81154W        W24066   9.495  15.803   1.700 -0.0447 -0.0422 -0.0900
81155W        W24067  12.167  15.644   0.782  0.0091  0.2465 -0.2980
81156W        W24068   9.919  18.882   2.550  0.0923 -0.0280 -0.2143
81157W        W24069   9.498  18.157   1.815 -0.1796  0.0212 -0.2159
81158W        W24070  10.620  15.352   3.047 -0.0849  0.4118  0.0117
81159W        W24071   7.046  17.997   1.956  0.0932 -0.3414 -0.1339
81160W        W24072   7.723  17.712   1.462  0.0674  0.1557  0.1037
81161W        W24073  10.227  17.460   0.264 -0.0239 -0.0708 -0.1160
81162W        W24074  11.666  18.650   0.507  0.0179 -0.0307 -0.2445
81163W        W24075  11.389  17.608   2.327 -0.2297 -0.1197  0.1112
81164W        W24076   8.715  18.876   1.758  0.1315 -0.2061  0.1981
81165W        W24077   8.675  18.756  31.728  0.0079 -0.3214  0.1997
81166W        W24078   9.720  16.632   2.690 -0.2639  0.0071 -0.5236
81167W        W24079   8.367  16.643   2.996 -0.0731 -0.1387 -0.0531
81168W        W24080  10.661  16.796   2.385 -0.0421 -0.1706 -0.0685
81169W        W24081   8.793  17.602   1.217  0.1317 -0.0143  0.2790
81170W        W24082   9.568  18.102   0.130 -0.0522 -0.1257 -0.5740
81171W        W24083   9.839  17.171   0.364 -0.0834  0.0063  0.1647
81172W        W24084   8.317  16.056   2.640  0.2168  0.1168  0.0498
81173W        W24085   7.021  16.876   3.304  0.1889 -0.3316  0.3034
81174W        W24086  11.189  15.870   2.809  0.1233 -0.1463  0.0525
81175W        W24087   9.186  17.977   0.475 -0.0210  0.3409  0.1975
81176W        W24088  10.575  16.199  30.458 -0.3163 -0.3515 -0.1990
81177W        W24089   8.834  16.082  31.289 -0.0579 -0.0050 -0.2687
81178W        W24090  10.691  16.481  31.336  0.0410  0.0496 -0.3521
81179W        W24091  10.469  15.847   0.049  0.1494 -0.1490 -0.0092
81180W        W24092   9.199  19.011  31.951 -0.0677 -0.0768  0.1142
81181W        W24093   9.766  15.863   1.272 -0.3048  0.5053 -0.0594
81182W        W24094  10.518  17.971   2.900  0.0744 -0.1298  0.0227
81183W        W24095  10.405  17.144   0.575  0.0812  0.2652  0.5053
81184W        W24096  10.855  16.596   0.894 -0.1455  0.0381  0.0276
81185W        W24097   7.051  18.085   2.941 -0.2794  0.1476 -0.0959
81186W        W24098   8.037  16.910   1.645  0.0042  0.0230  0.2114
81187W        W24099  11.946  18.419  30.483  0.1389  0.0419 -0.0561
81188W        W24100  12.041  17.737   1.485 -0.0117 -0.2339  0.2859
81189W        W24101  10.874  18.344  31.903 -0.2811 -0.1193 -0.3435
81190W        W24102   9.060  16.525   1.251  0.0346  0.1742 -0.2350
81191W        W24103   5.802  16.549   3.214  0.0844  0.0714 -0.1207
81192W        W24104   7.103  15.621   2.174 -0.1098 -0.3229  0.0126
81193W        W24105   9.034  14.974  31.265 -0.5028  0.1071 -0.0602
81194W        W24106  10.999  17.265   3.197  0.3978 -0.3097 -0.2842
81195W        W24107   8.769  17.274   2.184  0.2287 -0.0349 -0.1833
81196W        W24108  10.803  15.235   0.464 -0.2835 -0.1053  0.2654
81197W        W24109   9.656  16.407   1.866 -0.1464 -0.0616 -0.1260
81198W        W24110  10.615  17.858   1.664 -0.1268 -0.1861  0.2197
81199W        W24111  10.532  16.873  31.582  0.0852  0.0003  0.2751
81200W        W24112  10.472  14.941   2.065 -0.1554 -0.1091  0.3774
81201W        W24113  10.854  14.878   1.376  0.1779 -0.1242 -0.0984
81202W        W24114   8.887  18.011   0.922  0.0404  0.3114 -0.0218
81203W        W24115   8.659  17.933   0.455 -0.1968 -0.1125 -0.0054
81204W        W24116  12.265  17.702   3.572 -0.1391 -0.0298 -0.1548
81205W        W24117  11.642  17.395  30.698  0.1788 -0.4039  0.1755
81206W        W24118   8.723  18.877   0.785  0.0113  0.0955 -0.0240
81207W        W24119   8.762  14.834   0.960  0.3271 -0.0704  0.3085
81208W        W24120   9.635  17.302   3.080 -0.0125  0.0166  0.0231
81209W        W24121   8.129  17.018   0.442 -0.0159 -0.0236 -0.1022
81210W        W24122   7.247  16.617   0.598 -0.0343  0.1425 -0.1097
81211W        W24123   8.619  15.981   0.254 -0.2439  0.0481 -0.0691
81212W        W24124   9.955  14.587   2.812  0.0567  0.2715 -0.1134
81213W        W24125   8.439  16.556   2.504  0.0325 -0.0476 -0.0472
81214W        W24126  11.323  15.869  31.864  0.1283 -0.0935 -0.0399
81215W        W24127   7.621  16.569   2.353  0.0888  0.0677 -0.1032
81216W        W24128  11.627  14.744   0.674 -0.2594  0.0885 -0.5337
81217W        W24129   8.542  17.203   0.787  0.1239 -0.0128 -0.1408
81218W        W24130   9.238  18.176  31.617  0.2438  0.1712 -0.1529
81219W        W24131  10.578  15.734   0.542  0.2217 -0.1514 -0.1254
81220W        W24132  11.278  17.309  31.452 -0.1049  0.2614  0.0880
81221W        W24133   6.857  16.652   2.853  0.0571 -0.0330  0.0038
81222W        W24134   7.031  16.007   2.835  0.1682  0.3224  0.1765
81223W        W24135   7.276  16.032   3.568  0.0027  0.1006 -0.0575
81224W        W24136   9.900  14.887   1.649 -0.2709 -0.0520 -0.3146
81225W        W24137  11.052  15.929   2.040 -0.0771  0.0785  0.1637
81226W        W24138   7.254  15.802  31.442 -0.1049  0.1564 -0.3664
81227W        W24139  10.978  15.656   0.240  0.0560  0.1599 -0.2888
81228W        W24140   8.316  16.578   1.902  0.2727 -0.1567  0.2067
81229W        W24141   7.550  16.298   0.183 -0.0316  0.0684 -0.0002
81230W        W24142  10.051  15.344   3.081  0.0793 -0.0420 -0.3627
81231W        W24143  10.488  18.703  31.920 -0.0848 -0.0644  0.0333
81232W        W24144  11.853  17.886   2.604  0.2182 -0.0534 -0.0326
81233W        W24145  11.499  17.834   1.330  0.2568  0.0587 -0.2458
81234W        W24146   7.688  15.022   1.329  0.2123  0.3229  0.2123
81235W        W24147   9.261  14.297   1.128  0.0610 -0.1819 -0.2566
81236W        W24148   8.947  18.464   0.485 -0.0003  0.2229 -0.1659
81237W        W24149   8.201  16.880   0.970  0.2086 -0.0044  0.0725
81238W        W24150   9.935  16.666   1.014  0.0551 -0.1396  0.2528
81239W        W24151  12.008  18.892   0.963  0.1182 -0.3700  0.0233
81240W        W24152  10.697  16.369   0.454  0.1028 -0.0227 -0.0189
81241W        W24153   6.380  17.208   2.918  0.1652 -0.4231  0.0165
81242W        W24154  10.764  14.396   2.180  0.0940 -0.1174 -0.0626
81243W        W24155  10.145  16.273   2.254 -0.5658  0.1036 -0.0966
81244W        W24156   9.954  15.824   2.285 -0.1758  0.0305 -0.0521
81245W        W24157   9.174  14.057   0.027  0.1348  0.2589  0.0705
81246W        W24158  11.005  17.788   1.213 -0.1294  0.0559  0.2460
81247W        W24159   7.832  17.848   0.885 -0.1479 -0.2198  0.3011
81248W        W24160   8.153  16.070   0.492  0.1412 -0.0412 -0.2136
81249W        W24161   9.336  17.624   0.900  0.0362 -0.0459 -0.0181
81250W        W24162  10.730  13.893   1.995 -0.0342  0.2006  0.2760
81251W        W24163   7.025  14.678   3.832  0.1597  0.0987  0.1255
81252W        W24164  10.072  14.404   1.721 -0.3499  0.0821  0.2524
81253W        W24165   8.219  16.378  31.260 -0.2100  0.0875  0.0024
81254W        W24166   7.971  16.582   2.706 -0.0285 -0.0875 -0.0655
81255W        W24167  10.300  15.407   0.842  0.2235 -0.1122 -0.0977
81256W        W24168  12.327  16.666  31.510  0.1539  0.2732  0.0882
81257W        W24169   9.664  16.871   2.193  0.0260  0.0014 -0.5205
81258W        W24170  11.689  17.469   0.568  0.0149 -0.3204 -0.2554
81259W        W24171  10.329  15.621  31.072  0.0391  0.1652 -0.0743
81260W        W24172  11.439  14.131   1.036 -0.0120  0.0902  0.2197
81261W        W24173   5.828  16.650   1.935 -0.2598  0.1683  0.1779
81262W        W24174   9.997  18.266  31.202 -0.0215  0.0373  0.1058
81263W        W24175   9.701  17.954   0.982  0.2069 -0.1064 -0.0744
81264W        W24176  10.476  16.626  30.729 -0.0791 -0.0078  0.0175
81265W        W24177  11.879  18.634   0.079  0.0424 -0.0297 -0.2728
81266W        W24178   6.531  17.178   1.939 -0.4282 -0.5417  0.1241
81267W        W24179  10.444  16.479   1.262 -0.2787  0.2149  0.1309
81268W        W24180  10.312  16.582   0.697  0.4273 -0.0422  0.0008
81269W        W24181   8.763  14.280   0.317 -0.1559 -0.0619 -0.2182
81270W        W24182  10.244  16.913   0.130  0.1814 -0.0942 -0.0489
81271W        W24183  11.226  14.603   0.953  0.0980  0.1880 -0.0498
81272W        W24184   8.337  17.638  31.581 -0.3294  0.0430 -0.0861
81273W        W24185  10.992  14.366   3.250 -0.2432  0.0714  0.4406
81274W        W24186  10.212  15.279   1.766  0.1332  0.0761  0.0981
81275W        W24187   9.777  14.325   2.348 -0.0956 -0.2303 -0.0226
81276W        W24188  10.171  16.840   3.179  0.0229 -0.2721 -0.1436
81277W        W24189  10.718  16.656   1.879  0.1050 -0.0064  0.1460
81278W        W24190  10.053  15.767   1.783  0.0027 -0.3213 -0.1188
81279W        W24191   8.761  16.855   0.436  0.2797  0.3310 -0.1923
81280W        W24192  10.287  15.408   2.216 -0.0126 -0.2739  0.0982
81281W        W24193   7.806  16.418   1.844 -0.0727  0.2344 -0.2603
81282W        W24194   7.972  18.237   1.626 -0.3979 -0.1595 -0.1662
81283W        W24195   9.964  17.258   3.443  0.1010 -0.0088  0.0409
81284W        W24196  10.579  16.140   0.886 -0.4387  0.0749 -0.0312
81285W        W24197   9.873  15.111   2.601 -0.2961  0.1020  0.0540
81286W        W24198   9.247  14.136   0.517 -0.1482  0.1945 -0.0447
81287W        W24199   8.526  18.368   0.755 -0.0278  0.1394 -0.1622
81288W        W24200   9.803  16.872  31.874  0.0493 -0.3729  0.2917
81289W        W24201   7.308  14.708   0.707  0.1312 -0.3061 -0.1187
81290W        W24202   9.140  16.670   1.732  0.1770 -0.1959 -0.1946
81291W        W24203  10.760  17.367  31.618 -0.2920 -0.0037 -0.1525
81292W        W24204  10.228  17.002   1.450  0.2306 -0.0454  0.0576
81293W        W24205   8.451  16.652   1.350  0.1867  0.3418  0.1314
81294W        W24206  10.286  14.280   2.135 -0.2930 -0.1053  0.1388
81295W        W24207   8.045  17.378   1.656  0.2489 -0.0482 -0.1901
81296W        W24208   9.966  14.988   0.698  0.3828 -0.2022  0.2417
81297W        W24209   7.728  15.639  31.821  0.2629 -0.0899 -0.0843
81298W        W24210  11.276  15.687   1.127  0.1964  0.2353  0.0068
81299W        W24211  12.335  18.009   0.540 -0.0256  0.1835  0.0205
81300W        W24212   7.148  15.089   1.461 -0.0417  0.1797  0.2353
81301W        W24213  10.462  15.284   1.372 -0.5805  0.2738 -0.1017
81302W        W24214   8.559  18.085   1.311  0.0779  0.1874  0.1834
81303W        W24215   9.313  15.872   2.173  0.1739  0.1478  0.1183
81304W        W24216  11.379  16.552  31.895 -0.1220  0.2468 -0.3273
81305W        W24217  10.033  17.129   0.944 -0.2029 -0.3310 -0.2781
81306W        W24218   7.994  15.605   2.792 -0.1959  0.0641  0.0949
81307W        W24219   8.776  15.628   0.561  0.0170 -0.3391 -0.1753
81308W        W24220  10.023  16.790   1.858  0.1323  0.3368  0.0125
81309W        W24221   9.324  16.986   0.388 -0.1333 -0.0010  0.0300
81310W        W24222   7.099  17.070   0.534 -0.2060 -0.5313 -0.3457
81311W        W24223  10.251  17.221   2.347 -0.1895 -0.1833  0.0378
81312W        W24224   9.751  16.698   0.453  0.1476 -0.0357  0.2785
81313W        W24225   9.754  17.744   1.711  0.0890 -0.0113  0.0894
81314W        W24226   9.330  16.226   3.953  0.0022 -0.0397 -0.0622
81315W        W24227  10.535  16.917   1.043  0.1398 -0.0159  0.3501
81316W        W24228   8.362  15.842   0.899 -0.2681  0.1854 -0.1670
81317W        W24229   8.182  15.197   1.260 -0.0771  0.2276 -0.2256
81318W        W24230   9.870  16.268   1.466  0.0427 -0.1803  0.0600
81319W        W24231   9.303  18.397   0.824 -0.0216 -0.1797 -0.0832
81320W        W24232  10.285  16.327   1.781 -0.1549  0.1788  0.0826
81321W        W24233   8.840  17.753   2.192  0.4659  0.0127 -0.0318
81322W        W24234   9.566  13.137   0.327 -0.0080 -0.0093  0.1261
81323W        W24235  12.346  18.557   1.100  0.0034  0.0156 -0.1104
81324W        W24236   9.974  16.395   3.129 -0.0903 -0.0484  0.0182
81325W        W24237   9.108  16.017   0.347  0.1481  0.2657  0.1730
81326W        W24238   8.058  16.328   2.248  0.1117 -0.1782 -0.0593
81327W        W24239   9.634  17.762  30.775 -0.1072 -0.2665  0.0030
81328W        W24240   9.177  15.014   1.258  0.0394 -0.3484  0.1016
81329W        W24241   8.981  18.471  31.979  0.0454 -0.1856  0.0402
81330W        W24242   9.050  17.139   0.763 -0.1014 -0.0229 -0.1044
81331W        W24243   8.589  17.601   1.691 -0.1969  0.0039 -0.0104
81332W        W24244  12.394  14.064  31.615 -0.0244  0.0147  0.1971
81333W        W24245   8.658  18.341  31.422 -0.0872 -0.1294  0.1381
81334W        W24246   8.981  15.893   0.948 -0.1018  0.2306  0.0035
81335W        W24247  10.875  15.454   3.461  0.1980  0.3728  0.1048
81336W        W24248   9.441  16.532  31.947  0.1403 -0.0401  0.2391
81337W        W24249  10.234  13.818   3.794  0.3344  0.3994 -0.1887
81338W        W24250   8.910  15.462   2.660 -0.1668 -0.0882 -0.1106
81339W        W24251  11.168  17.673   1.895 -0.2981  0.1349  0.1881
81340W        W24252   7.082  16.263   2.396  0.3251 -0.0990  0.1708
81341W        W24253   8.806  16.651   3.393  0.1197 -0.0010  0.1925
81342W        W24254   7.403  17.139   3.721 -0.0459 -0.0372 -0.2805
81343W        W24255  10.472  15.729   1.534 -0.1367 -0.0849  0.1579
81344W        W24256   9.489  15.092   0.862 -0.0377  0.0988 -0.0708
81345W        W24257   7.888  15.897   1.785  0.0894  0.0196 -0.0210
81346W        W24258  10.500  17.050   2.846  0.1529 -0.0336  0.0124
81347W        W24259  10.284  18.440   0.995  0.2788  0.2491 -0.0980
81348W        W24260  10.911  16.062   1.277 -0.0675  0.2798  0.2299
81349W        W24261   8.762  16.349   1.689 -0.0018 -0.0398 -0.3450
81350W        W24262  10.727  15.697   1.070 -0.1189 -0.0082  0.0146
81351W        W24263  10.040  17.800  31.888 -0.3218  0.0435 -0.2256
81352W        W24264   9.016  15.377   1.537  0.0128 -0.0541 -0.2010
81353W        W24265   8.603  15.073   2.549  0.3273 -0.1308  0.1208
81354W        W24266  11.038  18.645   2.527  0.0322 -0.2150 -0.0967
81355W        W24267   9.312  16.125   1.380 -0.3040  0.2586 -0.2835
81356W        W24268  10.471  14.805   3.035 -0.4031  0.0948 -0.1300
81357W        W24269   8.888  15.533   2.183  0.3285 -0.2572 -0.1444
81358W        W24270   8.718  15.842   2.878 -0.1496 -0.0071  0.2577
81359W        W24271   8.253  14.810   2.258  0.0261  0.0628  0.0096
81360W        W24272  12.042  17.040   1.934  0.0404 -0.0122  0.1524
81361W        W24273  10.937  16.727  31.023  0.4445  0.0475 -0.1585
81362W        W24274  11.568  15.595   2.098  0.1417 -0.4076 -0.3003
81363W        W24275  10.452  15.118   2.593  0.0044  0.0973  0.4646
81364W        W24276   9.101  16.385  31.556  0.1666  0.1511  0.0881
81365W        W24277   8.642  15.109   1.984  0.2132 -0.0330 -0.0672
81366W        W24278  11.958  17.498   3.272  0.5558 -0.1212 -0.0123
81367W        W24279   9.061  15.361  31.631 -0.0496 -0.0998  0.1478
81368W        W24280  10.282  15.794   4.430 -0.2505 -0.1922  0.0868
81369W        W24281   9.945  18.709  31.075  0.1124 -0.2728  0.2434
81370W        W24282  12.251  17.515   1.008 -0.2715  0.0946  0.0534
81371W        W24283  10.994  15.591   1.513 -0.1861  0.1040  0.0999
81372W        W24284   8.098  14.426   2.005  0.0010 -0.0571 -0.0978
81373W        W24285   7.530  18.213   3.619 -0.0644  0.0554 -0.1986
81374W        W24286   9.528  16.105  31.661  0.3443 -0.2699 -0.0178
81375W        W24287   9.949  16.183   0.802  0.3291  0.2773  0.4531
81376W        W24288  10.954  18.561   1.120 -0.0895  0.2184 -0.2129
81377W        W24289  11.462  16.876   2.948  0.0631  0.3181  0.1698
81378W        W24290   9.974  15.859   0.043  0.1629 -0.1240  0.1964
81379W        W24291  11.802  15.475   2.816 -0.2481 -0.0444  0.0058
81380W        W24292   9.381  17.472  31.499  0.0716 -0.4255 -0.3221
81381W        W24293  12.951  14.257   0.348  0.1330  0.0523 -0.0399
81382W        W24294   8.460  18.105   2.297 -0.0440 -0.1834  0.0787
81383W        W24295   8.832  17.026   1.248  0.0709  0.0001 -0.1639
81384W        W24296   8.760  17.471   0.426  0.1028 -0.1014 -0.1649
81385W        W24297   9.258  15.896   2.694  0.2093  0.1855 -0.2811
81386W        W24298  10.520  17.116   1.954  0.0792  0.0460 -0.3320
81387W        W24299   7.698  16.156   2.656 -0.4186  0.0981  0.1134
81388W        W24300  11.280  16.179   2.401  0.1090 -0.1600  0.0532
81389W        W24301  10.011  17.260   1.896  0.1544  0.1297 -0.3357
81390W        W24302   7.615  15.973   1.340 -0.0528  0.1200 -0.1784
81391W        W24303   9.509  17.259   1.749  0.3289 -0.3966  0.1177
81392W        W24304  11.429  17.071   0.747  0.1322 -0.0280  0.0163
81393W        W24305   9.618  18.979   1.268 -0.2308 -0.0264  0.1669
81394W        W24306   6.990  15.682   4.447 -0.1891  0.1012 -0.0782
81395W        W24307   8.171  14.673   5.040  0.1133 -0.0935 -0.0408
81396W        W24308  10.702  17.399   1.119 -0.0181 -0.0574 -0.2035
81397W        W24309   9.514  14.493   1.565  0.0234  0.0396 -0.0615
81398W        W24310  10.711  16.066  31.665  0.2284  0.2537  0.1610
81399W        W24311   7.748  17.462   2.845  0.1770  0.2292  0.0558
81400W        W24312   7.725  15.507   1.180 -0.1880 -0.0261 -0.0041
81401W        W24313   7.389  18.353   0.002  0.1400  0.1009  0.1377
81402W        W24314  10.861  17.060   0.621  0.2766 -0.0100  0.0638
81403W        W24315  10.196  17.227  31.699 -0.0640 -0.2162 -0.2856
81404W        W24316  10.431  18.370   1.621 -0.0393 -0.1147 -0.0519
81405W        W24317   9.343  17.477   0.377 -0.1288 -0.1440 -0.2510
81406W        W24318   8.049  17.810   2.060 -0.0984  0.2674 -0.1387
81407W        W24319   7.716  17.536  31.870 -0.1652  0.1432  0.2486
81408W        W24320  10.485  18.638  31.019 -0.4093  0.3369 -0.0420
81409W        W24321   9.257  17.563   2.070 -0.1575 -0.3047 -0.2582
81410W        W24322   9.075  16.068   3.155  0.0669 -0.2010 -0.1741
81411W        W24323  10.232  16.018   1.189 -0.2003  0.4728  0.0970
81412W        W24324  12.471  17.881   1.254  0.2755  0.3074  0.1677
81413W        W24325  11.818  16.757   0.718 -0.3657  0.0537  0.0623
81414W        W24326   9.998  15.847   3.210 -0.0605 -0.5063 -0.4599
81415W        W24327   9.522  14.894   2.236  0.1061  0.0243  0.0475
81416W        W24328   9.953  15.348  31.976 -0.1183  0.1326 -0.1666
81417W        W24329   7.516  16.797   3.251 -0.0032  0.0760 -0.1768
81418W        W24330  11.085  15.277   4.630  0.0284 -0.0280 -0.3544
81419W        W24331   6.349  17.656   3.116  0.1245  0.1630 -0.0724
81420W        W24332  11.678  18.257  31.616 -0.3467 -0.1969  0.2271
81421W        W24333   8.686  16.222   1.158 -0.1920 -0.2400 -0.0292
81422W        W24334   8.771  16.015   2.406  0.1918  0.0590  0.0053
81423W        W24335  11.540  14.231   2.610  0.0964 -0.4035 -0.0279
81424W        W24336   9.235  16.945  31.461  0.0055 -0.0847  0.3043
81425W        W24337   8.950  15.877   1.780  0.1097 -0.3793  0.4110
81426W        W24338   9.871  19.256   0.592 -0.5213 -0.0675  0.1228
81427W        W24339   7.520  17.055   2.735  0.1758  0.0362  0.3592
81428W        W24340   8.855  18.462   1.108 -0.0067 -0.2090 -0.0337
81429W        W24341   9.087  15.430   0.262  0.1183  0.0097  0.0973
81430W        W24342  11.664  16.536   1.469  0.0897 -0.0458 -0.2444
81431W        W24343   7.850  15.360   1.654 -0.0652 -0.1813 -0.4803
81432W        W24344  11.154  14.666   2.814  0.1359  0.0982  0.0673
81433W        W24345   8.282  16.151   1.470 -0.2167  0.0418  0.1176
81434W        W24346   9.839  15.679   0.822 -0.1111 -0.1066 -0.2860
81435W        W24347   8.890  16.880   2.593 -0.2175  0.0032 -0.0417
81436W        W24348   7.868  14.559   1.074  0.0112 -0.2472 -0.2431
81437W        W24349  10.215  16.142  31.548 -0.1093  0.2843  0.2041
81438W        W24350  10.784  16.305   2.242  0.1104 -0.3021 -0.1504
81439W        W24351   9.478  15.670  31.903 -0.1872 -0.2335  0.1618
81440W        W24352   9.317  16.472   3.463 -0.0560  0.1069 -0.4483
81441W        W24353   8.757  16.263   0.657  0.0115 -0.1623 -0.1655
81442W        W24354   9.578  15.771   0.417  0.4263  0.3554 -0.1080
81443W        W24355   7.715  17.031   1.252 -0.1276 -0.3427  0.1327
81444W        W24356   8.414  15.629   2.410  0.1303 -0.2994 -0.2722
81445W        W24357  10.699  17.792   2.172 -0.0018  0.0787  0.2109
81446W        W24358   8.893  15.419   1.048 -0.1433 -0.1210  0.1343
81447W        W24359  11.831  18.408  29.132  0.2531  0.3248  0.2520
81448W        W24360  10.378  16.564   2.748 -0.1365 -0.2773 -0.1607
81449W        W24361  10.681  17.822  30.752  0.0239 -0.1661  0.0079
81450W        W24362  11.459  15.495   0.208  0.1741 -0.0211  0.0173
81451W        W24363  10.794  18.151   0.796  0.1596 -0.0689  0.1115
81452W        W24364   8.136  14.367   2.531  0.0352  0.1739 -0.0406
81453W        W24365  11.116  17.513   0.373 -0.1409 -0.0818  0.4331
81454W        W24366  11.216  16.670   3.287  0.2505  0.1122  0.0212
81455W        W24367   9.652  14.015  31.882  0.1458  0.1410 -0.0285
81456W        W24368   8.455  15.555   1.835  0.0405 -0.0627 -0.0632
81457W        W24369   8.651  18.871   0.283 -0.1615  0.2069 -0.4025
81458W        W24370  11.316  14.579   1.486  0.6542  0.2630  0.3638
81459W        W24371  10.393  14.633   2.556 -0.1807  0.0481  0.0784
81460W        W24372  10.409  17.356  31.247 -0.2580  0.1106  0.1727
81461W        W24373  10.150  14.093   2.650  0.0147 -0.0704 -0.0849
81462W        W24374   8.974  17.914   1.674  0.2148 -0.4828  0.1086
81463W        W24375   7.399  17.296   3.224 -0.1346  0.0755  0.1067
81464W        W24376   7.931  16.583  31.638  0.1398  0.0969 -0.1136
81465W        W24377   9.688  16.705   1.486  0.1733  0.1400 -0.1893
81466W        W24378   9.009  17.334   1.711 -0.0154  0.1665 -0.1175
81467W        W24379   9.727  17.487   1.210  0.0370  0.0047 -0.0611
81468W        W24380  10.804  18.691   1.717 -0.0516  0.1143  0.0299
81469W        W24381   9.543  17.107   0.834 -0.1909  0.1203 -0.1330
81470W        W24382  11.485  18.905   1.034 -0.0363 -0.1700  0.1477
81471W        W24383   8.899  14.391   0.805  0.0919 -0.0002  0.3343
81472W        W24384  11.068  17.056   1.120  0.0638 -0.0622  0.2016
81473W        W24385  10.566  15.816   2.077  0.1040 -0.1446  0.2990
81474W        W24386   8.654  16.707   0.874  0.1587  0.2000  0.1354
81475W        W24387   8.272  17.599  30.658  0.3237  0.3569  0.0604
81476W        W24388   7.530  16.842  31.289  0.3698 -0.1576  0.0676
81477W        W24389   9.198  17.022   2.121  0.1104 -0.0866 -0.3045
81478W        W24390   9.340  13.637   4.241  0.1579 -0.0663  0.2351
81479W        W24391   9.155  16.335   2.078  0.0181  0.1983  0.0047
81480W        W24392   7.921  16.549   1.301 -0.1886 -0.0001  0.2589
81481W        W24393   9.476  16.582   0.858  0.0027 -0.0869 -0.2480
81482W        W24394  10.988  18.640  31.093 -0.0200 -0.0400 -0.0685
81483W        W24395   8.440  15.425   2.911 -0.2428  0.1600 -0.0515
81484W        W24396   8.258  14.543   1.494 -0.2106  0.0347 -0.1767
81485W        W24397  11.186  16.727   0.469 -0.0774  0.0611 -0.1403
81486W        W24398  10.494  18.405   0.459  0.0749 -0.3074  0.0172
81487W        W24399   9.008  13.315   0.541 -0.0780 -0.0072 -0.0897
81488W        W24400  11.041  18.019   3.615  0.0419  0.0990 -0.0937
81489W        W24401   9.292  16.607  31.065  0.0393 -0.4680 -0.3261
81490W        W24402  10.246  15.662   2.693  0.2196  0.1843 -0.2881
81491W        W24403   9.854  15.193   4.075 -0.0488 -0.1392  0.1197
81492W        W24404   7.881  14.902  30.841  0.0986  0.1720  0.1657
81493W        W24405   8.826  16.430   2.835 -0.4560  0.0403  0.4448
81494W        W24406   8.738  16.773  31.416  0.3347  0.4514  0.0057
81495W        W24407  12.582  19.137  31.764  0.2339  0.2137 -0.0963
81496W        W24408   9.230  16.505   2.517  0.1585 -0.1133  0.1559
81497W        W24409  10.258  17.666   3.675  0.0611 -0.2637  0.1933
81498W        W24410   8.681  14.582   1.905 -0.0850 -0.1341 -0.1482
81499W        W24411  10.567  17.931   0.257 -0.2654  0.0082 -0.1849
81500W        W24412   9.263  16.719   2.961  0.1644 -0.0860 -0.0490
81501W        W24413  11.311  17.787   0.763 -0.2329 -0.4391  0.2199
81502W        W24414  11.220  15.114   1.622 -0.0166 -0.1452 -0.0553
81503W        W24415  10.271  17.992   0.661 -0.0347  0.2779 -0.0546
81504W        W24416   7.433  15.747   2.505  0.0685  0.0713  0.0015
81505W        W24417   8.308  17.342   2.031 -0.1068 -0.1763  0.1127
81506W        W24418  10.226  18.001   1.923  0.0843 -0.2600 -0.2296
81507W        W24419   8.886  13.977   1.211 -0.1341 -0.0306  0.2386
81508W        W24420  10.820  15.207   0.982  0.3793  0.2582  0.0172
81509W        W24421  10.218  18.235   0.036 -0.0498  0.0787  0.1768
81510W        W24422   8.349  16.017   2.004 -0.2564  0.2680 -0.0078
81511W        W24423   8.764  16.448   0.162  0.0596  0.3042  0.3205
81512W        W24424  10.453  15.174   3.494 -0.1690  0.0747  0.4032
81513W        W24425   9.315  16.979   1.305  0.1020 -0.0385  0.0935
81514W        W24426   9.842  16.955   4.570 -0.0487  0.1017  0.2057
81515W        W24427   9.734  16.189   0.328  0.1632 -0.0289 -0.0646
81516W        W24428  11.718  17.354   1.084  0.3689 -0.3127  0.0575
81517W        W24429  10.157  18.458   2.851 -0.0059 -0.0566 -0.0423
81518W        W24430   9.889  18.098   4.105  0.1231 -0.0336  0.0040
81519W        W24431   9.745  17.420   2.303 -0.0674 -0.1543 -0.0843
81520W        W24432  10.979  17.163   2.219  0.3353 -0.1406 -0.2933
81521W        W24433   9.775  15.408   2.019 -0.1350  0.0066 -0.0160
81522W        W24434   9.173  16.497   0.452 -0.2614 -0.1781 -0.0188
81523W        W24435   8.104  16.926   2.274 -0.0183 -0.1931 -0.0179
81524W        W24436  10.015  14.767   2.180 -0.2285 -0.0273 -0.1641
81525W        W24437   9.529  15.200   1.535  0.3792 -0.1117  0.1394
81526W        W24438  10.123  15.551   0.397  0.0994  0.3056  0.0372
81527W        W24439   9.318  18.012   2.277 -0.2644  0.2337  0.1995
81528W        W24440   9.738  17.388  31.901 -0.1203 -0.2718 -0.3235
81529W        W24441   7.900  16.532   7.105  0.2036 -0.0746  0.0367
81530W        W24442   8.882  15.579   3.998  0.1930  0.2317  0.0592
81531W        W24443  11.289  15.917   3.324 -0.0580 -0.2143 -0.0679
81532W        W24444  10.096  16.521   4.693 -0.0391  0.0281 -0.3413
81533W        W24445   7.551  14.730   3.798  0.2368  0.2152 -0.2774
81534W        W24446   9.515  18.820   5.450  0.0362  0.0848  0.1396
81535W        W24447   8.805  13.641   7.285  0.2459 -0.1251  0.2466
81536W        W24448   9.799  16.697   5.023 -0.1412 -0.0062 -0.0573
81537W        W24449   9.670  16.531   6.141 -0.0821 -0.0169  0.3629
81538W        W24450   8.493  16.175   3.186 -0.1917 -0.1672 -0.3547
81539W        W24451   7.929  14.583   5.870  0.0422 -0.0592 -0.2263
81540W        W24452   8.931  16.421   6.843  0.0263  0.1078  0.3138
81541W        W24453   8.008  14.043   4.539  0.0889  0.0387  0.4009
81542W        W24454   8.141  13.682   5.801 -0.2392  0.1705  0.0402
81543W        W24455  10.058  16.301   6.390 -0.0400 -0.0908 -0.0596
81544W        W24456   7.509  15.982   3.052 -0.3781 -0.1836  0.1060
81545W        W24457   7.661  15.525   4.986 -0.0342  0.3001  0.0166
81546W        W24458   9.426  14.700   4.270  0.1433  0.0316 -0.1791
81547W        W24459   8.853  16.428   5.718 -0.1053 -0.0099 -0.0213
81548W        W24460   9.355  14.784   5.836  0.1770  0.1704 -0.0302
81549W        W24461   9.849  14.714   6.392  0.3795  0.2543  0.0520
81550W        W24462   7.741  16.503   4.607 -0.1175  0.1742 -0.5157
81551W        W24463   6.475  16.083   3.847 -0.1609  0.0682 -0.1544
81552W        W24464   5.579  15.742   6.069  0.1442  0.1739  0.2902
81553W        W24465   7.297  15.879   6.105  0.1887 -0.2071 -0.1347
81554W        W24466   8.856  15.915   5.485  0.0027  0.3943 -0.0639
81555W        W24467   9.841  16.011   5.792 -0.1652 -0.2943  0.1237
81556W        W24468   8.843  17.902   6.270 -0.1826 -0.1048  0.0178
81557W        W24469   9.388  17.286   4.719 -0.2428 -0.3304 -0.0534
81558W        W24470   9.341  15.023   6.359  0.2015 -0.1307  0.0818
81559W        W24471   8.184  16.554   5.051  0.1473 -0.0791 -0.0757
81560W        W24472   7.010  17.740   5.814 -0.0162 -0.1182  0.0647
81561W        W24473   7.919  16.961   4.964 -0.1493 -0.1782  0.0504
81562W        W24474  10.111  17.151   3.945 -0.0280  0.0630  0.5231
81563W        W24475   9.266  17.109   7.169 -0.0954 -0.0406  0.2600
81564W        W24476   8.157  17.991   7.345 -0.3316  0.3504  0.0337
81565W        W24477   7.958  17.908   3.024  0.0805  0.1292  0.0891
81566W        W24478  10.889  17.723   6.978  0.1857  0.1725  0.1891
81567W        W24479   8.350  16.639   6.833 -0.1283 -0.1350 -0.3117
81568W        W24480   9.349  15.817   5.740 -0.0427 -0.0933 -0.2096
81569W        W24481  10.504  16.349   4.033 -0.3326  0.3354  0.1985
81570W        W24482   8.473  15.874   4.409 -0.1602 -0.0075  0.1078
81571W        W24483   9.229  17.341   5.264 -0.0051  0.4160  0.1187
81572W        W24484   8.305  15.955   6.539  0.0266 -0.2290 -0.1219
81573W        W24485   9.023  17.161   5.728  0.2026  0.0170  0.1605
81574W        W24486  10.134  15.410   7.821 -0.0514  0.1512  0.0326
81575W        W24487   9.105  17.012   3.463  0.0664  0.0288 -0.3561
81576W        W24488  10.471  15.897   3.952  0.2368  0.1252  0.1605
81577W        W24489   9.020  15.436   3.196 -0.1117 -0.0198  0.0202
81578W        W24490  10.150  15.341   5.454 -0.0305 -0.1926 -0.0088
81579W        W24491   8.036  14.467   3.721  0.0696 -0.3434 -0.2247
81580W        W24492   8.931  18.267   4.503  0.0566  0.0673  0.2647
81581W        W24493   7.155  15.188   4.420  0.1333 -0.1697 -0.1142
81582W        W24494  11.030  17.310   6.133  0.1005 -0.1616  0.1080
81583W        W24495   9.597  15.204   4.512 -0.1660  0.5570  0.0852
81584W        W24496   9.437  15.266   5.800 -0.2235 -0.4333 -0.0057
81585W        W24497   7.737  17.286   5.423  0.3070  0.0163  0.1265
81586W        W24498   7.384  14.780   4.285 -0.2086 -0.1394  0.0892
81587W        W24499  10.249  16.662   3.680  0.2670  0.2179  0.2721
81588W        W24500  10.800  18.367   4.072  0.3117  0.0323  0.0923
81589W        W24501   9.782  17.309   4.269  0.2616 -0.2441 -0.2741
81590W        W24502   8.984  15.111   4.232  0.0988 -0.0181  0.1703
81591W        W24503   6.466  16.232   6.607 -0.1674  0.1369  0.0984
81592W        W24504   7.145  15.305   6.720 -0.2815  0.0249 -0.1360
81593W        W24505   7.675  14.297   3.291 -0.2849 -0.2577 -0.2296
81594W        W24506  11.693  16.781   6.520  0.2649 -0.4684  0.1129
81595W        W24507   8.054  16.344   6.287  0.6387 -0.1886  0.1539
81596W        W24508  10.867  15.137   5.095  0.2058 -0.4693 -0.0989
81597W        W24509   8.736  15.622   4.954  0.2067 -0.1789 -0.1003
81598W        W24510   9.991  17.147   6.341 -0.0642 -0.3143  0.1915
81599W        W24511   8.409  16.423   3.761 -0.2094 -0.0687  0.1036
81600W        W24512   9.772  14.725   5.142 -0.0485 -0.1116  0.2634
81601W        W24513   9.434  15.064   5.132  0.0023  0.0778  0.2506
81602W        W24514   6.599  16.297   3.110 -0.2773  0.2146 -0.4511
81603W        W24515  10.442  15.698   3.439  0.2072  0.0295  0.0367
81604W        W24516  10.412  17.762   5.607  0.0408 -0.0579 -0.2435
81605W        W24517  11.238  16.314   3.676  0.1946 -0.2727 -0.3142
81606W        W24518   8.964  18.345   6.576  0.0550 -0.0886 -0.3170
81607W        W24519   9.056  15.093   7.189  0.1085  0.0294 -0.1483
81608W        W24520   8.916  18.420   7.281  0.5447  0.1459 -0.0503
81609W        W24521   8.619  17.457   2.607  0.0584  0.3567 -0.0588
81610W        W24522   7.795  17.369   4.081 -0.2267  0.1536  0.2102
81611W        W24523   7.190  17.508   4.423  0.0535  0.1693  0.1464
81612W        W24524   6.779  14.462   6.649  0.0833  0.1089 -0.2476
81613W        W24525   8.854  18.192   5.010  0.0097 -0.1989 -0.1607
81614W        W24526  10.560  15.029   5.510  0.2276  0.0294  0.2283
81615W        W24527   8.415  14.685   5.852 -0.1201  0.1464 -0.0272
81616W        W24528  11.141  14.869   5.506  0.0864 -0.0413 -0.1139
81617W        W24529   8.363  16.908   3.622 -0.0944 -0.0525 -0.2019
81618W        W24530   9.823  18.307   5.092  0.2827  0.4028 -0.0302
81619W        W24531  10.714  15.761   4.667  0.1961  0.2640 -0.0281
81620W        W24532   9.477  17.095   3.793 -0.3443 -0.2593  0.1886
81621W        W24533   7.657  14.512   5.430  0.1842  0.2125 -0.0306
81622W        W24534   7.583  16.242   3.942 -0.2078 -0.0301  0.2996
81623W        W24535   8.842  14.623   7.193  0.2637 -0.0408 -0.0032
81624W        W24536   7.801  14.327   4.998 -0.1345  0.1014 -0.1783
81625W        W24537  10.745  16.001   5.650 -0.0901  0.1188 -0.4222
81626W        W24538   7.178  14.897   4.830  0.1252 -0.1849 -0.0556
81627W        W24539  10.160  16.258   5.173 -0.0655 -0.1516 -0.1144
81628W        W24540   7.094  15.483   3.295  0.0616  0.2906 -0.7199
81629W        W24541   7.245  17.083   4.204 -0.0018 -0.0185  0.2746
81630W        W24542   8.500  13.136   5.744  0.0272  0.0281 -0.3786
81631W        W24543   9.352  17.989   3.595 -0.0921  0.1362  0.0658
81632W        W24544  10.249  18.391   4.021 -0.4892  0.0961  0.0993
81633W        W24545  10.349  18.081   4.402  0.0050 -0.0996 -0.0894
81634W        W24546   8.059  15.019   6.064  0.0832 -0.1590  0.1521
81635W        W24547   7.906  15.842   2.355  0.2571 -0.0512  0.0634
81636W        W24548   7.422  17.793   5.570 -0.0216  0.0654 -0.0822
81637W        W24549   9.817  15.678   4.332 -0.1832 -0.4513 -0.0043
81638W        W24550  10.493  13.569   2.838 -0.1511 -0.0036  0.0894
81639W        W24551  11.765  17.798   5.140  0.0753 -0.0612 -0.2492
81640W        W24552   9.925  15.725   3.721 -0.0583  0.1607  0.1032
81641W        W24553   8.177  16.890   6.366 -0.3001  0.2407 -0.2654
81642W        W24554   9.954  13.426   5.943 -0.1509  0.2665 -0.0338
81643W        W24555  10.800  16.510   5.555  0.3888  0.1559  0.0840
81644W        W24556   8.890  16.043   4.204  0.2748 -0.3282 -0.3684
81645W        W24557   7.772  14.808   2.468  0.0973 -0.0989  0.1359
81646W        W24558  10.313  18.445   4.856 -0.1217  0.0367 -0.1470
81647W        W24559   8.914  17.201   4.823  0.3103  0.0214  0.2088
81648W        W24560   6.687  15.950   4.795 -0.2652  0.0762  0.0119
81649W        W24561   8.540  16.343   4.316 -0.2705 -0.3108  0.0164
81650W        W24562  10.343  14.263   5.861  0.2594 -0.0455  0.2023
81651W        W24563   7.439  15.650   6.518  0.2235 -0.1619  0.2034
81652W        W24564   8.662  14.141   6.990 -0.0829 -0.0683  0.0441
81653W        W24565   7.926  15.198   3.118  0.0055  0.0383 -0.0037
81654W        W24566   7.750  17.132   6.393 -0.1648 -0.0158  0.3400
81655W        W24567   8.955  14.637   3.978  0.0013  0.2209  0.0224
81656W        W24568  10.993  15.214   2.796 -0.1966 -0.4707 -0.1102
81657W        W24569   9.977  17.309   7.169  0.0960  0.1539  0.0965
81658W        W24570  10.843  16.030   4.273 -0.1072  0.2669 -0.1086
81659W        W24571   9.663  16.288   2.338  0.1149 -0.1171  0.0355
81660W        W24572   9.582  13.281   2.808 -0.2016  0.0040 -0.0368
81661W        W24573   6.973  16.596   7.070 -0.1707  0.0334 -0.1970
81662W        W24574   8.981  16.836   5.146  0.2871  0.1770  0.0373
81663W        W24575   8.350  15.818   5.381  0.0093  0.1981  0.1521
81664W        W24576   9.826  14.706   3.989 -0.3063 -0.0262 -0.1341
81665W        W24577  10.417  18.862   2.684  0.1260 -0.0070 -0.0949
81666W        W24578   7.930  17.007   6.911 -0.3069 -0.1913  0.5122
81667W        W24579   9.717  16.804   6.582  0.1922  0.0336  0.2362
81668W        W24580   9.232  16.826   4.719 -0.1498 -0.0392  0.0437
81669W        W24581   8.965  14.441   5.872  0.0527  0.0241 -0.1950
81670W        W24582   7.904  16.495   3.361 -0.1968 -0.1617 -0.2506
81671W        W24583   9.077  15.642   4.485 -0.1283 -0.0490 -0.1033
81672W        W24584   6.985  17.936   3.703  0.0188  0.0398  0.1644
81673W        W24585  10.195  14.634   5.483 -0.4442 -0.0114 -0.0390
81674W        W24586   8.789  13.135   5.381 -0.1204  0.1809  0.1374
81675W        W24587   9.231  14.577   5.177  0.0770  0.0419  0.2093
81676W        W24588  10.356  15.903   6.069 -0.0360  0.1829  0.0899
81677W        W24589  11.388  15.425   2.494  0.0238 -0.0193  0.2726
81678W        W24590   9.236  15.974   5.114 -0.0148  0.1216 -0.1578
81679W        W24591   8.119  15.143   2.642  0.1820 -0.0677  0.0560
81680W        W24592   8.915  14.889   5.612 -0.3155 -0.3168  0.2393
81681W        W24593   8.464  14.990   6.974  0.1414  0.0456  0.0154
81682W        W24594   7.248  17.271   6.102 -0.1392  0.2829  0.1105
81683W        W24595  10.522  17.732   6.616 -0.0678 -0.0499 -0.2428
81684W        W24596   9.465  16.304   4.819  0.0053 -0.0383 -0.2153
81685W        W24597   9.482  14.165   5.750 -0.2713 -0.2016 -0.0850
81686W        W24598  10.535  14.210   4.828  0.0740 -0.3910 -0.4891
81687W        W24599   8.601  17.401   4.477  0.0711 -0.1251 -0.1403
81688W        W24600   8.534  16.093   4.995 -0.4456  0.1238 -0.1094
81689W        W24601   8.925  14.306   4.815  0.0816 -0.1495 -0.1016
81690W        W24602   8.573  16.796   5.455 -0.1174  0.1384  0.0462
81691W        W24603  10.295  17.509   1.451  0.0345 -0.1302 -0.2157
81692W        W24604   9.704  17.190   5.131  0.0099  0.3687  0.0967
81693W        W24605   9.095  18.053   5.832 -0.3451  0.1239 -0.3976
81694W        W24606  10.383  12.434   7.739  0.0938 -0.0046 -0.3036
81695W        W24607   8.316  17.289   5.638  0.1095 -0.3528 -0.2368
81696W        W24608   8.000  15.615   3.890 -0.2179 -0.1832  0.1368
81697W        W24609   8.203  15.674   3.321 -0.4525 -0.2818  0.1280
81698W        W24610  10.608  15.977   5.152 -0.3177 -0.0271 -0.1004
81699W        W24611   9.634  16.480   4.310 -0.2191  0.1174  0.0524
81700W        W24612   8.402  14.553   7.323 -0.4529  0.0456  0.2399
81701W        W24613   9.720  13.899   5.204  0.3994 -0.0195 -0.1396
81702W        W24614   7.155  16.277   5.755  0.0353 -0.5286  0.0043
81703W        W24615   9.795  15.624   6.097 -0.0918  0.0967  0.1473
81704W        W24616  11.364  15.264   4.184  0.1778  0.3408 -0.0084
81705W        W24617  10.576  17.079   6.147 -0.1725 -0.1006  0.1941
81706W        W24618   8.768  16.833   7.023 -0.0571 -0.2430  0.4549
81707W        W24619   7.687  14.863   5.045  0.1340  0.1522  0.0445
81708W        W24620  10.987  15.306   7.393 -0.0915  0.0865  0.3193
81709W        W24621   8.705  15.752   3.437  0.1221 -0.0968 -0.2159
81710W        W24622   7.710  17.685   4.503  0.1631  0.0607  0.1747
81711W        W24623   8.637  17.583   5.937 -0.0363 -0.0854  0.0837
81712W        W24624   9.306  15.779   3.801  0.0537 -0.1903 -0.1742
81713W        W24625   8.179  17.604   4.716  0.0292 -0.3344  0.0565
81714W        W24626   8.496  14.759   4.652 -0.2756  0.2015  0.3566
81715W        W24627  10.147  17.218   5.880  0.2783 -0.2741  0.2153
81716W        W24628   9.023  13.962   5.671  0.0159 -0.1367 -0.1034
81717W        W24629   7.909  14.696   4.583 -0.1547  0.2606 -0.0304
81718W        W24630   9.502  15.666   4.771  0.1367 -0.0155 -0.2142
81719W        W24631   9.486  16.897   5.567 -0.1807 -0.1622 -0.0057
81720W        W24632   8.949  15.367   5.796 -0.0035  0.1765  0.3209
81721W        W24633   9.078  17.713   7.069  0.1897 -0.0487 -0.0920
81722W        W24634   8.142  14.602   6.334 -0.3385  0.2251 -0.1527
81723W        W24635  10.851  19.943   4.039  0.1420 -0.3330 -0.0687
81724W        W24636   9.841  14.960   5.595  0.0153 -0.2086 -0.0342
81725W        W24637   6.493  16.751   3.175 -0.0855 -0.0456  0.0690
81726W        W24638   7.621  15.104   4.560 -0.4969  0.1174 -0.0948
81727W        W24639   7.987  16.003   4.176 -0.3568  0.2625 -0.2830
81728W        W24640   8.313  14.491   4.219 -0.2253  0.0247  0.1527
81729W        W24641   8.095  15.296   5.144  0.0961 -0.0774  0.1259
81730W        W24642   8.195  17.138   2.797 -0.0998  0.0554  0.0629
81731W        W24643   8.075  15.895   5.791  0.2388 -0.0094  0.4497
81732W        W24644  10.963  14.920   4.252 -0.1110 -0.0236  0.3536
81733W        W24645   7.444  15.769   4.024  0.2814 -0.0975  0.1663
81734W        W24646  10.068  15.778   4.893  0.0430  0.0553  0.0184
81735W        W24647  10.193  15.020   5.121 -0.0764  0.0619 -0.4412
81736W        W24648   9.684  16.078   5.223 -0.1682  0.1393 -0.0123
81737W        W24649  10.282  13.785   7.125 -0.0604 -0.0988 -0.1938
81738W        W24650   8.829  15.355   7.654  0.0727  0.0981  0.2801
81739W        W24651  10.611  16.856   3.967 -0.3128  0.1312  0.1033
81740W        W24652   7.810  16.208   6.693 -0.2961  0.1405  0.0152
81741W        W24653   8.409  19.049   6.004  0.0159  0.0948 -0.0118
81742W        W24654   7.624  16.628   6.648  0.0717 -0.1566  0.1674
81743W        W24655  10.141  14.805   3.624  0.0427  0.0618  0.2537
81744W        W24656   9.493  13.862   3.776  0.2216  0.3304  0.0855
81745W        W24657   9.397  16.563   5.249  0.2867  0.3341  0.2640
81746W        W24658   9.699  17.342   5.675  0.3700 -0.0544 -0.2044
81747W        W24659   7.659  15.660   3.525 -0.1900 -0.2634  0.0214
81748W        W24660  11.067  15.351   5.603 -0.0483  0.0257 -0.1162
81749W        W24661   8.185  15.493   6.185  0.0529  0.0768  0.1843
81750W        W24662  10.612  15.527   5.608  0.2370  0.1385 -0.0301
81751W        W24663   8.454  15.976   3.916 -0.1227 -0.1649  0.1156
81752W        W24664   8.478  16.338   5.462  0.2885  0.4237  0.2993
81753W        W24665   9.437  14.850   6.839  0.0728  0.0916 -0.1594
81754W        W24666  10.161  16.154   3.636 -0.4119  0.0572  0.1717
81755W        W24667   9.895  14.557   5.913  0.3022  0.2774  0.1199
81756W        W24668   8.963  16.104   4.712 -0.0621 -0.1065 -0.1485
81757W        W24669  11.289  15.884   6.147 -0.0443  0.0907  0.0542
81758W        W24670   9.592  15.766   6.557 -0.1118  0.0731 -0.3473
81759W        W24671   6.480  14.781   6.922 -0.1158  0.2100 -0.1453
81760W        W24672  10.228  18.164   5.784 -0.1608  0.0283  0.2577
81761W        W24673  10.765  16.211   1.744 -0.4121 -0.2511  0.2918
81762W        W24674   9.935  14.927   6.844  0.0358 -0.2204  0.1320
81763W        W24675  11.325  16.263   4.478 -0.0262  0.1743  0.0384
81764W        W24676  10.159  16.666   4.227  0.1314  0.3016 -0.1361
81765W        W24677   8.661  14.431   6.256  0.3665  0.2908  0.2533
81766W        W24678  10.037  15.620   7.360  0.1801 -0.1714  0.2000
81767W        W24679   9.641  15.330   3.467 -0.0913 -0.2704  0.2161
81768W        W24680   9.886  14.304   5.469  0.2637  0.0831 -0.0080
81769W        W24681   9.666  16.843   3.321 -0.1348 -0.0496  0.2112
81770W        W24682   9.467  16.060   6.184 -0.1225 -0.2728 -0.1361
81771W        W24683   9.379  15.415   4.135  0.0097 -0.2784  0.0751
81772W        W24684   7.349  14.103   4.431 -0.1201 -0.0830 -0.1197
81773W        W24685   7.243  17.753   7.602  0.1454 -0.1772 -0.0722
81774W        W24686   6.963  15.685   3.784 -0.0705 -0.1885 -0.0039
81775W        W24687   7.236  16.590   3.674  0.0237 -0.0583 -0.3137
81776W        W24688   9.141  17.587   6.014  0.1709  0.2343 -0.0230
81777W        W24689  11.002  16.871   7.727 -0.2635  0.1596  0.1135
81778W        W24690   9.431  15.705   3.205  0.0055  0.0962  0.1947
81779W        W24691  10.258  15.457   6.938 -0.1173  0.1009  0.2486
81780W        W24692   8.106  17.187   4.521  0.0921 -0.3532 -0.0426
81781W        W24693   7.985  15.050   3.598  0.0387 -0.1637  0.0718
81782W        W24694   8.817  17.339   6.869  0.0078 -0.0500  0.0059
81783W        W24695   6.966  16.305   6.248  0.1552 -0.0565 -0.1292
81784W        W24696   8.118  16.158   4.617  0.2383 -0.0077  0.1020
81785W        W24697   9.220  13.970   5.195  0.2183 -0.1348  0.1100
81786W        W24698  10.011  17.000   5.468 -0.2652 -0.0319 -0.1598
81787W        W24699   8.121  15.122   4.652 -0.0764 -0.2333  0.1141
81788W        W24700  11.260  16.884   6.298  0.0570 -0.0121 -0.0218
81789W        W24701   9.305  15.910   6.958  0.1695  0.1762  0.2151
81790W        W24702   8.027  15.024   4.174  0.0172 -0.0843  0.0016
81791W        W24703   9.188  18.206   6.940  0.1855  0.2301 -0.2857
81792W        W24704  10.741  16.966   5.378  0.1047 -0.2879  0.3879
81793W        W24705   9.358  16.034   4.428  0.0674 -0.1588  0.0333
81794W        W24706   8.922  15.016   6.633  0.1340 -0.1887  0.0752
81795W        W24707  10.522  15.456   6.450 -0.2745  0.0206  0.2008
81796W        W24708   8.940  16.329   5.232 -0.0314  0.1935  0.2464
81797W        W24709   8.977  14.731   4.560 -0.3240  0.0880 -0.0133
81798W        W24710   8.006  16.049   3.561 -0.2514 -0.0926 -0.0033
81799W        W24711   8.816  15.408   6.259  0.2611  0.1354 -0.3004
81800W        W24712   7.613  16.128   5.861 -0.1074 -0.1153 -0.2949
81801W        W24713   8.455  18.290   4.599 -0.2682 -0.0376  0.1022
81802W        W24714  10.892  15.965   3.692  0.2061 -0.1366 -0.0380
81803W        W24715   9.715  16.631   3.833  0.1485  0.0218  0.0950
81804W        W24716  10.245  18.096   6.282  0.0644  0.0819  0.1643
81805W        W24717   8.894  16.258   3.668  0.2794  0.0230 -0.1714
81806W        W24718   8.678  17.318   5.317 -0.1623 -0.2647  0.2460
81807W        W24719   7.163  16.766   2.491 -0.0869  0.0781 -0.3551
81808W        W24720  10.068  16.180   4.119  0.2571  0.1604 -0.2018
81809W        W24721   8.704  16.890   4.464 -0.0433  0.0575 -0.0310
81810W        W24722  11.209  16.556   6.753  0.1109 -0.2154 -0.3273
81811W        W24723  10.690  14.512   4.118  0.0823  0.2339 -0.0590
81812W        W24724  10.895  16.611   6.089 -0.2158  0.0076 -0.0334
81813W        W24725  10.411  15.456   5.062  0.1151 -0.0563 -0.0205
81814W        W24726   9.239  18.450   6.129 -0.3644 -0.0442  0.0067
81815W        W24727   7.628  15.558   5.918  0.0388 -0.2094  0.3533
81816W        W24728   9.803  14.422   4.472  0.0886 -0.2612  0.1596
81817W        W24729   8.623  15.337   5.363 -0.0820 -0.0528  0.2727
81818W        W24730  10.724  14.616   6.119  0.0036  0.1230  0.1425
81819W        W24731   5.905  17.402   6.113  0.2620 -0.0321 -0.4440
81820W        W24732  10.152  17.702   4.128  0.2124 -0.1697  0.0100
81821W        W24733   7.586  13.914   4.791 -0.0572  0.1842  0.1401
81822W        W24734   8.088  14.320   5.471 -0.1140  0.1560  0.1532
81823W        W24735  11.459  14.487   5.258 -0.0151  0.1803  0.2331
81824W        W24736   9.451  17.035   2.580  0.1809 -0.2560  0.2674
81825W        W24737   9.163  15.553   5.368 -0.2025  0.1720 -0.0942
81826W        W24738   9.804  19.336   4.848 -0.4915 -0.1621 -0.1957
81827W        W24739   9.429  16.362   6.630  0.0291  0.0940 -0.0765
81828W        W24740   8.629  17.054   6.021  0.1079  0.3545  0.1012
81829W        W24741   5.125  14.288   5.681  0.1912  0.1226 -0.3495
81830W        W24742  11.958  14.659   4.827 -0.0564  0.0814  0.0201
81831W        W24743   7.480  14.546   6.770  0.1406 -0.2313  0.2708
81832W        W24744  10.535  12.387   6.682  0.3157  0.1427  0.0389
81833W        W24745   8.550  15.073   3.175  0.0370 -0.0890  0.2521
81834W        W24746  11.336  15.956   4.034 -0.2367  0.0643  0.2634
81835W        W24747   8.915  15.945   5.988 -0.0491  0.0976  0.1864
81836W        W24748   8.646  14.601   7.775  0.0432  0.0306 -0.0339
81837W        W24749   9.951  16.096   2.764  0.0729 -0.2165 -0.0392
81838W        W24750  11.493  16.332   6.342  0.0049  0.1589 -0.1969
81839W        W24751   7.983  16.079   3.077 -0.1050 -0.1630  0.1504
81840W        W24752  10.034  19.037   6.698  0.0299  0.2083  0.1703
81841W        W24753   7.819  13.684   3.249 -0.0008  0.0478  0.0786
81842W        W24754  10.649  15.346   4.311  0.5079 -0.1074 -0.1341
81843W        W24755   8.661  16.524   4.806 -0.3198 -0.3435 -0.3379
81844W        W24756   9.079  15.890   6.479  0.5032  0.0487 -0.1427
81845W        W24757   9.674  18.258   5.648 -0.1967 -0.2665 -0.1314
81846W        W24758   8.812  14.270   5.292  0.2974  0.3371  0.0328
81847W        W24759  11.016  16.241   3.141 -0.0201 -0.0983 -0.1884
81848W        W24760  10.000  16.520   5.608  0.1986  0.0248 -0.0752
81849W        W24761   7.520  18.010   2.771 -0.1307  0.0486  0.0450
81850W        W24762  10.207  17.027   5.006  0.2408 -0.1276 -0.0143
81851W        W24763   8.717  18.209   5.538 -0.1643  0.2225  0.0198
81852W        W24764   7.449  16.391   6.247 -0.3843 -0.3286 -0.0372
81853W        W24765  10.139  17.645   6.196 -0.0082  0.1066 -0.1977
81854W        W24766   9.408  17.867   5.399 -0.3831  0.2320  0.4285
81855W        W24767  10.090  14.409   4.904 -0.1445 -0.4257  0.2078
81856W        W24768   8.360  15.392   4.182 -0.2947 -0.0167 -0.0011
81857W        W24769   8.937  17.698   5.511  0.2982  0.3240 -0.1153
81858W        W24770   9.698  15.579   5.407 -0.2664 -0.2531 -0.0115
81859W        W24771   9.933  15.369   6.562 -0.2586  0.1941  0.1584
81860W        W24772   8.913  18.940   2.356  0.3213 -0.2598  0.0065
81861W        W24773   9.935  13.527   7.377  0.0164 -0.2044  0.2290
81862W        W24774   8.530  15.665   5.829  0.0059  0.1357 -0.3043
81863W        W24775   7.444  19.244   7.463  0.2430  0.0974 -0.0078
81864W        W24776   7.741  16.900   4.290 -0.2181  0.3425  0.2053
81865W        W24777   9.300  15.530   6.235  0.0707  0.0260 -0.0584
81866W        W24778   8.244  16.724   4.580 -0.1191 -0.0388  0.0599
81867W        W24779   9.016  16.478   4.406  0.2144 -0.0404  0.1398
81868W        W24780   9.947  17.895   5.364 -0.2079  0.1060 -0.2913
81869W        W24781  10.190  15.340   4.524  0.1618  0.1227 -0.5291
81870W        W24782  10.428  17.598   4.482 -0.0831 -0.1342  0.0894
81871W        W24783   8.798  14.950   4.983 -0.0187 -0.2515  0.0692
81872W        W24784  10.329  14.578   4.458  0.2099  0.0387  0.0047
81873W        W24785  11.697  15.187   3.766  0.1260  0.2460  0.0284
81874W        W24786  10.258  16.288   6.834 -0.0004  0.2006  0.1507
81875W        W24787   7.611  15.299   2.569 -0.0895  0.1834 -0.1670
81876W        W24788   7.004  17.382   3.540  0.2195  0.2247  0.4901
81877W        W24789   7.643  15.391   5.469 -0.0844  0.3366  0.1212
81878W        W24790   9.176  14.267   8.296 -0.0358  0.0310  0.1938
81879W        W24791   7.182  15.254   7.212  0.0906  0.0604  0.2712
81880W        W24792   7.603  16.818   5.584  0.0299  0.0071 -0.1044
81881W        W24793   7.800  14.402   4.217 -0.2007 -0.0429  0.1888
81882W        W24794  10.136  16.720   2.373 -0.1544  0.2624 -0.1451
81883W        W24795   8.028  15.172   6.627  0.0079 -0.0445  0.0865
81884W        W24796   7.299  14.911   5.367  0.1623 -0.1213  0.0915
81885W        W24797   9.635  16.118   3.483 -0.0884 -0.0166 -0.1824
81886W        W24798  10.612  17.349   4.057  0.0109 -0.1130  0.0853
81887W        W24799   8.671  15.287   4.598 -0.0235 -0.1629 -0.0306
81888W        W24800  11.027  18.859   5.489 -0.0655  0.2753  0.0674
81889W        W24801   7.942  17.209   3.332 -0.1717  0.2227  0.1878
81890W        W24802   9.414  13.524   5.732 -0.1289  0.1234  0.1182
81891W        W24803   9.609  14.115   6.561  0.0711  0.2430 -0.3043
81892W        W24804   7.478  16.135   4.438 -0.2261 -0.0226  0.2642
81893W        W24805   8.043  14.920   5.472  0.2263 -0.0487 -0.2022
81894W        W24806   7.956  17.901   5.333 -0.1276  0.1075  0.2241
81895W        W24807   9.505  16.241   2.928 -0.0713 -0.1682 -0.1214
81896W        W24808   9.220  16.767   5.950  0.1543  0.0326 -0.1317
81897W        W24809   9.083  16.401   6.246 -0.1382 -0.2419  0.0305
81898W        W24810   7.881  14.253   6.571  0.0990 -0.0107  0.1657
81899W        W24811  10.790  15.789   2.526 -0.0250  0.1465  0.0272
81900W        W24812   8.581  16.401   6.464 -0.0509 -0.1359  0.0154
81901W        W24813  11.606  16.396   4.107 -0.3347  0.1204 -0.1657
81902W        W24814   9.634  13.813   6.102 -0.0305 -0.1618  0.1671
81903W        W24815   9.863  15.368   4.916  0.2394 -0.0384  0.1827
81904W        W24816   8.114  12.747   7.897 -0.3519  0.1188  0.2904
81905W        W24817   6.791  15.603   6.973 -0.0281  0.2160 -0.0913
81906W        W24818  11.279  17.939   5.378  0.0186 -0.0629  0.1825
81907W        W24819   8.163  14.141   6.008 -0.0603  0.0496 -0.0310
81908W        W24820  10.973  14.388   5.060  0.0514 -0.0452 -0.2804
81909W        W24821   9.083  16.768   3.948  0.0341  0.0217  0.2905
81910W        W24822   5.645  17.085   5.836  0.1332 -0.0426 -0.0188
81911W        W24823  10.745  15.849   3.036 -0.0362  0.0256 -0.1204
81912W        W24824   8.532  14.672   5.359  0.2111  0.0764 -0.1968
81913W        W24825   8.193  17.032   4.092 -0.1174  0.0727 -0.2992
81914W        W24826  10.231  16.811   6.614 -0.0757 -0.3303  0.4003
81915W        W24827   8.054  16.499   4.177 -0.1437 -0.1624 -0.1225
81916W        W24828  10.468  16.126   2.588  0.1134 -0.0760 -0.3551
81917W        W24829   9.604  16.994   6.097 -0.0748 -0.2638 -0.0870
81918W        W24830  11.421  17.761   7.628 -0.3082  0.2036 -0.0885
81919W        W24831   8.977  18.800   5.810 -0.0630 -0.2248 -0.2053
81920W        W24832  10.815  16.134   6.224  0.2623  0.0324 -0.0547
81921W        W24833   7.628  15.003   5.789 -0.0475 -0.3737  0.1558
81922W        W24834   7.021  17.902   2.468  0.0687 -0.3209  0.1781
81923W        W24835   7.437  14.498   4.678 -0.0480 -0.1273 -0.1221
81924W        W24836   9.777  15.086   6.099 -0.2573  0.1605  0.2811
81925W        W24837   7.610  15.252   4.017  0.0335 -0.1230  0.0991
81926W        W24838  10.535  14.546   3.610 -0.0788  0.1562  0.0903
81927W        W24839   7.426  19.181   6.359  0.1223 -0.0829 -0.2148
81928W        W24840   9.383  16.337   5.774 -0.0306 -0.1113  0.1441
81929W        W24841   7.690  17.400   9.835  0.0937 -0.0353 -0.1916
81930W        W24842   8.671  13.300   9.308  0.0028 -0.5030 -0.1362
81931W        W24843  10.717  13.978   6.853  0.1037  0.0751  0.2016
81932W        W24844  12.062  17.110   7.939  0.0764 -0.1952  0.3636
81933W        W24845   8.254  13.286   8.963  0.0007 -0.0543 -0.0963
81934W        W24846  10.115  18.392   8.264  0.3035  0.2831 -0.0606
81935W        W24847   9.358  16.488   8.408  0.0775 -0.1193  0.1039
81936W        W24848  10.144  18.655   9.113 -0.2515  0.0004  0.0317
81937W        W24849  10.196  16.876   8.255 -0.1487 -0.3625 -0.0492
81938W        W24850   9.062  15.158   9.560  0.0860 -0.2766 -0.1579
81939W        W24851   7.711  15.245   7.695 -0.3492  0.1537 -0.2001
81940W        W24852   6.979  14.644   8.306 -0.2549  0.0031  0.0220
81941W        W24853   9.095  15.764   7.807  0.1433  0.1195  0.0417
81942W        W24854   8.484  16.499   7.833  0.1997 -0.0496 -0.0347
81943W        W24855   8.921  15.362   9.097 -0.3619 -0.1402 -0.0038
81944W        W24856   8.748  15.979   6.818  0.1181 -0.3296 -0.2329
81945W        W24857   8.855  17.428   7.433 -0.2681  0.0328 -0.1171
81946W        W24858   9.976  14.441   9.284 -0.1590  0.1034  0.2133
81947W        W24859   8.437  17.189   8.342  0.0381 -0.0556  0.2639
81948W        W24860   7.479  15.689   7.510 -0.1689  0.0808 -0.0242
81949W        W24861   7.013  16.088   8.469  0.4492  0.1426 -0.0474
81950W        W24862  12.738  12.726   9.745  0.0885  0.1189 -0.0058
81951W        W24863   9.861  15.203   8.221  0.1119  0.1258 -0.0663
81952W        W24864   7.847  18.706   8.707 -0.1373  0.0074  0.0441
81953W        W24865   9.130  17.057   8.235  0.1834  0.0945 -0.3649
81954W        W24866   8.449  15.306   8.484 -0.0104  0.2137 -0.1438
81955W        W24867   7.470  18.844   9.024 -0.2854  0.1594  0.2917
81956W        W24868   7.745  18.127   7.701  0.0585 -0.0637  0.1404
81957W        W24869  10.905  17.065   9.405 -0.2765  0.0147 -0.0283
81958W        W24870   7.471  17.376   7.854  0.2233  0.0675  0.1776
81959W        W24871   9.142  15.213   8.085 -0.0594  0.0734  0.2098
81960W        W24872   9.123  17.078   7.751  0.1889  0.1796 -0.2225
81961W        W24873   7.913  17.488   7.641 -0.0335  0.0279  0.2292
81962W        W24874   8.637  16.758   8.696  0.4351 -0.4853 -0.2423
81963W        W24875   9.753  17.993   9.911 -0.1004 -0.1268 -0.0682
81964W        W24876   8.069  18.308   6.787 -0.0722  0.1620  0.1283
81965W        W24877   9.474  15.312   6.751 -0.1325 -0.2393  0.1182
81966W        W24878   9.808  15.893   7.008  0.3426  0.1512  0.0822
81967W        W24879  10.822  14.399   8.538  0.1524 -0.3545 -0.0072
81968W        W24880   7.767  13.389   9.540  0.1725  0.1798  0.1637
81969W        W24881   7.792  18.437   9.294 -0.2082  0.1597  0.3505
81970W        W24882   8.044  13.709   9.751 -0.0012  0.2907 -0.1374
81971W        W24883   9.508  14.425   6.177  0.1473 -0.0611  0.0457
81972W        W24884   9.014  15.784   9.520  0.0236  0.1525 -0.0109
81973W        W24885   8.488  17.652   8.663 -0.2141  0.4354 -0.0914
81974W        W24886   8.011  16.208   9.664 -0.2211 -0.2156 -0.1278
81975W        W24887  10.449  17.140   7.317 -0.2875  0.2057 -0.3023
81976W        W24888   9.498  18.951   7.872 -0.1867  0.0585  0.0119
81977W        W24889  11.109  18.185   6.830  0.1264 -0.4012 -0.3168
81978W        W24890   8.098  15.191   8.105 -0.0031 -0.2215 -0.0623
81979W        W24891   9.622  13.333   6.877 -0.0883 -0.1955  0.0458
81980W        W24892   9.562  15.009   8.577  0.2288 -0.0899 -0.0539
81981W        W24893   7.738  16.108   9.173 -0.0699 -0.3010 -0.2310
81982W        W24894   9.802  17.322   9.329 -0.2697  0.1063 -0.0604
81983W        W24895  10.562  16.444   6.509 -0.3122  0.0600 -0.1260
81984W        W24896  10.876  13.835   9.470  0.0623 -0.1645 -0.1959
81985W        W24897  12.600  15.050   9.333 -0.2708  0.2227  0.1158
81986W        W24898   8.438  17.200   7.269 -0.2810 -0.1937 -0.1099
81987W        W24899   8.223  15.775   8.820 -0.0756  0.0390  0.1913
81988W        W24900  11.312  16.121   9.417  0.0127 -0.1515 -0.1302
81989W        W24901  10.495  15.344   7.369 -0.2224 -0.1408 -0.1694
81990W        W24902   9.756  17.649   8.894 -0.0551  0.3142 -0.0644
81991W        W24903   8.457  16.183   6.000 -0.3065 -0.2749 -0.0343
81992W        W24904  10.096  16.756   9.127  0.0049  0.0955  0.1726
81993W        W24905   8.482  17.193   8.960 -0.0150 -0.1643  0.4788
81994W        W24906   8.644  15.778   9.128  0.1284  0.0420 -0.2698
81995W        W24907   9.611  16.935   9.112  0.0421 -0.1770  0.0864
81996W        W24908  10.535  14.873   7.175 -0.2101 -0.0561  0.1570
81997W        W24909  10.145  14.038   8.775 -0.0226 -0.0023 -0.0434
81998W        W24910   7.630  16.979   7.663 -0.0524  0.0898  0.0149
81999W        W24911  10.327  18.643   6.971 -0.1077  0.0287  0.0008
82000W        W24912  10.994  15.125   8.582  0.0271  0.0916 -0.3922
82001W        W24913  10.031  17.525   6.690 -0.0016 -0.0676  0.2919
82002W        W24914   7.336  15.695   8.424 -0.1730 -0.3004 -0.0536
82003W        W24915   6.461  14.265   8.202 -0.4573 -0.0980 -0.0188
82004W        W24916   7.608  14.797   8.934 -0.2344 -0.0993 -0.1785
82005W        W24917   6.253  14.674   8.069  0.3263 -0.3168 -0.2514
82006W        W24918   9.203  16.256   7.675  0.1236  0.0648  0.1248
82007W        W24919   8.574  15.032   8.003 -0.0664 -0.0677  0.3665
82008W        W24920   6.457  16.946   7.898 -0.2811 -0.0103  0.1760
82009W        W24921   9.797  17.936   6.496 -0.2940 -0.0265  0.0393
82010W        W24922  12.537  14.544   9.365  0.0632  0.0894  0.0256
82011W        W24923   9.522  18.475   8.130 -0.0284 -0.1385 -0.1283
82012W        W24924  10.143  14.238   9.707 -0.0588  0.0285  0.2302
82013W        W24925   8.170  15.626   7.148  0.0419  0.1355  0.2149
82014W        W24926   8.410  17.959   9.018 -0.5108 -0.0656  0.3278
82015W        W24927   8.978  16.301   8.794  0.0573 -0.0399  0.2096
82016W        W24928   8.737  14.924   8.418 -0.0918  0.2713 -0.1337
82017W        W24929   9.895  17.824   8.479  0.0148  0.1059  0.0701
82018W        W24930   8.248  15.699   8.210  0.0575 -0.1795 -0.1579
82019W        W24931   9.581  18.811   9.191  0.0172  0.0831 -0.5194
82020W        W24932   9.675  16.859   8.078  0.2783  0.0246 -0.1720
82021W        W24933   9.137  13.703   8.675  0.0560 -0.2271 -0.0869
82022W        W24934   9.153  17.733   8.445 -0.0950 -0.4184  0.1699
82023W        W24935   7.213  18.214   8.109 -0.1958 -0.0604  0.1056
82024W        W24936   6.566  16.055   8.243  0.3484  0.0987 -0.0161
82025W        W24937   8.266  16.699   8.269  0.1011 -0.2641  0.3919
82026W        W24938  10.227  14.830   9.506 -0.3667  0.0298 -0.2974
82027W        W24939   6.372  15.417   7.719  0.1152 -0.1575 -0.1720
82028W        W24940  10.185  14.310   7.781  0.1323 -0.1561  0.0502
82029W        W24941  10.012  14.695   8.046 -0.1629  0.1657 -0.2059
82030W        W24942  10.616  18.660   7.708  0.1079  0.3934  0.1508
82031W        W24943   9.106  14.905   7.679  0.0262 -0.1444 -0.0907
82032W        W24944  10.023  13.846   7.821 -0.0787  0.1295 -0.0387
82033W        W24945   9.617  17.075   9.952 -0.1951  0.2088  0.2454
82034W        W24946   8.743  16.229   9.387  0.0003 -0.2752  0.1675
82035W        W24947   9.136  16.650   7.971 -0.0407  0.1416  0.2135
82036W        W24948  10.766  18.400   8.272 -0.2730  0.1647  0.1506
82037W        W24949   7.092  17.824   8.777 -0.2323 -0.0457  0.0791
82038W        W24950   8.785  17.398   8.039 -0.2465 -0.1994  0.0383
82039W        W24951  11.108  14.259   9.583  0.2434 -0.2879 -0.2040
82040W        W24952   8.642  15.418   7.211  0.0084 -0.0816 -0.0669
82041W        W24953   9.587  15.041   7.234  0.1851 -0.0028 -0.1195
82042W        W24954   7.983  18.584   5.065  0.0735  0.0089  0.1934
82043W        W24955  10.556  13.981   9.879  0.0349 -0.2821  0.0911
82044W        W24956  11.976  14.535   9.965 -0.0944 -0.1368 -0.0953
82045W        W24957   9.346  15.313   7.627 -0.1156 -0.0646 -0.2643
82046W        W24958   9.898  16.914   9.617 -0.3606  0.1661  0.1190
82047W        W24959   8.481  15.440   6.669  0.0419 -0.0575  0.0834
82048W        W24960  13.273  14.719   9.660  0.1234  0.0200  0.1222
82049W        W24961   8.230  17.663   9.520  0.0221 -0.1515 -0.2469
82050W        W24962  10.371  17.396   8.265  0.0083 -0.3357  0.2763
82051W        W24963   9.681  13.876   8.552  0.3196 -0.0621 -0.2824
82052W        W24964   8.502  18.247   7.066  0.1878 -0.1654  0.0726
82053W        W24965   8.471  17.630   7.697  0.1528 -0.0464  0.0443
82054W        W24966  10.409  12.432   8.300  0.1872  0.0387  0.3069
82055W        W24967   9.318  17.939   8.864  0.0788  0.0994  0.0448
82056W        W24968   7.360  17.071   6.810 -0.0813 -0.3188 -0.2076
82057W        W24969   8.653  15.843   8.515  0.2348  0.0330 -0.2093
82058W        W24970   8.266  19.405   8.043  0.3248  0.3152 -0.0455
82059W        W24971  10.792  14.781   8.957 -0.0225 -0.0817 -0.2617
82060W        W24972   9.746  18.382   9.053 -0.2015 -0.4209  0.1354
82061W        W24973   8.917  16.116   7.274 -0.0938  0.1482 -0.2175
82062W        W24974   8.012  14.737   6.792  0.2000  0.0405 -0.0098
82063W        W24975   9.313  13.892   9.545  0.1485  0.0368  0.3653
82064W        W24976  11.310  15.287   6.943 -0.1899  0.1719 -0.1290
82065W        W24977   7.369  13.660   9.829 -0.0596  0.0792  0.3047
82066W        W24978   8.394  14.577   9.145 -0.2229  0.0355  0.0422
82067W        W24979   9.342  17.799  10.203 -0.1257 -0.0141 -0.0697
82068W        W24980   9.945  14.610   7.424  0.2551 -0.1447 -0.0673
82069W        W24981   7.299  15.696   7.027  0.0196  0.0328  0.0136
82070W        W24982  10.613  15.835   8.703  0.0217  0.0269 -0.2775
82071W        W24983   8.313  14.721   8.308 -0.0006  0.4114  0.1415
82072W        W24984   7.968  18.433   7.250  0.1507  0.0645 -0.0654
82073W        W24985  10.008  14.697  10.186 -0.0257 -0.1754  0.0412
82074W        W24986   8.504  14.999   6.411  0.3609  0.2158  0.0896
82075W        W24987   8.689  16.875   8.068 -0.2436 -0.0798 -0.1573
82076W        W24988  10.275  17.653   8.736  0.2805 -0.1656 -0.0249
82077W        W24989   8.718  14.121   9.093  0.2517  0.1625  0.1427
82078W        W24990   8.374  14.976  10.324  0.0447  0.0204 -0.1155
82079W        W24991   8.720  14.933   8.947 -0.0175 -0.0422 -0.0564
82080W        W24992   9.515  16.011   7.422  0.1251 -0.0132  0.0011
82081W        W24993   9.078  15.788   8.863 -0.3072 -0.3689  0.0831
82082W        W24994   9.255  13.142   8.804 -0.0264  0.0900 -0.2240
82083W        W24995  10.390  18.086   7.303  0.1937  0.0875  0.0307
82084W        W24996   8.713  16.906   6.520  0.1304 -0.5004  0.2679
82085W        W24997   8.362  16.542   9.585  0.1074  0.2555  0.0197
82086W        W24998   7.937  16.666   7.870 -0.3529  0.5499 -0.0955
82087W        W24999   8.894  14.216   9.585 -0.1555  0.1480  0.2721
82088W        W25000   8.116  17.504   9.049  0.0199 -0.1974  0.2839
82089W        W25001   7.899  17.174   8.138  0.1030 -0.0160  0.0097
82090W        W25002   8.274  18.247   9.503  0.0083  0.1989 -0.1245
82091W        W25003  11.087  13.442   7.186 -0.0454 -0.0626  0.0980
82092W        W25004  10.355  17.625   7.129  0.3332  0.2422  0.4273
82093W        W25005   8.688  16.071   8.027 -0.1370  0.0670 -0.0130
82094W        W25006   9.549  15.522   7.255  0.0640  0.0837 -0.1191
82095W        W25007   9.399  14.402   9.376 -0.0044  0.0101 -0.0193
82096W        W25008  10.078  15.986   8.701  0.0958  0.0186  0.1104
82097W        W25009   9.890  16.347   7.301 -0.0952  0.0388 -0.0272
82098W        W25010   8.231  14.394   7.912 -0.0437  0.0326 -0.1303
82099W        W25011   8.178  14.179   9.027 -0.2413 -0.0596  0.2305
82100W        W25012   9.891  15.831   8.207  0.2766 -0.0431  0.1118
82101W        W25013   9.495  17.230   6.699 -0.1561  0.1708  0.2019
82102W        W25014   9.477  15.489   8.822  0.0354  0.3363 -0.3044
82103W        W25015   9.559  16.040   9.565  0.0750 -0.1085 -0.1419
82104W        W25016   9.586  17.068   7.596  0.0118 -0.0286 -0.2968
82105W        W25017  10.751  16.306   6.968 -0.2456 -0.0871  0.0769
82106W        W25018   7.427  15.252   8.682  0.2240  0.1258 -0.1017
82107W        W25019  10.623  15.453   9.132  0.1687  0.0837 -0.2848
82108W        W25020   8.993  14.587   8.623  0.1149 -0.0936 -0.0914
82109W        W25021  10.202  17.346   9.591  0.0884  0.0747 -0.0140
82110W        W25022  10.071  15.094   7.276 -0.3911 -0.0623  0.0041
82111W        W25023  10.100  16.442   9.614  0.0601  0.2149  0.0452
82112W        W25024   9.968  15.517   8.585  0.0990  0.1599  0.1863
82113W        W25025   9.386  16.497   7.094  0.1745 -0.0681 -0.2631
82114W        W25026   8.106  14.670   9.718 -0.0074 -0.2939  0.2250
82115W        W25027   8.269  15.385   7.629 -0.1526  0.0565  0.1426
82116W        W25028  10.414  17.225   6.842 -0.2322  0.1381  0.2172
82117W        W25029   9.114  16.649   9.191 -0.1746  0.1428 -0.0223
82118W        W25030  10.361  15.635   8.268  0.2706  0.0085  0.0401
82119W        W25031   9.621  16.718  10.290  0.0107  0.0553  0.2095
82120W        W25032   7.696  15.388   7.179  0.1331  0.0844  0.0388
82121W        W25033  10.536  15.859   7.113 -0.3031 -0.1534 -0.1591
82122W        W25034  10.604  17.225   9.839 -0.3249  0.0426 -0.1502
82123W        W25035   9.790  13.810   6.939  0.0131  0.0669 -0.2300
82124W        W25036   9.361  17.078   9.501  0.4373 -0.0976 -0.1374
82125W        W25037  11.125  14.748   9.382  0.2029 -0.2381 -0.1219
82126W        W25038   7.944  18.977   9.235  0.0018  0.0053 -0.0882
82127W        W25039   9.102  18.133   9.383 -0.1332 -0.0867  0.2231
82128W        W25040  11.034  13.197   8.187 -0.0864 -0.0413 -0.1983
82129W        W25041   9.691  15.604   7.827  0.1571  0.0208  0.1504
82130W        W25042   9.008  15.353   8.615 -0.4154 -0.0464  0.3485
82131W        W25043   7.791  16.482   8.378  0.0174  0.0099 -0.1030
82132W        W25044   9.699  16.881   8.577 -0.0853  0.1113 -0.1536
82133W        W25045   7.991  14.824   9.211  0.0885  0.1202  0.0724
82134W        W25046  10.793  16.821   9.030 -0.1190  0.3398  0.4918
82135W        W25047   8.581  13.573   8.269  0.0506 -0.0247  0.0219
82136W        W25048   9.184  16.825   6.739  0.0966 -0.0937 -0.0782
82137W        W25049   7.433  16.193   8.197  0.1674  0.1819  0.1651
82138W        W25050   7.846  17.923   9.126  0.2906 -0.0683 -0.1522
82139W        W25051  10.395  16.738   7.047 -0.1707 -0.0737 -0.0655
82140W        W25052   9.269  16.137   9.182  0.1765 -0.1926 -0.0633
82141W        W25053   9.393  17.423   7.969  0.1766  0.0405 -0.2432
82142W        W25054  10.138  15.869   6.574  0.0401  0.2707  0.2130
82143W        W25055   6.489  16.836   9.634  0.1525  0.1098 -0.1447
82144W        W25056   8.139  16.820   8.844 -0.1380  0.0516  0.1991
82145W        W25057  10.264  18.965   7.457 -0.0623 -0.2290 -0.2682
82146W        W25058   8.471  16.234   8.876 -0.2855 -0.2925 -0.1530
82147W        W25059  10.850  12.947   7.231  0.2337 -0.1925  0.1564
82148W        W25060   9.491  16.008   8.631 -0.1995 -0.1102  0.0113
82149W        W25061   9.895  16.050   7.728  0.0037  0.1250  0.1192
82150W        W25062   8.366  13.699   9.306  0.2580 -0.1328  0.1097
82151W        W25063   8.806  14.032   8.522  0.4393  0.3001  0.3110
82152W        W25064   9.027  18.736   8.096  0.1430 -0.1484  0.0362
82153W        W25065   7.953  15.817   7.632 -0.0679  0.0476  0.4150
82154W        W25066   7.880  15.653   9.463  0.1922 -0.1087 -0.1564
82155W        W25067  12.113  13.833   9.736 -0.1360 -0.4643 -0.0351
82156W        W25068  10.614  18.224   6.795 -0.0271  0.2723 -0.0859
82157W        W25069   9.094  15.997   8.284 -0.1980 -0.0871  0.0862
82158W        W25070   8.862  17.251   8.605 -0.0957 -0.1966 -0.0376
82159W        W25071   8.568  16.735   9.183 -0.0523 -0.0882 -0.1697
82160W        W25072   8.955  18.825   9.186 -0.2845 -0.1160  0.0031
82161W        W25073   7.635  14.614   9.672 -0.1636 -0.0634  0.2010
82162W        W25074  11.258  15.668   9.226 -0.0006 -0.2440 -0.1307
82163W        W25075  11.903  13.390   9.541 -0.1858  0.3030 -0.1533
82164W        W25076   8.906  16.511   8.379 -0.0526  0.0757 -0.0569
82165W        W25077   9.360  15.620   8.308  0.1655  0.2959 -0.1574
82166W        W25078   9.216  15.014   8.966 -0.1082 -0.0526  0.1866
82167W        W25079   9.632  16.483   9.403  0.1519 -0.1262  0.2111
82168W        W25080  10.602  15.949   6.601 -0.0326  0.0148  0.1440
82169W        W25081   8.887  14.923   6.087  0.2227  0.3465  0.0952
82170W        W25082   8.534  13.746   8.828  0.1474  0.2236 -0.2416
82171W        W25083   9.747  14.438   6.942  0.0913  0.1663 -0.2775
82172W        W25084   8.101  16.249   7.490 -0.2403  0.0780  0.1784
82173W        W25085   9.132  16.839   8.731 -0.2080 -0.2899  0.0099
82174W        W25086   7.837  11.719   9.783 -0.1942 -0.2546  0.2397
82175W        W25087  10.836  17.840   7.451 -0.1649 -0.0279 -0.3170
82176W        W25088   9.836  14.958   9.039 -0.1140  0.1172  0.1164
82177W        W25089   8.157  19.229   7.256 -0.0410 -0.4115 -0.2901
82178W        W25090  11.130  15.520   7.900  0.1030 -0.2276  0.4123
82179W        W25091   8.903  17.625   8.894  0.4953  0.2176  0.1158
82180W        W25092   7.326  13.539   9.327  0.0305 -0.2367 -0.2824
82181W        W25093   9.490  17.605   9.710 -0.2142 -0.2451 -0.4864
82182W        W25094   9.920  17.217   8.838  0.0991 -0.0308  0.0871
82183W        W25095   9.126  14.111   6.267 -0.3315  0.0872  0.1707
82184W        W25096   8.516  15.558   9.566 -0.0546  0.1062 -0.0774
82185W        W25097   6.567  18.591   6.405  0.0581  0.1240 -0.0172
82186W        W25098  11.816  13.839   9.308  0.4648 -0.0690 -0.1267
82187W        W25099  10.084  18.201   6.842 -0.4066 -0.2432  0.0613
82188W        W25100   8.314  14.159   9.567 -0.3001 -0.3681 -0.3046
82189W        W25101   8.046  17.470   7.155  0.0706  0.1914 -0.0112
82190W        W25102   7.937  15.399   8.535  0.0213 -0.2833  0.4302
82191W        W25103   9.539  17.500   7.361 -0.0757 -0.1464 -0.2824
82192W        W25104   9.755  17.356   8.292 -0.0147 -0.1018  0.2912
82193W        W25105   8.722  15.560   8.104 -0.0289 -0.0456  0.0521
82194W        W25106  10.899  17.358   8.996 -0.0603 -0.0730 -0.1512
82195W        W25107  10.241  13.574   9.641  0.0686  0.0593  0.1808
82196W        W25108   9.955  14.486   8.781  0.2997 -0.1360 -0.0621
82197W        W25109   9.535  14.631   7.775 -0.3202  0.1791  0.0281
82198W        W25110   8.288  15.341   8.984 -0.1498 -0.2288 -0.3152
82199W        W25111   7.895  15.637   6.730  0.4028  0.0008 -0.2714
82200W        W25112   9.884  16.782   7.037 -0.1408 -0.2089 -0.0698
82201W        W25113   7.889  16.620   9.238 -0.1227 -0.0209  0.0355
82202W        W25114   7.308  14.164   9.624  0.1268 -0.1138  0.0465
82203W        W25115   7.100  15.170   8.278 -0.0868 -0.0869 -0.0511
82204W        W25116  10.953  17.223   7.111  0.0168  0.0024  0.1404
82205W        W25117   6.688  12.970   8.923 -0.2338 -0.2902 -0.1338
82206W        W25118   7.609  15.262   8.161  0.1634  0.1154 -0.0166
82207W        W25119   9.609  17.756   6.902 -0.0424 -0.3868 -0.2015
82208W        W25120  10.069  16.780   7.491  0.2334  0.1981 -0.0168
82209W        W25121   8.731  13.810   9.822  0.3319 -0.1114 -0.1352
82210W        W25122   8.552  16.496   7.336 -0.0542  0.0557  0.0562
82211W        W25123   7.761  13.981   8.767  0.3798 -0.1460  0.0687
82212W        W25124   8.977  14.596   9.232  0.2185 -0.1460  0.1521
82213W        W25125   8.590  17.113   9.465 -0.0363  0.0101  0.0930
82214W        W25126  10.066  18.508   7.342 -0.1164 -0.0834 -0.1132
82215W        W25127   7.217  13.731   8.892  0.0793  0.1645  0.0981
82216W        W25128   9.922  18.684   7.825  0.0838  0.1616  0.1912
82217W        W25129  12.162  17.167   9.046 -0.2577 -0.2965  0.0582
82218W        W25130  10.111  12.093   9.767  0.2583 -0.4429 -0.0483
82219W        W25131   8.770  17.986   7.445  0.2242 -0.0855 -0.2243
82220W        W25132  10.325  14.990   9.016  0.1341 -0.1808  0.0189
82221W        W25133   5.929  13.582   8.949  0.0507  0.0388 -0.1649
82222W        W25134  10.457  14.477   9.078  0.0346  0.1044 -0.0616
82223W        W25135   9.589  17.471   6.251  0.2946 -0.0894  0.0992
82224W        W25136   8.879  16.793   9.673 -0.4145  0.0122  0.2040
82225W        W25137  10.040  17.156   7.841  0.0406  0.3789  0.0218
82226W        W25138   9.676  16.501   7.723 -0.2435 -0.0033  0.1141
82227W        W25139   9.124  16.672   7.454  0.3184 -0.0636  0.0196
82228W        W25140   9.687  15.517   9.687  0.1072 -0.2161  0.0454
82229W        W25141   8.153  18.454   8.991  0.1720  0.0596 -0.0906
82230W        W25142  10.433  18.098  10.076 -0.0933  0.2604  0.4793
82231W        W25143   9.538  13.065   9.285 -0.0331  0.1105 -0.0293
82232W        W25144   9.089  15.648   7.297  0.5274 -0.2998 -0.1949
82233W        W25145   8.752  16.260   9.914 -0.1473  0.1050 -0.1818
82234W        W25146  11.660  15.390   9.222  0.1693 -0.2857  0.1927
82235W        W25147   7.835  13.781   9.236  0.1009  0.1426  0.1750
82236W        W25148   9.653  14.529   8.337 -0.0931 -0.1731 -0.1485
82237W        W25149   7.535  17.891   9.524 -0.0121  0.1352 -0.0961
82238W        W25150   9.630  16.471   8.861  0.1826  0.0033 -0.0638
82239W        W25151  11.179  20.960   3.138 -0.1045 -0.0390  0.2613
82240W        W25152   9.807  18.150  31.669 -0.0072  0.3466 -0.1387
82241W        W25153  12.175  17.427  30.341 -0.1686  0.2428  0.2346
82242W        W25154  12.672  20.507  31.216 -0.0960  0.2770  0.0824
82243W        W25155   8.740  18.065  31.828  0.2056 -0.0823  0.0217
82244W        W25156   9.796  23.598   2.211 -0.0813 -0.1476  0.1855
82245W        W25157   7.949  18.033   3.488  0.0021 -0.0612  0.5021
82246W        W25158  10.502  21.010   1.778  0.0788 -0.1329  0.2753
82247W        W25159  11.239  19.598   1.886  0.1049 -0.1321  0.3982
82248W        W25160  10.385  20.100  29.717 -0.0812 -0.1073  0.0940
82249W        W25161   9.294  20.152   0.579  0.4147 -0.1159  0.0685
82250W        W25162   9.330  22.045   2.140 -0.2074 -0.3668 -0.0341
82251W        W25163  10.521  18.840   1.282 -0.2523 -0.2004  0.2035
82252W        W25164   7.486  18.594   1.787  0.0727  0.0225  0.1972
82253W        W25165  12.347  19.932   2.401 -0.0898 -0.1472  0.0608
82254W        W25166   8.316  19.706   1.526 -0.1545 -0.3171 -0.2074
82255W        W25167   8.067  18.802   1.896  0.0559  0.1814  0.0873
82256W        W25168   9.315  19.347  31.408  0.0870 -0.1406  0.0585
82257W        W25169  11.070  21.092   0.685  0.3741  0.1857  0.0069
82258W        W25170   8.617  20.314   1.241  0.0504  0.1447 -0.3578
82259W        W25171   9.997  18.426   1.952 -0.0529  0.0461  0.1311
82260W        W25172  12.099  21.303   0.726 -0.1813  0.2775  0.3465
82261W        W25173   6.698  19.362  31.523  0.0410  0.1349  0.1721
82262W        W25174   7.990  19.605   1.917  0.1179  0.2934 -0.1302
82263W        W25175   8.563  20.805   1.464 -0.2078 -0.0315 -0.2124
82264W        W25176   9.843  19.391   1.128 -0.3065 -0.2060 -0.2305
82265W        W25177  11.188  19.590   0.655 -0.1542  0.0773  0.3351
82266W        W25178   8.920  21.112  31.766  0.0674 -0.2835  0.0734
82267W        W25179  10.405  22.643   1.543  0.0167 -0.0284 -0.2064
82268W        W25180  10.698  19.272   2.669  0.1713  0.0841 -0.2011
82269W        W25181   8.653  20.429   0.408 -0.0507  0.0508 -0.2113
82270W        W25182   8.129  21.541   1.383 -0.1528  0.1573  0.1945
82271W        W25183   9.802  20.970   1.318 -0.0028 -0.2199  0.3594
82272W        W25184  12.096  19.956   0.316 -0.2012 -0.0091  0.0082
82273W        W25185  10.991  20.911   1.956  0.2828 -0.1233  0.0420
82274W        W25186   8.933  21.200   3.795 -0.0017 -0.2699 -0.1409
82275W        W25187   8.659  21.329   0.609  0.0691 -0.0550  0.0963
82276W        W25188  10.616  21.754   2.065  0.3148  0.1269 -0.0070
82277W        W25189   9.255  19.978   1.704  0.2210  0.1138 -0.0052
82278W        W25190  10.230  20.598   2.019 -0.0971  0.2685 -0.0368
82279W        W25191   9.767  19.690   1.530  0.1110  0.0856  0.0891
82280W        W25192   9.811  20.316   0.627 -0.3050  0.2399  0.0127
82281W        W25193   9.906  21.934   0.902  0.5095  0.0311 -0.1468
82282W        W25194   9.675  21.836   2.462  0.0493  0.0480 -0.1827
82283W        W25195   7.051  18.908   1.603 -0.2195 -0.0102  0.1750
82284W        W25196  11.087  17.592   3.946 -0.0460 -0.0860  0.0024
82285W        W25197   8.683  21.420   1.529 -0.1418 -0.2037 -0.3055
82286W        W25198  11.402  17.988  31.916  0.0078  0.2515  0.0503
82287W        W25199   8.669  20.548  31.812  0.0365  0.0930  0.2174
82288W        W25200  10.700  19.707  30.928 -0.0854  0.2705  0.1682
82289W        W25201   8.095  18.134   0.580 -0.1638  0.1175  0.1368
82290W        W25202   7.450  20.927   0.956 -0.0254  0.0808 -0.1923
82291W        W25203   8.255  18.684   1.066  0.0556 -0.1509  0.0827
82292W        W25204  12.207  21.420   2.556  0.2366 -0.1005 -0.1156
82293W        W25205   8.976  20.702   1.168  0.0829  0.1875 -0.1361
82294W        W25206  10.894  19.556   1.395 -0.1605 -0.1783  0.1840
82295W        W25207   8.912  20.987   1.643 -0.1902  0.1474  0.1226
82296W        W25208   8.299  19.016   1.450 -0.0907  0.0518 -0.0254
82297W        W25209  11.330  20.750  30.944  0.2507  0.0842  0.1106
82298W        W25210  11.965  22.039  31.464 -0.2728 -0.3064  0.3320
82299W        W25211   9.504  21.455   1.058  0.1344 -0.0695 -0.0601
82300W        W25212   7.555  19.349   0.770 -0.0565  0.1381  0.0594
82301W        W25213   7.818  19.177   2.097 -0.2931  0.2578 -0.1647
82302W        W25214   8.638  19.373   2.379 -0.1942  0.1178 -0.1855
82303W        W25215   9.887  18.598   0.019  0.0937  0.0399  0.1759
82304W        W25216  10.199  21.997   3.211 -0.3132 -0.0576 -0.3184
82305W        W25217   6.627  19.438   2.548 -0.0898 -0.2939 -0.1007
82306W        W25218  11.046  19.891   1.105 -0.2106  0.3337 -0.0924
82307W        W25219   9.150  18.485   2.486 -0.2850  0.1910 -0.1864
82308W        W25220  11.253  23.168   0.832  0.1546 -0.1606 -0.0030
82309W        W25221  10.303  20.157  31.608 -0.2642 -0.0745  0.3196
82310W        W25222  10.373  19.369   1.259 -0.2504  0.2088 -0.3155
82311W        W25223  10.060  19.235   1.635 -0.2908  0.2297  0.2120
82312W        W25224   8.134  19.728   0.095  0.0795 -0.1401  0.2098
82313W        W25225   9.994  20.076   0.161  0.0800  0.1623  0.1414
82314W        W25226  12.284  20.361   2.748  0.3681  0.1371  0.0873
82315W        W25227  11.344  19.534   0.207  0.3822 -0.1558  0.1054
82316W        W25228   8.007  21.481   1.879 -0.1435  0.0951 -0.0702
82317W        W25229   9.044  18.146   3.135  0.0851  0.0652 -0.1960
82318W        W25230   8.722  20.203   2.122  0.1441 -0.3643 -0.2747
82319W        W25231   8.855  22.281   0.238 -0.2277 -0.1236 -0.1049
82320W        W25232   8.694  18.863   1.264  0.1461  0.2792 -0.1868
82321W        W25233  10.207  20.577  31.880  0.0164  0.2533  0.2369
82322W        W25234   6.956  18.420   1.626 -0.2259  0.1325 -0.2251
82323W        W25235   8.040  20.615   1.628  0.1166  0.0225  0.2475
82324W        W25236  11.327  18.482   0.161 -0.7013  0.1824 -0.4058
82325W        W25237   8.633  17.101   3.064 -0.3911 -0.0086  0.2040
82326W        W25238  10.424  18.005   1.160  0.1217 -0.1455  0.1260
82327W        W25239   7.649  20.765   1.380 -0.3931  0.0828  0.3006
82328W        W25240  11.483  22.573   1.170  0.2955  0.1303  0.0634
82329W        W25241  12.097  19.013  31.768 -0.0518  0.1353 -0.0185
82330W        W25242  10.935  20.643   0.656 -0.5071 -0.0152  0.0867
82331W        W25243   7.534  19.408   2.525 -0.0844 -0.2600  0.1058
82332W        W25244   8.408  19.855   0.992  0.0231 -0.3519 -0.3809
82333W        W25245   9.503  18.264   3.222  0.1615 -0.1920 -0.0768
82334W        W25246   7.849  19.315   1.440 -0.1742 -0.2636 -0.0559
82335W        W25247  10.349  19.601   1.735 -0.0641 -0.0190  0.2583
82336W        W25248   8.249  18.261  31.647 -0.2522 -0.2460  0.2388
82337W        W25249  10.267  19.205   2.241 -0.0725  0.1402  0.1445
82338W        W25250   8.728  19.351   0.552  0.3565  0.2546 -0.3336
82339W        W25251   9.100  21.675   0.761  0.1730 -0.0575 -0.1203
82340W        W25252  11.206  19.084   2.392  0.1159 -0.1607  0.1785
82341W        W25253  10.017  22.964   1.485  0.0109 -0.0832 -0.1028
82342W        W25254  11.143  20.379   1.197 -0.1649  0.1675  0.2321
82343W        W25255  12.230  22.437   0.646  0.1372 -0.3656  0.0673
82344W        W25256   9.155  17.479   3.590 -0.1396 -0.1457 -0.0546
82345W        W25257  10.633  18.782  31.480  0.0138  0.4384 -0.2660
82346W        W25258   7.287  21.212   1.310 -0.0212  0.2692  0.0788
82347W        W25259   9.244  20.717   2.397 -0.0577  0.0604 -0.0897
82348W        W25260   9.140  17.821  30.933  0.3244  0.1021 -0.0507
82349W        W25261  10.792  20.724   1.429 -0.1147 -0.1763  0.1625
82350W        W25262  11.503  20.184  31.161  0.3477 -0.1089 -0.0814
82351W        W25263   8.906  18.233   2.057 -0.2305 -0.2597 -0.0358
82352W        W25264  10.473  19.202   3.067 -0.2344 -0.0939 -0.3714
82353W        W25265  10.852  19.451   2.206  0.1820 -0.0658  0.0334
82354W        W25266   9.881  19.936  31.286 -0.1134 -0.0340 -0.0134
82355W        W25267   8.826  17.466  31.848  0.1775  0.0706  0.1521
82356W        W25268  10.760  20.111   0.678  0.2591 -0.0731  0.0945
82357W        W25269   6.827  21.439   0.228 -0.1877  0.2146 -0.1121
82358W        W25270   8.546  21.278   0.075 -0.1557  0.0647  0.2153
82359W        W25271   9.332  20.838   1.911 -0.1361  0.3552 -0.1503
82360W        W25272  10.597  19.202   1.691 -0.0100  0.2899  0.0866
82361W        W25273   7.590  19.999   3.404  0.2369  0.2689  0.0479
82362W        W25274  11.532  19.101   2.010 -0.1570  0.1694  0.2050
82363W        W25275   8.324  20.332  30.948  0.0894 -0.1620 -0.0842
82364W        W25276   8.174  21.308   2.447 -0.1786 -0.1147  0.1557
82365W        W25277   9.988  18.127   1.496  0.0428 -0.3325 -0.3576
82366W        W25278  11.435  19.253  31.715  0.1231  0.3749  0.0613
82367W        W25279  10.508  20.302   3.503  0.4287 -0.0564 -0.0647
82368W        W25280  11.139  19.621  31.726  0.1578 -0.0356  0.2306
82369W        W25281  10.524  19.163   0.184 -0.0552 -0.3777 -0.1736
82370W        W25282  10.855  18.712   0.257  0.0350  0.0958 -0.0780
82371W        W25283   8.136  21.057   1.547 -0.0917 -0.0707  0.0588
82372W        W25284   9.992  19.123   0.029  0.1483  0.0010  0.0890
82373W        W25285  10.097  20.755   0.855 -0.4225  0.0546 -0.0177
82374W        W25286  10.315  19.996  30.823  0.0396 -0.1044 -0.1721
82375W        W25287  11.850  20.776  30.908  0.0588  0.0705 -0.2612
82376W        W25288   7.977  19.364   3.070  0.1801 -0.0469 -0.2829
82377W        W25289  10.242  21.084   3.970 -0.0146 -0.1090 -0.0893
82378W        W25290   9.622  20.641   0.929 -0.0877 -0.1225  0.2695
82379W        W25291   8.959  19.309   1.902 -0.0629 -0.1540  0.2914
82380W        W25292   9.648  19.516   0.060 -0.1490 -0.1184  0.0200
82381W        W25293  10.102  20.896  31.402  0.0929 -0.0088 -0.1383
82382W        W25294   7.928  22.428   0.480 -0.2696 -0.1147  0.3853
82383W        W25295   9.589  18.439   2.242 -0.2014  0.1485  0.0848
82384W        W25296   9.715  20.016   3.064 -0.0114 -0.0775 -0.0730
82385W        W25297  10.070  17.627   2.656  0.0022  0.2416 -0.0981
82386W        W25298  11.659  19.855   2.775  0.2109 -0.3462 -0.0456
82387W        W25299  11.458  18.597  31.221  0.1322  0.4379  0.1436
82388W        W25300   9.697  19.801   0.553 -0.0025  0.2407  0.0971
82389W        W25301   8.214  20.023   0.537  0.0171  0.2534  0.1541
82390W        W25302  10.028  18.943   3.086 -0.1025  0.0172  0.1093
82391W        W25303   8.465  19.234   1.021 -0.0416  0.2260  0.0614
82392W        W25304   6.469  20.593   3.351 -0.0026  0.0866 -0.2956
82393W        W25305  11.078  21.287   1.663 -0.1894 -0.2759  0.3576
82394W        W25306  10.169  21.614   0.541 -0.1705 -0.0819 -0.0783
82395W        W25307  10.082  20.243   2.317  0.1064 -0.0604  0.0948
82396W        W25308   9.463  18.532  31.777 -0.4022  0.1055  0.1777
82397W        W25309   9.340  20.990   1.344 -0.1411  0.1881  0.0400
82398W        W25310  10.581  20.108  31.219 -0.0649 -0.0096 -0.1255
82399W        W25311  10.031  18.762   1.429 -0.1938  0.2739 -0.0998
82400W        W25312  10.056  20.447   1.550 -0.0740  0.2177 -0.1500
82401W        W25313   8.971  21.256   1.085  0.1399  0.0872  0.0711
82402W        W25314  10.344  21.023   0.228 -0.1013  0.0766  0.1277
82403W        W25315   9.231  20.603   0.422 -0.1576  0.0859 -0.2171
82404W        W25316  11.486  18.392   1.252  0.1244 -0.1525 -0.1003
82405W        W25317   8.380  20.618   1.993  0.2660  0.1255  0.0162
82406W        W25318   9.628  18.241  30.873 -0.2132 -0.0554 -0.2534
82407W        W25319   8.047  19.120   0.364 -0.3278  0.0720  0.4545
82408W        W25320  12.409  19.501   0.101 -0.3516  0.0426  0.1575
82409W        W25321  11.375  20.269  31.663 -0.3825  0.0501 -0.0773
82410W        W25322   7.489  19.683   2.944  0.1423 -0.0163 -0.1415
82411W        W25323   8.361  18.548   1.552  0.1460 -0.2639  0.3713
82412W        W25324   7.375  19.864   2.442  0.1174 -0.2298 -0.2663
82413W        W25325  10.948  21.364   2.920  0.0299  0.0213  0.1110
82414W        W25326  11.112  18.717  31.742 -0.3674 -0.5131 -0.2956
82415W        W25327  10.694  22.262   1.196 -0.0218 -0.1616 -0.0256
82416W        W25328   9.470  20.502   1.565 -0.0073  0.0502 -0.0150
82417W        W25329   8.854  19.259  31.712  0.1312  0.4004  0.0793
82418W        W25330  12.508  20.504   1.497  0.1709 -0.1557  0.0152
82419W        W25331   8.955  19.755   2.286 -0.0971  0.1487 -0.0570
82420W        W25332   8.251  20.470   0.719  0.3368 -0.3054 -0.0878
82421W        W25333   9.885  20.444   2.765 -0.1142 -0.0330 -0.3410
82422W        W25334   8.154  19.296  31.812  0.0025  0.2435  0.1331
82423W        W25335   8.043  20.262   0.138  0.2095 -0.1916  0.1681
82424W        W25336   8.601  18.992   2.800  0.0974  0.0879  0.0949
82425W        W25337  11.604  21.006   1.943 -0.3922  0.0036 -0.2053
82426W        W25338   9.160  19.054   1.530  0.0164  0.2748 -0.3964
82427W        W25339   9.402  19.917  31.073  0.0610  0.0148 -0.0264
82428W        W25340   9.962  19.747  30.570 -0.2122 -0.0310 -0.0602
82429W        W25341   9.128  21.620   2.468  0.0475 -0.2581 -0.2965
82430W        W25342  10.432  19.760   2.259 -0.1376 -0.2734  0.0756
82431W        W25343   7.725  21.462   2.638  0.0418  0.0305  0.0364
82432W        W25344   9.809  17.966   2.206  0.0238  0.1241  0.1808
82433W        W25345  11.866  20.191   0.693  0.0197  0.2018 -0.1450
82434W        W25346  11.028  20.051   2.082  0.1346 -0.0952  0.0719
82435W        W25347   9.695  20.704  31.724  0.0775 -0.1883  0.0280
82436W        W25348   7.162  19.455   1.719 -0.0138  0.1334  0.2181
82437W        W25349   9.273  22.584   0.876 -0.0395  0.1992  0.1670
82438W        W25350   9.783  19.446  31.490  0.0241  0.0319 -0.3431
82439W        W25351   7.698  21.740   2.160 -0.1764  0.2200  0.0037
82440W        W25352  11.059  22.628   0.555 -0.0274 -0.2180  0.2066
82441W        W25353   8.164  21.655   2.859 -0.1564  0.0081  0.0914
82442W        W25354  11.517  19.229   0.636 -0.2737  0.0366 -0.0029
82443W        W25355  10.384  19.287  30.006 -0.3720 -0.1148  0.2776
82444W        W25356   9.756  19.497  31.035 -0.1974 -0.0301  0.0377
82445W        W25357  11.567  18.506   2.442  0.2292  0.0845  0.0478
82446W        W25358  11.599  18.768  31.685 -0.2812  0.1253  0.0636
82447W        W25359  10.862  18.998   3.550  0.3082  0.1667 -0.1283
82448W        W25360   7.818  18.900   2.562  0.2686 -0.1446  0.0712
82449W        W25361  10.689  19.655   0.469 -0.0782 -0.0238  0.0112
82450W        W25362   7.466  17.842   3.209 -0.2096  0.0572  0.0054
82451W        W25363   9.822  21.234   3.750  0.1001 -0.1018  0.0874
82452W        W25364   8.762  19.837   1.797 -0.0116  0.0186 -0.2029
82453W        W25365  10.481  19.824   0.984 -0.0769  0.0124 -0.1039
82454W        W25366  10.342  19.663  31.314 -0.0128 -0.0499 -0.0940
82455W        W25367  10.567  20.303   2.283 -0.1510  0.0593  0.0002
82456W        W25368  10.307  20.975   1.337 -0.2508 -0.0263  0.1048
82457W        W25369  10.609  21.487   0.341 -0.0617 -0.2202 -0.1310
82458W        W25370  10.430  20.630   2.663 -0.0280 -0.0153  0.0459
82459W        W25371   8.395  18.958   2.284  0.0628 -0.0098  0.5040
82460W        W25372  11.065  19.091  31.378  0.1566 -0.0453 -0.4268
82461W        W25373  11.030  19.993   0.269 -0.2041 -0.1421  0.0836
82462W        W25374   9.493  22.207   0.547  0.1797 -0.2333  0.0168
82463W        W25375   8.878  18.026   2.597 -0.2645 -0.0385 -0.0404
82464W        W25376   9.424  19.385   0.827 -0.2710 -0.1821 -0.3524
82465W        W25377   9.943  19.559   2.044 -0.0024  0.1721  0.2253
82466W        W25378   9.704  18.214   2.639 -0.0728  0.2110  0.2154
82467W        W25379  10.998  20.577   2.262  0.2224  0.0618 -0.1053
82468W        W25380   8.872  20.686   2.109  0.0126  0.1730  0.1004
82469W        W25381   7.974  20.153   1.910  0.0837 -0.2864  0.0634
82470W        W25382  11.207  21.036   2.570 -0.3081 -0.0842  0.1056
82471W        W25383  12.361  18.199  30.650  0.0585 -0.0508  0.1330
82472W        W25384  10.865  18.853   3.037 -0.1398 -0.0875  0.0951
82473W        W25385  12.073  19.320  30.944 -0.0561 -0.2364 -0.0065
82474W        W25386  11.990  19.031   0.460  0.1290  0.0597 -0.1988
82475W        W25387   7.761  18.538   0.929 -0.3647 -0.0299  0.0296
82476W        W25388  11.235  20.144   2.487  0.1868 -0.2958 -0.5251
82477W        W25389   9.531  17.928  31.311 -0.1823  0.0137 -0.1216
82478W        W25390   9.675  19.398   2.427  0.0617  0.1739 -0.1310
82479W        W25391  11.110  19.947  31.352  0.2871 -0.1555  0.0812
82480W        W25392  11.322  19.432   1.115 -0.0596  0.0969 -0.0416
82481W        W25393  11.942  18.638  31.334 -0.1279 -0.2824 -0.0402
82482W        W25394   6.982  19.559   0.930 -0.2359  0.1912 -0.1628
82483W        W25395  10.282  21.361   2.146 -0.0921  0.1508  0.0830
82484W        W25396   9.583  19.031  31.651 -0.0988 -0.3185  0.0232
82485W        W25397   8.572  19.394  31.247 -0.1508 -0.0201  0.2224
82486W        W25398   9.422  20.177   3.616 -0.3137  0.2610  0.0854
82487W        W25399  10.210  19.855   3.278 -0.0146  0.0251  0.0525
82488W        W25400   9.865  17.693   0.543 -0.0483 -0.1120 -0.0145
82489W        W25401   9.134  18.433   3.545  0.1590  0.3016 -0.2466
82490W        W25402   7.003  20.667  31.887 -0.0979  0.1688  0.0390
82491W        W25403   8.759  19.842   0.416  0.0881  0.1682 -0.0942
82492W        W25404   7.523  22.972   1.005 -0.1488  0.2197 -0.2945
82493W        W25405   7.564  19.729   1.494 -0.2819  0.0850 -0.0390
82494W        W25406   9.708  20.182   1.257 -0.0455 -0.0073  0.0427
82495W        W25407  10.150  19.313   2.705 -0.2213  0.1969 -0.2128
82496W        W25408  10.176  19.968   1.428  0.1600 -0.2740 -0.0824
82497W        W25409   9.371  19.607   1.982 -0.0503  0.0524 -0.1782
82498W        W25410  12.403  18.925   2.139  0.1646 -0.2090 -0.1170
82499W        W25411  11.351  20.834   1.441  0.2087  0.1586  0.1148
82500W        W25412   9.198  18.847   1.064 -0.0365 -0.0881 -0.2045
82501W        W25413  10.876  21.745   1.242 -0.0007 -0.0518 -0.2436
82502W        W25414  12.148  20.488   0.273 -0.0192 -0.2585 -0.1303
82503W        W25415   7.694  21.155   1.679  0.1074 -0.1275 -0.1769
82504W        W25416   6.891  20.846   2.796  0.1547 -0.0900 -0.0144
82505W        W25417   9.428  19.587   2.922  0.0275  0.1984 -0.2223
82506W        W25418   9.979  21.260   0.860  0.1960  0.1094 -0.4017
82507W        W25419   8.098  18.333  31.123 -0.1337  0.0805  0.1984
82508W        W25420   9.790  21.052   0.378  0.0990  0.1540 -0.0515
82509W        W25421   9.215  20.287   2.698  0.1058 -0.0196 -0.1188
82510W        W25422   8.354  19.841   2.129 -0.1177 -0.3223  0.0650
82511W        W25423   6.952  22.212   1.238  0.1151  0.0359 -0.0006
82512W        W25424  11.135  19.967  30.862 -0.1650 -0.0133  0.0762
82513W        W25425  11.816  19.517  30.261  0.0679 -0.0127  0.1083
82514W        W25426  10.666  22.479   2.006  0.1916 -0.5011  0.1726
82515W        W25427  10.917  19.152  31.879  0.0421  0.1913  0.2281
82516W        W25428   7.369  21.498   1.795  0.0714 -0.1962  0.1276
82517W        W25429   6.410  22.506  30.827 -0.0771 -0.2858  0.1197
82518W        W25430  10.950  20.121  31.804  0.0830  0.0263 -0.2147
82519W        W25431   7.622  21.559   1.376  0.0509 -0.0631  0.0310
82520W        W25432  10.585  21.506   1.574 -0.1859  0.4390 -0.1560
82521W        W25433  12.657  18.308   0.303  0.2459  0.1463  0.3000
82522W        W25434  11.571  20.637  31.970 -0.0660  0.0953  0.0115
82523W        W25435  11.998  19.444  31.475 -0.1555 -0.0120  0.3515
82524W        W25436  10.236  21.217   3.435  0.0583  0.2378  0.1389
82525W        W25437   9.363  19.447   1.380 -0.0896 -0.2857 -0.1138
82526W        W25438   9.564  19.152  30.678  0.0011 -0.0034  0.0999
82527W        W25439   9.104  19.121   2.846 -0.1395  0.0596 -0.1326
82528W        W25440  11.815  18.821   2.877 -0.3343 -0.1006  0.0093
82529W        W25441   6.441  21.128   2.528 -0.2670 -0.3075 -0.2120
82530W        W25442  10.201  21.505  31.572 -0.1687  0.0322 -0.1148
82531W        W25443   8.980  20.268  31.061 -0.2749  0.1413  0.0287
82532W        W25444   8.861  18.418   1.590  0.2897  0.2247  0.0315
82533W        W25445  11.832  19.364   1.026  0.0006 -0.1709 -0.0123
82534W        W25446   8.997  20.192   0.138  0.1921  0.0520 -0.2805
82535W        W25447  10.616  18.813   0.724 -0.1199  0.1017 -0.2113
82536W        W25448  10.385  21.445   1.118  0.2142  0.2469  0.2341
82537W        W25449   9.817  20.831   1.776 -0.1470  0.0023 -0.0655
82538W        W25450   8.898  19.842   1.289 -0.0016  0.0534 -0.3754
82539W        W25451   7.430  18.964   0.405  0.1175 -0.2731  0.0173
82540W        W25452  12.607  19.455   1.640 -0.0589  0.1871 -0.3412
82541W        W25453   9.613  19.199   1.751  0.2964 -0.3521  0.0279
82542W        W25454  10.939  17.935   2.549  0.0977 -0.1943  0.1433
82543W        W25455   9.388  19.853  31.585  0.0642  0.2404  0.0694
82544W        W25456  11.733  19.821  30.922 -0.3761 -0.4461  0.1090
82545W        W25457  10.642  20.190   1.314  0.0796  0.0584 -0.3221
82546W        W25458   6.288  19.037   2.606  0.3651 -0.2735  0.2138
82547W        W25459  10.784  19.475  31.378  0.1225  0.2560 -0.2142
82548W        W25460  10.587  19.602   3.576  0.2264 -0.1174  0.0778
82549W        W25461   9.595  18.969   0.275  0.0013  0.3141 -0.0443
82550W        W25462   9.113  21.562   3.062  0.0494  0.0475  0.0739
82551W        W25463   6.706  19.492   0.565  0.0871  0.4130  0.2407
82552W        W25464   9.610  18.667   1.724 -0.2864 -0.3412 -0.1209
82553W        W25465   6.722  20.522   1.282 -0.2049  0.0355  0.1585
82554W        W25466  10.336  20.146   2.879 -0.2031 -0.5567  0.3005
82555W        W25467  11.713  21.223   1.465  0.0519  0.0911  0.2932
82556W        W25468   9.258  18.184   1.324 -0.0991 -0.0387  0.0157
82557W        W25469   8.632  20.589  31.301 -0.2320 -0.1281  0.1623
82558W        W25470  12.051  19.807   0.976  0.3698  0.6119 -0.1049
82559W        W25471  10.287  19.982   0.544 -0.0240 -0.1187  0.0809
82560W        W25472  11.743  19.682   0.544 -0.0037 -0.0898  0.0159
82561W        W25473  11.091  22.034   0.956 -0.1440  0.0734  0.1424
82562W        W25474   7.464  18.851   1.117 -0.2770 -0.2998  0.0156
82563W        W25475  11.416  21.658   1.386 -0.0458  0.0729 -0.2082
82564W        W25476  11.728  19.507   1.867 -0.1925 -0.2386 -0.1212
82565W        W25477  11.681  19.033  31.217  0.1762  0.0972  0.0251
82566W        W25478   8.461  20.228   1.689 -0.2395  0.2298  0.0624
82567W        W25479   7.886  22.106   0.031  0.2581  0.0490 -0.1665
82568W        W25480  10.300  18.606   2.308 -0.1119  0.3557 -0.1745
82569W        W25481  10.276  18.070   2.393  0.1456 -0.4292  0.1508
82570W        W25482   8.636  22.214   1.188  0.1958 -0.1916 -0.1033
82571W        W25483   9.747  17.523   3.835  0.3159  0.0547  0.1692
82572W        W25484  10.652  20.943   2.283 -0.0549  0.1925 -0.1396
82573W        W25485   8.723  20.935   4.249 -0.1010  0.0441  0.0722
82574W        W25486   7.426  20.633   0.203  0.1541  0.0041 -0.0309
82575W        W25487  11.359  19.572   2.371  0.0468  0.0317  0.1534
82576W        W25488   9.221  19.668   0.281 -0.0348 -0.0029 -0.1895
82577W        W25489   9.611  23.114   0.642 -0.3223  0.1320  0.1274
82578W        W25490  10.389  22.946   1.092 -0.1139  0.0998 -0.0735
82579W        W25491  10.344  19.323   0.690  0.0601 -0.0609  0.1978
82580W        W25492  11.871  19.418   0.127 -0.1181 -0.2236 -0.0669
82581W        W25493   8.407  18.073   1.793  0.1589 -0.2070  0.1400
82582W        W25494  11.223  18.789   0.606 -0.1410  0.3305  0.1440
82583W        W25495   9.111  18.992   0.512  0.0735 -0.0596  0.2368
82584W        W25496   8.430  19.840   2.656 -0.0841 -0.1857  0.0834
82585W        W25497   7.668  19.864   0.086  0.0128  0.1231  0.0032
82586W        W25498   9.515  21.220  31.562  0.0270 -0.2074  0.1855
82587W        W25499   8.256  19.547   0.571 -0.1425 -0.1863 -0.0812
82588W        W25500   8.652  18.479   3.091  0.0519  0.0005 -0.1669
82589W        W25501   8.383  19.246   1.882 -0.0684  0.2370 -0.0593
82590W        W25502   7.735  20.499   0.954 -0.3638 -0.2007  0.0985
82591W        W25503   8.109  18.623   0.580  0.0011 -0.2778 -0.4584
82592W        W25504  10.226  20.276   0.973 -0.0183 -0.0562 -0.1088
82593W        W25505   9.669  18.466   1.267  0.0536  0.0139 -0.0950
82594W        W25506   6.184  19.299   1.445 -0.2480 -0.1986 -0.0699
82595W        W25507  10.519  20.143   0.073  0.1008  0.2726 -0.0068
82596W        W25508  10.861  22.783   1.614  0.0930  0.0539  0.0699
82597W        W25509   7.953  17.302   0.879 -0.3383 -0.0562 -0.0033
82598W        W25510  11.934  22.303   1.607  0.0547  0.1762 -0.0390
82599W        W25511   6.331  21.469   0.098 -0.0058 -0.2228  0.4943
82600W        W25512   9.583  19.098   2.965  0.0804  0.0474  0.0130
82601W        W25513   9.142  18.674   1.969  0.3182  0.1239  0.1280
82602W        W25514   6.688  18.208   0.200 -0.0041 -0.0715  0.1153
82603W        W25515  10.030  19.768   2.655 -0.0615 -0.3507 -0.2975
82604W        W25516   9.954  19.846   1.016  0.2329 -0.1428  0.3049
82605W        W25517  11.151  20.438   0.174  0.1935  0.1331  0.0941
82606W        W25518   8.447  21.174   1.964 -0.1391 -0.0756 -0.0309
82607W        W25519   9.996  20.851   2.379  0.1535 -0.1664 -0.0352
82608W        W25520   8.145  18.350   2.931 -0.1520 -0.1146 -0.3366
82609W        W25521  10.586  19.699  31.868 -0.1200 -0.0205 -0.1774
82610W        W25522   9.658  20.557   2.192 -0.0414  0.0455 -0.1029
82611W        W25523  10.974  20.996  31.363 -0.1027 -0.2624 -0.5554
82612W        W25524  10.337  18.801   1.811 -0.2532 -0.1255  0.2699
82613W        W25525  11.554  19.375  30.691  0.0425  0.3403  0.1311
82614W        W25526   8.394  17.882   2.742  0.3761 -0.1245  0.1934
82615W        W25527   9.116  21.648   1.959  0.3561 -0.1431  0.1473
82616W        W25528  11.012  19.187   0.374 -0.2434 -0.1786  0.2235
82617W        W25529   8.693  19.379   1.508 -0.0437  0.1557  0.2020
82618W        W25530   9.396  18.533   0.290  0.2576  0.0684 -0.0785
82619W        W25531  10.291  20.454   0.462 -0.0453  0.3045  0.2066
82620W        W25532   8.403  17.977   3.269 -0.0255 -0.2322  0.0018
82621W        W25533  10.210  18.822   0.442 -0.0510 -0.0111 -0.0208
82622W        W25534   8.672  20.461   2.521 -0.1352  0.1598  0.0183
82623W        W25535  10.768  19.335   0.901  0.0305  0.0631  0.1410
82624W        W25536  10.849  20.807   2.858 -0.1757 -0.2057 -0.1039
82625W        W25537   9.708  18.723   0.796 -0.1145 -0.1823  0.1397
82626W        W25538   9.535  20.236  29.236  0.3554 -0.2002 -0.1693
82627W        W25539   9.162  22.427   1.850 -0.1246 -0.1093 -0.1091
82628W        W25540  11.056  22.266   2.888  0.0299  0.4947 -0.4745
82629W        W25541  10.448  21.114   0.736  0.1890  0.3480  0.2458
82630W        W25542  10.645  20.403   1.783  0.0338  0.1025  0.0854
82631W        W25543   8.812  17.701   3.070  0.2860  0.0405  0.1148
82632W        W25544   9.476  19.787   1.063 -0.2561 -0.0443 -0.1521
82633W        W25545  10.159  19.619   0.267  0.0910  0.2492  0.0599
82634W        W25546  12.025  18.973   1.868  0.2324  0.0093 -0.0819
82635W        W25547   7.935  19.615   1.053 -0.3270  0.0747  0.1222
82636W        W25548   9.946  18.912   2.028  0.0013 -0.2555  0.3547
82637W        W25549   9.629  22.332   2.611 -0.2283 -0.2244 -0.1275
82638W        W25550  10.733  19.898   1.714  0.0770 -0.2819 -0.1541
82639W        W25551   8.516  21.626   5.858 -0.1629 -0.0080  0.1005
82640W        W25552   8.551  19.901   5.152  0.1522  0.1338 -0.2956
82641W        W25553  10.039  18.039   3.028 -0.1043  0.1323 -0.0990
82642W        W25554  10.670  20.374   4.103 -0.0953 -0.1339 -0.0192
82643W        W25555   7.815  18.267   5.732  0.2178  0.2666 -0.1327
82644W        W25556   9.520  20.937   3.473 -0.0181  0.1476  0.0439
82645W        W25557   7.817  17.624   6.278  0.0619  0.1568  0.0566
82646W        W25558  11.304  21.427   5.023  0.1994  0.1328 -0.1119
82647W        W25559  10.690  21.333   6.170  0.0640  0.4708 -0.1810
82648W        W25560  10.434  20.618   3.139  0.1143  0.1384 -0.1102
82649W        W25561   8.658  19.252   5.585  0.0406 -0.2400 -0.0248
82650W        W25562   7.685  21.084   5.782  0.2037 -0.1293  0.1333
82651W        W25563   9.359  18.155   4.036  0.0307 -0.3700 -0.3602
82652W        W25564   7.111  18.790   6.222 -0.1377  0.1623  0.0121
82653W        W25565  11.056  19.576   6.004 -0.1455 -0.0397 -0.3452
82654W        W25566   7.127  19.494   3.950 -0.3074  0.2954 -0.1317
82655W        W25567   7.686  19.396   5.943  0.1210  0.0220 -0.0261
82656W        W25568   9.532  19.773   4.989  0.1506 -0.1214  0.2272
82657W        W25569   9.213  21.521   4.695 -0.0806 -0.1609 -0.1431
82658W        W25570   8.239  18.751   6.429 -0.0318 -0.1167 -0.1151
82659W        W25571   8.832  18.713   6.876 -0.2044 -0.1289  0.1247
82660W        W25572  10.698  20.939   5.838  0.1950 -0.2764 -0.0142
82661W        W25573   8.375  17.948   3.804 -0.2983 -0.2490 -0.0715
82662W        W25574   7.832  18.948   5.973  0.3889  0.1477  0.0071
82663W        W25575   8.913  20.050   4.577  0.0909  0.0192 -0.2335
82664W        W25576   9.209  18.441   5.525 -0.1672  0.3746  0.1426
82665W        W25577  11.239  20.045   4.417  0.0992 -0.2033 -0.0529
82666W        W25578   8.407  22.332   4.685  0.3106  0.0256 -0.0588
82667W        W25579   8.552  20.816   4.769 -0.1030  0.1914 -0.0457
82668W        W25580  10.970  18.753   5.956 -0.1129  0.2462 -0.0101
82669W        W25581   7.047  19.041   5.323  0.0817 -0.1212 -0.1351
82670W        W25582   7.300  20.742   3.690  0.4091 -0.2806 -0.0490
82671W        W25583   9.289  19.220   3.387  0.0215  0.2872 -0.0363
82672W        W25584  10.995  20.321   3.733  0.0304 -0.0714  0.2110
82673W        W25585   9.980  20.772   7.195 -0.0783 -0.1254 -0.0556
82674W        W25586   9.137  21.705   7.140  0.2566 -0.1221 -0.2897
82675W        W25587   8.802  19.042   3.256 -0.0917  0.1555  0.2224
82676W        W25588   9.151  20.316   5.371  0.0542  0.1301 -0.1115
82677W        W25589   8.382  20.575   6.009 -0.2718 -0.1464 -0.1534
82678W        W25590   9.720  19.377   3.951  0.3480  0.5430 -0.0083
82679W        W25591   9.032  18.914   3.700 -0.1371 -0.3696  0.0362
82680W        W25592   8.917  19.882   2.804  0.1183 -0.2860 -0.0680
82681W        W25593   9.506  19.866   4.021  0.0261 -0.3216 -0.0484
82682W        W25594   8.247  19.513   5.065 -0.3085 -0.1095  0.1602
82683W        W25595   7.510  21.135   4.998  0.1647 -0.1275  0.0247
82684W        W25596  11.300  19.119   7.662 -0.3294 -0.3570  0.0659
82685W        W25597   7.557  20.696   1.841 -0.0074 -0.1243 -0.4766
82686W        W25598  10.349  19.159   3.532  0.0898 -0.1109  0.0198
82687W        W25599  10.282  20.089   1.887 -0.1518 -0.0031 -0.0708
82688W        W25600  11.365  19.127   2.868 -0.0837  0.1125  0.1856
82689W        W25601   8.466  18.567   4.994 -0.0453  0.2208  0.0350
82690W        W25602   7.966  22.552   4.344  0.2206 -0.2774 -0.1993
82691W        W25603   8.841  18.863   4.824 -0.0440 -0.4214 -0.0343
82692W        W25604  11.081  19.967   5.675  0.1415 -0.2481  0.2940
82693W        W25605   8.597  17.882   4.352 -0.0414  0.3841  0.0444
82694W        W25606  10.133  18.704   5.954  0.0610  0.0143 -0.2145
82695W        W25607   7.889  21.238   5.294 -0.6756  0.4327  0.1143
82696W        W25608   9.083  17.659   4.498 -0.0950 -0.1296 -0.1388
82697W        W25609  10.583  20.778   3.677 -0.1261 -0.1095  0.2796
82698W        W25610   9.235  20.298   4.857 -0.1686 -0.2166 -0.1583
82699W        W25611   9.798  20.384   3.365  0.1245 -0.1824  0.0366
82700W        W25612   8.246  18.897   4.753 -0.0646  0.1927  0.0184
82701W        W25613   8.749  21.447   4.474  0.0169 -0.0237 -0.0203
82702W        W25614   8.580  19.720   4.683 -0.0997 -0.0284  0.1297
82703W        W25615   9.048  17.193   4.301 -0.4170  0.2391 -0.2763
82704W        W25616  10.599  19.643   5.732 -0.1035  0.0667  0.2374
82705W        W25617   7.068  21.941   7.106 -0.1379  0.1430 -0.1476
82706W        W25618  10.279  19.074   4.780  0.2125  0.0613  0.1249
82707W        W25619   8.928  19.099   4.220  0.2611 -0.2545 -0.0728
82708W        W25620  12.207  20.932   4.551  0.0675  0.1443  0.3859
82709W        W25621  11.737  20.901   3.153 -0.3108 -0.0890 -0.0853
82710W        W25622   9.485  18.066   4.780  0.0931 -0.0293 -0.0776
82711W        W25623  10.312  18.228   5.286 -0.0384  0.0114  0.0342
82712W        W25624   8.286  17.528   3.073 -0.4576 -0.2899  0.0611
82713W        W25625   9.752  20.049   1.869 -0.0224 -0.0513 -0.1942
82714W        W25626  10.397  19.972   6.560  0.0687 -0.0478 -0.2298
82715W        W25627  11.543  20.499   2.163 -0.0459 -0.2146 -0.3032
82716W        W25628   6.743  21.918   4.179  0.2599 -0.1061 -0.1058
82717W        W25629   8.448  19.714   5.616 -0.4575 -0.1023  0.1134
82718W        W25630   8.311  20.618   5.232 -0.1655 -0.3304  0.4180
82719W        W25631   8.211  20.834   2.832 -0.1127  0.0226 -0.2354
82720W        W25632   6.171  19.656   4.915  0.0589 -0.1268  0.3937
82721W        W25633   7.079  19.798   3.572 -0.1659 -0.1517 -0.2509
82722W        W25634   6.708  18.476   5.835 -0.0218 -0.1463 -0.3601
82723W        W25635   7.921  20.841   4.040 -0.3287  0.2682 -0.3156
82724W        W25636   9.351  18.639   5.042 -0.0179 -0.1808 -0.1694
82725W        W25637   7.716  18.591   6.421 -0.0336  0.1076 -0.0948
82726W        W25638  10.396  17.054   4.501  0.2951 -0.0274 -0.1271
82727W        W25639   7.800  18.766   3.071  0.2958  0.2641 -0.0256
82728W        W25640  10.076  20.743   3.541  0.0010  0.0276 -0.2263
82729W        W25641  11.364  18.187   3.313  0.0404 -0.2736 -0.1647
82730W        W25642  10.485  21.909   4.287  0.1404  0.1797 -0.2209
82731W        W25643   7.520  18.571   5.946  0.1471  0.3013  0.3248
82732W        W25644   8.198  18.555   5.936 -0.3264 -0.0227  0.0529
82733W        W25645   7.211  17.978   6.825 -0.1438 -0.0203 -0.0779
82734W        W25646   8.310  17.832   6.362  0.3158 -0.0546 -0.3244
82735W        W25647  10.942  19.116   6.317 -0.0186 -0.2376  0.1650
82736W        W25648   7.333  17.673   3.881 -0.1088 -0.2875  0.0095
82737W        W25649   9.799  18.685   4.120  0.1642 -0.0274  0.0727
82738W        W25650   8.827  19.745   4.214  0.3596  0.0388  0.5050
82739W        W25651   7.383  19.226   4.963  0.2569 -0.1274 -0.0185
82740W        W25652  10.576  18.685   6.188  0.2544 -0.2038 -0.4035
82741W        W25653   9.113  19.740   3.620 -0.2926 -0.1234 -0.0062
82742W        W25654  11.730  21.472   5.257  0.1076 -0.3249 -0.0778
82743W        W25655   9.160  20.720   3.914 -0.1292 -0.5514  0.0180
82744W        W25656   8.019  18.750   5.513  0.0552 -0.0152  0.2580
82745W        W25657   8.842  17.639   4.050 -0.0086  0.2728 -0.2724
82746W        W25658   7.784  21.070   4.468  0.0639  0.2489  0.0166
82747W        W25659   9.697  20.694   3.918 -0.0622  0.1881 -0.0313
82748W        W25660   7.118  16.618   5.324 -0.0068 -0.2486  0.1556
82749W        W25661  10.488  21.288   5.558 -0.1655 -0.1090  0.0671
82750W        W25662   8.777  19.374   3.697  0.0909  0.0276  0.1752
82751W        W25663   7.669  21.012   6.335  0.0628  0.0945 -0.1009
82752W        W25664   9.970  17.357   4.744 -0.1024 -0.2534  0.2846
82753W        W25665  10.308  20.159   7.206 -0.1005  0.1826 -0.0945
82754W        W25666   8.615  18.421   3.564 -0.1209 -0.2150  0.0970
82755W        W25667   7.573  18.672   3.527 -0.1819  0.2526 -0.0423
82756W        W25668   9.481  20.576   4.366  0.1884 -0.1280  0.0925
82757W        W25669   8.932  20.690   2.874  0.0717 -0.0565 -0.0253
82758W        W25670   7.834  18.504   4.548  0.3348 -0.0807  0.0247
82759W        W25671   9.385  20.042   4.468  0.3691  0.0046  0.3660
82760W        W25672  10.761  18.560   4.540  0.1276 -0.1600 -0.2160
82761W        W25673   7.890  18.895   6.801  0.2266  0.1045 -0.0618
82762W        W25674  10.626  19.639   6.985  0.0024  0.0940 -0.0219
82763W        W25675   7.707  18.138   4.890  0.3258  0.0341  0.1435
82764W        W25676   7.425  21.601   7.165 -0.2494 -0.3024 -0.1041
82765W        W25677   9.154  17.722   5.022  0.0254  0.1327 -0.1203
82766W        W25678  12.181  19.387   2.024 -0.0874  0.0706  0.3521
82767W        W25679  10.349  20.029   5.466 -0.1967  0.2923 -0.1934
82768W        W25680  10.694  19.924   3.199  0.2196 -0.4485  0.1866
82769W        W25681   9.316  17.675   4.010  0.1580 -0.1392 -0.0448
82770W        W25682   9.693  18.425   3.734  0.2004  0.2570 -0.4710
82771W        W25683   8.568  20.345   6.432  0.0550 -0.0653 -0.0639
82772W        W25684   9.625  18.631   2.903  0.1315 -0.3785  0.1140
82773W        W25685   9.752  19.766   3.544 -0.2618 -0.0092 -0.0394
82774W        W25686   9.089  17.243   3.057 -0.1820  0.3102 -0.3559
82775W        W25687  11.433  22.008   3.903  0.0335  0.0574 -0.0350
82776W        W25688   6.981  19.377   4.651  0.2054 -0.0055 -0.0562
82777W        W25689   9.360  21.280   7.454  0.3009 -0.2520  0.0432
82778W        W25690  11.437  21.974   5.771 -0.1859 -0.0969  0.2492
82779W        W25691   8.601  15.795   7.546 -0.1659  0.2727 -0.0211
82780W        W25692   8.059  19.666   3.485  0.2618 -0.0304 -0.0512
82781W        W25693   8.660  17.405   3.502  0.2175  0.0757  0.3118
82782W        W25694   8.471  21.228   3.633 -0.1143 -0.1116  0.0130
82783W        W25695  11.729  18.784   5.124 -0.0335  0.1101 -0.0536
82784W        W25696   9.680  17.642   5.011  0.1801 -0.1087  0.0726
82785W        W25697   8.536  18.723   5.603  0.2292  0.0409 -0.0832
82786W        W25698  11.295  19.354   6.474 -0.1909  0.2499  0.4479
82787W        W25699  10.198  19.139   4.039 -0.0382 -0.2481 -0.1445
82788W        W25700  10.559  18.732   3.834  0.0613 -0.0512 -0.1435
82789W        W25701   8.133  18.480   3.382 -0.0813  0.0768 -0.2003
82790W        W25702   8.659  18.411   5.979  0.0621 -0.0805  0.0668
82791W        W25703   7.947  19.416   4.222 -0.1249  0.0911 -0.3738
82792W        W25704   7.218  22.489   6.141  0.2302  0.0047  0.0929
82793W        W25705   9.153  19.549   6.532 -0.1201 -0.3215  0.5422
82794W        W25706  10.232  20.567   3.975  0.1619 -0.1852  0.2591
82795W        W25707   8.340  17.992   5.821 -0.3079  0.0947 -0.1804
82796W        W25708   7.800  17.914   4.008 -0.2212  0.0081 -0.1437
82797W        W25709   8.856  22.080   4.454  0.2305  0.0989 -0.1222
82798W        W25710   8.975  20.734   3.433  0.1775  0.0756 -0.2612
82799W        W25711   7.563  18.412   7.003  0.1748  0.1545 -0.0566
82800W        W25712   9.216  19.469   4.044  0.0559 -0.1725 -0.1253
82801W        W25713   9.216  19.347   2.384 -0.0140  0.0665  0.0529
82802W        W25714   9.607  20.499   5.254 -0.1453  0.2841 -0.2402
82803W        W25715   9.522  18.810   3.469  0.2441 -0.1630  0.0796
82804W        W25716   9.825  18.330   4.542  0.1516 -0.0566 -0.2557
82805W        W25717   7.460  21.493   4.556  0.1789  0.1020  0.3851
82806W        W25718   7.680  17.559   3.585 -0.1718  0.3627  0.1756
82807W        W25719   6.045  19.444   4.520  0.0280 -0.0153  0.0709
82808W        W25720   8.618  17.648   4.936 -0.2920  0.1793  0.1167
82809W        W25721  11.545  18.941   3.845  0.0981 -0.1413  0.1194
82810W        W25722   8.125  16.844   7.490 -0.1794 -0.1869  0.2031
82811W        W25723   8.934  18.918   5.310  0.0564 -0.2399  0.1948
82812W        W25724   8.014  22.566   4.838  0.1523 -0.0165  0.1521
82813W        W25725   9.629  19.423   5.410 -0.1752  0.3195  0.0579
82814W        W25726   9.461  18.930   2.291  0.2412 -0.2162 -0.0331
82815W        W25727  10.769  20.065   6.061 -0.0133  0.1254  0.2153
82816W        W25728   7.667  19.636   5.267  0.0134 -0.0406 -0.4322
82817W        W25729   7.165  18.934   3.417  0.1417 -0.0671 -0.0598
82818W        W25730  11.917  19.617   4.842 -0.0419 -0.0652  0.0813
82819W        W25731   8.376  19.258   4.462  0.0801 -0.1069  0.1337
82820W        W25732   8.147  20.129   3.377 -0.1353  0.3667 -0.0641
82821W        W25733   8.714  21.318   5.040  0.3678  0.1613  0.1402
82822W        W25734   8.127  19.444   2.447  0.0335 -0.1489 -0.0859
82823W        W25735   8.485  19.484   3.018  0.0285  0.1889 -0.2610
82824W        W25736   8.888  19.348   6.129  0.1224 -0.0268  0.2942
82825W        W25737   7.996  20.892   4.901  0.1641 -0.1756 -0.1075
82826W        W25738   9.462  16.962   4.286  0.1621  0.0989 -0.1240
82827W        W25739   8.213  18.047   4.939 -0.0824 -0.1125  0.0937
82828W        W25740   9.253  19.303   5.716  0.0913  0.0080  0.0887
82829W        W25741  10.086  19.531   6.071 -0.0880  0.2307  0.0700
82830W        W25742   9.643  18.722   5.897  0.1486 -0.1127 -0.1203
82831W        W25743   8.199  21.443   6.987 -0.2602 -0.0321 -0.3098
82832W        W25744   8.869  18.200   3.995  0.0904  0.3200 -0.1889
82833W        W25745  12.087  22.141   3.223  0.2690  0.3660 -0.0001
82834W        W25746   9.637  19.353   6.457 -0.3588  0.1254 -0.1460
82835W        W25747   7.866  20.573   3.128 -0.0168 -0.0343  0.1964
82836W        W25748   8.213  20.095   6.107  0.0274  0.3488  0.1298
82837W        W25749   8.468  19.974   3.830  0.5568  0.0430 -0.1167
82838W        W25750   9.757  18.781   6.374  0.0475 -0.0838  0.0075
82839W        W25751   7.639  19.821   4.304 -0.3805  0.1580  0.1397
82840W        W25752  10.497  21.479   3.029  0.0086  0.1257 -0.0494
82841W        W25753   7.529  20.142   5.013 -0.0346 -0.1510  0.0933
82842W        W25754  10.648  19.236   3.929 -0.0870  0.0568 -0.0492
82843W        W25755   8.847  20.315   3.116 -0.0512  0.0282  0.2913
82844W        W25756   8.578  18.860   3.877  0.1097 -0.1180 -0.1110
82845W        W25757  11.597  19.104   4.711  0.2072  0.0681 -0.1521
82846W        W25758   9.868  19.167   3.542 -0.0003  0.1898  0.3515
82847W        W25759   9.361  17.953   6.264  0.0874 -0.0338  0.2046
82848W        W25760   9.141  17.636   6.563 -0.2411  0.2864 -0.2240
82849W        W25761   9.967  20.793   4.335  0.0077  0.0825  0.1624
82850W        W25762   7.679  17.986   6.659  0.0145 -0.1715  0.0623
82851W        W25763   8.328  22.032   7.152  0.0390  0.0682  0.0686
82852W        W25764   8.021  20.320   5.644 -0.0184  0.2349  0.1540
82853W        W25765   9.414  19.006   4.005  0.0910 -0.1975 -0.0553
82854W        W25766   8.824  17.908   3.614 -0.3651  0.0670  0.1978
82855W        W25767   8.257  19.898   4.314 -0.0630 -0.3372  0.1123
82856W        W25768  11.286  21.422   3.953 -0.3335  0.0779  0.1157
82857W        W25769   9.750  20.917   4.913  0.2655 -0.6108  0.2512
82858W        W25770  11.223  18.455   4.353  0.1096 -0.0192  0.1385
82859W        W25771   7.668  20.766   5.257  0.1067 -0.2744  0.4451
82860W        W25772   9.831  19.130   4.386  0.0063  0.0119 -0.3564
82861W        W25773   9.171  18.632   3.054  0.0006 -0.1299 -0.0655
82862W        W25774   6.809  19.409   3.360  0.0511  0.0571  0.0221
82863W        W25775   7.730  18.409   8.144  0.0349 -0.1005 -0.0586
82864W        W25776  10.182  20.621   5.163 -0.2191  0.1863  0.1891
82865W        W25777  10.777  17.604   3.519 -0.0234 -0.2339  0.2201
82866W        W25778   8.996  18.354   7.792  0.2231 -0.0646 -0.2218
82867W        W25779  10.185  19.375   5.583 -0.1954  0.2695 -0.2235
82868W        W25780   9.802  18.638   6.863 -0.0194 -0.2580 -0.0795
82869W        W25781   8.793  18.869   6.312  0.0635 -0.0123  0.1172
82870W        W25782  10.368  21.613   5.910 -0.1831 -0.1731 -0.0229
82871W        W25783   9.885  19.448   3.129  0.2061  0.2609 -0.0466
82872W        W25784  11.053  19.403   5.499  0.2948 -0.0529 -0.1616
82873W        W25785  10.592  19.549   4.808 -0.3494  0.1910 -0.3595
82874W        W25786   9.951  18.094   3.537 -0.0223  0.0188  0.0057
82875W        W25787   7.471  18.775   5.292 -0.0119 -0.1158  0.0402
82876W        W25788   8.681  20.089   6.935 -0.0026  0.1481  0.2183
82877W        W25789   9.514  17.710   2.622 -0.0417  0.0783  0.0829
82878W        W25790   9.700  18.860   7.399  0.0210 -0.0266 -0.1403
82879W        W25791   9.216  20.018   3.191 -0.2340 -0.2654  0.0927
82880W        W25792  10.389  21.234   4.438  0.1213  0.5347  0.0408
82881W        W25793   9.302  17.696   3.069  0.0497 -0.0059  0.1529
82882W        W25794   7.047  17.537   7.086 -0.1445  0.0436  0.0218
82883W        W25795   8.488  21.480   6.571 -0.0804  0.1876 -0.0704
82884W        W25796   7.325  18.948   2.822 -0.0251 -0.0628  0.1048
82885W        W25797   8.693  18.656   4.343 -0.1973 -0.0948  0.2030
82886W        W25798   7.918  20.371   4.490  0.0879 -0.1364 -0.4405
82887W        W25799   9.894  19.805   6.399  0.0447 -0.1733 -0.2916
82888W        W25800   9.728  17.715   3.338 -0.0442 -0.3012 -0.1495
82889W        W25801  11.178  18.870   6.671 -0.1399  0.0220  0.1112
82890W        W25802   7.753  20.420   3.665  0.1097  0.0372  0.1852
82891W        W25803   8.703  17.847   6.730 -0.2343  0.0787 -0.3332
82892W        W25804   7.114  21.011   4.153 -0.1856  0.2140  0.5106
82893W        W25805   8.092  20.801   5.599  0.2014 -0.3414  0.1209
82894W        W25806   8.910  20.249   3.649 -0.1700  0.0045  0.0367
82895W        W25807   8.516  17.693   7.168 -0.2852  0.0745  0.2115
82896W        W25808  10.355  19.961   3.901  0.2241  0.0353 -0.0989
82897W        W25809   8.294  20.719   4.360  0.0069 -0.0039  0.1659
82898W        W25810  10.636  19.034   4.410 -0.2255 -0.0595 -0.0141
82899W        W25811   9.050  19.751   6.975  0.2523 -0.1120  0.2232
82900W        W25812   7.322  20.732   5.615  0.2257 -0.2096  0.2489
82901W        W25813   8.341  19.002   5.210  0.3073  0.0675 -0.0846
82902W        W25814   9.872  20.175   3.789 -0.1702  0.0427  0.0727
82903W        W25815   9.223  21.949   3.791  0.1941  0.1625 -0.3178
82904W        W25816   6.328  17.649   6.575 -0.2633  0.0968 -0.0531
82905W        W25817   8.104  20.986   6.103  0.0022 -0.1458  0.0786
82906W        W25818  10.105  19.641   5.104  0.1812  0.1121  0.0312
82907W        W25819   7.848  16.885   3.771 -0.3424  0.0008 -0.3758
82908W        W25820   8.691  19.903   3.333 -0.4789 -0.1659 -0.0925
82909W        W25821   7.352  21.824   7.960  0.1345 -0.0178  0.0499
82910W        W25822   9.139  19.555   4.628 -0.2054  0.1891  0.3665
82911W        W25823   8.665  21.686   3.964 -0.1881 -0.2115  0.0694
82912W        W25824   9.921  20.829   3.114 -0.1486 -0.2668 -0.0333
82913W        W25825  10.148  19.534   3.773 -0.1545  0.0891 -0.1098
82914W        W25826   9.203  21.100   5.125 -0.1147  0.0381  0.1044
82915W        W25827   7.670  18.454   4.066 -0.2016 -0.1909 -0.0406
82916W        W25828   9.417  21.216   4.057  0.0367 -0.0064 -0.1386
82917W        W25829   8.897  20.479   1.678 -0.0062 -0.4253 -0.1159
82918W        W25830  11.461  19.588   3.236  0.1451 -0.1624  0.4521
82919W        W25831   8.222  20.789   3.612 -0.0691 -0.0955 -0.0915
82920W        W25832   9.831  20.025   8.172 -0.0185  0.0285  0.0326
82921W        W25833  10.440  18.567   3.240  0.0718  0.0691 -0.4165
82922W        W25834  11.543  19.592   4.479 -0.0968 -0.0368 -0.0086
82923W        W25835  10.245  18.727   4.380  0.1908  0.1501  0.0148
82924W        W25836   9.821  19.874   5.724  0.1097 -0.0575 -0.3239
82925W        W25837   9.587  19.516   4.458 -0.0877 -0.3305  0.2575
82926W        W25838   9.084  17.432   2.541 -0.0243  0.1359 -0.2442
82927W        W25839   7.814  20.610   6.037 -0.1033  0.4707 -0.1647
82928W        W25840  11.762  17.808   6.447 -0.1410  0.0647  0.1436
82929W        W25841   6.607  22.331   6.494  0.2500  0.0211 -0.1175
82930W        W25842  11.316  20.073   3.068 -0.1260 -0.1751 -0.0392
82931W        W25843   9.300  19.018   4.581 -0.2689  0.0099  0.1283
82932W        W25844   8.031  18.900   4.295 -0.0767 -0.0124  0.2263
82933W        W25845  11.226  18.249   6.049 -0.0261  0.0119 -0.0159
82934W        W25846   9.604  20.031   2.457 -0.0058 -0.2083 -0.2341
82935W        W25847  10.957  19.791   5.160  0.0068  0.1437  0.0959
82936W        W25848   7.886  21.478   4.847  0.0957  0.0983  0.0401
82937W        W25849   7.566  21.165   3.941  0.1629 -0.4949  0.0679
82938W        W25850   8.280  21.720   4.973 -0.2664  0.3948  0.1225
82939W        W25851   7.623  19.464   3.836  0.1134  0.1267 -0.1007
82940W        W25852  12.084  19.274   4.446 -0.3161 -0.0598 -0.0468
82941W        W25853   8.660  19.814   6.050  0.1690 -0.0673 -0.4575
82942W        W25854  10.990  18.352   5.613  0.1567 -0.0790 -0.0665
82943W        W25855   7.354  19.704   4.676 -0.0997 -0.0045 -0.1713
82944W        W25856  10.505  18.020   3.431 -0.0750  0.1556  0.0504
82945W        W25857   9.987  19.769   4.194  0.0945  0.1910  0.1601
82946W        W25858   8.669  19.037   7.243 -0.3495 -0.0504 -0.0536
82947W        W25859   8.946  19.542   3.209 -0.2627  0.1343  0.0910
82948W        W25860   9.466  19.153   7.078 -0.3669 -0.0770 -0.0313
82949W        W25861   9.925  18.480   3.291 -0.4388 -0.0266 -0.0728
82950W        W25862   9.283  20.461   6.323 -0.0776 -0.2103  0.1125
82951W        W25863   6.566  17.858   4.892 -0.2125 -0.3304  0.2014
82952W        W25864   9.095  18.628   4.098 -0.2234  0.2218  0.0339
82953W        W25865   8.682  19.301   4.957  0.0427 -0.3045 -0.2262
82954W        W25866   9.500  19.564   6.038  0.0664  0.0167  0.0611
82955W        W25867   8.650  20.722   7.174  0.2350  0.0246 -0.3718
82956W        W25868   7.114  17.578   4.906  0.2279  0.0717  0.1447
82957W        W25869  11.905  21.684   3.273 -0.2424 -0.2193  0.1655
82958W        W25870   9.873  20.085   5.246  0.0751 -0.1684  0.0081
82959W        W25871   9.500  21.420   2.777 -0.1501 -0.1695 -0.0540
82960W        W25872   9.577  20.929   2.676  0.0884  0.1091  0.2827
82961W        W25873  10.485  20.441   5.656  0.1836 -0.1735 -0.3531
82962W        W25874   8.254  19.525   6.049  0.3392  0.1268 -0.0501
82963W        W25875  10.152  21.074   5.185  0.2366 -0.2247  0.0328
82964W        W25876  10.579  21.925   4.881 -0.0422 -0.3812  0.0619
82965W        W25877   9.549  17.702   4.433  0.0439  0.1419  0.0885
82966W        W25878   8.963  19.277   6.870 -0.0236 -0.0113 -0.2188
82967W        W25879   7.721  20.946   3.472  0.1032  0.1686  0.2462
82968W        W25880  11.061  20.513   4.520  0.0145  0.2617 -0.1098
82969W        W25881  10.652  19.144   5.833  0.0476  0.2528  0.3398
82970W        W25882   8.482  21.269   2.889 -0.0342  0.2130  0.1097
82971W        W25883   9.653  18.220   7.161  0.0691 -0.2299 -0.0732
82972W        W25884  10.061  18.790   3.690 -0.0071  0.3272  0.1065
82973W        W25885   8.596  21.169   6.969  0.2021  0.0656  0.0625
82974W        W25886   7.756  19.106   3.466  0.0683 -0.1285  0.0378
82975W        W25887   9.005  19.907   5.049  0.3288 -0.0911 -0.0025
82976W        W25888   9.485  20.558   3.039  0.1242  0.0114 -0.0671
82977W        W25889   9.645  21.672   3.922  0.1455  0.0940  0.0545
82978W        W25890  10.069  21.653   5.151  0.2335 -0.1065  0.0657
82979W        W25891  10.392  19.962   4.467 -0.3645  0.1439 -0.2107
82980W        W25892  12.562  21.603   4.166  0.2107  0.0016  0.1470
82981W        W25893  10.061  18.609   5.499 -0.1286  0.0627  0.1376
82982W        W25894  11.028  18.864   4.029 -0.2651 -0.2840 -0.1194
82983W        W25895  11.708  19.297   4.125 -0.1807  0.3168  0.3063
82984W        W25896   8.617  20.585   3.870 -0.1141  0.2891 -0.3868
82985W        W25897   7.339  20.095   3.987  0.0013 -0.0158 -0.1737
82986W        W25898  10.199  21.109   2.821 -0.0639 -0.2006 -0.2900
82987W        W25899   8.173  20.412   3.982  0.0033 -0.2249  0.0025
82988W        W25900   8.255  18.228   8.559 -0.1026  0.3303 -0.2061
82989W        W25901   8.073  19.494   6.827  0.0748  0.4715 -0.1865
82990W        W25902   7.511  19.145   5.585  0.0015 -0.0941 -0.0021
82991W        W25903   7.733  18.896   4.777  0.0756  0.0876  0.1522
82992W        W25904  10.232  20.420   4.503  0.0566 -0.0827 -0.2589
82993W        W25905   7.486  18.004   6.083  0.1306 -0.0321 -0.2599
82994W        W25906   7.878  17.187   5.892  0.0460  0.2051  0.0084
82995W        W25907  10.605  20.447   4.826  0.1199 -0.0549 -0.1309
82996W        W25908  10.193  22.164   5.065  0.1786 -0.0248 -0.1689
82997W        W25909   7.191  18.114   4.122  0.1296  0.0920 -0.1910
82998W        W25910  10.448  20.920   6.419 -0.0609  0.2123 -0.2697
82999W        W25911   8.596  20.973   2.437 -0.2640 -0.0331  0.1412
83000W        W25912   9.500  18.315   6.589  0.1176 -0.2584  0.1909
83001W        W25913   9.358  18.886   6.663 -0.0548  0.3016 -0.0758
83002W        W25914   7.383  18.731   4.456  0.0792 -0.0735 -0.3613
83003W        W25915   9.799  19.190   5.888  0.1259  0.0608  0.0600
83004W        W25916   9.722  20.923   5.436 -0.2158 -0.2690 -0.2510
83005W        W25917   9.851  20.252   4.250 -0.2007 -0.0910  0.1165
83006W        W25918   8.750  20.344   5.012 -0.1099 -0.1306 -0.1477
83007W        W25919   9.268  21.026   6.550  0.0122 -0.0337  0.0190
83008W        W25920   8.661  17.433   6.420  0.3130 -0.0543 -0.4204
83009W        W25921  10.879  19.788   2.575  0.2307  0.3201 -0.2494
83010W        W25922   8.581  20.286   4.272 -0.1058  0.1161 -0.2658
83011W        W25923  11.400  20.143   3.600  0.0388 -0.4485  0.0617
83012W        W25924  12.552  19.057   4.934  0.0113 -0.2327 -0.1689
83013W        W25925   9.345  19.192   5.016 -0.0780 -0.1662 -0.3024
83014W        W25926   7.461  16.930   8.229 -0.2365 -0.1471  0.1003
83015W        W25927   8.655  20.780   5.657 -0.1727  0.1791  0.0714
83016W        W25928  10.752  19.537   4.316 -0.1317  0.0211  0.1373
83017W        W25929   7.637  17.611   5.032 -0.1562 -0.1765  0.2009
83018W        W25930   9.895  18.952   5.193 -0.1177 -0.0061  0.2384
83019W        W25931  11.552  20.434   4.033  0.3265  0.0618 -0.0213
83020W        W25932   8.104  19.978   5.292  0.2169  0.1539  0.0036
83021W        W25933   9.733  18.801   4.760 -0.1151  0.2981 -0.3168
83022W        W25934   9.022  19.454   5.302  0.0684 -0.0383 -0.4680
83023W        W25935   9.129  21.576   4.157 -0.0644 -0.1015  0.0427
83024W        W25936   9.986  20.301   6.712  0.0624  0.0629  0.1657
83025W        W25937   8.033  18.034   4.419  0.3974 -0.0948  0.1209
83026W        W25938  11.183  19.324   4.166  0.0456 -0.1684 -0.2188
83027W        W25939  10.455  22.077   5.836 -0.1316 -0.1180  0.1337
83028W        W25940   8.988  21.364   6.746  0.0879  0.0387 -0.0139
83029W        W25941   8.965  20.548   4.522  0.4631 -0.3015  0.1916
83030W        W25942  10.409  18.936   5.293 -0.2977 -0.1967 -0.0906
83031W        W25943   8.233  18.291   5.395  0.2191 -0.2427  0.2909
83032W        W25944   9.372  18.529   4.535  0.0185 -0.1310 -0.4098
83033W        W25945   7.880  19.986   3.927 -0.0510 -0.3973 -0.1164
83034W        W25946  10.957  19.189   5.036  0.2130  0.0368  0.1973
83035W        W25947   7.807  19.391   4.721  0.1807  0.0719  0.0665
83036W        W25948  11.021  18.549   3.460 -0.2461  0.2254  0.0605
83037W        W25949   8.283  21.224   4.668 -0.0148 -0.0818  0.0468
83038W        W25950  10.228  18.615   6.519 -0.1214  0.0556 -0.1653
83039W        W25951   7.546  22.715   9.636 -0.2266  0.0483  0.2406
83040W        W25952   8.588  18.985   8.263  0.1989  0.5755 -0.0041
83041W        W25953  10.402  19.135   7.020 -0.2869 -0.0748  0.0553
83042W        W25954  11.154  19.770   8.269  0.2393  0.2135  0.2949
83043W        W25955   7.653  17.808   8.039  0.0165  0.2899  0.0697
83044W        W25956   9.095  21.645   7.664 -0.0997  0.0021 -0.4285
83045W        W25957   8.569  20.661   9.029  0.1417  0.2107  0.3287
83046W        W25958   7.667  23.328   9.401 -0.0429 -0.0052 -0.0309
83047W        W25959   8.699  20.806   7.638 -0.1409  0.0875 -0.2598
83048W        W25960   8.831  19.488   8.294 -0.0824  0.0341 -0.1087
83049W        W25961   8.324  18.745   7.424 -0.4307 -0.2160  0.3587
83050W        W25962   8.758  18.338   9.035  0.0555  0.0728 -0.1979
83051W        W25963   7.961  19.643   9.741  0.6123 -0.1679  0.1284
83052W        W25964   8.244  19.922   7.131  0.2995 -0.1444  0.1031
83053W        W25965   6.152  22.006   9.273 -0.1405  0.0915  0.1512
83054W        W25966   9.614  19.469   9.130  0.2109 -0.2353 -0.2378
83055W        W25967   9.608  22.963   9.573  0.3395 -0.2224 -0.4621
83056W        W25968   9.392  17.338  10.443 -0.1277  0.1013 -0.1836
83057W        W25969   8.249  20.826   7.875  0.1568 -0.4438  0.3868
83058W        W25970   8.275  18.935   7.874 -0.1395 -0.1737 -0.2159
83059W        W25971   7.849  19.300   8.779 -0.1634  0.2494  0.2662
83060W        W25972   8.457  18.735   9.248  0.0962  0.0433 -0.0402
83061W        W25973   8.856  20.156   8.871 -0.0733 -0.2284 -0.1077
83062W        W25974   8.630  20.363  10.268 -0.0254 -0.0828  0.0580
83063W        W25975   7.139  20.699   8.910 -0.1321 -0.2383  0.0441
83064W        W25976   8.150  20.211  10.207  0.0077  0.0218  0.0139
83065W        W25977   7.057  20.806   6.973 -0.1145  0.1086 -0.3505
83066W        W25978   7.102  20.437   7.549  0.0014  0.1699  0.2600
83067W        W25979   8.053  21.015   8.334 -0.0577 -0.2405  0.0141
83068W        W25980   9.216  20.937   8.795  0.4459 -0.1736 -0.0290
83069W        W25981   6.663  20.794   8.226  0.1413  0.0643  0.0482
83070W        W25982   9.202  21.501  10.085 -0.4324  0.1121  0.0191
83071W        W25983   7.986  18.522   7.725 -0.3786 -0.1877 -0.0578
83072W        W25984   8.668  21.295   9.964  0.0136  0.1596  0.2244
83073W        W25985   7.638  20.693   9.110  0.2871 -0.1511  0.1970
83074W        W25986   7.670  21.531   9.335 -0.3644  0.0100  0.2430
83075W        W25987   9.055  20.895   7.040  0.3301  0.0499  0.0470
83076W        W25988   9.787  20.203   7.404  0.1719  0.0129  0.1430
83077W        W25989   9.298  18.028   7.458  0.4449 -0.2834 -0.3190
83078W        W25990   8.406  19.838   8.379 -0.0643  0.2038 -0.2871
83079W        W25991   8.475  18.345   7.690  0.0132  0.2549 -0.0981
83080W        W25992   7.288  21.518   9.701 -0.0807  0.2556  0.0459
83081W        W25993   6.640  19.070   9.151  0.0256  0.0283 -0.0153
83082W        W25994   8.464  20.092   9.279 -0.1047 -0.0564  0.1458
83083W        W25995  13.273  18.375   9.894  0.1284  0.2561 -0.0183
83084W        W25996   8.072  20.759   8.739 -0.0708  0.0561 -0.1291
83085W        W25997   7.087  19.104   9.236 -0.0557 -0.0334  0.3160
83086W        W25998   8.853  21.222   7.377 -0.1029 -0.1319 -0.2595
83087W        W25999   9.432  21.818   8.055  0.0892  0.2269 -0.0549
83088W        W26000   9.403  20.735   7.893 -0.2580 -0.0292 -0.0623
83089W        W26001   7.707  20.089   6.088  0.1575  0.4237 -0.0472
83090W        W26002   8.492  18.286   6.444 -0.0195 -0.1131  0.0845
83091W        W26003   9.228  19.114   9.524  0.1133  0.0884  0.1654
83092W        W26004   7.542  19.846   8.202 -0.1363 -0.1368 -0.2642
83093W        W26005   8.622  20.743   9.893  0.3278  0.0107  0.0320
83094W        W26006   9.361  20.029   7.185 -0.4044 -0.1642  0.0651
83095W        W26007   9.492  16.062   8.068 -0.1134 -0.0148 -0.4752
83096W        W26008   9.653  18.256   8.556  0.0585 -0.1383 -0.0637
83097W        W26009   8.976  20.498   6.743  0.1424 -0.1646  0.1497
83098W        W26010   7.548  19.743   7.711 -0.0484  0.2639  0.1019
83099W        W26011  10.121  18.869  10.140 -0.1897  0.1101  0.0761
83100W        W26012  10.722  19.190   7.768 -0.1094  0.1358 -0.1862
83101W        W26013   6.921  20.299   9.270 -0.0164  0.2886  0.4827
83102W        W26014   7.641  21.181   8.069 -0.0863 -0.1498 -0.2262
83103W        W26015   7.372  20.228   9.068 -0.2310 -0.0121  0.1193
83104W        W26016   8.469  20.821   6.527  0.0079 -0.1426 -0.2625
83105W        W26017   7.923  17.900   9.826 -0.2894  0.0325  0.1510
83106W        W26018   6.755  20.987   8.695  0.1162 -0.2166 -0.0592
83107W        W26019  10.584  18.839   9.016  0.0840 -0.0754  0.2477
83108W        W26020   9.342  18.292   9.938  0.0034  0.1814  0.0198
83109W        W26021   8.280  20.588   8.312 -0.0916  0.2372  0.2093
83110W        W26022   9.645  21.207   8.835  0.1560  0.3340  0.2279
83111W        W26023  10.486  19.548   7.506 -0.2230  0.0299 -0.0027
83112W        W26024   9.406  19.976   6.647  0.2230 -0.2809 -0.0032
83113W        W26025   6.455  20.208   9.619  0.1412 -0.1939 -0.0366
83114W        W26026   7.892  19.732   8.491  0.3703  0.3656  0.0230
83115W        W26027   6.454  17.885   7.959 -0.0979  0.0975 -0.0749
83116W        W26028   8.069  19.205   6.393 -0.2186 -0.1755  0.1266
83117W        W26029   9.191  19.727   8.064 -0.0424 -0.1671 -0.1051
83118W        W26030   9.011  19.705   7.455 -0.1848 -0.0777 -0.0877
83119W        W26031   7.626  19.896   6.874  0.1241 -0.1756  0.0785
83120W        W26032   8.976  22.334   7.846  0.0552  0.0668  0.0901
83121W        W26033   9.457  22.461   9.753  0.0496 -0.1059 -0.0645
83122W        W26034  10.410  21.875   8.264  0.1187 -0.3356 -0.1405
83123W        W26035   8.758  19.406   9.707 -0.2532  0.1213  0.1183
83124W        W26036   7.966  18.713   9.803  0.1164  0.2789 -0.0272
83125W        W26037   7.194  21.335   7.918  0.1538 -0.1244 -0.0647
83126W        W26038   6.978  20.919   9.851  0.2067  0.3271 -0.0816
83127W        W26039   8.578  20.006   7.503 -0.0036 -0.2554  0.0798
83128W        W26040   9.843  20.451   9.539  0.2040 -0.0718 -0.2773
83129W        W26041   8.364  20.397   7.385 -0.5056 -0.0892 -0.1023
83130W        W26042  10.144  21.364   8.831 -0.4426 -0.1319 -0.0934
83131W        W26043   9.484  18.364  10.444  0.1703 -0.0759  0.1038
83132W        W26044   8.144  17.626   8.171 -0.1705 -0.0264 -0.2723
83133W        W26045   8.922  21.484   8.139  0.0266  0.2644 -0.1849
83134W        W26046   7.420  22.013   7.507  0.0160 -0.3720  0.3948
83135W        W26047   7.851  19.356   7.746  0.0445 -0.2515 -0.0307
83136W        W26048   8.660  20.832   8.565 -0.1281  0.1526 -0.1056
83137W        W26049  11.306  20.956   9.105 -0.1357 -0.1262 -0.0489
83138W        W26050   7.858  20.271   7.044 -0.0698  0.1696 -0.0919
83139W        W26051   9.297  18.451   8.956 -0.0205  0.2238  0.1093
83140W        W26052  11.239  19.212   8.166  0.2927 -0.2443 -0.2347
83141W        W26053   9.355  20.297   7.629  0.1101  0.2730 -0.2192
83142W        W26054   9.365  18.661   7.086 -0.0632 -0.1651  0.3222
83143W        W26055   9.762  18.320   6.173  0.1385 -0.0904 -0.0145
83144W        W26056   8.365  19.680   9.463  0.2912 -0.0233  0.0320
83145W        W26057   7.313  21.555   8.356  0.0948  0.1993 -0.1377
83146W        W26058   9.685  19.643   6.855 -0.1458  0.1789  0.1373
83147W        W26059   9.533  21.279   8.009  0.1725 -0.0280 -0.1006
83148W        W26060   7.483  20.291   8.468  0.1507  0.0168  0.0666
83149W        W26061   8.309  21.393   8.473 -0.2926 -0.0124  0.2287
83150W        W26062   9.236  18.604   9.500 -0.3533 -0.0484 -0.2668
83151W        W26063   7.283  20.048   6.504  0.1421 -0.0964 -0.0615
83152W        W26064   8.589  18.479   8.143 -0.0546  0.1811  0.2290
83153W        W26065   6.839  23.469   7.151 -0.0743  0.0452 -0.0501
83154W        W26066  11.225  18.279   9.730  0.0059 -0.0821 -0.0142
83155W        W26067   8.676  17.919   9.464 -0.0218  0.1910  0.1662
83156W        W26068   9.672  19.285   8.647  0.0151  0.0575  0.2856
83157W        W26069  12.949  16.565   9.491 -0.2740 -0.3145  0.2601
83158W        W26070   9.472  20.564   7.108 -0.0268 -0.0275 -0.1307
83159W        W26071  10.718  18.250   9.500  0.0911  0.1956  0.1508
83160W        W26072   7.892  21.880   9.621  0.0462 -0.0335 -0.2613
83161W        W26073   9.211  20.165   9.364  0.0534 -0.2384  0.1830
83162W        W26074   9.072  17.845   7.830 -0.1426 -0.1893 -0.1107
83163W        W26075   8.463  22.437   7.402 -0.2249  0.3529  0.2605
83164W        W26076   7.962  21.897   8.620  0.1801  0.1121  0.3427
83165W        W26077   7.837  17.647  10.268 -0.1464 -0.1696 -0.0166
83166W        W26078   7.019  19.336   9.841 -0.1187  0.0593  0.1619
83167W        W26079   8.894  19.863   5.545 -0.0316  0.3077 -0.3186
83168W        W26080  11.049  20.893   9.679  0.0959 -0.3053 -0.4689
83169W        W26081   9.327  21.947   9.776 -0.0205  0.2155 -0.3414
83170W        W26082   9.364  17.298   8.659 -0.0855  0.1807  0.0972
83171W        W26083   7.407  20.755   7.775  0.0140  0.1859  0.1281
83172W        W26084   8.075  19.109   8.381 -0.1927  0.1759  0.3243
83173W        W26085   8.085  19.995   7.579 -0.0913  0.2041 -0.0465
83174W        W26086   9.635  19.280   9.998  0.1169 -0.4876  0.3031
83175W        W26087   9.901  20.455   8.472  0.1963 -0.2042  0.0379
83176W        W26088   6.991  19.581   9.345 -0.1553 -0.1647 -0.3123
83177W        W26089  11.620  18.813   9.669  0.0389 -0.1623 -0.1371
83178W        W26090   8.258  20.736  10.326 -0.1624  0.0067 -0.1368
83179W        W26091  10.816  20.487   7.291  0.2546  0.2129 -0.1497
83180W        W26092   6.936  18.707   7.858  0.0014 -0.3098 -0.1162
83181W        W26093   9.514  20.256   8.858 -0.2092  0.0949  0.0850
83182W        W26094   8.374  19.049   9.633  0.1293 -0.2550  0.0193
83183W        W26095   7.212  20.938   8.244  0.1762 -0.0900  0.1776
83184W        W26096   9.227  21.894   9.256 -0.2834 -0.1528  0.3452
83185W        W26097   8.274  19.539   7.562 -0.0244  0.1023  0.1126
83186W        W26098   8.639  21.448   7.754 -0.1143  0.0238 -0.0395
83187W        W26099   9.405  21.077   9.256 -0.2967 -0.0778  0.1452
83188W        W26100   8.850  19.128   8.717 -0.3758  0.3505  0.0518
83189W        W26101   8.775  18.457   9.536  0.3240  0.0249 -0.0989
83190W        W26102  10.055  18.828   9.638 -0.1795  0.1022 -0.0720
83191W        W26103   9.711  22.006   9.444  0.1711 -0.0974  0.0676
83192W        W26104   9.320  19.088   8.933 -0.1043  0.1553  0.0715
83193W        W26105   8.992  17.135   9.083 -0.0407  0.1695 -0.1805
83194W        W26106   8.900  20.194   7.853  0.0026  0.1379 -0.0244
83195W        W26107   8.975  20.336   7.317  0.0810  0.2124 -0.0045
83196W        W26108   6.498  19.476   9.438 -0.1082  0.2121  0.1732
83197W        W26109   7.305  20.301   6.967 -0.1781  0.0545 -0.3751
83198W        W26110  10.188  18.214   9.379 -0.0968  0.3311 -0.0753
83199W        W26111   6.791  21.442   9.662 -0.0831 -0.0928 -0.0315
83200W        W26112   7.447  21.771   8.805 -0.3350  0.2431 -0.3403
83201W        W26113   6.080  20.665   9.750 -0.0663  0.0226  0.0261
83202W        W26114   8.812  19.322   7.752 -0.0089 -0.0382  0.2551
83203W        W26115   8.957  20.054   6.359 -0.2792 -0.0182 -0.0506
83204W        W26116   8.667  18.008   8.040  0.3652 -0.1265 -0.0228
83205W        W26117   9.843  19.373   7.676 -0.1284 -0.1781 -0.0193
83206W        W26118   7.468  16.204   8.702  0.1447 -0.1977  0.0531
83207W        W26119   9.155  20.559   9.105  0.0245  0.0441 -0.1729
83208W        W26120   9.157  18.954   7.488 -0.2576  0.1116 -0.0424
83209W        W26121   6.888  18.081   7.731 -0.2459 -0.2754 -0.0038
83210W        W26122   7.574  20.920   8.595  0.0222  0.1951 -0.2093
83211W        W26123   9.216  19.170   8.257 -0.1181  0.0699 -0.2371
83212W        W26124   7.941  20.514   6.589 -0.3118  0.3083  0.0707
83213W        W26125   8.667  19.762  10.616  0.0575 -0.0726  0.3949
83214W        W26126   7.836  20.607   9.654 -0.0908  0.1111  0.2522
83215W        W26127  11.238  19.810   9.714 -0.0249  0.2868 -0.1739
83216W        W26128   8.866  19.977   8.422  0.2082  0.1880  0.2642
83217W        W26129   7.650  18.324   9.735  0.1641 -0.0918 -0.1341
83218W        W26130   8.818  18.800   9.937 -0.1671  0.2234  0.0887
83219W        W26131   9.023  17.875   9.821 -0.3182 -0.0995  0.0725
83220W        W26132   8.776  20.486   9.514 -0.0036 -0.0323 -0.0894
83221W        W26133  11.593  19.470   7.291 -0.0592 -0.2334  0.0934
83222W        W26134   9.791  18.406   9.601 -0.0152  0.0794  0.1388
83223W        W26135   9.756  19.795   8.727  0.0159  0.1423  0.0856
83224W        W26136  10.211  19.185   7.956  0.3203 -0.2218  0.1908
83225W        W26137   8.359  18.886   8.708  0.1543 -0.1348 -0.1060
83226W        W26138   8.137  19.309   5.625 -0.2135 -0.0234 -0.0837
83227W        W26139   9.728  21.594   7.666  0.3706  0.2575  0.0564
83228W        W26140   7.615  20.100   9.865 -0.4968  0.1284 -0.1265
83229W        W26141   9.172  19.807  10.184 -0.4784 -0.3243  0.1517
83230W        W26142   7.325  18.268   9.043 -0.5224 -0.0530 -0.3258
83231W        W26143   7.800  18.902   7.351 -0.0671  0.1181  0.1011
83232W        W26144   8.764  21.840   6.857 -0.0394 -0.1828 -0.0184
83233W        W26145   7.981  20.035   9.340 -0.0921 -0.0498  0.1279
83234W        W26146  10.555  18.577   5.634  0.0382  0.2283  0.2843
83235W        W26147   7.123  20.474   8.087 -0.0663  0.1122 -0.1833
83236W        W26148   8.379  16.262   8.379  0.1349 -0.1948  0.2289
83237W        W26149   7.496  19.007  10.125 -0.1765 -0.1221  0.0913
83238W        W26150   7.530  21.039   9.896  0.0512  0.0138  0.0820
83239W        W26151  10.437  17.208   9.121  0.1271  0.5403 -0.1271
83240W        W26152   8.595  19.164  10.142 -0.4254 -0.1267 -0.0543
83241W        W26153   8.360  19.669  10.068 -0.1360  0.3134 -0.0593
83242W        W26154   7.366  20.436   9.520  0.2441  0.2359 -0.3232
83243W        W26155   9.630  20.702   9.052  0.0831 -0.0918 -0.2199
83244W        W26156   7.456  21.094   9.392  0.0553  0.2168 -0.1173
83245W        W26157   7.334  22.387   9.232  0.0673  0.1375 -0.0951
83246W        W26158   7.452  19.110   8.562  0.1856 -0.0187 -0.0594
83247W        W26159   7.837  21.018   7.624  0.2866  0.0002  0.1107
83248W        W26160   6.660  19.540   8.965 -0.3123 -0.0016  0.2563
83249W        W26161   8.415  22.406   6.592 -0.0210  0.1941  0.1076
83250W        W26162   9.590  19.870   7.776  0.2381  0.0451  0.0100
83251W        W26163   7.981  19.779   7.981 -0.2619 -0.1674 -0.3928
83252W        W26164   8.958  21.842   8.624 -0.0870  0.0861 -0.0898
83253W        W26165  10.344  19.101   6.234 -0.0002 -0.0711  0.0251
83254W        W26166   8.122  21.325   7.928 -0.1199  0.0262 -0.2844
83255W        W26167   7.233  21.298   5.519 -0.0340  0.1214 -0.0588
83256W        W26168   8.840  20.301   5.935 -0.1449  0.0258 -0.0887
83257W        W26169   8.273  22.909   7.974  0.0034  0.0602 -0.0072
83258W        W26170  11.005  19.518   7.318  0.0161 -0.1760  0.2565
83259W        W26171   9.666  19.488   8.139 -0.0138 -0.2586 -0.3703
83260W        W26172  10.867  18.843   8.524 -0.2793  0.2968 -0.1783
83261W        W26173   8.312  20.357   9.697  0.1344  0.3650  0.1002
83262W        W26174  10.935  18.505   6.479  0.0142 -0.0465  0.2793
83263W        W26175   8.355  20.259   7.948  0.1634  0.0335 -0.1340
83264W        W26176   9.336  19.391   7.755 -0.0374  0.0343  0.0362
83265W        W26177   8.565  19.211   9.152 -0.0934 -0.2518 -0.0506
83266W        W26178  11.143  18.944   9.818  0.0714  0.5726 -0.1559
83267W        W26179   8.646  19.651   6.655  0.1048 -0.1069 -0.1818
83268W        W26180   9.151  18.245   8.341  0.3215  0.2346  0.0135
83269W        W26181   6.688  21.931   8.841  0.0623  0.0602 -0.0560
83270W        W26182   7.241  22.682   8.816  0.0169 -0.0201 -0.4316
83271W        W26183   7.520  20.056  10.389 -0.1640  0.0982 -0.0687
83272W        W26184   7.792  19.670   7.285  0.2040  0.1889  0.0410
83273W        W26185   9.785  19.259   9.530  0.0333  0.0193 -0.2552
83274W        W26186   6.548  19.330   9.932 -0.0663  0.1019 -0.1826
83275W        W26187   8.193  18.079   7.986  0.1359 -0.0058 -0.1705
83276W        W26188  10.317  18.989   8.626 -0.4992 -0.0666 -0.1428
83277W        W26189   7.929  19.771  10.266 -0.0032  0.0763 -0.0567
83278W        W26190   7.572  19.263   9.526  0.1878  0.1987 -0.2082
83279W        W26191   7.966  20.535   7.633  0.1112  0.0090  0.1568
83280W        W26192   9.245  19.009   6.174  0.1462 -0.2728 -0.4428
83281W        W26193   8.712  20.066   9.835 -0.0002 -0.1308  0.0463
83282W        W26194   9.574  19.614   7.323 -0.1303  0.1169 -0.1008
83283W        W26195   7.326  19.724   8.631 -0.0601 -0.4117 -0.1453
83284W        W26196   8.144  18.652   8.261  0.1163 -0.1912  0.1297
83285W        W26197   6.389  17.624   9.226 -0.0489  0.2897 -0.2381
83286W        W26198  10.211  19.594   8.223  0.1020 -0.2233  0.2305
83287W        W26199   9.961  19.133   9.042  0.0971  0.0899  0.0957
83288W        W26200   8.096  22.583   8.467 -0.1828  0.0223 -0.0847
83289W        W26201   9.255  18.741   8.516  0.0657 -0.1531  0.0022
83290W        W26202   9.671  19.993   9.317 -0.2967 -0.0912 -0.3352
83291W        W26203   7.975  19.452   9.226  0.1074 -0.4194 -0.1460
83292W        W26204  10.098  21.357   9.311  0.1283  0.0816 -0.3173
83293W        W26205   9.382  20.453  10.440 -0.1025 -0.3426 -0.0523
83294W        W26206   8.728  18.772   7.721 -0.0823  0.2790  0.1446
83295W        W26207   9.256  19.843   9.015 -0.2014 -0.0255 -0.1159
83296W        W26208   8.085  21.007   6.740 -0.0499 -0.0809  0.0021
83297W        W26209  10.281  19.311   9.827 -0.0894 -0.0555 -0.3247
83298W        W26210   9.488  21.085   6.994  0.1236 -0.2354  0.1453
83299W        W26211  15.664  19.045  11.338  0.1272  0.2258 -0.2223
83300W        W26212   7.821  20.285   8.837 -0.1863 -0.1080  0.1150
83301W        W26213   8.303  20.319   8.798  0.2316  0.2632  0.1405
83302W        W26214   8.313  21.107   7.456  0.0024 -0.2787  0.1635
83303W        W26215   8.795  21.315   8.653 -0.2390 -0.1305 -0.2053
83304W        W26216   8.384  19.401   8.669  0.1907 -0.2782  0.0892
83305W        W26217   9.606  20.838   8.400 -0.3366  0.1138 -0.0336
83306W        W26218   9.628  17.939   9.294 -0.0545  0.5279  0.1063
83307W        W26219  10.407  18.476   8.676  0.1225  0.0585 -0.2630
83308W        W26220   9.512  17.934   8.140 -0.0243 -0.3198 -0.1736
83309W        W26221   6.505  20.709   9.506 -0.0471 -0.0774 -0.1371
83310W        W26222   7.151  20.013   7.874 -0.0398 -0.0912  0.0174
83311W        W26223   7.545  20.609   7.298 -0.0133 -0.3512 -0.0005
83312W        W26224   7.570  20.217   7.900  0.3562 -0.0969 -0.0690
83313W        W26225   7.503  19.758   9.463 -0.0050  0.0632  0.2726
83314W        W26226   7.000  18.999   8.287  0.0095 -0.2593 -0.2990
83315W        W26227   8.787  20.635   8.152  0.1837  0.4663  0.1338
83316W        W26228   8.148  18.329  10.140 -0.1501  0.1464  0.0682
83317W        W26229   7.782  18.927   7.980  0.0152  0.1037 -0.1994
83318W        W26230   8.651  19.765   7.928 -0.0312  0.2006 -0.1759
83319W        W26231   9.169  20.980   8.296 -0.0322 -0.0380  0.0870
83320W        W26232   8.379  18.724   6.895 -0.1990  0.2040 -0.2466
83321W        W26233   8.530  21.118   5.998  0.2391  0.0864  0.1253
83322W        W26234   6.210  18.218   6.628  0.0996  0.0115 -0.3129
83323W        W26235   9.308  19.616   9.496  0.3379  0.3564  0.0857
83324W        W26236   8.792  21.957   8.113 -0.0667  0.2022  0.1264
83325W        W26237   9.803  22.908   8.516  0.1472 -0.0054 -0.0908
83326W        W26238   8.204  19.301  10.471  0.2030  0.1229  0.2503
83327W        W26239   8.629  19.554   7.234 -0.0499  0.2599 -0.1335
83328W        W26240  10.239  20.542   7.535  0.0572  0.1434 -0.1481
83329W        W26241   9.870  18.415  10.117 -0.1839 -0.1043 -0.2928
83330W        W26242   8.850  19.808   9.400  0.0519 -0.0678  0.3165
83331W        W26243  11.442  21.186   9.537  0.0505  0.0483 -0.1828
83332W        W26244   6.843  18.344   8.851  0.2048 -0.1916 -0.1474
83333W        W26245   9.861  19.012   8.251  0.2041 -0.1734 -0.0565
83334W        W26246   9.092  21.130   7.818  0.2632  0.2729 -0.2168
83335W        W26247   7.687  19.794   8.979  0.1021  0.2044 -0.3210
83336W        W26248   9.440  18.491   7.584  0.0036 -0.1090  0.0530
83337W        W26249   8.856  21.097   9.160  0.0398  0.3088 -0.0699
83338W        W26250   8.626  21.103   8.116 -0.0520 -0.0867 -0.3179
83339W        W26251  11.297  19.181   7.047  0.0236  0.0355 -0.2635
83340W        W26252   9.643  23.468   8.620  0.0869  0.1425 -0.0600
83341W        W26253   9.085  21.480   9.538  0.5771 -0.1924  0.1243
83342W        W26254  11.092  17.897   9.336 -0.0097  0.0862  0.0155
83343W        W26255   6.985  18.834   8.805 -0.1059 -0.0972  0.2954
83344W        W26256   8.323  20.482   6.888 -0.1558 -0.2855  0.0598
83345W        W26257   8.238  19.859   8.890 -0.3438 -0.0830 -0.1429
83346W        W26258   9.035  19.378   9.168  0.2696  0.2530  0.1429
83347W        W26259   8.511  17.596   9.939 -0.0189  0.1700 -0.0317
83348W        W26260   9.931  17.835   7.319  0.1236 -0.0614 -0.1081
83349W        W26261   8.192  23.681   8.671  0.2909 -0.0376  0.2547
83350W        W26262   8.608  24.286   9.817 -0.0525  0.2133 -0.0601
83351W        W26263   8.952  24.866   2.001 -0.0836  0.2893  0.1442
83352W        W26264   8.105  21.556   0.869 -0.0491 -0.2875  0.0179
83353W        W26265  10.521  23.257   0.032 -0.0986  0.4310  0.0000
83354W        W26266  12.039  22.519   1.167 -0.0620  0.0218  0.0626
83355W        W26267   7.479  22.101   1.345  0.0309  0.0736  0.2276
83356W        W26268  10.635  26.269   0.107  0.3830  0.0874 -0.1814
83357W        W26269   8.796  21.145   3.218 -0.1966 -0.3054 -0.1758
83358W        W26270  10.658  24.685   1.358 -0.1927  0.2014  0.0514
83359W        W26271  10.918  24.181   1.121 -0.0828  0.0239 -0.1561
83360W        W26272   9.210  23.186   1.042  0.2054 -0.0816 -0.0673
83361W        W26273   7.703  22.481   1.769 -0.1324 -0.0365  0.1829
83362W        W26274   8.744  24.151   1.947  0.1409 -0.0787  0.2126
83363W        W26275   9.531  23.106   1.483 -0.1368 -0.1745 -0.1378
83364W        W26276   6.938  20.109   1.095  0.0072  0.3111  0.3346
83365W        W26277  11.907  24.271   2.635  0.1825  0.0427  0.1607
83366W        W26278   7.227  23.829   0.978 -0.1513  0.1983  0.0411
83367W        W26279   8.513  20.661   3.254 -0.0672 -0.0669 -0.3061
83368W        W26280   9.109  22.819   1.334 -0.0389 -0.3840  0.1663
83369W        W26281   9.755  24.742   0.351 -0.1329 -0.0582 -0.1152
83370W        W26282   7.892  22.204   2.188 -0.2241 -0.1977  0.0245
83371W        W26283   9.958  22.692   2.583  0.0869  0.1853  0.1197
83372W        W26284   8.444  24.904   1.119 -0.2821 -0.0393  0.0847
83373W        W26285   7.423  23.230   0.050  0.1781 -0.0927  0.0430
83374W        W26286   7.594  22.634   2.266 -0.3596 -0.2268  0.1886
83375W        W26287   7.414  23.720   2.240  0.0459 -0.0138  0.1528
83376W        W26288  11.263  22.993   1.378  0.1609  0.1619  0.1759
83377W        W26289  11.834  23.163   1.557 -0.0212 -0.3331  0.0878
83378W        W26290   8.697  24.406   1.129  0.1573  0.2779 -0.0509
83379W        W26291   9.845  25.040   2.146  0.0260  0.0382 -0.0627
83380W        W26292   9.717  21.958   3.439 -0.4412 -0.0782  0.1410
83381W        W26293   6.393  24.707   1.007  0.0968 -0.0686  0.2121
83382W        W26294   7.459  25.109   1.494  0.1961  0.2149  0.4084
83383W        W26295   9.541  24.554   0.802  0.3434 -0.0132  0.2088
83384W        W26296  10.430  24.257  31.978 -0.0413  0.0606  0.0600
83385W        W26297  11.198  23.918   1.636  0.0490  0.4111  0.1004
83386W        W26298   9.824  24.452   3.254 -0.1674  0.0441  0.2852
83387W        W26299   7.543  24.784   1.065  0.0081 -0.0363  0.0779
83388W        W26300  10.142  24.629   2.392  0.2049 -0.0621  0.0150
83389W        W26301   8.842  24.176   3.280  0.0246 -0.1377  0.3077
83390W        W26302   9.803  22.393   3.075 -0.2858 -0.1591  0.0313
83391W        W26303  10.306  23.466   0.419 -0.2405  0.2738  0.0047
83392W        W26304   8.877  23.342  30.983 -0.1153  0.1380  0.1721
83393W        W26305  10.160  23.024   0.639 -0.0837  0.1576 -0.0269
83394W        W26306   8.947  23.547   4.038  0.1421  0.4892 -0.1559
83395W        W26307   8.379  23.687   1.121 -0.2832 -0.0681 -0.1606
83396W        W26308  13.016  23.645   2.289 -0.4025  0.2593  0.0278
83397W        W26309   7.998  23.987   0.824 -0.0561 -0.0147  0.1968
83398W        W26310   9.825  22.532   0.039 -0.2171  0.4439 -0.1152
83399W        W26311   7.576  23.494   0.989  0.2381 -0.1801  0.1849
83400W        W26312   9.581  22.331  31.207 -0.4379  0.0219  0.0799
83401W        W26313   9.258  20.233   2.142  0.0049 -0.3695 -0.3235
83402W        W26314   8.951  23.847   2.528 -0.0661 -0.1945 -0.1610
83403W        W26315   8.378  21.903   1.542 -0.0252  0.0953 -0.2692
83404W        W26316  10.123  23.251   2.263  0.1132  0.0778  0.1709
83405W        W26317   9.664  24.032   0.440 -0.1106  0.3525 -0.0949
83406W        W26318  10.569  22.089   2.757  0.0966  0.3084 -0.1047
83407W        W26319   8.221  23.856   3.168  0.1687 -0.0120  0.2126
83408W        W26320   7.454  23.269   1.443 -0.2657 -0.0604 -0.2356
83409W        W26321  11.425  25.794  31.754  0.2044 -0.0130 -0.0793
83410W        W26322  12.114  23.569   1.402  0.1425  0.0302  0.0822
83411W        W26323   8.841  24.998  31.736  0.1382  0.3203 -0.3194
83412W        W26324   9.211  22.914   1.849 -0.2269 -0.1615 -0.0726
83413W        W26325   6.767  23.755   2.865 -0.3812  0.0128 -0.1775
83414W        W26326   7.885  23.109   2.095 -0.1772 -0.3235 -0.2883
83415W        W26327  10.259  22.453   0.987 -0.5261  0.1517  0.0554
83416W        W26328  10.563  23.356   3.668 -0.0752  0.2025 -0.1699
83417W        W26329   7.361  23.187   2.400  0.1356  0.1318 -0.0485
83418W        W26330  10.410  21.040  31.754  0.1664 -0.5385 -0.0486
83419W        W26331   8.609  23.571   1.537  0.2904  0.1167  0.0981
83420W        W26332   9.910  21.334   2.486  0.1652 -0.0933  0.0919
83421W        W26333  12.455  23.312  31.659  0.1664  0.1178 -0.1292
83422W        W26334   9.500  21.225   2.206 -0.0078  0.2817 -0.1492
83423W        W26335  10.694  21.422   2.504  0.0637 -0.0344 -0.3994
83424W        W26336   7.275  24.606  30.592 -0.3083  0.1424  0.0414
83425W        W26337  10.786  23.420   0.500 -0.2038 -0.1315  0.1892
83426W        W26338  10.611  24.387   3.116 -0.1209 -0.2695  0.2953
83427W        W26339  10.643  23.903   0.303 -0.0735 -0.0647 -0.2329
83428W        W26340   7.869  25.051   1.881  0.0812 -0.1414 -0.1892
83429W        W26341   8.628  21.483   2.471 -0.0168 -0.2303  0.2043
83430W        W26342  11.603  23.650   2.201  0.3464 -0.2244 -0.0062
83431W        W26343   8.060  23.667  31.683 -0.2150  0.0702  0.0186
83432W        W26344   9.130  23.715   1.173 -0.0779  0.1758 -0.0851
83433W        W26345   6.570  23.621  31.979  0.3043 -0.2258 -0.0397
83434W        W26346   8.252  22.342   1.583  0.1471 -0.1390  0.2183
83435W        W26347   9.803  24.988   0.863 -0.3428  0.3084  0.1152
83436W        W26348  10.478  21.920   0.843 -0.0942 -0.0032 -0.2643
83437W        W26349   6.970  22.811   3.022  0.0700 -0.0247  0.0867
83438W        W26350  11.396  21.663   0.803  0.1953 -0.0343  0.0673
83439W        W26351   7.867  24.525   0.391 -0.3599 -0.0064 -0.2255
83440W        W26352  11.608  25.046   1.494 -0.2376  0.1370 -0.1166
83441W        W26353  11.064  23.042   0.230  0.2511  0.1670 -0.0483
83442W        W26354  10.844  24.192  31.674  0.1543  0.2533 -0.1270
83443W        W26355   6.931  23.493   2.321  0.2104 -0.3294 -0.0622
83444W        W26356   9.816  23.266   1.136  0.1771  0.1063  0.5427
83445W        W26357   8.289  22.153   2.787 -0.0956  0.0640  0.2307
83446W        W26358   6.008  21.164   2.252  0.1509 -0.0906  0.0825
83447W        W26359  11.100  23.819   2.461 -0.1275  0.0319  0.7748
83448W        W26360   7.998  21.203   0.193  0.2779 -0.0963 -0.1724
83449W        W26361  11.723  23.063   1.017  0.0611  0.0281 -0.2148
83450W        W26362  10.025  23.714   1.270 -0.0057  0.0630  0.2107
83451W        W26363   6.736  25.685   0.492 -0.0909  0.1152  0.1849
83452W        W26364  10.795  22.456   2.514 -0.3158 -0.0798 -0.0590
83453W        W26365  10.424  24.942  30.766 -0.0934  0.0171 -0.1799
83454W        W26366  12.335  24.261   2.032 -0.3267 -0.1655 -0.2160
83455W        W26367  11.329  25.313   0.007  0.2192  0.1046  0.1309
83456W        W26368   7.815  21.818   3.366 -0.1397  0.2115  0.2558
83457W        W26369   8.252  22.077   0.372  0.0912  0.0554 -0.6202
83458W        W26370   8.379  26.826   1.511  0.2465  0.3545  0.3181
83459W        W26371   9.632  23.903   1.800  0.0105 -0.3593 -0.1506
83460W        W26372   9.991  23.039   0.063 -0.1648  0.3941 -0.3332
83461W        W26373  10.382  23.714   2.312  0.2086  0.1041 -0.1785
83462W        W26374  10.309  23.414   0.940 -0.1046 -0.0267 -0.1709
83463W        W26375   8.036  23.669   3.560 -0.1143 -0.1434  0.1496
83464W        W26376   9.842  22.249   1.271 -0.0819 -0.0563 -0.2531
83465W        W26377   9.673  24.740   2.687  0.1899  0.1663 -0.0271
83466W        W26378  10.331  23.290   2.755 -0.1686 -0.0229  0.0953
83467W        W26379   8.982  22.701  31.763  0.2406 -0.1704 -0.0585
83468W        W26380   9.259  24.314   0.428 -0.1212  0.0991 -0.3453
83469W        W26381   7.272  24.517   0.632 -0.3019 -0.0047 -0.2408
83470W        W26382   5.901  23.649   1.409  0.1445  0.0824 -0.1838
83471W        W26383  10.190  24.379   0.561 -0.2732 -0.2470 -0.1086
83472W        W26384  11.831  20.993   0.233 -0.4042 -0.2524  0.2454
83473W        W26385   7.037  22.975   3.584  0.2056  0.1028  0.1414
83474W        W26386  10.941  21.921   2.459  0.2981  0.1304 -0.2118
83475W        W26387   7.075  24.204  31.964  0.1677  0.0214  0.1528
83476W        W26388   8.105  24.202   2.808 -0.0343 -0.2120 -0.0277
83477W        W26389  10.226  21.969   1.278 -0.1079 -0.0571  0.1464
83478W        W26390  10.995  20.419  31.237 -0.5775 -0.1566 -0.1730
83479W        W26391  10.074  22.684   2.028 -0.1824 -0.0889  0.1359
83480W        W26392  11.529  23.600   1.366 -0.0353 -0.0931 -0.2163
83481W        W26393   9.045  22.866  31.015 -0.0449  0.0161  0.1029
83482W        W26394   8.198  22.519   0.913  0.1169  0.1741  0.0987
83483W        W26395   7.457  22.843   2.821 -0.0686 -0.0391 -0.1166
83484W        W26396  11.040  23.344   1.620 -0.2125 -0.4041 -0.1600
83485W        W26397  10.062  24.512   1.080 -0.4611 -0.1056  0.1581
83486W        W26398   9.219  23.197  31.433  0.0546  0.1241 -0.0906
83487W        W26399  11.599  24.408   0.797 -0.0943 -0.0109 -0.3541
83488W        W26400   7.898  24.968   2.361  0.1309  0.1132 -0.1388
83489W        W26401   8.213  24.538   4.252 -0.4431 -0.0948  0.1176
83490W        W26402  10.967  24.964  31.944 -0.1849 -0.1231  0.1054
83491W        W26403   9.928  21.562   1.337 -0.0099  0.0768 -0.1010
83492W        W26404   8.735  23.026  31.409 -0.2132  0.1378 -0.3808
83493W        W26405  10.294  22.402   2.394 -0.2122  0.4403  0.1426
83494W        W26406   8.633  24.901   0.388 -0.3416 -0.0837 -0.2399
83495W        W26407  10.652  22.925   0.597 -0.2127 -0.0359  0.5973
83496W        W26408  10.179  21.732   1.775 -0.1549 -0.1426 -0.3351
83497W        W26409   9.155  22.055   2.731  0.2961 -0.1439 -0.0559
83498W        W26410  10.472  22.096   3.732  0.0982  0.0165 -0.0738
83499W        W26411  11.326  23.585   0.529 -0.1641 -0.2802  0.3787
83500W        W26412  11.663  24.958   0.696 -0.0566  0.1917  0.0704
83501W        W26413   8.130  20.739   1.123 -0.2137  0.4009  0.1630
83502W        W26414   8.983  23.257   1.465  0.0123 -0.0701  0.3255
83503W        W26415   8.226  23.357   3.232  0.1202 -0.2347 -0.2483
83504W        W26416   7.727  26.103   2.305  0.1218 -0.2156  0.0843
83505W        W26417  10.101  23.137   3.953 -0.0277 -0.2770  0.2967
83506W        W26418   6.869  24.677   0.936  0.1384  0.0313  0.0878
83507W        W26419   9.590  22.341   3.914 -0.3887  0.0111  0.4356
83508W        W26420   9.436  24.119   1.381  0.1268 -0.0430 -0.2643
83509W        W26421   8.377  24.687  31.764  0.0159  0.2462  0.3332
83510W        W26422   7.908  23.370   0.282 -0.1118  0.0383 -0.1303
83511W        W26423   8.568  21.624   1.038 -0.0785  0.3012 -0.0796
83512W        W26424   9.570  24.265   2.556  0.0377 -0.2537  0.2274
83513W        W26425   8.766  24.150   0.433  0.0085  0.4182  0.2385
83514W        W26426  10.840  23.262   3.016 -0.0204  0.2622 -0.2283
83515W        W26427   8.398  23.834   1.881 -0.2303  0.1015  0.2371
83516W        W26428  10.278  21.780   2.418  0.3638  0.0796  0.0451
83517W        W26429   8.960  24.509   0.766 -0.1707  0.2236 -0.2183
83518W        W26430   7.432  22.476   1.006  0.1115 -0.1248  0.0694
83519W        W26431   6.758  22.500  31.756 -0.4551 -0.2919 -0.0420
83520W        W26432   9.593  23.624   1.407 -0.0164  0.3277  0.0287
83521W        W26433  10.963  23.176  31.265  0.0106 -0.0608 -0.0781
83522W        W26434   7.128  21.881   1.623  0.1659 -0.2336  0.0879
83523W        W26435   8.823  23.581   2.080  0.2196  0.1217 -0.3147
83524W        W26436   7.476  25.568   1.865  0.1247 -0.0450  0.2314
83525W        W26437   9.995  22.337   3.614  0.1359  0.1401  0.2526
83526W        W26438   9.938  21.168  31.903  0.2779  0.0556  0.0766
83527W        W26439   9.108  24.753   2.662 -0.2101  0.1049  0.0975
83528W        W26440  10.618  22.467   4.073 -0.0205  0.4663  0.0426
83529W        W26441   7.232  22.743  31.003 -0.2252 -0.1856  0.0831
83530W        W26442  13.504  23.781   2.369 -0.2383 -0.1477 -0.1271
83531W        W26443   7.657  23.463   1.853  0.5587  0.0029  0.0141
83532W        W26444   7.788  25.383   0.459 -0.0718 -0.1010 -0.0626
83533W        W26445   8.988  23.341   3.282 -0.0487  0.1960 -0.0519
83534W        W26446   8.945  23.552   0.730 -0.1207 -0.1489  0.0304
83535W        W26447   8.460  23.690   0.522 -0.1948  0.3055 -0.1819
83536W        W26448   9.249  21.941   3.304  0.1658  0.2709 -0.2430
83537W        W26449  10.308  24.041   0.998  0.2762  0.0266  0.0227
83538W        W26450   8.211  22.754   1.922  0.0787 -0.1176 -0.0685
83539W        W26451   7.309  22.707   1.425 -0.0680  0.0315 -0.0987
83540W        W26452   8.203  24.235   1.269  0.1418 -0.0286  0.4241
83541W        W26453  10.681  23.326   2.385 -0.1018  0.5145  0.2140
83542W        W26454   9.148  24.558   1.288  0.0757 -0.2748  0.2271
83543W        W26455   7.954  24.459   3.213  0.0703  0.0107 -0.1725
83544W        W26456   8.449  21.160   1.122 -0.2192 -0.3656 -0.0701
83545W        W26457  12.818  25.174  31.745  0.0935 -0.2910 -0.1102
83546W        W26458   9.868  22.131   2.094 -0.0725  0.0708  0.1151
83547W        W26459   8.583  23.794  31.837  0.0880 -0.2230  0.1912
83548W        W26460   7.918  24.456   0.923  0.3054  0.0888  0.1841
83549W        W26461   8.102  25.892   2.026 -0.2118  0.1078  0.1960
83550W        W26462  10.487  22.782   2.823 -0.2236 -0.1175 -0.2510
83551W        W26463   9.653  24.658   1.261  0.1148  0.2448  0.1072
83552W        W26464   8.140  25.035   0.242  0.0363 -0.2023  0.1306
83553W        W26465   8.673  23.494   2.699  0.1147 -0.1341  0.0101
83554W        W26466  11.260  21.247   1.181 -0.1737  0.2526 -0.0864
83555W        W26467   9.439  23.020  31.902  0.0164  0.1739 -0.1251
83556W        W26468   9.622  21.923   1.600  0.1931 -0.3885  0.2060
83557W        W26469  11.578  21.487   1.869 -0.1024  0.0004  0.0325
83558W        W26470   9.266  23.266   0.343 -0.1282 -0.2626  0.0495
83559W        W26471   9.733  21.607   2.031  0.0049 -0.0083 -0.5355
83560W        W26472   7.196  21.877   2.075  0.1306  0.0175 -0.0140
83561W        W26473  11.492  23.217   1.929 -0.0393 -0.0943 -0.1523
83562W        W26474   7.129  22.701   2.513  0.2006 -0.0051  0.0612
83563W        W26475   8.917  24.646   3.664  0.1306 -0.1553  0.2108
83564W        W26476   9.099  23.790   3.667 -0.2031  0.2158 -0.0687
83565W        W26477   9.686  22.542   1.679 -0.0723  0.1151  0.0185
83566W        W26478   9.179  20.267   1.221 -0.3674  0.2827  0.1115
83567W        W26479   9.922  24.163   1.480  0.3162  0.2487 -0.0771
83568W        W26480  10.420  24.210   1.477 -0.2781 -0.0734  0.0502
83569W        W26481   8.474  23.104   0.630 -0.0810 -0.1108 -0.1596
83570W        W26482  11.595  21.428   0.122  0.2023 -0.3554  0.2996
83571W        W26483   7.463  24.200   2.316 -0.2665 -0.1801  0.2475
83572W        W26484  10.053  22.271   0.473  0.1377  0.1631  0.0398
83573W        W26485   9.385  24.960  31.972 -0.0867  0.1909 -0.3481
83574W        W26486   8.587  23.206   1.111 -0.2269 -0.3095 -0.0570
83575W        W26487   9.562  22.532   2.147  0.1047  0.0220  0.0876
83576W        W26488  11.143  24.144   0.679 -0.0146  0.1836  0.0312
83577W        W26489  10.834  22.738   1.056 -0.1608 -0.2482 -0.2902
83578W        W26490   9.334  25.121   2.256 -0.2249  0.3579  0.0550
83579W        W26491  11.015  22.536   3.722 -0.1286  0.0023  0.0172
83580W        W26492   9.365  23.865   2.184 -0.0304  0.3054  0.1390
83581W        W26493   7.281  21.724   2.577  0.0636 -0.0554  0.1181
83582W        W26494  11.661  24.235   1.744  0.0094 -0.0821 -0.2068
83583W        W26495  11.854  24.432  31.889 -0.0768 -0.1597 -0.1083
83584W        W26496  10.908  22.707   3.061 -0.1236  0.1664  0.0903
83585W        W26497  11.071  22.067  31.380 -0.1705 -0.2791 -0.1058
83586W        W26498  10.744  22.645   0.162 -0.1847  0.0351  0.0511
83587W        W26499   7.774  22.154   0.893  0.0654 -0.0749  0.0327
83588W        W26500  11.428  23.277   4.260  0.1407 -0.1121 -0.3567
83589W        W26501   9.494  21.395   1.660 -0.0955  0.0759 -0.0344
83590W        W26502   9.588  21.897   2.989 -0.1575 -0.2090 -0.1369
83591W        W26503   8.828  24.276  30.876  0.3070  0.4185 -0.0108
83592W        W26504  10.776  24.346   0.424  0.1725 -0.1911 -0.0749
83593W        W26505  11.194  22.348   1.541 -0.4401  0.0521 -0.1601
83594W        W26506   7.458  22.263   0.475  0.0080  0.1910 -0.0099
83595W        W26507   8.767  25.522   2.198 -0.2460 -0.0596  0.0864
83596W        W26508   6.780  23.138  31.897 -0.2439 -0.0122  0.0378
83597W        W26509   8.023  23.471   0.770 -0.1035  0.1605 -0.2115
83598W        W26510   9.940  23.014   3.029 -0.2232  0.2535 -0.2456
83599W        W26511  12.572  23.848   4.633  0.0699 -0.0863  0.0044
83600W        W26512  10.279  22.296  31.809  0.1890 -0.3720 -0.0341
83601W        W26513  10.476  22.854   2.304  0.2637  0.4588  0.0111
83602W        W26514   6.704  24.954   2.260  0.1598  0.0034  0.2948
83603W        W26515  10.480  22.098   0.225 -0.0104  0.3375 -0.3307
83604W        W26516   8.105  25.875   2.983 -0.2609  0.2302  0.0181
83605W        W26517   6.667  24.762   2.703  0.1393  0.1070 -0.0011
83606W        W26518   8.029  24.657   1.523  0.0746  0.2614 -0.0088
83607W        W26519   8.975  22.774   2.810  0.2775 -0.0245  0.0271
83608W        W26520   9.776  23.041   1.992  0.1126  0.0106  0.3225
83609W        W26521   9.493  23.607   0.879  0.2374 -0.1343 -0.3736
83610W        W26522  10.021  22.102   2.742 -0.3200  0.0237 -0.2474
83611W        W26523   8.425  23.016   2.336 -0.0036 -0.0564  0.0314
83612W        W26524   8.289  23.442   2.273 -0.0442 -0.0400  0.0036
83613W        W26525  10.350  24.267   4.079  0.0589  0.1452  0.1343
83614W        W26526  12.033  23.553   2.451  0.1057  0.0346  0.1346
83615W        W26527   7.986  23.756   1.470 -0.1262 -0.2961  0.0892
83616W        W26528   7.795  23.153   3.381 -0.2482 -0.0152  0.3408
83617W        W26529   9.143  23.170   3.723 -0.0085 -0.4267  0.2099
83618W        W26530  10.468  24.489   1.880  0.0721  0.0851  0.1125
83619W        W26531   6.837  21.242   1.566  0.0439 -0.1432 -0.4026
83620W        W26532   8.658  24.274  31.824 -0.1058  0.3064 -0.0831
83621W        W26533   6.959  24.418   1.799  0.0384  0.0538 -0.0406
83622W        W26534   8.905  23.067   2.389 -0.0807  0.1152 -0.1689
83623W        W26535   9.056  25.755   1.752 -0.1085  0.1719  0.1184
83624W        W26536  10.052  24.018  31.650 -0.3629 -0.0871 -0.2331
83625W        W26537   9.259  23.768   0.392  0.2486 -0.1397  0.0821
83626W        W26538   8.801  25.344   1.693 -0.0372  0.2028 -0.3178
83627W        W26539   9.807  23.443   0.368  0.1087 -0.1494 -0.2380
83628W        W26540   7.607  24.640   2.045  0.2372  0.1592  0.0079
83629W        W26541   7.478  23.725   0.518 -0.2496  0.0026  0.0531
83630W        W26542  10.130  24.498  31.605  0.0470 -0.0389  0.2099
83631W        W26543   8.380  25.337   0.762 -0.0168 -0.2863 -0.0989
83632W        W26544  11.442  24.462   2.407 -0.0862  0.4215 -0.0102
83633W        W26545   9.636  22.734   1.180 -0.1522 -0.0429 -0.1390
83634W        W26546  12.263  23.778   0.605 -0.1705  0.0031  0.1623
83635W        W26547  11.858  21.727   0.988  0.0147  0.2947  0.0514
83636W        W26548   9.633  23.487   3.734  0.1591 -0.1018  0.3299
83637W        W26549  10.360  23.359   1.408 -0.0503 -0.1473 -0.0266
83638W        W26550  10.045  21.007  30.864 -0.1175  0.0123  0.1970
83639W        W26551   8.232  24.182   3.947  0.0210 -0.0337 -0.0672
83640W        W26552  11.289  21.638   2.655 -0.1974 -0.3460 -0.1794
83641W        W26553   9.072  24.336   2.346  0.0903  0.1690 -0.3075
83642W        W26554  10.551  26.434   0.995 -0.0275 -0.2962 -0.0920
83643W        W26555   8.520  22.558   0.458  0.2196  0.3584 -0.0766
83644W        W26556   8.507  24.074   0.847 -0.1006  0.1332 -0.0329
83645W        W26557  11.981  22.177   2.712 -0.0745 -0.1519  0.2905
83646W        W26558   8.150  23.932   0.181  0.1605 -0.2172 -0.1275
83647W        W26559   9.969  23.438   1.747 -0.2184 -0.0529  0.0520
83648W        W26560   8.424  24.568   0.693 -0.2296 -0.2998  0.0948
83649W        W26561  10.111  24.633   1.593  0.1503  0.4112 -0.2447
83650W        W26562  10.755  24.828   0.423 -0.0293  0.0333 -0.1309
83651W        W26563   7.732  21.816   0.424 -0.0104 -0.1398 -0.0349
83652W        W26564  12.521  22.051   0.403  0.0099  0.2681 -0.1335
83653W        W26565   9.131  22.465   2.409 -0.3053 -0.1839  0.0304
83654W        W26566  11.351  21.824   2.162  0.1915  0.2495 -0.2611
83655W        W26567   7.822  22.946   1.638  0.1345 -0.1706  0.0233
83656W        W26568  11.837  22.663   2.477 -0.3435 -0.0827 -0.1223
83657W        W26569   9.129  23.846   1.719 -0.0291 -0.1126 -0.0359
83658W        W26570   7.658  22.358   3.473 -0.1930  0.0844 -0.1561
83659W        W26571   8.944  23.017   0.723  0.1310 -0.0759  0.0384
83660W        W26572  10.076  23.313   3.505 -0.1234  0.1289  0.0560
83661W        W26573   7.978  24.294  31.915 -0.1368 -0.0789  0.0434
83662W        W26574  10.235  24.154   3.286  0.1789  0.3131 -0.1069
83663W        W26575   7.589  21.635   0.881  0.1890 -0.3355 -0.3353
83664W        W26576   9.426  23.446   1.863  0.0398  0.1165 -0.1101
83665W        W26577   7.029  22.836   0.977 -0.2243  0.2526 -0.0272
83666W        W26578   7.895  24.001   2.249  0.0027  0.1563  0.0449
83667W        W26579  10.176  24.383   2.826  0.2596 -0.0400 -0.0492
83668W        W26580   7.162  23.313   0.961  0.1018 -0.1499  0.0972
83669W        W26581  10.108  24.145  31.073  0.0764 -0.0839 -0.1420
83670W        W26582  10.891  22.945   2.603 -0.1448 -0.1498  0.0148
83671W        W26583   7.890  23.221  31.790  0.0762 -0.1977  0.0885
83672W        W26584  10.332  24.705   0.251 -0.0116 -0.2525  0.0672
83673W        W26585   9.299  24.111   0.894  0.1004  0.1135  0.3376
83674W        W26586   6.808  21.775   2.430  0.3032 -0.0898 -0.1153
83675W        W26587  10.795  23.983   2.025 -0.1550  0.5547  0.0269
83676W        W26588  11.215  25.140   1.923 -0.1664 -0.3334 -0.0207
83677W        W26589   9.784  22.646   0.594  0.2492  0.0415 -0.1005
83678W        W26590   8.657  23.116   1.907  0.0247  0.1264 -0.0691
83679W        W26591   9.245  24.920   0.483  0.2052 -0.4384  0.3735
83680W        W26592  11.732  22.923   0.065 -0.0116  0.5074  0.3135
83681W        W26593  10.612  22.022   1.617 -0.4380 -0.1579  0.0962
83682W        W26594   8.354  23.373   0.009  0.4214 -0.0431 -0.1142
83683W        W26595   9.481  22.838   2.833 -0.2447  0.4201 -0.3093
83684W        W26596   8.818  22.253   3.095  0.0598 -0.2896  0.1398
83685W        W26597   9.393  23.717   2.717  0.1158  0.1273  0.1019
83686W        W26598   6.483  22.950  31.336 -0.3611  0.1485 -0.0960
83687W        W26599   8.654  23.121   3.018  0.2239  0.0391 -0.3369
83688W        W26600   9.809  25.202   0.327 -0.2309  0.0169 -0.4343
83689W        W26601   8.776  23.988   1.370  0.2005  0.1258  0.0492
83690W        W26602  11.447  24.245   2.862  0.0123 -0.1127  0.3241
83691W        W26603  10.845  23.009  31.750 -0.0902  0.0519 -0.1520
83692W        W26604   9.759  24.058   1.005 -0.4437  0.0705 -0.0944
83693W        W26605   8.872  22.003   1.737 -0.0918  0.0934 -0.1819
83694W        W26606   9.404  22.012   1.012  0.0552 -0.1491  0.1946
83695W        W26607  10.079  20.441  31.265 -0.0858 -0.0888  0.0409
83696W        W26608   8.934  24.983   1.411 -0.1300  0.4377 -0.0955
83697W        W26609   6.299  23.043   0.044 -0.1051  0.5429  0.1053
83698W        W26610   8.735  23.806  30.795 -0.3640 -0.2685  0.0820
83699W        W26611   7.097  23.349   1.877  0.4353  0.1660  0.2614
83700W        W26612  10.826  20.291   2.707 -0.1033 -0.1937 -0.2831
83701W        W26613   7.388  22.752   3.338 -0.0150  0.0155 -0.4262
83702W        W26614   7.022  22.955  31.479 -0.0741 -0.3453  0.3132
83703W        W26615   8.731  22.677   0.998 -0.1835  0.1908 -0.1105
83704W        W26616  11.741  25.227   0.256 -0.2116  0.2716 -0.2125
83705W        W26617   8.004  20.958   2.024  0.3269  0.0060  0.0581
83706W        W26618   7.087  23.167   0.397 -0.0690  0.2109 -0.2319
83707W        W26619  10.110  23.876   0.188 -0.0568 -0.2193  0.1083
83708W        W26620  10.532  25.788  31.943  0.1189  0.0481  0.2338
83709W        W26621   9.142  21.698   1.356 -0.2722 -0.7757  0.2476
83710W        W26622   9.967  23.949   2.515  0.1277  0.1103 -0.0737
83711W        W26623   7.546  24.938   0.588 -0.0632 -0.1262  0.1399
83712W        W26624   8.736  22.339   2.608  0.1233  0.1830 -0.0216
83713W        W26625   8.274  21.221   4.133  0.0576  0.1235 -0.1876
83714W        W26626   5.561  22.800   0.541 -0.2483 -0.1189 -0.4283
83715W        W26627   8.805  21.956   2.286  0.1405 -0.0665 -0.1538
83716W        W26628  10.443  25.188   0.134  0.0247 -0.3242 -0.0518
83717W        W26629   9.945  24.344   0.105  0.0470 -0.0957  0.0040
83718W        W26630  10.006  23.604   2.992 -0.2281 -0.3962 -0.2113
83719W        W26631   8.625  23.743   3.404  0.1427 -0.0327  0.2762
83720W        W26632   8.151  21.142   3.265 -0.1162  0.1523 -0.2455
83721W        W26633   9.993  24.238   2.113 -0.3319 -0.1876  0.3342
83722W        W26634   9.068  24.292   2.859  0.3281 -0.2295 -0.0982
83723W        W26635  11.357  24.161  31.669 -0.3756  0.0954 -0.0951
83724W        W26636  11.365  22.844   2.288 -0.2695 -0.0033  0.0612
83725W        W26637  10.752  23.833   0.840 -0.0421  0.2106  0.1598
83726W        W26638   7.609  21.242   2.178 -0.0705  0.1035 -0.2693
83727W        W26639   8.570  24.476   3.025 -0.1605 -0.4538 -0.2264
83728W        W26640  12.128  24.142   1.500 -0.1992 -0.3403 -0.1092
83729W        W26641   8.201  21.839   2.409  0.1730 -0.0361  0.2258
83730W        W26642   9.299  22.343   1.370 -0.0873  0.2101  0.1631
83731W        W26643   9.984  23.722   0.738 -0.1762 -0.2596  0.1124
83732W        W26644   8.524  23.942   2.353  0.1353  0.0601  0.0103
83733W        W26645  10.215  22.232   1.800 -0.0434  0.0109 -0.0634
83734W        W26646   9.278  22.406   3.036 -0.0157 -0.0751 -0.1136
83735W        W26647  10.289  24.894   0.757  0.1895  0.0080 -0.2572
83736W        W26648  10.994  23.362   4.001  0.1270 -0.1410 -0.0299
83737W        W26649   8.315  22.887   1.340 -0.1757 -0.2071  0.0512
83738W        W26650  12.101  24.738   0.702  0.0275 -0.1776  0.0187
83739W        W26651   9.660  25.435   1.965  0.3424 -0.1603 -0.2136
83740W        W26652  10.792  23.941   3.315  0.0292  0.3174 -0.0860
83741W        W26653  10.353  23.937   2.802  0.1859 -0.2498 -0.0661
83742W        W26654  11.489  24.092   1.233 -0.2281  0.3019 -0.1315
83743W        W26655   9.029  21.162   2.139  0.5911  0.2368 -0.5272
83744W        W26656  10.760  23.314   1.080  0.0560 -0.0170  0.1242
83745W        W26657   8.715  22.522   1.603 -0.2619 -0.0604  0.2556
83746W        W26658  11.050  22.170   1.989  0.2049  0.0998  0.0780
83747W        W26659   9.248  23.427   2.339  0.0957  0.0915  0.1399
83748W        W26660   9.776  20.526   0.183 -0.3979  0.4395  0.1397
83749W        W26661   9.344  24.569   3.134 -0.2599 -0.2269 -0.1593
83750W        W26662  10.257  23.837   1.772 -0.0273 -0.0636  0.0021
83751W        W26663   7.886  24.963   6.444  0.0567  0.2030  0.2010
83752W        W26664   7.956  23.769   4.134 -0.2538 -0.1722  0.0666
83753W        W26665  10.037  21.251   1.711 -0.0760 -0.3159 -0.1823
83754W        W26666  10.494  23.651   6.113 -0.0742 -0.0128 -0.0831
83755W        W26667   7.854  21.532   4.181 -0.0503 -0.0069 -0.1443
83756W        W26668   9.469  25.756   4.671 -0.0376  0.4761  0.3121
83757W        W26669   8.867  20.677   6.207  0.2364 -0.0278 -0.1758
83758W        W26670   9.442  23.860   7.227 -0.0158  0.1453 -0.0871
83759W        W26671  10.458  24.367   5.332  0.3360 -0.0943 -0.1546
83760W        W26672   9.471  23.577   3.196  0.2557  0.1475  0.1753
83761W        W26673   9.404  21.321   5.527 -0.0411  0.1244 -0.2243
83762W        W26674   8.589  24.271   6.514 -0.2253  0.0766 -0.3043
83763W        W26675   9.433  22.002   4.241  0.2222  0.0628 -0.1496
83764W        W26676   7.359  22.128   5.200  0.0026  0.0849 -0.4140
83765W        W26677   9.251  22.632   6.139  0.0581  0.1682  0.0469
83766W        W26678   8.800  22.781   3.762 -0.1131  0.1804 -0.1972
83767W        W26679   8.298  22.868   7.446  0.0551 -0.2454 -0.0480
83768W        W26680   8.358  22.345   5.208  0.3297  0.1230  0.1525
83769W        W26681  10.315  25.455   5.500 -0.0866 -0.0775  0.0095
83770W        W26682   7.952  22.052   5.118  0.0061  0.1005  0.3954
83771W        W26683  10.208  21.040   6.825 -0.0337 -0.3192 -0.2073
83772W        W26684   9.407  24.437   4.160  0.1944 -0.1289 -0.0181
83773W        W26685   7.280  23.555   2.742 -0.1778  0.2375 -0.0385
83774W        W26686   6.838  22.348   4.418  0.0560 -0.0666 -0.2122
83775W        W26687   8.211  24.012   6.674  0.2316 -0.0999  0.0528
83776W        W26688   9.641  21.993   5.148  0.0799 -0.1841  0.1318
83777W        W26689   8.942  22.888   5.840 -0.1298  0.1886  0.1749
83778W        W26690   9.195  25.014   4.947  0.0016 -0.2343  0.1471
83779W        W26691   9.265  24.851   5.921 -0.1843  0.1320 -0.0357
83780W        W26692   8.720  22.870   7.212  0.0591 -0.2200  0.0152
83781W        W26693   8.072  25.542   4.985  0.0831 -0.0146  0.2027
83782W        W26694   8.256  25.776   4.617  0.2084  0.2483 -0.3514
83783W        W26695   9.689  25.376   4.893 -0.0127  0.3179  0.2884
83784W        W26696  11.179  23.542   5.671 -0.3954 -0.2047  0.2101
83785W        W26697  10.480  25.231   5.880 -0.0489 -0.1618  0.0520
83786W        W26698   9.295  25.102   5.461  0.1675  0.0993 -0.0659
83787W        W26699   8.124  24.988   4.125  0.1404  0.1215  0.1973
83788W        W26700   9.031  24.835   6.960 -0.1686  0.2832  0.2040
83789W        W26701   8.958  25.345   5.759  0.1495 -0.0122  0.0266
83790W        W26702   8.122  22.345   5.654  0.0055 -0.1399  0.0611
83791W        W26703   8.671  23.649   5.837  0.0160  0.2849 -0.0561
83792W        W26704   7.913  25.327   3.797  0.1281  0.0418 -0.0986
83793W        W26705   8.830  25.201   5.263 -0.2027 -0.0267  0.0929
83794W        W26706   8.767  25.157   8.019  0.0814 -0.0183  0.1212
83795W        W26707   7.792  24.719   4.443  0.0385 -0.1493 -0.0071
83796W        W26708   9.974  22.111   7.625 -0.1072  0.2853 -0.0160
83797W        W26709   8.645  24.494   2.504  0.0901  0.2140  0.2418
83798W        W26710   9.661  24.059   3.967 -0.6420  0.0197  0.0017
83799W        W26711   7.728  22.389   3.941 -0.0921 -0.0668 -0.0497
83800W        W26712  10.064  21.674   3.649 -0.1907  0.0964 -0.0739
83801W        W26713   7.577  21.636   5.297 -0.3098 -0.1145  0.0738
83802W        W26714  10.114  25.208   6.498  0.1986 -0.1142 -0.0225
83803W        W26715   8.788  23.198   4.550  0.1268 -0.1084 -0.3145
83804W        W26716  10.375  23.954   6.488 -0.0883  0.1580  0.0512
83805W        W26717   9.542  23.631   4.224 -0.1405 -0.0643 -0.2397
83806W        W26718   8.866  21.240   5.532 -0.2514 -0.0693  0.3715
83807W        W26719   7.951  25.118   5.865  0.1565 -0.0724 -0.0695
83808W        W26720   8.161  23.254   2.769  0.0505  0.0065 -0.2453
83809W        W26721  11.922  23.158   4.208 -0.0950 -0.1549  0.1072
83810W        W26722   9.867  23.651   4.817 -0.1509  0.2303  0.1907
83811W        W26723   9.165  23.978   4.222 -0.1227 -0.1593  0.0257
83812W        W26724   8.257  23.560   5.429  0.0591 -0.0469  0.0553
83813W        W26725   6.877  22.990   5.386  0.0265 -0.1533 -0.0889
83814W        W26726   7.870  23.213   5.408 -0.2695 -0.1413  0.0268
83815W        W26727   7.691  22.884   3.788 -0.2164 -0.2651  0.0722
83816W        W26728  10.952  24.707   6.491 -0.1013 -0.1013  0.0735
83817W        W26729   7.651  24.491   6.496 -0.0696  0.0509  0.0085
83818W        W26730  10.893  21.891   3.932 -0.2143 -0.0226  0.0362
83819W        W26731   9.090  23.953   5.060 -0.1614 -0.1519  0.1271
83820W        W26732   9.835  23.921   5.551 -0.1128  0.0125  0.0936
83821W        W26733  10.856  22.988   3.563  0.1790  0.0130 -0.1303
83822W        W26734  10.237  20.878   5.638 -0.1030 -0.0665 -0.1343
83823W        W26735  10.821  20.951   4.800  0.1052 -0.1453  0.0394
83824W        W26736   9.712  23.283   2.641  0.1442  0.1438  0.0685
83825W        W26737   8.473  23.031   5.833 -0.0091 -0.1792  0.1376
83826W        W26738  10.844  23.710   6.466  0.2162 -0.1685  0.2093
83827W        W26739  11.065  22.852   4.202 -0.1103  0.3070 -0.1532
83828W        W26740   9.039  25.508   4.906 -0.0087  0.2304 -0.1854
83829W        W26741   7.569  21.914   6.722 -0.1595 -0.2153 -0.3171
83830W        W26742   8.744  24.395   7.532 -0.1593 -0.1712 -0.1870
83831W        W26743   8.864  26.455   4.799  0.0595  0.1421 -0.1438
83832W        W26744   7.169  23.240   4.933 -0.1676  0.1363  0.1929
83833W        W26745   7.426  23.634   4.257 -0.0236 -0.4047  0.1278
83834W        W26746   6.982  23.992   6.957 -0.3515 -0.0720  0.1136
83835W        W26747   8.431  25.028   5.668 -0.0610  0.0109  0.0884
83836W        W26748  10.232  22.593   3.221 -0.2716  0.0365  0.0035
83837W        W26749   8.049  24.288   6.265 -0.1289  0.1728 -0.2950
83838W        W26750  10.031  22.074   4.055  0.0399  0.0299  0.0072
83839W        W26751   7.927  24.315   4.730 -0.0523  0.3397 -0.1885
83840W        W26752  10.896  23.726   4.706 -0.3817  0.1133 -0.0112
83841W        W26753  10.669  22.481   4.636 -0.1159 -0.3281 -0.1897
83842W        W26754  11.005  23.497   3.415  0.2334 -0.0109 -0.2194
83843W        W26755   5.533  23.676   4.912  0.3254 -0.2996  0.1525
83844W        W26756   8.057  21.764   5.493  0.2355  0.0855 -0.1767
83845W        W26757   8.650  21.726   5.342 -0.0778 -0.0214  0.0003
83846W        W26758   7.739  22.542   5.291 -0.0318  0.2320 -0.3158
83847W        W26759   9.904  22.396   5.792 -0.3003 -0.1343 -0.0681
83848W        W26760   7.637  22.864   4.507  0.1234  0.1663  0.0073
83849W        W26761   9.399  22.435   5.080 -0.2619 -0.1371  0.0127
83850W        W26762   8.262  22.953   4.530  0.0834 -0.0653  0.0112
83851W        W26763   7.969  23.153   4.149 -0.0338  0.1951 -0.3602
83852W        W26764  10.430  20.986   7.313  0.2152 -0.0908  0.0913
83853W        W26765   9.716  24.293   4.744 -0.4453 -0.0479 -0.2885
83854W        W26766  10.121  25.039   5.290  0.2828  0.2567 -0.0593
83855W        W26767  10.319  24.592   4.424  0.2482 -0.0055  0.1119
83856W        W26768   7.804  21.854   6.232 -0.1320  0.2442  0.0065
83857W        W26769   7.990  22.086   4.581  0.3972 -0.0545 -0.1133
83858W        W26770   8.385  25.489   5.963  0.1463  0.2985  0.1819
83859W        W26771   9.267  24.499   4.957 -0.1804  0.0673 -0.1043
83860W        W26772   8.889  22.304   3.980  0.1972  0.1312 -0.0857
83861W        W26773  10.622  25.310   5.102  0.0634  0.0864  0.0391
83862W        W26774  10.045  22.667   4.031  0.0479 -0.1024  0.0772
83863W        W26775   7.592  24.588   5.560 -0.1289 -0.0390  0.0306
83864W        W26776   9.768  20.803   6.581 -0.1476 -0.1245 -0.3196
83865W        W26777   9.116  24.879   6.477 -0.0883 -0.1679 -0.1782
83866W        W26778   9.139  21.625   5.170  0.1512  0.1582 -0.3335
83867W        W26779   8.311  21.703   3.355  0.0269 -0.0817 -0.4917
83868W        W26780   9.879  25.447   4.353 -0.2553 -0.0168 -0.0827
83869W        W26781   7.917  26.579   4.938 -0.0502  0.0116 -0.2372
83870W        W26782   6.694  23.138   4.928  0.0282 -0.3824  0.1825
83871W        W26783   9.423  23.928   6.065  0.3077 -0.0087 -0.0889
83872W        W26784  10.162  23.179   4.906  0.1733  0.1140  0.1175
83873W        W26785   7.228  25.076   6.862  0.0640  0.0250 -0.1460
83874W        W26786  10.091  23.226   6.669 -0.0074  0.0437  0.0553
83875W        W26787   9.247  22.891   4.628 -0.0120  0.1269 -0.1218
83876W        W26788   7.605  23.868   4.658 -0.1359 -0.3079 -0.1771
83877W        W26789  10.466  21.803   5.404  0.0663  0.0684 -0.2210
83878W        W26790   9.692  22.225   4.693 -0.1441 -0.1171  0.2578
83879W        W26791   9.473  23.459   6.308 -0.2241  0.1194 -0.3780
83880W        W26792  10.797  23.880   3.971 -0.0564 -0.2909 -0.1862
83881W        W26793  11.676  22.241   3.570 -0.1237 -0.0608  0.2592
83882W        W26794   8.653  21.811   2.935  0.1025 -0.1233  0.0989
83883W        W26795   7.767  24.684   6.077 -0.0777 -0.0719 -0.1310
83884W        W26796   9.345  23.132   5.420 -0.1379 -0.2075  0.2260
83885W        W26797   9.216  24.614   5.475  0.0020 -0.2040  0.1844
83886W        W26798   8.009  22.250   3.149 -0.3492 -0.1136 -0.0103
83887W        W26799  11.326  23.034   3.798  0.0732  0.1597  0.0050
83888W        W26800   6.993  24.140   4.754  0.3825 -0.1218 -0.2173
83889W        W26801   9.824  24.171   6.951 -0.0285  0.1234  0.0534
83890W        W26802   9.753  24.830   5.567  0.0408 -0.1165 -0.0414
83891W        W26803   7.718  21.012   2.966  0.3543 -0.1181  0.3929
83892W        W26804   8.747  22.616   2.103  0.4392  0.1704  0.0184
83893W        W26805   9.184  22.422   3.517  0.0747 -0.2144 -0.2274
83894W        W26806   7.228  23.941   3.066  0.2591 -0.0936  0.1633
83895W        W26807  10.174  22.690   4.921 -0.1032  0.2762 -0.1296
83896W        W26808   9.681  20.384   4.781  0.0020 -0.1827  0.1903
83897W        W26809   9.066  21.515   5.842 -0.0944 -0.0835 -0.0646
83898W        W26810  10.445  24.338   5.840 -0.3886  0.3020 -0.1059
83899W        W26811   9.441  23.068   3.277 -0.2134  0.0784 -0.1027
83900W        W26812   8.651  24.577   5.556 -0.0687 -0.0954 -0.0145
83901W        W26813   8.164  23.175   3.709  0.0486  0.1552 -0.1064
83902W        W26814   8.885  20.783   5.243  0.0252 -0.0349 -0.2784
83903W        W26815   7.582  23.554   5.065  0.2574  0.1368 -0.0434
83904W        W26816   7.676  24.719   6.934  0.0780  0.0174 -0.2979
83905W        W26817   9.079  23.595   6.826  0.2991 -0.1944  0.0898
83906W        W26818   9.740  22.951   4.831  0.0178 -0.0529 -0.0443
83907W        W26819   9.520  22.218   6.413  0.1215  0.1193  0.2871
83908W        W26820   9.474  21.147   4.524  0.1516 -0.3364 -0.0542
83909W        W26821   8.357  24.306   3.472  0.0931  0.0287 -0.2247
83910W        W26822   8.595  22.720   5.446  0.0933 -0.3124 -0.1339
83911W        W26823   7.420  21.465   6.348 -0.1745  0.1650 -0.1118
83912W        W26824   7.288  24.819   5.890 -0.2796 -0.1620  0.0737
83913W        W26825   8.639  23.262   3.654  0.0634 -0.0755 -0.1647
83914W        W26826   9.020  24.433   6.643  0.2384 -0.1468  0.0734
83915W        W26827   8.883  24.388   4.168 -0.1053  0.1048  0.0155
83916W        W26828  10.265  22.975   6.262 -0.1382 -0.0855 -0.1249
83917W        W26829   8.717  24.119   3.787 -0.2336 -0.2589  0.0499
83918W        W26830   8.182  21.751   3.891 -0.0795 -0.2801 -0.3050
83919W        W26831   8.197  23.924   4.516 -0.0116 -0.1911  0.0245
83920W        W26832   8.658  22.054   3.539 -0.2332  0.0609  0.0435
83921W        W26833  10.449  23.504   4.183 -0.3058  0.2380 -0.2628
83922W        W26834   7.635  24.229   5.878  0.2653 -0.1031  0.0104
83923W        W26835   9.145  20.952   5.903  0.0209  0.0254 -0.2728
83924W        W26836   7.372  25.394   6.084  0.3650 -0.1254  0.0083
83925W        W26837   9.639  23.032   6.507  0.1021  0.0689 -0.1076
83926W        W26838   9.796  21.321   3.283 -0.1302 -0.2992 -0.1790
83927W        W26839   9.583  24.986   6.431  0.3474  0.0064 -0.0645
83928W        W26840   7.643  23.161   7.785 -0.2420 -0.0411 -0.6041
83929W        W26841   6.503  23.296   2.977  0.0114 -0.4056  0.0435
83930W        W26842  10.580  22.918   5.384  0.0569  0.2394  0.2776
83931W        W26843   7.244  22.402   5.634  0.1000 -0.1010 -0.1804
83932W        W26844   8.296  25.566   4.114 -0.2684 -0.1696 -0.0826
83933W        W26845   9.723  23.706   6.745  0.4506  0.1364  0.0610
83934W        W26846   8.200  22.685   3.944 -0.2734  0.1458  0.1227
83935W        W26847   8.082  24.798   4.837  0.2524  0.1743  0.3472
83936W        W26848   7.755  22.781   7.184  0.2631 -0.2199 -0.0989
83937W        W26849  10.578  23.793   7.202 -0.0360  0.3513 -0.0481
83938W        W26850   7.449  21.571   5.837 -0.2241 -0.0281  0.0862
83939W        W26851   7.636  22.041   5.607 -0.2487 -0.1861  0.2994
83940W        W26852   8.555  22.108   5.588 -0.0335 -0.1848  0.0299
83941W        W26853  10.056  24.008   5.978 -0.2062  0.1381  0.0452
83942W        W26854   8.935  22.299   6.341 -0.2036 -0.1736  0.1816
83943W        W26855   8.273  24.285   7.700 -0.2503  0.0655  0.1525
83944W        W26856   9.243  21.984   4.763 -0.2975 -0.2257 -0.0319
83945W        W26857  10.520  23.985   4.445  0.0769  0.1221 -0.0179
83946W        W26858   9.198  21.854   6.623 -0.0128  0.0124 -0.1573
83947W        W26859   8.416  23.298   4.979 -0.1876  0.0974  0.1251
83948W        W26860   6.513  24.835   4.998  0.1306  0.0552 -0.0469
83949W        W26861   9.253  23.247   4.283 -0.3231  0.0287  0.0653
83950W        W26862   8.956  22.348   5.844  0.3507 -0.1777 -0.1158
83951W        W26863   8.751  24.642   5.075  0.0996 -0.0761  0.2627
83952W        W26864   8.317  23.464   4.456 -0.3306 -0.0706  0.0559
83953W        W26865   8.464  25.206   4.937  0.0518 -0.1237  0.0696
83954W        W26866  11.152  22.029   3.488  0.0193  0.0580 -0.1242
83955W        W26867  11.223  24.941   4.718  0.1583  0.0382 -0.4008
83956W        W26868   9.250  22.401   4.458  0.5905 -0.0350  0.0497
83957W        W26869  10.736  22.238   6.520  0.1967 -0.0098  0.0732
83958W        W26870  10.405  23.611   4.701  0.0145  0.0957  0.1688
83959W        W26871   9.530  22.111   6.933 -0.1891  0.0114  0.2107
83960W        W26872   7.998  21.377   6.410  0.1309  0.0321 -0.0902
83961W        W26873  10.567  23.862   5.119  0.0060  0.2156 -0.4487
83962W        W26874   7.756  23.419   4.580  0.2664 -0.0819 -0.0274
83963W        W26875  10.554  25.222   7.764  0.1297  0.0735  0.0077
83964W        W26876   8.588  24.639   7.893  0.0174  0.0464 -0.2094
83965W        W26877  10.126  21.867   4.634 -0.2089  0.1855  0.1789
83966W        W26878   9.303  21.046   3.070  0.2991 -0.1707  0.1028
83967W        W26879   8.784  24.635   6.089 -0.2225  0.2058  0.1800
83968W        W26880  10.673  23.483   5.570  0.4288 -0.1158 -0.2136
83969W        W26881   9.776  23.216   4.407  0.2703  0.1061 -0.1831
83970W        W26882  10.835  24.528   5.616 -0.0773 -0.0436 -0.0854
83971W        W26883   8.629  24.163   5.197 -0.0761  0.2347  0.1111
83972W        W26884   9.944  21.385   4.208 -0.1781  0.1478  0.1362
83973W        W26885   9.994  23.938   4.404  0.1202 -0.0443 -0.2743
83974W        W26886   8.978  23.400   4.988  0.3007 -0.1295  0.0769
83975W        W26887   9.058  22.257   6.924 -0.1140 -0.2415 -0.5430
83976W        W26888  10.955  23.026   5.684  0.0893  0.3671  0.3123
83977W        W26889   9.786  22.588   5.339  0.1449  0.0459  0.2957
83978W        W26890   9.894  21.550   6.073 -0.0431 -0.1476 -0.1900
83979W        W26891   9.053  21.939   5.537 -0.2885 -0.2054  0.0691
83980W        W26892   9.352  24.010   6.516  0.0822 -0.0359  0.2693
83981W        W26893   8.301  22.894   6.314 -0.2618 -0.0010 -0.1301
83982W        W26894  10.766  24.781   5.157 -0.3156  0.1726  0.0052
83983W        W26895  12.214  22.378   3.649 -0.0580 -0.1137  0.0515
83984W        W26896   9.991  23.629   6.295  0.1472 -0.2773 -0.0605
83985W        W26897   9.700  22.863   5.770 -0.2057 -0.1361  0.0237
83986W        W26898   8.138  22.194   3.670  0.0887 -0.1516 -0.0149
83987W        W26899   7.662  22.515   5.928  0.3354  0.1648  0.1183
83988W        W26900  10.092  23.074   5.531 -0.0518  0.0579 -0.2716
83989W        W26901   9.137  23.268   2.815 -0.1355  0.1174  0.2335
83990W        W26902   8.663  23.768   6.562 -0.1538  0.0926  0.0893
83991W        W26903   7.420  24.424   3.921 -0.2409  0.3916  0.2034
83992W        W26904   9.332  24.058   5.481  0.2895 -0.1326  0.1153
83993W        W26905   9.023  22.843   3.316 -0.1291 -0.0003  0.0755
83994W        W26906   7.186  22.667   5.145 -0.0436 -0.1336  0.0671
83995W        W26907   7.483  26.415   6.956  0.3095 -0.2415 -0.2095
83996W        W26908   7.933  22.898   2.530  0.0300 -0.3636 -0.2740
83997W        W26909   9.482  23.888   4.635 -0.0375 -0.0542  0.2538
83998W        W26910   8.843  24.095   5.637  0.3094 -0.0845  0.0049
83999W        W26911  10.313  24.473   6.299 -0.1394 -0.1703  0.2376
84000W        W26912  11.091  21.365   3.422  0.0376  0.2284  0.2484
84001W        W26913   9.736  21.812   6.566 -0.0713 -0.1412  0.0586
84002W        W26914   6.859  26.150   4.471  0.0241 -0.1509 -0.0523
84003W        W26915   9.971  21.356   5.554 -0.3934  0.0753  0.1271
84004W        W26916   8.392  25.518   5.469  0.0653 -0.0328 -0.0905
84005W        W26917   7.629  22.956   4.988  0.0964  0.0291 -0.1889
84006W        W26918   7.637  23.369   3.857  0.0764 -0.3579  0.3071
84007W        W26919   8.905  22.356   5.333 -0.0306 -0.0050  0.2141
84008W        W26920   9.853  21.305   6.548  0.0146  0.4973  0.2655
84009W        W26921   9.312  23.223   5.933  0.1811 -0.1345  0.2092
84010W        W26922  10.044  24.407   5.606  0.1513 -0.4265  0.0398
84011W        W26923   8.133  24.581   6.639 -0.1534 -0.0428 -0.0915
84012W        W26924   7.770  24.056   5.220  0.2621  0.0934 -0.1185
84013W        W26925   9.438  24.473   6.882  0.1574 -0.2686 -0.0344
84014W        W26926  11.354  23.398   4.771  0.3225  0.0494 -0.0224
84015W        W26927   9.003  23.673   4.560  0.3247  0.4142 -0.1229
84016W        W26928   6.667  23.818   5.953 -0.0375 -0.2542  0.1496
84017W        W26929   9.739  24.629   6.153  0.2516  0.4081 -0.0924
84018W        W26930   8.999  23.578   6.205 -0.2791  0.2994 -0.1169
84019W        W26931  11.146  21.395   2.204  0.2763  0.3108  0.1705
84020W        W26932   8.084  23.724   2.679 -0.2981 -0.1289  0.2673
84021W        W26933   7.595  25.400   6.621  0.2380  0.2195 -0.0698
84022W        W26934   7.119  23.773   5.175  0.0496  0.0978  0.0418
84023W        W26935   8.542  24.801   3.381  0.1429 -0.0999  0.2321
84024W        W26936  10.020  23.608   4.001  0.0546 -0.0159  0.1599
84025W        W26937   9.864  24.400   4.293  0.2571 -0.3087  0.0359
84026W        W26938  10.527  24.941   4.683 -0.0311 -0.2018 -0.0813
84027W        W26939   8.725  22.056   4.987 -0.4169  0.1911  0.2336
84028W        W26940   8.930  24.693   4.624  0.0323 -0.3216  0.1026
84029W        W26941   7.866  25.768   4.273 -0.0086  0.0022  0.1443
84030W        W26942  10.367  23.856   3.689 -0.0237  0.2625 -0.0435
84031W        W26943   7.758  24.228   4.238  0.1038  0.0320  0.2215
84032W        W26944   9.588  25.031   6.957  0.0733  0.0358 -0.0678
84033W        W26945  10.017  21.593   2.928 -0.2943 -0.1382 -0.0727
84034W        W26946   9.116  23.663   5.638 -0.3253  0.1310  0.0085
84035W        W26947   9.329  21.499   3.519  0.1499  0.4925  0.3756
84036W        W26948   8.122  24.535   7.164 -0.1651  0.3121 -0.1335
84037W        W26949   8.271  23.800   6.039 -0.0434 -0.1995 -0.0482
84038W        W26950   8.009  22.880   3.004  0.2370  0.2596 -0.3608
84039W        W26951   7.724  24.889   7.498 -0.1433  0.0869 -0.1063
84040W        W26952   9.981  21.909   5.599 -0.1185 -0.3741 -0.2218
84041W        W26953   7.856  25.507   6.217  0.3981 -0.0427  0.1151
84042W        W26954   9.998  25.025   4.696  0.0657  0.1813 -0.0529
84043W        W26955   7.193  22.025   3.966 -0.2040  0.0649 -0.1345
84044W        W26956   8.840  22.782   6.322  0.0660  0.3208  0.0825
84045W        W26957  12.512  23.296   5.382  0.3332  0.2194 -0.2466
84046W        W26958   9.462  25.280   4.148  0.1941  0.2914 -0.1762
84047W        W26959   7.830  23.180   6.873 -0.0605  0.0421  0.1382
84048W        W26960   7.092  23.911   3.769  0.0192  0.0600 -0.0740
84049W        W26961   8.395  26.001   6.097  0.1573 -0.0583  0.2973
84050W        W26962   9.823  25.856   5.753  0.0706  0.0223 -0.0010
84051W        W26963   7.555  21.402   3.336  0.1416  0.0563  0.0736
84052W        W26964  11.841  22.199   4.132 -0.0952 -0.0741 -0.3292
84053W        W26965   9.101  23.137   6.495  0.2228  0.2999  0.1145
84054W        W26966   9.751  20.934   5.978  0.1739 -0.0504 -0.1857
84055W        W26967   8.166  22.873   5.241 -0.2970 -0.3310  0.4168
84056W        W26968  10.648  21.669   3.503  0.2563  0.1462  0.1978
84057W        W26969   8.447  22.064   6.089  0.1886 -0.0074 -0.2853
84058W        W26970   7.248  23.040   8.021  0.1898 -0.1707 -0.0438
84059W        W26971   9.449  22.959   2.334  0.3789 -0.0089 -0.1175
84060W        W26972   9.897  24.192   6.458 -0.1899  0.2839 -0.1521
84061W        W26973  10.347  22.796   3.677 -0.1277 -0.1288  0.3369
84062W        W26974   9.481  25.766   5.141  0.0334 -0.3652 -0.1456
84063W        W26975   7.168  21.814   5.503 -0.1339  0.0616  0.0801
84064W        W26976   8.817  21.600   3.454 -0.2277 -0.0572  0.1274
84065W        W26977   7.209  22.991   6.375  0.0878  0.1933 -0.0039
84066W        W26978   8.926  24.194   6.155  0.2206  0.1276 -0.0698
84067W        W26979  10.908  25.025   5.656 -0.1651  0.1838  0.2124
84068W        W26980   8.060  23.711   4.998 -0.0628  0.2381 -0.0931
84069W        W26981  11.548  23.889   5.602 -0.2137 -0.2810 -0.0576
84070W        W26982  10.330  23.923   5.565 -0.2393 -0.1890  0.0048
84071W        W26983   9.949  24.394   3.722  0.0705  0.3282  0.1788
84072W        W26984   9.574  23.799   5.135 -0.0297 -0.0656 -0.1932
84073W        W26985  10.498  25.436   4.605 -0.1000 -0.2943 -0.1588
84074W        W26986   7.609  23.176   5.997 -0.0660  0.1080 -0.0950
84075W        W26987   9.105  25.655   5.388 -0.1014  0.0530  0.0688
84076W        W26988  10.153  24.939   6.085 -0.1178 -0.1040  0.2096
84077W        W26989   9.003  21.023   4.684  0.0721  0.1514 -0.3317
84078W        W26990   8.475  24.297   5.936  0.1627  0.1219 -0.3071
84079W        W26991   8.442  27.148   4.515  0.0501  0.1598  0.0477
84080W        W26992  11.776  21.585   4.708 -0.1385 -0.1903 -0.1111
84081W        W26993   9.408  19.895   5.430 -0.0860 -0.1181  0.1667
84082W        W26994   9.190  24.227   3.770 -0.1364  0.1237  0.0639
84083W        W26995  10.265  21.593   6.439  0.0429 -0.1068 -0.2177
84084W        W26996   9.188  25.285   6.242 -0.0465  0.1007 -0.0575
84085W        W26997   8.762  25.657   6.207  0.0352 -0.0431 -0.0087
84086W        W26998   8.185  22.735   3.440 -0.1936 -0.0116 -0.0089
84087W        W26999   8.615  24.853   6.554 -0.0985 -0.0365  0.0306
84088W        W27000   8.808  23.292   5.466  0.0413  0.0146  0.3152
84089W        W27001   9.329  24.087   3.279  0.0446 -0.1966 -0.0557
84090W        W27002  10.138  23.533   5.788  0.2886 -0.0460  0.1476
84091W        W27003   9.769  23.296   5.191 -0.0187  0.0018  0.0820
84092W        W27004  10.939  24.234   5.182  0.1938 -0.0985  0.0606
84093W        W27005   9.596  21.474   5.005 -0.0876 -0.3089 -0.0050
84094W        W27006  10.935  22.072   4.412  0.0395 -0.2198  0.2253
84095W        W27007  10.431  21.527   3.957  0.0800 -0.1250  0.1315
84096W        W27008   8.217  24.062   5.457 -0.2479  0.3609 -0.1785
84097W        W27009   7.798  23.409   2.484  0.1258  0.0849 -0.0940
84098W        W27010   9.586  24.858   4.511  0.0108 -0.0447 -0.0316
84099W        W27011   8.617  23.268   6.259  0.1966  0.2117 -0.4748
84100W        W27012   9.403  21.383   6.254  0.0792 -0.0204 -0.0321
84101W        W27013   8.060  21.450   5.913  0.1950  0.3020 -0.0470
84102W        W27014   7.294  24.110   4.290 -0.0322  0.1725 -0.1096
84103W        W27015   8.558  22.774   4.896  0.3608 -0.0619 -0.0344
84104W        W27016  10.092  24.057   5.081 -0.0676  0.0327  0.1079
84105W        W27017   7.117  21.782   4.995 -0.0324 -0.2660  0.5640
84106W        W27018   7.538  22.413   4.793  0.0755 -0.1805 -0.2097
84107W        W27019  10.133  23.599   5.267 -0.2461 -0.1440  0.1114
84108W        W27020  11.919  23.764   3.375  0.0892 -0.1117  0.1629
84109W        W27021   9.268  22.652   5.530 -0.0789  0.2780  0.0417
84110W        W27022  12.270  23.867   6.995 -0.0290  0.0166  0.2667
84111W        W27023   8.572  23.767   4.844  0.1010 -0.0028 -0.0294
84112W        W27024   9.810  22.682   6.272  0.0115  0.0728  0.1708
84113W        W27025   8.344  21.235   5.497 -0.0493 -0.0975  0.1667
84114W        W27026   7.768  21.954   2.647  0.2461 -0.0034  0.0846
84115W        W27027   9.516  22.195   5.617  0.2896  0.0438  0.1611
84116W        W27028   9.645  24.866   5.078  0.1141  0.3377  0.3593
84117W        W27029   9.817  26.108   4.814  0.1944 -0.0974 -0.0480
84118W        W27030   8.513  23.088   4.112  0.1815 -0.1568  0.0426
84119W        W27031   9.910  26.539   6.665 -0.0892 -0.2467  0.0419
84120W        W27032   6.772  22.973   7.226  0.0012 -0.1481 -0.1251
84121W        W27033   9.661  22.722   4.330  0.2069 -0.0589  0.1013
84122W        W27034   8.695  25.173   6.167 -0.0431  0.1728 -0.1727
84123W        W27035  12.128  23.748   4.776  0.0714 -0.1658 -0.1498
84124W        W27036  10.639  22.319   5.283  0.2012 -0.0914  0.0601
84125W        W27037   8.717  23.717   5.316 -0.0395 -0.2815 -0.3339
84126W        W27038   7.728  21.428   6.775  0.1242  0.0723  0.1574
84127W        W27039   8.323  26.002   7.956  0.0135 -0.2762 -0.1965
84128W        W27040  10.727  24.191   6.202  0.1679 -0.1556 -0.1768
84129W        W27041   8.938  22.455   4.824  0.2544 -0.5406 -0.1075
84130W        W27042   9.059  20.180   4.106 -0.1136  0.0596 -0.3241
84131W        W27043  10.120  24.615   4.961  0.1255  0.2103  0.1234
84132W        W27044   7.309  23.284   5.451 -0.2046 -0.1215 -0.1429
84133W        W27045   9.212  22.726   4.040 -0.0594  0.0358 -0.0338
84134W        W27046   9.237  22.001   6.009  0.0135  0.0665 -0.2337
84135W        W27047   9.648  23.423   5.653 -0.0929  0.1374  0.0371
84136W        W27048   9.891  24.594   7.230 -0.0756 -0.1773 -0.2159
84137W        W27049   8.713  22.724   4.378  0.2381  0.0695 -0.2239
84138W        W27050  10.262  23.107   4.427  0.1405  0.3686 -0.1175
84139W        W27051   8.761  25.340   6.615 -0.2048 -0.0728  0.2362
84140W        W27052  10.491  25.439   6.775 -0.1172 -0.0741 -0.0137
84141W        W27053   9.196  25.796   5.934 -0.1821  0.1767 -0.4454
84142W        W27054   9.913  24.694   6.611 -0.2368  0.0354  0.0636
84143W        W27055   7.197  21.005   6.524 -0.0334  0.0008 -0.4403
84144W        W27056   9.043  22.877   5.078  0.2928 -0.2923 -0.1396
84145W        W27057   9.431  23.438   4.795 -0.2315  0.1601 -0.0618
84146W        W27058  10.332  22.580   5.595  0.0712 -0.2110 -0.3350
84147W        W27059   8.378  20.289   4.701  0.2140  0.2571 -0.1033
84148W        W27060  10.495  21.367   5.020  0.0095 -0.4398 -0.1180
84149W        W27061   9.037  26.676   5.810 -0.2120  0.1009 -0.1879
84150W        W27062   9.585  24.337   5.772 -0.1776 -0.0524  0.0111
84151W        W27063   7.391  22.012   9.688  0.0120  0.1455 -0.0496
84152W        W27064   7.445  23.940   7.161 -0.2671  0.1271  0.0489
84153W        W27065   9.550  22.352   7.850  0.0721 -0.1190 -0.1280
84154W        W27066   9.110  23.095   6.994 -0.0434 -0.0892 -0.2916
84155W        W27067   7.574  21.482   7.674 -0.0085  0.0631 -0.0305
84156W        W27068   9.191  25.411   9.895  0.1762  0.0057 -0.0504
84157W        W27069  10.412  22.651   9.349  0.1741  0.1088 -0.3141
84158W        W27070  10.510  25.192   9.144  0.1666  0.0542 -0.0012
84159W        W27071   9.021  23.575   8.062  0.0838 -0.0648 -0.0335
84160W        W27072   7.664  25.756   9.994 -0.0005  0.0088  0.1258
84161W        W27073   8.822  21.771   6.339 -0.3272  0.1865 -0.1132
84162W        W27074   6.805  21.748   7.975  0.0776  0.0078 -0.0562
84163W        W27075  10.556  21.671   9.416 -0.1639  0.0865  0.1582
84164W        W27076   8.118  23.888   9.126  0.1977  0.2703 -0.0816
84165W        W27077   4.465  23.268   9.746  0.0006  0.0879 -0.2085
84166W        W27078   8.101  23.307   7.667  0.2112 -0.4292 -0.0714
84167W        W27079   8.604  26.038   8.440  0.2559 -0.2752 -0.0098
84168W        W27080   8.430  20.967   9.408  0.1252  0.0562 -0.0728
84169W        W27081   9.219  25.797   6.974  0.0380  0.1109  0.1899
84170W        W27082   7.220  23.535   6.114  0.0273  0.0109 -0.0729
84171W        W27083   7.474  23.338   8.958  0.2999 -0.1548  0.2318
84172W        W27084   8.381  22.367   9.374  0.0706 -0.0229 -0.4957
84173W        W27085   9.792  21.033   7.624 -0.0115  0.0627  0.0374
84174W        W27086  11.003  24.232   8.763 -0.0049  0.1243 -0.1382
84175W        W27087   8.805  25.605   9.012 -0.1836  0.2962 -0.1168
84176W        W27088   9.213  25.834   9.463 -0.2302  0.2120 -0.1246
84177W        W27089   7.183  25.410   9.612  0.3727  0.1401  0.0837
84178W        W27090   7.012  26.225   9.050 -0.1250 -0.2597  0.0354
84179W        W27091   9.653  24.924   8.167  0.2976  0.1769  0.1063
84180W        W27092  10.237  24.777   7.929 -0.2515  0.3598 -0.1733
84181W        W27093   8.439  25.673   7.516 -0.0759  0.5532 -0.3795
84182W        W27094  10.306  23.132   9.203  0.0758  0.0452 -0.0536
84183W        W27095   9.082  23.789   9.094  0.1148  0.1115  0.0558
84184W        W27096   8.049  24.827   7.940  0.0438  0.1014 -0.3350
84185W        W27097   9.150  24.806   8.186  0.0649 -0.0490 -0.3232
84186W        W27098   6.738  24.458   9.615  0.1595  0.3894  0.0227
84187W        W27099   7.865  25.757   8.077  0.4487  0.0028  0.3041
84188W        W27100   9.647  23.067   7.535  0.1065  0.5204  0.3624
84189W        W27101   8.606  21.652   7.286 -0.0158 -0.0035  0.0313
84190W        W27102   9.352  22.656   6.701  0.1881  0.0259  0.0599
84191W        W27103   8.141  20.492   9.237  0.0824  0.1370  0.0699
84192W        W27104   8.431  24.469   8.770 -0.1105  0.1324 -0.2050
84193W        W27105   8.123  21.485   9.856  0.0959 -0.3587 -0.3042
84194W        W27106   8.632  23.110   6.712  0.1283  0.0272 -0.1834
84195W        W27107   9.133  22.841   9.825 -0.0334  0.0686 -0.5679
84196W        W27108   9.038  22.551   9.315 -0.0568  0.0927 -0.0693
84197W        W27109   7.763  23.404   8.587  0.3312 -0.0304  0.1706
84198W        W27110   8.568  25.243   7.151 -0.0735 -0.1695 -0.1122
84199W        W27111  11.343  24.700   9.732 -0.4035 -0.1091  0.2104
84200W        W27112   9.667  25.614   6.946  0.4554  0.0322 -0.2338
84201W        W27113   8.963  23.140   8.907  0.3023 -0.1687  0.2249
84202W        W27114   6.362  22.184   7.874 -0.2785 -0.1257  0.2631
84203W        W27115  11.268  22.888   7.137 -0.1317  0.0901 -0.0163
84204W        W27116   8.285  24.416   9.284 -0.1073 -0.1011  0.4324
84205W        W27117  10.465  25.107   8.273 -0.3008  0.1866 -0.1966
84206W        W27118   8.991  23.620   7.348 -0.1231  0.0455  0.1341
84207W        W27119   9.370  21.453   8.470 -0.4142 -0.2260  0.3574
84208W        W27120   9.442  23.936   9.504  0.0421 -0.1445 -0.0113
84209W        W27121   7.672  24.353   7.316 -0.0178 -0.3060 -0.0622
84210W        W27122   8.488  24.134   7.209 -0.2848  0.0890 -0.2385
84211W        W27123  12.944  23.883   9.927 -0.1584  0.2030  0.2824
84212W        W27124  10.919  24.595   7.109 -0.0795  0.0097  0.0355
84213W        W27125   7.970  25.317   9.264  0.3198  0.0808  0.1387
84214W        W27126   8.453  26.422   7.643  0.1914 -0.1747 -0.0931
84215W        W27127   7.091  24.926   9.356 -0.3130 -0.0755 -0.1179
84216W        W27128   7.517  24.065   9.906  0.3594 -0.1431 -0.1365
84217W        W27129   6.072  23.571   8.093 -0.0343  0.0119 -0.2533
84218W        W27130   9.038  23.898   9.812 -0.0188 -0.1452  0.0457
84219W        W27131  10.727  22.622   8.634 -0.0261  0.0847 -0.1719
84220W        W27132  10.026  22.362   9.179 -0.1340 -0.1243  0.0776
84221W        W27133   7.698  24.492   9.628 -0.1044 -0.0530  0.4144
84222W        W27134  10.686  24.414   7.684  0.0196  0.0383 -0.0196
84223W        W27135  10.674  22.684   7.315 -0.1513  0.1849 -0.1126
84224W        W27136   9.816  25.688   7.448 -0.1246  0.4316 -0.0146
84225W        W27137   6.278  22.415  10.064  0.5834  0.2918 -0.0780
84226W        W27138   7.886  22.253   6.900 -0.0046  0.0192 -0.0277
84227W        W27139   7.566  22.868   9.171 -0.1902 -0.1204 -0.0433
84228W        W27140   7.950  22.310   7.405  0.0461  0.0520 -0.0408
84229W        W27141  10.262  23.215   7.503  0.0602 -0.3316 -0.1768
84230W        W27142   8.396  23.075  10.000  0.0327 -0.0490 -0.1766
84231W        W27143   6.750  24.354   7.930 -0.1148  0.0457 -0.0234
84232W        W27144   9.786  24.722   7.698  0.3321 -0.0635  0.0893
84233W        W27145  11.832  27.409  12.404 -0.1946  0.1754  0.0236
84234W        W27146  10.036  24.977   9.269  0.3369  0.0669  0.2104
84235W        W27147   8.796  22.133   9.493 -0.1521  0.0515 -0.0348
84236W        W27148   7.787  22.797   6.439  0.1457  0.1314 -0.1300
84237W        W27149   6.849  23.553   9.918 -0.1492 -0.2443  0.1705
84238W        W27150   9.499  23.720   8.138 -0.2579 -0.1181  0.1999
84239W        W27151   8.510  23.551   7.991  0.1653 -0.2837 -0.1192
84240W        W27152   9.171  25.124   8.668 -0.4384  0.0840 -0.2569
84241W        W27153   8.659  23.412   8.608  0.3804  0.0114 -0.0456
84242W        W27154   8.934  23.506   9.482  0.1590 -0.3253  0.3832
84243W        W27155   8.563  23.561   9.131  0.1215  0.2283  0.3491
84244W        W27156   7.081  24.062   6.157 -0.1771 -0.1375 -0.1255
84245W        W27157   9.180  25.386   8.175  0.1340 -0.2462 -0.5052
84246W        W27158   7.646  24.712   8.270  0.1824  0.1314 -0.1416
84247W        W27159   8.150  23.121   8.568  0.0622 -0.0580  0.1360
84248W        W27160   9.182  24.274   8.226  0.2039 -0.1688 -0.1588
84249W        W27161   9.817  22.901   9.088  0.0962  0.1228 -0.1949
84250W        W27162   8.088  23.478   8.237  0.0087  0.2297  0.0848
84251W        W27163   9.495  21.915   8.730 -0.2938  0.0170 -0.0392
84252W        W27164   9.604  22.976   7.025  0.3267 -0.1376 -0.0390
84253W        W27165   9.963  23.807   7.368 -0.1585  0.1210 -0.0139
84254W        W27166   9.476  23.152   8.071  0.0843 -0.3048 -0.0622
84255W        W27167   7.971  22.924   5.794 -0.2051  0.5001 -0.1706
84256W        W27168   8.843  23.855   8.451 -0.3841 -0.0424  0.1971
84257W        W27169   8.785  24.159   9.258 -0.2052 -0.0921 -0.0371
84258W        W27170   8.925  24.054   6.913  0.0582  0.1610  0.0591
84259W        W27171  12.395  24.039   8.703  0.1457  0.0682  0.1015
84260W        W27172   7.980  23.357   9.028 -0.3009  0.1382  0.1555
84261W        W27173   9.575  24.277   7.448 -0.0461  0.2500  0.1122
84262W        W27174   9.584  21.019   9.865 -0.0450  0.0820 -0.0717
84263W        W27175   8.614  23.278   7.508 -0.0212  0.1174 -0.0046
84264W        W27176   8.313  21.857   9.281 -0.0439 -0.0433  0.1619
84265W        W27177   8.383  26.099   7.273 -0.0965  0.1841 -0.1098
84266W        W27178   9.565  21.483   9.689 -0.0034 -0.1543 -0.1278
84267W        W27179   9.214  22.162   8.368  0.0079 -0.0980 -0.0740
84268W        W27180  10.926  23.512   6.914  0.0428  0.2073  0.2029
84269W        W27181  10.243  24.077   9.391  0.0033  0.2461 -0.0074
84270W        W27182   7.366  24.086   6.655  0.1946  0.0676 -0.3094
84271W        W27183   9.845  23.453   9.254  0.1436  0.0099 -0.1821
84272W        W27184   7.705  25.261   9.638  0.3748  0.0639 -0.1481
84273W        W27185   9.802  24.205   8.623 -0.0692  0.1608 -0.0611
84274W        W27186   8.693  22.599   8.187 -0.1593  0.1729 -0.1378
84275W        W27187   7.936  26.778   8.199 -0.0966 -0.4193 -0.1256
84276W        W27188   8.882  25.834   7.348  0.0953 -0.2121 -0.3211
84277W        W27189   8.263  22.390   7.933 -0.0489  0.1016 -0.0006
84278W        W27190   7.837  25.258  10.109 -0.0631  0.0013 -0.1668
84279W        W27191   9.323  25.370   7.334  0.0699 -0.2875  0.1447
84280W        W27192   8.804  26.035   9.271  0.2527 -0.1317  0.0819
84281W        W27193   8.206  24.863   9.138  0.0016  0.0151  0.1753
84282W        W27194   8.960  20.994   9.656  0.2419  0.2009  0.1754
84283W        W27195   5.884  25.846   9.410 -0.0152  0.1156 -0.2255
84284W        W27196   8.257  23.498   6.614  0.1522  0.1790 -0.0809
84285W        W27197   7.671  23.342   7.327 -0.2541  0.0776 -0.0199
84286W        W27198  10.446  23.505   8.221  0.2771 -0.0688 -0.0735
84287W        W27199  10.324  24.277   7.301 -0.0058  0.2303 -0.0697
84288W        W27200   7.997  21.589   9.005  0.3269  0.0194  0.2389
84289W        W27201   9.179  21.473   8.923  0.1067  0.1763  0.0901
84290W        W27202   5.459  25.018   9.250 -0.0443 -0.2172  0.0994
84291W        W27203  10.278  23.078   7.975 -0.2885  0.0512  0.2604
84292W        W27204   7.438  22.853   6.825 -0.0553 -0.1978 -0.1314
84293W        W27205   9.954  24.088   9.813  0.3472  0.0644  0.2354
84294W        W27206   8.008  22.896   9.442 -0.1298 -0.2210  0.0111
84295W        W27207   8.623  24.718   9.487  0.1338  0.1933  0.0889
84296W        W27208   9.455  24.282   9.924  0.1041  0.0423  0.0044
84297W        W27209   7.583  23.517   8.101 -0.0058 -0.0556  0.0086
84298W        W27210   7.591  26.302   8.235  0.0339 -0.1449 -0.4011
84299W        W27211   9.661  21.617   9.118  0.0216 -0.2064  0.0659
84300W        W27212   7.787  21.395   8.587  0.2288 -0.2598  0.0091
84301W        W27213   8.114  21.834   6.620  0.1045  0.1556  0.0698
84302W        W27214   9.963  22.639   9.623 -0.2222  0.1525 -0.1876
84303W        W27215   8.948  24.287   8.704 -0.0584 -0.1631  0.0203
84304W        W27216   8.627  23.003   9.564 -0.2540 -0.4619 -0.1832
84305W        W27217   9.546  22.519   9.283 -0.0351  0.1481 -0.0658
84306W        W27218  12.239  25.221   8.836  0.2720  0.1066  0.2511
84307W        W27219   8.373  23.925   8.301  0.2088 -0.0872 -0.0331
84308W        W27220   7.599  23.243  10.275  0.0937 -0.3120  0.4063
84309W        W27221   9.213  24.519   7.765 -0.0630  0.0151  0.0432
84310W        W27222   9.034  20.828  10.335  0.2022 -0.2441  0.1314
84311W        W27223   7.257  24.127   8.843 -0.1930  0.1661  0.0282
84312W        W27224   8.582  24.341   8.325 -0.0417  0.1120 -0.0374
84313W        W27225   7.676  24.865   9.267 -0.0736 -0.1086 -0.0925
84314W        W27226   8.899  21.229   6.282 -0.0014 -0.0651  0.0274
84315W        W27227  10.140  24.344   7.729  0.0354 -0.1266 -0.1140
84316W        W27228   8.273  23.264   7.138 -0.1830 -0.1069 -0.3585
84317W        W27229  10.183  22.846   7.016  0.1530  0.0088  0.0261
84318W        W27230   7.424  21.275   8.898  0.2540 -0.0104  0.1259
84319W        W27231   9.655  23.844   9.017  0.1141 -0.1429 -0.0159
84320W        W27232   9.194  22.603   7.249  0.0205  0.2347 -0.2466
84321W        W27233   7.832  21.846   7.215  0.0382  0.1247  0.2786
84322W        W27234   7.015  22.694   9.524 -0.0849  0.2050  0.0491
84323W        W27235  10.195  23.749   8.888  0.4101  0.1452  0.0445
84324W        W27236   9.089  23.114   7.559 -0.2135  0.2021 -0.1840
84325W        W27237   9.797  22.782   8.001 -0.1749 -0.2846  0.3488
84326W        W27238   8.411  23.118   9.035  0.2698 -0.2032 -0.0487
84327W        W27239   9.159  23.450   8.556 -0.1380 -0.0319 -0.0074
84328W        W27240   9.241  22.754   7.860 -0.3136 -0.1537 -0.1527
84329W        W27241   7.777  23.873   8.438 -0.1537  0.0328  0.0403
84330W        W27242  10.884  23.808   8.133  0.1387 -0.1008 -0.3916
84331W        W27243   9.704  22.385   8.764  0.0811 -0.1324  0.0779
84332W        W27244  10.599  25.823   8.243  0.0290  0.1087  0.0186
84333W        W27245  10.137  22.094   6.677 -0.0980  0.2061  0.2176
84334W        W27246   9.399  22.837   8.842  0.0318  0.2366  0.1400
84335W        W27247  10.623  22.227   6.993  0.0663 -0.0075  0.1043
84336W        W27248   8.760  22.755   7.671 -0.0137 -0.3836 -0.2162
84337W        W27249   6.590  22.703   8.079 -0.2034 -0.0735  0.3924
84338W        W27250   8.084  22.402   6.217  0.0273  0.3781 -0.3433
84339W        W27251   8.269  25.314   6.527  0.0091 -0.2301 -0.0811
84340W        W27252   9.268  23.453   9.898 -0.0043 -0.1406  0.2065
84341W        W27253  11.080  23.862   9.168  0.0457 -0.4185 -0.1168
84342W        W27254   8.136  22.240   8.937 -0.1014 -0.3759  0.1574
84343W        W27255   8.072  23.828   7.864  0.2015  0.1487 -0.2008
84344W        W27256   8.488  23.793   7.525  0.1443  0.3968 -0.0178
84345W        W27257   9.407  24.677   8.635  0.0520  0.1973 -0.2571
84346W        W27258   8.486  22.546   5.918 -0.0232  0.0062 -0.1292
84347W        W27259   7.835  22.480   9.292 -0.1295  0.0022 -0.2645
84348W        W27260   8.448  21.772   8.746 -0.0575  0.1942 -0.0051
84349W        W27261   6.345  24.752   9.654  0.0171 -0.0423  0.1538
84350W        W27262   8.853  26.041   6.620 -0.2828 -0.2845  0.0813
84351W        W27263   9.118  22.964   8.355 -0.1416 -0.1232 -0.2317
84352W        W27264  10.036  23.259   8.802 -0.2003 -0.2220  0.2687
84353W        W27265   9.540  25.695   9.130 -0.1158  0.1899  0.2295
84354W        W27266   8.783  21.717   9.126 -0.0426  0.1627 -0.2061
84355W        W27267  11.849  23.917   8.574  0.1669  0.0020 -0.1452
84356W        W27268   8.022  24.695   8.666  0.0526 -0.1584  0.0340
84357W        W27269  10.204  22.637   8.333 -0.1634 -0.4160  0.0784
84358W        W27270   8.619  22.926   8.531  0.2254 -0.0349 -0.1705
84359W        W27271   9.671  24.411   8.093  0.3457  0.2237  0.1831
84360W        W27272   5.873  22.930   8.854 -0.0828  0.0093  0.2731
84361W        W27273   7.209  24.681   7.882 -0.0813 -0.0614 -0.1427
84362W        W27274   9.377  23.470   7.717  0.1273 -0.1194  0.1457
84363W        W27275  10.038  23.590   7.849 -0.0745 -0.0801  0.0475
84364W        W27276   9.756  25.805   8.693  0.0266  0.0753 -0.0756
84365W        W27277   9.134  24.329   7.246  0.1029 -0.1621 -0.2242
84366W        W27278   6.470  25.214   8.251  0.0174  0.0268 -0.2043
84367W        W27279   7.209  25.200   7.471 -0.1889  0.0163 -0.1519
84368W        W27280   9.354  24.801   7.330  0.1394  0.0385 -0.3262
84369W        W27281   7.801  25.059   8.835 -0.0029 -0.0233 -0.1002
84370W        W27282  10.174  22.359   7.200  0.1960  0.3656  0.3804
84371W        W27283  12.248  24.867  10.020  0.0367  0.0497 -0.2279
84372W        W27284  11.493  22.617   7.519 -0.0816 -0.1780  0.1909
84373W        W27285   8.118  22.716   8.981  0.0218 -0.3329 -0.2408
84374W        W27286   8.154  21.582   7.479 -0.1507  0.0912 -0.1360
84375W        W27287  10.998  25.119   7.492 -0.0075 -0.2776  0.1121
84376W        W27288   7.302  24.217   8.109  0.0694  0.5321  0.0723
84377W        W27289   8.716  22.563   9.845  0.1078 -0.3172  0.1978
84378W        W27290   9.433  20.115   9.843  0.2200  0.0942 -0.1825
84379W        W27291   8.686  24.545   6.978  0.1769  0.1555 -0.1547
84380W        W27292  10.559  23.949   8.565  0.1937  0.1347 -0.0519
84381W        W27293   7.917  25.187   8.363  0.0044 -0.0451  0.5664
84382W        W27294   9.479  25.264   9.461 -0.2358  0.0170  0.1080
84383W        W27295   7.254  25.895   9.339 -0.1317 -0.0564 -0.0632
84384W        W27296   7.406  22.298   6.983 -0.3080 -0.1895  0.0052
84385W        W27297  11.162  22.535   8.158 -0.2116  0.0093  0.0658
84386W        W27298   8.089  24.154   9.688  0.2723  0.0906  0.0917
84387W        W27299   7.876  21.842   7.753 -0.0134  0.0035  0.1801
84388W        W27300  10.840  23.268   7.943  0.0477 -0.2477 -0.1470
84389W        W27301   9.041  25.160   9.183 -0.2141 -0.0266 -0.0522
84390W        W27302   8.794  21.811   9.900 -0.1963  0.0811  0.1745
84391W        W27303   7.983  23.713   7.360  0.2308  0.2452 -0.1865
84392W        W27304  10.172  23.831   6.930  0.5036  0.0618 -0.0429
84393W        W27305   6.939  23.314   8.731  0.2987  0.1094 -0.0151
84394W        W27306   9.377  22.034   7.445 -0.2887 -0.1510 -0.1607
84395W        W27307   8.874  24.776   8.621  0.4718  0.1059  0.2509
84396W        W27308   8.655  22.701   9.066 -0.0748 -0.0916 -0.1366
84397W        W27309   8.523  21.990   7.676  0.1210 -0.2403 -0.0243
84398W        W27310   9.246  25.763   6.444 -0.0208 -0.1460  0.3743
84399W        W27311  10.793  23.032   8.931 -0.4471 -0.2895  0.0154
84400W        W27312   9.284  26.439   7.062  0.3301  0.0928 -0.0118
84401W        W27313  11.727  24.336   8.432 -0.2906 -0.1140  0.1302
84402W        W27314  11.044  24.421   9.490 -0.0628 -0.0415  0.1217
84403W        W27315   7.146  22.197   8.808 -0.0960  0.0422  0.0930
84404W        W27316   9.388  23.354   9.064  0.6283 -0.0398 -0.2681
84405W        W27317  10.854  24.903   9.376  0.2672 -0.0726 -0.1039
84406W        W27318   7.853  22.633   7.835 -0.1190 -0.2106  0.1086
84407W        W27319   7.690  22.023   9.106  0.1035 -0.2362 -0.1060
84408W        W27320   7.174  26.482   8.071  0.3738  0.2470  0.2013
84409W        W27321  11.567  23.554   8.349  0.0904 -0.1390  0.0046
84410W        W27322   8.075  25.035   6.966 -0.3660 -0.2787 -0.2241
84411W        W27323   8.638  24.855   9.978  0.1048  0.0481 -0.2957
84412W        W27324   7.641  25.224   7.122  0.1727 -0.0718 -0.0467
84413W        W27325   8.750  23.433   9.914  0.0622 -0.0745  0.1120
84414W        W27326   8.862  24.859   7.469 -0.2121 -0.0922  0.1173
84415W        W27327   9.977  25.195   9.729  0.3265  0.1680 -0.2074
84416W        W27328   9.272  24.232   9.080  0.4246  0.0996  0.2872
84417W        W27329  10.052  24.795   8.421  0.0899 -0.1141 -0.0748
84418W        W27330   8.722  23.111   8.093  0.0808 -0.2134 -0.1672
84419W        W27331   9.946  21.833   8.097 -0.0914 -0.2007 -0.1364
84420W        W27332   9.234  20.776   7.475  0.3552 -0.0278  0.1634
84421W        W27333   7.678  21.576  10.046  0.6373  0.1081 -0.1622
84422W        W27334   7.115  23.643   7.929 -0.1234  0.0865 -0.0365
84423W        W27335   8.801  24.003   7.906  0.1260 -0.3727 -0.1054
84424W        W27336   8.255  22.619   9.790  0.3007  0.1243 -0.0860
84425W        W27337   7.711  22.900   8.728  0.0560  0.2918  0.1314
84426W        W27338   8.208  22.775   6.931 -0.0360  0.1208 -0.2054
84427W        W27339   9.212  25.049   7.734  0.1306  0.3277 -0.1401
84428W        W27340   7.858  21.129   9.071 -0.3678 -0.2592 -0.2980
84429W        W27341   7.493  22.635   8.338  0.1629  0.2622  0.0027
84430W        W27342   9.288  23.949   7.742  0.5460 -0.1441 -0.1923
84431W        W27343  10.338  24.567   6.914  0.0051  0.1531  0.1526
84432W        W27344   8.251  21.857   8.215 -0.0420  0.1493 -0.1791
84433W        W27345   7.825  24.218   6.869  0.0548  0.2028 -0.1547
84434W        W27346   7.605  22.331   6.405 -0.2177 -0.0892 -0.3952
84435W        W27347   8.360  21.220   8.917  0.1668  0.0479  0.1956
84436W        W27348   8.864  24.642   9.090 -0.0048 -0.0986 -0.3315
84437W        W27349  11.210  24.969   7.897 -0.1340  0.2813 -0.0865
84438W        W27350   8.943  22.597   8.651  0.0627 -0.1764 -0.1358
84439W        W27351  10.040  23.788   8.413 -0.1500  0.1343 -0.1285
84440W        W27352  10.494  24.893   6.453 -0.1455 -0.0673 -0.0379
84441W        W27353   9.186  22.279   8.863  0.1135 -0.0991 -0.2525
84442W        W27354   9.894  23.305   8.240 -0.3495  0.1811 -0.3153
84443W        W27355   8.145  24.678   9.719  0.0463  0.2356  0.0610
84444W        W27356   7.845  22.177   8.154  0.1374  0.0751 -0.2393
84445W        W27357   8.813  22.113   7.311  0.2985 -0.0713 -0.0069
84446W        W27358   9.620  25.327   8.431  0.4205  0.0513  0.0810
84447W        W27359   9.108  20.445  10.030 -0.0828 -0.0664 -0.0819
84448W        W27360   8.522  23.974   8.852  0.2167 -0.6926 -0.1419
84449W        W27361   9.358  23.933   8.620  0.0300 -0.0819 -0.3180
84450W        W27362   7.330  23.198   8.476 -0.0248  0.2882  0.0736
84451W        W27363  10.852  24.642   8.977  0.0460  0.2111 -0.0426
84452W        W27364   8.819  25.455   9.566 -0.1535  0.0037 -0.2404
84453W        W27365   9.268  24.725  10.132 -0.1826  0.3037 -0.1928
84454W        W27366  11.163  23.370   8.908 -0.1351  0.1452  0.0671
84455W        W27367   7.637  22.372   8.760 -0.1393  0.3527 -0.3013
84456W        W27368   8.553  23.631   7.029  0.1821 -0.5112 -0.1462
84457W        W27369   9.439  22.625   8.323  0.0043  0.2831 -0.0240
84458W        W27370   8.567  23.822   9.563 -0.1438  0.4110 -0.1769
84459W        W27371   7.742  21.702   8.201  0.0972  0.0852  0.0406
84460W        W27372   8.489  22.254   8.562  0.0374  0.1002 -0.1031
84461W        W27373   9.837  24.655   8.964 -0.3156  0.0960  0.0713
84462W        W27374   7.826  23.054   9.869 -0.1590 -0.3916 -0.0897
84463W        W27375   8.657  26.898   2.240 -0.0363 -0.2427 -0.0603
84464W        W27376   8.896  26.339   1.500 -0.1312 -0.1695 -0.1322
84465W        W27377   9.950  24.986  30.818 -0.2558 -0.1590  0.0963
84466W        W27378  10.023  27.090  31.678 -0.0115  0.3053 -0.2128
84467W        W27379   7.270  26.294   2.181 -0.0706  0.1933 -0.2160
84468W        W27380  10.698  28.355   0.211 -0.2633  0.0628  0.2054
84469W        W27381   6.915  23.912   1.877  0.1454 -0.3300  0.1245
84470W        W27382  11.598  28.657   1.967 -0.0759  0.1310  0.0991
84471W        W27383   9.962  30.830   2.065 -0.0801  0.3061 -0.0298
84472W        W27384   9.727  28.443   0.077  0.0074  0.1425  0.2812
84473W        W27385  10.266  26.991   2.625 -0.1731 -0.4804 -0.2101
84474W        W27386   9.317  27.465   2.461 -0.1499 -0.6155 -0.0022
84475W        W27387   9.052  25.483  31.895  0.0223 -0.4319  0.0489
84476W        W27388   7.589  25.352   1.011 -0.1461  0.1979 -0.2992
84477W        W27389  10.810  26.753   1.891  0.1646  0.1677 -0.1953
84478W        W27390   8.154  27.479   1.133  0.0306 -0.2108  0.1727
84479W        W27391   8.726  25.688   3.666  0.1084 -0.3916  0.1625
84480W        W27392   9.276  25.880   0.757 -0.2110 -0.2420 -0.1014
84481W        W27393  11.431  28.384   1.079 -0.0877  0.0955  0.0821
84482W        W27394   8.929  26.338   2.548 -0.0469 -0.0911  0.0980
84483W        W27395   8.843  25.823   2.643 -0.0266  0.0679  0.1391
84484W        W27396  11.061  28.668   0.305 -0.0842 -0.0917 -0.0203
84485W        W27397   8.354  27.246   0.788  0.2383  0.0491 -0.2926
84486W        W27398   8.728  25.945   3.199  0.2247  0.1564 -0.1443
84487W        W27399   8.443  26.160   2.710 -0.3000 -0.1585 -0.3935
84488W        W27400  10.006  25.423   0.775 -0.2887 -0.0776  0.1116
84489W        W27401   8.639  26.423   2.040  0.0501  0.2615 -0.0202
84490W        W27402   7.457  28.863   2.397 -0.0379  0.1851  0.0969
84491W        W27403   8.943  28.352   2.490 -0.0683  0.0301 -0.1612
84492W        W27404  10.686  27.243   2.908 -0.1476 -0.0466 -0.2496
84493W        W27405   7.895  26.645   1.382 -0.1956  0.0837  0.0983
84494W        W27406   8.120  29.028   1.005  0.0182  0.1938 -0.0098
84495W        W27407   9.848  28.266   0.880 -0.3349  0.1385 -0.1949
84496W        W27408  10.583  27.562   0.799  0.1055  0.2806 -0.3269
84497W        W27409  10.424  28.988   4.199 -0.0742 -0.0155 -0.1530
84498W        W27410   9.897  28.126   3.149 -0.1853  0.2929  0.1245
84499W        W27411   8.540  28.123   1.594  0.2242  0.2251  0.0476
84500W        W27412  11.089  28.251   2.836  0.2068 -0.1537  0.1664
84501W        W27413   9.644  28.622   3.143  0.1950  0.1779  0.2677
84502W        W27414   9.066  26.618   2.145  0.1646 -0.2180  0.2330
84503W        W27415   9.428  26.925   1.794 -0.0629 -0.2396 -0.1658
84504W        W27416   8.219  29.167   0.473 -0.4590 -0.1051 -0.2848
84505W        W27417  10.782  26.884   1.346  0.2203  0.1122 -0.1622
84506W        W27418   7.717  26.712   4.457 -0.3137  0.0434 -0.1021
84507W        W27419   6.119  29.188   1.567 -0.0776  0.0658  0.0918
84508W        W27420  11.362  26.982   4.926  0.1236  0.3526  0.2072
84509W        W27421   9.786  29.002   1.165  0.1317  0.1704  0.0947
84510W        W27422  10.822  26.539  31.642  0.2474  0.1807  0.2948
84511W        W27423   8.678  26.196   0.351 -0.2673 -0.1712  0.1477
84512W        W27424  10.947  27.138   0.266 -0.1462  0.2275 -0.0615
84513W        W27425   9.874  25.157   1.564  0.0643 -0.0809 -0.3717
84514W        W27426   9.780  29.541   1.838  0.1547  0.0729  0.0467
84515W        W27427   9.653  24.523   1.803 -0.0363 -0.0160 -0.4141
84516W        W27428   9.614  27.904   3.519 -0.5027  0.1510  0.0508
84517W        W27429   7.884  26.576  31.952 -0.2754  0.3114  0.0785
84518W        W27430  10.209  27.781   1.108  0.1283 -0.1071  0.2399
84519W        W27431   8.383  27.361   3.539  0.1836 -0.1670 -0.1028
84520W        W27432   8.518  25.789   1.730  0.2098  0.1599  0.0929
84521W        W27433  11.263  27.556   0.156  0.3360 -0.1082 -0.3623
84522W        W27434  10.517  27.714   1.533  0.1198 -0.3928 -0.1483
84523W        W27435  11.747  27.209  31.565  0.3381  0.0308  0.1266
84524W        W27436  10.091  26.765   0.637 -0.1850  0.3079  0.1925
84525W        W27437   8.515  28.856   4.655  0.1250 -0.2907  0.1933
84526W        W27438   8.495  30.200   4.602 -0.1907  0.1179  0.1481
84527W        W27439   7.949  25.499   1.651 -0.1284  0.1111  0.2357
84528W        W27440  11.721  28.428   4.758  0.0240 -0.0645 -0.2782
84529W        W27441   7.323  26.492   3.223 -0.1137  0.2865 -0.2650
84530W        W27442  10.592  24.499   0.920 -0.1279  0.2268  0.0836
84531W        W27443   9.959  26.449   3.445 -0.0499 -0.4347  0.3957
84532W        W27444  10.869  30.013   2.940 -0.0972 -0.0466 -0.0860
84533W        W27445  10.252  27.936   0.175  0.1437  0.0292  0.1406
84534W        W27446   9.197  24.361   1.757  0.2945  0.1034 -0.4001
84535W        W27447   8.522  25.515   2.849  0.2071  0.1329 -0.4671
84536W        W27448   9.367  27.348   0.763  0.1292  0.1586  0.0040
84537W        W27449   9.648  27.413   1.647 -0.2520  0.1790 -0.0292
84538W        W27450  11.498  28.014   2.808  0.0731 -0.0496 -0.1225
84539W        W27451  10.394  26.326  31.569  0.0659 -0.0864  0.0365
84540W        W27452   7.941  28.932   3.118  0.1075 -0.2563  0.2384
84541W        W27453   9.950  26.523   2.486  0.0306 -0.1411  0.0653
84542W        W27454   9.423  27.706   2.902  0.0704  0.1035 -0.2319
84543W        W27455   8.341  28.166   0.858 -0.0976  0.0726 -0.2150
84544W        W27456   7.466  27.301   2.111 -0.2962  0.3274  0.1376
84545W        W27457   7.183  28.183   1.211 -0.2196 -0.1293 -0.2411
84546W        W27458   6.296  26.695   2.229 -0.0035 -0.3948  0.0917
84547W        W27459   8.190  28.450   2.434 -0.0773 -0.2518  0.0843
84548W        W27460  10.264  25.655   1.658 -0.1882 -0.2133 -0.3425
84549W        W27461   6.680  25.956   3.678 -0.1107  0.0906 -0.2295
84550W        W27462   6.452  27.202   2.070  0.3257  0.0463  0.1321
84551W        W27463  11.443  27.883  31.742  0.1491  0.0124  0.0613
84552W        W27464  10.690  25.889   0.435 -0.0035 -0.0897 -0.0275
84553W        W27465  12.330  25.855  31.803 -0.1424 -0.0319 -0.4392
84554W        W27466   7.714  26.765   3.012  0.1572 -0.0047 -0.1016
84555W        W27467   9.014  26.302   0.873  0.2284  0.0935 -0.0316
84556W        W27468   8.130  24.666   3.691 -0.1595  0.0163  0.3631
84557W        W27469   9.115  26.269   3.049  0.4768 -0.1920 -0.3236
84558W        W27470  10.177  25.967   2.570 -0.2997 -0.1062 -0.1107
84559W        W27471   7.749  27.030   0.105  0.0341  0.3724  0.4579
84560W        W27472  10.377  26.951   1.735 -0.2380 -0.1122  0.0852
84561W        W27473   9.776  25.925   0.811  0.4506 -0.0998  0.0533
84562W        W27474   7.192  27.618   1.743  0.0254  0.0598  0.1647
84563W        W27475   9.952  25.449   3.284  0.0698  0.0670  0.1533
84564W        W27476  10.952  28.338   0.822  0.0338  0.2874 -0.0475
84565W        W27477  12.613  27.642   2.827  0.4071 -0.5108 -0.0492
84566W        W27478   9.854  28.892  31.919  0.0510 -0.1753  0.0899
84567W        W27479   7.157  25.665   3.565  0.0411 -0.2474 -0.2690
84568W        W27480   8.083  25.558   1.092 -0.1685  0.2415 -0.0358
84569W        W27481   8.919  29.065   2.067 -0.0100  0.1035 -0.2751
84570W        W27482   9.000  28.055   2.018  0.1486  0.1402 -0.1090
84571W        W27483   8.923  26.873   0.125  0.1109 -0.4391 -0.0104
84572W        W27484  11.586  29.471   1.305  0.1665  0.1416  0.0470
84573W        W27485  10.116  27.373   1.853 -0.1900 -0.0387  0.3845
84574W        W27486   7.621  28.503   3.165 -0.2607 -0.0219 -0.0462
84575W        W27487  10.053  26.130   1.707 -0.1378 -0.1665  0.2278
84576W        W27488  10.430  26.430   1.590 -0.2677 -0.0053 -0.2262
84577W        W27489  10.918  26.893   0.756  0.2200 -0.2410  0.0962
84578W        W27490   7.925  24.696  31.524 -0.1339  0.0631 -0.1027
84579W        W27491  11.617  28.288   1.540 -0.0585  0.1349 -0.2230
84580W        W27492   6.508  28.176   0.453  0.3616 -0.1145 -0.1169
84581W        W27493   7.501  27.086   2.595  0.0715 -0.4090 -0.1472
84582W        W27494   9.054  27.924   1.168 -0.0396  0.3822 -0.2427
84583W        W27495   9.361  25.019   1.117  0.1793 -0.1820 -0.0876
84584W        W27496   7.076  27.615   4.614 -0.0641 -0.0012  0.0438
84585W        W27497  11.044  26.781   2.442 -0.3280  0.1050  0.0371
84586W        W27498   7.519  28.023   1.721  0.0734  0.3247  0.0620
84587W        W27499   7.953  28.284   3.586  0.0026  0.0957  0.1619
84588W        W27500  11.702  24.573   1.310  0.3192 -0.0537  0.2249
84589W        W27501   9.455  25.763  31.376 -0.0824  0.1153 -0.1292
84590W        W27502   9.764  27.325   3.678  0.1213  0.0548 -0.2305
84591W        W27503  11.215  27.883   2.394  0.3720 -0.1147  0.1616
84592W        W27504   9.758  25.762   0.234 -0.0958 -0.0363  0.1017
84593W        W27505   8.301  26.225  30.312  0.0301  0.2940  0.1605
84594W        W27506   8.913  28.419   3.842  0.1022 -0.1000 -0.1879
84595W        W27507   9.666  26.925   1.049 -0.2966 -0.3682  0.2589
84596W        W27508   9.523  28.217   1.881 -0.1393  0.0587  0.3342
84597W        W27509   8.867  25.395   0.324 -0.0506 -0.3066 -0.3050
84598W        W27510  11.505  28.377   0.573 -0.0192  0.0229  0.1989
84599W        W27511   8.193  26.402   2.323  0.2560  0.0796 -0.0888
84600W        W27512  10.436  28.584   3.710 -0.2181 -0.2102  0.1327
84601W        W27513  10.966  28.552   2.413  0.0813 -0.2947  0.0424
84602W        W27514   9.042  26.766   2.966 -0.1267  0.0093 -0.2992
84603W        W27515   8.969  26.097  31.197 -0.2715 -0.2635 -0.1810
84604W        W27516  10.286  25.333   2.044 -0.1083 -0.1427 -0.2468
84605W        W27517   7.739  28.886   0.715  0.3567 -0.1621 -0.0782
84606W        W27518   9.547  25.952   1.888 -0.2315  0.3518  0.4667
84607W        W27519   8.614  25.022   2.954 -0.1321  0.1487  0.1091
84608W        W27520   8.851  25.841   1.291  0.1591 -0.2101 -0.1631
84609W        W27521  10.745  26.763   2.845 -0.3036  0.4443 -0.1893
84610W        W27522  10.257  27.486  31.917  0.0481 -0.0171  0.0005
84611W        W27523   9.864  27.003   1.498 -0.2174 -0.0476 -0.2456
84612W        W27524   7.251  27.619   0.185  0.4808  0.0089  0.2172
84613W        W27525   9.509  25.324   2.707  0.0073 -0.0345  0.0269
84614W        W27526   7.781  26.546   2.562  0.1701  0.0450  0.0602
84615W        W27527   7.650  28.022   3.170  0.0589  0.0810 -0.0942
84616W        W27528  10.460  27.542   3.243  0.3468  0.1971  0.0049
84617W        W27529   9.339  27.819   1.594  0.0090 -0.2791  0.2046
84618W        W27530   9.891  26.170   2.938 -0.0841 -0.0445  0.2346
84619W        W27531   9.083  25.846   0.269  0.0845 -0.1758 -0.0294
84620W        W27532   8.325  27.640   1.590 -0.0758 -0.1889  0.2797
84621W        W27533   8.906  27.485   0.931  0.1528 -0.1233 -0.0868
84622W        W27534  10.556  24.903   2.168 -0.0101 -0.0856 -0.0775
84623W        W27535   8.782  27.870   2.463 -0.0310  0.1906  0.1273
84624W        W27536   8.075  28.139   1.787 -0.1280  0.0476  0.0563
84625W        W27537   9.929  27.882   3.905 -0.0079  0.0088  0.0866
84626W        W27538   7.509  27.771   2.275  0.1186  0.2648 -0.1023
84627W        W27539  10.911  24.315   1.655 -0.1326  0.0438 -0.0853
84628W        W27540   7.411  28.463   0.810 -0.1445  0.1656  0.0720
84629W        W27541   7.988  26.294   0.913  0.1009 -0.1136 -0.4250
84630W        W27542   8.821  27.607   1.465  0.0433  0.0359 -0.3031
84631W        W27543  11.919  25.496   0.647 -0.1247  0.3368  0.1053
84632W        W27544  10.977  26.424   1.547  0.0543 -0.2861  0.0002
84633W        W27545   7.567  25.858   3.875 -0.1710  0.1343  0.1432
84634W        W27546  10.005  26.634   1.783 -0.2391  0.1439  0.0324
84635W        W27547   5.951  27.668   2.287 -0.1394  0.0674 -0.1248
84636W        W27548   9.985  27.647   2.240  0.1100 -0.0175  0.0325
84637W        W27549  10.427  25.267  31.554 -0.1705  0.4177 -0.2207
84638W        W27550  11.327  26.656   1.971  0.0827  0.1716  0.0011
84639W        W27551   8.519  27.815   3.769 -0.1843  0.2996 -0.4512
84640W        W27552   6.751  27.086  31.594 -0.2158  0.3651 -0.0669
84641W        W27553  11.687  28.672  31.585  0.2116  0.0426 -0.1843
84642W        W27554  10.201  26.123   0.472 -0.2652  0.1024  0.1997
84643W        W27555   6.925  28.594   1.030 -0.0831 -0.0563  0.1507
84644W        W27556  10.675  27.626   2.354  0.0803  0.2039 -0.1715
84645W        W27557   7.206  27.667   0.742 -0.0776 -0.2485 -0.0757
84646W        W27558   8.822  27.355   2.268  0.0215  0.2633 -0.0912
84647W        W27559   9.019  25.332   2.682 -0.0191  0.2283  0.1275
84648W        W27560  11.715  27.075   3.221  0.0221  0.0503  0.2495
84649W        W27561   9.120  26.934   2.514 -0.1131 -0.1398  0.0489
84650W        W27562   9.408  25.451   0.300  0.1433 -0.0500 -0.1406
84651W        W27563   9.569  26.634   2.188 -0.1328 -0.1394 -0.0048
84652W        W27564  11.502  27.335   2.370 -0.3159  0.0132  0.5145
84653W        W27565   9.612  25.848   3.282 -0.1918 -0.2444  0.0036
84654W        W27566   7.936  28.094   4.562 -0.0828 -0.2865  0.0291
84655W        W27567   9.733  24.053   2.966  0.4504 -0.1916 -0.2838
84656W        W27568  11.811  29.076  31.887  0.3572 -0.0547 -0.0025
84657W        W27569   9.627  26.152   3.710  0.0766 -0.2259  0.0064
84658W        W27570   8.561  27.226   1.228  0.3040 -0.2082  0.6938
84659W        W27571   6.946  27.048   3.853 -0.4458  0.1465  0.1073
84660W        W27572   9.616  27.251   2.184 -0.0337  0.0760  0.0115
84661W        W27573  11.306  24.643   1.939  0.0311  0.0952  0.4560
84662W        W27574   7.599  27.671   2.806 -0.1600  0.3494 -0.0983
84663W        W27575   6.539  27.731   0.716 -0.0631 -0.0098 -0.0016
84664W        W27576   8.589  28.499   2.836  0.1315 -0.1150 -0.0499
84665W        W27577  11.457  24.805  31.916 -0.0111 -0.2866 -0.2456
84666W        W27578  10.723  29.191   0.850  0.4170 -0.0658 -0.1949
84667W        W27579  10.248  26.791   1.271 -0.2863  0.0622 -0.3738
84668W        W27580  10.818  24.141   2.750  0.0373 -0.0711  0.0792
84669W        W27581   9.403  27.167   0.297  0.3103  0.2758 -0.0870
84670W        W27582  10.444  25.476   3.056 -0.1615  0.0377  0.3350
84671W        W27583   8.446  25.176   2.494  0.1324 -0.0452  0.2718
84672W        W27584  10.370  28.399   2.285  0.0590 -0.2557 -0.1691
84673W        W27585   7.731  25.786   2.634 -0.0137 -0.3669  0.4042
84674W        W27586   9.381  28.108   3.154  0.4892  0.0314  0.2888
84675W        W27587   8.663  27.547   4.711 -0.0576 -0.0789 -0.0027
84676W        W27588   9.114  25.415   1.181  0.0252 -0.1659 -0.0283
84677W        W27589   9.109  24.092   0.013 -0.2063 -0.0974  0.0675
84678W        W27590   8.031  27.702   3.181  0.2397 -0.3790  0.2430
84679W        W27591  10.927  27.711   1.930 -0.0298 -0.1522  0.1454
84680W        W27592   9.614  26.719   0.339  0.3062  0.1291  0.0203
84681W        W27593  10.515  25.179   1.629  0.0003 -0.2186  0.2035
84682W        W27594   7.877  27.466   2.428 -0.0239 -0.2275  0.0612
84683W        W27595  10.390  25.835   0.816 -0.2727 -0.1922  0.1537
84684W        W27596   9.932  27.256   0.680 -0.0442  0.0669 -0.1549
84685W        W27597   9.186  26.811   0.730 -0.2131  0.1298  0.2615
84686W        W27598   9.002  23.750   3.031 -0.2227 -0.0799 -0.1256
84687W        W27599  11.400  27.855   1.059 -0.2720  0.3881  0.2828
84688W        W27600   9.850  26.423   1.308 -0.0787 -0.0981  0.1364
84689W        W27601   9.857  25.493   2.415  0.0754  0.1243 -0.4564
84690W        W27602  10.890  24.819   1.766  0.0233 -0.1943  0.0421
84691W        W27603   9.319  25.645   2.304 -0.2270  0.0481 -0.1602
84692W        W27604   8.612  26.333   5.849  0.1108  0.3418  0.3130
84693W        W27605   9.831  30.359   3.222 -0.0733  0.0423  0.4508
84694W        W27606  11.165  27.030  31.791 -0.2196 -0.0878 -0.2854
84695W        W27607  10.196  24.977   1.244  0.1899  0.0610  0.0528
84696W        W27608  11.602  25.563   1.978 -0.0368  0.1362 -0.1646
84697W        W27609  10.102  26.041  31.971 -0.2220  0.0048  0.0829
84698W        W27610   7.813  24.112   1.748 -0.0085 -0.0385  0.1490
84699W        W27611  10.401  26.283   3.550  0.1011  0.0757  0.2012
84700W        W27612   8.326  24.454  30.641  0.1778  0.1157 -0.3646
84701W        W27613  10.116  25.084   2.602  0.0402  0.1441  0.1892
84702W        W27614   9.601  28.550   0.541  0.1598  0.1103 -0.1283
84703W        W27615  11.382  28.375  31.961  0.1538  0.1907  0.0422
84704W        W27616   9.466  25.542   1.512 -0.0851 -0.0083 -0.0395
84705W        W27617   7.641  26.938   1.733 -0.0247 -0.0794 -0.1129
84706W        W27618   9.587  28.883   3.648 -0.1202  0.0688  0.2805
84707W        W27619   9.224  26.371   0.443  0.1507 -0.0769 -0.0301
84708W        W27620   8.633  26.693   0.564  0.4040 -0.0687 -0.0813
84709W        W27621  11.362  26.965   2.809  0.2419 -0.2649 -0.2063
84710W        W27622  11.371  25.942   2.310  0.1721 -0.2321  0.3726
84711W        W27623   9.547  26.074  31.893  0.0703  0.1479 -0.3034
84712W        W27624  11.292  24.454   4.816 -0.0815 -0.3944 -0.3576
84713W        W27625   8.506  28.614   1.180  0.0410  0.0352  0.0932
84714W        W27626  10.931  25.410   0.338 -0.2458  0.0343 -0.1621
84715W        W27627   8.557  28.783   2.318 -0.0502 -0.0307  0.0801
84716W        W27628   7.384  27.183   4.052 -0.1862  0.2591  0.0567
84717W        W27629   8.171  27.915   2.198  0.2195  0.0903 -0.1931
84718W        W27630   8.587  24.014   2.853 -0.2739 -0.0517  0.0601
84719W        W27631  10.719  26.031   1.818  0.0575  0.1182 -0.1778
84720W        W27632  10.216  27.112   3.132 -0.3023  0.1370  0.0756
84721W        W27633  10.275  26.371   2.127 -0.0515  0.0773  0.1330
84722W        W27634  10.301  27.505   2.773 -0.2518  0.2586  0.1326
84723W        W27635   8.590  26.630   2.700 -0.1746 -0.1656 -0.0390
84724W        W27636  10.925  27.779   2.814 -0.0713 -0.2467  0.0472
84725W        W27637  10.529  28.003   0.587 -0.1791  0.0688  0.3733
84726W        W27638   8.812  28.098   3.467  0.0029  0.1201  0.0016
84727W        W27639   7.919  27.281   2.925 -0.0848  0.1964 -0.1442
84728W        W27640   9.259  26.827   4.397  0.0716 -0.0673 -0.1107
84729W        W27641  11.600  27.311   1.907  0.2849  0.1333 -0.1622
84730W        W27642   9.350  26.149   1.252  0.2138 -0.3646 -0.0776
84731W        W27643   9.744  27.823   1.317 -0.0460  0.1580 -0.0431
84732W        W27644   6.596  27.851   4.117 -0.2371 -0.2424 -0.0229
84733W        W27645   7.823  28.785   3.595 -0.2231 -0.0273 -0.1352
84734W        W27646   7.643  28.337   1.359  0.3574 -0.1801  0.4106
84735W        W27647  10.120  27.680   0.573  0.1036 -0.0801  0.0235
84736W        W27648   8.998  27.346   0.001 -0.3566  0.0757  0.2813
84737W        W27649  11.750  28.846   0.653 -0.1906  0.3487 -0.0741
84738W        W27650   9.283  26.657   1.323  0.0461  0.0880 -0.1040
84739W        W27651   9.074  27.145   1.382 -0.0131 -0.1904  0.2580
84740W        W27652   6.705  28.946   1.402  0.1873  0.1283 -0.3028
84741W        W27653  10.465  26.871  31.942 -0.2811  0.0069  0.0834
84742W        W27654   9.332  27.511   1.238 -0.1643 -0.3553  0.0574
84743W        W27655  11.562  26.952   3.744  0.0453  0.2395 -0.2336
84744W        W27656   9.204  25.266  31.459 -0.1021 -0.0038 -0.1548
84745W        W27657  12.582  26.175   2.191  0.2144  0.1794 -0.3260
84746W        W27658  10.431  27.214   0.378 -0.0402 -0.2453  0.2314
84747W        W27659  10.353  27.984   4.869  0.0013  0.0270  0.2508
84748W        W27660   9.814  27.340   2.727 -0.0529 -0.0717  0.2156
84749W        W27661   8.266  24.099  31.545  0.0147 -0.0692 -0.3001
84750W        W27662   8.311  27.293   5.053  0.1024 -0.2300  0.0099
84751W        W27663  10.971  25.501   0.851  0.0101  0.1297 -0.1718
84752W        W27664   7.990  28.525   4.030 -0.4326  0.1969  0.0154
84753W        W27665  10.363  29.773  31.406  0.1907  0.1092 -0.0839
84754W        W27666   8.253  26.723   0.955  0.2803 -0.0407 -0.2871
84755W        W27667   8.627  25.972   2.218  0.0209  0.1313 -0.1709
84756W        W27668  10.378  25.544   2.535  0.1218  0.0586  0.2085
84757W        W27669   9.584  27.141  31.836 -0.3237 -0.0666  0.2408
84758W        W27670   9.906  25.835  30.986  0.2098  0.1086 -0.0449
84759W        W27671   9.150  27.457   1.836  0.1898  0.0216 -0.1011
84760W        W27672   7.766  28.260   2.165 -0.2041  0.1880 -0.2980
84761W        W27673   9.244  29.703   1.473  0.0418 -0.1576 -0.5340
84762W        W27674   8.885  26.765   1.711  0.2469 -0.1744  0.1894
84763W        W27675  10.533  26.031   1.270  0.1286  0.2353 -0.2674
84764W        W27676   8.170  26.290   3.327 -0.3171 -0.1355 -0.0809
84765W        W27677  11.608  24.627   3.117 -0.0195 -0.3264 -0.1826
84766W        W27678   9.600  26.905   2.627  0.1548  0.0844  0.0302
84767W        W27679  10.526  25.413   1.171 -0.0995 -0.3141  0.1216
84768W        W27680   9.422  27.192   2.991  0.0062 -0.1708 -0.2220
84769W        W27681   8.114  25.089   3.210 -0.0150  0.2796 -0.2277
84770W        W27682  10.112  26.250   0.901 -0.1215  0.0667  0.3266
84771W        W27683  10.752  27.279   1.716  0.0378 -0.0606  0.3986
84772W        W27684  10.137  26.554   0.140 -0.3026  0.0546  0.0568
84773W        W27685   9.676  29.097   3.115 -0.1719 -0.0024  0.0370
84774W        W27686   8.341  26.329   1.260  0.0592  0.1681 -0.1110
84775W        W27687  10.095  25.520  31.842  0.0059  0.0174  0.0246
84776W        W27688   7.855  27.671   1.888  0.0254  0.0588  0.1131
84777W        W27689   8.355  27.586   2.626 -0.2278  0.3041 -0.3481
84778W        W27690  11.492  28.491   2.467  0.0382  0.0662  0.2668
84779W        W27691   7.706  25.845   0.884  0.0118 -0.2141 -0.3421
84780W        W27692   9.693  27.719   0.844  0.1960 -0.1291  0.0800
84781W        W27693  11.013  27.272   2.513 -0.1244  0.3065  0.3168
84782W        W27694  10.221  28.377  31.818  0.1502  0.1199 -0.0599
84783W        W27695  11.581  27.727   0.609 -0.3538  0.0021 -0.0976
84784W        W27696   9.891  28.177   2.282  0.0522 -0.0210  0.0808
84785W        W27697   8.225  25.753   2.500 -0.1318 -0.1682  0.2523
84786W        W27698  12.975  28.720   1.851 -0.0438 -0.1890  0.1433
84787W        W27699  10.388  27.290   1.352 -0.0171 -0.4836 -0.0636
84788W        W27700   7.987  25.997   1.341  0.1258  0.1278  0.2324
84789W        W27701   8.196  26.781   1.972 -0.0501 -0.2982 -0.2404
84790W        W27702   7.184  29.123   1.309 -0.1490 -0.1871  0.0271
84791W        W27703   9.409  26.396   1.756  0.0808 -0.2036  0.2812
84792W        W27704   9.877  25.705   2.855  0.0568  0.0994  0.0384
84793W        W27705  10.712  27.626   0.191 -0.3158 -0.2323  0.0009
84794W        W27706  10.976  25.188   1.415 -0.0060  0.2213  0.0090
84795W        W27707  10.942  27.499   3.249  0.1988 -0.0925 -0.3103
84796W        W27708   8.088  27.647   4.143 -0.1449  0.0154 -0.0031
84797W        W27709   6.728  27.568   1.681  0.0427  0.1248 -0.1409
84798W        W27710   7.772  27.330   3.829 -0.0335  0.1899 -0.1973
84799W        W27711   8.212  26.947   2.629  0.1112 -0.2154 -0.0158
84800W        W27712   9.503  28.620   1.015  0.4534  0.0009  0.1754
84801W        W27713  10.855  29.078   2.491  0.1484 -0.0871 -0.2108
84802W        W27714  10.047  25.861   2.146  0.0666  0.1887 -0.3378
84803W        W27715  11.900  28.242   1.115 -0.0008 -0.0253  0.2474
84804W        W27716   9.612  25.485   1.024  0.0514 -0.1008  0.1770
84805W        W27717  13.018  25.716   0.498 -0.0087  0.2167 -0.0384
84806W        W27718  10.654  25.969   2.315 -0.0769  0.1381  0.0082
84807W        W27719   8.337  28.003   2.854  0.3624  0.0165  0.2142
84808W        W27720   8.200  26.383   0.472  0.2173 -0.0024 -0.2002
84809W        W27721   8.509  25.360  31.950 -0.1490 -0.1670  0.1393
84810W        W27722   8.955  27.576   2.848  0.1446 -0.1980 -0.0240
84811W        W27723   9.161  25.052   3.096 -0.0359 -0.3596 -0.0367
84812W        W27724   7.442  25.846   3.050  0.1428 -0.1023  0.3204
84813W        W27725   7.749  26.283   3.031  0.0736  0.1783 -0.5881
84814W        W27726   8.807  25.637   0.811 -0.0604 -0.1696 -0.3662
84815W        W27727  10.491  28.846   0.560  0.1619  0.1102  0.0324
84816W        W27728   8.287  25.421   2.046 -0.0823  0.3707  0.0619
84817W        W27729   6.057  25.456   1.487  0.1022  0.0662 -0.0402
84818W        W27730  10.280  29.909   0.001 -0.2649 -0.0079 -0.2423
84819W        W27731  12.218  28.882   0.631 -0.1216  0.1907 -0.2998
84820W        W27732   9.547  26.396   0.846 -0.3882  0.2569 -0.1425
84821W        W27733  10.185  27.493   4.672  0.1408 -0.1769 -0.0843
84822W        W27734   6.893  28.020   0.115 -0.1949 -0.0958 -0.0717
84823W        W27735   9.539  26.351   3.278  0.0333  0.2518 -0.1322
84824W        W27736   9.392  25.082   1.683 -0.0883 -0.3890 -0.1948
84825W        W27737   7.628  26.383   0.345 -0.2301  0.0597 -0.2695
84826W        W27738   9.608  26.060   2.401  0.2707  0.0365  0.1853
84827W        W27739  11.051  27.799   0.700  0.1324  0.0700  0.0839
84828W        W27740  11.045  29.137   0.004  0.0401 -0.1881  0.0033
84829W        W27741   8.650  26.516   3.204 -0.2937 -0.4761  0.0416
84830W        W27742   8.239  27.306   2.155 -0.2055  0.0733 -0.2279
84831W        W27743   7.585  24.987   3.157  0.0998  0.1422  0.1479
84832W        W27744  10.828  27.842   1.137 -0.1694 -0.2743  0.1328
84833W        W27745   8.571  27.678   3.149  0.1126  0.0204 -0.0941
84834W        W27746  10.431  27.950   1.997  0.0850 -0.2090  0.1414
84835W        W27747   8.718  24.587   1.618 -0.2035 -0.0844  0.1275
84836W        W27748  10.311  25.806  31.486  0.0164  0.0488 -0.1752
84837W        W27749   7.808  26.810   3.912  0.1007 -0.1885  0.1538
84838W        W27750   8.398  27.045   3.124 -0.1748  0.2083 -0.0299
84839W        W27751  11.999  28.694   3.022 -0.0888 -0.0762  0.1631
84840W        W27752   9.220  25.375   0.726 -0.4208 -0.0617 -0.0090
84841W        W27753   8.759  25.576  31.523  0.1241 -0.1676 -0.0837
84842W        W27754  10.408  27.868  31.539  0.2091 -0.1000 -0.1068
84843W        W27755   8.269  26.766   3.519  0.1537  0.0289  0.2434
84844W        W27756   9.014  26.328  31.975 -0.0432 -0.0498 -0.1992
84845W        W27757   9.734  26.901   3.311  0.1851  0.0543  0.0596
84846W        W27758  10.589  27.144   2.178 -0.1686 -0.0927  0.3174
84847W        W27759  10.329  27.937   3.002 -0.1571 -0.1559  0.0153
84848W        W27760  10.072  25.755   1.204 -0.0822  0.1855  0.0441
84849W        W27761   9.043  27.750  31.113 -0.1323  0.0446 -0.0767
84850W        W27762   9.847  28.725   2.365  0.3161  0.2280 -0.2832
84851W        W27763   9.291  30.607   3.959  0.0459  0.1328  0.0706
84852W        W27764  10.797  28.198   3.247 -0.2164 -0.1914 -0.3866
84853W        W27765  11.835  27.180   2.739  0.0970 -0.2361  0.2371
84854W        W27766   7.290  25.718   2.356 -0.0647 -0.5221  0.1429
84855W        W27767   7.389  26.818   1.269 -0.3315  0.0637  0.1343
84856W        W27768   9.756  26.231   0.370 -0.1628  0.1405  0.2631
84857W        W27769  11.219  25.879   1.848 -0.0031  0.0129  0.0054
84858W        W27770   8.891  25.464   3.190 -0.0370  0.0192  0.2077
84859W        W27771   7.508  25.398   0.021  0.1553 -0.0037 -0.2551
84860W        W27772   9.461  27.750   2.043 -0.2345 -0.1161 -0.0845
84861W        W27773  10.589  26.644   2.342  0.0196  0.0034  0.2198
84862W        W27774   8.381  28.323   7.375 -0.0365 -0.0640 -0.0737
84863W        W27775   8.313  26.983   3.949 -0.0332  0.4628 -0.1623
84864W        W27776  10.224  25.917   3.138  0.1823  0.4436 -0.3135
84865W        W27777  11.274  27.747   3.828 -0.0427  0.0644  0.1419
84866W        W27778   7.892  25.561   5.630  0.0890 -0.0977 -0.2284
84867W        W27779  11.618  27.855   5.321 -0.3046 -0.1863 -0.2691
84868W        W27780   8.850  27.532   6.182 -0.4655  0.1056 -0.1709
84869W        W27781  10.831  28.598   5.927 -0.0549 -0.3097  0.0973
84870W        W27782  10.337  29.377   6.983 -0.0781  0.2185  0.1727
84871W        W27783   9.993  27.284   4.188 -0.0423  0.0363  0.0189
84872W        W27784   9.676  27.839   7.115 -0.0540  0.0029  0.1623
84873W        W27785   8.844  28.030   5.650  0.0078  0.1599 -0.0541
84874W        W27786   8.439  23.619   3.987 -0.1414  0.1424 -0.2265
84875W        W27787   7.027  26.068   6.443  0.0458 -0.2529  0.0769
84876W        W27788   9.869  26.823   6.267  0.0096  0.0558  0.0505
84877W        W27789   9.315  27.000   4.981  0.0925  0.0813 -0.4125
84878W        W27790   7.399  26.958   6.064 -0.0325  0.0299 -0.1485
84879W        W27791   7.800  24.203   3.611  0.0060 -0.0777  0.1459
84880W        W27792   9.120  28.563   5.124 -0.1815  0.0543 -0.1536
84881W        W27793   8.333  26.268   6.558  0.0882 -0.1529 -0.2579
84882W        W27794   9.573  25.781   8.245  0.1970  0.0420  0.1676
84883W        W27795  11.002  29.910   3.539  0.4578 -0.4607 -0.1633
84884W        W27796   7.742  26.688   5.511 -0.1026  0.1250  0.1536
84885W        W27797   7.701  27.113   5.122 -0.3825 -0.0026  0.2173
84886W        W27798   9.513  27.838   5.031  0.0616 -0.0357  0.0814
84887W        W27799  10.111  26.653   4.935 -0.1887 -0.0806  0.1068
84888W        W27800  10.297  25.867   4.555 -0.0529 -0.1737  0.1943
84889W        W27801   7.800  28.455   5.931 -0.2141  0.2402 -0.0155
84890W        W27802  10.398  29.452   6.367  0.3310  0.0035 -0.0114
84891W        W27803   9.978  26.683   8.528 -0.1114 -0.2694  0.0330
84892W        W27804   7.486  28.812   5.935 -0.0458  0.1499  0.0134
84893W        W27805   8.320  28.463   5.873  0.3494 -0.0326  0.1175
84894W        W27806   9.606  28.806   5.218 -0.3485  0.0388  0.2067
84895W        W27807  11.687  26.819   4.479  0.0455  0.2288 -0.1783
84896W        W27808  10.606  28.333   7.083 -0.3237 -0.2353 -0.0235
84897W        W27809   9.106  30.358   7.689  0.2221 -0.2780 -0.4349
84898W        W27810   8.423  27.855   4.414 -0.0513 -0.1178  0.0495
84899W        W27811  11.197  29.613   7.529  0.0058 -0.1299 -0.0588
84900W        W27812   8.641  28.899   6.528 -0.0051  0.0511 -0.1219
84901W        W27813   8.498  28.248   5.387 -0.1085  0.0426 -0.3281
84902W        W27814   9.494  26.420   5.042  0.0690  0.1936 -0.0519
84903W        W27815  10.189  28.156   4.424  0.0592 -0.2103 -0.3673
84904W        W27816  10.674  27.412   4.565  0.0425  0.0807  0.2699
84905W        W27817   7.204  28.445   8.232 -0.0836 -0.2875 -0.1359
84906W        W27818   8.812  28.137   6.125 -0.0531 -0.0762 -0.0116
84907W        W27819  10.297  26.598   7.138 -0.2189  0.1011 -0.0646
84908W        W27820   9.179  28.218   4.280  0.1263 -0.3470 -0.0433
84909W        W27821  10.223  27.470   3.681 -0.0595 -0.2153 -0.1975
84910W        W27822   8.680  25.934   4.118 -0.1779 -0.2164  0.2109
84911W        W27823   9.931  27.616   3.178 -0.0554 -0.1552  0.0301
84912W        W27824   8.582  25.008   4.431 -0.0224  0.0385  0.1886
84913W        W27825   8.334  29.693   4.451  0.3011 -0.0668  0.0680
84914W        W27826  10.366  27.519   6.076  0.1660  0.5418  0.0358
84915W        W27827   9.052  26.885   6.558  0.1055  0.4386 -0.2079
84916W        W27828   9.008  27.374   4.371 -0.4671  0.0679  0.1033
84917W        W27829   9.764  27.709   5.974  0.0798  0.1011  0.0649
84918W        W27830   7.405  28.464   6.302 -0.0140  0.1651 -0.2472
84919W        W27831   9.601  28.319   5.246 -0.0594 -0.0152  0.1404
84920W        W27832  11.131  29.062   3.317 -0.1728  0.0398 -0.3181
84921W        W27833  11.425  28.967   5.077 -0.3669  0.0918 -0.0727
84922W        W27834   9.878  28.372   4.768  0.0173  0.0614 -0.0908
84923W        W27835   8.147  26.862   5.339  0.2183 -0.0214  0.0069
84924W        W27836   8.860  28.153   7.040  0.3018  0.0745 -0.0668
84925W        W27837   8.377  26.872   7.398  0.2346 -0.2339  0.1422
84926W        W27838   7.994  25.317   2.730 -0.0501  0.2663 -0.0344
84927W        W27839   9.955  27.729   6.613  0.1309  0.0736  0.1064
84928W        W27840   6.144  28.357   8.426 -0.0740 -0.1118  0.2213
84929W        W27841  10.589  26.803   4.786  0.0949 -0.5586  0.0383
84930W        W27842   9.769  28.212   5.864 -0.1223  0.2232  0.1564
84931W        W27843  10.551  28.872   6.813 -0.0109  0.0651  0.4036
84932W        W27844  10.391  26.689   3.242 -0.2066 -0.1657  0.1209
84933W        W27845  10.311  25.602   4.092  0.2194 -0.1009 -0.0549
84934W        W27846  10.018  25.966   5.238  0.1940  0.3293 -0.4268
84935W        W27847  10.490  26.173   4.055 -0.3502  0.3093  0.0501
84936W        W27848   9.323  28.197   4.747 -0.0418 -0.2120  0.1404
84937W        W27849   9.990  29.656   6.583 -0.0617  0.0336 -0.0709
84938W        W27850  11.545  26.588   3.251  0.2830  0.0998  0.0273
84939W        W27851   8.741  29.394   4.527  0.0020  0.3128 -0.0554
84940W        W27852   8.989  26.169   6.185  0.3332 -0.0522  0.0068
84941W        W27853   9.148  28.545   7.188  0.1712  0.1331  0.0982
84942W        W27854   9.712  28.198   4.298  0.0864  0.0625 -0.1393
84943W        W27855   6.814  27.572   5.442  0.2043  0.2613  0.1536
84944W        W27856   7.203  27.377   5.114  0.1475 -0.3046  0.1179
84945W        W27857   8.737  26.638   6.272  0.0434  0.1174 -0.0406
84946W        W27858   9.623  27.878   5.517 -0.1158  0.0296 -0.0173
84947W        W27859  11.610  26.331   6.069 -0.2338 -0.4423  0.1034
84948W        W27860   7.846  26.972   6.273  0.2539  0.0426  0.1090
84949W        W27861  10.964  25.551   5.450  0.1569 -0.0301 -0.0999
84950W        W27862  10.126  26.428   4.505 -0.2303  0.0557  0.0601
84951W        W27863  11.354  27.571   4.283 -0.1266  0.2558 -0.2261
84952W        W27864   9.130  26.081   2.171  0.1151  0.3856 -0.1773
84953W        W27865  10.380  29.071   4.706  0.3316 -0.0396 -0.1288
84954W        W27866   7.935  26.081   5.925  0.0765  0.1844 -0.0950
84955W        W27867   9.225  26.135   4.469 -0.1018  0.0591  0.2174
84956W        W27868   8.217  25.808   6.487  0.0183  0.0903 -0.0858
84957W        W27869   9.221  26.341   6.567  0.0117  0.0191 -0.1465
84958W        W27870   9.386  27.405   8.794 -0.0653  0.0771 -0.0194
84959W        W27871   8.391  25.152   3.669 -0.0893 -0.1549 -0.1522
84960W        W27872  10.830  26.324   4.728 -0.1633 -0.0311 -0.2310
84961W        W27873  10.035  26.443   3.977  0.0429 -0.2779  0.0756
84962W        W27874   7.361  27.648   3.723  0.3103  0.0728  0.1566
84963W        W27875   9.586  26.119   6.730  0.3500 -0.0411  0.0039
84964W        W27876  10.604  29.448   5.035 -0.2234 -0.2886 -0.5563
84965W        W27877  10.552  28.964   7.274  0.1348 -0.0343 -0.3517
84966W        W27878  10.713  27.730   5.832 -0.0562  0.0841  0.1769
84967W        W27879   7.167  25.638   6.618 -0.1432  0.0724  0.0463
84968W        W27880   7.715  25.430   3.274 -0.1482  0.0129  0.0661
84969W        W27881   7.776  28.018   5.599  0.0630  0.1893 -0.3528
84970W        W27882   9.125  29.176   3.917 -0.4157  0.0435 -0.4170
84971W        W27883   8.642  26.800   5.612 -0.0943 -0.1689  0.0860
84972W        W27884  12.027  28.220   5.879 -0.2131 -0.1211  0.1264
84973W        W27885  10.384  27.618   4.124 -0.1554  0.0053 -0.0125
84974W        W27886   9.070  28.015   5.208 -0.2832 -0.1465  0.2772
84975W        W27887  10.013  27.047   6.969 -0.1545 -0.1327 -0.3544
84976W        W27888  11.089  26.046   5.171 -0.0320  0.1578  0.2328
84977W        W27889   9.165  26.703   3.917  0.2030  0.1306  0.0117
84978W        W27890   7.926  26.248   3.788  0.2127  0.1532 -0.4079
84979W        W27891   9.643  28.733   5.695 -0.0109 -0.1870 -0.1266
84980W        W27892   7.074  27.561   4.142  0.0295  0.2652  0.0188
84981W        W27893   7.695  26.521   5.988 -0.1410  0.4514 -0.3689
84982W        W27894   9.627  29.264   3.939  0.1227  0.3405 -0.0749
84983W        W27895  10.992  24.250   4.443  0.2868  0.1953  0.1720
84984W        W27896   6.863  27.029   7.262  0.0784 -0.1512  0.1750
84985W        W27897   9.330  26.710   7.483  0.0804  0.0489  0.3351
84986W        W27898   7.998  27.026   4.752  0.2652  0.2551  0.0711
84987W        W27899   8.464  28.369   6.519  0.3799  0.3019  0.3879
84988W        W27900  10.710  25.821   4.867 -0.0984 -0.0070 -0.0815
84989W        W27901   9.374  25.442   3.301 -0.0859  0.0807  0.0361
84990W        W27902   9.001  28.539   7.746 -0.1212 -0.0465  0.3418
84991W        W27903  11.159  27.304   4.619 -0.1748  0.0071  0.0681
84992W        W27904   9.632  26.315   4.257 -0.0162  0.0355  0.4084
84993W        W27905   9.463  24.627   3.652 -0.2553  0.2671 -0.0399
84994W        W27906   8.078  27.873   7.354  0.2062 -0.0665 -0.0673
84995W        W27907  10.461  28.222   5.760 -0.1782 -0.2620  0.1623
84996W        W27908   8.964  28.996   4.894  0.2003 -0.0903  0.3941
84997W        W27909   8.516  25.389   1.265 -0.1851  0.0133  0.0577
84998W        W27910  12.120  27.172   5.674  0.1719 -0.0647  0.4274
84999W        W27911   7.422  26.383   6.387  0.1724 -0.1034  0.1334
85000W        W27912  11.145  27.655   7.114 -0.1548 -0.0067 -0.0318
85001W        W27913  10.015  28.421   5.460  0.0231  0.0493 -0.0855
85002W        W27914   8.044  25.599   7.026  0.0321  0.1552 -0.0800
85003W        W27915   8.340  25.040   1.707 -0.0788  0.2276 -0.0110
85004W        W27916   8.739  25.828   5.719 -0.0437 -0.0516  0.0088
85005W        W27917   6.227  29.441   2.424  0.0872  0.1735  0.0830
85006W        W27918  10.512  26.401   5.313  0.0206 -0.0548  0.2676
85007W        W27919  10.208  28.035   6.123 -0.2343 -0.0386 -0.3257
85008W        W27920   9.982  25.343   5.795  0.0929 -0.2378  0.1246
85009W        W27921  10.890  26.405   6.572 -0.2194  0.2229 -0.1700
85010W        W27922   8.873  27.194   3.181 -0.0896  0.0849 -0.1210
85011W        W27923  10.784  27.154   5.920  0.0636 -0.1189  0.2418
85012W        W27924   9.272  25.796   2.922 -0.3371  0.2316  0.1784
85013W        W27925   9.802  27.000   5.189 -0.1915  0.3683 -0.2156
85014W        W27926   7.044  27.260   5.735 -0.0298  0.3370  0.0770
85015W        W27927   8.357  27.269   5.529  0.1816  0.1681 -0.1108
85016W        W27928   9.358  28.063   6.078  0.0755 -0.0095  0.1957
85017W        W27929  11.356  28.201   5.074  0.0772 -0.3513 -0.1316
85018W        W27930   9.805  26.416   5.894  0.0619  0.1576  0.0623
85019W        W27931   9.098  25.186   4.481 -0.2329 -0.1146 -0.0474
85020W        W27932   9.226  28.523   3.452 -0.2080 -0.2476 -0.1199
85021W        W27933   9.082  27.638   3.322  0.0103 -0.1692 -0.0855
85022W        W27934   9.432  26.714   5.468 -0.0242 -0.0969  0.1131
85023W        W27935  10.301  27.158   5.023  0.1717 -0.1896  0.0033
85024W        W27936   8.883  27.294   3.745  0.1198  0.1085  0.1576
85025W        W27937   9.983  28.295   7.868  0.3619  0.1305 -0.0926
85026W        W27938   8.144  27.790   5.324  0.1118  0.1217  0.1183
85027W        W27939   9.095  26.102   5.072 -0.1553  0.1412  0.0190
85028W        W27940   7.205  28.461   4.777  0.3693  0.0817  0.2752
85029W        W27941   9.168  26.556   3.459  0.1062 -0.0152 -0.0671
85030W        W27942   8.276  26.654   4.451 -0.1024  0.1185 -0.0906
85031W        W27943  10.312  27.219   5.697  0.3573 -0.2143  0.1430
85032W        W27944  11.444  27.417   3.472 -0.1820  0.1159 -0.3495
85033W        W27945   9.498  26.175   5.516  0.3264 -0.3591 -0.3388
85034W        W27946   9.853  26.505   5.369 -0.0381 -0.3164 -0.0567
85035W        W27947   8.112  28.425   4.945  0.0543  0.3100  0.3568
85036W        W27948  10.044  26.411   7.578 -0.0362  0.1014 -0.1611
85037W        W27949   9.688  25.591   3.699 -0.0266  0.2119  0.0949
85038W        W27950  10.415  28.949   6.313 -0.1557 -0.1794 -0.1168
85039W        W27951   7.878  27.866   6.870 -0.0746 -0.1800  0.1310
85040W        W27952   8.166  26.406   5.665 -0.3223 -0.1630  0.2094
85041W        W27953   9.496  27.117   5.993 -0.2301 -0.2343  0.3263
85042W        W27954   9.694  26.779   3.759  0.0321 -0.0247 -0.0677
85043W        W27955   7.695  28.102   4.042 -0.0655  0.0493 -0.2599
85044W        W27956   9.296  28.301   5.636 -0.0187  0.1725 -0.0552
85045W        W27957   7.609  23.944   2.761 -0.1993  0.1780 -0.0991
85046W        W27958   9.870  27.870   4.670 -0.4431  0.1183 -0.1707
85047W        W27959   9.429  26.602   6.221 -0.3318 -0.0725  0.0483
85048W        W27960  11.782  26.838   6.119  0.0511  0.0488  0.0754
85049W        W27961   9.201  27.552   5.342  0.2267  0.1770 -0.1486
85050W        W27962   9.951  25.968   4.195 -0.1025  0.1048 -0.1141
85051W        W27963   9.522  25.755   4.168  0.2659 -0.0129  0.0833
85052W        W27964  10.165  26.933   4.523 -0.1347 -0.1069 -0.2477
85053W        W27965   9.522  26.911   6.778  0.1027  0.3473  0.2087
85054W        W27966   8.515  28.214   7.933 -0.0551 -0.0307  0.2470
85055W        W27967   9.669  24.365   5.302  0.0583  0.0289  0.1799
85056W        W27968  10.649  27.111   3.416  0.1026  0.0927  0.1009
85057W        W27969  10.172  27.590   7.062  0.4233 -0.1334  0.0663
85058W        W27970   8.625  27.635   5.267  0.5173 -0.0257 -0.0846
85059W        W27971   7.393  25.828   5.712 -0.3118 -0.0196 -0.0375
85060W        W27972   9.265  27.759   4.539  0.1731 -0.2683 -0.1643
85061W        W27973   9.685  27.403   5.537  0.1298  0.0428 -0.1296
85062W        W27974   7.858  26.193   6.418 -0.0615  0.0987 -0.0110
85063W        W27975   9.602  27.224   4.541  0.1989  0.0319 -0.1505
85064W        W27976   8.209  26.568   6.198  0.0976 -0.1137  0.5073
85065W        W27977  10.841  24.713   4.296 -0.4117 -0.0237 -0.0443
85066W        W27978   9.306  27.036   3.500 -0.0790 -0.1328  0.0281
85067W        W27979  10.526  25.880   5.331  0.2642  0.4376  0.1103
85068W        W27980  10.585  26.924   5.309  0.0522 -0.0465 -0.1255
85069W        W27981   9.544  27.733   4.132 -0.1154  0.1554  0.0377
85070W        W27982   9.308  27.356   7.325  0.1841 -0.2080  0.0599
85071W        W27983   9.666  26.054   6.218 -0.1188  0.1928  0.1328
85072W        W27984  11.035  27.844   5.422  0.1419 -0.3748 -0.2299
85073W        W27985   7.824  26.336   7.330 -0.1201 -0.2006  0.1197
85074W        W27986  10.352  29.610   7.415 -0.3490  0.0204 -0.2618
85075W        W27987   7.597  27.933   7.514 -0.0636 -0.1129 -0.1737
85076W        W27988  10.225  25.096   4.270  0.1882  0.1044 -0.1134
85077W        W27989   9.497  25.143   3.666 -0.0744 -0.2259 -0.1357
85078W        W27990   8.729  27.237   6.564  0.1903 -0.1576 -0.2147
85079W        W27991  10.354  28.431   6.494  0.0474  0.1900  0.0264
85080W        W27992  10.437  28.492   4.835  0.1073 -0.2209  0.1519
85081W        W27993  11.198  25.927   5.728 -0.0264 -0.2434 -0.2997
85082W        W27994   8.463  26.745   4.989 -0.1238  0.1245  0.0726
85083W        W27995  11.418  26.484   3.700 -0.0392  0.0363  0.1079
85084W        W27996  11.227  27.508   5.153  0.1015  0.2543  0.5501
85085W        W27997   9.101  27.454   4.887 -0.0346  0.3112  0.1107
85086W        W27998   8.636  25.746   6.898 -0.1694  0.3629 -0.1057
85087W        W27999  10.988  26.855   4.022 -0.1887 -0.3054 -0.3310
85088W        W28000  10.337  26.189   4.928 -0.0396  0.0207  0.2727
85089W        W28001  10.312  26.128   5.731 -0.0263 -0.1118 -0.1130
85090W        W28002   9.687  27.415   6.892 -0.1542  0.2470 -0.1006
85091W        W28003  10.151  27.867   5.623 -0.0060  0.0351 -0.1569
85092W        W28004   6.638  26.745   7.664  0.1894  0.1702  0.2321
85093W        W28005  10.045  29.044   7.204 -0.2522  0.2084 -0.1885
85094W        W28006  10.657  25.104   2.645  0.1840 -0.0174 -0.1698
85095W        W28007   9.882  26.899   5.709  0.0210  0.1480  0.2113
85096W        W28008  10.880  27.163   4.970  0.3116 -0.1468  0.0038
85097W        W28009  10.989  26.526   3.423  0.0939  0.1231 -0.3622
85098W        W28010   8.744  27.138   5.231 -0.1659 -0.0350  0.0817
85099W        W28011   9.829  26.050   7.825  0.1190  0.1894  0.0481
85100W        W28012   9.702  25.073   3.160  0.5701 -0.1266 -0.3062
85101W        W28013   8.858  27.348   7.044  0.2735  0.1403 -0.0813
85102W        W28014  10.532  28.504   4.258  0.0720  0.2294  0.1118
85103W        W28015  10.846  27.641   6.329  0.0184  0.0350 -0.0606
85104W        W28016  10.348  26.396   2.783  0.0569  0.0994 -0.0047
85105W        W28017   7.335  26.953   5.469 -0.1744 -0.4028  0.0418
85106W        W28018   8.040  28.140   8.689  0.2033  0.0367 -0.2463
85107W        W28019   7.812  26.607   3.461 -0.0871  0.4908 -0.1445
85108W        W28020   8.173  26.576   2.938 -0.1123 -0.0133  0.2935
85109W        W28021   8.811  27.445   5.693  0.0224 -0.0127  0.0678
85110W        W28022  10.679  26.923   7.611  0.1530  0.1137  0.0390
85111W        W28023   8.962  25.154   3.614 -0.0574 -0.0694 -0.1614
85112W        W28024  10.944  26.760   5.704  0.2282  0.2425 -0.1444
85113W        W28025   8.045  27.518   4.651  0.0107  0.1993 -0.0691
85114W        W28026   8.633  25.800   5.081  0.1293 -0.2090  0.0050
85115W        W28027   8.402  28.880   6.100  0.2374 -0.2868 -0.2086
85116W        W28028   7.789  27.529   6.265 -0.1374 -0.0162  0.3969
85117W        W28029   7.250  27.299   7.007  0.4308 -0.0764 -0.0407
85118W        W28030  10.150  25.504   4.950  0.1286  0.0665 -0.0971
85119W        W28031  11.420  28.090   4.539  0.2202 -0.0723 -0.0589
85120W        W28032  10.804  27.385   5.428 -0.1009  0.0056  0.1572
85121W        W28033  11.173  27.206   6.215 -0.0473  0.0057 -0.1205
85122W        W28034   9.265  27.319   6.402 -0.1025 -0.1069  0.0532
85123W        W28035   9.443  28.689   4.727 -0.0671  0.1781  0.0800
85124W        W28036  11.631  29.227   6.156  0.0866  0.0976  0.0371
85125W        W28037  11.512  28.052   3.503  0.0272 -0.3144 -0.0176
85126W        W28038   7.491  27.631   5.871 -0.2330 -0.1454 -0.2528
85127W        W28039   7.744  27.360   6.894 -0.0003  0.1696  0.1812
85128W        W28040   9.700  28.832   6.526 -0.2083  0.1678  0.1395
85129W        W28041  12.019  27.944   4.707  0.0861  0.0407  0.2298
85130W        W28042   8.530  26.287   5.231 -0.0643  0.2112 -0.0020
85131W        W28043   9.677  26.718   4.728  0.5153 -0.3682  0.1226
85132W        W28044   7.315  29.261   8.770 -0.0574  0.0490 -0.2457
85133W        W28045   7.390  26.827   7.273  0.1896  0.2531 -0.1032
85134W        W28046   8.881  27.841   4.123 -0.0412 -0.3198 -0.3273
85135W        W28047  10.054  28.423   4.004 -0.0611 -0.3128  0.1652
85136W        W28048  11.177  27.881   3.220 -0.3641  0.2909  0.0513
85137W        W28049  10.844  29.436   5.505 -0.1282  0.0209  0.1385
85138W        W28050  10.027  25.911   3.706  0.0892  0.1562 -0.0110
85139W        W28051   6.978  27.712   6.017 -0.1036 -0.1130 -0.2016
85140W        W28052   8.190  28.089   4.037 -0.0459 -0.0615 -0.2165
85141W        W28053  11.481  29.142   4.199 -0.0496  0.1198 -0.0007
85142W        W28054   7.645  28.632   4.963  0.0868 -0.2405 -0.2528
85143W        W28055   9.821  28.187   6.441 -0.2313  0.1161  0.4339
85144W        W28056   9.774  24.861   4.077 -0.2592  0.2546 -0.1311
85145W        W28057  10.598  27.610   5.028 -0.0405  0.1355 -0.3128
85146W        W28058  11.162  26.023   2.766 -0.0962 -0.0509 -0.1686
85147W        W28059   9.942  28.620   6.106  0.1114 -0.1248 -0.3048
85148W        W28060   8.000  28.493   5.452  0.0144 -0.0141 -0.1999
85149W        W28061   9.352  27.229   4.047  0.4095  0.1912  0.0446
85150W        W28062   9.210  27.151   5.581  0.1308  0.2112  0.0046
85151W        W28063  10.170  25.913   6.134  0.0214  0.1276 -0.0230
85152W        W28064   8.973  27.870   6.510  0.2904 -0.2554  0.2581
85153W        W28065  11.080  28.383   5.542 -0.1029 -0.1205 -0.1389
85154W        W28066  10.450  26.706   5.734  0.0148 -0.0791  0.3536
85155W        W28067  10.332  27.001   6.193 -0.1731  0.0985  0.0429
85156W        W28068  10.716  25.938   6.594  0.0775  0.0722 -0.1233
85157W        W28069   8.800  26.221   3.633 -0.2831 -0.0805  0.1705
85158W        W28070   8.818  27.008   4.773 -0.0153 -0.0525  0.0622
85159W        W28071   8.874  28.094   4.684 -0.2034  0.1703  0.2204
85160W        W28072   8.810  28.527   5.670 -0.1752  0.2818 -0.1058
85161W        W28073   9.286  29.735   5.675 -0.0515 -0.1412 -0.0084
85162W        W28074   7.386  26.828   4.833  0.0859  0.0632 -0.0657
85163W        W28075  10.248  24.691   3.927  0.3074 -0.2936 -0.2731
85164W        W28076   7.979  27.617   5.800  0.1726  0.1671 -0.2628
85165W        W28077  12.194  26.679   5.812  0.2637 -0.1284 -0.0466
85166W        W28078   8.422  26.447   3.875  0.1915 -0.2629  0.0847
85167W        W28079  11.100  26.625   5.209  0.2474  0.0957 -0.1323
85168W        W28080   9.933  27.280   6.136  0.1835 -0.1940 -0.0012
85169W        W28081   8.481  26.975   6.043 -0.0608 -0.1602 -0.1234
85170W        W28082   9.958  26.680   2.934 -0.0349 -0.2513 -0.0721
85171W        W28083  10.336  26.780   6.625  0.0989 -0.0354  0.1637
85172W        W28084   9.390  26.424   2.666  0.0041 -0.0172 -0.1360
85173W        W28085  10.228  29.870   7.014  0.0591 -0.0734  0.1040
85174W        W28086   9.094  24.925   4.077 -0.0601 -0.1873 -0.0662
85175W        W28087   9.169  25.529   3.855 -0.3499 -0.1110  0.0244
85176W        W28088   8.037  26.868   5.839 -0.1854 -0.0623  0.2562
85177W        W28089   9.002  27.073   6.047  0.1461 -0.0180 -0.3584
85178W        W28090  10.131  28.662   6.853 -0.0374 -0.0711  0.1599
85179W        W28091   6.962  24.451   3.821  0.3274  0.0874  0.2668
85180W        W28092  10.752  28.817   4.612  0.0326 -0.0271  0.4047
85181W        W28093  10.601  26.147   6.164 -0.1028 -0.3269 -0.0726
85182W        W28094   9.196  28.009   3.764  0.1227  0.1612  0.0607
85183W        W28095   9.795  26.792   4.241 -0.0923 -0.2818 -0.0684
85184W        W28096  10.881  29.552   6.314 -0.0465 -0.4148 -0.4162
85185W        W28097   9.676  25.498   6.358 -0.0605 -0.0710  0.3416
85186W        W28098  10.913  30.136   5.745 -0.1856 -0.1138  0.0197
85187W        W28099  11.000  28.108   6.850 -0.1537  0.1125 -0.0346
85188W        W28100  10.018  25.305   3.839  0.0388 -0.0170 -0.0480
85189W        W28101   8.989  26.249   5.563  0.0924  0.0245 -0.2561
85190W        W28102   9.650  28.797   4.228 -0.0245 -0.2435 -0.2250
85191W        W28103  11.411  25.651   5.257 -0.0117 -0.1438 -0.0143
85192W        W28104   9.989  25.851   6.611 -0.0214  0.5307 -0.0889
85193W        W28105   8.778  26.844   3.696  0.1618  0.2980  0.3463
85194W        W28106   9.734  25.379   5.402  0.0251  0.1587 -0.5074
85195W        W28107   9.137  28.893   5.704 -0.0244 -0.1566 -0.1336
85196W        W28108   8.568  29.346   7.403 -0.1766  0.1626  0.2426
85197W        W28109   7.856  25.898   3.411 -0.0562  0.2203  0.0229
85198W        W28110   8.037  28.165   7.736  0.0593  0.1574  0.2338
85199W        W28111  10.926  29.023   4.099  0.0220 -0.1063  0.0312
85200W        W28112   9.862  29.351   3.534  0.3591 -0.3866  0.1026
85201W        W28113  10.529  27.988   5.347  0.0149  0.2102  0.0017
85202W        W28114   9.139  26.027   3.935 -0.3201  0.0246 -0.0161
85203W        W28115  12.241  27.922   6.688 -0.1014  0.0911 -0.0946
85204W        W28116   8.813  26.375   4.296 -0.3396  0.0923  0.2836
85205W        W28117  11.759  25.576   4.126 -0.0140  0.0882  0.0945
85206W        W28118   9.882  23.919   3.478  0.0014 -0.0097 -0.1108
85207W        W28119   6.418  27.917   5.627  0.0978  0.0405  0.1544
85208W        W28120   7.342  26.468   5.271  0.1191  0.2205  0.0058
85209W        W28121   8.297  25.955   3.735 -0.0088  0.2239 -0.1655
85210W        W28122   8.456  27.804   5.815 -0.1237 -0.3093  0.2390
85211W        W28123   9.509  25.273   5.891  0.2137 -0.0688  0.1555
85212W        W28124   7.899  26.894   7.053 -0.0891  0.0295 -0.2313
85213W        W28125   7.449  27.218   4.562  0.2325  0.0426  0.0303
85214W        W28126   8.282  26.282   4.817 -0.1473  0.0872 -0.0142
85215W        W28127  10.914  28.754   3.694  0.0975  0.2330  0.0657
85216W        W28128   8.963  26.692   5.242  0.2484 -0.1492  0.1049
85217W        W28129   8.048  24.960   5.364  0.1142 -0.1145 -0.2262
85218W        W28130  10.305  28.034   3.526  0.1345 -0.0960  0.2040
85219W        W28131  10.894  28.311   4.579 -0.3211 -0.0047 -0.2851
85220W        W28132   8.730  25.302   4.042  0.3440  0.0569  0.1345
85221W        W28133  10.696  29.274   7.707 -0.1192 -0.0876 -0.1793
85222W        W28134   7.350  28.018   4.580  0.0874  0.0080  0.1928
85223W        W28135   8.347  26.863   6.618 -0.3060 -0.0641 -0.0474
85224W        W28136   8.982  27.657   7.545  0.3648 -0.0275 -0.0361
85225W        W28137   7.266  24.728   3.492 -0.2783 -0.2001  0.1012
85226W        W28138  10.766  25.925   4.383  0.0027 -0.0106  0.1730
85227W        W28139  11.213  29.231   7.033  0.0948 -0.1168  0.0097
85228W        W28140   9.613  30.056   3.985 -0.2760  0.0175  0.1042
85229W        W28141   8.297  27.857   6.447  0.1768 -0.0078  0.2961
85230W        W28142  10.443  27.912   6.638  0.1262  0.1212 -0.0897
85231W        W28143   6.609  25.616   6.417  0.0001 -0.0554  0.1068
85232W        W28144  10.533  27.117   4.104  0.0252 -0.1399  0.3123
85233W        W28145   8.577  28.644   6.984 -0.1087 -0.2166 -0.2148
85234W        W28146  10.576  26.681   3.740 -0.2019  0.2420  0.1323
85235W        W28147  11.268  25.687   4.280 -0.1058 -0.0660 -0.1594
85236W        W28148  10.145  26.909   3.649 -0.2576  0.0995 -0.0503
85237W        W28149   7.114  26.909   7.698 -0.0725 -0.3158  0.0705
85238W        W28150   9.232  27.623   5.865 -0.1444 -0.2366 -0.1041
85239W        W28151  10.244  27.324   6.616  0.1435  0.2041  0.4611
85240W        W28152   8.599  23.989   4.306  0.0370 -0.0372  0.1450
85241W        W28153   9.932  24.888   3.560  0.1344 -0.0459  0.2620
85242W        W28154  10.122  27.499   5.307 -0.1829  0.0241 -0.2329
85243W        W28155   9.804  27.427   4.944  0.1351  0.0387 -0.3991
85244W        W28156   9.174  25.953   3.434 -0.1248  0.1990  0.1528
85245W        W28157   9.975  27.916   7.466 -0.2568  0.0674 -0.0526
85246W        W28158   9.499  27.794   6.524 -0.1537 -0.2099  0.1406
85247W        W28159  11.018  27.190   7.968 -0.1663 -0.1936 -0.2432
85248W        W28160   9.019  25.656   4.348 -0.0226  0.0824 -0.0297
85249W        W28161  11.522  25.927   3.843  0.0341  0.1548  0.0297
85250W        W28162  10.247  30.140   6.559 -0.0760  0.3201 -0.2805
85251W        W28163  10.215  28.994   7.661 -0.2093  0.7531  0.1653
85252W        W28164  10.295  28.685   5.731 -0.3137 -0.0945 -0.0804
85253W        W28165  11.372  27.695   6.228  0.0162 -0.0515 -0.3308
85254W        W28166   7.561  25.887   6.199  0.0837 -0.0054 -0.0732
85255W        W28167   8.562  27.444   4.056  0.2133  0.0596 -0.1762
85256W        W28168  11.015  27.824   4.753  0.3031  0.0465 -0.1628
85257W        W28169  10.212  26.470   6.139  0.1649 -0.0267 -0.0923
85258W        W28170   7.727  27.185   5.736  0.0341  0.0012 -0.0455
85259W        W28171  10.606  24.616   2.635  0.1778  0.0747  0.2934
85260W        W28172   9.498  28.617   8.041  0.0748 -0.2733 -0.3365
85261W        W28173  10.088  28.177   6.907 -0.1659 -0.0536  0.0644
85262W        W28174   7.446  29.011   9.549 -0.1432 -0.3077 -0.1357
85263W        W28175   8.086  26.068   8.455  0.1412 -0.1733 -0.0507
85264W        W28176  11.166  26.912   6.645 -0.3595 -0.0550  0.1789
85265W        W28177   9.788  27.006   8.128 -0.1732 -0.1970 -0.2220
85266W        W28178   7.446  25.996   7.854  0.1074  0.1071  0.0986
85267W        W28179  10.172  28.736   8.650  0.1369 -0.1002 -0.0248
85268W        W28180   8.460  27.430   9.000  0.1127  0.0775  0.3160
85269W        W28181  10.534  29.572   9.201 -0.1596 -0.1438  0.1750
85270W        W28182   9.203  27.871   8.053 -0.0996  0.2142 -0.0321
85271W        W28183   9.261  25.619   8.681  0.2047 -0.0073 -0.0802
85272W        W28184   7.727  27.888   9.129 -0.0125 -0.4023  0.1957
85273W        W28185   5.849  24.819   9.559 -0.1112  0.0803  0.0925
85274W        W28186   9.995  28.721   8.103  0.1892  0.0557  0.0375
85275W        W28187   7.443  26.733   8.376 -0.4232  0.1312  0.2620
85276W        W28188   8.236  27.855   9.092  0.1366  0.1490  0.2186
85277W        W28189   8.757  26.861   8.308  0.2248 -0.2125  0.0621
85278W        W28190   8.486  29.617   9.530  0.1885 -0.1010 -0.1730
85279W        W28191   6.748  26.683   9.981  0.2863  0.0292 -0.0893
85280W        W28192   9.133  28.987   8.096 -0.3987  0.1673  0.0508
85281W        W28193   7.404  26.449   7.582 -0.2354 -0.1512 -0.1509
85282W        W28194   6.279  27.764   9.121  0.0764  0.0241 -0.0651
85283W        W28195   7.893  26.399   7.827  0.0057  0.0536 -0.0632
85284W        W28196   7.428  25.783   8.288 -0.1960  0.2317 -0.0600
85285W        W28197  10.172  27.391   8.300  0.0899  0.0501  0.0981
85286W        W28198  10.298  29.979   9.418 -0.0360 -0.2076 -0.0261
85287W        W28199   8.105  30.960   9.657  0.3491  0.2477  0.0801
85288W        W28200   7.601  27.997  10.280  0.0252  0.3443  0.1038
85289W        W28201   8.235  29.446   8.260  0.0929 -0.1116  0.0045
85290W        W28202   7.591  27.434   9.181  0.1852  0.1532 -0.0424
85291W        W28203  10.344  28.509   9.696 -0.2533 -0.0212  0.2312
85292W        W28204   7.154  27.907   8.202  0.1003 -0.3277 -0.4803
85293W        W28205   8.051  26.587   9.679  0.0110 -0.2194 -0.1212
85294W        W28206   9.503  26.712   9.405 -0.0990  0.0427  0.3307
85295W        W28207   7.647  28.580   8.477 -0.5580 -0.3501  0.2019
85296W        W28208   9.332  28.164   9.193  0.0131  0.1207 -0.3867
85297W        W28209   6.867  27.676   8.705  0.2554  0.1705  0.2117
85298W        W28210  10.308  27.817   8.783  0.1143 -0.2155  0.0376
85299W        W28211  10.057  25.237   8.030 -0.0964 -0.1713  0.1023
85300W        W28212   8.728  26.814   6.958 -0.2071  0.0714  0.1390
85301W        W28213  10.341  26.272   6.568 -0.2645 -0.1577 -0.1982
85302W        W28214   9.251  27.067   9.181 -0.0746  0.2994 -0.2306
85303W        W28215   8.493  27.809   8.632 -0.1411 -0.0255 -0.1400
85304W        W28216  10.316  24.534   9.175  0.1298 -0.0465  0.0314
85305W        W28217   8.584  27.283   7.508  0.3321 -0.2196 -0.2459
85306W        W28218  10.273  25.810   8.708 -0.0782 -0.0865 -0.1836
85307W        W28219   9.320  29.466   9.673 -0.1229 -0.0035 -0.3436
85308W        W28220   7.985  27.125   8.884  0.1567 -0.0202  0.1164
85309W        W28221   9.896  27.743   8.520 -0.3828 -0.0332 -0.1378
85310W        W28222  10.401  28.388   8.145  0.2145 -0.2344 -0.3697
85311W        W28223   9.322  28.923   8.840  0.1590 -0.3150  0.0437
85312W        W28224   8.349  26.891   7.873  0.0865 -0.1123 -0.0811
85313W        W28225   8.729  25.654   7.990  0.3960 -0.1885  0.0129
85314W        W28226  10.364  24.942   8.758 -0.2083  0.1012  0.0309
85315W        W28227  10.666  28.203   8.788 -0.0535 -0.0763  0.0794
85316W        W28228   9.730  29.322   8.933 -0.0132  0.2122 -0.0130
85317W        W28229  10.532  27.573   7.962  0.1703  0.1238  0.2045
85318W        W28230   8.531  25.204   9.283 -0.4695 -0.0637 -0.1937
85319W        W28231  10.610  24.086   9.079  0.0934  0.3056  0.1379
85320W        W28232   7.691  27.590   5.303 -0.1205  0.2292 -0.0317
85321W        W28233   9.232  27.672   6.958 -0.0352 -0.1391 -0.0320
85322W        W28234  10.823  28.933   9.844 -0.0570  0.2127 -0.1830
85323W        W28235  11.497  27.340   7.161  0.1517  0.4430  0.1046
85324W        W28236   8.549  28.333   8.845  0.0476  0.1520 -0.2284
85325W        W28237   6.872  28.782   8.048  0.1967  0.2469  0.0165
85326W        W28238   7.223  27.901   8.953  0.0314 -0.2164 -0.0803
85327W        W28239   6.628  27.807   8.244 -0.1991 -0.2531  0.0376
85328W        W28240   6.507  26.139   9.479 -0.1529 -0.0002 -0.0820
85329W        W28241   8.879  27.338   8.811  0.1761 -0.1614 -0.3330
85330W        W28242   9.974  25.141   7.552 -0.0746 -0.0591  0.2771
85331W        W28243  11.530  23.985  10.432 -0.0889 -0.0276  0.0681
85332W        W28244   7.803  28.296   7.305 -0.1922 -0.0847 -0.2900
85333W        W28245  10.506  28.950   8.056  0.1597  0.0708  0.1341
85334W        W28246  11.203  26.476   6.975  0.0550 -0.0757  0.2378
85335W        W28247   9.722  28.340   7.243  0.2877  0.2133 -0.0618
85336W        W28248   8.186  26.174   9.371 -0.3709  0.2526 -0.0925
85337W        W28249   7.528  26.941   9.022  0.0152 -0.0040 -0.0365
85338W        W28250   6.321  25.731  10.127  0.2872  0.0258  0.2314
85339W        W28251   6.239  25.713   6.847  0.1984 -0.0615  0.1465
85340W        W28252  10.725  28.744   8.482 -0.0961  0.0783  0.2075
85341W        W28253   8.939  26.190   9.692 -0.1096 -0.0293 -0.1214
85342W        W28254   6.426  27.353   8.429  0.0124 -0.1141  0.1277
85343W        W28255   9.486  30.374   7.270 -0.1809 -0.1189 -0.4109
85344W        W28256  10.739  27.720  10.245 -0.3898  0.0787  0.0148
85345W        W28257  10.085  29.342   9.380 -0.1237  0.1850 -0.0988
85346W        W28258   8.064  24.347   8.211  0.2180  0.1427 -0.2088
85347W        W28259   6.827  26.954   8.111 -0.3913  0.0072 -0.0136
85348W        W28260   7.591  28.336   8.915 -0.1423 -0.0286 -0.0912
85349W        W28261   9.021  28.435   8.959  0.2119  0.1127 -0.0851
85350W        W28262   9.053  27.368   7.936  0.2073 -0.1887  0.0953
85351W        W28263  10.370  25.676   9.714  0.1877  0.0577 -0.1403
85352W        W28264   9.755  27.857   8.054  0.3106  0.2372  0.5776
85353W        W28265   8.973  28.380   9.485  0.0136 -0.1108 -0.0245
85354W        W28266   9.849  27.503   9.001 -0.1680 -0.0696  0.3560
85355W        W28267   7.044  26.164   7.029  0.4536  0.0645  0.1773
85356W        W28268  10.979  28.821   7.911  0.0912 -0.0324  0.0905
85357W        W28269   8.334  28.654   7.740 -0.0264 -0.1572  0.0189
85358W        W28270   7.141  27.080   8.505  0.0936 -0.2914  0.1122
85359W        W28271   8.977  28.095   8.487  0.0486 -0.1933  0.3080
85360W        W28272  11.474  24.162   9.862 -0.1903 -0.2450  0.0355
85361W        W28273   9.863  27.332   7.355  0.1411 -0.1684 -0.0953
85362W        W28274   8.749  25.567   8.501  0.2640 -0.1180 -0.2449
85363W        W28275  11.478  26.072   7.946 -0.2060 -0.2531 -0.2563
85364W        W28276  10.463  26.848   8.473  0.0242 -0.0166 -0.0765
85365W        W28277  10.022  26.890   7.553 -0.0578 -0.0669 -0.1365
85366W        W28278   9.913  26.219   7.107 -0.0833  0.0074 -0.2292
85367W        W28279   9.869  27.986   9.070  0.1706  0.1935 -0.2876
85368W        W28280   8.167  27.468   9.909 -0.1749  0.0207 -0.0666
85369W        W28281   9.517  26.246   7.487 -0.0883  0.3020  0.2475
85370W        W28282  11.226  28.650   8.369  0.5709 -0.0242 -0.0149
85371W        W28283   7.513  26.634   9.765 -0.0581 -0.2439 -0.2406
85372W        W28284  10.139  28.259   8.574  0.1600  0.2255 -0.1266
85373W        W28285   8.537  25.096   8.765  0.2924  0.2923  0.0662
85374W        W28286   8.816  26.857   7.555  0.0151  0.0443  0.1690
85375W        W28287   8.247  25.593   8.323 -0.2008  0.2172 -0.2465
85376W        W28288   8.347  29.653   7.808 -0.0875 -0.0719 -0.0235
85377W        W28289   8.306  25.318   7.898  0.0728  0.1229  0.2150
85378W        W28290  11.170  26.930   9.825  0.1377  0.1367 -0.3469
85379W        W28291   9.381  26.233   9.069 -0.3027 -0.1878 -0.0769
85380W        W28292   9.831  26.241   8.828  0.2689  0.1727 -0.2764
85381W        W28293   8.773  26.316   7.081  0.2039  0.1443  0.2167
85382W        W28294   9.092  24.888   9.653  0.1640 -0.0285  0.2382
85383W        W28295   5.091  29.421   9.735  0.0065 -0.0284  0.2249
85384W        W28296  10.760  27.525   8.828  0.2502  0.2853 -0.0028
85385W        W28297   9.099  25.871   8.260  0.0881 -0.1160 -0.3422
85386W        W28298   8.013  29.290   7.718  0.2049  0.0073 -0.2916
85387W        W28299   8.299  27.284   7.020 -0.0093  0.0912 -0.0731
85388W        W28300   8.380  25.960   8.924  0.2314 -0.0827  0.2064
85389W        W28301   9.454  27.911   8.725  0.1505 -0.1881 -0.0741
85390W        W28302   9.338  29.410   7.875 -0.1463 -0.2091  0.2213
85391W        W28303  12.016  31.004   9.689 -0.1022  0.1018 -0.1594
85392W        W28304   7.241  28.276   9.301 -0.0457  0.1501 -0.4633
85393W        W28305   9.067  26.688   9.984  0.0616 -0.0588  0.5471
85394W        W28306   7.084  29.309   9.211  0.0280 -0.1440  0.5189
85395W        W28307   7.493  27.197   7.621 -0.0811 -0.0764  0.0335
85396W        W28308   6.146  26.948   7.699  0.0815  0.0106 -0.1492
85397W        W28309   8.275  25.457   8.896  0.0383 -0.0499 -0.0011
85398W        W28310  10.105  25.701   8.256 -0.0208  0.1609  0.1194
85399W        W28311   6.848  25.431   9.960 -0.0255 -0.2017  0.0866
85400W        W28312   8.373  25.668   9.341  0.2178  0.1482  0.1492
85401W        W28313   7.646  28.579   9.404  0.3184 -0.1988  0.2719
85402W        W28314  10.404  26.020   6.997  0.1297  0.0313  0.1409
85403W        W28315   7.422  27.228   8.112 -0.2652 -0.2618  0.2103
85404W        W28316  11.926  25.248  10.154 -0.3325 -0.1743  0.0793
85405W        W28317   9.532  26.636   8.321  0.0126  0.0927  0.2867
85406W        W28318   5.832  28.023   8.285  0.0553  0.5587  0.0047
85407W        W28319   9.738  27.819   9.550 -0.1827 -0.1568  0.1825
85408W        W28320   8.166  27.374   8.382  0.1068 -0.2880  0.3702
85409W        W28321   7.896  27.225   7.973  0.2439  0.0591  0.0070
85410W        W28322   9.402  27.644   9.250  0.0174 -0.0791  0.1406
85411W        W28323   7.984  25.908   7.579  0.1268 -0.2305 -0.2735
85412W        W28324   7.148  26.174   8.444  0.0367 -0.1879 -0.1903
85413W        W28325   8.510  27.019   8.726 -0.1666 -0.1088  0.1676
85414W        W28326   9.518  26.675   8.863  0.1160 -0.2353 -0.3068
85415W        W28327  10.828  26.717   9.274  0.3536 -0.3359  0.1140
85416W        W28328   7.268  25.864   8.763  0.3958 -0.0449  0.1575
85417W        W28329  10.654  29.870   8.583 -0.1861 -0.0549  0.0672
85418W        W28330   8.548  26.461   8.753 -0.0065 -0.1084 -0.2124
85419W        W28331   6.470  29.769   9.202 -0.5587  0.1481  0.2580
85420W        W28332   9.091  27.588   8.446 -0.3684  0.2148  0.1634
85421W        W28333   9.591  24.790   9.745  0.1152 -0.2824 -0.1520
85422W        W28334   8.591  28.562   9.835 -0.2607 -0.0538 -0.2170
85423W        W28335   8.717  28.693   8.169  0.0572  0.2060  0.0035
85424W        W28336   6.251  27.251   8.941  0.0271 -0.3156  0.0647
85425W        W28337   9.016  26.535   9.296  0.1864 -0.0224  0.0533
85426W        W28338   9.855  30.209   8.336 -0.0769  0.1146  0.2338
85427W        W28339   7.936  27.441  10.397  0.0944 -0.0822  0.2093
85428W        W28340  10.455  28.071   7.687  0.1659  0.1887  0.1128
85429W        W28341   5.877  25.414  10.001  0.1132 -0.2052  0.0902
85430W        W28342   9.992  27.471   7.842  0.1686 -0.0891 -0.1113
85431W        W28343   9.155  26.732   7.962  0.1401  0.1364  0.2215
85432W        W28344   6.912  26.280   7.580  0.0094 -0.3258  0.1483
85433W        W28345   7.942  27.012   9.426  0.1383  0.2485 -0.0360
85434W        W28346  10.413  26.708   9.011  0.1508  0.0466 -0.3603
85435W        W28347   8.193  27.920   8.251  0.2055  0.1508  0.0018
85436W        W28348  10.758  26.432   8.791 -0.0413  0.1441  0.0705
85437W        W28349   4.235  26.549   9.605  0.4374 -0.3532 -0.3724
85438W        W28350  10.067  26.592   8.038  0.0202  0.0247 -0.2159
85439W        W28351   9.260  28.077   7.326  0.3679 -0.3731  0.0062
85440W        W28352   8.924  27.434   9.320 -0.1718 -0.0056  0.2280
85441W        W28353  10.270  28.989   9.855  0.2940  0.0993 -0.1514
85442W        W28354  11.236  28.386   9.392 -0.1603 -0.1691 -0.1174
85443W        W28355   8.534  26.515   9.543 -0.0508 -0.3280  0.2399
85444W        W28356  11.153  26.807   7.312  0.0283  0.2448 -0.0679
85445W        W28357   9.998  25.965   9.369  0.0380  0.0327 -0.1892
85446W        W28358  10.412  26.297   8.453 -0.1059  0.1678 -0.2336
85447W        W28359  10.274  27.928   8.174 -0.1558 -0.0545 -0.0681
85448W        W28360   7.196  24.602   9.748  0.0618  0.0290 -0.1263
85449W        W28361   7.409  26.029   7.344  0.0280 -0.1270 -0.0080
85450W        W28362   9.483  29.264   8.407  0.2277 -0.0141 -0.0252
85451W        W28363  10.573  28.199   9.996  0.2193  0.1457  0.0706
85452W        W28364   9.161  25.765   7.777  0.2063  0.2723  0.1597
85453W        W28365   6.956  26.614   8.547 -0.1359  0.0401  0.2360
85454W        W28366   8.289  26.534   7.022  0.0089  0.1198  0.1035
85455W        W28367   8.441  27.796   7.679  0.1115 -0.1638  0.1689
85456W        W28368  10.365  26.516   9.534  0.0890  0.2469 -0.1440
85457W        W28369   9.376  26.258   8.012 -0.0663  0.0397 -0.1626
85458W        W28370   7.690  27.137   8.499 -0.2797 -0.1867 -0.1636
85459W        W28371   9.623  25.765   9.737 -0.1322  0.2224 -0.0355
85460W        W28372   9.126  27.959   9.672 -0.1016 -0.3210  0.0382
85461W        W28373   8.218  26.637   9.100 -0.0356  0.0506  0.0004
85462W        W28374  14.785  24.857   9.930 -0.0339 -0.2235 -0.0299
85463W        W28375  10.537  25.062   9.849 -0.1266  0.1431 -0.6280
85464W        W28376   7.876  27.589   8.727 -0.3201  0.1634  0.1923
85465W        W28377  10.045  25.882  10.115  0.0663  0.0423 -0.1399
85466W        W28378  11.191  28.105   8.502 -0.2915 -0.1123 -0.1308
85467W        W28379   7.907  27.069   9.918 -0.0035  0.0268  0.3528
85468W        W28380  10.688  27.763   7.293  0.3871 -0.4625  0.1134
85469W        W28381   8.824  26.163   7.925 -0.3092  0.2946  0.0049
85470W        W28382   9.612  29.330   6.824  0.2014  0.0916  0.0062
85471W        W28383   7.430  27.061   9.509  0.2009 -0.2924  0.0665
85472W        W28384   8.461  28.318   8.370  0.0079  0.1857 -0.5429
85473W        W28385  10.433  27.090   7.216 -0.0095  0.0257  0.0652
85474W        W28386   9.173  28.584   8.468  0.3313  0.3178  0.1756
85475W        W28387   9.664  28.776   8.486  0.2114 -0.2066 -0.1620
85476W        W28388   7.877  26.822   7.539 -0.4214 -0.1216 -0.2007
85477W        W28389   7.672  28.859   8.934 -0.1132 -0.0930 -0.1412
85478W        W28390   7.237  28.158   7.756  0.3026  0.0049  0.1017
85479W        W28391   9.493  28.189   7.742  0.1567 -0.1839 -0.2481
85480W        W28392   6.667  28.346   8.437 -0.0520  0.1088  0.1935
85481W        W28393  10.642  25.768   5.826  0.2866 -0.0665  0.1343
85482W        W28394  10.132  27.514   9.405 -0.0622 -0.1139  0.0177
85483W        W28395  10.968  26.166   8.214  0.3955 -0.0386 -0.2835
85484W        W28396   9.496  27.357   8.213  0.2841 -0.0907  0.1429
85485W        W28397   9.928  26.172   8.384 -0.3014 -0.0269  0.1322
85486W        W28398  11.514  28.197   8.854  0.3763  0.2946 -0.2206
85487W        W28399   7.853  26.688   8.741  0.2301 -0.1287 -0.0280
85488W        W28400   9.774  26.893  10.047 -0.0250 -0.1571  0.3601
85489W        W28401   9.508  28.282   9.737  0.3101  0.1622 -0.2478
85490W        W28402   9.607  28.241   8.358 -0.2719 -0.0302 -0.1083
85491W        W28403  10.315  27.259   8.754  0.1319  0.4093  0.2109
85492W        W28404   8.138  28.561   9.007 -0.0341  0.2643  0.1148
85493W        W28405  11.021  28.417  10.006 -0.5348  0.2136 -0.1111
85494W        W28406  10.605  27.657   9.648  0.2983 -0.1863  0.3078
85495W        W28407   6.859  25.789   7.458 -0.1112  0.0994  0.4097
85496W        W28408  11.178  25.831   9.635  0.0433 -0.4019 -0.1692
85497W        W28409   9.974  26.993   9.027  0.2286  0.2553 -0.1616
85498W        W28410  10.130  27.735  10.503  0.1383  0.2318  0.0275
85499W        W28411   9.623  25.183   8.950 -0.1283 -0.3629 -0.2067
85500W        W28412   9.206  27.001   8.426  0.2589  0.2674 -0.2475
85501W        W28413   7.797  25.522   8.715 -0.3801 -0.2528 -0.0070
85502W        W28414   9.712  26.729   7.189  0.0616  0.2489  0.0420
85503W        W28415  10.751  26.422   7.172 -0.0830 -0.0510 -0.2100
85504W        W28416   9.085  24.403   9.613  0.3921  0.1423 -0.2242
85505W        W28417   9.451  26.187   8.520 -0.2206  0.1573  0.1061
85506W        W28418   7.870  28.351   9.902  0.1424  0.2067 -0.0513
85507W        W28419   8.390  26.929   9.795 -0.4605  0.0484 -0.1136
85508W        W28420   6.877  26.072   8.006  0.0183  0.0597 -0.3284
85509W        W28421  11.513  28.014   7.561 -0.0455 -0.0859 -0.2473
85510W        W28422   9.936  26.307   9.754  0.2297 -0.0021  0.1270
85511W        W28423   8.487  29.095   7.825 -0.0802 -0.2299 -0.0103
85512W        W28424  10.363  26.696  10.046  0.1154 -0.1479 -0.1339
85513W        W28425  10.600  27.798   9.181 -0.0493 -0.0183 -0.0297
85514W        W28426   7.939  25.699   9.623  0.3214  0.1560  0.0038
85515W        W28427  12.151  29.194  10.087  0.0637 -0.0954 -0.1537
85516W        W28428  10.271  28.048   9.493  0.0467  0.0305 -0.0823
85517W        W28429   9.014  26.587   8.774 -0.1056 -0.0479 -0.2098
85518W        W28430   7.660  27.476   9.769 -0.0744  0.1525  0.1863
85519W        W28431   8.539  29.545   8.655  0.2343  0.0669 -0.1263
85520W        W28432  10.620  26.986   9.678  0.1651  0.0839 -0.2137
85521W        W28433   9.443  28.293   6.779  0.2049 -0.0878  0.0720
85522W        W28434   9.975  26.481   9.264  0.4368  0.0113 -0.2438
85523W        W28435   8.575  27.785   7.215  0.0348 -0.1311 -0.0894
85524W        W28436   9.640  27.189   9.511  0.0265  0.1083 -0.0138
85525W        W28437   8.558  28.615   9.255  0.2242 -0.0552 -0.1215
85526W        W28438   9.029  28.333  10.096  0.1054 -0.1314 -0.3279
85527W        W28439   9.668  26.631   7.829 -0.2667 -0.1847 -0.0765
85528W        W28440  11.568  27.654   8.714 -0.2627  0.1226 -0.1129
85529W        W28441   8.245  25.178   9.728 -0.2050 -0.0830 -0.0965
85530W        W28442  10.978  25.470   8.997 -0.1513  0.1442 -0.0028
85531W        W28443  10.197  24.366   8.249 -0.2266 -0.1238 -0.0568
85532W        W28444   7.859  26.607  10.147 -0.0743  0.1585 -0.0356
85533W        W28445   7.629  28.109   8.095  0.2793 -0.0082  0.1674
85534W        W28446   7.945  27.704   7.859  0.0086 -0.0216 -0.0943
85535W        W28447   6.816  27.522   9.164  0.2946 -0.3160  0.0060
85536W        W28448   8.945  26.018   8.815  0.2593  0.0654 -0.2141
85537W        W28449   7.570  25.549   7.512 -0.0561  0.0205 -0.0491
85538W        W28450  10.341  27.534   7.518  0.3188  0.0391 -0.0422
85539W        W28451   8.373  24.823   8.286 -0.3936  0.1589 -0.2832
85540W        W28452   6.964  25.383   9.136 -0.3382 -0.2576 -0.0420
85541W        W28453   8.698  27.792   8.112  0.2265  0.0364  0.2733
85542W        W28454  10.244  28.353   9.073  0.0492 -0.0135  0.3592
85543W        W28455   7.997  26.112   6.954  0.0435  0.0975  0.0978
85544W        W28456   7.688  28.311   6.728 -0.2110 -0.0064 -0.0609
85545W        W28457   7.252  25.504   7.888 -0.0844 -0.1749 -0.0526
85546W        W28458   9.338  27.528   9.783 -0.2637  0.0920  0.0705
85547W        W28459   8.703  27.359   8.372  0.2994  0.3190  0.2492
85548W        W28460   9.286  28.911   7.534 -0.0135 -0.2952  0.0590
85549W        W28461   5.235  24.070   9.154 -0.1657  0.0330 -0.0657
85550W        W28462  11.001  27.722   8.106  0.0838 -0.1463  0.4927
85551W        W28463  10.983  28.003   7.661  0.0600 -0.0581 -0.1420
85552W        W28464  10.509  25.699   9.174 -0.0199 -0.1314 -0.3152
85553W        W28465   9.518  27.650   7.658 -0.0939  0.0302  0.1537
85554W        W28466   9.995  26.365  10.247  0.1552  0.3265 -0.1533
85555W        W28467   8.311  26.436   8.266 -0.1896  0.0709 -0.0206
85556W        W28468   8.817  25.367   7.560 -0.2468 -0.0103  0.2615
85557W        W28469  10.166  28.499   7.394  0.1858  0.0816 -0.1537
85558W        W28470   4.519  27.613   9.800  0.1079 -0.2207  0.1388
85559W        W28471  10.189  25.588   7.754  0.2884 -0.2209  0.0702
85560W        W28472   9.585  28.399   8.823  0.1314 -0.1410  0.0874
85561W        W28473   9.017  26.351   7.471  0.0266 -0.3251  0.1221
85562W        W28474  10.812  27.242   8.453 -0.0136 -0.0213  0.1373
85563W        W28475   9.607  31.061   9.828  0.2025  0.2071 -0.2549
85564W        W28476   7.235  27.755   9.994  0.1477 -0.0517 -0.0882
85565W        W28477  10.430  27.352  10.096  0.0173 -0.1745  0.1686
85566W        W28478   5.411  25.766   9.686  0.1632  0.0420 -0.0142
85567W        W28479   9.467  27.115   7.728  0.1026  0.0526  0.0436
85568W        W28480   9.814  27.175   8.629 -0.1407 -0.1124  0.2546
85569W        W28481   9.418  26.313   9.687 -0.0568 -0.0310 -0.1192
85570W        W28482   8.922  26.956   9.572  0.0756  0.2784 -0.3983
85571W        W28483  11.048  25.333  10.044  0.0229  0.2872 -0.0653
85572W        W28484   8.475  26.984   9.297  0.1376  0.1672 -0.2818
85573W        W28485   8.994  26.405   8.340  0.1660  0.1524  0.2134
85574W        W28486   8.764  31.795   1.852  0.1620 -0.2750 -0.0388
85575W        W28487  10.051  30.857   0.207  0.0606 -0.3417  0.0661
85576W        W28488  11.235  30.580   0.128  0.1657  0.1198 -0.0088
85577W        W28489  10.864  30.986  31.312  0.0355  0.1771 -0.0464
85578W        W28490   6.521  29.843   1.603  0.1911 -0.0422  0.0024
85579W        W28491  10.565  33.316   0.182 -0.1508  0.1381  0.3431
85580W        W28492   9.811  29.382   2.731  0.0054  0.4534  0.4568
85581W        W28493   9.214  31.779   1.277 -0.0583 -0.0828  0.2000
85582W        W28494  10.437  31.788   2.534 -0.1280  0.2346  0.3056
85583W        W28495  10.378  30.564  31.875 -0.2294 -0.0832  0.0711
85584W        W28496   8.949  29.391   2.633  0.0821 -0.1860 -0.2741
85585W        W28497   8.867  32.348   2.604  0.0959  0.1256  0.1970
85586W        W28498  10.458  29.978   0.954  0.3227 -0.1574 -0.0316
85587W        W28499   9.037  28.893   2.556  0.2030  0.3602 -0.2444
85588W        W28500  11.305  30.074   4.098  0.0830 -0.0263 -0.3686
85589W        W28501   8.204  29.784   0.541 -0.0529 -0.0461 -0.2302
85590W        W28502   9.282  30.294   1.565 -0.0704 -0.0755 -0.0444
85591W        W28503  10.944  29.807   0.232  0.0317  0.0494 -0.2213
85592W        W28504   8.906  33.247   1.276 -0.0830  0.0049 -0.0292
85593W        W28505  10.641  28.251   2.752  0.4070 -0.1678 -0.2715
85594W        W28506  10.311  27.964   2.505 -0.3646  0.0657 -0.0906
85595W        W28507   9.464  31.787   0.210  0.1646 -0.1923 -0.1332
85596W        W28508   8.263  27.918   0.184 -0.0404  0.0775 -0.0289
85597W        W28509   7.500  29.200   1.871 -0.0995 -0.1785  0.1804
85598W        W28510   8.492  30.117   2.180  0.0540 -0.2518  0.2081
85599W        W28511   8.530  31.292   1.980  0.2518 -0.0568 -0.0763
85600W        W28512  10.973  30.007   1.331  0.2305 -0.1232 -0.1524
85601W        W28513  10.125  33.155   1.795 -0.1924  0.0699  0.0326
85602W        W28514   9.624  32.109   1.482  0.2100  0.1229  0.1651
85603W        W28515   9.778  30.078   4.476 -0.0549 -0.0874  0.1943
85604W        W28516   8.760  30.465   2.425 -0.0201  0.0309 -0.1984
85605W        W28517   8.301  32.232   0.743  0.0847  0.1707  0.0385
85606W        W28518   9.100  32.667   0.476  0.1380  0.2155 -0.1996
85607W        W28519  12.052  31.343   0.612  0.0051  0.1100 -0.1808
85608W        W28520   9.970  33.530   3.255  0.3463 -0.0201  0.2560
85609W        W28521   8.791  33.217   2.926 -0.0195 -0.3509  0.1225
85610W        W28522   6.526  30.656   0.530  0.1775 -0.1136 -0.2375
85611W        W28523   8.746  33.264   3.859 -0.0041 -0.0136 -0.2403
85612W        W28524   9.298  30.670   3.448 -0.0147  0.2443 -0.0958
85613W        W28525  10.042  30.949   3.761  0.1014  0.0785 -0.1106
85614W        W28526  10.087  30.207   2.754  0.1998  0.2840 -0.0059
85615W        W28527   8.295  32.237   0.228  0.0226 -0.0998 -0.0880
85616W        W28528  10.639  31.853   1.018 -0.1540  0.0448  0.0278
85617W        W28529   8.597  31.403   3.704 -0.0886  0.1190  0.2128
85618W        W28530   6.842  31.271   2.456  0.1693  0.0143 -0.0439
85619W        W28531  12.458  29.520   5.320 -0.0125  0.1864  0.0256
85620W        W28532   7.957  31.890   0.250  0.0685  0.1910  0.1472
85621W        W28533   9.431  30.143   0.053  0.0272  0.1014 -0.0174
85622W        W28534   8.240  28.433  31.185 -0.1041  0.4044  0.0105
85623W        W28535   9.099  28.442  29.935 -0.2419  0.1215 -0.3183
85624W        W28536  10.117  30.470   1.763  0.3009  0.0750  0.1146
85625W        W28537   8.580  32.478   1.209 -0.0713 -0.3730  0.3920
85626W        W28538   8.982  29.535   1.862 -0.1453 -0.0022 -0.2000
85627W        W28539   9.655  31.658   1.124 -0.0510  0.1838  0.0420
85628W        W28540   9.815  29.848   0.282  0.4432 -0.0295  0.1954
85629W        W28541   9.431  31.338   2.575 -0.1517  0.2491 -0.0884
85630W        W28542   8.978  31.530   2.775 -0.1275 -0.0096 -0.0654
85631W        W28543   9.054  30.075   1.206  0.1120 -0.2588  0.0693
85632W        W28544  10.729  31.852   0.313 -0.0815  0.1243  0.1369
85633W        W28545  11.000  30.708   1.861  0.0217 -0.1812  0.0032
85634W        W28546   8.666  33.291  31.552 -0.1648 -0.3479  0.1283
85635W        W28547   9.399  29.635  31.822 -0.1385  0.0982 -0.1763
85636W        W28548   7.910  30.393   1.908 -0.0771 -0.0866 -0.1938
85637W        W28549   8.972  28.547   2.044  0.0080  0.1483  0.2044
85638W        W28550   8.535  28.275   2.109 -0.1070  0.2440  0.0059
85639W        W28551  13.112  31.987   4.401  0.1153  0.0654  0.0187
85640W        W28552   7.518  30.916   2.093  0.0222  0.2549 -0.1999
85641W        W28553  11.806  30.092   2.770 -0.3190  0.1934  0.0718
85642W        W28554   8.981  30.282   0.713 -0.0167  0.0145 -0.0021
85643W        W28555  10.862  32.569   2.982  0.1837 -0.3088  0.0393
85644W        W28556  12.092  30.332  31.636  0.2182  0.0015  0.0141
85645W        W28557  10.597  29.491   1.293 -0.0312  0.2105 -0.1222
85646W        W28558  10.587  30.104   0.431  0.3967 -0.1976 -0.0849
85647W        W28559   8.525  28.751   0.069  0.0791  0.1935  0.0624
85648W        W28560   9.768  30.401   1.396  0.2577 -0.1115  0.2083
85649W        W28561  10.520  32.712   2.301 -0.1148  0.1097  0.1145
85650W        W28562  10.034  29.289  30.958  0.1173 -0.0094 -0.0332
85651W        W28563   7.803  31.477   0.637 -0.0707  0.1337 -0.2896
85652W        W28564   9.651  28.323   2.783  0.0638  0.1631 -0.0887
85653W        W28565   9.180  32.577   3.423 -0.3578 -0.1793  0.1719
85654W        W28566   7.849  32.791  31.812  0.1194  0.1010 -0.2447
85655W        W28567   6.658  31.099   1.646 -0.0476 -0.1375 -0.0475
85656W        W28568   8.591  31.189   0.249 -0.1599  0.0302 -0.1042
85657W        W28569   7.755  29.313   1.249 -0.3910 -0.0141  0.1763
85658W        W28570   9.477  32.570   1.465  0.2564  0.1575  0.1855
85659W        W28571  12.198  29.969   0.603  0.0590 -0.2821 -0.6720
85660W        W28572   9.241  28.984   3.258  0.0763 -0.0257  0.3075
85661W        W28573  10.753  28.309   1.350 -0.2330  0.0781  0.0454
85662W        W28574   8.094  31.166   0.814 -0.0919  0.0374 -0.0482
85663W        W28575  10.904  32.321   1.105  0.1510  0.0669 -0.0129
85664W        W28576   9.374  29.434   2.342 -0.1602  0.0050  0.3741
85665W        W28577  10.371  32.753  31.731 -0.0012 -0.1702 -0.2586
85666W        W28578   7.720  30.023   2.765  0.2666 -0.2223  0.2840
85667W        W28579   9.540  29.100   0.707  0.1132  0.3277 -0.0264
85668W        W28580   9.693  30.476   2.446  0.0986  0.0546 -0.2594
85669W        W28581   6.739  28.504   1.976  0.0567 -0.0129  0.0044
85670W        W28582  10.296  30.132   4.388 -0.0364  0.0826 -0.0613
85671W        W28583   8.589  28.629   1.734 -0.0828  0.1040 -0.1344
85672W        W28584  11.121  30.452   1.151  0.2582 -0.0828  0.0378
85673W        W28585   9.893  30.573   0.922  0.0899  0.0118 -0.0557
85674W        W28586   7.965  29.344   2.108  0.1346 -0.0954  0.0122
85675W        W28587  10.621  29.191   2.872  0.0709 -0.1259 -0.0367
85676W        W28588  10.026  32.862   0.602 -0.1320  0.0161 -0.3478
85677W        W28589  11.818  33.029   2.417  0.0777 -0.1661 -0.2278
85678W        W28590  10.697  31.225   1.983 -0.1822 -0.3319  0.1398
85679W        W28591   8.296  29.866   2.601 -0.3580 -0.0678 -0.1781
85680W        W28592   7.450  30.393   0.129  0.1581  0.1537  0.2518
85681W        W28593   9.251  31.878   1.793  0.1661  0.0598 -0.0532
85682W        W28594   8.338  31.557   1.219  0.2380  0.2593 -0.0041
85683W        W28595   9.776  29.594   0.752  0.0480 -0.3903 -0.1440
85684W        W28596  11.517  31.188   2.320  0.1895  0.1800 -0.1090
85685W        W28597   9.956  29.378  31.688 -0.2285  0.0068  0.0016
85686W        W28598   7.049  30.475   1.341 -0.0076 -0.0113 -0.3914
85687W        W28599   9.867  27.899   2.685 -0.0485  0.1137 -0.0511
85688W        W28600  10.563  30.806   3.799  0.3373  0.0456  0.2216
85689W        W28601  10.138  30.802   1.359 -0.1859  0.2680 -0.1198
85690W        W28602  10.057  28.780   0.788  0.0488 -0.1185  0.0372
85691W        W28603  10.322  33.899   3.153 -0.1548  0.2181  0.3336
85692W        W28604   7.739  31.823  30.833  0.2388 -0.3408  0.1685
85693W        W28605   7.779  31.240   3.654 -0.2017  0.1728  0.0598
85694W        W28606   9.677  31.658   1.761 -0.1471  0.1585  0.1086
85695W        W28607  10.135  28.408   2.734 -0.1560  0.0925  0.3433
85696W        W28608   8.513  29.495   2.882 -0.2663  0.0955  0.0398
85697W        W28609   9.271  29.614   4.142  0.1693  0.1526 -0.0653
85698W        W28610   7.904  29.753   1.022 -0.0347 -0.1090  0.1188
85699W        W28611   9.267  32.006   2.749 -0.0857 -0.2821 -0.1520
85700W        W28612  10.392  28.710   1.523 -0.1767  0.0662  0.0662
85701W        W28613  10.919  30.605  31.687  0.0454  0.0843  0.2629
85702W        W28614   9.693  31.014   4.121  0.2345  0.1109  0.0761
85703W        W28615  11.119  28.000   1.477  0.0350 -0.2530 -0.0628
85704W        W28616   9.357  29.201  31.614  0.2130 -0.1348 -0.1202
85705W        W28617   8.895  28.025   0.620 -0.0233 -0.2101  0.1346
85706W        W28618   8.054  29.875   3.840  0.5306 -0.1442 -0.0262
85707W        W28619   9.245  30.814   1.784  0.0690 -0.0401  0.2760
85708W        W28620   8.624  31.709   2.397  0.0891  0.0946  0.1147
85709W        W28621   8.816  29.869   0.161 -0.0462 -0.0194  0.3756
85710W        W28622  11.058  32.207   2.110 -0.0405  0.5316 -0.2749
85711W        W28623   8.768  29.976   1.722  0.1638  0.1863  0.1207
85712W        W28624  11.066  31.295   4.034  0.2151 -0.1902 -0.1166
85713W        W28625  10.522  32.610   0.922  0.1963  0.1643 -0.0138
85714W        W28626   8.783  30.477   1.858 -0.4498 -0.0401 -0.1369
85715W        W28627   9.271  29.324  31.080  0.1496 -0.2574 -0.2284
85716W        W28628  10.599  29.048   2.104 -0.2274 -0.0587  0.0102
85717W        W28629   7.791  31.940  31.349  0.0574  0.1921  0.1549
85718W        W28630   9.736  30.860   3.321  0.1044  0.1935 -0.1954
85719W        W28631   9.407  28.525   2.356 -0.0681  0.1221  0.1868
85720W        W28632  10.062  28.885   2.779  0.0794 -0.1813  0.0576
85721W        W28633  10.752  29.918   4.245 -0.0167  0.1514  0.2573
85722W        W28634  10.219  30.444   0.508  0.0925  0.2383 -0.0617
85723W        W28635   8.985  31.436   2.119  0.0811  0.1892 -0.1278
85724W        W28636   8.196  29.634   1.429  0.0406 -0.0537  0.0007
85725W        W28637  10.558  28.733   2.687 -0.5145 -0.0299  0.0192
85726W        W28638   9.856  32.480   3.051  0.0798  0.3329  0.2888
85727W        W28639   8.654  30.663   3.739  0.1936  0.1541  0.0290
85728W        W28640   8.518  32.711   2.553  0.1766 -0.1604 -0.2794
85729W        W28641  10.196  30.963   0.743  0.2238  0.1387  0.4641
85730W        W28642   9.916  30.528   4.132  0.0342  0.1064 -0.0766
85731W        W28643  10.316  28.289   0.984  0.0665  0.2100 -0.1597
85732W        W28644   9.570  32.654   0.707  0.4421  0.1690  0.0095
85733W        W28645   8.896  31.019   1.300  0.1436 -0.1612 -0.0164
85734W        W28646  10.017  28.506   1.860 -0.4003 -0.2971 -0.1570
85735W        W28647   8.969  33.751   2.865  0.2032 -0.0427  0.2499
85736W        W28648   8.325  31.714   0.749  0.2631 -0.1946  0.1418
85737W        W28649  10.596  30.811   3.269 -0.0284  0.0568 -0.1563
85738W        W28650   9.328  30.759   1.320  0.1830  0.0102 -0.1042
85739W        W28651  11.376  29.038   2.287 -0.2553 -0.0038 -0.0791
85740W        W28652   6.044  32.197   1.438  0.0997 -0.2349  0.1673
85741W        W28653   8.668  32.183  31.695  0.2186  0.6753 -0.1339
85742W        W28654   8.645  29.477   0.502  0.1164  0.1277  0.1288
85743W        W28655  10.147  29.381   0.199  0.0225 -0.2307 -0.0089
85744W        W28656  11.938  30.872   1.479 -0.3069 -0.1063  0.2108
85745W        W28657   8.350  29.548   1.869  0.2021  0.0574 -0.1635
85746W        W28658   9.567  28.611   1.569  0.0269  0.0142 -0.1852
85747W        W28659   7.449  32.063   2.349 -0.1429  0.0897  0.2236
85748W        W28660  10.146  31.113   3.203 -0.1121  0.0966 -0.0401
85749W        W28661  11.360  29.747   0.565 -0.2815  0.0295 -0.1784
85750W        W28662   9.356  31.296   1.572  0.1539 -0.0651 -0.2547
85751W        W28663   8.317  30.072   4.174 -0.3325 -0.0303 -0.1210
85752W        W28664   8.694  29.897   0.875  0.2412  0.0890 -0.0985
85753W        W28665  10.918  31.149   4.717 -0.1051 -0.0020  0.1887
85754W        W28666   9.704  30.933   1.673 -0.1522 -0.0452 -0.2976
85755W        W28667   7.508  31.808   1.533 -0.0125  0.1436 -0.2279
85756W        W28668  10.309  31.346   3.601  0.0530  0.1927 -0.1097
85757W        W28669   8.057  29.559  31.633  0.4731  0.1971  0.2388
85758W        W28670   8.357  32.240   2.511 -0.0567 -0.0059 -0.0175
85759W        W28671   8.473  30.444   2.846  0.1408  0.0096  0.0065
85760W        W28672   9.327  29.894   2.826  0.2085  0.0686 -0.3918
85761W        W28673   8.224  31.073   1.308 -0.1346 -0.0370 -0.2085
85762W        W28674   8.408  29.505   0.954 -0.1181  0.1265 -0.1816
85763W        W28675  10.196  31.734   0.443 -0.3639  0.2545 -0.1818
85764W        W28676   9.628  30.953   0.781 -0.1222 -0.1520  0.2635
85765W        W28677  10.132  30.133   2.275 -0.0246 -0.1776 -0.0232
85766W        W28678   9.673  31.258   2.989 -0.1790 -0.4462  0.0954
85767W        W28679   9.388  28.997   1.903 -0.2056  0.1228 -0.4967
85768W        W28680  11.207  33.048   1.673  0.0666  0.1390 -0.1328
85769W        W28681   9.330  30.753   2.310  0.3279 -0.1922 -0.2178
85770W        W28682   8.681  29.538   1.435 -0.0664  0.1268  0.1227
85771W        W28683   7.446  30.165   1.559 -0.2964  0.2124  0.0872
85772W        W28684   8.794  31.440   0.945 -0.4994 -0.0109 -0.1239
85773W        W28685  10.088  30.694   2.934 -0.4959  0.1443 -0.0808
85774W        W28686   6.942  30.766   2.252 -0.1180  0.1957  0.1537
85775W        W28687   7.887  31.320   2.145  0.0680  0.0180 -0.0363
85776W        W28688   7.955  30.889   2.432 -0.0953 -0.1023  0.0279
85777W        W28689  11.102  29.317   0.525  0.5076  0.0102 -0.0415
85778W        W28690   9.555  31.474   0.644  0.2697 -0.1673  0.3026
85779W        W28691  10.107  30.092   1.281 -0.0726  0.3441  0.2492
85780W        W28692  10.411  29.730   2.751  0.3073  0.4715  0.4075
85781W        W28693   9.540  31.061  31.756 -0.1231 -0.2999 -0.2713
85782W        W28694  11.110  29.574   5.019  0.0993  0.1297  0.0280
85783W        W28695   8.159  28.592   1.970  0.2941 -0.0063  0.0747
85784W        W28696  10.129  32.272   0.584  0.0904 -0.1095  0.2070
85785W        W28697   6.584  28.103   2.524 -0.1335 -0.0540  0.2782
85786W        W28698  10.085  33.204   4.113 -0.1882  0.2573 -0.1970
85787W        W28699   8.423  31.888   3.371 -0.5427 -0.0084 -0.4001
85788W        W28700  10.447  28.680  31.349 -0.1907 -0.0460  0.1622
85789W        W28701  10.188  29.231   0.677  0.5215 -0.2664 -0.1340
85790W        W28702   8.602  30.911   1.695 -0.3088 -0.0500  0.0669
85791W        W28703  10.826  31.724   2.059 -0.1606 -0.3703 -0.2451
85792W        W28704  10.016  32.448   1.574  0.1342  0.1429  0.0761
85793W        W28705   9.718  31.148   1.226  0.2260 -0.0769  0.0498
85794W        W28706   8.860  30.915   2.090  0.0124 -0.1361  0.2110
85795W        W28707   9.646  29.892   1.153  0.2842 -0.1287 -0.2016
85796W        W28708   9.758  30.559  31.598  0.2988  0.1049 -0.3351
85797W        W28709   7.327  30.469   1.943 -0.1669  0.1636  0.1692
85798W        W28710  10.240  28.425   0.344 -0.0572 -0.2112  0.1005
85799W        W28711  10.250  30.169   3.858  0.0194  0.1282  0.2574
85800W        W28712   9.158  29.159  29.810  0.0220  0.3738  0.3173
85801W        W28713  10.745  30.324   3.438 -0.2731 -0.0383 -0.0476
85802W        W28714  10.523  30.812   1.807  0.1563 -0.1880 -0.1053
85803W        W28715   8.838  29.436   3.319 -0.0508 -0.1729 -0.0790
85804W        W28716   8.172  29.326   3.256 -0.3350 -0.2762 -0.0052
85805W        W28717  10.971  31.912   2.698  0.0020  0.1696  0.1245
85806W        W28718  10.360  31.218  31.356 -0.4404  0.1098  0.1199
85807W        W28719   9.884  29.241   2.244  0.0525 -0.0765 -0.1543
85808W        W28720   9.900  29.483   1.354  0.1948  0.0652  0.1974
85809W        W28721   9.735  28.441  30.919 -0.0270 -0.0591  0.1781
85810W        W28722   7.966  30.174   1.357  0.0293  0.3406 -0.0003
85811W        W28723   9.866  31.437   2.313 -0.1844 -0.2887 -0.0755
85812W        W28724   8.972  29.472   1.013  0.1598  0.2458  0.2874
85813W        W28725   9.513  28.941   2.679  0.4666  0.0676  0.1042
85814W        W28726  10.035  33.911   1.166 -0.1851 -0.1091  0.2792
85815W        W28727   9.176  31.875   0.672 -0.2823  0.0076  0.0548
85816W        W28728   9.317  30.600   0.528 -0.2643  0.3061 -0.1065
85817W        W28729   5.463  29.075   2.480 -0.3918  0.1500  0.4400
85818W        W28730   7.677  31.229   2.761 -0.0074  0.1292 -0.0915
85819W        W28731   7.656  30.632  30.845  0.1525 -0.0930 -0.1505
85820W        W28732   8.261  30.638   0.579  0.2473  0.0793 -0.2894
85821W        W28733   8.886  32.188   3.067 -0.2886  0.2639  0.1388
85822W        W28734  11.377  31.295   4.521 -0.0384  0.0816 -0.0634
85823W        W28735  10.292  29.358   1.748  0.2459 -0.1907  0.2016
85824W        W28736  11.354  29.313   5.434 -0.2707 -0.1181 -0.0321
85825W        W28737   8.202  31.442   0.266  0.4677  0.3682 -0.0591
85826W        W28738   9.889  27.905   1.814 -0.5564  0.0691 -0.2762
85827W        W28739   7.924  32.163   2.727  0.2004 -0.1928 -0.1538
85828W        W28740   8.040  30.777   3.455 -0.1394  0.2122 -0.1068
85829W        W28741   7.463  31.288   1.760 -0.1157 -0.0772 -0.0327
85830W        W28742  10.037  29.807   3.591  0.0815 -0.0707  0.4337
85831W        W28743   9.420  30.333   0.985 -0.2337  0.0394  0.0632
85832W        W28744   8.802  30.568   1.399 -0.4212 -0.1926  0.0586
85833W        W28745  12.127  30.542   4.066 -0.3222 -0.1752 -0.1048
85834W        W28746  10.535  31.893   3.008  0.1352 -0.3329  0.2047
85835W        W28747   7.244  29.836   2.009 -0.0342  0.1254  0.0363
85836W        W28748   9.580  32.127   2.025 -0.0428 -0.0251  0.0465
85837W        W28749  10.307  31.164   2.330  0.0380  0.0963  0.0378
85838W        W28750   8.530  30.006   1.313  0.0261 -0.1306  0.0868
85839W        W28751   7.948  29.612   2.791 -0.3314  0.3854 -0.0062
85840W        W28752   9.707  30.437   3.701  0.1946 -0.1059  0.0116
85841W        W28753  10.432  32.178   1.429 -0.0814  0.4417  0.1060
85842W        W28754   9.962  28.988   1.654  0.1004  0.4105 -0.2579
85843W        W28755   9.874  31.423  31.985  0.1647 -0.2474 -0.1154
85844W        W28756   9.008  30.680   2.864 -0.2561  0.2370 -0.2184
85845W        W28757   7.132  29.833   2.489 -0.0306  0.3901 -0.1695
85846W        W28758   7.903  31.506   1.605 -0.2940 -0.1168  0.1307
85847W        W28759  10.927  30.985   0.492  0.4084  0.5499  0.1421
85848W        W28760   8.898  31.764  31.600  0.1763  0.1905 -0.0258
85849W        W28761   9.688  32.749   3.375 -0.0466 -0.1008 -0.1223
85850W        W28762   8.614  29.743  30.646 -0.0292  0.1108 -0.2048
85851W        W28763   8.716  31.430   1.474 -0.1937  0.1270 -0.2002
85852W        W28764   7.762  31.293   0.103 -0.2212  0.0321  0.1301
85853W        W28765  11.357  30.289   0.559  0.1316  0.1633  0.2529
85854W        W28766  10.368  32.680   1.805 -0.2798  0.1090 -0.0164
85855W        W28767  10.029  31.680   3.215 -0.1967 -0.0872  0.1013
85856W        W28768  10.952  30.053   0.829 -0.0306  0.3198 -0.0523
85857W        W28769  11.161  30.840   2.540  0.1183  0.0384 -0.0618
85858W        W28770  10.369  30.449   1.009  0.4606 -0.0251  0.0461
85859W        W28771   8.275  31.308   2.443  0.3319  0.0289 -0.0473
85860W        W28772   9.745  29.876   2.484 -0.2322  0.2065 -0.1679
85861W        W28773   9.535  30.669   0.070 -0.2610  0.3325 -0.0082
85862W        W28774  10.452  30.982   2.750 -0.2000 -0.2603  0.1275
85863W        W28775  10.526  28.103   3.980 -0.1983 -0.1541 -0.1930
85864W        W28776   7.506  32.452   2.804  0.1708  0.0728 -0.0363
85865W        W28777   9.625  33.172   1.777 -0.2044 -0.2012  0.3644
85866W        W28778   8.489  29.028   1.457  0.0106 -0.1999 -0.2439
85867W        W28779   9.061  30.765   0.923 -0.1865  0.1916  0.1122
85868W        W28780  10.693  28.347   1.824  0.0584  0.0435  0.3684
85869W        W28781   8.709  30.724   0.441 -0.1012  0.3992  0.0910
85870W        W28782  10.757  30.757   1.392 -0.0547  0.3988  0.1139
85871W        W28783   9.082  32.240   1.319 -0.0485 -0.0091  0.0153
85872W        W28784   6.811  30.613   1.775  0.0260  0.1360  0.0848
85873W        W28785  10.040  32.022   1.832  0.0643  0.0310  0.0599
85874W        W28786   9.132  28.671   0.585 -0.0102 -0.1512  0.1761
85875W        W28787  10.582  30.308   1.531 -0.0191  0.0903  0.2046
85876W        W28788   8.875  28.891   3.608  0.2424 -0.1237  0.3645
85877W        W28789  11.258  29.052   1.666 -0.1542  0.2490 -0.3935
85878W        W28790   9.088  28.635   1.515 -0.3015 -0.1386  0.1809
85879W        W28791   9.893  29.994   1.727  0.0181 -0.0933  0.3907
85880W        W28792   9.256  30.335   2.598  0.0670  0.0472 -0.0515
85881W        W28793   8.610  30.107   3.711 -0.1640  0.0845 -0.2300
85882W        W28794   9.844  30.072  30.668  0.1447  0.2379  0.0081
85883W        W28795  10.533  31.346   3.109  0.1434 -0.0479 -0.0472
85884W        W28796   7.670  28.306  29.954 -0.0105  0.0558  0.0153
85885W        W28797   8.993  32.070   2.197 -0.0063  0.1608 -0.0072
85886W        W28798   8.104  28.642   1.415 -0.0089  0.1902 -0.0742
85887W        W28799   9.953  30.344   0.046 -0.0332 -0.0967 -0.2776
85888W        W28800   9.154  28.959   1.006 -0.2547  0.2435 -0.0434
85889W        W28801   9.366  30.348   3.056  0.1815  0.1589 -0.1379
85890W        W28802  11.455  30.840   4.714 -0.1361  0.0759 -0.0022
85891W        W28803   7.309  28.525   1.991  0.2307 -0.0472 -0.2681
85892W        W28804  11.342  30.787   1.465  0.1619 -0.2536 -0.2818
85893W        W28805  11.994  30.941   3.777 -0.3217  0.3164 -0.5686
85894W        W28806  10.125  33.135   2.495  0.0379 -0.1482 -0.0015
85895W        W28807  11.056  30.294   2.331 -0.0700 -0.0241  0.1565
85896W        W28808  11.357  32.873   2.624  0.1163 -0.1842 -0.1412
85897W        W28809   7.280  30.154   2.923 -0.2440  0.2513 -0.0730
85898W        W28810   9.689  32.285   2.559 -0.2568  0.1728 -0.2367
85899W        W28811  10.624  31.689   1.578  0.4524 -0.2557 -0.3315
85900W        W28812   9.948  28.532   1.266 -0.2744  0.0126  0.3137
85901W        W28813   8.344  29.037   1.957  0.0015  0.0870 -0.0166
85902W        W28814   8.290  32.446   1.647  0.0923 -0.2697 -0.2993
85903W        W28815  11.462  29.805   3.640 -0.1727 -0.2312  0.2906
85904W        W28816   9.127  28.614   2.944 -0.1983  0.0396 -0.0551
85905W        W28817   9.137  33.201   0.518  0.0610 -0.0027  0.0807
85906W        W28818  10.375  29.320   2.469  0.0936  0.1188 -0.1282
85907W        W28819   8.178  31.347   3.402  0.0323 -0.1266 -0.2266
85908W        W28820   8.525  31.872   2.861  0.0572  0.1271 -0.2716
85909W        W28821   7.232  30.468  31.214  0.0730 -0.1285 -0.1324
85910W        W28822   9.002  31.076   2.602 -0.2789  0.0066 -0.1164
85911W        W28823   8.722  31.929   1.018 -0.1581  0.1096 -0.0996
85912W        W28824  10.411  33.104   1.068  0.0304 -0.3067  0.1072
85913W        W28825   9.741  31.946   0.687  0.0596  0.0574  0.1815
85914W        W28826  10.198  29.669   2.109 -0.2912 -0.1444  0.1922
85915W        W28827  11.360  31.367   3.360 -0.2837 -0.1495  0.0437
85916W        W28828   9.069  29.178   1.451  0.1566  0.0952  0.0786
85917W        W28829  10.298  29.712   0.533  0.1734 -0.0678  0.1255
85918W        W28830  12.390  29.340   0.448 -0.1320  0.0885  0.1161
85919W        W28831   8.257  30.583   1.538 -0.0124  0.1968 -0.2904
85920W        W28832   9.294  28.584  31.714 -0.4628  0.0869  0.4191
85921W        W28833   9.070  31.158   0.522  0.5291  0.1412 -0.1220
85922W        W28834   7.222  31.254   1.240 -0.1661  0.1022  0.1813
85923W        W28835   8.346  28.047   3.341 -0.1732  0.2372 -0.2393
85924W        W28836   8.117  30.333   2.484  0.1204 -0.0308  0.0659
85925W        W28837   8.663  29.610   2.274 -0.1392 -0.3164  0.1586
85926W        W28838   9.461  29.454   1.072 -0.3035 -0.0693 -0.1196
85927W        W28839  10.341  31.642   1.988 -0.2358 -0.0537 -0.0029
85928W        W28840   7.229  28.806   2.900 -0.0254 -0.2322  0.2598
85929W        W28841   7.711  28.683   1.756 -0.0567 -0.0567 -0.3876
85930W        W28842  10.042  32.033   1.111  0.1187  0.2832  0.1685
85931W        W28843  11.307  32.204   1.329 -0.0637 -0.0231 -0.0556
85932W        W28844  10.264  28.181   1.487  0.4188 -0.2966 -0.1606
85933W        W28845  10.514  30.827   4.659 -0.2966 -0.0467  0.2764
85934W        W28846   7.462  31.189  31.756  0.1431 -0.1534 -0.3117
85935W        W28847  11.651  30.634   5.265  0.0224 -0.0496 -0.2198
85936W        W28848   8.788  29.027   3.032 -0.1599  0.0967 -0.0357
85937W        W28849   7.930  28.483   0.960  0.0672 -0.2119 -0.2065
85938W        W28850   9.485  29.899   2.018 -0.1759 -0.0067  0.0081
85939W        W28851   9.898  32.958   1.319 -0.2473 -0.1661  0.0556
85940W        W28852   9.943  32.008   0.068 -0.0006 -0.1669 -0.1106
85941W        W28853   8.242  31.704   1.957 -0.0882  0.0188 -0.1018
85942W        W28854   9.761  31.700   2.760 -0.0923  0.1459 -0.0476
85943W        W28855   7.890  28.038   2.754 -0.1844 -0.0107 -0.2009
85944W        W28856  11.360  30.317   1.564 -0.1490  0.2301 -0.3775
85945W        W28857   8.561  30.889   2.516  0.0639  0.1571 -0.0914
85946W        W28858  12.325  31.779   2.821  0.3000 -0.3980 -0.2615
85947W        W28859  12.140  28.891   1.955 -0.0391  0.0922  0.1186
85948W        W28860   9.140  30.282   2.108 -0.2193 -0.0009 -0.0151
85949W        W28861   9.370  28.014   2.485 -0.2324 -0.1737 -0.1297
85950W        W28862   7.969  30.384   3.047 -0.2394  0.0176 -0.3628
85951W        W28863  10.463  29.827   1.674  0.0244  0.1533 -0.0319
85952W        W28864   9.952  29.824   3.032  0.0168  0.0572 -0.2664
85953W        W28865   9.386  28.348  31.257  0.1659 -0.0293  0.1211
85954W        W28866   9.892  31.549  30.089  0.0082  0.1213 -0.0240
85955W        W28867   8.346  30.655   2.074  0.1489 -0.0203 -0.2539
85956W        W28868   8.502  28.350   0.386  0.1731 -0.2116  0.3672
85957W        W28869   8.823  30.018   2.770 -0.1508  0.2272 -0.1280
85958W        W28870  10.379  33.335   3.008 -0.0338 -0.0418  0.5073
85959W        W28871  11.359  32.021   3.004 -0.0540  0.0811  0.0965
85960W        W28872   8.918  28.918  31.712  0.1565  0.1821  0.1012
85961W        W28873  10.130  31.645   1.485 -0.3818  0.0918 -0.3460
85962W        W28874  10.207  32.620   3.464  0.1931  0.3483 -0.0712
85963W        W28875  10.524  32.867   2.757 -0.2003 -0.3194  0.1847
85964W        W28876   9.308  32.491   2.876  0.2017  0.0558 -0.1463
85965W        W28877  10.060  31.261   1.817 -0.0808  0.0085  0.0364
85966W        W28878   7.186  28.620   1.421 -0.4333  0.1528 -0.0995
85967W        W28879   8.738  31.592   0.488 -0.0582 -0.1683  0.2642
85968W        W28880   8.059  32.368   1.165 -0.2133 -0.1915 -0.0783
85969W        W28881   9.712  30.343   1.995  0.0511  0.1209 -0.0981
85970W        W28882   8.036  29.150   1.637 -0.1637 -0.0253  0.0874
85971W        W28883   9.968  30.057   0.792  0.0301  0.0489 -0.0082
85972W        W28884   8.372  32.435   2.972  0.2810 -0.1491 -0.0017
85973W        W28885  10.529  32.316   2.612 -0.0493 -0.2423  0.0356
85974W        W28886   9.433  31.181   5.746  0.1101  0.3025  0.2283
85975W        W28887   8.249  29.067   4.260 -0.4081  0.2470 -0.0130
85976W        W28888  11.830  30.531   4.475  0.0350  0.0285  0.2208
85977W        W28889  11.212  30.377   5.391  0.1108  0.1208  0.2206
85978W        W28890   9.016  28.861   6.206 -0.3255 -0.2799  0.0038
85979W        W28891  11.483  33.101   5.047 -0.3315 -0.1331 -0.2162
85980W        W28892   7.163  28.574   6.786 -0.0099  0.1123 -0.1675
85981W        W28893  11.573  32.639   5.287 -0.4574 -0.1102  0.0285
85982W        W28894  10.916  32.417   6.816 -0.0846 -0.0601  0.0979
85983W        W28895   9.222  31.552   3.628  0.3069  0.0755  0.1914
85984W        W28896   9.628  31.758   5.382 -0.0567 -0.1831  0.1618
85985W        W28897   8.722  32.462   5.788 -0.0079 -0.1407  0.0375
85986W        W28898  10.067  28.942   3.885 -0.1179  0.2559 -0.1016
85987W        W28899   7.241  28.341   7.237  0.3343 -0.3470  0.0598
85988W        W28900   9.533  31.181   5.207  0.2101 -0.2237  0.0330
85989W        W28901   8.831  30.284   4.142  0.0620  0.0923 -0.0486
85990W        W28902   8.441  30.897   6.691 -0.0364 -0.0215  0.2553
85991W        W28903  10.290  30.394   6.118  0.0234  0.1029 -0.0092
85992W        W28904  10.831  32.545   4.556  0.0296  0.1905 -0.0997
85993W        W28905   9.848  30.023   7.418  0.1896  0.2127  0.0169
85994W        W28906  11.857  29.690   6.474  0.1872  0.0806 -0.1143
85995W        W28907   9.835  31.859   4.073  0.1178  0.1915  0.1710
85996W        W28908   8.301  28.907   3.619 -0.1108  0.0682  0.0532
85997W        W28909   6.717  30.465   6.376 -0.2097 -0.3617  0.1821
85998W        W28910   8.988  30.996   5.882 -0.1774 -0.2265  0.2374
85999W        W28911  10.818  30.608   5.509 -0.1940 -0.0200 -0.0728
86000W        W28912  11.096  31.850   5.318 -0.0906 -0.2562  0.0979
86001W        W28913   9.628  31.365   6.277  0.1067 -0.0493  0.1466
86002W        W28914   9.168  32.487   4.842 -0.0916  0.1841 -0.1137
86003W        W28915  11.208  29.957   6.649  0.2211 -0.0110  0.2428
86004W        W28916   9.697  30.558   5.863  0.1698  0.2792 -0.1062
86005W        W28917   5.760  32.767   5.075 -0.1328 -0.4113 -0.2062
86006W        W28918   8.890  31.498   5.675 -0.1374 -0.0144 -0.2475
86007W        W28919  11.743  32.104   5.886 -0.3745  0.2161 -0.0729
86008W        W28920  10.040  32.090   6.059 -0.1737 -0.0063  0.1513
86009W        W28921   9.114  33.203   7.481 -0.1293  0.1273 -0.0096
86010W        W28922   9.476  30.606   4.516 -0.1053 -0.0933 -0.0694
86011W        W28923  12.089  33.002   6.259  0.4213  0.2417  0.1092
86012W        W28924   9.100  32.519   6.695  0.1546  0.1654  0.6068
86013W        W28925   8.640  30.749   6.219 -0.1372 -0.2189 -0.0677
86014W        W28926   8.920  31.480   4.061 -0.1278  0.0826 -0.3892
86015W        W28927  10.203  31.791   3.711  0.0858 -0.0894  0.2104
86016W        W28928   9.970  31.346   5.806 -0.1086 -0.2499 -0.0839
86017W        W28929   8.139  31.744   6.190 -0.2405 -0.2151  0.1132
86018W        W28930   8.570  31.016   5.416  0.1217 -0.0776 -0.1439
86019W        W28931  10.499  30.192   8.233 -0.2772  0.0043  0.2676
86020W        W28932   8.802  33.375   4.488  0.2801 -0.2183  0.0494
86021W        W28933   9.644  32.327   3.743 -0.1804 -0.1409 -0.0116
86022W        W28934   9.308  30.169   4.313 -0.4937  0.0834  0.2276
86023W        W28935  10.711  30.381   4.524 -0.0753 -0.0647 -0.2697
86024W        W28936   9.749  29.076   4.809 -0.2300  0.3585 -0.2207
86025W        W28937   8.584  31.920   5.573 -0.2553 -0.2053 -0.0778
86026W        W28938   8.798  28.151   7.556 -0.2142  0.2279 -0.1539
86027W        W28939  10.384  30.369   7.021  0.2243  0.2620  0.3346
86028W        W28940   8.652  28.530   5.017  0.1374  0.0404  0.0288
86029W        W28941  10.616  29.041   5.827 -0.0731 -0.1528  0.2018
86030W        W28942   7.969  32.822   7.796  0.0621  0.2911  0.1258
86031W        W28943   8.181  30.830   5.646  0.0974 -0.1743  0.0391
86032W        W28944  10.463  33.570   4.040  0.0865 -0.0167  0.4092
86033W        W28945  11.594  31.042   5.561  0.1494  0.0956  0.0297
86034W        W28946  10.416  32.193   4.426  0.3343 -0.1355 -0.0647
86035W        W28947   9.151  29.434   4.863  0.0859 -0.2465 -0.2477
86036W        W28948   7.395  31.810   6.470  0.2739 -0.0176 -0.4274
86037W        W28949   7.042  30.816   7.146 -0.1891 -0.1034  0.3369
86038W        W28950   8.321  29.279   2.466  0.0738 -0.0703  0.0977
86039W        W28951  10.422  31.414   6.995 -0.2672  0.0465 -0.4427
86040W        W28952   8.003  31.977   5.802  0.2228  0.1164  0.0705
86041W        W28953  10.745  29.439   4.594  0.2806  0.3362 -0.0942
86042W        W28954   9.606  31.803   5.893  0.1832  0.4076 -0.3096
86043W        W28955  10.242  31.144   6.599  0.2062 -0.3527 -0.2122
86044W        W28956  10.797  31.231   3.530 -0.3067  0.1339  0.0298
86045W        W28957  10.738  29.923   5.298 -0.0821  0.0039 -0.1512
86046W        W28958  11.286  29.821   5.408 -0.2507 -0.0755  0.0860
86047W        W28959   8.965  31.064   3.695 -0.1619  0.1660 -0.0233
86048W        W28960   9.176  30.505   5.872 -0.0446 -0.0280 -0.0453
86049W        W28961  11.564  32.136   5.415  0.3336 -0.1636  0.0738
86050W        W28962  11.236  30.368   3.712  0.0360  0.0757  0.0161
86051W        W28963   8.253  31.566   5.760  0.2724 -0.1735 -0.2400
86052W        W28964   9.226  29.631   6.176 -0.2667  0.0936  0.0339
86053W        W28965   9.694  31.961   6.477 -0.2943 -0.4338  0.0945
86054W        W28966   9.408  32.332   4.345 -0.1033 -0.0373  0.2095
86055W        W28967   8.274  29.429   6.291  0.1734 -0.0357 -0.0415
86056W        W28968   8.201  30.877   2.895  0.1938 -0.0148  0.2795
86057W        W28969   7.989  28.522   6.392 -0.0333 -0.0453  0.1949
86058W        W28970  10.325  30.675   5.607 -0.1332  0.2401 -0.1197
86059W        W28971  11.931  29.088   5.280  0.0756  0.1236 -0.0548
86060W        W28972   9.692  31.277   6.802 -0.0050  0.2337 -0.2326
86061W        W28973  11.147  29.591   4.111 -0.3250  0.0686 -0.2551
86062W        W28974   8.219  30.491   4.886  0.3085  0.3558 -0.3310
86063W        W28975  10.898  31.653   4.508  0.1741  0.0768 -0.3284
86064W        W28976  12.155  29.794   4.946 -0.1349 -0.0800  0.0093
86065W        W28977  10.413  32.851   3.851  0.2103 -0.2476  0.2921
86066W        W28978   7.614  29.830   6.132  0.1692 -0.0129 -0.1293
86067W        W28979   9.032  29.192   5.364  0.0779 -0.1325 -0.0979
86068W        W28980   8.853  29.622   7.066 -0.0509  0.0213  0.1823
86069W        W28981   6.990  28.807   7.266 -0.2563 -0.1444  0.3771
86070W        W28982   9.513  31.189   7.326 -0.1144  0.0903 -0.1589
86071W        W28983   9.156  28.760   4.180 -0.1322 -0.0557 -0.1077
86072W        W28984   9.869  30.904   5.518 -0.2594  0.1839  0.3655
86073W        W28985   9.930  29.128   6.036  0.1128 -0.1179 -0.0113
86074W        W28986   8.008  31.538   4.019 -0.1564  0.0445 -0.2624
86075W        W28987  10.648  28.599   7.618 -0.1930 -0.0091  0.0457
86076W        W28988   9.946  32.694   3.903  0.0660 -0.1956  0.0091
86077W        W28989  12.487  32.045   7.208 -0.0632 -0.1164  0.1508
86078W        W28990   9.099  32.844   5.872  0.1315  0.5499  0.1715
86079W        W28991   8.928  29.967   6.437  0.1126 -0.1362 -0.0568
86080W        W28992   8.926  29.642   3.735 -0.0147  0.0224 -0.2013
86081W        W28993   8.203  31.338   4.890  0.0285 -0.0242  0.1356
86082W        W28994  10.012  31.625   6.286  0.0277 -0.1595 -0.3950
86083W        W28995   9.452  31.474   4.052  0.2420 -0.2419  0.1638
86084W        W28996  11.465  33.526   5.733 -0.1793  0.1120 -0.0281
86085W        W28997   9.447  32.789   3.980 -0.2647 -0.0742 -0.2141
86086W        W28998   7.773  32.539   6.658  0.3322 -0.0272  0.1823
86087W        W28999  11.398  29.852   7.069 -0.1316  0.3422  0.0699
86088W        W29000  10.374  30.217   5.661  0.0359 -0.2523 -0.1516
86089W        W29001  10.832  31.061   5.800  0.2170  0.0442 -0.1239
86090W        W29002   8.946  28.553   4.611 -0.1891  0.2536 -0.0285
86091W        W29003  10.158  31.795   5.672  0.1291 -0.0104 -0.2027
86092W        W29004   8.408  33.360   3.448  0.2815 -0.1022 -0.0512
86093W        W29005   7.965  31.191   5.946 -0.0825  0.0772  0.2029
86094W        W29006   9.178  31.964   4.880 -0.0462  0.1826  0.0174
86095W        W29007  10.927  29.086   5.042  0.1097  0.2896 -0.1381
86096W        W29008   6.426  31.132   7.760  0.0004 -0.1709 -0.2334
86097W        W29009   9.272  30.203   6.759 -0.1657 -0.1776 -0.1733
86098W        W29010   7.176  31.331   3.358 -0.4649  0.3610  0.0790
86099W        W29011   8.845  32.001   6.736  0.0990  0.3873 -0.2556
86100W        W29012  10.245  29.410   5.798  0.1452  0.1993 -0.0354
86101W        W29013  11.031  28.531   4.161 -0.1244  0.2211 -0.0131
86102W        W29014   8.711  29.555   6.474  0.1156  0.0034  0.1203
86103W        W29015  11.804  32.174   4.632  0.1031  0.1872 -0.2572
86104W        W29016  10.663  29.934   4.785  0.3857 -0.3285  0.1487
86105W        W29017  10.159  29.393   3.090  0.1677 -0.2323 -0.1299
86106W        W29018   7.363  31.754   7.297  0.2245 -0.0080 -0.2644
86107W        W29019   9.156  32.393   3.904  0.1236 -0.0331 -0.3837
86108W        W29020  10.640  32.005   6.933  0.1881  0.0321  0.1039
86109W        W29021   9.541  29.998   3.421  0.0038 -0.1005 -0.0095
86110W        W29022  12.195  32.780   5.319  0.1276 -0.2682 -0.2827
86111W        W29023   8.042  31.312   5.381  0.0358 -0.1380 -0.2298
86112W        W29024   7.946  30.896   7.103  0.4478 -0.0591  0.1810
86113W        W29025  10.576  32.599   5.209  0.0062 -0.2716 -0.1613
86114W        W29026   9.475  29.007   6.125 -0.0485 -0.0269  0.1068
86115W        W29027  10.209  30.528   3.528 -0.0879  0.0005  0.0498
86116W        W29028  10.961  28.519   6.462  0.1732  0.0732 -0.1130
86117W        W29029   7.456  32.635   3.975  0.0392 -0.1700  0.1771
86118W        W29030  11.755  29.464   6.950 -0.0478  0.0781 -0.3872
86119W        W29031   9.442  30.158   6.033 -0.1422  0.0102  0.0888
86120W        W29032   9.586  29.898   6.428  0.0931  0.0419  0.1068
86121W        W29033  11.671  30.261   7.210  0.2304  0.1824 -0.1751
86122W        W29034  10.179  31.442   2.740  0.1143  0.0498 -0.3549
86123W        W29035  10.209  31.580   5.140  0.2385  0.0981 -0.1121
86124W        W29036   9.081  29.907   3.284 -0.1219 -0.0120  0.1736
86125W        W29037   9.717  29.643   5.936  0.0531 -0.0356  0.3562
86126W        W29038   9.241  31.124   6.623 -0.3049  0.2055 -0.2445
86127W        W29039   9.013  31.980   7.215  0.1287 -0.1643 -0.4762
86128W        W29040   9.128  31.333   7.072 -0.0642  0.0170  0.0987
86129W        W29041  12.452  29.652   6.404  0.3677  0.2276 -0.0939
86130W        W29042  10.784  30.730   8.236 -0.1472  0.0531 -0.1639
86131W        W29043  10.066  29.778   4.116  0.3455  0.0320 -0.1392
86132W        W29044   8.146  31.038   3.982 -0.2069  0.0681 -0.0328
86133W        W29045   8.814  31.499   3.232 -0.2646  0.1564 -0.2107
86134W        W29046   8.077  28.884   5.740 -0.2316  0.3990 -0.1719
86135W        W29047  10.499  32.300   6.410 -0.0799  0.0511 -0.0616
86136W        W29048   9.658  31.856   3.609  0.0396 -0.3921  0.0296
86137W        W29049   8.894  30.698   6.848 -0.2920  0.0156  0.0527
86138W        W29050   8.883  31.197   4.502 -0.1401  0.1426 -0.1774
86139W        W29051  11.311  28.804   6.092  0.2394  0.0323 -0.2389
86140W        W29052   8.752  31.349   4.945 -0.1535 -0.0411 -0.2749
86141W        W29053   7.930  30.387   4.394 -0.2474  0.3270  0.0983
86142W        W29054   9.223  29.868   5.203 -0.0894 -0.0121 -0.0802
86143W        W29055  10.084  30.514   4.639  0.0578 -0.0689 -0.2977
86144W        W29056  11.393  31.861   4.532 -0.2723 -0.1056  0.4811
86145W        W29057   9.437  30.207   5.529  0.1315 -0.1514  0.0516
86146W        W29058  11.303  30.249   6.207 -0.2244 -0.3539  0.0175
86147W        W29059   7.432  32.521   4.972  0.2008 -0.1067 -0.3978
86148W        W29060   8.627  31.079   4.086 -0.0183  0.0387  0.2922
86149W        W29061  10.535  29.797   3.698  0.1797  0.0222 -0.3090
86150W        W29062   9.200  32.962   6.914  0.2576 -0.0856  0.1376
86151W        W29063   7.465  30.967   7.915 -0.2250 -0.1564 -0.0396
86152W        W29064   8.366  28.362   4.504 -0.0050 -0.0089  0.0467
86153W        W29065  10.575  29.821   6.678 -0.3024  0.0692 -0.0556
86154W        W29066   9.880  30.130   5.803 -0.4058 -0.0700  0.2340
86155W        W29067   8.039  30.882   4.470  0.0002 -0.1847  0.0734
86156W        W29068   9.561  32.986   6.070 -0.0268  0.0014 -0.1714
86157W        W29069   8.534  29.732   4.893 -0.1496  0.1821  0.0084
86158W        W29070   9.007  30.402   5.316 -0.0481  0.2343  0.3085
86159W        W29071   8.732  30.516   7.331  0.1928 -0.2663 -0.0390
86160W        W29072   9.886  30.273   6.971 -0.1164 -0.1604 -0.0935
86161W        W29073   9.483  29.395   5.224  0.0739  0.2895 -0.1494
86162W        W29074   7.440  28.970   4.541  0.0704  0.0092 -0.2157
86163W        W29075   8.987  30.684   4.425  0.2494 -0.1243  0.1866
86164W        W29076  11.239  31.450   5.725 -0.2635  0.3922  0.0178
86165W        W29077   9.144  29.545   6.711 -0.0322 -0.2298 -0.0455
86166W        W29078   8.754  31.676   8.297 -0.0091 -0.0852 -0.3509
86167W        W29079   9.231  28.971   6.677  0.1743  0.1850  0.1180
86168W        W29080  12.349  34.457   4.191  0.1624  0.1738 -0.2062
86169W        W29081  10.466  30.649   9.245 -0.1035  0.0662  0.1945
86170W        W29082   8.363  30.389   3.352 -0.0915  0.1673  0.1570
86171W        W29083   8.657  30.077   5.238 -0.0515 -0.0484  0.0355
86172W        W29084   8.407  30.640   4.246  0.1332 -0.4227 -0.0143
86173W        W29085   9.367  30.894   6.190  0.1096  0.3218  0.0155
86174W        W29086   8.453  31.131   5.973 -0.0559  0.0098 -0.1000
86175W        W29087   8.902  32.596   4.358 -0.0664  0.0301  0.1737
86176W        W29088   8.108  32.336   5.270  0.1001  0.0382 -0.0499
86177W        W29089  11.053  28.015   4.169  0.4208 -0.3442 -0.3016
86178W        W29090   8.812  31.914   3.793  0.3302 -0.0139 -0.1059
86179W        W29091  10.107  28.810   5.018  0.1310 -0.0386 -0.4745
86180W        W29092  11.057  30.217   7.591  0.1895 -0.2549  0.2184
86181W        W29093  11.235  31.535   4.960 -0.1455 -0.0918  0.3163
86182W        W29094   9.755  28.673   7.636 -0.2203 -0.1567 -0.1332
86183W        W29095   9.382  28.497   6.284 -0.2035  0.1070  0.0164
86184W        W29096  10.269  31.615   4.332  0.2539  0.0108  0.3369
86185W        W29097   7.920  28.993   6.205 -0.0098 -0.4012 -0.0273
86186W        W29098   9.914  33.339   6.652  0.1817 -0.1512  0.0451
86187W        W29099   7.040  30.907   8.157  0.2629 -0.1171  0.0873
86188W        W29100  10.586  28.507   5.319 -0.2191  0.0633 -0.2973
86189W        W29101   9.921  28.471   3.557 -0.1264 -0.0666 -0.0446
86190W        W29102   9.707  31.626   4.919 -0.0962  0.1120 -0.2959
86191W        W29103  11.221  30.883   5.271 -0.1544  0.0160  0.2508
86192W        W29104   9.341  31.947   4.031  0.0907  0.0583  0.1694
86193W        W29105  11.473  30.107   5.794  0.5667  0.2204 -0.4846
86194W        W29106   8.320  29.303   5.836  0.0729 -0.2275  0.0100
86195W        W29107  11.587  31.219   5.021  0.2565  0.2365  0.0363
86196W        W29108   9.998  32.046   5.105 -0.1129 -0.3595 -0.1109
86197W        W29109   8.781  30.449   4.880 -0.1641 -0.0430 -0.1302
86198W        W29110   8.438  27.386   7.968  0.0725  0.1587 -0.0542
86199W        W29111  10.399  31.239   5.447 -0.0519  0.2175  0.2487
86200W        W29112  11.583  28.357   5.782 -0.2159  0.0930 -0.1100
86201W        W29113  10.812  30.093   6.237  0.1430  0.1146  0.0798
86202W        W29114   9.029  30.014   7.254  0.2784 -0.4561  0.3856
86203W        W29115   8.273  29.953   6.212 -0.3616 -0.1489  0.2481
86204W        W29116   8.671  28.844   7.399 -0.1790 -0.1691 -0.0825
86205W        W29117  10.258  33.810   7.152 -0.0399 -0.1499 -0.1029
86206W        W29118  10.550  30.371   5.127 -0.0463 -0.1901 -0.3635
86207W        W29119  10.792  29.442   7.177  0.0936 -0.0579 -0.1710
86208W        W29120  12.112  30.427   5.414 -0.0631  0.2575  0.3062
86209W        W29121   9.257  31.089   3.237  0.4253 -0.1758  0.1538
86210W        W29122   8.620  29.550   5.557  0.0072  0.2455 -0.1807
86211W        W29123  10.053  31.129   7.163  0.3057  0.0494 -0.1248
86212W        W29124   9.657  29.534   4.489  0.0015 -0.0254  0.1563
86213W        W29125   9.763  30.384   6.446 -0.0144  0.2332 -0.1090
86214W        W29126   8.799  32.766   3.898  0.1275 -0.4154 -0.2544
86215W        W29127   8.853  31.138   6.387  0.2886  0.1750  0.0857
86216W        W29128  10.189  30.821   5.109 -0.1480 -0.1233 -0.1309
86217W        W29129   7.827  30.212   5.705 -0.2436  0.1673  0.1162
86218W        W29130   7.315  32.094   6.928  0.2364 -0.0582 -0.1303
86219W        W29131  10.376  29.352   3.596 -0.0659 -0.1326 -0.0764
86220W        W29132   9.043  31.042   5.292  0.0249  0.5043  0.0311
86221W        W29133   9.973  31.648   6.790  0.1392 -0.0161 -0.1050
86222W        W29134  11.018  30.767   7.811 -0.2308  0.3906  0.0634
86223W        W29135  10.263  29.628   4.569  0.1057 -0.2516 -0.0025
86224W        W29136  10.877  29.949   7.196  0.1339  0.4431  0.0734
86225W        W29137   7.940  32.269   2.241 -0.2297 -0.1619  0.3093
86226W        W29138  10.056  29.154   6.664  0.2867  0.0482 -0.0882
86227W        W29139   8.604  32.867   6.277  0.2730 -0.2038 -0.1548
86228W        W29140   6.770  31.459   5.924 -0.2511 -0.1682 -0.2664
86229W        W29141   9.182  31.532   6.220  0.0424  0.2368  0.0034
86230W        W29142  10.451  29.148   5.376 -0.3514 -0.1145 -0.0113
86231W        W29143  10.178  29.853   6.142 -0.3130 -0.1842 -0.1342
86232W        W29144  10.067  31.014   4.511  0.0859  0.0135  0.0924
86233W        W29145  10.325  31.847   7.345  0.1307 -0.3382  0.3396
86234W        W29146  10.313  30.977   6.078 -0.3073 -0.1323 -0.1583
86235W        W29147   8.955  30.098   5.751 -0.1238  0.2433  0.0802
86236W        W29148   8.700  32.384   7.419 -0.3558 -0.2669 -0.1308
86237W        W29149  11.410  31.279   6.681 -0.0451  0.5528  0.1362
86238W        W29150   7.735  30.609   4.863 -0.0841 -0.0144 -0.2154
86239W        W29151   8.006  30.551   7.440  0.1212  0.1387  0.1330
86240W        W29152  10.766  30.540   6.009  0.0668 -0.0667 -0.2543
86241W        W29153  10.762  31.605   5.040 -0.0218  0.0378  0.1663
86242W        W29154   7.740  28.013   5.079  0.3421  0.0541  0.1530
86243W        W29155   9.488  30.830   2.852  0.1399 -0.0808  0.1308
86244W        W29156   6.901  31.957   7.697 -0.1751  0.1639  0.0724
86245W        W29157   8.662  31.595   6.095  0.2696 -0.1745 -0.2321
86246W        W29158   7.427  32.097   4.536 -0.1229 -0.1277  0.0235
86247W        W29159  10.328  31.121   4.101  0.0106 -0.0138  0.4038
86248W        W29160  10.455  31.322   4.774 -0.1800  0.0499 -0.1073
86249W        W29161  10.003  32.590   5.088 -0.0007  0.0723 -0.0963
86250W        W29162  10.056  29.395   5.016 -0.4199  0.1080 -0.0876
86251W        W29163   9.162  31.579   5.212  0.4107  0.0104 -0.2338
86252W        W29164   7.173  31.491   2.811  0.1066 -0.2597  0.1459
86253W        W29165  11.680  31.769   4.970  0.4504  0.2196 -0.0087
86254W        W29166   9.088  33.129   4.161  0.1548  0.0586 -0.1053
86255W        W29167  10.416  32.400   7.179  0.0642  0.1447 -0.1499
86256W        W29168  12.001  30.137   5.798  0.0641  0.0647  0.2093
86257W        W29169  12.055  30.580   6.172 -0.0862  0.1222  0.0759
86258W        W29170  10.973  30.670   4.806 -0.3204  0.0712  0.0043
86259W        W29171   9.243  32.047   6.323  0.1798  0.1006 -0.0794
86260W        W29172   9.371  30.719   5.409 -0.3272  0.0499  0.1017
86261W        W29173  10.768  27.703   3.687 -0.1122 -0.1415  0.3489
86262W        W29174   7.202  30.495   8.032 -0.0336 -0.2254 -0.0202
86263W        W29175  12.432  29.650   7.632 -0.0304 -0.0882 -0.1471
86264W        W29176   8.036  31.850   5.315 -0.0803 -0.0106 -0.0099
86265W        W29177  10.633  32.396   3.609 -0.0043  0.0983 -0.2861
86266W        W29178   8.983  28.063   2.883  0.0152  0.3629 -0.1407
86267W        W29179   9.161  30.934   4.813 -0.1927  0.1063 -0.1403
86268W        W29180  11.248  28.286   7.225  0.0944  0.0756 -0.2181
86269W        W29181   7.519  31.884   3.999  0.2233  0.2810  0.2392
86270W        W29182  10.405  31.816   4.746 -0.1026 -0.1024  0.0543
86271W        W29183   9.300  31.384   4.741  0.0080 -0.1202 -0.0418
86272W        W29184   9.056  33.005   6.386 -0.4163  0.2568  0.1345
86273W        W29185   9.378  33.351   6.426 -0.0369 -0.1241 -0.0760
86274W        W29186   7.739  28.961   4.067 -0.0395 -0.1107  0.2013
86275W        W29187  11.308  29.323   4.632 -0.0353 -0.2749 -0.1170
86276W        W29188   7.980  29.748   5.812 -0.1397 -0.3334 -0.2000
86277W        W29189  12.042  29.947   7.347  0.0209  0.0768 -0.0476
86278W        W29190   8.690  29.725   5.996 -0.0806 -0.0768 -0.3303
86279W        W29191  11.005  31.311   5.325 -0.0405  0.0789  0.1037
86280W        W29192   8.978  31.927   5.876  0.0887  0.1985 -0.1939
86281W        W29193   8.750  30.200   6.907 -0.0287  0.2477 -0.3046
86282W        W29194   9.765  29.760   5.452 -0.1555 -0.0031 -0.0428
86283W        W29195   9.289  31.640   6.667  0.0528  0.0236 -0.1137
86284W        W29196   9.913  31.000   2.599 -0.3778 -0.1144 -0.0735
86285W        W29197   9.861  31.595   7.340 -0.1030  0.2187 -0.0718
86286W        W29198   7.079  29.093   6.739  0.0253  0.0965 -0.0253
86287W        W29199  10.098  28.713   4.395  0.2006 -0.0154 -0.1186
86288W        W29200   7.808  31.436   4.607 -0.0174  0.1361  0.2101
86289W        W29201   8.681  30.249   6.142  0.1518  0.1300 -0.1633
86290W        W29202   9.463  31.694   7.182  0.1519 -0.1130  0.1650
86291W        W29203   5.816  29.579   4.754 -0.1843 -0.2358  0.0817
86292W        W29204  11.555  33.384   3.670 -0.0474  0.2661  0.0969
86293W        W29205  11.098  29.737   5.915 -0.3126 -0.2994 -0.3268
86294W        W29206   9.962  31.928   4.605  0.0164  0.0687 -0.4345
86295W        W29207  11.274  31.897   5.912 -0.0639  0.0764  0.0407
86296W        W29208  10.771  32.641   5.706  0.1934 -0.2454 -0.1301
86297W        W29209   7.998  29.596   6.736  0.1685 -0.0064 -0.1112
86298W        W29210  10.717  31.635   5.601 -0.3101 -0.3996  0.4509
86299W        W29211  11.129  32.008   7.120  0.5537  0.3408  0.2001
86300W        W29212  10.968  28.937   5.464  0.1724  0.1278 -0.0752
86301W        W29213   8.808  29.229   5.953 -0.0068 -0.0750 -0.2875
86302W        W29214   7.884  32.314   4.018 -0.0135  0.0804 -0.1062
86303W        W29215  11.263  30.791   7.349 -0.1758  0.0695  0.2451
86304W        W29216  12.256  28.779   6.577  0.3353 -0.4278 -0.1023
86305W        W29217   9.174  32.082   3.509 -0.2324  0.1497 -0.0198
86306W        W29218  10.742  29.808   7.733 -0.1197 -0.1940 -0.1051
86307W        W29219   8.222  31.840   6.726 -0.0700 -0.3153  0.0096
86308W        W29220   7.515  30.208   7.084 -0.2675  0.2307 -0.2196
86309W        W29221   7.223  30.971   4.200 -0.0637 -0.0752 -0.0042
86310W        W29222   7.980  32.218   6.267  0.1667  0.0639 -0.0141
86311W        W29223   8.676  30.603   5.690 -0.1022 -0.0084 -0.2599
86312W        W29224   9.833  32.576   5.901 -0.2293 -0.0273  0.3058
86313W        W29225  11.822  32.714   5.726  0.0250  0.0220 -0.0153
86314W        W29226   9.823  30.417   5.305  0.0665  0.0556  0.0796
86315W        W29227  10.604  31.997   5.311 -0.3859  0.0926 -0.0566
86316W        W29228   9.921  29.136   5.446 -0.0703 -0.2253 -0.2952
86317W        W29229  10.260  29.701   5.404 -0.1127  0.1501 -0.3494
86318W        W29230  11.685  29.609   4.180 -0.0624 -0.0546  0.0147
86319W        W29231  11.248  30.733   5.791 -0.2703  0.2772 -0.1047
86320W        W29232  10.176  28.930   3.336 -0.1847  0.2152 -0.2685
86321W        W29233   9.387  33.944   3.912 -0.1109 -0.0406  0.0821
86322W        W29234   8.237  30.430   5.922  0.1119  0.3333 -0.1171
86323W        W29235  10.736  30.313   6.704  0.1076  0.0246  0.1589
86324W        W29236   7.936  30.620   6.694  0.0237 -0.0892 -0.2550
86325W        W29237   8.144  30.832   6.267 -0.1736  0.3108 -0.3095
86326W        W29238   9.331  29.504   3.526  0.2733 -0.1775 -0.5674
86327W        W29239  11.841  31.464   4.531 -0.3263  0.2679  0.1896
86328W        W29240   9.234  29.178   4.436  0.4318 -0.2191 -0.0636
86329W        W29241   7.511  28.427   5.534 -0.1261 -0.2214  0.2262
86330W        W29242   9.701  31.374   3.488  0.4036  0.0767 -0.2321
86331W        W29243   9.834  32.175   5.626  0.4363  0.2004  0.2492
86332W        W29244  10.148  30.071   4.899 -0.1571  0.0650 -0.0870
86333W        W29245  11.701  31.172   7.078 -0.0603 -0.0912  0.0065
86334W        W29246   8.575  29.389   4.052  0.1392  0.1259 -0.1950
86335W        W29247   9.755  30.777   7.036  0.2426  0.3755 -0.1885
86336W        W29248   8.946  29.062   7.079 -0.0656 -0.0712 -0.2280
86337W        W29249   8.765  26.881   4.187 -0.2317 -0.0995 -0.3010
86338W        W29250  10.823  29.267   6.722  0.3958  0.2984  0.0563
86339W        W29251   9.488  31.823   4.463 -0.0102  0.3614 -0.3452
86340W        W29252   9.574  33.197   4.256 -0.3036 -0.1547  0.2484
86341W        W29253   9.972  32.462   6.380  0.0914 -0.1715 -0.1497
86342W        W29254   7.999  32.339   7.633 -0.0656 -0.0542 -0.0249
86343W        W29255   8.274  28.170   6.927 -0.0530  0.0757 -0.0033
86344W        W29256   9.444  31.037   3.700  0.4907  0.0431 -0.2757
86345W        W29257   8.377  30.417   6.492 -0.1968  0.1195 -0.1642
86346W        W29258  10.338  32.280   4.883 -0.1636 -0.0722  0.0135
86347W        W29259  12.147  29.891   6.812 -0.1319 -0.0224 -0.1065
86348W        W29260   9.990  31.194   4.954 -0.1132  0.0072  0.2220
86349W        W29261   8.421  29.844   6.729 -0.0907  0.0801  0.1052
86350W        W29262   8.300  31.296   6.397  0.2542 -0.3653  0.0521
86351W        W29263  11.076  30.755   6.348 -0.1321 -0.2068  0.1337
86352W        W29264   9.439  30.275   4.947  0.0519 -0.0185  0.1852
86353W        W29265   9.628  30.724   4.965  0.0008  0.0897  0.1235
86354W        W29266   9.965  31.415   3.948  0.2031  0.0219 -0.1751
86355W        W29267   8.461  30.056   5.718 -0.0571  0.2894  0.1517
86356W        W29268   9.274  29.431   3.049  0.2414 -0.1080  0.0087
86357W        W29269  10.135  30.664   6.718  0.2464  0.1748 -0.5156
86358W        W29270  10.393  31.432   6.042 -0.1898 -0.2087  0.1088
86359W        W29271  10.678  30.971   5.115 -0.1978 -0.0326  0.0936
86360W        W29272   9.161  30.164   3.753  0.0249  0.1552 -0.1778
86361W        W29273  11.128  31.700   3.701 -0.2142  0.0200  0.0111
86362W        W29274   9.602  32.860   6.572 -0.0470 -0.0622  0.5795
86363W        W29275  10.123  32.096   6.729 -0.1389 -0.0919 -0.2700
86364W        W29276   9.505  33.686   7.375  0.0404  0.1924  0.2014
86365W        W29277  10.906  31.521   6.077 -0.1973  0.2038 -0.0273
86366W        W29278   6.854  27.615   6.856 -0.0123  0.3083 -0.3445
86367W        W29279   8.614  30.900   4.805  0.2151  0.3070 -0.0757
86368W        W29280   8.938  29.875   4.638 -0.1510  0.0351 -0.2038
86369W        W29281  11.160  29.224   5.887  0.1551 -0.2203 -0.0799
86370W        W29282   9.442  29.275   5.722  0.3136  0.0658  0.4289
86371W        W29283   9.727  33.707   5.507  0.4624  0.1727 -0.0026
86372W        W29284  10.600  29.743   5.857  0.1520 -0.2225 -0.1684
86373W        W29285   6.074  32.162  12.029  0.2117 -0.1359 -0.1381
86374W        W29286   7.794  31.374   7.325  0.2009  0.1615  0.0860
86375W        W29287  10.250  29.528   7.959 -0.0397  0.1780 -0.0924
86376W        W29288  11.665  30.629   8.249 -0.1761 -0.0548 -0.3592
86377W        W29289   7.621  29.320   9.145  0.1078  0.0379  0.0164
86378W        W29290   9.958  31.184   7.688 -0.0534  0.0922 -0.0690
86379W        W29291   9.992  31.784   8.655  0.2476  0.2519 -0.3236
86380W        W29292   9.045  32.753  10.072 -0.0554 -0.0339 -0.4174
86381W        W29293   8.233  31.462   7.612 -0.0872  0.0666  0.0596
86382W        W29294   8.656  28.982   9.615  0.0781 -0.0949 -0.3580
86383W        W29295   8.744  29.993   8.721 -0.2122 -0.0135  0.0501
86384W        W29296   6.396  28.492   9.875  0.2153 -0.2152 -0.2093
86385W        W29297  10.620  31.192   8.357  0.0611 -0.3135 -0.3278
86386W        W29298   8.335  31.196   8.022  0.0759 -0.3032 -0.2928
86387W        W29299   7.957  30.216   9.215  0.2930 -0.1140 -0.3239
86388W        W29300   9.432  30.539   8.293 -0.1762  0.0047  0.0330
86389W        W29301   9.527  32.210   7.994  0.2735 -0.0801 -0.1477
86390W        W29302   6.898  29.570   8.638 -0.2416 -0.1797 -0.1229
86391W        W29303  10.275  30.932   8.895  0.0855  0.0347 -0.2215
86392W        W29304   6.425  30.447   7.398 -0.6598  0.0404 -0.1692
86393W        W29305   6.727  28.605   8.884  0.2339  0.0515 -0.1655
86394W        W29306   6.556  29.696   9.695  0.0380 -0.1582  0.1749
86395W        W29307  11.023  30.507   9.052  0.0679 -0.0434 -0.0174
86396W        W29308   9.797  31.387   9.461  0.1448  0.2363 -0.0513
86397W        W29309  10.105  31.374   8.360  0.1044 -0.0259 -0.0995
86398W        W29310   9.940  32.510   8.976  0.0346  0.1825 -0.1023
86399W        W29311   7.098  32.093   9.156  0.0128 -0.0376 -0.2107
86400W        W29312   6.755  32.591   9.161 -0.2673  0.1074 -0.1218
86401W        W29313   7.107  32.770   8.320 -0.2933 -0.0347 -0.4706
86402W        W29314  11.052  32.035   7.580 -0.0699 -0.1882 -0.1252
86403W        W29315   6.593  31.601   7.773 -0.2243 -0.1180  0.0560
86404W        W29316   8.774  27.373   9.829 -0.5263  0.2663  0.1943
86405W        W29317   8.985  31.247   8.038 -0.1648  0.0719 -0.0633
86406W        W29318   8.703  31.620   7.802  0.1906 -0.2127 -0.0028
86407W        W29319   9.972  30.532   8.705  0.1518 -0.2088 -0.3518
86408W        W29320   6.648  32.737   9.624 -0.1221  0.3321 -0.0721
86409W        W29321   6.744  31.247   7.313 -0.1876 -0.1537 -0.1035
86410W        W29322  11.409  29.825   8.049 -0.0486 -0.1684  0.3046
86411W        W29323   9.457  30.691   6.661 -0.0645  0.0046 -0.2098
86412W        W29324  10.086  30.547   7.891 -0.1248  0.1908 -0.2586
86413W        W29325   8.763  28.787   8.700 -0.0154  0.3134  0.0734
86414W        W29326   8.657  33.572   8.834  0.1882 -0.1530 -0.2660
86415W        W29327   7.985  28.996   9.314 -0.0793  0.1798 -0.0485
86416W        W29328   8.835  30.689   7.929 -0.0129 -0.1771 -0.1741
86417W        W29329  11.561  32.054   8.307 -0.2805  0.0157 -0.2055
86418W        W29330   8.235  30.976   8.659 -0.3436  0.1586 -0.0030
86419W        W29331  10.239  30.362   9.709  0.1133  0.2142 -0.2834
86420W        W29332  10.411  30.757   7.471  0.1436  0.0298 -0.1274
86421W        W29333  11.725  32.561   8.025 -0.0028  0.0641  0.0039
86422W        W29334   8.365  31.000   7.414  0.0290  0.1974  0.2765
86423W        W29335   7.919  29.484   9.463 -0.2234 -0.0410  0.0053
86424W        W29336   8.446  29.314   6.892 -0.4312 -0.0774  0.0551
86425W        W29337  10.706  29.530   9.756 -0.2154  0.1778  0.0806
86426W        W29338   9.725  31.989   9.107 -0.1240  0.1493  0.2455
86427W        W29339  10.772  33.592   8.788 -0.0993  0.3729 -0.3554
86428W        W29340  10.540  30.536   7.856  0.3843 -0.1820 -0.1139
86429W        W29341  11.456  29.017   9.393 -0.2997  0.2994 -0.0542
86430W        W29342   9.192  29.401   8.983 -0.0949 -0.0725 -0.2889
86431W        W29343   8.007  31.841   7.215 -0.2058 -0.0217 -0.1426
86432W        W29344   8.722  31.468   7.297 -0.0991 -0.0447  0.0344
86433W        W29345  11.657  32.555   9.185  0.1837  0.1449 -0.1315
86434W        W29346  11.410  30.176   8.516  0.0238  0.3751 -0.2962
86435W        W29347   7.844  34.679   7.813 -0.0247  0.3028 -0.2571
86436W        W29348   7.668  31.593   6.822 -0.1114  0.0361  0.2153
86437W        W29349   5.828  31.497   9.654 -0.3917  0.0478  0.0496
86438W        W29350   7.198  31.670   8.178  0.2014 -0.2655 -0.3076
86439W        W29351   8.659  31.015   9.408  0.0095 -0.1628 -0.3615
86440W        W29352   7.428  32.640   9.122 -0.1835 -0.0601 -0.1583
86441W        W29353   9.776  28.808   9.008 -0.0763  0.3097 -0.0309
86442W        W29354   9.815  30.056   9.558  0.1294  0.1092 -0.1291
86443W        W29355   7.355  32.212   8.322  0.0757  0.0978  0.0828
86444W        W29356   9.201  33.603   7.832  0.3275 -0.0321 -0.0273
86445W        W29357  11.788  30.156   8.193 -0.0244  0.1619  0.2411
86446W        W29358  10.546  30.899   6.981 -0.1387 -0.0762  0.3132
86447W        W29359   7.108  30.484   9.254 -0.0598 -0.2339  0.1156
86448W        W29360   8.677  30.142   7.772 -0.1739  0.0550  0.0623
86449W        W29361   6.732  28.110   9.119 -0.0942  0.0315  0.0069
86450W        W29362   7.381  29.419   7.543  0.4013 -0.3544 -0.3643
86451W        W29363  10.036  29.704   9.062 -0.0017 -0.1458 -0.0830
86452W        W29364   9.840  30.972   8.555  0.2145  0.0850 -0.0038
86453W        W29365   7.457  31.370   9.786  0.0942  0.0544  0.0488
86454W        W29366   9.878  32.089   7.181  0.1144  0.0064 -0.0653
86455W        W29367   7.560  30.887   9.525 -0.1548  0.1446 -0.1304
86456W        W29368  11.344  32.549   7.540  0.0695 -0.3004 -0.3796
86457W        W29369  10.236  29.725   9.979  0.1033 -0.0060 -0.0787
86458W        W29370   8.073  29.586   7.304 -0.1328  0.0896  0.0999
86459W        W29371   7.681  33.927   8.920 -0.5257  0.1991 -0.0439
86460W        W29372   7.910  32.915   8.829 -0.2961  0.2125  0.2168
86461W        W29373   7.740  29.067   8.500  0.2374 -0.1022 -0.5902
86462W        W29374   9.234  32.310  10.059  0.1972 -0.0285  0.1127
86463W        W29375   9.104  29.708   8.415 -0.1436 -0.4654  0.2013
86464W        W29376   8.881  30.230   9.508  0.1177 -0.1253 -0.0529
86465W        W29377  10.389  31.528   9.356 -0.1117 -0.0521  0.1852
86466W        W29378   8.018  29.859   8.124 -0.0761 -0.1844 -0.3514
86467W        W29379   7.938  31.404   8.857  0.1678  0.2716 -0.0415
86468W        W29380   7.438  32.002   7.784 -0.0493  0.1378  0.0578
86469W        W29381   9.545  30.941   9.333  0.2673 -0.2353 -0.0974
86470W        W29382   8.276  31.362   6.970  0.0403 -0.1375  0.1265
86471W        W29383  10.817  32.064   9.039  0.1005 -0.0446  0.3152
86472W        W29384   8.235  29.574   9.080  0.1398  0.1332 -0.0719
86473W        W29385   9.219  29.470   7.411  0.1286  0.1512  0.2107
86474W        W29386   9.622  30.319   7.770 -0.1916  0.0647 -0.1318
86475W        W29387  11.143  31.958   8.153 -0.0489 -0.2655 -0.0280
86476W        W29388   8.991  28.508   6.632  0.0380  0.0508 -0.1299
86477W        W29389   9.576  28.802   7.072  0.0217  0.1375 -0.1513
86478W        W29390   9.481  31.272   8.374 -0.1431  0.3093 -0.1785
86479W        W29391  11.671  30.100   9.699 -0.0848 -0.2678 -0.3729
86480W        W29392   9.364  29.881   7.639 -0.0407  0.1817  0.0556
86481W        W29393  10.502  32.286   8.259 -0.2198 -0.4182  0.1382
86482W        W29394   8.778  30.479   9.025 -0.0565  0.3700 -0.1030
86483W        W29395  10.015  32.164   7.663 -0.2260  0.2515  0.1718
86484W        W29396   7.421  30.013   9.393  0.1112 -0.0241  0.0869
86485W        W29397   8.345  30.503   7.035 -0.1107 -0.1526  0.0359
86486W        W29398   8.891  30.963   7.479  0.2111  0.1555 -0.4212
86487W        W29399   7.018  32.756   7.533  0.0291  0.3555 -0.0746
86488W        W29400   9.906  29.683   8.240 -0.1266 -0.0072 -0.0133
86489W        W29401   9.189  30.890   8.499 -0.3285  0.1961 -0.2959
86490W        W29402  10.109  30.038   7.884  0.0525 -0.1210  0.1794
86491W        W29403   8.227  31.478   9.728 -0.0006  0.1028 -0.1336
86492W        W29404   7.228  31.225   7.385 -0.3402 -0.0700  0.2404
86493W        W29405   7.486  30.263   8.947 -0.2400 -0.2934 -0.3078
86494W        W29406   8.666  32.439   9.727 -0.3203 -0.0428  0.0977
86495W        W29407  11.342  31.651   8.577  0.2033 -0.0919 -0.0682
86496W        W29408   9.706  29.064   7.936 -0.0536  0.1388 -0.2922
86497W        W29409   9.200  31.754   8.044 -0.2415  0.0431 -0.1452
86498W        W29410   8.507  29.893   7.389  0.0601 -0.0804  0.1038
86499W        W29411   8.077  27.983   9.616  0.1136 -0.0885 -0.2069
86500W        W29412   8.220  33.760   8.807 -0.0170 -0.0383  0.1214
86501W        W29413   8.502  31.902   7.188 -0.1620  0.1505  0.2502
86502W        W29414   9.109  31.465   7.593  0.0472 -0.1203  0.1659
86503W        W29415   7.055  31.962   8.575 -0.1978  0.0124  0.1530
86504W        W29416   9.865  28.340   9.440 -0.2113 -0.0712 -0.1937
86505W        W29417   3.961  33.636   9.319 -0.1089  0.2177 -0.1930
86506W        W29418   7.457  32.324   6.366  0.1849 -0.0925 -0.1278
86507W        W29419   8.452  30.805   8.249 -0.1559  0.1927 -0.2596
86508W        W29420  10.553  30.140   8.995 -0.2371  0.1548  0.1471
86509W        W29421  10.045  30.455   7.392 -0.2556 -0.0458  0.0270
86510W        W29422   6.930  29.828   9.222 -0.1219 -0.0257  0.0236
86511W        W29423   7.736  30.018   8.585  0.2033 -0.0871  0.1209
86512W        W29424   8.278  32.734   9.782  0.1406  0.3791 -0.0228
86513W        W29425  10.238  29.522   8.642 -0.1983 -0.3403 -0.0304
86514W        W29426   7.603  30.131   8.095 -0.4481  0.1665 -0.0806
86515W        W29427  10.879  31.544   9.142  0.1893  0.3706 -0.2410
86516W        W29428   7.892  30.553   8.820  0.0641 -0.1059 -0.0467
86517W        W29429   6.668  32.139   8.858 -0.1280 -0.0937  0.1132
86518W        W29430   9.513  31.689   8.618 -0.2357 -0.0396 -0.0016
86519W        W29431   8.875  29.695   7.740 -0.1669 -0.1418  0.0456
86520W        W29432   7.826  33.105   9.953 -0.1735  0.0624  0.1224
86521W        W29433   9.505  32.509   9.266 -0.0647  0.2920  0.0033
86522W        W29434   9.723  30.122   8.961  0.0026  0.0846 -0.3534
86523W        W29435   8.181  29.999   8.775  0.0576 -0.2891  0.1825
86524W        W29436   8.134  27.942  10.146 -0.2981 -0.0024 -0.0392
86525W        W29437  11.430  31.471  12.049 -0.3226 -0.1604 -0.1728
86526W        W29438  10.041  29.155   8.346  0.3693 -0.2458  0.1173
86527W        W29439   8.540  27.792   9.475  0.2681 -0.7434 -0.2964
86528W        W29440  12.207  32.768   7.745  0.0431 -0.2193 -0.0326
86529W        W29441   7.964  31.026   7.657  0.2786 -0.0365 -0.2963
86530W        W29442   7.788  29.797   9.053  0.2607  0.0792 -0.0864
86531W        W29443   6.103  31.517   7.896  0.1146 -0.0263  0.1840
86532W        W29444   9.807  28.756   9.803 -0.2184 -0.0555  0.0702
86533W        W29445   9.047  31.843   9.664  0.0984  0.0469  0.3498
86534W        W29446   7.886  31.162   6.607  0.1794 -0.0445 -0.0053
86535W        W29447   6.239  32.539   9.307 -0.0700 -0.3323  0.2219
86536W        W29448  10.754  29.408   8.764  0.0501  0.2598  0.1205
86537W        W29449  10.802  30.814   8.727  0.1927 -0.2323  0.0464
86538W        W29450   9.266  29.947   9.590 -0.1999 -0.1617 -0.0809
86539W        W29451  11.334  30.783   8.633  0.1754  0.4024  0.3687
86540W        W29452   8.806  27.593  11.011  0.2601 -0.1908  0.2420
86541W        W29453  11.452  31.679   7.447  0.0288 -0.0931  0.4022
86542W        W29454   8.483  29.107   8.451  0.0435  0.2384 -0.0194
86543W        W29455   8.575  29.849   8.210 -0.3402 -0.4533  0.2574
86544W        W29456   8.700  32.343   9.232 -0.3513 -0.2110 -0.1138
86545W        W29457  10.017  32.255   8.508 -0.4188  0.1421 -0.0631
86546W        W29458   9.474  30.631   8.835 -0.2717  0.1203  0.0255
86547W        W29459  11.653  31.681   8.982  0.0359 -0.1781 -0.1455
86548W        W29460   9.339  30.383   9.274  0.1053 -0.5427 -0.1402
86549W        W29461  10.573  30.934   9.661  0.0091 -0.1862 -0.1435
86550W        W29462  10.697  30.630  10.108 -0.0711  0.3067 -0.1706
86551W        W29463   8.889  31.342   9.116  0.0447  0.1044 -0.2453
86552W        W29464  10.099  31.670   7.776 -0.0400 -0.3354 -0.1599
86553W        W29465   9.414  28.674   9.366 -0.1171 -0.1955 -0.1475
86554W        W29466   8.608  32.610  10.235 -0.0930  0.0112  0.0492
86555W        W29467   9.637  29.400   6.335 -0.1876 -0.3117 -0.0155
86556W        W29468   9.587  29.682   9.293 -0.0107  0.0789  0.2757
86557W        W29469  11.245  30.203   9.405  0.0964 -0.4998  0.0348
86558W        W29470   9.463  29.820   6.992  0.0847  0.1756  0.1084
86559W        W29471   8.351  30.508   8.684  0.0020  0.0398 -0.3482
86560W        W29472   9.222  30.826   7.183 -0.1300  0.0953  0.1321
86561W        W29473   8.532  32.742   8.291 -0.1052  0.3213  0.0732
86562W        W29474   9.962  32.501   8.073  0.0858  0.0288  0.0984
86563W        W29475   9.922  29.551   7.195 -0.1469  0.2711 -0.0125
86564W        W29476   8.038  31.383   8.353  0.1008 -0.2417  0.0272
86565W        W29477   7.952  30.362   8.296  0.2909 -0.0588 -0.0494
86566W        W29478   9.276  30.858   7.866 -0.0439  0.0368  0.1115
86567W        W29479  10.316  32.007   9.236  0.2300 -0.2104 -0.2266
86568W        W29480   8.966  30.219   8.161  0.1330 -0.1248  0.0585
86569W        W29481   6.662  31.266   8.157  0.1945  0.0644  0.0533
86570W        W29482   8.989  28.993   9.229 -0.2988  0.3290 -0.1045
86571W        W29483   8.163  33.688   9.334 -0.0637  0.0693 -0.0052
86572W        W29484   7.052  32.510   8.783  0.0332 -0.0487 -0.0681
86573W        W29485   9.308  31.704   9.093  0.0245 -0.2647  0.0109
86574W        W29486  10.942  31.953   9.476  0.2698 -0.0354  0.1291
86575W        W29487   9.205  31.234  10.116 -0.0624 -0.2655 -0.0262
86576W        W29488   7.221  29.556   9.634 -0.2874  0.1095  0.1636
86577W        W29489  11.382  30.790   9.314 -0.0008  0.3432  0.2513
86578W        W29490   8.773  31.429   9.731 -0.1535  0.2114  0.3924
86579W        W29491  10.832  31.832   8.620  0.1192 -0.3644 -0.1137
86580W        W29492   8.511  29.127   9.094  0.2981 -0.2197 -0.0430
86581W        W29493   8.279  31.729   8.034 -0.1046 -0.0608  0.1721
86582W        W29494   8.568  31.825   9.415  0.6280 -0.1063 -0.1137
86583W        W29495   7.908  31.819   7.726 -0.0270  0.2147 -0.0276
86584W        W29496  10.390  31.089   7.934  0.0128 -0.1751  0.0027
86585W        W29497   9.516  31.291   7.837  0.1340 -0.0061  0.2952
86586W        W29498   7.033  33.381   9.115  0.1097  0.1170 -0.0416
86587W        W29499   9.638  29.231   7.457  0.0864 -0.2319 -0.1301
86588W        W29500   7.211  32.407   9.561 -0.0246  0.1271  0.1937
86589W        W29501   6.533  31.511   6.957  0.2005 -0.0496  0.2729
86590W        W29502  11.450  31.585   8.030 -0.2682  0.1043  0.1187
86591W        W29503   7.202  31.153   8.559  0.0425 -0.2142  0.0921
86592W        W29504  10.208  29.113   8.964  0.1095 -0.0483  0.0892
86593W        W29505  11.639  32.017   9.916 -0.1602  0.2050 -0.3414
86594W        W29506  11.088  30.030   8.933 -0.2049 -0.1837  0.0844
86595W        W29507   8.863  30.542   8.518 -0.1160  0.2436 -0.3564
86596W        W29508   8.781  29.381   8.151  0.0047 -0.1225  0.0616
86597W        W29509  11.068  31.321   7.776 -0.0869 -0.0249  0.3629
86598W        W29510   6.863  29.268   9.642  0.0605 -0.1428 -0.0596
86599W        W29511   9.549  31.188   8.919  0.1443 -0.2821  0.0131
86600W        W29512  10.026  30.929   9.503 -0.2738  0.1339  0.0312
86601W        W29513   9.618  30.767   7.513  0.1375  0.0996 -0.0545
86602W        W29514  11.759  31.259   9.305  0.1135 -0.0193  0.0339
86603W        W29515   6.702  31.760   8.246  0.1489  0.1214 -0.2826
86604W        W29516   8.270  32.009   9.010  0.2591  0.1691  0.3726
86605W        W29517   8.415  32.802   9.244  0.0391  0.1535  0.1734
86606W        W29518   7.520  30.727   8.320  0.0767  0.1703  0.0985
86607W        W29519  11.660  29.971   9.162 -0.2705 -0.1156 -0.1096
86608W        W29520   4.791  29.812   9.508 -0.0298  0.0285 -0.1255
86609W        W29521   8.119  30.174   7.769  0.2558 -0.0369  0.0009
86610W        W29522   8.760  29.661   9.089 -0.1464  0.3107 -0.1497
86611W        W29523   9.718  30.886   8.072 -0.1271 -0.0682 -0.1491
86612W        W29524   6.939  31.059   9.009 -0.0709  0.0777 -0.1478
86613W        W29525   9.066  30.497   6.403 -0.0308  0.0470  0.1722
86614W        W29526  10.267  30.766   8.308 -0.2492  0.1346 -0.5494
86615W        W29527   9.065  30.881   9.727  0.1723  0.0082  0.1337
86616W        W29528  11.601  29.273   7.373 -0.3480 -0.0923 -0.0545
86617W        W29529   7.967  30.952   8.189  0.5351  0.0077 -0.3938
86618W        W29530   6.179  33.154   9.542  0.0485 -0.0098  0.3265
86619W        W29531   8.297  29.643  10.009  0.0943  0.1231 -0.2477
86620W        W29532  10.613  30.744   6.444 -0.1875  0.1024  0.0741
86621W        W29533   9.582  32.058   9.615 -0.1281 -0.0587 -0.1553
86622W        W29534   8.612  32.259   8.103  0.3406  0.3542 -0.0128
86623W        W29535  11.941  32.061   6.879 -0.1486 -0.0766 -0.3031
86624W        W29536  11.151  33.241   9.611 -0.2563 -0.0192  0.0151
86625W        W29537   8.048  30.485  10.054  0.2431  0.1738  0.1333
86626W        W29538  11.723  32.763  12.127 -0.1253 -0.0936 -0.1941
86627W        W29539  12.636  31.847   9.554 -0.1221 -0.1243  0.0276
86628W        W29540   8.898  29.235   8.617  0.0648  0.0597 -0.0966
86629W        W29541   7.918  29.570   8.628  0.2104 -0.0856 -0.1437
86630W        W29542   8.107  32.563   8.463  0.2820  0.1164  0.2151
86631W        W29543  11.096  30.894   9.743 -0.0098  0.2851  0.1362
86632W        W29544  10.230  33.255   7.075  0.0707  0.1690 -0.1555
86633W        W29545   6.577  33.034   9.181 -0.2051  0.0018  0.0354
86634W        W29546   7.487  31.486   7.714 -0.0725 -0.2545  0.0859
86635W        W29547   8.743  31.202   8.420  0.1491 -0.0077  0.0592
86636W        W29548   8.389  32.137   8.543  0.0849  0.3681 -0.0154
86637W        W29549   9.163  32.240   9.027 -0.2044  0.0370 -0.0247
86638W        W29550  10.078  31.385   9.056  0.0605 -0.0733  0.0847
86639W        W29551  12.202  34.078   9.312 -0.0573 -0.0824 -0.1829
86640W        W29552  10.079  27.738   9.943  0.0675  0.2558 -0.1337
86641W        W29553  11.464  29.242   8.618 -0.4708 -0.1388 -0.0635
86642W        W29554   9.180  29.959   9.026  0.0126  0.2135 -0.2205
86643W        W29555   8.778  32.956   9.705  0.2166 -0.0732 -0.0601
86644W        W29556   7.383  30.314   7.564  0.1102 -0.0091  0.4593
86645W        W29557   6.981  30.836   7.639  0.2440 -0.1268 -0.0588
86646W        W29558   7.479  30.893   9.020  0.5031 -0.0088 -0.2200
86647W        W29559   6.646  30.263   9.353  0.1289  0.2335  0.0657
86648W        W29560   8.074  29.092   8.855  0.2385  0.0646 -0.1064
86649W        W29561  11.912  31.785   7.742  0.0096  0.0885 -0.0173
86650W        W29562   5.311  26.871   9.863  0.0029 -0.2438  0.1308
86651W        W29563   8.923  29.163   7.672 -0.0121  0.2186 -0.2910
86652W        W29564   9.460  31.585   9.856 -0.2921  0.2212  0.0866
86653W        W29565   9.977  33.037   8.044 -0.2302  0.1289  0.1353
86654W        W29566   8.391  31.524   8.746  0.1956  0.4776 -0.3010
86655W        W29567   6.663  32.685   7.933  0.0189 -0.0341  0.1460
86656W        W29568   7.694  29.404   6.332  0.0220 -0.2627 -0.0215
86657W        W29569   8.690  30.908   8.846 -0.4336  0.3302 -0.1034
86658W        W29570  10.876  31.576   8.136 -0.0953  0.0461 -0.2922
86659W        W29571   9.529  33.115   8.637 -0.0032 -0.1581  0.1107
86660W        W29572   6.179  28.850   9.480  0.0095 -0.0653 -0.2005
86661W        W29573  10.003  31.822   9.592 -0.0307 -0.1713 -0.0915
86662W        W29574  12.336  31.174   7.955  0.1604  0.0534  0.0018
86663W        W29575   9.845  32.173  10.000 -0.1013  0.3369  0.1346
86664W        W29576   9.637  29.761   8.672  0.1521  0.1243 -0.2550
86665W        W29577  10.501  32.496   8.973  0.4221 -0.0300  0.0511
86666W        W29578   6.494  28.997   9.814 -0.0157 -0.0227 -0.0401
86667W        W29579   9.441  30.002   8.158 -0.1485  0.3502  0.0151
86668W        W29580  11.181  30.400   8.083 -0.1711  0.1413 -0.1436
86669W        W29581   6.289  30.278   8.968  0.1491  0.5033  0.1086
86670W        W29582   9.222  30.174   8.578  0.1191 -0.4247 -0.4248
86671W        W29583   9.139  32.317   9.557 -0.3184  0.1843 -0.1914
86672W        W29584   8.339  30.621   7.763 -0.0353  0.1151  0.1512
86673W        W29585  10.922  29.954   8.159  0.0992  0.0006  0.0720
86674W        W29586   8.233  33.227   9.018  0.2062 -0.1852  0.1241
86675W        W29587   7.337   0.245  11.828  0.1089 -0.1231  0.3041
86676W        W29588   9.738  31.731   8.182  0.1409  0.1484  0.0876
86677W        W29589   9.129  28.740   9.798 -0.1122  0.0834  0.0379
86678W        W29590   8.299  31.416   9.240 -0.3337 -0.2008 -0.0966
86679W        W29591  10.405  31.739   8.280  0.0572  0.0442 -0.1523
86680W        W29592  10.394  32.048   8.711  0.1618 -0.0146 -0.0090
86681W        W29593   9.566  29.133   9.425 -0.0481 -0.1573  0.3177
86682W        W29594   9.799  29.580   7.723 -0.1802  0.2643 -0.0485
86683W        W29595   7.959  34.477  11.660  0.0783  0.5711  0.0414
86684W        W29596   8.289  30.594   9.267  0.0892 -0.2790 -0.0366
86685W        W29597   9.198  34.317   0.802  0.1485  0.2153 -0.2646
86686W        W29598  11.092  33.929  31.454  0.1971  0.0958 -0.0153
86687W        W29599  10.912  34.440  31.712  0.3758  0.2293 -0.1119
86688W        W29600   8.153  33.172   1.889  0.0410  0.1600  0.0577
86689W        W29601   9.303  32.503   2.338 -0.2266  0.2109  0.1383
86690W        W29602  10.729   0.234  31.611 -0.1001  0.1891 -0.2917
86691W        W29603   8.804  34.031   0.779 -0.0825 -0.0411 -0.0744
86692W        W29604   7.426  31.494   2.284  0.0568 -0.1280  0.0078
86693W        W29605   6.664  31.916   0.939  0.5265  0.0253 -0.1439
86694W        W29606   9.538   0.651   2.267  0.0036  0.1772  0.2400
86695W        W29607   7.455   1.112   0.516  0.2147  0.0789 -0.1574
86696W        W29608   8.988  32.737   1.406 -0.1361  0.0943  0.0866
86697W        W29609   8.112  33.872   1.224  0.1674  0.0994 -0.0222
86698W        W29610   9.454   0.239   3.113 -0.0769 -0.2985 -0.2588
86699W        W29611   9.238  33.032   3.597  0.0033 -0.0917 -0.0268
86700W        W29612   7.273  34.315   0.802  0.2242 -0.1320  0.3806
86701W        W29613   7.785   0.576   2.248  0.0355  0.3041 -0.1079
86702W        W29614   8.996  34.254   2.632 -0.1460 -0.0470 -0.1999
86703W        W29615  12.306  32.307   1.146 -0.2359  0.0690  0.0976
86704W        W29616  10.701   0.115   2.063  0.2115 -0.1267  0.2719
86705W        W29617  11.768  34.277   1.832 -0.1296 -0.1826  0.1807
86706W        W29618   9.015   0.370   2.490 -0.3809  0.4175 -0.0379
86707W        W29619   9.387   0.625   1.205 -0.1367 -0.0991  0.0925
86708W        W29620  11.070  33.166   4.037 -0.2070 -0.1533 -0.1969
86709W        W29621  10.752  34.125   1.135  0.0916  0.0562 -0.0360
86710W        W29622   8.683  32.611   0.172 -0.2398  0.0697 -0.2665
86711W        W29623  10.130  33.423   0.418 -0.0882 -0.1178  0.1087
86712W        W29624  10.603  33.830   2.419 -0.0774  0.1088 -0.0724
86713W        W29625   9.374  34.649   2.706  0.2877  0.0093 -0.0790
86714W        W29626   8.472  34.285   1.420 -0.2581  0.0240  0.0928
86715W        W29627   9.449   0.381   1.650 -0.1298  0.1381 -0.1212
86716W        W29628   8.333  34.206   0.909  0.1765  0.0111  0.2007
86717W        W29629   6.630  33.258   2.186  0.0742 -0.1724  0.0510
86718W        W29630   7.726  33.047   2.222  0.3336  0.0342  0.2856
86719W        W29631   7.747  33.921   3.991 -0.0278 -0.0448 -0.2483
86720W        W29632   9.543  33.091  31.859  0.0418 -0.2185 -0.1578
86721W        W29633  10.888  33.184   2.966  0.1829 -0.0745  0.2888
86722W        W29634  10.303  33.525   2.065  0.4420  0.2518 -0.0247
86723W        W29635  10.052  33.565   2.690 -0.0254  0.1181 -0.1665
86724W        W29636  11.261  33.563  31.839 -0.2960 -0.0685 -0.1111
86725W        W29637   8.844  32.662   3.004 -0.0418  0.0217 -0.1597
86726W        W29638   9.994  31.946   2.311 -0.0167  0.2513 -0.0253
86727W        W29639  10.642  33.142   1.989 -0.3794  0.0685  0.0964
86728W        W29640   8.403   0.054   3.072  0.1328  0.1536 -0.1821
86729W        W29641  12.031  32.059   1.853  0.3062 -0.1032  0.1060
86730W        W29642  10.943  34.121   0.230  0.3346  0.0135 -0.0267
86731W        W29643   7.484  33.431   2.596  0.1539  0.0641 -0.0168
86732W        W29644   8.006  34.415   1.859  0.1591 -0.2230  0.1728
86733W        W29645   9.487   0.141   3.683 -0.1150  0.0891 -0.0399
86734W        W29646   9.695  33.169   2.299  0.0741  0.0259  0.1752
86735W        W29647  10.070   0.807   3.447 -0.0516  0.2464  0.1492
86736W        W29648   7.152  32.436   0.101  0.0580 -0.1594  0.0624
86737W        W29649   9.868   0.122   1.521  0.2182  0.2551 -0.3535
86738W        W29650   7.529  34.405   1.222 -0.0635  0.1551  0.0801
86739W        W29651   9.691  33.249   2.888 -0.1404 -0.1632  0.0814
86740W        W29652   7.907  32.577   3.112  0.0272 -0.0843 -0.1246
86741W        W29653   8.542  33.757  31.903 -0.2979 -0.2170 -0.2007
86742W        W29654  10.113  33.035   0.117  0.1932 -0.3057  0.1708
86743W        W29655   9.595  32.793   2.629  0.1351  0.2493  0.0010
86744W        W29656  10.239   0.248   1.174  0.0428 -0.0397  0.2119
86745W        W29657   8.229  32.419  31.762  0.3619 -0.3818 -0.0317
86746W        W29658   8.506  33.426   1.558  0.2127  0.1191 -0.1817
86747W        W29659  11.578  34.017   2.601 -0.1932 -0.0141 -0.2592
86748W        W29660   9.258   0.470   3.986 -0.0788  0.1169  0.2619
86749W        W29661  10.203  34.085   2.623 -0.0028 -0.1668  0.0726
86750W        W29662   7.229  32.770   1.901 -0.0816  0.2173  0.2722
86751W        W29663   9.975  32.548   0.999  0.0110  0.0503  0.0414
86752W        W29664  12.231  33.291  31.504 -0.2727 -0.0084 -0.1336
86753W        W29665  11.555  33.373   0.194  0.0096  0.2048 -0.2871
86754W        W29666  10.212  31.939  31.540  0.1930 -0.1420 -0.0617
86755W        W29667   8.986  33.946  31.945 -0.1723  0.0512  0.1321
86756W        W29668   9.222  33.381   2.604 -0.3137  0.2568  0.1600
86757W        W29669   9.254   0.164   0.513 -0.0102 -0.0209  0.0327
86758W        W29670  10.608  33.753   1.412 -0.1187 -0.0720  0.0073
86759W        W29671  11.987  31.976   1.317  0.1432 -0.0404  0.0540
86760W        W29672  10.961  33.576   2.166  0.1962  0.2206  0.1103
86761W        W29673   9.079  33.824   2.366 -0.2412  0.2052 -0.0734
86762W        W29674  10.805   0.886   2.512 -0.2511 -0.2354 -0.0502
86763W        W29675   9.515  34.396   1.177 -0.3073 -0.0701 -0.0758
86764W        W29676   9.923   0.389   2.478 -0.1070 -0.1427 -0.1519
86765W        W29677   8.244  32.739   0.425  0.0639  0.0044 -0.1247
86766W        W29678  10.156  33.128   3.502 -0.2905 -0.1678  0.0129
86767W        W29679   9.309  33.469   3.810 -0.1440 -0.1695  0.2992
86768W        W29680   8.894  33.744   1.864  0.0333 -0.0977 -0.0217
86769W        W29681   7.911  32.091   1.673  0.1230 -0.2121  0.3565
86770W        W29682  11.372  31.533   2.814 -0.1557 -0.1434 -0.0368
86771W        W29683   8.960  33.676   0.450  0.1255  0.1527  0.0841
86772W        W29684   6.802  32.774   1.500  0.0106  0.0663 -0.1180
86773W        W29685  10.983  32.784   2.050  0.2635  0.2945 -0.1860
86774W        W29686   8.694  32.334   3.600 -0.1733 -0.1314 -0.1496
86775W        W29687   9.340  33.990   1.767 -0.2985 -0.3224  0.2140
86776W        W29688   8.745   0.786   3.503 -0.2808 -0.0974  0.2273
86777W        W29689  10.710  33.210   1.460  0.4405  0.3310 -0.1865
86778W        W29690   9.094  34.510   3.327 -0.4296 -0.0572  0.0069
86779W        W29691   7.443  33.947   0.511  0.0243 -0.1910 -0.1882
86780W        W29692  10.665  34.237   1.664  0.0113  0.0167  0.2524
86781W        W29693  10.160  34.019   2.108  0.0080  0.2952 -0.0319
86782W        W29694   8.494  33.948   0.384 -0.0418 -0.0431 -0.3030
86783W        W29695   9.365  34.390   3.703  0.0194  0.0549  0.0014
86784W        W29696   9.620   0.039   2.141  0.2835  0.1046  0.2285
86785W        W29697   8.622  33.475   2.549 -0.1987  0.0575 -0.0013
86786W        W29698   8.346   0.288   0.743 -0.0005  0.2326 -0.2175
86787W        W29699   9.502  34.135   2.493 -0.0318 -0.1298  0.0807
86788W        W29700   9.461  32.168   1.004 -0.1112  0.2033  0.0580
86789W        W29701   9.647  34.491   3.272  0.0837 -0.1095  0.1107
86790W        W29702   9.670  32.706   2.018 -0.0083  0.0738  0.2545
86791W        W29703  10.772  31.911  31.523 -0.0484 -0.0254 -0.0891
86792W        W29704   9.712  33.524   1.310 -0.1476  0.0127 -0.0468
86793W        W29705  10.199  33.441   1.367  0.0124 -0.1036 -0.0154
86794W        W29706  11.270  33.339   1.235 -0.3994  0.0908 -0.3296
86795W        W29707   9.822  33.694   2.292  0.0979  0.1084 -0.0974
86796W        W29708   9.244  34.425   2.176  0.0546  0.2270 -0.0899
86797W        W29709   7.057   0.918   2.451  0.0899  0.1231 -0.1789
86798W        W29710   8.416  33.677   4.728 -0.3454 -0.1706 -0.3215
86799W        W29711   9.637  33.096   0.387  0.0555 -0.0254 -0.2179
86800W        W29712   8.367  33.572   2.083 -0.0317 -0.0745  0.1936
86801W        W29713   8.338   0.843   0.486  0.2896  0.3175  0.1077
86802W        W29714  10.807  34.688   1.529  0.1469  0.1676 -0.2723
86803W        W29715   9.589   1.363   2.837 -0.1643  0.1467  0.0007
86804W        W29716  11.200  33.565   0.706 -0.1690 -0.2191  0.3659
86805W        W29717   9.254  31.244   1.032  0.0439 -0.3069  0.2870
86806W        W29718  11.674  33.450   0.659 -0.2755 -0.1025 -0.1672
86807W        W29719   9.865  34.190   2.944  0.0018  0.0265  0.1309
86808W        W29720  10.896  33.705   3.884  0.1056  0.0103 -0.1458
86809W        W29721   8.592  33.957   2.665  0.1994 -0.0312 -0.0336
86810W        W29722   8.571  33.745   3.171  0.1221  0.2163  0.2894
86811W        W29723  11.301  33.032  31.798  0.0610 -0.1325  0.1291
86812W        W29724  10.240  33.998   1.644 -0.1275 -0.1331  0.2182
86813W        W29725  10.753  33.765  31.870  0.0623 -0.0866  0.1227
86814W        W29726  10.270  33.765   0.009 -0.0354 -0.0459  0.0677
86815W        W29727   9.210  32.974   2.113  0.2407 -0.1120 -0.0979
86816W        W29728  10.895  34.648   2.887 -0.0742  0.0764  0.1412
86817W        W29729   9.275  33.917   1.269 -0.1118 -0.1534  0.0373
86818W        W29730   9.323  32.937   3.054 -0.2386  0.3146 -0.0378
86819W        W29731   9.950  34.571   1.012  0.0087 -0.1356  0.1030
86820W        W29732   8.033  34.577   1.383 -0.2374  0.2707 -0.0375
86821W        W29733   7.139  34.118  30.965 -0.0048 -0.2090  0.3693
86822W        W29734  10.421  34.136   0.309 -0.0680  0.2142 -0.3617
86823W        W29735   9.853  34.299   1.500  0.0709  0.1009  0.0384
86824W        W29736  11.325   0.109   4.186 -0.0522  0.2681 -0.0528
86825W        W29737   9.860  33.750   1.721 -0.1719 -0.0874  0.3439
86826W        W29738  10.070  32.415   2.150 -0.0321  0.1745 -0.1120
86827W        W29739  10.996  34.041   2.043  0.0466 -0.0806 -0.1941
86828W        W29740   8.919  34.272   1.744 -0.1427 -0.1149 -0.0255
86829W        W29741  13.090  34.359   3.618 -0.1471 -0.1040  0.2688
86830W        W29742   8.008  34.582   0.894  0.0509 -0.0989 -0.1313
86831W        W29743   8.831  32.574   2.134 -0.4247  0.2224 -0.1968
86832W        W29744   8.683  34.132   2.205  0.2462  0.1513  0.1848
86833W        W29745   9.641  33.980   0.862 -0.1418 -0.1366 -0.1635
86834W        W29746  11.515  33.526  31.371  0.1208  0.0439 -0.1454
86835W        W29747  11.489  33.713   1.537 -0.0443 -0.0872 -0.0364
86836W        W29748  10.893  34.104   0.699 -0.2082 -0.1254  0.1700
86837W        W29749  10.015  33.476   0.904 -0.3777  0.0804  0.1381
86838W        W29750   8.694  32.105   0.523 -0.1030  0.1331 -0.2381
86839W        W29751   8.930  33.226   1.801  0.1116 -0.0083  0.0497
86840W        W29752  12.736  32.606   3.975  0.3031  0.0486 -0.0387
86841W        W29753   8.647  32.783  31.639  0.0733 -0.1005 -0.1887
86842W        W29754   8.523   0.843   1.544 -0.0572 -0.2040 -0.2048
86843W        W29755  10.630  32.939   3.353  0.2268 -0.1684  0.1315
86844W        W29756   9.634   0.814   3.781 -0.1354 -0.1629  0.3091
86845W        W29757   7.843  32.637   0.757  0.1119 -0.0440  0.0679
86846W        W29758  12.340  34.114   0.322  0.1454  0.1919  0.0149
86847W        W29759   8.102  33.635   3.834  0.0408  0.5266 -0.2297
86848W        W29760  10.403  32.374   3.091  0.0846 -0.0070  0.0002
86849W        W29761   8.808   0.704  30.430  0.2496 -0.0437 -0.0793
86850W        W29762  10.652  33.340   2.493  0.0696  0.1496  0.0684
86851W        W29763   6.384  34.325   2.390  0.2492 -0.0031 -0.1444
86852W        W29764   7.599  34.526   0.552 -0.1091 -0.0587 -0.0777
86853W        W29765  11.090  34.063   2.553  0.1570  0.2157  0.3757
86854W        W29766   8.546  34.256  31.915  0.1758  0.0660 -0.3136
86855W        W29767   9.334  33.522   2.039 -0.2940 -0.2146  0.0363
86856W        W29768  10.018   0.291   0.662  0.1023  0.3894  0.0115
86857W        W29769   6.967  34.649   1.106 -0.3148  0.0087 -0.0434
86858W        W29770   8.837  34.641   2.854 -0.4335 -0.4118 -0.2118
86859W        W29771   6.920  32.328   0.935  0.0837 -0.1227  0.0792
86860W        W29772  10.172  34.519   1.988 -0.0916  0.0724 -0.3154
86861W        W29773   9.373   0.913   0.818 -0.0215 -0.6589  0.0307
86862W        W29774   8.605   0.077   1.330 -0.2874  0.3006  0.0574
86863W        W29775   9.267  33.488   0.946  0.4758  0.1485 -0.2321
86864W        W29776   7.942  34.550   0.162 -0.0393 -0.1459  0.1286
86865W        W29777  10.599  33.831   1.924 -0.4297  0.1594  0.0515
86866W        W29778   9.878  34.467   2.475 -0.0703  0.0989  0.0084
86867W        W29779  11.972  32.164   3.036 -0.1965  0.0675 -0.2607
86868W        W29780   8.913  34.259   1.244 -0.0138 -0.1098 -0.0380
86869W        W29781   9.069  32.311   0.778  0.0529 -0.1952 -0.1635
86870W        W29782  10.768  32.519   0.227  0.0156 -0.1419 -0.2775
86871W        W29783  10.849  32.183   1.640  0.0878  0.0573  0.1662
86872W        W29784   9.764   1.222   3.481 -0.1369  0.2974  0.1423
86873W        W29785   7.571  34.231  31.847  0.2400 -0.0857 -0.3100
86874W        W29786   9.298  32.821   4.494  0.0670  0.2889  0.0110
86875W        W29787   8.723  33.055   2.237 -0.2823  0.3084 -0.3384
86876W        W29788   7.250   0.682   1.565  0.1852  0.1373  0.0268
86877W        W29789   8.415  33.956   1.769 -0.0106  0.0765  0.0478
86878W        W29790   8.265  34.390   2.249  0.0146 -0.3620  0.3233
86879W        W29791   9.127  32.918   0.952  0.2423  0.0281  0.2133
86880W        W29792   8.093  33.177   0.637 -0.0627 -0.3535  0.1073
86881W        W29793   9.882  34.082   3.858  0.0667 -0.3421  0.2321
86882W        W29794   9.908   0.055   2.879 -0.0414  0.1932  0.2856
86883W        W29795   7.349  33.499   0.838  0.0283  0.1248  0.2910
86884W        W29796   9.253  33.521   1.553  0.2253 -0.3668 -0.1473
86885W        W29797   8.562  31.279   2.889 -0.3473  0.0312 -0.0183
86886W        W29798  10.705  33.672   2.877 -0.2443  0.0661 -0.0744
86887W        W29799   8.736  34.616   0.810 -0.3166  0.2689  0.0012
86888W        W29800   8.062  31.794   2.446 -0.3064 -0.0436 -0.0207
86889W        W29801   9.565  32.137   3.196  0.0089  0.2611  0.2803
86890W        W29802   9.655  33.138   0.917  0.0093 -0.2078 -0.0439
86891W        W29803   7.529  34.534   1.700  0.3038  0.0611  0.0299
86892W        W29804  10.350  34.429   1.334  0.2072  0.0441 -0.1843
86893W        W29805  10.127   0.516   2.977 -0.0538 -0.0196 -0.2086
86894W        W29806   7.789  34.060   0.863 -0.1514  0.1283 -0.3003
86895W        W29807  11.919  34.281  31.537 -0.0009  0.3772 -0.1146
86896W        W29808   7.140  31.919   1.167 -0.1850  0.4420  0.1182
86897W        W29809   8.759   0.040  31.937  0.0363 -0.0496 -0.2527
86898W        W29810   8.912   1.842   2.547 -0.0397 -0.3485  0.1057
86899W        W29811  10.346   0.080   2.411  0.1281  0.0489 -0.0042
86900W        W29812   9.428  33.080   1.348 -0.3236 -0.2137 -0.1520
86901W        W29813   9.464  32.271   0.426 -0.1124 -0.1148 -0.0125
86902W        W29814   8.518   0.364   4.326 -0.2322  0.0330 -0.0691
86903W        W29815  10.681  34.165   2.817 -0.0140  0.2304  0.0812
86904W        W29816  10.925   0.525   3.009  0.1840  0.1287  0.2586
86905W        W29817   7.727  34.663   4.703  0.0682  0.0862 -0.1822
86906W        W29818   7.713  32.440   5.924  0.0406 -0.1718  0.2436
86907W        W29819   9.955   1.648   3.006 -0.0434 -0.4505 -0.3307
86908W        W29820   9.161   0.078   6.019  0.2486  0.1571  0.3010
86909W        W29821   8.780  33.011   3.439  0.0959 -0.1559 -0.2973
86910W        W29822   9.154  32.000   5.416  0.0613  0.2357  0.0675
86911W        W29823  10.566  33.684   5.930 -0.0238  0.0530 -0.0473
86912W        W29824   8.890   1.138   4.505 -0.0135  0.0753 -0.1497
86913W        W29825   8.661  33.669   5.806 -0.0343 -0.3479  0.0732
86914W        W29826   8.105  33.863   4.372 -0.1747 -0.3086  0.1964
86915W        W29827   8.388  34.501   7.040 -0.0591  0.0485  0.2406
86916W        W29828  10.345  33.134   6.562 -0.0149  0.0271  0.1938
86917W        W29829   8.624  34.329   3.534  0.0057 -0.2095 -0.1081
86918W        W29830   6.558  33.842   5.667 -0.2026 -0.1013 -0.1741
86919W        W29831   8.279  33.067   5.961  0.1929  0.1657  0.0874
86920W        W29832  10.698  32.965   4.775 -0.0380 -0.0338  0.4707
86921W        W29833  11.137   0.907   4.004  0.5770 -0.2070 -0.2780
86922W        W29834  10.728  33.716   7.053  0.4217 -0.1597 -0.1010
86923W        W29835   9.704  34.682   5.915  0.0358 -0.0196  0.2614
86924W        W29836   9.460  33.702   4.322  0.0111 -0.1250 -0.0117
86925W        W29837  11.508  32.273   6.672 -0.1428 -0.1517 -0.2135
86926W        W29838  10.353   0.059   4.212 -0.0731 -0.0481  0.1063
86927W        W29839  10.530  34.511   3.790  0.2604  0.0519 -0.3960
86928W        W29840  11.332  33.528   4.560 -0.0672  0.0303 -0.1288
86929W        W29841   8.624  32.291   5.321  0.3051 -0.0812  0.0309
86930W        W29842   9.086  32.496   5.422 -0.1405  0.1389  0.0299
86931W        W29843   9.480  34.010   4.760 -0.1264  0.1936  0.1533
86932W        W29844  10.425  34.617   5.029 -0.0784  0.2558 -0.0324
86933W        W29845   8.713  34.107   5.506  0.5304 -0.2201 -0.2111
86934W        W29846   7.919  33.808   5.183  0.0052  0.0583  0.2642
86935W        W29847   7.825   0.364   5.980 -0.0850  0.0034  0.1446
86936W        W29848   7.840  33.378   6.885  0.2267 -0.1489 -0.2378
86937W        W29849   7.596  32.093   3.160 -0.1964  0.0550 -0.0105
86938W        W29850  11.828  33.505   4.891 -0.0392  0.3045 -0.1079
86939W        W29851   9.385  32.309   5.785 -0.4035 -0.1255  0.1850
86940W        W29852  11.153  32.954   4.498  0.2814 -0.0514 -0.0715
86941W        W29853  12.862   0.004   4.991 -0.2548  0.1498  0.0314
86942W        W29854   8.125  33.219   6.463  0.3517 -0.0936 -0.0264
86943W        W29855   7.808  32.696   7.168 -0.0025  0.0476  0.7350
86944W        W29856   9.893  32.903   4.467 -0.2403 -0.0922 -0.2084
86945W        W29857   6.587  33.468   6.460  0.2962  0.1034  0.0708
86946W        W29858  12.573  33.129   5.506  0.1700  0.3317 -0.1098
86947W        W29859  11.204   0.296   4.737 -0.2063 -0.0893 -0.2521
86948W        W29860   9.000  33.433   5.503 -0.1202 -0.0800  0.1893
86949W        W29861   7.358  33.948   5.373 -0.0285  0.1630  0.5679
86950W        W29862   7.750  33.139   7.364  0.0914  0.1346  0.0391
86951W        W29863   7.652  32.707   5.474 -0.1441 -0.2166 -0.3007
86952W        W29864  10.655  34.199   5.989  0.2329 -0.1501  0.1259
86953W        W29865   8.872  32.104   4.261  0.4575 -0.2337  0.2585
86954W        W29866  12.007  32.879   4.435 -0.0773  0.0808 -0.1387
86955W        W29867   7.406  33.018   5.086 -0.0298 -0.0164 -0.0065
86956W        W29868  10.915  32.466   7.344  0.1057  0.0861  0.2396
86957W        W29869   9.360  34.112   6.549  0.0303 -0.1882  0.1518
86958W        W29870   8.934  33.730   4.087 -0.0263 -0.4929  0.1801
86959W        W29871   8.616  32.257   4.810 -0.1354 -0.1303  0.3107
86960W        W29872  11.437  32.778   6.588 -0.0859 -0.1050  0.1529
86961W        W29873   8.731  31.862   5.071  0.1770 -0.0256  0.2969
86962W        W29874   9.459  33.435   3.244  0.0363 -0.0206 -0.2045
86963W        W29875   7.871   0.231   3.706 -0.1688 -0.4029 -0.1355
86964W        W29876  10.831  33.628   5.414 -0.0274 -0.0056 -0.1794
86965W        W29877   7.681   0.567   7.261 -0.2715 -0.1229 -0.3926
86966W        W29878  10.298  34.047   6.437 -0.1061 -0.3835  0.1706
86967W        W29879   8.986  33.626   5.031 -0.2992  0.3847 -0.1566
86968W        W29880  11.136  32.679   4.946  0.2220 -0.2295 -0.0486
86969W        W29881  10.796  33.900   3.346  0.1940  0.3374 -0.2340
86970W        W29882  11.045  33.337   3.528 -0.0981  0.0261  0.1116
86971W        W29883   8.968  33.485   3.332 -0.0634 -0.1069 -0.1991
86972W        W29884  10.095  33.597   3.715  0.1215 -0.0477 -0.1433
86973W        W29885   9.097  32.527   7.176 -0.0168  0.3296  0.0732
86974W        W29886   8.411   0.746   3.073  0.1438 -0.0363 -0.0243
86975W        W29887   9.589  32.370   5.268  0.0704 -0.3857  0.4095
86976W        W29888  12.160  33.299   5.336  0.0095  0.0127 -0.0245
86977W        W29889   9.421  33.433   5.145  0.0984 -0.1585 -0.4961
86978W        W29890   9.360  32.070   6.841 -0.2123 -0.0768 -0.0144
86979W        W29891  10.359  34.591   6.544 -0.1121 -0.1311  0.2538
86980W        W29892   9.532  34.262   4.303 -0.0914  0.1437  0.1515
86981W        W29893  10.115  34.183   5.140 -0.0018  0.1254  0.1025
86982W        W29894   9.701  33.195   3.755 -0.0450  0.0175 -0.0711
86983W        W29895   9.727  33.585   6.096 -0.0072 -0.3301 -0.2330
86984W        W29896  10.572  31.920   6.032 -0.0888 -0.2023  0.0871
86985W        W29897   9.911  33.213   5.798  0.1933 -0.0517  0.0676
86986W        W29898   9.027  33.469   6.971 -0.0236 -0.0914 -0.0838
86987W        W29899   7.806  34.117   3.518  0.1142  0.1023  0.0239
86988W        W29900   8.537  33.838   3.709  0.3854  0.2326 -0.0958
86989W        W29901  10.809  31.214   6.588  0.0536  0.1100 -0.2114
86990W        W29902   7.895  33.413   6.078 -0.1121 -0.0570  0.1114
86991W        W29903   9.300  33.396   5.888 -0.1338  0.1262  0.0561
86992W        W29904  10.020  34.604   5.394  0.0412  0.1927  0.1368
86993W        W29905  10.682  32.453   4.089  0.4022  0.0432 -0.2185
86994W        W29906  11.008  33.526   6.648  0.4064 -0.0847  0.0032
86995W        W29907   7.057  32.888   4.697 -0.1770  0.0322 -0.3011
86996W        W29908  11.548  33.862   7.394 -0.1465 -0.0884  0.1027
86997W        W29909   9.449  33.100   5.540  0.0641 -0.1915 -0.0074
86998W        W29910   8.998   0.569   4.407 -0.1423 -0.0490 -0.2955
86999W        W29911   9.551  34.285   5.225 -0.3104 -0.4202 -0.1243
87000W        W29912   8.577  33.288   5.048  0.1655 -0.4736 -0.0464
87001W        W29913   8.357  32.722   4.925  0.0759 -0.1231  0.1404
87002W        W29914  10.655  33.119   5.351  0.4150  0.5012  0.0776
87003W        W29915  10.409  32.518   5.964  0.2014  0.2283 -0.1999
87004W        W29916   9.253  34.531   6.710  0.0316  0.1419  0.1273
87005W        W29917   9.434   0.326   6.882  0.0162 -0.1069  0.0372
87006W        W29918  10.802  33.443   4.412  0.1308  0.0165 -0.1785
87007W        W29919   9.626  32.464   6.835  0.0879 -0.0651 -0.2836
87008W        W29920  12.013  34.564   5.841 -0.0631  0.0473 -0.2735
87009W        W29921  10.661  34.131   4.177 -0.3628 -0.2999  0.2762
87010W        W29922  10.105  32.775   6.809  0.1765 -0.1575  0.0486
87011W        W29923   7.953  32.335   4.713  0.0014  0.1615 -0.0584
87012W        W29924   8.419  33.316   5.536  0.1457  0.2352 -0.1146
87013W        W29925   6.176   0.200   7.951 -0.2203 -0.2813 -0.1040
87014W        W29926   9.865  33.183   5.241  0.3443  0.0347  0.0390
87015W        W29927   9.913  32.353   4.260 -0.0612  0.1014 -0.2248
87016W        W29928   8.169   1.170   6.089  0.0385  0.2036  0.0404
87017W        W29929  11.403  34.689   5.072  0.0187 -0.2117 -0.0002
87018W        W29930   9.164  34.271   6.073  0.1863  0.1654 -0.0501
87019W        W29931   9.928  33.635   5.032  0.0233  0.0721 -0.0594
87020W        W29932   7.712  32.489   8.092  0.1481  0.0157  0.2474
87021W        W29933  10.156  32.815   5.636  0.0754  0.3927  0.2413
87022W        W29934   9.335   0.835   7.009  0.1772  0.1511 -0.0715
87023W        W29935   9.554  32.931   4.923  0.3210  0.0262  0.2617
87024W        W29936   8.900   0.076   7.060 -0.1433 -0.1270  0.0746
87025W        W29937   6.576  34.611   6.183 -0.0956  0.0072 -0.1417
87026W        W29938  10.450  33.952   3.738  0.1360 -0.1021 -0.5265
87027W        W29939  10.481  33.148   5.888 -0.2320  0.0614  0.1610
87028W        W29940  10.921  33.804   4.887 -0.1574  0.0775  0.1437
87029W        W29941  10.935  34.497   4.395 -0.0399  0.1545  0.1143
87030W        W29942   8.254  32.794   3.353 -0.3552 -0.5754  0.2440
87031W        W29943  10.212  33.459   6.194 -0.1557  0.0219  0.1461
87032W        W29944   9.968  33.689   4.336 -0.0255 -0.1127 -0.1532
87033W        W29945  10.909  33.076   6.629  0.2320  0.0608  0.1017
87034W        W29946   9.682  33.935   3.346 -0.0338  0.2018 -0.4129
87035W        W29947   6.555  33.386   5.757 -0.1384 -0.1296 -0.0320
87036W        W29948   9.193  32.512   1.849  0.0704 -0.0279 -0.0228
87037W        W29949   9.260  34.688   4.191 -0.2275 -0.0897 -0.5192
87038W        W29950   9.229  33.298   4.692  0.0155  0.1059 -0.0579
87039W        W29951  11.136  32.982   7.404  0.0087 -0.2611 -0.2094
87040W        W29952   9.771  31.371   4.483  0.0120 -0.1440  0.1859
87041W        W29953   9.114  33.717   6.211 -0.1905  0.3572 -0.2110
87042W        W29954   8.677  32.795   5.404  0.0420  0.0645  0.1353
87043W        W29955   9.598  34.530   4.772 -0.2130 -0.1379  0.2226
87044W        W29956  10.977  34.451   6.915 -0.1552  0.0462  0.0454
87045W        W29957   7.827  33.267   5.526  0.0942  0.0198  0.1543
87046W        W29958   7.459  34.105   7.244  0.2124 -0.4020 -0.0869
87047W        W29959   9.231  31.059   4.207  0.0402  0.0116 -0.1217
87048W        W29960   9.029  33.812   4.558  0.0537  0.3334  0.1766
87049W        W29961  12.466  33.291   3.649 -0.0512  0.1175 -0.1003
87050W        W29962  11.735   0.588   4.687  0.0327  0.2963  0.1073
87051W        W29963  11.691  33.912   3.800 -0.1851 -0.0830  0.0087
87052W        W29964   8.897   0.539   5.887 -0.1316 -0.1044 -0.1836
87053W        W29965  10.306  33.279   4.564  0.1585 -0.1202  0.0109
87054W        W29966   8.407  33.550   6.835  0.1393  0.0821 -0.0071
87055W        W29967  12.164  32.857   6.700  0.3955  0.1469 -0.0706
87056W        W29968   7.790  33.715   2.880  0.1321 -0.1137  0.1135
87057W        W29969   8.202  34.202   3.971 -0.0069 -0.3081  0.1933
87058W        W29970  10.749  33.355   6.266 -0.2543  0.0083  0.1356
87059W        W29971   9.039  34.277   4.496 -0.2904 -0.0649  0.0560
87060W        W29972   6.256  32.704   4.126  0.3757 -0.1211  0.0148
87061W        W29973  11.681  34.219   4.914  0.3036  0.0537 -0.0013
87062W        W29974   7.065   0.554   6.565  0.0277 -0.0667  0.1190
87063W        W29975  11.265  33.384   6.261  0.3187 -0.1846  0.1523
87064W        W29976   8.156  32.875   5.435 -0.0884  0.0242 -0.1362
87065W        W29977  10.168   0.977   3.884  0.0097 -0.0454  0.0924
87066W        W29978   7.986  33.774   6.522 -0.2394 -0.3281  0.0385
87067W        W29979   9.960  34.649   3.771 -0.3178 -0.0603 -0.1637
87068W        W29980  11.109   0.370   8.379 -0.2983 -0.0555 -0.1260
87069W        W29981  10.546  33.492   3.468 -0.0378 -0.1398  0.1461
87070W        W29982   8.487  31.758   4.153  0.2459 -0.0574  0.0312
87071W        W29983  11.012   0.007   3.833  0.1028  0.1282  0.1795
87072W        W29984   8.198  32.518   5.840  0.2342 -0.1198 -0.0744
87073W        W29985   9.139  33.875   5.717  0.1872 -0.2916 -0.3523
87074W        W29986   7.410  33.496   4.605 -0.1532 -0.0214 -0.2602
87075W        W29987  10.982  33.311   4.983 -0.1047 -0.2523 -0.2472
87076W        W29988  11.819  34.432   2.918  0.0825  0.1471  0.1404
87077W        W29989   8.499  32.105   6.061  0.1469  0.0153 -0.1398
87078W        W29990  10.818  32.122   4.800 -0.1091  0.1593 -0.2774
87079W        W29991   8.639   0.213   4.994  0.2925 -0.0352 -0.2032
87080W        W29992  10.441  33.535   4.952  0.2735 -0.0696  0.0065
87081W        W29993  10.106  32.909   6.159 -0.1019 -0.0949 -0.0347
87082W        W29994  11.320  33.169   7.861  0.3821  0.0386  0.1661
87083W        W29995  11.796  33.505   4.283  0.1315 -0.0917  0.0015
87084W        W29996   9.685  32.331   4.750  0.1705  0.0156  0.3762
87085W        W29997  11.146  33.177   5.465  0.1473 -0.0846 -0.0971
87086W        W29998  11.343  33.576   4.064  0.2417  0.3633 -0.0999
87087W        W29999   8.730  33.922   6.588  0.0717 -0.2950  0.1262
87088W        W30000   8.244  33.262   4.513  0.0969  0.2168 -0.1199
87089W        W30001   9.532  31.798   7.655  0.3699 -0.1484  0.1902
87090W        W30002   7.542  34.243   6.524  0.3375  0.1247  0.1187
87091W        W30003   6.952  34.538   4.894 -0.0613 -0.0460 -0.2599
87092W        W30004   8.597  33.001   4.284  0.1807 -0.0221  0.0304
87093W        W30005   8.798  33.377   6.507  0.1158  0.2591  0.0076
87094W        W30006   7.860  32.715   5.024 -0.1590  0.1308 -0.4244
87095W        W30007   9.077  33.012   5.210  0.4428 -0.2780 -0.0618
87096W        W30008   8.859  34.350   6.476 -0.0875  0.1690 -0.0402
87097W        W30009   9.462  33.668   6.863  0.1189  0.4047 -0.2326
87098W        W30010   8.353  32.227   4.310 -0.0057  0.1751 -0.1288
87099W        W30011  10.281  33.458   5.469  0.0528 -0.0920  0.0002
87100W        W30012   7.191  32.274   5.949  0.0594 -0.0806  0.2585
87101W        W30013  11.374  33.574   5.123  0.2077 -0.1211 -0.2152
87102W        W30014  10.447  33.781   4.460 -0.0793 -0.0748 -0.3853
87103W        W30015   8.422  32.313   6.578 -0.4079 -0.1383  0.1172
87104W        W30016   8.087  33.247   5.028 -0.0597 -0.2839 -0.0806
87105W        W30017  10.296  33.004   5.045 -0.2786  0.2524  0.3343
87106W        W30018   8.831  33.235   5.956 -0.1055  0.2352 -0.1193
87107W        W30019  10.305  32.685   4.578 -0.5235 -0.2052  0.0450
87108W        W30020   9.916  33.876   6.737  0.2280  0.0037  0.0337
87109W        W30021   7.520  33.501   5.174 -0.0122  0.2351  0.0827
87110W        W30022  12.650  34.449   4.576  0.2973  0.1466 -0.1217
87111W        W30023   9.420  32.544   6.235 -0.0433  0.2012 -0.3211
87112W        W30024   9.354   0.793   4.602  0.1406 -0.1864  0.3037
87113W        W30025   9.765  33.336   4.647  0.0578 -0.1235 -0.3554
87114W        W30026  10.895  34.117   5.575 -0.1029 -0.1374  0.2819
87115W        W30027   9.124  34.065   5.237  0.1502  0.2677  0.0935
87116W        W30028  10.247  32.278   3.866 -0.2034  0.0067 -0.3044
87117W        W30029   8.398  33.664   8.339 -0.1036  0.0832  0.2378
87118W        W30030  10.791  33.197   7.093  0.1417  0.0089 -0.0892
87119W        W30031  10.970  34.191   9.311  0.0394  0.0572 -0.2098
87120W        W30032   8.983  33.967   8.795  0.2897  0.0902 -0.2306
87121W        W30033  10.360  32.677   8.525 -0.0272 -0.2288  0.0130
87122W        W30034   7.697  34.319  10.035  0.2151 -0.1916 -0.2005
87123W        W30035   8.982  32.837   8.535  0.0851 -0.2596 -0.0810
87124W        W30036   7.439  33.747   9.303  0.1921 -0.2804 -0.0193
87125W        W30037   9.419  34.313  10.080  0.0458 -0.0150 -0.0527
87126W        W30038   7.658   0.968   8.205 -0.1399  0.0915  0.1489
87127W        W30039   9.064  33.976   9.649 -0.0659  0.1645  0.0513
87128W        W30040   9.224  33.222   8.222  0.0754  0.2086 -0.2281
87129W        W30041   7.209   0.604   9.752  0.1866  0.0879  0.2062
87130W        W30042   7.919   0.150   7.087 -0.6029 -0.3592  0.0043
87131W        W30043   8.186   1.135   8.144  0.0793  0.2566  0.1977
87132W        W30044   7.649  34.103   8.327  0.0052 -0.1070 -0.0506
87133W        W30045   8.862  32.365   8.635 -0.1255  0.2460  0.0041
87134W        W30046  11.622  33.488   8.915  0.0340  0.2930 -0.0756
87135W        W30047   8.073   1.052   8.660  0.0907  0.1614  0.0586
87136W        W30048   9.534  33.783   9.418  0.1281 -0.0119  0.0824
87137W        W30049  10.102  34.331   6.882 -0.0434  0.0228  0.0740
87138W        W30050   8.789  33.907   7.087 -0.1951 -0.2318  0.1218
87139W        W30051  11.465  33.459   8.214 -0.1195  0.3936 -0.1705
87140W        W30052   9.365  33.362   9.189 -0.0351  0.1967 -0.1434
87141W        W30053   8.643  33.623   9.927  0.0077 -0.0929 -0.0424
87142W        W30054   8.528  33.979   9.116  0.1030  0.1561 -0.0559
87143W        W30055   5.614  34.603   9.193  0.0701 -0.4835  0.0913
87144W        W30056   7.011  33.957   7.598 -0.2709  0.0653 -0.2932
87145W        W30057   7.443  34.459   7.598 -0.0915 -0.1129  0.3030
87146W        W30058   8.988  32.022   7.700 -0.3098 -0.0677  0.1157
87147W        W30059  11.503  32.952   8.784 -0.2238 -0.4073  0.3975
87148W        W30060   9.085  31.391   8.693 -0.3055  0.1566  0.0239
87149W        W30061   7.543  33.123   9.242  0.0757 -0.0616  0.0649
87150W        W30062  10.609  32.840   6.277  0.2224 -0.2908 -0.1439
87151W        W30063   7.883  32.741   9.355 -0.0779 -0.3041  0.1269
87152W        W30064  11.199  33.662   9.949 -0.1989  0.1247 -0.0171
87153W        W30065  12.191  33.286   9.393 -0.4171 -0.1827  0.2231
87154W        W30066  10.202   0.323   7.320 -0.2614 -0.1891 -0.0964
87155W        W30067  11.540  32.150  11.911  0.3207  0.0470 -0.0064
87156W        W30068   8.460  34.170   8.603 -0.3069 -0.1793 -0.2080
87157W        W30069   6.886   0.335   6.985 -0.0589  0.0088 -0.0607
87158W        W30070   8.296  32.723   7.294  0.1383  0.2467  0.0592
87159W        W30071   9.687  32.962   9.110  0.2717 -0.0466 -0.1220
87160W        W30072  10.140  33.581   9.535 -0.1145  0.0856  0.1192
87161W        W30073   6.112  34.338   9.192  0.1596 -0.1511 -0.0420
87162W        W30074   7.082  32.473   7.945 -0.2620 -0.0374  0.1615
87163W        W30075   8.428  31.994   7.670 -0.1004 -0.1208  0.0043
87164W        W30076  10.632  33.375   9.513  0.1150  0.2162  0.2359
87165W        W30077   8.471  32.678   7.805 -0.1715 -0.0756 -0.0505
87166W        W30078   7.172  33.143   7.250  0.0330 -0.2463  0.2795
87167W        W30079  10.986  33.689   9.420  0.3745  0.1273  0.2509
87168W        W30080   8.459  34.038   7.931  0.0740  0.3587 -0.2078
87169W        W30081  10.410  32.470   7.749  0.0880 -0.0215  0.0012
87170W        W30082  11.261  34.248   7.728 -0.1007 -0.1850 -0.0913
87171W        W30083  10.364  33.274   7.601 -0.3352 -0.2973 -0.2255
87172W        W30084   9.528  32.814   7.329 -0.1302 -0.0902  0.0532
87173W        W30085   9.300  34.118   7.064  0.2073 -0.0117 -0.0141
87174W        W30086   8.444   1.133   9.664 -0.0601 -0.0573 -0.1889
87175W        W30087   9.761  34.030   7.146  0.0835  0.2132  0.2751
87176W        W30088   9.496  32.181   8.621 -0.0757  0.0401 -0.0642
87177W        W30089   6.621  34.082   9.183  0.2210 -0.1891  0.0443
87178W        W30090  10.246  32.692   9.954  0.1345  0.0472 -0.0154
87179W        W30091  10.353  33.998   8.030 -0.2924 -0.1577 -0.1142
87180W        W30092   8.396   0.064   9.909  0.0249  0.0728  0.0447
87181W        W30093  10.169  33.172   8.470 -0.0589  0.0129  0.2249
87182W        W30094   8.826  31.829   8.927  0.1355 -0.1321 -0.1844
87183W        W30095   9.645  33.808   7.859  0.1160  0.3578 -0.1187
87184W        W30096   8.965  32.809   7.963 -0.0517 -0.0025 -0.3044
87185W        W30097  11.577  32.955   8.298  0.1119  0.1034 -0.1802
87186W        W30098   8.299  33.139   7.618  0.1334  0.0179  0.1357
87187W        W30099   7.963  34.379   6.719  0.0379 -0.0077  0.0962
87188W        W30100   9.728  33.373   8.234  0.0624 -0.1818  0.1921
87189W        W30101   7.261  33.495   7.666 -0.0386 -0.0193 -0.0348
87190W        W30102   8.963  32.725   9.105 -0.1887  0.2661 -0.1283
87191W        W30103  11.459  33.815   7.883  0.2462 -0.3240 -0.2472
87192W        W30104   8.466  33.127   7.081 -0.1655  0.0366 -0.1839
87193W        W30105   9.061  33.448   9.670  0.1655 -0.1439 -0.1290
87194W        W30106   9.407  32.685   8.793  0.1750 -0.0111 -0.1553
87195W        W30107   8.818  34.351   7.320  0.2092  0.1209 -0.2714
87196W        W30108  10.649  32.363   9.425  0.0606  0.0111  0.0390
87197W        W30109   7.947  31.873   8.630 -0.0691  0.0446  0.1376
87198W        W30110   8.035  34.157   9.166  0.3149  0.2958  0.2819
87199W        W30111   8.341   0.261   9.406  0.0459  0.2172 -0.0478
87200W        W30112   8.082  32.670  10.273  0.1439  0.1258 -0.1516
87201W        W30113   8.427  32.508   8.855 -0.0249 -0.1178 -0.2897
87202W        W30114   9.322  31.374   9.430 -0.2928  0.1685  0.1729
87203W        W30115  10.420  33.572   8.420  0.0708 -0.1131 -0.0312
87204W        W30116   8.162  34.454   9.544 -0.0523 -0.2794 -0.4167
87205W        W30117  10.027  34.019   7.583 -0.0412  0.1035 -0.1877
87206W        W30118   6.258  32.776   8.837  0.0588  0.2836  0.0922
87207W        W30119   9.258  32.964   9.515  0.0356  0.2603  0.1376
87208W        W30120   7.491  32.599   7.592  0.2246 -0.0408 -0.0414
87209W        W30121   7.358  34.401   9.556  0.2444 -0.1765 -0.4221
87210W        W30122  10.540  33.914   9.343  0.1759  0.1726 -0.0443
87211W        W30123   8.843  33.185   9.074 -0.1291  0.1444 -0.0920
87212W        W30124   8.968   0.098   9.088 -0.0477 -0.3181  0.3079
87213W        W30125   9.689  32.537   7.670  0.4223 -0.2274  0.0916
87214W        W30126  10.220  34.489   7.904  0.4399  0.2377  0.0107
87215W        W30127   9.612  31.320  10.414  0.3623  0.2929  0.0977
87216W        W30128   9.998  33.899   9.089 -0.1260 -0.1662  0.0222
87217W        W30129  10.298  33.964   8.698  0.0668  0.0394 -0.0993
87218W        W30130   8.175   0.292   7.559 -0.2574 -0.0338  0.1954
87219W        W30131   8.693  32.742   6.860 -0.0801 -0.0091  0.2111
87220W        W30132  10.505  33.855   7.564 -0.0439 -0.0242 -0.3341
87221W        W30133   8.193  33.588   7.713 -0.0598 -0.2759  0.1370
87222W        W30134   8.096  32.173   8.079 -0.0804 -0.0236  0.1119
87223W        W30135   8.867  33.873   8.316 -0.1089 -0.1730  0.0575
87224W        W30136   8.748  32.901   7.397  0.0423  0.0059 -0.0629
87225W        W30137   9.085  31.956   8.476 -0.1388 -0.1474  0.0142
87226W        W30138   6.842  33.708   8.795 -0.1609  0.0918 -0.1397
87227W        W30139   9.682  33.264   9.607 -0.3289  0.3256  0.1677
87228W        W30140   9.826   0.570   9.416 -0.2176  0.1716 -0.2544
87229W        W30141   8.487   1.687   9.435  0.1552 -0.1947  0.1271
87230W        W30142   8.535  32.994   8.762  0.3337 -0.1477 -0.2326
87231W        W30143   9.572  33.265   7.759  0.1383  0.0109  0.2205
87232W        W30144  12.294  33.627   8.452  0.0714  0.0890 -0.1160
87233W        W30145   9.147   0.098   9.801 -0.2221  0.1280 -0.0548
87234W        W30146  11.255  33.804   9.024  0.2006  0.1761 -0.2794
87235W        W30147  10.180  32.805   9.361  0.2859 -0.0499  0.4088
87236W        W30148   9.206  32.520   7.641 -0.0833  0.0669 -0.2203
87237W        W30149   6.872  33.193   8.027  0.2707 -0.2945 -0.3364
87238W        W30150   8.484   0.056   8.568 -0.2339 -0.1893  0.3230
87239W        W30151  10.914  33.472   8.194 -0.0484  0.5140 -0.0959
87240W        W30152  10.471  32.156   9.871 -0.1362  0.1024  0.3616
87241W        W30153  10.781  34.666   9.968 -0.0944  0.0951  0.2842
87242W        W30154   8.839  34.439   8.779 -0.0004  0.0369 -0.1022
87243W        W30155   7.595  33.566  10.361  0.0434 -0.0077  0.0558
87244W        W30156  10.176  34.113   9.631 -0.1860 -0.1423 -0.3288
87245W        W30157   8.188  32.325   9.410 -0.1619  0.1157 -0.0277
87246W        W30158  10.137  33.535   7.983 -0.0405  0.0498 -0.0927
87247W        W30159   9.915  33.495   7.502 -0.2178 -0.0589 -0.4397
87248W        W30160   8.724  33.248   8.372 -0.1455  0.3041  0.2176
87249W        W30161  10.502  33.164   8.059 -0.0138 -0.2546  0.2100
87250W        W30162   8.877  33.958   7.614 -0.1100 -0.3155 -0.2952
87251W        W30163   7.442  33.273   8.378  0.0164  0.3520  0.1743
87252W        W30164   8.305  33.256   8.079 -0.0684  0.1247 -0.0901
87253W        W30165   9.881  33.620   8.681 -0.2969 -0.2366 -0.2539
87254W        W30166  10.399   0.528   7.752  0.3555 -0.4243 -0.1444
87255W        W30167   8.737  33.539   7.986 -0.2537  0.1304  0.0893
87256W        W30168   9.132  32.405   8.187 -0.1742  0.3016 -0.1570
87257W        W30169   9.652  34.408   9.193  0.0828  0.0168  0.2921
87258W        W30170  10.639  32.815   9.653 -0.1631 -0.2039 -0.0722
87259W        W30171  10.746  33.258   9.946 -0.1181  0.0410 -0.1019
87260W        W30172   8.400  33.594  10.349 -0.4618 -0.1258 -0.2816
87261W        W30173  10.829  32.889   7.783  0.0204  0.0173  0.1083
87262W        W30174  10.939  32.323   8.575  0.0056 -0.1295  0.0142
87263W        W30175   7.041  34.534  12.044  0.3230  0.1319 -0.0076
87264W        W30176   7.204  34.677   6.539 -0.0556  0.2863 -0.2206
87265W        W30177   7.958  33.750   8.110  0.2201  0.2495 -0.1312
87266W        W30178   8.619  33.535   7.442  0.3424 -0.1754  0.0708
87267W        W30179   6.937  34.493   9.878  0.3136  0.2765  0.0920
87268W        W30180   8.199  33.220   8.532 -0.1812  0.0017 -0.1343
87269W        W30181   8.462  34.055   9.602 -0.0828  0.4322  0.0480
87270W        W30182   7.428  32.944   7.975  0.3619  0.2545  0.2283
87271W        W30183   8.876  33.569  10.530  0.0079  0.2534  0.0471
87272W        W30184   5.725  32.561   9.436 -0.0473  0.2133  0.0258
87273W        W30185  10.190  32.942   8.909  0.1897  0.2233  0.2552
87274W        W30186   8.764  34.379   8.240  0.0526 -0.0341 -0.0513
87275W        W30187   8.899  33.667   9.262 -0.0473 -0.1394 -0.0712
87276W        W30188   9.834  33.431   9.110  0.0636  0.1585 -0.0804
87277W        W30189   8.697   1.032  10.090 -0.0618  0.0282 -0.2069
87278W        W30190   8.086  33.156   9.527 -0.1908 -0.0544  0.0442
87279W        W30191   8.851   0.132   8.094  0.2373 -0.4450  0.0758
87280W        W30192  11.039  34.611   8.845 -0.3109 -0.1052 -0.1142
87281W        W30193   7.816  33.486   9.081  0.1752  0.3633 -0.3545
87282W        W30194   8.467   0.072   6.617 -0.2067  0.1844 -0.1678
87283W        W30195   8.607   0.539   7.815 -0.1789 -0.1326 -0.1445
87284W        W30196   9.446   4.023  10.198 -0.0903 -0.0312 -0.2698
87285W        W30197   7.454  32.871   9.672  0.1761 -0.2059 -0.3845
87286W        W30198   9.432  32.176   7.365  0.1056  0.2060  0.0930
87287W        W30199  13.219   3.169   3.374  0.0796 -0.1249  0.0377
87288W        W30200  12.216   0.230  31.697 -0.1103  0.6577 -0.3085
87289W        W30201  12.601   1.129  31.722 -0.4810  0.2099  0.0187
87290W        W30202  13.070   1.865   0.152 -0.0533  0.1712 -0.1360
87291W        W30203  10.480   1.104   1.005  0.2537  0.0501  0.0217
87292W        W30204  14.605   4.345   0.441  0.1217  0.3107 -0.3616
87293W        W30205  11.027  33.492   1.712  0.1107 -0.2040 -0.2001
87294W        W30206  14.090   3.897   1.869 -0.1003 -0.1571  0.0760
87295W        W30207  14.939   4.287   2.244  0.3786 -0.0369 -0.0369
87296W        W30208  13.547   2.411  30.778 -0.0867  0.1069 -0.4075
87297W        W30209  14.734   1.311   2.865  0.3492  0.1167  0.1146
87298W        W30210  11.849   2.360   3.150  0.3093  0.2011  0.1633
87299W        W30211  11.377  34.551   0.189 -0.0146  0.0943 -0.3592
87300W        W30212   9.890   0.616   1.416 -0.1527  0.1538  0.0225
87301W        W30213  14.923   2.455   1.292 -0.0831 -0.1133 -0.0750
87302W        W30214  10.813   2.264   0.549 -0.1269 -0.1648 -0.0321
87303W        W30215  13.463   1.678   1.672  0.1485 -0.1105 -0.0664
87304W        W30216  11.446   0.633   0.219 -0.1470  0.0975  0.2164
87305W        W30217  13.418   5.100  31.972 -0.1001 -0.0844  0.0740
87306W        W30218  12.502   0.807   1.421 -0.0493  0.0447  0.2267
87307W        W30219  12.301   0.573   3.277 -0.3870  0.1235 -0.5174
87308W        W30220  12.731   2.178   0.309  0.1310  0.0847 -0.0642
87309W        W30221  12.017   0.573  30.234 -0.1595  0.0706 -0.1329
87310W        W30222  11.366   0.914   2.660 -0.0198 -0.0612 -0.0321
87311W        W30223  11.766   2.678   2.577 -0.0658  0.0799  0.1891
87312W        W30224  14.505   2.105   2.908 -0.2718  0.2829 -0.2288
87313W        W30225  14.125   2.148   0.382 -0.1133  0.0676  0.0185
87314W        W30226  12.626   3.111   2.522 -0.0421 -0.0850 -0.0813
87315W        W30227  13.752   5.256   2.379 -0.0165  0.2686 -0.0933
87316W        W30228  15.194   1.242   4.233  0.3057  0.4288 -0.2043
87317W        W30229  11.840   2.107   1.380 -0.3271 -0.0053  0.0357
87318W        W30230  10.806   4.652   1.584 -0.1725 -0.3074 -0.0067
87319W        W30231  11.497   2.826   0.437 -0.3576 -0.0768 -0.0840
87320W        W30232  14.826   2.369  31.601 -0.2478 -0.4992  0.2552
87321W        W30233  13.219   3.944   1.748 -0.1820  0.0850 -0.0606
87322W        W30234  11.978   3.923   4.167 -0.1765  0.1231  0.1231
87323W        W30235  13.513   2.981  31.437  0.2088 -0.0620 -0.0869
87324W        W30236  13.117   2.890   1.771 -0.0234  0.1395  0.2989
87325W        W30237  12.908   1.839   4.456 -0.0957  0.1728  0.0346
87326W        W30238  13.731   2.609   3.841  0.1879 -0.0418  0.1176
87327W        W30239  11.876   1.657   1.137  0.2747 -0.1637  0.1830
87328W        W30240  12.084   2.623   1.471 -0.1728  0.0418  0.6375
87329W        W30241  13.340   2.042   2.192 -0.0874 -0.0640  0.1506
87330W        W30242  12.511   1.458   2.981  0.1372  0.0597  0.1295
87331W        W30243  12.149   2.156   2.373  0.2751  0.0439  0.2251
87332W        W30244  15.180  34.501   1.790  0.0346 -0.0011 -0.1304
87333W        W30245  11.620   1.752   0.267  0.0203  0.0803  0.0552
87334W        W30246  13.212   1.224  31.772 -0.1728  0.3547  0.1137
87335W        W30247  14.232   1.474  31.491 -0.1104 -0.4996 -0.0949
87336W        W30248  13.874   0.892   1.274 -0.0425  0.1569  0.2716
87337W        W30249  12.920   3.829   0.672 -0.0118 -0.0380 -0.0118
87338W        W30250  11.809   1.191   2.639  0.3422  0.1370 -0.0155
87339W        W30251  13.487   3.881   2.335  0.1086 -0.0789  0.1676
87340W        W30252  11.179   1.051  31.927 -0.0447 -0.1854 -0.1334
87341W        W30253  13.536   1.583   2.185 -0.1326 -0.1696  0.2636
87342W        W30254  13.664   1.980   3.511 -0.2089 -0.0215  0.3960
87343W        W30255  12.333   1.802   1.374 -0.3204 -0.3405  0.1409
87344W        W30256  14.285   3.325   0.967  0.0445 -0.0181  0.2281
87345W        W30257  14.853   3.870   1.320  0.0060 -0.0750 -0.3196
87346W        W30258  13.712   3.320   1.091  0.4204  0.1077  0.0802
87347W        W30259  11.374   1.165   1.545 -0.1026  0.0923 -0.2505
87348W        W30260  11.706   0.067   2.502 -0.1046 -0.1991  0.3345
87349W        W30261  12.467   1.068   3.534 -0.0672 -0.2889  0.2636
87350W        W30262  12.186  34.004  31.849  0.4619 -0.1004  0.1339
87351W        W30263  15.591   1.420   1.564 -0.2994  0.2515  0.0096
87352W        W30264  12.225   1.925   4.179 -0.1844  0.0086 -0.0482
87353W        W30265  13.150   1.346   1.437  0.0589  0.0591  0.1771
87354W        W30266  12.569   2.638   1.053 -0.1485  0.1322 -0.1097
87355W        W30267  15.610   2.097   1.874 -0.0451 -0.1933  0.1673
87356W        W30268  12.509   0.621  31.629 -0.0380 -0.3330 -0.0784
87357W        W30269  13.709   2.776   1.682 -0.2292 -0.0488 -0.1185
87358W        W30270  14.204   1.299   1.491 -0.2382  0.1973  0.1718
87359W        W30271  12.823   2.117  31.783  0.3105 -0.2492  0.1477
87360W        W30272  12.085   1.259  31.682 -0.0992 -0.4358  0.2208
87361W        W30273  13.656   4.105   1.498 -0.1596  0.2127 -0.1123
87362W        W30274  13.132   2.015   0.930 -0.0189  0.0059  0.2168
87363W        W30275  12.071   2.910   0.630 -0.2820  0.1014 -0.2079
87364W        W30276  14.782   1.757   2.705  0.0621  0.0354 -0.0246
87365W        W30277  12.679   2.691   2.957 -0.3160 -0.1493 -0.1052
87366W        W30278  12.009   1.731  31.890 -0.3447 -0.0468  0.2899
87367W        W30279  11.793   2.610   0.951  0.0218 -0.2583  0.1637
87368W        W30280  12.980   2.112  31.322 -0.2292 -0.0447  0.1238
87369W        W30281  12.032  34.599   2.139 -0.1974  0.2673  0.2989
87370W        W30282  12.689   2.604  31.867  0.0109 -0.3013  0.1083
87371W        W30283  13.870   0.882   0.229 -0.0185  0.0002  0.1037
87372W        W30284  11.994  34.143   2.304 -0.0960  0.4049  0.1354
87373W        W30285  12.645   0.164   0.945 -0.2182 -0.4233 -0.2851
87374W        W30286  12.126   1.458   0.299 -0.0640 -0.1624 -0.2808
87375W        W30287  15.264   3.380   1.081 -0.1379 -0.2329  0.1766
87376W        W30288  13.371   0.874   0.182  0.2668  0.1073 -0.1588
87377W        W30289  14.575   3.848   0.101  0.1700  0.0930  0.0056
87378W        W30290  12.175   0.240   1.195  0.2040  0.1409 -0.4704
87379W        W30291  11.895   0.919   0.358  0.0269 -0.0377  0.2691
87380W        W30292  12.135   0.361   2.468 -0.0254 -0.3063  0.1658
87381W        W30293  12.658   0.650   0.916 -0.3780 -0.0295  0.2117
87382W        W30294  14.753   0.892   3.052 -0.1746  0.2136 -0.1965
87383W        W30295  11.073   0.201   0.006  0.2009 -0.0873 -0.3077
87384W        W30296  12.989   2.577   1.329 -0.0326 -0.0803 -0.3707
87385W        W30297  12.106   0.671   1.051 -0.0406  0.0600 -0.0813
87386W        W30298  10.972   2.701   0.389  0.1953 -0.2535  0.1672
87387W        W30299  13.105   0.003   2.716  0.0127  0.0309 -0.1323
87388W        W30300  13.338   4.441   1.331 -0.0230 -0.2144 -0.1356
87389W        W30301  14.495   3.069   1.659 -0.0331 -0.1080  0.1827
87390W        W30302  14.896   3.520   2.435  0.4030 -0.1259  0.2211
87391W        W30303  12.625   0.296   3.054 -0.1624 -0.1805  0.1095
87392W        W30304  11.579   1.044  30.652  0.1379 -0.0429  0.0911
87393W        W30305  12.559   4.021   1.055  0.0433 -0.1552  0.0837
87394W        W30306  13.427   3.233   1.553  0.0671 -0.0092  0.0169
87395W        W30307  11.828  34.623  31.962  0.1072 -0.0783  0.3494
87396W        W30308  15.976   3.553   2.068  0.1185  0.1668  0.1593
87397W        W30309  13.896   2.953   0.660 -0.0521  0.0430  0.1237
87398W        W30310  12.399   2.363   3.312 -0.4049  0.1556 -0.1815
87399W        W30311  13.030   1.596   2.033  0.0969  0.1395  0.0879
87400W        W30312  13.915   2.547   2.106  0.0394  0.2032  0.1156
87401W        W30313  13.407   1.621   1.070 -0.0760  0.1377  0.4394
87402W        W30314  12.035  34.152  31.026  0.0415  0.2935  0.2025
87403W        W30315  12.771   3.022   1.357  0.1588  0.0941 -0.4280
87404W        W30316  11.727   2.127  31.978 -0.0017 -0.0662  0.0700
87405W        W30317  11.259   2.389   0.796  0.0454 -0.4062 -0.1643
87406W        W30318  13.221   3.179   0.974  0.1285 -0.0217  0.4522
87407W        W30319  14.125   2.332   2.600  0.0606 -0.2211  0.2417
87408W        W30320  12.210   2.000   3.699  0.1652  0.1966  0.1872
87409W        W30321  14.062   0.987   3.325  0.1474 -0.1882 -0.0831
87410W        W30322  11.189   0.626  31.676  0.1658 -0.0072  0.2741
87411W        W30323  11.998   1.599   3.517 -0.2376  0.2530  0.0236
87412W        W30324  13.492   0.658  30.935 -0.0260  0.3364 -0.1209
87413W        W30325  14.209  34.349   1.554  0.0301  0.0665 -0.1972
87414W        W30326  13.656   4.304   2.552 -0.2513 -0.1649 -0.0194
87415W        W30327  14.058   2.607   0.241 -0.3266  0.0906  0.1503
87416W        W30328  13.464   1.700   0.553  0.1341 -0.0461  0.0931
87417W        W30329  13.388  33.342   0.541  0.0108  0.2809  0.0191
87418W        W30330  12.412   2.833   3.440  0.2310  0.1828 -0.1164
87419W        W30331  11.924   2.549   0.142 -0.4711  0.0862  0.1597
87420W        W30332  13.033   2.199   2.566  0.1984 -0.0692 -0.0504
87421W        W30333  12.822  34.569  31.028  0.4717  0.0186 -0.0149
87422W        W30334  14.103   4.052   0.093 -0.0163 -0.1181  0.3313
87423W        W30335  12.359   1.238   1.788 -0.2611  0.3083 -0.1525
87424W        W30336  14.513   3.751   2.147 -0.0383  0.0640  0.0203
87425W        W30337  13.827   3.833   0.953  0.0443 -0.0115 -0.0621
87426W        W30338  12.441  32.807   2.433 -0.1137  0.1154 -0.0021
87427W        W30339  12.268   1.649  30.856  0.2200  0.0504  0.1375
87428W        W30340  12.771   0.897   0.431 -0.1328  0.0770  0.0215
87429W        W30341  10.511   4.033   0.663  0.2619  0.0084  0.4948
87430W        W30342  14.114   0.515   2.507 -0.2321  0.0833  0.2760
87431W        W30343  13.325   0.553   1.873 -0.2559 -0.2099  0.3408
87432W        W30344  12.321  34.350   1.811 -0.0779  0.1861  0.1486
87433W        W30345  14.490   1.228   3.330 -0.1676 -0.0650  0.1898
87434W        W30346  14.157   1.766  31.957 -0.2008  0.0668 -0.0519
87435W        W30347  13.478   1.228   2.715  0.0530 -0.1634  0.2314
87436W        W30348  12.237   1.110  30.738 -0.0060 -0.1234  0.0676
87437W        W30349  13.854   1.380   1.893 -0.1705 -0.0683  0.1384
87438W        W30350  12.227   2.528   2.747  0.1199  0.1932  0.1730
87439W        W30351  12.424   4.133   2.019  0.0839  0.0690 -0.1065
87440W        W30352  13.686   3.967   3.748  0.0953  0.0771  0.2872
87441W        W30353  13.505   2.761   1.207  0.1471 -0.0439  0.1198
87442W        W30354  12.215  34.140   2.790 -0.0400 -0.1392 -0.2739
87443W        W30355  11.919   0.733  31.917  0.1415 -0.3989  0.1933
87444W        W30356  13.895   4.894   0.005 -0.3351 -0.1459  0.3502
87445W        W30357  13.853   2.924  31.002 -0.3508  0.1295 -0.1439
87446W        W30358  11.758  34.244   0.879 -0.0449 -0.1837 -0.0423
87447W        W30359  13.570   3.640   1.878  0.3376 -0.1386 -0.5653
87448W        W30360  13.792   2.008  30.613  0.1182  0.0225  0.1276
87449W        W30361  13.602   2.399   2.675  0.3268  0.1029  0.0185
87450W        W30362  12.374   4.499   1.063 -0.1736  0.4741 -0.0732
87451W        W30363  13.723   0.453   1.538 -0.3749 -0.2027 -0.0076
87452W        W30364  11.344   2.823   2.132  0.4034 -0.4035 -0.2577
87453W        W30365  13.022   1.651  31.619 -0.1774 -0.0383 -0.0973
87454W        W30366  11.682   2.019  30.857 -0.1476 -0.1783 -0.0145
87455W        W30367  12.503   1.295   0.534  0.0481  0.3050  0.1121
87456W        W30368  14.044  34.617  31.256 -0.0915 -0.1911 -0.0057
87457W        W30369  11.979   0.005   1.629  0.1781  0.3410  0.0760
87458W        W30370  12.622   2.085   2.197 -0.1828  0.2572 -0.0750
87459W        W30371  12.248   3.095   1.589 -0.1973  0.0146 -0.2492
87460W        W30372  14.324   2.218   1.968  0.1527 -0.0857 -0.0585
87461W        W30373  13.354   0.865   1.428  0.3734  0.0247  0.1459
87462W        W30374  13.184   3.433   2.411 -0.0211 -0.4550 -0.0005
87463W        W30375  13.876   1.823   4.346  0.1365  0.0715  0.4992
87464W        W30376   9.693   0.250   0.239 -0.3195 -0.0335 -0.0251
87465W        W30377  14.527   2.760   1.178  0.1361 -0.1204  0.3503
87466W        W30378  10.987   0.447   0.398 -0.1216 -0.0564 -0.3313
87467W        W30379  12.682   2.631   1.795  0.1451  0.0527 -0.2078
87468W        W30380  12.730   3.758   1.785  0.0959 -0.3759  0.0055
87469W        W30381  10.764   3.009   0.073 -0.1175 -0.0443 -0.2230
87470W        W30382  12.001   1.283   2.148  0.0546 -0.1332  0.2645
87471W        W30383  13.255   0.410   2.987  0.1189  0.0284  0.2795
87472W        W30384  14.418   1.503   2.485 -0.0372  0.0097 -0.1967
87473W        W30385  12.381   0.720   2.049  0.1477 -0.2737 -0.1328
87474W        W30386  11.536  34.287   1.420 -0.2903  0.0060 -0.0351
87475W        W30387  12.538   1.772   0.086  0.0254 -0.0922 -0.0410
87476W        W30388  13.999   3.908   2.369  0.0489 -0.1351 -0.0617
87477W        W30389  13.864   2.154   3.017 -0.0043  0.2180  0.0291
87478W        W30390  12.043   2.520   3.624 -0.3939  0.3060  0.0264
87479W        W30391  13.855  33.950   2.538  0.0922 -0.2654 -0.1318
87480W        W30392  15.108   2.414   0.279  0.0898  0.2061  0.0207
87481W        W30393  13.460   3.064   2.608 -0.5032  0.0002 -0.0453
87482W        W30394  11.535   1.283   0.463  0.0284 -0.2159 -0.0856
87483W        W30395  12.279   0.425   1.598 -0.0166 -0.1076  0.0791
87484W        W30396  11.968   1.203   0.796 -0.1185 -0.1900 -0.1421
87485W        W30397  13.699   1.031   2.224 -0.2378 -0.2030 -0.0691
87486W        W30398  12.159   2.219   1.788  0.3947  0.2541 -0.1518
87487W        W30399  11.403   3.491   1.174 -0.0278  0.1391 -0.4367
87488W        W30400  11.458   4.701   1.484  0.1335  0.1520 -0.5659
87489W        W30401  15.031   0.876   0.476 -0.1619 -0.0941  0.0474
87490W        W30402  14.265   2.142  30.450 -0.0019  0.2420 -0.3060
87491W        W30403  11.807   0.952   1.680 -0.1288  0.1623 -0.1677
87492W        W30404  15.630   0.495   1.843  0.1432 -0.0403 -0.2135
87493W        W30405  14.091   0.978  30.936  0.0696 -0.5607 -0.3023
87494W        W30406  14.462   0.125   2.417 -0.0822  0.2488  0.1237
87495W        W30407  11.976  33.970   1.427 -0.0414 -0.0964  0.1380
87496W        W30408  14.783   2.929   0.142  0.1074  0.1283 -0.1477
87497W        W30409  11.538   0.493   2.310 -0.0303 -0.0091  0.0920
87498W        W30410  12.024   4.599   4.689  0.1940  0.4017  0.0056
87499W        W30411  13.853   1.432   2.528 -0.0846 -0.0482  0.2683
87500W        W30412  13.112   1.336   0.477 -0.0847  0.0181 -0.1985
87501W        W30413  11.362   0.631  31.151 -0.2489  0.2194 -0.0007
87502W        W30414  12.645   2.950   0.674  0.0705 -0.1842  0.2006
87503W        W30415  12.935   2.182   1.687 -0.0022  0.2094  0.2748
87504W        W30416  13.716   2.120   0.126  0.1343 -0.0798 -0.0946
87505W        W30417  15.609  34.436   1.553 -0.1536  0.0076 -0.1170
87506W        W30418  11.723   3.115   2.312 -0.1152  0.0078  0.1226
87507W        W30419  14.003   2.479   0.770 -0.3766 -0.1555 -0.2814
87508W        W30420  13.383   0.171  31.665  0.3746  0.0281  0.0765
87509W        W30421  11.246   1.581   1.845  0.0804  0.1230  0.0884
87510W        W30422  13.174   1.087   2.307  0.0277  0.0202  0.3761
87511W        W30423  14.007   2.839   1.142  0.2458 -0.3671  0.1505
87512W        W30424  12.626   1.815   1.793 -0.3410 -0.0240  0.1734
87513W        W30425  12.796   0.707   3.693 -0.0995  0.1177 -0.2878
87514W        W30426  14.190   1.051   2.251 -0.0550 -0.0728 -0.1581
87515W        W30427  13.535   0.392   2.592 -0.0781 -0.0363 -0.2923
87516W        W30428  11.727   0.607   2.764 -0.3058 -0.2708 -0.1819
87517W        W30429  13.190   3.212   4.008 -0.1093  0.0875 -0.0737
87518W        W30430  15.958   1.119   1.390 -0.3655  0.2081  0.0885
87519W        W30431  15.060   0.697   2.444 -0.1053 -0.0959  0.1563
87520W        W30432  14.218   2.199   1.266  0.0409  0.1591 -0.0197
87521W        W30433  13.178   2.448  31.959  0.1619  0.2277 -0.3323
87522W        W30434  11.431   0.638   1.815 -0.0717  0.1386 -0.2319
87523W        W30435  15.406   1.108   2.392 -0.0321  0.1112 -0.3983
87524W        W30436  11.333   1.510  30.765 -0.1555  0.3254  0.4246
87525W        W30437  14.323   0.985   2.743  0.1542 -0.0505  0.3474
87526W        W30438  13.780   4.403   0.690  0.0497  0.1454 -0.0723
87527W        W30439  13.357   3.509   2.896  0.3055 -0.3840 -0.0682
87528W        W30440  13.297   2.195   0.434  0.0199  0.1088 -0.0063
87529W        W30441  10.871   0.899   1.494  0.2373 -0.0425 -0.2268
87530W        W30442  11.987   3.335   3.190 -0.2426 -0.0398 -0.5347
87531W        W30443  12.985   0.583  31.410 -0.0617 -0.1842 -0.4380
87532W        W30444  12.430   1.593   0.940  0.0721  0.0236 -0.0195
87533W        W30445  12.780   2.192   2.975  0.1386 -0.3820 -0.3808
87534W        W30446  14.429   2.505   4.838  0.1439  0.0058 -0.0199
87535W        W30447  12.244  34.688   0.305 -0.2881  0.1795  0.0454
87536W        W30448  14.634   0.563   2.233  0.0840  0.0809 -0.1466
87537W        W30449  10.968   2.775   0.848  0.1025  0.1088  0.3035
87538W        W30450  13.202   0.385   0.140 -0.0705 -0.2269  0.3282
87539W        W30451  12.239   4.242   2.524  0.0505  0.0715 -0.0118
87540W        W30452  12.600   1.503   2.258  0.2034 -0.1802  0.0680
87541W        W30453  11.342   2.338   0.317  0.2920 -0.0455 -0.0730
87542W        W30454  12.151  34.398   1.169 -0.1575 -0.1238  0.0795
87543W        W30455  13.126   3.454   1.888  0.1677 -0.1142 -0.2608
87544W        W30456  13.033   2.419   2.125  0.0164 -0.1313 -0.0369
87545W        W30457  15.512   0.722   2.805 -0.2241 -0.1963 -0.0108
87546W        W30458  13.089   2.977   2.253  0.2306  0.1793 -0.1949
87547W        W30459  11.848   1.474   1.649 -0.1820  0.1613 -0.0231
87548W        W30460  11.858   4.485   1.074  0.1667  0.0332 -0.4093
87549W        W30461  13.787   2.429   1.370  0.0386 -0.0495 -0.2313
87550W        W30462  11.770   2.419   2.084 -0.1315 -0.0841 -0.1041
87551W        W30463  12.333  34.597   3.109 -0.2402  0.1157 -0.0689
87552W        W30464  13.980   1.455   3.500 -0.2623  0.2588 -0.3352
87553W        W30465  12.201   3.268   2.196 -0.0745 -0.3126  0.2051
87554W        W30466  11.120  34.416   1.193 -0.1259 -0.2668  0.1704
87555W        W30467  13.280   2.967   0.442 -0.1238 -0.0138 -0.1259
87556W        W30468  13.027   1.765   3.035 -0.1715 -0.0852 -0.2322
87557W        W30469  12.683   1.834   2.628 -0.1062 -0.0032 -0.2928
87558W        W30470  12.110   4.532   0.526 -0.0342 -0.1572  0.3212
87559W        W30471  12.543   1.599  31.590  0.0505  0.1517 -0.0143
87560W        W30472  16.067   2.204   0.439 -0.0579  0.3862 -0.0135
87561W        W30473  15.398   3.724   1.971  0.0830 -0.0773 -0.0613
87562W        W30474  12.668   1.265  30.831  0.0536  0.1978  0.0781
87563W        W30475  11.382   2.319   2.453  0.1521  0.0314 -0.1010
87564W        W30476  11.781   2.219   0.527  0.0185 -0.2469 -0.2308
87565W        W30477  15.025   2.947   1.137  0.3386  0.2281 -0.0719
87566W        W30478  12.498   4.229   1.461  0.2453 -0.4418 -0.0960
87567W        W30479  13.726   1.676   3.111  0.3419  0.2473  0.0799
87568W        W30480  14.811  34.559   0.891  0.0262 -0.0320 -0.0749
87569W        W30481  13.392   1.146   1.036 -0.1497 -0.0992  0.3107
87570W        W30482  13.335   0.154   1.602 -0.6270  0.0085 -0.0559
87571W        W30483  13.740   3.460   2.491  0.0729  0.0009 -0.2800
87572W        W30484  12.453   2.274   1.392 -0.1395 -0.0586 -0.1016
87573W        W30485  10.882   1.226  30.718 -0.2827  0.0630 -0.0533
87574W        W30486  13.302   1.652   3.532 -0.2001 -0.0750  0.0167
87575W        W30487  14.844   0.374   3.440 -0.0608 -0.4267 -0.1535
87576W        W30488  12.463   3.560   1.354 -0.1953  0.2159 -0.1650
87577W        W30489  13.925   3.690   1.436 -0.1968  0.0756  0.4709
87578W        W30490  11.083   0.951   0.456 -0.3425 -0.1432 -0.0040
87579W        W30491  13.372   2.072   1.354 -0.0175 -0.2598 -0.1058
87580W        W30492  13.867   0.024   1.803  0.0150  0.0869 -0.1200
87581W        W30493  13.558   2.643   0.178 -0.1800  0.0349  0.2845
87582W        W30494  12.957   1.474   0.976 -0.0434 -0.1747  0.2025
87583W        W30495  12.223   2.687   2.030  0.1330 -0.1622  0.2920
87584W        W30496  13.364   2.448   1.758  0.3640  0.1478  0.2056
87585W        W30497  11.907   3.929   2.798 -0.1962 -0.1383 -0.0572
87586W        W30498  10.825   0.447   1.181 -0.2715 -0.1635  0.2576
87587W        W30499  15.540   1.918   1.177  0.2561  0.4117  0.0772
87588W        W30500  12.833   1.175   2.695 -0.0011 -0.0736 -0.3335
87589W        W30501  13.038  34.436   2.294 -0.1543  0.2076  0.0623
87590W        W30502  11.542   0.960   1.024  0.1265  0.1313 -0.1078
87591W        W30503  13.628   3.175   0.167 -0.1161 -0.0295 -0.0047
87592W        W30504  12.589   1.654   3.415  0.1595 -0.1417 -0.0691
87593W        W30505  11.481   2.004   1.749 -0.0525 -0.2290 -0.0821
87594W        W30506  12.603   0.326  31.030 -0.0684 -0.1039 -0.2571
87595W        W30507  14.421   2.717   2.288 -0.1501 -0.1370 -0.0491
87596W        W30508  13.184   1.426  30.951 -0.0461 -0.2884 -0.1252
87597W        W30509  13.678   4.004   4.309 -0.0658 -0.1340 -0.0545
87598W        W30510  11.301   0.568   1.310 -0.0399 -0.0493  0.0180
87599W        W30511  13.507   2.486   0.731  0.1029  0.3494 -0.3680
87600W        W30512  11.685   1.301  31.982  0.1065 -0.1741 -0.2032
87601W        W30513  12.869   2.652   3.437 -0.2220 -0.2471  0.0943
87602W        W30514  14.052   2.853   3.527 -0.1194  0.0836 -0.1145
87603W        W30515  12.368  32.753   0.908  0.0415 -0.0167  0.0692
87604W        W30516  13.727   2.449  31.751  0.2471 -0.0870 -0.1271
87605W        W30517  13.801   1.731   1.333  0.2461 -0.1317  0.0850
87606W        W30518  14.215   3.054   0.279  0.2263  0.1027  0.1737
87607W        W30519  13.423   3.689   1.291 -0.2598  0.3542  0.2149
87608W        W30520  14.157   4.211   1.444  0.1943  0.1579 -0.0748
87609W        W30521  11.759   1.884   2.216 -0.0948  0.4210  0.0901
87610W        W30522  13.785   4.549   1.169 -0.3440  0.1452 -0.2365
87611W        W30523  14.706   3.573   2.990  0.0989 -0.0892  0.1257
87612W        W30524  12.098   0.366  31.202  0.3427  0.3675  0.1722
87613W        W30525  11.916   0.785   2.308  0.2084 -0.0694  0.0190
87614W        W30526  12.305   3.049   1.070  0.0511  0.0165 -0.2377
87615W        W30527  13.742  34.679   2.276  0.0392 -0.1703  0.0879
87616W        W30528  15.161   1.037   2.812  0.2296 -0.1502  0.1929
87617W        W30529  13.235   2.927  31.876  0.2333 -0.2353 -0.0605
87618W        W30530  13.546  34.499   2.716  0.2166  0.2133 -0.1206
87619W        W30531  13.324   1.359   4.050  0.1949 -0.1880 -0.0281
87620W        W30532  13.107   1.871   5.815 -0.1893  0.0663  0.0410
87621W        W30533  10.347   2.189  30.570  0.0560 -0.2383 -0.0029
87622W        W30534  11.784   2.114   3.917  0.0415  0.0829  0.3171
87623W        W30535  12.697   2.245   0.816 -0.2829 -0.2109  0.3846
87624W        W30536  12.691   3.094   0.193  0.0715  0.1111 -0.3293
87625W        W30537  13.990   2.898   2.426 -0.0911 -0.0166  0.0785
87626W        W30538  11.705   0.554   0.816 -0.0654 -0.1308 -0.2571
87627W        W30539  12.829   3.556   2.762 -0.0915  0.0386  0.1753
87628W        W30540  13.205   0.220   2.214  0.1223 -0.0006  0.1963
87629W        W30541  14.360   0.876   1.789 -0.0051 -0.4785  0.1158
87630W        W30542  13.491   0.091   0.640  0.3912 -0.0042 -0.1515
87631W        W30543  12.873   1.859   1.334  0.1117 -0.0928  0.0324
87632W        W30544  11.484   1.373  30.259  0.0439  0.0623  0.0425
87633W        W30545  14.097   2.856  30.577  0.0181 -0.0216 -0.1442
87634W        W30546  11.458   2.707   3.426  0.1145 -0.1948 -0.2644
87635W        W30547  14.639  34.383   3.200  0.0932  0.1043 -0.0669
87636W        W30548  11.974   0.276   2.984  0.1611 -0.5140  0.0129
87637W        W30549  11.501   1.075   2.146  0.2282  0.1118  0.1932
87638W        W30550  11.742   0.582  31.478 -0.2472 -0.0934  0.1571
87639W        W30551  15.412   3.861   0.349 -0.0770  0.1873  0.0615
87640W        W30552  12.272   0.352   0.683 -0.5066  0.0334 -0.2344
87641W        W30553  10.943   0.880   0.913  0.2115 -0.2699  0.1435
87642W        W30554  14.072   3.217   1.444 -0.2231  0.2746  0.0061
87643W        W30555  15.003   4.700   1.682 -0.2424 -0.0113  0.2912
87644W        W30556  12.810   0.378   0.473 -0.1657 -0.0162  0.0061
87645W        W30557  15.203   3.870   3.065 -0.0958 -0.0364 -0.1977
87646W        W30558  11.478   3.390  31.613  0.3490 -0.2986 -0.0673
87647W        W30559  14.331   1.027   3.773  0.3531 -0.1866  0.1409
87648W        W30560  12.197   1.767   2.024  0.1446 -0.0749  0.2003
87649W        W30561   9.930   1.209  31.149  0.1492  0.0334  0.0608
87650W        W30562  13.376   2.115   3.108  0.0790 -0.0059  0.1738
87651W        W30563  15.172   3.390   2.821 -0.0414  0.0837 -0.1537
87652W        W30564  14.569   4.295  31.874 -0.0437  0.2023 -0.1417
87653W        W30565  12.665   3.557   2.228  0.1996  0.0721  0.0094
87654W        W30566  11.584   5.064   1.810 -0.0650 -0.1973  0.1385
87655W        W30567  10.607  34.313   2.181  0.3241  0.4504 -0.0329
87656W        W30568  13.678   1.078  31.806  0.2140 -0.1696 -0.0377
87657W        W30569  13.106   1.562   2.539  0.0626 -0.0291 -0.3503
87658W        W30570  14.873   2.014   1.081  0.1214 -0.0449 -0.2732
87659W        W30571  14.274   1.817   1.668 -0.0677 -0.0257 -0.0557
87660W        W30572  12.832   1.394   0.097 -0.2189 -0.1928 -0.1298
87661W        W30573  11.424  33.551   2.661 -0.0356 -0.2950  0.2154
87662W        W30574  11.008   2.207   2.956  0.1205  0.0327 -0.0183
87663W        W30575  13.810   2.128   1.740  0.1325 -0.2181 -0.2683
87664W        W30576  12.139   1.204   1.337  0.0052 -0.0574  0.0776
87665W        W30577  12.790   1.729   0.571 -0.2241  0.2500  0.1524
87666W        W30578  13.390   4.100   0.899  0.3140  0.1078 -0.1428
87667W        W30579  12.658   2.626   2.405  0.1365 -0.0305 -0.1928
87668W        W30580  12.819   3.163  31.705  0.0872  0.1467 -0.2854
87669W        W30581  13.813   0.884   2.697  0.1214  0.0138 -0.0091
87670W        W30582  13.676   4.183   1.988 -0.0565 -0.0533 -0.0181
87671W        W30583  14.640   1.862   2.197 -0.4947  0.1676  0.3550
87672W        W30584  12.027   1.725   0.701 -0.0197 -0.1474  0.0530
87673W        W30585  13.899   1.571   0.389  0.0059 -0.3031  0.1326
87674W        W30586  13.465   3.496   0.666  0.0002 -0.0076  0.1896
87675W        W30587  13.926   2.894   5.455  0.0478  0.0103  0.2044
87676W        W30588  13.871   3.933   2.864  0.0348  0.0633  0.0348
87677W        W30589  13.749   1.982   0.846 -0.2831 -0.0970 -0.3342
87678W        W30590  10.311  34.497   2.899 -0.0162 -0.2277 -0.3395
87679W        W30591  11.414   1.443   0.921  0.4105  0.0225 -0.1346
87680W        W30592  12.170   2.156   0.979  0.0405 -0.1228 -0.2879
87681W        W30593  14.127   1.734   2.099  0.0060  0.1367  0.1398
87682W        W30594  12.477   1.106   0.985 -0.0605 -0.0068  0.0717
87683W        W30595  14.000   2.044  31.469 -0.0024 -0.2641 -0.0277
87684W        W30596  11.814   3.416   1.942 -0.0472 -0.0379 -0.1094
87685W        W30597  13.482   1.862   2.633  0.0146 -0.0865 -0.1065
87686W        W30598  11.273   0.517   7.388 -0.0016 -0.0641 -0.0508
87687W        W30599  13.271   0.410   5.186  0.1415 -0.2034 -0.2048
87688W        W30600  14.368   0.629   4.322 -0.2068  0.1045  0.1245
87689W        W30601  15.002   1.555   4.652 -0.1495 -0.1026 -0.0976
87690W        W30602  10.615   1.172   3.750 -0.3809 -0.2176  0.2113
87691W        W30603  12.142   4.358   5.415 -0.2577 -0.2106  0.1278
87692W        W30604  11.775  33.866   6.575 -0.0081 -0.1591  0.0815
87693W        W30605  12.201   2.877   6.988  0.1751  0.2020 -0.0878
87694W        W30606  13.682   2.682   6.020  0.1326 -0.5556  0.2617
87695W        W30607  14.176   1.430   4.101  0.1645  0.0653 -0.3848
87696W        W30608  12.000   0.850   5.993 -0.0998  0.0586 -0.2459
87697W        W30609  13.150   2.747   5.865 -0.2492  0.2885  0.0696
87698W        W30610  12.570   0.243   4.259  0.0996  0.1940 -0.2401
87699W        W30611  11.149  34.278   6.043  0.0472 -0.0819  0.3615
87700W        W30612  14.532   1.352   4.874 -0.3982  0.0016  0.2296
87701W        W30613  11.484   1.108   5.197  0.2897  0.0602 -0.0518
87702W        W30614  12.575   0.471   7.002 -0.0497  0.0018  0.3392
87703W        W30615  13.851   0.231   3.946  0.1981 -0.2032 -0.3239
87704W        W30616  14.455   4.266   5.380  0.0164 -0.1894  0.2994
87705W        W30617  14.822   0.151   7.020 -0.0520  0.4677 -0.1247
87706W        W30618  13.527  34.560   7.181  0.0890 -0.4030 -0.0526
87707W        W30619  14.415   2.881   4.468  0.3492 -0.0224 -0.2457
87708W        W30620  12.653   0.156   2.518  0.2036 -0.2683  0.2719
87709W        W30621  11.793   1.682   7.211 -0.0517  0.1165 -0.0692
87710W        W30622  11.542   1.859   6.756  0.0519  0.0187  0.1213
87711W        W30623  13.378   0.291   5.959 -0.0474  0.0763 -0.2712
87712W        W30624  13.449   2.229   5.880 -0.4488 -0.0007  0.1187
87713W        W30625  12.091   2.111   5.871  0.0022  0.0098 -0.2516
87714W        W30626  13.930   3.914   5.222  0.1589 -0.0608 -0.0415
87715W        W30627  13.115   1.113   7.144 -0.3619  0.2225 -0.2221
87716W        W30628  11.568   0.602   6.493  0.1544  0.1479 -0.2613
87717W        W30629  11.875   2.263   4.561  0.1807  0.0279 -0.0466
87718W        W30630  12.729   3.611   4.117 -0.2124 -0.0411  0.1253
87719W        W30631  13.930   2.467   5.180  0.0655 -0.1838 -0.1564
87720W        W30632  12.776   2.342   6.811 -0.1413  0.1779  0.0115
87721W        W30633  13.291   4.124   6.529 -0.0153  0.0704  0.0697
87722W        W30634  13.247   2.712   3.105  0.3257 -0.0022 -0.1014
87723W        W30635  13.757   2.651   6.894 -0.0131  0.0834  0.2251
87724W        W30636  11.955   3.325   6.936 -0.1183  0.0294  0.2351
87725W        W30637  12.195   0.794   6.976  0.0372  0.1242  0.1481
87726W        W30638  12.760   1.455   7.424  0.0076 -0.0519 -0.1141
87727W        W30639  13.377   1.650   4.411  0.0878  0.0218 -0.3099
87728W        W30640  13.592   2.574   5.557  0.2303 -0.0124  0.1405
87729W        W30641  12.354   2.352   7.664 -0.3392 -0.0085  0.1303
87730W        W30642  10.254   2.638   4.742 -0.1205  0.2589  0.0363
87731W        W30643  15.828  34.331   8.420  0.2851 -0.2921 -0.0059
87732W        W30644  13.376   1.679   5.442  0.1777 -0.2637 -0.1960
87733W        W30645  15.345   0.721   4.203  0.1374  0.2252  0.0223
87734W        W30646  12.992   0.370   4.019 -0.0937  0.1261 -0.0881
87735W        W30647  13.767   1.118   3.847 -0.0080  0.2343 -0.1934
87736W        W30648  12.254   0.350   5.940 -0.0792  0.0072 -0.1384
87737W        W30649  11.171   2.560   4.252 -0.0920 -0.0680  0.0630
87738W        W30650  13.857   0.063   7.549 -0.0954  0.0964  0.0969
87739W        W30651  13.325   3.608   6.464 -0.0485  0.0830  0.1287
87740W        W30652  13.796   1.272   4.369 -0.0537  0.1234  0.2426
87741W        W30653  13.703   1.191   5.910 -0.0519  0.1795 -0.1368
87742W        W30654  11.890   2.768   4.959 -0.1122  0.0277 -0.2759
87743W        W30655  12.425   1.440   3.928  0.0020  0.1228  0.1916
87744W        W30656  13.652   3.140   3.858 -0.5845  0.0354  0.1554
87745W        W30657  14.770   2.487   3.158 -0.1630  0.0146 -0.1600
87746W        W30658  13.298   2.271   3.622  0.0042  0.0316  0.1271
87747W        W30659  12.109   1.070   4.079 -0.0190 -0.0111  0.2409
87748W        W30660  10.623   1.194   7.392  0.0160 -0.2403 -0.1545
87749W        W30661  11.764   0.882   8.233  0.1988  0.0373 -0.3256
87750W        W30662  12.165   0.631   4.304  0.0406  0.0082  0.0976
87751W        W30663  14.865   1.408   6.224 -0.1957 -0.0985 -0.1967
87752W        W30664  12.011   2.505   6.227 -0.4128  0.2923 -0.0312
87753W        W30665  15.515   0.766   5.772  0.1508  0.2026 -0.1695
87754W        W30666  11.746   0.957   6.721  0.2277 -0.0906  0.1305
87755W        W30667  12.929   1.920   6.494 -0.2946 -0.0195 -0.0866
87756W        W30668  12.866   2.114   3.461  0.0397  0.1937 -0.1483
87757W        W30669  12.842   0.402   6.146  0.2492  0.1183 -0.0669
87758W        W30670  14.600  34.333   5.728  0.0240 -0.1315 -0.0066
87759W        W30671  13.116   0.670   2.529 -0.0635  0.2759  0.0521
87760W        W30672  13.513   0.791   4.455  0.2001  0.4285  0.2631
87761W        W30673  15.515   3.012   5.517 -0.5813  0.0868  0.0224
87762W        W30674  15.071   1.261   3.281  0.1865  0.0818  0.0413
87763W        W30675  10.761   2.988   5.032 -0.1062  0.0747 -0.0483
87764W        W30676  12.668   0.148   8.398 -0.1661  0.1882  0.0897
87765W        W30677  13.555   2.399   6.466 -0.1131 -0.2153  0.0669
87766W        W30678  12.068   1.049   5.368 -0.0746 -0.1737 -0.3253
87767W        W30679  11.629   2.249   6.034  0.0486 -0.0978  0.1465
87768W        W30680  13.167   1.301   5.702  0.1394  0.3798  0.0481
87769W        W30681  10.763   0.224   6.565  0.0009 -0.0692 -0.1474
87770W        W30682  12.511   1.826   6.776 -0.3195  0.0533 -0.0067
87771W        W30683  15.037  34.225   4.969  0.1553 -0.0542  0.2197
87772W        W30684  11.398  34.354   6.563 -0.0185  0.2085 -0.0105
87773W        W30685  15.177   0.000   6.298 -0.0940 -0.0660 -0.2042
87774W        W30686  12.447   1.643   4.536 -0.2301  0.0518  0.1928
87775W        W30687  14.621   3.285   3.464 -0.1484  0.1003 -0.1805
87776W        W30688  15.771   0.981   3.467 -0.3386 -0.0626  0.3716
87777W        W30689  13.808   2.028   2.280  0.3480  0.1060 -0.2120
87778W        W30690  10.832   1.609   6.032 -0.1551  0.1823 -0.2525
87779W        W30691  11.757   0.635   5.567 -0.0650 -0.3749 -0.2394
87780W        W30692  11.091  34.635   8.029  0.0678  0.0935 -0.0421
87781W        W30693  11.149  34.560   5.507  0.1129 -0.2148  0.0006
87782W        W30694  14.111   0.596   7.342  0.2794 -0.0920 -0.1765
87783W        W30695  11.625   0.158   3.782 -0.0626  0.2773 -0.1154
87784W        W30696  14.705   1.227   5.439  0.0041 -0.1667  0.1303
87785W        W30697  12.989   2.537   5.426  0.1617 -0.2579  0.3369
87786W        W30698  10.891   0.763   3.610 -0.0783 -0.0496  0.2960
87787W        W30699  14.578   0.825   7.816 -0.1898  0.1848 -0.0485
87788W        W30700  12.304   3.329   3.860  0.1589 -0.2392  0.2240
87789W        W30701  15.025   1.875   6.947  0.0175  0.0446  0.0954
87790W        W30702  13.330   3.517   5.792  0.2398 -0.0091 -0.1493
87791W        W30703  12.952  34.365   5.785  0.0386  0.0121 -0.0427
87792W        W30704  14.262  34.382   3.938  0.3057  0.0340  0.2019
87793W        W30705  11.687   2.892   6.256 -0.0296 -0.4367 -0.1501
87794W        W30706  14.238   2.590   6.134  0.2843 -0.1144 -0.3180
87795W        W30707  13.250   0.781   6.047  0.1989 -0.2386 -0.0609
87796W        W30708  14.505   4.348   6.261 -0.2551  0.1602  0.0511
87797W        W30709  13.411   2.200   4.507  0.2814 -0.0494  0.1850
87798W        W30710  12.325   1.360   5.969  0.3848  0.1393  0.1909
87799W        W30711  13.782  34.031   5.942  0.0584 -0.0086 -0.2370
87800W        W30712  14.513   1.295   6.710 -0.1240 -0.0267  0.0154
87801W        W30713  13.982   0.922   5.562  0.1348  0.0960 -0.2505
87802W        W30714  12.613   0.219   3.756  0.0622 -0.0776 -0.1407
87803W        W30715  12.299   3.543   4.414 -0.0957  0.2311  0.1842
87804W        W30716  11.707   1.909   5.340  0.3523 -0.1011  0.1361
87805W        W30717  11.124   2.127   5.351 -0.4664  0.0642  0.2017
87806W        W30718  12.677   3.260   5.248  0.3174 -0.0746 -0.3073
87807W        W30719  13.896   0.118   4.938 -0.0858 -0.0215 -0.1288
87808W        W30720  11.982   1.791   8.885  0.2024 -0.0265 -0.1921
87809W        W30721  12.868   0.978   7.529 -0.0090  0.1229  0.0206
87810W        W30722  11.817   0.545   3.447 -0.1943 -0.0753 -0.0608
87811W        W30723  13.012   2.803   5.023  0.0597 -0.0988  0.1056
87812W        W30724  14.467   0.002   3.550 -0.1899 -0.0500  0.0534
87813W        W30725  13.433   0.087   3.658 -0.0599  0.1502  0.2079
87814W        W30726  12.880   1.078   8.033  0.4599  0.3503  0.1544
87815W        W30727  14.640   2.574   3.646  0.1219  0.4763  0.2051
87816W        W30728  13.229   0.892   3.027 -0.2378 -0.3025  0.0139
87817W        W30729  12.188   0.205   4.617  0.0059  0.0248 -0.0900
87818W        W30730  11.650   1.617   8.370 -0.2251  0.1071 -0.1944
87819W        W30731  14.649   2.142   3.469 -0.3497 -0.0643 -0.1807
87820W        W30732  12.172   1.448   6.876 -0.0591  0.1510 -0.1684
87821W        W30733  12.795   0.915   4.729 -0.0927  0.2034 -0.3327
87822W        W30734  15.473   3.047   6.254  0.1155 -0.2476 -0.3102
87823W        W30735  12.234   2.308   6.689 -0.3672  0.2484 -0.1247
87824W        W30736  12.368   2.365   7.168 -0.0748 -0.1439 -0.1561
87825W        W30737  13.945   2.850   4.845  0.2046  0.1518  0.1341
87826W        W30738  13.311  34.017   5.852  0.0653  0.1904 -0.0018
87827W        W30739  14.485   1.635   4.463 -0.0247  0.2104 -0.0231
87828W        W30740  12.907   0.437   4.677 -0.0268 -0.1738  0.1879
87829W        W30741  13.181   2.663   2.611  0.1028  0.1845  0.0915
87830W        W30742  13.101   0.625   6.990 -0.2163  0.0942  0.0324
87831W        W30743  13.682   0.099   5.432 -0.1669  0.1732 -0.1685
87832W        W30744  12.083   0.291   6.826 -0.2534 -0.0176 -0.2079
87833W        W30745  13.789   1.313   7.476  0.1029  0.4660  0.0489
87834W        W30746  14.815   1.238   3.827  0.0415 -0.0091 -0.2052
87835W        W30747  13.433   0.339   7.345 -0.0992 -0.0707 -0.0729
87836W        W30748  12.823   1.297   4.288  0.0148 -0.0617  0.1167
87837W        W30749  12.897   0.272   7.990 -0.2094 -0.2793  0.5025
87838W        W30750  11.901  34.596   6.329  0.1809  0.0864 -0.1760
87839W        W30751  11.833   2.679   5.795 -0.0257  0.1106  0.1521
87840W        W30752  13.010   1.605   6.950  0.0867  0.0495 -0.0550
87841W        W30753  14.001   1.482   4.895 -0.2810  0.1851  0.0598
87842W        W30754  13.235   0.208   9.022 -0.1164 -0.0551 -0.3397
87843W        W30755  13.800   0.976   4.831  0.3012 -0.2277 -0.1509
87844W        W30756  12.761   4.008   6.172 -0.0064 -0.0515 -0.1367
87845W        W30757  12.856   1.081   6.145  0.1614  0.0168  0.0259
87846W        W30758  11.519  34.586   5.884 -0.0992 -0.0692 -0.0666
87847W        W30759  14.409   2.520   5.386 -0.0341 -0.0032  0.1231
87848W        W30760  12.595   2.348   3.957  0.4293 -0.1055 -0.0683
87849W        W30761  13.894   1.623   6.272 -0.2855 -0.4962  0.0169
87850W        W30762  12.792   2.347   4.906 -0.0139 -0.0055 -0.0542
87851W        W30763  14.188  34.432   6.173  0.1787  0.3516 -0.0005
87852W        W30764  10.734   3.038   5.839  0.1898 -0.0303 -0.0751
87853W        W30765  12.790   1.844   3.941  0.0713 -0.0600  0.3879
87854W        W30766  13.075   1.134   5.188  0.1578 -0.0866 -0.3467
87855W        W30767  13.450   0.369   4.757 -0.0274  0.0088  0.0578
87856W        W30768  14.862   1.668   4.078 -0.1646  0.0279  0.0856
87857W        W30769  11.611   0.108   6.705  0.0122  0.1861 -0.0507
87858W        W30770  13.902   0.563   5.201 -0.0464 -0.0618  0.3810
87859W        W30771  11.249   3.247   6.971 -0.0066  0.1033  0.0560
87860W        W30772  13.641   1.768   5.894 -0.2655  0.0705  0.1272
87861W        W30773  12.805  34.553   3.993 -0.0740  0.2424 -0.1036
87862W        W30774  13.558   2.623   7.327  0.2585  0.1930 -0.2875
87863W        W30775  11.388   0.953   7.085  0.0812 -0.0574 -0.1024
87864W        W30776  11.988   1.073   3.558  0.4324  0.3600 -0.2903
87865W        W30777  14.129   0.924   6.076  0.0508  0.1113 -0.2417
87866W        W30778  14.299  33.962   4.252 -0.0426 -0.1019 -0.4000
87867W        W30779  10.778   1.855   5.080  0.2469  0.0161  0.4041
87868W        W30780  12.402   2.775   6.454  0.1608  0.1833 -0.0434
87869W        W30781  11.454   1.711   3.721  0.5172  0.1752  0.2008
87870W        W30782  12.508   2.178   4.504 -0.1341 -0.1114 -0.0343
87871W        W30783  11.469   0.075   7.628 -0.0178  0.3416 -0.0278
87872W        W30784  13.978   1.392   6.687  0.1934 -0.2253 -0.1587
87873W        W30785  12.467   0.847   6.008 -0.0571 -0.1289  0.0620
87874W        W30786  13.924   0.771   4.156 -0.1572 -0.4834  0.2471
87875W        W30787  12.680   1.356   6.536  0.0349 -0.0405 -0.1240
87876W        W30788  13.801   0.991   6.433  0.2349  0.2320  0.3683
87877W        W30789  13.768   0.568   6.087  0.1196  0.2623  0.0704
87878W        W30790  11.365   2.517   6.296 -0.1695 -0.4362 -0.0450
87879W        W30791  13.139  34.247   5.228 -0.1364  0.1971  0.3647
87880W        W30792  15.573   3.171   4.226  0.0990 -0.1759 -0.2728
87881W        W30793  12.605   0.695   7.837  0.0266 -0.2681 -0.1965
87882W        W30794  12.510   1.784   5.755  0.0357  0.2096  0.0230
87883W        W30795  10.940   2.081   6.408 -0.1800  0.1392 -0.0818
87884W        W30796  12.814   1.573   6.070  0.0449  0.0076 -0.1300
87885W        W30797  13.753  34.200   7.624 -0.2084 -0.0198 -0.2307
87886W        W30798  12.190   2.854   5.489  0.0592 -0.0328  0.0982
87887W        W30799  12.902   2.828   4.029  0.0060  0.1749  0.0815
87888W        W30800  11.877   1.902   6.234  0.0828  0.1870 -0.1687
87889W        W30801  13.496   0.574   3.704  0.1752  0.0039 -0.0810
87890W        W30802  13.322   2.776   3.651  0.0301 -0.2315  0.0729
87891W        W30803  12.392   1.163   4.490 -0.1110  0.1609 -0.0622
87892W        W30804  15.588  34.298   6.564  0.0673 -0.2331 -0.1417
87893W        W30805  15.711   2.201   5.186 -0.0304  0.0144  0.3758
87894W        W30806  13.897   0.225   7.006 -0.0530  0.0841  0.0173
87895W        W30807  12.408   0.705   5.506  0.0514  0.0965  0.0210
87896W        W30808  14.813   1.996   4.472 -0.0126 -0.1132  0.0010
87897W        W30809  11.366   0.664   6.016 -0.0926 -0.3171 -0.0337
87898W        W30810  12.802   2.057   7.624  0.1712  0.0687  0.2127
87899W        W30811  11.848   1.043   7.263 -0.0798  0.2731 -0.1020
87900W        W30812  14.317   0.215   4.661  0.0866  0.0820  0.1442
87901W        W30813  12.965   1.313   3.261 -0.0602  0.1754 -0.3488
87902W        W30814  13.303   1.363   6.185 -0.2884  0.1861  0.1719
87903W        W30815  14.084   4.099   6.197 -0.5053  0.0431  0.1284
87904W        W30816  13.208   1.227   4.597  0.1392  0.3318  0.1751
87905W        W30817  14.244   2.070   5.317  0.3975  0.2170  0.2251
87906W        W30818  12.197   1.361   7.392  0.1758  0.0388  0.0909
87907W        W30819  14.245   1.136   5.206  0.2237  0.1524 -0.3730
87908W        W30820  14.441  34.422   4.491  0.0140 -0.2374  0.4433
87909W        W30821  12.256   1.078   6.433  0.1579 -0.0099 -0.2228
87910W        W30822  12.512  34.631   6.817  0.1016 -0.3745  0.1156
87911W        W30823  12.374   3.703   6.013 -0.0351  0.0667  0.1954
87912W        W30824  13.855   0.078   4.400  0.0062 -0.0067 -0.1943
87913W        W30825  15.128   0.359   6.702 -0.1504  0.0382 -0.1621
87914W        W30826  14.586   0.955   7.157 -0.0405 -0.3094  0.0651
87915W        W30827  13.502   0.828   7.373 -0.0135 -0.0067 -0.1408
87916W        W30828  10.839   0.318   7.287 -0.2564  0.2235 -0.0981
87917W        W30829  13.422   1.891   6.323  0.1561 -0.0907 -0.0429
87918W        W30830  14.647   0.571   2.679 -0.3758  0.2262  0.0401
87919W        W30831  14.774  34.545   6.574 -0.1230  0.0702 -0.0594
87920W        W30832  14.782   1.102   4.490 -0.1008 -0.1133 -0.1492
87921W        W30833  14.180   1.917   3.359  0.0707 -0.0069 -0.1111
87922W        W30834  11.320   0.339   5.579  0.1095 -0.3369 -0.2256
87923W        W30835  13.042   2.368   7.246  0.1573  0.0166 -0.3823
87924W        W30836  12.924   1.410   3.780  0.1297 -0.0276 -0.0802
87925W        W30837  14.379   0.140   7.357  0.1580 -0.0256  0.1028
87926W        W30838  11.862   3.594   3.601  0.1803 -0.0006 -0.2422
87927W        W30839  12.826   1.446   4.856  0.1528 -0.2279  0.1450
87928W        W30840  14.571   1.101   5.871  0.0916  0.0555 -0.0291
87929W        W30841  11.954   1.095   4.888 -0.0291 -0.1832 -0.4284
87930W        W30842  11.317   2.314   6.973  0.1397  0.1781  0.0090
87931W        W30843  12.717   1.025   2.134 -0.2161 -0.0639 -0.0887
87932W        W30844  14.116   2.283   3.731 -0.0325  0.0724  0.1512
87933W        W30845  12.266   1.641   6.362 -0.0002  0.0959 -0.0377
87934W        W30846  13.639   2.707   7.819 -0.0039  0.0602 -0.1949
87935W        W30847  14.000   0.570   3.618  0.0484  0.1832  0.0647
87936W        W30848  14.333   1.360   6.266  0.2620 -0.1299 -0.1554
87937W        W30849  11.845   1.478   5.181  0.0812  0.1058 -0.0641
87938W        W30850  13.545  34.347   5.562  0.3000 -0.1849 -0.0438
87939W        W30851  12.384   3.395   5.616 -0.3382 -0.0945  0.0609
87940W        W30852  10.656   1.512   8.449 -0.2506  0.0894  0.2310
87941W        W30853  12.814   2.568   4.490 -0.0630  0.1652 -0.1392
87942W        W30854  12.562   1.210   7.042  0.5701 -0.3289 -0.0580
87943W        W30855  14.100   1.886   5.772  0.2588 -0.0343 -0.1018
87944W        W30856  13.465   1.448   4.950  0.0460 -0.0524  0.0011
87945W        W30857  13.595   0.700   6.840  0.0372  0.1402  0.1475
87946W        W30858  12.896   2.959   6.544 -0.1450  0.2156 -0.1298
87947W        W30859  11.618   1.058   6.253  0.3141  0.2175 -0.0989
87948W        W30860  11.701   2.268   7.952 -0.3092 -0.0896 -0.1876
87949W        W30861  12.277   1.848   7.199  0.0113 -0.0639 -0.0775
87950W        W30862  12.435   2.115   6.271 -0.0124 -0.0417 -0.2114
87951W        W30863  10.472   1.043   6.864 -0.1153  0.0026  0.1709
87952W        W30864  11.631   0.507   7.012  0.1067 -0.0355  0.1340
87953W        W30865  13.733   1.937   4.961 -0.0032  0.2233 -0.1570
87954W        W30866  13.123  34.685   4.544 -0.3628  0.1692 -0.2443
87955W        W30867  13.031   2.051   5.377 -0.0413  0.2099  0.0414
87956W        W30868  11.410   2.006   7.385 -0.1124  0.0064 -0.4051
87957W        W30869  11.184   0.845   5.600  0.1207  0.2642  0.4457
87958W        W30870  13.567   3.054   5.743 -0.0799  0.1501  0.2869
87959W        W30871  14.179   2.726   3.971  0.2469 -0.1098  0.4022
87960W        W30872  13.737   1.645   3.880  0.0273  0.1043 -0.0238
87961W        W30873  13.128   3.172   6.110  0.3429 -0.0417 -0.2000
87962W        W30874  14.288   0.143   4.140 -0.1087 -0.3157  0.0082
87963W        W30875  12.505   2.757   5.153 -0.0945  0.0622 -0.1249
87964W        W30876  11.667   2.745   4.457  0.1112  0.0422 -0.4720
87965W        W30877  14.136   3.375   3.634  0.0171  0.1977  0.1504
87966W        W30878  12.057   1.804   4.802 -0.0720 -0.2187 -0.0748
87967W        W30879  13.638   3.347   6.188  0.3969 -0.2246 -0.1546
87968W        W30880  15.108   0.483   1.965 -0.0214  0.3011  0.1230
87969W        W30881  14.879   0.778   4.103 -0.1781  0.3525 -0.3661
87970W        W30882  14.771  34.690   4.820 -0.0326 -0.0946 -0.3728
87971W        W30883  11.698   2.287   6.562  0.3013  0.1521  0.0167
87972W        W30884  13.118   0.787   5.519 -0.1926  0.2010 -0.1763
87973W        W30885  12.381   0.676   4.759 -0.4169  0.0246 -0.5550
87974W        W30886  12.148   1.385   8.542 -0.2602  0.2398  0.3280
87975W        W30887  14.971   0.107   7.525 -0.2705  0.0712 -0.0842
87976W        W30888  10.867   3.226   7.472  0.1081 -0.0825 -0.0357
87977W        W30889  14.100   3.739   3.973 -0.5005  0.0863 -0.2016
87978W        W30890  12.147   0.202   3.968 -0.0578  0.2110  0.0518
87979W        W30891  12.645   0.739   6.506 -0.2253  0.1354  0.0029
87980W        W30892  16.132  32.559   7.161  0.1277  0.1969 -0.0592
87981W        W30893  14.296   2.419   3.212  0.0453  0.0728 -0.0326
87982W        W30894  13.425   0.505   6.433 -0.0782 -0.1928 -0.1215
87983W        W30895  13.072   2.319   4.111  0.0366 -0.1348  0.1569
87984W        W30896  12.168   2.984   6.021  0.3021  0.1251 -0.1551
87985W        W30897  12.805   2.316   5.858 -0.1460 -0.2976 -0.1228
87986W        W30898  14.423   0.616   3.315  0.1436  0.3398 -0.4265
87987W        W30899  14.852   0.586   5.121  0.1571  0.4806 -0.0125
87988W        W30900  12.694  34.374   7.223  0.0565 -0.3208  0.0412
87989W        W30901  14.501  33.836   7.154 -0.3785  0.0910 -0.1199
87990W        W30902  12.582   0.845   4.140  0.2534  0.2211  0.0850
87991W        W30903  14.979   0.631   4.556 -0.0449 -0.1197 -0.2135
87992W        W30904  13.239   2.631   6.804 -0.2740 -0.0339 -0.1229
87993W        W30905  11.311   0.106   7.088 -0.2706 -0.0585  0.1711
87994W        W30906  13.483   1.230   3.337  0.1045  0.0279  0.1921
87995W        W30907  14.128   2.300   6.609  0.3575  0.3426  0.1243
87996W        W30908  14.439   1.605   3.671 -0.2855  0.2199  0.0290
87997W        W30909  11.901   2.649   7.456 -0.2077 -0.0246 -0.1131
87998W        W30910  11.319   0.591   4.372 -0.0381  0.0994 -0.3956
87999W        W30911  14.468  33.798   3.524  0.0140  0.0614 -0.3631
88000W        W30912  13.052   0.852   4.253  0.0017 -0.0891  0.2780
88001W        W30913  13.313   1.029   6.544 -0.0376  0.4141  0.1814
88002W        W30914  13.817   3.017   7.471 -0.0353  0.0006 -0.2123
88003W        W30915  12.206   1.031   3.015 -0.0703  0.2388  0.0245
88004W        W30916  14.066   3.454   2.162 -0.0587  0.2787 -0.2650
88005W        W30917  14.422   0.847   4.886 -0.0346 -0.1815 -0.3107
88006W        W30918  13.166   3.019   4.572 -0.1201  0.0531 -0.1427
88007W        W30919  15.408   0.795   5.239  0.2936 -0.1877 -0.1298
88008W        W30920  14.045   3.102   5.979  0.2260  0.1182 -0.2371
88009W        W30921  12.850   3.552   6.407 -0.4656 -0.0647  0.1009
88010W        W30922  15.419   2.446   5.492 -0.2311  0.0138  0.0324
88011W        W30923  13.854  34.347   5.145  0.3656 -0.1528 -0.0096
88012W        W30924  11.741   1.517   6.487  0.1463 -0.2455 -0.0205
88013W        W30925  13.163   1.854   4.929 -0.2061 -0.1519  0.0185
88014W        W30926  15.559   0.173   6.553  0.0166  0.2004 -0.0366
88015W        W30927  13.971   0.503   6.592 -0.0615  0.1470 -0.1508
88016W        W30928  12.350   4.364   4.338 -0.2503  0.0995  0.0999
88017W        W30929  14.712   0.500   7.400 -0.0585  0.4327 -0.0988
88018W        W30930  12.587   3.172   6.158  0.0375  0.0655  0.1831
88019W        W30931  11.705   1.768   7.829  0.0227  0.3240 -0.0413
88020W        W30932  10.989   2.570   3.235 -0.4214 -0.0147  0.1869
88021W        W30933  11.853   0.517   7.506 -0.0023  0.1009 -0.2618
88022W        W30934  13.541   1.058   5.337 -0.1790  0.1876  0.3377
88023W        W30935  13.485   2.901   5.110  0.1830  0.0974  0.0658
88024W        W30936  14.926   1.880   5.595  0.0548  0.0087 -0.0731
88025W        W30937  13.288   0.827   4.915 -0.1177 -0.0013  0.1870
88026W        W30938  15.732   2.577   5.823 -0.4440 -0.1173  0.1314
88027W        W30939  12.664   1.156   5.640  0.1286 -0.1915 -0.1880
88028W        W30940  14.715   0.242   4.399  0.1004 -0.1178 -0.1975
88029W        W30941  15.522   0.325   5.578  0.0707 -0.0930 -0.0926
88030W        W30942  12.421  34.323   6.377 -0.1305 -0.0224  0.1059
88031W        W30943  11.530   1.365   4.751  0.0204  0.0164  0.3196
88032W        W30944  12.866   0.646   5.126  0.2656  0.1086 -0.2331
88033W        W30945  12.543   2.195   5.413  0.3615  0.0448 -0.1076
88034W        W30946  13.807  33.549   9.383 -0.1632  0.0200 -0.1356
88035W        W30947  10.855   0.828   7.073 -0.2165  0.0214 -0.1650
88036W        W30948  11.507   0.551   5.139 -0.2520 -0.2454 -0.0977
88037W        W30949  13.551  34.363   4.589  0.0445 -0.1897  0.0008
88038W        W30950  14.245   2.130   4.421 -0.0417  0.0498  0.0143
88039W        W30951  11.802   0.122   5.469 -0.0779  0.1152  0.0402
88040W        W30952  11.617  34.501   4.497 -0.1485 -0.4364 -0.0440
88041W        W30953  14.067   2.431   5.692  0.1710  0.0511  0.2558
88042W        W30954  14.681   2.975   3.976  0.0702 -0.0155 -0.4607
88043W        W30955  12.990   0.339   3.416  0.1165  0.1398  0.2343
88044W        W30956  16.586   1.950   7.179  0.1664  0.0479 -0.1039
88045W        W30957  12.181   1.831   5.336 -0.0142  0.2527 -0.1416
88046W        W30958  13.451   1.500   6.656 -0.2612 -0.0501  0.0964
88047W        W30959  13.577  34.479   8.199  0.1142 -0.0325  0.1661
88048W        W30960  11.701   0.981   4.435 -0.4039  0.2188 -0.4886
88049W        W30961  12.956   0.301   6.646 -0.1092  0.4413 -0.0733
88050W        W30962  13.670   3.428   4.241  0.0930 -0.1460 -0.1112
88051W        W30963  14.659   3.297   4.530  0.0302 -0.2721 -0.3642
88052W        W30964  12.776   2.000   7.159 -0.1409 -0.2047 -0.1314
88053W        W30965  11.868   2.781   6.680 -0.1138  0.2759 -0.3567
88054W        W30966  10.813   0.420   5.605 -0.0663  0.0532 -0.1043
88055W        W30967  14.145   1.414   2.964  0.2256  0.0903  0.0767
88056W        W30968  10.893   3.005   6.634  0.0908 -0.0444  0.0940
88057W        W30969  14.808   3.006   5.462 -0.0814  0.2407 -0.0441
88058W        W30970  15.546  33.515   6.256 -0.1783 -0.0998 -0.1116
88059W        W30971  14.260   1.845   4.882  0.2262 -0.1605 -0.2158
88060W        W30972  13.149  34.576   8.616  0.0328  0.4358 -0.2614
88061W        W30973  11.950   1.089   7.820 -0.1328 -0.1566  0.2175
88062W        W30974  14.712   0.330   6.362 -0.1572 -0.0461 -0.1378
88063W        W30975  11.601  34.351   5.398 -0.1623 -0.1232 -0.0995
88064W        W30976  13.835   1.441   5.426  0.0543  0.0011  0.1280
88065W        W30977  14.573   2.751   5.825 -0.0588  0.1342  0.0693
88066W        W30978  12.774   1.593   5.387 -0.2166 -0.0039 -0.1178
88067W        W30979  14.279   1.156   4.486  0.0042  0.0153  0.1551
88068W        W30980  13.488   1.722   7.902  0.1983 -0.0822 -0.3567
88069W        W30981  13.710   2.066   5.468  0.0993 -0.1173 -0.1637
88070W        W30982  13.874   2.837   6.432 -0.0386 -0.0404  0.0695
88071W        W30983  13.237   0.979   3.692 -0.1639 -0.0852  0.2331
88072W        W30984  15.711   0.487   3.249 -0.0599 -0.2329 -0.2806
88073W        W30985  13.368   3.004   6.514  0.3822 -0.0164 -0.0807
88074W        W30986  14.975   2.993   6.786 -0.0804  0.4655 -0.1131
88075W        W30987  13.010   2.426   6.298  0.0072  0.4323  0.1587
88076W        W30988  14.334   1.914   6.195 -0.0112  0.1609 -0.0989
88077W        W30989  10.889  34.349   6.449 -0.1843 -0.2343  0.2088
88078W        W30990  13.951   0.557   4.602 -0.0835 -0.1914 -0.1413
88079W        W30991  13.411   2.361   5.115 -0.4829 -0.1461  0.1273
88080W        W30992  13.394   0.207   6.861  0.0675 -0.0798  0.3179
88081W        W30993  12.527  34.641   5.993  0.0136  0.0796  0.0904
88082W        W30994  14.592  33.577   4.415  0.1360 -0.0164 -0.2824
88083W        W30995  12.730   2.916   5.700 -0.0840  0.1238  0.5089
88084W        W30996  13.854   2.100   6.166 -0.3542 -0.0467 -0.0669
88085W        W30997  13.787   2.829   9.717 -0.1425  0.1216  0.0398
88086W        W30998  12.112   0.417   8.418  0.1248  0.0742  0.0463
88087W        W30999  15.547  33.677   9.058  0.0344  0.0129  0.0600
88088W        W31000  15.484   2.015   8.425 -0.0093 -0.2788 -0.0997
88089W        W31001  11.490   0.226   9.524 -0.3066  0.0861  0.1246
88090W        W31002  12.531   3.243   7.188 -0.2228 -0.0806 -0.0664
88091W        W31003  13.364   2.305   8.417  0.1767  0.0491  0.1240
88092W        W31004  15.500   2.440   7.508 -0.1679  0.0090 -0.2914
88093W        W31005  12.564   1.510   8.205  0.3083  0.0636 -0.0802
88094W        W31006  12.467   1.229   7.797 -0.0861  0.1077  0.2888
88095W        W31007  11.997  34.118   7.924  0.1648 -0.1136 -0.1628
88096W        W31008  10.762   1.295  10.112 -0.1025  0.2195 -0.1898
88097W        W31009  14.256   1.101   8.807  0.1495 -0.3561  0.2025
88098W        W31010  10.679   0.526   8.192 -0.3140 -0.1899  0.2698
88099W        W31011  10.813   2.035   9.783 -0.0900 -0.1282 -0.1368
88100W        W31012  13.978  33.737   8.552  0.1637  0.1751 -0.0950
88101W        W31013  13.277   3.061   7.602 -0.0653 -0.0610  0.0024
88102W        W31014  14.614  33.929   9.594  0.2102  0.2574 -0.0657
88103W        W31015  12.837   2.451   9.153 -0.0366  0.2253  0.1994
88104W        W31016  10.205   0.361   8.414  0.0406  0.2608 -0.1384
88105W        W31017  10.009   2.549  10.032  0.3892 -0.0172  0.1852
88106W        W31018  14.349   0.497   9.648 -0.0731 -0.0585  0.0258
88107W        W31019  13.826  33.243  10.454  0.0282  0.1530  0.1427
88108W        W31020  13.738   0.131   9.123 -0.0025 -0.1389 -0.1010
88109W        W31021  11.981   3.245   9.057 -0.0415  0.1533  0.1098
88110W        W31022  13.029   3.648   9.383  0.1454 -0.2569 -0.5150
88111W        W31023  10.627   2.458  10.108  0.3116 -0.0523 -0.0794
88112W        W31024  11.931   2.541   9.339  0.0243  0.0536 -0.2805
88113W        W31025  12.304   2.434   8.232 -0.3815  0.1647  0.2912
88114W        W31026  15.463   2.869   9.002 -0.1903  0.0846  0.2271
88115W        W31027  10.597   2.184   5.988 -0.0854  0.1927  0.2663
88116W        W31028  15.849   0.498   9.894 -0.0440 -0.2350  0.1618
88117W        W31029  12.654   0.870   9.047  0.0339  0.1803  0.1107
88118W        W31030  11.261   3.876   7.716 -0.1297  0.0240  0.0381
88119W        W31031  12.494   1.436   8.927 -0.2434  0.3508 -0.2140
88120W        W31032  12.622   3.756   8.994 -0.0332  0.0930  0.0632
88121W        W31033  11.137   2.366   7.891 -0.0697 -0.2301 -0.2324
88122W        W31034  13.732   0.587   7.705  0.3000  0.2240 -0.0355
88123W        W31035  13.281   2.064   6.874 -0.2021  0.1916 -0.1738
88124W        W31036  15.385   0.477   8.165  0.0471  0.3681  0.4128
88125W        W31037  14.245   1.002   9.277 -0.2447  0.0706  0.0683
88126W        W31038  12.502   2.891   8.016  0.0101  0.0351 -0.1252
88127W        W31039  11.376   1.310  10.034 -0.0457 -0.0870 -0.2100
88128W        W31040  12.078   1.503   8.064  0.0514  0.0806  0.0387
88129W        W31041  14.795   0.149   8.922 -0.2006  0.5277 -0.1604
88130W        W31042  11.331   3.829   9.389 -0.1065 -0.1297 -0.1039
88131W        W31043  13.141   1.073   9.696 -0.1720 -0.0241  0.0354
88132W        W31044  14.554   2.590   7.636 -0.3691 -0.0696  0.2280
88133W        W31045  13.910   1.837   7.567  0.0205  0.1090  0.1366
88134W        W31046  13.381   3.239   8.124 -0.1489 -0.2703  0.1428
88135W        W31047  13.409  34.573   9.416  0.2241 -0.2093 -0.0068
88136W        W31048  11.194  33.759   8.473  0.3543 -0.1506 -0.0899
88137W        W31049  15.063  34.348  10.482  0.0066  0.0372  0.1084
88138W        W31050  12.516   3.015   9.687 -0.0042 -0.5847 -0.0476
88139W        W31051  14.134   3.236   8.607  0.0502 -0.3475  0.0846
88140W        W31052  14.729   1.776   7.602 -0.3975  0.1092  0.0015
88141W        W31053  14.275  33.213  10.191 -0.0879 -0.3447 -0.0416
88142W        W31054  14.050  33.947   9.269 -0.0275 -0.3420  0.2114
88143W        W31055  11.068   2.765   7.567 -0.0410 -0.2528 -0.1450
88144W        W31056  12.773   0.662   8.304 -0.0074  0.3012  0.0176
88145W        W31057  14.620   2.096   8.186 -0.2891 -0.0423  0.0163
88146W        W31058  14.260   2.029   7.221 -0.0545  0.5445 -0.5055
88147W        W31059  12.865   2.571   9.613 -0.4102 -0.1935 -0.0747
88148W        W31060  11.727   3.658   7.251  0.0257 -0.1016  0.3450
88149W        W31061  12.006   1.611   9.345 -0.2858  0.0180  0.1512
88150W        W31062  11.497   2.821   7.822  0.0965  0.0306  0.1386
88151W        W31063  13.415   1.284   9.357 -0.1133 -0.0998  0.3047
88152W        W31064  13.778   0.762   9.344 -0.0947 -0.3356 -0.2678
88153W        W31065  14.217  34.492   7.826  0.1223 -0.2569  0.0958
88154W        W31066  14.824  34.308   8.800  0.1739 -0.0337  0.1737
88155W        W31067  12.290   0.921   8.205 -0.2258  0.0068  0.2532
88156W        W31068  14.582   2.441   8.521  0.1887 -0.0117 -0.0650
88157W        W31069  13.686   1.043   7.909 -0.2002  0.0497  0.1813
88158W        W31070  12.874   2.815   7.141  0.0541  0.0932  0.0617
88159W        W31071  10.898   1.181   9.423 -0.0067  0.0677 -0.2123
88160W        W31072  11.823   0.089   8.704  0.0670 -0.0719  0.0525
88161W        W31073   8.958  33.305  10.119 -0.0175  0.1720 -0.0387
88162W        W31074  11.390  34.648   8.424 -0.1000  0.1797 -0.0860
88163W        W31075  13.591   0.613   8.220  0.0850 -0.3262  0.1426
88164W        W31076  11.563   0.674   8.637 -0.0028  0.0874  0.3180
88165W        W31077  11.823   2.133   8.473  0.3324  0.0494  0.0172
88166W        W31078  11.945   3.660   8.211  0.1212 -0.0491 -0.0103
88167W        W31079  14.274   2.803   9.043  0.0686 -0.1445  0.0841
88168W        W31080  14.365   3.961   7.552 -0.4444  0.1327 -0.0549
88169W        W31081  11.402   2.101   9.900 -0.0704  0.0245 -0.1404
88170W        W31082  12.337   0.400   7.429 -0.0726  0.0930  0.1455
88171W        W31083  12.823   2.810  10.038  0.0643  0.0706 -0.0663
88172W        W31084  12.721   1.759  10.098  0.1545  0.1011 -0.3875
88173W        W31085  10.924   0.381   9.088  0.3398  0.1260  0.1736
88174W        W31086  14.693   3.141   7.778  0.1771  0.0100 -0.3332
88175W        W31087  13.175   1.390   8.282  0.2469  0.2227  0.0860
88176W        W31088  14.816   3.875   9.406 -0.2200 -0.0341  0.0688
88177W        W31089  14.035  32.106  10.777  0.0020 -0.1798 -0.1091
88178W        W31090  11.447   0.329   8.941 -0.1059  0.2392 -0.1009
88179W        W31091  13.806   3.885   9.863  0.0664 -0.0552 -0.0476
88180W        W31092  11.612   2.899   7.084 -0.0778 -0.1077 -0.1509
88181W        W31093   9.875   1.831   9.834  0.2029  0.2127  0.1454
88182W        W31094  12.843   1.716   8.588  0.1954 -0.0760 -0.1754
88183W        W31095  16.023  33.040  10.136  0.1351  0.1945  0.1736
88184W        W31096  11.036   0.668   8.740 -0.1642 -0.1408  0.2442
88185W        W31097  14.903  33.503   9.508  0.2860 -0.2613 -0.0896
88186W        W31098  14.085   0.283   8.621 -0.1780 -0.2182 -0.2559
88187W        W31099  13.284   1.262   7.615  0.0579  0.2995  0.1387
88188W        W31100  14.554  34.405   7.193  0.2236 -0.2644 -0.0827
88189W        W31101  12.670  33.853   7.244  0.0988  0.2466  0.2199
88190W        W31102  12.830   2.429   8.153 -0.1283  0.1921 -0.3038
88191W        W31103  14.339   1.605   8.938 -0.3799 -0.1631 -0.1424
88192W        W31104  13.022   0.671   8.766 -0.1389 -0.1844 -0.2224
88193W        W31105  14.699   2.630   7.110  0.2858 -0.2058 -0.2564
88194W        W31106  13.079   0.563   9.828 -0.1622  0.2891 -0.1029
88195W        W31107  14.423   3.336   9.196 -0.3407  0.1848 -0.1432
88196W        W31108  13.528  32.950   9.157 -0.2314 -0.1829  0.1909
88197W        W31109  11.441   1.384   7.362  0.1997  0.1003 -0.3086
88198W        W31110  14.005   0.100   9.669  0.1499  0.1715  0.0250
88199W        W31111  10.761   2.595   6.144  0.3190  0.1579 -0.0919
88200W        W31112  15.526  33.121   9.871 -0.0057  0.0523 -0.1712
88201W        W31113  14.523  34.304  10.348  0.1608  0.1576  0.1198
88202W        W31114  14.616   1.121   8.486  0.2945  0.0935 -0.1763
88203W        W31115  13.898   1.084   9.703 -0.0395 -0.1759  0.3485
88204W        W31116  11.158   0.527   6.784 -0.0327  0.1527  0.0967
88205W        W31117  12.582  34.380   9.286  0.0819  0.1223 -0.2853
88206W        W31118   9.889   4.804   9.171  0.6024  0.0822 -0.0193
88207W        W31119  13.387   0.242   7.876 -0.0237 -0.1240  0.0664
88208W        W31120  12.963  34.211   9.020  0.0416 -0.0911  0.0388
88209W        W31121  12.433   3.401   6.692 -0.1574  0.0968 -0.1605
88210W        W31122  12.107   2.038   8.027 -0.3745  0.2833 -0.1731
88211W        W31123  13.182  33.335   7.534  0.2100 -0.1270  0.2232
88212W        W31124  13.022   1.836   9.268 -0.4183  0.2873 -0.3041
88213W        W31125  12.394   2.562   5.853 -0.0107  0.1331  0.0985
88214W        W31126  13.830   2.752   8.761 -0.0138  0.4742 -0.0925
88215W        W31127  11.430   2.518   7.397 -0.1115  0.1660  0.0266
88216W        W31128  14.438  32.754  10.175 -0.1499 -0.0981  0.0939
88217W        W31129  12.050   3.150   8.369  0.1123 -0.3965  0.2934
88218W        W31130  12.655   1.096   8.545 -0.1986  0.0115 -0.0946
88219W        W31131  12.460   0.222   9.335  0.0142  0.1664  0.3594
88220W        W31132  14.086  32.782  10.589  0.0842  0.0018 -0.1762
88221W        W31133  15.043   1.952   8.649  0.1912  0.0240  0.1582
88222W        W31134  10.981  34.699   9.429  0.2200  0.2968 -0.0217
88223W        W31135  15.129  33.974   9.345  0.0164 -0.0300  0.2562
88224W        W31136  11.144   3.396   8.583  0.2712  0.0357 -0.1593
88225W        W31137  15.541   0.309   7.734  0.0831  0.0124 -0.1798
88226W        W31138  10.822   0.726   7.732  0.1508  0.1558 -0.1523
88227W        W31139  12.441   3.966  10.328  0.0395  0.2133  0.0598
88228W        W31140  14.219   0.234   9.199  0.4476  0.0457 -0.1237
88229W        W31141  11.481   1.965   9.355  0.2421 -0.0505 -0.1408
88230W        W31142  13.813   1.854   8.285 -0.0366 -0.1833  0.1169
88231W        W31143  11.278   1.070   9.021  0.0158  0.5161 -0.0731
88232W        W31144  12.036   3.100   9.533  0.0604 -0.2146  0.2497
88233W        W31145  12.607   3.357   9.280  0.3294  0.1271  0.1117
88234W        W31146  14.348  34.330   9.765 -0.0173  0.3508 -0.0251
88235W        W31147  12.481   0.492   8.759 -0.0811  0.0908 -0.0614
88236W        W31148  12.934   1.309   9.172 -0.2001 -0.0396 -0.0344
88237W        W31149  13.727   1.234   8.874 -0.0601 -0.0593  0.0310
88238W        W31150  15.456   0.775   9.711  0.1851 -0.0014  0.2588
88239W        W31151  12.866  33.964   9.434  0.1686 -0.1229  0.1139
88240W        W31152  14.400   3.207   8.173  0.1160 -0.1123 -0.1554
88241W        W31153  11.735   1.144   8.697 -0.0260  0.2261 -0.1395
88242W        W31154  12.386   2.404   9.579  0.2370  0.2181 -0.0967
88243W        W31155  12.509   2.801   8.564 -0.2197  0.1693 -0.0262
88244W        W31156  12.939  33.052   9.971 -0.0066  0.2315 -0.1012
88245W        W31157  12.903   3.008   9.142  0.0483  0.0986  0.3559
88246W        W31158  12.291   1.882   8.465  0.0494 -0.0782 -0.0276
88247W        W31159  13.342   2.948   8.912  0.3242  0.1940 -0.1765
88248W        W31160  16.267  34.375   8.648 -0.1979 -0.1181  0.1346
88249W        W31161  13.183   1.746   7.424 -0.0167 -0.2353 -0.0784
88250W        W31162  14.093   0.679   8.935  0.0492  0.5061  0.0976
88251W        W31163  13.905   2.377   7.572 -0.0162 -0.2681 -0.1739
88252W        W31164  13.230   0.847   9.224  0.1120 -0.0029 -0.1752
88253W        W31165  13.645   0.500   8.718  0.2229 -0.0102 -0.0530
88254W        W31166  14.135  33.826   9.727  0.0074  0.0632 -0.0779
88255W        W31167  10.343  34.424   9.144 -0.4425  0.0294  0.0201
88256W        W31168  13.112   1.940   8.109 -0.2433 -0.0987  0.4395
88257W        W31169  14.882   1.713   9.737  0.0490  0.0495  0.0699
88258W        W31170  11.815   2.313   7.083  0.0720  0.1247 -0.0964
88259W        W31171  14.866   0.263   8.402  0.0760  0.1149 -0.0646
88260W        W31172  13.330   2.151   9.492 -0.1727 -0.0832  0.2631
88261W        W31173  13.125   1.188   8.745 -0.4879 -0.0933 -0.0014
88262W        W31174  13.405   3.086   7.124 -0.0027  0.1221 -0.0856
88263W        W31175  12.223   2.308   8.811  0.0419 -0.0993 -0.2063
88264W        W31176  13.872   0.917   8.501 -0.2210  0.1152 -0.0563
88265W        W31177  13.904  33.387   9.870  0.0805 -0.0392  0.0132
88266W        W31178  14.761   3.369   9.536 -0.0070  0.1147 -0.0501
88267W        W31179  15.256  34.597   8.498  0.2312 -0.2625 -0.2095
88268W        W31180  15.355   1.609   8.823  0.0883  0.0636  0.0951
88269W        W31181  15.308   0.942   8.374  0.0993  0.1664 -0.0449
88270W        W31182  13.788   2.197   7.137 -0.0289  0.0695  0.0552
88271W        W31183  14.489  34.351   9.228  0.0263 -0.1996  0.1833
88272W        W31184  12.167   0.871   8.673  0.1548 -0.1084  0.0616
88273W        W31185  12.387   1.752   7.688  0.0007 -0.0879 -0.0714
88274W        W31186  13.422   0.446   9.470 -0.0086 -0.0610  0.1166
88275W        W31187  12.196   0.763   9.269 -0.1822  0.0922  0.3294
88276W        W31188   9.308   0.611   9.736  0.0291  0.1415 -0.1292
88277W        W31189  11.825   0.059   7.222 -0.0538  0.0501  0.0802
88278W        W31190  13.156   0.340   8.392 -0.0558 -0.2356 -0.1426
88279W        W31191  13.362   1.843   8.511 -0.1149  0.3392 -0.0522
88280W        W31192  12.420   0.267   7.947  0.0470  0.3498 -0.1610
88281W        W31193  11.283   2.039   8.237 -0.0282  0.1005  0.1583
88282W        W31194  14.435  32.670   9.238 -0.0243  0.2333 -0.0267
88283W        W31195  11.848   3.209  10.089  0.2583  0.1202  0.0515
88284W        W31196  12.068   2.711   7.910  0.1144 -0.0341  0.2721
88285W        W31197  14.982  33.471  10.043  0.0451  0.3527  0.4437
88286W        W31198  13.613  32.824  10.845  0.1888 -0.1497  0.0935
88287W        W31199  12.639   1.946   9.582 -0.1625 -0.1027 -0.1009
88288W        W31200  11.641   1.662   9.730 -0.3381  0.1293  0.0371
88289W        W31201  14.851   0.665   8.152  0.0113 -0.3052 -0.0242
88290W        W31202  12.026   0.827   9.910 -0.0050  0.0162  0.0215
88291W        W31203  13.955   1.471   9.276  0.0968 -0.0250  0.1314
88292W        W31204  11.449   0.848  10.084  0.1295  0.1647  0.0140
88293W        W31205  14.655   2.712   8.077  0.1012 -0.0929  0.0692
88294W        W31206   9.513   1.976  10.300  0.1519 -0.1014 -0.0082
88295W        W31207  11.999   3.365   6.372  0.1083  0.0939  0.1622
88296W        W31208  13.631   3.466   7.341 -0.2012 -0.2389  0.0367
88297W        W31209  14.213   0.991   8.165  0.3808  0.0153  0.2063
88298W        W31210  13.754   3.902   8.436 -0.3120 -0.1251 -0.5680
88299W        W31211  12.075   0.561   7.947 -0.0793 -0.0223 -0.0472
88300W        W31212  11.527   5.440   9.627 -0.0480  0.0588  0.1604
88301W        W31213  11.240   3.666   7.253 -0.2776  0.1155 -0.2697
88302W        W31214  13.250   2.414   7.852  0.5841  0.1176 -0.3629
88303W        W31215  10.381   2.792   8.158  0.0205  0.1687 -0.2532
88304W        W31216  15.131  34.184   6.450  0.2495 -0.2923  0.1064
88305W        W31217  15.882   2.101   8.104 -0.1125  0.1235  0.0414
88306W        W31218  15.887  34.262   7.908  0.3997  0.0737  0.0959
88307W        W31219  12.588   1.935   8.991  0.2411  0.0642 -0.0541
88308W        W31220  12.780   0.076   8.945 -0.1207 -0.0539 -0.0125
88309W        W31221  14.252   1.999   8.448  0.2957  0.0850  0.0029
88310W        W31222  11.712   0.923   9.178  0.1272 -0.0200  0.1477
88311W        W31223  12.626   2.008   8.075  0.2397  0.0991 -0.0579
88312W        W31224  15.393  32.592   8.875 -0.3151 -0.1089 -0.1380
88313W        W31225  12.320   0.886   7.503 -0.0882 -0.2560  0.1721
88314W        W31226  14.571   1.028   9.646 -0.2939  0.0562 -0.4600
88315W        W31227  12.414   3.588   7.537  0.0997 -0.2784  0.0404
88316W        W31228  13.590   2.118   8.883  0.0250  0.2650 -0.2983
88317W        W31229  13.760   2.987   9.241  0.1755  0.1732 -0.1660
88318W        W31230  11.605   0.702   9.589 -0.0657 -0.2612 -0.1392
88319W        W31231  14.628  33.861   9.054 -0.1573  0.2797  0.1009
88320W        W31232  13.302   1.617   8.948 -0.2281  0.1406 -0.1312
88321W        W31233  12.891   1.473   9.669 -0.1890 -0.0623 -0.1915
88322W        W31234  13.257   0.901   8.366 -0.3599  0.0246 -0.0931
88323W        W31235  13.455   1.380   9.991 -0.1447  0.1128  0.1417
88324W        W31236  12.318   2.897   9.193  0.0013  0.2254 -0.0506
88325W        W31237  13.333  34.483   7.648  0.0307 -0.2705 -0.0792
88326W        W31238  13.917   1.494   7.947 -0.0154  0.0362  0.2700
88327W        W31239  11.154   2.460  10.156 -0.2714 -0.1045 -0.4181
88328W        W31240  14.722   0.270   7.900 -0.2147 -0.0642 -0.1504
88329W        W31241  12.154   2.076   9.246  0.0414  0.1385 -0.1019
88330W        W31242  11.855  34.298   8.648 -0.2129 -0.2575 -0.0534
88331W        W31243  10.734  34.129   8.836 -0.0656  0.0705 -0.2304
88332W        W31244  15.052   0.746   5.552  0.5074 -0.1342  0.1704
88333W        W31245  16.523   2.412   9.565  0.0188 -0.0365 -0.2871
88334W        W31246  11.365   1.883   6.266 -0.1172  0.0552  0.3489
88335W        W31247  14.221   2.960  10.048  0.2219 -0.2777 -0.0966
88336W        W31248  14.589   2.088   8.881 -0.1559  0.0340  0.0924
88337W        W31249  11.650  33.190   9.283  0.0098  0.2721 -0.1953
88338W        W31250  13.276   2.824   9.526  0.1644  0.0234  0.0532
88339W        W31251  15.024   2.709   8.751 -0.0380 -0.0461 -0.1802
88340W        W31252  13.123  33.716   8.966  0.2682  0.0056 -0.0242
88341W        W31253  12.212   1.807   9.829 -0.1705  0.4377  0.2290
88342W        W31254  11.387   2.510   8.540  0.0374 -0.2547  0.1489
88343W        W31255  15.654   0.923   8.979 -0.0545 -0.1944 -0.3313
88344W        W31256  12.940   1.520   7.860 -0.2211 -0.0409 -0.2510
88345W        W31257  14.874  34.352   9.573 -0.0095 -0.1019  0.2566
88346W        W31258  10.738   2.003   8.343  0.0106 -0.0161 -0.0417
88347W        W31259  12.646   2.224   8.573  0.1277  0.1216 -0.0467
88348W        W31260  12.361   2.904   7.521 -0.3121 -0.2839  0.0039
88349W        W31261  13.787   2.474   9.259 -0.1931 -0.1510 -0.0430
88350W        W31262  15.092   1.444   8.411 -0.0325  0.4230 -0.3069
88351W        W31263  15.193   2.711   8.023  0.0574 -0.0004 -0.1817
88352W        W31264  13.866  34.009   8.028  0.2526 -0.0944 -0.1357
88353W        W31265  15.042  33.536   8.816 -0.1174  0.2669 -0.0244
88354W        W31266  14.029  33.109   9.368 -0.0441 -0.1392  0.2867
88355W        W31267  14.586  33.848  10.079 -0.1186 -0.1273  0.0274
88356W        W31268  11.102   1.123   7.628 -0.0744  0.1574  0.0902
88357W        W31269  12.108   0.587   6.391  0.0267 -0.1953  0.1679
88358W        W31270  12.528   0.649   9.691  0.0555  0.0648 -0.1165
88359W        W31271  13.322   0.058   9.855  0.0816  0.0502  0.0039
88360W        W31272  11.629   0.355   8.237 -0.0836  0.3812  0.0834
88361W        W31273  14.300   1.738   8.045  0.0954  0.0211 -0.0661
88362W        W31274  12.094   0.372   9.026  0.0777  0.3205  0.1647
88363W        W31275  11.757   0.327  10.045  0.0834 -0.0791 -0.0991
88364W        W31276  13.458   2.121   7.468  0.0269  0.2614 -0.0734
88365W        W31277  13.653   2.239   8.006 -0.2103 -0.1210  0.2264
88366W        W31278  11.879  33.325   8.495 -0.2002  0.1695  0.2866
88367W        W31279  10.855   1.907   7.857 -0.3192  0.0741 -0.2137
88368W        W31280  10.364   1.152   8.653  0.1040  0.0103 -0.1429
88369W        W31281  12.380  32.204   9.830  0.3048 -0.0528  0.1445
88370W        W31282  14.623   1.665   8.454 -0.0867  0.1823  0.1053
88371W        W31283  14.201   2.318   8.066 -0.1787 -0.2265 -0.0371
88372W        W31284  12.284  32.021   8.970 -0.1641 -0.0578 -0.2240
88373W        W31285  14.451   0.567   8.539 -0.0966 -0.0653  0.2943
88374W        W31286  15.199   2.085   5.222  0.0317  0.1974  0.2413
88375W        W31287  15.553  33.251   9.390  0.0338 -0.0959 -0.2253
88376W        W31288  13.627   0.025   8.632  0.2133 -0.4096 -0.3595
88377W        W31289  13.774   2.297   9.861  0.2220 -0.0616 -0.0716
88378W        W31290  14.962   0.665   8.711  0.2526  0.1169  0.1590
88379W        W31291  14.814   0.197  10.006 -0.1259  0.3359  0.0403
88380W        W31292  13.247   0.720   7.842  0.0539  0.0425 -0.1586
88381W        W31293  12.529   1.233   9.440  0.0314 -0.1903  0.3298
88382W        W31294  12.843   2.655   7.662  0.1810  0.1451  0.2701
88383W        W31295  13.048   2.119   8.856  0.1209  0.1441 -0.2201
88384W        W31296  11.191   0.398   7.877 -0.0880  0.0285  0.2841
88385W        W31297  14.908   2.007   6.104 -0.0516 -0.0005  0.1540
88386W        W31298  14.080   2.030   9.384  0.1466 -0.0654 -0.1816
88387W        W31299  14.139   2.286   8.919  0.1771 -0.1772 -0.3517
88388W        W31300  14.839   1.580   8.928 -0.0004 -0.3269 -0.0737
88389W        W31301  15.632  32.141   9.642  0.2978 -0.0884  0.1687
88390W        W31302  12.010  34.543   9.151  0.1153  0.1953  0.0804
88391W        W31303  12.085   1.212   9.034  0.0613 -0.1137  0.4049
88392W        W31304  14.605   0.610   9.156  0.2006 -0.1987  0.0879
88393W        W31305  13.373  34.056   9.379  0.2437 -0.1451 -0.1742
88394W        W31306  13.846   0.186   8.116  0.1860 -0.2198  0.1558
88395W        W31307  13.278   3.139  10.017 -0.0451  0.3427  0.0321
88396W        W31308  14.493   1.563   9.427  0.1702  0.2785  0.0631
88397W        W31309  13.976   7.038   1.642  0.3006  0.0679  0.0289
88398W        W31310  13.230   4.306   0.421  0.1889 -0.0253  0.0845
88399W        W31311  15.538   4.586  31.768  0.3534 -0.2915  0.1538
88400W        W31312  13.481   5.419   0.458 -0.0356  0.0841  0.0274
88401W        W31313  11.991   3.450   1.359 -0.0535  0.2819  0.0397
88402W        W31314  14.659   7.221  31.228  0.1650 -0.0437  0.1070
88403W        W31315  12.821   3.184   3.663  0.2427 -0.0227  0.2591
88404W        W31316  15.151   6.441   0.640  0.2270 -0.1190 -0.0219
88405W        W31317  14.149   8.008   1.828  0.0438  0.1438  0.2766
88406W        W31318  13.537   7.088  31.604 -0.1266  0.1502  0.0465
88407W        W31319  12.836   4.296   1.773 -0.4706  0.0882  0.3094
88408W        W31320  13.108   7.384   2.675 -0.1621 -0.0771  0.2987
88409W        W31321  13.364   4.670   0.791  0.0048  0.3784 -0.0844
88410W        W31322  10.530   4.027   2.679 -0.4279  0.0014 -0.0867
88411W        W31323  13.667   5.017   3.781 -0.0904  0.2102 -0.3871
88412W        W31324  10.905   7.250   0.190  0.0643  0.1586 -0.1169
88413W        W31325  12.696   4.845   0.900  0.2700  0.4466 -0.1248
88414W        W31326  11.974   4.909   1.501 -0.0989 -0.1054  0.0954
88415W        W31327  13.997   5.843   1.075  0.1483 -0.0562  0.0637
88416W        W31328  12.972   3.949   2.182  0.0853 -0.3602 -0.1291
88417W        W31329  13.921   4.166   3.278  0.0574 -0.0640  0.2839
88418W        W31330  13.155   7.572   0.306 -0.1642 -0.0571  0.3067
88419W        W31331  11.299   3.851   0.006 -0.2657  0.0257  0.1581
88420W        W31332  10.527   5.575   1.121 -0.0018 -0.2166  0.1058
88421W        W31333  12.679   6.183   1.489  0.0903 -0.0569  0.1976
88422W        W31334  13.192   4.034   2.674  0.0109 -0.0826 -0.2021
88423W        W31335  14.569   4.050   1.721 -0.2245 -0.2557 -0.2371
88424W        W31336  12.589   8.339   0.159  0.1010 -0.0316  0.1020
88425W        W31337  12.756   7.544   1.178 -0.0920  0.1065 -0.2428
88426W        W31338  12.782   5.353   3.505 -0.2285  0.0581  0.1515
88427W        W31339  10.930   5.391   0.902  0.0079 -0.3859  0.1146
88428W        W31340  10.526   6.605   0.942 -0.0762 -0.3350  0.2331
88429W        W31341  11.706   6.419   0.637  0.3615 -0.1006  0.1013
88430W        W31342  14.843   6.101   1.337 -0.0382 -0.0172  0.0643
88431W        W31343  14.986   6.366   1.919 -0.0596  0.0797  0.2724
88432W        W31344  11.829   9.038   4.726  0.3529 -0.0679  0.0933
88433W        W31345  12.530   6.986  31.092 -0.1540  0.0793 -0.0602
88434W        W31346  14.474   7.689   2.018  0.4079  0.0824 -0.3117
88435W        W31347  12.529   8.512   2.682 -0.1171 -0.0379  0.0019
88436W        W31348  12.824   6.477   1.849 -0.1780 -0.2130 -0.2434
88437W        W31349  13.352   5.798   1.629 -0.0092  0.0858 -0.0142
88438W        W31350  13.204   7.057  31.973  0.2847  0.0208  0.0607
88439W        W31351  12.994   7.355   1.707 -0.2175 -0.0144 -0.4874
88440W        W31352  12.522   6.635   2.777 -0.2984  0.2489  0.1865
88441W        W31353  11.284   6.845   0.139 -0.0001 -0.1286 -0.1930
88442W        W31354  14.474   4.268   3.315  0.1186 -0.3218  0.1399
88443W        W31355  12.698   5.874   0.171  0.3338 -0.1406 -0.1435
88444W        W31356  12.294   5.128  31.019 -0.3723  0.3056  0.0262
88445W        W31357  13.390   3.921   0.139 -0.1606  0.1009 -0.3669
88446W        W31358  15.727   5.498   1.417 -0.0491 -0.1713  0.0573
88447W        W31359  12.206   2.061   0.286  0.2397 -0.3853 -0.0463
88448W        W31360  13.274   7.847   0.811 -0.0769 -0.1054 -0.1230
88449W        W31361  12.412   4.573   1.771  0.2331 -0.3270 -0.0047
88450W        W31362  14.849   6.475   3.656  0.0269  0.0010  0.0720
88451W        W31363  12.951   5.098  31.759  0.0272 -0.2337  0.1263
88452W        W31364  13.643   5.421   5.072  0.0790  0.1842 -0.1376
88453W        W31365  11.808   6.542   1.698 -0.0857  0.2663  0.0464
88454W        W31366  10.662   4.835   2.241 -0.0072  0.1125  0.0885
88455W        W31367  14.385   7.219  30.751 -0.3914  0.1232  0.0538
88456W        W31368  15.788   8.031   0.529  0.1565  0.0550 -0.0892
88457W        W31369  13.103   5.805  30.402 -0.0219 -0.1864 -0.0184
88458W        W31370  12.176   4.392   0.017 -0.0692 -0.3977 -0.0512
88459W        W31371  11.807   6.800   3.284  0.1983  0.4464 -0.0398
88460W        W31372  11.735   3.626   2.383 -0.1121 -0.3731  0.2575
88461W        W31373  15.006   3.731  31.011 -0.0771 -0.0983  0.1036
88462W        W31374  13.305   5.747   3.724 -0.2448 -0.2611 -0.1454
88463W        W31375  11.737   5.974   1.860 -0.0215  0.0663 -0.1097
88464W        W31376  15.226   5.186   1.491 -0.3165 -0.1300 -0.1826
88465W        W31377  12.854   5.746   0.631  0.1558  0.2406  0.0593
88466W        W31378  13.771   6.299   2.208  0.0571 -0.0463  0.1069
88467W        W31379  13.827   5.817  31.143 -0.1407  0.1674 -0.2035
88468W        W31380  14.083   4.492   2.100  0.2503 -0.1443  0.0820
88469W        W31381  14.318   3.730   2.693 -0.3684 -0.0204 -0.2975
88470W        W31382  12.785   6.536  30.973 -0.2284 -0.2298 -0.1331
88471W        W31383  14.065   5.678   0.596 -0.2432 -0.0332 -0.1886
88472W        W31384  15.393   7.086   3.595 -0.0672 -0.0243 -0.3707
88473W        W31385  14.255   4.489   0.775  0.1348  0.1021 -0.1224
88474W        W31386  11.195   6.016   1.417 -0.1779  0.2560 -0.1188
88475W        W31387  12.857   6.336   3.152 -0.0887 -0.2940 -0.3036
88476W        W31388  13.426   6.702   3.795  0.0083  0.0799 -0.0228
88477W        W31389  11.689   7.537  30.168 -0.1282  0.1666  0.1305
88478W        W31390  12.173   5.913   1.579 -0.1806  0.0390 -0.3389
88479W        W31391  11.043   7.048  31.634  0.2459  0.0442 -0.0690
88480W        W31392  10.696   4.346   2.353 -0.1636 -0.0462  0.2124
88481W        W31393  13.282   7.503   1.236 -0.0201  0.1280  0.0394
88482W        W31394  15.352   4.139   0.864 -0.1571  0.1808  0.0395
88483W        W31395  11.890   4.283   3.713  0.1107  0.1663 -0.0482
88484W        W31396  14.430   4.207   2.249  0.1752  0.2366 -0.0993
88485W        W31397  11.949   4.383   1.561  0.0454  0.3697 -0.1734
88486W        W31398  15.214   8.095   1.499  0.0241  0.1738 -0.0600
88487W        W31399  15.084   4.395  31.900  0.0783  0.0599  0.1485
88488W        W31400  13.023   5.336   0.194 -0.0089  0.0150 -0.0544
88489W        W31401  11.071   4.686   3.221 -0.0223 -0.3239 -0.0561
88490W        W31402  12.323   5.451   1.476  0.2216 -0.0878  0.4074
88491W        W31403  12.064   2.606   4.149 -0.1103  0.1737  0.3194
88492W        W31404  10.917   3.698   1.326  0.1875 -0.0648  0.0111
88493W        W31405  13.519   7.128   3.475 -0.1273 -0.1321 -0.2276
88494W        W31406  11.666   3.905   0.963 -0.3365 -0.0350 -0.1720
88495W        W31407  14.745   4.784   0.269 -0.0155  0.0296  0.4348
88496W        W31408  11.682   5.232   0.909  0.0610  0.1927  0.0517
88497W        W31409  13.671   6.179  31.432 -0.0947  0.1298 -0.0821
88498W        W31410  13.450   2.685   2.132 -0.0746  0.1821  0.1219
88499W        W31411  14.030   7.203   1.032  0.3243 -0.1530  0.0742
88500W        W31412  14.460   7.037   2.498 -0.1116  0.0001 -0.1563
88501W        W31413  13.968   6.550  31.737 -0.0381 -0.0830  0.3247
88502W        W31414  12.540   3.176   3.028  0.1141  0.0087 -0.0776
88503W        W31415  12.429   3.127  31.402  0.1587  0.3072  0.0631
88504W        W31416  11.548   6.683   1.272  0.3798 -0.2723  0.1051
88505W        W31417  13.596   6.077   1.230  0.0733 -0.0633  0.1203
88506W        W31418  12.416   3.828   0.500 -0.0566 -0.4449 -0.4199
88507W        W31419  14.654   6.780   2.105 -0.2269 -0.1413  0.1025
88508W        W31420  13.805   5.019   1.407 -0.2668 -0.1085 -0.3752
88509W        W31421  11.062   6.504   3.574  0.0904 -0.0330  0.0161
88510W        W31422  13.744   4.513   3.577  0.2048 -0.0433  0.2732
88511W        W31423  14.570   5.921   3.750  0.0046 -0.1417  0.2066
88512W        W31424  15.118   4.512   0.605  0.2178 -0.0678  0.0894
88513W        W31425  13.332   4.786   1.640 -0.0350 -0.1909  0.1454
88514W        W31426  14.021   6.539   1.834  0.0094  0.1352 -0.2134
88515W        W31427  12.800   7.130   0.408  0.4648 -0.3690  0.0425
88516W        W31428  12.100   4.109   0.767 -0.0432  0.2212 -0.1747
88517W        W31429  13.719   6.707   1.390 -0.2923  0.1586  0.0232
88518W        W31430  14.906   4.845   2.227  0.1117  0.0997  0.0717
88519W        W31431  11.277   4.417   2.528 -0.1566  0.3204  0.1273
88520W        W31432  12.906   4.430   2.887  0.0736 -0.1907  0.0570
88521W        W31433  12.746   3.382   0.940 -0.0793 -0.1494 -0.0199
88522W        W31434  12.143   6.498   1.315 -0.0159  0.1590  0.2665
88523W        W31435  15.145   4.123   1.713 -0.4919 -0.1175  0.0735
88524W        W31436  15.195   4.651  31.397  0.1674 -0.1185  0.1198
88525W        W31437  12.469   6.356   2.258  0.0959  0.1075 -0.1846
88526W        W31438  15.701   9.080   1.403 -0.0347  0.2158  0.2992
88527W        W31439  13.198   5.287  31.312 -0.3872 -0.1323 -0.1682
88528W        W31440  14.744   3.458   1.083  0.0074 -0.3127  0.2352
88529W        W31441   9.803   6.080   2.675 -0.1125 -0.3107  0.0662
88530W        W31442  14.532   7.133   0.439  0.0628  0.1865  0.1499
88531W        W31443  12.830   5.608   1.685 -0.0956  0.3493 -0.1155
88532W        W31444  12.852   4.320   0.786 -0.0454  0.1560 -0.0029
88533W        W31445  14.984   6.605   1.084 -0.3066  0.1650  0.3637
88534W        W31446  11.992   5.209   2.032  0.4791 -0.0188  0.0912
88535W        W31447  13.217   6.546   2.828  0.1081 -0.3432  0.2722
88536W        W31448  14.291   6.731   1.359  0.1668 -0.2392 -0.0349
88537W        W31449  13.495   4.374   3.122 -0.2032 -0.2833 -0.1263
88538W        W31450  11.909   4.114  30.281 -0.1679  0.3416  0.3910
88539W        W31451  13.466   5.298   1.623 -0.0290  0.3197 -0.5268
88540W        W31452  12.397   6.631  31.457 -0.0588  0.0843  0.2566
88541W        W31453  14.081   2.988   1.917  0.1052  0.0598  0.0397
88542W        W31454  13.614   4.698   2.222  0.0662  0.3114  0.0275
88543W        W31455  12.581   3.980   2.725  0.0330 -0.3171 -0.1397
88544W        W31456  14.581   5.202   2.707  0.3849  0.1047  0.0135
88545W        W31457  15.256   4.856   0.158  0.1580 -0.0177 -0.2223
88546W        W31458  14.367   6.312   2.283 -0.0624 -0.0670 -0.1161
88547W        W31459  12.150   5.304   0.562 -0.1475  0.1345 -0.2645
88548W        W31460  12.715   4.391   2.434  0.0025  0.0487  0.1331
88549W        W31461  12.687   5.940   1.984  0.1173 -0.0944 -0.0227
88550W        W31462  11.410   6.868   1.766  0.2299 -0.2063  0.1105
88551W        W31463  13.643   6.284   3.021 -0.1865 -0.1046 -0.0738
88552W        W31464  14.482   6.784   0.865 -0.1233  0.3041  0.0164
88553W        W31465  12.050   4.010   1.256  0.0603 -0.0567  0.3562
88554W        W31466  12.825   4.757   2.006 -0.1437  0.0561  0.1541
88555W        W31467  12.217   6.445   0.733  0.2271 -0.0105 -0.0701
88556W        W31468  12.987   6.165   1.067  0.0952  0.2665  0.0721
88557W        W31469  12.788   5.376   2.790 -0.0542 -0.1023  0.2133
88558W        W31470  13.644   6.184   1.755 -0.3450  0.1018 -0.0018
88559W        W31471  11.607   5.222   0.399 -0.0458  0.2188  0.1881
88560W        W31472  13.224   6.045   2.939  0.1202 -0.0653  0.3644
88561W        W31473  13.046   6.682   0.285  0.0140  0.0306 -0.1856
88562W        W31474  14.811   5.477   1.445  0.2590 -0.1262  0.1192
88563W        W31475  11.548   7.374   0.024 -0.0460  0.2394  0.3373
88564W        W31476  12.881   4.543   1.249  0.2199 -0.2942 -0.1442
88565W        W31477  11.734   4.095  31.844  0.1808  0.2485 -0.0853
88566W        W31478  14.278   4.601   0.172 -0.1748 -0.1009 -0.2297
88567W        W31479  14.537   5.959   0.327 -0.1593 -0.1547 -0.5038
88568W        W31480  12.793   3.575   0.051  0.2411 -0.3409 -0.1972
88569W        W31481  12.525   5.392   0.862 -0.2213 -0.4016 -0.0183
88570W        W31482  11.987   7.222   2.162 -0.1244 -0.2883 -0.2617
88571W        W31483  12.197   5.213   2.555 -0.2295 -0.2254 -0.1791
88572W        W31484  15.471   4.367   0.209  0.4487 -0.0481 -0.2470
88573W        W31485  12.653   7.707   2.383  0.0947  0.1324 -0.2057
88574W        W31486  11.547   4.695   2.858  0.0342 -0.0195  0.0146
88575W        W31487  10.983   4.208   0.663  0.2643  0.0185  0.0011
88576W        W31488  15.583   5.315   2.340  0.1741  0.3083  0.0344
88577W        W31489  12.963   5.120   1.721 -0.0991  0.2552  0.0585
88578W        W31490  10.997   8.118   0.323  0.1078  0.3066  0.1744
88579W        W31491  13.425   7.724   1.701  0.2662  0.1458 -0.1611
88580W        W31492  11.798   5.924  31.952  0.2100 -0.2905  0.4310
88581W        W31493  12.219   6.083   1.049 -0.1124 -0.2237  0.1367
88582W        W31494  11.443   4.680   4.101 -0.3629  0.2687 -0.0387
88583W        W31495  13.724   5.374   3.472  0.1639  0.0713 -0.2505
88584W        W31496  12.415   4.882   2.274 -0.1289  0.1188 -0.0568
88585W        W31497  13.175   4.938   1.125  0.2418  0.0848 -0.0465
88586W        W31498  14.050   4.744   2.504  0.1248  0.1893 -0.0285
88587W        W31499  14.984   7.812   1.866 -0.2540  0.1165 -0.0417
88588W        W31500  12.985   5.462   4.007  0.1841 -0.2343  0.3662
88589W        W31501  11.338   7.197   2.559 -0.0546 -0.1991 -0.1487
88590W        W31502  12.152   4.975   0.999  0.0087  0.0431  0.0848
88591W        W31503  14.623   7.722  31.959 -0.1478  0.1062  0.1146
88592W        W31504  13.520   4.746   2.775  0.1681 -0.1334 -0.1708
88593W        W31505  10.693   6.008   1.327  0.3673 -0.1901 -0.0317
88594W        W31506  10.987   5.717   3.053 -0.0266  0.0168 -0.0976
88595W        W31507  12.782   6.755  31.864 -0.0659  0.0990  0.0181
88596W        W31508  13.262   4.744   3.400 -0.2711  0.1522 -0.2011
88597W        W31509  11.914   7.178   2.624 -0.0495  0.2078  0.2082
88598W        W31510  11.775   5.943   0.809  0.0683  0.0615  0.0125
88599W        W31511  11.551   5.679   3.160 -0.1992 -0.0305 -0.1075
88600W        W31512  15.090   3.739   0.726  0.0943  0.0580  0.0774
88601W        W31513  13.338   7.091   0.477 -0.2134 -0.0078 -0.1174
88602W        W31514  11.822   5.477   1.594 -0.1444  0.3398 -0.0544
88603W        W31515  15.007   4.300   3.116 -0.3624 -0.1895 -0.2255
88604W        W31516  14.256   5.618   0.067  0.2685  0.0771  0.2022
88605W        W31517  12.317   4.551   3.839 -0.0488 -0.2073 -0.1343
88606W        W31518  10.990   3.711   1.926  0.0667 -0.2135 -0.0965
88607W        W31519  15.213   6.029   0.953 -0.2053 -0.2148  0.0443
88608W        W31520  11.984   3.930   3.307  0.0758  0.2296  0.0008
88609W        W31521  14.087   7.747   3.234 -0.1265  0.2386  0.0237
88610W        W31522  10.828   5.589   3.774 -0.1309  0.0530 -0.1579
88611W        W31523  14.991   4.623   1.162  0.1385 -0.0979  0.0256
88612W        W31524  13.963   2.913  31.754 -0.2284 -0.1912 -0.0848
88613W        W31525  13.223   5.496   1.185  0.0699 -0.0353 -0.0637
88614W        W31526  14.408   5.880   1.381  0.2281  0.3606 -0.1117
88615W        W31527  13.290   5.793   0.196 -0.1473  0.0267 -0.0131
88616W        W31528  16.296   5.272   2.144 -0.0325 -0.1076 -0.0687
88617W        W31529  12.717   6.962   1.635 -0.3951 -0.0999  0.1209
88618W        W31530  13.430   7.033   1.122 -0.1016  0.4267 -0.1290
88619W        W31531  12.300   5.790   0.602 -0.0659  0.1424 -0.0660
88620W        W31532  12.827   5.248   2.164  0.0754  0.1825 -0.0832
88621W        W31533  13.304   1.907   3.972  0.1408 -0.0599  0.1803
88622W        W31534  14.814   6.763   1.632  0.1908 -0.0361 -0.2376
88623W        W31535  14.018   5.304   1.895  0.0438 -0.2875  0.1659
88624W        W31536  12.769   4.724   3.557  0.0873  0.4492 -0.0501
88625W        W31537  13.494   5.031   4.717 -0.1635 -0.1680  0.3457
88626W        W31538  12.763   4.094   3.975 -0.1045 -0.0666  0.0547
88627W        W31539  11.202   4.409   3.779 -0.0099 -0.3846  0.0632
88628W        W31540  14.078   6.090   3.161  0.2836 -0.2047  0.1241
88629W        W31541  13.563   5.650  31.567 -0.3469 -0.3222  0.1689
88630W        W31542  14.645   4.599   2.604 -0.0165  0.1283 -0.2694
88631W        W31543  14.741   5.857   2.362  0.2346 -0.0389 -0.0986
88632W        W31544  14.174   6.155   0.668 -0.1236  0.0750  0.0640
88633W        W31545  11.200   4.757   1.913 -0.0139  0.0804  0.3374
88634W        W31546  14.543   4.514   1.836 -0.1282  0.0608 -0.1271
88635W        W31547  13.287   3.460   0.021 -0.0123  0.3354  0.1825
88636W        W31548  13.006   3.097   2.843  0.0805  0.0256 -0.1651
88637W        W31549  12.940   6.053  30.838 -0.0505  0.4710 -0.0342
88638W        W31550  13.725   7.588   0.351 -0.2195 -0.3232  0.0797
88639W        W31551  13.337   5.851   0.864  0.0877 -0.3571  0.1625
88640W        W31552  11.357   3.941   1.440 -0.2055  0.0679  0.1218
88641W        W31553  12.190   7.033   3.052  0.0303  0.0755  0.0169
88642W        W31554  11.807   3.204   0.292 -0.0024 -0.0052 -0.3220
88643W        W31555  12.540   4.289   0.360  0.2902  0.0040 -0.2366
88644W        W31556  13.076   6.702   1.356  0.0387 -0.0280 -0.2717
88645W        W31557  13.834   5.028   4.271 -0.4041 -0.1351  0.1923
88646W        W31558  13.609   4.915   0.453 -0.0716  0.3619  0.3010
88647W        W31559  14.184   4.127   3.719  0.0034 -0.3053  0.5090
88648W        W31560  13.000   7.386   0.783 -0.0570 -0.0563 -0.2522
88649W        W31561  13.258   4.397   1.957  0.0434 -0.0062 -0.3827
88650W        W31562  10.937   6.502   1.265  0.0858  0.2291  0.0466
88651W        W31563  12.212   5.220   3.619 -0.4780  0.2301  0.0845
88652W        W31564  12.618   6.560   0.993  0.0480 -0.4157 -0.1220
88653W        W31565  13.963   4.937   3.315  0.3407 -0.0060  0.1904
88654W        W31566  14.833   5.419   2.164 -0.1054 -0.1254 -0.1529
88655W        W31567  14.104   6.040   1.963 -0.5394  0.0716  0.0749
88656W        W31568  14.490   5.714   4.504 -0.5256 -0.0335  0.0288
88657W        W31569  13.012   7.898   1.989  0.3148  0.0105 -0.2170
88658W        W31570  11.977   5.948   3.374  0.4009  0.3876 -0.0557
88659W        W31571  13.239   8.762   1.446  0.0834 -0.0516  0.2482
88660W        W31572  14.052   6.345   2.758  0.0097 -0.2212  0.1733
88661W        W31573  11.356   6.340   1.742 -0.2611  0.2961 -0.3231
88662W        W31574  10.767   4.091   1.543 -0.0319 -0.2066 -0.1650
88663W        W31575  12.807   6.442   3.674 -0.3594  0.0668  0.0083
88664W        W31576  13.430   6.587   0.769 -0.1574  0.4395 -0.0325
88665W        W31577  11.896   3.647   0.527 -0.2378  0.4147  0.3268
88666W        W31578  12.607   6.195   0.623  0.1403  0.2191 -0.2305
88667W        W31579  11.414   7.313   3.627 -0.0702 -0.2454 -0.1056
88668W        W31580  12.047   5.505   4.172 -0.1168  0.0273  0.2099
88669W        W31581  12.200   8.116  31.957  0.2154  0.1193 -0.0191
88670W        W31582  14.468   5.413   0.480 -0.1026  0.1885  0.3389
88671W        W31583  15.385   7.062   0.441 -0.0969  0.3711 -0.0235
88672W        W31584  12.304   7.168   1.311 -0.0337  0.0324 -0.4286
88673W        W31585  13.974   5.371  31.700  0.0948  0.0628  0.1578
88674W        W31586  12.577   6.355   0.124 -0.2609 -0.1096 -0.0450
88675W        W31587  12.249   5.675   0.042  0.0978 -0.1484 -0.2014
88676W        W31588  13.214   7.420  30.677  0.0208 -0.0060 -0.1180
88677W        W31589  12.214   6.915   1.729  0.2088  0.2295  0.1355
88678W        W31590  14.479   6.862   3.597 -0.4491  0.0583 -0.0564
88679W        W31591  14.927   3.942  31.666 -0.0454  0.1154 -0.1432
88680W        W31592  15.764   6.861   1.714 -0.3452 -0.0058  0.1357
88681W        W31593  14.980   5.267   0.491  0.1404 -0.0190 -0.0861
88682W        W31594  13.579   6.796   3.088  0.1358  0.0314  0.3187
88683W        W31595  12.878   6.239   2.556  0.2522  0.0617  0.0631
88684W        W31596  13.710   5.484   0.944  0.2247  0.1007 -0.2011
88685W        W31597  12.017   4.601   2.068 -0.1055 -0.2326 -0.0678
88686W        W31598  15.276   4.776   3.550 -0.1349  0.2778 -0.2989
88687W        W31599  12.180   7.680   2.185 -0.0660  0.1354  0.0454
88688W        W31600  13.712   7.123   0.115 -0.0438  0.0452  0.2187
88689W        W31601  11.701   4.750   0.672 -0.0069 -0.0865  0.3605
88690W        W31602  11.581   5.718   1.203 -0.0496  0.2999 -0.1168
88691W        W31603  15.207   5.099   2.649  0.2644  0.1971 -0.1002
88692W        W31604  12.830   4.603  31.502  0.0193 -0.3789  0.2666
88693W        W31605  13.216   5.551   2.017 -0.0471  0.1747  0.1374
88694W        W31606  13.183   6.138   2.010  0.3838  0.1284 -0.0868
88695W        W31607  12.802   7.302   2.195 -0.0543  0.1362  0.1931
88696W        W31608  12.346   8.406   1.681  0.1984 -0.1502  0.0366
88697W        W31609  10.972   3.213   0.542  0.0579 -0.5221 -0.1718
88698W        W31610  14.034   6.202   1.436  0.2713  0.2514  0.1683
88699W        W31611  12.015   4.683   2.517  0.2079  0.3205 -0.0524
88700W        W31612  12.461   3.644   3.312  0.1742 -0.1445 -0.1808
88701W        W31613  10.891   5.744   1.897  0.1150 -0.0010  0.0047
88702W        W31614  13.809   4.608   1.671 -0.2849  0.1633 -0.3600
88703W        W31615  13.465   6.028   2.453 -0.1997 -0.0039 -0.3085
88704W        W31616  12.195   3.794   2.322 -0.5373  0.3963  0.1300
88705W        W31617  13.240   6.021  31.509 -0.0046  0.1841  0.0328
88706W        W31618  15.710   5.893   2.377 -0.0080  0.3520 -0.2291
88707W        W31619  13.774   3.901   0.463 -0.1597  0.0359  0.0543
88708W        W31620  14.074   6.887   2.825  0.0727  0.2248  0.1851
88709W        W31621  11.091   5.256   1.818  0.2308  0.0247 -0.3568
88710W        W31622  14.184   4.929   0.591  0.2606  0.1372 -0.2178
88711W        W31623  10.986   5.557   1.442 -0.1192 -0.0312 -0.2311
88712W        W31624  11.965   5.875   2.832  0.0579  0.2037  0.1646
88713W        W31625  12.728   7.037   2.981 -0.3604  0.2665  0.1444
88714W        W31626  11.103   4.468   1.198  0.2967  0.0237  0.2084
88715W        W31627  13.048   8.153  31.301 -0.2059 -0.0126  0.0215
88716W        W31628  15.336   4.810   3.059 -0.0416 -0.1999 -0.1220
88717W        W31629  12.166   6.197  31.824 -0.0626 -0.1471  0.0026
88718W        W31630  14.257   4.948   1.701 -0.0342 -0.0299  0.1122
88719W        W31631  13.769   7.440   1.336  0.0530  0.0296  0.1615
88720W        W31632  11.738   4.283   2.441  0.0470  0.1201 -0.1032
88721W        W31633  13.276   7.514   2.139 -0.0942  0.0449 -0.0306
88722W        W31634  14.971   7.069   1.263  0.0100  0.4839 -0.2863
88723W        W31635  12.971   3.497   1.369  0.2072 -0.1358  0.2336
88724W        W31636  13.674   3.483   3.421  0.3723  0.2138 -0.0834
88725W        W31637  12.780   8.002   1.012 -0.2301 -0.1455  0.1768
88726W        W31638  15.412   5.012   1.934 -0.0622  0.1087 -0.2249
88727W        W31639  14.734   5.094   1.830 -0.1003 -0.0221  0.0063
88728W        W31640  12.105   7.705   0.539  0.0216  0.1699 -0.1662
88729W        W31641  13.954   2.722   2.886  0.0081 -0.3903 -0.0663
88730W        W31642  13.705   6.967   2.119  0.2840 -0.0082  0.1220
88731W        W31643  11.645   7.299   5.323 -0.0031 -0.2282  0.0476
88732W        W31644  12.105   4.249  31.469 -0.0929  0.1477 -0.1220
88733W        W31645  12.851   4.910   2.559  0.0128  0.2392  0.1689
88734W        W31646  13.970   6.572   0.904  0.0773 -0.1636  0.0812
88735W        W31647  13.374   8.450   0.305 -0.0873  0.0154 -0.1387
88736W        W31648  14.140   6.729   2.294 -0.0545  0.1934 -0.3392
88737W        W31649  12.636   5.786   1.127  0.1063  0.0608  0.2250
88738W        W31650  16.797   5.984  31.210 -0.1575  0.0130  0.0866
88739W        W31651  12.780   5.274   1.256 -0.0361 -0.0446  0.2809
88740W        W31652  15.533   4.791   1.516  0.0542 -0.0931  0.0492
88741W        W31653  13.026   4.029   1.298 -0.0522  0.0036  0.2285
88742W        W31654  13.360   6.998   2.460 -0.0362  0.2812 -0.4322
88743W        W31655  10.826   5.469  31.896  0.0757  0.1021  0.0664
88744W        W31656   9.601   5.624   0.105  0.3379 -0.2324  0.1993
88745W        W31657  12.436   7.165   2.605 -0.0815 -0.0535  0.0808
88746W        W31658  12.326   3.990   3.725  0.1228 -0.1381 -0.0940
88747W        W31659  11.587   5.182   2.577  0.2432  0.0364  0.0343
88748W        W31660  12.434   5.063   1.790 -0.0581  0.1401  0.4250
88749W        W31661  13.001   4.761   0.393  0.1856  0.2367 -0.0728
88750W        W31662  13.872   6.547   0.382  0.1448  0.2613 -0.3455
88751W        W31663  12.263   3.658   1.836  0.0244 -0.1569 -0.1769
88752W        W31664  10.234   5.239   2.593 -0.1100 -0.0507 -0.3324
88753W        W31665  14.461   6.308   1.666  0.1400 -0.1108 -0.2101
88754W        W31666  13.859   5.721   1.614 -0.3730  0.3831  0.2326
88755W        W31667  12.439   3.761  31.466 -0.4075  0.0346 -0.1122
88756W        W31668  13.235   6.204   4.456 -0.0203 -0.1108  0.0315
88757W        W31669  11.730   4.547   0.199  0.1246 -0.1848 -0.0338
88758W        W31670  13.803   5.499   4.052  0.0382  0.3830  0.2043
88759W        W31671  12.859   3.675   3.602  0.2831  0.4494 -0.1040
88760W        W31672  11.983   4.698  30.684 -0.0563 -0.0576  0.1200
88761W        W31673  13.182   4.508   2.455 -0.1007 -0.0669 -0.1677
88762W        W31674  13.440   7.124   1.707  0.2345  0.1678 -0.0747
88763W        W31675  13.661   7.997  31.543  0.4407 -0.2844  0.0030
88764W        W31676  12.909   5.715   2.415 -0.1143  0.0249  0.0795
88765W        W31677  12.205   7.586   2.683 -0.1966  0.1487 -0.0896
88766W        W31678  12.232   3.564   2.807 -0.0926  0.0187  0.0020
88767W        W31679  13.108   5.633  31.774 -0.0851 -0.0413  0.1060
88768W        W31680  12.692   7.882   3.407 -0.1084 -0.3545 -0.0694
88769W        W31681  15.482   6.574  31.695 -0.1583 -0.3246  0.1076
88770W        W31682  15.973   4.413   2.446 -0.1748  0.0602  0.0020
88771W        W31683  14.177   4.839   1.192  0.3703  0.0820 -0.0562
88772W        W31684  13.019   3.896   3.126  0.1222 -0.0234 -0.0850
88773W        W31685  13.254   5.386   2.601  0.1751 -0.0033  0.2668
88774W        W31686  13.649   5.736   2.858 -0.0080 -0.0621 -0.2302
88775W        W31687  11.101   4.240   2.093 -0.1334  0.0917 -0.1349
88776W        W31688  12.564   4.839   1.390  0.1655  0.0661 -0.2000
88777W        W31689  13.792   6.424  30.937 -0.0552  0.1294 -0.0920
88778W        W31690  12.402   5.664   2.546 -0.1665  0.3662 -0.0943
88779W        W31691  12.485   4.903   0.450 -0.0004 -0.2111  0.1933
88780W        W31692  13.287   6.262   3.423  0.0830  0.0286  0.0430
88781W        W31693  13.421   6.615   1.767 -0.0428 -0.0727  0.0076
88782W        W31694  13.177   6.231   1.527  0.0871  0.3278  0.0077
88783W        W31695  11.913   4.088   0.305 -0.1226  0.2223 -0.2164
88784W        W31696  14.206   7.425   0.226  0.0377  0.0833 -0.0027
88785W        W31697  13.794   7.439   2.015  0.0992 -0.0710 -0.1992
88786W        W31698  14.428   7.540   2.565  0.0380  0.5324 -0.1857
88787W        W31699  13.358   7.788   2.915  0.0821 -0.0514  0.0217
88788W        W31700  14.215   5.416   1.395 -0.3170  0.2233 -0.0919
88789W        W31701  11.772   3.045   1.377 -0.2204 -0.0509 -0.2507
88790W        W31702  11.374   5.648   1.696 -0.1142  0.0509 -0.2834
88791W        W31703  13.628   6.104   0.443 -0.2280  0.0376  0.4610
88792W        W31704  13.639   5.874   3.316 -0.5449  0.0083 -0.1197
88793W        W31705  11.457   5.221   1.372 -0.2045 -0.3187  0.1178
88794W        W31706  14.408   3.572   1.599 -0.1262  0.2175  0.2380
88795W        W31707  13.076   6.932   2.051  0.0685  0.2159  0.2399
88796W        W31708  14.333   5.478   2.373  0.2239  0.0259 -0.1033
88797W        W31709  11.468   6.071   5.674 -0.1456  0.2448 -0.0563
88798W        W31710  11.948   4.933   2.921  0.0577  0.0480 -0.1586
88799W        W31711  13.504   3.897   3.257 -0.2161 -0.3479 -0.2075
88800W        W31712  13.359   4.728   4.401 -0.3400 -0.0390 -0.1236
88801W        W31713  10.594   2.588   5.608 -0.1819  0.1522 -0.4153
88802W        W31714  13.902   8.164   3.506 -0.1487 -0.3161 -0.1771
88803W        W31715  12.159   3.807   5.310  0.0793 -0.1877 -0.3307
88804W        W31716  13.501   8.059   3.854  0.0292 -0.2355 -0.1993
88805W        W31717  13.034   6.542   6.147 -0.0958  0.0369 -0.0048
88806W        W31718  13.190   7.728   4.186 -0.1359  0.0222 -0.0539
88807W        W31719  11.641   4.331   6.431  0.0315  0.0957 -0.0924
88808W        W31720  11.748   8.052   7.030 -0.0947 -0.0488  0.0899
88809W        W31721  10.848   4.030   4.783 -0.0127 -0.3206 -0.3098
88810W        W31722   9.861   4.162   4.284 -0.0993 -0.1977 -0.2371
88811W        W31723  13.723   4.771   5.698  0.0078  0.2105 -0.1891
88812W        W31724  11.786   5.945   5.033  0.1647  0.0065  0.0597
88813W        W31725  12.131   4.080   4.637 -0.0511 -0.3396 -0.3524
88814W        W31726  12.509   5.610   3.803 -0.2377 -0.0882  0.1710
88815W        W31727  12.855   7.184   5.401  0.1350  0.3422  0.0288
88816W        W31728  12.489   4.437   7.024  0.0101 -0.2506 -0.1143
88817W        W31729  12.350   3.882   6.470 -0.0741  0.2036 -0.1155
88818W        W31730  13.070   7.953   4.662  0.1729  0.2577  0.0244
88819W        W31731  11.591   4.993   3.251  0.1944 -0.0514 -0.4071
88820W        W31732  11.225   4.824   5.628 -0.1234 -0.0208 -0.1005
88821W        W31733  11.954   5.217   6.112 -0.0216  0.1079  0.1560
88822W        W31734  14.003   5.199   5.424 -0.2518  0.1811 -0.2178
88823W        W31735  12.552   5.114   4.018  0.3174  0.1074  0.1697
88824W        W31736  12.533   7.368   5.856  0.1668  0.1613 -0.1374
88825W        W31737  12.892   7.540   6.346  0.4802  0.3094 -0.0690
88826W        W31738  13.356   3.911   6.050 -0.1801  0.0522  0.1449
88827W        W31739  10.828   5.385   4.495 -0.1939 -0.0246 -0.2298
88828W        W31740  11.125   7.863   4.736 -0.0203 -0.1829  0.2337
88829W        W31741  12.785   6.001   4.013 -0.0117 -0.1086 -0.1749
88830W        W31742  14.509   5.875   4.984  0.0245 -0.1499 -0.2524
88831W        W31743  13.079   7.067   6.771 -0.2312  0.0742 -0.0549
88832W        W31744  12.148   7.854   6.718  0.3592 -0.0711 -0.2152
88833W        W31745  10.991   7.389   3.927  0.0478  0.3336 -0.2385
88834W        W31746  13.349   5.584   7.074  0.0567  0.0859  0.1356
88835W        W31747  11.658   5.577   6.406 -0.0348  0.0045 -0.1357
88836W        W31748  11.845   4.857   5.692  0.1421  0.0063 -0.0546
88837W        W31749  13.065   5.336   5.149 -0.0734  0.0529 -0.0364
88838W        W31750  12.065   7.208   4.381 -0.0831 -0.0691 -0.0747
88839W        W31751  13.082   6.194   5.491  0.1351 -0.1093  0.2261
88840W        W31752  11.765   5.104   6.560 -0.2511 -0.3724  0.0137
88841W        W31753  10.719   6.164   5.076  0.0593  0.0637 -0.0099
88842W        W31754  15.015   2.774   7.488  0.3791  0.1218  0.0349
88843W        W31755  12.123   6.729   2.476  0.0306  0.1325  0.1924
88844W        W31756  13.907   3.723   4.686  0.0820 -0.0001  0.0812
88845W        W31757  12.746   4.641   4.092 -0.1065 -0.0817 -0.0304
88846W        W31758  13.205   4.136   4.293  0.1767  0.1644 -0.0014
88847W        W31759  12.035   2.855   3.106  0.1705 -0.2085 -0.2062
88848W        W31760  12.516   7.376   5.036  0.1328 -0.4010  0.1623
88849W        W31761  12.175   5.119   5.174  0.0754  0.0778  0.1455
88850W        W31762  13.486   5.803   5.674  0.0863  0.2536  0.0866
88851W        W31763  12.907   6.522   4.630  0.0274  0.0515 -0.1799
88852W        W31764  13.989   5.009   4.909  0.1574  0.2543  0.0299
88853W        W31765  12.245   5.938   6.894 -0.1925 -0.0091  0.3495
88854W        W31766  11.021   5.818   5.193 -0.3039 -0.0227 -0.0407
88855W        W31767  13.775   8.309   3.032  0.1052  0.2669 -0.1248
88856W        W31768  12.659   6.413   5.103  0.0458  0.2782 -0.0592
88857W        W31769  14.228   5.615   2.898 -0.1341 -0.0104 -0.1008
88858W        W31770  11.948   6.807   5.372  0.4568  0.0401 -0.2019
88859W        W31771  11.438   6.031   8.374 -0.1703 -0.0691  0.1002
88860W        W31772  11.265   5.453   4.852  0.0566  0.0731 -0.0695
88861W        W31773  11.440   2.487   2.889 -0.1290 -0.1803  0.1469
88862W        W31774  14.607   6.494   5.867 -0.2147  0.1861 -0.1494
88863W        W31775  12.051   6.482   5.708 -0.0082 -0.0106  0.2092
88864W        W31776  15.490   3.784   4.046  0.1310  0.2575 -0.2509
88865W        W31777  12.244   6.127   5.120  0.0211  0.1608 -0.1803
88866W        W31778  13.871   7.404   5.407 -0.0136  0.3341 -0.1197
88867W        W31779  13.093   7.294   3.243 -0.1493  0.3047 -0.1279
88868W        W31780  14.118   3.281   4.655  0.1863 -0.0961  0.0889
88869W        W31781  13.137   3.094   5.493 -0.1178 -0.5046 -0.1119
88870W        W31782  11.014   7.028   3.588 -0.2163  0.0739  0.1211
88871W        W31783  12.488   7.300   3.412  0.1975  0.2411  0.2334
88872W        W31784  12.874   7.552   7.224  0.0345 -0.0464  0.2570
88873W        W31785  13.221   4.860   5.517  0.1117  0.2113 -0.3904
88874W        W31786  12.459   6.581   5.982 -0.0756 -0.1446 -0.2622
88875W        W31787  12.352   4.866   6.128  0.2080  0.1530 -0.4449
88876W        W31788  12.274   6.083   5.983  0.2587  0.3056  0.0366
88877W        W31789  10.631   7.029   4.001  0.0332  0.1159 -0.1166
88878W        W31790   9.575   4.887   4.929 -0.0920  0.2507 -0.1181
88879W        W31791  12.080   6.467   3.639 -0.0519 -0.2912  0.0795
88880W        W31792  10.769   4.729   5.285  0.0390  0.2793  0.0814
88881W        W31793  12.471   6.266   5.553  0.1433 -0.0501  0.1301
88882W        W31794  14.395   6.218   4.622 -0.1911  0.0342  0.0595
88883W        W31795  11.889   3.287   5.413 -0.0373  0.0799  0.2407
88884W        W31796  15.465   4.079   5.585  0.0422  0.2752  0.1204
88885W        W31797  11.632   6.019   4.370  0.0715 -0.0956 -0.1582
88886W        W31798  12.774   7.552   3.780  0.4340 -0.1986 -0.0820
88887W        W31799  12.462   4.859   4.464  0.1295  0.3075  0.1439
88888W        W31800  12.360   7.273   4.027 -0.1163 -0.0616 -0.2301
88889W        W31801  12.311   5.131   6.505 -0.0457 -0.1266 -0.1278
88890W        W31802  10.910   5.238   5.255  0.0467  0.1713 -0.2336
88891W        W31803  11.736   5.162   7.064  0.1083 -0.1379 -0.1338
88892W        W31804  11.529   3.466   5.138  0.0622  0.2018  0.0172
88893W        W31805  12.766   4.342   6.533  0.1500 -0.0262  0.0950
88894W        W31806  13.884   2.395   4.667 -0.1764 -0.0360 -0.4718
88895W        W31807  13.837   4.561   4.445 -0.1558  0.3461 -0.0037
88896W        W31808  12.394   6.338   6.445 -0.0135 -0.2923 -0.0140
88897W        W31809  11.715   4.958   4.764  0.1300 -0.0160  0.1819
88898W        W31810  14.143   2.800   7.856 -0.0314  0.3099  0.5974
88899W        W31811  14.032   7.489   4.322  0.0846  0.0393 -0.0152
88900W        W31812  12.935   6.783   7.756 -0.1086 -0.1375  0.1884
88901W        W31813  14.908   7.181   5.733  0.3171  0.0433  0.0945
88902W        W31814  11.898   3.734   4.901 -0.0266  0.0410  0.5186
88903W        W31815  12.080   6.208   4.574  0.0777  0.2033 -0.1337
88904W        W31816  11.711   7.157   5.759 -0.3147 -0.1874  0.1761
88905W        W31817  12.302   7.233   5.469 -0.2625  0.0586  0.2632
88906W        W31818  12.697   4.023   4.570  0.0223 -0.1291 -0.0559
88907W        W31819  13.320   7.295   5.449  0.4490  0.0297 -0.1515
88908W        W31820  12.464   6.748   4.001  0.3267  0.1505  0.1686
88909W        W31821  11.828   6.248   6.121 -0.0086  0.3480 -0.1375
88910W        W31822  13.152   4.750   4.973 -0.1913  0.1214  0.0970
88911W        W31823  14.206   4.428   5.799  0.1476 -0.1340 -0.0243
88912W        W31824  12.148   5.185   4.694  0.1425  0.1613 -0.2845
88913W        W31825  11.446   3.880   3.536 -0.1139  0.3106  0.1261
88914W        W31826  13.663   8.525   3.861 -0.4389  0.1836 -0.2999
88915W        W31827  11.115   6.948   4.157 -0.0643 -0.2579  0.0046
88916W        W31828  10.281   4.030   4.742  0.0100 -0.0195 -0.0436
88917W        W31829  12.053   7.150   4.907 -0.1728 -0.1704 -0.0473
88918W        W31830  13.491   3.898   5.524  0.2920 -0.1583 -0.0070
88919W        W31831  11.283   5.993   7.335  0.0497 -0.1272 -0.0003
88920W        W31832  13.895   3.752   7.669 -0.0839  0.0807 -0.0146
88921W        W31833  11.971   5.562   2.348  0.0836 -0.0845  0.3100
88922W        W31834  10.910   7.069   7.815  0.0544  0.1856 -0.0226
88923W        W31835  13.190   4.781   3.933  0.0519 -0.0705  0.2473
88924W        W31836  14.635   3.968   4.024  0.4550  0.2251 -0.0511
88925W        W31837  13.729   5.045   7.280 -0.1191 -0.1190 -0.2434
88926W        W31838  15.403   6.213   4.818 -0.1286  0.1407  0.1098
88927W        W31839  12.959   5.075   4.358  0.0205 -0.1506 -0.1318
88928W        W31840  13.231   5.218   3.636  0.0371  0.0221  0.1552
88929W        W31841  11.355   6.431   7.694 -0.0099  0.0798  0.0019
88930W        W31842  13.599   7.712   3.419  0.0047 -0.4749  0.1227
88931W        W31843  12.368   5.773   5.557 -0.0546 -0.0335 -0.0217
88932W        W31844  12.014   5.440   3.037  0.0099 -0.0905 -0.1541
88933W        W31845  14.856   7.344   3.543 -0.1191  0.2216 -0.1351
88934W        W31846  10.249   6.381   5.204 -0.1737 -0.1285  0.0375
88935W        W31847  14.139   6.256   8.183 -0.0617 -0.0886  0.1033
88936W        W31848  13.683   6.946   5.440 -0.2859  0.1471  0.2977
88937W        W31849  12.646   3.802   5.438  0.1486  0.1804  0.0757
88938W        W31850  12.026   4.364   2.956 -0.2627 -0.0548  0.1214
88939W        W31851  12.048   4.466   5.908  0.3001 -0.2168  0.2091
88940W        W31852  11.538   7.737   4.315 -0.0181 -0.1418 -0.0527
88941W        W31853  13.125   3.662   5.340  0.0295 -0.1875 -0.0051
88942W        W31854  13.537   4.033   7.400  0.0539 -0.4321 -0.0281
88943W        W31855  13.174   3.676   4.463  0.1836 -0.0612 -0.0379
88944W        W31856  13.403   4.661   7.037  0.0397 -0.0575 -0.0405
88945W        W31857  14.038   5.848   4.431  0.0275  0.1815  0.2578
88946W        W31858  13.367   4.762   6.028 -0.1519  0.3041  0.0266
88947W        W31859  11.611   4.485   3.357  0.1116 -0.0637 -0.1246
88948W        W31860  12.835   3.921   6.732 -0.0186  0.2243  0.2182
88949W        W31861  12.341   5.254   5.799  0.2702  0.0489  0.0455
88950W        W31862  10.718   7.093   4.485  0.0062  0.2479 -0.2798
88951W        W31863  13.756   5.980   6.760  0.1308  0.5189 -0.2461
88952W        W31864  14.361   5.593   5.379  0.2726 -0.1531  0.2529
88953W        W31865  14.293   4.552   8.252 -0.0879 -0.1592  0.1099
88954W        W31866  12.819   4.407   5.236 -0.1601 -0.0046  0.0507
88955W        W31867  12.258   7.731   3.188 -0.0001 -0.0409 -0.1416
88956W        W31868  13.133   6.752   3.313  0.2227  0.0265  0.0946
88957W        W31869  12.444   2.976   4.224 -0.1490  0.2209 -0.1609
88958W        W31870  12.818   7.006   5.969  0.0531 -0.0048  0.0472
88959W        W31871  13.184   7.754   3.702 -0.2573  0.1622 -0.1250
88960W        W31872  12.972   6.545   7.191 -0.0189 -0.0075 -0.1536
88961W        W31873  11.497   6.527   4.254 -0.1178  0.2476 -0.0212
88962W        W31874  14.058   3.913   5.756  0.1566  0.1641  0.0734
88963W        W31875  10.171   8.372   3.892  0.1468  0.3711  0.3064
88964W        W31876  13.163   5.647   3.187 -0.1012 -0.0394 -0.1443
88965W        W31877  11.096   4.310   4.321  0.0556 -0.0975  0.1667
88966W        W31878  14.183   3.242   4.127  0.2115 -0.1321 -0.2499
88967W        W31879  13.059   7.008   4.637 -0.0406 -0.2710  0.1744
88968W        W31880  11.456   1.867   4.843  0.1989  0.0358 -0.1799
88969W        W31881  12.338   5.928   4.254 -0.1499 -0.0735  0.1089
88970W        W31882  10.362   7.566   6.111 -0.0628  0.3649  0.0736
88971W        W31883  13.519   5.595   6.510  0.0619  0.2273  0.0656
88972W        W31884  12.874   4.479   4.527  0.0927  0.0331  0.0725
88973W        W31885  13.453   7.049   4.975 -0.0358  0.0053 -0.1359
88974W        W31886  13.185   5.207   7.471 -0.2322 -0.1040 -0.0050
88975W        W31887  11.469   4.023   4.029 -0.2011 -0.1153  0.2458
88976W        W31888  15.330   4.250   7.032 -0.2069 -0.2499  0.0368
88977W        W31889  11.782   5.476   5.037  0.1244  0.0942 -0.2194
88978W        W31890  11.942   6.850   4.078 -0.1145  0.2468  0.2721
88979W        W31891  12.448   6.765   5.405  0.1545 -0.0355  0.0008
88980W        W31892  11.514   4.031   4.572  0.1962  0.1798  0.1417
88981W        W31893  11.215   5.959   3.496 -0.0230  0.3750  0.2386
88982W        W31894  11.570   4.798   6.069 -0.0557 -0.0170  0.1263
88983W        W31895  13.146   5.792   6.181 -0.0604  0.1906 -0.0861
88984W        W31896  12.370   6.083   3.722  0.2562  0.0703 -0.0512
88985W        W31897  11.441   4.543   4.686 -0.1047  0.1632 -0.0379
88986W        W31898  12.531   5.992   4.765 -0.2486 -0.0398 -0.0138
88987W        W31899  13.050   6.144   4.896  0.1152  0.1830  0.2440
88988W        W31900  12.776   4.829   6.698  0.1937 -0.0067 -0.1688
88989W        W31901  11.556   6.568   6.401 -0.0444  0.2113  0.0459
88990W        W31902  11.902   1.674   5.762  0.0874  0.1575 -0.0296
88991W        W31903  15.111   8.162   4.060  0.0207  0.0557 -0.2004
88992W        W31904  13.178   5.072   6.482 -0.1591 -0.2420  0.0220
88993W        W31905  12.423   6.164   3.230 -0.1773  0.0780  0.0413
88994W        W31906  10.634   5.145   5.742  0.1532  0.6250 -0.1911
88995W        W31907  12.343   4.650   5.025 -0.2786  0.0576 -0.0569
88996W        W31908  11.276   3.969   5.047  0.2068  0.1949  0.1321
88997W        W31909  11.186   6.414   5.071 -0.0615  0.2191 -0.1033
88998W        W31910  12.430   4.399   3.342  0.0332 -0.1342 -0.3279
88999W        W31911  10.915   6.781   5.286  0.0914  0.1272 -0.0259
89000W        W31912  13.221   3.770   3.952 -0.4316  0.2601 -0.4339
89001W        W31913  12.323   8.177   3.804 -0.0271  0.4293  0.0517
89002W        W31914  12.487   4.120   5.062  0.1325  0.2785 -0.0832
89003W        W31915  13.825   3.807   6.509 -0.0278  0.0512 -0.0851
89004W        W31916  13.682   5.465   4.591  0.0441  0.1795  0.2635
89005W        W31917  13.286   3.745   8.291  0.0483  0.4623  0.2346
89006W        W31918  12.013   2.371   5.433 -0.2909 -0.1231  0.1602
89007W        W31919  14.097   6.645   4.067  0.4913  0.2773  0.1497
89008W        W31920  11.519   5.048   5.258  0.3955  0.0864 -0.0186
89009W        W31921  13.913   6.021   7.297  0.1130 -0.0162 -0.1399
89010W        W31922  11.380   6.275   6.809 -0.0172  0.1183  0.2855
89011W        W31923  12.634   5.345   5.381 -0.2970  0.2373  0.2511
89012W        W31924  13.760   2.272   4.174 -0.0882 -0.0127 -0.0765
89013W        W31925  12.028   3.971   5.763 -0.1791 -0.0425 -0.0234
89014W        W31926  13.877   5.806   5.368 -0.5144 -0.1557  0.2103
89015W        W31927  12.745   4.877   5.271 -0.1536 -0.0337  0.0279
89016W        W31928  12.333   4.806   5.527 -0.3434  0.2231  0.1344
89017W        W31929  11.290   4.742   6.453  0.2936 -0.1337  0.0608
89018W        W31930  13.017   6.694   4.060 -0.0763 -0.0389 -0.0013
89019W        W31931  13.770   7.081   3.908 -0.4267  0.0556 -0.2072
89020W        W31932  11.643   6.426   4.716  0.1129  0.0713  0.0134
89021W        W31933  13.091   4.336   6.072 -0.0686 -0.4736  0.1790
89022W        W31934  13.795   6.721   4.995  0.1409 -0.1283 -0.0722
89023W        W31935  13.008   3.936   4.894 -0.0081 -0.1451  0.1059
89024W        W31936  12.696   3.724   7.172  0.2987 -0.1396  0.1665
89025W        W31937  12.853   5.101   5.752  0.3198  0.0004  0.1320
89026W        W31938  12.727   5.273   6.318  0.0794 -0.3790  0.2659
89027W        W31939  11.574   5.292   5.810  0.0524  0.1260 -0.1475
89028W        W31940  13.242   8.148   7.374 -0.1369  0.2478 -0.3180
89029W        W31941  14.198   5.275   4.547 -0.0370  0.2546  0.0229
89030W        W31942  14.051   3.363   5.192 -0.0006 -0.1034  0.2309
89031W        W31943  14.963   6.108   4.999  0.0780 -0.0560 -0.0610
89032W        W31944  13.218   6.260   3.960  0.1558  0.2205 -0.2108
89033W        W31945  11.234   4.948   4.905 -0.1597  0.0318 -0.1679
89034W        W31946  13.021   5.144   7.033  0.2440  0.0806 -0.0961
89035W        W31947  12.381   5.636   3.317  0.0039 -0.2590 -0.2010
89036W        W31948  13.845   4.358   5.472  0.0457  0.1969  0.1491
89037W        W31949  11.615   9.430   3.060 -0.0601 -0.0052  0.1590
89038W        W31950  12.673   6.920   4.951  0.0020 -0.0297 -0.0983
89039W        W31951  14.045   6.174   4.984 -0.3175 -0.1680  0.0900
89040W        W31952  11.944   3.497   5.884 -0.1823  0.3496  0.1404
89041W        W31953  12.014   6.401   7.535  0.2079  0.0305 -0.1445
89042W        W31954  12.430   4.632   2.932 -0.0575 -0.1257  0.1888
89043W        W31955  12.852   7.205   4.140 -0.0133  0.1916 -0.0858
89044W        W31956  13.353   7.330   7.077 -0.1306 -0.1216  0.0297
89045W        W31957  14.402   5.423   6.754 -0.0116 -0.0914 -0.2843
89046W        W31958  13.395   2.747   4.171 -0.1544 -0.1865  0.1600
89047W        W31959  13.695   4.753   6.612 -0.2835 -0.2554  0.0860
89048W        W31960  11.772   5.378   3.523 -0.0058 -0.3436 -0.1420
89049W        W31961  12.855   4.604   5.697  0.0673 -0.0482 -0.2460
89050W        W31962  11.942   6.005   5.517  0.2653 -0.5166  0.0808
89051W        W31963  12.278   6.883   6.705 -0.2022 -0.3493 -0.0258
89052W        W31964  12.585   6.342   4.287 -0.0267  0.2290 -0.2808
89053W        W31965  13.613   1.169   6.989  0.3198  0.1051 -0.1104
89054W        W31966  14.070   5.606   4.875 -0.2511 -0.1776  0.0464
89055W        W31967  13.431   6.205   6.436 -0.1398 -0.2792  0.3029
89056W        W31968  14.156   3.361   6.430 -0.2944 -0.0464 -0.0700
89057W        W31969  12.674   5.855   6.486 -0.2248 -0.0014  0.1334
89058W        W31970  10.708   5.029   4.876 -0.3471  0.1227 -0.1134
89059W        W31971  12.997   7.081   7.275  0.0173 -0.4520 -0.2464
89060W        W31972  15.381   5.741   5.035 -0.0779  0.2749 -0.0527
89061W        W31973  11.981   7.583   5.639  0.1387 -0.0121  0.1223
89062W        W31974  11.917   3.934   6.233 -0.2229  0.0051  0.1223
89063W        W31975  12.887   5.629   7.154 -0.2899 -0.0935 -0.2230
89064W        W31976  13.464   5.308   5.512  0.1134  0.2007  0.1662
89065W        W31977  11.577   2.991   2.956  0.0055  0.3177 -0.0719
89066W        W31978  11.879   7.315   3.373 -0.2432 -0.0417 -0.1930
89067W        W31979  11.268   6.299   6.042  0.1982 -0.1082  0.2152
89068W        W31980  10.893   6.009   5.889  0.1469  0.1245 -0.1406
89069W        W31981  11.145   7.441   4.429 -0.3166 -0.1294 -0.0438
89070W        W31982  13.401   7.085   4.225  0.2318 -0.1994 -0.0667
89071W        W31983  11.572   7.855   5.028  0.0104  0.4078  0.2220
89072W        W31984  12.547   7.712   5.413 -0.0898 -0.2858  0.3695
89073W        W31985  12.550   5.449   4.386  0.1081 -0.2017 -0.1021
89074W        W31986  10.419   7.426   3.884 -0.0115 -0.4208 -0.0489
89075W        W31987  11.502   6.819   3.816 -0.5047 -0.2162  0.1023
89076W        W31988  12.515   7.127   4.524  0.0135  0.2184 -0.2619
89077W        W31989  11.202   7.018   4.648 -0.0108 -0.0794 -0.1578
89078W        W31990  14.594   5.008   5.381 -0.1579  0.0739 -0.2599
89079W        W31991  13.142   4.294   3.762 -0.2664  0.2274 -0.0735
89080W        W31992  14.673   5.117   6.385 -0.2098  0.0686  0.1645
89081W        W31993  15.089   2.403   3.540 -0.0961  0.1152 -0.0060
89082W        W31994  12.701   6.094   7.635 -0.1981  0.0785 -0.2456
89083W        W31995  12.374   4.309   6.229 -0.1826 -0.0424 -0.0755
89084W        W31996  11.612   3.578   4.384  0.1737 -0.0894  0.1287
89085W        W31997  12.380   6.418   7.054  0.1160 -0.0347  0.3154
89086W        W31998  14.526   3.646   7.103 -0.0310  0.1623 -0.2310
89087W        W31999  10.556   7.651   7.621 -0.0612  0.0252 -0.1677
89088W        W32000  14.195   8.688   2.964 -0.1026  0.0418 -0.0824
89089W        W32001  11.795   4.940   3.810  0.1161 -0.4583  0.2232
89090W        W32002  12.808   6.139   5.925 -0.0788  0.2741  0.0025
89091W        W32003  14.635   2.340   6.301 -0.0607 -0.2991  0.0233
89092W        W32004  12.882   6.860   2.509  0.0457 -0.2789  0.0001
89093W        W32005  12.845   4.826   6.176 -0.1028 -0.0803  0.3596
89094W        W32006  11.050   7.876   4.213  0.0019  0.1236 -0.4680
89095W        W32007  12.860   6.594   5.665 -0.2325 -0.0281  0.3063
89096W        W32008  12.644   7.226   6.706  0.3330  0.3057  0.0096
89097W        W32009  11.790   4.339   4.317  0.2785 -0.5157 -0.0484
89098W        W32010  14.160   4.174   4.219  0.0089 -0.0769  0.2079
89099W        W32011  11.971   5.480   5.518  0.1349  0.1280  0.1745
89100W        W32012  15.032   1.359   5.754  0.0754 -0.1471  0.1618
89101W        W32013  12.151   6.608   4.912 -0.0938 -0.1602  0.0830
89102W        W32014  12.878   5.864   4.491  0.0136 -0.0857 -0.0368
89103W        W32015  12.789   6.361   6.746 -0.1638 -0.1646 -0.1846
89104W        W32016  11.554   4.459   5.699 -0.0447 -0.0595  0.4012
89105W        W32017  13.727   7.322   3.042  0.2133  0.1987 -0.1233
89106W        W32018  13.574   4.264   5.861 -0.0113  0.1914  0.5144
89107W        W32019  12.169   6.979   3.617  0.0944 -0.1298 -0.3208
89108W        W32020  13.801   7.551   6.890  0.2532 -0.3653 -0.3252
89109W        W32021  12.028   3.084   4.520 -0.1608  0.3457 -0.1047
89110W        W32022  12.814   5.867   3.514  0.2805 -0.0742 -0.1391
89111W        W32023  11.482   5.602   3.862 -0.1526 -0.3425  0.0139
89112W        W32024  13.331   6.221   5.893  0.0602 -0.1428 -0.3847
89113W        W32025  13.746   5.828   6.123  0.1722 -0.1419 -0.1531
89114W        W32026  11.516   2.380   5.537 -0.2039 -0.0080  0.2567
89115W        W32027  15.280   5.298   4.025  0.1649  0.0096  0.3205
89116W        W32028  14.062   4.414   6.639  0.0139 -0.1460 -0.4530
89117W        W32029  12.404   9.283   3.622  0.1588 -0.0152  0.0640
89118W        W32030  13.750   6.033   4.076  0.1490  0.0470  0.0914
89119W        W32031  14.131   7.935   6.787 -0.0147  0.1039  0.2545
89120W        W32032  11.196   4.402   6.042 -0.1618  0.0518 -0.1701
89121W        W32033  13.272   6.606   6.690  0.0497  0.0948 -0.0224
89122W        W32034  14.921   6.435   4.640  0.5140 -0.1998 -0.2330
89123W        W32035  12.332   2.640   4.624 -0.0023 -0.0086 -0.5231
89124W        W32036  12.431   5.085   3.125  0.0123  0.3895 -0.2412
89125W        W32037  11.580   6.277   3.661 -0.0020 -0.0784  0.2192
89126W        W32038  13.356   4.315   5.278 -0.0380 -0.0544  0.2598
89127W        W32039  15.080   4.309   6.132  0.0177  0.1890 -0.2448
89128W        W32040  13.601   7.571   3.930 -0.0881  0.4326 -0.1681
89129W        W32041  14.156   2.969   6.956  0.0513  0.0396  0.0617
89130W        W32042  13.248   7.814   6.980  0.1687  0.0840  0.1421
89131W        W32043  12.144   5.709   6.357 -0.2651 -0.0112 -0.3627
89132W        W32044  11.532   3.860   1.900 -0.2461  0.2124  0.1909
89133W        W32045  11.356   5.227   6.248 -0.1496  0.1910 -0.0897
89134W        W32046  12.256   6.688   4.442 -0.1563 -0.0850 -0.2249
89135W        W32047  12.006   8.060   5.469 -0.1523  0.1395  0.1531
89136W        W32048  13.568   6.487   5.569  0.1208 -0.4225 -0.1398
89137W        W32049  11.899   4.661   5.186 -0.0846  0.3912  0.3429
89138W        W32050  14.598   6.613   4.160 -0.2364  0.1335  0.2269
89139W        W32051  11.879   3.323   4.065 -0.0815  0.1370  0.1003
89140W        W32052  14.360   3.700   4.401  0.1370  0.2359 -0.3684
89141W        W32053  13.109   3.394   4.910 -0.2280 -0.1906  0.1392
89142W        W32054  11.462   6.005   6.391  0.0198  0.2533  0.0029
89143W        W32055  12.347   5.563   1.973  0.2998  0.2053  0.0531
89144W        W32056  11.456   7.185   3.062 -0.1237  0.1567  0.0220
89145W        W32057  11.087   6.304   5.482 -0.0592 -0.0621  0.0810
89146W        W32058  13.035   3.321   6.876  0.0541 -0.3089 -0.1010
89147W        W32059  12.532   3.626   4.956  0.0239  0.3535  0.1247
89148W        W32060  10.066   5.775   5.933 -0.1182 -0.1111  0.0016
89149W        W32061  11.896   4.846   4.260 -0.2507  0.1689 -0.3318
89150W        W32062  14.761   6.963   4.395 -0.2728  0.0468  0.3413
89151W        W32063  11.302   2.800   4.940  0.0434 -0.5337  0.3051
89152W        W32064  11.604   2.853   5.342 -0.1791  0.2277  0.0769
89153W        W32065  12.824   7.492   4.570 -0.0413 -0.0382  0.1054
89154W        W32066  15.358   6.162   4.194  0.0107 -0.0768  0.1723
89155W        W32067  13.473   3.743   4.916  0.1159  0.0715 -0.1432
89156W        W32068  15.630   6.337   5.746 -0.2791  0.2905  0.1274
89157W        W32069  11.834   5.921   3.926  0.1234  0.0067 -0.4168
89158W        W32070  13.067   4.222   7.117  0.0818  0.1263  0.0939
89159W        W32071  11.859   3.710   6.666 -0.1284 -0.5418 -0.3805
89160W        W32072  12.760   3.323   4.529 -0.1086 -0.1172 -0.4194
89161W        W32073  11.751   4.244   4.918 -0.0111 -0.0839  0.1189
89162W        W32074  13.991   7.185   4.925 -0.1735  0.2978  0.2241
89163W        W32075  14.298   5.607   4.065 -0.3945  0.0205  0.2393
89164W        W32076  14.187   5.838   6.560  0.2704 -0.0062 -0.1678
89165W        W32077  12.140   6.809   7.256  0.0954 -0.2334  0.2367
89166W        W32078  10.949   2.667   7.094 -0.1458  0.3428  0.3742
89167W        W32079  14.989   6.930   3.811 -0.2455  0.0363 -0.1061
89168W        W32080  12.161   6.973   5.845 -0.3669 -0.0632  0.1639
89169W        W32081  14.139   5.171   3.829  0.2729 -0.1598 -0.2329
89170W        W32082  13.041   4.068   5.676  0.2481  0.1848  0.0233
89171W        W32083  13.034   5.614   5.687  0.5046  0.0416  0.1222
89172W        W32084  11.594   3.194   6.664 -0.1166  0.2067  0.0609
89173W        W32085  11.909   6.321   6.701  0.3141 -0.1111  0.1100
89174W        W32086  14.229   5.370   6.216  0.3112 -0.2756 -0.0572
89175W        W32087  12.254   3.186   4.982 -0.2327 -0.3085 -0.0674
89176W        W32088  13.302   4.305   4.783  0.0726 -0.0645 -0.0514
89177W        W32089  13.534   6.257   5.142  0.0676 -0.1325 -0.1643
89178W        W32090  11.885   5.719   5.955 -0.2495 -0.4028  0.1688
89179W        W32091  13.280   5.727   5.203  0.0662 -0.4075  0.0209
89180W        W32092  11.351   5.270   6.768 -0.2563  0.0931 -0.0622
89181W        W32093  13.181   6.622   5.196 -0.2056  0.2508 -0.0157
89182W        W32094  13.938   5.567   5.780 -0.2562  0.0392 -0.1860
89183W        W32095  12.756   5.873   2.956  0.3729 -0.4414  0.3298
89184W        W32096  14.830   6.173   4.168  0.1325 -0.3081  0.0176
89185W        W32097  12.558   6.586   7.515 -0.1545  0.1317 -0.1045
89186W        W32098  14.162   6.950   6.788 -0.0534 -0.0206 -0.0033
89187W        W32099  12.306   7.857   7.223  0.3109  0.1963  0.0939
89188W        W32100  13.553   6.701   6.223  0.0857  0.2160 -0.0559
89189W        W32101  11.186   3.067   6.243  0.1326 -0.1940 -0.4482
89190W        W32102  12.812   6.994   3.630  0.1761 -0.0976 -0.0231
89191W        W32103  10.698   5.831   4.681 -0.2855 -0.3848  0.0374
89192W        W32104  14.171   4.730   5.408 -0.2919 -0.2353 -0.1325
89193W        W32105  11.628   3.150   4.762  0.0245 -0.1093  0.2038
89194W        W32106  13.539   3.395   5.248  0.0000 -0.3422 -0.1725
89195W        W32107  11.283   7.908   6.048  0.0113 -0.2019  0.1588
89196W        W32108  13.249   5.328   6.008  0.0554  0.2250 -0.0665
89197W        W32109  10.636   7.249   9.334  0.4247 -0.1522 -0.1552
89198W        W32110  11.771   2.696   8.298  0.1983  0.1253 -0.0621
89199W        W32111  14.829   2.463   9.137  0.7192 -0.2195 -0.0762
89200W        W32112  13.022   5.413   8.350 -0.0367  0.2239 -0.1362
89201W        W32113  11.646   3.565   7.812  0.2885  0.2098 -0.0683
89202W        W32114  13.049   7.491   8.401 -0.0483 -0.1793  0.0069
89203W        W32115  12.661   7.566   9.988 -0.0425 -0.3032 -0.1815
89204W        W32116  13.312   4.453  10.123 -0.3245  0.1253 -0.0670
89205W        W32117  13.921   5.300   6.611 -0.1082  0.0728  0.0752
89206W        W32118  13.808   1.699   8.815 -0.1357 -0.4581  0.1652
89207W        W32119  12.774   4.293   7.541 -0.0091  0.2268  0.1568
89208W        W32120   9.234   3.018   8.724  0.1047 -0.1490  0.0054
89209W        W32121  11.637   8.401   9.230 -0.2277 -0.0742 -0.1192
89210W        W32122  12.306   4.224   7.450 -0.0388 -0.0217 -0.1621
89211W        W32123  12.111   3.724   9.145 -0.1675 -0.0976 -0.1039
89212W        W32124  12.739   4.271   8.439 -0.0107  0.1397 -0.0363
89213W        W32125  14.222   8.322   7.822 -0.0955 -0.0414  0.0316
89214W        W32126  13.452   2.783   8.382 -0.0514  0.0796  0.1272
89215W        W32127  12.955   7.997   8.348  0.0982  0.1362  0.0085
89216W        W32128  10.966   5.547   6.728  0.0243 -0.1131 -0.3573
89217W        W32129  10.961   4.357   8.748  0.1654  0.2109 -0.1272
89218W        W32130  11.758   5.935   9.660  0.1229 -0.1721 -0.2223
89219W        W32131  13.580   5.270   9.282  0.1713  0.0531  0.0720
89220W        W32132  13.812   5.442   9.816 -0.1890 -0.4139  0.1882
89221W        W32133  13.350   7.556   7.962 -0.0994  0.1666 -0.1796
89222W        W32134  13.252   6.289   8.376  0.1160 -0.1608 -0.0542
89223W        W32135  10.912   5.657   8.275  0.1575 -0.0403 -0.2117
89224W        W32136  11.097   6.091   9.099  0.1946  0.0731 -0.0206
89225W        W32137  12.923   6.672   8.347 -0.1882  0.2365 -0.0828
89226W        W32138  14.641   6.900   9.361  0.3540  0.2463  0.1068
89227W        W32139  10.631   6.491   7.237  0.0940  0.0622 -0.0575
89228W        W32140  13.750   3.438   8.968  0.0661  0.3557 -0.0119
89229W        W32141  11.608   5.488   7.792  0.1771  0.0325  0.1760
89230W        W32142  11.030   7.083   8.385 -0.0334  0.0893  0.0658
89231W        W32143  10.496   8.771   9.857 -0.0692  0.2363 -0.2304
89232W        W32144  10.166   7.078   9.950  0.2379 -0.2241  0.0411
89233W        W32145  11.125   6.501   7.198  0.2026  0.0282  0.1504
89234W        W32146  13.472   4.682   8.190 -0.3287  0.2463 -0.2803
89235W        W32147  12.005   4.653   6.360  0.0687  0.2782  0.1053
89236W        W32148  14.134   4.046   8.092  0.1180 -0.3195 -0.1478
89237W        W32149  13.019   3.830   7.505  0.0637  0.0583 -0.1033
89238W        W32150  11.673   7.580   8.434 -0.5026  0.2308 -0.0052
89239W        W32151  11.924   3.934   9.610  0.5125  0.1581 -0.2669
89240W        W32152  11.887   5.307   8.858  0.2278 -0.1330  0.1341
89241W        W32153  13.057   4.061   8.026  0.0689  0.2934  0.0722
89242W        W32154  13.836   6.483   9.490  0.0821  0.2708 -0.3641
89243W        W32155  11.708   3.561   8.683  0.1946  0.1322  0.1124
89244W        W32156  13.878   6.350   6.260  0.0065 -0.1608  0.0704
89245W        W32157  14.533   6.215   7.905  0.2325  0.2611 -0.1128
89246W        W32158  12.367   6.817   8.443 -0.1231 -0.0812 -0.0227
89247W        W32159  12.036   3.873   7.731 -0.0557  0.0367 -0.0678
89248W        W32160  12.847   4.792   7.541  0.1856  0.1769 -0.2369
89249W        W32161  14.153   2.540   7.155 -0.1930 -0.1220 -0.0259
89250W        W32162  11.413   6.330   9.593  0.0009  0.0273 -0.1348
89251W        W32163  14.127   6.112   9.736  0.1251 -0.2152 -0.1891
89252W        W32164  13.663   5.546   7.497 -0.3307 -0.0728 -0.2555
89253W        W32165  12.516   4.308   9.101  0.0399  0.0610 -0.0748
89254W        W32166  16.106   2.663   9.356  0.0082 -0.0730  0.0597
89255W        W32167  12.193   4.961   8.204 -0.0995  0.0363  0.1807
89256W        W32168  13.612   4.924   7.794  0.1660 -0.0166  0.0995
89257W        W32169  14.073   5.424   9.359 -0.0773 -0.1724 -0.2117
89258W        W32170  15.322   4.728   6.936 -0.0718  0.1680 -0.0911
89259W        W32171  10.569   6.809   9.735 -0.1602 -0.3787 -0.0597
89260W        W32172  12.159   7.375   6.635 -0.0120 -0.3098 -0.0575
89261W        W32173  11.069   4.907   9.078  0.4656  0.1275 -0.1353
89262W        W32174  11.234   5.937   7.846  0.1338 -0.1589 -0.1068
89263W        W32175  11.451   4.557   8.025  0.1894 -0.0525 -0.0498
89264W        W32176  11.112   7.196   9.580  0.2501 -0.1579  0.0808
89265W        W32177  14.433   3.738   8.978 -0.0857 -0.0756  0.1216
89266W        W32178  13.826   3.054   8.139  0.2149 -0.0824  0.1837
89267W        W32179  11.885   4.511   8.272  0.0556 -0.0775  0.0004
89268W        W32180  13.409   6.805   7.095 -0.1601 -0.1360  0.0942
89269W        W32181  12.617   5.631   7.762 -0.2651 -0.0825 -0.0630
89270W        W32182  13.747   5.968   8.167  0.2027 -0.0569  0.0260
89271W        W32183  12.562   5.386  10.017 -0.1223  0.3657  0.0748
89272W        W32184  11.337   3.394   9.028  0.1671 -0.1855 -0.0082
89273W        W32185  12.796   3.405   9.991 -0.0742  0.2060  0.0866
89274W        W32186  11.370   2.784   6.696  0.0655  0.1345 -0.2971
89275W        W32187  13.406   3.673   7.769  0.2387  0.0760  0.0708
89276W        W32188  12.474   4.677   7.865  0.0059  0.0097 -0.0924
89277W        W32189  10.565   5.323   8.493 -0.1561 -0.1534  0.0959
89278W        W32190  13.518   5.996   7.678  0.2504 -0.0600 -0.1394
89279W        W32191  14.198   6.793   9.549  0.5946 -0.2842 -0.0385
89280W        W32192  14.369   6.852   7.767 -0.0323  0.0354  0.0115
89281W        W32193  12.953   4.143   9.204 -0.1821 -0.0376 -0.2302
89282W        W32194  11.666   4.027   5.373  0.1417 -0.0451  0.1944
89283W        W32195  10.676   6.765   8.860  0.3972  0.4119  0.0623
89284W        W32196  13.032   5.433   9.599  0.1923 -0.0468  0.1717
89285W        W32197  13.306   3.812   6.985  0.2018 -0.0945 -0.0988
89286W        W32198  14.950   6.986   8.156 -0.0286 -0.2031  0.2588
89287W        W32199  12.310   6.338   8.661  0.3182 -0.3193 -0.1883
89288W        W32200  14.799   7.350   8.524 -0.0638  0.1721  0.0061
89289W        W32201  13.507   5.546   8.005  0.0128  0.1683 -0.0546
89290W        W32202  12.835   3.478   5.867  0.1721 -0.0249 -0.3319
89291W        W32203  14.675   6.636   8.727 -0.1322 -0.2396  0.0156
89292W        W32204  10.896   6.214   7.613  0.3777  0.0376 -0.1435
89293W        W32205  11.140   4.831   7.786 -0.1670 -0.0316 -0.3139
89294W        W32206  13.363   5.205   8.790  0.0653  0.0962  0.0312
89295W        W32207  15.032   3.844   7.862 -0.0492  0.0606 -0.0527
89296W        W32208  12.159   3.810   7.070 -0.0256 -0.1496 -0.3481
89297W        W32209  14.220   3.609   8.312 -0.0106  0.0931 -0.1026
89298W        W32210  14.087   3.412   7.238 -0.0546 -0.1826  0.1194
89299W        W32211  15.588   4.834   6.366  0.0127  0.3386 -0.3544
89300W        W32212  14.747   4.727   7.922  0.3530  0.3122 -0.1122
89301W        W32213  13.789   3.531   8.123  0.0108  0.2334  0.1418
89302W        W32214  12.358   7.367   9.682 -0.0191 -0.2203 -0.0973
89303W        W32215  12.352   5.184   9.473 -0.0730 -0.0736 -0.1146
89304W        W32216  12.081   5.462   6.783 -0.0965 -0.1374  0.0665
89305W        W32217  14.231   7.546   7.162 -0.0848  0.2960  0.1242
89306W        W32218  10.243   4.476   9.708 -0.1968 -0.0334  0.2704
89307W        W32219  13.687   7.136   9.326 -0.3519  0.2808 -0.2349
89308W        W32220  12.501   3.341   8.312  0.0561 -0.2086  0.0953
89309W        W32221  12.969   4.534   8.104 -0.0783  0.1143  0.2997
89310W        W32222  13.432   3.284   8.610 -0.1912  0.1993  0.1334
89311W        W32223  10.513   7.349   7.205 -0.0825  0.0974 -0.2040
89312W        W32224  15.160   4.305   9.733  0.0221 -0.1589 -0.2248
89313W        W32225  10.760   6.445  10.067 -0.3446 -0.1142  0.2495
89314W        W32226  14.449   5.230   8.375  0.1490 -0.0472  0.5783
89315W        W32227  11.700   4.112  10.430 -0.2241 -0.3718  0.3357
89316W        W32228  10.808   4.613   6.299 -0.2684 -0.0665 -0.1891
89317W        W32229  12.003   3.797  10.083 -0.0189  0.3090 -0.0662
89318W        W32230   9.351   7.114   9.225  0.1809  0.2262 -0.3147
89319W        W32231  13.271   4.811   9.627  0.3996 -0.0666 -0.0855
89320W        W32232  12.694   4.889   8.318 -0.1044 -0.0760 -0.0834
89321W        W32233  13.154   6.013   6.804 -0.1998  0.1808 -0.0296
89322W        W32234  13.164   5.849   8.567 -0.2981  0.0992  0.1970
89323W        W32235  12.345   3.586   9.690 -0.4206 -0.2704 -0.0122
89324W        W32236  12.398   5.467   8.279  0.2893 -0.0029 -0.0382
89325W        W32237  13.058   5.538   6.619  0.1515  0.0145 -0.0780
89326W        W32238  14.441   6.365   9.380 -0.2325  0.1214  0.0720
89327W        W32239  11.591   6.457   8.125  0.1079 -0.1787  0.2011
89328W        W32240  13.999   3.681   9.361 -0.0862  0.0904 -0.2976
89329W        W32241  10.499   8.987   9.366  0.1852  0.0154  0.0300
89330W        W32242  11.570   4.635   6.904  0.0938  0.2284 -0.3312
89331W        W32243  11.869   5.371   8.307  0.0548 -0.0123  0.4705
89332W        W32244  13.345   3.270   9.271 -0.1362  0.0215 -0.0331
89333W        W32245  15.216   5.192   7.159 -0.0970 -0.3186  0.1076
89334W        W32246  13.609   1.749   9.582 -0.2543 -0.3021  0.1822
89335W        W32247  14.116   3.220   9.588 -0.2116 -0.0078 -0.2107
89336W        W32248  11.146   8.342   8.694  0.2319  0.2138 -0.4424
89337W        W32249  12.468   3.772   7.983 -0.1918 -0.0966 -0.3220
89338W        W32250  11.660   4.082   7.456  0.2695  0.0632 -0.1987
89339W        W32251  15.677   2.914   9.459  0.0091 -0.1813  0.0116
89340W        W32252  12.571   4.813   8.990 -0.1311 -0.1054  0.1723
89341W        W32253  11.265   4.789   8.570  0.1153 -0.1219  0.0507
89342W        W32254  13.674   3.347   9.750  0.2086  0.2389  0.0913
89343W        W32255  12.593   5.154   7.932  0.0646 -0.0113 -0.2600
89344W        W32256  11.250   6.642   8.558 -0.0775  0.1067 -0.2396
89345W        W32257  12.190   5.701   8.691  0.0618  0.0432  0.2611
89346W        W32258  13.315   3.724   9.751  0.0742 -0.0008 -0.2191
89347W        W32259  13.319   2.486   9.106  0.0208  0.0472 -0.2273
89348W        W32260  12.854   5.141   8.731  0.1859  0.1087  0.1082
89349W        W32261  12.755   4.963   9.707  0.1570 -0.3051  0.0053
89350W        W32262  14.690   1.122   9.091  0.1485 -0.0510  0.1192
89351W        W32263  12.969   3.090   8.550 -0.0617  0.3414  0.1648
89352W        W32264  14.247   7.088   7.363 -0.0203 -0.1070 -0.3378
89353W        W32265  12.596   5.339   6.834 -0.1156  0.1923  0.1435
89354W        W32266  10.906   5.633   9.118 -0.0817  0.0419  0.1095
89355W        W32267  12.110   5.537   7.875  0.0535 -0.2661 -0.0144
89356W        W32268  13.043   3.427   8.881 -0.0954 -0.0538 -0.4810
89357W        W32269  11.200   5.832   9.649 -0.0646  0.1938 -0.4508
89358W        W32270  11.844   6.464   8.560  0.0330 -0.0015  0.0070
89359W        W32271  10.596   6.153   8.021 -0.0651  0.1057  0.0599
89360W        W32272  15.158   3.372   7.789 -0.1748  0.0273  0.0824
89361W        W32273  12.720   6.104   7.167 -0.2533  0.0707  0.0680
89362W        W32274  13.295   4.303   8.435 -0.0373  0.1459  0.1612
89363W        W32275  13.225   6.653   8.791 -0.1327  0.0545 -0.0949
89364W        W32276  13.867   4.194   9.485  0.0255  0.2647 -0.2495
89365W        W32277  14.571   5.696   8.188 -0.2810 -0.0319 -0.2362
89366W        W32278  12.698   3.775   8.421 -0.2644 -0.2468 -0.0518
89367W        W32279  12.180   4.809   6.909 -0.1129  0.2624  0.0806
89368W        W32280  11.736   6.871   9.029  0.0809  0.2098 -0.1332
89369W        W32281  14.212   4.539   9.511 -0.1432  0.0246  0.3668
89370W        W32282  10.551   7.824   8.106  0.2768 -0.3771 -0.1979
89371W        W32283  14.188   5.796   7.721  0.1792  0.0090  0.1110
89372W        W32284  12.333   5.803   9.552  0.2062  0.3851 -0.3295
89373W        W32285  12.930   5.551   9.063  0.0254 -0.0943 -0.2050
89374W        W32286  12.370   5.723   7.364  0.0120 -0.1016  0.1027
89375W        W32287  11.906   6.049   9.108  0.0810  0.0872  0.0321
89376W        W32288  13.953   6.166   9.099 -0.0212 -0.2091 -0.3017
89377W        W32289  13.541   4.323   9.031  0.0502 -0.1930 -0.0360
89378W        W32290  14.170   8.481   8.309  0.1773 -0.1317 -0.2225
89379W        W32291  13.815   3.767   6.979  0.2416 -0.2729  0.1371
89380W        W32292  14.618   4.340   9.838 -0.1053  0.2296 -0.0503
89381W        W32293  14.565   4.127   7.062  0.0896  0.2506 -0.2082
89382W        W32294  12.698   5.685   8.603  0.0418  0.0234 -0.0374
89383W        W32295  11.674   4.067   8.000 -0.0623  0.1273 -0.1543
89384W        W32296  11.940   2.085   7.537 -0.2930  0.2612  0.1865
89385W        W32297  12.127   6.445   8.158  0.0048 -0.0512  0.2506
89386W        W32298  12.356   4.675   9.478  0.0518 -0.2077 -0.0850
89387W        W32299  13.992   4.442   7.755 -0.2362 -0.0370  0.0090
89388W        W32300  10.969   4.654   8.203 -0.2027  0.1393 -0.4999
89389W        W32301  10.566   5.536   7.199  0.0599  0.1513  0.3525
89390W        W32302  13.198   4.592   6.575  0.4829 -0.4908  0.1875
89391W        W32303  10.170   7.286   9.342  0.4067 -0.1333  0.3145
89392W        W32304  13.679   3.326   6.780  0.0973  0.0655  0.1454
89393W        W32305  11.400   5.556   8.248  0.1431 -0.2521 -0.1465
89394W        W32306  14.179   2.772   8.389 -0.0700 -0.0883 -0.1940
89395W        W32307   9.807   9.372   9.399 -0.0055 -0.1862 -0.2699
89396W        W32308  11.153   8.206   9.441 -0.1509  0.0927  0.0976
89397W        W32309  14.165   1.722   9.825 -0.0454  0.1610  0.3162
89398W        W32310  14.297   4.969   9.223 -0.2084  0.2392  0.3811
89399W        W32311  11.379   4.372   8.995  0.3335  0.0519 -0.2695
89400W        W32312  12.346   4.054   8.709 -0.1029 -0.1464 -0.3304
89401W        W32313  14.949   5.938   7.196 -0.4245 -0.1828 -0.1511
89402W        W32314  11.682   5.761   8.717  0.3242 -0.1317  0.0638
89403W        W32315  12.492   5.353   9.040 -0.0037 -0.1780 -0.6849
89404W        W32316  13.011   2.897   8.066  0.2517 -0.2088 -0.1495
89405W        W32317  12.543   5.617   6.033  0.2085 -0.1032  0.0042
89406W        W32318  12.103   4.821   9.051 -0.0324  0.1164  0.0192
89407W        W32319  10.839   7.232   8.877 -0.2641 -0.0900 -0.0018
89408W        W32320  14.130   5.037   6.990 -0.2365  0.1289  0.1286
89409W        W32321  14.212   6.252   6.892 -0.0594 -0.1346 -0.0051
89410W        W32322  11.884   5.057   9.466  0.0545 -0.2702 -0.1799
89411W        W32323  12.632   5.234   7.391 -0.0550  0.1221 -0.0112
89412W        W32324  12.777   7.595   9.489  0.3098 -0.4395 -0.1534
89413W        W32325  10.204   6.754   8.173  0.1106  0.1174  0.1036
89414W        W32326  13.315   6.827   8.078  0.0590  0.1631 -0.1383
89415W        W32327  10.337   7.116   8.902 -0.0789  0.0862 -0.0263
89416W        W32328  13.884   2.359   8.432  0.1628  0.4110 -0.1710
89417W        W32329  15.347   5.627   7.191  0.1056 -0.0258 -0.0559
89418W        W32330  14.752   3.567   7.557  0.1459 -0.1908 -0.2507
89419W        W32331  11.591   4.163   9.916 -0.2877  0.0249 -0.3770
89420W        W32332  11.052   4.110   8.132  0.4092 -0.2681  0.0323
89421W        W32333  13.676   6.563   8.512  0.1476 -0.0885  0.2698
89422W        W32334  11.859   4.776   7.344  0.0830  0.0649  0.1080
89423W        W32335  12.289   5.118   8.682 -0.1240 -0.1877  0.2250
89424W        W32336  15.734   4.695   9.592  0.2308  0.1642  0.0122
89425W        W32337  12.285   6.932   7.925  0.0032 -0.0160 -0.3933
89426W        W32338  13.270   4.771   9.093  0.2019 -0.1723  0.2811
89427W        W32339  13.396   7.038   8.511 -0.1035  0.5723  0.0896
89428W        W32340  12.646   7.621   8.686  0.3694 -0.1550 -0.3574
89429W        W32341  10.748   9.215   9.832  0.0963  0.0107 -0.0492
89430W        W32342  12.003   2.739   8.754  0.0417  0.2423 -0.1811
89431W        W32343  14.603   4.172   7.960 -0.0935 -0.3526 -0.0221
89432W        W32344  12.136   3.043  11.886 -0.1735  0.0206  0.3080
89433W        W32345  12.345   4.563   8.646  0.0276 -0.0390  0.0547
89434W        W32346  13.436   3.745   8.816 -0.0192 -0.0140 -0.0538
89435W        W32347  11.511   6.206   8.840 -0.2676 -0.0781 -0.2262
89436W        W32348  11.662   3.964   9.068 -0.2175 -0.6774  0.1311
89437W        W32349  12.544   3.198   8.823  0.2495  0.1472 -0.0747
89438W        W32350  13.259   4.488   7.697  0.1235 -0.4326  0.2547
89439W        W32351  10.823   3.282   9.100  0.1069  0.1985 -0.3496
89440W        W32352  13.130   5.028   7.957 -0.2531  0.1465  0.1663
89441W        W32353  11.809   4.866   8.540  0.0745 -0.3187 -0.0793
89442W        W32354  14.177   1.468   8.466 -0.1177  0.0587 -0.0214
89443W        W32355  11.579   2.996   8.717 -0.3694  0.1155  0.0475
89444W        W32356  14.391   5.833   7.249  0.2866 -0.0514 -0.2540
89445W        W32357  14.754   4.410   8.379  0.2014  0.2064  0.2723
89446W        W32358  12.662   6.809   7.001  0.0095 -0.1016 -0.2682
89447W        W32359  14.447   5.829   8.668  0.3189  0.1931 -0.1728
89448W        W32360  13.572   5.568   8.508 -0.0588  0.0733 -0.0922
89449W        W32361  11.598   4.812   9.127 -0.1127 -0.2045  0.1495
89450W        W32362  13.493   3.846   9.288  0.1774  0.0947 -0.0985
89451W        W32363  15.157   7.475   9.552 -0.0788 -0.0125  0.0887
89452W        W32364  12.899   3.586   7.937 -0.1750  0.0771  0.0584
89453W        W32365  11.803   4.588   9.698  0.2198 -0.2900  0.2052
89454W        W32366  11.221   6.549   9.091 -0.3561 -0.4061 -0.1594
89455W        W32367  12.979   3.207   9.574 -0.2252 -0.1249 -0.0298
89456W        W32368  12.230   6.024   7.767  0.3136  0.1600 -0.0006
89457W        W32369   9.686   4.413   9.506 -0.1565  0.0359 -0.0914
89458W        W32370  11.223   5.708   8.669  0.0742 -0.1357 -0.2318
89459W        W32371  11.815   6.454   9.334  0.0150 -0.1067  0.2528
89460W        W32372  11.721   5.998   7.748 -0.0411  0.1393 -0.2729
89461W        W32373  13.882   5.671   8.970 -0.2060  0.1129  0.0614
89462W        W32374  11.435   5.161   7.488  0.1571 -0.1630 -0.3098
89463W        W32375  14.453   6.242   8.941  0.1681  0.3138 -0.0016
89464W        W32376  12.241   4.240   8.082 -0.1200  0.1751  0.3079
89465W        W32377  14.569   3.236   6.764  0.0567  0.0302 -0.0897
89466W        W32378  13.615   4.112   8.029  0.3085 -0.1179  0.1172
89467W        W32379  12.561   4.533   9.951 -0.0833 -0.1103  0.1534
89468W        W32380  10.853   5.172   7.457 -0.0030 -0.0097 -0.1986
89469W        W32381  11.650   6.540   7.231 -0.0158 -0.0481 -0.1024
89470W        W32382  10.561   6.898  10.225 -0.0676  0.0677  0.0083
89471W        W32383  11.809   7.381   9.694  0.0791 -0.2448  0.1471
89472W        W32384  10.802   3.149   8.312  0.1831 -0.0508  0.0178
89473W        W32385  14.234   4.856   6.486  0.1206 -0.1584 -0.4154
89474W        W32386  11.376   3.735   8.202 -0.2061 -0.1871 -0.0252
89475W        W32387  11.724   3.513   9.348  0.1303  0.0965 -0.3048
89476W        W32388  13.986   5.295   7.945  0.1267 -0.0833  0.1354
89477W        W32389  12.887   5.865   8.102 -0.1346  0.3628  0.0399
89478W        W32390  12.759   3.155   7.694 -0.1134  0.1502  0.0513
89479W        W32391  12.089   6.731   6.285  0.0234  0.0995  0.0683
89480W        W32392  11.383   4.562   7.331  0.1384 -0.0253 -0.2401
89481W        W32393  11.868   4.425   8.874 -0.2238 -0.0259 -0.1947
89482W        W32394  13.478   5.150   6.841 -0.0485 -0.7494 -0.2026
89483W        W32395  14.278   7.363   6.664  0.0545 -0.0598 -0.0914
89484W        W32396  10.300   5.478  10.041 -0.0759  0.2655  0.1101
89485W        W32397  13.557   6.121   8.796  0.0464 -0.3490  0.1625
89486W        W32398  14.494   5.297   7.849 -0.0127 -0.3364  0.2700
89487W        W32399  12.957   4.500   8.859  0.1309 -0.3924  0.1631
89488W        W32400  13.019   3.942   8.719 -0.0531 -0.1709 -0.0535
89489W        W32401  13.990   4.984   8.398  0.1458 -0.3404  0.0550
89490W        W32402  12.204   3.251   7.873  0.2336 -0.0751 -0.1520
89491W        W32403  12.209   3.596   8.666  0.0536  0.0881 -0.1537
89492W        W32404  13.149   6.333   7.862 -0.0832  0.4212 -0.0404
89493W        W32405  11.444   5.252   8.656  0.0083  0.1037  0.4050
89494W        W32406  11.854   5.857   8.216 -0.0507 -0.0965 -0.0874
89495W        W32407  14.007   4.628   8.933  0.1565  0.1423 -0.1136
89496W        W32408  11.464   5.010   8.178 -0.0907 -0.0938  0.1421
89497W        W32409  15.362   5.754   8.628 -0.0771  0.3972 -0.0478
89498W        W32410  10.909   6.409   9.585  0.1755  0.1609  0.0653
89499W        W32411  13.875   5.117   8.859  0.0163 -0.4439  0.2068
89500W        W32412  13.143   4.816   8.536  0.0156  0.0026  0.1122
89501W        W32413  11.231   2.560   9.003 -0.1381 -0.0288  0.0555
89502W        W32414  10.995   5.269   8.789 -0.0143 -0.1147  0.3169
89503W        W32415  11.872   4.984   7.782 -0.2112  0.1350  0.1261
89504W        W32416  12.888   4.595   9.412  0.3979  0.2516  0.1049
89505W        W32417  12.551   3.969   9.471  0.4975 -0.2493 -0.0012
89506W        W32418  12.969   2.579   8.685 -0.0464  0.1011 -0.1521
89507W        W32419  13.731   6.871   9.796  0.1350 -0.1784  0.3403
89508W        W32420  12.888   5.085   9.220  0.0200 -0.0070  0.0773
89509W        W32421  11.949   9.383   2.081 -0.0823  0.0260 -0.0625
89510W        W32422  12.493   8.901  31.380 -0.0940 -0.0726 -0.0707
89511W        W32423  13.384   8.778  29.951  0.0602  0.0407  0.0508
89512W        W32424  14.880   8.742   0.573 -0.0417 -0.0995 -0.2167
89513W        W32425  10.795   7.616   0.541  0.2034  0.2817 -0.0112
89514W        W32426  14.485  10.330   0.845  0.0969 -0.1168  0.1362
89515W        W32427  11.657   7.619   2.431 -0.0354 -0.1961 -0.1401
89516W        W32428  13.869  11.022   1.809  0.0386  0.2812  0.0200
89517W        W32429  14.828  11.488   2.558  0.0639 -0.2206  0.2323
89518W        W32430  13.418  10.294  31.570  0.0097  0.0742 -0.2114
89519W        W32431  12.381   8.388   1.030 -0.1288 -0.0916 -0.1132
89520W        W32432  11.589   9.913   0.719  0.1488  0.3064  0.0754
89521W        W32433  15.531   8.129   0.184  0.1280  0.0315 -0.0971
89522W        W32434  11.500   6.899   0.596  0.1034  0.0334  0.0872
89523W        W32435  12.760   8.234   2.296 -0.0571  0.2427 -0.3583
89524W        W32436  11.797   8.378  31.642 -0.2630  0.0233  0.2633
89525W        W32437  12.771   8.799   1.640  0.1757 -0.1203  0.1006
89526W        W32438  12.825   8.354   1.321 -0.1572  0.1334  0.0974
89527W        W32439  13.353  11.201  31.891  0.1471 -0.0103  0.2810
89528W        W32440  13.884   8.411   1.642 -0.3334 -0.2023  0.2886
89529W        W32441  13.736   8.652   2.648  0.3461  0.3807  0.2454
89530W        W32442  14.424   9.975   0.011 -0.0311 -0.5013 -0.0723
89531W        W32443  11.447   8.735  31.629 -0.0803 -0.1247  0.1963
89532W        W32444  11.775   9.028   0.483 -0.2231 -0.5291  0.0095
89533W        W32445  12.938   8.959   1.006  0.0943  0.0976 -0.2409
89534W        W32446  12.173   8.873   3.224 -0.1303  0.0047 -0.4256
89535W        W32447  13.699  10.104  31.981  0.1188 -0.2353 -0.0239
89536W        W32448  12.855  11.235   0.179 -0.3110 -0.1354 -0.1852
89537W        W32449  13.812  10.638   2.146 -0.0840 -0.2292  0.0633
89538W        W32450  13.972   9.722   3.497  0.0428  0.1300  0.0061
89539W        W32451  11.207  10.624   0.083  0.3909  0.1013 -0.0365
89540W        W32452  11.790  10.926   1.584  0.1366  0.1589  0.0763
89541W        W32453  10.582   9.129  31.391 -0.1749 -0.3853 -0.1055
89542W        W32454  15.033  10.156   0.132  0.0308  0.1497  0.1591
89543W        W32455  14.816  10.713   2.492  0.0823 -0.1020  0.0355
89544W        W32456  12.019   9.870   3.082 -0.0559 -0.0233 -0.1140
89545W        W32457  12.462  10.193  31.821  0.4418 -0.1730 -0.2274
89546W        W32458  14.051  10.886   3.617 -0.0633  0.0932 -0.1630
89547W        W32459  12.353  10.458   2.270 -0.3055 -0.0962  0.1394
89548W        W32460  14.239  10.351   3.367 -0.2389  0.0333 -0.0079
89549W        W32461  13.640   8.284  30.491 -0.1557 -0.0746 -0.2057
89550W        W32462  12.481   9.417   0.630 -0.1556  0.0816 -0.1327
89551W        W32463  13.189   9.687  31.543  0.0821 -0.2628  0.2594
89552W        W32464  12.323  10.696   3.661 -0.1919  0.0591  0.0466
89553W        W32465  10.458   9.915   0.610  0.1156  0.0728 -0.1909
89554W        W32466  15.226   6.922   1.904  0.0997  0.1848 -0.0341
89555W        W32467  11.553  10.660   0.469  0.1792 -0.0690 -0.1645
89556W        W32468  13.948   9.090  31.655 -0.0654 -0.0443 -0.1862
89557W        W32469  12.651   7.270  31.955 -0.2309 -0.2673 -0.2046
89558W        W32470  13.453   7.561  31.802  0.1392  0.0914  0.0768
89559W        W32471  13.570   7.440   0.812 -0.1019 -0.2491 -0.3837
89560W        W32472  12.347  11.880   0.769  0.3197  0.2663 -0.1635
89561W        W32473  14.160   9.523   1.736 -0.1029 -0.1053 -0.1829
89562W        W32474  14.869   9.693   2.249 -0.1417  0.0335 -0.0021
89563W        W32475  12.678   9.648   0.201  0.0012  0.0749  0.1967
89564W        W32476  14.133   8.104   0.815 -0.1065 -0.0237  0.0303
89565W        W32477  12.391  10.873   1.735 -0.4853  0.0972  0.1008
89566W        W32478  11.313  10.286   1.477  0.0979 -0.3549  0.0105
89567W        W32479  16.828  11.886  30.432  0.1845 -0.1463  0.2614
89568W        W32480  15.166  11.113   0.960  0.0059 -0.0865 -0.1311
89569W        W32481  14.681  11.124  30.277 -0.1643  0.0458  0.4619
89570W        W32482  10.761   8.695  31.065 -0.1752 -0.0433  0.1008
89571W        W32483  10.842   9.013   2.240  0.1062  0.0344 -0.0892
89572W        W32484  11.054   8.533   2.381  0.1874 -0.1024  0.1768
89573W        W32485  13.563   6.656  31.369  0.4896 -0.0766  0.1333
89574W        W32486  14.407   9.902   3.062  0.1459 -0.1694  0.0835
89575W        W32487  12.203   9.795   3.518 -0.0621  0.2924  0.0692
89576W        W32488  14.118   7.538   1.670 -0.1988 -0.0394 -0.2121
89577W        W32489  11.470  10.169   2.481 -0.3323 -0.1530  0.1868
89578W        W32490  13.907   9.677   0.337  0.2596 -0.1466 -0.1804
89579W        W32491  14.578   9.610  31.033 -0.1440  0.1269 -0.0850
89580W        W32492  12.327   7.821   0.981 -0.1639  0.4130  0.1013
89581W        W32493  13.384   8.370   3.405 -0.1241  0.1839  0.0092
89582W        W32494  12.110   9.294  31.433  0.0505  0.2923  0.3590
89583W        W32495  11.257  10.483   0.996 -0.2749 -0.0110 -0.2450
89584W        W32496  14.485   8.961   2.002 -0.4589 -0.1466 -0.0211
89585W        W32497  14.210   9.383  30.725  0.0245 -0.1324  0.0892
89586W        W32498  12.628  11.314   1.855 -0.0527 -0.1769  0.0949
89587W        W32499  11.996   8.695   2.741 -0.1272  0.0982 -0.2576
89588W        W32500  13.317   9.956   2.331  0.0523  0.2035  0.0870
89589W        W32501  13.542  10.130  30.303  0.1666 -0.2260 -0.0442
89590W        W32502  10.611   9.877   2.011  0.1813  0.2421 -0.0946
89591W        W32503  11.887   8.971  31.131  0.0195 -0.0889  0.1270
89592W        W32504  10.461   8.532   2.213  0.2754 -0.0581 -0.1346
89593W        W32505  13.088  10.104   1.868  0.0502 -0.2018  0.1798
89594W        W32506  14.284   8.937   0.477  0.2644  0.4659 -0.3479
89595W        W32507  10.670   8.313   1.634  0.2676 -0.0694  0.1089
89596W        W32508  13.800   7.974   1.498 -0.0221 -0.0940 -0.1021
89597W        W32509  11.663  10.257   1.102 -0.2581  0.1379 -0.0621
89598W        W32510  14.080  11.163   1.269  0.3236 -0.0256 -0.1874
89599W        W32511  14.161   7.924  31.777  0.0421  0.1531  0.0231
89600W        W32512  14.521  10.065  30.860  0.2293 -0.2758 -0.0461
89601W        W32513  10.485   8.258   1.099  0.0165  0.2429  0.1549
89602W        W32514  11.648   8.545   0.658  0.1900 -0.0919 -0.2333
89603W        W32515  11.560   9.201   2.570 -0.1730 -0.0043 -0.0388
89604W        W32516  11.154   7.990   1.746  0.3518 -0.0475  0.0906
89605W        W32517  13.648   9.497   2.599  0.2816  0.2529 -0.0428
89606W        W32518  11.929   6.785   0.942 -0.0033  0.1931 -0.1833
89607W        W32519  11.908   9.175  31.930 -0.2523 -0.2602 -0.0189
89608W        W32520  11.603   7.980   1.481 -0.0572  0.1126 -0.4120
89609W        W32521  10.305  11.016   0.898  0.2324  0.0386 -0.0082
89610W        W32522  14.722   8.986   3.066 -0.0359  0.0499  0.0535
89611W        W32523  13.516  10.400   1.005 -0.0440  0.1622 -0.1992
89612W        W32524  13.665  11.415   1.575 -0.1037  0.0823  0.2284
89613W        W32525  14.185  11.454   1.689  0.0627  0.2242 -0.1235
89614W        W32526  11.680   9.413   1.706  0.0539 -0.1203 -0.5503
89615W        W32527  11.783   7.519  31.507  0.1540  0.0523  0.0902
89616W        W32528  11.339  10.178   0.303  0.0577 -0.3439 -0.0585
89617W        W32529  14.306  10.356   1.793  0.1017  0.2427 -0.2877
89618W        W32530  12.290   7.192   0.373 -0.2973  0.2055  0.0262
89619W        W32531  15.185  11.147   2.478 -0.2797  0.4218  0.1426
89620W        W32532  14.204  10.116   0.485 -0.0006  0.0042 -0.3237
89621W        W32533  11.413   9.140   2.070  0.0915  0.0376  0.0007
89622W        W32534  13.054   8.313   2.844 -0.0998  0.1350  0.2224
89623W        W32535  13.704   8.427   2.208  0.2005  0.0518 -0.1091
89624W        W32536  14.186   8.695  31.918  0.2408 -0.1865 -0.2788
89625W        W32537  12.447   8.394  31.618 -0.1104 -0.3524 -0.1752
89626W        W32538  13.372  12.008   0.954  0.1032 -0.0124  0.1459
89627W        W32539  11.242  10.858  31.126 -0.0226  0.2914  0.0234
89628W        W32540  10.823  10.250   1.385  0.0202 -0.3868  0.3281
89629W        W32541  11.787   9.608   1.179 -0.2286  0.2610 -0.1565
89630W        W32542  15.109   6.810   2.367  0.1974 -0.1447 -0.1335
89631W        W32543  10.349   9.076   2.327 -0.2335 -0.0604  0.0178
89632W        W32544  14.131   7.860   2.328 -0.1805 -0.0098  0.1386
89633W        W32545  10.742   7.967  30.556 -0.3495 -0.0532  0.1024
89634W        W32546  11.582   9.736   3.415 -0.0834  0.0068 -0.0973
89635W        W32547  13.478   8.174   1.855 -0.3973  0.0661  0.0177
89636W        W32548  13.150   8.136  30.464 -0.3282 -0.2731  0.4770
89637W        W32549  14.156  10.267   2.812 -0.0070  0.0477  0.1904
89638W        W32550  15.569  10.905   1.217 -0.0020  0.0164  0.3252
89639W        W32551  13.867   8.301   0.062 -0.2075 -0.0569 -0.0629
89640W        W32552  14.401   8.830  31.466  0.1159 -0.0297  0.3436
89641W        W32553  11.985  10.089   2.087  0.2064  0.2994  0.1620
89642W        W32554  13.616   9.884  31.478 -0.0004 -0.2982  0.0528
89643W        W32555  12.681   9.874   0.750  0.1628  0.1357  0.2809
89644W        W32556  12.187   9.834  31.484 -0.0789  0.2430  0.0542
89645W        W32557  15.049  10.711   1.606 -0.0027  0.3094 -0.2579
89646W        W32558  10.921  10.866   0.845 -0.0741  0.0417 -0.2333
89647W        W32559  13.172  10.541   3.382  0.0416 -0.2364  0.0283
89648W        W32560  14.376  10.893   1.742  0.4445  0.0482 -0.0342
89649W        W32561  12.993   6.857   0.799 -0.2667  0.2789 -0.1483
89650W        W32562  12.658   8.489  31.146  0.0268  0.2897  0.0972
89651W        W32563  11.162   7.951   0.766  0.0749 -0.0008  0.2062
89652W        W32564   9.801  10.894   0.806 -0.1991 -0.0914 -0.2653
89653W        W32565  14.225   7.760   1.183  0.2400 -0.0421 -0.2900
89654W        W32566  11.498   7.477   1.563 -0.1373  0.1990  0.2513
89655W        W32567  11.756   8.198   2.221 -0.1504 -0.0372  0.1648
89656W        W32568  13.655   9.621   3.107 -0.3107 -0.0116 -0.3825
89657W        W32569  15.404  10.632   0.131 -0.2156  0.2175  0.0202
89658W        W32570  14.035   8.849   1.045  0.2177  0.0610  0.0383
89659W        W32571  11.614   6.650  31.121  0.3499 -0.2388  0.0643
89660W        W32572  12.045   8.064   2.857 -0.1019  0.1168  0.0844
89661W        W32573  10.892   8.759   1.817 -0.0129  0.1261  0.0292
89662W        W32574  11.779  10.393   1.534 -0.1070 -0.0123 -0.0860
89663W        W32575  13.536  10.487   1.778  0.0954  0.1657 -0.1302
89664W        W32576  14.756   9.266   0.563  0.1227 -0.1744  0.0002
89665W        W32577  13.530   8.162   2.621  0.3657 -0.1146 -0.1242
89666W        W32578  12.892   7.589  31.574  0.1100 -0.0226  0.2021
89667W        W32579  11.901  10.931  31.047 -0.0463  0.0100  0.2711
89668W        W32580  11.690  12.134  31.980 -0.1388 -0.1943 -0.1656
89669W        W32581  12.044   7.599   1.335  0.1703  0.2246  0.2583
89670W        W32582  13.464  10.904   0.774  0.0080 -0.1750 -0.2202
89671W        W32583  12.994  10.816  31.239 -0.2472  0.1794 -0.1980
89672W        W32584  14.482   9.870   1.447  0.2035  0.1524  0.0288
89673W        W32585  10.676  11.574   1.852  0.3636  0.1157  0.0501
89674W        W32586  13.246   6.493   2.305 -0.1446  0.1903  0.1930
89675W        W32587  11.813   9.535  31.155  0.1150  0.0018  0.0545
89676W        W32588  12.512   7.770   0.033 -0.2092 -0.0468 -0.0610
89677W        W32589  11.186   7.638   0.104  0.0440  0.1411 -0.4522
89678W        W32590  13.687   8.062   0.556 -0.1776 -0.1677 -0.0949
89679W        W32591  16.456  10.306  31.769  0.1361 -0.0837  0.0975
89680W        W32592  11.559   8.047   2.696 -0.1029 -0.2097 -0.0407
89681W        W32593  12.523   7.949   1.912 -0.0486  0.4095  0.0222
89682W        W32594  12.234   9.705   1.702 -0.1056  0.0749  0.1060
89683W        W32595  13.311  10.017   3.205  0.1565 -0.0956 -0.0653
89684W        W32596  14.117   7.929   0.313  0.1576 -0.2443 -0.2119
89685W        W32597  14.876  10.220   2.448  0.0545  0.3714 -0.1119
89686W        W32598  13.241   9.713   2.823 -0.4033 -0.2562  0.1892
89687W        W32599  12.035   7.536   0.066 -0.0982  0.0290 -0.1590
89688W        W32600  13.487   8.992   2.315  0.0358  0.1124  0.0913
89689W        W32601  12.380   9.592  31.032 -0.0065  0.1028 -0.0985
89690W        W32602  12.059   8.827  31.598  0.0117 -0.1088 -0.0620
89691W        W32603  14.275  10.814   2.230  0.0667  0.2659  0.0735
89692W        W32604  12.678   8.962   0.485 -0.2244 -0.0616  0.0114
89693W        W32605  11.587   9.174   1.293  0.1242 -0.0274  0.2330
89694W        W32606  11.949   9.664   2.654 -0.1816  0.3507 -0.0763
89695W        W32607  13.182   9.190   3.182 -0.0500  0.1215  0.0847
89696W        W32608  12.989   8.049   0.246 -0.1899  0.1936 -0.0594
89697W        W32609  11.305   8.433   1.884 -0.3327 -0.2650  0.5399
89698W        W32610  12.815   8.497   0.604 -0.1234  0.1358 -0.2092
89699W        W32611  14.762  10.245   1.601 -0.0382  0.1646  0.0141
89700W        W32612  13.653   9.256   1.882  0.0529 -0.0358  0.1190
89701W        W32613  12.898   9.274   4.697  0.2954  0.2781  0.1980
89702W        W32614  14.588   7.668   0.495  0.0626  0.0865 -0.1788
89703W        W32615  14.598  10.975  31.628 -0.0573 -0.0799  0.1767
89704W        W32616  14.692   8.619   3.433  0.0113 -0.0178 -0.0176
89705W        W32617  13.598   9.578  31.910  0.0675  0.0730  0.0983
89706W        W32618  11.565   9.405   0.766 -0.2346  0.0771  0.0791
89707W        W32619  11.956  10.051  31.896 -0.1919 -0.1066  0.0401
89708W        W32620  13.681   9.989   2.735  0.0212 -0.0399  0.1260
89709W        W32621  11.652   9.923   1.604 -0.0785 -0.2133  0.1230
89710W        W32622  12.181   9.620   0.035  0.0481 -0.3016  0.0449
89711W        W32623  11.336  10.523   3.228  0.2552 -0.1153  0.0176
89712W        W32624  14.148   8.076  31.323 -0.0362 -0.2185  0.0712
89713W        W32625  14.990  11.642  30.926  0.0256  0.2151  0.1792
89714W        W32626  12.571   8.815  31.918  0.2440 -0.0400 -0.2227
89715W        W32627  15.564   6.770   2.215 -0.2182  0.3184  0.0479
89716W        W32628  14.998   7.267  30.135  0.0845 -0.3221 -0.2522
89717W        W32629  14.313   7.287   2.994 -0.0476  0.2931  0.0017
89718W        W32630  13.598   7.468   2.492 -0.0862 -0.0509  0.0675
89719W        W32631  13.622   9.886   0.963 -0.0858 -0.2340  0.2933
89720W        W32632  12.466   9.189   1.831  0.0271  0.0850 -0.2312
89721W        W32633  13.907   9.719   2.201  0.5584 -0.0624  0.0081
89722W        W32634  12.230  10.060   2.580 -0.0282  0.0092 -0.2349
89723W        W32635  13.090   9.354   0.018  0.1538 -0.1379  0.3316
89724W        W32636  12.585   7.548  29.828  0.1621 -0.1786 -0.2070
89725W        W32637  12.390   9.512   2.615 -0.0585 -0.3851  0.3653
89726W        W32638  14.887  10.185   1.107  0.0841  0.0218 -0.2943
89727W        W32639  12.566  10.476   0.518  0.0153  0.2403  0.0780
89728W        W32640  13.859   9.328   1.154 -0.1582  0.1177  0.0469
89729W        W32641  12.707   8.575   3.105 -0.0497  0.0533  0.3764
89730W        W32642  13.816   8.621   0.537 -0.0197 -0.1052  0.0958
89731W        W32643  12.731  10.332  30.785 -0.2027 -0.1893  0.1995
89732W        W32644  11.637   9.682   0.145 -0.0206  0.2083 -0.2024
89733W        W32645  13.879   7.771   2.781 -0.1056 -0.0919 -0.1966
89734W        W32646  13.960   8.787   1.927 -0.2882 -0.2187  0.2454
89735W        W32647  13.971   9.932   1.349  0.0443  0.0342 -0.2365
89736W        W32648  13.389   8.726   1.915 -0.1905  0.3635 -0.1619
89737W        W32649  14.686   9.642   3.488  0.0038 -0.2246 -0.2937
89738W        W32650  13.193   9.254   1.748  0.1731 -0.0370 -0.3022
89739W        W32651  10.411   6.568   1.902 -0.0800  0.0925  0.1319
89740W        W32652  14.465  11.245   0.934 -0.0265  0.2397  0.1592
89741W        W32653  14.910   9.998  31.190  0.2253 -0.0147 -0.1271
89742W        W32654  15.201   8.790   2.274 -0.2542 -0.0278  0.0165
89743W        W32655  14.348   9.226   0.975  0.0088 -0.2475 -0.0041
89744W        W32656  12.845  10.173   0.245 -0.0409 -0.1116  0.2797
89745W        W32657  11.987   8.072   1.828  0.1506  0.0813  0.1412
89746W        W32658  13.799  10.083   3.222  0.0068  0.0501  0.2408
89747W        W32659  12.793   8.031  31.721  0.0607 -0.3219 -0.1479
89748W        W32660  15.586   8.780   3.347  0.1842  0.0344  0.4047
89749W        W32661  11.838  10.178   0.473  0.1508  0.2255 -0.0911
89750W        W32662  13.621  10.916   1.285  0.1833 -0.0116  0.0814
89751W        W32663  14.733   9.262  31.445 -0.2738 -0.1149 -0.0542
89752W        W32664  12.466   9.023   2.727  0.3136  0.2453 -0.1391
89753W        W32665  12.618  10.014   1.476 -0.1388  0.1703 -0.1969
89754W        W32666  12.889   9.036  31.644 -0.0056  0.2071 -0.0101
89755W        W32667  12.543   9.321  30.594 -0.3619  0.1224  0.1449
89756W        W32668  14.099   9.652   2.769  0.3133  0.1024  0.2765
89757W        W32669  14.468   9.053   4.137  0.0255 -0.1555  0.0168
89758W        W32670  12.253   7.700  31.592 -0.1370  0.0617 -0.0416
89759W        W32671  14.022   7.697   3.739 -0.0209  0.0439 -0.2355
89760W        W32672  11.337   9.948  30.606 -0.0698 -0.2365  0.0053
89761W        W32673  13.361   8.075   1.348  0.0091  0.2745  0.1819
89762W        W32674  12.726   9.625   1.948 -0.1166  0.0285 -0.2107
89763W        W32675  11.161   9.870   1.754 -0.2804 -0.0712  0.0846
89764W        W32676  12.306  10.032   0.378 -0.0511  0.0167  0.0729
89765W        W32677  13.028   9.698   1.562 -0.1131  0.0356 -0.2572
89766W        W32678  15.297   8.354   1.943 -0.1247  0.1244 -0.2392
89767W        W32679  12.263   9.088   0.294  0.1403 -0.0003 -0.1195
89768W        W32680  14.915   7.284   2.630 -0.0423 -0.1541 -0.2646
89769W        W32681  13.532   9.640   1.414 -0.3607 -0.1244 -0.1296
89770W        W32682  12.078   8.661   0.092  0.1456 -0.0207 -0.1356
89771W        W32683  13.472  10.979   2.998 -0.0777  0.1017 -0.4328
89772W        W32684  13.406   8.475   0.795 -0.1212 -0.1499 -0.1043
89773W        W32685  13.331  10.446   2.246  0.0852 -0.1465  0.0195
89774W        W32686  11.133   8.934   2.644  0.1578  0.3933  0.0800
89775W        W32687  13.229   9.263   2.632  0.4022 -0.2010  0.0820
89776W        W32688  14.077   9.676  31.816 -0.5043 -0.2885 -0.0312
89777W        W32689  12.451   8.142   0.588 -0.0687 -0.1018  0.0596
89778W        W32690  12.554  10.540  31.448 -0.2254 -0.1793  0.0577
89779W        W32691  11.635  10.051   3.838 -0.2133  0.0109 -0.1314
89780W        W32692  10.664   9.214   1.567 -0.1424 -0.1610  0.1412
89781W        W32693  11.730   9.614  31.631 -0.0595 -0.1959 -0.2600
89782W        W32694  13.545  10.077   0.467  0.0960  0.0021  0.4044
89783W        W32695  14.980   9.885  31.692 -0.0434 -0.2796 -0.3253
89784W        W32696  13.926  10.026   1.827  0.1510 -0.0739  0.1733
89785W        W32697  12.760   8.938  30.350 -0.1979 -0.2094  0.1350
89786W        W32698  10.833  10.574  30.911 -0.0599 -0.0869 -0.2653
89787W        W32699  11.615   8.990  30.569  0.3531  0.4514  0.2467
89788W        W32700  14.501  11.891  31.450 -0.2036 -0.0927 -0.2072
89789W        W32701  11.887   8.723   1.116  0.1073 -0.1093 -0.1343
89790W        W32702  13.956   9.142   2.285  0.0911 -0.1796 -0.0926
89791W        W32703  15.135   7.883  31.213  0.1003 -0.1114 -0.0646
89792W        W32704  14.469   9.901   2.015 -0.2650 -0.0113  0.0335
89793W        W32705  14.578   7.842  31.481 -0.1654  0.2766  0.2429
89794W        W32706  13.040  10.300   4.110 -0.1333  0.0907  0.1019
89795W        W32707  12.293   8.848   1.439 -0.0553 -0.2948 -0.0762
89796W        W32708  12.807   8.079  30.852  0.3194 -0.2566  0.0728
89797W        W32709  12.712   9.248   1.406 -0.3545 -0.0071  0.0785
89798W        W32710  15.888   7.693   3.536 -0.1588 -0.1899 -0.1068
89799W        W32711  12.633  10.379   2.768  0.1813  0.0613 -0.0619
89800W        W32712  12.698  11.959  31.769 -0.1039  0.2226  0.4211
89801W        W32713  13.010   8.570  30.751  0.0227  0.3405 -0.2503
89802W        W32714  13.910   9.201   0.709  0.1626  0.3467 -0.1193
89803W        W32715  15.293   7.475   2.302  0.2768  0.2814 -0.0322
89804W        W32716  12.863   9.469  31.204 -0.1080 -0.0826  0.1521
89805W        W32717  13.220   9.849   0.120  0.1170  0.1120 -0.0623
89806W        W32718  13.209  10.433   0.028 -0.0153 -0.1960  0.1758
89807W        W32719  13.465   9.751   1.885 -0.1174  0.0022  0.4443
89808W        W32720  12.370  11.881   1.553  0.0083  0.0961  0.1029
89809W        W32721  11.712   6.452   0.078  0.0690 -0.0101 -0.0392
89810W        W32722  16.659   8.687  31.308  0.3243  0.3584 -0.1250
89811W        W32723  10.590  10.516   2.864 -0.3643  0.2007  0.1294
89812W        W32724  14.077   6.624   3.334 -0.1085  0.1309 -0.4662
89813W        W32725  11.545   8.819   0.125 -0.0897  0.2023  0.1285
89814W        W32726  14.083   8.834  30.699  0.0269  0.2426 -0.0571
89815W        W32727  12.875   9.829   2.502 -0.1447  0.2143  0.0220
89816W        W32728  11.068  10.008   2.317  0.0326 -0.0513 -0.1503
89817W        W32729  11.589   9.168  31.469  0.2074  0.2785  0.0910
89818W        W32730  14.905  10.325   4.078  0.2722  0.0813 -0.0048
89819W        W32731  13.013   8.569  30.249 -0.2508 -0.1060  0.0121
89820W        W32732  14.432  11.252   3.683 -0.1957 -0.2552 -0.3759
89821W        W32733  11.831   7.139   1.455  0.1622 -0.0215  0.0864
89822W        W32734  13.084   8.812   0.128 -0.1081  0.1142  0.0640
89823W        W32735  11.503  10.051  31.582 -0.0239 -0.0529  0.0511
89824W        W32736  11.624   8.733   2.273 -0.2614  0.0641  0.1238
89825W        W32737  13.748  11.343   2.657 -0.0009  0.4384  0.0795
89826W        W32738  12.393   8.947   0.937  0.0352  0.2142 -0.0038
89827W        W32739  15.265  11.731  29.269 -0.3094  0.0147  0.1071
89828W        W32740  14.244   9.040   1.489  0.3351  0.0470  0.1077
89829W        W32741  12.707   9.919  31.247  0.1245  0.2106  0.2695
89830W        W32742  13.986  10.249   0.935  0.0599 -0.1930 -0.1380
89831W        W32743  14.595  11.352   2.147 -0.2489  0.1305 -0.3937
89832W        W32744  11.574   7.769   1.979 -0.0231 -0.0723  0.0062
89833W        W32745  13.496  10.126   1.441  0.0688  0.0774  0.3766
89834W        W32746  15.435   9.765   3.218  0.3767 -0.0757 -0.0045
89835W        W32747  14.128   7.588   0.747 -0.2107  0.0370 -0.0428
89836W        W32748  13.740   8.421   1.136  0.2954  0.1945 -0.1505
89837W        W32749  12.641  10.791   0.973 -0.2497 -0.0898  0.0579
89838W        W32750  14.391   9.417   2.168 -0.3420  0.0612  0.0162
89839W        W32751  14.067   8.243   2.615  0.1269  0.0232 -0.0823
89840W        W32752  14.098  10.370  31.791 -0.1760  0.1001  0.1649
89841W        W32753  14.667   8.656   0.099 -0.3086 -0.2674 -0.2294
89842W        W32754  13.237   9.455   2.172  0.0726 -0.0280 -0.1062
89843W        W32755  12.270  11.895   2.798 -0.0699  0.1132 -0.0368
89844W        W32756  12.466   9.288  31.822  0.0668 -0.0032  0.1515
89845W        W32757  13.021   8.375   1.915 -0.1861  0.0618 -0.0458
89846W        W32758  12.988   9.327   0.624  0.2008  0.1179 -0.1130
89847W        W32759  14.116  10.890  31.754  0.1902  0.0520  0.0932
89848W        W32760  14.270  10.257   2.301  0.0324 -0.3341  0.0744
89849W        W32761  13.332   8.938   0.486 -0.0709  0.3859  0.0737
89850W        W32762  14.299  10.683   1.266 -0.1577  0.1356 -0.4612
89851W        W32763  12.436   7.925   1.424 -0.2613  0.1683  0.0734
89852W        W32764  14.562   8.815   0.917 -0.0910 -0.1209 -0.2008
89853W        W32765  13.712   7.535  31.280 -0.1057 -0.2517  0.1500
89854W        W32766  11.999   9.190   2.900 -0.2900  0.2084 -0.1363
89855W        W32767  10.996   9.216  31.209 -0.3222  0.0406  0.1771
89856W        W32768  11.469   9.489  30.738 -0.0972 -0.1166  0.1242
89857W        W32769  13.158   7.875   2.456  0.3066 -0.0143  0.1711
89858W        W32770  12.842   8.036   3.996 -0.1487 -0.0092 -0.4130
89859W        W32771  11.037   8.145   2.847 -0.1355 -0.1770 -0.1161
89860W        W32772   9.590   8.832   0.314  0.2938  0.2746  0.0296
89861W        W32773  12.915   8.481  31.809  0.0659  0.0430  0.2634
89862W        W32774  15.050  12.211   0.014  0.1781  0.2312 -0.0606
89863W        W32775  11.789   8.260   0.212 -0.1833  0.0909 -0.0247
89864W        W32776  11.352   8.348  31.901 -0.0146 -0.2230  0.0164
89865W        W32777  14.654  10.371  31.783  0.3317  0.0938  0.0651
89866W        W32778  14.207  10.697   0.226 -0.1512  0.1399  0.0578
89867W        W32779  12.945   7.867   1.491 -0.1600  0.0501 -0.1550
89868W        W32780  13.683  10.525   2.656 -0.1448  0.3590  0.1114
89869W        W32781  11.628  10.472  31.361  0.4350  0.2000 -0.2930
89870W        W32782  13.176   8.590   2.399 -0.1770  0.1353 -0.0340
89871W        W32783  12.288   8.137   2.428 -0.0944 -0.1726  0.0019
89872W        W32784  13.482   6.612   0.077  0.0356  0.1446 -0.0276
89873W        W32785  13.721   8.929   1.471 -0.1841 -0.2476 -0.0477
89874W        W32786  13.414   9.394   0.927  0.0396  0.0828 -0.1273
89875W        W32787  14.147  11.409  30.835  0.0526 -0.0481  0.0469
89876W        W32788  13.128  10.241   2.741  0.0046  0.0332  0.0335
89877W        W32789  12.340  10.875   2.625 -0.1309  0.3065  0.1405
89878W        W32790  11.652   6.798   2.773  0.2594  0.0982  0.0660
89879W        W32791  14.353   9.515   0.477 -0.0844 -0.0391 -0.1399
89880W        W32792  12.733   9.248   2.273  0.0225  0.1121  0.0133
89881W        W32793  14.989  10.389   0.629 -0.2804  0.2640 -0.0006
89882W        W32794  14.888   8.646   1.871  0.0530  0.2262 -0.3244
89883W        W32795  14.444   9.931  31.463  0.0485 -0.2184  0.2867
89884W        W32796  12.502   6.870   2.097  0.2101  0.0811  0.1887
89885W        W32797  11.292   8.774   3.700  0.0725  0.1097 -0.2596
89886W        W32798  14.953   9.318   3.285  0.1199  0.0701  0.3810
89887W        W32799  11.938   7.310   0.944 -0.1259  0.0908  0.0037
89888W        W32800  13.320   9.207  31.080 -0.0589  0.0049 -0.2026
89889W        W32801  13.543  11.999  31.262 -0.0826  0.0539  0.2223
89890W        W32802  12.147   9.314   1.393  0.1069  0.3681  0.1509
89891W        W32803  13.168   9.857   0.748 -0.0776  0.1668 -0.5890
89892W        W32804  13.759  10.187   2.263 -0.0702  0.2141 -0.0734
89893W        W32805  12.012   9.248   0.912 -0.3413 -0.0748 -0.2548
89894W        W32806  14.626   9.388   1.494 -0.0713  0.0822  0.2376
89895W        W32807  12.016   7.621  31.036  0.2489 -0.1640 -0.0623
89896W        W32808  14.460   9.191  31.879  0.2993  0.0707  0.2051
89897W        W32809  13.085  10.145   1.176  0.0763  0.3383  0.2947
89898W        W32810  13.517  11.517   3.150 -0.2588 -0.1307  0.0028
89899W        W32811  12.594  10.022   2.163 -0.2441 -0.0026  0.3474
89900W        W32812  14.080   9.733   0.858 -0.0760 -0.1925  0.0895
89901W        W32813  11.438   8.533   2.728 -0.1682 -0.2199  0.0838
89902W        W32814  13.815  10.560   0.533 -0.1733  0.0231  0.2139
89903W        W32815  13.760   7.852   1.015 -0.2323 -0.0797 -0.1308
89904W        W32816  14.091   9.272   3.124 -0.0913 -0.3067 -0.1110
89905W        W32817  12.454   7.386   1.818 -0.1604 -0.1857  0.2490
89906W        W32818  13.628   7.888   2.235  0.0721  0.1125 -0.0921
89907W        W32819  11.611  11.043   2.045  0.0718  0.3655  0.1906
89908W        W32820  11.983   8.284   1.344  0.0599 -0.1822 -0.2705
89909W        W32821  12.261   8.467   6.383 -0.0206  0.1998 -0.1634
89910W        W32822  10.173   8.477   1.691  0.1926  0.1367 -0.1791
89911W        W32823  13.457   8.730   3.064 -0.3696  0.0544 -0.1168
89912W        W32824  15.344   9.059   4.627 -0.1736 -0.3367 -0.1490
89913W        W32825  11.734   6.879   4.548  0.2311  0.2108  0.0505
89914W        W32826  14.568  11.391   4.128 -0.3255 -0.0853 -0.0790
89915W        W32827  12.807   6.832   6.398  0.1473 -0.2412  0.0210
89916W        W32828  11.902  11.328   6.423 -0.2500  0.1058  0.3246
89917W        W32829  13.513  10.859   6.222  0.0485  0.4178 -0.0609
89918W        W32830  13.573  10.092   3.673  0.1240 -0.1890  0.0454
89919W        W32831  12.844   8.329   5.205 -0.3103 -0.2292 -0.1154
89920W        W32832  11.055   9.652   5.162  0.3500  0.3399  0.1902
89921W        W32833  10.763   8.508   3.099 -0.3950 -0.0117  0.1579
89922W        W32834   9.934   7.685   4.519  0.0256  0.3037 -0.1505
89923W        W32835  12.813   8.530   6.505  0.0949  0.0819  0.0422
89924W        W32836  12.817   9.444   2.853  0.1953  0.1078 -0.0228
89925W        W32837  12.338   7.820   5.823  0.1262 -0.0964 -0.1402
89926W        W32838  12.307   7.683   3.748  0.1132  0.0935  0.2003
89927W        W32839  12.205  10.250   4.678 -0.0075 -0.1292 -0.3021
89928W        W32840  11.891   8.445   6.805 -0.1552 -0.2928 -0.1020
89929W        W32841  13.105   5.692   7.611  0.0315 -0.0018  0.5881
89930W        W32842  14.468   9.739   3.897  0.2545  0.1223 -0.0736
89931W        W32843  10.677   7.865   2.342 -0.0930  0.2880 -0.2286
89932W        W32844  11.202   7.313   5.070  0.1568  0.2604  0.1219
89933W        W32845  11.928   9.880   5.968  0.0741  0.3411 -0.1083
89934W        W32846  13.691   8.155   4.790 -0.1505 -0.0308 -0.0711
89935W        W32847  13.945   8.925   4.488 -0.0326  0.0343 -0.0122
89936W        W32848  10.735  10.155   5.575  0.1984  0.0250 -0.0882
89937W        W32849  12.758  10.928   5.949  0.1548  0.0353  0.2052
89938W        W32850  13.094   8.980   7.086 -0.0735  0.1642 -0.0378
89939W        W32851  12.597  10.014   4.306 -0.1675 -0.2094 -0.1824
89940W        W32852  10.554  10.305   4.570  0.1590 -0.0240 -0.3006
89941W        W32853  12.484   9.106   4.185  0.3163 -0.0270  0.2618
89942W        W32854  14.453   9.651   5.091  0.1003 -0.0816 -0.0690
89943W        W32855  14.347   9.777   6.563 -0.0529 -0.1776 -0.1059
89944W        W32856  11.811  11.036   6.782  0.3041  0.2774  0.0288
89945W        W32857  11.077  10.090   3.985 -0.1332 -0.2498  0.1050
89946W        W32858  14.359   9.669   6.044  0.1710  0.1877 -0.0824
89947W        W32859  11.823  10.876   6.282 -0.2146  0.2090 -0.1630
89948W        W32860  13.218   9.119   6.497  0.0614 -0.0340  0.1078
89949W        W32861  14.127   8.219   6.237 -0.1368  0.1750  0.1461
89950W        W32862  12.098  10.517   2.907 -0.4803  0.0996 -0.3518
89951W        W32863  12.252   9.942   5.587  0.0211  0.3047 -0.0984
89952W        W32864  12.871   9.794   5.933  0.1075 -0.1371  0.2203
89953W        W32865  12.562   9.582   5.575 -0.2199 -0.1746  0.3325
89954W        W32866  15.966   9.231   6.243  0.3025  0.0582  0.0335
89955W        W32867  12.910   9.613   4.333 -0.2785 -0.0922  0.2232
89956W        W32868  14.595   8.590   4.562  0.0779 -0.0902 -0.0606
89957W        W32869  12.398   9.489   3.170 -0.2458 -0.3532  0.1484
89958W        W32870  13.305   9.171   5.725 -0.0291  0.0792 -0.1242
89959W        W32871  12.393   8.171   5.134  0.0967 -0.0202  0.2093
89960W        W32872  11.341  10.514   5.613  0.2683 -0.1661  0.0901
89961W        W32873  13.633   8.305   6.175 -0.0338 -0.1207  0.0404
89962W        W32874  12.688  10.399   6.683  0.0678 -0.0681  0.1297
89963W        W32875  13.355   8.827   4.576  0.0334  0.1510  0.1199
89964W        W32876  13.432   7.693   5.104 -0.0560  0.1046  0.0113
89965W        W32877  12.252   9.220   6.434 -0.1522 -0.2484  0.0843
89966W        W32878  12.044   9.026   3.840  0.3240  0.0214 -0.0996
89967W        W32879  12.883  10.669   2.443 -0.3336 -0.2285  0.0703
89968W        W32880  14.820  10.031   5.054  0.2153  0.1155  0.0600
89969W        W32881  13.102  11.044   3.424 -0.2395 -0.1062  0.1444
89970W        W32882  11.614   8.867   3.095 -0.0774 -0.0191 -0.2362
89971W        W32883  11.567   8.138   6.536  0.3503  0.2228 -0.1401
89972W        W32884  11.350   8.352   6.990  0.3628  0.0987 -0.2478
89973W        W32885  12.546   8.013   2.887  0.1954  0.2390  0.3189
89974W        W32886  14.877  11.007   6.495 -0.0920 -0.0581 -0.0998
89975W        W32887  11.892   9.671   6.486 -0.0690 -0.1532  0.0271
89976W        W32888  13.879   8.669   3.392  0.1371 -0.2071  0.0502
89977W        W32889  10.868   8.121   5.922 -0.0539  0.0630  0.0805
89978W        W32890  14.654   9.534   5.696  0.2911  0.1642  0.1144
89979W        W32891  12.987   8.886   2.813  0.0168  0.2424  0.1852
89980W        W32892  13.459   7.481   4.635 -0.0390 -0.2732  0.0312
89981W        W32893  13.599   8.221   7.026 -0.0721 -0.0442 -0.0365
89982W        W32894  12.290  11.334   2.898  0.1197 -0.1761 -0.1600
89983W        W32895  12.808  10.193   3.248 -0.2652 -0.0374 -0.1536
89984W        W32896  15.105  10.953   6.955 -0.0075  0.1265  0.0714
89985W        W32897  14.196   9.440   4.242 -0.1736 -0.3223  0.0152
89986W        W32898  12.378   9.914   7.242 -0.1028 -0.0723 -0.2574
89987W        W32899  12.707   7.736   6.797  0.0678  0.0540 -0.0103
89988W        W32900  13.098  10.133   7.768  0.0229 -0.5064 -0.2641
89989W        W32901  10.854  10.614   3.374  0.1245  0.2963 -0.0169
89990W        W32902  10.441   8.898   5.446  0.0164 -0.1953 -0.1505
89991W        W32903  11.750   8.721   3.543  0.0460 -0.1273  0.0397
89992W        W32904  10.641   6.447   5.644  0.1433 -0.0394 -0.0904
89993W        W32905  11.002   8.777   5.738  0.1101 -0.1094 -0.1485
89994W        W32906  14.254   8.565   4.249 -0.2267 -0.1745  0.0312
89995W        W32907  11.355   7.724   5.566  0.2003 -0.2079  0.0090
89996W        W32908  14.315   7.125   4.014 -0.2096 -0.1996  0.0944
89997W        W32909  12.804   9.175   5.365 -0.2975 -0.0302 -0.1021
89998W        W32910  15.804  11.367   4.130  0.0899  0.2494 -0.1174
89999W        W32911  13.664   8.818   6.304  0.0214  0.0100  0.3551
90000W        W32912  12.073   8.998   2.346  0.1564 -0.1882  0.2458
90001W        W32913  11.478   8.917   6.065 -0.3503  0.0160  0.0304
90002W        W32914  10.645   8.516   4.739  0.1266 -0.0670 -0.2649
90003W        W32915  11.223   7.304   6.504  0.0044  0.1844 -0.1023
90004W        W32916  12.610   5.227   4.919 -0.0651  0.1918  0.3347
90005W        W32917  14.393   8.009   5.828  0.0968 -0.3400 -0.0790
90006W        W32918  11.955   7.932   4.048 -0.1350  0.1389 -0.1777
90007W        W32919  12.701   8.659   4.108  0.0522 -0.0183 -0.1117
90008W        W32920  12.109   7.702   5.112  0.2134  0.0148 -0.1713
90009W        W32921  12.370   8.684   3.694  0.0321 -0.0856 -0.1343
90010W        W32922  14.464   6.683   7.173  0.1806  0.0739 -0.0144
90011W        W32923  13.729  10.291   4.725 -0.2990 -0.1048 -0.2198
90012W        W32924  13.617  10.480   6.706 -0.0700 -0.0305 -0.1463
90013W        W32925  13.347  10.686   3.842 -0.1653  0.1516 -0.1029
90014W        W32926  11.371   6.697   5.522  0.2928  0.0603 -0.3065
90015W        W32927  11.212   7.614   2.862  0.3301 -0.1995 -0.0332
90016W        W32928  12.390  11.388   4.585 -0.0460  0.0049  0.0970
90017W        W32929  12.501  10.090   5.132 -0.2263  0.1337 -0.2263
90018W        W32930  11.496   9.221   3.822  0.1166 -0.2984 -0.2931
90019W        W32931  12.971  12.548   6.326  0.0721  0.0917 -0.2761
90020W        W32932  13.379   9.142   4.933 -0.0053 -0.2092 -0.0872
90021W        W32933  10.547   9.457   6.665 -0.1086  0.1792  0.0705
90022W        W32934  12.386   7.345   7.108  0.1372 -0.0320  0.0977
90023W        W32935  13.752   8.965   7.357  0.1997 -0.0391  0.1943
90024W        W32936  13.671  10.024   5.621  0.0017 -0.1182 -0.0294
90025W        W32937  11.776   8.406   3.113 -0.4625 -0.2422  0.0245
90026W        W32938  14.486  10.280   5.327  0.3138 -0.2285  0.1692
90027W        W32939   9.859   9.940   4.403  0.1686 -0.2229 -0.0023
90028W        W32940  11.301   8.667   5.333 -0.3205 -0.2832 -0.2277
90029W        W32941  12.789  10.887   5.357 -0.2418 -0.1104  0.1521
90030W        W32942  14.046   8.354   5.768 -0.0729 -0.2260 -0.3792
90031W        W32943  11.027   8.247   6.418  0.1910  0.0096  0.1505
90032W        W32944  12.617   6.376   8.042 -0.4662  0.2563  0.0443
90033W        W32945  11.246   9.276   3.384  0.0305  0.4479 -0.0312
90034W        W32946  10.680   8.407   5.505  0.2177  0.2007  0.1029
90035W        W32947  14.660   8.257   4.148  0.1175 -0.3075  0.2326
90036W        W32948  14.424   7.796   4.110 -0.0487 -0.4061  0.1698
90037W        W32949  11.208   9.988   5.616  0.0960  0.0563 -0.1207
90038W        W32950  14.715   9.506   4.241 -0.2451  0.1087 -0.1860
90039W        W32951  14.268   8.924   3.438 -0.0254  0.4396 -0.0187
90040W        W32952  13.151   8.546   3.851 -0.2765  0.0952  0.0193
90041W        W32953  11.390  10.561   7.871  0.1692  0.0561  0.0265
90042W        W32954  14.028   9.812   4.683  0.1605  0.3044  0.4072
90043W        W32955  12.906   9.822   4.767  0.0707 -0.2401 -0.1309
90044W        W32956  14.251   9.331   3.715  0.1286  0.1955  0.1016
90045W        W32957  14.405  10.278   4.806 -0.0689 -0.0118 -0.1986
90046W        W32958  10.936   7.781   6.376  0.1009 -0.1395 -0.1573
90047W        W32959  13.798   9.962   8.083 -0.5568 -0.2076 -0.0875
90048W        W32960  13.190   9.422   5.291 -0.0462 -0.0785  0.0448
90049W        W32961  11.787   6.806   6.822  0.1965 -0.1374 -0.1202
90050W        W32962  11.919   9.550   3.841  0.1286 -0.1357  0.5005
90051W        W32963  11.820   7.812   3.529 -0.0969  0.0323 -0.2254
90052W        W32964  11.284  11.973   3.610 -0.2566  0.3724 -0.2025
90053W        W32965  12.860   7.917   6.030  0.2138  0.0625  0.0992
90054W        W32966  14.557   7.966   6.288  0.1925 -0.1847 -0.2331
90055W        W32967  13.033   7.961   7.866 -0.0020  0.2159  0.1814
90056W        W32968  15.334   8.427   7.163  0.4600 -0.1055  0.3839
90057W        W32969  12.842   9.052   3.786  0.2418 -0.3905  0.1058
90058W        W32970  13.567   8.951   4.161  0.1937  0.1888  0.1944
90059W        W32971  11.855   8.943   1.693  0.3283  0.0759 -0.3078
90060W        W32972  11.870   8.892   6.476  0.2128 -0.1940  0.1757
90061W        W32973  10.563   7.838   5.512 -0.0114 -0.0950 -0.4993
90062W        W32974   9.615  11.564   5.608  0.2806  0.2091 -0.1090
90063W        W32975  13.585  10.162   7.718  0.1866 -0.0368 -0.2147
90064W        W32976  13.275   9.382   3.980 -0.0706  0.1061  0.2522
90065W        W32977  12.898   7.401   7.688 -0.1722  0.2448 -0.1432
90066W        W32978  13.029   8.439   4.393 -0.2202 -0.2090  0.0119
90067W        W32979  12.845   8.753   4.681 -0.0723 -0.0682  0.0669
90068W        W32980  12.491  10.716   4.553 -0.2371  0.0890 -0.5515
90069W        W32981  11.562   7.391   4.702 -0.1954  0.2154 -0.1519
90070W        W32982  12.664  10.910   6.522  0.0540  0.0719  0.0771
90071W        W32983  13.107  10.111   3.696 -0.3584 -0.1285  0.0148
90072W        W32984  12.378   9.689   7.847 -0.1081  0.0909  0.1877
90073W        W32985  11.162   9.646   3.718 -0.1403 -0.0744 -0.1140
90074W        W32986  13.625   7.327   5.909  0.2922 -0.1488 -0.6425
90075W        W32987  10.715   9.529   4.767  0.1690 -0.3565  0.1591
90076W        W32988  12.759   8.419   3.607  0.2855  0.0908  0.1994
90077W        W32989  11.107   9.399   2.879 -0.0651  0.1755  0.0646
90078W        W32990  12.419   7.905   4.710 -0.3050 -0.1355  0.0839
90079W        W32991  14.468   9.678   4.600 -0.0586 -0.0475  0.2363
90080W        W32992  12.425   7.160   6.264 -0.0672  0.0116 -0.1258
90081W        W32993  13.117   8.040   6.454 -0.0011  0.3325 -0.0281
90082W        W32994  10.320   8.832   4.910  0.0476 -0.0119 -0.0136
90083W        W32995  12.930   9.433   6.973  0.2242 -0.1966  0.3893
90084W        W32996  14.217   8.665   2.420  0.2401  0.3112 -0.0608
90085W        W32997  14.038   9.226   6.241  0.1353  0.0340  0.1002
90086W        W32998  12.198   8.344   7.439 -0.1385  0.0423 -0.2784
90087W        W32999  11.320   8.947   1.634  0.0931 -0.1722 -0.2444
90088W        W33000  14.417   8.829   6.591  0.3229  0.0836  0.1486
90089W        W33001  10.962   7.719   5.240 -0.1207  0.0493 -0.2443
90090W        W33002  11.751   8.889   5.205  0.1235  0.0635  0.1675
90091W        W33003  11.348   9.292   6.892  0.1835  0.2084  0.1278
90092W        W33004  11.607   8.536   1.490 -0.1908 -0.1140 -0.2321
90093W        W33005  11.724   9.048   5.682  0.0818  0.1408  0.2808
90094W        W33006  11.886   7.573   7.038 -0.0691  0.0770 -0.1955
90095W        W33007  13.541   9.343   6.153 -0.0105  0.0207  0.1304
90096W        W33008  11.945   7.697   4.544  0.2090 -0.0258 -0.4554
90097W        W33009  12.352   8.983   4.829  0.2865 -0.0285  0.0915
90098W        W33010  11.968   8.154   4.855 -0.4763  0.0298 -0.3669
90099W        W33011  14.972   9.205   6.004  0.2443  0.2346  0.1339
90100W        W33012  12.737   9.321   6.468  0.0107 -0.0766 -0.2402
90101W        W33013  11.830  10.550   6.889 -0.0369  0.1445 -0.0984
90102W        W33014  12.447   7.661   6.283  0.2209  0.2192  0.0459
90103W        W33015  15.260  12.272   4.652 -0.1769  0.0321 -0.2565
90104W        W33016  13.301   9.818   7.361  0.3104  0.3335 -0.0066
90105W        W33017  10.581   9.263   2.885  0.0422  0.3108 -0.1895
90106W        W33018  12.041   7.436   6.104  0.1826  0.2233  0.1420
90107W        W33019  12.406   9.543   4.528  0.4237 -0.3736  0.0010
90108W        W33020  13.605   8.002   6.560  0.0655 -0.2353  0.0907
90109W        W33021  11.490   9.671   5.849  0.1959  0.1789  0.2977
90110W        W33022  12.728  10.774   3.202 -0.1433  0.1011  0.0246
90111W        W33023  10.288   9.876   5.882 -0.1949 -0.1423  0.0147
90112W        W33024  14.813   7.387   4.062  0.1776  0.1165  0.0621
90113W        W33025  14.174  10.109   3.834  0.0260 -0.0275  0.3150
90114W        W33026  13.381   7.832   6.124  0.1956 -0.2580  0.0930
90115W        W33027  13.806   7.475   7.613 -0.6146  0.1389 -0.1212
90116W        W33028  14.250   9.872   5.604  0.3616  0.2396 -0.1597
90117W        W33029  13.896   7.613   9.942 -0.2357 -0.0323  0.1814
90118W        W33030  11.776   8.478   6.209 -0.1864  0.3165 -0.1143
90119W        W33031  14.943   9.528   5.243  0.0466  0.2201  0.0407
90120W        W33032  11.320   6.918   7.487 -0.1217  0.0489 -0.2894
90121W        W33033  13.429  10.426   8.811 -0.0954  0.1852 -0.1723
90122W        W33034  11.695   8.594   7.280 -0.2748  0.0772  0.0556
90123W        W33035  12.427   6.705   3.315  0.2734 -0.1545 -0.3608
90124W        W33036  11.924   7.340   3.849  0.0689 -0.3153  0.0173
90125W        W33037  13.482   9.350   7.136 -0.1439 -0.1614  0.1447
90126W        W33038  13.937   9.827   5.178 -0.0253  0.1204  0.2441
90127W        W33039  13.442   9.359   4.442 -0.1747 -0.4916 -0.0036
90128W        W33040  13.029   7.443   5.844  0.1002 -0.0962 -0.5180
90129W        W33041  12.383   8.264   6.896  0.1427  0.0287 -0.0289
90130W        W33042  13.325   8.402   5.396 -0.0227 -0.0418 -0.1950
90131W        W33043  12.755  11.294   3.654 -0.1737  0.1974  0.2515
90132W        W33044  13.250   8.372   4.843 -0.0676 -0.2049 -0.0791
90133W        W33045  12.063   7.963   6.244 -0.0641 -0.2202 -0.0757
90134W        W33046  12.942  10.743   4.870  0.1180 -0.2840 -0.1819
90135W        W33047  13.632   7.954   4.348 -0.3688  0.2199  0.0083
90136W        W33048  12.722   8.393   6.004  0.0821  0.1427  0.3206
90137W        W33049  13.129   8.795   6.071  0.0505 -0.1920  0.1711
90138W        W33050  12.169   9.540   8.246 -0.0063 -0.0603  0.0849
90139W        W33051  11.478   9.495   7.763 -0.0271 -0.2641 -0.1895
90140W        W33052  13.995  10.138   6.670 -0.1546 -0.0685  0.1097
90141W        W33053  16.689   8.030   3.319  0.0066  0.1110 -0.0184
90142W        W33054  13.031   7.939   5.506 -0.2680 -0.0164  0.0448
90143W        W33055  13.567   8.623   5.829  0.2376  0.0062  0.2559
90144W        W33056  13.750   9.285   3.880  0.0790  0.2537  0.0924
90145W        W33057  10.868   7.581   5.855 -0.1185 -0.0314  0.0022
90146W        W33058  12.872   9.933   7.094  0.1929 -0.0363 -0.0249
90147W        W33059  12.208   8.264   3.314 -0.0375  0.2159 -0.1363
90148W        W33060  13.404   7.107   7.567 -0.0504  0.0517 -0.1639
90149W        W33061  12.321  10.246   3.258  0.4140 -0.0367  0.0109
90150W        W33062  12.758  10.301   4.680 -0.1148  0.1648  0.2336
90151W        W33063  13.070   9.062   4.269  0.0949  0.0424 -0.1794
90152W        W33064  10.950   9.016   4.080 -0.2731  0.0430 -0.3660
90153W        W33065  10.660  10.238   6.084 -0.0461  0.1995  0.1878
90154W        W33066  10.846   8.211   2.067  0.2165 -0.2049 -0.2502
90155W        W33067  12.887   9.667   3.800  0.1032  0.0885 -0.0644
90156W        W33068  13.205  10.121   5.770 -0.2345 -0.3228  0.1571
90157W        W33069  14.433  10.173   6.921 -0.0443 -0.0133 -0.0663
90158W        W33070  12.742   7.575   3.018  0.1989 -0.0214  0.1684
90159W        W33071  12.624   7.631   8.149  0.0829  0.2671  0.0502
90160W        W33072  11.507  10.837   4.365  0.1998  0.2066 -0.0542
90161W        W33073  14.471   8.029   3.627  0.0485 -0.1928 -0.0895
90162W        W33074  11.228   9.263   5.474 -0.0730 -0.4175  0.1219
90163W        W33075  12.141   8.301   5.920  0.2274 -0.1066  0.0522
90164W        W33076  12.048  10.523   5.666  0.2236  0.1584 -0.2221
90165W        W33077  13.097   8.415   6.942 -0.2185  0.1097  0.2696
90166W        W33078  13.387   9.663   5.702 -0.0747  0.2629  0.0750
90167W        W33079  12.598   9.512   5.064 -0.0637 -0.0988  0.1286
90168W        W33080  14.602   9.272   6.401  0.2175 -0.0155 -0.0940
90169W        W33081  11.539  10.474   6.428 -0.2448 -0.1650  0.0319
90170W        W33082  12.581   8.893   6.257 -0.0540 -0.0811 -0.3587
90171W        W33083  14.376  10.309   6.384  0.1346 -0.1188 -0.0121
90172W        W33084  12.948  10.325   5.164  0.2135 -0.1732 -0.0495
90173W        W33085  10.280   8.070   7.634  0.0993  0.0219  0.1105
90174W        W33086  12.874   9.283   5.950  0.0460  0.0206  0.0139
90175W        W33087  13.938   9.604   5.851  0.0874 -0.4048 -0.2489
90176W        W33088  11.071   7.419   3.273 -0.0399 -0.2161 -0.2647
90177W        W33089  13.697  11.023   3.978  0.0650 -0.1524  0.0360
90178W        W33090  12.314  10.741   7.001 -0.0732  0.0294 -0.1259
90179W        W33091   9.927   9.372   6.091 -0.2377 -0.2199 -0.0813
90180W        W33092  11.552  10.539   5.153 -0.1958  0.1168 -0.3123
90181W        W33093  13.761  10.711   4.412  0.2139 -0.0930 -0.1755
90182W        W33094  13.696   8.687   4.895 -0.1517  0.4164  0.1282
90183W        W33095  13.977  10.287   5.205 -0.2124  0.1917  0.1887
90184W        W33096  13.534   8.945   0.968 -0.0103  0.4243 -0.2832
90185W        W33097  12.013   9.468   5.610 -0.0209 -0.1076  0.2976
90186W        W33098  11.095  10.170   3.515 -0.0523  0.1681 -0.0948
90187W        W33099  14.730  11.083   2.815  0.0850  0.1120 -0.3469
90188W        W33100  11.901   9.374   4.300 -0.1582  0.1014 -0.2754
90189W        W33101  13.743  10.891   7.010 -0.1048  0.1888 -0.0412
90190W        W33102  14.881   7.767   2.478 -0.1427  0.3547  0.1390
90191W        W33103  13.914   9.704   6.350  0.1569 -0.1879 -0.4731
90192W        W33104  14.415   7.638   4.790 -0.2180 -0.4154  0.0220
90193W        W33105  13.181  10.392   7.209 -0.0309  0.1716 -0.1372
90194W        W33106  12.193   8.683   5.553 -0.1699 -0.4403  0.1228
90195W        W33107  12.707   9.063   3.236 -0.1270 -0.0827  0.1989
90196W        W33108  12.721   8.663   7.129 -0.1647 -0.0051 -0.4307
90197W        W33109  15.118   8.372   6.296  0.2211  0.0423  0.2957
90198W        W33110   9.826  10.482   7.017 -0.0969 -0.2128 -0.0851
90199W        W33111  14.782  12.252   3.274 -0.1093 -0.0183  0.0710
90200W        W33112  11.734  10.168   2.882 -0.2785 -0.2446  0.1818
90201W        W33113  11.413   9.108   4.417  0.1461 -0.0788 -0.1014
90202W        W33114  14.173   8.075   5.040 -0.2483 -0.0375 -0.0492
90203W        W33115  13.058  10.728   2.881  0.2529  0.2839 -0.0911
90204W        W33116  13.331   6.888   5.808  0.2130 -0.2876  0.0743
90205W        W33117  12.049   9.880   4.228 -0.0951 -0.2355  0.0627
90206W        W33118  11.489   9.932   6.325  0.0003 -0.0076 -0.2533
90207W        W33119  11.853   9.306   6.064 -0.4675 -0.2298 -0.0347
90208W        W33120  10.421   9.438   3.812 -0.2308  0.1819  0.1343
90209W        W33121  13.935   7.697   4.818  0.3229 -0.0498 -0.2452
90210W        W33122  11.257   8.404   5.997 -0.0303 -0.0212 -0.1238
90211W        W33123  14.775   9.113   6.898 -0.1639  0.2678  0.1990
90212W        W33124  11.508   8.658   4.647 -0.1427  0.1813 -0.3199
90213W        W33125  14.732   9.168   3.731  0.0893  0.2725  0.2604
90214W        W33126  12.745   9.843   6.610 -0.0326 -0.2458 -0.3447
90215W        W33127  11.149   7.188   7.067 -0.1048 -0.2452 -0.2471
90216W        W33128  12.815  10.533   3.650  0.1128 -0.0462 -0.0310
90217W        W33129  13.462  10.421   8.192 -0.1296  0.3735  0.0006
90218W        W33130  13.673  10.582   3.400 -0.3384  0.1389  0.0292
90219W        W33131  13.192  10.919   8.092 -0.0687 -0.3856  0.0099
90220W        W33132  11.657   8.343   5.229  0.3009 -0.1068 -0.0993
90221W        W33133  13.557   9.087   3.483 -0.3156  0.1263  0.0556
90222W        W33134  11.280   9.188   4.994 -0.0326 -0.0942  0.0231
90223W        W33135  12.642   9.084   7.422  0.1296 -0.1987  0.0410
90224W        W33136  12.951  10.134   6.274 -0.0424 -0.2054  0.0752
90225W        W33137  10.431   8.937   3.313 -0.1010 -0.1331 -0.0752
90226W        W33138  14.418  10.699   2.804 -0.1396 -0.0124 -0.2352
90227W        W33139  14.118   8.746   6.158 -0.0338  0.0193 -0.2365
90228W        W33140  12.234  11.083   4.934  0.0033  0.3188  0.0506
90229W        W33141  13.797   9.084   5.756  0.1187 -0.0670  0.1296
90230W        W33142  16.112   9.711   6.356 -0.0448  0.4714  0.0496
90231W        W33143  10.443   8.029   6.362  0.0414  0.1479  0.2716
90232W        W33144  12.095   9.664   4.938  0.0539 -0.2212 -0.0724
90233W        W33145  15.426  11.289   6.638 -0.1213 -0.1605 -0.1823
90234W        W33146  12.458   8.291   4.263 -0.0763 -0.3490  0.0617
90235W        W33147  12.203   9.195   5.236 -0.1388  0.1981 -0.1191
90236W        W33148  11.470  10.195   4.272 -0.1881 -0.1253 -0.1373
90237W        W33149  14.569   9.175   5.089 -0.0130  0.1108  0.2749
90238W        W33150  13.901   9.666   6.889  0.0504 -0.0590 -0.1415
90239W        W33151  11.203   9.917   4.604  0.0960  0.1122 -0.1442
90240W        W33152  13.910   6.864   7.648 -0.2036  0.0157  0.2207
90241W        W33153  12.094   8.836   6.051  0.3129  0.0879 -0.1732
90242W        W33154  12.051  10.252   6.325  0.0215 -0.1618 -0.0564
90243W        W33155  11.864   9.243   3.451  0.4465 -0.0756 -0.0864
90244W        W33156  12.491  10.077   6.101  0.0366  0.2195 -0.4210
90245W        W33157  13.529  10.307   4.219 -0.0606 -0.2914 -0.1072
90246W        W33158  13.242  11.676   4.578  0.3380 -0.4668 -0.1579
90247W        W33159  15.202   9.485   5.678 -0.2337 -0.0180 -0.0284
90248W        W33160  12.842   7.850   5.040 -0.2374  0.0222  0.2260
90249W        W33161  13.343   9.577   3.448  0.0571  0.1897  0.0928
90250W        W33162  11.150   8.375   4.877  0.1247  0.2403 -0.2192
90251W        W33163  13.991   7.884   5.481  0.3742 -0.1835  0.2307
90252W        W33164  14.721   7.564   3.051 -0.0757  0.0116 -0.1336
90253W        W33165  11.395   8.587   6.507  0.0886  0.2903 -0.3005
90254W        W33166  10.258   8.531   3.094  0.0613  0.1676  0.3404
90255W        W33167  10.751  10.154   3.123 -0.0492  0.0912 -0.0960
90256W        W33168  11.646   9.443   5.276 -0.0562 -0.0565 -0.2307
90257W        W33169  13.361   7.640   7.483  0.1959 -0.2950  0.1431
90258W        W33170  11.668   6.700   5.921  0.1716 -0.1831  0.0438
90259W        W33171  12.561   8.735   5.171 -0.0050  0.0911 -0.0178
90260W        W33172  12.872   9.708   3.250  0.2637 -0.0028  0.0794
90261W        W33173  15.287  10.678   5.086  0.1418  0.1011 -0.0620
90262W        W33174  12.668   8.301   4.713  0.2823  0.0486  0.2711
90263W        W33175  10.616   7.702   4.941  0.3046 -0.0083  0.0182
90264W        W33176  15.447  11.126   4.480  0.3856 -0.2013  0.1850
90265W        W33177  15.276  10.198   4.913 -0.3528 -0.2315  0.1379
90266W        W33178  11.894   8.406   4.006  0.4230  0.1241 -0.2558
90267W        W33179  15.398  11.020   7.426 -0.1391  0.0549 -0.3760
90268W        W33180  12.114  10.225   3.831  0.1895 -0.0601  0.0746
90269W        W33181  12.508   9.167   7.984 -0.1265 -0.2431 -0.0637
90270W        W33182  12.097   7.252   7.535 -0.1505 -0.0395 -0.2735
90271W        W33183  11.290   8.058   2.295 -0.3584 -0.0884  0.2794
90272W        W33184  12.603   8.091   6.418  0.0263 -0.0029  0.1778
90273W        W33185  13.287  10.753   4.343  0.0679 -0.1126  0.0375
90274W        W33186  14.438  11.021   4.568  0.0356  0.1307 -0.0613
90275W        W33187  12.840   8.757   5.613 -0.0864  0.1393  0.0909
90276W        W33188  12.215  10.655   6.512  0.1043 -0.0367 -0.2028
90277W        W33189  11.343   7.380   6.038 -0.3105 -0.4412 -0.2057
90278W        W33190  13.494   9.662   4.858  0.1522  0.1552 -0.4195
90279W        W33191  12.549   8.210   5.575 -0.0661 -0.1081  0.1605
90280W        W33192  14.346  10.558   4.402  0.0614 -0.0837  0.2636
90281W        W33193  13.995   8.161   4.036  0.2459  0.1282  0.2207
90282W        W33194  13.290   8.558   6.476 -0.1210  0.3608  0.2943
90283W        W33195  11.727   7.080   6.280  0.0360  0.3938 -0.0909
90284W        W33196  11.620   8.886   6.914 -0.0759  0.1388 -0.3595
90285W        W33197  14.479   9.062   5.904  0.1638 -0.2026 -0.1233
90286W        W33198  12.476   7.744   4.250  0.0214  0.1309  0.1103
90287W        W33199  14.015   8.905   3.869 -0.1470 -0.2572 -0.0244
90288W        W33200  14.256  10.951   4.109  0.2444  0.0135  0.0609
90289W        W33201  10.830   8.731   5.148  0.1024 -0.0265  0.0016
90290W        W33202  13.128   8.766   3.422  0.2409  0.0948  0.2662
90291W        W33203  12.763   8.136   7.181  0.1089 -0.0440 -0.0336
90292W        W33204  13.196  10.173   6.743 -0.1783  0.0929 -0.0317
90293W        W33205  12.732   9.923   8.092 -0.0488 -0.0751  0.1957
90294W        W33206  13.967  10.538   3.994  0.1367 -0.0031  0.1478
90295W        W33207  13.853   9.756   3.969 -0.2502  0.3088 -0.0918
90296W        W33208  13.578  10.079   6.342  0.1969  0.0569 -0.1328
90297W        W33209  13.755  10.465   7.325 -0.1109  0.0810 -0.4017
90298W        W33210  11.532  11.349   6.071 -0.1100  0.0619 -0.2167
90299W        W33211  14.035  10.108   6.134  0.1435  0.2324  0.1360
90300W        W33212  11.219   7.195   5.559  0.0107 -0.1317  0.1173
90301W        W33213  12.629   8.697   2.124  0.0013 -0.2641  0.1518
90302W        W33214  12.194   8.595   4.525 -0.0464 -0.1739 -0.1614
90303W        W33215  13.174   8.292   5.937  0.0691  0.1643  0.1175
90304W        W33216  11.706   6.393   5.249  0.0110 -0.0682 -0.2661
90305W        W33217  13.102   8.017   3.268  0.5568  0.0248  0.0122
90306W        W33218  11.001   9.597   6.544 -0.1466 -0.1774  0.2436
90307W        W33219  13.096  10.614   6.289 -0.0544  0.2154 -0.1980
90308W        W33220  11.606   9.168   9.321 -0.1000 -0.0214  0.2059
90309W        W33221  10.487   8.817   7.718  0.1607  0.2776  0.1551
90310W        W33222  14.836   8.102   6.679 -0.4945 -0.0590 -0.1765
90311W        W33223  13.678   9.310   8.181  0.0103 -0.2316 -0.2765
90312W        W33224  10.810   7.564   8.469  0.1103  0.1281 -0.0443
90313W        W33225  13.420   9.591   9.605 -0.3918 -0.0670  0.0644
90314W        W33226  14.424  10.898   9.382  0.0549  0.0753 -0.0752
90315W        W33227  14.129  12.395   9.939  0.0260 -0.3071  0.1637
90316W        W33228  11.743  10.096   6.759 -0.1333 -0.1935  0.0051
90317W        W33229  11.466   8.378   8.284  0.2314 -0.3908  0.1248
90318W        W33230  13.253   7.836   8.698 -0.0117 -0.2620 -0.2316
90319W        W33231  10.396   7.636   9.087 -0.1232 -0.0958 -0.0409
90320W        W33232  10.984   7.680   9.680 -0.0955  0.1266  0.1172
90321W        W33233  12.266   9.467   7.394  0.1076  0.0393 -0.0937
90322W        W33234   9.676  10.137  10.485  0.3171 -0.1720  0.0510
90323W        W33235  11.627   7.989   8.028  0.0121  0.1325 -0.2868
90324W        W33236  12.360  11.381   8.549  0.0599  0.1079  0.2062
90325W        W33237  11.869   7.919   9.085 -0.0091 -0.3766  0.1350
90326W        W33238  12.361  10.282   8.561  0.1445  0.0797  0.0197
90327W        W33239  11.108  10.150   6.470  0.1118  0.3566 -0.2690
90328W        W33240   9.800   9.017   8.226 -0.1207 -0.0041 -0.0790
90329W        W33241   7.652   8.939  10.115 -0.5269 -0.1280 -0.0446
90330W        W33242  13.359   6.264   9.339  0.0681 -0.1691 -0.2284
90331W        W33243  12.179   7.686   8.772 -0.0278  0.0705 -0.1324
90332W        W33244  11.649  10.980   9.744  0.0676 -0.0758  0.0670
90333W        W33245  11.174  12.569   9.545  0.1392 -0.3093 -0.0773
90334W        W33246  10.712   9.035   7.244 -0.1513 -0.1549  0.0559
90335W        W33247  12.506  10.192   7.653  0.0633 -0.5122  0.3166
90336W        W33248  11.490   8.858   7.895  0.1833 -0.0332 -0.0547
90337W        W33249  13.007   9.413   8.896 -0.5314  0.5711 -0.4715
90338W        W33250  11.430   9.875   8.395  0.1567  0.0295  0.1652
90339W        W33251  11.643   8.358   8.758  0.0197  0.1117 -0.4522
90340W        W33252  11.446   8.757   8.946 -0.2394  0.0746 -0.2046
90341W        W33253  12.046  11.058   7.256 -0.0249  0.0167  0.0094
90342W        W33254  13.675  10.048   8.565 -0.2491  0.4945  0.0174
90343W        W33255  10.726   9.934   7.972 -0.0061  0.1200  0.0705
90344W        W33256  12.003  10.684   7.835 -0.0837  0.0592  0.2584
90345W        W33257  13.112   9.349   7.438 -0.3619 -0.1906  0.3354
90346W        W33258  11.889   7.667   7.751 -0.1451  0.1683 -0.0384
90347W        W33259  15.822   7.046   9.683  0.0867  0.0486 -0.1499
90348W        W33260  13.202   6.105   7.317  0.1094 -0.0810 -0.3110
90349W        W33261  10.402  10.941   9.921  0.0853 -0.1929  0.1919
90350W        W33262  10.643   7.277   9.926 -0.0672 -0.0007 -0.2956
90351W        W33263  12.959   8.845   7.810  0.4233  0.0139 -0.2636
90352W        W33264  12.806   7.072   9.250  0.2561 -0.2437  0.2865
90353W        W33265  12.587   9.091   9.551  0.1604  0.1678  0.4501
90354W        W33266  10.291   8.108   9.181  0.0491  0.0723  0.2758
90355W        W33267  14.943  10.628   5.988 -0.1129  0.0840 -0.2224
90356W        W33268  15.307  10.572   9.144 -0.0508 -0.0929  0.0826
90357W        W33269  13.453   9.340   9.142 -0.2698 -0.4441  0.0955
90358W        W33270  10.983   7.449   7.470  0.1044 -0.2410 -0.0689
90359W        W33271  11.311   6.763   6.773 -0.0087  0.3709 -0.1610
90360W        W33272  14.059   7.968   9.056 -0.0666 -0.2683  0.1071
90361W        W33273  11.874   8.751   9.666  0.1801  0.1442  0.2170
90362W        W33274  13.564  12.310  10.290 -0.0299  0.0210 -0.0122
90363W        W33275  13.778  10.543   9.130  0.3099 -0.0971  0.2327
90364W        W33276  13.483   7.316   9.812  0.0504  0.0796  0.1711
90365W        W33277  15.098   8.459   9.219  0.1414  0.1404  0.3094
90366W        W33278  12.660  10.439   7.204 -0.2191 -0.0376 -0.0399
90367W        W33279  12.711  11.344   8.260  0.0909  0.2146  0.2797
90368W        W33280  14.365   8.227   8.757 -0.2377 -0.0963  0.1358
90369W        W33281  13.409   8.447   7.806 -0.2739  0.1721  0.1810
90370W        W33282  12.327   9.895   9.970 -0.0577  0.1708 -0.2076
90371W        W33283  11.589  10.391   7.338 -0.4090  0.1903 -0.3469
90372W        W33284  11.127   9.343   8.555 -0.1318 -0.0105  0.1253
90373W        W33285  11.916  10.312   8.978 -0.0571 -0.3097  0.3354
90374W        W33286   9.701   5.938   9.464  0.0134  0.3172 -0.1596
90375W        W33287  11.186  10.255  10.231  0.0099  0.0879  0.2530
90376W        W33288  14.834   8.227   7.185 -0.1659  0.1234 -0.1915
90377W        W33289  13.330   6.806   9.383 -0.0272 -0.1156 -0.0945
90378W        W33290  12.403  10.862   7.555  0.2451 -0.0840 -0.1897
90379W        W33291  14.555   9.907   9.216  0.0599  0.0263 -0.1437
90380W        W33292  13.851   8.154   8.114 -0.2898  0.1215  0.0314
90381W        W33293  13.096  11.415   7.977  0.1404  0.0728  0.0131
90382W        W33294  10.898   7.897   8.824  0.0003  0.2361 -0.1543
90383W        W33295  11.680   7.425   9.110  0.0840  0.1887  0.0037
90384W        W33296  11.462   8.880   8.410  0.2354 -0.0794 -0.3966
90385W        W33297  10.303   6.702   9.246 -0.2319  0.0449 -0.0101
90386W        W33298  11.940   6.796   9.725  0.2361  0.0340 -0.1460
90387W        W33299  11.795   9.122   8.706 -0.0037 -0.1138 -0.0759
90388W        W33300  11.061   9.067   7.709 -0.1081  0.2324 -0.0202
90389W        W33301  12.254  11.069   8.108  0.2445  0.0565 -0.0728
90390W        W33302  13.569   7.992   9.606  0.0072  0.0338 -0.2673
90391W        W33303  15.051   9.954   9.928  0.3901  0.2038 -0.1528
90392W        W33304  10.963   8.781   9.806  0.0152 -0.1903 -0.1985
90393W        W33305  11.298   6.884   8.010 -0.0219  0.1622  0.2670
90394W        W33306  11.005   9.927   9.381 -0.1841 -0.1591 -0.0154
90395W        W33307  13.886   7.579   9.413  0.4686 -0.1164  0.0866
90396W        W33308  11.903   8.500   7.853 -0.2223  0.2340  0.0806
90397W        W33309  14.691   9.813   7.947  0.1394  0.0731 -0.0153
90398W        W33310  12.543   9.558   9.132 -0.0517 -0.1596 -0.2803
90399W        W33311  12.492   6.922   9.588  0.2473  0.1843  0.0597
90400W        W33312  12.804   8.654   8.695 -0.0578 -0.2119 -0.1630
90401W        W33313  10.537   8.618   5.940  0.1709 -0.2737  0.2248
90402W        W33314  12.927   9.809   9.298  0.3649 -0.1535 -0.1486
90403W        W33315  10.581  10.792   7.518  0.1384 -0.0164  0.0474
90404W        W33316  11.078   7.903   7.202 -0.2311  0.0357 -0.0539
90405W        W33317  11.395   9.138   9.822  0.1432  0.3041  0.2465
90406W        W33318  13.789   7.032   8.827  0.1280 -0.2461 -0.1407
90407W        W33319  10.583   8.412   7.277  0.2281 -0.0114  0.0453
90408W        W33320  12.074   7.114   9.321  0.2725  0.1124  0.1003
90409W        W33321  14.379   8.117   7.332 -0.4545  0.0902 -0.0523
90410W        W33322  13.599  10.081   7.048  0.3910 -0.2782 -0.2237
90411W        W33323  13.604   7.949   7.707  0.0135  0.0542 -0.2269
90412W        W33324  12.776   6.164   8.529 -0.0640  0.1329  0.4653
90413W        W33325  12.026   9.293   9.612  0.1368 -0.1359  0.0623
90414W        W33326  12.768  10.725   9.516 -0.0882  0.0204 -0.0576
90415W        W33327  12.487   7.629   7.658 -0.3232 -0.0978 -0.1725
90416W        W33328  14.042  11.288   7.220  0.2877 -0.1398 -0.1006
90417W        W33329  10.303   8.136   9.702  0.5060  0.2809 -0.2987
90418W        W33330  12.049   9.305   9.101 -0.0135  0.1337  0.2165
90419W        W33331   9.984   7.832   9.413  0.0977 -0.1607 -0.0839
90420W        W33332  11.654   8.572   5.725  0.0721  0.0447  0.1033
90421W        W33333  13.244   7.120   8.978 -0.1856  0.0731 -0.2021
90422W        W33334  10.819   9.856   7.470  0.1004  0.1320 -0.2759
90423W        W33335  10.842   8.288   9.838 -0.3146 -0.1116  0.1889
90424W        W33336  13.013   6.131   8.948  0.0973  0.1139  0.0304
90425W        W33337  13.248   8.405   9.456 -0.0154  0.0817  0.1013
90426W        W33338  11.933   7.951   9.786 -0.0667  0.0087  0.1436
90427W        W33339  10.898   8.675   6.947 -0.0427 -0.1981 -0.0076
90428W        W33340  11.290   7.089   9.073 -0.0388 -0.0933  0.1600
90429W        W33341   9.988   9.554  10.184  0.1700  0.1279 -0.1700
90430W        W33342  12.614   9.040   9.035 -0.0792 -0.0441 -0.1019
90431W        W33343  12.559   7.071   7.460 -0.0595 -0.2090  0.1810
90432W        W33344  12.860  11.304   6.845 -0.3399 -0.0218 -0.2327
90433W        W33345  12.969   9.406   7.983 -0.0537 -0.1272  0.2424
90434W        W33346  12.702   6.612   8.782 -0.1666 -0.1849 -0.0057
90435W        W33347  11.324   9.640  10.171  0.1684 -0.2527 -0.0956
90436W        W33348  12.123  10.375   7.260 -0.1409  0.3753 -0.0408
90437W        W33349  12.738   8.100   8.772  0.2127  0.3033  0.0818
90438W        W33350  12.828  11.792   8.170 -0.0362 -0.0412  0.0062
90439W        W33351  13.897   6.742  10.290  0.0480  0.1120  0.0886
90440W        W33352  10.294  10.108  10.548 -0.0239 -0.1920  0.2890
90441W        W33353  11.478   7.604   7.297  0.2539 -0.3042  0.2326
90442W        W33354  10.778   8.145   8.375 -0.0686  0.0044  0.0315
90443W        W33355  14.215   7.260   9.201 -0.0838 -0.2705  0.1909
90444W        W33356  14.456   9.360   8.615  0.1400 -0.0797 -0.2165
90445W        W33357  10.622   8.415   8.770 -0.1958  0.1364  0.1783
90446W        W33358  12.752   7.136   8.724 -0.1965  0.0463  0.0389
90447W        W33359  10.333   9.245   8.449  0.4058  0.1326  0.1791
90448W        W33360  13.879   7.905   7.290 -0.0510  0.2571 -0.2723
90449W        W33361  10.937   8.642   7.522  0.2976 -0.2029  0.0224
90450W        W33362  13.874   8.411   9.136  0.0951 -0.0315  0.0597
90451W        W33363  12.482   8.113   8.360 -0.2476  0.1443 -0.4875
90452W        W33364  11.309  11.074   8.036 -0.1763 -0.2481  0.1619
90453W        W33365  14.814   9.193   9.882  0.1261 -0.0350  0.1129
90454W        W33366  12.008   9.233   6.884  0.0232 -0.0790  0.0159
90455W        W33367  11.846   9.620   8.637  0.1350 -0.1834 -0.0427
90456W        W33368  14.680  10.032   8.727 -0.1262 -0.0421 -0.1370
90457W        W33369  11.884   8.424  10.109  0.3455  0.1058 -0.1321
90458W        W33370  11.879   7.292   8.039  0.0815  0.1029 -0.1642
90459W        W33371  12.443   7.416   9.122 -0.0655 -0.0468  0.0246
90460W        W33372  13.748  10.582  10.103  0.0706  0.0021 -0.3710
90461W        W33373  12.517   7.884   9.174  0.1822 -0.2467 -0.1070
90462W        W33374  11.532   7.792   9.461  0.0754  0.0126 -0.2316
90463W        W33375  15.122  11.361   8.708  0.1244  0.0609 -0.3978
90464W        W33376  12.360   9.601   6.090  0.0692  0.0697  0.2268
90465W        W33377   9.944   8.390   9.396  0.0256  0.1768 -0.1795
90466W        W33378  12.753  11.664   8.632 -0.0923 -0.0993 -0.1172
90467W        W33379  11.080   9.076   9.016  0.1576 -0.0334  0.0513
90468W        W33380  12.838  10.051   9.718 -0.1559 -0.3024  0.1084
90469W        W33381  12.473  10.618   7.969  0.0750  0.2030 -0.0502
90470W        W33382  10.525  13.544   9.178 -0.3582 -0.0694 -0.0951
90471W        W33383  13.684   6.436   7.947 -0.0101 -0.1617 -0.0702
90472W        W33384  11.882  10.160   8.510  0.2117 -0.0149  0.0571
90473W        W33385  12.382   6.402   9.242 -0.1137  0.0942  0.0002
90474W        W33386  13.544   8.820   6.886  0.0334  0.1801 -0.0923
90475W        W33387  11.452   5.276   9.158 -0.0910 -0.3465 -0.0209
90476W        W33388  14.359   9.664   7.034 -0.0033 -0.0529 -0.1670
90477W        W33389  13.664   8.226   8.701  0.0412  0.5023 -0.1780
90478W        W33390  12.889   8.493   8.155  0.1862  0.0635 -0.0132
90479W        W33391  11.599   9.356   8.290 -0.4117  0.0905 -0.2851
90480W        W33392  12.868  10.282   8.715  0.1686  0.2271 -0.2073
90481W        W33393  12.708   9.616   7.516 -0.0252 -0.2466 -0.1960
90482W        W33394  13.066   8.012   9.345  0.5642  0.0340 -0.4119
90483W        W33395  11.037  10.015   8.875  0.2103 -0.1343 -0.0032
90484W        W33396  13.108   7.723   9.789 -0.0624  0.0842 -0.0459
90485W        W33397  13.226   9.927   8.814  0.2556  0.1394  0.1806
90486W        W33398  11.262   9.565   9.003 -0.0056  0.0729 -0.0792
90487W        W33399  10.949   8.823  10.302  0.1783  0.1026 -0.0803
90488W        W33400  12.299   8.122   7.864  0.0222  0.1841  0.1120
90489W        W33401  14.312   8.753   9.627 -0.0508  0.0565 -0.0966
90490W        W33402  14.048   8.863   6.870  0.0861 -0.0013  0.1911
90491W        W33403  14.122   6.781   9.052  0.0156  0.0541 -0.0069
90492W        W33404  12.225   8.851   7.544  0.0160 -0.1222 -0.0134
90493W        W33405  13.205   8.366   8.964 -0.0756  0.0079 -0.3552
90494W        W33406  11.293   7.831   7.690 -0.3019  0.2915  0.1290
90495W        W33407  11.736   8.049   7.509 -0.2239  0.2005  0.2089
90496W        W33408  12.444   9.562   6.864 -0.0252  0.0757  0.1038
90497W        W33409  12.453   7.922   9.699  0.0772  0.0390 -0.2399
90498W        W33410  12.381   8.643   8.119  0.0146  0.1484 -0.1197
90499W        W33411  10.202   8.405   8.383 -0.0046  0.0050 -0.1126
90500W        W33412  11.070   8.607   8.043 -0.1400  0.0746 -0.0270
90501W        W33413  12.570   9.070   6.846  0.2146  0.1228  0.1834
90502W        W33414  12.439   9.783   8.662  0.1422  0.1803  0.2007
90503W        W33415  12.364   5.969   8.261 -0.0966  0.1066  0.1223
90504W        W33416  11.838   9.758   8.003 -0.3054  0.3849 -0.0278
90505W        W33417  13.659   6.570   9.029  0.0367  0.0887  0.0782
90506W        W33418  11.272  10.860   9.057 -0.2589 -0.0749  0.2226
90507W        W33419  12.359  10.697   8.833  0.0518  0.0394  0.0164
90508W        W33420  13.392   5.696   9.013 -0.2335 -0.0717  0.1600
90509W        W33421  13.417   6.498   9.858  0.0653 -0.1854 -0.3479
90510W        W33422  12.979   7.553   9.045  0.1215  0.3147  0.0231
90511W        W33423  11.962   8.913   8.156 -0.0292 -0.1592 -0.0665
90512W        W33424  14.857   9.049   8.318  0.1511  0.2104 -0.0529
90513W        W33425  11.995   8.776   9.092 -0.3328 -0.0038  0.1383
90514W        W33426  12.315   9.247   8.663 -0.2152 -0.0483 -0.0538
90515W        W33427  11.249   7.480   8.250  0.1698 -0.0065 -0.0901
90516W        W33428  12.815  10.922   7.236 -0.0343 -0.3465  0.1559
90517W        W33429  10.995   8.603   9.118 -0.1966 -0.0320  0.1429
90518W        W33430  11.055  10.830   7.452  0.2768 -0.0123 -0.0730
90519W        W33431  14.556   9.357   8.115  0.0346 -0.2367  0.3945
90520W        W33432  13.232   9.005   8.244  0.0142 -0.2976  0.0746
90521W        W33433  12.829  11.509   9.548  0.0464 -0.0086  0.0245
90522W        W33434  12.299   8.726   8.630  0.1598  0.3196 -0.0398
90523W        W33435  11.427  10.028   7.881 -0.3717  0.0662  0.0801
90524W        W33436  11.151   9.855   6.902 -0.2286 -0.0796  0.3451
90525W        W33437  13.012   9.305   9.416  0.0476  0.2013  0.1472
90526W        W33438  11.070  10.189   8.305  0.3754  0.1413 -0.0060
90527W        W33439  13.825   7.592   6.365 -0.1844 -0.4345 -0.1149
90528W        W33440  13.868   8.099  10.014 -0.1114  0.0998 -0.1048
90529W        W33441  13.336   8.526   8.487 -0.0309 -0.0482  0.0423
90530W        W33442  11.161   7.569   9.240  0.1671  0.0160  0.1856
90531W        W33443  12.120   7.780   8.184  0.1823  0.2000  0.0203
90532W        W33444  14.222  10.183   7.788  0.1405 -0.1924  0.2030
90533W        W33445  10.811   6.969   7.337 -0.0106 -0.1146  0.0906
90534W        W33446  11.998   8.284   8.350 -0.0819 -0.4608 -0.4692
90535W        W33447  12.460   5.949   9.067  0.0453 -0.2452 -0.1786
90536W        W33448  13.221   9.646   6.272 -0.1665 -0.1848  0.2806
90537W        W33449  11.348   4.855   9.555  0.3501  0.0896 -0.0173
90538W        W33450  13.474   9.976   9.208 -0.3522  0.0230 -0.0424
90539W        W33451  11.340   8.767   9.486 -0.0829  0.0055  0.0812
90540W        W33452  11.833   9.242  10.133  0.1418  0.0789  0.1188
90541W        W33453   9.810   7.135   9.022 -0.1324 -0.1587  0.0238
90542W        W33454  14.803   7.367   9.248  0.0917 -0.0782  0.0245
90543W        W33455  11.436   8.118   9.942  0.2687  0.0095 -0.2331
90544W        W33456  11.779   6.796   7.720  0.3161 -0.4009  0.2847
90545W        W33457  13.805   8.885   9.369  0.3363  0.0355  0.3003
90546W        W33458  11.477   8.666   9.938 -0.0546 -0.0130 -0.2080
90547W        W33459  10.660   7.842  10.031 -0.0126 -0.1071  0.2253
90548W        W33460  13.382   8.624   7.341  0.0743 -0.0864  0.0777
90549W        W33461  12.867   9.641   8.464  0.1817 -0.1068 -0.0894
90550W        W33462  11.294   7.450   8.761  0.4562 -0.2438 -0.2112
90551W        W33463  12.774   7.153   8.215  0.1033  0.2271 -0.2428
90552W        W33464  12.030   7.237   8.817  0.0712 -0.1570 -0.0961
90553W        W33465  11.281   7.904   8.504 -0.0213  0.2286 -0.2032
90554W        W33466  10.513   7.081   8.417 -0.1981  0.2493 -0.1926
90555W        W33467  13.410   9.717   6.786 -0.1223  0.2350  0.3651
90556W        W33468  12.134   7.696   9.404  0.1665  0.0784  0.1377
90557W        W33469  11.369  10.846   5.958  0.1886  0.0230  0.3208
90558W        W33470  12.788   8.283   9.849  0.0916  0.0344 -0.0463
90559W        W33471  13.866  11.615   9.508  0.0182 -0.0836  0.0231
90560W        W33472  10.712   7.951   9.382 -0.0293 -0.2393 -0.1867
90561W        W33473  12.641   9.570   9.702 -0.3377  0.2952  0.1406
90562W        W33474  13.701   9.535  10.045  0.3550 -0.2780  0.1882
90563W        W33475  11.367   7.963   8.992 -0.1129 -0.0391 -0.3313
90564W        W33476  11.534   7.095   8.466  0.2368 -0.0987 -0.1229
90565W        W33477  12.494  11.278   7.174 -0.1472  0.2134  0.0019
90566W        W33478  13.807   9.267  10.445  0.0541  0.2042  0.0272
90567W        W33479  13.707  11.047   7.616  0.1919  0.3626 -0.1428
90568W        W33480  11.841   9.707   9.910  0.0625  0.1665 -0.2084
90569W        W33481  10.854   8.062   7.609 -0.1611  0.0129 -0.0356
90570W        W33482  11.399   8.415   7.655 -0.2241 -0.2602  0.3141
90571W        W33483  12.822  10.561   7.646  0.2199  0.1421 -0.0014
90572W        W33484  13.647  11.164   9.326  0.0995  0.0118  0.3777
90573W        W33485  11.901   6.872   8.249  0.0237 -0.0509  0.2190
90574W        W33486  13.414   8.988   7.731  0.0226  0.0354 -0.0612
90575W        W33487  12.311   7.303   8.379  0.0416 -0.1995  0.4832
90576W        W33488  13.687   7.146   8.078 -0.1817  0.0625  0.3618
90577W        W33489  14.026   6.772   8.211  0.1506 -0.2645  0.2397
90578W        W33490  12.656   8.474   9.148  0.1546  0.1209  0.1389
90579W        W33491  10.189   8.690   7.302  0.0966 -0.2262 -0.1143
90580W        W33492  11.661  10.302   5.959 -0.0087  0.0477 -0.0616
90581W        W33493  11.829  10.232  10.173  0.2668  0.2397 -0.0785
90582W        W33494  11.620   9.713   9.434 -0.0073  0.1300 -0.0148
90583W        W33495  10.076   7.602   7.889  0.0548 -0.3422  0.1883
90584W        W33496  13.022  10.333   9.338  0.0605 -0.1469 -0.1961
90585W        W33497  12.852   5.954   9.448  0.1137 -0.1290 -0.1042
90586W        W33498  10.197   6.606   8.762 -0.2188 -0.1608  0.2319
90587W        W33499  13.376   8.086   8.222  0.2772 -0.2182  0.1420
90588W        W33500  14.423  13.106   9.417 -0.1514 -0.1856  0.0278
90589W        W33501  12.355   6.910   8.996 -0.5278 -0.0886  0.2465
90590W        W33502  12.740   9.080   8.428 -0.2524 -0.0445  0.0743
90591W        W33503  11.739   7.669   6.455 -0.2194  0.1214 -0.1869
90592W        W33504  11.199  10.869  12.052 -0.2397 -0.0722  0.1927
90593W        W33505  11.859   9.823   7.484  0.2330  0.2554  0.0009
90594W        W33506  13.317  10.661   7.663  0.2420 -0.2268  0.0688
90595W        W33507  10.097   7.555  10.217  0.1311  0.0205 -0.0519
90596W        W33508  14.032   9.613   8.452  0.0444  0.1784 -0.1390
90597W        W33509  15.052  10.300   7.274  0.3175 -0.1634  0.0044
90598W        W33510  12.177   8.368   9.411  0.0098 -0.0367 -0.2722
90599W        W33511  13.957   7.567   8.106 -0.3510 -0.3026 -0.0642
90600W        W33512  13.562   8.734   8.984 -0.1403  0.1524  0.0184
90601W        W33513  11.452   7.350   7.790 -0.1187 -0.0116  0.1175
90602W        W33514  12.868   6.563   9.249 -0.0808  0.1449  0.0149
90603W        W33515  14.136   9.674   7.950  0.2234  0.0491 -0.2322
90604W        W33516  10.581   8.371   7.960 -0.4439  0.0063  0.1494
90605W        W33517  12.722   8.371   7.660 -0.0293  0.1730 -0.0544
90606W        W33518  13.056   8.759   9.712 -0.0818  0.0562  0.0219
90607W        W33519  12.913  10.392   8.171 -0.1036 -0.1127 -0.3770
90608W        W33520  13.491   9.418   8.642 -0.0546  0.0590 -0.1468
90609W        W33521  15.021  10.486   9.876  0.5375  0.4184 -0.0697
90610W        W33522  14.055   9.877   9.573  0.3159  0.4167  0.0777
90611W        W33523  13.664   9.251   6.644 -0.1330 -0.0615  0.2063
90612W        W33524  10.566   7.153  11.649  0.0678 -0.1273 -0.1310
90613W        W33525  11.599   7.242   6.790  0.1918  0.0738 -0.2145
90614W        W33526  11.981   9.297   7.756  0.2151 -0.0208  0.1679
90615W        W33527  13.318   7.520   9.374 -0.0322  0.0983  0.0231
90616W        W33528  11.418   6.816   9.434  0.2315  0.2710 -0.0948
90617W        W33529  13.445   6.606   7.530  0.0980  0.0120  0.1028
90618W        W33530  14.710  11.293   9.527  0.1228  0.1516 -0.0430
90619W        W33531  12.680   9.001  10.041 -0.0777  0.4617  0.1671
90620W        W33532  12.133  14.979   3.714 -0.1375 -0.2283 -0.0631
90621W        W33533  12.067  12.912  30.978 -0.3668 -0.2653  0.1063
90622W        W33534  14.172  13.394  29.618  0.4024  0.2696 -0.1717
90623W        W33535  14.149  13.206  31.336  0.0020 -0.2595 -0.1439
90624W        W33536  10.948  11.830   1.054  0.1202 -0.2680 -0.0056
90625W        W33537  14.251  13.826  31.809 -0.0230  0.0583 -0.2817
90626W        W33538  12.026  11.657   3.230  0.1630 -0.0027 -0.0068
90627W        W33539  14.320  15.674   1.968  0.0535  0.0793 -0.2556
90628W        W33540  14.189  15.697   1.422 -0.0842 -0.0227  0.2847
90629W        W33541  14.069  14.858   0.674  0.1117 -0.4440  0.2218
90630W        W33542  12.880  12.328   3.294  0.0118 -0.0581 -0.3155
90631W        W33543  11.911  13.586   2.082 -0.1004  0.0687  0.0178
90632W        W33544  11.997  10.961   0.546 -0.1482 -0.2773  0.3523
90633W        W33545  11.760  11.463   1.626  0.0172 -0.0376  0.0987
90634W        W33546  13.081  13.021   1.330 -0.2644  0.5182 -0.3189
90635W        W33547  11.013  13.603  31.060 -0.0816 -0.0323  0.1650
90636W        W33548  12.752  11.569   1.480  0.0643 -0.1846  0.1121
90637W        W33549  11.527  12.380   0.401  0.0987 -0.1058 -0.0860
90638W        W33550  13.113  14.828   2.273 -0.2670 -0.2082  0.0638
90639W        W33551  13.257  12.886   2.318  0.1283 -0.0971 -0.0905
90640W        W33552  13.625  11.665   4.245 -0.2112  0.1844 -0.1627
90641W        W33553  13.235  14.246  31.021  0.1652 -0.1275 -0.0266
90642W        W33554  12.231  13.111  31.481 -0.1304 -0.2010 -0.1723
90643W        W33555  12.355  12.880   0.895  0.1591 -0.0470  0.2753
90644W        W33556  12.532  10.957   2.198  0.0054  0.0499  0.2362
90645W        W33557  13.922  11.204   4.387  0.2308 -0.1959  0.1525
90646W        W33558  13.561  12.871   0.492 -0.4059 -0.0200 -0.1036
90647W        W33559  13.057  15.624   1.503  0.1861  0.1268  0.1921
90648W        W33560  13.375  14.505   1.470 -0.0354  0.1893  0.0657
90649W        W33561  12.722  11.779   3.750  0.2134 -0.2023 -0.1779
90650W        W33562  11.925  13.202   0.429  0.0471  0.2031 -0.1081
90651W        W33563  11.918  15.064   1.048  0.1110  0.0902 -0.2224
90652W        W33564  12.034  14.142   2.942 -0.2539  0.2109  0.1580
90653W        W33565  14.086  13.991   1.162  0.4258 -0.0401  0.0087
90654W        W33566  13.879  12.692   4.433  0.2536 -0.2569 -0.0264
90655W        W33567  12.238  16.994   2.576 -0.0526 -0.0094  0.6172
90656W        W33568  10.539  14.266   0.485 -0.0577  0.0601 -0.3519
90657W        W33569  12.875  14.126   3.425  0.0235  0.3389 -0.0954
90658W        W33570  13.856  13.894   2.458  0.0559 -0.1377  0.1109
90659W        W33571  13.976  12.564   1.717 -0.0300 -0.0283  0.0204
90660W        W33572  14.115  12.193   2.580 -0.1205  0.1863  0.0997
90661W        W33573  13.345  13.842  31.363 -0.0653  0.0606 -0.4502
90662W        W33574  12.840  12.442   0.257  0.1541 -0.1363  0.1878
90663W        W33575  12.557  12.324   3.705 -0.4824 -0.3042  0.1123
90664W        W33576  11.358  15.026   2.167 -0.1379  0.0721  0.1041
90665W        W33577  14.297  11.778   4.152  0.3587  0.1503 -0.0840
90666W        W33578  11.728  14.038   2.170  0.0065  0.0456  0.0951
90667W        W33579  15.209  12.331  30.912  0.1891  0.0323  0.1608
90668W        W33580  12.275  11.405  31.003 -0.0748 -0.0486  0.6632
90669W        W33581  13.826  12.847  30.930 -0.0775 -0.1714  0.1744
90670W        W33582  13.057  10.648   1.151 -0.1247 -0.0659 -0.0312
90671W        W33583  11.935  14.032   1.024 -0.1590  0.0503  0.0231
90672W        W33584  12.422  13.228   3.655  0.0738  0.0417 -0.2897
90673W        W33585  14.818  15.196   2.999 -0.0734  0.1094 -0.0770
90674W        W33586  12.047  11.801  31.801 -0.0348  0.2036 -0.0680
90675W        W33587  13.590  12.266   1.741 -0.0284  0.1516 -0.0836
90676W        W33588  12.701  14.123   2.266  0.1714 -0.2327 -0.1807
90677W        W33589  12.084  11.691   1.150 -0.2465 -0.2292  0.0564
90678W        W33590  14.855  16.120  31.427 -0.1267  0.0671  0.0909
90679W        W33591  13.915  14.566   1.567 -0.0002 -0.4964 -0.1444
90680W        W33592  13.222  15.118  31.924  0.2090 -0.2940  0.0988
90681W        W33593  12.748  12.023   1.147 -0.3446  0.0324 -0.1135
90682W        W33594  10.013  12.274   2.738  0.2819 -0.2530  0.3465
90683W        W33595  12.094  13.104   3.305  0.0205 -0.1698 -0.3303
90684W        W33596  13.346  10.802  31.579  0.2730 -0.0911  0.3159
90685W        W33597  14.462  12.977   1.176 -0.0613  0.0977  0.0051
90686W        W33598  12.586  14.096   2.948 -0.1290  0.0509  0.1028
90687W        W33599  14.832  11.395  31.360 -0.0758 -0.0751 -0.1511
90688W        W33600  12.674  13.356   0.827  0.2069  0.1645 -0.0030
90689W        W33601  14.167  13.530   2.128  0.0802  0.1926  0.0665
90690W        W33602  14.030  13.263  30.811  0.2907  0.2649  0.0236
90691W        W33603  14.346  11.317   2.613 -0.0354 -0.0495  0.0574
90692W        W33604  13.049  11.099   0.720  0.0520 -0.0324  0.1126
90693W        W33605  13.087  13.725  31.757  0.1495  0.0386 -0.0835
90694W        W33606  12.186  13.304   2.527  0.0714  0.2968  0.1639
90695W        W33607  14.201  14.951   1.687 -0.2022 -0.4258  0.0481
90696W        W33608  14.473  13.294  31.933  0.0757  0.0541  0.2590
90697W        W33609  12.496  13.410   1.826 -0.2085  0.1114 -0.0768
90698W        W33610  11.781  11.717   3.736 -0.1106 -0.1950  0.0115
90699W        W33611  13.970  13.006   2.497  0.1744 -0.0905  0.2720
90700W        W33612  12.468  14.437   0.569 -0.1364  0.1332  0.1255
90701W        W33613  11.612  13.718   1.731  0.2316  0.4190 -0.0919
90702W        W33614  11.952  15.195   0.215 -0.0712 -0.0065 -0.0388
90703W        W33615  11.935  11.011   3.980  0.1823  0.0774  0.1112
90704W        W33616  11.006  14.188   0.748 -0.0012 -0.0443 -0.2826
90705W        W33617  13.601  13.067  31.332 -0.2126  0.1802 -0.0649
90706W        W33618  11.952  11.008   3.024  0.2156 -0.1172 -0.1225
90707W        W33619  14.341  13.232   1.575 -0.1055 -0.2203  0.0272
90708W        W33620  10.627  13.911  31.670 -0.1694  0.0067  0.2904
90709W        W33621  13.757  14.406   1.059 -0.0199  0.3870  0.0045
90710W        W33622  14.031  14.237  31.428 -0.1539  0.1545 -0.1350
90711W        W33623  14.272  14.788   0.034  0.1235 -0.0873  0.0725
90712W        W33624  12.665  11.777   1.983  0.0754  0.2743 -0.0740
90713W        W33625  12.065  12.772   1.285 -0.2842 -0.0001  0.2465
90714W        W33626  12.410   9.615   4.035  0.4874  0.0088 -0.0017
90715W        W33627  10.828  11.433   1.315 -0.1011  0.1879  0.4786
90716W        W33628  12.975  12.857   0.851 -0.2586  0.0100 -0.1405
90717W        W33629  10.299  10.258  30.753  0.0179  0.2597 -0.1747
90718W        W33630  13.046  11.653   3.379  0.1164  0.0463  0.0162
90719W        W33631  13.199  12.106   0.081  0.1063  0.1278 -0.1261
90720W        W33632  11.231  12.157   1.224  0.0358  0.2519 -0.3567
90721W        W33633  13.301  11.029   2.525 -0.1472 -0.2770  0.3683
90722W        W33634  13.196  15.597   0.118 -0.1653 -0.0810 -0.1691
90723W        W33635  15.347  15.080   2.958 -0.4093 -0.0112  0.0223
90724W        W33636  13.630  15.706   0.532 -0.2728  0.3151  0.1954
90725W        W33637  11.938  10.601   1.990  0.1056 -0.0742  0.2907
90726W        W33638  10.947  11.017   2.274  0.2759 -0.1455  0.2803
90727W        W33639  11.743  13.448   2.985 -0.0388 -0.1918 -0.2468
90728W        W33640  13.570  13.064   0.941  0.1613 -0.0245  0.2485
90729W        W33641  12.005   9.507   0.486 -0.3043  0.1585 -0.3746
90730W        W33642  15.646  14.804   1.216 -0.2025  0.0521 -0.4305
90731W        W33643  12.339  12.484   1.716  0.0794  0.1616  0.0884
90732W        W33644  11.568  12.997   3.368 -0.3059 -0.2954  0.1905
90733W        W33645  13.972  10.771   3.030 -0.0443  0.2625  0.4515
90734W        W33646  15.328  14.172   2.630  0.2821 -0.4208  0.1270
90735W        W33647  12.617  11.427   0.594 -0.1827  0.0643 -0.0734
90736W        W33648  10.977  12.609  31.454 -0.4034 -0.4236 -0.1584
90737W        W33649  13.735  15.212  31.902  0.2359 -0.0103 -0.1298
90738W        W33650   9.813  14.708  30.673 -0.0995 -0.2403 -0.2846
90739W        W33651  11.088  13.406   1.859  0.0986  0.0324 -0.3344
90740W        W33652  12.434  12.150   2.388 -0.1365 -0.3478  0.0179
90741W        W33653  13.201  11.156   1.191 -0.1320 -0.2330 -0.2899
90742W        W33654  11.738  13.907   3.209 -0.2009  0.1245  0.0705
90743W        W33655  13.708  12.960   3.388  0.0058  0.1791 -0.1833
90744W        W33656  11.326  14.019   0.201  0.4276  0.0767 -0.0380
90745W        W33657  12.425  13.032   4.397 -0.1545  0.0549 -0.0207
90746W        W33658  12.936  10.188  31.672 -0.1121 -0.1080  0.2244
90747W        W33659  14.832  13.522  31.616  0.0442  0.2407  0.0005
90748W        W33660  13.685  14.255   2.741 -0.0782 -0.1413 -0.1940
90749W        W33661  14.149  14.349   0.307 -0.0727 -0.1446  0.0101
90750W        W33662  13.813  12.429  30.595  0.2995 -0.1480 -0.0489
90751W        W33663  13.008  11.926  30.649 -0.0842 -0.3439  0.0707
90752W        W33664  11.237  12.874   2.653 -0.0197  0.2052  0.2681
90753W        W33665  11.676  12.824   2.280 -0.1176  0.1761 -0.1602
90754W        W33666  12.026  13.203   1.706 -0.1711 -0.0481  0.0155
90755W        W33667  13.088  10.822   0.297 -0.1541 -0.0718  0.1273
90756W        W33668  14.492  13.955  31.378 -0.0676  0.1539 -0.0661
90757W        W33669  10.832  13.080   2.783  0.1920  0.1027 -0.3081
90758W        W33670  13.465  13.454   1.231  0.0039 -0.2467  0.0584
90759W        W33671  13.129  14.868   1.070  0.0990 -0.0618 -0.3060
90760W        W33672  13.240  11.523   2.721  0.0032  0.1771  0.3051
90761W        W33673  13.076  13.464   0.319 -0.3034 -0.4317  0.2937
90762W        W33674  13.210  10.800   1.580 -0.0059  0.2675 -0.1979
90763W        W33675  10.281  16.118   0.420 -0.1918  0.0699 -0.0090
90764W        W33676  13.843  11.717   2.023 -0.2780 -0.1033 -0.3282
90765W        W33677  14.517  10.956   3.327  0.0761  0.0985  0.4247
90766W        W33678  12.341  10.266   1.728  0.1710  0.0501 -0.1416
90767W        W33679  16.268  12.931   2.289  0.2047  0.0085 -0.1528
90768W        W33680  13.563  13.501   0.602  0.1037 -0.0928 -0.3650
90769W        W33681  11.650  11.894   1.807 -0.3659  0.1033 -0.1288
90770W        W33682  12.594  13.743  31.972 -0.1243 -0.3021  0.1880
90771W        W33683  13.191  12.896   3.693  0.2445 -0.0101  0.0516
90772W        W33684  11.125  13.693   1.468  0.1882 -0.1540  0.0308
90773W        W33685  11.840  12.336   2.059 -0.1252  0.0170 -0.2704
90774W        W33686  13.645  13.418   2.600  0.4597  0.3500  0.3671
90775W        W33687  12.675  13.093   0.373 -0.0723 -0.0376  0.1074
90776W        W33688  14.145  12.591   4.010  0.2599  0.0297  0.0139
90777W        W33689  14.351  12.000  31.915  0.1859  0.1137  0.0876
90778W        W33690  12.267  13.644   0.945  0.1620 -0.1651 -0.0252
90779W        W33691  12.766  14.914  31.171  0.2603  0.0363 -0.0779
90780W        W33692  12.754  10.455   1.957  0.0549 -0.0706  0.0924
90781W        W33693  12.493  14.000   1.184  0.1132  0.2369 -0.2294
90782W        W33694  10.730  12.998  31.802 -0.1790  0.0807  0.0747
90783W        W33695  14.256  13.070   2.982  0.2418 -0.0586 -0.0375
90784W        W33696  10.771  14.646  31.618  0.2772  0.0252 -0.1105
90785W        W33697  13.233  12.415   2.011  0.0809 -0.0704  0.2855
90786W        W33698  12.012  14.697   0.153  0.1036 -0.1497 -0.1139
90787W        W33699  12.423  12.702   0.306 -0.3011  0.2497  0.0170
90788W        W33700   9.545  12.413  31.729 -0.0138  0.4045  0.0493
90789W        W33701  14.490  10.812   0.613  0.0191 -0.1442  0.0017
90790W        W33702  14.905  13.143  30.896  0.0965 -0.2641  0.1314
90791W        W33703  12.667  10.544   1.482 -0.0954 -0.0168  0.0257
90792W        W33704  13.157  11.376   1.710  0.1545 -0.1174  0.2401
90793W        W33705  12.558  13.668   2.670  0.1115  0.2068  0.1875
90794W        W33706  13.960  12.673   2.852  0.0502  0.1924 -0.1706
90795W        W33707  16.039  12.373  31.324 -0.0426  0.0763  0.0959
90796W        W33708  13.944  14.228   3.153  0.0753  0.1231  0.0775
90797W        W33709  12.622  13.177   2.948  0.1767  0.0011 -0.2385
90798W        W33710  11.089  12.968   0.191  0.0934 -0.3592 -0.1462
90799W        W33711  14.274  12.129   3.134  0.0276 -0.1712 -0.2958
90800W        W33712  11.973  12.647   0.588 -0.0356 -0.1913 -0.0636
90801W        W33713  12.664  15.116   1.604 -0.0622 -0.1638  0.0066
90802W        W33714  13.400  15.039   3.264  0.1674  0.5129 -0.1972
90803W        W33715  12.457  12.991   1.482 -0.0867 -0.1985  0.1828
90804W        W33716  11.811  13.159  31.778  0.2175 -0.1217  0.1843
90805W        W33717  13.294  11.301   4.090 -0.1977  0.6338 -0.0706
90806W        W33718  13.585  14.916   1.743  0.3735  0.0115  0.0062
90807W        W33719  12.875   9.518   1.037 -0.1156 -0.0985  0.0722
90808W        W33720  12.199  11.272   1.456 -0.0397  0.3234 -0.1480
90809W        W33721  13.836  12.473   0.727  0.3746 -0.0994 -0.2102
90810W        W33722  13.049  12.385  31.696  0.1692 -0.0532  0.0211
90811W        W33723  15.446  14.102   3.098 -0.3299 -0.0729 -0.3773
90812W        W33724  11.859  12.658   4.139  0.0319 -0.2598  0.0620
90813W        W33725  12.414   9.575   1.105 -0.1967 -0.1742 -0.1050
90814W        W33726  13.896  13.731  30.517 -0.2057 -0.2568  0.1839
90815W        W33727  14.056  12.994   0.813  0.0034 -0.2929  0.0862
90816W        W33728  11.885  13.414  31.216  0.0441  0.0061 -0.2256
90817W        W33729  11.603  12.265   2.475  0.2364 -0.1289 -0.1040
90818W        W33730  11.756  13.653   0.235  0.1121 -0.0864  0.1675
90819W        W33731  11.928  12.424   3.587  0.1421  0.1931 -0.0149
90820W        W33732  12.351  12.816   2.759  0.1596 -0.1099 -0.0593
90821W        W33733  10.789  13.216   0.549  0.1257 -0.2099 -0.2201
90822W        W33734  12.590  12.687   3.273 -0.0652 -0.4486 -0.2685
90823W        W33735  13.676  10.641  31.896  0.2258 -0.1195  0.2526
90824W        W33736  13.543  14.619  30.652 -0.0113 -0.2448  0.1758
90825W        W33737  12.297  13.244   0.106 -0.0518  0.0738 -0.0663
90826W        W33738  15.178  13.197   3.050  0.2589 -0.2306  0.1063
90827W        W33739  13.440  13.248  30.924  0.1153  0.0652 -0.0222
90828W        W33740  15.174  11.477   2.005  0.3618  0.0893  0.1093
90829W        W33741  13.460  11.396   2.097 -0.0003 -0.1786  0.1829
90830W        W33742  13.142  13.328   0.802  0.4473 -0.1548 -0.2192
90831W        W33743  10.974  11.955   1.617  0.0667 -0.2388 -0.1054
90832W        W33744  13.579  13.706   3.034  0.0582 -0.4908 -0.0353
90833W        W33745  12.716  13.201   2.300 -0.1578  0.0049 -0.1370
90834W        W33746  13.001  11.459   2.222  0.2302 -0.1648  0.3402
90835W        W33747  11.993  10.559   0.856 -0.1268 -0.0610  0.2053
90836W        W33748  12.749  12.590   2.194  0.0231 -0.3233 -0.1967
90837W        W33749  13.103  12.876   0.216  0.3108  0.1742  0.0203
90838W        W33750  13.188  13.842   0.627 -0.0878 -0.1577 -0.1126
90839W        W33751  13.790  11.680   0.480 -0.0141 -0.1674  0.2607
90840W        W33752  11.369  11.884   0.195  0.2703 -0.0102 -0.0675
90841W        W33753  13.421  13.352  31.664  0.2617  0.2618  0.1755
90842W        W33754  13.636  13.230  30.475  0.2410  0.0298 -0.1200
90843W        W33755  12.196  11.941   2.005 -0.0746 -0.0031 -0.1905
90844W        W33756  13.292  12.003   3.189  0.0245  0.0317  0.4305
90845W        W33757  13.820  13.136   1.556 -0.1276  0.1003  0.2214
90846W        W33758  13.975  10.787   0.936  0.0600 -0.1025 -0.0233
90847W        W33759  12.809  11.132   2.569 -0.3292  0.0518  0.3168
90848W        W33760  14.682  13.531   1.174  0.1494 -0.2419 -0.1753
90849W        W33761  12.932  12.100   2.237  0.0362  0.1716  0.2460
90850W        W33762  12.333  11.384   3.850  0.2644 -0.1511 -0.1150
90851W        W33763  14.968  14.523   2.410  0.0077 -0.2382 -0.0017
90852W        W33764  14.504  12.852  31.027 -0.1881 -0.1723  0.3395
90853W        W33765  14.081  11.254   2.189  0.3086 -0.3101 -0.0769
90854W        W33766  14.794  12.087   1.556  0.0045 -0.1087 -0.1569
90855W        W33767  13.211  12.899  31.669  0.2085  0.0315 -0.2011
90856W        W33768  12.998  11.646   0.912 -0.0709  0.1571  0.1985
90857W        W33769  14.155  13.193   4.337 -0.2516 -0.0092  0.0185
90858W        W33770  10.462  12.080   1.850 -0.2100  0.1140  0.0568
90859W        W33771  13.363  12.474   3.416 -0.0781 -0.0218  0.0499
90860W        W33772  12.431  15.181   0.086 -0.0238 -0.0111  0.1651
90861W        W33773  13.575  14.867   0.721  0.1674  0.1235 -0.1168
90862W        W33774  14.044  12.433  31.882  0.3089  0.0806 -0.0823
90863W        W33775  12.863  12.784   2.671  0.0220  0.2276  0.0459
90864W        W33776  12.135  14.555   1.933 -0.0524 -0.0495 -0.2144
90865W        W33777  12.371  11.993   0.252 -0.1938 -0.0722 -0.1013
90866W        W33778  11.821  12.415  31.144  0.0174 -0.3568 -0.1560
90867W        W33779  13.175  13.708   2.647  0.1670 -0.1192  0.0996
90868W        W33780  15.693  13.240   3.718 -0.2070 -0.0501  0.3077
90869W        W33781  13.213  11.770  31.588  0.1256  0.1913 -0.0998
90870W        W33782  13.714  12.951   3.906 -0.3705  0.0536  0.0689
90871W        W33783  11.124  13.780  31.768 -0.4112 -0.0238 -0.2732
90872W        W33784  13.900  10.513   1.433 -0.2216  0.0713 -0.1897
90873W        W33785  11.836  15.086   2.409 -0.0407 -0.0800  0.0269
90874W        W33786  11.173  12.730   2.166  0.0804 -0.4648  0.2902
90875W        W33787  10.664  14.858   0.144  0.1520 -0.2703  0.1259
90876W        W33788  12.835  11.287   3.034  0.0295 -0.0989 -0.0665
90877W        W33789  13.840  12.307   1.251  0.0172 -0.0314  0.0622
90878W        W33790  13.130  12.866   3.117 -0.0883 -0.0304 -0.1678
90879W        W33791  14.941  13.301   0.103  0.2089  0.2355  0.0065
90880W        W33792  12.605  12.568   1.232 -0.1987 -0.1364  0.3556
90881W        W33793  11.094  12.098   2.245  0.2800 -0.1049 -0.1879
90882W        W33794  14.651  13.444   1.923  0.1566  0.1024  0.0733
90883W        W33795  14.294  12.618   2.318  0.4164  0.2150 -0.0889
90884W        W33796  12.837  14.453   0.932 -0.3030  0.0154 -0.0818
90885W        W33797  11.230  13.207   2.343  0.0544 -0.1765 -0.2327
90886W        W33798  12.307  13.937   3.366 -0.0778 -0.2894  0.0790
90887W        W33799  13.665  12.762   2.093  0.1901  0.0899  0.1897
90888W        W33800  13.561  10.936   0.306  0.1246 -0.2391 -0.1069
90889W        W33801  12.642  15.894   0.834  0.0090  0.0229  0.0807
90890W        W33802  12.603  13.912   1.701 -0.4980  0.2250  0.1381
90891W        W33803  11.284  13.271   2.961 -0.1006  0.2313 -0.0698
90892W        W33804  12.820  14.722   0.172  0.3377  0.3939  0.0256
90893W        W33805  14.505  13.745  29.924 -0.1355  0.0741 -0.0979
90894W        W33806  13.067  14.675  30.830 -0.0751 -0.1269  0.0592
90895W        W33807  13.955  14.874   2.152 -0.0292 -0.1882 -0.0229
90896W        W33808  14.036  11.136   0.617 -0.1455 -0.0555  0.0467
90897W        W33809  11.755  14.647   2.309 -0.2423 -0.0948  0.1533
90898W        W33810   9.461  13.424   0.784  0.0478 -0.1789 -0.1550
90899W        W33811  13.395  14.527   0.103  0.0100  0.1485 -0.1744
90900W        W33812  13.253  13.960   1.666  0.3174  0.0287 -0.4093
90901W        W33813  14.387  14.442   2.993  0.0438 -0.1262  0.0290
90902W        W33814  13.040  12.136  31.242 -0.1562 -0.1958  0.2053
90903W        W33815  14.026  12.783   1.251 -0.0336 -0.0232  0.1279
90904W        W33816  14.664  12.543  31.631 -0.0153 -0.2835  0.1741
90905W        W33817  15.748  13.977   3.864 -0.1377  0.1159  0.1563
90906W        W33818  12.411  11.530   0.015  0.0068 -0.1630  0.3018
90907W        W33819  13.355  11.367   0.425 -0.1519  0.0122  0.0079
90908W        W33820  12.729  12.135   4.105  0.3943 -0.2329  0.0623
90909W        W33821  14.485  13.119   2.459  0.2359  0.3255 -0.3155
90910W        W33822   9.940  14.913   4.635 -0.1562  0.4940  0.0468
90911W        W33823  15.122  15.723  31.975 -0.1970  0.1492  0.2439
90912W        W33824  11.382  13.425   0.036  0.2170 -0.2754  0.2255
90913W        W33825  12.050  13.249   1.189 -0.2284 -0.3134 -0.1468
90914W        W33826  14.098  11.690   2.826  0.1870 -0.1641 -0.0013
90915W        W33827  12.040  13.602  31.658  0.2478 -0.4484  0.0356
90916W        W33828  13.266  12.439   0.513  0.1234  0.1907 -0.1237
90917W        W33829  11.592  14.413   0.057 -0.1234 -0.0876 -0.3621
90918W        W33830  12.454  12.359  31.900  0.2595  0.0636 -0.2444
90919W        W33831  13.040  13.421   1.730  0.1527  0.2430 -0.2061
90920W        W33832  11.581  11.476   0.597  0.0465 -0.1166  0.0288
90921W        W33833  14.945  12.193  31.414 -0.0864 -0.3139 -0.1601
90922W        W33834  11.764  12.763   1.788 -0.1566  0.1897  0.0561
90923W        W33835  13.968  10.906   2.591 -0.2804 -0.2013  0.3793
90924W        W33836  11.166  12.892   1.682 -0.0438 -0.1183  0.2380
90925W        W33837  12.963  11.684   0.237  0.0129  0.0238 -0.1848
90926W        W33838  13.096  13.200   2.749  0.3115  0.0852  0.3485
90927W        W33839  13.716  12.218   2.964 -0.1091  0.2911 -0.0997
90928W        W33840  13.277  11.861   0.515 -0.1235 -0.2001  0.0585
90929W        W33841  13.165  12.690   4.300  0.2705 -0.0243  0.0494
90930W        W33842  12.695  12.821  31.833  0.1043  0.2103  0.3270
90931W        W33843  14.440  14.398   3.474 -0.0441  0.1251 -0.1781
90932W        W33844  12.148  11.014   1.005  0.0563 -0.3267 -0.1866
90933W        W33845  14.082  11.731  31.222 -0.0477  0.0641  0.0744
90934W        W33846  11.611  12.700   1.307 -0.0091 -0.0168 -0.2805
90935W        W33847  13.431  10.897   1.997  0.1243 -0.3723 -0.0915
90936W        W33848  14.851  14.503   1.863 -0.0901  0.1450  0.0129
90937W        W33849  11.138  11.433   0.875 -0.1450  0.0057 -0.2414
90938W        W33850  14.256  14.408  31.026  0.3044 -0.0567 -0.1585
90939W        W33851  14.189  12.021   1.607  0.1510 -0.0088  0.1430
90940W        W33852  13.318  13.996   0.118  0.0171 -0.0011  0.1536
90941W        W33853  14.006  13.711   0.676  0.0325  0.2176  0.0228
90942W        W33854  13.910  15.373   1.793  0.0922  0.2844 -0.0674
90943W        W33855  11.378  11.750   2.943  0.1119  0.2858  0.2590
90944W        W33856  13.850  13.940   0.215 -0.1034 -0.2454  0.0485
90945W        W33857  14.198  12.986   1.970  0.1628  0.1536  0.1926
90946W        W33858  13.221  11.796   1.386 -0.1453  0.1596  0.0020
90947W        W33859  11.671  13.295   2.518 -0.0776  0.1923 -0.3760
90948W        W33860  12.158  13.683   1.464  0.0115  0.0569  0.3859
90949W        W33861  13.770  11.832   1.295 -0.0822 -0.1576 -0.0326
90950W        W33862  14.576  11.889   2.800 -0.2993 -0.2556 -0.1754
90951W        W33863  12.093  16.220  31.314 -0.0721 -0.1350 -0.0973
90952W        W33864  14.434  11.493   3.194  0.2002  0.2132 -0.2702
90953W        W33865  11.952  13.753   2.584  0.0766 -0.2567 -0.0278
90954W        W33866  11.800  14.627   2.836 -0.1327  0.0924  0.2267
90955W        W33867  11.642  14.573  31.345 -0.0820 -0.0584  0.0036
90956W        W33868  13.287  13.127   4.170  0.3749  0.0036 -0.1884
90957W        W33869  12.335  13.549   0.454 -0.2281 -0.3355 -0.0618
90958W        W33870  12.675  13.493   1.346 -0.0921 -0.1804  0.2140
90959W        W33871  12.396  14.685  31.803 -0.1484  0.1845 -0.3424
90960W        W33872  13.742  13.527  31.255  0.1164  0.2496 -0.3644
90961W        W33873  14.596  13.980   1.023 -0.0415  0.0822  0.2192
90962W        W33874  12.769  11.068   1.414  0.1572  0.0105 -0.0959
90963W        W33875  13.893  11.290   0.087  0.0120 -0.1277 -0.1706
90964W        W33876  14.264  11.593   0.244 -0.0076  0.1182 -0.0326
90965W        W33877  12.874  13.679   2.141 -0.1045  0.0989  0.1388
90966W        W33878  12.705  13.601  31.420  0.1914  0.0176 -0.1587
90967W        W33879  11.297  13.360   0.499 -0.0518 -0.2142 -0.1742
90968W        W33880  11.689  13.655   1.240  0.1270 -0.3035 -0.0474
90969W        W33881  13.976  11.298   3.234  0.1163  0.1544 -0.2478
90970W        W33882  12.610  12.379   2.833  0.2394 -0.3976  0.2982
90971W        W33883  12.412  14.206   0.129 -0.1027  0.3675  0.0806
90972W        W33884  11.682  11.919   1.265 -0.0606  0.1742  0.2862
90973W        W33885  14.123  13.426   1.171  0.2447  0.4339  0.3867
90974W        W33886  13.384  11.919   2.141  0.1006  0.1920  0.1673
90975W        W33887  11.288  13.484   1.026 -0.1348  0.1764  0.2017
90976W        W33888  12.944  13.653  30.983 -0.3966  0.0012 -0.0506
90977W        W33889  13.428  14.284  31.616  0.2018  0.0775  0.1026
90978W        W33890  13.742  11.139  31.384 -0.1304 -0.2255 -0.0934
90979W        W33891  13.752  14.089   1.567 -0.0458  0.3487 -0.2036
90980W        W33892  10.394  14.335  31.489  0.0245  0.1274  0.1195
90981W        W33893  13.811  11.950   3.378  0.0874  0.3537 -0.2334
90982W        W33894  13.625  11.124   3.522 -0.2023  0.1469  0.1542
90983W        W33895  11.877  11.376   0.183 -0.1818  0.1828 -0.4388
90984W        W33896  13.527  12.966   2.780 -0.2654 -0.2643 -0.1513
90985W        W33897  15.620  15.493   0.805  0.0518 -0.0800 -0.0903
90986W        W33898  13.189  15.205  31.371 -0.0309 -0.1011  0.0314
90987W        W33899  13.373  13.011   1.802  0.0105  0.0381  0.0912
90988W        W33900  13.294  13.453   2.226  0.1433  0.1439 -0.1468
90989W        W33901  11.444  10.668   2.282 -0.0996  0.1970  0.2291
90990W        W33902  15.005  13.863   0.043 -0.0743  0.2043  0.0697
90991W        W33903  12.972  12.347   0.875 -0.0968  0.1387  0.0444
90992W        W33904  14.600  14.190   0.041 -0.3972  0.2573 -0.2234
90993W        W33905  13.654  12.194   0.358  0.1930 -0.0080 -0.0702
90994W        W33906  13.528  12.136  31.719  0.0215 -0.0634 -0.0118
90995W        W33907  11.722  12.031   3.339  0.0821 -0.0128 -0.0587
90996W        W33908  11.637  14.620   3.619  0.0047 -0.0883 -0.0652
90997W        W33909  14.456  14.946   3.439 -0.0756 -0.3273  0.1844
90998W        W33910  12.502  11.377   1.104 -0.0188 -0.0373  0.1201
90999W        W33911  12.842  12.190   1.749 -0.2321 -0.0366  0.0976
91000W        W33912  12.833  14.155  31.286  0.2478 -0.3557 -0.1464
91001W        W33913  13.054  12.484   1.377  0.1752  0.2243  0.2114
91002W        W33914  14.893  12.823  31.957  0.0487 -0.0219 -0.0721
91003W        W33915  12.798  11.961   2.949 -0.0676 -0.0563 -0.1199
91004W        W33916  13.635  13.006   0.019  0.0156  0.0788  0.0229
91005W        W33917  14.729  12.938   2.929  0.0198 -0.1953 -0.0924
91006W        W33918  12.008  14.011   0.068  0.1339 -0.3311 -0.0630
91007W        W33919  14.391  13.027   0.342  0.0945 -0.1795  0.4592
91008W        W33920  12.228  13.003   2.107  0.0065  0.0535  0.1831
91009W        W33921  14.617  13.836   3.663  0.0564 -0.1391 -0.0255
91010W        W33922  13.751  13.247   2.073 -0.1625 -0.2449  0.0404
91011W        W33923  14.104  12.908  31.848  0.0696  0.0231 -0.1743
91012W        W33924  11.913  11.254   3.479  0.0276 -0.0584 -0.1913
91013W        W33925  12.828  12.747   1.733 -0.0886 -0.0095  0.3638
91014W        W33926  13.545  13.553   0.119 -0.1788  0.0163  0.0376
91015W        W33927  13.251  12.029   2.606 -0.0374 -0.4476 -0.0931
91016W        W33928  12.217  10.571   1.334  0.0486 -0.1611 -0.0904
91017W        W33929  14.156  11.538  31.705  0.2202 -0.1318 -0.3320
91018W        W33930  12.677  13.893   0.711 -0.3681  0.0469 -0.0282
91019W        W33931  13.539  12.684   1.457  0.0726 -0.0095 -0.0788
91020W        W33932  11.928  13.239   5.748  0.2974 -0.0307 -0.1664
91021W        W33933  13.847  13.337   4.737 -0.2667  0.1473 -0.2780
91022W        W33934  15.072  13.699   2.920 -0.1051  0.0439  0.1747
91023W        W33935  13.112  12.217   5.590 -0.0222  0.0502  0.1644
91024W        W33936  11.456  11.297   4.073 -0.0981  0.0455  0.0013
91025W        W33937  12.682  13.902   5.620  0.0494 -0.0218  0.0635
91026W        W33938  11.745  11.796   5.182  0.2460 -0.4205 -0.0276
91027W        W33939  13.329  12.952   6.277  0.3537 -0.2660  0.2844
91028W        W33940  15.461  13.624   6.373 -0.0299  0.0196 -0.1282
91029W        W33941  13.846  12.491   3.416  0.0781 -0.1070 -0.0764
91030W        W33942  11.809  12.144   4.836 -0.1127  0.0529  0.1781
91031W        W33943  12.620  13.944   6.168 -0.3219 -0.1292 -0.0023
91032W        W33944  11.183  11.290   4.570 -0.4076  0.0111 -0.0288
91033W        W33945   9.779  10.906   4.455 -0.1242  0.0399 -0.2281
91034W        W33946  14.785   9.942   5.519  0.0778 -0.3227  0.0498
91035W        W33947  10.919  13.244   3.319 -0.1031 -0.0213 -0.2485
91036W        W33948  11.534  12.600   4.642  0.1133  0.1909  0.2876
91037W        W33949  12.721  11.808   4.591  0.0093 -0.1568 -0.0626
91038W        W33950  13.357  14.283   4.558 -0.2618 -0.2635 -0.0631
91039W        W33951  13.487  10.504   5.357  0.2954  0.0178  0.2560
91040W        W33952  14.049  10.059   7.266  0.5732 -0.1591 -0.0041
91041W        W33953  13.232  12.959   5.073 -0.3310 -0.3030  0.1530
91042W        W33954  12.094  12.645   3.140 -0.0359 -0.1099  0.0463
91043W        W33955  10.842  12.160   3.560 -0.0451  0.0515 -0.0751
91044W        W33956  13.075  12.238   4.510  0.0911 -0.1235 -0.1452
91045W        W33957  12.748  11.942   5.438 -0.0553 -0.0741  0.0156
91046W        W33958  15.391  11.610   4.196 -0.1663  0.1182 -0.1324
91047W        W33959  13.747  14.175   5.893  0.3248  0.2234  0.0165
91048W        W33960  13.371  14.084   5.454 -0.0556 -0.1809  0.0085
91049W        W33961  13.407  11.550   6.314  0.2439  0.2934 -0.1329
91050W        W33962  10.726  12.739   3.291 -0.0354  0.1266  0.0034
91051W        W33963  10.852  13.983   5.521 -0.0091 -0.0750  0.0094
91052W        W33964  12.896  13.228   3.915 -0.2312  0.3440 -0.1660
91053W        W33965  14.303  14.550   4.342 -0.0756  0.0286 -0.1325
91054W        W33966  13.536  13.421   6.413 -0.2649 -0.2667 -0.2749
91055W        W33967  10.702  14.629   6.710  0.0442 -0.0296  0.1388
91056W        W33968  10.311  12.907   2.831 -0.2586  0.2252 -0.1581
91057W        W33969  13.629  13.252   6.934  0.1539  0.0032  0.1116
91058W        W33970  11.974  14.463   5.292 -0.0564  0.0916  0.0130
91059W        W33971  13.107  13.571   6.166 -0.0352 -0.3647 -0.1505
91060W        W33972  12.600  13.972   4.856  0.2026 -0.1616 -0.0815
91061W        W33973  12.404  13.664   2.215  0.0720  0.0538  0.1447
91062W        W33974  14.019  11.870   5.511  0.1052  0.0968  0.0371
91063W        W33975  11.977  14.009   6.214  0.3880  0.0343 -0.1341
91064W        W33976   9.909  13.384   4.746 -0.2604  0.2660  0.6939
91065W        W33977  14.589  11.429   8.653  0.1435  0.0423  0.3528
91066W        W33978  11.610  13.790   3.902  0.0945  0.1194  0.3861
91067W        W33979  14.981  12.174   2.705 -0.0770  0.1261 -0.1202
91068W        W33980  12.938  10.962   1.934 -0.3390 -0.3041  0.0992
91069W        W33981  15.662  11.558   4.627 -0.3275 -0.0543  0.1299
91070W        W33982  13.248  10.307   4.623 -0.2080  0.1422  0.1088
91071W        W33983  10.897  13.252   6.277 -0.1113  0.1332  0.2211
91072W        W33984  11.782  10.026   4.657  0.2188  0.1984  0.1361
91073W        W33985  14.143  12.167   5.894  0.0006  0.0227  0.0465
91074W        W33986  14.342  13.981   2.714  0.1917  0.2930 -0.1892
91075W        W33987  12.336  11.068   6.180  0.0571 -0.1390 -0.1038
91076W        W33988  12.251  13.683   5.824  0.2928 -0.2108 -0.1730
91077W        W33989  10.642  13.072   3.768 -0.0444  0.0564  0.1440
91078W        W33990  14.372  12.612   4.463  0.4390 -0.1452  0.2479
91079W        W33991  14.754  13.074   4.773 -0.2020 -0.2268 -0.1900
91080W        W33992  13.998  14.206   4.130 -0.0057 -0.0468  0.1175
91081W        W33993  10.708  14.074   3.872 -0.0377 -0.2898  0.1053
91082W        W33994  10.519  11.842   5.302 -0.1723  0.1350 -0.0496
91083W        W33995  10.447  12.498   5.191  0.0961 -0.2130  0.0524
91084W        W33996  12.408  11.776   4.176 -0.0821 -0.2445 -0.1810
91085W        W33997  14.406  13.721   6.336  0.3793 -0.0112  0.0256
91086W        W33998  11.503  12.492   5.693 -0.0300 -0.1022 -0.1266
91087W        W33999  14.305  10.781   5.219  0.2949  0.0925 -0.1034
91088W        W34000  11.434  12.141   4.393 -0.1210 -0.1107 -0.3045
91089W        W34001  14.027  12.901   5.669  0.0693  0.1453 -0.2615
91090W        W34002  13.349  13.244   3.204  0.0406  0.0998  0.3100
91091W        W34003  14.460  10.727   6.084 -0.0109  0.2331 -0.1173
91092W        W34004  14.070  10.754   4.797  0.2501 -0.2804 -0.1722
91093W        W34005  12.996  13.656   3.096  0.4064  0.0757 -0.1997
91094W        W34006  12.519  13.467   4.137  0.0344 -0.3342  0.1460
91095W        W34007  13.885  13.827   6.284  0.0838 -0.2385 -0.0271
91096W        W34008  14.476  11.700   4.760  0.0584  0.0799 -0.1896
91097W        W34009   9.020  13.198   5.839 -0.3239  0.0388 -0.0042
91098W        W34010  12.473  11.624   6.396 -0.2019  0.1740 -0.1970
91099W        W34011  13.343  12.679   6.698  0.1925  0.0760  0.0387
91100W        W34012  14.146  14.632   2.629  0.0911  0.2509  0.4004
91101W        W34013  10.179  13.643   4.264  0.1429  0.0349 -0.3309
91102W        W34014  13.073  13.532   4.283  0.2551 -0.2639 -0.3091
91103W        W34015  10.824   9.976   4.947 -0.3712  0.1784  0.1036
91104W        W34016  10.661  12.978   5.112  0.0897  0.1236  0.1023
91105W        W34017  14.534  11.786   5.327  0.3095 -0.0297  0.0725
91106W        W34018  10.237  11.057   6.056  0.1393 -0.0052 -0.3084
91107W        W34019  13.688  11.409   5.434 -0.0418  0.1442 -0.2363
91108W        W34020  11.265  13.197   4.356 -0.0403  0.2102  0.1031
91109W        W34021  14.141  12.504   6.263  0.2165  0.2768 -0.0313
91110W        W34022  14.640  13.409   2.898  0.0814  0.0131 -0.1320
91111W        W34023  14.799  12.097   4.908 -0.0330  0.3632  0.4159
91112W        W34024  10.947  12.523   5.139  0.0964 -0.0738  0.2372
91113W        W34025  12.582  10.025   3.751  0.0974 -0.1677 -0.0346
91114W        W34026  12.010  12.699   5.762 -0.1626  0.1484 -0.4717
91115W        W34027  11.225  10.669   3.943  0.1042 -0.1201  0.0781
91116W        W34028  13.290  12.201   6.532 -0.1116  0.0307 -0.0756
91117W        W34029  11.878  10.616   4.778 -0.1942 -0.3599 -0.2039
91118W        W34030  13.358  12.248   6.034  0.2520 -0.0715 -0.0198
91119W        W34031  12.446  13.897   4.330  0.0005 -0.0861  0.2352
91120W        W34032  10.175  12.553   3.123 -0.0660 -0.0882 -0.0603
91121W        W34033  12.557  10.381   5.607  0.1888 -0.1034  0.2445
91122W        W34034  14.144  13.904   3.569  0.1082 -0.3125  0.1005
91123W        W34035  14.192  15.192   6.650  0.1437  0.1495  0.0336
91124W        W34036  14.361  14.925   4.724  0.2701  0.2490 -0.0245
91125W        W34037  12.645  11.340   5.574 -0.1694 -0.0714 -0.1277
91126W        W34038  13.282  10.989   5.266 -0.1050 -0.1057 -0.0931
91127W        W34039  11.164  13.695   5.710 -0.1905 -0.2100  0.1089
91128W        W34040  12.761  13.423   5.875 -0.0033  0.1638 -0.1783
91129W        W34041  14.589  12.615   3.612 -0.3148  0.0031 -0.1084
91130W        W34042  15.364  14.818   5.705  0.1667 -0.2941  0.1366
91131W        W34043  12.467  12.426   5.475 -0.0883 -0.0291  0.1528
91132W        W34044  12.002  13.488   6.203 -0.0379 -0.0845  0.0318
91133W        W34045  13.592  11.229   6.688  0.0215 -0.1485  0.0065
91134W        W34046  12.718  12.760   7.025  0.1106  0.2372 -0.1201
91135W        W34047  12.471  11.803   5.885 -0.1676 -0.1436  0.1480
91136W        W34048  12.895  11.067   4.459 -0.0957  0.0318 -0.0287
91137W        W34049  13.539  13.612   5.143  0.1499  0.1320 -0.0497
91138W        W34050   9.139  13.493   3.816  0.3285 -0.0424 -0.1734
91139W        W34051  11.365  11.762   4.070 -0.2185  0.1247 -0.2767
91140W        W34052  13.183  13.623   5.501 -0.1999  0.2684 -0.2375
91141W        W34053  14.440  11.242   6.182  0.1092 -0.4557 -0.0375
91142W        W34054  11.568  11.527   6.708 -0.0897 -0.1112 -0.0885
91143W        W34055  13.011  11.558   7.266 -0.0589 -0.1694 -0.0408
91144W        W34056  12.732  11.407   4.130  0.2682  0.1719  0.0866
91145W        W34057   8.825  12.622   5.432 -0.0158  0.4604 -0.0012
91146W        W34058  14.831  10.615   5.141 -0.0013  0.2536  0.0202
91147W        W34059  15.282  11.065   4.017  0.1799  0.1451  0.0060
91148W        W34060  12.028  13.633   7.224  0.1291 -0.5416 -0.1380
91149W        W34061  13.414  13.897   3.560  0.1245  0.0695  0.1065
91150W        W34062  12.867  13.227   3.421  0.0555 -0.1456 -0.0297
91151W        W34063  14.414  11.772   3.690  0.2157  0.2675 -0.0412
91152W        W34064  11.352  12.046   5.472 -0.2332  0.1216 -0.1332
91153W        W34065  13.188  13.974   4.952  0.0222  0.2874  0.3254
91154W        W34066  12.860  12.110   5.988  0.1621  0.2769 -0.0923
91155W        W34067  13.904  11.859   3.881 -0.2169 -0.1277 -0.0553
91156W        W34068  14.920  12.638   4.496  0.2019  0.2532 -0.4407
91157W        W34069  10.232  11.499   5.679  0.2641  0.0405  0.0494
91158W        W34070  12.924  12.794   7.471 -0.0768  0.0260 -0.1226
91159W        W34071  13.342  14.456   5.104 -0.2664  0.0743  0.2181
91160W        W34072  11.060  11.182   5.779 -0.0119 -0.1650  0.0988
91161W        W34073  13.222  12.432   2.927  0.0094 -0.0549  0.1180
91162W        W34074  13.873  10.935   5.376  0.2061  0.0158  0.1144
91163W        W34075  12.087  15.535   3.725  0.1073 -0.1051  0.0622
91164W        W34076  13.557  10.422   5.952 -0.2347 -0.1508 -0.2300
91165W        W34077  13.896  11.732   5.076  0.1087  0.0277 -0.1289
91166W        W34078  12.095  11.335   5.369 -0.1042 -0.2699 -0.1932
91167W        W34079  14.491  12.940   7.706 -0.1110  0.1410  0.2628
91168W        W34080  13.991  12.381   4.784 -0.2546  0.0511 -0.0716
91169W        W34081  12.932  11.752   5.020 -0.0897  0.0669 -0.0049
91170W        W34082  12.217  11.951   3.703 -0.2343 -0.0105 -0.0763
91171W        W34083  12.402  11.829   7.269 -0.3230  0.1708 -0.2175
91172W        W34084  11.662  12.903   5.454  0.2286  0.0900 -0.1539
91173W        W34085  10.697  13.722   5.989 -0.0946 -0.0984  0.2421
91174W        W34086  14.139  12.147   6.677  0.4503  0.1959  0.0607
91175W        W34087  13.787  12.865   5.084  0.1207 -0.1600 -0.1907
91176W        W34088  12.414  10.640   6.067 -0.1970 -0.0556 -0.1632
91177W        W34089  13.650  12.039   4.755 -0.0043  0.2182  0.0846
91178W        W34090  12.234  13.549   2.991 -0.0424 -0.2452 -0.0284
91179W        W34091  13.606  13.119   5.462  0.0566 -0.2681 -0.1406
91180W        W34092  11.714  11.131   5.628 -0.2350  0.0914 -0.0864
91181W        W34093  12.619  13.514   6.433  0.0306  0.2354 -0.4428
91182W        W34094  12.857  15.019   3.058 -0.1052 -0.3460 -0.0354
91183W        W34095  12.160  12.964   6.301 -0.0513 -0.2715  0.0028
91184W        W34096  11.929  13.147   3.938 -0.4019 -0.1627 -0.0065
91185W        W34097  13.157  10.686   5.687  0.0974 -0.1899  0.2272
91186W        W34098   9.854  12.583   5.444 -0.0668 -0.0474  0.0082
91187W        W34099  12.241  12.322   4.097  0.0137  0.0353 -0.0447
91188W        W34100  10.972  13.553   2.591  0.3274  0.0934  0.0465
91189W        W34101  14.229  12.080   5.056  0.0686 -0.2984 -0.1529
91190W        W34102  13.491  12.992   4.597  0.0281 -0.0198  0.2425
91191W        W34103  10.753  11.525   4.931  0.4101  0.0029  0.2070
91192W        W34104  13.684   9.350   5.262 -0.0980 -0.2671  0.4700
91193W        W34105  10.398  13.615   6.538  0.1760 -0.3731  0.3092
91194W        W34106  12.919  12.381   6.795 -0.2574  0.1774 -0.1159
91195W        W34107  12.533   9.888   2.953 -0.1519  0.0173  0.0603
91196W        W34108  12.196  12.731   6.931 -0.1604  0.0271 -0.1358
91197W        W34109  12.054  12.511   4.587  0.3209 -0.2084 -0.0832
91198W        W34110  13.168  12.416   3.898 -0.3848 -0.0707  0.0589
91199W        W34111  13.873  12.300   7.286  0.3422 -0.1690  0.0539
91200W        W34112  13.320  13.451   4.731  0.0288 -0.0575 -0.0883
91201W        W34113  11.226  13.428   4.845 -0.2451  0.3240 -0.0720
91202W        W34114  12.957  13.925   6.499  0.2496  0.2176 -0.1154
91203W        W34115  12.933  12.609   4.821 -0.0571 -0.0543 -0.0266
91204W        W34116  12.709  13.062   5.034  0.1612 -0.1313 -0.0340
91205W        W34117  12.061  11.779   6.247  0.1188  0.0151 -0.0118
91206W        W34118  14.253  11.291   5.135  0.3163  0.1967 -0.0066
91207W        W34119  13.298  11.121   5.861  0.2093 -0.3603 -0.3138
91208W        W34120  12.786  11.276   4.945 -0.0705 -0.0007  0.0737
91209W        W34121  12.459  12.548   6.549  0.1762  0.0170  0.1103
91210W        W34122  14.617  13.013   5.699  0.0525  0.0990  0.2802
91211W        W34123  12.972  11.838   6.419  0.2618 -0.0326 -0.1622
91212W        W34124  12.689  13.559   6.918 -0.3544  0.1190 -0.0472
91213W        W34125  12.247  10.179   6.795 -0.3025 -0.0325 -0.0964
91214W        W34126  14.452  14.198   3.972 -0.0028 -0.0484  0.1636
91215W        W34127  12.759  13.019   6.207 -0.4091  0.1893 -0.0928
91216W        W34128  11.645  13.537   4.375  0.1864 -0.0541  0.2557
91217W        W34129  10.643  12.119   4.911 -0.2481 -0.0896  0.0232
91218W        W34130  11.486  13.949   4.499  0.0963 -0.0064 -0.0678
91219W        W34131  12.717  12.209   4.929 -0.2081 -0.1135  0.0685
91220W        W34132  11.040  11.887   4.607 -0.1143  0.0927 -0.1721
91221W        W34133  10.370  13.197   4.448 -0.3142  0.2100  0.1475
91222W        W34134  10.059  12.292   4.028 -0.1040 -0.1028 -0.2599
91223W        W34135  13.793  11.216   4.850  0.1333  0.0094 -0.0557
91224W        W34136  13.375  13.387   3.780  0.0595 -0.2644 -0.1628
91225W        W34137  12.435  11.615   5.106  0.1934  0.1859  0.1220
91226W        W34138  14.621  12.352   6.904  0.1290  0.2346  0.1856
91227W        W34139  14.095  13.434   3.867  0.0344 -0.3044 -0.1723
91228W        W34140  13.717  10.902   8.181 -0.0531 -0.0380  0.1776
91229W        W34141  11.404  11.429   5.055 -0.1343  0.0501 -0.2623
91230W        W34142  13.386  12.652   5.448  0.1346 -0.0465  0.0217
91231W        W34143  11.128  10.300   5.245  0.3876 -0.1009  0.1779
91232W        W34144  13.317  14.086   6.849  0.0459  0.0226  0.2478
91233W        W34145  11.680  13.024   4.973 -0.0314  0.1641  0.1446
91234W        W34146  14.897  11.424   4.588  0.1129 -0.1476  0.0574
91235W        W34147  12.912  10.934   3.933 -0.3661  0.0148 -0.1930
91236W        W34148  12.498  12.614   5.936  0.1182  0.1189 -0.0812
91237W        W34149  14.145  14.744   3.897  0.2369  0.1927 -0.0176
91238W        W34150  11.598  12.215   3.909 -0.1422 -0.1719  0.0640
91239W        W34151  15.577  12.008   4.404 -0.2698 -0.1065  0.1723
91240W        W34152  11.657  13.774   5.830 -0.1260 -0.0163  0.0449
91241W        W34153  12.502  13.396   5.404  0.1544 -0.2371 -0.2299
91242W        W34154  13.942  14.351   2.279  0.0570  0.0784  0.1735
91243W        W34155  12.125  13.536   4.510 -0.0673 -0.2488 -0.1491
91244W        W34156   9.990  10.600   6.523  0.3305 -0.0098 -0.0237
91245W        W34157  14.037  11.716   4.592  0.0429  0.0193 -0.2037
91246W        W34158  12.978   9.919   5.409 -0.1463 -0.0758  0.1017
91247W        W34159  12.677  11.783   6.852 -0.1835  0.3606  0.0219
91248W        W34160  12.880  12.648   5.342  0.1647 -0.0092  0.1541
91249W        W34161  11.120  10.676   6.510  0.0392  0.3411 -0.1556
91250W        W34162  10.589  10.413   6.607 -0.2226 -0.0618  0.0367
91251W        W34163  13.755  13.166   6.037  0.1395  0.1401  0.1330
91252W        W34164  14.448  13.572   4.225  0.0374  0.0622 -0.0900
91253W        W34165  13.284   9.836   8.176 -0.1892  0.0540 -0.1750
91254W        W34166  15.220  11.510   5.366 -0.0442  0.2955 -0.2050
91255W        W34167  15.086  11.739   3.342 -0.3078 -0.2446 -0.0987
91256W        W34168  12.155  11.814   5.519  0.1943 -0.1873 -0.1164
91257W        W34169  12.674  11.501   7.611  0.2110  0.0612 -0.0813
91258W        W34170  12.520  11.673   3.227 -0.1377 -0.1148 -0.0893
91259W        W34171  12.195  12.149   5.137  0.2758 -0.0221  0.1755
91260W        W34172  13.072  14.159   2.842  0.2748 -0.0648  0.1034
91261W        W34173  13.285  13.189   5.833  0.2753 -0.0155  0.0711
91262W        W34174  15.432  11.911   3.688  0.3896  0.1852 -0.0152
91263W        W34175  11.775  11.103   5.133  0.2393  0.1782 -0.1656
91264W        W34176  11.545  14.293   6.768 -0.1520  0.1316 -0.2158
91265W        W34177  13.150  11.855   4.059 -0.2548  0.3436 -0.2519
91266W        W34178  12.902  13.705   3.747  0.1483 -0.1407  0.0408
91267W        W34179  12.333  13.495   4.958 -0.2081  0.0348  0.2313
91268W        W34180  11.202  13.404   8.639  0.2120 -0.1313  0.0063
91269W        W34181  12.466  10.483   4.118 -0.2565  0.3694  0.0123
91270W        W34182  14.263  11.531   6.751 -0.0267 -0.1604 -0.0526
91271W        W34183  10.217  14.386   3.997 -0.1854  0.1201 -0.1463
91272W        W34184  12.269  10.977   5.651 -0.1063 -0.2440 -0.1349
91273W        W34185  11.039  14.314   6.542  0.1241  0.2596  0.0020
91274W        W34186   9.761  11.139   5.910 -0.0020  0.0836  0.0009
91275W        W34187  12.422  14.382   5.061 -0.3234  0.0148 -0.0054
91276W        W34188  13.128   8.809   5.146 -0.1125  0.1436  0.1774
91277W        W34189  13.078  12.633   5.849 -0.0139 -0.0897 -0.0690
91278W        W34190  12.385  13.136   5.827  0.1835 -0.0181 -0.1465
91279W        W34191  13.320  12.383   7.104  0.1945 -0.1712 -0.1775
91280W        W34192  13.201  13.602   6.806  0.3268 -0.2434 -0.0794
91281W        W34193  11.855  13.033   4.473 -0.0648 -0.0901  0.4821
91282W        W34194  13.428  13.955   6.403 -0.1712  0.1323  0.0577
91283W        W34195  15.117  12.498   5.068 -0.2097  0.1297 -0.0225
91284W        W34196  11.189  12.912   4.876 -0.0702  0.1280  0.1077
91285W        W34197  11.498  11.313   7.185  0.0156 -0.1206  0.2424
91286W        W34198  12.134  12.886   7.422 -0.3131 -0.2371 -0.1199
91287W        W34199  12.844  11.463   6.043  0.1241  0.0266 -0.1645
91288W        W34200  13.205  12.248   5.098  0.1627 -0.3254 -0.0765
91289W        W34201  13.861  13.303   3.058 -0.0064 -0.1822 -0.3652
91290W        W34202  11.150  12.925   5.378  0.1161  0.1119 -0.1290
91291W        W34203  10.278  12.144   4.487 -0.1526 -0.1971 -0.1506
91292W        W34204  10.968  15.607   5.185 -0.1916 -0.2432  0.1986
91293W        W34205  13.522  12.542   4.777 -0.0935 -0.0109  0.1317
91294W        W34206  12.460  12.613   4.980 -0.1727 -0.0269 -0.0942
91295W        W34207  13.983  15.215   6.177 -0.1308  0.0884  0.0142
91296W        W34208  13.532  11.553   3.736  0.3016 -0.1189  0.0556
91297W        W34209  11.943  14.003   4.225 -0.0171 -0.0998  0.2165
91298W        W34210  11.349  14.026   3.550  0.2252  0.0605 -0.2427
91299W        W34211  13.703  12.446   3.955  0.0654 -0.2020  0.3366
91300W        W34212  10.547  14.709   5.085  0.1310 -0.0792  0.2997
91301W        W34213  14.065  13.370   6.422  0.0740 -0.2514  0.0369
91302W        W34214  14.183  12.210   3.650 -0.1230  0.2646  0.1613
91303W        W34215  15.625  11.817   6.087  0.0598 -0.0163 -0.1053
91304W        W34216  15.343  11.015   6.231  0.1541  0.0080  0.0856
91305W        W34217  13.172  14.962   5.916  0.0009  0.0541  0.0048
91306W        W34218  12.196  13.034   4.853 -0.0754  0.3268  0.0418
91307W        W34219  13.336   9.857   4.090  0.0887  0.3579 -0.0211
91308W        W34220  13.103  11.473   5.525 -0.0607 -0.0120  0.2227
91309W        W34221  13.949  11.144   6.389 -0.1389 -0.1548 -0.0253
91310W        W34222  10.362  11.299   5.189  0.0556 -0.0628  0.2046
91311W        W34223  13.520  14.767   3.701 -0.0516  0.1931  0.1743
91312W        W34224  10.923  11.373   4.149  0.1844 -0.0380  0.0785
91313W        W34225  11.748  11.200   4.657 -0.1099  0.0733  0.2783
91314W        W34226  14.650  11.828   6.600  0.0816  0.2170  0.1516
91315W        W34227  11.518  14.389   3.180  0.2866 -0.3551 -0.2667
91316W        W34228  12.423  12.106   6.353 -0.0976 -0.1890 -0.3168
91317W        W34229  14.100  13.835   4.899  0.1353 -0.0866 -0.3587
91318W        W34230  11.806  13.652   4.906 -0.0220  0.2451 -0.0966
91319W        W34231  12.104  14.034   4.744  0.3952  0.0721 -0.0758
91320W        W34232  11.972  12.532   2.624 -0.1373 -0.0735  0.1625
91321W        W34233  14.583  10.638   5.607 -0.2549  0.0442 -0.0349
91322W        W34234  13.080  13.159   6.650 -0.0628  0.1975 -0.2436
91323W        W34235  14.154  10.796   7.373 -0.3540 -0.0595 -0.1048
91324W        W34236  12.252  12.059   4.630  0.2661 -0.0348  0.1356
91325W        W34237  15.006  11.416   3.795 -0.2594 -0.0900  0.6016
91326W        W34238  13.301  13.968   5.939  0.1079 -0.1589 -0.0597
91327W        W34239  11.865  11.952   4.301 -0.1229  0.1527  0.0774
91328W        W34240  11.916  13.512   3.520 -0.1977 -0.0984  0.1187
91329W        W34241  14.992  12.451   6.096  0.0157 -0.5027 -0.0220
91330W        W34242  13.710  13.383   4.258  0.2376 -0.1814  0.3703
91331W        W34243  13.795  12.958   6.479  0.1343 -0.1990  0.0348
91332W        W34244  11.545  11.701   4.652  0.0258 -0.3486  0.2147
91333W        W34245  13.385  11.396   5.021  0.1480 -0.2349  0.2518
91334W        W34246  10.347  11.237   4.053 -0.1543 -0.3091 -0.0257
91335W        W34247  12.342  12.909   5.380  0.1372  0.3732 -0.2624
91336W        W34248  13.343  14.254   7.560 -0.2883  0.0348  0.2216
91337W        W34249  10.620   9.465   6.161 -0.1053  0.0468 -0.0812
91338W        W34250  14.315  13.444   3.359 -0.2392  0.0820 -0.3001
91339W        W34251  14.440  12.563   5.839  0.3478 -0.0022 -0.0682
91340W        W34252  12.939  14.080   4.310 -0.0585  0.2650 -0.1863
91341W        W34253  14.573  12.256   4.155  0.2764  0.2043  0.2903
91342W        W34254  12.950  13.575   5.119 -0.2770 -0.0148  0.2565
91343W        W34255  11.076  12.140   4.031 -0.1157  0.1394  0.0087
91344W        W34256  12.847  14.352   6.014 -0.0395  0.0579  0.1805
91345W        W34257  15.025  13.277   5.474 -0.0856 -0.1225  0.0950
91346W        W34258  14.862  11.773   4.176  0.1270 -0.2313  0.0679
91347W        W34259  11.030  12.401   4.572 -0.3198  0.1802  0.1283
91348W        W34260  11.880  14.093   3.633 -0.3214  0.1367 -0.0006
91349W        W34261  12.510  13.075   6.691 -0.0857 -0.0028 -0.1324
91350W        W34262  13.756  11.437   5.933  0.3112 -0.3618 -0.1656
91351W        W34263  12.053  14.503   3.309 -0.0491 -0.0614 -0.2158
91352W        W34264  13.540  11.363   8.227  0.0657  0.4251  0.2945
91353W        W34265  12.127  14.860   6.417 -0.0574  0.3856 -0.2029
91354W        W34266  12.056  14.359   6.605  0.0534  0.1416  0.2202
91355W        W34267  12.260  12.204   3.268 -0.0032 -0.0107  0.0229
91356W        W34268  11.511  12.497   6.339  0.2073 -0.0857 -0.0683
91357W        W34269  12.700  13.486   4.630 -0.0062 -0.0176 -0.2413
91358W        W34270  13.593  12.687   5.904  0.2967 -0.3215 -0.0156
91359W        W34271  13.712  12.468   6.456  0.1029 -0.0801 -0.1767
91360W        W34272  13.508  12.202   4.308  0.0696 -0.2069 -0.4088
91361W        W34273  14.541  12.603   6.497 -0.1543 -0.2612 -0.1780
91362W        W34274  12.083  10.927   4.423 -0.1708 -0.0921  0.1485
91363W        W34275  16.107  10.927   5.495 -0.2204 -0.2520  0.1346
91364W        W34276  14.859  10.367   4.614 -0.0459 -0.4034 -0.1071
91365W        W34277  11.987  13.303   5.245  0.1176 -0.0149 -0.2076
91366W        W34278  10.636  12.512   2.794 -0.0315 -0.1497  0.2068
91367W        W34279  12.257  12.738   3.702 -0.1131  0.1540  0.3123
91368W        W34280  10.188  13.788   4.928 -0.1529 -0.0217  0.5009
91369W        W34281  13.106  10.780   6.771  0.2638  0.0702  0.0018
91370W        W34282  11.246  12.123   6.032 -0.0583 -0.2333  0.1782
91371W        W34283  10.878  12.241   5.531 -0.1146 -0.3695 -0.3838
91372W        W34284  12.007  10.482   4.280  0.2807  0.2236  0.0043
91373W        W34285  14.919  14.212   4.621 -0.1138 -0.0568  0.1744
91374W        W34286  12.052  10.265   5.171  0.1181  0.2834 -0.3191
91375W        W34287  10.987  10.432   4.383 -0.0095 -0.2657 -0.1691
91376W        W34288  14.002  12.172   4.284  0.1013 -0.0097 -0.0292
91377W        W34289  14.390  13.415   4.691  0.2578 -0.0012 -0.2690
91378W        W34290  13.470  12.034   3.686  0.2749 -0.0468 -0.0521
91379W        W34291  13.493  14.429   6.238 -0.0232  0.3629  0.1452
91380W        W34292  11.409  13.310   3.872 -0.2649  0.1263  0.1922
91381W        W34293  13.200  11.845   6.889 -0.0648  0.0546  0.2780
91382W        W34294  10.763  11.594   5.644 -0.0969  0.0577  0.0179
91383W        W34295  12.379  11.127   3.347  0.2772 -0.1122  0.1094
91384W        W34296  12.463  10.974   4.083  0.1225 -0.1505  0.3220
91385W        W34297  12.513  14.457   3.498 -0.0334  0.1411  0.0877
91386W        W34298  13.771  13.544   3.504  0.1126 -0.1024  0.0973
91387W        W34299  12.267  14.440   6.044 -0.2109  0.0735  0.1467
91388W        W34300  12.178  14.965   6.919  0.0366  0.0670 -0.1702
91389W        W34301  10.433   9.585   5.194  0.2514 -0.0789 -0.2275
91390W        W34302  14.627  12.550   4.917 -0.2985  0.0137  0.1713
91391W        W34303  11.764  13.881   6.633  0.2810 -0.0809  0.0103
91392W        W34304  14.471  14.068   4.448 -0.0964  0.0244  0.0612
91393W        W34305  13.632  11.527   7.118 -0.2500  0.2888  0.0872
91394W        W34306  13.431  11.835   5.319 -0.0422  0.0051  0.0763
91395W        W34307  11.164  10.347   6.058  0.1340 -0.0005  0.1503
91396W        W34308  10.946  13.345   5.261 -0.1244  0.0660  0.3295
91397W        W34309  14.792  11.482   5.594 -0.0939  0.0583 -0.1439
91398W        W34310  12.408  10.621   5.082 -0.1121 -0.3166  0.2668
91399W        W34311  14.708  11.093   4.938 -0.1115  0.2520  0.2881
91400W        W34312  14.001  11.400   3.948  0.1718 -0.1593  0.0418
91401W        W34313  11.023  11.844   5.199  0.0473  0.1186  0.3622
91402W        W34314  12.682  12.798   3.954  0.0778 -0.2882 -0.0481
91403W        W34315  11.665  11.934   6.468  0.2866  0.0395  0.1450
91404W        W34316  12.913  13.125   5.468  0.2012 -0.4404  0.0091
91405W        W34317  13.853  13.514   7.314  0.2254  0.1919 -0.0513
91406W        W34318  13.566  10.758   4.844 -0.1342  0.0538  0.1659
91407W        W34319  14.406  12.155   4.620  0.2837  0.1045  0.0927
91408W        W34320  14.453  13.891   5.309  0.2105 -0.2872 -0.0866
91409W        W34321  14.039  14.392   7.061 -0.1213  0.0329  0.0341
91410W        W34322  11.578  15.030   4.608 -0.1309 -0.1068 -0.1593
91411W        W34323  14.049  13.427   5.216 -0.1063  0.1105 -0.0425
91412W        W34324  11.369  10.929   5.330 -0.0336  0.2119 -0.1628
91413W        W34325  10.857  13.235   4.666 -0.0680 -0.1033  0.0277
91414W        W34326  12.569  12.515   4.461 -0.3491  0.0251  0.1605
91415W        W34327  13.826  11.698   6.620  0.3177  0.4884 -0.1695
91416W        W34328  10.649  12.707   4.701  0.3496  0.1493  0.3141
91417W        W34329  13.408  11.189   4.556  0.4774  0.0627  0.1190
91418W        W34330  11.351  14.711   6.426  0.1447 -0.1382  0.2012
91419W        W34331  14.212  14.287   5.351 -0.0509 -0.0097  0.1319
91420W        W34332  11.252  12.370   8.936 -0.4165 -0.3024 -0.1215
91421W        W34333  12.142  11.832   8.462  0.0405 -0.0427  0.3328
91422W        W34334  14.040  10.967   5.897 -0.1120 -0.0599  0.1019
91423W        W34335  14.431  14.010   7.822 -0.2061 -0.0142 -0.0033
91424W        W34336  10.958  10.588   8.770 -0.4082  0.2755  0.0685
91425W        W34337  13.214  13.803   8.565  0.3518  0.0505  0.0886
91426W        W34338  14.633  13.306   8.023 -0.0502 -0.5379 -0.2914
91427W        W34339  15.057  13.632   8.170 -0.0538 -0.1668  0.2303
91428W        W34340  12.482  13.912   7.212  0.2372 -0.0979 -0.0597
91429W        W34341  11.817  11.275  10.202 -0.0522  0.3382  0.0796
91430W        W34342  13.159  11.119   7.528  0.1299 -0.3049  0.0229
91431W        W34343  12.428   9.943   9.445 -0.0762 -0.0449 -0.2397
91432W        W34344  12.531  13.018   8.336  0.2952 -0.0326  0.1134
91433W        W34345  11.922  13.143   7.006 -0.2250  0.1211  0.2865
91434W        W34346  10.848  10.768   9.866  0.1902 -0.0443  0.0726
91435W        W34347  12.280  12.147   8.095 -0.2173  0.2181  0.0284
91436W        W34348  11.725  13.620   8.831  0.0881  0.0034  0.1706
91437W        W34349  11.700  11.547   8.737 -0.0444  0.0063 -0.0492
91438W        W34350  13.052  13.311   7.655  0.0658 -0.1304 -0.0079
91439W        W34351  11.304  12.189   4.943  0.0185 -0.1524  0.2399
91440W        W34352  10.957  12.100   9.465 -0.2485 -0.2953  0.1038
91441W        W34353  11.827  12.143   8.952 -0.1152  0.0206  0.2409
91442W        W34354  13.194  10.956   9.748  0.2502  0.2824  0.1472
91443W        W34355  13.414  13.782   7.664  0.1019 -0.0846 -0.1286
91444W        W34356  11.144  13.596   7.863 -0.0337 -0.0611 -0.0261
91445W        W34357  12.356  13.799   7.818 -0.1138  0.0457 -0.3168
91446W        W34358  11.555  11.623   7.992 -0.1527 -0.1175 -0.1381
91447W        W34359  10.124  14.959   8.582  0.1715 -0.1300  0.1481
91448W        W34360  11.973  13.961   7.583  0.1514  0.2886  0.1280
91449W        W34361  15.006  12.940   7.840 -0.0799 -0.2048 -0.0793
91450W        W34362  11.570  13.274   7.899 -0.1827 -0.0615 -0.1922
91451W        W34363  11.433  11.001   8.561 -0.0309  0.0011  0.0207
91452W        W34364  12.173  13.297   9.083 -0.1501 -0.0745 -0.2199
91453W        W34365  11.454  14.156   7.718  0.0048 -0.2551 -0.1542
91454W        W34366  12.310  12.600   8.283 -0.0280  0.0331  0.2218
91455W        W34367  12.093  13.505  10.149  0.1370 -0.0586  0.0499
91456W        W34368  12.964  13.897   7.280  0.2099  0.3581  0.1116
91457W        W34369  14.277  12.098   7.680 -0.2568  0.0903  0.0098
91458W        W34370  12.083  11.400   5.908  0.1484 -0.1453  0.1171
91459W        W34371  13.215  12.447   8.139  0.2743  0.0060 -0.0245
91460W        W34372  13.014  12.372   9.802 -0.0465 -0.0810 -0.0731
91461W        W34373  11.637  13.175   8.537  0.3438  0.1460  0.1962
91462W        W34374  15.344   9.988  11.569 -0.0771 -0.1091  0.0748
91463W        W34375  12.201  11.849   8.972 -0.2323  0.0227  0.1197
91464W        W34376  13.670  13.040   9.089  0.0717  0.3383  0.2345
91465W        W34377  12.559  12.969   8.853  0.2205  0.2351  0.2678
91466W        W34378  10.942  11.168   8.407 -0.0597  0.2128  0.0332
91467W        W34379  14.899  13.692   6.425  0.3472 -0.1362  0.0138
91468W        W34380  15.389  13.342   9.187 -0.0024 -0.2735 -0.0709
91469W        W34381  13.612  13.959   7.210 -0.2270 -0.1259 -0.3387
91470W        W34382  11.291  12.375   7.786  0.3149 -0.0128  0.0800
91471W        W34383  11.404  11.567   5.545 -0.2983  0.2069  0.2128
91472W        W34384  14.237  10.843   8.976 -0.2900  0.2449  0.1334
91473W        W34385  12.819  12.520   9.260 -0.0400 -0.0828 -0.0365
91474W        W34386  13.622  12.981   9.692  0.0742  0.1588 -0.0505
91475W        W34387  14.046  13.388   8.384 -0.1062  0.3391  0.1371
91476W        W34388  14.424  12.483   9.555  0.0410 -0.0345 -0.0100
91477W        W34389  11.549   9.990   8.907  0.2324  0.0123 -0.0774
91478W        W34390  12.198  13.515   6.725  0.1575 -0.1009  0.2878
91479W        W34391  12.104  12.490   7.754  0.0328 -0.1524  0.1148
91480W        W34392  14.105  14.774   8.536 -0.3183 -0.3373 -0.3196
91481W        W34393  14.609  13.038   7.035 -0.0090 -0.2260  0.1226
91482W        W34394  12.159  15.305   9.510 -0.0121 -0.1607 -0.1026
91483W        W34395  12.189  14.245   8.061 -0.0660  0.0210  0.0982
91484W        W34396   9.607  13.428   8.650 -0.0330 -0.4676 -0.0195
91485W        W34397  12.214  12.171   5.850  0.3164 -0.0452 -0.1769
91486W        W34398   8.811  11.833   9.203 -0.0669  0.2711 -0.0033
91487W        W34399  12.903  13.283   9.656 -0.1348  0.2007 -0.3050
91488W        W34400  13.762  11.735   8.512  0.1441  0.2791  0.2067
91489W        W34401  14.193   9.547   9.105 -0.2042  0.2082 -0.2875
91490W        W34402  10.713  12.844   6.132 -0.0422 -0.0463  0.0605
91491W        W34403  14.315  14.386   8.141  0.1331 -0.1230 -0.0916
91492W        W34404  14.595  11.626   7.731  0.0059 -0.0600  0.1831
91493W        W34405  13.274  12.909   7.842  0.0380  0.2331 -0.2818
91494W        W34406  11.262  12.169   9.865  0.2458  0.0654  0.0006
91495W        W34407  11.420  12.482   6.845 -0.0892  0.1087  0.0387
91496W        W34408   9.925  11.289   9.606  0.1416 -0.2434 -0.1231
91497W        W34409  11.734  11.191   7.793  0.0366 -0.1128  0.1837
91498W        W34410  13.529  11.134   8.684 -0.1539 -0.0780  0.2301
91499W        W34411  11.409  13.507   6.228 -0.0024  0.3074 -0.1653
91500W        W34412  10.719  13.387   6.857 -0.0828 -0.1174  0.1616
91501W        W34413  12.402  14.522   6.961 -0.0322 -0.1251 -0.0053
91502W        W34414  13.707  14.066   8.945 -0.0322  0.1645  0.1215
91503W        W34415  13.308  14.047   8.073  0.2486 -0.3202 -0.1091
91504W        W34416  10.703  12.286   9.060  0.0301 -0.1514 -0.1797
91505W        W34417  11.759  12.681   7.193  0.2558 -0.0739  0.1741
91506W        W34418  12.862  13.777   9.397 -0.1535  0.0195 -0.0324
91507W        W34419  12.087  12.314   8.595  0.3765 -0.0447  0.0556
91508W        W34420  12.028  10.947   8.554 -0.0942  0.4764 -0.4523
91509W        W34421  14.128  13.848   9.257 -0.0116 -0.2071  0.0010
91510W        W34422  12.216  11.601   8.059 -0.1222 -0.0140 -0.0980
91511W        W34423  13.214  13.283  10.231 -0.0235 -0.2383  0.1993
91512W        W34424  13.834  12.454   8.959  0.1646 -0.1804 -0.0122
91513W        W34425  11.246  12.024   6.677 -0.0279  0.0409 -0.3064
91514W        W34426  12.122  12.987   8.580 -0.3183  0.3664 -0.1970
91515W        W34427   9.425  12.237   7.486 -0.3074 -0.1681  0.2192
91516W        W34428  10.323  11.753   7.415 -0.4937  0.0876 -0.6151
91517W        W34429  11.758  14.146   8.919  0.0709  0.1112  0.0175
91518W        W34430  13.053  11.589   9.038 -0.1989 -0.0238  0.2296
91519W        W34431  11.524  13.650   7.491  0.1195  0.0982  0.0381
91520W        W34432  14.766  10.271   9.486  0.3582 -0.1319 -0.0198
91521W        W34433  13.160  12.063   8.450 -0.0158  0.1444  0.0021
91522W        W34434  13.315  12.901   7.219 -0.0391 -0.0695 -0.2182
91523W        W34435  13.984  10.660   7.835  0.0738 -0.2414  0.1694
91524W        W34436  13.117  11.184   6.405  0.0683 -0.1300 -0.0512
91525W        W34437  13.069  12.915   8.319 -0.1852 -0.2175 -0.3913
91526W        W34438  11.638  13.236   9.067 -0.1352 -0.1655  0.0045
91527W        W34439  12.081  12.290   7.221  0.0999  0.1648 -0.2493
91528W        W34440  14.053  14.781   7.943  0.2129 -0.1655 -0.1712
91529W        W34441  11.044  11.519   8.030  0.3864 -0.0485 -0.0817
91530W        W34442  12.938  14.314   8.941 -0.3996 -0.1144 -0.0171
91531W        W34443  12.328  10.929   9.364  0.0694  0.1210 -0.2844
91532W        W34444  10.942  12.434   6.436  0.1224 -0.3558 -0.1279
91533W        W34445  12.868  10.710   9.025 -0.1650  0.0662  0.1493
91534W        W34446  10.869  14.285   7.638  0.1219  0.1051  0.1125
91535W        W34447  11.776  12.602  10.407  0.1403 -0.1475  0.1376
91536W        W34448  11.333  11.519   8.417 -0.1254 -0.5466  0.0332
91537W        W34449  14.382  13.433   7.377  0.0583 -0.2390  0.0088
91538W        W34450  11.839  11.769   9.317 -0.1066 -0.0212  0.1575
91539W        W34451  11.953  12.586   5.118  0.1993  0.1719  0.2997
91540W        W34452  13.635  13.632   9.227  0.0479 -0.1249 -0.3415
91541W        W34453  11.437  17.830   9.939  0.2775  0.2514 -0.0686
91542W        W34454  12.324  12.706   9.999 -0.1180 -0.0176 -0.1538
91543W        W34455  12.134  11.853   6.762 -0.2333  0.1234  0.2140
91544W        W34456  11.604  14.013   7.194  0.2034  0.0958  0.3411
91545W        W34457  11.999  14.616   7.213 -0.1933  0.1698 -0.0370
91546W        W34458  11.254  11.347  10.038  0.0356  0.1612  0.0174
91547W        W34459  11.328  13.860   8.684  0.3094  0.3233  0.2131
91548W        W34460  11.758  13.848   5.365  0.1803 -0.1379 -0.0142
91549W        W34461  13.214  12.811  10.040 -0.1565  0.1583 -0.1715
91550W        W34462  11.767  13.951   8.445  0.1298  0.2507 -0.0287
91551W        W34463  13.216  10.399   9.804 -0.3774 -0.3005  0.0559
91552W        W34464  11.219  12.178   7.306 -0.3725 -0.1583 -0.0892
91553W        W34465  11.747  12.022   5.910 -0.1338  0.3983 -0.0709
91554W        W34466  10.914  12.496   7.059  0.1399  0.0828 -0.0177
91555W        W34467  14.083  10.027   8.914 -0.0603 -0.0841 -0.0880
91556W        W34468  14.857  14.155   6.863 -0.1876 -0.4240  0.0966
91557W        W34469   9.573  10.761   8.804 -0.0293 -0.1846  0.1638
91558W        W34470  12.218  10.080   8.144  0.2171  0.1975  0.0760
91559W        W34471  11.159  17.470   9.585  0.2494  0.3743 -0.0400
91560W        W34472  12.728  11.075   7.832  0.0851  0.0630  0.3294
91561W        W34473  10.775  11.042   7.900  0.2056  0.1234 -0.0641
91562W        W34474  16.409  12.752   9.277 -0.0454  0.0211  0.2059
91563W        W34475  12.613  11.990   7.735 -0.0307 -0.0003  0.3638
91564W        W34476  11.693  12.725   7.712  0.0267  0.2991 -0.1905
91565W        W34477  12.538  13.035   9.351  0.3253  0.2918  0.1405
91566W        W34478  11.784  12.806   6.625  0.2486 -0.0339  0.1856
91567W        W34479  10.809  12.783   8.907 -0.7324  0.1266 -0.1611
91568W        W34480  13.858  12.827   8.649  0.0338 -0.2245  0.1207
91569W        W34481  11.755  11.845   9.844  0.3427  0.0629  0.0563
91570W        W34482  13.159  12.064   9.354 -0.1751 -0.0283 -0.1433
91571W        W34483  12.707  11.928   9.302  0.1806  0.0336  0.0912
91572W        W34484  12.949  14.255   9.531  0.1609  0.1109  0.1188
91573W        W34485  11.764  10.791   9.015 -0.1143  0.0218 -0.0125
91574W        W34486  11.464  10.125   9.839  0.0466 -0.2569  0.1837
91575W        W34487  14.532  13.611   8.496 -0.2210 -0.3284 -0.2406
91576W        W34488  12.524  12.410   7.477  0.3031  0.0427 -0.2785
91577W        W34489  10.218  10.451   8.479  0.1916 -0.0883  0.1709
91578W        W34490  11.201  12.974   9.136 -0.1681 -0.3789  0.2124
91579W        W34491  12.022  11.304   9.574 -0.0881 -0.2486 -0.0474
91580W        W34492  12.382  13.589   9.393  0.3880 -0.1001  0.1298
91581W        W34493  10.934  13.760   6.413 -0.2741 -0.3529  0.0804
91582W        W34494  12.397  12.350   9.035 -0.3642  0.0034 -0.0419
91583W        W34495  13.960  11.949   8.066 -0.2028  0.2215  0.0943
91584W        W34496  14.084  12.952   7.334 -0.0690  0.2507  0.1435
91585W        W34497  12.558  12.123   8.571  0.0492 -0.0258 -0.0236
91586W        W34498  13.366  11.763   5.860 -0.2704  0.0316  0.2212
91587W        W34499   9.879  10.566   8.047  0.1618 -0.0883  0.1997
91588W        W34500  13.610  13.443   7.997 -0.3290  0.0626 -0.0092
91589W        W34501  12.627  11.181   8.935 -0.0500  0.0774  0.1094
91590W        W34502  10.637  11.966   6.476 -0.0492  0.2327  0.0107
91591W        W34503  11.428  12.192   9.362 -0.1931  0.0209  0.0862
91592W        W34504  13.127  13.431   8.195  0.0658  0.2874  0.5918
91593W        W34505  13.347  13.485   7.304  0.1571 -0.4559  0.0363
91594W        W34506  13.136  12.864   9.472  0.2054  0.0529  0.0826
91595W        W34507  11.719  13.282   6.553 -0.0252  0.0224 -0.1893
91596W        W34508  13.453  11.870   8.083 -0.2593  0.3139 -0.0155
91597W        W34509  14.421  11.630   5.863 -0.2935 -0.1940  0.2860
91598W        W34510  11.840  12.861   8.182 -0.1787  0.0134 -0.2451
91599W        W34511  12.452  13.254   7.183 -0.1527 -0.3367  0.1763
91600W        W34512  12.507  10.320   9.138 -0.0198 -0.2431 -0.0962
91601W        W34513  13.656  14.783   8.796  0.1870 -0.1404  0.0524
91602W        W34514  14.594  11.646   7.126  0.1931 -0.1171  0.0774
91603W        W34515  13.546  11.644   9.157 -0.1502 -0.0950  0.2834
91604W        W34516  13.509  13.117   8.336 -0.1307 -0.2118 -0.0232
91605W        W34517  13.505  11.473   7.653  0.0182  0.1301 -0.2553
91606W        W34518  10.121  10.590   7.573  0.0325 -0.3258  0.0262
91607W        W34519  10.903  10.663   6.961  0.1087  0.0813 -0.0424
91608W        W34520  12.432  13.946   6.617  0.1452 -0.4833 -0.1306
91609W        W34521  12.061  13.393   7.642  0.3245  0.1919  0.1980
91610W        W34522  12.939  12.094   8.883 -0.1564 -0.0457 -0.0459
91611W        W34523  11.560  11.271   9.236 -0.0906  0.1453 -0.1146
91612W        W34524  10.635  10.932   6.508  0.4645 -0.0324  0.3040
91613W        W34525  12.674  12.723   7.919 -0.1156  0.1267 -0.2190
91614W        W34526  14.382  13.643   9.674 -0.1268 -0.1122 -0.0630
91615W        W34527  12.019  11.531   7.095  0.0206  0.3392 -0.0548
91616W        W34528  11.583  13.535   6.956 -0.1783  0.0223  0.2456
91617W        W34529  13.293  11.525   9.557  0.4033  0.0771 -0.1520
91618W        W34530  11.675  15.569   9.643 -0.0859  0.1412 -0.0429
91619W        W34531  12.158  11.410   7.617  0.1335  0.2039  0.1749
91620W        W34532  12.726  11.195   9.880 -0.0675 -0.0116 -0.1182
91621W        W34533  12.618  11.747  10.101 -0.0562 -0.1698 -0.0769
91622W        W34534  11.300  13.956   9.181  0.2225  0.2364 -0.2888
91623W        W34535  11.295  11.757   9.032  0.0112 -0.1658 -0.0775
91624W        W34536  14.071  13.189   7.784 -0.3070 -0.0478  0.2372
91625W        W34537  13.831  14.104   7.984  0.2497 -0.3995 -0.0287
91626W        W34538  13.234  12.516   8.662  0.0374  0.1958 -0.2662
91627W        W34539  12.598  10.873   8.429 -0.1002  0.2020 -0.1618
91628W        W34540  12.060  14.103   7.007  0.0335 -0.4821  0.2241
91629W        W34541  10.219  11.678   9.148  0.0311 -0.2756  0.2028
91630W        W34542  10.739  12.810   8.000 -0.0476 -0.1121  0.0659
91631W        W34543  12.870  13.813   7.769  0.1995 -0.2146  0.1731
91632W        W34544  13.129  11.888   7.719 -0.0651  0.1009 -0.1245
91633W        W34545  12.879  13.312   8.603 -0.0097 -0.0240 -0.1730
91634W        W34546  11.015  11.654   6.075  0.0326  0.0754 -0.0933
91635W        W34547  11.365  12.644  10.065 -0.2793  0.1541 -0.1028
91636W        W34548  11.106  13.908   7.399 -0.2753  0.2681 -0.2235
91637W        W34549  14.196  13.901   8.246 -0.1199  0.1702  0.1854
91638W        W34550   9.796  13.943   9.499 -0.2795  0.1563  0.1645
91639W        W34551  14.315  10.802   8.185 -0.0016 -0.1561  0.2307
91640W        W34552  14.302  12.598   8.633 -0.3604  0.1485  0.0019
91641W        W34553  14.703  12.476   7.777  0.0752 -0.2040  0.2121
91642W        W34554  12.219  13.035  10.367 -0.2398  0.0208  0.0995
91643W        W34555  11.643  11.965   7.029 -0.1469  0.0967  0.4636
91644W        W34556  13.572  14.534   7.875  0.0131  0.1550 -0.1976
91645W        W34557  10.122  12.149   6.380 -0.0089  0.2551  0.0038
91646W        W34558  11.968  12.259   9.413  0.1229 -0.3502 -0.0509
91647W        W34559  13.614  11.446   9.943  0.1338  0.0884  0.0191
91648W        W34560  13.440  11.948   7.311 -0.1593 -0.0335 -0.1441
91649W        W34561  13.691  12.729   8.084 -0.0908  0.2821  0.3861
91650W        W34562  11.378  14.098   6.243  0.0397 -0.2751  0.0011
91651W        W34563  11.406  13.475   9.438 -0.1782 -0.2601 -0.0807
91652W        W34564  12.418  14.265   8.715 -0.2166  0.0908  0.1043
91653W        W34565  12.301  11.227   6.726 -0.0618 -0.0394 -0.2703
91654W        W34566  14.606  12.177   8.306 -0.0781  0.1267  0.1380
91655W        W34567  11.259  13.315   9.929 -0.4119  0.1825 -0.2434
91656W        W34568  11.559  13.154   7.386 -0.2522  0.0186 -0.0904
91657W        W34569  14.365  12.374   9.053 -0.1532 -0.1208 -0.2094
91658W        W34570  13.498  11.919   9.767 -0.0142  0.0222 -0.2030
91659W        W34571  10.710  11.913   8.305 -0.1264 -0.3039  0.0751
91660W        W34572  11.072  11.676   7.236 -0.0319  0.1845  0.1597
91661W        W34573  12.476  12.238   6.911  0.1822  0.0743  0.4497
91662W        W34574  11.836  11.305   8.298 -0.2286 -0.3336 -0.0446
91663W        W34575  12.047  11.213   9.015 -0.0770 -0.0117  0.0129
91664W        W34576  11.709  11.674   7.531  0.0289  0.2823 -0.0445
91665W        W34577  13.190   9.785  10.034  0.0785 -0.0387  0.2646
91666W        W34578  11.697  10.807   8.175  0.1610 -0.1040  0.1127
91667W        W34579  13.784  14.777   6.650 -0.3342  0.1039 -0.0924
91668W        W34580  13.919  12.547   9.472  0.0540 -0.0871 -0.0113
91669W        W34581  12.580  16.053   7.194 -0.1181 -0.0620 -0.1739
91670W        W34582  14.016  13.274  10.110  0.1367  0.0810 -0.1577
91671W        W34583  12.896  14.405   7.454 -0.1272 -0.2773 -0.4354
91672W        W34584  10.677  10.919   9.379 -0.2250 -0.2226 -0.2441
91673W        W34585  14.821  14.592   9.525 -0.1612  0.2564  0.0611
91674W        W34586  14.902  13.994   8.675 -0.0606  0.0096 -0.1408
91675W        W34587  13.288  11.144   7.077 -0.0943 -0.0081  0.1729
91676W        W34588  11.499  10.446   8.682  0.3414  0.0961  0.0125
91677W        W34589  10.376  15.118   8.167  0.1439  0.2702 -0.1015
91678W        W34590  11.324  11.694   9.639  0.1047  0.1358  0.1041
91679W        W34591  12.767  14.178   6.896  0.0104 -0.1173 -0.0230
91680W        W34592  11.459  13.165  10.386 -0.1141 -0.0092 -0.0552
91681W        W34593  11.192  12.949   7.699 -0.3072  0.2772 -0.1463
91682W        W34594  12.936  13.178   7.104  0.0174  0.0168 -0.1835
91683W        W34595  11.867  14.809   8.138  0.0764 -0.0234  0.0730
91684W        W34596  13.931  14.286   8.604 -0.3184  0.0881  0.1444
91685W        W34597  12.752  12.611   8.545 -0.0281 -0.0638  0.2149
91686W        W34598  15.008  13.420   8.653 -0.1538 -0.0842 -0.0993
91687W        W34599  12.076   9.807   9.114  0.1450  0.1039  0.0763
91688W        W34600  13.476  12.434   9.732  0.0007  0.2560  0.0239
91689W        W34601  13.879  10.771   8.679  0.0605  0.0653  0.5214
91690W        W34602  11.510  12.097  10.266  0.3517 -0.1281 -0.2173
91691W        W34603   9.544  12.098   6.929 -0.1573  0.2316 -0.0947
91692W        W34604  11.936  12.312   6.758  0.0417  0.0880  0.2431
91693W        W34605  12.088  12.864   9.533 -0.2283  0.2507 -0.1923
91694W        W34606  11.185  10.660   8.349 -0.0541 -0.1599  0.1157
91695W        W34607  11.091  10.317   7.457  0.0529 -0.0255  0.0388
91696W        W34608  14.104  13.846   8.767 -0.0302  0.4321 -0.0708
91697W        W34609  15.235  11.016  12.217 -0.2097 -0.0910 -0.4238
91698W        W34610  11.305  10.755  10.026 -0.0065  0.0221 -0.1978
91699W        W34611  13.693  13.861   8.378 -0.0744 -0.0795  0.0617
91700W        W34612  13.349  13.318   9.413  0.1881  0.1360  0.3325
91701W        W34613  12.438  11.252  10.381 -0.0379 -0.1317  0.0902
91702W        W34614  11.428  12.579   5.134  0.0852  0.1415  0.4799
91703W        W34615  10.519  10.264   7.519 -0.2535 -0.2250 -0.1379
91704W        W34616  12.081  12.725   9.049  0.1324 -0.0697  0.0262
91705W        W34617  11.699  12.693   8.709 -0.1879 -0.0861  0.2696
91706W        W34618  12.249  15.240   7.351  0.0457 -0.0747  0.0169
91707W        W34619  12.334  10.353   9.750 -0.0639 -0.2541 -0.1301
91708W        W34620  14.359  12.546   7.272  0.2941  0.0053  0.0143
91709W        W34621  13.579  13.154   7.585 -0.0630 -0.0290 -0.2184
91710W        W34622  14.049  11.316   9.110 -0.0558  0.1181  0.0598
91711W        W34623  13.154  12.385   7.607  0.1509 -0.1679 -0.1531
91712W        W34624  13.961  14.169   9.547  0.0380 -0.1442 -0.1679
91713W        W34625  10.964  12.938   9.882  0.1917 -0.0237 -0.2777
91714W        W34626  12.883  12.075   7.299  0.1493 -0.1967  0.2386
91715W        W34627  12.097  13.385   8.251 -0.1269 -0.3463 -0.3815
91716W        W34628  10.810  11.865   8.838 -0.0020  0.1348  0.2129
91717W        W34629  12.606  13.222   7.694 -0.2402  0.2519 -0.3095
91718W        W34630  13.649  13.449   8.693  0.0684  0.1470  0.2475
91719W        W34631  12.108  11.972   7.653 -0.1140  0.0647  0.2104
91720W        W34632  13.787  13.708   6.809 -0.0899  0.0163 -0.0741
91721W        W34633  12.545  15.665   9.239 -0.0061  0.1074  0.1331
91722W        W34634  13.976  13.269   9.405 -0.2622 -0.1191 -0.2545
91723W        W34635  12.746  12.293   8.128 -0.2312  0.1032  0.0652
91724W        W34636  10.772  12.990   9.386 -0.0114 -0.0990 -0.3096
91725W        W34637  11.604  10.857   7.459  0.0209  0.1341 -0.1701
91726W        W34638  11.692  12.242   7.491 -0.3495 -0.1681  0.4401
91727W        W34639  13.008  11.119   9.297 -0.0503  0.2416 -0.0628
91728W        W34640  13.337  11.608   8.608  0.2862  0.1228  0.0883
91729W        W34641  13.069  12.999   8.948  0.1063  0.0837  0.2235
91730W        W34642  12.425  11.491   9.292  0.3241 -0.0171 -0.2731
91731W        W34643  11.847  15.578   1.236  0.0040  0.0580  0.0264
91732W        W34644  12.182  16.699  31.954 -0.0517 -0.0623  0.1440
91733W        W34645  14.968  15.135  28.225  0.0529 -0.1065 -0.0875
91734W        W34646  14.553  16.743  31.431  0.0534 -0.0153 -0.0747
91735W        W34647  11.467  16.041   0.324  0.0451  0.0100  0.0526
91736W        W34648  13.941  16.990  31.242  0.0917  0.2395 -0.6658
91737W        W34649  12.771  15.031   2.552 -0.1128 -0.1829 -0.1476
91738W        W34650  13.344  17.595   0.216  0.0965  0.1106  0.0804
91739W        W34651  14.952  16.826   0.703  0.1654  0.2326  0.1199
91740W        W34652  13.157  15.700  31.589 -0.1881 -0.2080 -0.0149
91741W        W34653  12.989  17.126   3.882  0.0583  0.0851 -0.0198
91742W        W34654  12.999  15.796   1.959 -0.0318 -0.1399  0.1874
91743W        W34655  12.515  15.221  31.448 -0.1832  0.0612 -0.2003
91744W        W34656  10.714  15.307   1.807  0.3661  0.4971 -0.0374
91745W        W34657  14.688  16.017   1.711 -0.4390 -0.1291  0.2714
91746W        W34658  10.769  17.383   1.635 -0.1101  0.1893  0.0929
91747W        W34659  10.971  15.393   2.208 -0.0539  0.1816  0.0413
91748W        W34660  12.098  17.051   0.964 -0.1264  0.0296 -0.1111
91749W        W34661  13.556  17.219  31.556 -0.0708  0.1561 -0.3231
91750W        W34662  12.858  14.529   3.086  0.1769  0.0945  0.0981
91751W        W34663  14.065  13.771   3.058  0.0229  0.0045  0.3691
91752W        W34664  14.484  17.347  30.487  0.3051 -0.1429  0.0947
91753W        W34665  11.345  16.988  30.329 -0.1290  0.0187  0.3551
91754W        W34666  10.939  16.435   2.685 -0.1061 -0.0480  0.1423
91755W        W34667  11.129  16.504   1.348  0.0206  0.2039  0.2237
91756W        W34668  14.184  14.743   1.184  0.3601 -0.0690 -0.3957
91757W        W34669  15.268  17.584   1.101 -0.0803 -0.1182  0.3021
91758W        W34670  13.590  17.403   0.555 -0.0914  0.0931  0.0047
91759W        W34671  12.446  17.850  31.292 -0.2002  0.1605  0.2359
91760W        W34672  13.896  16.291   2.152  0.0692 -0.0901 -0.1219
91761W        W34673  11.185  16.957   1.828 -0.0164 -0.0681 -0.2693
91762W        W34674  11.450  18.958   0.148  0.0657  0.0309 -0.3166
91763W        W34675  13.329  17.466   1.241  0.3562 -0.1758 -0.3172
91764W        W34676  15.182  16.234  31.785  0.2972  0.0182  0.0531
91765W        W34677  13.708  16.087   2.611  0.1082 -0.3023 -0.0398
91766W        W34678  13.353  18.022   2.188 -0.4216  0.1742  0.0376
91767W        W34679  12.142  18.183  31.406 -0.0054 -0.0420  0.1101
91768W        W34680  13.780  17.411   0.097 -0.0944 -0.2652 -0.2539
91769W        W34681  11.371  18.125   2.732  0.0389  0.1940  0.0678
91770W        W34682  12.698  16.857   1.646  0.1879 -0.2845  0.0566
91771W        W34683  14.719  15.660   0.372 -0.2127 -0.0807  0.1086
91772W        W34684  13.234  16.781   1.662  0.1735 -0.0449 -0.1299
91773W        W34685  14.495  16.908   0.040  0.0322 -0.3941 -0.0762
91774W        W34686  12.152  17.282   3.992  0.2078 -0.1831 -0.4102
91775W        W34687  10.745  18.342   2.092  0.1707  0.0586  0.1697
91776W        W34688  14.004  15.387   3.606  0.1081  0.1138 -0.0143
91777W        W34689  12.299  16.992  30.647  0.0818  0.2639  0.2627
91778W        W34690  15.932  17.888  28.782  0.1145  0.0165 -0.2453
91779W        W34691  12.543  16.038  30.354 -0.4637  0.0255 -0.0033
91780W        W34692  14.282  15.767   0.569  0.2922  0.1106 -0.2425
91781W        W34693  13.037  14.318   1.888  0.3896  0.0503 -0.0777
91782W        W34694  12.995  17.907   1.213 -0.1853  0.0734 -0.0174
91783W        W34695  11.003  15.996   0.737 -0.0396 -0.2096  0.1364
91784W        W34696  15.100  16.032   1.974 -0.0617  0.0656  0.1944
91785W        W34697  13.068  16.845   0.294  0.2358 -0.3305 -0.2388
91786W        W34698  12.738  16.177   2.226  0.1282 -0.0758 -0.0646
91787W        W34699  11.820  17.362   2.379 -0.1274 -0.0412  0.1222
91788W        W34700  12.547  16.959   0.264  0.1547 -0.1132  0.0429
91789W        W34701  14.747  18.147  29.939  0.0565 -0.0252  0.1126
91790W        W34702  15.013  18.720   1.587 -0.0229  0.0658  0.0117
91791W        W34703  13.670  17.855  30.548  0.0074  0.1585 -0.1691
91792W        W34704  11.571  16.999   1.423 -0.0235  0.0076 -0.0097
91793W        W34705  11.643  16.369   3.312 -0.1087 -0.0185  0.2183
91794W        W34706  12.228  15.104   2.804  0.1446 -0.0994 -0.3568
91795W        W34707  12.127  14.016   0.538 -0.1794  0.1334  0.1936
91796W        W34708  15.023  17.525   2.946  0.2716 -0.1986  0.0295
91797W        W34709  12.454  17.014   3.102  0.0409 -0.0363  0.1631
91798W        W34710  15.010  16.339   1.560  0.0795 -0.1593  0.0984
91799W        W34711  11.739  16.587   0.241  0.0929  0.2268  0.1493
91800W        W34712  13.731  16.814   1.911  0.0027 -0.3129 -0.0881
91801W        W34713  14.537  15.982  28.520 -0.0185 -0.1046  0.1748
91802W        W34714  14.294  15.454   0.953  0.0965  0.1671  0.0267
91803W        W34715  12.220  16.050   1.111 -0.1206  0.3070 -0.0749
91804W        W34716  13.006  16.778  30.940  0.3923 -0.4717  0.0742
91805W        W34717  11.775  17.262  31.285  0.4273 -0.0606 -0.1576
91806W        W34718  14.372  16.252   1.991 -0.1002 -0.0464  0.3326
91807W        W34719  15.299  15.828  28.893 -0.1762  0.1349  0.1044
91808W        W34720  12.390  18.409   2.249  0.2013 -0.2266  0.0955
91809W        W34721  12.162  14.217   1.477  0.0244  0.1988  0.1086
91810W        W34722  11.404  16.343   2.855 -0.1988  0.0487 -0.0819
91811W        W34723  12.300  17.830  30.031  0.0267 -0.1102 -0.0356
91812W        W34724  11.724  16.096   1.234  0.1763  0.1899 -0.1978
91813W        W34725  10.946  16.592  30.405 -0.1878  0.2609  0.1399
91814W        W34726  11.456  14.380   1.934 -0.1029 -0.2957  0.4755
91815W        W34727  12.462  16.082   0.412  0.2294  0.0335  0.3922
91816W        W34728  14.262  15.639   0.057 -0.0163  0.2442  0.1867
91817W        W34729  10.987  15.517   3.992 -0.1303 -0.0560 -0.1277
91818W        W34730  13.718  15.353   0.881 -0.1017 -0.0607 -0.0171
91819W        W34731  12.837  17.461   0.382  0.1119  0.2881  0.5434
91820W        W34732  15.040  19.399  30.536 -0.1651  0.0067  0.3129
91821W        W34733  15.000  15.360   0.702 -0.0410  0.1342 -0.0445
91822W        W34734  14.243  18.161  28.865  0.0191 -0.1834 -0.0140
91823W        W34735  11.649  17.318   1.875 -0.2813  0.3678 -0.0072
91824W        W34736  10.666  15.184  31.391  0.0664 -0.0254 -0.0877
91825W        W34737  11.366  15.579   3.609  0.0343  0.0536 -0.0073
91826W        W34738  12.101  14.735   0.693 -0.1870  0.0926 -0.0724
91827W        W34739  13.475  15.744   2.122 -0.3064  0.1222  0.0052
91828W        W34740  10.518  15.322   0.035  0.0979  0.0529 -0.1585
91829W        W34741  14.434  16.108   0.248  0.2527 -0.1162  0.1740
91830W        W34742  12.718  16.465   0.841 -0.1299  0.3133 -0.0020
91831W        W34743  12.527  17.840   0.100  0.0924 -0.1069  0.1001
91832W        W34744  15.357  14.781   2.520 -0.1156  0.1469 -0.0287
91833W        W34745  13.944  17.422  29.502  0.2424 -0.0818 -0.4350
91834W        W34746  14.733  17.779   1.126 -0.0954 -0.1660  0.1989
91835W        W34747  14.361  17.059   0.680  0.1210 -0.2855 -0.1967
91836W        W34748  12.658  15.875   3.170  0.0654 -0.3749  0.2741
91837W        W34749  10.961  15.084  31.819 -0.1834 -0.2445  0.0302
91838W        W34750  11.978  18.782   2.337  0.2266  0.2036  0.2251
91839W        W34751  12.526  16.455   1.893 -0.1248  0.1188 -0.1392
91840W        W34752  11.566  14.931   0.159  0.0880 -0.0748  0.1143
91841W        W34753  14.032  17.056  31.744 -0.0526 -0.3664  0.0760
91842W        W34754  13.097  17.065  31.417  0.0630  0.2480  0.1722
91843W        W34755  11.804  17.773   2.077  0.1453  0.1730  0.2664
91844W        W34756  14.460  14.734   2.253 -0.0523 -0.0247 -0.0415
91845W        W34757  14.260  16.936   2.710  0.2422  0.1155 -0.1651
91846W        W34758  13.651  16.614  31.716  0.0928 -0.0112  0.1557
91847W        W34759   9.791  17.043  31.295 -0.1927  0.1617 -0.1019
91848W        W34760  14.665  17.652  31.394  0.0727 -0.0901  0.0195
91849W        W34761  12.629  18.128   0.887  0.1353 -0.0058  0.1371
91850W        W34762  11.851  17.918   0.790  0.1015 -0.2109  0.2564
91851W        W34763  12.502  17.108   0.714 -0.1254  0.1042  0.1023
91852W        W34764  16.131  15.726   0.799 -0.0540  0.2431  0.0488
91853W        W34765  11.310  15.507   3.089  0.4407  0.3411  0.0666
91854W        W34766  12.040  15.579   2.179 -0.3505 -0.3960  0.0392
91855W        W34767  11.960  16.718  31.174 -0.1407  0.0692 -0.0834
91856W        W34768  11.883  18.070   3.459 -0.2590  0.1523  0.2009
91857W        W34769  12.474  16.222  31.656 -0.0475  0.0140  0.0584
91858W        W34770  11.882  15.776   0.337  0.1290 -0.1504 -0.0353
91859W        W34771  12.560  16.497   3.007 -0.1468  0.0947 -0.1036
91860W        W34772  14.937  16.570  30.537  0.1960 -0.0104  0.1359
91861W        W34773  14.304  16.154  27.350 -0.0844 -0.2117 -0.0205
91862W        W34774  12.420  16.524  30.996  0.2013  0.2086  0.1217
91863W        W34775  10.526  16.226   3.304 -0.3721 -0.0159 -0.0706
91864W        W34776  15.077  17.476  29.683  0.0699  0.0351  0.1113
91865W        W34777  13.909  15.811   1.006 -0.0086 -0.1216  0.0468
91866W        W34778  12.915  16.276  30.865  0.0115 -0.1571  0.0123
91867W        W34779  15.668  17.305  30.890 -0.2115 -0.2028  0.2033
91868W        W34780  12.152  15.713   1.589  0.2208 -0.0758 -0.1314
91869W        W34781  13.387  16.792   3.774 -0.1506 -0.0507 -0.1416
91870W        W34782  14.459  17.269  31.605  0.0351  0.1437 -0.1976
91871W        W34783  12.918  14.248   1.377  0.0383 -0.2602  0.1019
91872W        W34784  11.316  15.049   1.084 -0.0887 -0.1263 -0.0406
91873W        W34785  13.421  16.184   0.465 -0.0384 -0.0456 -0.1473
91874W        W34786  10.637  18.205  31.145 -0.1023  0.0257 -0.1042
91875W        W34787  14.364  16.124   0.926 -0.2824  0.4028  0.4247
91876W        W34788  12.253  14.738   2.433  0.2687  0.0533  0.8454
91877W        W34789  11.766  15.410   1.707 -0.0439 -0.0741 -0.2004
91878W        W34790  14.679  15.779   3.807 -0.2265  0.0573 -0.1308
91879W        W34791  14.281  15.471  31.243  0.0613  0.3132  0.2736
91880W        W34792  12.973  16.910   0.793  0.0677 -0.1180  0.5009
91881W        W34793  13.110  17.633  30.669 -0.0768  0.1245 -0.1770
91882W        W34794  14.887  15.478   1.903 -0.0962 -0.1312  0.0581
91883W        W34795  11.613  16.752   1.967  0.2908 -0.0082 -0.1163
91884W        W34796  12.722  18.422   1.840 -0.0411  0.0484  0.2346
91885W        W34797  12.949  16.746   2.937 -0.5542  0.3082 -0.2735
91886W        W34798  14.417  16.756  30.479 -0.2657  0.0232 -0.0553
91887W        W34799  13.518  15.202   2.250  0.1610  0.2045 -0.1564
91888W        W34800  12.620  15.595   0.400  0.1981  0.2890  0.2197
91889W        W34801  13.848  19.083  31.813 -0.0289  0.4744 -0.0112
91890W        W34802  12.195  17.796  31.765  0.0829  0.0378 -0.0941
91891W        W34803  12.901  15.191   0.328  0.0135  0.0146  0.2812
91892W        W34804  13.566  17.232   1.714 -0.0357 -0.2848  0.2856
91893W        W34805  15.447  17.292  29.394  0.1013  0.2320  0.3117
91894W        W34806  13.352  17.312   3.129 -0.0744  0.2800  0.2058
91895W        W34807  12.954  16.283   0.380 -0.0976 -0.0688 -0.0086
91896W        W34808  14.589  14.765   1.487 -0.2678 -0.2365  0.0162
91897W        W34809  12.530  16.986   2.065 -0.0874 -0.1007  0.4025
91898W        W34810  11.017  15.555  31.592 -0.2800  0.2433 -0.0552
91899W        W34811  11.991  17.206  31.836  0.3017 -0.0982  0.2132
91900W        W34812  12.941  16.084  31.352  0.1942  0.0916 -0.1513
91901W        W34813  15.404  16.060  28.206  0.1504  0.0304  0.1635
91902W        W34814  12.568  14.931   1.172  0.3968  0.0014  0.0787
91903W        W34815  13.581  14.316   0.569 -0.3604 -0.1209  0.2318
91904W        W34816  11.550  19.245   1.525  0.0791  0.2774 -0.2748
91905W        W34817  12.697  15.362   0.964 -0.0849  0.2831  0.2802
91906W        W34818  13.501  15.574  31.218  0.1092  0.0609  0.1249
91907W        W34819  12.873  16.986   2.457 -0.0482  0.0082 -0.3905
91908W        W34820  11.714  15.914   3.652  0.1549 -0.0325  0.0646
91909W        W34821  11.811  16.938  30.694  0.0700  0.3562  0.0693
91910W        W34822  13.673  16.692   2.458 -0.0603 -0.0030  0.2026
91911W        W34823  11.947  16.202   0.646 -0.0615 -0.1408  0.1836
91912W        W34824  11.926  18.261   1.466 -0.3599 -0.0863  0.0252
91913W        W34825  12.448  17.354  31.951 -0.0346 -0.2175  0.1445
91914W        W34826  12.832  16.575  31.414 -0.1257 -0.2504  0.0623
91915W        W34827  12.717  16.925  31.772 -0.2457  0.1004  0.0208
91916W        W34828  11.966  15.208   4.233  0.3887 -0.2842  0.1393
91917W        W34829  14.536  16.610   2.378 -0.0511  0.1946  0.2112
91918W        W34830  11.636  16.141   1.993 -0.0248  0.1091  0.0654
91919W        W34831  11.393  16.359   0.826  0.3307  0.1773 -0.0725
91920W        W34832  12.314  15.203   0.645  0.2248 -0.1402 -0.3719
91921W        W34833  15.293  16.400   1.112  0.0584 -0.2338  0.0207
91922W        W34834  13.453  15.889   1.499 -0.4644  0.1882  0.3964
91923W        W34835  12.680  17.920   4.158 -0.1808 -0.3806 -0.3005
91924W        W34836  13.628  12.378   2.410 -0.0739  0.2516  0.2393
91925W        W34837  14.957  18.044  31.692  0.0169 -0.0997 -0.0401
91926W        W34838  12.998  16.266   1.690  0.0992 -0.0816 -0.0379
91927W        W34839  11.255  15.019   0.597 -0.1699 -0.1396  0.0366
91928W        W34840  10.777  16.516   3.625  0.0271 -0.1148 -0.2260
91929W        W34841  13.173  16.722  31.804  0.2110 -0.1431 -0.1019
91930W        W34842  13.214  16.461   0.832  0.1358  0.0666  0.0784
91931W        W34843  12.681  17.832   2.995 -0.1310 -0.0648  0.0621
91932W        W34844  11.646  18.114   0.341 -0.0635 -0.1700  0.1146
91933W        W34845  12.927  17.461   2.008 -0.3832  0.1875  0.1124
91934W        W34846  14.019  14.262  30.547  0.1105 -0.0702  0.1100
91935W        W34847  13.099  16.295  30.376  0.2686 -0.0112 -0.0761
91936W        W34848  12.692  14.878   0.695  0.2085 -0.1017  0.3520
91937W        W34849  14.677  14.778   2.719 -0.2942 -0.0182 -0.1776
91938W        W34850  14.883  17.312  30.140  0.2235  0.2769 -0.0282
91939W        W34851  13.500  14.470   1.980 -0.0449 -0.2343 -0.1702
91940W        W34852  11.720  14.812   1.845  0.1779  0.1215 -0.2372
91941W        W34853  14.808  17.029  31.180  0.1628  0.0433  0.1493
91942W        W34854  11.207  16.364   1.837  0.2960 -0.0008 -0.1870
91943W        W34855  13.670  18.755   1.886  0.3331  0.1062 -0.0318
91944W        W34856  11.985  16.515   3.016 -0.2123 -0.1669 -0.3457
91945W        W34857  12.316  14.487   1.093 -0.2644 -0.3723  0.0473
91946W        W34858  11.529  15.779  31.427 -0.3425  0.1668 -0.2993
91947W        W34859  12.542  15.704   1.280 -0.3336 -0.1576  0.0239
91948W        W34860  13.962  17.018   0.333  0.1075  0.0069 -0.2006
91949W        W34861  12.857  17.534  31.118  0.1439 -0.0692  0.0763
91950W        W34862  14.593  16.416  31.816  0.1611  0.0485  0.0826
91951W        W34863  14.115  16.760   2.188  0.0172  0.0486  0.0037
91952W        W34864  14.359  16.998  31.060  0.1151  0.2397  0.3824
91953W        W34865  13.196  17.361  29.884 -0.3137  0.1436  0.1810
91954W        W34866  13.744  16.325   0.930  0.1414 -0.0300 -0.0187
91955W        W34867  12.173  13.978   1.914 -0.0564  0.3546 -0.2574
91956W        W34868  14.136  16.589   0.086  0.2036  0.2181 -0.1087
91957W        W34869  12.294  16.666   0.586 -0.0896 -0.0968 -0.0083
91958W        W34870  12.675  14.618   2.125 -0.4874  0.0164 -0.1859
91959W        W34871  13.626  16.582   0.231  0.2476  0.2255 -0.1115
91960W        W34872  12.993  16.674   1.212  0.2116 -0.0648  0.1851
91961W        W34873  13.143  14.706   0.524 -0.1719  0.1860 -0.2667
91962W        W34874  13.761  17.162   2.843 -0.0184 -0.0821  0.3765
91963W        W34875  14.274  15.953  31.524  0.1493  0.1270 -0.2317
91964W        W34876  13.364  15.760   1.007 -0.1156 -0.0588  0.0572
91965W        W34877  16.335  16.625   0.582 -0.2312 -0.0007 -0.2626
91966W        W34878  14.838  15.016  28.736  0.2720 -0.0696  0.0727
91967W        W34879  12.102  16.224   1.644 -0.0242 -0.3425 -0.0463
91968W        W34880  12.209  15.795   2.702  0.2543 -0.3505 -0.2176
91969W        W34881  12.806  15.452  31.856 -0.1991  0.3295 -0.2899
91970W        W34882  15.169  15.158   1.564  0.1308 -0.1115 -0.1665
91971W        W34883  12.264  17.308  31.412  0.1555  0.0294 -0.6571
91972W        W34884  14.141  16.476  31.608 -0.0005 -0.1908  0.3680
91973W        W34885  14.763  15.998  29.037 -0.1358 -0.1443  0.0375
91974W        W34886  10.853  13.745   0.512  0.1957  0.1097  0.4235
91975W        W34887  12.143  17.868   4.083  0.0725  0.0427 -0.1086
91976W        W34888  12.480  15.984  31.070  0.1761  0.0677  0.0351
91977W        W34889  13.756  16.053  30.677  0.1512  0.0695  0.2569
91978W        W34890  15.531  16.756   1.353 -0.0510 -0.0189  0.0194
91979W        W34891  14.163  15.930   2.417 -0.0695 -0.1006 -0.0311
91980W        W34892  11.770  15.330   0.658  0.0741 -0.1931 -0.2520
91981W        W34893  13.382  15.362   1.780  0.0287  0.0484 -0.0704
91982W        W34894  11.952  18.294   2.093  0.2329 -0.1860  0.2957
91983W        W34895  13.348  15.267   1.290 -0.0186 -0.0899 -0.2386
91984W        W34896  11.915  18.364   0.986 -0.0422  0.0483 -0.0247
91985W        W34897  11.315  18.139   2.209 -0.3104  0.7324  0.0977
91986W        W34898  13.025  16.116   1.207  0.0254 -0.1707  0.0353
91987W        W34899  13.549  14.707   2.462  0.0058 -0.0764  0.0792
91988W        W34900  13.569  16.998  31.978  0.1885  0.0911  0.1260
91989W        W34901  12.591  16.388   1.362  0.1413  0.0831  0.0089
91990W        W34902  15.229  15.687   1.556 -0.0794  0.0609 -0.1751
91991W        W34903  14.518  16.491   1.420 -0.0715  0.1896  0.0400
91992W        W34904  12.201  16.712   1.554  0.0032 -0.1884  0.0352
91993W        W34905  13.080  17.906   0.633  0.0315  0.1388 -0.1300
91994W        W34906  14.414  17.930   0.012  0.0025  0.0400 -0.0260
91995W        W34907  13.062  17.251   1.584  0.2106 -0.1909  0.1095
91996W        W34908  11.766  15.467   3.297  0.0098  0.2459  0.1372
91997W        W34909  12.649  16.244   3.480 -0.3007  0.0747  0.2509
91998W        W34910  13.447  16.813  31.155 -0.1836 -0.1137 -0.0545
91999W        W34911  11.124  16.249  31.490 -0.4238  0.0327 -0.2734
92000W        W34912  13.447  17.178  29.507  0.2499  0.0500 -0.0414
92001W        W34913  11.641  17.742   4.220  0.3799 -0.0616  0.2114
92002W        W34914  10.630  17.523   2.651  0.0798 -0.0106  0.2852
92003W        W34915  13.458  17.668  31.701  0.1080  0.0097  0.0105
92004W        W34916  15.533  15.920  29.351 -0.0210  0.0416  0.0736
92005W        W34917  15.729  17.993  30.067  0.0641 -0.3611 -0.4840
92006W        W34918  13.831  18.090  31.683 -0.3239 -0.0565  0.0999
92007W        W34919  14.324  15.304  30.752 -0.0556 -0.1170 -0.1025
92008W        W34920  12.283  17.186   1.389 -0.2014 -0.2414 -0.1519
92009W        W34921  10.826  17.616  31.192 -0.1806  0.0301 -0.0441
92010W        W34922  15.000  18.146  30.713  0.1434  0.0683  0.0088
92011W        W34923  12.557  17.432   1.692  0.0906  0.0200  0.0929
92012W        W34924  15.115  16.328   3.093 -0.1489 -0.1920  0.2582
92013W        W34925  15.099  14.821  29.971  0.2584  0.0175  0.0419
92014W        W34926  15.260  16.388   0.557 -0.1378  0.1547 -0.3833
92015W        W34927  14.018  15.233   1.338 -0.3279  0.1788  0.0983
92016W        W34928  13.807  17.837   2.138  0.0535 -0.1584 -0.1752
92017W        W34929  13.911  17.197   1.369  0.4058 -0.0869  0.0088
92018W        W34930  11.567  15.306  31.760  0.0447  0.2334 -0.0236
92019W        W34931  12.374  15.229   2.314  0.0919 -0.3192 -0.2998
92020W        W34932  14.887  14.686   3.498  0.1749 -0.2066 -0.4937
92021W        W34933  12.135  17.446   2.796 -0.1333 -0.2371  0.0115
92022W        W34934  15.067  17.515  30.555 -0.2150  0.2220  0.0433
92023W        W34935   9.905  16.380  31.858  0.1863 -0.0944  0.2157
92024W        W34936  12.716  17.656   0.823 -0.2094  0.3283 -0.0697
92025W        W34937  14.725  15.008   1.867  0.2177  0.2759  0.2375
92026W        W34938  13.481  16.903   0.585  0.6105 -0.3840 -0.0090
92027W        W34939  14.475  15.385   1.613  0.0605 -0.0251  0.0193
92028W        W34940  12.639  18.182  31.659 -0.2917 -0.1262  0.1980
92029W        W34941  11.342  18.773   1.527  0.3329  0.0202 -0.1416
92030W        W34942  13.521  18.079   0.067  0.3228  0.0677 -0.2825
92031W        W34943  10.966  16.294   0.047 -0.0392  0.0248 -0.1873
92032W        W34944  16.038  16.317   0.811  0.0324  0.0970  0.2997
92033W        W34945  11.754  16.302   2.458 -0.3024 -0.0623  0.0986
92034W        W34946  13.542  13.945   2.071 -0.0109  0.0198  0.1787
92035W        W34947  12.524  16.861   1.158  0.0038 -0.0739  0.0743
92036W        W34948  13.999  16.745  30.115  0.2963  0.1130 -0.2507
92037W        W34949  12.061  16.554   2.138  0.0906 -0.1173 -0.2575
92038W        W34950  10.010  17.105   2.752 -0.2184 -0.0228  0.1983
92039W        W34951  13.548  15.584  30.392  0.1063 -0.2508 -0.2662
92040W        W34952  14.149  16.815   3.657 -0.3147 -0.1223  0.0756
92041W        W34953  13.893  15.620  31.593  0.0988 -0.1201  0.2608
92042W        W34954  13.198  18.380   1.952 -0.1233  0.1838 -0.0960
92043W        W34955  12.578  15.995   1.711 -0.2642  0.1205 -0.3208
92044W        W34956  12.652  16.482   0.049  0.4655 -0.0194 -0.0016
92045W        W34957  12.069  15.764  31.461 -0.1284 -0.0952 -0.0228
92046W        W34958  12.145  16.537   1.060  0.2804 -0.0279 -0.1827
92047W        W34959  13.786  17.122   3.430 -0.1344 -0.2833  0.1296
92048W        W34960  11.786  15.726  31.881 -0.1394 -0.0288  0.1060
92049W        W34961  15.905  18.080  29.508 -0.1981 -0.0691  0.0611
92050W        W34962  16.073  15.308   0.454  0.1058  0.1053  0.3393
92051W        W34963  12.185  17.392  30.929  0.2102  0.1403  0.0976
92052W        W34964  14.585  17.421  28.889  0.0749 -0.0253  0.0338
92053W        W34965  14.871  17.713   0.062  0.3090  0.1987  0.1223
92054W        W34966  11.428  15.806   1.667  0.1242  0.0217 -0.1057
92055W        W34967  12.939  17.006   3.331  0.1423 -0.4717  0.1226
92056W        W34968  14.909  16.951  31.758 -0.3787 -0.0639 -0.0782
92057W        W34969  13.601  13.857   0.935 -0.2880 -0.2336 -0.3643
92058W        W34970  12.744  16.137   2.713  0.4307  0.1710 -0.1363
92059W        W34971  12.775  18.358   1.339  0.1237 -0.0637 -0.2984
92060W        W34972  15.646  15.824   1.866 -0.0584  0.0327 -0.0214
92061W        W34973  13.669  14.859   1.240  0.2924  0.3685  0.0708
92062W        W34974  12.851  18.090  31.024  0.0913  0.0139  0.0406
92063W        W34975  14.989  14.174   1.455 -0.2383 -0.1049  0.0684
92064W        W34976  12.942  16.635   2.058 -0.0373  0.2557 -0.0086
92065W        W34977  13.069  17.616   2.573  0.1316  0.2355 -0.0811
92066W        W34978  13.455  16.070  31.049  0.1512 -0.0270  0.0503
92067W        W34979  12.445  15.433   4.148  0.0565 -0.2973 -0.3121
92068W        W34980  13.012  18.035   0.019  0.1805 -0.1024 -0.0652
92069W        W34981  12.737  16.551  30.542 -0.2297 -0.1956 -0.1593
92070W        W34982  13.853  17.099   0.849 -0.0911  0.2732 -0.0302
92071W        W34983  13.093  15.833   0.594  0.1674  0.2328 -0.0629
92072W        W34984  15.290  16.830   0.299 -0.1108 -0.1761 -0.0045
92073W        W34985  12.074  14.742   1.488 -0.0408 -0.2842  0.2509
92074W        W34986  13.935  16.142   0.413 -0.0375  0.3235  0.3358
92075W        W34987  13.950  16.153  31.910 -0.1912 -0.2177  0.3013
92076W        W34988  12.883  15.316   2.081 -0.0069  0.0494 -0.1312
92077W        W34989  12.251  17.533   0.476  0.0675 -0.0149 -0.0023
92078W        W34990  12.303  15.521  31.089 -0.0376  0.0153  0.1681
92079W        W34991  12.751  17.321   1.218 -0.3013 -0.2243  0.0007
92080W        W34992  13.203  15.307   0.707  0.2289  0.1720  0.1328
92081W        W34993  11.745  15.833   2.499  0.0125 -0.1437  0.2555
92082W        W34994  10.693  16.684   3.151 -0.0564  0.1930  0.3153
92083W        W34995  11.665  15.834   0.795 -0.3668  0.0443 -0.0828
92084W        W34996  13.388  16.976  30.587 -0.1867  0.3006 -0.0144
92085W        W34997  13.520  15.284   0.321 -0.0361  0.1382 -0.2375
92086W        W34998  12.199  15.232   1.485  0.0041  0.3330 -0.3885
92087W        W34999  14.759  17.833  30.341  0.1963  0.2988 -0.3664
92088W        W35000  14.891  17.250   0.315  0.0368  0.0089  0.1883
92089W        W35001  11.806  13.617   0.762 -0.2495 -0.0022 -0.3662
92090W        W35002  14.047  18.324   2.190  0.0122  0.2769  0.2502
92091W        W35003  11.035  16.826  31.605 -0.0343 -0.3533 -0.0542
92092W        W35004  13.445  16.188   1.920  0.3408  0.1679 -0.0921
92093W        W35005  12.339  15.443   3.246  0.0692 -0.1088 -0.0033
92094W        W35006   9.970  14.423  31.821 -0.1016  0.0368 -0.0591
92095W        W35007  14.010  16.590   0.601 -0.1109 -0.1749 -0.1054
92096W        W35008  14.215  17.521  31.114  0.0533 -0.0577 -0.0304
92097W        W35009  14.680  16.834  29.929 -0.0261  0.0712  0.2107
92098W        W35010  13.528  16.415   1.442  0.3066  0.1637  0.0572
92099W        W35011  13.360  18.012   3.405 -0.1369  0.2000 -0.1716
92100W        W35012  11.089  14.502   3.798  0.2020 -0.1069  0.0886
92101W        W35013  14.589  18.052  30.989 -0.3802  0.3969  0.1564
92102W        W35014  11.960  16.645   3.863 -0.2331  0.1671  0.1117
92103W        W35015  15.042  16.632  31.362 -0.0946  0.0637  0.2658
92104W        W35016  14.980  14.649   1.259 -0.0089  0.0629 -0.0730
92105W        W35017  15.096  15.713  30.984  0.3217  0.0481  0.0132
92106W        W35018  10.705  14.968   3.828 -0.1522 -0.2318  0.0801
92107W        W35019  11.332  17.645   3.505 -0.0112  0.1105 -0.1029
92108W        W35020  15.224  15.757   1.064 -0.1203  0.2130 -0.0985
92109W        W35021  11.713  14.590   1.181 -0.2802 -0.0829 -0.0039
92110W        W35022  12.306  15.773  31.975 -0.0038  0.2885 -0.1204
92111W        W35023  15.356  19.096  29.310 -0.3001 -0.1463 -0.0201
92112W        W35024  11.812  16.754   2.654 -0.1115  0.0432  0.0649
92113W        W35025  14.731  15.044  30.609  0.0392 -0.0984 -0.1238
92114W        W35026  11.910  15.878   4.137  0.1170  0.0084  0.1171
92115W        W35027  13.061  17.250  31.883  0.1713  0.0471  0.1761
92116W        W35028  13.935  15.567   2.274 -0.0058  0.1568  0.1466
92117W        W35029  11.949  16.156  31.985 -0.2955 -0.1270  0.0881
92118W        W35030  15.225  17.312  31.126  0.3944 -0.1652  0.0769
92119W        W35031  12.674  15.694   2.340  0.1025  0.0652  0.2287
92120W        W35032  14.735  16.341   3.552 -0.1054  0.1031 -0.1038
92121W        W35033  14.631  16.735   1.025  0.3836  0.2530 -0.0495
92122W        W35034  14.932  16.112   0.228 -0.0206 -0.1342 -0.1530
92123W        W35035  13.607  13.565   1.708 -0.0321  0.0677 -0.0152
92124W        W35036  12.057  17.076   0.342  0.0835  0.0416  0.1063
92125W        W35037  11.958  16.283  30.862 -0.2411 -0.1796  0.2431
92126W        W35038  14.682  15.192   1.202  0.0737 -0.1251  0.2932
92127W        W35039  12.654  14.559   1.640  0.2442 -0.0851  0.0814
92128W        W35040  12.772  15.986  31.968  0.0737 -0.0767  0.0670
92129W        W35041  12.285  17.647   2.090 -0.1745 -0.2483  0.0936
92130W        W35042  13.559  16.827   1.175  0.2026 -0.0272  0.0439
92131W        W35043  11.857  16.822   5.158 -0.0640 -0.0108 -0.3666
92132W        W35044  12.126  15.210   4.873  0.0700  0.3495  0.5796
92133W        W35045  13.423  14.329   3.243  0.2468  0.1984 -0.0721
92134W        W35046  13.853  15.914   1.789  0.3887 -0.2286  0.3311
92135W        W35047  11.603  15.208   5.609  0.0946  0.4927  0.0856
92136W        W35048  14.089  17.026   4.199  0.1032 -0.4001 -0.1310
92137W        W35049  10.931  14.993   6.436 -0.3213  0.3148  0.1735
92138W        W35050  14.231  17.604   4.520 -0.3567 -0.2647 -0.0494
92139W        W35051  14.568  18.466   5.301 -0.0572 -0.1835  0.1760
92140W        W35052  12.230  16.320   2.654 -0.1579  0.0000 -0.0026
92141W        W35053  12.751  15.691   5.482 -0.1115  0.0464  0.0392
92142W        W35054  11.762  18.650   5.971  0.4560 -0.1866 -0.1216
92143W        W35055  12.823  14.493   2.605 -0.1525  0.3529 -0.3368
92144W        W35056  10.264  15.891   5.563 -0.4517  0.2964  0.1094
92145W        W35057  13.378  14.861   5.445  0.2376  0.3350 -0.0073
92146W        W35058  11.212  15.734   4.438 -0.2273  0.2090  0.0862
92147W        W35059  12.440  14.344   5.566  0.0571 -0.1674  0.0602
92148W        W35060  12.450  16.885   4.072  0.0347  0.1875  0.1607
92149W        W35061  14.791  17.718   4.870  0.3444 -0.0864  0.2113
92150W        W35062  11.641  14.161   4.944 -0.0733 -0.0797  0.0115
92151W        W35063  13.792  14.455   5.475  0.0371  0.0802  0.0300
92152W        W35064  13.373  17.128   5.074 -0.2440 -0.1056  0.0628
92153W        W35065  11.037  16.524   4.083 -0.2596 -0.3007 -0.0032
92154W        W35066  10.249  14.891   5.968 -0.3412  0.0673 -0.2918
92155W        W35067  10.424  16.849   5.737 -0.2263 -0.2253  0.0065
92156W        W35068  13.542  14.557   4.131 -0.1289  0.2060  0.0240
92157W        W35069  13.718  16.269   5.014 -0.0913  0.2052 -0.0645
92158W        W35070  11.438  17.201   3.931  0.0074 -0.1044  0.0894
92159W        W35071  12.985  17.400   4.904 -0.0720 -0.1858 -0.1987
92160W        W35072  14.098  15.633   6.497 -0.0972 -0.0320  0.0301
92161W        W35073  11.003  17.145   3.660  0.4548  0.2624 -0.0751
92162W        W35074  12.304  17.682   5.875  0.1091 -0.3941  0.0913
92163W        W35075  12.393  18.782   4.495  0.2748  0.3702 -0.1055
92164W        W35076  14.239  16.402   3.386 -0.0677 -0.3843  0.4267
92165W        W35077  14.625  18.477   4.439 -0.1433 -0.2008  0.0279
92166W        W35078  13.017  16.475   7.799 -0.2368  0.2188  0.3336
92167W        W35079  12.745  17.221   4.486 -0.1165  0.1016  0.3258
92168W        W35080  14.137  17.894   7.348  0.1029 -0.1694  0.0097
92169W        W35081  13.250  17.147   7.279 -0.1147 -0.1161 -0.1020
92170W        W35082  11.914  15.591   5.871  0.1083  0.3109  0.2357
92171W        W35083  12.469  16.123   5.289 -0.2047  0.0523 -0.0962
92172W        W35084  12.764  17.942   2.225  0.1936 -0.0032 -0.1049
92173W        W35085  11.392  16.906   4.723 -0.1805  0.1619 -0.3704
92174W        W35086  11.791  16.092   7.677  0.0779 -0.1153 -0.0280
92175W        W35087   9.980  17.862   4.654 -0.0838 -0.0310  0.0205
92176W        W35088  14.301  14.496   7.561 -0.0001 -0.3232  0.0655
92177W        W35089  12.724  17.952   3.590 -0.0567 -0.1824 -0.1876
92178W        W35090  15.033  15.964   3.407 -0.2189 -0.0174  0.1867
92179W        W35091  12.611  15.443   2.786  0.0580 -0.1590 -0.1200
92180W        W35092  13.530  15.610   2.602  0.0902 -0.1204  0.0748
92181W        W35093  13.495  14.855   4.735  0.2435  0.0813 -0.1797
92182W        W35094  11.155  16.965   4.273  0.2939  0.3869 -0.2830
92183W        W35095  10.795  15.658   6.076  0.1138  0.1339 -0.2105
92184W        W35096  13.312  17.020   5.567  0.2556 -0.0879  0.0421
92185W        W35097  12.799  15.813   4.346 -0.1802 -0.2774 -0.0254
92186W        W35098  13.026  16.101   5.456  0.0858  0.1826 -0.2354
92187W        W35099  13.136  17.388   5.996  0.1101 -0.1280 -0.0278
92188W        W35100  12.238  15.869   5.599 -0.0915  0.1242 -0.1881
92189W        W35101  13.806  16.504   3.857 -0.0650  0.0063  0.0882
92190W        W35102  13.728  16.809   4.733  0.1047  0.2067 -0.2591
92191W        W35103  14.043  18.501   3.245  0.1069 -0.1795 -0.0326
92192W        W35104  11.753  15.861   5.341 -0.2057  0.0189 -0.0432
92193W        W35105  11.754  15.906   6.303 -0.1790  0.0703  0.0527
92194W        W35106  11.556  15.687   6.726  0.2502  0.0874  0.0807
92195W        W35107  11.066  13.627   4.414 -0.1515 -0.2011  0.0463
92196W        W35108  14.135  17.720   5.590  0.0152 -0.0146 -0.2988
92197W        W35109  10.601  17.608   6.103 -0.1055  0.2547  0.0161
92198W        W35110  13.075  14.619   4.399 -0.3814 -0.0531 -0.0218
92199W        W35111  11.853  16.134   4.647  0.0351 -0.2546 -0.3692
92200W        W35112  13.585  17.533   5.716  0.1580 -0.2492  0.2686
92201W        W35113  13.130  16.475   2.520  0.1973  0.2105 -0.0960
92202W        W35114  12.883  14.414   4.793 -0.1393 -0.0995  0.0669
92203W        W35115  13.870  15.025   5.477 -0.0334  0.3101  0.2845
92204W        W35116  13.101  16.877   4.736  0.0307  0.1529 -0.1365
92205W        W35117  12.167  16.970   4.564  0.1307 -0.1951 -0.0669
92206W        W35118  15.032  18.207   5.452 -0.0573 -0.0478 -0.0830
92207W        W35119  14.051  16.230   1.330  0.2436  0.2051 -0.2250
92208W        W35120  11.357  17.718   6.076  0.1648  0.3433  0.0869
92209W        W35121  10.499  14.971   7.707 -0.2186 -0.1841  0.3928
92210W        W35122  13.235  17.511   5.370 -0.2131  0.0726  0.2779
92211W        W35123  11.645  18.798   4.362 -0.0298  0.0963  0.0970
92212W        W35124  10.228  17.574   3.131  0.1696 -0.0998 -0.1095
92213W        W35125  11.485  17.350   5.035 -0.3030  0.0555  0.0476
92214W        W35126  10.311  14.547   6.362 -0.3190 -0.1326  0.0884
92215W        W35127  11.286  17.632   6.631 -0.1863 -0.1472 -0.2245
92216W        W35128  13.907  15.065   2.636 -0.0562 -0.1346 -0.1153
92217W        W35129  11.223  15.004   6.046  0.1362 -0.2896 -0.2000
92218W        W35130  13.784  14.308   3.616 -0.1730 -0.1374 -0.3166
92219W        W35131  10.452  16.194   4.573  0.0334 -0.1797  0.0817
92220W        W35132  13.100  18.158   4.671  0.1282  0.1087 -0.2206
92221W        W35133  14.213  15.580   4.075 -0.3709  0.1921  0.1253
92222W        W35134  13.918  16.608   3.053 -0.2009  0.0201 -0.1412
92223W        W35135  11.511  16.357   4.972  0.0164 -0.0409 -0.0639
92224W        W35136  11.448  15.353   4.991  0.1101 -0.0862 -0.0878
92225W        W35137  11.590  14.361   8.135 -0.2831 -0.3444 -0.2391
92226W        W35138  11.298  15.777   5.552  0.0524  0.2706  0.1335
92227W        W35139  13.860  15.679   5.997  0.0511  0.0667 -0.0153
92228W        W35140  11.210  14.821   4.907  0.4708  0.2914 -0.1734
92229W        W35141  13.960  13.832   5.522 -0.0585  0.0457  0.0485
92230W        W35142  12.398  15.309   5.624 -0.0585 -0.1702 -0.0204
92231W        W35143  11.032  17.821   3.123  0.1263 -0.0083  0.0094
92232W        W35144  14.611  15.252   5.604 -0.0059 -0.2958  0.0760
92233W        W35145  13.775  17.729   3.192 -0.0111 -0.4509  0.0096
92234W        W35146  13.300  17.477   6.495  0.1494  0.2029  0.0319
92235W        W35147  13.895  18.468   4.759 -0.0700  0.1018 -0.1254
92236W        W35148  10.340  14.393   8.440  0.0096  0.0290  0.1478
92237W        W35149  12.394  14.406   4.576 -0.0155 -0.4365  0.0636
92238W        W35150  11.378  18.379   5.208  0.1460 -0.1579 -0.0213
92239W        W35151  12.189  17.507   5.418  0.0494  0.0609  0.0251
92240W        W35152  12.193  13.699   3.866  0.1100  0.0576  0.0177
92241W        W35153  14.081  17.975   6.277 -0.1224 -0.3670 -0.1903
92242W        W35154  13.147  16.385   3.372 -0.0067  0.0984  0.0861
92243W        W35155  11.069  16.907   5.750 -0.4062  0.1109 -0.2359
92244W        W35156  14.311  14.070   5.912  0.2791  0.1817  0.1315
92245W        W35157  14.045  15.621   5.070  0.1775  0.0281  0.2797
92246W        W35158  13.613  16.023   4.579  0.0823  0.2194  0.1738
92247W        W35159  12.190  14.192   2.451  0.1785  0.0358 -0.1724
92248W        W35160  13.525  18.261   4.446 -0.3635  0.2278 -0.0422
92249W        W35161  10.678  18.373   2.626  0.0947  0.2268 -0.0899
92250W        W35162   9.887  16.111   4.574  0.1847  0.1255 -0.2375
92251W        W35163  13.321  15.884   4.240 -0.3779  0.1940  0.1469
92252W        W35164  13.804  14.355   4.623 -0.1335  0.0215 -0.0457
92253W        W35165  11.655  15.927   7.177 -0.0493  0.0240  0.0651
92254W        W35166  12.959  15.714   7.208  0.1049 -0.3536 -0.1129
92255W        W35167  11.851  17.006   3.542  0.0844  0.1024 -0.0174
92256W        W35168  10.713  18.281   6.004 -0.0690 -0.2389  0.0027
92257W        W35169  12.900  14.767   5.210  0.0537  0.0767  0.3410
92258W        W35170  14.242  14.953   2.986 -0.1725  0.0728 -0.1379
92259W        W35171  12.468  16.677   6.387  0.1446  0.0823 -0.0876
92260W        W35172  14.616  16.850   4.976 -0.1092 -0.1459 -0.3366
92261W        W35173  13.891  14.929   3.422  0.0710  0.2240 -0.0607
92262W        W35174  11.057  15.789   7.074 -0.0147  0.2960  0.1694
92263W        W35175  12.184  16.496   4.329  0.3038  0.0597 -0.0371
92264W        W35176  11.715  17.692   5.691  0.0204 -0.1843 -0.1391
92265W        W35177  12.406  14.940   3.331  0.2574  0.2585  0.0041
92266W        W35178  14.196  16.511   4.886 -0.0670 -0.1724 -0.3929
92267W        W35179  11.001  17.699   4.867  0.1003  0.1520 -0.1283
92268W        W35180  13.524  16.563   7.985  0.0777  0.3482 -0.0917
92269W        W35181  13.469  15.548   3.991  0.0186  0.0474 -0.0687
92270W        W35182  11.720  14.446   6.133 -0.1937 -0.0070 -0.1133
92271W        W35183  12.641  15.153   3.769 -0.3979 -0.1606 -0.0843
92272W        W35184  12.876  14.246   5.300  0.1527 -0.0574 -0.0912
92273W        W35185  13.514  18.425   3.619 -0.3255 -0.2875 -0.0956
92274W        W35186  14.263  15.173   5.188  0.0336  0.0634 -0.2747
92275W        W35187  13.392  15.890   5.870  0.0084  0.2379  0.1092
92276W        W35188  11.582  15.470   7.357 -0.1099 -0.0364  0.1300
92277W        W35189  13.417  15.546   6.229  0.0489  0.1065  0.0787
92278W        W35190  12.886  15.080   4.254  0.0264 -0.2630 -0.0112
92279W        W35191  12.502  17.211   6.064 -0.1786 -0.1394  0.0351
92280W        W35192  12.153  14.459   3.902 -0.3648 -0.2289 -0.1879
92281W        W35193  12.544  14.860   4.763  0.2401  0.0800  0.0252
92282W        W35194  11.071  15.606   6.548 -0.0037 -0.0518  0.0386
92283W        W35195  10.845  18.550   5.175 -0.2855 -0.1442  0.2527
92284W        W35196  13.697  16.017   6.360  0.2315 -0.0276  0.0371
92285W        W35197  14.363  16.567   5.447  0.0255  0.1391  0.2904
92286W        W35198  12.999  15.131   6.413  0.1327  0.2647 -0.1120
92287W        W35199  14.028  15.547   2.727 -0.3336  0.1093 -0.2465
92288W        W35200  12.483  18.270   3.862  0.1139 -0.1008  0.0019
92289W        W35201  12.614  16.601   2.502 -0.0085 -0.3495 -0.0303
92290W        W35202  13.537  15.382   5.736 -0.0737 -0.0044 -0.0639
92291W        W35203  11.936  18.155   6.124 -0.1733  0.0960  0.0799
92292W        W35204  10.661  16.654   4.443 -0.0176  0.0626  0.0504
92293W        W35205  12.104  16.633   6.758 -0.5205  0.2379  0.0625
92294W        W35206  10.965  18.292   3.017 -0.1649 -0.5034  0.1343
92295W        W35207  15.021  15.853   5.393  0.4292 -0.4349 -0.0070
92296W        W35208  12.664  17.957   5.492 -0.1804  0.0451 -0.2709
92297W        W35209  12.239  15.688   4.605 -0.1034  0.0185  0.0822
92298W        W35210  12.102  15.855   3.209 -0.1507 -0.0142 -0.1286
92299W        W35211  13.958  14.669   5.001 -0.1009  0.2431  0.0343
92300W        W35212  12.310  16.611   3.464 -0.2744 -0.1638 -0.1039
92301W        W35213  11.407  15.241   6.462  0.0796 -0.1706 -0.0689
92302W        W35214  11.415  14.496   4.626 -0.0234 -0.2959 -0.0149
92303W        W35215  10.887  17.895   5.789  0.1251 -0.0168  0.0300
92304W        W35216  12.291  16.233   5.932 -0.3781  0.3437  0.3694
92305W        W35217  13.226  15.188   3.717  0.0488 -0.1799  0.1313
92306W        W35218  14.237  17.188   5.685  0.2679  0.1868  0.0543
92307W        W35219  12.238  16.767   5.913 -0.0304  0.1910 -0.0932
92308W        W35220  10.843  14.532   4.615 -0.1950 -0.0829  0.1075
92309W        W35221  14.530  16.000   6.496  0.1936 -0.0199 -0.2426
92310W        W35222  11.221  16.949   5.212  0.0988 -0.0893  0.1276
92311W        W35223  10.665  17.899   3.885 -0.4555  0.2794  0.1547
92312W        W35224  12.036  16.430   5.592  0.0330 -0.0176 -0.0824
92313W        W35225  12.943  16.616   3.741  0.3805  0.0924  0.1362
92314W        W35226  11.720  16.913   4.242 -0.0236  0.0715  0.0177
92315W        W35227  11.268  14.654   7.820  0.1080  0.1517 -0.0552
92316W        W35228  13.370  16.062   7.221 -0.0443 -0.1972  0.1058
92317W        W35229  12.362  15.627   5.108  0.3102  0.0556 -0.2236
92318W        W35230  12.269  14.897   5.248 -0.1659  0.1032 -0.1709
92319W        W35231  13.578  15.323   5.180  0.1119  0.1331 -0.0116
92320W        W35232  13.235  16.635   7.012  0.1626  0.0759 -0.1140
92321W        W35233  11.942  16.305   5.146  0.0915  0.3157 -0.2101
92322W        W35234  11.257  16.306   7.151 -0.1795  0.0660 -0.1056
92323W        W35235  12.976  13.074   4.578  0.1514  0.0579 -0.3451
92324W        W35236  14.559  17.938   4.277 -0.0758  0.0469  0.0898
92325W        W35237  12.486  17.169   6.552 -0.2913  0.0033  0.2789
92326W        W35238  11.707  15.992   2.989 -0.0980  0.2751 -0.5212
92327W        W35239  10.576  16.546   5.061 -0.1564  0.1764  0.5582
92328W        W35240  11.462  17.828   4.714  0.2038  0.0477  0.0967
92329W        W35241  12.571  14.383   6.509 -0.0585  0.1180  0.2036
92330W        W35242  12.920  16.981   5.223 -0.4848  0.0413 -0.2123
92331W        W35243  13.215  17.710   4.282 -0.0023  0.0615  0.1327
92332W        W35244  10.597  17.343   5.697  0.3242  0.0930 -0.0016
92333W        W35245  14.955  15.076   2.329 -0.0671 -0.0743 -0.2328
92334W        W35246  12.994  16.727   4.211  0.0394  0.0004  0.1540
92335W        W35247  13.288  15.694   5.431 -0.1521  0.0216  0.0252
92336W        W35248  14.621  14.213   6.435  0.0964  0.1695 -0.0082
92337W        W35249  13.223  16.011   2.964 -0.1236  0.1406 -0.0628
92338W        W35250  13.685  15.834   6.893 -0.2621  0.2131 -0.1826
92339W        W35251  11.670  14.916   5.159  0.2938 -0.1286 -0.0484
92340W        W35252  12.573  15.693   3.605 -0.0848 -0.2272  0.1612
92341W        W35253  10.646  15.175   6.001 -0.1681 -0.0643  0.1121
92342W        W35254  12.137  18.238   6.706  0.3143 -0.0914  0.0671
92343W        W35255  11.107  17.428   7.983 -0.1644 -0.1039  0.1286
92344W        W35256  11.876  14.482   4.375  0.1140 -0.2021  0.2680
92345W        W35257  11.206  13.812   5.189  0.0656  0.1291  0.1067
92346W        W35258  12.658  16.186   6.296  0.0485  0.0867  0.3168
92347W        W35259  12.504  17.147   4.912  0.0584 -0.0592  0.0844
92348W        W35260  13.727  17.801   4.482  0.1938  0.4100 -0.0510
92349W        W35261  14.582  15.936   4.527 -0.0656  0.0752  0.2467
92350W        W35262  13.414  17.685   4.868 -0.2224  0.0844 -0.0935
92351W        W35263  13.118  15.477   4.449  0.0061 -0.1791  0.1309
92352W        W35264  12.877  17.300   2.888 -0.1241 -0.0339  0.0894
92353W        W35265  12.125  16.179   3.612 -0.0549  0.2045 -0.1318
92354W        W35266  11.342  15.908   7.600 -0.2938  0.1746  0.0672
92355W        W35267  12.933  15.356   3.379  0.0389 -0.1374  0.1954
92356W        W35268  14.144  15.405   5.633 -0.0774  0.1260  0.4459
92357W        W35269  12.589  14.843   6.130 -0.3914 -0.2054 -0.0675
92358W        W35270  12.576  14.992   6.599 -0.1872 -0.1644  0.0144
92359W        W35271  12.157  14.866   5.747  0.0460  0.0413  0.3154
92360W        W35272  10.766  16.424   7.916 -0.1072  0.2258 -0.1874
92361W        W35273  13.833  19.052   4.912 -0.3214  0.2166  0.3825
92362W        W35274  14.327  16.186   3.857  0.1672  0.1973 -0.2041
92363W        W35275  13.029  14.693   7.074 -0.0037  0.2363  0.1009
92364W        W35276  13.098  16.561   5.602 -0.0533 -0.1419 -0.0780
92365W        W35277  13.130  15.934   2.427  0.2886 -0.4428  0.1889
92366W        W35278  11.244  14.540   5.952  0.1923 -0.1686  0.0475
92367W        W35279  12.908  15.937   5.931 -0.3212  0.0894  0.0338
92368W        W35280  11.945  14.993   3.248 -0.1527  0.3217 -0.4269
92369W        W35281  13.249  14.547   6.611 -0.0249  0.0569  0.0492
92370W        W35282  12.178  18.421   4.273  0.1888 -0.0980  0.0105
92371W        W35283  10.872  17.477   5.271 -0.0857  0.2401 -0.0118
92372W        W35284  13.188  14.370   3.824 -0.0108 -0.0047  0.0477
92373W        W35285  11.644  16.012   5.843  0.1215  0.2219  0.2011
92374W        W35286  11.628  17.245   7.110  0.4616  0.1312  0.1267
92375W        W35287  12.490  15.517   1.875 -0.0206 -0.1603  0.0512
92376W        W35288  12.980  16.121   3.857  0.1280  0.0859 -0.0464
92377W        W35289  13.164  15.905   6.406  0.0145 -0.1581 -0.1764
92378W        W35290  12.709  16.814   6.820 -0.0923  0.0307  0.0799
92379W        W35291  13.796  13.792   3.939 -0.1631 -0.1525  0.0332
92380W        W35292  12.656  14.849   5.675 -0.0769 -0.0633 -0.1048
92381W        W35293  10.945  16.153   4.790  0.2530  0.0476  0.2524
92382W        W35294  13.923  15.171   4.866  0.2249 -0.0281  0.1316
92383W        W35295  11.102  18.190   4.789 -0.0660 -0.2946  0.0196
92384W        W35296   9.772  17.891   5.955 -0.1750 -0.0115  0.0868
92385W        W35297  13.911  15.873   3.545 -0.0066 -0.0818 -0.1677
92386W        W35298  12.270  13.881   5.245  0.0483  0.0973 -0.1513
92387W        W35299  13.029  15.232   5.438  0.0089  0.3443  0.3686
92388W        W35300  12.553  16.605   5.482  0.0117 -0.0017  0.2065
92389W        W35301  14.431  15.769   5.464 -0.0207 -0.2165  0.2230
92390W        W35302  13.402  16.561   7.518  0.0165  0.0966 -0.0841
92391W        W35303  11.000  16.660   4.848 -0.0800  0.2928 -0.3436
92392W        W35304  13.798  17.201   6.618 -0.0416  0.0717  0.2351
92393W        W35305  15.133  15.250   6.527  0.3275 -0.1637 -0.0907
92394W        W35306  12.621  16.688   4.547  0.1401 -0.0196  0.2122
92395W        W35307  10.742  15.248   6.848 -0.0281  0.4425  0.1903
92396W        W35308  11.761  15.036   6.056  0.2595 -0.5551 -0.2640
92397W        W35309  13.369  15.103   4.238  0.1799 -0.1601  0.0312
92398W        W35310  13.658  13.890   4.694  0.3953  0.1042 -0.1802
92399W        W35311  13.319  17.062   2.647  0.1929 -0.2456 -0.1607
92400W        W35312  10.929  17.904   6.304 -0.0707 -0.0892 -0.2061
92401W        W35313  10.843  16.855   6.653 -0.0097  0.1239 -0.2566
92402W        W35314  13.669  18.630   5.196 -0.1354  0.2774  0.0610
92403W        W35315  14.009  17.615   4.094 -0.1999  0.0965  0.2059
92404W        W35316  13.470  15.092   2.783 -0.1160 -0.3467  0.0038
92405W        W35317  13.019  17.890   5.119 -0.1201  0.0005 -0.1175
92406W        W35318  13.194  15.497   2.997  0.0262 -0.0898 -0.0394
92407W        W35319  10.870  17.792   4.390  0.1397  0.1325 -0.3467
92408W        W35320  11.972  17.053   3.054  0.1930  0.1239 -0.3337
92409W        W35321  13.816  15.295   3.125  0.0292 -0.0533 -0.0854
92410W        W35322  10.580  17.955   4.823 -0.3517  0.1616  0.1736
92411W        W35323  14.177  16.371   6.244 -0.0726  0.2166 -0.1256
92412W        W35324  13.772  15.136   3.965 -0.2133 -0.1982 -0.1157
92413W        W35325  14.307  15.091   4.240  0.2607  0.1091 -0.0393
92414W        W35326  13.547  15.514   4.708 -0.0101 -0.1909 -0.1323
92415W        W35327  12.645  17.923   7.296  0.0277  0.0379  0.0742
92416W        W35328  11.465  15.432   6.036 -0.1181 -0.2593  0.1270
92417W        W35329  13.246  14.683   2.896 -0.1345 -0.1354  0.3682
92418W        W35330  12.281  15.802   6.161 -0.1129  0.2298 -0.1041
92419W        W35331  14.869  14.695   5.620  0.2112  0.1514 -0.0690
92420W        W35332  10.876  17.338   6.609  0.1319 -0.0076  0.0074
92421W        W35333  13.900  17.561   1.746  0.0214 -0.1675  0.1707
92422W        W35334  11.758  15.593   4.557  0.1410 -0.0476  0.0628
92423W        W35335  11.353  17.392   4.446 -0.2389 -0.0198  0.1373
92424W        W35336  14.650  14.292   5.625  0.3933  0.2128 -0.3683
92425W        W35337  12.136  16.029   2.069 -0.0991 -0.0700 -0.0557
92426W        W35338  12.387  14.883   4.238  0.2802  0.0727  0.1331
92427W        W35339  11.693  18.253   4.383  0.1893  0.0126 -0.2442
92428W        W35340  12.746  17.416   5.387  0.0618  0.1835 -0.1962
92429W        W35341  12.282  16.601   4.903  0.1514  0.0902 -0.0062
92430W        W35342  12.921  15.547   3.930 -0.0777  0.1649 -0.0315
92431W        W35343  13.765  14.681   3.039 -0.1594 -0.0547  0.3506
92432W        W35344  11.787  16.626   4.702 -0.0475 -0.1175 -0.2640
92433W        W35345  14.496  14.744   5.250  0.2508 -0.2172  0.0970
92434W        W35346  11.672  16.288   6.847 -0.1925 -0.0491  0.4050
92435W        W35347  13.034  15.523   5.048 -0.1873  0.7340  0.0261
92436W        W35348  12.237  17.034   5.518  0.0572  0.1159  0.2026
92437W        W35349  12.000  14.142   5.672  0.0167 -0.0386 -0.2015
92438W        W35350  12.774  14.654   3.964  0.0092 -0.1594 -0.2591
92439W        W35351  13.796  17.099   5.713 -0.2016 -0.1652  0.0476
92440W        W35352  12.364  14.604   2.926 -0.3665 -0.1180  0.2252
92441W        W35353  12.936  17.230   6.826 -0.1176  0.0057  0.0472
92442W        W35354  10.200  15.402   5.915 -0.1899  0.0052 -0.0498
92443W        W35355  11.430  14.883   3.239 -0.0636  0.1606  0.0784
92444W        W35356  11.138  16.148   5.273  0.0517 -0.2020  0.2196
92445W        W35357  11.733  16.766   5.927  0.1394  0.1411 -0.0549
92446W        W35358  13.313  19.282   6.581  0.1109 -0.1226 -0.0370
92447W        W35359  11.577  14.799   4.114  0.4477 -0.2891 -0.0133
92448W        W35360  13.429  16.443   2.901  0.2301  0.0303 -0.0464
92449W        W35361  13.708  15.260   6.705  0.0053 -0.2910  0.2401
92450W        W35362  13.131  19.257   2.865 -0.1069 -0.3487  0.1277
92451W        W35363  12.384  15.930   4.035 -0.2117  0.0085 -0.4147
92452W        W35364  13.587  17.271   6.151 -0.2594  0.1398  0.0975
92453W        W35365  10.455  16.365   5.846 -0.1032  0.0001 -0.2393
92454W        W35366  12.855  16.969   5.778  0.0483  0.0790  0.0714
92455W        W35367  14.868  18.760   4.055  0.4654  0.1614 -0.1199
92456W        W35368  11.591  14.287   4.009  0.2602 -0.1999  0.1423
92457W        W35369  12.614  14.135   3.858  0.1105  0.5324 -0.1917
92458W        W35370  11.530  18.063   3.787  0.3722  0.2707 -0.1766
92459W        W35371  13.513  15.515   3.501  0.2898  0.3549 -0.4726
92460W        W35372  13.302  14.458   5.755  0.1686 -0.0651  0.1807
92461W        W35373  12.796  18.874   1.238  0.2687  0.5886  0.1418
92462W        W35374  14.233  14.042   6.697 -0.1883  0.0508 -0.2243
92463W        W35375  13.116  16.915   7.727 -0.2315 -0.2284  0.1406
92464W        W35376  11.311  17.656   7.151 -0.0193  0.1631  0.0873
92465W        W35377  11.495  17.233   3.291  0.0727  0.1735  0.0410
92466W        W35378  11.536  17.262   6.014 -0.0955  0.2443  0.0299
92467W        W35379  12.021  17.926   4.606 -0.1982  0.1743 -0.0426
92468W        W35380  13.787  17.330   4.697 -0.2720 -0.3304 -0.0631
92469W        W35381  14.629  17.256   4.659 -0.0563  0.0083  0.4156
92470W        W35382  12.632  15.209   5.100 -0.2681  0.0128 -0.1708
92471W        W35383  13.356  16.449   4.570  0.0382  0.0092  0.0390
92472W        W35384  12.684  15.925   4.876 -0.2079 -0.1396 -0.2072
92473W        W35385  14.330  15.442   3.109 -0.1170 -0.0998 -0.2121
92474W        W35386  13.340  13.930   4.073  0.0972  0.0456  0.0929
92475W        W35387  10.134  16.734   6.161 -0.0161  0.0803  0.2240
92476W        W35388  10.317  15.424   3.939  0.1403 -0.3099 -0.2443
92477W        W35389  11.752  17.540   3.723 -0.1899 -0.0091  0.0604
92478W        W35390  10.692  17.061   4.914  0.3182  0.5541  0.0794
92479W        W35391  11.746  14.601   7.662 -0.0989  0.2156  0.2880
92480W        W35392  11.160  16.052   6.617 -0.2493 -0.3002 -0.0924
92481W        W35393  11.457  16.754   3.723  0.1359  0.0730 -0.1341
92482W        W35394  11.012  13.986   4.745 -0.0646  0.1101  0.1126
92483W        W35395  13.662  16.310   3.330  0.0889  0.0627  0.1609
92484W        W35396  10.966  14.185   5.987  0.0023  0.2420 -0.3442
92485W        W35397  10.712  14.524   5.576  0.1876  0.0265  0.0248
92486W        W35398  13.368  16.368   4.084  0.1552  0.2075 -0.1324
92487W        W35399  14.379  17.451   5.064 -0.2860 -0.0295 -0.1667
92488W        W35400  13.048  15.055   4.745  0.1252  0.2615  0.1782
92489W        W35401  13.015  18.242   7.105 -0.0052  0.1154 -0.2819
92490W        W35402  10.511  17.107   3.496 -0.1601  0.0295 -0.2761
92491W        W35403  12.702  14.992   7.895  0.2002  0.0137  0.0300
92492W        W35404  11.604  14.991   7.262 -0.1664 -0.1150  0.0603
92493W        W35405  10.586  14.990   4.664  0.0687  0.0375  0.2653
92494W        W35406  11.912  15.345   5.280  0.3503  0.0561 -0.2945
92495W        W35407  13.428  15.997   3.737 -0.2117 -0.2800 -0.2293
92496W        W35408  13.610  17.904   0.610  0.1098  0.1681 -0.1910
92497W        W35409  12.136  17.479   6.330 -0.0554  0.0073 -0.1623
92498W        W35410  11.640  17.304   6.497 -0.2230  0.1794  0.1044
92499W        W35411  11.369  15.836   4.908  0.1983 -0.2424 -0.0029
92500W        W35412  14.111  16.073   2.901 -0.2059 -0.0168 -0.2969
92501W        W35413  12.776  17.637   6.478 -0.0422 -0.1513 -0.1900
92502W        W35414  14.256  17.920   3.794  0.2668  0.0487 -0.2201
92503W        W35415  14.795  14.710   4.815 -0.0699 -0.0873  0.2231
92504W        W35416  12.400  16.185   4.610 -0.0686 -0.3476  0.0578
92505W        W35417  11.664  14.713   5.688 -0.3190 -0.1365 -0.0750
92506W        W35418  12.063  16.995   6.339 -0.1345  0.4692 -0.1655
92507W        W35419  13.269  16.611   5.123  0.0285 -0.0763 -0.1177
92508W        W35420  10.671  13.801   5.122 -0.1823 -0.0237  0.3298
92509W        W35421  13.906  14.882   4.448 -0.2054 -0.1847 -0.2209
92510W        W35422  12.543  17.030   3.613  0.0489 -0.2408 -0.1291
92511W        W35423  11.173  16.279   5.841 -0.0565  0.2349 -0.0415
92512W        W35424  12.654  15.382   4.643  0.0895  0.2040 -0.0202
92513W        W35425  12.053  16.370   6.347  0.3635 -0.1327 -0.4323
92514W        W35426  12.955  16.250   4.384 -0.1639 -0.0514 -0.0095
92515W        W35427  13.853  16.086   7.411 -0.0910  0.0128  0.0195
92516W        W35428  11.479  16.636   5.537  0.2674 -0.0116 -0.0704
92517W        W35429  13.094  15.804   3.464 -0.1822 -0.1379  0.3189
92518W        W35430  13.458  18.775   4.667 -0.0563  0.0138  0.1752
92519W        W35431  13.613  18.170   6.313 -0.3139  0.1576 -0.0427
92520W        W35432  12.821  17.824   6.041  0.2446 -0.0317  0.0127
92521W        W35433  13.676  16.683   5.456  0.0930  0.0299  0.0242
92522W        W35434  10.427  12.806   6.938 -0.0900  0.1064  0.2386
92523W        W35435  10.862  17.286   4.488 -0.1395  0.0816 -0.0401
92524W        W35436  12.808  16.521   5.005 -0.2846 -0.2177 -0.1886
92525W        W35437  14.358  15.614   6.011 -0.1577 -0.1834 -0.2366
92526W        W35438  11.503  13.387   5.281  0.3137  0.0422 -0.1054
92527W        W35439  13.026  14.733   3.541  0.0791 -0.0469 -0.0680
92528W        W35440  13.005  18.617   4.733  0.1031  0.1188  0.0477
92529W        W35441  11.231  17.421   5.651 -0.0519  0.2611  0.0340
92530W        W35442  10.155  16.545   8.692 -0.0653  0.1146 -0.1032
92531W        W35443  11.631  15.604   7.872  0.0851 -0.4587 -0.1322
92532W        W35444  13.294  14.805   7.474 -0.0810 -0.1435 -0.3973
92533W        W35445  12.333  14.335   7.440 -0.0321 -0.0321  0.0253
92534W        W35446  10.975  14.345   9.073  0.0645  0.1354  0.3594
92535W        W35447  13.041  17.472   8.509  0.4998 -0.1282  0.1751
92536W        W35448  12.111  17.784   9.572 -0.0177 -0.3199 -0.0791
92537W        W35449  13.445  18.848   9.234  0.0984 -0.1040 -0.1138
92538W        W35450  13.208  15.535   6.684 -0.2323 -0.1084 -0.1506
92539W        W35451  10.927  16.123   9.688 -0.0227  0.2236  0.2627
92540W        W35452  11.348  14.164   5.630 -0.1068  0.0361 -0.3531
92541W        W35453  11.370  14.351   8.579  0.2591  0.0496  0.1394
92542W        W35454  14.116  12.932   9.726 -0.0826  0.3243 -0.0122
92543W        W35455  10.397  15.828   7.672 -0.0678  0.2538  0.0133
92544W        W35456  11.952  16.613   8.369  0.1350 -0.1726 -0.3546
92545W        W35457  11.684  15.952   8.182  0.1616 -0.4155 -0.0274
92546W        W35458  13.660  16.787   9.859 -0.3449  0.0527 -0.0765
92547W        W35459  13.118  14.649   8.593 -0.1047 -0.3523 -0.0834
92548W        W35460  13.999  17.512   6.043  0.3882  0.1848 -0.1162
92549W        W35461  12.206  16.820   7.310  0.4185  0.0424  0.2389
92550W        W35462  11.511  16.968  10.380 -0.1708 -0.0022 -0.0009
92551W        W35463  11.007  16.367   9.046  0.3996 -0.1248  0.0897
92552W        W35464  13.996  15.063   9.086  0.2684 -0.1452 -0.1895
92553W        W35465  13.788  14.792   9.660 -0.1972  0.1976  0.2066
92554W        W35466  12.815  16.705  10.361  0.0947  0.3455 -0.1157
92555W        W35467  11.099  17.768   8.669  0.0967 -0.0504 -0.3576
92556W        W35468  12.185  16.134   9.991 -0.2303  0.2268 -0.1053
92557W        W35469  10.913  18.685   9.350  0.0073  0.0134 -0.0282
92558W        W35470  11.269  18.195   7.376 -0.0339 -0.3607  0.2231
92559W        W35471  13.671  16.996   7.651  0.2234 -0.1682  0.0085
92560W        W35472   9.845  18.104   7.769 -0.3189  0.1501 -0.0085
92561W        W35473  11.981  17.741   9.061  0.1590 -0.2315 -0.3669
92562W        W35474  12.971  15.673   8.553 -0.0265  0.2542  0.2061
92563W        W35475  13.618  17.489   7.432  0.0026  0.2969 -0.1212
92564W        W35476  13.113  16.143   8.696  0.2255 -0.0463  0.1676
92565W        W35477  11.459  18.359   9.261  0.1870  0.0030 -0.0675
92566W        W35478  12.933  17.580   7.423  0.1168 -0.0729 -0.0285
92567W        W35479  13.728  16.616   6.318 -0.0374  0.0057  0.0017
92568W        W35480  10.641  14.542   8.029  0.1529  0.0272  0.0496
92569W        W35481  12.949  15.205   7.504  0.0222 -0.1823  0.1979
92570W        W35482  11.359  14.482   7.341 -0.1179  0.4226 -0.1539
92571W        W35483  11.488  18.900   9.206 -0.1887 -0.0894 -0.0949
92572W        W35484  11.695  16.401   9.264 -0.2164  0.1100 -0.0987
92573W        W35485  12.221  17.757   7.409 -0.1057 -0.0843  0.0818
92574W        W35486  11.980  17.274   7.461  0.1946  0.1830 -0.4410
92575W        W35487   9.403  15.430   9.294  0.1342  0.0577 -0.1604
92576W        W35488  10.678  15.063   9.483 -0.0621 -0.0284 -0.0700
92577W        W35489  13.739  16.487   7.161  0.1634  0.3944 -0.0484
92578W        W35490  13.956  16.226   6.703  0.0161 -0.0616 -0.1160
92579W        W35491  13.055  17.777   8.058 -0.0621  0.0279 -0.0130
92580W        W35492  12.162  15.728   7.936  0.4608  0.3740 -0.0818
92581W        W35493  10.913  14.765   7.511  0.1811 -0.1569  0.2650
92582W        W35494  14.417  14.213   8.592  0.1600  0.1321 -0.2022
92583W        W35495  11.365  16.459   8.532 -0.0776 -0.2084  0.2717
92584W        W35496  13.688  18.182   8.615 -0.0441 -0.3293 -0.0005
92585W        W35497  14.057  16.175   7.955 -0.3353 -0.0170 -0.3566
92586W        W35498  13.054  15.343   9.964  0.0271  0.2837  0.0502
92587W        W35499  13.966  17.887   9.703  0.2904 -0.1994 -0.0358
92588W        W35500  13.171  16.436   6.292  0.0122 -0.1290 -0.0918
92589W        W35501  12.141  16.710   8.854  0.1383 -0.1709  0.1422
92590W        W35502  15.446  18.022   9.761  0.1585  0.0149 -0.1791
92591W        W35503  13.469  16.366   6.683  0.0721  0.1242 -0.1029
92592W        W35504  11.282  16.464   7.643  0.1057  0.1392 -0.0768
92593W        W35505  11.769  16.735   7.070  0.0452 -0.2379 -0.0112
92594W        W35506  10.705  16.657   8.417 -0.1022  0.1315  0.2082
92595W        W35507  11.802  15.915   9.178 -0.1609 -0.1224 -0.0702
92596W        W35508  12.723  10.379  10.077 -0.1545  0.0758  0.0510
92597W        W35509  12.814  17.299   9.628  0.0336  0.1277 -0.1625
92598W        W35510  13.290  15.571   7.627 -0.0762  0.0530  0.1496
92599W        W35511  12.177  14.882   8.541 -0.3335 -0.0908 -0.0250
92600W        W35512  12.077  17.125   6.845 -0.0305  0.0120 -0.1937
92601W        W35513  12.157  18.009   8.171  0.1058 -0.1348 -0.0629
92602W        W35514  13.635  14.834   5.905 -0.0710  0.0188 -0.1960
92603W        W35515  13.633  16.954   7.057  0.0240  0.0826 -0.1928
92604W        W35516  10.231  15.312   9.647 -0.1653 -0.0093 -0.0406
92605W        W35517  10.845  15.463   8.295  0.3109 -0.0895  0.2188
92606W        W35518  10.048  15.449   9.111 -0.1008 -0.0915  0.3325
92607W        W35519  11.962  14.428   8.542 -0.1911  0.0610  0.2121
92608W        W35520  12.692  14.261   7.886 -0.3391  0.1000  0.2109
92609W        W35521  12.554  15.872   8.688  0.0800  0.1528  0.3001
92610W        W35522  10.226  17.539   7.613  0.1386 -0.1529  0.2174
92611W        W35523  13.625  17.283   8.574  0.1245  0.0666 -0.0721
92612W        W35524  13.271  14.793  10.140 -0.2823 -0.2104 -0.1115
92613W        W35525  12.595  16.752   9.825  0.0419 -0.2988  0.0061
92614W        W35526   8.463  15.042   9.434 -0.0487 -0.1364 -0.2138
92615W        W35527  11.979  14.683   9.507 -0.4550  0.0509  0.3445
92616W        W35528  11.609  17.952   9.427  0.2226 -0.1937 -0.1370
92617W        W35529  11.669  16.823   8.856 -0.1891 -0.2126  0.0911
92618W        W35530  11.931  15.399   6.915  0.3126 -0.2112 -0.0160
92619W        W35531  13.928  17.870   8.199 -0.1640 -0.1831 -0.1291
92620W        W35532  13.513  16.058   7.775  0.1387 -0.2163 -0.0816
92621W        W35533  14.821  15.597  10.001  0.0694 -0.0695  0.2403
92622W        W35534  12.729  16.256   8.994 -0.0169 -0.0545  0.2733
92623W        W35535  11.887  15.440   6.404  0.1027 -0.0495  0.2663
92624W        W35536  12.096  18.055   8.660 -0.1622 -0.0479 -0.0575
92625W        W35537  11.435  17.829   8.133  0.0066  0.1139 -0.0725
92626W        W35538  10.196  17.866   9.700  0.0961 -0.0512  0.1225
92627W        W35539  12.848  17.334   7.855  0.3373 -0.0993  0.2113
92628W        W35540  13.160  14.211  10.169  0.1309  0.3396 -0.2217
92629W        W35541  10.902  15.056   8.012 -0.1739  0.1070 -0.2501
92630W        W35542  12.313  15.165   8.165 -0.1522  0.4622 -0.1177
92631W        W35543  13.946  14.172   7.506  0.0931  0.0119 -0.2339
92632W        W35544  13.738  15.029   7.134 -0.1669 -0.1972 -0.1749
92633W        W35545  13.379  15.387   7.139 -0.2396  0.2708 -0.1347
92634W        W35546  12.621  14.880   7.361 -0.1663 -0.0188 -0.1363
92635W        W35547  13.215  16.989   8.764 -0.2758  0.0604  0.1229
92636W        W35548  12.549  16.194   9.526  0.1761 -0.3308  0.0070
92637W        W35549  11.702  14.866   6.742  0.3008 -0.3783  0.1318
92638W        W35550  13.476  17.424   6.921  0.0050 -0.1454  0.0765
92639W        W35551  10.544  16.293   8.806  0.1306 -0.2078  0.0672
92640W        W35552  14.633  16.097   9.556  0.0610  0.1978 -0.2032
92641W        W35553  11.756  16.221   8.694  0.3401 -0.0981 -0.1766
92642W        W35554  12.267  15.253   6.103  0.1836  0.0241  0.0949
92643W        W35555  11.874  15.369   8.226 -0.0594  0.2975 -0.1036
92644W        W35556  11.472  18.789   5.601 -0.0648  0.1272  0.0250
92645W        W35557  14.383  16.129   8.582 -0.1601 -0.2965 -0.1446
92646W        W35558  12.509  14.745   8.904 -0.0097  0.2511 -0.2030
92647W        W35559  13.875  16.522   7.634 -0.1337 -0.0724  0.0350
92648W        W35560  12.868  17.004   8.313  0.0578  0.2985 -0.0522
92649W        W35561  12.593  16.540   7.545 -0.0893  0.0451  0.0367
92650W        W35562  12.285  14.894   9.875  0.3037 -0.0740  0.2343
92651W        W35563  12.284  17.603   8.573 -0.0735 -0.0997  0.0666
92652W        W35564  13.433  16.211   9.563  0.1961 -0.1500  0.0945
92653W        W35565  12.359  16.891   8.414  0.0313 -0.0517 -0.0972
92654W        W35566  13.229  18.014   8.439 -0.0285 -0.4190  0.3272
92655W        W35567  12.065  16.644  10.108 -0.1659 -0.4756  0.1109
92656W        W35568  12.893  12.534  10.271 -0.1697  0.3221  0.0960
92657W        W35569  13.557  16.390   8.657  0.1405 -0.2440 -0.0759
92658W        W35570  12.977  16.325   7.323  0.0950 -0.0918  0.1355
92659W        W35571  13.468  14.301   8.489  0.1745  0.2104  0.5234
92660W        W35572  10.379  16.193   8.373 -0.0311 -0.1533  0.1512
92661W        W35573  14.519  14.675   8.838  0.0536 -0.3135 -0.0914
92662W        W35574  10.255  16.887  10.028 -0.1169 -0.1292 -0.2809
92663W        W35575  12.090  16.607   7.810  0.0338 -0.3080  0.0290
92664W        W35576  10.853  16.090   7.470 -0.0293  0.1274  0.4141
92665W        W35577  12.108  16.322   7.206  0.3759 -0.1390 -0.0167
92666W        W35578  14.019  16.364   8.409  0.0156  0.0412  0.2619
92667W        W35579  13.110  15.883   9.810  0.0156 -0.4094 -0.1560
92668W        W35580  13.450  14.452   9.176 -0.1718  0.1502  0.0832
92669W        W35581  11.145  17.046   9.884  0.0034 -0.0478 -0.3047
92670W        W35582  12.658  15.361   8.778 -0.2259  0.2199  0.1773
92671W        W35583  11.306  14.733   8.857  0.0363 -0.0911  0.1181
92672W        W35584  14.259  15.207   8.198  0.2393  0.0155 -0.0203
92673W        W35585  11.083  15.159   9.096 -0.1495 -0.0135 -0.3443
92674W        W35586  10.155  17.734   9.198  0.1385 -0.0259 -0.1105
92675W        W35587  12.993  16.056   9.342  0.1239 -0.0034  0.1494
92676W        W35588  11.156  16.106   8.070  0.0664 -0.1065 -0.0347
92677W        W35589  10.912  17.907   8.152 -0.1906  0.0258 -0.4208
92678W        W35590  14.328  16.273   9.098  0.2269  0.1741  0.3901
92679W        W35591  10.535  17.111   8.602 -0.1794  0.1321 -0.2664
92680W        W35592  12.078  16.213   8.119 -0.0116 -0.1015 -0.1361
92681W        W35593  12.577  13.671   9.857 -0.2243  0.0984 -0.1145
92682W        W35594  11.368  19.310   9.508  0.1538 -0.1589 -0.0916
92683W        W35595  14.847  14.017   9.347  0.3695 -0.1154 -0.2992
92684W        W35596  12.244  12.975   7.912 -0.3359  0.0140 -0.0558
92685W        W35597  14.997  17.524   7.279  0.1385 -0.1914 -0.3437
92686W        W35598  11.996  17.170   8.509  0.2692  0.0241 -0.1676
92687W        W35599  10.845  17.788   9.887  0.0165  0.2153  0.4335
92688W        W35600  11.934  18.090   7.672 -0.4631  0.1997  0.1352
92689W        W35601  11.167  16.549  10.048  0.2114 -0.1571 -0.0142
92690W        W35602  12.557  17.469   9.206 -0.0556 -0.1774 -0.3170
92691W        W35603  11.283  17.114   9.093 -0.0341  0.2090 -0.1084
92692W        W35604  11.552  16.877   7.791  0.1500 -0.1902 -0.0570
92693W        W35605  14.163  15.133   7.620 -0.2996  0.1917  0.0743
92694W        W35606  12.839  16.005   7.679  0.3777  0.0236 -0.1366
92695W        W35607  12.738  13.375   9.076  0.3268 -0.0818 -0.0731
92696W        W35608  12.859  15.213   6.986  0.0507 -0.0812 -0.0990
92697W        W35609  10.842  15.931   9.203  0.1909  0.1121  0.3736
92698W        W35610  13.313  17.238   9.573 -0.1109 -0.1811  0.1129
92699W        W35611  13.045  15.697   9.008 -0.0384  0.0285  0.1703
92700W        W35612  11.411  15.118   8.219 -0.2904  0.0561 -0.2760
92701W        W35613  10.941  16.162   8.491  0.0058  0.1568  0.0780
92702W        W35614  13.230  13.788   9.723 -0.1549 -0.0054 -0.2191
92703W        W35615  12.322  16.094   7.669 -0.2414 -0.0329 -0.1848
92704W        W35616  14.677  14.389  10.256  0.3158 -0.3449 -0.0214
92705W        W35617  10.369  16.335   7.368  0.0646 -0.0449 -0.2917
92706W        W35618  12.940  15.563   8.014  0.2772  0.0671 -0.3692
92707W        W35619  12.739  16.553   8.259 -0.1286 -0.0181 -0.1313
92708W        W35620  11.436  16.053  10.009 -0.0532  0.0561  0.1247
92709W        W35621  13.030  14.703   9.239 -0.1899  0.1587 -0.1718
92710W        W35622  10.587  15.656   9.564 -0.0120 -0.2072 -0.1845
92711W        W35623  13.754  18.885   9.685 -0.0491 -0.3546 -0.0031
92712W        W35624  14.683  16.148   7.015  0.1216  0.2731 -0.0102
92713W        W35625  13.529  14.978   9.263  0.2692  0.2288  0.2417
92714W        W35626  14.238  15.872   6.978 -0.2274  0.0359  0.2385
92715W        W35627  12.791  15.570   6.277  0.2496 -0.0496  0.1089
92716W        W35628  10.064  15.820   9.552  0.3380 -0.0778 -0.2131
92717W        W35629  10.330  15.036   6.429 -0.1361  0.2475 -0.0840
92718W        W35630  13.343  17.883   7.268 -0.1962 -0.0628 -0.1666
92719W        W35631  13.852  15.250   8.560 -0.0266 -0.1297  0.4831
92720W        W35632  12.700  15.862   6.689  0.0613  0.3742  0.1380
92721W        W35633  10.689  16.566   9.836 -0.6499 -0.1803  0.1358
92722W        W35634  11.373  15.164   7.702 -0.2816 -0.0144 -0.2361
92723W        W35635  12.847  16.912   7.288 -0.3545  0.0247 -0.2478
92724W        W35636  12.605  15.827   9.945 -0.1726 -0.3012 -0.0058
92725W        W35637  12.321  15.524   6.614 -0.0638  0.0541  0.0461
92726W        W35638  11.569  16.954   8.352  0.0749 -0.3451 -0.2540
92727W        W35639  11.605  14.922   9.223  0.4233  0.2499 -0.0290
92728W        W35640  11.821  17.049   9.886  0.1649 -0.1966 -0.2238
92729W        W35641  11.214  16.712   8.142 -0.0957  0.0644  0.2838
92730W        W35642  14.031  14.473   9.047 -0.2674 -0.2238  0.1014
92731W        W35643  14.350  14.660   9.422 -0.0445  0.0220 -0.1149
92732W        W35644  12.364  16.327   8.567 -0.0597 -0.0274  0.3287
92733W        W35645   9.826  16.361   8.363 -0.2618 -0.0333  0.1584
92734W        W35646  13.976  15.694   7.772  0.4010 -0.1721 -0.0928
92735W        W35647  11.700  18.240   8.386 -0.2590 -0.0158 -0.1483
92736W        W35648  12.236  16.159   9.053 -0.1298  0.0080 -0.1186
92737W        W35649  11.088  14.859   7.028 -0.0899  0.2805  0.2240
92738W        W35650  13.383  16.925   6.532 -0.3544 -0.1341  0.1504
92739W        W35651  10.689  13.405   9.744  0.1496 -0.0898 -0.0039
92740W        W35652  12.473  17.350   8.179 -0.0187  0.1649  0.1635
92741W        W35653  13.368  17.133   8.150  0.1698 -0.0521  0.1224
92742W        W35654  13.207  16.621   8.361  0.1320  0.2536  0.1354
92743W        W35655  12.350  20.312   9.613  0.1021  0.1027 -0.0548
92744W        W35656  11.379  15.565   8.385 -0.0509  0.3484 -0.1104
92745W        W35657  10.615  17.793   9.022  0.1735  0.0691 -0.4779
92746W        W35658  10.746  17.338   7.658  0.2563 -0.0959 -0.1954
92747W        W35659  13.420  18.439   6.772  0.0963  0.3977 -0.0276
92748W        W35660  10.492  16.815   7.734 -0.2031 -0.2452 -0.1089
92749W        W35661  13.878  14.680   7.475  0.2402 -0.2569  0.0457
92750W        W35662  14.923  15.394   8.956 -0.0404 -0.1729 -0.0171
92751W        W35663  14.176  14.847   7.045  0.0541 -0.1800 -0.2517
92752W        W35664  13.463  15.979   9.138 -0.0725  0.0708 -0.1342
92753W        W35665  12.518  14.625   8.293  0.0356 -0.3068  0.0128
92754W        W35666  13.023  16.992   9.214  0.0924  0.2798  0.0472
92755W        W35667  11.017  15.564   8.790 -0.0915  0.0321  0.0433
92756W        W35668  10.878  16.650   7.302  0.0462  0.1693  0.0073
92757W        W35669  14.755  16.424   8.937  0.1744 -0.0687  0.1733
92758W        W35670  13.089  16.031   8.155 -0.1899  0.2154  0.1375
92759W        W35671  13.099  15.138   9.478  0.1129 -0.0523  0.0304
92760W        W35672  11.462  18.361   7.891  0.4090 -0.2443 -0.3023
92761W        W35673  11.039  15.530   9.640  0.0560 -0.0686 -0.2581
92762W        W35674  12.851  18.774   8.937  0.0756 -0.0218 -0.0207
92763W        W35675  11.666  13.630   9.890  0.2597  0.0541 -0.1230
92764W        W35676  13.705  15.246   7.571  0.1795 -0.1044  0.2529
92765W        W35677   9.140  14.697   9.716 -0.0079  0.2033 -0.0130
92766W        W35678  10.047  16.257   9.121 -0.1718  0.2076 -0.2342
92767W        W35679  12.056  15.254   8.937  0.1531  0.1820  0.0918
92768W        W35680  12.557  16.091   8.129  0.0177  0.2635 -0.1874
92769W        W35681   9.406  14.265   9.901 -0.0714  0.2991 -0.1654
92770W        W35682  12.473  17.282   7.524  0.0209 -0.2209  0.1328
92771W        W35683  12.040  15.942   6.832 -0.1303 -0.1517  0.1122
92772W        W35684  12.072  14.601   9.008  0.1764  0.0567 -0.1868
92773W        W35685  12.476  15.593   7.063 -0.0705  0.1018 -0.0211
92774W        W35686  10.215  16.425   7.891  0.1636  0.1991  0.0272
92775W        W35687  13.030  16.358   9.951  0.1063 -0.0793  0.0119
92776W        W35688  12.872  14.160   8.397 -0.1111 -0.0569  0.2104
92777W        W35689  12.496  17.860   6.803 -0.0690 -0.4712  0.0911
92778W        W35690  13.913  16.110   8.810 -0.2464 -0.1748  0.0449
92779W        W35691  11.687  18.972   7.275  0.4563 -0.0152  0.2381
92780W        W35692  14.502  16.313   8.075  0.0762 -0.1909 -0.0877
92781W        W35693  13.695  16.415   9.168 -0.5390  0.1342 -0.2131
92782W        W35694   9.717  15.891   9.046 -0.1629 -0.1950  0.3967
92783W        W35695  14.730  17.997   9.092  0.0482  0.3042  0.1765
92784W        W35696  12.159  15.491   9.940 -0.1106  0.0021  0.2027
92785W        W35697  12.157  13.821   8.887 -0.1186 -0.1862  0.1111
92786W        W35698  11.764  15.635   8.760 -0.1986 -0.4282  0.1175
92787W        W35699   9.853  17.623   7.918  0.3339 -0.1005 -0.0773
92788W        W35700  13.505  15.699   8.742 -0.0059  0.0520  0.2449
92789W        W35701  13.033  18.057   7.581 -0.2022  0.2200  0.2092
92790W        W35702  11.094  17.007   8.588 -0.0811 -0.2574  0.0387
92791W        W35703  10.582  14.837   8.515 -0.3212 -0.0596 -0.2926
92792W        W35704  12.203  17.092   9.602 -0.0651  0.2813 -0.1230
92793W        W35705  12.512  16.773   9.251 -0.0949 -0.4215  0.1881
92794W        W35706  13.235  18.013   8.987 -0.1578 -0.3921  0.0191
92795W        W35707  11.733  14.986   8.680 -0.0350  0.2059  0.0413
92796W        W35708  13.228  16.546   9.012 -0.0492 -0.0798  0.1445
92797W        W35709  11.214  12.875   8.630  0.2207 -0.2443  0.3065
92798W        W35710  14.727  14.999   7.383  0.0661  0.0707 -0.1301
92799W        W35711  11.478  14.671   9.743 -0.0141 -0.1621 -0.1896
92800W        W35712  11.813  16.099   9.665  0.5019 -0.0673  0.0495
92801W        W35713  10.636  15.423   7.841 -0.1593  0.0084  0.2952
92802W        W35714  11.334  16.864   7.217 -0.0836 -0.2603 -0.1826
92803W        W35715  10.718  17.053   8.102 -0.4038  0.0172  0.1100
92804W        W35716  10.538  16.470   9.255 -0.0485 -0.0508 -0.0498
92805W        W35717   9.420  14.460   7.341  0.0509  0.2422  0.1699
92806W        W35718  14.248  16.354   7.155  0.2054  0.2890  0.0504
92807W        W35719  12.507  14.059   9.196 -0.0662  0.2325  0.0487
92808W        W35720  10.942  13.742   8.313  0.2197  0.0884 -0.3511
92809W        W35721  13.307  15.622   9.435 -0.2038  0.1476 -0.0761
92810W        W35722  14.030  15.834   8.414 -0.0658 -0.0973  0.4597
92811W        W35723  12.415  13.407   8.649 -0.2434  0.2068 -0.2692
92812W        W35724  11.566  16.433   8.021  0.0655  0.5926  0.0716
92813W        W35725  10.479  13.300   7.338  0.4043 -0.0202  0.3769
92814W        W35726  11.164  16.584   9.520  0.3299 -0.0361  0.2738
92815W        W35727  12.564  17.801   7.773 -0.0149  0.5193  0.0550
92816W        W35728  12.093  18.092   5.612 -0.0261  0.0975  0.0739
92817W        W35729  11.592  14.134   9.668  0.0953  0.0463 -0.0214
92818W        W35730  13.626  16.047   8.264  0.1904 -0.1036  0.1388
92819W        W35731  15.045  16.127   6.445 -0.2746 -0.0973  0.0727
92820W        W35732  13.249  15.114   7.918 -0.1177  0.2167 -0.0852
92821W        W35733  12.946  16.290   6.732  0.0899 -0.0090  0.0997
92822W        W35734  12.745  13.046  10.139 -0.2926 -0.1122 -0.0636
92823W        W35735  12.378  13.869   8.412  0.1019  0.1571  0.1385
92824W        W35736  11.928  15.170   7.683  0.2430  0.0164 -0.0179
92825W        W35737  14.007  16.700   8.888 -0.1713 -0.0243 -0.2602
92826W        W35738  10.418  16.902   9.514 -0.0543  0.0264  0.1906
92827W        W35739  12.499  15.592   8.317  0.1483  0.2046 -0.0809
92828W        W35740  12.584  16.895   7.863 -0.0584 -0.0644  0.0792
92829W        W35741  11.714  16.523   7.465  0.0102  0.1445  0.1882
92830W        W35742  13.886  15.843   5.484  0.1108  0.1200  0.0971
92831W        W35743  12.780  18.216   8.909 -0.0012  0.1070  0.0105
92832W        W35744  11.911  18.225   9.129  0.1265  0.1251 -0.1053
92833W        W35745  14.771  15.837   7.851  0.0228 -0.2594  0.0345
92834W        W35746  14.038  16.039   9.451 -0.1891  0.1066  0.0425
92835W        W35747  12.099  15.717   7.422  0.1191  0.2508  0.2993
92836W        W35748  12.084  15.879   8.499 -0.0492  0.3813  0.0037
92837W        W35749  12.694  15.381   9.658 -0.2350  0.3626 -0.3237
92838W        W35750  12.802  14.806   9.734 -0.4413 -0.1055 -0.4664
92839W        W35751  12.580  15.532   7.603 -0.1600 -0.0945  0.1680
92840W        W35752  10.705  15.953   8.069  0.0147 -0.3285  0.0910
92841W        W35753  13.212  15.203   8.961 -0.0852 -0.2321 -0.0520
92842W        W35754  11.513  20.484   3.279  0.0516  0.0116  0.0885
92843W        W35755  13.307  20.126   0.352  0.0685 -0.0636  0.1262
92844W        W35756  15.168  19.677  30.034  0.3969 -0.1334  0.0450
92845W        W35757  14.961  19.523   1.026 -0.0038  0.1366 -0.2783
92846W        W35758  12.961  19.253   0.879  0.2301  0.1345 -0.1425
92847W        W35759  14.726  21.798  31.745  0.3921  0.1790  0.1552
92848W        W35760  12.545  16.391   3.963  0.1745  0.2946  0.1380
92849W        W35761  13.449  20.599   0.477 -0.0311  0.0286  0.1674
92850W        W35762  13.936  20.594   2.832  0.0448  0.0302  0.0976
92851W        W35763  14.135  20.229  30.066 -0.2308  0.1514  0.1905
92852W        W35764  13.469  17.999   1.060 -0.0438  0.0215 -0.2008
92853W        W35765  12.929  20.973   1.163  0.0642  0.0089 -0.0421
92854W        W35766  12.206  18.244   0.112 -0.0848 -0.0391  0.0785
92855W        W35767  10.983  19.079   1.291  0.2029  0.0595  0.0256
92856W        W35768  14.627  19.138   1.089 -0.0736 -0.0773  0.1709
92857W        W35769  12.009  20.158  30.434 -0.3319 -0.0782  0.0507
92858W        W35770  12.681  18.914   1.709  0.1247 -0.0350 -0.1391
92859W        W35771  12.872  19.403  31.215 -0.1627 -0.4007 -0.2498
92860W        W35772  12.428  22.459  31.637  0.2841 -0.0542 -0.1694
92861W        W35773  13.220  18.198   2.682 -0.4236  0.2118  0.2492
92862W        W35774  13.799  18.944   0.834  0.2352 -0.2908  0.0327
92863W        W35775  13.399  20.855  31.755 -0.5067  0.2458  0.2218
92864W        W35776  11.584  18.132  31.151 -0.0564  0.1709  0.0592
92865W        W35777  12.122  19.568   1.524  0.0737  0.0694 -0.1778
92866W        W35778  11.821  18.746   1.459 -0.1783 -0.2515 -0.0080
92867W        W35779  13.352  18.957  31.682  0.3899 -0.0807 -0.3441
92868W        W35780  14.091  18.535   1.703 -0.2051  0.1286 -0.0313
92869W        W35781  13.517  21.664  31.115  0.0641 -0.1319  0.2408
92870W        W35782  13.448  21.730   0.707 -0.1258  0.1672 -0.1436
92871W        W35783  13.947  17.867   0.246  0.0108  0.0419 -0.2944
92872W        W35784  12.123  21.435   0.060 -0.1627  0.1686  0.0182
92873W        W35785  11.894  21.707   0.460 -0.2610 -0.3944 -0.0997
92874W        W35786  13.871  21.378   0.962 -0.1979  0.0594  0.1176
92875W        W35787  14.403  20.194   0.151 -0.1009 -0.0913 -0.2706
92876W        W35788  14.060  21.138   4.109  0.0284  0.1622 -0.1960
92877W        W35789  12.843  21.753   3.166  0.2794  0.0680  0.0305
92878W        W35790  13.364  19.561  30.406 -0.2192 -0.1698  0.0651
92879W        W35791  13.380  21.787   3.271  0.1569  0.3096  0.0388
92880W        W35792  12.163  20.957   2.270 -0.4104  0.0180 -0.2033
92881W        W35793  12.953  20.338   1.934  0.0107 -0.2101 -0.1045
92882W        W35794  13.154  20.744   1.495  0.2276  0.0812  0.1283
92883W        W35795  11.277  20.959   0.255 -0.0932 -0.2255 -0.0661
92884W        W35796  12.998  20.774   0.637 -0.3205 -0.2737  0.0080
92885W        W35797  12.412  19.407   1.143 -0.0157  0.0138 -0.1409
92886W        W35798  11.669  20.647   0.588 -0.0982 -0.1341 -0.2954
92887W        W35799  13.219  20.005   2.216 -0.3921  0.0075  0.1320
92888W        W35800  11.910  19.962  31.399  0.0718  0.1478  0.1004
92889W        W35801  14.410  19.461  29.217  0.1343  0.2025 -0.4406
92890W        W35802  12.734  18.479  30.373  0.2007  0.0581  0.1536
92891W        W35803  14.264  18.956  30.954  0.0233  0.0138  0.2299
92892W        W35804  13.921  19.064  31.254  0.2024  0.3604  0.0412
92893W        W35805  11.929  21.667   1.493 -0.1437 -0.1157 -0.1176
92894W        W35806  12.325  18.068   1.814 -0.0981 -0.0148  0.4802
92895W        W35807  13.801  20.700   2.305 -0.2549  0.0999  0.1850
92896W        W35808  13.873  19.230  30.668 -0.0371  0.0714 -0.0645
92897W        W35809  14.307  19.022   0.703 -0.1772 -0.0069  0.2875
92898W        W35810  12.313  21.911   2.473  0.2149 -0.2533 -0.0632
92899W        W35811  13.542  19.384   1.047 -0.4378  0.1405 -0.1597
92900W        W35812  14.300  21.116   0.448  0.0323 -0.0021 -0.2171
92901W        W35813  15.377  22.238   0.104 -0.1571  0.1658  0.1415
92902W        W35814  14.300  21.145  31.439  0.3115  0.0255  0.1243
92903W        W35815  13.494  19.183  31.026 -0.1891  0.0338 -0.0060
92904W        W35816  11.321  19.369   3.713  0.3246 -0.0475 -0.0849
92905W        W35817  13.537  19.102   2.504  0.1711  0.0180  0.1158
92906W        W35818  12.843  17.278  29.593 -0.3449  0.1547  0.1419
92907W        W35819  15.792  18.588   1.345 -0.0628 -0.2386  0.2016
92908W        W35820  12.232  22.040   1.300  0.2141  0.0833 -0.1708
92909W        W35821  14.121  18.010  31.245 -0.0142  0.0828 -0.1447
92910W        W35822  12.660  20.136   0.155  0.0523 -0.1788  0.1154
92911W        W35823  13.250  21.757   2.807  0.1569  0.0346 -0.3601
92912W        W35824  14.781  19.468  31.133  0.1861  0.1308 -0.3119
92913W        W35825  15.249  19.209   0.262 -0.0556  0.0591 -0.2343
92914W        W35826  14.330  18.088   1.285  0.1873  0.0711 -0.0804
92915W        W35827  13.820  19.554  31.058 -0.0149  0.0871  0.1634
92916W        W35828  14.243  20.628  31.430  0.1601  0.4326  0.0867
92917W        W35829  14.856  19.342   1.588  0.0696 -0.0177  0.1407
92918W        W35830  14.477  19.634   0.173 -0.0394 -0.2574 -0.1539
92919W        W35831  12.018  20.533   1.940 -0.1394  0.1488  0.0986
92920W        W35832  13.684  18.486   0.479  0.0083  0.0797 -0.2597
92921W        W35833  12.315  22.486   2.589  0.1537 -0.0741 -0.4471
92922W        W35834  12.331  21.411  31.140 -0.2653 -0.2105 -0.2569
92923W        W35835  10.543  20.641   0.967 -0.2210 -0.0187 -0.0272
92924W        W35836  11.984  18.293  30.963 -0.0113 -0.0459 -0.1235
92925W        W35837  11.140  16.649   2.218  0.0394 -0.5847  0.1679
92926W        W35838  13.069  20.862   1.968 -0.1806  0.0062  0.0080
92927W        W35839  15.523  19.519   1.158  0.0553  0.2258 -0.2619
92928W        W35840  12.787  18.713   3.036 -0.1608  0.3472 -0.1713
92929W        W35841  14.897  18.053   3.175  0.0022 -0.1452  0.1103
92930W        W35842  13.076  20.518   0.070  0.1653  0.1155  0.1725
92931W        W35843  13.639  22.071   1.384  0.1771 -0.0077 -0.2808
92932W        W35844  14.787  19.869  30.753 -0.0072 -0.1165 -0.0756
92933W        W35845  14.411  21.621  31.181  0.0471 -0.3657  0.1279
92934W        W35846  12.794  19.051   2.534  0.2144 -0.3971  0.0398
92935W        W35847  12.222  19.930  31.792 -0.0526 -0.0251 -0.0669
92936W        W35848  12.036  18.338   2.555  0.4721  0.0214 -0.0168
92937W        W35849  11.463  17.018   2.401  0.1543  0.0091  0.0133
92938W        W35850  14.354  20.294   2.619 -0.0602  0.0661 -0.1182
92939W        W35851  13.233  17.916  30.193  0.1450 -0.1433  0.2023
92940W        W35852  14.143  19.823   0.453 -0.1973 -0.4281  0.0503
92941W        W35853  14.158  18.601   0.627 -0.3222  0.1117 -0.0371
92942W        W35854  12.794  19.880  31.056  0.1552 -0.0973  0.0408
92943W        W35855  14.246  17.856   3.313  0.0235  0.4482  0.1286
92944W        W35856  13.571  21.245  31.931  0.0085  0.0756  0.2023
92945W        W35857  14.803  21.383   1.972  0.0266 -0.1119 -0.2496
92946W        W35858  14.316  21.900   0.085 -0.3301 -0.0133  0.1282
92947W        W35859  12.270  18.979   1.445  0.2278 -0.0581  0.0734
92948W        W35860  12.497  18.385  31.100  0.3384  0.4680 -0.0008
92949W        W35861  13.391  21.188   1.573  0.3380 -0.2549  0.0915
92950W        W35862  12.770  20.858  31.817 -0.0668 -0.2972  0.1232
92951W        W35863  11.761  18.747  30.805 -0.0738  0.1488 -0.0235
92952W        W35864  14.840  20.335   2.324  0.0966 -0.0579  0.0056
92953W        W35865  13.620  19.939  31.621 -0.0332  0.2689 -0.1821
92954W        W35866  13.693  19.809   0.686  0.0641  0.0576  0.1395
92955W        W35867  13.264  18.219   1.501  0.0999 -0.2100 -0.2852
92956W        W35868  15.319  19.034   2.945 -0.0971  0.0103  0.3940
92957W        W35869  14.464  20.177  31.658  0.0673  0.1993  0.0979
92958W        W35870  12.330  18.292  30.151  0.1093  0.0593 -0.0688
92959W        W35871  13.311  19.668  30.946  0.0384  0.0849  0.1134
92960W        W35872  11.565  21.155   0.618  0.1978  0.1306 -0.3158
92961W        W35873   9.035  19.748   0.785  0.1182  0.4661 -0.1805
92962W        W35874  15.291  19.705   0.216 -0.0065 -0.1315 -0.4760
92963W        W35875  14.909  18.241   0.535 -0.0051  0.3425 -0.1574
92964W        W35876  12.657  20.057   3.006 -0.2673 -0.1968 -0.0102
92965W        W35877  13.971  19.400   0.202 -0.2507  0.1387 -0.1547
92966W        W35878  13.021  18.947  31.269 -0.0079  0.2105 -0.2338
92967W        W35879  13.609  21.483   1.969 -0.0716 -0.2720 -0.0023
92968W        W35880  14.579  18.434   0.107  0.0391  0.2356 -0.3629
92969W        W35881  14.301  18.761  31.703 -0.0293 -0.1711  0.1135
92970W        W35882  14.298  19.317   1.595  0.2015  0.1238  0.0974
92971W        W35883  14.805  19.925  31.978  0.0261 -0.1074 -0.1372
92972W        W35884  14.946  18.704  29.754  0.3593 -0.0742  0.2854
92973W        W35885  13.814  17.362  30.831 -0.1040  0.0389  0.0570
92974W        W35886  11.945  20.276   2.397 -0.3556 -0.0200 -0.1885
92975W        W35887  14.087  20.505  31.889  0.1821  0.4165 -0.0043
92976W        W35888  12.638  20.013   1.616  0.1787  0.1549  0.1520
92977W        W35889  13.449  19.018  29.794 -0.1523 -0.3240 -0.0561
92978W        W35890  15.854  21.242   0.358 -0.2217  0.0518  0.1088
92979W        W35891  11.672  19.759   1.475 -0.0664 -0.0647  0.6662
92980W        W35892  14.207  20.185   3.065 -0.1358  0.1813 -0.0763
92981W        W35893  13.893  22.400   0.655  0.0180 -0.0579 -0.1533
92982W        W35894  13.932  19.393   0.697 -0.1681 -0.0370 -0.0129
92983W        W35895  13.055  19.303  30.715  0.0475 -0.0626  0.1925
92984W        W35896  14.064  18.386   0.127  0.2975 -0.2073 -0.0653
92985W        W35897  12.232  22.142  31.060  0.0670  0.0586  0.3237
92986W        W35898  14.574  18.176   0.882 -0.0825  0.0387  0.4248
92987W        W35899  14.306  18.155   0.487  0.2444 -0.1867  0.2305
92988W        W35900  13.273  17.024   2.085  0.0468 -0.0683 -0.3455
92989W        W35901  14.583  19.451   2.742 -0.0738 -0.3897 -0.1991
92990W        W35902  13.790  18.682  30.930  0.1246 -0.2111  0.3287
92991W        W35903  14.104  19.264   1.109  0.0931 -0.0838 -0.0798
92992W        W35904  14.109  19.986  31.376 -0.0171 -0.1454  0.2397
92993W        W35905  12.879  17.938   1.675 -0.1079  0.2497  0.0624
92994W        W35906  14.220  17.166   1.878 -0.3408  0.0001  0.1519
92995W        W35907  10.869  21.849   3.053  0.0844 -0.0985 -0.3634
92996W        W35908  13.720  20.687   3.842  0.2766  0.2590  0.1147
92997W        W35909  13.428  18.643  31.248  0.3305 -0.3210  0.0344
92998W        W35910  13.376  19.201   1.913 -0.0949 -0.0527 -0.1838
92999W        W35911  14.036  17.639  30.240 -0.0673  0.0715  0.1032
93000W        W35912  12.388  20.111  31.320 -0.0134 -0.1164  0.0935
93001W        W35913  14.014  19.968  31.912 -0.0395  0.1177 -0.1506
93002W        W35914  13.620  18.675   0.023  0.0026 -0.2197 -0.2413
93003W        W35915  12.692  21.814   2.115  0.0417  0.0649  0.2483
93004W        W35916  13.131  19.837  31.427  0.1654  0.0725 -0.1456
93005W        W35917  13.064  19.243   1.437  0.1341  0.2197  0.1788
93006W        W35918  12.608  22.852   0.166 -0.3669 -0.1750 -0.2982
93007W        W35919  13.376  17.715   1.764  0.2370  0.0767 -0.0990
93008W        W35920  11.653  22.725   1.627 -0.1022 -0.0837  0.1138
93009W        W35921  12.410  18.875   0.133 -0.0496 -0.1351  0.0058
93010W        W35922  12.993  19.625   0.294  0.0150 -0.1254  0.1132
93011W        W35923  14.401  19.420  30.708 -0.1434 -0.4117  0.3566
93012W        W35924  15.503  19.586  30.583 -0.4063  0.0464 -0.1389
93013W        W35925  12.252  19.022   3.023 -0.0971 -0.1252  0.0829
93014W        W35926  13.537  19.753   0.133 -0.1589  0.3637  0.2131
93015W        W35927  11.041  21.778   1.703 -0.1087 -0.1002 -0.3673
93016W        W35928  14.481  18.218  31.597  0.1644 -0.0329  0.0571
93017W        W35929  13.575  18.165  29.843 -0.2801  0.0959  0.0021
93018W        W35930  14.308  20.553   2.133 -0.2687 -0.1543  0.2027
93019W        W35931  13.296  20.898   3.391 -0.1412  0.3489  0.3045
93020W        W35932  12.397  19.642  31.212 -0.0323  0.3151  0.0471
93021W        W35933  14.065  17.767   2.754  0.0845  0.0738  0.2008
93022W        W35934  11.613  19.857  31.866 -0.1376  0.2283  0.1073
93023W        W35935  12.338  21.735  31.519  0.1070 -0.0391 -0.1558
93024W        W35936  12.590  21.346   2.155 -0.0950 -0.1236 -0.0133
93025W        W35937  13.333  18.868   0.504  0.0322 -0.4015 -0.1093
93026W        W35938  12.485  20.295  30.354  0.0543 -0.2854  0.0347
93027W        W35939  12.517  20.042   1.125 -0.1964  0.1972 -0.0099
93028W        W35940  14.439  19.516   0.762 -0.1846  0.0041  0.0873
93029W        W35941  13.270  20.075   1.609  0.2519 -0.1347  0.1035
93030W        W35942  13.171  17.963  31.409 -0.2234  0.0692 -0.1497
93031W        W35943  13.984  20.200   1.341 -0.1131  0.0894  0.4142
93032W        W35944  13.596  20.496   1.440 -0.1001 -0.0192 -0.0273
93033W        W35945  13.663  18.224   1.884  0.0648 -0.4510  0.1798
93034W        W35946  12.511  20.787   3.059  0.0409 -0.1437  0.1199
93035W        W35947  14.636  17.790   0.518 -0.0623  0.0349  0.0305
93036W        W35948  15.868  21.942   0.115 -0.0620 -0.1508 -0.3221
93037W        W35949  12.801  21.190   3.273  0.0312 -0.4227 -0.0295
93038W        W35950  11.325  21.160  31.738 -0.0128  0.2909  0.0148
93039W        W35951  10.720  18.922   2.204  0.0123  0.0832  0.1814
93040W        W35952  11.906  20.271  31.879  0.0876 -0.0039  0.0083
93041W        W35953  11.082  19.122   1.794  0.1569 -0.0426 -0.2222
93042W        W35954  13.044  20.201   2.706 -0.0485 -0.3627 -0.0994
93043W        W35955  11.070  20.671  31.762 -0.2914 -0.1236  0.1343
93044W        W35956  11.770  20.937   1.031 -0.0711 -0.2401  0.2529
93045W        W35957  14.051  17.141  30.428  0.1530  0.0545  0.1387
93046W        W35958  13.361  18.391  31.646 -0.2973  0.1899  0.3409
93047W        W35959  13.480  19.460  31.464  0.1803 -0.2004 -0.1946
93048W        W35960  14.007  18.045   0.909 -0.0466  0.2794  0.2226
93049W        W35961  14.571  20.267  31.127  0.0218 -0.2334  0.0231
93050W        W35962  13.021  18.921   2.101 -0.0591 -0.1686 -0.1911
93051W        W35963  12.587  17.409   2.485 -0.2075  0.0382  0.0480
93052W        W35964  14.306  21.111   1.118 -0.0710  0.1020 -0.0663
93053W        W35965  12.290  19.491   3.260 -0.1405 -0.0668 -0.1141
93054W        W35966  12.836  20.226   3.864  0.0729  0.2569 -0.0973
93055W        W35967  12.162  19.879   2.892 -0.1693 -0.0465  0.1760
93056W        W35968  14.298  17.419   0.068 -0.0242  0.3770 -0.0733
93057W        W35969  11.433  17.602  31.099  0.3137  0.4523  0.2573
93058W        W35970  13.230  19.760   0.769  0.1574 -0.1658  0.1694
93059W        W35971  15.305  19.817   0.699  0.4627  0.1423  0.1152
93060W        W35972  12.833  21.019  31.322  0.0071  0.5277 -0.1430
93061W        W35973  14.633  17.610  29.905  0.0587  0.1242  0.0135
93062W        W35974  13.069  20.432   1.117  0.0301 -0.0005  0.2982
93063W        W35975  14.545  19.685  31.612 -0.2833 -0.0597 -0.3042
93064W        W35976  13.060  19.314  31.764  0.0199  0.3226 -0.1409
93065W        W35977  12.544  20.865   2.549  0.0782  0.2267  0.1295
93066W        W35978  12.420  18.788   2.610  0.3374  0.2623 -0.1368
93067W        W35979  15.101  18.664   0.276 -0.0915 -0.2507 -0.4518
93068W        W35980  14.033  18.261  30.712 -0.2576 -0.1210 -0.1278
93069W        W35981  13.429  19.350   0.510 -0.4440  0.0184 -0.0678
93070W        W35982  14.635  18.675   0.593  0.1707  0.0262 -0.1038
93071W        W35983  12.859  19.714   1.174 -0.0297  0.1542 -0.0588
93072W        W35984  12.359  17.903   2.574 -0.2004 -0.1289  0.1514
93073W        W35985  13.577  20.813   1.866 -0.0917  0.1582  0.0508
93074W        W35986  15.499  18.233  30.443 -0.1724 -0.1044 -0.1611
93075W        W35987  13.794  19.144   1.499 -0.4047  0.0357 -0.2630
93076W        W35988  16.497  17.648   0.593  0.3912  0.0773  0.3353
93077W        W35989  14.710  17.477  30.911  0.1498 -0.2191 -0.1565
93078W        W35990  11.336  17.348   2.794  0.0133 -0.0227  0.2290
93079W        W35991  13.459  20.711   2.890 -0.2419 -0.1384 -0.2626
93080W        W35992  13.422  17.831  30.970 -0.2034  0.2080  0.0786
93081W        W35993  13.758  17.992   1.460  0.0611 -0.1425  0.1721
93082W        W35994  13.605  20.503  30.844 -0.3270 -0.2046  0.1286
93083W        W35995  14.672  20.565   1.423  0.1188 -0.2272  0.0831
93084W        W35996  14.624  19.182   0.344 -0.1070 -0.1792 -0.2410
93085W        W35997  12.470  19.032   0.786  0.0834  0.2086 -0.2485
93086W        W35998  11.723  20.875   2.582 -0.1342  0.1706  0.1128
93087W        W35999  11.805  19.642  28.823  0.1481 -0.2669 -0.1213
93088W        W36000  13.690  18.224  31.242 -0.0504  0.2716  0.1147
93089W        W36001  13.273  20.622   2.415 -0.1238  0.0016  0.1116
93090W        W36002  14.382  19.072   2.495 -0.1631 -0.2008  0.1459
93091W        W36003  13.858  16.869  30.777 -0.2008 -0.1405  0.1361
93092W        W36004  13.980  19.649   1.464 -0.1412  0.3128 -0.0117
93093W        W36005  11.580  20.144   0.286 -0.2852  0.2974  0.2409
93094W        W36006  13.326  17.270  31.040  0.2251 -0.1812  0.3046
93095W        W36007  12.461  22.744   3.989 -0.4769 -0.1930 -0.0937
93096W        W36008  12.133  19.895   1.969  0.2422  0.0640 -0.1775
93097W        W36009  12.529  21.015   1.552  0.0789 -0.0249  0.2456
93098W        W36010  14.860  17.375   0.849  0.2762 -0.0124  0.0083
93099W        W36011  14.103  19.809   0.999  0.2001  0.2889  0.1050
93100W        W36012  12.628  20.613   0.340  0.0746  0.1000 -0.2516
93101W        W36013  16.402  18.421   1.516 -0.1731  0.2382 -0.2257
93102W        W36014  13.651  21.389   3.349  0.1923 -0.0997  0.1668
93103W        W36015  12.617  20.544   0.912 -0.1936 -0.0905 -0.1146
93104W        W36016  13.246  21.261   2.967  0.0023  0.0158 -0.1422
93105W        W36017  14.819  19.696   0.516  0.0920 -0.0311 -0.2727
93106W        W36018  13.236  21.029   0.225 -0.1708  0.1418  0.1636
93107W        W36019  11.790  18.294   2.992  0.1578  0.0348  0.3492
93108W        W36020  12.692  19.346   2.133  0.1342 -0.2173  0.0732
93109W        W36021  13.635  19.943   1.230  0.0422  0.3258 -0.1222
93110W        W36022  13.109  18.737   1.594 -0.3503  0.2864 -0.1730
93111W        W36023  13.838  21.786   0.013  0.2555  0.3429 -0.2187
93112W        W36024  11.844  20.702   1.511  0.1948  0.3415 -0.1429
93113W        W36025  11.539  19.900   0.944  0.1390 -0.0407 -0.1359
93114W        W36026  13.076  22.730  31.977 -0.0123 -0.0409 -0.0595
93115W        W36027  14.231  20.749  30.663 -0.3375  0.0669  0.0679
93116W        W36028  13.714  20.126  29.611 -0.0792  0.1205 -0.0990
93117W        W36029  13.904  21.116   1.835 -0.0459  0.0571  0.0911
93118W        W36030  13.058  18.966  30.082  0.2891  0.0176  0.0274
93119W        W36031  11.253  20.238   0.711 -0.1006 -0.1135  0.0541
93120W        W36032  10.855  21.188   0.041 -0.2311 -0.1855  0.1807
93121W        W36033  13.895  20.935  31.712 -0.3118 -0.0399  0.1300
93122W        W36034  11.527  21.812  31.468 -0.0566  0.1558 -0.2254
93123W        W36035  14.399  21.112   1.607  0.1435  0.0690  0.2201
93124W        W36036  13.741  18.351  30.335  0.0996 -0.0175  0.4485
93125W        W36037  15.046  19.087   0.732 -0.1607 -0.1585  0.0641
93126W        W36038  14.829  18.437  30.333  0.0323  0.0604 -0.0454
93127W        W36039  14.337  21.967   3.688  0.1098  0.1436 -0.0878
93128W        W36040  12.391  18.212   3.361 -0.1137 -0.0801 -0.1989
93129W        W36041  12.564  17.078  31.054  0.4002 -0.1767 -0.1861
93130W        W36042  11.704  20.216   1.731 -0.1182  0.0110 -0.2048
93131W        W36043  15.655  17.526   1.986 -0.1853  0.1334 -0.1365
93132W        W36044  11.944  22.929   2.087  0.1149 -0.1214  0.4159
93133W        W36045  13.080  21.753  30.947 -0.1223  0.1022  0.2161
93134W        W36046  12.704  19.250   0.417 -0.5257 -0.0965  0.1018
93135W        W36047  11.678  20.464   1.140 -0.2266  0.0615 -0.0856
93136W        W36048  16.576  18.356   2.191  0.1139 -0.0599  0.0612
93137W        W36049  13.593  18.844  30.296 -0.0787 -0.2215 -0.4082
93138W        W36050  14.090  20.279   0.858 -0.2031 -0.3484  0.0083
93139W        W36051  12.900  21.876  31.698 -0.0389 -0.0251  0.3621
93140W        W36052  12.345  21.059   0.348  0.1261 -0.0039  0.2386
93141W        W36053  12.272  20.810   1.201  0.0317  0.1315  0.1657
93142W        W36054  13.171  18.441   0.335 -0.0063 -0.1218 -0.0705
93143W        W36055  14.249  18.847   0.236 -0.1583 -0.1862  0.0671
93144W        W36056  12.591  21.075   0.765  0.0022 -0.2555  0.3402
93145W        W36057  14.794  17.947   1.727  0.0053 -0.0338  0.4628
93146W        W36058  12.301  19.060  31.357  0.2228 -0.0883 -0.2457
93147W        W36059  14.307  18.594   1.103  0.2052  0.2917  0.1307
93148W        W36060  14.257  20.860   2.507 -0.3629  0.1114  0.1936
93149W        W36061  11.326  18.627   2.935  0.1521 -0.3165 -0.1991
93150W        W36062  12.913  18.531  31.891 -0.1044 -0.0537 -0.1838
93151W        W36063  13.887  18.213   2.614 -0.0997  0.2045  0.3157
93152W        W36064  14.592  19.051  30.506 -0.2450 -0.0954 -0.1080
93153W        W36065  12.250  21.722   2.945  0.3237  0.1292  0.1526
93154W        W36066  12.196  19.462   0.663  0.1617  0.0563 -0.3019
93155W        W36067  13.878  18.566  31.544  0.1069 -0.2426 -0.3829
93156W        W36068  12.166  20.718   0.694  0.1796  0.0799 -0.0951
93157W        W36069  14.112  19.706   2.035 -0.1772  0.1042  0.0417
93158W        W36070  13.651  21.196   3.846  0.3701 -0.3503 -0.2032
93159W        W36071  12.151  20.319   1.060 -0.2359 -0.2603 -0.0851
93160W        W36072  14.921  19.856  31.346 -0.0132 -0.0599 -0.0152
93161W        W36073  14.782  18.875  31.900  0.0144 -0.2457  0.0402
93162W        W36074  14.675  22.211  29.883  0.0811  0.0506 -0.1299
93163W        W36075  14.641  19.142  31.501 -0.3005 -0.0412  0.3103
93164W        W36076  12.700  21.671   2.658  0.0960 -0.0067  0.0174
93165W        W36077  11.574  18.117   1.789 -0.0458  0.0008 -0.0613
93166W        W36078  12.986  21.166   2.496 -0.0442  0.1529  0.3104
93167W        W36079  15.021  20.914   1.723  0.0317 -0.0210 -0.1647
93168W        W36080  14.167  17.683  31.651 -0.3027 -0.0934 -0.0244
93169W        W36081  12.930  20.279   0.687  0.2464  0.1726 -0.1721
93170W        W36082  13.182  21.845   1.112  0.4102 -0.0167 -0.1084
93171W        W36083  14.755  18.663  31.395 -0.0096 -0.0454 -0.0007
93172W        W36084  13.930  19.257   2.216 -0.0901 -0.2917  0.4878
93173W        W36085  12.975  22.383  31.571  0.2548 -0.1329  0.2015
93174W        W36086  13.455  17.442   2.204 -0.0629 -0.3133 -0.0762
93175W        W36087  13.037  22.453   2.192 -0.4834  0.0577  0.0488
93176W        W36088  11.872  21.238   3.454 -0.1919 -0.1647  0.1066
93177W        W36089  13.133  19.964  31.938  0.5525  0.1002  0.1077
93178W        W36090  14.514  20.114   0.658 -0.1092 -0.2839  0.3893
93179W        W36091  13.324  21.197  31.367  0.2884 -0.5699  0.0920
93180W        W36092  14.183  21.582  30.507  0.1902 -0.1880  0.0315
93181W        W36093  14.909  20.305   1.772  0.0087 -0.1527 -0.1308
93182W        W36094  13.961  19.545  31.632  0.0174  0.0459  0.2002
93183W        W36095  14.692  21.068   0.732  0.0158  0.0674 -0.1133
93184W        W36096  12.651  19.734   0.733  0.0666 -0.0194 -0.2403
93185W        W36097  13.814  16.432  31.257  0.2889 -0.1027 -0.1137
93186W        W36098  13.806  17.240  29.941 -0.1906  0.2557  0.0597
93187W        W36099  12.721  20.405   2.424 -0.3861 -0.2130 -0.1167
93188W        W36100  10.611  19.097  30.416  0.1825 -0.0565 -0.1299
93189W        W36101  12.987  18.969   0.151  0.2877  0.2160  0.1591
93190W        W36102  12.294  21.511   1.170  0.1207  0.0762  0.2321
93191W        W36103  13.495  18.021   3.927  0.1093 -0.0009 -0.0564
93192W        W36104  12.755  19.839   2.136 -0.2942 -0.0896 -0.1638
93193W        W36105  11.533  19.986   2.138  0.1213  0.0038  0.1360
93194W        W36106  12.279  18.548   0.514  0.0787 -0.0600 -0.4874
93195W        W36107  15.331  20.531   0.179 -0.0112  0.0037  0.0015
93196W        W36108  13.234  18.450   1.031  0.2686 -0.2346  0.2046
93197W        W36109  12.380  20.177   0.660  0.1817 -0.0360 -0.3014
93198W        W36110  13.880  20.761   0.702 -0.1368 -0.1057  0.0082
93199W        W36111  13.882  21.167  30.632 -0.1962 -0.0413  0.1876
93200W        W36112  12.077  19.109  30.492  0.2626 -0.1082  0.1860
93201W        W36113  14.430  20.107   2.105  0.0414 -0.5431 -0.0967
93202W        W36114  11.809  18.040  30.183  0.0630  0.1812 -0.0231
93203W        W36115  13.872  19.982   2.743 -0.2671  0.3383  0.1648
93204W        W36116  12.288  18.540   1.679  0.0289 -0.0897  0.1488
93205W        W36117  12.817  17.654  31.705  0.0596 -0.2296 -0.1091
93206W        W36118  13.629  19.821   1.915  0.0040 -0.1905  0.2699
93207W        W36119  14.483  20.101   1.166  0.0342  0.2031  0.1587
93208W        W36120  14.202  21.855  31.594 -0.2271  0.1404 -0.1144
93209W        W36121  13.079  19.637   1.799 -0.1244 -0.3920 -0.3486
93210W        W36122  13.401  22.181   3.621 -0.0509 -0.3021  0.3346
93211W        W36123  11.001  17.008   2.750 -0.0579 -0.1598  0.4451
93212W        W36124  14.193  20.632   1.227 -0.0388 -0.1785 -0.1605
93213W        W36125  13.552  20.276   2.569 -0.1297 -0.0268 -0.1531
93214W        W36126  14.217  20.561   0.412 -0.2222  0.0732 -0.2669
93215W        W36127  13.807  17.608   1.079  0.1397  0.0019 -0.0645
93216W        W36128  14.280  19.456  31.237  0.0813  0.1714  0.1520
93217W        W36129  11.659  18.623   3.369 -0.1284 -0.3424  0.1941
93218W        W36130  12.129  20.416   3.209 -0.1227  0.1583  0.3021
93219W        W36131  14.470  19.633   1.232  0.1313 -0.0598 -0.3265
93220W        W36132  12.811  18.732   0.585  0.1043  0.0931 -0.1028
93221W        W36133  13.156  17.384   0.761  0.3022  0.2450 -0.1455
93222W        W36134  13.855  20.675  30.344  0.1651 -0.0579  0.0421
93223W        W36135  12.427  20.288   2.008  0.4128 -0.1009 -0.0522
93224W        W36136  13.778  17.671  31.309  0.2420 -0.3231 -0.2557
93225W        W36137  13.474  19.564   1.516 -0.1133 -0.1160 -0.3843
93226W        W36138  14.466  19.846   1.665 -0.0235 -0.0906 -0.0165
93227W        W36139  13.602  20.243   3.081 -0.0291  0.0168 -0.3168
93228W        W36140  12.676  18.972  30.513 -0.0033  0.0695  0.0170
93229W        W36141  13.842  20.247   0.358 -0.1182 -0.3963  0.0139
93230W        W36142  12.418  21.264   3.016  0.0474 -0.1788  0.1882
93231W        W36143  13.809  21.954   3.448 -0.0811  0.1202 -0.1820
93232W        W36144  13.309  21.784   2.271  0.1724  0.0454 -0.3286
93233W        W36145  14.559  18.463   1.907  0.0566  0.1881 -0.1563
93234W        W36146  11.683  18.645   1.926 -0.1468  0.1868 -0.0418
93235W        W36147  13.589  20.297   0.870  0.1029  0.0698 -0.0746
93236W        W36148  12.682  19.823  31.601  0.3809 -0.0290  0.0273
93237W        W36149  13.818  18.973   0.377  0.0550 -0.0542 -0.2726
93238W        W36150  13.335  18.914   1.050 -0.0190  0.2022  0.1636
93239W        W36151  14.301  18.179  30.267 -0.2222 -0.0571  0.0945
93240W        W36152  12.480  22.182   2.893 -0.0631  0.2623  0.2435
93241W        W36153  15.439  19.625   2.145  0.2153  0.1172  0.0991
93242W        W36154  11.984  19.554   5.372 -0.0059  0.0460  0.0062
93243W        W36155  13.002  19.388   5.018  0.2234 -0.2003 -0.2085
93244W        W36156  14.510  18.251   3.433  0.1504 -0.0418  0.0238
93245W        W36157  13.076  19.507   3.979 -0.0605  0.0067 -0.1644
93246W        W36158  11.813  17.415   4.610  0.1967 -0.0270  0.1867
93247W        W36159  14.454  21.343   3.814  0.1798 -0.2506  0.2519
93248W        W36160  12.455  18.189   5.918  0.1170 -0.0537  0.2334
93249W        W36161  12.261  20.148   4.047 -0.4055 -0.0009  0.1644
93250W        W36162  12.277  21.029   4.044 -0.0601  0.2407  0.1423
93251W        W36163  13.819  20.399   4.810  0.2246 -0.5655  0.0877
93252W        W36164  13.766  18.878   5.995  0.3029  0.2136  0.0411
93253W        W36165  11.295  21.504   5.524 -0.2086  0.0247 -0.0120
93254W        W36166  12.154  18.640   3.476 -0.2018 -0.0530  0.0150
93255W        W36167  10.622  19.430   5.294  0.1550  0.1403 -0.2391
93256W        W36168  13.650  20.277   6.517 -0.0274 -0.3800 -0.0018
93257W        W36169  12.595  20.770   1.973  0.2205  0.1128 -0.0397
93258W        W36170  11.535  19.245   5.378 -0.1317 -0.1672  0.2323
93259W        W36171  12.790  19.070   3.615 -0.1422  0.0910 -0.0344
93260W        W36172  14.161  21.275   5.164 -0.1347  0.0682 -0.1727
93261W        W36173  12.054  19.169   4.936  0.3371 -0.0846  0.2946
93262W        W36174  12.467  18.431   5.446  0.1849  0.2534 -0.1479
93263W        W36175  13.465  22.636   4.039  0.1074  0.0993 -0.0469
93264W        W36176  11.887  18.475   3.875  0.0479  0.1163  0.0726
93265W        W36177  10.274  19.487   4.443  0.2310  0.1410  0.1031
93266W        W36178  11.863  20.893   5.847 -0.3397 -0.4847 -0.0088
93267W        W36179  13.784  19.586   5.085  0.3575  0.0844 -0.0453
93268W        W36180  13.172  19.720   5.816 -0.3174 -0.2496  0.2437
93269W        W36181  13.234  20.544   3.944  0.2628 -0.1436  0.2152
93270W        W36182  11.978  21.851   5.486  0.0346 -0.0697  0.1601
93271W        W36183  12.683  19.165   7.554 -0.2525 -0.0263  0.0339
93272W        W36184  10.856  21.507   4.717 -0.1570  0.0476 -0.0906
93273W        W36185  12.032  21.915   3.659  0.1139  0.5512  0.1225
93274W        W36186  12.645  21.226   4.947  0.0764  0.0952  0.2063
93275W        W36187  15.963  19.813   4.201 -0.1935  0.1171 -0.3318
93276W        W36188  13.081  20.540   5.919 -0.0506  0.0871  0.0101
93277W        W36189  10.556  20.411   6.408 -0.2918  0.1161  0.0406
93278W        W36190  11.253  20.565   2.788 -0.0059 -0.3033  0.0810
93279W        W36191  12.251  20.487   6.469 -0.2079 -0.1101  0.1578
93280W        W36192  11.883  20.794   6.334 -0.1973 -0.1630  0.3023
93281W        W36193  14.726  19.929   5.816 -0.1804 -0.0017 -0.1275
93282W        W36194  13.447  20.149   5.669 -0.1400  0.1843  0.3569
93283W        W36195  13.184  21.409   3.566 -0.0957 -0.0936 -0.0857
93284W        W36196  13.066  20.677   4.387  0.1092  0.0549 -0.1419
93285W        W36197  12.114  19.687   7.191 -0.0922  0.3549  0.0863
93286W        W36198  12.272  20.464   4.725 -0.0612 -0.0364 -0.1296
93287W        W36199  13.839  18.708   6.790 -0.5522 -0.1269 -0.2381
93288W        W36200  11.730  20.357   2.852  0.0575  0.0315 -0.2200
93289W        W36201  14.300  19.776   2.504  0.0009  0.0391 -0.1501
93290W        W36202  12.848  18.554   2.374 -0.2498  0.0198 -0.2373
93291W        W36203  13.582  19.729   2.386 -0.0155 -0.2447  0.0227
93292W        W36204  12.447  18.744   3.945 -0.0436  0.0594 -0.1066
93293W        W36205  13.391  21.731   4.709 -0.1286 -0.1425 -0.1403
93294W        W36206  11.468  18.534   4.760 -0.1288  0.0085  0.2018
93295W        W36207  13.781  19.901   5.967 -0.1636 -0.0260  0.0371
93296W        W36208  12.745  20.399   3.357  0.1492  0.0339 -0.0411
93297W        W36209  13.527  18.774   6.406 -0.0801 -0.1219  0.0239
93298W        W36210  11.396  20.229   5.340 -0.0453 -0.0189 -0.0342
93299W        W36211  11.808  19.840   4.052  0.4065 -0.0978  0.0050
93300W        W36212  14.758  20.743   3.796 -0.0336  0.1930  0.0762
93301W        W36213  13.748  22.840   5.101 -0.2506 -0.0236 -0.1496
93302W        W36214  12.327  20.001   3.473  0.0080 -0.0456 -0.3136
93303W        W36215  12.673  19.806   4.141 -0.1220  0.0055 -0.0891
93304W        W36216  10.980  19.796   6.477 -0.2807  0.1510 -0.1171
93305W        W36217   9.949  19.226   7.140  0.0766  0.1234 -0.2571
93306W        W36218  12.694  19.255   3.099  0.2653 -0.1205  0.0663
93307W        W36219  13.484  21.048   5.969  0.1738  0.1141  0.2803
93308W        W36220  10.572  19.529   6.218 -0.0723 -0.0697  0.0778
93309W        W36221  13.772  19.088   5.489 -0.1856 -0.4297 -0.1662
93310W        W36222  10.839  20.006   4.682 -0.1771  0.0188 -0.1930
93311W        W36223  14.907  22.087   5.796 -0.3178  0.3022 -0.2426
93312W        W36224  14.368  20.687   3.214 -0.2165  0.1299  0.2158
93313W        W36225  13.192  17.900   5.678  0.1022  0.2540 -0.3834
93314W        W36226  13.646  18.130   4.941 -0.3455 -0.1565 -0.2681
93315W        W36227  12.085  21.089   1.768 -0.1117 -0.0550  0.5457
93316W        W36228  12.429  19.514   4.668  0.0935 -0.0393 -0.0261
93317W        W36229  14.472  21.406   6.991 -0.1454  0.1636 -0.0954
93318W        W36230  13.876  20.128   5.397 -0.2288 -0.2951  0.0140
93319W        W36231  12.182  20.430   5.226 -0.0519 -0.1842  0.2928
93320W        W36232  12.326  18.617   5.039 -0.0066  0.1730  0.0947
93321W        W36233  12.270  20.719   7.703  0.0353 -0.0627  0.0890
93322W        W36234  11.196  21.184   4.364 -0.0479  0.1493  0.2734
93323W        W36235  11.295  21.704   4.389  0.1226 -0.1878  0.2142
93324W        W36236  13.140  20.119   3.201  0.0142 -0.1086  0.0202
93325W        W36237  13.982  19.409   3.405  0.2289 -0.0706 -0.1870
93326W        W36238  11.133  20.659   5.266  0.0289 -0.1241 -0.1568
93327W        W36239  14.404  18.653   4.830  0.1113 -0.1554  0.0838
93328W        W36240  11.350  18.702   6.248  0.0799  0.1857 -0.0079
93329W        W36241  14.228  19.142   3.007  0.0509 -0.2124 -0.1953
93330W        W36242  11.332  19.804   3.959 -0.0770 -0.2388  0.2014
93331W        W36243  14.328  22.291   4.222  0.1200 -0.0110 -0.4286
93332W        W36244  14.500  19.315   3.394  0.2635  0.1297  0.2384
93333W        W36245  13.015  21.896   4.126  0.0511 -0.2324  0.2735
93334W        W36246  11.406  19.234   5.888 -0.1757  0.1369  0.0230
93335W        W36247  11.164  20.743   4.053  0.1748  0.1340  0.0554
93336W        W36248  11.875  19.102   5.691  0.0476 -0.0337 -0.5679
93337W        W36249  11.436  19.633   5.071  0.1171  0.1878  0.0640
93338W        W36250  13.308  20.005   6.775  0.0608  0.0088 -0.2467
93339W        W36251  12.146  17.549   4.912  0.1339  0.0286  0.0970
93340W        W36252  13.071  19.896   3.603  0.0693  0.0197  0.4325
93341W        W36253  13.273  21.429   4.307  0.0958 -0.4147  0.2243
93342W        W36254  11.671  21.175   4.464 -0.0898 -0.1086  0.0301
93343W        W36255  13.445  17.937   6.725  0.0408 -0.0480 -0.0788
93344W        W36256  13.755  22.515   3.648 -0.0450  0.0965  0.0276
93345W        W36257  14.019  21.756   5.580 -0.1607 -0.0224  0.1477
93346W        W36258  14.514  21.210   4.301  0.1536 -0.2871 -0.0952
93347W        W36259  12.131  18.761   7.505 -0.3529 -0.0952  0.0463
93348W        W36260  13.124  19.472   2.282  0.2747 -0.0928  0.2428
93349W        W36261  11.018  21.786   5.157  0.3359  0.2522 -0.1094
93350W        W36262  12.765  20.705   3.909  0.0972  0.0029  0.1686
93351W        W36263  11.208  18.034   4.122  0.3962 -0.3063 -0.1763
93352W        W36264  13.727  22.569   5.629  0.2833  0.2152  0.2386
93353W        W36265  12.543  20.537   4.271  0.1431 -0.1476  0.0362
93354W        W36266   9.992  20.441   5.610 -0.1964  0.0115 -0.2582
93355W        W36267  13.071  18.044   6.425  0.0936  0.2269  0.0939
93356W        W36268  14.028  21.031   6.201 -0.2187 -0.0952 -0.0438
93357W        W36269  13.285  19.231   5.458 -0.3187  0.2655  0.2331
93358W        W36270  11.565  17.776   3.055 -0.1913 -0.0461 -0.0189
93359W        W36271  12.238  21.490   5.801  0.1228 -0.0155 -0.1034
93360W        W36272  12.057  21.546   2.025  0.0177 -0.1265  0.1636
93361W        W36273  10.016  21.309   4.766 -0.0181 -0.0067 -0.1509
93362W        W36274  12.752  21.334   3.810  0.1180  0.0118 -0.3064
93363W        W36275  14.149  18.325   4.302 -0.0628 -0.1527 -0.0032
93364W        W36276  10.175  20.066   5.998  0.0284  0.0602 -0.3901
93365W        W36277  13.271  18.274   6.021  0.1571  0.1429 -0.1945
93366W        W36278  12.651  18.272   2.743 -0.2473  0.2831 -0.1123
93367W        W36279   9.979  22.035   6.164  0.0273  0.1245  0.0983
93368W        W36280  13.173  17.684   3.734 -0.2156 -0.0223  0.1359
93369W        W36281  14.324  19.265   4.268  0.3184  0.0243  0.1213
93370W        W36282  11.973  19.843   6.462 -0.1563  0.0503  0.0127
93371W        W36283  14.724  18.916   3.041 -0.1911 -0.1086  0.2094
93372W        W36284  13.203  17.759   3.033  0.0104  0.0995 -0.1342
93373W        W36285  13.522  18.401   3.110  0.1298  0.2479 -0.2295
93374W        W36286  11.634  20.484   5.009  0.0625 -0.0612  0.1253
93375W        W36287  13.423  20.671   5.564 -0.2753 -0.1868  0.1468
93376W        W36288  13.652  19.549   5.603 -0.2986 -0.0709  0.1137
93377W        W36289  12.138  17.896   3.032  0.2202 -0.1310 -0.3384
93378W        W36290  14.233  21.686   4.291 -0.0375 -0.2689 -0.0767
93379W        W36291  11.839  20.198   4.648 -0.0837 -0.0913  0.0528
93380W        W36292  11.738  19.500   6.701 -0.1984  0.1625  0.1538
93381W        W36293  13.806  21.603   4.974  0.3827  0.0805 -0.2804
93382W        W36294  11.971  18.646   4.678 -0.0495  0.1800  0.1958
93383W        W36295  12.479  19.274   4.172 -0.1288 -0.1914  0.0121
93384W        W36296  13.843  19.111   3.978  0.1699 -0.0104  0.0918
93385W        W36297  11.530  21.619   3.572 -0.1374  0.0009 -0.1617
93386W        W36298  14.069  19.418   5.953 -0.1678 -0.1725  0.0077
93387W        W36299  12.948  17.027   6.331 -0.2408  0.0410  0.1094
93388W        W36300  12.287  17.939   5.178 -0.2548 -0.1073  0.0133
93389W        W36301  14.264  18.773   7.098 -0.0798  0.2152 -0.2128
93390W        W36302  13.855  19.504   2.752  0.2124  0.3259 -0.6079
93391W        W36303  11.922  20.225   3.672  0.1778 -0.0073  0.0475
93392W        W36304  12.303  19.780   5.746 -0.0908 -0.1940  0.0304
93393W        W36305  12.331  19.277   5.813 -0.1059 -0.0269 -0.0078
93394W        W36306   9.302  20.012   5.976  0.1180 -0.0074  0.1891
93395W        W36307  13.262  22.455   5.830 -0.4363  0.1369 -0.0365
93396W        W36308  13.134  20.985   6.339  0.2013 -0.1351 -0.1168
93397W        W36309  12.217  18.548   6.202  0.0517  0.0866  0.4189
93398W        W36310  14.157  18.936   3.444  0.0073  0.3495  0.0377
93399W        W36311  12.354  20.835   5.051  0.0985  0.0615  0.0526
93400W        W36312  11.687  21.335   2.388  0.2974 -0.0149  0.2279
93401W        W36313  12.353  17.529   4.374 -0.0530  0.1989 -0.1230
93402W        W36314  12.724  20.361   5.128 -0.0359  0.1909 -0.0556
93403W        W36315  11.400  21.002   3.605 -0.0714 -0.1052 -0.2669
93404W        W36316  13.825  21.192   8.136  0.1474  0.2731  0.2947
93405W        W36317  10.833  21.201   3.817  0.2753 -0.0458 -0.0941
93406W        W36318  14.180  16.982   4.695  0.3159  0.0577  0.0002
93407W        W36319   9.668  21.658   4.540  0.2719  0.1541  0.0869
93408W        W36320  11.827  19.964   3.261 -0.3831  0.0051  0.4654
93409W        W36321  11.801  19.578   3.615  0.3764  0.1427 -0.0426
93410W        W36322  12.967  19.093   4.620 -0.1429  0.2212 -0.2282
93411W        W36323  13.552  19.936   3.641  0.1828  0.2346 -0.0233
93412W        W36324  11.810  18.222   4.972 -0.1497  0.1359  0.0002
93413W        W36325  13.581  19.535   4.233  0.1459 -0.1396 -0.1675
93414W        W36326  10.265  20.859   4.693 -0.0521 -0.0738  0.0533
93415W        W36327  13.569  19.516   6.145  0.0307  0.1929 -0.1637
93416W        W36328  13.537  17.415   4.081  0.0195  0.1848 -0.0313
93417W        W36329  13.124  21.219   5.520 -0.1068 -0.0679  0.1110
93418W        W36330  11.399  19.048   8.702  0.2222  0.0415  0.2096
93419W        W36331  11.722  19.160   2.479 -0.1435 -0.2356 -0.3654
93420W        W36332  13.467  18.286   5.541 -0.3819 -0.1605  0.0631
93421W        W36333  13.266  18.904   5.097  0.2979 -0.2552 -0.0076
93422W        W36334  10.943  19.402   3.169  0.0273 -0.1102  0.3647
93423W        W36335  13.137  21.109   4.672  0.0171  0.1255  0.1804
93424W        W36336  11.048  19.742   3.530 -0.0275 -0.5352 -0.2281
93425W        W36337  11.793  21.191   3.930  0.4033  0.1237 -0.1116
93426W        W36338  11.425  20.588   6.022  0.1482 -0.1781 -0.1474
93427W        W36339  12.748  20.401   6.819  0.1211  0.1278  0.0055
93428W        W36340  13.178  20.773   5.158 -0.3578 -0.2719 -0.1852
93429W        W36341  12.563  20.092   4.580 -0.1881  0.0423 -0.0495
93430W        W36342  12.508  19.467   5.273 -0.2391 -0.2156  0.4748
93431W        W36343  13.184  21.949   5.860 -0.1595  0.1584 -0.0016
93432W        W36344  13.059  19.620   6.956 -0.3926  0.0841  0.1782
93433W        W36345  11.260  21.199   6.699 -0.3910 -0.2026  0.1384
93434W        W36346  12.596  18.781   5.799  0.4226  0.1415 -0.0354
93435W        W36347  14.680  21.527   2.947  0.0879  0.0690  0.0428
93436W        W36348  13.833  19.185   6.518 -0.0256  0.0526  0.0429
93437W        W36349  11.135  20.473   1.792 -0.2096 -0.2404 -0.0533
93438W        W36350  11.841  19.755   5.998 -0.0503 -0.2073  0.1054
93439W        W36351  13.003  20.171   4.357 -0.1776  0.0144  0.3197
93440W        W36352  12.996  18.895   6.387  0.1577 -0.2656 -0.0259
93441W        W36353  11.213  21.438   6.028  0.2064 -0.1502  0.2435
93442W        W36354  12.159  20.080   1.504 -0.1668  0.3971 -0.3807
93443W        W36355  10.694  22.605   5.933  0.1268  0.2307 -0.1502
93444W        W36356  14.288  19.146   4.757  0.0729  0.1514  0.1445
93445W        W36357  13.450  20.426   3.519 -0.2896 -0.0560 -0.0998
93446W        W36358  13.082  19.637   4.482 -0.1574 -0.1535 -0.0617
93447W        W36359  14.346  18.949   6.200  0.2422 -0.0324  0.0413
93448W        W36360  12.889  19.918   4.912  0.1970  0.0662  0.0744
93449W        W36361  12.015  17.700   6.903 -0.0999 -0.0681  0.2611
93450W        W36362  12.469  18.207   4.669 -0.2112 -0.1065  0.2983
93451W        W36363  13.678  21.282   4.607 -0.3017  0.1744  0.0462
93452W        W36364  11.219  18.768   7.314  0.0514 -0.2460 -0.0611
93453W        W36365  12.108  21.207   7.668  0.1812 -0.1030 -0.1597
93454W        W36366  11.749  19.300   7.707 -0.0376 -0.0523 -0.1502
93455W        W36367  13.174  19.085   3.325  0.0725 -0.3880  0.0974
93456W        W36368  12.353  20.504   3.669 -0.1225  0.0691  0.0714
93457W        W36369  12.850  20.037   6.397  0.2282 -0.0255  0.0596
93458W        W36370  14.055  20.951   4.804  0.0626 -0.0318 -0.3638
93459W        W36371  12.038  20.574   4.080 -0.4878  0.3209  0.1608
93460W        W36372  14.174  19.332   5.255  0.1022  0.0888 -0.0558
93461W        W36373  10.273  20.130   4.985  0.2468  0.1172  0.0053
93462W        W36374  13.211  18.562   4.257  0.3568 -0.1492  0.1647
93463W        W36375  13.162  18.761   3.794  0.2227  0.0164  0.1417
93464W        W36376  11.762  20.532   5.507 -0.1483  0.1378  0.2321
93465W        W36377  11.296  17.035   6.778 -0.3007  0.2888  0.0123
93466W        W36378  14.183  19.758   5.535 -0.1328  0.1156 -0.1800
93467W        W36379  13.278  18.416   5.087  0.1824  0.0541 -0.2848
93468W        W36380  13.180  19.149   6.010 -0.1782 -0.0806  0.1813
93469W        W36381  13.844  19.785   6.425  0.1531 -0.0441  0.1092
93470W        W36382  11.481  19.881   6.373 -0.0407  0.0743 -0.2531
93471W        W36383  11.604  19.648   8.123 -0.1452  0.4618 -0.1799
93472W        W36384  13.575  21.582   5.887 -0.1880 -0.1377 -0.5398
93473W        W36385  13.366  20.029   4.063  0.2353  0.0883 -0.1346
93474W        W36386  14.111  18.792   5.269 -0.0297  0.1104 -0.1029
93475W        W36387  14.736  19.240   3.957  0.1626  0.0004  0.0513
93476W        W36388  13.530  19.395   3.190 -0.1621 -0.0690  0.2316
93477W        W36389  10.830  20.223   5.307 -0.0248  0.0798 -0.1819
93478W        W36390  12.566  19.934   7.090  0.2094  0.0768 -0.0476
93479W        W36391  12.435  21.017   3.548  0.4049 -0.0361 -0.2264
93480W        W36392  14.580  19.404   5.541  0.3167  0.0205  0.1608
93481W        W36393  13.290  19.716   5.293 -0.0196  0.0493  0.0845
93482W        W36394  13.890  20.233   3.949 -0.0508 -0.1687 -0.1344
93483W        W36395  13.468  19.350   3.696 -0.3624  0.1438 -0.0974
93484W        W36396  11.137  18.996   4.562  0.0933  0.2301 -0.1233
93485W        W36397  11.431  20.674   6.499  0.3093  0.1738 -0.3210
93486W        W36398  12.989  19.596   3.231  0.0585 -0.4494  0.0344
93487W        W36399  12.989  20.800   3.004 -0.2014  0.2562 -0.2486
93488W        W36400  12.822  20.695   5.512 -0.2745 -0.1926 -0.3118
93489W        W36401  13.861  20.058   6.931  0.0262  0.0887 -0.3042
93490W        W36402  12.679  19.559   2.689  0.3222 -0.1260 -0.1007
93491W        W36403  14.278  18.995   5.659  0.1184 -0.0888 -0.0894
93492W        W36404  12.169  21.294   4.909  0.2195 -0.0180 -0.1164
93493W        W36405  13.282  17.274   4.523 -0.0397 -0.0970 -0.0378
93494W        W36406  10.975  20.470   5.824 -0.1495  0.1095  0.0369
93495W        W36407  10.264  19.496   6.671 -0.1483 -0.2437  0.2313
93496W        W36408  13.482  20.388   4.407  0.1430  0.0007  0.1261
93497W        W36409  12.832  19.270   5.621 -0.0843 -0.0768 -0.0751
93498W        W36410  13.306  19.067   4.214  0.0418 -0.1811 -0.0151
93499W        W36411  14.197  22.316   4.850  0.1297 -0.0621 -0.2494
93500W        W36412  14.285  19.106   6.708 -0.0340  0.0192 -0.0832
93501W        W36413  10.928  21.188   5.303 -0.2116  0.2175  0.2104
93502W        W36414  11.602  22.019   3.062 -0.0566 -0.1858  0.0813
93503W        W36415  14.083  20.428   8.280 -0.0052  0.1487  0.0477
93504W        W36416  14.144  20.946   3.666  0.1661  0.0333  0.2708
93505W        W36417  13.132  20.379   4.769  0.0955  0.1316 -0.0730
93506W        W36418  11.816  19.256   6.196  0.2076 -0.1937  0.0128
93507W        W36419  12.467  19.566   6.212  0.1765 -0.2469 -0.0830
93508W        W36420  11.736  21.529   5.802  0.2297  0.1632 -0.2066
93509W        W36421  12.251  18.468   2.973 -0.0147  0.1452  0.0699
93510W        W36422  13.479  22.053   4.199 -0.1805  0.0630 -0.0023
93511W        W36423  11.528  21.092   6.164  0.0330  0.0317  0.2645
93512W        W36424   9.904  19.855   4.628 -0.2413  0.1360  0.1512
93513W        W36425  10.910  20.468   3.224 -0.3566 -0.3238 -0.0743
93514W        W36426  13.470  19.895   4.776  0.2246 -0.0494  0.3826
93515W        W36427  12.666  19.602   3.650 -0.1790  0.2870 -0.0179
93516W        W36428  12.601  21.125   5.454  0.3988 -0.0312  0.0718
93517W        W36429  12.854  17.506   3.372 -0.0558  0.0626  0.0939
93518W        W36430  11.626  23.048   5.002  0.3161  0.2212  0.0536
93519W        W36431  10.717  21.051   3.268  0.2218 -0.1644 -0.2247
93520W        W36432  15.282  20.322   3.405 -0.2890 -0.1517  0.0753
93521W        W36433  12.036  21.970   5.001  0.0629 -0.2819 -0.1162
93522W        W36434  11.974  20.135   7.337 -0.3887 -0.3533 -0.1723
93523W        W36435  13.736  18.971   2.990 -0.0859  0.1550 -0.2230
93524W        W36436  14.200  21.330   5.768  0.0369 -0.1344 -0.1383
93525W        W36437  13.672  17.615   3.656 -0.2640 -0.1056 -0.2430
93526W        W36438  11.467  19.981   7.394  0.0993 -0.0283 -0.0298
93527W        W36439  12.505  20.231   5.557 -0.0276 -0.0000  0.3689
93528W        W36440  12.029  18.917   4.033  0.1244 -0.1433  0.1534
93529W        W36441  10.658  20.791   5.281  0.2259  0.2506 -0.1737
93530W        W36442  13.777  17.980   5.890  0.2262 -0.0420  0.0816
93531W        W36443  11.086  20.912   6.229  0.1419  0.2282 -0.0362
93532W        W36444  14.517  20.313   3.678  0.0163  0.0792  0.2721
93533W        W36445  10.479  19.692   2.834 -0.0553  0.0947 -0.0600
93534W        W36446  10.223  21.172   6.040  0.2778  0.1421  0.0700
93535W        W36447  14.519  17.978   5.325  0.1411  0.0047 -0.0885
93536W        W36448  14.007  20.454   3.536  0.2587  0.1960  0.0582
93537W        W36449  12.764  18.438   4.269 -0.0746  0.1040  0.3071
93538W        W36450  12.530  22.055   5.128  0.2773 -0.0118 -0.0882
93539W        W36451  11.843  20.944   4.902  0.0514 -0.0972  0.2663
93540W        W36452  12.352  21.599   5.301  0.2861 -0.4660 -0.1623
93541W        W36453  11.328  18.961   3.344 -0.0897  0.0367  0.1186
93542W        W36454  15.228  20.128   5.590  0.2408  0.0655  0.2030
93543W        W36455  12.992  18.402   5.614  0.1852  0.1476  0.0683
93544W        W36456  15.049  19.682   6.479 -0.1683  0.4455  0.1242
93545W        W36457  11.814  20.027   5.117  0.0338 -0.2747  0.1096
93546W        W36458  14.339  20.355   4.830  0.4256  0.1026  0.1170
93547W        W36459  13.915  20.801   5.686 -0.0867  0.0121  0.3768
93548W        W36460  12.847  18.493   6.119  0.0817  0.0381  0.3365
93549W        W36461  12.227  19.619   3.938  0.2570  0.0331  0.2411
93550W        W36462  13.179  20.474   6.459  0.1936  0.0038 -0.3640
93551W        W36463  14.230  18.938   1.990  0.4338  0.2799  0.2917
93552W        W36464  12.804  20.970   5.902 -0.2601  0.0128 -0.3412
93553W        W36465  12.272  19.181   3.693 -0.3323 -0.0064 -0.2110
93554W        W36466  12.979  18.230   3.195 -0.6471 -0.1937 -0.1574
93555W        W36467  11.855  19.435   2.982 -0.0800  0.0090 -0.1491
93556W        W36468  12.443  19.870   6.633  0.1654  0.1422  0.3408
93557W        W36469  11.566  20.452   7.280 -0.1986 -0.1874 -0.3077
93558W        W36470  11.312  18.481   3.875  0.1079  0.1365  0.4114
93559W        W36471  14.483  18.796   1.527 -0.4282  0.3237 -0.0958
93560W        W36472  13.774  20.859   5.205 -0.0395  0.0894 -0.0981
93561W        W36473  12.953  21.899   3.622  0.1066 -0.1593 -0.0418
93562W        W36474  12.838  18.930   4.129 -0.1411  0.3217 -0.1108
93563W        W36475  13.504  20.751   4.756  0.3897 -0.0190  0.0999
93564W        W36476  12.283  18.931   5.406  0.0003  0.0669  0.1682
93565W        W36477  14.474  22.677   7.038  0.2801  0.3362  0.0143
93566W        W36478  12.450  22.050   5.633  0.0852 -0.1785 -0.1423
93567W        W36479  12.607  17.519   3.902 -0.1608  0.1785  0.2326
93568W        W36480  12.321  20.039   6.149  0.0664 -0.0749  0.1312
93569W        W36481  12.159  21.407   4.392 -0.0881  0.3818  0.1648
93570W        W36482  14.066  19.957   4.938 -0.1484 -0.0973  0.0570
93571W        W36483  14.043  18.884   4.443  0.0406 -0.2099  0.3067
93572W        W36484  11.955  20.776   3.626  0.0691 -0.0574 -0.0552
93573W        W36485  13.390  17.801   6.115  0.1451  0.0310 -0.3502
93574W        W36486  12.254  20.722   5.639 -0.3526  0.2188  0.0620
93575W        W36487  11.730  20.314   6.321 -0.0926 -0.0430 -0.0098
93576W        W36488  13.381  19.809   2.857  0.1333  0.0996  0.0747
93577W        W36489  11.980  20.079   5.567  0.1611 -0.0102 -0.0275
93578W        W36490  11.688  20.687   4.449  0.3194 -0.2275  0.0855
93579W        W36491  13.544  20.914   4.242  0.3051  0.1230 -0.3254
93580W        W36492  15.259  21.182   4.204  0.0293 -0.0497 -0.2670
93581W        W36493  13.919  20.583   4.360 -0.0555  0.3047 -0.1299
93582W        W36494  14.161  20.361   5.724 -0.1560 -0.2523  0.2714
93583W        W36495  13.071  18.234   3.834 -0.2924 -0.1706  0.0234
93584W        W36496  14.667  18.969   4.485  0.1397  0.2999 -0.3140
93585W        W36497  13.764  18.581   4.133 -0.1142 -0.0350  0.1163
93586W        W36498  12.801  18.804   5.295 -0.1177 -0.1206 -0.1983
93587W        W36499  12.314  19.331   2.477  0.2793 -0.1407  0.0060
93588W        W36500  11.850  19.642   2.340 -0.3563  0.2737  0.2736
93589W        W36501  10.620  20.869   4.188 -0.2279  0.0578 -0.1794
93590W        W36502  12.825  18.605   7.498  0.4620 -0.0056  0.2544
93591W        W36503  10.817  18.360   7.326 -0.0476  0.4226 -0.1441
93592W        W36504  12.817  20.747   4.818  0.1838 -0.0596  0.0067
93593W        W36505  11.285  20.078   4.870  0.3047  0.0829 -0.1279
93594W        W36506  14.664  19.826   3.336 -0.0276  0.1206  0.0744
93595W        W36507  12.747  17.749   4.614  0.2121 -0.2301  0.0820
93596W        W36508  10.468  17.498   5.005 -0.4413 -0.0316 -0.1983
93597W        W36509  14.737  21.899   5.374  0.1528  0.0400 -0.1118
93598W        W36510  14.510  21.043   5.454  0.1627  0.1448 -0.2074
93599W        W36511  12.125  19.756   4.427  0.1503 -0.0395 -0.0666
93600W        W36512  13.435  21.664   6.956  0.0758 -0.5096  0.4269
93601W        W36513  11.927  21.310   2.926 -0.3161 -0.1500  0.1999
93602W        W36514  12.755  19.936   5.918  0.2426 -0.2936 -0.0867
93603W        W36515  11.434  18.192   6.465 -0.2475  0.1748  0.1814
93604W        W36516  11.786  19.103   3.407 -0.2162 -0.1202 -0.1161
93605W        W36517  12.755  18.318   5.085 -0.0649 -0.1098 -0.0371
93606W        W36518  12.801  19.838   5.432 -0.3043 -0.3225  0.1018
93607W        W36519  14.599  21.078   3.405 -0.1816  0.0721  0.1328
93608W        W36520  11.077  19.611   4.682  0.0749 -0.2619 -0.1229
93609W        W36521  11.174  21.421   7.624 -0.0537  0.0696  0.5209
93610W        W36522  10.793  18.068   5.247 -0.0422  0.1199 -0.1090
93611W        W36523  14.142  19.947   3.558 -0.1067 -0.2066  0.2818
93612W        W36524  10.607  22.284   7.668  0.1166  0.2800  0.1410
93613W        W36525  13.983  18.802   2.397  0.0883 -0.0146  0.3154
93614W        W36526  14.876  18.725   4.936 -0.1708  0.3970  0.0360
93615W        W36527  13.795  19.837   3.193 -0.0073 -0.0030 -0.6914
93616W        W36528  12.395  18.716   6.671 -0.0667  0.1299  0.2339
93617W        W36529  11.324  20.867   4.771 -0.0288  0.0440 -0.0992
93618W        W36530  14.534  20.369   6.087 -0.0116 -0.2604  0.1300
93619W        W36531  12.031  17.253   5.892 -0.1912  0.0444  0.3215
93620W        W36532  13.662  18.913   3.485  0.2049 -0.1603 -0.0814
93621W        W36533  13.145  21.081   3.965  0.2118  0.1242 -0.1014
93622W        W36534  11.981  18.572   5.509  0.3022 -0.0304  0.0189
93623W        W36535  13.353  18.785   5.676  0.0474 -0.3280  0.0094
93624W        W36536  12.592  20.435   6.060  0.3165 -0.1282 -0.0959
93625W        W36537  12.089  21.087   5.382 -0.0316  0.0999  0.0947
93626W        W36538  12.533  19.416   7.157  0.1538  0.0174  0.4230
93627W        W36539  12.803  18.535   3.497 -0.5287 -0.0108  0.1200
93628W        W36540  15.188  19.798   3.214 -0.1860 -0.0677 -0.0747
93629W        W36541  12.844  23.030   6.800  0.0898  0.2004 -0.1644
93630W        W36542  13.868  20.803   7.132  0.1100 -0.0282 -0.1024
93631W        W36543  12.227  21.025   6.553 -0.0100  0.0786 -0.1229
93632W        W36544  13.019  20.259   5.515  0.0700  0.1554  0.0814
93633W        W36545  11.601  18.246   5.707 -0.1119  0.0704  0.1927
93634W        W36546  13.767  20.763   3.253  0.1883 -0.1713 -0.0621
93635W        W36547  12.316  19.941   5.044  0.3297 -0.0719 -0.1884
93636W        W36548  14.221  19.899   6.106 -0.0216  0.1924  0.2470
93637W        W36549  11.559  19.807   5.509  0.1650 -0.1608 -0.0269
93638W        W36550  13.373  17.240   3.621  0.0079 -0.1839 -0.1217
93639W        W36551   9.707  21.606   7.057  0.0399  0.2175  0.2209
93640W        W36552  13.580  20.591   6.113 -0.0010 -0.4253  0.2295
93641W        W36553  12.920  19.552   9.637 -0.1061 -0.1911 -0.1067
93642W        W36554  11.120  18.767   7.981  0.0973  0.0559 -0.2074
93643W        W36555  13.608  19.628   6.862  0.2247  0.0953  0.2057
93644W        W36556  13.417  20.867   7.316 -0.1115  0.2245  0.1099
93645W        W36557  10.487  20.029   9.118  0.1104  0.0109 -0.1508
93646W        W36558  12.663  21.452   7.981  0.0343  0.2514 -0.1315
93647W        W36559  12.316  21.056   8.111 -0.1564 -0.2836 -0.0511
93648W        W36560  12.803  21.720   8.404  0.0546  0.3749 -0.0015
93649W        W36561  12.691  20.853   6.522 -0.2341  0.0167 -0.0923
93650W        W36562   9.176  19.114  10.180  0.1018  0.2812  0.3207
93651W        W36563  11.716  17.180   5.484 -0.3318 -0.0311  0.0252
93652W        W36564   9.134  17.157   9.941  0.1970 -0.2996  0.2095
93653W        W36565  13.036  21.412   9.256  0.5106  0.0604 -0.1509
93654W        W36566  11.683  20.015   6.887 -0.1951 -0.0377 -0.0417
93655W        W36567  11.386  19.554   8.996 -0.0963 -0.1907 -0.0913
93656W        W36568  12.128  19.937   9.373  0.2373  0.0311  0.4789
93657W        W36569  11.375  21.460   8.419  0.1076  0.2871 -0.0129
93658W        W36570  11.973  18.697   9.316 -0.2541  0.2166 -0.0468
93659W        W36571  11.702  20.785   8.862 -0.0803 -0.1322  0.0368
93660W        W36572  12.128  19.025   7.904 -0.0995 -0.2243  0.4860
93661W        W36573   9.360  20.661   9.545  0.2167 -0.2006  0.3776
93662W        W36574  12.121  19.780   8.601 -0.2909  0.1128  0.1037
93663W        W36575  12.716  20.764   8.449 -0.2387  0.1245 -0.1010
93664W        W36576  11.884  22.250   8.753  0.0559 -0.2288 -0.1701
93665W        W36577  11.342  20.874   8.533  0.0809 -0.1727 -0.2796
93666W        W36578  12.362  22.980   8.930  0.4034  0.0274  0.1114
93667W        W36579  11.193  20.389   7.622  0.1127  0.0553 -0.3516
93668W        W36580  10.948  21.782   7.898  0.2115  0.0719  0.1573
93669W        W36581  12.223  20.202   6.939 -0.1076  0.0168  0.1431
93670W        W36582  14.741  22.169   7.699 -0.0280  0.4798 -0.4005
93671W        W36583  10.801  20.150   6.791  0.2329 -0.0856 -0.0073
93672W        W36584  12.167  19.210   8.417 -0.1172 -0.1903  0.2151
93673W        W36585  12.022  18.740   8.392  0.2142  0.1413  0.0575
93674W        W36586  11.787  20.664   8.372  0.2504  0.0349 -0.0435
93675W        W36587  11.721  22.472   8.293 -0.0552  0.1121  0.1128
93676W        W36588  10.137  21.870   9.258 -0.2436  0.3994  0.0834
93677W        W36589  10.630  21.275   7.739  0.0530  0.0776  0.0275
93678W        W36590  12.995  19.570   6.270  0.0295 -0.1305 -0.1650
93679W        W36591  12.335  19.028   6.302  0.2178 -0.2013 -0.1128
93680W        W36592  13.407  18.465   7.439  0.2355 -0.1553  0.0286
93681W        W36593  11.429  17.375   8.556  0.0940 -0.0765 -0.4797
93682W        W36594  10.139  20.940   8.447  0.0610 -0.1377  0.1118
93683W        W36595   9.691  19.953  10.252 -0.0283 -0.1329  0.1174
93684W        W36596  12.177  19.259   7.482 -0.0220 -0.1467 -0.1800
93685W        W36597  11.913  21.170   9.321  0.0889 -0.0789  0.2727
93686W        W36598  11.397  20.811  11.899  0.0834 -0.1175  0.2432
93687W        W36599  11.462  20.089   9.247  0.0685  0.3367 -0.0751
93688W        W36600  13.061  21.335   6.665  0.0267 -0.0659  0.0700
93689W        W36601  13.620  20.434   8.397 -0.2245 -0.1207 -0.0935
93690W        W36602  12.207  20.539   8.670  0.0014  0.1559 -0.2825
93691W        W36603  11.120  18.180   8.939 -0.0955  0.0719  0.2093
93692W        W36604  11.800  17.697   7.304  0.0501  0.2004  0.1549
93693W        W36605  12.913  19.185   8.505 -0.1021  0.1270 -0.3914
93694W        W36606  12.359  19.525   9.451 -0.0128 -0.2531  0.0080
93695W        W36607  11.593  23.593   9.930  0.1239 -0.0122 -0.2919
93696W        W36608  13.437  19.413   7.358 -0.1340 -0.2895 -0.1040
93697W        W36609  12.397  18.347   7.620  0.0744 -0.2516  0.0307
93698W        W36610  12.381  17.992   9.099 -0.3150 -0.0318  0.3672
93699W        W36611  11.772  20.493   6.811  0.0632 -0.5229 -0.2578
93700W        W36612  12.457  19.588   7.700 -0.2323 -0.0644 -0.2249
93701W        W36613  12.247  20.990   8.568 -0.1778 -0.2240  0.0029
93702W        W36614  13.798  18.785   7.349  0.2635  0.0428 -0.2305
93703W        W36615  10.860  19.250   9.525 -0.0682 -0.1914 -0.0224
93704W        W36616   9.855  20.435   7.914  0.1468  0.1028  0.0632
93705W        W36617   9.338  19.957   8.534  0.1132  0.0944 -0.0002
93706W        W36618  10.139  19.906   7.784 -0.0029  0.0789 -0.0626
93707W        W36619  10.121  18.107   8.880  0.3702  0.2947 -0.2156
93708W        W36620  10.655  21.387   8.960 -0.3330 -0.0115  0.0826
93709W        W36621  12.754  18.200   8.040 -0.1773 -0.2295 -0.3361
93710W        W36622  13.216  17.404   9.090  0.2054 -0.1692  0.0216
93711W        W36623  11.837  20.943   6.959 -0.2176  0.0456  0.0069
93712W        W36624  13.610  22.861   8.991  0.0967 -0.2408  0.1478
93713W        W36625  13.706  19.321   8.724 -0.1063 -0.2360 -0.2854
93714W        W36626  13.526  21.417   7.399 -0.1897 -0.1500 -0.1886
93715W        W36627  12.914  20.391   9.403  0.0475  0.3333  0.0554
93716W        W36628  10.314  17.913   8.224 -0.2461 -0.1109 -0.0414
93717W        W36629  10.927  20.108   9.435  0.0076  0.0868 -0.0784
93718W        W36630  11.644  18.805   7.861  0.1201  0.0533 -0.2456
93719W        W36631  13.633  19.163   7.750 -0.1181  0.0161 -0.2722
93720W        W36632  10.193  20.023   8.621 -0.1483  0.1110  0.0463
93721W        W36633   9.323  20.195   8.115  0.0435 -0.2838  0.0589
93722W        W36634  11.798  21.228   6.580  0.0786 -0.1188  0.0328
93723W        W36635  14.082  22.890   8.785 -0.1925  0.2777  0.0038
93724W        W36636  11.989  22.514   9.853 -0.1789  0.2532  0.2391
93725W        W36637  12.115  16.548   9.603  0.1964  0.2848 -0.0411
93726W        W36638  10.381  18.457   9.784  0.0506 -0.0525  0.2044
93727W        W36639  11.103  22.612   9.638 -0.0664 -0.2224 -0.0783
93728W        W36640  11.833  21.320   9.886  0.2432 -0.3191 -0.3987
93729W        W36641  11.637  17.356   7.979  0.1639 -0.4349 -0.1933
93730W        W36642  13.936  21.273   8.615 -0.0663  0.0128 -0.0315
93731W        W36643  13.176  19.387   7.876 -0.1342  0.1437  0.0433
93732W        W36644  12.840  19.326   8.984  0.0034 -0.0306 -0.0676
93733W        W36645  11.515  19.816   8.585 -0.0206 -0.3481  0.2188
93734W        W36646  10.774  19.013   7.351  0.1308 -0.0157  0.1320
93735W        W36647  12.668  21.586   8.862  0.1505  0.4985 -0.2540
93736W        W36648  11.284  20.599   8.078  0.0596  0.2451  0.0542
93737W        W36649   9.090  20.497   8.570  0.3430 -0.0671  0.0160
93738W        W36650  11.828  20.877   7.947  0.0937  0.2198  0.0708
93739W        W36651  12.416  19.085   8.858 -0.0953  0.1229  0.3594
93740W        W36652  10.887  18.673   6.981 -0.1797 -0.0378 -0.1165
93741W        W36653  12.525  18.785   7.899 -0.0507  0.0474 -0.1602
93742W        W36654  14.548  17.600   7.575 -0.1808  0.0366 -0.2196
93743W        W36655  14.045  21.048   7.646  0.0321  0.0543 -0.4094
93744W        W36656  12.592  19.221   6.655 -0.4853  0.0518  0.4111
93745W        W36657  12.695  18.284   6.551  0.4148  0.2393 -0.2643
93746W        W36658  10.865  20.851   8.235 -0.0135 -0.4144 -0.0024
93747W        W36659  12.422  20.227   9.108 -0.0919  0.1007  0.2880
93748W        W36660  12.558  17.457   7.056  0.1283 -0.1438 -0.0051
93749W        W36661  13.122  21.333   8.256 -0.1961  0.1703 -0.1333
93750W        W36662  10.489  21.390   8.437 -0.0242  0.2309 -0.1766
93751W        W36663  14.506  20.496   8.062 -0.0070 -0.0036 -0.0619
93752W        W36664  14.665  19.358   9.591 -0.0773  0.3536 -0.1994
93753W        W36665  11.771  18.553   6.491 -0.3529 -0.1321  0.1769
93754W        W36666  12.826  20.545   8.891 -0.1533 -0.0164 -0.1135
93755W        W36667  10.714  20.739   7.703  0.2222  0.0466 -0.1494
93756W        W36668  13.724  19.329   9.358  0.1024  0.4387  0.2342
93757W        W36669  12.932  19.731   8.209  0.2357 -0.0092 -0.0010
93758W        W36670  14.176  18.263   7.976 -0.1261 -0.2802  0.1359
93759W        W36671  11.762  19.413   8.659  0.0845 -0.0183 -0.1091
93760W        W36672  10.916  20.687   8.698 -0.0014 -0.1398 -0.3720
93761W        W36673  12.835  19.864   9.091  0.2675  0.1177 -0.0732
93762W        W36674  10.950  21.327   8.075  0.1942 -0.0240 -0.2012
93763W        W36675  12.716  19.972   7.671 -0.1740 -0.1581  0.0315
93764W        W36676  12.427  18.938   7.095 -0.0325 -0.2055 -0.0478
93765W        W36677  11.725  23.066   7.190  0.2223 -0.1702 -0.1869
93766W        W36678  11.356  21.320   7.182 -0.2246 -0.1180  0.1455
93767W        W36679  11.413  17.567   9.078 -0.0139  0.3187  0.1780
93768W        W36680  11.792  20.226   8.782  0.1888 -0.0746 -0.1030
93769W        W36681  11.069  22.378   7.233  0.0334  0.0388 -0.0069
93770W        W36682  12.506  20.127   8.583 -0.1617 -0.0452 -0.3843
93771W        W36683  12.564  20.383   7.293 -0.2809  0.1485 -0.0402
93772W        W36684  13.072  19.696   8.661  0.1063  0.3169  0.0498
93773W        W36685   9.853  19.766   9.798  0.0479 -0.1256 -0.3430
93774W        W36686  11.677  18.991   6.667  0.1601  0.1869 -0.0462
93775W        W36687  10.653  19.290   8.282 -0.0117 -0.1044  0.0175
93776W        W36688  14.198  19.052   7.542 -0.1541  0.1742 -0.0974
93777W        W36689  14.396  19.312   7.147  0.0495  0.0684 -0.0631
93778W        W36690   9.842  18.719   8.672 -0.0224 -0.3207 -0.2283
93779W        W36691  10.186  20.674   9.790  0.0426 -0.3455  0.1049
93780W        W36692   9.187  19.510   8.680 -0.2729 -0.3925  0.1665
93781W        W36693  12.322  17.949   6.359 -0.0261 -0.1563 -0.1213
93782W        W36694  11.442  18.722   8.338  0.0167 -0.1493  0.0956
93783W        W36695  13.417  19.612   8.295  0.3329 -0.0164  0.1179
93784W        W36696  10.490  18.108   7.810  0.1078 -0.0051 -0.3379
93785W        W36697  10.254  20.814   7.998  0.2825  0.0003  0.0441
93786W        W36698  10.944  21.328   9.417 -0.0701  0.1680  0.0685
93787W        W36699  10.967  19.654   9.183  0.0482 -0.1675  0.0996
93788W        W36700  11.422  21.753   7.890  0.2493 -0.2604 -0.0442
93789W        W36701  13.302  20.459   7.680 -0.1982 -0.0623  0.0656
93790W        W36702  13.095  18.434   9.331  0.1072  0.1443  0.0671
93791W        W36703  10.708  18.055   8.654 -0.1316 -0.2034  0.2234
93792W        W36704  11.718  19.147   8.150 -0.1256  0.1859  0.0693
93793W        W36705  10.082  21.715   9.692 -0.2278 -0.0254 -0.1156
93794W        W36706  13.259  18.492   8.835 -0.0505 -0.1508 -0.2417
93795W        W36707  11.275  20.520   9.371  0.1261  0.1171 -0.2889
93796W        W36708  13.536  20.989   8.493  0.3916  0.1828 -0.0052
93797W        W36709  10.421  20.076   8.192 -0.1638  0.3967 -0.1839
93798W        W36710  10.786  19.625   9.858  0.3113 -0.1710 -0.0027
93799W        W36711  11.232  20.280   8.454  0.0154  0.0305  0.0481
93800W        W36712  12.215  20.241  11.800  0.0129 -0.2097 -0.0829
93801W        W36713  11.169  22.060   8.243  0.0701 -0.1849 -0.0423
93802W        W36714  10.948  20.021   7.262  0.1061  0.2630 -0.0805
93803W        W36715   9.853  21.361   8.406 -0.3577  0.3182 -0.1347
93804W        W36716  13.289  18.236   7.988  0.0207  0.0151 -0.1516
93805W        W36717  12.228  20.104   7.787 -0.1467 -0.0664 -0.0213
93806W        W36718  13.086  16.872   9.868  0.1296  0.4699  0.1253
93807W        W36719  13.491  19.984   7.290  0.0734  0.0947 -0.0531
93808W        W36720  11.700  16.893   9.359  0.1344  0.0325 -0.0871
93809W        W36721  11.732  21.141   8.500 -0.3741 -0.3724 -0.0039
93810W        W36722  11.791  17.702   8.445  0.0182  0.2257  0.1073
93811W        W36723  10.984  18.296   7.820 -0.0774  0.1290  0.0756
93812W        W36724  12.567  18.957   9.336  0.2881  0.0064 -0.3061
93813W        W36725  13.060  21.063   8.666 -0.1179  0.2465  0.0709
93814W        W36726  11.197  19.626   7.796  0.0586  0.0664 -0.0012
93815W        W36727  13.277  20.237   9.035  0.1049  0.1965 -0.1810
93816W        W36728   9.997  21.902   8.581 -0.1990 -0.0735  0.0741
93817W        W36729  12.797  20.615   7.689  0.2553  0.0033 -0.1862
93818W        W36730  13.506  20.439   6.982  0.4069 -0.0414 -0.0706
93819W        W36731  11.106  20.020   8.869  0.0286 -0.1636  0.0399
93820W        W36732  12.803  20.973   8.035 -0.2573  0.1621 -0.1426
93821W        W36733  13.373  19.140   8.384  0.2267 -0.0895  0.0386
93822W        W36734  14.672  22.913   8.598 -0.2288  0.0278 -0.1739
93823W        W36735  14.486  17.623   7.082  0.3203  0.1486 -0.0673
93824W        W36736  14.095  18.691   9.367 -0.2629  0.0784 -0.3389
93825W        W36737  12.278  21.843   9.084 -0.0775 -0.0820 -0.0402
93826W        W36738  12.957  19.563   7.440  0.0443 -0.0919  0.2199
93827W        W36739   9.908  17.534   9.999  0.0246 -0.0987  0.1434
93828W        W36740  11.722  18.472   7.430  0.2470 -0.2489  0.3193
93829W        W36741  11.947  21.906   5.960  0.1841 -0.0231  0.1084
93830W        W36742  11.297  22.426   8.648  0.3250 -0.2623 -0.0175
93831W        W36743  12.404  19.697   8.999  0.1963  0.1368 -0.1634
93832W        W36744  10.670  18.382   9.057  0.3353 -0.0277 -0.3243
93833W        W36745  11.249  19.738   6.916  0.3052  0.0336  0.0244
93834W        W36746  11.922  19.750   7.672 -0.0252 -0.3813 -0.0341
93835W        W36747  12.234  20.801   9.161  0.0032  0.1795 -0.1238
93836W        W36748  13.045  17.755   6.888 -0.1674  0.2185  0.1749
93837W        W36749  11.240  20.308   6.960 -0.1898  0.0930 -0.1639
93838W        W36750  12.690  17.803   8.383 -0.1577 -0.5942  0.0365
93839W        W36751  10.488  23.112   8.526 -0.0877 -0.1566  0.2984
93840W        W36752  10.870  20.332   8.054  0.1495 -0.0133  0.1724
93841W        W36753  11.636  16.562   9.824  0.0927  0.0900 -0.0487
93842W        W36754  11.856  20.415   7.725  0.0220 -0.0058  0.2084
93843W        W36755  10.754  20.210   8.573  0.0940  0.0014  0.3418
93844W        W36756  11.044  19.412   8.619 -0.2992  0.0974  0.4387
93845W        W36757  14.057  19.565   7.935 -0.1849 -0.1394  0.0082
93846W        W36758  10.466  20.536   8.323  0.2968  0.2144  0.2329
93847W        W36759  11.980  21.667   9.579  0.0477  0.1485 -0.2255
93848W        W36760  10.884  17.439   8.438 -0.2522  0.3320  0.2628
93849W        W36761  11.358  20.760   6.985 -0.1475  0.0032  0.0600
93850W        W36762  10.471  20.521   8.831 -0.2035 -0.3146  0.0206
93851W        W36763  10.178  21.333   8.029 -0.2175 -0.0890 -0.1079
93852W        W36764  12.062  20.358   5.922  0.2587  0.0422 -0.1656
93853W        W36765  12.753  20.828   7.197  0.1486 -0.0735  0.4180
93854W        W36766  10.585  23.841  10.125 -0.0308  0.2222 -0.1706
93855W        W36767  12.604  19.241   8.080 -0.3116  0.0795 -0.1790
93856W        W36768  10.392  21.689   7.767 -0.2223 -0.0456 -0.3010
93857W        W36769  10.597  20.129   7.682  0.0445  0.0271 -0.1237
93858W        W36770  13.100  21.208   7.198 -0.1834  0.1387  0.0150
93859W        W36771  10.868  21.708   8.498 -0.1393 -0.1787  0.0210
93860W        W36772  12.996  19.144   7.075  0.1985  0.1951  0.1218
93861W        W36773  14.175  20.889   8.127 -0.1836 -0.3872 -0.3312
93862W        W36774  12.782  17.675   8.881 -0.0652 -0.1518 -0.0098
93863W        W36775  11.713  17.373   9.486  0.2265  0.0621 -0.0912
93864W        W36776  12.070  18.194   7.177 -0.2443  0.1239 -0.0070
93865W        W36777  11.803  21.375   8.087 -0.2847  0.1146  0.1008
93866W        W36778  10.630  19.364   8.924 -0.2320 -0.1425  0.0948
93867W        W36779  10.963  21.223   8.629 -0.0696 -0.1959  0.0152
93868W        W36780  13.868  17.422   9.829 -0.1536 -0.1169 -0.0910
93869W        W36781  11.546  20.191   5.805 -0.0972 -0.0440 -0.2109
93870W        W36782  13.378  20.074   8.143 -0.5603 -0.0119 -0.1756
93871W        W36783  11.678  21.020   7.449 -0.1566 -0.1050  0.1121
93872W        W36784  11.234  22.277   7.723 -0.1461 -0.1918  0.0330
93873W        W36785  10.684  21.931   9.978 -0.1004  0.0250  0.0800
93874W        W36786   8.798  18.611   8.570 -0.2804 -0.1553  0.0499
93875W        W36787  13.065  20.243   7.215  0.3588  0.0538  0.0861
93876W        W36788  10.614  17.601   9.477 -0.1867  0.0628 -0.1943
93877W        W36789  10.670  19.716   8.553  0.2442  0.1789  0.0276
93878W        W36790  13.603  19.685   7.729  0.2011  0.0143 -0.0960
93879W        W36791  12.621  22.914   9.547 -0.2221 -0.0464  0.0301
93880W        W36792  10.498  19.654   9.448 -0.0523  0.0277  0.1661
93881W        W36793  11.486  18.546   6.925  0.1002 -0.0941  0.1006
93882W        W36794  12.129  19.259   6.903 -0.2757  0.2355 -0.1634
93883W        W36795  11.548  17.961   8.813 -0.0048  0.2082 -0.2140
93884W        W36796  11.969  18.657   6.951 -0.0201 -0.1956 -0.1722
93885W        W36797  10.004  20.244   9.006 -0.4178 -0.1369  0.2601
93886W        W36798  12.078  19.168   9.210 -0.0462  0.3498 -0.1303
93887W        W36799  10.425  18.850   8.172  0.0168  0.0863  0.0959
93888W        W36800  13.574  20.832   6.549  0.0932  0.1779 -0.1537
93889W        W36801  13.374  20.392   9.527 -0.0904 -0.0367  0.0039
93890W        W36802  11.742  21.590   7.540 -0.3101  0.0020 -0.2913
93891W        W36803  13.369  19.845   9.509 -0.2009 -0.1047 -0.1388
93892W        W36804  11.831  21.662   8.683  0.1940 -0.1651 -0.1676
93893W        W36805  11.045  19.143   9.057 -0.0495 -0.1485 -0.2367
93894W        W36806  13.475  20.000   8.668 -0.2601  0.0603  0.0007
93895W        W36807  13.680  20.703   7.996 -0.1141  0.0855  0.0210
93896W        W36808  11.647  18.540   8.796 -0.0914  0.1413 -0.0579
93897W        W36809  11.164  18.650   8.900  0.1884 -0.5486  0.3251
93898W        W36810  10.735  21.272   6.711 -0.0929 -0.0161 -0.1625
93899W        W36811  12.577  18.852   8.398 -0.1534  0.0180  0.2045
93900W        W36812  11.468  21.923   7.290 -0.2719 -0.1439  0.2458
93901W        W36813   9.858  20.935   9.430  0.0488 -0.1428 -0.1137
93902W        W36814  10.881  19.318   6.763 -0.0890  0.0267  0.1139
93903W        W36815  11.908  20.798   9.729  0.0512  0.0743 -0.3492
93904W        W36816  12.348  20.450   8.157 -0.3249 -0.0952 -0.2922
93905W        W36817  13.183  20.658   8.281 -0.1479 -0.0814  0.3113
93906W        W36818  11.897  20.024   8.256  0.2561 -0.2083  0.0405
93907W        W36819  13.173  20.779   9.191 -0.0067  0.0833 -0.0955
93908W        W36820  11.922  18.948   8.791 -0.0393 -0.0926 -0.2447
93909W        W36821  12.502  18.352   8.505  0.2047 -0.3892  0.3190
93910W        W36822  12.020  17.656   7.838 -0.1432  0.0224 -0.0226
93911W        W36823  10.367  19.112   9.381  0.2169  0.1779 -0.0382
93912W        W36824  10.055  19.727   7.276 -0.0185  0.3890 -0.1790
93913W        W36825  10.656  19.677   8.010 -0.0809 -0.1236  0.0631
93914W        W36826  11.321  20.470   8.864 -0.0608  0.0931 -0.0987
93915W        W36827  10.549  20.985   8.717  0.0592  0.0216  0.0456
93916W        W36828  10.616  18.891   6.632  0.0229 -0.3309  0.3652
93917W        W36829  12.751  21.533   7.105  0.0756  0.1197  0.1546
93918W        W36830  11.299  17.315   7.510 -0.0806 -0.0799  0.0299
93919W        W36831  10.123  19.466   8.712  0.1222  0.0139 -0.0606
93920W        W36832  14.601  21.175   7.904 -0.0477  0.1338  0.0859
93921W        W36833  12.622  21.210   7.526  0.0666  0.3074 -0.2253
93922W        W36834  10.681  18.604  10.125  0.1320  0.0817  0.0257
93923W        W36835  11.164  20.286   6.417  0.3433 -0.4916 -0.0534
93924W        W36836  11.412  20.107   8.003  0.0454 -0.0694 -0.2290
93925W        W36837  11.823  19.782   9.041  0.1050  0.2754 -0.1868
93926W        W36838  11.377  21.100   8.077 -0.0727  0.3091  0.3295
93927W        W36839  12.636  22.058   7.370  0.3025  0.0525  0.2574
93928W        W36840  13.616  18.451   9.505  0.0474  0.0099 -0.2786
93929W        W36841  13.883  19.942   8.352 -0.1824 -0.2096  0.0281
93930W        W36842  13.497  21.119   6.896 -0.0624 -0.0487 -0.0657
93931W        W36843  13.796  18.101   9.194 -0.2715 -0.1183 -0.0437
93932W        W36844  12.981  18.683   6.854  0.3111  0.1645  0.1798
93933W        W36845  13.865  18.977   9.056  0.0254  0.0398 -0.2942
93934W        W36846  12.767  16.646   8.762  0.2712  0.3339  0.0224
93935W        W36847  11.945  18.457   7.991  0.3728 -0.3027 -0.0408
93936W        W36848  13.096  20.806   6.832  0.1078  0.1874 -0.0606
93937W        W36849  12.548  18.451   9.302 -0.1195  0.3180  0.0310
93938W        W36850  11.209  18.280   8.359 -0.0799  0.2732  0.1016
93939W        W36851  13.024  21.078   9.735  0.2882  0.2504  0.2056
93940W        W36852  11.596  18.059   6.957  0.0998 -0.3411 -0.0529
93941W        W36853  14.428  19.695   7.563  0.2567  0.3995  0.1473
93942W        W36854  11.333  21.653   9.450  0.3746  0.1977  0.0641
93943W        W36855  11.104  22.884   8.541  0.0643 -0.0213 -0.0881
93944W        W36856  13.402  19.372   9.775 -0.0585 -0.0366  0.0824
93945W        W36857  10.618  18.886   9.720  0.0242 -0.1237  0.2841
93946W        W36858  12.115  19.517   8.059  0.0282 -0.3641  0.0499
93947W        W36859  12.454  19.855   8.167  0.3727  0.0815  0.0542
93948W        W36860  12.233  18.521   8.913  0.1418  0.2196  0.4131
93949W        W36861   8.712  19.664   8.907 -0.0921  0.1308  0.2101
93950W        W36862  12.523  18.402   7.025 -0.0590  0.0417  0.3052
93951W        W36863  10.308  22.324   8.704  0.2245  0.1788  0.0002
93952W        W36864  11.515  21.375   9.000  0.0524 -0.1858  0.2915
93953W        W36865  11.996  24.778   3.569 -0.0961 -0.0481  0.2783
93954W        W36866  11.616  23.205   0.475 -0.2629  0.1569 -0.1994
93955W        W36867  15.369  22.256  31.279 -0.1165 -0.2089  0.2231
93956W        W36868  14.598  22.444   1.182 -0.0894 -0.2017  0.1305
93957W        W36869  10.798  21.093   1.115  0.0323 -0.0156 -0.1218
93958W        W36870  12.656  24.933   2.517  0.2026  0.0198 -0.0567
93959W        W36871  11.625  22.501   2.945 -0.0649  0.0385  0.0907
93960W        W36872  13.606  24.932   1.502 -0.2161 -0.2616  0.0775
93961W        W36873  13.751  25.941   2.557  0.1382 -0.0229 -0.1055
93962W        W36874  12.782  23.354  30.919  0.0817 -0.2010 -0.0748
93963W        W36875  14.215  22.017   2.516 -0.1437  0.1291  0.1489
93964W        W36876  10.983  24.917   2.320  0.0417  0.0222 -0.0881
93965W        W36877  13.969  23.069  31.780 -0.1006  0.2034 -0.2096
93966W        W36878  11.217  20.010   1.569 -0.0958 -0.0738 -0.1516
93967W        W36879  14.121  24.578   1.536  0.0307 -0.1694  0.0814
93968W        W36880  11.019  23.737  31.465 -0.3636 -0.1561 -0.2289
93969W        W36881  13.413  23.406   1.769  0.2354 -0.0533 -0.2287
93970W        W36882  12.521  23.198   0.523 -0.1361  0.0815  0.0743
93971W        W36883  12.437  25.794  30.086 -0.1009 -0.0097 -0.2810
93972W        W36884  12.744  22.565   0.523  0.3977  0.2821 -0.3294
93973W        W36885  13.537  22.334   3.147 -0.0934  0.3946 -0.0707
93974W        W36886  13.219  24.259   0.786  0.1570 -0.0760 -0.0525
93975W        W36887  12.288  20.804  31.223  0.3868  0.0779 -0.1372
93976W        W36888  11.534  22.008   1.731  0.0611 -0.4372  0.0009
93977W        W36889  13.547  24.211   2.090 -0.3530 -0.0143 -0.2164
93978W        W36890  14.083  21.620   1.868  0.1402 -0.2915 -0.2290
93979W        W36891  14.236  23.832   0.868 -0.0430 -0.0292 -0.1848
93980W        W36892  12.518  25.234   1.944 -0.0541  0.2030 -0.1101
93981W        W36893  14.245  25.988  31.470 -0.2218  0.2557 -0.0894
93982W        W36894  13.773  22.689   2.819 -0.0600  0.1168  0.1998
93983W        W36895  10.622  23.516   1.884  0.1004 -0.1080  0.0205
93984W        W36896  11.516  25.629   1.043 -0.0820 -0.0740  0.0952
93985W        W36897  13.045  24.748  31.901  0.2186  0.3642 -0.1700
93986W        W36898  14.825  24.304   0.609 -0.5664 -0.3130  0.3253
93987W        W36899  14.903  24.556   2.215 -0.0664  0.5583 -0.0097
93988W        W36900  11.286  25.168   2.818  0.0576  0.1759 -0.4127
93989W        W36901  12.076  24.215   0.673 -0.0572  0.1620 -0.0620
93990W        W36902  13.462  25.872   3.972  0.0103 -0.1164  0.1293
93991W        W36903  13.629  25.289   3.903  0.0294  0.1454  0.0780
93992W        W36904  13.594  23.811   1.432  0.0503  0.1276 -0.2088
93993W        W36905  12.681  24.321   2.435  0.0129  0.1796 -0.0487
93994W        W36906  13.601  25.651  30.773  0.1460 -0.0094  0.0648
93995W        W36907  12.760  25.289   0.569 -0.2693  0.0499 -0.2605
93996W        W36908  11.213  23.348   2.638 -0.0147 -0.1228  0.0953
93997W        W36909  13.126  24.350   1.945  0.0899 -0.0611 -0.2554
93998W        W36910  15.527  21.739   3.216  0.2656  0.0453  0.1391
93999W        W36911  11.010  25.858   0.069  0.0334  0.3993 -0.1829
94000W        W36912  13.612  23.953  31.136 -0.0441 -0.0018 -0.1196
94001W        W36913  12.960  22.233  30.778  0.1352 -0.0275 -0.3278
94002W        W36914  14.442  22.802  31.964 -0.1586 -0.1505 -0.1960
94003W        W36915  13.285  21.319   1.084  0.2685  0.0229 -0.2325
94004W        W36916  12.652  25.030   1.139  0.1615 -0.3728 -0.3222
94005W        W36917  13.064  21.428   2.014 -0.0252  0.3941  0.0773
94006W        W36918  13.908  23.425   2.274  0.1614  0.1318  0.0393
94007W        W36919  14.471  22.207   0.752  0.1539  0.1171  0.4461
94008W        W36920  14.809  23.370   1.610 -0.3258 -0.0194 -0.0168
94009W        W36921  12.290  24.592   2.502  0.2352  0.5230 -0.2333
94010W        W36922  13.271  23.914   1.810  0.0171 -0.0589 -0.1427
94011W        W36923  13.531  25.374  29.846 -0.2034  0.1833 -0.1945
94012W        W36924  14.523  25.230   1.151 -0.2073  0.0168  0.1222
94013W        W36925  12.442  25.511  31.306 -0.1163  0.4186 -0.1827
94014W        W36926  11.417  22.259   2.491  0.0004 -0.1282 -0.3143
94015W        W36927  11.621  23.909   3.971  0.1002  0.0607  0.1241
94016W        W36928  12.417  23.823   3.184  0.3810  0.1701 -0.1204
94017W        W36929  12.106  23.124   0.287 -0.0330 -0.1004  0.0261
94018W        W36930  15.863  24.857   2.733 -0.3307 -0.0523  0.2931
94019W        W36931  11.868  24.765   2.686 -0.0509  0.0565  0.0591
94020W        W36932  15.372  21.795   0.957  0.1037 -0.0622  0.3149
94021W        W36933  13.672  24.355   1.667 -0.0364  0.1583 -0.2018
94022W        W36934  13.844  23.697   2.669 -0.2160  0.1572 -0.0138
94023W        W36935  14.018  25.714   0.663 -0.1901  0.2272  0.3210
94024W        W36936  14.212  21.607   2.751 -0.1139 -0.0234  0.0133
94025W        W36937  14.189  21.391   3.366 -0.1306 -0.1162 -0.0411
94026W        W36938  12.345  23.511   0.132  0.2655 -0.0731 -0.2284
94027W        W36939  13.146  23.989  31.377 -0.2636 -0.0043  0.0326
94028W        W36940  15.003  24.772   1.789  0.0602  0.1334  0.0694
94029W        W36941  15.916  22.972  30.797 -0.2342  0.0609  0.3361
94030W        W36942  13.481  24.662   0.670  0.1096 -0.4260 -0.4603
94031W        W36943  13.010  24.007   3.786  0.1682 -0.1570  0.1544
94032W        W36944  13.043  24.727   3.243 -0.0709  0.1483  0.0780
94033W        W36945  11.160  25.598  31.330 -0.0589  0.0296  0.0078
94034W        W36946  10.452  23.044   1.849 -0.0900  0.2079  0.1335
94035W        W36947  12.042  23.908   1.084 -0.1193 -0.1473  0.0485
94036W        W36948  11.351  22.873   2.809  0.0227  0.0660 -0.2683
94037W        W36949  12.136  22.952   0.750  0.0023  0.0881 -0.3482
94038W        W36950  16.366  22.500  30.810 -0.1111  0.1485 -0.0806
94039W        W36951  12.228  22.015   1.946  0.0002 -0.1252  0.0368
94040W        W36952  14.691  20.580   0.393  0.1081  0.0580 -0.2137
94041W        W36953  11.221  23.739   1.012 -0.3152 -0.2513  0.0550
94042W        W36954  15.176  25.395   0.273  0.3177 -0.1125 -0.1277
94043W        W36955  13.435  22.064  30.830  0.2148 -0.3512  0.3483
94044W        W36956  13.226  24.020  30.568  0.0575 -0.1936 -0.0459
94045W        W36957  12.531  23.428   2.707  0.0171 -0.1073  0.3181
94046W        W36958  12.007  23.413   0.842  0.1142 -0.0392  0.1683
94047W        W36959  12.213  21.462   3.843  0.0969  0.2484  0.0431
94048W        W36960  12.461  23.217   1.656  0.1104  0.2487 -0.0305
94049W        W36961  15.149  22.589   1.918  0.3664  0.3388 -0.0226
94050W        W36962  11.322  20.747   0.928  0.2904 -0.4874  0.0710
94051W        W36963  14.584  22.836   0.463 -0.2199 -0.0490  0.0325
94052W        W36964  13.466  22.942   1.483  0.1197  0.0422  0.2625
94053W        W36965  11.838  23.690   0.334 -0.1765 -0.0686  0.3846
94054W        W36966  13.857  21.132   2.873 -0.3218  0.3831 -0.1501
94055W        W36967  12.472  25.042  29.323 -0.0136 -0.1383  0.0637
94056W        W36968  14.539  24.979   2.459  0.2725  0.3832 -0.1311
94057W        W36969  13.539  25.231   0.843 -0.0984  0.0784 -0.3093
94058W        W36970  12.664  22.381   1.726 -0.0983 -0.1296  0.1095
94059W        W36971  12.741  22.026  31.245 -0.0429  0.0686  0.2476
94060W        W36972  12.243  24.668   1.200  0.1827  0.1204  0.0866
94061W        W36973  11.338  24.090   2.085  0.0017 -0.0060  0.1536
94062W        W36974  14.077  21.997   0.497 -0.0438  0.0022 -0.4410
94063W        W36975  14.650  24.706   1.437  0.0225  0.1104 -0.0288
94064W        W36976  13.332  23.350   0.116 -0.0813 -0.1946 -0.0273
94065W        W36977  12.581  24.696   2.040  0.0873 -0.1250 -0.1503
94066W        W36978  14.344  21.139   2.078  0.1005 -0.0135 -0.2134
94067W        W36979  15.087  22.456   1.429  0.2132 -0.0928  0.1291
94068W        W36980  13.555  22.625   1.113 -0.1982 -0.0192 -0.1345
94069W        W36981  11.626  22.143   1.255  0.0330 -0.0831 -0.0014
94070W        W36982  12.740  25.691   1.001 -0.2604  0.0728  0.1269
94071W        W36983  11.530  25.704   0.244 -0.2100 -0.0733 -0.0538
94072W        W36984  12.840  22.758   1.448  0.0091 -0.6204 -0.0935
94073W        W36985  12.562  24.692  31.626 -0.1524 -0.0222 -0.1001
94074W        W36986  13.688  21.585   1.491  0.2481  0.0948  0.1153
94075W        W36987  11.344  22.617   3.359  0.0762 -0.2031  0.1597
94076W        W36988  14.346  23.197   2.256  0.2435  0.3777 -0.0477
94077W        W36989  12.728  22.842  31.533  0.0315  0.0664 -0.0918
94078W        W36990  12.994  24.646   2.381 -0.2987  0.1329  0.0342
94079W        W36991  13.350  23.503  31.428 -0.2839  0.0105 -0.0245
94080W        W36992  14.476  21.973  30.810 -0.1750  0.1393 -0.2221
94081W        W36993  12.814  24.144   3.321  0.1117 -0.0888  0.2463
94082W        W36994  14.774  24.147   0.041  0.0167  0.1097 -0.1585
94083W        W36995  13.904  22.285   0.076  0.1094  0.2022  0.2664
94084W        W36996  13.391  21.748  30.430 -0.0056  0.2565  0.2120
94085W        W36997  11.106  24.726   2.848 -0.3594  0.0278 -0.3373
94086W        W36998  13.233  24.796   1.087  0.0702  0.0637 -0.1441
94087W        W36999  11.784  25.286   2.675 -0.1493 -0.0952 -0.1016
94088W        W37000  13.441  22.545  31.629 -0.1910 -0.1209 -0.2539
94089W        W37001  14.486  24.678  31.761 -0.1519 -0.1254  0.1064
94090W        W37002  11.854  24.065   2.169 -0.0200 -0.0954 -0.0345
94091W        W37003  13.396  24.812   1.964  0.1311 -0.0186  0.0509
94092W        W37004  12.705  24.965   0.192 -0.0460 -0.1935  0.2659
94093W        W37005  12.927  23.170   2.467  0.2377  0.1845  0.1257
94094W        W37006  13.632  22.969  31.338 -0.2090 -0.0202  0.2363
94095W        W37007  13.306  21.610   0.208  0.1585 -0.1195 -0.3180
94096W        W37008  10.368  26.169  30.581 -0.0615  0.0636 -0.1690
94097W        W37009  12.454  21.560   3.447 -0.2396  0.1714 -0.2195
94098W        W37010  12.884  21.450   1.434  0.1440 -0.0503 -0.0331
94099W        W37011  13.773  22.552   1.532  0.1552 -0.1768  0.1506
94100W        W37012  15.335  23.263   3.963 -0.0714  0.1685  0.0948
94101W        W37013  12.752  22.340   0.087 -0.0293 -0.0807  0.2471
94102W        W37014  13.957  24.494   2.065 -0.1121 -0.0852  0.2749
94103W        W37015  12.413  24.244   1.108 -0.0111  0.1234 -0.3630
94104W        W37016  13.989  21.298   2.405  0.0623  0.2343 -0.0427
94105W        W37017  12.842  23.628   1.735 -0.3264  0.0771  0.0469
94106W        W37018  11.294  25.377   2.349  0.0416  0.3097  0.3349
94107W        W37019  13.620  25.632   3.057  0.2877  0.0598 -0.2352
94108W        W37020  13.779  23.741   1.864 -0.2462 -0.0863 -0.2491
94109W        W37021  13.927  23.336   3.225  0.1339  0.0811  0.0535
94110W        W37022  13.559  22.057   0.363 -0.2831 -0.1130 -0.1147
94111W        W37023  12.235  25.211   0.391  0.3191 -0.0284  0.0979
94112W        W37024  11.684  23.872   0.750 -0.2716  0.1291 -0.1436
94113W        W37025  12.807  22.144   0.866 -0.2547 -0.0293 -0.4334
94114W        W37026  13.880  24.129   1.218  0.1244 -0.1308  0.1091
94115W        W37027  11.776  25.450  31.725  0.1157  0.3922 -0.1600
94116W        W37028  13.478  24.562   2.468 -0.0248 -0.0751 -0.2172
94117W        W37029  13.063  23.825   1.336 -0.1507 -0.0217  0.2381
94118W        W37030  14.817  22.853   1.637  0.0435 -0.3042 -0.0443
94119W        W37031  11.914  24.558   2.203  0.2809 -0.1844 -0.3947
94120W        W37032  12.834  23.270   0.108 -0.0426 -0.0435 -0.0156
94121W        W37033  11.456  23.509   0.088  0.2996 -0.3583  0.1176
94122W        W37034  14.930  22.445   0.665 -0.1744  0.0482  0.4417
94123W        W37035  13.631  24.644  31.116 -0.2029  0.0738 -0.1305
94124W        W37036  12.252  23.041   1.205 -0.0682 -0.1331 -0.0512
94125W        W37037  14.417  21.915   1.181  0.0977  0.3850 -0.0371
94126W        W37038  11.118  24.813   3.350  0.0310 -0.1133  0.2284
94127W        W37039  15.314  22.887   2.840 -0.1348 -0.0341  0.2835
94128W        W37040  13.024  21.342   0.639 -0.3046 -0.1152  0.0416
94129W        W37041  14.579  23.688   3.568 -0.2578  0.1168  0.0168
94130W        W37042  12.617  22.257   2.271  0.0572 -0.2791 -0.1823
94131W        W37043  10.598  22.412   0.598 -0.2985 -0.1937  0.1778
94132W        W37044  14.248  22.808   2.583 -0.0970 -0.4363  0.0818
94133W        W37045  12.142  22.643   0.097  0.1272 -0.3765 -0.1470
94134W        W37046  10.707  23.783   1.414 -0.0665  0.3819  0.4309
94135W        W37047  12.656  25.981   0.258  0.5407 -0.2246 -0.2517
94136W        W37048  12.647  22.987   0.956 -0.0534 -0.1244 -0.2255
94137W        W37049  13.745  24.616   1.136  0.2045 -0.0646 -0.0209
94138W        W37050  12.197  22.802   1.686 -0.2154  0.2250 -0.0760
94139W        W37051  14.233  24.548   2.594  0.0339 -0.3063  0.2250
94140W        W37052  13.855  21.439   0.461 -0.1061 -0.2212 -0.0784
94141W        W37053  13.063  22.703   0.941  0.2253  0.0177 -0.0911
94142W        W37054  13.805  22.948   2.392 -0.1110 -0.1983  0.0653
94143W        W37055  14.451  24.236   1.316 -0.1641 -0.0890 -0.2933
94144W        W37056  14.162  23.775   4.914  0.0760 -0.3265 -0.1152
94145W        W37057  11.151  23.726   2.953  0.1893  0.0592 -0.0397
94146W        W37058  13.117  21.923   1.752  0.1584 -0.0543 -0.1388
94147W        W37059  15.344  24.396   0.667 -0.1215  0.1339  0.1392
94148W        W37060  14.056  23.566   3.658 -0.3796  0.1408  0.2159
94149W        W37061  12.999  23.361   0.746  0.1032 -0.1033  0.3641
94150W        W37062  10.450  23.056   3.262  0.2632 -0.1139  0.1003
94151W        W37063  13.747  21.612  30.685  0.0356 -0.3056 -0.2480
94152W        W37064  14.090  22.068   1.569  0.2055 -0.0363  0.2186
94153W        W37065  11.806  25.053   1.985 -0.4229 -0.1274 -0.2483
94154W        W37066  13.100  22.920   0.473 -0.0810  0.0549  0.1899
94155W        W37067  11.811  23.748   1.767 -0.0933  0.0736 -0.3591
94156W        W37068  13.905  21.446  31.320 -0.4152 -0.2275  0.3318
94157W        W37069  13.865  23.476  31.465  0.2454 -0.0556 -0.0273
94158W        W37070  13.882  23.389   1.483 -0.2423  0.1047  0.1923
94159W        W37071  15.228  22.108   1.808 -0.2351 -0.3546 -0.0631
94160W        W37072  14.483  24.212  31.552 -0.0076 -0.0934 -0.1013
94161W        W37073  13.943  22.213   2.889  0.0091  0.1474 -0.1777
94162W        W37074  13.940  22.394   2.319  0.0635 -0.0249 -0.0067
94163W        W37075  13.856  25.893   1.521 -0.0774  0.0004  0.0845
94164W        W37076  12.336  23.076   3.020 -0.2817 -0.0651  0.1360
94165W        W37077  13.066  25.354   3.058  0.0179 -0.1586 -0.1916
94166W        W37078  10.593  23.024   4.117  0.4040 -0.0434  0.2032
94167W        W37079  13.764  20.944   1.337 -0.3192 -0.1806 -0.1091
94168W        W37080  13.597  22.788   0.624 -0.0281  0.1823 -0.1376
94169W        W37081  13.165  24.137   2.417  0.0547  0.2840 -0.0167
94170W        W37082  14.082  23.651   0.432  0.0987  0.2490  0.0446
94171W        W37083  13.669  25.453   0.353 -0.0414  0.1541  0.0919
94172W        W37084  13.073  21.967   0.461  0.1523 -0.0677 -0.2967
94173W        W37085  11.432  23.999   3.512  0.0976  0.1064  0.2666
94174W        W37086  14.644  23.686  31.806  0.0231  0.0572  0.0873
94175W        W37087  13.111  24.946   0.542  0.2192 -0.1030  0.0605
94176W        W37088  13.513  24.460   0.223 -0.3960  0.1898 -0.0260
94177W        W37089  14.175  22.963   3.030 -0.0019 -0.3188  0.1892
94178W        W37090  13.584  25.600   1.251 -0.3552 -0.1859  0.0803
94179W        W37091  13.428  20.800   1.037 -0.0821  0.2346 -0.3067
94180W        W37092  14.429  22.364   2.899 -0.0129 -0.2217 -0.0043
94181W        W37093  14.242  23.739   3.180 -0.0896 -0.1333 -0.1756
94182W        W37094  13.403  23.925   2.890 -0.1338 -0.0592  0.1206
94183W        W37095  12.721  22.454   3.680 -0.0651  0.1221 -0.3418
94184W        W37096  14.588  25.620   3.121  0.1682  0.3129 -0.1016
94185W        W37097  15.211  21.376  31.741  0.1398  0.2146  0.2402
94186W        W37098  13.566  20.353   1.988  0.2994  0.0083 -0.0482
94187W        W37099  15.151  20.487   1.354  0.4451 -0.2158  0.0614
94188W        W37100  15.391  21.823  30.475 -0.0407 -0.1734  0.2198
94189W        W37101  12.050  22.443   2.096  0.1233  0.2663  0.0338
94190W        W37102  14.702  23.064   2.686 -0.0508  0.2530  0.2809
94191W        W37103  11.943  21.744  31.086 -0.2032  0.1999 -0.2619
94192W        W37104  14.957  22.449   2.826 -0.0731 -0.1409 -0.2872
94193W        W37105  12.880  25.740  31.262 -0.1575  0.2176 -0.1264
94194W        W37106  13.624  25.407   1.711  0.0323 -0.0235  0.1881
94195W        W37107  13.837  23.252   0.228  0.1764  0.2454  0.4016
94196W        W37108  12.533  22.808   2.116  0.1486 -0.0245  0.1332
94197W        W37109  13.145  24.906   2.766 -0.0881 -0.4259 -0.1486
94198W        W37110  12.727  23.706   0.497 -0.1123  0.1576  0.2341
94199W        W37111  14.871  22.096  30.535 -0.0352 -0.0368 -0.2557
94200W        W37112  13.404  25.210   2.289  0.2168  0.1841 -0.1472
94201W        W37113  14.728  24.106   2.674 -0.1799  0.1382 -0.0563
94202W        W37114  13.291  23.349  29.696 -0.0869  0.1083  0.0898
94203W        W37115  14.108  22.375   3.322  0.3136  0.0185 -0.0782
94204W        W37116  11.097  24.648   0.823  0.0723 -0.0540 -0.4010
94205W        W37117  13.613  21.497   2.596 -0.0695  0.0593 -0.0042
94206W        W37118  11.440  25.653   2.801  0.0497  0.0869  0.0758
94207W        W37119   9.842  22.818   3.512 -0.2247  0.1629  0.2110
94208W        W37120  12.786  26.062   1.385  0.0857  0.0615  0.0532
94209W        W37121  13.803  21.875   2.335  0.0160  0.0872 -0.2591
94210W        W37122  14.716  22.264   1.709 -0.0875 -0.0378  0.0109
94211W        W37123  12.876  23.317   1.337 -0.0232 -0.0972  0.0440
94212W        W37124  13.437  22.240   2.569 -0.0615  0.4965  0.0267
94213W        W37125  12.869  23.878   2.802 -0.0249  0.0376  0.0275
94214W        W37126  12.220  22.993   2.559  0.0626  0.2986  0.1906
94215W        W37127  14.086  25.394   2.604 -0.0526  0.2405 -0.2120
94216W        W37128  14.496  24.831   0.874  0.3228 -0.1901 -0.0631
94217W        W37129  12.333  23.703   1.851  0.0591  0.0193  0.2115
94218W        W37130  12.276  23.531   4.364  0.1516 -0.0621 -0.0826
94219W        W37131  13.482  22.840   2.025 -0.0432  0.1270 -0.0302
94220W        W37132  11.368  25.470   1.519 -0.2644  0.1226 -0.0811
94221W        W37133  13.054  21.315  31.750  0.1580 -0.2178 -0.0674
94222W        W37134  12.882  23.372  31.474  0.3039  0.0370 -0.0208
94223W        W37135  11.610  23.824   2.690  0.4739 -0.0785  0.4480
94224W        W37136  11.688  23.213   2.468 -0.4787 -0.0249 -0.1317
94225W        W37137  12.097  24.824   0.003 -0.2913  0.1430  0.1739
94226W        W37138  13.741  25.950  31.550 -0.0436  0.2134 -0.3466
94227W        W37139  13.693  25.478  31.819  0.1003 -0.0600 -0.0344
94228W        W37140  13.372  26.487   3.103 -0.1116 -0.2105  0.1964
94229W        W37141  11.514  21.150  30.680 -0.0533  0.1419 -0.2268
94230W        W37142  12.666  24.349   1.600 -0.0457  0.0437  0.1283
94231W        W37143  11.356  26.104  31.313  0.0726 -0.1177 -0.2638
94232W        W37144  13.219  25.475  31.556 -0.0578  0.0751  0.0653
94233W        W37145  11.262  24.902   0.383 -0.1804 -0.0967 -0.1648
94234W        W37146  14.451  23.281   3.868  0.1311 -0.2035  0.2121
94235W        W37147  14.749  20.970  30.044  0.1996 -0.4721  0.0614
94236W        W37148  14.099  22.857   1.287 -0.1008  0.2221  0.0305
94237W        W37149  15.081  22.782   1.014 -0.0876 -0.3175 -0.3177
94238W        W37150  13.453  24.795   3.617  0.4211 -0.1460 -0.0551
94239W        W37151  14.225  23.409   2.740 -0.1217 -0.5020 -0.0928
94240W        W37152  12.627  22.482  31.165 -0.0238 -0.2799 -0.0250
94241W        W37153  12.744  23.423   3.165 -0.1138 -0.0891 -0.1206
94242W        W37154  14.848  21.964   2.089  0.2157  0.0044  0.3019
94243W        W37155  10.432  24.241   2.374  0.2205 -0.1062 -0.0691
94244W        W37156  14.081  25.491  31.450 -0.0280 -0.2767 -0.0954
94245W        W37157  11.463  22.445   0.280 -0.1449 -0.0101  0.1238
94246W        W37158  12.781  24.058   1.998 -0.1352 -0.2192  0.2157
94247W        W37159  13.705  22.158   1.919  0.0657 -0.0732  0.1641
94248W        W37160  13.257  22.047  31.329  0.1642 -0.0219  0.3840
94249W        W37161  14.123  22.319   1.126  0.0684 -0.1114 -0.0370
94250W        W37162  13.055  25.054  31.328 -0.2401 -0.2694  0.0941
94251W        W37163  14.105  24.982   1.291 -0.0793 -0.0567 -0.1536
94252W        W37164  12.368  25.329   0.886 -0.0480  0.3456  0.1410
94253W        W37165  11.982  20.493  31.444  0.4432  0.0083 -0.3275
94254W        W37166  14.626  22.993   0.950  0.1390 -0.0031  0.1937
94255W        W37167  13.356  23.346   1.194 -0.0803 -0.0902 -0.0256
94256W        W37168  14.633  21.374   0.070  0.2697  0.1766 -0.1373
94257W        W37169  13.286  23.766   0.895  0.1634 -0.1582  0.1484
94258W        W37170  15.181  22.054   0.552 -0.1085 -0.0811  0.2210
94259W        W37171  12.904  24.344   1.168  0.2318 -0.3273 -0.0524
94260W        W37172  13.308  22.416   1.688 -0.3262 -0.2956  0.1040
94261W        W37173  13.163  23.083  31.143 -0.0622 -0.2408 -0.4560
94262W        W37174  13.700  22.853   3.247  0.1560  0.2283  0.1140
94263W        W37175  13.889  21.562  29.919  0.0383  0.3931  0.0108
94264W        W37176  14.095  25.118   3.865  0.2253 -0.0894  0.3827
94265W        W37177  12.248  21.944   0.807  0.0867  0.1528  0.0586
94266W        W37178  13.810  20.837   0.190  0.3651  0.0664  0.0743
94267W        W37179  12.487  23.473   1.042 -0.2895  0.1856 -0.2550
94268W        W37180  12.742  21.924   1.358 -0.2889  0.1342 -0.1122
94269W        W37181  15.286  25.120   2.006 -0.0804  0.1355  0.0464
94270W        W37182  11.509  22.397   2.038  0.4148  0.1531 -0.3552
94271W        W37183  13.871  24.216  31.918  0.1661  0.1815 -0.1867
94272W        W37184  14.210  22.714   2.088  0.0399 -0.1502 -0.0094
94273W        W37185  11.989  25.055  30.659  0.1661  0.0158 -0.0987
94274W        W37186  13.602  23.779   0.235 -0.0884 -0.0006  0.1651
94275W        W37187  12.673  24.894   1.568 -0.2670  0.0597  0.0555
94276W        W37188  12.430  21.545   1.711 -0.0657 -0.1990 -0.0389
94277W        W37189  14.294  26.250   3.142 -0.1072 -0.0752  0.1281
94278W        W37190  14.603  24.154   3.201 -0.0908  0.0519  0.2722
94279W        W37191  14.119  21.406  31.899 -0.0670  0.1575 -0.2365
94280W        W37192  12.722  23.875   0.944 -0.0316  0.0566 -0.1242
94281W        W37193  11.879  25.238   1.098  0.0141  0.4118 -0.0523
94282W        W37194  15.112  23.017   0.470  0.1090  0.3972  0.3075
94283W        W37195  14.668  22.773   3.103 -0.2161  0.0355  0.1919
94284W        W37196  12.420  24.515   0.206 -0.0367 -0.0517 -0.0017
94285W        W37197  14.756  21.958   2.622 -0.1582 -0.1699  0.0522
94286W        W37198  13.674  24.075   0.693  0.2520  0.0020  0.2662
94287W        W37199  13.943  24.985   3.109 -0.0403  0.3566 -0.3917
94288W        W37200  12.755  21.588   0.139  0.2763 -0.0400 -0.3968
94289W        W37201  12.475  23.840   2.328 -0.2036  0.1571 -0.0298
94290W        W37202  12.983  24.487   0.374  0.0656 -0.0439  0.1790
94291W        W37203  13.247  25.330   0.106  0.0043 -0.0028 -0.0931
94292W        W37204  14.023  25.377   1.065 -0.0854  0.0333 -0.0073
94293W        W37205  14.302  23.721  31.454 -0.0278 -0.1686 -0.1307
94294W        W37206  14.115  24.364   0.877 -0.1944 -0.5118 -0.1223
94295W        W37207  11.938  22.216   0.322 -0.0252 -0.2784 -0.1468
94296W        W37208  14.668  21.459   1.272 -0.3054  0.0925  0.0570
94297W        W37209  14.901  22.072   0.142  0.3738  0.3629  0.0628
94298W        W37210  10.937  23.061   2.035 -0.0065  0.0122 -0.0573
94299W        W37211   9.633  23.993  31.940 -0.0328  0.4476 -0.2777
94300W        W37212  13.088  24.311  30.995  0.3850  0.0686  0.1145
94301W        W37213  13.153  24.393   2.863  0.1677  0.3985 -0.1370
94302W        W37214  13.008  22.243   3.088  0.5725  0.2056 -0.2492
94303W        W37215  11.974  22.775   3.917  0.1867 -0.4358 -0.0841
94304W        W37216  11.130  24.406   0.083  0.3716  0.0193 -0.1087
94305W        W37217  12.442  23.313   2.170 -0.1228  0.0569 -0.1108
94306W        W37218  13.455  25.723   0.756 -0.1420 -0.1704 -0.1970
94307W        W37219  13.452  21.123   2.310 -0.1975 -0.2851 -0.2629
94308W        W37220  12.270  22.079  31.969 -0.1631 -0.0559 -0.0490
94309W        W37221  13.706  24.908   0.196  0.1345  0.0812 -0.1362
94310W        W37222  13.082  25.609   1.522  0.3191  0.1901 -0.0037
94311W        W37223  14.477  22.273  31.800 -0.1494 -0.0687 -0.2482
94312W        W37224  13.416  24.977   4.496  0.0823  0.1752 -0.1333
94313W        W37225  11.898  23.375  31.886  0.1628 -0.1075  0.0222
94314W        W37226  14.159  22.940   3.524 -0.1164  0.3354  0.0695
94315W        W37227  11.750  21.714   2.708 -0.1277  0.0025 -0.0342
94316W        W37228  11.186  21.441   0.329  0.1466 -0.0379 -0.2509
94317W        W37229  13.041  22.310   1.279 -0.2157  0.0748  0.2148
94318W        W37230  13.098  26.418  30.282 -0.1110  0.0540 -0.1455
94319W        W37231  14.784  26.689  31.004 -0.3309 -0.0010 -0.2107
94320W        W37232  13.387  24.205   1.299  0.1432  0.2628  0.0764
94321W        W37233  11.504  24.921   2.371  0.0321  0.1063  0.1218
94322W        W37234  12.132  22.595   3.029 -0.1483  0.1879  0.3632
94323W        W37235  13.497  24.703  31.743 -0.0210 -0.3493 -0.1391
94324W        W37236  12.018  24.236   3.179 -0.1593  0.4703  0.0016
94325W        W37237  13.687  23.761  30.621 -0.0217  0.0680 -0.1954
94326W        W37238  15.029  21.601   2.417  0.0186  0.3881 -0.0352
94327W        W37239  14.235  22.685   0.820 -0.0669 -0.0095 -0.2205
94328W        W37240  12.388  23.054   4.403 -0.1326  0.2134 -0.3315
94329W        W37241  12.297  23.390   3.463 -0.0207  0.0395  0.0071
94330W        W37242  13.776  23.980   3.187 -0.0734  0.0156  0.0988
94331W        W37243  12.378  21.547   0.443 -0.4732  0.0741  0.0200
94332W        W37244  14.297  21.546   0.791  0.0421 -0.2505  0.1678
94333W        W37245  12.885  23.565  30.491 -0.0976 -0.1330  0.0949
94334W        W37246  11.809  21.973   2.256 -0.1310  0.0485 -0.1592
94335W        W37247  14.040  22.553  31.641  0.1770  0.2977  0.3120
94336W        W37248  13.853  23.104   1.887  0.0848 -0.0922  0.1632
94337W        W37249  13.828  23.609   0.991 -0.0683 -0.3569  0.0958
94338W        W37250  14.069  24.372   3.151 -0.0063  0.0262  0.2086
94339W        W37251  14.066  22.791   0.309  0.2078  0.1722 -0.3542
94340W        W37252  15.478  22.808   0.083 -0.1445 -0.3586 -0.2323
94341W        W37253  15.193  24.285   3.288  0.1460  0.1419 -0.5089
94342W        W37254  15.314  24.919   4.131  0.0534  0.0766 -0.1809
94343W        W37255  12.871  26.317   3.440 -0.1206  0.1243  0.0964
94344W        W37256  15.650  23.762   0.016  0.1927  0.0855 -0.1298
94345W        W37257  12.767  21.611   0.988 -0.1592  0.3960 -0.0576
94346W        W37258  13.772  23.099   1.037 -0.0239  0.0413 -0.2598
94347W        W37259  13.083  23.962   0.266 -0.2930 -0.1947 -0.1231
94348W        W37260  13.261  22.440   0.444  0.1182 -0.1732  0.1110
94349W        W37261  12.914  23.196   1.961  0.0378  0.0510  0.1457
94350W        W37262  14.928  22.638  30.648 -0.1553  0.1113  0.2056
94351W        W37263  12.100  25.492   2.130 -0.1010 -0.0221 -0.0511
94352W        W37264  14.110  24.104   1.755 -0.0737 -0.1992 -0.0416
94353W        W37265  11.490  23.178   5.964 -0.0904 -0.3337 -0.3559
94354W        W37266  12.134  22.620   4.344 -0.0141  0.0344 -0.2780
94355W        W37267  15.622  22.090   3.584  0.2041  0.2599  0.0096
94356W        W37268  14.761  23.925   4.170  0.0888  0.0789  0.0699
94357W        W37269  10.483  23.067   5.824  0.3912  0.0180  0.0033
94358W        W37270  12.652  25.052   3.098  0.0439  0.0113 -0.2152
94359W        W37271  11.939  22.844   5.330 -0.0149  0.1918  0.2006
94360W        W37272  13.535  24.708   5.849 -0.1157 -0.1445  0.0141
94361W        W37273  14.548  24.854   6.816  0.3779  0.0849  0.0530
94362W        W37274  14.706  22.795   2.147  0.3029 -0.0655 -0.1594
94363W        W37275  14.040  23.988   6.913  0.2423  0.0751 -0.0805
94364W        W37276  12.087  24.375   5.785 -0.3180  0.0316 -0.0170
94365W        W37277  13.288  22.935   5.143 -0.0643 -0.0168  0.3034
94366W        W37278  10.855  21.484   4.228  0.2440 -0.1394  0.2227
94367W        W37279  12.977  23.348   5.708  0.1250 -0.0299 -0.1594
94368W        W37280  11.813  24.134   4.846 -0.3026  0.1413 -0.0477
94369W        W37281  12.400  22.792   6.136  0.2587  0.0774 -0.0067
94370W        W37282  12.734  22.635   4.482 -0.2663 -0.0962 -0.2209
94371W        W37283  13.492  25.518   5.427  0.3704 -0.1322  0.1524
94372W        W37284  11.511  21.637   6.778 -0.2610  0.1659  0.1795
94373W        W37285  12.467  22.684   6.622  0.0477 -0.2926 -0.0110
94374W        W37286  12.053  24.210   3.727 -0.0867  0.2608 -0.0230
94375W        W37287  12.312  23.230   3.943 -0.2452  0.4401 -0.3307
94376W        W37288  10.712  23.414   5.058 -0.1518 -0.1120 -0.0616
94377W        W37289  11.705  24.006   6.493 -0.1243  0.1454  0.0213
94378W        W37290  13.185  24.509   5.503  0.1609 -0.0168 -0.0092
94379W        W37291  11.687  24.835   4.611  0.0212 -0.0305 -0.1263
94380W        W37292  12.682  25.103   4.058 -0.1345  0.1178 -0.4640
94381W        W37293  13.620  23.121   6.744 -0.1952 -0.1994 -0.0720
94382W        W37294  11.698  23.743   5.164 -0.0569 -0.0402  0.1631
94383W        W37295  11.131  25.411   4.800 -0.1139  0.2201 -0.1712
94384W        W37296  12.791  25.730   4.813 -0.1456 -0.2909  0.0040
94385W        W37297  14.117  24.755   5.502  0.1889 -0.1028 -0.0737
94386W        W37298  12.066  26.318   6.211  0.2611  0.2310 -0.1610
94387W        W37299  12.587  24.332   6.707 -0.0186 -0.0422 -0.1500
94388W        W37300  10.909  23.281   4.532  0.0214 -0.1477 -0.2435
94389W        W37301  12.216  24.028   6.542  0.0333  0.1487 -0.0883
94390W        W37302  11.403  25.335   6.271 -0.0509  0.2249  0.0561
94391W        W37303  13.010  21.997   4.931  0.1597 -0.1432 -0.0862
94392W        W37304  12.438  22.838   5.096  0.0256 -0.0717  0.0201
94393W        W37305  12.565  24.723   3.498  0.0341  0.0593 -0.1794
94394W        W37306  12.362  24.538   3.921  0.0100  0.0373 -0.1732
94395W        W37307  12.328  25.222   6.113 -0.1712  0.0061  0.2566
94396W        W37308  12.918  23.425   5.156  0.1690  0.3858  0.1911
94397W        W37309  11.759  22.258   7.735 -0.3228 -0.2709  0.2866
94398W        W37310  11.166  24.233   3.979  0.2669  0.0130 -0.1224
94399W        W37311  12.902  24.159   5.282  0.1616  0.3737  0.1088
94400W        W37312  12.562  22.096   3.338 -0.4363 -0.0100 -0.0540
94401W        W37313  14.592  22.338   3.360 -0.1412  0.1725 -0.0185
94402W        W37314  12.917  21.528   5.206  0.0477 -0.1351 -0.2192
94403W        W37315  11.243  24.685   5.321  0.1379 -0.3202  0.0888
94404W        W37316  11.997  21.294   6.141 -0.0618 -0.4927  0.1266
94405W        W37317  13.854  24.308   5.759  0.1893 -0.2045 -0.0951
94406W        W37318  12.484  23.969   3.637 -0.2068  0.0358  0.1100
94407W        W37319  13.121  23.116   6.174  0.2056 -0.1451  0.4706
94408W        W37320  11.656  24.575   5.567 -0.1632  0.1086 -0.0230
94409W        W37321  11.887  22.258   4.646  0.0546 -0.0074  0.1110
94410W        W37322  14.254  24.799   4.247 -0.0774  0.2080 -0.3039
94411W        W37323  13.996  25.502   5.202 -0.0813 -0.5177  0.4511
94412W        W37324  13.484  25.498   4.306 -0.1368  0.1314  0.0932
94413W        W37325  11.413  22.908   5.436 -0.0930  0.1257  0.2080
94414W        W37326  11.488  24.288   7.027  0.0837 -0.1251 -0.0884
94415W        W37327  11.639  23.065   6.727 -0.2071 -0.3502  0.2568
94416W        W37328  12.545  22.514   1.126 -0.1065  0.0526  0.0466
94417W        W37329  13.027  24.405   8.025  0.2436  0.2507 -0.3357
94418W        W37330  10.934  24.153   7.306 -0.0713 -0.2214  0.0553
94419W        W37331  14.567  22.376   6.121  0.1741  0.4063 -0.1726
94420W        W37332  12.815  22.930   5.352 -0.1615  0.0037  0.1556
94421W        W37333  13.787  25.168   5.572  0.0591  0.0980 -0.4440
94422W        W37334  13.400  24.369   3.336  0.0129  0.3591 -0.1237
94423W        W37335  12.495  21.344   6.219  0.2790 -0.0087 -0.0097
94424W        W37336  12.854  22.764   6.330 -0.2145  0.0397 -0.3052
94425W        W37337  11.589  23.451   3.017 -0.3421  0.0935 -0.1044
94426W        W37338  12.763  23.017   3.496 -0.0597  0.0842 -0.1818
94427W        W37339  13.542  26.078   7.307  0.0940 -0.2155  0.1309
94428W        W37340  13.888  25.124   4.342 -0.1044 -0.0169  0.0168
94429W        W37341  11.917  25.647   5.121 -0.1820  0.0770  0.0280
94430W        W37342  14.426  23.243   7.218  0.1256 -0.0236 -0.2045
94431W        W37343  12.301  24.776   6.661 -0.2744  0.0443  0.0907
94432W        W37344  11.519  24.934   3.668 -0.1542  0.1683  0.2230
94433W        W37345  10.862  23.981   5.779  0.2604  0.2367 -0.1033
94434W        W37346  11.121  23.226   5.236  0.0250  0.1056 -0.0813
94435W        W37347   9.839  22.545   6.748  0.0920 -0.1775 -0.0586
94436W        W37348  13.030  24.441   6.214 -0.3316  0.0934 -0.3996
94437W        W37349  15.646  21.802   4.012  0.1831 -0.1398  0.0445
94438W        W37350  10.207  22.443   6.231  0.0104  0.0340 -0.4110
94439W        W37351  14.055  23.261   5.187  0.1587  0.0404  0.0764
94440W        W37352  12.305  24.186   4.902  0.0695 -0.0926 -0.1354
94441W        W37353  14.312  25.285   5.600  0.1113 -0.1866 -0.0692
94442W        W37354  15.057  21.134   2.747  0.1888 -0.0148  0.4102
94443W        W37355  13.576  24.670   2.978 -0.0074 -0.2727 -0.0985
94444W        W37356  11.612  24.179   6.022  0.0164  0.0180 -0.1239
94445W        W37357  12.585  24.797   4.819  0.1461  0.2664 -0.1381
94446W        W37358  11.688  22.405   5.479 -0.2390 -0.5335 -0.3175
94447W        W37359  10.991  22.692   5.199 -0.1877 -0.2653  0.0900
94448W        W37360  14.473  22.982   6.069 -0.3324  0.0102  0.3994
94449W        W37361  11.491  21.407   3.070  0.0034  0.2622 -0.0938
94450W        W37362  14.271  22.209   5.336 -0.0538 -0.0053 -0.1642
94451W        W37363  12.507  21.910   3.822  0.2326 -0.2045  0.1384
94452W        W37364  11.230  23.827   6.041 -0.2341  0.0081 -0.1958
94453W        W37365  13.950  20.775   8.634  0.2306  0.0968  0.2320
94454W        W37366  13.385  25.516   3.524 -0.3043  0.2853  0.1489
94455W        W37367  14.250  24.583   8.324 -0.1057 -0.0849  0.1751
94456W        W37368  13.521  25.268   6.580 -0.2601 -0.0127  0.3157
94457W        W37369  12.768  22.441   5.576 -0.2724 -0.0042 -0.0301
94458W        W37370  13.220  22.648   3.458 -0.0467  0.0615 -0.3679
94459W        W37371  12.538  26.238   5.068  0.4091 -0.1739 -0.1999
94460W        W37372  13.230  23.366   4.817 -0.1040 -0.0756 -0.0939
94461W        W37373  12.214  21.951   4.519  0.0298 -0.0866 -0.3816
94462W        W37374  13.923  26.070   5.994  0.2473  0.1730 -0.0220
94463W        W37375  12.620  23.584   3.995  0.2230 -0.2892  0.0789
94464W        W37376  12.395  23.589   6.309  0.1276 -0.1816 -0.2163
94465W        W37377  13.334  21.034   7.950  0.0909  0.1506 -0.1256
94466W        W37378  14.096  23.467   5.999  0.2642  0.0162 -0.1110
94467W        W37379  13.444  24.337   4.870  0.0192  0.2656  0.0605
94468W        W37380  11.515  22.559   3.986  0.1749  0.0587 -0.0832
94469W        W37381  12.653  25.426   5.715  0.2469 -0.3248 -0.1406
94470W        W37382  10.825  24.570   3.758 -0.1012  0.1989 -0.0086
94471W        W37383   9.638  22.963   3.916  0.0895  0.1853 -0.0127
94472W        W37384  11.753  25.205   5.385 -0.2239  0.0923 -0.0863
94473W        W37385  13.530  22.742   6.191  0.2772  0.0852  0.3094
94474W        W37386   9.887  23.191   6.050  0.2157  0.0981 -0.0159
94475W        W37387  13.475  21.957   6.251 -0.3891  0.1407 -0.0755
94476W        W37388  12.010  22.737   4.815 -0.1375 -0.0921 -0.0065
94477W        W37389  12.101  23.973   6.083 -0.2090  0.0885  0.1111
94478W        W37390  13.413  21.260   5.075 -0.2665  0.0740 -0.0808
94479W        W37391  15.208  20.851   3.250 -0.0382  0.2656  0.0639
94480W        W37392  12.817  25.815   6.757 -0.0245  0.0095  0.0359
94481W        W37393  13.533  24.413   4.335  0.0233  0.2493 -0.2680
94482W        W37394  14.065  23.345   4.209  0.2382  0.1231  0.0744
94483W        W37395  13.287  22.729   2.978 -0.0104 -0.1113  0.0191
94484W        W37396  11.163  24.606   7.559 -0.2568  0.2052  0.0204
94485W        W37397  13.942  25.734   3.807 -0.3467 -0.0689  0.0118
94486W        W37398  13.720  23.711   5.591  0.1376  0.3590  0.1046
94487W        W37399  13.468  24.381   3.834 -0.0157  0.0180 -0.2327
94488W        W37400  13.807  24.735   4.654 -0.1535  0.2129  0.0027
94489W        W37401  11.468  24.157   5.204 -0.1319  0.2877  0.1689
94490W        W37402  13.583  23.679   6.637  0.0106 -0.0843 -0.1501
94491W        W37403  13.259  25.753   6.371 -0.2231 -0.2981  0.0847
94492W        W37404  11.217  20.947   5.743 -0.1163 -0.0405  0.1457
94493W        W37405  13.329  22.753   2.458  0.0510  0.1364 -0.1314
94494W        W37406  13.842  22.471   4.393  0.1595  0.2649 -0.1010
94495W        W37407  10.500  25.700   3.590  0.0857 -0.0088 -0.0736
94496W        W37408  12.729  22.464   6.949 -0.2422  0.0749  0.1422
94497W        W37409  12.920  21.998   5.462 -0.0613 -0.1372 -0.0292
94498W        W37410  11.566  20.984   5.333  0.0960  0.0061 -0.3825
94499W        W37411  14.150  23.932   5.894 -0.0561 -0.1838  0.5614
94500W        W37412  14.988  23.179   3.590  0.1787 -0.1695  0.0280
94501W        W37413  13.163  23.749   5.501 -0.2687  0.1458 -0.1239
94502W        W37414  12.849  23.011   2.912 -0.0602  0.0656  0.0746
94503W        W37415  11.683  22.103   6.491  0.3215 -0.3868 -0.0592
94504W        W37416  11.425  23.953   7.388  0.0920  0.3915 -0.2507
94505W        W37417   9.217  25.325   6.731  0.0811  0.0676 -0.0827
94506W        W37418  13.606  24.790   6.769 -0.2192  0.0970 -0.3520
94507W        W37419  12.582  24.041   4.105  0.0300  0.2008  0.0365
94508W        W37420  12.491  22.991   7.129 -0.2984 -0.4761 -0.0407
94509W        W37421  13.548  23.156   2.843 -0.1476 -0.0467  0.0186
94510W        W37422  11.282  23.112   3.228 -0.1509 -0.0133  0.1432
94511W        W37423  12.367  24.175   2.849 -0.0597 -0.2613  0.1990
94512W        W37424  12.807  22.855   5.850  0.2987  0.2317 -0.1847
94513W        W37425  12.519  25.231   4.629  0.0221  0.2676 -0.1276
94514W        W37426  13.228  24.807   4.062 -0.1186  0.2215 -0.0701
94515W        W37427  13.361  23.579   5.926 -0.1828  0.1187  0.3028
94516W        W37428  11.353  24.688   4.172  0.1205 -0.1249 -0.3083
94517W        W37429  13.700  21.253   5.547  0.2165 -0.2099  0.2952
94518W        W37430  10.614  24.337   4.814 -0.1896  0.1613  0.1761
94519W        W37431  12.265  22.863   3.497 -0.0630 -0.0893 -0.1371
94520W        W37432  10.233  22.352   4.404 -0.1147 -0.3797 -0.1475
94521W        W37433  13.500  23.508   4.387 -0.0523 -0.0647  0.0917
94522W        W37434  14.700  22.797   3.613  0.0671  0.4214 -0.1180
94523W        W37435  11.227  22.076   6.745  0.0846  0.1698  0.4007
94524W        W37436  12.461  21.680   4.827 -0.0842  0.1627  0.3121
94525W        W37437  11.014  25.418   5.989  0.6741 -0.0056 -0.2556
94526W        W37438  13.590  22.224   4.770 -0.0984 -0.2753 -0.2320
94527W        W37439  14.833  21.977   3.141  0.0527  0.0456  0.1393
94528W        W37440  12.591  24.042   6.079 -0.1228 -0.0528  0.0338
94529W        W37441  12.259  23.110   6.672  0.1667 -0.1737 -0.1205
94530W        W37442  11.349  22.390   4.458  0.0318 -0.2303  0.1254
94531W        W37443  14.379  23.181   5.618 -0.1584 -0.2090  0.1246
94532W        W37444  12.817  23.397   4.451  0.2255  0.3633  0.1805
94533W        W37445  11.655  23.691   4.439  0.0761 -0.2706  0.0085
94534W        W37446  12.900  23.635   6.160  0.2701  0.1104  0.1386
94535W        W37447  12.705  24.598   2.941  0.3703  0.0392 -0.0137
94536W        W37448  12.084  23.556   2.928  0.1501 -0.2397  0.2313
94537W        W37449  12.045  22.812   6.947  0.2260 -0.0413  0.0953
94538W        W37450  14.262  23.249   4.748  0.1166 -0.1825 -0.0240
94539W        W37451  12.892  23.013   4.855  0.3136 -0.1315  0.0695
94540W        W37452  12.358  22.372   4.823  0.1148  0.1524  0.0527
94541W        W37453  13.703  23.703   5.055 -0.1578  0.1082 -0.0838
94542W        W37454  13.056  23.507   6.721 -0.1363 -0.3679 -0.0523
94543W        W37455  11.764  23.399   7.841 -0.0303  0.3327  0.1022
94544W        W37456  11.755  25.113   8.751 -0.0652 -0.1276  0.1798
94545W        W37457  13.185  22.259   4.503  0.3039 -0.0191  0.0724
94546W        W37458  15.033  25.295   3.976 -0.0404 -0.0581 -0.0463
94547W        W37459  13.287  23.355   7.607  0.4325 -0.1692 -0.2690
94548W        W37460  11.452  23.485   3.794 -0.2790 -0.0324  0.1787
94549W        W37461  10.535  23.332   6.550 -0.0518 -0.1906 -0.2063
94550W        W37462  12.275  24.884   4.250  0.1630  0.0273  0.1712
94551W        W37463  12.205  22.103   6.317  0.3857  0.0853  0.0363
94552W        W37464  12.008  24.462   6.348 -0.0270 -0.0455 -0.0141
94553W        W37465  12.096  23.693   3.823 -0.3103  0.3184 -0.1824
94554W        W37466  10.419  24.809   5.599 -0.2283 -0.1573 -0.0570
94555W        W37467  13.942  22.068   3.966  0.2276  0.1554 -0.0570
94556W        W37468  13.462  23.890   3.532 -0.0291 -0.0151 -0.0132
94557W        W37469  14.685  23.053   4.636 -0.1184  0.1037 -0.0702
94558W        W37470  13.020  22.012   6.873  0.4078 -0.0643  0.0536
94559W        W37471  13.048  22.397   4.057  0.2326 -0.5277  0.0394
94560W        W37472  12.626  22.172   6.559  0.2025 -0.1018  0.0333
94561W        W37473  10.953  22.170   5.906 -0.0994 -0.1500  0.0258
94562W        W37474  13.159  25.372   5.967 -0.3655  0.2149  0.1815
94563W        W37475  10.756  22.885   6.405  0.1770 -0.1454  0.2436
94564W        W37476  11.892  25.357   7.827  0.0284  0.1646  0.2282
94565W        W37477  12.547  25.237   6.640 -0.0759 -0.2338  0.2332
94566W        W37478  14.575  23.170   5.132 -0.1490 -0.3016 -0.0071
94567W        W37479  11.809  22.714   3.446 -0.0519  0.1952  0.1789
94568W        W37480  12.665  22.288   6.055 -0.0353 -0.0844  0.4352
94569W        W37481  13.192  24.866   4.994  0.0117 -0.0173 -0.0170
94570W        W37482  13.816  24.731   4.026 -0.0968  0.2329 -0.0791
94571W        W37483  14.548  23.897   5.324  0.1055 -0.0893  0.0099
94572W        W37484  10.958  23.324   6.089  0.0355 -0.2342  0.0409
94573W        W37485  15.107  23.389   4.895  0.0906  0.1420 -0.2100
94574W        W37486  12.821  22.632   2.601 -0.2113  0.2004 -0.0085
94575W        W37487  13.429  25.082   3.219  0.2215  0.0112 -0.2814
94576W        W37488   9.477  20.440   5.701 -0.0109  0.0782 -0.2579
94577W        W37489  14.033  24.534   5.041 -0.0178 -0.2095  0.0039
94578W        W37490  14.524  20.704   4.462  0.3018 -0.0815 -0.1931
94579W        W37491  13.202  22.362   6.359 -0.1311  0.1256  0.0548
94580W        W37492  12.527  23.299   5.921 -0.1775  0.0389 -0.0109
94581W        W37493  12.145  23.668   5.633  0.1019  0.1191 -0.1337
94582W        W37494  10.721  21.821   6.225 -0.0265 -0.1493  0.1280
94583W        W37495  12.518  26.132   6.299 -0.0200  0.0949 -0.2240
94584W        W37496  14.843  23.523   3.956 -0.1330  0.2124 -0.0186
94585W        W37497  14.418  21.372   7.454  0.1301 -0.2053 -0.1302
94586W        W37498  12.914  21.579   4.687 -0.0532  0.0321 -0.3577
94587W        W37499  13.128  23.492   2.819 -0.1294 -0.0119 -0.0499
94588W        W37500  11.124  22.231   5.420 -0.0523  0.1720 -0.3491
94589W        W37501  11.495  22.508   6.741 -0.1649  0.0396  0.0009
94590W        W37502  12.727  21.087   4.390 -0.2610 -0.0029  0.0750
94591W        W37503  13.905  22.361   6.309 -0.0926 -0.2176 -0.3407
94592W        W37504  12.554  25.638   4.306  0.1279  0.0468  0.1159
94593W        W37505  12.970  24.923   5.766  0.0038 -0.0546  0.1365
94594W        W37506  13.835  22.953   3.893 -0.0546  0.3359  0.0481
94595W        W37507  10.997  22.238   4.909  0.2681 -0.0427 -0.0029
94596W        W37508  11.664  25.291   4.836 -0.1274  0.0135  0.1634
94597W        W37509  11.646  22.795   4.411  0.1891  0.0009 -0.2732
94598W        W37510  12.225  24.709   3.143 -0.0946  0.1580 -0.1767
94599W        W37511  12.102  25.754   6.274  0.0965 -0.0765  0.1253
94600W        W37512  13.751  22.579   6.758  0.1869  0.4083 -0.0730
94601W        W37513  14.001  21.574   3.802  0.2729 -0.0030  0.1709
94602W        W37514  14.499  23.612   6.885 -0.0973 -0.0225 -0.2046
94603W        W37515  10.733  23.672   2.748 -0.0821  0.3061 -0.0369
94604W        W37516  14.294  21.794   5.046 -0.1418 -0.0349 -0.1487
94605W        W37517  11.933  24.532   4.189  0.2998 -0.0261 -0.3446
94606W        W37518  11.450  25.142   6.779  0.0249  0.2546  0.2544
94607W        W37519  12.511  23.785   5.114  0.0734 -0.0527  0.2139
94608W        W37520  10.844  21.615   5.694 -0.0088 -0.0560  0.3343
94609W        W37521  13.653  22.107   5.849 -0.0618 -0.3369  0.1348
94610W        W37522  13.226  22.370   5.286 -0.1450  0.2903 -0.1271
94611W        W37523  13.954  24.250   6.356  0.2923  0.0880 -0.0539
94612W        W37524  12.382  22.760   5.606  0.0938 -0.0833  0.2942
94613W        W37525  12.139  22.390   5.869  0.1797  0.0202 -0.1917
94614W        W37526  12.444  25.037   7.051 -0.2403 -0.1859 -0.0789
94615W        W37527  14.479  24.275   4.964 -0.1456 -0.1021 -0.3860
94616W        W37528  12.087  24.110   4.435  0.0291 -0.0913 -0.1535
94617W        W37529  10.579  21.807   6.780 -0.1099  0.2632 -0.2452
94618W        W37530  12.447  24.521   7.895  0.1934 -0.1931 -0.4232
94619W        W37531  13.764  23.279   4.802 -0.2911 -0.0304 -0.1638
94620W        W37532  13.166  23.039   4.362 -0.0497  0.0676  0.0255
94621W        W37533  13.481  23.518   3.176  0.0936 -0.1577  0.0725
94622W        W37534  10.715  24.151   6.766 -0.2247  0.1421  0.1079
94623W        W37535  11.850  24.771   6.893  0.1828  0.2175  0.1458
94624W        W37536  10.586  25.170   3.947 -0.0065 -0.1857  0.2785
94625W        W37537  13.235  23.059   3.771 -0.1364 -0.1021 -0.1350
94626W        W37538  14.305  23.762   4.026  0.2510 -0.0890 -0.0703
94627W        W37539  13.097  25.505   3.932  0.0092  0.2353  0.0016
94628W        W37540  12.637  22.597   3.173 -0.1195  0.3445  0.1292
94629W        W37541  13.433  24.082   5.915 -0.0004 -0.0364  0.3168
94630W        W37542  11.124  24.305   3.281 -0.2005  0.1714 -0.1660
94631W        W37543  13.004  24.550   3.683  0.1157  0.2022  0.1489
94632W        W37544  10.936  25.241   4.312  0.2016  0.0372 -0.2982
94633W        W37545  12.519  24.565   6.286  0.0236  0.1411  0.4112
94634W        W37546  13.719  21.605   4.209  0.2667  0.1326  0.2472
94635W        W37547  15.585  23.755   5.828  0.1664 -0.0182  0.0622
94636W        W37548  14.841  21.607   3.933  0.0569  0.0846  0.1973
94637W        W37549  13.316  25.609   7.107  0.0540  0.3519 -0.1577
94638W        W37550  13.976  22.806   6.062 -0.0174  0.3373 -0.0352
94639W        W37551  12.970  22.078   2.580 -0.2939  0.0394  0.0452
94640W        W37552  11.212  23.927   6.907 -0.2773  0.0496  0.0742
94641W        W37553  13.105  21.765   6.476 -0.0840 -0.0057  0.0564
94642W        W37554   9.571  25.423   7.849 -0.5520  0.0516 -0.1824
94643W        W37555  15.617  24.505   3.017 -0.1913 -0.0607 -0.0650
94644W        W37556  11.818  21.675   4.142  0.1024  0.1375  0.0525
94645W        W37557  13.027  23.945   4.520  0.0348  0.0253  0.1237
94646W        W37558  14.184  22.266   5.854  0.4227  0.0244  0.2065
94647W        W37559  14.843  24.593   3.438 -0.4238 -0.2056  0.0690
94648W        W37560  12.139  22.381   5.334  0.0294  0.2281  0.0883
94649W        W37561  11.568  24.251   4.431 -0.0187  0.0676 -0.3604
94650W        W37562  12.088  24.603   4.810 -0.3084 -0.1527  0.0536
94651W        W37563  11.947  24.231   5.328  0.0854  0.1941 -0.5428
94652W        W37564  10.677  22.243   3.277 -0.0033 -0.0494 -0.1971
94653W        W37565  13.880  24.057   4.098  0.0465 -0.1647 -0.4008
94654W        W37566  10.046  20.534   6.154 -0.1014 -0.1370  0.0207
94655W        W37567  12.362  20.900   6.098  0.0164 -0.1075  0.1467
94656W        W37568  12.480  23.395   4.798 -0.2716 -0.0061 -0.4139
94657W        W37569  13.993  23.754   4.490 -0.2707  0.0151  0.1763
94658W        W37570  11.804  24.833   6.134 -0.0250  0.0199 -0.0006
94659W        W37571  10.570  22.958   4.837 -0.1110 -0.0221  0.0898
94660W        W37572  13.199  23.894   4.969 -0.0831  0.0569  0.0422
94661W        W37573  14.615  23.652   4.847  0.1520 -0.1765 -0.2998
94662W        W37574  13.590  23.394   3.645  0.2103  0.2288 -0.1106
94663W        W37575  13.033  25.321   6.519  0.1879  0.0830  0.1850
94664W        W37576  11.469  22.547   5.040  0.0698  0.0447  0.2439
94665W        W37577  12.783  23.085   4.058 -0.0382  0.2424  0.1298
94666W        W37578  11.658  23.398   5.509  0.0571  0.1935 -0.1006
94667W        W37579  11.713  23.649   6.029 -0.1970 -0.0757 -0.3563
94668W        W37580  13.058  24.708   7.183 -0.1154  0.3318  0.0600
94669W        W37581  11.486  21.994   4.758  0.0192  0.0596 -0.3911
94670W        W37582  15.624  24.958   3.767 -0.1153  0.2160 -0.4199
94671W        W37583  14.122  23.703   6.529  0.0200 -0.0728 -0.2406
94672W        W37584  13.276  25.624   2.665 -0.2483  0.0265  0.3392
94673W        W37585  14.008  24.307   4.572 -0.1921  0.1803  0.2944
94674W        W37586  13.292  25.418   4.794 -0.2145  0.0822 -0.2215
94675W        W37587  11.037  22.620   6.759  0.5073 -0.0809  0.0584
94676W        W37588  13.556  26.780   7.794 -0.1257 -0.0716 -0.2411
94677W        W37589  13.530  24.486   6.274 -0.1017  0.1985  0.1251
94678W        W37590  14.837  22.125   3.741 -0.4431 -0.0893  0.3632
94679W        W37591  11.932  23.453   6.492 -0.1451 -0.3153 -0.0798
94680W        W37592  11.211  23.729   4.262 -0.1050 -0.2683 -0.3887
94681W        W37593  14.537  22.641   5.664 -0.4965  0.0249 -0.4231
94682W        W37594  14.571  22.176   7.130 -0.0860 -0.3385  0.2960
94683W        W37595  12.920  25.306   4.420 -0.0866 -0.0519  0.1128
94684W        W37596  12.738  21.560   5.695 -0.3345 -0.0047 -0.0042
94685W        W37597  12.454  25.074   5.418 -0.1138 -0.2953 -0.1952
94686W        W37598  10.940  25.251   6.478  0.2677 -0.0227 -0.0915
94687W        W37599  11.977  23.221   4.685 -0.1271  0.0816 -0.0405
94688W        W37600  12.651  23.799   5.584  0.1072  0.3487 -0.2252
94689W        W37601  13.560  23.961   4.568  0.1156  0.1548 -0.2816
94690W        W37602  12.985  24.733   4.543 -0.1561 -0.1294 -0.0444
94691W        W37603  13.634  24.659   5.271  0.0529 -0.2155  0.0303
94692W        W37604  13.333  22.666   4.700  0.0273  0.0652 -0.0204
94693W        W37605  13.212  25.067   6.862 -0.0344 -0.4216 -0.0554
94694W        W37606  11.085  22.512   6.271  0.2469 -0.2295 -0.3416
94695W        W37607  15.136  21.647   4.295 -0.1816  0.0164  0.0682
94696W        W37608  15.237  20.397   4.484  0.0726 -0.4645  0.0037
94697W        W37609  11.959  24.318   6.828 -0.1511 -0.0853  0.2761
94698W        W37610  12.098  23.318   5.131  0.1346 -0.0379  0.1878
94699W        W37611  11.109  23.566   2.050  0.0430 -0.3076 -0.1210
94700W        W37612  11.499  21.936   5.241  0.1395 -0.0216  0.2436
94701W        W37613  12.298  20.679   6.922 -0.5215 -0.3219 -0.2405
94702W        W37614  10.908  21.944   7.433  0.3357 -0.1449 -0.1274
94703W        W37615  11.095  23.745   5.179  0.3154  0.0732  0.0390
94704W        W37616  12.676  22.042   4.543 -0.0789 -0.1789  0.4287
94705W        W37617  14.425  23.977   4.516 -0.0968  0.4184 -0.3195
94706W        W37618  11.649  22.337   6.060  0.0824  0.0283  0.3255
94707W        W37619  12.375  22.249   4.129 -0.1610 -0.1670  0.1467
94708W        W37620  12.415  24.209   5.404  0.0176 -0.5072  0.0014
94709W        W37621  12.715  25.476   3.339  0.3835 -0.2086 -0.2540
94710W        W37622  13.508  24.101   5.370  0.2233  0.0454  0.1106
94711W        W37623  13.657  23.899   7.240 -0.0470  0.0804 -0.2834
94712W        W37624  11.790  23.286   3.530 -0.2129  0.0905 -0.2615
94713W        W37625  12.663  23.202   6.382 -0.1072  0.1146  0.1773
94714W        W37626  11.045  21.693   7.009  0.4125  0.0905 -0.0044
94715W        W37627  11.844  22.989   2.968  0.3146  0.1336  0.1416
94716W        W37628  13.282  22.906   5.656  0.0911 -0.0649 -0.1079
94717W        W37629  13.947  24.722   3.544  0.1582  0.0255 -0.3674
94718W        W37630  14.489  25.712   4.557  0.0156  0.0365  0.0816
94719W        W37631  12.031  25.304   4.525 -0.0355 -0.1183 -0.2091
94720W        W37632  12.262  25.664   6.764  0.3354 -0.3152 -0.1074
94721W        W37633   9.696  20.194   6.149 -0.1031 -0.1799 -0.1209
94722W        W37634  14.197  23.638   5.439  0.2014 -0.0200 -0.1871
94723W        W37635  12.037  25.208   6.591  0.1284  0.1973 -0.2443
94724W        W37636  15.007  23.899   5.089 -0.3001  0.3387  0.1504
94725W        W37637  14.697  22.532   4.544 -0.1758 -0.3728 -0.0902
94726W        W37638  13.347  23.917   4.076  0.0480  0.2621 -0.0775
94727W        W37639  10.440  20.633   6.961  0.1479 -0.0384 -0.2800
94728W        W37640  11.755  23.570   7.418 -0.4936 -0.1978 -0.2213
94729W        W37641  14.095  24.940   7.328 -0.2493 -0.0616 -0.3598
94730W        W37642  12.816  22.491   5.063 -0.1810  0.2107 -0.1804
94731W        W37643  14.760  21.995   4.212 -0.1886  0.0115 -0.0942
94732W        W37644  12.097  25.971   4.263 -0.0406 -0.0423  0.1160
94733W        W37645  10.395  22.533   6.666 -0.1315 -0.2106  0.1552
94734W        W37646  13.157  23.164   3.307 -0.4748  0.2773 -0.0297
94735W        W37647  12.965  24.134   5.782  0.1032  0.2142 -0.1350
94736W        W37648  12.505  24.443   4.477  0.1792 -0.4228 -0.1835
94737W        W37649  13.790  23.782   6.176  0.0123  0.0250  0.1690
94738W        W37650  12.985  24.344   4.209  0.0465  0.1594  0.1657
94739W        W37651  14.340  24.296   4.172 -0.1781  0.2332  0.0335
94740W        W37652  13.174  26.035   5.638 -0.0317  0.0395  0.0993
94741W        W37653  14.455  24.448   7.912 -0.0454 -0.1908  0.0332
94742W        W37654  12.598  25.624   6.324  0.0281  0.1241 -0.1684
94743W        W37655  14.657  24.129   5.986 -0.0334  0.1222  0.0987
94744W        W37656  11.058  21.574   6.492 -0.2038  0.1002  0.2253
94745W        W37657  12.895  23.513   3.623 -0.1823  0.0393  0.0325
94746W        W37658  13.087  23.493   4.044 -0.1347  0.1853  0.1693
94747W        W37659  14.927  22.915   7.227 -0.0183 -0.2300  0.1478
94748W        W37660  11.161  22.862   4.759 -0.2842  0.3987  0.0272
94749W        W37661  13.503  21.724   3.797 -0.0029 -0.2880  0.0229
94750W        W37662  11.530  24.579   6.553 -0.2599 -0.2239 -0.2574
94751W        W37663  12.802  24.329   4.812 -0.2129  0.3332 -0.1038
94752W        W37664  11.451  23.416   9.374 -0.3057  0.4440 -0.1297
94753W        W37665  11.410  23.461  10.409  0.2083 -0.1240  0.2697
94754W        W37666  13.730  22.592   7.279 -0.1021  0.0853 -0.2575
94755W        W37667  13.827  22.649   8.034  0.0868 -0.0046 -0.0787
94756W        W37668  11.031  22.826   7.687  0.0836 -0.1680 -0.1765
94757W        W37669  12.775  24.322   7.136 -0.3638  0.1388 -0.0604
94758W        W37670  12.680  26.325  10.008  0.1505  0.2049 -0.0791
94759W        W37671  12.480  23.071  10.274 -0.0578  0.2303 -0.0410
94760W        W37672  14.517  23.439   6.366  0.1040  0.0264  0.3759
94761W        W37673  11.853  24.885   9.619 -0.2296 -0.3272 -0.1594
94762W        W37674  12.143  21.643   6.476 -0.2271 -0.0822  0.1936
94763W        W37675  10.031  21.218   9.853  0.2250  0.3322 -0.1941
94764W        W37676  10.985  24.235   9.980  0.2090  0.4523  0.0329
94765W        W37677  10.397  24.022   7.978 -0.0155  0.2404  0.1516
94766W        W37678  10.261  19.792  10.136 -0.0607 -0.0774 -0.2727
94767W        W37679  12.504  23.613   8.333  0.2529  0.0176  0.0398
94768W        W37680  13.815  24.388   9.745 -0.0021 -0.1876  0.0970
94769W        W37681  11.589  22.114   9.637  0.0810  0.2493  0.1349
94770W        W37682  12.184  24.970   7.876  0.1437 -0.1943 -0.0663
94771W        W37683  11.721  23.798   6.944 -0.0935 -0.1481 -0.0351
94772W        W37684  10.702  21.478   7.289 -0.0413 -0.2331 -0.0131
94773W        W37685  12.854  21.915   9.236 -0.1323  0.0776 -0.1849
94774W        W37686  11.329  22.115   9.230  0.0296 -0.1772 -0.2203
94775W        W37687  12.925  22.774   7.974 -0.0452  0.2160 -0.0594
94776W        W37688  11.186  25.617   7.482  0.1538 -0.0621  0.1310
94777W        W37689  12.173  24.483   8.637  0.0442  0.1513  0.2923
94778W        W37690  10.825  23.220   7.439 -0.0657 -0.0858 -0.2168
94779W        W37691   9.387  24.776   9.164 -0.0179 -0.1173 -0.3568
94780W        W37692  12.083  23.800   8.171  0.2916  0.2606  0.1647
94781W        W37693  13.883  22.662   9.340  0.0367 -0.0180  0.3102
94782W        W37694  12.042  24.271   7.912 -0.1810  0.0183 -0.3267
94783W        W37695  11.210  22.972   9.276  0.1198 -0.2862  0.0292
94784W        W37696  13.264  23.520   9.696  0.0870 -0.1167 -0.0748
94785W        W37697  11.155  24.111   7.874  0.0583  0.2443 -0.1501
94786W        W37698  12.956  23.781   9.385 -0.1034  0.1726 -0.4051
94787W        W37699  11.830  24.550  10.018 -0.0603  0.2893 -0.0605
94788W        W37700  12.336  24.378  10.115 -0.0208  0.1940 -0.2197
94789W        W37701  14.593  22.624   7.579  0.1040  0.0238  0.0515
94790W        W37702  11.836  22.793   5.821  0.0683 -0.2645 -0.0944
94791W        W37703  13.650  22.025   7.276 -0.3043 -0.1658  0.0288
94792W        W37704  10.597  21.252   9.723  0.3597 -0.0857 -0.2766
94793W        W37705  12.094  25.353   8.362  0.1378  0.4267 -0.0823
94794W        W37706  12.481  21.782   9.583 -0.0154  0.0340 -0.1415
94795W        W37707  11.960  22.659   7.469  0.0150  0.4614  0.1958
94796W        W37708  13.714  22.177   9.415  0.2764 -0.1599 -0.0447
94797W        W37709  13.041  24.902   9.049 -0.4672  0.0988 -0.0203
94798W        W37710  11.253  23.083   8.062 -0.0104 -0.1052  0.1806
94799W        W37711  13.155  23.972   6.906  0.2114  0.0913  0.1359
94800W        W37712  15.548  24.701   8.086  0.2471  0.0020  0.0419
94801W        W37713  12.551  23.256   7.604 -0.1522 -0.0640  0.1587
94802W        W37714  11.319  24.061   8.363  0.0654  0.0579 -0.1099
94803W        W37715  10.258  22.680   7.631 -0.0387  0.3889  0.2548
94804W        W37716  14.980  22.077   9.614  0.0255  0.0393  0.0360
94805W        W37717  11.088  23.586  10.009 -0.1474 -0.0137 -0.1517
94806W        W37718  14.496  24.992   9.498  0.0822  0.1520  0.2873
94807W        W37719  12.741  23.803   7.146 -0.1374  0.1971  0.0681
94808W        W37720  12.673  21.947   7.837 -0.1097 -0.2245 -0.0441
94809W        W37721  13.316  20.646   8.734 -0.3592  0.1244 -0.0917
94810W        W37722  12.233  23.620   7.718 -0.0646 -0.1620  0.0109
94811W        W37723  12.770  23.818   8.906 -0.0970 -0.4362 -0.0671
94812W        W37724  14.562  23.249   8.949 -0.2391  0.0737  0.1197
94813W        W37725  13.377  22.981   7.195 -0.1549  0.2241 -0.1260
94814W        W37726  10.888  25.050   8.749  0.1632 -0.0447 -0.2185
94815W        W37727  11.432  24.790   7.153  0.0104  0.1524  0.1667
94816W        W37728  10.818  23.867   9.630 -0.3279  0.0403 -0.0820
94817W        W37729  10.924  25.283   8.224  0.1481 -0.0620 -0.0099
94818W        W37730  11.531  22.610   9.283 -0.0865  0.2047 -0.0070
94819W        W37731  12.443  23.885  10.116 -0.0701 -0.0755 -0.1765
94820W        W37732  12.471  21.886   6.909 -0.1078  0.0735  0.2728
94821W        W37733  14.195  20.809   9.596  0.1063  0.2413  0.0397
94822W        W37734  10.385  23.395   7.065 -0.0793  0.0895 -0.2387
94823W        W37735  15.475  25.218   8.279  0.1475  0.0670  0.1310
94824W        W37736  13.543  21.704   7.790 -0.2276  0.1645  0.0702
94825W        W37737  11.928  24.068   7.350 -0.1558 -0.1401 -0.1538
94826W        W37738  11.370  23.134   9.766  0.1034 -0.4907 -0.2796
94827W        W37739  11.545  22.811   6.285  0.0453 -0.0725  0.1525
94828W        W37740  10.576  22.202   9.133 -0.0732 -0.2133 -0.4409
94829W        W37741  10.938  20.700   6.661  0.0692 -0.0059  0.2268
94830W        W37742  12.363  22.385   8.872 -0.0866  0.0356  0.0043
94831W        W37743  12.062  22.818   8.474  0.1978 -0.1357  0.1344
94832W        W37744  11.363  24.481   8.078  0.2436 -0.0973  0.0235
94833W        W37745  13.228  25.882   7.704  0.0333  0.0495 -0.3626
94834W        W37746  11.335  27.551  10.121  0.0804  0.0929 -0.1939
94835W        W37747  12.669  24.780   9.317  0.0452 -0.1030 -0.1725
94836W        W37748  10.382  20.495   9.299 -0.0517 -0.1266 -0.0476
94837W        W37749  10.218  22.275   7.998 -0.1014  0.3380  0.1180
94838W        W37750  11.560  25.540   9.419 -0.0682 -0.0570  0.2727
94839W        W37751  11.327  26.446  10.058 -0.1880 -0.4763 -0.0707
94840W        W37752  11.350  23.244   7.551  0.1170 -0.0010  0.0841
94841W        W37753  14.169  24.058   7.717  0.0612  0.1578 -0.0803
94842W        W37754  12.922  23.275   7.217  0.0742  0.0184  0.0430
94843W        W37755  12.664  21.027   8.927  0.1096  0.3784 -0.1465
94844W        W37756  12.778  22.501   9.230 -0.4363 -0.0406 -0.0458
94845W        W37757  11.700  21.892   8.273 -0.0040 -0.1141 -0.1534
94846W        W37758  13.493  23.921   8.281  0.2642  0.0055  0.0151
94847W        W37759  11.154  24.139   6.434 -0.0313  0.0108  0.2602
94848W        W37760  11.044  23.633   7.390  0.0566  0.1192  0.1808
94849W        W37761  13.106  23.895   7.992 -0.1470 -0.1847  0.1464
94850W        W37762  12.278  22.276   7.665 -0.0985  0.0375 -0.0022
94851W        W37763  11.533  21.608   6.318  0.0971 -0.3238  0.1381
94852W        W37764  11.909  21.416   7.125 -0.1421  0.1436  0.2291
94853W        W37765  12.359  22.503   7.247  0.1514  0.2449 -0.0183
94854W        W37766  12.927  24.037   8.442  0.3589 -0.0027 -0.0350
94855W        W37767  12.140  22.322   6.807  0.1381 -0.3636  0.0251
94856W        W37768  11.267  22.008   6.245  0.1253  0.2993 -0.0832
94857W        W37769  14.484  23.994   8.212  0.1007  0.1109 -0.1149
94858W        W37770  12.838  24.369  10.173  0.0090 -0.1568  0.3458
94859W        W37771  12.520  22.779   7.638  0.2452 -0.2172 -0.0559
94860W        W37772  13.204  24.456   6.658  0.2405  0.2546  0.3712
94861W        W37773   9.739  24.273   9.346  0.1230  0.2769  0.1308
94862W        W37774  12.935  24.375   9.501  0.3495  0.1654  0.0935
94863W        W37775  11.454  22.842   8.863 -0.0146 -0.0529  0.2989
94864W        W37776  11.595  23.665   8.876 -0.3328 -0.1642 -0.0450
94865W        W37777  12.157  21.684   7.863  0.2368 -0.2417  0.0733
94866W        W37778  10.118  25.518   7.033 -0.1804 -0.4114  0.1128
94867W        W37779  15.398  21.646   9.323  0.1829 -0.1763 -0.0339
94868W        W37780  12.793  22.253   8.203  0.0551 -0.0766  0.1534
94869W        W37781  14.635  23.124   7.667 -0.0447  0.3783  0.1789
94870W        W37782  13.331  23.115   8.103  0.0867  0.1294  0.2874
94871W        W37783  11.426  23.510   6.448 -0.2493 -0.1673  0.0882
94872W        W37784   9.894  22.184   9.864  0.1462 -0.1009 -0.1982
94873W        W37785  12.294  23.591   8.889  0.0326 -0.3447  0.1475
94874W        W37786  12.868  24.455   8.959  0.1571  0.2222 -0.0268
94875W        W37787  11.972  22.631   6.422  0.1495 -0.0471  0.1170
94876W        W37788  12.325  25.671   8.720  0.3280 -0.1677  0.2623
94877W        W37789  11.918  24.662   8.156  0.0247 -0.0572 -0.1432
94878W        W37790  12.505  21.336   9.312 -0.0996  0.0431  0.1478
94879W        W37791  13.308  23.565  10.194 -0.1021  0.0647  0.1109
94880W        W37792  12.369  25.507   7.924  0.1114  0.1868 -0.0927
94881W        W37793  10.080  20.804   8.920 -0.0551 -0.0364 -0.2340
94882W        W37794  11.452  25.164   9.114 -0.1330  0.0297  0.2348
94883W        W37795  12.866  20.304   8.067 -0.2576 -0.1620  0.2453
94884W        W37796  11.238  25.215   9.545 -0.2617  0.0497  0.0117
94885W        W37797  11.993  23.401   8.501  0.1127 -0.1042  0.2134
94886W        W37798  11.289  22.599   5.783  0.3431  0.5590 -0.0783
94887W        W37799  12.333  21.597   7.356  0.0079  0.0797  0.1195
94888W        W37800  12.409  21.995   8.574 -0.1902 -0.0528  0.0294
94889W        W37801  12.114  21.326   8.896  0.1389 -0.4317 -0.0084
94890W        W37802  12.412  21.254   9.787 -0.0463  0.0865  0.2461
94891W        W37803  11.352  24.478  10.307 -0.0928 -0.2402  0.1635
94892W        W37804  12.392  21.154   7.093 -0.0686 -0.0869 -0.2764
94893W        W37805   9.778  22.240   8.283 -0.2543  0.3928 -0.2861
94894W        W37806  13.347  23.157   8.650  0.0006  0.1940  0.4776
94895W        W37807  11.935  23.200   8.992  0.2406 -0.2578  0.2257
94896W        W37808  11.357  24.681   8.759  0.1358  0.3251 -0.1704
94897W        W37809  13.494  26.124   8.997  0.2652 -0.0285  0.0545
94898W        W37810  11.792  23.069   9.495  0.2962 -0.0427 -0.0482
94899W        W37811  10.585  24.326   9.587 -0.1436  0.2656 -0.0247
94900W        W37812  13.227  24.101   8.964  0.1918 -0.0088  0.0302
94901W        W37813  11.008  21.689   9.083  0.3562 -0.1873 -0.0067
94902W        W37814  11.257  23.564   7.892  0.0146 -0.0607 -0.0536
94903W        W37815  12.575  23.541   9.718  0.2241 -0.2457 -0.0509
94904W        W37816  14.230  26.563   9.527  0.0285 -0.0482 -0.0499
94905W        W37817  13.242  22.333   9.067  0.2845 -0.0145 -0.2771
94906W        W37818  11.935  20.380   9.354 -0.0917  0.0085 -0.0429
94907W        W37819  13.976  24.304   7.257 -0.3613 -0.0748  0.2282
94908W        W37820  11.323  25.238   8.548  0.2477 -0.1869 -0.2446
94909W        W37821   9.089  23.041   9.361  0.1672  0.0280  0.2652
94910W        W37822  12.860  25.310   9.451  0.0405  0.0413  0.0010
94911W        W37823  10.904  22.118   9.527 -0.2530  0.0433 -0.2111
94912W        W37824  12.493  24.827   8.839 -0.3085 -0.3758 -0.1203
94913W        W37825  13.319  24.294   9.920 -0.0193 -0.1380  0.2219
94914W        W37826  12.402  24.263   9.188 -0.0688  0.0298 -0.3802
94915W        W37827  13.741  23.280   7.388 -0.0776  0.0173  0.2504
94916W        W37828  13.244  23.850   7.491  0.2923 -0.0479  0.1980
94917W        W37829  11.570  23.058   8.394 -0.1758  0.0277  0.2182
94918W        W37830  13.182  22.644   6.759  0.0358 -0.0480  0.3829
94919W        W37831  10.972  22.526   9.133 -0.0739  0.0399 -0.1973
94920W        W37832  14.249  25.661  10.450  0.1075  0.0780 -0.3360
94921W        W37833  12.795  23.321   9.276 -0.1427 -0.0132  0.2114
94922W        W37834  10.893  20.985   7.182  0.2301 -0.2492  0.1483
94923W        W37835  12.698  25.326   9.992 -0.3266  0.0770  0.0030
94924W        W37836  13.580  23.905   9.896 -0.0943  0.0701  0.1458
94925W        W37837  12.566  24.050   8.044 -0.4946  0.0622  0.1214
94926W        W37838  12.856  23.288   8.751  0.1358  0.1752  0.0288
94927W        W37839  10.832  23.365   9.329 -0.1206 -0.1213  0.0429
94928W        W37840  12.936  22.915   8.474  0.0035  0.3523  0.2233
94929W        W37841  12.943  23.261   9.980 -0.1358 -0.7240 -0.0104
94930W        W37842  12.215  23.065   9.793  0.3807 -0.3223  0.1343
94931W        W37843  13.986  22.973   7.045 -0.1177  0.0457  0.1599
94932W        W37844  13.554  22.309   7.669 -0.1954  0.0352  0.1678
94933W        W37845  13.678  24.952   9.144 -0.0808  0.2493 -0.1469
94934W        W37846  15.394  22.720   7.237  0.2954 -0.1033 -0.1604
94935W        W37847  12.199  21.556   8.336 -0.0103 -0.0283 -0.1323
94936W        W37848  14.402  23.622   9.978 -0.2006  0.1451  0.3174
94937W        W37849  12.032  21.987   7.351  0.3206  0.0200  0.0283
94938W        W37850  13.013  22.399   7.688  0.3336 -0.0744 -0.0996
94939W        W37851   9.856  23.367   7.087 -0.0664  0.1740 -0.3145
94940W        W37852  11.657  25.100   8.201 -0.0256  0.2170  0.1730
94941W        W37853  13.872  24.256   9.194 -0.0921  0.2753 -0.0735
94942W        W37854  12.791  23.275   8.083  0.1338 -0.0339  0.0543
94943W        W37855  12.393  22.330   9.680  0.0857 -0.1175  0.1648
94944W        W37856  12.064  23.198   5.688 -0.1355  0.2256 -0.0026
94945W        W37857  12.410  24.109   7.449 -0.0712  0.2932  0.0857
94946W        W37858  12.921  22.199   9.632 -0.1119 -0.1765 -0.0010
94947W        W37859  11.992  20.672   7.322 -0.0840 -0.0216  0.3766
94948W        W37860  11.838  25.551   8.965  0.1394 -0.2638  0.1084
94949W        W37861  10.540  20.995   9.310  0.3049 -0.2656  0.1706
94950W        W37862  13.041  26.592   9.733 -0.0222  0.1998 -0.0134
94951W        W37863  13.089  25.287   8.329  0.0650  0.3896 -0.4132
94952W        W37864  10.450  21.808   8.791  0.0365 -0.2147  0.2400
94953W        W37865  13.220  21.982   8.168 -0.2563 -0.4488  0.0348
94954W        W37866  11.639  26.077   9.832 -0.0406  0.0553 -0.0424
94955W        W37867  10.776  24.306   8.216 -0.1158  0.0951 -0.0269
94956W        W37868  13.115  23.565   8.356  0.0114  0.1866  0.1002
94957W        W37869  11.063  23.775   8.616  0.0356 -0.0809 -0.0164
94958W        W37870  11.909  24.467  10.463  0.1109  0.0143 -0.0120
94959W        W37871  10.214  21.495   6.965 -0.0890 -0.0181 -0.1448
94960W        W37872  11.648  23.963   7.936 -0.1833  0.1477  0.3695
94961W        W37873  12.151  26.012   9.780 -0.0675  0.0429 -0.3002
94962W        W37874  11.136  25.698   8.352 -0.1196  0.0541 -0.0973
94963W        W37875  12.107  23.410   7.070  0.2376  0.0366 -0.1341
94964W        W37876  13.659  23.654   7.822  0.4888  0.1682  0.0472
94965W        W37877  12.369  23.492  11.003 -0.1203 -0.0421  0.0365
94966W        W37878  12.907  22.819   7.300 -0.0086  0.1190 -0.0120
94967W        W37879  11.538  24.206   8.887  0.4562  0.2017 -0.0643
94968W        W37880  10.504  24.832   7.439 -0.0489 -0.0832 -0.2697
94969W        W37881  12.317  24.508   7.100  0.1371 -0.1621 -0.0795
94970W        W37882  12.623  25.320   8.348 -0.1929  0.0009 -0.2405
94971W        W37883  12.547  21.396   6.677  0.2856 -0.0208  0.2116
94972W        W37884  13.081  22.903   9.025 -0.0874  0.0591  0.1127
94973W        W37885  14.208  23.310   8.554  0.2665  0.3991 -0.3069
94974W        W37886  11.938  23.980  10.145  0.0535 -0.1106 -0.2551
94975W        W37887  11.379  23.407   7.036 -0.2679 -0.0346  0.0774
94976W        W37888  15.269  25.053   9.074 -0.0169 -0.0101 -0.2358
94977W        W37889  12.158  23.176   8.046  0.0431  0.0270 -0.0224
94978W        W37890  12.091  23.557   9.832 -0.0746  0.1480  0.0577
94979W        W37891  12.649  21.259   8.493  0.1732 -0.0777 -0.1615
94980W        W37892  12.610  24.507   5.839 -0.0777 -0.0174  0.1248
94981W        W37893  13.380  22.633   8.619 -0.0382  0.5671 -0.2026
94982W        W37894  12.024  25.072   7.404  0.1379  0.4313 -0.1698
94983W        W37895  12.907  24.870   8.524 -0.0471  0.1355 -0.3552
94984W        W37896  12.543  24.148   9.657 -0.0045  0.1558  0.2773
94985W        W37897  10.742  23.025   6.931 -0.1150  0.1837  0.0331
94986W        W37898  15.722  23.211   8.295  0.0155 -0.2091 -0.1027
94987W        W37899  11.730  21.850   9.158  0.4285  0.1356  0.2885
94988W        W37900  11.911  23.570   9.339  0.0849  0.1413 -0.1592
94989W        W37901  13.267  22.410   7.212 -0.0426 -0.0738 -0.2338
94990W        W37902  10.778  25.401   9.614  0.2347 -0.1139  0.0300
94991W        W37903  10.124  20.064   9.487 -0.1726 -0.0490 -0.1902
94992W        W37904  13.165  21.887   7.484  0.1812 -0.0225  0.1011
94993W        W37905  11.974  23.113   6.187 -0.0659 -0.0211  0.0161
94994W        W37906  11.747  22.333   7.134 -0.3838 -0.1636 -0.1601
94995W        W37907  13.129  21.430   6.077 -0.3328  0.0440  0.2327
94996W        W37908  11.573  23.923   9.429  0.4307  0.1716 -0.1145
94997W        W37909  15.325  22.971   9.460  0.0046 -0.1511  0.2958
94998W        W37910  10.334  21.840   7.303  0.0703  0.3449 -0.1327
94999W        W37911  12.719  23.703   7.692  0.3193 -0.1116  0.2104
95000W        W37912  11.594  27.392  11.885  0.1005 -0.1156  0.1522
95001W        W37913  11.657  25.589   8.413 -0.0413  0.1391 -0.0951
95002W        W37914  13.372  23.451   7.095  0.1463  0.0928 -0.3570
95003W        W37915  14.527  23.680   8.615  0.0094  0.0681  0.0430
95004W        W37916  10.332  22.212   9.656  0.1812  0.1308 -0.1096
95005W        W37917  11.652  27.880   9.758 -0.3562 -0.0008  0.0951
95006W        W37918  13.660  23.470   8.324 -0.0371  0.0299 -0.0287
95007W        W37919  10.934  23.357   8.422  0.0124 -0.0029 -0.1929
95008W        W37920  11.375  21.894   8.780 -0.2745 -0.0239 -0.0295
95009W        W37921  12.407  23.771   9.312  0.0342 -0.0659  0.0752
95010W        W37922  13.324  22.561   8.092  0.1351  0.1189 -0.3095
95011W        W37923  11.505  25.226   7.417  0.1532  0.0944 -0.1400
95012W        W37924  11.926  22.692   8.980 -0.2708 -0.0127  0.2395
95013W        W37925  11.993  24.022   9.651 -0.3997 -0.0212 -0.0227
95014W        W37926  12.631  24.764   7.476  0.1765 -0.0851  0.1727
95015W        W37927  11.528  26.620   7.716 -0.0413  0.2457 -0.1585
95016W        W37928  13.093  23.041   9.556 -0.2003 -0.0231 -0.0464
95017W        W37929  12.205  22.749   9.379  0.0086  0.0636 -0.1026
95018W        W37930  13.481  23.729   8.727 -0.2262 -0.1323  0.0986
95019W        W37931  12.097  23.088   7.545 -0.0374 -0.0488 -0.1925
95020W        W37932  13.673  21.602   8.395  0.1295  0.0330  0.1752
95021W        W37933  13.086  21.396   7.666 -0.0318 -0.0011 -0.4037
95022W        W37934  12.870  24.796   9.818  0.2619 -0.1680 -0.2557
95023W        W37935   9.779  22.557   7.441  0.2255 -0.1028  0.0321
95024W        W37936  11.632  24.409   7.625  0.0617 -0.2876 -0.1291
95025W        W37937  10.588  23.572   7.720  0.0270  0.0768 -0.1982
95026W        W37938  11.174  23.105   6.613  0.1021 -0.0101  0.1601
95027W        W37939  10.658  22.309   8.220  0.3094  0.1335 -0.0559
95028W        W37940  13.275  24.011   6.368 -0.1681 -0.3653  0.0488
95029W        W37941  10.865  20.587   9.144 -0.4135  0.0076 -0.1904
95030W        W37942  10.184  22.779   8.802 -0.1214  0.0675  0.1057
95031W        W37943  12.331  24.918   8.379 -0.0043 -0.0323 -0.0916
95032W        W37944  15.144  23.935   8.808  0.1761  0.0403 -0.0312
95033W        W37945  12.105  22.649   7.979 -0.0051 -0.1335  0.0804
95034W        W37946   9.877  24.019   8.016 -0.2387  0.0750  0.0512
95035W        W37947  10.150  21.405   7.501 -0.0076  0.1859  0.1050
95036W        W37948  14.362  22.650   9.151  0.1467 -0.1623 -0.0214
95037W        W37949  10.766  25.790  10.035 -0.3565 -0.1749 -0.2079
95038W        W37950  13.183  25.387   7.835 -0.0571 -0.1771 -0.2168
95039W        W37951   8.677  22.197   9.006  0.1796  0.2925  0.0004
95040W        W37952  14.879  24.674   7.684  0.1499  0.2942  0.2270
95041W        W37953  14.510  23.690   7.786  0.0187  0.0493 -0.0888
95042W        W37954  14.031  24.638   8.881 -0.1037  0.1222 -0.0572
95043W        W37955  12.456  23.137   8.452  0.3230 -0.1076  0.0563
95044W        W37956  12.832  22.721  10.093  0.0155 -0.0328 -0.4956
95045W        W37957  10.811  22.125   8.681 -0.0201  0.1133  0.0289
95046W        W37958  11.214  20.927   7.643 -0.2266  0.0802 -0.0985
95047W        W37959  12.543  23.487   6.852  0.0184 -0.0684 -0.1788
95048W        W37960  10.675  23.537   8.816 -0.4051 -0.1529  0.0038
95049W        W37961  12.700  21.807   6.217 -0.2698  0.4276 -0.3002
95050W        W37962  14.689  25.321   9.795 -0.0881 -0.1576 -0.2170
95051W        W37963  11.647  22.809   7.930  0.0283 -0.1414 -0.2697
95052W        W37964  13.966  23.767   8.709 -0.3179 -0.0715 -0.0882
95053W        W37965  14.092  25.079   8.275  0.0049  0.0376  0.2840
95054W        W37966  14.817  23.000   9.382 -0.0402  0.1665 -0.1234
95055W        W37967  13.456  24.577  10.437 -0.0543 -0.2137  0.0317
95056W        W37968  10.089  19.602   9.208  0.2217  0.0770 -0.0929
95057W        W37969  12.651  24.435   8.394  0.1107  0.0734  0.0062
95058W        W37970  13.234  24.416   8.505 -0.1377  0.2722  0.1568
95059W        W37971  15.038  25.100   8.620  0.1927 -0.1519 -0.0842
95060W        W37972  10.698  22.851   8.145 -0.2533  0.2371  0.4025
95061W        W37973  11.960  21.878   6.881 -0.2369  0.2297 -0.1657
95062W        W37974  10.266  23.600   9.419 -0.0758  0.2562 -0.1959
95063W        W37975  12.147  22.154   8.138  0.1746 -0.1294  0.0502
95064W        W37976  12.150  27.353   3.126  0.1227  0.2175  0.1712
95065W        W37977  12.167  26.244   0.147  0.1789 -0.1168 -0.0920
95066W        W37978  13.216  26.067  31.538  0.1332 -0.0505  0.0591
95067W        W37979  14.666  25.495   0.340  0.1404  0.4773 -0.0217
95068W        W37980  11.339  25.097   1.073  0.0760 -0.3383 -0.0542
95069W        W37981  12.381  29.326   1.955 -0.0885 -0.3799  0.0020
95070W        W37982  10.933  25.472   3.009  0.1010 -0.0146  0.2012
95071W        W37983  12.799  29.352   2.881  0.0821 -0.1025 -0.2133
95072W        W37984  13.017  28.287   2.150  0.2859 -0.2021  0.1828
95073W        W37985  14.001  26.935   0.478  0.1702 -0.3752 -0.3150
95074W        W37986  12.090  26.253   2.397 -0.1867  0.1964  0.1101
95075W        W37987  12.388  29.075   2.902  0.2230  0.1274 -0.2323
95076W        W37988  10.560  26.952  30.955 -0.0493  0.3606  0.1252
95077W        W37989  12.133  25.068   2.349  0.0480  0.1854 -0.2012
95078W        W37990  13.780  26.479   3.428  0.1240 -0.0899 -0.2232
95079W        W37991  10.933  28.001  31.886 -0.0539  0.0348  0.1212
95080W        W37992  12.287  26.655   2.619 -0.0325 -0.3428  0.2729
95081W        W37993  12.326  25.413  30.824  0.0130 -0.0174 -0.0630
95082W        W37994  13.985  28.050   2.552 -0.1536 -0.1659 -0.1172
95083W        W37995  13.338  26.638   3.630 -0.0699  0.1678 -0.0980
95084W        W37996  11.887  25.309   3.599  0.2106  0.3039  0.3204
95085W        W37997  13.147  27.655   2.935 -0.1431  0.0451 -0.1910
95086W        W37998  11.447  25.276  31.021 -0.1898  0.3809 -0.2774
95087W        W37999  11.649  26.245   2.039  0.1730  0.1224  0.1267
95088W        W38000  10.862  25.498   1.898 -0.1081 -0.1094  0.1589
95089W        W38001  13.422  26.689   1.920  0.2515  0.3465 -0.2566
95090W        W38002  13.843  28.216   1.404 -0.3545 -0.0925  0.2954
95091W        W38003  12.357  29.061   1.469  0.1770 -0.2272 -0.0007
95092W        W38004  15.039  30.676   2.874 -0.1122  0.0394 -0.0934
95093W        W38005  13.635  27.004   3.511  0.0481  0.4420 -0.0155
95094W        W38006  12.094  28.101   1.768 -0.3945  0.0088 -0.0964
95095W        W38007  12.332  29.291  31.806  0.1446  0.2325 -0.3671
95096W        W38008  12.272  26.618   2.067  0.0184  0.0381  0.1195
95097W        W38009  13.319  29.117   0.668  0.2733 -0.0358 -0.1355
95098W        W38010  15.602  30.006   4.000  0.2501  0.2249  0.0544
95099W        W38011  11.240  29.534   3.194 -0.1775 -0.1115  0.1755
95100W        W38012   9.383  27.293  31.248 -0.1163 -0.0476  0.1760
95101W        W38013  13.576  28.456   3.746  0.0046  0.1031 -0.1589
95102W        W38014  11.655  27.433   3.914 -0.1623  0.0896 -0.0967
95103W        W38015  13.012  26.268   2.780 -0.2774 -0.1440  0.1508
95104W        W38016  13.232  26.803   1.200 -0.4520 -0.1011  0.1023
95105W        W38017  13.791  28.682   1.506  0.1002 -0.1102  0.1446
95106W        W38018  12.455  27.578   2.326  0.2850 -0.0906 -0.0438
95107W        W38019  14.177  27.794   3.450 -0.0916 -0.0748 -0.3627
95108W        W38020  12.332  27.712   1.641 -0.0530 -0.0105 -0.2325
95109W        W38021  13.059  26.738   2.703 -0.1291 -0.2103  0.1823
95110W        W38022  13.975  27.259   1.074  0.1083 -0.0462 -0.1450
95111W        W38023  12.266  25.945  31.165 -0.1106 -0.2311  0.0609
95112W        W38024  12.504  27.065   0.793 -0.0158 -0.1171  0.1321
95113W        W38025  13.412  26.374  31.883 -0.5652 -0.0896 -0.0145
95114W        W38026  12.040  26.421   1.610  0.1561  0.0830  0.0472
95115W        W38027  11.223  29.271   2.766 -0.0441  0.0505 -0.1673
95116W        W38028  11.681  25.943   1.632 -0.1021 -0.2013  0.2075
95117W        W38029  14.207  27.227   2.134 -0.0661 -0.4636  0.1081
95118W        W38030  14.022  27.248   1.659  0.0378 -0.0749 -0.1717
95119W        W38031  12.492  25.483   2.787  0.5514 -0.2592  0.0029
95120W        W38032  12.236  27.852   3.070 -0.4834 -0.2576 -0.1304
95121W        W38033  11.320  27.472   1.463 -0.0686 -0.1574  0.0828
95122W        W38034  13.602  28.366   0.426 -0.1385 -0.4449 -0.0193
95123W        W38035  14.629  29.510   1.831  0.1543  0.0477  0.1218
95124W        W38036  12.613  28.351  31.216  0.2280  0.2983  0.0237
95125W        W38037  10.953  25.742   1.422 -0.0441 -0.1991 -0.4159
95126W        W38038  11.759  27.796   1.452 -0.1074  0.1613  0.2162
95127W        W38039  12.348  27.170   2.629 -0.0695 -0.1560 -0.4519
95128W        W38040  12.220  24.018   0.204 -0.0523  0.0746  0.1309
95129W        W38041  14.345  26.462   4.031 -0.1323 -0.1138  0.0622
95130W        W38042  11.995  29.207   4.082  0.1287 -0.1433 -0.1039
95131W        W38043  13.495  26.369   2.608  0.0800  0.2086 -0.2449
95132W        W38044  12.083  25.964   1.989  0.3552  0.2543  0.3781
95133W        W38045  12.963  26.855   3.278  0.1199 -0.0968  0.2889
95134W        W38046  14.288  26.662   0.860 -0.3550  0.4465  0.2921
95135W        W38047  12.792  26.949   0.415 -0.2276 -0.0718  0.1369
95136W        W38048  13.653  26.433   3.899 -0.0280 -0.2879 -0.4474
95137W        W38049  12.809  27.941  31.316 -0.3411  0.0909 -0.0807
95138W        W38050  13.563  26.736   0.251 -0.1257 -0.0851 -0.2548
95139W        W38051  15.097  26.444   2.806 -0.0511 -0.1534  0.0485
95140W        W38052  15.424  26.970   1.052  0.0706  0.2176 -0.0866
95141W        W38053  12.492  29.235   2.452 -0.2331 -0.0853  0.1887
95142W        W38054  11.817  25.723   2.464  0.2663 -0.2511  0.1228
95143W        W38055  12.655  28.565   3.611  0.1364  0.3030 -0.0714
95144W        W38056  10.534  28.903  31.978  0.0993 -0.0998 -0.1901
95145W        W38057  12.378  28.100   2.407 -0.1644 -0.0584 -0.0177
95146W        W38058  12.361  27.268   1.294 -0.0652  0.1802 -0.1535
95147W        W38059  12.152  25.018   1.571 -0.1129  0.2860 -0.4659
95148W        W38060  12.817  29.527   2.192  0.2799 -0.0413  0.1631
95149W        W38061  12.961  26.260  31.009  0.1055  0.0779 -0.2050
95150W        W38062  12.170  24.583   1.721  0.0864  0.1608  0.2351
95151W        W38063  13.842  25.437   2.177  0.1999  0.2485 -0.3292
95152W        W38064  11.187  25.834   0.583  0.1704  0.0393  0.1315
95153W        W38065  14.662  29.061   2.114  0.1171  0.1250  0.0754
95154W        W38066  14.120  26.482   0.419 -0.1267 -0.3102  0.0901
95155W        W38067  14.137  28.402   0.506 -0.3476 -0.1935  0.0821
95156W        W38068  10.312  25.160   3.456  0.0774 -0.2011 -0.0560
95157W        W38069  12.886  26.212  31.925 -0.2357  0.0473 -0.0822
95158W        W38070  10.436  24.688   3.497 -0.2993 -0.3436  0.1039
95159W        W38071  10.525  25.355   0.621  0.0746  0.0910  0.0847
95160W        W38072  14.232  26.347   4.576 -0.3123 -0.3193  0.3259
95161W        W38073  11.311  26.990  31.177 -0.0303 -0.1291 -0.2211
95162W        W38074  12.998  26.491   2.120 -0.2233 -0.1858 -0.0616
95163W        W38075  12.556  26.367   1.710 -0.3226 -0.0353 -0.2860
95164W        W38076  10.766  28.117   2.279 -0.1430  0.2254  0.1206
95165W        W38077  14.724  26.021   3.378 -0.0242 -0.2231  0.0199
95166W        W38078  13.169  29.085   3.099 -0.2919 -0.1669 -0.0640
95167W        W38079  15.113  29.346   4.196  0.0068 -0.0957  0.0681
95168W        W38080  13.644  29.964   2.579 -0.1859 -0.0900  0.3370
95169W        W38081  13.133  25.639   2.076  0.1035  0.1461  0.0367
95170W        W38082  12.193  25.798  30.553  0.0709 -0.0499  0.4087
95171W        W38083  11.235  29.794   2.258  0.0721  0.0824 -0.0367
95172W        W38084  12.725  27.862   1.972  0.1997  0.1375 -0.0975
95173W        W38085  12.344  25.205  31.747  0.2932  0.2195 -0.0033
95174W        W38086  13.648  29.023   2.296  0.0189  0.1531 -0.0662
95175W        W38087  13.766  26.795   0.896 -0.0007  0.0125 -0.2012
95176W        W38088  13.203  28.201   2.835  0.0435 -0.0240 -0.2054
95177W        W38089  14.378  24.951   3.381 -0.0066  0.1596  0.1592
95178W        W38090  15.119  25.625   3.158 -0.1679 -0.0268  0.0645
95179W        W38091  11.890  28.997   2.636  0.2390  0.2772  0.0803
95180W        W38092  10.210  25.636   0.321  0.1465 -0.0754  0.0353
95181W        W38093  14.168  29.521   2.053  0.2380  0.1064  0.0952
95182W        W38094  12.156  28.535  31.797 -0.3442 -0.0584 -0.1944
95183W        W38095  11.359  26.147   0.264 -0.1682  0.2663  0.0197
95184W        W38096  13.240  28.699   2.360 -0.3187  0.0331 -0.3861
95185W        W38097  13.541  26.234   1.727 -0.0528 -0.0248 -0.2049
95186W        W38098  10.888  25.574   2.508  0.1760  0.0744  0.0373
95187W        W38099  12.843  27.248   2.535 -0.1446  0.1128  0.2571
95188W        W38100  11.065  26.831  30.747  0.4306  0.1240  0.0805
95189W        W38101  10.653  29.671   3.199  0.3816  0.1777  0.0321
95190W        W38102  12.579  26.522   0.224  0.3209  0.0677  0.2069
95191W        W38103  13.398  25.795  31.198 -0.0982  0.2236  0.0558
95192W        W38104  14.025  27.221   3.733  0.0260 -0.2556  0.1093
95193W        W38105  13.926  26.810   1.370 -0.1218 -0.0210  0.1807
95194W        W38106  12.750  27.560  31.793  0.1347  0.4794 -0.1460
95195W        W38107  14.384  26.450  31.245 -0.0426 -0.2032  0.1816
95196W        W38108  12.010  28.280   2.710  0.2862 -0.0814 -0.1653
95197W        W38109  13.114  27.597   1.544 -0.0799 -0.0264  0.0901
95198W        W38110  12.974  28.210   3.491 -0.3512  0.0339  0.2032
95199W        W38111  13.706  27.497  31.212 -0.2404  0.2341  0.0429
95200W        W38112  14.857  29.101   1.609  0.1586  0.2683  0.1001
95201W        W38113  11.377  27.556   2.792 -0.4229 -0.1469 -0.2030
95202W        W38114  13.457  27.985   2.442 -0.1914 -0.1439 -0.0089
95203W        W38115  14.500  27.773   0.405 -0.2078 -0.1897 -0.1990
95204W        W38116  13.134  24.608   1.523  0.0531  0.3194 -0.0656
95205W        W38117  13.207  27.060  31.369  0.5597 -0.4712 -0.0886
95206W        W38118  11.753  25.759  31.276  0.0847  0.2101  0.1272
95207W        W38119  11.842  28.180  31.643 -0.1529  0.0592  0.0481
95208W        W38120  13.299  27.470   2.478  0.1719 -0.0558 -0.0987
95209W        W38121  11.971  26.522   0.770  0.2468  0.0669 -0.0651
95210W        W38122  13.774  26.162   3.024  0.1655  0.2341 -0.0908
95211W        W38123  15.261  28.025   3.733  0.3756  0.0442  0.2379
95212W        W38124  13.512  27.224   0.752  0.1702  0.0535 -0.0217
95213W        W38125  12.319  26.832   1.620  0.2009  0.3577 -0.2938
95214W        W38126  12.196  27.750  31.925  0.0112 -0.1393  0.2190
95215W        W38127  13.142  26.238   3.917 -0.0515  0.4367 -0.0779
95216W        W38128  10.635  25.863   2.840  0.3261  0.1624 -0.1105
95217W        W38129  12.753  26.826   1.817  0.0857  0.3677 -0.1284
95218W        W38130  13.269  27.316   3.326 -0.0582 -0.1331  0.3070
95219W        W38131  13.346  27.196   0.270 -0.0071  0.1204 -0.0019
95220W        W38132  12.244  25.078   2.837  0.2939 -0.1259 -0.0124
95221W        W38133  11.329  26.983   1.089  0.2068  0.0735  0.0790
95222W        W38134  13.176  26.658   0.624  0.1151  0.3691  0.5110
95223W        W38135  11.172  28.072   0.314 -0.2377  0.2074  0.0854
95224W        W38136  12.393  25.678   0.531  0.1516  0.1766  0.2634
95225W        W38137  12.788  28.408   2.563  0.1508  0.2142  0.1125
95226W        W38138  13.330  28.520   1.335  0.1908 -0.0800 -0.1433
95227W        W38139  13.317  27.355   3.808 -0.3193 -0.1369 -0.0095
95228W        W38140  12.056  29.602   0.090  0.0318  0.1370 -0.2071
95229W        W38141  14.224  25.851   2.809  0.0423  0.1224 -0.0317
95230W        W38142  10.688  28.712   1.004 -0.2020  0.0007  0.0650
95231W        W38143  12.065  27.400   0.826 -0.2191  0.1787  0.1635
95232W        W38144  10.764  27.368  31.738  0.0027  0.0457  0.1276
95233W        W38145  13.156  25.112   1.534 -0.2097 -0.3326  0.1013
95234W        W38146  16.099  26.140  31.620  0.0297 -0.0398 -0.0360
95235W        W38147  10.701  25.018   0.958  0.1153  0.0863 -0.3486
95236W        W38148  11.458  26.208   0.786 -0.2450 -0.0659  0.0032
95237W        W38149  12.924  29.522   0.635 -0.0899 -0.0808 -0.0898
95238W        W38150  13.129  27.052   1.660 -0.1140 -0.0029  0.0704
95239W        W38151  13.041  27.147   0.821  0.0021  0.3252 -0.2628
95240W        W38152  12.904  28.583   3.028 -0.0613 -0.4178  0.1861
95241W        W38153  12.995  27.779   3.809  0.2271 -0.2439  0.0173
95242W        W38154  11.966  25.163  31.288 -0.1986  0.3951  0.2201
95243W        W38155  13.426  26.976   2.978 -0.0331 -0.1535  0.1160
95244W        W38156  12.642  26.596   0.750  0.2149  0.1518  0.1733
95245W        W38157  12.215  27.812   1.110  0.0692 -0.3486 -0.0464
95246W        W38158  14.364  28.627   3.015 -0.1885  0.0976 -0.0368
95247W        W38159  13.001  27.515   0.325 -0.0877  0.1381  0.2943
95248W        W38160  12.103  28.353   0.589 -0.1361 -0.2482 -0.1644
95249W        W38161  11.952  27.279   3.579 -0.2893  0.0046 -0.0438
95250W        W38162  13.666  27.552   2.791  0.0123 -0.2456 -0.2231
95251W        W38163  11.552  26.489   1.571  0.1964  0.1176  0.0458
95252W        W38164  11.106  26.522   1.071 -0.0079  0.0750 -0.1850
95253W        W38165  11.761  26.986   0.753  0.0020  0.0133 -0.1452
95254W        W38166  13.916  27.187   2.967  0.1248  0.0069 -0.1734
95255W        W38167  12.622  25.707   1.987 -0.0765  0.3556 -0.0438
95256W        W38168  12.616  27.101   4.734  0.0113  0.2103  0.0747
95257W        W38169  12.660  24.676   0.750  0.0756 -0.0093  0.0008
95258W        W38170  14.255  29.354   0.575 -0.0239 -0.0077 -0.1707
95259W        W38171  13.801  26.654   2.856  0.0988 -0.0465  0.1310
95260W        W38172  12.462  27.401   0.298  0.0085  0.1192  0.2538
95261W        W38173  12.621  27.281   1.679  0.1154 -0.0566 -0.1169
95262W        W38174  11.776  27.233   1.207 -0.0501  0.2155  0.0808
95263W        W38175  12.805  25.850   2.471 -0.2644 -0.0537 -0.4431
95264W        W38176  11.689  28.536   3.426 -0.2214  0.0599  0.0615
95265W        W38177  13.557  27.198   1.421 -0.0288 -0.0160  0.1852
95266W        W38178  11.697  28.029   2.352  0.1305  0.1200 -0.0324
95267W        W38179  14.979  25.667  30.890 -0.2784 -0.0709  0.0629
95268W        W38180  13.887  27.754   1.099  0.0137 -0.2784  0.0836
95269W        W38181  13.723  27.106   2.527  0.0688  0.0026 -0.6108
95270W        W38182  14.519  24.837   3.840 -0.1760  0.0320  0.3204
95271W        W38183  13.066  26.768  31.944  0.1018  0.0481  0.0800
95272W        W38184  14.098  25.744   3.295 -0.2241  0.1387  0.1159
95273W        W38185  12.881  25.346   2.413 -0.0265  0.0794  0.0408
95274W        W38186  14.638  26.369   1.027 -0.0480  0.1170 -0.0426
95275W        W38187  11.321  26.103   1.300  0.3167 -0.0963  0.2010
95276W        W38188  12.088  29.299   3.263 -0.0797 -0.0599  0.2060
95277W        W38189  12.040  28.716   3.877 -0.4101 -0.2184 -0.0639
95278W        W38190  13.558  27.929   0.749  0.0801 -0.1628  0.3756
95279W        W38191  12.414  24.961  31.230 -0.0093  0.2985  0.1986
95280W        W38192  12.467  28.333   1.973  0.0114 -0.2168  0.1815
95281W        W38193  13.599  27.627   1.634  0.0032 -0.1580 -0.3092
95282W        W38194  12.592  28.629   0.902  0.1410 -0.1925  0.2832
95283W        W38195  14.590  25.605   1.749 -0.0022 -0.1245  0.2744
95284W        W38196  10.797  26.320   2.622  0.0922 -0.1675 -0.0950
95285W        W38197  14.150  25.458   0.187 -0.1097 -0.1166  0.3166
95286W        W38198  13.355  27.581   1.084  0.3347  0.1579  0.2957
95287W        W38199  12.792  28.708   1.366  0.1220 -0.0260  0.0737
95288W        W38200  13.267  25.975   3.125  0.2735 -0.0977  0.0775
95289W        W38201  14.199  26.293   1.238  0.0643 -0.4777  0.1851
95290W        W38202  12.788  25.278  30.961 -0.2214 -0.0956  0.0954
95291W        W38203  15.360  26.367   1.956  0.0583 -0.1114 -0.1576
95292W        W38204  12.477  25.433   1.449  0.1250  0.0823 -0.1193
95293W        W38205  12.506  25.919   3.355 -0.5049  0.1822  0.2397
95294W        W38206  10.153  24.862   3.036  0.1270  0.1994 -0.0257
95295W        W38207  15.133  28.932   3.406  0.0194  0.2042 -0.0769
95296W        W38208  14.783  25.046   0.535  0.0320  0.0942 -0.0450
95297W        W38209  14.023  26.736   3.773  0.1772 -0.2280 -0.1245
95298W        W38210  14.586  26.797   0.476 -0.3987  0.2076  0.2727
95299W        W38211  12.866  25.765  31.729  0.1643  0.0529 -0.0897
95300W        W38212  12.360  26.172   0.634  0.3446 -0.0292 -0.1223
95301W        W38213  12.791  26.567   3.848 -0.1258 -0.0843  0.1929
95302W        W38214  11.854  25.495  30.850  0.2609 -0.2305 -0.0861
95303W        W38215  13.286  26.050   2.286 -0.3434 -0.1382  0.0368
95304W        W38216  13.273  29.174   0.148 -0.2553 -0.3605 -0.1169
95305W        W38217  12.573  29.699   2.598  0.2467 -0.0116 -0.3130
95306W        W38218  12.901  26.164   0.883 -0.1166 -0.1630 -0.1834
95307W        W38219  11.728  26.620   0.337 -0.1149 -0.1150 -0.2741
95308W        W38220  11.667  28.587   5.285  0.0498 -0.0465  0.0869
95309W        W38221  12.757  27.173  31.492 -0.2906  0.0413 -0.1328
95310W        W38222  10.562  26.715   0.474  0.0372  0.0186  0.1626
95311W        W38223  12.061  28.611   1.554 -0.2931  0.1585 -0.0494
95312W        W38224  15.157  26.870   4.136 -0.1250  0.0901  0.1691
95313W        W38225  13.793  24.912  29.873  0.4617  0.1192 -0.0709
95314W        W38226  15.142  26.058   2.431  0.2253  0.0008 -0.0439
95315W        W38227  11.698  28.035   0.139 -0.0390 -0.0878 -0.2569
95316W        W38228  12.966  25.082   1.986  0.3368 -0.0181 -0.0539
95317W        W38229  12.481  29.543   3.175 -0.0010  0.0808 -0.1299
95318W        W38230  12.906  27.951   2.472  0.0098  0.3855 -0.2545
95319W        W38231  13.126  29.214   1.131  0.1793 -0.0727  0.0318
95320W        W38232  12.178  25.856   0.955 -0.0503  0.1033  0.1052
95321W        W38233  13.485  27.230   2.026  0.0388 -0.0684 -0.1510
95322W        W38234  10.968  26.319   2.171 -0.0285  0.1305  0.0649
95323W        W38235  15.237  25.566   2.608  0.1581 -0.0696 -0.2481
95324W        W38236  13.590  28.911   3.269  0.1322 -0.1145  0.1968
95325W        W38237  11.720  26.665   1.168 -0.1398  0.2615  0.1470
95326W        W38238  13.326  27.863   3.342 -0.2660 -0.2506  0.0203
95327W        W38239  14.473  27.100   0.964  0.0834  0.0110  0.0920
95328W        W38240  11.815  26.829   1.829  0.0025 -0.0542  0.2244
95329W        W38241  11.036  25.719   3.417  0.1905  0.1042  0.0432
95330W        W38242  11.774  26.655   2.833  0.0350  0.2021 -0.2152
95331W        W38243  12.693  26.697   1.293 -0.0710  0.1167  0.2948
95332W        W38244  12.714  26.215  31.463 -0.0539 -0.3813  0.1506
95333W        W38245  13.132  28.745   0.938 -0.1679 -0.1111 -0.2150
95334W        W38246  12.077  27.256   1.712 -0.0553 -0.0283  0.0790
95335W        W38247  12.482  26.588   3.496 -0.2044 -0.3724 -0.0189
95336W        W38248  12.260  28.195   0.193 -0.2154  0.1270 -0.0441
95337W        W38249  12.882  28.290   1.109  0.1342 -0.0340  0.2004
95338W        W38250  14.554  29.431   1.334 -0.2662  0.2366 -0.1912
95339W        W38251  13.651  28.434   2.338  0.1051  0.2294  0.1048
95340W        W38252  13.797  27.009  30.192 -0.1063  0.1773 -0.0805
95341W        W38253  12.397  28.254   1.304  0.1996  0.1569  0.0275
95342W        W38254  10.895  27.393  31.110  0.1167 -0.0118  0.1701
95343W        W38255  14.128  28.390  31.322  0.0230 -0.0668  0.1610
95344W        W38256  12.465  29.612   1.570 -0.1140 -0.0349 -0.3096
95345W        W38257  13.960  28.601   3.433  0.0105 -0.0627 -0.3750
95346W        W38258  13.937  24.912   0.773 -0.0175  0.2610 -0.1348
95347W        W38259  14.626  26.976   2.027  0.0110  0.1702  0.1982
95348W        W38260  13.806  26.101   0.415 -0.2179  0.1140 -0.4208
95349W        W38261  15.031  28.295   4.211  0.0445 -0.0141 -0.1258
95350W        W38262  12.440  27.109   2.114  0.2690 -0.1220 -0.0839
95351W        W38263  11.235  27.284  30.745  0.0717  0.3019 -0.2106
95352W        W38264  12.663  27.120   2.980  0.0362 -0.0739 -0.2015
95353W        W38265  16.167  25.222   2.422  0.1267 -0.0636 -0.1543
95354W        W38266  11.197  28.541   3.350 -0.1585 -0.2306 -0.2974
95355W        W38267  13.949  29.732   2.920  0.1331 -0.1028  0.2391
95356W        W38268  12.086  27.180   0.119  0.0190  0.2248 -0.1603
95357W        W38269  12.195  26.660  31.824 -0.0343  0.0712  0.0006
95358W        W38270  13.174  26.996   2.322  0.1177  0.1548  0.0592
95359W        W38271  13.292  28.014   1.289 -0.0002 -0.0601  0.0535
95360W        W38272  12.228  26.800   0.465  0.0050 -0.2399  0.1968
95361W        W38273  12.759  27.812   1.269  0.0827 -0.2037 -0.1512
95362W        W38274  11.372  29.135  31.622 -0.0195  0.0872 -0.1640
95363W        W38275  11.813  29.090   1.583 -0.1871 -0.0843 -0.2540
95364W        W38276  11.562  27.086   0.199  0.0856  0.1035 -0.0265
95365W        W38277  14.868  26.584   2.292  0.4042  0.1882 -0.0436
95366W        W38278  13.000  27.350   2.018 -0.1412  0.0974  0.1328
95367W        W38279  14.263  25.751   2.292 -0.1081 -0.1725 -0.1934
95368W        W38280  12.688  26.798   2.403 -0.0351  0.2910  0.1790
95369W        W38281  13.115  26.510   1.591 -0.0019  0.2560  0.0091
95370W        W38282  11.356  27.111   4.192 -0.2107 -0.3299  0.1383
95371W        W38283  11.412  26.433   2.504  0.0309 -0.0166  0.1598
95372W        W38284  13.636  29.217   1.257 -0.4071 -0.0537 -0.0626
95373W        W38285  14.942  27.342   3.186 -0.6034 -0.0076 -0.0280
95374W        W38286  12.623  25.916  30.794 -0.0614 -0.0316  0.1221
95375W        W38287  12.360  30.274   3.197  0.2605 -0.3362 -0.0943
95376W        W38288  11.824  26.178   1.223 -0.1905 -0.2043 -0.1032
95377W        W38289  13.518  26.285   0.751  0.0520  0.2367 -0.3086
95378W        W38290  11.216  26.878   1.553 -0.1240 -0.1336  0.0108
95379W        W38291  12.467  27.136   3.452 -0.0221 -0.0355  0.1323
95380W        W38292  12.758  28.119   3.076 -0.0770  0.1506 -0.2667
95381W        W38293  11.745  26.134  31.872 -0.1764  0.2379 -0.3562
95382W        W38294  14.674  27.462  30.666  0.0692 -0.1922 -0.1486
95383W        W38295  12.348  26.350   1.148  0.0703 -0.1593 -0.0443
95384W        W38296  13.208  28.013   0.395 -0.4501 -0.1707 -0.0138
95385W        W38297  14.690  26.970   2.542 -0.2832  0.0825  0.0112
95386W        W38298  14.664  28.186   2.861 -0.1119  0.0333 -0.2082
95387W        W38299  10.902  24.407   2.248 -0.0357  0.1568  0.1540
95388W        W38300  13.743  27.559   3.312 -0.0419 -0.0233 -0.0626
95389W        W38301  14.156  28.715   2.540 -0.1218 -0.1549  0.0735
95390W        W38302  12.878  25.982  30.369 -0.2523 -0.2601  0.3932
95391W        W38303  12.211  25.965   1.488 -0.0660 -0.0567  0.0649
95392W        W38304  11.986  27.610   2.064  0.2070 -0.3463  0.1208
95393W        W38305  14.249  26.598   2.211 -0.1000  0.3523  0.1895
95394W        W38306  14.564  26.560   2.792  0.0081  0.0197 -0.0332
95395W        W38307  12.897  27.602  30.554 -0.0032 -0.0766 -0.1107
95396W        W38308  14.362  25.428   3.538  0.3409  0.1788 -0.1204
95397W        W38309  10.907  27.396   1.273 -0.2645  0.4486  0.0823
95398W        W38310  11.702  27.655   3.136  0.1362 -0.1912  0.0308
95399W        W38311  11.216  26.287  31.781 -0.0239 -0.2930  0.1113
95400W        W38312  12.440  28.560   2.895 -0.3325  0.1596 -0.0117
95401W        W38313  11.993  28.399   2.162 -0.0815  0.4369 -0.1347
95402W        W38314  13.753  29.777   1.698 -0.3535  0.2367 -0.0217
95403W        W38315  14.471  27.733   2.897  0.0708 -0.0231  0.2951
95404W        W38316  12.866  27.174   1.264 -0.1829 -0.3093 -0.1035
95405W        W38317  15.312  27.246   1.467 -0.1133 -0.1016 -0.0168
95406W        W38318  11.596  26.756  31.846  0.3721 -0.1019  0.0927
95407W        W38319  13.696  25.860   2.038 -0.0361  0.1062 -0.1958
95408W        W38320  14.022  26.076  30.565 -0.2858 -0.2908 -0.0300
95409W        W38321  11.512  28.539   2.953 -0.1080  0.1089 -0.1329
95410W        W38322  11.468  26.548  30.916 -0.1039 -0.0944 -0.0185
95411W        W38323  12.604  27.867   0.324 -0.1144 -0.0662  0.1288
95412W        W38324  12.039  27.639   2.616 -0.0876  0.1040  0.2180
95413W        W38325  14.088  26.137   3.606 -0.0270  0.0523  0.1615
95414W        W38326  11.923  25.503   1.522 -0.0634  0.1186 -0.2019
95415W        W38327  12.530  26.163   2.752 -0.2292 -0.0440  0.1647
95416W        W38328  12.058  25.687   0.176 -0.2002  0.1368  0.2642
95417W        W38329  14.657  30.134   0.935 -0.0859  0.4747 -0.2109
95418W        W38330  11.178  24.685   1.295  0.0063  0.1400 -0.2044
95419W        W38331  10.988  26.420   0.554 -0.4043 -0.2934 -0.2231
95420W        W38332  15.035  27.496   1.980  0.0525 -0.0199  0.2337
95421W        W38333  14.968  27.097   0.699  0.3433  0.2100 -0.1315
95422W        W38334  11.404  25.381   0.579 -0.0736  0.0732 -0.0506
95423W        W38335  15.783  28.228   4.974 -0.0424 -0.1881  0.1499
95424W        W38336  11.779  28.606   0.170  0.1328 -0.1558  0.2036
95425W        W38337  12.634  26.598   2.954 -0.0253  0.2487  0.2159
95426W        W38338  15.080  24.906   2.970 -0.0845  0.1751 -0.3000
95427W        W38339  11.869  26.008   0.528 -0.1423 -0.4678  0.0531
95428W        W38340  11.984  27.153   2.254 -0.0137  0.2887  0.0490
95429W        W38341  12.318  28.668   2.428  0.0871  0.1361  0.2162
95430W        W38342  13.294  28.946   1.509  0.4907  0.2592  0.1247
95431W        W38343  11.603  28.994   3.172 -0.1546  0.1230 -0.0858
95432W        W38344  11.768  29.778   3.216  0.0904 -0.2235  0.2082
95433W        W38345  10.938  26.002   0.963 -0.1456  0.2014  0.1462
95434W        W38346  13.843  28.288   0.946 -0.0599  0.2214  0.1013
95435W        W38347  13.751  27.579   2.205  0.0094  0.0500  0.2148
95436W        W38348  14.712  27.504   0.848 -0.1025 -0.1974 -0.1553
95437W        W38349  14.124  26.546   1.704  0.0622  0.0228 -0.1459
95438W        W38350  13.736  26.398   1.227 -0.2168 -0.2917  0.0718
95439W        W38351  10.461  23.556   3.186 -0.1690 -0.0286  0.1390
95440W        W38352  12.261  28.316   3.307 -0.1553  0.0652  0.0868
95441W        W38353  13.407  28.370   3.243  0.1498 -0.0832 -0.5415
95442W        W38354  12.578  25.444   0.138  0.0607 -0.1852 -0.2959
95443W        W38355  14.456  26.409  30.739 -0.0832  0.0391  0.4414
95444W        W38356  13.371  27.466  31.659 -0.0923  0.1109  0.3676
95445W        W38357  11.141  26.506   2.934 -0.0362 -0.0043  0.0094
95446W        W38358  12.624  27.583   0.734 -0.1147 -0.1734 -0.1612
95447W        W38359  11.134  27.132   2.001 -0.1769  0.1359 -0.1993
95448W        W38360  13.282  27.751   2.040 -0.0432 -0.1495 -0.0767
95449W        W38361  15.327  26.522   3.677  0.0944  0.2030 -0.0638
95450W        W38362  11.289  27.283   0.624  0.2545  0.2323 -0.2286
95451W        W38363  14.421  27.300   0.433 -0.2136  0.0874  0.3495
95452W        W38364  14.284  29.378   3.030 -0.3222  0.1220  0.0012
95453W        W38365  14.308  29.526   4.116  0.1504  0.0118 -0.1090
95454W        W38366  12.708  28.889   4.750  0.0191  0.0703 -0.2152
95455W        W38367  13.812  28.069   2.052  0.1208  0.1245  0.1998
95456W        W38368  12.546  23.816   1.415 -0.0850 -0.2152 -0.0409
95457W        W38369  11.367  26.734   0.597  0.0498  0.0464 -0.0800
95458W        W38370  12.294  28.880   3.428  0.0448  0.0216 -0.1233
95459W        W38371  14.883  26.133   1.972  0.0877  0.2786  0.1391
95460W        W38372  13.053  25.236   0.993 -0.3175 -0.1616  0.1391
95461W        W38373  11.791  26.181  30.982  0.2068  0.0142 -0.0374
95462W        W38374  12.850  28.249   1.651 -0.2824 -0.2937  0.0776
95463W        W38375  14.180  27.420   2.604  0.2213 -0.1717 -0.1531
95464W        W38376  11.476  28.482   6.775 -0.1577  0.0866 -0.1279
95465W        W38377  11.837  27.415   4.400 -0.4255 -0.2684  0.1767
95466W        W38378  14.188  25.905   4.849  0.1618  0.1576 -0.0897
95467W        W38379  15.130  26.340   4.463  0.0136  0.1622  0.0302
95468W        W38380  11.413  26.418   4.754 -0.0960 -0.0871 -0.2194
95469W        W38381  13.500  27.924   4.776 -0.0173  0.0038  0.2654
95470W        W38382  11.454  25.437   5.716 -0.0739 -0.0763  0.1534
95471W        W38383  14.644  27.344   5.795 -0.0088  0.0046 -0.2126
95472W        W38384  13.987  27.312   4.775  0.2591  0.2202 -0.0888
95473W        W38385  12.806  27.536   3.280  0.1095  0.1928 -0.0074
95474W        W38386  12.383  25.484   7.205 -0.0528 -0.0210 -0.0421
95475W        W38387  13.472  28.374   5.679  0.0546  0.4017  0.0899
95476W        W38388  11.674  25.614   3.242  0.0881  0.2460 -0.0980
95477W        W38389  11.389  24.925   5.834  0.0292  0.0520  0.1939
95478W        W38390  15.048  26.659   4.976  0.3203  0.1061  0.4404
95479W        W38391  11.042  27.272   3.737 -0.2009 -0.0478  0.1637
95480W        W38392  11.971  26.736   6.615 -0.3858  0.1202 -0.2444
95481W        W38393  11.895  26.349   3.907 -0.0289 -0.0350 -0.2211
95482W        W38394  13.961  29.296   3.808  0.0081  0.1596  0.2826
95483W        W38395  11.015  25.479   6.901  0.2583 -0.2936 -0.2898
95484W        W38396  13.011  26.254   6.559  0.0590 -0.0598  0.1484
95485W        W38397  13.104  28.198   4.822  0.0204 -0.0477  0.0827
95486W        W38398  11.967  26.767   3.533 -0.2503 -0.0488  0.0397
95487W        W38399  11.317  26.424   5.677 -0.0415 -0.0153  0.0610
95488W        W38400  12.532  26.585   6.464 -0.2791  0.3384  0.2364
95489W        W38401  13.535  26.851   6.779  0.0495 -0.1235 -0.4540
95490W        W38402  14.118  27.202   4.234 -0.3698 -0.1035  0.0048
95491W        W38403  13.694  27.831   5.293  0.5314 -0.0558 -0.0940
95492W        W38404  14.095  27.282   5.391  0.2417 -0.1621 -0.1195
95493W        W38405  13.951  28.264   7.472 -0.1923  0.0881  0.0297
95494W        W38406  10.911  27.544   4.105 -0.0396 -0.3133  0.0943
95495W        W38407  12.100  29.741   6.015 -0.0352 -0.0735 -0.3490
95496W        W38408  13.447  28.579   4.753  0.0267  0.0506 -0.1504
95497W        W38409  14.507  27.206   5.075 -0.0232 -0.1517 -0.0243
95498W        W38410  14.511  28.278   5.713 -0.0915  0.1897  0.2432
95499W        W38411  13.804  27.967   5.749  0.1595  0.0196  0.0905
95500W        W38412  10.332  28.434   3.200  0.0006 -0.1751  0.1957
95501W        W38413  13.926  28.205   6.481 -0.2015 -0.0364  0.2052
95502W        W38414  12.994  28.198   5.956  0.0144  0.3979 -0.0082
95503W        W38415  12.217  26.996   6.238  0.1144  0.1018  0.0022
95504W        W38416  12.286  27.106   5.141  0.0771  0.0336  0.2277
95505W        W38417  14.312  28.912   3.791 -0.4179 -0.2632 -0.1484
95506W        W38418  13.251  26.735   5.593  0.0012  0.0830 -0.0776
95507W        W38419  12.932  28.374   7.447 -0.0125  0.0711 -0.1453
95508W        W38420  12.139  27.633   5.099  0.2592 -0.1004 -0.1393
95509W        W38421  15.389  25.505   7.064 -0.1603 -0.1277 -0.0710
95510W        W38422  12.380  27.980   4.225 -0.0583 -0.1231 -0.1770
95511W        W38423  13.622  25.147   2.753 -0.0152 -0.2587  0.1961
95512W        W38424  14.279  27.684   4.556  0.1093 -0.3462  0.2561
95513W        W38425  14.705  26.026   2.875  0.2441 -0.1083  0.1364
95514W        W38426  13.005  25.157   3.580  0.0150  0.1579 -0.2190
95515W        W38427  12.949  28.521   4.500  0.1003 -0.3231 -0.1980
95516W        W38428  12.123  25.145   4.988 -0.1897  0.1930  0.4432
95517W        W38429  15.461  27.204   6.163 -0.1199 -0.0588  0.1648
95518W        W38430  13.173  26.735   4.146 -0.1160 -0.1610 -0.4100
95519W        W38431  13.740  26.991   5.631  0.0703  0.2839 -0.1316
95520W        W38432  11.289  28.908   6.566  0.0069 -0.1008 -0.0728
95521W        W38433  12.177  28.454   6.945  0.0359 -0.2944  0.1883
95522W        W38434  13.822  27.589   4.282 -0.2179  0.1134  0.2273
95523W        W38435  14.944  27.570   3.698 -0.0025  0.0714 -0.2459
95524W        W38436  12.909  28.024   4.328 -0.1384  0.0599 -0.1017
95525W        W38437  11.767  25.746   4.632 -0.0051 -0.0018 -0.2346
95526W        W38438  10.963  27.181   7.072  0.2523  0.2072 -0.0414
95527W        W38439  13.189  27.662   5.565  0.0981  0.1097  0.0953
95528W        W38440  11.307  25.266   3.324 -0.2798 -0.1252  0.1372
95529W        W38441  14.515  28.074   6.627  0.2416  0.0052 -0.1669
95530W        W38442  11.445  28.265   6.283 -0.0991 -0.0016 -0.0874
95531W        W38443  15.843  26.577   6.147  0.1302  0.2789  0.1857
95532W        W38444  12.634  26.880   5.488  0.1525  0.0948  0.0522
95533W        W38445  14.441  27.598   6.354 -0.0866 -0.0496 -0.1372
95534W        W38446  12.875  27.209   3.706  0.1689  0.2195  0.0770
95535W        W38447  13.820  26.374   6.887  0.1810 -0.2270  0.3157
95536W        W38448  12.473  25.466   5.166 -0.3374 -0.0986  0.2124
95537W        W38449  12.090  28.187   3.823 -0.0535 -0.0925  0.2077
95538W        W38450  14.943  26.810   3.576  0.2311  0.2059  0.0833
95539W        W38451  13.682  27.964   7.186  0.0979  0.0003  0.0091
95540W        W38452  15.266  25.986   5.559 -0.0923  0.3703  0.3013
95541W        W38453  11.784  27.808   5.801  0.2564  0.1340  0.2709
95542W        W38454  12.704  25.258   7.683  0.1783 -0.1315 -0.2588
95543W        W38455  13.756  28.857   7.455  0.1015  0.0459 -0.2976
95544W        W38456  11.416  29.301   3.653 -0.0593 -0.0405 -0.2181
95545W        W38457  12.013  27.454   6.510  0.0316  0.1656 -0.1354
95546W        W38458  11.428  28.267   3.968  0.2153 -0.1173  0.0614
95547W        W38459  10.802  26.253   5.686 -0.0674  0.1797 -0.0435
95548W        W38460  12.592  27.398   5.553  0.2198  0.1777 -0.2753
95549W        W38461  14.509  24.938   6.245  0.2363  0.1491  0.0503
95550W        W38462  11.260  25.157   5.257 -0.1344 -0.3171 -0.0427
95551W        W38463  14.028  26.134   4.148  0.0425  0.3449 -0.1007
95552W        W38464  12.403  28.292   5.582  0.2249  0.0754  0.0079
95553W        W38465  14.927  30.061   5.397 -0.0222 -0.2785 -0.0198
95554W        W38466  13.623  25.246   6.061 -0.0004  0.0843 -0.0518
95555W        W38467  14.484  26.966   3.983 -0.2829 -0.0949  0.0911
95556W        W38468  11.707  26.758   5.472 -0.1617  0.0190 -0.1854
95557W        W38469  12.439  26.215   4.566 -0.0971 -0.1147 -0.2845
95558W        W38470  11.452  25.746   7.079  0.1524 -0.0402 -0.2189
95559W        W38471  12.328  25.144   3.653 -0.0486 -0.3197 -0.1939
95560W        W38472  13.137  28.131   6.964 -0.0068  0.1410 -0.0102
95561W        W38473  10.854  26.107   3.644 -0.2064 -0.0926 -0.1854
95562W        W38474  12.037  26.163   4.886  0.0908  0.1037  0.0820
95563W        W38475  12.178  26.994   4.477 -0.0736  0.0014  0.0360
95564W        W38476  10.966  28.538   5.064 -0.4159  0.0993 -0.1720
95565W        W38477  12.793  24.790   6.630  0.1877 -0.0838  0.0341
95566W        W38478  13.999  28.137   4.046  0.0111 -0.0404  0.3338
95567W        W38479  14.609  29.078   5.225  0.1904  0.0899  0.0797
95568W        W38480  14.926  28.559   4.894  0.1293 -0.1450  0.1600
95569W        W38481  11.131  24.472   6.036 -0.3567 -0.0062 -0.1488
95570W        W38482  12.036  25.801   3.724 -0.4158  0.1973  0.1525
95571W        W38483  10.722  28.142   6.275 -0.1551  0.1933  0.4390
95572W        W38484  12.339  26.673   4.824 -0.0640  0.0398  0.1988
95573W        W38485  12.251  25.690   4.747 -0.2756 -0.1214 -0.2375
95574W        W38486  14.989  28.101   4.685  0.0237  0.0158 -0.0049
95575W        W38487  13.510  27.436   4.659  0.0707 -0.3367  0.2291
95576W        W38488  11.934  27.011   4.088 -0.3945 -0.2827 -0.1993
95577W        W38489  12.779  27.349   7.018  0.2235 -0.1227 -0.2307
95578W        W38490  13.302  27.207   7.252  0.2878  0.1271  0.1544
95579W        W38491  12.652  26.134   4.146 -0.1737 -0.1210  0.2037
95580W        W38492  11.442  25.246   4.364  0.1248  0.0981 -0.0885
95581W        W38493  14.769  28.086   3.748 -0.0809 -0.3843  0.1147
95582W        W38494  11.636  30.022   4.499 -0.3141  0.1875 -0.0437
95583W        W38495  11.518  27.073   5.792 -0.2566  0.2390 -0.2190
95584W        W38496  14.416  28.625   5.100  0.5542 -0.0120  0.2596
95585W        W38497  12.206  25.385   4.034 -0.1033  0.4010 -0.0111
95586W        W38498  11.733  27.286   5.279  0.1939 -0.1535 -0.1133
95587W        W38499  12.574  28.188   7.163 -0.0037 -0.1514  0.3287
95588W        W38500  10.697  26.229   3.144  0.3402 -0.3496  0.0617
95589W        W38501  11.021  28.638   6.932 -0.2507  0.2616 -0.0110
95590W        W38502  12.104  27.652   3.985 -0.1385 -0.0984 -0.1148
95591W        W38503  14.498  25.487   4.033 -0.1498  0.0127 -0.2551
95592W        W38504  13.363  27.244   6.350  0.2328 -0.0925  0.2482
95593W        W38505  14.848  25.814   5.692 -0.1529  0.0960  0.1909
95594W        W38506  14.106  26.357   2.613 -0.2828 -0.1589  0.0508
95595W        W38507  13.716  25.916   4.454  0.1086 -0.2260 -0.0346
95596W        W38508  11.853  28.144   6.828  0.2855 -0.0802 -0.2058
95597W        W38509  12.131  28.757   4.924  0.2231  0.1464  0.0218
95598W        W38510  12.999  28.271   5.433  0.1316  0.0114 -0.2320
95599W        W38511  13.018  25.864   3.558  0.0572 -0.2829  0.0496
95600W        W38512  14.375  29.021   4.815 -0.0917 -0.1646  0.0078
95601W        W38513   9.993  28.029   5.183  0.1681  0.0360  0.0055
95602W        W38514  13.880  28.460   8.001  0.1004  0.2717 -0.1808
95603W        W38515  13.152  26.526   4.800  0.2300 -0.0735  0.2299
95604W        W38516  12.079  24.991   5.725  0.3005  0.0399 -0.1009
95605W        W38517  13.652  26.930   4.095 -0.0163  0.0620  0.1124
95606W        W38518  14.220  26.320   5.128  0.0258 -0.1123  0.2373
95607W        W38519  11.862  29.488   4.575  0.3702  0.0576  0.0845
95608W        W38520  13.711  27.165   7.493  0.2135 -0.0464 -0.2086
95609W        W38521  12.886  25.809   5.980  0.0619  0.0001 -0.1153
95610W        W38522  11.231  24.245   5.611  0.0642 -0.0493 -0.2306
95611W        W38523  14.046  27.724   8.315  0.0320  0.0431  0.2427
95612W        W38524  15.628  26.483   4.221 -0.1414 -0.0690 -0.1153
95613W        W38525  13.858  25.952   5.510 -0.1979 -0.0355  0.3721
95614W        W38526  12.145  26.333   3.018 -0.2871  0.2906 -0.0874
95615W        W38527  12.188  26.481   5.318  0.1036 -0.0343  0.2387
95616W        W38528  13.530  28.147   6.208  0.0440 -0.1297 -0.0774
95617W        W38529  12.632  29.153   6.519  0.1554 -0.2088  0.1074
95618W        W38530  14.316  27.107   6.511 -0.2713  0.2240  0.2102
95619W        W38531  15.490  27.913   4.663  0.0424  0.0872  0.2088
95620W        W38532  12.273  26.016   7.655 -0.0666  0.0276  0.1555
95621W        W38533  12.230  25.454   3.278 -0.0833  0.0934 -0.0398
95622W        W38534  13.874  28.772   4.006 -0.0183  0.2166 -0.0140
95623W        W38535  14.231  26.866   4.618 -0.0139 -0.1822 -0.1505
95624W        W38536  11.718  24.767   5.120 -0.1315  0.2092 -0.3001
95625W        W38537  12.210  27.835   6.148 -0.0927  0.0081  0.1164
95626W        W38538  12.587  28.488   4.129 -0.0682  0.1905  0.1107
95627W        W38539  13.864  27.189   6.043  0.3891  0.1268 -0.4575
95628W        W38540  13.532  28.131   4.344 -0.2579 -0.0210 -0.2242
95629W        W38541  12.854  26.150   7.793 -0.0324 -0.5516 -0.0549
95630W        W38542  12.253  27.800   5.568  0.0521 -0.1485  0.0249
95631W        W38543  11.013  26.827   4.517  0.4476  0.2162 -0.1565
95632W        W38544  11.690  26.146   2.811  0.1316  0.2050  0.0750
95633W        W38545  14.581  25.954   5.262  0.0932 -0.0664  0.2016
95634W        W38546  15.777  27.250   5.272  0.0200  0.0910  0.0040
95635W        W38547  11.925  26.266   5.670  0.0395  0.3181 -0.0620
95636W        W38548  12.177  24.662   5.330 -0.1030 -0.0286  0.2392
95637W        W38549  10.913  29.066   6.287 -0.0731  0.0286  0.0082
95638W        W38550  12.937  27.879   7.389  0.0433 -0.5395  0.0632
95639W        W38551  15.731  26.819   3.859  0.2478 -0.1314  0.5667
95640W        W38552  14.816  26.998   5.439  0.1331 -0.1572  0.1764
95641W        W38553  11.671  26.372   6.954  0.0492  0.0793 -0.1576
95642W        W38554  11.817  25.006   4.167  0.2273 -0.1367 -0.0275
95643W        W38555  14.029  26.579   5.912  0.1115  0.2142  0.1240
95644W        W38556  13.048  26.719   6.406 -0.1627 -0.1216  0.2062
95645W        W38557  11.565  27.591   4.780 -0.1579 -0.0297 -0.1583
95646W        W38558  13.501  26.236   5.264  0.2310  0.3424  0.2601
95647W        W38559  11.049  26.250   4.100  0.0792  0.1776  0.0846
95648W        W38560  12.999  27.614   4.665  0.1087  0.0738  0.0365
95649W        W38561  11.333  26.014   6.698  0.1728  0.1968 -0.0270
95650W        W38562  13.996  27.024   7.013 -0.1101  0.1161  0.2119
95651W        W38563  12.896  25.267   5.086  0.0871 -0.2317 -0.0790
95652W        W38564  11.828  26.630   4.921  0.0188 -0.3743 -0.0869
95653W        W38565  12.993  26.397   5.310 -0.2130  0.0149  0.0226
95654W        W38566  14.164  27.542   5.927 -0.2297 -0.0610  0.0481
95655W        W38567  14.312  26.779   5.454  0.0610  0.1230  0.1189
95656W        W38568  11.928  27.888   7.850 -0.1318 -0.1700 -0.1109
95657W        W38569  12.762  24.647   5.266 -0.0314 -0.4421  0.1074
95658W        W38570  14.580  29.504   4.840  0.0497  0.0505 -0.1126
95659W        W38571  14.329  28.489   7.018  0.2230  0.2578  0.3280
95660W        W38572  10.524  26.633   4.318  0.1161 -0.0012 -0.2847
95661W        W38573  10.733  26.636   6.164 -0.0648  0.0806  0.0091
95662W        W38574  12.304  26.598   4.162 -0.3160  0.2125  0.0484
95663W        W38575  12.732  25.818   5.429 -0.0730  0.1875  0.2795
95664W        W38576  11.121  27.402   6.669  0.2020  0.2957  0.2421
95665W        W38577  11.609  28.604   4.297  0.1461  0.0167 -0.0927
95666W        W38578  11.947  28.384   6.369 -0.0084  0.0083 -0.0710
95667W        W38579  14.921  24.987   4.922 -0.1475 -0.0443  0.0173
95668W        W38580  13.886  26.552   4.356 -0.2277 -0.1387  0.0690
95669W        W38581  13.846  25.353   3.456 -0.1752  0.3813 -0.0471
95670W        W38582  14.452  26.973   7.117 -0.0797 -0.0061 -0.2406
95671W        W38583  13.817  26.531   4.861  0.1318 -0.3683 -0.0323
95672W        W38584  13.636  25.210   7.189 -0.0564 -0.3229 -0.0034
95673W        W38585  11.512  25.800   6.116 -0.0219  0.2338 -0.1580
95674W        W38586  14.541  26.692   4.995  0.0039 -0.1335 -0.0032
95675W        W38587  11.210  26.739   6.109 -0.0230  0.1516  0.0972
95676W        W38588  14.196  27.917   7.171 -0.2600  0.0507  0.1096
95677W        W38589  12.701  26.402   6.888  0.2409 -0.2167 -0.0057
95678W        W38590  13.616  25.966   3.499 -0.0126  0.2844 -0.2419
95679W        W38591  11.417  25.445   3.750 -0.1258  0.1706  0.0356
95680W        W38592  13.443  28.340   7.414  0.2917 -0.0801 -0.0803
95681W        W38593  14.523  27.228   4.524 -0.1283 -0.0732 -0.2557
95682W        W38594  11.972  26.427   4.478  0.1081  0.0089  0.0367
95683W        W38595  13.806  25.788   6.397  0.5022  0.0710 -0.0244
95684W        W38596  13.249  27.703   6.099  0.3523 -0.4457  0.2785
95685W        W38597  13.492  25.798   5.952 -0.1518  0.0445  0.1617
95686W        W38598  14.581  26.926   3.132 -0.0132  0.0550 -0.1030
95687W        W38599  12.685  27.855   6.340 -0.2115 -0.1100  0.0082
95688W        W38600  11.829  25.352   7.047 -0.0190  0.0093 -0.0205
95689W        W38601  14.956  27.162   4.870  0.1969  0.0246 -0.0522
95690W        W38602  13.332  26.078   4.727  0.0375  0.1078  0.1860
95691W        W38603  12.314  27.576   7.067 -0.0559 -0.2097 -0.0119
95692W        W38604  14.208  26.664   6.763 -0.3043  0.0961 -0.0261
95693W        W38605  12.254  26.241   6.747 -0.1270  0.1073  0.0364
95694W        W38606  10.596  25.523   6.278 -0.2448  0.0975 -0.0730
95695W        W38607  12.894  29.073   5.824  0.1527  0.2888 -0.1447
95696W        W38608  14.328  27.340   3.235  0.1466 -0.3927  0.1402
95697W        W38609  13.638  25.153   7.703  0.0673 -0.1735  0.0731
95698W        W38610  14.272  26.258   5.599 -0.3359  0.1589  0.0904
95699W        W38611  14.833  25.163   3.300  0.3125 -0.3320  0.1515
95700W        W38612  11.861  27.644   6.915 -0.0243  0.0228  0.4738
95701W        W38613  13.263  28.343   7.900  0.2017 -0.0341  0.1384
95702W        W38614  12.332  25.782   2.433 -0.0579 -0.1340 -0.1567
95703W        W38615  12.717  27.000   6.653  0.0814 -0.1145 -0.0247
95704W        W38616  14.590  29.456   3.415 -0.1861 -0.2380  0.0286
95705W        W38617  13.322  27.671   4.221 -0.0857  0.0822  0.0560
95706W        W38618  12.823  25.797   2.972 -0.0159 -0.0541  0.0156
95707W        W38619  13.208  27.182   5.851  0.2581  0.2257  0.2681
95708W        W38620  13.148  28.622   6.636 -0.0637  0.0843 -0.1768
95709W        W38621  10.922  25.592   3.950 -0.0032 -0.2330  0.3694
95710W        W38622  12.532  28.090   3.734 -0.0607  0.1779  0.3709
95711W        W38623  14.102  27.716   6.667  0.0085  0.1352  0.0182
95712W        W38624  13.995  27.251   8.473 -0.1041 -0.2361 -0.3409
95713W        W38625  14.045  25.594   4.310  0.0834 -0.4839 -0.1440
95714W        W38626  13.731  27.487   7.105  0.3719 -0.1540  0.0739
95715W        W38627  11.400  28.775   3.780  0.0304 -0.0149  0.0554
95716W        W38628  12.200  25.972   5.347  0.0565 -0.0230 -0.0686
95717W        W38629  12.018  28.692   5.679 -0.1086  0.1376 -0.0889
95718W        W38630  11.834  27.310   7.842 -0.1210  0.0070 -0.1772
95719W        W38631  11.219  27.079   5.407 -0.1680 -0.3623  0.0516
95720W        W38632  13.514  26.473   6.401 -0.0058  0.1477 -0.1772
95721W        W38633  13.627  27.765   6.654  0.2833  0.1900 -0.2458
95722W        W38634  12.768  27.501   5.086  0.2501 -0.1365  0.1211
95723W        W38635  15.192  26.928   6.497  0.0767  0.1788 -0.2937
95724W        W38636  12.979  29.075   6.918 -0.2331  0.0684  0.1497
95725W        W38637  12.745  26.739   5.062 -0.0222  0.2620 -0.0257
95726W        W38638  13.096  29.696   5.126 -0.0331 -0.1074  0.1991
95727W        W38639  13.795  27.268   6.614  0.2217 -0.1084 -0.1345
95728W        W38640  11.786  27.914   6.390 -0.1124 -0.1899  0.0660
95729W        W38641  10.744  26.812   6.854 -0.0479  0.2858  0.0645
95730W        W38642  13.158  27.187   6.760  0.0950  0.0971  0.2318
95731W        W38643  13.103  27.598   6.559  0.2898 -0.2472  0.4071
95732W        W38644  11.585  24.441   3.744 -0.0231 -0.0303  0.0274
95733W        W38645  12.353  27.527   4.580  0.1149 -0.0407  0.0280
95734W        W38646  12.108  29.008   7.029  0.2958  0.6145  0.2136
95735W        W38647  12.008  27.162   6.975  0.2601 -0.0675  0.3545
95736W        W38648  13.193  27.842   5.133 -0.3104  0.1475 -0.2755
95737W        W38649  13.418  27.974   3.832  0.0667 -0.3202 -0.2095
95738W        W38650  13.718  29.637   4.131  0.3758  0.2209 -0.0150
95739W        W38651  12.823  29.530   5.617  0.1364  0.0826  0.0976
95740W        W38652  11.791  26.679   2.260  0.0342  0.0111  0.0054
95741W        W38653  12.784  28.588   5.767 -0.1032  0.0743 -0.0970
95742W        W38654  10.626  27.908   4.462  0.0741 -0.0356  0.1399
95743W        W38655  15.154  29.393   2.918  0.2825  0.1013 -0.0289
95744W        W38656  11.985  29.665   5.493 -0.0924 -0.0474  0.2885
95745W        W38657  14.571  27.786   9.234  0.2097 -0.0538  0.1831
95746W        W38658  14.621  25.469   2.605 -0.0198 -0.0223  0.1370
95747W        W38659  14.734  26.252   4.824  0.2788  0.1455 -0.1662
95748W        W38660  15.353  26.656   6.058  0.1882 -0.2100  0.0891
95749W        W38661  14.265  28.050   7.882  0.2382 -0.1649 -0.1923
95750W        W38662  12.720  26.696   5.907  0.1052  0.0710  0.0157
95751W        W38663  12.128  25.826   2.961 -0.2771 -0.0448  0.1604
95752W        W38664  12.826  27.324   6.184  0.4092  0.1787  0.0707
95753W        W38665  14.445  24.566   7.428 -0.1880  0.3274  0.0984
95754W        W38666  12.464  28.626   7.315  0.0324  0.0253  0.0381
95755W        W38667  14.510  28.490   3.969 -0.2680 -0.1541 -0.0228
95756W        W38668  12.669  26.928   4.278  0.1474 -0.0497  0.2483
95757W        W38669  13.748  27.649   6.172  0.1386  0.1733  0.1979
95758W        W38670  13.735  26.641   7.368 -0.3009  0.2679 -0.1007
95759W        W38671  12.456  27.587   3.645  0.1049 -0.2406 -0.0420
95760W        W38672  12.822  26.496   4.423  0.0034 -0.0592  0.1491
95761W        W38673  12.276  28.980   4.508  0.2978  0.2326  0.1388
95762W        W38674  13.096  28.110   6.466 -0.2764 -0.1191  0.2494
95763W        W38675  12.658  27.805   5.829 -0.4425 -0.0204 -0.2876
95764W        W38676  14.656  27.834   5.743 -0.0084  0.1691 -0.1492
95765W        W38677  11.703  25.567   6.600 -0.1531 -0.0759  0.1124
95766W        W38678  12.766  27.471   7.721  0.0025  0.0494  0.0398
95767W        W38679  11.132  26.198   6.206 -0.1932 -0.1216  0.0773
95768W        W38680  13.548  26.361   5.803  0.0660  0.0344 -0.2662
95769W        W38681  11.034  28.916   8.823  0.2374  0.0381  0.1981
95770W        W38682  12.494  26.962   7.161  0.0899 -0.3333 -0.1556
95771W        W38683  12.189  26.867   3.101 -0.0459 -0.0694  0.0969
95772W        W38684  15.589  28.298   5.711  0.2743 -0.1526 -0.0403
95773W        W38685  13.150  27.188   4.330 -0.0806  0.1612 -0.1623
95774W        W38686  13.809  29.230   7.061 -0.0409  0.2412  0.2596
95775W        W38687  11.356  26.099   3.184 -0.1284 -0.3585  0.1736
95776W        W38688  12.787  27.517   4.215 -0.2087 -0.0765  0.0386
95777W        W38689  11.764  25.837   5.607 -0.1161 -0.0519 -0.0358
95778W        W38690  13.899  26.812   6.385  0.1592  0.0807  0.0165
95779W        W38691  14.722  28.747   8.170 -0.4383  0.0816 -0.0912
95780W        W38692  11.082  25.002   3.881 -0.1577 -0.1330  0.2852
95781W        W38693  15.426  27.692   4.113  0.0531  0.2095 -0.0653
95782W        W38694  14.540  26.296   6.634  0.0843 -0.0928 -0.0123
95783W        W38695  11.821  29.011   3.630  0.2897 -0.2087  0.2692
95784W        W38696  13.585  27.331   5.148  0.0359  0.1577 -0.3236
95785W        W38697  13.960  29.814   5.333 -0.0865  0.4661  0.2305
95786W        W38698  11.401  27.925   6.763  0.2233  0.2254 -0.0449
95787W        W38699  13.853  28.925   4.838 -0.3479  0.1554 -0.1342
95788W        W38700  14.766  27.641   4.954  0.1045  0.0544 -0.1381
95789W        W38701  11.842  25.153   3.153  0.1474  0.0049 -0.2809
95790W        W38702  13.129  27.209   5.383  0.1140 -0.2389  0.1946
95791W        W38703  11.248  28.785   4.582  0.3196 -0.0487 -0.1404
95792W        W38704  14.607  26.150   7.652 -0.0784  0.0449  0.1731
95793W        W38705  14.050  25.927   7.468 -0.1829  0.5043  0.0269
95794W        W38706  13.089  28.768   3.501 -0.3596 -0.1003 -0.1779
95795W        W38707  13.298  24.319   7.422  0.2817 -0.1913 -0.0859
95796W        W38708  13.715  28.848   5.712 -0.1107  0.0674  0.1325
95797W        W38709  11.091  29.391   7.975 -0.0886  0.1683 -0.1706
95798W        W38710  11.167  26.961   3.295  0.0796  0.1469 -0.0432
95799W        W38711  12.648  28.293   6.600 -0.0725 -0.1437  0.0215
95800W        W38712  13.079  27.091   4.867 -0.2218 -0.1999  0.0348
95801W        W38713  11.890  27.223   4.836 -0.0029  0.2239  0.1166
95802W        W38714  13.987  26.946   5.117 -0.1455 -0.1349 -0.0228
95803W        W38715  13.081  25.837   4.365 -0.2561 -0.0235 -0.0265
95804W        W38716  15.743  28.276   3.450  0.1061 -0.0449 -0.0031
95805W        W38717  12.636  25.731   3.836  0.1087 -0.2135  0.0799
95806W        W38718  15.361  25.115   5.091  0.0865  0.0977 -0.2370
95807W        W38719  13.064  26.323   6.014  0.2085 -0.3118 -0.1732
95808W        W38720  12.716  27.825   6.862  0.0646 -0.1333  0.1483
95809W        W38721  11.382  26.593   4.197  0.2299 -0.1699  0.1400
95810W        W38722  11.697  27.932   4.159 -0.0061 -0.1679  0.0333
95811W        W38723  12.546  26.293   5.623 -0.2306 -0.1180  0.0917
95812W        W38724  11.985  25.882  10.264  0.0127 -0.0839  0.1918
95813W        W38725  11.076  25.725   6.371 -0.1204  0.0714  0.0489
95814W        W38726  12.525  27.471   6.614 -0.0311  0.0144 -0.0291
95815W        W38727  10.808  25.256   3.478 -0.1512  0.1147  0.0189
95816W        W38728  13.946  28.088   4.590 -0.1066  0.2568  0.1821
95817W        W38729  12.384  25.889   5.872  0.0587  0.1608 -0.0924
95818W        W38730  11.308  25.881   4.757 -0.0443 -0.2010 -0.3012
95819W        W38731  14.397  26.504   3.551  0.1755  0.1369  0.0868
95820W        W38732  14.278  29.441   5.259 -0.1010  0.1009 -0.0902
95821W        W38733  13.406  26.309   4.320 -0.0280 -0.0586  0.2354
95822W        W38734  14.819  28.318   7.018  0.1534 -0.3772 -0.0575
95823W        W38735  12.025  27.789   3.503 -0.0071 -0.0476 -0.2578
95824W        W38736  13.326  26.439   6.990 -0.1483 -0.1033 -0.1100
95825W        W38737  11.814  26.030   6.586 -0.0711 -0.1814  0.1280
95826W        W38738  10.719  24.955   3.084  0.3852 -0.0138 -0.0711
95827W        W38739  12.144  25.520   5.615  0.2985  0.3171 -0.0506
95828W        W38740  13.669  27.503   5.659  0.0150 -0.2044  0.1173
95829W        W38741  13.762  27.635   3.779  0.1161  0.0380  0.0308
95830W        W38742  12.379  27.395   6.033  0.1844 -0.0776 -0.1711
95831W        W38743  12.232  28.248   7.677 -0.3530  0.0058 -0.1375
95832W        W38744  10.726  24.754   6.028 -0.2872 -0.2474 -0.1384
95833W        W38745  15.328  26.503   5.334 -0.0644 -0.1354  0.2209
95834W        W38746  12.436  27.808   7.512 -0.2276 -0.0103 -0.3176
95835W        W38747  15.414  27.459   4.874  0.4647 -0.2043  0.0504
95836W        W38748  14.104  25.071   4.945  0.0084  0.1739 -0.0663
95837W        W38749  13.446  26.817   4.550  0.0343 -0.1409  0.0550
95838W        W38750  10.759  25.030   6.912 -0.0371  0.0717  0.0408
95839W        W38751  11.586  27.181   6.500  0.1043  0.2707  0.0189
95840W        W38752  14.268  28.085   6.078 -0.0536  0.0318 -0.0993
95841W        W38753  11.327  23.936   4.783 -0.0042 -0.1477  0.0186
95842W        W38754  13.155  25.830   5.140 -0.0649 -0.1303 -0.0122
95843W        W38755  13.897  28.557   4.475  0.2136  0.1154 -0.0651
95844W        W38756  11.654  26.070   5.199 -0.2023 -0.2094  0.1872
95845W        W38757  12.354  26.222   3.789  0.5270 -0.0597 -0.2221
95846W        W38758  12.841  25.347   6.988  0.2756  0.0351  0.0048
95847W        W38759  12.471  28.993   3.895 -0.1701 -0.0396  0.0811
95848W        W38760  14.281  28.635   7.718  0.0045  0.1472  0.3735
95849W        W38761  11.807  26.113   3.398 -0.0881  0.1826 -0.0400
95850W        W38762  15.037  27.607   4.558 -0.5990  0.0084 -0.2058
95851W        W38763  13.259  28.718   7.115  0.1560  0.0439 -0.1630
95852W        W38764  14.432  28.771   5.674 -0.0731  0.0168  0.1072
95853W        W38765  14.208  29.836   7.652 -0.1407  0.0892  0.0559
95854W        W38766  13.493  26.807   6.049  0.0718  0.2145  0.2016
95855W        W38767  11.846  25.320   6.006 -0.0429 -0.1428 -0.2859
95856W        W38768  12.397  27.171   3.933  0.0536 -0.0615  0.2466
95857W        W38769  13.484  26.762   5.124  0.1226 -0.2143 -0.1507
95858W        W38770  14.183  26.380   7.869 -0.0229 -0.1639  0.4109
95859W        W38771  11.501  26.102   4.365 -0.0701  0.1649 -0.2170
95860W        W38772  13.719  25.907   4.952 -0.1561  0.1653 -0.0745
95861W        W38773  11.862  27.386   6.074 -0.3766 -0.0465 -0.0870
95862W        W38774  15.152  27.299   5.723 -0.0154 -0.0294 -0.2413
95863W        W38775  10.047  25.502   9.102 -0.3182  0.2117 -0.0439
95864W        W38776  11.377  25.708   8.784 -0.1144 -0.0040  0.1357
95865W        W38777  12.869  27.245   8.167 -0.3953  0.0450  0.0418
95866W        W38778  15.305  27.351   6.808  0.1929 -0.0569 -0.0831
95867W        W38779  10.736  26.041   9.478 -0.2940  0.0652 -0.2477
95868W        W38780  13.475  28.583   9.745 -0.1627 -0.2570 -0.1161
95869W        W38781  13.019  29.340   9.424  0.1489  0.0570  0.2162
95870W        W38782  11.255  28.742   9.748 -0.3113 -0.1269  0.1543
95871W        W38783  13.352  27.687   7.583  0.2474  0.1838  0.1358
95872W        W38784  11.823  27.370   9.959  0.1859 -0.0780 -0.0356
95873W        W38785  11.467  26.518   6.505  0.0880  0.0038 -0.0028
95874W        W38786  10.553  25.432   8.698 -0.0067 -0.2030  0.4953
95875W        W38787  14.743  26.479   8.755  0.0398  0.0118  0.0550
95876W        W38788  13.415  27.522   8.497 -0.1244 -0.1344  0.2220
95877W        W38789  13.440  24.185   9.477  0.1961 -0.1007 -0.0910
95878W        W38790  12.879  25.698   7.383  0.0630 -0.1329  0.0975
95879W        W38791  12.533  29.987   9.192 -0.0121  0.3230 -0.1138
95880W        W38792  13.420  26.854  10.236 -0.1561  0.0922  0.3901
95881W        W38793  12.320  27.581   7.957  0.0736 -0.1187  0.0403
95882W        W38794  10.707  27.563   6.876 -0.0005 -0.2398  0.2660
95883W        W38795  11.076  26.038   9.121 -0.4903 -0.1198  0.3132
95884W        W38796  10.534  27.263   9.230  0.1816 -0.1718  0.0871
95885W        W38797  13.662  25.873   8.085 -0.0376  0.5198  0.1081
95886W        W38798  15.030  27.125   9.340  0.3281 -0.0456  0.0514
95887W        W38799  12.324  29.186   8.947  0.2063  0.1206  0.0087
95888W        W38800  11.481  27.897   9.258  0.0393  0.2480 -0.2169
95889W        W38801  11.713  26.746   9.008 -0.1221 -0.0492  0.1896
95890W        W38802  10.442  29.290  10.208 -0.0616 -0.2317  0.1628
95891W        W38803  13.587  29.231   7.709  0.1547  0.0650  0.1220
95892W        W38804  14.412  27.513   8.682  0.1152  0.2047 -0.0465
95893W        W38805  11.882  28.895   7.628  0.0544 -0.3211 -0.0574
95894W        W38806  12.155  26.442   8.938 -0.0292 -0.0112  0.0730
95895W        W38807  11.133  27.845   8.900  0.0968  0.0764  0.1388
95896W        W38808  11.357  28.496   7.700 -0.1920  0.1975  0.2791
95897W        W38809  13.075  26.565   8.420  0.2517  0.1098  0.2239
95898W        W38810  10.676  29.512   8.196 -0.2163  0.0096  0.0816
95899W        W38811  11.560  28.946   8.042 -0.1835 -0.3090  0.2533
95900W        W38812  12.983  26.881   7.106 -0.0429 -0.1333  0.2840
95901W        W38813  11.885  26.831   7.956  0.0519  0.1364  0.1238
95902W        W38814  12.839  25.726   8.070  0.0641 -0.0518 -0.0694
95903W        W38815  12.177  27.733   9.851 -0.0838 -0.0621 -0.0331
95904W        W38816  11.177  29.222   9.669  0.1968  0.1268 -0.3704
95905W        W38817  12.514  25.978   9.069 -0.1170  0.4576 -0.4239
95906W        W38818  13.188  27.737   8.096 -0.2921 -0.0806 -0.0415
95907W        W38819  13.862  25.356   8.622 -0.2241  0.2363 -0.2146
95908W        W38820   8.846  27.806   9.002  0.0284 -0.1651 -0.2110
95909W        W38821  11.210  27.033   9.307 -0.3894 -0.1550 -0.2448
95910W        W38822  14.500  28.284   7.417 -0.0022 -0.3219  0.0805
95911W        W38823  15.399  27.115   9.746  0.0632 -0.0023  0.4871
95912W        W38824  13.448  28.517   8.359  0.1154 -0.0883  0.0260
95913W        W38825  11.200  26.240   8.644 -0.2533 -0.2036  0.2205
95914W        W38826  12.102  24.627   7.561  0.4524 -0.4265 -0.0036
95915W        W38827  13.890  26.313   8.760  0.2036  0.4217  0.3090
95916W        W38828  12.277  26.325   8.440 -0.0653 -0.3683 -0.3043
95917W        W38829  13.230  26.283  10.135  0.3327 -0.0059 -0.2125
95918W        W38830  12.585  26.966   8.990 -0.1971  0.2767 -0.0875
95919W        W38831  11.517  25.498   9.902 -0.1787  0.0508  0.0308
95920W        W38832  14.140  23.643   8.123 -0.0052 -0.0267 -0.0496
95921W        W38833  12.170  27.717   8.518 -0.0621 -0.0642 -0.1411
95922W        W38834  12.160  26.907   8.685  0.1924  0.0869 -0.0023
95923W        W38835  12.916  27.753   9.958 -0.1595 -0.0992 -0.0198
95924W        W38836  13.423  28.081   8.625  0.2502 -0.0002 -0.0440
95925W        W38837  10.549  28.710   9.075 -0.0770  0.3175 -0.1815
95926W        W38838  13.794  28.607   6.958 -0.0210 -0.1362  0.0027
95927W        W38839  10.694  27.825   8.429  0.0511  0.1215 -0.1241
95928W        W38840  11.805  27.582   7.442 -0.2609  0.0241  0.0614
95929W        W38841  10.440  26.178   9.880 -0.0754  0.1183  0.1560
95930W        W38842  13.532  29.722  10.000 -0.1797  0.2488 -0.0227
95931W        W38843  14.971  25.670   7.340 -0.1582  0.1981  0.4306
95932W        W38844  13.766  26.259   7.694 -0.2582 -0.3364  0.1762
95933W        W38845  10.015  28.279   9.946  0.0170 -0.0353  0.0127
95934W        W38846  14.318  28.203   9.598  0.0040  0.0344  0.0839
95935W        W38847  14.462  26.757   8.052 -0.3839 -0.0835 -0.1266
95936W        W38848  13.396  28.304   9.097  0.0318 -0.1948  0.2351
95937W        W38849  10.865  26.536   9.821  0.2408  0.0989  0.3644
95938W        W38850  11.491  26.056   9.375  0.3842 -0.1695  0.1468
95939W        W38851  11.017  24.732   8.421  0.2549 -0.1206  0.1105
95940W        W38852  10.764  24.809   7.967 -0.2687 -0.2123 -0.1927
95941W        W38853  13.435  26.900   8.291 -0.2547 -0.1118 -0.1007
95942W        W38854  12.795  26.172   8.286 -0.2952  0.0511 -0.1065
95943W        W38855  10.856  27.342   7.523 -0.1229 -0.0049 -0.2366
95944W        W38856  14.534  29.106   7.772 -0.1132 -0.2271  0.1724
95945W        W38857  13.030  27.979   8.956 -0.1298 -0.1655 -0.0358
95946W        W38858  13.354  27.657   8.992  0.4729  0.1911 -0.1328
95947W        W38859  12.674  27.325   9.802  0.0003  0.2551 -0.3132
95948W        W38860  10.720  25.679   7.780 -0.1813 -0.2094  0.0799
95949W        W38861  10.811  29.958   9.419  0.0046  0.0939 -0.0262
95950W        W38862  12.141  28.119   9.382 -0.2420 -0.3590  0.0503
95951W        W38863  11.861  26.440   9.391  0.2417 -0.0101  0.4980
95952W        W38864  13.771  27.352  10.066 -0.2490  0.1611 -0.3086
95953W        W38865  12.491  27.781   9.013  0.0202  0.1429 -0.2919
95954W        W38866  11.099  27.895   9.630  0.1945  0.0632  0.0898
95955W        W38867  12.199  26.728   7.593 -0.1330 -0.2258  0.0394
95956W        W38868  10.147  25.034   7.049  0.2298 -0.2189  0.1152
95957W        W38869  12.665  28.487   8.316  0.0872  0.2146  0.1461
95958W        W38870  11.704  29.451   8.152 -0.0828 -0.1536  0.1912
95959W        W38871  11.340  26.820   8.651 -0.0285 -0.1722  0.1463
95960W        W38872  11.953  27.904   8.970  0.0670 -0.3473  0.3164
95961W        W38873  13.926  24.146   8.223 -0.1418 -0.0531 -0.2116
95962W        W38874  11.064  26.690   7.863  0.2591  0.0534 -0.0530
95963W        W38875  13.619  25.363   8.142  0.0186 -0.0046 -0.2541
95964W        W38876  13.597  27.982   8.104  0.0433 -0.3380 -0.0741
95965W        W38877  14.166  26.897   7.566 -0.0616  0.0346  0.0146
95966W        W38878  12.670  26.507   7.424 -0.0140 -0.1979  0.1063
95967W        W38879  12.453  25.994   7.153  0.0290  0.3535  0.0182
95968W        W38880  12.385  27.303   9.375  0.0222  0.2450  0.1743
95969W        W38881  12.629  26.794   9.999  0.1910  0.3202 -0.2666
95970W        W38882  12.478  27.011   7.934 -0.1443  0.0719  0.0314
95971W        W38883  15.438  27.826   8.811  0.1346  0.0470 -0.1922
95972W        W38884  11.928  28.992   8.654 -0.1065 -0.3051 -0.1528
95973W        W38885  14.195  27.457   7.873  0.0268  0.0901 -0.3399
95974W        W38886  13.300  24.812   9.457  0.2059  0.0962 -0.0798
95975W        W38887  11.458  26.967   8.162 -0.2443  0.0058  0.0414
95976W        W38888  13.315  26.323   7.997  0.3025  0.1530 -0.0055
95977W        W38889  12.557  29.274   7.264 -0.1249  0.1286  0.0034
95978W        W38890  15.070  24.793   8.245 -0.1110 -0.0374 -0.0812
95979W        W38891  12.752  25.263   8.982 -0.2181 -0.0071  0.0077
95980W        W38892  12.500  27.269   8.468 -0.0364 -0.2857 -0.0399
95981W        W38893  14.989  25.856   9.812  0.0515 -0.2836 -0.1889
95982W        W38894  11.737  27.168   8.712 -0.0058  0.1459 -0.0615
95983W        W38895  13.712  24.232   8.673 -0.2042  0.0627 -0.0259
95984W        W38896  10.326  28.226  10.439 -0.1328 -0.1283 -0.2502
95985W        W38897  11.679  27.133   9.548  0.0803  0.2241  0.0690
95986W        W38898  11.928  25.948   7.086  0.3513 -0.1288 -0.1583
95987W        W38899  12.237  29.984   8.428 -0.4047  0.0241  0.0678
95988W        W38900  11.786  28.457   7.979  0.2164  0.0297 -0.0493
95989W        W38901  13.432  24.526   9.106  0.0996  0.1484 -0.1141
95990W        W38902   9.587  27.860  10.099 -0.0710 -0.0013  0.2041
95991W        W38903  11.672  28.606   8.464 -0.1289  0.2332 -0.2084
95992W        W38904  12.928  27.481   9.223 -0.1574  0.0067 -0.0887
95993W        W38905  13.246  28.747   7.596  0.0204  0.0612 -0.1382
95994W        W38906  14.440  24.480   9.074 -0.1047 -0.3463  0.0688
95995W        W38907  12.484  28.969   8.457 -0.1838  0.1123 -0.2091
95996W        W38908  11.598  26.869   6.972  0.2075 -0.3749 -0.1653
95997W        W38909  10.932  27.333   9.871  0.2386  0.1596  0.1420
95998W        W38910  13.258  25.829   8.324  0.1608  0.1020 -0.0642
95999W        W38911  14.543  27.686   8.147 -0.2842  0.2165 -0.1743
96000W        W38912  12.418  25.868   8.284 -0.1468  0.0458 -0.1074
96001W        W38913  11.992  25.985   8.694  0.4966 -0.0322 -0.4270
96002W        W38914  11.153  29.016  10.265  0.2289 -0.2634 -0.0457
96003W        W38915  14.585  27.767   7.606  0.0227  0.0750 -0.1202
96004W        W38916  11.356  26.229   7.505  0.0641 -0.0931 -0.1634
96005W        W38917  13.102  27.050   8.816 -0.0678 -0.0512  0.0482
96006W        W38918  10.759  30.426  11.180 -0.1774  0.2478  0.2582
96007W        W38919  12.188  27.377   8.905 -0.0242 -0.1292  0.1779
96008W        W38920  12.610  26.763   9.510  0.0589  0.1464 -0.0095
96009W        W38921  11.660  26.265   8.914  0.2072  0.0275  0.0179
96010W        W38922  12.054  29.443   8.510  0.1008 -0.3137  0.3046
96011W        W38923  12.688  29.349   9.852 -0.1521 -0.0576 -0.1153
96012W        W38924  13.509  26.193   9.727  0.1265  0.5207  0.1208
96013W        W38925  11.966  24.040   9.110  0.0201  0.0878  0.0726
96014W        W38926  12.003  27.193   8.310  0.0564  0.2850  0.0253
96015W        W38927  11.468  28.702   8.973 -0.2821 -0.0059 -0.1064
96016W        W38928  12.940  28.423   8.738  0.5272  0.1157 -0.0358
96017W        W38929  14.286  25.502   9.350  0.1503 -0.1141  0.1323
96018W        W38930  13.508  29.693   8.307 -0.1440 -0.1480 -0.0121
96019W        W38931  11.395  27.582   7.812  0.1351 -0.0149  0.2086
96020W        W38932  12.904  28.867   9.665  0.3979  0.1671  0.0131
96021W        W38933  12.000  28.406   8.919 -0.1027  0.1242 -0.0841
96022W        W38934  11.783  26.646   9.960  0.0103  0.4663  0.0339
96023W        W38935  13.479  30.722   9.709 -0.0290  0.0184  0.1792
96024W        W38936  11.415  27.993   8.058  0.2709  0.1812 -0.0933
96025W        W38937  11.080  28.436   8.929 -0.1636  0.0131 -0.0507
96026W        W38938  14.090  25.118   6.851  0.1774  0.3284 -0.0281
96027W        W38939  13.803  27.732   8.725  0.1952 -0.0585  0.0997
96028W        W38940  13.511  25.667   9.904  0.0769 -0.1000  0.0508
96029W        W38941  13.278  27.638   6.976  0.0199 -0.0511 -0.1000
96030W        W38942  11.700  24.414   9.491 -0.0430  0.1836 -0.3242
96031W        W38943  13.736  28.514   8.769 -0.0630  0.2845  0.1141
96032W        W38944  12.828  25.724   8.627  0.1304 -0.0242  0.0974
96033W        W38945  10.295  25.982   7.493 -0.2442 -0.0906  0.2767
96034W        W38946  10.844  26.907   8.847 -0.1203 -0.1747  0.1465
96035W        W38947  13.422  29.005   9.513  0.0937 -0.0187  0.0225
96036W        W38948  11.383  27.101   7.675 -0.3074 -0.4544  0.1220
96037W        W38949  14.327  25.898   7.947  0.2954  0.0982 -0.0436
96038W        W38950  11.367  27.472   9.599  0.0711 -0.1890  0.4083
96039W        W38951  13.601  27.424   8.028  0.1172 -0.0359  0.0496
96040W        W38952  12.761  28.056   7.848  0.1896 -0.3371 -0.1820
96041W        W38953  12.160  26.811  10.431 -0.0389  0.0959  0.1382
96042W        W38954  12.284  28.950   9.628 -0.0391 -0.1415 -0.4184
96043W        W38955  13.875  27.770   7.643 -0.1996 -0.2360  0.0793
96044W        W38956  13.463  29.564   9.422 -0.2143  0.1756 -0.2405
96045W        W38957  14.566  26.672   7.510 -0.0977  0.1117  0.1973
96046W        W38958  13.750  25.617   9.044  0.0652  0.1851  0.2211
96047W        W38959  14.277  26.638   9.027  0.1563 -0.1711  0.1899
96048W        W38960  13.230  27.122   7.796 -0.0035  0.0322  0.1412
96049W        W38961  10.395  25.438  10.173  0.0551  0.1123  0.2102
96050W        W38962  11.867  26.318   7.529  0.0807 -0.2232 -0.2100
96051W        W38963  12.035  29.033   8.180 -0.0276  0.1031  0.2019
96052W        W38964  12.531  28.660   8.894 -0.2145 -0.0183 -0.1153
96053W        W38965  13.641  25.646   7.559  0.0784  0.1564 -0.0279
96054W        W38966  11.644  26.101   8.394  0.1489  0.0770  0.0714
96055W        W38967  10.915  25.949   7.108  0.0276 -0.0114  0.0259
96056W        W38968  12.320  27.247   7.560  0.3648 -0.0552 -0.1648
96057W        W38969  10.752  26.223  10.359 -0.4189 -0.1742  0.2079
96058W        W38970  12.068  26.597   7.122  0.0799 -0.2978  0.0907
96059W        W38971  12.178  28.532   8.321  0.3255 -0.0150 -0.0115
96060W        W38972  13.361  25.012   8.668  0.0773  0.1584  0.0579
96061W        W38973  12.122  29.604   9.806  0.0747 -0.5828 -0.2891
96062W        W38974  13.317  29.240   8.504 -0.1021  0.0259 -0.1720
96063W        W38975  12.496  22.638   8.348 -0.0987  0.2904  0.2410
96064W        W38976  12.928  26.618   7.933  0.0250 -0.4189 -0.1610
96065W        W38977  11.373  26.501   8.224  0.1365 -0.0237  0.1359
96066W        W38978  11.977  27.580   9.411 -0.1076 -0.5328  0.1568
96067W        W38979  13.866  26.909   9.203  0.0044  0.2760  0.0600
96068W        W38980  10.703  28.312   9.358  0.0721 -0.1916  0.3775
96069W        W38981  12.605  27.783   9.492  0.2331 -0.0340 -0.0088
96070W        W38982  11.368  25.527   7.972 -0.0209  0.1164 -0.0399
96071W        W38983  12.793  28.919   7.520 -0.1802 -0.0522 -0.1862
96072W        W38984  11.344  25.840  10.164  0.0029 -0.3537 -0.1187
96073W        W38985  11.184  29.614   8.498  0.0117 -0.1376  0.2767
96074W        W38986  12.673  29.253   8.013  0.3025 -0.1911  0.0667
96075W        W38987  12.675  28.221   9.245 -0.1030  0.3107  0.1304
96076W        W38988  14.616  30.274  10.285 -0.2265  0.1627 -0.0907
96077W        W38989  13.003  26.147   7.197  0.1867 -0.0941 -0.1523
96078W        W38990  11.029  27.474   9.303 -0.1317  0.2813 -0.2200
96079W        W38991  11.859  28.487   7.263  0.0558 -0.0727 -0.0275
96080W        W38992  13.055  29.555   8.229  0.1244  0.0098 -0.0849
96081W        W38993  11.787  28.840   9.703  0.0610  0.1247  0.1419
96082W        W38994  13.641  24.678   7.333 -0.0305 -0.1228  0.1408
96083W        W38995  14.459  27.221   8.261 -0.2495  0.0417 -0.2171
96084W        W38996  15.125  25.513   8.908 -0.3198  0.1424 -0.0303
96085W        W38997  12.110  25.537   9.728 -0.1368  0.0238 -0.0984
96086W        W38998  11.678  24.884   7.718  0.0966  0.1938 -0.0352
96087W        W38999  14.003  28.764   8.454 -0.2325  0.0314  0.0010
96088W        W39000  11.697  25.763   7.630 -0.2819 -0.0845  0.2265
96089W        W39001  12.534  28.101   8.664 -0.0379 -0.2178  0.1467
96090W        W39002  14.649  25.670  10.145 -0.1571 -0.4175 -0.0955
96091W        W39003  12.410  28.733   7.919  0.2870 -0.0065  0.1294
96092W        W39004  12.437  26.506   7.977  0.1292  0.2159 -0.0102
96093W        W39005  11.947  28.889   9.112  0.0518  0.2549  0.0421
96094W        W39006  10.283  28.636  10.188 -0.1024 -0.0049 -0.0102
96095W        W39007  11.359  26.523   9.567 -0.0215  0.2269 -0.1025
96096W        W39008  10.823  26.265   7.737  0.3258  0.2768 -0.0134
96097W        W39009  15.228  25.630   8.407 -0.0729 -0.0058  0.2113
96098W        W39010  12.233  26.575   9.768  0.0540 -0.1183 -0.0170
96099W        W39011  11.345  27.462   8.317  0.0694 -0.0917  0.1226
96100W        W39012  13.853  26.344   9.287 -0.0179  0.0020  0.2375
96101W        W39013  12.180  27.054   9.844  0.0641  0.1934  0.1177
96102W        W39014  11.242  26.526   9.021 -0.3870 -0.3011 -0.0384
96103W        W39015  12.147  26.846   9.247  0.0166  0.0015  0.1449
96104W        W39016  12.018  28.011   7.282  0.1518  0.1525  0.1335
96105W        W39017  10.752  25.916   8.752 -0.2273 -0.0598  0.0404
96106W        W39018  12.825  27.017   7.549  0.0600  0.0271  0.0225
96107W        W39019  11.189  27.300   8.790  0.1639  0.2029  0.0728
96108W        W39020  10.945  28.787   9.396  0.0602  0.1167 -0.2721
96109W        W39021  10.580  26.609   8.010 -0.0078 -0.0412  0.0151
96110W        W39022  13.877  29.247   8.350  0.2408 -0.0001 -0.3920
96111W        W39023  12.596  26.735   8.378  0.3238  0.2976 -0.0699
96112W        W39024  13.512  28.286   6.719  0.0743  0.0057  0.1105
96113W        W39025  12.974  27.063   9.532  0.1042 -0.1316 -0.2582
96114W        W39026  16.287  27.494   9.467  0.2119  0.1191 -0.0671
96115W        W39027  10.384  26.200   7.953  0.0397  0.1165  0.1141
96116W        W39028  14.562  28.688   9.376 -0.1327 -0.1542 -0.0770
96117W        W39029  13.609  27.190   8.861 -0.4121 -0.2603  0.1044
96118W        W39030  12.732  23.875   6.623 -0.1071 -0.0400  0.0466
96119W        W39031  11.471  25.030  10.102  0.2536 -0.0219  0.0609
96120W        W39032  11.013  29.158   8.382  0.1248 -0.2808 -0.2630
96121W        W39033  14.667  25.741   8.986 -0.0113  0.1648  0.0306
96122W        W39034  14.234  28.883   7.300  0.3662 -0.2915  0.0213
96123W        W39035  11.598  28.420   9.937  0.0341  0.0798  0.2593
96124W        W39036  11.796  27.636   8.246 -0.1371  0.0072  0.1380
96125W        W39037  11.774  28.107   8.458  0.1581  0.1385 -0.1087
96126W        W39038  13.007  28.592   9.267  0.1084 -0.0724 -0.0317
96127W        W39039  12.646  26.442   8.828 -0.0492 -0.1001  0.0342
96128W        W39040  10.932  26.715   8.405  0.1512 -0.1450  0.0866
96129W        W39041  14.463  26.966   8.715  0.0927 -0.2183  0.0773
96130W        W39042  11.967  25.231   9.309 -0.0353 -0.3248 -0.3704
96131W        W39043  13.669  25.838   8.593  0.2170 -0.0889  0.1679
96132W        W39044  13.360  24.635   7.832 -0.1502 -0.0188  0.2964
96133W        W39045  11.044  27.153  10.319  0.2784  0.1863 -0.1377
96134W        W39046  10.728  27.103   6.481  0.0182  0.4597  0.1899
96135W        W39047  10.327  27.097   7.917  0.1414 -0.1713  0.0263
96136W        W39048  10.527  29.100   9.385  0.1068  0.1782  0.2928
96137W        W39049  10.145  26.958   9.579 -0.1498 -0.1222 -0.0083
96138W        W39050  10.072  25.291   8.572 -0.2501 -0.0497 -0.2673
96139W        W39051  13.045  28.161   8.306 -0.1311  0.0857 -0.1928
96140W        W39052  12.411  26.338   9.393 -0.2038 -0.3582 -0.0684
96141W        W39053  10.455  24.442   8.633  0.0100  0.4091 -0.2332
96142W        W39054  13.286  27.443   9.753  0.0070  0.0499  0.1087
96143W        W39055  13.417  26.649   8.868 -0.0168  0.0169  0.0243
96144W        W39056  12.060  25.975   9.216 -0.0896  0.0894  0.0387
96145W        W39057  11.827  26.925   7.421  0.0960  0.1611  0.1301
96146W        W39058  10.513  25.501   7.349 -0.3946  0.2741 -0.1088
96147W        W39059  12.205  24.552   9.617 -0.0018 -0.2434  0.2319
96148W        W39060  12.899  28.711   7.976 -0.3130  0.2183  0.2223
96149W        W39061  13.318  28.760   8.797  0.0192 -0.3644  0.2852
96150W        W39062  11.521  26.995  10.212 -0.3491  0.0131  0.0740
96151W        W39063  12.711  27.720   8.248  0.0236  0.1716  0.0421
96152W        W39064  15.024  26.995   7.011  0.0752 -0.2536  0.0756
96153W        W39065  14.767  25.526   8.561  0.2195  0.0089 -0.3266
96154W        W39066  12.915  27.516   8.718  0.1740  0.3678  0.1738
96155W        W39067  13.424  26.662   9.363 -0.1566  0.1465 -0.1409
96156W        W39068  10.848  24.728   9.964  0.1449 -0.1390  0.0438
96157W        W39069  11.956  25.840   8.068  0.1669 -0.4397  0.1328
96158W        W39070  12.316  29.146   7.680  0.0238 -0.2333  0.1761
96159W        W39071  10.392  26.145   9.051  0.1363 -0.1156  0.0110
96160W        W39072  11.832  26.669   8.398 -0.0143 -0.2251 -0.1473
96161W        W39073  12.126  28.395   9.789 -0.2945 -0.1211  0.1326
96162W        W39074  11.893  26.334   8.045 -0.1643  0.1209 -0.0225
96163W        W39075  14.358  28.439   8.170 -0.0455  0.1194 -0.1838
96164W        W39076  12.445  30.805   9.955  0.1068 -0.1898 -0.4039
96165W        W39077  13.364  30.052   9.555  0.1442  0.1559 -0.4307
96166W        W39078  12.957  26.648   9.177 -0.1622 -0.1271 -0.0063
96167W        W39079  12.367  25.502   9.221 -0.3735  0.1073  0.1767
96168W        W39080  12.318  28.058   8.164 -0.2109  0.2482  0.0967
96169W        W39081  11.577  27.406   9.146  0.3832 -0.3421 -0.2742
96170W        W39082  13.287  25.544   8.766  0.2205 -0.0316 -0.0244
96171W        W39083  10.048  24.556   9.592 -0.1535  0.0574  0.1945
96172W        W39084  12.836  24.195   7.616 -0.4889 -0.4733  0.2493
96173W        W39085  11.557  29.562   9.491  0.2409 -0.0077 -0.1990
96174W        W39086  13.499  26.277   8.482  0.0322 -0.2782 -0.1572
96175W        W39087  10.240  30.608   2.466 -0.1153  0.0245  0.0155
96176W        W39088  12.386  29.892  31.639 -0.0833 -0.1070 -0.0380
96177W        W39089  13.828  30.893   0.037  0.2020  0.0293  0.1780
96178W        W39090  13.982  29.747   0.504 -0.2592  0.0260  0.1385
96179W        W39091  12.265  28.909   0.133 -0.0255 -0.1046 -0.1456
96180W        W39092  12.557  32.543  31.416  0.1062 -0.0463  0.2980
96181W        W39093  11.878  30.102   3.999 -0.1191  0.0268 -0.1338
96182W        W39094  14.564  31.556   3.083  0.0833 -0.0402  0.0304
96183W        W39095  15.043  32.057   2.690 -0.1671  0.0869 -0.1348
96184W        W39096  13.391  31.718   0.136  0.2229  0.2587  0.1147
96185W        W39097  12.444  30.081   3.934 -0.3613 -0.1295  0.2658
96186W        W39098  13.254  31.791   2.480 -0.1981  0.2213  0.1335
96187W        W39099  12.471  28.096   0.820  0.1394 -0.2117 -0.0872
96188W        W39100  11.440  31.328   1.308  0.1319 -0.0572 -0.2280
96189W        W39101  13.738  31.465   2.850  0.2085 -0.2613 -0.0814
96190W        W39102  12.453  29.618   0.910  0.1511  0.0903  0.2675
96191W        W39103  11.963  30.955   3.238 -0.1066 -0.1942  0.0196
96192W        W39104  11.781  30.530   0.390  0.5980 -0.3145 -0.2328
96193W        W39105  11.987  31.218   1.922  0.0265 -0.1028  0.2337
96194W        W39106  10.321  30.130   3.228 -0.0257 -0.1324 -0.0971
96195W        W39107  11.845  29.510   3.702  0.0445 -0.0219  0.0744
96196W        W39108  11.831  31.300   2.764  0.0816 -0.0146  0.2787
96197W        W39109  10.764  31.942  30.599  0.0433 -0.5145 -0.1354
96198W        W39110  10.936  30.432   4.079 -0.1285  0.0723  0.0468
96199W        W39111  12.284  30.157   2.735  0.2586 -0.2772  0.0217
96200W        W39112  15.805  28.934   2.452  0.1000 -0.1422 -0.0273
96201W        W39113  13.350  30.862   2.256  0.0172  0.1090  0.3906
96202W        W39114  13.123  32.416   1.161 -0.1320  0.1236 -0.0255
96203W        W39115  13.815  31.562   1.030  0.2083 -0.1412 -0.1762
96204W        W39116  13.513  30.582   3.199 -0.1737 -0.0401 -0.2340
96205W        W39117   9.441  31.246   2.082 -0.1266  0.0160 -0.3099
96206W        W39118  11.772  31.636   2.207 -0.0551  0.1197 -0.1892
96207W        W39119  12.022  31.871   0.463 -0.1333 -0.1780  0.0273
96208W        W39120  15.203  30.263   1.141  0.3689 -0.2453 -0.1006
96209W        W39121  14.944  32.809   2.478 -0.3747 -0.3721  0.1845
96210W        W39122  13.025  33.729   3.053  0.0869  0.1757 -0.1284
96211W        W39123  10.112  31.450   0.927 -0.0385  0.3043  0.2585
96212W        W39124  13.336  31.691   5.546 -0.1331 -0.1709  0.2470
96213W        W39125  13.297  33.290   2.930 -0.0276  0.1850  0.0221
96214W        W39126  12.764  31.532   3.003  0.0640 -0.6677  0.1026
96215W        W39127  11.933  30.756   2.035 -0.3117 -0.1622 -0.0865
96216W        W39128  11.051  31.662   1.271  0.0407  0.0879  0.1162
96217W        W39129  11.533  31.752   1.119 -0.1445 -0.3426  0.0294
96218W        W39130  12.955  32.300   3.466 -0.2262 -0.1383 -0.1233
96219W        W39131  11.546  31.212   3.886  0.2198 -0.1905 -0.2589
96220W        W39132  15.016  29.950   4.917 -0.1334  0.1065  0.0481
96221W        W39133  12.347  32.262   0.629 -0.1385 -0.0887 -0.0617
96222W        W39134  12.832  30.004  31.789  0.1128  0.0699  0.0286
96223W        W39135  12.641  29.040  31.399 -0.1252  0.0652  0.0802
96224W        W39136  15.299  30.065   1.635 -0.0487  0.2370 -0.0241
96225W        W39137  12.846  29.032   2.174 -0.1975 -0.1395  0.0776
96226W        W39138  10.634  31.362   0.730  0.2644  0.0256 -0.1072
96227W        W39139  11.502  28.840   1.289 -0.2706  0.1960  0.0742
96228W        W39140  13.765  31.698   3.302  0.2031 -0.0446  0.2637
96229W        W39141  12.737  31.538   1.019  0.1603  0.1563 -0.1257
96230W        W39142  12.706  30.984   2.344  0.1056  0.0592 -0.1361
96231W        W39143  10.997  32.074   4.267 -0.3117 -0.2297  0.1098
96232W        W39144  11.853  29.272   2.116 -0.0397 -0.2787 -0.2149
96233W        W39145  13.429  31.998   0.877  0.0146 -0.0338  0.3313
96234W        W39146  13.843  32.099   1.054 -0.1651  0.1717 -0.2720
96235W        W39147  12.634  32.111  31.657  0.1408 -0.1242  0.0178
96236W        W39148  11.579  30.546  31.275  0.3832 -0.0137 -0.1569
96237W        W39149  12.471  32.283   3.707  0.0564 -0.0154  0.1994
96238W        W39150  12.260  31.371   4.099 -0.1459 -0.0891  0.2315
96239W        W39151  13.830  27.857  31.553  0.5001 -0.4357  0.1707
96240W        W39152  14.292  31.212   2.261 -0.2010  0.5660 -0.2625
96241W        W39153  11.504  32.075   4.013  0.3421 -0.0741 -0.1653
96242W        W39154  14.702  28.548   2.496  0.1143 -0.1380  0.1179
96243W        W39155  11.893  32.626   2.705 -0.1675 -0.0348  0.0256
96244W        W39156  15.087  30.930   3.543  0.3692  0.0001 -0.1526
96245W        W39157  13.026  31.871   1.258  0.0316  0.2207 -0.1159
96246W        W39158  14.003  30.526   3.116  0.0734 -0.0191  0.0243
96247W        W39159  14.148  30.176   2.869 -0.1426  0.0788  0.3645
96248W        W39160  11.564  29.524   0.018 -0.2811  0.4162  0.1122
96249W        W39161  12.325  32.250   2.521  0.2355 -0.2779  0.0238
96250W        W39162  14.891  32.423   2.127  0.1900 -0.1397 -0.0005
96251W        W39163  13.572  31.566   0.574 -0.0493  0.0737  0.1552
96252W        W39164  10.774  31.440   2.699  0.0535 -0.3017 -0.3019
96253W        W39165  13.101  28.302   4.043  0.1652 -0.2051  0.0262
96254W        W39166  13.061  31.799   3.922  0.0758 -0.1126 -0.1466
96255W        W39167  13.668  34.143   0.154  0.0534 -0.0577  0.1462
96256W        W39168  11.073  29.515   1.525 -0.5488  0.1292  0.0412
96257W        W39169  10.361  31.663  31.920 -0.1199  0.1416  0.2191
96258W        W39170  10.890  29.429   3.601 -0.2070  0.3677 -0.2835
96259W        W39171  11.818  30.464   1.237 -0.1398  0.2567  0.0296
96260W        W39172  14.182  30.206   1.189  0.1862 -0.1036  0.1369
96261W        W39173  10.995  29.381   2.117 -0.2840 -0.2818 -0.2299
96262W        W39174  13.349  28.727   2.827 -0.1854  0.1522 -0.0015
96263W        W39175  10.955  30.894   0.941 -0.2957  0.2355 -0.0209
96264W        W39176  14.651  33.200   0.428 -0.0662 -0.1687  0.0066
96265W        W39177  13.854  31.444   1.953 -0.0764  0.0337  0.0407
96266W        W39178  14.394  30.752  30.782 -0.1995 -0.1653 -0.0746
96267W        W39179  11.039  30.184   5.001 -0.2700  0.3198 -0.1415
96268W        W39180  12.629  29.948   2.064 -0.2956 -0.1853 -0.2123
96269W        W39181  10.747  29.101   1.604 -0.1648  0.1334  0.2851
96270W        W39182  12.111  29.612   2.814 -0.1210  0.0702  0.1348
96271W        W39183  13.219  30.737   1.782 -0.1361  0.3179  0.1742
96272W        W39184  11.279  27.464  31.454 -0.2050 -0.0035 -0.1824
96273W        W39185  12.803  28.918   2.683  0.1455  0.0145 -0.1718
96274W        W39186  12.559  30.489  31.813 -0.0939 -0.0954  0.1786
96275W        W39187  10.345  29.069   1.132 -0.0065 -0.0699 -0.0360
96276W        W39188  14.724  29.609   2.866 -0.0362 -0.1703 -0.0357
96277W        W39189  13.320  31.804   1.798  0.2748 -0.2686  0.1058
96278W        W39190  14.954  33.845   3.356  0.1301 -0.2428 -0.2685
96279W        W39191  14.828  32.726   1.120  0.0686  0.1658 -0.1716
96280W        W39192  11.622  30.541   4.003  0.1041 -0.1223 -0.0911
96281W        W39193  11.511  29.276   0.772 -0.1846 -0.2164  0.5709
96282W        W39194  11.036  31.286   2.298 -0.0547  0.1897  0.0977
96283W        W39195  12.538  31.374   2.596 -0.3889 -0.0779  0.3232
96284W        W39196  12.056  29.264   1.037 -0.1560  0.1004  0.1608
96285W        W39197  14.878  33.227   1.272  0.0412 -0.1938  0.0625
96286W        W39198  13.215  31.439   0.914 -0.2604  0.3419 -0.1626
96287W        W39199  10.567  30.269   2.570  0.1985  0.3453 -0.0721
96288W        W39200  13.418  29.143   3.663  0.1254  0.0687  0.1170
96289W        W39201  13.705  32.998   2.744  0.0792  0.0467 -0.2488
96290W        W39202  14.191  29.049   1.958 -0.1671  0.0278 -0.0444
96291W        W39203   9.713  29.184  31.293 -0.0653 -0.0266  0.2749
96292W        W39204  14.356  34.221   0.762  0.1076 -0.2298  0.1370
96293W        W39205  12.426  30.945   0.874 -0.0569 -0.2367 -0.1324
96294W        W39206  11.302  30.392   2.767  0.0099  0.0658  0.1691
96295W        W39207  11.258  31.502   1.867 -0.2573 -0.3935 -0.0345
96296W        W39208  14.165  31.719   2.773  0.1834 -0.0256  0.0315
96297W        W39209  10.374  30.632   4.223 -0.1561  0.2774 -0.0262
96298W        W39210  14.170  30.400   3.994  0.0549 -0.1218  0.2471
96299W        W39211  11.115  29.610  31.803 -0.0554  0.0176 -0.1442
96300W        W39212  10.674  31.800   3.534 -0.2894 -0.0458 -0.3927
96301W        W39213  13.194  30.049   1.319  0.0094 -0.2109  0.2935
96302W        W39214  14.588  31.613   0.444  0.0195 -0.0755 -0.0835
96303W        W39215  14.098  31.356   3.264  0.0468 -0.1027  0.1547
96304W        W39216  14.127  32.377   0.625 -0.1424 -0.0717 -0.0158
96305W        W39217  14.240  30.362   0.672 -0.0065  0.0556 -0.1236
96306W        W39218  12.559  28.555   0.371  0.2423 -0.3692  0.1441
96307W        W39219  12.192  30.754   2.789  0.0147 -0.1289  0.2399
96308W        W39220  12.960  30.557   2.117 -0.1342  0.2907  0.1541
96309W        W39221  11.643  32.293   2.278  0.1640 -0.0506  0.3082
96310W        W39222  12.105  28.974  31.450  0.1628  0.1524  0.0794
96311W        W39223  15.132  31.537   0.557  0.1353 -0.0454 -0.2832
96312W        W39224  10.106  32.078   2.816 -0.2277  0.1917  0.0158
96313W        W39225  12.818  31.082   3.464 -0.1444 -0.1907 -0.3259
96314W        W39226  13.403  31.004   1.155  0.0865 -0.1770  0.0013
96315W        W39227  12.245  29.671   4.165 -0.2303  0.2745  0.0722
96316W        W39228  12.066  28.746   1.073  0.1424  0.0258  0.0534
96317W        W39229  13.132  29.360   2.527  0.1505 -0.0671  0.0320
96318W        W39230  10.453  31.680  31.173  0.0591  0.4743  0.1469
96319W        W39231  13.390  31.385   2.109  0.3092 -0.2598  0.0090
96320W        W39232  13.868  30.398   3.545 -0.2578  0.0577 -0.2498
96321W        W39233  12.437  28.470   4.622  0.1687  0.1266 -0.1992
96322W        W39234  14.959  31.129   2.383  0.3607 -0.2353 -0.1791
96323W        W39235  13.254  29.435   1.556  0.1049  0.0597 -0.2720
96324W        W39236  12.832  30.482   0.543  0.0606 -0.0587 -0.2346
96325W        W39237  12.297  30.583   0.391 -0.1521  0.0020 -0.0269
96326W        W39238  13.666  29.919   3.522 -0.1596  0.1219 -0.1444
96327W        W39239  10.994  31.121   3.041 -0.0778 -0.2108  0.2945
96328W        W39240  11.366  31.855   2.390 -0.0490 -0.0407  0.0292
96329W        W39241  16.291  31.390   3.314  0.2286 -0.2030  0.2186
96330W        W39242  13.299  30.517   1.247  0.0197 -0.0473  0.0400
96331W        W39243  15.193  29.787   3.743  0.0796 -0.0131  0.1864
96332W        W39244  12.157  29.746   2.269  0.2247 -0.0614  0.0837
96333W        W39245  11.674  31.577   1.665 -0.0027 -0.1541  0.5430
96334W        W39246  11.580  30.974  31.956  0.1725 -0.1416  0.0450
96335W        W39247  12.883  29.652   1.352  0.3240  0.1313  0.2869
96336W        W39248  13.407  32.690   2.232 -0.0873  0.0933  0.2229
96337W        W39249  11.530  31.696   0.593 -0.1372  0.2756  0.0061
96338W        W39250  14.882  31.113   3.100  0.0287  0.0154 -0.3307
96339W        W39251  10.704  30.802   2.321 -0.2496  0.4325  0.0816
96340W        W39252  14.491  30.682   2.123  0.1446 -0.0588  0.0233
96341W        W39253  11.417  30.043   1.015  0.3065  0.0010 -0.2206
96342W        W39254  11.764  29.981   0.338  0.3050  0.0807  0.1040
96343W        W39255  11.077  29.583   1.020 -0.1415  0.0918  0.1046
96344W        W39256  13.335  30.270   2.373  0.3256 -0.2189  0.3976
96345W        W39257  12.273  31.960  31.965 -0.1150 -0.1986 -0.0620
96346W        W39258  12.801  29.918   2.990 -0.0375  0.0494 -0.0608
96347W        W39259  11.031  28.793   1.987 -0.1662  0.3320 -0.1008
96348W        W39260  10.960  31.197   1.560 -0.0172  0.0811 -0.0777
96349W        W39261  13.355  31.197   1.638 -0.0170 -0.1550 -0.1833
96350W        W39262  13.773  29.755   1.189 -0.1922 -0.1893 -0.0889
96351W        W39263  14.196  32.743   2.795 -0.3680  0.1292  0.1304
96352W        W39264  11.071  30.809   3.704  0.1367 -0.1493 -0.0689
96353W        W39265  12.377  28.891  30.975  0.1598  0.1342 -0.2630
96354W        W39266  13.993  30.899   1.997  0.1345  0.4582 -0.0799
96355W        W39267  14.550  31.249   2.700 -0.1219 -0.0510 -0.0880
96356W        W39268  12.529  31.776   0.491 -0.1506  0.2712 -0.0502
96357W        W39269  14.609  33.697   2.395 -0.0258  0.1506  0.0875
96358W        W39270  11.808  30.233   0.770 -0.2843 -0.1307 -0.2767
96359W        W39271  11.483  29.855   1.548 -0.0774 -0.0562  0.3334
96360W        W39272  13.040  30.634   4.575  0.1487  0.2033  0.1024
96361W        W39273  14.562  31.120   3.504  0.0562  0.3141 -0.1069
96362W        W39274  12.792  30.755   1.504  0.0440 -0.1035  0.2591
96363W        W39275  12.817  30.207   2.478 -0.2027 -0.3646 -0.0356
96364W        W39276  12.208  30.398   1.807  0.1066 -0.0593  0.1789
96365W        W39277  12.878  31.162   1.835  0.2099 -0.0674 -0.2251
96366W        W39278  13.441  31.097   2.773 -0.0324 -0.0626 -0.1307
96367W        W39279  12.892  32.580   3.090  0.2659 -0.0279  0.2367
96368W        W39280  13.352  29.632   0.993 -0.0131 -0.0941  0.0892
96369W        W39281  15.161   0.121   0.238  0.0730 -0.1182 -0.1962
96370W        W39282  13.363  30.448   3.648  0.0813  0.0563  0.0439
96371W        W39283  10.747  30.537   0.707  0.3609  0.2493  0.0098
96372W        W39284  10.508  32.159   1.993 -0.1629 -0.2650  0.4097
96373W        W39285  11.937  30.809   0.834 -0.0674 -0.2752 -0.0679
96374W        W39286  12.770  30.491   3.614  0.0049 -0.1700  0.2675
96375W        W39287   9.992  32.159   3.393 -0.2038  0.1982 -0.0391
96376W        W39288  12.527  31.074  31.839 -0.1755 -0.0181 -0.0433
96377W        W39289  10.092  32.600   2.613  0.0289 -0.1234  0.0674
96378W        W39290  15.197  28.319  30.729  0.1216 -0.3348  0.0080
96379W        W39291  13.133  32.256   0.534 -0.1949 -0.0610 -0.0920
96380W        W39292  13.687  29.565   2.161 -0.2645  0.5536 -0.2154
96381W        W39293  15.388  30.958   3.078  0.0321  0.0766  0.0504
96382W        W39294  12.890  31.613   0.096  0.0093 -0.5454 -0.1861
96383W        W39295  16.010  30.312   2.736 -0.0842  0.0468  0.1901
96384W        W39296  11.355  29.799   2.794 -0.1277  0.2139 -0.0565
96385W        W39297  13.868  31.923   1.925  0.0621 -0.0816 -0.0403
96386W        W39298  12.127  29.911   3.610 -0.1672  0.3292 -0.0078
96387W        W39299  13.770  33.445   3.759 -0.0322  0.0212 -0.1460
96388W        W39300  12.636  30.380   4.288  0.0241  0.4819  0.0497
96389W        W39301  13.844  30.971   3.035  0.4778  0.1258  0.0273
96390W        W39302  11.204  29.177  31.132  0.1902  0.1376 -0.2047
96391W        W39303  14.408  30.364   3.476 -0.3434 -0.1730 -0.1701
96392W        W39304  12.208  31.547   1.518  0.0684 -0.2807  0.0925
96393W        W39305  12.538  31.217   0.468 -0.0952  0.1127 -0.3612
96394W        W39306  13.954  30.044   2.078 -0.1576 -0.1468  0.0622
96395W        W39307  11.182  31.990   0.903 -0.1039 -0.1621  0.0204
96396W        W39308  12.387  30.879   1.978  0.1453 -0.3472  0.0223
96397W        W39309  13.302  34.282   0.443  0.0953 -0.2084 -0.2750
96398W        W39310  11.159  31.332   0.751  0.1950 -0.1044 -0.1634
96399W        W39311  11.723  29.368   2.927  0.0756  0.2007 -0.0639
96400W        W39312  13.059  30.716   2.629  0.2097  0.0348 -0.0589
96401W        W39313  14.307  28.192   1.297 -0.1098  0.1975 -0.2033
96402W        W39314  15.367  31.327   3.437  0.0182  0.1215 -0.0778
96403W        W39315  15.189  30.679   2.378  0.0060 -0.0309 -0.3068
96404W        W39316  13.199  30.040   3.362 -0.3819 -0.1486 -0.0296
96405W        W39317  10.667  28.857   3.224 -0.0808 -0.2288 -0.0526
96406W        W39318  14.089  32.249   2.912 -0.1208  0.1203 -0.1886
96407W        W39319  14.782  31.433  31.095 -0.1690 -0.2816 -0.2919
96408W        W39320  15.062  30.228   2.674 -0.1430  0.1510 -0.5128
96409W        W39321  13.856  31.112   1.554 -0.0948 -0.0638 -0.0348
96410W        W39322  13.744  30.569   1.020 -0.1220 -0.2910  0.2030
96411W        W39323  11.862  30.445   3.106 -0.0738  0.1335 -0.2218
96412W        W39324  16.236  30.702   2.521  0.0425  0.0617  0.0173
96413W        W39325  13.107  28.752  31.900  0.3622 -0.2110 -0.2713
96414W        W39326  14.634  28.972   3.385 -0.2428 -0.0372  0.0675
96415W        W39327  13.050  31.083   0.553  0.0663 -0.2824 -0.0369
96416W        W39328  12.738  32.149   0.913  0.1015  0.1879 -0.1480
96417W        W39329  14.652  28.201   0.563  0.4599  0.1006  0.1736
96418W        W39330  11.707  29.681   2.486 -0.0618  0.0279  0.1044
96419W        W39331  11.403  32.354   3.535  0.1794 -0.0843  0.2368
96420W        W39332  12.875  28.258   0.634  0.0421 -0.0766  0.0099
96421W        W39333  11.417  31.049   0.433  0.2833 -0.0919  0.0614
96422W        W39334  13.585  32.214   2.179 -0.0757  0.5816  0.0608
96423W        W39335  15.855  31.152   3.153  0.3477  0.0169 -0.5145
96424W        W39336  13.913  27.453   0.454 -0.0514 -0.1258  0.1121
96425W        W39337  14.563  29.492   2.379 -0.0717 -0.1163  0.1971
96426W        W39338  12.511  31.549  31.669 -0.0245  0.0072  0.1242
96427W        W39339  13.546  29.253   2.799  0.0253  0.1309 -0.3975
96428W        W39340  12.564  33.565   3.124 -0.2330  0.1343 -0.0506
96429W        W39341  10.635  30.335   2.053  0.0558  0.1592 -0.2532
96430W        W39342  11.576  30.155   2.369  0.0748 -0.1759  0.1788
96431W        W39343  13.022  30.686   3.183 -0.3481  0.0741 -0.0742
96432W        W39344  14.297  31.276   1.754  0.1030  0.0684  0.0621
96433W        W39345  12.371  30.411   0.879  0.2843 -0.2693  0.3216
96434W        W39346  14.028  32.654   2.032 -0.2424 -0.1236 -0.0650
96435W        W39347  12.681  32.151   4.182  0.0361  0.1089 -0.0562
96436W        W39348  11.694  30.637   2.564 -0.0377  0.0080  0.2091
96437W        W39349  14.716  33.197   2.265 -0.2052  0.2503  0.1380
96438W        W39350  11.746  30.178   1.860 -0.1953 -0.2552  0.2931
96439W        W39351  12.475  31.350   2.080 -0.4630 -0.0558  0.0489
96440W        W39352  12.037  30.294   4.917  0.1309  0.3893 -0.0484
96441W        W39353  13.794  31.220   4.276 -0.0261  0.0620  0.1949
96442W        W39354  12.085  31.082   2.415 -0.1859 -0.0670  0.1378
96443W        W39355  11.140  28.851   0.754  0.4737  0.1815 -0.2465
96444W        W39356  11.650  30.488  31.839 -0.2514  0.3124  0.2865
96445W        W39357  13.348  33.142   3.728  0.0473  0.2778 -0.0680
96446W        W39358  11.173  30.631   3.239 -0.1680  0.0656  0.1008
96447W        W39359  10.802  32.697   1.542 -0.0741  0.0098 -0.0097
96448W        W39360  14.286  32.848   0.578  0.0216  0.0165  0.1437
96449W        W39361  13.033  29.777   1.811  0.0432 -0.2910  0.0029
96450W        W39362  13.274  33.519   1.590 -0.1658  0.0437 -0.3664
96451W        W39363  14.170  29.102   0.959 -0.0147  0.1924  0.2452
96452W        W39364  11.459  30.536   1.980 -0.0153  0.0064 -0.1060
96453W        W39365  10.567  32.967   0.552  0.1241 -0.2022 -0.0106
96454W        W39366  13.655  32.147   0.509  0.1300  0.0994 -0.0076
96455W        W39367  12.292  31.805   0.939 -0.0470  0.3393  0.1450
96456W        W39368  15.455  31.183   2.255 -0.2890  0.3322 -0.1453
96457W        W39369  12.560  29.672   0.124  0.0727 -0.4172  0.0345
96458W        W39370  12.718  31.537   1.540 -0.0295 -0.2890 -0.1102
96459W        W39371  12.929  30.272   1.641  0.3592 -0.2466 -0.2198
96460W        W39372  14.043  32.052   3.877  0.1588 -0.1070 -0.0480
96461W        W39373  13.670  30.711   3.933 -0.2623  0.2466 -0.3238
96462W        W39374  12.800  29.241   1.715 -0.1705 -0.1095 -0.1583
96463W        W39375  10.882  29.611   2.609  0.0852 -0.0868  0.3182
96464W        W39376  15.843  29.415   2.657  0.1810 -0.1087  0.0298
96465W        W39377  12.242  32.737   3.402 -0.0334 -0.0636  0.1012
96466W        W39378  14.592  33.748   0.484  0.0849  0.0368  0.3445
96467W        W39379  11.429  30.746   0.929 -0.1904  0.1061 -0.0588
96468W        W39380  13.215  31.236   3.213  0.0088 -0.2095  0.0549
96469W        W39381  14.115  29.314   2.520 -0.0037 -0.0004  0.2530
96470W        W39382  13.368  30.592   0.710  0.3694 -0.1942  0.1375
96471W        W39383  13.777  31.150   2.357  0.2687  0.2269 -0.0747
96472W        W39384  12.939  33.518   0.323 -0.1870  0.1068 -0.0378
96473W        W39385  12.306  31.300   3.030 -0.0668  0.0585  0.0437
96474W        W39386  13.144  32.711   3.637  0.1153  0.0876 -0.0769
96475W        W39387  11.793  29.679   0.809 -0.1395 -0.3442  0.0762
96476W        W39388  14.713  28.452   1.051  0.0712  0.1485 -0.0527
96477W        W39389  15.592  29.965   3.512 -0.0953 -0.0465  0.1935
96478W        W39390  13.673  30.521   2.742  0.2893 -0.2108 -0.3244
96479W        W39391  11.928  29.970   1.356 -0.0434 -0.3451  0.0465
96480W        W39392  13.337  29.716   2.907  0.0087  0.1889  0.0681
96481W        W39393  14.283  31.992   3.286 -0.2113 -0.0029  0.0900
96482W        W39394  13.187  30.292   2.907  0.3999 -0.1838 -0.3983
96483W        W39395  13.468  30.121   1.902  0.1048 -0.0047  0.0085
96484W        W39396  12.768  31.921   2.484 -0.0226 -0.0163 -0.0098
96485W        W39397  13.084  29.607   0.071  0.1616  0.0786  0.1150
96486W        W39398  14.218  33.101   2.457 -0.0677 -0.3560  0.1277
96487W        W39399  11.058  29.103   1.188  0.0525  0.0875 -0.2016
96488W        W39400  13.271  30.109   0.791  0.0497  0.0150  0.2970
96489W        W39401  12.456  30.091   1.359  0.0949  0.1544  0.0531
96490W        W39402  11.452  29.511   1.916 -0.1103  0.3650  0.1352
96491W        W39403  13.627  31.961   2.789 -0.2680 -0.4710  0.1588
96492W        W39404  13.674  28.740   1.033 -0.1516 -0.0337  0.0302
96493W        W39405  14.175  31.315   0.664  0.1171  0.0655  0.0138
96494W        W39406  13.650  30.202   1.405 -0.4727 -0.0817 -0.2183
96495W        W39407  10.465  31.236   1.422 -0.2195  0.0599  0.0226
96496W        W39408  14.266  31.655   0.998 -0.0828 -0.4196 -0.1570
96497W        W39409  12.413  31.118   1.448  0.2182  0.0167  0.0477
96498W        W39410  10.666  29.807   2.130 -0.0881  0.0007 -0.2717
96499W        W39411  13.274  32.297   2.613  0.1146  0.2522 -0.0557
96500W        W39412  13.431  32.425   1.805  0.0851  0.0099 -0.2036
96501W        W39413  12.732  29.053   3.303  0.2258  0.1501  0.2949
96502W        W39414  12.440  30.781   3.226  0.1859 -0.1174 -0.0685
96503W        W39415  11.826  32.972   1.728 -0.0849 -0.1082  0.3534
96504W        W39416  14.916  28.674   2.955 -0.0585  0.2936  0.2405
96505W        W39417  14.256  29.894   3.298 -0.3066  0.1484 -0.2044
96506W        W39418  11.617  31.287   0.887  0.2791 -0.2139 -0.3525
96507W        W39419  16.074  30.163   3.308 -0.0125  0.2425  0.0303
96508W        W39420  13.409  33.167   1.923 -0.0267 -0.0262 -0.3778
96509W        W39421  11.605  31.833   3.578  0.0657 -0.0397  0.2877
96510W        W39422  10.055  31.047  31.750 -0.0691 -0.0937 -0.3064
96511W        W39423  11.835  31.665   3.106  0.2162  0.0380  0.3881
96512W        W39424  12.540  31.989   1.461 -0.1533  0.0970  0.0793
96513W        W39425  13.027  31.330   2.560  0.2025 -0.1302  0.0532
96514W        W39426  14.585  30.596   0.299  0.0773 -0.1888 -0.0741
96515W        W39427  12.845  30.872   0.150  0.3949 -0.0467 -0.1024
96516W        W39428  13.991  31.647   1.493 -0.1031 -0.1737  0.0251
96517W        W39429  13.242  29.774   2.311 -0.0332 -0.2023 -0.0010
96518W        W39430  13.644  28.003   2.983 -0.1225 -0.0420 -0.1854
96519W        W39431  13.460  28.642   1.907  0.2903 -0.1734  0.2997
96520W        W39432  10.807  30.616   2.845 -0.0444 -0.0597 -0.2729
96521W        W39433   9.709  30.369   0.471 -0.0221  0.0836  0.3071
96522W        W39434  12.863  32.102   0.138  0.0997  0.0127 -0.0118
96523W        W39435  11.078  28.652   1.437 -0.0161 -0.5441 -0.0370
96524W        W39436  12.980  28.814   4.112  0.3529  0.0785  0.3046
96525W        W39437  11.744  30.235   3.543  0.1240  0.2056 -0.1242
96526W        W39438  11.038  30.026   1.851 -0.2264 -0.0605 -0.0809
96527W        W39439  12.632  29.139   1.039  0.2200  0.3117 -0.5563
96528W        W39440  15.002  32.049   0.421 -0.1361 -0.0730 -0.2298
96529W        W39441  13.641  30.081   3.060 -0.0989 -0.1681 -0.4341
96530W        W39442  11.412  27.840   1.879  0.0240  0.0734  0.0436
96531W        W39443  14.303  32.062   1.290  0.0495  0.4695  0.4377
96532W        W39444  14.991  33.831   1.257  0.1175  0.0098 -0.2112
96533W        W39445  13.292  29.273   2.034 -0.1974 -0.2279 -0.2405
96534W        W39446  14.448  32.282   2.460 -0.1284 -0.0876 -0.4529
96535W        W39447  11.076  30.509  31.209 -0.1754  0.0843 -0.0877
96536W        W39448  13.690  29.469   3.311  0.4126 -0.0423  0.0373
96537W        W39449  11.335  30.136   3.260 -0.0132  0.0286  0.2278
96538W        W39450  11.339  29.663  31.327  0.0910 -0.1303 -0.0104
96539W        W39451  14.050  30.772   2.620 -0.0689  0.0863  0.1385
96540W        W39452  12.978  31.190   1.362  0.1718 -0.1560  0.0097
96541W        W39453  13.829  33.163   0.378 -0.1657 -0.0399 -0.0468
96542W        W39454  13.350  31.971   3.567  0.2307  0.0821 -0.0484
96543W        W39455  12.571  31.980   1.971 -0.0057  0.1218  0.1053
96544W        W39456  11.043  28.787   2.901  0.2354  0.3459  0.2620
96545W        W39457  13.896  31.038   1.033  0.2532  0.0211  0.1126
96546W        W39458  13.349  32.739   3.196 -0.0880 -0.0975  0.2206
96547W        W39459  12.943  32.543  31.832  0.2260 -0.1486  0.0770
96548W        W39460  13.855  28.434   2.826 -0.2063  0.0439  0.0854
96549W        W39461  12.348  30.637   1.316  0.2894  0.1254  0.1920
96550W        W39462  11.815  28.137   3.151 -0.0528 -0.1319 -0.0966
96551W        W39463  12.533  32.230   3.204  0.0415  0.0830 -0.1978
96552W        W39464  14.275  32.206   1.965  0.2288  0.2031  0.0403
96553W        W39465  11.978  29.641   1.766  0.0644  0.1186 -0.1999
96554W        W39466  13.825  30.130   0.834  0.0890 -0.4238  0.0959
96555W        W39467  13.039  31.782   0.536 -0.0926  0.0655 -0.1499
96556W        W39468  11.572  30.759   3.533 -0.0129  0.0862  0.0854
96557W        W39469  12.016  30.983   0.274 -0.0121  0.0599  0.3717
96558W        W39470  11.495  31.002   2.996  0.1747 -0.2274  0.0900
96559W        W39471  13.286  31.664   2.970  0.1373 -0.1288 -0.4278
96560W        W39472  16.360  31.145   2.771  0.2369  0.1636  0.0413
96561W        W39473  12.279  30.154   0.087  0.0643  0.2528 -0.0386
96562W        W39474  15.096  30.783   1.449  0.1939  0.0463 -0.0145
96563W        W39475  13.537  31.862   4.085  0.1990  0.0427 -0.2156
96564W        W39476  14.040  32.138   4.440  0.0400 -0.4060  0.1492
96565W        W39477  12.922  32.867   2.363 -0.0345  0.0703 -0.1789
96566W        W39478  13.710  31.668   2.386  0.1947  0.2629 -0.0356
96567W        W39479  11.183  28.287   2.059  0.2348  0.1180  0.0716
96568W        W39480  12.881  30.836   0.974 -0.1251  0.1157 -0.0813
96569W        W39481  12.042  30.251   2.307  0.0193  0.0968 -0.3163
96570W        W39482  15.181  29.891   3.134  0.1037 -0.0894  0.1150
96571W        W39483  12.715  30.444   2.888 -0.0131  0.1096  0.1600
96572W        W39484  13.403  28.199   1.730  0.1822  0.2467  0.1409
96573W        W39485  12.295  33.274   2.612 -0.0575 -0.0180  0.1582
96574W        W39486  14.260  31.704   2.216  0.1762  0.0931  0.3250
96575W        W39487  12.782  32.064   6.707  0.0042 -0.3912  0.4247
96576W        W39488  12.329  31.368   4.709  0.1921  0.0394  0.0932
96577W        W39489  15.673  30.819   2.708  0.0807  0.2512 -0.1937
96578W        W39490  14.628  29.235   4.384 -0.0871  0.1166 -0.0155
96579W        W39491  10.032  29.260   4.365 -0.0543 -0.0897  0.1251
96580W        W39492  14.400  32.355   3.642  0.2303 -0.0392  0.0354
96581W        W39493  13.945  28.459   6.067 -0.1037 -0.1162 -0.1703
96582W        W39494  14.017  31.312   4.735  0.0759  0.3969  0.0790
96583W        W39495  15.429  31.738   6.174  0.0486  0.2590 -0.1863
96584W        W39496  13.309  31.533   4.415 -0.0741  0.0036  0.1578
96585W        W39497  13.156  29.156   6.432  0.1399 -0.1355  0.0938
96586W        W39498  12.965  32.930   6.277  0.0856 -0.1348 -0.1450
96587W        W39499  12.526  30.907   3.836 -0.2091  0.1500  0.0242
96588W        W39500  11.309  27.544   5.686  0.1160 -0.0749  0.2495
96589W        W39501  14.472  29.869   5.198 -0.2886 -0.0191  0.0779
96590W        W39502  11.979  30.920   4.791  0.1494 -0.0369 -0.2185
96591W        W39503  12.015  29.222   5.758  0.0675 -0.1450 -0.2721
96592W        W39504  12.564  30.471   5.354 -0.0866 -0.0010  0.0972
96593W        W39505  14.158  32.624   5.252  0.0062  0.2069 -0.0574
96594W        W39506  13.158  28.781   5.531 -0.5210 -0.2503  0.0990
96595W        W39507  13.028  28.783   8.413  0.0399  0.1902 -0.2719
96596W        W39508  11.741  31.639   4.035  0.2362  0.2785 -0.1811
96597W        W39509  10.946  32.184   3.251 -0.0288 -0.1249  0.1480
96598W        W39510  11.192  30.382   7.106 -0.0118  0.4385  0.3516
96599W        W39511  11.947  31.100   6.136  0.0973 -0.2445  0.1543
96600W        W39512  14.901  28.758   3.986 -0.0857  0.1165 -0.1039
96601W        W39513  15.416  31.682   4.773 -0.1870  0.0099  0.0625
96602W        W39514  13.393  32.182   5.144  0.0591  0.0062 -0.0848
96603W        W39515  14.291  32.614   4.586  0.1566 -0.1861  0.0202
96604W        W39516  13.986  31.070   6.907  0.0045  0.0110 -0.1164
96605W        W39517  11.434  31.140   6.202 -0.2069  0.1203 -0.3041
96606W        W39518  12.139  32.308   5.643  0.0537 -0.2087 -0.4384
96607W        W39519  13.268  32.532   4.472  0.0220  0.1540 -0.4661
96608W        W39520  14.611  31.369   4.030  0.1374  0.3062  0.0055
96609W        W39521  14.407  33.023   7.295 -0.0937  0.0325 -0.0541
96610W        W39522  13.332  33.225   6.297  0.1848 -0.2274 -0.0810
96611W        W39523  11.682  33.169   4.597 -0.0291  0.2360  0.0069
96612W        W39524  13.246  33.097   7.009  0.2878 -0.3652 -0.2563
96613W        W39525  12.450  31.165   5.411 -0.0451 -0.0311 -0.0704
96614W        W39526  13.608  31.275   5.683  0.0070  0.1016 -0.1835
96615W        W39527  12.712  30.837   5.757 -0.3150  0.2045  0.0310
96616W        W39528  12.503  32.964   4.360 -0.1016  0.2778  0.0482
96617W        W39529  13.802  31.898   5.769 -0.0464  0.1497  0.1154
96618W        W39530  13.268  32.232   6.762  0.1628  0.1715 -0.1351
96619W        W39531  11.294  32.196   4.955  0.2486 -0.0938  0.1918
96620W        W39532  14.346  30.171   8.632  0.1666 -0.0775  0.0211
96621W        W39533  12.842  31.255   4.875  0.2059 -0.0713  0.1535
96622W        W39534  13.254  30.497   4.173  0.1442 -0.0814  0.1601
96623W        W39535  12.233  30.437   3.604  0.1125 -0.1515  0.2447
96624W        W39536  13.810  30.783   4.777  0.2527  0.2915  0.0356
96625W        W39537  12.575  27.985   4.749  0.1213 -0.1258 -0.1799
96626W        W39538  11.564  32.426   6.222 -0.0281 -0.0025  0.0061
96627W        W39539  12.330  29.176   4.951 -0.0715  0.1282 -0.3287
96628W        W39540  14.873  32.091   5.484 -0.2163 -0.3118  0.0445
96629W        W39541  14.745  31.534   5.444  0.1811 -0.0954 -0.1244
96630W        W39542  12.922  30.306   6.034  0.0944  0.2368  0.0114
96631W        W39543  12.665  31.854   4.824 -0.1044  0.3064 -0.0870
96632W        W39544  12.010  30.941   5.254 -0.0158  0.0515 -0.3259
96633W        W39545  13.151  33.559   4.115 -0.0254 -0.0271 -0.1081
96634W        W39546  17.095  31.384   5.326  0.0306 -0.1617 -0.1501
96635W        W39547  13.391  30.947   4.342  0.0402 -0.1642  0.2726
96636W        W39548  12.109  30.845   5.720 -0.2739  0.4139 -0.0133
96637W        W39549   9.851  30.899   6.253 -0.1095 -0.0337  0.2446
96638W        W39550  10.801  30.542   7.300  0.1428  0.0821 -0.1976
96639W        W39551  10.662  29.451   4.066 -0.0959 -0.0569 -0.2080
96640W        W39552  15.385  31.157   6.732 -0.0303 -0.0218  0.2612
96641W        W39553   9.672  33.277   7.135  0.1450 -0.1562  0.0297
96642W        W39554  14.226  30.181   5.557  0.0800 -0.0424 -0.2256
96643W        W39555  12.904  31.966   5.381  0.0528 -0.2403  0.0053
96644W        W39556  13.311  32.678   5.946 -0.3847  0.1197 -0.3468
96645W        W39557  12.773  31.376   3.960 -0.0723 -0.1415 -0.5407
96646W        W39558  13.372  29.413   6.031  0.1448 -0.2058 -0.2059
96647W        W39559  12.894  29.587   6.745 -0.0702 -0.2177 -0.0004
96648W        W39560  13.643  31.721   5.039  0.0532  0.1712 -0.0093
96649W        W39561  12.951  29.411   4.737  0.1483  0.1225  0.0008
96650W        W39562  15.287  32.370   5.512 -0.0059 -0.0489  0.2260
96651W        W39563  14.952  31.538   4.386 -0.2284 -0.0676  0.2194
96652W        W39564  12.231  31.522   6.237 -0.2507 -0.2492 -0.0630
96653W        W39565  12.921  29.956   6.400  0.2036 -0.0629 -0.1546
96654W        W39566  13.631  31.948   6.334  0.1265  0.1510  0.2595
96655W        W39567  12.959  33.208   3.488  0.0598  0.1023  0.2145
96656W        W39568  10.486  31.722   6.505  0.0658 -0.3110 -0.0968
96657W        W39569  10.599  31.866   4.007  0.0386 -0.2309 -0.1096
96658W        W39570  11.488  28.809   7.115 -0.3148 -0.2053  0.0212
96659W        W39571  12.409  30.990   6.116  0.2266  0.0726 -0.0786
96660W        W39572  14.684  29.726   3.922 -0.0158 -0.1520 -0.2123
96661W        W39573  12.452  30.372   5.824 -0.0041 -0.3059  0.0395
96662W        W39574  15.361  29.888   6.115 -0.0507 -0.0019  0.0224
96663W        W39575  13.419  30.425   4.749  0.1211 -0.1696 -0.0522
96664W        W39576  15.287  32.114   6.543 -0.0301  0.1740  0.1201
96665W        W39577  14.086  30.859   3.471  0.2103  0.1460  0.0140
96666W        W39578  15.646  31.112   4.226 -0.2367  0.0762 -0.0105
96667W        W39579  10.989  30.843   6.873  0.1085 -0.0022  0.0972
96668W        W39580  12.688  29.860   4.384  0.1959 -0.2450 -0.2402
96669W        W39581  12.880  29.386   7.579  0.0555  0.0816  0.0758
96670W        W39582  12.910  29.254   5.198  0.2258 -0.1498 -0.3238
96671W        W39583  14.343  31.025   6.198  0.1079 -0.4856 -0.0393
96672W        W39584  12.407  29.499   4.586 -0.1630  0.0498  0.1982
96673W        W39585  14.875  30.670   5.958  0.3870  0.3173  0.0565
96674W        W39586  13.155  28.976   4.575 -0.0100 -0.0275 -0.1968
96675W        W39587  11.948  32.221   5.134  0.0017 -0.1490  0.1025
96676W        W39588  14.327  31.318   6.576  0.1948 -0.0059  0.2913
96677W        W39589  14.062  33.007   4.843 -0.0319 -0.1576 -0.3115
96678W        W39590  16.209  31.945   7.149  0.0012 -0.0757  0.2114
96679W        W39591  13.786  31.552   3.762 -0.1428 -0.1026  0.2621
96680W        W39592  11.750  29.028   6.655  0.3258 -0.1198  0.1050
96681W        W39593  13.085  30.094   4.625  0.1706 -0.0959  0.1114
96682W        W39594  12.712  33.973   4.943  0.1894  0.0650 -0.2401
96683W        W39595  13.149  32.448   5.483 -0.1152  0.1536 -0.0023
96684W        W39596  13.235  29.757   4.268  0.3111  0.1886  0.2114
96685W        W39597  15.325  33.883   5.268  0.2479  0.1488 -0.0803
96686W        W39598  12.832  30.884   5.252 -0.2194  0.1585 -0.0945
96687W        W39599  12.401  32.395   6.851  0.1947  0.0895  0.1103
96688W        W39600  13.496  29.003   6.764 -0.2182 -0.1345 -0.1374
96689W        W39601  15.148  30.749   6.443 -0.1454 -0.2021 -0.3590
96690W        W39602  13.902  28.318   5.030 -0.2344 -0.1782 -0.0956
96691W        W39603   8.855  30.366   3.406 -0.0683  0.1098  0.0524
96692W        W39604  13.849  32.811   5.635  0.0664 -0.3722 -0.1381
96693W        W39605  13.043  31.703   5.926  0.1937  0.1731 -0.0077
96694W        W39606  11.592  31.601   5.433 -0.2505 -0.0134 -0.1475
96695W        W39607  14.030  32.641   6.106 -0.1891 -0.1509  0.0423
96696W        W39608  14.580  29.422   6.598 -0.2641  0.1078 -0.1137
96697W        W39609  12.547  29.760   7.150  0.1049  0.0704 -0.1088
96698W        W39610  12.889  30.719   7.369 -0.1448  0.3714  0.1507
96699W        W39611  12.980  30.128   3.962  0.1036 -0.0486 -0.1215
96700W        W39612  12.407  32.850   5.861  0.2951  0.0731 -0.1349
96701W        W39613  13.505  29.869   4.911 -0.0119 -0.0087  0.0720
96702W        W39614  13.853  30.677   5.319  0.0378 -0.0708  0.0952
96703W        W39615  12.531  32.071   5.659 -0.2805  0.1387  0.2077
96704W        W39616  14.964  31.568   3.609 -0.0587  0.2026  0.2205
96705W        W39617  14.031  29.461   4.550 -0.1691  0.2364  0.1636
96706W        W39618  14.664  30.208   3.957  0.1965 -0.0910 -0.0325
96707W        W39619  10.829  31.067   7.414 -0.2958  0.1526 -0.2484
96708W        W39620  13.853  31.203   5.208  0.0841 -0.0760 -0.1628
96709W        W39621  12.252  32.149   6.405 -0.0405  0.1989  0.2108
96710W        W39622  13.534  31.282   4.779 -0.0375  0.1400  0.1231
96711W        W39623  14.980  31.988   4.679 -0.3058  0.0045 -0.0484
96712W        W39624  12.032  31.331   5.670  0.1179  0.2950  0.0178
96713W        W39625  13.588  32.310   5.647  0.3927 -0.1370  0.1983
96714W        W39626  13.923  32.121   5.256  0.2248  0.1546  0.2766
96715W        W39627  12.139  28.218   5.133  0.1388  0.2883  0.3227
96716W        W39628  13.279  31.293   3.993  0.0207 -0.2297  0.1501
96717W        W39629  13.682  29.097   4.382  0.1681  0.0741  0.0795
96718W        W39630  11.965  33.103   3.628  0.1893  0.4020  0.1200
96719W        W39631  13.914  30.104   6.271 -0.0895 -0.1730 -0.2306
96720W        W39632  12.436  29.339   5.946  0.2525 -0.2100  0.1020
96721W        W39633  13.084  29.683   7.229  0.2231  0.0173 -0.0661
96722W        W39634  15.371  28.835   7.450  0.2005 -0.0657 -0.2397
96723W        W39635  13.810  31.700   4.503  0.1492 -0.0959  0.0644
96724W        W39636  13.031  30.328   5.059 -0.0813 -0.0281 -0.3386
96725W        W39637  11.833  31.417   3.519  0.0507 -0.0039  0.1534
96726W        W39638  13.142  29.135   7.889 -0.0939 -0.2037 -0.3374
96727W        W39639  11.705  31.579   5.928 -0.0730 -0.0787 -0.1341
96728W        W39640  11.051  32.382   5.365  0.2257  0.0304  0.1415
96729W        W39641  13.205  31.426   6.739  0.0197  0.3165  0.0403
96730W        W39642  13.561  30.241   5.362  0.0801  0.2001  0.0357
96731W        W39643  14.716  28.767   7.378  0.2416  0.1932 -0.0764
96732W        W39644  13.277  29.283   4.156 -0.1088  0.1622 -0.4140
96733W        W39645  13.257  32.654   4.969 -0.1579  0.2318 -0.1524
96734W        W39646  13.136  31.677   4.828  0.0015  0.1902 -0.4224
96735W        W39647  12.604  27.960   5.249  0.1059  0.2781  0.1217
96736W        W39648  14.116  31.086   5.776 -0.1500 -0.1911 -0.2323
96737W        W39649  12.576  31.823   3.810  0.0525 -0.0112  0.0599
96738W        W39650  14.509  31.726   4.580 -0.3793  0.0548  0.1617
96739W        W39651  12.522  31.643   5.300 -0.1942  0.1046  0.1907
96740W        W39652  14.823  29.521   5.360 -0.0937  0.2720 -0.0743
96741W        W39653  12.073  31.804   5.495 -0.1341  0.2638 -0.0424
96742W        W39654  12.276  30.961   4.355 -0.0799 -0.0799  0.1534
96743W        W39655  11.262  30.419   4.450 -0.1589 -0.1288 -0.0580
96744W        W39656  13.832  29.419   5.006 -0.2002  0.2934 -0.0299
96745W        W39657  14.153  31.225   3.865 -0.2560 -0.1624  0.2112
96746W        W39658  12.517  28.601   5.205  0.0991 -0.0412  0.1090
96747W        W39659  12.503  29.021   5.482 -0.0348  0.1406  0.4171
96748W        W39660  11.390  31.632   6.299 -0.0945 -0.1007 -0.0089
96749W        W39661  14.992  31.579   5.955 -0.1869  0.1284 -0.0521
96750W        W39662  14.097  29.891   4.319  0.0512 -0.3414  0.0130
96751W        W39663  13.740  31.417   6.576 -0.2866  0.2233 -0.2074
96752W        W39664  13.136  30.745   6.029  0.1692  0.1542 -0.0775
96753W        W39665  10.828  30.877   4.315 -0.0099 -0.1108 -0.2411
96754W        W39666  14.157  29.810   5.899 -0.0062 -0.3761 -0.1217
96755W        W39667  13.469  29.767   5.538  0.0824  0.0884  0.0127
96756W        W39668  11.870  30.955   6.603  0.0320  0.0746 -0.0240
96757W        W39669  15.190  32.777   5.959  0.1548 -0.2260 -0.0861
96758W        W39670  11.108  29.789   4.594 -0.1531 -0.2250  0.0122
96759W        W39671  11.275  32.658   4.060 -0.0389 -0.0474  0.1725
96760W        W39672  12.229  30.037   7.908  0.2282  0.2387 -0.1206
96761W        W39673  13.671  30.726   5.794 -0.2259 -0.2603 -0.2288
96762W        W39674  11.778  30.115   6.210  0.1271 -0.0529 -0.2365
96763W        W39675  12.579  30.278   4.796  0.2792 -0.1836  0.0307
96764W        W39676  13.125  30.488   5.585  0.1183  0.0293 -0.1365
96765W        W39677  14.811  31.050   5.262 -0.1707 -0.0927  0.0512
96766W        W39678  13.335  29.626   6.460  0.0562  0.0833  0.1715
96767W        W39679  12.187  31.912   5.951  0.2581 -0.1409  0.3084
96768W        W39680  12.464  28.285   6.105  0.1855 -0.1881 -0.0408
96769W        W39681  16.855  32.390   5.417 -0.0050 -0.1399 -0.3395
96770W        W39682  12.789  31.070   7.001  0.2175 -0.5585  0.3021
96771W        W39683  12.639  31.576   4.391 -0.1683 -0.0744 -0.0790
96772W        W39684  12.057  30.413   6.634 -0.3869  0.1324  0.0159
96773W        W39685  11.736  30.984   4.238 -0.0092 -0.1392 -0.2680
96774W        W39686  13.165  30.011   6.862 -0.0239  0.1426 -0.3208
96775W        W39687  12.202  31.906   4.838 -0.0968 -0.1936 -0.0210
96776W        W39688  11.019  32.199   3.803 -0.2670 -0.0295  0.0940
96777W        W39689  10.993  31.645   6.716 -0.1593 -0.0779 -0.0105
96778W        W39690  14.681  28.732   4.455  0.1593 -0.1152  0.0588
96779W        W39691  14.418  31.587   3.582  0.0205 -0.3034 -0.1339
96780W        W39692  13.109  28.714   5.036 -0.2453  0.0129 -0.2623
96781W        W39693  14.505  29.339   7.177 -0.0408  0.0040  0.0524
96782W        W39694  15.685  30.463   3.750  0.1264 -0.2041  0.3587
96783W        W39695  13.708  28.974   6.303 -0.1506 -0.1311  0.1227
96784W        W39696  12.811  28.733   6.244 -0.3566 -0.0959  0.1903
96785W        W39697  15.638  32.116   5.860 -0.0784 -0.0925 -0.0274
96786W        W39698  11.426  29.729   6.248  0.1134 -0.2206 -0.0476
96787W        W39699  13.311  31.915   7.779  0.4267  0.1434  0.2533
96788W        W39700  12.845  31.843   7.481  0.2590 -0.2205 -0.2585
96789W        W39701  12.996  29.550   3.373 -0.3913 -0.0163 -0.2642
96790W        W39702  12.394  29.443   3.665  0.2898 -0.1992 -0.1299
96791W        W39703  12.480  32.193   5.166 -0.1036 -0.1463  0.0250
96792W        W39704  15.895  32.104   5.421 -0.0297 -0.0638  0.0932
96793W        W39705  13.748  32.513   4.833  0.2490  0.2501  0.0625
96794W        W39706  15.845  30.076   6.100  0.2054 -0.1992  0.0492
96795W        W39707  12.997  32.359   7.791 -0.0040  0.0954  0.3213
96796W        W39708  14.425  31.379   5.084 -0.0307  0.2515  0.0277
96797W        W39709  14.661  30.186   3.024 -0.0051  0.1083  0.1774
96798W        W39710  12.054  31.419   5.145  0.1896  0.1738  0.0473
96799W        W39711  13.286  28.672   6.174  0.0970 -0.0866  0.3460
96800W        W39712  14.391  32.244   4.936  0.0786  0.0389 -0.2304
96801W        W39713  13.289  29.775   3.784 -0.0056 -0.0502 -0.0311
96802W        W39714  13.052  30.636   6.939 -0.2562  0.1139 -0.1575
96803W        W39715  14.239  29.763   6.493 -0.2619  0.4824  0.0787
96804W        W39716  12.394  30.564   7.819  0.0824  0.4017 -0.2412
96805W        W39717  12.658  29.804   8.085  0.0227  0.0118 -0.0783
96806W        W39718  16.661  32.884   7.166  0.0532  0.0714 -0.1107
96807W        W39719  16.022  30.908   2.044 -0.0367  0.3813 -0.1134
96808W        W39720  14.142  28.816   6.463  0.0476 -0.0067 -0.0260
96809W        W39721  14.697  31.859   3.939 -0.1100  0.0687  0.1159
96810W        W39722  12.800  31.103   4.392  0.5761 -0.2270  0.0118
96811W        W39723  11.576  30.649   6.236  0.2182 -0.1537 -0.0852
96812W        W39724  13.781  31.084   6.181 -0.0598 -0.2372 -0.2150
96813W        W39725  12.437  31.418   3.573  0.0858  0.2552  0.0949
96814W        W39726  13.467  29.516   6.907 -0.0741 -0.1059  0.2039
96815W        W39727  13.662  32.342   4.252  0.1252 -0.1509 -0.4657
96816W        W39728  14.217  31.565   5.510 -0.1052  0.2415 -0.2323
96817W        W39729  14.094  29.842   4.856 -0.1025 -0.1212 -0.1358
96818W        W39730  11.636  30.154   5.296 -0.1706  0.1745  0.0207
96819W        W39731  12.357  33.875   5.398  0.1561 -0.2254 -0.1458
96820W        W39732  12.549  30.832   4.858  0.1884  0.2087 -0.1643
96821W        W39733  12.737  31.015   2.919  0.1774  0.1239 -0.2004
96822W        W39734  14.115  32.344   5.670  0.3051 -0.0384  0.1396
96823W        W39735  14.608  31.130   5.796 -0.1572  0.1191  0.0391
96824W        W39736  13.646  30.153   3.933  0.2203 -0.1287 -0.0163
96825W        W39737  13.800  29.960   6.752 -0.2006  0.0617  0.2618
96826W        W39738  12.180  31.877   4.352  0.1383 -0.2330 -0.0519
96827W        W39739  14.227  28.064   5.349 -0.0669  0.0252 -0.1836
96828W        W39740  13.069  33.470   5.467 -0.2340 -0.2090 -0.0942
96829W        W39741  10.821  31.618   7.330  0.1400  0.0966 -0.1552
96830W        W39742  13.013  32.984   5.319  0.0878 -0.0368  0.2667
96831W        W39743  13.616  28.755   5.252 -0.0370  0.1207 -0.3404
96832W        W39744  12.887  30.069   5.494 -0.2391  0.2441 -0.2050
96833W        W39745  13.243  31.002   5.554 -0.0096  0.3887  0.0905
96834W        W39746  14.196  30.582   6.001  0.1906 -0.0418  0.3219
96835W        W39747  12.732  31.569   6.430  0.1351  0.0245 -0.0578
96836W        W39748  12.116  29.263   6.401  0.3034  0.0807  0.2170
96837W        W39749  12.993  32.395   6.377 -0.2443  0.0648  0.0054
96838W        W39750  14.404  30.870   4.851 -0.2358  0.1738 -0.0781
96839W        W39751  12.628  32.792   4.921  0.0592 -0.1342 -0.0790
96840W        W39752  10.483  30.142   7.467 -0.2290 -0.1479  0.0809
96841W        W39753  12.739  31.616   7.050  0.2657  0.1004 -0.2377
96842W        W39754  13.754  30.449   4.355  0.1454 -0.3471  0.2168
96843W        W39755  12.845  29.639   3.969 -0.0612 -0.1556 -0.1667
96844W        W39756  13.512  31.525   6.068  0.0813  0.0645 -0.2493
96845W        W39757  10.959  32.267   5.896 -0.1978 -0.1656 -0.0615
96846W        W39758  11.362  29.434   6.640 -0.0525  0.0090  0.3119
96847W        W39759  11.634  32.739   4.780 -0.1939  0.0478 -0.0467
96848W        W39760  13.518  32.096   4.658  0.0102  0.1030  0.4317
96849W        W39761  13.281  31.349   5.168 -0.0414  0.2690 -0.4353
96850W        W39762  13.196  32.166   5.944 -0.1930  0.0091 -0.1274
96851W        W39763  13.027  30.886   3.918  0.0881 -0.3332 -0.0426
96852W        W39764  11.799  31.908   6.369 -0.0227 -0.0513 -0.0330
96853W        W39765  11.374  32.435   4.522  0.1703  0.1260 -0.2247
96854W        W39766  13.838  32.796   4.466  0.2371  0.0648 -0.0423
96855W        W39767  12.654  32.602   5.399  0.0291  0.0049 -0.0888
96856W        W39768  14.495  31.941   5.891 -0.0371 -0.0612 -0.1309
96857W        W39769  15.391  28.517   3.149  0.0204  0.1995 -0.0648
96858W        W39770  15.857  30.668   5.144  0.2304 -0.0961  0.0376
96859W        W39771  15.963  30.782   4.141  0.1241  0.0258  0.4451
96860W        W39772  13.046  32.662   6.849 -0.0587  0.1740  0.0600
96861W        W39773  11.749  30.769   7.373  0.0869 -0.2746  0.1646
96862W        W39774  12.722  29.982   3.542  0.1631  0.0973 -0.4102
96863W        W39775  12.538  30.554   6.943  0.0202 -0.2403 -0.1568
96864W        W39776  14.748  29.908   7.927  0.0285 -0.1232 -0.1447
96865W        W39777  11.083  32.063   6.441  0.4799 -0.0648  0.1367
96866W        W39778  14.776  32.452   4.701 -0.0653 -0.3559 -0.0710
96867W        W39779  11.443  29.885   4.949  0.1807 -0.0570 -0.2244
96868W        W39780  11.693  30.562   5.741  0.0391 -0.0085 -0.2722
96869W        W39781  14.927  29.033   5.725  0.0429 -0.1250  0.1870
96870W        W39782  13.524  31.008   3.584  0.1187 -0.0182 -0.1711
96871W        W39783  14.013  31.506   6.102 -0.2351  0.3156  0.2058
96872W        W39784  12.014  32.042   3.895  0.0288 -0.2354  0.0797
96873W        W39785  12.323  31.715   6.709  0.2812  0.1587  0.0105
96874W        W39786  13.819  33.140   6.035  0.1284  0.1745 -0.3026
96875W        W39787  11.558  29.607   5.756 -0.0993  0.0880  0.1434
96876W        W39788  15.150  29.029   5.312  0.0080 -0.1508 -0.2169
96877W        W39789  12.860  30.214   7.233  0.4851 -0.1779  0.2177
96878W        W39790  13.521  30.236   5.888 -0.0455 -0.0139 -0.0080
96879W        W39791  11.513  30.380   4.879  0.2927  0.1254 -0.0116
96880W        W39792  16.082  29.650   5.372 -0.1887  0.0989 -0.1983
96881W        W39793  12.906  31.187   6.035 -0.4055 -0.0374  0.0666
96882W        W39794  12.572  30.458   8.768 -0.0554  0.0016  0.1678
96883W        W39795  12.498  30.538   2.368  0.1165  0.0249 -0.1472
96884W        W39796  15.959  31.679   6.188  0.0640  0.0525  0.1325
96885W        W39797  15.339  30.395   3.234 -0.2512 -0.0046  0.1289
96886W        W39798  13.620  33.496   6.840 -0.4169 -0.3118  0.0377
96887W        W39799  11.614  28.948   5.684 -0.2462  0.0619 -0.0557
96888W        W39800  12.648  29.802   4.914 -0.3029 -0.1584  0.0690
96889W        W39801  12.518  31.573   5.822  0.3594 -0.2157 -0.0386
96890W        W39802  13.474  30.929   6.889  0.2359  0.0426  0.3534
96891W        W39803  15.293  32.514   6.965  0.0885  0.0245 -0.3156
96892W        W39804  11.119  28.064   5.934 -0.3096 -0.1439  0.0580
96893W        W39805  14.702  32.000   2.074 -0.2718  0.0806  0.1024
96894W        W39806  14.902  29.977   7.124  0.1180  0.0442 -0.1026
96895W        W39807  12.247  32.436   4.247 -0.1026  0.0606  0.1176
96896W        W39808  14.160  30.835   4.402 -0.3816 -0.2906 -0.0356
96897W        W39809  14.330  33.064   6.179  0.0212  0.1904  0.1140
96898W        W39810  11.823  28.776   6.147 -0.0672 -0.1309 -0.2906
96899W        W39811  14.989  32.887   6.715 -0.0831  0.1304  0.1300
96900W        W39812  16.274  31.704   5.804  0.3238 -0.0145 -0.0685
96901W        W39813  13.417  28.646   4.273 -0.0364  0.0321  0.1990
96902W        W39814  11.674  30.125   6.686 -0.2807  0.1327 -0.0070
96903W        W39815  12.932  32.252   4.925 -0.2138 -0.2186  0.0999
96904W        W39816  14.755  28.946   6.873 -0.0760  0.0923  0.0469
96905W        W39817  13.912  29.399   5.655 -0.1657 -0.1039 -0.1749
96906W        W39818  13.262  32.782   2.716  0.4090 -0.2890 -0.0875
96907W        W39819  14.125  28.937   5.966  0.0756  0.1252 -0.3259
96908W        W39820  12.843  31.005   6.494  0.0857  0.0675 -0.0707
96909W        W39821  11.707  32.976   7.022  0.0613  0.1183 -0.0621
96910W        W39822  10.983  31.694   3.187 -0.1976 -0.0199 -0.0228
96911W        W39823  11.980  30.373   7.596 -0.0471  0.2648 -0.0526
96912W        W39824  13.130  31.869   6.407 -0.2426  0.0599 -0.1160
96913W        W39825  13.191  32.315   4.020  0.2639  0.2357  0.0946
96914W        W39826  15.785  32.092   6.386 -0.0183  0.3210  0.1904
96915W        W39827  12.857  29.449   6.208 -0.0678 -0.1005  0.1884
96916W        W39828  16.212  31.573   4.864 -0.1975 -0.1423  0.0494
96917W        W39829  11.639  29.446   5.038 -0.1084  0.0616  0.0286
96918W        W39830  14.726  29.608   7.551 -0.1229  0.0373 -0.0228
96919W        W39831  13.987  30.335   5.012  0.4468 -0.2604  0.0225
96920W        W39832  11.541  30.680   6.874  0.1817 -0.2957  0.0485
96921W        W39833  11.290  30.869   4.191  0.0875 -0.3868  0.0061
96922W        W39834  13.025  31.659   3.412 -0.0668 -0.1789  0.0936
96923W        W39835  12.896  31.367   5.494  0.2316 -0.0530 -0.0105
96924W        W39836  14.053  28.979   5.353  0.0700 -0.1328  0.1328
96925W        W39837  12.590  30.827   8.289  0.0246 -0.0894 -0.2820
96926W        W39838  12.336  30.120   6.279 -0.1111  0.1909  0.1747
96927W        W39839  11.759  28.999   4.650  0.2654  0.0649  0.1445
96928W        W39840  14.818  30.565   3.345  0.0302 -0.1254 -0.1417
96929W        W39841  13.400  29.146   5.017 -0.0993 -0.1340  0.2114
96930W        W39842  12.548  30.613   6.452 -0.0595  0.0783 -0.0452
96931W        W39843  14.125  32.505   4.055 -0.0574  0.0916 -0.1087
96932W        W39844  14.727  32.542   2.843 -0.2615 -0.2231  0.1662
96933W        W39845  13.426  28.291   5.158  0.0229  0.1824 -0.0051
96934W        W39846  14.805  32.504   5.872 -0.1147 -0.3966  0.2024
96935W        W39847  11.294  32.706   5.734  0.2126  0.0047  0.0437
96936W        W39848  13.822  30.468   8.062 -0.3690  0.0397  0.2704
96937W        W39849  12.346  28.911   6.100  0.2541 -0.1313  0.0234
96938W        W39850  11.024  28.206   3.734 -0.1624  0.2099 -0.1903
96939W        W39851  13.148  29.880   5.952  0.2331 -0.0385 -0.0611
96940W        W39852  12.912  33.705   4.546 -0.2251  0.0484  0.0595
96941W        W39853  13.289  32.222   3.150  0.0205  0.0631  0.1956
96942W        W39854  14.415  32.113   5.398  0.0853 -0.3238 -0.1084
96943W        W39855  12.557  33.205   6.293  0.2574  0.1725  0.0126
96944W        W39856  11.037  28.934   7.409 -0.2622  0.2022 -0.0034
96945W        W39857  14.212  31.691   4.167  0.2817 -0.1609  0.3685
96946W        W39858  13.464  32.905   6.657 -0.1281  0.2518  0.0183
96947W        W39859  13.582  32.381   3.759  0.0869 -0.1484  0.0898
96948W        W39860  14.524  29.086   6.235  0.2383 -0.1332 -0.0701
96949W        W39861  13.615  30.005   4.477  0.2134 -0.1674 -0.2515
96950W        W39862  12.710  28.692   6.881  0.0634 -0.3735 -0.0242
96951W        W39863  11.526  31.075   7.995  0.4220 -0.1680  0.1258
96952W        W39864  15.323  31.745   5.648 -0.2281 -0.0278 -0.5785
96953W        W39865  12.679  29.209   4.293  0.0726 -0.2240 -0.0392
96954W        W39866  14.942  29.132   4.724 -0.0101 -0.2522 -0.1997
96955W        W39867  14.151  31.759   4.915  0.2391 -0.2984 -0.0874
96956W        W39868  12.397  29.960   5.521 -0.1431 -0.1400  0.2206
96957W        W39869  12.937  29.202   3.756  0.1526  0.0724 -0.1283
96958W        W39870  12.604  30.100   6.736  0.0161 -0.0843  0.0828
96959W        W39871  14.376  33.562   6.182 -0.2582  0.4709  0.1585
96960W        W39872  15.226  31.334   5.280 -0.0637  0.1579 -0.0837
96961W        W39873  12.197  30.109   4.464  0.1182 -0.4049 -0.1968
96962W        W39874  16.126  30.888   3.604  0.1185 -0.1808 -0.2423
96963W        W39875  12.990  33.323   6.645 -0.0217  0.1161 -0.2362
96964W        W39876  14.563  32.018   7.218 -0.2546 -0.0257  0.1230
96965W        W39877  14.798  33.047   6.172 -0.0081 -0.2831 -0.0780
96966W        W39878  14.659  30.524   5.455  0.1734  0.1061  0.0194
96967W        W39879  12.076  28.400   4.242  0.3409 -0.1344 -0.1895
96968W        W39880  13.357  30.841   5.105  0.3642 -0.0775  0.1105
96969W        W39881  12.641  31.960   6.147  0.1721 -0.1841 -0.2373
96970W        W39882  13.422  29.226   5.526  0.0096  0.0421 -0.0352
96971W        W39883  12.634  29.896   5.961  0.3602  0.0001 -0.2345
96972W        W39884  13.477  29.486   4.653  0.1684  0.3119 -0.0507
96973W        W39885  12.351  31.164   6.602 -0.3911  0.3029 -0.0480
96974W        W39886  14.274  30.960   5.318 -0.0757 -0.1044  0.1198
96975W        W39887  12.008  33.387   9.900  0.0180 -0.0159 -0.3744
96976W        W39888  12.060  30.446   9.835 -0.3479 -0.0713 -0.2368
96977W        W39889  14.115  29.373   6.176  0.1181 -0.1715  0.1910
96978W        W39890  14.574  30.760   7.403  0.1574 -0.0614 -0.1004
96979W        W39891   9.446  30.383   9.770 -0.1807 -0.0474  0.2219
96980W        W39892  14.481  31.887   8.947 -0.0490 -0.3623 -0.0560
96981W        W39893  13.621  32.406   8.969  0.1475 -0.0309 -0.1828
96982W        W39894  14.051  31.533   9.198  0.2489 -0.1151 -0.1965
96983W        W39895  13.593  31.444   7.096  0.0950  0.0696  0.2543
96984W        W39896  12.420  29.546   9.357 -0.1040 -0.1746 -0.1168
96985W        W39897  13.306  29.215   7.278  0.0557  0.2733  0.0639
96986W        W39898  12.594  28.416   9.725  0.1865  0.0874  0.1707
96987W        W39899  14.222  30.134   8.079 -0.1496 -0.0075  0.1017
96988W        W39900   9.985  30.533   9.236 -0.2612 -0.0907  0.2377
96989W        W39901  14.324  30.079   9.463 -0.0972 -0.0915 -0.1649
96990W        W39902  12.458  30.507   9.442  0.2634  0.0173  0.0911
96991W        W39903  13.049  31.590   9.345  0.1008 -0.0731 -0.1901
96992W        W39904  12.018  30.288   8.848 -0.2008  0.0834 -0.0205
96993W        W39905  13.692  31.888   6.850  0.2824 -0.1523 -0.1437
96994W        W39906  11.736  29.824   8.639  0.3237 -0.0055  0.1391
96995W        W39907  11.633  31.239   8.542 -0.2492  0.2291  0.2778
96996W        W39908  11.679  32.494   8.684 -0.3746 -0.1442  0.0774
96997W        W39909  14.668  30.263   9.203 -0.2305  0.1217  0.1049
96998W        W39910  14.584  29.107   8.762 -0.1516 -0.0983 -0.0256
96999W        W39911  13.490  31.559  10.033  0.2205 -0.1193 -0.3572
97000W        W39912  13.587  31.912   8.317 -0.2353  0.1010 -0.0005
97001W        W39913  11.595  32.154   7.245  0.0013  0.1790 -0.1346
97002W        W39914  11.790  33.212   7.891  0.0187  0.1237 -0.0621
97003W        W39915  12.064  32.269   7.528 -0.1290 -0.0204 -0.0983
97004W        W39916  15.497  31.040   9.046 -0.2056  0.0200 -0.0101
97005W        W39917  12.613  32.475   7.523  0.0831 -0.0044  0.0785
97006W        W39918  14.035  29.681   8.329  0.0954  0.0233 -0.0552
97007W        W39919  13.041  30.747   8.764 -0.4484 -0.3179  0.0738
97008W        W39920  12.748  33.575   7.736  0.2220 -0.2327  0.0649
97009W        W39921  14.367  31.672   7.574 -0.1633  0.0364 -0.0081
97010W        W39922  12.265  31.831   8.164  0.4431 -0.1481 -0.1723
97011W        W39923  12.471  32.670   8.507  0.4126  0.2820  0.3679
97012W        W39924  13.406  30.134   6.419  0.1597 -0.0518  0.2122
97013W        W39925  11.508  30.546   7.751  0.1875  0.0013  0.0387
97014W        W39926  15.234  29.739   8.095  0.1201 -0.1170 -0.0381
97015W        W39927  11.559  29.226  10.044 -0.1404 -0.0197 -0.0428
97016W        W39928  12.542  33.719   9.166 -0.0851  0.2829 -0.0875
97017W        W39929  13.369  29.211   9.043  0.0669  0.2169 -0.1142
97018W        W39930  13.343  31.188   8.565 -0.1705 -0.0482 -0.2194
97019W        W39931  13.872  29.878   9.699  0.0008 -0.0271 -0.2714
97020W        W39932  13.015  31.762  10.325 -0.2284  0.1250 -0.1666
97021W        W39933  12.694  31.701   8.608  0.0534 -0.3411 -0.2605
97022W        W39934  15.566  31.712   6.756  0.0999 -0.1661 -0.0074
97023W        W39935  14.430  31.481   8.135  0.4666  0.0188 -0.0363
97024W        W39936  14.160  32.689   6.887  0.3259  0.0310 -0.1475
97025W        W39937  10.031  31.370   9.972 -0.2174  0.1779  0.0828
97026W        W39938  12.113  29.446   7.330  0.2153  0.2866 -0.2103
97027W        W39939  14.160  29.456   8.745  0.2321 -0.1648 -0.2266
97028W        W39940  12.668  31.497   9.999 -0.1925  0.2094  0.0278
97029W        W39941  13.903  30.565   8.560 -0.1008  0.3287  0.2554
97030W        W39942  13.847  31.784   7.417  0.0033 -0.2658  0.0535
97031W        W39943  13.702  29.222   9.952 -0.1167 -0.0630  0.2867
97032W        W39944  15.119  30.452   9.870  0.0918 -0.2353  0.1828
97033W        W39945  12.959  32.289   7.152  0.0608 -0.0185  0.0338
97034W        W39946  13.202  32.170   8.621  0.1590 -0.0351 -0.0396
97035W        W39947  15.153  30.217   9.464  0.2041  0.2184  0.1427
97036W        W39948  14.393  30.250   6.296 -0.1663 -0.2470 -0.1946
97037W        W39949  12.729  30.829   9.140  0.4576 -0.0326  0.2055
97038W        W39950  10.415  31.361   7.469 -0.2902 -0.1451 -0.3583
97039W        W39951  10.497  31.994   7.799 -0.0387  0.6310  0.2029
97040W        W39952  11.193  31.364   7.120 -0.0583  0.0600  0.2142
97041W        W39953  10.486  30.451   8.653  0.0609 -0.1801 -0.2448
97042W        W39954  13.767  32.178   9.493  0.0056 -0.1342 -0.2323
97043W        W39955  14.345  28.018   8.664  0.1357  0.0902  0.1422
97044W        W39956  14.095  27.376   9.007  0.1899 -0.1744 -0.2048
97045W        W39957  12.667  32.673   8.008  0.3417  0.3219  0.1798
97046W        W39958  16.214  33.069   7.393  0.0436 -0.0301 -0.0934
97047W        W39959  14.451  30.541   8.257 -0.2902 -0.2649 -0.1739
97048W        W39960  14.080  32.125   6.145 -0.1375 -0.1402 -0.0928
97049W        W39961  12.277  31.118   9.233  0.0634  0.0246  0.3230
97050W        W39962  12.577  29.483   8.456  0.0007  0.1540  0.1837
97051W        W39963  12.092  30.084   9.409 -0.1142 -0.0244  0.0966
97052W        W39964  10.072  28.836   9.392  0.3624  0.2231  0.1011
97053W        W39965  12.675  29.012   9.238 -0.2340  0.0494 -0.1671
97054W        W39966  12.643  31.318   7.483 -0.0755 -0.1301  0.3352
97055W        W39967  12.053  31.012   8.470  0.0353 -0.0093  0.5133
97056W        W39968  12.834  33.200   8.084 -0.2959 -0.2598  0.0114
97057W        W39969  14.755  29.680   8.890 -0.0325  0.1084  0.2208
97058W        W39970  14.123  32.875   8.937  0.1171  0.2875 -0.2286
97059W        W39971   9.989  32.331   9.547  0.0506 -0.2152 -0.2525
97060W        W39972  13.015  30.430   8.404 -0.0457  0.0823 -0.0094
97061W        W39973  11.661  32.534   9.708  0.0202 -0.2696  0.1299
97062W        W39974  14.617  31.842   8.506 -0.1799  0.2007  0.0293
97063W        W39975  12.672  29.960   8.633  0.0779 -0.1783 -0.0751
97064W        W39976  15.395  32.058   8.247 -0.1825 -0.0178 -0.0488
97065W        W39977  13.058  31.471   7.818 -0.1639  0.0280  0.1565
97066W        W39978  13.448  30.443   9.275 -0.2747 -0.1031 -0.2024
97067W        W39979  13.678  31.008   7.308 -0.0171  0.0060  0.0250
97068W        W39980  13.321  30.575   7.903 -0.0627 -0.0105 -0.0007
97069W        W39981  14.416  32.243   8.172 -0.0546  0.1677  0.0935
97070W        W39982  11.904  32.521   6.549 -0.1401  0.0473 -0.0374
97071W        W39983  10.941  31.361   8.696  0.0357  0.0834  0.6673
97072W        W39984  13.505  32.643   8.291  0.1069  0.0283  0.1024
97073W        W39985  13.660  28.680   9.225  0.2021  0.0284 -0.3191
97074W        W39986  12.375  30.853   7.381  0.2331 -0.2438  0.2563
97075W        W39987  13.553  28.940   8.145  0.0520  0.2133 -0.1900
97076W        W39988  13.876  29.576   7.895 -0.0991 -0.3463 -0.1159
97077W        W39989  13.522  32.448   6.318  0.2220  0.0988  0.3267
97078W        W39990  13.247  30.180   7.576 -0.1024 -0.0479  0.0474
97079W        W39991  12.282  29.443   6.840 -0.3673  0.0774 -0.1385
97080W        W39992  14.118  32.091   8.549  0.0837 -0.3778  0.1327
97081W        W39993  15.416  32.561   9.437  0.2221 -0.2650 -0.1397
97082W        W39994  13.405  30.600   7.329  0.0582  0.2469 -0.1493
97083W        W39995  15.160  32.007   7.662 -0.2663 -0.1567 -0.2914
97084W        W39996  12.069  32.256   8.426  0.1310  0.1158  0.1925
97085W        W39997  15.073  31.555   6.459 -0.2790 -0.0746 -0.2387
97086W        W39998  10.652  30.093   9.917  0.3970 -0.1048  0.1573
97087W        W39999  12.553  31.592   9.117  0.0524  0.0840 -0.6147
97088W        W40000  13.672  29.592   8.810 -0.2698 -0.1193 -0.1192
97089W        W40001  10.480  32.857   7.410 -0.1615 -0.0386 -0.0401
97090W        W40002  15.205  28.019   9.870 -0.1616 -0.1181  0.0693
97091W        W40003  13.177  29.221   9.932 -0.1701 -0.1944 -0.3434
97092W        W40004  14.088  30.794   7.428  0.2808 -0.1377 -0.3144
97093W        W40005  13.722  31.506   8.631 -0.1470  0.1357 -0.0390
97094W        W40006  12.903  31.890   8.139 -0.0776 -0.0793 -0.0162
97095W        W40007  15.349  28.995   9.879 -0.0945  0.1506 -0.0205
97096W        W40008  11.848  32.138   9.003 -0.0656 -0.0035 -0.2846
97097W        W40009  13.183  31.905   9.799  0.1828  0.1734  0.0519
97098W        W40010  13.594  30.117   7.180  0.3176 -0.0615  0.3650
97099W        W40011  12.784  32.479   8.850  0.0510  0.1221  0.0472
97100W        W40012  11.479  31.226   7.518  0.0795  0.1655  0.0687
97101W        W40013  13.062  30.058  10.028 -0.2561  0.3296 -0.4817
97102W        W40014  15.404  30.884   8.578  0.2513 -0.1577 -0.0237
97103W        W40015  11.870  31.428   6.649 -0.1584 -0.0623  0.0317
97104W        W40016  14.286  30.896   7.903 -0.0158 -0.0034  0.0562
97105W        W40017  11.136  33.123   8.527  0.3195 -0.2875 -0.0356
97106W        W40018  13.330  27.184   9.250  0.0920  0.0334  0.0563
97107W        W40019  11.373  32.109   8.880  0.1387  0.0075 -0.0787
97108W        W40020  12.581  30.292   8.192  0.2224  0.0361 -0.0796
97109W        W40021  12.225  29.506   8.052 -0.1671 -0.0378  0.0402
97110W        W40022  14.450  28.662   8.611 -0.0515 -0.0611 -0.3028
97111W        W40023  14.524  31.528   6.129  0.0426  0.2339 -0.1026
97112W        W40024  11.737  30.864   8.924  0.0820  0.6185  0.2203
97113W        W40025  13.664  30.316  10.011 -0.0470 -0.0500  0.2228
97114W        W40026  12.379  31.369   8.392  0.2509 -0.1822  0.1746
97115W        W40027  12.873  29.092   8.790 -0.1337 -0.1803  0.0031
97116W        W40028  11.360  29.622   8.986  0.0764  0.0212  0.1193
97117W        W40029  14.891  29.666   9.545  0.0689 -0.2757  0.1472
97118W        W40030  12.969  30.240   9.047  0.1816  0.1129 -0.1979
97119W        W40031  12.043  33.131   7.441  0.3301  0.2270  0.0777
97120W        W40032  15.419  30.383   8.606  0.1582 -0.1896  0.2268
97121W        W40033  11.992  31.791   8.612  0.0027 -0.0274  0.0929
97122W        W40034  13.290  32.050   9.173  0.0403  0.4621  0.2465
97123W        W40035  13.505  31.367   9.125 -0.6152 -0.2328 -0.2400
97124W        W40036  12.690  29.565   8.943  0.1860  0.0151 -0.0410
97125W        W40037  12.000  31.293   7.605  0.3154 -0.0475 -0.0667
97126W        W40038  13.374  30.307   8.796  0.0381  0.1677  0.5892
97127W        W40039  13.648  30.881   7.816  0.0531  0.2232 -0.4339
97128W        W40040  15.042  29.801  10.030  0.2491 -0.1342 -0.1666
97129W        W40041  11.801  29.361   8.998  0.1675  0.0553 -0.2210
97130W        W40042  15.548  31.658   7.557 -0.0011  0.1310  0.2055
97131W        W40043  12.568  31.169   8.828  0.1880  0.1285  0.1980
97132W        W40044  11.917  31.473   8.128  0.2779  0.2314  0.2881
97133W        W40045  13.293  32.237   8.154 -0.1314  0.4094  0.0395
97134W        W40046  11.181  29.794   9.752  0.0374  0.0858  0.1569
97135W        W40047  13.008  30.455   9.609  0.2329  0.4262  0.0799
97136W        W40048  12.599  32.162   8.440 -0.0197 -0.2154  0.0485
97137W        W40049  12.041  31.787   9.334 -0.1000 -0.1729  0.0756
97138W        W40050  15.021  27.742   8.333  0.1239  0.0777 -0.1301
97139W        W40051  12.094  30.449   7.152  0.1449 -0.0756  0.2353
97140W        W40052  13.122  29.719   9.101  0.0666  0.0521 -0.1765
97141W        W40053  13.562  30.594   6.284 -0.0483 -0.0680 -0.3927
97142W        W40054  10.490  31.517   8.777  0.0818 -0.0940 -0.1719
97143W        W40055  13.990  31.281   7.872 -0.1497  0.0871 -0.2772
97144W        W40056  13.753  29.044   8.789  0.0054 -0.0357  0.0837
97145W        W40057  12.847  29.908   7.628  0.0263  0.0025 -0.2819
97146W        W40058  11.433  30.536   9.727 -0.1802 -0.1495  0.3151
97147W        W40059  14.076  31.299   7.356  0.1647  0.0190 -0.2634
97148W        W40060  13.208  31.816   7.038  0.1355  0.0714  0.0019
97149W        W40061  13.839  30.024   8.633  0.0520 -0.4101  0.0044
97150W        W40062  12.644  30.380  10.094 -0.1902 -0.1694  0.1884
97151W        W40063  13.613  29.961   9.126 -0.3382  0.0345  0.1698
97152W        W40064  14.112  31.797   6.494  0.1722  0.0525 -0.3241
97153W        W40065  12.620  31.590   7.876 -0.1025  0.0133  0.2991
97154W        W40066  14.135  31.776   6.985  0.3128 -0.2378 -0.0178
97155W        W40067  14.019  27.857   9.305  0.2767 -0.4345 -0.0490
97156W        W40068  12.049  32.768   9.449  0.0977 -0.1736 -0.1089
97157W        W40069  13.801  30.384   7.570  0.2057 -0.0964 -0.1181
97158W        W40070  12.996  28.169   9.648  0.0796 -0.0308 -0.0512
97159W        W40071  14.329  29.168   9.249 -0.1708 -0.1707 -0.0318
97160W        W40072  13.522  30.426   6.771  0.0042 -0.0045  0.0289
97161W        W40073  11.274  31.147   9.008  0.1072  0.1593 -0.2094
97162W        W40074  13.162  30.014   8.048 -0.1826  0.3236  0.2925
97163W        W40075  11.991  32.531   7.092  0.0152  0.3990 -0.1542
97164W        W40076  14.015  31.846   7.979  0.0840  0.2366 -0.3053
97165W        W40077  14.190  30.105   7.220 -0.0389 -0.3042 -0.0636
97166W        W40078  11.475  30.429   9.008  0.3496 -0.0252 -0.4702
97167W        W40079  11.824  29.638   7.682  0.0155 -0.0115  0.0253
97168W        W40080  12.183  31.298   7.105  0.0645  0.0422  0.2805
97169W        W40081  11.838  31.552   9.701 -0.0102 -0.0383  0.0954
97170W        W40082  14.005  28.513   5.510 -0.0457  0.0418  0.0409
97171W        W40083  11.553  32.133   7.807  0.0094 -0.1676  0.0179
97172W        W40084  13.691  27.474   9.424  0.4193 -0.2087  0.0238
97173W        W40085  14.457  31.163  10.129 -0.0643 -0.0632  0.0012
97174W        W40086  13.245  33.240  10.548  0.1696  0.1587 -0.2349
97175W        W40087  11.854  30.545   9.294  0.1183 -0.4267  0.2991
97176W        W40088  14.625  30.641   8.717 -0.2684  0.0967 -0.0450
97177W        W40089  13.980  30.858   9.804  0.0418  0.1584 -0.2509
97178W        W40090  13.254  30.902   9.300 -0.1785  0.0681  0.2012
97179W        W40091  14.884  31.071   7.849 -0.0399  0.1241  0.3563
97180W        W40092  12.029  32.841   8.346  0.1910 -0.2020  0.3228
97181W        W40093  12.813  32.023   9.069 -0.2442  0.0090  0.2915
97182W        W40094  10.992  29.324   9.219 -0.0473 -0.0038 -0.0976
97183W        W40095  12.704  33.006   7.567 -0.0200 -0.0575  0.2118
97184W        W40096  11.125  31.156   8.278 -0.1124 -0.0116 -0.1610
97185W        W40097  12.906  34.078   7.663 -0.0295 -0.0304  0.1373
97186W        W40098  14.287  30.475   7.734  0.0181 -0.0190 -0.1633
97187W        W40099  13.118  31.322   7.258 -0.0468 -0.1629 -0.1062
97188W        W40100  15.095  31.808   8.506  0.1824  0.0188 -0.0064
97189W        W40101  13.300  31.063   8.121  0.1624  0.0540 -0.2739
97190W        W40102  12.484  32.294   9.329 -0.0120 -0.0219 -0.1106
97191W        W40103  10.588  32.785   6.849  0.0014  0.3700 -0.2797
97192W        W40104  14.481  32.515   7.343  0.0933 -0.0185  0.2795
97193W        W40105   9.861  32.751   8.566  0.0863 -0.1854  0.1456
97194W        W40106  14.237  29.092   6.833 -0.1726  0.0872 -0.4807
97195W        W40107  14.496  29.153   9.735 -0.3963  0.1367 -0.3338
97196W        W40108  14.376  29.121   8.300  0.0572  0.2674  0.1924
97197W        W40109  14.188  30.174   9.965  0.4748 -0.0491 -0.0303
97198W        W40110  13.335  29.630   7.704  0.1976  0.0934  0.0516
97199W        W40111  15.982  31.500   7.084  0.1023 -0.2237 -0.1454
97200W        W40112  12.195  29.774   8.882 -0.2052 -0.0120  0.0899
97201W        W40113  13.768  30.805   9.340 -0.0738 -0.2391 -0.0719
97202W        W40114  15.567  29.880   9.737 -0.2617  0.0811 -0.4142
97203W        W40115  11.574  31.771   6.792  0.2477  0.2695 -0.0198
97204W        W40116  14.422  29.577   7.972 -0.3253  0.1639 -0.0696
97205W        W40117  11.252  33.136   6.918 -0.0005 -0.3972  0.1057
97206W        W40118   7.721  33.467   9.609  0.0354 -0.2124 -0.3562
97207W        W40119  13.030  31.224   9.002 -0.1521 -0.0581 -0.1467
97208W        W40120  10.155  30.028   8.702 -0.1658 -0.3046  0.0803
97209W        W40121  14.677  28.359   8.945 -0.3705  0.3225  0.0587
97210W        W40122  12.438  30.030   9.725  0.1606  0.2556  0.2310
97211W        W40123  12.919  32.290   9.984 -0.2343 -0.2731  0.0117
97212W        W40124  13.718  29.669   7.336  0.1790  0.3789  0.3282
97213W        W40125  13.873  32.337   8.130 -0.3750  0.0506  0.0551
97214W        W40126  13.920  30.355   9.552 -0.1470 -0.2848 -0.1441
97215W        W40127  12.747  30.955   7.823 -0.1077  0.0721 -0.1103
97216W        W40128  12.859  30.487   7.758  0.1336 -0.0122 -0.1516
97217W        W40129  10.936  30.322   8.544 -0.1428  0.0161  0.0680
97218W        W40130  13.213  30.997   7.598 -0.0591  0.1269  0.5133
97219W        W40131  12.303  31.667   7.503  0.1067  0.0919  0.2630
97220W        W40132  13.459  30.698   8.395 -0.1464  0.0573 -0.0407
97221W        W40133   9.824  29.452   9.846  0.2261 -0.1310 -0.0580
97222W        W40134  14.914  32.102   6.844  0.1532  0.1717 -0.0764
97223W        W40135  15.624  30.297   9.451 -0.2340  0.0053 -0.0750
97224W        W40136  12.478  32.614   6.388 -0.2066 -0.0041  0.2077
97225W        W40137  14.847  29.245   9.330 -0.0065 -0.0395  0.1072
97226W        W40138  14.760  31.522   9.887  0.3010  0.1230 -0.1528
97227W        W40139  12.349  31.445   9.589  0.0933  0.1418  0.1149
97228W        W40140  13.306  31.286  10.463  0.0760 -0.2738 -0.1646
97229W        W40141  14.880  31.570   8.870 -0.0402  0.0092 -0.0881
97230W        W40142  13.167  29.891   8.635 -0.1429 -0.1492 -0.3164
97231W        W40143  14.530  30.552   9.735  0.3168  0.0331  0.0057
97232W        W40144   9.995  32.559   7.253 -0.2090  0.0582 -0.5836
97233W        W40145  14.107  29.425   9.618  0.0607  0.0634  0.0089
97234W        W40146  13.357  31.111   6.410  0.0873 -0.2304 -0.0058
97235W        W40147  13.439  30.697  10.288 -0.0204  0.1453 -0.0013
97236W        W40148  11.987  30.850   7.917  0.0136  0.1708  0.0826
97237W        W40149  13.818  31.912   8.979 -0.2766 -0.0641 -0.1699
97238W        W40150  11.772  34.301   7.537 -0.3832 -0.0819 -0.0030
97239W        W40151  13.845  31.024   8.325 -0.0029  0.0445  0.2301
97240W        W40152  13.629  31.482   8.131 -0.1442  0.1678 -0.0569
97241W        W40153  14.915  32.180   8.265 -0.1134  0.3211  0.1409
97242W        W40154  12.204  30.778   8.901  0.0749 -0.1577  0.1317
97243W        W40155  15.352  29.585   6.605 -0.0117 -0.4582  0.2382
97244W        W40156  14.874  30.186   8.470 -0.1809  0.2828  0.0634
97245W        W40157  13.193  31.316   9.747  0.1013  0.0999  0.1920
97246W        W40158  12.165  30.534   8.252  0.2058 -0.0809 -0.1935
97247W        W40159  11.898  31.675   7.192  0.2362 -0.0231 -0.1171
97248W        W40160  12.970  32.217   9.482 -0.1559 -0.0228 -0.2378
97249W        W40161  13.033  30.811   9.923 -0.1916  0.0331  0.0882
97250W        W40162  12.457  30.192   7.502 -0.4275  0.1939 -0.1933
97251W        W40163  14.790  32.299   7.798 -0.0782 -0.2482 -0.1645
97252W        W40164  10.508  31.433   9.916 -0.1423  0.0532 -0.0163
97253W        W40165  10.821  30.468   9.558  0.0566  0.2621 -0.0405
97254W        W40166  13.437  32.200   7.240  0.4602 -0.1691  0.3073
97255W        W40167  14.712  31.796   7.949  0.1141 -0.1502 -0.0319
97256W        W40168  13.498  30.199   8.338 -0.0530  0.1425  0.1971
97257W        W40169  12.619  32.963   6.779  0.0921 -0.0477 -0.1651
97258W        W40170  10.867  28.240   8.095  0.0061 -0.2045  0.2269
97259W        W40171  14.267  30.573   9.323 -0.3341  0.1093 -0.0869
97260W        W40172  13.532  32.543   7.750  0.1417 -0.2304 -0.0046
97261W        W40173  14.094  32.216   7.151  0.1775 -0.1488  0.0853
97262W        W40174   9.804  27.365  10.186  0.1705  0.1834 -0.2488
97263W        W40175  13.852  29.372   6.588  0.0922 -0.1624 -0.4093
97264W        W40176  14.570  30.475   7.011  0.2745 -0.1493 -0.0355
97265W        W40177  13.171  25.175   9.785 -0.0606 -0.3449 -0.0691
97266W        W40178  13.573  31.390   7.612 -0.0429  0.0503  0.0657
97267W        W40179  14.888  31.133   7.217  0.1872  0.0010  0.0471
97268W        W40180  11.954  29.269   9.437 -0.0978 -0.1144  0.0268
97269W        W40181  14.014  29.059   7.877 -0.2286  0.0702 -0.0401
97270W        W40182  14.476  31.214   7.638 -0.1802  0.0253  0.0974
97271W        W40183  10.897  30.956   9.284  0.3813  0.1908 -0.0245
97272W        W40184  13.639  29.991   7.872 -0.0140  0.1199  0.1703
97273W        W40185  13.690  31.833  10.462 -0.0841  0.0033 -0.2820
97274W        W40186  12.555  32.159   7.891 -0.3350  0.0746 -0.2303
97275W        W40187  14.599  30.213   7.467 -0.0788 -0.0525  0.2849
97276W        W40188  15.141  33.003   9.569 -0.1433  0.0678 -0.2910
97277W        W40189  13.708  31.239   9.590 -0.1727 -0.1504 -0.3613
97278W        W40190  13.945  30.610  10.318 -0.0152 -0.0815  0.2449
97279W        W40191  12.317  28.605   9.308 -0.1388 -0.0194 -0.1133
97280W        W40192  12.832  31.320   8.234  0.1526  0.0881  0.1382
97281W        W40193  13.224  31.619   8.355  0.2328  0.1753 -0.2533
97282W        W40194  13.555  33.668  10.385 -0.2791  0.1940 -0.2146
97283W        W40195  13.907  30.388   9.015  0.1200 -0.1378 -0.2354
97284W        W40196  14.518  29.741   8.442 -0.3892 -0.0902 -0.1092
97285W        W40197  13.640  31.075  10.065 -0.1720 -0.1675 -0.1724
97286W        W40198  13.550  30.895   8.877  0.2593  0.1413 -0.0927
97287W        W40199  12.860  33.161   0.677  0.3370  0.2582 -0.2461
97288W        W40200  13.254  33.437  31.893 -0.1172  0.0196  0.0866
97289W        W40201  15.081  34.407   1.292  0.3460 -0.0328 -0.0466
97290W        W40202  11.261  32.510   1.705  0.1383  0.3054 -0.1528
97291W        W40203  12.925  31.999   2.918 -0.1370  0.0667 -0.2023
97292W        W40204  12.397   0.542   0.139 -0.3468 -0.1069 -0.0337
97293W        W40205  12.845  33.476   2.578  0.3307 -0.1812 -0.0046
97294W        W40206  11.711  32.824  31.975  0.1123  0.1165 -0.2893
97295W        W40207  11.481  32.011   1.783  0.2380  0.3059 -0.3227
97296W        W40208  12.448  34.438   0.731  0.1228 -0.3183 -0.2723
97297W        W40209  11.167   0.201   0.953  0.2216 -0.0475  0.1770
97298W        W40210  13.595  33.194   1.270 -0.1951  0.0391 -0.0344
97299W        W40211  12.287  33.555   1.159 -0.1262  0.0612 -0.0561
97300W        W40212  13.409  33.035   4.699  0.2517  0.1585 -0.2803
97301W        W40213  13.810  33.046   2.191 -0.1368 -0.4249  0.1962
97302W        W40214  10.910  32.927   1.101  0.3265  0.0166  0.0184
97303W        W40215   8.519  34.596   1.866  0.2012 -0.0048 -0.0261
97304W        W40216  12.534  33.899   1.919 -0.2467 -0.0838  0.0096
97305W        W40217  14.833  33.313   1.810  0.0048 -0.2058  0.2614
97306W        W40218  12.665   1.384   1.345 -0.0236 -0.1076  0.0368
97307W        W40219  14.642  34.013   4.670 -0.0321  0.0060  0.4243
97308W        W40220  13.411  34.064   2.268  0.1702  0.0365 -0.1140
97309W        W40221  12.833  34.297   0.175  0.2246 -0.0655 -0.0210
97310W        W40222  15.040  32.854   3.803  0.1496  0.3300 -0.0450
97311W        W40223  13.863  34.409   0.557 -0.0240  0.1468  0.0357
97312W        W40224  12.326  33.529  31.949  0.0952  0.1127 -0.2237
97313W        W40225  12.705  33.837  31.962 -0.0781  0.2293 -0.0925
97314W        W40226  12.918  31.633   2.126 -0.3563 -0.2053  0.2479
97315W        W40227  13.147  33.032   1.377 -0.4286 -0.0712 -0.0131
97316W        W40228  12.785  33.963   0.524  0.1287  0.0140  0.4690
97317W        W40229  14.358  34.065   2.011 -0.2146 -0.0736 -0.1826
97318W        W40230  12.455  33.599   0.414 -0.0691  0.1927 -0.4466
97319W        W40231  11.464  31.009   1.890  0.0972  0.0647  0.0349
97320W        W40232  11.199  34.258   3.185 -0.1157 -0.3283 -0.1181
97321W        W40233  11.762  33.122   2.936  0.1209 -0.0660  0.1923
97322W        W40234  10.819  32.933  31.969  0.2023 -0.0538 -0.0568
97323W        W40235  15.250   0.190   0.998 -0.0195 -0.1500  0.1284
97324W        W40236  15.347  33.541   1.046 -0.1534  0.5735  0.2490
97325W        W40237  13.748  33.460   2.533 -0.2910  0.1354  0.0015
97326W        W40238  15.473   0.600   0.432 -0.0631 -0.2694 -0.2245
97327W        W40239  12.866  34.613   1.860  0.0080 -0.0749  0.0112
97328W        W40240  11.206  33.824   3.018  0.0433 -0.1871 -0.0624
97329W        W40241  13.560  32.944  31.844 -0.2122  0.0682  0.1211
97330W        W40242  13.026  34.037   1.811  0.2104  0.0496  0.0229
97331W        W40243  13.052  32.753   1.751 -0.0980  0.0304 -0.0311
97332W        W40244  13.409   0.673  31.759  0.1037  0.0546 -0.1675
97333W        W40245  13.291  33.738   2.614 -0.0018  0.0637 -0.2683
97334W        W40246  11.193  33.859   1.072 -0.0380  0.1129 -0.0046
97335W        W40247  12.401  32.602   2.867  0.4378  0.1315 -0.0524
97336W        W40248  12.080  33.260   2.120  0.0092 -0.1567  0.1489
97337W        W40249  13.793   0.907   1.757  0.2127 -0.0397 -0.1691
97338W        W40250  10.671  32.214   0.679 -0.3714 -0.0959 -0.1793
97339W        W40251  13.634  34.013   1.680  0.3103 -0.1555 -0.1649
97340W        W40252  12.621  34.163   1.486  0.2436  0.0740 -0.0793
97341W        W40253  14.214  33.351   3.455 -0.0636  0.0524 -0.3523
97342W        W40254  12.359  32.415   1.706 -0.0367  0.1474 -0.0857
97343W        W40255  11.461  32.741   2.087 -0.3285 -0.0649  0.2482
97344W        W40256  13.174  32.725   0.490  0.2755  0.2279  0.0242
97345W        W40257  14.083  33.210   2.948 -0.1270  0.1726 -0.0788
97346W        W40258  14.233   0.189   1.464  0.0604 -0.3372 -0.3080
97347W        W40259  10.338  32.724   1.342 -0.3162  0.2144 -0.1506
97348W        W40260  11.866  33.648   2.390  0.1411 -0.0050 -0.1315
97349W        W40261  13.212  33.925   0.828 -0.0834 -0.3138 -0.5262
97350W        W40262  12.077   0.116   3.489  0.2137 -0.0719 -0.0010
97351W        W40263  14.546  33.511   3.085  0.3357 -0.3452 -0.0936
97352W        W40264  12.450  34.057   1.041 -0.1837  0.0684  0.2320
97353W        W40265  14.655  32.907   1.564 -0.2768  0.0919 -0.0769
97354W        W40266  15.721  34.454   1.074 -0.2554 -0.0961 -0.0310
97355W        W40267  13.572  34.019  31.683  0.1600 -0.2608 -0.4666
97356W        W40268  12.711   0.128  31.913 -0.0836  0.1862 -0.0517
97357W        W40269  12.659  33.054  31.265  0.2334 -0.0369 -0.1125
97358W        W40270  13.091  33.568   2.047 -0.2775 -0.0703 -0.1174
97359W        W40271  12.127  33.775   0.718 -0.1504  0.0898 -0.0730
97360W        W40272  13.606  33.637   2.064  0.3881  0.1611  0.1656
97361W        W40273  14.002  32.089   2.434  0.1971  0.1055  0.2133
97362W        W40274  14.539  32.736   2.010 -0.2358  0.0121  0.1087
97363W        W40275  12.761  32.525   2.037  0.3049 -0.0165 -0.0073
97364W        W40276  14.332  34.139   2.494  0.0306  0.0640 -0.0586
97365W        W40277  13.540   0.567   0.499  0.0592  0.0489  0.1689
97366W        W40278  12.911   1.004   1.165 -0.0402  0.1443 -0.0152
97367W        W40279  11.346  34.421   0.727  0.2686  0.0129  0.1075
97368W        W40280  13.641  33.109   3.313 -0.1677 -0.0098 -0.2003
97369W        W40281  14.273  33.450   3.992  0.1247 -0.2170  0.1371
97370W        W40282  14.131   0.482  31.215 -0.3709 -0.0129  0.2156
97371W        W40283  13.108  32.153   2.123  0.0711  0.1937 -0.1114
97372W        W40284  15.053  32.888   1.937 -0.1321  0.0117 -0.1052
97373W        W40285  11.441  33.951   0.555  0.3397  0.0879 -0.1459
97374W        W40286  10.786  33.409   0.933 -0.0515  0.0479  0.1005
97375W        W40287  14.321  33.746   0.923  0.0214  0.0180  0.0711
97376W        W40288  11.636  33.421   1.933  0.2963  0.0364 -0.0544
97377W        W40289  13.307  34.073   3.303  0.4610  0.0096 -0.2843
97378W        W40290  14.707   0.461   1.643 -0.1581  0.1122 -0.3149
97379W        W40291  14.335  33.501  31.556  0.1944 -0.3965  0.1001
97380W        W40292  12.711   0.865   3.084  0.1278 -0.1140  0.0791
97381W        W40293  10.460  32.801  31.061 -0.0885  0.0514  0.3444
97382W        W40294  15.461  33.026   3.964 -0.1559  0.1819  0.1329
97383W        W40295  12.437  33.800   2.552  0.1640 -0.1509  0.1031
97384W        W40296  11.838  33.496  31.785  0.0841 -0.1765  0.1406
97385W        W40297  12.564  33.402   2.163  0.0006  0.2329  0.2133
97386W        W40298  13.835  33.418   1.703 -0.1894 -0.1860 -0.1065
97387W        W40299  12.129  32.998  31.838  0.0389 -0.1612  0.1942
97388W        W40300  13.677  34.436   1.444 -0.0674  0.2141  0.1394
97389W        W40301  13.456  34.564   3.195 -0.1237 -0.1600  0.1755
97390W        W40302  12.978  32.248   1.638 -0.0636 -0.1587  0.2371
97391W        W40303  13.999   0.073   3.517 -0.0437 -0.1123  0.0157
97392W        W40304  13.358  33.544   3.359 -0.2011 -0.2292  0.2420
97393W        W40305  14.024  33.549   1.263 -0.1390  0.2541  0.2713
97394W        W40306  12.376  33.360   1.688 -0.0628 -0.2998  0.0336
97395W        W40307  15.119  34.327   3.220 -0.1002 -0.2688  0.0251
97396W        W40308  14.197  34.527  30.205  0.0867  0.1958 -0.4304
97397W        W40309  14.794  33.937   4.131 -0.1680 -0.0400 -0.1325
97398W        W40310  12.798  32.438   2.575  0.0600  0.1673  0.1652
97399W        W40311  10.054  32.946   3.030 -0.1657  0.0695  0.2459
97400W        W40312  11.085  34.047   1.556 -0.0498 -0.1250 -0.2603
97401W        W40313  12.632  33.118   1.099 -0.0569 -0.2334 -0.1942
97402W        W40314  12.946  34.373   0.967  0.0024  0.2130 -0.1135
97403W        W40315  12.429   0.186   2.053  0.0725  0.0083  0.3513
97404W        W40316  14.719   0.337   1.172  0.0381 -0.0390 -0.1541
97405W        W40317  11.155   0.286   2.131 -0.1136 -0.0067  0.1702
97406W        W40318  12.811   0.450   1.418  0.1631 -0.1064  0.0800
97407W        W40319  12.337  33.067   3.081  0.0782  0.0910 -0.1196
97408W        W40320  14.303  33.202   1.904  0.1895 -0.2550  0.2051
97409W        W40321  13.180  34.191   2.814  0.4068 -0.0163  0.0159
97410W        W40322  14.837   0.082   1.991  0.2651 -0.2929 -0.0581
97411W        W40323  12.910  33.924   2.389 -0.3545  0.1908  0.0812
97412W        W40324  11.725  32.665   3.217  0.2551 -0.2277 -0.3931
97413W        W40325  14.889   0.766  30.996  0.3775 -0.0048  0.1086
97414W        W40326  14.710  33.208   4.113  0.3449  0.1419  0.2739
97415W        W40327  13.751   0.165   1.086 -0.5530  0.1013  0.4332
97416W        W40328  13.552  34.666   0.157  0.1291 -0.1537 -0.1145
97417W        W40329  12.858  33.068   2.950 -0.0376 -0.4289 -0.0176
97418W        W40330  14.292  34.538   4.963  0.1451 -0.0174 -0.0107
97419W        W40331  12.011  33.175   0.334  0.0116  0.1763  0.2954
97420W        W40332  13.879  33.848   3.390 -0.0267 -0.2133  0.0639
97421W        W40333  14.084  34.622   0.142  0.0113  0.3263  0.2111
97422W        W40334  11.388  33.788   2.203 -0.1400 -0.1199 -0.1538
97423W        W40335  11.384  32.301  30.782 -0.1370  0.2020 -0.1404
97424W        W40336  12.454  33.884  31.467  0.0264 -0.1769  0.0462
97425W        W40337  13.643  32.658   1.273  0.2242 -0.3100  0.0802
97426W        W40338  14.341   0.142   3.088  0.1004  0.4242  0.2742
97427W        W40339  14.812  32.236   1.193 -0.1279  0.1797 -0.1318
97428W        W40340  14.526  33.132   0.905 -0.0969 -0.2017  0.1357
97429W        W40341  14.098  33.611   2.099  0.1860 -0.1097  0.0271
97430W        W40342  13.411  34.433   1.870 -0.1778 -0.0663 -0.2249
97431W        W40343  16.380   0.555   3.925 -0.2842  0.1688 -0.0123
97432W        W40344  12.682  32.633   1.356  0.0502 -0.1191  0.2821
97433W        W40345  10.657  34.352   3.239  0.1473  0.2815 -0.2887
97434W        W40346  11.681  32.309   0.432 -0.3011 -0.1162  0.1165
97435W        W40347  11.346  32.734   1.303  0.4057 -0.2038  0.1000
97436W        W40348  13.828  32.696   0.374  0.2451 -0.0618  0.1704
97437W        W40349  14.239  34.548   2.059 -0.2256 -0.3974  0.0882
97438W        W40350  15.503  32.871  30.952 -0.3040 -0.3518  0.0163
97439W        W40351  13.811   0.495   2.099 -0.3152  0.1522  0.0360
97440W        W40352  12.102  32.657   0.343  0.1794 -0.1416  0.1868
97441W        W40353  12.680  33.674   1.453  0.1314  0.1405 -0.2201
97442W        W40354  15.601  32.638   4.312 -0.1598  0.3470  0.2815
97443W        W40355  12.706  33.606   0.875 -0.1101 -0.0525  0.0815
97444W        W40356  12.840  33.186   1.713  0.1222  0.0252 -0.0384
97445W        W40357  16.442  32.715   1.972 -0.0367 -0.1596 -0.0352
97446W        W40358  13.808  32.533   2.523  0.0181 -0.0253  0.2972
97447W        W40359  11.068  33.343   0.271  0.3018 -0.0195  0.0855
97448W        W40360  15.683  34.472   2.032 -0.1984  0.0689  0.0443
97449W        W40361  11.343   0.178   1.611  0.1221 -0.2372 -0.1967
97450W        W40362  13.937  32.310   3.408  0.2530 -0.2763 -0.1872
97451W        W40363  12.934  34.617   0.524 -0.3239 -0.2621  0.1727
97452W        W40364  14.090   0.887  31.716  0.0122  0.0515  0.0788
97453W        W40365  12.768  34.035   3.339  0.0133 -0.1041 -0.2081
97454W        W40366  12.508  34.682   1.461  0.0013 -0.1373  0.0464
97455W        W40367  15.460   0.065   2.771  0.1763 -0.0887 -0.4808
97456W        W40368  13.576  33.500  31.488  0.0516  0.3275  0.2160
97457W        W40369  12.307  31.767   2.351 -0.1178 -0.2523  0.0100
97458W        W40370  12.725  33.402  31.659  0.0435 -0.0052  0.0838
97459W        W40371  12.807   0.495   2.007  0.0249  0.2995  0.0475
97460W        W40372  14.119  33.884   1.621 -0.0719 -0.1382 -0.2105
97461W        W40373  11.128  32.222   0.407  0.0593  0.0808 -0.1916
97462W        W40374  13.527  33.779   1.222 -0.3621 -0.0911  0.1514
97463W        W40375  14.957   0.929   1.295  0.0315 -0.1865 -0.1690
97464W        W40376  11.899   0.322   0.240 -0.0958 -0.2143  0.1951
97465W        W40377  12.218   0.322  30.675 -0.0397  0.1149 -0.0689
97466W        W40378  13.243  33.900   0.108 -0.2568 -0.2419  0.3926
97467W        W40379  15.264  34.298   2.243  0.2013  0.1936  0.0711
97468W        W40380  13.721  33.624   3.006  0.2987  0.1627 -0.0226
97469W        W40381  15.572  32.603   1.160  0.1939  0.1046  0.2681
97470W        W40382  13.032  33.944   1.324  0.2098  0.3187 -0.1004
97471W        W40383  13.054  34.427   1.441  0.1446  0.0234 -0.0733
97472W        W40384  14.752  34.223   1.677  0.1805 -0.0188 -0.4237
97473W        W40385  14.086  33.961  31.905  0.1341  0.1040 -0.0479
97474W        W40386  12.693  34.328   2.796  0.0904  0.0665  0.0753
97475W        W40387  11.556  34.091  31.210  0.3816 -0.2762  0.2221
97476W        W40388  14.209  32.981   4.161 -0.2037 -0.3447  0.2398
97477W        W40389  12.066  33.780   1.893 -0.1777 -0.1109 -0.2590
97478W        W40390  11.788   0.477   1.460 -0.1704 -0.1847  0.3559
97479W        W40391  12.096  32.769   1.385 -0.0075  0.0186  0.3205
97480W        W40392  11.790  32.499   1.787  0.1868 -0.1025  0.1678
97481W        W40393  11.259  33.205   2.178 -0.3182  0.3111  0.0814
97482W        W40394  13.904  32.766   0.895 -0.3349 -0.0936  0.3056
97483W        W40395  12.556  34.262   2.223  0.1239  0.0044 -0.3547
97484W        W40396  13.469  33.947   3.753  0.2489 -0.1413 -0.3670
97485W        W40397  11.907  33.377   1.478  0.3019 -0.2477 -0.0418
97486W        W40398  15.531  33.287   3.057  0.0932  0.2134 -0.5538
97487W        W40399  11.817  31.860   2.636  0.1965  0.0342  0.0453
97488W        W40400  13.723  32.871   1.691  0.0105 -0.1291  0.2025
97489W        W40401  13.777   0.418   0.062 -0.1981  0.2043 -0.1276
97490W        W40402  12.690  32.795   3.509  0.0834 -0.0176  0.0550
97491W        W40403  12.429  32.885   1.835  0.0101 -0.0864 -0.1636
97492W        W40404  13.554   0.586   0.990 -0.0209  0.0505 -0.0506
97493W        W40405  12.253  33.246   0.764 -0.0806 -0.1744  0.1423
97494W        W40406  13.145   0.192   1.091  0.1330  0.1523 -0.0700
97495W        W40407  14.216  33.981   3.017  0.0427 -0.4621  0.3245
97496W        W40408  11.196   0.189  31.394  0.3209 -0.0638 -0.4488
97497W        W40409  14.505   1.760   0.432 -0.2892 -0.0280  0.0309
97498W        W40410  12.303  32.796   3.905 -0.1029 -0.1678  0.1182
97499W        W40411  11.547  33.942  31.826 -0.1731  0.1105  0.0587
97500W        W40412  11.467   0.227   0.488 -0.3379  0.2106  0.0601
97501W        W40413  15.119  34.293   2.727 -0.2191 -0.1343 -0.2118
97502W        W40414  13.486  32.083   1.418  0.0518  0.2004 -0.0657
97503W        W40415  14.446  32.585   0.209  0.1491  0.0344  0.2997
97504W        W40416  12.515  33.560   5.792  0.1409  0.3907 -0.2720
97505W        W40417  13.940  33.892   3.876  0.2291  0.0743 -0.1188
97506W        W40418  15.180   0.224   5.121 -0.0493  0.1233 -0.1544
97507W        W40419  10.595  33.001   4.295  0.1475  0.0442 -0.1087
97508W        W40420  12.822  33.896   5.567 -0.0908 -0.2027 -0.3730
97509W        W40421  13.619   0.665   3.214  0.1655 -0.1151 -0.0099
97510W        W40422  11.214  34.041   5.195  0.2403 -0.1039  0.0974
97511W        W40423  13.358  32.810   4.071  0.3238  0.3097 -0.1225
97512W        W40424  11.000  32.514   6.284 -0.1509 -0.1711  0.0496
97513W        W40425  14.040  33.904   6.912  0.0088  0.2542 -0.0979
97514W        W40426  11.317   0.309   2.696 -0.0268 -0.1975 -0.0747
97515W        W40427  12.530  33.509   5.103 -0.0083  0.0985  0.0266
97516W        W40428  14.145  34.254   3.428 -0.1049  0.1901  0.0334
97517W        W40429  13.099  33.711   6.964  0.0031  0.1382  0.2832
97518W        W40430  14.531  32.986   6.638  0.0214 -0.2293  0.4994
97519W        W40431  11.388  34.499   2.780 -0.1299 -0.0162  0.2019
97520W        W40432  11.382  34.008   5.722 -0.0377 -0.4110 -0.0468
97521W        W40433  11.878  34.325   6.711 -0.0391  0.1490  0.0073
97522W        W40434  15.154  33.292   5.940 -0.1648  0.3217 -0.0413
97523W        W40435  15.821  34.185   5.591 -0.2992  0.0305  0.2974
97524W        W40436  13.054   0.045   7.161  0.0164 -0.1196  0.0800
97525W        W40437  13.782   0.083   6.417 -0.0140 -0.0894  0.0820
97526W        W40438  14.056   0.605   3.014  0.0453  0.0162  0.0439
97527W        W40439  15.911  32.694   7.636 -0.1080  0.0417  0.0385
97528W        W40440  12.806  33.092   3.915  0.0447  0.0901  0.0449
97529W        W40441  12.071  33.647   2.907  0.1154  0.1741 -0.1195
97530W        W40442  14.751  34.255   3.633  0.1563 -0.0478 -0.0385
97531W        W40443  13.492  33.102   5.633 -0.1111 -0.0166 -0.2285
97532W        W40444  12.816   0.392   5.650  0.1914  0.1916  0.0190
97533W        W40445  13.860  34.247   4.228 -0.0326  0.3435 -0.2399
97534W        W40446  14.376  33.246   5.656 -0.0588  0.0859 -0.1665
97535W        W40447  11.351  33.824   6.872 -0.2318 -0.1826 -0.1739
97536W        W40448  11.201  34.246   4.697  0.0768  0.1977  0.0051
97537W        W40449  12.287  34.606   7.416  0.1980  0.0814  0.2733
97538W        W40450  12.480  34.339   7.920  0.0386 -0.2084  0.1649
97539W        W40451  11.809  32.571   4.039 -0.0989  0.0340 -0.0060
97540W        W40452  14.845  33.001   5.569  0.0593 -0.0036 -0.0195
97541W        W40453  14.092  32.860   3.381 -0.1604  0.2033 -0.1000
97542W        W40454  14.350  32.761   5.702 -0.2375 -0.3050  0.1431
97543W        W40455  16.197   0.740   3.404 -0.1609  0.0533 -0.2264
97544W        W40456  12.032  33.276   5.844  0.2192  0.1562  0.0256
97545W        W40457  10.254  32.321   5.518  0.1152  0.3576 -0.0317
97546W        W40458  15.285  34.117   4.504  0.1798  0.1833  0.0075
97547W        W40459  11.744  33.617   6.150  0.3749 -0.5272  0.1137
97548W        W40460  14.766  33.630   5.884  0.1356  0.0921 -0.1252
97549W        W40461  15.069  32.821   5.062  0.2834  0.1064 -0.2457
97550W        W40462  10.786  33.912   6.351  0.1217 -0.1394 -0.0237
97551W        W40463  12.175  33.260   4.081  0.0958 -0.0931 -0.2801
97552W        W40464  12.001  34.109   7.132  0.5065 -0.1381 -0.0581
97553W        W40465  11.691  33.106   5.539  0.1833  0.1464  0.0465
97554W        W40466  14.216  33.353   7.990 -0.4730  0.0994 -0.1185
97555W        W40467  10.986  32.801   3.657 -0.0187 -0.1597 -0.2123
97556W        W40468  15.059  33.658   4.615  0.2807  0.3126  0.0984
97557W        W40469  11.817  34.376   4.088 -0.0394  0.3483 -0.1426
97558W        W40470  14.985  33.166   7.926 -0.2664  0.1258  0.1630
97559W        W40471  12.959  33.369   5.995  0.1648 -0.2058  0.2142
97560W        W40472  11.237  32.866   3.263  0.1030  0.1370  0.2417
97561W        W40473  13.716  34.364   3.709  0.0943  0.1475  0.1295
97562W        W40474  13.642  33.452   7.294 -0.0161  0.0226 -0.0125
97563W        W40475  13.789  34.631   5.939  0.3226 -0.3756  0.1637
97564W        W40476  12.273  31.845   3.383  0.1859  0.1128  0.1131
97565W        W40477  11.348  34.283   4.131  0.2799  0.2812 -0.0133
97566W        W40478  15.320  33.126   6.381 -0.1471  0.0926  0.1320
97567W        W40479  10.491  34.325   7.475  0.0262  0.0443  0.2582
97568W        W40480  13.280  34.375   6.784  0.1768 -0.0836 -0.0968
97569W        W40481  12.623  33.598   4.119  0.1145  0.0619 -0.2216
97570W        W40482  14.451  33.698   5.428 -0.3632 -0.1840 -0.2468
97571W        W40483  14.677  32.697   4.275  0.0093  0.1035  0.2231
97572W        W40484  13.882  34.156   2.065 -0.0841 -0.0031  0.0664
97573W        W40485  14.631  33.115   2.793 -0.1745  0.0153 -0.0330
97574W        W40486  12.937  34.592   3.176 -0.1322  0.1394  0.0172
97575W        W40487  13.458  33.544   5.896 -0.2226  0.0609  0.4685
97576W        W40488  11.899  34.307   3.446 -0.5794 -0.2501  0.2467
97577W        W40489  14.544  33.083   4.556  0.2262 -0.0324 -0.0380
97578W        W40490  15.789  33.144   7.562  0.1349 -0.0478 -0.0917
97579W        W40491  15.091  33.449   6.677 -0.3409  0.0672  0.1216
97580W        W40492  13.192  33.721   6.356 -0.0595 -0.4007  0.1407
97581W        W40493  14.309  34.291   6.708 -0.1170  0.0000 -0.0019
97582W        W40494  14.079  34.238   5.653 -0.0658  0.2036 -0.0041
97583W        W40495  14.167   0.270   6.175 -0.2053  0.1506 -0.1529
97584W        W40496  12.108  32.563   2.140 -0.0063  0.1949 -0.0548
97585W        W40497  14.162   0.395   5.677 -0.0109  0.1567  0.0010
97586W        W40498  13.688  32.554   6.990 -0.1427  0.0683  0.2002
97587W        W40499  12.823  34.050   4.165 -0.4534 -0.1386 -0.0446
97588W        W40500  13.394  33.390   5.133  0.0868 -0.2424  0.0210
97589W        W40501  14.406  32.485   6.342  0.2691  0.1464  0.4870
97590W        W40502  13.283  33.262   2.408 -0.1928  0.1097  0.0096
97591W        W40503  11.272  33.766   3.499 -0.2183 -0.1032 -0.2610
97592W        W40504  15.469  34.351   6.006 -0.0343  0.0072 -0.0142
97593W        W40505  11.694  33.990   4.424  0.1000 -0.1281 -0.1206
97594W        W40506  14.691  32.557   5.368 -0.4650  0.1650  0.1627
97595W        W40507  14.422   0.481   6.957 -0.0823 -0.1228 -0.1143
97596W        W40508  13.793  32.877   3.828 -0.0508 -0.0409 -0.1461
97597W        W40509  12.343   0.170   6.422  0.0823 -0.3446 -0.0398
97598W        W40510  10.925  34.204   3.760 -0.1921 -0.0762  0.0248
97599W        W40511  15.089  33.685   6.283  0.1878 -0.1034  0.0512
97600W        W40512  10.503  34.296   4.649  0.2402  0.1122 -0.2154
97601W        W40513  12.445  34.498   3.571 -0.0646  0.0470  0.0259
97602W        W40514  11.636  34.459   7.999  0.1842  0.1431 -0.3731
97603W        W40515  15.003  34.146   5.976  0.3386  0.2465  0.0716
97604W        W40516  12.255  33.994   3.290  0.1271  0.1632 -0.3364
97605W        W40517  12.872  34.575   6.422  0.0840 -0.0391  0.2786
97606W        W40518  13.571  34.010   7.057 -0.3266  0.3755 -0.1726
97607W        W40519  12.758  32.456   5.870 -0.0254 -0.0988 -0.1782
97608W        W40520  14.078  34.276   7.244 -0.1960 -0.0910  0.2384
97609W        W40521  13.826  33.084   7.013  0.3042  0.2680 -0.0244
97610W        W40522  14.746  34.560   5.267  0.1077  0.0377  0.1508
97611W        W40523  13.542  33.809   5.469  0.0921 -0.0627  0.3843
97612W        W40524  14.963  32.872   7.250  0.0099  0.2592  0.2867
97613W        W40525  15.736  34.359   4.421  0.2252  0.2305  0.1648
97614W        W40526  13.427  33.806   7.551  0.0301 -0.0829 -0.3010
97615W        W40527  12.925  32.940   5.786 -0.0762 -0.2114  0.2451
97616W        W40528  11.582  33.006   6.126  0.5494 -0.0349 -0.0579
97617W        W40529  10.734  34.282   7.928 -0.1099 -0.0655 -0.4130
97618W        W40530  14.018  33.582   5.865 -0.0934 -0.3161 -0.0740
97619W        W40531  12.007  32.308   3.493  0.4003 -0.1151 -0.2924
97620W        W40532  13.605   0.625   5.597 -0.0113  0.0329  0.1673
97621W        W40533  15.772  33.927   6.027 -0.0781 -0.1089  0.0213
97622W        W40534  11.732  34.169   6.141 -0.1639  0.0034  0.1703
97623W        W40535  14.247  34.644   5.446 -0.0228  0.0286 -0.0735
97624W        W40536  12.383  33.459   7.428 -0.0241 -0.3949 -0.1422
97625W        W40537  13.976  33.337   5.373  0.1185  0.1454 -0.3937
97626W        W40538  13.809  34.447   6.776 -0.2350  0.1394 -0.0791
97627W        W40539  14.337   0.056   6.604  0.2634  0.0517  0.1933
97628W        W40540  11.686  33.817   5.344 -0.0148  0.3869 -0.1443
97629W        W40541  12.405  32.853   7.191 -0.0117  0.0322  0.0775
97630W        W40542  13.796  32.628   3.065  0.1916 -0.3287 -0.0911
97631W        W40543  14.635  33.371   7.072 -0.3546  0.3651  0.0955
97632W        W40544  14.515  34.147   5.200  0.0301 -0.1186 -0.3991
97633W        W40545  13.792   0.193   3.045  0.4414 -0.2410 -0.3596
97634W        W40546  11.560  32.857   3.651  0.1736 -0.1264  0.2453
97635W        W40547  14.996  34.116   8.035 -0.1001 -0.2645  0.0266
97636W        W40548  12.482  33.994   4.486 -0.1542 -0.1302  0.1616
97637W        W40549  14.533  33.731   6.643 -0.4502  0.2074 -0.0674
97638W        W40550  14.834  33.789   5.107 -0.1504 -0.0120  0.1537
97639W        W40551  12.113  33.920   4.844 -0.1754 -0.1254  0.0701
97640W        W40552  12.865  33.675   3.699  0.3405  0.0168  0.1366
97641W        W40553  12.456  34.006   3.782  0.0597  0.1909  0.1858
97642W        W40554  12.551  32.370   4.630 -0.2190  0.1598  0.0463
97643W        W40555  16.055  32.768   8.610 -0.2918  0.0452  0.0422
97644W        W40556  13.847  33.447   4.930 -0.0849  0.1038  0.2226
97645W        W40557  13.946  33.024   6.561 -0.1635  0.1889 -0.0439
97646W        W40558  14.088  33.960   6.373  0.2665  0.0730  0.2684
97647W        W40559  12.387   0.068   5.538  0.0511  0.2205 -0.1543
97648W        W40560  15.479  32.938   7.987 -0.0432 -0.1978 -0.0807
97649W        W40561  12.943  34.151   6.206  0.2837 -0.1431  0.0726
97650W        W40562  10.954  34.524   7.404 -0.0530 -0.1165  0.3324
97651W        W40563  13.666  32.921   5.184  0.1349  0.0858  0.1459
97652W        W40564  13.311  34.507   4.118 -0.1317 -0.1919  0.3363
97653W        W40565  15.137  32.511   4.285  0.0572 -0.0238  0.1441
97654W        W40566  14.432   0.321   5.167  0.2217  0.2062  0.1726
97655W        W40567  15.580  34.266   4.923 -0.1557 -0.2842 -0.2144
97656W        W40568  13.032  34.163   4.654  0.0113  0.0778  0.0079
97657W        W40569  13.405  33.588   4.578 -0.2313 -0.1101  0.1873
97658W        W40570  12.300  34.039   7.538  0.0071 -0.1626  0.3439
97659W        W40571  17.311  31.759   6.840  0.1197 -0.0386 -0.4317
97660W        W40572  13.649  33.198   4.234 -0.1359  0.0907  0.4368
97661W        W40573  12.654  34.364   5.260  0.1047  0.0032  0.1802
97662W        W40574  16.257  32.830   6.686  0.0262  0.1042  0.1079
97663W        W40575  13.746  33.531   6.300  0.1749  0.4224 -0.0615
97664W        W40576  12.103  33.626   3.629  0.3361 -0.2764  0.1805
97665W        W40577  13.576  33.969   4.903 -0.0212  0.1639 -0.0326
97666W        W40578  12.669  33.654   6.252 -0.0613  0.1772  0.2344
97667W        W40579  14.114  33.455   6.640  0.0479  0.0104  0.0595
97668W        W40580  10.847  34.427   5.064 -0.1397  0.0512 -0.1121
97669W        W40581  14.897  33.982   5.539 -0.0936 -0.2066 -0.3784
97670W        W40582  11.931  33.942   5.713 -0.3106 -0.0685  0.2601
97671W        W40583  12.425   0.627   2.781  0.0160 -0.5035  0.0435
97672W        W40584  15.404  33.465   7.417  0.3189  0.1661  0.2148
97673W        W40585  14.897   0.067   3.043 -0.2073  0.4755  0.0320
97674W        W40586  12.311  33.521   4.644 -0.2163 -0.1425 -0.0238
97675W        W40587  13.819  33.777   4.327  0.0913 -0.0461  0.1901
97676W        W40588  12.002   0.481   5.149 -0.0118 -0.0240 -0.1030
97677W        W40589  13.381  34.445   6.129  0.0864  0.5265 -0.3771
97678W        W40590  11.581  33.112   4.077  0.0027  0.1230  0.1511
97679W        W40591  15.419  33.796   6.688  0.0750 -0.2749  0.1500
97680W        W40592  14.443   0.762   5.465 -0.3887 -0.2739 -0.1670
97681W        W40593  11.027  33.706   5.874  0.3189  0.1272 -0.3125
97682W        W40594  13.318  34.007   4.253 -0.1816 -0.0328  0.3345
97683W        W40595  13.152  33.781   5.043  0.1188 -0.1880 -0.0530
97684W        W40596  15.116  32.112   6.040  0.0648 -0.2791 -0.1954
97685W        W40597  14.134  33.444   7.123 -0.1208 -0.0225  0.1919
97686W        W40598  16.247  32.408   7.835  0.0512 -0.0096  0.2430
97687W        W40599  14.356  33.952   5.903  0.3852 -0.0928 -0.2682
97688W        W40600  13.123   0.034   5.490  0.1149  0.2635 -0.1248
97689W        W40601  15.911  32.492   6.128 -0.3107  0.0673  0.0545
97690W        W40602  14.509  32.211   4.382 -0.1407  0.3877  0.0711
97691W        W40603  13.582  34.132   6.496 -0.0524  0.2796 -0.4662
97692W        W40604  11.712  33.952   3.063 -0.0766  0.0464  0.0795
97693W        W40605  12.179  33.262   6.958  0.1370 -0.0514 -0.3773
97694W        W40606  10.863  33.367   7.652  0.0081  0.0883 -0.1639
97695W        W40607  11.341  33.898   6.302  0.1040 -0.0362 -0.0074
97696W        W40608  12.922  33.215   4.365  0.0113  0.0779  0.0688
97697W        W40609  12.108  32.512   4.777 -0.3468  0.0723 -0.2213
97698W        W40610  12.146  33.049   4.854  0.3292 -0.1910  0.2998
97699W        W40611  12.100  34.287   5.352  0.2642  0.0849 -0.0922
97700W        W40612  12.793  34.154   6.717 -0.0418  0.3732  0.1186
97701W        W40613  12.933   0.464   7.483  0.1021  0.2381  0.0418
97702W        W40614  10.148  34.275   3.459  0.0252 -0.0601  0.3220
97703W        W40615  13.979  34.221   4.719  0.0859 -0.0504  0.0632
97704W        W40616  11.340  32.549   7.050  0.0411  0.1083  0.0884
97705W        W40617  14.328  32.155   7.647 -0.0748  0.0002  0.3399
97706W        W40618  13.457   0.309   4.213 -0.4202  0.0078 -0.1898
97707W        W40619  11.039  33.017   6.038 -0.1779 -0.0698  0.1851
97708W        W40620  12.826  33.245   4.847  0.1287 -0.1450 -0.0713
97709W        W40621  15.107  32.997   4.469  0.1501 -0.0271  0.3262
97710W        W40622  12.137  33.912   6.212 -0.2501 -0.3916 -0.0565
97711W        W40623  14.094  33.348   4.472 -0.2278  0.1109  0.2809
97712W        W40624  12.260  34.013   6.726 -0.2804  0.0489  0.1209
97713W        W40625  12.421  34.163   5.849 -0.0938  0.1027  0.5522
97714W        W40626  15.403   0.436   3.643 -0.0494 -0.2479  0.1249
97715W        W40627  12.070  32.485   6.098 -0.1202 -0.0237  0.0613
97716W        W40628  11.782   0.255   4.258  0.3294 -0.3588 -0.1083
97717W        W40629  13.425  34.594   5.026  0.1302  0.0722 -0.0640
97718W        W40630  16.142  32.134   4.994  0.0613 -0.3873 -0.0112
97719W        W40631  12.115  34.339   4.609  0.1440 -0.0869  0.0354
97720W        W40632  14.000  33.865   5.205 -0.1914  0.1118  0.0008
97721W        W40633  13.270  32.652   8.743 -0.0668 -0.0186 -0.1162
97722W        W40634  14.847  33.866   7.527 -0.0993 -0.0281  0.1631
97723W        W40635  14.304  33.507   9.339  0.1637  0.2079  0.2479
97724W        W40636  12.135  33.506   8.959  0.0197 -0.0507  0.0023
97725W        W40637  14.327  34.057   7.656 -0.0183 -0.2334 -0.0010
97726W        W40638  14.189  33.664  10.315 -0.0024  0.0397 -0.1104
97727W        W40639  14.206  32.586   7.789 -0.1341  0.1015  0.1267
97728W        W40640  11.818  34.142   9.645 -0.1991  0.0766  0.0842
97729W        W40641  12.943  34.650   9.446  0.1721  0.1116 -0.0746
97730W        W40642  12.703  34.318   8.439  0.1779 -0.2990  0.0002
97731W        W40643  12.258  32.626  10.083  0.0291 -0.0235  0.1832
97732W        W40644  13.490  33.684   8.423  0.1527  0.0834 -0.2069
97733W        W40645  13.331  33.071   8.392 -0.1345 -0.0816 -0.1206
97734W        W40646  11.019  34.003   7.318 -0.0710 -0.1543 -0.0333
97735W        W40647  10.466  33.823   9.910 -0.4264 -0.2388  0.0507
97736W        W40648  11.391  33.907   9.502 -0.4381  0.0925  0.0970
97737W        W40649  15.152  31.594   9.515  0.0463 -0.1149  0.2460
97738W        W40650  14.660  33.003   9.515  0.0654 -0.1179  0.2186
97739W        W40651  13.965  34.419   9.017  0.0996  0.2539  0.0872
97740W        W40652  12.013   0.407   9.542 -0.1183  0.2160  0.1872
97741W        W40653  13.533  33.076   7.926  0.0293 -0.3750  0.1621
97742W        W40654  12.122  33.442   6.446  0.5186  0.0329 -0.1557
97743W        W40655  14.467  33.441   7.533 -0.2548  0.2934  0.1272
97744W        W40656  12.610  33.369   8.762  0.0406  0.0241  0.0901
97745W        W40657  14.210  32.960   9.794  0.1686  0.3488  0.3473
97746W        W40658  13.303  33.454   9.333 -0.0321  0.0850  0.0559
97747W        W40659  15.999  31.776  10.113  0.1993 -0.3391 -0.0534
97748W        W40660  11.011   1.712  10.197  0.0905 -0.0579 -0.3820
97749W        W40661  10.901  33.847   7.874  0.1710  0.0665 -0.0848
97750W        W40662  11.940  33.656   8.118 -0.2192  0.1874 -0.0511
97751W        W40663  15.517  33.426   8.484  0.2892 -0.0524  0.2571
97752W        W40664  14.234  31.946   9.455 -0.3078  0.0232 -0.0388
97753W        W40665  14.515  31.122   9.054 -0.0468 -0.1576  0.1434
97754W        W40666  14.101  32.581   8.486  0.1131 -0.3374  0.2904
97755W        W40667  13.619   0.652   9.865 -0.1622  0.2477  0.2223
97756W        W40668  15.010  32.187   8.797  0.1110 -0.0255 -0.0982
97757W        W40669  15.680  31.635   9.754  0.2102  0.0874 -0.3795
97758W        W40670  14.648  33.687   7.995 -0.3865 -0.0530 -0.2203
97759W        W40671  10.194  33.216   9.914  0.0017 -0.2578 -0.1138
97760W        W40672  11.156  32.489   9.825 -0.2221  0.1658 -0.1545
97761W        W40673  11.988  32.260   9.510  0.1595  0.2308 -0.1604
97762W        W40674  12.806  33.313   7.148 -0.0111 -0.0327  0.1346
97763W        W40675  14.767  32.585   9.774  0.1810 -0.0237  0.1871
97764W        W40676  13.300  34.076   8.000  0.0021 -0.3723  0.0233
97765W        W40677  13.168  31.680   8.839 -0.2785  0.7060 -0.2922
97766W        W40678  12.400  33.857   7.977  0.1499 -0.0441 -0.2257
97767W        W40679  11.961  33.637   7.648 -0.0726 -0.3579 -0.0541
97768W        W40680  13.894  34.098  10.118 -0.0051  0.2148  0.0222
97769W        W40681  11.763  32.794   7.601  0.3240  0.1547 -0.1383
97770W        W40682   8.743  34.631   9.557  0.1233 -0.0625  0.2972
97771W        W40683  14.977  31.358  10.364  0.2685  0.0441 -0.0871
97772W        W40684  11.898  33.790   8.656  0.2509 -0.1675  0.0480
97773W        W40685  14.329  33.024   8.438  0.1112  0.1087 -0.1556
97774W        W40686  14.711  32.090   6.398  0.3578  0.1041 -0.1310
97775W        W40687  14.795  32.700   8.160 -0.1150  0.3251 -0.1379
97776W        W40688  12.524  33.591   6.757 -0.0104 -0.2531  0.1732
97777W        W40689  13.151  32.688   7.380  0.0888 -0.0990 -0.3556
97778W        W40690  13.097  33.019   9.498  0.1265 -0.1072 -0.1181
97779W        W40691  11.507  33.308   7.428 -0.0430 -0.1261 -0.0356
97780W        W40692  13.626  32.336  10.607 -0.0709 -0.3106 -0.2631
97781W        W40693  13.426  33.281  10.037  0.0772  0.4099  0.0662
97782W        W40694  13.878  31.836   9.873  0.2495 -0.1784  0.0087
97783W        W40695  14.022  33.372   8.957 -0.2212  0.1004 -0.1927
97784W        W40696  13.251  34.126  10.296  0.2632 -0.0446 -0.3094
97785W        W40697  11.654  34.016   8.280  0.4559 -0.2769 -0.1430
97786W        W40698  12.665  31.060   9.538  0.0239 -0.1485  0.1659
97787W        W40699  13.974  32.870   8.075 -0.0517  0.1021 -0.2034
97788W        W40700  13.248  32.579   9.258  0.1537 -0.1116  0.0516
97789W        W40701  15.083  31.166   9.824  0.3742  0.2451 -0.0008
97790W        W40702  12.101  34.648   8.250 -0.2236 -0.1524 -0.0526
97791W        W40703  11.327  34.196   8.705 -0.2835 -0.3849 -0.2431
97792W        W40704  14.961  32.611   9.238 -0.1579  0.1009 -0.1584
97793W        W40705  13.845  33.264   8.428  0.0456 -0.1180  0.0540
97794W        W40706  14.140  32.281   9.088  0.3110  0.0447  0.3823
97795W        W40707  14.660  31.650   9.434 -0.1421 -0.2171 -0.1059
97796W        W40708  10.512  34.630   7.003 -0.1567 -0.0333 -0.0760
97797W        W40709  15.206  31.718  10.042 -0.0494 -0.1578 -0.2171
97798W        W40710  12.742  33.865   8.660 -0.0311 -0.1137 -0.0581
97799W        W40711  13.708  34.131   8.563  0.1465 -0.1648 -0.0816
97800W        W40712  13.423  34.317   8.928 -0.0730  0.0445 -0.2065
97801W        W40713  12.870  33.001   8.561  0.0839  0.3327  0.0960
97802W        W40714  13.035  33.505   8.480  0.0184 -0.0856  0.1406
97803W        W40715  12.857  33.827   8.154  0.1721 -0.0444 -0.2455
97804W        W40716  13.094  33.954   9.844 -0.1625 -0.0468 -0.1221
97805W        W40717  12.578  32.888   9.185  0.0047 -0.2336 -0.4655
97806W        W40718  12.034  31.339   8.848  0.0523 -0.2173  0.1792
97807W        W40719  15.306  33.014   7.555  0.2736  0.2383 -0.2448
97808W        W40720  14.921  32.727   8.698 -0.0710  0.2588  0.0525
97809W        W40721  13.847  34.331   9.512 -0.0478  0.3203 -0.1844
97810W        W40722  14.190  31.097   9.423 -0.1384 -0.2409 -0.0209
97811W        W40723  13.864  32.206   7.662  0.0087  0.2170 -0.0961
97812W        W40724  11.601  33.405   6.612  0.0125 -0.1268  0.0909
97813W        W40725  12.978  33.560  10.136 -0.0116  0.0242  0.1859
97814W        W40726  13.587  33.108   9.609 -0.0815  0.0020 -0.1403
97815W        W40727  11.785  34.019   9.091 -0.2120 -0.0837  0.3126
97816W        W40728  13.799  32.677   9.430 -0.0320 -0.0559  0.3098
97817W        W40729  15.261  32.546   8.313 -0.1163  0.0244 -0.1273
97818W        W40730  14.623  33.195   8.838  0.1372  0.1798  0.0232
97819W        W40731  14.285  32.444   9.715  0.0935 -0.1937 -0.1475
97820W        W40732  16.463  33.469   8.988  0.0427 -0.0403  0.2497
97821W        W40733  13.962  33.766   7.451 -0.2658 -0.1177  0.1327
97822W        W40734  11.279  32.553   8.298  0.0525 -0.0860 -0.1267
97823W        W40735  11.832  33.611   7.064  0.1119  0.0364 -0.2278
97824W        W40736  13.962  33.198   7.575 -0.2005  0.1274 -0.0239
97825W        W40737  10.942  32.741   8.827  0.0041  0.1938  0.2273
97826W        W40738  11.146  33.504   7.195 -0.1001 -0.0678 -0.1758
97827W        W40739  12.003   0.088   7.806 -0.0957  0.2917  0.0367
97828W        W40740  12.956  32.539   8.378 -0.3558  0.1822  0.2754
97829W        W40741  13.070  33.194   9.008 -0.2545  0.1220  0.1467
97830W        W40742  15.121  30.533  10.431 -0.3474  0.0531  0.2477
97831W        W40743  15.084  33.210   8.426 -0.3142  0.1800  0.2172
97832W        W40744  13.177  34.036   8.526  0.2228 -0.0325  0.1331
97833W        W40745  13.547  33.317   8.850 -0.0197 -0.3409  0.1540
97834W        W40746  12.324  33.367   7.962 -0.4093  0.0576 -0.2293
97835W        W40747  13.537  32.974   7.443  0.2597  0.0965 -0.2515
97836W        W40748  14.937  33.377   7.474  0.0297 -0.0918 -0.1232
97837W        W40749  14.698  32.165   9.364 -0.1895  0.0594 -0.4901
97838W        W40750  14.986  31.237   9.226 -0.1032 -0.2551 -0.1807
97839W        W40751  12.299  34.665   8.733 -0.1082 -0.2371  0.1689
97840W        W40752  13.160  34.207   7.264 -0.1158 -0.0790  0.4807
97841W        W40753  10.224   0.440   9.780  0.3754  0.2863 -0.1405
97842W        W40754  11.956  34.604   9.800 -0.0395 -0.2099  0.3790
97843W        W40755  14.995  31.010   8.796  0.0907  0.1704 -0.1801
97844W        W40756  13.732  32.854   8.694 -0.0038 -0.2966  0.1466
97845W        W40757  11.164  34.181   8.238  0.0580 -0.1709  0.0816
97846W        W40758  16.492  32.616   8.868 -0.1985  0.0865  0.1159
97847W        W40759  14.496  32.473  10.586 -0.0138 -0.4238 -0.2856
97848W        W40760  12.287  34.176   8.829  0.2931 -0.3517  0.0620
97849W        W40761  14.422  33.543   8.519 -0.0671  0.0798  0.1483
97850W        W40762  11.508  31.165   9.800 -0.1143  0.0557 -0.0621
97851W        W40763  13.070  34.510   8.121  0.1458  0.2471  0.5210
97852W        W40764  14.394   0.098   8.245 -0.3739 -0.1357 -0.0311
97853W        W40765  11.122  33.257   9.018  0.0264  0.1197 -0.1387
97854W        W40766  12.797   0.004   7.605 -0.0224  0.2882  0.1469
97855W        W40767  12.896   0.466   9.273  0.0319 -0.0824 -0.0577
97856W        W40768  12.437  33.046   9.861 -0.0700  0.4074  0.1261
97857W        W40769  12.408  33.162   8.384 -0.2766 -0.0695 -0.2648
97858W        W40770  15.155  32.152   9.718  0.0818 -0.0098  0.5628
97859W        W40771  14.747  34.427   8.321  0.3311 -0.0611 -0.1702
97860W        W40772  11.106  32.694   9.313  0.4643 -0.4582  0.2257
97861W        W40773  13.324  32.680  10.271  0.1359 -0.1955  0.0316
97862W        W40774  10.416  34.337  10.044  0.0920  0.0980 -0.0663
97863W        W40775  13.495  32.117  10.119 -0.1943 -0.0191  0.0819
97864W        W40776  13.713  33.546   7.839  0.0959 -0.0614 -0.1058
97865W        W40777  11.334  34.471   9.670  0.1087  0.0262  0.1723
97866W        W40778  14.658  32.876   7.662  0.1589 -0.0734 -0.1185
97867W        W40779  13.944  32.280   6.588  0.0342  0.2761  0.1526
97868W        W40780  13.633  33.802   9.797  0.1048 -0.1277  0.0954
97869W        W40781  10.949  32.422   7.920 -0.3533  0.1433  0.0029
97870W        W40782  10.616  34.364   9.615  0.0992  0.3346 -0.2076
97871W        W40783  12.157  32.484   8.877 -0.4026 -0.4684  0.1223
97872W        W40784  13.364  32.613   9.768  0.0767 -0.0312 -0.2558
97873W        W40785  10.853  32.818   8.303  0.4759  0.1618 -0.1298
97874W        W40786  12.759  33.397   9.555  0.1780 -0.1434  0.3811
97875W        W40787   9.903  32.967   7.534  0.0415  0.0873 -0.0983
97876W        W40788  13.246  33.485   8.012 -0.2572  0.2324  0.0451
97877W        W40789  11.268  31.400   9.433 -0.0844 -0.1681 -0.0872
97878W        W40790  15.683  32.569   9.933 -0.1123 -0.2080 -0.3129
97879W        W40791  13.658  33.826   9.007 -0.0905 -0.6044  0.0258
97880W        W40792  10.677  33.041   9.143 -0.1079  0.2631 -0.2825
97881W        W40793  14.574  32.444   8.587  0.1230 -0.1981 -0.0372
97882W        W40794   9.648  32.665   9.813 -0.3666 -0.1058 -0.3635
97883W        W40795  13.107  32.809   7.841 -0.0539  0.1274 -0.0871
97884W        W40796  12.210  34.131   8.352  0.1286  0.4538  0.0072
97885W        W40797  14.828  33.861   8.511 -0.2799 -0.0320 -0.3435
97886W        W40798  10.895  34.102   9.897  0.0466 -0.1946  0.0932
97887W        W40799   9.437   1.190   9.572 -0.1687  0.1667 -0.0187
97888W        W40800  11.903   1.202   9.552 -0.1261  0.1297  0.2895
97889W        W40801  12.739  32.727   9.634 -0.2088  0.0574 -0.1372
97890W        W40802  12.036  33.011   8.900 -0.1451  0.2732 -0.0043
97891W        W40803  13.961  32.744   7.368 -0.1166 -0.0820 -0.0889
97892W        W40804  15.362   2.965   2.653  0.1756  0.1117 -0.0302
97893W        W40805  17.785  34.678   1.150  0.0181 -0.4685 -0.0562
97894W        W40806  17.092   2.323   0.721 -0.0147 -0.3264  0.3119
97895W        W40807  17.715   2.505  31.631  0.0446 -0.0233  0.2111
97896W        W40808  14.688   0.785   0.847  0.0774 -0.0716  0.0807
97897W        W40809  18.016   3.348   0.737 -0.3853 -0.1910  0.0610
97898W        W40810  14.679  34.479   2.661 -0.0927  0.0795 -0.0407
97899W        W40811  17.068   2.597   2.377 -0.1449 -0.0346 -0.1715
97900W        W40812  17.625   4.254   1.467 -0.1361 -0.2174 -0.0595
97901W        W40813  18.755  34.386  31.324  0.2699  0.1538  0.0729
97902W        W40814  16.397   1.555   1.627  0.1449  0.0240 -0.1194
97903W        W40815  17.648   4.043   3.575  0.0315 -0.4394 -0.0558
97904W        W40816  15.174   1.218   0.889  0.1530 -0.1799  0.0175
97905W        W40817  14.833   0.962   1.991  0.0091 -0.3199 -0.1847
97906W        W40818  18.603   0.858   3.118  0.1255  0.1753  0.3970
97907W        W40819  15.285   1.692  31.243  0.1298 -0.2774  0.0243
97908W        W40820  15.567   0.998   1.818 -0.0007 -0.1396 -0.1255
97909W        W40821  16.340   2.025   1.274  0.3821  0.1122 -0.0720
97910W        W40822  16.636   3.367   3.371  0.4122 -0.5008 -0.4227
97911W        W40823  17.234   0.935   4.475 -0.3529 -0.0193  0.0274
97912W        W40824  18.366   0.701   2.727 -0.1897  0.2043  0.2744
97913W        W40825  17.485   3.940   0.453  0.0649  0.0491 -0.0811
97914W        W40826  14.437   1.028  31.388 -0.3046  0.2313 -0.2918
97915W        W40827  13.654   1.267   1.433  0.0108 -0.0875 -0.2031
97916W        W40828  14.887   1.708   1.729  0.0369  0.1425 -0.1273
97917W        W40829  17.623   1.195   2.357  0.3975 -0.0334 -0.2060
97918W        W40830  18.399   2.059   1.898 -0.1681  0.0227  0.1700
97919W        W40831  16.387   2.611   2.999 -0.2446  0.0569  0.0260
97920W        W40832  16.228   3.118   3.126 -0.2290 -0.1685 -0.1176
97921W        W40833  18.270   2.973   2.512 -0.2460 -0.2158 -0.2977
97922W        W40834  14.292   1.059   0.423  0.3437  0.0694  0.2497
97923W        W40835  14.250   2.590   1.589 -0.0306  0.2584  0.2076
97924W        W40836  15.450   2.831   0.882  0.1436  0.2799  0.1001
97925W        W40837  19.613   2.600   0.561 -0.1343 -0.1158  0.2059
97926W        W40838  16.956   2.064   2.471 -0.0017  0.1978  0.3625
97927W        W40839  15.577   2.680   4.421  0.4092  0.0944  0.2214
97928W        W40840  14.538   3.444   0.432 -0.1289  0.1271  0.2427
97929W        W40841  17.318   4.235   4.781 -0.0180 -0.1653  0.2204
97930W        W40842  15.859   4.108   3.144  0.0556  0.2028  0.1749
97931W        W40843  16.473   1.486   3.418 -0.2595  0.2203  0.1264
97932W        W40844  16.672   2.729   2.026  0.1522  0.2140  0.1390
97933W        W40845  18.053   4.217   1.166  0.1216 -0.1723 -0.1221
97934W        W40846  17.631   2.456   1.855  0.2862  0.2653  0.4207
97935W        W40847  13.701   2.505   3.337  0.2626 -0.1210  0.0646
97936W        W40848  15.693   2.795   2.228  0.1168  0.1182 -0.0824
97937W        W40849  18.793   1.474   4.128  0.0853  0.2121 -0.3129
97938W        W40850  16.218   3.760  31.828  0.1662 -0.0047  0.1315
97939W        W40851  17.797   1.168   0.689  0.1948  0.0080 -0.0185
97940W        W40852  16.884   1.789  31.774  0.0232 -0.0277 -0.0623
97941W        W40853  17.180   1.320   0.689  0.0305 -0.0938  0.3288
97942W        W40854  15.985  33.662   2.348  0.4535 -0.2420 -0.0883
97943W        W40855  16.452   3.310   2.009  0.2169  0.3462  0.0586
97944W        W40856  16.677   0.737   3.539 -0.0884  0.0975 -0.3406
97945W        W40857  18.515   3.284   2.853  0.0716 -0.0032  0.1193
97946W        W40858  17.683   2.454   1.371 -0.1699 -0.1622  0.1905
97947W        W40859  17.878   2.018   3.029 -0.1535 -0.1152  0.1130
97948W        W40860  16.329   4.183   3.396  0.0931 -0.0197 -0.0099
97949W        W40861  15.210   2.101   1.587  0.1654 -0.0261 -0.1157
97950W        W40862  18.415   4.975  30.380  0.0743 -0.2284  0.0962
97951W        W40863  18.829   4.574  31.616  0.0824 -0.2211 -0.1019
97952W        W40864  19.494   4.642  31.599 -0.1868  0.0529  0.0159
97953W        W40865  15.029   1.780  31.633 -0.0292  0.0402  0.0839
97954W        W40866  15.582   2.530   2.612 -0.0792  0.0385  0.1421
97955W        W40867  14.168  34.456   2.845 -0.0981 -0.0837 -0.2355
97956W        W40868  15.635   0.199   1.348  0.0971 -0.1498  0.1845
97957W        W40869  18.227   2.179   4.596  0.0580 -0.0912  0.2792
97958W        W40870  14.158   3.676   3.219  0.0585  0.0229 -0.1697
97959W        W40871  17.017   1.781   0.855 -0.2272  0.1180 -0.0301
97960W        W40872  16.758   1.922   1.606  0.1636 -0.2514  0.2182
97961W        W40873  18.343   3.778   1.549 -0.0104  0.1085 -0.0400
97962W        W40874  17.363   3.563   0.097 -0.0864  0.1335  0.0783
97963W        W40875  16.766  34.120   1.826 -0.2743  0.2747  0.2046
97964W        W40876  17.431   0.913   1.554  0.1378  0.3667 -0.2801
97965W        W40877  17.223   2.535  30.982 -0.1974 -0.1893 -0.0402
97966W        W40878  16.777   2.025   0.283  0.1507 -0.3505  0.0158
97967W        W40879  18.241   3.689   3.644 -0.2043  0.0820  0.1694
97968W        W40880  18.043   1.045   0.192 -0.3620  0.2023  0.0429
97969W        W40881  14.205   4.329   2.686 -0.0125 -0.2204 -0.0201
97970W        W40882  18.225   1.150   2.967 -0.1663 -0.0623  0.1424
97971W        W40883  15.436   3.369   3.744 -0.1183  0.0789  0.0010
97972W        W40884  15.697   4.729  31.233  0.0377 -0.0760  0.2590
97973W        W40885  14.865   3.051   2.556 -0.2876 -0.1050 -0.1852
97974W        W40886  15.093   3.445   0.307 -0.2291  0.0239 -0.0577
97975W        W40887  15.573  34.192   2.948  0.1973 -0.0064 -0.1012
97976W        W40888  16.375   4.656   3.286 -0.1296 -0.3263 -0.0355
97977W        W40889  17.838   1.050   1.283  0.0662  0.0170 -0.2003
97978W        W40890  16.411  33.476   3.077  0.1625  0.0712 -0.1313
97979W        W40891  18.188   0.053   1.818 -0.0834 -0.0368 -0.0935
97980W        W40892  15.147   1.726   0.207  0.1592 -0.1541  0.0202
97981W        W40893  18.125   4.845   0.829 -0.0362 -0.0117 -0.0669
97982W        W40894  18.430   1.304   0.504  0.0730  0.1450 -0.2363
97983W        W40895  18.544   3.145  31.932  0.1626 -0.2013  0.1444
97984W        W40896  13.617   3.151   2.089  0.2878  0.0126  0.0126
97985W        W40897  14.374   0.824   1.289 -0.1449 -0.2524 -0.2702
97986W        W40898  16.858   1.672   3.638 -0.0863 -0.0681 -0.0927
97987W        W40899  15.509   1.018   1.228  0.2732  0.3272  0.0295
97988W        W40900  18.517   0.730   2.220 -0.0629  0.4186  0.2314
97989W        W40901  16.072   0.547   1.392 -0.0476  0.0562  0.0807
97990W        W40902  17.228   1.616   2.369  0.1809 -0.3581  0.0984
97991W        W40903  15.477   3.362   2.368  0.2910  0.1270 -0.0039
97992W        W40904  15.332   2.544   1.778  0.0517  0.0034 -0.0777
97993W        W40905  17.902  34.326   3.284  0.0802 -0.1195  0.1469
97994W        W40906  18.830   3.636   2.214 -0.1310 -0.2911 -0.0547
97995W        W40907  18.043   3.897   2.877  0.0712  0.0671  0.0611
97996W        W40908  17.032   4.367   1.412  0.0495  0.4187  0.0709
97997W        W40909  15.091   0.498   2.983 -0.0890 -0.1551  0.3530
97998W        W40910  16.321   0.389   0.756  0.2300  0.1004  0.3912
97999W        W40911  15.866   3.099   0.784  0.3436 -0.0853 -0.2503
98000W        W40912  16.447   1.837   2.497 -0.0021 -0.2860  0.0621
98001W        W40913  16.269   0.684   0.138  0.3720  0.4620  0.2340
98002W        W40914  19.012   4.146   1.394 -0.1533  0.1469 -0.1414
98003W        W40915  16.032   2.110   2.623  0.0282 -0.0608 -0.0813
98004W        W40916  16.292   4.667   2.217 -0.1184 -0.4863 -0.2225
98005W        W40917  17.379   0.183   2.842 -0.1918  0.0561  0.1471
98006W        W40918  17.150   3.257   2.676 -0.0909  0.0944  0.0362
98007W        W40919  17.423   2.221   2.243 -0.4171  0.1006 -0.0524
98008W        W40920  15.634   1.072   0.674  0.0781 -0.0098 -0.2861
98009W        W40921  16.901   3.110   2.260  0.1975 -0.2592 -0.3045
98010W        W40922  14.643   2.422   0.355  0.0666  0.2179  0.0974
98011W        W40923  14.352   1.173   0.920 -0.0772 -0.3226  0.0284
98012W        W40924  16.891   3.614   2.000  0.3434  0.0439 -0.3374
98013W        W40925  18.067   0.429   2.228 -0.0505  0.2536 -0.2813
98014W        W40926  15.032   1.683   3.503 -0.2803 -0.1999 -0.1436
98015W        W40927  16.394   3.574   4.105  0.1069 -0.1483 -0.2497
98016W        W40928  14.661   1.492  31.895 -0.2682  0.0149 -0.2031
98017W        W40929  15.896   3.726   2.530 -0.4146 -0.0153 -0.1417
98018W        W40930  16.837   1.185   1.705 -0.1244  0.1476  0.1602
98019W        W40931  17.119   0.204   1.089  0.2297 -0.0821  0.2847
98020W        W40932  17.200   2.811   4.809 -0.0162  0.1697  0.1772
98021W        W40933  17.865   2.049   0.470 -0.0966  0.1579 -0.0052
98022W        W40934  16.936   1.295  31.165 -0.1764 -0.1047 -0.4092
98023W        W40935  17.484   0.867  31.349 -0.0277 -0.2038  0.0888
98024W        W40936  15.295   1.004   3.755 -0.0199 -0.0044 -0.2839
98025W        W40937  16.720   3.319   0.940 -0.0850 -0.0545  0.0218
98026W        W40938  16.916   2.463   2.913 -0.0584  0.0319  0.0081
98027W        W40939  16.835   1.168   1.002 -0.1329 -0.1764  0.3355
98028W        W40940  18.249   4.014   0.201  0.4707 -0.3688  0.1461
98029W        W40941  15.888   2.273   1.364 -0.1224 -0.0989  0.1203
98030W        W40942  17.654   3.480   2.552  0.1716 -0.3009 -0.0961
98031W        W40943  16.048   2.258   3.132 -0.0107  0.0706 -0.0615
98032W        W40944  16.037   1.642   1.265  0.0363  0.0824 -0.2071
98033W        W40945  16.259   1.103  31.188 -0.0558 -0.0535 -0.1321
98034W        W40946  16.031   2.490   0.961 -0.1870  0.1043  0.1890
98035W        W40947  14.018   3.520   0.625 -0.0612  0.2872 -0.0126
98036W        W40948  18.519   0.123   2.236 -0.2300  0.1116  0.1955
98037W        W40949  18.102   0.734   3.187  0.2326  0.1687  0.0947
98038W        W40950  18.967   0.494   3.400 -0.0899 -0.0703  0.0473
98039W        W40951  17.625   0.064   2.404 -0.2570 -0.1237  0.3159
98040W        W40952  16.447   1.532  31.974 -0.2921 -0.0741  0.3968
98041W        W40953  17.292   1.929   1.189 -0.2554 -0.2889  0.0500
98042W        W40954  16.791   2.778   0.720 -0.2030  0.1855 -0.1160
98043W        W40955  16.021   1.450   2.614 -0.0816 -0.2301 -0.1877
98044W        W40956  15.943   1.869   2.186 -0.0442  0.1072  0.2140
98045W        W40957  16.302   4.035   2.842  0.0989 -0.3423 -0.4187
98046W        W40958  17.014   3.003   3.508 -0.1207  0.0051 -0.2486
98047W        W40959  16.014   1.897   1.653 -0.0705  0.1069  0.0485
98048W        W40960  16.982   1.412   3.165  0.2624  0.4036 -0.1939
98049W        W40961  16.649   1.327   0.543 -0.3984 -0.3316 -0.1890
98050W        W40962  15.698   3.167   1.847 -0.3204 -0.0675  0.1350
98051W        W40963  16.336   2.050   0.056 -0.1055  0.0320  0.0540
98052W        W40964  16.338   0.292   2.458 -0.1658 -0.0115 -0.1593
98053W        W40965  16.666   3.997   4.221  0.0805 -0.0093  0.0126
98054W        W40966  16.324   3.633   1.300 -0.2237 -0.0976  0.0016
98055W        W40967  17.864   2.375   4.143 -0.1410  0.3210 -0.0572
98056W        W40968  15.500   2.700  31.870 -0.1118 -0.1975  0.1452
98057W        W40969  17.097   0.693   1.976 -0.1525 -0.1578  0.0360
98058W        W40970  14.878   3.993   2.695 -0.2168 -0.1617 -0.0063
98059W        W40971  15.303   1.375  31.600 -0.1729 -0.1610  0.0969
98060W        W40972  13.628   1.180   0.560 -0.3180  0.2147  0.0745
98061W        W40973  17.263   1.065   0.285 -0.2489  0.0201 -0.0809
98062W        W40974  18.160   2.963  31.113 -0.0568 -0.3434 -0.3013
98063W        W40975  15.389   0.206   2.278  0.2012 -0.1081  0.0427
98064W        W40976  17.249  34.228   1.799  0.2809 -0.1776 -0.0269
98065W        W40977  15.323   3.795   2.520  0.1403 -0.2152  0.1544
98066W        W40978  18.072   1.582   4.042  0.4002 -0.0321  0.0397
98067W        W40979  17.375   0.401   0.730 -0.1655 -0.0486 -0.0137
98068W        W40980  16.491   2.132   2.939 -0.1434 -0.0583 -0.0771
98069W        W40981  16.507   2.222   4.396  0.0600 -0.1118  0.0097
98070W        W40982  14.218   1.270  31.978 -0.0984  0.3134 -0.2580
98071W        W40983  18.887   2.120   2.659 -0.3544 -0.0379  0.1158
98072W        W40984  15.692   2.015  30.520 -0.1580 -0.2369  0.0319
98073W        W40985  15.277   3.074   2.033  0.0076  0.0843  0.3689
98074W        W40986  16.428   2.869   3.513 -0.1173 -0.0919 -0.3117
98075W        W40987  16.854   3.000  31.594  0.0886  0.1032 -0.2387
98076W        W40988  15.389   2.281   0.822  0.0780 -0.1983  0.2772
98077W        W40989  17.319   1.694   2.943 -0.0235  0.2318 -0.1827
98078W        W40990  18.047   1.496   2.334 -0.2246  0.3498  0.3011
98079W        W40991  16.145   2.883   1.979  0.3627  0.4199  0.1000
98080W        W40992  14.768   2.063   0.035 -0.0085 -0.0276 -0.1462
98081W        W40993  15.144   1.540   1.319  0.0383  0.1904  0.0596
98082W        W40994  18.758   4.061   1.818  0.4643  0.1045  0.1543
98083W        W40995  16.646   1.453   2.733  0.2985  0.2521  0.0731
98084W        W40996  16.269   3.450   3.686  0.0721 -0.3063  0.3633
98085W        W40997  17.326   0.764   2.518 -0.0595 -0.3054  0.3522
98086W        W40998  18.719   5.212   0.452  0.2471  0.2367  0.0077
98087W        W40999  18.003   2.560   2.362 -0.0602 -0.4315  0.0731
98088W        W41000  15.401   3.168  31.920 -0.0548  0.3326 -0.0366
98089W        W41001  14.537   1.349   1.964 -0.0968  0.0968 -0.0561
98090W        W41002  17.693   2.007   1.671 -0.4314  0.0434  0.0058
98091W        W41003  16.383   1.116   2.532  0.1447  0.3773  0.0053
98092W        W41004  15.177   1.881   2.057  0.0483  0.0191 -0.3362
98093W        W41005  16.192   2.565   0.041  0.3075  0.0865 -0.1137
98094W        W41006  14.590   3.180   2.161 -0.1711  0.3053  0.0779
98095W        W41007  17.306   1.646  31.881 -0.1823  0.0471  0.2547
98096W        W41008  16.272   3.166   1.117  0.1551 -0.2418  0.0890
98097W        W41009  16.717   0.014   2.609 -0.0496  0.1228  0.1985
98098W        W41010  17.967   1.129   3.550  0.4501 -0.0003  0.0189
98099W        W41011  17.086   2.225  31.942 -0.2143  0.0078  0.1277
98100W        W41012  17.320  34.126   3.385 -0.5343 -0.0674 -0.0006
98101W        W41013  15.288   1.529   3.871 -0.1227 -0.1294 -0.0889
98102W        W41014  16.783   2.477   1.536 -0.0782  0.1855  0.1124
98103W        W41015  16.295   1.677   3.032  0.1978 -0.0953 -0.2084
98104W        W41016  17.222   5.234   3.857 -0.0592  0.0075 -0.1688
98105W        W41017  15.133   1.221   1.697 -0.0570 -0.1157  0.1625
98106W        W41018  15.994   1.950   0.892  0.0091 -0.1288  0.4977
98107W        W41019  14.214   1.772   1.029 -0.3633  0.0828  0.0349
98108W        W41020  15.882   2.759   3.173 -0.0980  0.0817  0.5002
98109W        W41021  17.943   5.536   1.622 -0.2083 -0.0487 -0.2096
98110W        W41022  16.388   2.784  31.624  0.2543 -0.0433 -0.0271
98111W        W41023  17.342   3.497   1.736 -0.1372  0.1280 -0.0066
98112W        W41024  16.426   1.495   2.163  0.1705  0.1563  0.3396
98113W        W41025  18.087   2.317   1.587 -0.2943 -0.0363 -0.0070
98114W        W41026  16.855   2.143   1.161 -0.1501  0.0678 -0.2572
98115W        W41027  17.546   2.988   1.425 -0.3448  0.0176  0.3164
98116W        W41028  17.444   0.791   3.548 -0.0516 -0.1091 -0.0970
98117W        W41029  17.182   2.717   1.824  0.0595 -0.2772 -0.0754
98118W        W41030  16.983   0.810   3.181 -0.3031  0.0696  0.0503
98119W        W41031  18.584   1.840   2.370 -0.0399  0.2948 -0.0261
98120W        W41032  17.326   1.254   3.499 -0.1854  0.2728 -0.0042
98121W        W41033  15.511   1.466   3.453 -0.2248  0.0083  0.3340
98122W        W41034  15.872  34.612   3.069  0.2893  0.0229  0.0484
98123W        W41035  18.204   4.146   2.463 -0.2633  0.0934  0.3108
98124W        W41036  18.305   1.377   1.369  0.0637 -0.0572 -0.3017
98125W        W41037  18.680   0.190   1.688 -0.1210 -0.3564  0.1764
98126W        W41038  18.092   0.555   0.370 -0.0438 -0.0831  0.3087
98127W        W41039  16.656   2.443  31.811  0.1598 -0.1033  0.0328
98128W        W41040  14.714   1.029   2.435 -0.2115 -0.0264 -0.0939
98129W        W41041  17.957   2.734   3.626  0.0640  0.0963  0.3590
98130W        W41042  16.851   0.342   0.695 -0.0320  0.0558  0.1931
98131W        W41043  18.309   0.539   1.806  0.1709 -0.1956 -0.0264
98132W        W41044  16.807   2.579   0.272  0.0806 -0.0126  0.0356
98133W        W41045  18.469   3.086   1.665 -0.3169  0.2004 -0.1192
98134W        W41046  17.255   2.207   1.666 -0.3592 -0.0513 -0.4502
98135W        W41047  13.917  34.072   1.179 -0.0859  0.0026  0.1869
98136W        W41048  14.959   2.988   3.123  0.1183  0.3163  0.0244
98137W        W41049  15.726   2.502  30.994 -0.1941 -0.1237  0.1328
98138W        W41050  15.709   1.190  31.242 -0.0957  0.2761  0.1625
98139W        W41051  16.892   1.932   3.198 -0.0762  0.0081 -0.1663
98140W        W41052  16.965   2.189   4.713 -0.0634 -0.2011  0.1075
98141W        W41053  16.270   1.147   0.256 -0.0994  0.1125  0.2475
98142W        W41054  17.438   0.282   3.737  0.1501 -0.5968  0.0494
98143W        W41055  14.918   2.071   0.585  0.0119  0.3344  0.2966
98144W        W41056  16.565  34.217   2.435  0.0063 -0.1311  0.0043
98145W        W41057  15.396   3.044   3.355 -0.3211  0.1184  0.0507
98146W        W41058  14.400   3.148   2.633 -0.0688 -0.0269  0.0520
98147W        W41059  17.911   2.976   1.025  0.0136  0.1940 -0.0798
98148W        W41060  16.151  34.545   2.221  0.0795 -0.0334  0.1525
98149W        W41061  17.641   1.571   2.053  0.0797  0.0199  0.1306
98150W        W41062  16.472   1.133   1.361  0.0849 -0.2313 -0.1539
98151W        W41063  17.617   2.389   2.732 -0.0663  0.1538 -0.2064
98152W        W41064  17.303   2.790   2.925  0.0307 -0.1114  0.1204
98153W        W41065  16.155   1.334   0.820  0.1399  0.1394  0.0905
98154W        W41066  16.082   3.307   4.586  0.0091 -0.0394  0.1138
98155W        W41067  18.094   1.716   1.719  0.1808  0.3049 -0.0644
98156W        W41068  16.292   2.467   1.651  0.0836  0.1173  0.0837
98157W        W41069  15.974   0.948   2.766 -0.2522  0.2250  0.0094
98158W        W41070  16.872   3.454   4.252 -0.0025 -0.2005 -0.0488
98159W        W41071  17.390   2.892   0.878 -0.2712  0.1289 -0.1289
98160W        W41072  15.783   0.231   0.689 -0.1817 -0.3262 -0.0913
98161W        W41073  17.341   1.964   0.353  0.3093  0.0729 -0.2220
98162W        W41074  14.943   2.107   3.900 -0.0125  0.0682 -0.0697
98163W        W41075  15.041   2.556   2.659 -0.0552  0.0771 -0.4087
98164W        W41076  15.588   3.713   0.832 -0.3626  0.0319  0.1139
98165W        W41077  17.117   2.693  31.814 -0.2056  0.1252  0.1284
98166W        W41078  17.553   2.407   0.730 -0.1760  0.3202 -0.0047
98167W        W41079  17.156   5.070   3.169  0.1202  0.0703  0.2911
98168W        W41080  15.482   2.112   0.365  0.0138 -0.0818  0.2338
98169W        W41081  14.929   2.622   0.753  0.2618 -0.1821 -0.1076
98170W        W41082  14.280   3.779   1.144  0.3745 -0.1603 -0.1040
98171W        W41083  16.475   2.922   1.578 -0.1882  0.0393  0.1665
98172W        W41084  14.782   3.504  31.436  0.1013 -0.1780 -0.1587
98173W        W41085  17.778   2.893   2.669 -0.0792 -0.0041 -0.3379
98174W        W41086  16.970  33.740   0.403  0.1824 -0.4499  0.2702
98175W        W41087  17.734   1.826   0.073 -0.1451 -0.1154  0.5050
98176W        W41088  17.423  34.555   0.683  0.1713  0.4034  0.0339
98177W        W41089  16.628   4.231   4.692  0.0661 -0.0324  0.0533
98178W        W41090  16.461   2.058   2.046  0.0552 -0.0019 -0.0420
98179W        W41091  16.871  34.546   1.581 -0.1773  0.0207  0.2485
98180W        W41092  15.535   1.940   2.425 -0.0523  0.2969  0.3198
98181W        W41093  17.881   1.555   1.179  0.1454  0.1690 -0.3881
98182W        W41094  14.468   2.634   2.754  0.3666  0.1643 -0.0089
98183W        W41095  18.021   3.307  31.904 -0.0318  0.0788  0.2387
98184W        W41096  16.526   1.535  31.493  0.2617  0.1172 -0.0936
98185W        W41097  15.827   2.591   1.759 -0.0010 -0.3434  0.1962
98186W        W41098  18.549   0.356   3.119  0.2973 -0.1411 -0.0462
98187W        W41099  16.721   3.893   1.107 -0.2092 -0.2325  0.1010
98188W        W41100  18.192   2.157   2.565 -0.3049  0.2602 -0.1676
98189W        W41101  15.946   2.820   1.306 -0.3276 -0.0537  0.1824
98190W        W41102  15.492   2.514   1.283  0.1973  0.0706  0.0958
98191W        W41103  17.085   4.003   3.910 -0.4339  0.3706 -0.1967
98192W        W41104  14.801   1.321   0.464  0.4002  0.0068 -0.1473
98193W        W41105  17.447   1.358   1.243  0.1410 -0.1245 -0.0321
98194W        W41106  16.064   2.704   2.559 -0.0046 -0.2055 -0.1807
98195W        W41107  17.727  33.891   3.090 -0.1434  0.0859 -0.0957
98196W        W41108  15.293   2.899   0.354  0.0501 -0.1191  0.3585
98197W        W41109  17.142   0.262  31.759 -0.2464 -0.0325 -0.1742
98198W        W41110  17.406   3.281   2.184 -0.0639 -0.0182  0.0423
98199W        W41111  14.954   1.403   2.258 -0.2464 -0.0309  0.0937
98200W        W41112  17.020   1.760  31.266 -0.2861 -0.2227 -0.0172
98201W        W41113  18.348   1.813   3.490 -0.1191  0.3295  0.2298
98202W        W41114  17.719   1.076  31.774 -0.1085 -0.2341 -0.1653
98203W        W41115  17.302   3.865   2.252 -0.1413  0.1133 -0.1574
98204W        W41116  15.602   1.462   1.064  0.0906 -0.0044  0.0658
98205W        W41117  16.239   1.721   0.479  0.2675  0.3578  0.0374
98206W        W41118  15.259   1.723   0.697 -0.1359 -0.0671 -0.0655
98207W        W41119  15.433   2.128   2.877  0.0213  0.1296 -0.0768
98208W        W41120  17.789   3.810   1.558  0.2149  0.0080  0.0468
98209W        W41121  16.116  34.283   1.324  0.2656 -0.1766  0.4002
98210W        W41122  17.121   3.051   0.143  0.1701  0.2844 -0.1002
98211W        W41123  18.482   2.304   1.257  0.3042  0.0004  0.5356
98212W        W41124  18.445   3.249   2.130  0.1584 -0.0333 -0.1272
98213W        W41125  18.643   2.541   0.840  0.2216  0.1743  0.0053
98214W        W41126  17.361   3.989   1.767 -0.2092  0.4519  0.2480
98215W        W41127  14.245   0.330   1.938  0.2448 -0.0847 -0.0336
98216W        W41128  17.076   3.447   3.151 -0.0480  0.0299  0.2569
98217W        W41129  17.777   4.559   1.807  0.2252  0.1779 -0.0061
98218W        W41130  16.633   0.219   1.405 -0.2516  0.4269 -0.1736
98219W        W41131  14.647   2.105   1.538 -0.0043  0.1279  0.1607
98220W        W41132  16.069   3.021   0.338  0.0656  0.1468  0.0915
98221W        W41133  17.646   1.891   2.553  0.1294 -0.0546  0.1165
98222W        W41134  18.416  34.663   2.703  0.2004 -0.0783 -0.1885
98223W        W41135  17.017   3.409   0.489 -0.0021  0.1250  0.0123
98224W        W41136  17.299  34.481   3.715 -0.0132 -0.1352  0.3673
98225W        W41137  15.327   3.899   3.580  0.3836 -0.1561  0.2264
98226W        W41138  15.878   3.159   3.547 -0.2142  0.3407 -0.3036
98227W        W41139  14.991   3.105   1.614  0.2616 -0.1964  0.1108
98228W        W41140  16.664   3.879   3.619 -0.1457  0.0467  0.1664
98229W        W41141  16.548   3.379   2.831  0.1924  0.2144  0.1278
98230W        W41142  17.650   2.982   1.868 -0.1719 -0.1873 -0.0883
98231W        W41143  17.027   4.918   1.673 -0.0167 -0.2392  0.3589
98232W        W41144  17.340   1.659   1.679  0.2223  0.2928 -0.1818
98233W        W41145  18.929   3.189   1.875  0.2786  0.1530 -0.0578
98234W        W41146  14.705   1.593   0.924  0.0774 -0.0662 -0.3831
98235W        W41147  17.911  34.331   1.544 -0.2480 -0.0948 -0.0926
98236W        W41148  17.107  34.338   1.012  0.0336 -0.1788  0.1537
98237W        W41149  16.471   2.004   3.450  0.2554  0.2177  0.0140
98238W        W41150  14.489   2.226   0.804 -0.0194  0.2110 -0.1133
98239W        W41151  14.282   2.239  31.874  0.2427  0.3141  0.1418
98240W        W41152  15.912   2.370   2.171  0.0909  0.0239  0.0577
98241W        W41153  16.863  33.701   2.919 -0.2369 -0.0942  0.2129
98242W        W41154  15.241   1.551   2.615  0.2376  0.3049 -0.1118
98243W        W41155  14.904   2.301   1.927  0.0383 -0.0949  0.0403
98244W        W41156  16.079  34.129   2.508 -0.0629 -0.0199  0.1025
98245W        W41157  17.340   2.681   0.345  0.1143  0.0879  0.0018
98246W        W41158  15.902   1.126   2.200  0.0390 -0.1685 -0.1711
98247W        W41159  15.774   0.619   1.004  0.0760  0.0377 -0.4004
98248W        W41160  18.916   3.702  30.437  0.0857  0.2050  0.0683
98249W        W41161  16.921   3.688   2.649 -0.1271 -0.0638  0.2794
98250W        W41162  16.564   2.563   1.117  0.1454  0.1584 -0.2208
98251W        W41163  17.523   3.277   3.020 -0.1081 -0.3051  0.0415
98252W        W41164  14.356   2.616  30.158  0.0008  0.2136  0.0948
98253W        W41165  17.299   1.798   3.480  0.0131 -0.2606 -0.1521
98254W        W41166  16.909  34.226   2.794 -0.2768 -0.1280 -0.2938
98255W        W41167  15.420   1.321   0.260 -0.2123  0.4862 -0.3944
98256W        W41168  16.533   2.868   2.559 -0.0753 -0.1704  0.0559
98257W        W41169  16.962   2.938   1.262  0.1852 -0.0871 -0.0012
98258W        W41170  17.752   3.480   1.226 -0.1560  0.1489  0.3927
98259W        W41171  17.627   1.073   3.155  0.1397 -0.1082 -0.0704
98260W        W41172  16.981   3.270   4.964  0.1728 -0.2006  0.0386
98261W        W41173  16.000  34.124   3.243  0.1032  0.1172 -0.3065
98262W        W41174  16.713   3.502   0.113 -0.1211  0.0549  0.1054
98263W        W41175  16.691   2.437   3.385 -0.0308 -0.1103  0.1646
98264W        W41176  18.529   4.188   1.258 -0.2250 -0.1871  0.3647
98265W        W41177  17.809  34.641   3.760  0.1405 -0.1901  0.1016
98266W        W41178  18.434   2.043   0.809  0.2507  0.1173  0.1426
98267W        W41179  16.440   0.659   2.864 -0.2573  0.0339 -0.3544
98268W        W41180  15.513   1.502   2.085 -0.1476  0.1365  0.1549
98269W        W41181  19.694   2.497   1.100 -0.2521 -0.0945 -0.0170
98270W        W41182  16.824   0.279   1.936 -0.1889  0.0193 -0.1142
98271W        W41183  17.495   0.889   0.968  0.1786 -0.4502 -0.0547
98272W        W41184  18.300   2.952   0.759 -0.0767 -0.1818  0.0270
98273W        W41185  14.711   1.317   1.448 -0.1976  0.0638 -0.4275
98274W        W41186  16.521   1.561   1.038  0.4900  0.2106 -0.3508
98275W        W41187  16.687   3.111   3.861 -0.3643  0.0385  0.0371
98276W        W41188  15.762   1.718   3.002 -0.0973  0.1091  0.0705
98277W        W41189  18.397   2.675   3.946 -0.1346  0.2866 -0.2864
98278W        W41190  16.089   1.616  31.176  0.4988 -0.0671 -0.0862
98279W        W41191  18.555   1.602   0.962 -0.3432  0.1347 -0.2273
98280W        W41192  16.948   4.435   4.052  0.2304 -0.1921 -0.0885
98281W        W41193  18.787   2.888   2.255  0.2504 -0.4141  0.2143
98282W        W41194  16.892   2.278   1.981  0.2175 -0.1386  0.2381
98283W        W41195  19.241   4.038   2.152 -0.1079 -0.1261 -0.0753
98284W        W41196  14.824  34.164   2.252  0.0029 -0.1151 -0.1707
98285W        W41197  14.516   2.681  31.809 -0.1700 -0.2642 -0.1241
98286W        W41198  16.986   1.515   1.335  0.0955 -0.1987  0.0595
98287W        W41199  17.984   0.230   3.295 -0.2122 -0.0271  0.0556
98288W        W41200  16.212   0.909   1.000  0.1937  0.3828 -0.1323
98289W        W41201  17.511   0.436   1.255  0.1180  0.3249  0.1690
98290W        W41202  15.717   4.152   4.759  0.2554  0.1434  0.0292
98291W        W41203  19.356   3.066   2.737 -0.0884 -0.3609  0.0074
98292W        W41204  16.420   1.614   5.621  0.3575  0.1300  0.2562
98293W        W41205  15.284   1.849   4.323  0.1863  0.3076  0.0439
98294W        W41206  17.923   3.173   2.254 -0.0238 -0.1079 -0.1547
98295W        W41207  19.205   0.797   5.599  0.0169 -0.1705 -0.1907
98296W        W41208  16.054  34.384   5.192 -0.0926  0.0821  0.0897
98297W        W41209  17.579   1.323   5.229  0.0418 -0.2296  0.0549
98298W        W41210  15.906  34.483   7.304  0.0483 -0.1400 -0.0720
98299W        W41211  18.029   1.449   5.071  0.2369  0.2809  0.1673
98300W        W41212  18.910   2.516   6.542  0.0972 -0.1642 -0.3263
98301W        W41213  17.491   2.391   4.471  0.1927  0.0867 -0.3939
98302W        W41214  16.164   0.693   6.926 -0.0263 -0.0401 -0.1534
98303W        W41215  17.656   2.773   6.326 -0.0124 -0.3258 -0.0694
98304W        W41216  16.575  33.841   5.041  0.1102  0.1061 -0.1136
98305W        W41217  15.687  33.338   6.709  0.0044 -0.3291 -0.1278
98306W        W41218  17.727   1.118   6.784 -0.0687 -0.3243 -0.1216
98307W        W41219  15.603   1.265   2.838 -0.1424  0.0705 -0.0439
98308W        W41220  15.444   1.186   5.963 -0.0993 -0.0632  0.1185
98309W        W41221  16.735   0.639   4.368  0.2572  0.1134  0.0222
98310W        W41222  18.099   3.102   5.055  0.1687  0.1355  0.1150
98311W        W41223  17.560   0.754   6.446 -0.2725 -0.1179  0.1573
98312W        W41224  16.661   0.587   7.019  0.2053 -0.0495  0.0478
98313W        W41225  17.811   3.538   4.923 -0.1463  0.2565  0.4400
98314W        W41226  15.374   0.143   3.233 -0.4320 -0.4924 -0.2243
98315W        W41227  15.658   0.177   6.087  0.1682  0.4022 -0.3378
98316W        W41228  16.013   0.507   4.915  0.0018  0.2595 -0.2780
98317W        W41229  17.217   0.814   6.840  0.0201  0.0524  0.0296
98318W        W41230  18.060   1.405   4.564  0.1720 -0.3911 -0.0835
98319W        W41231  17.870   3.884   6.001  0.1580 -0.1099  0.0976
98320W        W41232  17.362   3.488   5.706  0.0165 -0.2910 -0.1408
98321W        W41233  17.842   1.550   6.552  0.1032  0.0546 -0.0039
98322W        W41234  14.508   2.159   5.784 -0.1609  0.1935  0.0298
98323W        W41235  14.924   3.705   4.355  0.1489 -0.2322 -0.1184
98324W        W41236  15.886   1.961   3.515 -0.1042 -0.4567  0.0223
98325W        W41237  18.673   3.163   4.286  0.0799 -0.0712  0.0601
98326W        W41238  18.736   3.287   8.597  0.1359 -0.0263  0.0473
98327W        W41239  16.800   3.313   6.891  0.2152 -0.1799 -0.1331
98328W        W41240  15.900   3.598   4.182  0.4051  0.2680  0.0681
98329W        W41241  14.937   2.337   5.683  0.0471 -0.1644  0.4447
98330W        W41242  15.516   1.885   7.168  0.1500  0.0875  0.0814
98331W        W41243  15.059   3.361   6.379 -0.0051 -0.2642 -0.0852
98332W        W41244  16.729   1.213   4.762 -0.0349  0.0334 -0.1483
98333W        W41245  16.637   1.982   5.139 -0.0510 -0.0099 -0.3936
98334W        W41246  16.487   1.509   4.507 -0.0460  0.1673  0.0180
98335W        W41247  16.679   2.256   7.815  0.0200  0.0996 -0.0673
98336W        W41248  16.321   2.450   5.499  0.5173  0.1452 -0.3078
98337W        W41249  18.192   1.134   7.089  0.0671 -0.0741 -0.0367
98338W        W41250  14.442   1.895   4.061 -0.0461 -0.0270  0.2479
98339W        W41251  17.226   0.346   4.272  0.0136 -0.1563  0.1010
98340W        W41252  15.065   2.079   2.507  0.0729 -0.0236 -0.0402
98341W        W41253  16.459   0.331   5.646 -0.0550  0.1928  0.5334
98342W        W41254  16.369  34.446   6.733 -0.1310  0.0176  0.1159
98343W        W41255  15.945   2.852   6.271  0.0112  0.1388  0.0754
98344W        W41256  16.237   0.134   5.200 -0.1503 -0.0027 -0.0649
98345W        W41257  17.557   2.121   7.050  0.2400 -0.1670 -0.1457
98346W        W41258  17.149   2.580   3.330 -0.0980 -0.1914 -0.3082
98347W        W41259  17.079   1.488   6.076 -0.1433 -0.1005 -0.2149
98348W        W41260  16.190   2.902   4.781  0.3669 -0.1132 -0.1624
98349W        W41261  14.854   0.882   6.717  0.1112 -0.0554  0.0645
98350W        W41262  17.418   3.641   4.626 -0.0327 -0.0989 -0.0252
98351W        W41263  19.210   3.762   4.665  0.1724 -0.1000 -0.1216
98352W        W41264  15.852   2.848   3.980  0.0491 -0.0252  0.2760
98353W        W41265  15.306  34.541   5.556  0.2939  0.0254 -0.1292
98354W        W41266  14.980   1.395   6.836 -0.0322 -0.0901  0.2031
98355W        W41267  15.921   0.761   6.139 -0.2422  0.0092 -0.0181
98356W        W41268  14.756  33.330   3.649  0.0094  0.0005 -0.1729
98357W        W41269  18.073   2.117   8.540 -0.1218  0.0801  0.2692
98358W        W41270  15.923   3.917   7.624  0.0399  0.2510  0.0520
98359W        W41271  19.029  34.498   5.596 -0.2179  0.0266  0.0045
98360W        W41272  17.541   2.282   6.168 -0.2674 -0.0745 -0.1499
98361W        W41273  18.524   1.774   6.074 -0.0070  0.0219  0.0698
98362W        W41274  17.743   3.274   4.106  0.2839  0.0703 -0.3008
98363W        W41275  18.066   0.737   5.355  0.0714 -0.0300 -0.1276
98364W        W41276  16.774   0.709   6.559  0.2387  0.2807  0.1603
98365W        W41277  14.574   1.692   3.153 -0.2634 -0.0834 -0.0972
98366W        W41278  15.583   1.488   4.503 -0.0892  0.0481 -0.0432
98367W        W41279  16.474   2.932   5.730 -0.1814 -0.2717 -0.0321
98368W        W41280  17.323   2.169   3.133  0.1969  0.1037  0.0794
98369W        W41281  15.111   1.484   5.227 -0.0394  0.2486  0.1565
98370W        W41282  16.310  34.333   7.683 -0.1386 -0.2212 -0.2997
98371W        W41283  17.034   2.009   6.902  0.0661  0.2884 -0.0697
98372W        W41284  14.983   2.069   3.105 -0.2946 -0.0184  0.1428
98373W        W41285  15.321   3.447   5.733 -0.1776 -0.1529  0.1631
98374W        W41286  15.084   2.335   4.764 -0.2173 -0.3268  0.0499
98375W        W41287  15.208  34.541   6.818 -0.2571 -0.0486 -0.0565
98376W        W41288  14.780   3.843   5.046  0.2608 -0.2926  0.0813
98377W        W41289  17.601   0.036   4.183 -0.2177  0.1263  0.0420
98378W        W41290  14.216   0.458   7.914  0.1479 -0.2666  0.1806
98379W        W41291  17.194   1.787   5.170 -0.0083 -0.0267 -0.1521
98380W        W41292  14.994   2.679   4.390  0.3694 -0.0744 -0.0472
98381W        W41293  18.106   2.938   4.231 -0.1506 -0.0215 -0.1947
98382W        W41294  18.510   0.835   5.532  0.3330  0.0691 -0.1566
98383W        W41295  17.247   3.188   4.461  0.0594  0.0521 -0.0731
98384W        W41296  15.301   1.595   6.384 -0.3908 -0.1760  0.1550
98385W        W41297  15.723   1.790   4.013 -0.0028  0.1935  0.3877
98386W        W41298  14.561   0.886   6.341  0.0018  0.1093  0.2053
98387W        W41299  14.603  34.122   6.322 -0.0394 -0.0543  0.2821
98388W        W41300  19.134   0.334   5.548  0.2445 -0.2952  0.0648
98389W        W41301  14.440   0.525   3.820 -0.2687  0.0493  0.3073
98390W        W41302  17.299  34.648   6.230 -0.1850  0.1563 -0.1507
98391W        W41303  14.669   2.236   5.137  0.0143  0.0653  0.0329
98392W        W41304  15.849   0.622   3.815  0.1907 -0.1647  0.1331
98393W        W41305  17.202   0.889   7.680  0.0020  0.2230 -0.0874
98394W        W41306  17.346   3.605   4.092  0.0978 -0.0065  0.1879
98395W        W41307  16.895   3.420   7.369  0.0618  0.3180  0.4455
98396W        W41308  17.321   2.849   5.297 -0.4184 -0.1560  0.1974
98397W        W41309  16.165   0.158   6.037  0.0528 -0.0232  0.2666
98398W        W41310  15.803   0.566   4.316  0.0682  0.0346  0.2470
98399W        W41311  13.837   3.437   5.641  0.2113  0.3428 -0.1453
98400W        W41312  16.215   1.902   3.927  0.1536 -0.0937  0.0398
98401W        W41313  15.992   0.185   3.530 -0.0267 -0.0527  0.1110
98402W        W41314  19.302   4.383   4.639  0.0498 -0.1167  0.2443
98403W        W41315  16.505   2.610   4.081 -0.0415 -0.0592 -0.0546
98404W        W41316  14.752   3.773   6.406 -0.1476  0.1216  0.2039
98405W        W41317  17.518   1.070   6.015 -0.0758  0.0587 -0.1655
98406W        W41318  16.735   1.126   6.289 -0.3901 -0.2079  0.0763
98407W        W41319  18.424   0.989   6.204  0.1496 -0.3393 -0.0164
98408W        W41320  15.804  34.272   3.901  0.0951 -0.0983  0.0014
98409W        W41321  18.035   2.204   5.438 -0.3070 -0.0108 -0.2821
98410W        W41322  15.860   2.307   3.915  0.1364  0.2751 -0.2723
98411W        W41323  15.373   2.656   4.924 -0.2119 -0.1689 -0.2037
98412W        W41324  16.865   1.694   4.793  0.1448  0.1438  0.0557
98413W        W41325  17.829   0.056   5.977 -0.0605  0.0174 -0.2551
98414W        W41326  13.639   1.719   7.082  0.1570  0.2124 -0.0194
98415W        W41327  16.762   1.139   6.773 -0.0239 -0.1475 -0.2794
98416W        W41328  16.027   1.437   4.660  0.1533  0.1107 -0.1363
98417W        W41329  16.103   2.451   6.644 -0.2247 -0.2789 -0.3106
98418W        W41330  17.263  33.673   3.236 -0.4114 -0.0593 -0.3297
98419W        W41331  17.896   1.145   4.041 -0.1430  0.0310 -0.1295
98420W        W41332  16.534   1.541   7.470 -0.1563 -0.1296  0.2716
98421W        W41333  18.128   3.216   5.526 -0.0844  0.0621 -0.2133
98422W        W41334  17.540  34.669   3.312  0.1494  0.0426  0.0192
98423W        W41335  18.634   2.665   2.702 -0.0896 -0.2673  0.0785
98424W        W41336  15.378   0.947   6.975 -0.0150  0.1999  0.0332
98425W        W41337  18.092   3.947   5.142  0.2585 -0.5557 -0.2602
98426W        W41338  16.053   3.231   5.172  0.0334 -0.0403  0.0612
98427W        W41339  18.894   2.172   2.091 -0.1867  0.1368 -0.0268
98428W        W41340  17.900   2.684   4.667  0.1144 -0.0518 -0.0474
98429W        W41341  16.242   0.159   6.984  0.0739  0.2206  0.0554
98430W        W41342  16.228   1.205   6.015 -0.0703  0.0647 -0.0546
98431W        W41343  18.640   2.242   6.277 -0.0922 -0.3458 -0.0517
98432W        W41344  17.110   0.781   6.160 -0.1123 -0.3588  0.0653
98433W        W41345  17.551   2.486   3.803  0.1835  0.4105  0.1965
98434W        W41346  17.353   1.095   4.005 -0.0402  0.3267  0.1234
98435W        W41347  14.630   2.304   2.416  0.1569 -0.0980  0.0129
98436W        W41348  18.898   0.643   7.529  0.0983  0.1370 -0.2246
98437W        W41349  17.625   0.650   4.671 -0.1641 -0.0064  0.1105
98438W        W41350  16.374  34.445   5.693  0.0371 -0.2783  0.2314
98439W        W41351  17.797   1.468   7.077  0.0082  0.0339 -0.1822
98440W        W41352  17.526   1.533   5.682 -0.0505  0.1354  0.1422
98441W        W41353  15.868   2.021   5.735 -0.1520  0.0682 -0.2054
98442W        W41354  16.562   1.486   3.949  0.3836  0.2545 -0.0313
98443W        W41355  15.971  34.037   6.936  0.2777 -0.0272 -0.1963
98444W        W41356  15.819   2.906   6.870 -0.1186 -0.2373 -0.3444
98445W        W41357  16.542   2.400   6.325  0.2766 -0.3844 -0.1078
98446W        W41358  18.065   2.873   5.999  0.1569 -0.3868  0.1144
98447W        W41359  15.583   4.619   4.847 -0.2204  0.2172 -0.2266
98448W        W41360  17.502   1.287   7.550 -0.0227 -0.3011  0.2605
98449W        W41361  16.275   1.057   3.774 -0.0227 -0.3171  0.2203
98450W        W41362  15.834   2.656   5.255 -0.0080  0.0962 -0.0517
98451W        W41363  16.383   1.917   4.747  0.3002  0.1051 -0.2359
98452W        W41364  16.128  34.024   4.854  0.1109 -0.1084 -0.2152
98453W        W41365  16.344   3.264   6.105 -0.1261  0.0735 -0.0567
98454W        W41366  16.943   2.610   3.800  0.1076 -0.2708 -0.0199
98455W        W41367  16.716   2.475   5.767 -0.2078 -0.0446  0.1376
98456W        W41368  16.737   2.154   3.846 -0.1125 -0.1372  0.3001
98457W        W41369  17.938   0.590   6.211  0.0844 -0.1131 -0.0914
98458W        W41370  14.556   0.590   5.934 -0.0403 -0.2368  0.0147
98459W        W41371  17.877   0.555   3.627  0.3702 -0.0048  0.2837
98460W        W41372  15.565   2.624   3.562 -0.1763 -0.1674  0.0336
98461W        W41373  17.167   0.628   5.631  0.1530  0.1681  0.0052
98462W        W41374  18.758   2.236   4.727 -0.2350  0.2733  0.1281
98463W        W41375  14.967   1.046   4.953 -0.0909 -0.0610 -0.1002
98464W        W41376  15.604  34.383   3.454 -0.1647 -0.3352 -0.1684
98465W        W41377  13.654   3.226   4.762 -0.0025  0.2512 -0.2394
98466W        W41378  16.169   1.587   6.385 -0.3595 -0.2145 -0.1053
98467W        W41379  17.757   0.920   2.703 -0.0696  0.1418 -0.1145
98468W        W41380  17.711   1.832   5.249  0.0413 -0.3133 -0.2733
98469W        W41381  16.134   2.132   7.109  0.1820 -0.3718 -0.0210
98470W        W41382  16.025   1.461   3.695 -0.0213  0.2331  0.2091
98471W        W41383  18.524   1.099   6.735  0.3435 -0.2103 -0.0350
98472W        W41384  16.683   0.774   5.674  0.3016  0.1961  0.3162
98473W        W41385  14.391   3.209   5.638 -0.3765 -0.4509 -0.1329
98474W        W41386  17.754   2.645   5.266 -0.0084 -0.1652  0.3002
98475W        W41387  16.491   0.265   3.483 -0.0149  0.0235  0.1562
98476W        W41388  15.562   1.764   5.333  0.2960  0.0950 -0.0573
98477W        W41389  16.346   0.086   7.439 -0.1765 -0.0788 -0.0083
98478W        W41390  19.098   0.941   6.383 -0.1188 -0.1473  0.2762
98479W        W41391  15.235   1.141   6.452  0.0620  0.0127 -0.0236
98480W        W41392  16.170   0.903   4.209  0.0154 -0.0125 -0.2247
98481W        W41393  15.398   2.321   4.031 -0.3864  0.0036 -0.1370
98482W        W41394  18.451   1.636   6.885  0.0147 -0.0462 -0.5727
98483W        W41395  16.471   0.676   6.104  0.1163 -0.0099  0.1405
98484W        W41396  15.802   1.265   6.373 -0.3662 -0.2317  0.1652
98485W        W41397  16.869   0.129   7.172  0.3149  0.1697 -0.0644
98486W        W41398  16.925   4.227   6.186  0.0548  0.0620  0.2909
98487W        W41399  17.520   1.761   6.163 -0.0070  0.1593  0.2106
98488W        W41400  15.646   1.357   4.989 -0.0550 -0.0470 -0.2561
98489W        W41401  15.421   1.823   4.851  0.5701  0.2748 -0.1706
98490W        W41402  17.739   1.579   3.654 -0.0978  0.0555 -0.1498
98491W        W41403  17.799   2.430   5.781 -0.0703 -0.0954  0.1863
98492W        W41404  15.414   2.112   5.863  0.1748 -0.1511 -0.0857
98493W        W41405  15.145   3.158   5.145  0.1490  0.1447  0.0611
98494W        W41406  15.868   1.524   5.818 -0.2146 -0.0038  0.1017
98495W        W41407  18.710  34.302   4.693  0.2160  0.2963  0.2141
98496W        W41408  18.912   2.617   5.093 -0.1477 -0.4917  0.0420
98497W        W41409  17.321   1.765   7.320 -0.1148  0.0492  0.2820
98498W        W41410  18.579  34.168   6.386 -0.0720 -0.0413 -0.3087
98499W        W41411  17.598   1.485   4.246  0.1549  0.3417 -0.1220
98500W        W41412  17.840   0.888   7.725  0.1062  0.1454 -0.0677
98501W        W41413  15.868  34.003   7.455 -0.0487  0.0330  0.1875
98502W        W41414  18.169   2.707   5.522 -0.3180  0.0762 -0.1555
98503W        W41415  15.125   0.405   5.965 -0.5024  0.0885  0.1929
98504W        W41416  17.302   3.665   7.584  0.3524  0.4838  0.0137
98505W        W41417  14.222   1.265   7.159  0.1967  0.2168 -0.2795
98506W        W41418  17.820   2.127   4.914  0.5239  0.1703 -0.2516
98507W        W41419  16.844   0.216   3.970 -0.1084  0.0074  0.1624
98508W        W41420  17.161   2.034   6.424  0.1415  0.0433 -0.0933
98509W        W41421  18.804   1.333   6.309 -0.0456 -0.1291 -0.0022
98510W        W41422  16.292   2.439   4.956  0.0125  0.2051 -0.3755
98511W        W41423  17.696  34.568   5.410 -0.1824  0.2881 -0.2343
98512W        W41424  16.138   1.081   5.553  0.1593  0.1573 -0.2228
98513W        W41425  17.070   1.395   4.441 -0.0769  0.0905 -0.1113
98514W        W41426  16.748   2.600   4.741  0.5163 -0.4562 -0.0736
98515W        W41427  15.389   0.922   4.640  0.0845 -0.3115  0.1990
98516W        W41428  16.819  33.968   7.430  0.0952  0.1463 -0.0623
98517W        W41429  17.562   2.898   5.788  0.2172  0.1221 -0.1358
98518W        W41430  17.019   2.071   5.956  0.0675  0.0622 -0.3594
98519W        W41431  18.665   1.512   7.536 -0.0537  0.3075  0.1651
98520W        W41432  15.971   1.520   5.315 -0.0025 -0.1697  0.2785
98521W        W41433  16.601   1.764   6.155 -0.3917 -0.0624 -0.4419
98522W        W41434  15.522   0.476   6.922  0.1640  0.3135 -0.1959
98523W        W41435  18.372   2.464   6.657 -0.6492 -0.4151 -0.0003
98524W        W41436  17.322   1.828   4.457  0.1419  0.0262  0.0814
98525W        W41437  18.585   0.291   7.032 -0.2642 -0.4728 -0.1854
98526W        W41438  18.248   1.754   5.646  0.4023  0.0814  0.0207
98527W        W41439  17.102   1.182   5.459  0.2817 -0.1530 -0.0773
98528W        W41440  16.667   0.402   4.836 -0.1657  0.1021 -0.2465
98529W        W41441  17.389   1.669   6.657  0.2375  0.0534  0.0437
98530W        W41442  16.642   0.000   3.113 -0.0603  0.3571  0.0953
98531W        W41443  17.328   1.259   7.059 -0.1273 -0.1957  0.0710
98532W        W41444  15.908   4.187   4.109  0.0082 -0.1177  0.3010
98533W        W41445  17.349   2.347   5.064  0.1834 -0.0926 -0.0798
98534W        W41446  16.410   0.655   5.195  0.0041  0.1085  0.1177
98535W        W41447  16.146  34.292   6.195 -0.0486  0.0866 -0.2292
98536W        W41448  15.209   2.040   7.548  0.0649 -0.0990  0.0323
98537W        W41449  15.267   1.675   3.051  0.0535  0.0507  0.1676
98538W        W41450  17.229   3.117   3.939  0.1096  0.1415  0.0855
98539W        W41451  17.895   2.434   6.953 -0.2500  0.1291  0.0926
98540W        W41452  18.349   1.603   7.902  0.0792  0.0727 -0.2184
98541W        W41453  16.879  34.407   4.043 -0.0445 -0.2654 -0.2849
98542W        W41454  16.385   1.058   7.231 -0.0101  0.1315  0.3763
98543W        W41455  15.178   3.047   4.605  0.0108  0.3424 -0.0456
98544W        W41456  16.684  34.271   4.665 -0.0555 -0.2441  0.1107
98545W        W41457  15.014   3.911   7.164 -0.1057 -0.1207  0.0680
98546W        W41458  13.766   1.977   6.668  0.2861 -0.1547 -0.1771
98547W        W41459  17.254   2.502   5.641  0.1782  0.1433 -0.0528
98548W        W41460  16.722   0.127   6.618 -0.3646  0.0723 -0.0454
98549W        W41461  18.559   1.334   5.807  0.1121 -0.0948  0.1979
98550W        W41462  16.196   2.036   5.277  0.0345 -0.2003  0.0872
98551W        W41463  19.186   0.932   7.830 -0.1198  0.0012  0.3012
98552W        W41464  17.273   3.150   6.140  0.1369 -0.0840 -0.1913
98553W        W41465  14.642   1.743   5.181 -0.1413 -0.0161  0.2190
98554W        W41466  15.347   2.866   7.134  0.0557  0.2273 -0.0627
98555W        W41467  19.313   1.730   6.911  0.0644  0.1492 -0.1646
98556W        W41468  16.512   3.881   5.083  0.0212 -0.1564  0.2333
98557W        W41469  14.194   0.915   6.830  0.0772 -0.0394 -0.0573
98558W        W41470  17.940   1.958   5.976  0.2237  0.1901 -0.3028
98559W        W41471  15.707   1.865   6.212 -0.0042  0.0195 -0.0770
98560W        W41472  16.352   0.033   3.931  0.1401 -0.1314 -0.0377
98561W        W41473  17.799   4.050   4.719  0.3071  0.1401 -0.1769
98562W        W41474  16.200   3.489   7.524  0.3787 -0.1655 -0.2047
98563W        W41475  16.865   1.662   6.590  0.1986 -0.0036  0.2374
98564W        W41476  14.629   2.413   4.134  0.0668 -0.0117 -0.0335
98565W        W41477  18.492   3.079   3.760  0.0516 -0.2022  0.4502
98566W        W41478  16.823   1.814   4.287  0.0851 -0.1335  0.0604
98567W        W41479  16.867   2.464   5.300  0.0678 -0.3757  0.0625
98568W        W41480  16.705   1.117   4.262 -0.4774 -0.1592 -0.1361
98569W        W41481  16.305   3.021   4.186  0.1795  0.1341  0.1979
98570W        W41482  13.650   3.016   3.250 -0.0496  0.2068 -0.1806
98571W        W41483  18.231   4.661   3.926 -0.2063  0.0015 -0.1133
98572W        W41484  16.026   1.846   4.364 -0.0601 -0.0617  0.0860
98573W        W41485  16.859   2.610   6.579  0.1104  0.0360 -0.1984
98574W        W41486  18.010   0.025   5.016 -0.2481  0.2069 -0.1995
98575W        W41487  18.195   0.242   5.457 -0.1088  0.0179  0.2482
98576W        W41488  17.228  34.650   5.244 -0.0118 -0.0113  0.0650
98577W        W41489  18.111   2.399   6.217 -0.3077  0.2185  0.2410
98578W        W41490  16.397   2.092   5.808  0.1926 -0.0505  0.0285
98579W        W41491  17.220   0.472   4.873  0.1743 -0.0685  0.0731
98580W        W41492  16.219   1.095   6.626  0.1815 -0.0481 -0.0964
98581W        W41493  18.693   1.062   8.095  0.3484 -0.1504 -0.3775
98582W        W41494  15.383   3.261   6.781  0.0431  0.1155  0.0782
98583W        W41495  18.903   4.098   4.460  0.0633  0.1698  0.1555
98584W        W41496  16.136   1.411   4.181  0.0728 -0.1430  0.0576
98585W        W41497  15.939   1.923   4.886 -0.1702  0.0227  0.1931
98586W        W41498  17.350   0.080   5.689  0.0629 -0.2634 -0.1172
98587W        W41499  16.063   2.483   4.337  0.3877 -0.1407  0.0918
98588W        W41500  17.458   2.025   5.699  0.1096 -0.4883 -0.2192
98589W        W41501  17.004   3.778   4.922  0.3858 -0.1163 -0.1521
98590W        W41502  15.848   2.483   4.761 -0.5046 -0.0817 -0.4809
98591W        W41503  14.968   2.523   6.681 -0.1698  0.1627 -0.1000
98592W        W41504  14.980   0.345   3.911 -0.1818 -0.0521 -0.0841
98593W        W41505  18.151   1.234   5.528 -0.1512 -0.0130  0.1937
98594W        W41506  16.797   1.527   5.223 -0.0935 -0.3661  0.1013
98595W        W41507  17.699   0.498   6.881  0.0475 -0.0161  0.3011
98596W        W41508  16.566   1.110   5.281 -0.1385  0.2001 -0.0098
98597W        W41509  18.239   1.869   5.106 -0.1665 -0.0682  0.2464
98598W        W41510  16.134   2.070   6.263  0.2904  0.6041 -0.0732
98599W        W41511  15.535   1.211   5.485  0.2290 -0.3777  0.1453
98600W        W41512  17.243   1.627   3.944  0.1159 -0.1031 -0.2568
98601W        W41513  18.727   0.628   6.576  0.2098 -0.2192  0.1244
98602W        W41514  17.021   2.323   4.230 -0.1238  0.0326 -0.1834
98603W        W41515  17.168   2.935   7.318 -0.3851  0.3744  0.1294
98604W        W41516  15.656   0.076   5.155 -0.3333 -0.0612 -0.0337
98605W        W41517  16.833  34.600   3.606 -0.1493  0.0448 -0.0112
98606W        W41518  15.871   0.964   4.618 -0.0044 -0.2998  0.0406
98607W        W41519  16.891   1.540   7.070 -0.1335 -0.1935  0.2382
98608W        W41520  17.544   2.577   7.297 -0.2605  0.0047  0.4862
98609W        W41521  14.754   0.313   5.567 -0.2359  0.1106 -0.1630
98610W        W41522  18.457   3.801   3.174  0.0578  0.0724 -0.0081
98611W        W41523  18.330   0.542   4.931 -0.1193  0.1879  0.2113
98612W        W41524  15.413   4.326   3.841 -0.0960 -0.1084 -0.2432
98613W        W41525  19.755   3.105   3.683 -0.1206 -0.0281  0.0303
98614W        W41526  18.351   2.330   7.148 -0.1690  0.2205  0.1223
98615W        W41527  15.448   0.585   6.271  0.2845  0.0010  0.0680
98616W        W41528  17.924   1.436   5.942  0.4478 -0.2161  0.4346
98617W        W41529  19.733   3.215   5.538 -0.0700 -0.0694 -0.1887
98618W        W41530  17.615   1.160   4.622  0.3235  0.2447 -0.2139
98619W        W41531  14.556   1.640   5.748  0.3217  0.0580  0.0563
98620W        W41532  14.943   3.619   5.458 -0.0279 -0.0320 -0.0716
98621W        W41533  18.346   0.541   5.917 -0.0951  0.1125  0.1058
98622W        W41534  17.299   1.184   6.507 -0.0636 -0.0198  0.2560
98623W        W41535  15.024   2.617   5.241  0.2089 -0.0637 -0.0136
98624W        W41536  18.016   0.153   7.342  0.1835  0.0220  0.0090
98625W        W41537  16.425   2.933   5.232 -0.1923  0.2637 -0.3276
98626W        W41538  15.991   2.966   7.392  0.4251 -0.2453 -0.4227
98627W        W41539  14.127   1.851   2.656 -0.0690 -0.0698  0.0914
98628W        W41540  17.023   2.154   7.409  0.1525  0.0589  0.1373
98629W        W41541  16.226   2.534   5.997 -0.0795  0.0927  0.1744
98630W        W41542  16.158   4.430   4.765 -0.3200  0.2228 -0.1490
98631W        W41543  18.370   2.231   5.859  0.3300 -0.4762  0.2096
98632W        W41544  17.473   0.891   5.110  0.1520  0.0938 -0.1741
98633W        W41545  19.057   2.143   5.247 -0.0706  0.0517 -0.0296
98634W        W41546  16.257   0.423   4.400  0.4697 -0.0037 -0.1352
98635W        W41547  16.724   1.256   5.771 -0.2036 -0.0300 -0.0423
98636W        W41548  18.461  33.670   5.570  0.0866 -0.1912 -0.2888
98637W        W41549  15.819   1.847   6.725 -0.2084  0.1253 -0.0027
98638W        W41550  15.316   0.839   3.292 -0.1256  0.0416  0.0802
98639W        W41551  15.387   2.321   2.194  0.1661  0.0213  0.0434
98640W        W41552  15.418   1.650   5.788 -0.1852  0.0735 -0.1992
98641W        W41553  17.014  33.845   6.384  0.0470  0.0194  0.2719
98642W        W41554  15.853   0.290   7.340  0.1738 -0.2731  0.0256
98643W        W41555  15.712   1.142   4.071  0.2986  0.2041 -0.1500
98644W        W41556  16.951   0.333   5.942  0.1306 -0.3227  0.3218
98645W        W41557  16.006   2.950   5.625 -0.5205 -0.0550 -0.2865
98646W        W41558  15.464   0.466   4.779  0.1745  0.0995  0.0266
98647W        W41559  15.669  33.563   5.610  0.0040 -0.0027 -0.0081
98648W        W41560  17.587   1.650   4.824  0.1153  0.1200 -0.1509
98649W        W41561  16.665   3.104   4.598 -0.2934  0.0314  0.1799
98650W        W41562  17.005   0.716   3.891  0.0454  0.4075  0.0568
98651W        W41563  16.742   2.846   6.135  0.3530  0.1291 -0.1867
98652W        W41564  15.392   1.986   3.668 -0.0613  0.1347 -0.3007
98653W        W41565  16.384   0.456   7.836  0.1499 -0.1294  0.1474
98654W        W41566  16.354  34.651   8.227 -0.0302  0.1343  0.0140
98655W        W41567  14.847   0.829   3.583  0.3361  0.0389 -0.0634
98656W        W41568  16.351   1.483   5.002  0.3612 -0.3478  0.0594
98657W        W41569  18.331   3.519   5.241  0.0462  0.0131 -0.2894
98658W        W41570  17.398   3.588   3.531 -0.0023  0.2954 -0.2250
98659W        W41571  15.486   2.672   6.629  0.0610  0.1621  0.2165
98660W        W41572  17.160   2.614   6.107  0.1521  0.1895 -0.0915
98661W        W41573  15.638   0.808   7.392  0.1680  0.3408  0.2488
98662W        W41574  16.941   1.714   5.667 -0.0271  0.3995  0.1396
98663W        W41575  15.740   2.387   6.308  0.1667 -0.0281 -0.3106
98664W        W41576  18.222   3.240   4.604  0.2518 -0.0328  0.0714
98665W        W41577  18.545   0.067   5.732  0.0959 -0.4106  0.1967
98666W        W41578  17.232   1.258   4.895 -0.1854 -0.0932 -0.0158
98667W        W41579  16.498  33.909   7.829  0.1833 -0.3167  0.0579
98668W        W41580  15.516   1.432   6.855  0.0859  0.0155  0.2498
98669W        W41581  17.710   2.028   6.592 -0.0792 -0.0068 -0.1781
98670W        W41582  16.448  33.667   4.570 -0.3633 -0.0134 -0.3082
98671W        W41583  16.861   0.296   5.359 -0.0038 -0.1719 -0.2131
98672W        W41584  16.486   3.383   4.976 -0.1276 -0.0610  0.1440
98673W        W41585  14.131   1.411   5.835  0.1972  0.1309  0.0178
98674W        W41586  16.831   1.169   3.701  0.3503  0.0150 -0.0183
98675W        W41587  16.039   0.960   5.061 -0.0926  0.0789  0.0680
98676W        W41588  16.968   2.817   4.262  0.4794 -0.2765  0.2888
98677W        W41589  18.291   2.189   7.713  0.0178 -0.2829 -0.2477
98678W        W41590  16.013   0.523   5.509  0.0475 -0.0614 -0.0868
98679W        W41591  19.015   2.703   4.619  0.1501 -0.1301 -0.2468
98680W        W41592  18.061   2.842   6.530 -0.1043  0.0854  0.0411
98681W        W41593  18.581   2.683   7.503  0.3166 -0.0064  0.0406
98682W        W41594  16.248   4.891   6.064 -0.0349 -0.1419 -0.2036
98683W        W41595  20.294   2.556   6.086 -0.0286 -0.0012  0.0995
98684W        W41596  16.683  33.866   6.846 -0.0611 -0.0755 -0.1304
98685W        W41597  15.336   2.629   3.035 -0.2554  0.0862 -0.1964
98686W        W41598  15.624   2.167   4.468 -0.1091  0.0674  0.3979
98687W        W41599  18.326   1.442   6.423 -0.1139 -0.0672  0.1254
98688W        W41600  17.649   0.947   5.575  0.1345  0.0023  0.1206
98689W        W41601  18.029   1.538   3.235  0.1128 -0.1434  0.0606
98690W        W41602  15.722   2.449   7.025  0.1705  0.0632 -0.1151
98691W        W41603  18.228   1.990   6.500  0.0066  0.1681  0.4942
98692W        W41604  15.985   2.916   8.360 -0.2768 -0.2744  0.0198
98693W        W41605  15.578   1.318   7.339  0.1062 -0.1881  0.1373
98694W        W41606  16.110   1.224   7.626 -0.0381  0.2025 -0.3010
98695W        W41607  19.577   1.080   8.059 -0.0259  0.3211  0.0779
98696W        W41608  16.036   1.206   9.383  0.0084 -0.2433 -0.2812
98697W        W41609  16.484   3.532   8.441 -0.2308  0.1026  0.0220
98698W        W41610  17.726   1.221   9.400  0.0256 -0.0391 -0.0463
98699W        W41611  18.109   3.603   9.829 -0.1982  0.0597 -0.1736
98700W        W41612  16.972   1.389   7.588  0.1593 -0.1187  0.0656
98701W        W41613  16.873   0.662   9.706 -0.2605 -0.2193  0.1781
98702W        W41614  17.000   0.374   9.282 -0.1609  0.1329  0.1095
98703W        W41615  16.032  33.414   9.812  0.0945 -0.0523 -0.0859
98704W        W41616  14.576   5.214  11.814  0.0834 -0.1442 -0.1122
98705W        W41617  15.837   1.575   8.298  0.0022 -0.3361 -0.1466
98706W        W41618  16.228   0.616   7.388  0.2449  0.3135 -0.3865
98707W        W41619  17.487   0.535   8.037  0.1223  0.0819  0.1676
98708W        W41620  17.772   3.405   7.364  0.1106 -0.0180 -0.2872
98709W        W41621  16.711   0.994  10.101 -0.1909  0.1030 -0.1607
98710W        W41622  16.309   2.789   7.765  0.2022  0.0097 -0.0282
98711W        W41623  14.518   1.326   7.998  0.0832  0.1064  0.0381
98712W        W41624  11.674   2.718  10.069  0.0070  0.1089  0.1050
98713W        W41625  15.808   2.415   8.492  0.1286  0.2428  0.3022
98714W        W41626  17.908   0.391   9.579 -0.2736 -0.0417  0.0355
98715W        W41627  17.833   2.038   9.185  0.0108  0.0012  0.0350
98716W        W41628  17.180   4.285   8.652  0.0710 -0.0492  0.2004
98717W        W41629  17.613   3.065   9.301 -0.0607 -0.2005  0.1797
98718W        W41630  16.019   1.346   8.910 -0.2151  0.0404 -0.3662
98719W        W41631  13.288   4.310   9.570  0.0333 -0.1223  0.0625
98720W        W41632  15.334   2.109   6.606  0.1877 -0.2521 -0.2816
98721W        W41633  18.427   1.231   9.338  0.1336 -0.3483 -0.0777
98722W        W41634  14.236   1.796   6.665 -0.4080 -0.1315 -0.1086
98723W        W41635  17.469   1.226   8.953 -0.1861  0.0239 -0.2089
98724W        W41636  18.460   1.316   8.812  0.0668  0.1159  0.2865
98725W        W41637  16.394   2.869   6.491  0.3453  0.2849 -0.1120
98726W        W41638  18.516   3.185  10.117 -0.1015  0.1588  0.0925
98727W        W41639  14.329   2.725   9.504 -0.2069  0.0656  0.1740
98728W        W41640  14.487   4.518   7.443  0.1877  0.0819 -0.4218
98729W        W41641  17.708   1.256   8.515 -0.2833 -0.0222  0.3598
98730W        W41642  16.857   1.782   7.839  0.0059  0.0265 -0.0678
98731W        W41643  19.805   0.783   7.698 -0.0385 -0.0127  0.0994
98732W        W41644  16.022  34.316   9.486 -0.0778  0.0675 -0.1181
98733W        W41645  16.734   2.113   8.323 -0.0224 -0.0735 -0.3198
98734W        W41646  15.721  34.668   9.774  0.1528 -0.0139 -0.0306
98735W        W41647  16.854   0.891   8.455  0.0448  0.0567 -0.0136
98736W        W41648  15.448   3.477   9.399 -0.4546 -0.1046 -0.0645
98737W        W41649  15.860   2.434   9.024 -0.3394 -0.1961  0.0630
98738W        W41650  14.283  34.092   8.772 -0.2835  0.0867 -0.2208
98739W        W41651  18.396   1.982   8.217  0.0406  0.1953  0.1397
98740W        W41652  17.793   3.747   8.304 -0.1383 -0.0187 -0.1947
98741W        W41653  17.948   2.216   7.399  0.0963 -0.0158  0.0510
98742W        W41654  14.678   0.091   9.438 -0.1448 -0.2714 -0.0326
98743W        W41655  17.524   1.002   8.130  0.1868  0.4243 -0.2927
98744W        W41656  18.909   0.266   9.185 -0.1198 -0.1501 -0.0564
98745W        W41657  17.287   2.159   9.100 -0.0019  0.0536  0.1164
98746W        W41658  17.428   2.911   9.719  0.0973 -0.1920  0.1654
98747W        W41659  18.134   1.360   7.520  0.1571  0.2120  0.3497
98748W        W41660  19.262   3.295   9.482 -0.0954 -0.0600  0.2913
98749W        W41661  18.314   1.802   9.873 -0.0844 -0.0841  0.0491
98750W        W41662  15.467   1.681   7.833 -0.3477 -0.0780 -0.1857
98751W        W41663  16.280   2.461   8.166 -0.0985 -0.4578 -0.1893
98752W        W41664  17.049   3.503   9.425 -0.0550 -0.1983 -0.0217
98753W        W41665  18.173   1.104   8.004 -0.0724 -0.1527  0.0049
98754W        W41666  12.354   3.172  10.173  0.0280 -0.0086  0.1834
98755W        W41667  14.457   2.638   6.708  0.0695 -0.0113 -0.0228
98756W        W41668  15.062   1.875   8.102  0.1342  0.0529 -0.2038
98757W        W41669  14.920   2.328   7.822  0.1284  0.2600  0.3118
98758W        W41670  14.321   2.303   9.907  0.1206  0.2541  0.0260
98759W        W41671  16.764   3.911   8.763  0.1399  0.3003 -0.1081
98760W        W41672  18.081   0.496   7.695 -0.1772 -0.0152 -0.1503
98761W        W41673  18.665  34.568   9.118 -0.2255 -0.1060  0.2745
98762W        W41674  15.743   2.014   7.549  0.1942 -0.0830 -0.1488
98763W        W41675  19.648   5.428   6.924 -0.0661  0.3534 -0.0346
98764W        W41676  18.595  34.492   8.599 -0.0938  0.0188 -0.1881
98765W        W41677  17.816   1.762   7.498  0.3376  0.0709 -0.1430
98766W        W41678  15.189   1.108   8.849  0.3956 -0.0099 -0.0440
98767W        W41679  16.275   2.123   8.578 -0.2368 -0.4093  0.0496
98768W        W41680  14.256  34.004   8.247  0.1129  0.3203  0.1743
98769W        W41681  15.490  33.901   7.804  0.1106  0.0138  0.3015
98770W        W41682  19.582   0.583   9.638 -0.2331 -0.2010  0.3218
98771W        W41683  16.007   0.374   8.227 -0.3716 -0.0767  0.1106
98772W        W41684  16.031   1.642   7.214  0.2427  0.1888  0.1976
98773W        W41685  17.230   2.926   6.669  0.1699 -0.1705  0.1136
98774W        W41686  17.954   3.423   9.421  0.0037 -0.2403  0.0443
98775W        W41687  18.184   2.343  10.120  0.0904  0.0740 -0.3801
98776W        W41688  15.637   1.245   9.722 -0.4732 -0.1360 -0.0268
98777W        W41689  15.316  34.310   8.988  0.0202  0.0545 -0.0979
98778W        W41690  14.834   4.447   9.389 -0.1104  0.0927  0.0771
98779W        W41691  16.744   3.072   8.652  0.1398 -0.0718 -0.0458
98780W        W41692  16.669   0.599   8.852 -0.1995  0.0763 -0.3072
98781W        W41693  20.198   3.795   9.019 -0.1835  0.2158  0.0155
98782W        W41694  17.652   2.192   8.707  0.2334 -0.0827 -0.3068
98783W        W41695  17.340   2.148  10.145 -0.0749 -0.1376  0.1779
98784W        W41696  18.549   2.328   8.516  0.0356  0.0746 -0.1556
98785W        W41697  15.026  34.412   7.227 -0.0513  0.0970  0.0044
98786W        W41698  17.433   3.219   8.819 -0.0322  0.1006  0.2210
98787W        W41699  15.341   2.473   9.324  0.0431 -0.0412 -0.1705
98788W        W41700  16.273   0.903   9.014  0.3513  0.0271  0.0219
98789W        W41701  16.734   1.571   8.376 -0.1122  0.1395  0.2080
98790W        W41702  16.448   1.336   9.668  0.2697 -0.1148 -0.1199
98791W        W41703  15.157   0.466   7.227 -0.0340  0.1758  0.1471
98792W        W41704  17.768  34.506   9.633  0.3294  0.0418 -0.1657
98793W        W41705  19.039  34.506   7.152 -0.2562  0.0462 -0.1124
98794W        W41706  19.641   2.206   8.413 -0.0183 -0.4743  0.1004
98795W        W41707  16.956   1.006   7.217 -0.2017 -0.2581 -0.4017
98796W        W41708  17.038   0.288   8.725 -0.0573 -0.1046 -0.0097
98797W        W41709  19.448   2.646   9.839  0.2678 -0.1183  0.3112
98798W        W41710  16.910   4.299   9.493 -0.0491  0.1126 -0.4275
98799W        W41711  16.673   1.004   7.640  0.1533  0.2286 -0.1712
98800W        W41712  19.196   2.898   9.058  0.0420  0.4583  0.1118
98801W        W41713  15.067   2.038   9.194  0.0942 -0.0022  0.2209
98802W        W41714  17.824   2.541   7.824 -0.2244  0.0223  0.0632
98803W        W41715  16.349   0.662   9.702 -0.0642 -0.2164 -0.1919
98804W        W41716  15.021   0.929   6.057  0.4303 -0.1237  0.1042
98805W        W41717  17.947   0.344   9.096 -0.0572  0.1260 -0.1798
98806W        W41718  14.775   2.182   7.319 -0.0710 -0.0221 -0.1431
98807W        W41719  17.516   0.178   9.428  0.0314 -0.0444  0.1366
98808W        W41720  17.667  34.645   9.056  0.0618 -0.0521 -0.1877
98809W        W41721  18.824   2.481   9.130 -0.2280  0.1980  0.2548
98810W        W41722  17.422   0.936  10.262  0.0331  0.3754  0.1513
98811W        W41723  16.269   1.347   8.172 -0.0654 -0.0084 -0.0730
98812W        W41724  16.157  34.302  10.060 -0.1382 -0.1640 -0.5452
98813W        W41725  15.596   1.995   9.370 -0.2851 -0.2635 -0.2437
98814W        W41726  17.441   1.491   9.831  0.0072 -0.2837  0.0091
98815W        W41727  16.443   0.862   8.119  0.4509 -0.3922  0.3472
98816W        W41728  17.152   2.591   7.678  0.3804 -0.1327 -0.2834
98817W        W41729  14.585   1.590   7.184 -0.0331 -0.3897  0.2827
98818W        W41730  17.403  34.658   9.942 -0.3624 -0.1520 -0.1232
98819W        W41731  16.227   3.240   8.718 -0.0999 -0.2464 -0.1685
98820W        W41732  17.017   2.555   7.101  0.2252  0.2310 -0.2984
98821W        W41733  16.497   1.461   9.128 -0.0786  0.5908  0.0571
98822W        W41734  15.511   3.173   8.136  0.0576 -0.1038 -0.0809
98823W        W41735  16.452  31.590  10.280  0.0695  0.1052  0.0851
98824W        W41736  15.664   3.167   8.615  0.3529 -0.1302  0.2088
98825W        W41737  15.570   1.176   7.984  0.2696 -0.2705  0.0259
98826W        W41738  14.105   0.986   7.669 -0.0335  0.2654 -0.1310
98827W        W41739  18.158   1.029   8.470  0.0115  0.1533  0.3043
98828W        W41740  18.927   1.805   7.213  0.0703 -0.2105  0.1755
98829W        W41741  17.004   2.129   9.495  0.0739 -0.2319 -0.2642
98830W        W41742  16.456  33.062   9.617 -0.0604 -0.2185 -0.1645
98831W        W41743  17.399   4.021   9.607  0.1960  0.1898  0.3058
98832W        W41744  17.853  34.397   7.373 -0.0072 -0.0456  0.1807
98833W        W41745  15.135   0.587   7.716  0.1783  0.1265  0.0442
98834W        W41746  16.935   1.560  10.163  0.2092 -0.1961  0.0449
98835W        W41747  15.681   1.168   8.571  0.0979 -0.2496  0.0025
98836W        W41748  15.356   2.357   8.823  0.0177  0.1973 -0.0961
98837W        W41749  17.910   1.710   9.544 -0.1104  0.2259 -0.3519
98838W        W41750  14.603   2.208   6.863  0.0938 -0.1056  0.1416
98839W        W41751  16.195   2.685   7.092  0.4222  0.1477 -0.0164
98840W        W41752  19.094   4.251   9.094  0.4333 -0.2137  0.0897
98841W        W41753  15.626   1.471   9.173  0.1073 -0.3438 -0.1456
98842W        W41754  15.150   0.048   9.274 -0.2711  0.0648  0.2449
98843W        W41755  16.852   1.309   8.777  0.3078  0.0884 -0.0951
98844W        W41756  17.678   2.511  10.045 -0.1974 -0.1648  0.0159
98845W        W41757  16.077   2.165   9.498  0.0068  0.4184  0.0543
98846W        W41758  17.975   0.571   8.221  0.2162 -0.1010 -0.3054
98847W        W41759  18.235   3.139   8.661 -0.1963  0.1526 -0.2066
98848W        W41760  16.364   1.863   8.119 -0.0816 -0.6950 -0.1544
98849W        W41761  15.472   3.716   8.646 -0.2180  0.2010  0.0453
98850W        W41762  16.039   2.465   7.524 -0.0439  0.0687 -0.2968
98851W        W41763  17.452   0.562   9.881  0.2809  0.1734 -0.2090
98852W        W41764  16.483   1.894   9.384 -0.1760  0.0773 -0.0688
98853W        W41765  15.135   1.548   7.311 -0.0372 -0.1322  0.1390
98854W        W41766  16.323   2.865   9.815  0.4055  0.0392 -0.1581
98855W        W41767  17.162   0.238   8.217 -0.2462 -0.2114  0.0005
98856W        W41768  17.491   2.191   7.594  0.0148  0.3198 -0.0474
98857W        W41769  17.046  34.351   9.601  0.1777 -0.0438  0.0545
98858W        W41770  18.355   1.873   7.379  0.1234  0.0575 -0.1664
98859W        W41771  13.775  32.872  10.039 -0.0015 -0.0570  0.1784
98860W        W41772  17.886   3.136  10.024  0.2331  0.2611  0.3016
98861W        W41773  16.598   0.235   9.529  0.0656 -0.1203 -0.1309
98862W        W41774  15.456  34.259   9.564 -0.2324 -0.0594 -0.0944
98863W        W41775  16.957   1.740   9.139 -0.0926 -0.0232  0.3783
98864W        W41776  19.720   3.520   9.533 -0.1485  0.0783 -0.0624
98865W        W41777  17.122   2.567   9.316 -0.2515  0.2737  0.1815
98866W        W41778  18.088   1.731   8.850 -0.4103 -0.0383 -0.1429
98867W        W41779  15.950   0.703   9.424  0.0249  0.2184 -0.0693
98868W        W41780  16.674   2.711   9.128 -0.1355  0.1647 -0.2436
98869W        W41781  17.212   1.278   8.471  0.2342  0.0274 -0.0796
98870W        W41782  15.199   3.034   9.408 -0.2242 -0.3370 -0.1877
98871W        W41783  19.176   0.633   9.343 -0.0577 -0.0989 -0.1153
98872W        W41784  17.057   0.629  10.190  0.3924 -0.0528 -0.1473
98873W        W41785  16.916   3.415   8.942  0.0701 -0.1065  0.2283
98874W        W41786  16.986   1.252   8.021 -0.1146  0.0805 -0.4465
98875W        W41787  19.215   1.091   9.543  0.2830  0.2774 -0.0728
98876W        W41788  18.062   2.494   9.196  0.1580  0.0321 -0.3374
98877W        W41789  17.376   1.715   7.822 -0.3343  0.3458 -0.3703
98878W        W41790  15.527   0.376   9.442  0.1835  0.3464  0.0625
98879W        W41791  15.087   1.027   7.386  0.0379 -0.5992  0.1922
98880W        W41792  17.621   2.443   9.477  0.3606 -0.2337 -0.0467
98881W        W41793  16.614   3.227   9.322 -0.2478 -0.0252  0.4832
98882W        W41794  17.750   0.816   8.782  0.0266 -0.0894  0.0783
98883W        W41795  15.196  34.559   9.809 -0.1738 -0.1704  0.3227
98884W        W41796  15.096   0.015   7.989 -0.0727 -0.0070  0.1263
98885W        W41797  16.598   2.561   7.405 -0.1290  0.3449 -0.0215
98886W        W41798  17.411   1.649   9.299  0.0371  0.1211  0.5296
98887W        W41799  16.735   2.594   8.494 -0.0984 -0.2753  0.0149
98888W        W41800  14.292   2.971   7.396 -0.3849  0.2207 -0.1678
98889W        W41801  17.162  33.494  10.660 -0.1492  0.1019 -0.0746
98890W        W41802  14.822   4.079   8.854  0.4164  0.1318 -0.1834
98891W        W41803  17.202   3.089   8.319 -0.1150 -0.1135  0.3029
98892W        W41804  17.176  33.023   9.189 -0.1488  0.1251  0.1621
98893W        W41805  17.204   2.481   9.789 -0.1780 -0.3230  0.1097
98894W        W41806  16.772   0.005  10.346  0.3565  0.0179 -0.0676
98895W        W41807  16.441   1.094   8.581 -0.0473 -0.0573 -0.1437
98896W        W41808  19.103   2.427   8.360 -0.1636 -0.1349 -0.0388
98897W        W41809  16.337   2.308   9.053  0.1380 -0.0534  0.0202
98898W        W41810  16.648   0.877   9.329  0.2276  0.3923 -0.1813
98899W        W41811  16.796  34.679   8.428 -0.4075 -0.3421 -0.1836
98900W        W41812  17.132   2.777   8.824 -0.2269 -0.2183 -0.0888
98901W        W41813  14.633   2.057   9.465 -0.1089  0.2231 -0.1195
98902W        W41814  15.647   4.211   7.872 -0.3460  0.0757  0.0168
98903W        W41815  18.187   2.432   8.166 -0.0440 -0.1571 -0.1533
98904W        W41816  18.103   1.565   8.380  0.0665  0.1305  0.1554
98905W        W41817  18.087   2.975   9.158 -0.2763 -0.0869 -0.0178
98906W        W41818  15.898   0.759   7.807 -0.1143  0.3274 -0.1526
98907W        W41819  14.397   2.117   7.670 -0.2901 -0.1105 -0.0370
98908W        W41820  15.799   3.294   5.897 -0.2331  0.1515  0.1419
98909W        W41821  17.688   2.308   8.206 -0.1778  0.0800  0.0902
98910W        W41822  16.428   3.085   8.221 -0.1401  0.2113  0.2896
98911W        W41823  18.523   1.809   8.641 -0.0940  0.0426  0.4549
98912W        W41824  18.453   2.350   9.464 -0.1278  0.1664 -0.3357
98913W        W41825  18.758   1.529   8.305  0.0793  0.0953 -0.3515
98914W        W41826  14.922   0.608   9.715 -0.1399  0.1557 -0.2222
98915W        W41827  17.350   0.619   8.500 -0.1408  0.1450  0.1073
98916W        W41828  18.037   2.697   7.373  0.0970 -0.1348  0.3262
98917W        W41829  15.890   0.396   9.041 -0.1012 -0.1072 -0.0623
98918W        W41830  15.956   0.899   8.258  0.2950  0.4687  0.1756
98919W        W41831  19.215  34.678  10.550 -0.0210  0.2732 -0.3372
98920W        W41832  17.142   2.605   8.206  0.1814 -0.1053  0.2210
98921W        W41833  16.837   2.307   8.912  0.2066 -0.0705 -0.1363
98922W        W41834  15.942   3.115   7.847 -0.0690 -0.0849 -0.0399
98923W        W41835  16.343   3.646   8.933 -0.0021  0.1528 -0.0601
98924W        W41836  16.216   3.739   9.701 -0.1177 -0.3001  0.0538
98925W        W41837  14.275   1.517   7.612 -0.1815  0.1473 -0.0209
98926W        W41838  18.702   0.139   7.938 -0.0154  0.0065  0.2732
98927W        W41839  16.824   2.848   9.642  0.0195  0.0830  0.2547
98928W        W41840  15.013   1.392   7.944 -0.1319 -0.1000 -0.3118
98929W        W41841  18.638   0.612   8.448  0.4281 -0.2209  0.2957
98930W        W41842  17.511   2.002   9.663  0.1257 -0.1110  0.0464
98931W        W41843  16.115   0.665   8.622  0.2975  0.0358 -0.2183
98932W        W41844  16.396   0.803   4.663  0.0033  0.2670 -0.1356
98933W        W41845  17.802   1.399   7.962  0.0205  0.1332 -0.0164
98934W        W41846  14.899  32.982  10.063 -0.0621 -0.0113  0.0671
98935W        W41847  17.962   1.906   7.943  0.5293 -0.2186 -0.4856
98936W        W41848  16.288   1.606   8.610 -0.0289  0.1778 -0.1652
98937W        W41849  16.160   1.813   9.055 -0.0200 -0.0697  0.0721
98938W        W41850  15.443  34.240   8.138 -0.1272 -0.1832  0.0667
98939W        W41851  18.858   2.052   9.321 -0.0460  0.1529 -0.1592
98940W        W41852  18.459   2.714   9.804 -0.0655 -0.1658  0.2722
98941W        W41853  17.315   3.508   8.100 -0.0527  0.1293 -0.1894
98942W        W41854  17.222   2.227   8.512  0.0355  0.1253 -0.1148
98943W        W41855  17.731   3.718   7.827 -0.1572  0.1592 -0.0286
98944W        W41856  16.094   1.070   9.916 -0.1869 -0.0445  0.1390
98945W        W41857  16.974   6.800   8.871 -0.2937 -0.0544 -0.0046
98946W        W41858  20.221   1.143   9.847  0.0442 -0.1090  0.1756
98947W        W41859  16.586   0.450   8.380 -0.5336 -0.1711 -0.0777
98948W        W41860  16.001   1.649   7.797 -0.0795  0.1027 -0.3629
98949W        W41861  15.228   2.361   7.065  0.0782 -0.3742  0.1839
98950W        W41862  17.995   1.242   8.949  0.2090 -0.2043 -0.0457
98951W        W41863  16.419   1.954   6.672  0.2493 -0.1615 -0.0623
98952W        W41864  16.328   2.727   8.740 -0.1242  0.0738 -0.2020
98953W        W41865  14.656   1.246   7.541  0.1332 -0.1023  0.0095
98954W        W41866  15.922   2.992   9.021  0.0979  0.2440 -0.3922
98955W        W41867  16.662   2.946   7.147 -0.0689 -0.2917 -0.2784
98956W        W41868  17.981   3.895   9.431 -0.0659 -0.0208  0.2012
98957W        W41869  17.140   1.184   9.322  0.0676 -0.2734  0.0572
98958W        W41870  18.857   3.955   9.951 -0.1049  0.1263 -0.4145
98959W        W41871  15.642   0.629   8.577 -0.0309  0.1199 -0.2495
98960W        W41872  19.387  33.743   7.686 -0.1002  0.2621  0.1170
98961W        W41873  18.161  34.580   9.300  0.4229 -0.0333  0.1494
98962W        W41874  15.107   2.141   9.712 -0.2542 -0.0296 -0.1473
98963W        W41875  15.619   0.060   8.181 -0.1323  0.2180  0.1695
98964W        W41876  15.733   0.852   6.611  0.0194  0.1470 -0.1607
98965W        W41877  16.264   2.022   7.589  0.0816 -0.0419  0.1780
98966W        W41878  15.746   1.961   8.829  0.0250  0.1248 -0.1924
98967W        W41879  15.829  34.232   9.021 -0.1233 -0.1381  0.2689
98968W        W41880  17.990   2.631   8.676  0.1835  0.0571  0.0592
98969W        W41881  15.363  33.661   9.694 -0.0240  0.0678  0.1949
98970W        W41882  14.453  33.430   9.784  0.1038 -0.0339 -0.0596
98971W        W41883  17.578   2.636   9.023  0.2014 -0.0301 -0.2313
98972W        W41884  17.604   2.775   8.468 -0.0271  0.0245  0.0691
98973W        W41885  15.269   0.281   8.827 -0.1301 -0.2014 -0.1138
98974W        W41886  14.729   1.785   6.551  0.0082 -0.2773 -0.2119
98975W        W41887  14.720  34.491   7.780  0.3126 -0.0261 -0.1469
98976W        W41888  17.984  34.007   9.403 -0.1573  0.0101 -0.0500
98977W        W41889  17.121   1.755   8.690  0.0335 -0.0821  0.0224
98978W        W41890  18.336   3.818   8.031  0.1707  0.0894  0.0831
98979W        W41891  16.831  31.080   9.987 -0.0164  0.0451 -0.2607
98980W        W41892  19.169   1.454   7.968 -0.2525 -0.1746 -0.0999
98981W        W41893  19.103   2.481   7.756 -0.0934 -0.0784  0.1643
98982W        W41894  17.908   0.478  10.135  0.0040  0.0633 -0.0651
98983W        W41895  17.847   0.976   9.835  0.3117  0.0955  0.0962
98984W        W41896  18.077   0.873   9.324  0.3404 -0.2287 -0.0071
98985W        W41897  15.612  34.656   9.217 -0.0609  0.4242  0.3189
98986W        W41898  17.173  34.551   9.104  0.0546  0.3989 -0.1365
98987W        W41899  17.196   2.099   8.025 -0.0776  0.2765  0.0081
98988W        W41900  15.226   0.659   9.158  0.0202  0.0020 -0.0712
98989W        W41901  17.421   0.426   9.009  0.2276 -0.0420  0.0368
98990W        W41902  16.023   5.386   9.693 -0.0523  0.1711  0.0670
98991W        W41903  15.921   1.150   7.039  0.0711  0.1711 -0.1248
98992W        W41904  18.970   0.539   8.064  0.3444  0.1885  0.1209
98993W        W41905  17.581   5.393   9.255  0.1127  0.0282 -0.2000
98994W        W41906  16.083   3.333   9.459  0.1396 -0.1254  0.1378
98995W        W41907  17.438   0.332  10.369  0.2349  0.0256  0.1737
98996W        W41908  15.457  34.328  10.162  0.1256 -0.0438 -0.1786
98997W        W41909  15.449   2.230   7.975 -0.2045  0.3554  0.3416
98998W        W41910  16.618   1.911   8.828  0.2080  0.0503  0.3115
98999W        W41911  16.946   0.148   9.856 -0.0499 -0.0238 -0.0991
99000W        W41912  14.393  34.582   8.729  0.1477  0.0254  0.2222
99001W        W41913  17.372  33.321   8.721 -0.1028  0.1603 -0.1810
99002W        W41914  14.299   3.889   9.724 -0.1831 -0.1598 -0.2257
99003W        W41915  15.054   2.324   8.334 -0.1304 -0.0782  0.2530
99004W        W41916  14.846   6.365   2.425 -0.1457 -0.1813 -0.0159
99005W        W41917  17.212   4.809   0.171  0.0720 -0.4236  0.0700
99006W        W41918  16.839   4.358   0.861  0.0980  0.0915  0.1710
99007W        W41919  18.325   6.021   0.112  0.0768 -0.2001  0.3781
99008W        W41920  15.676   5.194   1.018 -0.2311 -0.0855  0.1468
99009W        W41921  16.459   7.573   0.032 -0.0912 -0.0618  0.0062
99010W        W41922  14.002   3.334   2.929  0.0663  0.0569 -0.1408
99011W        W41923  18.808   4.906   2.036  0.3006 -0.0876  0.3051
99012W        W41924  17.759   7.648   2.652 -0.0119  0.1509  0.1084
99013W        W41925  16.599   4.791  30.910 -0.2520  0.4190 -0.1548
99014W        W41926  16.089   3.278   1.562 -0.1899 -0.1650  0.2083
99015W        W41927  15.466   7.626   1.310  0.0993 -0.0186  0.1624
99016W        W41928  16.404   3.654   2.422  0.1378  0.2602  0.0717
99017W        W41929  16.030   3.148   2.354  0.4078  0.2835  0.4433
99018W        W41930  17.738   5.152   1.228 -0.1759 -0.0036 -0.0562
99019W        W41931  14.587   4.422   1.377  0.3139  0.1304  0.1227
99020W        W41932  16.485   5.180   3.348  0.1996 -0.1961  0.2068
99021W        W41933  16.894   3.933   1.574  0.1606  0.4638  0.1850
99022W        W41934  17.657   7.648   1.915  0.0199 -0.1913  0.0960
99023W        W41935  16.263   4.625   2.818  0.1292 -0.1657  0.0500
99024W        W41936  17.063   4.643   4.557 -0.2356  0.1346  0.1587
99025W        W41937  16.886   5.214   0.405  0.0644 -0.2720 -0.2114
99026W        W41938  15.855   6.616   1.123  0.2270 -0.0255 -0.0938
99027W        W41939  14.674   4.970   1.351 -0.1095  0.2054 -0.0245
99028W        W41940  16.156   6.118   3.191 -0.1834 -0.0457  0.0967
99029W        W41941  16.924   5.450   1.518 -0.1604  0.1824  0.2465
99030W        W41942  17.005   5.943   1.908  0.0825  0.0070 -0.0571
99031W        W41943  17.188   7.801   1.546  0.1959  0.1005  0.0291
99032W        W41944  16.927   6.985   0.836  0.1171 -0.0184  0.1259
99033W        W41945  17.563   5.175   3.488 -0.1753 -0.0083 -0.0872
99034W        W41946  15.044   5.585   1.018 -0.2718 -0.0471 -0.2020
99035W        W41947  14.392   7.232   1.352  0.2471  0.2131 -0.2618
99036W        W41948  17.951   7.812  30.638 -0.1661  0.3943 -0.2725
99037W        W41949  18.607   6.278   1.817 -0.2117 -0.2179  0.2206
99038W        W41950  16.340   6.555   2.785  0.3426 -0.2911  0.0066
99039W        W41951  15.450   6.779   3.167 -0.0630 -0.0366 -0.1445
99040W        W41952  15.592   6.082  31.911  0.1086 -0.1412 -0.2992
99041W        W41953  16.284   6.828   3.789 -0.0310 -0.0903  0.2633
99042W        W41954  16.009   7.615   4.006 -0.1623 -0.2501 -0.1277
99043W        W41955  16.410   6.405   1.402 -0.0464  0.5287  0.0924
99044W        W41956  17.477   5.554   1.328 -0.1052  0.0479 -0.0628
99045W        W41957  15.194   7.956   0.932 -0.1350 -0.0963  0.1519
99046W        W41958  16.539   6.177   1.875  0.0186  0.2411  0.0886
99047W        W41959  15.689   7.290   1.988  0.1912 -0.0195 -0.2414
99048W        W41960  14.899   5.591   2.744 -0.0187  0.1813 -0.0722
99049W        W41961  19.310   3.892   3.226 -0.2377 -0.0292  0.0938
99050W        W41962  16.441   5.069   0.267  0.1681  0.0838  0.1490
99051W        W41963  17.159   6.327  31.633  0.0578 -0.2479 -0.0034
99052W        W41964  17.214   3.391   1.157  0.0109  0.4151 -0.0774
99053W        W41965  18.030   5.342  30.475 -0.2636  0.0378  0.2743
99054W        W41966  16.538   2.386   2.448  0.0270 -0.2138 -0.1404
99055W        W41967  16.194   6.875   0.314 -0.0684  0.1334  0.1084
99056W        W41968  16.239   5.867   2.278  0.0210 -0.2012  0.3799
99057W        W41969  17.347   7.445   2.421 -0.0849  0.0500  0.1119
99058W        W41970  17.084   4.344   2.400  0.1372  0.3594 -0.2892
99059W        W41971  17.874   5.226   2.996  0.0352 -0.1255 -0.2018
99060W        W41972  15.219   5.763   2.376 -0.2812 -0.0949 -0.1283
99061W        W41973  15.846   6.399   1.596 -0.0149  0.0611 -0.1560
99062W        W41974  16.797   6.665  31.840  0.0592 -0.3156 -0.0617
99063W        W41975  16.661   6.054   0.195 -0.2502  0.0711 -0.1981
99064W        W41976  18.084   5.717  30.761 -0.2063  0.0229 -0.0988
99065W        W41977  16.597   5.892   1.491  0.0871 -0.1300  0.3142
99066W        W41978  14.861   5.293   3.186 -0.1168 -0.1093 -0.2714
99067W        W41979  14.304   4.708   3.003 -0.1642  0.0187  0.0993
99068W        W41980  16.348   4.102   0.736 -0.2080 -0.2809  0.2362
99069W        W41981  17.963   6.075   4.358  0.3754  0.2120 -0.0277
99070W        W41982  15.032   6.163   2.795  0.2061 -0.1417 -0.1415
99071W        W41983  17.754   4.489   0.883 -0.0709 -0.0761 -0.1783
99072W        W41984  17.271   5.412   0.102  0.3163 -0.2702 -0.0587
99073W        W41985  17.928   5.670   2.543 -0.0564  0.0995 -0.1126
99074W        W41986  16.745   5.798  30.739  0.3694  0.2503 -0.0885
99075W        W41987  18.043   2.842   1.501  0.0239 -0.2134  0.3659
99076W        W41988  17.859   3.660   3.304  0.3236 -0.0454  0.0232
99077W        W41989  17.197   5.124   1.200  0.3101 -0.1590  0.1391
99078W        W41990  16.688   5.563   0.740  0.5131 -0.0313 -0.2880
99079W        W41991  17.080   7.645   2.059  0.2340  0.1118  0.2100
99080W        W41992  17.538   4.938   0.840 -0.1096  0.0336 -0.0676
99081W        W41993  14.385   4.993   2.177  0.3814 -0.0736 -0.0334
99082W        W41994  16.007   5.010   2.511 -0.1409 -0.2165 -0.2439
99083W        W41995  18.557   6.100   4.441  0.1170 -0.0753  0.2351
99084W        W41996  13.949   7.420  31.750  0.1393 -0.0710  0.0162
99085W        W41997  13.778   6.251   3.589  0.1290 -0.2518 -0.0685
99086W        W41998  15.488   6.012   0.434  0.0098 -0.1933 -0.3090
99087W        W41999  15.044   3.043   3.679 -0.0998  0.0789 -0.1409
99088W        W42000  16.414   7.682   2.780 -0.5318  0.1430  0.0420
99089W        W42001  17.573   4.155   3.073  0.0323 -0.1485 -0.1426
99090W        W42002  17.152   3.990   3.395 -0.0345 -0.1463  0.0566
99091W        W42003  17.998   4.666   1.386 -0.1068 -0.0275 -0.2127
99092W        W42004  16.111   5.941   1.795 -0.2214 -0.1045 -0.1653
99093W        W42005  18.616   6.793   0.607 -0.2792 -0.1248 -0.2522
99094W        W42006  18.133   5.187  30.940  0.0824 -0.0721  0.0220
99095W        W42007  17.262   5.549  30.670 -0.2522  0.0096 -0.1847
99096W        W42008  14.828   4.727   3.315  0.1532  0.1661 -0.2210
99097W        W42009  16.186   3.997   2.172 -0.0761  0.1243  0.0317
99098W        W42010  15.777   3.722   3.513 -0.1383 -0.1131 -0.1444
99099W        W42011  15.284   5.452   1.944  0.1121 -0.0457  0.1504
99100W        W42012  17.501   6.001   2.754 -0.0836 -0.3109  0.5684
99101W        W42013  14.829   4.175   0.899 -0.1906 -0.0261 -0.1212
99102W        W42014  17.045   4.812   0.664  0.1420 -0.2626  0.2817
99103W        W42015  16.440   5.728   3.308  0.3123 -0.0489 -0.1711
99104W        W42016  14.134   6.921   0.047  0.0269  0.1302  0.0256
99105W        W42017  19.048   5.042   4.869  0.0495 -0.2829 -0.1375
99106W        W42018  15.434   7.164  31.539  0.1359  0.0500  0.0733
99107W        W42019  16.938   7.721   2.684 -0.1418  0.0278 -0.0420
99108W        W42020  17.334   6.281   1.050  0.1540  0.0242  0.0713
99109W        W42021  16.948   5.161   2.573 -0.0374 -0.3393 -0.0053
99110W        W42022  15.760   4.246   1.669  0.3098 -0.1075  0.0625
99111W        W42023  14.507   6.081   2.773 -0.1938  0.1415  0.0148
99112W        W42024  16.265   6.624   1.842 -0.1252  0.1574  0.1637
99113W        W42025  16.203   5.034   1.208 -0.0350  0.1482  0.0050
99114W        W42026  17.366   7.963   2.618  0.0554 -0.0799 -0.0818
99115W        W42027  16.031   4.888   0.763 -0.0510  0.0587 -0.0241
99116W        W42028  14.045   5.907   2.470 -0.0589 -0.1967 -0.0294
99117W        W42029  16.722   4.892   2.953  0.0140 -0.1332 -0.0219
99118W        W42030  17.846   5.953   3.803  0.4626  0.0493  0.1090
99119W        W42031  16.734   5.104   2.137 -0.4119  0.0099 -0.0101
99120W        W42032  16.607   4.373  31.954  0.1057  0.1167  0.0954
99121W        W42033  16.112   5.898  31.918  0.0132  0.1169 -0.3278
99122W        W42034  16.267   5.651   0.385 -0.1045 -0.1844  0.0924
99123W        W42035  15.272   5.735   1.515 -0.0674 -0.2200  0.1553
99124W        W42036  16.467   7.107   0.988  0.3195  0.0568 -0.0783
99125W        W42037  18.762   4.842   0.075 -0.0292 -0.0308 -0.0249
99126W        W42038  14.614   6.323   3.203 -0.3461  0.1211  0.1486
99127W        W42039  16.635   5.596   4.281  0.3746 -0.0243  0.2282
99128W        W42040  16.470   4.932   1.613  0.2784 -0.0682  0.0989
99129W        W42041  15.353   7.052   2.781  0.3051  0.0129  0.0052
99130W        W42042  17.154   5.960   1.416 -0.1230 -0.2808  0.1669
99131W        W42043  18.059   4.327  31.057 -0.2506  0.0682 -0.1120
99132W        W42044  17.445   5.827   4.089 -0.1168  0.2140 -0.0102
99133W        W42045  17.648   5.870   0.954 -0.1245  0.1082  0.1325
99134W        W42046  18.360   4.358  31.414 -0.3486 -0.4368  0.0469
99135W        W42047  15.754   3.385   1.195 -0.0296  0.2272 -0.4680
99136W        W42048  15.354   6.594   3.599  0.0348  0.1122  0.1604
99137W        W42049  17.208   5.348   0.785  0.1214  0.0177 -0.2426
99138W        W42050  16.989   6.521   1.922  0.0079 -0.1337 -0.0616
99139W        W42051  16.502   4.327   1.379 -0.0236 -0.1903 -0.1121
99140W        W42052  17.998   7.393   1.077 -0.0797 -0.1973 -0.0282
99141W        W42053  13.251   5.062   2.233 -0.0491 -0.2871  0.2303
99142W        W42054  16.895   6.916   2.932  0.0078  0.1899 -0.4040
99143W        W42055  16.367   6.276   0.547 -0.1379  0.0978  0.1779
99144W        W42056  15.743   5.226   3.791 -0.2125 -0.0486 -0.0356
99145W        W42057  17.038   6.898  31.433 -0.0697 -0.2420 -0.0837
99146W        W42058  16.685   4.598   1.899 -0.0138 -0.0590  0.0086
99147W        W42059  15.399   6.504   0.198 -0.2586 -0.2429  0.0124
99148W        W42060  17.594   4.207   2.531 -0.0738  0.2685  0.1235
99149W        W42061  17.119   4.656   2.785 -0.0140  0.0815 -0.1074
99150W        W42062  16.167   3.914   3.783 -0.1386  0.2109  0.0638
99151W        W42063  17.140   5.562   4.745 -0.0219 -0.1894  0.1442
99152W        W42064  17.768   5.683  31.260 -0.4691 -0.1504  0.2049
99153W        W42065  17.448   5.749   1.859 -0.1959 -0.0086  0.4925
99154W        W42066  15.603   6.043  31.409  0.1066  0.0499 -0.0179
99155W        W42067  18.290   5.019   2.113  0.0203  0.3315  0.1687
99156W        W42068  15.413   6.547   2.670  0.1048 -0.0029 -0.1396
99157W        W42069  14.810   7.316   1.682 -0.2467  0.0458 -0.0096
99158W        W42070  18.248   6.712   1.736 -0.2188  0.1962  0.0414
99159W        W42071  17.972   5.055   1.741 -0.4578  0.0608 -0.1109
99160W        W42072  16.673   4.813   4.087 -0.1494  0.1230 -0.0413
99161W        W42073  16.285   4.580   0.439  0.0270  0.1024  0.1910
99162W        W42074  14.795   8.236  31.798  0.3020 -0.1333  0.0451
99163W        W42075  16.610   6.231  31.675 -0.1401  0.1955  0.1110
99164W        W42076  16.058   5.500   2.555  0.0040 -0.1207  0.2281
99165W        W42077  15.796   7.653   2.398  0.0026  0.0502  0.0527
99166W        W42078  14.988   6.164   0.253 -0.0681  0.0791  0.1582
99167W        W42079  16.671   5.473   2.947 -0.1011 -0.0113 -0.1611
99168W        W42080  14.537   7.323   0.882  0.2411 -0.2771 -0.3358
99169W        W42081  18.750   4.515   1.591  0.2187 -0.1396 -0.2063
99170W        W42082  15.755   6.190   0.838 -0.1452  0.0829  0.0355
99171W        W42083  15.140   5.088   0.930  0.1404 -0.0697  0.1343
99172W        W42084  14.655   5.290   0.915 -0.2520  0.3221  0.2145
99173W        W42085  16.746   3.830   3.128 -0.2715  0.0049 -0.1151
99174W        W42086  17.329   5.064  31.738 -0.2288 -0.0848 -0.2586
99175W        W42087  16.699   5.323   3.845  0.0186  0.2625  0.0078
99176W        W42088  17.171   4.858   2.236 -0.2331 -0.0415  0.2029
99177W        W42089  15.261   7.437   1.701  0.3788 -0.1381  0.1177
99178W        W42090  16.438   5.954   2.815 -0.0998 -0.0498  0.0818
99179W        W42091  17.772   5.184  31.451 -0.2108  0.2305 -0.2557
99180W        W42092  15.871   6.775   2.827 -0.0415 -0.0145 -0.3200
99181W        W42093  15.753   6.376   4.510 -0.1298  0.0628 -0.1356
99182W        W42094  15.278   4.148  31.325 -0.1193 -0.1844 -0.1192
99183W        W42095  18.229   5.493   2.192  0.1873  0.1486 -0.0053
99184W        W42096  15.812   3.728   1.600 -0.1343  0.1413 -0.1854
99185W        W42097  14.701   6.230   0.740  0.0493 -0.0132 -0.1605
99186W        W42098  16.335   7.834   3.684 -0.0307  0.0304  0.1171
99187W        W42099  16.780   6.487  31.261 -0.0121  0.0808  0.0669
99188W        W42100  16.180   5.382  31.946  0.1088 -0.0406  0.1948
99189W        W42101  15.731   4.901   3.404  0.0123  0.3023  0.1422
99190W        W42102  17.504   5.342   2.548  0.0547 -0.1325 -0.2074
99191W        W42103  17.206   4.524   3.345  0.3098  0.0404  0.3115
99192W        W42104  15.343   3.421   1.609  0.1921 -0.1792  0.1447
99193W        W42105  17.133   5.349   1.949  0.0350  0.1919  0.0469
99194W        W42106  18.167   5.714   3.010  0.0299 -0.0272  0.2328
99195W        W42107  15.966   5.797   3.625 -0.1725 -0.0243 -0.2524
99196W        W42108  15.141   6.605   4.142 -0.2897 -0.2375 -0.0488
99197W        W42109  16.259   2.405   3.673 -0.0823  0.3059  0.0781
99198W        W42110  17.938   6.817  31.863  0.1529 -0.0528  0.1970
99199W        W42111  16.734   6.403   3.076  0.1993 -0.0828 -0.2278
99200W        W42112  15.918   4.464   1.234  0.1690  0.2382  0.0648
99201W        W42113  13.717   5.681   2.138 -0.2920 -0.1445 -0.0398
99202W        W42114  15.832   5.680   0.870 -0.0245 -0.1597  0.2417
99203W        W42115  16.896   4.160   1.998  0.0144  0.3329  0.2344
99204W        W42116  15.860   5.539   1.989  0.2209  0.0240  0.0501
99205W        W42117  15.941   7.183   0.616  0.0160  0.1595  0.2156
99206W        W42118  15.658   6.335   3.131 -0.1925 -0.1259 -0.3267
99207W        W42119  18.414   5.304   0.836  0.1899  0.0842 -0.0294
99208W        W42120  14.973   6.888  31.452 -0.0617 -0.2421 -0.3650
99209W        W42121  17.021   5.936   3.304  0.2482 -0.1750  0.1994
99210W        W42122  18.437   4.504   2.108 -0.3012 -0.0156 -0.1648
99211W        W42123  16.261   4.727  31.901 -0.2488  0.0563  0.2461
99212W        W42124  18.921   4.043   3.928 -0.0449 -0.1860 -0.1126
99213W        W42125  15.163   3.493   3.341  0.1773  0.2771  0.0057
99214W        W42126  17.567   5.843   2.302 -0.1323 -0.2140  0.0899
99215W        W42127  15.851   4.684   1.976 -0.2507  0.0025  0.0760
99216W        W42128  16.824   7.160   3.842 -0.2046  0.0182  0.2343
99217W        W42129  14.971   5.866   1.875  0.2143  0.0247 -0.1911
99218W        W42130  17.792   3.890   0.872  0.0657  0.2701 -0.1196
99219W        W42131  15.412   3.291   0.621 -0.0563 -0.0602  0.3554
99220W        W42132  17.120   6.522   3.332  0.4201  0.2254  0.1853
99221W        W42133  16.810   4.787   1.242 -0.2412 -0.0284  0.0513
99222W        W42134  16.765   4.892  31.966 -0.1469  0.0272 -0.0082
99223W        W42135  18.298   5.866   1.499 -0.1114 -0.3077  0.0211
99224W        W42136  15.682   5.136   2.857 -0.0614  0.1167  0.1731
99225W        W42137  17.411   4.751   1.360  0.1902 -0.1955  0.1584
99226W        W42138  17.697   5.457   0.670 -0.2595 -0.1680 -0.1242
99227W        W42139  15.919   6.328  31.691 -0.1262  0.1705  0.0728
99228W        W42140  16.426   4.457   4.285 -0.2141  0.1615 -0.0235
99229W        W42141  17.804   6.023   1.561  0.1154 -0.1435  0.2956
99230W        W42142  16.593   4.174   2.468 -0.0738 -0.1995  0.2765
99231W        W42143  15.420   5.294   3.379 -0.0263  0.1131  0.1386
99232W        W42144  17.341   4.857   4.215 -0.4516 -0.3687  0.2346
99233W        W42145  15.530   5.726   4.016  0.0902  0.3331 -0.2754
99234W        W42146  14.611   4.461   3.843  0.0852 -0.2558  0.0214
99235W        W42147  16.314   7.118   2.911  0.0156  0.2117  0.0218
99236W        W42148  19.561   6.560  29.796 -0.1027  0.1098  0.1655
99237W        W42149  17.889   4.143   2.055 -0.0036  0.0688 -0.3306
99238W        W42150  17.882   6.036   0.527 -0.0146 -0.1445  0.0964
99239W        W42151  17.382   3.885   1.232 -0.0009  0.2137 -0.0082
99240W        W42152  15.620   5.939   1.773  0.0234 -0.0990  0.2368
99241W        W42153  16.303   5.063   4.302  0.2246  0.0924 -0.3512
99242W        W42154  16.507   3.184   0.507  0.1196 -0.0553 -0.0711
99243W        W42155  18.800   4.468   3.733 -0.0669 -0.2929 -0.0260
99244W        W42156  17.081   6.966   0.296  0.3520  0.2266 -0.2210
99245W        W42157  17.759   6.551   0.439  0.2382 -0.0516 -0.0380
99246W        W42158  16.645   4.340   3.027  0.3081 -0.0237  0.2413
99247W        W42159  15.628   4.128   2.174 -0.0649  0.4514 -0.0090
99248W        W42160  15.902   7.533   1.567  0.2232 -0.1346 -0.0553
99249W        W42161  16.215   5.353   0.807 -0.0135 -0.0304 -0.0647
99250W        W42162  19.516   6.880   0.312  0.3653 -0.2291 -0.1301
99251W        W42163  16.833   7.335   1.763 -0.0496  0.0183  0.1114
99252W        W42164  18.509   5.614   2.613 -0.4637 -0.2178 -0.2472
99253W        W42165  16.104   3.047  31.223 -0.0983 -0.0319 -0.1221
99254W        W42166  18.313   4.679   2.612  0.0682 -0.1944  0.1770
99255W        W42167  15.353   6.863   0.899 -0.2012  0.1658  0.1271
99256W        W42168  17.016   3.160   1.780  0.0270  0.0414 -0.0429
99257W        W42169  15.124   7.494   0.768 -0.1766  0.2273 -0.1695
99258W        W42170  14.313   6.287   3.632  0.1094  0.3324  0.0646
99259W        W42171  16.700   6.815   1.589 -0.0330  0.1026  0.1146
99260W        W42172  17.379   3.752   2.805 -0.2073 -0.0857  0.0642
99261W        W42173  16.989   5.457   3.495 -0.0256 -0.0448  0.0217
99262W        W42174  17.471   6.824   1.676 -0.0431 -0.1337  0.4865
99263W        W42175  17.579   4.810   2.574 -0.1800 -0.2311 -0.0342
99264W        W42176  16.098   6.804   2.384  0.0888  0.3211 -0.1896
99265W        W42177  16.473   5.038   2.597  0.5398 -0.2188 -0.0928
99266W        W42178  17.167   6.772   3.844  0.0783  0.4071 -0.0636
99267W        W42179  17.178   6.727   1.229 -0.0643  0.0648  0.1025
99268W        W42180  15.803   5.719   3.020  0.1098 -0.0370 -0.1508
99269W        W42181  13.371   5.231   4.177 -0.0428 -0.0667 -0.0719
99270W        W42182  16.892   6.592   2.478 -0.1120  0.0841 -0.1940
99271W        W42183  17.133   7.014   2.132 -0.3928 -0.0418  0.0167
99272W        W42184  16.857   2.986   3.002  0.0156 -0.1310 -0.0938
99273W        W42185  16.836   4.441   0.377  0.2166  0.0424 -0.0804
99274W        W42186  14.479   5.698   1.889 -0.0828 -0.1114  0.0909
99275W        W42187  14.661   5.859   3.260 -0.3157 -0.1249 -0.0794
99276W        W42188  15.388   5.491   0.622  0.0894 -0.0258 -0.3921
99277W        W42189  17.677   5.195   0.162  0.0453  0.0283  0.2150
99278W        W42190  16.664   6.117   1.008 -0.2710  0.2032 -0.1731
99279W        W42191  16.035   8.836   3.673  0.3336  0.0076 -0.2002
99280W        W42192  16.572   5.548   2.450  0.0453  0.1551  0.3177
99281W        W42193  16.348   7.155  31.648  0.1750  0.0276 -0.2215
99282W        W42194  16.162   6.926   1.382  0.1542  0.0670  0.0065
99283W        W42195  16.385   4.554   0.973  0.3505 -0.1585 -0.1459
99284W        W42196  15.400   7.826   3.279  0.0783  0.1839 -0.3450
99285W        W42197  17.227   7.997   3.895  0.5960  0.0733 -0.0730
99286W        W42198  17.951   4.851  29.676  0.2178 -0.0961  0.0280
99287W        W42199  18.880   6.272  31.591 -0.0646 -0.1973  0.1257
99288W        W42200  18.390   5.093  31.421 -0.1667 -0.2839 -0.0238
99289W        W42201  16.290   6.648   3.271  0.0851 -0.1555  0.0683
99290W        W42202  15.516   5.741   3.517 -0.0156 -0.1231 -0.1082
99291W        W42203  15.606   5.183   0.020  0.2102 -0.2660 -0.2214
99292W        W42204  15.763   4.606   2.972 -0.1332 -0.3925  0.1489
99293W        W42205  18.155   3.606   2.425  0.1192  0.2520  0.2715
99294W        W42206  15.150   6.307   3.245  0.1142 -0.0506 -0.1280
99295W        W42207  18.299   7.160   1.440 -0.0401  0.0110 -0.2605
99296W        W42208  15.424   3.849   1.302 -0.2150  0.0645  0.0137
99297W        W42209  16.693   4.637   2.487  0.0923  0.2263  0.0211
99298W        W42210  18.432   4.111   3.775  0.0755 -0.2112  0.0306
99299W        W42211  18.389   6.564  31.081 -0.0317 -0.2067  0.1928
99300W        W42212  16.747   5.999   2.311  0.3672  0.5550  0.2158
99301W        W42213  16.402   6.461   0.086  0.0413  0.0056  0.1847
99302W        W42214  15.666   8.105   1.201  0.0549  0.0826  0.0416
99303W        W42215  14.574   9.447   2.865 -0.0741 -0.1025  0.2141
99304W        W42216  14.166   5.322   0.895 -0.1361  0.1152 -0.0830
99305W        W42217  18.071   5.584   1.084 -0.0008  0.2863  0.1480
99306W        W42218  15.464   5.992   2.773  0.1076 -0.1214  0.0434
99307W        W42219  17.519   4.124   4.294 -0.2434  0.2161  0.3242
99308W        W42220  15.939   5.066   1.619 -0.3896  0.2633  0.1670
99309W        W42221  17.817   4.799   0.468  0.0505  0.0296  0.1417
99310W        W42222  16.620   6.944   2.186 -0.4772 -0.1840 -0.1352
99311W        W42223  15.370   4.508   1.955  0.0418 -0.0278  0.1327
99312W        W42224  16.677   5.538   0.082 -0.1965 -0.3260  0.0051
99313W        W42225  17.238   6.428   2.848 -0.0678  0.3927  0.0613
99314W        W42226  17.692   4.630   0.039  0.1249  0.4256 -0.4096
99315W        W42227  17.522   6.957   4.830 -0.0500  0.0397 -0.0978
99316W        W42228  16.215   4.370   1.802  0.4493 -0.3019  0.1638
99317W        W42229  17.381   4.400   2.033 -0.1176  0.0300  0.3965
99318W        W42230  16.181   7.110   1.909 -0.1567  0.1942  0.0576
99319W        W42231  15.194   5.788   3.148 -0.0456 -0.0079  0.1883
99320W        W42232  17.422   8.155   3.481 -0.1231  0.1851  0.0649
99321W        W42233  15.907   3.915   1.135  0.0473  0.1476 -0.0082
99322W        W42234  17.487   7.130   1.296 -0.1748 -0.1409  0.1180
99323W        W42235  17.973   5.880   1.993  0.1006  0.0613 -0.2674
99324W        W42236  16.142   7.660   0.605 -0.1156  0.2920 -0.2297
99325W        W42237  17.438   6.274   1.847  0.3536  0.0418 -0.2633
99326W        W42238  18.477   7.863   1.700 -0.1450 -0.0040 -0.0110
99327W        W42239  15.454   2.990   1.366 -0.3486 -0.3017 -0.1804
99328W        W42240  17.775   8.099   2.284 -0.1058 -0.2092 -0.2301
99329W        W42241  17.264   6.239   2.364 -0.0218 -0.0909 -0.2612
99330W        W42242  16.619   3.702   0.596  0.1056  0.3882 -0.0014
99331W        W42243  15.845   6.320   2.129 -0.3116  0.0309 -0.1549
99332W        W42244  14.059   7.024   0.566  0.1113  0.0367 -0.1072
99333W        W42245  16.634   5.639   1.923 -0.0629  0.0138 -0.1321
99334W        W42246  18.110   4.772   3.088  0.2093  0.0156 -0.1231
99335W        W42247  16.641   6.580  29.740  0.0050 -0.0461  0.1469
99336W        W42248  17.434   4.430   3.899 -0.0163  0.1595 -0.0866
99337W        W42249  16.237   8.452   2.639  0.2193  0.0074 -0.0404
99338W        W42250  15.916   7.931   4.485 -0.0732 -0.2621  0.0759
99339W        W42251  15.913   5.972   1.279  0.3101 -0.1702 -0.2637
99340W        W42252  16.471   6.399   2.317  0.3651  0.2828 -0.2551
99341W        W42253  16.885   6.333   1.483 -0.0147 -0.1965 -0.2501
99342W        W42254  17.374   7.931  31.395 -0.2593 -0.0930 -0.1496
99343W        W42255  18.288   6.523   0.812  0.1842 -0.0674 -0.0299
99344W        W42256  17.140   3.922   0.791 -0.3659  0.0797  0.1946
99345W        W42257  18.620   6.189   0.588  0.0246 -0.1838  0.0763
99346W        W42258  18.088   4.110   3.278 -0.2595 -0.3552 -0.2931
99347W        W42259  18.790   3.706   1.153 -0.3299  0.0133  0.1223
99348W        W42260  17.468   4.708  31.378 -0.0488 -0.0049  0.0079
99349W        W42261  15.960   6.221   2.700  0.0242  0.4007  0.1319
99350W        W42262  14.930   5.756   0.526  0.3038 -0.3696  0.0054
99351W        W42263  16.456   6.182  30.892 -0.1121 -0.0487  0.1340
99352W        W42264  15.718   7.152   1.185  0.3045 -0.2054 -0.1245
99353W        W42265  16.437   4.376   3.835  0.1916  0.0011 -0.2931
99354W        W42266  14.385   4.782   3.568 -0.0565 -0.1240  0.2204
99355W        W42267  14.040   5.143   2.818 -0.2023 -0.1006 -0.1054
99356W        W42268  15.993   5.251   0.391  0.0163 -0.0540  0.3899
99357W        W42269  17.514   6.660  31.491  0.2733  0.0254  0.2895
99358W        W42270  15.533   4.718   2.447  0.1208 -0.2836  0.0859
99359W        W42271  15.632   4.127   2.664 -0.2061 -0.2022 -0.0145
99360W        W42272  16.679   6.722   0.484  0.1765 -0.2316  0.1828
99361W        W42273  17.060   6.435   0.246 -0.0523 -0.1483 -0.0645
99362W        W42274  18.167   3.708   1.123  0.0734  0.0219 -0.1297
99363W        W42275  17.644   7.791   3.959 -0.0398 -0.0586  0.0084
99364W        W42276  15.275   6.984  31.937 -0.0425  0.0562  0.0603
99365W        W42277  17.556   4.705   3.033 -0.1966 -0.0321 -0.1088
99366W        W42278  15.939   5.361   3.390 -0.0536  0.3301  0.3808
99367W        W42279  15.860   4.356   0.722  0.1347 -0.4821  0.1867
99368W        W42280  17.694   4.999   2.130  0.1721  0.0334 -0.1657
99369W        W42281  18.433   6.503   0.284  0.0020  0.0298  0.1514
99370W        W42282  15.850   8.454   0.836  0.0105 -0.0622 -0.2700
99371W        W42283  15.910   8.634   2.977  0.3179  0.0336 -0.2837
99372W        W42284  15.842   7.141   3.841  0.0145  0.0575 -0.0318
99373W        W42285  14.955   4.240   3.607  0.0455 -0.0508  0.1851
99374W        W42286  17.961   6.766   1.324  0.0712  0.3727 -0.1518
99375W        W42287  15.989   6.124   4.091  0.4386  0.0508 -0.1575
99376W        W42288  18.626   7.319  31.594 -0.0511 -0.0873  0.2966
99377W        W42289  18.581   5.498   1.217  0.1846  0.0834 -0.2600
99378W        W42290  17.218   5.575   2.929 -0.1119  0.0352  0.1652
99379W        W42291  14.925   2.765   2.156 -0.2261 -0.2276  0.4346
99380W        W42292  14.329   5.245   3.249 -0.2450 -0.0965  0.0992
99381W        W42293  17.050   5.611   2.359  0.1318  0.1081 -0.4630
99382W        W42294  16.211   3.634   3.146  0.3621  0.3078 -0.2471
99383W        W42295  17.516   2.759   2.270  0.2424  0.2261  0.1115
99384W        W42296  17.077   5.814   0.955  0.2014  0.3932  0.4567
99385W        W42297  16.236   6.700   0.851 -0.1957  0.0802  0.3817
99386W        W42298  16.368   3.845   1.721 -0.0127 -0.0299 -0.1732
99387W        W42299  15.481   4.391   4.316  0.0184 -0.2311 -0.3590
99388W        W42300  17.438   7.422   2.949  0.1742 -0.1939  0.0934
99389W        W42301  17.672   5.658   3.134  0.1841  0.0885  0.0924
99390W        W42302  16.558   4.980   0.778 -0.0389 -0.5846 -0.0001
99391W        W42303  17.471   4.877  30.840  0.2557  0.0407  0.0245
99392W        W42304  17.290   6.857   2.612  0.1008  0.1594  0.2168
99393W        W42305  18.218   7.199   2.517  0.1294  0.0438  0.0167
99394W        W42306  17.813   7.176   1.710  0.1803  0.0267 -0.0772
99395W        W42307  17.745   5.459   2.059 -0.1684  0.0224 -0.0253
99396W        W42308  15.137   4.526   2.625  0.1205 -0.0341 -0.1310
99397W        W42309  17.009   5.823   0.454 -0.0995 -0.3351  0.1571
99398W        W42310  16.322   5.746   1.118  0.0523 -0.0889  0.0250
99399W        W42311  17.997   5.147   2.503  0.1434 -0.0056 -0.1912
99400W        W42312  16.980   6.015   2.754  0.1510  0.2141 -0.1168
99401W        W42313  17.851   4.264   0.384 -0.2501 -0.1382 -0.0953
99402W        W42314  15.669   8.001   2.859  0.0824  0.1359 -0.2545
99403W        W42315  18.804   4.599   2.434 -0.0019 -0.1555 -0.1199
99404W        W42316  15.065   6.966   6.618 -0.0024 -0.1518 -0.0001
99405W        W42317  15.166   5.348   5.347  0.1651  0.1288 -0.1389
99406W        W42318  17.339   5.066   5.459  0.2299 -0.1041 -0.1761
99407W        W42319  17.770   5.083   4.046  0.0375 -0.0609 -0.3134
99408W        W42320  14.549   5.203   4.077  0.2771  0.0927  0.1774
99409W        W42321  17.858   5.920   5.903  0.0782 -0.4843  0.2037
99410W        W42322  14.918   2.851   6.316 -0.1405  0.1089 -0.3631
99411W        W42323  15.484   5.701   5.875  0.0212 -0.2281 -0.0594
99412W        W42324  17.632   7.058   6.095 -0.0362  0.2860  0.0646
99413W        W42325  16.628   7.251   4.289 -0.1998 -0.2897  0.1502
99414W        W42326  16.013   5.020   6.532  0.0092  0.1955  0.1212
99415W        W42327  15.523   6.767   6.394  0.1073  0.6093 -0.0921
99416W        W42328  14.610   3.481   4.021  0.5265  0.1756  0.1283
99417W        W42329  14.637   3.369   5.090  0.1553  0.1169  0.0605
99418W        W42330  17.735   4.547   5.832 -0.1092 -0.0820  0.1490
99419W        W42331  15.174   3.987   4.739  0.0297 -0.1431  0.1212
99420W        W42332  17.459   3.999   5.625 -0.1242 -0.2210  0.1046
99421W        W42333  16.080   5.011   4.857  0.1679 -0.0918  0.1572
99422W        W42334  14.989   7.826   3.634  0.1078  0.4393 -0.0330
99423W        W42335  15.541   5.206   6.089  0.0865 -0.1162  0.1093
99424W        W42336  15.597   3.358   5.192 -0.1356  0.0061 -0.1445
99425W        W42337  14.423   7.435   3.444  0.1050  0.0662 -0.1052
99426W        W42338  14.127   5.722   3.531  0.3121 -0.0560  0.2402
99427W        W42339  13.669   5.115   6.171 -0.0603  0.2219 -0.0888
99428W        W42340  15.098   4.633   6.464  0.0296  0.2510 -0.0056
99429W        W42341  16.996   4.711   6.545  0.2335 -0.1730  0.0867
99430W        W42342  17.028   4.759   5.172  0.1582 -0.1896  0.0883
99431W        W42343  16.122   6.744   5.400 -0.1605  0.0868  0.1484
99432W        W42344  15.724   6.948   4.453  0.0362 -0.3030 -0.0511
99433W        W42345  17.633   3.717   6.909 -0.1529  0.0495  0.3904
99434W        W42346  15.622   5.522   5.406  0.3231  0.0305 -0.1759
99435W        W42347  14.839   6.854   4.897  0.3485  0.1679  0.4179
99436W        W42348  14.635   5.905   6.818 -0.0821  0.0829  0.1754
99437W        W42349  18.257   5.472   5.200  0.0283  0.2169 -0.2516
99438W        W42350  17.014   7.269   6.045 -0.2523 -0.2626 -0.0330
99439W        W42351  16.522   7.424   6.754  0.0728  0.2569 -0.4074
99440W        W42352  14.828   5.642   4.137  0.1405  0.1384 -0.0538
99441W        W42353  15.211   7.438   6.020 -0.1799 -0.2028 -0.2455
99442W        W42354  14.727   7.605   6.794  0.4194  0.4649  0.0228
99443W        W42355  15.497   6.060   6.961 -0.0317  0.1435  0.2909
99444W        W42356  16.200   6.558   4.211 -0.0727  0.0156 -0.1010
99445W        W42357  14.942   6.845   3.340 -0.0463  0.1620 -0.0989
99446W        W42358  17.200   5.193   5.926 -0.1168  0.2401  0.4515
99447W        W42359  15.727   7.589   6.979  0.1375  0.2786 -0.1520
99448W        W42360  15.241   7.024   4.681 -0.1024  0.3054  0.4693
99449W        W42361  18.041   4.158   7.792 -0.0986  0.1545 -0.0800
99450W        W42362  14.468   6.594   2.705 -0.0354 -0.3031 -0.0617
99451W        W42363  16.905   5.743   5.258 -0.0640 -0.2744 -0.0151
99452W        W42364  16.689   5.307   4.777  0.0439  0.0861 -0.1862
99453W        W42365  18.582   4.387   4.233  0.2420  0.1256  0.1374
99454W        W42366  17.030   3.792   5.452 -0.1766 -0.0753 -0.2762
99455W        W42367  14.482   7.320   4.438  0.2764  0.3426 -0.0946
99456W        W42368  15.836   4.177   5.236  0.0999 -0.0499  0.1132
99457W        W42369  17.077   6.100   6.370 -0.2514  0.1185 -0.0239
99458W        W42370  18.381   4.298   4.815  0.0117  0.1119 -0.0648
99459W        W42371  15.542   4.590   5.913 -0.1401 -0.1956 -0.0525
99460W        W42372  14.275   7.466   5.661 -0.1671 -0.4291 -0.3803
99461W        W42373  14.273   4.765   4.374  0.3726 -0.2997  0.0906
99462W        W42374  17.569   6.842   4.261  0.0581 -0.1461 -0.3852
99463W        W42375  17.658   6.115   5.459 -0.0012 -0.2895 -0.0031
99464W        W42376  17.261   6.243   3.752 -0.3472  0.0219 -0.0889
99465W        W42377  15.009   4.723   4.150  0.1224  0.1058 -0.0757
99466W        W42378  14.815   4.175   6.646  0.0250 -0.0832  0.0467
99467W        W42379  15.589   5.033   5.173 -0.0960 -0.2261 -0.1166
99468W        W42380  15.848   3.202   2.760 -0.0522  0.3879 -0.0141
99469W        W42381  15.984   6.451   6.178 -0.0404  0.1677 -0.0209
99470W        W42382  14.524   4.874   4.862  0.2610  0.0360  0.2133
99471W        W42383  17.483   4.212   6.124 -0.2409 -0.1226  0.2778
99472W        W42384  16.658   5.842   4.789 -0.0909 -0.0176 -0.0876
99473W        W42385  17.313   7.105   5.694 -0.1905 -0.0922 -0.0490
99474W        W42386  16.966   5.797   3.821  0.1123  0.2932  0.0521
99475W        W42387  18.560   3.707   6.640  0.2053 -0.2615 -0.1525
99476W        W42388  17.657   3.259   6.560  0.4133  0.0723 -0.3974
99477W        W42389  15.136   6.025   3.753 -0.1156 -0.1820 -0.1783
99478W        W42390  16.483   5.960   5.428  0.1677 -0.0599 -0.0043
99479W        W42391  17.922   5.679   6.839  0.0202  0.0363 -0.1340
99480W        W42392  16.205   5.400   3.897 -0.0077 -0.3947  0.2093
99481W        W42393  13.329   5.772   4.204 -0.5695 -0.0452 -0.1735
99482W        W42394  15.741   4.533   7.189  0.1508  0.1211  0.3275
99483W        W42395  15.141   5.481   6.280  0.1154  0.3297 -0.1517
99484W        W42396  15.479   7.781   4.244  0.1405  0.0713 -0.0402
99485W        W42397  14.232   6.642   6.337 -0.4953  0.0453  0.1659
99486W        W42398  13.194   5.449   4.604  0.0269 -0.1984  0.1715
99487W        W42399  15.178   2.713   5.872 -0.1861  0.0086  0.2073
99488W        W42400  14.225   7.028   5.368 -0.0143  0.1825 -0.0565
99489W        W42401  18.219   3.460   4.081 -0.1224 -0.0259  0.0302
99490W        W42402  15.110   3.848   5.900  0.1075 -0.0895 -0.2233
99491W        W42403  18.344   4.817   5.370  0.1142 -0.0452  0.1782
99492W        W42404  16.163   7.081   4.234 -0.1486 -0.0145 -0.1713
99493W        W42405  17.244   7.319   4.728 -0.0818 -0.3155 -0.2897
99494W        W42406  17.788   4.608   4.181 -0.3473 -0.0093  0.3714
99495W        W42407  18.603   6.801   4.397  0.0832  0.1340 -0.0592
99496W        W42408  12.503   4.227   5.696  0.1770 -0.1408  0.1160
99497W        W42409  15.433   5.071   5.641  0.3531 -0.2461 -0.0736
99498W        W42410  15.568   4.038   6.084  0.2167  0.0083  0.0021
99499W        W42411  14.043   4.648   3.976  0.2296 -0.1281  0.1667
99500W        W42412  16.529   5.012   6.493  0.2061  0.0581 -0.0458
99501W        W42413  14.763   3.831   3.391  0.3633 -0.0787  0.0249
99502W        W42414  15.992   3.941   5.844 -0.2176  0.0364 -0.2727
99503W        W42415  17.664   5.303   4.917  0.2102 -0.1023 -0.1116
99504W        W42416  13.206   7.300   3.841  0.0872 -0.0757  0.1054
99505W        W42417  17.819   3.659   5.482 -0.0245 -0.5120  0.1997
99506W        W42418  17.212   6.362   4.280  0.1894  0.0574 -0.0420
99507W        W42419  18.268   6.588   7.015 -0.1918 -0.0153  0.0029
99508W        W42420  17.560   6.730   5.376 -0.1924  0.1201 -0.0733
99509W        W42421  14.997   4.228   5.558  0.0695 -0.0574  0.0916
99510W        W42422  15.013   3.708   3.879  0.3143 -0.3052  0.0862
99511W        W42423  15.743   6.805   5.918  0.1842 -0.1707 -0.2526
99512W        W42424  15.929   7.191   5.398 -0.1556  0.0230 -0.0839
99513W        W42425  16.605   3.698   4.597 -0.2292  0.1200 -0.0695
99514W        W42426  18.791   8.003   6.084  0.1140 -0.1294  0.0498
99515W        W42427  16.478   6.842   4.610  0.1414 -0.0226 -0.1540
99516W        W42428  12.800   5.787   5.248 -0.2076  0.0478  0.2187
99517W        W42429  18.238   3.340   6.274  0.1490  0.2088  0.2905
99518W        W42430  17.979   5.200   6.599 -0.1781  0.3368  0.1233
99519W        W42431  17.699   4.967   6.134 -0.1501 -0.1267 -0.2286
99520W        W42432  15.511   4.347   3.337  0.1914 -0.1998 -0.0931
99521W        W42433  17.532   7.465   4.280  0.1582  0.0728 -0.3180
99522W        W42434  14.520   7.242   5.048 -0.1280 -0.3839 -0.0579
99523W        W42435  15.035   4.814   5.556  0.0800  0.0798  0.2390
99524W        W42436  15.514   8.022   3.758 -0.2312  0.2698 -0.0601
99525W        W42437  17.277   3.362   7.108  0.1496 -0.1269 -0.3038
99526W        W42438  13.871   4.656   6.188  0.2811  0.1810  0.0504
99527W        W42439  16.384   4.272   6.049  0.2469  0.0989 -0.1099
99528W        W42440  14.723   4.369   4.994  0.1874  0.0024 -0.0580
99529W        W42441  15.791   3.961   6.554  0.1746 -0.2222 -0.3261
99530W        W42442  16.980   2.919   5.642 -0.0907 -0.2092  0.0038
99531W        W42443  18.384   5.210   3.017  0.1003  0.0452  0.1456
99532W        W42444  16.132   5.295   6.920 -0.2266 -0.5515  0.0879
99533W        W42445  17.705   6.497   4.596 -0.1743 -0.1548 -0.1174
99534W        W42446  16.817   4.352   3.556 -0.0695  0.0186 -0.0889
99535W        W42447  17.896   3.660   4.431  0.0662  0.2272  0.1862
99536W        W42448  14.706   5.668   6.381 -0.0455  0.0891  0.0862
99537W        W42449  16.879   4.917   5.604 -0.4421 -0.0052 -0.0140
99538W        W42450  15.560   6.675   4.874 -0.1174  0.0432 -0.3165
99539W        W42451  17.073   3.988   4.470  0.0820 -0.0508  0.2744
99540W        W42452  18.496   7.002   4.873  0.0375 -0.0109 -0.0296
99541W        W42453  15.300   5.962   5.429  0.0843  0.0119 -0.0252
99542W        W42454  16.645   5.399   7.204  0.0801  0.1516  0.0770
99543W        W42455  17.580   5.540   5.720  0.0732  0.0258  0.0157
99544W        W42456  15.908   3.265   6.535  0.2176  0.0575 -0.0120
99545W        W42457  14.895   5.058   3.717  0.1987 -0.3035  0.3196
99546W        W42458  16.371   5.155   5.652  0.2098 -0.1372  0.0946
99547W        W42459  15.913   9.184   2.354  0.1130 -0.1475  0.2740
99548W        W42460  16.297   3.464   5.636  0.1799  0.0342  0.0191
99549W        W42461  16.532   3.811   5.986 -0.0306 -0.1038  0.0874
99550W        W42462  16.146   4.291   6.892  0.1337 -0.0211 -0.0641
99551W        W42463  19.545   6.192   6.220 -0.0662 -0.1960  0.2399
99552W        W42464  18.822   3.864   5.486 -0.0004  0.0637 -0.0998
99553W        W42465  16.739   6.924   5.805 -0.1147 -0.0073  0.1755
99554W        W42466  14.521   5.462   3.638 -0.7536  0.0369  0.0732
99555W        W42467  16.288   4.566   6.505  0.2353  0.0977  0.0438
99556W        W42468  15.926   4.353   6.204 -0.2413 -0.1322  0.0915
99557W        W42469  13.840   7.084   7.118  0.0316 -0.0998 -0.4644
99558W        W42470  15.936   4.844   5.657  0.0734 -0.3407 -0.0578
99559W        W42471  16.720   4.667   6.122 -0.1366  0.1050  0.1856
99560W        W42472  16.810   3.356   8.115  0.2921 -0.2035 -0.1970
99561W        W42473  17.743   4.987   4.547  0.2987 -0.4232 -0.1565
99562W        W42474  15.253   7.716   5.202  0.0067 -0.3412 -0.5509
99563W        W42475  14.478   6.841   3.109 -0.0186 -0.1869  0.2137
99564W        W42476  17.619   3.093   4.754 -0.0843 -0.0812 -0.0470
99565W        W42477  16.663   6.740   4.163 -0.2469 -0.1237 -0.2470
99566W        W42478  15.357   7.610   2.810 -0.2472  0.1705 -0.2763
99567W        W42479  16.403   6.111   6.176  0.0268 -0.3121  0.1530
99568W        W42480  16.398   7.683   4.477  0.0998 -0.0467 -0.0262
99569W        W42481  18.555   3.002   6.522  0.0329  0.1960 -0.0763
99570W        W42482  15.357   7.633   4.692 -0.1169  0.3504  0.1266
99571W        W42483  15.233   4.232   5.120  0.1328 -0.0553  0.1747
99572W        W42484  13.689   4.635   5.042  0.0336  0.0592 -0.0473
99573W        W42485  16.411   3.444   6.546  0.0935 -0.2388  0.1619
99574W        W42486  18.564   6.827   3.909  0.0178 -0.2389  0.0687
99575W        W42487  15.326   4.414   7.487  0.0639  0.2386 -0.2554
99576W        W42488  16.585   5.259   6.083 -0.1013 -0.1323 -0.3109
99577W        W42489  13.032   7.374   5.005  0.0833 -0.1355 -0.2346
99578W        W42490  16.642   6.493   5.540 -0.0934 -0.0237 -0.3874
99579W        W42491  18.258   3.701   4.741 -0.0854 -0.1353 -0.1455
99580W        W42492  16.908   7.786   6.032 -0.1574 -0.1688  0.0428
99581W        W42493  14.995   6.021   8.127  0.2644 -0.0821  0.1671
99582W        W42494  13.819   4.226   4.778 -0.0452 -0.0309 -0.0249
99583W        W42495  18.909   5.240   6.955  0.2010  0.0706 -0.0935
99584W        W42496  16.174   3.886   5.423 -0.1551 -0.0228  0.0012
99585W        W42497  16.140   5.921   5.003 -0.2119 -0.2667  0.0719
99586W        W42498  16.044   6.984   6.445 -0.1937  0.0168  0.0168
99587W        W42499  15.936   4.446   3.565  0.0557  0.4322 -0.2732
99588W        W42500  14.198   4.485   4.961  0.1530  0.1385 -0.3695
99589W        W42501  13.632   4.223   6.875 -0.1866  0.2076  0.3534
99590W        W42502  18.130   6.593   5.510  0.0148 -0.0427  0.1362
99591W        W42503  15.845   5.475   4.920  0.0108  0.0870 -0.3013
99592W        W42504  17.047   4.391   5.708 -0.1585 -0.1914 -0.1078
99593W        W42505  17.215   4.703   6.084  0.1848 -0.2038  0.0400
99594W        W42506  16.828   6.063   5.764  0.0298 -0.0570 -0.2504
99595W        W42507  16.270   4.779   6.958  0.2653  0.2093 -0.2493
99596W        W42508  15.071   6.289   6.799  0.1013  0.1787  0.0066
99597W        W42509  17.436   3.331   5.145  0.1239 -0.0844 -0.0269
99598W        W42510  18.397   8.357   5.148 -0.0060 -0.0989 -0.2567
99599W        W42511  18.034   5.502   6.150 -0.0884 -0.0144  0.0023
99600W        W42512  15.104   4.914   5.075 -0.0475  0.0066 -0.0240
99601W        W42513  14.271   5.868   6.016  0.2376 -0.2235  0.2248
99602W        W42514  15.140   7.036   5.276 -0.2810  0.0018 -0.2328
99603W        W42515  15.952   5.569   4.247  0.0114  0.0011 -0.2438
99604W        W42516  15.780   6.371   5.207  0.2329  0.5719  0.0882
99605W        W42517  15.755   5.921   4.588  0.1523  0.0008  0.0110
99606W        W42518  13.578   5.922   4.788 -0.0845  0.0989  0.0044
99607W        W42519  18.861   4.448   3.184 -0.0051 -0.0143 -0.1034
99608W        W42520  16.019   5.265   5.343 -0.1264 -0.1816  0.1814
99609W        W42521  17.035   3.815   5.939 -0.2458  0.0443  0.0637
99610W        W42522  17.439   3.655   6.195 -0.2008 -0.2326 -0.1353
99611W        W42523  18.145   4.146   4.395 -0.1055  0.1162 -0.1609
99612W        W42524  17.124   5.121   7.550 -0.0587 -0.3581 -0.1771
99613W        W42525  15.260   2.424   6.229 -0.2518  0.1392  0.0394
99614W        W42526  17.929   6.768   5.046 -0.0106 -0.0006  0.1157
99615W        W42527  14.580   4.356   4.459 -0.0091 -0.2081 -0.1573
99616W        W42528  16.017   7.271   5.953  0.0603  0.0903 -0.0720
99617W        W42529  15.782   5.621   6.899 -0.0774 -0.1582  0.2206
99618W        W42530  18.381   3.775   5.724 -0.3087 -0.0766  0.1423
99619W        W42531  15.345   2.797   4.012 -0.0676 -0.1179 -0.1122
99620W        W42532  15.462   5.280   6.661 -0.2473  0.0656  0.1297
99621W        W42533  17.516   5.989   5.017 -0.0624  0.1303 -0.1620
99622W        W42534  17.076   6.147   4.802 -0.2075  0.4238 -0.1577
99623W        W42535  18.021   4.408   5.253 -0.0488 -0.0724 -0.0218
99624W        W42536  13.928   7.066   6.310  0.1047  0.0780 -0.0150
99625W        W42537  18.636   5.350   3.936  0.1799 -0.1439 -0.1171
99626W        W42538  15.909   4.620   4.375 -0.0089 -0.0796 -0.0473
99627W        W42539  14.476   5.322   4.950 -0.0477  0.1491 -0.1789
99628W        W42540  16.601   3.161   7.679  0.0737 -0.2224 -0.2522
99629W        W42541  17.840   5.691   5.284 -0.2626  0.0441  0.2636
99630W        W42542  16.793   3.334   5.440  0.0215 -0.1113  0.0676
99631W        W42543  16.803   3.339   5.938 -0.4951 -0.1038  0.1926
99632W        W42544  15.956   5.442   5.837  0.0445 -0.2079 -0.0711
99633W        W42545  15.630   5.700   6.385 -0.0043 -0.3095 -0.0112
99634W        W42546  15.443   3.758   6.920 -0.0263  0.0455  0.2741
99635W        W42547  16.866   6.620   6.548  0.2189 -0.1401  0.0016
99636W        W42548  16.952   3.505   3.723 -0.0047  0.0452 -0.2235
99637W        W42549  18.273   6.044   5.508 -0.0661  0.2592 -0.1697
99638W        W42550  18.942   6.676   4.731  0.0528 -0.1222  0.1779
99639W        W42551  15.285   5.006   4.560  0.1529  0.2306 -0.0609
99640W        W42552  14.771   5.976   5.918  0.0247 -0.1266  0.0368
99641W        W42553  16.842   5.457   5.680  0.0336  0.0581 -0.1803
99642W        W42554  15.662   3.586   3.015  0.3191 -0.1062 -0.1265
99643W        W42555  17.747   3.288   5.996 -0.1768 -0.2970 -0.4148
99644W        W42556  16.041   7.166   3.362  0.2161  0.1268  0.0035
99645W        W42557  16.962   5.229   5.216  0.1796 -0.1399 -0.0316
99646W        W42558  17.491   3.879   5.107 -0.1694  0.0228  0.1010
99647W        W42559  15.986   4.647   5.207  0.2047  0.1139  0.0133
99648W        W42560  14.628   6.507   6.731  0.0558  0.3323 -0.1676
99649W        W42561  16.141   3.935   4.550  0.3766 -0.3282  0.0918
99650W        W42562  16.175   4.949   3.679 -0.1257  0.3515 -0.0453
99651W        W42563  14.378   3.672   5.439 -0.0271  0.0415  0.2573
99652W        W42564  19.362   5.167   7.261  0.0141  0.1931  0.0355
99653W        W42565  16.820   4.870   3.491  0.0769 -0.0717  0.0853
99654W        W42566  18.208   4.808   7.079 -0.0564 -0.1824  0.1088
99655W        W42567  14.264   6.845   4.726 -0.0035  0.0607  0.3954
99656W        W42568  18.525   2.728   5.917 -0.2682 -0.1681  0.3155
99657W        W42569  14.778   7.663   5.876  0.0040 -0.0212 -0.1537
99658W        W42570  14.579   6.163   6.401 -0.1654 -0.0973  0.4303
99659W        W42571  15.166   6.260   5.846  0.1058 -0.2666 -0.0549
99660W        W42572  16.552   4.145   5.538 -0.0026 -0.1327 -0.0367
99661W        W42573  17.521   5.336   7.038 -0.0248  0.1764  0.0538
99662W        W42574  16.262   6.793   5.996 -0.0862  0.0740  0.1476
99663W        W42575  18.214   6.298   5.068  0.2046 -0.0485 -0.1598
99664W        W42576  16.273   5.488   4.617 -0.1623 -0.1252 -0.0093
99665W        W42577  14.835   5.307   5.814 -0.1777  0.1867  0.0342
99666W        W42578  17.497   6.098   6.633  0.0213 -0.3206  0.2442
99667W        W42579  18.016   5.829   4.836  0.1535 -0.1962  0.0699
99668W        W42580  15.909   5.953   6.022  0.1412  0.0616 -0.0756
99669W        W42581  14.469   3.028   6.294 -0.1407  0.3667  0.0709
99670W        W42582  16.202   5.448   6.366 -0.0674  0.2071 -0.0204
99671W        W42583  16.365   5.670   5.835  0.2611 -0.1707 -0.1436
99672W        W42584  14.342   2.980   5.133 -0.3983  0.0616 -0.0509
99673W        W42585  16.074   5.001   3.080 -0.1719 -0.3712 -0.0072
99674W        W42586  13.559   6.341   7.029 -0.2305 -0.0830 -0.1701
99675W        W42587  15.063   6.511   6.294  0.1630 -0.2359  0.1038
99676W        W42588  14.571   6.491   5.086  0.2964  0.0992  0.2114
99677W        W42589  16.158   6.318   3.706  0.2341 -0.0258  0.1054
99678W        W42590  17.177   5.721   6.010 -0.2803  0.1910 -0.1346
99679W        W42591  17.701   7.970   7.105 -0.0050  0.3098 -0.0426
99680W        W42592  15.783   5.107   4.374 -0.2659  0.2526 -0.0268
99681W        W42593  15.117   6.411   7.366 -0.0027 -0.1246  0.3308
99682W        W42594  14.824   7.736   4.452  0.0917 -0.3595 -0.0795
99683W        W42595  18.831   6.267   3.971 -0.0185  0.2857 -0.2155
99684W        W42596  13.536   6.581   4.235 -0.2555  0.2078 -0.3137
99685W        W42597  17.867   6.552   6.740 -0.2634 -0.1467 -0.0514
99686W        W42598  18.047   5.058   5.079 -0.0799 -0.3135  0.0339
99687W        W42599  18.199   6.380   5.941  0.0517  0.1463 -0.2909
99688W        W42600  19.180   3.633   3.680  0.0179 -0.1397 -0.0144
99689W        W42601  15.158   7.518   6.562 -0.0911 -0.2107 -0.1053
99690W        W42602  16.460   5.487   5.196  0.4902 -0.2148  0.0460
99691W        W42603  15.376   3.771   5.122 -0.2109  0.1899  0.0129
99692W        W42604  14.798   4.927   6.983  0.2698  0.3127  0.2120
99693W        W42605  18.060   3.385   8.062 -0.1874 -0.0272  0.1449
99694W        W42606  13.363   7.505   6.582  0.0507 -0.2470  0.0249
99695W        W42607  17.427   6.909   3.077 -0.1648 -0.2400  0.0240
99696W        W42608  13.847   2.908   4.333 -0.0392 -0.1760 -0.2327
99697W        W42609  15.087   5.852   4.532 -0.1105 -0.1655  0.1150
99698W        W42610  19.027   3.672   6.011 -0.0384  0.1084 -0.1538
99699W        W42611  15.887   6.695   3.541 -0.2561 -0.2691 -0.0461
99700W        W42612  17.914   4.549   4.672  0.1165  0.0698 -0.2503
99701W        W42613  15.514   7.536   3.831  0.0848 -0.0850 -0.1575
99702W        W42614  13.899   6.397   4.525  0.1098 -0.2431  0.2935
99703W        W42615  15.783   7.450   4.413  0.1178  0.0626 -0.1529
99704W        W42616  15.043   4.207   4.105 -0.0305  0.0337 -0.0306
99705W        W42617  18.743   4.677   5.680  0.3026  0.3371  0.2376
99706W        W42618  15.216   5.749   6.720 -0.1272 -0.1362 -0.1710
99707W        W42619  17.976   3.779   6.505 -0.0732  0.0086  0.2079
99708W        W42620  15.576   4.411   6.638 -0.2343 -0.0675  0.1800
99709W        W42621  18.359   3.893   6.189 -0.0990  0.2407 -0.2290
99710W        W42622  16.209   6.377   4.787  0.0368 -0.0821 -0.3668
99711W        W42623  14.332   3.575   6.015  0.0129  0.4250  0.0671
99712W        W42624  16.424   5.882   3.873  0.3070 -0.0904 -0.1637
99713W        W42625  15.920   5.965   5.468  0.1667 -0.4787 -0.1059
99714W        W42626  15.631   6.195   3.660 -0.1059 -0.0253  0.2377
99715W        W42627  17.423   8.134   6.011 -0.0195 -0.1247 -0.1223
99716W        W42628  15.945   4.376   5.688 -0.1262 -0.1845  0.1524
99717W        W42629  17.528   4.650   4.950  0.0740  0.2965  0.1334
99718W        W42630  16.414   4.655   5.599  0.1982  0.2510  0.3509
99719W        W42631  15.054   4.892   6.031 -0.2471  0.0958 -0.0220
99720W        W42632  16.828   6.727   7.025 -0.1436  0.0950 -0.0325
99721W        W42633  14.858   3.157   5.922  0.2997 -0.1719  0.4548
99722W        W42634  17.562   6.611   3.578  0.3923  0.2241 -0.1590
99723W        W42635  18.528   5.162   5.745  0.2455  0.0611 -0.2856
99724W        W42636  15.098   8.083   2.776 -0.1096 -0.1853  0.2271
99725W        W42637  18.012   5.154   5.577 -0.0092 -0.0625  0.1018
99726W        W42638  16.905   6.437   6.065  0.1460  0.0713  0.2930
99727W        W42639  15.044   4.518   4.620  0.0557 -0.0020 -0.1257
99728W        W42640  17.086   6.190   5.331  0.3856 -0.0757 -0.0290
99729W        W42641  18.008   6.775   6.331 -0.1130 -0.0563  0.0892
99730W        W42642  16.582   4.784   4.716  0.0104 -0.0001 -0.2853
99731W        W42643  14.825   5.775   5.394  0.2614 -0.0708 -0.3771
99732W        W42644  13.816   6.911   4.489 -0.0879 -0.1310  0.2441
99733W        W42645  16.797   3.739   6.398 -0.0311  0.0252  0.0570
99734W        W42646  18.145   3.667   7.537 -0.1135  0.0273 -0.3656
99735W        W42647  17.148   7.965   3.042  0.3439  0.2272 -0.0737
99736W        W42648  16.569   2.363   6.940 -0.0143 -0.0878 -0.0342
99737W        W42649  14.853   6.361   5.466 -0.1984  0.0700 -0.0921
99738W        W42650  16.118   7.158   7.495 -0.1815  0.0857 -0.1070
99739W        W42651  14.768   5.267   4.552  0.2368  0.1127 -0.0636
99740W        W42652  16.653   6.132   6.669 -0.3283 -0.2607  0.1445
99741W        W42653  16.695   6.412   4.577  0.0693 -0.2236  0.1826
99742W        W42654  16.498   7.225   5.338 -0.3153  0.1073 -0.1024
99743W        W42655  18.566   6.646   5.237 -0.4680  0.0276 -0.2041
99744W        W42656  18.514   4.274   5.309 -0.0250 -0.3333 -0.0653
99745W        W42657  17.836   7.591   6.575  0.0266 -0.4091  0.3351
99746W        W42658  15.037   3.487   4.803  0.0655 -0.1090 -0.0788
99747W        W42659  19.884   5.757   4.017 -0.2207  0.1980 -0.1870
99748W        W42660  15.467   3.594   4.575 -0.0376  0.0236  0.0864
99749W        W42661  14.913   5.382   6.723  0.1373 -0.0902  0.1926
99750W        W42662  13.538   4.381   4.018  0.0740 -0.0771 -0.2766
99751W        W42663  15.053   5.531   3.638  0.1097  0.1611 -0.1588
99752W        W42664  14.687   6.851   5.456 -0.1411  0.1070 -0.2985
99753W        W42665  16.797   3.220   6.426 -0.0551 -0.0538 -0.1460
99754W        W42666  14.292   4.837   7.790  0.1887  0.0433  0.1514
99755W        W42667  15.494   4.574   5.415  0.2459 -0.0600 -0.3113
99756W        W42668  15.047   3.243   4.114 -0.0086  0.0818 -0.0875
99757W        W42669  18.155   6.980   4.557 -0.3264  0.1154  0.1026
99758W        W42670  14.333   3.851   4.910 -0.1091 -0.3039  0.0456
99759W        W42671  15.739   3.670   5.546 -0.1101 -0.3956  0.1367
99760W        W42672  18.294   4.711   4.426 -0.3154 -0.0062 -0.0907
99761W        W42673  16.171   6.318   5.738  0.0923 -0.0564 -0.1823
99762W        W42674  15.717   3.016   4.789 -0.0932 -0.0622  0.1337
99763W        W42675  16.412   6.578   6.431  0.1236  0.1251  0.2504
99764W        W42676  14.928   5.561   4.948  0.0922 -0.1944 -0.2448
99765W        W42677  15.770   4.982   7.004 -0.0381  0.0285  0.0321
99766W        W42678  16.292   3.986   6.434 -0.0223 -0.2169 -0.1995
99767W        W42679  14.458   2.965   3.120 -0.2218  0.1435  0.1145
99768W        W42680  16.940   4.215   5.190 -0.1046  0.0584  0.3326
99769W        W42681  18.601   5.986   5.091 -0.0689 -0.2440  0.0540
99770W        W42682  18.319   6.396   4.134  0.1041  0.0202  0.0889
99771W        W42683  15.137   6.000   6.315  0.0276 -0.1048  0.1661
99772W        W42684  14.656   6.905   6.376  0.0876  0.0165  0.5762
99773W        W42685  14.676   4.040   5.913 -0.3944 -0.3855 -0.3765
99774W        W42686  17.013   5.876   4.340 -0.0006 -0.1764  0.1940
99775W        W42687  14.981   6.734   7.057  0.0665  0.0892 -0.0926
99776W        W42688  17.368   5.353   4.302 -0.4603  0.2073 -0.2579
99777W        W42689  18.807   3.407   6.357  0.1884  0.4345  0.3052
99778W        W42690  16.951   5.129   4.365  0.2067  0.3222 -0.0224
99779W        W42691  14.990   3.479   6.871 -0.0539 -0.4549  0.1342
99780W        W42692  14.557   4.977   7.423 -0.2088 -0.0433 -0.0029
99781W        W42693  18.683   6.077   6.381  0.2000 -0.1490  0.0264
99782W        W42694  15.877   3.642   4.929 -0.2836 -0.1026  0.0751
99783W        W42695  18.518   3.857   4.221 -0.2217  0.1551 -0.3818
99784W        W42696  16.337   6.012   4.435 -0.2678 -0.0734 -0.0083
99785W        W42697  14.680   4.600   5.830  0.0363  0.0015  0.0522
99786W        W42698  16.542   4.476   5.136  0.3705  0.0129 -0.2085
99787W        W42699  16.995   5.264   6.347 -0.1802 -0.2365 -0.2471
99788W        W42700  15.582   6.838   5.359 -0.0127 -0.0502 -0.0043
99789W        W42701  16.163   5.808   7.222 -0.1238  0.1411 -0.1884
99790W        W42702  15.484   5.481   4.481  0.0597 -0.1523 -0.1092
99791W        W42703  18.591   5.079   4.554  0.1300  0.0974  0.0232
99792W        W42704  15.603   7.292   6.255  0.1870  0.0073  0.0418
99793W        W42705  19.151   6.242   7.940  0.2522 -0.0075 -0.0107
99794W        W42706  16.510   5.609   6.804  0.1433 -0.2327 -0.2397
99795W        W42707  18.304   5.909   6.063 -0.0825  0.2624  0.1606
99796W        W42708  14.349   3.974   6.628 -0.1117 -0.3656  0.0281
99797W        W42709  15.519   4.828   4.026 -0.2017  0.1248  0.0851
99798W        W42710  15.690   6.539   4.002 -0.0050 -0.0746 -0.1435
99799W        W42711  17.423   4.447   5.389  0.0341 -0.3123 -0.0988
99800W        W42712  16.481   4.962   5.189 -0.2723 -0.1271 -0.0735
99801W        W42713  18.113   4.174   5.668 -0.1158 -0.3377 -0.2419
99802W        W42714  16.168   8.802   7.493  0.0645  0.2334 -0.4891
99803W        W42715  17.364   6.774   6.790  0.2555 -0.1083 -0.2716
99804W        W42716  13.983   4.074   8.981 -0.3199 -0.0182  0.0449
99805W        W42717  14.862   3.925   8.339  0.0892  0.1508  0.0352
99806W        W42718  16.692   3.803   6.869 -0.3462  0.2452  0.4338
99807W        W42719  15.941   6.236   7.075  0.0650 -0.0477  0.0428
99808W        W42720  14.720   3.188   7.243 -0.1390 -0.1401 -0.1490
99809W        W42721  15.294   7.577   7.481 -0.2334 -0.1675  0.1376
99810W        W42722  16.605   7.028   8.419  0.0503  0.0181  0.0282
99811W        W42723  16.661   6.394   8.633  0.1749 -0.1305 -0.0061
99812W        W42724  16.401   6.450   6.981 -0.0347 -0.2071 -0.2042
99813W        W42725  16.263   4.057   8.581  0.2906 -0.0468 -0.0641
99814W        W42726  15.840   4.178   8.458  0.1428 -0.1066  0.5301
99815W        W42727  13.648   1.343   8.326 -0.1002  0.1275 -0.1033
99816W        W42728  17.143   2.711  10.207  0.0490 -0.0584  0.1312
99817W        W42729  16.103   4.971   8.482 -0.0036  0.1036 -0.3933
99818W        W42730  15.336   5.386   9.052 -0.0378  0.2244  0.0260
99819W        W42731  16.347   4.588   8.879  0.0251 -0.1614 -0.0755
99820W        W42732  15.523   6.927   9.104  0.2125  0.2636  0.0787
99821W        W42733  15.129   3.249   9.987  0.3202  0.2963  0.0314
99822W        W42734  17.238   5.648   7.599  0.0341 -0.2428 -0.0631
99823W        W42735  13.742   4.468   7.312 -0.2542 -0.0950  0.0085
99824W        W42736  14.155   5.331   7.405 -0.0700  0.2665 -0.0544
99825W        W42737  15.189   3.327   8.788 -0.1031 -0.1377 -0.3427
99826W        W42738  14.726   2.977   9.831 -0.4389  0.1007 -0.0625
99827W        W42739  17.330   4.943   9.292  0.0304  0.2618 -0.0860
99828W        W42740  14.998   7.935   9.022 -0.0396  0.2712  0.0473
99829W        W42741  16.297   6.218   8.206 -0.1161  0.2497  0.0775
99830W        W42742  15.597   5.796   9.529 -0.0673 -0.3123  0.2041
99831W        W42743  15.365   7.380   8.942  0.1619 -0.1048 -0.0401
99832W        W42744  15.223   5.869   7.604  0.0131 -0.1153 -0.0155
99833W        W42745  17.393   6.245   7.969  0.0313  0.0312 -0.0991
99834W        W42746  13.999   5.559   7.015 -0.0635  0.0920 -0.0636
99835W        W42747  16.909   5.439   8.980  0.2179 -0.0870  0.0716
99836W        W42748  16.911   4.924   7.951 -0.1177  0.2021  0.4606
99837W        W42749  16.216   6.476   7.489  0.0428 -0.1292 -0.2048
99838W        W42750  15.935   5.686   7.938  0.1301  0.1905 -0.3824
99839W        W42751  13.725   5.793   9.418 -0.0535 -0.0707  0.0221
99840W        W42752  14.645   7.048   6.878 -0.0896  0.1871  0.0881
99841W        W42753  18.037   5.972   6.478  0.3055  0.1648  0.0274
99842W        W42754  16.088   4.398   7.579  0.0529 -0.1782  0.0741
99843W        W42755  17.531   4.853   7.357  0.2110 -0.0761 -0.2828
99844W        W42756  15.784   2.622   7.901  0.1058 -0.0787 -0.0965
99845W        W42757  15.664   7.324   7.774  0.0356  0.0783  0.0178
99846W        W42758  15.208   3.773   9.036  0.2353  0.1195  0.0490
99847W        W42759  16.343   4.027   7.371 -0.2218 -0.3282 -0.3233
99848W        W42760  17.129   4.436   8.053 -0.3573  0.3492 -0.0922
99849W        W42761  15.258   6.263   9.492  0.0561  0.6034  0.0845
99850W        W42762  15.836   4.648   7.950 -0.1253 -0.0639  0.0610
99851W        W42763  17.038   6.221   8.294  0.1461 -0.0200 -0.3306
99852W        W42764  17.017   6.741   8.364  0.2841  0.1325  0.0056
99853W        W42765  16.591   7.259   7.893  0.0806  0.2236 -0.3203
99854W        W42766  14.600   3.672   8.000  0.0733 -0.0843 -0.0549
99855W        W42767  15.711   3.644   8.188 -0.1986  0.2796 -0.2948
99856W        W42768  18.108   4.719   8.049 -0.0941 -0.1428  0.1351
99857W        W42769  17.474   5.113   8.811 -0.0399  0.0226  0.1070
99858W        W42770  18.076   4.318   9.153  0.0249  0.2035  0.5027
99859W        W42771  17.805   7.218   7.513  0.0157  0.0856 -0.2184
99860W        W42772  17.523   3.616   9.185  0.0019  0.1730 -0.0665
99861W        W42773  17.107   4.835   8.357  0.1149  0.1745 -0.1210
99862W        W42774  14.751   5.499   7.215 -0.1752  0.0301 -0.2260
99863W        W42775  15.343   6.474   7.938 -0.3098 -0.1735 -0.2010
99864W        W42776  17.361   6.767   9.209 -0.2077  0.2464 -0.0524
99865W        W42777  17.649   5.604   6.418  0.2491  0.2204  0.0518
99866W        W42778  15.865   5.725   8.841  0.1348 -0.2066 -0.1198
99867W        W42779  14.052   6.537   5.418  0.5009 -0.1575 -0.2814
99868W        W42780  13.727   4.778   9.347 -0.1510  0.2293 -0.3465
99869W        W42781  13.872   6.762   5.841  0.4074  0.0753  0.2972
99870W        W42782  14.324   5.376   8.926 -0.1477  0.0002 -0.2246
99871W        W42783  15.897   5.962   8.385  0.0139 -0.2424  0.0731
99872W        W42784  19.685   3.372   7.576  0.2703  0.2992 -0.0935
99873W        W42785  18.391   4.135   8.578  0.4714  0.0332  0.1790
99874W        W42786  15.727   5.885   7.512 -0.0738  0.1256 -0.1367
99875W        W42787  16.917   6.021   7.831 -0.2635  0.2178 -0.5082
99876W        W42788  17.544   4.646   6.438  0.2638 -0.2098  0.0019
99877W        W42789  17.189   5.639   6.643  0.0215  0.1341  0.0476
99878W        W42790  14.620   2.956   8.617 -0.1976 -0.0528 -0.1631
99879W        W42791  14.781   3.837   9.908 -0.1757 -0.0178  0.2013
99880W        W42792  15.954   3.626   8.621  0.0170 -0.0023  0.1467
99881W        W42793  15.752   4.030   8.944 -0.2261  0.0423 -0.2139
99882W        W42794  16.632   4.021   8.224 -0.0295  0.2345  0.0143
99883W        W42795  16.169   3.702   6.875  0.0375 -0.4615  0.1388
99884W        W42796  14.792   7.040   7.428  0.1816 -0.0694  0.0608
99885W        W42797  15.912   6.215   7.893  0.0569 -0.2729 -0.0816
99886W        W42798  17.733   5.054   9.663 -0.0137 -0.0628  0.0523
99887W        W42799  17.068   7.123   8.055  0.2424 -0.2731  0.1066
99888W        W42800  16.596   5.565   9.846 -0.3549 -0.0461 -0.0818
99889W        W42801  16.140   3.979   8.063  0.0176 -0.0947  0.1184
99890W        W42802  15.019   6.519   8.332  0.0915  0.0717 -0.0324
99891W        W42803  16.669   6.887   9.772  0.0389 -0.0182 -0.1357
99892W        W42804  15.590   4.937   9.052 -0.0592  0.0780 -0.2636
99893W        W42805  18.491   8.412   9.239  0.0272  0.0416  0.0485
99894W        W42806  14.878   6.036   8.684 -0.2438 -0.0524 -0.0165
99895W        W42807  16.772   4.414   8.456  0.1280 -0.0555 -0.1522
99896W        W42808  18.229   5.211   8.209 -0.0708 -0.0885  0.0101
99897W        W42809  15.509   2.938   7.597 -0.3473  0.0149  0.3408
99898W        W42810  18.203   7.075   7.200 -0.1492  0.1490  0.3033
99899W        W42811  13.969   6.573   7.189  0.1605 -0.0956  0.1179
99900W        W42812  14.439   4.629   6.905 -0.0032 -0.2169 -0.2499
99901W        W42813  15.168   7.208   7.111 -0.2908  0.0620  0.0377
99902W        W42814  17.176   3.204   7.736  0.2278  0.0340 -0.1185
99903W        W42815  15.301   4.249   8.745  0.0181 -0.2167 -0.0304
99904W        W42816  17.470   2.881   7.984 -0.0675  0.0810  0.0789
99905W        W42817  17.755   3.285   8.426 -0.0440 -0.1730 -0.0575
99906W        W42818  18.427   5.598   6.482 -0.0643 -0.2359  0.1068
99907W        W42819  17.416   5.089   6.654 -0.1401  0.3929  0.1767
99908W        W42820  16.059   3.623   6.226  0.0303  0.0948 -0.0677
99909W        W42821  16.501   5.732   8.044  0.0050  0.1082  0.2524
99910W        W42822  16.637   4.903   8.561  0.0519 -0.0982  0.3404
99911W        W42823  15.612   3.494   7.670  0.1927  0.0879 -0.0464
99912W        W42824  18.202   6.260   7.582  0.0062  0.0495 -0.1654
99913W        W42825  12.870   3.965   9.944  0.1732  0.3001 -0.1337
99914W        W42826  17.184   7.218   7.147  0.0147  0.1016 -0.0375
99915W        W42827  15.040   4.979   9.252  0.2214  0.2033 -0.0307
99916W        W42828  15.453   4.535   8.251 -0.0526 -0.1005  0.1345
99917W        W42829  17.479   4.095   8.119 -0.0852 -0.1253  0.2132
99918W        W42830  15.325   7.899   5.728 -0.1295  0.3328 -0.0244
99919W        W42831  15.591   4.002   9.506 -0.3412  0.2237  0.4105
99920W        W42832  14.834   5.238   8.832 -0.2584  0.2236  0.2374
99921W        W42833  17.980   5.234   7.097 -0.0331 -0.0575  0.1437
99922W        W42834  17.453   5.713   8.111  0.1092  0.3241  0.0054
99923W        W42835  15.217   3.442   7.313  0.0962 -0.1894  0.0464
99924W        W42836  13.372   2.635   9.949  0.1286  0.1537  0.2130
99925W        W42837  16.097   7.558   9.537  0.0302 -0.0469  0.0902
99926W        W42838  16.699   5.708   6.289  0.0839 -0.1971 -0.2470
99927W        W42839  15.660   4.594   8.732  0.3991  0.3179 -0.0359
99928W        W42840  16.157   7.384   7.059 -0.1420 -0.0592 -0.1241
99929W        W42841  15.902   5.121   7.959 -0.1531 -0.3391 -0.1654
99930W        W42842  15.316   4.436   9.203  0.1135 -0.2963  0.0600
99931W        W42843  16.434   5.227   8.106  0.0079  0.2104  0.0052
99932W        W42844  14.317   7.043   6.001 -0.1252 -0.1343 -0.1421
99933W        W42845  17.324   5.705   9.662 -0.4469  0.3918  0.1412
99934W        W42846  14.747   5.780   7.683 -0.2004 -0.0301 -0.1094
99935W        W42847  16.670   3.865   9.334  0.3711 -0.0640  0.1214
99936W        W42848  14.195   6.565   8.629  0.4288 -0.2053 -0.2507
99937W        W42849  15.097   4.380   7.936 -0.2644 -0.0317 -0.2968
99938W        W42850  15.511   4.921   7.483 -0.0900 -0.0390  0.2072
99939W        W42851  17.090   6.135   9.748 -0.1175 -0.1144  0.1857
99940W        W42852  18.006   5.674   7.341  0.2468 -0.1354  0.1516
99941W        W42853  13.827   4.379   8.475 -0.1783  0.2752 -0.1510
99942W        W42854  15.927   6.060   9.245 -0.0171 -0.1158 -0.0752
99943W        W42855  16.734   5.835   9.407 -0.1641  0.1908  0.2823
99944W        W42856  16.849   4.160   7.497  0.1364  0.0389  0.0609
99945W        W42857  15.256   3.911   6.444 -0.0270 -0.1291 -0.4862
99946W        W42858  18.538   4.366   9.025 -0.1733 -0.2367 -0.1078
99947W        W42859  15.802   5.380   9.227  0.2202 -0.0096 -0.3962
99948W        W42860  15.466   5.887   8.044  0.0847 -0.3502 -0.1249
99949W        W42861  18.996   7.800   9.702 -0.0404  0.1432 -0.0653
99950W        W42862  15.861   5.359   7.327 -0.0270 -0.2337 -0.0069
99951W        W42863  15.303   6.913   7.554  0.0717 -0.0015 -0.1815
99952W        W42864  16.707   6.442   8.020  0.0811  0.0305 -0.2636
99953W        W42865  16.924   4.819   9.545  0.1031 -0.2200 -0.0673
99954W        W42866  14.698   3.508   8.511  0.0298  0.0311 -0.0390
99955W        W42867  16.240   4.124   9.053  0.1684 -0.1448  0.2570
99956W        W42868  17.748   5.664   8.865  0.1920 -0.4045  0.3096
99957W        W42869  16.830   5.931   8.832 -0.0195 -0.0543 -0.1213
99958W        W42870  17.378   3.228  10.224 -0.0787  0.0302 -0.1580
99959W        W42871  17.757   6.790   7.230 -0.0129 -0.0405 -0.2192
99960W        W42872  15.520   5.448   8.232 -0.2346  0.3536 -0.1403
99961W        W42873  14.362   4.059   8.528  0.0461  0.1882  0.1378
99962W        W42874  16.341   5.911   8.585  0.1701 -0.1008  0.1863
99963W        W42875  16.490   5.042   9.656  0.0526  0.2589 -0.2210
99964W        W42876  15.458   6.912   8.126 -0.2079 -0.0130 -0.4237
99965W        W42877  15.688   6.135   6.555  0.2879  0.2199  0.1693
99966W        W42878  14.560   4.857   9.623 -0.1991 -0.0245 -0.0143
99967W        W42879  16.252   3.166   6.935  0.0300 -0.3736 -0.3728
99968W        W42880  17.636   5.366   7.539 -0.2085  0.0772 -0.0780
99969W        W42881  16.827   2.042   9.967 -0.3121  0.0136 -0.1634
99970W        W42882  17.391   4.350   7.068 -0.1846  0.2277  0.2369
99971W        W42883  15.778   3.454   9.017  0.0356 -0.2033 -0.0233
99972W        W42884  17.552   6.361   7.062  0.1728  0.0282  0.2173
99973W        W42885  17.022   3.971   7.912 -0.1259 -0.0088 -0.1605
99974W        W42886  15.086   4.951   8.348 -0.1378 -0.1259  0.0310
99975W        W42887  15.058   5.462   8.302  0.1373  0.1092 -0.0524
99976W        W42888  17.871   6.460   8.013 -0.0400  0.1976 -0.0432
99977W        W42889  16.009   6.563   6.687 -0.0345  0.0949 -0.0669
99978W        W42890  16.376   4.620   9.388  0.1857 -0.0012  0.0274
99979W        W42891  17.090   5.306   9.495  0.3153  0.0201 -0.1324
99980W        W42892  17.670   6.343   7.578 -0.1368  0.0964 -0.1241
99981W        W42893  17.182   4.787   6.988 -0.0235  0.1118 -0.5186
99982W        W42894  15.591   5.032   8.494 -0.1523 -0.1373 -0.2497
99983W        W42895  17.539   6.615   8.333 -0.0207 -0.0748 -0.0527
99984W        W42896  17.034   3.571   8.468 -0.0058 -0.1280  0.0861
99985W        W42897  17.391   6.990   8.634 -0.3932 -0.1731 -0.0356
99986W        W42898  17.926   4.386   7.285 -0.0457  0.2352  0.0860
99987W        W42899  18.814   0.440  10.411  0.0952 -0.0348 -0.0110
99988W        W42900  17.540   4.985   7.868 -0.1563 -0.0846  0.0472
99989W        W42901  16.928   5.189   6.847  0.1353  0.0313 -0.3691
99990W        W42902  13.513   5.116   8.339  0.4931 -0.0133  0.2337
99991W        W42903  15.778   3.392   7.085  0.2223  0.3131 -0.0575
99992W        W42904  16.953   7.076   6.696  0.4003 -0.2673  0.1373
99993W        W42905  16.734   5.525   8.475 -0.0684  0.0745  0.0789
99994W        W42906  18.124   3.789   7.047  0.0558  0.1211 -0.1825
99995W        W42907  14.163   3.334   7.765 -0.1163  0.0264 -0.1283
99996W        W42908  14.370   6.104   5.444  0.1736  0.2775  0.1311
99997W        W42909  15.371   4.042   8.252  0.0593 -0.1029  0.2238
99998W        W42910  17.109   6.679   9.641 -0.0439 -0.0248 -0.0289
99999W        W42911  15.407   2.747   8.440 -0.1534 -0.2125 -0.0268
    0W        W42912  14.585   6.249   7.425 -0.1216 -0.0169 -0.1462
    1W        W42913  17.446   3.836   8.691  0.0105  0.1118 -0.3463
    2W        W42914  14.319   5.586   9.775  0.0723  0.1315  0.2656
    3W        W42915  14.029   6.069   8.646  0.0782 -0.0935  0.1040
    4W        W42916  16.876   3.941   9.902 -0.1046 -0.1544 -0.3214
    5W        W42917  17.274   4.474   9.173  0.0449  0.1313 -0.1977
    6W        W42918  16.854   6.907   7.612 -0.0880 -0.0243  0.1661
    7W        W42919  14.889   4.482   7.120  0.0257 -0.2332  0.2092
    8W        W42920  18.274   5.467   8.737  0.0717 -0.1569  0.0555
    9W        W42921  15.590   6.582   9.523 -0.2695  0.2444 -0.0321
   10W        W42922  16.701   6.443   7.479 -0.0388  0.2653  0.0219
   11W        W42923  16.040   4.953   9.142 -0.1081 -0.1281  0.0107
   12W        W42924  17.356   6.205   5.912  0.0338 -0.3054 -0.1032
   13W        W42925  14.567   5.451   9.367 -0.2752  0.0034  0.2726
   14W        W42926  15.964   6.781   7.167 -0.1389  0.0717 -0.0554
   15W        W42927  17.318   7.638   6.894  0.0891 -0.2290  0.1174
   16W        W42928  16.329   6.060   7.730  0.1304 -0.0010 -0.0528
   17W        W42929  16.908   6.999   9.294  0.0694 -0.0322  0.0978
   18W        W42930  15.835   3.989   7.152  0.1867  0.1550  0.1671
   19W        W42931  15.350   6.233   8.558 -0.2443 -0.1658 -0.0237
   20W        W42932  13.776   6.616   6.730  0.0728  0.3611 -0.0691
   21W        W42933  17.152   6.643   7.897 -0.0245 -0.0578  0.0062
   22W        W42934  14.671   5.956   9.788 -0.1220  0.3669  0.0564
   23W        W42935  17.233   3.500   6.627 -0.1374 -0.5344  0.2522
   24W        W42936  17.623   4.738   8.297 -0.2685 -0.0957 -0.1338
   25W        W42937  18.597   4.184   6.483 -0.2174 -0.1859  0.3584
   26W        W42938  16.544   4.495   7.257  0.1225  0.1158 -0.1250
   27W        W42939  15.541   3.582   6.211 -0.2058  0.1083 -0.0645
   28W        W42940  16.363   6.256   9.122  0.2031  0.0837 -0.0379
   29W        W42941  15.366   5.054   7.961  0.2433  0.0596 -0.0069
   30W        W42942  16.532   6.349   9.605  0.2868 -0.1703 -0.0379
   31W        W42943  18.105   4.141   9.875 -0.0813 -0.0551  0.1092
   32W        W42944  16.183   6.063   6.651 -0.1373  0.2574 -0.0917
   33W        W42945  16.747   5.603   7.601  0.0498 -0.2453 -0.0375
   34W        W42946  15.241   7.758   7.050 -0.0659  0.2137  0.3793
   35W        W42947  15.733   6.473   8.332 -0.1770 -0.0277  0.0572
   36W        W42948  16.983   5.405   8.055  0.0910 -0.1211 -0.2355
   37W        W42949  14.446   4.609   8.734 -0.0305  0.3310 -0.1666
   38W        W42950  17.634   4.487   7.830 -0.2822 -0.1546  0.1600
   39W        W42951  15.011   7.017   9.007 -0.4468 -0.1391 -0.2397
   40W        W42952  17.171   5.309   8.508  0.3816  0.1586 -0.0400
   41W        W42953  17.692   4.816   6.928 -0.4308 -0.1664 -0.0194
   42W        W42954  15.022   5.570   9.463 -0.0808 -0.3001 -0.1275
   43W        W42955  15.015   4.821   7.444  0.1251  0.2074  0.0547
   44W        W42956  17.065   4.588   7.488 -0.1825  0.2213 -0.0616
   45W        W42957  16.415   4.766   7.912 -0.0788  0.0758  0.2092
   46W        W42958  15.399   3.912   7.528 -0.1096 -0.1619 -0.0687
   47W        W42959  16.735   4.300   6.802 -0.2981  0.0119  0.0512
   48W        W42960  13.572   4.724   8.717 -0.1326 -0.2536  0.2277
   49W        W42961  17.369   4.196   7.551  0.3826 -0.4806  0.2272
   50W        W42962  14.994   3.071   8.299 -0.1188  0.2311  0.2071
   51W        W42963  16.698   6.038   7.218  0.1977  0.0586  0.0312
   52W        W42964  16.774   4.436   9.026 -0.0898  0.0404 -0.1335
   53W        W42965  14.369   7.268   8.091 -0.1448 -0.0836  0.2668
   54W        W42966  17.705   5.861   7.716  0.0204  0.2792  0.0551
   55W        W42967  16.432   6.754   9.306  0.0943 -0.2026 -0.1321
   56W        W42968  14.826   5.694   9.026  0.0505  0.0266  0.2320
   57W        W42969  16.119   6.656   9.778 -0.0618  0.0995 -0.1885
   58W        W42970  17.316   5.788   8.593 -0.1767 -0.0568 -0.3645
   59W        W42971  17.120   3.984   9.097  0.1242  0.2817 -0.1006
   60W        W42972  14.431   4.281   9.095  0.2616 -0.0699  0.1245
   61W        W42973  15.149   6.868   9.571  0.0453  0.0538  0.0373
   62W        W42974  16.296   5.362   9.267  0.0021  0.1049 -0.0929
   63W        W42975  15.443   6.660   6.976  0.1019 -0.0867 -0.0421
   64W        W42976  18.119   4.520   8.695 -0.1792 -0.1934 -0.1269
   65W        W42977  16.102   4.881   7.468 -0.0309  0.1687 -0.1727
   66W        W42978  16.012   7.127   9.209  0.3057  0.0957 -0.0914
   67W        W42979  15.620   6.453   7.446 -0.1064 -0.0531  0.0653
   68W        W42980  17.288   7.252   9.139 -0.3298 -0.0936 -0.1544
   69W        W42981  16.609   5.024   7.522  0.1846 -0.0612 -0.0626
   70W        W42982  16.369   6.797   7.864 -0.0978  0.0614 -0.0131
   71W        W42983  16.295   4.449   8.315 -0.1897 -0.2294  0.2478
   72W        W42984  17.940   4.266   8.270  0.1830 -0.0415 -0.0869
   73W        W42985  17.300   4.177   6.595 -0.4872 -0.0820 -0.1205
   74W        W42986  15.051   4.848   9.854 -0.2939 -0.4128 -0.1237
   75W        W42987  14.852   4.166   7.538  0.1236 -0.0468  0.2829
   76W        W42988  14.281   4.923   5.978  0.0332  0.1543 -0.0191
   77W        W42989  14.028   5.545   8.400  0.0431  0.1428 -0.1515
   78W        W42990  14.972   5.321   7.698 -0.0845 -0.1558  0.0437
   79W        W42991  15.199   3.568   8.259 -0.1128 -0.2400 -0.2670
   80W        W42992  18.163   4.743   6.552  0.3554 -0.2068 -0.2461
   81W        W42993  14.959   4.686   8.822  0.1719  0.0429 -0.0913
   82W        W42994  14.830   6.057   9.315 -0.2193 -0.0277 -0.2294
   83W        W42995  17.068   5.658   7.161 -0.4057 -0.2746 -0.3503
   84W        W42996  18.107   6.500   8.451  0.0281  0.2880  0.3226
   85W        W42997  16.765   2.791   7.964 -0.2041 -0.1101 -0.1128
   86W        W42998  14.096   6.366   7.654 -0.0963  0.0824 -0.1753
   87W        W42999  14.066   4.154   7.112  0.2065 -0.2254  0.3079
   88W        W43000  15.982   5.414   8.464 -0.1066 -0.1022  0.3350
   89W        W43001  16.117   7.186   8.659  0.0406  0.2575  0.0353
   90W        W43002  15.684   7.132   6.772  0.0279 -0.0873 -0.3004
   91W        W43003  14.776   2.992   9.134 -0.2865 -0.0843  0.1060
   92W        W43004  17.744   3.927   7.368 -0.1299  0.1652 -0.2397
   93W        W43005  18.465   5.827   7.482  0.0674 -0.1437  0.1263
   94W        W43006  17.080   4.836   8.914 -0.1994 -0.0667  0.1132
   95W        W43007  17.172   6.162   7.387 -0.0856  0.0945 -0.1555
   96W        W43008  18.587   5.154   9.591  0.0232 -0.0544 -0.2954
   97W        W43009  16.225   3.464   8.028 -0.2545 -0.0470 -0.2700
   98W        W43010  16.476   4.237   7.813  0.2142 -0.0731  0.0672
   99W        W43011  16.256   5.425   7.608 -0.0785  0.0031 -0.2001
  100W        W43012  14.270   5.850   9.251  0.2386  0.0947 -0.2582
  101W        W43013  16.649   4.960   9.092  0.0756 -0.0652 -0.0991
  102W        W43014  15.309   6.726   8.724  0.1177  0.1045  0.1167
  103W        W43015  16.579   3.713   7.811 -0.1628  0.0930  0.0897
  104W        W43016  19.138   6.089   6.478 -0.0584  0.1554 -0.0874
  105W        W43017  14.146   5.064   9.831 -0.4367  0.1928  0.0349
  106W        W43018  17.745   6.760   8.821 -0.0445  0.0922  0.0697
  107W        W43019  17.646   6.099   8.362  0.3098 -0.0625 -0.0200
  108W        W43020  15.104   5.551  10.180  0.0549 -0.0353  0.0503
  109W        W43021  16.396   5.318   8.738  0.0465 -0.1203  0.0287
  110W        W43022  14.569   6.252   8.403 -0.3136 -0.0543  0.1964
  111W        W43023  17.910   3.975   8.771  0.1157 -0.0157  0.0533
  112W        W43024  15.867   4.506   9.169  0.0214 -0.0024 -0.0728
  113W        W43025  18.379   4.102   7.413 -0.0390 -0.2946 -0.0718
  114W        W43026  15.831   6.746   8.739 -0.2852 -0.0104  0.3718
  115W        W43027  17.743   6.162   8.948 -0.1028  0.0697  0.1812
  116W        W43028  15.607  11.305   0.858  0.0268 -0.2952 -0.1431
  117W        W43029  16.007   8.988   0.987  0.3520  0.4521 -0.2849
  118W        W43030  17.987   8.403  31.394  0.0832  0.0847  0.5317
  119W        W43031  17.860   9.550   2.446  0.2292  0.1564  0.2479
  120W        W43032  14.966   7.376   0.282  0.2919  0.1708 -0.2211
  121W        W43033  17.474  10.376   0.856  0.3729  0.1497  0.2181
  122W        W43034  15.371   5.499   2.782  0.0299 -0.0504 -0.0047
  123W        W43035  18.144   9.501   1.204  0.0088  0.0741  0.0081
  124W        W43036  18.603  11.720   3.519  0.1522  0.1801 -0.3983
  125W        W43037  15.839   9.825   0.364 -0.2093 -0.2734 -0.0758
  126W        W43038  15.930   9.104   2.962 -0.0691 -0.0146  0.1315
  127W        W43039  16.116  11.385   2.525  0.0288  0.1770  0.1080
  128W        W43040  16.047   8.244   0.067 -0.2119 -0.2922 -0.2100
  129W        W43041  13.735   6.662   2.566 -0.0381 -0.0111 -0.2151
  130W        W43042  18.708   9.660   1.580 -0.4838  0.1299 -0.1530
  131W        W43043  15.696   9.593  31.562 -0.3413  0.0432  0.1820
  132W        W43044  16.262   7.890   1.490 -0.0081 -0.3043 -0.1346
  133W        W43045  14.778   8.170   1.195 -0.0079 -0.0784  0.0668
  134W        W43046  15.916  11.803   1.029  0.3242  0.0978  0.2751
  135W        W43047  15.647   7.825   1.912  0.3093  0.3576 -0.1794
  136W        W43048  16.482   8.974   3.806  0.1495 -0.0623  0.0004
  137W        W43049  15.707   9.623   1.554 -0.4053  0.1584 -0.0426
  138W        W43050  14.470   8.595  31.009 -0.3873 -0.0126 -0.0347
  139W        W43051  14.969   8.220   2.281 -0.0857  0.1604 -0.0228
  140W        W43052  14.471   9.873   2.526  0.0275  0.1240  0.0456
  141W        W43053  17.171   8.361   1.360 -0.3539  0.1472 -0.2194
  142W        W43054  16.733  10.242   2.992  0.1185 -0.0509 -0.0408
  143W        W43055  15.905  10.844   1.972  0.4962 -0.1132  0.1529
  144W        W43056  16.938  10.220   1.548  0.1449 -0.0840 -0.0870
  145W        W43057  17.060   8.483   2.706  0.0462 -0.0335  0.2108
  146W        W43058  14.712  10.514   2.063  0.1449  0.1158 -0.2278
  147W        W43059  14.353  12.605   0.653 -0.2199  0.0291  0.0749
  148W        W43060  16.006  12.343  31.878 -0.1884 -0.0242  0.1678
  149W        W43061  19.602   8.750   1.032 -0.1113 -0.0045  0.1550
  150W        W43062  16.845  12.489   3.676  0.2392  0.0010  0.0193
  151W        W43063  15.789  11.976   2.823 -0.0695 -0.0739  0.1796
  152W        W43064  15.522   9.962  31.917 -0.0592 -0.1211 -0.3870
  153W        W43065  16.480  12.657   1.885  0.1664 -0.3037 -0.0218
  154W        W43066  15.662  11.495   2.650 -0.0720  0.1063 -0.2099
  155W        W43067  17.047  10.258   2.607  0.0667 -0.2589  0.0416
  156W        W43068  17.531   9.226   2.999 -0.0637  0.0322  0.0250
  157W        W43069  15.874  10.405  31.859 -0.0909 -0.0497  0.0956
  158W        W43070  16.817  10.215   2.151  0.0476  0.2235 -0.0624
  159W        W43071  15.124   8.850   3.412  0.0299  0.1367 -0.1585
  160W        W43072  14.764  11.569   1.592 -0.2333  0.1323 -0.2719
  161W        W43073  18.744   8.493   4.836 -0.2974  0.0989 -0.2636
  162W        W43074  15.819  10.892   0.162  0.3391 -0.0230 -0.4436
  163W        W43075  16.755   7.853   0.625 -0.0692 -0.0462 -0.1047
  164W        W43076  16.496   8.435   0.013 -0.1751 -0.2550  0.2160
  165W        W43077  16.292   8.108   0.477 -0.2822 -0.1103 -0.0215
  166W        W43078  15.582   7.580   0.763  0.2246  0.1630  0.0103
  167W        W43079  15.074   9.372   2.798  0.1024 -0.0271 -0.3929
  168W        W43080  16.359   7.364   1.502 -0.0226 -0.0361 -0.3423
  169W        W43081  15.871   9.947   3.593  0.0046  0.0852  0.2178
  170W        W43082  16.181   8.813   2.150 -0.0389  0.4451  0.1203
  171W        W43083  17.358   8.304   1.950 -0.0860  0.0462  0.3043
  172W        W43084  17.737  10.188  31.964 -0.1319  0.0223 -0.1163
  173W        W43085  16.590  11.065   2.047 -0.1637 -0.2448 -0.1177
  174W        W43086  16.582   9.679  31.605  0.1701  0.0387 -0.2719
  175W        W43087  18.522  10.834   1.352 -0.0382  0.1074  0.0571
  176W        W43088  17.526  10.480   0.357 -0.2120 -0.4737  0.0197
  177W        W43089  14.291   8.418   0.394  0.0416 -0.1176 -0.0524
  178W        W43090  14.243   9.146   2.658 -0.0082  0.2752 -0.1257
  179W        W43091  15.490   9.107   3.801  0.2690 -0.2183  0.1286
  180W        W43092  14.441   6.535  31.900  0.0817  0.0378  0.0997
  181W        W43093  16.927  10.821   3.609  0.3862 -0.0441  0.2701
  182W        W43094  14.841  10.355   2.948 -0.1179  0.0545 -0.0984
  183W        W43095  17.034   8.170   0.889  0.3243 -0.0536  0.0488
  184W        W43096  17.042   9.367   0.977  0.3154 -0.0482  0.0295
  185W        W43097  18.351  11.319   2.258 -0.1037 -0.2066  0.1388
  186W        W43098  18.941  10.280  31.660  0.2776 -0.0981 -0.2829
  187W        W43099  17.303   7.322   1.724 -0.0439  0.0601 -0.1532
  188W        W43100  17.564   6.664   2.149  0.2062  0.0145  0.1265
  189W        W43101  15.614   9.862   1.052 -0.1596 -0.0506  0.3984
  190W        W43102  15.499   9.555   0.627 -0.0116 -0.1935 -0.3997
  191W        W43103  17.888  11.646   3.690 -0.1297 -0.1008  0.0703
  192W        W43104  17.174   8.995   0.615  0.1311 -0.0534 -0.0171
  193W        W43105  15.329  10.434   2.641 -0.0690  0.3101 -0.1980
  194W        W43106  15.578  10.142   2.271  0.1753  0.0306  0.2128
  195W        W43107  17.188  11.903   2.642  0.0882 -0.2342  0.2161
  196W        W43108  14.410  11.172   0.106 -0.1602  0.0779 -0.2130
  197W        W43109  15.972   9.474   0.800  0.1186 -0.1999  0.2627
  198W        W43110  16.472  11.195   0.278  0.1195 -0.0917  0.1743
  199W        W43111  15.467   8.563   1.476 -0.0777  0.0109 -0.0560
  200W        W43112  16.416  10.428   1.539  0.1903  0.1244 -0.0306
  201W        W43113  17.010   7.568   0.083  0.0732  0.1696 -0.0989
  202W        W43114  15.081   7.277   3.119 -0.0298  0.0866 -0.0691
  203W        W43115  16.957   9.044   1.393  0.1642 -0.0157  0.2995
  204W        W43116  15.811  11.066   2.840 -0.1001  0.0222  0.2083
  205W        W43117  17.380  10.089  31.560  0.0621 -0.4775 -0.0175
  206W        W43118  17.033   9.293  31.544 -0.0683  0.0482  0.3611
  207W        W43119  16.451   9.861   1.183  0.1193  0.1319  0.0035
  208W        W43120  14.360   7.887   2.866 -0.0058 -0.3876  0.0601
  209W        W43121  16.270   8.175   1.887  0.0112 -0.1782  0.1051
  210W        W43122  16.064   9.493   4.437  0.1254 -0.2405 -0.0757
  211W        W43123  15.843   8.258   1.679 -0.2071 -0.0185 -0.3353
  212W        W43124  17.305  11.213   3.662  0.0014 -0.0760 -0.3366
  213W        W43125  14.947   6.756   0.317  0.1113  0.2517  0.0884
  214W        W43126  16.843   9.812   0.707  0.1742 -0.2116  0.0245
  215W        W43127  16.277   8.689   0.441  0.2805 -0.1183 -0.3008
  216W        W43128  14.910   9.753   1.663 -0.1921 -0.2909  0.2666
  217W        W43129  17.150   8.631   2.239  0.0709 -0.1278 -0.3344
  218W        W43130  16.560  11.271   0.935  0.0862 -0.3412 -0.0769
  219W        W43131  15.957  11.211   3.387  0.0821  0.1401 -0.2518
  220W        W43132  16.358  10.115   2.006  0.0146  0.0021  0.1869
  221W        W43133  15.429   8.446   2.721  0.1750  0.0402  0.0164
  222W        W43134  15.711   8.526  31.830  0.0022  0.1945  0.0169
  223W        W43135  16.297  10.990   3.003  0.1540 -0.1577  0.0058
  224W        W43136  15.975  10.622   1.398  0.2411  0.0145 -0.0322
  225W        W43137  15.491   8.825   0.855 -0.1127  0.2644 -0.0609
  226W        W43138  17.538  11.443   3.292  0.0547  0.0286  0.2330
  227W        W43139  16.158   9.568   1.925  0.0467  0.3747  0.1110
  228W        W43140  16.394  10.211   3.602 -0.0751  0.1703 -0.2724
  229W        W43141  16.409   8.586   3.359 -0.4408 -0.3294 -0.1302
  230W        W43142  18.183   9.508   3.393  0.1803  0.1013  0.0973
  231W        W43143  17.344   9.460   1.995  0.3773 -0.0391  0.1202
  232W        W43144  14.782   7.316   2.173  0.1433  0.0209  0.0163
  233W        W43145  17.169  10.719   1.253 -0.3891 -0.2433 -0.2433
  234W        W43146  14.775  10.692   0.998 -0.0975 -0.0343  0.1128
  235W        W43147  15.214   9.382   1.521 -0.1296  0.1215 -0.2326
  236W        W43148  16.429  11.837   1.025  0.0097  0.0259  0.1563
  237W        W43149  17.980   7.434   3.078  0.1145  0.0424  0.0250
  238W        W43150  15.496   8.246   4.416  0.0799  0.0881 -0.1796
  239W        W43151  16.590   9.859   3.943  0.1301 -0.3059  0.2520
  240W        W43152  15.273  10.104  30.472 -0.0520 -0.2961 -0.0272
  241W        W43153  15.506  11.389   3.169 -0.1977  0.4607  0.0018
  242W        W43154  16.588   7.819   2.296 -0.0189  0.1941 -0.2302
  243W        W43155  17.499   8.079   1.092  0.5053 -0.0580 -0.1846
  244W        W43156  17.699   9.323   3.621  0.2061  0.1710  0.1598
  245W        W43157  17.985   9.358  31.788  0.0309 -0.1163 -0.2435
  246W        W43158  15.988   7.763   0.134  0.0147 -0.2004 -0.0870
  247W        W43159  17.846   7.507   0.037  0.2767  0.0944 -0.1009
  248W        W43160  15.342   8.759   4.149 -0.0882 -0.0956  0.1360
  249W        W43161  17.077  10.730   0.694  0.0183  0.0938 -0.1280
  250W        W43162  15.073   9.758   1.172  0.0384 -0.3481 -0.0421
  251W        W43163  17.504   5.857   0.260 -0.0297  0.2516 -0.1528
  252W        W43164  17.532  11.698   1.013 -0.0846 -0.2765 -0.0622
  253W        W43165  15.142  10.175   1.940 -0.0691  0.1658  0.0247
  254W        W43166  16.337  12.023   4.043  0.3592  0.0283  0.2717
  255W        W43167  18.853  11.183   2.169 -0.1341 -0.2140  0.1209
  256W        W43168  16.117   8.002   2.472  0.1701 -0.1842  0.1423
  257W        W43169  15.218   8.546   0.171  0.0075  0.2320  0.1054
  258W        W43170  16.757   8.106   1.409 -0.0235 -0.1049 -0.1290
  259W        W43171  14.760  10.451  29.909  0.2281 -0.0574  0.0327
  260W        W43172  17.519   8.613   2.567  0.0383  0.1226  0.0397
  261W        W43173  16.394   9.244   2.228 -0.1114  0.2285  0.1856
  262W        W43174  16.263   7.348   2.338 -0.1135  0.0442 -0.0307
  263W        W43175  17.548   9.663   3.259  0.1567 -0.2644 -0.0538
  264W        W43176  18.000   8.529   2.328 -0.0655  0.0396 -0.0090
  265W        W43177  15.297   9.314   2.314  0.1382  0.2584  0.2917
  266W        W43178  15.193   7.885  31.813 -0.0735  0.0084  0.0070
  267W        W43179  15.796   7.170   2.527 -0.2316 -0.2177 -0.0002
  268W        W43180  16.807   8.976   3.315 -0.0064 -0.2219  0.1134
  269W        W43181  16.627  11.728   0.443  0.0503  0.1557 -0.0345
  270W        W43182  17.558  10.727   3.565  0.0952 -0.0923 -0.0559
  271W        W43183  17.579  10.212   3.448  0.3070  0.2065 -0.2626
  272W        W43184  16.249   9.191   3.379 -0.1834 -0.2454  0.3163
  273W        W43185  17.409   8.558   0.805 -0.0067 -0.0246  0.1590
  274W        W43186  14.838  11.265   0.544 -0.0835 -0.2720 -0.3191
  275W        W43187  16.088  10.042  31.519 -0.1189 -0.2842 -0.0471
  276W        W43188  16.625   7.076   0.059 -0.2322 -0.2073  0.1044
  277W        W43189  14.931  10.995   2.010 -0.2586  0.1345  0.1971
  278W        W43190  15.397   9.948  31.435 -0.1272 -0.1973 -0.1386
  279W        W43191  16.427  10.348   2.441 -0.0433 -0.3003 -0.0079
  280W        W43192  14.950  10.754  31.914 -0.2516  0.0387 -0.1223
  281W        W43193  16.714   8.902   2.411 -0.0815  0.1670  0.0688
  282W        W43194  14.422  12.421   1.286  0.0384 -0.0395 -0.1565
  283W        W43195  14.961   9.033   0.081 -0.2251 -0.4698 -0.0485
  284W        W43196  15.111   9.674   0.369 -0.0842  0.0498 -0.0664
  285W        W43197  17.311   6.677   0.578 -0.0022 -0.2924  0.1398
  286W        W43198  17.555   9.149   1.631  0.1487  0.3422  0.3377
  287W        W43199  16.253   8.948   2.616 -0.0076  0.3744 -0.1882
  288W        W43200  16.117   7.464   1.072 -0.1223  0.1117 -0.4067
  289W        W43201  16.246  12.013   3.014  0.2089 -0.0921  0.0406
  290W        W43202  15.439  11.078   1.875 -0.0665  0.0531 -0.1907
  291W        W43203  17.393   7.776  30.196 -0.2111 -0.0493 -0.3435
  292W        W43204  16.403  11.478   3.963  0.2667  0.0987  0.0878
  293W        W43205  17.288  10.420   2.099  0.0689  0.3511 -0.2653
  294W        W43206  13.700   8.883   0.139  0.0590 -0.0746  0.1776
  295W        W43207  17.377   8.840   3.344  0.0465  0.0577  0.0697
  296W        W43208  16.089   9.123   1.716 -0.0447  0.2547 -0.3536
  297W        W43209  16.337   8.969   0.006 -0.0031  0.1338  0.0021
  298W        W43210  16.989  11.162   1.593 -0.0666  0.1101 -0.1452
  299W        W43211  15.055   8.744   1.098  0.0568  0.0478 -0.2647
  300W        W43212  16.218  11.871   0.030  0.3974  0.1544  0.0833
  301W        W43213  15.814   9.227   4.753 -0.6102  0.2042 -0.0549
  302W        W43214  18.555  10.516   4.099 -0.1505 -0.0070  0.0617
  303W        W43215  16.658   8.590   1.371 -0.1774 -0.0209  0.4020
  304W        W43216  13.821   8.499  31.584  0.0786  0.2919 -0.2246
  305W        W43217  16.115   9.479   1.304  0.4270  0.2512 -0.0179
  306W        W43218  17.818  11.135   3.669 -0.3067  0.1630  0.4503
  307W        W43219  16.470   9.772   2.953 -0.0472 -0.1307 -0.1162
  308W        W43220  15.466   9.236   3.170  0.0542 -0.0809 -0.2660
  309W        W43221  16.679   7.792   1.808  0.0667 -0.1314 -0.1485
  310W        W43222  17.951   9.017   1.258 -0.2764 -0.1909 -0.2342
  311W        W43223  17.367  10.688   2.566  0.4127 -0.0506 -0.0897
  312W        W43224  15.452   9.317   1.054 -0.0945 -0.2340 -0.1219
  313W        W43225  15.261  10.292   3.184 -0.0354  0.1226 -0.1074
  314W        W43226  15.724  11.597   1.575 -0.0105 -0.1004  0.1711
  315W        W43227  16.129   9.526   2.663 -0.0838 -0.0595 -0.1604
  316W        W43228  15.569  11.776   2.058  0.1363 -0.0541 -0.1556
  317W        W43229  16.031  10.033   0.784  0.2238 -0.3509  0.4925
  318W        W43230  14.480  10.114   4.271 -0.4207  0.4026  0.1296
  319W        W43231  17.255   5.811  31.409 -0.0416 -0.0352 -0.1119
  320W        W43232  16.487  10.173   0.652  0.2816  0.1484 -0.2424
  321W        W43233  15.722   8.266   2.243  0.0984 -0.4751 -0.2358
  322W        W43234  18.669   8.674   4.020  0.2927 -0.0514 -0.0419
  323W        W43235  16.589   9.011   0.711 -0.1496  0.1363 -0.0277
  324W        W43236  16.819   7.443   3.078 -0.2218  0.0338  0.1606
  325W        W43237  15.342   6.382   1.507 -0.3433  0.0740 -0.1041
  326W        W43238  17.553  11.465   2.809  0.2796  0.0282 -0.2228
  327W        W43239  16.049   9.424   3.876  0.0233  0.1280 -0.1700
  328W        W43240  15.811  10.583   5.182 -0.0116 -0.2402  0.1042
  329W        W43241  16.150   7.570   5.177 -0.0288  0.0003 -0.1516
  330W        W43242  17.658   8.044   1.556  0.2235  0.3337 -0.0574
  331W        W43243  15.516   7.712  31.453 -0.0662  0.2793  0.1135
  332W        W43244  15.159  10.868   2.928 -0.4331 -0.4103  0.3334
  333W        W43245  17.039  10.600   3.065 -0.1327 -0.0697 -0.2916
  334W        W43246  16.639   9.484   1.434 -0.1589  0.1354 -0.1764
  335W        W43247  18.401   8.885   2.328 -0.1036 -0.0643 -0.2793
  336W        W43248  15.654  10.908   2.417 -0.1749  0.2237  0.2906
  337W        W43249  17.091   7.664   1.039  0.0619  0.1125  0.1811
  338W        W43250  17.331   7.984   0.376 -0.1062 -0.2070  0.1204
  339W        W43251  16.380  10.434   1.046 -0.0103  0.0753  0.1361
  340W        W43252  16.720   6.648   1.096 -0.1265 -0.0798 -0.0020
  341W        W43253  17.801   9.585   1.596  0.1480  0.1582  0.0516
  342W        W43254  17.114   9.470   1.502  0.2980 -0.1895  0.0090
  343W        W43255  17.598   8.928   2.108 -0.2106  0.2392  0.0917
  344W        W43256  16.723   9.418   3.712 -0.1616 -0.3152 -0.0544
  345W        W43257  16.748   9.862   3.349  0.1674  0.2226 -0.0578
  346W        W43258  14.973   6.683   2.885  0.2327  0.0079 -0.0570
  347W        W43259  16.800  12.658   3.183 -0.1084 -0.3786 -0.0215
  348W        W43260  16.979   7.378   0.535 -0.0442  0.1381 -0.0524
  349W        W43261  17.227  10.010   3.114 -0.1488  0.0653  0.3846
  350W        W43262  17.680  10.523   1.332  0.2304  0.1562 -0.0730
  351W        W43263  16.086   6.767  31.806 -0.1635 -0.0378  0.0012
  352W        W43264  14.036   9.268   0.132  0.0679  0.1485  0.1620
  353W        W43265  18.025  10.813   2.452  0.0437  0.0156  0.3216
  354W        W43266  14.991   7.568   1.303  0.0332  0.3030  0.1133
  355W        W43267  15.199   9.477   3.638 -0.3417 -0.2773 -0.1256
  356W        W43268  16.558  11.280  31.560  0.0726  0.2149 -0.1182
  357W        W43269  17.229   9.890   2.276  0.0080 -0.0569  0.0652
  358W        W43270  16.961   9.861   1.244  0.2111 -0.4202  0.1232
  359W        W43271  14.347   8.451   1.958 -0.0363 -0.1554 -0.1127
  360W        W43272  14.933   9.850   2.845  0.2529 -0.1528  0.2179
  361W        W43273  15.766   7.990  31.753  0.6333  0.1948  0.1864
  362W        W43274  16.823   8.819   0.315  0.2451  0.3924  0.3216
  363W        W43275  15.810  10.041   1.844  0.0044  0.2771  0.0606
  364W        W43276  17.151   9.467   3.466  0.1905 -0.2520 -0.2045
  365W        W43277  16.831   7.393  30.887  0.0295  0.1501 -0.0104
  366W        W43278  18.039   8.034   3.619  0.1879 -0.1512 -0.1746
  367W        W43279  16.607   8.410   2.288  0.5957  0.2108  0.0067
  368W        W43280  14.487  11.808   1.985 -0.0707 -0.1669 -0.1652
  369W        W43281  14.576   8.395   2.821 -0.0624  0.0851 -0.0560
  370W        W43282  14.620  12.167   0.656 -0.3049  0.0799  0.2815
  371W        W43283  16.699   9.339   2.670  0.1529 -0.0193  0.0189
  372W        W43284  18.018   9.320   2.952  0.2949 -0.2292 -0.2718
  373W        W43285  15.751   8.720   2.422  0.1760 -0.2785 -0.2717
  374W        W43286  18.472   8.718   4.467 -0.4910  0.3538 -0.1327
  375W        W43287  16.059  10.654   3.369 -0.2043  0.1353  0.2252
  376W        W43288  16.014  10.094   1.340 -0.1185  0.1065  0.3414
  377W        W43289  16.982  12.456   4.190 -0.0149  0.0830 -0.0062
  378W        W43290  17.463   9.482   1.117  0.4297  0.0338 -0.1505
  379W        W43291  15.548  10.536   1.886  0.0806  0.3312 -0.2613
  380W        W43292  14.563   8.122   4.657 -0.1144  0.0519  0.3167
  381W        W43293  16.323   9.668   3.537 -0.3785 -0.1722  0.1458
  382W        W43294  19.040   9.836   3.541 -0.1701  0.0330  0.0020
  383W        W43295  14.713   7.764   0.970 -0.2971  0.1635 -0.2773
  384W        W43296  15.723  10.332  31.336 -0.1959 -0.0204 -0.1940
  385W        W43297  16.598  12.016   4.551  0.0611 -0.0941  0.0803
  386W        W43298  15.452   9.884   2.666  0.0315 -0.1475 -0.0778
  387W        W43299  15.294  10.531   1.065 -0.1620  0.1001 -0.1676
  388W        W43300  17.310   9.934   0.853  0.0772  0.3602  0.4746
  389W        W43301  15.886  11.158   1.531 -0.2227  0.1135  0.2875
  390W        W43302  16.179  11.460   1.830 -0.1749 -0.1084  0.0406
  391W        W43303  15.593   7.463  31.914 -0.1897 -0.0392 -0.1255
  392W        W43304  15.453  12.299   1.943  0.2111 -0.1129  0.0091
  393W        W43305  14.603  10.396   0.300  0.0968  0.3126 -0.2309
  394W        W43306  17.588  11.056   2.278 -0.1772  0.2398 -0.0450
  395W        W43307  15.047  12.723   3.314 -0.0640 -0.1228  0.2494
  396W        W43308  16.579  10.600   3.269 -0.0147 -0.0016 -0.0755
  397W        W43309  17.218   8.017  31.866 -0.2139 -0.0726 -0.3126
  398W        W43310  17.761   9.943   2.933 -0.2554  0.3420 -0.1024
  399W        W43311  17.853   8.434   1.090 -0.1663 -0.0757  0.1096
  400W        W43312  15.851  11.735   3.452 -0.1360  0.3012  0.1356
  401W        W43313  14.951   9.236   1.902 -0.3885 -0.1707  0.1479
  402W        W43314  16.205   8.154  30.802  0.2288 -0.0239 -0.3069
  403W        W43315  15.325  10.024   3.654  0.0041  0.2064 -0.1066
  404W        W43316  16.571   8.732   2.863  0.0214 -0.1735 -0.1539
  405W        W43317  14.839  10.225   3.585 -0.0892  0.0717  0.0149
  406W        W43318  16.981  10.278  31.886  0.1825  0.2735 -0.0072
  407W        W43319  13.497   7.979   0.093  0.2492 -0.1143 -0.0741
  408W        W43320  15.736   9.163   0.458 -0.5459 -0.0233  0.2073
  409W        W43321  17.797   8.781   3.026 -0.1496  0.3242  0.0613
  410W        W43322  16.717   8.408   0.619 -0.0698 -0.0215 -0.0234
  411W        W43323  17.819  10.514   2.128 -0.1448  0.1583 -0.2005
  412W        W43324  15.473  10.693   0.632  0.1681  0.3171 -0.2613
  413W        W43325  16.176  11.453   0.659  0.1493 -0.0110  0.2486
  414W        W43326  16.170  11.835   1.532  0.0329  0.2238  0.2410
  415W        W43327  15.374   7.600   0.340  0.0546  0.0743  0.1992
  416W        W43328  18.150   9.962   2.408  0.3564  0.1335 -0.1795
  417W        W43329  16.546   9.821   2.425  0.0069 -0.1853 -0.1279
  418W        W43330  16.812   7.236   2.588 -0.1458 -0.1914 -0.0016
  419W        W43331  14.766   8.920   1.462  0.1033 -0.2337 -0.0341
  420W        W43332  17.530  11.200   1.280 -0.1473 -0.1164 -0.3237
  421W        W43333  17.239   9.887   1.760 -0.2081 -0.3693  0.2151
  422W        W43334  13.711   9.111   2.916  0.2486  0.1036 -0.1389
  423W        W43335  16.296   8.572   0.962  0.1420 -0.1817 -0.1310
  424W        W43336  19.540   8.969   3.656 -0.2314  0.1549  0.1342
  425W        W43337  16.503   9.138  31.463  0.1792  0.1526 -0.0336
  426W        W43338  16.198  12.722   4.915 -0.1204 -0.1077 -0.2199
  427W        W43339  14.946   9.219   1.029 -0.2135  0.0310  0.0863
  428W        W43340  16.592   7.668   1.173  0.3242  0.0286  0.3790
  429W        W43341  16.251   9.226   0.409  0.3021  0.6515  0.2267
  430W        W43342  14.795   9.196   2.347 -0.3455  0.1097 -0.0578
  431W        W43343  17.090  11.976   4.391  0.0236 -0.3362 -0.3763
  432W        W43344  15.369   7.961   2.364  0.1134  0.2055  0.2138
  433W        W43345  17.557   9.965   0.381  0.1179 -0.1600  0.1788
  434W        W43346  17.393   9.781   4.351  0.4580 -0.2344  0.1666
  435W        W43347  16.681   9.850   0.080  0.0897  0.0657 -0.1445
  436W        W43348  17.843  10.991   2.900 -0.3755 -0.3066  0.0541
  437W        W43349  17.647   9.844   2.035 -0.1743  0.3247  0.0216
  438W        W43350  14.474   8.249   2.379  0.2163  0.0943  0.0509
  439W        W43351  16.365  10.981   1.601 -0.0440  0.1262  0.0791
  440W        W43352  18.140  10.229   1.910  0.2704 -0.2723 -0.2936
  441W        W43353  16.058   7.283   0.068  0.0802  0.4745  0.2013
  442W        W43354  14.292   8.538   1.379  0.0690  0.1106  0.1349
  443W        W43355  14.152  12.148   0.881  0.2571 -0.1951  0.2718
  444W        W43356  18.834   9.639   2.514 -0.1003  0.5163  0.1383
  445W        W43357  18.282   8.939   2.834 -0.2331  0.3257 -0.1427
  446W        W43358  15.446  11.401  31.365  0.0585  0.2092  0.0139
  447W        W43359  17.810   7.529   3.518 -0.3739  0.0754 -0.2959
  448W        W43360  16.268  10.901   2.392  0.1176  0.0008 -0.1420
  449W        W43361  17.360   9.732   4.991  0.0080  0.0693 -0.0591
  450W        W43362  13.381   9.504   0.430  0.1334 -0.0172  0.2199
  451W        W43363  15.973  10.422   2.205 -0.0275  0.0826 -0.2181
  452W        W43364  16.240  10.206   0.232  0.0181 -0.1958 -0.1916
  453W        W43365  14.984  11.561   1.106  0.1865 -0.1230 -0.1216
  454W        W43366  17.959  11.256   1.575 -0.1174 -0.1559  0.1362
  455W        W43367  16.943   9.783   2.725  0.2336 -0.2587 -0.0742
  456W        W43368  17.484  10.356   2.901  0.2403  0.2323 -0.1017
  457W        W43369  15.343   8.862   1.790 -0.2822  0.0234  0.0114
  458W        W43370  17.395   7.197   0.785 -0.1642  0.2135  0.1746
  459W        W43371  17.465   6.290   0.008  0.2069 -0.0215 -0.0595
  460W        W43372  15.623   9.424   2.705 -0.0269 -0.0791 -0.1291
  461W        W43373  15.189   9.572  31.268  0.0064  0.1710 -0.4121
  462W        W43374  14.927  10.340  30.746  0.0679 -0.1625 -0.0744
  463W        W43375  15.202  10.648   2.188  0.1793  0.0440 -0.1053
  464W        W43376  16.659   8.138   2.747  0.0902 -0.0525  0.0512
  465W        W43377  15.362   9.678   1.988  0.2564 -0.1087 -0.0532
  466W        W43378  15.523  10.228   1.422 -0.0589  0.0027  0.2535
  467W        W43379  15.762   8.654   1.913 -0.1538 -0.2856 -0.2483
  468W        W43380  17.889   9.306   0.825 -0.1142  0.1929  0.1786
  469W        W43381  16.161   7.630   1.963  0.1028  0.0706  0.1332
  470W        W43382  14.348   7.201   1.999  0.2034 -0.1667 -0.2171
  471W        W43383  17.590   8.837   0.327  0.1383 -0.3922  0.0251
  472W        W43384  17.615  10.210   1.740  0.0257  0.0643  0.1215
  473W        W43385  16.144   8.684   1.493 -0.0653 -0.3443 -0.0962
  474W        W43386  16.744  11.087   4.437  0.0934 -0.1807 -0.2626
  475W        W43387  16.250   8.638  31.630  0.3318 -0.1148  0.0664
  476W        W43388  16.785   7.540   3.570 -0.1546  0.1656 -0.3856
  477W        W43389  15.592   8.275   3.218  0.4987 -0.0788 -0.3811
  478W        W43390  14.704   6.965  31.926  0.3808  0.0353  0.0329
  479W        W43391  17.172   8.921   2.869 -0.0099 -0.1962  0.0447
  480W        W43392  16.168  11.428   1.218 -0.0124  0.3197  0.3222
  481W        W43393  16.317   9.732   0.450 -0.1387  0.2008 -0.0575
  482W        W43394  15.771  10.181   4.910 -0.0779 -0.2397  0.3573
  483W        W43395  15.641  10.630   3.042  0.0248  0.1487 -0.0462
  484W        W43396  15.357   6.256   2.245 -0.3094  0.1180  0.3785
  485W        W43397  15.646   9.314   1.938  0.3936  0.0135 -0.4946
  486W        W43398  16.040   9.665   3.168  0.2692  0.0160  0.1707
  487W        W43399  19.034   9.648   0.676  0.1915 -0.0686  0.1637
  488W        W43400  18.933   7.710   1.511 -0.1081 -0.1960  0.1432
  489W        W43401  16.821   8.917  31.771  0.2860 -0.0748  0.5926
  490W        W43402  14.320   8.357   3.262 -0.0135 -0.0840  0.0483
  491W        W43403  16.020  10.425   3.807  0.1652  0.2388  0.0681
  492W        W43404  17.949   9.319   1.969  0.2475  0.1881  0.0720
  493W        W43405  18.066   7.620   1.520 -0.3100  0.0256  0.2090
  494W        W43406  16.517   8.858   1.783  0.2128 -0.1853 -0.2883
  495W        W43407  17.159   9.724   0.228 -0.2512  0.0354  0.1009
  496W        W43408  16.051  10.026   2.578  0.2191 -0.0799 -0.1425
  497W        W43409  16.480   9.059   1.204  0.0990  0.1883  0.0854
  498W        W43410  15.757   9.701   2.324  0.0491 -0.4832 -0.4124
  499W        W43411  17.471  11.399   1.784 -0.0290  0.0956 -0.1497
  500W        W43412  16.499   9.753   4.413 -0.2508  0.0077 -0.0136
  501W        W43413  16.161   7.979   1.026 -0.1249  0.0141  0.1937
  502W        W43414  18.259   9.030   0.592 -0.0106 -0.0728 -0.2891
  503W        W43415  15.925  12.714   3.663  0.2186 -0.0865  0.1477
  504W        W43416  16.440  10.695   4.497  0.2178 -0.1516  0.1208
  505W        W43417  16.363  10.598   1.980 -0.1459 -0.1452 -0.0979
  506W        W43418  18.707  10.168   2.662  0.0879 -0.0993  0.2469
  507W        W43419  14.042   7.248   2.417  0.1844  0.1864 -0.1638
  508W        W43420  16.732   9.808   1.776  0.2591  0.2166 -0.3082
  509W        W43421  16.155  10.915   1.015  0.1045 -0.0758  0.2470
  510W        W43422  17.335   9.231   2.465  0.0373  0.2944 -0.4766
  511W        W43423  14.732   8.653   2.374 -0.3470 -0.0624  0.0143
  512W        W43424  16.953   7.286   1.282  0.3587 -0.1192 -0.4570
  513W        W43425  16.248  10.176   3.115 -0.0631 -0.0623  0.1212
  514W        W43426  17.962  10.608   3.174  0.2493  0.0378 -0.1903
  515W        W43427  15.784   8.341   6.630 -0.3959  0.1994 -0.1010
  516W        W43428  15.446   8.500   3.711 -0.0944  0.1730  0.1852
  517W        W43429  16.195   8.085   3.181  0.0796  0.0985 -0.2819
  518W        W43430  16.983   9.574   4.105 -0.0435 -0.3241 -0.1693
  519W        W43431  14.283   7.506   6.168  0.0132 -0.2824 -0.1160
  520W        W43432  15.530  10.637   4.244 -0.0170  0.1997  0.0043
  521W        W43433  15.459   7.253   5.623  0.3542 -0.1330 -0.3020
  522W        W43434  16.753   9.550   5.068 -0.1564  0.0480 -0.1142
  523W        W43435  16.858  10.153   7.056  0.0339  0.0812  0.1937
  524W        W43436  16.874  10.706   2.335 -0.0145 -0.3551  0.2327
  525W        W43437  14.843   7.459   5.365 -0.1716  0.2213 -0.1851
  526W        W43438  14.615  10.953   8.570  0.1492 -0.4522  0.0307
  527W        W43439  16.355   7.528   3.276  0.1714 -0.3772 -0.0332
  528W        W43440  15.238   6.728   5.730  0.0979 -0.1906 -0.1023
  529W        W43441  17.245   9.267   6.791  0.0240 -0.4272  0.2663
  530W        W43442  13.562   8.847   5.337 -0.0745  0.0615 -0.2528
  531W        W43443  15.436   8.689   6.561  0.0283 -0.2338  0.1257
  532W        W43444  16.091   8.984   4.220 -0.0952  0.0705 -0.0301
  533W        W43445  16.953   9.957   4.787  0.0594  0.0317  0.1279
  534W        W43446  15.572   7.735   6.541 -0.5150 -0.1606  0.1736
  535W        W43447  16.709   8.555   6.489 -0.1066 -0.0052  0.1523
  536W        W43448  15.324  10.220   4.415  0.0232  0.0252  0.1505
  537W        W43449  15.068   8.593   2.997  0.2404  0.1627 -0.0592
  538W        W43450  13.924   7.844   5.984 -0.1189 -0.0510 -0.1670
  539W        W43451  16.479   8.075   5.536  0.0165 -0.0306 -0.1948
  540W        W43452  15.819   8.377   4.938 -0.0173 -0.1360  0.1080
  541W        W43453  16.213   7.991   4.874 -0.1093 -0.1345 -0.1928
  542W        W43454  15.917  11.325   6.103  0.1669  0.1651  0.1046
  543W        W43455  16.622  10.120   5.100  0.1603  0.1919  0.0152
  544W        W43456  17.558   8.345   6.586  0.4176 -0.2765  0.0908
  545W        W43457  13.795   8.469   6.634  0.4101  0.0661  0.1222
  546W        W43458  15.531  10.172   5.752  0.2282  0.0268 -0.0041
  547W        W43459  15.380   9.889   5.312 -0.1421  0.0386  0.0995
  548W        W43460  17.467  10.146   4.707  0.0520  0.3455  0.1200
  549W        W43461  17.203  10.436   7.736 -0.2811  0.2341  0.0511
  550W        W43462  16.717  12.464   6.766 -0.0508  0.0270  0.3876
  551W        W43463  15.006  10.702   3.333  0.0583  0.0214  0.0114
  552W        W43464  16.545  11.261   7.918 -0.0999 -0.0032 -0.1114
  553W        W43465  15.206  11.879   7.393  0.1822 -0.0134  0.1086
  554W        W43466  16.847   8.346   6.046  0.0847 -0.0567  0.1087
  555W        W43467  16.721   9.383   5.629 -0.1419 -0.1656 -0.2975
  556W        W43468  14.789  10.910   4.216 -0.0896  0.1055  0.2824
  557W        W43469  17.101  10.932   4.795 -0.1266  0.2468 -0.4473
  558W        W43470  16.281  10.039   7.111  0.1657 -0.0081 -0.0967
  559W        W43471  15.709  10.994   7.055  0.2675  0.0898 -0.1078
  560W        W43472  17.308   7.199   7.584 -0.1414  0.4080  0.0655
  561W        W43473  15.985  10.322   4.351 -0.2100  0.0773 -0.2149
  562W        W43474  18.964   8.326   4.189  0.2652 -0.2293 -0.1712
  563W        W43475  16.238   8.545   4.364  0.0334  0.2924 -0.0883
  564W        W43476  16.695   7.947   4.784  0.2360 -0.3272  0.3518
  565W        W43477  15.526   7.267   5.057 -0.0033  0.1431  0.1071
  566W        W43478  16.126  10.802   6.392  0.0115 -0.0235 -0.0593
  567W        W43479  15.812   8.594   5.456  0.0149  0.1671 -0.0637
  568W        W43480  17.592  10.493   6.546  0.4888  0.4071  0.0671
  569W        W43481  16.290   9.491   5.256 -0.0723 -0.1358 -0.1716
  570W        W43482  16.171   7.726   5.750 -0.0027 -0.1766  0.0160
  571W        W43483  14.937  11.500   6.828 -0.1097  0.1698  0.1420
  572W        W43484  14.060   8.961   5.051 -0.0870 -0.2255  0.2078
  573W        W43485  16.591  10.174   4.570  0.2676 -0.2276  0.1321
  574W        W43486  16.993  12.004   4.855  0.3719  0.0121  0.0494
  575W        W43487  15.870  10.933   3.820  0.1494 -0.0948  0.0503
  576W        W43488  14.769   8.358   5.061 -0.1542 -0.0763 -0.1311
  577W        W43489  16.062   9.686   6.895  0.2670 -0.3195  0.0185
  578W        W43490  14.473   8.574   5.855  0.1297  0.0269  0.0441
  579W        W43491  15.645   7.281   3.134 -0.0108  0.2091  0.0417
  580W        W43492  17.700   9.690   7.453  0.0178 -0.1282 -0.0735
  581W        W43493  14.378  10.443   8.596 -0.2934  0.3119 -0.1371
  582W        W43494  19.194   8.247   5.678 -0.3344 -0.0229 -0.2138
  583W        W43495  16.398   8.918   6.367 -0.2302  0.1846  0.0374
  584W        W43496  18.037  11.734   6.642  0.0748 -0.1129 -0.4039
  585W        W43497  18.260  10.117   4.178  0.1105  0.2215  0.1001
  586W        W43498  17.146   6.583   5.655 -0.0264 -0.1350  0.1090
  587W        W43499  17.243   8.537   6.278 -0.1652  0.0478  0.4594
  588W        W43500  17.138   8.328   4.717  0.0309 -0.0441 -0.0613
  589W        W43501  14.412   9.185   4.611  0.1686 -0.1949  0.0526
  590W        W43502  17.261  10.109   6.768  0.2509  0.0864  0.1480
  591W        W43503  17.727  10.229   4.194 -0.1532  0.0774  0.3227
  592W        W43504  14.856  11.517   6.285  0.2302  0.1523  0.2137
  593W        W43505  16.494   7.324   5.830  0.1963 -0.0522  0.0109
  594W        W43506  15.564  11.209   8.012 -0.0595  0.3698  0.0813
  595W        W43507  16.066  10.514   2.733  0.0885 -0.1568 -0.1713
  596W        W43508  14.037   8.765   5.498 -0.2186 -0.0941 -0.3028
  597W        W43509  15.278   9.700   4.862 -0.0360 -0.0516 -0.2103
  598W        W43510  13.229   7.093   6.263  0.1803 -0.2957 -0.3138
  599W        W43511  15.472   9.119   6.283 -0.1571  0.0177  0.0438
  600W        W43512  16.453   8.497   3.894 -0.6396  0.2773  0.1947
  601W        W43513  15.921   7.660   7.425  0.2560 -0.0421  0.1243
  602W        W43514  18.703   7.813   4.244  0.3220  0.1127  0.0565
  603W        W43515  16.261  10.378   4.903 -0.0689  0.0065  0.1542
  604W        W43516  17.211  12.254   6.043 -0.2264 -0.1521 -0.0587
  605W        W43517  17.919   9.797   4.254  0.1924 -0.0696  0.0291
  606W        W43518  18.651  10.881   3.807 -0.2057  0.0594 -0.3263
  607W        W43519  15.407  10.612   7.151 -0.0576 -0.1343 -0.0214
  608W        W43520  15.314   8.495   4.841 -0.0684  0.1728 -0.1204
  609W        W43521  15.709   8.086   7.245 -0.0287 -0.3808  0.1189
  610W        W43522  15.292   6.464   5.297  0.1253  0.0506  0.0826
  611W        W43523  18.016   8.654   6.719 -0.2924  0.1848  0.1701
  612W        W43524  13.658   8.503   4.413 -0.0518  0.3931 -0.2255
  613W        W43525  17.937   9.516   5.554  0.0432  0.2970  0.2350
  614W        W43526  14.928   8.904   4.934  0.1516  0.1319 -0.2140
  615W        W43527  15.753   9.650   5.094 -0.1762  0.0524 -0.1254
  616W        W43528  17.406   7.330   6.476 -0.1791 -0.1362  0.2371
  617W        W43529  16.241   9.875   4.956  0.1483  0.0312  0.0548
  618W        W43530  17.887  12.390   7.537 -0.1322 -0.0643 -0.0693
  619W        W43531  17.457  11.026   5.149  0.1849  0.1164 -0.0644
  620W        W43532  14.121   9.128   8.326  0.0798 -0.0575 -0.0185
  621W        W43533  15.933   7.607   2.958  0.2084  0.0862 -0.0546
  622W        W43534  14.315  10.799   6.566 -0.0405  0.1320  0.3306
  623W        W43535  16.277  10.148   5.792  0.2095 -0.0720  0.0866
  624W        W43536  15.432   8.918   2.814  0.0225 -0.0039 -0.0503
  625W        W43537  18.218  11.955   5.424 -0.2912  0.1809  0.2373
  626W        W43538  16.675   9.862   5.725  0.2906  0.4529  0.3596
  627W        W43539  15.352  11.492   7.116 -0.2879 -0.1806  0.2506
  628W        W43540  16.507   8.037   6.561  0.2092  0.1514 -0.0379
  629W        W43541  18.488   9.926   6.818 -0.4717 -0.2311  0.0083
  630W        W43542  15.491   8.236   5.339  0.0755 -0.0931  0.2019
  631W        W43543  14.734   8.037   3.232 -0.2435  0.1339  0.0832
  632W        W43544  16.558  12.267   6.197  0.1076  0.0901 -0.2160
  633W        W43545  15.804  11.159   4.906  0.1147 -0.1876  0.1615
  634W        W43546  13.380  10.098   5.066 -0.3895  0.0681  0.2176
  635W        W43547  15.683  10.679   4.684 -0.2458  0.1599 -0.0537
  636W        W43548  17.348   7.672   5.826  0.0683 -0.3155 -0.3619
  637W        W43549  14.812  10.082   6.558  0.0789  0.0018 -0.0348
  638W        W43550  16.413   7.591   6.215  0.1722  0.0318 -0.0963
  639W        W43551  15.075   8.485   4.440  0.1450 -0.5282 -0.2274
  640W        W43552  16.738   9.346   6.392  0.2054  0.3272  0.3135
  641W        W43553  17.098   6.705   4.659  0.1384  0.0031 -0.3076
  642W        W43554  17.049   8.602   3.678 -0.2278 -0.2148 -0.1634
  643W        W43555  17.149   8.596   6.773  0.1259  0.0016 -0.1983
  644W        W43556  17.594   8.890   3.998  0.0553  0.3351  0.0004
  645W        W43557  17.335   7.575   3.513  0.0630  0.1986 -0.0219
  646W        W43558  16.954   8.446   3.195  0.3801  0.4782  0.0516
  647W        W43559  15.239   9.661   6.507 -0.2283  0.5826 -0.1236
  648W        W43560  16.749  10.244   6.023 -0.2424 -0.1270 -0.1372
  649W        W43561  15.879   9.191   5.269  0.0235 -0.1023  0.1221
  650W        W43562  16.520   9.300   4.242 -0.1131 -0.0457 -0.2548
  651W        W43563  17.238  10.924   4.077  0.1687  0.0004  0.0455
  652W        W43564  15.553   8.177   6.236  0.1519  0.0729 -0.1460
  653W        W43565  16.466   9.863   8.002  0.0802  0.2292 -0.1023
  654W        W43566  17.176  10.380   4.997 -0.2748  0.2270 -0.2494
  655W        W43567  15.679   7.672   5.946 -0.3624  0.0794  0.0652
  656W        W43568  14.907   9.365   4.788  0.2866  0.2904 -0.2556
  657W        W43569  16.978   7.482   5.591 -0.0969 -0.1382  0.1288
  658W        W43570  15.180  12.718   2.831  0.0846  0.0521 -0.2692
  659W        W43571  17.398   9.395   6.309 -0.2071  0.3547  0.0133
  660W        W43572  16.033   6.895   4.915 -0.0852 -0.0782  0.0697
  661W        W43573  16.567   7.099   6.340  0.0683 -0.0818  0.2289
  662W        W43574  18.085   8.899   7.130 -0.0336  0.2176 -0.0817
  663W        W43575  18.361   9.405   2.578  0.0220  0.1705  0.1033
  664W        W43576  16.366   8.959   5.462  0.0743  0.0831 -0.0272
  665W        W43577  15.741   7.833   4.995 -0.1471  0.0672 -0.0543
  666W        W43578  16.977   8.945   5.477 -0.0366 -0.1702  0.1043
  667W        W43579  16.496   7.911   7.038 -0.1252  0.0407 -0.1378
  668W        W43580  14.098  10.516   6.950 -0.1405 -0.3156 -0.2799
  669W        W43581  18.163   9.688   7.091  0.1540  0.1192 -0.2746
  670W        W43582  16.905  10.203   3.978  0.0915  0.0113 -0.1379
  671W        W43583  16.999   8.144   6.469 -0.5336  0.0972  0.3915
  672W        W43584  15.992   8.192   3.708 -0.0559 -0.2800 -0.3471
  673W        W43585  16.430  12.797   6.405  0.1193  0.2430  0.1779
  674W        W43586  14.449  10.575   3.856  0.0777  0.0848  0.0018
  675W        W43587  15.140   7.876   6.260 -0.0532 -0.0992 -0.0671
  676W        W43588  16.254  11.367   5.268 -0.1889  0.2003  0.1891
  677W        W43589  16.852  11.056   3.123 -0.0125  0.1346 -0.0041
  678W        W43590  16.738  10.189   6.563 -0.0599 -0.0117  0.3796
  679W        W43591  15.598   9.261   4.239  0.1868  0.1711 -0.1751
  680W        W43592  16.758   6.717   5.018  0.0562 -0.0975  0.1085
  681W        W43593  14.431  11.147   5.592  0.1615 -0.2079 -0.3414
  682W        W43594  15.791   9.382   3.484  0.2255  0.1299 -0.0273
  683W        W43595  14.089   8.002   4.492  0.1048 -0.0644  0.0268
  684W        W43596  17.818   7.338   4.735 -0.2029  0.1507 -0.0872
  685W        W43597  17.240   8.514   4.128 -0.0168  0.0187 -0.0152
  686W        W43598  14.854   9.692   6.219 -0.0064  0.2397 -0.3757
  687W        W43599  14.939   8.696   5.887  0.2379 -0.0499  0.0122
  688W        W43600  14.190   9.340   5.383  0.2736  0.3720  0.2826
  689W        W43601  16.803   9.372   7.800 -0.4225 -0.0852 -0.1192
  690W        W43602  17.064   8.110   2.275 -0.0099  0.3322  0.2258
  691W        W43603  16.465  11.166   6.247  0.0191 -0.1549 -0.0834
  692W        W43604  16.928   7.542   6.520 -0.2176  0.0030 -0.1543
  693W        W43605  15.241   9.661   4.319  0.1643 -0.2329  0.1911
  694W        W43606  18.245   6.962   5.926  0.0501  0.0424  0.2112
  695W        W43607  15.145   8.282   3.422 -0.3631  0.2578 -0.1505
  696W        W43608  15.022  10.121   5.975 -0.3456 -0.0845  0.1904
  697W        W43609  16.037  10.647   6.913 -0.1058 -0.0570 -0.0794
  698W        W43610  14.881   9.917   4.519 -0.3835  0.0675 -0.0931
  699W        W43611  16.179   9.658   5.724 -0.4083  0.0442  0.3236
  700W        W43612  15.524   8.854   8.451  0.0676  0.0441  0.0629
  701W        W43613  16.632   9.670   6.847  0.0443  0.4005 -0.1606
  702W        W43614  14.996   8.081   5.426 -0.0210  0.1115 -0.0603
  703W        W43615  15.116   7.007   6.124 -0.3339  0.5344 -0.2412
  704W        W43616  16.447   8.023   6.010  0.0377 -0.1078 -0.0796
  705W        W43617  17.554   9.869   6.435  0.0212  0.1083 -0.0454
  706W        W43618  15.418   8.484   5.774 -0.3897  0.0476 -0.0493
  707W        W43619  15.611   9.646   7.083 -0.0782  0.1028 -0.0082
  708W        W43620  15.756   8.750   4.525 -0.1364 -0.0177 -0.0029
  709W        W43621  16.926  11.471   4.650 -0.2078 -0.3720 -0.1171
  710W        W43622  16.271  10.397   6.197 -0.1173 -0.1630  0.0848
  711W        W43623  14.866   8.688   3.985  0.3261 -0.2059  0.1401
  712W        W43624  15.293   9.981   6.887 -0.0511 -0.3548 -0.1554
  713W        W43625  16.433  10.325   4.117  0.0533 -0.0323  0.1036
  714W        W43626  15.864   8.181   5.840  0.0464  0.2072 -0.1871
  715W        W43627  16.268  10.960   4.947 -0.1367  0.1152  0.0215
  716W        W43628  16.337  10.790   5.932  0.2090  0.0387 -0.1276
  717W        W43629  15.830  10.420   6.523 -0.0944 -0.2042  0.0912
  718W        W43630  16.180   7.315   4.699  0.0618  0.0119  0.2421
  719W        W43631  16.094   9.872   4.063  0.1760 -0.1695 -0.0334
  720W        W43632  16.574   8.421   4.726  0.1865 -0.1616  0.0555
  721W        W43633  17.389   7.829   6.452  0.1151 -0.0012 -0.2441
  722W        W43634  15.721   9.858   4.411  0.1475  0.0964 -0.0500
  723W        W43635  17.441   8.534   7.953  0.0431  0.2410 -0.3741
  724W        W43636  15.932   7.548   8.389 -0.0753  0.0707 -0.2172
  725W        W43637  16.144   8.758   4.849  0.0050 -0.1671 -0.0911
  726W        W43638  14.454  10.232   5.932 -0.2241  0.0924  0.4100
  727W        W43639  17.315  11.086   6.841 -0.2011 -0.0600 -0.2048
  728W        W43640  15.230   8.060   7.512  0.1688 -0.1453 -0.3407
  729W        W43641  16.670   7.698   4.056  0.4543 -0.1931  0.2987
  730W        W43642  15.299   7.183   4.175 -0.0855  0.2285  0.2811
  731W        W43643  15.687   9.949   6.572 -0.2064  0.1946  0.0124
  732W        W43644  17.431  10.368   5.537 -0.0374  0.0773  0.0065
  733W        W43645  16.438   9.301   4.774  0.2948  0.1165 -0.1185
  734W        W43646  17.769   8.073   4.377  0.0012  0.0837 -0.2298
  735W        W43647  16.132   8.504   6.268  0.0602  0.0649 -0.5740
  736W        W43648  17.147   9.506   5.418 -0.1419 -0.2361 -0.3839
  737W        W43649  18.094   9.459   3.911 -0.0052 -0.1367  0.2384
  738W        W43650  15.908  10.042   5.407  0.0503  0.1778 -0.0711
  739W        W43651  15.063   9.362   7.939  0.1475 -0.0401  0.0407
  740W        W43652  17.501  10.864   5.607 -0.0540  0.1387 -0.2059
  741W        W43653  16.995   7.137   5.227  0.1830  0.0138  0.0120
  742W        W43654  16.989   8.007   5.626 -0.0350  0.2239 -0.0457
  743W        W43655  17.918   9.252   7.526  0.1190  0.1502  0.0727
  744W        W43656  16.076   7.898   6.817 -0.1806 -0.1194  0.0347
  745W        W43657  14.599   8.558   7.564 -0.1979  0.2461 -0.0028
  746W        W43658  17.099  10.705   5.353 -0.2055  0.0186  0.1055
  747W        W43659  18.300   8.515   3.689 -0.0604  0.0872  0.0815
  748W        W43660  16.928   7.610   4.473 -0.0746 -0.1990 -0.2092
  749W        W43661  17.605   8.577   4.539  0.1125  0.2137 -0.0764
  750W        W43662  18.058   8.457   4.670  0.1804 -0.1830 -0.1315
  751W        W43663  15.376   9.014   5.775 -0.1700 -0.0421  0.0562
  752W        W43664  17.776   9.180   8.409  0.0459 -0.3007 -0.2991
  753W        W43665  14.145   8.496   4.735  0.1947 -0.1159 -0.2027
  754W        W43666  16.961   8.535   7.777 -0.2804 -0.0980 -0.1631
  755W        W43667  15.615  10.199   3.983  0.2195 -0.1369  0.0405
  756W        W43668  17.215   8.615   5.122 -0.0639  0.0626 -0.0301
  757W        W43669  17.086   7.651   5.097  0.2187 -0.0021 -0.2192
  758W        W43670  15.004   8.865   6.364  0.2841 -0.2469 -0.0335
  759W        W43671  14.553  11.153   6.941  0.0641 -0.0577 -0.1298
  760W        W43672  16.346   7.325   3.826 -0.0914 -0.1220 -0.1016
  761W        W43673  17.121   9.212   5.029 -0.2661  0.0457 -0.1592
  762W        W43674  16.487  11.947   6.673  0.2769  0.1604 -0.0449
  763W        W43675  17.248   9.905   8.863  0.0817  0.3792  0.1390
  764W        W43676  17.663   6.396   4.003 -0.1887  0.1125  0.0541
  765W        W43677  17.243   6.690   7.368 -0.2205 -0.1161 -0.4221
  766W        W43678  15.251  10.608   3.831  0.0600  0.0040 -0.0396
  767W        W43679  16.590   6.259   5.069  0.0548 -0.2046  0.0652
  768W        W43680  15.692  12.516   6.901 -0.1691  0.2665  0.2900
  769W        W43681  13.978  10.439   5.705 -0.2689  0.1247 -0.1457
  770W        W43682  15.132  10.292   5.461  0.0201  0.1862  0.0555
  771W        W43683  15.713   7.715   5.483 -0.4867  0.2977  0.0842
  772W        W43684  17.368   8.010   5.249 -0.1745 -0.2027  0.2539
  773W        W43685  16.842   8.239   5.172  0.5051 -0.0209 -0.0699
  774W        W43686  18.210   7.809   6.340 -0.2260 -0.1270  0.0936
  775W        W43687  17.048   9.718   6.513 -0.0726 -0.1583 -0.2156
  776W        W43688  16.734   8.850   5.986  0.0984 -0.2182 -0.1999
  777W        W43689  17.565  11.707   6.851  0.1919 -0.1423  0.1882
  778W        W43690  17.531  11.459   5.549 -0.0042  0.4211 -0.2726
  779W        W43691  16.997   8.946   6.464  0.0183 -0.0271  0.0758
  780W        W43692  14.458   7.711   8.802  0.0108 -0.0719  0.0671
  781W        W43693  15.853   9.296   7.723 -0.0332  0.1388  0.3219
  782W        W43694  16.668   8.756   5.142 -0.5093  0.0476  0.0578
  783W        W43695  16.274   8.045   4.127  0.4501 -0.1624  0.0773
  784W        W43696  16.669   8.567   5.597  0.1713 -0.0155  0.3133
  785W        W43697  14.599  11.255   8.088  0.0710 -0.0189  0.1419
  786W        W43698  14.379   8.391   6.852 -0.1088 -0.2021  0.0419
  787W        W43699  16.620  11.664   5.528  0.0877  0.0605 -0.2235
  788W        W43700  17.291  11.520   5.012 -0.2488  0.0021 -0.1040
  789W        W43701  17.204   9.862   3.733 -0.0486  0.2879 -0.2384
  790W        W43702  18.030  11.241   4.456 -0.2129 -0.1890 -0.2457
  791W        W43703  16.618   7.097   3.375  0.2104  0.1610  0.1553
  792W        W43704  15.849  10.096   6.149 -0.0129  0.1472 -0.2106
  793W        W43705  15.264  12.284   3.192  0.1794  0.1532  0.4234
  794W        W43706  16.840  10.662   4.087  0.0029  0.1161 -0.0799
  795W        W43707  14.923  12.255   6.520 -0.1166  0.1950  0.0580
  796W        W43708  16.718  10.197   7.658 -0.0890  0.2547 -0.1116
  797W        W43709  17.061   9.389   3.001  0.0706  0.2773  0.0061
  798W        W43710  17.896   9.259   6.381  0.0586 -0.0248 -0.0468
  799W        W43711  18.206   7.447   4.998  0.0809 -0.1278 -0.1138
  800W        W43712  17.543   9.971   7.897  0.1760 -0.2213  0.3640
  801W        W43713  17.558   8.898   5.500  0.2085 -0.0160 -0.0267
  802W        W43714  16.673   7.231   4.857 -0.1446  0.0368 -0.2386
  803W        W43715  15.337   8.133   6.733  0.0168 -0.0397 -0.0581
  804W        W43716  18.795   5.745   7.113 -0.1028 -0.0762 -0.0964
  805W        W43717  14.521  10.380   7.326  0.1140 -0.1765  0.1938
  806W        W43718  17.095  11.279   5.391 -0.0276  0.0104 -0.0392
  807W        W43719  13.411   6.628   4.730  0.2124  0.0347  0.0568
  808W        W43720  18.515   8.161   3.931  0.0454  0.0052 -0.1118
  809W        W43721  17.368   5.592   5.304  0.1146 -0.1335  0.0150
  810W        W43722  17.256   9.007   4.392  0.0558 -0.1844  0.0854
  811W        W43723  16.287   8.471   5.220 -0.4142  0.1227  0.0294
  812W        W43724  16.629  10.913   5.462 -0.0604 -0.0075  0.2030
  813W        W43725  15.458  12.053   6.945  0.2451  0.0156 -0.2468
  814W        W43726  16.622  11.662   6.200 -0.2027 -0.2027  0.0584
  815W        W43727  14.013   7.201   3.457 -0.2936  0.1002 -0.1071
  816W        W43728  17.259   8.948   5.971  0.2318  0.0474 -0.2003
  817W        W43729  14.988   8.756   7.267  0.0551 -0.3147 -0.3441
  818W        W43730  17.856   7.146   5.677  0.2642  0.1915  0.1465
  819W        W43731  15.929   9.102   5.739  0.2470 -0.1724 -0.1803
  820W        W43732  16.799   8.149   4.347 -0.0723  0.0345  0.0763
  821W        W43733  16.673  10.645   6.399  0.0058  0.1144  0.3771
  822W        W43734  14.412   8.284   5.433 -0.0169 -0.0814 -0.3719
  823W        W43735  17.119   7.072   4.292 -0.2502  0.1022 -0.5195
  824W        W43736  18.423   9.266   7.202  0.2439  0.1664  0.1249
  825W        W43737  17.397   7.847   4.704 -0.1101 -0.0317  0.4341
  826W        W43738  17.349   9.487   7.872  0.1796  0.3699 -0.3439
  827W        W43739  13.932   6.087   5.719 -0.0273 -0.2659  0.2097
  828W        W43740  15.877   8.553   4.042 -0.0337 -0.0374  0.0856
  829W        W43741  15.318   9.244   5.192  0.0716 -0.3037 -0.2393
  830W        W43742  14.966   8.576   6.776  0.1074  0.2679  0.2603
  831W        W43743  18.194  10.883   6.304  0.3071  0.0190  0.0393
  832W        W43744  14.636   7.852   5.182 -0.1138 -0.0666 -0.0585
  833W        W43745  17.481  10.627   4.563 -0.0412  0.0045 -0.1038
  834W        W43746  17.072   9.583   6.002 -0.0360 -0.2000 -0.1091
  835W        W43747  16.403  11.350   4.698  0.0359 -0.0305  0.4438
  836W        W43748  18.669   9.579   5.211  0.0545 -0.0012  0.0052
  837W        W43749  18.054  11.062   5.828  0.1516  0.3597 -0.0653
  838W        W43750  15.305   9.184   6.747 -0.0509  0.1474  0.0124
  839W        W43751  16.310  10.469   5.420  0.1207 -0.0921  0.1086
  840W        W43752  17.467  10.558   7.006  0.1244  0.2011 -0.3271
  841W        W43753  16.758   6.267   4.066 -0.1069  0.0264 -0.0796
  842W        W43754  15.625   8.849   4.992  0.2567  0.2796 -0.1320
  843W        W43755  15.758  10.136   2.990  0.1727  0.1500  0.0848
  844W        W43756  18.198   7.940   5.816 -0.2369 -0.1681  0.1667
  845W        W43757  17.590   7.559   5.096  0.1455  0.1455 -0.1821
  846W        W43758  17.149  11.087   2.038  0.1792  0.2926  0.0133
  847W        W43759  17.090   8.518   7.320  0.1339  0.2573 -0.1685
  848W        W43760  17.388  11.206   5.983  0.1416  0.1499  0.0550
  849W        W43761  16.770  11.148   7.438 -0.0422  0.1601  0.3205
  850W        W43762  13.990  10.142   4.330 -0.2976 -0.3934  0.0608
  851W        W43763  16.994   9.036   7.197 -0.0341 -0.2007  0.0034
  852W        W43764  16.397   9.321   5.977  0.3067  0.1594  0.1161
  853W        W43765  16.007  11.079   4.467  0.1940 -0.0534 -0.0800
  854W        W43766  17.785  11.782   6.233 -0.1473  0.2398 -0.0718
  855W        W43767  17.910   8.127   5.120  0.0092 -0.0953  0.0030
  856W        W43768  16.798  11.180   3.929 -0.0440 -0.0454 -0.0707
  857W        W43769  15.744   8.727   6.074  0.2494  0.0167  0.2322
  858W        W43770  17.862   8.607   5.143 -0.3657 -0.0483 -0.2388
  859W        W43771  16.696   6.651   3.594 -0.0796  0.3324  0.2110
  860W        W43772  16.333   9.335   6.692 -0.3776 -0.2377 -0.0117
  861W        W43773  13.874   9.337   4.770  0.0383 -0.0856 -0.0697
  862W        W43774  15.623   9.700   3.918  0.1996  0.0739  0.1216
  863W        W43775  16.602   9.795   6.240  0.0739 -0.2929 -0.1321
  864W        W43776  16.486   8.355   7.784  0.1027 -0.0662  0.0269
  865W        W43777  14.464   8.777   7.117  0.2336  0.2804  0.1694
  866W        W43778  16.166   8.586   5.817 -0.0987 -0.0600  0.0939
  867W        W43779  15.102   8.039   4.741  0.0579  0.4482  0.0300
  868W        W43780  17.825   9.827   3.679 -0.0632 -0.0463 -0.3282
  869W        W43781  14.629   8.463   6.328 -0.1197 -0.2759 -0.1949
  870W        W43782  13.535   8.042   5.698 -0.2326  0.1609  0.1890
  871W        W43783  17.063  10.297   3.528  0.0032 -0.1885 -0.2027
  872W        W43784  16.993  12.873   4.882 -0.0641  0.1253  0.0260
  873W        W43785  15.185   8.588   5.337 -0.1276  0.0086  0.1007
  874W        W43786  19.091  10.073   7.305  0.0597  0.1284 -0.3025
  875W        W43787  14.627   7.895   1.576  0.1649 -0.0326 -0.1324
  876W        W43788  15.941   8.435   7.746  0.1455 -0.2280 -0.2452
  877W        W43789  16.275   8.306   7.333 -0.0812 -0.0914 -0.3948
  878W        W43790  14.288   8.465   3.775 -0.0333  0.0635 -0.1136
  879W        W43791  15.995   8.063   5.362  0.2383  0.0415 -0.2186
  880W        W43792  14.971   9.813   3.938 -0.0323 -0.0014 -0.2421
  881W        W43793  16.586  10.696   2.736 -0.0400 -0.0586 -0.1291
  882W        W43794  16.212  10.089   6.635 -0.1034  0.0915 -0.2082
  883W        W43795  16.027  12.032   6.878  0.1178 -0.1922  0.2861
  884W        W43796  13.550   7.087   6.671 -0.1048  0.4203 -0.2152
  885W        W43797  17.082   9.096   3.948  0.1981  0.0976  0.1309
  886W        W43798  15.512  10.758   6.647  0.2086  0.1452  0.1993
  887W        W43799  16.763   8.958   4.653 -0.3095 -0.1531  0.1168
  888W        W43800  17.599   8.868   6.922 -0.3273 -0.1114  0.0423
  889W        W43801  17.154   7.511   4.009 -0.0252 -0.2356 -0.1240
  890W        W43802  16.344   6.942   6.861 -0.1833 -0.0186  0.1361
  891W        W43803  15.918   8.810   6.632  0.0443  0.1515 -0.2929
  892W        W43804  18.721  10.283   6.468 -0.1785 -0.1207 -0.0663
  893W        W43805  14.731   7.396   6.298  0.4163 -0.2990  0.0549
  894W        W43806  17.125   7.163   3.383 -0.3436  0.2893  0.3749
  895W        W43807  15.665   9.581   5.583 -0.0218  0.0518 -0.2588
  896W        W43808  13.843   8.338   5.305 -0.0811 -0.3162 -0.0075
  897W        W43809  18.391   8.212   4.392 -0.2878  0.1283  0.0267
  898W        W43810  16.015   7.993   6.338  0.2426  0.2904  0.1610
  899W        W43811  17.072   9.991   5.313 -0.4024  0.0481 -0.1029
  900W        W43812  17.490   9.696   6.938  0.0691  0.2409 -0.2183
  901W        W43813  16.652   7.694   5.284 -0.1471  0.0401 -0.0105
  902W        W43814  18.023  10.327   4.639  0.2247  0.1961  0.3571
  903W        W43815  17.723   9.741   8.358  0.1645 -0.0023  0.0526
  904W        W43816  17.381  10.177   7.352  0.1479 -0.0191  0.3045
  905W        W43817  14.705  12.079   7.418  0.1805 -0.0422  0.0799
  906W        W43818  17.164  10.022   5.806 -0.2383 -0.2184 -0.0068
  907W        W43819  14.941   7.423   4.879 -0.0286 -0.3242 -0.1763
  908W        W43820  14.875   9.004   4.411 -0.1182 -0.2998 -0.1520
  909W        W43821  14.903   8.977   5.498 -0.0868  0.2848  0.1845
  910W        W43822  17.372   6.645   6.300 -0.1020 -0.0720 -0.3246
  911W        W43823  14.877   8.218   5.880  0.0564  0.1309 -0.3098
  912W        W43824  16.765   8.699   4.235  0.0364  0.3492 -0.0835
  913W        W43825  16.131  11.897   6.279  0.1290 -0.0546  0.0974
  914W        W43826  17.049   9.654   7.183  0.1641 -0.4881  0.1477
  915W        W43827  12.155   7.623  10.069  0.0346 -0.0878  0.2659
  916W        W43828  15.186   7.977   8.084 -0.2309  0.1603  0.2020
  917W        W43829  16.797   8.914   8.137 -0.1165 -0.2588  0.3289
  918W        W43830  17.297   9.076   8.257  0.0054  0.1911 -0.0075
  919W        W43831  14.155   7.350   8.529  0.1301 -0.2234 -0.1440
  920W        W43832  16.871  10.579   7.396 -0.0964 -0.0528  0.1508
  921W        W43833  15.587   9.150  10.096 -0.1710 -0.0177  0.2957
  922W        W43834  16.022   9.170   9.841 -0.1800 -0.0473  0.3318
  923W        W43835  17.529   8.895   6.423  0.2033  0.1145 -0.0125
  924W        W43836  15.625   7.778   9.627  0.1637  0.1597 -0.0083
  925W        W43837  15.579   8.856   7.514  0.0616 -0.0624  0.3328
  926W        W43838  15.054   6.521   9.070 -0.2371  0.0941  0.2890
  927W        W43839  16.832   7.661   9.347  0.1623 -0.1228  0.0926
  928W        W43840  15.391  10.095   7.627  0.0291  0.2253 -0.1896
  929W        W43841  14.754   8.397   8.100 -0.1071 -0.0485  0.1615
  930W        W43842  14.825   8.427   8.760 -0.0284 -0.2579  0.1920
  931W        W43843  16.423  10.976   8.790  0.2173  0.2368 -0.1452
  932W        W43844  17.717   5.854   9.386  0.1448  0.2265  0.0365
  933W        W43845  15.519   9.640   7.592  0.0516  0.0237  0.2184
  934W        W43846  13.880   9.258   7.760  0.0085  0.2490  0.0546
  935W        W43847  14.623   6.952   9.865 -0.1406 -0.1006  0.4141
  936W        W43848  12.463   8.021  10.215  0.1230 -0.1424 -0.1457
  937W        W43849  16.514   7.146   8.948 -0.3894 -0.0155  0.0409
  938W        W43850  15.104   8.878   8.834  0.0714  0.0805 -0.2775
  939W        W43851  15.739  10.435   7.466 -0.0829 -0.0640  0.0005
  940W        W43852  16.319  10.128   9.722 -0.1223  0.1088 -0.3160
  941W        W43853  14.338   9.983   8.370 -0.1397  0.2365 -0.1046
  942W        W43854  15.258  11.017   9.831 -0.1962  0.2196 -0.1437
  943W        W43855  15.427  11.622   9.833  0.2225 -0.1721 -0.1807
  944W        W43856  17.540   8.696   8.489 -0.0728  0.1172 -0.3091
  945W        W43857  15.123  10.453   6.738 -0.0317  0.3876  0.0869
  946W        W43858  16.756   7.872   8.859 -0.0743  0.3411  0.2502
  947W        W43859  16.105   9.030   8.936 -0.1704  0.0541 -0.1166
  948W        W43860  16.252   8.508   6.829 -0.4762  0.1808  0.0263
  949W        W43861  15.499  10.697   9.537  0.1185  0.0008 -0.1037
  950W        W43862  15.730  11.141   9.934 -0.1522  0.2523 -0.2981
  951W        W43863  14.391   9.757   7.492  0.0325 -0.1776  0.1226
  952W        W43864  16.929   8.113   8.505  0.0063 -0.0527  0.1412
  953W        W43865  16.594   9.711   7.548  0.2716  0.1278  0.0172
  954W        W43866  16.273   8.713   8.077 -0.3716  0.0723 -0.1715
  955W        W43867  16.690   7.188   7.182 -0.0185  0.1772 -0.0222
  956W        W43868  14.423  11.638   9.299  0.3386 -0.1234  0.1286
  957W        W43869  15.619   7.175   8.536  0.1843 -0.0694  0.1583
  958W        W43870  15.342   8.943   8.009  0.1924 -0.2224  0.1559
  959W        W43871  17.653   8.707   9.088 -0.1412 -0.0253 -0.2641
  960W        W43872  14.773   8.714  10.007 -0.2362  0.0002 -0.1066
  961W        W43873  14.158   8.797   7.566  0.0955 -0.0928  0.1739
  962W        W43874  17.529  10.960   7.778  0.3009 -0.0067  0.2528
  963W        W43875  15.988  10.849   9.545  0.3295 -0.2508  0.3188
  964W        W43876  16.906  10.362   8.201  0.0266 -0.1626 -0.2955
  965W        W43877  14.437   8.600   9.195 -0.1683 -0.0889 -0.1479
  966W        W43878  15.242   8.522   7.719  0.0726  0.3396  0.0783
  967W        W43879  17.894   7.613   7.814 -0.0884  0.0673  0.0967
  968W        W43880  14.583  11.197   9.048 -0.0667 -0.3260 -0.0086
  969W        W43881  17.445   9.142   8.760 -0.1310 -0.0251  0.1094
  970W        W43882  17.253   9.604   8.471 -0.1138  0.1033 -0.1796
  971W        W43883  17.370   8.097   8.387 -0.2827 -0.1744 -0.0103
  972W        W43884  15.998   6.307   8.735 -0.0560 -0.0546 -0.0463
  973W        W43885  15.593   9.451   8.098  0.0884  0.0137  0.3528
  974W        W43886  15.890   9.210   8.446  0.0331  0.1083 -0.0231
  975W        W43887  15.570   9.497   9.400  0.1311  0.1155 -0.1677
  976W        W43888  16.966   9.892   8.117 -0.1729  0.1352 -0.1373
  977W        W43889  15.307  10.236   9.585 -0.1272  0.1923  0.0491
  978W        W43890  15.881  11.462   6.978  0.0883 -0.2862 -0.3075
  979W        W43891  13.746   8.448   9.639  0.0592  0.1557  0.1601
  980W        W43892  13.930  10.413   8.334 -0.2727 -0.2547  0.0601
  981W        W43893  14.396   8.399   9.952  0.1374 -0.3208 -0.1097
  982W        W43894  15.043   9.715   9.443  0.1289  0.1519 -0.0019
  983W        W43895  16.921   7.612   7.653 -0.0533 -0.1776 -0.0369
  984W        W43896  16.503   8.419   8.536  0.1350 -0.0451 -0.0424
  985W        W43897  14.267  10.402   9.214 -0.0583 -0.2268 -0.3197
  986W        W43898  17.989  10.151   8.498 -0.2199  0.0171 -0.2505
  987W        W43899  16.178   8.983   7.017  0.2237 -0.3759  0.2338
  988W        W43900  16.048   9.707   7.867  0.2453  0.0341  0.4027
  989W        W43901  12.182   8.253   8.881 -0.0638  0.0008  0.1958
  990W        W43902  12.486   6.015  10.009  0.0012  0.3800 -0.1751
  991W        W43903  13.434   8.716  10.025  0.0170 -0.2599  0.2826
  992W        W43904  13.989   7.869   8.494  0.0086  0.0134 -0.1387
  993W        W43905  15.981   8.650   8.547  0.1432 -0.2059  0.0149
  994W        W43906  13.395   9.062   9.612 -0.2966 -0.0046 -0.0965
  995W        W43907  14.818   9.597   6.745  0.0584 -0.1011  0.0881
  996W        W43908  16.690  10.627   8.562  0.0918 -0.0958 -0.0583
  997W        W43909  17.512   9.239   9.249 -0.0751  0.0660  0.1781
  998W        W43910  17.184  10.230   9.227 -0.3595  0.2533 -0.0623
  999W        W43911  15.998   6.604   9.143 -0.3205 -0.0017  0.0096
 1000W        W43912  13.806   8.757   7.983  0.2121  0.1596  0.0473
 1001W        W43913  14.179  12.040   9.512 -0.1319  0.2264  0.0670
 1002W        W43914  15.903   9.556   8.993 -0.0013  0.2143 -0.1743
 1003W        W43915  15.628   7.362   9.366  0.1216  0.1844  0.2620
 1004W        W43916  18.365   9.385   7.911 -0.1495  0.0985  0.0004
 1005W        W43917  16.406   9.417   8.790  0.1334 -0.1118  0.0677
 1006W        W43918  15.147   7.982   9.498 -0.3940 -0.0643  0.1792
 1007W        W43919  15.512   7.902   8.953  0.2234 -0.0240  0.3281
 1008W        W43920  14.122   7.856   7.739  0.0613  0.0765 -0.0890
 1009W        W43921  15.829  10.301   9.562 -0.0838 -0.1627  0.0086
 1010W        W43922  14.785   9.909   7.136 -0.0030 -0.2575 -0.3540
 1011W        W43923  14.977   9.717   7.583  0.3269  0.3141 -0.4492
 1012W        W43924  16.545   9.804   9.119  0.3807 -0.0271 -0.0328
 1013W        W43925  18.339   7.128   9.379  0.1957 -0.0553 -0.0401
 1014W        W43926  15.642   7.160   7.290 -0.1685 -0.0862 -0.1692
 1015W        W43927  17.642   7.204   8.241 -0.2987 -0.1882  0.0917
 1016W        W43928  17.150   8.009   9.122 -0.2827  0.1081 -0.0799
 1017W        W43929  16.168   9.511   7.366 -0.2212 -0.1234 -0.0178
 1018W        W43930  16.440   7.614   7.435 -0.0868 -0.0670  0.2742
 1019W        W43931  16.614   8.683   7.243  0.1247 -0.2242  0.3605
 1020W        W43932  15.727   9.115   7.082 -0.2957 -0.1220 -0.1543
 1021W        W43933  15.995   9.802   9.475 -0.0276  0.4959  0.1438
 1022W        W43934  15.816   8.914   8.024 -0.3401 -0.0440 -0.1136
 1023W        W43935  16.756  10.219   8.835  0.1467  0.2538 -0.0419
 1024W        W43936  13.808   7.547   8.918  0.0232 -0.0577  0.0695
 1025W        W43937  16.728   9.744   9.657  0.1985  0.0768 -0.0274
 1026W        W43938  17.473   7.065   9.616  0.1765  0.1464  0.0296
 1027W        W43939  15.565   8.421   8.130 -0.1583 -0.1232 -0.3073
 1028W        W43940  16.421   7.538   8.455 -0.0943 -0.0114  0.0327
 1029W        W43941  13.690  12.340   8.427  0.0846 -0.2366  0.1327
 1030W        W43942  15.894   8.220   8.888  0.1190  0.1515 -0.3591
 1031W        W43943  17.398   7.625   7.938 -0.2651  0.1736 -0.1943
 1032W        W43944  16.931   8.442   8.832 -0.1134  0.3139 -0.1072
 1033W        W43945  15.257   8.181   8.563  0.0652  0.2849  0.2344
 1034W        W43946  16.302   9.496   8.307  0.2278  0.1253  0.0409
 1035W        W43947  16.924   7.372   8.746  0.0927 -0.1936  0.2488
 1036W        W43948  13.111  11.712  10.030 -0.2143  0.2839 -0.0408
 1037W        W43949  16.515   7.293   9.552 -0.3030  0.0849 -0.0630
 1038W        W43950  15.611  10.012   9.172 -0.0114  0.0849 -0.1789
 1039W        W43951  16.612   8.972   6.864 -0.0050  0.3000  0.3475
 1040W        W43952  14.796   8.834   9.465 -0.1082  0.0816 -0.1851
 1041W        W43953  13.888   9.427   9.528  0.0995  0.1744 -0.1157
 1042W        W43954  16.050  10.826   7.471  0.2220 -0.0662  0.0104
 1043W        W43955  16.047   9.685   9.993  0.1215 -0.3036 -0.0797
 1044W        W43956  15.495  10.940   8.916  0.0943  0.1845 -0.1879
 1045W        W43957  18.008   7.017   7.934  0.1070 -0.1896 -0.1538
 1046W        W43958  15.342   6.481   9.999 -0.0771 -0.1888 -0.1574
 1047W        W43959  14.650   9.048   8.961 -0.1915  0.3885  0.0308
 1048W        W43960  13.849   8.404   7.524  0.0636 -0.3593  0.3677
 1049W        W43961  17.611   6.809   7.775 -0.1121  0.1748 -0.1638
 1050W        W43962  17.198   9.660   9.298  0.1734  0.0360  0.0460
 1051W        W43963  14.606   8.141   9.193  0.1596  0.0675 -0.4363
 1052W        W43964  15.670   8.303   9.837 -0.1387  0.1631  0.0341
 1053W        W43965  14.525  13.195   9.849  0.1940 -0.1023 -0.1490
 1054W        W43966  17.261   8.140   6.945 -0.0528  0.2325  0.1420
 1055W        W43967  14.170   9.241   7.190  0.0026  0.1260 -0.0201
 1056W        W43968  18.132   7.722   8.631  0.0514 -0.0229  0.1039
 1057W        W43969  14.695   7.698   7.316  0.0190 -0.2988 -0.0784
 1058W        W43970  15.615  11.175   9.378  0.0144  0.1382 -0.0598
 1059W        W43971  15.896   8.623   9.183  0.2057  0.0517  0.1041
 1060W        W43972  13.794   9.598   7.421  0.2408  0.0914  0.0535
 1061W        W43973  15.540  10.098  10.027 -0.2548  0.3172 -0.3714
 1062W        W43974  18.183  10.182   9.596 -0.0324  0.0631 -0.0122
 1063W        W43975  14.481   8.799   8.011  0.0441 -0.0717  0.0435
 1064W        W43976  14.483   8.794   8.550 -0.0242  0.0215 -0.1281
 1065W        W43977  14.756   8.337   9.604  0.1875  0.2250 -0.0729
 1066W        W43978  16.058   8.355   9.549 -0.1398  0.0005 -0.1175
 1067W        W43979  13.820   6.268  10.093  0.0671 -0.0891  0.1037
 1068W        W43980  16.255   5.904   9.610 -0.1956 -0.2347 -0.4685
 1069W        W43981  19.205  10.489   8.615 -0.1308  0.3687  0.0545
 1070W        W43982  15.149   9.523   7.130  0.2866 -0.1184  0.2297
 1071W        W43983  13.297   8.149   9.975  0.1972 -0.1348  0.1370
 1072W        W43984  14.886  10.252   7.758  0.1723 -0.0981  0.2307
 1073W        W43985  16.259   7.969   8.645  0.1221  0.2906  0.1597
 1074W        W43986  15.190  11.380   9.476 -0.0640  0.0163  0.2286
 1075W        W43987  15.308  10.605   7.669 -0.0323 -0.1209 -0.0109
 1076W        W43988  15.262   8.928   9.747  0.3195  0.0063  0.3492
 1077W        W43989  16.876   7.620   7.120  0.0506  0.1211  0.2400
 1078W        W43990  16.338   9.272   7.820  0.0848  0.2477  0.0164
 1079W        W43991  14.860   6.484   9.644 -0.1557  0.0851 -0.4413
 1080W        W43992  17.018   9.375   8.919  0.1431 -0.0562  0.1243
 1081W        W43993  15.553   8.217   9.314 -0.0211  0.1454  0.1907
 1082W        W43994  18.036  10.080   8.019  0.2481  0.0508 -0.0555
 1083W        W43995  16.746   8.318   6.949 -0.0599  0.2673 -0.3276
 1084W        W43996  16.485   7.971   8.148 -0.0335  0.0804 -0.2012
 1085W        W43997  14.089   8.738   8.867  0.2377  0.0085 -0.0772
 1086W        W43998  16.607   9.224   9.789  0.0265  0.1276 -0.3084
 1087W        W43999  16.577   9.276   7.322  0.0392 -0.3509  0.1794
 1088W        W44000  16.260   9.401   9.339  0.0616 -0.1990  0.1987
 1089W        W44001  14.610   9.404   9.420 -0.0765  0.0330 -0.0473
 1090W        W44002  15.382   8.886   9.273  0.2726 -0.3032 -0.2752
 1091W        W44003  15.290   9.228   7.480  0.2839  0.1920  0.1662
 1092W        W44004  14.782   9.300   7.372 -0.0757 -0.1373  0.2771
 1093W        W44005  16.520   7.746   9.795 -0.0566  0.1105 -0.0028
 1094W        W44006  17.806   7.089   9.177  0.0637 -0.1683 -0.0335
 1095W        W44007  17.093  11.829   8.947 -0.2352 -0.3061 -0.1535
 1096W        W44008  17.874   8.517   8.144  0.1765  0.0017  0.3317
 1097W        W44009  17.955   6.617   9.261 -0.1146  0.2673 -0.2452
 1098W        W44010  17.073   8.565   8.380  0.1009  0.2807  0.2795
 1099W        W44011  16.343   8.529   9.033  0.2671 -0.3950  0.0075
 1100W        W44012  13.933  10.809   9.591  0.0497  0.3530 -0.3157
 1101W        W44013  14.381   9.290   7.706 -0.4156 -0.2272  0.6105
 1102W        W44014  16.670  10.220   9.405 -0.1252  0.2345 -0.2358
 1103W        W44015  17.186  10.467   8.726  0.1956 -0.1612 -0.1347
 1104W        W44016  15.095   8.612   8.374  0.0634  0.1830  0.0397
 1105W        W44017  13.117   8.866   9.178  0.1876  0.0648 -0.2772
 1106W        W44018  13.731   8.842   8.464 -0.0967 -0.3592  0.0718
 1107W        W44019  15.790   9.963   8.192 -0.2290  0.0728  0.0935
 1108W        W44020  14.915   8.884   7.751  0.0602  0.2039  0.1306
 1109W        W44021  16.040   7.494   6.510 -0.1851 -0.5271 -0.3729
 1110W        W44022  14.582  10.339   8.186  0.0514 -0.1133  0.2821
 1111W        W44023  16.151   6.698   8.329  0.1442 -0.0041  0.1024
 1112W        W44024  15.308   9.694   8.951  0.1737 -0.1075  0.1271
 1113W        W44025  14.970  10.634   8.250 -0.2930  0.3447 -0.1606
 1114W        W44026  16.344   7.605   9.028 -0.3000 -0.2077 -0.2131
 1115W        W44027  17.034   7.307   9.655 -0.1536  0.0552  0.2257
 1116W        W44028  15.026  10.773   8.701 -0.3466  0.0542  0.3044
 1117W        W44029  14.261   9.316   9.991  0.0920  0.0828 -0.1103
 1118W        W44030  16.767   9.411   9.333  0.0785  0.1743  0.3614
 1119W        W44031  13.876   9.201   8.867  0.0577  0.1125  0.1639
 1120W        W44032  14.189   8.200   9.524 -0.0071  0.1719  0.1587
 1121W        W44033  14.797   7.617   8.114  0.2216  0.0130  0.0735
 1122W        W44034  16.515  10.503   6.890  0.0325 -0.1268 -0.2965
 1123W        W44035  13.568   7.954   9.120 -0.0036 -0.2007 -0.3651
 1124W        W44036  15.896   9.921   7.406 -0.3536  0.1204  0.2755
 1125W        W44037  17.134   9.842   7.622  0.1181  0.2346 -0.0631
 1126W        W44038  17.491   8.784   7.472 -0.2110  0.1655  0.2533
 1127W        W44039  14.918  10.781   9.527  0.0794 -0.1017 -0.1889
 1128W        W44040  14.874   9.622   8.415  0.0438 -0.0593  0.0086
 1129W        W44041  14.429  11.682   9.807  0.1322  0.0773  0.2504
 1130W        W44042  14.060  11.640   7.630  0.1607  0.2241  0.3479
 1131W        W44043  16.163  10.195   7.765  0.1452 -0.3313 -0.0789
 1132W        W44044  15.919  10.863   8.558  0.0293  0.3241 -0.4359
 1133W        W44045  17.340   8.207   7.580 -0.2392  0.0364 -0.2219
 1134W        W44046  15.964  10.613   9.966 -0.0109  0.1663 -0.1035
 1135W        W44047  18.400   8.454   8.305 -0.0424  0.1106  0.2670
 1136W        W44048  12.209   6.340   9.722  0.0177 -0.1057  0.1553
 1137W        W44049  16.101   7.536   7.885 -0.1263  0.0509  0.2590
 1138W        W44050  18.894  10.375   8.024  0.0401  0.2226  0.2115
 1139W        W44051  14.780   8.012   8.474  0.0329  0.1396 -0.2814
 1140W        W44052  14.835   9.577   8.933  0.1727  0.0184 -0.2275
 1141W        W44053  19.092   7.747   8.116  0.0654 -0.2152  0.0303
 1142W        W44054  15.723  10.153   7.027 -0.0592 -0.1421 -0.2104
 1143W        W44055  15.710   7.835   7.986  0.4805  0.4069 -0.0538
 1144W        W44056  15.773  10.771   7.916  0.3131 -0.4261  0.2043
 1145W        W44057  15.222   7.661   8.538  0.2176  0.1623  0.1294
 1146W        W44058  15.297   9.313   8.441  0.0013  0.1664 -0.2689
 1147W        W44059  14.347   7.980   8.159  0.1682 -0.0195 -0.0124
 1148W        W44060  18.645   8.305   8.776  0.0790 -0.0840  0.0548
 1149W        W44061  13.417   5.968   9.781 -0.0303 -0.1334  0.1759
 1150W        W44062  13.489   9.590   7.800 -0.2269 -0.1560  0.2555
 1151W        W44063  16.978   8.920   8.676  0.2623  0.0108  0.2187
 1152W        W44064  13.078   9.322   9.908  0.1029  0.0248  0.3033
 1153W        W44065  12.998   7.179   9.713  0.0815 -0.3027 -0.0555
 1154W        W44066  16.121   8.003   7.747 -0.0663 -0.2104  0.1544
 1155W        W44067  16.459   8.954   8.517  0.2601 -0.3755 -0.1323
 1156W        W44068  13.552   7.521   8.391  0.0402 -0.0950 -0.3705
 1157W        W44069  16.778   8.111   7.458  0.4478 -0.3189  0.0542
 1158W        W44070  15.056  10.123   9.111  0.2593 -0.1892  0.3617
 1159W        W44071  14.491   7.141   8.824  0.0446  0.0764  0.0997
 1160W        W44072  15.366   7.393   8.109 -0.0942  0.2973  0.2696
 1161W        W44073  17.635   9.850   9.274 -0.2397 -0.1665 -0.1687
 1162W        W44074  16.500   8.068   9.335 -0.0097  0.2072 -0.2022
 1163W        W44075  16.278  11.119   6.948  0.0912 -0.1156 -0.0893
 1164W        W44076  17.146   8.902   9.247  0.1170 -0.2102  0.0202
 1165W        W44077  16.302  10.626   9.212 -0.2075  0.2487 -0.2956
 1166W        W44078  14.293   7.301   9.720  0.0046 -0.2735  0.1497
 1167W        W44079  20.287  10.753   9.844 -0.1329  0.0014 -0.3175
 1168W        W44080  18.391   8.697   9.617  0.2004 -0.1064 -0.1272
 1169W        W44081  16.107   8.277   8.262 -0.2215 -0.0245  0.0543
 1170W        W44082  15.939   7.920   9.265  0.0965 -0.0534  0.0155
 1171W        W44083  15.034  11.371   8.219 -0.0155  0.0440 -0.0818
 1172W        W44084  21.105   9.284   9.609 -0.0207  0.4794 -0.0666
 1173W        W44085  15.418  10.848   8.318  0.1150 -0.0266  0.2627
 1174W        W44086  13.525   7.560  10.246  0.0952  0.0775 -0.1581
 1175W        W44087  15.615   9.633   6.138 -0.1344 -0.1053  0.0343
 1176W        W44088  15.847   8.591   7.137  0.2423  0.1428  0.1143
 1177W        W44089  15.934  10.406   8.222 -0.2012 -0.3286 -0.0638
 1178W        W44090  17.691  10.184   9.703 -0.0256 -0.0856  0.2324
 1179W        W44091  15.712   8.044   8.464  0.0876  0.2835 -0.0818
 1180W        W44092  18.761   8.705   8.026  0.2237 -0.1053  0.0245
 1181W        W44093  14.758   5.328   9.815  0.2411 -0.0447  0.1169
 1182W        W44094  18.803   6.954   7.668  0.1674  0.1129 -0.0036
 1183W        W44095  15.956   7.094   8.159  0.0621  0.0554 -0.0420
 1184W        W44096  14.448   6.484   9.922 -0.1612  0.0687  0.2523
 1185W        W44097  14.198   9.311   6.707 -0.4431  0.2124 -0.0221
 1186W        W44098  15.697   9.407   6.633  0.1839  0.2799  0.0542
 1187W        W44099  14.270   8.858  10.240  0.3464 -0.0204 -0.4165
 1188W        W44100  15.086   9.242   9.267 -0.0559 -0.0644 -0.1787
 1189W        W44101  14.515   6.687   8.182 -0.0380 -0.3353  0.1220
 1190W        W44102  16.635   8.881   7.650 -0.4846 -0.0150  0.1917
 1191W        W44103  15.415   5.206   9.520  0.1401  0.2409  0.1606
 1192W        W44104  14.421   7.814   9.899 -0.0701 -0.1281 -0.1078
 1193W        W44105  16.779   9.802   8.541  0.1218 -0.2699  0.1886
 1194W        W44106  17.719  10.533   8.024 -0.0383  0.1407 -0.1257
 1195W        W44107  15.803   6.808   7.741  0.1983 -0.0928  0.0473
 1196W        W44108  14.854  10.757   7.398 -0.2489 -0.0326 -0.0563
 1197W        W44109  14.702   8.055   7.742 -0.0581 -0.3154 -0.1938
 1198W        W44110  15.843   7.558   8.925  0.0595 -0.0096  0.0735
 1199W        W44111  16.626   9.038   9.031  0.0101 -0.0053  0.1271
 1200W        W44112  17.874  10.293   7.414  0.0324  0.0203 -0.0376
 1201W        W44113  15.495   5.463   7.689  0.0574  0.0527 -0.3635
 1202W        W44114  15.474   8.548   8.923  0.0417 -0.1398  0.1588
 1203W        W44115  18.354   7.959   8.983  0.0377 -0.2461  0.2363
 1204W        W44116  16.031   7.931   9.871 -0.2905 -0.0764  0.1194
 1205W        W44117  15.783  10.173   8.717  0.1806 -0.3358  0.3915
 1206W        W44118  17.674   9.626   8.845  0.2092 -0.1571 -0.2100
 1207W        W44119  15.559   6.382   9.060 -0.3090 -0.0964 -0.0433
 1208W        W44120  17.699   7.750   8.373 -0.1067 -0.4516  0.0419
 1209W        W44121  16.447  10.206   8.350 -0.1413 -0.0245  0.0049
 1210W        W44122  13.887   8.970   9.878  0.0553  0.0616 -0.1606
 1211W        W44123  16.850   7.597   8.225  0.1712  0.0356  0.1125
 1212W        W44124  15.217   8.407   9.754  0.0261  0.0172 -0.0946
 1213W        W44125  15.241   9.805   8.003 -0.2863  0.1167 -0.1958
 1214W        W44126  18.362   9.032   6.750 -0.1381 -0.0881 -0.1222
 1215W        W44127  15.861   9.106   9.377 -0.1833 -0.0479  0.1144
 1216W        W44128  14.960  11.526   9.927 -0.3419 -0.1344 -0.0516
 1217W        W44129  15.540   9.194   8.918  0.2539  0.2940  0.2334
 1218W        W44130  15.296   5.929   9.075  0.2750  0.0298  0.0115
 1219W        W44131  15.262  10.033   8.501 -0.1899 -0.1801 -0.2818
 1220W        W44132  15.430  10.391   8.152  0.1252  0.2217 -0.3996
 1221W        W44133  16.326   6.713   8.787 -0.0012 -0.0573 -0.1752
 1222W        W44134  14.393   7.709   9.374  0.0055  0.0643  0.1104
 1223W        W44135  14.867   6.598   7.764  0.1803 -0.0293  0.0162
 1224W        W44136  15.806  11.751   9.321  0.2943  0.0882  0.0742
 1225W        W44137  16.834   8.419   9.285  0.0235 -0.1721 -0.5824
 1226W        W44138  16.234  14.233   0.815 -0.1145 -0.0590  0.2093
 1227W        W44139  17.746  13.486   1.588 -0.3727 -0.0992  0.1759
 1228W        W44140  16.677  10.838   1.161 -0.0029  0.2631  0.0899
 1229W        W44141  18.628  12.958  31.779  0.0279 -0.1485  0.3489
 1230W        W44142  14.487  12.451   0.134 -0.2805 -0.1620  0.0191
 1231W        W44143  17.099  14.032  31.908 -0.1747  0.0983 -0.0228
 1232W        W44144  15.525  11.404   3.712  0.4385  0.1653 -0.0479
 1233W        W44145  18.339  14.029  31.524  0.1904 -0.1041  0.0028
 1234W        W44146  18.198  14.849  31.496 -0.1412 -0.2834 -0.0392
 1235W        W44147  15.654  13.194  31.404 -0.1231  0.0868 -0.1513
 1236W        W44148  17.008  11.367   0.152  0.2980  0.0422 -0.1522
 1237W        W44149  15.293  15.469   3.314 -0.0164 -0.1933 -0.2299
 1238W        W44150  15.976  10.962   0.603 -0.0609 -0.1223 -0.0136
 1239W        W44151  13.943  12.712   0.297 -0.3991 -0.0672  0.0022
 1240W        W44152  16.608  13.916   1.435 -0.1598 -0.2087 -0.1172
 1241W        W44153  15.308  14.575  30.940  0.1932 -0.3763  0.3458
 1242W        W44154  16.180  13.143   1.699  0.2321  0.0300 -0.0296
 1243W        W44155  15.242  12.631   1.002  0.5292 -0.0222 -0.2383
 1244W        W44156  17.310  13.291   0.810  0.3531  0.1535 -0.0682
 1245W        W44157  15.718  12.205   2.366 -0.1174  0.2774 -0.0992
 1246W        W44158  15.986  13.063   3.312 -0.0442 -0.2915  0.3689
 1247W        W44159  17.016  14.103  31.364 -0.0468  0.0717 -0.0040
 1248W        W44160  14.729  15.415  31.039  0.1736 -0.4096  0.0033
 1249W        W44161  14.022  13.344   0.275  0.2581 -0.1840  0.0287
 1250W        W44162  16.501  12.394   2.411 -0.1329  0.0582 -0.1616
 1251W        W44163  16.535  12.328   1.376 -0.0286  0.1755 -0.0948
 1252W        W44164  17.687  12.945   0.732  0.0692  0.2340  0.1100
 1253W        W44165  17.163  14.920  31.918  0.0102 -0.0723  0.0768
 1254W        W44166  16.832  13.013  31.672 -0.3214  0.2356 -0.2752
 1255W        W44167  16.936  13.325   4.040  0.0459  0.1196  0.0063
 1256W        W44168  15.082  13.540   2.073  0.0989  0.1285 -0.0970
 1257W        W44169  14.665  15.217   0.032  0.1288 -0.3145  0.5885
 1258W        W44170  15.965  14.029  30.422 -0.2099 -0.3913  0.4292
 1259W        W44171  18.550  12.828   1.537  0.4882 -0.2285  0.2242
 1260W        W44172  17.831  15.337   2.452  0.0333  0.1089 -0.3022
 1261W        W44173  15.939  14.210   2.241  0.2124  0.0394 -0.0008
 1262W        W44174  16.111  14.189  31.833 -0.1228 -0.2851  0.1086
 1263W        W44175  16.322  15.618   3.601  0.1366  0.1840 -0.0224
 1264W        W44176  14.846  14.159   2.867 -0.3160 -0.0446 -0.1827
 1265W        W44177  17.214  12.825   0.460  0.0759  0.0531 -0.1675
 1266W        W44178  18.061  13.219   1.011 -0.2205 -0.1247 -0.0126
 1267W        W44179  18.831  15.501  31.982 -0.0324 -0.2139  0.0705
 1268W        W44180  17.384  13.405   0.340 -0.3320  0.0575 -0.5435
 1269W        W44181  15.371  13.908   2.227 -0.0752  0.2619  0.1968
 1270W        W44182  14.469  14.234   2.272 -0.4034 -0.0896  0.3162
 1271W        W44183  15.626  13.621   4.828 -0.2526  0.4319  0.0303
 1272W        W44184  15.751  14.556  31.605  0.0990  0.0346  0.0828
 1273W        W44185  16.518  12.560  31.244  0.2163 -0.0926 -0.0308
 1274W        W44186  16.740  12.652  30.767  0.0159  0.0119 -0.0461
 1275W        W44187  16.620  10.802  31.859  0.1109 -0.2029  0.2883
 1276W        W44188  15.833  11.423   0.232 -0.0693  0.1734 -0.0885
 1277W        W44189  16.865  15.185   0.309  0.1023  0.3418  0.3052
 1278W        W44190  15.001  12.054   2.003  0.1016 -0.0309 -0.2519
 1279W        W44191  18.067  13.502   2.472  0.0105  0.1462 -0.1021
 1280W        W44192  14.987  13.591   0.510  0.0099 -0.0300  0.1263
 1281W        W44193  15.893  12.101   1.840  0.1898  0.0219  0.1109
 1282W        W44194  14.598  13.593   2.418 -0.2963  0.1843  0.3603
 1283W        W44195  15.083  14.336   0.232  0.0416  0.0904  0.0262
 1284W        W44196  17.284  13.020  31.445  0.3203 -0.0482  0.2506
 1285W        W44197  19.359  14.596   1.482 -0.3604  0.0974  0.0076
 1286W        W44198  15.647  14.560  30.606  0.0482 -0.1821 -0.1864
 1287W        W44199  15.836  14.083  31.433  0.1965  0.0766  0.0875
 1288W        W44200  14.724  12.946   1.963 -0.0909  0.1294 -0.1116
 1289W        W44201  14.631  12.123   2.317  0.3357  0.0075 -0.0195
 1290W        W44202  17.739  12.283  30.541 -0.1359 -0.2873 -0.0851
 1291W        W44203  18.633  13.696   3.888  0.0435 -0.1539  0.3420
 1292W        W44204  15.931  13.605   3.428 -0.2621  0.1250  0.0343
 1293W        W44205  16.520  10.761   0.685 -0.3216 -0.1188 -0.2145
 1294W        W44206  15.626  12.209   0.882 -0.1503 -0.4246  0.3847
 1295W        W44207  17.972  13.882   0.504  0.0824  0.1118 -0.0150
 1296W        W44208  16.961  14.470  31.776 -0.1122 -0.1393  0.0982
 1297W        W44209  17.542  10.844   0.852  0.0781 -0.2090  0.0656
 1298W        W44210  16.918  11.495   2.422 -0.2732 -0.0940 -0.1324
 1299W        W44211  17.015  13.434  31.282  0.2058  0.1603  0.1112
 1300W        W44212  15.512  13.096   1.026  0.3872  0.2363 -0.1766
 1301W        W44213  18.226  14.971   2.081 -0.1939 -0.4251 -0.0108
 1302W        W44214  19.343  12.624  31.022  0.0188  0.1345 -0.1838
 1303W        W44215  14.215  15.200  31.740 -0.2550  0.1292 -0.1230
 1304W        W44216  15.281  12.359   1.428 -0.0789 -0.2126  0.0063
 1305W        W44217  16.145  13.666   2.502  0.3110  0.0243 -0.0639
 1306W        W44218  15.540  13.927  30.112 -0.1749 -0.1754  0.1177
 1307W        W44219  13.278  14.305   1.000 -0.1216  0.2407  0.4294
 1308W        W44220  15.752  15.117  31.983 -0.0238  0.1674 -0.1597
 1309W        W44221  14.415  12.629   3.176 -0.0936 -0.3100  0.0912
 1310W        W44222  16.903  14.175   2.409  0.0627 -0.0515 -0.0315
 1311W        W44223  17.782  12.839  31.682  0.2592 -0.2145 -0.0174
 1312W        W44224  15.431  10.946   3.510 -0.1145  0.1301  0.0442
 1313W        W44225  17.095  11.156   0.962  0.1535  0.0440 -0.1714
 1314W        W44226  14.517  14.217   1.464 -0.1788  0.0493  0.0133
 1315W        W44227  17.322  15.072   0.392 -0.3078  0.1743  0.0134
 1316W        W44228  17.281  12.444   0.083  0.3046 -0.0899 -0.0550
 1317W        W44229  16.305  13.913  31.380 -0.1813 -0.2213  0.1973
 1318W        W44230  13.917  13.379  31.728 -0.0958 -0.0623 -0.0143
 1319W        W44231  16.015  12.619   0.810 -0.1043 -0.1062 -0.1726
 1320W        W44232  17.419  11.982   5.022 -0.1322 -0.0648  0.4180
 1321W        W44233  15.276  12.868   1.445 -0.0620  0.0790 -0.1677
 1322W        W44234  17.143  14.161   1.994  0.0078  0.0960  0.0568
 1323W        W44235  15.363  10.083   0.553  0.0037  0.3017  0.1018
 1324W        W44236  15.751  12.633   1.219  0.2991  0.2890 -0.0123
 1325W        W44237  14.176  12.090   0.411 -0.1376 -0.2692 -0.0945
 1326W        W44238  15.310  14.359  31.378 -0.1082  0.0206 -0.1031
 1327W        W44239  17.146  11.113   2.686  0.0473  0.1490 -0.1035
 1328W        W44240  16.329  14.766  30.866  0.1429  0.0566 -0.0381
 1329W        W44241  17.637  14.091   0.823  0.3141  0.0061  0.1276
 1330W        W44242  19.331  15.402  31.420 -0.1031  0.0130  0.1939
 1331W        W44243  14.510  12.441   2.743 -0.2664 -0.0425 -0.0140
 1332W        W44244  15.595  13.159  30.901  0.2480  0.4029 -0.0083
 1333W        W44245  15.319  14.299   1.043  0.2044  0.2342 -0.0842
 1334W        W44246  16.593  12.943   1.457  0.1108  0.0150 -0.1838
 1335W        W44247  15.254  12.668  31.665  0.0569 -0.1091 -0.0497
 1336W        W44248  18.958  14.770   1.061 -0.0059 -0.1774 -0.0362
 1337W        W44249  16.680  11.522   1.509  0.2778 -0.1189 -0.3798
 1338W        W44250  15.649  12.735   2.397 -0.0053  0.1722  0.2260
 1339W        W44251  16.344  12.176   1.990  0.4026 -0.1670 -0.2568
 1340W        W44252  18.964  13.698   2.954 -0.2118 -0.2002  0.3457
 1341W        W44253  17.366  12.509   1.979  0.1676  0.1178  0.0652
 1342W        W44254  16.401  12.148  31.646  0.0160 -0.3391  0.2294
 1343W        W44255  16.670  14.016   0.956  0.2519 -0.2545 -0.0469
 1344W        W44256  14.469  14.437  31.534  0.0051  0.1450 -0.1630
 1345W        W44257  14.791  12.670   2.435 -0.0708  0.2895 -0.2271
 1346W        W44258  17.832  14.082  31.741  0.0146 -0.2174  0.0320
 1347W        W44259  17.681  12.549   1.068 -0.4478  0.0294  0.1294
 1348W        W44260  14.935  13.551   3.366 -0.0219  0.1308  0.0086
 1349W        W44261  17.757  12.429   1.628 -0.1816 -0.0509 -0.1743
 1350W        W44262  16.656  13.344   0.569 -0.1980  0.2191  0.1571
 1351W        W44263  15.882  14.367   1.181  0.2204 -0.2093  0.2386
 1352W        W44264  16.675  11.604  31.906  0.2701 -0.1667 -0.2713
 1353W        W44265  17.339  11.251  31.741  0.2777  0.1584  0.1374
 1354W        W44266  16.074  12.897   2.810  0.0257 -0.0286 -0.3645
 1355W        W44267  18.539  13.572  31.315  0.2102 -0.0948 -0.0120
 1356W        W44268  16.141  10.795  31.740 -0.2687  0.5074 -0.0697
 1357W        W44269  17.396  11.873  30.456  0.0820 -0.0722 -0.0396
 1358W        W44270  15.569  12.830   3.142  0.2069 -0.1010  0.2495
 1359W        W44271  17.244  14.480  31.124  0.1496  0.2996 -0.2035
 1360W        W44272  16.106  12.494   1.591 -0.4569 -0.0741  0.2753
 1361W        W44273  16.241  12.971   0.575 -0.4135  0.0184  0.1222
 1362W        W44274  19.007  13.897  30.545 -0.0102  0.1772 -0.4660
 1363W        W44275  15.768  13.956   0.852  0.0954 -0.2202 -0.2105
 1364W        W44276  15.575  12.779   1.803  0.2009  0.0102  0.2010
 1365W        W44277  16.453  13.512  30.552  0.1732  0.3168  0.0145
 1366W        W44278  15.727  11.965   0.108 -0.1445 -0.0325  0.1443
 1367W        W44279  15.873  12.738  30.735  0.2141 -0.0023 -0.2768
 1368W        W44280  15.330  11.655   0.152  0.0812 -0.1325  0.1125
 1369W        W44281  15.129  15.335  31.324 -0.0110 -0.0671 -0.3887
 1370W        W44282  17.618  10.847   1.775 -0.0669  0.1305  0.1361
 1371W        W44283  16.914  13.146   1.102 -0.0709  0.2417  0.1788
 1372W        W44284  15.708  12.088   1.368  0.1898 -0.2651 -0.0454
 1373W        W44285  17.577  12.414   3.165  0.0599  0.3946  0.1291
 1374W        W44286  18.422  13.469  31.840  0.1697 -0.1218 -0.3545
 1375W        W44287  16.759  12.774   0.619  0.0965  0.1393 -0.1070
 1376W        W44288  15.585  12.689  31.211  0.1459  0.2702  0.2631
 1377W        W44289  14.863  10.940   3.729 -0.0885  0.1127 -0.2383
 1378W        W44290  14.957  13.272   2.538 -0.1337  0.2805  0.1319
 1379W        W44291  14.446  15.927   3.326 -0.3998 -0.2123  0.0183
 1380W        W44292  17.319  14.095   1.244 -0.0760  0.1298 -0.4349
 1381W        W44293  17.549  13.768  29.829  0.0417  0.2119  0.2476
 1382W        W44294  16.406  12.760   3.518  0.1007 -0.1392 -0.1638
 1383W        W44295  15.723  11.747   0.563  0.0595  0.2093 -0.0775
 1384W        W44296  15.586  15.411  31.565  0.1303 -0.0283 -0.4236
 1385W        W44297  16.699  13.742  31.555 -0.0786 -0.1435  0.1288
 1386W        W44298  15.408  11.308   1.403  0.4132  0.1316  0.2664
 1387W        W44299  15.800  13.501   1.087  0.1315 -0.0422  0.1234
 1388W        W44300  15.566  13.511  29.022  0.0048 -0.0252  0.1190
 1389W        W44301  17.076  14.472   0.311 -0.2032  0.1421 -0.1378
 1390W        W44302  15.075  13.865   1.011 -0.0309 -0.0230  0.2433
 1391W        W44303  19.201  10.067   3.140  0.2881  0.0464  0.1402
 1392W        W44304  13.094  14.829   1.743 -0.0278 -0.0873  0.0460
 1393W        W44305  15.960  14.024   0.402  0.0663 -0.1394  0.1978
 1394W        W44306  15.356  12.035   0.438  0.0265 -0.0780 -0.0340
 1395W        W44307  17.294  11.512   0.554 -0.1264 -0.2505 -0.1464
 1396W        W44308  18.190  12.076  30.791 -0.0459  0.2425 -0.0789
 1397W        W44309  14.203  11.745   2.372  0.0529 -0.0223  0.0516
 1398W        W44310  15.652  11.565  31.748  0.1121 -0.1724  0.1715
 1399W        W44311  14.386  13.725   1.552 -0.1816 -0.0206 -0.0325
 1400W        W44312  16.972  12.117   2.213  0.1153 -0.3681 -0.0225
 1401W        W44313  15.791  12.828  31.746 -0.0493  0.0754  0.0235
 1402W        W44314  17.281  13.746   2.807 -0.1134  0.1766  0.0804
 1403W        W44315  14.595  13.839   3.144  0.0833 -0.2598 -0.0969
 1404W        W44316  15.974  11.838  30.589 -0.0602  0.0097  0.1038
 1405W        W44317  18.329  12.927   2.006  0.1148 -0.1600  0.0032
 1406W        W44318  15.221  13.038   0.521 -0.1351  0.0001  0.1858
 1407W        W44319  14.346  14.421   0.834  0.3343  0.2389 -0.1017
 1408W        W44320  17.108  14.252   0.849 -0.0827 -0.2228 -0.0896
 1409W        W44321  17.218  13.791   0.855  0.1634 -0.1794 -0.4697
 1410W        W44322  15.319  14.714  31.774  0.1769  0.2492 -0.1536
 1411W        W44323  15.602  12.418   2.822  0.0828  0.1119  0.3170
 1412W        W44324  18.250  13.676   0.872 -0.1267  0.0832 -0.1686
 1413W        W44325  17.873  13.520   0.157  0.0797  0.0972 -0.4211
 1414W        W44326  14.141  11.632   0.994  0.2238 -0.3432 -0.0565
 1415W        W44327  17.030  12.274   0.560 -0.0054  0.0487 -0.0512
 1416W        W44328  16.111  13.053   1.089  0.2084  0.0953  0.0160
 1417W        W44329  16.432  12.585   4.212 -0.0847 -0.1671 -0.0274
 1418W        W44330  15.580  13.661   2.912 -0.0729 -0.1929  0.2069
 1419W        W44331  16.382  12.579   0.242  0.0265 -0.0170 -0.2736
 1420W        W44332  17.410  14.302  31.576  0.2788  0.0861  0.0163
 1421W        W44333  16.093  13.407   2.897  0.0432 -0.4491  0.3533
 1422W        W44334  16.259  14.356   0.289  0.3136 -0.2991 -0.2284
 1423W        W44335  14.946  14.119   3.426 -0.0847  0.0927 -0.2505
 1424W        W44336  15.433  13.480   0.261  0.0436 -0.1686 -0.1464
 1425W        W44337  17.241  11.724   1.435  0.1654 -0.1280  0.6168
 1426W        W44338  15.773  13.630   2.083 -0.1045 -0.1450 -0.0984
 1427W        W44339  16.143  13.466   0.371 -0.0729 -0.3236  0.0215
 1428W        W44340  15.421  14.012   0.349  0.0012  0.3441 -0.0710
 1429W        W44341  18.518   9.865   0.271 -0.0540 -0.0027 -0.4153
 1430W        W44342  16.159  14.218  28.939  0.0777  0.0178 -0.2290
 1431W        W44343  17.261  12.898  31.926  0.1308  0.1195 -0.1022
 1432W        W44344  17.477  12.170   1.358  0.0412 -0.1038  0.1078
 1433W        W44345  17.750  13.297  30.803  0.3054  0.2738 -0.0404
 1434W        W44346  15.716  12.182   3.305  0.1478  0.0680  0.1004
 1435W        W44347  15.410  11.185   0.432 -0.3553  0.0672 -0.1296
 1436W        W44348  18.253  14.598   2.352  0.2113  0.1629  0.1151
 1437W        W44349  15.227  11.813   1.618  0.2095  0.1251 -0.0016
 1438W        W44350  16.121  14.426   1.625 -0.0889 -0.1645  0.1563
 1439W        W44351  14.528  12.995   3.980 -0.1115 -0.0351  0.0432
 1440W        W44352  16.962  12.142   1.185  0.0311  0.0585 -0.0452
 1441W        W44353  14.629   9.682   0.892 -0.3551  0.3853 -0.1817
 1442W        W44354  16.827  13.739   1.907  0.0309  0.0133  0.0131
 1443W        W44355  17.699  13.607   0.915  0.1304 -0.0958 -0.0922
 1444W        W44356  16.834  12.650   0.102  0.0606  0.3224 -0.1441
 1445W        W44357  17.754  11.306   0.715 -0.0277 -0.0368 -0.0402
 1446W        W44358  14.723  13.955   1.918  0.0681 -0.1595 -0.3014
 1447W        W44359  18.823  13.210   0.553  0.0792 -0.0134 -0.1127
 1448W        W44360  14.679  14.042   0.510 -0.0434 -0.0627 -0.1140
 1449W        W44361  14.862  13.205   1.559 -0.1812 -0.0804 -0.2458
 1450W        W44362  15.588  13.120   2.709 -0.3328  0.0914 -0.2006
 1451W        W44363  16.564  12.348   0.708 -0.1190 -0.0576 -0.2929
 1452W        W44364  16.177  11.281  31.879  0.0533 -0.0039  0.0645
 1453W        W44365  16.725  11.967   1.702 -0.0935 -0.1940  0.1401
 1454W        W44366  16.456  11.745   2.641 -0.1721 -0.1610  0.2678
 1455W        W44367  15.048  12.538   1.823 -0.1687 -0.0016  0.2275
 1456W        W44368  15.259  11.864   2.439  0.2737 -0.1599 -0.0840
 1457W        W44369  18.494  14.034   1.258  0.1473  0.1523  0.2312
 1458W        W44370  18.083  10.057   1.499  0.0629  0.0400  0.1885
 1459W        W44371  16.738  11.930   2.948  0.1839  0.0741  0.0069
 1460W        W44372  18.829  13.370   0.084  0.0287  0.1936 -0.0060
 1461W        W44373  18.257  13.211  31.402  0.0052  0.0585 -0.1902
 1462W        W44374  16.462  13.527   0.989  0.4782 -0.0726 -0.0741
 1463W        W44375  17.307  13.240   3.195 -0.1011  0.0975  0.1760
 1464W        W44376  15.194  13.406  30.527 -0.1081  0.1366  0.0625
 1465W        W44377  16.422  12.536   2.920  0.5855 -0.0033 -0.4051
 1466W        W44378  16.450  15.281  29.492 -0.0144  0.0808  0.0154
 1467W        W44379  17.154  13.596   1.307 -0.0058  0.1124 -0.0003
 1468W        W44380  16.801  13.619   0.194 -0.0978 -0.3613  0.0783
 1469W        W44381  14.752  12.534   0.933 -0.0235 -0.0054 -0.4706
 1470W        W44382  14.792  15.503   3.370  0.3025  0.1639  0.0424
 1471W        W44383  14.112  12.547  30.195 -0.0941  0.0057 -0.0098
 1472W        W44384  14.558  13.009  31.514  0.2755 -0.0536  0.1155
 1473W        W44385  17.305  12.678   1.462  0.1688  0.3201  0.1523
 1474W        W44386  16.471  13.290   2.594 -0.0614 -0.3435  0.1875
 1475W        W44387  15.564  12.287  31.579 -0.2014  0.1605 -0.2219
 1476W        W44388  16.377  11.751   3.551 -0.1765 -0.1230 -0.1625
 1477W        W44389  14.902  14.431   0.773 -0.1359  0.0724  0.1138
 1478W        W44390  16.964  12.396   1.695  0.1197 -0.0633  0.1153
 1479W        W44391  14.312  14.471   1.869  0.0613 -0.2618 -0.1244
 1480W        W44392  15.410  14.389   2.142  0.1074 -0.0255  0.1283
 1481W        W44393  16.467  13.880   0.560  0.2632 -0.0319  0.1533
 1482W        W44394  15.760  13.098   1.455  0.0292  0.0560  0.1431
 1483W        W44395  16.926  12.679   2.245 -0.0425 -0.1091  0.1751
 1484W        W44396  15.458  13.501   2.420 -0.1860  0.1883  0.0358
 1485W        W44397  18.143  12.872   2.652 -0.0093  0.0928 -0.0075
 1486W        W44398  16.488  13.101   3.090 -0.1776 -0.1052 -0.0742
 1487W        W44399  14.446  12.505   1.834 -0.4990  0.0822 -0.1390
 1488W        W44400  18.294  13.426   1.418  0.1771 -0.0681 -0.0711
 1489W        W44401  19.359  12.526   0.698  0.2168 -0.1310 -0.1171
 1490W        W44402  16.680  14.246   1.811  0.0129 -0.0970  0.0613
 1491W        W44403  14.150  12.988   3.572 -0.1203 -0.0450 -0.1258
 1492W        W44404  16.064  12.392   2.628 -0.1282  0.1550 -0.0819
 1493W        W44405  17.244  13.239   2.096 -0.2941 -0.3224  0.0299
 1494W        W44406  15.158  10.924  31.480  0.1566  0.1323 -0.0825
 1495W        W44407  16.269  15.740  29.670  0.2634  0.0720  0.0280
 1496W        W44408  15.205  13.173   3.613 -0.3224 -0.2063 -0.1224
 1497W        W44409  14.837  12.686   1.395 -0.0666 -0.1662 -0.0964
 1498W        W44410  13.761  14.843   0.225  0.2808  0.1167  0.1359
 1499W        W44411  16.858  13.382  30.217  0.2003  0.1194  0.2076
 1500W        W44412  16.435  13.319  31.584 -0.1047  0.1432  0.2019
 1501W        W44413  15.669  14.491   0.671 -0.1665  0.1594  0.2248
 1502W        W44414  14.949  12.647  31.239 -0.5331 -0.0745 -0.0794
 1503W        W44415  15.295  15.288   1.111 -0.1126  0.2110 -0.0867
 1504W        W44416  13.427  12.597   0.997 -0.2101  0.5607 -0.1171
 1505W        W44417  17.693  15.401   0.498 -0.2755  0.2629 -0.2628
 1506W        W44418  14.822  14.728  31.882  0.0486  0.1243 -0.2123
 1507W        W44419  17.099  11.433  31.350 -0.1405  0.1492  0.1019
 1508W        W44420  18.148  12.757   1.158 -0.1929 -0.1006 -0.0458
 1509W        W44421  17.953  12.455  31.186  0.0570  0.0628 -0.3300
 1510W        W44422  18.213  13.851   1.700 -0.0989 -0.0861  0.3012
 1511W        W44423  16.798  12.618   1.101 -0.0876 -0.1749 -0.2199
 1512W        W44424  14.872  11.816   0.293 -0.1076 -0.0313 -0.2337
 1513W        W44425  16.000  12.517   3.138 -0.0028 -0.0250  0.2582
 1514W        W44426  18.337  11.369   3.732  0.1174  0.3823  0.2274
 1515W        W44427  15.300  15.726   3.862 -0.1143 -0.0788 -0.0987
 1516W        W44428  16.771  15.590  29.772 -0.1105  0.0435  0.2610
 1517W        W44429  16.479  11.458  31.140 -0.0946  0.1514 -0.2415
 1518W        W44430  14.589  11.960   1.149 -0.2530  0.0548 -0.0718
 1519W        W44431  17.118  12.265   3.200  0.0881  0.0223 -0.1490
 1520W        W44432  15.702  13.748  31.063 -0.1407  0.1470 -0.1120
 1521W        W44433  17.877  12.071   0.952  0.2302 -0.0396  0.1655
 1522W        W44434  16.080  14.685  31.894 -0.2828  0.2592  0.0702
 1523W        W44435  15.624  15.045   0.625  0.2232 -0.1364 -0.0815
 1524W        W44436  15.986  14.782   0.416  0.3325  0.0859 -0.0960
 1525W        W44437  14.148  12.726  31.386  0.0246 -0.0829 -0.1837
 1526W        W44438  17.560  12.479   0.566 -0.0105  0.0183 -0.5469
 1527W        W44439  14.672  13.102   3.405  0.0382  0.1333 -0.0004
 1528W        W44440  17.415  11.476   2.350 -0.0684 -0.0511  0.1617
 1529W        W44441  14.499  13.273   0.767 -0.0999 -0.1792  0.0462
 1530W        W44442  17.238  12.697   0.976 -0.0402  0.0667  0.3362
 1531W        W44443  16.520  13.451   1.555  0.2136 -0.0990 -0.1041
 1532W        W44444  13.719  11.866   2.536 -0.3038 -0.0981  0.1273
 1533W        W44445  15.549  12.434   0.071  0.1950  0.0171 -0.2249
 1534W        W44446  17.821  12.481   2.207 -0.2006 -0.0581  0.1507
 1535W        W44447  17.013  11.706   0.877 -0.1981 -0.2569 -0.1012
 1536W        W44448  17.452  14.840   1.898 -0.3127  0.1361  0.1421
 1537W        W44449  14.954  11.265   0.051  0.1954 -0.2514  0.1711
 1538W        W44450  17.856  10.676   0.079 -0.1577  0.2127  0.0626
 1539W        W44451  14.600  14.617   0.363 -0.0613 -0.0623  0.2538
 1540W        W44452  15.209  12.904   2.205 -0.0179 -0.2841 -0.0050
 1541W        W44453  17.317  12.480   2.541 -0.2822 -0.3291  0.0604
 1542W        W44454  14.572  11.699   0.690 -0.0325 -0.2267  0.2243
 1543W        W44455  16.990  13.429  30.718 -0.0809  0.2892  0.0872
 1544W        W44456  17.460  13.090   1.694 -0.0987  0.2152 -0.0093
 1545W        W44457  16.451  14.153  30.403 -0.1443  0.1229 -0.0683
 1546W        W44458  18.400  14.654   0.351 -0.2218 -0.0502  0.0020
 1547W        W44459  17.008  14.876  31.320  0.2655  0.0537  0.1496
 1548W        W44460  15.335  13.272  31.787 -0.1646  0.0408  0.1265
 1549W        W44461  16.895  14.061   0.482  0.1842  0.0108  0.0382
 1550W        W44462  18.728  13.582   1.652  0.4664  0.0076  0.1636
 1551W        W44463  16.111  11.734  31.497  0.3009 -0.3152  0.1835
 1552W        W44464  15.207  12.417   2.353  0.5683 -0.0710  0.1951
 1553W        W44465  15.734  15.880  31.772  0.0751 -0.2989 -0.3275
 1554W        W44466  17.039  11.581   1.954 -0.0850  0.0522  0.2755
 1555W        W44467  17.220  12.764   2.965  0.0033 -0.1496  0.0577
 1556W        W44468  15.348  14.044  30.931  0.1842  0.1931  0.0639
 1557W        W44469  16.489  11.201   3.552 -0.2210  0.0672 -0.2326
 1558W        W44470  17.407  13.727   1.819 -0.3213 -0.2063  0.0464
 1559W        W44471  15.603  15.248   3.959 -0.1416  0.1281  0.1515
 1560W        W44472  14.973  14.719  31.353  0.3377 -0.0638 -0.1399
 1561W        W44473  16.552  14.729   1.599 -0.2262 -0.0357  0.0848
 1562W        W44474  18.730  12.224   1.768  0.0740  0.0970  0.0715
 1563W        W44475  15.185  15.044  30.906  0.3514  0.2666 -0.1933
 1564W        W44476  17.613  14.410   0.067 -0.6189 -0.0431  0.1215
 1565W        W44477  18.403  13.615   0.341 -0.1088 -0.0300  0.0187
 1566W        W44478  19.217  12.831   2.042  0.1364  0.3085 -0.0577
 1567W        W44479  15.052  12.094   0.912  0.0255 -0.2246 -0.3781
 1568W        W44480  18.628  10.446   1.783  0.0239  0.1568  0.2404
 1569W        W44481  16.866  11.236   0.554 -0.0833 -0.0272  0.0082
 1570W        W44482  15.431  13.250   1.842 -0.3919  0.3037  0.3084
 1571W        W44483  15.537  10.689  31.659 -0.2288  0.1973  0.1877
 1572W        W44484  16.452  13.097   0.133  0.1811 -0.3501  0.1365
 1573W        W44485  15.408  14.498   1.573  0.0760  0.1649  0.0289
 1574W        W44486  16.320  10.999   4.096 -0.2243 -0.0894 -0.1487
 1575W        W44487  14.123  13.485   2.623  0.3820 -0.0420 -0.1996
 1576W        W44488  13.155  13.822   1.116  0.2043 -0.1613 -0.1538
 1577W        W44489  15.197  11.584   0.642 -0.0437 -0.0029 -0.0642
 1578W        W44490  18.466  12.896   0.289  0.0018  0.1735  0.2435
 1579W        W44491  14.811  11.137   1.420  0.1063  0.2845 -0.1356
 1580W        W44492  15.036  12.544   0.453  0.0582  0.0475 -0.0962
 1581W        W44493  17.990  13.600  31.631  0.1004  0.1683 -0.3048
 1582W        W44494  18.646  13.333   1.032  0.4142  0.4554  0.3613
 1583W        W44495  15.414  11.134  31.884 -0.1126 -0.2590  0.0008
 1584W        W44496  18.147  11.597   4.156  0.0415  0.1056 -0.1161
 1585W        W44497  14.937  13.125   0.975  0.0669  0.1187  0.1036
 1586W        W44498  15.431  12.595   3.577  0.0414  0.0694 -0.1040
 1587W        W44499  15.747  11.314   2.162  0.0570 -0.2053 -0.2415
 1588W        W44500  14.368  12.288  30.640  0.0401  0.1238  0.5552
 1589W        W44501  16.543  11.619   2.113  0.0798 -0.2142  0.1676
 1590W        W44502  17.041  14.461  30.414  0.0480 -0.2222 -0.2580
 1591W        W44503  17.829  15.889  31.190  0.0928  0.0539 -0.0177
 1592W        W44504  16.169  13.929   1.287 -0.1164  0.0729 -0.1491
 1593W        W44505  16.196  13.957   1.773 -0.3108  0.0962 -0.1266
 1594W        W44506  16.048  11.859   2.281  0.1651  0.2032  0.0952
 1595W        W44507  18.091  13.078  31.971  0.0703  0.1427  0.1361
 1596W        W44508  16.341  13.511   2.085  0.0065 -0.0429 -0.0024
 1597W        W44509  18.517  12.310   0.444 -0.3329  0.0340  0.2414
 1598W        W44510  18.016  11.575   1.097 -0.0745  0.1950 -0.0055
 1599W        W44511  17.079  13.478  31.759  0.0754  0.2456  0.2067
 1600W        W44512  15.020  10.848   4.655 -0.3311  0.1859  0.2285
 1601W        W44513  15.841  13.093   2.059  0.0095 -0.3071  0.3021
 1602W        W44514  18.977  12.982   2.549 -0.1826  0.2669 -0.0253
 1603W        W44515  15.019  10.869   0.442 -0.1610 -0.1658  0.1135
 1604W        W44516  17.369  12.205   0.909 -0.1902  0.1854  0.1022
 1605W        W44517  16.430  14.694  29.620 -0.0270  0.2382 -0.1022
 1606W        W44518  14.091  13.995   1.945 -0.0289 -0.0760 -0.0972
 1607W        W44519  15.488  12.945   0.153 -0.4234 -0.0262 -0.2501
 1608W        W44520  16.973  13.132   0.187 -0.0248 -0.1456 -0.1233
 1609W        W44521  15.545  12.622   0.598 -0.2145 -0.0948  0.1051
 1610W        W44522  18.694  13.326   3.521  0.0735  0.3067  0.0588
 1611W        W44523  17.445  11.937  31.026 -0.1581  0.1058 -0.0371
 1612W        W44524  18.517  12.861   0.829  0.2621 -0.0601  0.0931
 1613W        W44525  16.339  14.421   2.089  0.3112 -0.1980  0.1314
 1614W        W44526  18.583  14.310   2.840  0.0464  0.0154 -0.0063
 1615W        W44527  16.765  15.457   0.752 -0.0930 -0.1019 -0.1112
 1616W        W44528  17.973  14.365   0.382 -0.1246  0.1436 -0.1252
 1617W        W44529  15.305  11.842   2.937 -0.0352 -0.1500  0.1317
 1618W        W44530  15.920  12.762   0.214  0.2183  0.1371 -0.1290
 1619W        W44531  15.275  13.424   1.367 -0.0411  0.2748  0.4098
 1620W        W44532  17.749  13.900   2.824 -0.3509 -0.0244 -0.1306
 1621W        W44533  15.413  11.721   1.125 -0.3377  0.0149  0.4080
 1622W        W44534  16.668  11.849  31.372 -0.2556  0.0608 -0.0309
 1623W        W44535  14.926  15.248   3.791 -0.0346  0.0246  0.0363
 1624W        W44536  16.986  12.900   1.828 -0.1292  0.0938  0.0062
 1625W        W44537  16.064  14.352   5.569 -0.2929 -0.2726 -0.0961
 1626W        W44538  15.006  13.133   4.263  0.0366 -0.1077 -0.0567
 1627W        W44539  17.116  11.538   3.031  0.1416  0.3175 -0.0653
 1628W        W44540  17.907  13.685   3.308 -0.1394 -0.0885  0.0218
 1629W        W44541  15.251  11.415   5.900  0.2624 -0.0556 -0.0343
 1630W        W44542  17.059  14.422   4.779 -0.1535  0.0533  0.1021
 1631W        W44543  14.677  10.626   6.860 -0.0007  0.1666 -0.0540
 1632W        W44544  16.843  14.660   5.949 -0.3303  0.0605 -0.0391
 1633W        W44545  16.298  14.814   6.296 -0.2353  0.2423  0.2123
 1634W        W44546  17.664  13.381   2.830 -0.0421  0.4767  0.2090
 1635W        W44547  15.114  13.586   5.053  0.0693  0.1202 -0.0886
 1636W        W44548  16.355  14.638   5.816  0.1509 -0.0551  0.0282
 1637W        W44549  16.748  12.562   5.135 -0.1283  0.0642 -0.3179
 1638W        W44550  15.314  11.300   4.922 -0.3269  0.2107  0.0659
 1639W        W44551  17.199  12.746   5.890  0.1132 -0.1768  0.0381
 1640W        W44552  14.133  13.428   5.918  0.1387 -0.1782 -0.1517
 1641W        W44553  15.074  11.908   6.016  0.0974  0.0532 -0.2373
 1642W        W44554  16.373  12.765   5.441 -0.2181  0.0051 -0.1394
 1643W        W44555  17.163  15.426   3.841 -0.3195  0.1178  0.0660
 1644W        W44556  15.807  11.672   6.562  0.1037 -0.1788  0.1247
 1645W        W44557  17.678  12.437   8.482  0.0625  0.0208  0.1636
 1646W        W44558  16.732  14.077   3.436  0.1225 -0.0598  0.1220
 1647W        W44559  14.129  12.194   2.092  0.1657 -0.0661 -0.3998
 1648W        W44560  14.875  11.568   5.057  0.2778  0.1512  0.1222
 1649W        W44561  15.746  12.938   6.293 -0.2165  0.0906 -0.1780
 1650W        W44562  18.109  12.421   5.513 -0.2877  0.2670 -0.0295
 1651W        W44563  16.942  14.100   6.229 -0.1596  0.4867  0.3112
 1652W        W44564  16.561  14.372   5.397 -0.0231 -0.1737  0.2254
 1653W        W44565  16.526  15.259   4.541 -0.4204 -0.1930  0.2141
 1654W        W44566  18.303  13.955   6.863 -0.0621  0.1010  0.0533
 1655W        W44567  14.323  14.384   4.815  0.0570  0.3599  0.0706
 1656W        W44568  15.066  14.598   4.317 -0.1490 -0.4672 -0.1096
 1657W        W44569  15.730  15.500   3.017  0.1362  0.1275  0.2816
 1658W        W44570  18.663  13.621   4.913 -0.0996 -0.2568 -0.0289
 1659W        W44571  18.442  13.521   5.705 -0.0368 -0.2078 -0.0022
 1660W        W44572  15.522  14.002   7.210 -0.1520  0.2776  0.2210
 1661W        W44573  15.438  14.294   4.111  0.1323  0.1821 -0.0657
 1662W        W44574  16.132  14.237   6.619 -0.1172  0.1524 -0.1749
 1663W        W44575  16.368  14.047   7.494 -0.1150 -0.0666 -0.0888
 1664W        W44576  15.881  13.822   6.288 -0.0978 -0.0071 -0.0293
 1665W        W44577  15.560  13.382   5.296  0.1489 -0.0270  0.0640
 1666W        W44578  16.072  16.011   2.320 -0.2047  0.1134  0.0263
 1667W        W44579  16.848  13.681   3.195  0.3805 -0.1699  0.2028
 1668W        W44580  15.926  13.837   5.766 -0.1329  0.1690  0.1594
 1669W        W44581  14.906  13.584   4.501 -0.1540 -0.1135  0.1018
 1670W        W44582  17.967  10.776   6.780 -0.0449  0.3185  0.0197
 1671W        W44583  15.180  15.362   4.240  0.0553  0.0159  0.3143
 1672W        W44584  16.821  13.806   4.287  0.2871 -0.1899  0.0091
 1673W        W44585  15.676  11.635   5.200 -0.1456  0.0829 -0.0134
 1674W        W44586  17.584  13.418   5.021  0.0065  0.2189  0.0142
 1675W        W44587  16.775  10.375   5.522 -0.1193 -0.0584  0.2210
 1676W        W44588  15.763  14.713   4.873  0.3627 -0.1919 -0.0598
 1677W        W44589  16.400  13.921   6.314  0.2942  0.1384 -0.1787
 1678W        W44590  17.755  12.005   7.838 -0.1609  0.0204  0.1226
 1679W        W44591  15.815  13.946   4.403  0.0119 -0.0757  0.1103
 1680W        W44592  16.902  12.385   7.225  0.2407 -0.2168 -0.0257
 1681W        W44593  15.555  14.455   6.332 -0.2471  0.1925  0.2384
 1682W        W44594  15.587  12.144   6.489 -0.0197 -0.2497  0.2830
 1683W        W44595  17.157  14.163   4.288 -0.1648 -0.0604  0.1915
 1684W        W44596  16.820  16.185   4.201 -0.0637 -0.0409  0.0224
 1685W        W44597  17.531  14.505   4.122  0.0456 -0.3159  0.5213
 1686W        W44598  15.402  13.465   4.321 -0.1731 -0.0846 -0.1222
 1687W        W44599  15.370  12.616   6.489  0.1810  0.0340  0.0675
 1688W        W44600  14.223  12.844   6.768 -0.0177 -0.2107 -0.0041
 1689W        W44601  15.671  10.409   3.454 -0.0448 -0.0737  0.1039
 1690W        W44602  18.347  12.765   6.795 -0.0737  0.0991  0.3147
 1691W        W44603  14.701  13.443   6.016 -0.0175 -0.0457 -0.0032
 1692W        W44604  18.871  13.194   5.789 -0.1164 -0.0684  0.0155
 1693W        W44605  15.489  12.440   5.393  0.3026  0.1057  0.0086
 1694W        W44606  17.781  13.999   6.947  0.0752  0.4494 -0.0323
 1695W        W44607  16.664  12.121   3.359  0.1578 -0.2737 -0.0516
 1696W        W44608  17.810  12.567   5.091 -0.3202 -0.0648  0.0803
 1697W        W44609  17.458  11.862   5.809  0.1327  0.0304 -0.1718
 1698W        W44610  16.394  13.659   3.256  0.2103  0.1197  0.3942
 1699W        W44611  16.997  14.147   2.912 -0.0535  0.0405  0.0082
 1700W        W44612  18.410  14.483   6.058  0.2825  0.2533  0.4383
 1701W        W44613  16.514  14.178   3.982 -0.1087  0.0102  0.0029
 1702W        W44614  14.163  13.915   7.156  0.0224  0.2381 -0.1129
 1703W        W44615  16.253  11.821   7.518  0.0235  0.3430  0.0104
 1704W        W44616  17.193  14.016   7.388 -0.1485  0.2557 -0.1611
 1705W        W44617  15.963  15.299   5.641  0.1052  0.1829  0.2104
 1706W        W44618  14.196  12.463   5.423 -0.1341 -0.0304 -0.0052
 1707W        W44619  14.232  12.919   4.815 -0.2894  0.3072 -0.1464
 1708W        W44620  14.289  11.165   7.676  0.0321  0.2667 -0.1274
 1709W        W44621  15.190  11.975   5.183  0.2575 -0.0476 -0.0831
 1710W        W44622  17.796  12.141   3.584 -0.0454 -0.5497  0.3994
 1711W        W44623  15.727  12.268   7.349 -0.0146 -0.2672 -0.5381
 1712W        W44624  17.666  12.972   6.029  0.0080 -0.2630 -0.0132
 1713W        W44625  14.319  13.010   6.193 -0.1350 -0.1679  0.0696
 1714W        W44626  16.882  13.076   3.458  0.0834  0.3040  0.0419
 1715W        W44627  17.471  12.944   4.877  0.1153 -0.3812 -0.1274
 1716W        W44628  16.930  13.567   2.369 -0.0097  0.5721  0.3064
 1717W        W44629  14.145  11.793   6.261  0.0626 -0.2458 -0.1470
 1718W        W44630  15.226  12.448   7.481  0.2397  0.1040  0.0496
 1719W        W44631  16.033  12.081   7.964 -0.1984  0.0879  0.2053
 1720W        W44632  14.470  12.143   6.257 -0.1366 -0.1720  0.3946
 1721W        W44633  17.964  13.442   5.311 -0.2316  0.2738 -0.1337
 1722W        W44634  15.037  11.212   3.307 -0.2732 -0.0430  0.1770
 1723W        W44635  17.111  14.937   5.071 -0.2244  0.0858  0.1965
 1724W        W44636  14.991  12.739   3.896  0.0533 -0.0287  0.1112
 1725W        W44637  15.145  12.234   5.659  0.1210 -0.2134  0.0587
 1726W        W44638  17.669  12.563   5.712 -0.0944 -0.0269 -0.3113
 1727W        W44639  17.277  14.549   2.272 -0.1838 -0.2177  0.0671
 1728W        W44640  19.157  13.682   5.574  0.1680 -0.2173  0.1178
 1729W        W44641  16.263  13.058   4.525  0.2586  0.2492 -0.3728
 1730W        W44642  14.631  12.072   5.815 -0.0715  0.1082 -0.2615
 1731W        W44643  16.341  12.257   5.630  0.0892 -0.4499  0.1459
 1732W        W44644  15.307  13.984   4.450  0.2083 -0.0083 -0.5432
 1733W        W44645  15.783  12.639   5.722 -0.0869  0.0644  0.4276
 1734W        W44646  16.547  11.763   5.049 -0.0152  0.0349  0.1201
 1735W        W44647  18.290  13.982   5.984  0.1867  0.0260 -0.1623
 1736W        W44648  16.026  13.549   3.957  0.0724 -0.3717 -0.1335
 1737W        W44649  15.539  13.074   5.665 -0.0072 -0.0158  0.0942
 1738W        W44650  15.708  11.556   5.674 -0.4835  0.0559 -0.0517
 1739W        W44651  17.788  12.399   6.248  0.1042  0.1486  0.0246
 1740W        W44652  16.722  12.136   5.386  0.2563  0.0362  0.1833
 1741W        W44653  15.958  12.643   4.500 -0.1573  0.2446  0.0449
 1742W        W44654  18.122  15.284   4.180  0.0855 -0.2767 -0.0993
 1743W        W44655  15.370  14.338   3.545 -0.1922  0.0823 -0.1877
 1744W        W44656  15.483  12.364   6.030  0.0337  0.0205 -0.0563
 1745W        W44657  16.020  13.341   5.028  0.0391  0.0869  0.0854
 1746W        W44658  18.741  11.844   5.509 -0.2269  0.1372  0.2189
 1747W        W44659  13.586  12.639   7.552 -0.2141  0.0654  0.1796
 1748W        W44660  17.017  14.095   6.922  0.3210 -0.3376 -0.0828
 1749W        W44661  13.665  12.301   5.199 -0.2512  0.3077  0.1390
 1750W        W44662  15.187  14.664   5.168  0.2832 -0.1762 -0.0068
 1751W        W44663  17.926  11.109   5.330 -0.3899 -0.1293  0.0589
 1752W        W44664  17.271  12.745   3.474 -0.1845  0.0094 -0.1207
 1753W        W44665  15.470  13.945   6.015  0.2461  0.1125 -0.0312
 1754W        W44666  17.116  14.008   3.755 -0.1938 -0.1417 -0.3297
 1755W        W44667  16.856  11.554   3.450  0.1419 -0.2479  0.5134
 1756W        W44668  15.236  13.812   3.878  0.1986 -0.1118 -0.2632
 1757W        W44669  14.925  14.662   7.064 -0.0121 -0.0226  0.1960
 1758W        W44670  15.871  14.577   2.554  0.1759  0.1140 -0.1316
 1759W        W44671  16.453  14.025   5.843 -0.3449  0.0147 -0.0475
 1760W        W44672  15.872  11.840   3.998  0.1194 -0.2907 -0.0526
 1761W        W44673  17.974  14.607   2.795 -0.0592 -0.0459  0.3176
 1762W        W44674  14.026  11.802   7.139  0.0201  0.2890  0.1563
 1763W        W44675  16.218  14.206   8.664 -0.4002  0.2092  0.0392
 1764W        W44676  17.787  14.869   4.943 -0.2929  0.1010  0.1959
 1765W        W44677  16.949   9.481   4.592  0.0910 -0.1204  0.0215
 1766W        W44678  16.050  12.502   2.127 -0.1140 -0.1955  0.1004
 1767W        W44679  17.323  10.450   3.943  0.0571  0.1041  0.1174
 1768W        W44680  14.804  13.417   3.820  0.1130  0.0273 -0.0347
 1769W        W44681  18.536  11.231   5.901  0.0957 -0.1944 -0.2457
 1770W        W44682  17.190  11.581   6.381  0.2867 -0.1851  0.0767
 1771W        W44683  17.965  11.246   6.692  0.3041 -0.3086 -0.1949
 1772W        W44684  18.112  12.207   6.905  0.1955  0.2869 -0.1543
 1773W        W44685  17.697  13.261   3.531 -0.1489  0.0550  0.4846
 1774W        W44686  17.181  13.537   6.554  0.2311  0.2518  0.0822
 1775W        W44687  14.897  14.025   2.375  0.3178  0.0276  0.2376
 1776W        W44688  16.610  11.979   7.184  0.0649 -0.0261  0.1239
 1777W        W44689  14.630  13.225   6.561 -0.2396  0.1621  0.1250
 1778W        W44690  15.367  13.658   6.839 -0.1380 -0.1104  0.3281
 1779W        W44691  17.285  14.726   8.368  0.1370 -0.0685  0.0040
 1780W        W44692  17.736  14.781   6.013 -0.1109 -0.0581  0.2627
 1781W        W44693  17.086  11.011   6.363  0.1317  0.1766 -0.2417
 1782W        W44694  16.397  11.270   5.771 -0.0005 -0.0549 -0.0398
 1783W        W44695  15.716  14.519   3.066 -0.0516 -0.0331 -0.3869
 1784W        W44696  15.245  14.774   3.902  0.1013 -0.2698 -0.2576
 1785W        W44697  15.386  10.523   6.127  0.2303 -0.0656  0.0497
 1786W        W44698  16.313  14.294   7.082 -0.0477  0.1375 -0.0455
 1787W        W44699  15.091  15.602   2.791  0.2655  0.0012  0.0763
 1788W        W44700  15.763  14.812   7.800 -0.1838 -0.2018  0.2119
 1789W        W44701  15.309  14.962   4.720  0.2682 -0.4046 -0.0012
 1790W        W44702  18.041   9.694   6.568 -0.1324 -0.0068  0.1700
 1791W        W44703  15.356  14.462   4.727  0.1611 -0.0091 -0.1534
 1792W        W44704  15.223  11.773   4.658 -0.0601  0.1196  0.1817
 1793W        W44705  14.952  11.084   5.375 -0.0743 -0.3203  0.3960
 1794W        W44706  16.525  13.285   5.585  0.1133 -0.0286 -0.0811
 1795W        W44707  15.951  13.480   4.454 -0.3847  0.1126  0.0514
 1796W        W44708  14.565  10.651   7.769 -0.2474  0.0022  0.0253
 1797W        W44709  17.689  12.176   7.165  0.0280  0.0505  0.1577
 1798W        W44710  14.237  14.680   5.724 -0.1582 -0.4456 -0.1720
 1799W        W44711  16.646  13.650   6.611  0.0814 -0.4496 -0.2754
 1800W        W44712  17.138  13.299   4.567  0.1666  0.0551 -0.1946
 1801W        W44713  16.794  14.338   7.266 -0.0368 -0.0797 -0.0161
 1802W        W44714  16.044  13.833   7.172 -0.0748 -0.2792  0.0129
 1803W        W44715  15.552  11.994   5.531 -0.1240 -0.1538  0.0004
 1804W        W44716  17.563  13.015   6.520  0.0612 -0.0441  0.3933
 1805W        W44717  16.001  12.409   6.479  0.1120  0.0528  0.1905
 1806W        W44718  16.107  14.280   5.087 -0.1550  0.0419 -0.2036
 1807W        W44719  16.640  15.136   5.000  0.3763 -0.2208  0.2509
 1808W        W44720  16.049  12.384   5.237  0.2384 -0.0661 -0.2735
 1809W        W44721  16.282  14.776   5.360  0.3342 -0.1349  0.0725
 1810W        W44722  15.213  12.472   6.981  0.2357 -0.0317  0.1508
 1811W        W44723  18.085  12.664   5.982  0.0305  0.0423 -0.2573
 1812W        W44724  16.091  13.426   5.525  0.0181  0.2794  0.3432
 1813W        W44725  15.367  12.926   5.151 -0.2416  0.1723  0.3441
 1814W        W44726  16.532  14.401   6.248 -0.0143 -0.0663  0.1671
 1815W        W44727  16.127  13.839   4.777 -0.2864  0.4041 -0.1932
 1816W        W44728  16.453  12.828   7.178  0.2447 -0.1569 -0.1951
 1817W        W44729  16.058  14.688   7.428  0.0912  0.0312 -0.0725
 1818W        W44730  18.138  11.356   6.230 -0.1456  0.0571  0.3277
 1819W        W44731  18.386  15.660   3.773  0.1771  0.3073  0.0350
 1820W        W44732  17.913  13.011   6.919 -0.0474  0.1233 -0.0727
 1821W        W44733  16.118  12.156   4.553 -0.0706 -0.1145  0.1500
 1822W        W44734  11.818  12.213   5.460 -0.0046 -0.4222  0.1186
 1823W        W44735  16.255  14.275   4.570 -0.3141 -0.1442  0.1684
 1824W        W44736  16.677  13.212   6.488  0.2875  0.1117 -0.0012
 1825W        W44737  15.642  14.289   5.285 -0.1233 -0.1090  0.1571
 1826W        W44738  15.199  14.584   3.041 -0.0757 -0.3334 -0.1006
 1827W        W44739  15.176  13.188   6.486 -0.0093 -0.0383 -0.0230
 1828W        W44740  16.688  10.686   4.981 -0.0864  0.1840  0.0667
 1829W        W44741  16.499  13.984   2.277 -0.2720  0.1898 -0.0344
 1830W        W44742  15.937  12.954   5.337  0.2718  0.1702 -0.2825
 1831W        W44743  18.861  11.848   6.143  0.1623  0.0355  0.0589
 1832W        W44744  16.939  11.995   3.873  0.1412  0.0689  0.0614
 1833W        W44745  18.384  11.557   6.947 -0.1040  0.0313 -0.1050
 1834W        W44746  15.750  10.884   5.939 -0.0763  0.1189 -0.0691
 1835W        W44747  17.562  14.554   4.658  0.0672  0.0559 -0.1882
 1836W        W44748  13.647  12.178   7.715  0.1548  0.0876 -0.0493
 1837W        W44749  17.242  15.263   7.022 -0.1850 -0.2250  0.1545
 1838W        W44750  15.952  12.696   7.311  0.2207 -0.0553  0.2784
 1839W        W44751  15.924  10.503   5.783  0.0275  0.0408 -0.0314
 1840W        W44752  17.070  11.569   5.794  0.0234  0.1220 -0.2155
 1841W        W44753  13.575  13.595   5.939  0.1798 -0.1250 -0.0526
 1842W        W44754  17.316  13.083   6.991 -0.1110 -0.0674 -0.0349
 1843W        W44755  16.813  14.608   2.818  0.1699 -0.2210 -0.0399
 1844W        W44756  18.555  12.289   5.250  0.0417 -0.1660 -0.0810
 1845W        W44757  15.237  13.437   5.909 -0.2594 -0.0360  0.1243
 1846W        W44758  18.060  13.841   5.609  0.1631  0.2054  0.0372
 1847W        W44759  16.886  13.405   2.815 -0.0305 -0.3864  0.0202
 1848W        W44760  16.328  14.711   4.277 -0.0409 -0.0792  0.0080
 1849W        W44761  14.862  11.251   7.332  0.2315 -0.0895  0.0136
 1850W        W44762  16.971  14.244   5.697 -0.1983 -0.0826  0.0001
 1851W        W44763  17.392  13.973   6.604 -0.1587  0.1339  0.0604
 1852W        W44764  16.944  13.604   6.987  0.3579  0.3700 -0.1444
 1853W        W44765  16.815  13.731   5.642 -0.0338 -0.0270 -0.1912
 1854W        W44766  16.141  13.314   6.385  0.3089 -0.0369 -0.0761
 1855W        W44767  14.408  11.687   8.253  0.2325  0.0192  0.1468
 1856W        W44768  18.722  14.721   6.341  0.0860  0.3675 -0.0101
 1857W        W44769  16.758  12.879   2.678  0.0965  0.0038 -0.2039
 1858W        W44770  18.517  12.340   4.316  0.2066 -0.1367 -0.3365
 1859W        W44771  17.914  13.665   4.724  0.1047 -0.0389  0.0076
 1860W        W44772  15.673  12.617   4.933 -0.2325 -0.1736 -0.2101
 1861W        W44773  13.713  12.207   5.666  0.1509 -0.2114 -0.0471
 1862W        W44774  16.039  12.927   6.805 -0.4204 -0.0938  0.0498
 1863W        W44775  16.231  12.606   5.982  0.2777  0.2037 -0.2143
 1864W        W44776  17.148  13.102   6.268 -0.2942  0.2527 -0.1281
 1865W        W44777  17.078  14.933   2.511  0.2897  0.3217 -0.2872
 1866W        W44778  16.959  14.675   5.449  0.0107 -0.2891 -0.0388
 1867W        W44779  15.854  14.173   3.421 -0.2807  0.1018  0.0449
 1868W        W44780  15.569  11.129   5.319 -0.2680  0.2239  0.1005
 1869W        W44781  15.952  13.318   7.254 -0.1471  0.1744  0.0265
 1870W        W44782  15.608  12.112   4.951  0.0021  0.0765  0.0453
 1871W        W44783  16.398  13.302   3.603 -0.0327  0.2094  0.0072
 1872W        W44784  17.212  14.665   7.492  0.0407  0.1446 -0.1889
 1873W        W44785  18.339  13.263   6.726  0.0406 -0.0068 -0.2720
 1874W        W44786  16.542  13.092   5.075 -0.0337  0.1170  0.2611
 1875W        W44787  18.856  12.319   7.636 -0.2044 -0.2992 -0.0558
 1876W        W44788  15.246  12.358   4.152  0.5936 -0.0328 -0.1815
 1877W        W44789  17.621   9.437   4.649 -0.0313 -0.0216  0.0194
 1878W        W44790  14.003  14.319   6.332 -0.0661  0.4442 -0.0114
 1879W        W44791  13.727  12.715   7.037  0.3741  0.4532  0.2077
 1880W        W44792  15.311  14.038   5.050 -0.1849 -0.0236 -0.0313
 1881W        W44793  17.703  12.084   5.433  0.1521 -0.7166  0.3287
 1882W        W44794  16.738  14.361   4.373 -0.2939  0.0949 -0.2971
 1883W        W44795  17.622  14.408   6.286 -0.1225  0.2005 -0.2557
 1884W        W44796  17.311  11.005   7.329 -0.4318 -0.0606  0.0906
 1885W        W44797  16.639  14.461   6.752  0.0984  0.2836  0.1933
 1886W        W44798  15.741  13.419   5.960  0.0406  0.0497 -0.0244
 1887W        W44799  17.539  15.797   5.160 -0.1575 -0.2241  0.0553
 1888W        W44800  17.547  14.069   5.541  0.2017  0.0455 -0.4099
 1889W        W44801  14.629  13.416   5.180 -0.0023  0.2281  0.0047
 1890W        W44802  15.595  12.165   8.301  0.0947 -0.1888  0.0754
 1891W        W44803  17.942  11.627   5.780 -0.2947 -0.0777  0.1953
 1892W        W44804  16.145  13.091   5.864  0.0639  0.0602  0.1655
 1893W        W44805  16.809  12.005   5.851 -0.0126  0.1248 -0.1801
 1894W        W44806  16.941  15.008   3.685  0.0172 -0.0604 -0.0100
 1895W        W44807  14.097  13.672   7.782 -0.0724  0.4474  0.1153
 1896W        W44808  13.712  12.008   6.277  0.0851  0.0630  0.0562
 1897W        W44809  14.847  15.030   4.431  0.3825 -0.1310  0.1726
 1898W        W44810  17.665  14.737   3.194  0.1212  0.0722 -0.1209
 1899W        W44811  16.995  13.774   4.845 -0.1255 -0.2666 -0.3108
 1900W        W44812  16.177  14.768   3.461 -0.2937 -0.0238  0.0894
 1901W        W44813  15.370  12.755   4.508 -0.3371  0.0111  0.1163
 1902W        W44814  13.756  14.158   5.107  0.3331 -0.1784 -0.1093
 1903W        W44815  15.746  14.125   4.829  0.1925 -0.0731 -0.0016
 1904W        W44816  16.666  13.680   3.791 -0.0015 -0.2131 -0.3178
 1905W        W44817  16.453  15.785   4.276  0.0750  0.0954  0.1908
 1906W        W44818  17.726  13.219   7.373 -0.0167 -0.2601 -0.1399
 1907W        W44819  16.143  11.696   4.384  0.0199 -0.1432  0.1445
 1908W        W44820  18.545  13.137   4.758  0.3587 -0.2619  0.0536
 1909W        W44821  17.695  11.383   4.088 -0.2256 -0.5151  0.2087
 1910W        W44822  15.760  13.352   6.765  0.3405  0.1711  0.1110
 1911W        W44823  16.636  14.124   4.824 -0.1278  0.1231 -0.0164
 1912W        W44824  16.417  12.201   5.003  0.3117 -0.2618  0.2333
 1913W        W44825  14.222  13.426   6.918  0.6704  0.0058  0.3656
 1914W        W44826  17.200  11.492   8.504  0.0649  0.2825  0.4829
 1915W        W44827  15.352  14.378   6.914  0.0400 -0.0614 -0.4928
 1916W        W44828  16.228  15.335   2.656  0.2057  0.1181 -0.0960
 1917W        W44829  15.930  12.164   5.816  0.2866  0.1173  0.3410
 1918W        W44830  15.878  13.831   5.204 -0.1329 -0.0044 -0.2073
 1919W        W44831  16.784  11.080   6.983  0.0003 -0.2547  0.1736
 1920W        W44832  16.714  13.157   2.098 -0.2087  0.0862  0.0078
 1921W        W44833  16.789  11.543   6.761  0.1384 -0.0971 -0.0682
 1922W        W44834  16.054  15.650   4.682  0.0980 -0.2100 -0.0408
 1923W        W44835  16.507  13.488   4.774  0.1248 -0.4794  0.0814
 1924W        W44836  16.431  13.869   5.298  0.2601 -0.2206 -0.0420
 1925W        W44837  16.089  11.674   4.887  0.1595 -0.0447 -0.1225
 1926W        W44838  17.279  12.445   4.839  0.4890 -0.0534  0.2371
 1927W        W44839  17.388  12.626   6.394  0.1598 -0.2848  0.2314
 1928W        W44840  17.290  12.551   6.867 -0.1956  0.3977  0.1887
 1929W        W44841  14.354  13.009   5.304 -0.1673  0.0249  0.0132
 1930W        W44842  17.976  13.102   4.932  0.3637 -0.0280  0.2245
 1931W        W44843  15.637  14.368   5.772  0.4620  0.0347  0.0774
 1932W        W44844  15.038  13.260   6.952 -0.2853 -0.3503 -0.4127
 1933W        W44845  15.997  14.379   3.940 -0.0778 -0.2530 -0.1828
 1934W        W44846  19.471  12.421   7.574 -0.3524 -0.1977 -0.1935
 1935W        W44847  17.286  11.994   1.837  0.1298 -0.2642  0.0244
 1936W        W44848  16.510  14.773   7.158 -0.0061 -0.0753 -0.1059
 1937W        W44849  16.723  12.996   5.977  0.1698 -0.2618  0.0123
 1938W        W44850  16.765  12.921   4.427 -0.0217  0.4697 -0.0489
 1939W        W44851  14.725  12.298   5.353 -0.0941 -0.1445  0.2312
 1940W        W44852  15.469  12.944   6.858 -0.2038  0.2052 -0.1156
 1941W        W44853  18.621  15.118   7.004 -0.0462 -0.0382 -0.1174
 1942W        W44854  15.356  10.728   5.619  0.2957  0.1870  0.2234
 1943W        W44855  17.867  13.790   2.062  0.1502 -0.0047 -0.2174
 1944W        W44856  18.409  13.011   5.720  0.1838  0.0242 -0.4071
 1945W        W44857  15.411  15.257   2.526  0.0848 -0.2764  0.0221
 1946W        W44858  17.239  13.438   3.610 -0.1717  0.0251 -0.2059
 1947W        W44859  16.303  14.290   3.069  0.1964 -0.2172 -0.0192
 1948W        W44860  14.876  11.116   5.945 -0.1101 -0.0735  0.0734
 1949W        W44861  17.647  16.042   4.274  0.0080 -0.0016 -0.5067
 1950W        W44862  17.481  13.411   6.151  0.4961  0.0114 -0.0983
 1951W        W44863  17.107  11.864   5.417  0.1037 -0.1598 -0.3965
 1952W        W44864  16.966  12.026   6.551 -0.1273 -0.2901 -0.0483
 1953W        W44865  15.273  13.249   4.754 -0.0805 -0.0493  0.0362
 1954W        W44866  16.731  12.520   5.813 -0.0903  0.1946 -0.1837
 1955W        W44867  17.241  12.019   6.986 -0.2916 -0.1840  0.0491
 1956W        W44868  16.552  13.922   2.806 -0.4008 -0.1656 -0.0206
 1957W        W44869  18.527  10.747   6.819 -0.1555 -0.1015  0.1025
 1958W        W44870  16.945  14.820   6.913 -0.0731 -0.1644 -0.1044
 1959W        W44871  15.274  13.882   7.727 -0.0452 -0.2475 -0.1516
 1960W        W44872  15.480  12.873   3.988 -0.0520  0.2202  0.1175
 1961W        W44873  17.406  13.659   7.038  0.1205 -0.1436 -0.0448
 1962W        W44874  16.046  14.303   6.069  0.0818  0.0178  0.4595
 1963W        W44875  16.954  14.452   3.937  0.0539 -0.2216  0.2238
 1964W        W44876  17.742  13.859   6.200 -0.0690  0.0510  0.0098
 1965W        W44877  16.958  14.120   5.223  0.2608 -0.1021 -0.2524
 1966W        W44878  17.893  14.246   5.188 -0.0494 -0.1167 -0.2176
 1967W        W44879  16.235  12.518   6.909 -0.0048  0.3157  0.3252
 1968W        W44880  17.305  12.704   5.326 -0.0355 -0.2913 -0.1926
 1969W        W44881  17.165  12.302   5.593 -0.3161 -0.1638 -0.2783
 1970W        W44882  14.906  14.041   5.999 -0.2646  0.3615  0.1151
 1971W        W44883  14.833  12.075   3.719  0.1526 -0.5318  0.1644
 1972W        W44884  15.419  13.531   3.435  0.1217 -0.0931  0.3143
 1973W        W44885  14.952  13.819   5.515 -0.3046 -0.4900 -0.1655
 1974W        W44886  16.288  11.547   6.556 -0.1492  0.1437 -0.2310
 1975W        W44887  14.965  11.988   6.973 -0.1330 -0.2748  0.3927
 1976W        W44888  14.827  12.868   5.248 -0.1475  0.2894  0.1632
 1977W        W44889  16.214  11.706   5.827  0.1876 -0.3193  0.3351
 1978W        W44890  18.650  13.883   2.564 -0.0176 -0.0164 -0.2458
 1979W        W44891  15.915  11.173   6.601  0.0671 -0.1975 -0.1197
 1980W        W44892  17.561  14.210   3.721 -0.0748  0.6520  0.0550
 1981W        W44893  17.093  14.449   6.522 -0.0792 -0.2932 -0.0852
 1982W        W44894  16.233  12.275   3.603 -0.0326 -0.0771 -0.1932
 1983W        W44895  18.512  12.830   6.303 -0.2388  0.1433  0.2139
 1984W        W44896  15.380  13.769   1.752  0.0366  0.0571 -0.2080
 1985W        W44897  17.304  12.292   7.548  0.3198 -0.2662 -0.1177
 1986W        W44898  15.731  11.768   7.340 -0.1309 -0.0696  0.3433
 1987W        W44899  15.762  12.364   4.104 -0.1295  0.1775  0.0868
 1988W        W44900  15.983  12.986   4.062  0.0693 -0.1252 -0.0989
 1989W        W44901  16.227  13.911   3.677 -0.0992 -0.1832 -0.1434
 1990W        W44902  17.388  13.793   3.298 -0.2555  0.1852 -0.2192
 1991W        W44903  15.255  12.865   6.049 -0.1391  0.0563 -0.0911
 1992W        W44904  18.845  13.712   6.022 -0.1210 -0.1835  0.0916
 1993W        W44905  13.964  10.578   6.288  0.0502 -0.0167 -0.3044
 1994W        W44906  17.668  12.810   2.614  0.0214  0.0006  0.1183
 1995W        W44907  17.284  13.874   5.908  0.3087 -0.1574 -0.1916
 1996W        W44908  17.323  13.642   4.100  0.0109 -0.2370 -0.0872
 1997W        W44909  17.736  11.404   4.861  0.1820 -0.1540  0.4104
 1998W        W44910  16.562  14.610   4.968 -0.2344  0.0572  0.2317
 1999W        W44911  13.969  11.303   7.988  0.1442  0.1398  0.1585
 2000W        W44912  15.179  14.276   5.490 -0.2513 -0.2611  0.1386
 2001W        W44913  18.824  12.373   6.262  0.3280  0.0372 -0.1843
 2002W        W44914  16.033  11.884   5.396  0.4591 -0.1760 -0.1475
 2003W        W44915  16.886  12.610   6.263 -0.0769 -0.1546 -0.0280
 2004W        W44916  16.815  14.835   4.306 -0.0195  0.3100 -0.0400
 2005W        W44917  15.130  12.719   5.620  0.1578  0.1868 -0.0480
 2006W        W44918  16.748  13.540   5.203 -0.3283  0.2881  0.0494
 2007W        W44919  15.678  14.034   6.694 -0.1695 -0.1259 -0.1183
 2008W        W44920  15.802  14.102   2.716 -0.0289  0.3001 -0.2128
 2009W        W44921  17.505  13.154   5.372 -0.3279 -0.0115 -0.0864
 2010W        W44922  16.790  12.476   4.678  0.1460  0.3420  0.1921
 2011W        W44923  16.632  12.953   3.867 -0.0659  0.0430  0.2307
 2012W        W44924  16.506  15.268   6.419 -0.2710 -0.1485  0.0141
 2013W        W44925  16.765  15.047   9.010  0.2425  0.0716 -0.0758
 2014W        W44926  15.471  13.810   5.498  0.1372  0.0570 -0.1989
 2015W        W44927  17.132  13.277   5.121 -0.0459  0.0177 -0.0007
 2016W        W44928  15.249  11.783   6.496  0.0658  0.0571 -0.1717
 2017W        W44929  15.717  13.065   4.706  0.0491 -0.2043 -0.2034
 2018W        W44930  16.355  13.539   5.988 -0.1774 -0.1453  0.0781
 2019W        W44931  17.694  13.476   6.608  0.2666 -0.0865 -0.0857
 2020W        W44932  16.369  11.606   7.057  0.1652  0.3483  0.1919
 2021W        W44933  15.078   9.273   4.051  0.3169  0.2065 -0.3267
 2022W        W44934  15.121  14.519   6.033 -0.0566 -0.2275 -0.1211
 2023W        W44935  16.852  12.917   5.469  0.1276  0.0500 -0.1222
 2024W        W44936  14.373  12.179  10.895  0.2409  0.2317  0.0256
 2025W        W44937  15.634  12.426   8.853 -0.0928  0.0071 -0.3621
 2026W        W44938  17.840  11.554   8.170 -0.0588  0.1149  0.2472
 2027W        W44939  17.374  13.368   8.468  0.1235  0.0239 -0.3901
 2028W        W44940  13.995  11.243   8.523 -0.2589  0.0016 -0.1736
 2029W        W44941  17.699  15.178   9.858 -0.1384  0.0932 -0.0930
 2030W        W44942  17.495  14.338   8.647 -0.1456  0.2620  0.0170
 2031W        W44943  18.557  15.634   9.247  0.0016  0.0451  0.1662
 2032W        W44944  17.594  14.269   7.297  0.5022  0.0042  0.4112
 2033W        W44945  13.739  10.324   9.572  0.1735  0.1713 -0.0570
 2034W        W44946  16.477  12.241   8.270 -0.4349  0.2819  0.0101
 2035W        W44947  14.719  11.075   9.986  0.2305  0.3764 -0.1620
 2036W        W44948  17.239  12.791   9.260 -0.2338 -0.3147 -0.1410
 2037W        W44949  16.762  11.827   8.637  0.5813 -0.0278 -0.0459
 2038W        W44950  14.216  11.258   9.662  0.1890  0.0647 -0.2140
 2039W        W44951  16.263  11.911   8.719  0.5588 -0.0498  0.1494
 2040W        W44952  15.261  15.032   7.199  0.2587 -0.2940 -0.0258
 2041W        W44953  15.040  11.054   9.145 -0.1314  0.3465 -0.0126
 2042W        W44954  16.347  13.557   8.896 -0.0779  0.2616 -0.2603
 2043W        W44955  13.682  12.092   6.911 -0.1143  0.1262 -0.0912
 2044W        W44956  13.199  13.533   8.982 -0.1283 -0.3582 -0.0579
 2045W        W44957  18.327  13.345   9.525  0.1730  0.0877 -0.1579
 2046W        W44958  16.574  12.360   8.766  0.0190 -0.3502 -0.0216
 2047W        W44959  17.302  11.350   9.644 -0.4129 -0.2334  0.0204
 2048W        W44960  15.946  14.503   9.104  0.4685 -0.1722  0.0107
 2049W        W44961  15.740  15.701   8.149  0.1066  0.1071 -0.0416
 2050W        W44962  14.774  13.672   7.697  0.1603 -0.1053  0.1862
 2051W        W44963  14.682  12.878  11.462 -0.1285 -0.1399  0.0798
 2052W        W44964  14.724  14.014   8.206 -0.0780  0.0166 -0.2146
 2053W        W44965  18.352  11.764   8.378 -0.2225 -0.0183  0.1909
 2054W        W44966  14.656  13.997   7.342 -0.4144  0.0745 -0.1703
 2055W        W44967  16.547  11.533   8.958  0.1996 -0.0326 -0.0645
 2056W        W44968  15.805  13.478   8.957 -0.0896  0.0976  0.4416
 2057W        W44969  15.115  14.902   7.693 -0.0760 -0.3706 -0.2514
 2058W        W44970  16.150  13.121   9.082 -0.0450  0.2072 -0.3393
 2059W        W44971  15.026  13.110   8.323 -0.2008  0.2834 -0.1190
 2060W        W44972  15.541  14.628   8.250  0.1418 -0.2709 -0.0593
 2061W        W44973  17.525  11.731   7.370  0.2238  0.1125 -0.1458
 2062W        W44974  16.181  13.722   6.718 -0.1824 -0.0983  0.1001
 2063W        W44975  18.010  11.783   7.170 -0.0921  0.1293 -0.0809
 2064W        W44976  15.327  11.847   9.418  0.0785 -0.1602 -0.1224
 2065W        W44977  15.802  13.235   9.429 -0.2704 -0.0524  0.0534
 2066W        W44978  15.930  12.669   9.452 -0.0974 -0.2233 -0.1105
 2067W        W44979  16.847  11.026   8.364  0.7334 -0.1121 -0.3343
 2068W        W44980  16.711  12.337   9.539 -0.2637  0.0052  0.0750
 2069W        W44981  15.539  13.769   8.617  0.0450 -0.1997  0.1874
 2070W        W44982  14.911  11.797   8.446 -0.1657 -0.0579  0.1305
 2071W        W44983  17.318  14.451   7.955  0.2948  0.3437 -0.1259
 2072W        W44984  17.597  13.660   9.255 -0.2814 -0.3370  0.1813
 2073W        W44985  16.569  13.771   7.843  0.1433  0.1382  0.0613
 2074W        W44986  15.239  12.723   9.030 -0.0891 -0.3084  0.1162
 2075W        W44987  14.911  12.788   6.732  0.2474 -0.1815  0.0762
 2076W        W44988  17.218  12.361   8.762 -0.0607  0.4106 -0.1688
 2077W        W44989  16.593  12.023   9.125  0.0740 -0.0877  0.0592
 2078W        W44990  17.682  15.453   9.373 -0.1551 -0.2124  0.1266
 2079W        W44991  17.984  13.424   5.985  0.0771  0.0979 -0.1045
 2080W        W44992  17.752  10.613   8.503 -0.1716 -0.1776  0.2202
 2081W        W44993  16.173  10.167   9.171  0.3426 -0.0967 -0.2161
 2082W        W44994  15.217  12.892   7.272 -0.1679  0.1991  0.0645
 2083W        W44995  17.075  12.865   7.418  0.2152 -0.1456 -0.0968
 2084W        W44996  16.527  13.647   8.406 -0.1495  0.0058 -0.0487
 2085W        W44997  18.866  12.643   6.670 -0.0519 -0.0478  0.0290
 2086W        W44998  15.634  14.542   9.918 -0.1009  0.2332 -0.2267
 2087W        W44999  15.775  14.947   7.107  0.0212 -0.4566  0.0279
 2088W        W45000  15.359  13.348   9.728 -0.0011 -0.1556  0.3933
 2089W        W45001  14.706  13.648   6.909  0.1725 -0.3005 -0.1228
 2090W        W45002  14.799  12.637   9.224 -0.0142 -0.1933  0.2460
 2091W        W45003  14.795  13.158   9.087  0.3756  0.0053  0.1048
 2092W        W45004  17.979  11.606   8.826 -0.1605  0.0358  0.0744
 2093W        W45005  17.405  10.174   8.341 -0.1196 -0.0490  0.0911
 2094W        W45006  14.197  12.415   8.185 -0.1689  0.0894 -0.0076
 2095W        W45007  17.215  14.676   8.945 -0.1906  0.1199  0.1441
 2096W        W45008  18.101  13.170   8.635  0.1315  0.0371  0.0529
 2097W        W45009  15.905  15.229   8.152  0.1415 -0.0247  0.0147
 2098W        W45010  14.703  12.731   8.230  0.1019 -0.1361 -0.0597
 2099W        W45011  13.965  11.849   9.038 -0.0876 -0.0521  0.0873
 2100W        W45012  13.505  14.280   9.719 -0.0285  0.0268  0.0498
 2101W        W45013  15.806  11.958   8.908  0.0200 -0.1977  0.0763
 2102W        W45014  15.698   8.729   9.653  0.1188 -0.1729  0.0062
 2103W        W45015  16.829  13.260   8.448 -0.0809 -0.2247 -0.0332
 2104W        W45016  15.701  13.021   7.601 -0.0243  0.2304 -0.2618
 2105W        W45017  16.500  14.222   8.216  0.3163 -0.2160  0.1807
 2106W        W45018  15.403  16.203   9.694  0.0617 -0.4172  0.0702
 2107W        W45019  16.794  14.946   8.461 -0.1794  0.0017 -0.4623
 2108W        W45020  16.179  12.306   9.135 -0.2225  0.4164 -0.0850
 2109W        W45021  16.166  12.572   7.805  0.0560  0.1120  0.0975
 2110W        W45022  14.581  13.757   9.006 -0.3003  0.2365 -0.1925
 2111W        W45023  18.457  16.607   9.913 -0.0631 -0.0413  0.4226
 2112W        W45024  16.075  11.155   8.202  0.0557  0.0110  0.2202
 2113W        W45025  17.771  15.929   8.967  0.0439  0.1513  0.1292
 2114W        W45026  16.836  13.606   8.946  0.2925  0.1322 -0.0616
 2115W        W45027  16.885  11.205   8.878 -0.0177 -0.2911 -0.1088
 2116W        W45028  16.385  11.379   8.507 -0.1898 -0.1684  0.0133
 2117W        W45029  16.391  11.763   8.146 -0.1229 -0.2304 -0.0232
 2118W        W45030  15.651  13.817   8.117 -0.3435 -0.0021 -0.1259
 2119W        W45031  14.589  14.873   8.373 -0.0264 -0.0483 -0.4289
 2120W        W45032  15.506  13.374   8.303  0.0558  0.0978  0.0996
 2121W        W45033  17.760  13.386   8.869 -0.0980 -0.2299 -0.0063
 2122W        W45034  17.038  10.906   7.887  0.0246  0.1830 -0.1458
 2123W        W45035  14.780  12.153   9.263 -0.1138 -0.0610  0.1136
 2124W        W45036  17.170  12.051   8.385 -0.0692  0.0981  0.1020
 2125W        W45037  17.321  13.112   7.991 -0.0737 -0.0625 -0.1619
 2126W        W45038  17.791  12.574   6.779  0.0265 -0.2561  0.2643
 2127W        W45039  16.305  12.334   7.359 -0.3314  0.0323 -0.1806
 2128W        W45040  17.585  12.165   6.647 -0.3023  0.0799 -0.3153
 2129W        W45041  16.403  13.324   8.051  0.1673  0.0760  0.3691
 2130W        W45042  16.075  12.706   8.847  0.0020 -0.0622  0.2565
 2131W        W45043  16.962  12.184   7.974  0.0643  0.0899  0.2123
 2132W        W45044  19.106  13.083   8.228  0.1828 -0.2361  0.1969
 2133W        W45045  14.136  13.393   8.943  0.1450 -0.1055 -0.0501
 2134W        W45046  16.711  14.924   7.937 -0.2707 -0.0648 -0.0699
 2135W        W45047  13.974  13.953  10.071  0.1592 -0.1758  0.0014
 2136W        W45048  14.551  11.902   8.804 -0.2708 -0.1711 -0.1515
 2137W        W45049  16.313  10.735   8.250 -0.1381  0.1889  0.0990
 2138W        W45050  14.799  14.526   7.586  0.0859 -0.0905 -0.1265
 2139W        W45051  17.959  12.032   8.279 -0.1170  0.0995  0.1842
 2140W        W45052  16.440  10.629   9.725 -0.1981  0.0177 -0.0567
 2141W        W45053  16.904  12.481   8.414  0.2768  0.1199 -0.2307
 2142W        W45054  15.748  12.665   8.418 -0.1204 -0.0919  0.3201
 2143W        W45055  15.158  14.116   6.449  0.3296 -0.0592 -0.1781
 2144W        W45056  15.818  12.029   9.834  0.0834  0.0236 -0.2575
 2145W        W45057  14.728  15.038   9.786  0.1206  0.1764  0.0708
 2146W        W45058  16.964  11.607   9.398 -0.1058 -0.0599 -0.0227
 2147W        W45059  17.362  11.170   8.174  0.1063  0.1064 -0.1195
 2148W        W45060  14.866  13.208   7.430  0.2683  0.2306 -0.2100
 2149W        W45061  15.285  13.320   7.810  0.0395 -0.0487 -0.2222
 2150W        W45062  15.288   9.508   9.894 -0.0793  0.2446 -0.1617
 2151W        W45063  15.250  14.181   8.317 -0.0822 -0.0386  0.3259
 2152W        W45064  14.796  12.690   7.322  0.1282  0.0925  0.2045
 2153W        W45065  16.438  14.009   9.146 -0.1518  0.1593 -0.2055
 2154W        W45066  14.905  15.378   7.693  0.0884 -0.1262 -0.1990
 2155W        W45067  17.441  10.623   9.109  0.4764 -0.1679  0.0720
 2156W        W45068  15.567  13.714   9.436  0.0120  0.0066 -0.0616
 2157W        W45069  16.406  11.207   9.749  0.4009 -0.1030 -0.2452
 2158W        W45070  14.016  12.542   7.712  0.0281  0.0846  0.1379
 2159W        W45071  17.587  11.828   8.585 -0.1797 -0.1886  0.0756
 2160W        W45072  17.647  12.693   7.234  0.5035 -0.0695 -0.1552
 2161W        W45073  15.574  12.302   9.349  0.0480  0.5617 -0.0624
 2162W        W45074  15.978  10.998   9.021 -0.0141 -0.1748 -0.3659
 2163W        W45075  13.731  13.519   9.759 -0.2890 -0.1357 -0.2450
 2164W        W45076  16.688  11.593   7.589 -0.1962 -0.2860  0.1507
 2165W        W45077  15.937  11.541   7.798 -0.0183 -0.0494  0.0519
 2166W        W45078  16.437  13.223   9.519 -0.0359 -0.1453  0.1562
 2167W        W45079  15.474  12.888   8.068  0.0786  0.1371 -0.1676
 2168W        W45080  15.839  15.796   7.671  0.0699 -0.1983 -0.2230
 2169W        W45081  17.451  14.025   8.237 -0.0531 -0.1881 -0.2154
 2170W        W45082  16.376  13.355   6.973  0.2100  0.0511 -0.0017
 2171W        W45083  16.346  14.755   8.292  0.1799 -0.1632  0.3186
 2172W        W45084  18.108  13.010   9.152 -0.0792 -0.3162 -0.2109
 2173W        W45085  15.165  12.503   9.559 -0.0708  0.0710  0.3938
 2174W        W45086  15.911  11.632   8.370  0.2379 -0.3729  0.0583
 2175W        W45087  16.366  15.774   9.662 -0.1100  0.0747 -0.2034
 2176W        W45088  17.254  10.978   8.703 -0.0220 -0.0498  0.0822
 2177W        W45089  15.438  10.507   8.699 -0.0170 -0.0182  0.2974
 2178W        W45090  17.947  15.489   8.034 -0.1698  0.4578 -0.2017
 2179W        W45091  16.512  13.809   7.066  0.2104  0.1879  0.0509
 2180W        W45092  13.271  13.996   9.145 -0.1573 -0.0453 -0.0407
 2181W        W45093  16.668  13.127   7.644 -0.0986  0.3965  0.1501
 2182W        W45094  16.149  13.623   9.379  0.1939  0.1582  0.1083
 2183W        W45095  14.982  13.744   9.892  0.0424 -0.0962  0.2572
 2184W        W45096  16.953  13.433   7.901 -0.0765 -0.1398 -0.0696
 2185W        W45097  13.354  12.476   9.252  0.1113  0.0383 -0.4698
 2186W        W45098  18.132  11.274   8.497 -0.4155 -0.1671 -0.0737
 2187W        W45099  17.026  14.303   8.341 -0.0130  0.0936 -0.0081
 2188W        W45100  13.309  10.727   9.269  0.4097  0.2347  0.0999
 2189W        W45101  17.446  12.321   8.054  0.0769 -0.0362 -0.1561
 2190W        W45102  14.239   9.082   9.256 -0.3127 -0.2658  0.0809
 2191W        W45103  17.867  12.734   9.619 -0.2059 -0.0582  0.1115
 2192W        W45104  17.287  10.701   8.298  0.0287 -0.0224 -0.0965
 2193W        W45105  14.962  11.891   7.874 -0.2643 -0.0825 -0.2002
 2194W        W45106  17.402  11.450   8.990  0.1516 -0.0991  0.2010
 2195W        W45107  17.626  13.117   9.338 -0.0512  0.1560 -0.2260
 2196W        W45108  17.028  13.733   8.327  0.0193  0.0901 -0.1439
 2197W        W45109  17.036  12.877   8.741  0.4481 -0.1932 -0.0243
 2198W        W45110  14.109  12.854   9.121  0.0978  0.0204 -0.0144
 2199W        W45111  16.858  11.530   8.145  0.0480  0.0524 -0.1208
 2200W        W45112  17.376  11.737   8.062  0.0638  0.0961  0.0045
 2201W        W45113  15.352  13.053   8.700  0.2123 -0.0375 -0.1717
 2202W        W45114  18.384  12.422   7.800 -0.0331  0.2134 -0.2191
 2203W        W45115  17.652  11.262   8.626 -0.0363 -0.0882 -0.2939
 2204W        W45116  17.198  15.137   9.207  0.0995  0.1342  0.0484
 2205W        W45117  19.080  10.816   8.163  0.4151  0.1120  0.1057
 2206W        W45118  17.963  10.591   9.424  0.1587  0.0915  0.1605
 2207W        W45119  18.510  13.324   8.971  0.3030 -0.0685 -0.2391
 2208W        W45120  18.198  12.570   7.237  0.0668 -0.0036 -0.1044
 2209W        W45121  13.462  12.087   8.901 -0.2011  0.0316 -0.1235
 2210W        W45122  16.243  11.303   7.528 -0.0669 -0.2384 -0.0570
 2211W        W45123  15.300  15.665   8.648 -0.0833 -0.1393 -0.1436
 2212W        W45124  17.201  13.856   8.782  0.1981  0.2572  0.0742
 2213W        W45125  17.853  11.010   8.175 -0.0596  0.3718 -0.1106
 2214W        W45126  14.103  12.101   8.567 -0.2092 -0.2082  0.1206
 2215W        W45127  15.662  12.533   7.755 -0.0914  0.2723 -0.2563
 2216W        W45128  17.214  13.426   7.493 -0.0614 -0.1287 -0.1695
 2217W        W45129  17.547  12.974   8.732 -0.0184 -0.0778  0.1221
 2218W        W45130  16.387  10.499   7.369 -0.3110  0.0255  0.3165
 2219W        W45131  12.721  13.810   8.829  0.0215 -0.4314  0.1525
 2220W        W45132  14.735  10.661   9.086  0.2260  0.0533 -0.0824
 2221W        W45133  15.683  14.314   9.457  0.0257 -0.1282  0.1878
 2222W        W45134  16.339  13.252  10.075 -0.0088 -0.3320  0.2895
 2223W        W45135  18.220  10.732   8.446 -0.2786 -0.0519  0.1266
 2224W        W45136  18.278  12.883   8.196  0.2104  0.1525  0.1365
 2225W        W45137  15.929  13.415   7.993 -0.1746 -0.0133  0.2044
 2226W        W45138  15.085  13.702   7.227 -0.0139 -0.0393  0.1095
 2227W        W45139  19.489  13.218   8.518 -0.3101 -0.1215 -0.1165
 2228W        W45140  16.842  12.791   9.603 -0.3647  0.1394 -0.1785
 2229W        W45141  15.693  12.971   9.037  0.2169 -0.0010 -0.1310
 2230W        W45142  16.256  10.488   8.718  0.0507  0.1305  0.0616
 2231W        W45143  16.112  13.857   7.957  0.0279 -0.1414  0.0651
 2232W        W45144  14.023  11.906  10.002  0.2975  0.0067  0.3671
 2233W        W45145  14.517  14.889   7.882 -0.2490  0.3691 -0.2471
 2234W        W45146  15.941  13.934   9.062 -0.1165 -0.1642  0.4288
 2235W        W45147  18.065  12.887   7.677  0.0813  0.1430 -0.4739
 2236W        W45148  17.443  14.748   9.898  0.2677 -0.4582 -0.1564
 2237W        W45149  16.680  12.876   8.092  0.0775  0.0959 -0.1307
 2238W        W45150  14.442  13.107   8.642  0.1104  0.4730 -0.0777
 2239W        W45151  13.712  14.301   6.698  0.1444 -0.0344 -0.1948
 2240W        W45152  18.506  13.540   7.177 -0.0737  0.1974  0.1510
 2241W        W45153  14.981  15.016   8.670  0.2807  0.5208  0.4198
 2242W        W45154  17.064  10.599   5.925  0.2930 -0.0789 -0.3638
 2243W        W45155  17.271  11.878   9.810  0.1500 -0.3091  0.1678
 2244W        W45156  18.236  10.544   7.731 -0.0456 -0.1074 -0.1291
 2245W        W45157  16.291  12.112   9.588  0.1489 -0.3098 -0.0057
 2246W        W45158  15.617  11.256   8.516 -0.2042  0.0135  0.0583
 2247W        W45159  16.847  14.737   9.931 -0.0328 -0.0108 -0.2354
 2248W        W45160  15.514  12.022   7.840  0.0949  0.1506 -0.0820
 2249W        W45161  16.531  12.979   8.790  0.0238 -0.0145  0.0957
 2250W        W45162  18.949  10.017   9.982 -0.1218  0.3674  0.0959
 2251W        W45163  17.630  13.744   7.492  0.0056  0.1989 -0.0414
 2252W        W45164  16.025  11.518   8.850 -0.0390 -0.0217  0.2234
 2253W        W45165  14.983  14.464   9.071  0.0994  0.0548 -0.2317
 2254W        W45166  16.286  12.799   9.781 -0.1230 -0.1304 -0.2416
 2255W        W45167  15.208  14.274   9.689 -0.0377 -0.2476 -0.0674
 2256W        W45168  15.197  12.137   9.028 -0.3988  0.3245  0.3496
 2257W        W45169  18.669  11.072   9.649  0.3313  0.0728  0.0287
 2258W        W45170  17.663  12.610   9.055 -0.1382 -0.2919  0.2315
 2259W        W45171  15.171  12.331   8.086 -0.2079  0.0965 -0.0744
 2260W        W45172  16.528  10.731   7.766 -0.2140  0.0909 -0.0786
 2261W        W45173  17.181  11.093   9.255 -0.3685  0.2218 -0.3089
 2262W        W45174  15.568  13.490  10.227  0.1643  0.0218  0.1120
 2263W        W45175  17.101  11.851   7.605  0.0512 -0.0504  0.2193
 2264W        W45176  16.791  13.091   7.001 -0.0371  0.0638  0.0158
 2265W        W45177  15.412  11.662   8.177  0.1281  0.0455 -0.0544
 2266W        W45178  16.528  12.111   7.791  0.2211 -0.0299  0.0679
 2267W        W45179  14.813  12.339   8.712 -0.0087  0.0987  0.1432
 2268W        W45180  16.634  11.141   9.296 -0.1672 -0.0423 -0.0277
 2269W        W45181  13.006  11.127   8.626 -0.0899 -0.0988 -0.1026
 2270W        W45182  16.768  13.676   7.444  0.1571  0.1369  0.1060
 2271W        W45183  16.832  15.062   9.562  0.3674  0.2452 -0.2052
 2272W        W45184  17.106  15.233   8.003  0.0276  0.1318  0.0968
 2273W        W45185  16.701  14.044   8.728 -0.0084 -0.0834 -0.0876
 2274W        W45186  18.098  13.555   9.154  0.1065  0.0822 -0.0442
 2275W        W45187  14.649  12.414   9.958  0.0256  0.1769  0.1846
 2276W        W45188  18.714  13.168   9.834  0.6584  0.0266 -0.0319
 2277W        W45189  17.843  13.511   9.666 -0.2616  0.2581  0.0338
 2278W        W45190  16.206   9.877   8.663 -0.1305  0.4204 -0.1388
 2279W        W45191  17.183  12.113   9.325  0.1311  0.0298  0.1444
 2280W        W45192  15.862  14.377   7.127 -0.1164  0.2417  0.1422
 2281W        W45193  17.706  12.211   9.509 -0.2010  0.1435 -0.2301
 2282W        W45194  14.843  12.823   8.720 -0.1871 -0.0024  0.0931
 2283W        W45195  16.654  13.697   9.400 -0.1502  0.0129  0.2779
 2284W        W45196  15.738  13.692   7.546  0.0030  0.0952 -0.1493
 2285W        W45197  16.199  13.033   7.621  0.1201  0.1782  0.0478
 2286W        W45198  16.320  14.839   8.907  0.0809  0.0034 -0.0167
 2287W        W45199  16.888  13.330   9.743 -0.0371 -0.1345  0.0493
 2288W        W45200  16.045  12.278   8.474  0.0037  0.0779  0.0499
 2289W        W45201  15.538  12.594   9.928 -0.0795 -0.1582  0.0251
 2290W        W45202  15.442  11.530   9.058  0.0413 -0.1054 -0.0542
 2291W        W45203  17.736  11.041   6.280  0.0523  0.0275 -0.5387
 2292W        W45204  17.820  10.793   7.282 -0.0443 -0.2160 -0.1480
 2293W        W45205  15.243  12.546   8.541 -0.1509 -0.0067 -0.2555
 2294W        W45206  15.260  11.427   7.678 -0.1172 -0.0145  0.0471
 2295W        W45207  14.799  12.899   6.196 -0.1591  0.0195 -0.0643
 2296W        W45208  14.981  12.038   9.732  0.1789 -0.1463  0.0094
 2297W        W45209  14.212  12.923   8.192  0.2108  0.1848  0.0268
 2298W        W45210  17.429   9.255   7.285  0.3136 -0.0253  0.1350
 2299W        W45211  18.620  13.643   6.656 -0.3482  0.0525  0.0885
 2300W        W45212  16.479  11.640   9.488  0.0977  0.1018 -0.1998
 2301W        W45213  13.708  12.133   9.349  0.0833 -0.1375  0.0527
 2302W        W45214  18.211  11.831   7.877  0.1504 -0.1064 -0.3410
 2303W        W45215  17.788  12.972   8.300  0.2620  0.0801 -0.1450
 2304W        W45216  15.061  11.022   7.835  0.1119 -0.5311  0.2556
 2305W        W45217  15.413  13.372   7.340  0.0332 -0.2018 -0.0817
 2306W        W45218  15.427  11.795   8.628 -0.2780 -0.1258 -0.0031
 2307W        W45219  16.850  12.520   9.120 -0.0843  0.2028  0.0665
 2308W        W45220  16.014  13.756   8.535 -0.2387 -0.1052  0.0698
 2309W        W45221  17.350  14.494   6.952 -0.1035  0.1547  0.0111
 2310W        W45222  14.308  10.258   9.836  0.1081 -0.0640  0.1251
 2311W        W45223  17.473  13.620   7.988  0.0839 -0.2285 -0.1289
 2312W        W45224  17.103  14.001   7.879  0.0862  0.0259 -0.1017
 2313W        W45225  18.177  11.017   9.575  0.0127  0.0795 -0.3231
 2314W        W45226  17.518  12.741   7.724 -0.1105  0.2433  0.1334
 2315W        W45227  18.324  13.450   8.184  0.1671  0.0289  0.0989
 2316W        W45228  14.926  11.681   9.133  0.2145  0.0107  0.1683
 2317W        W45229  17.655  12.067   9.031 -0.1008  0.0460 -0.2432
 2318W        W45230  17.744  14.851   8.581 -0.0233  0.2826 -0.2838
 2319W        W45231  14.921  12.972   9.555 -0.0751 -0.1192 -0.1055
 2320W        W45232  16.639  12.601   7.649 -0.0932 -0.1969 -0.0457
 2321W        W45233  16.140  14.051   9.652  0.0541 -0.3925  0.0228
 2322W        W45234  17.082  12.703   7.858 -0.1710  0.1470  0.1373
 2323W        W45235  19.652  12.082   7.996  0.2445 -0.1501 -0.0047
 2324W        W45236  15.716  14.293   8.605  0.2046  0.0706  0.0336
 2325W        W45237  15.489  13.890   9.950  0.1097 -0.5311  0.1456
 2326W        W45238  19.641  12.797   9.783 -0.1160 -0.0721 -0.2934
 2327W        W45239  15.072  13.214  10.085  0.0510  0.3632 -0.1675
 2328W        W45240  16.376  12.711   8.451 -0.1250 -0.1742 -0.4626
 2329W        W45241  16.812  10.746   9.056  0.1705 -0.2766  0.2713
 2330W        W45242  15.161  13.724   8.984  0.0939  0.2085 -0.2468
 2331W        W45243  15.805  10.523   9.086  0.3301  0.2528  0.2007
 2332W        W45244  17.027  11.464   7.174  0.1357 -0.4672 -0.2511
 2333W        W45245  15.307  14.816   9.668  0.0851 -0.0913 -0.1859
 2334W        W45246  16.031  12.965   8.102  0.0126  0.0962 -0.2113
 2335W        W45247  14.119  16.693   1.629 -0.1218 -0.2168 -0.1735
 2336W        W45248  16.022  15.603  31.238  0.1011  0.2013  0.0040
 2337W        W45249  17.570  14.365  30.224 -0.2675 -0.0195  0.0052
 2338W        W45250  19.223  15.627  29.936 -0.0854 -0.1473 -0.1852
 2339W        W45251  14.473  15.197   0.477  0.0342 -0.3858 -0.0434
 2340W        W45252  16.891  16.941  28.684 -0.0988 -0.1058 -0.0821
 2341W        W45253  14.623  15.701   2.708 -0.0807 -0.0259 -0.1557
 2342W        W45254  17.461  16.322   0.510 -0.0792  0.0460 -0.1931
 2343W        W45255  17.831  20.445   1.070 -0.1867  0.0759 -0.0577
 2344W        W45256  16.481  17.067  31.883 -0.0564 -0.1077  0.1816
 2345W        W45257  15.509  16.750   0.850  0.2496 -0.0337 -0.0648
 2346W        W45258  15.598  17.021   1.974 -0.0348 -0.4103  0.2103
 2347W        W45259  16.551  14.744  31.750 -0.1078 -0.1704 -0.0541
 2348W        W45260  15.258  14.828   1.979 -0.1736  0.0627  0.1025
 2349W        W45261  18.262  15.424   1.866  0.0715 -0.2732 -0.0032
 2350W        W45262  16.682  15.583  31.979  0.1407 -0.0987  0.1423
 2351W        W45263  17.065  15.697  31.666 -0.0674 -0.0080 -0.0645
 2352W        W45264  16.388  15.101   0.109  0.1345  0.1369 -0.0093
 2353W        W45265  16.672  17.029  30.251 -0.0868 -0.1207  0.1762
 2354W        W45266  16.150  14.911   1.941  0.2106 -0.0516  0.0793
 2355W        W45267  17.729  14.301   1.698  0.0215 -0.2171 -0.1013
 2356W        W45268  16.290  17.536  31.772  0.0931 -0.0703 -0.2219
 2357W        W45269  15.633  15.023  30.718  0.0048  0.0476  0.2013
 2358W        W45270  15.518  16.193   1.469 -0.1910 -0.4786 -0.0929
 2359W        W45271  15.888  16.809   2.700  0.1627 -0.0055 -0.1207
 2360W        W45272  16.973  14.816   0.733  0.0391 -0.2870 -0.0183
 2361W        W45273  18.461  14.975   1.028 -0.2232 -0.0318  0.2939
 2362W        W45274  16.316  18.492  31.984 -0.0946 -0.0000  0.3916
 2363W        W45275  16.999  17.209  31.879 -0.2554 -0.0280 -0.1190
 2364W        W45276  18.260  16.598   3.664 -0.2906  0.2598  0.0407
 2365W        W45277  14.342  17.122  30.048 -0.2972 -0.1543  0.1296
 2366W        W45278  15.161  17.711   0.576 -0.1342  0.1488 -0.3096
 2367W        W45279  16.029  17.437   0.438 -0.1697  0.0905 -0.1242
 2368W        W45280  17.491  17.724   0.091 -0.0011  0.4516 -0.0892
 2369W        W45281  16.225  15.848   1.896 -0.2677 -0.3576  0.0774
 2370W        W45282  17.194  18.496   0.557  0.1632  0.2070 -0.4157
 2371W        W45283  16.029  16.531  30.052 -0.1483 -0.3599  0.0983
 2372W        W45284  16.611  17.436   1.741 -0.3011 -0.4311  0.0959
 2373W        W45285  15.888  17.255   2.504 -0.1383 -0.2057 -0.1335
 2374W        W45286  16.429  17.134   0.372  0.0077  0.2297 -0.2309
 2375W        W45287  16.872  16.053   1.256 -0.1074 -0.0927  0.4742
 2376W        W45288  15.407  17.069  30.497  0.1160 -0.0010  0.0110
 2377W        W45289  17.765  16.750  31.718  0.1517  0.2335 -0.0202
 2378W        W45290  15.801  16.048   2.733  0.1268 -0.0151  0.0613
 2379W        W45291  15.645  17.599   0.740 -0.0258 -0.4185  0.0120
 2380W        W45292  18.320  15.043   2.564  0.0252  0.1678 -0.0320
 2381W        W45293  15.645  18.547  31.962 -0.1610  0.0248 -0.1802
 2382W        W45294  15.748  15.783  29.781  0.2250  0.2022  0.1138
 2383W        W45295  15.141  15.195  31.816  0.2517  0.5060 -0.0234
 2384W        W45296  16.019  14.913  29.456 -0.1891 -0.3750  0.0232
 2385W        W45297  15.732  14.398   0.131  0.1322  0.2838  0.1507
 2386W        W45298  14.830  16.726   3.227 -0.2517 -0.2683  0.0067
 2387W        W45299  15.828  16.266   1.856  0.0971 -0.3348  0.2295
 2388W        W45300  17.173  17.524   2.818 -0.1071 -0.0972  0.0450
 2389W        W45301  16.458  15.672  30.550 -0.1391 -0.2640  0.1786
 2390W        W45302  17.826  16.655   2.410  0.1072 -0.1979 -0.1629
 2391W        W45303  16.291  17.323   1.359  0.0329  0.0554  0.1568
 2392W        W45304  15.392  17.331   1.540  0.0628  0.0805 -0.3028
 2393W        W45305  17.502  16.727  29.998  0.2126 -0.0079  0.3222
 2394W        W45306  18.707  17.743  31.746  0.0867  0.1828  0.1023
 2395W        W45307  16.684  17.197  29.098 -0.0161 -0.0093 -0.2474
 2396W        W45308  15.416  15.388   0.315 -0.0708  0.0624  0.1942
 2397W        W45309  14.530  17.152   2.336  0.1120  0.3899 -0.1153
 2398W        W45310  15.310  16.039   2.746  0.1944 -0.1150  0.1670
 2399W        W45311  15.556  15.320  30.091 -0.2100 -0.0875 -0.1272
 2400W        W45312  18.720  16.565   3.834  0.0752 -0.1710 -0.1159
 2401W        W45313  13.470  16.845   3.243 -0.0942  0.0081 -0.0376
 2402W        W45314  18.094  16.746  30.607 -0.2916  0.0695  0.0496
 2403W        W45315  16.453  16.470  31.692  0.0281  0.2160 -0.0615
 2404W        W45316  18.209  18.039   0.305 -0.2426  0.1771  0.2647
 2405W        W45317  17.440  16.518  29.528  0.1796 -0.1167  0.3404
 2406W        W45318  16.942  14.638   1.925 -0.2739  0.2898  0.0037
 2407W        W45319  16.244  13.710  31.938 -0.1677 -0.1742  0.0560
 2408W        W45320  15.048  14.811  29.242 -0.1242  0.0254 -0.1255
 2409W        W45321  16.538  15.635  31.507 -0.0524 -0.4850  0.0487
 2410W        W45322  17.792  17.215   2.185 -0.2112  0.2098 -0.3170
 2411W        W45323  18.500  16.143  30.388 -0.0332 -0.2969  0.0578
 2412W        W45324  14.901  17.480   1.552  0.0658 -0.0151  0.0507
 2413W        W45325  16.981  15.514   2.520  0.1490  0.0058 -0.1920
 2414W        W45326  15.608  18.025   2.244 -0.0778 -0.0835  0.0245
 2415W        W45327  15.191  18.370  30.041 -0.3617  0.0037 -0.0449
 2416W        W45328  15.914  17.076   1.525 -0.2143 -0.1094 -0.0672
 2417W        W45329  15.670  17.262  31.575  0.0630 -0.0536 -0.0897
 2418W        W45330  15.559  16.130   2.293 -0.1195  0.3856 -0.0443
 2419W        W45331  17.105  17.645   1.725 -0.0631  0.2047  0.3168
 2420W        W45332  17.251  14.101  29.999  0.5973  0.0622  0.1971
 2421W        W45333  13.823  15.930   4.148 -0.0787 -0.0688  0.0146
 2422W        W45334  16.662  15.095  30.419  0.0731 -0.1630  0.2203
 2423W        W45335  14.858  16.610   0.173  0.1111  0.1342  0.1170
 2424W        W45336  17.638  19.571  31.101 -0.0127 -0.2258 -0.1573
 2425W        W45337  18.298  15.361  31.533 -0.3734 -0.1335 -0.0333
 2426W        W45338  17.548  17.216  30.182 -0.1933  0.0956  0.1573
 2427W        W45339  15.391  16.524   1.798 -0.0343 -0.2762 -0.2168
 2428W        W45340  16.109  15.249   0.934  0.1634  0.1894  0.0649
 2429W        W45341  16.884  15.523   3.427  0.0088  0.1132  0.1447
 2430W        W45342  16.145  16.658   1.645 -0.0249 -0.1328 -0.1112
 2431W        W45343  17.051  15.965   3.449 -0.3416 -0.2781  0.1351
 2432W        W45344  14.267  15.505  28.942 -0.2243  0.0476 -0.1398
 2433W        W45345  16.647  14.458   0.740  0.0125 -0.1829 -0.0945
 2434W        W45346  17.638  16.488  31.318 -0.0263  0.0130 -0.0203
 2435W        W45347  14.780  16.418  30.951 -0.0840 -0.2212 -0.1056
 2436W        W45348  17.960  14.783   1.684  0.2802 -0.0090 -0.0081
 2437W        W45349  17.819  19.015  30.923 -0.2137 -0.3653  0.3231
 2438W        W45350  18.099  17.095   1.851  0.0512 -0.0318  0.2215
 2439W        W45351  17.356  16.962   1.438  0.2827  0.2519  0.1166
 2440W        W45352  15.724  14.654   1.885 -0.0187  0.1087  0.1637
 2441W        W45353  15.891  14.342  29.972  0.0630 -0.2012 -0.2829
 2442W        W45354  15.745  17.887   0.345  0.3237 -0.3356 -0.0022
 2443W        W45355  16.679  17.579   0.147 -0.0373  0.0155  0.0939
 2444W        W45356  15.563  15.438  31.027 -0.3280 -0.2668 -0.1865
 2445W        W45357  19.572  17.696   1.879  0.0297 -0.0034 -0.3068
 2446W        W45358  16.969  17.306  31.406  0.1915 -0.2933 -0.2541
 2447W        W45359  15.014  17.144   2.607 -0.2624  0.0563  0.3773
 2448W        W45360  17.416  14.926   1.376 -0.0995 -0.2534  0.1889
 2449W        W45361  18.357  15.190   0.409 -0.1305  0.1649  0.1704
 2450W        W45362  17.634  15.917   0.203 -0.0704 -0.1752  0.1217
 2451W        W45363  15.274  15.818   0.511 -0.0827 -0.1287 -0.1718
 2452W        W45364  17.313  18.249   0.013  0.1502 -0.1056 -0.2766
 2453W        W45365  16.541  19.009  30.879  0.0141  0.0734  0.1043
 2454W        W45366  15.544  16.235   0.106  0.0060 -0.1462 -0.1190
 2455W        W45367  16.893  17.782  31.362  0.2955  0.0106 -0.0293
 2456W        W45368  16.605  14.950   1.080 -0.1474  0.1932 -0.1137
 2457W        W45369  13.705  15.848   3.095 -0.0407 -0.0601  0.0940
 2458W        W45370  17.207  17.719   3.301  0.0059 -0.1775  0.0696
 2459W        W45371  14.628  16.395   0.587 -0.1122  0.0068 -0.1132
 2460W        W45372  16.048  17.730   2.313 -0.0009  0.2390 -0.0140
 2461W        W45373  18.056  15.435   0.882 -0.2873 -0.1490  0.0583
 2462W        W45374  17.159  16.437  31.304 -0.2432 -0.1780 -0.0675
 2463W        W45375  16.196  17.209   2.902 -0.1191 -0.2163 -0.0688
 2464W        W45376  18.154  17.546   2.312  0.1340  0.2109 -0.1430
 2465W        W45377  15.822  14.469  31.082  0.2459 -0.2459 -0.0419
 2466W        W45378  17.623  14.388  29.721 -0.0625 -0.0188  0.0763
 2467W        W45379  15.107  16.842   2.122  0.1137  0.0946 -0.3566
 2468W        W45380  16.467  16.675  30.846 -0.1306  0.1467 -0.0203
 2469W        W45381  16.903  16.234  31.735  0.0535 -0.0185  0.1724
 2470W        W45382  16.445  15.777  31.042 -0.3642  0.0309 -0.0359
 2471W        W45383  18.977  18.290   2.055 -0.3824 -0.2313 -0.0462
 2472W        W45384  14.351  17.522   0.992  0.0155 -0.4203  0.0760
 2473W        W45385  16.724  17.052   2.982  0.3536 -0.1004  0.0923
 2474W        W45386  17.254  18.753   0.048  0.2439  0.2064 -0.0025
 2475W        W45387  15.546  15.912   3.297 -0.0336 -0.0629  0.1136
 2476W        W45388  15.681  16.681   0.003 -0.2873 -0.2788  0.2484
 2477W        W45389  16.434  15.090  31.363 -0.2471  0.1655  0.0854
 2478W        W45390  15.865  18.497  29.869 -0.0805 -0.0791 -0.0534
 2479W        W45391  18.433  13.681   2.144 -0.0099  0.0421  0.1925
 2480W        W45392  17.601  14.630   0.538  0.1142  0.1909 -0.0283
 2481W        W45393  16.715  15.323   4.052  0.0680  0.1048  0.3429
 2482W        W45394  17.488  17.791   2.108  0.1058  0.4464 -0.2171
 2483W        W45395  18.272  15.622  30.344  0.0517 -0.2418 -0.0516
 2484W        W45396  17.389  16.361   1.605  0.1465 -0.1102  0.1685
 2485W        W45397  15.989  16.297  31.859  0.2786 -0.3338 -0.0066
 2486W        W45398  14.656  15.909   2.235  0.1916 -0.0219 -0.0612
 2487W        W45399  14.712  16.588   1.907  0.2450 -0.0787  0.2482
 2488W        W45400  15.290  17.834   1.630 -0.1892 -0.2299 -0.0634
 2489W        W45401  16.817  16.593   2.227 -0.0905  0.4152 -0.1009
 2490W        W45402  17.949  17.757  30.609  0.0973 -0.0499  0.0918
 2491W        W45403  16.384  14.396   2.574  0.2227  0.0232  0.1101
 2492W        W45404  16.198  16.076  31.464  0.2260 -0.3012 -0.2803
 2493W        W45405  15.554  19.174   0.772  0.2054  0.1491  0.1344
 2494W        W45406  15.029  16.302  30.114 -0.0417 -0.3524  0.1613
 2495W        W45407  17.054  15.559   1.432  0.0541  0.0035 -0.1924
 2496W        W45408  17.067  17.886   0.455  0.2452 -0.0906 -0.0871
 2497W        W45409  16.072  16.605  31.102 -0.1002  0.2120  0.1099
 2498W        W45410  17.357  16.836   2.057 -0.2366 -0.1498 -0.2000
 2499W        W45411  14.913  17.044  30.640 -0.0723 -0.1658 -0.3571
 2500W        W45412  17.473  14.551   0.989  0.0715 -0.2864 -0.0712
 2501W        W45413  16.528  18.014  31.775  0.1111 -0.0706  0.1080
 2502W        W45414  14.982  14.944   0.361  0.1656  0.1430  0.0589
 2503W        W45415  16.109  15.472  31.810 -0.3034 -0.1014 -0.1846
 2504W        W45416  15.917  15.012  31.570  0.1583 -0.0142  0.0074
 2505W        W45417  17.902  17.225  31.513 -0.2766 -0.3058  0.0248
 2506W        W45418  15.440  14.758   0.292  0.0511 -0.1655 -0.1690
 2507W        W45419  16.194  16.198   0.337 -0.1597  0.2210 -0.2328
 2508W        W45420  14.169  18.002   1.780  0.4548  0.2490 -0.2077
 2509W        W45421  16.959  16.062   2.500  0.1550  0.4529 -0.2764
 2510W        W45422  17.760  14.752  31.136 -0.0402 -0.1806  0.0482
 2511W        W45423  16.996  17.676   2.352  0.0064 -0.0921 -0.2213
 2512W        W45424  15.436  17.080   3.717 -0.0624  0.4477  0.1087
 2513W        W45425  15.805  15.738   0.322 -0.3344 -0.3237 -0.2253
 2514W        W45426  16.960  17.055   2.555  0.0697  0.1648 -0.0236
 2515W        W45427  16.373  16.588   1.136  0.2882  0.0135 -0.2611
 2516W        W45428  15.190  18.116   0.146  0.0666  0.1494  0.1958
 2517W        W45429  16.816  16.540   0.794  0.0758  0.3125 -0.0156
 2518W        W45430  16.465  15.647   0.447  0.2438 -0.2119 -0.1855
 2519W        W45431  15.380  16.904  31.638  0.0674  0.3186 -0.2674
 2520W        W45432  16.228  16.566   3.097 -0.5225  0.2764 -0.1472
 2521W        W45433  17.291  16.341   2.095 -0.1442  0.0840  0.1998
 2522W        W45434  16.957  15.419   2.004  0.4777 -0.0250 -0.1818
 2523W        W45435  16.876  15.367  31.215  0.2786  0.3564  0.3282
 2524W        W45436  17.051  16.090   0.741 -0.1111  0.0437 -0.1603
 2525W        W45437  18.224  15.836   0.568 -0.1880  0.1248  0.1284
 2526W        W45438  15.600  17.554   3.922 -0.2175  0.0801  0.1369
 2527W        W45439  14.911  16.910   3.681  0.1381 -0.2135  0.1973
 2528W        W45440  15.890  13.567   1.594  0.0873  0.1618  0.1044
 2529W        W45441  18.173  18.498   0.167 -0.0658  0.2141 -0.0467
 2530W        W45442  16.542  15.072   3.357  0.1363  0.0010  0.3433
 2531W        W45443  16.579  16.386  31.226 -0.0845  0.1030  0.1439
 2532W        W45444  14.820  16.295   1.005 -0.0218  0.2373 -0.2627
 2533W        W45445  15.648  17.217   1.094  0.2321  0.1724  0.0757
 2534W        W45446  15.372  15.321   1.971 -0.1025  0.2014  0.4107
 2535W        W45447  15.088  16.860   1.591 -0.3513 -0.1315  0.0542
 2536W        W45448  15.483  17.585  28.888  0.0938 -0.0009 -0.0761
 2537W        W45449  15.458  16.961   2.443 -0.0186 -0.2648 -0.1292
 2538W        W45450  17.883  15.276  31.220  0.3258  0.0594 -0.0529
 2539W        W45451  17.511  17.003  30.952  0.0691  0.1181  0.0261
 2540W        W45452  17.352  16.436  31.770 -0.0056 -0.0753  0.0805
 2541W        W45453  17.587  15.560   2.823 -0.0475  0.1052 -0.0703
 2542W        W45454  16.476  16.911  31.334 -0.0584  0.1739  0.1224
 2543W        W45455  16.430  14.382   1.220  0.1822 -0.0396 -0.0567
 2544W        W45456  15.673  14.145   1.817 -0.4229 -0.4588 -0.3914
 2545W        W45457  17.431  15.985   1.269  0.1679  0.1472  0.4083
 2546W        W45458  15.186  14.891   0.834 -0.1392 -0.2936  0.0286
 2547W        W45459  16.597  17.967   2.554  0.3673  0.0619 -0.0965
 2548W        W45460  14.525  16.465   2.940 -0.0831  0.0194  0.2226
 2549W        W45461  16.858  14.199  30.857  0.0566  0.1621  0.0549
 2550W        W45462  14.941  14.234  31.681  0.0973  0.0174 -0.2008
 2551W        W45463  16.575  16.162   2.147  0.0721 -0.2591  0.2589
 2552W        W45464  18.457  16.817   1.418  0.0220 -0.1161  0.0027
 2553W        W45465  15.686  16.872  31.214  0.3452 -0.2884 -0.1908
 2554W        W45466  17.876  13.929   1.316  0.3432  0.0465  0.1437
 2555W        W45467  14.294  15.210   2.093 -0.0293 -0.3672 -0.0587
 2556W        W45468  18.431  16.464  30.811  0.1125  0.2139 -0.0118
 2557W        W45469  17.321  15.634  31.090 -0.3498 -0.1968 -0.0281
 2558W        W45470  17.373  16.812   0.587  0.1336  0.5387 -0.2747
 2559W        W45471  15.750  15.001   2.240  0.1129 -0.0485  0.2227
 2560W        W45472  17.534  17.282  31.817 -0.2124  0.0286  0.4254
 2561W        W45473  17.929  15.657  31.708 -0.3126 -0.0358 -0.0008
 2562W        W45474  17.607  15.010   0.844  0.4831  0.2075  0.0884
 2563W        W45475  17.581  15.717   2.303  0.0439  0.1878 -0.1386
 2564W        W45476  16.041  16.036   3.326  0.2370 -0.1552  0.2784
 2565W        W45477  15.671  15.233   1.479  0.2662 -0.0106 -0.0029
 2566W        W45478  17.426  17.384   1.085  0.3623 -0.0660  0.2589
 2567W        W45479  16.871  15.571  30.236 -0.0618  0.2000 -0.1889
 2568W        W45480  17.186  15.588   0.435 -0.0440  0.1653 -0.1315
 2569W        W45481  18.477  14.974  31.128 -0.2465 -0.3658 -0.2724
 2570W        W45482  17.544  15.995  30.783 -0.1964 -0.2174  0.1552
 2571W        W45483  15.951  16.256   1.276 -0.2284 -0.0399 -0.1395
 2572W        W45484  16.545  15.701   2.348  0.0325  0.1664  0.1583
 2573W        W45485  15.608  15.897  31.211  0.2698  0.2731  0.0937
 2574W        W45486  17.264  15.368  31.958  0.3063 -0.2389  0.3209
 2575W        W45487  16.875  17.427  30.500  0.1100 -0.0026 -0.0460
 2576W        W45488  17.276  16.442   0.958  0.0363  0.0012  0.4192
 2577W        W45489  17.328  15.367  30.580  0.3971 -0.1478  0.1783
 2578W        W45490  15.777  15.761   1.257 -0.0685  0.0316  0.2397
 2579W        W45491  15.657  18.618   2.241 -0.1418  0.2255  0.4104
 2580W        W45492  16.004  16.792  31.611  0.4641  0.0061 -0.0384
 2581W        W45493  16.385  16.464  29.613  0.0958  0.1120 -0.2398
 2582W        W45494  18.792  17.882   1.742 -0.0161  0.0349 -0.1214
 2583W        W45495  16.649  17.491   2.697  0.0048  0.2222 -0.0374
 2584W        W45496  17.806  15.227  31.883  0.0928  0.1473 -0.0997
 2585W        W45497  17.466  15.059   2.813  0.2099  0.1590 -0.1263
 2586W        W45498  16.128  16.750   0.159  0.0880 -0.2405  0.0673
 2587W        W45499  16.117  14.926   1.422 -0.1825  0.2428 -0.1866
 2588W        W45500  16.694  18.853   1.746 -0.1007  0.0706  0.1238
 2589W        W45501  14.077  17.439   0.538 -0.0702  0.1297 -0.1967
 2590W        W45502  17.005  16.977   1.051 -0.3040 -0.1689 -0.0351
 2591W        W45503  16.161  14.757   0.885  0.1129 -0.2623  0.3018
 2592W        W45504  17.176  16.035   0.181  0.1716 -0.0574 -0.1123
 2593W        W45505  16.663  17.115  30.884 -0.0369 -0.1812  0.3088
 2594W        W45506  17.786  17.211   1.526 -0.2861 -0.0662 -0.0421
 2595W        W45507  17.152  17.837   1.209  0.1780  0.0481 -0.0817
 2596W        W45508  16.375  15.972  31.910  0.0178  0.1172 -0.2512
 2597W        W45509  16.116  17.527   0.917  0.0763 -0.2073  0.1316
 2598W        W45510  17.210  17.406   0.324  0.0804 -0.2668 -0.2595
 2599W        W45511  15.094  17.330   1.963 -0.0475 -0.4137  0.0231
 2600W        W45512  14.819  16.204   2.654 -0.0742  0.1683 -0.1513
 2601W        W45513  17.710  16.384   3.379  0.1039  0.0940  0.0546
 2602W        W45514  17.279  16.829   0.051  0.1443  0.1896 -0.0317
 2603W        W45515  15.471  14.938  31.333 -0.1349 -0.0318 -0.4855
 2604W        W45516  15.813  17.691  31.403 -0.0931 -0.0884  0.2316
 2605W        W45517  14.999  17.391   3.857 -0.1367 -0.0494 -0.1489
 2606W        W45518  13.072  15.419   2.557 -0.1263  0.5161  0.0184
 2607W        W45519  16.434  17.831  29.719 -0.1043 -0.1696  0.2423
 2608W        W45520  15.937  18.131  31.787 -0.1761  0.0610 -0.1204
 2609W        W45521  17.318  16.934  31.557 -0.2240 -0.4134 -0.0848
 2610W        W45522  16.744  17.810   1.467  0.0281  0.0175 -0.0472
 2611W        W45523  15.750  13.854  31.963 -0.2589  0.1222 -0.3079
 2612W        W45524  15.312  17.227   0.637 -0.0792  0.1266 -0.3288
 2613W        W45525  15.764  16.755  30.726 -0.1706 -0.2154  0.0916
 2614W        W45526  17.414  18.419  31.142 -0.1109  0.2730 -0.0994
 2615W        W45527  15.077  18.184   1.008  0.2689  0.2536  0.0276
 2616W        W45528  16.475  16.883   2.530  0.4244 -0.2594 -0.0001
 2617W        W45529  14.956  15.386  29.095  0.0467  0.1042 -0.1348
 2618W        W45530  17.639  14.730  31.626 -0.0991 -0.0476  0.0789
 2619W        W45531  18.695  15.409  31.108  0.2994  0.0934  0.1095
 2620W        W45532  17.054  18.887   2.674 -0.1486  0.0947 -0.3181
 2621W        W45533  16.875  16.569   1.288 -0.1877 -0.1489  0.3290
 2622W        W45534  15.981  15.338  29.711 -0.0666 -0.1509 -0.0314
 2623W        W45535  16.593  15.808   3.154 -0.0346  0.2265  0.2902
 2624W        W45536  18.651  14.068   1.840  0.0590 -0.0623 -0.2022
 2625W        W45537  14.628  17.191   2.925  0.0193  0.3503  0.1812
 2626W        W45538  17.923  17.640   0.284 -0.2598 -0.0930  0.1716
 2627W        W45539  15.679  16.330  30.986  0.0347  0.1255 -0.2146
 2628W        W45540  16.874  15.966  31.308  0.0268 -0.1548  0.2256
 2629W        W45541  18.214  14.382   1.531 -0.0909 -0.0618 -0.1911
 2630W        W45542  16.649  17.599  30.966 -0.0004  0.0092  0.2948
 2631W        W45543  17.411  16.020  31.439  0.0728 -0.0994  0.0312
 2632W        W45544  16.672  18.128   0.229 -0.0239  0.2086 -0.1203
 2633W        W45545  16.918  16.993   0.467  0.3079 -0.0249  0.1095
 2634W        W45546  15.852  18.116   1.299  0.3923  0.2068 -0.3381
 2635W        W45547  14.732  15.496  31.619  0.2714 -0.0252 -0.0400
 2636W        W45548  18.226  15.931   1.140  0.1544  0.0395  0.1989
 2637W        W45549  16.536  16.062   2.712  0.1328  0.0157  0.2123
 2638W        W45550  17.753  16.238   2.132 -0.0673  0.1176 -0.2729
 2639W        W45551  16.808  16.699   0.115  0.2109 -0.4292 -0.1878
 2640W        W45552  16.501  16.145  30.649 -0.2280  0.1025  0.0598
 2641W        W45553  16.963  16.165   1.749  0.0695 -0.2706  0.1540
 2642W        W45554  14.891  16.678   2.724 -0.2061 -0.2031  0.0761
 2643W        W45555  16.876  16.818  31.626  0.2769  0.0715 -0.0177
 2644W        W45556  18.150  16.006   0.114  0.0194 -0.2068 -0.0705
 2645W        W45557  16.039  17.195  31.317 -0.0588  0.1545 -0.3595
 2646W        W45558  17.427  18.304   2.180  0.1195 -0.1441 -0.3473
 2647W        W45559  15.772  16.510   0.462  0.1123  0.0176  0.0245
 2648W        W45560  16.642  14.397  31.244 -0.1718  0.3271 -0.0135
 2649W        W45561  15.758  17.015   0.466 -0.3818 -0.2882 -0.0692
 2650W        W45562  15.904  17.923   3.733 -0.0675  0.1411 -0.0976
 2651W        W45563  17.398  18.587   1.763 -0.3193 -0.0174  0.1716
 2652W        W45564  14.573  14.823   0.881  0.2347 -0.1475  0.1238
 2653W        W45565  16.485  17.391  31.363  0.1688 -0.0053  0.0487
 2654W        W45566  16.057  15.421   1.692  0.0516 -0.1715  0.0489
 2655W        W45567  16.098  16.474  29.133 -0.0888  0.1310 -0.2021
 2656W        W45568  16.993  16.854  31.121 -0.0634  0.0846  0.0465
 2657W        W45569  19.299  19.542   1.775 -0.1372 -0.0140 -0.3041
 2658W        W45570  14.670  17.070   1.754 -0.1489  0.0108 -0.0089
 2659W        W45571  16.929  17.218   2.046 -0.1643  0.3064 -0.8605
 2660W        W45572  17.853  18.028   2.402  0.2154  0.1605 -0.2924
 2661W        W45573  16.553  14.166  31.944 -0.1367 -0.1746 -0.0807
 2662W        W45574  15.803  15.574   2.358  0.0473 -0.1076  0.1323
 2663W        W45575  14.902  18.715   1.017  0.3172 -0.0696 -0.2158
 2664W        W45576  18.553  16.828   0.482  0.1729  0.0713 -0.1033
 2665W        W45577  17.978  15.835   2.029 -0.3539  0.0410 -0.2904
 2666W        W45578  15.224  16.179  31.096  0.2163 -0.0163 -0.0172
 2667W        W45579  16.700  14.703   2.312  0.2791 -0.1043 -0.3076
 2668W        W45580  16.518  16.906   1.963 -0.0840  0.0821  0.1658
 2669W        W45581  14.193  17.379   3.084  0.3778 -0.1111 -0.1518
 2670W        W45582  14.695  15.909  31.827  0.0290  0.1263  0.0138
 2671W        W45583  15.959  16.889   0.970 -0.3282  0.2424 -0.0014
 2672W        W45584  16.220  17.897   0.168 -0.0132 -0.0259  0.2412
 2673W        W45585  16.161  17.072  30.875 -0.1534  0.0795  0.2276
 2674W        W45586  17.787  16.370   0.853 -0.1023 -0.0686 -0.0851
 2675W        W45587  18.308  15.750  31.193  0.2092 -0.0418 -0.2353
 2676W        W45588  18.911  18.533   2.550  0.1156  0.4402  0.0875
 2677W        W45589  16.683  14.694   0.273 -0.0099  0.0705  0.1071
 2678W        W45590  18.744  14.639  30.913  0.1874 -0.0927 -0.6817
 2679W        W45591  17.449  15.232  31.466  0.0202  0.2035 -0.3173
 2680W        W45592  15.735  16.617   2.235 -0.0470  0.1551 -0.1252
 2681W        W45593  14.028  15.299   0.336 -0.0117  0.1661 -0.0657
 2682W        W45594  16.265  16.842  30.439 -0.1939  0.1959 -0.1187
 2683W        W45595  15.170  17.024   1.114  0.4034  0.0938 -0.1103
 2684W        W45596  15.645  15.608   4.285  0.0186  0.4195 -0.3004
 2685W        W45597  16.542  15.170   1.868 -0.0287 -0.1536  0.1174
 2686W        W45598  15.610  16.049   0.789  0.3911 -0.0637 -0.1836
 2687W        W45599  15.565  16.472  31.573  0.1958  0.0904  0.1122
 2688W        W45600  17.419  18.205   0.928 -0.1472  0.3446 -0.0630
 2689W        W45601  15.589  13.915   1.309  0.4732  0.0913  0.0955
 2690W        W45602  16.495  15.003   0.617  0.1439  0.1081  0.1094
 2691W        W45603  17.430  17.483  31.356  0.1927 -0.0824 -0.1084
 2692W        W45604  16.742  18.187  31.012 -0.0114 -0.2681  0.1108
 2693W        W45605  16.177  16.018  30.066  0.0531  0.3580 -0.0715
 2694W        W45606  18.315  16.894   2.970 -0.1016 -0.0338 -0.1167
 2695W        W45607  15.425  16.251  30.567  0.1228 -0.0297 -0.1208
 2696W        W45608  16.205  15.344   2.151 -0.1283 -0.1873 -0.0991
 2697W        W45609  16.490  16.127   0.842 -0.2169 -0.1520  0.3686
 2698W        W45610  14.789  15.816   0.821  0.0251  0.1694  0.2061
 2699W        W45611  16.505  17.061   0.879  0.1509 -0.0737  0.0491
 2700W        W45612  15.778  18.434  31.399  0.2786 -0.0684  0.0650
 2701W        W45613  16.259  17.897  31.301  0.1712 -0.1427  0.0251
 2702W        W45614  15.821  17.610   1.413  0.1497 -0.0970  0.2527
 2703W        W45615  16.559  16.920   1.427  0.0548 -0.2897 -0.2547
 2704W        W45616  14.708  15.696   1.336 -0.2811 -0.1561  0.1838
 2705W        W45617  17.997  17.188   1.021 -0.0055 -0.3484  0.3959
 2706W        W45618  16.505  16.313   1.550 -0.3336 -0.0443 -0.3516
 2707W        W45619  18.170  16.671   1.017  0.1072 -0.0648  0.0676
 2708W        W45620  18.576  14.586   1.318  0.1166 -0.0850 -0.1084
 2709W        W45621  17.541  15.866   0.719  0.0560 -0.2605  0.2408
 2710W        W45622  15.643  16.389   3.143  0.1990  0.2744  0.0765
 2711W        W45623  16.180  16.406   2.571  0.0850  0.1215 -0.0102
 2712W        W45624  18.281  17.054   2.401  0.0041  0.1366  0.1196
 2713W        W45625  14.922  13.692   1.542 -0.0730  0.0617  0.0805
 2714W        W45626  16.862  14.810  30.829  0.1307 -0.0789 -0.0597
 2715W        W45627  16.681  16.647  29.095 -0.1473  0.0708 -0.2545
 2716W        W45628  13.599  16.061  31.575 -0.0788 -0.0189  0.0472
 2717W        W45629  16.847  15.239  31.659  0.2106 -0.1719 -0.2256
 2718W        W45630  16.675  15.714   1.748  0.2071  0.0198  0.0218
 2719W        W45631  16.712  16.238   0.262  0.1110 -0.2896  0.3484
 2720W        W45632  18.256  15.515   0.060  0.1724 -0.3686  0.0258
 2721W        W45633  16.051  16.006  30.892 -0.0556  0.1248  0.2039
 2722W        W45634  18.627  15.773  30.776  0.0474  0.1094 -0.1110
 2723W        W45635  17.617  19.082   1.561 -0.3946  0.0641  0.3053
 2724W        W45636  18.311  18.049   2.205  0.0722 -0.1267  0.1348
 2725W        W45637  17.136  19.224   2.316  0.2019 -0.0283 -0.0592
 2726W        W45638  17.802  15.236   1.907 -0.1110 -0.0423  0.2628
 2727W        W45639  15.271  15.676   2.280 -0.1679  0.0605 -0.0327
 2728W        W45640  16.127  14.519  30.409  0.2189  0.4831  0.1782
 2729W        W45641  16.440  15.410  30.046 -0.1008  0.0729 -0.1556
 2730W        W45642  17.096  15.197   0.985 -0.2289 -0.3383  0.1460
 2731W        W45643  16.292  15.850   1.365  0.2137 -0.0713 -0.0789
 2732W        W45644  15.958  15.081  31.053  0.1849  0.2248  0.0610
 2733W        W45645  17.316  16.591   2.572 -0.1374  0.1794 -0.0709
 2734W        W45646  17.423  15.871   1.831 -0.0273  0.1143 -0.4330
 2735W        W45647  17.019  15.350   6.589 -0.1207 -0.0524 -0.0206
 2736W        W45648  16.148  15.174   3.724  0.1074  0.0460 -0.0982
 2737W        W45649  18.168  14.016   3.701  0.1214 -0.0917  0.0236
 2738W        W45650  16.822  16.831   3.475  0.0582  0.0048 -0.1134
 2739W        W45651  15.352  15.859   6.653 -0.0034  0.1627 -0.1796
 2740W        W45652  16.640  17.926   5.154 -0.1628  0.1850 -0.2076
 2741W        W45653  15.152  16.036   7.052 -0.0804 -0.1651 -0.3125
 2742W        W45654  17.268  16.710   4.089 -0.0475  0.4016  0.3106
 2743W        W45655  15.980  18.196   5.558 -0.2197  0.3010  0.1193
 2744W        W45656  16.157  15.786   2.913 -0.1092  0.2719  0.1912
 2745W        W45657  16.374  15.145   5.887  0.1031 -0.0228  0.3788
 2746W        W45658  15.424  15.698   5.137  0.0245  0.0140 -0.2605
 2747W        W45659  15.320  14.974   3.429  0.0759 -0.3519  0.2485
 2748W        W45660  14.686  13.844   4.857 -0.1962  0.1364 -0.0595
 2749W        W45661  17.867  16.500   5.683  0.1667 -0.0025  0.0012
 2750W        W45662  15.037  15.808   4.406  0.0811 -0.1160 -0.0830
 2751W        W45663  15.147  16.216   5.093  0.2545  0.0536 -0.3199
 2752W        W45664  15.751  15.546   3.577 -0.1231 -0.1722 -0.0735
 2753W        W45665  17.430  18.100   5.318 -0.0670 -0.1267  0.2678
 2754W        W45666  16.779  15.101   5.561  0.2767 -0.0283 -0.1921
 2755W        W45667  16.240  15.749   6.890  0.0948 -0.2844  0.1332
 2756W        W45668  15.490  16.506   4.438 -0.1192  0.0280 -0.5052
 2757W        W45669  14.993  16.663   4.128  0.0376  0.0667  0.2182
 2758W        W45670  15.877  14.773   5.978 -0.1258  0.0671 -0.2127
 2759W        W45671  17.241  15.824   5.636  0.1742 -0.0025 -0.1332
 2760W        W45672  17.920  14.855   3.979  0.0162 -0.1184 -0.2018
 2761W        W45673  18.730  16.131   5.266  0.3158  0.0554 -0.0101
 2762W        W45674  16.149  17.639   3.375  0.2443 -0.2591 -0.3775
 2763W        W45675  16.576  17.505   5.546  0.1117  0.0143 -0.2893
 2764W        W45676  17.549  16.527   8.551 -0.2066 -0.2005  0.0539
 2765W        W45677  14.508  15.729   5.007 -0.0778 -0.1866 -0.2315
 2766W        W45678  14.895  17.983   3.789 -0.1166 -0.0092 -0.3022
 2767W        W45679  14.985  17.554   4.311 -0.2568  0.0449  0.1462
 2768W        W45680  18.150  17.191   5.007 -0.0460 -0.2395  0.2160
 2769W        W45681  17.371  17.380   5.428 -0.0886  0.2106  0.1180
 2770W        W45682  15.015  17.536   5.895  0.0005 -0.2073  0.1227
 2771W        W45683  14.159  17.448   3.574  0.0355  0.1300  0.1223
 2772W        W45684  15.745  16.716   6.557  0.1582 -0.1586 -0.2632
 2773W        W45685  14.511  16.789   5.899 -0.0376  0.0229 -0.0251
 2774W        W45686  15.990  16.830   5.015 -0.2450 -0.0227 -0.2021
 2775W        W45687  17.557  16.779   3.677 -0.1051 -0.0300 -0.1501
 2776W        W45688  15.698  16.083   3.741 -0.2286 -0.0682  0.0591
 2777W        W45689  17.510  17.219   4.013  0.1181  0.2070 -0.1458
 2778W        W45690  15.562  16.353   6.892 -0.1808  0.0460  0.1926
 2779W        W45691  14.857  18.231   4.927  0.2144 -0.0745 -0.2366
 2780W        W45692  18.820  14.529   8.078  0.0450 -0.0411  0.0801
 2781W        W45693  15.164  17.632   3.443 -0.1001  0.0087  0.3573
 2782W        W45694  18.179  16.447   3.158  0.1512 -0.2900  0.0515
 2783W        W45695  16.830  16.622   2.732 -0.3164  0.1990  0.2298
 2784W        W45696  17.266  14.451   1.574 -0.1462 -0.1380  0.0141
 2785W        W45697  17.197  15.160   4.511 -0.1322 -0.3476 -0.0099
 2786W        W45698  14.560  19.786   3.956 -0.2158 -0.3756 -0.1193
 2787W        W45699  15.817  14.932   6.493  0.0029  0.1547  0.1470
 2788W        W45700  16.875  16.658   6.332  0.1354 -0.2416  0.0522
 2789W        W45701  17.214  16.321   4.486  0.0053 -0.0498 -0.3395
 2790W        W45702  17.922  15.149   5.610  0.2473  0.2855 -0.0687
 2791W        W45703  15.241  17.781   4.765  0.0620  0.0502 -0.1256
 2792W        W45704  13.870  15.403   4.385  0.1246 -0.0541  0.0436
 2793W        W45705  16.363  18.703   2.578  0.0145 -0.1172 -0.0168
 2794W        W45706  17.833  16.869   3.187  0.1693 -0.2285  0.2448
 2795W        W45707  16.782  17.451   3.329  0.2148 -0.3659 -0.1060
 2796W        W45708  16.519  17.429   4.997  0.0549  0.0271 -0.0176
 2797W        W45709  14.096  16.965   5.185  0.0699  0.0491 -0.4472
 2798W        W45710  14.373  14.621   6.632 -0.1797 -0.0150  0.2091
 2799W        W45711  14.649  14.768   3.991  0.1262 -0.3823 -0.0500
 2800W        W45712  17.528  17.311   7.415  0.0844 -0.1659  0.2379
 2801W        W45713  13.996  18.233   6.674  0.3383  0.3155 -0.1409
 2802W        W45714  18.519  15.256   3.016 -0.1025 -0.1364 -0.1184
 2803W        W45715  15.879  16.093   5.046  0.0151  0.1114 -0.3211
 2804W        W45716  18.494  16.012   6.922  0.1582  0.1245 -0.0807
 2805W        W45717  16.833  17.919   3.011  0.2423 -0.3416 -0.2439
 2806W        W45718  17.375  14.517   5.804  0.4475  0.0348 -0.0523
 2807W        W45719  18.310  15.419   5.558  0.2927  0.2601  0.0724
 2808W        W45720  15.752  16.920   3.174  0.1750 -0.0192 -0.3311
 2809W        W45721  17.576  16.111   5.899  0.1126  0.0226 -0.0717
 2810W        W45722  16.589  17.034   6.034  0.1475 -0.0432  0.1305
 2811W        W45723  17.208  16.607   3.265  0.2813 -0.3171 -0.1304
 2812W        W45724  13.622  17.809   5.295 -0.0653 -0.2188  0.0291
 2813W        W45725  14.854  16.668   6.273 -0.5378  0.1852  0.1432
 2814W        W45726  16.635  16.946   6.999  0.0557  0.1979  0.1990
 2815W        W45727  15.420  18.153   3.123 -0.0216  0.1313  0.1907
 2816W        W45728  12.751  16.520   5.967 -0.1988 -0.0714  0.1936
 2817W        W45729  15.188  16.232   3.823  0.0349 -0.0419  0.0591
 2818W        W45730  14.927  15.177   5.237 -0.1158  0.0289 -0.1429
 2819W        W45731  15.527  16.899   5.742 -0.1436 -0.1378 -0.2779
 2820W        W45732  18.193  15.451   3.321  0.0072 -0.4631 -0.0423
 2821W        W45733  14.817  15.273   6.046 -0.0976 -0.0068 -0.1846
 2822W        W45734  18.857  14.618   5.185 -0.0609 -0.0780  0.0360
 2823W        W45735  16.717  15.796   3.799 -0.2830  0.2452  0.1128
 2824W        W45736  17.885  17.269   3.651  0.0306 -0.3461  0.1607
 2825W        W45737  18.668  15.404   4.967 -0.0711  0.0912  0.2183
 2826W        W45738  18.033  17.660   1.238 -0.2721  0.0709  0.2655
 2827W        W45739  14.809  15.825   5.845  0.0274 -0.3376 -0.1510
 2828W        W45740  15.081  15.436   5.665 -0.1949  0.0655 -0.0746
 2829W        W45741  15.124  14.272   7.334  0.0592 -0.2217  0.0530
 2830W        W45742  15.816  14.797   5.485 -0.0796  0.2196  0.2530
 2831W        W45743  18.413  15.595   6.690  0.0649 -0.1067  0.0728
 2832W        W45744  15.803  14.483   4.408 -0.0122 -0.1257  0.0268
 2833W        W45745  18.097  16.042   4.548 -0.3148  0.0346 -0.1380
 2834W        W45746  16.008  15.720   3.978 -0.2341  0.0890 -0.1504
 2835W        W45747  13.924  16.400   4.467  0.0047  0.0503 -0.0653
 2836W        W45748  17.769  15.862   6.406  0.1125  0.1343  0.2051
 2837W        W45749  16.728  18.781   3.056 -0.0470  0.0039  0.0952
 2838W        W45750  18.130  17.483   6.126  0.0780 -0.0018 -0.2519
 2839W        W45751  17.433  17.891   4.766  0.2627 -0.0293 -0.0638
 2840W        W45752  15.953  15.213   6.145  0.2342  0.0408  0.3173
 2841W        W45753  14.810  15.417   4.686 -0.0387  0.1389  0.0211
 2842W        W45754  15.811  17.089   4.149  0.4432 -0.0697 -0.2214
 2843W        W45755  17.111  17.132   4.295 -0.3579  0.0756 -0.2320
 2844W        W45756  15.697  14.650   3.600  0.0217 -0.1290  0.1382
 2845W        W45757  17.684  16.797   6.052 -0.0245  0.5702 -0.1211
 2846W        W45758  16.245  17.078   4.589 -0.1004 -0.0119  0.0068
 2847W        W45759  15.600  16.396   5.868  0.0569 -0.0666  0.2286
 2848W        W45760  18.012  14.731   6.445  0.2821  0.1137  0.2055
 2849W        W45761  18.619  16.862   6.478  0.0794 -0.6409 -0.2052
 2850W        W45762  17.984  16.587   5.202  0.0140 -0.1432  0.0636
 2851W        W45763  14.665  15.425   4.210  0.2142 -0.0261 -0.0115
 2852W        W45764  15.811  17.002   6.201  0.0361 -0.1681 -0.0771
 2853W        W45765  14.104  16.726   1.132 -0.2262  0.1264 -0.2641
 2854W        W45766  14.646  16.200   5.518 -0.0543  0.0812  0.3215
 2855W        W45767  16.111  17.384   3.903 -0.2116  0.2641  0.3491
 2856W        W45768  18.305  14.835   4.334 -0.2430 -0.0203  0.0548
 2857W        W45769  15.482  16.315   6.386 -0.0155 -0.0161  0.0626
 2858W        W45770  18.689  15.152   7.450  0.0978  0.0090 -0.2781
 2859W        W45771  15.384  15.466   4.711  0.2349 -0.1944  0.1168
 2860W        W45772  14.035  16.553   5.808 -0.0421  0.2440  0.3285
 2861W        W45773  17.517  15.017   5.357 -0.0619 -0.0558  0.2358
 2862W        W45774  18.473  16.016   2.718 -0.0294 -0.2589 -0.2031
 2863W        W45775  16.545  16.730   7.399  0.4698 -0.2734  0.2077
 2864W        W45776  17.350  18.167   3.445  0.4619  0.0890  0.3047
 2865W        W45777  16.939  15.004   1.508 -0.0126 -0.1686 -0.5013
 2866W        W45778  17.574  13.554   2.395 -0.2982 -0.0060 -0.2588
 2867W        W45779  14.633  16.961   5.467 -0.0772 -0.4320  0.2980
 2868W        W45780  17.143  17.386   3.705  0.2555  0.0145 -0.0134
 2869W        W45781  15.981  16.036   4.357 -0.2160  0.1794  0.1057
 2870W        W45782  17.226  14.290   3.316  0.2164 -0.0595  0.3781
 2871W        W45783  16.737  18.694   4.466 -0.1462 -0.2244  0.2262
 2872W        W45784  13.156  16.134   4.937 -0.0492 -0.2163  0.0719
 2873W        W45785  17.185  17.529   6.671  0.1442 -0.1713  0.1033
 2874W        W45786  17.218  18.439   6.051  0.0613 -0.4507  0.2304
 2875W        W45787  16.240  15.307   5.203  0.1675  0.1981  0.0698
 2876W        W45788  16.056  17.019   2.107 -0.2738  0.1920 -0.0576
 2877W        W45789  14.927  14.384   3.897 -0.1284  0.3480 -0.0835
 2878W        W45790  14.074  18.522   3.729  0.2401 -0.1157 -0.1419
 2879W        W45791  18.312  16.084   6.462  0.1758 -0.1607 -0.1890
 2880W        W45792  17.067  15.513   4.868 -0.1735 -0.0578  0.0183
 2881W        W45793  16.657  15.215   6.915 -0.1476  0.2571 -0.1368
 2882W        W45794  17.589  15.426   7.677 -0.1948  0.3408  0.1767
 2883W        W45795  16.279  16.426   5.140  0.2322  0.3040 -0.1363
 2884W        W45796  16.972  15.969   5.160 -0.0236  0.0839 -0.4435
 2885W        W45797  15.957  16.475   3.549  0.0237 -0.0934 -0.2375
 2886W        W45798  16.691  15.573   5.238  0.0170  0.1612  0.1006
 2887W        W45799  15.143  16.843   4.872 -0.2975  0.1228  0.1209
 2888W        W45800  15.391  16.506   5.439 -0.0092  0.2742  0.1436
 2889W        W45801  18.156  16.155   5.971  0.2751  0.2991 -0.0545
 2890W        W45802  16.910  17.145   5.177 -0.0442  0.0028 -0.1691
 2891W        W45803  16.866  15.056   7.440  0.2844  0.3878  0.0448
 2892W        W45804  17.380  14.522   2.774 -0.0242 -0.4134  0.1549
 2893W        W45805  15.678  17.439   3.391 -0.1009  0.2737  0.2248
 2894W        W45806  16.386  16.694   3.717  0.0390  0.3058 -0.0380
 2895W        W45807  16.097  15.296   4.190 -0.2535  0.0357  0.2483
 2896W        W45808  15.669  17.835   5.360 -0.1799 -0.0421 -0.1197
 2897W        W45809  15.143  17.180   3.285 -0.1234  0.2861  0.1372
 2898W        W45810  17.054  16.545   6.789 -0.2106 -0.0689 -0.2246
 2899W        W45811  15.538  18.299   4.522 -0.3843 -0.2494 -0.0729
 2900W        W45812  17.592  13.577   5.695  0.0079 -0.3383 -0.2084
 2901W        W45813  14.096  16.433   2.569 -0.2507 -0.1182 -0.1071
 2902W        W45814  16.625  15.195   2.361  0.2761  0.3285  0.3846
 2903W        W45815  14.418  16.671   4.042 -0.2357 -0.0753  0.0699
 2904W        W45816  16.869  16.452   4.970 -0.4622  0.3825  0.2843
 2905W        W45817  17.992  18.701   3.538  0.0352 -0.0478  0.0609
 2906W        W45818  16.361  16.111   4.690  0.1261  0.1267  0.0023
 2907W        W45819  18.387  15.798   5.202 -0.0119 -0.0604 -0.5127
 2908W        W45820  14.894  17.863   6.804 -0.1209 -0.0398 -0.0307
 2909W        W45821  17.726  17.072   4.522 -0.1729 -0.0924  0.0845
 2910W        W45822  16.371  14.765   2.914 -0.0618  0.0670 -0.0602
 2911W        W45823  17.760  15.338   6.088 -0.0075  0.1074 -0.0348
 2912W        W45824  16.908  15.149   6.081  0.0390  0.0881 -0.1857
 2913W        W45825  14.710  17.108   4.144 -0.0110  0.1219 -0.0818
 2914W        W45826  18.725  15.378   6.364  0.0556  0.0357  0.0444
 2915W        W45827  17.266  15.899   4.011 -0.0757 -0.2224  0.0719
 2916W        W45828  15.170  17.282   4.664 -0.1095  0.0363  0.0116
 2917W        W45829  16.087  17.041   5.792  0.1717 -0.0371  0.0792
 2918W        W45830  15.177  16.434   2.409 -0.1594 -0.2551  0.3054
 2919W        W45831  14.673  16.602   4.568  0.0550  0.0676  0.1098
 2920W        W45832  15.963  16.204   6.196  0.0994 -0.1777 -0.2550
 2921W        W45833  18.435  16.621   5.725 -0.3463  0.0212  0.1850
 2922W        W45834  17.592  15.487   5.540  0.0835 -0.2326 -0.2086
 2923W        W45835  15.571  16.509   4.966  0.0434 -0.2017  0.1174
 2924W        W45836  17.325  14.977   6.265  0.0664  0.1479  0.0049
 2925W        W45837  18.672  16.340   6.231  0.3326  0.0340  0.1019
 2926W        W45838  17.628  14.845   7.280  0.4298  0.0618  0.0016
 2927W        W45839  14.634  16.212   6.065 -0.1414 -0.1215 -0.1300
 2928W        W45840  17.408  15.013   4.014  0.0881  0.1617 -0.2871
 2929W        W45841  17.735  17.755   3.466  0.3811 -0.3876 -0.0083
 2930W        W45842  17.162  15.401   5.356 -0.1279 -0.2539  0.0794
 2931W        W45843  15.482  15.996   4.665 -0.0534  0.3005 -0.1704
 2932W        W45844  14.132  16.040   4.697 -0.2835 -0.1453  0.1009
 2933W        W45845  15.883  17.823   4.286  0.0348  0.0821 -0.0607
 2934W        W45846  17.956  15.808   5.612  0.1217  0.3226  0.0321
 2935W        W45847  15.449  17.410   5.555 -0.0203 -0.0709 -0.2313
 2936W        W45848  15.517  16.628   3.933 -0.1828  0.2000  0.2352
 2937W        W45849  15.173  18.725   4.563  0.0783  0.0338 -0.1236
 2938W        W45850  17.742  14.210   3.253 -0.2054  0.2330 -0.0223
 2939W        W45851  17.555  16.193   4.848 -0.2127  0.2641 -0.0015
 2940W        W45852  18.171  14.989   6.059 -0.0990 -0.0488  0.0306
 2941W        W45853  17.987  15.108   7.627  0.0295  0.0865 -0.2199
 2942W        W45854  17.813  16.317   3.841 -0.0390  0.1892 -0.2774
 2943W        W45855  18.376  14.432   8.208  0.1947 -0.3562  0.4729
 2944W        W45856  15.926  15.743   6.479  0.2223 -0.1247 -0.1205
 2945W        W45857  17.434  17.380   4.869  0.1352 -0.0346 -0.0912
 2946W        W45858  15.099  16.468   6.803  0.0790  0.1426 -0.2882
 2947W        W45859  16.778  17.387   6.366 -0.2707  0.1301 -0.1315
 2948W        W45860  14.056  16.995   6.145  0.1431  0.0976 -0.2355
 2949W        W45861  17.329  15.291   3.328 -0.1347  0.3763  0.3249
 2950W        W45862  17.186  16.241   2.945  0.0312  0.1296  0.1797
 2951W        W45863  16.462  16.897   5.528  0.0428  0.1077  0.1602
 2952W        W45864  19.097  15.934   6.150 -0.1881 -0.0365 -0.0522
 2953W        W45865  18.260  16.639   2.131  0.2855  0.0558 -0.1113
 2954W        W45866  18.578  15.780   5.924  0.2905 -0.3934  0.1487
 2955W        W45867  15.178  17.725   5.282 -0.2311 -0.1763  0.3323
 2956W        W45868  18.454  17.243   3.348  0.1904 -0.0720  0.0040
 2957W        W45869  16.634  16.546   5.900  0.0657 -0.3747  0.2501
 2958W        W45870  14.728  16.259   4.223  0.3268  0.1191  0.0648
 2959W        W45871  15.484  14.605   7.421 -0.0225  0.1884  0.1285
 2960W        W45872  18.409  16.451   5.027 -0.3356 -0.1073  0.1023
 2961W        W45873  17.551  15.971   3.144  0.1054 -0.1919  0.2220
 2962W        W45874  17.300  15.131   5.784  0.1524  0.1846  0.1624
 2963W        W45875  18.117  17.246   7.207  0.0651 -0.3542  0.3435
 2964W        W45876  16.784  15.617   6.233  0.1038  0.2211  0.1964
 2965W        W45877  13.277  15.031   6.812  0.2490  0.0838 -0.0706
 2966W        W45878  16.775  18.277   5.946  0.4299  0.3950  0.0414
 2967W        W45879  19.051  16.695   2.274  0.1630  0.1946 -0.2115
 2968W        W45880  17.964  15.393   6.571  0.0701  0.0887  0.1218
 2969W        W45881  17.410  16.918   5.628 -0.3581  0.1642 -0.0711
 2970W        W45882  15.783  15.042   3.326  0.1256 -0.2912 -0.0469
 2971W        W45883  14.670  14.958   6.440  0.2745 -0.1874  0.0167
 2972W        W45884  17.900  16.274   7.560  0.2390  0.2706  0.4523
 2973W        W45885  16.566  15.375   1.373  0.0812  0.1109 -0.2501
 2974W        W45886  17.209  15.517   7.427  0.2653  0.0241 -0.1926
 2975W        W45887  15.501  17.326   2.915 -0.1711  0.0452 -0.0901
 2976W        W45888  16.658  17.266   3.853 -0.0812 -0.2152 -0.0134
 2977W        W45889  18.068  15.793   4.108 -0.2478  0.1756 -0.2179
 2978W        W45890  15.892  15.654   5.272  0.1457  0.1858  0.0339
 2979W        W45891  14.910  19.368   7.120 -0.1563  0.0443 -0.1112
 2980W        W45892  16.346  15.923   5.185  0.2937  0.2103  0.0980
 2981W        W45893  15.899  14.839   4.013  0.2873  0.0774 -0.5655
 2982W        W45894  16.788  15.608   5.705  0.3769 -0.0363  0.1601
 2983W        W45895  18.054  17.923   6.568 -0.1128 -0.0991 -0.3481
 2984W        W45896  17.362  15.179   2.233  0.2620  0.0870 -0.1146
 2985W        W45897  18.818  15.878   6.549 -0.0574  0.3406  0.0154
 2986W        W45898  16.267  17.170   3.412 -0.0988  0.0335 -0.0672
 2987W        W45899  16.400  16.429   4.320 -0.1418 -0.0941 -0.3502
 2988W        W45900  15.506  17.404   5.047  0.1311 -0.1717  0.4714
 2989W        W45901  13.957  17.747   4.926  0.0776 -0.1924  0.1662
 2990W        W45902  15.061  16.278   4.576 -0.2694 -0.0819 -0.2718
 2991W        W45903  16.835  16.030   4.644 -0.3672 -0.0874  0.6345
 2992W        W45904  18.744  15.310   3.542  0.1622 -0.0054  0.0166
 2993W        W45905  17.330  16.325   3.769 -0.0866 -0.1375 -0.4044
 2994W        W45906  19.466  14.725   7.513  0.1169  0.4622  0.0226
 2995W        W45907  17.302  16.083   6.595 -0.0946  0.0096  0.0300
 2996W        W45908  16.538  16.063   7.214  0.0047  0.2232  0.2528
 2997W        W45909  17.130  17.013   6.649 -0.1747  0.0895  0.2065
 2998W        W45910  18.855  15.870   4.064 -0.1966  0.0933  0.0496
 2999W        W45911  16.770  16.711   3.987  0.3481  0.0150  0.1546
 3000W        W45912  14.195  16.141   5.262  0.0708  0.1294  0.0015
 3001W        W45913  14.969  17.221   6.291 -0.4241 -0.5759 -0.1131
 3002W        W45914  17.570  16.257   5.383  0.2143  0.1397 -0.1480
 3003W        W45915  16.259  14.848   2.384  0.2392  0.1192 -0.3281
 3004W        W45916  15.913  16.932   3.725 -0.2892 -0.0777 -0.3158
 3005W        W45917  13.739  17.707   6.464 -0.0669  0.1294 -0.1548
 3006W        W45918  13.809  17.366   5.277  0.2140 -0.1485  0.2314
 3007W        W45919  13.904  18.104   3.512  0.1243 -0.4788  0.1754
 3008W        W45920  16.718  18.327   3.938  0.0068  0.0636  0.2506
 3009W        W45921  18.021  16.051   5.044 -0.2163 -0.0547  0.0604
 3010W        W45922  16.593  17.715   6.052 -0.2395 -0.1110  0.2946
 3011W        W45923  17.636  15.915   3.627 -0.0631 -0.0727  0.0336
 3012W        W45924  15.510  18.732   3.698 -0.1321 -0.1483 -0.1274
 3013W        W45925  14.630  17.250   3.457 -0.0336  0.0896  0.1364
 3014W        W45926  16.436  17.727   3.771  0.2719 -0.0264 -0.4006
 3015W        W45927  16.462  17.367   2.295  0.1285  0.3379  0.2260
 3016W        W45928  16.930  17.401   7.763 -0.2007  0.0599 -0.2054
 3017W        W45929  17.800  14.883   2.355  0.2376 -0.1816  0.0185
 3018W        W45930  16.967  17.722   4.651  0.1282 -0.0999  0.1845
 3019W        W45931  17.596  16.041   2.663  0.1578 -0.0202  0.2173
 3020W        W45932  16.847  18.437   6.397 -0.2447 -0.1483  0.1848
 3021W        W45933  17.491  14.695   3.629 -0.3191 -0.1659 -0.0021
 3022W        W45934  15.859  15.040   2.824 -0.1995  0.3169 -0.0439
 3023W        W45935  14.914  16.614   5.321 -0.0557 -0.0779  0.1811
 3024W        W45936  18.171  13.759   7.399 -0.0055 -0.2089 -0.0649
 3025W        W45937  14.042  18.464   6.181 -0.2408 -0.3523  0.2110
 3026W        W45938  16.994  17.617   4.185 -0.4317 -0.2080  0.2096
 3027W        W45939  14.283  15.453   4.603  0.4911  0.1755  0.1330
 3028W        W45940  16.572  15.667   4.753  0.1005 -0.2497 -0.0007
 3029W        W45941  18.028  14.194   6.493  0.0697 -0.0680  0.3096
 3030W        W45942  15.659  16.998   4.710 -0.1881  0.0337 -0.2524
 3031W        W45943  17.826  15.659   4.662  0.0742  0.3020  0.1240
 3032W        W45944  16.243  18.406   4.463 -0.2379  0.1894 -0.0106
 3033W        W45945  16.249  16.905   4.139 -0.0035  0.2845  0.1011
 3034W        W45946  15.252  18.097   5.862  0.1420 -0.0826 -0.0364
 3035W        W45947  14.786  14.294   5.089 -0.0541 -0.0138  0.0850
 3036W        W45948  18.140  16.426   4.199  0.3188  0.0313  0.0819
 3037W        W45949  15.428  15.199   5.352 -0.1494 -0.2009 -0.3849
 3038W        W45950  18.250  16.223   5.495  0.0372 -0.5001 -0.1150
 3039W        W45951  14.959  15.844   4.883 -0.1123 -0.0788  0.0733
 3040W        W45952  18.222  16.466   2.624 -0.0158 -0.2294 -0.0795
 3041W        W45953  17.266  15.630   6.155  0.0346 -0.1063 -0.1531
 3042W        W45954  15.766  15.256   4.985  0.0480  0.1553  0.3670
 3043W        W45955  15.740  15.110   4.510 -0.2016  0.3869 -0.0869
 3044W        W45956  18.708  17.183   6.874  0.1865 -0.1672  0.1568
 3045W        W45957  16.172  15.377   3.224  0.3313 -0.1676  0.1483
 3046W        W45958  16.120  17.626   5.737 -0.1117  0.0067 -0.1607
 3047W        W45959  16.522  14.722   3.841 -0.2168 -0.0795 -0.0192
 3048W        W45960  16.635  15.381   2.897 -0.1826  0.0470 -0.1880
 3049W        W45961  15.841  15.772   5.841 -0.0400 -0.0883 -0.0359
 3050W        W45962  16.824  16.211   6.554 -0.2350 -0.0394  0.0330
 3051W        W45963  17.500  17.205   6.896  0.0985 -0.3002 -0.1321
 3052W        W45964  14.371  15.232   2.604 -0.4268 -0.1070 -0.2395
 3053W        W45965  17.691  16.638   4.252  0.0566 -0.0073  0.0468
 3054W        W45966  19.273  17.704   5.120 -0.0106 -0.0688 -0.1031
 3055W        W45967  16.222  18.142   4.009  0.1221  0.0517  0.2253
 3056W        W45968  17.315  16.791   4.658  0.0263 -0.0138 -0.0289
 3057W        W45969  16.142  16.562   5.969 -0.1647  0.1634 -0.1181
 3058W        W45970  16.791  16.160   5.574  0.1265 -0.4345 -0.0679
 3059W        W45971  17.259  16.819   5.149  0.3794  0.1045  0.1837
 3060W        W45972  18.686  16.451   6.779 -0.1214 -0.0435  0.1395
 3061W        W45973  17.535  15.471   4.273  0.1719 -0.2506 -0.1197
 3062W        W45974  15.950  16.469   4.133 -0.2172 -0.0839  0.0101
 3063W        W45975  15.223  17.054   4.242 -0.0609 -0.1046  0.3230
 3064W        W45976  17.981  14.482   3.578  0.2472 -0.0087  0.2377
 3065W        W45977  17.315  16.983   7.735 -0.1337  0.2597  0.2285
 3066W        W45978  17.713  18.039   2.934  0.2581  0.0513 -0.0208
 3067W        W45979  18.463  14.706   7.361 -0.2681  0.0848 -0.0523
 3068W        W45980  16.366  16.112   5.896  0.2551  0.3514 -0.3454
 3069W        W45981  14.488  17.250   6.122  0.1734 -0.1018 -0.1579
 3070W        W45982  14.965  17.228   5.180 -0.0082  0.0025  0.1096
 3071W        W45983  16.206  15.608   6.140 -0.0103  0.0828  0.0655
 3072W        W45984  16.818  16.724   4.545  0.2524 -0.2076  0.0911
 3073W        W45985  16.417  18.606   3.440  0.0329 -0.1614 -0.2651
 3074W        W45986  16.587  18.832   6.022  0.1198 -0.0837  0.2362
 3075W        W45987  16.708  16.316   3.115  0.0765 -0.0120  0.0702
 3076W        W45988  18.312  16.989   6.059  0.1727 -0.2302  0.2136
 3077W        W45989  16.731  16.301   3.657  0.0956  0.0473  0.0693
 3078W        W45990  18.114  16.020   3.459 -0.1642  0.0549 -0.1115
 3079W        W45991  17.401  13.750   4.547  0.1119 -0.1141  0.4839
 3080W        W45992  15.510  15.264   5.893  0.3529  0.1608  0.2207
 3081W        W45993  15.364  16.659   3.439 -0.0122  0.0840 -0.0166
 3082W        W45994  14.338  16.872   3.209 -0.2516 -0.3460  0.2170
 3083W        W45995  15.990  16.441   4.680  0.0839  0.2371  0.2849
 3084W        W45996  18.147  14.839   7.007 -0.0679 -0.1397  0.3775
 3085W        W45997  15.357  14.899   6.232 -0.2161 -0.0821  0.2656
 3086W        W45998  14.676  16.256   4.989 -0.1600  0.2085 -0.1766
 3087W        W45999  16.180  14.865   4.732 -0.0637  0.3166 -0.1013
 3088W        W46000  16.211  16.498   2.096  0.0385  0.2241 -0.0912
 3089W        W46001  14.993  14.610   6.508  0.1855  0.0577  0.0183
 3090W        W46002  14.016  13.735   4.418 -0.1365  0.1093 -0.3196
 3091W        W46003  18.631  16.757   3.316  0.0102 -0.0382 -0.0897
 3092W        W46004  16.484  16.853   5.032 -0.1781 -0.5042  0.1095
 3093W        W46005  16.977  15.609   4.313 -0.0510 -0.0408 -0.1018
 3094W        W46006  17.470  18.434   6.607  0.3329 -0.0433 -0.0452
 3095W        W46007  15.352  16.750   2.924  0.3957 -0.1655 -0.1322
 3096W        W46008  16.145  16.807   6.838 -0.0457 -0.2634 -0.1604
 3097W        W46009  16.275  15.194   7.260 -0.2021  0.2303 -0.1448
 3098W        W46010  14.861  13.948   4.156 -0.0593  0.0709 -0.1476
 3099W        W46011  17.561  14.929   6.748 -0.0103  0.0373 -0.1516
 3100W        W46012  16.894  17.861   3.716  0.1697 -0.3152 -0.2030
 3101W        W46013  16.648  18.980   2.273  0.0875 -0.0517  0.2199
 3102W        W46014  15.469  15.550   6.254 -0.2011  0.1490 -0.1443
 3103W        W46015  15.506  16.925   5.173  0.0503 -0.2555 -0.1550
 3104W        W46016  14.058  14.744   6.218  0.2816  0.2887 -0.0587
 3105W        W46017  17.428  17.529   4.380  0.0934 -0.0811  0.4025
 3106W        W46018  16.363  16.460   6.465  0.2932 -0.0584 -0.1043
 3107W        W46019  17.489  18.651   3.569  0.2454  0.0242  0.3025
 3108W        W46020  17.923  14.319   5.885 -0.0969 -0.1175 -0.2227
 3109W        W46021  16.236  17.740   2.798 -0.4043  0.1022 -0.2136
 3110W        W46022  14.517  14.428   7.141 -0.1771  0.0202  0.1739
 3111W        W46023  15.624  16.052   5.537 -0.1910  0.2710  0.2163
 3112W        W46024  18.776  16.191   5.768 -0.3694  0.2844  0.0170
 3113W        W46025  16.320  15.673   5.606  0.1499 -0.0007 -0.0814
 3114W        W46026  17.877  16.496   4.732  0.0381  0.0079  0.1355
 3115W        W46027  15.900  18.017   3.108 -0.1365 -0.1172  0.0778
 3116W        W46028  13.506  16.367   5.911 -0.0866  0.3831  0.0390
 3117W        W46029  17.696  16.539   2.898  0.3700  0.0274  0.0042
 3118W        W46030  16.565  16.465   6.924  0.1777  0.0587  0.0728
 3119W        W46031  16.872  15.791   6.810  0.0302  0.1713  0.0130
 3120W        W46032  17.493  15.505   6.553  0.1937  0.0858 -0.1476
 3121W        W46033  17.123  15.694   2.949  0.0028 -0.3557 -0.1419
 3122W        W46034  17.993  15.878   2.977  0.2431 -0.0302  0.0942
 3123W        W46035  16.575  18.858   5.335  0.0248 -0.1313  0.0838
 3124W        W46036  16.514  18.428   6.699 -0.1704 -0.0408  0.0042
 3125W        W46037  16.264  17.519   4.389  0.1410  0.0302 -0.0102
 3126W        W46038  18.959  17.046   5.421  0.0624  0.0958  0.1761
 3127W        W46039  16.146  15.260   6.760  0.1371 -0.0049 -0.1979
 3128W        W46040  16.257  16.143   3.903  0.1068 -0.2647 -0.0292
 3129W        W46041  16.076  16.181   5.531  0.0650 -0.2490  0.4794
 3130W        W46042  18.144  16.345   7.087  0.2853  0.2228 -0.3584
 3131W        W46043  15.507  16.088   4.190  0.0955  0.0844 -0.0017
 3132W        W46044  17.764  15.022   4.444  0.0450 -0.0388 -0.3595
 3133W        W46045  15.409  18.152   5.072 -0.2043  0.0766 -0.0716
 3134W        W46046  16.867  16.048   6.045  0.3969  0.0979  0.1126
 3135W        W46047  15.715  16.314   7.712  0.0188 -0.1691  0.2229
 3136W        W46048  15.759  16.707   8.075  0.0517  0.1678 -0.0801
 3137W        W46049  17.977  15.856   6.999 -0.1299  0.3144  0.2108
 3138W        W46050  18.288  15.837   8.708 -0.2824  0.2139 -0.2080
 3139W        W46051  14.326  15.287   7.150  0.1428 -0.0808 -0.1935
 3140W        W46052  16.731  18.161   7.070 -0.4206 -0.0205  0.2510
 3141W        W46053  16.538  17.695   8.629 -0.0006 -0.1637  0.1479
 3142W        W46054  16.264  17.866   9.339 -0.1765 -0.0058  0.1996
 3143W        W46055  17.422  16.482   7.616 -0.1270 -0.2885  0.4296
 3144W        W46056  15.857  13.051   9.909 -0.1081 -0.1498 -0.0430
 3145W        W46057  16.362  15.353   8.858  0.0486  0.1767 -0.4562
 3146W        W46058  12.625  13.465   8.130  0.2357 -0.0561  0.1895
 3147W        W46059  15.865  17.035   8.561  0.0112 -0.2591  0.1565
 3148W        W46060  13.902  15.571   7.257 -0.0828  0.2149  0.2067
 3149W        W46061  14.968  15.437   9.470  0.4228  0.1818 -0.0833
 3150W        W46062  16.614  16.637   9.549  0.2903 -0.1606 -0.0387
 3151W        W46063  15.979  18.205   7.869  0.1183  0.1840 -0.3806
 3152W        W46064  16.369  16.495   9.056  0.2916  0.1621  0.3328
 3153W        W46065  15.376  17.501   6.940 -0.2913 -0.4138  0.1248
 3154W        W46066  13.511  14.494   7.139 -0.3421  0.0039  0.3575
 3155W        W46067  12.233  15.845   9.575  0.0060 -0.0146 -0.2778
 3156W        W46068  14.850  16.861   9.160  0.2242  0.0279  0.4619
 3157W        W46069  17.988  16.874   9.597 -0.1231  0.5280  0.0302
 3158W        W46070  17.365  16.272   8.948  0.4075 -0.0761 -0.0584
 3159W        W46071  15.236  17.930   8.605  0.0794 -0.0354 -0.2961
 3160W        W46072  15.013  17.773   7.681 -0.0393 -0.4006 -0.0108
 3161W        W46073  13.990  16.712   8.052  0.2263  0.2248 -0.0472
 3162W        W46074  12.703  17.125   8.770 -0.3297  0.0654  0.1551
 3163W        W46075  14.033  16.751   6.742  0.3046 -0.0733  0.1464
 3164W        W46076  17.434  18.020   8.344  0.0418  0.0849  0.0303
 3165W        W46077  14.413  16.933   6.460 -0.2961 -0.1230  0.1232
 3166W        W46078  16.100  17.503   9.710  0.0116 -0.0529 -0.3444
 3167W        W46079  15.733  15.954   8.606  0.1433  0.1866 -0.2391
 3168W        W46080  16.262  17.651   7.249  0.0425 -0.2250 -0.1224
 3169W        W46081  14.972  16.834   8.624  0.5015 -0.1907 -0.0581
 3170W        W46082  13.904  18.506   8.908 -0.0380 -0.2635 -0.1810
 3171W        W46083  14.647  16.637   7.169  0.1793 -0.2014  0.0342
 3172W        W46084  17.104  16.563   8.228  0.3179 -0.2060 -0.1348
 3173W        W46085  16.252  15.050   7.855  0.0695  0.2971 -0.1848
 3174W        W46086  16.742  16.865   9.020 -0.1865  0.0311  0.2006
 3175W        W46087  15.295  14.411   7.862 -0.0154 -0.2882  0.1271
 3176W        W46088  15.177  17.038   7.305  0.2346 -0.2192 -0.4172
 3177W        W46089  15.066  14.974   9.222  0.1895 -0.1229  0.1703
 3178W        W46090  16.397  16.207   8.576 -0.2533 -0.0099  0.3472
 3179W        W46091  15.814  17.104   9.402  0.0011  0.0382  0.0067
 3180W        W46092  14.768  15.940   8.899 -0.3583 -0.0224  0.0432
 3181W        W46093  15.402  16.045   8.242 -0.0164  0.1681  0.2034
 3182W        W46094  18.408  17.760   7.618 -0.1290 -0.1055 -0.0628
 3183W        W46095  17.016  19.196   9.756  0.0485  0.2277  0.2645
 3184W        W46096  16.480  16.924   6.518 -0.1315 -0.0728  0.1805
 3185W        W46097  13.426  15.621   8.172 -0.1323 -0.0256 -0.2059
 3186W        W46098  14.800  14.480   8.036  0.1522  0.0959 -0.2260
 3187W        W46099  18.448  14.871   7.850 -0.3449 -0.1277  0.1565
 3188W        W46100  15.253  17.078   9.386  0.0918  0.0004  0.4275
 3189W        W46101  15.108  17.346   8.830  0.1773  0.2643  0.0453
 3190W        W46102  17.343  15.784   7.040  0.1451  0.2648  0.3444
 3191W        W46103  16.966  14.157   9.188 -0.2513 -0.0290 -0.1924
 3192W        W46104  15.416  14.203   9.042  0.1913 -0.0792 -0.0452
 3193W        W46105  15.980  16.203   6.709 -0.0677  0.0801 -0.1674
 3194W        W46106  16.141  16.626   8.580 -0.1563 -0.0105  0.0634
 3195W        W46107  16.457  18.928   9.270  0.2013 -0.2501 -0.0993
 3196W        W46108  18.282  16.666   7.518  0.0174 -0.0814  0.1800
 3197W        W46109  13.193  19.244   9.334 -0.2134  0.1525 -0.0914
 3198W        W46110  14.397  18.189   7.004  0.0711 -0.0333  0.4512
 3199W        W46111  15.137  16.677   9.726 -0.2472  0.0559 -0.0645
 3200W        W46112  14.826  15.755   7.349  0.1855 -0.1857 -0.0592
 3201W        W46113  14.872  14.444   8.502 -0.2840 -0.0992 -0.2353
 3202W        W46114  14.279  18.127   9.349  0.4710 -0.1096 -0.4269
 3203W        W46115  18.389  15.579   8.202  0.0183  0.1190 -0.0886
 3204W        W46116  17.013  16.639   9.856 -0.0310 -0.0153 -0.0258
 3205W        W46117  14.485  15.611   8.545  0.2330 -0.1777 -0.5488
 3206W        W46118  16.958  18.444   8.244 -0.1745 -0.0911  0.1162
 3207W        W46119  17.075  17.186   7.140  0.1039 -0.0223 -0.0687
 3208W        W46120  17.359  17.029   8.311 -0.1289  0.1017  0.1333
 3209W        W46121  15.489  15.623   9.096 -0.1031  0.0676 -0.0928
 3210W        W46122  16.226  15.577   7.983  0.0646 -0.0917 -0.3287
 3211W        W46123  14.823  15.305   8.236 -0.1039 -0.0058  0.0781
 3212W        W46124  12.274  14.775   7.740 -0.2471  0.1287  0.1913
 3213W        W46125  15.516  14.718   9.219  0.2616 -0.0070  0.3091
 3214W        W46126  16.287  14.474   7.806 -0.0536 -0.0796  0.1690
 3215W        W46127  13.841  17.303   8.010 -0.2148 -0.2870  0.0398
 3216W        W46128  15.295  16.835   6.214  0.1870  0.2768  0.0625
 3217W        W46129  16.008  17.518   8.686 -0.1207  0.0119 -0.1672
 3218W        W46130  17.265  17.692   7.142  0.0571 -0.2443 -0.1711
 3219W        W46131  13.595  18.735   8.540 -0.3647  0.3816 -0.1724
 3220W        W46132  16.960  16.496   7.302  0.4083  0.0126 -0.2190
 3221W        W46133  14.165  17.577   8.528 -0.0602  0.2164  0.1547
 3222W        W46134  14.811  17.293   8.398  0.0036  0.0566  0.1233
 3223W        W46135  15.392  14.883   6.742 -0.2045  0.0574  0.4091
 3224W        W46136  18.102  18.058   8.775  0.0265  0.0998 -0.2454
 3225W        W46137  16.163  16.703   7.763 -0.1201 -0.3129  0.0001
 3226W        W46138  14.316  17.109  10.050 -0.0624  0.0470  0.1229
 3227W        W46139  17.269  15.608   8.886  0.1861 -0.1325 -0.1749
 3228W        W46140  15.861  15.312   7.632 -0.0509  0.3541 -0.0800
 3229W        W46141  16.283  17.390   6.260 -0.0461 -0.1946  0.2066
 3230W        W46142  14.377  16.578   7.666 -0.2066 -0.2168  0.0135
 3231W        W46143  13.386  15.109   8.482 -0.0754  0.0038  0.0052
 3232W        W46144  16.157  17.718   7.832  0.0644  0.0392 -0.1014
 3233W        W46145  17.036  15.551   9.422 -0.0175  0.1260  0.1267
 3234W        W46146  14.784  15.206   6.874  0.2915  0.1774 -0.1084
 3235W        W46147  17.673  14.157   7.806 -0.0136  0.1438 -0.2085
 3236W        W46148  16.378  14.949   9.403  0.1046 -0.0869 -0.0554
 3237W        W46149  16.700  17.044   8.261 -0.0893  0.3214  0.0665
 3238W        W46150  17.411  16.003   8.561 -0.0318 -0.0635  0.0117
 3239W        W46151  18.037  14.923   8.198 -0.1862  0.1307 -0.2508
 3240W        W46152  16.345  17.235   7.787 -0.3749 -0.2194  0.0046
 3241W        W46153  14.158  16.609   9.429  0.0102  0.1972  0.0504
 3242W        W46154  17.713  15.431   7.022  0.1268  0.1946  0.1193
 3243W        W46155  16.254  18.070   6.972 -0.0292  0.1701  0.0799
 3244W        W46156  14.537  15.141   9.280  0.0829 -0.2913  0.4703
 3245W        W46157  17.038  16.513   9.340 -0.1401  0.0138  0.1251
 3246W        W46158  16.308  13.488   7.525  0.0949 -0.2036  0.1432
 3247W        W46159  15.368  15.378   7.513  0.0607 -0.2608 -0.3128
 3248W        W46160  16.156  15.750   8.427 -0.0471  0.1185 -0.1076
 3249W        W46161  13.769  18.171   7.684  0.0082 -0.0094  0.2426
 3250W        W46162  17.426  15.731   9.678 -0.0813 -0.1730  0.2981
 3251W        W46163  15.905  14.851   9.583  0.0488 -0.2555  0.1361
 3252W        W46164  16.522  16.233   8.098 -0.3370 -0.1695 -0.1684
 3253W        W46165  15.873  17.118   7.790  0.2391 -0.1257  0.0535
 3254W        W46166  14.562  15.457   6.460 -0.0285 -0.1994 -0.1742
 3255W        W46167  16.640  14.077   9.692 -0.0668  0.0127 -0.0131
 3256W        W46168  13.600  17.049   9.100 -0.0253 -0.1891 -0.3064
 3257W        W46169  16.219  16.924   8.191  0.1318  0.2356 -0.1642
 3258W        W46170  16.807  15.489   8.668 -0.0948  0.0278 -0.1197
 3259W        W46171  14.433  17.714   5.978  0.1147  0.0821  0.0061
 3260W        W46172  15.411  17.185   6.537 -0.0890 -0.1624  0.1350
 3261W        W46173  15.422  15.230   8.337 -0.0330  0.0420 -0.0597
 3262W        W46174  15.255  17.585   8.181  0.0612 -0.2143  0.0484
 3263W        W46175  16.437  15.927   6.463  0.2728  0.1328 -0.2645
 3264W        W46176  15.360  16.727   8.981  0.0540 -0.1631  0.1098
 3265W        W46177  15.210  16.156   8.792  0.0836 -0.1857  0.0255
 3266W        W46178  15.845  15.410   8.655  0.0867  0.0614  0.0231
 3267W        W46179  14.401  16.664   8.583  0.1565  0.2354  0.1649
 3268W        W46180  14.199  16.089   5.779  0.1229  0.0709  0.1273
 3269W        W46181  13.076  15.463   5.867  0.2735  0.3126  0.1571
 3270W        W46182  16.069  15.673   9.172  0.0351  0.2829  0.0538
 3271W        W46183  17.473  17.137   6.347 -0.4076 -0.2435 -0.0966
 3272W        W46184  13.438  12.769  10.959 -0.0102  0.2542 -0.0089
 3273W        W46185  15.416  15.167   8.894 -0.0956  0.2355  0.0240
 3274W        W46186  12.916  17.800   9.356  0.0914 -0.1959  0.2263
 3275W        W46187  16.925  16.260   7.812  0.1206 -0.0641  0.0258
 3276W        W46188  13.482  15.056   6.313 -0.2204  0.2543 -0.3091
 3277W        W46189  18.287  13.980   9.524 -0.2490  0.1519  0.1317
 3278W        W46190  16.619  15.952   7.675  0.3178  0.3707  0.0895
 3279W        W46191  13.659  15.489   9.176 -0.2016 -0.1020  0.3814
 3280W        W46192  16.272  16.937   9.323  0.1438 -0.0179 -0.1842
 3281W        W46193  14.381  16.046   7.550  0.4567 -0.1160 -0.1124
 3282W        W46194  15.355  18.123   6.776  0.1833  0.1492 -0.2612
 3283W        W46195  14.838  16.370   8.432 -0.0277  0.0267 -0.2313
 3284W        W46196  14.391  15.699   8.091  0.2329 -0.0079  0.2227
 3285W        W46197  17.235  15.143   8.695  0.1519  0.1531  0.2622
 3286W        W46198  15.567  16.167   9.125  0.0270 -0.3886  0.1147
 3287W        W46199  16.307  17.028   8.767 -0.3046 -0.0236  0.1893
 3288W        W46200  15.441  15.662   9.589  0.2582 -0.0245  0.1841
 3289W        W46201  14.480  14.199   9.665  0.2792  0.2699 -0.1437
 3290W        W46202  16.602  18.612   7.210  0.0334  0.0943  0.1294
 3291W        W46203  14.988  16.528   5.837  0.4615  0.1741  0.1602
 3292W        W46204  14.106  15.606   8.920 -0.1996 -0.0427 -0.0698
 3293W        W46205  15.045  16.964   8.179  0.0734 -0.3480 -0.1494
 3294W        W46206  15.113  15.883   9.288 -0.3786 -0.0396 -0.1121
 3295W        W46207  15.085  17.095   5.692 -0.0007  0.1015 -0.0495
 3296W        W46208  14.649  16.552   9.441  0.3791 -0.2788  0.2228
 3297W        W46209  18.363  15.457   7.666 -0.1042  0.0823 -0.0169
 3298W        W46210  16.814  16.808   7.830 -0.0405  0.0346  0.2983
 3299W        W46211  15.536  17.166   8.951  0.1051  0.1446 -0.0173
 3300W        W46212  16.786  14.848   6.436  0.0525  0.0059 -0.0742
 3301W        W46213  15.914  13.580   9.841 -0.1181 -0.3433 -0.2514
 3302W        W46214  18.614  17.613   9.163 -0.1683  0.0336  0.0810
 3303W        W46215  16.965  16.090   8.328 -0.0100  0.1184 -0.0702
 3304W        W46216  15.972  14.305   8.112 -0.0585 -0.0099 -0.2601
 3305W        W46217  14.540  16.603  10.138  0.4149  0.3341  0.2320
 3306W        W46218  17.719  17.819   9.143  0.2654  0.3600 -0.0615
 3307W        W46219  16.146  16.343   7.210  0.3251  0.1328 -0.2387
 3308W        W46220  15.990  15.367   9.544  0.1409  0.0451 -0.3010
 3309W        W46221  16.009  16.171   8.923 -0.0521  0.1308 -0.0514
 3310W        W46222  17.468  16.617   9.668  0.1306  0.0444  0.2215
 3311W        W46223  15.427  16.863   6.889  0.3749 -0.0318  0.1773
 3312W        W46224  15.233  16.534   7.298 -0.0094 -0.1757 -0.1852
 3313W        W46225  15.316  16.604   8.351 -0.2963 -0.0452  0.0211
 3314W        W46226  16.314  15.168   9.934  0.1833 -0.1019  0.1030
 3315W        W46227  17.895  17.728   8.410 -0.3102  0.4445 -0.0779
 3316W        W46228  18.838  16.230   7.686  0.4098 -0.0432  0.0670
 3317W        W46229  16.789  16.090   9.787  0.1226 -0.0798 -0.3950
 3318W        W46230  17.265  16.988   9.307 -0.3162 -0.2019  0.0121
 3319W        W46231  15.915  15.126   9.079 -0.0062 -0.0612  0.2553
 3320W        W46232  13.807  15.276   8.045  0.1471  0.4136 -0.1036
 3321W        W46233  14.604  14.549   6.095  0.2660  0.1468 -0.0113
 3322W        W46234  16.104  17.946   6.093 -0.3461 -0.2969 -0.3310
 3323W        W46235  16.723  17.803   7.397 -0.3413 -0.1724 -0.2621
 3324W        W46236  16.780  14.369   7.851 -0.0033  0.1786  0.0073
 3325W        W46237  13.262  18.855   9.717 -0.0086  0.3368 -0.4791
 3326W        W46238  15.322  15.517   7.038  0.3083 -0.2614  0.0112
 3327W        W46239  17.202  16.695   8.861  0.0922  0.1398  0.1363
 3328W        W46240  15.536  17.176   8.201 -0.3185  0.1727 -0.2875
 3329W        W46241  17.570  14.893   7.844  0.2041 -0.1364  0.1480
 3330W        W46242  14.966  17.030   6.807 -0.2738 -0.0568 -0.1822
 3331W        W46243  15.166  14.203  10.282  0.2628 -0.0646  0.0473
 3332W        W46244  14.343  17.437   8.107 -0.1304  0.2172 -0.0638
 3333W        W46245  14.746  17.268   7.870  0.1667 -0.1935  0.0855
 3334W        W46246  14.935  13.489   9.388  0.0679 -0.3224  0.0507
 3335W        W46247  16.564  15.429   9.366  0.3351 -0.2736  0.0041
 3336W        W46248  14.059  16.469   9.906  0.0619  0.2424  0.1279
 3337W        W46249  17.097  15.840   7.891 -0.0245  0.1019 -0.2541
 3338W        W46250  16.595  19.553  10.462  0.1337  0.3968 -0.1357
 3339W        W46251  15.386  16.817   7.803  0.2495  0.0554 -0.0452
 3340W        W46252  17.640  16.638   9.209  0.1926 -0.4671  0.0317
 3341W        W46253  16.193  13.275   8.510 -0.1040  0.0035 -0.0032
 3342W        W46254  17.453  16.264   7.082  0.2037 -0.1800 -0.1044
 3343W        W46255  13.672  17.714   8.851  0.1954 -0.0693 -0.0286
 3344W        W46256  14.498  16.502   6.668 -0.0741 -0.0181 -0.1312
 3345W        W46257  16.271  17.279   6.908 -0.2004  0.0048  0.0953
 3346W        W46258  17.740  16.611   8.026  0.3709  0.2277 -0.1961
 3347W        W46259  15.674  17.569   7.825 -0.1139  0.1264  0.0307
 3348W        W46260  16.224  15.721   7.358 -0.1370 -0.0014 -0.1145
 3349W        W46261  14.894  16.801   7.653 -0.1044 -0.0461 -0.0799
 3350W        W46262  13.341  16.815   6.034  0.2804  0.1574  0.0605
 3351W        W46263  17.104  17.492   8.423 -0.3708  0.0025  0.1925
 3352W        W46264  14.090  17.270   8.949  0.0409  0.3188 -0.2797
 3353W        W46265  19.198  15.063   7.199 -0.1718  0.1509 -0.1060
 3354W        W46266  15.839  17.687   9.175 -0.1539  0.0172 -0.3115
 3355W        W46267  18.237  16.476   8.014 -0.1694  0.1195 -0.0554
 3356W        W46268  13.641  14.421  10.151  0.3807 -0.1250 -0.2674
 3357W        W46269  16.118  14.699   6.821 -0.2154 -0.1146 -0.1212
 3358W        W46270  17.122  18.092   6.666  0.0729  0.1585  0.0419
 3359W        W46271  16.647  15.425   7.740  0.1375  0.2350 -0.2218
 3360W        W46272  14.522  15.671   9.298  0.1849 -0.1368  0.0813
 3361W        W46273  18.054  16.402   9.418  0.0421 -0.3900 -0.0752
 3362W        W46274  17.023  16.009   7.377 -0.3923  0.1819 -0.0800
 3363W        W46275  15.599  15.177   9.866 -0.1922  0.1908 -0.4584
 3364W        W46276  15.788  17.159   6.932 -0.0269 -0.0394  0.2225
 3365W        W46277  14.188  17.087   8.468  0.3496  0.1442 -0.0578
 3366W        W46278  14.753  17.765   8.113  0.1323  0.0213  0.1162
 3367W        W46279  15.222  15.550   8.023 -0.2938 -0.3357  0.2314
 3368W        W46280  18.283  17.023   8.662 -0.0566  0.0708 -0.4468
 3369W        W46281  18.588  15.213   9.921 -0.1474 -0.1036  0.0015
 3370W        W46282  16.170  16.172   7.688 -0.2560  0.1472  0.2568
 3371W        W46283  16.458  15.874   8.966  0.1177  0.2300  0.0048
 3372W        W46284  14.654  17.676   8.685  0.0410  0.1454  0.0962
 3373W        W46285  15.084  14.839   8.207  0.1589 -0.0940 -0.0042
 3374W        W46286  15.283  15.972   7.649 -0.1207  0.0841 -0.0500
 3375W        W46287  16.611  17.311   7.343  0.0137 -0.0662 -0.0210
 3376W        W46288  13.526  15.275   9.732 -0.2338  0.2203  0.0517
 3377W        W46289  16.762  15.594   7.289  0.0222  0.1751 -0.2545
 3378W        W46290  14.440  15.547   7.579 -0.1352  0.1741  0.0894
 3379W        W46291  13.744  15.751   9.746 -0.3507 -0.0243 -0.0031
 3380W        W46292  13.667  14.727   8.306 -0.1371  0.1338  0.0806
 3381W        W46293  17.031  17.923   8.020  0.1631  0.2560 -0.1317
 3382W        W46294  16.646  18.010   9.068 -0.1830  0.0306 -0.1726
 3383W        W46295  15.671  17.774   5.908 -0.0177 -0.2003 -0.0704
 3384W        W46296  16.848  16.284   8.893  0.2207 -0.1341  0.1258
 3385W        W46297  16.317  18.192   7.447  0.1760 -0.1548  0.1343
 3386W        W46298  12.887  15.099   8.365 -0.1634  0.2164 -0.0270
 3387W        W46299  15.909  19.885   8.986 -0.0240 -0.2289 -0.2422
 3388W        W46300  16.263  17.940   8.261  0.1530  0.0408 -0.1745
 3389W        W46301  17.562  15.208   8.255  0.0849 -0.0370  0.0175
 3390W        W46302  14.408  15.155   8.773  0.0515  0.3625  0.0307
 3391W        W46303  13.691  16.815   8.424 -0.4026  0.2067  0.2423
 3392W        W46304  16.344  14.426   9.882  0.0661  0.2790  0.1133
 3393W        W46305  15.918  18.020   6.574 -0.0527  0.3219 -0.0277
 3394W        W46306  14.812  18.194   8.603 -0.0249 -0.1825 -0.2713
 3395W        W46307  14.983  15.649   6.300  0.1503  0.0232 -0.2657
 3396W        W46308  15.858  15.460   7.098 -0.0269 -0.2181 -0.1803
 3397W        W46309  15.268  17.694   6.465  0.0769 -0.0125 -0.0510
 3398W        W46310  15.942  16.771   8.990  0.0430  0.3631 -0.1497
 3399W        W46311  16.008  16.152   9.437  0.2428  0.0434  0.2697
 3400W        W46312  17.051  18.421   9.784 -0.1202  0.0552 -0.0368
 3401W        W46313  14.497  14.266   9.125  0.3512 -0.4198 -0.1402
 3402W        W46314  18.011  14.361   8.644 -0.0895  0.2464  0.1466
 3403W        W46315  17.756  14.479   8.178 -0.0942 -0.2290  0.1238
 3404W        W46316  15.090  14.644  10.115  0.1263  0.0120 -0.1642
 3405W        W46317  13.547  16.166   5.455  0.1809  0.2373  0.3103
 3406W        W46318  15.303  15.865   5.842  0.3020  0.0418  0.2538
 3407W        W46319  14.507  17.122   8.829  0.0021 -0.0411 -0.0334
 3408W        W46320  15.672  15.996   7.208  0.5016 -0.1331  0.1325
 3409W        W46321  15.764  14.191   7.647 -0.3679 -0.1073 -0.1971
 3410W        W46322  17.347  18.253   7.054 -0.3193  0.0656 -0.4031
 3411W        W46323  15.313  14.644   8.689 -0.4596 -0.0015 -0.0585
 3412W        W46324  13.054  14.590   8.058 -0.0765  0.3428  0.1976
 3413W        W46325  16.735  17.536   6.942  0.0604  0.2156 -0.1312
 3414W        W46326  16.412  17.453   9.044  0.1814  0.2659 -0.1114
 3415W        W46327  16.013  16.301   8.194 -0.1040  0.0120 -0.4539
 3416W        W46328  14.835  16.249   7.514 -0.1126  0.1714  0.0874
 3417W        W46329  14.891  15.715   6.785  0.2544  0.4208 -0.1191
 3418W        W46330  15.492  15.173   9.357  0.0368 -0.2102 -0.2357
 3419W        W46331  15.717  16.759   7.341 -0.0815 -0.3970 -0.0935
 3420W        W46332  16.777  19.584   6.651  0.3336  0.0452 -0.1394
 3421W        W46333  12.634  10.235  11.704 -0.1515 -0.1492  0.3132
 3422W        W46334  16.328  17.675   6.678 -0.2071 -0.3434 -0.0497
 3423W        W46335  17.010  17.195   8.784 -0.1976 -0.0080 -0.1451
 3424W        W46336  18.636  14.748   9.669  0.3812  0.0033 -0.0842
 3425W        W46337  17.828  16.357   6.290  0.2007 -0.0848 -0.0604
 3426W        W46338  13.944  15.255   9.535  0.2055  0.0383  0.0393
 3427W        W46339  15.870  14.894   8.594  0.1901 -0.0625  0.1965
 3428W        W46340  16.420  15.263   8.377 -0.1839  0.0203  0.2220
 3429W        W46341  15.234  17.339   7.729 -0.1241 -0.0958 -0.3616
 3430W        W46342  15.176  16.377   9.294  0.3197 -0.1676 -0.2690
 3431W        W46343  16.711  15.634   8.207  0.0933 -0.2240  0.3372
 3432W        W46344  16.675  16.619   8.581  0.3237 -0.1730 -0.1729
 3433W        W46345  15.639  15.348   6.656  0.1335 -0.1907 -0.2558
 3434W        W46346  18.266  17.411   6.740 -0.3058  0.0805 -0.0041
 3435W        W46347  15.148  18.543   9.680 -0.4164 -0.0770 -0.1669
 3436W        W46348  14.148  14.426  10.072  0.0884  0.0585  0.0370
 3437W        W46349  16.061  17.387   8.200  0.2118 -0.0419 -0.0153
 3438W        W46350  12.223  12.257  10.061 -0.1362 -0.1401 -0.1496
 3439W        W46351  15.106  16.358   7.943 -0.1572 -0.1302 -0.1852
 3440W        W46352  15.652  16.438   8.665 -0.0371  0.0007 -0.2145
 3441W        W46353  17.151  19.194   9.270 -0.0095  0.1707 -0.0359
 3442W        W46354  14.914  15.844   8.401  0.1938 -0.1536 -0.0712
 3443W        W46355  18.475  14.225   8.648 -0.0996 -0.0629  0.1222
 3444W        W46356  14.678  17.439   9.145 -0.0818 -0.3321  0.2589
 3445W        W46357  14.510  16.804   8.105 -0.1378 -0.3026 -0.0840
 3446W        W46358  14.477  18.451   2.475  0.1539 -0.1405  0.1316
 3447W        W46359  17.280  19.045   0.465 -0.1632  0.1616  0.1298
 3448W        W46360  16.708  17.527  29.968  0.0560  0.0309 -0.1637
 3449W        W46361  17.658  19.651  30.581  0.2382 -0.1686 -0.3398
 3450W        W46362  13.737  18.439   0.963  0.1531 -0.1443 -0.3200
 3451W        W46363  15.771  21.225  31.576  0.0026  0.0417 -0.0294
 3452W        W46364  15.708  17.788   2.672  0.1283  0.0861 -0.4054
 3453W        W46365  17.130  19.653  31.705 -0.1446 -0.3238  0.0243
 3454W        W46366  17.916  21.271   1.637 -0.0290  0.2099  0.3307
 3455W        W46367  16.746  20.699  30.667  0.0210  0.0143  0.1159
 3456W        W46368  16.327  18.134   0.579 -0.1932 -0.0402 -0.0856
 3457W        W46369  15.509  21.105   1.871  0.0177 -0.1538  0.1595
 3458W        W46370  15.439  18.329   0.501 -0.0071 -0.0650  0.0179
 3459W        W46371  13.941  17.279   2.313 -0.0972  0.2234  0.0107
 3460W        W46372  16.965  19.374   0.684 -0.0045  0.4382  0.0073
 3461W        W46373  15.943  21.620  31.216  0.0402  0.1767  0.0024
 3462W        W46374  16.929  19.149  31.904 -0.0339 -0.1200 -0.1008
 3463W        W46375  17.398  17.948  31.496  0.1119  0.0074  0.2688
 3464W        W46376  15.867  20.576   0.147  0.0787 -0.1904 -0.2215
 3465W        W46377  15.835  19.293   1.680 -0.1358  0.0571  0.2367
 3466W        W46378  17.962  18.175   1.861 -0.1404  0.3182  0.0454
 3467W        W46379  16.798  19.344  29.805  0.1130  0.4044 -0.0935
 3468W        W46380  15.090  19.137  31.269  0.2419  0.1625 -0.0330
 3469W        W46381  16.367  19.165  31.648 -0.0585 -0.0005  0.1187
 3470W        W46382  16.630  18.737   1.189 -0.1908 -0.1762  0.0109
 3471W        W46383  17.229  20.488  31.492  0.0871  0.2017  0.1043
 3472W        W46384  17.759  19.710   1.876 -0.2115 -0.0957  0.0173
 3473W        W46385  16.522  21.224   1.767 -0.0219 -0.1127  0.0089
 3474W        W46386  17.401  20.771   0.934  0.0162  0.0804  0.0210
 3475W        W46387  16.789  20.085   2.603  0.2762 -0.0467  0.0500
 3476W        W46388  16.756  20.071   0.981  0.0395 -0.3627  0.0859
 3477W        W46389  13.982  20.113   1.828  0.1226 -0.1699 -0.0304
 3478W        W46390  16.454  21.219  31.481 -0.0353 -0.3366  0.1167
 3479W        W46391  17.860  20.503  31.047  0.1189 -0.1824  0.0287
 3480W        W46392  17.733  19.990   3.138  0.0385 -0.2599 -0.0273
 3481W        W46393  15.886  21.178   4.684 -0.1443 -0.0790  0.0298
 3482W        W46394  15.617  20.376  31.635 -0.0228  0.0110 -0.3296
 3483W        W46395  16.031  21.223   2.008 -0.2128  0.1727 -0.1648
 3484W        W46396  14.557  21.737   1.684 -0.0531  0.1641  0.2506
 3485W        W46397  17.406  19.665   1.531 -0.0335  0.2590 -0.0178
 3486W        W46398  15.985  19.829  31.329  0.1020  0.0849 -0.1427
 3487W        W46399  16.512  20.679  31.252 -0.4547  0.0336 -0.0348
 3488W        W46400  16.662  19.675   1.529 -0.1579 -0.2323  0.1735
 3489W        W46401  15.311  20.076   4.122 -0.1177 -0.0258 -0.4096
 3490W        W46402  15.410  19.666   1.583 -0.2427  0.4415 -0.3193
 3491W        W46403  17.095  18.200   4.940  0.0656 -0.1742 -0.1303
 3492W        W46404  14.528  20.584   0.881  0.0435  0.0983  0.1946
 3493W        W46405  16.660  18.438  30.536  0.0023  0.0938  0.0775
 3494W        W46406  15.684  19.381  29.826  0.2766  0.0102  0.4792
 3495W        W46407  17.590  17.797  30.126 -0.1278 -0.1211  0.0925
 3496W        W46408  17.214  17.932  31.028 -0.1431  0.0903 -0.1544
 3497W        W46409  14.639  21.231   2.519  0.1317 -0.0784  0.3219
 3498W        W46410  15.674  18.827   0.385  0.1033  0.2227 -0.2588
 3499W        W46411  17.335  20.877   1.504 -0.2329 -0.1632 -0.0545
 3500W        W46412  17.229  19.278  31.326  0.3228 -0.2413 -0.2253
 3501W        W46413  17.196  19.895   0.687  0.1906 -0.0845  0.1671
 3502W        W46414  15.622  20.966   2.339  0.0336  0.1208  0.2370
 3503W        W46415  14.389  17.605   1.566 -0.1955  0.0013 -0.0170
 3504W        W46416  18.313  21.365  31.544 -0.1447 -0.2020  0.1684
 3505W        W46417  19.031  20.980  31.182 -0.2041  0.2752  0.1706
 3506W        W46418  17.880  22.054  31.263  0.0862 -0.1299 -0.0228
 3507W        W46419  14.640  19.155  30.004 -0.1771 -0.0013  0.1091
 3508W        W46420  14.956  18.756   2.476  0.0289 -0.0874  0.0381
 3509W        W46421  14.307  18.852   4.039  0.2593 -0.0836 -0.3490
 3510W        W46422  15.019  18.904  30.299 -0.4105  0.3734 -0.1350
 3511W        W46423  17.901  21.185   2.562  0.1047 -0.0801  0.1710
 3512W        W46424  14.695  20.297   3.230  0.3561 -0.3809 -0.1920
 3513W        W46425  17.383  18.480   2.635 -0.0499  0.2480 -0.0286
 3514W        W46426  15.205  20.279   2.824  0.1716 -0.0407 -0.2422
 3515W        W46427  17.829  20.972   1.206  0.1279  0.0254  0.0688
 3516W        W46428  15.364  21.656  31.262  0.1555  0.2200 -0.0027
 3517W        W46429  16.626  17.550   1.068  0.2543 -0.1091 -0.2116
 3518W        W46430  18.387  18.923   1.664 -0.3701  0.0552  0.1245
 3519W        W46431  16.254  16.945  29.900  0.0232  0.0924  0.1652
 3520W        W46432  15.974  19.088  30.106 -0.0149  0.0705  0.0583
 3521W        W46433  17.887  21.009   2.052 -0.0447  0.1333  0.2095
 3522W        W46434  17.496  18.359  27.754  0.2914 -0.2196  0.2398
 3523W        W46435  15.406  20.199   1.689 -0.2311  0.0477  0.0944
 3524W        W46436  16.140  17.444   1.834 -0.2573 -0.0824  0.2359
 3525W        W46437  16.448  21.390   2.859 -0.2598 -0.1657 -0.0105
 3526W        W46438  14.997  20.188   0.402 -0.0605 -0.2857 -0.0934
 3527W        W46439  16.621  18.834  31.393 -0.3889  0.1715  0.2676
 3528W        W46440  15.819  19.720   0.386  0.0573  0.3046  0.0669
 3529W        W46441  15.420  18.692   0.929 -0.0483  0.1291 -0.3509
 3530W        W46442  16.358  19.985   1.313 -0.0287  0.0675  0.1351
 3531W        W46443  17.401  17.277   1.827 -0.3062  0.2057 -0.1075
 3532W        W46444  15.418  19.173   2.421 -0.1401 -0.0162 -0.1074
 3533W        W46445  17.836  17.714  31.672  0.0848 -0.1043 -0.2321
 3534W        W46446  15.812  19.136   1.208 -0.5816  0.0461 -0.0913
 3535W        W46447  19.673  19.358  31.278  0.0393 -0.1779 -0.0160
 3536W        W46448  18.121  19.301  31.864  0.4740 -0.0528  0.2927
 3537W        W46449  17.671  20.206  30.450  0.0948 -0.1558 -0.3175
 3538W        W46450  14.648  17.563   2.025 -0.0563 -0.1811 -0.0461
 3539W        W46451  16.872  20.071  31.620 -0.1014 -0.2734  0.0687
 3540W        W46452  14.591  18.051   2.178 -0.2881  0.1025 -0.1463
 3541W        W46453  14.449  17.150   1.304 -0.2963  0.1668  0.0203
 3542W        W46454  18.066  19.442   0.839  0.0674  0.0720 -0.1479
 3543W        W46455  14.234  18.514  31.196  0.0170 -0.3898 -0.2481
 3544W        W46456  16.775  18.916   0.466 -0.1262 -0.0518 -0.1368
 3545W        W46457  14.445  18.514  30.676 -0.2070  0.0828  0.1072
 3546W        W46458  14.847  19.427   0.001 -0.0286  0.1887 -0.3107
 3547W        W46459  18.365  18.726   2.586  0.2322  0.0545 -0.2840
 3548W        W46460  16.182  20.831   0.482 -0.4067 -0.0687 -0.1578
 3549W        W46461  17.666  21.251   0.850  0.3234  0.1871 -0.1593
 3550W        W46462  17.336  23.037   1.412  0.0877  0.1398  0.0029
 3551W        W46463  15.874  19.166   2.122 -0.0687 -0.0416  0.0156
 3552W        W46464  15.590  20.351  30.471 -0.0091  0.1812 -0.3383
 3553W        W46465  15.022  21.048   1.117  0.1000  0.3266  0.1055
 3554W        W46466  17.394  19.869  30.170  0.1235  0.3845 -0.2335
 3555W        W46467  16.317  19.322  29.395  0.1827 -0.2318  0.2736
 3556W        W46468  17.956  21.247   0.470  0.0078  0.0002  0.2942
 3557W        W46469  17.463  19.200  31.741  0.1476  0.0378 -0.0938
 3558W        W46470  15.948  18.744   0.889 -0.0582 -0.2926 -0.2480
 3559W        W46471  18.927  17.620   2.695  0.0408 -0.2587 -0.0177
 3560W        W46472  17.547  19.649   2.324 -0.2458 -0.2107 -0.3087
 3561W        W46473  16.297  19.077   0.947 -0.3383  0.0944 -0.0734
 3562W        W46474  14.914  19.547  29.334  0.1934 -0.2775  0.2053
 3563W        W46475  17.372  20.932  31.752  0.0565  0.0761 -0.1677
 3564W        W46476  15.512  20.974  31.980 -0.1340 -0.0804  0.1464
 3565W        W46477  14.470  19.394   2.143 -0.0224 -0.5986  0.0737
 3566W        W46478  15.997  21.630  30.680  0.0516  0.2725 -0.1002
 3567W        W46479  17.638  17.792   0.872 -0.1094  0.1261 -0.4577
 3568W        W46480  13.974  20.156   2.300  0.2749  0.1782 -0.0428
 3569W        W46481  15.870  20.538   2.028  0.1361 -0.1561 -0.0663
 3570W        W46482  15.587  19.449  31.955  0.3337  0.1946 -0.3294
 3571W        W46483  13.599  18.601   1.462 -0.0820 -0.1024  0.0486
 3572W        W46484  17.745  18.836  31.957  0.1417 -0.5061  0.0965
 3573W        W46485  17.543  18.415  31.618 -0.3884  0.1093  0.3359
 3574W        W46486  15.739  20.426   1.178  0.2190 -0.1160 -0.2060
 3575W        W46487  17.396  21.420  31.498 -0.2504  0.1430  0.2943
 3576W        W46488  17.752  18.890  30.097  0.0128  0.4072 -0.0511
 3577W        W46489  16.118  17.593  30.924 -0.2110 -0.1225 -0.1197
 3578W        W46490  14.238  19.639   3.053 -0.1575 -0.1012 -0.0836
 3579W        W46491  18.334  20.009   2.076  0.1523 -0.1577 -0.0002
 3580W        W46492  15.421  20.375   0.780  0.0116  0.2999 -0.4671
 3581W        W46493  15.224  17.799  30.993 -0.2605 -0.1318  0.0294
 3582W        W46494  18.136  21.382  31.983 -0.1766 -0.1076  0.0124
 3583W        W46495  14.918  19.815   2.424  0.0054 -0.0108  0.0194
 3584W        W46496  15.272  20.633   2.032  0.2244 -0.2586 -0.1560
 3585W        W46497  14.932  21.844  31.011 -0.0542  0.2640 -0.1887
 3586W        W46498  16.965  17.323   1.391 -0.4833 -0.1240  0.0895
 3587W        W46499  17.072  18.855  30.434  0.5932  0.1353 -0.0243
 3588W        W46500  17.001  18.394   1.136 -0.0434 -0.0143 -0.1289
 3589W        W46501  14.365  20.884   0.030 -0.3540  0.0681 -0.2678
 3590W        W46502  17.474  19.105   2.812 -0.0433 -0.2395  0.1331
 3591W        W46503  16.220  20.149   0.362  0.1836  0.1182 -0.2230
 3592W        W46504  17.608  18.530   3.105 -0.1845 -0.0073  0.0336
 3593W        W46505  17.680  18.859   4.023  0.0545 -0.0332  0.0896
 3594W        W46506  17.580  18.059   0.457  0.0256 -0.0667  0.1401
 3595W        W46507  17.772  18.088  31.983 -0.0338  0.0249 -0.1030
 3596W        W46508  15.049  20.597  30.979 -0.0568 -0.0432 -0.2147
 3597W        W46509  16.945  18.774   3.680  0.0700 -0.3895 -0.1941
 3598W        W46510  14.942  19.682   1.961 -0.2810 -0.1473  0.2403
 3599W        W46511  14.713  20.630   2.779 -0.1818 -0.1309 -0.1176
 3600W        W46512  16.889  21.031   4.012  0.0562 -0.0118 -0.2236
 3601W        W46513  16.316  20.580   0.054 -0.0690  0.2251  0.2655
 3602W        W46514  17.225  18.840   3.155 -0.0179  0.0531 -0.1552
 3603W        W46515  15.530  17.740  31.901  0.1279 -0.0845  0.0425
 3604W        W46516  15.639  19.314  31.094 -0.0185 -0.0794  0.0688
 3605W        W46517  17.297  19.910  31.275 -0.0274 -0.1707 -0.1226
 3606W        W46518  16.256  17.965   1.065 -0.0921  0.1762  0.0713
 3607W        W46519  16.552  20.782   1.374 -0.2466  0.1484 -0.1201
 3608W        W46520  16.264  19.457  28.406  0.1955 -0.0222 -0.0343
 3609W        W46521  16.947  21.310   2.086 -0.2056 -0.3489  0.0749
 3610W        W46522  16.710  21.401   0.829  0.1674  0.2078 -0.1735
 3611W        W46523  18.209  19.709   1.665 -0.0734  0.0098  0.3224
 3612W        W46524  15.608  20.715   1.633  0.2377  0.0444  0.0454
 3613W        W46525  16.534  19.542   0.981  0.1458  0.1854  0.2421
 3614W        W46526  15.218  19.638  30.981 -0.0120 -0.2168 -0.1603
 3615W        W46527  17.013  18.075   1.998  0.2105  0.1105 -0.1333
 3616W        W46528  17.283  19.292  30.610  0.2112 -0.0998  0.0608
 3617W        W46529  15.364  18.377   1.437  0.2473  0.0544  0.3296
 3618W        W46530  16.800  18.517  31.911 -0.2083  0.1852  0.1187
 3619W        W46531  13.770  21.773   2.946 -0.0981 -0.1395 -0.0568
 3620W        W46532  17.041  20.061   0.211  0.3866  0.0447  0.0408
 3621W        W46533  18.135  15.964  30.710 -0.1205  0.0958  0.1163
 3622W        W46534  17.248  20.266   1.101 -0.3624  0.1218 -0.4521
 3623W        W46535  14.912  19.333   3.094  0.1028 -0.2461 -0.3380
 3624W        W46536  15.870  19.392  29.125  0.2019 -0.0587 -0.2800
 3625W        W46537  17.982  17.413   3.122 -0.1927 -0.2589  0.0754
 3626W        W46538  15.935  19.238   0.474  0.3649 -0.1135 -0.0972
 3627W        W46539  13.520  21.111   0.664 -0.0403  0.1957  0.1970
 3628W        W46540  15.925  20.404   0.737  0.1071  0.0073  0.1800
 3629W        W46541  15.240  20.125  30.775  0.0675  0.0401 -0.1912
 3630W        W46542  16.081  21.124  31.948  0.1129 -0.0140 -0.0985
 3631W        W46543  16.521  17.864   2.027  0.1847  0.3064 -0.2748
 3632W        W46544  16.399  19.788   2.719 -0.1598  0.2318 -0.1911
 3633W        W46545  16.412  18.990   0.140  0.2208  0.0633  0.2224
 3634W        W46546  15.904  19.247  30.671 -0.1311  0.1278  0.2844
 3635W        W46547  16.595  20.081   0.041  0.2084 -0.0049 -0.0201
 3636W        W46548  17.847  19.499   1.385  0.0525  0.0259  0.1689
 3637W        W46549  16.275  20.256   2.058  0.0512  0.0974  0.1675
 3638W        W46550  14.945  19.293   2.327 -0.4000 -0.0275 -0.2294
 3639W        W46551  15.775  18.173   0.811 -0.3648  0.0092 -0.1711
 3640W        W46552  17.591  21.391  31.971 -0.2768 -0.1871  0.1864
 3641W        W46553  17.090  20.322   2.928 -0.1831  0.0783 -0.0185
 3642W        W46554  16.713  19.830  30.720 -0.0733 -0.1159 -0.0893
 3643W        W46555  15.553  18.863   1.739 -0.3051 -0.1253  0.0832
 3644W        W46556  15.317  19.105  30.794  0.0306 -0.1069  0.1025
 3645W        W46557  17.054  18.683   2.101 -0.1698 -0.2821 -0.2650
 3646W        W46558  15.266  19.196   1.942 -0.5565  0.0366 -0.1620
 3647W        W46559  14.954  20.210   0.959 -0.2466  0.2914 -0.1925
 3648W        W46560  15.236  20.102  31.817  0.0924 -0.0395 -0.0893
 3649W        W46561  19.041  17.453   0.278 -0.4467  0.0082 -0.1954
 3650W        W46562  17.338  20.381  29.984 -0.3150 -0.2740 -0.0135
 3651W        W46563  17.076  18.855   0.949  0.0654  0.1272 -0.2202
 3652W        W46564  18.534  18.153   2.803  0.2324  0.0514  0.1909
 3653W        W46565  17.345  19.317  29.432  0.0926  0.2046  0.0354
 3654W        W46566  17.037  18.214   4.353 -0.0721 -0.1415  0.2000
 3655W        W46567  16.225  18.946   1.431  0.1761  0.0583 -0.2824
 3656W        W46568  17.770  19.996   1.466 -0.2738  0.0176  0.1319
 3657W        W46569  15.176  18.313   2.371  0.0975  0.0287 -0.0161
 3658W        W46570  17.167  21.440   4.855 -0.0149  0.2746 -0.0447
 3659W        W46571  15.777  19.973   1.942 -0.2306 -0.1248 -0.1412
 3660W        W46572  16.494  19.119  30.189  0.0770  0.0029 -0.0075
 3661W        W46573  15.938  17.155  31.960 -0.1531  0.1741  0.1605
 3662W        W46574  16.347  20.971   2.597  0.1975  0.0481 -0.1924
 3663W        W46575  17.501  20.121  31.754  0.1012  0.3368  0.2641
 3664W        W46576  17.373  20.312  30.985  0.2684  0.0219 -0.1896
 3665W        W46577  17.504  18.810   2.305 -0.0317  0.2010 -0.0786
 3666W        W46578  16.051  19.586   0.881 -0.1093  0.3522 -0.1213
 3667W        W46579  17.465  19.218   1.091  0.1447  0.2130 -0.0405
 3668W        W46580  17.306  21.312  31.007 -0.1719 -0.0910 -0.1847
 3669W        W46581  17.309  19.506   0.232  0.1725  0.0128  0.2553
 3670W        W46582  15.264  20.135   2.194 -0.0597 -0.1341  0.0479
 3671W        W46583  16.271  18.721   0.514 -0.0222 -0.2094 -0.0746
 3672W        W46584  17.400  18.119   1.672 -0.2479 -0.1706 -0.1014
 3673W        W46585  17.022  20.750   3.255  0.0772  0.1664 -0.2626
 3674W        W46586  17.063  19.664   1.096  0.3230  0.0929 -0.0473
 3675W        W46587  16.309  19.245   2.523  0.0476  0.0701  0.3068
 3676W        W46588  14.524  18.323   3.921  0.0210 -0.0175  0.1275
 3677W        W46589  18.251  20.757   1.801  0.4383 -0.3639  0.0737
 3678W        W46590  18.099  18.190  28.365  0.3539  0.0594  0.0271
 3679W        W46591  18.228  19.079   3.362  0.0131  0.1246  0.0683
 3680W        W46592  17.742  19.432   0.095  0.0981  0.0542 -0.1136
 3681W        W46593  16.031  18.275  30.461  0.3829 -0.2173  0.3865
 3682W        W46594  16.281  18.412   0.990 -0.1078 -0.1446  0.1352
 3683W        W46595  17.994  20.877   3.041 -0.2654 -0.1356  0.0939
 3684W        W46596  15.052  18.286  31.227 -0.0588 -0.0838 -0.0115
 3685W        W46597  17.106  18.814   1.445 -0.0832  0.0482  0.0613
 3686W        W46598  17.976  20.992  31.142 -0.0159 -0.1687  0.3457
 3687W        W46599  17.684  18.805  31.397 -0.4360 -0.1393  0.0087
 3688W        W46600  17.339  18.888  30.939  0.0523 -0.1712 -0.0387
 3689W        W46601  14.821  18.792  30.886 -0.0651  0.1504 -0.0924
 3690W        W46602  13.822  20.010   4.422  0.4542  0.0397 -0.0016
 3691W        W46603  15.736  18.667  30.812 -0.0778  0.1531 -0.1564
 3692W        W46604  16.316  18.643  30.099 -0.0949  0.0926 -0.0981
 3693W        W46605  15.562  20.436   2.465 -0.0829 -0.3021  0.1984
 3694W        W46606  17.285  20.911   2.822 -0.2384 -0.0837 -0.3454
 3695W        W46607  17.028  16.127  30.815 -0.0026 -0.1489 -0.3461
 3696W        W46608  19.185  17.874   3.680  0.0266 -0.2495  0.0421
 3697W        W46609  15.053  20.709   0.715 -0.0660  0.1304  0.2266
 3698W        W46610  18.367  18.576   3.199 -0.1782  0.0407 -0.3505
 3699W        W46611  15.945  20.870   0.937  0.0851  0.0443 -0.1536
 3700W        W46612  14.922  19.967   1.407  0.1437  0.1650  0.3855
 3701W        W46613  15.648  21.503   0.011 -0.3356 -0.2513 -0.2516
 3702W        W46614  16.695  18.450   0.658 -0.1145  0.1209  0.4223
 3703W        W46615  17.046  20.370   2.027 -0.3942 -0.1474  0.1812
 3704W        W46616  16.442  19.378   0.538 -0.1064  0.0875 -0.0211
 3705W        W46617  17.180  19.866   3.106  0.1025  0.1319  0.0722
 3706W        W46618  15.711  20.622   3.395 -0.0379 -0.1961 -0.1377
 3707W        W46619  16.418  20.137  31.487 -0.3215  0.1156 -0.0874
 3708W        W46620  16.253  21.790   2.640 -0.0285 -0.0173 -0.5212
 3709W        W46621  18.210  20.651  31.927  0.0112  0.1143  0.0156
 3710W        W46622  15.379  20.041   1.197  0.0691 -0.1641 -0.3037
 3711W        W46623  15.183  18.717   2.041 -0.1063 -0.0033  0.0453
 3712W        W46624  17.237  20.482   2.467 -0.0639 -0.1396 -0.0773
 3713W        W46625  16.246  20.053   0.852  0.3409  0.0179  0.4683
 3714W        W46626  15.171  18.517  31.752  0.1754 -0.3431 -0.1986
 3715W        W46627  16.344  19.483  30.518 -0.2274 -0.1970  0.2016
 3716W        W46628  14.460  21.646   2.276 -0.1605  0.0437  0.0162
 3717W        W46629  15.918  18.356   0.362 -0.0075 -0.0074 -0.1483
 3718W        W46630  16.302  21.651   0.275 -0.2146  0.3199 -0.1224
 3719W        W46631  16.919  20.274  31.153  0.0165 -0.0940 -0.1614
 3720W        W46632  16.610  21.426  31.878  0.0068 -0.0184 -0.1176
 3721W        W46633  17.390  21.388   1.335 -0.3030 -0.0084  0.3258
 3722W        W46634  15.920  18.016  30.859 -0.1815 -0.2207  0.1009
 3723W        W46635  15.469  20.856   1.059  0.2087  0.0760 -0.2536
 3724W        W46636  14.738  21.039  31.636 -0.0505  0.2693  0.0518
 3725W        W46637  17.162  20.432  30.541 -0.1122  0.0069 -0.3034
 3726W        W46638  15.210  20.708  31.660 -0.0831 -0.2058  0.1998
 3727W        W46639  17.305  19.934   3.882 -0.0106 -0.0605 -0.1653
 3728W        W46640  17.179  17.518  30.128 -0.0454  0.1822  0.2195
 3729W        W46641  18.054  20.210  31.708 -0.0327  0.3650 -0.0477
 3730W        W46642  17.029  17.843  31.853  0.2311 -0.0438 -0.2778
 3731W        W46643  16.722  21.268   3.654 -0.0462 -0.2230  0.4557
 3732W        W46644  16.643  19.848   0.553 -0.2144  0.0099 -0.1688
 3733W        W46645  17.218  18.799  31.555 -0.2166  0.2024  0.2676
 3734W        W46646  15.127  20.758   2.489  0.1967 -0.0730  0.3473
 3735W        W46647  17.810  18.241   3.468 -0.2921  0.3914 -0.0773
 3736W        W46648  14.680  21.586   3.435  0.0244  0.0569  0.0229
 3737W        W46649  18.679  20.392  31.129  0.3137 -0.4787  0.1747
 3738W        W46650  16.192  19.462   0.098  0.1358 -0.3276 -0.0576
 3739W        W46651  15.948  19.417  31.630  0.0562  0.0113  0.0847
 3740W        W46652  18.553  17.695   3.124  0.3613 -0.2112  0.1585
 3741W        W46653  16.376  19.827  30.147 -0.1365  0.0274 -0.3056
 3742W        W46654  17.250  19.867  30.802 -0.0844 -0.0858 -0.1544
 3743W        W46655  15.578  21.278   0.903 -0.1258 -0.2903 -0.0411
 3744W        W46656  16.096  20.806   1.559  0.2163  0.0694  0.0525
 3745W        W46657  15.581  20.742   0.542  0.2164 -0.3236 -0.1243
 3746W        W46658  15.263  18.601  30.614  0.1947 -0.0271 -0.0224
 3747W        W46659  17.667  18.533   0.328 -0.0035  0.0813  0.1154
 3748W        W46660  16.905  18.358   1.620  0.0078  0.2369  0.1967
 3749W        W46661  17.558  19.243   2.068  0.0913 -0.1126  0.2570
 3750W        W46662  16.761  19.346  31.427  0.1154  0.0512  0.1797
 3751W        W46663  17.959  18.774   1.330 -0.2353 -0.0170 -0.1304
 3752W        W46664  15.628  20.163   0.325  0.1207 -0.2498 -0.2397
 3753W        W46665  15.888  19.781   1.355 -0.1007 -0.1912  0.3906
 3754W        W46666  16.423  19.937  28.999 -0.1085  0.3763  0.1652
 3755W        W46667  16.657  20.538   3.538  0.0224  0.0014  0.4303
 3756W        W46668  19.102  20.368  30.889 -0.1197  0.3756  0.1784
 3757W        W46669  16.882  21.857   3.461 -0.1132  0.0982  0.1674
 3758W        W46670  14.252  17.652   2.321  0.1889  0.0154  0.0545
 3759W        W46671  16.653  17.994  30.168  0.0506  0.0381 -0.0571
 3760W        W46672  14.750  19.021   1.959  0.1643 -0.0428  0.0313
 3761W        W46673  16.088  19.678   2.221 -0.0020  0.3240 -0.2135
 3762W        W46674  16.907  21.307   3.160 -0.2262  0.2230 -0.1389
 3763W        W46675  15.964  18.972  31.963 -0.1938  0.1343  0.2967
 3764W        W46676  17.756  20.665  30.295  0.1565 -0.1338 -0.1126
 3765W        W46677  16.985  20.483   1.447  0.1978 -0.2224 -0.0974
 3766W        W46678  17.030  21.367  30.032 -0.1471 -0.0002  0.3598
 3767W        W46679  16.703  20.538  31.723 -0.2340 -0.1870 -0.0159
 3768W        W46680  17.150  19.647   1.951 -0.1309 -0.0289 -0.4521
 3769W        W46681  13.551  17.682   2.673  0.1397 -0.1644  0.0092
 3770W        W46682  17.415  20.311   1.712  0.2409 -0.1334  0.2683
 3771W        W46683  16.881  20.667   1.013 -0.0795 -0.2376 -0.0195
 3772W        W46684  17.005  18.252  31.443 -0.1551 -0.0223  0.4126
 3773W        W46685  16.696  19.538   0.067 -0.0589  0.1806  0.1093
 3774W        W46686  15.416  22.601   0.534  0.1996  0.2891  0.4566
 3775W        W46687  18.992  19.423   3.173  0.1816 -0.2638 -0.0212
 3776W        W46688  17.208  19.131   1.804  0.1782 -0.1053 -0.0061
 3777W        W46689  16.263  19.457  29.860 -0.2851 -0.5370  0.1728
 3778W        W46690  17.977  18.564   2.316 -0.0576  0.2343 -0.2574
 3779W        W46691  16.012  21.386   2.507  0.1924 -0.2105 -0.1100
 3780W        W46692  15.540  21.334   2.766  0.1461 -0.0009  0.0707
 3781W        W46693  14.725  19.655  30.286 -0.0231 -0.3571  0.1845
 3782W        W46694  16.213  19.967   3.433  0.1139  0.1989 -0.0106
 3783W        W46695  16.798  20.670   0.220  0.1410 -0.0724  0.3338
 3784W        W46696  15.667  21.927  30.966 -0.1497  0.2637  0.2821
 3785W        W46697  16.930  21.950   1.183 -0.0351 -0.1627 -0.0233
 3786W        W46698  17.929  19.220  31.416 -0.0618 -0.0177 -0.2906
 3787W        W46699  17.745  20.857   0.093 -0.0594 -0.0427 -0.1545
 3788W        W46700  17.670  18.861   0.705  0.0517 -0.1292 -0.0247
 3789W        W46701  17.513  18.668   1.181 -0.0500  0.1172 -0.2485
 3790W        W46702  16.386  18.419  31.512 -0.4079 -0.1536  0.0830
 3791W        W46703  15.852  19.362   2.783  0.1394 -0.3166 -0.1601
 3792W        W46704  15.026  20.349  31.399 -0.0274 -0.2799 -0.1614
 3793W        W46705  15.703  19.952  30.916 -0.0850 -0.1788  0.0579
 3794W        W46706  15.739  19.961   0.903 -0.2496  0.0439  0.0719
 3795W        W46707  16.117  18.271   2.659 -0.0372  0.0141  0.1845
 3796W        W46708  14.804  17.546   2.497  0.0998 -0.2414  0.1759
 3797W        W46709  15.674  19.892  31.763  0.0279  0.1137 -0.2536
 3798W        W46710  15.185  19.094  31.763 -0.0435 -0.1278 -0.2316
 3799W        W46711  17.812  20.065  31.252 -0.1480 -0.2135  0.1701
 3800W        W46712  16.762  18.008   0.918  0.0473 -0.1108  0.0432
 3801W        W46713  14.804  18.331   1.422 -0.1995  0.2731  0.2394
 3802W        W46714  17.053  20.490   0.573 -0.1143  0.3583  0.0332
 3803W        W46715  16.646  19.584   2.339 -0.3310  0.0537  0.1699
 3804W        W46716  17.065  17.539   0.789  0.2057  0.1978 -0.0589
 3805W        W46717  16.363  22.431   4.114  0.0537 -0.1418  0.0420
 3806W        W46718  16.372  17.943  30.614 -0.0133  0.0362 -0.1067
 3807W        W46719  16.573  17.901   4.246 -0.1322 -0.2100 -0.0957
 3808W        W46720  16.283  17.853   1.546  0.0231 -0.0799  0.1055
 3809W        W46721  14.231  17.786  30.669 -0.0446 -0.0118 -0.0560
 3810W        W46722  16.912  19.211   1.343 -0.0928  0.2135 -0.1239
 3811W        W46723  17.013  21.103   0.106 -0.0648 -0.0046 -0.2200
 3812W        W46724  18.309  20.133  31.273 -0.0277  0.2367  0.2074
 3813W        W46725  16.047  20.321   1.584  0.0979 -0.3942 -0.0317
 3814W        W46726  16.299  22.744   3.181  0.2464  0.2382 -0.1250
 3815W        W46727  14.391  18.163   2.879  0.1984  0.3215  0.0293
 3816W        W46728  17.730  20.567  31.570 -0.1873 -0.0260 -0.2043
 3817W        W46729  15.024  19.413   3.558 -0.0115 -0.3572 -0.3558
 3818W        W46730  17.892  20.356   0.213  0.0895  0.0789  0.1825
 3819W        W46731  18.942  19.306   2.078  0.0810  0.2056 -0.1339
 3820W        W46732  17.914  19.859  30.182 -0.1218  0.0561 -0.0671
 3821W        W46733  15.652  18.405   1.833 -0.1834  0.1399 -0.0535
 3822W        W46734  14.680  20.019   2.851 -0.1975  0.0521  0.2056
 3823W        W46735  18.058  19.217   1.933 -0.1650 -0.0336  0.0682
 3824W        W46736  16.375  19.658  31.593 -0.0720 -0.0591 -0.0993
 3825W        W46737  16.305  18.365  30.936 -0.2462 -0.2607  0.4526
 3826W        W46738  17.506  21.883  31.717  0.3951 -0.0005 -0.1436
 3827W        W46739  15.158  18.267   1.854 -0.2487 -0.2004  0.0162
 3828W        W46740  16.883  19.359  30.931 -0.0611 -0.1841  0.1219
 3829W        W46741  15.536  19.900   2.686 -0.4000  0.0475  0.0096
 3830W        W46742  17.182  20.516   0.017  0.2746  0.0202  0.0146
 3831W        W46743  16.951  20.883   1.791  0.1048  0.1682 -0.5168
 3832W        W46744  16.146  18.792  31.223 -0.0147 -0.0433 -0.2826
 3833W        W46745  17.122  18.398  30.738  0.0976 -0.2231 -0.0112
 3834W        W46746  16.581  20.328   1.662  0.1521  0.2078 -0.2200
 3835W        W46747  17.355  21.629   3.232  0.2529  0.0333  0.0178
 3836W        W46748  16.632  20.484   2.274 -0.1654 -0.0612  0.0214
 3837W        W46749  17.398  19.989   2.674  0.0457  0.2914  0.3068
 3838W        W46750  15.101  17.840   2.157 -0.1920 -0.2119  0.0450
 3839W        W46751  16.076  20.150  31.863 -0.0726 -0.1225  0.0781
 3840W        W46752  16.797  19.593  29.340  0.0274 -0.3210 -0.2345
 3841W        W46753  17.072  19.614   2.598  0.1221 -0.0983 -0.1226
 3842W        W46754  15.223  19.174   1.349  0.2760  0.0516  0.2774
 3843W        W46755  15.853  17.119  30.248 -0.1325 -0.2143 -0.1395
 3844W        W46756  15.236  21.570   1.835 -0.2456  0.0301 -0.3946
 3845W        W46757  16.230  19.426   1.410 -0.2507  0.0091 -0.1105
 3846W        W46758  15.933  21.131   5.965 -0.2327  0.0183 -0.1388
 3847W        W46759  15.444  18.630   3.182  0.0016 -0.0893 -0.0794
 3848W        W46760  17.438  19.623   3.475 -0.0080  0.0479 -0.1906
 3849W        W46761  17.589  20.701   4.560  0.2260  0.1505 -0.1973
 3850W        W46762  15.925  19.697   3.725  0.0624  0.2876  0.1039
 3851W        W46763  17.655  20.603   5.051 -0.1434 -0.0738 -0.0206
 3852W        W46764  14.556  18.259   6.234 -0.1365  0.0194 -0.0039
 3853W        W46765  16.047  20.936   6.938  0.3304 -0.2542  0.1820
 3854W        W46766  18.030  20.945   5.155  0.2514  0.0800 -0.1516
 3855W        W46767  17.574  20.549   3.068  0.1766 -0.0754  0.3382
 3856W        W46768  14.246  19.545   6.439  0.2462  0.4981 -0.2808
 3857W        W46769  15.325  21.734   6.097 -0.1275  0.0607  0.2628
 3858W        W46770  15.821  18.849   2.729 -0.0082  0.1062  0.3152
 3859W        W46771  14.390  18.047   4.779  0.1052 -0.1629  0.3868
 3860W        W46772  15.895  19.586   5.241  0.1469 -0.0006  0.2986
 3861W        W46773  14.373  19.696   4.449  0.3350  0.1466 -0.0299
 3862W        W46774  15.249  20.573   5.844  0.2330  0.2614  0.0433
 3863W        W46775  16.396  19.653   4.417  0.0930 -0.1170 -0.0873
 3864W        W46776  16.998  21.541   3.967  0.0181 -0.2171  0.2205
 3865W        W46777  15.335  18.710   6.357  0.1742 -0.3478  0.3837
 3866W        W46778  16.650  18.011   6.470  0.1532  0.2104 -0.0628
 3867W        W46779  16.509  21.692   3.744  0.3772  0.0497  0.1021
 3868W        W46780  16.380  19.278   1.921 -0.1069 -0.1925  0.0114
 3869W        W46781  13.388  20.305   5.214  0.0727 -0.0611  0.2853
 3870W        W46782  14.999  20.290   6.204  0.1954  0.1905 -0.0010
 3871W        W46783  17.684  18.071   4.398  0.0378 -0.2068 -0.0081
 3872W        W46784  17.324  20.233   5.219  0.1370 -0.0668 -0.1742
 3873W        W46785  14.974  20.756   4.753  0.1493 -0.1289 -0.1997
 3874W        W46786  17.660  22.385   4.502 -0.0269 -0.1157  0.0592
 3875W        W46787  16.680  19.197   5.697  0.0187  0.0825  0.1851
 3876W        W46788  14.051  20.397   6.216  0.1745 -0.0497  0.2685
 3877W        W46789  13.755  22.065   5.263  0.3399  0.1373 -0.1974
 3878W        W46790  16.029  21.432   3.820  0.1102 -0.1830 -0.0037
 3879W        W46791  17.821  19.815   4.126  0.1678  0.3271  0.0099
 3880W        W46792  17.348  19.919   5.637  0.1533 -0.0692 -0.3024
 3881W        W46793  16.493  21.930   6.771  0.0794 -0.3080  0.0777
 3882W        W46794  14.736  20.795   2.134 -0.2146  0.1973 -0.0434
 3883W        W46795  16.216  21.959   6.211  0.0232 -0.1856 -0.1805
 3884W        W46796  14.711  21.769   7.416 -0.0805 -0.3732 -0.1025
 3885W        W46797  14.442  17.906   6.620  0.2271  0.2150  0.1698
 3886W        W46798  16.478  20.539   4.607 -0.0572  0.2592 -0.0935
 3887W        W46799  16.528  20.990   3.231 -0.0275  0.5495  0.0387
 3888W        W46800  16.256  20.843   4.977  0.0128  0.1383  0.2160
 3889W        W46801  14.953  20.806   7.583  0.0642  0.1621 -0.1402
 3890W        W46802  15.182  21.587   7.150 -0.2655  0.0117  0.0365
 3891W        W46803  16.393  18.365   6.211  0.0298 -0.4399  0.1925
 3892W        W46804  15.064  18.484   2.874 -0.0740  0.1865  0.1446
 3893W        W46805  16.733  19.134   3.430  0.0251  0.3139 -0.4207
 3894W        W46806  16.644  20.200   3.028  0.0768  0.2188 -0.1974
 3895W        W46807  16.133  20.448   3.662 -0.3821  0.0525 -0.0717
 3896W        W46808  16.254  18.660   4.002 -0.1265 -0.1813 -0.1044
 3897W        W46809  15.952  21.553   5.054 -0.0877  0.1769 -0.0038
 3898W        W46810  16.384  19.774   5.823  0.4141 -0.0550 -0.2251
 3899W        W46811  16.919  20.523   5.370  0.0930 -0.0139  0.1548
 3900W        W46812  17.959  19.875   5.002 -0.0249  0.2821  0.1487
 3901W        W46813  15.910  18.833   5.768 -0.0018  0.1250 -0.2101
 3902W        W46814  15.572  20.928   5.621 -0.2739  0.1836  0.0329
 3903W        W46815  14.778  20.405   5.606  0.5092  0.0030  0.3762
 3904W        W46816  18.106  21.863   2.393  0.0283  0.3139  0.0382
 3905W        W46817  18.319  21.677   3.243  0.0583  0.1085 -0.0082
 3906W        W46818  16.057  19.459   3.241  0.1653  0.1022 -0.0756
 3907W        W46819  15.078  19.596   4.087 -0.0879 -0.3052 -0.0641
 3908W        W46820  14.050  20.546   6.748  0.1490 -0.2223 -0.4689
 3909W        W46821  14.267  20.003   6.577 -0.0146 -0.1243  0.2462
 3910W        W46822  17.290  17.971   2.607 -0.1719  0.0208 -0.0222
 3911W        W46823  16.702  19.547   7.352  0.2567 -0.1310  0.0180
 3912W        W46824  14.359  21.687   6.485  0.4708 -0.2662 -0.0282
 3913W        W46825  17.453  20.893   3.930 -0.0462  0.1805 -0.1325
 3914W        W46826  16.431  20.964   5.939  0.0208  0.0708  0.0489
 3915W        W46827  16.499  20.373   5.675  0.4247  0.1162 -0.1071
 3916W        W46828  16.345  20.033   3.924  0.0708 -0.1255 -0.3049
 3917W        W46829  17.055  17.394   5.921  0.0641 -0.2882  0.2527
 3918W        W46830  16.354  18.789   4.880  0.0912 -0.2741 -0.2627
 3919W        W46831  14.302  18.654   2.851  0.0698  0.0831  0.0754
 3920W        W46832  16.147  20.101   4.546  0.1163 -0.1799 -0.0293
 3921W        W46833  18.380  22.228   5.923  0.2205 -0.0337 -0.2358
 3922W        W46834  17.228  19.140   3.559 -0.2107  0.0239 -0.2242
 3923W        W46835  15.420  20.899   4.613 -0.0198  0.0237 -0.1802
 3924W        W46836  16.804  18.407   5.453  0.2490  0.0102  0.2519
 3925W        W46837  16.207  20.721   6.348 -0.4098 -0.1987  0.1814
 3926W        W46838  14.749  20.342   4.146  0.1149 -0.2608  0.0674
 3927W        W46839  14.964  20.987   5.752 -0.1510  0.0215  0.2541
 3928W        W46840  15.214  19.248   4.381 -0.1621  0.1327  0.1032
 3929W        W46841  14.053  18.185   5.242 -0.1585 -0.1554 -0.1144
 3930W        W46842  16.932  21.147   5.205 -0.0519 -0.0148  0.0654
 3931W        W46843  18.586  17.738   4.588  0.0141 -0.1239 -0.4256
 3932W        W46844  13.960  17.745   6.886 -0.2263  0.1514 -0.1669
 3933W        W46845  17.113  17.669   5.134  0.1097  0.3984  0.3391
 3934W        W46846  14.925  19.933   4.435 -0.0186 -0.0979 -0.0219
 3935W        W46847  18.052  22.224   4.153 -0.0115  0.1013 -0.2731
 3936W        W46848  17.838  18.594   5.312 -0.0137  0.1053 -0.0270
 3937W        W46849  16.948  21.155   1.180  0.0953  0.2085 -0.3655
 3938W        W46850  14.685  19.946   6.368  0.0531 -0.1147  0.0506
 3939W        W46851  13.886  19.508   4.624 -0.2489  0.1688  0.0042
 3940W        W46852  14.990  18.532   5.933  0.0018 -0.2958  0.0998
 3941W        W46853  13.419  19.296   4.754  0.2937  0.0963  0.0598
 3942W        W46854  17.203  21.011   6.531  0.1209  0.0734  0.0863
 3943W        W46855  15.255  17.885   2.690 -0.1158 -0.1700 -0.0801
 3944W        W46856  17.024  19.127   6.041  0.0982 -0.0768  0.0631
 3945W        W46857  15.317  20.563   5.302  0.0581 -0.0458  0.0590
 3946W        W46858  14.619  21.674   4.634  0.1101  0.1315  0.0316
 3947W        W46859  17.184  18.847   6.432 -0.1569 -0.1267 -0.1569
 3948W        W46860  16.312  21.405   3.381 -0.0805 -0.3127 -0.2271
 3949W        W46861  18.452  21.930   7.006 -0.0544 -0.1440  0.1821
 3950W        W46862  17.661  21.185   4.685 -0.2154  0.0516  0.2458
 3951W        W46863  14.433  18.573   5.818 -0.0407 -0.1862 -0.0658
 3952W        W46864  17.569  17.682   1.456  0.0585  0.0603  0.0532
 3953W        W46865  14.523  21.276   6.167  0.0971 -0.0902  0.0412
 3954W        W46866  14.544  21.003   4.947 -0.1078  0.3254  0.1803
 3955W        W46867  15.423  18.013   3.708  0.1803 -0.3166  0.1097
 3956W        W46868  17.612  21.213   5.210 -0.3373  0.1502  0.1455
 3957W        W46869  15.109  19.719   4.991 -0.0652  0.2488 -0.2694
 3958W        W46870  14.451  21.834   5.875  0.1951 -0.0356 -0.1457
 3959W        W46871  17.173  19.419   6.480 -0.0666 -0.2585  0.0488
 3960W        W46872  17.787  19.370   4.929 -0.1500  0.1892 -0.3362
 3961W        W46873  17.583  18.919   4.990  0.2730 -0.1012 -0.3443
 3962W        W46874  14.797  18.078   2.612 -0.0516 -0.2552 -0.1604
 3963W        W46875  17.332  21.631   5.286 -0.0194 -0.1121  0.2097
 3964W        W46876  14.948  20.839   4.234  0.4610  0.2905 -0.0891
 3965W        W46877  14.670  19.946   4.888 -0.2956  0.3964  0.3390
 3966W        W46878  15.751  20.295   3.003  0.4086  0.0972  0.1708
 3967W        W46879  17.164  18.773   4.731 -0.0170 -0.0093 -0.1780
 3968W        W46880  13.732  20.185   7.829  0.3791 -0.1076  0.2452
 3969W        W46881  16.176  18.798   6.572 -0.3644  0.0727 -0.1555
 3970W        W46882  14.040  19.642   4.042  0.0828  0.0079  0.0978
 3971W        W46883  15.003  21.339   6.073  0.2882 -0.0870  0.0630
 3972W        W46884  16.811  19.662   4.727  0.1467 -0.3398 -0.1603
 3973W        W46885  16.771  18.581   4.960  0.0933  0.0422 -0.1337
 3974W        W46886  15.298  20.089   6.565 -0.0671  0.0737 -0.2479
 3975W        W46887  18.172  20.487   5.032  0.1190  0.0517  0.1251
 3976W        W46888  16.404  19.572   3.616  0.0846  0.1583 -0.2723
 3977W        W46889  16.291  19.027   3.041  0.1756  0.3639  0.0999
 3978W        W46890  14.431  20.225   7.602  0.3919  0.1463 -0.1903
 3979W        W46891  17.582  20.550   3.565  0.2486  0.0410 -0.0307
 3980W        W46892  17.344  20.304   4.733 -0.1185 -0.0900  0.2184
 3981W        W46893  16.528  18.334   2.986  0.0414  0.0507  0.0098
 3982W        W46894  17.810  21.341   3.245 -0.0668 -0.1397 -0.0655
 3983W        W46895  14.854  21.844   6.293 -0.0224  0.2298  0.3262
 3984W        W46896  16.127  20.170   5.917  0.0994 -0.3118  0.1431
 3985W        W46897  16.638  20.565   4.092  0.2245 -0.1493  0.0049
 3986W        W46898  15.032  19.152   4.906 -0.3636  0.0518 -0.4139
 3987W        W46899  16.186  19.807   1.771 -0.0965  0.0241 -0.3140
 3988W        W46900  16.376  18.096   3.486 -0.0823 -0.0707 -0.0806
 3989W        W46901  15.164  21.126   2.192  0.1980  0.1665  0.1106
 3990W        W46902  17.179  16.919   6.058 -0.0973 -0.1250 -0.7889
 3991W        W46903  17.967  18.885   5.788 -0.0862  0.1724 -0.1507
 3992W        W46904  15.956  16.673   5.467  0.2225 -0.1445  0.3189
 3993W        W46905  17.888  18.715   6.691  0.0574 -0.3154 -0.0504
 3994W        W46906  17.160  19.084   5.198 -0.0446  0.0621  0.0535
 3995W        W46907  14.761  19.163   6.414  0.2671  0.0214  0.0510
 3996W        W46908  15.404  17.448   2.441 -0.0220 -0.4658 -0.0974
 3997W        W46909  16.182  17.717   5.253  0.1636 -0.1110  0.1777
 3998W        W46910  13.330  20.050   6.152 -0.0758 -0.1949 -0.3102
 3999W        W46911  14.026  23.223   6.489  0.1284  0.0639  0.0840
 4000W        W46912  15.169  21.092   6.594 -0.0138 -0.2120 -0.0266
 4001W        W46913  16.153  20.394   4.195 -0.0156  0.2169  0.2059
 4002W        W46914  16.769  19.561   6.065 -0.3087  0.1189 -0.0466
 4003W        W46915  16.659  19.685   3.202 -0.4052 -0.0755 -0.1442
 4004W        W46916  16.089  20.961   3.463  0.3437  0.0481  0.0145
 4005W        W46917  15.189  19.547   2.773  0.2109 -0.0648 -0.4090
 4006W        W46918  15.394  17.878   4.292 -0.3066 -0.0267 -0.1432
 4007W        W46919  16.769  20.758   4.958  0.2159  0.2341 -0.1548
 4008W        W46920  16.500  21.474   2.334 -0.0595  0.2062  0.0179
 4009W        W46921  16.621  20.520   6.616 -0.2664 -0.1517  0.2627
 4010W        W46922  15.847  18.979   3.235 -0.0829  0.2198  0.0143
 4011W        W46923  19.116  16.337   6.479  0.2753 -0.4528  0.1140
 4012W        W46924  14.701  21.440   5.146 -0.1158  0.2017 -0.0336
 4013W        W46925  16.067  18.277   2.129 -0.1155 -0.0534 -0.3020
 4014W        W46926  15.778  18.933   4.026 -0.4498 -0.0940  0.0141
 4015W        W46927  17.428  17.762   3.899  0.1405  0.2276  0.0921
 4016W        W46928  17.133  19.349   3.151 -0.2387  0.0578 -0.1610
 4017W        W46929  15.912  18.307   4.878  0.1275 -0.0160 -0.1409
 4018W        W46930  17.276  18.578   5.215  0.2218  0.0410 -0.1900
 4019W        W46931  13.541  21.441   6.350 -0.1303  0.2092 -0.1368
 4020W        W46932  15.816  19.558   6.118  0.1061 -0.1319  0.5520
 4021W        W46933  17.123  19.933   4.427  0.2622  0.0651  0.3276
 4022W        W46934  16.731  21.003   6.294 -0.0152 -0.3171 -0.1311
 4023W        W46935  15.062  20.592   6.623  0.1104 -0.0537  0.2056
 4024W        W46936  14.602  18.739   3.600 -0.2568 -0.0633 -0.1793
 4025W        W46937  17.360  20.144   6.119  0.7545  0.1180 -0.3020
 4026W        W46938  14.758  18.067   5.777 -0.2921 -0.0614  0.3133
 4027W        W46939  15.190  21.621   5.605  0.0785  0.0309 -0.2823
 4028W        W46940  15.838  21.609   6.178 -0.0104 -0.0625 -0.1108
 4029W        W46941  15.836  18.407   3.513 -0.3175  0.0216  0.0923
 4030W        W46942  15.460  21.509   3.672 -0.4048 -0.1531 -0.1241
 4031W        W46943  15.753  18.223   7.056 -0.1592  0.0300  0.1620
 4032W        W46944  16.604  20.093   4.355 -0.1484  0.2734  0.2868
 4033W        W46945  14.656  19.544   6.056 -0.2417  0.2826  0.4807
 4034W        W46946  15.068  19.405   5.862 -0.0134  0.1504  0.0611
 4035W        W46947  15.740  19.864   5.635 -0.0538 -0.0483  0.0244
 4036W        W46948  16.933  19.608   5.529 -0.3917  0.1437  0.1224
 4037W        W46949  15.799  19.034   6.217 -0.1751 -0.0148 -0.4533
 4038W        W46950  14.169  21.791   7.276  0.3097 -0.1327  0.0468
 4039W        W46951  15.955  17.392   4.837  0.1074  0.0384 -0.1163
 4040W        W46952  18.710  21.159   3.628 -0.1173 -0.0416 -0.2265
 4041W        W46953  15.708  19.738   6.562  0.0634  0.0905  0.1457
 4042W        W46954  16.212  19.039   4.459 -0.0980 -0.2004  0.1222
 4043W        W46955  14.823  19.924   5.366  0.1454 -0.0108 -0.4555
 4044W        W46956  16.079  19.344   4.046 -0.0732  0.0628 -0.1611
 4045W        W46957  16.274  17.932   4.740 -0.0125  0.0351  0.2443
 4046W        W46958  16.828  20.170   4.801  0.0322  0.3652 -0.2646
 4047W        W46959  15.666  20.605   4.277  0.0588 -0.1193  0.0463
 4048W        W46960  13.988  21.328   6.625  0.1892 -0.0006 -0.1467
 4049W        W46961  17.857  17.061   2.680  0.0746 -0.0036 -0.0721
 4050W        W46962  17.959  21.299   4.151 -0.1043  0.2589 -0.3505
 4051W        W46963  15.785  19.029   4.970 -0.2716  0.4837  0.0370
 4052W        W46964  17.601  18.705   6.213 -0.1485 -0.2114 -0.2871
 4053W        W46965  17.144  18.692   4.114  0.0964 -0.3359  0.1049
 4054W        W46966  16.283  19.780   6.292 -0.1201  0.0239  0.1248
 4055W        W46967  16.725  19.957   3.612  0.2463  0.2745 -0.1213
 4056W        W46968  18.502  19.863   4.754 -0.0155  0.0028  0.1043
 4057W        W46969  14.366  20.143   5.305 -0.3018 -0.0533  0.2126
 4058W        W46970  16.960  22.143   8.242 -0.0995  0.0047  0.0916
 4059W        W46971  14.814  19.929   7.311  0.0344  0.1371  0.1663
 4060W        W46972  16.660  18.191   4.657  0.1039 -0.3687  0.0256
 4061W        W46973  15.578  17.447   4.450 -0.1098 -0.1027  0.3154
 4062W        W46974  14.716  20.545   5.122 -0.0371 -0.2949  0.0750
 4063W        W46975  16.988  20.603   4.506  0.0250 -0.5846 -0.0001
 4064W        W46976  16.079  21.104   2.964 -0.0112  0.1872  0.1599
 4065W        W46977  18.060  19.388   5.834  0.0556  0.2886 -0.1348
 4066W        W46978  15.291  19.884   6.061  0.2703  0.1915 -0.2073
 4067W        W46979  17.275  20.890   4.910 -0.0036  0.2454  0.1327
 4068W        W46980  15.705  19.220   3.630 -0.0238  0.2126  0.1996
 4069W        W46981  15.997  20.228   5.006 -0.1241 -0.1466  0.2292
 4070W        W46982  14.674  17.519   5.532 -0.1155 -0.1941 -0.1153
 4071W        W46983  17.078  20.925   5.918 -0.1186 -0.1333 -0.1638
 4072W        W46984  15.299  18.925   5.863  0.0332  0.0771  0.0109
 4073W        W46985  15.045  18.700   5.441 -0.0072  0.1831 -0.0833
 4074W        W46986  16.328  18.538   5.714 -0.3408  0.0038 -0.0058
 4075W        W46987  14.789  17.798   6.308 -0.0873 -0.0148 -0.0154
 4076W        W46988  15.256  18.323   7.215  0.0980 -0.1763 -0.0158
 4077W        W46989  18.085  22.138   5.461  0.2050 -0.1121 -0.0801
 4078W        W46990  17.887  18.836   2.860  0.3479  0.1505 -0.1046
 4079W        W46991  17.858  18.257   6.948  0.2064  0.1368  0.0034
 4080W        W46992  16.475  17.999   5.623  0.0963  0.0217 -0.3558
 4081W        W46993  15.643  20.111   4.570 -0.1517  0.2034 -0.0601
 4082W        W46994  14.742  18.688   6.282  0.0551  0.4123 -0.1764
 4083W        W46995  16.834  20.057   5.362 -0.2657 -0.0698  0.0930
 4084W        W46996  15.649  18.335   2.728 -0.1008 -0.2408  0.2004
 4085W        W46997  17.292  19.604   6.047  0.2396  0.0546  0.1113
 4086W        W46998  16.470  21.901   4.315  0.1321  0.2009  0.0920
 4087W        W46999  15.421  21.424   5.240 -0.1008 -0.2444  0.1136
 4088W        W47000  16.980  19.543   3.609  0.0789  0.0988 -0.1563
 4089W        W47001  14.619  18.957   5.269 -0.2319  0.0464 -0.1298
 4090W        W47002  15.329  21.118   7.407  0.0160 -0.0064  0.2669
 4091W        W47003  15.515  19.434   3.224 -0.0966  0.1592  0.1446
 4092W        W47004  15.918  19.619   4.663 -0.1092  0.0757  0.0879
 4093W        W47005  16.170  21.539   5.785 -0.0583 -0.0426  0.1744
 4094W        W47006  17.684  20.931   6.788 -0.0016  0.0434  0.0791
 4095W        W47007  16.557  19.034   3.939  0.1537 -0.2246 -0.1843
 4096W        W47008  18.655  20.268   5.997  0.2032  0.1088  0.2989
 4097W        W47009  16.155  20.942   4.227  0.0562 -0.0421  0.4171
 4098W        W47010  16.349  18.335   5.179  0.2252  0.1945  0.2866
 4099W        W47011  15.037  22.217   6.513  0.0665  0.1914 -0.2121
 4100W        W47012  13.953  21.600   6.125 -0.2564  0.1364 -0.1696
 4101W        W47013  16.144  20.701   5.646 -0.0945  0.1033  0.0244
 4102W        W47014  15.880  17.248   5.329 -0.0236 -0.0805 -0.2643
 4103W        W47015  14.765  19.016   5.828 -0.0881  0.1897  0.0044
 4104W        W47016  16.909  19.937   6.374  0.2321 -0.1986 -0.2918
 4105W        W47017  18.492  19.574   6.152 -0.0239 -0.0772 -0.3361
 4106W        W47018  16.101  20.236   6.507  0.1217 -0.1357  0.0956
 4107W        W47019  16.504  20.388   5.128 -0.3512  0.1147  0.1219
 4108W        W47020  17.374  21.862   6.066 -0.1415 -0.3451  0.0648
 4109W        W47021  17.809  20.303   5.372  0.1277 -0.1549  0.0341
 4110W        W47022  14.196  20.648   5.265 -0.3236 -0.1065  0.2050
 4111W        W47023  15.195  18.818   7.370  0.0325  0.1159 -0.3053
 4112W        W47024  16.143  19.158   5.368  0.0316  0.1728  0.5002
 4113W        W47025  15.313  19.661   5.437  0.0691 -0.0923  0.0160
 4114W        W47026  16.209  18.712   1.925 -0.1252 -0.1137 -0.1549
 4115W        W47027  16.051  21.794   3.489  0.2097 -0.0849  0.0934
 4116W        W47028  14.526  21.061   8.558 -0.0210 -0.0901 -0.1395
 4117W        W47029  15.567  19.930   5.057 -0.1611  0.1602  0.5426
 4118W        W47030  15.206  21.374   3.174  0.0089 -0.1107 -0.1239
 4119W        W47031  16.986  19.230   3.979  0.0996  0.0627  0.2840
 4120W        W47032  15.949  19.873   2.954 -0.0100  0.0574  0.1134
 4121W        W47033  15.749  20.922   5.084  0.3577 -0.1315  0.2343
 4122W        W47034  17.233  19.819   4.950  0.0687 -0.0443  0.1787
 4123W        W47035  13.354  21.724   5.393 -0.0560 -0.1119 -0.0119
 4124W        W47036  14.322  21.160   2.950  0.2367 -0.2911 -0.1940
 4125W        W47037  17.621  21.348   3.816  0.1779  0.2447 -0.0008
 4126W        W47038  15.690  20.032   3.397 -0.0642  0.0174 -0.0145
 4127W        W47039  16.859  21.178   7.304  0.0083  0.2345 -0.0094
 4128W        W47040  17.683  19.334   3.834 -0.0604 -0.0340 -0.0977
 4129W        W47041  17.488  19.608   5.304 -0.0340 -0.0793 -0.1128
 4130W        W47042  18.579  18.124   4.226  0.0677 -0.1098 -0.1720
 4131W        W47043  16.819  21.787   7.921 -0.0327  0.0653  0.2091
 4132W        W47044  14.713  20.908   6.729  0.0398  0.0532 -0.1479
 4133W        W47045  15.918  17.924   1.835 -0.1078 -0.1161 -0.1634
 4134W        W47046  15.742  20.599   6.097  0.1425 -0.0648  0.0018
 4135W        W47047  17.418  17.616   6.210 -0.1906  0.0151 -0.1863
 4136W        W47048  14.233  20.972   6.876 -0.1876 -0.0532  0.0351
 4137W        W47049  18.273  21.697   4.278 -0.1311  0.0168  0.2256
 4138W        W47050  14.574  17.712   2.955 -0.2360 -0.0768 -0.1393
 4139W        W47051  16.684  21.386   5.892  0.1629  0.1175 -0.0801
 4140W        W47052  18.831  18.140   5.820 -0.1312  0.0574  0.2907
 4141W        W47053  15.951  20.086   2.465 -0.0279  0.1692 -0.1197
 4142W        W47054  16.033  18.695   5.300  0.0227  0.0637  0.0683
 4143W        W47055  15.738  21.191   4.196  0.2121 -0.1737 -0.6590
 4144W        W47056  15.234  22.106   4.097 -0.1867 -0.0101  0.1537
 4145W        W47057  14.968  20.980   5.208  0.1563  0.0034 -0.0950
 4146W        W47058  13.429  18.593   2.335 -0.1312  0.0018 -0.1766
 4147W        W47059  17.579  19.809   4.607  0.2237  0.2824  0.3046
 4148W        W47060  15.061  19.189   5.438  0.0392 -0.0570 -0.1221
 4149W        W47061  18.462  17.876   5.595  0.2920  0.1827  0.0525
 4150W        W47062  16.831  19.756   4.063 -0.2756 -0.0547  0.2238
 4151W        W47063  17.626  18.308   4.902 -0.0792 -0.0708 -0.1065
 4152W        W47064  15.297  20.785   6.266 -0.1507  0.0764  0.1340
 4153W        W47065  15.439  18.666   5.031 -0.1227  0.0355 -0.3077
 4154W        W47066  16.791  19.182   4.924 -0.0395 -0.0445 -0.2010
 4155W        W47067  17.612  21.166   6.292 -0.2468 -0.1510 -0.1861
 4156W        W47068  16.214  19.097   3.580 -0.1877 -0.0526 -0.1438
 4157W        W47069  18.319  22.433   6.710  0.3612  0.3706 -0.1005
 4158W        W47070  14.685  19.496   5.068 -0.2176 -0.0891 -0.0724
 4159W        W47071  17.853  17.564   4.688  0.1943 -0.1835 -0.1210
 4160W        W47072  15.409  19.737   3.691 -0.0271 -0.0670 -0.0666
 4161W        W47073  14.873  20.087   6.824  0.1464  0.0981 -0.0037
 4162W        W47074  18.192  21.718   5.912 -0.0313  0.1319  0.2389
 4163W        W47075  15.099  18.406   3.515  0.0666 -0.2802  0.0781
 4164W        W47076  17.267  21.621   2.436 -0.3882  0.1072 -0.2728
 4165W        W47077  17.320  20.860   5.401 -0.0378 -0.0223  0.0931
 4166W        W47078  15.623  21.190   3.298  0.1967  0.0336 -0.0844
 4167W        W47079  15.937  20.672   4.692  0.0808  0.0024  0.3150
 4168W        W47080  16.812  21.572   5.405  0.0402 -0.4700  0.2435
 4169W        W47081  15.759  18.370   4.004  0.0580  0.2008 -0.2981
 4170W        W47082  16.593  20.884   5.507 -0.4776 -0.0187  0.1992
 4171W        W47083  18.544  21.391   6.021  0.2294  0.2312 -0.0635
 4172W        W47084  15.605  19.447   4.071  0.0157 -0.0427  0.3240
 4173W        W47085  15.494  19.414   4.894  0.0674 -0.1239  0.1401
 4174W        W47086  15.108  21.713   4.956  0.1120  0.1205 -0.2688
 4175W        W47087  17.929  20.218   6.382  0.4087 -0.0986 -0.1561
 4176W        W47088  18.007  19.134   6.300  0.0197 -0.0970 -0.1919
 4177W        W47089  16.683  22.107   4.708 -0.1763  0.1552  0.0703
 4178W        W47090  17.995  17.410   5.402  0.0098 -0.1880 -0.3405
 4179W        W47091  16.304  21.300   6.288  0.1618  0.1902  0.1464
 4180W        W47092  16.335  22.125   7.719 -0.1946 -0.1246  0.1062
 4181W        W47093  15.044  18.978   3.406 -0.1280  0.0660  0.0002
 4182W        W47094  14.366  20.768   6.392  0.0875 -0.0325 -0.3101
 4183W        W47095  14.964  21.300   4.675  0.1335  0.0109  0.0420
 4184W        W47096  15.084  20.215   4.935  0.1170 -0.2965  0.2151
 4185W        W47097  18.051  21.217   5.834 -0.2798 -0.2639 -0.2033
 4186W        W47098  16.671  19.258   4.440 -0.3169 -0.0013 -0.2632
 4187W        W47099  18.506  21.380   4.594 -0.0793  0.1433 -0.0488
 4188W        W47100  16.712  17.224   4.571 -0.0362  0.0562 -0.0606
 4189W        W47101  16.876  18.395   2.589  0.1260 -0.3727 -0.0081
 4190W        W47102  16.715  19.240   2.825  0.1710  0.0146  0.0724
 4191W        W47103  15.505  21.229   6.148  0.1812  0.3791 -0.0784
 4192W        W47104  14.317  20.128   4.196  0.2642  0.0436 -0.0691
 4193W        W47105  14.956  20.079   3.664 -0.0863 -0.0116  0.1005
 4194W        W47106  16.192  20.081   5.390  0.1159 -0.1007  0.2729
 4195W        W47107  15.557  18.480   5.518 -0.0715 -0.0793  0.1562
 4196W        W47108  16.038  19.361   6.606  0.0130  0.1777 -0.2506
 4197W        W47109  14.724  21.448   5.677  0.0680  0.1189 -0.0996
 4198W        W47110  14.667  17.747   3.463  0.0250 -0.1001 -0.2269
 4199W        W47111  17.084  20.622   3.768  0.2299  0.1183 -0.1844
 4200W        W47112  15.586  18.987   5.458  0.1154 -0.1761  0.1060
 4201W        W47113  13.639  16.900   4.215  0.2008  0.0982  0.3293
 4202W        W47114  15.749  20.236   3.908  0.1114 -0.1209 -0.1253
 4203W        W47115  16.748  20.798   2.815 -0.2109  0.2368  0.0715
 4204W        W47116  15.260  19.107   3.897 -0.0231  0.2177  0.1043
 4205W        W47117  17.097  21.392   6.183  0.0725 -0.0210 -0.0737
 4206W        W47118  14.273  20.586   3.999  0.1542  0.2189 -0.1049
 4207W        W47119  15.541  18.194   6.276  0.2125 -0.0067 -0.1305
 4208W        W47120  15.640  19.048   6.686 -0.2889  0.2475 -0.0714
 4209W        W47121  14.560  17.551   3.979  0.0108  0.1151  0.0603
 4210W        W47122  15.550  19.390   5.767 -0.1382  0.0502 -0.0899
 4211W        W47123  16.419  20.912   3.791 -0.2192  0.0885 -0.1682
 4212W        W47124  17.811  21.763   4.084 -0.0635 -0.0337 -0.1830
 4213W        W47125  14.421  20.869   5.908 -0.2196 -0.1471  0.0395
 4214W        W47126  15.287  21.592   6.584 -0.2069 -0.2623  0.4720
 4215W        W47127  14.970  18.057   4.443  0.3272  0.0572  0.1392
 4216W        W47128  16.258  20.585   3.140 -0.4983 -0.1108  0.0348
 4217W        W47129  15.540  21.905   8.208 -0.1634  0.1235  0.0452
 4218W        W47130  18.285  21.153   3.305 -0.0929  0.1031 -0.0222
 4219W        W47131  17.697  17.005   5.208 -0.1066  0.1308  0.1459
 4220W        W47132  16.360  19.876   4.950 -0.2091  0.2250  0.0724
 4221W        W47133  13.893  18.519   5.648 -0.1373  0.0325 -0.2487
 4222W        W47134  14.741  21.431   6.554 -0.2078  0.0846  0.2736
 4223W        W47135  16.721  20.610   6.060 -0.2622  0.0381 -0.1686
 4224W        W47136  15.782  17.828   4.782  0.2900  0.0342  0.0789
 4225W        W47137  17.846  19.236   5.413 -0.2573 -0.0495  0.1914
 4226W        W47138  17.011  20.247   4.071  0.2638 -0.1284  0.2361
 4227W        W47139  16.314  19.360   4.902  0.0997  0.0910 -0.3441
 4228W        W47140  16.014  18.527   3.091  0.1934 -0.1996  0.2899
 4229W        W47141  15.304  19.249   6.256 -0.5347 -0.0059 -0.0743
 4230W        W47142  15.754  20.325   5.650 -0.0299 -0.1922  0.0431
 4231W        W47143  17.930  20.307   7.192  0.1181  0.3015  0.1980
 4232W        W47144  15.754  19.155   4.514 -0.0259 -0.0523  0.1364
 4233W        W47145  17.248  20.209   3.424  0.1655 -0.1425  0.1366
 4234W        W47146  16.588  21.848   5.761 -0.0416 -0.1571  0.2890
 4235W        W47147  18.309  21.412   8.162  0.3827  0.0407  0.2732
 4236W        W47148  16.039  21.112   5.449 -0.0106  0.0863 -0.0956
 4237W        W47149  18.009  21.463   4.904  0.3588 -0.1136 -0.0958
 4238W        W47150  15.820  18.669   4.583 -0.2685  0.0092 -0.0707
 4239W        W47151  14.830  19.463   4.581  0.1103  0.2333 -0.0383
 4240W        W47152  14.156  21.453   4.695 -0.0693  0.3018  0.1536
 4241W        W47153  16.475  19.588   5.351  0.0981 -0.0999 -0.2150
 4242W        W47154  15.193  18.326   4.074  0.0327 -0.1528  0.0676
 4243W        W47155  17.104  18.324   3.048  0.0909  0.2873  0.0084
 4244W        W47156  15.321  21.987   5.289 -0.0914 -0.1317 -0.1656
 4245W        W47157  17.107  20.410   6.540  0.2672  0.1644  0.2318
 4246W        W47158  12.022  22.193   9.354  0.2595 -0.0651 -0.1036
 4247W        W47159  14.378  18.540   6.676 -0.3141 -0.1294  0.0726
 4248W        W47160  16.134  19.852   6.883  0.2413 -0.1012 -0.0331
 4249W        W47161  18.433  19.056   7.145  0.1335  0.1247  0.0581
 4250W        W47162  13.405  18.745   8.031 -0.0009  0.1150 -0.1358
 4251W        W47163  15.870  21.657   9.032  0.3506  0.1381 -0.1420
 4252W        W47164  15.699  19.475   9.153  0.2039  0.1200  0.0471
 4253W        W47165  18.638  22.592   9.887  0.3431 -0.3119  0.0947
 4254W        W47166  15.718  20.106   6.162  0.1659  0.3456 -0.3004
 4255W        W47167  15.253  17.506   9.931  0.1291  0.0924  0.0262
 4256W        W47168  15.058  18.239   6.344  0.1620  0.0123 -0.1152
 4257W        W47169  13.408  16.741   9.422  0.0099  0.3790 -0.3111
 4258W        W47170  16.658  19.192   8.929 -0.1327  0.1421 -0.2973
 4259W        W47171  13.862  18.746   7.890  0.1460  0.2020 -0.1072
 4260W        W47172  14.171  19.347   8.883 -0.0029  0.0557  0.1945
 4261W        W47173  14.986  18.315   7.756  0.3381 -0.0763 -0.0986
 4262W        W47174  16.931  21.562   8.994 -0.0824 -0.2976  0.2248
 4263W        W47175  15.641  18.545   9.653  0.0248  0.0790  0.0908
 4264W        W47176  15.840  21.101   6.480  0.1618  0.3893  0.0125
 4265W        W47177  14.084  19.606   6.868 -0.0122  0.2007 -0.1056
 4266W        W47178  14.181  19.525   8.432 -0.0795 -0.3130 -0.4887
 4267W        W47179  15.811  19.003   8.479  0.0147  0.1268  0.1418
 4268W        W47180  15.309  17.788   9.098 -0.0756 -0.1210  0.2262
 4269W        W47181  16.226  19.470   7.487 -0.3679 -0.2704  0.0303
 4270W        W47182  13.956  19.754   8.880  0.2005 -0.0319  0.2275
 4271W        W47183  16.536  21.918   9.141  0.2579 -0.0279  0.0406
 4272W        W47184  12.603  19.538   8.555 -0.0297 -0.0610 -0.4015
 4273W        W47185  14.412  20.613   8.607 -0.2476  0.3087  0.1298
 4274W        W47186  14.587  20.439   6.626 -0.1746 -0.2241  0.0246
 4275W        W47187  17.139  20.398   8.769 -0.1748  0.3797 -0.2123
 4276W        W47188  13.173  19.889   7.707 -0.0537 -0.1323  0.4995
 4277W        W47189  14.717  19.274   8.778 -0.0949 -0.0989 -0.2036
 4278W        W47190  14.768  20.027   7.878 -0.1241 -0.2430 -0.0256
 4279W        W47191  15.728  21.034   8.587 -0.0491  0.1493 -0.2968
 4280W        W47192  15.595  19.689   8.126 -0.1357  0.0498 -0.2582
 4281W        W47193  13.979  21.294   9.204 -0.0740  0.1973 -0.0294
 4282W        W47194  13.941  20.297   8.851 -0.0006  0.0963 -0.0973
 4283W        W47195  16.963  18.793   5.655 -0.0608 -0.0448 -0.2015
 4284W        W47196  15.228  19.278   6.740 -0.0750 -0.1501 -0.0181
 4285W        W47197  16.420  19.389   6.976  0.0180  0.0210  0.1989
 4286W        W47198  15.619  17.374   7.351  0.1080  0.1432 -0.0596
 4287W        W47199  15.080  22.082   9.083 -0.1345  0.0369  0.0729
 4288W        W47200  14.635  18.352   8.124 -0.2881 -0.1480  0.1823
 4289W        W47201  14.751  19.045   7.506 -0.1166 -0.0978 -0.0448
 4290W        W47202  16.725  20.741   9.594  0.0991  0.1208 -0.0603
 4291W        W47203  16.818  19.797   8.930 -0.0341  0.0044  0.2086
 4292W        W47204  14.139  18.020   8.816  0.2887 -0.1966  0.1503
 4293W        W47205  14.999  21.375   7.654 -0.0577 -0.0866  0.2618
 4294W        W47206  17.113  19.354   8.817 -0.3396 -0.1453 -0.1180
 4295W        W47207  16.631  21.555   7.041  0.3146  0.1141  0.1149
 4296W        W47208  13.777  18.334   7.104 -0.0576 -0.0703  0.1558
 4297W        W47209  15.439  17.357   6.072 -0.1924  0.2148 -0.1134
 4298W        W47210  17.727  19.599   8.577  0.0346  0.4075  0.2953
 4299W        W47211  16.053  19.836   7.810  0.0809  0.1064 -0.0534
 4300W        W47212  16.635  20.362   8.712  0.1374 -0.0484 -0.1679
 4301W        W47213  16.497  20.202   6.231 -0.0482  0.0378  0.3323
 4302W        W47214  17.455  18.502   8.382 -0.0931  0.0074 -0.1895
 4303W        W47215  14.636  19.647   6.802 -0.0999 -0.4940  0.1067
 4304W        W47216  15.786  20.444   7.821  0.0308  0.1396 -0.0251
 4305W        W47217  15.902  20.594   8.321 -0.2142  0.2600 -0.0088
 4306W        W47218  17.128  18.721   7.403  0.2174  0.2273 -0.1706
 4307W        W47219  13.938  20.423   9.441  0.3317  0.0064 -0.1914
 4308W        W47220  14.061  22.243   7.554 -0.1639  0.0782  0.2702
 4309W        W47221  13.853  19.211   8.275  0.0225 -0.0625 -0.0338
 4310W        W47222  13.877  19.214   7.012  0.2908  0.3560  0.0183
 4311W        W47223  15.113  18.882   8.703 -0.0434 -0.1254 -0.0305
 4312W        W47224  16.302  20.341   9.087 -0.0070  0.2121  0.0697
 4313W        W47225  16.788  19.042   7.252 -0.0058  0.0033 -0.0350
 4314W        W47226  16.708  18.733   7.662 -0.0497  0.0977 -0.1953
 4315W        W47227  14.865  20.340   8.468  0.2074  0.0978  0.3476
 4316W        W47228  16.959  19.825   9.517  0.1342 -0.1820 -0.0029
 4317W        W47229  17.631  20.413   6.726 -0.1866 -0.0772  0.2071
 4318W        W47230  15.354  20.564   7.513  0.0701  0.1793 -0.0797
 4319W        W47231  14.571  18.818   9.632 -0.1075 -0.2881 -0.0343
 4320W        W47232  15.435  18.067   7.724  0.2693  0.1687 -0.0665
 4321W        W47233  13.481  17.575   8.253 -0.0810  0.1745 -0.0575
 4322W        W47234  14.722  17.428   6.631  0.2437 -0.1826  0.2557
 4323W        W47235  16.651  20.346   7.380 -0.0885  0.2017 -0.3532
 4324W        W47236  17.260  20.484   7.924  0.2743 -0.1792  0.3211
 4325W        W47237  14.012  19.522   7.398  0.2268  0.1401  0.0021
 4326W        W47238  16.528  20.783   7.280  0.3524 -0.2237 -0.2232
 4327W        W47239  18.291  20.215   9.133 -0.1683  0.1225  0.2041
 4328W        W47240  16.122  20.709   8.759 -0.1411  0.0466 -0.1685
 4329W        W47241  14.004  17.170   9.456 -0.1830  0.0720 -0.0561
 4330W        W47242  14.572  17.135   7.392 -0.0510  0.0386 -0.0522
 4331W        W47243  13.628  23.214  10.090  0.2473 -0.0247  0.0830
 4332W        W47244  12.846  22.502   8.735 -0.0370 -0.3029 -0.2079
 4333W        W47245  14.873  18.355   6.782 -0.0576  0.1994  0.1184
 4334W        W47246  17.300  20.141   9.780 -0.1627  0.1825 -0.0259
 4335W        W47247  16.610  20.010   8.321 -0.1292  0.3033  0.2735
 4336W        W47248  17.406  21.533   9.805 -0.0433  0.2911 -0.0425
 4337W        W47249  15.120  18.125   9.424 -0.1063 -0.0016  0.1529
 4338W        W47250  14.700  18.516   7.342 -0.3028 -0.0969  0.1041
 4339W        W47251  16.286  21.866   8.176 -0.0054  0.0510  0.1164
 4340W        W47252  14.964  21.328   8.214  0.0298 -0.1729  0.1469
 4341W        W47253  14.164  18.425   8.416  0.1462  0.0130  0.2116
 4342W        W47254  15.722  20.575   7.134 -0.1087 -0.0668  0.0223
 4343W        W47255  15.920  19.278   8.098 -0.0909  0.1169  0.1015
 4344W        W47256  15.314  19.710   6.921  0.2319  0.0045  0.1164
 4345W        W47257  15.857  17.705   6.967  0.1726  0.1634  0.1329
 4346W        W47258  18.239  17.969   7.079 -0.0694  0.0599  0.0649
 4347W        W47259  17.141  19.082   6.926 -0.3134  0.1343 -0.0615
 4348W        W47260  17.807  19.667   6.146  0.0550 -0.0461  0.1931
 4349W        W47261  15.822  17.507   6.483 -0.1532 -0.2544 -0.0978
 4350W        W47262  16.185  20.174   8.602  0.2897 -0.1909 -0.0145
 4351W        W47263  16.162  22.322   9.174  0.1184 -0.1664 -0.0838
 4352W        W47264  15.809  19.007   7.630 -0.2410  0.1270 -0.1705
 4353W        W47265  18.619  20.654   8.678  0.1262 -0.1093 -0.2637
 4354W        W47266  14.476  19.751   8.987  0.1097  0.2740 -0.2263
 4355W        W47267  16.251  21.230   7.263 -0.0595 -0.1690 -0.2257
 4356W        W47268  14.435  17.672   9.599 -0.0644  0.1091 -0.1304
 4357W        W47269  14.517  18.690   7.759  0.2185  0.2471  0.2813
 4358W        W47270  15.072  18.562   8.326  0.0191 -0.1396  0.0294
 4359W        W47271  15.717  21.941   7.235  0.3171 -0.1110 -0.0131
 4360W        W47272  15.430  18.451   8.720 -0.3465  0.4059 -0.2074
 4361W        W47273  14.742  17.326   9.898  0.1595  0.1292  0.0617
 4362W        W47274  16.137  19.054   7.228 -0.2972  0.0852  0.3016
 4363W        W47275  16.853  19.233   7.712 -0.1092  0.0096  0.3057
 4364W        W47276  14.360  19.989   7.083 -0.0611 -0.1727 -0.5332
 4365W        W47277  13.424  17.964   9.554 -0.0640  0.2844 -0.0715
 4366W        W47278  12.617  20.858   9.452 -0.2805 -0.1107 -0.0446
 4367W        W47279  17.004  19.935   7.448 -0.1731  0.2868 -0.0906
 4368W        W47280  16.111  18.630   7.545 -0.3685  0.0290 -0.3438
 4369W        W47281  14.552  21.655   7.853  0.1613 -0.0804 -0.0430
 4370W        W47282  14.473  20.794   7.504  0.1973  0.0668 -0.1973
 4371W        W47283  15.874  17.923   7.446 -0.0323  0.0642 -0.0916
 4372W        W47284  16.636  21.234   9.791 -0.0564  0.0229 -0.0176
 4373W        W47285  15.850  20.944   7.433  0.1475 -0.1626 -0.0464
 4374W        W47286  16.162  21.189   9.522 -0.2540 -0.1473  0.2646
 4375W        W47287  15.025  21.841   8.017  0.1998  0.1206 -0.3652
 4376W        W47288  17.853  19.680   9.079 -0.0999 -0.0606 -0.2019
 4377W        W47289  14.394  21.547   8.811  0.0699  0.2203 -0.1796
 4378W        W47290  14.421  17.122   6.886  0.1417 -0.0691 -0.1805
 4379W        W47291  13.732  18.355   8.157  0.4748  0.1326 -0.2077
 4380W        W47292  16.575  18.029   7.843 -0.0568 -0.3716  0.1754
 4381W        W47293  17.925  20.004   7.741  0.0614 -0.0464 -0.1032
 4382W        W47294  15.541  17.509   9.483 -0.1154  0.0667 -0.0173
 4383W        W47295  14.825  18.749   9.229  0.0614 -0.0607 -0.1918
 4384W        W47296  13.403  19.613   9.052  0.0278 -0.0628  0.0256
 4385W        W47297  16.259  19.247   5.920  0.0270  0.2488  0.0432
 4386W        W47298  13.445  18.962   6.947 -0.0338 -0.1089  0.1986
 4387W        W47299  14.941  20.726   9.008  0.0350  0.1339 -0.2600
 4388W        W47300  16.459  19.622   8.694  0.0511  0.0649  0.4433
 4389W        W47301  14.324  20.634   9.180 -0.3294  0.0078 -0.0797
 4390W        W47302  14.803  20.704   9.482  0.3702  0.3512  0.0567
 4391W        W47303  15.466  20.024   7.795  0.0630 -0.2352  0.1347
 4392W        W47304  15.240  20.298   8.852  0.1454 -0.2189 -0.2884
 4393W        W47305  17.339  20.168   9.275 -0.2663 -0.0860 -0.1491
 4394W        W47306  15.033  18.991   9.665  0.1022 -0.2546 -0.0603
 4395W        W47307  15.495  18.560   7.738  0.3040  0.0225  0.1603
 4396W        W47308  16.307  18.685   8.486 -0.0925  0.2108  0.2046
 4397W        W47309  15.714  20.218   9.338  0.0761  0.0543  0.0857
 4398W        W47310  16.831  20.309   9.203 -0.2678 -0.1867  0.3264
 4399W        W47311  16.134  17.093   7.333  0.0307  0.2037 -0.2981
 4400W        W47312  18.341  20.931   8.016  0.0725 -0.2552  0.3290
 4401W        W47313  15.033  19.606   7.866  0.0394  0.0143  0.2507
 4402W        W47314  13.291  19.092   8.844  0.0286  0.0925 -0.1121
 4403W        W47315  14.378  18.948   8.129 -0.2542 -0.0846  0.0883
 4404W        W47316  15.017  17.561   9.489 -0.2466 -0.0450 -0.0629
 4405W        W47317  15.101  19.228   9.093  0.3696  0.1038 -0.1159
 4406W        W47318  14.808  20.856   8.187  0.0176  0.1749 -0.0283
 4407W        W47319  12.935  20.541   9.904 -0.0676  0.1751  0.0746
 4408W        W47320  16.882  18.289   7.514 -0.2479 -0.1825  0.3433
 4409W        W47321  16.587  20.031   6.752  0.2621  0.0284  0.0067
 4410W        W47322  15.529  18.302   8.225 -0.2277 -0.0567  0.2327
 4411W        W47323  15.248  19.689   7.457 -0.3575  0.3416 -0.0727
 4412W        W47324  14.173  17.688   9.149 -0.1310  0.4967  0.0043
 4413W        W47325  15.078  20.463   7.976 -0.0953  0.4211 -0.0948
 4414W        W47326  15.878  18.697   8.105 -0.1016  0.2099 -0.1973
 4415W        W47327  14.217  17.481   6.488  0.3152 -0.0827  0.2330
 4416W        W47328  15.389  20.507   8.387  0.1735 -0.0517 -0.0468
 4417W        W47329  16.692  19.657   9.892 -0.0427 -0.1306 -0.1742
 4418W        W47330  15.522  21.462   7.954  0.2761  0.0487 -0.1589
 4419W        W47331  16.264  18.953   7.915  0.0504 -0.2549  0.0270
 4420W        W47332  14.810  19.903   9.330 -0.1500  0.1997  0.0952
 4421W        W47333  17.457  19.825   6.529  0.2472  0.0265  0.0136
 4422W        W47334  15.876  19.444   7.079  0.1415  0.3180 -0.0031
 4423W        W47335  15.153  19.998   8.275 -0.1207 -0.0648 -0.2584
 4424W        W47336  16.723  20.841   7.912  0.0252 -0.0807 -0.0643
 4425W        W47337  15.653  18.671   7.262  0.2485  0.5408 -0.1112
 4426W        W47338  18.145  19.319   9.632  0.0991 -0.4242 -0.0193
 4427W        W47339  18.089  18.640   7.295  0.0820 -0.0864  0.1690
 4428W        W47340  15.946  18.351   8.437  0.1496  0.1982 -0.0833
 4429W        W47341  17.181  19.441   7.434 -0.0100  0.1807 -0.0928
 4430W        W47342  16.196  20.438   6.941  0.0008 -0.1366  0.0859
 4431W        W47343  14.734  19.727   8.379 -0.1005  0.0808  0.1234
 4432W        W47344  15.215  18.732   6.862  0.1056 -0.2035  0.0727
 4433W        W47345  15.542  21.039   6.897  0.3156  0.0976  0.0116
 4434W        W47346  15.685  19.531   7.578  0.2188 -0.1821  0.0572
 4435W        W47347  15.949  18.521   8.905 -0.1585  0.2639  0.1098
 4436W        W47348  14.433  19.068   9.169  0.0367  0.1903 -0.2416
 4437W        W47349  14.239  18.164   5.745 -0.0752 -0.0117 -0.3340
 4438W        W47350  15.231  21.019   7.972  0.1222  0.1031  0.1882
 4439W        W47351  16.206  20.692   7.875 -0.0162  0.0569 -0.1474
 4440W        W47352  15.364  17.833   7.305  0.1860 -0.0732  0.0712
 4441W        W47353  13.818  22.420   8.442  0.2561 -0.0524  0.2288
 4442W        W47354  15.737  17.787   8.242  0.4566 -0.2808 -0.2382
 4443W        W47355  15.640  20.956   9.484 -0.1096 -0.1399 -0.1324
 4444W        W47356  14.650  22.085   8.738  0.0106 -0.0617 -0.1153
 4445W        W47357  15.511  17.525   8.594  0.0295 -0.1690  0.0659
 4446W        W47358  15.722  17.948   8.762 -0.0141 -0.0218  0.1109
 4447W        W47359  15.750  20.131   8.282  0.0419  0.2435 -0.3242
 4448W        W47360  15.675  18.947   9.006  0.1111 -0.1110  0.1787
 4449W        W47361  17.531  19.982   7.022  0.0474 -0.1755  0.1856
 4450W        W47362  15.124  19.535   9.475  0.1728  0.1599 -0.3278
 4451W        W47363  16.144  19.747   8.303  0.0176  0.4686 -0.3510
 4452W        W47364  14.857  18.037   7.324  0.2210  0.1620  0.2714
 4453W        W47365  14.794  21.101   7.207 -0.1828  0.0238 -0.0310
 4454W        W47366  15.453  21.225   9.010 -0.0108  0.0483 -0.0416
 4455W        W47367  13.239  21.532   8.757  0.1573  0.1540  0.1101
 4456W        W47368  15.262  20.208   7.093  0.1857 -0.1633  0.0366
 4457W        W47369  15.661  19.950   7.235 -0.0969 -0.2685  0.1647
 4458W        W47370  18.538  21.601   8.610 -0.1934  0.1428 -0.1058
 4459W        W47371  14.931  18.802   7.952  0.0855 -0.0037  0.2592
 4460W        W47372  15.139  20.914   8.614 -0.2491  0.1751  0.1077
 4461W        W47373  14.089  20.550   7.734  0.1781  0.1354  0.1254
 4462W        W47374  16.414  19.928   7.323  0.3578 -0.1092  0.2284
 4463W        W47375  15.479  20.736   8.925  0.1161  0.1761 -0.0255
 4464W        W47376  18.131  20.975   6.538 -0.1728  0.1052 -0.1233
 4465W        W47377  17.916  18.670   8.762  0.0328 -0.0062 -0.0893
 4466W        W47378  16.600  17.582   8.157 -0.1159 -0.1290 -0.5469
 4467W        W47379  14.394  17.995   8.400  0.3231 -0.1941  0.2906
 4468W        W47380  15.730  18.533   6.656  0.1976 -0.1112  0.0238
 4469W        W47381  17.323  21.563   9.280 -0.0915  0.1288 -0.0578
 4470W        W47382  14.210  17.102   7.719  0.2464  0.2187  0.1041
 4471W        W47383  15.932  19.474   8.644 -0.1927  0.0319 -0.1260
 4472W        W47384  17.340  17.963   9.584  0.0350 -0.2954 -0.1626
 4473W        W47385  14.812  20.784   6.190  0.0829 -0.0599 -0.2187
 4474W        W47386  18.602  20.850   9.872 -0.0256 -0.1171 -0.2054
 4475W        W47387  14.600  20.262   9.001  0.0795  0.1125  0.0962
 4476W        W47388  14.415  22.463   8.526  0.1344 -0.0248  0.3305
 4477W        W47389  17.279  21.088   8.923  0.2939  0.2897  0.1958
 4478W        W47390  14.188  18.423   7.421 -0.1548  0.1222  0.1028
 4479W        W47391  17.229  20.080   8.236 -0.0261  0.1764  0.0803
 4480W        W47392  15.319  19.914   9.243 -0.1813 -0.0945 -0.2415
 4481W        W47393  14.532  18.090   7.674  0.3783  0.0991  0.2629
 4482W        W47394  16.567  19.850   7.767 -0.0043 -0.2355  0.0396
 4483W        W47395  15.038  18.395   8.989  0.0204 -0.0376 -0.0101
 4484W        W47396  14.500  17.087   9.467 -0.0990  0.0589 -0.1657
 4485W        W47397  15.386  19.223   7.184 -0.3492  0.0795 -0.0162
 4486W        W47398  15.382  18.894   8.252  0.2823 -0.0186 -0.1465
 4487W        W47399  14.079  17.654   7.751 -0.4217  0.2074  0.4368
 4488W        W47400  16.970  20.247   6.955  0.2428 -0.0177 -0.0070
 4489W        W47401  14.124  18.926   8.571  0.0661 -0.0230 -0.0731
 4490W        W47402  16.216  19.401   9.118 -0.2993  0.2460 -0.0618
 4491W        W47403  13.440  17.799   7.773 -0.1047 -0.2420 -0.0245
 4492W        W47404  17.138  20.452   7.371  0.1455  0.2326  0.0213
 4493W        W47405  15.758  20.329   8.788 -0.0898 -0.0834 -0.0123
 4494W        W47406  16.327  22.630   7.733  0.0230 -0.2826  0.1370
 4495W        W47407  17.344  19.380   8.003 -0.1080  0.0197 -0.0450
 4496W        W47408  17.436  21.325   8.443 -0.0256 -0.0612 -0.1808
 4497W        W47409  14.533  21.125   9.113 -0.0122 -0.1946  0.0507
 4498W        W47410  18.067  21.107   9.041  0.1161  0.0941 -0.0836
 4499W        W47411  16.408  20.550   8.324 -0.2064 -0.1856 -0.0342
 4500W        W47412  15.951  18.545   6.148  0.1482  0.1076 -0.1345
 4501W        W47413  14.909  19.940   8.789  0.0007 -0.1244 -0.2117
 4502W        W47414  13.432  21.181   9.031  0.0140  0.1693 -0.2228
 4503W        W47415  15.613  18.278   9.204  0.0495  0.1282  0.2096
 4504W        W47416  16.405  21.637   7.630 -0.0471  0.3203 -0.1215
 4505W        W47417  12.951  20.035   9.757 -0.1788  0.1498  0.1427
 4506W        W47418  14.227  20.448   7.209 -0.0354  0.5534 -0.0628
 4507W        W47419  13.689  20.735   9.123  0.1511  0.1537 -0.0879
 4508W        W47420  16.262  21.142   7.745 -0.0602  0.0339  0.1990
 4509W        W47421  16.465  21.421   8.127 -0.2030  0.4204 -0.2500
 4510W        W47422  15.235  19.453   8.363 -0.0308 -0.0894 -0.3083
 4511W        W47423  17.624  20.623   9.778 -0.3800  0.2233  0.1796
 4512W        W47424  14.299  20.088   8.629  0.1257 -0.4792 -0.0963
 4513W        W47425  16.320  19.185   8.422 -0.0047  0.2095 -0.0283
 4514W        W47426  16.124  18.543   7.030 -0.1450 -0.2843  0.0110
 4515W        W47427  14.557  19.365   7.882  0.0848 -0.0558 -0.0439
 4516W        W47428  14.000  20.004   7.441 -0.3654 -0.2355 -0.1116
 4517W        W47429  13.956  21.338   7.185 -0.2218  0.1615 -0.0950
 4518W        W47430  14.192  19.918   9.371  0.2126  0.1521 -0.0658
 4519W        W47431  12.978  18.921   8.008  0.0522  0.0116  0.3396
 4520W        W47432  14.019  17.324   7.185  0.0445 -0.0906  0.0412
 4521W        W47433  18.076  20.976   7.050 -0.1932 -0.0790 -0.0608
 4522W        W47434  14.241  20.100   8.012 -0.0027  0.0460 -0.0459
 4523W        W47435  13.219  18.908   7.565 -0.0200  0.0943  0.1210
 4524W        W47436  17.567  20.245   7.478 -0.0560 -0.0421 -0.2815
 4525W        W47437  16.669  20.975   6.842  0.1871 -0.0021 -0.2005
 4526W        W47438  15.115  18.099   8.192 -0.0679  0.3074  0.1102
 4527W        W47439  13.727  20.426   7.404 -0.2519  0.0687  0.2744
 4528W        W47440  14.167  16.789   7.304  0.0383 -0.2663  0.0451
 4529W        W47441  16.174  19.015   8.851 -0.1417 -0.1590 -0.0189
 4530W        W47442  15.616  21.516   8.504  0.1107  0.3800  0.5152
 4531W        W47443  17.392  21.566   6.541 -0.0794 -0.3530 -0.0091
 4532W        W47444  14.684  18.337   9.573 -0.2852 -0.1413 -0.0815
 4533W        W47445  15.148  20.808   7.054 -0.0264  0.1088 -0.0461
 4534W        W47446  18.728  20.698   7.907 -0.0365 -0.2445 -0.1035
 4535W        W47447  15.734  17.152   9.901 -0.2458 -0.1941  0.3235
 4536W        W47448  15.385  19.190   7.857 -0.0448  0.0123  0.0203
 4537W        W47449  16.353  17.903   9.981  0.0049 -0.1035  0.1914
 4538W        W47450  14.485  18.448   9.026 -0.0429 -0.2428 -0.0270
 4539W        W47451  16.461  19.244   6.366 -0.1678  0.2816  0.3513
 4540W        W47452  15.702  20.494   6.612  0.1708  0.1167 -0.3034
 4541W        W47453  18.933  29.945  12.296 -0.2930  0.2709  0.2241
 4542W        W47454  15.746  20.931   7.918  0.0201 -0.0570 -0.2050
 4543W        W47455  15.451  19.307   8.757  0.1047  0.1130  0.0005
 4544W        W47456  14.756  18.896   6.992 -0.2038 -0.2895 -0.3170
 4545W        W47457  18.147  19.422   7.652 -0.1481  0.3556 -0.1209
 4546W        W47458  14.187  22.371   9.591  0.1094  0.1908 -0.2383
 4547W        W47459  15.465  19.154   9.510 -0.3014  0.2206 -0.0546
 4548W        W47460  17.970  21.445   8.580 -0.1279  0.2150  0.1768
 4549W        W47461  14.912  17.916   9.831 -0.0046  0.0545 -0.2699
 4550W        W47462  14.604  18.690   8.603 -0.3602  0.1632 -0.0635
 4551W        W47463  14.806  19.189   8.248 -0.3348  0.0207 -0.1534
 4552W        W47464  15.499  19.833   8.680 -0.2307 -0.3727  0.0423
 4553W        W47465  13.633  17.560   9.389 -0.0949 -0.0032 -0.2607
 4554W        W47466  17.021  17.814   5.703 -0.1529  0.0706 -0.1036
 4555W        W47467  13.896  23.685  10.186  0.1501  0.1789 -0.0935
 4556W        W47468  16.901  20.490   8.303  0.0930  0.0617 -0.3678
 4557W        W47469  15.110  22.740   3.306 -0.1859  0.0644 -0.0962
 4558W        W47470  16.475  20.933   0.904 -0.0794  0.3208 -0.1896
 4559W        W47471  16.759  21.120  30.986  0.0609  0.1835  0.0694
 4560W        W47472  17.470  23.885  31.300  0.2838  0.1358  0.1534
 4561W        W47473  15.156  21.650   0.183  0.3900  0.1316 -0.0824
 4562W        W47474  16.801  25.400   1.477 -0.0538  0.0405  0.1483
 4563W        W47475  15.324  22.760   2.371 -0.1724  0.0950  0.3538
 4564W        W47476  18.029  23.485  30.997 -0.1420  0.1458 -0.1670
 4565W        W47477  16.291  25.320   1.207  0.1335 -0.0614  0.0193
 4566W        W47478  17.738  23.219   0.080  0.2853  0.1065  0.1958
 4567W        W47479  17.596  23.565  31.701 -0.0824 -0.1867 -0.0857
 4568W        W47480  16.082  24.491   3.138  0.0143  0.0434  0.1123
 4569W        W47481  17.064  22.020  31.583 -0.1284 -0.3301  0.0891
 4570W        W47482  14.012  20.604   1.709 -0.0193  0.0322 -0.0589
 4571W        W47483  17.410  23.599   2.694  0.0824 -0.0024 -0.2878
 4572W        W47484  16.076  24.426   0.057 -0.0204 -0.2624 -0.0582
 4573W        W47485  15.587  23.143   0.555 -0.1112  0.1398  0.3807
 4574W        W47486  18.427  22.013   0.583 -0.0848 -0.2051 -0.0802
 4575W        W47487  16.553  24.569   1.019 -0.0275  0.2038 -0.0270
 4576W        W47488  17.145  21.790   1.957 -0.0855 -0.2075 -0.1512
 4577W        W47489  17.470  21.368   2.853  0.0575 -0.1835  0.2024
 4578W        W47490  15.903  23.480   0.403  0.1911 -0.1468  0.2004
 4579W        W47491  16.771  22.257  29.770  0.1690 -0.2287 -0.2941
 4580W        W47492  13.425  22.218   0.839 -0.0826  0.0508  0.0004
 4581W        W47493  16.131  22.741   1.222 -0.1386  0.1579  0.3829
 4582W        W47494  17.716  22.613   0.756 -0.2035  0.1331 -0.0511
 4583W        W47495  18.192  23.635   1.751  0.0387  0.0770 -0.0081
 4584W        W47496  14.420  25.157   1.688  0.0718 -0.0170  0.2434
 4585W        W47497  16.743  23.784   1.117 -0.0181  0.1581  0.2170
 4586W        W47498  16.834  23.103   3.106 -0.0823  0.1599  0.0465
 4587W        W47499  15.249  24.017   0.965  0.1435 -0.2088 -0.1208
 4588W        W47500  14.366  24.902   0.226 -0.0534 -0.2558  0.1541
 4589W        W47501  15.727  23.654   0.801 -0.0901  0.1757 -0.0176
 4590W        W47502  18.129  23.274  31.649  0.0582 -0.3998 -0.0546
 4591W        W47503  17.623  24.736   1.714  0.0372 -0.0750 -0.0396
 4592W        W47504  15.741  23.517   3.641 -0.1444 -0.3272 -0.0980
 4593W        W47505  14.603  23.871   0.414  0.0647 -0.1512  0.1746
 4594W        W47506  16.145  23.613   3.359  0.3663 -0.2387  0.2675
 4595W        W47507  15.744  23.421   1.792  0.2202 -0.1547 -0.1446
 4596W        W47508  16.659  21.694   1.942  0.2664  0.0624  0.1448
 4597W        W47509  17.432  22.041   1.329 -0.0339 -0.0143 -0.1453
 4598W        W47510  15.331  24.466  31.558 -0.0824 -0.1688 -0.2095
 4599W        W47511  15.647  22.389   1.508 -0.1328 -0.3186 -0.1006
 4600W        W47512  15.073  23.359   4.380 -0.2006 -0.0543  0.2091
 4601W        W47513  14.372  23.140   1.617 -0.0676  0.1023  0.1260
 4602W        W47514  17.252  22.674   3.152 -0.2096 -0.1384 -0.0956
 4603W        W47515  16.171  24.140  30.153 -0.0576 -0.4276 -0.2976
 4604W        W47516  17.787  21.654  30.113  0.1742  0.0275 -0.1728
 4605W        W47517  16.485  22.624   0.648 -0.1363 -0.0673  0.0805
 4606W        W47518  17.345  21.571  30.513  0.1774  0.0241  0.0243
 4607W        W47519  16.318  20.440   1.146 -0.0258  0.0180 -0.0579
 4608W        W47520  14.832  25.712   2.245 -0.2053 -0.0249 -0.2642
 4609W        W47521  16.124  22.011   3.954  0.0312 -0.0830  0.0529
 4610W        W47522  16.863  24.262   1.839  0.2936 -0.0243  0.0796
 4611W        W47523  16.550  23.372  31.869  0.4221  0.0521 -0.1187
 4612W        W47524  16.548  23.617   2.194 -0.0787 -0.0078  0.0462
 4613W        W47525  14.569  23.618   2.415  0.2885 -0.0839 -0.0826
 4614W        W47526  14.966  23.253   3.077 -0.0325 -0.0509 -0.2323
 4615W        W47527  18.553  22.818   0.548 -0.0269 -0.2973  0.3619
 4616W        W47528  18.621  24.713   2.091 -0.3253  0.0333  0.0415
 4617W        W47529  18.301  23.976  31.095 -0.0201  0.2378 -0.2495
 4618W        W47530  15.927  22.775   0.701 -0.0128 -0.0130  0.1703
 4619W        W47531  15.464  22.297   3.169 -0.0275 -0.0726 -0.2287
 4620W        W47532  14.200  21.521   1.400  0.1380  0.0386 -0.1105
 4621W        W47533  16.021  20.394  31.277 -0.1488  0.0659  0.1927
 4622W        W47534  19.229  23.069   3.737 -0.1225 -0.3514  0.2446
 4623W        W47535  14.442  24.353   3.679  0.0478 -0.1390 -0.1006
 4624W        W47536  17.401  21.875  31.194 -0.0466  0.0371 -0.0167
 4625W        W47537  15.312  23.694   1.419  0.1527  0.0599  0.1718
 4626W        W47538  16.746  24.066   2.314 -0.4040 -0.1152 -0.2889
 4627W        W47539  17.020  23.515  31.664  0.0272  0.0257 -0.1444
 4628W        W47540  17.353  22.350   0.945 -0.0905 -0.3854  0.3954
 4629W        W47541  16.581  20.413   0.633 -0.0627  0.0390  0.3563
 4630W        W47542  15.887  22.344  31.284 -0.2906  0.0150  0.0231
 4631W        W47543  16.836  25.374  31.407  0.2966  0.0173  0.2929
 4632W        W47544  18.519  23.306   2.279  0.0912 -0.0248  0.1539
 4633W        W47545  18.763  21.890  31.679 -0.2014 -0.0636  0.2163
 4634W        W47546  15.030  24.935   3.706 -0.0579 -0.1713 -0.1038
 4635W        W47547  15.624  22.451   2.096 -0.0200  0.1873 -0.1811
 4636W        W47548  16.507  23.765   3.042  0.0728 -0.0994  0.0768
 4637W        W47549  15.128  23.090  30.223 -0.1039 -0.2386  0.1451
 4638W        W47550  14.386  24.773   1.993  0.0435 -0.1665 -0.1110
 4639W        W47551  14.155  23.142   0.606 -0.1584  0.1975  0.0527
 4640W        W47552  14.284  21.953   3.192 -0.1572 -0.1053 -0.1502
 4641W        W47553  15.678  22.628   3.466  0.2043 -0.0990  0.0238
 4642W        W47554  17.929  21.697   0.730  0.3841  0.0783 -0.1681
 4643W        W47555  15.811  23.220   2.808 -0.3006  0.0991 -0.2573
 4644W        W47556  17.953  21.962   1.916  0.1711  0.0496  0.1001
 4645W        W47557  16.073  24.903   0.271  0.1110 -0.1330 -0.1400
 4646W        W47558  17.358  24.903   0.675 -0.2144  0.2046  0.0455
 4647W        W47559  17.746  21.835  30.743 -0.0926 -0.0831 -0.2921
 4648W        W47560  18.817  22.355  30.962  0.2076  0.0399 -0.2651
 4649W        W47561  14.518  22.410   2.419 -0.1400 -0.0003  0.0882
 4650W        W47562  14.361  22.111   2.036 -0.2282 -0.2202 -0.1460
 4651W        W47563  15.922  22.103   2.988  0.3113  0.0103  0.1822
 4652W        W47564  15.483  21.886   1.454  0.0400 -0.1222  0.0945
 4653W        W47565  17.572  23.662   2.173 -0.4779 -0.2068  0.1575
 4654W        W47566  15.541  20.426  30.986 -0.2998 -0.2795  0.2141
 4655W        W47567  17.100  22.451   1.568 -0.0073  0.0828  0.3186
 4656W        W47568  16.845  22.343   0.856 -0.0600  0.1971 -0.1213
 4657W        W47569  14.237  24.410   0.316  0.3750  0.0806  0.2296
 4658W        W47570  16.373  20.862   2.100  0.1465  0.0937  0.0519
 4659W        W47571  18.107  23.735  31.926 -0.2114  0.2028 -0.1875
 4660W        W47572  18.779  23.745   1.528 -0.3855 -0.4377 -0.1542
 4661W        W47573  18.580  25.563   0.508 -0.1481 -0.0543 -0.0506
 4662W        W47574  16.053  22.347   3.361  0.1336  0.0996  0.0147
 4663W        W47575  16.409  22.521  31.328 -0.1962 -0.1463 -0.0603
 4664W        W47576  16.218  23.786   0.811 -0.2807  0.1058  0.1728
 4665W        W47577  16.811  23.453   1.795  0.0696 -0.0637  0.0292
 4666W        W47578  17.064  22.599  31.364 -0.1128  0.4504 -0.3111
 4667W        W47579  16.993  23.669   0.669  0.1052 -0.0725  0.3360
 4668W        W47580  17.276  24.363   1.560  0.4041 -0.0652 -0.1579
 4669W        W47581  13.407  23.265   2.281  0.0150 -0.0707  0.1564
 4670W        W47582  16.883  23.279   1.255 -0.0942  0.0385 -0.0211
 4671W        W47583  18.753  22.384   2.038 -0.1910 -0.0108  0.2272
 4672W        W47584  16.800  23.096   2.241 -0.0399 -0.1262 -0.0508
 4673W        W47585  16.282  22.015  30.989  0.0699  0.1361 -0.3608
 4674W        W47586  15.440  24.121   1.750 -0.0588  0.1307  0.0910
 4675W        W47587  13.562  24.435  30.675 -0.1327  0.2230 -0.3148
 4676W        W47588  15.680  23.743  31.407  0.1358  0.1759  0.1199
 4677W        W47589  15.721  24.100   2.119  0.1793 -0.0685 -0.0952
 4678W        W47590  16.797  22.058   1.655 -0.0340  0.1093 -0.1844
 4679W        W47591  15.588  22.932   1.949 -0.0358  0.0672  0.0452
 4680W        W47592  16.618  24.706   4.072  0.1600 -0.1388 -0.1058
 4681W        W47593  15.850  22.341  30.033  0.0073  0.4233  0.0738
 4682W        W47594  14.603  24.623   2.961 -0.1178 -0.0599  0.3099
 4683W        W47595  17.070  20.718  31.055  0.1549 -0.0895 -0.3472
 4684W        W47596  17.477  22.856  31.132  0.0481 -0.2896 -0.1036
 4685W        W47597  16.738  23.326   2.668  0.0737 -0.0881 -0.4670
 4686W        W47598  17.747  23.731   0.257  0.0576 -0.2253  0.0895
 4687W        W47599  18.144  21.532  30.486  0.1882 -0.0723  0.3689
 4688W        W47600  17.905  21.592  31.600 -0.1829  0.0702  0.2951
 4689W        W47601  13.787  25.489   4.725 -0.1021 -0.0880  0.0151
 4690W        W47602  17.171  23.895   1.914  0.1496  0.1069  0.0572
 4691W        W47603  16.469  24.445   1.547  0.3594  0.2329  0.0354
 4692W        W47604  17.685  22.100  29.986  0.0425  0.1075  0.0718
 4693W        W47605  17.136  24.852   1.583 -0.2332  0.0363 -0.0547
 4694W        W47606  13.594  23.870  31.643  0.1313  0.0004 -0.1623
 4695W        W47607  16.045  23.903   2.915  0.3643 -0.0655 -0.4095
 4696W        W47608  17.189  22.630  31.984 -0.2785  0.1786  0.0513
 4697W        W47609  16.186  21.693   1.682  0.1556  0.1386  0.0695
 4698W        W47610  16.834  23.020  31.576  0.0240 -0.2598 -0.2070
 4699W        W47611  16.575  21.096   0.389 -0.1407 -0.0869  0.0099
 4700W        W47612  14.760  24.627   0.211 -0.1901 -0.3252 -0.4118
 4701W        W47613  18.681  20.866  31.516 -0.2293 -0.1157  0.1139
 4702W        W47614  18.482  22.754   1.732 -0.1475 -0.0952  0.0153
 4703W        W47615  16.934  20.880   2.333 -0.0255  0.0866 -0.3185
 4704W        W47616  16.844  24.426   3.697 -0.1816  0.2139 -0.0605
 4705W        W47617  17.406  22.793  30.150  0.2068 -0.1512 -0.1892
 4706W        W47618  17.483  23.321   4.469  0.0396 -0.3677  0.1264
 4707W        W47619  16.163  22.091  31.637 -0.2112 -0.1578  0.1212
 4708W        W47620  17.164  22.206   2.769  0.1684 -0.3294 -0.2241
 4709W        W47621  13.798  24.254   2.656  0.4385 -0.3824 -0.0635
 4710W        W47622  15.060  23.714   2.516 -0.3407 -0.0359  0.0907
 4711W        W47623  16.681  23.961   3.605 -0.0107  0.2655  0.0290
 4712W        W47624  16.879  23.666   0.141 -0.0881 -0.0602  0.3914
 4713W        W47625  15.869  23.096   4.632 -0.1024  0.0729 -0.1368
 4714W        W47626  17.140  21.979  30.688 -0.1481  0.3016  0.3072
 4715W        W47627  14.866  23.924  31.444  0.0544 -0.2167  0.0419
 4716W        W47628  17.277  22.410   0.432  0.4739 -0.0102  0.2161
 4717W        W47629  16.317  22.244   0.913  0.0323  0.1178 -0.1112
 4718W        W47630  15.374  23.657   2.086 -0.1374  0.1859 -0.1207
 4719W        W47631  16.185  23.699  31.312 -0.1217  0.1020  0.0866
 4720W        W47632  17.286  23.321   1.876  0.1419  0.1859  0.2461
 4721W        W47633  16.289  22.984  31.709 -0.0246 -0.0799 -0.1095
 4722W        W47634  17.882  22.148   1.019  0.0684  0.0371  0.2411
 4723W        W47635  14.239  23.989   2.736  0.2261  0.1676  0.0960
 4724W        W47636  16.783  21.788  30.992 -0.0073  0.2061  0.0526
 4725W        W47637  14.955  23.014  31.386  0.2186  0.1321 -0.0346
 4726W        W47638  17.075  21.996   0.561  0.1927  0.1860 -0.0660
 4727W        W47639  15.612  24.677  31.961  0.0192 -0.1080  0.1773
 4728W        W47640  16.369  21.764   1.142  0.0842 -0.1028  0.1920
 4729W        W47641  16.208  22.516  31.843  0.1985  0.2428 -0.0457
 4730W        W47642  14.576  26.189   2.378  0.1350  0.2896 -0.0185
 4731W        W47643  16.002  23.706   2.105 -0.0946 -0.2129 -0.3552
 4732W        W47644  18.447  20.945  31.053  0.1990  0.2358 -0.4456
 4733W        W47645  16.630  22.211   2.680 -0.0997  0.2483  0.0411
 4734W        W47646  16.927  21.288   2.649  0.3446 -0.0530  0.1182
 4735W        W47647  15.824  22.954  31.557 -0.0771  0.0828  0.0026
 4736W        W47648  16.956  23.862   2.696  0.1989 -0.1451  0.5025
 4737W        W47649  16.273  22.231   0.329 -0.2729  0.0238 -0.1776
 4738W        W47650  14.783  23.882   0.866  0.0188  0.2069 -0.3033
 4739W        W47651  15.743  23.671   2.497 -0.0011 -0.1373 -0.3276
 4740W        W47652  14.816  22.569  31.133 -0.2827 -0.1577 -0.0444
 4741W        W47653  15.725  24.069   0.413 -0.2540  0.2272  0.0627
 4742W        W47654  16.327  22.883   2.591 -0.1174  0.0834 -0.1298
 4743W        W47655  17.399  24.092   2.439 -0.1884  0.2292  0.0280
 4744W        W47656  16.728  19.954   2.013  0.1789  0.3480  0.0771
 4745W        W47657  17.192  21.481   0.839 -0.0434 -0.0425  0.3878
 4746W        W47658  16.316  23.012   2.049 -0.2754  0.2295  0.4744
 4747W        W47659  17.395  24.434   0.581 -0.1465 -0.0343  0.0347
 4748W        W47660  15.347  23.394   2.838  0.0812  0.3726  0.0684
 4749W        W47661  15.695  23.591   3.163 -0.3228  0.3176 -0.1323
 4750W        W47662  16.296  21.316   1.305 -0.2851 -0.0293 -0.0448
 4751W        W47663  18.262  24.611   1.062  0.4382 -0.0388 -0.0723
 4752W        W47664  16.544  23.388   0.877  0.0484 -0.0182 -0.1903
 4753W        W47665  14.939  23.043  31.885 -0.3138 -0.2339  0.0183
 4754W        W47666  14.272  23.314   1.118  0.0457 -0.1599 -0.3093
 4755W        W47667  16.077  23.245   1.046  0.4095  0.3244 -0.0761
 4756W        W47668  16.938  22.922   1.768  0.0830  0.1122 -0.0763
 4757W        W47669  13.939  24.992   1.929  0.0150  0.0671  0.0775
 4758W        W47670  15.262  23.967  31.181 -0.0771 -0.1769  0.1432
 4759W        W47671  15.467  23.141   3.439 -0.0045  0.1411  0.0430
 4760W        W47672  16.935  21.483  31.466 -0.1608 -0.3413 -0.0293
 4761W        W47673  17.940  24.168   0.414 -0.0691 -0.0872 -0.0860
 4762W        W47674  17.534  24.021   1.265  0.0393 -0.0526  0.1193
 4763W        W47675  16.587  22.523   1.812  0.2390  0.3783  0.2694
 4764W        W47676  16.593  21.954  31.985  0.1382 -0.0550 -0.2116
 4765W        W47677  17.431  21.241   1.864 -0.2030  0.0877  0.1411
 4766W        W47678  16.477  22.077   2.202  0.0547  0.0312  0.1397
 4767W        W47679  18.091  22.927   0.620 -0.0579  0.0339  0.2460
 4768W        W47680  16.279  23.470   1.779  0.2216  0.0203 -0.0276
 4769W        W47681  15.258  24.122   2.239 -0.2161 -0.1598  0.0251
 4770W        W47682  14.891  22.017   0.932  0.2756  0.0266 -0.0484
 4771W        W47683  16.591  22.582   1.266 -0.1300  0.0982 -0.0555
 4772W        W47684  15.988  19.974  30.489 -0.0226 -0.1384 -0.0894
 4773W        W47685  14.476  23.293   3.283 -0.1325 -0.1257 -0.0100
 4774W        W47686  17.457  23.874   0.611  0.2746 -0.1598 -0.0198
 4775W        W47687  15.393  23.210  31.619 -0.3612  0.1079  0.0270
 4776W        W47688  18.339  24.097   0.879  0.0902 -0.1123  0.2036
 4777W        W47689  14.227  23.770   1.392  0.1312  0.3334 -0.0683
 4778W        W47690  17.018  22.805   0.480  0.0324 -0.0548  0.1292
 4779W        W47691  16.289  23.180   0.467  0.1200 -0.2038  0.0516
 4780W        W47692  16.758  23.252   0.431 -0.1148 -0.1005 -0.1161
 4781W        W47693  15.955  21.572   3.020  0.0470 -0.0590  0.2603
 4782W        W47694  17.732  23.094   1.020  0.1111  0.0838 -0.0003
 4783W        W47695  17.510  21.904   0.865  0.3684  0.0039  0.1176
 4784W        W47696  15.434  23.051   4.412 -0.2777 -0.2596  0.4978
 4785W        W47697  17.053  23.560   2.244 -0.2196  0.2441  0.1007
 4786W        W47698  15.220  23.082   1.484  0.4455  0.4921  0.2444
 4787W        W47699  15.555  21.460   2.241 -0.0134  0.0574  0.0495
 4788W        W47700  16.855  24.214   1.313 -0.1845 -0.3251 -0.0466
 4789W        W47701  19.484  22.519  31.766  0.5505 -0.0393 -0.0758
 4790W        W47702  17.598  21.885   2.765  0.2869 -0.0864  0.0492
 4791W        W47703  18.276  22.946   1.116  0.0006  0.0711 -0.0675
 4792W        W47704  16.419  21.463  30.891 -0.1896  0.1653  0.2039
 4793W        W47705  15.920  23.011   0.049  0.2760  0.1384 -0.1887
 4794W        W47706  17.002  22.282   2.112  0.0052 -0.3188  0.0771
 4795W        W47707  16.328  22.119  30.061  0.0437  0.0219  0.1302
 4796W        W47708  17.460  23.105   2.279  0.0607  0.1355 -0.3140
 4797W        W47709  16.542  23.768  30.925  0.2320 -0.2570 -0.1474
 4798W        W47710  17.061  23.140   0.046  0.4131 -0.1220  0.2988
 4799W        W47711  17.096  22.788  30.808  0.0797  0.1370  0.1986
 4800W        W47712  15.773  21.193   1.402  0.2896 -0.0443  0.0913
 4801W        W47713  15.326  24.524   3.807 -0.2211 -0.0425  0.1751
 4802W        W47714  14.846  22.579  31.627 -0.1533  0.3147 -0.1596
 4803W        W47715  15.444  23.572  30.097 -0.1969 -0.1847 -0.1702
 4804W        W47716  16.307  23.669   1.275  0.1740 -0.0486  0.1743
 4805W        W47717  17.355  25.260   5.204 -0.2588 -0.3029  0.1666
 4806W        W47718  16.934  21.468   0.405  0.0150  0.0421 -0.1427
 4807W        W47719  16.509  22.250   3.659  0.0138 -0.2972  0.1205
 4808W        W47720  15.695  24.216  31.762  0.0248 -0.2438 -0.2330
 4809W        W47721  18.188  21.791  31.034  0.0176 -0.0673 -0.0914
 4810W        W47722  15.965  23.172   2.309  0.1147 -0.1087 -0.1881
 4811W        W47723  15.023  25.093   2.493 -0.1538 -0.2535  0.1161
 4812W        W47724  15.465  24.631   1.898 -0.0192  0.1938 -0.0616
 4813W        W47725  17.658  21.735   1.620 -0.1920  0.3103  0.1307
 4814W        W47726  16.525  24.288  31.145  0.0206 -0.0709  0.1077
 4815W        W47727  15.622  24.120   1.310 -0.0398 -0.2705  0.0280
 4816W        W47728  18.263  24.493   4.088 -0.1509  0.0375 -0.0433
 4817W        W47729  16.820  21.827   2.416  0.4141 -0.2473 -0.2180
 4818W        W47730  14.816  23.819   1.371  0.0635 -0.0426 -0.0486
 4819W        W47731  16.633  25.162   2.363  0.2899 -0.0649 -0.0034
 4820W        W47732  17.746  23.334   0.591 -0.2902 -0.1392  0.2141
 4821W        W47733  14.245  23.583   1.913 -0.1090 -0.1399 -0.0348
 4822W        W47734  14.819  22.495   4.090 -0.1022  0.0165 -0.1124
 4823W        W47735  15.761  24.431   4.031 -0.2145 -0.1508 -0.2998
 4824W        W47736  17.877  23.782   0.901  0.0742 -0.0749 -0.2545
 4825W        W47737  16.439  21.712  31.378 -0.2489  0.0043 -0.1317
 4826W        W47738  14.414  22.782  31.442 -0.0529  0.2253 -0.0297
 4827W        W47739  14.522  25.942   3.813 -0.2723 -0.4165  0.0332
 4828W        W47740  15.314  22.310   1.005  0.1816  0.0489  0.2625
 4829W        W47741  14.450  25.215  31.638 -0.2806 -0.0202 -0.0619
 4830W        W47742  19.130  22.523  31.327  0.1904 -0.0493  0.1714
 4831W        W47743  18.314  22.627  30.481 -0.1288  0.4121 -0.2851
 4832W        W47744  17.316  25.901   2.595  0.0901 -0.1256  0.4442
 4833W        W47745  16.329  23.305  30.800 -0.0824  0.2855  0.1701
 4834W        W47746  14.498  24.316   2.033 -0.1873  0.1663  0.2325
 4835W        W47747  14.053  25.031  31.296  0.0321 -0.1872  0.0269
 4836W        W47748  17.524  25.213   1.504  0.2011 -0.3316 -0.0391
 4837W        W47749  15.186  23.945   0.460 -0.2128  0.1411  0.0134
 4838W        W47750  18.022  24.754   2.736  0.4276  0.1184 -0.1354
 4839W        W47751  16.901  18.943  29.423 -0.0904 -0.1784 -0.1495
 4840W        W47752  17.781  23.279   1.804 -0.1941  0.1212 -0.2268
 4841W        W47753  17.162  22.104   0.086 -0.0505 -0.1081  0.4030
 4842W        W47754  16.256  24.377   3.816 -0.0662  0.1361  0.0884
 4843W        W47755  15.027  21.554   0.640 -0.4503  0.1858 -0.1669
 4844W        W47756  16.406  22.608  30.131  0.0217 -0.1208 -0.0165
 4845W        W47757  15.887  22.060   1.814  0.1043 -0.0030  0.1680
 4846W        W47758  18.764  21.289   3.157 -0.0225  0.2012 -0.3181
 4847W        W47759  15.404  24.040   2.735 -0.0442 -0.1755  0.2867
 4848W        W47760  18.152  24.336   0.000  0.0205  0.1549  0.2390
 4849W        W47761  15.162  23.446   0.621  0.1698 -0.1640 -0.4151
 4850W        W47762  16.040  21.831   0.651 -0.0019 -0.1060  0.0738
 4851W        W47763  18.468  21.166   0.704 -0.0917  0.1391  0.1967
 4852W        W47764  16.574  22.868   0.192 -0.0285  0.1893  0.0834
 4853W        W47765  16.663  22.633   2.309  0.0864 -0.1557 -0.2105
 4854W        W47766  16.559  23.905   1.715  0.0927  0.0373 -0.1860
 4855W        W47767  14.946  24.293   1.629  0.0725  0.0215 -0.2924
 4856W        W47768  15.887  24.458   1.662 -0.0145  0.1260 -0.1074
 4857W        W47769  14.633  21.820   0.487 -0.0025 -0.3258 -0.1978
 4858W        W47770  18.542  21.587   0.365  0.0030  0.0115  0.2464
 4859W        W47771  15.866  22.196   1.059 -0.0142 -0.0450  0.0761
 4860W        W47772  18.676  21.782   2.863  0.3008 -0.0859 -0.3363
 4861W        W47773  15.943  22.654   1.741 -0.1781  0.1498 -0.0145
 4862W        W47774  16.854  22.873   0.923 -0.3998 -0.1054  0.2149
 4863W        W47775  14.818  23.417   0.245  0.0103 -0.0245 -0.1454
 4864W        W47776  15.699  21.788   2.679 -0.0725  0.3670  0.2094
 4865W        W47777  17.510  21.219  30.102  0.1654 -0.0470  0.2119
 4866W        W47778  16.707  24.911   1.834 -0.1170 -0.0924 -0.0075
 4867W        W47779  17.625  22.261   0.085 -0.0035  0.1813  0.1001
 4868W        W47780  17.602  25.565   2.824 -0.0441  0.3738 -0.0411
 4869W        W47781  15.956  20.735   2.670 -0.1136 -0.1804  0.0568
 4870W        W47782  17.287  21.765  29.863 -0.1536  0.0858 -0.3697
 4871W        W47783  15.814  22.458   0.257 -0.1069 -0.0989 -0.1813
 4872W        W47784  15.065  22.327   2.345  0.2307 -0.3361  0.1648
 4873W        W47785  17.862  24.258   2.657 -0.2349  0.5288 -0.1585
 4874W        W47786  16.190  21.326   0.712  0.5414 -0.1068  0.1485
 4875W        W47787  18.535  23.446  30.862  0.0218  0.1979 -0.2765
 4876W        W47788  19.189  22.383   2.374 -0.1232  0.1830  0.1584
 4877W        W47789  17.089  24.682   1.048 -0.1309 -0.0644  0.0140
 4878W        W47790  18.968  23.139   1.449  0.0328 -0.0286  0.0701
 4879W        W47791  17.021  24.431   2.713 -0.1357  0.2057  0.4028
 4880W        W47792  15.291  21.416   1.322 -0.1330 -0.2515  0.2469
 4881W        W47793  15.973  23.977   1.616 -0.0515 -0.0302  0.1369
 4882W        W47794  17.180  23.694   1.476  0.0565 -0.0230 -0.1337
 4883W        W47795  16.604  21.893   0.680 -0.0794 -0.0162 -0.3511
 4884W        W47796  15.828  21.613   1.123  0.0189  0.1229 -0.0694
 4885W        W47797  14.291  23.292   0.154 -0.0863  0.1940  0.0588
 4886W        W47798  17.336  23.593   1.030  0.0447  0.2107  0.2729
 4887W        W47799  17.704  24.217   2.012 -0.1794  0.0236 -0.0456
 4888W        W47800  16.511  24.786  31.363  0.0229  0.2109 -0.1725
 4889W        W47801  17.620  22.595   1.288  0.2087 -0.0162 -0.1424
 4890W        W47802  14.044  23.947   2.260 -0.0047  0.1881 -0.1541
 4891W        W47803  13.647  22.427  31.159 -0.0925  0.2176  0.0317
 4892W        W47804  15.462  22.361   2.684  0.1537  0.1139 -0.0155
 4893W        W47805  15.418  23.246   2.363 -0.1363 -0.0688  0.0096
 4894W        W47806  16.184  24.149   0.496 -0.3430  0.1607 -0.2678
 4895W        W47807  16.427  23.116   1.407  0.1352 -0.0397  0.1165
 4896W        W47808  15.588  22.769   1.162  0.1537 -0.1884  0.1354
 4897W        W47809  18.738  23.190   1.875  0.0890 -0.1259 -0.2419
 4898W        W47810  17.015  20.979   0.619 -0.1447 -0.0821  0.0229
 4899W        W47811  18.243  22.467   0.229  0.2143  0.2316 -0.2432
 4900W        W47812  17.905  22.611  31.397 -0.1635  0.0704 -0.0194
 4901W        W47813  15.192  21.804   2.874  0.0466 -0.1134  0.1182
 4902W        W47814  14.521  22.368   0.279  0.0680 -0.1915  0.0466
 4903W        W47815  14.609  23.464   0.729  0.2925  0.1382  0.2518
 4904W        W47816  14.893  24.282   1.137 -0.1202 -0.1377  0.0165
 4905W        W47817  16.425  21.430   4.621  0.0653  0.0342 -0.0540
 4906W        W47818  15.535  21.952   2.157 -0.2085  0.2083  0.1357
 4907W        W47819  15.511  23.283   1.091 -0.0294 -0.2503  0.0339
 4908W        W47820  15.714  22.481  31.767  0.0579 -0.0291 -0.3626
 4909W        W47821  17.405  24.534  31.677 -0.0312 -0.0632 -0.1332
 4910W        W47822  16.768  22.396   0.249 -0.3621 -0.4372 -0.2435
 4911W        W47823  13.906  21.900   1.001  0.0444  0.2609 -0.5052
 4912W        W47824  17.651  22.866   0.375 -0.2046 -0.0632 -0.0277
 4913W        W47825  17.906  23.316   2.349 -0.1201 -0.0993  0.1651
 4914W        W47826  16.111  21.544  31.788  0.1726  0.2405 -0.3503
 4915W        W47827  19.673  24.719   3.480 -0.0348 -0.3248  0.2487
 4916W        W47828  16.163  22.953  31.221 -0.0945  0.0815  0.4335
 4917W        W47829  17.322  23.036   2.758  0.0867  0.0699  0.0921
 4918W        W47830  17.405  24.062   2.937 -0.1239 -0.1969  0.0785
 4919W        W47831  14.987  21.839   1.415 -0.1740  0.1320 -0.1006
 4920W        W47832  17.749  23.471   1.344 -0.0416  0.0013  0.1374
 4921W        W47833  16.411  23.642   0.347  0.0960 -0.3019 -0.0633
 4922W        W47834  19.041  26.463  31.654  0.0502 -0.0353  0.1265
 4923W        W47835  14.899  23.297   2.160  0.0226 -0.0748  0.1219
 4924W        W47836  15.749  23.037   3.962  0.2570  0.1945 -0.2364
 4925W        W47837  15.771  21.535   1.759  0.0236 -0.0023  0.0565
 4926W        W47838  17.787  22.718  31.913 -0.1992  0.0501  0.1954
 4927W        W47839  15.809  22.728   2.512 -0.2229  0.2564 -0.0611
 4928W        W47840  18.712  24.497   0.111 -0.4412  0.0745 -0.0380
 4929W        W47841  17.700  22.318   1.679  0.0773  0.2207 -0.0357
 4930W        W47842  17.472  21.724   0.384 -0.2819  0.0884 -0.3608
 4931W        W47843  15.489  20.859   2.817 -0.2137  0.1394 -0.3189
 4932W        W47844  15.649  23.238   5.123 -0.1309 -0.2438 -0.0054
 4933W        W47845  17.728  23.825   1.726  0.1692 -0.0780  0.0033
 4934W        W47846  14.303  22.507   1.571  0.0650 -0.0243 -0.1191
 4935W        W47847  17.674  23.675  30.595  0.1194 -0.1402  0.0452
 4936W        W47848  18.004  22.200  31.788  0.1152  0.0475 -0.0104
 4937W        W47849  16.565  23.417  31.347 -0.3005 -0.0278  0.1445
 4938W        W47850  17.833  22.214   0.483 -0.0796 -0.0407 -0.4759
 4939W        W47851  15.819  23.092   1.472  0.0630  0.1197 -0.1476
 4940W        W47852  15.803  23.556   1.353 -0.1773 -0.2446 -0.0691
 4941W        W47853  17.865  23.841   2.859  0.0197  0.0156 -0.0251
 4942W        W47854  15.734  24.224  31.274 -0.0677  0.0083  0.0743
 4943W        W47855  19.420  21.826   0.294 -0.1337 -0.1437 -0.0433
 4944W        W47856  17.910  24.866   3.225  0.0634  0.1683 -0.0223
 4945W        W47857  18.884  25.968   1.368  0.3863 -0.1737  0.0265
 4946W        W47858  16.921  24.754   2.317 -0.2840 -0.0207  0.1219
 4947W        W47859  18.735  22.639   1.156 -0.0982 -0.0792 -0.4141
 4948W        W47860  16.042  21.746   2.166 -0.4616  0.1523  0.0799
 4949W        W47861  15.371  23.350   0.154  0.0636 -0.1836  0.1449
 4950W        W47862  15.953  23.420  31.701 -0.2248 -0.1769 -0.3565
 4951W        W47863  16.701  22.503  31.755 -0.1268 -0.0366  0.0895
 4952W        W47864  15.659  22.162   0.632  0.0364  0.2049  0.4625
 4953W        W47865  17.968  22.797  30.900  0.1097 -0.1602 -0.1906
 4954W        W47866  14.971  23.861   1.866 -0.0048 -0.3190 -0.1339
 4955W        W47867  17.456  22.784   1.804  0.0632 -0.1724  0.1187
 4956W        W47868  14.908  24.622   7.193 -0.0463 -0.2064 -0.1643
 4957W        W47869  15.149  21.844   3.503 -0.0341  0.2501  0.0651
 4958W        W47870  16.487  22.870   3.634  0.3182  0.4284 -0.0831
 4959W        W47871  18.240  24.187   5.067  0.0138 -0.0040 -0.0548
 4960W        W47872  15.339  22.835   5.263  0.3876 -0.2002  0.1541
 4961W        W47873  17.181  25.255   4.126 -0.2128 -0.0351 -0.0771
 4962W        W47874  15.683  21.459   5.687 -0.2576 -0.0832 -0.0649
 4963W        W47875  16.630  25.660   6.339 -0.3140 -0.1580  0.1445
 4964W        W47876  16.251  24.087   6.514 -0.1897 -0.0325 -0.1373
 4965W        W47877  17.199  23.392   3.607 -0.0493 -0.0170  0.1146
 4966W        W47878  15.832  22.713   6.466 -0.4859  0.0967  0.1486
 4967W        W47879  15.414  24.672   6.356 -0.1715  0.1614  0.0396
 4968W        W47880  15.516  21.572   4.607  0.0951  0.1844 -0.0257
 4969W        W47881  13.900  21.951   4.526 -0.1426 -0.0274  0.0078
 4970W        W47882  16.064  22.091   5.778 -0.1409 -0.1132 -0.1246
 4971W        W47883  15.119  24.445   2.830 -0.2589 -0.1214 -0.1925
 4972W        W47884  15.789  23.395   5.566  0.3580  0.1385  0.0826
 4973W        W47885  15.255  22.592   4.402 -0.0673  0.0416  0.0318
 4974W        W47886  15.833  25.157   5.347 -0.1225 -0.0618 -0.0271
 4975W        W47887  14.823  21.812   6.835 -0.0903  0.0803  0.0233
 4976W        W47888  16.982  21.919   6.606 -0.0876  0.0394 -0.2873
 4977W        W47889  15.938  23.978   3.841  0.1626 -0.0419  0.0724
 4978W        W47890  15.986  22.132   2.446  0.0728 -0.2456 -0.0582
 4979W        W47891  14.920  22.765   5.971 -0.2962 -0.1098  0.0026
 4980W        W47892  15.716  22.977   6.889 -0.0867 -0.2375  0.0165
 4981W        W47893  17.560  24.484   6.058 -0.0507 -0.0793  0.1904
 4982W        W47894  16.799  24.929   5.918 -0.2880  0.1563 -0.1532
 4983W        W47895  15.843  24.062   5.546 -0.2265  0.0587 -0.0455
 4984W        W47896  16.246  26.533   5.153  0.0334  0.1609  0.0496
 4985W        W47897  17.230  22.402   7.394 -0.0957 -0.1428 -0.1647
 4986W        W47898  15.074  23.818   5.742 -0.0606 -0.0251 -0.0361
 4987W        W47899  14.568  23.649   5.807  0.2516  0.4863 -0.0884
 4988W        W47900  16.287  25.115   4.985  0.0429  0.0467  0.2703
 4989W        W47901  17.465  25.651   5.517 -0.1372  0.0041 -0.0409
 4990W        W47902  17.118  24.622   6.964  0.0939 -0.0368 -0.0537
 4991W        W47903  16.666  25.215   7.429 -0.0399 -0.0164 -0.3375
 4992W        W47904  15.350  24.754   3.378 -0.2967 -0.3647  0.1977
 4993W        W47905  15.439  24.584   7.036 -0.1595  0.2248 -0.2261
 4994W        W47906  14.173  24.994   7.805 -0.0817  0.3816  0.1592
 4995W        W47907  15.726  24.262   6.851  0.4503  0.0757  0.3313
 4996W        W47908  16.440  23.332   4.660 -0.0542 -0.4028 -0.1358
 4997W        W47909  16.150  24.213   4.333  0.0636 -0.0349  0.1742
 4998W        W47910  15.811  22.521   5.957  0.1874  0.1333  0.0081
 4999W        W47911  15.195  24.218   7.383  0.1268 -0.2394  0.3401
 5000W        W47912  14.501  24.982   5.266 -0.0974  0.1504 -0.1472
 5001W        W47913  17.935  20.761   7.500 -0.2605  0.2259 -0.0171
 5002W        W47914  16.185  24.611   5.172  0.1283  0.1733 -0.4606
 5003W        W47915  16.861  22.571   3.864  0.2846  0.4139  0.3295
 5004W        W47916  16.608  22.156   5.189  0.2985  0.0138  0.0901
 5005W        W47917  17.924  22.341   2.378 -0.2483 -0.1297  0.0101
 5006W        W47918  16.234  21.861   4.801 -0.1317  0.2094 -0.2657
 5007W        W47919  15.616  25.656   5.241 -0.2126 -0.1813 -0.2332
 5008W        W47920  15.638  22.417   5.307  0.3555  0.0028 -0.0588
 5009W        W47921  18.331  24.255   7.147 -0.0414  0.2981 -0.1609
 5010W        W47922  16.374  22.654   4.705 -0.2322  0.2587  0.3406
 5011W        W47923  15.417  22.180   5.735 -0.3649  0.1001 -0.0956
 5012W        W47924  13.580  23.257   6.224 -0.1407 -0.1019 -0.0840
 5013W        W47925  15.173  22.876   4.792 -0.4711  0.1183 -0.1219
 5014W        W47926  18.810  25.861   4.099 -0.1342  0.1148 -0.1968
 5015W        W47927  17.048  25.340   5.686 -0.2234  0.1348 -0.2836
 5016W        W47928  16.874  23.760   4.167 -0.1209  0.4758  0.4054
 5017W        W47929  14.794  22.987   4.052 -0.3378  0.2735  0.0231
 5018W        W47930  14.834  23.492   7.431 -0.0189 -0.1709  0.1532
 5019W        W47931  16.116  23.274   6.745 -0.1960 -0.0021  0.1967
 5020W        W47932  16.926  21.423   1.583 -0.0389  0.1803  0.1352
 5021W        W47933  18.385  23.808   6.971  0.1307  0.1029  0.1204
 5022W        W47934  14.277  23.771   7.322  0.1438  0.0522 -0.0260
 5023W        W47935  17.451  23.162   4.904  0.2247 -0.0340  0.2311
 5024W        W47936  16.213  25.255   6.419  0.1721 -0.1279 -0.3707
 5025W        W47937  18.743  23.477   7.239 -0.2146  0.1775 -0.0999
 5026W        W47938  17.268  24.294   4.939  0.0901  0.2014 -0.3308
 5027W        W47939  18.086  22.534   3.693 -0.1333 -0.2034 -0.0383
 5028W        W47940  16.634  21.683   6.266 -0.2062  0.1749  0.0856
 5029W        W47941  15.381  23.750   4.215 -0.1350 -0.1589  0.1093
 5030W        W47942  15.858  23.463   4.233 -0.1059 -0.1598 -0.6090
 5031W        W47943  18.473  23.804   6.008  0.2440  0.2372 -0.0996
 5032W        W47944  18.423  22.984   3.808 -0.3179  0.0773 -0.0543
 5033W        W47945  15.050  25.052   6.384  0.1447  0.0927 -0.1973
 5034W        W47946  15.227  22.128   7.111 -0.1495 -0.1415 -0.2771
 5035W        W47947  17.211  24.076   7.042  0.1040 -0.0838  0.3467
 5036W        W47948  13.927  25.570   5.938 -0.1372  0.3139  0.3570
 5037W        W47949  14.492  24.213   6.918 -0.0169 -0.2444 -0.5309
 5038W        W47950  15.220  23.570   3.541  0.0309 -0.2978 -0.0963
 5039W        W47951  14.924  22.531   6.865  0.0791 -0.1855 -0.1654
 5040W        W47952  16.177  23.717   5.533  0.1649  0.0662  0.2798
 5041W        W47953  18.281  22.681   4.305  0.1898 -0.1320 -0.0757
 5042W        W47954  14.505  22.324   6.683  0.3690 -0.0010 -0.1217
 5043W        W47955  17.206  22.244   3.665 -0.1089  0.1073  0.4482
 5044W        W47956  15.461  24.036   3.744  0.1592 -0.0305  0.0789
 5045W        W47957  17.615  26.491   6.256  0.0699  0.2345 -0.0679
 5046W        W47958  18.869  24.128   2.743 -0.0357  0.0859 -0.0972
 5047W        W47959  18.729  24.637   4.125  0.2703 -0.0755 -0.0863
 5048W        W47960  14.619  24.100   7.497  0.0019  0.0571 -0.0338
 5049W        W47961  13.715  23.004   4.372  0.0543  0.2005 -0.0528
 5050W        W47962  15.358  22.945   6.201 -0.2007 -0.0731 -0.0905
 5051W        W47963  15.354  23.145   5.751 -0.0268  0.0733  0.2368
 5052W        W47964  17.254  23.070   6.758 -0.0886 -0.0598 -0.0020
 5053W        W47965  15.220  22.375   3.607 -0.0368  0.2086  0.1509
 5054W        W47966  16.021  22.288   4.963  0.0074 -0.0680  0.0502
 5055W        W47967  15.582  22.211   4.412 -0.0893 -0.1117 -0.2480
 5056W        W47968  15.371  24.126   4.845 -0.0473  0.1172  0.2485
 5057W        W47969  17.426  22.004   6.741 -0.3135  0.1548 -0.5297
 5058W        W47970  16.683  25.220   3.832  0.0833  0.1881  0.2025
 5059W        W47971  19.199  25.622   6.732 -0.0467 -0.1605  0.0903
 5060W        W47972  18.364  25.242   6.154 -0.1334  0.0953  0.1635
 5061W        W47973  15.387  22.610   6.690 -0.1155 -0.0415  0.1920
 5062W        W47974  15.687  21.930   4.887  0.0112  0.4266  0.1416
 5063W        W47975  14.794  26.431   5.346 -0.2762 -0.0687 -0.2789
 5064W        W47976  14.268  25.869   6.338 -0.3506 -0.0339 -0.0457
 5065W        W47977  15.665  20.911   3.826 -0.0843  0.0807  0.1070
 5066W        W47978  17.428  26.157   4.996 -0.1063 -0.0946 -0.2400
 5067W        W47979  15.580  23.787   5.109  0.0881  0.3849  0.1416
 5068W        W47980  14.833  23.262   5.894  0.0094 -0.0006  0.0932
 5069W        W47981  17.618  22.880   8.648  0.1223 -0.1862 -0.1509
 5070W        W47982  17.258  23.737   5.743 -0.0780 -0.1758  0.5418
 5071W        W47983  17.805  22.871   4.590  0.0845 -0.2333  0.0631
 5072W        W47984  15.136  21.076   3.700 -0.3025 -0.0555 -0.4309
 5073W        W47985  16.394  26.239   4.577  0.0056  0.2710 -0.1396
 5074W        W47986  16.687  24.511   5.002  0.0646 -0.0097 -0.1649
 5075W        W47987  14.991  23.778   6.499  0.1260 -0.0378  0.0342
 5076W        W47988  15.875  25.491   4.848  0.1577  0.2504 -0.2108
 5077W        W47989  17.892  23.399   4.791 -0.2336  0.0284  0.1471
 5078W        W47990  13.907  23.487   6.984 -0.0407 -0.2887  0.0658
 5079W        W47991  17.019  22.684   6.425  0.0405  0.1328 -0.3676
 5080W        W47992  16.177  22.428   2.777  0.3559 -0.2505 -0.2206
 5081W        W47993  14.944  25.341   6.934  0.1558  0.0167 -0.1317
 5082W        W47994  16.728  21.016   4.487  0.1085 -0.0942 -0.0971
 5083W        W47995  18.778  23.020   3.485  0.1487 -0.2256 -0.1246
 5084W        W47996  16.735  23.348   6.602 -0.0059  0.1341  0.3299
 5085W        W47997  17.521  24.643   5.280  0.0434 -0.0062 -0.0831
 5086W        W47998  17.197  23.124   4.067 -0.4034 -0.1542 -0.2041
 5087W        W47999  16.838  22.101   4.027  0.3060 -0.3424  0.0761
 5088W        W48000  14.983  23.780   7.820  0.1239 -0.4754  0.1952
 5089W        W48001  16.270  24.975   5.529 -0.1491  0.0189 -0.0943
 5090W        W48002  16.006  23.904   6.032  0.0309 -0.0400 -0.1615
 5091W        W48003  16.194  22.195   1.423 -0.1326 -0.0000 -0.2908
 5092W        W48004  18.723  23.780   3.612 -0.1130  0.1406  0.3555
 5093W        W48005  14.031  24.857   5.975  0.2837  0.2016 -0.0792
 5094W        W48006  17.868  23.906   6.933  0.0632  0.2244 -0.1551
 5095W        W48007  16.624  25.559   5.480  0.2162 -0.1149 -0.2501
 5096W        W48008  16.656  21.666   4.944 -0.0898  0.0363  0.0166
 5097W        W48009  16.056  22.651   3.748 -0.0075 -0.1221 -0.0546
 5098W        W48010  17.235  21.046   4.353  0.0732  0.1763 -0.2317
 5099W        W48011  15.073  23.822   3.127 -0.0617  0.2174 -0.2629
 5100W        W48012  16.462  22.890   6.002  0.1951  0.0697 -0.2661
 5101W        W48013  17.067  22.345   4.474 -0.0605  0.2784  0.1423
 5102W        W48014  15.695  22.079   6.217  0.0477  0.0059  0.0624
 5103W        W48015  16.608  22.417   5.836 -0.2760  0.0665  0.0925
 5104W        W48016  16.975  22.965   3.638  0.0156 -0.1001  0.2712
 5105W        W48017  16.317  24.858   6.011 -0.2561  0.2410 -0.0317
 5106W        W48018  16.187  22.526   2.217 -0.0536 -0.3109  0.2060
 5107W        W48019  16.475  23.715   7.523 -0.1039  0.2250 -0.0001
 5108W        W48020  14.224  22.776   6.518  0.2083 -0.5081  0.0920
 5109W        W48021  15.221  25.447   6.549 -0.1421 -0.0863 -0.1699
 5110W        W48022  17.307  24.083   6.115  0.1409  0.1533  0.1137
 5111W        W48023  16.708  23.259   5.545  0.0126  0.1101 -0.1709
 5112W        W48024  17.243  21.417   7.449  0.0786 -0.1298  0.0187
 5113W        W48025  17.456  22.363   5.312  0.3859  0.3499 -0.2170
 5114W        W48026  16.334  23.221   3.123 -0.0574 -0.0123  0.2419
 5115W        W48027  14.914  24.197   5.479  0.1768  0.2114 -0.0219
 5116W        W48028  15.384  19.671   4.496 -0.1337 -0.2307 -0.0389
 5117W        W48029  16.408  24.151   5.414  0.1286  0.0457  0.3053
 5118W        W48030  15.807  22.747   3.014 -0.0824 -0.0717 -0.0037
 5119W        W48031  17.271  23.365   5.396 -0.0956  0.0210 -0.2262
 5120W        W48032  17.116  25.549   3.668 -0.1807  0.0067  0.1444
 5121W        W48033  17.234  21.477   5.731  0.0246 -0.1943 -0.0614
 5122W        W48034  14.928  25.328   4.413  0.1901 -0.3780 -0.2434
 5123W        W48035  14.542  23.493   4.390  0.2854  0.1019 -0.0028
 5124W        W48036  15.263  24.357   4.402 -0.1197  0.2720  0.4902
 5125W        W48037  18.375  21.952   3.722 -0.1625 -0.1999 -0.0972
 5126W        W48038  18.378  24.730   3.662  0.0002 -0.0984  0.0692
 5127W        W48039  15.329  23.450   5.366  0.0318 -0.1348  0.0435
 5128W        W48040  16.944  22.431   5.425  0.2579  0.1066 -0.1738
 5129W        W48041  14.149  26.011   6.890 -0.0997  0.2688 -0.2313
 5130W        W48042  17.373  22.574   6.812  0.0353  0.2937  0.3412
 5131W        W48043  17.406  21.788   3.727  0.3469 -0.0115 -0.0653
 5132W        W48044  17.881  25.133   6.190 -0.0413  0.0883 -0.1956
 5133W        W48045  16.490  24.642   7.283  0.1550  0.1538 -0.1990
 5134W        W48046  14.063  22.826   4.683  0.2735  0.0758 -0.1148
 5135W        W48047  17.276  21.495   7.927 -0.0508 -0.0359  0.1877
 5136W        W48048  15.793  23.526   6.215 -0.1117 -0.0469 -0.1970
 5137W        W48049  14.724  25.920   6.267  0.0664 -0.1140 -0.1308
 5138W        W48050  16.484  25.933   5.927 -0.0051  0.0943  0.1359
 5139W        W48051  16.219  23.096   4.218  0.1851 -0.0113  0.3703
 5140W        W48052  16.233  24.356   5.883  0.1419 -0.0945 -0.1100
 5141W        W48053  14.969  22.447   7.328  0.2663 -0.2947  0.0209
 5142W        W48054  17.325  24.364   6.533  0.1018 -0.3255 -0.0354
 5143W        W48055  15.094  22.075   4.542  0.1552 -0.0475 -0.0632
 5144W        W48056  14.900  22.985   5.446  0.2878 -0.1777 -0.2040
 5145W        W48057  16.946  22.510   4.920  0.1491  0.0362 -0.0396
 5146W        W48058  16.644  23.386   6.094  0.0063 -0.3174 -0.2958
 5147W        W48059  17.594  22.663   5.907  0.2851 -0.1679 -0.2230
 5148W        W48060  14.945  23.866   8.352 -0.0765 -0.1877  0.1024
 5149W        W48061  17.103  21.945   5.607  0.0577  0.2778  0.0808
 5150W        W48062  18.946  24.993   4.387 -0.2418  0.1081 -0.0487
 5151W        W48063  16.288  23.645   6.348 -0.1904  0.1178 -0.1720
 5152W        W48064  15.526  23.545   4.669  0.0137  0.3078 -0.2450
 5153W        W48065  14.103  24.591   6.904  0.0014 -0.2326 -0.3361
 5154W        W48066  16.134  23.304   5.188  0.1229 -0.0487 -0.0914
 5155W        W48067  16.339  21.757   5.340  0.1412  0.3198 -0.2369
 5156W        W48068  14.098  24.832   6.457  0.2008 -0.2176  0.1344
 5157W        W48069  16.688  23.212   3.967  0.2678 -0.1819 -0.2865
 5158W        W48070  14.929  23.178   6.397  0.0671  0.3180 -0.1382
 5159W        W48071  17.882  21.849   3.473  0.1111 -0.3215 -0.0152
 5160W        W48072  17.331  22.569   4.038  0.2806  0.4129  0.0336
 5161W        W48073  15.743  22.874   5.544 -0.0664  0.1091 -0.0264
 5162W        W48074  18.342  22.538   5.305  0.0870 -0.1506 -0.1787
 5163W        W48075  16.577  24.108   4.104  0.1505  0.0336  0.0968
 5164W        W48076  17.074  21.774   7.094 -0.2034 -0.1262 -0.3156
 5165W        W48077  15.877  22.998   5.998 -0.3609  0.0892 -0.2511
 5166W        W48078  18.389  24.341   5.832  0.0029  0.2783  0.2612
 5167W        W48079  13.477  22.157   6.728  0.3270  0.0067 -0.1335
 5168W        W48080  17.596  24.421   8.634 -0.0285  0.0736  0.1281
 5169W        W48081  15.703  24.106   7.376 -0.0153 -0.2339  0.0091
 5170W        W48082  16.931  22.976   4.760 -0.0114 -0.1577  0.0368
 5171W        W48083  15.316  20.496   3.892  0.2174 -0.1155  0.3882
 5172W        W48084  15.670  23.979   6.399 -0.0470 -0.2674  0.1646
 5173W        W48085  17.171  24.748   5.639  0.0160 -0.2271 -0.3743
 5174W        W48086  16.686  24.411   4.488  0.0088  0.1760  0.3771
 5175W        W48087  17.689  23.977   5.268  0.2708  0.1685 -0.1081
 5176W        W48088  14.985  23.995   6.977  0.1327 -0.1038 -0.1186
 5177W        W48089  16.731  23.733   5.494 -0.0393  0.2605 -0.1908
 5178W        W48090  16.531  23.595   5.078 -0.2252  0.1371  0.1414
 5179W        W48091  14.841  23.504   5.428 -0.0797  0.0063 -0.0381
 5180W        W48092  15.842  21.446   7.040 -0.1652  0.0320 -0.4467
 5181W        W48093  17.418  25.487   6.020  0.1151 -0.0758  0.0999
 5182W        W48094  17.732  21.897   5.136 -0.0635  0.1449  0.2467
 5183W        W48095  16.008  22.245   6.566 -0.0325  0.1144 -0.6484
 5184W        W48096  16.235  22.451   6.183 -0.2474 -0.0331 -0.0366
 5185W        W48097  17.153  23.243   6.216  0.1943 -0.1368  0.0397
 5186W        W48098  13.672  22.076   8.100  0.0795 -0.1130 -0.0937
 5187W        W48099  15.439  25.188   6.162  0.0808 -0.1301 -0.2005
 5188W        W48100  17.565  22.600   3.555  0.0284  0.2249  0.1858
 5189W        W48101  17.225  22.372   5.840  0.0670  0.2326  0.0831
 5190W        W48102  17.570  24.190   3.435  0.4317  0.0655 -0.3052
 5191W        W48103  16.971  23.356   4.497 -0.1416  0.0537  0.0607
 5192W        W48104  14.771  22.666   5.013 -0.0080  0.0048 -0.0571
 5193W        W48105  16.930  23.338   7.357 -0.1216  0.0943 -0.2670
 5194W        W48106  15.672  22.416   3.964 -0.0255 -0.2468 -0.0589
 5195W        W48107  17.010  22.245   6.974 -0.1580  0.4869 -0.3880
 5196W        W48108  16.320  25.712   4.288  0.1167 -0.2122  0.1919
 5197W        W48109  16.985  23.704   6.186 -0.0267  0.1004  0.1659
 5198W        W48110  17.426  23.686   4.918  0.0689  0.0405 -0.2311
 5199W        W48111  13.812  23.157   5.668  0.0996 -0.0218 -0.1772
 5200W        W48112  16.207  25.714   6.662  0.2054 -0.1003  0.0937
 5201W        W48113  16.060  22.218   4.498 -0.0430  0.2391  0.2668
 5202W        W48114  17.016  23.574   3.100 -0.1833  0.0810  0.1228
 5203W        W48115  17.551  24.752   7.767 -0.0682  0.0801  0.1702
 5204W        W48116  18.446  23.505   5.600 -0.1303  0.1285  0.3454
 5205W        W48117  15.986  23.080   3.464 -0.3878  0.0608 -0.0406
 5206W        W48118  16.902  22.099   6.149  0.0184 -0.3111 -0.3634
 5207W        W48119  15.426  24.618   5.046  0.2248  0.3486 -0.2193
 5208W        W48120  17.418  22.087   4.819  0.0906 -0.0665  0.1545
 5209W        W48121  14.184  26.433   7.237 -0.1548 -0.0252 -0.2790
 5210W        W48122  12.778  25.066   6.182  0.1028  0.5213 -0.0748
 5211W        W48123  15.736  25.252   6.618  0.2132  0.1167  0.0602
 5212W        W48124  15.235  22.347   4.956 -0.0061 -0.0597  0.0802
 5213W        W48125  16.740  24.985   5.413  0.3909  0.3017 -0.4874
 5214W        W48126  17.181  23.874   5.288  0.1689  0.0930 -0.1423
 5215W        W48127  17.941  23.021   6.091 -0.0389 -0.2648  0.2004
 5216W        W48128  16.565  22.879   6.550  0.2008 -0.2392  0.1142
 5217W        W48129  15.401  24.235   5.343  0.1467  0.2917  0.3153
 5218W        W48130  15.565  25.850   6.602  0.1094 -0.1076  0.5265
 5219W        W48131  17.610  25.128   5.671  0.1125 -0.1431  0.2099
 5220W        W48132  14.319  24.494   6.034 -0.0057 -0.0705  0.0461
 5221W        W48133  14.190  21.546   8.263  0.0929 -0.2923  0.0658
 5222W        W48134  15.456  22.827   8.028  0.2960 -0.1590 -0.0979
 5223W        W48135  17.506  24.180   5.667  0.4408  0.1979  0.2771
 5224W        W48136  15.988  21.690   4.459 -0.1427 -0.2643 -0.0724
 5225W        W48137  15.719  24.036   4.502  0.2063 -0.1454  0.0764
 5226W        W48138  14.176  23.371   7.620 -0.1807  0.1738 -0.0270
 5227W        W48139  13.674  24.311   6.885 -0.3139 -0.0562 -0.1785
 5228W        W48140  15.602  25.192   4.424 -0.1936  0.0716 -0.1942
 5229W        W48141  16.975  24.182   3.226  0.0496 -0.0980 -0.1497
 5230W        W48142  17.080  24.235   4.224 -0.1222 -0.0387  0.1802
 5231W        W48143  16.599  24.415   6.229  0.1824  0.1928 -0.1226
 5232W        W48144  17.069  22.051   5.143 -0.1397 -0.0793 -0.1974
 5233W        W48145  14.412  24.754   4.728 -0.2370  0.0258  0.0793
 5234W        W48146  13.916  24.187   3.617 -0.3114 -0.0835 -0.1380
 5235W        W48147  17.514  24.448   4.405 -0.0393  0.1081  0.0557
 5236W        W48148  16.159  25.598   5.247  0.1012 -0.0030  0.0182
 5237W        W48149  18.204  23.040   7.839  0.0242 -0.1375  0.1011
 5238W        W48150  18.148  22.542   2.838 -0.0936 -0.1349  0.2320
 5239W        W48151  16.910  24.091   5.730 -0.0467 -0.2170 -0.0756
 5240W        W48152  18.077  24.190   4.450 -0.1735  0.0228 -0.0792
 5241W        W48153  17.497  25.988   7.417  0.0822  0.1395 -0.1332
 5242W        W48154  16.020  23.678   4.648 -0.1232  0.1013  0.0878
 5243W        W48155  16.435  21.864   3.109 -0.2050  0.0461 -0.2552
 5244W        W48156  16.060  22.986   7.953 -0.1690 -0.0161  0.0296
 5245W        W48157  18.179  21.993   6.317  0.0350  0.0461 -0.2964
 5246W        W48158  14.489  24.490   6.477  0.1679  0.0089 -0.1388
 5247W        W48159  17.024  24.844   3.816  0.1132  0.3230  0.0614
 5248W        W48160  14.456  24.371   5.506 -0.4938  0.1297 -0.1869
 5249W        W48161  16.130  22.451   5.390 -0.0972 -0.0308 -0.2460
 5250W        W48162  18.908  22.596   5.345  0.0435  0.1270 -0.3302
 5251W        W48163  15.733  24.072   3.305  0.0928 -0.1014 -0.1635
 5252W        W48164  15.542  22.090   6.695  0.0944  0.2034 -0.2140
 5253W        W48165  15.282  24.804   4.621 -0.1833  0.1482  0.0254
 5254W        W48166  15.257  24.106   6.101 -0.1086 -0.1770  0.0242
 5255W        W48167  15.842  24.863   6.182 -0.0270 -0.2148 -0.5771
 5256W        W48168  14.342  22.818   4.227 -0.0453 -0.0836 -0.0647
 5257W        W48169  16.979  23.451   4.996  0.1576  0.2206 -0.1997
 5258W        W48170  15.147  23.294   7.752 -0.1370  0.0819  0.1865
 5259W        W48171  17.757  21.772   6.360 -0.0469 -0.0553  0.1273
 5260W        W48172  15.220  23.475   6.106 -0.0112  0.0582 -0.0955
 5261W        W48173  17.029  22.939   5.266  0.1391 -0.2682 -0.0785
 5262W        W48174  16.552  23.063   5.066  0.0778 -0.2821  0.0433
 5263W        W48175  15.221  23.039   6.768  0.4562 -0.3209 -0.0669
 5264W        W48176  17.354  22.033   4.250 -0.0902 -0.2764  0.1310
 5265W        W48177  18.051  23.392   7.090 -0.3385  0.0681 -0.2741
 5266W        W48178  16.015  22.890   5.055 -0.0151 -0.0114  0.0977
 5267W        W48179  17.014  24.496   6.034  0.1553 -0.0770  0.0147
 5268W        W48180  15.288  22.388   6.161  0.1593 -0.3727 -0.0623
 5269W        W48181  15.833  22.716   4.344 -0.3916 -0.0113  0.3035
 5270W        W48182  15.309  24.488   5.780  0.2098  0.1483  0.1353
 5271W        W48183  15.473  23.502   6.611 -0.1173 -0.1234 -0.1655
 5272W        W48184  18.481  25.030   6.991  0.3816  0.4033  0.1509
 5273W        W48185  15.336  22.654   5.730  0.2164 -0.0953 -0.2069
 5274W        W48186  16.189  23.482   2.708 -0.1863  0.1178 -0.3172
 5275W        W48187  16.508  23.916   5.932 -0.0787  0.3687  0.0132
 5276W        W48188  16.080  25.227   4.410 -0.0751 -0.1071 -0.2802
 5277W        W48189  17.921  24.843   5.005 -0.2321 -0.1083 -0.1660
 5278W        W48190  17.063  24.907   6.527  0.0713  0.0759 -0.0871
 5279W        W48191  14.160  22.748   5.357  0.2243  0.0231 -0.0067
 5280W        W48192  16.601  24.544   5.650  0.0657  0.1734 -0.0273
 5281W        W48193  17.327  24.959   6.055  0.3028  0.2928 -0.4531
 5282W        W48194  16.878  21.669   4.461  0.0058  0.1060 -0.1058
 5283W        W48195  15.598  24.876   5.786  0.2471  0.0725  0.1402
 5284W        W48196  14.837  24.334   4.584  0.0289 -0.1039  0.1300
 5285W        W48197  17.587  23.264   5.796 -0.3552  0.1511 -0.2694
 5286W        W48198  16.823  21.306   7.761  0.2358  0.0297  0.5752
 5287W        W48199  16.294  24.649   4.502  0.2913 -0.1714  0.1264
 5288W        W48200  18.585  21.743   7.488  0.0242  0.0903  0.3382
 5289W        W48201  15.496  24.583   7.513  0.0845  0.1115 -0.2179
 5290W        W48202  16.253  23.329   3.776 -0.2511 -0.2013 -0.0949
 5291W        W48203  16.217  23.403   5.941 -0.2446  0.2570  0.2729
 5292W        W48204  15.905  25.246   5.870  0.0495  0.5450  0.4214
 5293W        W48205  16.420  26.069   3.956  0.0437 -0.2200  0.3743
 5294W        W48206  16.576  25.657   3.703 -0.0117 -0.0490 -0.0191
 5295W        W48207  15.644  22.555   4.823 -0.0362 -0.1507 -0.3220
 5296W        W48208  17.533  24.925   4.223  0.0516  0.0135 -0.1569
 5297W        W48209  14.253  22.509   3.779  0.2233  0.4053  0.3574
 5298W        W48210  18.204  22.660   4.844  0.4891 -0.0267  0.1757
 5299W        W48211  18.027  20.725   5.643 -0.1012 -0.0035  0.2061
 5300W        W48212  14.942  24.590   6.667 -0.1070 -0.0809  0.0917
 5301W        W48213  14.643  23.685   2.901  0.4193 -0.0014 -0.0518
 5302W        W48214  15.787  24.983   4.847  0.1870  0.2606 -0.0877
 5303W        W48215  14.886  24.603   6.160  0.1145 -0.2483  0.2089
 5304W        W48216  14.792  20.488   7.174 -0.4039  0.1676 -0.2074
 5305W        W48217  15.763  23.471   7.213 -0.0375 -0.0436  0.0904
 5306W        W48218  13.631  25.125   5.012 -0.1033  0.0425 -0.1102
 5307W        W48219  14.724  22.124   4.947 -0.1718 -0.1455 -0.4337
 5308W        W48220  17.063  24.815   5.069  0.0709  0.2357 -0.0670
 5309W        W48221  16.432  21.277   5.202 -0.0202 -0.0405 -0.1298
 5310W        W48222  13.449  23.379   5.324 -0.1025  0.2178 -0.0730
 5311W        W48223  16.799  25.396   4.975  0.3191  0.1200 -0.0317
 5312W        W48224  16.668  24.865   4.701 -0.1260  0.1668 -0.0555
 5313W        W48225  16.464  21.314   4.139  0.3597 -0.1240  0.0404
 5314W        W48226  17.583  23.909   7.395 -0.1780 -0.3463  0.0672
 5315W        W48227  14.784  24.810   4.436  0.1788  0.0928  0.0945
 5316W        W48228  16.100  24.924   8.066  0.3888  0.2010  0.1434
 5317W        W48229  15.903  21.780   6.625 -0.1423 -0.0818 -0.3605
 5318W        W48230  15.191  22.799   3.829  0.0229  0.0644  0.1416
 5319W        W48231  15.876  21.925   5.388 -0.0129  0.1551 -0.1542
 5320W        W48232  16.073  23.889   5.094  0.1546 -0.0187  0.0322
 5321W        W48233  17.194  24.705   3.280  0.1753  0.2202 -0.1623
 5322W        W48234  16.886  22.859   7.497 -0.1302 -0.0110  0.0523
 5323W        W48235  16.234  24.705   6.504  0.1244  0.1055  0.0775
 5324W        W48236  14.046  21.626   7.725  0.2985 -0.1138 -0.0013
 5325W        W48237  16.664  23.475   3.467 -0.0032  0.2469  0.2036
 5326W        W48238  15.932  23.822   6.800  0.1106  0.0965 -0.0122
 5327W        W48239  17.982  24.313   5.544 -0.0733  0.2593  0.0357
 5328W        W48240  16.579  22.767   5.476  0.1878  0.2745  0.1596
 5329W        W48241  17.065  24.389   5.384  0.0853 -0.1373 -0.2319
 5330W        W48242  13.842  21.875   6.553  0.2161  0.0744 -0.3402
 5331W        W48243  14.535  25.089   7.222  0.0021 -0.0746 -0.3921
 5332W        W48244  18.064  24.680   6.064  0.3486 -0.0216  0.2801
 5333W        W48245  14.783  22.706   6.444 -0.3650  0.0848  0.2756
 5334W        W48246  16.815  22.814   4.305 -0.3272 -0.1766 -0.3668
 5335W        W48247  16.589  23.782   4.642 -0.0392  0.1047  0.2329
 5336W        W48248  14.529  23.926   6.407 -0.1965  0.1306  0.0059
 5337W        W48249  16.734  22.713   2.862 -0.0433  0.1310  0.1475
 5338W        W48250  15.304  24.206   6.610  0.0487 -0.1623  0.2518
 5339W        W48251  16.519  25.356   5.962  0.2356  0.1681  0.1607
 5340W        W48252  17.455  22.359   6.315 -0.0101  0.1378  0.1207
 5341W        W48253  14.979  23.822   4.595 -0.2050  0.1812  0.0784
 5342W        W48254  17.566  23.687   3.232 -0.1562  0.1119 -0.0256
 5343W        W48255  16.950  24.538   7.994 -0.0001  0.5501 -0.4722
 5344W        W48256  18.235  22.507   8.191  0.0806 -0.0565 -0.1977
 5345W        W48257  17.030  25.814   5.795 -0.3643 -0.1514 -0.1285
 5346W        W48258  15.881  24.392   6.261  0.1252 -0.0250  0.1251
 5347W        W48259  14.050  22.191   6.959  0.1863  0.0918  0.0777
 5348W        W48260  16.197  23.032   5.605  0.2268 -0.1852 -0.1429
 5349W        W48261  16.303  23.632   4.185  0.0824 -0.2114  0.0758
 5350W        W48262  17.450  22.888   5.503 -0.0010 -0.3514  0.1171
 5351W        W48263  15.059  22.433   5.404 -0.1262  0.3742  0.3441
 5352W        W48264  17.427  21.529   4.417 -0.2275 -0.2731 -0.0349
 5353W        W48265  14.869  25.200   7.632 -0.2430  0.1342  0.1863
 5354W        W48266  15.776  24.643   5.422  0.1659 -0.2536 -0.1049
 5355W        W48267  14.515  23.102   9.810 -0.0870  0.2374  0.0998
 5356W        W48268  15.874  21.952   7.810  0.2768  0.2571  0.0862
 5357W        W48269  17.073  21.669   8.322 -0.1228 -0.0333  0.1060
 5358W        W48270  18.531  23.434   8.185  0.0743  0.0602 -0.1132
 5359W        W48271  15.992  22.651   8.334  0.3300 -0.3793 -0.1826
 5360W        W48272  19.831  23.532   7.089 -0.3015 -0.2895 -0.0657
 5361W        W48273  17.284  24.165   8.327 -0.2937  0.0832  0.0150
 5362W        W48274  17.958  27.436  12.382  0.0108 -0.0216  0.3468
 5363W        W48275  17.592  23.318   6.455 -0.2233 -0.3334 -0.1263
 5364W        W48276  15.987  21.122   9.007  0.0085  0.1750  0.1273
 5365W        W48277  15.944  20.641   9.241  0.1253  0.1157 -0.0371
 5366W        W48278  12.297  23.255   9.361  0.0963  0.2989  0.1956
 5367W        W48279  17.822  22.890   9.148 -0.0574  0.2931 -0.0986
 5368W        W48280  13.318  22.581   9.495  0.3286 -0.2031 -0.0243
 5369W        W48281  14.241  24.286   9.872  0.1805 -0.1577 -0.1180
 5370W        W48282  15.212  22.333   7.927 -0.0285  0.1293  0.0191
 5371W        W48283  16.381  24.710   9.234  0.0343 -0.0544 -0.2075
 5372W        W48284  14.870  21.581   9.166  0.1675  0.1776  0.2947
 5373W        W48285  16.971  24.689   7.450  0.0644 -0.0160 -0.0243
 5374W        W48286  14.775  22.264   8.175  0.0758  0.2099  0.0726
 5375W        W48287  14.200  23.570   9.131  0.0892 -0.0390 -0.1267
 5376W        W48288  15.793  22.668   8.999 -0.0298  0.0314 -0.0532
 5377W        W48289  16.857  23.153   8.317 -0.2730  0.0136  0.0829
 5378W        W48290  15.248  21.683   8.857 -0.0201 -0.0320  0.2041
 5379W        W48291  16.954  24.451   9.376 -0.0094 -0.2811  0.0867
 5380W        W48292  16.958  25.462   9.241  0.2023 -0.0406  0.1808
 5381W        W48293  15.524  23.264   8.828  0.2210  0.0919  0.1527
 5382W        W48294  14.984  23.392   8.670 -0.0050 -0.0925  0.1068
 5383W        W48295  17.389  24.651   8.234  0.0426  0.1534  0.0068
 5384W        W48296  17.662  22.705   9.885 -0.0225 -0.2662  0.0643
 5385W        W48297  14.854  24.736   9.079 -0.1948  0.0554  0.1422
 5386W        W48298  16.940  21.615   9.630 -0.2052 -0.0946  0.1572
 5387W        W48299  18.528  22.281   9.404 -0.1313 -0.1767  0.1736
 5388W        W48300  15.687  25.062   7.096 -0.3242 -0.0134 -0.1751
 5389W        W48301  16.379  22.981   8.307  0.0141  0.0037 -0.0615
 5390W        W48302  14.748  23.713   9.049  0.3378  0.0834 -0.0425
 5391W        W48303  16.663  24.102   7.073 -0.2692  0.0340 -0.1115
 5392W        W48304  16.926  22.049   8.774 -0.2229  0.2444  0.3935
 5393W        W48305  15.411  21.826   7.581  0.3198  0.1214  0.3086
 5394W        W48306  17.930  22.049   8.004 -0.1987  0.1600  0.0945
 5395W        W48307  14.583  23.463   9.449  0.2543 -0.1539 -0.0247
 5396W        W48308  15.692  24.563  10.097 -0.1549 -0.0232  0.0570
 5397W        W48309  13.434  21.725   9.296  0.1695  0.2206  0.2622
 5398W        W48310  17.154  22.415   7.903  0.1449  0.1877 -0.0801
 5399W        W48311  17.349  23.021   9.334  0.0329 -0.1311  0.0507
 5400W        W48312  13.054  22.061   8.640 -0.3142  0.2909  0.1409
 5401W        W48313  15.629  24.279   9.650  0.1403  0.2354  0.1608
 5402W        W48314  17.025  25.512   7.171  0.0757  0.0669  0.1806
 5403W        W48315  17.770  25.254   7.723  0.1852  0.1232  0.0842
 5404W        W48316  16.183  24.373   6.909  0.0888 -0.0954  0.1580
 5405W        W48317  16.202  22.921   9.172 -0.3008  0.1083  0.1286
 5406W        W48318  16.637  22.324   6.570 -0.1777 -0.1091  0.2619
 5407W        W48319  17.373  22.428   8.561  0.2587  0.3454 -0.2598
 5408W        W48320  17.042  22.644   9.448 -0.0354 -0.3854  0.0341
 5409W        W48321  17.637  25.733   9.274 -0.3303  0.1947  0.0018
 5410W        W48322  16.872  22.769   7.007  0.0184 -0.0375 -0.0004
 5411W        W48323  16.691  20.945   8.445 -0.2289 -0.1310  0.1293
 5412W        W48324  17.756  21.517   9.052  0.3208 -0.0805  0.1415
 5413W        W48325  14.802  24.397   8.274  0.0972 -0.0174 -0.2133
 5414W        W48326  16.353  23.950   8.982  0.2126  0.1064  0.2283
 5415W        W48327  18.745  23.360   9.071 -0.0758  0.1139  0.3191
 5416W        W48328  17.398  23.447   7.506 -0.0128 -0.4043 -0.2205
 5417W        W48329  15.326  24.632   9.328 -0.3529 -0.0334  0.0550
 5418W        W48330  15.166  24.278   7.851 -0.1034  0.1173  0.3680
 5419W        W48331  13.742  23.787   9.188 -0.1965  0.3903  0.1236
 5420W        W48332  14.134  22.841   7.592  0.1655 -0.0830 -0.1080
 5421W        W48333  16.026  23.048   8.727  0.1360 -0.0366 -0.0214
 5422W        W48334  15.320  24.029   9.329 -0.1439  0.1862 -0.1223
 5423W        W48335  17.742  22.473   9.437 -0.1030  0.3704 -0.0685
 5424W        W48336  16.505  21.197   8.869 -0.0602  0.0667 -0.0407
 5425W        W48337  16.479  23.179   7.810 -0.0703  0.2178  0.0060
 5426W        W48338  18.607  23.966   7.972  0.1362 -0.1724  0.0366
 5427W        W48339  17.640  22.245   7.641  0.2268 -0.1398  0.0486
 5428W        W48340  17.219  25.120   7.455  0.0517  0.1588  0.1400
 5429W        W48341  13.143  26.255   9.380  0.2795 -0.0742 -0.1400
 5430W        W48342  14.679  22.816   8.147 -0.0933  0.2312 -0.1979
 5431W        W48343  13.092  20.242   8.550  0.0074 -0.1411  0.2225
 5432W        W48344  15.859  21.488   7.539 -0.0671 -0.0836 -0.1996
 5433W        W48345  17.101  23.673   8.408  0.0661 -0.1250  0.2845
 5434W        W48346  15.599  23.595   9.579 -0.0220 -0.0481  0.1657
 5435W        W48347  14.623  23.331   8.242  0.1652 -0.2079  0.1637
 5436W        W48348  16.443  25.747   9.218  0.2047 -0.2901 -0.0775
 5437W        W48349  17.876  23.980  10.109  0.1774  0.2617 -0.0393
 5438W        W48350  17.469  23.725   9.798  0.2110  0.1869 -0.2213
 5439W        W48351  15.292  20.578   9.345 -0.0642 -0.0912  0.2220
 5440W        W48352  13.530  21.978   8.711 -0.0273 -0.1719 -0.0680
 5441W        W48353  14.906  25.557   9.437  0.0048  0.0436  0.0052
 5442W        W48354  15.609  23.718   9.090  0.2861  0.0832 -0.1581
 5443W        W48355  16.098  20.235   9.736  0.3003 -0.3915 -0.1332
 5444W        W48356  19.024  24.172   9.034 -0.0305 -0.1590  0.0321
 5445W        W48357  16.662  24.278   7.626  0.0892 -0.0395  0.2181
 5446W        W48358  18.891  21.376   9.839  0.0447  0.0417 -0.3294
 5447W        W48359  17.530  23.966   7.873 -0.2038  0.2883 -0.3172
 5448W        W48360  16.094  22.852   7.277  0.0666  0.1296  0.2316
 5449W        W48361  16.880  24.967   8.347 -0.2091 -0.4022  0.4432
 5450W        W48362  14.983  25.295   8.137  0.0806  0.1171 -0.1566
 5451W        W48363  14.690  24.164   8.668  0.1431  0.0719 -0.3447
 5452W        W48364  16.091  24.445   8.905  0.0047 -0.1835 -0.0686
 5453W        W48365  15.900  22.464   7.847 -0.0041  0.2180 -0.0647
 5454W        W48366  15.747  22.429   6.980  0.2587 -0.0893 -0.0282
 5455W        W48367  16.175  20.410   7.472  0.2334  0.3477 -0.2393
 5456W        W48368  17.392  21.768   8.759  0.1307  0.3898  0.2312
 5457W        W48369  17.876  23.529   7.678  0.0405  0.0585 -0.0110
 5458W        W48370  17.071  23.843   7.432  0.1221 -0.3305 -0.0954
 5459W        W48371  16.051  22.360   7.382  0.2053  0.2944 -0.0888
 5460W        W48372  17.245  25.092   7.951  0.1842  0.0742 -0.2006
 5461W        W48373  16.633  25.135   9.251  0.2672  0.0610  0.1646
 5462W        W48374  15.994  23.830   7.720  0.0655 -0.0149  0.2433
 5463W        W48375  19.293  23.313   8.527  0.4461 -0.0214  0.1044
 5464W        W48376  17.327  25.295  10.104 -0.0238 -0.1826  0.1511
 5465W        W48377  18.219  22.208   9.757  0.1769 -0.0231  0.0458
 5466W        W48378  14.418  24.029   9.334 -0.0227  0.3291 -0.1088
 5467W        W48379  15.551  22.848   8.549 -0.0331 -0.1122  0.0559
 5468W        W48380  13.668  24.128  10.723 -0.2086  0.2637 -0.2718
 5469W        W48381  13.975  24.572   7.714  0.1662 -0.1139  0.2324
 5470W        W48382  18.329  21.713   9.707 -0.1934 -0.0248  0.2367
 5471W        W48383  18.330  21.537   9.113  0.1535 -0.3732  0.1321
 5472W        W48384  16.208  21.028   8.272  0.1693 -0.0137  0.1680
 5473W        W48385  16.569  21.386   9.301  0.2404 -0.1088  0.2437
 5474W        W48386  14.328  22.430   7.962  0.0144  0.0944  0.2732
 5475W        W48387  16.862  23.909   8.833 -0.2849  0.2990 -0.0351
 5476W        W48388  14.184  24.788  10.531 -0.4562  0.0869 -0.0146
 5477W        W48389  18.206  25.248   8.323 -0.0984 -0.0855  0.0880
 5478W        W48390  16.514  23.181   7.086  0.3054  0.0604 -0.3310
 5479W        W48391  16.261  24.423   7.909  0.2729  0.1018  0.0368
 5480W        W48392  15.435  25.474   9.344 -0.1477 -0.2600  0.0570
 5481W        W48393  15.948  22.281   9.603 -0.0486 -0.1035 -0.1675
 5482W        W48394  14.970  25.025   9.502 -0.1745 -0.1008 -0.0714
 5483W        W48395  16.724  24.985   7.878  0.0173 -0.0025 -0.3288
 5484W        W48396  15.256  24.798   9.898 -0.1775 -0.2366  0.0766
 5485W        W48397  14.101  24.632   9.412  0.1026 -0.0670 -0.2709
 5486W        W48398  17.173  20.551   9.530  0.3329  0.0105 -0.1850
 5487W        W48399  14.218  25.621   8.825 -0.1715 -0.1395 -0.1326
 5488W        W48400  15.542  22.330   7.523 -0.5653  0.0321  0.3091
 5489W        W48401  13.718  22.946   8.429 -0.3183  0.0966 -0.2050
 5490W        W48402  16.073  21.431   8.542 -0.1155  0.2051 -0.1754
 5491W        W48403  17.135  23.511   9.395 -0.2862 -0.1142  0.0467
 5492W        W48404  15.095  23.478   9.705 -0.2996  0.1291  0.0567
 5493W        W48405  17.770  22.070  10.307  0.3239 -0.0690  0.2593
 5494W        W48406  13.447  24.818   9.962 -0.1381  0.0255 -0.1888
 5495W        W48407  17.672  22.176   9.016  0.0836  0.1574 -0.0841
 5496W        W48408  15.044  22.792   7.789 -0.4058  0.0987  0.1684
 5497W        W48409  16.097  18.437   9.402 -0.2799  0.1399  0.2188
 5498W        W48410  16.133  21.747   9.446  0.0458  0.1314 -0.1261
 5499W        W48411  15.317  23.602   8.119 -0.4090  0.1241  0.2431
 5500W        W48412  16.938  25.015   9.692 -0.1085  0.2342  0.0007
 5501W        W48413  15.632  23.309   7.779 -0.3332 -0.0665 -0.0420
 5502W        W48414  15.080  24.570   8.669  0.1445  0.0466  0.0501
 5503W        W48415  16.843  23.099   9.255  0.2179 -0.1448 -0.0237
 5504W        W48416  16.465  22.147   9.621  0.1239  0.2133  0.4034
 5505W        W48417  13.976  21.730   8.881  0.0102 -0.0416  0.1991
 5506W        W48418  16.544  23.569   8.483  0.1142  0.0572  0.0211
 5507W        W48419  17.973  23.975   9.567  0.0501  0.2105  0.1250
 5508W        W48420  18.133  22.403   9.102  0.0885 -0.3236  0.0911
 5509W        W48421  15.126  22.041   8.541 -0.0733  0.0126 -0.2872
 5510W        W48422  19.432  24.314   7.638 -0.2900  0.2885 -0.0355
 5511W        W48423  15.069  23.512   6.933 -0.0476 -0.3983  0.0106
 5512W        W48424  13.022  23.683  10.604 -0.2747  0.0234  0.0127
 5513W        W48425  16.504  24.594   8.336 -0.2151 -0.0023  0.1731
 5514W        W48426  16.577  23.538   9.148 -0.0772  0.0315  0.3265
 5515W        W48427  13.935  23.971   9.575 -0.0317  0.1481  0.1133
 5516W        W48428  14.926  24.255   9.133 -0.0264 -0.0591  0.2156
 5517W        W48429  13.863  23.185   7.963  0.0254  0.0502 -0.2384
 5518W        W48430  18.012  21.348   7.766 -0.1040 -0.0785 -0.2234
 5519W        W48431  17.547  24.819   7.240  0.1466  0.1970  0.1757
 5520W        W48432  16.453  22.150   8.710 -0.2399 -0.2361 -0.0059
 5521W        W48433  17.250  22.795   8.195  0.2418 -0.0529  0.2051
 5522W        W48434  17.154  24.440  10.010  0.0280  0.0723  0.0849
 5523W        W48435  18.353  23.568   9.754  0.0254  0.4522 -0.0113
 5524W        W48436  16.730  22.460   9.080  0.1705 -0.0207 -0.1899
 5525W        W48437  16.170  21.781   7.153  0.1468 -0.0180 -0.1042
 5526W        W48438  15.000  25.250  10.209 -0.0452  0.2658 -0.4209
 5527W        W48439  16.581  22.995   9.729  0.1949  0.2852  0.1915
 5528W        W48440  17.049  23.214   7.824  0.1138 -0.2759 -0.0796
 5529W        W48441  16.408  20.886   9.216 -0.1007  0.1472  0.3511
 5530W        W48442  16.675  24.553   9.782  0.2132 -0.0249 -0.2269
 5531W        W48443  17.357  22.535   9.104  0.2366  0.1492 -0.1103
 5532W        W48444  17.910  24.326   7.611  0.0133  0.1432 -0.1404
 5533W        W48445  14.848  23.927   9.598 -0.1699  0.2672 -0.2016
 5534W        W48446  17.772  23.366   8.939  0.0231 -0.0925 -0.3401
 5535W        W48447  16.560  23.091   8.762  0.0017  0.2616  0.2328
 5536W        W48448  16.743  24.011   9.269 -0.1447 -0.3250  0.0258
 5537W        W48449  16.940  22.859   5.829  0.0391 -0.0264 -0.0392
 5538W        W48450  17.876  20.652   9.320 -0.0690  0.3058  0.0268
 5539W        W48451  16.847  22.514   8.538 -0.1008 -0.1332 -0.1851
 5540W        W48452  17.698  23.056   6.967  0.2563  0.1819  0.0197
 5541W        W48453  14.135  21.749   9.446 -0.0748 -0.0362  0.0499
 5542W        W48454  14.166  22.058   8.240  0.1794 -0.0606 -0.1680
 5543W        W48455  16.109  24.598   9.801 -0.2451 -0.1385 -0.2597
 5544W        W48456  16.718  24.092   8.380  0.1504 -0.0896 -0.2253
 5545W        W48457  16.512  22.465   7.204  0.2893  0.1631 -0.1919
 5546W        W48458  15.163  24.348   9.719 -0.3283 -0.0415 -0.0142
 5547W        W48459  16.202  22.640   6.825  0.2180 -0.0832  0.0312
 5548W        W48460  17.396  24.355   7.496  0.0462 -0.1534  0.0161
 5549W        W48461  18.695  23.164   9.624  0.3824 -0.0327 -0.2619
 5550W        W48462  16.241  21.344   6.757 -0.5104  0.4265  0.1061
 5551W        W48463  15.382  23.195   7.326 -0.0929 -0.1872 -0.1657
 5552W        W48464  17.623  21.104   9.476 -0.0072 -0.0053 -0.0115
 5553W        W48465  15.539  27.439   8.482  0.1588  0.2647 -0.1948
 5554W        W48466  15.821  24.051   8.764 -0.2160 -0.0760 -0.1366
 5555W        W48467  16.230  20.188   8.104 -0.0122  0.0521 -0.0917
 5556W        W48468  14.874  21.378   8.712  0.0268 -0.2179 -0.0223
 5557W        W48469  18.455  24.332   9.251 -0.1614 -0.0432  0.1192
 5558W        W48470  14.222  22.856   8.245  0.0911 -0.1894 -0.0653
 5559W        W48471  18.134  21.938   8.730 -0.0482  0.1279  0.0663
 5560W        W48472  16.133  25.952   9.674  0.0117  0.0849  0.2248
 5561W        W48473  16.165  24.307   7.457  0.3504 -0.1718  0.1174
 5562W        W48474  14.649  21.729   8.376 -0.2228 -0.1085 -0.1747
 5563W        W48475  16.441  23.704   6.888  0.3369 -0.3481  0.2966
 5564W        W48476  14.436  25.160  10.204  0.0016  0.1049  0.0555
 5565W        W48477  14.446  25.214   8.576  0.0020 -0.0579  0.0622
 5566W        W48478  16.565  24.379   8.928 -0.1233 -0.0618  0.0248
 5567W        W48479  17.968  22.513   8.607 -0.3507  0.0864  0.1280
 5568W        W48480  16.715  26.126   8.361  0.0104  0.1131  0.1025
 5569W        W48481  15.476  23.884   7.005 -0.0276 -0.0375 -0.1404
 5570W        W48482  13.287  25.269   9.198 -0.2251  0.0889 -0.0543
 5571W        W48483  14.475  23.087   6.754 -0.0109 -0.1659 -0.0766
 5572W        W48484  18.676  24.409   8.129  0.4228  0.2967 -0.0802
 5573W        W48485  14.203  25.075   9.063 -0.1887  0.0775  0.0702
 5574W        W48486  17.117  21.932   7.566  0.0325  0.0170 -0.1391
 5575W        W48487  17.493  24.344   9.160  0.1606  0.0619 -0.0944
 5576W        W48488  17.302  20.789   8.527 -0.3059  0.0832  0.3096
 5577W        W48489  16.033  22.765   9.579 -0.0325 -0.1987 -0.0081
 5578W        W48490  17.638  21.710   7.628 -0.0787 -0.1119  0.2381
 5579W        W48491  18.649  24.614   6.249 -0.2253 -0.2139 -0.1284
 5580W        W48492  14.081  23.377   9.609 -0.1469 -0.3386  0.0766
 5581W        W48493  16.078  23.630   9.221 -0.4045 -0.3398 -0.0949
 5582W        W48494  17.814  19.734   9.662  0.1981  0.2113 -0.1361
 5583W        W48495  17.393  23.845   6.545  0.0183  0.0515 -0.0694
 5584W        W48496  17.094  21.080   9.866 -0.2690  0.0519 -0.1406
 5585W        W48497  16.656  24.475   6.727  0.2300 -0.2600  0.1037
 5586W        W48498  17.460  23.147   9.847  0.3121  0.0689  0.0864
 5587W        W48499  17.011  23.994   7.952 -0.1193 -0.1208 -0.1096
 5588W        W48500  13.532  22.919   7.650 -0.0313 -0.0286 -0.0490
 5589W        W48501  17.791  21.087  10.049 -0.0954 -0.0519 -0.4601
 5590W        W48502  14.906  24.039  10.103 -0.0083 -0.0450  0.3324
 5591W        W48503  15.807  23.816   8.239 -0.3801  0.1120 -0.6880
 5592W        W48504  16.505  22.350   8.191 -0.2259  0.0095  0.2475
 5593W        W48505  15.596  25.724  10.195 -0.0573 -0.2375 -0.1054
 5594W        W48506  15.151  22.936   8.896  0.0143 -0.1321 -0.2015
 5595W        W48507  16.358  23.961   8.044  0.0272  0.1931 -0.0905
 5596W        W48508  17.514  22.751   7.676 -0.0987 -0.0542 -0.1569
 5597W        W48509  13.721  20.016   9.241  0.2348 -0.5630  0.0137
 5598W        W48510  16.156  23.309   7.506  0.3624  0.0653  0.2941
 5599W        W48511  15.335  23.709   7.451  0.1852 -0.0598 -0.0178
 5600W        W48512  16.966  21.121   9.338 -0.2496  0.3388 -0.1543
 5601W        W48513  15.352  22.463   8.779 -0.2300 -0.0835 -0.2629
 5602W        W48514  17.097  23.581   6.859 -0.2819  0.0879  0.1878
 5603W        W48515  16.333  22.609   8.780 -0.0749 -0.0859  0.1678
 5604W        W48516  15.786  24.348   7.822 -0.2196 -0.0115 -0.1654
 5605W        W48517  17.705  23.773   9.225  0.0727  0.0654  0.1929
 5606W        W48518  17.753  26.293   9.901  0.2167 -0.2333 -0.0212
 5607W        W48519  13.638  23.169   9.429  0.1233 -0.0470 -0.1446
 5608W        W48520  15.859  24.607   9.376 -0.1246  0.0413 -0.0751
 5609W        W48521  18.044  23.871   8.800  0.3272 -0.0244 -0.1606
 5610W        W48522  16.621  21.683   8.569  0.0099  0.0406 -0.1193
 5611W        W48523  15.748  23.191   9.245  0.0052  0.0648  0.0597
 5612W        W48524  14.581  24.745   8.689  0.0049 -0.0311  0.0592
 5613W        W48525  18.270  21.058   8.512  0.3228  0.4231  0.1104
 5614W        W48526  15.791  24.731   6.677 -0.3386 -0.1764  0.0238
 5615W        W48527  15.729  25.861   8.256  0.1151 -0.3711 -0.0341
 5616W        W48528  15.687  22.872   7.577 -0.0467  0.4070 -0.7179
 5617W        W48529  16.773  22.718   8.039 -0.1453 -0.1955  0.0323
 5618W        W48530  16.432  25.150   8.363  0.0053 -0.3454 -0.0514
 5619W        W48531  18.063  23.517   8.191 -0.1318 -0.1877 -0.1606
 5620W        W48532  15.487  23.936   7.831 -0.2542  0.2494 -0.1785
 5621W        W48533  17.641  23.668   8.541  0.3183 -0.1393  0.1170
 5622W        W48534  14.845  22.528   8.940 -0.2113 -0.2054  0.0409
 5623W        W48535  19.965  22.427   7.299  0.2237  0.1810 -0.0682
 5624W        W48536  16.979  21.280   8.600 -0.3585 -0.0227  0.2217
 5625W        W48537  13.300  24.021  10.393  0.0318 -0.2507 -0.0452
 5626W        W48538  15.097  23.075   8.235 -0.0232 -0.4036 -0.0298
 5627W        W48539  15.189  23.375   9.201  0.2759 -0.2056  0.1226
 5628W        W48540  15.486  23.675   8.575  0.0309 -0.0551  0.1248
 5629W        W48541  14.724  24.445   9.544 -0.1644 -0.0289 -0.0899
 5630W        W48542  15.597  22.068   8.954  0.2783 -0.1659  0.3120
 5631W        W48543  17.557  23.190   7.924 -0.2793  0.0254 -0.0427
 5632W        W48544  15.488  22.406   9.308 -0.2623  0.0105 -0.2050
 5633W        W48545  15.128  22.594   8.356 -0.0885 -0.1517 -0.0952
 5634W        W48546  17.030  24.387   8.708 -0.2000  0.1374  0.0710
 5635W        W48547  18.560  24.235   9.729 -0.0306  0.1508 -0.1323
 5636W        W48548  16.033  21.500   8.005 -0.1538 -0.1457 -0.3824
 5637W        W48549  16.144  23.872   7.224  0.1628  0.2844 -0.1764
 5638W        W48550  15.560  22.419   8.289 -0.0537 -0.2913  0.1691
 5639W        W48551  16.995  22.147   9.607  0.2684 -0.1603 -0.1573
 5640W        W48552  17.359  23.972   8.847 -0.2313 -0.3381  0.3059
 5641W        W48553  17.559  26.126   8.918  0.2145  0.1324  0.0250
 5642W        W48554  13.015  18.497   8.312  0.0959 -0.1132 -0.1984
 5643W        W48555  17.837  23.303   9.480 -0.2765 -0.1010 -0.0238
 5644W        W48556  18.384  24.408   7.684 -0.2336  0.1981 -0.2354
 5645W        W48557  17.668  21.978   9.650  0.2989 -0.0356  0.1768
 5646W        W48558  17.252  24.798   8.710  0.0706 -0.1818 -0.4348
 5647W        W48559  18.378  24.184  10.199  0.0772 -0.1734 -0.2990
 5648W        W48560  13.763  22.376   8.928 -0.0830 -0.2666 -0.0183
 5649W        W48561  16.646  21.959   7.322 -0.0929  0.0910  0.0268
 5650W        W48562  17.306  25.150   6.936  0.1288 -0.0505  0.0646
 5651W        W48563  15.758  25.033   9.028 -0.1156 -0.1168  0.0826
 5652W        W48564  16.765  22.375   7.636  0.0808 -0.0687 -0.2307
 5653W        W48565  16.157  23.476   8.073 -0.0215  0.0520 -0.1699
 5654W        W48566  16.716  23.579   7.981 -0.3675 -0.1038 -0.0255
 5655W        W48567  17.841  22.864   8.208  0.4014 -0.1765 -0.0033
 5656W        W48568  17.866  24.539   9.445  0.0200 -0.1015  0.1140
 5657W        W48569  16.115  23.858   9.664 -0.0713  0.1834  0.0758
 5658W        W48570  16.508  22.597   9.449  0.1487 -0.1207 -0.0452
 5659W        W48571  14.145  23.100   9.254  0.2671  0.1293  0.2363
 5660W        W48572  16.223  24.158   8.512  0.2366  0.2116 -0.3338
 5661W        W48573  15.907  24.630   7.232  0.0286  0.1524 -0.0121
 5662W        W48574  18.766  20.333   9.290  0.0612 -0.1879 -0.2252
 5663W        W48575  14.506  22.059   9.230 -0.0851 -0.2353  0.1213
 5664W        W48576  17.085  21.080   8.119  0.0769  0.2739 -0.4427
 5665W        W48577  13.074  26.182   8.767 -0.2526  0.0052  0.3160
 5666W        W48578  17.055  24.866   9.153  0.1125 -0.2703  0.4611
 5667W        W48579  15.638  27.303   2.513 -0.1659 -0.0555  0.3484
 5668W        W48580  15.293  25.038   1.178 -0.1377 -0.0805  0.0768
 5669W        W48581  18.183  25.450   0.170 -0.2185  0.1487 -0.0139
 5670W        W48582  16.961  24.780  31.509 -0.0094  0.1178 -0.0264
 5671W        W48583  14.474  26.933  31.457  0.2989  0.1540 -0.2812
 5672W        W48584  16.411  29.548   1.124 -0.0393  0.3446 -0.0156
 5673W        W48585  15.392  25.261   2.979  0.0976 -0.1368  0.0666
 5674W        W48586  17.422  26.084   1.705  0.5633 -0.0354  0.1192
 5675W        W48587  16.081  27.543   1.650  0.0287 -0.0698  0.0506
 5676W        W48588  16.053  26.749  31.651  0.0361 -0.1861  0.3770
 5677W        W48589  17.735  25.109   2.468 -0.1808  0.2953  0.0002
 5678W        W48590  16.215  28.464   2.484  0.1296 -0.1622  0.1706
 5679W        W48591  16.422  24.573   0.406  0.0556  0.1324  0.1287
 5680W        W48592  14.758  25.630   1.279  0.1789  0.3214  0.1419
 5681W        W48593  17.776  26.481   2.462 -0.0325  0.1166 -0.1233
 5682W        W48594  15.581  25.100   1.563  0.3546 -0.2992  0.1827
 5683W        W48595  16.480  26.529   2.176  0.3401  0.1846 -0.0579
 5684W        W48596  16.353  25.578   0.685  0.1426  0.0553  0.1014
 5685W        W48597  17.179  28.175   1.045  0.2045  0.1539 -0.4307
 5686W        W48598  15.788  25.006   3.316  0.2599 -0.1674 -0.1676
 5687W        W48599  17.516  25.521   2.310  0.0052  0.1195  0.4928
 5688W        W48600  16.566  27.368   0.560 -0.1734 -0.0957  0.1042
 5689W        W48601  14.821  25.986   0.131  0.0159  0.1881 -0.1764
 5690W        W48602  15.666  26.097   2.426  0.1826 -0.5286 -0.0041
 5691W        W48603  15.476  27.623   2.825  0.3534  0.0434 -0.0872
 5692W        W48604  16.609  25.239   0.373 -0.1388  0.0141 -0.0834
 5693W        W48605  17.254  27.137   1.025 -0.2465 -0.0343 -0.0149
 5694W        W48606  13.996  28.526   1.959 -0.0490  0.2738  0.0883
 5695W        W48607  16.726  27.298   1.056  0.0810  0.3409 -0.0485
 5696W        W48608  17.580  25.458   3.342  0.0365 -0.1346  0.0629
 5697W        W48609  15.990  26.306   1.541  0.0685 -0.2032  0.1086
 5698W        W48610  16.148  28.846   2.052 -0.1945  0.4425  0.2021
 5699W        W48611  14.643  28.937   1.056  0.2638  0.0513  0.3055
 5700W        W48612  16.168  27.252  30.959  0.0176 -0.0931  0.0698
 5701W        W48613  17.489  27.219   2.678  0.2748  0.1038  0.0859
 5702W        W48614  16.290  28.718   3.974  0.4707  0.1595  0.1326
 5703W        W48615  15.726  26.617  30.704  0.2712  0.2045  0.1581
 5704W        W48616  17.714  30.109   4.474  0.0735 -0.2331 -0.0753
 5705W        W48617  17.133  30.279   3.071 -0.2251 -0.4601  0.1468
 5706W        W48618  15.643  26.733   2.055 -0.2404 -0.3702  0.0920
 5707W        W48619  18.010  27.801   1.390 -0.2777 -0.1701 -0.3162
 5708W        W48620  15.862  26.182   0.852  0.1035  0.0510 -0.2485
 5709W        W48621  16.954  27.331   1.956  0.0658 -0.2326 -0.0042
 5710W        W48622  15.137  28.596   2.249  0.1444 -0.2521  0.0910
 5711W        W48623  14.979  27.890   2.372  0.0910  0.1293  0.0309
 5712W        W48624  18.158  26.538   2.795  0.2173  0.0900  0.2312
 5713W        W48625  14.823  27.462   0.212 -0.0311 -0.2606 -0.0786
 5714W        W48626  16.358  25.947   0.996 -0.2439  0.1539 -0.0188
 5715W        W48627  16.599  24.884   0.007 -0.1184  0.0418 -0.1641
 5716W        W48628  16.030  26.601   0.586  0.0381  0.1561 -0.0792
 5717W        W48629  17.811  25.226   1.986  0.2149  0.0065  0.5631
 5718W        W48630  15.556  27.622   1.685  0.3814 -0.1604 -0.2763
 5719W        W48631  15.801  25.029   2.035 -0.0824  0.1845 -0.0351
 5720W        W48632  18.276  26.902   1.880  0.2572  0.2316  0.1450
 5721W        W48633  15.817  25.718   1.139  0.2669 -0.1725  0.2464
 5722W        W48634  16.932  24.947   2.904 -0.1483  0.1331 -0.0987
 5723W        W48635  15.953  27.922   4.070  0.0592  0.0378  0.1955
 5724W        W48636  14.781  26.470   3.216  0.1007  0.1671 -0.4005
 5725W        W48637  16.870  28.988   0.533 -0.0675 -0.2624  0.1443
 5726W        W48638  17.696  27.353   1.614  0.2067  0.1406 -0.0864
 5727W        W48639  14.242  28.752   0.148  0.3132 -0.0433 -0.2691
 5728W        W48640  14.962  26.004   1.066  0.1293 -0.1891 -0.2154
 5729W        W48641  15.287  25.814   3.647  0.0868 -0.0832  0.1300
 5730W        W48642  15.635  26.376   2.805  0.1325  0.0665  0.1642
 5731W        W48643  17.163  25.822  31.276 -0.3062 -0.0654  0.1659
 5732W        W48644  17.134  28.086   2.600  0.5186  0.1033 -0.0075
 5733W        W48645  14.174  28.078   3.032  0.2528 -0.0252 -0.0428
 5734W        W48646  17.824  26.428   1.086 -0.2687 -0.0236 -0.2881
 5735W        W48647  18.253  27.377   1.791  0.0109 -0.1167  0.1421
 5736W        W48648  17.617  28.072   1.220  0.2198  0.0903  0.5277
 5737W        W48649  18.662  25.162  31.762  0.0362 -0.0889  0.1588
 5738W        W48650  17.773  26.007   2.309  0.0556  0.2661 -0.3532
 5739W        W48651  16.835  25.042   0.791 -0.3877 -0.4447 -0.1099
 5740W        W48652  15.755  27.581   0.421 -0.3888 -0.2101  0.1512
 5741W        W48653  15.535  26.152   1.229 -0.0021 -0.0885 -0.2955
 5742W        W48654  18.142  28.610   2.336 -0.2294 -0.0686 -0.1482
 5743W        W48655  17.373  27.134  31.796 -0.0867  0.1761  0.0166
 5744W        W48656  15.724  28.243   2.427 -0.1899  0.1117 -0.0897
 5745W        W48657  17.021  26.672   1.345  0.2133  0.3674 -0.0492
 5746W        W48658  16.372  28.652   1.536 -0.1411  0.1293  0.3924
 5747W        W48659  15.467  27.383  31.308  0.2021  0.2352  0.1547
 5748W        W48660  14.456  28.100   2.435 -0.1718 -0.0814 -0.0523
 5749W        W48661  15.118  26.909   0.254 -0.2120  0.2566  0.0595
 5750W        W48662  14.297  26.007   1.850 -0.1150  0.0127 -0.1298
 5751W        W48663  16.090  26.856   2.829  0.0798 -0.0258 -0.1448
 5752W        W48664  16.997  24.948   0.294 -0.0246 -0.0880  0.1219
 5753W        W48665  15.329  25.263   3.482 -0.2105 -0.1715 -0.1980
 5754W        W48666  16.554  24.116   0.171 -0.1885 -0.1432  0.2749
 5755W        W48667  15.017  26.620   0.680  0.2645  0.2685 -0.0456
 5756W        W48668  18.180  29.790   1.499 -0.0604  0.2101 -0.1002
 5757W        W48669  17.358  26.201   1.192  0.1976  0.1536 -0.0452
 5758W        W48670  16.987  28.187  31.088 -0.1780 -0.2174 -0.2677
 5759W        W48671  14.212  27.704   2.132  0.1634 -0.2746 -0.1528
 5760W        W48672  14.099  25.522   1.754 -0.3333  0.3005  0.0757
 5761W        W48673  16.095  24.850   3.981  0.0769  0.1255  0.0252
 5762W        W48674  13.833  25.973   1.019  0.2205  0.1570  0.0231
 5763W        W48675  17.883  25.952   2.975 -0.0418 -0.1613  0.0847
 5764W        W48676  16.882  24.920  31.038 -0.1727  0.2334  0.3472
 5765W        W48677  16.217  27.249   1.250 -0.1589 -0.1655  0.0589
 5766W        W48678  15.070  25.547   1.814  0.1127  0.4942  0.0914
 5767W        W48679  14.663  27.881   1.538  0.2481 -0.1612 -0.1036
 5768W        W48680  18.049  25.410   2.882  0.0754  0.3125 -0.3408
 5769W        W48681  16.455  27.875   0.367 -0.1589 -0.2207  0.1746
 5770W        W48682  17.185  28.112   1.611 -0.1767  0.0629  0.3872
 5771W        W48683  16.215  29.069   1.098  0.0188  0.1244 -0.1585
 5772W        W48684  16.996  25.589   2.299 -0.0167 -0.1093  0.4663
 5773W        W48685  15.493  25.071   0.731  0.1071 -0.2566  0.2278
 5774W        W48686  13.652  30.551   2.095  0.0081 -0.0674 -0.0395
 5775W        W48687  15.540  26.614   1.529 -0.0236  0.0695 -0.0867
 5776W        W48688  15.789  24.185   0.876  0.0384 -0.2410 -0.3299
 5777W        W48689  18.325  26.739   1.053  0.2734 -0.0752  0.0922
 5778W        W48690  16.209  25.368   0.086 -0.0285 -0.3595  0.2554
 5779W        W48691  14.595  26.497   1.797 -0.1002 -0.0399 -0.0184
 5780W        W48692  16.691  24.966   1.276 -0.2781 -0.0274 -0.0170
 5781W        W48693  18.093  25.776   3.390 -0.1298 -0.0861  0.0514
 5782W        W48694  15.724  27.451   1.208 -0.2709 -0.2783 -0.0038
 5783W        W48695  15.312  25.883   0.152  0.2759  0.2621 -0.1732
 5784W        W48696  15.622  28.190   1.260 -0.2053  0.0935  0.2758
 5785W        W48697  15.276  27.409   0.915  0.1149 -0.3876  0.1003
 5786W        W48698  14.385  26.258  31.881 -0.2502 -0.2319  0.0407
 5787W        W48699  15.080  28.737   1.297 -0.1389 -0.0580 -0.0752
 5788W        W48700  17.251  24.446   2.098 -0.3845  0.0499  0.0610
 5789W        W48701  14.434  25.242   4.598 -0.1949 -0.2114  0.1533
 5790W        W48702  16.931  25.614   2.759  0.1653 -0.1383 -0.6384
 5791W        W48703  15.525  25.065   0.268  0.0558 -0.2167  0.1122
 5792W        W48704  15.342  27.657   3.354  0.0614 -0.0200  0.3053
 5793W        W48705  14.687  26.247   0.511  0.0360 -0.0076  0.1562
 5794W        W48706  18.086  24.898   0.146  0.0393  0.5837 -0.2938
 5795W        W48707  17.885  26.934   3.419 -0.3282  0.1617 -0.3733
 5796W        W48708  18.063  27.188   0.327  0.1912  0.1461  0.2463
 5797W        W48709  17.172  25.869   0.280  0.0036  0.2419  0.1598
 5798W        W48710  17.011  24.444   0.018 -0.0045 -0.0311  0.0637
 5799W        W48711  13.801  28.121   3.419 -0.2456 -0.0481 -0.3944
 5800W        W48712  16.329  26.409   1.156 -0.2996  0.2758 -0.0828
 5801W        W48713  15.809  27.618   2.138  0.0488 -0.0192  0.0616
 5802W        W48714  16.695  25.569   0.990 -0.2046  0.0761 -0.0518
 5803W        W48715  17.904  29.432   0.698 -0.0019  0.2859  0.1151
 5804W        W48716  14.530  27.417   1.805 -0.0940  0.0506 -0.3105
 5805W        W48717  18.096  27.315   2.800  0.3058 -0.0354  0.2296
 5806W        W48718  17.731  27.184   0.957  0.0062  0.2758  0.3132
 5807W        W48719  16.623  25.124   3.316 -0.0682 -0.0821 -0.1448
 5808W        W48720  16.452  25.716  31.752  0.0470  0.0079 -0.0344
 5809W        W48721  16.240  24.173   1.986 -0.1343  0.2058 -0.1002
 5810W        W48722  15.663  28.563   0.154 -0.0515  0.2159 -0.2007
 5811W        W48723  16.427  25.850   2.779 -0.3225 -0.3548 -0.0637
 5812W        W48724  17.204  25.698   1.355  0.0136 -0.0528 -0.3194
 5813W        W48725  16.072  24.458   2.668  0.1549  0.0031  0.2137
 5814W        W48726  17.937  26.308   4.193 -0.2124  0.3515  0.0041
 5815W        W48727  17.040  27.654   0.981  0.0345  0.1951 -0.2306
 5816W        W48728  17.959  26.050   1.298 -0.0813  0.1171  0.3417
 5817W        W48729  16.065  25.739   3.790 -0.0287  0.0989 -0.1148
 5818W        W48730  15.875  27.793   2.613 -0.0214 -0.0148 -0.0260
 5819W        W48731  14.915  29.217   3.738 -0.0033  0.1369  0.3075
 5820W        W48732  16.577  28.627   2.074 -0.1225  0.1334  0.1446
 5821W        W48733  16.503  26.476   0.603 -0.0015  0.1659  0.1116
 5822W        W48734  16.809  25.669   3.224 -0.0204 -0.3301 -0.1756
 5823W        W48735  16.207  24.229   1.151  0.1260 -0.0641 -0.4024
 5824W        W48736  14.873  27.424   1.327  0.0087 -0.0404 -0.2013
 5825W        W48737  15.307  27.696  31.853 -0.0853 -0.1717  0.7030
 5826W        W48738  15.693  24.633   0.461 -0.1856 -0.1339  0.0686
 5827W        W48739  15.751  28.048   1.829 -0.1826  0.0275 -0.1647
 5828W        W48740  16.455  26.504  31.486 -0.1168  0.0187  0.3220
 5829W        W48741  17.105  27.565   3.423 -0.1004 -0.0382  0.0558
 5830W        W48742  14.845  28.251   2.034 -0.0181 -0.0584  0.1471
 5831W        W48743  17.854  24.649   2.199  0.0704  0.1447  0.3661
 5832W        W48744  13.980  28.986   2.956  0.0388  0.1782  0.1362
 5833W        W48745  16.228  25.984   0.441 -0.0858 -0.1344 -0.2143
 5834W        W48746  14.309  26.119   0.784 -0.2166  0.2086  0.1148
 5835W        W48747  18.038  25.971   0.048 -0.1014 -0.0965 -0.1814
 5836W        W48748  17.979  27.481  31.849 -0.3095  0.0337  0.0159
 5837W        W48749  16.273  25.740   1.551  0.0924 -0.2053 -0.0869
 5838W        W48750  15.890  24.544   2.154 -0.0264  0.3658  0.0277
 5839W        W48751  14.649  27.756   3.351 -0.0491  0.3884 -0.3933
 5840W        W48752  15.487  27.206   2.014  0.1946  0.2868 -0.0380
 5841W        W48753  18.501  26.650  31.803  0.0109 -0.1739  0.0222
 5842W        W48754  18.039  26.914   2.427 -0.0935  0.1180 -0.0935
 5843W        W48755  16.483  27.020   3.382 -0.1883  0.0063 -0.2028
 5844W        W48756  13.301  26.099   1.303 -0.1520 -0.3018  0.1770
 5845W        W48757  17.776  26.841   2.946 -0.1629 -0.3044 -0.1270
 5846W        W48758  16.329  25.998   1.971 -0.3041 -0.0649  0.0511
 5847W        W48759  14.253  28.021   0.759  0.0831 -0.0938 -0.1289
 5848W        W48760  15.241  27.749   1.269 -0.0281 -0.0952  0.0052
 5849W        W48761  14.870  25.109  31.956 -0.4000 -0.0419  0.0294
 5850W        W48762  15.320  27.392   0.268  0.4342 -0.4772 -0.0971
 5851W        W48763  16.174  26.207   3.547  0.0803 -0.1434 -0.0509
 5852W        W48764  18.239  26.442   1.633 -0.1749  0.1298 -0.3523
 5853W        W48765  15.216  26.518   1.075 -0.5689 -0.0894  0.3962
 5854W        W48766  16.224  24.814   1.844 -0.0598 -0.0598  0.2163
 5855W        W48767  16.517  26.298   1.619 -0.1028  0.0810 -0.0504
 5856W        W48768  16.534  26.860   1.328  0.0292 -0.0645  0.0409
 5857W        W48769  16.411  25.628   2.370 -0.2044 -0.0894  0.1355
 5858W        W48770  16.446  28.955   2.472 -0.1754 -0.0251 -0.1769
 5859W        W48771  15.836  25.099   1.094  0.1888 -0.0762 -0.0038
 5860W        W48772  17.517  30.005   1.439 -0.1603  0.4318 -0.0804
 5861W        W48773  17.132  26.356   2.460  0.0155 -0.0698  0.2118
 5862W        W48774  16.666  25.733   0.209 -0.1254  0.1526 -0.0922
 5863W        W48775  14.923  26.383   3.887  0.0818 -0.0575 -0.0784
 5864W        W48776  15.098  26.816   1.817 -0.0023  0.2798 -0.2014
 5865W        W48777  16.848  26.279   1.950  0.2030  0.1285 -0.0666
 5866W        W48778  15.152  27.063   2.332  0.1818 -0.0179 -0.0423
 5867W        W48779  14.279  28.894   1.416 -0.1706 -0.1030 -0.0895
 5868W        W48780  14.607  27.417   2.352 -0.4912 -0.2517 -0.0976
 5869W        W48781  16.987  25.479   0.608 -0.0657  0.1113  0.2253
 5870W        W48782  17.491  26.798   0.746  0.0403  0.0570 -0.1944
 5871W        W48783  17.239  25.127   2.069 -0.0060 -0.1388 -0.1123
 5872W        W48784  18.935  25.719   1.840  0.1422  0.0398 -0.0033
 5873W        W48785  17.651  25.797   0.347  0.0464  0.0325  0.0278
 5874W        W48786  17.059  26.275   3.037 -0.0423 -0.0270 -0.4024
 5875W        W48787  14.731  25.165   2.050  0.0959  0.1314  0.1643
 5876W        W48788  17.227  27.566   1.590  0.1949  0.0293  0.1574
 5877W        W48789  15.479  25.673   2.139  0.2840  0.0020 -0.1157
 5878W        W48790  17.129  28.655   3.802 -0.0807  0.0910 -0.0903
 5879W        W48791  14.965  28.987   2.530  0.2130 -0.0834  0.0738
 5880W        W48792  15.167  25.899   1.543  0.0083  0.1692 -0.1589
 5881W        W48793  17.317  25.416  31.693 -0.0900  0.2002 -0.0999
 5882W        W48794  16.852  26.720   3.174  0.0201 -0.0386 -0.3297
 5883W        W48795  17.829  26.830   1.825  0.0069 -0.3900  0.3164
 5884W        W48796  16.709  26.740   1.752  0.0784 -0.1472  0.1039
 5885W        W48797  17.850  25.606   1.095  0.0955 -0.3556 -0.1789
 5886W        W48798  15.027  26.403   1.531  0.1438  0.1713  0.2346
 5887W        W48799  15.190  26.335   0.282  0.0130  0.0184  0.0179
 5888W        W48800  15.527  26.552   0.601 -0.3037  0.1802  0.3310
 5889W        W48801  14.208  28.131   1.771  0.1380  0.1963  0.1320
 5890W        W48802  16.492  25.317   2.826  0.1777 -0.0869 -0.0099
 5891W        W48803  18.567  26.341   1.246 -0.0005 -0.0530  0.2774
 5892W        W48804  17.427  25.579   1.820 -0.0498 -0.0016 -0.0839
 5893W        W48805  17.500  25.036   2.982 -0.0542 -0.1221 -0.3020
 5894W        W48806  18.322  25.946   1.630  0.2698 -0.4597 -0.2763
 5895W        W48807  15.732  26.503   3.283  0.1548  0.2163  0.1560
 5896W        W48808  15.429  25.538   4.126  0.1266 -0.1407 -0.1757
 5897W        W48809  17.250  27.671   2.819 -0.0359 -0.1985 -0.0942
 5898W        W48810  17.946  24.614  31.640  0.4288 -0.1556 -0.2026
 5899W        W48811  18.384  25.692   1.164  0.0885 -0.1862  0.1822
 5900W        W48812  18.407  28.070   0.526 -0.1521 -0.3141  0.0817
 5901W        W48813  16.654  24.133   0.785 -0.0590 -0.3455  0.0950
 5902W        W48814  16.433  25.397   1.927  0.0953  0.3353  0.2192
 5903W        W48815  17.013  27.035   3.557  0.2313  0.1868  0.3398
 5904W        W48816  16.304  24.991   0.836 -0.1154 -0.4334 -0.3362
 5905W        W48817  16.427  27.571   2.056  0.0076  0.0234 -0.0377
 5906W        W48818  14.011  28.303  31.875 -0.1668 -0.2713 -0.2810
 5907W        W48819  16.825  26.758   0.861  0.1601  0.0308  0.1425
 5908W        W48820  14.968  26.888   1.245  0.0857  0.1030  0.2023
 5909W        W48821  13.750  26.412   2.158  0.0412  0.3424 -0.0451
 5910W        W48822  16.811  28.114   3.104 -0.0726  0.0157 -0.0814
 5911W        W48823  16.214  25.795  30.776 -0.0853 -0.0960 -0.2552
 5912W        W48824  15.739  26.021   0.391 -0.2368 -0.5576  0.1079
 5913W        W48825  15.183  28.186   2.717  0.2223 -0.0599 -0.4955
 5914W        W48826  17.220  27.373   3.886  0.0147  0.1732 -0.0817
 5915W        W48827  16.603  25.424  30.853  0.1466 -0.2407  0.2290
 5916W        W48828  17.385  25.842   3.146  0.0440 -0.2171 -0.1590
 5917W        W48829  14.248  29.786   1.582 -0.2396  0.2003 -0.1832
 5918W        W48830  16.114  24.546   0.769  0.0383 -0.2218 -0.4396
 5919W        W48831  14.202  26.942   2.588  0.1799  0.0690 -0.0105
 5920W        W48832  16.012  26.715   2.389 -0.0029  0.2447  0.3499
 5921W        W48833  15.357  27.184  31.760 -0.1738  0.2666 -0.2090
 5922W        W48834  16.447  24.725   2.726  0.2591  0.0140 -0.2918
 5923W        W48835  16.823  26.276   0.975 -0.0593 -0.1951 -0.4189
 5924W        W48836  16.568  27.116   2.873  0.0137 -0.0947 -0.1684
 5925W        W48837  17.512  27.262   3.438  0.0429  0.3930  0.2807
 5926W        W48838  17.190  25.959   2.124 -0.0733 -0.1979  0.1530
 5927W        W48839  15.658  25.737   1.644 -0.2659 -0.0219 -0.1349
 5928W        W48840  17.403  27.975   3.201  0.2647  0.4011  0.3510
 5929W        W48841  17.522  27.571   1.096  0.0304  0.0120 -0.5862
 5930W        W48842  15.580  27.827   0.904 -0.0308  0.1991 -0.2369
 5931W        W48843  14.532  25.499   5.052 -0.0090  0.2156 -0.2286
 5932W        W48844  16.584  28.190   2.652 -0.0264  0.1405 -0.0748
 5933W        W48845  16.669  26.734   2.629  0.0591  0.1828  0.3205
 5934W        W48846  13.874  24.909   2.455 -0.1355 -0.0045  0.3188
 5935W        W48847  14.795  26.508   0.061 -0.2562  0.0167 -0.0901
 5936W        W48848  15.642  28.922   3.468 -0.2384  0.1484 -0.2835
 5937W        W48849  13.895  26.863   1.991 -0.1222 -0.0202 -0.0702
 5938W        W48850  14.219  28.610   0.950  0.2426 -0.4466 -0.2389
 5939W        W48851  15.608  26.285  31.592  0.0702  0.3753 -0.1211
 5940W        W48852  16.322  26.746   0.145  0.4108  0.1569 -0.1609
 5941W        W48853  16.645  27.195   2.304  0.3313  0.3294 -0.0064
 5942W        W48854  15.285  24.537   1.371 -0.1539  0.0311  0.0021
 5943W        W48855  14.491  29.064   2.711 -0.0290  0.0914  0.0020
 5944W        W48856  14.605  28.460   1.594  0.0308  0.1216  0.2073
 5945W        W48857  16.053  27.946   0.743  0.2132  0.4349  0.0565
 5946W        W48858  15.077  28.372   0.472 -0.0844  0.0066 -0.2612
 5947W        W48859  16.690  27.392   3.706  0.0285  0.0436  0.0329
 5948W        W48860  18.846  23.253  31.266 -0.1265  0.2764  0.1827
 5949W        W48861  16.945  26.105   1.454  0.0060  0.0555  0.0489
 5950W        W48862  17.490  25.508   0.712 -0.1177  0.1519  0.2416
 5951W        W48863  17.090  29.211   4.001  0.1403  0.0008  0.3419
 5952W        W48864  15.523  25.829   2.943 -0.1812 -0.1844  0.2133
 5953W        W48865  16.013  24.938  30.247 -0.0980  0.0678  0.0546
 5954W        W48866  16.141  26.774   1.780  0.0832  0.0019 -0.1070
 5955W        W48867  17.066  24.739   4.363 -0.1127 -0.0080 -0.2252
 5956W        W48868  15.383  28.556   3.676 -0.1748  0.0073  0.3238
 5957W        W48869  17.066  28.054   0.159 -0.0625  0.1162  0.2043
 5958W        W48870  15.607  24.664   0.999 -0.0782 -0.1510  0.2117
 5959W        W48871  15.432  25.585   0.682 -0.0225 -0.1308 -0.0705
 5960W        W48872  17.943  25.365   3.715 -0.2176  0.0751 -0.4440
 5961W        W48873  15.626  28.150  31.875  0.1752 -0.3264  0.0525
 5962W        W48874  16.753  25.783   1.908  0.0075  0.1627 -0.3251
 5963W        W48875  16.081  29.563   2.093 -0.3324 -0.0107 -0.0174
 5964W        W48876  15.892  28.825   1.555 -0.1118 -0.2138  0.1398
 5965W        W48877  16.522  28.590   2.965  0.1863 -0.2605  0.2301
 5966W        W48878  13.069  26.037   1.820 -0.0286 -0.2102 -0.0089
 5967W        W48879  19.182  28.231   0.296 -0.2251  0.1368 -0.1050
 5968W        W48880  16.162  26.118   2.441 -0.0732 -0.0149 -0.0034
 5969W        W48881  18.508  27.051   0.669  0.0326 -0.2290  0.1430
 5970W        W48882  14.289  25.278   0.661 -0.1032  0.1328  0.0467
 5971W        W48883  17.259  25.229   2.590  0.0193 -0.1176 -0.1253
 5972W        W48884  16.020  25.465   2.966 -0.1530  0.1405  0.0295
 5973W        W48885  15.386  26.531   2.409  0.3308  0.0434 -0.2501
 5974W        W48886  17.035  24.111   0.417 -0.0648  0.0261 -0.0438
 5975W        W48887  17.755  27.622   2.427 -0.0647  0.2146  0.0786
 5976W        W48888  16.821  26.214  31.288  0.2449 -0.1727  0.1103
 5977W        W48889  16.916  28.741   4.268 -0.1219  0.1837 -0.0559
 5978W        W48890  15.034  25.357   0.875  0.0859  0.1597  0.1907
 5979W        W48891  18.080  25.563   0.636  0.1474 -0.0929  0.4529
 5980W        W48892  14.631  26.037   1.507  0.1804  0.1857  0.2743
 5981W        W48893  16.680  26.085   2.407  0.1031 -0.1706  0.0764
 5982W        W48894  17.899  27.237   2.130 -0.0564  0.0556  0.3983
 5983W        W48895  14.279  25.267   2.120 -0.1524 -0.3779  0.1854
 5984W        W48896  16.652  27.785  31.745  0.1084  0.3072  0.4388
 5985W        W48897  17.413  26.472   2.047  0.3993  0.2794  0.0640
 5986W        W48898  15.777  27.615  31.934  0.1794 -0.3635  0.2128
 5987W        W48899  18.082  27.032   1.410 -0.2817 -0.1903  0.0014
 5988W        W48900  16.816  28.124   0.647 -0.2027 -0.2061 -0.3209
 5989W        W48901  15.129  26.956   2.812  0.2400  0.1379 -0.0051
 5990W        W48902  17.310  26.994   1.790 -0.2120 -0.1371  0.0376
 5991W        W48903  16.991  26.819   2.179 -0.0261  0.3160 -0.3284
 5992W        W48904  16.933  24.239  31.489 -0.1282  0.2209 -0.0695
 5993W        W48905  15.594  28.144   2.959 -0.1655  0.0600 -0.4495
 5994W        W48906  14.807  27.967   1.069 -0.3945 -0.0515 -0.2651
 5995W        W48907  18.350  27.618   0.227 -0.0498 -0.2778  0.0740
 5996W        W48908  18.833  26.157   2.633  0.1512 -0.0825  0.0179
 5997W        W48909  15.596  28.651  31.646 -0.0838  0.2752  0.0298
 5998W        W48910  18.693  25.339   4.206 -0.0832  0.0568 -0.0211
 5999W        W48911  16.200  27.975   2.286 -0.2579 -0.2872  0.1307
 6000W        W48912  16.493  27.798   4.038  0.0254 -0.0244 -0.0189
 6001W        W48913  15.985  25.331   0.544 -0.1366  0.0613  0.0693
 6002W        W48914  16.262  27.389   2.551  0.0284 -0.0701  0.1064
 6003W        W48915  17.861  26.209   1.841 -0.4096 -0.1897  0.1083
 6004W        W48916  14.309  27.530   1.313 -0.0956 -0.2143 -0.0312
 6005W        W48917  17.514  28.530   1.441  0.0597 -0.1584 -0.1982
 6006W        W48918  16.069  25.232   1.603 -0.1807  0.2063 -0.0149
 6007W        W48919  16.321  28.308   0.545 -0.0702  0.4611  0.1205
 6008W        W48920  16.138  24.785   1.285 -0.1837 -0.0501 -0.1515
 6009W        W48921  18.161  25.428   1.546  0.0151  0.2701 -0.2363
 6010W        W48922  18.994  26.026  31.895 -0.0849  0.2931  0.0092
 6011W        W48923  15.788  27.047   1.535  0.0917 -0.0744  0.2649
 6012W        W48924  15.709  26.288  31.122  0.1377  0.0655 -0.4093
 6013W        W48925  15.475  28.806  30.473  0.0740  0.0621 -0.2624
 6014W        W48926  15.254  27.976   1.949  0.2038  0.1565  0.1034
 6015W        W48927  16.635  24.588   3.191  0.0214 -0.1450  0.0206
 6016W        W48928  14.242  27.644   3.961  0.0434 -0.2395 -0.3911
 6017W        W48929  14.488  26.827   1.398 -0.1888 -0.0377  0.2722
 6018W        W48930  14.255  25.787   1.275  0.0752  0.2280 -0.2508
 6019W        W48931  17.314  28.656   0.319 -0.3983 -0.3420  0.2350
 6020W        W48932  14.906  25.176   1.445 -0.2773 -0.2379 -0.1885
 6021W        W48933  14.515  25.684   0.832  0.1581  0.0672 -0.4726
 6022W        W48934  16.188  27.934  31.774 -0.1869 -0.0678 -0.4487
 6023W        W48935  16.208  27.622  31.325  0.0774  0.4792 -0.2451
 6024W        W48936  16.582  24.417  31.753 -0.0449  0.1039  0.4100
 6025W        W48937  17.627  27.829   1.686  0.2888 -0.0845 -0.1978
 6026W        W48938  15.893  27.008   0.975 -0.0119 -0.0092 -0.1052
 6027W        W48939  16.232  24.975   3.090 -0.1113  0.3225 -0.4665
 6028W        W48940  15.563  24.447   2.527 -0.1804 -0.2093  0.1990
 6029W        W48941  16.440  25.214  31.651  0.1552 -0.2609 -0.2360
 6030W        W48942  16.478  27.189   1.718  0.0864  0.2577 -0.0213
 6031W        W48943  16.087  27.428   0.776  0.0581  0.1117 -0.3314
 6032W        W48944  17.058  27.142   0.584 -0.1725  0.1735 -0.1407
 6033W        W48945  16.774  27.551   2.986 -0.2985  0.0466 -0.0899
 6034W        W48946  15.629  30.135   2.960 -0.1566 -0.1011 -0.0550
 6035W        W48947  14.429  25.166   2.954  0.3832 -0.1975 -0.2335
 6036W        W48948  17.997  26.981  31.722 -0.0357 -0.0422 -0.0436
 6037W        W48949  17.105  28.247   4.437 -0.2630 -0.1828  0.2577
 6038W        W48950  16.715  27.167  31.073 -0.0549  0.1939  0.0030
 6039W        W48951  18.838  25.968   0.808  0.0720  0.3390 -0.0988
 6040W        W48952  17.792  27.970  31.502 -0.2541 -0.4208 -0.0457
 6041W        W48953  16.207  24.051   2.462  0.1514 -0.2137 -0.1007
 6042W        W48954  14.530  27.367   3.656 -0.2498 -0.0949  0.0493
 6043W        W48955  17.000  27.153   1.466 -0.0975  0.2863 -0.0749
 6044W        W48956  17.293  23.273   0.511 -0.0648 -0.0085  0.0452
 6045W        W48957  16.868  25.321  31.927 -0.0233 -0.3690 -0.0698
 6046W        W48958  17.447  28.741  31.029 -0.0930 -0.2878 -0.2741
 6047W        W48959  15.085  25.604  31.790 -0.2143  0.2198 -0.0893
 6048W        W48960  16.622  26.284   3.299  0.2300 -0.1387 -0.2407
 6049W        W48961  16.104  27.140   2.091  0.2112 -0.2065 -0.0987
 6050W        W48962  16.630  27.705   2.489 -0.0563  0.3389 -0.1795
 6051W        W48963  15.370  25.605   1.218  0.0058 -0.1138 -0.0578
 6052W        W48964  19.120  26.886  31.395 -0.2100  0.2263 -0.1239
 6053W        W48965  17.442  27.465   2.028  0.2979  0.1225  0.1141
 6054W        W48966  16.629  28.480   3.433 -0.1317 -0.0974  0.0272
 6055W        W48967  17.417  28.980   2.195  0.1989 -0.0266 -0.0081
 6056W        W48968  17.486  26.753   1.344 -0.4234 -0.2748 -0.1149
 6057W        W48969  16.428  24.550   2.219 -0.0330  0.3476 -0.1473
 6058W        W48970  16.763  26.838   0.340 -0.2843  0.0580  0.2744
 6059W        W48971  15.340  26.110   0.758  0.0686  0.1977  0.1132
 6060W        W48972  18.834  26.869   1.093 -0.3846 -0.1626  0.1786
 6061W        W48973  15.949  26.333   2.052  0.2895 -0.1189  0.5235
 6062W        W48974  16.136  24.292  31.569  0.2553  0.2202 -0.0088
 6063W        W48975  17.064  28.317   2.196  0.1175  0.1035  0.0729
 6064W        W48976  16.652  28.078   2.107 -0.1175 -0.2080  0.3352
 6065W        W48977  15.157  28.223   6.645  0.1755  0.4553 -0.0603
 6066W        W48978  15.971  26.136   4.346  0.3380 -0.1304 -0.2045
 6067W        W48979  17.762  27.242   3.951  0.0614  0.0662 -0.0095
 6068W        W48980  18.909  27.942   5.298 -0.2076  0.0245 -0.1220
 6069W        W48981  16.117  25.686   5.747  0.1916 -0.3687  0.3227
 6070W        W48982  16.947  29.645   3.845  0.1485 -0.0817  0.1524
 6071W        W48983  14.597  25.442   5.961  0.1217 -0.0862 -0.0116
 6072W        W48984  17.579  28.532   5.056  0.2308 -0.0697  0.2551
 6073W        W48985  18.500  27.985   3.944 -0.2288  0.2093 -0.0633
 6074W        W48986  17.380  26.733   3.261 -0.1808  0.1613 -0.2453
 6075W        W48987  16.501  25.424   6.970 -0.0784 -0.0278  0.2083
 6076W        W48988  16.328  28.163   6.677 -0.0062  0.1924 -0.0182
 6077W        W48989  15.798  24.505   3.552 -0.3435  0.1330  0.0889
 6078W        W48990  14.067  24.105   5.324 -0.1057 -0.1641  0.2020
 6079W        W48991  17.417  27.279   4.625  0.2160  0.2517 -0.4333
 6080W        W48992  15.004  25.855   4.044  0.1915 -0.1575 -0.4303
 6081W        W48993  15.577  26.789   7.098  0.4371  0.2096  0.0467
 6082W        W48994  15.685  26.077   3.459 -0.0825 -0.1003 -0.0528
 6083W        W48995  16.774  28.750   5.947  0.0002  0.2463  0.5381
 6084W        W48996  16.148  25.822   7.745 -0.0521  0.2687 -0.3687
 6085W        W48997  16.189  25.917   7.202 -0.3371  0.4963  0.1060
 6086W        W48998  16.874  29.298   5.137 -0.1463  0.0190  0.3310
 6087W        W48999  15.684  25.261   2.501  0.2723 -0.0386 -0.1088
 6088W        W49000  14.045  25.291   6.370 -0.0206  0.3772  0.0208
 6089W        W49001  15.090  26.968   7.706  0.1383  0.3306 -0.0984
 6090W        W49002  17.515  25.956   6.052 -0.1025 -0.0280 -0.0330
 6091W        W49003  17.783  26.774   4.367 -0.0294 -0.3237 -0.0116
 6092W        W49004  16.028  27.473   4.887 -0.4017 -0.0382 -0.0390
 6093W        W49005  17.732  29.662   4.819  0.1747 -0.0349 -0.6319
 6094W        W49006  17.402  27.300   5.638  0.0812 -0.2701  0.0401
 6095W        W49007  15.322  27.193   3.646  0.1535  0.0604 -0.3564
 6096W        W49008  14.081  27.800   4.985  0.0108  0.1645 -0.0956
 6097W        W49009  15.673  26.025   3.971 -0.0155  0.1071  0.2755
 6098W        W49010  18.334  28.164   3.083  0.0109 -0.0910 -0.1450
 6099W        W49011  17.268  27.492   6.098 -0.3159 -0.2064 -0.1302
 6100W        W49012  16.342  28.750   5.523  0.0287  0.0763 -0.1108
 6101W        W49013  14.668  27.818   2.023  0.3105  0.1088  0.0343
 6102W        W49014  15.443  28.564   5.266 -0.0073 -0.0097  0.0949
 6103W        W49015  15.555  28.524   6.614 -0.0874 -0.1032  0.1640
 6104W        W49016  16.480  27.128   5.443 -0.3203  0.1364  0.0913
 6105W        W49017  16.238  27.013   3.883  0.3694 -0.0112 -0.1416
 6106W        W49018  16.660  28.338   4.006 -0.2094 -0.1115 -0.2679
 6107W        W49019  15.724  27.746   5.124 -0.0208  0.0189 -0.0314
 6108W        W49020  15.072  27.499   7.705 -0.0965  0.0810 -0.0852
 6109W        W49021  14.663  26.635   4.472  0.3366  0.2188 -0.1215
 6110W        W49022  18.281  26.107   6.737 -0.2965  0.5129  0.2115
 6111W        W49023  15.384  28.718   2.669  0.0181  0.2546 -0.0666
 6112W        W49024  17.069  26.508   3.567 -0.1225 -0.0405 -0.1815
 6113W        W49025  16.371  24.802   3.589 -0.3144 -0.2461  0.0134
 6114W        W49026  18.996  25.476   3.250 -0.1951  0.0366 -0.0466
 6115W        W49027  14.579  24.842   5.780 -0.0781 -0.0797  0.0229
 6116W        W49028  15.503  28.195   4.227 -0.1594  0.1368 -0.2953
 6117W        W49029  16.991  25.285   6.185 -0.1801  0.3514 -0.0730
 6118W        W49030  18.773  27.463   5.634  0.2319 -0.2149  0.0422
 6119W        W49031  17.542  26.654   5.261  0.1198 -0.3091 -0.1989
 6120W        W49032  18.262  25.717   5.337 -0.1439 -0.0446  0.1642
 6121W        W49033  15.632  27.753   6.899 -0.2377 -0.0562 -0.2110
 6122W        W49034  14.638  26.646   5.760  0.0990  0.0634  0.2548
 6123W        W49035  16.745  28.912   3.679  0.1060 -0.0453  0.1685
 6124W        W49036  19.166  28.494   4.128 -0.1463 -0.4207  0.1437
 6125W        W49037  17.434  28.332   4.085  0.0027 -0.1684 -0.2053
 6126W        W49038  15.029  25.527   5.064  0.0126 -0.0929 -0.2907
 6127W        W49039  14.776  27.344   7.310 -0.1014 -0.0575  0.2203
 6128W        W49040  14.009  26.326   6.391  0.0490  0.1671 -0.2149
 6129W        W49041  16.257  24.126   3.407 -0.1427  0.2289  0.4194
 6130W        W49042  18.231  28.237   7.332 -0.1075  0.1391 -0.0272
 6131W        W49043  15.584  29.025   6.487  0.0492 -0.1419  0.1528
 6132W        W49044  17.028  26.958   5.425 -0.1618  0.2052 -0.1449
 6133W        W49045  16.061  26.797   5.580  0.1746  0.0458  0.0457
 6134W        W49046  17.621  29.412   7.028  0.0100  0.1615  0.2086
 6135W        W49047  16.972  27.509   4.353 -0.1994  0.0131  0.1853
 6136W        W49048  17.008  25.992   6.358  0.3742  0.2521 -0.0553
 6137W        W49049  17.609  24.341   6.918 -0.0799  0.2755 -0.1118
 6138W        W49050  17.517  26.899   2.304  0.0079 -0.2865 -0.3502
 6139W        W49051  15.356  27.025   5.121 -0.1768 -0.0710 -0.2509
 6140W        W49052  19.085  28.522   5.282 -0.1952 -0.1514  0.0572
 6141W        W49053  17.031  26.023   3.483 -0.2171 -0.1621  0.1638
 6142W        W49054  15.991  29.179   5.576 -0.6669  0.0658 -0.3289
 6143W        W49055  15.909  27.299   5.737 -0.0490 -0.1394  0.0024
 6144W        W49056  15.383  27.820   6.483  0.0375  0.1427 -0.1654
 6145W        W49057  16.016  29.739   3.700  0.0191  0.0180  0.0913
 6146W        W49058  15.472  26.919   5.626 -0.2042  0.1311 -0.1021
 6147W        W49059  14.809  28.498   3.446  0.1721  0.0815  0.4422
 6148W        W49060  13.152  25.192   7.354  0.0032  0.0631 -0.0260
 6149W        W49061  16.532  28.188   5.791 -0.0468 -0.1241 -0.0608
 6150W        W49062  17.050  25.649   5.273 -0.0924 -0.4541  0.0372
 6151W        W49063  14.511  25.535   7.521  0.0645  0.0728  0.2005
 6152W        W49064  17.991  26.098   6.173 -0.0687 -0.2197 -0.0240
 6153W        W49065  16.679  28.028   4.457  0.5570  0.2460  0.5892
 6154W        W49066  17.749  28.881   3.699  0.2002  0.3174 -0.0231
 6155W        W49067  17.552  26.310   2.953  0.0924 -0.2641  0.2712
 6156W        W49068  17.468  27.643   5.221 -0.0103  0.1852 -0.1681
 6157W        W49069  13.235  26.489   7.487  0.1244 -0.1532  0.3118
 6158W        W49070  15.409  25.496   4.742  0.0119 -0.2910  0.1841
 6159W        W49071  14.024  25.523   7.897  0.2253 -0.1225 -0.1648
 6160W        W49072  15.054  24.959   5.891  0.0338  0.2449 -0.3271
 6161W        W49073  17.822  25.456   6.701  0.0326 -0.4301  0.3895
 6162W        W49074  15.422  24.866   2.384 -0.0250 -0.2184  0.3397
 6163W        W49075  17.156  25.156   4.629  0.0928  0.1244  0.0858
 6164W        W49076  16.524  26.593   3.686 -0.0326 -0.0190 -0.0078
 6165W        W49077  14.656  26.148   4.257 -0.0962 -0.2715 -0.0021
 6166W        W49078  18.662  26.115   7.352 -0.1623  0.1629 -0.1149
 6167W        W49079  16.257  29.883   4.608 -0.1544  0.2579 -0.0169
 6168W        W49080  18.372  28.415   6.588  0.0653 -0.1035 -0.0163
 6169W        W49081  18.112  28.422   4.891 -0.0585 -0.1032  0.0048
 6170W        W49082  16.631  25.001   6.361 -0.2461  0.2875  0.1212
 6171W        W49083  14.854  25.265   5.465  0.0719 -0.0811  0.2588
 6172W        W49084  15.786  29.703   6.407 -0.0411 -0.0453 -0.1763
 6173W        W49085  15.424  26.756   4.641  0.0751 -0.0392  0.0141
 6174W        W49086  15.098  24.828   5.419  0.1326 -0.2146  0.0366
 6175W        W49087  18.290  29.085   5.393  0.1911 -0.0695 -0.1669
 6176W        W49088  15.910  27.423   3.028  0.0634  0.1451  0.0905
 6177W        W49089  15.744  27.617   6.141 -0.2737 -0.0274  0.0021
 6178W        W49090  18.065  25.335   7.132 -0.0399 -0.1288 -0.1518
 6179W        W49091  18.448  26.348   6.297  0.0106  0.1619  0.2079
 6180W        W49092  16.215  27.134   4.565 -0.2681 -0.1790  0.1273
 6181W        W49093  16.570  24.189   2.805  0.1606  0.1481 -0.2396
 6182W        W49094  17.530  29.173   5.632  0.2710 -0.0431  0.0944
 6183W        W49095  15.824  28.524   3.959  0.5066 -0.2010  0.0357
 6184W        W49096  15.077  26.435   5.745  0.2610 -0.1926 -0.2530
 6185W        W49097  15.947  27.849   3.293  0.1489 -0.6169  0.2556
 6186W        W49098  18.544  25.577   5.725 -0.0882  0.0569 -0.0602
 6187W        W49099  14.437  27.423   6.921 -0.3282  0.2437 -0.0585
 6188W        W49100  17.096  26.806   6.979  0.0482 -0.2578 -0.2821
 6189W        W49101  14.804  25.576   3.598 -0.5105 -0.0197  0.1787
 6190W        W49102  16.993  27.435   5.257 -0.1277 -0.4969  0.2194
 6191W        W49103  17.835  27.493   5.936  0.1682  0.1811 -0.2836
 6192W        W49104  16.646  26.861   5.033  0.2039 -0.2633 -0.0880
 6193W        W49105  16.679  28.192   7.054 -0.0292 -0.2382  0.1235
 6194W        W49106  17.917  26.952   4.795 -0.1800  0.3295  0.2063
 6195W        W49107  18.193  27.028   3.835  0.0551 -0.0499  0.2230
 6196W        W49108  15.743  25.542   3.359 -0.6852 -0.2627 -0.1398
 6197W        W49109  14.725  28.368   7.845  0.1087  0.4022 -0.0670
 6198W        W49110  16.981  27.834   3.951 -0.0488 -0.1497 -0.0136
 6199W        W49111  18.099  28.198   6.012  0.3389  0.4402  0.0273
 6200W        W49112  16.205  27.531   3.713 -0.0130 -0.1883  0.1827
 6201W        W49113  18.182  28.261   5.477  0.1418 -0.2854 -0.0921
 6202W        W49114  14.731  28.153   6.147  0.0410  0.0148 -0.3694
 6203W        W49115  17.459  27.911   6.375  0.1332 -0.1491  0.0292
 6204W        W49116  18.525  28.694   5.185  0.1667 -0.0014  0.0139
 6205W        W49117  15.084  26.098   6.545 -0.2163  0.2016 -0.0443
 6206W        W49118  15.871  25.334   3.969 -0.0616  0.2430 -0.0309
 6207W        W49119  17.142  26.689   6.231 -0.1917  0.0752  0.0455
 6208W        W49120  14.195  29.044   4.316 -0.0311  0.0920  0.0355
 6209W        W49121  18.113  26.615   6.017 -0.1708  0.0450 -0.0115
 6210W        W49122  16.266  26.392   5.886 -0.2680 -0.0165 -0.3272
 6211W        W49123  15.910  25.426   7.965  0.0168 -0.2087 -0.2463
 6212W        W49124  17.441  25.195   6.470  0.2099 -0.2068 -0.0366
 6213W        W49125  17.146  25.306   3.168  0.2896 -0.0318 -0.1413
 6214W        W49126  16.616  26.628   5.486 -0.0246  0.2110 -0.2278
 6215W        W49127  15.214  26.176   3.257 -0.3305 -0.1952 -0.4595
 6216W        W49128  17.743  26.227   6.917 -0.0148  0.2605 -0.2846
 6217W        W49129  14.748  26.531   7.063  0.0876  0.0869 -0.1926
 6218W        W49130  15.354  29.058   6.026 -0.1305  0.1694 -0.0086
 6219W        W49131  15.156  27.730   7.152 -0.2400  0.0423 -0.0071
 6220W        W49132  16.778  27.173   4.642 -0.0156 -0.2181 -0.3377
 6221W        W49133  16.420  26.253   6.884 -0.0051  0.2329  0.2417
 6222W        W49134  16.082  26.524   4.003 -0.0737  0.1905  0.2964
 6223W        W49135  15.626  29.514   4.112 -0.1948  0.2624 -0.0025
 6224W        W49136  16.362  29.475   2.514  0.1424  0.2682  0.2127
 6225W        W49137  15.298  24.992   6.780  0.1857  0.2119  0.2258
 6226W        W49138  16.347  29.033   5.103 -0.0107  0.0170 -0.0237
 6227W        W49139  16.387  29.726   4.095 -0.1835 -0.1559  0.0302
 6228W        W49140  17.232  26.115   5.424  0.2057 -0.3291  0.0758
 6229W        W49141  14.867  28.572   5.384 -0.2827  0.0731  0.0159
 6230W        W49142  18.906  24.972   5.483 -0.3546 -0.1054 -0.0270
 6231W        W49143  14.485  27.617   5.341  0.0557 -0.0763  0.2241
 6232W        W49144  17.407  24.757   2.557  0.4830  0.2791 -0.2758
 6233W        W49145  15.401  27.216   4.461  0.1551  0.0451  0.0576
 6234W        W49146  17.214  27.040   4.968 -0.0060  0.1492 -0.1459
 6235W        W49147  16.337  27.455   3.197 -0.4487 -0.0242  0.0318
 6236W        W49148  16.747  25.825   6.833 -0.1257  0.0435 -0.0255
 6237W        W49149  15.872  25.545   7.046 -0.1294 -0.3438 -0.1065
 6238W        W49150  15.361  29.748   5.302 -0.3067  0.1347  0.1279
 6239W        W49151  19.066  27.293   7.298  0.1549 -0.2281  0.0811
 6240W        W49152  16.509  26.670   4.321  0.1518 -0.2644 -0.1439
 6241W        W49153  16.924  28.871   4.960 -0.1581 -0.1815  0.3797
 6242W        W49154  15.484  26.341   6.389 -0.0424  0.0553 -0.2113
 6243W        W49155  14.960  25.790   4.636  0.0393  0.1354  0.0759
 6244W        W49156  18.751  26.458   5.868 -0.0851  0.2541  0.2361
 6245W        W49157  15.593  26.304   4.768 -0.1872 -0.0721  0.0539
 6246W        W49158  14.456  28.094   4.227 -0.3387 -0.1925 -0.0763
 6247W        W49159  16.482  28.623   6.744  0.1789 -0.0955  0.0105
 6248W        W49160  16.226  25.315   3.513 -0.3160 -0.3571 -0.3471
 6249W        W49161  15.840  28.561   2.892  0.1558  0.1343 -0.2130
 6250W        W49162  15.687  26.077   7.733 -0.1007 -0.4349 -0.0705
 6251W        W49163  17.625  25.961   6.542  0.0011 -0.1450  0.1189
 6252W        W49164  15.578  25.626   5.879 -0.0869  0.2281 -0.0162
 6253W        W49165  15.239  25.984   5.017 -0.0818  0.0322  0.0628
 6254W        W49166  17.061  26.523   5.127  0.2414 -0.2759 -0.0666
 6255W        W49167  17.829  28.047   5.074  0.3163 -0.2982 -0.2139
 6256W        W49168  16.728  26.146   5.571 -0.0829  0.0368 -0.1323
 6257W        W49169  15.612  26.947   7.568 -0.1672  0.0679  0.2314
 6258W        W49170  15.839  25.617   6.275  0.1341 -0.3589 -0.0201
 6259W        W49171  18.440  28.642   2.954  0.1951  0.0753  0.1523
 6260W        W49172  16.494  27.288   7.110  0.1989 -0.1026 -0.0725
 6261W        W49173  16.082  26.798   3.504  0.3443  0.0752  0.0726
 6262W        W49174  15.726  27.777   5.654  0.2696  0.3012 -0.0799
 6263W        W49175  15.861  28.615   4.490 -0.3192  0.1495 -0.1164
 6264W        W49176  16.442  26.191   6.357 -0.0940  0.0175  0.2747
 6265W        W49177  15.213  28.286   6.133 -0.1845  0.1043  0.1971
 6266W        W49178  15.665  27.711   3.689  0.1282 -0.1326  0.0883
 6267W        W49179  14.432  28.249   4.776  0.0272  0.0390  0.2103
 6268W        W49180  17.060  26.749   4.503 -0.0124  0.0422 -0.0001
 6269W        W49181  16.520  27.834   3.504 -0.3604 -0.1797  0.1512
 6270W        W49182  15.160  26.528   6.795 -0.2461 -0.1289  0.0056
 6271W        W49183  19.285  26.510   6.773 -0.0756 -0.2611  0.0855
 6272W        W49184  17.706  28.214   4.524  0.1760 -0.0435  0.0311
 6273W        W49185  17.417  26.475   7.656 -0.2196 -0.1793 -0.3616
 6274W        W49186  15.527  25.407   7.510 -0.0887  0.1167 -0.0795
 6275W        W49187  17.313  28.606   4.672  0.0331 -0.0943  0.2264
 6276W        W49188  15.144  26.666   7.343 -0.0094 -0.1758  0.2045
 6277W        W49189  15.906  28.967   7.490  0.1348 -0.1390 -0.3283
 6278W        W49190  16.020  27.861   6.473  0.0486  0.0642 -0.1790
 6279W        W49191  15.806  24.660   4.444  0.1897  0.1103  0.1773
 6280W        W49192  16.330  24.181   4.822  0.1460 -0.0127 -0.1331
 6281W        W49193  16.726  26.599   6.554 -0.0699  0.0493  0.2515
 6282W        W49194  17.593  27.126   5.250 -0.2117  0.0497  0.2725
 6283W        W49195  16.079  28.623   3.462  0.0969 -0.0348  0.0159
 6284W        W49196  16.836  25.673   4.163  0.2335  0.0446  0.3008
 6285W        W49197  14.749  26.724   6.612  0.0114 -0.2477  0.1227
 6286W        W49198  18.407  26.683   4.095 -0.0467  0.0533  0.2414
 6287W        W49199  17.861  26.577   3.779 -0.2002 -0.0360  0.2079
 6288W        W49200  16.164  27.478   4.169  0.1008  0.3970 -0.3090
 6289W        W49201  14.893  26.448   6.198  0.1570  0.3116 -0.2234
 6290W        W49202  17.103  27.904   5.430 -0.0362  0.1312 -0.0520
 6291W        W49203  16.190  27.020   5.054 -0.3422  0.1987 -0.0639
 6292W        W49204  16.663  27.136   6.603  0.0332 -0.1712 -0.0960
 6293W        W49205  17.916  25.621   6.265  0.2836 -0.1471 -0.0202
 6294W        W49206  16.039  26.748   7.763 -0.0930 -0.0118 -0.2444
 6295W        W49207  13.791  25.661   6.876 -0.0632 -0.0396 -0.0744
 6296W        W49208  18.605  28.161   4.951  0.1820  0.0096  0.1044
 6297W        W49209  18.220  27.805   3.488  0.0458 -0.0998  0.0491
 6298W        W49210  17.426  26.165   4.444 -0.0016  0.0709 -0.1360
 6299W        W49211  17.577  26.541   4.751  0.1282  0.0064 -0.0971
 6300W        W49212  17.479  26.207   3.609  0.0084  0.0487 -0.1444
 6301W        W49213  14.403  26.271   6.071 -0.3853  0.0284 -0.2366
 6302W        W49214  16.659  28.404   6.238 -0.0515  0.1357 -0.0672
 6303W        W49215  15.480  27.135   3.146  0.3289 -0.0266  0.0920
 6304W        W49216  17.504  25.158   8.449  0.2293  0.0879 -0.2111
 6305W        W49217  17.477  28.951   4.241 -0.1682 -0.1371  0.4827
 6306W        W49218  17.337  27.030   4.226  0.0743 -0.2010  0.2657
 6307W        W49219  17.366  26.725   5.771  0.0168 -0.2691  0.1038
 6308W        W49220  15.705  26.798   6.614 -0.3013  0.1075  0.1047
 6309W        W49221  15.008  28.226   5.707  0.0990  0.0361 -0.3075
 6310W        W49222  15.905  25.707   2.561  0.1182 -0.1503 -0.0074
 6311W        W49223  15.687  29.163   1.998 -0.2777 -0.0596  0.1548
 6312W        W49224  16.082  28.048   5.953 -0.1749  0.1122  0.2395
 6313W        W49225  18.549  27.022   8.517  0.0282  0.0995  0.0394
 6314W        W49226  17.137  23.965   3.683  0.0822  0.1386  0.3278
 6315W        W49227  18.356  26.045   5.818  0.2969 -0.3651 -0.0894
 6316W        W49228  16.282  28.198   3.744  0.0797  0.1092 -0.2465
 6317W        W49229  17.262  25.667   6.571  0.2023 -0.0354 -0.1671
 6318W        W49230  15.458  29.016   3.925 -0.2118 -0.2320  0.2089
 6319W        W49231  14.651  27.841   7.132  0.1630  0.0457  0.3004
 6320W        W49232  16.733  27.983   4.939 -0.0241  0.1613  0.2694
 6321W        W49233  16.939  26.300   7.121 -0.0692 -0.1825 -0.0449
 6322W        W49234  16.279  26.051   5.454 -0.2678  0.2491  0.0092
 6323W        W49235  15.723  26.145   5.233 -0.1886 -0.0498  0.0663
 6324W        W49236  18.749  26.404   6.910 -0.1653 -0.4574 -0.2067
 6325W        W49237  17.427  27.840   5.841  0.0153  0.1675  0.0371
 6326W        W49238  16.461  27.035   6.034  0.0316 -0.2139 -0.2665
 6327W        W49239  16.380  29.070   5.962 -0.0172 -0.2101 -0.1744
 6328W        W49240  17.978  27.528   5.429 -0.0984  0.0637  0.0166
 6329W        W49241  14.779  27.263   6.620  0.0059 -0.2606 -0.1077
 6330W        W49242  15.056  27.984   7.903 -0.1486 -0.0506 -0.0371
 6331W        W49243  17.559  27.491   6.566  0.1456  0.2467 -0.1757
 6332W        W49244  16.885  27.534   5.746  0.0877 -0.3136  0.0829
 6333W        W49245  16.487  27.613   4.554  0.0473  0.0292  0.1231
 6334W        W49246  16.126  29.088   3.688 -0.0590 -0.0505  0.0075
 6335W        W49247  14.439  28.561   6.134  0.2884  0.0482  0.0926
 6336W        W49248  14.486  26.779   6.194  0.0752 -0.1531  0.0681
 6337W        W49249  15.926  29.010   4.205 -0.0700 -0.1185  0.1777
 6338W        W49250  17.301  28.124   4.985  0.0587  0.1871  0.0908
 6339W        W49251  16.944  26.851   3.998 -0.2113  0.2244  0.3719
 6340W        W49252  19.053  29.377   4.593 -0.2881  0.0292 -0.0348
 6341W        W49253  16.005  26.068   2.990  0.0560  0.1956  0.1666
 6342W        W49254  16.785  28.434   4.733  0.2225 -0.0554  0.1847
 6343W        W49255  14.883  27.317   4.140 -0.3020 -0.1653 -0.1022
 6344W        W49256  17.624  28.317   6.004  0.1696  0.0467  0.2053
 6345W        W49257  15.421  29.467   5.742 -0.1890 -0.0224 -0.1278
 6346W        W49258  16.973  27.068   5.909  0.1350 -0.0182 -0.1702
 6347W        W49259  16.630  26.234   5.053 -0.0334  0.0974  0.1396
 6348W        W49260  18.438  26.914   4.779 -0.0804 -0.0192  0.2760
 6349W        W49261  18.883  26.373   4.043 -0.1434  0.3202  0.2661
 6350W        W49262  16.141  28.534   5.950  0.1231 -0.0605  0.1500
 6351W        W49263  15.302  27.220   7.312  0.1279 -0.0940 -0.2129
 6352W        W49264  14.886  24.095   3.704  0.0753  0.2389 -0.1931
 6353W        W49265  14.519  25.435   8.074  0.2808 -0.0934 -0.2800
 6354W        W49266  18.601  24.495   6.756  0.2394 -0.0203 -0.2294
 6355W        W49267  14.997  28.887   7.752  0.0808  0.1989  0.2731
 6356W        W49268  16.924  30.687   4.586  0.0320 -0.2928 -0.0644
 6357W        W49269  15.652  26.420   5.712  0.1623 -0.0163  0.0096
 6358W        W49270  15.776  26.738   5.148 -0.3452  0.1710 -0.1912
 6359W        W49271  19.629  25.459   7.007  0.2917  0.0551 -0.1414
 6360W        W49272  17.029  27.415   2.462  0.2384 -0.0152 -0.0989
 6361W        W49273  16.564  27.158   4.197 -0.2273 -0.0236  0.0608
 6362W        W49274  15.122  28.108   3.274 -0.1578  0.1313  0.1236
 6363W        W49275  15.275  28.674   5.677  0.3360 -0.2134 -0.4418
 6364W        W49276  16.216  29.030   6.537  0.1263  0.0316 -0.2623
 6365W        W49277  13.315  24.997   5.425  0.1082 -0.0664 -0.2328
 6366W        W49278  17.857  26.162   4.755 -0.0011 -0.5168  0.0925
 6367W        W49279  14.695  25.837   6.765  0.1859  0.0596  0.1619
 6368W        W49280  18.719  25.279   8.049  0.2403  0.2460  0.0240
 6369W        W49281  16.414  27.633   5.884 -0.0290  0.2761  0.3532
 6370W        W49282  16.556  25.761   4.806 -0.0299  0.0478 -0.2685
 6371W        W49283  15.973  27.055   6.230 -0.0774  0.1391  0.1404
 6372W        W49284  14.405  25.558   7.012  0.3464 -0.1981  0.3593
 6373W        W49285  15.751  27.067   4.785  0.0583 -0.3556 -0.0964
 6374W        W49286  18.055  26.536   6.516  0.1623 -0.0299 -0.4014
 6375W        W49287  17.069  27.143   3.033  0.1538 -0.3144 -0.4730
 6376W        W49288  18.524  28.902   6.725  0.2519  0.1687 -0.0552
 6377W        W49289  15.730  27.323   6.571 -0.1705  0.3770 -0.1584
 6378W        W49290  15.836  27.263   3.489 -0.0897 -0.0675 -0.3265
 6379W        W49291  15.065  27.444   5.267  0.0984 -0.0962 -0.0948
 6380W        W49292  15.610  26.437   7.450 -0.0127 -0.3134  0.2063
 6381W        W49293  16.796  28.664   7.273 -0.0212 -0.1646 -0.0931
 6382W        W49294  14.944  24.501   5.053 -0.1620  0.1955  0.1198
 6383W        W49295  19.019  27.583   2.168 -0.0564  0.1655 -0.3669
 6384W        W49296  17.828  25.818   4.311 -0.1235 -0.1499  0.1129
 6385W        W49297  17.042  29.205   4.555 -0.2636  0.0101 -0.0753
 6386W        W49298  17.533  27.740   4.738  0.2253 -0.0406 -0.0845
 6387W        W49299  17.429  29.733   5.721 -0.0864 -0.3273 -0.1368
 6388W        W49300  14.536  25.406   6.483  0.1442 -0.1554  0.1328
 6389W        W49301  17.127  29.575   6.154 -0.2421  0.0746  0.0340
 6390W        W49302  19.081  27.351   5.263 -0.1245  0.0132  0.2454
 6391W        W49303  15.427  25.941   4.437  0.0316 -0.0370 -0.0597
 6392W        W49304  15.882  26.055   6.055  0.0499  0.1013  0.1209
 6393W        W49305  15.301  29.385   5.016 -0.1837  0.2665 -0.0300
 6394W        W49306  18.860  25.845   6.055 -0.0141 -0.0128  0.0801
 6395W        W49307  17.817  26.888   5.709  0.1025 -0.1326  0.0667
 6396W        W49308  17.944  28.614   3.243  0.0999 -0.4118  0.0575
 6397W        W49309  17.653  24.760   9.001 -0.0311 -0.1146  0.0809
 6398W        W49310  15.237  28.098   5.158 -0.0463 -0.1844 -0.1690
 6399W        W49311  15.148  28.643   6.940  0.2347 -0.2113  0.0259
 6400W        W49312  14.162  26.723   3.204 -0.1479  0.0673 -0.3244
 6401W        W49313  17.858  27.957   5.649 -0.1296  0.1129 -0.1752
 6402W        W49314  15.972  28.096   5.425  0.1795 -0.1253 -0.1196
 6403W        W49315  17.076  27.597   4.842  0.0934 -0.1078  0.0505
 6404W        W49316  18.464  29.427   4.550 -0.0225  0.0274 -0.1193
 6405W        W49317  16.561  26.847   7.000  0.0242  0.0057  0.3007
 6406W        W49318  18.517  28.577   4.643  0.3341 -0.1143  0.1985
 6407W        W49319  15.834  25.654   4.392 -0.4833  0.1741 -0.0187
 6408W        W49320  17.795  25.911   5.278  0.1014  0.0019 -0.0911
 6409W        W49321  15.812  24.279   4.994 -0.2046  0.0614  0.0832
 6410W        W49322  16.519  27.883   6.288  0.1903  0.2041 -0.0711
 6411W        W49323  15.809  26.915   4.312  0.0899 -0.0364 -0.1165
 6412W        W49324  15.291  26.720   3.235 -0.0456  0.0929 -0.0403
 6413W        W49325  15.274  27.806   5.885  0.0596  0.0257 -0.1391
 6414W        W49326  16.730  24.979   7.011  0.0009  0.2265 -0.1424
 6415W        W49327  15.308  25.951   6.122 -0.1318  0.2035  0.1866
 6416W        W49328  13.834  26.517   5.426  0.0500 -0.0296  0.2094
 6417W        W49329  15.298  25.407   5.528  0.1141 -0.0899  0.0667
 6418W        W49330  18.662  28.468   3.466  0.1389  0.0371 -0.2370
 6419W        W49331  15.076  25.485   6.035  0.2454  0.0728  0.1817
 6420W        W49332  14.848  24.458   4.065  0.1122 -0.1187  0.0465
 6421W        W49333  18.361  27.712   4.333  0.1215  0.0884 -0.2552
 6422W        W49334  17.298  28.688   5.726  0.2490 -0.0170 -0.0866
 6423W        W49335  16.551  27.518   5.072  0.0328 -0.1707  0.0197
 6424W        W49336  18.459  26.855   6.333 -0.3301 -0.1281 -0.0956
 6425W        W49337  15.771  27.497   4.486  0.0070  0.1612  0.0430
 6426W        W49338  16.211  26.681   6.496 -0.1200  0.1730 -0.0460
 6427W        W49339  17.013  25.934   7.544 -0.0622  0.1530 -0.2254
 6428W        W49340  14.340  25.771   5.631 -0.0941  0.0394 -0.3808
 6429W        W49341  15.772  26.167   7.005 -0.3412  0.0467 -0.0183
 6430W        W49342  18.207  29.494   5.031 -0.0309  0.2640  0.0342
 6431W        W49343  17.668  28.025   2.718 -0.2738  0.2268  0.0659
 6432W        W49344  16.270  27.884   4.987 -0.3200  0.1806  0.1443
 6433W        W49345  14.982  27.547   6.183  0.4411 -0.3780  0.0890
 6434W        W49346  14.549  25.985   7.189 -0.0551  0.0316  0.0757
 6435W        W49347  16.348  26.403   2.881  0.0576 -0.0524  0.0697
 6436W        W49348  16.592  27.608   6.748  0.2792 -0.0660  0.0603
 6437W        W49349  17.577  29.408   3.869  0.0613 -0.0263  0.0703
 6438W        W49350  19.154  24.830   6.210  0.1208  0.0751  0.1409
 6439W        W49351  17.827  27.511   4.394 -0.1887  0.1693  0.0785
 6440W        W49352  13.424  25.952   6.781  0.0627 -0.0612  0.0668
 6441W        W49353  15.512  25.907   7.321  0.0696 -0.0806 -0.5308
 6442W        W49354  18.468  26.163   5.286 -0.1705 -0.1661  0.0033
 6443W        W49355  16.118  25.963   4.854  0.1279 -0.0137 -0.1649
 6444W        W49356  16.111  26.634   4.650 -0.0561 -0.2501 -0.2882
 6445W        W49357  18.095  27.878   4.709 -0.0891 -0.1272 -0.2856
 6446W        W49358  14.932  26.940   6.010 -0.1236 -0.0799 -0.2309
 6447W        W49359  16.822  26.294   4.331 -0.0425 -0.1363 -0.1081
 6448W        W49360  16.072  26.588   6.936  0.0641  0.2432  0.1344
 6449W        W49361  16.981  27.917   6.106 -0.0936  0.2126  0.0248
 6450W        W49362  17.821  26.770   7.132 -0.3361  0.2470  0.2626
 6451W        W49363  15.694  27.324   3.968  0.2723  0.2567  0.3894
 6452W        W49364  17.438  26.858   3.714 -0.0050 -0.2791 -0.1575
 6453W        W49365  17.195  28.432   6.142  0.1091 -0.0579  0.0047
 6454W        W49366  17.406  27.665   7.205  0.0624  0.1536 -0.0441
 6455W        W49367  15.664  28.164   6.278  0.1130  0.1064 -0.2499
 6456W        W49368  17.695  26.333   5.690  0.0460  0.0005 -0.0912
 6457W        W49369  13.234  24.877   6.375 -0.0400  0.1315  0.3575
 6458W        W49370  17.053  28.461   5.242 -0.0182  0.0188  0.1330
 6459W        W49371  15.997  27.973   4.576  0.2761 -0.1945  0.0564
 6460W        W49372  17.113  26.306   5.895  0.0266 -0.2827  0.2519
 6461W        W49373  16.000  26.194   6.580  0.0190 -0.0970 -0.1296
 6462W        W49374  16.584  25.191   4.278  0.2119  0.1661 -0.0778
 6463W        W49375  15.646  29.968   5.655  0.0898  0.2963  0.0025
 6464W        W49376  16.599  27.842   5.458 -0.0252  0.0450  0.2637
 6465W        W49377  15.611  27.330  10.097 -0.0343  0.1004 -0.1484
 6466W        W49378  16.035  25.438   8.489  0.1019  0.2813  0.1216
 6467W        W49379  18.010  27.346   7.216 -0.1122  0.0506  0.2892
 6468W        W49380  18.011  26.909   8.592 -0.1428  0.2085 -0.0977
 6469W        W49381  14.365  26.099   8.716  0.0418  0.0316 -0.1853
 6470W        W49382  16.853  28.759   7.783 -0.0632  0.0816 -0.0873
 6471W        W49383  17.527  28.715   7.061  0.2984  0.0257 -0.0993
 6472W        W49384  18.175  29.164   7.678 -0.2309 -0.1506  0.1891
 6473W        W49385  17.100  27.650   6.600 -0.2431 -0.0104  0.2529
 6474W        W49386  15.294  25.429   9.829  0.1395  0.2147 -0.1913
 6475W        W49387  16.167  26.947   7.344  0.1071 -0.3178 -0.1344
 6476W        W49388  13.820  24.982   9.667 -0.2296  0.4014  0.0875
 6477W        W49389  15.358  26.442   9.062 -0.2623 -0.2103 -0.2974
 6478W        W49390  15.299  26.961   8.507  0.2946  0.3756 -0.1137
 6479W        W49391  13.744  25.440   9.498  0.1514  0.1439 -0.1973
 6480W        W49392  15.213  26.406   8.513 -0.0414  0.0663 -0.1614
 6481W        W49393  15.599  28.706   9.497 -0.0508 -0.2043  0.1535
 6482W        W49394  17.828  26.558   9.517  0.0092  0.1678 -0.0751
 6483W        W49395  15.423  28.020   7.539  0.3404 -0.0497  0.1664
 6484W        W49396  14.267  27.418   7.404  0.0809 -0.1860 -0.1967
 6485W        W49397  13.966  26.418  10.282 -0.3961  0.1135 -0.0385
 6486W        W49398  16.129  26.429   9.672  0.1176  0.1543  0.2854
 6487W        W49399  17.734  27.314  10.047 -0.1334 -0.1669  0.0053
 6488W        W49400  17.430  26.975   8.458  0.2704  0.0614 -0.2946
 6489W        W49401  16.206  28.587   8.934  0.2723 -0.0843  0.1219
 6490W        W49402  16.351  27.972   9.353  0.2634  0.2175 -0.0529
 6491W        W49403  14.130  25.951   9.171 -0.3040  0.1986 -0.2446
 6492W        W49404  14.104  28.774   9.067 -0.5269 -0.1575 -0.0870
 6493W        W49405  14.951  28.852   8.966 -0.3873 -0.2675  0.1299
 6494W        W49406  17.602  27.003   8.985 -0.2577 -0.2462  0.1844
 6495W        W49407  15.303  27.242   8.093  0.0690 -0.0385 -0.2306
 6496W        W49408  16.597  27.003   9.031  0.1226 -0.0902 -0.3433
 6497W        W49409  16.223  27.103  10.024 -0.0563  0.2173  0.0942
 6498W        W49410  16.914  27.769   7.191  0.0796 -0.2061 -0.4767
 6499W        W49411  16.709  28.247   7.574 -0.1362 -0.1720 -0.0100
 6500W        W49412  14.138  25.418   9.887  0.2370 -0.1621  0.2119
 6501W        W49413  15.029  28.365   7.492  0.4014  0.1857  0.0155
 6502W        W49414  17.370  26.974   7.928 -0.4574 -0.0790  0.0204
 6503W        W49415  16.612  25.916   7.883  0.0318 -0.0477 -0.2890
 6504W        W49416  16.581  26.157   7.416 -0.3930  0.2441 -0.5030
 6505W        W49417  16.079  23.568   8.676 -0.1578 -0.1328  0.0398
 6506W        W49418  15.124  26.843   8.945  0.1504  0.0334 -0.4242
 6507W        W49419  13.893  24.321  10.259  0.2980 -0.3354  0.0240
 6508W        W49420  16.602  27.611   9.024  0.1680 -0.1097 -0.3873
 6509W        W49421  15.809  26.798   9.805  0.4000 -0.2382 -0.5237
 6510W        W49422  14.021  27.141   9.651 -0.4701  0.1076 -0.0203
 6511W        W49423  14.560  26.164   9.222  0.0900  0.0412 -0.2204
 6512W        W49424  17.971  28.718   7.389  0.0450  0.0289  0.0696
 6513W        W49425  18.323  28.169   9.282  0.0806 -0.0993 -0.4278
 6514W        W49426  16.249  27.438   6.392 -0.3817  0.0551  0.1042
 6515W        W49427  14.297  26.259   9.921 -0.0642 -0.0743 -0.1890
 6516W        W49428  15.228  25.068   7.325  0.2625  0.1187  0.0080
 6517W        W49429  18.477  25.966   8.654  0.0567 -0.1614  0.3461
 6518W        W49430  16.636  26.399   9.925 -0.1719  0.4130 -0.0964
 6519W        W49431  17.469  27.711   8.954 -0.1132  0.1949 -0.1768
 6520W        W49432  17.514  27.073   6.089  0.0337 -0.1667  0.0498
 6521W        W49433  15.883  25.350   9.856  0.1750  0.3506  0.1650
 6522W        W49434  15.183  26.686   9.531 -0.0398  0.0157 -0.0836
 6523W        W49435  15.768  27.267   7.126 -0.0764 -0.0146 -0.1159
 6524W        W49436  16.185  27.388   8.726 -0.1760  0.0160 -0.0699
 6525W        W49437  17.222  27.565   9.418  0.0172  0.2141  0.1189
 6526W        W49438  18.278  26.441   7.086 -0.0571 -0.1866  0.1314
 6527W        W49439  13.026  27.123  10.049  0.1401  0.0002  0.0491
 6528W        W49440  14.907  28.627   5.948 -0.2057  0.2497 -0.0921
 6529W        W49441  12.677  25.897   9.537  0.1625  0.2265 -0.1542
 6530W        W49442  13.949  28.249   8.449 -0.1327  0.0988 -0.0354
 6531W        W49443  12.387  25.119   9.555 -0.0778 -0.1134  0.1687
 6532W        W49444  15.955  28.523   9.809  0.2645  0.2271  0.2107
 6533W        W49445  17.523  25.688   8.683  0.1535  0.2089  0.3517
 6534W        W49446  17.509  26.172   9.473 -0.1588  0.0241  0.0284
 6535W        W49447  15.483  28.652   8.535 -0.1337  0.1597  0.2116
 6536W        W49448  19.292  28.297   6.511 -0.2880  0.1622 -0.1294
 6537W        W49449  17.059  25.829   8.650  0.1739 -0.2902  0.0484
 6538W        W49450  16.967  28.178   6.525 -0.2896  0.2965  0.1659
 6539W        W49451  13.987  25.895   9.664  0.1414 -0.0019  0.2630
 6540W        W49452  14.537  26.295   8.212 -0.1190  0.1854 -0.0182
 6541W        W49453  13.270  23.469   9.150 -0.1132 -0.0334  0.3624
 6542W        W49454  13.710  24.666   8.408  0.1951  0.3686  0.0943
 6543W        W49455  17.337  26.645   9.862  0.5232 -0.0339 -0.1487
 6544W        W49456  16.993  27.571   8.560 -0.3232  0.1903 -0.1992
 6545W        W49457  15.926  26.158  10.126 -0.0514  0.0512  0.0166
 6546W        W49458  18.140  27.279   6.631  0.1704  0.1710 -0.0151
 6547W        W49459  18.201  29.437   9.669 -0.2465 -0.2845 -0.1644
 6548W        W49460  16.771  29.047   6.928  0.2222 -0.4155 -0.0805
 6549W        W49461  15.514  27.037   9.283  0.0898 -0.0745  0.2729
 6550W        W49462  15.236  25.550   7.828  0.1552  0.2048 -0.1140
 6551W        W49463  16.175  29.081   9.835  0.0039 -0.0049 -0.0986
 6552W        W49464  16.483  27.815   8.508 -0.4449 -0.1573 -0.0621
 6553W        W49465  15.287  26.122   8.137  0.0233 -0.1984 -0.1144
 6554W        W49466  18.823  28.958   8.810 -0.0669  0.0106  0.4070
 6555W        W49467  16.000  27.761   7.755  0.1204  0.1320  0.0574
 6556W        W49468  16.801  27.306   9.472  0.2501  0.1063 -0.0781
 6557W        W49469  16.996  25.845   9.577 -0.0178 -0.1908 -0.2884
 6558W        W49470  15.293  25.019   7.829  0.0763  0.0464  0.0973
 6559W        W49471  15.620  27.548   7.458  0.0354 -0.1111  0.1121
 6560W        W49472  15.294  28.195   8.451 -0.2753  0.2058 -0.0635
 6561W        W49473  14.225  26.589   8.464 -0.2783  0.0563  0.2306
 6562W        W49474  16.151  28.442   7.239 -0.0814 -0.0929 -0.1549
 6563W        W49475  16.607  25.856   9.926  0.2611  0.1841  0.1931
 6564W        W49476  15.038  26.092   7.103 -0.0056 -0.2535  0.1730
 6565W        W49477  17.751  24.880   9.838  0.1564  0.0451 -0.2410
 6566W        W49478  16.757  26.969   7.419 -0.0221 -0.3459 -0.0539
 6567W        W49479  17.977  28.259   7.766  0.0396  0.2041  0.4776
 6568W        W49480  16.899  25.341   6.686 -0.0873 -0.0555 -0.0037
 6569W        W49481  16.895  26.457   7.673 -0.1322  0.1982  0.1031
 6570W        W49482  17.675  27.377   7.627  0.2818  0.1055 -0.0300
 6571W        W49483  16.161  27.947   8.845 -0.2137  0.0964 -0.1554
 6572W        W49484  17.407  26.482   7.196  0.0266  0.2490  0.4494
 6573W        W49485  18.617  27.458   8.073  0.0626 -0.0752 -0.2937
 6574W        W49486  11.870  24.627   9.074  0.1951 -0.1886 -0.2816
 6575W        W49487  17.163  28.287   7.264 -0.4513 -0.2718 -0.1375
 6576W        W49488  14.224  24.202   8.722  0.1188  0.0360  0.0838
 6577W        W49489  16.591  25.669   7.424  0.0726  0.0417 -0.0897
 6578W        W49490  15.941  25.592   9.347 -0.0396  0.1077  0.0153
 6579W        W49491  14.107  29.377   7.456 -0.0646 -0.1339  0.0450
 6580W        W49492  16.189  23.293   9.643 -0.1024 -0.0139 -0.3010
 6581W        W49493  16.238  26.680   8.205  0.1954 -0.4211 -0.0199
 6582W        W49494  16.625  27.578   7.506 -0.4199 -0.0669  0.2435
 6583W        W49495  17.340  26.553   9.138 -0.0135 -0.0022  0.2448
 6584W        W49496  15.160  26.138   7.625  0.0354 -0.2371 -0.0415
 6585W        W49497  16.659  24.902   8.845 -0.1119  0.2922  0.1237
 6586W        W49498  13.988  28.908   9.557  0.1101 -0.0146 -0.3558
 6587W        W49499  16.931  27.009   8.369 -0.3806  0.3124 -0.1854
 6588W        W49500  16.913  25.453   7.780 -0.2152  0.0854 -0.3057
 6589W        W49501  15.663  28.415   7.572 -0.4597 -0.0389 -0.2185
 6590W        W49502  16.494  27.730   7.942  0.1783 -0.0279  0.0133
 6591W        W49503  15.506  24.792   8.578  0.2197 -0.1559  0.3705
 6592W        W49504  15.747  27.876   9.221  0.3086 -0.3503 -0.0431
 6593W        W49505  15.834  27.984   7.329 -0.1573  0.0742 -0.1446
 6594W        W49506  17.442  28.048   9.461 -0.2606  0.0743 -0.1320
 6595W        W49507  17.403  28.860   8.070  0.0098 -0.2277 -0.0729
 6596W        W49508  17.836  24.949   8.129  0.1173 -0.0425  0.0055
 6597W        W49509  12.096  26.349  10.182 -0.0439  0.0273  0.2223
 6598W        W49510  15.419  26.553   7.892 -0.1858  0.1912  0.1480
 6599W        W49511  14.934  26.436   7.955 -0.0132  0.0835  0.4304
 6600W        W49512  17.734  24.485  10.203 -0.0863  0.2943 -0.1593
 6601W        W49513  17.998  27.765   7.638  0.0413 -0.1504 -0.3703
 6602W        W49514  14.621  24.450  10.134 -0.0682 -0.0787 -0.1146
 6603W        W49515  15.598  25.015   9.541 -0.1556 -0.0371 -0.4757
 6604W        W49516  13.540  26.998   9.676  0.0551 -0.1378  0.1123
 6605W        W49517  16.866  24.079   6.518 -0.2586 -0.0273 -0.3949
 6606W        W49518  16.276  24.911   7.613 -0.2611  0.0033  0.4087
 6607W        W49519  16.559  26.159   9.496 -0.3197 -0.0639  0.1330
 6608W        W49520  16.313  26.534   9.160 -0.2722  0.0344 -0.0143
 6609W        W49521  14.739  26.638   9.245  0.0587  0.0575 -0.2901
 6610W        W49522  17.409  29.428   8.524  0.4066 -0.0514  0.2363
 6611W        W49523  15.612  26.607   8.334  0.2655  0.1397 -0.0091
 6612W        W49524  16.122  26.745   8.722  0.0888 -0.0231  0.1348
 6613W        W49525  17.986  26.092   9.444 -0.2811  0.2480  0.0837
 6614W        W49526  17.201  27.205   9.820  0.1012  0.0526 -0.2898
 6615W        W49527  14.627  24.935   8.028  0.1637  0.3204 -0.1069
 6616W        W49528  15.784  26.609   9.256 -0.1572 -0.0240 -0.1243
 6617W        W49529  17.267  28.433   8.499 -0.1429  0.2680  0.1664
 6618W        W49530  15.460  23.955  10.021 -0.2172 -0.1668 -0.1471
 6619W        W49531  16.344  25.013   9.920 -0.1582 -0.0048  0.0694
 6620W        W49532  18.714  28.054   7.358  0.1413  0.1404 -0.1210
 6621W        W49533  15.735  27.352   7.885 -0.2584 -0.0220  0.0410
 6622W        W49534  14.451  25.862   9.653  0.1676  0.1639 -0.0541
 6623W        W49535  16.320  27.909   7.308 -0.2019  0.0667  0.0258
 6624W        W49536  16.100  24.918   8.640 -0.0295  0.1690  0.0588
 6625W        W49537  13.431  27.915   9.448 -0.0867 -0.0482 -0.0839
 6626W        W49538  14.917  27.281   8.551  0.1647  0.0575 -0.1658
 6627W        W49539  13.889  26.808   8.716  0.2176  0.0703  0.1548
 6628W        W49540  16.705  25.568   8.244  0.1198  0.1162  0.0302
 6629W        W49541  15.865  28.227   6.894 -0.0978  0.2332 -0.0758
 6630W        W49542  15.786  26.353   8.791  0.1148  0.0316 -0.0510
 6631W        W49543  17.223  26.421   6.700  0.3178 -0.2476  0.0215
 6632W        W49544  14.049  26.113   8.320 -0.2580  0.2941 -0.2396
 6633W        W49545  17.374  28.080   6.878  0.1547 -0.3919  0.0432
 6634W        W49546  17.211  25.527   8.245  0.0276  0.2221  0.0336
 6635W        W49547  16.187  24.939   6.940 -0.2478  0.2559 -0.2008
 6636W        W49548  16.052  27.545   8.273  0.3177 -0.2078 -0.0637
 6637W        W49549  18.201  28.695   9.249 -0.1082  0.0729 -0.2277
 6638W        W49550  16.171  26.389   7.382 -0.0468  0.0213  0.0401
 6639W        W49551  16.815  26.576   9.142  0.0577  0.2290  0.2658
 6640W        W49552  16.784  27.817   9.507  0.1571 -0.3419 -0.2914
 6641W        W49553  18.711  26.165  10.308 -0.1134  0.0071 -0.2953
 6642W        W49554  17.027  26.390   9.612  0.1630  0.2049 -0.4484
 6643W        W49555  15.798  28.289   8.863 -0.4404  0.0221 -0.1224
 6644W        W49556  17.787  27.593   8.176  0.0678 -0.0707 -0.2832
 6645W        W49557  15.581  25.496   8.754 -0.2420  0.1009  0.2830
 6646W        W49558  17.066  29.312   8.145 -0.0693 -0.0984  0.1424
 6647W        W49559  17.919  25.679   7.525  0.0656  0.1324 -0.0416
 6648W        W49560  17.179  26.951   9.356 -0.0054  0.2902  0.2539
 6649W        W49561  18.112  25.395   8.880 -0.0730 -0.0644  0.1481
 6650W        W49562  16.621  26.163   8.893  0.3386 -0.0204  0.0496
 6651W        W49563  15.569  25.964   9.206 -0.1856  0.1741  0.2746
 6652W        W49564  15.853  27.090   8.338 -0.1552  0.2364  0.2236
 6653W        W49565  16.233  27.181   7.904  0.4061 -0.1085 -0.1287
 6654W        W49566  16.421  28.513   8.010 -0.0693  0.1842 -0.4043
 6655W        W49567  16.299  26.921   9.489  0.0844 -0.1836 -0.0103
 6656W        W49568  14.214  26.915  10.022 -0.0818 -0.0108 -0.0557
 6657W        W49569  13.629  24.192   7.744  0.0006 -0.0888  0.0085
 6658W        W49570  16.143  27.066   6.799  0.0114  0.2194 -0.0097
 6659W        W49571  16.566  28.216   8.979 -0.0151 -0.1906 -0.1073
 6660W        W49572  16.099  25.343   7.417  0.0350  0.0419  0.1665
 6661W        W49573  14.504  27.126   9.224  0.0550 -0.1403  0.0519
 6662W        W49574  17.040  22.959   8.780 -0.1934 -0.1372 -0.1233
 6663W        W49575  15.800  27.358   9.486 -0.1238 -0.1338  0.6930
 6664W        W49576  15.866  28.955   8.736 -0.1952 -0.1045  0.3107
 6665W        W49577  16.997  24.102   9.672  0.0182  0.0068 -0.0642
 6666W        W49578  16.452  25.748   8.695 -0.0265 -0.0272 -0.0937
 6667W        W49579  16.177  25.706  10.191 -0.1538 -0.0543 -0.3644
 6668W        W49580  15.782  27.980   8.465  0.0750 -0.1454  0.0438
 6669W        W49581  16.417  28.216   9.771 -0.0855 -0.1413  0.2819
 6670W        W49582  15.984  28.452   8.445 -0.3643  0.0602  0.2015
 6671W        W49583  16.195  28.054   8.190 -0.3260 -0.2790 -0.0752
 6672W        W49584  16.371  25.364   7.826  0.2193  0.0390 -0.0672
 6673W        W49585  17.096  26.914   8.865  0.0564  0.2849 -0.0825
 6674W        W49586  13.312  25.748   9.477 -0.2330  0.0241  0.2141
 6675W        W49587  15.730  28.220   8.021 -0.0423 -0.0551  0.0259
 6676W        W49588  17.144  27.395   7.576 -0.1157 -0.1769 -0.1237
 6677W        W49589  17.294  27.423   8.161  0.0916 -0.0803 -0.4013
 6678W        W49590  17.830  28.714   7.919  0.1772 -0.1729 -0.4211
 6679W        W49591  16.233  25.939   8.243  0.2308 -0.0908  0.2310
 6680W        W49592  14.729  28.160   8.315 -0.1016  0.0142  0.1024
 6681W        W49593  15.038  29.152   7.300 -0.1855 -0.0815 -0.1948
 6682W        W49594  17.049  27.313   7.017  0.2054  0.1780 -0.3484
 6683W        W49595  13.932  27.005   7.994 -0.2568 -0.2020 -0.1932
 6684W        W49596  17.723  25.499   8.161  0.4117 -0.0686 -0.0750
 6685W        W49597  18.320  26.600   9.996 -0.0312  0.1946 -0.1328
 6686W        W49598  18.449  26.312   8.225 -0.3442  0.0166 -0.0746
 6687W        W49599  15.692  26.885   8.805 -0.1762 -0.0285 -0.0383
 6688W        W49600  17.242  26.033   8.049  0.2032 -0.0910  0.0688
 6689W        W49601  18.541  28.523   7.051 -0.0652 -0.0631 -0.3073
 6690W        W49602  14.892  25.853   7.970 -0.0475 -0.2120 -0.1110
 6691W        W49603  15.468  25.985   8.698 -0.1124 -0.0009  0.0923
 6692W        W49604  16.403  25.440   9.674  0.0185 -0.1126 -0.0202
 6693W        W49605  16.460  27.107   8.469 -0.1244 -0.0956  0.0199
 6694W        W49606  16.176  25.274   8.983 -0.0669 -0.0055 -0.1565
 6695W        W49607  15.606  29.143   7.840 -0.0659 -0.0329  0.1970
 6696W        W49608  15.906  27.978   9.715 -0.1114  0.0754 -0.0189
 6697W        W49609  16.873  28.369   8.150 -0.0045 -0.0761  0.3529
 6698W        W49610  13.738  26.542   8.133 -0.2844 -0.1090 -0.4112
 6699W        W49611  17.657  26.101   8.348  0.1248  0.2138  0.1740
 6700W        W49612  15.577  25.119  10.171 -0.0308 -0.0542  0.4040
 6701W        W49613  14.891  26.009   8.511 -0.2850 -0.3459 -0.2046
 6702W        W49614  17.355  25.386   9.539 -0.2151  0.1367 -0.0810
 6703W        W49615  16.434  27.780  10.028  0.0171 -0.0156  0.4699
 6704W        W49616  15.385  26.191  10.020  0.0053  0.0268 -0.1844
 6705W        W49617  15.918  26.349   8.086 -0.0631  0.0059 -0.0612
 6706W        W49618  17.540  27.190   6.975  0.1903 -0.0570 -0.1835
 6707W        W49619  15.536  24.335   9.005  0.0513  0.0464 -0.5352
 6708W        W49620  17.405  25.637   7.810 -0.0767  0.0600 -0.1601
 6709W        W49621  15.244  27.376   8.910 -0.0778 -0.0278 -0.3222
 6710W        W49622  16.372  26.317   7.816  0.0780 -0.0611  0.0413
 6711W        W49623  14.715  25.223   9.047  0.0299  0.3319 -0.1880
 6712W        W49624  17.825  27.850   6.887 -0.2713 -0.1346 -0.3462
 6713W        W49625  19.634  26.552  10.116 -0.1968 -0.1727 -0.0541
 6714W        W49626  16.882  28.786   6.454  0.3713  0.0688  0.3094
 6715W        W49627  17.678  27.414   8.648  0.0331 -0.0057  0.0185
 6716W        W49628  17.389  28.952   8.631  0.1042  0.3256  0.2808
 6717W        W49629  13.802  26.615   9.860  0.1988  0.2350  0.0176
 6718W        W49630  16.439  28.335   8.528 -0.0878 -0.2338 -0.1630
 6719W        W49631  17.744  27.480   9.316 -0.2381  0.1701 -0.0947
 6720W        W49632  16.019  26.112   9.188  0.1570  0.2344 -0.1959
 6721W        W49633  15.981  25.864   8.775 -0.2324 -0.0717  0.1874
 6722W        W49634  15.474  27.771   8.087 -0.2526 -0.1082  0.1176
 6723W        W49635  17.911  25.812  10.218  0.3131  0.3314  0.3137
 6724W        W49636  17.121  27.897   7.599  0.0876  0.1605  0.1218
 6725W        W49637  18.509  27.175  10.148  0.0047  0.0040 -0.2174
 6726W        W49638  14.620  27.142   7.757 -0.0443  0.1967 -0.0919
 6727W        W49639  15.740  27.456   8.967 -0.0802  0.0373  0.0354
 6728W        W49640  16.093  29.115   8.280  0.1498 -0.0282 -0.0964
 6729W        W49641  18.152  29.006   8.168  0.0419  0.0319  0.0731
 6730W        W49642  16.591  26.600   8.676 -0.1925  0.0797  0.0147
 6731W        W49643  17.067  26.066   9.154  0.3239 -0.2171 -0.0275
 6732W        W49644  15.758  24.987   7.693 -0.0350 -0.1132  0.1738
 6733W        W49645  18.054  25.874   8.941  0.2358 -0.0078 -0.3239
 6734W        W49646  18.806  24.797   7.869 -0.0492 -0.4050  0.3775
 6735W        W49647  16.544  29.290   8.370  0.1834  0.0077  0.1236
 6736W        W49648  14.890  27.731   6.706 -0.1607 -0.0202 -0.1791
 6737W        W49649  16.767  27.301   7.961  0.2012 -0.1794  0.1605
 6738W        W49650  11.738  28.359   9.377 -0.2671  0.2201  0.0808
 6739W        W49651  12.928  25.716   9.132 -0.1669  0.0956  0.2737
 6740W        W49652  14.170  25.613   8.386 -0.2026  0.0437  0.1288
 6741W        W49653  17.380  28.217   8.897 -0.0125 -0.0258  0.2201
 6742W        W49654  13.794  23.292   8.881 -0.2423  0.0868  0.0961
 6743W        W49655  12.829  24.845   8.016  0.0978 -0.1022 -0.1702
 6744W        W49656  16.153  27.459   7.413  0.2874 -0.0507  0.3344
 6745W        W49657  18.455  29.305   8.739  0.1596  0.3579 -0.0820
 6746W        W49658  15.860  24.471   8.434  0.0311 -0.2090  0.2948
 6747W        W49659  16.130  27.569   6.925 -0.1131 -0.3310  0.1213
 6748W        W49660  14.046  25.452   7.346 -0.1878  0.0430 -0.0060
 6749W        W49661  17.068  26.499   8.178  0.2481 -0.1471  0.0000
 6750W        W49662  16.495  28.854   8.527  0.0069  0.3010  0.0453
 6751W        W49663  17.987  28.816   6.770  0.0504  0.1163  0.0208
 6752W        W49664  14.247  24.794   9.888 -0.4046 -0.0484  0.2343
 6753W        W49665  17.820  26.875   7.680  0.2100  0.1905 -0.0024
 6754W        W49666  17.836  26.950   8.158  0.0902 -0.2538 -0.0226
 6755W        W49667  16.803  25.371   8.741 -0.2459 -0.0083  0.3722
 6756W        W49668  17.415  26.989   7.395 -0.0394  0.1466 -0.4826
 6757W        W49669  18.488  25.975   9.422 -0.1633  0.0030  0.1957
 6758W        W49670  15.393  24.111   8.349  0.0081  0.2248  0.0847
 6759W        W49671  17.385  25.219   8.929  0.0504 -0.2976  0.0734
 6760W        W49672  17.870  28.353   6.937  0.1055  0.2471 -0.0726
 6761W        W49673  15.637  26.337   9.653 -0.0882 -0.1126 -0.5485
 6762W        W49674  14.817  26.828   8.370  0.0077 -0.3829 -0.0306
 6763W        W49675  16.946  27.780   8.066  0.1513  0.3131 -0.1736
 6764W        W49676  16.686  26.784   7.967  0.0216  0.1173 -0.0394
 6765W        W49677  17.385  27.881   8.514  0.3407 -0.1376  0.0343
 6766W        W49678  16.839  28.573   8.757 -0.4231 -0.2515 -0.2931
 6767W        W49679  18.908  27.742  12.323 -0.0442 -0.3635  0.1914
 6768W        W49680  18.174  27.718   9.128  0.0663 -0.1859  0.0264
 6769W        W49681  12.996  25.651   9.854 -0.0685 -0.0857  0.0402
 6770W        W49682  16.239  26.286   8.582 -0.1850  0.1727  0.1849
 6771W        W49683  15.987  28.716   7.923 -0.2925  0.2241 -0.0733
 6772W        W49684  16.111  25.094   9.465  0.0243 -0.0115 -0.2044
 6773W        W49685  15.612  25.804   9.684 -0.0839 -0.2596 -0.2769
 6774W        W49686  16.375  24.280   9.457  0.0343 -0.0472  0.2257
 6775W        W49687  15.054  26.025   8.991  0.1104  0.2058  0.1564
 6776W        W49688  17.551  27.672   9.777  0.0877 -0.2790 -0.1147
 6777W        W49689  16.580  32.118   2.761  0.1228 -0.1464  0.0458
 6778W        W49690  15.542  29.568   2.224 -0.2160 -0.0999 -0.0250
 6779W        W49691  17.808  29.114   1.234  0.1886 -0.1079 -0.3539
 6780W        W49692  18.387  30.625   0.811 -0.0560 -0.1738  0.3033
 6781W        W49693  14.900  29.928   1.923  0.1852  0.2194  0.0027
 6782W        W49694  17.155  33.305   0.244 -0.1544  0.0613  0.1436
 6783W        W49695  15.129  29.085   2.090 -0.0694  0.0993  0.1478
 6784W        W49696  17.885  32.739   3.041 -0.1031  0.0736 -0.2687
 6785W        W49697  18.429  31.360   2.061  0.0724 -0.0400  0.3854
 6786W        W49698  15.659  31.080   0.775 -0.0775  0.0845  0.1884
 6787W        W49699  15.540  31.314   2.729  0.2495 -0.0671 -0.1735
 6788W        W49700  15.607  31.665   2.267  0.0410 -0.2380 -0.0053
 6789W        W49701  15.958  28.064   0.216  0.1761 -0.0542 -0.0380
 6790W        W49702  15.037  29.513   2.264 -0.0141  0.1005 -0.1291
 6791W        W49703  18.258  31.569   2.464  0.3291  0.1365  0.0018
 6792W        W49704  14.208  30.406   1.786 -0.0936 -0.2689  0.5158
 6793W        W49705  16.532  30.203   2.989 -0.0945 -0.0956 -0.2838
 6794W        W49706  15.384  28.793   0.454 -0.0366 -0.3222  0.0028
 6795W        W49707  18.141  32.604   1.283  0.2711 -0.1518 -0.1513
 6796W        W49708  17.316  29.616   3.460  0.1691 -0.0130  0.3876
 6797W        W49709  16.704  33.249   0.441  0.1871 -0.2093  0.2468
 6798W        W49710  16.085  30.826   1.465  0.0028 -0.0755  0.1815
 6799W        W49711  13.940  32.326   1.604 -0.2926  0.0541 -0.1176
 6800W        W49712  16.245  30.497   1.827 -0.1810 -0.0888 -0.3976
 6801W        W49713  14.418  29.930   2.040 -0.0188 -0.0820 -0.0635
 6802W        W49714  19.051  31.532   0.775  0.1180 -0.0154  0.1711
 6803W        W49715  17.021  31.426   2.274  0.0922 -0.0955 -0.0796
 6804W        W49716  16.203  32.395   2.333  0.0868 -0.2782  0.1727
 6805W        W49717  18.323  30.758   3.069 -0.1884 -0.0967 -0.1860
 6806W        W49718  13.672  30.638   1.602 -0.1327 -0.0681 -0.0524
 6807W        W49719  16.211  32.514   0.832  0.3978  0.2600  0.1479
 6808W        W49720  15.767  30.047   0.381 -0.0139 -0.2201 -0.1033
 6809W        W49721  18.546  33.197   0.665 -0.2051  0.5102  0.2203
 6810W        W49722  18.105  33.214   2.963 -0.0011  0.0915  0.0559
 6811W        W49723  15.729  32.446   2.620 -0.1189  0.1513  0.0923
 6812W        W49724  14.210  33.367   0.617  0.0196  0.1745 -0.1070
 6813W        W49725  17.535  32.512   2.666  0.1780  0.2278 -0.4152
 6814W        W49726  16.268  32.227   3.717 -0.2866  0.1017  0.2083
 6815W        W49727  17.141  30.946   1.488 -0.1771 -0.1672 -0.0070
 6816W        W49728  16.425  28.439   1.106 -0.1227  0.3619 -0.1902
 6817W        W49729  15.913  32.325  31.756 -0.2938 -0.0689 -0.0546
 6818W        W49730  16.550  31.250   0.837  0.2102  0.0131 -0.5577
 6819W        W49731  18.069  32.115   5.002 -0.0869 -0.0874 -0.1497
 6820W        W49732  15.215  31.253   1.006  0.2922 -0.4966  0.2117
 6821W        W49733  17.855  28.143   3.225 -0.4183 -0.1876 -0.2322
 6822W        W49734  14.893  31.303   1.520 -0.3185 -0.1214  0.3179
 6823W        W49735  17.576  29.284  30.907  0.0375  0.1860  0.1068
 6824W        W49736  16.052  29.980   0.816 -0.0346  0.0972  0.1301
 6825W        W49737  18.793  30.299   0.734 -0.2063  0.2754  0.0869
 6826W        W49738  16.517  27.778   0.898  0.2084 -0.3454  0.0886
 6827W        W49739  15.188  31.942   2.181 -0.0667 -0.0075  0.2077
 6828W        W49740  15.879  29.901   2.486 -0.1727  0.2438  0.3298
 6829W        W49741  18.397  32.572   3.021  0.0623 -0.0251  0.0879
 6830W        W49742  16.882  29.887   0.261 -0.2476  0.1881  0.1326
 6831W        W49743  16.320  29.972   2.049 -0.1043  0.1417  0.3963
 6832W        W49744  17.055  31.840   1.921 -0.3771 -0.0159  0.0069
 6833W        W49745  15.336  30.008   2.100 -0.3413 -0.0648  0.1369
 6834W        W49746  16.752  32.098  31.940 -0.2320  0.1990  0.2091
 6835W        W49747  18.390  32.196   1.544  0.1010  0.0288  0.4124
 6836W        W49748  14.832  33.998   0.822 -0.0583 -0.0711  0.2152
 6837W        W49749  14.525  30.859   1.606 -0.1360  0.0421 -0.1556
 6838W        W49750  15.431  31.782   3.718  0.2299  0.3155  0.1284
 6839W        W49751  14.665  31.726   2.534 -0.1808 -0.0911  0.2578
 6840W        W49752  15.895  28.883   0.708  0.3339  0.0212  0.1137
 6841W        W49753  17.018  31.423   4.366 -0.0033  0.1384 -0.1794
 6842W        W49754  16.501  32.362   3.333  0.0975  0.1706  0.0107
 6843W        W49755  18.332  29.149   1.352 -0.1346 -0.1947 -0.2693
 6844W        W49756  16.892  31.603   2.800 -0.1228 -0.1780  0.0355
 6845W        W49757  17.914  33.034   1.481 -0.1404 -0.2061 -0.3712
 6846W        W49758  15.342  30.749   0.979 -0.0798  0.0666  0.0203
 6847W        W49759  16.802  29.595   2.754  0.0043  0.1065 -0.0496
 6848W        W49760  17.666  27.530   3.036  0.0258  0.0422 -0.0474
 6849W        W49761  16.619  29.966   1.216  0.1038  0.1227  0.0992
 6850W        W49762  15.924  30.715   0.991 -0.0906 -0.1125 -0.0289
 6851W        W49763  19.102  32.663   2.963  0.1352  0.2479 -0.1535
 6852W        W49764  18.348  31.281   0.127 -0.1012  0.0297 -0.0847
 6853W        W49765  15.471  32.037   1.212  0.0118  0.1147 -0.1798
 6854W        W49766  17.576  28.521   2.471  0.2612  0.0848 -0.2818
 6855W        W49767  18.674  32.175   3.127 -0.1210  0.0605 -0.0258
 6856W        W49768  14.602  33.077  31.833  0.3027 -0.1387  0.2235
 6857W        W49769  16.023  31.567   2.924  0.2474 -0.0842 -0.2366
 6858W        W49770  15.743  31.454  31.910  0.1419 -0.2430 -0.3904
 6859W        W49771  15.185  30.392   3.895  0.1135 -0.1456 -0.1483
 6860W        W49772  15.748  32.479   0.644 -0.0411 -0.1117  0.1399
 6861W        W49773  15.774  29.232  31.526 -0.1856  0.0709 -0.1643
 6862W        W49774  15.101  29.871   4.201  0.1077 -0.2588 -0.1289
 6863W        W49775  18.012  27.808   1.990  0.2173  0.0160 -0.2390
 6864W        W49776  14.964  32.028   1.657  0.1010  0.3858  0.1973
 6865W        W49777  17.541  33.451   1.522  0.2138 -0.1201  0.2398
 6866W        W49778  17.139  30.366   1.730  0.0620  0.1169 -0.2420
 6867W        W49779  18.463  32.097   0.423 -0.1805 -0.0349  0.1597
 6868W        W49780  15.966  31.159   2.463 -0.2623  0.3513  0.1612
 6869W        W49781  15.990  30.322   2.234 -0.2081 -0.0919 -0.1667
 6870W        W49782  15.385  29.212   2.517 -0.0524  0.1035  0.1020
 6871W        W49783  15.396  29.849   2.619  0.0045 -0.3885  0.3018
 6872W        W49784  18.283  29.811   3.403 -0.4284  0.0756 -0.1160
 6873W        W49785  14.062  29.337   1.458 -0.3284 -0.0027 -0.3060
 6874W        W49786  17.971  29.782   2.324 -0.1884 -0.0510  0.0247
 6875W        W49787  15.701  29.728   1.749  0.2498  0.2808 -0.0579
 6876W        W49788  14.192  29.817   2.469  0.2589  0.2389 -0.0850
 6877W        W49789  17.325  29.908   1.973  0.1991 -0.1654  0.0525
 6878W        W49790  16.877  32.783   1.752 -0.2654  0.0745  0.3477
 6879W        W49791  17.251  33.204   2.158  0.2408 -0.2747 -0.0654
 6880W        W49792  18.579  33.815   2.169  0.0844  0.0744  0.1448
 6881W        W49793  16.996  30.059   2.650  0.1401  0.1982  0.0966
 6882W        W49794  14.056  29.695  31.957 -0.1947 -0.0218 -0.1290
 6883W        W49795  16.220  33.120   0.864  0.1142  0.1833  0.1091
 6884W        W49796  15.187  31.518   1.909 -0.0586 -0.0869  0.3471
 6885W        W49797  15.797  28.357   0.670  0.0296 -0.3493 -0.1870
 6886W        W49798  18.109  32.331   2.516  0.0984  0.2687 -0.0919
 6887W        W49799  16.859  30.254   0.626 -0.1237 -0.2115  0.4792
 6888W        W49800  16.531  31.591   2.405 -0.0977 -0.3009 -0.2870
 6889W        W49801  17.532  28.467   2.957  0.0029  0.0746 -0.1025
 6890W        W49802  17.381  31.299   1.941 -0.3075 -0.0305  0.1453
 6891W        W49803  17.433  30.550   1.352 -0.2151  0.2119  0.1373
 6892W        W49804  15.607  29.692   0.711  0.1895  0.1561  0.2897
 6893W        W49805  15.909  32.649   1.965 -0.4184  0.0905  0.0890
 6894W        W49806  14.643  33.652  31.893 -0.0678  0.2390  0.0177
 6895W        W49807  14.671  31.270  31.960  0.0870  0.1086 -0.0694
 6896W        W49808  14.328  31.191   1.212  0.1538  0.1120  0.2739
 6897W        W49809  16.919  28.923   2.295  0.0779  0.1544 -0.0261
 6898W        W49810  14.706  31.458   2.050 -0.1971 -0.0364 -0.0162
 6899W        W49811  17.563  29.455   2.152  0.0100 -0.1166  0.0219
 6900W        W49812  15.278  30.111   0.614 -0.2482 -0.2524 -0.1488
 6901W        W49813  16.439  31.874   3.216  0.5431  0.1376 -0.2111
 6902W        W49814  16.893  28.599   0.854 -0.1609 -0.2173 -0.2300
 6903W        W49815  17.582  29.738   0.356 -0.1823 -0.0652  0.0617
 6904W        W49816  16.242  31.723   3.672 -0.1144  0.0372  0.0011
 6905W        W49817  19.037  31.892   0.489 -0.0799 -0.1106 -0.1058
 6906W        W49818  17.944  28.924  30.017 -0.1107 -0.2597 -0.2381
 6907W        W49819  15.619  29.959   1.245  0.4234  0.0163  0.2016
 6908W        W49820  16.677  30.953   4.201  0.3209  0.1377  0.0136
 6909W        W49821  14.726  30.427   1.820  0.0812 -0.2649  0.1442
 6910W        W49822  16.114  31.055   0.565 -0.0092 -0.1542 -0.1355
 6911W        W49823  16.126  28.650   0.253  0.0558 -0.0384  0.0035
 6912W        W49824  17.993  33.382   0.609 -0.0179  0.1209  0.0849
 6913W        W49825  14.425  31.770   1.760 -0.1536 -0.1541 -0.2575
 6914W        W49826  17.591  32.552   4.310  0.2041 -0.2997 -0.1081
 6915W        W49827  17.087  31.902   0.848 -0.0354  0.0218 -0.0236
 6916W        W49828  16.473  30.087   2.502 -0.0264 -0.1087 -0.1730
 6917W        W49829  14.933  29.017   0.404  0.1058 -0.0261  0.2011
 6918W        W49830  15.481  28.511   1.575 -0.1793  0.1734  0.3200
 6919W        W49831  13.950   0.209   0.592 -0.1878  0.0557  0.0507
 6920W        W49832  17.416  28.980   1.639 -0.0897 -0.0925  0.0207
 6921W        W49833  15.639  29.139   1.061 -0.1453 -0.1705  0.2164
 6922W        W49834  15.387  29.051   1.560  0.0393  0.1943  0.1453
 6923W        W49835  17.501  29.882   2.447 -0.1585  0.0932  0.0671
 6924W        W49836  17.282  30.636   0.535  0.0877  0.1337  0.2080
 6925W        W49837  17.917  31.303   1.742 -0.0672  0.0245 -0.1463
 6926W        W49838  16.117  29.961   1.660  0.1539 -0.0160 -0.0268
 6927W        W49839  17.300  29.822   2.977 -0.0402  0.1658 -0.0423
 6928W        W49840  15.140  31.545   2.507 -0.1157  0.0500 -0.1628
 6929W        W49841  14.649  31.684   1.305  0.0329  0.0102 -0.1706
 6930W        W49842  17.430  31.818   2.735 -0.1228 -0.1200 -0.2718
 6931W        W49843  16.093  32.459   0.273 -0.1161 -0.0823 -0.0948
 6932W        W49844  17.391  31.325   2.980 -0.2437 -0.2879 -0.1069
 6933W        W49845  16.551  29.320   0.665  0.3533  0.1507  0.0938
 6934W        W49846  15.035  31.877   0.882 -0.0523 -0.3212 -0.1484
 6935W        W49847  15.182  31.043   0.562 -0.1351 -0.0215  0.0992
 6936W        W49848  15.714  28.599   2.097  0.1862  0.0158  0.0911
 6937W        W49849  17.380  32.369   3.120 -0.2977  0.0634  0.1061
 6938W        W49850  14.380  30.517  31.355 -0.1357  0.0739  0.0371
 6939W        W49851  17.514  30.181   0.957  0.0766  0.2384 -0.1053
 6940W        W49852  14.695  32.462   0.708 -0.0009 -0.3004  0.2107
 6941W        W49853  16.291  27.788   2.857 -0.3751  0.0321 -0.1225
 6942W        W49854  14.989  32.534   0.241 -0.0123  0.0626 -0.2039
 6943W        W49855  14.877  29.816   1.454  0.2597  0.2691  0.3663
 6944W        W49856  15.260  30.496   1.894 -0.1353  0.1460 -0.1291
 6945W        W49857  17.057  29.319   1.923  0.0727  0.3256 -0.0318
 6946W        W49858  18.932  33.916   1.078 -0.1768  0.2370 -0.1071
 6947W        W49859  15.520  30.301   2.441 -0.1675 -0.1945  0.2037
 6948W        W49860  16.827  29.033   2.794  0.2117 -0.0216 -0.2390
 6949W        W49861  14.638  32.406   1.662  0.1332 -0.0676  0.4677
 6950W        W49862  17.627  30.789   2.399 -0.0025  0.0733 -0.0321
 6951W        W49863  16.296  28.799  30.488 -0.1928 -0.0295 -0.0817
 6952W        W49864  16.758  32.314   1.907  0.0389  0.1527 -0.0806
 6953W        W49865  15.092  32.336   5.076  0.0689 -0.0255  0.0266
 6954W        W49866  14.679  30.542   1.316 -0.0827 -0.0428  0.0193
 6955W        W49867  18.225  30.086   2.814  0.0419  0.0383  0.0822
 6956W        W49868  15.028  29.288   1.153 -0.3881  0.0664 -0.0202
 6957W        W49869  13.696  31.068   0.530  0.1953 -0.0062 -0.0381
 6958W        W49870  16.592  31.507   1.402  0.0280 -0.2124  0.1149
 6959W        W49871  15.627  30.740   2.221 -0.2836  0.1466  0.1204
 6960W        W49872  15.727  33.070   0.887 -0.2242 -0.1981  0.1818
 6961W        W49873  15.500  29.021   3.005 -0.0493 -0.1162 -0.0865
 6962W        W49874  18.005  31.882   1.540  0.0412 -0.4086 -0.4091
 6963W        W49875  16.758  29.616   2.182  0.0934 -0.2201 -0.1738
 6964W        W49876  15.279  29.239   0.717 -0.3889  0.0437  0.0690
 6965W        W49877  17.128  28.702   1.914  0.0505 -0.1588  0.0304
 6966W        W49878  17.888  31.117   0.958 -0.1177 -0.1862 -0.0170
 6967W        W49879  17.893  30.297   3.074  0.1868  0.4783  0.1421
 6968W        W49880  15.781  32.053   4.045 -0.2005  0.0341 -0.2218
 6969W        W49881  15.075  28.220   1.386  0.1342 -0.2445  0.0299
 6970W        W49882  19.191  31.946   1.053 -0.0296 -0.1934  0.1603
 6971W        W49883  18.883  30.824   3.802  0.2193 -0.1415 -0.1910
 6972W        W49884  15.959  32.812  31.926 -0.0669 -0.1658  0.2791
 6973W        W49885  14.893  30.317   2.234 -0.1479  0.0637  0.1127
 6974W        W49886  16.373  30.819   0.961 -0.0002 -0.1957  0.0496
 6975W        W49887  17.180  29.407   2.474 -0.2385  0.1387 -0.1265
 6976W        W49888  17.386  31.773   1.301 -0.0299  0.0988  0.1200
 6977W        W49889  15.483  31.963   0.660 -0.0004 -0.3327 -0.1308
 6978W        W49890  16.749  31.251   1.819  0.1875  0.2440 -0.0209
 6979W        W49891  15.904  29.425   1.354  0.1273 -0.1897 -0.0041
 6980W        W49892  16.518  30.720   0.442 -0.2331 -0.1151 -0.0085
 6981W        W49893  16.822  28.991   1.637  0.1142  0.2212  0.1899
 6982W        W49894  17.623  28.604   1.954  0.0279 -0.0459  0.0344
 6983W        W49895  17.530  28.776  31.857 -0.1088 -0.2400  0.0556
 6984W        W49896  18.083  29.431   3.642 -0.4096  0.2211  0.0492
 6985W        W49897  16.807  29.759   3.270 -0.2265 -0.1186 -0.3383
 6986W        W49898  16.782  33.024   2.238  0.3908 -0.0123 -0.2269
 6987W        W49899  17.078  30.611   3.513 -0.3784  0.0202  0.0447
 6988W        W49900  16.675  33.193   2.743  0.0147 -0.1703 -0.2674
 6989W        W49901  16.815  30.527   2.802  0.0901  0.2110 -0.2134
 6990W        W49902  17.014  29.468   0.612 -0.1559 -0.0499 -0.2334
 6991W        W49903  15.027  28.594  31.451  0.0515 -0.1210  0.1638
 6992W        W49904  16.638  30.968   3.182  0.4457 -0.1689  0.0546
 6993W        W49905  19.312  32.432   4.261  0.0670 -0.0727  0.0513
 6994W        W49906  16.237  31.294   1.697  0.1475  0.0742 -0.0244
 6995W        W49907  18.014  29.869   0.040  0.2692  0.2602 -0.0222
 6996W        W49908  16.117  31.614   2.124  0.0196 -0.2180  0.2289
 6997W        W49909  17.766  30.582   0.927 -0.0931 -0.1587  0.3297
 6998W        W49910  17.125  29.318   1.310 -0.1742 -0.2664  0.2775
 6999W        W49911  15.946  31.703   1.444  0.2198  0.0673  0.1282
 7000W        W49912  14.963  27.718   2.855  0.2944  0.2910 -0.2117
 7001W        W49913  17.234  32.239   1.205 -0.6113 -0.0487  0.0412
 7002W        W49914  16.298  29.221   1.564  0.1271 -0.2366 -0.4225
 7003W        W49915  16.754  28.322   1.736  0.1285 -0.0893  0.0861
 7004W        W49916  17.751  30.986   2.889  0.0743 -0.3247 -0.1426
 7005W        W49917  16.689  31.980   3.637  0.1986 -0.0489 -0.0983
 7006W        W49918  14.651  29.988   2.491 -0.0968  0.1027  0.0167
 7007W        W49919  18.137  33.373   2.435 -0.0975 -0.2150  0.1965
 7008W        W49920  17.889  29.942   0.773 -0.5771  0.0879 -0.0940
 7009W        W49921  17.250  29.019   0.828 -0.4430 -0.0747 -0.1005
 7010W        W49922  17.981  31.150   2.249 -0.0403  0.0711  0.3321
 7011W        W49923  16.598  29.843   0.735 -0.0172 -0.2037  0.1475
 7012W        W49924  15.554  30.483   1.315  0.1765 -0.0720 -0.0999
 7013W        W49925  18.134  31.201   3.225 -0.0467  0.1355  0.1674
 7014W        W49926  16.287  29.233   0.208  0.0901  0.0315  0.1332
 7015W        W49927  17.774  29.791   3.341 -0.1961  0.0769 -0.2546
 7016W        W49928  16.436  32.738  31.010  0.0815 -0.1210  0.2145
 7017W        W49929  16.581  31.740   0.926  0.2304 -0.2568 -0.0373
 7018W        W49930  17.223  29.897   0.673  0.0230  0.0133  0.0081
 7019W        W49931  14.272  30.352   2.395 -0.0128  0.2280  0.0764
 7020W        W49932  15.516  31.879   2.728 -0.1234  0.0959 -0.2663
 7021W        W49933  13.264  31.201   0.101 -0.1226 -0.2866 -0.0090
 7022W        W49934  15.630  31.036   1.249 -0.1861  0.2197  0.2936
 7023W        W49935  16.835  32.430   1.392 -0.0524  0.1161 -0.0015
 7024W        W49936  17.754  30.271   2.259  0.3232 -0.1363  0.3495
 7025W        W49937  16.183  29.464  31.698 -0.0117  0.2515  0.2089
 7026W        W49938  17.102  30.863   2.069  0.0722 -0.2620  0.1885
 7027W        W49939  15.645  34.110  31.855  0.1015  0.1717 -0.0947
 7028W        W49940  16.711  28.078   1.277  0.0478 -0.4756  0.0208
 7029W        W49941  16.072  33.294   2.718  0.1078 -0.0301 -0.0592
 7030W        W49942  13.424  31.594   1.365  0.0455 -0.0944 -0.1247
 7031W        W49943  15.900  32.920   0.451 -0.0286  0.2312 -0.0556
 7032W        W49944  16.208  28.338   1.963  0.1640  0.1054 -0.0008
 7033W        W49945  17.656  30.880   1.911  0.0269 -0.1088 -0.2234
 7034W        W49946  16.827  30.653   1.009 -0.0886  0.1356 -0.1425
 7035W        W49947  18.393  29.505   2.621  0.0552  0.0298 -0.0549
 7036W        W49948  17.519  31.247   1.351  0.0859 -0.0579  0.0851
 7037W        W49949  15.662  30.861   1.694  0.3994  0.0959 -0.0759
 7038W        W49950  16.007  32.094   1.982 -0.0946  0.0175  0.1765
 7039W        W49951  18.277  31.780  31.966  0.1075 -0.3959  0.1002
 7040W        W49952  15.714  31.354   1.906 -0.0204 -0.2533 -0.0149
 7041W        W49953  15.693  29.145   5.209 -0.0322 -0.1519 -0.1098
 7042W        W49954  17.712  30.891   3.664  0.0606 -0.0685  0.2270
 7043W        W49955  18.584  32.273   2.529  0.0942  0.1167 -0.0571
 7044W        W49956  15.419  29.554   1.307  0.0331  0.0183  0.4069
 7045W        W49957  16.215  31.209  31.978  0.3014  0.0648 -0.1648
 7046W        W49958  14.791  32.037   3.381 -0.1633  0.5747  0.1280
 7047W        W49959  14.587  30.620   2.644 -0.3918 -0.0887 -0.3552
 7048W        W49960  16.925  34.496   2.146 -0.1759  0.1660  0.0140
 7049W        W49961  15.908  31.894   0.291 -0.1383 -0.4981  0.0502
 7050W        W49962  15.410  31.474   1.398 -0.1190 -0.3674 -0.0584
 7051W        W49963  17.123  32.836   2.581  0.1423 -0.1335  0.1575
 7052W        W49964  15.780  30.342   1.787 -0.0136 -0.0587 -0.1514
 7053W        W49965  16.161  33.435   0.372  0.3524  0.0991 -0.1058
 7054W        W49966  14.530  32.002   0.756  0.0683  0.1094  0.2580
 7055W        W49967  16.062  33.083   1.720  0.2608 -0.0550 -0.1486
 7056W        W49968  15.153  32.688   1.486 -0.2539 -0.1655  0.1471
 7057W        W49969  17.566  31.302   2.480 -0.0523  0.0113 -0.2243
 7058W        W49970  16.368  28.415  31.069  0.1696 -0.2133  0.1889
 7059W        W49971  18.151  31.444   1.318 -0.1769  0.2889  0.0760
 7060W        W49972  16.971  29.709   1.021 -0.4315  0.2855 -0.1212
 7061W        W49973  18.313  32.716   3.693 -0.0539 -0.0374 -0.1945
 7062W        W49974  17.082  28.704   3.295 -0.3224  0.0459  0.3444
 7063W        W49975  15.490  28.683   1.062  0.0886 -0.0213  0.0477
 7064W        W49976  17.229  31.199   3.408 -0.3048  0.1268 -0.1691
 7065W        W49977  17.289  29.308   3.016  0.0127  0.2378  0.0827
 7066W        W49978  16.129  31.923   2.544 -0.1841  0.4000 -0.0725
 7067W        W49979  18.204  32.933   0.459 -0.0484 -0.3181  0.1456
 7068W        W49980  15.651  30.278   0.874  0.0219  0.0077  0.1391
 7069W        W49981  16.468  31.906   1.776 -0.5541  0.2677  0.0830
 7070W        W49982  16.407  27.956   1.648  0.4310  0.2066 -0.1979
 7071W        W49983  17.489  31.437   0.203 -0.1594  0.0667  0.1052
 7072W        W49984  16.476  31.117   2.197 -0.1453  0.4752  0.5785
 7073W        W49985  15.225  33.488   1.603  0.2497  0.0862 -0.1646
 7074W        W49986  15.698  32.391   1.553  0.0223 -0.2100  0.3846
 7075W        W49987  14.993  32.514   3.360  0.1316  0.0025 -0.1286
 7076W        W49988  14.688  29.345   0.786 -0.0789 -0.0913 -0.1527
 7077W        W49989  17.833  30.867   1.458 -0.1457  0.0025 -0.0010
 7078W        W49990  16.800  31.459   3.274  0.0531 -0.3425 -0.3867
 7079W        W49991  16.741  27.599   1.554  0.1158 -0.0703  0.1524
 7080W        W49992  15.043  28.661   1.799  0.0558 -0.0716  0.0434
 7081W        W49993  17.475  31.751   2.202 -0.1516 -0.0952  0.1660
 7082W        W49994  17.129  31.674   3.577  0.0804 -0.0848 -0.1360
 7083W        W49995  16.602  30.598   2.188  0.3532  0.2004 -0.1041
 7084W        W49996  16.738  29.416   0.202  0.0329 -0.0049 -0.0454
 7085W        W49997  18.945  29.497   2.632  0.0943  0.0238  0.1012
 7086W        W49998  17.434  29.477   0.934 -0.2994 -0.2150  0.1584
 7087W        W49999  17.260  33.037   4.144  0.2076 -0.1418 -0.2661
 7088W        W50000  15.034  28.777   0.807  0.1919 -0.1152  0.2187
 7089W        W50001  16.823  28.713  30.930  0.2664 -0.1963 -0.0294
 7090W        W50002  16.730  30.718   1.764  0.1099 -0.1991  0.1734
 7091W        W50003  16.669  30.146   1.678 -0.1898 -0.4387 -0.4727
 7092W        W50004  18.528  32.262   3.748 -0.1428  0.0828  0.2595
 7093W        W50005  14.475  28.556   2.062  0.0090 -0.0303 -0.2054
 7094W        W50006  18.291  30.314   0.359  0.1773  0.0672 -0.1107
 7095W        W50007  17.548  31.984   1.734 -0.1104 -0.3969  0.0883
 7096W        W50008  15.927  33.610  31.832  0.0836 -0.2176 -0.4369
 7097W        W50009  19.212  31.035   1.023 -0.2412  0.0686 -0.0129
 7098W        W50010  17.663  32.988   2.649  0.2292 -0.0097  0.0374
 7099W        W50011  16.436  29.383   2.977 -0.0613  0.2148 -0.0248
 7100W        W50012  18.563  33.133   2.186 -0.0381  0.1923  0.0038
 7101W        W50013  18.923  31.614   2.008  0.0943  0.1014  0.0259
 7102W        W50014  15.294  28.955  31.951 -0.0303  0.0418  0.2244
 7103W        W50015  16.877  30.129   2.130  0.0533 -0.1846  0.2113
 7104W        W50016  14.065  31.288  31.705  0.1367  0.1556 -0.0882
 7105W        W50017  19.001  30.637   1.210 -0.0640  0.2904 -0.2627
 7106W        W50018  17.559  28.075   2.145 -0.2867  0.0853 -0.0598
 7107W        W50019  15.420  32.781   0.392 -0.0613 -0.0949  0.2053
 7108W        W50020  18.406  28.518   1.906 -0.1235  0.3190 -0.1049
 7109W        W50021  17.041  31.901   2.410 -0.0520  0.0338  0.0467
 7110W        W50022  17.441  31.816   3.209  0.0633 -0.0911 -0.0031
 7111W        W50023  13.993  30.805  31.532  0.1713  0.1060  0.0943
 7112W        W50024  16.238  30.741   3.019  0.1711 -0.0788 -0.0930
 7113W        W50025  16.026  30.254   1.239 -0.3003 -0.1524 -0.0358
 7114W        W50026  15.708  33.577   1.491 -0.1504  0.2209 -0.0946
 7115W        W50027  18.122  32.801   2.542  0.0372 -0.2198  0.4269
 7116W        W50028  16.485  30.486   1.353 -0.0249  0.2830  0.0171
 7117W        W50029  17.429  31.882   0.496 -0.1172 -0.0663 -0.1555
 7118W        W50030  15.193  29.543   1.840 -0.2409 -0.0209  0.2345
 7119W        W50031  17.856  29.580   1.214 -0.3713 -0.2244  0.0624
 7120W        W50032  16.733  29.058   1.139 -0.0565  0.2621 -0.0815
 7121W        W50033  16.215  31.836   4.205  0.3129  0.0111  0.0938
 7122W        W50034  13.826  29.286   0.290  0.0750 -0.0405  0.0110
 7123W        W50035  16.028  32.429  30.814 -0.1578 -0.3943 -0.3353
 7124W        W50036  14.991  33.531   0.335 -0.0813  0.4517  0.0797
 7125W        W50037  17.059  28.184   3.576  0.0068 -0.0211 -0.1786
 7126W        W50038  14.902  30.886   0.977 -0.3568  0.0373 -0.1229
 7127W        W50039  15.048  29.810   0.994  0.1122 -0.1238  0.2162
 7128W        W50040  16.634  31.661   0.325 -0.0058 -0.1321  0.0316
 7129W        W50041  16.476  29.233   2.075  0.0863 -0.1702  0.0664
 7130W        W50042  13.705  29.177   1.783 -0.3072  0.1220  0.0466
 7131W        W50043  17.213  33.016   0.704  0.1351 -0.0021 -0.2774
 7132W        W50044  17.275  32.405   1.675 -0.0053 -0.2507 -0.1203
 7133W        W50045  16.181  27.866   1.225  0.3296 -0.1374 -0.1643
 7134W        W50046  18.952  32.139   4.030  0.2694 -0.0692 -0.2108
 7135W        W50047  15.483  30.601   0.550  0.1461 -0.4584  0.0046
 7136W        W50048  17.994  30.439   3.675 -0.2562 -0.0984  0.1349
 7137W        W50049  17.246  30.427   2.376 -0.2372 -0.0161 -0.2952
 7138W        W50050  13.957  28.855   0.556  0.1218  0.3548 -0.1264
 7139W        W50051  18.016  30.505   2.590 -0.0129 -0.1799 -0.0713
 7140W        W50052  15.018  31.037   1.878 -0.0054  0.0190  0.0812
 7141W        W50053  17.871  32.756   0.093 -0.0271 -0.3298 -0.0103
 7142W        W50054  17.117  31.013   2.552  0.1657 -0.1713 -0.4290
 7143W        W50055  15.868  32.102   3.030 -0.3145 -0.0207 -0.5350
 7144W        W50056  14.418  28.244   3.442  0.1395  0.3144  0.0835
 7145W        W50057  17.097  31.405   0.566 -0.1190  0.2387 -0.1204
 7146W        W50058  18.750  31.740   2.780  0.2142  0.0865  0.1217
 7147W        W50059  20.333  31.456   1.576 -0.1394  0.2208  0.1734
 7148W        W50060  16.076  28.329   1.501  0.1833  0.1193  0.1968
 7149W        W50061  16.923  30.956   0.666 -0.2804 -0.2484 -0.1038
 7150W        W50062  15.657  29.389   3.619 -0.0670 -0.1661 -0.4625
 7151W        W50063  15.341  30.707   4.271 -0.1003  0.1757 -0.3530
 7152W        W50064  18.515  31.752   3.358 -0.0191  0.1357 -0.0146
 7153W        W50065  15.316  28.254   0.866  0.0997  0.1774 -0.2455
 7154W        W50066  16.509  29.669   1.649  0.2423 -0.0469 -0.0860
 7155W        W50067  16.310  32.008   0.660 -0.1433 -0.0640 -0.1432
 7156W        W50068  14.462  30.796   3.072 -0.3498  0.0358 -0.0239
 7157W        W50069  16.406  28.812   0.693 -0.0873 -0.0292 -0.1124
 7158W        W50070  17.504  30.283   2.763  0.3506 -0.2602 -0.2687
 7159W        W50071  15.897  32.131   0.951 -0.2853 -0.0834 -0.2512
 7160W        W50072  18.278  31.937   2.740  0.1185  0.0348 -0.0164
 7161W        W50073  16.666  31.016   1.336  0.0720  0.0780 -0.1930
 7162W        W50074  18.366  31.665   0.936  0.2248 -0.2813  0.2046
 7163W        W50075  16.728  32.651   2.945 -0.2066 -0.0016 -0.1239
 7164W        W50076  17.698  34.167   3.704  0.0165  0.1310 -0.1819
 7165W        W50077  17.397  32.882   3.089  0.2307  0.0163  0.1277
 7166W        W50078  18.512  31.218   1.540  0.0086  0.0002 -0.0361
 7167W        W50079  15.407  28.412   4.752  0.0227 -0.2305 -0.0864
 7168W        W50080  14.569  31.022   0.546 -0.1699  0.1593  0.0725
 7169W        W50081  16.326  32.056   1.288  0.1534 -0.2092  0.0946
 7170W        W50082  17.032  29.881   1.497  0.0214  0.0560 -0.0454
 7171W        W50083  16.173  29.800   2.889 -0.0139 -0.3016  0.1784
 7172W        W50084  17.498  28.490   0.826  0.0159  0.1591  0.0270
 7173W        W50085  15.182  31.771   3.081  0.1520  0.2988 -0.0070
 7174W        W50086  17.104  31.477   1.570 -0.1579  0.1628  0.3341
 7175W        W50087  16.783  31.171   6.971  0.1169 -0.1105  0.1345
 7176W        W50088  15.625  31.005   3.735  0.0282 -0.1614  0.1245
 7177W        W50089  17.440  30.151   3.610 -0.2469 -0.0127  0.2539
 7178W        W50090  17.350  30.492   4.431  0.0213  0.1200 -0.0863
 7179W        W50091  14.580  30.583   4.332 -0.1474 -0.3422 -0.1185
 7180W        W50092  18.693  33.098   4.959 -0.0973 -0.0455 -0.0177
 7181W        W50093  14.934  29.778   6.463 -0.0795  0.0733  0.0149
 7182W        W50094  17.297  32.993   6.526  0.1103 -0.1107  0.0127
 7183W        W50095  18.976  32.926   6.095  0.1401 -0.1064  0.0271
 7184W        W50096  16.909  32.033   3.135 -0.0632  0.1846 -0.0661
 7185W        W50097  16.801  28.834   5.407 -0.0540 -0.1262  0.2925
 7186W        W50098  18.079  30.083   8.125  0.0305 -0.1581  0.6215
 7187W        W50099  16.635  29.154   4.179  0.1711 -0.0824  0.3115
 7188W        W50100  15.073  28.766   6.446 -0.0914 -0.1065  0.0290
 7189W        W50101  17.981  31.480   6.084  0.3476 -0.1424  0.0167
 7190W        W50102  15.309  31.194   4.564 -0.2517 -0.0924 -0.0426
 7191W        W50103  16.998  28.310   5.721  0.1435 -0.1313  0.4572
 7192W        W50104  16.977  31.121   4.891  0.3509  0.1623 -0.5620
 7193W        W50105  17.245  33.250   4.635 -0.1976  0.0564 -0.5035
 7194W        W50106  15.018  29.332   6.232 -0.0467  0.3088 -0.2712
 7195W        W50107  17.057  28.540   6.841  0.2418 -0.4239  0.1479
 7196W        W50108  17.001  31.909   5.376  0.1762 -0.1464  0.3171
 7197W        W50109  15.630  29.605   3.105  0.2125 -0.1860 -0.1529
 7198W        W50110  15.596  30.902   6.388  0.1558  0.1688 -0.0388
 7199W        W50111  15.307  30.712   5.351 -0.0748 -0.1670 -0.0125
 7200W        W50112  17.473  31.237   5.822 -0.0656  0.2173  0.1636
 7201W        W50113  18.195  30.591   5.905 -0.0178 -0.0794  0.0165
 7202W        W50114  16.484  33.124   6.349  0.2933  0.1832  0.2184
 7203W        W50115  17.126  32.015   5.840  0.0001 -0.1699 -0.2798
 7204W        W50116  17.375  28.670   7.568  0.0504  0.3876  0.1410
 7205W        W50117  14.479  31.218   4.499  0.0963 -0.2699  0.0669
 7206W        W50118  16.052  32.403   4.333  0.3632 -0.1284  0.0058
 7207W        W50119  15.166  31.984   4.112  0.0901 -0.0471  0.0155
 7208W        W50120  18.340  31.785   4.754 -0.2280  0.0496  0.0219
 7209W        W50121  18.891  31.246   7.243 -0.0651  0.0916  0.1741
 7210W        W50122  16.697  32.102   7.074  0.1013 -0.1750 -0.1606
 7211W        W50123  15.277  32.398   2.472 -0.1071  0.0060  0.0064
 7212W        W50124  17.182  34.176   5.974  0.0298  0.3155  0.0810
 7213W        W50125  16.887  31.701   7.733  0.1769 -0.1576 -0.1213
 7214W        W50126  18.236  31.170   6.383  0.0881 -0.1242 -0.1290
 7215W        W50127  16.924  31.559   5.757 -0.0881 -0.1658 -0.3016
 7216W        W50128  17.088  32.308   2.733 -0.2796  0.2037 -0.1203
 7217W        W50129  16.885  32.343   6.172 -0.2587  0.4744 -0.2387
 7218W        W50130  15.231  30.405   8.140  0.1951 -0.1586 -0.1612
 7219W        W50131  15.730  31.390   4.639  0.2554 -0.2077 -0.3906
 7220W        W50132  18.718  30.741   6.979  0.2148  0.0632 -0.1476
 7221W        W50133  16.485  32.448   4.603 -0.3358 -0.3714 -0.0591
 7222W        W50134  18.501  29.289   3.908 -0.1689 -0.0207 -0.0480
 7223W        W50135  16.520  29.441   3.679 -0.2014  0.3056  0.0460
 7224W        W50136  16.396  30.712   4.785 -0.3141 -0.0559  0.0318
 7225W        W50137  17.454  28.243   5.436 -0.1506  0.2470 -0.2309
 7226W        W50138  16.671  32.097   4.899 -0.2365  0.3348 -0.1178
 7227W        W50139  16.186  28.324   4.249  0.0350  0.0252 -0.0543
 7228W        W50140  18.213  31.616   7.247 -0.2195  0.0424 -0.1988
 7229W        W50141  16.856  30.132   5.130 -0.2071  0.0664 -0.1844
 7230W        W50142  16.909  31.363   6.522  0.0693 -0.3385 -0.5053
 7231W        W50143  16.817  31.192   7.438 -0.0628  0.0706 -0.0734
 7232W        W50144  14.607  29.805   4.447  0.0782  0.0445  0.1707
 7233W        W50145  17.206  32.134   3.604 -0.1771  0.2424  0.0357
 7234W        W50146  18.541  32.845   5.396  0.2246  0.0497  0.5459
 7235W        W50147  17.927  33.443   3.914  0.0604 -0.1904  0.0169
 7236W        W50148  14.196  30.348   4.566 -0.0231 -0.3699  0.1400
 7237W        W50149  14.672  30.722   6.506  0.2833 -0.0775  0.0459
 7238W        W50150  15.627  30.298   7.565 -0.0482  0.1977 -0.0181
 7239W        W50151  16.110  29.415   3.307 -0.0889  0.0796 -0.2835
 7240W        W50152  18.377  30.802   7.409  0.1183 -0.3383  0.2575
 7241W        W50153  16.128  30.955   6.389 -0.2604 -0.1685 -0.1335
 7242W        W50154  19.267  29.720   3.466 -0.0556  0.2760  0.0291
 7243W        W50155  16.082  30.858   5.586 -0.0192  0.2298  0.2186
 7244W        W50156  18.233  32.556   5.843  0.2164 -0.1135  0.2285
 7245W        W50157  17.667  31.483   3.486 -0.2067  0.0199  0.0666
 7246W        W50158  17.309  30.314   4.871  0.1175  0.2990 -0.1502
 7247W        W50159  17.099  29.392   6.756 -0.2561  0.0419  0.0650
 7248W        W50160  17.364  31.380   4.731  0.1554 -0.1565 -0.0341
 7249W        W50161  17.767  30.743   5.650  0.1545  0.0991  0.5368
 7250W        W50162  18.904  31.695   5.387 -0.0197  0.0876  0.1717
 7251W        W50163  18.899  31.432   3.498  0.0819 -0.5512  0.0708
 7252W        W50164  15.626  32.639   5.733 -0.0749 -0.1563  0.0708
 7253W        W50165  15.634  30.115   6.648 -0.5363  0.0938 -0.0424
 7254W        W50166  17.762  30.695   6.628  0.0906  0.1645  0.0557
 7255W        W50167  15.868  32.550   3.357 -0.1213  0.0072  0.4053
 7256W        W50168  16.437  30.789   5.933  0.0080 -0.1924  0.1743
 7257W        W50169  14.998  31.039   4.119 -0.1874  0.0022 -0.2814
 7258W        W50170  15.726  29.762   4.972 -0.4470  0.1305  0.2624
 7259W        W50171  16.600  30.739   7.118  0.1462  0.0669  0.1484
 7260W        W50172  17.644  30.507   5.229 -0.0302 -0.1098  0.1269
 7261W        W50173  15.899  29.154   6.085  0.0076  0.0473 -0.0851
 7262W        W50174  17.984  29.234   4.535  0.2391 -0.1116 -0.2972
 7263W        W50175  15.563  31.653   4.266 -0.4907  0.0262 -0.1128
 7264W        W50176  18.097  33.569   4.380  0.1005 -0.2526  0.1331
 7265W        W50177  18.186  30.521   5.296 -0.4716  0.1592  0.1258
 7266W        W50178  15.927  31.843   4.595  0.1631  0.0723 -0.0313
 7267W        W50179  15.054  31.095   5.694 -0.1811  0.1745 -0.1431
 7268W        W50180  16.234  29.487   6.334 -0.0487  0.4930  0.1135
 7269W        W50181  14.988  29.688   5.761 -0.0050  0.1558  0.0013
 7270W        W50182  14.755  28.126   5.175  0.1524  0.0070 -0.1632
 7271W        W50183  17.524  29.939   6.252 -0.2508  0.0888 -0.1621
 7272W        W50184  14.928  27.785   4.131 -0.3054 -0.3926 -0.0033
 7273W        W50185  16.824  30.030   6.103  0.3202 -0.0183 -0.1584
 7274W        W50186  16.011  30.248   5.391 -0.2811  0.0615 -0.0553
 7275W        W50187  14.580  30.714   3.813 -0.0134  0.0928 -0.1255
 7276W        W50188  17.905  29.801   7.663  0.2698  0.2083 -0.4315
 7277W        W50189  18.317  31.765   5.303  0.0265  0.2727 -0.0860
 7278W        W50190  19.789  32.963   5.999  0.0594 -0.0892  0.0282
 7279W        W50191  17.818  32.960   6.898  0.0180 -0.0287 -0.1604
 7280W        W50192  14.665  28.545   6.560  0.2473 -0.0980 -0.2417
 7281W        W50193  16.029  30.009   4.176  0.0259 -0.0663 -0.3182
 7282W        W50194  15.869  32.564   4.749 -0.2527 -0.0834 -0.3172
 7283W        W50195  17.189  32.296   5.028  0.1760  0.0652 -0.1356
 7284W        W50196  15.546  30.247   5.183  0.0039  0.0626  0.0914
 7285W        W50197  18.540  32.163   5.519 -0.0945  0.0846 -0.0817
 7286W        W50198  17.518  31.786   3.840 -0.0990  0.1129 -0.1946
 7287W        W50199  15.885  29.858   7.444 -0.1656  0.0425  0.3337
 7288W        W50200  18.862  28.980   4.366  0.3728 -0.3141  0.2200
 7289W        W50201  17.523  30.752   7.059  0.1057 -0.0550  0.0623
 7290W        W50202  17.730  30.458   6.138  0.1571  0.1098  0.1217
 7291W        W50203  15.669  29.889   4.482  0.0059 -0.0722 -0.1397
 7292W        W50204  17.325  32.785   5.178 -0.1751 -0.0792  0.0441
 7293W        W50205  15.365  32.605   4.722 -0.1671  0.4101  0.0090
 7294W        W50206  15.318  31.366   3.971  0.3071 -0.1341  0.2602
 7295W        W50207  17.702  32.437   5.081 -0.4891  0.2286  0.1518
 7296W        W50208  17.897  30.233   4.943  0.2131 -0.0058  0.0236
 7297W        W50209  14.962  29.531   6.946  0.0320  0.5316 -0.3310
 7298W        W50210  17.242  30.243   5.983  0.1222  0.1423 -0.4292
 7299W        W50211  15.769  30.677   3.275 -0.0801 -0.2978  0.3776
 7300W        W50212  16.176  30.848   8.162  0.0214 -0.2845  0.2092
 7301W        W50213  16.947  29.704   5.510 -0.1368  0.0609  0.0255
 7302W        W50214  17.826  28.728   4.538 -0.1707 -0.2893 -0.1186
 7303W        W50215  18.978  31.329   6.765  0.0101 -0.0829 -0.1442
 7304W        W50216  17.921  32.054   5.500 -0.1393 -0.0021  0.1064
 7305W        W50217  16.456  29.913   3.635  0.1654  0.1708 -0.0767
 7306W        W50218  16.816  29.708   4.415 -0.2302 -0.0083  0.1954
 7307W        W50219  13.879  30.546   7.084  0.0173 -0.2131 -0.1093
 7308W        W50220  17.422  31.691   5.552  0.0987 -0.2568 -0.0507
 7309W        W50221  17.648  31.484   6.536  0.2021  0.0309 -0.1381
 7310W        W50222  17.559  30.544   3.320  0.2823  0.0537 -0.1031
 7311W        W50223  15.485  31.250   6.017  0.2557 -0.0037  0.0522
 7312W        W50224  17.554  30.265   7.574 -0.0248 -0.2206  0.0870
 7313W        W50225  18.287  32.657   4.216 -0.2822  0.1365 -0.2212
 7314W        W50226  15.953  28.706   5.080 -0.0498 -0.0264 -0.0930
 7315W        W50227  16.165  30.355   3.819  0.0790  0.3599  0.1555
 7316W        W50228  16.688  30.115   4.126  0.0469 -0.0744 -0.2872
 7317W        W50229  14.549  32.827   3.777 -0.1224 -0.2341 -0.0579
 7318W        W50230  16.687  30.256   7.219 -0.2143  0.2843  0.0796
 7319W        W50231  17.013  29.200   5.791  0.1410  0.0315 -0.0194
 7320W        W50232  16.348  29.936   6.212 -0.1235 -0.0163  0.4379
 7321W        W50233  19.138  30.316   6.640  0.1075  0.1654 -0.0968
 7322W        W50234  17.343  30.806   4.821 -0.2648 -0.1605  0.0143
 7323W        W50235  17.486  29.982   5.218  0.1326  0.0003 -0.0620
 7324W        W50236  16.743  30.980   3.695  0.1995 -0.2173  0.1773
 7325W        W50237  15.586  29.325   7.386  0.1728 -0.1371 -0.0722
 7326W        W50238  14.982  31.175   6.161 -0.0621 -0.0771 -0.3476
 7327W        W50239  16.639  30.940   6.483 -0.3125  0.0143  0.0310
 7328W        W50240  18.585  31.445   5.897  0.1114 -0.1623 -0.1270
 7329W        W50241  17.923  32.339   3.906 -0.0573 -0.1185  0.0663
 7330W        W50242  17.372  29.851   6.952  0.4968  0.3310 -0.0714
 7331W        W50243  18.022  30.786   4.024  0.0798 -0.0998 -0.0535
 7332W        W50244  15.077  33.435   5.434  0.0035 -0.0230  0.0635
 7333W        W50245  17.516  31.896   5.089 -0.2507  0.1084  0.1294
 7334W        W50246  16.163  27.557   5.386  0.2209 -0.2571 -0.1856
 7335W        W50247  17.250  32.551   5.768  0.3621  0.2556 -0.0179
 7336W        W50248  18.178  31.026   2.647  0.2304  0.1624 -0.2529
 7337W        W50249  17.817  31.013   6.183  0.2840 -0.0258 -0.1366
 7338W        W50250  16.378  32.941   4.529  0.2944 -0.0310 -0.1174
 7339W        W50251  18.539  29.859   5.048  0.1383  0.1822 -0.0562
 7340W        W50252  15.751  32.134   6.919 -0.1570  0.1663  0.2508
 7341W        W50253  16.507  30.496   3.407  0.1032 -0.2165 -0.0453
 7342W        W50254  16.132  31.338   4.330 -0.0898  0.3533 -0.1904
 7343W        W50255  17.632  30.224   5.697  0.1975 -0.1313  0.2351
 7344W        W50256  18.776  29.912   3.529  0.1041  0.2827 -0.1334
 7345W        W50257  16.423  30.556   5.306 -0.1193 -0.1963  0.1406
 7346W        W50258  17.144  29.723   4.938  0.2067  0.0640  0.0314
 7347W        W50259  16.452  31.432   6.186  0.3926  0.3036 -0.0899
 7348W        W50260  17.308  31.217   6.872  0.1297  0.1537 -0.1418
 7349W        W50261  17.806  29.832   2.814  0.0149 -0.2981  0.0652
 7350W        W50262  19.173  31.861   4.833  0.2295 -0.0748  0.1219
 7351W        W50263  15.824  30.820   7.749  0.1584 -0.0325 -0.1565
 7352W        W50264  15.022  30.342   4.426  0.3082 -0.2723  0.1147
 7353W        W50265  18.363  30.325   8.414 -0.2314 -0.0372  0.2093
 7354W        W50266  16.457  31.193   4.648  0.1958 -0.1398  0.1134
 7355W        W50267  15.710  31.546   5.162  0.0691 -0.2358  0.1257
 7356W        W50268  17.645  31.335   5.212 -0.1490 -0.0397  0.0123
 7357W        W50269  15.031  30.413   5.074 -0.0782  0.1929  0.0984
 7358W        W50270  16.225  32.327   6.689 -0.0149  0.1320 -0.1180
 7359W        W50271  15.813  31.054   6.925 -0.3034 -0.0952 -0.2258
 7360W        W50272  18.060  31.903   6.328 -0.3243  0.0143 -0.0582
 7361W        W50273  16.627  29.704   5.060  0.0061 -0.0210 -0.0247
 7362W        W50274  15.914  30.304   4.839 -0.1352  0.1129 -0.0139
 7363W        W50275  16.686  30.240   4.675 -0.0037  0.1544  0.3182
 7364W        W50276  18.369  30.077   5.668  0.1484  0.0863 -0.1837
 7365W        W50277  17.495  29.564   6.544 -0.1892  0.0319 -0.4524
 7366W        W50278  14.998  30.467   7.374 -0.1955  0.1118 -0.2628
 7367W        W50279  16.302  28.347   4.763  0.2521  0.1900  0.1623
 7368W        W50280  18.428  32.281   4.702 -0.0646  0.0285 -0.0930
 7369W        W50281  17.872  30.708   7.617  0.3915 -0.0088 -0.1562
 7370W        W50282  15.586  31.043   5.012  0.1226 -0.3175  0.2856
 7371W        W50283  15.362  30.551   4.769 -0.1919  0.3259  0.0855
 7372W        W50284  16.449  32.549   5.101  0.1470  0.0211  0.0405
 7373W        W50285  16.721  29.345   6.402 -0.2370  0.3317 -0.1188
 7374W        W50286  16.748  30.308   6.640 -0.1399 -0.0493  0.1915
 7375W        W50287  16.747  31.615   4.961  0.1810 -0.0849 -0.0803
 7376W        W50288  14.976  30.722   6.913  0.1133  0.0367  0.0445
 7377W        W50289  18.433  28.994   2.497 -0.2363 -0.0571 -0.1882
 7378W        W50290  17.312  30.729   2.863  0.2208 -0.3420 -0.0233
 7379W        W50291  16.488  29.395   5.543 -0.1629  0.1705 -0.1602
 7380W        W50292  18.532  28.788   6.222 -0.2638 -0.1941  0.0643
 7381W        W50293  18.978  30.152   4.915 -0.1472  0.0404  0.0561
 7382W        W50294  16.744  27.425   6.248 -0.0835 -0.0252  0.1475
 7383W        W50295  15.432  28.705   4.333 -0.0927  0.4978 -0.1149
 7384W        W50296  18.710  31.982   5.041  0.3886 -0.1660 -0.0776
 7385W        W50297  14.658  29.635   6.136  0.2139  0.1218  0.3558
 7386W        W50298  17.358  32.060   7.232  0.0312 -0.2981 -0.2206
 7387W        W50299  16.226  30.553   6.811 -0.0747 -0.0059 -0.1302
 7388W        W50300  16.319  30.457   4.323 -0.1700 -0.2555 -0.0728
 7389W        W50301  16.094  29.014   2.956 -0.1450  0.1893  0.2890
 7390W        W50302  17.867  31.140   6.857  0.0794 -0.0434  0.2624
 7391W        W50303  20.165  31.539   4.918 -0.0047  0.2071 -0.1900
 7392W        W50304  15.801  31.649   5.683 -0.1629 -0.1907  0.2040
 7393W        W50305  18.173  31.011   5.519 -0.1068  0.3040  0.0973
 7394W        W50306  16.124  31.090   5.001 -0.1683 -0.0384  0.3387
 7395W        W50307  16.824  30.881   5.584  0.1926 -0.3314 -0.2974
 7396W        W50308  16.438  31.623   5.351 -0.0260 -0.1744  0.1930
 7397W        W50309  15.614  31.110   5.528 -0.1433  0.0880 -0.0492
 7398W        W50310  14.118  29.631   6.974 -0.3005 -0.1125  0.1393
 7399W        W50311  17.777  32.397   6.112  0.2237 -0.1346 -0.0086
 7400W        W50312  17.892  29.011   5.041 -0.0602 -0.1208 -0.3585
 7401W        W50313  17.731  30.316   7.066 -0.1505 -0.0227  0.0822
 7402W        W50314  17.368  30.385   6.455  0.0737  0.0351  0.1760
 7403W        W50315  16.629  30.100   7.940  0.0127 -0.0776 -0.2898
 7404W        W50316  14.092  30.506   6.560 -0.0726  0.0918 -0.3197
 7405W        W50317  19.553  31.669   6.855 -0.1052  0.0088 -0.0023
 7406W        W50318  18.215  29.025   3.334  0.1617  0.1910 -0.1572
 7407W        W50319  17.409  29.509   4.368  0.1204 -0.0319 -0.1108
 7408W        W50320  18.587  31.536   6.439 -0.2189  0.1254  0.2742
 7409W        W50321  16.919  30.125   3.610 -0.1831 -0.2886 -0.1059
 7410W        W50322  16.011  31.183   5.936 -0.0565 -0.2251 -0.0264
 7411W        W50323  17.021  29.835   7.731 -0.0072 -0.3581 -0.3247
 7412W        W50324  16.928  29.306   3.408 -0.0260 -0.1226  0.1010
 7413W        W50325  18.226  30.170   6.162 -0.0011 -0.0768  0.3464
 7414W        W50326  16.487  32.286   4.122 -0.0558  0.0133  0.0384
 7415W        W50327  17.972  31.498   5.595  0.1166 -0.0452  0.2777
 7416W        W50328  17.142  30.330   3.972  0.1064 -0.3265  0.0610
 7417W        W50329  15.237  30.251   5.753  0.0845  0.1099 -0.1938
 7418W        W50330  17.381  31.801   7.682 -0.1015  0.1433  0.1092
 7419W        W50331  15.200  29.468   3.408 -0.0099  0.3104  0.1387
 7420W        W50332  14.882  30.924   4.621  0.0480 -0.0101  0.1635
 7421W        W50333  17.309  31.586   6.205 -0.0664 -0.0169  0.2197
 7422W        W50334  18.929  29.836   7.793 -0.0033  0.0920 -0.0308
 7423W        W50335  16.477  29.027   3.319  0.1316  0.0227 -0.3115
 7424W        W50336  17.934  29.827   5.812  0.1970 -0.3949  0.0769
 7425W        W50337  15.566  32.189   4.482  0.1381  0.1338 -0.1114
 7426W        W50338  17.510  29.082   4.737  0.0188 -0.0399 -0.0900
 7427W        W50339  15.620  32.714   7.280  0.0161 -0.1224  0.0656
 7428W        W50340  15.678  30.577   5.600  0.3212  0.3850 -0.2057
 7429W        W50341  16.346  32.070   6.297 -0.2120  0.1095 -0.3081
 7430W        W50342  16.546  29.373   4.631 -0.0240  0.1602 -0.3603
 7431W        W50343  18.269  30.677   4.539 -0.0183  0.0095 -0.0156
 7432W        W50344  18.557  29.751   5.962  0.1771  0.0046 -0.0912
 7433W        W50345  18.783  30.266   7.542  0.1995 -0.1640 -0.2221
 7434W        W50346  17.093  31.525   7.243 -0.0512  0.2349  0.0563
 7435W        W50347  15.930  30.652   6.024 -0.0351 -0.2889  0.1281
 7436W        W50348  18.143  32.199   7.179 -0.1854 -0.2090  0.1500
 7437W        W50349  18.835  31.667   4.452 -0.0949  0.0647 -0.1222
 7438W        W50350  16.802  33.279   4.327  0.2595  0.1480  0.0354
 7439W        W50351  14.914  30.232   6.265 -0.0826  0.1977 -0.0706
 7440W        W50352  17.341  32.350   6.781 -0.1797  0.0823  0.1266
 7441W        W50353  17.848  31.606   4.768 -0.0314 -0.1948 -0.1879
 7442W        W50354  15.389  28.895   4.859 -0.1054 -0.0575  0.0184
 7443W        W50355  17.702  32.197   3.485 -0.0105  0.0018 -0.1397
 7444W        W50356  16.176  31.550   8.259  0.0405 -0.2367  0.0487
 7445W        W50357  14.780  31.166   6.678 -0.0447 -0.1591 -0.0005
 7446W        W50358  15.582  32.184   5.002 -0.0088  0.1570 -0.0017
 7447W        W50359  18.289  31.430   3.650 -0.1789  0.3240  0.0961
 7448W        W50360  17.402  31.281   4.014  0.3489  0.2492 -0.0351
 7449W        W50361  17.779  31.935   6.935  0.3487 -0.2598  0.2244
 7450W        W50362  16.666  30.502   3.884 -0.0925 -0.3215 -0.1769
 7451W        W50363  14.669  31.820   5.027 -0.3599 -0.1446  0.0276
 7452W        W50364  13.759  34.143   3.020 -0.0456  0.3618 -0.0135
 7453W        W50365  18.181  32.318   3.412 -0.2740 -0.1481  0.1103
 7454W        W50366  15.841  31.324   6.495 -0.0742  0.0414 -0.0630
 7455W        W50367  19.551  32.000   6.438 -0.4563  0.1571 -0.0202
 7456W        W50368  18.729  28.722   2.223 -0.1531  0.2769 -0.3187
 7457W        W50369  18.998  30.762   4.941 -0.2726 -0.0575  0.1257
 7458W        W50370  18.935  29.577   3.937 -0.0072  0.0653  0.1391
 7459W        W50371  17.439  32.376   7.616  0.0559  0.1166  0.0458
 7460W        W50372  16.597  29.576   6.004  0.0844 -0.2340 -0.3767
 7461W        W50373  17.648  30.450   4.033 -0.3381  0.1218 -0.1001
 7462W        W50374  16.881  30.586   6.177 -0.0696  0.0588  0.2708
 7463W        W50375  18.011  29.150   6.367  0.0876 -0.1717 -0.0497
 7464W        W50376  16.251  31.092   7.194 -0.2885  0.3125  0.3099
 7465W        W50377  16.887  32.181   4.427 -0.2048  0.1555 -0.0612
 7466W        W50378  14.161  29.896   3.814  0.1201 -0.3175  0.1819
 7467W        W50379  15.908  30.487   6.474 -0.1228  0.1683  0.0166
 7468W        W50380  17.651  28.781   6.050  0.0238  0.0147 -0.2118
 7469W        W50381  17.309  30.874   5.308 -0.0309 -0.0836 -0.3341
 7470W        W50382  17.984  29.790   6.876  0.1241 -0.1394  0.1407
 7471W        W50383  15.536  33.392   4.315  0.2181  0.0550  0.3517
 7472W        W50384  17.343  30.741   5.849  0.0009 -0.1699 -0.1039
 7473W        W50385  16.576  31.836   6.675  0.2770  0.2805  0.0613
 7474W        W50386  15.606  29.403   4.602  0.1260 -0.0381  0.2287
 7475W        W50387  18.463  30.595   4.012  0.0861  0.3221  0.2314
 7476W        W50388  15.480  31.392   7.145 -0.1594  0.2979 -0.2057
 7477W        W50389  19.000  31.112   5.249 -0.0768 -0.1179  0.2655
 7478W        W50390  16.476  29.997   5.471  0.2861 -0.3464  0.0022
 7479W        W50391  18.148  31.321   5.136 -0.2616 -0.0226  0.1466
 7480W        W50392  17.153  30.753   6.718  0.1559  0.0897 -0.1876
 7481W        W50393  16.118  29.479   4.916  0.0156 -0.0632  0.0883
 7482W        W50394  18.367  30.118   3.796  0.1906 -0.4373  0.2291
 7483W        W50395  18.022  30.211   6.667 -0.1403  0.0031  0.0370
 7484W        W50396  18.653  29.383   3.403  0.1087  0.2952  0.2598
 7485W        W50397  17.598  31.503   7.195  0.1242 -0.1043 -0.1380
 7486W        W50398  15.889  29.626   5.876  0.2657 -0.0624 -0.1929
 7487W        W50399  17.732  29.234   3.291  0.1466 -0.0437 -0.2411
 7488W        W50400  15.891  30.918   4.618 -0.0527  0.0953 -0.0234
 7489W        W50401  16.862  31.155   6.050  0.0372 -0.0263 -0.1208
 7490W        W50402  17.906  31.530   7.769  0.2331  0.2581 -0.2196
 7491W        W50403  15.684  28.664   6.093  0.1235 -0.1778  0.1206
 7492W        W50404  17.925  31.450   2.817  0.0396 -0.1296 -0.1201
 7493W        W50405  18.634  29.157   5.894  0.0428 -0.3320  0.2843
 7494W        W50406  16.971  32.450   3.365 -0.0664  0.1680  0.2108
 7495W        W50407  17.711  31.635   4.329 -0.0314 -0.0803  0.0835
 7496W        W50408  17.437  32.204   5.480 -0.0610 -0.0456 -0.1450
 7497W        W50409  14.682  30.127   5.854 -0.0670 -0.0377  0.0379
 7498W        W50410  18.939  31.250   6.230 -0.1950  0.0325 -0.4144
 7499W        W50411  19.529  32.546   5.797 -0.1398 -0.3240  0.0439
 7500W        W50412  17.836  28.688   5.545 -0.0138  0.0424  0.3282
 7501W        W50413  15.922  30.200   7.039  0.2020 -0.3123 -0.3600
 7502W        W50414  15.179  31.828   5.178  0.1077  0.0158 -0.1240
 7503W        W50415  18.245  29.990   4.684  0.2902  0.1514 -0.1584
 7504W        W50416  19.098  29.656   5.089 -0.2383 -0.0084  0.0707
 7505W        W50417  16.287  32.938   3.103 -0.3466 -0.1143  0.1015
 7506W        W50418  17.320  28.962   5.248 -0.1372  0.3881  0.0044
 7507W        W50419  16.586  32.671   5.777 -0.1532 -0.3028 -0.0248
 7508W        W50420  16.356  31.787   8.667  0.1917 -0.1060 -0.1530
 7509W        W50421  15.378  32.541   3.002  0.0056 -0.0843 -0.1852
 7510W        W50422  17.085  30.730   7.291  0.1822  0.2454  0.0825
 7511W        W50423  16.443  32.116   5.396 -0.1125  0.0249 -0.0034
 7512W        W50424  16.166  32.496   2.887  0.2583 -0.2307  0.0026
 7513W        W50425  17.451  33.460   6.574 -0.1745 -0.1096  0.0752
 7514W        W50426  17.210  30.414   5.426  0.0133  0.0447  0.0550
 7515W        W50427  19.199  32.138   5.733  0.0654 -0.1320  0.0921
 7516W        W50428  17.467  29.446   5.170  0.2228 -0.1080  0.0495
 7517W        W50429  18.908  30.340   4.029  0.2730  0.2087  0.2973
 7518W        W50430  18.391  28.938   4.258 -0.0927  0.1698 -0.2916
 7519W        W50431  15.341  30.838   7.209  0.1172  0.0852 -0.1030
 7520W        W50432  14.705  29.939   3.493  0.0057 -0.0599  0.1913
 7521W        W50433  14.902  32.348   3.857 -0.1953 -0.0130 -0.0201
 7522W        W50434  16.911  31.860   6.265  0.2994  0.0450  0.1873
 7523W        W50435  15.905  29.158   7.019 -0.0028  0.1977 -0.0898
 7524W        W50436  15.146  29.367   7.726  0.0717 -0.0645 -0.1194
 7525W        W50437  16.635  32.136   5.840  0.1977  0.0485  0.1157
 7526W        W50438  17.232  30.006   4.449 -0.2764  0.0086 -0.1110
 7527W        W50439  18.502  32.045   4.293  0.2025 -0.0558  0.1031
 7528W        W50440  16.568  28.365   5.201  0.0635 -0.0185 -0.0175
 7529W        W50441  14.471  29.347   5.770 -0.1971 -0.0491  0.1305
 7530W        W50442  17.957  32.069   4.327  0.3306  0.4277 -0.2095
 7531W        W50443  17.214  33.608   4.167  0.0678 -0.0170 -0.1763
 7532W        W50444  16.137  29.404   4.342 -0.4567  0.4546  0.0310
 7533W        W50445  19.352  31.315   9.097  0.1584 -0.3535  0.1737
 7534W        W50446  14.560  32.039   2.913 -0.0162 -0.2965  0.1693
 7535W        W50447  16.231  30.182   7.436 -0.0431  0.2049 -0.2184
 7536W        W50448  17.222  28.979   6.182  0.2072 -0.0078  0.1414
 7537W        W50449  15.755  30.377   4.338 -0.2300 -0.1877 -0.0582
 7538W        W50450  18.377  32.056   6.724  0.1937  0.0514  0.0849
 7539W        W50451  17.741  31.901   5.906  0.1805 -0.0012 -0.2831
 7540W        W50452  17.620  33.311   4.297  0.2387 -0.0796  0.2299
 7541W        W50453  17.317  31.082   6.304  0.1379 -0.0803  0.1073
 7542W        W50454  17.595  32.852   6.062  0.1175 -0.0519  0.1497
 7543W        W50455  13.705  29.733   6.044  0.1255 -0.3044 -0.0989
 7544W        W50456  17.735  31.122   4.376  0.3400 -0.2239  0.0242
 7545W        W50457  17.438  30.682   7.914  0.0352 -0.1120 -0.0603
 7546W        W50458  18.400  31.093   4.033 -0.1047  0.0555 -0.1462
 7547W        W50459  19.896  29.308   4.306 -0.3219 -0.1376 -0.0139
 7548W        W50460  18.192  31.298   4.569  0.0240 -0.0959 -0.0804
 7549W        W50461  15.191  29.067   8.153  0.0474  0.0637 -0.1149
 7550W        W50462  15.360  31.999   7.159  0.0247  0.1677 -0.3253
 7551W        W50463  18.411  31.192   7.013  0.2295  0.0550 -0.1029
 7552W        W50464  15.932  29.047   4.729  0.1646  0.1036 -0.0030
 7553W        W50465  16.860  30.682   5.099  0.0342 -0.2357  0.0358
 7554W        W50466  17.431  32.536   3.879 -0.0353 -0.2607 -0.0484
 7555W        W50467  14.550  30.381   4.932 -0.1065  0.4648  0.1461
 7556W        W50468  17.150  30.825   4.025  0.0733  0.0136  0.1164
 7557W        W50469  17.390  29.639   7.425 -0.0294  0.2883  0.3591
 7558W        W50470  16.071  31.329   5.407 -0.0336 -0.1908  0.1810
 7559W        W50471  19.172  30.460   8.078  0.1185  0.2128  0.0290
 7560W        W50472  16.592  31.127   5.244  0.2445  0.0071 -0.2255
 7561W        W50473  18.304  30.325   3.332  0.0867  0.0785  0.1148
 7562W        W50474  18.663  31.641   6.936  0.2402  0.3324 -0.0673
 7563W        W50475  17.882  31.098   7.331 -0.1564  0.0671  0.0714
 7564W        W50476  16.961  32.466   7.188 -0.2483  0.0722  0.0956
 7565W        W50477  18.241  31.887   5.865  0.1232  0.0708 -0.2801
 7566W        W50478  15.837  28.714   5.598 -0.0467 -0.0117 -0.1584
 7567W        W50479  14.882  31.417   4.880  0.1303 -0.1471  0.2666
 7568W        W50480  16.262  30.288   5.841  0.3461 -0.0818  0.0066
 7569W        W50481  16.783  30.387   5.714  0.0794 -0.1735 -0.2407
 7570W        W50482  16.359  28.797   4.542  0.3698  0.1180  0.1928
 7571W        W50483  17.424  29.839   4.021 -0.1215  0.0217 -0.2548
 7572W        W50484  17.564  32.021   6.380  0.0762 -0.2210 -0.2346
 7573W        W50485  16.466  31.262   5.705 -0.2621  0.3441 -0.2423
 7574W        W50486  14.964  29.324   9.893  0.2180 -0.2466  0.2428
 7575W        W50487  15.621  29.860   8.550 -0.3065  0.2065  0.0464
 7576W        W50488  18.222  29.336   6.788 -0.1800  0.3031  0.3080
 7577W        W50489  17.746  28.726   8.395 -0.0259  0.3956 -0.2986
 7578W        W50490  15.125  27.867   9.194  0.2171  0.1273 -0.2073
 7579W        W50491  17.082  32.609   8.931  0.1265 -0.2171 -0.3468
 7580W        W50492  17.596  32.834   8.879  0.1342  0.1879  0.0228
 7581W        W50493  17.698  31.710   9.394  0.0259  0.2569  0.5098
 7582W        W50494  17.009  30.046   9.183 -0.0927 -0.0091  0.0713
 7583W        W50495  17.223  29.106   9.449 -0.0935 -0.0787 -0.0970
 7584W        W50496  16.177  29.439   7.350 -0.0034  0.0813 -0.0373
 7585W        W50497  14.788  26.421   9.767  0.3334  0.1091 -0.0764
 7586W        W50498  18.449  28.431  10.335  0.0533 -0.0333  0.1781
 7587W        W50499  15.107  30.029   9.001 -0.2506  0.1033  0.0928
 7588W        W50500  15.071  28.720   9.450 -0.3242 -0.0987 -0.0571
 7589W        W50501  16.437  30.175   8.901  0.2123  0.1108 -0.0836
 7590W        W50502  16.365  31.432   8.988  0.2979 -0.0592 -0.2056
 7591W        W50503  17.906  29.312  10.027  0.1922  0.1834  0.4279
 7592W        W50504  18.009  30.666   8.677 -0.0978  0.0347  0.0527
 7593W        W50505  16.104  30.403   7.876  0.1193  0.0696 -0.1968
 7594W        W50506  15.683  29.467   8.857 -0.1347 -0.2112 -0.2220
 7595W        W50507  14.703  30.094   9.833 -0.0820 -0.1289  0.1097
 7596W        W50508  20.063  28.709  10.245 -0.1306  0.0957 -0.1510
 7597W        W50509  18.480  32.285  10.389 -0.3643 -0.0765 -0.1120
 7598W        W50510  15.719  29.595   9.317  0.4812  0.2024 -0.0653
 7599W        W50511  15.658  30.038   8.996  0.1865  0.0433  0.1630
 7600W        W50512  15.252  32.081   9.228  0.1356 -0.3125  0.0935
 7601W        W50513  15.793  33.842  10.077  0.2514  0.2723 -0.5353
 7602W        W50514  15.667  30.610   8.169  0.2451  0.1649 -0.0549
 7603W        W50515  18.221  29.764   8.613 -0.1046  0.0370  0.0142
 7604W        W50516  14.884  31.526   7.536  0.0749 -0.0420 -0.0461
 7605W        W50517  16.090  30.730  10.124 -0.3499 -0.0328  0.1372
 7606W        W50518  18.544  29.556   9.176 -0.4211  0.4207 -0.2076
 7607W        W50519  16.361  30.436   6.288  0.1374  0.1596 -0.1277
 7608W        W50520  16.885  29.219   9.882 -0.0240 -0.2370 -0.2488
 7609W        W50521  15.471  31.186   9.529 -0.2286  0.0187  0.0133
 7610W        W50522  15.548  32.351   7.782  0.0320 -0.2548 -0.2723
 7611W        W50523  19.104  29.948   7.032 -0.4288  0.0999  0.0890
 7612W        W50524  16.392  29.382   6.851 -0.2167  0.1575 -0.0787
 7613W        W50525  17.485  29.074   6.601 -0.0835 -0.0805 -0.2761
 7614W        W50526  15.420  29.060   9.132 -0.0108  0.0942 -0.2825
 7615W        W50527  16.069  32.188   9.828  0.1529  0.2560 -0.0307
 7616W        W50528  18.720  28.941   9.909 -0.2824  0.0139  0.3769
 7617W        W50529  17.859  30.217   8.609  0.0513 -0.2520  0.5412
 7618W        W50530  16.549  29.053   8.952 -0.4559 -0.2705 -0.2851
 7619W        W50531  15.671  30.706  10.446  0.2886 -0.1108  0.0233
 7620W        W50532  13.990  31.080   8.922  0.0304 -0.0727  0.0427
 7621W        W50533  17.004  32.734   8.046 -0.1914  0.1232 -0.1722
 7622W        W50534  18.270  31.148   7.768 -0.0969 -0.1528 -0.2272
 7623W        W50535  16.363  31.346   7.730  0.3518 -0.3691 -0.0603
 7624W        W50536  15.372  30.256   7.115 -0.1827  0.1326 -0.0371
 7625W        W50537  15.675  28.688   7.089 -0.0389  0.0887 -0.0432
 7626W        W50538  18.034  31.643   8.999 -0.1263  0.2408  0.1369
 7627W        W50539  16.414  29.806   8.534 -0.1095 -0.0569 -0.0536
 7628W        W50540  17.627  31.300   9.721 -0.2537 -0.1452  0.0970
 7629W        W50541  18.840  30.800   7.598 -0.0247  0.1979 -0.0739
 7630W        W50542  17.391  28.257   7.950 -0.1977 -0.0363  0.4421
 7631W        W50543  14.941  27.370   9.759 -0.1448 -0.1085 -0.1362
 7632W        W50544  15.915  30.673   7.294  0.2360 -0.0555 -0.2996
 7633W        W50545  16.765  30.779   7.794  0.1629 -0.2641  0.0321
 7634W        W50546  18.854  31.269   9.834  0.1488  0.0885  0.1920
 7635W        W50547  17.008  29.582  10.294 -0.3514 -0.1387  0.2455
 7636W        W50548  14.234  31.452   8.702  0.0965  0.3909  0.1218
 7637W        W50549  16.280  31.934   7.965 -0.1335  0.1172 -0.0740
 7638W        W50550  14.492  31.442   7.146  0.0441  0.2485  0.3843
 7639W        W50551  15.364  31.134   7.618  0.1690 -0.0500 -0.2514
 7640W        W50552  15.947  30.239  10.329  0.3624 -0.3114 -0.0612
 7641W        W50553  17.265  30.432   9.508 -0.1815  0.0084  0.5458
 7642W        W50554  20.069  27.982   6.786  0.0319  0.0662  0.0884
 7643W        W50555  17.706  29.205   7.622  0.1985  0.0745 -0.2308
 7644W        W50556  15.662  30.560   9.026 -0.1465 -0.0015 -0.3248
 7645W        W50557  19.138  31.039   9.543  0.0539  0.0219  0.5375
 7646W        W50558  18.610  30.295   9.951  0.0127 -0.1805 -0.2316
 7647W        W50559  17.699  31.025   8.358 -0.1778 -0.2924 -0.0523
 7648W        W50560  15.135  30.540   8.968  0.2601 -0.1975  0.0676
 7649W        W50561  15.301  29.406   9.563 -0.2121 -0.1730 -0.0003
 7650W        W50562  14.691  26.921   9.701 -0.0106  0.0734  0.2479
 7651W        W50563  14.961  28.568   8.535  0.0313  0.1279  0.2880
 7652W        W50564  17.791  28.733   8.955  0.1208  0.0747  0.0384
 7653W        W50565  17.745  29.490   9.404 -0.1675  0.1284  0.0949
 7654W        W50566  15.973  30.928   8.973  0.1904 -0.2727  0.0217
 7655W        W50567  17.843  30.562   8.179 -0.2616 -0.2848  0.1702
 7656W        W50568  16.751  30.637  10.265  0.3298 -0.3153 -0.2681
 7657W        W50569  17.745  31.501   8.598  0.1107  0.2220 -0.4467
 7658W        W50570  14.479  29.617   9.344 -0.0788  0.0401 -0.1496
 7659W        W50571  15.095  30.072   7.675 -0.3294  0.0071  0.0155
 7660W        W50572  15.994  32.032   8.392  0.3474 -0.0858 -0.2747
 7661W        W50573  17.211  31.149   8.411 -0.1071  0.0548  0.0738
 7662W        W50574  15.537  29.357   8.321 -0.1210  0.1548 -0.1100
 7663W        W50575  18.065  32.265  10.064  0.1714 -0.0905 -0.1033
 7664W        W50576  17.505  30.185   8.127 -0.0007 -0.2186  0.1844
 7665W        W50577  16.488  28.481   9.375  0.0025  0.2836  0.0682
 7666W        W50578  17.804  30.713   9.728  0.0618 -0.1685  0.1049
 7667W        W50579  15.404  29.179   6.947  0.4533  0.0865  0.1201
 7668W        W50580  15.845  31.252   7.472  0.0229  0.1173 -0.1618
 7669W        W50581  15.273  30.671   7.739  0.3615 -0.0415  0.0113
 7670W        W50582  17.350  30.647   8.512 -0.2453 -0.0145 -0.1757
 7671W        W50583  18.580  29.859   8.243  0.0287 -0.1795  0.3976
 7672W        W50584  15.625  30.085   8.117  0.2431  0.4115  0.1927
 7673W        W50585  15.407  28.255   7.126  0.0477 -0.1056  0.1649
 7674W        W50586  18.813  29.293   6.903  0.2642  0.2215  0.0712
 7675W        W50587  18.047  31.420   8.211 -0.0369 -0.1707 -0.1520
 7676W        W50588  16.109  30.022   6.651  0.0759  0.0097 -0.0043
 7677W        W50589  17.103  29.981   6.526  0.0043 -0.2898 -0.1059
 7678W        W50590  18.016  28.861  10.246  0.3286  0.1734  0.0468
 7679W        W50591  17.611  28.925   9.884  0.1537 -0.1365  0.0735
 7680W        W50592  16.872  29.831   7.130  0.0800 -0.2190 -0.2112
 7681W        W50593  19.218  32.985   8.168  0.0009  0.2709 -0.2860
 7682W        W50594  16.605  30.234   9.439 -0.1474 -0.0041 -0.4218
 7683W        W50595  16.817  31.501   8.651  0.0441 -0.0822 -0.0445
 7684W        W50596  17.719  28.121   7.374 -0.1266 -0.0274 -0.0833
 7685W        W50597  16.200  29.913   7.940 -0.5347  0.0070  0.1563
 7686W        W50598  17.058  29.848   9.898  0.1750  0.1463  0.1562
 7687W        W50599  16.805  33.088   7.665 -0.1348  0.1484  0.2614
 7688W        W50600  18.236  28.423   9.738 -0.1413  0.0167  0.1366
 7689W        W50601  17.744  29.274   8.176 -0.1845  0.1048  0.0418
 7690W        W50602  18.489  29.391   6.301 -0.0555  0.0400 -0.1759
 7691W        W50603  16.841  30.795   8.447  0.0087  0.1100  0.0860
 7692W        W50604  15.402  30.774   5.951  0.0651 -0.2188 -0.3990
 7693W        W50605  17.040  28.296   9.349  0.0706  0.2062  0.1134
 7694W        W50606  14.639  31.102   9.594 -0.0206 -0.0462 -0.0548
 7695W        W50607  18.803  31.452   9.372  0.2455 -0.0677  0.2027
 7696W        W50608  17.205  29.218   7.681  0.1262 -0.0724  0.3099
 7697W        W50609  15.863  31.529   8.770 -0.0728 -0.0702 -0.0225
 7698W        W50610  15.899  30.638   8.574  0.2629  0.2600  0.0117
 7699W        W50611  15.971  28.320   9.327 -0.0357  0.2172  0.0612
 7700W        W50612  16.328  31.951   9.150  0.0693 -0.3096  0.1209
 7701W        W50613  16.461  31.147   8.477  0.0418 -0.2704 -0.2470
 7702W        W50614  17.416  30.890   9.392 -0.1958 -0.2730  0.0904
 7703W        W50615  15.495  31.919   8.761 -0.1003  0.1804 -0.1018
 7704W        W50616  17.724  28.159   8.348  0.3011 -0.0974  0.1200
 7705W        W50617  15.284  31.076   8.163  0.2245  0.0259 -0.2507
 7706W        W50618  15.086  30.283   6.721  0.0303  0.1616  0.1723
 7707W        W50619  15.217  28.365   8.929  0.0518 -0.0239 -0.0802
 7708W        W50620  18.550  29.028   9.179 -0.0803 -0.1457  0.1323
 7709W        W50621  18.691  29.673   7.265 -0.1269 -0.1464 -0.0953
 7710W        W50622  17.311  28.590   9.673 -0.0470  0.2950  0.1129
 7711W        W50623  16.873  30.070  10.341  0.3503 -0.3278 -0.2454
 7712W        W50624  12.691  32.829  10.473 -0.0085  0.0925 -0.0784
 7713W        W50625  16.740  29.225   7.611 -0.0297 -0.2269 -0.2485
 7714W        W50626  16.101  28.543   6.466 -0.0943 -0.3653 -0.3691
 7715W        W50627  18.403  27.923   9.687  0.1826  0.0060 -0.0854
 7716W        W50628  16.009  29.649   8.312  0.0632 -0.2107 -0.0239
 7717W        W50629  15.950  31.156  10.404 -0.1989 -0.1481 -0.2518
 7718W        W50630  18.600  31.055   8.595  0.1560  0.1996 -0.1259
 7719W        W50631  15.162  29.671   8.587  0.1413  0.1195 -0.2879
 7720W        W50632  16.087  31.676   7.533 -0.2339  0.0387 -0.2819
 7721W        W50633  18.605  31.874   9.167 -0.1689 -0.0656  0.0991
 7722W        W50634  13.840  29.270   9.229 -0.1658 -0.3853  0.0382
 7723W        W50635  16.584  29.109   9.529 -0.0362  0.1512  0.0909
 7724W        W50636  16.224  29.433   9.241  0.0136 -0.0519  0.1808
 7725W        W50637  17.977  31.172  10.147 -0.1280  0.0653  0.1393
 7726W        W50638  16.368  30.194  10.546 -0.1787 -0.1659  0.1471
 7727W        W50639  16.843  30.176   8.605 -0.3307  0.1502  0.1816
 7728W        W50640  19.436  32.446   8.454  0.1419 -0.1638 -0.2207
 7729W        W50641  16.410  29.836   7.019 -0.1301 -0.2446  0.2119
 7730W        W50642  15.797  29.199   9.569  0.0288  0.1137 -0.0067
 7731W        W50643  16.013  29.525   9.884  0.2512  0.0752 -0.0589
 7732W        W50644  16.897  29.554   9.486 -0.0143  0.1557  0.3048
 7733W        W50645  14.657  29.437  10.296  0.0811 -0.1014 -0.2501
 7734W        W50646  16.299  30.845   7.634 -0.1115  0.4039  0.0231
 7735W        W50647  16.105  30.300   9.217 -0.0690 -0.4027  0.0935
 7736W        W50648  18.818  28.877   7.905  0.2848  0.2183 -0.0299
 7737W        W50649  17.273  31.031   7.631 -0.0032 -0.1442 -0.3751
 7738W        W50650  18.437  29.940   7.746  0.0460 -0.2821  0.0226
 7739W        W50651  17.041  30.472   8.167  0.0429 -0.2681  0.1928
 7740W        W50652  16.898  28.750   9.350  0.0917  0.0412 -0.0394
 7741W        W50653  18.518  31.353   8.166  0.0594  0.2826  0.0175
 7742W        W50654  16.996  29.754   8.378 -0.2308  0.0756  0.0747
 7743W        W50655  16.520  28.980   8.035  0.0575 -0.0825  0.0468
 7744W        W50656  16.221  31.642   9.532 -0.2656  0.0699  0.0566
 7745W        W50657  17.787  32.453   9.625 -0.3007  0.2355 -0.0810
 7746W        W50658  16.417  30.405   8.254 -0.0488 -0.2525 -0.0673
 7747W        W50659  17.539  29.416  10.271  0.1734  0.0653  0.2512
 7748W        W50660  15.705  31.070   9.959  0.0348 -0.1686  0.1539
 7749W        W50661  18.072  31.052   9.513  0.1859  0.1077  0.4069
 7750W        W50662  16.591  29.752   7.514  0.2071 -0.1207 -0.2195
 7751W        W50663  16.083  29.807   9.002 -0.1191 -0.1055  0.2858
 7752W        W50664  17.531  32.053  10.098 -0.0918  0.1391 -0.0727
 7753W        W50665  18.329  29.659  10.141 -0.0975  0.2376  0.2168
 7754W        W50666  18.087  32.005   9.394  0.2137  0.0195  0.3423
 7755W        W50667  18.521  29.832   6.608  0.1846  0.0823 -0.0776
 7756W        W50668  18.655  27.240   8.936  0.0845 -0.4545 -0.0750
 7757W        W50669  18.181  28.919   9.734 -0.0375  0.0657 -0.1606
 7758W        W50670  17.176  30.305   7.019  0.1835  0.2804 -0.3271
 7759W        W50671  14.811  29.399   8.317  0.1784 -0.0141 -0.2725
 7760W        W50672  15.896  29.628   6.966  0.0880  0.0191 -0.1015
 7761W        W50673  16.834  31.229   7.992 -0.3533  0.0218 -0.0225
 7762W        W50674  16.689  31.719   9.750 -0.2706 -0.1141 -0.1301
 7763W        W50675  18.332  29.917   9.690  0.0727  0.2155  0.1875
 7764W        W50676  15.640  30.500   9.907  0.1371  0.0454 -0.0696
 7765W        W50677  15.266  28.537   8.014  0.0140 -0.2461 -0.0732
 7766W        W50678  15.037  31.555   6.965  0.1363 -0.2448 -0.3223
 7767W        W50679  17.642  31.916   8.902 -0.1813 -0.4977  0.1449
 7768W        W50680  16.324  28.970   7.162  0.0199  0.0538  0.0470
 7769W        W50681  15.341  31.356   8.656  0.1811 -0.0502  0.3276
 7770W        W50682  17.182  29.152   7.214  0.1394 -0.2373 -0.0677
 7771W        W50683  16.548  32.283   9.596 -0.0230 -0.2472 -0.0188
 7772W        W50684  15.706  31.345   7.988 -0.1773 -0.1349 -0.2249
 7773W        W50685  16.961  28.865   8.353 -0.0154 -0.0795  0.0043
 7774W        W50686  17.343  28.683   9.118  0.2980 -0.2610 -0.0363
 7775W        W50687  17.584  30.032   9.069 -0.1096  0.3438 -0.2106
 7776W        W50688  14.824  30.788  10.058  0.2111  0.3845  0.0594
 7777W        W50689  17.253  29.575   9.006 -0.0793  0.2677  0.3153
 7778W        W50690  16.384  30.622   8.793 -0.2000  0.0339  0.3407
 7779W        W50691  17.719  31.258   9.137 -0.2488 -0.2369  0.0007
 7780W        W50692  16.610  29.612   8.035  0.0308 -0.1485  0.2107
 7781W        W50693  17.278  31.413   7.968  0.1649  0.1541 -0.0524
 7782W        W50694  16.975  30.579   8.994 -0.1587 -0.0509  0.1167
 7783W        W50695  15.713  32.370   8.582  0.0302  0.1852  0.1640
 7784W        W50696  18.420  31.549   8.645  0.0053 -0.0313 -0.0913
 7785W        W50697  17.937  30.776   9.167  0.2557  0.3744 -0.0178
 7786W        W50698  16.938  32.981   9.694 -0.1137 -0.0495  0.2797
 7787W        W50699  17.788  29.714   8.390 -0.1983  0.1622 -0.1073
 7788W        W50700  15.661  31.622   8.340  0.0869  0.1477 -0.2145
 7789W        W50701  14.409  32.175   6.775  0.0791  0.0942  0.0525
 7790W        W50702  17.767  31.088   7.894  0.0020 -0.0508 -0.5086
 7791W        W50703  15.234  31.657   8.034  0.0786 -0.2464  0.0665
 7792W        W50704  19.139  29.571   7.402  0.0951 -0.2280  0.1463
 7793W        W50705  18.273  31.742  10.269  0.1006 -0.2521 -0.1936
 7794W        W50706  18.190  30.273   7.458  0.0168  0.3465 -0.1673
 7795W        W50707  18.747  29.378  10.104  0.1440 -0.2681 -0.0611
 7796W        W50708  16.650  29.800   6.589  0.3937  0.2499  0.2349
 7797W        W50709  17.529  32.883   7.340 -0.0040  0.0323 -0.0179
 7798W        W50710  14.846  27.900   8.807  0.2455  0.0597 -0.2430
 7799W        W50711  15.815  30.823   9.523 -0.1598  0.2303  0.2772
 7800W        W50712  17.786  28.963   9.407  0.2717 -0.1802 -0.0980
 7801W        W50713  17.525  30.546   8.999  0.1934  0.1572 -0.4738
 7802W        W50714  17.370  30.071   8.645 -0.2564  0.1181  0.1351
 7803W        W50715  16.179  32.242   8.806  0.3019 -0.0886 -0.0130
 7804W        W50716  14.758  32.170   9.999  0.1589 -0.0888 -0.1354
 7805W        W50717  15.274  30.939  10.236  0.1987 -0.0242 -0.3778
 7806W        W50718  15.734  29.610   7.903  0.3983  0.2283  0.1045
 7807W        W50719  18.808  30.574   9.599  0.0344  0.2641  0.2211
 7808W        W50720  14.410  29.697   9.857 -0.0240  0.0208  0.0465
 7809W        W50721  16.070  30.464   9.696 -0.0859  0.0983  0.0455
 7810W        W50722  18.008  29.197   7.193 -0.0805 -0.3501  0.1470
 7811W        W50723  18.878  31.561   8.859  0.0123 -0.0669 -0.0156
 7812W        W50724  16.047  27.132   9.109 -0.1238  0.1487 -0.1563
 7813W        W50725  17.395  29.668   7.991 -0.2172 -0.0590 -0.2114
 7814W        W50726  17.027  30.329   7.680  0.1236 -0.1261  0.0299
 7815W        W50727  14.131  28.288   9.011 -0.1145  0.1030  0.1095
 7816W        W50728  18.261  29.593   7.400 -0.0338  0.1761 -0.2453
 7817W        W50729  14.891  30.798   8.284 -0.1696  0.0964 -0.3495
 7818W        W50730  15.317  27.536   9.485  0.1090 -0.5489 -0.2795
 7819W        W50731  15.136  26.101   9.440 -0.0543  0.1299 -0.0702
 7820W        W50732  19.407  31.601   8.643 -0.0278 -0.0285  0.0183
 7821W        W50733  17.363  29.432   9.786 -0.1243  0.1370 -0.0894
 7822W        W50734  17.249  31.618   8.473 -0.2511 -0.0212 -0.0521
 7823W        W50735  16.893  30.751   9.489 -0.1666  0.1195 -0.3825
 7824W        W50736  17.865  31.718   9.874  0.0490  0.0303 -0.0346
 7825W        W50737  13.822  28.110   9.668  0.2751 -0.3680  0.0117
 7826W        W50738  15.916  31.265   9.346  0.1020  0.0377 -0.3657
 7827W        W50739  18.441  30.635   8.928 -0.5080  0.2126  0.1233
 7828W        W50740  18.653  29.390   7.793 -0.1930 -0.0812  0.3372
 7829W        W50741  16.560  29.784   9.206  0.1028  0.0053  0.0229
 7830W        W50742  14.889  31.400   8.332  0.3336 -0.0605  0.0547
 7831W        W50743  16.951  31.730  10.145 -0.1994 -0.4035 -0.2093
 7832W        W50744  17.940  32.286   6.621  0.0488  0.1249  0.1661
 7833W        W50745  16.479  29.715   9.778  0.0144 -0.1600  0.0697
 7834W        W50746  15.390  29.753   7.222  0.2241  0.2412  0.3094
 7835W        W50747  16.301  30.736   9.299  0.4761  0.1547  0.0025
 7836W        W50748  16.413  32.857   8.091 -0.2981 -0.5458  0.1640
 7837W        W50749  18.364  32.007   9.786  0.0007  0.0162  0.2322
 7838W        W50750  17.758  28.506   9.389  0.4051 -0.0674 -0.1236
 7839W        W50751  18.960  31.574   8.354  0.0567  0.1633 -0.0671
 7840W        W50752  17.081  29.081   8.990  0.1577  0.0167  0.1530
 7841W        W50753  18.756  29.732   8.668  0.0976  0.2738  0.4777
 7842W        W50754  17.566  28.572   6.503  0.1800 -0.1157  0.4074
 7843W        W50755  14.448  31.066   8.493  0.3044  0.3334  0.3999
 7844W        W50756  14.429  30.955   6.996 -0.0889 -0.2339 -0.2059
 7845W        W50757  15.425  30.360   6.270 -0.0352  0.1630 -0.2084
 7846W        W50758  15.968  30.152   8.508  0.0348  0.0580  0.0817
 7847W        W50759  14.841  28.821   9.878  0.2051  0.2238  0.0520
 7848W        W50760  15.174  29.169   8.647 -0.0016  0.1162  0.1394
 7849W        W50761  18.740  33.090   8.086  0.0347  0.1096  0.2150
 7850W        W50762  12.927  29.785   9.573 -0.1875 -0.0749 -0.1891
 7851W        W50763  15.228  29.507   9.044  0.1216 -0.0149  0.0604
 7852W        W50764  15.811  31.783   9.263 -0.1367  0.3199  0.1237
 7853W        W50765  18.317  32.140   8.811  0.1742  0.1054 -0.2768
 7854W        W50766  16.748  29.466   8.843 -0.0145  0.0222 -0.0359
 7855W        W50767  14.776  30.454   7.923  0.1563  0.0959 -0.0364
 7856W        W50768  14.621  30.067   6.697 -0.0155 -0.3721 -0.2546
 7857W        W50769  16.617  28.712   9.844 -0.1448 -0.0702 -0.2983
 7858W        W50770  19.147  31.967   7.708  0.0172 -0.0679  0.0832
 7859W        W50771  18.394  32.098   7.618  0.0740 -0.0177  0.1343
 7860W        W50772  14.060  29.517  10.219 -0.1679  0.1364 -0.1407
 7861W        W50773  17.399  29.843   9.515 -0.0684  0.1785  0.0907
 7862W        W50774  19.321  31.631   8.051 -0.2251  0.1963 -0.2006
 7863W        W50775  17.786  29.630   8.864  0.2529  0.0095  0.1312
 7864W        W50776  17.906  29.187   8.624  0.1018 -0.3902 -0.2368
 7865W        W50777  17.487  32.308   9.227 -0.0771  0.0993 -0.1976
 7866W        W50778  16.244  29.400   7.830 -0.1771  0.2951  0.1993
 7867W        W50779  18.195  29.538   8.063  0.0083 -0.1476 -0.3496
 7868W        W50780  18.198  30.912   8.262 -0.1991 -0.2443  0.0871
 7869W        W50781  14.106  29.853   9.016  0.1865  0.0795  0.0442
 7870W        W50782  16.208  28.860   9.387  0.0147  0.0075 -0.2213
 7871W        W50783  17.317  30.966   8.863  0.0462  0.0124  0.2049
 7872W        W50784  15.571  30.653   6.824 -0.1319  0.1386  0.3901
 7873W        W50785  18.002  30.303   9.058  0.0060 -0.0243  0.2381
 7874W        W50786  16.420  33.636  10.013  0.2414 -0.3167  0.3965
 7875W        W50787  16.644  32.182   8.522  0.2599 -0.1190  0.2979
 7876W        W50788  16.085  29.928   9.605  0.2325 -0.1996 -0.0052
 7877W        W50789  14.878  28.223   9.510  0.1679  0.1409  0.3214
 7878W        W50790  17.588  29.174   9.021  0.0519 -0.2240 -0.1568
 7879W        W50791  16.146  29.358   8.725 -0.0689 -0.3099 -0.0875
 7880W        W50792  16.693  31.031   8.936  0.3017  0.1491  0.0593
 7881W        W50793  15.422  28.282   9.361 -0.0646 -0.3052  0.0096
 7882W        W50794  16.403  28.760   7.597  0.1774 -0.2729  0.1677
 7883W        W50795  14.028  34.459   8.438  0.1837  0.1933  0.1626
 7884W        W50796  17.196  31.314   9.470  0.0688  0.0500  0.1079
 7885W        W50797  15.225   0.690   0.913 -0.0780  0.1265  0.1611
 7886W        W50798  17.033  31.399   1.088  0.2780  0.0913 -0.1965
 7887W        W50799  17.139   0.316   1.579 -0.0310  0.1982 -0.2536
 7888W        W50800  15.571  33.711   1.956 -0.1995  0.1144 -0.0085
 7889W        W50801  16.157  33.395   1.333  0.0150 -0.2326 -0.1410
 7890W        W50802  17.190   0.688  30.874 -0.2997  0.1538 -0.0154
 7891W        W50803  15.117  33.760   2.725 -0.1096  0.1196 -0.1409
 7892W        W50804  16.721  33.008  31.948 -0.0430 -0.1930  0.2640
 7893W        W50805  14.203  33.480   0.145  0.0989 -0.2198  0.3846
 7894W        W50806  19.068  33.928   3.790 -0.2911  0.1859 -0.1403
 7895W        W50807  14.177  34.611   0.989 -0.0718  0.0338  0.0412
 7896W        W50808  15.234  33.417   2.171  0.0798  0.1964  0.0492
 7897W        W50809  16.166   0.099   1.242  0.1839  0.3390 -0.1382
 7898W        W50810  14.550  33.053   3.326  0.1284  0.0341  0.0731
 7899W        W50811  15.646  32.124   2.313  0.0088 -0.2332  0.1958
 7900W        W50812  15.652   0.148   0.169 -0.0202 -0.0959 -0.1315
 7901W        W50813  12.927   1.012   1.666 -0.0420 -0.0867 -0.1751
 7902W        W50814  16.141   0.729   2.340  0.0785  0.1751 -0.1827
 7903W        W50815  18.097  33.868   1.831  0.0982  0.0460  0.0926
 7904W        W50816  17.855   0.592   1.597 -0.0237  0.0360  0.1435
 7905W        W50817  17.841  33.924   4.132  0.0298 -0.2291  0.3223
 7906W        W50818  17.058  33.239   3.177 -0.1429 -0.3370 -0.1682
 7907W        W50819  17.343  34.065   0.574 -0.3974 -0.2125  0.1843
 7908W        W50820  18.030  33.661   2.783 -0.0701 -0.0037 -0.1260
 7909W        W50821  16.170  34.115   1.985 -0.0309 -0.1974 -0.0042
 7910W        W50822  15.994  32.937  30.946 -0.0027 -0.1160 -0.2316
 7911W        W50823  18.996  33.418   0.824 -0.0799 -0.0061  0.2654
 7912W        W50824  16.701  32.796   0.763 -0.1482 -0.3601 -0.3318
 7913W        W50825  15.001  32.954   0.713  0.4561  0.4930 -0.0218
 7914W        W50826  16.774  33.626   1.315 -0.2358 -0.3458  0.1052
 7915W        W50827  16.800  33.589   3.433  0.1948 -0.0141 -0.0287
 7916W        W50828  16.732   0.639   2.409  0.2188  0.0432  0.3159
 7917W        W50829  13.992   0.863   0.768  0.0219  0.0994 -0.3067
 7918W        W50830  16.933  34.682   4.818 -0.0484  0.0095  0.3214
 7919W        W50831  15.421  32.823   3.449  0.1264  0.1078  0.0775
 7920W        W50832  14.229  33.083  31.214 -0.1569  0.0162  0.0750
 7921W        W50833  18.954  32.886   2.575 -0.0107 -0.0371  0.2249
 7922W        W50834  19.344  33.652   2.267  0.2353 -0.1605 -0.0778
 7923W        W50835  17.623  34.132   2.414  0.0324  0.1018  0.0193
 7924W        W50836  16.668   0.270   0.084 -0.2470  0.1848 -0.0943
 7925W        W50837  16.889   0.475   2.856 -0.0830  0.0415 -0.3231
 7926W        W50838  15.340  33.062   1.203 -0.3051 -0.1328  0.0138
 7927W        W50839  18.182  32.130   1.096  0.0449  0.2957 -0.0635
 7928W        W50840  15.898  32.900   2.390 -0.0226  0.0297  0.0185
 7929W        W50841  18.400  34.028   1.226  0.1185  0.3098 -0.1856
 7930W        W50842  18.637  34.018   1.718  0.5107 -0.0155  0.2191
 7931W        W50843  16.174   0.289   3.045  0.1350 -0.0006 -0.1740
 7932W        W50844  16.004   0.054   1.703 -0.3605 -0.1367  0.1625
 7933W        W50845  15.027  32.896   3.061 -0.2086  0.0355  0.1415
 7934W        W50846  15.530  31.889   1.703 -0.0203  0.0849 -0.0872
 7935W        W50847  18.498  33.757   2.654  0.1772  0.0096 -0.0190
 7936W        W50848  15.096  32.905  31.431  0.2812  0.1904  0.3304
 7937W        W50849  16.339  34.107   0.793  0.1585 -0.0815 -0.0752
 7938W        W50850  16.778   0.652   1.626 -0.1005 -0.0182  0.1902
 7939W        W50851  18.799  33.885   3.367 -0.1616 -0.0799  0.0398
 7940W        W50852  15.800  32.878   2.997  0.1183  0.1656  0.0863
 7941W        W50853  16.166  34.152  31.927  0.0478 -0.1123 -0.3144
 7942W        W50854  15.731  33.201   2.076 -0.1694  0.0088  0.0303
 7943W        W50855  18.872  33.423   3.641  0.2278  0.1033  0.0602
 7944W        W50856  16.409   0.523   1.958  0.0953 -0.0136 -0.4283
 7945W        W50857  15.180  33.523  31.829  0.1464  0.0734  0.3306
 7946W        W50858  14.290   0.521   0.392 -0.2307 -0.0699  0.1265
 7947W        W50859  18.297   0.111   3.709  0.3324  0.0429 -0.0415
 7948W        W50860  15.149  34.642   3.599  0.0895  0.1654  0.1106
 7949W        W50861  17.034  33.891   3.741 -0.0693 -0.0855  0.0652
 7950W        W50862  14.942  34.374   0.461  0.1881 -0.1825  0.2568
 7951W        W50863  17.214  33.299   1.199 -0.0215 -0.2650  0.2006
 7952W        W50864  19.157  33.096  31.963  0.0165 -0.0953 -0.2421
 7953W        W50865  15.626  32.281   0.238 -0.1904 -0.0860  0.2262
 7954W        W50866  19.349  33.844   0.322 -0.2767  0.0722 -0.0763
 7955W        W50867  16.442  33.201  30.862  0.1682  0.2510  0.3191
 7956W        W50868  16.746  32.494   2.416 -0.0111  0.1821 -0.0659
 7957W        W50869  15.594  33.673   0.271 -0.0123  0.1462 -0.0041
 7958W        W50870  17.214  32.719   2.099 -0.2873 -0.0628 -0.0924
 7959W        W50871  18.182  33.845   3.734  0.0864  0.3868  0.0688
 7960W        W50872  17.278  34.444   2.484  0.5003  0.1597 -0.1209
 7961W        W50873  16.921  32.491   3.900 -0.3775 -0.1961 -0.0282
 7962W        W50874  19.271  34.374   3.850  0.3132  0.0580  0.2000
 7963W        W50875  18.751  34.375   0.907  0.2772  0.0134  0.1173
 7964W        W50876  16.426  33.658   2.582  0.0477  0.1327  0.0101
 7965W        W50877  15.916  34.557  31.833  0.0586 -0.0747  0.0252
 7966W        W50878  17.513  33.242   3.563 -0.0005  0.2045 -0.1829
 7967W        W50879  19.530  33.312   3.137  0.3028  0.3251  0.1696
 7968W        W50880  16.643  33.139   1.093  0.1705  0.3421 -0.4214
 7969W        W50881  15.614  31.547   0.977 -0.1357 -0.3088 -0.0672
 7970W        W50882  19.899  33.309   3.596  0.0421 -0.1342 -0.1440
 7971W        W50883  14.423   0.017   0.529  0.4143  0.0092 -0.4741
 7972W        W50884  15.319  34.065   1.691 -0.0874 -0.0512  0.0247
 7973W        W50885  17.479  33.672   0.920  0.0232 -0.1375 -0.1412
 7974W        W50886  15.102  33.276   2.668 -0.2557  0.2035  0.1576
 7975W        W50887  16.328  32.337   1.664  0.3574  0.2596 -0.3705
 7976W        W50888  17.341  33.829   2.723  0.0882 -0.2470 -0.0157
 7977W        W50889  18.510  33.640  31.823  0.4173  0.0066  0.0753
 7978W        W50890  17.125   0.285   3.357  0.1401 -0.2223  0.3884
 7979W        W50891  14.607  34.617   0.111 -0.0280 -0.1290 -0.1182
 7980W        W50892  19.154  34.300   3.352 -0.0458 -0.0913  0.0840
 7981W        W50893  14.928  33.771   1.959  0.2626  0.0489 -0.3983
 7982W        W50894  15.229   0.646  31.835 -0.2310 -0.1046 -0.2639
 7983W        W50895  17.094  34.547   3.118 -0.1544  0.0622 -0.2067
 7984W        W50896  15.420  33.779   3.131  0.2019 -0.0170 -0.3583
 7985W        W50897  16.514  33.886   0.392  0.0202 -0.2916  0.0886
 7986W        W50898  17.111   0.301   2.429  0.1915  0.1972 -0.1232
 7987W        W50899  16.883  33.557   2.365 -0.1226  0.0807 -0.3123
 7988W        W50900  16.943  31.837   4.072 -0.0571  0.5155 -0.2610
 7989W        W50901  17.190  34.488   4.437 -0.0025 -0.2067  0.2751
 7990W        W50902  16.398  32.809   2.591  0.1129 -0.0447 -0.0407
 7991W        W50903  17.440  32.927  31.877 -0.1078  0.0934 -0.1846
 7992W        W50904  15.468  34.020   1.221  0.0901  0.0590  0.0279
 7993W        W50905  18.881  33.500   2.400  0.4736  0.0244  0.1867
 7994W        W50906  17.027  34.479  31.941  0.1545  0.1937  0.1096
 7995W        W50907  17.218  32.855   3.550 -0.0256  0.1374  0.1076
 7996W        W50908  14.273  33.104   1.341  0.1978 -0.0369  0.1554
 7997W        W50909  15.550   0.645   2.311  0.0871  0.0510 -0.0073
 7998W        W50910  16.006   0.817   1.849 -0.0774 -0.0560  0.4132
 7999W        W50911  15.179  32.472   0.729  0.1148  0.0655  0.0506
 8000W        W50912  16.660  32.797  31.489  0.0885  0.0466 -0.0841
 8001W        W50913  17.406   0.619   3.040 -0.1973 -0.0796 -0.2435
 8002W        W50914  17.618  34.166   1.042 -0.0051 -0.1948 -0.3460
 8003W        W50915  17.183  33.721   1.753 -0.0044  0.2558 -0.2292
 8004W        W50916  15.873  32.051   3.539 -0.0037  0.2167  0.1746
 8005W        W50917  16.508  33.705   2.030 -0.2512 -0.0121  0.0466
 8006W        W50918  17.609  33.806   2.022 -0.0374 -0.0797 -0.1893
 8007W        W50919  16.854   1.024   2.749 -0.0711  0.1652 -0.2412
 8008W        W50920  15.441  33.461   3.552  0.1961 -0.2048 -0.0804
 8009W        W50921  14.706  34.645   3.964  0.1145  0.2717  0.3537
 8010W        W50922  18.373  34.032   0.594  0.0649  0.0570 -0.0831
 8011W        W50923  19.560  31.810   3.043 -0.1422  0.0628 -0.1904
 8012W        W50924  18.036  34.485   2.366 -0.0040 -0.0243  0.1751
 8013W        W50925  16.527   0.816   0.649 -0.0180  0.1523  0.1431
 8014W        W50926  15.281   0.663   1.544 -0.0964  0.0225 -0.0884
 8015W        W50927  17.673   0.643   4.172  0.1162  0.0126 -0.1234
 8016W        W50928  15.008  32.165  31.879  0.0525 -0.2687 -0.0193
 8017W        W50929  16.344  34.465   3.427  0.0710 -0.0372 -0.4314
 8018W        W50930  16.911  33.913   0.879  0.1405  0.0853 -0.2909
 8019W        W50931  13.395   1.144   1.872  0.0698  0.4435  0.1653
 8020W        W50932  15.087  33.915  31.546  0.1281 -0.0683  0.0363
 8021W        W50933  14.902   0.297   0.678 -0.1142 -0.1403 -0.2821
 8022W        W50934  16.998  33.285   1.606 -0.0084  0.1809 -0.0501
 8023W        W50935  18.365  33.630   3.205 -0.1796 -0.0717  0.0168
 8024W        W50936  17.711   0.112   1.737  0.1951 -0.0550 -0.1537
 8025W        W50937  15.328  32.337   1.889  0.2585  0.2004 -0.1784
 8026W        W50938  16.318  33.222   2.255 -0.3802 -0.1611  0.0699
 8027W        W50939  17.304   1.226   1.997  0.2486  0.1765  0.2387
 8028W        W50940  17.845   0.433   2.815 -0.4043  0.0295 -0.3468
 8029W        W50941  15.128   0.220   1.491 -0.2313  0.2990  0.1946
 8030W        W50942  15.897  33.532   3.300 -0.0765 -0.2845  0.4081
 8031W        W50943  15.049  33.974   0.115 -0.0659 -0.1813  0.0274
 8032W        W50944  17.708  33.197   1.015 -0.3455 -0.1205 -0.2263
 8033W        W50945  16.990  32.493  31.047  0.1520 -0.0730 -0.0025
 8034W        W50946  17.674  34.387   1.994  0.0228  0.0401 -0.3046
 8035W        W50947  18.443  34.081   0.122 -0.2318 -0.1398 -0.0902
 8036W        W50948  17.620  33.327   2.978  0.1349 -0.1149 -0.2485
 8037W        W50949  16.160  32.549  31.370 -0.2353  0.0249 -0.1166
 8038W        W50950  15.877   0.331   2.678 -0.0444 -0.2008  0.1825
 8039W        W50951  19.367  32.924   4.470 -0.3293  0.3256 -0.2715
 8040W        W50952  15.625  33.805  31.431 -0.0185 -0.1070 -0.0952
 8041W        W50953  15.997   1.325   3.185  0.0324 -0.1185 -0.1380
 8042W        W50954  19.248  33.333   2.695  0.0710 -0.1031  0.0493
 8043W        W50955  17.131  33.942   1.308 -0.1268 -0.1945  0.2306
 8044W        W50956  15.350  34.570  31.787  0.3010 -0.1445 -0.1134
 8045W        W50957  17.552  33.653   0.383  0.1029  0.2571 -0.1713
 8046W        W50958  15.786  34.515   2.584 -0.5500 -0.2767  0.4110
 8047W        W50959  16.383  33.890   3.431  0.0997  0.0867 -0.2474
 8048W        W50960  16.044  33.610   1.863  0.1424  0.1357 -0.0486
 8049W        W50961  17.501  34.316   0.187 -0.1459  0.0629  0.1163
 8050W        W50962  15.552  33.455   2.506  0.0290 -0.1353 -0.0396
 8051W        W50963  17.626  34.681  31.732  0.2194  0.1508 -0.1271
 8052W        W50964  18.851   0.948   2.488 -0.0616  0.2320 -0.0189
 8053W        W50965  17.588  33.765  30.936 -0.0892 -0.0577  0.0153
 8054W        W50966  14.538  33.656   1.489  0.1492  0.1924  0.0781
 8055W        W50967  17.444  32.940   1.564  0.2066  0.2976 -0.1802
 8056W        W50968  15.989   1.434   1.854 -0.0474 -0.0189  0.2859
 8057W        W50969  15.835  33.984   1.651 -0.4094  0.0861  0.1586
 8058W        W50970  14.562  34.255   1.212 -0.1847  0.1397  0.0363
 8059W        W50971  17.673  33.550   2.454  0.2798  0.4364 -0.2469
 8060W        W50972  16.570   0.652   1.156 -0.2131 -0.0068 -0.3107
 8061W        W50973  15.557  33.976   2.498  0.0752 -0.1491 -0.3025
 8062W        W50974  16.506  33.261   1.758 -0.3330 -0.1692  0.1623
 8063W        W50975  16.884   1.245   2.275  0.1831  0.0755  0.0726
 8064W        W50976  17.911  33.561   3.403 -0.3244 -0.3226  0.1563
 8065W        W50977  17.137  34.031   2.282 -0.0056  0.1331  0.0310
 8066W        W50978  17.320  32.237   2.252 -0.2955 -0.0186  0.1615
 8067W        W50979  15.860   0.244   2.166 -0.0717  0.1053 -0.0106
 8068W        W50980  14.868  33.485   0.828  0.0795  0.2027 -0.1448
 8069W        W50981  18.599  33.546   1.382  0.1557  0.1215  0.0498
 8070W        W50982  18.397  33.035   1.420  0.0114  0.1259  0.0338
 8071W        W50983  16.509   0.990   1.997  0.2067 -0.0263 -0.1311
 8072W        W50984  14.772   0.554   0.150 -0.1456  0.1880  0.0666
 8073W        W50985  17.482  33.681   3.756  0.1773 -0.0964  0.0853
 8074W        W50986  15.146  33.494   3.937 -0.3489 -0.1882 -0.0518
 8075W        W50987  14.165   0.437   1.008  0.0974  0.0084 -0.1767
 8076W        W50988  13.487  32.942  31.207 -0.2850  0.1123 -0.0365
 8077W        W50989  16.503  32.808   1.461 -0.1935 -0.0468  0.3822
 8078W        W50990  14.314  32.580   1.213  0.0082  0.2621  0.1430
 8079W        W50991  16.324  33.882   1.580  0.1946 -0.1088  0.0714
 8080W        W50992  16.401  34.033   2.956  0.2024  0.1135 -0.2841
 8081W        W50993  18.517  33.132   2.692  0.1140 -0.0252  0.2551
 8082W        W50994  13.535  33.844  30.412 -0.1230  0.1659 -0.0902
 8083W        W50995  15.988  32.830   1.236 -0.1726  0.0748  0.1907
 8084W        W50996  14.427  32.505   3.203 -0.2062 -0.1535  0.2613
 8085W        W50997  19.964  33.547   2.153 -0.2424  0.2502  0.0327
 8086W        W50998  17.086   0.677   1.208  0.0878 -0.0520  0.0287
 8087W        W50999  15.698  31.689   3.236  0.1542 -0.0051 -0.0790
 8088W        W51000  14.696  33.992   2.753  0.1410  0.0736  0.1655
 8089W        W51001  16.949  32.767   0.358 -0.0030  0.1661 -0.0166
 8090W        W51002  16.469   1.075   3.124  0.0018  0.0056 -0.2352
 8091W        W51003  16.897  34.284   0.480 -0.1526 -0.1541 -0.2833
 8092W        W51004  17.366  34.544   1.460  0.0542 -0.1366  0.2350
 8093W        W51005  16.165  33.625  31.304  0.1402  0.1906  0.0811
 8094W        W51006  17.365   0.149   0.197  0.1172 -0.1641  0.3427
 8095W        W51007  15.568  32.954   1.679 -0.2000  0.0675 -0.2327
 8096W        W51008  15.865  34.431   0.326 -0.0811 -0.1065 -0.2238
 8097W        W51009  16.744   1.029   0.204 -0.0086 -0.1143  0.0287
 8098W        W51010  18.063  33.902   2.356  0.0102  0.0792  0.2022
 8099W        W51011  15.306  34.390   0.806  0.0177 -0.0792 -0.0669
 8100W        W51012  16.644  32.271   0.919  0.1649  0.1493 -0.1746
 8101W        W51013  15.833  33.065   3.455  0.1515 -0.1135 -0.0237
 8102W        W51014  18.008  33.080   3.465  0.2452  0.0701 -0.1263
 8103W        W51015  18.090  33.937   4.719 -0.0122 -0.0332  0.1240
 8104W        W51016  15.636  33.401   5.109 -0.1632  0.1191 -0.1767
 8105W        W51017  15.290  33.192   7.072  0.1300  0.0776 -0.1425
 8106W        W51018  17.657   1.992   3.987 -0.2033 -0.1078 -0.0685
 8107W        W51019  16.116  33.522   6.766 -0.1315 -0.1183 -0.0023
 8108W        W51020  15.881  31.413   3.838 -0.1393 -0.0823 -0.1185
 8109W        W51021  14.900  33.280   4.925 -0.0836 -0.1587  0.0112
 8110W        W51022  16.911  34.486   5.638 -0.3016 -0.0235  0.3984
 8111W        W51023  15.425  32.913   2.611  0.0853  0.2912  0.2517
 8112W        W51024  16.505  31.951   7.534 -0.0442 -0.1913 -0.0746
 8113W        W51025  16.674  33.596   3.946  0.1011 -0.0760  0.2107
 8114W        W51026  17.159  33.301   5.760  0.1714  0.0886 -0.0496
 8115W        W51027  17.763  34.402   6.342  0.2178 -0.0585  0.1006
 8116W        W51028  14.382  33.374   5.036  0.1283  0.0592  0.2140
 8117W        W51029  15.965  33.442   4.714 -0.2529 -0.0064  0.1003
 8118W        W51030  16.000  34.679   6.522 -0.1998 -0.3029 -0.0804
 8119W        W51031  17.647  34.323   5.902  0.2591 -0.1124  0.0985
 8120W        W51032  18.033   0.926   5.843  0.0386 -0.3238  0.2648
 8121W        W51033  17.966  34.154   7.833  0.4016 -0.0133  0.2441
 8122W        W51034  17.544   0.057   7.220 -0.1293  0.0434 -0.5483
 8123W        W51035  16.232  33.784   3.886  0.0251  0.2105  0.0239
 8124W        W51036  19.275  31.469   7.541  0.2257 -0.2328 -0.2726
 8125W        W51037  16.949  33.668   4.773  0.0926 -0.1461  0.2051
 8126W        W51038  16.556  34.180   3.798 -0.0187 -0.1015 -0.3319
 8127W        W51039  18.406  33.328   5.262 -0.0784 -0.0931  0.0942
 8128W        W51040  17.332  32.507   6.287 -0.0984  0.0798  0.2054
 8129W        W51041  16.675  34.052   5.615 -0.0241 -0.2150 -0.2815
 8130W        W51042  16.248  34.572   4.665  0.0018 -0.1656 -0.6035
 8131W        W51043  15.482  34.118   7.086 -0.0095  0.0166  0.3617
 8132W        W51044  16.792  34.254   6.563  0.2406  0.3238  0.0580
 8133W        W51045  14.960   0.192   2.467  0.3205 -0.0947 -0.1343
 8134W        W51046  16.380   1.493   6.936 -0.0318  0.0261 -0.0221
 8135W        W51047  16.355  33.996   6.508 -0.2688  0.3240  0.2733
 8136W        W51048  15.392  32.181   3.366  0.0359  0.1526 -0.1377
 8137W        W51049  17.827  32.906   5.267 -0.2388  0.1802  0.0710
 8138W        W51050  18.038  33.878   6.399  0.0915 -0.3538  0.0637
 8139W        W51051  17.360  34.278   6.584  0.1862  0.0820  0.1166
 8140W        W51052  18.638  34.328   5.391 -0.0898  0.2196 -0.0927
 8141W        W51053  16.149  33.419   5.690  0.1069 -0.1582 -0.2530
 8142W        W51054  15.944  33.121   8.065 -0.1025 -0.1510 -0.0423
 8143W        W51055  17.980  32.474   4.643  0.1752  0.1820  0.1344
 8144W        W51056  16.544  33.487   7.490 -0.0658  0.1061  0.0048
 8145W        W51057  18.232  32.916   4.959 -0.0684 -0.0191  0.0014
 8146W        W51058  18.673  34.245   3.730 -0.1042  0.1662  0.2319
 8147W        W51059  16.071  33.452   6.219  0.0910  0.0236  0.3847
 8148W        W51060  15.685   0.037   3.924 -0.0315 -0.4209 -0.1703
 8149W        W51061  16.434  33.190   8.536  0.1666  0.0019 -0.4041
 8150W        W51062  15.246  33.746   5.843  0.1083  0.0240  0.0187
 8151W        W51063  17.711   0.179   6.461 -0.0882  0.1557  0.1548
 8152W        W51064  16.309  32.753   4.080  0.2278 -0.0383  0.0285
 8153W        W51065  17.397  34.194   5.513 -0.1256 -0.1104  0.0405
 8154W        W51066  15.306  34.453   4.027  0.0786  0.1813  0.2778
 8155W        W51067  19.333  32.714   7.593 -0.0953  0.0023 -0.0503
 8156W        W51068  17.143  32.812   6.927 -0.3222  0.2339  0.2182
 8157W        W51069  15.408  32.316   3.868  0.0723  0.1075  0.0223
 8158W        W51070  14.964  34.466   4.354 -0.2585 -0.1560 -0.4612
 8159W        W51071  17.223  33.799   6.959 -0.1014 -0.0051  0.0809
 8160W        W51072  17.701   0.437   5.146  0.0591 -0.1907  0.2294
 8161W        W51073  14.193  33.618   2.697 -0.1696 -0.0129  0.3681
 8162W        W51074  14.879  34.662   5.928  0.0275 -0.0244  0.1266
 8163W        W51075  17.530  33.869   6.296  0.0200  0.1022 -0.0875
 8164W        W51076  14.812  34.120   6.852  0.2627 -0.1333 -0.1349
 8165W        W51077  17.779  34.564   6.857 -0.1499  0.1860 -0.1724
 8166W        W51078  15.751  33.890   3.586 -0.1141  0.0434 -0.0560
 8167W        W51079  18.121  33.761   5.201  0.1330  0.1968 -0.1962
 8168W        W51080  18.837  33.460   2.944 -0.0377  0.1928 -0.4989
 8169W        W51081  17.517  34.294   2.919  0.0367  0.3258  0.0300
 8170W        W51082  16.574  31.662   4.454 -0.1594  0.0660 -0.2233
 8171W        W51083  16.269  33.306   3.644 -0.0654  0.1312  0.4305
 8172W        W51084  16.041  31.767   6.690 -0.0420  0.1579  0.2818
 8173W        W51085  17.318   1.215   2.819  0.2467  0.0753  0.1264
 8174W        W51086  16.956  32.910   5.491  0.1896  0.1010 -0.1073
 8175W        W51087  19.199  32.324   6.525 -0.3060  0.0012  0.0705
 8176W        W51088  17.959  32.828   6.406 -0.2152  0.2353  0.2148
 8177W        W51089  18.346  32.554   6.908 -0.3535 -0.1395 -0.1272
 8178W        W51090  17.207   0.219   7.691 -0.0942 -0.0020 -0.1182
 8179W        W51091  16.318  34.247   4.221  0.2636  0.3907  0.2267
 8180W        W51092  18.120   0.652   7.236 -0.0468  0.0674 -0.0952
 8181W        W51093  16.707  32.869   3.409 -0.1235 -0.0486  0.0154
 8182W        W51094  17.141  33.777   5.319 -0.2440  0.0647 -0.0290
 8183W        W51095  17.910  33.336   6.511 -0.1682 -0.1122 -0.0187
 8184W        W51096  18.526  33.922   4.972 -0.0593 -0.3773  0.2762
 8185W        W51097  16.275  31.315   6.691 -0.0244 -0.1633 -0.1745
 8186W        W51098  18.085  32.782   7.299  0.0562  0.3863 -0.2462
 8187W        W51099  15.936  33.768   2.864 -0.0287 -0.3622 -0.2711
 8188W        W51100  16.248  34.508   2.816 -0.2919  0.2339 -0.0834
 8189W        W51101  17.757  33.304   5.589  0.3056 -0.1310  0.2966
 8190W        W51102  16.008  33.665   7.749 -0.0112 -0.0413  0.0050
 8191W        W51103  15.886  33.105   5.426 -0.2777  0.0791  0.3617
 8192W        W51104  18.395   0.320   6.369 -0.1197  0.0092  0.0740
 8193W        W51105  17.598  32.115   4.649  0.2500 -0.1163 -0.4184
 8194W        W51106  17.393  34.200   7.608 -0.0143 -0.0863 -0.1430
 8195W        W51107  15.272   0.201   4.288  0.0077 -0.1585 -0.1956
 8196W        W51108  16.642  34.183   6.098 -0.2691  0.2127 -0.1118
 8197W        W51109  16.370  33.312   4.200  0.0783  0.0012  0.1349
 8198W        W51110  16.801  34.118   3.360 -0.0240  0.1134 -0.0428
 8199W        W51111  17.374  33.180   7.753 -0.0733  0.2104  0.2173
 8200W        W51112  16.244  33.910   5.436 -0.0093  0.2321 -0.1307
 8201W        W51113  16.050  32.967   4.977  0.3006 -0.0422 -0.0503
 8202W        W51114  16.591  33.227   5.889 -0.3453 -0.0184  0.0737
 8203W        W51115  15.669  32.658   5.247  0.1282  0.0285 -0.2150
 8204W        W51116  15.665  33.115   5.912  0.4734  0.0696  0.2051
 8205W        W51117  17.206   0.423   6.549  0.1328 -0.3313  0.2389
 8206W        W51118  16.152  32.963   5.865  0.0049 -0.0795 -0.1122
 8207W        W51119  18.155  34.344   3.703  0.1870  0.0621 -0.2159
 8208W        W51120  18.030  33.077   5.986 -0.0477  0.2669  0.4465
 8209W        W51121  18.798  33.171   6.902  0.1914  0.1299  0.1521
 8210W        W51122  16.682  33.495   5.450  0.1757 -0.0107  0.2299
 8211W        W51123  17.011  33.353   6.794 -0.0090  0.0027  0.0440
 8212W        W51124  15.424  32.606   6.393  0.1240  0.0897 -0.1349
 8213W        W51125  15.053  33.704   7.116  0.1491  0.0443  0.1016
 8214W        W51126  16.805  34.389   7.655  0.1860 -0.2407 -0.2466
 8215W        W51127  17.132  33.318   5.151 -0.1803  0.2195  0.1522
 8216W        W51128  15.851  32.515   3.895  0.2042  0.1683  0.1011
 8217W        W51129  15.442   0.058   7.237  0.1200  0.0909  0.2113
 8218W        W51130  17.628  32.835   4.767 -0.2318  0.2036  0.1215
 8219W        W51131  15.895  34.676   5.577  0.2177  0.2028  0.2257
 8220W        W51132  17.453   0.419   6.059  0.1512 -0.0464 -0.0028
 8221W        W51133  16.579  33.571   6.296  0.0623  0.1600  0.3701
 8222W        W51134  15.335  33.017   5.481  0.0328 -0.4358  0.0717
 8223W        W51135  17.202  33.705   7.521  0.0594  0.2004  0.0007
 8224W        W51136  17.184  34.675   6.793  0.4206  0.1877 -0.1965
 8225W        W51137  16.522  33.294   6.905 -0.0717  0.0440  0.1780
 8226W        W51138  16.883  33.208   8.269  0.0544  0.1642 -0.2499
 8227W        W51139  18.358  34.108   4.275  0.0849  0.1557  0.1893
 8228W        W51140  18.189  34.351   6.643 -0.1596 -0.0220  0.1789
 8229W        W51141  16.631  33.349   4.912 -0.1565  0.0222 -0.1905
 8230W        W51142  16.856  33.928   4.229  0.0019 -0.0868  0.0010
 8231W        W51143  16.322  33.846   5.970  0.2586  0.0669  0.0350
 8232W        W51144  17.601   0.881   7.210  0.0311  0.5607  0.0884
 8233W        W51145  15.483  32.764   2.142 -0.1190 -0.3195 -0.0827
 8234W        W51146  18.804  32.633   6.678 -0.0315  0.0695 -0.2412
 8235W        W51147  17.081  33.366   3.796 -0.0336 -0.1466 -0.0907
 8236W        W51148  14.842  32.564   6.384  0.1180  0.3024  0.1385
 8237W        W51149  15.055  33.391   3.210 -0.1335 -0.0727 -0.0185
 8238W        W51150  17.164   2.222   3.648  0.0716  0.2124 -0.2478
 8239W        W51151  17.157  31.835   4.688  0.2730 -0.1440  0.3991
 8240W        W51152  18.493  33.631   7.203 -0.0719  0.0593  0.1631
 8241W        W51153  17.783  32.612   5.663 -0.2260  0.1647  0.2979
 8242W        W51154  18.330  32.430   6.375  0.0238  0.0206  0.0887
 8243W        W51155  17.794  34.048   6.791 -0.1625  0.0077  0.0173
 8244W        W51156  17.946   1.073   6.362  0.3072  0.0810  0.4480
 8245W        W51157  18.407  33.441   6.476 -0.2909 -0.0874  0.0229
 8246W        W51158  16.662  34.639   4.387  0.0754 -0.0374  0.0228
 8247W        W51159  16.672  33.777   8.265  0.3592  0.0421  0.0094
 8248W        W51160  15.594  33.065   4.717 -0.0798  0.2062 -0.2446
 8249W        W51161  16.425  33.012   5.350 -0.0165  0.1155 -0.2972
 8250W        W51162  17.703  32.674   3.473  0.1372  0.2789  0.1406
 8251W        W51163  17.539   0.086   4.743 -0.0481 -0.1076  0.0153
 8252W        W51164  19.433  33.830   5.243 -0.2353 -0.1652 -0.1026
 8253W        W51165  15.886  33.012   7.018 -0.0625 -0.1668 -0.2528
 8254W        W51166  16.219  32.815   3.624  0.1051 -0.1350  0.2791
 8255W        W51167  16.435  34.416   7.199 -0.1171 -0.1585  0.0681
 8256W        W51168  18.769  31.884   7.980  0.0253 -0.1950 -0.1373
 8257W        W51169  15.821  33.857   5.164 -0.0291  0.1020  0.1115
 8258W        W51170  16.309   0.379   6.508 -0.1128  0.1218  0.0708
 8259W        W51171  18.795  32.422   6.062  0.2434 -0.0464 -0.0762
 8260W        W51172  16.992  33.286   6.236  0.2494 -0.0223  0.1837
 8261W        W51173  15.258  34.067   3.666 -0.1398 -0.0217 -0.0118
 8262W        W51174  19.414   0.559   5.206  0.2123 -0.2011 -0.0749
 8263W        W51175  17.662  34.634   7.784 -0.1462 -0.1594  0.1490
 8264W        W51176  18.795  31.284   7.730  0.0184  0.1768  0.0051
 8265W        W51177  16.909  33.744   5.922 -0.0733  0.1587 -0.3276
 8266W        W51178  18.888  33.561   5.098 -0.1262 -0.2300 -0.0972
 8267W        W51179  16.195  33.576   8.381  0.0923 -0.2301  0.1189
 8268W        W51180  17.342  34.106   4.092  0.2777  0.1101  0.2585
 8269W        W51181  18.390  34.328   7.609 -0.2098  0.3629  0.1876
 8270W        W51182  17.123  34.183   4.954 -0.3340 -0.4280  0.0179
 8271W        W51183  14.586  32.857   5.013  0.0932  0.1957 -0.0715
 8272W        W51184  17.596  33.775   4.566  0.0133 -0.0056  0.2016
 8273W        W51185  15.810  33.455   3.855  0.1519 -0.1497 -0.0448
 8274W        W51186  15.926  33.508   7.246  0.2132 -0.0829 -0.1780
 8275W        W51187  15.534  33.760   4.746 -0.0597 -0.2812  0.2544
 8276W        W51188  18.100  34.419   5.733  0.0673 -0.0892  0.0093
 8277W        W51189  18.705   0.410   5.310 -0.0062  0.0759  0.2155
 8278W        W51190  15.860  33.890   6.489 -0.0013 -0.1549  0.0485
 8279W        W51191  17.326  32.087   4.215  0.0183 -0.3452 -0.0628
 8280W        W51192  15.889  33.035   4.259 -0.2499  0.1748  0.1666
 8281W        W51193  18.819  33.547   5.952 -0.0848 -0.0040  0.2325
 8282W        W51194  17.636  33.640   5.211  0.0962  0.0167 -0.0835
 8283W        W51195  19.989  31.637   6.604 -0.2034 -0.2126 -0.0813
 8284W        W51196  16.808  32.856   4.870  0.2227 -0.0063  0.0208
 8285W        W51197  16.162  32.580   5.494  0.0085  0.0588  0.0367
 8286W        W51198  19.164  32.248   5.242 -0.0235 -0.1295  0.3364
 8287W        W51199  18.051  33.025   4.468  0.2345  0.1663 -0.0554
 8288W        W51200  16.487  33.379   7.959  0.1644  0.2006  0.2177
 8289W        W51201  14.180  33.743   4.678  0.1817 -0.1219 -0.3362
 8290W        W51202  18.931  32.379   7.550 -0.1410 -0.1896 -0.0320
 8291W        W51203  15.985   0.027   7.770 -0.1625  0.0890  0.2368
 8292W        W51204  15.313  34.605   4.704  0.1608  0.1660 -0.1109
 8293W        W51205  15.949  33.808   4.387  0.0768 -0.1403 -0.0861
 8294W        W51206  15.758  32.599   6.802 -0.0120 -0.0178 -0.1774
 8295W        W51207  14.662  32.570   6.892  0.0773 -0.1014  0.2330
 8296W        W51208  16.381  32.623   6.264  0.0708  0.1207 -0.1121
 8297W        W51209  17.019  33.295   7.286 -0.1217 -0.1226  0.0108
 8298W        W51210  16.960  34.310   7.151 -0.2010 -0.3335 -0.1770
 8299W        W51211  15.509  33.821   4.054 -0.2738 -0.0510 -0.2688
 8300W        W51212  16.704  34.356   5.207  0.2484 -0.0778  0.1196
 8301W        W51213  14.995  32.315   7.303 -0.0333 -0.2059 -0.1604
 8302W        W51214  18.288  33.080   6.839  0.3573 -0.1703 -0.2810
 8303W        W51215  16.880   0.797   5.119  0.0125  0.0444  0.0014
 8304W        W51216  16.509  31.530   7.210  0.0454  0.3687 -0.1762
 8305W        W51217  16.738  32.432   6.665  0.4920  0.1370  0.3279
 8306W        W51218  17.752  34.111   5.013 -0.0134  0.0635  0.2303
 8307W        W51219  15.922  32.926   6.345  0.2705  0.0128  0.2415
 8308W        W51220  16.807  32.752   4.324 -0.2446 -0.2543  0.0583
 8309W        W51221  17.405  33.790   5.757  0.1745 -0.0791 -0.1626
 8310W        W51222  16.765  32.971   3.875 -0.0430  0.1424 -0.1560
 8311W        W51223  18.230  34.558   6.193 -0.0631 -0.2662  0.1218
 8312W        W51224  16.134  32.187   5.805 -0.0522 -0.0668 -0.3724
 8313W        W51225  16.633  34.659   6.094  0.1303  0.2302  0.1259
 8314W        W51226  15.820   0.167   4.615  0.0073  0.1857  0.1378
 8315W        W51227  16.858  32.848   6.488  0.0059  0.0257 -0.0485
 8316W        W51228  16.226  33.492   5.162  0.3324 -0.2346 -0.1316
 8317W        W51229  17.189  32.591   4.654  0.0647 -0.0545 -0.2584
 8318W        W51230  17.685  33.714   8.462  0.0636 -0.2284  0.2432
 8319W        W51231  18.721  32.125   7.089  0.0615  0.0777  0.0881
 8320W        W51232  18.405  33.955   7.940 -0.2488  0.0981 -0.1570
 8321W        W51233  16.304  32.426   8.318 -0.0237  0.0995  0.1811
 8322W        W51234  17.597   1.731   8.334  0.2507  0.1496  0.0856
 8323W        W51235  17.574  31.543  10.261 -0.0242 -0.0928 -0.0745
 8324W        W51236  17.764  32.473   7.069  0.3176  0.4209 -0.1202
 8325W        W51237  14.739  30.752   9.279  0.1213  0.1152  0.1511
 8326W        W51238  18.343   3.204   9.640  0.2819 -0.2445  0.1026
 8327W        W51239  15.741  33.841   8.213 -0.1578  0.0788 -0.2155
 8328W        W51240  14.262  31.960  10.200 -0.1890 -0.1689 -0.1133
 8329W        W51241  17.352   0.708   9.419 -0.1771  0.3456 -0.0948
 8330W        W51242  17.033  34.323  10.095 -0.1233  0.0934 -0.0038
 8331W        W51243  17.058  33.972   7.945 -0.1063 -0.1292 -0.1515
 8332W        W51244  16.315  33.016   9.021 -0.2816 -0.1258 -0.2646
 8333W        W51245  16.513  34.365   9.301 -0.1912 -0.1941  0.3001
 8334W        W51246  17.041  32.127   9.898  0.0726 -0.0311  0.2035
 8335W        W51247  16.822  33.943   9.789 -0.1561 -0.0610 -0.0021
 8336W        W51248  17.390  33.191   9.589  0.0617  0.0404  0.2933
 8337W        W51249  16.220  33.889   9.149  0.0879 -0.0055  0.1304
 8338W        W51250  17.860  33.115   7.891 -0.1338  0.0228 -0.0955
 8339W        W51251  17.671  33.568   7.855 -0.2483  0.0349  0.1982
 8340W        W51252  16.685   0.010   8.976  0.0238 -0.2323 -0.1848
 8341W        W51253  16.572  31.208   9.425  0.0190 -0.2926 -0.0417
 8342W        W51254  16.796  32.579   9.900 -0.0934 -0.0373  0.0619
 8343W        W51255  17.221  34.039   8.946 -0.1216  0.1379 -0.1136
 8344W        W51256  17.293  34.545   8.598  0.0767 -0.0574 -0.1000
 8345W        W51257  16.447  33.550   9.512 -0.2184  0.1455  0.2194
 8346W        W51258  16.921  33.675   8.750 -0.0156  0.2691  0.0978
 8347W        W51259  17.105  31.977   8.124 -0.1214  0.0758  0.0287
 8348W        W51260  18.916  34.154   8.748  0.1543  0.2164 -0.0073
 8349W        W51261  17.029  32.433   9.507 -0.2330 -0.0700  0.1757
 8350W        W51262  17.280  33.792   9.605 -0.3544  0.2187 -0.2410
 8351W        W51263  18.669  33.872   7.546  0.0997 -0.0683  0.1969
 8352W        W51264  16.442  32.071  10.115  0.0108 -0.2236 -0.0657
 8353W        W51265  17.294  33.570   9.136  0.1283 -0.3136 -0.2322
 8354W        W51266  18.352  33.072   8.764  0.0840 -0.1062  0.2913
 8355W        W51267  18.464  32.362   8.049  0.1390 -0.0189 -0.2707
 8356W        W51268  11.490  34.450   9.194  0.0200 -0.1543 -0.0318
 8357W        W51269  16.743  32.731   8.484 -0.1717 -0.0374 -0.2626
 8358W        W51270  15.359  31.583   9.102 -0.0518  0.0382 -0.0130
 8359W        W51271  15.743  32.258   9.103  0.0888 -0.3098  0.2461
 8360W        W51272  17.818  32.857   8.446 -0.3315  0.0187  0.0619
 8361W        W51273  16.434  33.928   8.685 -0.0716  0.1186 -0.0560
 8362W        W51274  16.579  33.991  10.356  0.2120  0.1884 -0.0428
 8363W        W51275  15.912  33.277   8.759 -0.1519  0.2959  0.0561
 8364W        W51276  17.192  33.618   8.293 -0.1178 -0.1102  0.2780
 8365W        W51277  17.601  32.396   8.622  0.1131 -0.1790 -0.2916
 8366W        W51278  16.585  32.643   7.581 -0.0707  0.0936  0.2536
 8367W        W51279  15.191  33.614   8.172  0.5613 -0.3151 -0.1160
 8368W        W51280  17.342  32.784   9.866  0.0919  0.1198  0.2278
 8369W        W51281  16.187  34.031   8.225  0.3121 -0.0245 -0.0449
 8370W        W51282  17.269  31.507   8.995 -0.2321  0.2649 -0.3650
 8371W        W51283  18.183  33.113   8.255  0.0945  0.2375  0.1891
 8372W        W51284  18.151   0.247   6.767 -0.0847 -0.3519 -0.1613
 8373W        W51285  17.003  32.850   6.001  0.0420 -0.2594  0.1393
 8374W        W51286  16.662  34.258   8.146  0.0747 -0.0829 -0.1928
 8375W        W51287  15.208  30.763   9.403 -0.1686  0.3139  0.3109
 8376W        W51288  16.333  33.851   7.244 -0.2809 -0.2217  0.2907
 8377W        W51289  16.741  32.269   9.086 -0.1308 -0.1406 -0.0724
 8378W        W51290  17.696  33.529  10.075  0.0115  0.4511 -0.1384
 8379W        W51291  17.027  33.061  10.191 -0.1340 -0.1757 -0.0364
 8380W        W51292  17.556  33.223   8.277  0.0596 -0.3232  0.0667
 8381W        W51293  16.534  33.520  10.490 -0.0883  0.1439 -0.4023
 8382W        W51294  16.118  34.615   9.106  0.0821 -0.3537 -0.0710
 8383W        W51295  17.726  33.285   9.147 -0.0089  0.2088  0.3848
 8384W        W51296  15.769  31.893   7.944  0.1907 -0.0220 -0.2222
 8385W        W51297  16.885  33.443   9.875 -0.1608  0.0320 -0.2479
 8386W        W51298  18.116  32.574   8.656  0.0112 -0.1795 -0.0103
 8387W        W51299  17.123  32.758   7.540  0.2411 -0.1585 -0.1295
 8388W        W51300  15.593  32.898   8.488 -0.0018 -0.0496  0.1178
 8389W        W51301  17.837  33.262   7.422 -0.1609  0.1051 -0.0963
 8390W        W51302  13.920  32.382  10.240  0.0945 -0.2305  0.0196
 8391W        W51303  16.500  31.099  10.335 -0.1445 -0.1282  0.0692
 8392W        W51304  17.466  33.327   7.135  0.1125  0.2215  0.0579
 8393W        W51305  15.595  33.427   7.964 -0.2938 -0.2518  0.3144
 8394W        W51306  18.889  34.177  10.433  0.0310 -0.0284  0.4348
 8395W        W51307  16.767  34.278   8.834 -0.2767  0.1577 -0.1756
 8396W        W51308  16.232   0.222   8.664  0.0399  0.2370 -0.2164
 8397W        W51309  17.768  33.564   9.509  0.1033  0.0295 -0.1179
 8398W        W51310  17.164  32.407   8.383 -0.0198  0.1681  0.2781
 8399W        W51311  16.715  32.296   8.039  0.1522 -0.2419  0.1298
 8400W        W51312  16.881  33.389   9.367 -0.0351 -0.3824 -0.0035
 8401W        W51313  17.449  34.181   9.371 -0.1049  0.2239 -0.4446
 8402W        W51314  17.035  31.990   8.755  0.1984 -0.0238 -0.1518
 8403W        W51315  14.195  31.448   9.721  0.1394  0.1622 -0.2042
 8404W        W51316  18.539  32.750   8.399  0.0845 -0.0753 -0.0577
 8405W        W51317  17.487  32.711   7.996  0.2151  0.2503 -0.1203
 8406W        W51318  16.915   0.615   7.937 -0.1676 -0.2600 -0.2265
 8407W        W51319  16.829  30.677  12.407  0.3262 -0.0892 -0.2478
 8408W        W51320  17.978  31.987   7.963 -0.1606 -0.1024 -0.0427
 8409W        W51321  15.872  32.129   7.491 -0.0312  0.1859 -0.1402
 8410W        W51322  16.916   1.596   9.651 -0.1115 -0.1689 -0.1633
 8411W        W51323  18.159  33.776   8.620 -0.4139  0.0536  0.0485
 8412W        W51324  15.028  34.068   9.945  0.0152  0.0775 -0.2501
 8413W        W51325  17.697  33.963   9.854  0.0908 -0.2724  0.0018
 8414W        W51326  17.927  31.946   8.464  0.0587 -0.0271 -0.6126
 8415W        W51327  18.634  34.652   6.600 -0.2811  0.0422  0.1329
 8416W        W51328  19.363  32.452   8.951 -0.0120 -0.0112 -0.1902
 8417W        W51329  18.957   0.667   8.870  0.1822 -0.1240 -0.2597
 8418W        W51330  17.525  32.237   8.114 -0.2964  0.1340  0.0174
 8419W        W51331  17.261  32.600  10.347  0.3580 -0.0835 -0.2052
 8420W        W51332  17.534  33.997   8.084  0.3284 -0.2281 -0.2676
 8421W        W51333  17.958  33.341   8.653 -0.0785  0.0185 -0.0479
 8422W        W51334  15.186  33.090   9.095  0.2721  0.2838 -0.0020
 8423W        W51335  16.710  31.741   8.218 -0.0146  0.1885 -0.0859
 8424W        W51336  16.728   0.435   7.527 -0.4397  0.4374 -0.2717
 8425W        W51337  18.004  32.500   8.146 -0.0639 -0.1367 -0.0935
 8426W        W51338  18.376  31.613   7.770  0.2885 -0.2022 -0.0269
 8427W        W51339  17.698  32.861   9.372  0.2239 -0.2399 -0.1141
 8428W        W51340  17.860  33.093   9.814  0.1170 -0.1141  0.0214
 8429W        W51341  16.778  33.923   9.199  0.1162 -0.0069 -0.0242
 8430W        W51342  15.262   1.102   9.382  0.0429  0.3529 -0.1066
 8431W        W51343  15.839  32.580   8.135 -0.1814  0.4418  0.1340
 8432W        W51344  16.653  32.725   9.313 -0.1443  0.0791  0.0441
 8433W        W51345  17.564  34.136   8.611  0.0760  0.0702 -0.4030
 8434W        W51346  18.963  33.865   9.632  0.0386 -0.0259 -0.2202
 8435W        W51347  18.685  34.617   9.643 -0.1794  0.1324  0.0003
 8436W        W51348  15.503  31.350  10.353 -0.0313  0.0418 -0.2519
 8437W        W51349  17.612  31.752   8.145  0.0667 -0.1969  0.0419
 8438W        W51350  15.148  32.614   7.762 -0.1144 -0.0913  0.1643
 8439W        W51351  16.562  34.453   9.846  0.2169  0.0352 -0.0887
 8440W        W51352  18.884  30.910  10.167 -0.0752  0.1555 -0.1926
 8441W        W51353  17.244  32.897   8.494  0.1765  0.4249  0.1558
 8442W        W51354  16.948  33.493   7.841  0.2544 -0.2598  0.2132
 8443W        W51355  18.590  32.706   8.925 -0.2473 -0.1651 -0.0881
 8444W        W51356  16.082   0.189   9.529  0.4517  0.1699  0.0087
 8445W        W51357  17.126   0.915   8.828  0.0758  0.1072  0.3048
 8446W        W51358  18.350  33.228   9.700 -0.2577  0.2463 -0.4461
 8447W        W51359  15.989  33.398   9.220 -0.0279 -0.2018  0.0577
 8448W        W51360  16.757   0.124   7.970  0.0395 -0.1288  0.4282
 8449W        W51361  17.161   0.544   7.265  0.3004 -0.0282 -0.1510
 8450W        W51362  16.308  32.683   9.957 -0.1049 -0.1620 -0.1846
 8451W        W51363  17.980  32.367   7.616  0.0337  0.1270 -0.0377
 8452W        W51364  15.931  33.900   8.672 -0.1583  0.1739  0.0040
 8453W        W51365  16.336  33.987   9.674 -0.0714  0.1418  0.1250
 8454W        W51366  15.207  32.592  10.015  0.2397 -0.0041 -0.2881
 8455W        W51367  18.949  33.764   9.082  0.1600 -0.0013 -0.0140
 8456W        W51368  18.532  34.441   8.114  0.2048  0.5937  0.1219
 8457W        W51369  13.913  31.398  10.328  0.2208 -0.0375 -0.1392
 8458W        W51370  16.933  32.212   7.589  0.2264  0.1266 -0.2049
 8459W        W51371  15.319  34.024   8.523  0.1024  0.0186  0.3676
 8460W        W51372  18.056  33.639   8.145 -0.1937  0.0146 -0.0053
 8461W        W51373  17.079  34.094   8.474  0.2937 -0.1301  0.0793
 8462W        W51374  15.512  32.179  10.205  0.3454 -0.4755 -0.2495
 8463W        W51375  18.639  33.951   8.417  0.1363 -0.0187  0.0298
 8464W        W51376  18.685  32.185   8.484  0.0295  0.3150 -0.0022
 8465W        W51377  17.254   1.047   9.813  0.1629 -0.4121  0.0203
 8466W        W51378  15.547  34.503   7.695  0.0639  0.4804  0.0950
 8467W        W51379  15.370   0.361   9.931 -0.2293  0.3227  0.2974
 8468W        W51380  15.812  31.154   8.447 -0.1729  0.0861 -0.1429
 8469W        W51381  16.532  33.103  10.123 -0.0521 -0.0726  0.2821
 8470W        W51382  13.576  31.729   9.488  0.0152  0.1416  0.0265
 8471W        W51383  16.830  33.088   8.793 -0.2283 -0.1257  0.2792
 8472W        W51384  14.613  31.723   6.724  0.3922  0.1352  0.0909
 8473W        W51385  17.760  32.650  10.197  0.2206  0.0559  0.2650
 8474W        W51386  15.818  32.843   9.136  0.0252  0.0516 -0.1533
 8475W        W51387  18.651  33.590   9.990  0.0893  0.4175  0.1059
 8476W        W51388  17.951  34.255   8.925  0.1044  0.3537 -0.1544
 8477W        W51389  17.172  31.868   9.398 -0.0658  0.1264  0.0295
 8478W        W51390  18.409  31.499   9.703  0.1131 -0.0791  0.0544
 8479W        W51391  15.942  32.930   9.630 -0.2217 -0.0523 -0.0440
 8480W        W51392  17.188  34.521   8.013  0.0942  0.0659  0.2036
 8481W        W51393  17.620  33.801   7.305  0.0392 -0.1567  0.1089
 8482W        W51394  17.747  34.551   8.255 -0.2450  0.1218  0.2842
 8483W        W51395  16.142  32.423   9.320  0.1543  0.0515 -0.0424
 8484W        W51396  16.346   0.413   9.175  0.2697  0.1380  0.0060
 8485W        W51397  15.764   0.009   8.702 -0.1909 -0.1092  0.0675
 8486W        W51398  18.611  34.155   9.428  0.0857 -0.0153  0.1732
 8487W        W51399  15.814  33.824   9.499  0.2202  0.1063  0.0646
 8488W        W51400  17.840  31.910   7.431  0.1072  0.2019  0.4300
 8489W        W51401  20.632   2.065   2.634 -0.2156 -0.3453  0.2606
 8490W        W51402  19.365   1.657   1.940  0.0377  0.1830  0.1773
 8491W        W51403  20.582   1.909  31.442 -0.1756  0.3504 -0.3861
 8492W        W51404  21.178   1.758   2.237  0.2756 -0.1704  0.0341
 8493W        W51405  18.023  33.799   0.911 -0.4222  0.0569 -0.1192
 8494W        W51406  22.980   3.605  31.822  0.2016  0.0668 -0.0648
 8495W        W51407  20.206   0.219   3.843 -0.1464  0.2039  0.3583
 8496W        W51408  21.326   3.338   1.938  0.2341  0.0919 -0.0233
 8497W        W51409  21.648   3.688   0.680  0.0753 -0.3464 -0.2028
 8498W        W51410  19.646   1.667   1.074 -0.0582 -0.0106 -0.2533
 8499W        W51411  21.684   1.129   2.624 -0.2331  0.2789  0.0800
 8500W        W51412  17.746   3.647   2.081 -0.2125 -0.1537 -0.0476
 8501W        W51413  19.460   0.589   0.736 -0.2828 -0.1185 -0.0433
 8502W        W51414  18.740   0.399   2.661  0.1090  0.0095 -0.0275
 8503W        W51415  21.688   0.697   1.235  0.1580  0.0265 -0.0833
 8504W        W51416  17.865   2.033   2.111 -0.0611 -0.1728 -0.3426
 8505W        W51417  20.236   1.656   2.719  0.0735 -0.1350 -0.3605
 8506W        W51418  19.119   0.945   1.066  0.0582 -0.0797  0.0397
 8507W        W51419  21.642   2.670  31.930 -0.0851  0.1049  0.0301
 8508W        W51420  18.511   0.576   3.562  0.1134 -0.0658 -0.1468
 8509W        W51421  20.601   0.778   4.692  0.4016 -0.1382 -0.1345
 8510W        W51422  20.072   2.987   1.549 -0.2685 -0.1725 -0.1830
 8511W        W51423  18.728   1.265  31.566  0.1401  0.0278  0.0468
 8512W        W51424  18.064   1.665   0.721  0.1118  0.2276  0.1243
 8513W        W51425  20.894   2.333   2.221  0.3820  0.2585 -0.4206
 8514W        W51426  21.144   2.141   2.623 -0.2927  0.1830 -0.1389
 8515W        W51427  21.473   1.975   1.661  0.0618  0.2110  0.0168
 8516W        W51428  20.087   3.523   0.616  0.0003 -0.3224  0.1093
 8517W        W51429  20.738   3.391   0.874 -0.2291 -0.0560 -0.2030
 8518W        W51430  21.879   2.202   2.579 -0.0080  0.1232 -0.0936
 8519W        W51431  18.464   2.789   1.206  0.0701  0.1641 -0.1481
 8520W        W51432  18.172   4.303   1.640  0.3601  0.0357 -0.2644
 8521W        W51433  19.167   4.882   0.350  0.1915 -0.1718  0.1153
 8522W        W51434  21.676   3.223   1.522 -0.0631  0.0845  0.1990
 8523W        W51435  22.304   3.730   2.852  0.3007 -0.3137 -0.0525
 8524W        W51436  20.514   4.084   3.338  0.0954 -0.0360 -0.2737
 8525W        W51437  19.686   4.025   2.348 -0.2010 -0.0209  0.1312
 8526W        W51438  20.158   3.928   3.653  0.0547  0.1087  0.2727
 8527W        W51439  20.124   2.218   3.338 -0.0651  0.0721 -0.2201
 8528W        W51440  20.118   2.275   0.919 -0.1213  0.0545  0.0156
 8529W        W51441  19.429   1.677   0.218 -0.0651 -0.1892  0.1460
 8530W        W51442  20.220   2.733   1.158  0.2631 -0.1958 -0.1000
 8531W        W51443  17.965   3.239   3.614 -0.2837 -0.0475 -0.1188
 8532W        W51444  18.179   2.790   1.993  0.2099  0.1025 -0.1340
 8533W        W51445  22.867   0.738   1.948  0.2842  0.2004  0.1018
 8534W        W51446  18.611   2.939   0.390  0.1498 -0.0112 -0.3353
 8535W        W51447  21.369   0.334   0.323 -0.0441 -0.0761  0.1273
 8536W        W51448  19.065   0.162  31.519 -0.0421 -0.0937  0.0915
 8537W        W51449  20.980   0.664   0.570  0.1896  0.2245 -0.1369
 8538W        W51450  20.715  34.036  31.916  0.3748  0.1868  0.0517
 8539W        W51451  19.290   3.582   1.936 -0.1590  0.2150 -0.0770
 8540W        W51452  20.008  34.453   3.358 -0.2544  0.1536  0.0096
 8541W        W51453  20.816   4.673   2.794  0.2607 -0.3353 -0.1273
 8542W        W51454  21.199   1.492   0.575  0.1679 -0.0255 -0.0512
 8543W        W51455  20.659   1.865   2.140  0.1130  0.4640  0.1435
 8544W        W51456  20.085   2.404   1.445 -0.2755 -0.0224  0.1909
 8545W        W51457  17.854   2.072   1.002  0.2179  0.2026  0.1817
 8546W        W51458  22.821   2.036  31.669  0.2855 -0.0124 -0.0957
 8547W        W51459  23.400   3.230  31.801 -0.1258 -0.6098 -0.0694
 8548W        W51460  21.129   3.706   0.038 -0.1161  0.0651  0.0813
 8549W        W51461  18.240   1.869   1.237 -0.2511 -0.0281  0.0150
 8550W        W51462  19.116   2.556   2.463  0.3115  0.1060 -0.0335
 8551W        W51463  19.616   2.443   2.586  0.1298 -0.0837 -0.1266
 8552W        W51464  18.241  34.498  31.356  0.2624 -0.0345 -0.3018
 8553W        W51465  20.946   5.279   2.953 -0.2120  0.0123 -0.1988
 8554W        W51466  18.604   3.325   3.371 -0.1517 -0.0048  0.2339
 8555W        W51467  21.046   2.152   1.334  0.3048 -0.0169  0.1421
 8556W        W51468  19.345   2.241   1.797  0.0910  0.2260 -0.0212
 8557W        W51469  22.098   2.904   0.911  0.0503  0.1101  0.0861
 8558W        W51470  22.638   2.432   1.285  0.1220 -0.1374 -0.2744
 8559W        W51471  19.805   0.736   1.723  0.0198  0.0768 -0.2859
 8560W        W51472  21.444   0.180   2.413  0.0364  0.1844  0.1404
 8561W        W51473  19.071   2.418  31.936  0.1005 -0.1542 -0.0884
 8562W        W51474  20.513   1.250   1.165 -0.1942 -0.2276  0.0179
 8563W        W51475  21.724   3.501   2.231 -0.2371 -0.0049 -0.2041
 8564W        W51476  23.040   1.586   1.758 -0.0507  0.0467 -0.0642
 8565W        W51477  18.530   3.773   2.699  0.0859  0.3281  0.2668
 8566W        W51478  19.675   1.517   1.565 -0.0013  0.2848 -0.0221
 8567W        W51479  19.737   3.324   1.786  0.2412  0.1046  0.0767
 8568W        W51480  19.246   4.078  31.004 -0.4215 -0.1515  0.1187
 8569W        W51481  19.551   2.726   1.643  0.1727 -0.1143 -0.1371
 8570W        W51482  17.546   3.454   0.759 -0.1264 -0.0231  0.1631
 8571W        W51483  18.867   2.154   1.542 -0.0810  0.2281 -0.0361
 8572W        W51484  19.722   2.031   1.425 -0.0915 -0.1170  0.0118
 8573W        W51485  21.295   2.552   0.410  0.0721  0.0711 -0.2431
 8574W        W51486  19.518   2.651   2.172 -0.0431  0.0035  0.0189
 8575W        W51487  21.263   0.922   1.771  0.2053  0.2160 -0.0285
 8576W        W51488  18.767   3.748   0.567 -0.2154 -0.1671  0.1896
 8577W        W51489  22.332   3.600   0.020 -0.0402 -0.0039 -0.0687
 8578W        W51490  22.035   1.233   1.042 -0.2695 -0.1574  0.0855
 8579W        W51491  20.835   3.358  31.023  0.2502 -0.0940 -0.0375
 8580W        W51492  17.711   2.488   3.208 -0.2174  0.0491  0.2996
 8581W        W51493  18.831   1.690   1.925  0.0040  0.1424 -0.0589
 8582W        W51494  19.347   2.154   2.316  0.2366 -0.0435 -0.0908
 8583W        W51495  17.532   1.674   0.827  0.1059  0.1595 -0.1722
 8584W        W51496  19.533   3.454   3.068 -0.0896  0.3103 -0.2005
 8585W        W51497  18.353  34.560   0.018  0.0168  0.1733  0.2463
 8586W        W51498  21.553   1.867   0.638  0.0065 -0.3661  0.0126
 8587W        W51499  20.202   0.413   0.902 -0.1164 -0.1459 -0.2635
 8588W        W51500  18.061   3.357   1.721 -0.1705 -0.1551  0.2370
 8589W        W51501  20.764  33.827   3.498 -0.2711  0.1287  0.0689
 8590W        W51502  22.134   4.001  31.124  0.2362 -0.2043  0.2089
 8591W        W51503  20.313   3.020   3.622 -0.2739  0.1481 -0.1296
 8592W        W51504  19.864   3.780   0.246  0.0043  0.1950  0.0290
 8593W        W51505  20.098   1.989   1.737 -0.2162 -0.0371  0.1572
 8594W        W51506  18.770   0.770   1.798  0.0642  0.0440  0.0277
 8595W        W51507  18.370   4.778   1.661  0.1617 -0.1074  0.1196
 8596W        W51508  21.644   2.694   1.406  0.2307  0.0166 -0.0070
 8597W        W51509  19.359   0.573   0.189  0.2745 -0.1209  0.3938
 8598W        W51510  21.213   4.015   1.475  0.1533  0.0303  0.2768
 8599W        W51511  20.340   1.442   0.670 -0.0170  0.0418  0.0320
 8600W        W51512  19.704   3.848   2.808  0.1771  0.0276 -0.1975
 8601W        W51513  20.834   1.473   2.509 -0.0023 -0.0932 -0.2006
 8602W        W51514  21.286   3.395   2.442 -0.2211  0.0519  0.0527
 8603W        W51515  21.044   1.958   0.756 -0.2850  0.2704  0.1338
 8604W        W51516  17.917   0.071   0.178 -0.5280 -0.2316  0.0054
 8605W        W51517  21.632   3.184  31.828  0.1009 -0.2918 -0.1917
 8606W        W51518  19.212   3.029   0.481  0.2430 -0.0964 -0.0513
 8607W        W51519  17.240   2.515   1.134  0.2451  0.2037  0.3024
 8608W        W51520  21.032   2.980   0.527  0.2359  0.0012  0.0358
 8609W        W51521  21.144   1.020   2.464  0.0593 -0.2945 -0.2192
 8610W        W51522  19.144   3.270   3.373  0.4180  0.0005  0.0732
 8611W        W51523  19.177   1.182   3.774 -0.1164  0.2550  0.1751
 8612W        W51524  18.971   2.920   0.011  0.0517 -0.1909 -0.0404
 8613W        W51525  18.793   3.603   1.663  0.0197 -0.0881 -0.0362
 8614W        W51526  21.522   1.439   0.907 -0.3689  0.0419 -0.2320
 8615W        W51527  22.760   2.196   0.355 -0.3899  0.1417  0.0520
 8616W        W51528  18.927   3.269   2.544 -0.2038 -0.0612 -0.1930
 8617W        W51529  21.211   3.382   0.743 -0.2511  0.5047 -0.1511
 8618W        W51530  20.428   0.494  31.950  0.0211 -0.1112  0.0150
 8619W        W51531  19.584  34.539  31.056 -0.1209  0.3291  0.1404
 8620W        W51532  18.715   3.557   3.805 -0.3249 -0.1861 -0.3434
 8621W        W51533  19.265   1.709   0.765  0.2955 -0.1570  0.2946
 8622W        W51534  19.798   2.224   2.056  0.4508  0.3502  0.0809
 8623W        W51535  20.414   0.659  31.475  0.0302  0.1480 -0.1627
 8624W        W51536  21.154   2.616   1.236  0.2302 -0.0197 -0.1182
 8625W        W51537  19.057   2.675   1.864 -0.0071  0.2502  0.2213
 8626W        W51538  20.079   2.520   2.448  0.3285 -0.1227  0.1178
 8627W        W51539  22.432   2.897  31.826 -0.1103 -0.0591 -0.2026
 8628W        W51540  20.146   0.243   1.507  0.0147  0.3033  0.2326
 8629W        W51541  18.973   1.293   0.326 -0.1842 -0.2555  0.1916
 8630W        W51542  19.947   0.681   0.560 -0.0464  0.0072  0.0498
 8631W        W51543  17.636   3.098   0.448 -0.1256  0.2329  0.2776
 8632W        W51544  22.188   1.775   2.534  0.0839  0.1066 -0.1706
 8633W        W51545  20.467   1.047   2.038  0.4377  0.1266 -0.0778
 8634W        W51546  20.417   1.923   3.068  0.1608  0.0051 -0.2738
 8635W        W51547  20.003   2.709   4.495  0.2159 -0.2445  0.5855
 8636W        W51548  21.918   1.816   0.181  0.2009 -0.6748  0.2119
 8637W        W51549  20.383   2.355   1.984 -0.0698  0.1313 -0.0023
 8638W        W51550  18.456   0.183   0.548  0.2835  0.4276 -0.4464
 8639W        W51551  21.234   1.425   3.368  0.2106 -0.1995  0.1409
 8640W        W51552  19.777   2.825   4.065  0.1313  0.0217  0.0497
 8641W        W51553  17.822   3.761   3.946 -0.1917 -0.0977  0.0373
 8642W        W51554  20.380   3.564   2.814  0.2692  0.1319 -0.2256
 8643W        W51555  21.184   2.982   0.021  0.1376  0.1032 -0.3499
 8644W        W51556  19.692   1.951   4.131 -0.0226 -0.4100 -0.2227
 8645W        W51557  20.240  33.286   1.411  0.0223  0.0771  0.0649
 8646W        W51558  19.459   4.286   1.699 -0.0730  0.0016 -0.1787
 8647W        W51559  20.029   2.379   0.404 -0.2027  0.1593 -0.1780
 8648W        W51560  19.767   1.374   2.628 -0.0174  0.2369  0.0837
 8649W        W51561  20.383   3.809   1.007 -0.0849 -0.1698 -0.2646
 8650W        W51562  19.298   2.103   0.453  0.1067  0.0846 -0.0429
 8651W        W51563  22.154   3.211   2.422  0.1766  0.1239 -0.3236
 8652W        W51564  17.881   2.667   0.501 -0.1541 -0.1340 -0.0989
 8653W        W51565  22.001  33.862   2.412  0.1088 -0.0577  0.1299
 8654W        W51566  18.363   3.275   1.223 -0.1167  0.0593 -0.0943
 8655W        W51567  18.259   0.874   1.474 -0.2816  0.0810  0.0764
 8656W        W51568  17.918   1.543  30.794  0.0610  0.2114  0.0499
 8657W        W51569  21.132   0.640   1.376  0.1359  0.0411  0.0352
 8658W        W51570  20.473   2.962   0.065 -0.2146 -0.0232 -0.2053
 8659W        W51571  18.708   1.076   1.287 -0.0874  0.3592  0.1074
 8660W        W51572  20.137   1.786   1.100  0.0026  0.2012  0.1181
 8661W        W51573  17.096   4.169   2.927 -0.2431 -0.0211  0.2568
 8662W        W51574  20.834   2.593   2.875  0.0350 -0.0529 -0.0158
 8663W        W51575  20.366   0.865   0.358  0.3958 -0.3544  0.0386
 8664W        W51576  23.065   3.792   1.240 -0.0761 -0.0881 -0.3102
 8665W        W51577  19.585   2.966   3.198  0.2900 -0.1607 -0.0019
 8666W        W51578  17.049   0.817   0.675 -0.0690  0.3927 -0.0986
 8667W        W51579  22.133   1.323   2.815 -0.1323 -0.2408  0.1043
 8668W        W51580  18.681   1.701   1.417  0.0779 -0.1046  0.0605
 8669W        W51581  18.913   2.606   1.381 -0.1570  0.1381  0.0461
 8670W        W51582  21.648   3.667   1.355 -0.1000  0.1104  0.0656
 8671W        W51583  19.486  34.669  31.967  0.0175  0.0104  0.1634
 8672W        W51584  18.771   1.671   0.035  0.2304 -0.3253  0.0363
 8673W        W51585  18.871   2.870   3.513  0.0345 -0.1033  0.0764
 8674W        W51586  21.400   1.832   2.960  0.3190 -0.0231 -0.1450
 8675W        W51587  19.827   1.746   2.058  0.0684  0.0863  0.1319
 8676W        W51588  19.426   1.092   1.747  0.1243  0.1231 -0.0983
 8677W        W51589  20.042   1.184   1.256 -0.1614 -0.1635  0.1020
 8678W        W51590  20.865   3.085   3.252 -0.0866 -0.0151  0.0025
 8679W        W51591  20.779   3.184   2.309  0.0917  0.0148 -0.0748
 8680W        W51592  17.544   2.827   4.255 -0.1463 -0.2727 -0.0764
 8681W        W51593  19.283   0.808   2.246  0.0800 -0.0322 -0.1126
 8682W        W51594  23.335   3.112   0.768  0.1087  0.1009 -0.0974
 8683W        W51595  20.230   1.360   3.103 -0.1339  0.1112 -0.1544
 8684W        W51596  18.062   2.062  31.545  0.1255 -0.1547  0.1432
 8685W        W51597  19.253   1.768   1.431  0.0181  0.1097 -0.1380
 8686W        W51598  18.980   1.313   1.622 -0.0785  0.0429  0.0914
 8687W        W51599  21.418   0.700   2.212  0.2124  0.4129 -0.0194
 8688W        W51600  19.715   3.850   1.799  0.1158  0.0058  0.3235
 8689W        W51601  18.142   2.996   0.227 -0.0936  0.0297 -0.0000
 8690W        W51602  17.888   2.943   3.165 -0.1556 -0.0075  0.0653
 8691W        W51603  19.986  33.320  31.865 -0.0708  0.0751 -0.1874
 8692W        W51604  21.726   2.115  31.695 -0.1097  0.0724 -0.3924
 8693W        W51605  20.692   1.032   1.566 -0.0163 -0.0513 -0.0816
 8694W        W51606  21.267   1.529   3.907 -0.0776 -0.1978 -0.0235
 8695W        W51607  19.604   2.364   0.056 -0.0634 -0.1076  0.0737
 8696W        W51608  19.892   1.750   3.117 -0.1715  0.1883  0.2012
 8697W        W51609  18.795   1.384   2.818  0.0055 -0.3519 -0.0535
 8698W        W51610  20.273   4.073   1.541 -0.0181  0.0167 -0.2149
 8699W        W51611  17.762   1.968   4.444 -0.0656 -0.0353  0.0663
 8700W        W51612  20.274   4.473   3.028  0.0606 -0.0603  0.0887
 8701W        W51613  18.546   2.069   3.003 -0.0309 -0.2572  0.0280
 8702W        W51614  21.131   0.040  31.841  0.2198 -0.0024 -0.0803
 8703W        W51615  17.624   1.422   0.299 -0.0255  0.0232 -0.2634
 8704W        W51616  21.787   1.510   2.016  0.2000  0.1512 -0.2533
 8705W        W51617  20.497   3.709   1.736 -0.0471 -0.4380 -0.2370
 8706W        W51618  18.219   2.024   0.039 -0.1568 -0.0931  0.1280
 8707W        W51619  22.885   1.092   1.542  0.0698 -0.0411 -0.0807
 8708W        W51620  18.504   2.574   1.741 -0.2081  0.2720  0.1773
 8709W        W51621  20.772   1.139   0.594 -0.3366  0.1959  0.0500
 8710W        W51622  19.368   2.292  31.426  0.2399 -0.1429 -0.3047
 8711W        W51623  19.127   2.803  31.570  0.0539  0.1908  0.0040
 8712W        W51624  18.817   1.555   3.582 -0.2128 -0.1346  0.2829
 8713W        W51625  21.016   1.448   1.352  0.4890  0.2328 -0.2643
 8714W        W51626  20.901   1.387   1.988  0.0493  0.1291 -0.1457
 8715W        W51627  19.665   2.483   3.608  0.3479  0.0445 -0.2631
 8716W        W51628  20.333  34.465   2.485  0.3317 -0.1910  0.1296
 8717W        W51629  19.273   2.610   2.978 -0.0208  0.0038 -0.0381
 8718W        W51630  19.706   1.882   2.529  0.0810  0.3051 -0.2531
 8719W        W51631  20.964   3.884   3.592 -0.0473 -0.0909  0.1822
 8720W        W51632  20.684   1.433  30.974  0.0199 -0.0420  0.2142
 8721W        W51633  20.710   0.877   2.866  0.1648  0.1854  0.0454
 8722W        W51634  20.139   1.871   0.545  0.1367 -0.1403  0.0986
 8723W        W51635  22.291   2.137  31.949  0.0683 -0.4855  0.1863
 8724W        W51636  19.243   0.563   1.740 -0.2763 -0.3609 -0.3701
 8725W        W51637  20.534   2.645   3.283 -0.1034 -0.4953 -0.2924
 8726W        W51638  17.561   0.367  31.455  0.3977 -0.0835  0.0795
 8727W        W51639  20.033   2.202   3.803 -0.0853 -0.1865 -0.0169
 8728W        W51640  20.424   3.174   0.469 -0.4107  0.3155 -0.0227
 8729W        W51641  20.571   2.828   1.890 -0.2595  0.0633  0.3153
 8730W        W51642  21.599   1.242   0.170 -0.2945  0.0828  0.0968
 8731W        W51643  17.859   1.248   1.705 -0.1140  0.0088  0.0266
 8732W        W51644  18.417   2.911   3.166 -0.1800  0.1764  0.1011
 8733W        W51645  18.085  34.293   0.948  0.3259 -0.2324 -0.2274
 8734W        W51646  18.851   0.450  31.927  0.1454 -0.0330 -0.0929
 8735W        W51647  21.432   2.556   2.598  0.1538  0.1401  0.0024
 8736W        W51648  21.664   3.003   2.393  0.1084  0.2682  0.1053
 8737W        W51649  21.291   1.012   0.721  0.2291 -0.0180 -0.1783
 8738W        W51650  20.951   0.174   3.197  0.2066 -0.2876 -0.0787
 8739W        W51651  18.518   3.396   0.747  0.1446  0.0497  0.2566
 8740W        W51652  20.006   0.217   1.979 -0.4950 -0.2956  0.0368
 8741W        W51653  19.870   3.547   2.194  0.1495 -0.0333 -0.2515
 8742W        W51654  17.533   2.970   3.535 -0.1545  0.0492  0.1375
 8743W        W51655  19.677   2.130   0.743  0.0372  0.0222  0.1065
 8744W        W51656  21.066   3.021   1.027  0.1929  0.0870 -0.3690
 8745W        W51657  20.540   2.027   0.871  0.0577 -0.0589 -0.2054
 8746W        W51658  22.397   1.294   2.398  0.2628  0.0011 -0.1536
 8747W        W51659  21.667   1.688   2.579  0.1216 -0.0357  0.4477
 8748W        W51660  20.301   3.277   1.918 -0.1017 -0.0285  0.1184
 8749W        W51661  18.095   2.461   0.958  0.1271  0.1255  0.0823
 8750W        W51662  20.087   3.633   1.417  0.0834  0.1516  0.0615
 8751W        W51663  22.712   1.808   2.516  0.0997  0.1780 -0.3269
 8752W        W51664  20.071   2.785   0.695  0.0535 -0.0184 -0.0108
 8753W        W51665  18.404   1.313   1.944 -0.2011  0.0503  0.0031
 8754W        W51666  19.255   0.688   3.839 -0.0998  0.1562 -0.0717
 8755W        W51667  21.188   2.817   2.171  0.4816  0.0973 -0.2688
 8756W        W51668  19.649   0.145   1.548  0.2990  0.2716  0.2984
 8757W        W51669  21.203   3.894   0.496 -0.0987  0.0319 -0.0089
 8758W        W51670  20.151   4.100   4.547 -0.1398 -0.0976 -0.1247
 8759W        W51671  19.285   2.297   1.294  0.4407 -0.4112 -0.3360
 8760W        W51672  19.143   4.993  31.682 -0.1792  0.0082  0.0038
 8761W        W51673  18.996   2.512   0.415 -0.1731 -0.4083 -0.0762
 8762W        W51674  19.411   3.436   0.251 -0.1553 -0.1951 -0.1241
 8763W        W51675  20.514   3.313   1.403 -0.2598 -0.1196  0.2221
 8764W        W51676  18.965  34.007   0.018 -0.1276  0.1933 -0.0688
 8765W        W51677  19.354   3.094   2.140 -0.0183  0.2656 -0.0493
 8766W        W51678  18.877   3.422   0.229 -0.3224 -0.0399 -0.1789
 8767W        W51679  18.834   4.332  31.156  0.1614 -0.0640 -0.1144
 8768W        W51680  17.857   3.582   0.337  0.0283  0.1034  0.1049
 8769W        W51681  21.305   3.271   2.999  0.2674  0.1196  0.0050
 8770W        W51682  21.497   0.477  30.847 -0.4494 -0.0450 -0.0429
 8771W        W51683  21.663   2.229   0.273  0.1701  0.0569  0.0641
 8772W        W51684  21.732   1.865  30.866 -0.1422  0.1191 -0.0084
 8773W        W51685  20.253   3.124   2.472 -0.1479 -0.0504  0.1102
 8774W        W51686  19.036   1.431   1.147 -0.1023 -0.2338  0.1166
 8775W        W51687  19.792  34.041   0.503 -0.0801 -0.0553 -0.0894
 8776W        W51688  18.526   1.496   3.206 -0.0202 -0.1732 -0.2230
 8777W        W51689  22.844   0.463   3.647  0.2374 -0.0727 -0.0246
 8778W        W51690  18.017   3.317   2.924  0.1363  0.0079  0.1987
 8779W        W51691  22.000   4.214   0.353  0.0913  0.1313 -0.1169
 8780W        W51692  18.782   1.135   0.782 -0.2796 -0.1728 -0.1416
 8781W        W51693  18.947   1.952   1.046 -0.0714  0.1597  0.2125
 8782W        W51694  22.358  33.363   2.963 -0.0665  0.2265  0.0370
 8783W        W51695  19.995   2.822   0.200 -0.0271 -0.2711 -0.1134
 8784W        W51696  21.404   1.834   1.133 -0.5946 -0.3241 -0.0910
 8785W        W51697  18.773   1.750   0.580 -0.0540 -0.0579 -0.0454
 8786W        W51698  19.159   2.478   0.873  0.1663  0.2579 -0.2372
 8787W        W51699  18.361   2.464   0.454 -0.1273  0.0309  0.1062
 8788W        W51700  17.616   0.739   0.459  0.0426  0.0323 -0.3724
 8789W        W51701  22.186   2.155   0.468  0.2292  0.2269  0.4090
 8790W        W51702  18.795   2.464   3.160  0.0815 -0.3673 -0.0368
 8791W        W51703  20.452   0.562   1.971  0.3505 -0.0370 -0.3628
 8792W        W51704  20.455   2.595   0.437  0.1223 -0.3141  0.1848
 8793W        W51705  21.760   0.227   1.050  0.0533 -0.0432  0.0398
 8794W        W51706  19.795   2.980   1.113  0.0219  0.5497 -0.0829
 8795W        W51707  18.401   1.159   2.518  0.1406  0.2379 -0.0526
 8796W        W51708  20.756   1.968  30.571  0.0599  0.0316 -0.0687
 8797W        W51709  20.251   2.633   3.987  0.2903 -0.0708 -0.0418
 8798W        W51710  19.942   4.223  31.797  0.0893 -0.0184 -0.2424
 8799W        W51711  20.445   3.560   3.425  0.0804  0.0539 -0.0707
 8800W        W51712  19.384  34.589   2.435 -0.3677  0.1294  0.2580
 8801W        W51713  20.559   1.313   0.088  0.0948  0.1132  0.0610
 8802W        W51714  20.590   2.071   0.375 -0.1608  0.1776  0.1666
 8803W        W51715  19.381   2.056   3.010 -0.1346  0.3326  0.3016
 8804W        W51716  21.450   3.452   3.942  0.0248 -0.3262  0.0616
 8805W        W51717  17.916   0.147   0.709 -0.4549  0.1633  0.4119
 8806W        W51718  21.395   3.370   0.297  0.0118  0.0360 -0.1584
 8807W        W51719  21.863   2.346   1.870 -0.2166 -0.1589 -0.0024
 8808W        W51720  21.343   3.510  31.163  0.1020  0.1812  0.1706
 8809W        W51721  21.625   0.557   2.734 -0.0742 -0.0856 -0.0860
 8810W        W51722  20.730   4.253   1.438 -0.0248  0.0611  0.3243
 8811W        W51723  18.018   0.921   2.077  0.3000 -0.0743 -0.4410
 8812W        W51724  20.130   4.045   2.019 -0.3007  0.0877  0.0463
 8813W        W51725  21.331   3.857   0.998 -0.1884 -0.0204  0.0693
 8814W        W51726  20.510   1.532   1.712 -0.1452 -0.1148 -0.0837
 8815W        W51727  18.687   0.556   1.333 -0.0267 -0.0169  0.2280
 8816W        W51728  19.481   4.520  31.026  0.0814  0.0529 -0.0724
 8817W        W51729  21.860   2.069   3.538 -0.2234  0.3774  0.0217
 8818W        W51730  21.968   1.171   3.529  0.3734 -0.0676  0.2554
 8819W        W51731  18.389   3.467   0.270  0.0914  0.2499 -0.0788
 8820W        W51732  20.783  33.318   3.515  0.2147  0.0315  0.0601
 8821W        W51733  22.271   2.426   1.622  0.2252  0.0753 -0.0978
 8822W        W51734  20.925   2.491   4.018 -0.0805 -0.0997 -0.1678
 8823W        W51735  18.991   2.452  30.264 -0.1810  0.1628 -0.2206
 8824W        W51736  20.599   2.748   2.384 -0.2554 -0.1357 -0.1860
 8825W        W51737  20.621   3.286  30.587  0.1875 -0.2674  0.4077
 8826W        W51738  20.596   2.875   0.814  0.0848  0.0090 -0.3137
 8827W        W51739  22.511   3.104   0.762 -0.0809  0.1142 -0.5114
 8828W        W51740  22.440   1.702   0.341 -0.1657 -0.0092  0.1518
 8829W        W51741  23.427   2.843   2.613 -0.1157  0.0829  0.3431
 8830W        W51742  20.000   1.212   1.772 -0.0338 -0.1210  0.1243
 8831W        W51743  22.509   1.725   2.017  0.1933 -0.1204 -0.4839
 8832W        W51744  20.509  34.043   0.831  0.3760 -0.0569 -0.2237
 8833W        W51745  18.489   2.453   2.246  0.1906  0.0838  0.2134
 8834W        W51746  16.324   2.668   0.524 -0.0073  0.1540 -0.0324
 8835W        W51747  18.579   2.806  31.454 -0.3205 -0.0256 -0.2433
 8836W        W51748  18.193   1.204   0.934 -0.0789  0.2297 -0.0346
 8837W        W51749  21.337   0.899   2.977  0.1270  0.0030  0.3185
 8838W        W51750  17.866   2.154   3.506  0.0162  0.0617  0.0460
 8839W        W51751  19.853   0.627   2.273  0.2912  0.0201 -0.2240
 8840W        W51752  18.390   0.758   0.808 -0.2333 -0.1486  0.1436
 8841W        W51753  22.082   2.592  31.619  0.3310 -0.1906 -0.1880
 8842W        W51754  19.571   0.512   3.014  0.2544  0.0955 -0.0654
 8843W        W51755  17.804  34.070   0.510 -0.0637 -0.1035 -0.0466
 8844W        W51756  21.682   2.947   0.347  0.5888 -0.2688 -0.0153
 8845W        W51757  20.856   2.445   1.712 -0.2774  0.0439  0.0034
 8846W        W51758  20.083  34.588   1.139 -0.0221 -0.0641  0.0103
 8847W        W51759  22.487   2.496   2.444 -0.0583  0.1854 -0.1229
 8848W        W51760  19.164   3.310  31.762 -0.1535  0.4077  0.2177
 8849W        W51761  19.719   2.406   3.107 -0.3481  0.1457 -0.1961
 8850W        W51762  19.652   1.607   3.768 -0.0435  0.4068  0.0839
 8851W        W51763  18.385   0.602  31.975  0.0529 -0.2869  0.5019
 8852W        W51764  20.495   2.088   1.454 -0.0993  0.0847  0.0074
 8853W        W51765  21.493   2.300   0.965  0.3303 -0.2464  0.0699
 8854W        W51766  20.276   3.983   0.106 -0.0385 -0.2262  0.1738
 8855W        W51767  20.009   2.844   2.043 -0.1800 -0.0422  0.0725
 8856W        W51768  19.907   2.779   2.839  0.0963  0.1603 -0.0059
 8857W        W51769  17.656  34.303   4.510  0.1438 -0.0038  0.1269
 8858W        W51770  20.882   3.990   0.827 -0.1224  0.1528 -0.0739
 8859W        W51771  21.261   3.804   2.800  0.1015  0.3403  0.1167
 8860W        W51772  22.043   1.797   0.994 -0.3817 -0.4384 -0.0729
 8861W        W51773  20.325   1.535   2.203  0.1236  0.3133  0.0377
 8862W        W51774  19.432   1.168   0.218  0.2110 -0.3064 -0.0099
 8863W        W51775  20.587   0.375   2.952 -0.2787 -0.0329 -0.0358
 8864W        W51776  19.318   2.816   3.748 -0.1784  0.0803 -0.1237
 8865W        W51777  20.829   3.654   2.643  0.0974  0.0797  0.2042
 8866W        W51778  19.004   0.356   2.164 -0.1826  0.0275 -0.0623
 8867W        W51779  20.691  34.497   0.399 -0.1300  0.2929  0.0472
 8868W        W51780  21.352   2.441   1.720  0.0672 -0.1257  0.0608
 8869W        W51781  18.907   2.956   3.023 -0.0020  0.2992 -0.3858
 8870W        W51782  19.139   1.425  31.844 -0.4670  0.1659 -0.0051
 8871W        W51783  20.040   2.148   2.808  0.1012  0.0787 -0.1408
 8872W        W51784  20.617   2.449   1.088  0.1962  0.0751  0.4027
 8873W        W51785  21.918   3.584   1.781 -0.2457  0.0090  0.0379
 8874W        W51786  19.085   0.832   0.482  0.0879 -0.1581  0.0769
 8875W        W51787  20.853   3.301   0.150 -0.3058  0.2432  0.0194
 8876W        W51788  21.077   3.854   2.239 -0.1125 -0.0784 -0.4553
 8877W        W51789  21.552   4.420   2.621 -0.1269 -0.1904 -0.1793
 8878W        W51790  21.253   3.428   1.271  0.2734 -0.1085  0.0609
 8879W        W51791  20.840   3.220   1.843 -0.0534 -0.0038 -0.2674
 8880W        W51792  18.274  34.433   4.631 -0.0133  0.0279  0.0593
 8881W        W51793  18.631   0.651   0.370  0.0467 -0.0459 -0.1897
 8882W        W51794  19.929   1.192   0.717 -0.2428 -0.2011 -0.4869
 8883W        W51795  21.976   2.626   2.317  0.1471  0.2721  0.0038
 8884W        W51796  19.198   0.037   1.784 -0.0685  0.3319 -0.4232
 8885W        W51797  20.733   0.456   0.984 -0.0782 -0.2800 -0.1027
 8886W        W51798  20.232   4.896   2.750 -0.0519  0.1537 -0.2711
 8887W        W51799  21.475   3.816   1.848 -0.2146 -0.1625  0.0365
 8888W        W51800  20.641   1.912   6.432 -0.2814 -0.3485 -0.0946
 8889W        W51801  21.721   1.339   5.074 -0.1231 -0.0489  0.1189
 8890W        W51802  21.221   1.506   4.889  0.0481 -0.0428 -0.3028
 8891W        W51803  19.309   2.260   4.811  0.0302 -0.1288 -0.1812
 8892W        W51804  18.784   0.917   4.164  0.1720  0.1368 -0.0393
 8893W        W51805  19.650   3.923   4.873 -0.0531 -0.0380 -0.2227
 8894W        W51806  18.377  33.767   6.038  0.1362  0.0770  0.1970
 8895W        W51807  21.000   2.534   5.886  0.0687 -0.0244  0.1955
 8896W        W51808  21.177   3.613   6.039 -0.0558 -0.0795  0.5237
 8897W        W51809  18.959   1.203   3.276  0.1782 -0.3012 -0.1143
 8898W        W51810  20.238   1.452   6.477 -0.2428 -0.1619 -0.1586
 8899W        W51811  21.579   2.062   5.225 -0.0279 -0.1439 -0.1000
 8900W        W51812  18.994   0.040   4.444  0.2804  0.2510  0.0459
 8901W        W51813  17.902  33.970   5.617  0.0944 -0.0408 -0.0340
 8902W        W51814  20.192   1.789   4.033 -0.2171 -0.0404 -0.0274
 8903W        W51815  17.938   0.956   4.951 -0.0112  0.0666  0.0512
 8904W        W51816  20.750   1.103   5.767 -0.1101  0.0771  0.2617
 8905W        W51817  19.892   1.601   4.426 -0.0292  0.0645  0.0422
 8906W        W51818  20.399   3.363   5.999 -0.1732 -0.0115 -0.2581
 8907W        W51819  19.502   0.772   6.854 -0.2434  0.2587  0.0539
 8908W        W51820  22.036  33.541   7.515  0.2584 -0.1613 -0.2718
 8909W        W51821  19.196   4.448   5.803 -0.3214 -0.1226 -0.1464
 8910W        W51822  18.380   2.420   3.402 -0.1773 -0.0708 -0.2088
 8911W        W51823  19.184   1.317   5.018 -0.3734 -0.3003 -0.2652
 8912W        W51824  19.303   1.269   7.118  0.1569 -0.2946 -0.0766
 8913W        W51825  20.919   0.838   6.164  0.0800  0.2874  0.2394
 8914W        W51826  22.017   2.298   5.024 -0.0336 -0.0212 -0.1076
 8915W        W51827  20.892   4.486   4.970 -0.1300 -0.1500 -0.0103
 8916W        W51828  20.673   3.873   5.336 -0.3203  0.0893  0.2580
 8917W        W51829  20.945  34.439   5.902  0.0444  0.3659 -0.0243
 8918W        W51830  19.142   3.025   5.437 -0.1039  0.0156 -0.3243
 8919W        W51831  18.907   2.765   4.082  0.2099  0.0261 -0.2683
 8920W        W51832  19.469   3.342   5.011 -0.0527 -0.0961  0.1069
 8921W        W51833  21.072   3.746   4.120 -0.0000  0.5029 -0.1854
 8922W        W51834  21.288   2.333   6.638  0.1714  0.0851 -0.0579
 8923W        W51835  18.864   2.522   7.092 -0.1414  0.1817  0.2499
 8924W        W51836  19.145   2.275   3.467  0.2386 -0.1176 -0.1880
 8925W        W51837  20.105   3.728   7.476 -0.1049  0.0637 -0.2517
 8926W        W51838  20.235   1.413   7.112  0.0720 -0.0866  0.1792
 8927W        W51839  20.163   2.252   6.992 -0.0547  0.2044 -0.3055
 8928W        W51840  20.492   2.378   5.718  0.0046  0.1288  0.2639
 8929W        W51841  18.662   2.269   4.242  0.3682  0.3681  0.2165
 8930W        W51842  22.140   2.179   4.051 -0.1647  0.1348 -0.1334
 8931W        W51843  20.631   2.607   8.149  0.1415  0.2542  0.0587
 8932W        W51844  19.916   2.046   6.540  0.0403 -0.0986  0.0375
 8933W        W51845  21.665   0.263   6.099  0.0434  0.0548  0.1502
 8934W        W51846  19.972   3.922   4.104  0.2437 -0.0005  0.0858
 8935W        W51847  19.395   1.566   3.349 -0.1564  0.2371  0.2790
 8936W        W51848  19.857   1.339   3.433 -0.3913  0.1231 -0.1210
 8937W        W51849  19.624   3.527   4.547 -0.0419  0.0954 -0.3125
 8938W        W51850  20.014  34.691   5.379  0.0401  0.0223 -0.1810
 8939W        W51851  18.665   3.366   5.775 -0.0552 -0.0162  0.0931
 8940W        W51852  19.960   0.706   5.337  0.0144  0.2887  0.2880
 8941W        W51853  21.400   3.017   5.379 -0.1468 -0.1661 -0.2442
 8942W        W51854  20.033   2.766   3.303 -0.1410  0.1285 -0.1179
 8943W        W51855  20.599   0.894   6.583 -0.0941 -0.0105  0.1833
 8944W        W51856  19.596   2.471   7.688  0.1857 -0.0910 -0.0097
 8945W        W51857  18.134   0.789   4.466  0.1592 -0.0402  0.0204
 8946W        W51858  20.835   2.919   3.801  0.0201 -0.0578 -0.1910
 8947W        W51859  20.945   3.539   4.863 -0.0199  0.1467  0.0070
 8948W        W51860  20.180   3.585   5.562  0.1391 -0.1588  0.0372
 8949W        W51861  18.360   1.220   4.211 -0.0141  0.0828 -0.3246
 8950W        W51862  19.482   1.308   7.555 -0.1093  0.1707  0.0006
 8951W        W51863  20.419   1.393   5.430  0.3200  0.0022 -0.2896
 8952W        W51864  19.364   0.873   3.386  0.2785  0.1351 -0.1019
 8953W        W51865  21.986   1.915   6.983  0.2984  0.1018  0.2753
 8954W        W51866  18.673   2.433   8.018 -0.1988  0.4099  0.1032
 8955W        W51867  20.885   1.177   4.658 -0.1772 -0.0001 -0.1783
 8956W        W51868  20.174   2.026   6.010 -0.1829  0.1082  0.1436
 8957W        W51869  21.252   2.732   6.221 -0.0096 -0.0109  0.2140
 8958W        W51870  20.375   2.486   2.839 -0.0560  0.2748 -0.1396
 8959W        W51871  21.645   0.200   4.803  0.1099  0.0350 -0.1654
 8960W        W51872  21.120   1.154   5.202  0.0646  0.1417 -0.2962
 8961W        W51873  18.149   2.497   2.915  0.0593 -0.0332 -0.0039
 8962W        W51874  19.209   1.833   3.711  0.1237 -0.4290  0.0590
 8963W        W51875  21.980   2.599   6.132 -0.1659 -0.0405 -0.0442
 8964W        W51876  22.427   0.832   3.558 -0.2239  0.0099  0.0526
 8965W        W51877  18.799   4.590   4.648 -0.2997 -0.1843  0.0554
 8966W        W51878  19.431  34.255   6.824 -0.0410 -0.2133  0.1812
 8967W        W51879  19.687   3.000   6.542  0.0047 -0.4571 -0.1072
 8968W        W51880  20.103   3.474   3.867  0.1139  0.2932  0.1957
 8969W        W51881  18.671   2.135   6.822 -0.1461  0.2681  0.0284
 8970W        W51882  18.264   2.522   5.027 -0.0519  0.1221 -0.2285
 8971W        W51883  18.989  33.942   5.556  0.1405 -0.1433 -0.2891
 8972W        W51884  19.551   2.533   4.402 -0.2069  0.3892  0.0811
 8973W        W51885  21.651   1.360   4.543 -0.2421  0.1220 -0.3695
 8974W        W51886  19.168  34.514   6.417  0.3520  0.0311 -0.1170
 8975W        W51887  20.818   0.150   5.566  0.3617  0.3666  0.2513
 8976W        W51888  19.806   2.149   5.309 -0.0227  0.1854 -0.0693
 8977W        W51889  21.583   3.851   4.268  0.3584  0.3115  0.1953
 8978W        W51890  20.682   1.538   3.949 -0.1804  0.3123 -0.1014
 8979W        W51891  20.127   3.110   5.252 -0.2227  0.1644 -0.0207
 8980W        W51892  19.140   1.614   6.029  0.0720 -0.5170  0.0896
 8981W        W51893  19.604   0.995   5.025  0.0736  0.1256  0.2620
 8982W        W51894  19.184   0.401   6.414 -0.0885 -0.1067  0.0592
 8983W        W51895  19.224  34.267   6.004 -0.4143  0.0310  0.2226
 8984W        W51896  22.209   1.540   4.429  0.3163  0.0723 -0.2354
 8985W        W51897  18.764  34.695   3.455 -0.1450 -0.2103  0.1760
 8986W        W51898  20.760   1.660   4.429 -0.0775  0.0802 -0.0343
 8987W        W51899  20.061   1.284   3.934  0.3321 -0.0555 -0.0659
 8988W        W51900  18.676   1.894   3.899  0.3991  0.1395  0.1004
 8989W        W51901  21.745   1.232   5.597 -0.0210  0.2425  0.0806
 8990W        W51902  21.249   5.259   4.139 -0.3365  0.1646  0.0627
 8991W        W51903  22.533   4.202   6.371  0.0739 -0.0694  0.1587
 8992W        W51904  19.914   4.382   4.926  0.2018 -0.3868 -0.1263
 8993W        W51905  18.345  34.542   7.091 -0.0545  0.0810  0.1507
 8994W        W51906  19.274   0.220   3.976  0.0941 -0.0761 -0.0012
 8995W        W51907  18.702   3.863   4.998 -0.1452 -0.1101  0.0269
 8996W        W51908  19.691   4.211   5.394  0.1664  0.3064  0.0357
 8997W        W51909  19.150   0.863   4.786 -0.0666  0.0277 -0.1688
 8998W        W51910  19.545   4.680   5.565  0.1120  0.2820 -0.1536
 8999W        W51911  19.160   4.189   5.160  0.1970 -0.0907 -0.0017
 9000W        W51912  19.700   1.556   6.193 -0.0276 -0.1640 -0.1984
 9001W        W51913  20.359   0.530   6.414  0.0133  0.2399  0.1265
 9002W        W51914  21.631   2.134   5.986  0.2500  0.0897 -0.0375
 9003W        W51915  21.140   1.173   4.177 -0.0628  0.1037 -0.1062
 9004W        W51916  18.532   0.438   4.326 -0.3943  0.1763 -0.2054
 9005W        W51917  20.804   2.412   5.125 -0.1648 -0.0184 -0.1403
 9006W        W51918  19.859   5.187   3.953  0.1095 -0.1455  0.4344
 9007W        W51919  19.973   2.349   5.740  0.1313  0.1072  0.0093
 9008W        W51920  19.890   2.690   5.347  0.1054  0.0375 -0.1671
 9009W        W51921  21.481   0.802   6.022 -0.0395  0.2267 -0.1622
 9010W        W51922  18.149   0.741   6.703  0.1769  0.2591  0.1226
 9011W        W51923  21.071   0.318   6.150 -0.0056  0.1312 -0.0567
 9012W        W51924  18.411   1.767   4.365  0.0330  0.1354  0.0643
 9013W        W51925  19.202   1.734   7.592 -0.0455  0.1621  0.1316
 9014W        W51926  21.305   0.961   4.585 -0.0306  0.3254 -0.4953
 9015W        W51927  22.254   0.413   2.716 -0.0465  0.0607 -0.1069
 9016W        W51928  20.632   2.371   7.254  0.1577  0.4811 -0.0299
 9017W        W51929  20.530   2.215   4.288  0.0650  0.1192 -0.1952
 9018W        W51930  20.184   3.117   4.204 -0.1607  0.1308  0.1462
 9019W        W51931  21.174   0.645   3.782 -0.0115  0.1775  0.5315
 9020W        W51932  19.783   1.073   7.172  0.1306  0.0893  0.1758
 9021W        W51933  21.774   3.307   5.630 -0.1839 -0.1029  0.4438
 9022W        W51934  18.760   3.155   7.015  0.1235 -0.1640 -0.0557
 9023W        W51935  20.285   0.694   4.282 -0.0209  0.0670 -0.0756
 9024W        W51936  22.215   2.957   3.412  0.2544  0.0752  0.2082
 9025W        W51937  18.945   1.408   6.809 -0.2801 -0.2157  0.0959
 9026W        W51938  19.926   4.132   7.106 -0.0232  0.0642  0.0695
 9027W        W51939  22.761   2.935   4.088  0.4567 -0.1268  0.0664
 9028W        W51940  20.155   0.033   6.278  0.1599  0.3384  0.0107
 9029W        W51941  19.274   1.584   2.908  0.2740 -0.0095  0.2853
 9030W        W51942  19.448   1.007   4.206 -0.0905 -0.3671 -0.2433
 9031W        W51943  19.340   2.988   4.328 -0.1302 -0.2423  0.1364
 9032W        W51944  21.927  33.816   5.244 -0.1296 -0.5105  0.1277
 9033W        W51945  20.035  34.542   4.867 -0.2960 -0.2376 -0.0537
 9034W        W51946  19.548   0.043   6.642 -0.2886  0.4591  0.3926
 9035W        W51947  21.520   1.155   8.123 -0.3796 -0.3099 -0.0878
 9036W        W51948  20.533   3.049   2.885  0.1853  0.1166 -0.3330
 9037W        W51949  20.828   2.449   6.353  0.2458 -0.0179  0.3426
 9038W        W51950  19.081   1.719   2.436 -0.1080  0.2357  0.0504
 9039W        W51951  20.979  34.669   6.642 -0.1988  0.1871  0.1507
 9040W        W51952  19.057   0.695   7.026  0.2599  0.0217  0.1046
 9041W        W51953  19.198   2.202   6.834 -0.0418  0.0377  0.2429
 9042W        W51954  19.977   2.615   6.693  0.2638  0.1781 -0.0050
 9043W        W51955  20.593   2.832   4.269 -0.1337 -0.0209 -0.0337
 9044W        W51956  19.855   1.094   6.314 -0.2254 -0.0663  0.4618
 9045W        W51957  19.371   1.525   4.226 -0.3352 -0.0775  0.2385
 9046W        W51958  19.160   3.267   4.679 -0.1681 -0.0623  0.0345
 9047W        W51959  19.484   3.439   2.448 -0.2229 -0.1160  0.2744
 9048W        W51960  20.845  34.263   5.442 -0.0379  0.0028 -0.0217
 9049W        W51961  20.836   3.562   5.684  0.0110 -0.2014  0.0910
 9050W        W51962  18.852   3.929   3.432  0.1832  0.1404 -0.1315
 9051W        W51963  21.209   2.131   5.564 -0.0550 -0.1372  0.2174
 9052W        W51964  20.036   3.159   6.238  0.3649  0.2783  0.0078
 9053W        W51965  22.118   1.053   4.902  0.0797 -0.1734 -0.0672
 9054W        W51966  18.926   1.828   6.469  0.0514  0.0949  0.0880
 9055W        W51967  18.298   1.654   2.787  0.3061  0.3381 -0.0897
 9056W        W51968  18.487   1.501   4.840 -0.0877  0.1411 -0.3251
 9057W        W51969  21.256   1.223   5.732  0.2584  0.0208  0.3790
 9058W        W51970  21.407   3.083   3.537  0.2772  0.0406 -0.2452
 9059W        W51971  19.484   0.757   6.125  0.0880 -0.2429 -0.1628
 9060W        W51972  20.429   1.132   5.018  0.3353  0.0989 -0.1435
 9061W        W51973  19.585   2.974   5.905  0.0319 -0.0470  0.1262
 9062W        W51974  21.261   1.152   6.216 -0.0660  0.2004 -0.1050
 9063W        W51975  20.382   0.838   3.238  0.3053 -0.0533 -0.0831
 9064W        W51976  21.322   3.261   6.352 -0.0069 -0.1266  0.0528
 9065W        W51977  18.927   1.123   7.415  0.0086  0.2289 -0.3059
 9066W        W51978  18.044  34.489   4.197 -0.2000 -0.0616 -0.1344
 9067W        W51979  22.719   1.162   5.733 -0.1968 -0.1314  0.0968
 9068W        W51980  19.414   2.536   5.236 -0.0166 -0.0767  0.2116
 9069W        W51981  19.681   2.037   6.057  0.3354 -0.6253 -0.0500
 9070W        W51982  20.992   4.061   6.919  0.1111 -0.0634  0.0468
 9071W        W51983  18.933   1.747   4.982 -0.1100  0.1020 -0.0153
 9072W        W51984  18.617   2.962   4.906 -0.2444 -0.1872  0.1553
 9073W        W51985  20.749   1.549   6.823 -0.0075 -0.0898 -0.1634
 9074W        W51986  20.988   1.506   5.485 -0.0004  0.0430 -0.0291
 9075W        W51987  19.725   1.299   6.717 -0.0051  0.0710 -0.0992
 9076W        W51988  19.647   1.609   5.084 -0.0528  0.1151  0.2236
 9077W        W51989  21.049   1.982   5.016  0.1053 -0.0389  0.3140
 9078W        W51990  22.312   2.157   4.573  0.0295  0.1795 -0.2587
 9079W        W51991  20.545   0.605   5.950  0.1307 -0.1202  0.1397
 9080W        W51992  20.105   2.299   8.487  0.1762 -0.2287 -0.0001
 9081W        W51993  20.703  34.263   7.949  0.1650  0.0508 -0.2251
 9082W        W51994  22.416   3.250   2.894 -0.4864 -0.1966  0.0964
 9083W        W51995  21.568   2.628   5.830 -0.0359 -0.1421 -0.2924
 9084W        W51996  18.972   1.267   4.539 -0.2684 -0.0131  0.1115
 9085W        W51997  18.734   1.887   5.594 -0.1229 -0.0030  0.0391
 9086W        W51998  18.966   1.855   3.199 -0.1846  0.0019 -0.0603
 9087W        W51999  20.744   1.960   5.441 -0.3162  0.1813 -0.0505
 9088W        W52000  19.701   2.088   7.057 -0.0348 -0.0843  0.1213
 9089W        W52001  19.714   3.747   3.483  0.1979 -0.3670 -0.1155
 9090W        W52002  19.157   2.228   6.184  0.0356  0.0600 -0.1344
 9091W        W52003  19.199   0.513   4.394 -0.2810  0.1120  0.3676
 9092W        W52004  19.444   4.004   4.163  0.1449 -0.0568  0.0009
 9093W        W52005  19.673   0.648   4.654 -0.0450  0.0324 -0.0278
 9094W        W52006  21.864  34.204   5.493  0.0105 -0.1500 -0.2160
 9095W        W52007  20.985   2.235   3.194 -0.0615 -0.1919  0.0295
 9096W        W52008  19.829  34.188   8.249  0.1369  0.1066 -0.1568
 9097W        W52009  19.612  34.349   6.320  0.2140  0.0021  0.2776
 9098W        W52010  21.368   3.334   4.981  0.1676  0.0304 -0.1451
 9099W        W52011  18.871   0.909   5.954  0.2783  0.3354 -0.2091
 9100W        W52012  19.797   3.589   7.154  0.0754 -0.2040  0.1133
 9101W        W52013  19.078   0.244   6.859  0.0151 -0.0275  0.0951
 9102W        W52014  20.623   2.146   3.572  0.2377  0.0039  0.1378
 9103W        W52015  18.498  34.616   5.048  0.0254 -0.2887  0.0490
 9104W        W52016  19.423   2.664   6.943 -0.1073  0.0785  0.0563
 9105W        W52017  21.358   2.642   4.456  0.0195 -0.1662  0.0076
 9106W        W52018  20.777   2.997   4.985  0.1354  0.1307  0.2173
 9107W        W52019  22.480   1.728   4.063 -0.1507  0.2520 -0.1188
 9108W        W52020  21.397   1.966   7.146 -0.1190 -0.2381  0.2350
 9109W        W52021  21.911   3.395   4.208  0.0568 -0.0754 -0.2558
 9110W        W52022  19.652   2.044   3.462 -0.3774 -0.2811 -0.2095
 9111W        W52023  20.106   2.919   5.738 -0.1365 -0.0733  0.3537
 9112W        W52024  19.609   1.671   5.702  0.4125 -0.1023 -0.0325
 9113W        W52025  20.707   0.840   5.313  0.1034  0.2878  0.1852
 9114W        W52026  20.485   0.228   4.522 -0.0854 -0.0698  0.1112
 9115W        W52027  20.069  34.116   7.216 -0.2100  0.0144  0.2927
 9116W        W52028  21.654   0.431   5.588 -0.0579  0.2633 -0.3312
 9117W        W52029  20.235   1.856   7.349 -0.0824  0.2672  0.0448
 9118W        W52030  18.497   0.626   7.951  0.1806 -0.1273  0.2020
 9119W        W52031  21.507   3.802   6.506 -0.0886  0.0510  0.0618
 9120W        W52032  20.708   1.336   3.107 -0.0980  0.0533 -0.3126
 9121W        W52033  22.272   0.614   7.422  0.1367  0.0889 -0.0533
 9122W        W52034  22.271   1.280   5.504  0.1370  0.1979 -0.0243
 9123W        W52035  20.363   2.173   5.242  0.1416  0.0011  0.0943
 9124W        W52036  19.403   2.114   5.577  0.0652  0.0522 -0.0227
 9125W        W52037  20.283   0.827   7.845 -0.1238  0.0612  0.0879
 9126W        W52038  19.848  34.394   3.990  0.0446  0.0842  0.0814
 9127W        W52039  21.457   0.168   6.542 -0.1171 -0.0191 -0.0732
 9128W        W52040  20.518   3.405   5.164  0.1362  0.2214 -0.1244
 9129W        W52041  20.906   2.010   4.019  0.3077 -0.0991  0.1610
 9130W        W52042  20.928   2.773   5.457  0.1954 -0.1613  0.0124
 9131W        W52043  18.414   1.070   5.083 -0.4494  0.0414  0.0770
 9132W        W52044  20.311   2.773   7.616  0.0939  0.3663 -0.2604
 9133W        W52045  18.115   0.234   4.521  0.3744  0.0898  0.1807
 9134W        W52046  18.787   2.391   3.724 -0.0645 -0.2865  0.1575
 9135W        W52047  19.991   3.522   5.019  0.3972 -0.1228 -0.1103
 9136W        W52048  21.107   3.212   7.083  0.1062  0.2957 -0.0703
 9137W        W52049  20.209   1.682   3.520  0.2771  0.0360 -0.0140
 9138W        W52050  21.547   0.613   7.124  0.0865  0.3702  0.0877
 9139W        W52051  19.876   3.159   4.705  0.0498  0.2588 -0.1885
 9140W        W52052  19.019  33.869   6.309 -0.2452 -0.2155 -0.2014
 9141W        W52053  19.077   3.014   8.233 -0.2372 -0.2041  0.0159
 9142W        W52054  18.721   2.233   7.467 -0.0127 -0.0126  0.0063
 9143W        W52055  19.773   4.512   4.466 -0.0388 -0.0706 -0.0617
 9144W        W52056  20.410   0.445   5.460 -0.0889  0.0792  0.0971
 9145W        W52057  21.790   1.366   4.035 -0.1015  0.0103  0.0324
 9146W        W52058  20.444   2.835   6.519 -0.0705  0.0462  0.0350
 9147W        W52059  22.282   1.198   6.071  0.1134  0.0111 -0.2341
 9148W        W52060  20.884   3.081   6.504  0.1781 -0.3732  0.0953
 9149W        W52061  18.852   2.391   5.672  0.3773  0.0702 -0.0819
 9150W        W52062  21.004   3.579   6.628 -0.1866 -0.3329  0.3494
 9151W        W52063  23.223   1.994   4.217 -0.1614  0.0041  0.0464
 9152W        W52064  20.839   2.542   4.688  0.0992 -0.1573 -0.1014
 9153W        W52065  18.614   0.815   7.136 -0.3135 -0.0428  0.0800
 9154W        W52066  20.108   1.340   7.567 -0.0239 -0.0349 -0.0734
 9155W        W52067  19.820   3.520   5.934  0.1300 -0.3370 -0.3143
 9156W        W52068  20.016  33.909   6.448 -0.1405 -0.1777 -0.1576
 9157W        W52069  18.433   2.698   4.469  0.4540 -0.0436  0.0057
 9158W        W52070  20.361   1.321   8.612 -0.1965  0.0049  0.0302
 9159W        W52071  19.264   2.619   5.719  0.1447 -0.1514  0.4304
 9160W        W52072  19.315   4.204   3.620  0.0843  0.1466  0.2183
 9161W        W52073  21.012   3.191   4.147  0.3198 -0.3428 -0.0075
 9162W        W52074  21.230   1.975   3.657  0.0643  0.2088  0.1367
 9163W        W52075  20.769   3.630   7.029  0.0058  0.1422  0.2214
 9164W        W52076  20.020   2.261   4.337  0.2274  0.4743 -0.1958
 9165W        W52077  19.112   3.083   6.648 -0.2255 -0.0480  0.0629
 9166W        W52078  18.737   3.544   4.632 -0.1642 -0.1368  0.0039
 9167W        W52079  21.389   2.826   3.973  0.0489  0.2281  0.0550
 9168W        W52080  19.184   3.671   5.216 -0.1569  0.1344 -0.2227
 9169W        W52081  22.716   3.412   5.975  0.0960  0.1653 -0.0402
 9170W        W52082  21.301   0.135   3.605 -0.2063 -0.0072  0.0203
 9171W        W52083  22.155   0.731   3.991  0.3204  0.2777 -0.3760
 9172W        W52084  21.638   1.584   3.534 -0.0865  0.0987 -0.1994
 9173W        W52085  21.140   1.350   7.701 -0.0356 -0.2947  0.2851
 9174W        W52086  20.434   2.705   5.319  0.1286  0.0810  0.0038
 9175W        W52087  20.174   2.020   2.319 -0.0437  0.2686 -0.0035
 9176W        W52088  19.500  33.794   6.311 -0.6646  0.1918 -0.3514
 9177W        W52089  21.450  34.480   6.829  0.1617 -0.1373 -0.0562
 9178W        W52090  17.423   2.442   6.665  0.0561 -0.4552 -0.0683
 9179W        W52091  20.089   3.551   4.467  0.0673 -0.2744  0.0553
 9180W        W52092  18.268   0.833   3.876 -0.1233  0.1529  0.0062
 9181W        W52093  19.002   1.811   4.441 -0.0947 -0.0653 -0.0859
 9182W        W52094  21.916  34.412   4.497 -0.0407  0.3273 -0.2095
 9183W        W52095  19.754   3.059   2.392  0.2681  0.1753 -0.1364
 9184W        W52096  20.974   2.104   4.526 -0.2826  0.0683 -0.1332
 9185W        W52097  19.498   3.814   6.207  0.3658  0.0269  0.2140
 9186W        W52098  19.836   3.556   6.490  0.0134  0.0485 -0.1281
 9187W        W52099  21.083   3.081   4.612 -0.3207  0.1405  0.0965
 9188W        W52100  19.759   0.310   6.110  0.2895  0.1786 -0.1180
 9189W        W52101  21.303   1.656   4.443 -0.0639  0.0973 -0.0054
 9190W        W52102  20.277   0.939   5.660  0.2527  0.0376 -0.0110
 9191W        W52103  21.031  34.571   7.147 -0.1224 -0.2787  0.0560
 9192W        W52104  19.336   1.178   5.963  0.0630  0.0659  0.1303
 9193W        W52105  20.506   1.049   4.036 -0.1390 -0.2208  0.1437
 9194W        W52106  21.192   2.146   6.210 -0.2870 -0.0029  0.1474
 9195W        W52107  18.832   0.400   6.028 -0.0997 -0.2151  0.0844
 9196W        W52108  19.395   2.310   3.949  0.0236 -0.3066 -0.0174
 9197W        W52109  21.323   0.732   6.581 -0.0739  0.2013 -0.0546
 9198W        W52110  19.669   0.987   3.748 -0.1503  0.4906 -0.1955
 9199W        W52111  21.284   4.925   6.667 -0.1026  0.0791  0.0432
 9200W        W52112  19.795   1.048   5.751 -0.1604 -0.0972 -0.1696
 9201W        W52113  19.891   3.284   2.789  0.2382 -0.0005 -0.0314
 9202W        W52114  18.628   2.919   5.431  0.3158  0.1558 -0.2478
 9203W        W52115  20.802   1.362   6.361 -0.2695  0.0467  0.1366
 9204W        W52116  22.405   3.369   6.505 -0.1064 -0.3458  0.1226
 9205W        W52117  18.868   0.383   4.827 -0.0009 -0.0996 -0.3501
 9206W        W52118  21.861   3.281   3.401 -0.2337 -0.1723 -0.1242
 9207W        W52119  22.975   1.885   3.746  0.1933  0.2290 -0.1275
 9208W        W52120  20.512   3.580   2.292 -0.2151  0.0615 -0.2053
 9209W        W52121  19.743   2.487   4.903 -0.2758 -0.4921  0.1630
 9210W        W52122  21.150   3.105   5.880 -0.1038  0.0072  0.0625
 9211W        W52123  18.884   0.858   5.190 -0.0149  0.0897 -0.0417
 9212W        W52124  20.565   3.099   5.585  0.0073  0.0818 -0.1322
 9213W        W52125  22.025   2.864   5.707  0.0970 -0.1910 -0.0963
 9214W        W52126  20.440   1.238   3.550 -0.1344  0.1766  0.1139
 9215W        W52127  20.106   1.789   5.542 -0.1136  0.0802 -0.0975
 9216W        W52128  19.042   3.211   3.936  0.1960 -0.2445  0.3120
 9217W        W52129  22.614   1.643   3.005  0.3274 -0.1530 -0.0301
 9218W        W52130  22.691   1.016   6.272 -0.0357 -0.0125  0.0089
 9219W        W52131  20.842   3.656   3.118 -0.0531  0.1790 -0.0375
 9220W        W52132  21.959   0.818   5.405  0.1833  0.0407 -0.3398
 9221W        W52133  18.722   3.323   7.514  0.2187 -0.0615  0.1680
 9222W        W52134  18.816   2.913   7.854 -0.1013 -0.1773 -0.4051
 9223W        W52135  18.073   0.354   4.032  0.1244  0.0083  0.0895
 9224W        W52136  20.765   2.103   5.979 -0.4199 -0.3161  0.1146
 9225W        W52137  20.684   2.877   6.080 -0.1742 -0.0914  0.2612
 9226W        W52138  19.540   4.682   3.595 -0.0039  0.0915 -0.0161
 9227W        W52139  21.031   4.039   4.592 -0.2120 -0.0145  0.2119
 9228W        W52140  20.147   1.644   5.036  0.0046  0.1090 -0.0560
 9229W        W52141  21.735   3.634   5.238 -0.0471  0.0304  0.1623
 9230W        W52142  20.350   1.548   4.553 -0.1205 -0.0552  0.4050
 9231W        W52143  21.487  34.373   4.707  0.3259  0.1959 -0.0046
 9232W        W52144  20.507  34.322   6.256 -0.3571 -0.2390 -0.0975
 9233W        W52145  19.859   0.607   7.137 -0.1872 -0.1519 -0.2505
 9234W        W52146  18.365   1.312   3.689  0.4407 -0.3007 -0.0438
 9235W        W52147  18.202   2.041   3.916  0.2670 -0.1781 -0.2282
 9236W        W52148  18.968   1.241   5.519 -0.2322 -0.0153 -0.2157
 9237W        W52149  19.757  34.687   8.000  0.2053  0.0457  0.0490
 9238W        W52150  20.058   0.177   6.753  0.0061 -0.1052  0.1646
 9239W        W52151  18.997   2.967   5.933  0.0186  0.1076 -0.0408
 9240W        W52152  19.183   1.674   5.397  0.3457 -0.3336 -0.1430
 9241W        W52153  22.469   3.523   3.319  0.0581 -0.1258  0.0890
 9242W        W52154  19.262   0.103   6.004 -0.0686 -0.0493 -0.0359
 9243W        W52155  19.481   1.220   5.435 -0.0997 -0.4050  0.2059
 9244W        W52156  19.524   1.176   3.026  0.3746  0.0238  0.0322
 9245W        W52157  21.090   4.889   3.236 -0.0655  0.2972 -0.1206
 9246W        W52158  21.157   1.596   6.016  0.3174 -0.1897 -0.1629
 9247W        W52159  21.744   2.775   7.133 -0.0427 -0.0593  0.0519
 9248W        W52160  18.549   2.220   5.293  0.1145 -0.2910  0.0986
 9249W        W52161  19.883   0.593   6.557  0.0997 -0.2456 -0.0085
 9250W        W52162  20.883   0.674   7.063  0.1117  0.0833  0.2493
 9251W        W52163  18.516  34.656   4.180 -0.1157  0.0418  0.0761
 9252W        W52164  20.570   1.625   5.847 -0.2507  0.0041  0.4088
 9253W        W52165  21.042   4.040   5.637  0.2369 -0.3495 -0.1869
 9254W        W52166  20.811   3.743   1.253  0.2387  0.2466 -0.1622
 9255W        W52167  21.663   3.599   6.080 -0.0474  0.1065 -0.0692
 9256W        W52168  19.737   1.733   7.576 -0.1936  0.0517  0.3806
 9257W        W52169  18.841  33.686   6.746 -0.0476  0.1003 -0.0395
 9258W        W52170  20.249   2.443   4.813  0.1009  0.0158 -0.0635
 9259W        W52171  20.823   2.743   6.879  0.0829  0.0057 -0.2347
 9260W        W52172  22.219   4.393   5.065  0.1064  0.1715 -0.2820
 9261W        W52173  22.515   0.333   4.185  0.1162 -0.1345  0.1147
 9262W        W52174  20.581   3.353   4.507  0.0577 -0.1315 -0.2244
 9263W        W52175  20.132   1.002   6.792 -0.0361 -0.3169 -0.0164
 9264W        W52176  19.244   2.189   7.387  0.1306 -0.3111 -0.0803
 9265W        W52177  21.431   1.641   5.490  0.0801 -0.2456  0.0974
 9266W        W52178  19.007   0.006   5.109 -0.1156  0.0193  0.0467
 9267W        W52179  20.992  34.568   4.847  0.2995  0.0549 -0.0439
 9268W        W52180  19.592   3.432   4.060 -0.1908  0.0130 -0.0745
 9269W        W52181  19.268   1.416   6.466 -0.0350 -0.0597 -0.1731
 9270W        W52182  20.473   1.988   4.711 -0.1712 -0.2322 -0.1901
 9271W        W52183  20.390   0.578   6.925 -0.0746  0.2040  0.1476
 9272W        W52184  20.577   3.322   3.967  0.0401 -0.3730 -0.1888
 9273W        W52185  21.915   2.221   6.489  0.0513  0.3892  0.0946
 9274W        W52186  19.882   2.039   4.796 -0.1976  0.1713 -0.0001
 9275W        W52187  21.785   3.155   5.104 -0.1126  0.0678 -0.1551
 9276W        W52188  21.502   3.951   5.630 -0.0137 -0.1044 -0.0197
 9277W        W52189  21.651   3.764   7.470  0.3834 -0.1310 -0.1328
 9278W        W52190  18.970   3.571   6.929  0.1631 -0.1967 -0.2025
 9279W        W52191  21.908   1.833   4.641 -0.0792 -0.0491 -0.0143
 9280W        W52192  19.456   0.014   5.385 -0.2036  0.1900 -0.0996
 9281W        W52193  20.002   1.228   4.785 -0.2794  0.1231  0.0646
 9282W        W52194  19.116   2.301   4.333 -0.1554 -0.0674  0.1289
 9283W        W52195  21.322   0.088   5.739 -0.0706 -0.0485 -0.1800
 9284W        W52196  20.141   0.249   5.829 -0.1148  0.3506  0.0582
 9285W        W52197  19.513   1.303   4.614 -0.2609  0.2045  0.2934
 9286W        W52198  20.486   4.726   7.128  0.2207 -0.1179 -0.1250
 9287W        W52199  20.722   1.558   4.939  0.3783 -0.2385 -0.1556
 9288W        W52200  20.304   3.938  10.127  0.1126  0.1458 -0.2267
 9289W        W52201  19.798   1.254   8.650 -0.3284  0.1766 -0.1296
 9290W        W52202  20.847   0.486   6.531 -0.2298 -0.0200  0.0235
 9291W        W52203  21.828   2.079   8.417  0.4020  0.1903 -0.1741
 9292W        W52204  19.267  34.547   8.948 -0.1730  0.0323  0.0217
 9293W        W52205  21.339   4.173   8.300  0.0763  0.0343  0.2206
 9294W        W52206  21.076   1.673   9.851  0.0888  0.3084  0.0481
 9295W        W52207  20.420   0.253  10.409  0.3456 -0.4318  0.2357
 9296W        W52208  21.685   2.313   6.960  0.1365 -0.0280  0.1539
 9297W        W52209  21.224   0.954   9.140  0.3846  0.0590 -0.2739
 9298W        W52210  19.646  34.456   9.285 -0.5503 -0.0774  0.0005
 9299W        W52211  18.923  34.572  10.104 -0.0408  0.0289 -0.1593
 9300W        W52212  22.685  33.386   9.668  0.0556  0.1639  0.0033
 9301W        W52213  19.392   0.726   7.422 -0.0930  0.0653 -0.0617
 9302W        W52214  18.840   1.451   9.556 -0.0705 -0.0413  0.0556
 9303W        W52215  19.831   0.249   9.317 -0.0831  0.1683 -0.3514
 9304W        W52216  21.842   4.105   8.550 -0.0240  0.2951 -0.0543
 9305W        W52217  20.478   2.963   9.083 -0.1496  0.0015 -0.0689
 9306W        W52218  20.309   2.723   7.071  0.0606  0.1089 -0.0052
 9307W        W52219  18.857  34.393   7.712 -0.3811 -0.0055 -0.4109
 9308W        W52220  19.030   1.316  10.189 -0.0518 -0.3475 -0.1939
 9309W        W52221  18.436  34.588  10.285 -0.0524  0.1161 -0.1790
 9310W        W52222  22.932   0.066   9.121 -0.1433 -0.2269  0.2607
 9311W        W52223  20.827   1.342   8.800  0.4368  0.1606  0.0435
 9312W        W52224  19.902   3.005   7.872  0.0072 -0.1223  0.0857
 9313W        W52225  19.561   4.146   9.313 -0.0720 -0.3732  0.0207
 9314W        W52226  17.905   3.442   8.897  0.0471  0.2728 -0.1389
 9315W        W52227  18.283   3.822   9.002 -0.0423  0.0895 -0.1754
 9316W        W52228  18.939   4.072   8.098  0.2936 -0.0434 -0.1118
 9317W        W52229  22.596   3.335   7.984 -0.1599 -0.2877 -0.1673
 9318W        W52230  19.629   1.584   8.144 -0.2429 -0.0100  0.0647
 9319W        W52231  20.660   1.060  10.163 -0.0492  0.0447  0.1931
 9320W        W52232  20.812   1.695   7.818 -0.4344  0.0027  0.0287
 9321W        W52233  19.913   2.905   8.355 -0.3722  0.0530 -0.1278
 9322W        W52234  20.849   2.731   8.835  0.1151 -0.4002  0.0684
 9323W        W52235  18.024   2.188   9.636  0.0374 -0.0970  0.2689
 9324W        W52236  20.912   2.537   7.716 -0.0250  0.0178  0.0304
 9325W        W52237  21.862   1.125   8.497 -0.0694 -0.1193 -0.1729
 9326W        W52238  20.316   1.750   7.885  0.1708 -0.0779  0.1554
 9327W        W52239  21.652   0.257   7.906 -0.1435 -0.0464 -0.0323
 9328W        W52240  18.691  34.143   9.999  0.3851  0.3864  0.0687
 9329W        W52241  19.300   3.061   7.729  0.3872 -0.1228  0.0133
 9330W        W52242  19.883   1.592   9.555  0.1667 -0.1081  0.2189
 9331W        W52243  20.233   0.830   8.782 -0.1563  0.1991  0.1654
 9332W        W52244  22.189   2.286   9.251 -0.0876 -0.2368 -0.0147
 9333W        W52245  20.661   0.936   9.138  0.0453  0.1206  0.1037
 9334W        W52246  20.147  34.657   9.100  0.0768 -0.0657  0.0980
 9335W        W52247  20.260   4.395   7.411 -0.3155 -0.0572 -0.1087
 9336W        W52248  21.510   1.958   9.903 -0.2249 -0.0405  0.2200
 9337W        W52249  19.189   3.544   7.411 -0.2093  0.0728 -0.0104
 9338W        W52250  20.057   1.613   8.873  0.1352  0.0396  0.0131
 9339W        W52251  19.208   0.789   8.387 -0.1028 -0.1754  0.0256
 9340W        W52252  21.110  34.576   8.143  0.1680  0.3765  0.2264
 9341W        W52253  20.400   1.377   9.149 -0.0411  0.0725  0.2738
 9342W        W52254  20.389   2.882   9.690  0.0991 -0.4178 -0.0561
 9343W        W52255  21.843   2.749   6.618 -0.2816  0.2496 -0.0290
 9344W        W52256  22.864  34.273   9.288 -0.1526  0.0127 -0.0281
 9345W        W52257  22.312  34.252   9.299 -0.0575 -0.0761  0.0853
 9346W        W52258  20.304   1.830   6.795 -0.2293 -0.2147 -0.1428
 9347W        W52259  20.130   0.769   9.478  0.1502  0.2800 -0.0014
 9348W        W52260  24.410   3.504   9.991  0.0311  0.0363  0.0681
 9349W        W52261  21.535   2.497   7.546 -0.0631 -0.1523 -0.0420
 9350W        W52262  18.975   4.153   8.627 -0.2618 -0.2616 -0.4212
 9351W        W52263  19.432   3.453   6.718 -0.1238  0.1953  0.2384
 9352W        W52264  18.003   2.751   9.670  0.1156 -0.0894 -0.0239
 9353W        W52265  18.322   0.205   8.318  0.0323 -0.0454 -0.0198
 9354W        W52266  19.417   1.011   8.911  0.1539 -0.1191 -0.1376
 9355W        W52267  20.408   1.924   8.696 -0.0971  0.1447  0.1863
 9356W        W52268  22.176  34.219   7.722 -0.1404 -0.1103 -0.0142
 9357W        W52269  22.179  34.370   8.235  0.0661 -0.0463 -0.3221
 9358W        W52270  18.982   2.856   9.536 -0.0166  0.2274  0.1092
 9359W        W52271  22.500   3.147   8.989  0.1522 -0.0215 -0.7136
 9360W        W52272  22.183   1.344   9.652  0.3183  0.0860 -0.0168
 9361W        W52273  19.994   2.259   7.506 -0.2112 -0.1361  0.0186
 9362W        W52274  19.986   0.372   9.795  0.0702 -0.0439 -0.2034
 9363W        W52275  19.464   0.388   8.984 -0.0838 -0.1205 -0.0776
 9364W        W52276  18.622   0.795   9.424  0.0854 -0.1021 -0.0944
 9365W        W52277  18.892  33.426   7.717  0.0756 -0.1454 -0.1673
 9366W        W52278  20.605  34.662   9.229 -0.2997  0.0986  0.1305
 9367W        W52279  18.291  34.340   9.781  0.0974  0.0740 -0.0681
 9368W        W52280  19.623   2.598   9.255  0.0216 -0.5766  0.0624
 9369W        W52281  20.682   3.367   7.422  0.0122 -0.5272 -0.0607
 9370W        W52282  22.626   2.292   9.529  0.1342 -0.0297 -0.3199
 9371W        W52283  21.894   3.454   8.604  0.2660 -0.0202 -0.1874
 9372W        W52284  19.242   0.782  10.007  0.0343 -0.0223  0.0867
 9373W        W52285  19.223   0.029   8.115  0.1847 -0.1558  0.0207
 9374W        W52286  18.359   3.335   9.125  0.1738  0.0787 -0.0964
 9375W        W52287  21.274   2.123   8.979 -0.2755 -0.1080 -0.1436
 9376W        W52288  20.551   1.453   7.469 -0.0157 -0.1202 -0.0586
 9377W        W52289  20.393   2.388   9.512 -0.0396 -0.1673 -0.1873
 9378W        W52290  20.582   1.647   8.286 -0.0074  0.0000 -0.1221
 9379W        W52291  20.942   0.232   8.425 -0.0055 -0.2569  0.1351
 9380W        W52292  20.164  34.638   9.585  0.1687  0.2357 -0.0382
 9381W        W52293  18.965  34.177   6.713  0.1130  0.1109  0.0382
 9382W        W52294  21.825   3.042   8.843  0.2614  0.3223 -0.0868
 9383W        W52295  18.491   2.857   8.268 -0.1471  0.3271  0.4128
 9384W        W52296  19.574   2.095  10.097  0.1785 -0.1249 -0.3303
 9385W        W52297  19.530   2.354   6.522 -0.2202  0.1420 -0.2833
 9386W        W52298  20.830   0.478   9.245  0.2500 -0.3635  0.0629
 9387W        W52299  18.555   0.284   7.515 -0.0022  0.3816 -0.1321
 9388W        W52300  20.050  33.354   8.361 -0.0611 -0.1086 -0.0519
 9389W        W52301  20.840  34.194   6.860  0.0523  0.2404 -0.0596
 9390W        W52302  20.730   1.788   9.047 -0.0898  0.0030 -0.0643
 9391W        W52303  20.676   0.182   7.072  0.1528  0.3366  0.1298
 9392W        W52304  20.348   0.910   8.312 -0.2342 -0.1508 -0.2204
 9393W        W52305  21.486   3.824   7.906  0.2403  0.2183 -0.1293
 9394W        W52306  20.277   2.299   9.001  0.0468 -0.1012  0.0005
 9395W        W52307  20.679   0.488   7.578 -0.2994 -0.1037  0.1484
 9396W        W52308  21.368   2.612   9.209 -0.2020 -0.1165 -0.1876
 9397W        W52309  18.962   2.009   8.726 -0.2636  0.3405 -0.3267
 9398W        W52310  21.660   2.554   8.405  0.0129  0.2498  0.1204
 9399W        W52311  18.975   1.887  10.114  0.1084 -0.0447  0.0298
 9400W        W52312  19.798   0.277   7.551  0.0250 -0.3952  0.2623
 9401W        W52313  21.494  33.771   8.372 -0.0023  0.1956  0.3289
 9402W        W52314  17.973   2.912   8.167 -0.1894 -0.0346 -0.5716
 9403W        W52315  19.734   0.844  10.119  0.1086 -0.1263 -0.0739
 9404W        W52316  20.635  32.660   9.459 -0.0219 -0.0237 -0.5125
 9405W        W52317  21.216   0.897   7.335 -0.1467  0.0118  0.0591
 9406W        W52318  20.686   0.711   8.635  0.0103  0.1600  0.0936
 9407W        W52319  19.484   0.497   7.980 -0.0212  0.1656  0.1840
 9408W        W52320  17.540  33.081  10.309  0.3021 -0.2898 -0.0614
 9409W        W52321  20.788   3.317   9.628 -0.1359  0.1919 -0.0177
 9410W        W52322  21.946   1.484   8.187 -0.1008  0.0116  0.1282
 9411W        W52323  19.843  34.696   7.121 -0.0455  0.0149 -0.0096
 9412W        W52324  19.141   2.854   7.304 -0.0807  0.1918  0.1052
 9413W        W52325  18.372   2.202   8.982  0.2480 -0.0265  0.1686
 9414W        W52326  21.241   1.187   8.604  0.1862  0.1185  0.1673
 9415W        W52327  21.526   1.464   9.928 -0.5556 -0.0987 -0.3802
 9416W        W52328  19.295   2.802   6.295 -0.2440 -0.1509  0.1425
 9417W        W52329  21.292   0.086   9.993  0.1746  0.1425  0.0607
 9418W        W52330  18.414   4.279   9.520  0.0029 -0.2153 -0.4473
 9419W        W52331  22.375  34.691   9.083 -0.0080 -0.1542 -0.2442
 9420W        W52332  19.124   3.491   8.107  0.2332 -0.0909  0.0760
 9421W        W52333  19.117   0.136   7.651  0.0019  0.3491  0.1383
 9422W        W52334  19.334   1.292   8.428 -0.0827  0.1209  0.0819
 9423W        W52335  21.324  34.058   8.029 -0.0060 -0.1502  0.0050
 9424W        W52336  21.145   2.411   7.119 -0.2085 -0.0959  0.2700
 9425W        W52337  19.213  33.881   8.494  0.1771 -0.0762 -0.2053
 9426W        W52338  21.526  34.650   8.793  0.0505  0.2406 -0.0618
 9427W        W52339  18.961   2.577   9.954 -0.1985 -0.3816  0.2330
 9428W        W52340  21.200   0.837   7.876 -0.0682  0.0954 -0.1631
 9429W        W52341  17.619   0.467   7.522 -0.2112  0.1382 -0.0998
 9430W        W52342  20.413  33.852  10.273 -0.0086  0.2332 -0.1326
 9431W        W52343  19.954   0.518   8.171 -0.1035 -0.5418 -0.4123
 9432W        W52344  19.400   2.037   7.989 -0.1692  0.1045 -0.0254
 9433W        W52345  19.869   0.175  10.349 -0.1969 -0.1949  0.0952
 9434W        W52346  19.556   2.671   8.154 -0.2891  0.0193 -0.1938
 9435W        W52347  18.524   2.844   9.307 -0.0918  0.0681  0.3097
 9436W        W52348  21.109   1.196   9.915  0.1295 -0.1587  0.3274
 9437W        W52349  21.531   0.537   9.219  0.1923 -0.0527 -0.4715
 9438W        W52350  20.277   0.252   7.830 -0.2369 -0.2433  0.2714
 9439W        W52351  20.822   1.988  10.267  0.3413 -0.1782 -0.0565
 9440W        W52352  21.313   4.336   9.748 -0.2680  0.0168 -0.0612
 9441W        W52353  19.970   1.200   9.144  0.2381  0.1819 -0.1100
 9442W        W52354  18.244   0.118   9.839 -0.3111 -0.0793 -0.1867
 9443W        W52355  21.202   2.919   7.524 -0.1532 -0.0784  0.0787
 9444W        W52356  19.718   1.561   7.128  0.2417  0.2099  0.1216
 9445W        W52357  18.514   3.737   9.449  0.7533 -0.3123 -0.0644
 9446W        W52358  21.231   2.039   7.617 -0.0263  0.0504 -0.1169
 9447W        W52359  21.709  34.463   9.740 -0.0397 -0.2390 -0.1740
 9448W        W52360  15.996   1.663   9.496  0.0749 -0.0981  0.1297
 9449W        W52361  19.665   3.146   9.036 -0.1151  0.3088 -0.2648
 9450W        W52362  18.825   3.343   9.257  0.1477 -0.1478  0.0240
 9451W        W52363  21.428  34.185   7.248  0.1911 -0.1473 -0.0632
 9452W        W52364  20.092   4.067   6.618  0.0669  0.0452 -0.0120
 9453W        W52365  20.496   1.276   7.959  0.1622 -0.1351 -0.2895
 9454W        W52366  21.808   1.000   7.379 -0.0616 -0.0117  0.2631
 9455W        W52367  18.258   1.246   9.995 -0.3176  0.1211 -0.0283
 9456W        W52368  20.739   1.039   9.661  0.1308 -0.1299  0.1055
 9457W        W52369  20.249  34.519   8.048 -0.1073  0.0106  0.0451
 9458W        W52370  18.987  33.864   7.954 -0.2434 -0.3084  0.0808
 9459W        W52371  19.255   3.344   8.798 -0.0290 -0.1869 -0.3770
 9460W        W52372  20.131   1.907   9.881  0.1152  0.1303 -0.2210
 9461W        W52373  20.942   2.142   8.056  0.1297  0.1886  0.1864
 9462W        W52374  20.775  34.161  10.068  0.0360 -0.1013  0.0236
 9463W        W52375  19.300   2.415   8.857 -0.0742  0.2644 -0.0137
 9464W        W52376  20.324   0.384   9.198 -0.0795 -0.1658  0.0156
 9465W        W52377  20.516   2.215   7.683  0.0281  0.1369 -0.0216
 9466W        W52378  18.360   1.830   9.352 -0.0873 -0.0957  0.0130
 9467W        W52379  21.113   0.709   9.598  0.3530 -0.4250 -0.2484
 9468W        W52380  20.716  33.854   9.691 -0.1138  0.0989 -0.1044
 9469W        W52381  21.174   4.455   8.674 -0.0200 -0.4307 -0.0383
 9470W        W52382  21.473   0.255   8.396 -0.2291 -0.0401  0.0592
 9471W        W52383  22.465  34.224   9.832  0.0832 -0.1330 -0.1035
 9472W        W52384  20.963   1.860   8.546  0.0608  0.3240  0.1528
 9473W        W52385  21.008   1.348   7.211  0.0347 -0.1981  0.0993
 9474W        W52386  18.741   1.621   9.107  0.2863 -0.1576 -0.0786
 9475W        W52387  19.511  34.482   7.406  0.0604  0.0382 -0.1435
 9476W        W52388  19.203   3.949   7.673 -0.1248  0.3186  0.3127
 9477W        W52389  21.683   1.850   8.978  0.0234  0.0139 -0.0834
 9478W        W52390  20.422   0.319   8.319  0.3677 -0.2073 -0.0035
 9479W        W52391  18.868   1.117   9.115 -0.1040  0.2390 -0.4236
 9480W        W52392  18.164  34.693   7.823  0.2006 -0.0518 -0.0382
 9481W        W52393  20.028   0.323   8.757 -0.0297 -0.2356 -0.0123
 9482W        W52394  21.767   1.500   9.375  0.1770  0.2053  0.2160
 9483W        W52395  19.540  33.802   8.126 -0.0110  0.1679 -0.0859
 9484W        W52396  19.545   3.181   8.135  0.1257  0.0120  0.1119
 9485W        W52397  20.659  33.931   8.961  0.2617 -0.1565 -0.0118
 9486W        W52398  20.006   3.954   9.543  0.2054  0.2779 -0.3698
 9487W        W52399  19.590   1.726   8.693  0.2370 -0.1322 -0.2066
 9488W        W52400  20.273   0.052  10.021 -0.1619  0.1839 -0.4064
 9489W        W52401  20.366  34.383  10.430 -0.3978 -0.1024 -0.5190
 9490W        W52402  19.738   1.103   9.569 -0.1331 -0.3241  0.1325
 9491W        W52403  20.123   1.153  10.541  0.1649  0.0089 -0.1240
 9492W        W52404  21.676   0.713   8.228  0.0283  0.0597  0.0877
 9493W        W52405  18.876   2.805   8.642  0.0102  0.1170  0.3932
 9494W        W52406  20.525   1.552   9.808  0.1908  0.1637 -0.0624
 9495W        W52407  19.006  34.240   8.251  0.2640  0.0456 -0.0360
 9496W        W52408  20.071   1.804   8.370 -0.1783  0.2153  0.1006
 9497W        W52409  19.323   1.937   9.113 -0.0561 -0.2149  0.1945
 9498W        W52410  18.455   2.664   8.844  0.1201  0.0024 -0.0312
 9499W        W52411  21.565   1.542   7.322 -0.1817  0.0028  0.3925
 9500W        W52412  21.566   4.238   7.543  0.2100  0.2739 -0.0231
 9501W        W52413  19.503   5.116   9.194 -0.0448 -0.2121 -0.0874
 9502W        W52414  20.028   1.314   8.147  0.3270  0.0773 -0.3173
 9503W        W52415  18.894   3.675   8.902  0.0409  0.0603  0.0493
 9504W        W52416  19.594   0.252   8.418 -0.0362 -0.2806 -0.1058
 9505W        W52417  20.442   4.132   6.939  0.0298  0.2407 -0.1878
 9506W        W52418  19.097   3.762   9.451  0.2613  0.2009  0.1890
 9507W        W52419  20.249   0.324   7.310  0.1253  0.0213 -0.0238
 9508W        W52420  23.531   0.479   9.781 -0.0897 -0.1823 -0.2222
 9509W        W52421  21.881   0.303   7.407  0.1482  0.3708  0.6487
 9510W        W52422  16.645   2.524  10.145 -0.0802  0.1739 -0.0750
 9511W        W52423  19.989  34.152   8.878 -0.1915  0.0300 -0.0127
 9512W        W52424  20.544   4.002   7.411 -0.1408 -0.3166 -0.0823
 9513W        W52425  18.077  34.204   8.321 -0.2445  0.2977 -0.0568
 9514W        W52426  19.241   0.076   9.504 -0.1174 -0.0241  0.0832
 9515W        W52427  23.004  33.429   8.728 -0.1895  0.1252  0.3946
 9516W        W52428  20.375   2.303   6.552 -0.2534 -0.0009 -0.3749
 9517W        W52429  21.586   1.286   8.950  0.1132  0.0611  0.0855
 9518W        W52430  19.962   3.215   6.909  0.1143 -0.4496 -0.2098
 9519W        W52431  19.754   3.019   9.563  0.2064  0.0317  0.2602
 9520W        W52432  20.317   2.709   8.598  0.2032 -0.0698  0.0175
 9521W        W52433  17.634   0.226   8.595 -0.4259 -0.0277  0.3580
 9522W        W52434  23.433   1.088   8.365 -0.3465  0.1918  0.0289
 9523W        W52435  18.123   0.505   8.681 -0.2950 -0.3268  0.0919
 9524W        W52436  19.326   2.228   9.606  0.0519  0.2958  0.0168
 9525W        W52437  20.835   2.274   9.093  0.0291  0.0129  0.0779
 9526W        W52438  19.667  34.620  10.788  0.0333  0.1999  0.1756
 9527W        W52439  16.039  33.530  10.349  0.0531 -0.1354  0.0274
 9528W        W52440  20.760   1.858   7.299 -0.0843  0.0179 -0.0237
 9529W        W52441  20.781   2.163   6.835  0.0518 -0.0184  0.2597
 9530W        W52442  19.749  34.610   8.801 -0.3199 -0.1731 -0.0624
 9531W        W52443  20.593   0.187   8.770  0.1179 -0.1052  0.0303
 9532W        W52444  19.180   1.453   8.854 -0.0125  0.0030  0.0611
 9533W        W52445  20.094   3.178   8.701  0.2829 -0.0165 -0.0683
 9534W        W52446  18.593   0.289   8.824  0.1824  0.1090  0.1081
 9535W        W52447  22.947   2.512   8.663 -0.0951 -0.0542 -0.0499
 9536W        W52448  21.855   0.944   9.184  0.2370  0.0648 -0.1055
 9537W        W52449  19.105   4.769   7.012 -0.2206  0.4702 -0.3269
 9538W        W52450  19.778   2.142   8.917 -0.1513  0.2081  0.1251
 9539W        W52451  21.353   2.425   7.987  0.0760 -0.2345  0.1414
 9540W        W52452  17.571   1.677   8.831  0.1044 -0.2335 -0.1172
 9541W        W52453  16.992   3.246   9.887 -0.0206  0.3064  0.2789
 9542W        W52454  21.720   4.557   9.414  0.0867 -0.2222  0.1519
 9543W        W52455  20.524   0.282   9.637 -0.0059 -0.0201 -0.3472
 9544W        W52456  19.494   1.261  10.435 -0.2894  0.4288  0.1188
 9545W        W52457  18.814   1.921   7.920  0.0489  0.2036 -0.0899
 9546W        W52458  23.213   0.545   9.231  0.2240 -0.0466  0.1595
 9547W        W52459  20.419   3.449   6.508  0.4648 -0.0214  0.0031
 9548W        W52460  20.004   2.454   9.841  0.1128 -0.2560 -0.1323
 9549W        W52461  20.209   0.887   7.340  0.0683  0.3863 -0.0428
 9550W        W52462  19.949   1.457  10.150  0.2092 -0.3521 -0.1519
 9551W        W52463  18.850   4.019   7.201 -0.3564  0.1919  0.0307
 9552W        W52464  20.859   2.710   9.368  0.4628  0.5018  0.5737
 9553W        W52465  21.300   3.221   7.896  0.0538  0.1687  0.1156
 9554W        W52466  22.544   1.749   8.891  0.1078 -0.0054 -0.0306
 9555W        W52467  20.637  34.516   8.376 -0.1281  0.1473 -0.2024
 9556W        W52468  21.993   0.226   8.289  0.0257 -0.1369  0.0373
 9557W        W52469  21.150   0.314   7.500  0.1426 -0.2968 -0.0883
 9558W        W52470  19.610   1.545   9.154  0.0395  0.0543  0.1156
 9559W        W52471  19.210   1.781   8.363  0.4696  0.1963  0.1027
 9560W        W52472  19.652   0.709   8.573  0.4447  0.2305  0.0886
 9561W        W52473  19.074   0.255   8.578  0.0175 -0.2842 -0.1234
 9562W        W52474  18.865   1.115   8.591 -0.2769 -0.1895  0.1152
 9563W        W52475  18.477   0.803   8.931 -0.0101 -0.2242 -0.3251
 9564W        W52476  21.996   1.903   7.967 -0.3588  0.1298 -0.0074
 9565W        W52477  19.331   1.729   9.561  0.0184  0.2084  0.1130
 9566W        W52478  19.849  33.801   8.548  0.0517  0.1286 -0.1653
 9567W        W52479  20.500   3.164   6.983  0.1969  0.1892 -0.0285
 9568W        W52480  22.249   2.683   9.714  0.0782  0.2336 -0.0062
 9569W        W52481  19.472   0.618  10.501 -0.1603  0.4470  0.0164
 9570W        W52482  18.394   0.929   7.577 -0.2708 -0.0343  0.2765
 9571W        W52483  18.174  34.029   7.217  0.0372  0.2755  0.0535
 9572W        W52484  20.822   1.387  10.584  0.1146  0.0112 -0.0712
 9573W        W52485  20.749   2.840   7.343  0.0411 -0.0752 -0.2576
 9574W        W52486  21.375   4.379   6.611  0.0329 -0.3070 -0.3296
 9575W        W52487  18.190  33.247  10.149  0.0567  0.0837  0.0107
 9576W        W52488  20.727   1.016   7.528 -0.0151  0.1664 -0.3687
 9577W        W52489  21.833   2.357   7.955  0.3277 -0.0706  0.1362
 9578W        W52490  22.392   0.393   9.517 -0.0605  0.2290  0.1541
 9579W        W52491  21.419   1.179   9.523  0.1014  0.0221 -0.2014
 9580W        W52492  20.812   0.096  10.088  0.0782  0.2011 -0.0707
 9581W        W52493  18.402   0.307   9.335 -0.0926  0.0709  0.1005
 9582W        W52494  20.724   0.101   7.947  0.2136  0.1592 -0.1776
 9583W        W52495  21.230   2.388   8.538  0.1183  0.0992 -0.4596
 9584W        W52496  19.291  34.247  10.216 -0.0562  0.2269 -0.2171
 9585W        W52497  20.882   1.111   8.225 -0.0253 -0.4065 -0.1087
 9586W        W52498  19.793   2.104   9.544  0.1641  0.1302  0.1027
 9587W        W52499  19.848   0.743   9.063 -0.2128 -0.0083  0.0453
 9588W        W52500  20.774   0.634   8.107 -0.5830  0.1336 -0.0750
 9589W        W52501  21.713   0.752   9.657 -0.1974  0.0017  0.1423
 9590W        W52502  20.448   2.153   8.161 -0.0109  0.3108  0.1043
 9591W        W52503  22.281   1.307   9.171 -0.1171  0.0166 -0.3434
 9592W        W52504  17.052  33.768  10.245  0.0283 -0.1120 -0.3567
 9593W        W52505  20.331   1.795  10.328 -0.0772  0.0157  0.2152
 9594W        W52506  22.195   2.410   8.278  0.3873 -0.1874 -0.0173
 9595W        W52507  23.834  33.466   9.852 -0.1845 -0.2872  0.0499
 9596W        W52508  18.391  33.832  10.352  0.1937 -0.0353 -0.4620
 9597W        W52509  21.411  34.326   8.433  0.1772 -0.0035  0.2383
 9598W        W52510  20.628   3.394   8.789  0.3959 -0.0657  0.1503
 9599W        W52511  22.291   1.956   9.699  0.2834  0.1539 -0.0157
 9600W        W52512  18.956   6.301   2.480 -0.0586 -0.0584 -0.0514
 9601W        W52513  19.439   4.882   0.788  0.5386 -0.1121 -0.0256
 9602W        W52514  20.286   4.346   1.125  0.0343 -0.3946 -0.1134
 9603W        W52515  23.305   4.528   0.304 -0.0816  0.1927 -0.1505
 9604W        W52516  19.075   5.312   1.694  0.0755  0.1919  0.0052
 9605W        W52517  19.891   6.032   0.359 -0.0811 -0.1394  0.1320
 9606W        W52518  19.447   4.513   2.178 -0.1136  0.0209  0.0689
 9607W        W52519  19.491   8.841   1.693  0.3123  0.0500  0.1071
 9608W        W52520  21.412   7.668   2.911  0.0797  0.2538  0.0814
 9609W        W52521  20.364   5.613   1.255  0.1175 -0.2218 -0.0014
 9610W        W52522  18.582   5.146   2.535  0.2746  0.2150 -0.2858
 9611W        W52523  18.518   8.452   2.624 -0.1518  0.3679 -0.0704
 9612W        W52524  20.019   4.986  31.467 -0.0183  0.0316 -0.1649
 9613W        W52525  17.904   4.407   2.831 -0.0863 -0.0191 -0.4322
 9614W        W52526  20.601   4.990   3.140 -0.2820 -0.4388 -0.3192
 9615W        W52527  18.092   6.025  31.591 -0.0042 -0.2186  0.1069
 9616W        W52528  20.054   5.416   2.609  0.0810 -0.1719  0.1541
 9617W        W52529  20.430   4.768   1.371 -0.2897  0.0353  0.0821
 9618W        W52530  19.083   7.007   0.560 -0.0349  0.3073  0.1692
 9619W        W52531  19.552   5.321   2.535  0.2189  0.1926 -0.2034
 9620W        W52532  20.197   3.922   2.490  0.0047 -0.0012  0.1321
 9621W        W52533  20.137   5.365  29.828 -0.2138 -0.2184  0.1517
 9622W        W52534  20.338   4.825  31.874  0.1678 -0.1331  0.1871
 9623W        W52535  18.728   5.030   1.438  0.0299  0.0965  0.0749
 9624W        W52536  19.010   5.452   3.613 -0.1959 -0.0328  0.1982
 9625W        W52537  20.962   4.859   1.195 -0.0338  0.2186 -0.0453
 9626W        W52538  20.339   4.472   2.352  0.3265 -0.2778  0.1565
 9627W        W52539  18.248   7.755   0.019  0.4549 -0.2144  0.1505
 9628W        W52540  19.499   5.716   0.712 -0.2182  0.0372  0.2265
 9629W        W52541  20.776   5.008   2.418 -0.1560 -0.0043 -0.1935
 9630W        W52542  18.153   6.901   0.315  0.0376  0.1971 -0.1930
 9631W        W52543  18.004   6.778   2.304 -0.0995 -0.1438 -0.2074
 9632W        W52544  18.305   5.796   0.601  0.0174  0.1460 -0.1847
 9633W        W52545  21.444   5.119   0.788  0.0201 -0.0497 -0.0142
 9634W        W52546  19.576   7.491   3.875  0.2473  0.2913 -0.2104
 9635W        W52547  18.891   7.672   3.096  0.0088 -0.0706 -0.2576
 9636W        W52548  19.608   5.214  31.756 -0.0971 -0.0559  0.2786
 9637W        W52549  19.037   8.883   4.287  0.0625  0.1341  0.1765
 9638W        W52550  17.801   7.105   2.718 -0.2352 -0.0335 -0.1015
 9639W        W52551  19.929   6.386   3.189 -0.0807 -0.2661  0.1202
 9640W        W52552  20.285   6.331   2.758  0.1213 -0.0413 -0.0850
 9641W        W52553  20.541   4.872  31.391  0.3097  0.1790  0.1307
 9642W        W52554  19.625   3.835   0.791  0.0294 -0.0049 -0.3175
 9643W        W52555  20.278   6.264   4.696 -0.4754  0.2866  0.1189
 9644W        W52556  18.638   7.887   0.661 -0.0961  0.1534 -0.0115
 9645W        W52557  21.556   5.043   3.147  0.1369  0.2007  0.0340
 9646W        W52558  18.278   5.614  31.278  0.0512 -0.4616  0.2166
 9647W        W52559  21.109   5.372   0.012 -0.1389  0.1088 -0.0399
 9648W        W52560  21.249   5.463   0.516 -0.2443 -0.0147  0.1080
 9649W        W52561  21.689   4.255  30.793  0.0208 -0.1151  0.0782
 9650W        W52562  20.534   4.292  31.836  0.2937  0.1604 -0.0867
 9651W        W52563  20.244   7.639   2.810 -0.1566 -0.1972 -0.8195
 9652W        W52564  19.777   4.373   0.883 -0.0666  0.3198  0.0987
 9653W        W52565  21.997   5.949   2.461 -0.2289 -0.1031 -0.0205
 9654W        W52566  19.650   5.790   1.245  0.1422  0.2563  0.2825
 9655W        W52567  20.175   5.853   2.406 -0.4703  0.1791 -0.2053
 9656W        W52568  17.916   6.193   2.427  0.1061  0.0243  0.2998
 9657W        W52569  18.871   6.467   0.934  0.0837 -0.3258  0.0976
 9658W        W52570  21.247   7.544  31.635  0.1082  0.0422 -0.1341
 9659W        W52571  20.310   6.337   0.491 -0.1341 -0.3613 -0.0682
 9660W        W52572  18.815   6.225   0.100  0.2778 -0.3816  0.4684
 9661W        W52573  19.129   5.397   0.155 -0.2041 -0.0515  0.1882
 9662W        W52574  18.432   5.982   2.131  0.0475  0.3794  0.0130
 9663W        W52575  19.282   5.210   3.086  0.0920  0.1215 -0.0375
 9664W        W52576  18.845   3.114   1.362  0.4608 -0.4132 -0.0600
 9665W        W52577  21.187   6.320   2.622  0.0154 -0.0326  0.0311
 9666W        W52578  18.416   6.477   2.250 -0.1077 -0.1676  0.0928
 9667W        W52579  20.986   4.976   0.652 -0.0871  0.0775  0.1780
 9668W        W52580  19.352   6.395   1.756 -0.1358 -0.4997  0.0940
 9669W        W52581  21.412   6.536   2.222 -0.0586  0.1615  0.0694
 9670W        W52582  22.725   6.168  30.806 -0.0417 -0.2804  0.0566
 9671W        W52583  20.576   3.637   0.389 -0.1330  0.1955 -0.0827
 9672W        W52584  20.963   3.665   1.715 -0.0007  0.0634  0.3056
 9673W        W52585  19.271   3.459   0.786 -0.2600 -0.1944  0.3775
 9674W        W52586  19.013   4.665   1.093 -0.0438  0.2937 -0.1691
 9675W        W52587  22.132   5.789   3.020  0.1639  0.1364  0.1372
 9676W        W52588  20.258   5.493  30.899  0.3658 -0.0271  0.0603
 9677W        W52589  19.076   7.190   2.259 -0.1345 -0.0838 -0.3859
 9678W        W52590  19.721   5.321   2.031 -0.0513 -0.0634  0.2309
 9679W        W52591  18.633   7.989   2.797 -0.3281 -0.2008  0.0812
 9680W        W52592  19.447   5.794  30.990 -0.1173  0.2065  0.0445
 9681W        W52593  17.669   6.428   1.417  0.0165 -0.0703 -0.1984
 9682W        W52594  18.095   5.422  31.728  0.2438  0.1441  0.1829
 9683W        W52595  19.824   4.444   2.542  0.0925 -0.2163 -0.0640
 9684W        W52596  19.478   6.587   0.716  0.0087  0.1514  0.2897
 9685W        W52597  21.672   3.079  31.342  0.2566 -0.0505 -0.1876
 9686W        W52598  18.389   4.551   3.446 -0.2120 -0.2298  0.0824
 9687W        W52599  21.178   4.269   1.947  0.0982  0.1535 -0.1151
 9688W        W52600  20.576   6.247  31.973 -0.0734 -0.0664 -0.0666
 9689W        W52601  21.867   6.630   0.337  0.0707  0.1183  0.2462
 9690W        W52602  20.668   4.681   0.226 -0.1357 -0.0507 -0.0885
 9691W        W52603  19.130   5.505   1.241  0.3208  0.1362  0.2007
 9692W        W52604  18.870   5.445   3.080  0.1287  0.0570 -0.2748
 9693W        W52605  18.251   5.128   1.272  0.2759 -0.0584  0.0966
 9694W        W52606  19.364   4.274   2.676 -0.1197 -0.0332  0.3968
 9695W        W52607  18.391   3.855   2.070  0.0101  0.0685 -0.0136
 9696W        W52608  20.617   6.868   2.263  0.2273 -0.1414 -0.0092
 9697W        W52609  19.083   4.439   0.104  0.3550 -0.0879 -0.1241
 9698W        W52610  20.779   4.086   0.316 -0.1990  0.2762 -0.1233
 9699W        W52611  18.890   5.128   0.969 -0.1528  0.2170  0.3262
 9700W        W52612  18.754   5.742   1.739 -0.0169 -0.2557  0.1204
 9701W        W52613  20.576   3.789   3.916  0.3437 -0.1491 -0.2843
 9702W        W52614  19.589   7.353   0.828 -0.0183  0.3646 -0.0155
 9703W        W52615  20.192   6.572   2.351  0.4413  0.2247  0.0181
 9704W        W52616  20.017   8.332   2.257  0.0251  0.1525 -0.1840
 9705W        W52617  18.895   4.100   2.805 -0.1252  0.1224 -0.4536
 9706W        W52618  19.185   5.464  30.141  0.2536  0.2258 -0.1508
 9707W        W52619  18.664   8.346   1.778  0.3676  0.4694  0.0618
 9708W        W52620  20.225   6.189   1.564 -0.2538 -0.1509  0.3341
 9709W        W52621  21.600   4.179   0.710 -0.0624 -0.1537  0.0263
 9710W        W52622  20.347   6.708   1.280  0.1474 -0.0536  0.1159
 9711W        W52623  19.063   6.045   1.994 -0.2409 -0.3021 -0.0811
 9712W        W52624  17.500   6.126   3.308 -0.2607  0.0827  0.2977
 9713W        W52625  21.173   5.119   1.920 -0.0628 -0.0605 -0.3841
 9714W        W52626  21.384   5.354   2.789  0.3261 -0.0989  0.0372
 9715W        W52627  20.686   6.353   1.219  0.2752  0.0642 -0.1225
 9716W        W52628  19.204   4.290  31.482  0.2016 -0.1770  0.3940
 9717W        W52629  19.470   5.707   1.737 -0.0458 -0.0629 -0.0512
 9718W        W52630  19.042   6.406  30.502 -0.2549  0.0748  0.1173
 9719W        W52631  18.698   5.686   0.301 -0.0270  0.1615  0.0508
 9720W        W52632  19.688   7.413   1.282 -0.1139  0.3569  0.1127
 9721W        W52633  20.175   4.081   0.701  0.0281  0.1912  0.0260
 9722W        W52634  18.940   5.738   4.005  0.2645 -0.0855  0.1536
 9723W        W52635  20.721   6.008   3.551  0.0134 -0.1809 -0.2418
 9724W        W52636  19.271   5.446  30.675  0.1979  0.5163 -0.3453
 9725W        W52637  18.185   6.950   3.026 -0.0031  0.2443  0.1578
 9726W        W52638  21.600   3.864   0.203 -0.1067  0.1139 -0.0539
 9727W        W52639  19.964   3.410  30.759  0.1725  0.2007  0.1118
 9728W        W52640  17.928   6.161   2.930  0.2247  0.0115  0.0578
 9729W        W52641  21.694   5.852  31.564  0.1603 -0.1684  0.0643
 9730W        W52642  21.113   3.344  31.612  0.0471  0.0749  0.1223
 9731W        W52643  20.942   5.805   0.246  0.1765 -0.0473  0.0813
 9732W        W52644  18.450   5.451   3.467  0.1163 -0.0357  0.1593
 9733W        W52645  19.575   5.727  31.624  0.0075  0.1290  0.1153
 9734W        W52646  20.471   6.658   1.804 -0.1255  0.1429 -0.1294
 9735W        W52647  19.576   5.704   0.201  0.1426 -0.1374 -0.1058
 9736W        W52648  20.280   7.316   1.393  0.0848 -0.6780  0.1411
 9737W        W52649  18.940   6.643   2.041  0.1222  0.0584  0.1425
 9738W        W52650  20.940   6.994   3.526  0.2450 -0.2904 -0.1484
 9739W        W52651  20.728   5.275   1.359 -0.3220 -0.2250 -0.0874
 9740W        W52652  19.296   2.944   1.067  0.0495 -0.1378 -0.1035
 9741W        W52653  21.173   5.808  31.766  0.1977  0.2697  0.0573
 9742W        W52654  20.710   2.783   1.384 -0.3439 -0.1460  0.1447
 9743W        W52655  17.968   7.926   1.134  0.4177 -0.0861 -0.3098
 9744W        W52656  20.690   4.126   1.881  0.1342 -0.2323  0.0364
 9745W        W52657  21.184   4.378   1.094  0.0809  0.0130 -0.4095
 9746W        W52658  19.295   3.250   1.544  0.0968 -0.0102  0.1535
 9747W        W52659  20.982   7.231   1.968  0.0665 -0.2639  0.0216
 9748W        W52660  22.640   5.193   0.388 -0.1563  0.0929  0.2178
 9749W        W52661  21.145   5.761   2.784 -0.1136 -0.2001  0.1008
 9750W        W52662  18.682   4.245   0.409 -0.4894  0.2949  0.2271
 9751W        W52663  19.921   4.571   2.047 -0.3031 -0.2203 -0.0273
 9752W        W52664  19.783   5.426   3.005  0.3791 -0.1521  0.4342
 9753W        W52665  17.473   8.365   3.010 -0.1411  0.2080 -0.2162
 9754W        W52666  19.167   6.987   1.057  0.0133 -0.1914  0.0970
 9755W        W52667  21.821   6.151   1.306  0.2127  0.2412 -0.1085
 9756W        W52668  20.765   4.636   3.500  0.2786  0.1469  0.0110
 9757W        W52669  19.855   4.658  31.948 -0.1650  0.0085  0.2363
 9758W        W52670  18.962   7.962   1.065  0.0278 -0.1484 -0.0234
 9759W        W52671  19.857   4.731   0.467  0.2699  0.2936  0.0813
 9760W        W52672  19.491   4.225  31.912  0.1874  0.0372  0.1221
 9761W        W52673  19.063   5.928   0.472  0.0263 -0.4150  0.1285
 9762W        W52674  21.127   5.673   1.793 -0.0687  0.1189  0.0175
 9763W        W52675  19.156   7.254  31.430 -0.0654  0.0635 -0.1319
 9764W        W52676  21.678   4.910   1.738  0.2232  0.0992 -0.1376
 9765W        W52677  18.069   6.093   1.141 -0.1972  0.3701 -0.2078
 9766W        W52678  19.650   3.163   0.662 -0.2728  0.0451 -0.1850
 9767W        W52679  18.290   5.137   0.231 -0.0889  0.0167  0.1894
 9768W        W52680  21.117   4.602   1.593  0.0526 -0.2898 -0.1097
 9769W        W52681  21.008   5.372   0.965 -0.0772 -0.0910 -0.3829
 9770W        W52682  17.487   5.139   1.693  0.0857  0.1990 -0.3789
 9771W        W52683  19.438   4.444   1.199  0.2869  0.0135 -0.1089
 9772W        W52684  18.090   7.671   2.218  0.2463  0.1002 -0.1569
 9773W        W52685  21.772   5.705   1.562 -0.0081  0.0367  0.1785
 9774W        W52686  20.477   4.525  30.968 -0.0975 -0.1712  0.2128
 9775W        W52687  20.864   8.150   1.851  0.1289  0.1405  0.0838
 9776W        W52688  19.212   6.713   2.621  0.1435 -0.1408 -0.1779
 9777W        W52689  18.023   5.630   0.217  0.0345 -0.0380 -0.0478
 9778W        W52690  21.337   4.030   3.230 -0.0335  0.1322 -0.2631
 9779W        W52691  19.368   4.791   1.705  0.5173 -0.1311  0.1498
 9780W        W52692  18.836   8.478   0.953  0.0573  0.1229 -0.1515
 9781W        W52693  19.796   5.871   2.754 -0.0414  0.1763  0.3506
 9782W        W52694  18.270   3.862   0.659 -0.2826 -0.2271  0.0387
 9783W        W52695  17.757   6.398   0.901  0.0183 -0.0935 -0.3822
 9784W        W52696  17.796   4.656   3.667  0.3936 -0.0854 -0.1442
 9785W        W52697  21.157   5.432   2.359 -0.1499 -0.2589 -0.2197
 9786W        W52698  20.337   5.263   1.645  0.2150 -0.3250 -0.2803
 9787W        W52699  19.338   4.378   0.626 -0.1969 -0.3627  0.2008
 9788W        W52700  20.042   5.201   1.238  0.2245  0.4018  0.3657
 9789W        W52701  22.013   6.384   1.742 -0.0231  0.1001  0.4625
 9790W        W52702  20.668   5.484   2.583  0.1890  0.0167 -0.0333
 9791W        W52703  18.373   6.116   2.720 -0.3083 -0.0122  0.0640
 9792W        W52704  20.677   4.104   2.354 -0.0435  0.1155 -0.1621
 9793W        W52705  22.697   6.578  31.657  0.1835  0.0473 -0.0267
 9794W        W52706  20.645   6.705   2.756  0.0706  0.0572 -0.1626
 9795W        W52707  18.784   6.201  31.101  0.2405  0.1610 -0.3331
 9796W        W52708  18.765   5.414   2.138 -0.0961  0.5149 -0.2605
 9797W        W52709  20.033   5.205   0.684  0.3676 -0.0547  0.0361
 9798W        W52710  19.010   4.445   2.011  0.2124  0.1569 -0.1198
 9799W        W52711  18.931   6.585   1.500 -0.1369 -0.0587 -0.2582
 9800W        W52712  20.054   5.476  31.682 -0.0705  0.2433 -0.1109
 9801W        W52713  17.672   6.578   2.684  0.1099 -0.1936 -0.2127
 9802W        W52714  21.824   2.223   1.385  0.0684  0.2957  0.0889
 9803W        W52715  21.875   4.668   0.755  0.0395 -0.0211 -0.2239
 9804W        W52716  20.674   3.664  31.840 -0.1606  0.0205 -0.0232
 9805W        W52717  22.202   4.370   3.663 -0.1463  0.0146 -0.0343
 9806W        W52718  21.164   4.886   0.130 -0.1568  0.0766 -0.1307
 9807W        W52719  21.052   4.209   2.640 -0.4332  0.0443 -0.0195
 9808W        W52720  19.267   3.896   0.379 -0.1601  0.1832 -0.1125
 9809W        W52721  21.968   5.683   1.106  0.2520  0.3021 -0.2340
 9810W        W52722  18.435   4.327   2.972 -0.2128  0.2460 -0.0261
 9811W        W52723  19.605   7.666   4.432 -0.1683  0.2753  0.2445
 9812W        W52724  19.027   6.021   3.544 -0.2373 -0.1365  0.0179
 9813W        W52725  21.609   4.714   0.350 -0.2741 -0.2607  0.0898
 9814W        W52726  19.340   5.288  31.199  0.2480 -0.2291  0.4566
 9815W        W52727  18.849   5.783   2.395  0.0133  0.1180  0.0409
 9816W        W52728  19.822   6.234   2.438 -0.0248  0.0818  0.0506
 9817W        W52729  19.947   6.970   0.056 -0.3769 -0.4397  0.2874
 9818W        W52730  20.414   5.030   0.431  0.2329  0.1677 -0.2333
 9819W        W52731  18.365   6.433   1.341  0.2820  0.1955 -0.0301
 9820W        W52732  22.516   4.725   1.223  0.0897 -0.0700 -0.2322
 9821W        W52733  20.907   4.731  31.065 -0.1079 -0.0713  0.1296
 9822W        W52734  18.388   5.339   1.690  0.1851  0.1697 -0.0816
 9823W        W52735  19.605   3.454   1.211 -0.3114 -0.1455  0.0650
 9824W        W52736  20.894   5.732   1.344 -0.3700  0.2401  0.2246
 9825W        W52737  20.410   4.902   2.067  0.1721 -0.1568 -0.0323
 9826W        W52738  19.854   4.756   1.220 -0.1307  0.1204 -0.2117
 9827W        W52739  20.510   5.861   2.823 -0.1032 -0.1830 -0.1208
 9828W        W52740  19.456   5.236   3.585 -0.3048  0.0496  0.0341
 9829W        W52741  19.781   4.347   3.891 -0.0792 -0.1774 -0.0780
 9830W        W52742  20.427   8.158   3.779  0.0989 -0.3501  0.1557
 9831W        W52743  21.384   4.313   0.169  0.2230 -0.0392 -0.1432
 9832W        W52744  20.314   5.032   3.588 -0.2004  0.3715  0.0442
 9833W        W52745  22.948   5.597   0.704 -0.2189  0.0758  0.0294
 9834W        W52746  21.411   5.947   0.231 -0.0297 -0.1687 -0.0204
 9835W        W52747  18.722   4.725   0.597 -0.1377 -0.0243  0.1014
 9836W        W52748  21.155   6.498   3.630 -0.0101  0.3727  0.4794
 9837W        W52749  19.273   5.022   1.302 -0.0082 -0.4469 -0.0098
 9838W        W52750  20.353   4.483   1.820 -0.1200 -0.0246 -0.3678
 9839W        W52751  19.881   6.303  31.867 -0.2445  0.0995  0.0454
 9840W        W52752  20.232   5.389   2.135  0.1236 -0.0449  0.0171
 9841W        W52753  19.766   6.147  31.361 -0.2938  0.1275  0.2280
 9842W        W52754  18.175   4.768  31.818  0.0708  0.0835 -0.2053
 9843W        W52755  18.970   6.894   3.106 -0.1932 -0.0220 -0.0824
 9844W        W52756  20.177   4.559  31.499 -0.3468  0.1721  0.2177
 9845W        W52757  19.609   5.296   1.010  0.0056  0.2046 -0.0598
 9846W        W52758  21.682   6.277   2.703  0.0636  0.0129 -0.1408
 9847W        W52759  21.596   6.968   3.129  0.2965 -0.0611  0.0770
 9848W        W52760  19.704   3.796  31.637  0.0054  0.0939  0.1920
 9849W        W52761  22.180   6.309   2.732 -0.2581 -0.1955 -0.0445
 9850W        W52762  18.769   5.504  31.316  0.0766  0.0529 -0.0419
 9851W        W52763  21.361   2.260   2.186 -0.0219  0.2518 -0.5702
 9852W        W52764  17.502   7.140   3.844  0.0112  0.0251 -0.0748
 9853W        W52765  16.639   6.161   3.551  0.1585  0.2081 -0.4412
 9854W        W52766  19.899   7.004   1.114  0.1467 -0.1829 -0.1212
 9855W        W52767  19.890   4.392   1.540 -0.1885 -0.1544 -0.2109
 9856W        W52768  20.749   6.051   1.720  0.0589 -0.0042  0.1383
 9857W        W52769  20.058   5.734   0.835 -0.0363 -0.0283 -0.0722
 9858W        W52770  22.683   5.182   3.399  0.0102  0.1087  0.3841
 9859W        W52771  19.852   7.236   4.206 -0.2050 -0.1938  0.0096
 9860W        W52772  17.954   6.371   1.958  0.2869 -0.2411 -0.0549
 9861W        W52773  19.541   6.838   3.089 -0.0980  0.0729 -0.0459
 9862W        W52774  21.743   5.925  31.055 -0.2021  0.5002  0.0003
 9863W        W52775  19.039   6.468   0.483  0.2313  0.0732  0.1060
 9864W        W52776  17.402   5.634   3.651 -0.2141 -0.0709 -0.2602
 9865W        W52777  20.970   5.623   3.800  0.1400 -0.2296 -0.1834
 9866W        W52778  20.408   5.743   1.698  0.2298  0.5646  0.1607
 9867W        W52779  19.800   4.245   0.396 -0.2870  0.1340  0.3638
 9868W        W52780  20.266   6.215   1.022  0.4375  0.2613 -0.0756
 9869W        W52781  18.765   7.635   3.745  0.0649 -0.3402  0.1139
 9870W        W52782  17.986   4.622   2.284  0.0730  0.1870  0.0334
 9871W        W52783  19.058   7.618  31.884  0.1069  0.1281  0.1872
 9872W        W52784  20.646   5.896   0.886 -0.1062 -0.1095 -0.0281
 9873W        W52785  20.286   6.637  31.979 -0.1280 -0.0726 -0.1939
 9874W        W52786  19.945   7.165   3.120 -0.1282  0.2972 -0.1472
 9875W        W52787  19.857   5.591  31.213 -0.0345  0.3339  0.1164
 9876W        W52788  18.447   7.614   1.097  0.5124  0.0453 -0.1735
 9877W        W52789  17.719   6.406  31.047  0.2567 -0.0533 -0.0517
 9878W        W52790  21.242   6.016  31.279 -0.1627  0.0874 -0.2012
 9879W        W52791  17.778   7.272   2.225 -0.2491 -0.0683 -0.0174
 9880W        W52792  21.568   6.774   2.669 -0.0133  0.0532 -0.0365
 9881W        W52793  22.727   4.032  31.658 -0.2926 -0.3329 -0.1165
 9882W        W52794  20.736   5.416   0.498  0.0677  0.1851  0.1348
 9883W        W52795  21.295   4.617  31.360  0.1999  0.4093 -0.2511
 9884W        W52796  21.337   7.598   4.043 -0.0426 -0.0370 -0.4503
 9885W        W52797  20.709   5.352   2.016  0.1314  0.3253 -0.1059
 9886W        W52798  20.240   4.108  31.153  0.0985  0.0759 -0.1756
 9887W        W52799  19.311   6.076   3.970 -0.1582  0.0043  0.2291
 9888W        W52800  21.507   4.529   3.088  0.1749 -0.0148 -0.0354
 9889W        W52801  18.358   8.408   3.219 -0.2034  0.0585 -0.3860
 9890W        W52802  21.422   7.091  31.734 -0.0007  0.1968 -0.0349
 9891W        W52803  18.715   6.099   1.323 -0.0986  0.0197  0.0072
 9892W        W52804  19.263   5.577   2.168  0.2641  0.0080 -0.1662
 9893W        W52805  22.710   4.036   2.763  0.2301 -0.0403  0.2529
 9894W        W52806  20.601   5.202   0.029 -0.0266 -0.0513 -0.0944
 9895W        W52807  20.841   4.583   2.195 -0.0093  0.1208  0.0245
 9896W        W52808  19.452   6.249   0.286 -0.0829  0.2263  0.0951
 9897W        W52809  19.196   7.337   2.904 -0.0644  0.2449  0.3320
 9898W        W52810  19.219   7.295   1.599  0.2619  0.1993  0.0865
 9899W        W52811  18.494   6.249  30.710  0.1610  0.1314 -0.1392
 9900W        W52812  22.096   5.574  31.608 -0.0873  0.3897  0.2834
 9901W        W52813  19.795   4.317   3.378  0.1824  0.6729  0.0779
 9902W        W52814  22.579   3.359   1.876  0.3526 -0.2045 -0.0416
 9903W        W52815  19.083   4.747  31.236  0.1965 -0.0942 -0.4322
 9904W        W52816  21.407   4.970  31.716 -0.0614  0.0984  0.2398
 9905W        W52817  19.103   8.141   3.732  0.1317  0.0051 -0.3564
 9906W        W52818  19.261   5.071   2.216 -0.0829 -0.5116  0.3765
 9907W        W52819  20.230   4.462   0.357  0.1878  0.1498 -0.0518
 9908W        W52820  22.300   6.761   3.543  0.5254 -0.1250 -0.1209
 9909W        W52821  21.607   4.182  31.288 -0.2156  0.0533  0.0484
 9910W        W52822  18.667   8.048   3.342  0.0588  0.0310  0.0736
 9911W        W52823  18.315   3.735  31.701  0.0444 -0.0893 -0.1305
 9912W        W52824  20.224   4.710   0.848 -0.0038 -0.0127  0.2985
 9913W        W52825  19.326   6.339   1.124  0.2912 -0.1431 -0.1709
 9914W        W52826  19.173   6.134   3.026  0.0820  0.0496 -0.1912
 9915W        W52827  20.730   6.624   3.303  0.0979  0.1944 -0.4995
 9916W        W52828  19.182   5.366   0.676  0.0499  0.0318 -0.2293
 9917W        W52829  20.931   6.391  31.163 -0.3127 -0.1640  0.2223
 9918W        W52830  21.789   5.246   1.325 -0.1931  0.0467  0.2477
 9919W        W52831  18.533   8.581   0.539 -0.0309 -0.1495  0.1536
 9920W        W52832  23.674   4.418   0.772 -0.1995 -0.1467  0.0898
 9921W        W52833  20.870   7.306   2.484 -0.2139 -0.1272  0.0480
 9922W        W52834  18.519   4.672   1.106  0.1044  0.0799  0.3793
 9923W        W52835  19.751   7.327   2.714  0.1131  0.2434 -0.0446
 9924W        W52836  22.562   5.389   2.952 -0.1289 -0.0915 -0.1538
 9925W        W52837  19.917   4.970   2.336  0.2607 -0.3244  0.0339
 9926W        W52838  18.810   4.275   0.873  0.2009  0.0120 -0.0788
 9927W        W52839  18.394   7.238   0.703  0.1647  0.1014 -0.0127
 9928W        W52840  21.539   5.524   2.000 -0.0467 -0.0490 -0.0451
 9929W        W52841  20.811   5.273   3.471  0.1438  0.0317 -0.0295
 9930W        W52842  19.388   8.371  30.289  0.0288 -0.0334  0.0825
 9931W        W52843  20.987   3.377   3.664 -0.0022 -0.5058 -0.0888
 9932W        W52844  19.364   6.857   1.927  0.0579 -0.0731  0.0299
 9933W        W52845  18.054   6.540   3.598  0.1532 -0.3352 -0.0596
 9934W        W52846  21.700   4.260  31.757  0.2285 -0.0943  0.0198
 9935W        W52847  19.386   5.689   2.951 -0.1219  0.3318 -0.1666
 9936W        W52848  19.849   6.488   1.339  0.0069 -0.0559  0.0397
 9937W        W52849  19.211   7.836  31.446 -0.0617  0.0466  0.2178
 9938W        W52850  20.672   7.040   1.503  0.0855  0.1767 -0.1270
 9939W        W52851  19.730   6.174   0.834 -0.0661  0.3637 -0.3793
 9940W        W52852  21.710   5.967   2.018  0.0387 -0.1265  0.0454
 9941W        W52853  19.245   3.706   1.420  0.1862  0.0259 -0.1595
 9942W        W52854  21.721   4.246   1.197  0.0312  0.0436 -0.0133
 9943W        W52855  22.132   4.111  30.610  0.0042 -0.0903 -0.0268
 9944W        W52856  19.846   6.085   1.874 -0.0992 -0.0502  0.0054
 9945W        W52857  19.142   5.461  31.620  0.1197  0.0511  0.1518
 9946W        W52858  19.094   5.984   0.947 -0.1095  0.3102 -0.0465
 9947W        W52859  19.533   6.892   1.418  0.0301  0.1971  0.3520
 9948W        W52860  20.561   4.061   2.828  0.0209  0.1186 -0.1982
 9949W        W52861  19.709   5.748   2.267  0.1860  0.1467 -0.1412
 9950W        W52862  19.179   5.931  31.943  0.0124 -0.4490 -0.0380
 9951W        W52863  18.798   5.637   0.827  0.3175  0.0603  0.4450
 9952W        W52864  21.384   6.261   1.756 -0.0256  0.1565  0.0519
 9953W        W52865  18.822   3.006   0.877  0.0626 -0.2856 -0.1342
 9954W        W52866  18.257   4.363   0.741 -0.1432  0.1235  0.2533
 9955W        W52867  19.887   6.577   0.388 -0.0702  0.1000 -0.0000
 9956W        W52868  19.563   7.030   2.340  0.2433 -0.3807  0.0612
 9957W        W52869  19.656   3.994   1.284 -0.1378 -0.0487 -0.0635
 9958W        W52870  19.406   6.985   3.682  0.0474 -0.0165  0.1982
 9959W        W52871  19.861   6.072  30.444  0.0406  0.1393 -0.0255
 9960W        W52872  20.414   5.607   3.485  0.0470  0.1257 -0.3983
 9961W        W52873  19.183   3.756   2.594  0.0172  0.0834 -0.0755
 9962W        W52874  18.681   5.299  31.792 -0.2549  0.2242 -0.2093
 9963W        W52875  19.614   5.228   1.548 -0.0968  0.0184 -0.1005
 9964W        W52876  18.644   6.830   1.142  0.0641 -0.2000 -0.0051
 9965W        W52877  19.130   7.129   0.011 -0.1920 -0.1406  0.0362
 9966W        W52878  19.761   6.614   2.046  0.0052 -0.1167  0.2065
 9967W        W52879  17.990   7.060   3.497  0.1661  0.1222  0.2020
 9968W        W52880  17.971   4.245   3.942 -0.1244  0.0052 -0.2459
 9969W        W52881  21.162   6.426   0.962  0.0643  0.3134 -0.0289
 9970W        W52882  19.207   8.074   3.123  0.0828 -0.0430  0.3878
 9971W        W52883  21.087   6.311  31.977  0.0885 -0.2246  0.0963
 9972W        W52884  21.230   4.410   3.535  0.2711 -0.1141 -0.0542
 9973W        W52885  21.330   4.639   0.766  0.0687  0.1876  0.1452
 9974W        W52886  20.043   3.335   3.235 -0.0047  0.0095  0.1271
 9975W        W52887  19.327   5.977   2.479 -0.3382  0.0939 -0.1566
 9976W        W52888  22.061   4.622   3.212 -0.0284 -0.1887 -0.2148
 9977W        W52889  19.215   3.979   0.999  0.0043  0.1017  0.1775
 9978W        W52890  21.524   4.757   1.291 -0.0457 -0.4599 -0.3646
 9979W        W52891  21.157   5.893   0.853  0.0437  0.0014 -0.1898
 9980W        W52892  19.051   5.367   2.577  0.1672  0.0362 -0.2454
 9981W        W52893  22.296   4.598   0.390  0.1233  0.0062  0.0217
 9982W        W52894  21.877   5.280   2.731 -0.0229  0.1399 -0.0303
 9983W        W52895  20.349   6.189   2.034 -0.0481  0.0590  0.0403
 9984W        W52896  20.908   6.155   3.013  0.0979  0.0387 -0.2329
 9985W        W52897  21.015   4.169  31.804  0.1051  0.1330  0.3150
 9986W        W52898  21.802   4.761  31.344 -0.5361  0.1459  0.0450
 9987W        W52899  20.437   8.000   2.462 -0.1784 -0.0408 -0.0217
 9988W        W52900  21.268   8.191   4.164 -0.0823  0.0246  0.0277
 9989W        W52901  19.142   7.624   4.120 -0.0265  0.1476 -0.2843
 9990W        W52902  21.534   5.781   2.498 -0.1089 -0.0449 -0.0504
 9991W        W52903  19.026   3.523   2.985 -0.0019  0.1573  0.0367
 9992W        W52904  20.454   5.855   0.408  0.1611  0.0909 -0.0055
 9993W        W52905  19.995   7.326  31.513  0.1580 -0.1905  0.3070
 9994W        W52906  20.758   4.883   1.752  0.3060 -0.0579 -0.1280
 9995W        W52907  18.748   4.138   2.311 -0.0608 -0.3913 -0.0246
 9996W        W52908  22.392   4.957   0.746  0.1161 -0.0751 -0.0432
 9997W        W52909  19.154   6.046   1.510  0.0864  0.1142 -0.2669
 9998W        W52910  19.923   5.597   1.677  0.0208  0.0708  0.0239
 9999W        W52911  19.086   7.243   5.546  0.1424 -0.0768  0.3168
10000W        W52912  19.921   5.536   3.523 -0.0687  0.0260 -0.0886
10001W        W52913  21.315   5.197   3.587  0.1311 -0.0885  0.5193
10002W        W52914  21.433   4.747   5.323  0.0014  0.0162  0.1776
10003W        W52915  18.672   4.905   4.117 -0.3529 -0.3306  0.0564
10004W        W52916  19.984   6.664   4.447 -0.1157  0.0559 -0.0186
10005W        W52917  19.418   1.876   6.467 -0.0353  0.0855 -0.0595
10006W        W52918  19.869   8.086   6.932 -0.0109  0.0401  0.2029
10007W        W52919  22.222   7.749   6.566  0.0968 -0.1713 -0.1725
10008W        W52920  20.277   6.746   3.087  0.2188  0.0764 -0.0229
10009W        W52921  18.662   5.469   6.080 -0.2122 -0.1940 -0.1169
10010W        W52922  19.775   7.489   7.022  0.0411 -0.1560  0.1784
10011W        W52923  21.155   5.721   4.288 -0.4374  0.0845 -0.0551
10012W        W52924  19.746   4.268   5.904 -0.1669 -0.1266 -0.1000
10013W        W52925  20.543   4.471   5.878  0.1973 -0.2135 -0.0277
10014W        W52926  18.506   6.366   3.657 -0.2029  0.1139 -0.3538
10015W        W52927  19.082   4.944   5.889  0.3601 -0.1355  0.1008
10016W        W52928  19.467   6.447   3.391 -0.4083 -0.4131 -0.1442
10017W        W52929  19.250   9.771   5.507  0.0212 -0.2619  0.1737
10018W        W52930  19.358   3.334   6.230  0.1994  0.0304 -0.1970
10019W        W52931  21.520   4.211   6.154  0.3329  0.0446 -0.2409
10020W        W52932  20.744   6.247   2.458 -0.1800  0.0287 -0.0088
10021W        W52933  17.970   5.593   4.214  0.1028 -0.0126  0.1366
10022W        W52934  18.345   5.065   6.255  0.0311  0.0490  0.0309
10023W        W52935  18.746   5.939   5.877 -0.0401  0.2816  0.0371
10024W        W52936  21.187   5.068   4.944 -0.4724 -0.3140  0.0151
10025W        W52937  20.760   5.330   5.518 -0.1557  0.0730 -0.0512
10026W        W52938  20.116   7.098   5.277  0.1188 -0.0571 -0.1743
10027W        W52939  21.756   8.578   6.101  0.0946 -0.3608 -0.2909
10028W        W52940  20.864   5.193   6.694  0.1376  0.2917  0.0933
10029W        W52941  17.501   5.808   4.581 -0.0034 -0.4328 -0.3090
10030W        W52942  18.533   8.938   5.949 -0.0960  0.2438 -0.1369
10031W        W52943  19.475   6.600   3.943 -0.1599  0.0686  0.0666
10032W        W52944  20.897   7.093   4.275 -0.1576 -0.0523 -0.2452
10033W        W52945  20.952   5.095   6.136 -0.3145  0.0421 -0.0597
10034W        W52946  19.686   7.415   6.449  0.2195  0.1931  0.0748
10035W        W52947  18.378   5.867   3.928 -0.3076 -0.2076  0.0411
10036W        W52948  20.308   8.708   7.151  0.3036  0.0414  0.3867
10037W        W52949  19.289   7.343   6.822  0.2321 -0.0606 -0.0157
10038W        W52950  19.896   5.639   5.954 -0.0424  0.0107  0.2413
10039W        W52951  20.505   6.620   4.398  0.0163  0.0958 -0.0374
10040W        W52952  19.129   6.242   4.966  0.0097 -0.1134 -0.2364
10041W        W52953  19.981   6.715   6.280  0.2482  0.3485  0.0862
10042W        W52954  20.109   7.557   6.673 -0.1121 -0.0868 -0.1415
10043W        W52955  18.178   7.053   5.348  0.0547 -0.0519  0.0785
10044W        W52956  20.922   4.521   6.232  0.1061 -0.0205  0.2916
10045W        W52957  18.869   7.222   3.462  0.0062  0.3028  0.1923
10046W        W52958  21.959   4.774   2.637 -0.0587 -0.0194  0.0562
10047W        W52959  20.288   4.254   4.032 -0.1050  0.2167  0.1301
10048W        W52960  20.607   4.713   3.988 -0.4342 -0.2046 -0.0064
10049W        W52961  20.662   4.430   4.443  0.1859 -0.0992  0.0910
10050W        W52962  19.545   6.183   5.312  0.1809 -0.1286 -0.1462
10051W        W52963  20.187   4.422   5.322  0.1946 -0.4158 -0.1142
10052W        W52964  20.313   5.764   6.345 -0.2715  0.2140  0.0066
10053W        W52965  21.398   6.096   3.410  0.0334 -0.1839 -0.2346
10054W        W52966  19.853   5.359   6.463  0.1237 -0.0941  0.0417
10055W        W52967  19.530   6.466   7.034  0.1409 -0.3416 -0.1173
10056W        W52968  18.166   5.329   4.684 -0.0460 -0.1178  0.0037
10057W        W52969  21.413   7.398   6.393  0.2796 -0.4504  0.3389
10058W        W52970  21.326   5.454   5.233 -0.0437 -0.2381  0.0558
10059W        W52971  22.761   6.919   2.548 -0.0435  0.1599 -0.0911
10060W        W52972  18.113   5.087   3.665 -0.3173 -0.1095 -0.1891
10061W        W52973  17.081   6.307   6.838  0.0801 -0.2151 -0.0503
10062W        W52974  18.060   5.046   7.550  0.0952  0.0697 -0.1484
10063W        W52975  20.040   3.922   3.127 -0.1424 -0.0087 -0.1769
10064W        W52976  21.935   6.364   7.278  0.0285  0.0932  0.0791
10065W        W52977  19.054   6.869   5.989  0.0308 -0.0766  0.2221
10066W        W52978  22.093   3.863   4.933  0.0163  0.2425  0.2121
10067W        W52979  20.642   7.598   6.179 -0.1995 -0.2483  0.0373
10068W        W52980  21.168   7.722   7.452  0.1130  0.4940  0.1829
10069W        W52981  18.486   6.815   3.395  0.0217 -0.1387  0.0834
10070W        W52982  21.221   4.259   5.263  0.1158  0.0114  0.0156
10071W        W52983  19.653   4.931   6.897 -0.1029  0.0357 -0.1697
10072W        W52984  19.306   5.478   4.802 -0.2327 -0.3559  0.0988
10073W        W52985  19.444   5.774   3.444 -0.0208 -0.0306  0.0792
10074W        W52986  23.019   7.764   6.245 -0.3393 -0.5474 -0.1024
10075W        W52987  20.940   4.924   4.424 -0.0832  0.4025 -0.2996
10076W        W52988  18.734   7.567   6.470 -0.0546 -0.0102 -0.1302
10077W        W52989  19.344   5.230   6.639 -0.3515 -0.1420 -0.3521
10078W        W52990  20.077   7.216   6.231  0.0023  0.0583  0.0294
10079W        W52991  19.210   6.660   5.421  0.2263 -0.2095 -0.0511
10080W        W52992  20.075   6.189   5.336 -0.1092  0.1280  0.1542
10081W        W52993  18.109   7.619   4.497 -0.0419 -0.2020 -0.1152
10082W        W52994  17.821   3.082   7.695  0.0031 -0.0883 -0.0445
10083W        W52995  20.240   5.813   4.965  0.1853  0.2468  0.1713
10084W        W52996  20.954   3.262   5.324  0.1616  0.3014 -0.2811
10085W        W52997  19.330   3.947   5.717 -0.2939  0.0672  0.0521
10086W        W52998  22.859   2.652   4.547 -0.0804 -0.3422  0.2838
10087W        W52999  18.718   5.493   4.823 -0.0862  0.1407  0.0976
10088W        W53000  21.715   8.312   4.101  0.2340 -0.1565 -0.1845
10089W        W53001  21.945   5.570   3.935 -0.1037 -0.0589  0.1712
10090W        W53002  20.944   6.529   1.578  0.1203  0.1186  0.1644
10091W        W53003  19.161   5.889   5.588  0.0863  0.3729 -0.1151
10092W        W53004  20.237   5.404   4.173 -0.0424 -0.0789 -0.0747
10093W        W53005  18.622   4.564   7.182  0.1393 -0.0201 -0.1546
10094W        W53006  19.021   5.405   5.731 -0.0973  0.1477 -0.1090
10095W        W53007  21.640   5.289   6.646  0.0243  0.2280  0.1720
10096W        W53008  18.243   5.177   4.173 -0.0545 -0.3580  0.0138
10097W        W53009  21.313   5.930   6.150 -0.2599  0.0005 -0.0719
10098W        W53010  20.222   6.068   4.226 -0.1360 -0.1242 -0.0200
10099W        W53011  18.791   6.288   5.494  0.0055 -0.1701 -0.1326
10100W        W53012  20.702   3.880   6.010  0.1609 -0.2717 -0.2284
10101W        W53013  20.457   9.045   4.414 -0.0216 -0.0220 -0.1294
10102W        W53014  20.882   6.491   6.104 -0.0199 -0.0476 -0.1302
10103W        W53015  20.149   9.076   5.956 -0.4614  0.2408 -0.2053
10104W        W53016  20.196   3.798   6.149 -0.1046  0.1827 -0.0847
10105W        W53017  19.371   4.605   3.097  0.0603  0.1729 -0.2131
10106W        W53018  19.196   7.655   3.495  0.0548 -0.0722  0.0370
10107W        W53019  20.014   5.627   5.445  0.2711  0.2980  0.4629
10108W        W53020  19.731   6.126   3.663 -0.1150 -0.0108 -0.1110
10109W        W53021  21.668   9.099   5.228 -0.0916 -0.1068  0.1372
10110W        W53022  20.196   6.860   4.071 -0.0032  0.2029  0.0623
10111W        W53023  19.127   6.380   5.844 -0.1254 -0.0527 -0.0380
10112W        W53024  21.982   4.162   5.933  0.1251  0.2394 -0.2338
10113W        W53025  22.046   6.479   6.299 -0.0865 -0.1512 -0.2979
10114W        W53026  20.353   7.141   4.441 -0.3463  0.1397  0.0816
10115W        W53027  19.690   4.941   2.779 -0.2508 -0.0895 -0.0736
10116W        W53028  19.682   8.401   5.555 -0.0424 -0.0645 -0.0054
10117W        W53029  18.872   7.245   4.580 -0.1652  0.1154  0.2195
10118W        W53030  19.391   5.539   3.993  0.0729 -0.1275 -0.1191
10119W        W53031  21.125   6.934   6.219 -0.0558  0.1454 -0.0618
10120W        W53032  19.694   3.663   5.402  0.0343  0.2027  0.1126
10121W        W53033  18.279   5.589   5.698  0.3029 -0.1494 -0.2166
10122W        W53034  21.015   5.608   6.377 -0.0628 -0.1706  0.1312
10123W        W53035  19.124   4.913   3.462  0.0869  0.0729  0.2933
10124W        W53036  19.582   7.433   5.846 -0.1842  0.0070  0.0006
10125W        W53037  21.536   4.500   3.984 -0.0858  0.2267  0.1310
10126W        W53038  20.932   4.232   3.962  0.2183 -0.1257  0.1296
10127W        W53039  21.624   6.071   6.995  0.2796 -0.0576  0.1057
10128W        W53040  21.111   6.636   4.126  0.0613  0.0895 -0.1337
10129W        W53041  20.416   6.208   3.241 -0.0237  0.2354  0.2114
10130W        W53042  21.232   4.902   2.660 -0.1363  0.0383  0.0183
10131W        W53043  19.042   6.207   6.978 -0.1735 -0.1274 -0.1839
10132W        W53044  20.307   6.614   5.133  0.0484 -0.0047 -0.2285
10133W        W53045  20.553   6.349   5.630  0.0914 -0.0388 -0.0439
10134W        W53046  19.965   5.904   3.218  0.0736  0.4256  0.3976
10135W        W53047  21.733   6.798   5.433  0.0325  0.2601  0.0128
10136W        W53048  19.906   6.309   6.715 -0.2079 -0.1657  0.0650
10137W        W53049  21.477   5.119   7.544  0.0386 -0.1955 -0.1597
10138W        W53050  20.774   7.478   5.627 -0.0148 -0.0760  0.1078
10139W        W53051  19.249   4.254   6.248  0.0031 -0.3375 -0.3222
10140W        W53052  18.319   6.380   3.174 -0.1521 -0.2804 -0.0866
10141W        W53053  20.374   5.326   5.226  0.2434 -0.0708 -0.0262
10142W        W53054  19.719   6.652   5.354  0.3945  0.0440 -0.2386
10143W        W53055  21.312   3.516   5.530 -0.0737  0.3163 -0.1505
10144W        W53056  20.476   4.235   4.901  0.3967  0.1804 -0.0205
10145W        W53057  19.340   3.918   7.117  0.4897  0.2641  0.0778
10146W        W53058  21.984   6.302   7.859  0.1606  0.0627 -0.1834
10147W        W53059  22.237   5.418   6.067 -0.0317  0.1590  0.2773
10148W        W53060  20.762   5.946   6.087 -0.2673  0.0562  0.0254
10149W        W53061  20.377   5.393   2.988 -0.1151 -0.4159 -0.1506
10150W        W53062  20.172   4.362   6.242  0.0732 -0.2981 -0.2583
10151W        W53063  18.466   5.118   6.763  0.1921  0.0734  0.0893
10152W        W53064  17.391   7.669   7.375  0.1098 -0.1211 -0.0377
10153W        W53065  20.819   6.420   7.398  0.1127 -0.0668  0.1797
10154W        W53066  20.975   6.574   5.339  0.0319 -0.1858 -0.1813
10155W        W53067  19.194   4.369   7.328 -0.0241 -0.1770 -0.2332
10156W        W53068  20.676   5.007   4.886  0.0497 -0.1060  0.0112
10157W        W53069  18.464   7.365   4.258  0.2783  0.0960  0.0188
10158W        W53070  20.361   5.370   4.743 -0.3831 -0.1164 -0.0828
10159W        W53071  20.062   4.683   5.800  0.1015  0.2280 -0.0648
10160W        W53072  19.538   7.132   5.231  0.0044 -0.1797  0.0076
10161W        W53073  18.176   5.959   3.408  0.0690 -0.0198 -0.2338
10162W        W53074  20.326   6.643   6.670 -0.1405 -0.0309  0.2036
10163W        W53075  18.877   7.171   3.979 -0.1351 -0.0152 -0.3708
10164W        W53076  21.424   4.482   5.733  0.0949  0.2233  0.1349
10165W        W53077  18.613   6.997   5.630 -0.0827 -0.0010 -0.1367
10166W        W53078  19.643   5.299   4.399  0.1309 -0.0181 -0.0569
10167W        W53079  19.052   5.650   5.174 -0.1292 -0.0114 -0.2369
10168W        W53080  22.535   4.016   4.842  0.0530 -0.0230  0.0786
10169W        W53081  20.505   7.488   3.254 -0.1912 -0.3086  0.5951
10170W        W53082  18.560   3.625   7.171  0.0956 -0.1585  0.1151
10171W        W53083  18.675   7.070   6.306  0.1973 -0.2417  0.0538
10172W        W53084  20.336   5.939   5.796 -0.0346  0.1569 -0.5158
10173W        W53085  21.833   2.984   3.826  0.0839  0.1776 -0.1137
10174W        W53086  20.915   5.987   7.676 -0.0623  0.2785 -0.2844
10175W        W53087  20.192   5.656   7.351 -0.3788 -0.3263 -0.0963
10176W        W53088  19.252   4.442   4.031  0.4212  0.0048  0.5157
10177W        W53089  20.756   6.835   5.681 -0.1073 -0.1597 -0.0468
10178W        W53090  20.093   4.755   4.090 -0.0808  0.0003 -0.3800
10179W        W53091  18.666   7.417   5.248 -0.0316  0.1225  0.0076
10180W        W53092  20.595   6.229   6.461 -0.3890  0.2572 -0.0671
10181W        W53093  19.997   5.020   4.634 -0.0626  0.0941  0.0489
10182W        W53094  19.926   7.760   5.367  0.0055  0.2878  0.3167
10183W        W53095  19.271   5.202   5.308 -0.1056  0.0317 -0.1441
10184W        W53096  20.244   5.279   5.775 -0.0480 -0.0882  0.3942
10185W        W53097  20.478   5.003   4.373 -0.0021 -0.1052 -0.0008
10186W        W53098  19.136   5.103   3.951  0.1560  0.0797  0.3511
10187W        W53099  19.819   5.427   4.950  0.1225  0.2462  0.0440
10188W        W53100  21.166   7.606   6.771 -0.3485 -0.1900 -0.0029
10189W        W53101  20.401   5.281   6.506  0.4723  0.0070 -0.1169
10190W        W53102  18.585   7.422   7.229  0.0053  0.0016 -0.1349
10191W        W53103  19.831   2.587   6.221  0.1670  0.2547 -0.4752
10192W        W53104  20.873   7.098   4.752  0.1535  0.1495  0.0655
10193W        W53105  20.429   4.927   6.105  0.0215  0.1416 -0.0285
10194W        W53106  19.701   6.252   4.406 -0.2444  0.2901  0.2839
10195W        W53107  18.670   5.597   5.459 -0.0530  0.2422 -0.0072
10196W        W53108  19.743   6.076   5.747 -0.1371 -0.2870 -0.1971
10197W        W53109  20.155   5.066   6.960 -0.1293 -0.0502  0.0101
10198W        W53110  18.673   6.561   6.134  0.0851 -0.0933 -0.4855
10199W        W53111  19.497   6.721   4.407 -0.1457 -0.1933 -0.1307
10200W        W53112  19.436   7.391   7.948 -0.1673  0.0036  0.2887
10201W        W53113  22.260   4.274   4.545  0.3190  0.0220 -0.0177
10202W        W53114  20.303   6.545   3.576  0.0677  0.0431  0.2307
10203W        W53115  21.308   5.548   5.768  0.0079  0.0343 -0.1706
10204W        W53116  21.581   4.088   7.024  0.0675 -0.0793  0.0269
10205W        W53117  22.535   6.598   2.879  0.0986 -0.2747 -0.0032
10206W        W53118  20.281   3.634   6.960  0.2757  0.3062 -0.0702
10207W        W53119  19.764   5.044   5.285 -0.3575 -0.2254  0.2567
10208W        W53120  21.194   6.760   4.605 -0.1102 -0.0050  0.0265
10209W        W53121  18.297   4.318   6.926 -0.1216  0.0845 -0.0836
10210W        W53122  19.740   7.604   8.303  0.1451  0.1158 -0.0818
10211W        W53123  19.275   6.552   6.315 -0.1977  0.1486  0.0178
10212W        W53124  21.639   5.709   4.607  0.4442  0.2709  0.1719
10213W        W53125  20.608   3.935   4.376  0.0464  0.1142 -0.3202
10214W        W53126  19.167   7.052   6.439  0.0133 -0.0380  0.1733
10215W        W53127  20.920   7.181   6.679 -0.0007 -0.0334  0.0991
10216W        W53128  19.877   6.771   3.567 -0.0343  0.0730 -0.1999
10217W        W53129  21.796   3.703   3.715  0.0555  0.2822  0.0840
10218W        W53130  19.533   6.827   6.657  0.1055 -0.2137  0.1276
10219W        W53131  21.112   6.169   5.736 -0.0587 -0.0731  0.0550
10220W        W53132  21.142   6.633   3.003  0.0219 -0.6040 -0.3441
10221W        W53133  20.013   5.788   4.542  0.3260 -0.1169  0.1885
10222W        W53134  18.864   4.610   6.142  0.0292  0.0417 -0.0565
10223W        W53135  20.427   7.833   4.723 -0.0615  0.3649 -0.1240
10224W        W53136  19.563   5.393   5.681 -0.1063 -0.2445  0.0058
10225W        W53137  20.031   4.917   6.510  0.0364  0.0078  0.0371
10226W        W53138  21.070   6.202   6.490 -0.2399  0.0635  0.3282
10227W        W53139  19.196   4.240   6.796 -0.1118 -0.0882  0.0632
10228W        W53140  17.971   4.301   6.376 -0.2437  0.0644 -0.0802
10229W        W53141  22.744   8.623   6.291  0.0060 -0.0311 -0.1436
10230W        W53142  21.724   5.079   4.021 -0.0404  0.0455  0.3036
10231W        W53143  22.897   6.768   6.344 -0.1846 -0.0417 -0.1436
10232W        W53144  21.744   4.227   3.475 -0.0528 -0.2303  0.0079
10233W        W53145  22.016   5.058   3.539 -0.0001  0.0299 -0.0610
10234W        W53146  19.013   3.640   4.220  0.0575 -0.1431 -0.0294
10235W        W53147  21.407   4.729   6.175  0.0224  0.0872 -0.2323
10236W        W53148  20.786   5.666   3.173  0.0757 -0.1772  0.0841
10237W        W53149  20.913   4.622   6.834  0.0828  0.4180  0.0126
10238W        W53150  19.864   6.968   4.832  0.1074  0.1524  0.0250
10239W        W53151  19.995   6.418   3.927  0.0042  0.3194  0.1844
10240W        W53152  21.277   5.084   5.669  0.2265  0.0037  0.3368
10241W        W53153  18.851   3.336   5.205  0.2232  0.2416 -0.2379
10242W        W53154  17.713   6.650   5.848 -0.0303  0.0295  0.3350
10243W        W53155  19.196   4.879   2.697  0.1129 -0.2919 -0.0666
10244W        W53156  19.941   7.309   3.639  0.0141 -0.1858  0.1837
10245W        W53157  20.524   7.031   6.224  0.2590  0.0318  0.3964
10246W        W53158  21.348   6.193   7.481  0.0612  0.1098  0.3382
10247W        W53159  20.334   2.931   4.785  0.1015  0.1889 -0.0413
10248W        W53160  22.023   4.572   5.512  0.1883  0.0340 -0.2971
10249W        W53161  18.461   5.592   4.377 -0.2363  0.2960  0.1523
10250W        W53162  20.254   4.607   4.647 -0.2663  0.0475 -0.3334
10251W        W53163  20.505   7.908   5.808  0.0895  0.3323  0.1075
10252W        W53164  17.565   5.777   7.222  0.1133 -0.0221  0.1212
10253W        W53165  20.320   8.545   4.249  0.1556  0.3374 -0.1853
10254W        W53166  20.610   4.194   6.441  0.0008 -0.2203  0.1479
10255W        W53167  20.785   5.637   5.090 -0.2972  0.2366 -0.3141
10256W        W53168  20.631   5.454   6.050 -0.2143 -0.0733 -0.1196
10257W        W53169  21.688   5.457   7.196 -0.0093  0.1871  0.1366
10258W        W53170  21.119   6.084   7.019 -0.1044 -0.3543 -0.1644
10259W        W53171  20.206   4.897   5.028  0.1310 -0.0077  0.0069
10260W        W53172  19.508   8.318   6.056  0.0063  0.1272 -0.0506
10261W        W53173  22.297   5.817   5.118  0.1890 -0.1200 -0.1448
10262W        W53174  19.730   5.943   4.926  0.0725  0.1083 -0.2273
10263W        W53175  18.619   5.080   7.325 -0.0241 -0.0574  0.2926
10264W        W53176  19.942   4.772   7.353 -0.1726 -0.0272 -0.1144
10265W        W53177  20.116   6.711   5.722 -0.0587 -0.1492  0.3500
10266W        W53178  19.857   4.929   3.287 -0.1137  0.3175 -0.0474
10267W        W53179  19.177   6.287   4.458 -0.0992 -0.0495  0.3259
10268W        W53180  18.021   6.164   7.117  0.3211  0.2661 -0.0438
10269W        W53181  17.783   6.322   6.254  0.1694 -0.0880 -0.0516
10270W        W53182  18.827   7.741   5.639 -0.1227  0.0574  0.1806
10271W        W53183  18.658   6.781   2.715 -0.1372 -0.4743  0.2501
10272W        W53184  20.618   7.031   5.180 -0.1448  0.0988 -0.2362
10273W        W53185  20.982   7.930   5.842 -0.2237 -0.2247  0.1205
10274W        W53186  21.593   3.989   4.762  0.0416 -0.1939 -0.1307
10275W        W53187  18.765   8.045   6.625  0.0905 -0.3741 -0.2857
10276W        W53188  17.919   5.544   3.574  0.3054  0.1326  0.3359
10277W        W53189  20.416   7.035   3.500  0.1288  0.2498 -0.1561
10278W        W53190  20.248   8.423   5.748 -0.1098  0.1739  0.4122
10279W        W53191  20.638   5.913   7.247  0.1677 -0.1547 -0.0002
10280W        W53192  20.203   4.513   3.567 -0.0535 -0.0681 -0.0259
10281W        W53193  21.263   5.403   4.627  0.2484 -0.3057 -0.4602
10282W        W53194  21.170   4.468   4.334  0.2544 -0.0752  0.1054
10283W        W53195  20.447   7.174   6.747 -0.1107  0.0704 -0.1596
10284W        W53196  20.725   6.593   4.873 -0.1058  0.2433 -0.0479
10285W        W53197  21.144   4.835   3.900  0.2170  0.1459 -0.0299
10286W        W53198  18.759   4.177   5.951 -0.0293  0.2747  0.0784
10287W        W53199  20.020   4.558   6.910 -0.3014 -0.1081  0.1156
10288W        W53200  18.313   6.416   6.465 -0.0337  0.1299  0.1237
10289W        W53201  21.617   8.247   4.594 -0.2411  0.3930 -0.0065
10290W        W53202  19.019   5.355   4.394 -0.1810 -0.0815  0.2624
10291W        W53203  20.621   5.904   4.647 -0.2285 -0.1915  0.0101
10292W        W53204  22.238   3.356   7.014  0.0457 -0.1733 -0.1239
10293W        W53205  19.837   6.444   4.900  0.1346 -0.0010  0.1712
10294W        W53206  19.359   5.804   5.992 -0.1444 -0.0003 -0.1635
10295W        W53207  20.609   7.514   4.339  0.3786  0.0840 -0.0262
10296W        W53208  19.052   7.691   5.102  0.3484 -0.1264  0.0275
10297W        W53209  20.100   7.559   5.819 -0.2019  0.1923 -0.1532
10298W        W53210  18.662   4.983   3.524  0.0346  0.0556  0.3939
10299W        W53211  20.930   4.835   5.296  0.0879  0.0504 -0.1840
10300W        W53212  19.696   4.415   6.518  0.2455 -0.0040  0.2298
10301W        W53213  22.227   3.442   5.853  0.0541  0.1033  0.3303
10302W        W53214  19.514   5.619   5.250  0.3075 -0.1547  0.0631
10303W        W53215  21.995   5.166   5.285  0.0448  0.0678 -0.0644
10304W        W53216  20.779   8.032   5.345  0.2065  0.1434  0.0754
10305W        W53217  19.400   5.234   6.146  0.1364  0.1975 -0.1913
10306W        W53218  20.897   6.296   4.478 -0.4582 -0.1978  0.2325
10307W        W53219  20.397   6.577   6.107 -0.0254 -0.0825 -0.1575
10308W        W53220  20.707   5.250   4.022  0.2992 -0.0706 -0.0145
10309W        W53221  21.129   8.578   7.387 -0.2270  0.0530 -0.0300
10310W        W53222  19.390   4.619   5.083 -0.3962 -0.0178 -0.1318
10311W        W53223  21.806   4.492   4.474  0.2478  0.0628 -0.1878
10312W        W53224  19.627   6.561   5.914  0.0627 -0.3683 -0.2163
10313W        W53225  20.679   6.346   6.905  0.2028 -0.0763 -0.2020
10314W        W53226  21.771   7.281   6.900  0.3330 -0.1906 -0.0390
10315W        W53227  19.443   2.884   4.851  0.1537 -0.0260 -0.2918
10316W        W53228  20.719   7.117   3.017 -0.0523 -0.1521 -0.0252
10317W        W53229  21.801   5.656   5.151 -0.0989  0.1402 -0.2059
10318W        W53230  19.434   6.698   4.899  0.0492  0.1134 -0.1751
10319W        W53231  22.176   6.364   3.980  0.3166  0.0029 -0.0544
10320W        W53232  21.181   8.310   5.328  0.2010  0.1407 -0.5063
10321W        W53233  18.337   4.551   6.004 -0.0966  0.2560 -0.2282
10322W        W53234  20.825   7.864   7.139 -0.3245  0.1183  0.3180
10323W        W53235  21.463   8.721   4.323 -0.3218 -0.0055 -0.1504
10324W        W53236  20.646   5.820   4.158 -0.4025 -0.0847  0.0763
10325W        W53237  19.537   4.669   6.082  0.0456  0.1211 -0.0020
10326W        W53238  17.980   7.318   4.073  0.2165 -0.4128 -0.0708
10327W        W53239  22.086   3.049   4.660  0.3300  0.1739 -0.1387
10328W        W53240  21.300   3.544   4.522 -0.1472  0.0275  0.0411
10329W        W53241  17.829   6.622   3.180 -0.1058 -0.0966  0.0983
10330W        W53242  20.208   4.095   5.721 -0.1867  0.0829 -0.0567
10331W        W53243  19.942   9.571   8.146  0.1745  0.0096 -0.0057
10332W        W53244  18.215   8.591   5.728  0.4091  0.2142 -0.1701
10333W        W53245  18.679   5.857   3.083  0.1685 -0.1498  0.3201
10334W        W53246  19.588   7.025   6.138 -0.0392  0.2838  0.0825
10335W        W53247  18.951   6.670   3.575  0.1108  0.2236  0.1607
10336W        W53248  18.194   6.557   2.705  0.1504 -0.0300  0.2929
10337W        W53249  21.169   6.021   5.272 -0.1112  0.0950  0.2464
10338W        W53250  20.451   3.748   4.830 -0.5103  0.2641 -0.0033
10339W        W53251  21.851   7.233   5.086  0.3127  0.0532  0.3415
10340W        W53252  21.416   4.504   4.874  0.0613  0.0509 -0.1108
10341W        W53253  22.768   3.821   4.368 -0.0553 -0.3198 -0.0340
10342W        W53254  20.041   3.946   5.177 -0.1337  0.1087  0.1809
10343W        W53255  19.146   6.806   6.968 -0.0439  0.1999  0.0339
10344W        W53256  17.208   5.070   4.817  0.2903 -0.1922 -0.0146
10345W        W53257  18.797   6.374   3.182  0.1758 -0.0345 -0.2481
10346W        W53258  18.212   7.303   6.279  0.3230 -0.4774 -0.0342
10347W        W53259  19.547   4.471   7.050 -0.2137 -0.2595 -0.1139
10348W        W53260  19.197   4.751   6.453  0.2470  0.1581 -0.0242
10349W        W53261  18.400   4.767   4.896 -0.2952 -0.0039 -0.4300
10350W        W53262  19.558   4.815   4.119  0.0521  0.1484 -0.0143
10351W        W53263  20.680   6.793   3.861 -0.0828 -0.0629  0.1568
10352W        W53264  19.531   5.005   4.814 -0.2746 -0.0863  0.0081
10353W        W53265  18.918   4.684   5.225 -0.1532 -0.0865 -0.3009
10354W        W53266  21.344   6.879   5.041 -0.2449  0.1364 -0.0900
10355W        W53267  20.335   7.317   3.975 -0.1758  0.1032  0.0092
10356W        W53268  20.244   6.018   3.669  0.2137  0.2639  0.0308
10357W        W53269  21.607   6.849   6.317  0.0182  0.1655 -0.3519
10358W        W53270  18.263   6.473   4.611 -0.2397 -0.2429 -0.2025
10359W        W53271  21.159   4.971   7.173 -0.3690 -0.0467  0.2361
10360W        W53272  19.843   5.050   6.062 -0.0396 -0.0344  0.2229
10361W        W53273  18.759   4.882   2.954  0.0194  0.0859  0.2525
10362W        W53274  19.818   5.864   6.516 -0.0117 -0.3250  0.1048
10363W        W53275  20.791   7.631   5.019 -0.1196 -0.2143  0.0195
10364W        W53276  21.394   8.199   6.308 -0.1966 -0.1286 -0.1125
10365W        W53277  19.756   7.031   5.645 -0.0020  0.1445 -0.1286
10366W        W53278  20.161   9.156   7.270  0.0729 -0.0039 -0.0811
10367W        W53279  18.051   1.897   6.978  0.1057 -0.2305 -0.2249
10368W        W53280  21.456   5.735   3.770  0.0124 -0.2322  0.2014
10369W        W53281  19.111   7.263   7.299  0.1851 -0.1170 -0.0193
10370W        W53282  21.862   6.968   4.631 -0.1350  0.1365 -0.0496
10371W        W53283  21.667   3.045   6.103 -0.2147 -0.4113  0.0147
10372W        W53284  20.813   5.425   4.471  0.1259 -0.2182 -0.1271
10373W        W53285  18.354   2.860   6.991  0.0991  0.1320  0.0130
10374W        W53286  20.123   6.298   7.229  0.0635  0.1770  0.3767
10375W        W53287  21.590   6.001   5.669  0.2433 -0.0221  0.1236
10376W        W53288  19.173   4.825   4.400  0.0454 -0.2978 -0.1511
10377W        W53289  21.713   4.211   5.200 -0.0882  0.1205 -0.0689
10378W        W53290  20.811   8.184   4.891  0.3681 -0.0825 -0.0656
10379W        W53291  18.867   5.146   6.453 -0.1718 -0.1183 -0.0361
10380W        W53292  21.099   6.126   3.978 -0.1668  0.0142  0.0400
10381W        W53293  21.398   5.717   7.495  0.0421 -0.0780  0.1865
10382W        W53294  20.348   7.132   5.726 -0.0757 -0.0973 -0.1238
10383W        W53295  20.757   5.810   5.579  0.1859 -0.0707 -0.0285
10384W        W53296  19.525   6.397   2.803  0.0390 -0.0052 -0.4361
10385W        W53297  21.258   5.601   3.306  0.1494  0.0353  0.2621
10386W        W53298  21.259   8.123   7.171 -0.0342  0.0233  0.1453
10387W        W53299  21.649   7.668   8.360  0.1076  0.0860 -0.0293
10388W        W53300  20.264   8.157   5.347  0.1542  0.2744 -0.2376
10389W        W53301  21.288   6.747   5.751  0.1965  0.3090  0.2028
10390W        W53302  19.320   3.394   5.698  0.2446  0.1834 -0.0925
10391W        W53303  18.951   5.817   4.538  0.0302 -0.0811 -0.1197
10392W        W53304  19.513   5.815   4.425 -0.3789 -0.2735  0.1257
10393W        W53305  21.976   4.117   4.024 -0.1258  0.1568 -0.0344
10394W        W53306  20.495   4.905   5.530  0.0823 -0.0613 -0.0331
10395W        W53307  21.278   2.740   3.144  0.0063  0.1140 -0.0158
10396W        W53308  20.396   7.596   5.337 -0.0842 -0.1578  0.1458
10397W        W53309  21.459   5.754   6.606 -0.1712  0.1077  0.1417
10398W        W53310  18.577   5.375   9.178  0.0623  0.1959  0.1294
10399W        W53311  19.218   5.405   7.744 -0.1346  0.2054 -0.0148
10400W        W53312  20.150   4.671   7.847 -0.0242 -0.2379  0.4050
10401W        W53313  22.224   4.632   6.479 -0.0317  0.0046  0.3873
10402W        W53314  18.631   4.933   7.926  0.2586  0.0745 -0.2870
10403W        W53315  19.824   7.313   8.737  0.0472  0.1052 -0.2199
10404W        W53316  19.824   7.452   9.271  0.0328  0.1221  0.2175
10405W        W53317  21.814   6.589   8.989 -0.1622 -0.1692  0.0916
10406W        W53318  20.919   6.325   8.598 -0.1854 -0.1620 -0.0329
10407W        W53319  19.464   4.592   8.945  0.2996 -0.3011 -0.2099
10408W        W53320  19.827   2.851   7.219  0.3053  0.0396 -0.3250
10409W        W53321  19.300   3.767   9.997 -0.0118 -0.0541  0.0518
10410W        W53322  20.400   5.193   9.134 -0.2215  0.1909  0.1891
10411W        W53323  18.946   5.232   8.167  0.2063 -0.1400  0.0439
10412W        W53324  18.228   4.765   9.562  0.0776 -0.5209 -0.1011
10413W        W53325  19.661   3.908   7.518 -0.0052 -0.0172 -0.1048
10414W        W53326  19.936   7.806   7.367 -0.1033 -0.0523 -0.1085
10415W        W53327  21.138   2.873   8.191 -0.1229 -0.0468  0.2594
10416W        W53328  20.078   6.393   7.953  0.2315 -0.0386  0.2519
10417W        W53329  18.725   5.147   5.237  0.0084 -0.2615 -0.0574
10418W        W53330  17.302   6.332   8.725 -0.0318 -0.1124  0.0308
10419W        W53331  18.180   5.818   9.102 -0.0854  0.0277 -0.1368
10420W        W53332  20.179   3.422   9.667  0.0696  0.0467 -0.2260
10421W        W53333  20.595   4.726   8.347 -0.0841  0.1083 -0.1209
10422W        W53334  19.191   6.543   8.646 -0.3606  0.1009 -0.2402
10423W        W53335  19.717   7.027   9.631 -0.1951  0.0541 -0.0394
10424W        W53336  17.940   4.964   8.626  0.1053  0.0406 -0.0506
10425W        W53337  18.135   8.082   9.394  0.1699  0.2784 -0.3092
10426W        W53338  19.911   7.858   8.772  0.5592  0.1154  0.4089
10427W        W53339  21.419   6.723   8.579 -0.0965  0.1401 -0.2390
10428W        W53340  18.833   6.622   6.591 -0.2114  0.3443  0.0757
10429W        W53341  22.184   3.836   9.827 -0.2034  0.1680  0.0672
10430W        W53342  19.922   5.039   9.537 -0.0069 -0.0137 -0.0110
10431W        W53343  20.172   7.600   7.766 -0.2105 -0.1403 -0.1007
10432W        W53344  19.660   5.058   8.642  0.0406 -0.0695 -0.0942
10433W        W53345  18.122   5.302   9.291  0.0579 -0.2686 -0.2254
10434W        W53346  18.606   5.856   8.839 -0.0624  0.1385 -0.1510
10435W        W53347  21.988   6.775   7.987  0.0781  0.0418 -0.2917
10436W        W53348  18.959   5.625   6.493  0.0874 -0.0991  0.2730
10437W        W53349  20.414   5.073   7.984 -0.1737  0.1742 -0.0768
10438W        W53350  19.873   2.695   8.774  0.0037  0.1774 -0.4827
10439W        W53351  19.630   5.463   9.788  0.1977  0.1224  0.0574
10440W        W53352  20.698   2.328   8.549  0.2073 -0.0843  0.2650
10441W        W53353  19.976   5.465   8.323 -0.2353 -0.1860  0.2188
10442W        W53354  20.654   4.229   8.909 -0.0230  0.1060 -0.1658
10443W        W53355  19.223   6.797   9.580  0.1461  0.3536  0.0020
10444W        W53356  19.389   4.439   8.416  0.0014 -0.1640 -0.0619
10445W        W53357  21.575   6.573   8.144 -0.2696 -0.0593  0.1562
10446W        W53358  20.828   6.713   6.552 -0.2188 -0.1629  0.1613
10447W        W53359  19.973   7.051   6.670  0.0966 -0.1533 -0.2240
10448W        W53360  19.416   2.841   8.606  0.0876 -0.2226 -0.2869
10449W        W53361  19.609   3.967   6.699 -0.0120 -0.1033  0.1457
10450W        W53362  21.729   4.266   8.035 -0.0226 -0.2727 -0.1122
10451W        W53363  20.143   4.708   9.930 -0.3392  0.1419  0.2304
10452W        W53364  21.143   4.755   9.500 -0.2188  0.4017 -0.0405
10453W        W53365  22.026   5.223   7.473  0.1977  0.1282  0.0901
10454W        W53366  21.589   4.768   9.875  0.1012  0.1007  0.3689
10455W        W53367  20.526   4.161   7.931 -0.1470 -0.1757  0.0725
10456W        W53368  20.276   6.010   6.850  0.0856  0.1032  0.0737
10457W        W53369  20.357   6.005   7.799 -0.2530 -0.0444 -0.0502
10458W        W53370  22.826   6.687  10.109 -0.1530 -0.3136  0.0873
10459W        W53371  20.939   4.738   5.783 -0.2869  0.4359  0.0631
10460W        W53372  20.238   5.897   9.137  0.1937 -0.2237  0.0882
10461W        W53373  19.568   5.616   9.292 -0.0921 -0.0917  0.1675
10462W        W53374  17.689   5.323   8.308  0.1095  0.1959  0.1680
10463W        W53375  18.320   6.765   7.657 -0.1830  0.3780 -0.2523
10464W        W53376  17.910   1.943  10.062  0.1779  0.3473  0.0490
10465W        W53377  19.792   6.061   9.305  0.3428 -0.0041  0.2109
10466W        W53378  22.590   2.198   8.529 -0.0391 -0.0700  0.3335
10467W        W53379  21.377   2.854   8.767 -0.2170 -0.2131  0.0482
10468W        W53380  19.928   5.490   8.917 -0.0599 -0.1650  0.2252
10469W        W53381  21.349   8.221   7.798 -0.0000 -0.5532  0.0758
10470W        W53382  22.398   4.951   7.640  0.4180  0.0430  0.0739
10471W        W53383  21.696   6.124   8.383 -0.1086  0.1622 -0.0512
10472W        W53384  18.133   5.534   7.844 -0.0183 -0.0174 -0.3864
10473W        W53385  18.253   3.595   8.475  0.1840 -0.3109  0.1415
10474W        W53386  19.846   4.503   8.655  0.0343 -0.0413  0.1119
10475W        W53387  17.716   3.044   7.019  0.1211 -0.1649 -0.1748
10476W        W53388  21.393   5.758   8.693  0.2132 -0.1429  0.0906
10477W        W53389  19.572   5.740   8.653 -0.1307  0.4457  0.2070
10478W        W53390  17.695   4.563   8.826 -0.0374  0.0466 -0.1666
10479W        W53391  21.052   7.286   7.704 -0.1908 -0.1814 -0.0677
10480W        W53392  20.758   5.307   9.528 -0.2227 -0.0477 -0.0937
10481W        W53393  22.263   7.339   8.692 -0.1347  0.1798 -0.0487
10482W        W53394  17.386   4.629   9.730 -0.2127  0.0364  0.1099
10483W        W53395  18.171   3.302   6.814 -0.4975  0.1574  0.0685
10484W        W53396  20.097   6.710   9.510 -0.2476 -0.0252  0.0368
10485W        W53397  18.301   6.837   8.886 -0.0682  0.0853 -0.3065
10486W        W53398  19.983   4.262   9.070 -0.0643  0.2981  0.0548
10487W        W53399  21.967   5.917   9.675 -0.3452 -0.1155  0.3848
10488W        W53400  19.715   4.181   9.997 -0.1571 -0.2387 -0.1113
10489W        W53401  23.231   5.670   9.464  0.4084 -0.2102  0.2509
10490W        W53402  21.598   4.810   7.915  0.1956  0.1996  0.0631
10491W        W53403  19.462   3.177   7.166  0.1160 -0.2147  0.2980
10492W        W53404  20.657   6.088   9.281  0.1263 -0.0888  0.0836
10493W        W53405  18.926   7.542   7.663 -0.1001 -0.2668 -0.0644
10494W        W53406  19.507   4.853   7.706  0.0569 -0.0854 -0.1630
10495W        W53407  20.341   6.818   8.105 -0.0465  0.1621 -0.1261
10496W        W53408  21.153   4.323   9.180 -0.1038  0.0308 -0.2050
10497W        W53409  17.814   4.194   6.863 -0.1625 -0.1673 -0.0501
10498W        W53410  21.148   4.611   8.165 -0.0462 -0.0740 -0.2436
10499W        W53411  21.091   4.148   7.804 -0.2034 -0.1264  0.4238
10500W        W53412  21.440   6.975   9.014  0.1513  0.0136  0.0262
10501W        W53413  21.031   5.320   7.503  0.1552  0.2119 -0.3704
10502W        W53414  20.201   5.163   7.528  0.0740 -0.1334 -0.2509
10503W        W53415  20.825   6.463   9.593 -0.1047  0.1615 -0.0387
10504W        W53416  20.019   6.467   9.016  0.1999 -0.0555 -0.0241
10505W        W53417  19.590   4.106   8.103 -0.1607  0.1723  0.0895
10506W        W53418  20.909   6.776   8.373  0.2401  0.0360  0.2609
10507W        W53419  17.751   4.379   9.535  0.0434 -0.0370 -0.3764
10508W        W53420  21.368   6.235   8.759  0.0433  0.2302  0.0908
10509W        W53421  20.075   3.314   9.208  0.2288  0.2460 -0.3612
10510W        W53422  20.123   6.155   6.198  0.0439  0.0203  0.0442
10511W        W53423  21.427   4.779   9.001  0.0424  0.2059 -0.1947
10512W        W53424  18.392   6.490   8.071 -0.3387  0.1920 -0.1796
10513W        W53425  21.743   0.277   9.634 -0.1927 -0.1791  0.0238
10514W        W53426  20.997   3.854   8.160 -0.2695 -0.0110  0.3653
10515W        W53427  21.223   4.682   7.604  0.0594 -0.0714  0.1975
10516W        W53428  20.083   5.255   9.968 -0.1280  0.0810  0.1906
10517W        W53429  19.950   6.706   7.016  0.0422  0.1514  0.1176
10518W        W53430  17.762   1.389  10.170 -0.1597 -0.2668 -0.2993
10519W        W53431  19.753   7.585   9.778  0.1267  0.0810 -0.0408
10520W        W53432  20.196   4.991   8.469 -0.1215 -0.2605 -0.1570
10521W        W53433  20.152   2.497   7.982  0.2614 -0.1588  0.2079
10522W        W53434  20.208   7.098   7.159 -0.1410  0.1568 -0.1096
10523W        W53435  20.150   5.538   6.872  0.3361  0.0391  0.1526
10524W        W53436  20.257   3.398   7.820  0.1093 -0.0589  0.1354
10525W        W53437  20.003   5.863   9.890 -0.0226  0.0327 -0.0685
10526W        W53438  18.961   5.938   7.555 -0.0318 -0.2398  0.0434
10527W        W53439  19.595   6.311   8.794  0.1518  0.1367  0.2526
10528W        W53440  18.839   7.215   6.857  0.2323  0.0042 -0.0869
10529W        W53441  21.289   3.641   9.343  0.2271  0.0158 -0.3901
10530W        W53442  18.365   5.998   8.465  0.1942 -0.3398 -0.0553
10531W        W53443  19.573   5.592   7.388 -0.2952 -0.2913 -0.2238
10532W        W53444  18.305   4.574   7.578  0.3519 -0.0355 -0.0401
10533W        W53445  22.844   4.571   9.659  0.3815 -0.1393 -0.0946
10534W        W53446  21.070   5.499   7.050 -0.1020  0.1724  0.0218
10535W        W53447  19.440   4.634   9.442  0.3755  0.2533  0.1519
10536W        W53448  20.423   4.095   9.328 -0.0076 -0.1563 -0.2827
10537W        W53449  19.255   4.156   9.694  0.2049  0.0306 -0.0268
10538W        W53450  20.646   4.998   7.526 -0.1676  0.0596 -0.0641
10539W        W53451  17.109   3.891   7.094 -0.2129 -0.0436 -0.0192
10540W        W53452  23.617   3.997   9.686 -0.3239 -0.3856  0.1540
10541W        W53453  19.264   5.360   8.635 -0.1349 -0.2501 -0.3961
10542W        W53454  19.558   6.447   8.062  0.0237  0.1497 -0.2969
10543W        W53455  20.450   6.164   8.802  0.5378  0.0816  0.0717
10544W        W53456  18.135   6.025   8.006  0.2239  0.2412  0.1311
10545W        W53457  19.137   6.503   7.371  0.0222  0.1677  0.0536
10546W        W53458  20.571   7.516   9.414 -0.0984  0.3432  0.0756
10547W        W53459  19.917   4.851   9.025  0.2452  0.1010 -0.0974
10548W        W53460  19.775   3.680   7.955 -0.1348  0.1064  0.2423
10549W        W53461  18.790   5.044  10.000  0.1411 -0.3407 -0.3705
10550W        W53462  19.255   5.052   9.704 -0.1284 -0.1486  0.0341
10551W        W53463  19.286   4.899   8.361 -0.1563  0.1608 -0.0972
10552W        W53464  21.169   3.927   8.745 -0.0528  0.3097 -0.0988
10553W        W53465  22.366   6.828   8.652 -0.1969  0.0934  0.0065
10554W        W53466  19.076   5.742   8.102 -0.0511  0.1615  0.0360
10555W        W53467  16.335   5.790   9.050  0.0309 -0.2056 -0.0885
10556W        W53468  19.696   6.469   7.546 -0.2513  0.0944  0.0227
10557W        W53469  20.557   3.840   8.574  0.0954  0.1221  0.2267
10558W        W53470  18.956   4.573   8.165  0.0634  0.3325 -0.0531
10559W        W53471  19.880   6.003   7.569  0.0287 -0.0134 -0.0202
10560W        W53472  17.912   8.492   9.462 -0.0585  0.2448 -0.0088
10561W        W53473  22.154   4.597   7.878  0.0810  0.2062 -0.1562
10562W        W53474  20.009   5.617   7.860 -0.6093 -0.0797  0.5565
10563W        W53475  17.607   4.130   9.182  0.1362 -0.1473  0.3243
10564W        W53476  20.943   0.629  10.050 -0.0812 -0.0020  0.2879
10565W        W53477  21.953   5.365   9.015  0.1845 -0.0457  0.2107
10566W        W53478  19.940   4.001   8.609 -0.0934 -0.1743 -0.0945
10567W        W53479  19.132   3.820   6.514 -0.1327 -0.1143  0.1075
10568W        W53480  18.395   4.942   8.953 -0.2556 -0.1053  0.1964
10569W        W53481  21.521   5.556   9.211 -0.2088  0.0051 -0.0718
10570W        W53482  20.889   5.819   8.656  0.0744 -0.1000  0.1939
10571W        W53483  22.021   4.422   9.024 -0.0145 -0.0965 -0.1684
10572W        W53484  19.104   5.524   9.052 -0.1713 -0.1075 -0.0663
10573W        W53485  20.747   4.271   8.382 -0.1338  0.0219  0.1283
10574W        W53486  20.676   5.873   8.188  0.0788 -0.1509 -0.0761
10575W        W53487  18.805   5.894   9.235 -0.0301  0.0371  0.0393
10576W        W53488  21.273   6.102   9.532 -0.0904  0.1382  0.0573
10577W        W53489  19.721   4.749   8.138 -0.1816  0.0651 -0.0006
10578W        W53490  21.373   6.580   9.340 -0.2326  0.1406  0.0284
10579W        W53491  20.471   4.712   6.541 -0.0810 -0.0568  0.0466
10580W        W53492  22.003   4.071   9.398  0.1712 -0.0273 -0.0720
10581W        W53493  22.528   5.216   7.211  0.0312 -0.0830 -0.2913
10582W        W53494  20.471   4.752   8.898  0.1291 -0.2662 -0.2077
10583W        W53495  18.718   4.688   9.538  0.2228  0.0283 -0.0635
10584W        W53496  19.316   4.424   7.889  0.0572  0.1085  0.1955
10585W        W53497  19.129   8.309   6.392  0.2298 -0.0654  0.0048
10586W        W53498  21.813   5.361  10.053 -0.0870  0.2122 -0.1299
10587W        W53499  21.144   5.434   8.391  0.0630  0.1586  0.0891
10588W        W53500  17.951   4.606  10.020  0.1268  0.0242  0.0319
10589W        W53501  18.266   3.244   7.321 -0.1367  0.0633  0.0047
10590W        W53502  19.743   4.369   7.516 -0.0507 -0.0673  0.3710
10591W        W53503  21.001   7.811   9.451  0.1857 -0.0715 -0.2958
10592W        W53504  20.564   3.505   8.155  0.1249  0.0329 -0.0603
10593W        W53505  19.798   5.913   7.051  0.0547  0.2809 -0.0507
10594W        W53506  20.998   3.404   8.392 -0.2972  0.4169 -0.1231
10595W        W53507  19.982   6.005   8.714 -0.2332  0.0255  0.1863
10596W        W53508  19.221   6.516   9.151 -0.0187  0.0873 -0.3363
10597W        W53509  20.725   4.549   9.304 -0.1738  0.1950 -0.1465
10598W        W53510  22.052   4.465   9.774  0.0127  0.0202  0.0163
10599W        W53511  20.906   4.098   9.574 -0.0277 -0.5465 -0.2425
10600W        W53512  18.983   4.738   8.751 -0.1372  0.1540  0.0351
10601W        W53513  21.173   5.092   7.974  0.0650  0.1365 -0.0218
10602W        W53514  19.013   5.754   8.576 -0.0912  0.2051  0.2438
10603W        W53515  19.496   5.889   7.837 -0.0721 -0.0999 -0.0275
10604W        W53516  19.304   3.769   8.432  0.3459  0.1848  0.0829
10605W        W53517  19.695   7.356   7.522  0.1481  0.0377  0.0627
10606W        W53518  20.771   5.910   9.797 -0.3796  0.0011  0.0440
10607W        W53519  19.323   6.802   7.785 -0.0284  0.0596 -0.1522
10608W        W53520  21.578   6.020   7.867 -0.1765 -0.0169 -0.1704
10609W        W53521  20.991   7.280   8.315 -0.1014 -0.1992  0.1226
10610W        W53522  17.358   7.707   8.761 -0.1730  0.0641  0.1166
10611W        W53523  18.725   4.641   6.643  0.0202 -0.2355  0.2169
10612W        W53524  19.946   6.481   8.418  0.0102 -0.2134 -0.0290
10613W        W53525  19.385   7.083   8.811 -0.4311  0.2133 -0.1371
10614W        W53526  20.345   6.198   8.318  0.0010  0.0471 -0.3118
10615W        W53527  17.965   5.697   8.341  0.1672 -0.0326  0.1710
10616W        W53528  21.105   4.056   6.348 -0.0696  0.2794  0.0229
10617W        W53529  21.132   3.961   7.354 -0.0628 -0.3053  0.3344
10618W        W53530  22.347   4.795   8.868  0.0148 -0.0630  0.1133
10619W        W53531  19.719   4.894  10.017 -0.0387 -0.2795 -0.0896
10620W        W53532  20.829   3.710   7.731  0.0806  0.0572 -0.0782
10621W        W53533  22.062   5.865   9.189 -0.1078 -0.1257 -0.0475
10622W        W53534  18.548   3.361   8.155  0.0668 -0.1207  0.1189
10623W        W53535  20.136   5.495   9.422  0.0053 -0.0732  0.0713
10624W        W53536  21.243   1.627   8.885  0.1924  0.0818  0.1162
10625W        W53537  19.581   7.011   7.148 -0.0956  0.2112 -0.1575
10626W        W53538  18.998   4.966   9.224 -0.0387 -0.0934 -0.1464
10627W        W53539  20.611   7.037   9.239  0.2883  0.1058 -0.1092
10628W        W53540  16.835   6.366   9.239  0.2525  0.1961 -0.3609
10629W        W53541  18.918   7.415   8.962  0.2083  0.0031  0.0292
10630W        W53542  18.305   3.056   7.785 -0.0267  0.0790 -0.1502
10631W        W53543  20.879   4.403   7.327  0.0495 -0.1075 -0.2789
10632W        W53544  18.525   7.685   9.362  0.0933  0.1912 -0.1486
10633W        W53545  19.014   4.952   7.582 -0.0715  0.2738 -0.1446
10634W        W53546  20.738   3.056   7.772  0.0049  0.2347  0.1730
10635W        W53547  20.422   4.878   9.520 -0.1483 -0.4436 -0.0233
10636W        W53548  18.577   4.768   8.469 -0.1391 -0.0374  0.0137
10637W        W53549  19.847   5.165   7.865  0.0315 -0.1420  0.4379
10638W        W53550  20.785   5.790   6.752 -0.2815  0.0602 -0.1025
10639W        W53551  19.511   3.634   9.108 -0.0075 -0.0305  0.0632
10640W        W53552  20.160   3.840   8.211  0.0290 -0.0370 -0.1677
10641W        W53553  18.620   5.625   8.311 -0.1762  0.0796  0.5512
10642W        W53554  17.108   3.064   9.249 -0.0226 -0.0467  0.4546
10643W        W53555  18.724   3.791   7.695  0.1183  0.0063 -0.3893
10644W        W53556  20.965   7.007   8.812 -0.0831  0.0281  0.2117
10645W        W53557  19.451   5.942   9.757 -0.2238  0.1674  0.0811
10646W        W53558  19.628   7.830   7.828  0.0941  0.0404 -0.3287
10647W        W53559  21.285   5.667   7.936 -0.0304  0.1748 -0.1640
10648W        W53560  20.292   8.344   9.395  0.0662  0.2114  0.3441
10649W        W53561  17.833   4.929   9.162 -0.0053  0.0138  0.1185
10650W        W53562  20.688   9.692   8.864 -0.0022  0.0428  0.1471
10651W        W53563  22.439   5.684   9.428 -0.1253 -0.3525  0.2332
10652W        W53564  21.896   4.688   7.439  0.3230 -0.2493 -0.0412
10653W        W53565  19.726   3.547   8.627 -0.0005  0.0914  0.0853
10654W        W53566  18.625   5.963   7.933  0.0084 -0.3318 -0.2918
10655W        W53567  20.618   5.636   9.059 -0.2977 -0.0164 -0.1284
10656W        W53568  19.999   8.241   6.254  0.0529  0.0081  0.1711
10657W        W53569  17.547   3.501   9.734 -0.0734 -0.0997  0.0857
10658W        W53570  18.692   5.402   7.675  0.0954 -0.1640 -0.0688
10659W        W53571  21.080   5.991   9.061  0.0477 -0.2551  0.0005
10660W        W53572  20.289   6.645   7.568 -0.0466  0.1313 -0.0065
10661W        W53573  20.479   6.542   9.151 -0.2057  0.4194 -0.0417
10662W        W53574  21.641   4.569   8.456 -0.0591 -0.0075 -0.0229
10663W        W53575  21.978   7.071   9.025 -0.1100 -0.1923  0.3448
10664W        W53576  18.462   4.642   9.955 -0.1281  0.0038 -0.0438
10665W        W53577  22.026   4.001   7.695 -0.0891 -0.3464  0.2048
10666W        W53578  21.600   3.161   8.342  0.0280  0.0061  0.3711
10667W        W53579  18.807   5.214   8.686  0.2314 -0.0561  0.1940
10668W        W53580  19.233   5.717   6.909  0.3776  0.0544 -0.0990
10669W        W53581  18.422   6.028   6.810  0.1571  0.1851  0.0778
10670W        W53582  19.443   5.407   8.185 -0.0061  0.0389 -0.0326
10671W        W53583  17.207   5.766   9.175  0.1670 -0.1777 -0.0226
10672W        W53584  18.826   4.313   7.653  0.0861 -0.0957 -0.0821
10673W        W53585  21.622   5.575   8.289  0.0918  0.0290  0.0674
10674W        W53586  20.155   3.187   7.356 -0.0381  0.1223 -0.1764
10675W        W53587  18.728   3.734   8.431  0.2699 -0.2374  0.1416
10676W        W53588  21.451   7.555   7.891 -0.2511 -0.2285 -0.1112
10677W        W53589  21.208   6.020   8.302 -0.0241  0.1887 -0.0988
10678W        W53590  19.890   2.047   7.987 -0.0335  0.1728  0.1609
10679W        W53591  18.426   5.464   7.120 -0.0103 -0.2869  0.3393
10680W        W53592  18.495   4.338   8.008  0.0891  0.3247  0.0989
10681W        W53593  19.503   4.095   8.824 -0.0813 -0.2853  0.0733
10682W        W53594  20.190   6.225   9.536 -0.0341 -0.1028 -0.0234
10683W        W53595  20.556   7.308   8.028  0.1465 -0.0176  0.2195
10684W        W53596  20.092   2.717   9.341 -0.0910 -0.5451 -0.2714
10685W        W53597  22.536   5.910   8.661 -0.0306  0.4302  0.0371
10686W        W53598  22.010   5.787   8.638  0.0901 -0.1343 -0.2195
10687W        W53599  22.453   5.262   9.799 -0.2594  0.0565  0.2289
10688W        W53600  20.765   5.104   8.628  0.3126 -0.0938 -0.1506
10689W        W53601  20.832   4.977   9.149 -0.0018 -0.1347  0.0707
10690W        W53602  20.056   3.379   8.269  0.1778  0.0539 -0.0946
10691W        W53603  20.041   4.119   7.790 -0.1180 -0.2023 -0.0914
10692W        W53604  20.436   5.417   8.280  0.0021  0.1758 -0.1854
10693W        W53605  19.987   4.440   9.515  0.1099  0.0080  0.2971
10694W        W53606  20.215   4.329   8.310  0.0832 -0.0626  0.0768
10695W        W53607  20.495   6.630   8.550 -0.0887 -0.1001  0.0990
10696W        W53608  20.538   5.549   7.800  0.0187 -0.0841 -0.3610
10697W        W53609  20.394   5.658   8.668  0.0746 -0.0113  0.2351
10698W        W53610  19.662   6.765   9.172 -0.1657 -0.1383 -0.1692
10699W        W53611  19.061   5.494   9.519 -0.3128  0.1144  0.0546
10700W        W53612  22.362   3.700   9.371  0.0666 -0.0758 -0.2259
10701W        W53613  18.848   3.364   9.764 -0.3538  0.0616 -0.1253
10702W        W53614  20.846   6.879   7.888  0.0123 -0.4489  0.2105
10703W        W53615  19.810   5.987   8.223 -0.0081 -0.0942  0.4080
10704W        W53616  20.528   3.479   9.279  0.1528  0.0416  0.3185
10705W        W53617  20.277   1.843   9.257 -0.0895  0.2590 -0.0418
10706W        W53618  21.228   3.466   7.435 -0.0311  0.0797 -0.3345
10707W        W53619  18.597   6.617   8.517 -0.0366  0.0910 -0.0654
10708W        W53620  20.103   6.987   9.112 -0.0202  0.0193 -0.0098
10709W        W53621  19.749  10.120   3.047  0.0819  0.1773 -0.0476
10710W        W53622  18.853   8.079   2.309 -0.0427 -0.1860 -0.0073
10711W        W53623  20.991   8.359   0.935  0.2224 -0.2476  0.1437
10712W        W53624  21.731   9.405   0.412  0.1494  0.1166 -0.0262
10713W        W53625  18.863   9.142   2.301  0.2297 -0.1343 -0.2951
10714W        W53626  20.733  10.923   1.311 -0.0980 -0.0288 -0.0762
10715W        W53627  18.608   7.646   2.271 -0.0540 -0.2456 -0.0118
10716W        W53628  19.495  11.064   1.147 -0.0709 -0.1376 -0.3345
10717W        W53629  21.829  10.497   2.721 -0.0223 -0.2264 -0.0975
10718W        W53630  20.406   8.154  31.373  0.1159  0.2629 -0.1128
10719W        W53631  19.240   9.401   3.641  0.1481 -0.3330  0.1789
10720W        W53632  18.081  10.100   3.299  0.0407  0.0993  0.0421
10721W        W53633  19.094   5.893  31.406  0.1126  0.0155  0.2348
10722W        W53634  18.607   6.998   2.245 -0.2114 -0.0027  0.1062
10723W        W53635  20.962   9.985   3.546 -0.2546  0.1096  0.0898
10724W        W53636  18.058   9.728   0.540  0.1618  0.0531 -0.3321
10725W        W53637  20.810   9.490   2.834 -0.3096  0.1878 -0.1235
10726W        W53638  20.662   7.481   1.037  0.0958  0.2270  0.3266
10727W        W53639  19.954   8.759   1.492  0.3333  0.0987  0.0297
10728W        W53640  18.749   7.358   2.731 -0.0255  0.1125 -0.1409
10729W        W53641  19.513   8.394   3.534  0.1377 -0.3976  0.4281
10730W        W53642  19.422   9.894   0.569 -0.2321  0.0122 -0.0122
10731W        W53643  20.569   9.264  31.435 -0.2305  0.0203 -0.0150
10732W        W53644  16.896   9.529   2.251 -0.0242 -0.1472 -0.0691
10733W        W53645  18.578   8.920   1.848  0.0289  0.3854  0.0523
10734W        W53646  20.691   7.981   1.132  0.1504  0.1629  0.3376
10735W        W53647  21.447   8.880   1.951 -0.0847 -0.0020 -0.0888
10736W        W53648  19.683  10.208   0.997  0.0501  0.1786  0.0361
10737W        W53649  20.730  10.822   2.213 -0.3066 -0.1012 -0.0360
10738W        W53650  19.995   9.848   3.876  0.1504 -0.0061 -0.0062
10739W        W53651  17.706  11.812   1.583 -0.0096  0.5283  0.0129
10740W        W53652  18.062  11.037   2.023  0.4265  0.2683  0.1048
10741W        W53653  18.935  10.163   1.466 -0.0117 -0.1372 -0.1375
10742W        W53654  22.533   7.314   0.830  0.2339  0.2781  0.1414
10743W        W53655  21.107  11.111   2.434 -0.0755  0.0897 -0.1428
10744W        W53656  20.727  11.407   2.827 -0.2166 -0.4692  0.1809
10745W        W53657  19.461   9.400   0.344 -0.2811 -0.1150 -0.0550
10746W        W53658  21.213  10.874   2.005 -0.1358  0.0799 -0.2419
10747W        W53659  18.056  12.041   4.355 -0.1541  0.1392 -0.0761
10748W        W53660  21.119   8.484   3.362 -0.1180 -0.1711  0.1901
10749W        W53661  20.452   8.490   2.621 -0.2507  0.0923 -0.2136
10750W        W53662  18.729  10.376   0.080  0.1445 -0.1864 -0.0506
10751W        W53663  21.179   9.492   3.219 -0.1460  0.0485  0.0257
10752W        W53664  18.479  10.335   5.504 -0.3214  0.1677  0.1382
10753W        W53665  19.866  10.593   2.315 -0.1175 -0.1344  0.0059
10754W        W53666  21.859   7.394   2.858  0.1976 -0.0032 -0.1538
10755W        W53667  18.012   8.548   0.294 -0.3247 -0.1702  0.0434
10756W        W53668  19.595   7.560  31.684  0.1253  0.1862  0.3373
10757W        W53669  19.759   7.911   1.162  0.1242 -0.0855  0.3540
10758W        W53670  20.542   8.613   0.791  0.0558  0.0989 -0.3932
10759W        W53671  18.720   7.382   0.255  0.1481  0.4890  0.3853
10760W        W53672  19.505  11.350   1.970  0.2026 -0.0177  0.0487
10761W        W53673  20.450   8.516   1.274 -0.1870  0.2187  0.1196
10762W        W53674  20.917  10.308   4.341  0.1895  0.0623  0.0624
10763W        W53675  20.203   8.174   0.944  0.0114 -0.2347 -0.2672
10764W        W53676  20.848   8.827   2.485  0.0444 -0.0075 -0.0381
10765W        W53677  18.443  10.505   2.965 -0.1619  0.1542 -0.0341
10766W        W53678  19.166   9.950   2.268 -0.1507 -0.1037  0.1184
10767W        W53679  20.552   9.919  30.827 -0.0800  0.1815 -0.4142
10768W        W53680  22.533  10.405   2.052  0.0039  0.0603 -0.1617
10769W        W53681  20.965   8.910   0.837 -0.1843  0.0870 -0.2051
10770W        W53682  18.056   8.129   1.874  0.0576 -0.2484  0.0925
10771W        W53683  17.588   9.335   4.148 -0.0309 -0.1734 -0.1116
10772W        W53684  16.826   9.202   1.896 -0.2015 -0.0045 -0.0422
10773W        W53685  19.787   7.325  30.822  0.1003 -0.1143 -0.0172
10774W        W53686  21.654   9.988   4.346  0.0317  0.2566  0.2050
10775W        W53687  18.549  10.806   4.873 -0.0379  0.1855 -0.0545
10776W        W53688  21.176   7.338   1.467 -0.0039 -0.0722  0.0264
10777W        W53689  19.743   9.820   1.917  0.2039 -0.4275  0.0372
10778W        W53690  20.359  10.560   2.902 -0.2043 -0.2824 -0.2007
10779W        W53691  20.763   8.436  31.900  0.0224 -0.0989  0.0874
10780W        W53692  20.699   7.587   1.664  0.0912  0.0407 -0.0648
10781W        W53693  20.162   7.833   1.455 -0.0491  0.1491  0.0253
10782W        W53694  20.345  10.023   0.893 -0.1039 -0.0102  0.0777
10783W        W53695  20.873   9.543   0.265  0.0328  0.1438 -0.0354
10784W        W53696  20.414  10.514   2.401  0.0889  0.3346  0.3174
10785W        W53697  22.331   7.908   0.302  0.1267  0.0469 -0.0476
10786W        W53698  18.333  11.556   2.703 -0.1967 -0.0192 -0.0805
10787W        W53699  20.205   8.780   2.919  0.4056 -0.0615  0.2726
10788W        W53700  18.918  10.836   4.537 -0.0978 -0.0767  0.1515
10789W        W53701  20.081   9.161  31.631  0.0917  0.0735  0.2268
10790W        W53702  19.055  10.347   1.975 -0.2610 -0.0648  0.3345
10791W        W53703  19.977   9.268   1.563  0.2532  0.1643  0.1154
10792W        W53704  19.223   8.305   2.606 -0.2886 -0.0273  0.0167
10793W        W53705  19.605   9.035   2.972  0.0497 -0.2233  0.1714
10794W        W53706  22.499   7.524   1.830  0.2156  0.4507  0.2392
10795W        W53707  18.492   7.341   3.145  0.0701 -0.2111  0.2020
10796W        W53708  20.067   7.138   2.227  0.0931 -0.0499 -0.1793
10797W        W53709  19.922   8.362   0.123 -0.1322  0.0831  0.0000
10798W        W53710  21.006   9.906   2.033 -0.1781 -0.2253  0.0463
10799W        W53711  22.231   8.262  31.914 -0.0537  0.0296 -0.0411
10800W        W53712  20.386   9.707   0.478  0.5386  0.1267  0.2698
10801W        W53713  17.419   9.693   2.725  0.0252  0.2065  0.1490
10802W        W53714  19.073   8.708   1.870 -0.0627 -0.1140 -0.0013
10803W        W53715  19.267   8.604   4.719  0.0779  0.0186  0.0660
10804W        W53716  18.544   9.320   3.113  0.1357 -0.1875 -0.2987
10805W        W53717  20.366   7.968   4.240 -0.1562  0.0969  0.1979
10806W        W53718  19.568   5.241   0.386 -0.3099  0.0107  0.1315
10807W        W53719  20.309   9.132   2.010  0.1232 -0.0766  0.4114
10808W        W53720  18.436   9.150   1.103  0.1335 -0.1101  0.2634
10809W        W53721  16.974   8.689   1.008 -0.1326  0.0326 -0.3480
10810W        W53722  23.168   9.228   4.791  0.2025  0.1828  0.0410
10811W        W53723  19.764  10.705   0.237 -0.4130 -0.1665  0.1757
10812W        W53724  20.583   9.811   1.264  0.0982 -0.2240 -0.0133
10813W        W53725  20.662   9.416   0.836 -0.3239 -0.4001  0.2530
10814W        W53726  19.152   7.625   4.592 -0.2821 -0.3984 -0.0201
10815W        W53727  17.772   8.279   0.610 -0.0233 -0.0472  0.2338
10816W        W53728  19.284  10.902   0.612 -0.1498  0.1966 -0.0208
10817W        W53729  19.861  10.645   2.898  0.1488  0.2402  0.2534
10818W        W53730  18.195   8.223   0.805 -0.4317 -0.0262  0.0321
10819W        W53731  21.353   7.643   2.294  0.1180  0.3374 -0.0044
10820W        W53732  21.004   8.622   1.844 -0.2868  0.0457  0.0488
10821W        W53733  19.324  10.648   2.898  0.2755  0.1068 -0.4500
10822W        W53734  20.103   7.773   3.475 -0.4177  0.0013  0.1498
10823W        W53735  22.586  10.085   4.050 -0.1102 -0.1104 -0.0344
10824W        W53736  19.259   8.209   1.934 -0.3549  0.1633  0.3369
10825W        W53737  19.994   7.654  31.165 -0.0189 -0.0922  0.0168
10826W        W53738  20.028  11.515   0.349  0.5475 -0.1108  0.0163
10827W        W53739  17.837   9.991   0.993 -0.1888 -0.1087  0.3355
10828W        W53740  17.413   8.945   1.144 -0.1696 -0.0259  0.1036
10829W        W53741  20.396   9.052   1.094 -0.0350  0.4279  0.3201
10830W        W53742  20.783   8.167   2.847 -0.1139 -0.0016  0.0831
10831W        W53743  18.394   9.888   3.749 -0.2474 -0.0306  0.0139
10832W        W53744  19.415   8.116   4.255  0.1203 -0.1466 -0.0693
10833W        W53745  18.771   9.009   0.745 -0.1184  0.4244  0.1770
10834W        W53746  18.143  10.820   3.858 -0.2138  0.0342 -0.2303
10835W        W53747  19.914   6.792   2.679 -0.1147 -0.0403 -0.2106
10836W        W53748  20.953   7.673   0.496  0.1392 -0.2427  0.2434
10837W        W53749  20.710   9.316   4.081 -0.0893  0.0961  0.0241
10838W        W53750  21.279  10.370   0.525  0.2437 -0.0441 -0.2094
10839W        W53751  19.562   7.346   0.198 -0.0630 -0.0356  0.0728
10840W        W53752  20.713   6.996   0.115  0.4595 -0.2165  0.1669
10841W        W53753  18.958   9.913   5.101 -0.0058 -0.0106  0.4128
10842W        W53754  19.672  10.144   0.199  0.3118  0.2635  0.0983
10843W        W53755  20.667  10.430   3.315  0.2925  0.1485 -0.0508
10844W        W53756  19.725   9.684   1.392 -0.1011  0.1010  0.1894
10845W        W53757  20.985  10.093   1.471  0.1773 -0.2003 -0.3074
10846W        W53758  18.323   9.875   2.945  0.0607 -0.1785 -0.0123
10847W        W53759  21.207   9.739   4.254  0.2873  0.0818  0.0801
10848W        W53760  20.177   9.921   1.582 -0.4523 -0.2734  0.4325
10849W        W53761  20.427   7.152   1.884  0.0695  0.0884  0.1305
10850W        W53762  19.161   9.228  31.823  0.0669  0.0115 -0.0224
10851W        W53763  20.922   6.845   1.068  0.2695  0.2108  0.2245
10852W        W53764  18.162  11.906   0.065  0.0386  0.1637  0.2984
10853W        W53765  20.291   7.147   2.746  0.1346  0.0933  0.0654
10854W        W53766  20.388   7.936   1.985  0.2884  0.0171 -0.1000
10855W        W53767  18.220   7.860   3.116  0.2544 -0.1011 -0.1208
10856W        W53768  21.384  10.128   3.919 -0.1555  0.0370 -0.2671
10857W        W53769  21.262   9.250   0.541  0.1192  0.3240 -0.1963
10858W        W53770  20.729   9.331   3.538  0.0956 -0.0616  0.0858
10859W        W53771  18.872   9.290   1.175 -0.1293  0.3952  0.0422
10860W        W53772  19.500   8.550   2.192 -0.1146 -0.0598 -0.2479
10861W        W53773  19.878   7.961   1.830 -0.0641  0.0890 -0.3758
10862W        W53774  18.614  11.784   3.042 -0.1249 -0.0960  0.1063
10863W        W53775  21.051   9.681   2.442 -0.0749  0.0945  0.1278
10864W        W53776  20.407  10.046   3.626 -0.2634 -0.1679  0.2211
10865W        W53777  19.719   8.058   3.225  0.1600  0.0683 -0.0668
10866W        W53778  18.959   8.662  31.881 -0.2551  0.1896 -0.1208
10867W        W53779  17.986  10.285   0.469 -0.1586  0.1830 -0.2207
10868W        W53780  18.922  10.156   0.514  0.0892 -0.0898 -0.0645
10869W        W53781  18.905   7.402   0.753  0.1931 -0.0087  0.0504
10870W        W53782  21.027   9.936   3.007 -0.0151 -0.2927 -0.1308
10871W        W53783  19.602   9.667  31.944 -0.2350  0.3307 -0.2403
10872W        W53784  20.263  11.042   3.029  0.0584  0.0363 -0.0060
10873W        W53785  19.792  10.635   1.811  0.3038 -0.1077  0.0473
10874W        W53786  21.507   7.304   1.843 -0.0885 -0.1129  0.1711
10875W        W53787  17.905  11.443   2.544 -0.0467  0.2518  0.1318
10876W        W53788  18.335   8.199   1.305  0.1487  0.0461 -0.1069
10877W        W53789  17.151   8.773   1.750 -0.0493 -0.0704 -0.1188
10878W        W53790  20.058   6.623   0.827  0.0727 -0.0626 -0.2661
10879W        W53791  20.899   9.119   1.954  0.0843 -0.2001  0.1243
10880W        W53792  18.775   8.574   2.256  0.2373  0.3845 -0.4621
10881W        W53793  19.137   7.712   2.050  0.2098 -0.1804  0.0192
10882W        W53794  17.334  11.722   3.759 -0.0272  0.0980  0.0032
10883W        W53795  20.752   9.833   4.022 -0.0529 -0.1946 -0.1067
10884W        W53796  20.135   5.933  31.889 -0.0341 -0.2024 -0.1084
10885W        W53797  20.132  10.249   2.030  0.1938 -0.0699  0.1233
10886W        W53798  19.656  10.312   4.042  0.0885  0.2044 -0.3401
10887W        W53799  17.057   8.356   0.266  0.2605 -0.1094 -0.1863
10888W        W53800  19.118   9.049   3.246  0.2182 -0.1219  0.0812
10889W        W53801  18.819   7.270   1.280  0.0376 -0.0010  0.0324
10890W        W53802  19.355   9.055   2.157 -0.0494 -0.2137 -0.1734
10891W        W53803  19.746   9.619   2.926 -0.0955  0.0881 -0.1727
10892W        W53804  19.398  10.398   0.501  0.2354 -0.0888 -0.1558
10893W        W53805  18.197   8.659   1.491 -0.1827  0.0351 -0.1433
10894W        W53806  18.947  10.647   3.301 -0.2717  0.1729 -0.0188
10895W        W53807  21.147  11.451   3.554 -0.0163  0.1676 -0.0168
10896W        W53808  19.807   9.346   2.037  0.1408  0.0349 -0.2383
10897W        W53809  18.073   8.864   1.925  0.1954 -0.0215  0.0780
10898W        W53810  19.436   9.371   1.744 -0.3548 -0.1665  0.3388
10899W        W53811  22.271  10.233   3.483 -0.1005 -0.1492  0.0162
10900W        W53812  20.321   7.143   0.885  0.0894 -0.2074 -0.1023
10901W        W53813  16.499  11.446   3.119 -0.2067  0.0416  0.1248
10902W        W53814  19.361   6.413   2.242 -0.2964 -0.0536  0.0372
10903W        W53815  24.284  10.481  30.600  0.2760  0.1858  0.1075
10904W        W53816  21.085   8.976   3.963  0.0889 -0.0049 -0.3189
10905W        W53817  20.539   9.426   1.656  0.4549 -0.0011 -0.2587
10906W        W53818  19.252   9.592   1.301  0.0722  0.1378  0.0199
10907W        W53819  18.680   8.795   1.377 -0.1040  0.4394 -0.0670
10908W        W53820  19.907   8.296   4.055 -0.0076 -0.0385 -0.0067
10909W        W53821  18.817  10.721   2.344  0.2296  0.0094  0.2721
10910W        W53822  17.988  10.946   1.205  0.0239 -0.1288  0.0275
10911W        W53823  18.864  10.687   2.799  0.0113  0.2981 -0.2177
10912W        W53824  19.818   7.678   0.519  0.0819  0.0168 -0.1105
10913W        W53825  21.759   8.740  31.782 -0.0907  0.0250  0.0903
10914W        W53826  19.504   7.524   2.374  0.0955  0.0706 -0.2851
10915W        W53827  21.280   7.878   3.626  0.1458 -0.3355 -0.0999
10916W        W53828  22.146   7.442   0.091  0.1436 -0.0078  0.3913
10917W        W53829  20.526   7.693   3.705  0.0814  0.2051 -0.3571
10918W        W53830  19.363   7.787   0.716 -0.0372  0.0993  0.1516
10919W        W53831  21.292   8.579   2.303  0.0544  0.0755 -0.1716
10920W        W53832  17.928   8.923   4.456 -0.2519 -0.0973 -0.1222
10921W        W53833  19.445  12.160   4.755 -0.0323  0.0542 -0.0917
10922W        W53834  18.677  10.116   3.215  0.0695  0.1492 -0.1210
10923W        W53835  18.652   6.865   0.090 -0.0630  0.0154 -0.2866
10924W        W53836  19.159   7.503   0.379  0.0969 -0.1636 -0.1437
10925W        W53837  19.230   9.834   1.759 -0.0075 -0.4432 -0.0983
10926W        W53838  21.565   8.565   3.146 -0.1756  0.1205  0.1548
10927W        W53839  19.977   9.473   2.487 -0.0637  0.1093 -0.0895
10928W        W53840  22.036   7.583   1.591  0.1238 -0.0350  0.0210
10929W        W53841  19.777   9.304   3.389 -0.1186 -0.0920 -0.0272
10930W        W53842  21.182   8.020   1.304 -0.0262  0.1091  0.1150
10931W        W53843  20.840   9.203   1.300  0.0924 -0.0805 -0.2256
10932W        W53844  18.286   9.280   1.619  0.2299 -0.3612  0.0684
10933W        W53845  17.829   8.490   3.473 -0.1849  0.1668 -0.0125
10934W        W53846  20.820   8.040   3.431  0.1518  0.0600  0.0401
10935W        W53847  20.100   7.511   1.870 -0.0971 -0.2348 -0.0735
10936W        W53848  19.579   7.500   1.871 -0.1694  0.0815 -0.0294
10937W        W53849  19.846   8.727   3.318 -0.2003 -0.1243  0.0452
10938W        W53850  19.705   9.058   2.532  0.2544 -0.0610 -0.2188
10939W        W53851  17.680   7.900   3.130 -0.0978  0.0162  0.0906
10940W        W53852  21.506  11.935   2.424  0.1101 -0.0388  0.1759
10941W        W53853  21.712   6.929  31.199 -0.0780 -0.0062 -0.0119
10942W        W53854  20.378   8.038   3.116 -0.1414  0.1190 -0.2096
10943W        W53855  22.072   8.444   1.201  0.1302 -0.0782 -0.0737
10944W        W53856  20.183   8.411   1.766  0.0393 -0.3602 -0.3137
10945W        W53857  18.619  10.042   2.136 -0.1691 -0.0224 -0.2426
10946W        W53858  21.199   8.972   3.458  0.1678 -0.0666  0.3271
10947W        W53859  18.489   8.116   0.242 -0.3066 -0.1165 -0.0257
10948W        W53860  21.284   8.069   2.583 -0.0876 -0.0584 -0.0593
10949W        W53861  19.865   9.755   0.489  0.0510  0.1254  0.0963
10950W        W53862  20.982   8.688   1.346  0.0526  0.1734  0.3314
10951W        W53863  21.675   7.750   1.871  0.1626 -0.0158 -0.5015
10952W        W53864  19.488   7.814   2.765 -0.3175  0.0703 -0.0936
10953W        W53865  19.099  11.675   3.253 -0.1288  0.1496  0.0543
10954W        W53866  17.598   7.597   1.300 -0.1717 -0.2298  0.1573
10955W        W53867  19.871   9.138   0.997  0.2931 -0.0274 -0.0529
10956W        W53868  19.913  10.196   3.516 -0.0481  0.1295 -0.2718
10957W        W53869  21.575  10.493   4.795 -0.0354  0.0393 -0.1868
10958W        W53870  17.762   9.313   0.283  0.1999 -0.0370  0.1200
10959W        W53871  21.419   8.583   3.771  0.1054  0.1798 -0.3464
10960W        W53872  17.442   9.981   1.330 -0.2508  0.1756  0.2194
10961W        W53873  20.852   7.687   2.139 -0.4201  0.2492 -0.1754
10962W        W53874  20.114  10.985   2.513 -0.0970  0.1946  0.1599
10963W        W53875  18.393  10.497   3.514  0.4220  0.0779  0.0707
10964W        W53876  20.102   9.278   2.941  0.1521  0.3155  0.4093
10965W        W53877  19.790   8.573   2.647 -0.0578 -0.0248 -0.1663
10966W        W53878  20.990   6.643   0.574 -0.1121  0.1805  0.0956
10967W        W53879  19.292  10.805   3.625 -0.2135 -0.4133 -0.1906
10968W        W53880  22.302   9.233   2.987 -0.0533  0.1475 -0.0201
10969W        W53881  20.244  10.307   4.058  0.0234 -0.0357  0.0059
10970W        W53882  18.539   9.471   0.696 -0.1739  0.0217 -0.0108
10971W        W53883  18.592  10.925   3.327  0.0849 -0.1079  0.1389
10972W        W53884  22.314   9.475   1.673 -0.0631  0.1453 -0.1072
10973W        W53885  19.647  10.204   1.558  0.0443 -0.4298 -0.2326
10974W        W53886  18.569   8.884   3.462  0.0486  0.0852  0.4151
10975W        W53887  19.052  10.822   5.040  0.1209 -0.1894 -0.0512
10976W        W53888  21.742   9.846   2.852  0.0017  0.0117  0.3167
10977W        W53889  18.509   8.413  31.653 -0.0742 -0.4217  0.1938
10978W        W53890  20.406   8.457   0.377 -0.1970  0.0397  0.5321
10979W        W53891  17.364  10.996   3.174 -0.1551  0.0771  0.0699
10980W        W53892  18.844   9.695   3.037  0.1190 -0.0353  0.1905
10981W        W53893  18.478  10.329   1.311 -0.2981 -0.1570 -0.1015
10982W        W53894  20.822  10.622   0.401  0.0989  0.1884 -0.0255
10983W        W53895  22.443   9.934   2.701  0.2103  0.1354 -0.1436
10984W        W53896  18.894  10.685   0.433 -0.0152 -0.1605  0.3924
10985W        W53897  19.613   8.390   1.711 -0.0960  0.0999  0.0555
10986W        W53898  19.539  10.260   2.091 -0.0242 -0.1756 -0.0449
10987W        W53899  19.862   9.572  31.494  0.0797 -0.2113  0.0565
10988W        W53900  19.454   9.478   2.417 -0.0120  0.0015  0.1059
10989W        W53901  19.133  11.111   2.597 -0.0989  0.3320  0.3101
10990W        W53902  21.635   9.577   3.386 -0.4131 -0.0725  0.4242
10991W        W53903  21.133   5.783  30.863  0.1484 -0.2047 -0.0304
10992W        W53904  20.815   8.279   4.379 -0.1253  0.2332 -0.0153
10993W        W53905  21.186   7.766   1.775 -0.4029  0.2135  0.1280
10994W        W53906  19.854  11.179   3.881 -0.3099 -0.0422  0.2522
10995W        W53907  20.179   8.843   2.364  0.1771  0.1290  0.1985
10996W        W53908  20.117   7.641   0.943  0.0267  0.0800 -0.0793
10997W        W53909  21.035   9.023   2.985 -0.0940 -0.3985  0.1127
10998W        W53910  22.745   7.714   2.930 -0.1640 -0.1828  0.0418
10999W        W53911  16.714  11.249   5.087  0.1827 -0.0639  0.0770
11000W        W53912  22.135   9.590   2.496  0.1206  0.1701 -0.0598
11001W        W53913  19.152   8.775   1.170 -0.0982 -0.0420 -0.0373
11002W        W53914  19.098   8.353   1.452  0.0135 -0.0121 -0.2736
11003W        W53915  21.798   7.450   2.304 -0.1532 -0.0970  0.2714
11004W        W53916  20.048   8.654   0.732  0.1371 -0.0667  0.1583
11005W        W53917  20.567   8.631   2.127  0.2388  0.0669 -0.0590
11006W        W53918  19.625   9.586   0.905  0.6523  0.2803 -0.3535
11007W        W53919  18.063  11.646   3.191 -0.0205 -0.3221  0.0222
11008W        W53920  19.340  10.677   1.500  0.1243 -0.1186  0.1828
11009W        W53921  18.269   7.233  31.957 -0.1036 -0.2120  0.1347
11010W        W53922  21.222   7.194   0.730 -0.0688  0.0814  0.1224
11011W        W53923  19.358   9.512   3.161  0.1424  0.0346  0.0674
11012W        W53924  21.341   7.113   2.265  0.0295  0.0014 -0.1403
11013W        W53925  18.327   8.687   0.994 -0.3081  0.3377 -0.3188
11014W        W53926  22.880   8.554   0.748 -0.4329 -0.1848 -0.4173
11015W        W53927  19.626   9.836   3.522 -0.1535  0.0107  0.2400
11016W        W53928  19.444   7.871   1.505  0.1903  0.0459  0.0817
11017W        W53929  19.437   8.576   0.567 -0.0250  0.1899  0.1140
11018W        W53930  21.113  10.437   2.943 -0.0617 -0.0203  0.3218
11019W        W53931  19.888   8.064  31.680 -0.1706 -0.0040 -0.0345
11020W        W53932  19.447  11.314   3.567  0.0194  0.1239  0.0575
11021W        W53933  17.845   8.794   0.768 -0.0040 -0.0975 -0.1427
11022W        W53934  19.077   8.172  31.831 -0.0189 -0.0186 -0.2217
11023W        W53935  16.902  10.688   1.842 -0.2932  0.2010 -0.3885
11024W        W53936  18.849   8.435   2.972  0.1991 -0.1253 -0.0987
11025W        W53937  20.796  11.093   3.731 -0.2377 -0.0648  0.0684
11026W        W53938  19.344   8.256   0.933 -0.2928  0.1728  0.1189
11027W        W53939  20.685   9.721  31.327  0.3904  0.2251  0.0045
11028W        W53940  20.573   8.514   3.177  0.1313  0.0992 -0.1741
11029W        W53941  18.391  10.704   0.347 -0.0377  0.0955 -0.0468
11030W        W53942  21.588   8.674   1.564 -0.1823  0.0974  0.1143
11031W        W53943  20.733  10.593   1.722  0.0342 -0.1316 -0.1400
11032W        W53944  17.838   8.999   2.571 -0.1960  0.4165 -0.0069
11033W        W53945  19.716   9.917   2.465  0.0167 -0.0299 -0.0528
11034W        W53946  22.445   9.871   2.224 -0.0747 -0.0077 -0.3537
11035W        W53947  18.720   7.339   1.821 -0.0683 -0.3668 -0.1606
11036W        W53948  20.021   7.755   2.305  0.0727  0.4847 -0.0308
11037W        W53949  17.989  10.409   2.750  0.1458  0.0993 -0.3517
11038W        W53950  20.867   8.132   2.331  0.0126  0.1454  0.3106
11039W        W53951  19.982   8.077   2.710  0.1061  0.1970  0.0144
11040W        W53952  20.440  10.206   0.391  0.0572 -0.0089  0.1179
11041W        W53953  21.218   7.098   2.777  0.5037 -0.1533  0.0502
11042W        W53954  21.316  11.715   1.762  0.0259 -0.0172 -0.0901
11043W        W53955  19.203  11.700   4.321  0.0564  0.0591  0.2405
11044W        W53956  18.071   8.973   0.130  0.3289 -0.0052 -0.0232
11045W        W53957  20.267  10.120   3.146 -0.1062 -0.0683  0.0631
11046W        W53958  20.188   9.543   0.930 -0.1552 -0.1210  0.1916
11047W        W53959  19.986  10.225   0.563 -0.3051  0.1188 -0.2476
11048W        W53960  21.196  10.387   1.847 -0.1243  0.0337  0.1442
11049W        W53961  19.425   8.464   0.059  0.0433 -0.2113 -0.0611
11050W        W53962  20.380   9.581   3.774  0.1023  0.0383 -0.0644
11051W        W53963  18.357   8.086   2.304 -0.0994  0.0485 -0.1146
11052W        W53964  21.247   6.084   1.290  0.0767  0.1733  0.0965
11053W        W53965  20.575   6.612   0.796 -0.0561 -0.2287 -0.1458
11054W        W53966  19.026   9.500   2.033 -0.1003 -0.0815 -0.0390
11055W        W53967  18.355   9.386   0.190 -0.1013 -0.1211  0.1921
11056W        W53968  19.066   7.990   0.367  0.1683 -0.2832 -0.1581
11057W        W53969  18.867  10.961   1.724 -0.0806 -0.0250 -0.0362
11058W        W53970  19.040   7.727   2.609  0.6058  0.2992  0.2099
11059W        W53971  18.596   9.166   4.224  0.1348  0.0229  0.0329
11060W        W53972  17.668  10.148   2.435 -0.3225  0.0550  0.4062
11061W        W53973  16.534   7.223   0.494  0.1275  0.1215 -0.3284
11062W        W53974  20.992   8.889  31.405  0.2919 -0.2158 -0.2387
11063W        W53975  17.602   7.698   0.740  0.0361  0.0270  0.2257
11064W        W53976  16.815   8.376   1.809 -0.0182 -0.2091 -0.0616
11065W        W53977  21.921   9.173   1.712  0.0192  0.0010 -0.2677
11066W        W53978  21.142   9.519   1.142  0.1281  0.0171  0.0988
11067W        W53979  18.980   8.509   0.381  0.0197  0.0562  0.2546
11068W        W53980  21.656  10.945   2.557  0.2193  0.0445  0.1724
11069W        W53981  17.908   7.365   0.495  0.1826 -0.0608  0.0494
11070W        W53982  19.211   9.287   4.533  0.2861  0.0826  0.1347
11071W        W53983  20.080   7.585   4.482 -0.1780 -0.0362  0.1076
11072W        W53984  17.421   7.506   0.338 -0.1271  0.1209  0.0804
11073W        W53985  19.973   7.765   0.074  0.0861  0.2517  0.3493
11074W        W53986  21.277   9.071   1.523  0.2780 -0.2369  0.0439
11075W        W53987  20.724  10.971   0.732 -0.2318 -0.2670 -0.1637
11076W        W53988  19.325   9.871   2.747 -0.1303 -0.2487 -0.1498
11077W        W53989  19.393  10.716   2.284 -0.1774 -0.3720 -0.1837
11078W        W53990  18.032   8.177   2.696  0.4145 -0.1605  0.0689
11079W        W53991  22.360   8.980   2.038 -0.0561  0.3370 -0.1650
11080W        W53992  19.061  10.634   4.068 -0.0180 -0.2661  0.2201
11081W        W53993  21.427   9.861   1.317 -0.1448  0.1126  0.0706
11082W        W53994  20.743   7.690   2.794  0.0160  0.0166  0.0631
11083W        W53995  20.560   8.846   1.659  0.1127 -0.1681 -0.1655
11084W        W53996  18.204   7.792   4.033  0.3806  0.2608  0.1048
11085W        W53997  18.720   9.369   3.652 -0.0730 -0.2826  0.1713
11086W        W53998  22.214   8.390   3.296  0.1971 -0.1477 -0.3500
11087W        W53999  19.249   7.551   1.120 -0.0680  0.0914 -0.2143
11088W        W54000  19.932   7.005   1.791  0.1572  0.2732 -0.1861
11089W        W54001  20.252  10.860   1.050 -0.2782  0.2421  0.0425
11090W        W54002  19.872   8.844   1.977 -0.1490 -0.1647 -0.3448
11091W        W54003  20.489   9.198   2.592 -0.1201  0.0969  0.0209
11092W        W54004  19.155   9.249   2.748  0.0686 -0.0568  0.1133
11093W        W54005  19.859  10.647   1.290  0.1762  0.2301  0.0323
11094W        W54006  21.502   9.294   4.231  0.3220 -0.1373 -0.1731
11095W        W54007  17.804   7.924   0.297 -0.2015  0.1496 -0.1776
11096W        W54008  21.770   8.485   0.256  0.0022  0.0569  0.0189
11097W        W54009  19.665  11.531   3.074 -0.2155 -0.1656  0.1470
11098W        W54010  21.951  10.765   4.535  0.2069 -0.0373  0.0699
11099W        W54011  20.547  11.253   2.342 -0.2460  0.1258  0.0652
11100W        W54012  20.590   9.137   3.118  0.1331 -0.2420 -0.1087
11101W        W54013  18.343   7.640   2.710  0.1409  0.0555  0.0772
11102W        W54014  19.197   8.796   2.577 -0.1144  0.1117 -0.2043
11103W        W54015  21.152   9.206   2.425  0.2601 -0.0408 -0.2684
11104W        W54016  20.434   7.455   2.260  0.0361  0.2369  0.0191
11105W        W54017  18.530   9.428   2.107  0.1087  0.0734  0.0747
11106W        W54018  19.931   7.149   0.539 -0.0159 -0.0677 -0.1420
11107W        W54019  20.245  11.268   3.526 -0.2421 -0.3802  0.0171
11108W        W54020  19.110  11.078   3.138  0.1965 -0.0210  0.2589
11109W        W54021  19.414   9.124   7.427  0.2469  0.2722 -0.2574
11110W        W54022  19.435   7.229   4.738 -0.1998  0.0073 -0.0378
11111W        W54023  22.424   9.111   4.308 -0.3068  0.3384  0.2026
11112W        W54024  21.395   9.054   4.785 -0.1578 -0.1679  0.2218
11113W        W54025  17.425   6.476   5.001  0.0444  0.2312  0.1323
11114W        W54026  19.457  12.007   3.120 -0.0211 -0.3714 -0.1652
11115W        W54027  18.632   6.290   7.184 -0.2457  0.2830 -0.1736
11116W        W54028  20.399  11.580   4.962 -0.3758 -0.0276  0.4249
11117W        W54029  22.088  11.303   6.831 -0.3044 -0.1345  0.0052
11118W        W54030  20.100   9.674   3.240 -0.1240 -0.1416 -0.4758
11119W        W54031  21.502   9.635   5.857 -0.0645  0.0904 -0.1251
11120W        W54032  19.409  10.360   7.076 -0.0702 -0.0815 -0.2065
11121W        W54033  19.413   9.213   5.490 -0.2152  0.0885 -0.0017
11122W        W54034  18.331   7.435   5.717  0.0376 -0.6253 -0.0078
11123W        W54035  21.800   9.593   7.659 -0.3200  0.0445  0.1659
11124W        W54036  18.490   9.891   4.865  0.0429  0.1484 -0.0362
11125W        W54037  18.161   8.814   6.284  0.5251  0.0186 -0.0235
11126W        W54038  19.318   7.160   4.269  0.2370 -0.0789  0.1053
11127W        W54039  19.995  10.533   5.179 -0.1003  0.0123 -0.3023
11128W        W54040  20.423   9.032   5.136  0.0512  0.0314 -0.4375
11129W        W54041  20.530   8.781   8.043 -0.1220  0.1636 -0.3555
11130W        W54042  19.680  10.331   4.749  0.0933  0.2848  0.0152
11131W        W54043  17.964   8.959   3.491 -0.1720  0.1635  0.0356
11132W        W54044  17.924   9.840   4.803 -0.0468  0.2989 -0.1431
11133W        W54045  17.722   8.999   7.947 -0.1057  0.1138 -0.0548
11134W        W54046  22.306   8.907   5.577 -0.0624 -0.0177 -0.0881
11135W        W54047  21.699   8.785   6.575 -0.0877 -0.3766  0.1605
11136W        W54048  19.693  10.108   5.382  0.4973 -0.4114 -0.0806
11137W        W54049  19.947  10.598   4.398  0.1976  0.0255  0.4785
11138W        W54050  20.901   8.108   7.612 -0.0083 -0.0261 -0.0407
11139W        W54051  18.047   8.507   4.152  0.1174 -0.0433 -0.2086
11140W        W54052  17.089  10.342   4.474 -0.1850  0.1176  0.0012
11141W        W54053  19.887   9.845   4.797  0.1494 -0.1010 -0.1076
11142W        W54054  21.577   9.252   6.414 -0.1334  0.2918  0.1280
11143W        W54055  22.256  10.607   7.537 -0.1477 -0.2918  0.1074
11144W        W54056  19.730  11.186   8.109  0.0332 -0.5501  0.2118
11145W        W54057  18.257  11.459   5.465 -0.0562  0.0046 -0.4477
11146W        W54058  20.337  10.139   9.280 -0.0701  0.1827  0.1426
11147W        W54059  18.985   9.844   6.837 -0.1750 -0.2447  0.2075
11148W        W54060  18.798   9.956   5.647  0.0914  0.1140  0.0502
11149W        W54061  19.049   9.198   6.209  0.1812 -0.1559  0.1972
11150W        W54062  20.290  10.753   4.793  0.1237 -0.0389  0.0589
11151W        W54063  20.326   9.531   4.292 -0.1772  0.1771  0.1405
11152W        W54064  20.352  10.287   5.746  0.1190 -0.1136 -0.0070
11153W        W54065  18.002  10.570   5.649 -0.0429 -0.2597  0.0366
11154W        W54066  21.580   9.118   9.593  0.2346  0.0042 -0.2988
11155W        W54067  18.926  11.219   3.584  0.0956 -0.2245 -0.0740
11156W        W54068  22.864  10.164   4.805  0.1342 -0.2428 -0.5102
11157W        W54069  19.583   8.050   2.290  0.2739 -0.2276  0.1066
11158W        W54070  20.027   8.284   3.532 -0.0952  0.2116  0.1342
11159W        W54071  19.051   6.677   4.179 -0.3037  0.0230 -0.0397
11160W        W54072  19.550  11.570   5.657 -0.0555 -0.0589 -0.1147
11161W        W54073  19.265   7.856   6.004  0.1534  0.2468 -0.1968
11162W        W54074  20.125  10.617   7.108 -0.1862 -0.1888 -0.0893
11163W        W54075  18.951  10.617   5.470  0.0030 -0.0273  0.0248
11164W        W54076  21.267   9.885   6.342  0.2297 -0.0202 -0.0681
11165W        W54077  19.874  11.218   5.948  0.1563 -0.1812  0.0210
11166W        W54078  17.550  10.393   6.011  0.1889  0.2630  0.0891
11167W        W54079  20.152  10.606   3.316 -0.0113 -0.0626  0.1611
11168W        W54080  21.755  10.655   5.443 -0.2164 -0.0169  0.2264
11169W        W54081  18.844  10.342   3.670  0.0339 -0.2057  0.3076
11170W        W54082  17.640   9.243   5.880 -0.0528  0.0764 -0.3915
11171W        W54083  16.843   9.328   8.429  0.1570 -0.1948  0.2669
11172W        W54084  18.375   8.936   7.586  0.2185  0.0870  0.1111
11173W        W54085  19.024   7.051   5.019 -0.0897 -0.3464  0.3871
11174W        W54086  22.303  10.936   7.865 -0.1697 -0.1399  0.2039
11175W        W54087  18.448  11.503   7.454 -0.0766 -0.3256  0.0187
11176W        W54088  22.328   8.732   4.623  0.0758 -0.2369 -0.0760
11177W        W54089  18.204  10.349   6.678  0.0506 -0.1317  0.3390
11178W        W54090  21.705  10.687   6.017  0.0944  0.0617 -0.0571
11179W        W54091  19.584  10.581   3.292  0.0236  0.0857  0.1663
11180W        W54092  20.743   8.376   5.721  0.0950  0.3995 -0.1002
11181W        W54093  20.433   8.721   6.148 -0.3342  0.2441 -0.0886
11182W        W54094  19.586   9.890   5.907  0.0772  0.0744 -0.1397
11183W        W54095  18.504   9.680   4.391  0.0543  0.0032  0.2463
11184W        W54096  21.766  11.597   5.272 -0.1264 -0.1493  0.4282
11185W        W54097  22.732   9.712   5.041 -0.2704 -0.3004 -0.3181
11186W        W54098  18.179  11.672   4.667  0.1289  0.2631  0.1499
11187W        W54099  20.625   6.801   7.116  0.0676 -0.1952  0.1520
11188W        W54100  21.159  10.516   8.709  0.0146 -0.0343  0.0229
11189W        W54101  18.714  10.260   4.486 -0.1737  0.2936 -0.1521
11190W        W54102  17.636  10.570   5.121  0.0205  0.1127 -0.1477
11191W        W54103  19.180  11.621   5.339  0.0419 -0.0466  0.1351
11192W        W54104  18.563   8.252   5.663 -0.4264  0.0891  0.0382
11193W        W54105  19.708  11.104   5.497 -0.0488 -0.0135 -0.2350
11194W        W54106  21.973   9.815   5.836  0.2921  0.0559  0.0010
11195W        W54107  18.127   7.606   7.341  0.1441  0.0484  0.2575
11196W        W54108  20.715   8.549   5.225 -0.1822 -0.0304  0.1033
11197W        W54109  18.879   9.074   5.219  0.0186 -0.4492 -0.0935
11198W        W54110  20.386  11.390   3.953  0.3655 -0.0860 -0.0171
11199W        W54111  22.483   9.571   4.202 -0.1254 -0.1096  0.0392
11200W        W54112  21.246  10.461   3.535  0.2185  0.3296 -0.1833
11201W        W54113  17.200   8.466   5.676  0.2302 -0.3595 -0.0194
11202W        W54114  18.042   9.040   5.419  0.0248  0.1888  0.1323
11203W        W54115  18.328   7.485   6.795  0.0638  0.0306  0.2586
11204W        W54116  18.931   7.685   6.953  0.2748 -0.0374 -0.0967
11205W        W54117  21.585  10.114   6.617 -0.0959 -0.2003  0.1021
11206W        W54118  18.191   9.319   5.909 -0.0541  0.0725  0.0257
11207W        W54119  22.118   9.936   4.165 -0.0714  0.0675  0.1726
11208W        W54120  18.563  10.242   5.993  0.1602  0.1344  0.0096
11209W        W54121  18.160  10.096   5.184  0.1425  0.0293 -0.1886
11210W        W54122  22.222   8.131   6.998  0.0609  0.1960  0.1509
11211W        W54123  19.266  11.252   4.593 -0.2806  0.1220 -0.0493
11212W        W54124  21.557  11.025   7.187  0.0549  0.1266  0.1932
11213W        W54125  21.189  11.258   3.983  0.2232 -0.0650 -0.0645
11214W        W54126  18.941   7.402   6.036 -0.0243 -0.1168  0.0619
11215W        W54127  17.735   7.863   5.586  0.1466 -0.1199 -0.3803
11216W        W54128  18.610  11.641   5.077 -0.1506 -0.0738  0.1371
11217W        W54129  19.518  10.330   6.103 -0.0153  0.1455 -0.1535
11218W        W54130  19.790   7.567   4.948 -0.0776  0.0688  0.1785
11219W        W54131  20.239  10.859   4.081 -0.0961  0.2647 -0.1663
11220W        W54132  19.100  10.096   4.146  0.0776 -0.1260 -0.1495
11221W        W54133  19.972  10.180   6.166 -0.0306 -0.2407  0.0973
11222W        W54134  20.735   8.314   7.128 -0.0466  0.0737 -0.1009
11223W        W54135  21.183  10.634   5.904  0.3446  0.0601  0.1309
11224W        W54136  20.204   9.666   5.191  0.0616  0.0211 -0.1303
11225W        W54137  18.134   6.844   4.109 -0.1519  0.1362 -0.2493
11226W        W54138  20.649  10.219   4.798 -0.0799  0.2353  0.1766
11227W        W54139  19.377  10.738   4.620  0.1040 -0.0003 -0.1680
11228W        W54140  17.511   8.931   4.899 -0.3971 -0.1552 -0.2204
11229W        W54141  20.387  10.504   6.199  0.1662 -0.0500 -0.1729
11230W        W54142  21.279   7.448   4.935  0.2241 -0.1249  0.0093
11231W        W54143  18.124   9.835   7.579 -0.0665 -0.0774 -0.1863
11232W        W54144  19.919   9.693   6.969 -0.1662  0.1158  0.0057
11233W        W54145  18.969   9.729   4.553 -0.0675  0.0827 -0.2252
11234W        W54146  18.340   9.833   5.673  0.0896 -0.1866 -0.0029
11235W        W54147  20.535   8.825   5.652  0.2396  0.1693  0.1107
11236W        W54148  22.399   8.871   3.364 -0.1489 -0.0114  0.1470
11237W        W54149  20.159   8.791   7.641  0.1725 -0.0688 -0.0268
11238W        W54150  21.805   9.438   5.561 -0.1425  0.4424 -0.0705
11239W        W54151  20.073   8.827   4.739 -0.2294 -0.2014  0.0451
11240W        W54152  20.013   7.759   3.949 -0.1408  0.0544  0.0625
11241W        W54153  18.154   9.542   8.496 -0.0630 -0.0140 -0.1487
11242W        W54154  19.550   9.434   4.862 -0.0756 -0.1570 -0.2958
11243W        W54155  19.634   9.348   7.033 -0.3048 -0.1251 -0.0618
11244W        W54156  19.936  10.006   4.327  0.1172  0.0076 -0.0490
11245W        W54157  21.772   9.979   4.930  0.1534  0.0841 -0.1075
11246W        W54158  18.489  10.718   5.903  0.1912 -0.2254  0.0364
11247W        W54159  20.746   9.458   6.535 -0.2569  0.0467  0.0399
11248W        W54160  19.870  10.707   3.722  0.0763  0.2004  0.2349
11249W        W54161  19.353   8.804   6.278 -0.2746  0.2126 -0.1945
11250W        W54162  19.445   9.898   4.965 -0.0790 -0.1905  0.2364
11251W        W54163  19.826   8.018   5.860 -0.0852  0.0376  0.0547
11252W        W54164  17.326  12.291   3.669 -0.0983  0.0182 -0.2606
11253W        W54165  22.050   8.368   6.491  0.1188  0.0912 -0.0334
11254W        W54166  19.735   9.462   4.354 -0.0384 -0.0484  0.1383
11255W        W54167  18.426   8.399   6.300 -0.3391 -0.0246 -0.1197
11256W        W54168  21.569   8.842   7.082  0.2014  0.1510 -0.0645
11257W        W54169  21.081   8.755   5.724 -0.1519  0.0452 -0.1339
11258W        W54170  21.209   7.725   5.396 -0.1120 -0.0732  0.0887
11259W        W54171  19.835   8.142   5.096  0.2963  0.0022  0.1263
11260W        W54172  20.004   8.500   6.724 -0.2969  0.2698  0.0924
11261W        W54173  18.022  10.371   6.156  0.3089  0.0214 -0.1706
11262W        W54174  18.794  10.345   6.992  0.2507  0.0859  0.1405
11263W        W54175  20.871   9.265   6.979 -0.1089 -0.3295  0.2536
11264W        W54176  20.835   9.028   4.951  0.2938  0.1161 -0.2440
11265W        W54177  20.604   7.129   7.494  0.1746  0.0562  0.0488
11266W        W54178  20.809   9.772   4.573 -0.0607  0.2812 -0.2580
11267W        W54179  19.544  10.718   5.206  0.0663  0.0684  0.0039
11268W        W54180  18.461  11.172   4.165 -0.0868 -0.2284  0.0496
11269W        W54181  17.640   9.344   5.181  0.1222 -0.0315  0.1529
11270W        W54182  19.672   9.596   5.271 -0.0881  0.2689  0.1373
11271W        W54183  18.641  11.596   4.054 -0.2424 -0.0508  0.2112
11272W        W54184  20.828  10.220   5.530  0.0125  0.1812 -0.1110
11273W        W54185  19.330  10.256   5.661  0.0409  0.0341 -0.0278
11274W        W54186  21.917   7.532   5.914 -0.1281 -0.3139  0.0022
11275W        W54187  18.978  12.427   5.570 -0.1001 -0.1580 -0.2884
11276W        W54188  19.367   8.606   3.065 -0.0625  0.1316 -0.0050
11277W        W54189  18.432   8.966   5.007  0.1532 -0.0622  0.1891
11278W        W54190  20.582   8.663   4.730  0.1285 -0.1244  0.1826
11279W        W54191  21.919   9.243   4.553 -0.0409 -0.0604  0.0348
11280W        W54192  17.893  10.054   5.679  0.1525  0.0836 -0.0921
11281W        W54193  21.734   7.799   6.487  0.0139 -0.2674 -0.1932
11282W        W54194  18.948  11.456   5.782 -0.2781 -0.1122 -0.1285
11283W        W54195  21.391   9.693   7.371  0.3164  0.1029  0.2143
11284W        W54196  21.619   8.483   5.063 -0.0319  0.0691  0.0187
11285W        W54197  20.411   9.898   6.010  0.0625  0.1065 -0.0401
11286W        W54198  19.487   8.205   7.458 -0.0534 -0.3902 -0.0159
11287W        W54199  17.653   8.299   3.914 -0.2398  0.3366 -0.3658
11288W        W54200  22.259   8.834   6.578 -0.2681  0.1640  0.0245
11289W        W54201  18.657   7.684   4.756 -0.1007 -0.1362 -0.0973
11290W        W54202  18.936  11.290   6.304  0.3566  0.1636 -0.3789
11291W        W54203  20.805  10.757   6.212 -0.4003  0.1185 -0.2900
11292W        W54204  18.864   8.964   4.723 -0.2009  0.1685  0.0051
11293W        W54205  18.153  10.585   5.137  0.0679  0.0649 -0.0290
11294W        W54206  18.021   8.128   6.705  0.1555 -0.0753 -0.1203
11295W        W54207  22.137  10.816   7.051 -0.1123  0.0598  0.2935
11296W        W54208  18.992   9.000   5.741 -0.0518  0.2652  0.0047
11297W        W54209  18.071   9.385   4.559 -0.0756  0.0079  0.0238
11298W        W54210  18.459   9.283   5.505 -0.0907  0.1540  0.4391
11299W        W54211  20.006   9.907   5.681 -0.3186 -0.0684 -0.0251
11300W        W54212  20.576   8.071   6.366  0.0987 -0.1709  0.1446
11301W        W54213  18.570   9.815   8.231 -0.0976 -0.2696 -0.0479
11302W        W54214  19.637   9.032   4.596 -0.1552  0.2209  0.0295
11303W        W54215  22.278  11.226   4.507 -0.0980 -0.1116  0.0763
11304W        W54216  21.667  10.622   6.895  0.0838 -0.0279  0.2463
11305W        W54217  16.819  11.055   5.918 -0.2812  0.1221  0.0865
11306W        W54218  17.528   9.798   5.492 -0.0217  0.1251 -0.0712
11307W        W54219  18.727  11.240   5.405  0.1578  0.4306 -0.0698
11308W        W54220  19.664   9.220   6.192 -0.0829 -0.2271 -0.0416
11309W        W54221  19.366   9.447   5.905 -0.0533  0.1865 -0.0126
11310W        W54222  18.473  11.208   6.537  0.1698  0.1173  0.0493
11311W        W54223  19.104   9.935   6.061  0.3478  0.1852 -0.2201
11312W        W54224  20.408   8.976   3.916  0.0634  0.0779 -0.2739
11313W        W54225  20.510  10.735   3.684  0.1000 -0.0122  0.1103
11314W        W54226  20.254   8.338   4.838 -0.0226 -0.0998 -0.1606
11315W        W54227  22.072   8.720   8.032  0.1782  0.0313 -0.1230
11316W        W54228  21.011   7.564   3.234 -0.0042  0.2343 -0.0073
11317W        W54229  21.696   8.382   7.276 -0.3337 -0.1008  0.1159
11318W        W54230  19.929   8.710   6.297  0.0733  0.1491  0.0363
11319W        W54231  21.322   9.236   5.544  0.1937  0.0365  0.1007
11320W        W54232  18.463   8.422   6.783  0.3989  0.1431  0.0633
11321W        W54233  19.153  10.582   6.700  0.0577 -0.2009  0.2008
11322W        W54234  19.457   9.840   6.933  0.0072 -0.1564  0.1190
11323W        W54235  19.351   8.238   5.220 -0.2139 -0.0617 -0.0451
11324W        W54236  19.463   7.929   4.822  0.0162  0.1460  0.1533
11325W        W54237  19.757   9.928   6.531 -0.0125 -0.0022  0.0771
11326W        W54238  21.030  10.987   5.513  0.0560 -0.0018  0.0268
11327W        W54239  19.496   9.801   3.992 -0.0705  0.0215  0.2810
11328W        W54240  21.226   8.991   6.726  0.0201  0.1485 -0.0508
11329W        W54241  19.896   9.433   6.543 -0.1173 -0.1047 -0.1104
11330W        W54242  20.828   9.372   5.338  0.1576 -0.1134 -0.0371
11331W        W54243  19.993   9.307   3.903  0.0667  0.2291  0.1738
11332W        W54244  18.746   9.355   6.777  0.1737 -0.3982  0.1723
11333W        W54245  19.264   8.003   6.817  0.2189 -0.3265  0.1728
11334W        W54246  20.311  10.161   5.208 -0.1908 -0.1533  0.0676
11335W        W54247  19.823   9.127   5.111 -0.1669  0.0573 -0.1999
11336W        W54248  19.341   8.676   7.232 -0.2490 -0.1367  0.0730
11337W        W54249  21.680   9.318   7.271  0.0410 -0.0236 -0.0499
11338W        W54250  19.203   8.840   6.781 -0.3313  0.3025 -0.0863
11339W        W54251  16.995   8.115   8.050  0.3517 -0.1448 -0.1723
11340W        W54252  21.411  11.096   5.906  0.0648  0.0566  0.0260
11341W        W54253  22.763   9.218   5.155 -0.0195  0.0252  0.0735
11342W        W54254  21.603   7.724   7.040  0.0587  0.1085  0.3273
11343W        W54255  20.569   9.783   5.542 -0.0096  0.1168 -0.2027
11344W        W54256  21.164   8.810   5.219 -0.0126  0.2201 -0.0500
11345W        W54257  17.950   8.655   7.584  0.1293  0.0746 -0.0579
11346W        W54258  20.905   8.398   6.220  0.2147  0.0967 -0.2148
11347W        W54259  18.819   8.071   5.271  0.4840  0.1072 -0.1125
11348W        W54260  21.640   7.908   7.502 -0.2002 -0.2121 -0.1841
11349W        W54261  18.871  11.220   4.904 -0.0980  0.0025  0.1306
11350W        W54262  20.247   9.173   3.488 -0.0099 -0.3425 -0.0277
11351W        W54263  20.019   8.831   5.535  0.6404  0.0431 -0.1336
11352W        W54264  17.776   8.749   5.960  0.0354  0.1122 -0.0340
11353W        W54265  18.415  10.080   7.284  0.1255 -0.1879  0.1936
11354W        W54266  19.053   8.589   3.539  0.1734  0.2416  0.4680
11355W        W54267  19.464   9.822   4.500 -0.0850 -0.1144  0.0406
11356W        W54268  20.381  11.047   6.147 -0.1597 -0.2110 -0.2851
11357W        W54269  20.624  10.105   6.458 -0.1249 -0.1081  0.0181
11358W        W54270  18.397   7.238   3.692  0.1366  0.1772  0.0584
11359W        W54271  20.857   8.771   6.970  0.0394  0.0475 -0.1698
11360W        W54272  17.545  12.204   4.532 -0.0222  0.0225 -0.3691
11361W        W54273  20.575   9.390   4.780 -0.1196  0.0627 -0.0897
11362W        W54274  19.230  11.131   5.481  0.3690 -0.1191 -0.1148
11363W        W54275  17.765  10.145   6.933  0.1073 -0.0470  0.0082
11364W        W54276  20.611  10.580   6.781  0.1313  0.2928 -0.0092
11365W        W54277  19.673   8.994   6.644 -0.0873 -0.0794 -0.0413
11366W        W54278  20.224   9.073   6.754  0.3029 -0.0344 -0.3053
11367W        W54279  20.151  10.322   6.613  0.5124 -0.1765 -0.2845
11368W        W54280  22.700  10.003   7.888  0.0727  0.1527  0.1293
11369W        W54281  20.588   9.556   8.025 -0.0076  0.2585 -0.1174
11370W        W54282  18.752   9.523   5.888 -0.2490  0.0627  0.1708
11371W        W54283  21.051  10.197   6.794 -0.0833 -0.0853  0.2311
11372W        W54284  21.797   9.734   6.298  0.1696  0.0578  0.0386
11373W        W54285  19.699  11.121   6.449  0.0026  0.0293  0.1251
11374W        W54286  17.697   8.475   7.125 -0.1270 -0.0408  0.1034
11375W        W54287  20.543   8.574   6.676  0.0396  0.3322 -0.0957
11376W        W54288  21.333  10.198   5.743 -0.4681  0.0176  0.1625
11377W        W54289  19.967   8.022   4.551 -0.3020 -0.0766 -0.2487
11378W        W54290  20.080   9.361   4.742 -0.2086 -0.1170  0.4179
11379W        W54291  19.262   9.611   7.283  0.1568  0.1641  0.1308
11380W        W54292  19.033  10.418   6.021  0.1180  0.0756  0.0914
11381W        W54293  17.462  11.160   4.500 -0.0603 -0.0740 -0.4396
11382W        W54294  20.827  10.294   3.840  0.0853 -0.3102  0.1009
11383W        W54295  21.148   9.473   3.824  0.0494 -0.3055 -0.1575
11384W        W54296  20.630  10.721   5.747  0.0076  0.0469  0.2596
11385W        W54297  19.336  10.264   3.665 -0.2501 -0.0500  0.0162
11386W        W54298  18.800  10.783   6.327 -0.0320  0.2474  0.1976
11387W        W54299  17.869  11.653   5.238  0.1976  0.3097  0.2529
11388W        W54300  21.940   8.883   4.135 -0.1136  0.0985 -0.1972
11389W        W54301  19.486  10.702   5.788  0.0787  0.0035  0.3005
11390W        W54302  20.589  11.400   8.027  0.1078 -0.0690  0.2214
11391W        W54303  22.060   6.968   5.980  0.0222  0.1305 -0.2255
11392W        W54304  19.262  10.348   5.117 -0.0039  0.1922 -0.1275
11393W        W54305  21.251   8.320   5.836 -0.3959  0.1062 -0.2247
11394W        W54306  21.110  11.631   6.673 -0.2157 -0.0624 -0.0880
11395W        W54307  19.351   9.682   6.375  0.2742  0.2056  0.0961
11396W        W54308  19.715   8.517   4.442 -0.1496  0.1303  0.2105
11397W        W54309  18.953   8.402   6.952  0.0697 -0.0716  0.1200
11398W        W54310  22.606   7.464   7.035  0.1350 -0.0392  0.2105
11399W        W54311  18.665  10.613   8.670  0.1638 -0.1282  0.3072
11400W        W54312  21.285  10.965   3.483  0.3099 -0.0219  0.0391
11401W        W54313  18.104   8.937   3.976 -0.3052  0.0367 -0.0443
11402W        W54314  19.261   9.326   6.694  0.0749 -0.2931  0.2862
11403W        W54315  22.090   7.981   6.148  0.3168 -0.0748  0.2825
11404W        W54316  19.199  10.261   4.620  0.1062  0.1832  0.0274
11405W        W54317  19.680   8.636   4.973 -0.0621 -0.1392 -0.1090
11406W        W54318  19.418  11.256   5.048 -0.1761 -0.3447 -0.2822
11407W        W54319  20.386   9.525   7.006 -0.1643  0.0800 -0.1721
11408W        W54320  19.200  10.146   6.516 -0.0744 -0.4198 -0.0181
11409W        W54321  19.152   9.444   5.092  0.0030 -0.3871  0.0251
11410W        W54322  20.284   9.213   7.818  0.1913 -0.2580  0.2457
11411W        W54323  19.005   8.931   7.561 -0.0136  0.0395 -0.1592
11412W        W54324  22.055   8.627   6.988 -0.0032  0.2168  0.0685
11413W        W54325  18.786   9.727   6.427  0.1208  0.0966  0.2817
11414W        W54326  22.461   9.384   4.747 -0.0779 -0.0948 -0.1360
11415W        W54327  19.317   9.001   4.991 -0.1462 -0.4561 -0.0293
11416W        W54328  17.864   9.250   6.865 -0.1076 -0.0428 -0.2035
11417W        W54329  20.976   9.177   4.507 -0.0743  0.1199 -0.1074
11418W        W54330  20.841   9.732   6.035 -0.2788  0.3320  0.0087
11419W        W54331  21.630   9.699   3.919 -0.0001  0.1443  0.0427
11420W        W54332  20.611  11.615   6.864 -0.0529 -0.0046  0.2456
11421W        W54333  19.518   8.439   6.784  0.1473  0.0581  0.0556
11422W        W54334  19.579   7.977   3.770 -0.2372 -0.1718 -0.1231
11423W        W54335  18.362   9.829   6.154 -0.2447  0.1508  0.0255
11424W        W54336  17.690   8.073   7.975  0.3266  0.1720 -0.0084
11425W        W54337  20.893   9.785   7.092 -0.1785 -0.3496 -0.0646
11426W        W54338  19.409   7.760   5.460 -0.3582 -0.0432  0.0010
11427W        W54339  23.525  10.286   5.513  0.0204 -0.2036  0.2893
11428W        W54340  21.315   8.726   6.239 -0.0733 -0.1566 -0.2305
11429W        W54341  18.750  11.516   4.516  0.1553  0.0585 -0.0069
11430W        W54342  18.941   9.535   4.100 -0.1855 -0.1397 -0.4455
11431W        W54343  20.558  11.579   5.912  0.1943 -0.0243  0.2056
11432W        W54344  18.921   8.531   6.001  0.1252 -0.3997 -0.0193
11433W        W54345  20.165  10.277   4.743 -0.0706  0.2647  0.2262
11434W        W54346  21.340  10.150   5.161 -0.1969  0.3689 -0.0883
11435W        W54347  19.301   8.717   5.422 -0.3445 -0.3614  0.1878
11436W        W54348  18.877   8.800   6.413  0.1646  0.0595  0.1084
11437W        W54349  17.713  10.831   4.142 -0.0756  0.1118  0.0076
11438W        W54350  22.498   9.962   5.587  0.0742  0.1430  0.1225
11439W        W54351  21.149   9.336   6.200 -0.2269 -0.1286 -0.2825
11440W        W54352  19.758  12.216   3.829  0.1163 -0.1143 -0.1705
11441W        W54353  21.597   7.878   6.013  0.2502  0.1732  0.0851
11442W        W54354  20.314  10.045   7.211  0.1396 -0.2157  0.1303
11443W        W54355  19.019  10.070   8.367 -0.1027 -0.1272 -0.0043
11444W        W54356  19.026   9.000   3.815  0.1081  0.0111 -0.2173
11445W        W54357  19.834  10.389   5.731 -0.0078  0.0114  0.1240
11446W        W54358  18.396  10.884   5.463 -0.0931  0.0588 -0.0023
11447W        W54359  21.160  11.005   5.016 -0.0839  0.1531  0.2038
11448W        W54360  20.637  10.612   5.167  0.1876 -0.2643  0.2207
11449W        W54361  19.962   8.919   4.238 -0.0401 -0.1129  0.1100
11450W        W54362  23.152  10.906   6.236 -0.3734 -0.2097 -0.1892
11451W        W54363  17.659   8.363   5.669  0.0669  0.0022  0.4677
11452W        W54364  22.482  10.357   5.256 -0.1031 -0.0885  0.0549
11453W        W54365  21.195   7.150   5.430  0.0904 -0.3872 -0.2426
11454W        W54366  19.392   9.516   7.779 -0.2206 -0.0469  0.0498
11455W        W54367  18.780   8.935   2.852 -0.0177  0.1445 -0.0818
11456W        W54368  17.990  10.284   3.783  0.2117 -0.1386  0.1812
11457W        W54369  17.187  10.177   6.297 -0.1910 -0.0597  0.2520
11458W        W54370  20.134   7.768   6.243 -0.0872  0.0135  0.1860
11459W        W54371  17.843   7.601   6.065  0.2362  0.0907  0.2756
11460W        W54372  17.671  10.092   5.155  0.2473  0.2270 -0.5672
11461W        W54373  18.498   9.297   6.314  0.0300  0.2056  0.0791
11462W        W54374  21.367  10.460   4.321 -0.2259 -0.0428 -0.2328
11463W        W54375  19.831   9.370   5.732  0.1375  0.2652 -0.0542
11464W        W54376  18.196   9.455   5.109  0.4857  0.0848  0.1522
11465W        W54377  20.750  10.838   4.717  0.0442  0.1399  0.0193
11466W        W54378  21.114   9.484   4.890 -0.1326  0.0184 -0.0137
11467W        W54379  19.978   8.712   3.785  0.1632  0.0164 -0.0532
11468W        W54380  21.827  11.428   8.540  0.1364  0.1822 -0.0326
11469W        W54381  18.547   9.357   4.750 -0.4123  0.1985 -0.1108
11470W        W54382  19.979   9.667   6.133  0.2489  0.0656  0.0143
11471W        W54383  19.017   8.062   7.306 -0.4285  0.1347  0.3673
11472W        W54384  18.998   8.067   4.685  0.1076 -0.0088  0.0868
11473W        W54385  20.335   9.315   5.571  0.3482  0.1091  0.2397
11474W        W54386  20.779  11.270   4.275 -0.0271  0.0683 -0.0661
11475W        W54387  21.084  11.076   2.962  0.0518  0.0010  0.1000
11476W        W54388  21.251  10.532   7.296 -0.1315  0.1037 -0.0678
11477W        W54389  18.650  10.478   7.484 -0.0460  0.2183 -0.0692
11478W        W54390  18.239   7.811   5.327 -0.0367  0.1022 -0.2310
11479W        W54391  20.705   8.819   3.508  0.2419  0.0512  0.0631
11480W        W54392  20.377   9.428   6.227 -0.0203 -0.2045 -0.0034
11481W        W54393  22.589   9.366   3.424 -0.3035  0.0799 -0.0381
11482W        W54394  22.056   8.275   5.794 -0.1343  0.0855  0.0413
11483W        W54395  20.581   9.767   3.244 -0.0139  0.3462  0.0125
11484W        W54396  19.227   7.694   6.475 -0.1065 -0.0960  0.0079
11485W        W54397  18.765   9.943   7.659 -0.0713 -0.3219  0.1445
11486W        W54398  22.621  11.188   6.300 -0.0804 -0.1008  0.1458
11487W        W54399  17.894   8.232   6.207 -0.1332 -0.0912  0.0382
11488W        W54400  21.317   8.062   4.945  0.4193 -0.2239  0.2042
11489W        W54401  20.384   9.991   4.423 -0.3326  0.0993 -0.3587
11490W        W54402  17.869   9.675   6.054  0.1345  0.2705  0.3325
11491W        W54403  20.866   8.724   4.313  0.3080 -0.1329  0.2971
11492W        W54404  18.741   8.641   5.392 -0.2806 -0.1064 -0.3778
11493W        W54405  18.645  10.321   5.088  0.0070 -0.1241  0.2264
11494W        W54406  20.994   9.955   7.972  0.0696  0.2024 -0.0458
11495W        W54407  19.341   8.534   3.981  0.1241 -0.2138 -0.2166
11496W        W54408  21.423   9.660   5.195  0.1937  0.0492 -0.1781
11497W        W54409  20.581  11.074   6.796  0.1647 -0.1790  0.1641
11498W        W54410  22.337  10.804   8.307  0.1126  0.1857 -0.2024
11499W        W54411  19.885   9.548   7.485  0.1293 -0.0205 -0.1200
11500W        W54412  22.005  10.442   6.534  0.0777  0.2538 -0.1739
11501W        W54413  17.795   7.041   6.693 -0.0179 -0.0889 -0.2146
11502W        W54414  19.446   9.177   4.099 -0.0050  0.0532 -0.2191
11503W        W54415  18.971  10.961   5.857 -0.2449 -0.1316 -0.0738
11504W        W54416  21.982   8.999   6.210  0.1751  0.0639 -0.0381
11505W        W54417  19.619   8.859   5.818  0.1482  0.1350 -0.2550
11506W        W54418  21.545   9.630   4.682 -0.1876 -0.5014  0.2226
11507W        W54419  20.150  11.245   7.785  0.1008 -0.0284  0.0189
11508W        W54420  20.225   9.808   6.620 -0.2664 -0.0161 -0.1721
11509W        W54421  18.851   7.348   9.583  0.1910  0.0483  0.0052
11510W        W54422  18.269   8.835   9.051  0.1251  0.0840 -0.0147
11511W        W54423  22.151   9.879   8.008  0.1467 -0.4167 -0.2071
11512W        W54424  20.135   8.461   9.872  0.0266  0.1530  0.0432
11513W        W54425  18.624   7.555   8.076  0.0862  0.1115 -0.3171
11514W        W54426  20.564  10.112   9.710 -0.2600  0.0575 -0.2012
11515W        W54427  19.070  10.961   9.926 -0.0619 -0.1650 -0.2566
11516W        W54428  20.131   8.781   9.048 -0.1270 -0.0743 -0.0034
11517W        W54429  20.572   9.019   7.423  0.0654  0.0753  0.0770
11518W        W54430  20.764   9.357   9.228  0.0454 -0.0525 -0.3378
11519W        W54431  19.408   6.061   7.374 -0.4217 -0.1800  0.3921
11520W        W54432  19.350   6.110   8.420 -0.2079 -0.3764 -0.0437
11521W        W54433  20.675  10.297   8.925  0.2000 -0.0699 -0.2367
11522W        W54434  19.282   8.953   8.886  0.2405 -0.0762  0.2167
11523W        W54435  18.527   9.757   9.390  0.2376  0.3166  0.2683
11524W        W54436  20.007   8.341   7.322  0.0172 -0.3344  0.2298
11525W        W54437  20.032  10.517   9.336  0.0871  0.2301 -0.1121
11526W        W54438  20.487   8.390   8.907 -0.0161 -0.2895  0.1476
11527W        W54439  19.959  10.304   8.129  0.1589 -0.4107 -0.0323
11528W        W54440  18.512   8.067   7.120 -0.1267  0.1972  0.1755
11529W        W54441  17.328   8.373   9.352  0.2906  0.1376  0.1056
11530W        W54442  17.549   9.616   9.706 -0.1943 -0.0046 -0.0834
11531W        W54443  19.725   8.298   9.551 -0.0453  0.2305  0.2356
11532W        W54444  20.990   8.867   8.355  0.1983 -0.1573 -0.0461
11533W        W54445  19.854  10.048   9.320 -0.0217  0.2002  0.0965
11534W        W54446  20.783  10.147   8.411 -0.0980  0.1405 -0.2456
11535W        W54447  17.858   9.522   7.973  0.1063 -0.0567 -0.1211
11536W        W54448  19.109  10.827   9.478  0.2358 -0.0168 -0.0737
11537W        W54449  20.540   9.961   7.687 -0.0403 -0.0088 -0.0926
11538W        W54450  20.856  10.664   8.337 -0.0883 -0.1977 -0.0672
11539W        W54451  19.633   9.961   7.426 -0.0093  0.0533  0.0780
11540W        W54452  19.191  11.763  10.045  0.0996  0.0155 -0.1000
11541W        W54453  19.369   9.721   8.615  0.0869 -0.1189  0.0801
11542W        W54454  19.264  10.097   7.794  0.1749  0.4588 -0.0481
11543W        W54455  20.228  10.966   9.376  0.0150 -0.0228  0.0801
11544W        W54456  16.511   8.351   9.767 -0.0314  0.0903  0.0572
11545W        W54457  18.901   9.891   8.883 -0.0679  0.0497  0.0265
11546W        W54458  20.654   7.626   7.610 -0.0819 -0.0517 -0.1186
11547W        W54459  18.961   6.677   8.161  0.3308  0.1364  0.1415
11548W        W54460  21.886   9.170   6.853  0.0212 -0.2738  0.2416
11549W        W54461  20.330   7.544   8.998  0.1518  0.0698  0.0537
11550W        W54462  18.743  10.509  10.119 -0.1576 -0.2211  0.2222
11551W        W54463  19.254   7.344   9.917 -0.0204  0.1376  0.2790
11552W        W54464  20.132   9.089   8.268  0.3645  0.1523  0.1279
11553W        W54465  23.155   9.491   9.272  0.0522 -0.0346  0.1700
11554W        W54466  12.448  14.318   9.839  0.0355  0.1311 -0.1293
11555W        W54467  17.011   8.092   9.650  0.0532  0.0194 -0.3488
11556W        W54468  21.420  10.974   7.679 -0.3718  0.4646  0.3483
11557W        W54469  21.352  11.630   8.184  0.0141 -0.0044  0.0772
11558W        W54470  20.547  10.464   7.950 -0.0353  0.1952  0.0675
11559W        W54471  18.129   7.465   8.204  0.1174 -0.2475 -0.2602
11560W        W54472  19.421   6.971   8.307  0.2190 -0.1115  0.1452
11561W        W54473  21.237   9.675   9.197 -0.1781  0.0901 -0.3034
11562W        W54474  18.477   9.192   9.498  0.0955  0.2341  0.3080
11563W        W54475  21.000   8.820   9.829 -0.0397 -0.1683  0.0378
11564W        W54476  22.532   8.977   8.144 -0.0013 -0.1317 -0.0294
11565W        W54477  21.764   7.972   8.699  0.3332 -0.0839  0.0051
11566W        W54478  20.549   8.003   8.572 -0.2127  0.0947  0.1705
11567W        W54479  18.356   8.342   7.803 -0.0855  0.0690  0.1224
11568W        W54480  19.017   9.631   8.143 -0.3054  0.0077 -0.1283
11569W        W54481  22.296  11.540   8.702 -0.1886 -0.3158 -0.2620
11570W        W54482  22.470   9.923   7.013  0.1099 -0.2050  0.0737
11571W        W54483  18.419  10.593   9.711  0.1645 -0.0272  0.0267
11572W        W54484  19.069  11.062   7.632  0.0500 -0.0587 -0.2601
11573W        W54485  18.358   9.055   8.550 -0.2902  0.0275  0.1820
11574W        W54486  17.062   9.744  10.056  0.0690 -0.1980  0.1949
11575W        W54487  18.910   6.993   8.584 -0.2914 -0.1160 -0.0777
11576W        W54488  16.972  10.580   9.508  0.0105 -0.0809 -0.4275
11577W        W54489  21.369   8.276   8.363  0.0680 -0.0186 -0.2328
11578W        W54490  19.532   7.857   9.418  0.2417  0.1793  0.1432
11579W        W54491  18.783   9.223   9.050 -0.0107  0.0107  0.0358
11580W        W54492  20.473  10.928   8.115  0.0070 -0.1616 -0.1953
11581W        W54493  21.515   9.142   7.828  0.0606 -0.0800  0.1404
11582W        W54494  21.354   9.497   6.901  0.1613 -0.1051 -0.3695
11583W        W54495  17.508   8.995   9.766 -0.0476 -0.1076 -0.1097
11584W        W54496  19.493   8.086   8.980  0.1199  0.1647 -0.0831
11585W        W54497  18.647   6.837   7.194 -0.2248 -0.0847 -0.2666
11586W        W54498  18.853   6.169   8.380  0.3364  0.0969 -0.1368
11587W        W54499  20.992  10.569   9.167 -0.0033  0.0257 -0.0155
11588W        W54500  19.961   8.531   8.573  0.1087 -0.1335  0.0527
11589W        W54501  17.912   9.140   8.919 -0.0434  0.0302  0.4452
11590W        W54502  19.683  10.400   7.545  0.0565 -0.0855  0.2667
11591W        W54503  21.359  10.916   8.886  0.0965 -0.1910  0.2600
11592W        W54504  21.622  11.913   8.474  0.1698  0.3559  0.0915
11593W        W54505  18.615   7.802   8.575  0.0416 -0.1576  0.1517
11594W        W54506  19.185   8.132   7.854 -0.4573 -0.2046  0.2858
11595W        W54507  19.928  11.125  10.362  0.1958  0.0199  0.0032
11596W        W54508  23.048   9.743   9.701  0.3038  0.1036 -0.0929
11597W        W54509  20.380   8.021   6.810 -0.0311 -0.1886 -0.1386
11598W        W54510  21.622  10.686   9.586  0.3965  0.0897  0.1269
11599W        W54511  20.018   9.947   7.793 -0.1907 -0.1964  0.3468
11600W        W54512  21.978  10.229   9.332 -0.0538 -0.2576 -0.2385
11601W        W54513  22.825   8.702   9.267  0.1280  0.2174 -0.0591
11602W        W54514  18.355   7.302   7.714  0.0452  0.2841 -0.0077
11603W        W54515  19.605  11.002   9.602  0.1120  0.0038  0.0941
11604W        W54516  18.174   8.967   8.108 -0.3802 -0.1179 -0.0369
11605W        W54517  18.139   7.978   8.187  0.4516 -0.0636 -0.0006
11606W        W54518  20.827  11.270   9.756  0.2082 -0.3307 -0.0304
11607W        W54519  20.841   8.736  10.280  0.0751  0.1109  0.2113
11608W        W54520  18.728   8.104   8.106  0.1033 -0.0605 -0.2370
11609W        W54521  20.337   8.390   8.233  0.0280  0.1781 -0.2089
11610W        W54522  20.822   8.459   8.607 -0.1583  0.1340  0.2984
11611W        W54523  21.934   9.083   8.391  0.2897  0.1245  0.3319
11612W        W54524  21.096   7.764   8.500 -0.0672 -0.4598  0.0657
11613W        W54525  20.597   8.535   7.585 -0.2176  0.2406 -0.1495
11614W        W54526  20.308  10.002   8.197 -0.2749  0.0432 -0.1172
11615W        W54527  19.005   7.906   9.203 -0.0470 -0.1312 -0.2397
11616W        W54528  20.871   8.267   8.133  0.0302  0.1948 -0.0165
11617W        W54529  22.405   9.524   7.640 -0.1809  0.0383  0.2008
11618W        W54530  17.443   7.594   9.548  0.1345  0.0589 -0.0668
11619W        W54531  21.117  10.096   9.594 -0.0366  0.0456 -0.1651
11620W        W54532  17.365   6.261   9.282 -0.1439 -0.0201 -0.0273
11621W        W54533  21.088   7.845   6.334  0.3095  0.1174 -0.1283
11622W        W54534  19.432   8.494   8.610 -0.1218  0.2080  0.0941
11623W        W54535  19.173  10.551   7.571  0.2267 -0.1417 -0.0213
11624W        W54536  18.862   8.690   9.397  0.0957 -0.2216  0.0831
11625W        W54537  19.986   8.296   9.008  0.0848 -0.1474 -0.3104
11626W        W54538  21.313   8.313   8.862 -0.0545 -0.0218  0.2993
11627W        W54539  20.817   8.779   9.004  0.0481 -0.0470  0.1100
11628W        W54540  19.379   7.574   8.971  0.0429 -0.0857 -0.2616
11629W        W54541  20.543   7.966   9.084 -0.0790 -0.2301  0.0954
11630W        W54542  20.238   9.190   9.348 -0.2976 -0.1572  0.0394
11631W        W54543  21.515   9.399   8.743 -0.1711 -0.2806  0.3261
11632W        W54544  19.760   8.167   8.341 -0.5355 -0.0284 -0.0043
11633W        W54545  18.587  11.035   7.508 -0.2080  0.1244  0.2097
11634W        W54546  19.649   8.725   7.587  0.1277 -0.1548  0.0039
11635W        W54547  19.150   8.858   8.330  0.0716 -0.0507 -0.0931
11636W        W54548  21.099  12.097   9.653 -0.0687 -0.0547  0.0264
11637W        W54549  18.539  10.113   8.675 -0.0403 -0.2303 -0.5087
11638W        W54550  19.712  13.179  11.885 -0.0555  0.0086 -0.0343
11639W        W54551  18.798   8.827   8.721 -0.0835  0.1404  0.1243
11640W        W54552  22.467   5.831   9.943 -0.2624  0.1894 -0.1188
11641W        W54553  18.200  10.449   8.864 -0.4244  0.0113 -0.3029
11642W        W54554  18.710   8.871   7.059 -0.0611  0.0172  0.0107
11643W        W54555  18.002   8.731   8.574  0.1017  0.2195  0.1312
11644W        W54556  20.407   8.039   7.394 -0.2735  0.2135  0.2527
11645W        W54557  21.433   9.782   8.409 -0.1011  0.2364  0.1609
11646W        W54558  19.236   6.023   8.967 -0.0751  0.1009 -0.0572
11647W        W54559  22.076   6.228  10.073  0.1131  0.1736 -0.0110
11648W        W54560  18.895  10.401   9.603 -0.0098 -0.1161  0.1307
11649W        W54561  22.521   8.213   6.378  0.1040  0.0779  0.0525
11650W        W54562  18.009   8.117   7.457 -0.1509 -0.0922  0.2973
11651W        W54563  23.631   9.153   9.636 -0.0823  0.1688 -0.0901
11652W        W54564  18.439   7.826   7.690  0.1274 -0.0210 -0.1800
11653W        W54565  18.617  10.233   9.190 -0.0640  0.0135  0.0801
11654W        W54566  21.263  11.031   9.693 -0.0294  0.0561  0.0542
11655W        W54567  18.873   8.436   7.631  0.1483 -0.2141  0.2284
11656W        W54568  18.001   9.026   9.408 -0.2575 -0.3665 -0.1129
11657W        W54569  21.597   9.931   9.507 -0.1501  0.1375 -0.0421
11658W        W54570  18.520   7.331   8.566  0.1107  0.0639 -0.0826
11659W        W54571  19.340   7.177   9.291 -0.1504  0.0728 -0.0114
11660W        W54572  19.399   9.171   9.292  0.4235 -0.2914 -0.1192
11661W        W54573  20.874   9.497   7.478 -0.2522 -0.0371 -0.6013
11662W        W54574  20.136   7.822   9.334  0.3395 -0.4935 -0.2334
11663W        W54575  21.658   6.074   9.141  0.2125  0.0090 -0.2535
11664W        W54576  20.164  11.510   8.270  0.0560  0.0033 -0.2145
11665W        W54577  19.879   9.426   8.655  0.0532  0.2019 -0.0839
11666W        W54578  17.140   9.291   9.725 -0.0786 -0.1488 -0.0812
11667W        W54579  19.648  10.198  10.229 -0.2288  0.2701 -0.1862
11668W        W54580  20.303   7.879   9.774 -0.4135 -0.0065 -0.3126
11669W        W54581  18.926   9.179   9.730  0.1145 -0.1605  0.0627
11670W        W54582  18.749   9.640   7.198 -0.1687 -0.0623 -0.0502
11671W        W54583  17.455   8.309   8.864  0.3360  0.1790  0.0008
11672W        W54584  20.872   7.338   7.158 -0.2631  0.3203 -0.4864
11673W        W54585  20.647   7.613   6.732 -0.1616 -0.0673 -0.0273
11674W        W54586  19.075   8.402   9.042 -0.4781  0.1859  0.1806
11675W        W54587  21.046   9.186   8.797 -0.1978  0.0609 -0.1693
11676W        W54588  21.689   6.351   9.746  0.0175  0.3995 -0.0934
11677W        W54589  22.189   9.727   9.458  0.0381  0.1863 -0.0315
11678W        W54590  20.151   7.858   8.297 -0.2329  0.1553  0.0772
11679W        W54591  19.136   7.462   8.506 -0.2398  0.3475 -0.1077
11680W        W54592  20.294   9.018   9.862  0.4524  0.2448  0.0195
11681W        W54593  21.399   9.173   9.157 -0.0401 -0.2155  0.0319
11682W        W54594  20.830   8.942   6.282  0.3192 -0.0531 -0.0926
11683W        W54595  22.007   9.216   9.910  0.0246  0.1267  0.2895
11684W        W54596  19.827   8.934   9.509  0.2484  0.0720 -0.5034
11685W        W54597  21.128   7.224   9.300  0.0751 -0.0114 -0.2164
11686W        W54598  20.933   9.627   8.428  0.0037 -0.0495 -0.1199
11687W        W54599  19.691   9.624   9.189 -0.0848 -0.2001  0.0426
11688W        W54600  21.253   9.281   8.282 -0.1928  0.1446 -0.0017
11689W        W54601  20.882   7.685   8.052 -0.1087  0.1439  0.0377
11690W        W54602  21.114  11.957   8.579  0.0641 -0.0330 -0.0750
11691W        W54603  21.083   9.994   8.848 -0.0685 -0.2074  0.2334
11692W        W54604  21.057   5.405   8.916  0.0721  0.0551  0.1470
11693W        W54605  21.588   8.702   8.190  0.0297 -0.0471 -0.1097
11694W        W54606  18.927   8.443   9.912 -0.1709 -0.2922  0.2393
11695W        W54607  18.512   6.966   8.200  0.1501  0.0953 -0.1907
11696W        W54608  20.387  11.315   7.231  0.2518 -0.0441 -0.1114
11697W        W54609  22.203  10.792   9.543  0.0737 -0.0988  0.1074
11698W        W54610  20.507   7.995   7.949  0.0452 -0.2965  0.0872
11699W        W54611  17.763   7.353   8.732 -0.0534  0.1683 -0.1976
11700W        W54612  17.767   7.386   7.039  0.0291  0.1993 -0.0228
11701W        W54613  20.341   9.555   7.517 -0.1447 -0.0946 -0.1314
11702W        W54614  22.744  11.816   9.664  0.0387  0.1664  0.0769
11703W        W54615  20.411   7.609   7.193 -0.1148 -0.1279  0.0686
11704W        W54616  18.312   9.459   9.026  0.0973 -0.2524  0.1748
11705W        W54617  22.054   6.302   9.368 -0.2040 -0.0900 -0.1004
11706W        W54618  16.298   8.797   9.543 -0.3491  0.0730  0.0892
11707W        W54619  19.662  10.763   8.566 -0.1215 -0.0387  0.1271
11708W        W54620  19.324   8.766   9.595 -0.0212  0.2617 -0.4057
11709W        W54621  19.747   8.674   8.136 -0.1866  0.1268 -0.0240
11710W        W54622  19.252   9.097   7.920 -0.1909  0.2704 -0.0292
11711W        W54623  19.145   9.527   9.064 -0.0729  0.0724  0.2971
11712W        W54624  21.777  11.163   9.601  0.1464  0.2289  0.4424
11713W        W54625  19.676   9.454   9.646  0.1487 -0.2215  0.1400
11714W        W54626  23.100   7.940   9.839  0.2003 -0.6164  0.1731
11715W        W54627  19.858   6.913   8.023  0.0135  0.1275  0.1024
11716W        W54628  18.912   9.387   7.703  0.0572 -0.0214 -0.1597
11717W        W54629  18.651   8.137   9.641  0.0400 -0.1205  0.1751
11718W        W54630  19.539  10.419   9.385  0.0849  0.0510 -0.0975
11719W        W54631  21.208   9.526   7.889 -0.1303  0.2670  0.1282
11720W        W54632  20.311  10.085   8.707 -0.1429  0.0496  0.0914
11721W        W54633  20.086  12.159  10.102 -0.3080 -0.1241 -0.3411
11722W        W54634  19.384   7.690   7.228 -0.0481  0.1634 -0.0930
11723W        W54635  19.872  10.683  10.133 -0.1117 -0.1165 -0.3464
11724W        W54636  18.148   9.886   8.902 -0.0631 -0.1107 -0.2627
11725W        W54637  20.181  10.392   7.605 -0.0331  0.1874 -0.2755
11726W        W54638  18.387  10.302   8.258 -0.0609 -0.2678  0.2827
11727W        W54639  21.402   7.062   8.094 -0.0418 -0.1308 -0.1941
11728W        W54640  22.268   8.677   8.501  0.1748  0.0702 -0.0594
11729W        W54641  21.797   7.956   9.221 -0.1987 -0.0895 -0.1381
11730W        W54642  19.328  10.470   9.875  0.1943  0.0560  0.1725
11731W        W54643  19.640   7.981   6.438  0.0181 -0.0335 -0.1272
11732W        W54644  21.409   8.807   8.735 -0.1038 -0.0869  0.1039
11733W        W54645  20.116   7.305   8.260 -0.1109 -0.1433 -0.2101
11734W        W54646  20.238   9.688   9.067 -0.2062  0.0845 -0.0876
11735W        W54647  21.983   5.462   9.519  0.4583  0.0946 -0.2026
11736W        W54648  19.037   9.228   7.127 -0.1805 -0.1170 -0.0942
11737W        W54649  19.493   9.326   8.299 -0.0212 -0.0115  0.2510
11738W        W54650  19.800   9.904   8.542 -0.2130  0.0039  0.0696
11739W        W54651  19.792   9.109   9.007 -0.1635  0.0414 -0.3054
11740W        W54652  17.995  10.326  10.054 -0.0836  0.0365 -0.2655
11741W        W54653  19.246   8.613   7.874 -0.1563 -0.6236  0.2271
11742W        W54654  21.301   7.667   9.037 -0.0180  0.3447 -0.0548
11743W        W54655  18.075   6.996   8.467  0.0433 -0.3077  0.0616
11744W        W54656  20.197   9.697   9.602  0.2819  0.0201  0.0181
11745W        W54657  20.602   7.531   8.461  0.0196 -0.0685  0.1090
11746W        W54658  20.276   9.616   8.507 -0.1027  0.3342 -0.2109
11747W        W54659  18.770   6.827   9.242  0.1695  0.0324  0.0610
11748W        W54660  19.744   9.138   7.863 -0.2484 -0.2036 -0.0194
11749W        W54661  21.796   8.500   8.652 -0.0794 -0.3338  0.1134
11750W        W54662  17.889   8.210   8.526 -0.0984  0.2923  0.0099
11751W        W54663  20.158   7.102   7.680  0.0588  0.4584  0.0985
11752W        W54664  18.076   9.234   9.858 -0.2996  0.3087  0.0831
11753W        W54665  19.663   8.616   9.128  0.2150  0.2963 -0.1191
11754W        W54666  18.812   6.300   8.846 -0.2474 -0.1145  0.2520
11755W        W54667  21.531   9.896   7.914 -0.0095  0.0786  0.2113
11756W        W54668  23.594   9.777   9.670  0.3646  0.0100  0.0599
11757W        W54669  19.656  10.468   6.596 -0.0398 -0.0361 -0.3376
11758W        W54670  21.758   9.520   9.219  0.0199  0.1878  0.0525
11759W        W54671  21.451  13.059   9.703 -0.2949 -0.1166 -0.1976
11760W        W54672  17.976   7.583   9.404  0.1785 -0.0080  0.0900
11761W        W54673  24.049   9.442   9.852  0.1418 -0.1306 -0.0713
11762W        W54674  21.685   7.346   9.414 -0.0106  0.1305  0.2258
11763W        W54675  20.445   8.813   8.626  0.1338 -0.3127 -0.2256
11764W        W54676  19.021   9.786   9.471 -0.1842 -0.0698 -0.2508
11765W        W54677  19.432  10.056   9.007  0.4492  0.0503  0.0744
11766W        W54678  20.958   7.966   8.905  0.1501 -0.0011 -0.0900
11767W        W54679  21.170   9.094   7.412  0.0906 -0.2579  0.2056
11768W        W54680  22.563  12.246   9.377  0.2035 -0.3126  0.2495
11769W        W54681  18.388   8.551   7.302 -0.2150  0.1625  0.0276
11770W        W54682  19.497   9.840   8.133 -0.0539  0.3433 -0.0324
11771W        W54683  19.578  11.254   8.724  0.0380 -0.0327  0.0656
11772W        W54684  20.555  10.541   9.455 -0.1166 -0.0004 -0.0544
11773W        W54685  20.584   9.254   8.459  0.2022  0.1456 -0.1204
11774W        W54686  20.299  11.225   8.941  0.4418  0.0156  0.1463
11775W        W54687  17.796   7.893   8.923 -0.2216  0.0384  0.2629
11776W        W54688  22.779   6.971   8.871 -0.0851  0.2472 -0.0829
11777W        W54689  21.107   6.375   7.885  0.1952  0.0313  0.0457
11778W        W54690  18.030   8.376   8.955  0.0215  0.2235 -0.0458
11779W        W54691  19.826   8.802   7.114  0.0334  0.3934  0.1119
11780W        W54692  18.717   9.199   8.208 -0.0683 -0.0898  0.0923
11781W        W54693  19.093   9.292   8.617  0.0023 -0.0404  0.1908
11782W        W54694  17.450  10.432  10.099  0.1107  0.1838 -0.4549
11783W        W54695  19.117   7.928   8.625 -0.3533 -0.2172 -0.5610
11784W        W54696  21.805  10.684   9.140 -0.3463  0.0391 -0.1251
11785W        W54697  20.869   7.447   8.965  0.0639 -0.0581 -0.1593
11786W        W54698  18.761   6.435   7.728 -0.1082 -0.1416 -0.1303
11787W        W54699  20.262   9.221   8.818 -0.0099 -0.1669 -0.1610
11788W        W54700  20.042  10.292   9.801 -0.0017  0.4540 -0.2161
11789W        W54701  19.893   8.320   7.831 -0.0134 -0.0615 -0.0781
11790W        W54702  17.166   9.002   7.787 -0.2829 -0.0434  0.1409
11791W        W54703  18.953   7.159   8.066  0.2716  0.0193  0.3073
11792W        W54704  19.669   8.974   8.534  0.0656  0.2654  0.3415
11793W        W54705  19.981  11.491   8.719  0.0375 -0.2231  0.2766
11794W        W54706  21.268  10.253   8.311 -0.0959  0.0951 -0.0598
11795W        W54707  18.239   7.432   8.992 -0.0449 -0.0278  0.1031
11796W        W54708  21.447  10.348   9.131  0.0972 -0.0246 -0.0788
11797W        W54709  21.804   9.497   8.172  0.2767 -0.0800 -0.2069
11798W        W54710  22.130   7.239   9.847  0.0477 -0.0337 -0.0152
11799W        W54711  21.190   8.796   9.390 -0.2442  0.2962  0.3541
11800W        W54712  22.004   9.492   8.639  0.2480  0.1475  0.0446
11801W        W54713  18.279   6.329   8.913  0.2514 -0.0858  0.3619
11802W        W54714  21.517   8.680   7.666 -0.2458 -0.0073  0.3867
11803W        W54715  19.521  10.001   9.635 -0.0549  0.2368 -0.1242
11804W        W54716  19.202   8.282   9.509 -0.1128 -0.1017  0.1161
11805W        W54717  21.059   8.690   7.857  0.0272 -0.0983 -0.2871
11806W        W54718  16.978   8.837   9.748  0.1140 -0.0999  0.5809
11807W        W54719  20.795   9.119   7.881 -0.0157  0.2777  0.1596
11808W        W54720  22.834  10.086   6.428  0.2314  0.1910 -0.2013
11809W        W54721  21.220  12.739   9.308  0.0933  0.2155 -0.0016
11810W        W54722  20.866  10.945   8.790 -0.0266 -0.0482 -0.1318
11811W        W54723  22.498   8.949   9.632 -0.1147 -0.0017  0.0821
11812W        W54724  20.492   4.280   9.793  0.0944  0.1269  0.1576
11813W        W54725  20.332  10.523   8.384  0.2096  0.0869  0.2892
11814W        W54726  20.592   9.474   9.722 -0.0786  0.1579  0.0589
11815W        W54727  23.400   8.832   8.810  0.1781  0.3401  0.1421
11816W        W54728  18.989   8.369   8.400 -0.1850  0.0743 -0.0246
11817W        W54729  20.638   6.424   7.904 -0.1010  0.0995  0.0229
11818W        W54730  21.157  11.841   9.183  0.0058 -0.1522  0.1584
11819W        W54731  21.907   8.598   9.909 -0.3039 -0.0284 -0.2424
11820W        W54732  19.517  13.681   1.950 -0.0182 -0.1616  0.1522
11821W        W54733  18.520  12.924  30.533 -0.1818  0.1791 -0.2153
11822W        W54734  22.132  11.238   0.059  0.1707  0.0891  0.0355
11823W        W54735  22.886  12.702  31.633  0.1175 -0.1348 -0.0558
11824W        W54736  17.569  11.952   0.475 -0.0886  0.2696 -0.1542
11825W        W54737  21.042  14.638   0.343  0.2772 -0.0719  0.2947
11826W        W54738  18.819  12.099   3.950 -0.1947  0.1589 -0.2713
11827W        W54739  21.268  13.369   1.619 -0.0803 -0.4605 -0.0645
11828W        W54740  22.057  14.733   1.238 -0.1249  0.1291  0.1426
11829W        W54741  21.122  13.450  29.940  0.5192 -0.2421  0.0380
11830W        W54742  19.456  13.287   2.296 -0.0412  0.0412 -0.1274
11831W        W54743  18.973  14.162   0.844  0.4625 -0.1129  0.0582
11832W        W54744  18.451  11.497  31.964 -0.0924 -0.0263  0.0569
11833W        W54745  17.888  11.542   2.020 -0.0799  0.0550  0.0801
11834W        W54746  21.672  12.129   1.980 -0.2105 -0.2162  0.0443
11835W        W54747  19.311  13.430  30.596 -0.1159 -0.1520 -0.0251
11836W        W54748  19.605  12.078   1.406 -0.6645  0.0286  0.3342
11837W        W54749  19.622  11.188   0.127 -0.1695 -0.1408 -0.2406
11838W        W54750  20.491  15.576   0.639 -0.2237  0.1313 -0.1690
11839W        W54751  19.515  11.942   2.264  0.1067  0.1745 -0.0972
11840W        W54752  20.718  10.931   3.239  0.1620 -0.1674 -0.1264
11841W        W54753  20.100  13.093  31.645  0.0290 -0.2641 -0.1026
11842W        W54754  17.483  11.012   0.363  0.4379 -0.1477 -0.1689
11843W        W54755  18.196  12.135   1.335 -0.2151  0.2447  0.0312
11844W        W54756  18.496  11.832   1.010  0.1044 -0.2795  0.3607
11845W        W54757  21.791  11.033   2.001  0.0710  0.1771  0.0176
11846W        W54758  20.214  13.477   1.597 -0.2502  0.0025  0.0766
11847W        W54759  20.430  14.455   1.503 -0.0906  0.0523  0.1170
11848W        W54760  19.284  13.897   0.186 -0.0172  0.0010  0.2369
11849W        W54761  20.461  12.462   1.541 -0.0661  0.0969 -0.1583
11850W        W54762  19.300  12.964   0.439  0.0772 -0.0964  0.1501
11851W        W54763  18.317  15.948  31.627  0.0700 -0.2413 -0.1871
11852W        W54764  19.368  13.914  30.896  0.1919 -0.0428 -0.1669
11853W        W54765  21.507  14.215   0.905  0.0064  0.0804  0.3459
11854W        W54766  20.947  14.282   2.707 -0.2858  0.0178  0.0653
11855W        W54767  19.045  15.955   2.448  0.0895 -0.0221 -0.2336
11856W        W54768  19.124  13.135   0.917  0.2059 -0.0953 -0.0018
11857W        W54769  19.337  14.412   2.328 -0.1548 -0.3300  0.0787
11858W        W54770  19.620  13.756   3.609 -0.1415 -0.0162 -0.0023
11859W        W54771  19.309  11.932   0.874 -0.0999  0.0654 -0.1481
11860W        W54772  20.109  12.787   1.008 -0.1807 -0.0199 -0.1326
11861W        W54773  20.123  14.058  30.667  0.1426  0.0901  0.1242
11862W        W54774  21.133  13.196  31.841  0.0359  0.0476 -0.0716
11863W        W54775  19.515  14.460   2.872 -0.2154  0.3198  0.3152
11864W        W54776  19.088  12.156   1.326  0.0079 -0.2409  0.4137
11865W        W54777  21.812  12.067   3.351  0.0349  0.1498  0.1774
11866W        W54778  19.474  13.916  30.273  0.0635 -0.1240  0.1775
11867W        W54779  20.266  10.423  31.427 -0.3452 -0.0471 -0.1433
11868W        W54780  18.886  11.330  31.710  0.1085  0.1226 -0.0595
11869W        W54781  19.675  11.289  31.334  0.3294  0.1232  0.2336
11870W        W54782  19.283  10.611   1.005  0.4089  0.3572  0.0724
11871W        W54783  18.839  14.902   0.172  0.0074 -0.1801  0.0448
11872W        W54784  20.110  12.535   1.930 -0.2150 -0.0540 -0.2850
11873W        W54785  22.039  12.841   2.994 -0.1244  0.3061  0.2694
11874W        W54786  18.366  10.924   0.858  0.1895 -0.3261 -0.0150
11875W        W54787  20.286  11.138   1.452 -0.3212 -0.0143  0.1004
11876W        W54788  19.813  12.838   0.291 -0.4205 -0.1348 -0.2771
11877W        W54789  17.961  12.946   1.592  0.0445  0.2198 -0.2254
11878W        W54790  20.898  14.379  31.943  0.3762 -0.1908  0.3806
11879W        W54791  21.568  13.762   1.154  0.1044 -0.0960  0.1909
11880W        W54792  19.448  13.168  30.982 -0.1483  0.0743 -0.1450
11881W        W54793  17.138  11.893  31.567 -0.2095 -0.0591 -0.1431
11882W        W54794  18.792  13.174   2.127 -0.4708  0.0816 -0.2600
11883W        W54795  19.557  12.478   3.252  0.0518 -0.0543  0.0761
11884W        W54796  18.743  10.520   0.928  0.1444  0.1291 -0.0761
11885W        W54797  21.803  13.968   2.591  0.2758 -0.2923  0.0582
11886W        W54798  18.224  14.206   2.047  0.0276 -0.1483  0.0013
11887W        W54799  22.020  12.017   1.081  0.0820 -0.0047  0.0995
11888W        W54800  18.867  12.130   0.868 -0.0056  0.0115  0.0698
11889W        W54801  20.993  14.551   2.311 -0.2178  0.1248  0.0168
11890W        W54802  20.365  13.105   0.218 -0.1221 -0.1229 -0.1874
11891W        W54803  22.360  11.924   0.277 -0.1083  0.2720 -0.2192
11892W        W54804  20.232  11.749   3.131  0.1628  0.2438 -0.0424
11893W        W54805  19.379  13.126  31.481 -0.1392  0.0659  0.0504
11894W        W54806  19.231  12.194  31.248  0.0478  0.1996 -0.0329
11895W        W54807  21.738  13.775   3.069 -0.1305  0.1845 -0.0166
11896W        W54808  21.902  12.557   0.190  0.1657 -0.1163  0.0545
11897W        W54809  18.922  13.121   1.401  0.0903  0.1245 -0.1623
11898W        W54810  19.537  12.986   3.220  0.0453 -0.1959 -0.0472
11899W        W54811  20.493  13.933   3.362  0.3991 -0.1439  0.3200
11900W        W54812  18.270  14.196  30.481 -0.1497 -0.2755 -0.0750
11901W        W54813  19.164  12.685  31.536  0.1566  0.2537  0.0244
11902W        W54814  18.544  13.322  30.889  0.1686  0.0600 -0.1006
11903W        W54815  17.473  11.904   3.308 -0.2422 -0.2058  0.0824
11904W        W54816  19.280  13.774   0.832  0.1107  0.0936  0.2485
11905W        W54817  20.368  11.732   0.048 -0.0296 -0.0527 -0.1517
11906W        W54818  18.613  12.475   2.965  0.1817 -0.2545 -0.0044
11907W        W54819  20.225  10.411   1.542 -0.0654  0.0841 -0.1334
11908W        W54820  19.434  12.550   1.199  0.1641 -0.1001 -0.3296
11909W        W54821  21.800  13.592   0.392  0.1653 -0.0905  0.1275
11910W        W54822  21.609  11.916  31.537  0.2632  0.3048 -0.1001
11911W        W54823  21.425  13.472  30.911 -0.1486  0.1582 -0.1365
11912W        W54824  18.073  13.338   1.908 -0.2711  0.0104  0.1668
11913W        W54825  18.881  11.616   1.871 -0.0291 -0.1873 -0.3907
11914W        W54826  18.641  11.261   3.011  0.1342 -0.2024 -0.0674
11915W        W54827  18.121  11.198   3.243 -0.0043  0.1191 -0.1425
11916W        W54828  21.019  12.533   3.461 -0.4343  0.0896 -0.1100
11917W        W54829  17.622  11.429  30.373 -0.0122  0.1080 -0.0316
11918W        W54830  19.352  12.533   0.170  0.3964 -0.1168 -0.1069
11919W        W54831  19.878  12.740   2.870 -0.0222  0.2386 -0.0195
11920W        W54832  18.399  11.837   0.506 -0.0228  0.0534  0.1274
11921W        W54833  20.769  11.746   2.476  0.2671  0.1524 -0.1514
11922W        W54834  20.445  13.559   1.068 -0.1963  0.1037  0.0122
11923W        W54835  21.801  14.743   3.584  0.1965 -0.0463 -0.4685
11924W        W54836  22.154  12.520   1.085  0.1194 -0.3843  0.0695
11925W        W54837  18.451  12.245   2.228 -0.2663 -0.0708 -0.1241
11926W        W54838  16.641  12.144   0.092 -0.0041  0.3751 -0.3764
11927W        W54839  19.785  14.369  30.232  0.0993  0.2131  0.2039
11928W        W54840  19.737  13.367   1.632  0.2078  0.1483  0.0860
11929W        W54841  19.500  11.621   1.235 -0.0790 -0.1307 -0.0193
11930W        W54842  22.272  13.880   1.774  0.0994 -0.2604  0.0812
11931W        W54843  19.723  13.949   0.998  0.0943  0.0736 -0.1217
11932W        W54844  18.998  13.559   2.432 -0.0295 -0.1519  0.2396
11933W        W54845  20.237  11.490   2.660  0.1720 -0.0356 -0.1590
11934W        W54846  20.909  12.929   2.326  0.1672  0.0137  0.0722
11935W        W54847  19.750  11.114   1.604  0.1026  0.2590  0.1130
11936W        W54848  18.121  10.626   1.648  0.2358 -0.0250  0.0529
11937W        W54849  19.313  13.409   0.249 -0.1597  0.0149 -0.0494
11938W        W54850  19.958  14.572  31.497 -0.1452 -0.2275 -0.0723
11939W        W54851  16.121  12.244   1.119  0.0970  0.2985  0.3078
11940W        W54852  20.105  12.510  30.998 -0.5109  0.6506 -0.0463
11941W        W54853  21.756  10.208   1.577 -0.0607 -0.2241  0.0667
11942W        W54854  17.567  13.142   4.025  0.1142  0.2762  0.0859
11943W        W54855  21.226  12.158   2.740  0.0026  0.0736 -0.0426
11944W        W54856  17.851  11.610   0.348 -0.1034 -0.1142  0.0960
11945W        W54857  18.727  14.297   2.289  0.1469 -0.2399  0.1578
11946W        W54858  20.069  12.458   2.473 -0.1539  0.2005  0.0720
11947W        W54859  19.763  11.312   0.637  0.1246 -0.0923 -0.3216
11948W        W54860  18.641  11.817   1.464 -0.1654  0.0536 -0.2341
11949W        W54861  22.339  12.367   0.102 -0.0733  0.2110 -0.1595
11950W        W54862  20.079   9.902   0.034  0.0152 -0.0225  0.1639
11951W        W54863  20.460  10.528   0.764 -0.0045  0.2691 -0.2736
11952W        W54864  18.245  14.873   3.238  0.1128  0.2361 -0.3391
11953W        W54865  20.104  13.607   0.262 -0.1491  0.3105 -0.0016
11954W        W54866  21.007  13.589   1.227 -0.3902  0.0767 -0.1990
11955W        W54867  19.687  11.887  31.485  0.1726  0.0498  0.1223
11956W        W54868  22.212  14.383  30.467 -0.3053 -0.2148 -0.2213
11957W        W54869  19.133  13.978   2.147 -0.2048  0.3124  0.0871
11958W        W54870  19.060  12.628   1.572 -0.2450  0.0785 -0.1012
11959W        W54871  20.446  13.719   2.096  0.0249 -0.0861  0.1665
11960W        W54872  18.807  11.559   2.561 -0.2331  0.1790 -0.1715
11961W        W54873  19.778  12.857  31.305  0.2219 -0.0553 -0.0114
11962W        W54874  19.618  12.477   2.255 -0.0233 -0.1967 -0.0822
11963W        W54875  17.896  13.995  30.108  0.1280 -0.4301 -0.0992
11964W        W54876  21.568  10.254   2.215  0.0094 -0.2061  0.1070
11965W        W54877  19.076  12.528   2.448 -0.2471 -0.3148 -0.2366
11966W        W54878  19.135  12.003   2.606 -0.1326  0.0135 -0.0159
11967W        W54879  20.860  12.365   2.468 -0.2679 -0.1593 -0.1099
11968W        W54880  21.890  12.650  31.207  0.1269  0.0298  0.2432
11969W        W54881  21.260  12.276   1.715 -0.3143 -0.0851  0.0558
11970W        W54882  19.454  11.543  31.786 -0.0885 -0.0209 -0.2371
11971W        W54883  20.061  12.610   3.310 -0.1497 -0.0020 -0.0263
11972W        W54884  18.550  12.685   2.483 -0.1337  0.3224  0.0506
11973W        W54885  18.212  14.442  31.891 -0.2309 -0.1209 -0.1606
11974W        W54886  21.470  13.568   2.013  0.1141 -0.1999 -0.1993
11975W        W54887  21.787  12.390   1.475  0.2407  0.1396  0.1869
11976W        W54888  18.970  13.096   3.118  0.1250  0.0736  0.1901
11977W        W54889  18.320  10.431   2.413 -0.2355 -0.2747 -0.1320
11978W        W54890  19.440  13.723  31.354  0.4553  0.1195  0.1589
11979W        W54891  19.033  13.048  30.677 -0.0128  0.0036  0.3838
11980W        W54892  20.194   9.688   2.041  0.1763  0.0840 -0.0312
11981W        W54893  19.435  14.196   1.815 -0.0933  0.1751  0.2707
11982W        W54894  19.047  14.432  31.371 -0.2132  0.2641  0.0441
11983W        W54895  21.235  14.079   2.113  0.0901  0.4277  0.0075
11984W        W54896  19.537  13.340   0.731  0.0423  0.0411 -0.2502
11985W        W54897  20.639  10.331   1.242 -0.1451 -0.1173 -0.2463
11986W        W54898  18.804  14.000  31.506 -0.1783 -0.1152  0.3276
11987W        W54899  18.919  11.560   1.126  0.0572 -0.0656 -0.1009
11988W        W54900  17.507  12.202  31.471  0.1763 -0.3418 -0.0515
11989W        W54901  22.007  10.091   2.484  0.0653  0.0047 -0.0519
11990W        W54902  21.369  13.265  31.419  0.0350 -0.1441 -0.1573
11991W        W54903  18.231  12.459   1.762  0.2628 -0.3523 -0.2571
11992W        W54904  19.301  11.822   1.818  0.0542 -0.0035  0.1002
11993W        W54905  18.101  14.798   0.710 -0.0598 -0.0941 -0.0067
11994W        W54906  19.167  13.299   1.818 -0.0654 -0.0377 -0.0278
11995W        W54907  21.075  10.653   0.940 -0.0503  0.0402 -0.0148
11996W        W54908  20.115  13.760   0.730  0.1313 -0.0180 -0.1051
11997W        W54909  20.106  13.857   3.721  0.2449 -0.2648  0.1205
11998W        W54910  17.678   8.622   1.562  0.1866  0.0270 -0.0948
11999W        W54911  21.117  11.916   2.135 -0.0504 -0.1186  0.2778
12000W        W54912  20.210  12.236   0.837  0.2710  0.0662  0.3161
12001W        W54913  18.676  14.491  31.824 -0.1872  0.0116  0.2719
12002W        W54914  19.898  13.460   1.140  0.0563 -0.0925 -0.4576
12003W        W54915  18.106  11.106   0.080  0.0662 -0.1308 -0.0127
12004W        W54916  19.704  12.255   0.973  0.0077  0.0571 -0.1177
12005W        W54917  17.279  12.774   4.471  0.0535 -0.0806 -0.0406
12006W        W54918  20.942  13.366   2.132  0.1679  0.3114 -0.0144
12007W        W54919  19.185  13.799   1.573  0.0530 -0.2909 -0.4078
12008W        W54920  19.801  10.662   0.735  0.2318 -0.0894  0.0909
12009W        W54921  20.940  12.247   0.907  0.0285  0.2970 -0.2517
12010W        W54922  19.810  15.862   1.639  0.1304 -0.4850  0.1090
12011W        W54923  20.197  13.978   1.278 -0.0086 -0.1700  0.1276
12012W        W54924  19.252  15.300   3.607 -0.2615  0.0732 -0.1972
12013W        W54925  20.054  10.228   2.607 -0.2081 -0.2569  0.1108
12014W        W54926  22.024  14.545   0.347  0.1946  0.1861  0.2495
12015W        W54927  20.934  13.914   3.043 -0.1216 -0.0897  0.0766
12016W        W54928  19.831  12.382   0.031 -0.1224 -0.1371 -0.0429
12017W        W54929  18.960  13.660   1.172  0.1220 -0.1517 -0.1871
12018W        W54930  20.419  12.730  31.385  0.1670 -0.0106 -0.3267
12019W        W54931  20.065  12.216   3.015 -0.0980  0.0690 -0.0738
12020W        W54932  19.767  13.295   0.187 -0.2284 -0.1803  0.1606
12021W        W54933  18.915  12.547   0.048  0.0610  0.0466 -0.1039
12022W        W54934  19.513  14.737   0.312  0.1606 -0.2692  0.2521
12023W        W54935  20.909  10.014   0.298  0.0127  0.0481 -0.1360
12024W        W54936  19.570  12.890  31.854 -0.0116  0.2268  0.1113
12025W        W54937  19.798  12.116   1.890  0.0923  0.1604 -0.0941
12026W        W54938  21.164  11.705   3.123  0.1708 -0.1304 -0.0515
12027W        W54939  20.244  13.628  31.774 -0.1226 -0.2346 -0.0900
12028W        W54940  21.237  11.854   4.192  0.2249 -0.0678 -0.0330
12029W        W54941  17.797  12.051   2.900 -0.2489 -0.1519 -0.0017
12030W        W54942  21.521  14.067   0.032  0.0378 -0.0194  0.1537
12031W        W54943  17.634  13.062   1.218  0.1550 -0.1294 -0.2728
12032W        W54944  19.200  14.643   3.867 -0.2229  0.1720  0.2327
12033W        W54945  17.725  12.654   3.636 -0.3670 -0.1832 -0.2017
12034W        W54946  18.946  11.700   0.639  0.2524  0.0426 -0.0117
12035W        W54947  17.807  12.476   0.081  0.2752 -0.3325 -0.2761
12036W        W54948  18.594  14.545   1.821 -0.0564 -0.1633 -0.2727
12037W        W54949  22.009  13.590   2.162 -0.2305  0.1066  0.3749
12038W        W54950  19.542  12.350  31.597 -0.0237 -0.2309 -0.1871
12039W        W54951  20.978  12.553   0.174 -0.1001  0.2134  0.1238
12040W        W54952  18.143  12.363   2.633 -0.0513  0.1380  0.2291
12041W        W54953  19.767  11.886   0.036 -0.4193 -0.3354  0.1774
12042W        W54954  21.415  12.908   0.675  0.0030  0.0946  0.0228
12043W        W54955  19.168  12.321   2.011 -0.1145  0.0101  0.2745
12044W        W54956  19.644  11.120   2.816 -0.1176 -0.1882  0.4364
12045W        W54957  20.547  12.857   3.198  0.3030  0.0438  0.0859
12046W        W54958  21.631  12.736   1.119 -0.2752  0.0800  0.2243
12047W        W54959  20.600   9.988   1.815 -0.0468  0.2204 -0.1922
12048W        W54960  19.379  12.977   1.509 -0.0621  0.2055  0.1387
12049W        W54961  17.830  12.991   2.220  0.0537 -0.3611  0.2602
12050W        W54962  16.865  12.422   2.781  0.1653  0.1004  0.0479
12051W        W54963  22.643  15.033   4.405 -0.1232  0.2448  0.1885
12052W        W54964  21.749  11.440  31.748 -0.0342 -0.0808 -0.1011
12053W        W54965  21.041  11.408   2.016 -0.1006 -0.2207 -0.2869
12054W        W54966  22.070  11.971   1.687 -0.1079  0.2495 -0.2140
12055W        W54967  21.069   9.705   0.679 -0.1957 -0.2307 -0.0986
12056W        W54968  18.657   9.806   1.031  0.0307  0.0744 -0.1982
12057W        W54969  21.336  13.740   3.892  0.2460 -0.0390  0.1387
12058W        W54970  18.923  11.009   1.058 -0.0432 -0.1613 -0.2391
12059W        W54971  19.080  13.434   3.885  0.0894 -0.2064  0.2062
12060W        W54972  19.265  14.315  30.412 -0.3654 -0.0450  0.0425
12061W        W54973  21.194  13.899  31.702 -0.1382 -0.0739  0.0351
12062W        W54974  20.201  13.000   1.898 -0.2351 -0.0585 -0.2079
12063W        W54975  18.407  11.746   2.048  0.0238 -0.0906  0.0393
12064W        W54976  18.873  15.112   2.616  0.0605  0.1269  0.2465
12065W        W54977  19.462  11.643   0.394  0.1730  0.0178  0.0765
12066W        W54978  19.089  12.130   0.383 -0.0387  0.1394  0.0527
12067W        W54979  20.603  13.508   3.058  0.0972  0.0078  0.1894
12068W        W54980  21.191  13.854   2.569 -0.4400  0.4052  0.2300
12069W        W54981  19.928   8.303   1.334 -0.1724 -0.1626 -0.4442
12070W        W54982  21.486  12.545   2.647  0.1939 -0.0292 -0.3075
12071W        W54983  18.996  13.542  31.057 -0.0543 -0.3198 -0.2228
12072W        W54984  20.220  11.972   1.658  0.0727 -0.1897  0.1818
12073W        W54985  19.055  14.542   1.926 -0.0078 -0.4287  0.1212
12074W        W54986  18.447  14.103   0.600 -0.1282  0.0223 -0.1277
12075W        W54987  20.517  13.176   0.802  0.3672 -0.1899  0.0278
12076W        W54988  20.267  10.761   1.974  0.2406 -0.0196  0.3176
12077W        W54989  21.101  11.137   0.982  0.1556 -0.3166 -0.2684
12078W        W54990  20.003  11.828   1.146 -0.6672  0.2794 -0.0248
12079W        W54991  21.632  11.766   2.922  0.3102  0.1422 -0.0344
12080W        W54992  20.665  13.038  31.772 -0.1207  0.3670  0.0891
12081W        W54993  18.671  12.386   1.335 -0.0402 -0.4243  0.0199
12082W        W54994  20.729  13.655   2.509  0.2513 -0.2345  0.1865
12083W        W54995  20.536  12.533   1.050 -0.2875 -0.0593 -0.2442
12084W        W54996  19.691  13.834   1.493 -0.0655 -0.1118  0.1871
12085W        W54997  17.680  12.907   3.118  0.2933  0.1036  0.2461
12086W        W54998  19.215  12.931   4.285  0.1756  0.2457 -0.0157
12087W        W54999  20.756  14.061   1.166  0.0610 -0.0364 -0.0148
12088W        W55000  18.455  11.303   1.742 -0.1381  0.3717  0.2423
12089W        W55001  19.545  14.252  31.261  0.0834 -0.2193 -0.0826
12090W        W55002  19.779  13.287   2.616 -0.1074 -0.0294 -0.2738
12091W        W55003  19.322  13.270   2.829 -0.0843 -0.3592 -0.1801
12092W        W55004  18.011  14.416  31.351 -0.0835  0.1553 -0.3378
12093W        W55005  22.188  14.042  31.842  0.1359  0.0323  0.1500
12094W        W55006  21.306  13.769   0.690 -0.1928  0.0368  0.0124
12095W        W55007  20.510  13.949   1.665 -0.1004  0.0729  0.1874
12096W        W55008  19.429  11.050  31.680  0.0183  0.1017  0.1333
12097W        W55009  18.563  14.478  31.340  0.3792  0.3121  0.1444
12098W        W55010  18.957  12.640   1.026 -0.2949 -0.4989  0.0534
12099W        W55011  20.828  13.585  31.482  0.3209 -0.0299 -0.2655
12100W        W55012  18.788  14.945  31.620 -0.0366  0.0551  0.4293
12101W        W55013  20.486  12.718   2.269  0.1078 -0.4247  0.1305
12102W        W55014  21.813  11.572   0.362 -0.0157  0.1038 -0.1299
12103W        W55015  21.332  12.471   2.158  0.0757  0.0646  0.1867
12104W        W55016  21.201  11.492   0.510  0.1628  0.2866 -0.1884
12105W        W55017  20.952  14.813   4.071  0.0040 -0.1116 -0.0456
12106W        W55018  19.580  12.339   2.739  0.1145  0.2766  0.0905
12107W        W55019  18.537  11.513  31.300 -0.2441  0.1652  0.2053
12108W        W55020  17.635  13.282   4.497  0.2086 -0.0596  0.0435
12109W        W55021  22.569  11.785   3.273  0.1583 -0.4088  0.0643
12110W        W55022  17.686  14.368   2.164  0.0746  0.2348 -0.0039
12111W        W55023  20.337  16.004  31.377 -0.4098  0.1326  0.0476
12112W        W55024  18.041  12.682   0.566 -0.1216  0.1745  0.1155
12113W        W55025  20.104  12.964   2.489 -0.5106 -0.3716  0.0073
12114W        W55026  21.530  11.277   2.957 -0.1809 -0.2189  0.0864
12115W        W55027  20.549  11.759  31.266 -0.1726  0.0354  0.0079
12116W        W55028  20.872  12.980   1.321 -0.2247 -0.3328 -0.3004
12117W        W55029  19.963  14.241   1.612 -0.0153  0.3289  0.0050
12118W        W55030  20.030  13.194   0.674  0.0027  0.0495 -0.2021
12119W        W55031  19.631  15.247   2.188 -0.1899 -0.2507 -0.0594
12120W        W55032  19.277  11.374   0.852  0.0361  0.1376  0.1153
12121W        W55033  20.506  11.586   1.587  0.1813  0.2067 -0.2012
12122W        W55034  19.343  12.017   3.590 -0.1333  0.1471  0.2805
12123W        W55035  21.679  11.468   3.350 -0.0760 -0.1573 -0.2322
12124W        W55036  18.350  12.371   0.914 -0.0573  0.1785  0.0113
12125W        W55037  20.586  11.467   0.454  0.0881 -0.0760 -0.2129
12126W        W55038  18.213  11.270   0.539  0.0902 -0.1125 -0.4138
12127W        W55039  18.978  12.096   3.101 -0.1227 -0.3035 -0.0007
12128W        W55040  20.442  12.520   2.784 -0.1311 -0.1715  0.1420
12129W        W55041  19.716  12.897   2.021 -0.0017 -0.0902  0.0506
12130W        W55042  20.008  12.448  31.507  0.1109 -0.1043 -0.2049
12131W        W55043  21.314  14.188   3.062 -0.1534  0.0427 -0.3429
12132W        W55044  20.018  12.367   1.350  0.2055 -0.0341  0.2643
12133W        W55045  20.230  10.713   0.366 -0.2077 -0.0636 -0.5596
12134W        W55046  18.901  12.919  31.132  0.0789  0.3586  0.0620
12135W        W55047  18.125  12.624   3.059  0.0911  0.1480 -0.2637
12136W        W55048  21.955  14.369   4.247  0.1815 -0.0006  0.0259
12137W        W55049  18.400  10.162   0.747 -0.0340  0.0062 -0.3906
12138W        W55050  23.192  12.424   0.521 -0.0582 -0.3813 -0.0749
12139W        W55051  21.631  10.661   1.735  0.0033  0.0157  0.3746
12140W        W55052  18.676  13.888   0.015 -0.0867  0.1216 -0.3464
12141W        W55053  21.869  13.115   0.196  0.2681  0.1581 -0.0916
12142W        W55054  21.560  14.599   1.302  0.3254 -0.1884  0.0407
12143W        W55055  18.091  11.875   2.433  0.3783  0.1537 -0.1549
12144W        W55056  20.103  14.936   1.970  0.0376 -0.0097  0.3161
12145W        W55057  21.025  13.774   1.776 -0.0920  0.1236  0.0003
12146W        W55058  18.461  10.943   2.644  0.0429  0.1027 -0.2059
12147W        W55059  18.771  12.622   2.066  0.2013 -0.1597 -0.2906
12148W        W55060  19.222  13.629  31.796  0.0387  0.2751  0.0362
12149W        W55061  22.730  12.265   3.467  0.0346  0.0149  0.1713
12150W        W55062  19.239  13.516   3.332 -0.0885 -0.2273 -0.1950
12151W        W55063  21.101  13.437  30.490 -0.2444  0.2316  0.0653
12152W        W55064  20.625  10.187   2.806  0.0795 -0.0678 -0.0972
12153W        W55065  19.996  13.868   1.912 -0.0754  0.2266  0.3594
12154W        W55066  18.217  14.211   3.192 -0.0133 -0.0514 -0.3208
12155W        W55067  18.000  12.183   0.471  0.0275 -0.0330 -0.2324
12156W        W55068  19.100  12.575   3.415 -0.2192  0.0406 -0.0523
12157W        W55069  19.865  12.896   1.500 -0.3296  0.1468  0.1736
12158W        W55070  20.541  14.670   0.908 -0.1380 -0.0471  0.0134
12159W        W55071  21.262  14.087   1.396 -0.1159  0.0088  0.3905
12160W        W55072  20.010  11.550  31.699 -0.1074  0.2772  0.0022
12161W        W55073  21.406  14.456   1.805 -0.3893 -0.0673 -0.3120
12162W        W55074  20.531  11.676   2.043  0.1674 -0.3421 -0.0560
12163W        W55075  20.486  12.068   1.232 -0.1262  0.4578  0.0021
12164W        W55076  21.709   9.393   1.292 -0.2201  0.3161 -0.1486
12165W        W55077  19.143  14.064   2.628 -0.2282 -0.3681 -0.0727
12166W        W55078  17.677  13.012   0.233 -0.0266 -0.0085 -0.0806
12167W        W55079  19.073  13.000  31.921 -0.0882 -0.0366 -0.0476
12168W        W55080  18.119  13.223   0.500  0.1672 -0.0027  0.4017
12169W        W55081  19.564  11.737   3.960 -0.1127 -0.1522 -0.0143
12170W        W55082  19.077  11.622   3.763  0.3136  0.0554 -0.2563
12171W        W55083  18.198  11.699   1.559  0.0551 -0.3937  0.0189
12172W        W55084  18.195   9.765   1.876 -0.2116 -0.2268  0.0847
12173W        W55085  22.061  13.557  31.871  0.0648  0.1778 -0.0857
12174W        W55086  19.716  11.461   2.448 -0.1747 -0.0933 -0.1325
12175W        W55087  18.442  11.297   1.175 -0.0850 -0.2122  0.1968
12176W        W55088  21.743  13.824  31.623  0.0241 -0.0812 -0.1960
12177W        W55089  19.775  14.246   2.141 -0.2376 -0.4707  0.0434
12178W        W55090  18.446  10.788   2.043 -0.0458  0.2774 -0.2597
12179W        W55091  22.205  13.873   3.720 -0.0992  0.0924 -0.4249
12180W        W55092  18.561  12.536  30.904  0.0854 -0.0379  0.0974
12181W        W55093  20.017  11.481   5.390  0.0309 -0.1170  0.2661
12182W        W55094  19.329  12.152   4.132 -0.0012 -0.0640 -0.0651
12183W        W55095  17.120  11.901   0.249  0.0863  0.3528  0.1836
12184W        W55096  19.986  13.423   2.169 -0.2847 -0.2203  0.0123
12185W        W55097  20.896  14.324   0.756 -0.1314  0.1818 -0.0941
12186W        W55098  20.905  13.016   0.324 -0.0487 -0.1286 -0.2554
12187W        W55099  20.129  13.206   3.016  0.0206  0.0843  0.1300
12188W        W55100  19.300  15.084   1.769 -0.0261 -0.0525  0.2571
12189W        W55101  16.731  11.686   4.231  0.1773 -0.1522  0.2247
12190W        W55102  21.297  12.425   0.491 -0.1594 -0.2248  0.3106
12191W        W55103  18.447  13.178   4.048 -0.0067 -0.4082 -0.3571
12192W        W55104  21.677  13.060  30.865  0.0982 -0.1979 -0.2989
12193W        W55105  20.785  11.814   0.748 -0.0229  0.0798  0.1734
12194W        W55106  19.772  11.829   0.723 -0.1842  0.0212  0.2622
12195W        W55107  17.204  11.431   4.177  0.1218 -0.0437  0.1061
12196W        W55108  19.383  13.437   1.291 -0.4545 -0.0479 -0.0711
12197W        W55109  20.431  12.178   2.129  0.1010 -0.1759 -0.0870
12198W        W55110  19.185  10.130   0.996 -0.3971 -0.3764 -0.2305
12199W        W55111  19.971  11.302   1.125 -0.2437  0.0513  0.0199
12200W        W55112  20.587  15.039   0.189 -0.0711 -0.0007 -0.2290
12201W        W55113  18.611  12.027   2.664  0.5148  0.1518  0.1043
12202W        W55114  19.701  12.292  31.157  0.3576 -0.1639  0.1272
12203W        W55115  20.603  13.109   2.718  0.0230  0.0966 -0.0501
12204W        W55116  21.310  13.650   0.218 -0.0182 -0.1081  0.4676
12205W        W55117  19.526  14.709   1.980 -0.2647 -0.2078 -0.0621
12206W        W55118  19.566  12.525   1.695  0.0748  0.0038  0.0745
12207W        W55119  22.180  13.952   0.345 -0.1092  0.1909 -0.0004
12208W        W55120  20.511  14.034   0.350 -0.0615 -0.0977 -0.2695
12209W        W55121  20.884  15.487   2.437  0.1013 -0.3123 -0.1359
12210W        W55122  20.346  15.284   1.009  0.1904 -0.3290  0.0299
12211W        W55123  21.038  13.315   0.843  0.2586  0.0859  0.1940
12212W        W55124  19.180  11.556   2.245 -0.0786  0.1061 -0.4624
12213W        W55125  18.897  12.629   0.552  0.2510  0.1567 -0.1653
12214W        W55126  20.571  13.569   0.475  0.1281 -0.1161  0.0203
12215W        W55127  20.265  11.728   0.744  0.0341  0.0575  0.3618
12216W        W55128  18.837  11.951   2.211 -0.0618 -0.1612 -0.3436
12217W        W55129  20.632   9.534   2.186  0.0379 -0.1395  0.0963
12218W        W55130  19.194  14.937   2.305 -0.1231  0.3378 -0.1130
12219W        W55131  20.033  14.147   0.441 -0.2040  0.1447  0.3058
12220W        W55132  19.948  13.471   8.266  0.0158 -0.0339 -0.1885
12221W        W55133  17.119  12.865   3.958 -0.1902  0.0112 -0.1471
12222W        W55134  22.105  12.508   2.348  0.0361  0.1882 -0.1590
12223W        W55135  21.052  12.811   2.819  0.0618  0.0039 -0.1881
12224W        W55136  19.434  12.206   5.284 -0.3278 -0.1574  0.0147
12225W        W55137  19.507  15.572   4.937  0.0516 -0.0157 -0.2618
12226W        W55138  19.845  10.174   7.014  0.0810  0.2345 -0.0277
12227W        W55139  21.042  14.117   5.119 -0.2693 -0.2171  0.0186
12228W        W55140  21.227  15.040   6.095  0.1700 -0.0270  0.5697
12229W        W55141  19.468  12.839   2.563  0.2763  0.2028  0.1169
12230W        W55142  20.473  11.991   5.501 -0.0935 -0.0450 -0.2125
12231W        W55143  18.741  14.124   5.679  0.0832  0.1413 -0.0762
12232W        W55144  19.502  10.817   4.154 -0.1162 -0.2409 -0.0537
12233W        W55145  19.325  10.835   6.350 -0.1161 -0.1871 -0.3226
12234W        W55146  21.799  12.478   4.977  0.0646  0.2859  0.2815
12235W        W55147  18.237  13.814   2.834  0.2469  0.0576  0.0965
12236W        W55148  19.202  11.979   5.695 -0.1039  0.1969  0.0327
12237W        W55149  18.646  12.603   3.846 -0.1404 -0.0720 -0.2464
12238W        W55150  20.701  14.569   5.717  0.5688 -0.3180  0.4722
12239W        W55151  20.776  11.422   6.355  0.2330  0.0564  0.1836
12240W        W55152  21.048  11.265   6.961  0.0666 -0.1759 -0.2215
12241W        W55153  20.514  13.991   4.885 -0.1841  0.2471  0.0279
12242W        W55154  18.096  13.070   3.331  0.3817  0.1889 -0.1447
12243W        W55155  18.440  12.112   4.761  0.2371  0.0725 -0.1717
12244W        W55156  21.188  11.522   6.103 -0.1616  0.0246 -0.1043
12245W        W55157  20.370  11.235   4.529 -0.2753 -0.1093  0.0165
12246W        W55158  22.026  14.677   5.016 -0.2981 -0.0215 -0.1275
12247W        W55159  19.672  14.029   4.086  0.1604 -0.1446  0.0002
12248W        W55160  20.452  15.482   5.349 -0.2565  0.3189  0.1743
12249W        W55161  20.705  12.995   3.960  0.2610 -0.0924  0.1843
12250W        W55162  18.312  14.013   4.684  0.0709 -0.0270  0.0362
12251W        W55163  17.799  15.473   3.803 -0.0311  0.0933 -0.1242
12252W        W55164  19.974  14.092   5.165 -0.1794  0.3934 -0.0873
12253W        W55165  21.042  13.696   4.483 -0.0084  0.1247 -0.2814
12254W        W55166  20.247  12.502   5.379 -0.0213  0.3704 -0.0084
12255W        W55167  19.493  12.814   8.040 -0.2089  0.1036 -0.0448
12256W        W55168  17.421  14.057   2.457  0.1190 -0.1439 -0.4186
12257W        W55169  19.232  14.020   7.307  0.0732 -0.0534 -0.0209
12258W        W55170  18.161  15.612   6.100  0.0755  0.2678 -0.0280
12259W        W55171  20.927  12.702   5.569  0.0523 -0.2158 -0.0575
12260W        W55172  20.419  13.465   5.053  0.1359 -0.1085 -0.1863
12261W        W55173  19.644  13.850   2.487 -0.1511 -0.0793 -0.1066
12262W        W55174  18.533  14.438   4.471 -0.1350 -0.0543 -0.1108
12263W        W55175  19.500  13.526   6.665 -0.0808 -0.1729  0.0142
12264W        W55176  19.467  13.341   5.556 -0.1357 -0.2860 -0.2360
12265W        W55177  20.856  11.687   7.278  0.3746 -0.2199 -0.0734
12266W        W55178  19.000  14.236   3.111  0.0753  0.0227 -0.0977
12267W        W55179  20.887  11.962   3.444  0.2459 -0.0054 -0.0212
12268W        W55180  18.979  12.156   4.546  0.0899 -0.0053 -0.0538
12269W        W55181  22.735  12.429   3.966  0.1131  0.0443  0.0814
12270W        W55182  20.152  10.998   5.246 -0.2287  0.4503 -0.1653
12271W        W55183  18.874  14.218   4.786 -0.0277 -0.1477  0.0882
12272W        W55184  18.953  12.073   5.063 -0.0340 -0.2972 -0.2088
12273W        W55185  21.801  14.403   5.612 -0.2170 -0.0174 -0.1261
12274W        W55186  18.984  12.502   4.246  0.1114  0.1388 -0.2163
12275W        W55187  20.097  10.797   5.715  0.0643 -0.1838 -0.1869
12276W        W55188  18.135  13.653   6.450 -0.0254 -0.1224 -0.2736
12277W        W55189  18.260  13.926   4.155  0.0506  0.1189  0.3253
12278W        W55190  21.829  14.890   4.090  0.0478 -0.2517 -0.0406
12279W        W55191  22.325  14.497   4.593 -0.1892  0.0339 -0.0400
12280W        W55192  21.513  14.283   4.372  0.1615 -0.3272 -0.2881
12281W        W55193  19.954  12.824   4.523  0.1396 -0.1618 -0.0047
12282W        W55194  19.245  12.407   8.088 -0.0958  0.0961  0.1867
12283W        W55195  18.298  12.329   6.293 -0.1899  0.2180 -0.1435
12284W        W55196  17.693  12.030   4.063 -0.0072  0.0373 -0.1956
12285W        W55197  20.244  12.422   6.378 -0.1493  0.0240 -0.2761
12286W        W55198  18.027  12.889   6.391 -0.2882 -0.2006  0.5671
12287W        W55199  21.597  12.896   3.753 -0.0663 -0.0420  0.0449
12288W        W55200  20.555  12.472   5.821  0.0103 -0.4924 -0.3518
12289W        W55201  21.550  13.399   5.751 -0.2348 -0.3219 -0.0321
12290W        W55202  19.944  13.881   2.931  0.0744  0.3277  0.0222
12291W        W55203  20.642  11.151   5.240 -0.0237 -0.2379  0.2386
12292W        W55204  20.889  11.472   5.499 -0.0494 -0.0701 -0.2058
12293W        W55205  18.877  13.379   4.366  0.0521 -0.1528  0.0426
12294W        W55206  18.384  13.515   4.434 -0.1156 -0.2735 -0.2486
12295W        W55207  21.040  14.052   6.095 -0.1880  0.0851  0.2225
12296W        W55208  20.915  12.333   3.027  0.2131 -0.2717 -0.0375
12297W        W55209  17.882  14.491   6.826  0.3202 -0.0109 -0.4369
12298W        W55210  19.871  12.416   6.745 -0.1129 -0.0289 -0.2603
12299W        W55211  20.763  14.489   6.222  0.0729 -0.2700 -0.0980
12300W        W55212  18.756  14.707   4.096  0.1472  0.0766 -0.1788
12301W        W55213  18.772  12.812   5.385  0.3262 -0.3825  0.2767
12302W        W55214  18.183  12.540   3.568  0.1016  0.1130 -0.0675
12303W        W55215  19.947  12.329   5.025 -0.3780  0.2075  0.2632
12304W        W55216  18.587  13.820   5.336  0.2085 -0.1395  0.1248
12305W        W55217  22.070  11.073   4.033 -0.0951  0.1881 -0.2300
12306W        W55218  19.034  12.134   6.642 -0.0537 -0.1695 -0.1023
12307W        W55219  21.476  10.777   3.016 -0.2260 -0.2147 -0.0939
12308W        W55220  18.972  13.891   3.454 -0.1605 -0.2881 -0.3525
12309W        W55221  21.421  16.105   4.177  0.0381 -0.2472  0.1180
12310W        W55222  20.300  12.006   2.637  0.0328 -0.1513 -0.3791
12311W        W55223  21.200  14.612   3.448  0.2078  0.1005 -0.1912
12312W        W55224  18.384  11.848   5.889  0.0676 -0.0284  0.0997
12313W        W55225  20.011  11.992   5.359  0.2295 -0.1770  0.1311
12314W        W55226  20.130  13.508   6.297 -0.0696 -0.0162 -0.1739
12315W        W55227  18.837  11.280   7.113  0.2340 -0.0474 -0.0703
12316W        W55228  19.634  13.889   5.520 -0.2460 -0.0428 -0.3546
12317W        W55229  18.228  12.117   3.274 -0.0828 -0.0023  0.3238
12318W        W55230  19.635  13.023   4.068  0.2670 -0.2949  0.0514
12319W        W55231  16.423  10.728   3.697 -0.0303  0.0262 -0.4161
12320W        W55232  18.019  13.035   3.820  0.1225 -0.4331 -0.3108
12321W        W55233  21.361  12.091   7.494 -0.2291  0.2870 -0.0138
12322W        W55234  19.820  15.319   4.647  0.1919  0.0781  0.2993
12323W        W55235  21.704  15.324   6.205  0.1084  0.2244 -0.3124
12324W        W55236  20.153  14.779   5.140 -0.1949 -0.4167  0.0043
12325W        W55237  19.873  11.161   7.151 -0.2048 -0.0706  0.0007
12326W        W55238  17.905  10.877   4.784 -0.0385 -0.0627  0.2223
12327W        W55239  19.030  15.478   5.936 -0.0321 -0.2368 -0.3787
12328W        W55240  19.865  13.490   3.952 -0.2550  0.1612 -0.3189
12329W        W55241  19.511  10.306   2.587 -0.2116 -0.2378  0.0638
12330W        W55242  22.214  15.120   5.199  0.0172 -0.1543  0.0876
12331W        W55243  20.545  14.006   3.919  0.0908  0.0913 -0.3142
12332W        W55244  18.295  12.620   4.717 -0.0810  0.1074  0.1190
12333W        W55245  20.877  11.130   5.915  0.2239 -0.2684  0.2986
12334W        W55246  21.080  13.579   5.924  0.1226 -0.0867 -0.2398
12335W        W55247  21.759  13.603   3.553 -0.0028  0.0185 -0.2597
12336W        W55248  19.299  11.593   2.795  0.1813 -0.0582  0.3283
12337W        W55249  20.523  15.659   4.889 -0.0020 -0.1165  0.1318
12338W        W55250  18.770  13.888   4.410 -0.0869  0.0754 -0.2399
12339W        W55251  16.441  13.368   4.140  0.1394 -0.2826 -0.3765
12340W        W55252  20.256  14.370   4.705  0.0654  0.2698 -0.0773
12341W        W55253  19.482  13.255   3.656  0.1230 -0.1857  0.0206
12342W        W55254  19.447  11.853   7.590 -0.1784  0.0216 -0.0006
12343W        W55255  20.155  13.943   6.132 -0.0167 -0.0559 -0.0799
12344W        W55256  18.308  12.064   3.874  0.0835 -0.2759 -0.2441
12345W        W55257  17.796  14.131   4.613 -0.1501  0.2913 -0.2195
12346W        W55258  19.964  11.339   4.881 -0.0275 -0.0285  0.0520
12347W        W55259  23.446  11.422   3.750 -0.0471  0.1100  0.1961
12348W        W55260  19.661  12.886   7.419 -0.2599  0.1827 -0.1776
12349W        W55261  21.467  13.337   4.579  0.0531 -0.1256 -0.2006
12350W        W55262  20.829  12.012   1.703  0.2035  0.2743 -0.0114
12351W        W55263  19.679  12.739   3.666 -0.1019  0.1190  0.0707
12352W        W55264  19.275  12.921   5.625  0.1966  0.2724 -0.0967
12353W        W55265  19.211  13.991   3.897 -0.1035 -0.1196 -0.4157
12354W        W55266  20.775  12.823   6.863  0.2866 -0.0875  0.0158
12355W        W55267  19.923  11.673   3.547 -0.0745  0.4351 -0.1904
12356W        W55268  20.839  16.153   5.061 -0.0369 -0.0439  0.0669
12357W        W55269  19.587  13.517   5.066  0.4104  0.1468 -0.0575
12358W        W55270  20.551  13.074   5.725  0.1559 -0.2752 -0.1421
12359W        W55271  19.887  14.733   5.584  0.1654  0.2418  0.0782
12360W        W55272  18.109  10.991   7.636  0.2337 -0.0455  0.1347
12361W        W55273  18.608  12.280   3.489  0.0179 -0.2468 -0.2028
12362W        W55274  21.587  11.041   4.164 -0.1084 -0.0405  0.3702
12363W        W55275  18.503  13.807   3.290  0.1363 -0.2280  0.0149
12364W        W55276  20.929  12.133   5.723  0.1641 -0.1569 -0.2262
12365W        W55277  20.103  11.529   6.255 -0.0595  0.3064  0.1947
12366W        W55278  20.044  11.790   5.819  0.2364  0.0008  0.1520
12367W        W55279  21.606  14.195   7.724 -0.0337  0.2378  0.0178
12368W        W55280  19.787  12.036   4.266 -0.0755  0.0573 -0.1153
12369W        W55281  20.166  12.335   4.460 -0.2378 -0.0630 -0.0311
12370W        W55282  17.922  13.463   4.130 -0.1522  0.2766 -0.2390
12371W        W55283  19.558  11.948   6.609 -0.0808 -0.0653 -0.1027
12372W        W55284  18.527  12.041   6.681 -0.2527 -0.0888  0.0342
12373W        W55285  18.412  14.461   6.856 -0.1008 -0.4197 -0.1216
12374W        W55286  21.269  14.397   5.483  0.1621  0.0571 -0.0162
12375W        W55287  20.687  14.525   3.756 -0.2328 -0.2830 -0.2125
12376W        W55288  20.360  12.349   6.863  0.0108 -0.0720  0.0860
12377W        W55289  19.432  11.270   4.099 -0.1059  0.0335 -0.4482
12378W        W55290  19.324  14.270   3.538  0.0437  0.2932 -0.1913
12379W        W55291  19.981  13.149   3.471  0.1419  0.0898  0.1365
12380W        W55292  20.080  10.822   6.591  0.1620 -0.0160 -0.1714
12381W        W55293  19.243  13.350   6.071 -0.2349  0.4776 -0.1245
12382W        W55294  20.160  13.604   3.277  0.1223  0.0568 -0.0380
12383W        W55295  20.068  12.955   5.494 -0.1124  0.1221 -0.2558
12384W        W55296  17.208  13.122   2.594 -0.1751 -0.0255 -0.1016
12385W        W55297  20.724  12.396   5.240  0.0411 -0.3077 -0.2043
12386W        W55298  17.130  13.341   5.670  0.0445  0.0356 -0.0550
12387W        W55299  18.938  11.146   4.115 -0.0857 -0.1454  0.1356
12388W        W55300  18.101  14.531   4.715 -0.0621  0.1257 -0.1731
12389W        W55301  20.983  11.849   4.596  0.2392 -0.0207 -0.1738
12390W        W55302  20.864  13.601   3.601  0.0658  0.0474  0.0838
12391W        W55303  19.250  13.120   6.752 -0.1567 -0.2456  0.1290
12392W        W55304  19.813  11.146   4.415  0.1624 -0.1123  0.1585
12393W        W55305  18.033  13.554   6.951  0.2732 -0.2115  0.0815
12394W        W55306  21.557  12.915   5.939  0.0599 -0.0593  0.2044
12395W        W55307  21.275  10.764   3.940  0.1997 -0.0434 -0.1396
12396W        W55308  20.798  13.147   4.442 -0.0403  0.1056 -0.1629
12397W        W55309  19.262  14.246   5.684 -0.0849  0.2430 -0.2206
12398W        W55310  17.571  11.998   2.243  0.1621 -0.1867  0.1303
12399W        W55311  21.914  12.246   4.396 -0.1908  0.0535  0.4748
12400W        W55312  19.907  13.131   5.001  0.3175 -0.1872  0.0627
12401W        W55313  16.661  14.604   3.355 -0.0028  0.0440  0.0687
12402W        W55314  21.216  15.993   4.642 -0.0386 -0.0024 -0.2849
12403W        W55315  17.489  12.472   4.106  0.1923  0.0683 -0.2380
12404W        W55316  19.492  12.993   5.168 -0.0628 -0.1371 -0.1391
12405W        W55317  18.708  11.863   7.654  0.3327  0.0718 -0.0500
12406W        W55318  20.449  12.050   6.011 -0.0628 -0.0989  0.1068
12407W        W55319  20.790  12.768   4.846 -0.0835 -0.0008  0.1991
12408W        W55320  18.996  12.998   4.898  0.2048 -0.2914  0.0352
12409W        W55321  20.120  13.785   4.267 -0.2218 -0.0717  0.2499
12410W        W55322  20.868  15.203   4.976 -0.1683  0.2934 -0.2182
12411W        W55323  19.307  11.473   6.515 -0.1619  0.2247  0.0028
12412W        W55324  19.116  13.784   6.486  0.3673  0.1492  0.0897
12413W        W55325  19.844  10.870   4.846  0.4231  0.2421  0.1442
12414W        W55326  21.375  15.560   4.210 -0.1349  0.2216  0.3045
12415W        W55327  20.795  12.158   4.253 -0.0594 -0.1945 -0.2759
12416W        W55328  18.446  13.222   2.421 -0.0328  0.0355 -0.1751
12417W        W55329  17.938  13.022   5.574  0.1236  0.1370 -0.2193
12418W        W55330  20.043  14.398   4.203  0.1002 -0.0246 -0.1876
12419W        W55331  19.342  11.229   7.129 -0.1572 -0.0820 -0.4015
12420W        W55332  19.754  13.613   5.923  0.2469 -0.2985 -0.1665
12421W        W55333  18.205  13.515   3.726  0.0630 -0.1000  0.1781
12422W        W55334  17.406  14.518   5.205 -0.1041  0.1197 -0.0558
12423W        W55335  21.961  10.874   5.012  0.0150 -0.2067 -0.1978
12424W        W55336  20.264  14.308   3.572 -0.1129 -0.1357 -0.2295
12425W        W55337  19.679  12.141   5.751 -0.0487  0.0118 -0.0753
12426W        W55338  21.174  12.045   7.007 -0.1442 -0.0346 -0.0073
12427W        W55339  19.189  12.584   2.938  0.0707  0.2281 -0.0684
12428W        W55340  20.826  11.227   7.591  0.1481  0.1614  0.0161
12429W        W55341  19.354  12.492   6.496  0.2344  0.0891 -0.2592
12430W        W55342  20.346  15.176   4.937 -0.1445  0.0725  0.1905
12431W        W55343  16.888  13.474   6.104  0.3677 -0.1461  0.1773
12432W        W55344  20.841  14.374   7.081  0.1215 -0.0080  0.0189
12433W        W55345  19.127  12.129   7.241  0.0755  0.1126 -0.0687
12434W        W55346  19.621  11.607   4.633  0.2808 -0.0227  0.2948
12435W        W55347  18.266  11.223   4.993 -0.3248  0.1327  0.0781
12436W        W55348  20.571  13.942   5.354 -0.4431  0.1634  0.1984
12437W        W55349  21.777  15.149   4.950 -0.0605  0.5998  0.1248
12438W        W55350  20.211  14.030   2.382 -0.0262 -0.0659 -0.2387
12439W        W55351  20.597  13.477   4.058  0.0063 -0.0613  0.1294
12440W        W55352  19.667  12.579   5.479 -0.1446  0.1661  0.1274
12441W        W55353  20.721  11.890   2.989  0.2291  0.1398  0.0929
12442W        W55354  20.034  13.715   4.824  0.1254 -0.0232  0.0819
12443W        W55355  20.838  14.353   4.743  0.1910  0.0720  0.2005
12444W        W55356  20.006  10.876   7.498  0.1550 -0.3132  0.1708
12445W        W55357  20.983  14.019   5.617  0.1756 -0.2054 -0.1434
12446W        W55358  21.008  12.336   4.784  0.0505 -0.3476  0.3354
12447W        W55359  20.341  11.203   5.690 -0.2755 -0.2314 -0.2125
12448W        W55360  21.428  12.168   4.542 -0.0731 -0.3550  0.0106
12449W        W55361  20.246  14.376   5.572 -0.1771  0.0836  0.2701
12450W        W55362  19.209  11.654   7.036 -0.1204 -0.1885 -0.0060
12451W        W55363  21.364  16.566   5.518  0.1492  0.0910  0.1660
12452W        W55364  21.198  11.543   2.640  0.0982  0.0613 -0.0587
12453W        W55365  20.332  13.111   4.674  0.0743  0.2384 -0.1269
12454W        W55366  21.341  12.211   3.214  0.0464  0.1749  0.4412
12455W        W55367  20.094  11.284   1.984  0.0064 -0.0749 -0.2026
12456W        W55368  20.030  12.433   5.842 -0.1571 -0.1144  0.0885
12457W        W55369  21.437  14.322   6.355  0.1767 -0.2144 -0.0073
12458W        W55370  19.813  11.888   2.735  0.1051  0.1059 -0.1630
12459W        W55371  20.374  11.970   7.270 -0.0418 -0.0439 -0.2162
12460W        W55372  19.166  14.712   3.332 -0.0099  0.4089  0.1351
12461W        W55373  19.996  14.845   6.492 -0.2412  0.1874 -0.2661
12462W        W55374  19.448  13.157   4.631  0.1770  0.0835 -0.0077
12463W        W55375  17.898  12.110   5.846 -0.0667  0.1344 -0.2021
12464W        W55376  19.051  13.577   6.969 -0.1399 -0.1115  0.0530
12465W        W55377  18.555  12.837   3.308 -0.0368 -0.3011 -0.0133
12466W        W55378  19.052  13.012   3.635 -0.0452 -0.0418 -0.0816
12467W        W55379  21.093  14.897   5.559 -0.0730  0.0794 -0.1902
12468W        W55380  20.761  13.482   5.549  0.0822  0.0763  0.1164
12469W        W55381  20.676  10.908   2.709  0.0298 -0.1934 -0.2003
12470W        W55382  20.493  12.738   4.373  0.1083 -0.1388 -0.0922
12471W        W55383  18.039  14.398   4.151  0.1656 -0.0831  0.0191
12472W        W55384  18.108  13.039   4.391  0.1545  0.2560  0.0773
12473W        W55385  19.173  15.493   4.495 -0.1818  0.0640  0.2867
12474W        W55386  18.787  11.579   6.716  0.3108 -0.3650  0.0027
12475W        W55387  19.330  14.579   4.954 -0.0840 -0.4166  0.1740
12476W        W55388  21.118  11.183   8.042  0.2170 -0.0903 -0.0191
12477W        W55389  20.892  13.619   5.012 -0.0459  0.1003  0.0526
12478W        W55390  20.589  14.968   5.441 -0.1543  0.0154 -0.0779
12479W        W55391  20.307  12.809   7.066  0.0181  0.1297 -0.1543
12480W        W55392  19.431  13.995   6.172 -0.0529 -0.1417 -0.3221
12481W        W55393  19.989  13.489   5.368 -0.1393  0.2210 -0.0692
12482W        W55394  19.294  14.758   5.718 -0.2106 -0.1894 -0.0494
12483W        W55395  22.252  14.751   4.186 -0.2292  0.3381 -0.1456
12484W        W55396  18.426  13.310   5.257 -0.1665  0.0732 -0.0172
12485W        W55397  18.452  11.667   6.364 -0.2789 -0.0284  0.0280
12486W        W55398  19.744  11.931   9.224  0.0106  0.1948 -0.2576
12487W        W55399  20.487  13.605   4.526  0.1699  0.0571  0.0962
12488W        W55400  19.112  11.682   4.828  0.0659  0.1671 -0.2757
12489W        W55401  20.705  15.263   3.045 -0.1543  0.1255  0.0540
12490W        W55402  18.868  14.120   6.917  0.0026 -0.0507  0.0656
12491W        W55403  18.323  12.791   5.219  0.0277 -0.0579  0.1877
12492W        W55404  17.290  13.667   5.322 -0.2626  0.0149 -0.0315
12493W        W55405  20.318  12.023   4.074 -0.1340 -0.0951  0.1679
12494W        W55406  21.536  12.401   3.651 -0.1825  0.0364 -0.0953
12495W        W55407  20.146  15.128   6.062  0.0741 -0.0022 -0.2134
12496W        W55408  18.164  13.815   5.118 -0.3134  0.1257 -0.0107
12497W        W55409  17.878  14.658   5.470 -0.2557 -0.2533 -0.1231
12498W        W55410  18.335  15.124   3.763  0.1333 -0.0432  0.1224
12499W        W55411  20.753  14.905   3.425 -0.3896 -0.3750  0.0176
12500W        W55412  17.438  14.040   4.987 -0.0320  0.0026 -0.2464
12501W        W55413  21.041  15.518   5.974  0.0009 -0.0501  0.3252
12502W        W55414  21.489  11.425   2.242 -0.2776 -0.2439 -0.1576
12503W        W55415  20.583  12.446   3.923 -0.2359  0.0979 -0.0616
12504W        W55416  22.251  13.999   4.382 -0.3244 -0.0375 -0.0894
12505W        W55417  19.824  13.870   6.559  0.0444 -0.1744  0.2665
12506W        W55418  20.525  11.725   4.464  0.0777 -0.0298 -0.0786
12507W        W55419  20.445  11.790   3.584  0.0329 -0.3084  0.1793
12508W        W55420  18.979  13.273   5.306  0.1409 -0.0701 -0.3349
12509W        W55421  21.367  10.580   6.388  0.0732 -0.2734  0.0454
12510W        W55422  18.110  14.259   7.308  0.0498  0.1381  0.0090
12511W        W55423  20.868  13.119   3.481  0.0253  0.1438 -0.0442
12512W        W55424  17.806  12.619   4.512  0.0843 -0.0088  0.0550
12513W        W55425  20.507  12.281   3.243 -0.2177  0.2015  0.1456
12514W        W55426  22.942  11.995   5.155  0.1465 -0.0670  0.0881
12515W        W55427  20.223  14.337   3.068  0.0918 -0.2222  0.0772
12516W        W55428  19.746  12.735   6.339 -0.1845 -0.0359  0.0592
12517W        W55429  20.145  14.871   4.583 -0.4060 -0.2815  0.0098
12518W        W55430  19.604  13.701   4.556  0.1182  0.0570 -0.2162
12519W        W55431  18.847  14.629   5.751 -0.0108 -0.0572 -0.3513
12520W        W55432  17.644  11.730   4.437  0.1713 -0.0461  0.0145
12521W        W55433  21.305  11.550   4.949 -0.0270  0.3402 -0.1892
12522W        W55434  19.390  11.225   6.055 -0.0829  0.1604  0.2018
12523W        W55435  20.708  10.388   7.414 -0.0796 -0.1547 -0.1038
12524W        W55436  18.045  12.485   4.053  0.0212 -0.2294 -0.1496
12525W        W55437  21.480  12.437   4.123 -0.1817  0.2278 -0.1109
12526W        W55438  20.018  11.908   6.903 -0.1876 -0.2243  0.0311
12527W        W55439  19.367  12.120   6.170  0.2269  0.0690  0.1756
12528W        W55440  19.281  12.623   3.885  0.1908 -0.3344 -0.1875
12529W        W55441  20.632  12.744   6.344 -0.2285 -0.1381  0.1423
12530W        W55442  20.135  12.599   4.077  0.0968 -0.1528 -0.3574
12531W        W55443  20.765  15.737   7.008  0.0655  0.0251 -0.1880
12532W        W55444  20.052  11.847   4.724  0.0887 -0.3497  0.1634
12533W        W55445  21.436  11.881   3.595  0.1344 -0.1915 -0.0672
12534W        W55446  18.699  12.834   4.390  0.0620 -0.0617 -0.0235
12535W        W55447  19.689  13.258   6.295  0.1580 -0.3105 -0.1853
12536W        W55448  19.887  14.232   5.861  0.0219  0.0028  0.1755
12537W        W55449  17.903  12.036   4.908  0.1382 -0.0999 -0.1949
12538W        W55450  21.493  12.683   3.177  0.1942 -0.5020 -0.1163
12539W        W55451  20.230  13.143   4.096 -0.3483 -0.2573  0.0988
12540W        W55452  19.719  14.638   3.270  0.1466 -0.1184  0.1182
12541W        W55453  20.871  15.350   5.500 -0.2856  0.1882 -0.2773
12542W        W55454  21.926  14.237   4.717 -0.1843 -0.1079  0.1590
12543W        W55455  19.398  12.531   5.957 -0.2760 -0.2849  0.0097
12544W        W55456  20.156  15.145   5.490 -0.0257 -0.1432 -0.2476
12545W        W55457  22.834  13.621   5.086 -0.1158  0.2354 -0.0562
12546W        W55458  20.820  11.407   4.787  0.4724 -0.1499  0.0866
12547W        W55459  20.350  12.823   3.642 -0.1310 -0.1787  0.2029
12548W        W55460  16.313  13.829   4.249 -0.0646 -0.0849 -0.2868
12549W        W55461  21.443  12.723   4.691  0.0767  0.0315 -0.2396
12550W        W55462  19.682  13.058   5.865 -0.2165 -0.1624  0.0511
12551W        W55463  19.006  14.580   2.698  0.2997  0.0006 -0.4155
12552W        W55464  20.434  12.490   7.477  0.1160 -0.1328  0.0879
12553W        W55465  21.198  13.156   5.451 -0.1263 -0.0402 -0.0681
12554W        W55466  20.196  13.643   7.730 -0.1146  0.1803 -0.0557
12555W        W55467  17.645  13.721   3.737 -0.0683  0.1943  0.3158
12556W        W55468  20.024  11.545   4.279  0.0781 -0.1449 -0.2563
12557W        W55469  18.715  14.724   3.052 -0.0280 -0.1257 -0.2584
12558W        W55470  18.371  14.579   3.807  0.0362  0.0581 -0.0125
12559W        W55471  20.497  14.603   4.259  0.3623  0.0825 -0.0639
12560W        W55472  21.706  13.511   5.174 -0.2060  0.0378 -0.1730
12561W        W55473  22.586  14.011   6.137  0.2074 -0.0347 -0.0174
12562W        W55474  19.628  11.761   5.128 -0.1300 -0.1024 -0.0159
12563W        W55475  21.627  13.382   4.031 -0.2370 -0.1940  0.1451
12564W        W55476  20.792  11.656   3.919 -0.1391 -0.0110 -0.2412
12565W        W55477  19.181  12.603   5.160 -0.0752 -0.0912 -0.1591
12566W        W55478  16.026  11.526   2.981 -0.0139 -0.0166 -0.0919
12567W        W55479  18.743  14.818   3.595 -0.3217 -0.2504 -0.0053
12568W        W55480  17.750  13.958   4.139  0.2007  0.1148 -0.1783
12569W        W55481  19.967  11.592   7.346  0.2833 -0.0380 -0.1433
12570W        W55482  19.966  13.296   6.846 -0.1960 -0.2866  0.0616
12571W        W55483  19.152  13.614   4.752 -0.2309 -0.3735  0.2166
12572W        W55484  18.187  10.742   4.384 -0.2321  0.0140  0.0927
12573W        W55485  21.298  13.263   3.581 -0.2167 -0.1078 -0.2291
12574W        W55486  18.799  12.520   4.881 -0.0749 -0.2817  0.0483
12575W        W55487  18.491  12.317   5.802 -0.0215  0.2327 -0.3005
12576W        W55488  21.471  15.544   4.833  0.3576 -0.0017 -0.0785
12577W        W55489  20.524  14.101   4.395 -0.1958  0.1539 -0.2065
12578W        W55490  19.622  12.541   4.299  0.0373 -0.1102 -0.1616
12579W        W55491  21.788  14.594   6.713 -0.3518  0.1881 -0.2100
12580W        W55492  18.466  13.352   2.988  0.0301  0.1392  0.0130
12581W        W55493  19.001  11.044   6.748  0.0363  0.0787 -0.1602
12582W        W55494  20.196  12.852   6.612 -0.0819  0.4637  0.0982
12583W        W55495  16.609  11.178   2.676  0.0524  0.1872  0.0092
12584W        W55496  19.630  10.869   6.885 -0.0970 -0.0301 -0.1746
12585W        W55497  19.836  14.107   4.643 -0.3381 -0.1171 -0.1892
12586W        W55498  22.372  15.451   3.603  0.1714 -0.1986  0.3141
12587W        W55499  19.908  13.334   4.416  0.0281  0.1241  0.0358
12588W        W55500  19.330  16.089   7.517 -0.0428  0.1358 -0.0386
12589W        W55501  19.691  11.523   6.869 -0.0389 -0.4414 -0.1442
12590W        W55502  20.998  14.116   3.613 -0.2292 -0.0314  0.3401
12591W        W55503  19.380  14.043   6.798  0.0951  0.0890 -0.2321
12592W        W55504  21.489  12.960   2.329 -0.1614  0.1026 -0.3767
12593W        W55505  21.693  12.157   5.416  0.0733  0.0742  0.1302
12594W        W55506  20.425  13.381   3.596  0.1245  0.0241 -0.0831
12595W        W55507  19.534  10.851   7.373  0.0563 -0.0728  0.0387
12596W        W55508  18.305  14.316   5.532 -0.1424  0.2393  0.1462
12597W        W55509  21.958  14.951   6.020  0.1962  0.0374  0.1474
12598W        W55510  19.848  12.145   6.263  0.1724  0.2016 -0.1063
12599W        W55511  20.290  12.669   4.903 -0.1630  0.1685 -0.2088
12600W        W55512  20.243  13.544   2.663 -0.2459 -0.0503 -0.0752
12601W        W55513  19.405  13.433   4.201 -0.2430 -0.1270  0.0003
12602W        W55514  20.020  11.772   2.238  0.3056 -0.0158 -0.1203
12603W        W55515  18.806  12.755   5.912 -0.2353  0.1906 -0.1109
12604W        W55516  20.590  14.411   5.203 -0.4071  0.2314 -0.1990
12605W        W55517  20.372  11.897   6.488  0.0426 -0.0324 -0.0635
12606W        W55518  19.436  13.939   2.995  0.1595  0.1143 -0.3923
12607W        W55519  21.926  13.321   4.442  0.1256  0.0797  0.1002
12608W        W55520  20.934  14.964   6.458  0.0519  0.0808  0.0774
12609W        W55521  21.242  13.640   5.385  0.1616 -0.0323 -0.5122
12610W        W55522  20.135  14.347   6.489 -0.0078 -0.0030  0.2215
12611W        W55523  21.183  13.134   4.926  0.4280 -0.2713 -0.3721
12612W        W55524  17.015  10.616   6.785 -0.2427  0.0768  0.3621
12613W        W55525  19.844  11.064   3.282 -0.1547 -0.1679  0.1464
12614W        W55526  20.538  15.049   3.881  0.0229 -0.0365  0.3293
12615W        W55527  20.857  11.878   5.089  0.3733 -0.2679  0.3239
12616W        W55528  20.668  13.033   5.227 -0.0563 -0.1696  0.2276
12617W        W55529  21.277  11.445   4.459 -0.0102  0.0684 -0.0905
12618W        W55530  19.113  14.451   6.612  0.1725 -0.1349 -0.0808
12619W        W55531  21.141  14.620   4.477  0.3299 -0.0739  0.0173
12620W        W55532  18.747  15.850   8.659  0.2984 -0.1487  0.2590
12621W        W55533  19.318  11.451   7.913 -0.1865 -0.0289 -0.3666
12622W        W55534  19.263  12.613   4.646  0.2187  0.1791 -0.2850
12623W        W55535  21.665  12.933   7.060 -0.1184 -0.0275 -0.1702
12624W        W55536  18.131  11.284   9.151  0.1477 -0.1653  0.1918
12625W        W55537  22.165  15.040   9.120  0.0715 -0.0758 -0.0817
12626W        W55538  20.124  15.268   8.557  0.0599 -0.3491  0.4643
12627W        W55539  21.413  13.428   8.488 -0.1024 -0.0298 -0.1467
12628W        W55540  20.824  12.936   7.339 -0.0656 -0.1116  0.0137
12629W        W55541  18.760  13.662   9.711 -0.0408 -0.1117 -0.2812
12630W        W55542  19.961  10.781   8.043 -0.0080 -0.0631  0.0369
12631W        W55543  18.029   9.811   9.980  0.2370 -0.0983  0.1231
12632W        W55544  20.735  11.891  10.001  0.2464 -0.0610 -0.0739
12633W        W55545  18.995  13.249   7.421 -0.3024 -0.0127  0.0046
12634W        W55546  19.074  11.485   8.801  0.4104  0.0673  0.0331
12635W        W55547  18.127  11.877   9.269 -0.1621  0.2381  0.0561
12636W        W55548  18.916  14.399   9.110 -0.1534  0.3966  0.1176
12637W        W55549  18.463  10.990   8.883  0.0308  0.1142  0.0766
12638W        W55550  20.089  14.587   7.891  0.1191 -0.6246  0.2834
12639W        W55551  18.243  11.115   7.154  0.0210 -0.0265 -0.4327
12640W        W55552  17.314  12.787   8.331 -0.2654 -0.0817  0.0523
12641W        W55553  18.892  12.908   9.248 -0.0745 -0.1511 -0.0380
12642W        W55554  20.353  10.717   8.881 -0.0930  0.0636  0.2866
12643W        W55555  21.461  14.001   8.175 -0.1806  0.0258  0.2799
12644W        W55556  20.460  14.298   8.039  0.0261 -0.2538  0.2425
12645W        W55557  20.182  15.114   8.032 -0.0872 -0.0273  0.3637
12646W        W55558  18.279  15.265   9.509 -0.2550  0.0632 -0.0656
12647W        W55559  18.641  13.997   8.166 -0.0356 -0.0069 -0.1548
12648W        W55560  19.155  13.639   7.705 -0.1611 -0.2504  0.1519
12649W        W55561  22.880  14.869   9.596 -0.2882  0.0879  0.2048
12650W        W55562  18.330  13.087   7.196  0.2028  0.3866  0.1190
12651W        W55563  19.942  12.389   9.348 -0.1950 -0.1054  0.0703
12652W        W55564  20.765  13.781   8.725  0.2015  0.2149  0.0629
12653W        W55565  19.492  13.595   8.021 -0.1196  0.1176  0.2267
12654W        W55566  20.543  14.794   8.120 -0.0198  0.0770  0.1570
12655W        W55567  18.612  13.956   9.031 -0.0867 -0.1780 -0.0049
12656W        W55568  18.926  14.210   6.193  0.4631 -0.1671 -0.2983
12657W        W55569  20.144  11.359   6.763  0.1900  0.1451  0.1759
12658W        W55570  20.809  10.868   7.192  0.4217 -0.1989 -0.0997
12659W        W55571  20.738  12.276   6.586  0.2131  0.0484  0.2005
12660W        W55572  21.296  11.284   9.240 -0.0315 -0.0347  0.1438
12661W        W55573  18.936  14.019   8.586 -0.0862  0.0291  0.2245
12662W        W55574  16.877  10.468  10.019  0.1074 -0.2691  0.1010
12663W        W55575  18.395  11.508   9.510 -0.1576  0.0350 -0.1332
12664W        W55576  21.854  11.621   9.821  0.2369 -0.2325  0.0195
12665W        W55577  18.663  15.130   9.087 -0.1848  0.0310  0.1069
12666W        W55578  17.844  13.467   8.323  0.0165  0.1385  0.1204
12667W        W55579  21.283  15.306   6.467 -0.3601 -0.0396  0.0271
12668W        W55580  22.727  13.390   7.915 -0.2380 -0.2067 -0.2817
12669W        W55581  20.137  13.134   7.380  0.0852 -0.1302  0.1464
12670W        W55582  18.648  12.850   7.570  0.0732  0.1997  0.0582
12671W        W55583  19.482  11.775   8.780  0.1879 -0.0239  0.2524
12672W        W55584  21.349  11.546   8.753  0.0950 -0.1432  0.0878
12673W        W55585  19.359  13.213   9.122  0.2376 -0.2199  0.2207
12674W        W55586  21.095  15.349   7.372  0.0858  0.0366 -0.1524
12675W        W55587  20.583  14.530   7.645 -0.1148  0.2042  0.1479
12676W        W55588  19.871  10.922   8.962 -0.3891  0.3311 -0.2034
12677W        W55589  21.120  12.179  10.189 -0.0865 -0.2327 -0.1436
12678W        W55590  19.922  14.178   6.963  0.0238 -0.0196 -0.1145
12679W        W55591  18.889  11.634   8.388 -0.3173 -0.3447  0.0791
12680W        W55592  22.554  14.652   9.143 -0.0457 -0.1857  0.0727
12681W        W55593  19.782  13.462   7.516 -0.0879 -0.0657  0.1196
12682W        W55594  17.631  14.883   9.448 -0.0970  0.0046 -0.1220
12683W        W55595  17.979  13.747   7.906  0.1909  0.1581  0.1013
12684W        W55596  18.757  11.468   9.945 -0.0870 -0.2222 -0.0997
12685W        W55597  18.803  13.121   6.956  0.0868  0.2555 -0.4249
12686W        W55598  15.408  12.911   9.475 -0.2016  0.2480 -0.1116
12687W        W55599  19.931  15.506   9.498  0.1805 -0.1790 -0.1980
12688W        W55600  21.428  11.151   8.470 -0.0031 -0.1834  0.2775
12689W        W55601  18.573  12.335   9.582 -0.1922  0.1358  0.0931
12690W        W55602  18.660  13.722   7.700 -0.2900 -0.3308 -0.0521
12691W        W55603  22.450  13.806   8.014 -0.0142  0.1538 -0.5143
12692W        W55604  20.781  13.660   6.951 -0.0025 -0.2771 -0.0933
12693W        W55605  20.270  13.425   5.826 -0.2446 -0.0533  0.1809
12694W        W55606  17.346  12.536   9.694  0.0183  0.0747  0.0951
12695W        W55607  18.629   9.497   8.614 -0.1673  0.0075 -0.0657
12696W        W55608  18.007  12.169   8.761  0.1202 -0.0109  0.0555
12697W        W55609  18.271  10.565   7.178  0.0488  0.0476  0.2119
12698W        W55610  19.593  12.270   8.850  0.1948 -0.0869  0.3609
12699W        W55611  19.451  14.101   8.261  0.1021 -0.1368  0.2322
12700W        W55612  18.653  12.525   7.115  0.0424  0.0709  0.3589
12701W        W55613  21.391  14.992   7.257 -0.1928  0.0496  0.1577
12702W        W55614  20.315  17.096   9.856  0.0013 -0.2132 -0.3249
12703W        W55615  20.205  15.828   7.909 -0.0769 -0.4060  0.1423
12704W        W55616  17.864  12.340  10.031 -0.1332  0.1818  0.1085
12705W        W55617  18.356  12.112   7.322 -0.1105  0.2343 -0.2590
12706W        W55618  17.947  14.041   8.993 -0.0597  0.0549  0.0792
12707W        W55619  19.083  14.124   7.841  0.5427  0.0686 -0.0711
12708W        W55620  20.199  11.976   8.952 -0.0229  0.2155 -0.2199
12709W        W55621  21.827  15.081   8.127  0.0896  0.2056 -0.0063
12710W        W55622  19.839  12.917   8.352  0.1121  0.1054  0.2920
12711W        W55623  21.733  12.692  10.023 -0.3070 -0.0222 -0.1133
12712W        W55624  20.506  13.463   8.135 -0.1675  0.2642  0.2646
12713W        W55625  19.884  10.731   6.123 -0.1026 -0.0643  0.2250
12714W        W55626  21.855  15.174   7.621  0.1553  0.1280 -0.0045
12715W        W55627  16.729  14.567   8.795 -0.3104  0.1364  0.4614
12716W        W55628  18.570  10.826   7.978  0.2114 -0.0908 -0.1312
12717W        W55629  20.170  14.695   9.276  0.2139 -0.1941 -0.1644
12718W        W55630  20.256  12.692   8.182  0.1122 -0.2649 -0.0932
12719W        W55631  18.685  12.053   8.730  0.0299  0.0413 -0.0110
12720W        W55632  19.520  10.816   7.842 -0.0067  0.6310  0.0912
12721W        W55633  21.356  11.664   7.263  0.0378 -0.0601  0.1702
12722W        W55634  21.628  14.650   7.496 -0.0501  0.2985  0.1732
12723W        W55635  20.784  12.099   7.617 -0.1153  0.0352  0.1694
12724W        W55636  20.452  11.672   8.621 -0.0317 -0.0125  0.0712
12725W        W55637  20.178  12.077   8.035  0.0250 -0.1399 -0.0411
12726W        W55638  18.642  13.168   8.424 -0.0043 -0.0859 -0.1983
12727W        W55639  19.967  12.599   7.779 -0.3439 -0.1966 -0.0467
12728W        W55640  21.644  15.627   6.612  0.2019  0.3264  0.2519
12729W        W55641  19.449  10.731   8.988 -0.1623  0.5434  0.3967
12730W        W55642  19.761  15.534   8.060  0.1596 -0.0010  0.1788
12731W        W55643  19.167  12.570   8.977  0.1271  0.1577 -0.1551
12732W        W55644  19.893  11.623   7.846 -0.0481 -0.1236 -0.0580
12733W        W55645  19.542  11.226  10.059 -0.0996 -0.0204  0.0244
12734W        W55646  17.902  12.552   8.067  0.0657  0.0111 -0.0210
12735W        W55647  18.177  14.463  10.034  0.2010  0.1978  0.0930
12736W        W55648  21.424  13.603   9.504 -0.1220  0.0526 -0.0414
12737W        W55649  21.645  11.977   6.941  0.2187  0.0377  0.2134
12738W        W55650  19.003  13.650   8.215  0.4018  0.0455  0.3187
12739W        W55651  19.667  12.863   6.850 -0.1365  0.1629 -0.0108
12740W        W55652  18.527  10.950  10.157 -0.3848 -0.4025 -0.0661
12741W        W55653  18.522  15.011   8.359  0.0311 -0.0700  0.5081
12742W        W55654  18.736  13.256   7.904  0.0467  0.1911  0.0430
12743W        W55655  19.874  11.944   8.496  0.0644 -0.0147 -0.0215
12744W        W55656  19.370  13.173   7.746  0.0489  0.4028 -0.2852
12745W        W55657  19.646  13.776   7.096  0.2204  0.1312  0.3014
12746W        W55658  18.023   9.610   9.499  0.0980 -0.1062  0.2418
12747W        W55659  19.317  13.730   9.510  0.1319  0.0170  0.2771
12748W        W55660  18.877  13.281   6.430  0.4038 -0.0999 -0.2125
12749W        W55661  21.464  14.571   9.691 -0.1780 -0.1237  0.1198
12750W        W55662  19.302  14.698   8.942 -0.0910 -0.3662  0.1209
12751W        W55663  23.444  10.098  10.086  0.2330  0.1059  0.0179
12752W        W55664  17.825  14.235   9.475 -0.1363 -0.1223 -0.0464
12753W        W55665  18.716  11.887   7.157  0.0420 -0.1089  0.0828
12754W        W55666  18.278  11.233   8.031  0.0484 -0.0896 -0.2384
12755W        W55667  20.106  10.967   8.495  0.1886 -0.5890  0.1238
12756W        W55668  21.011  13.515   8.242  0.2826  0.1850  0.1160
12757W        W55669  17.661  11.695   9.363  0.1282  0.3436 -0.0211
12758W        W55670  21.275  11.634   9.638  0.1062 -0.2187  0.1050
12759W        W55671  18.393  11.920   9.852 -0.2969  0.2088 -0.0547
12760W        W55672  20.964  11.679   7.797  0.0505  0.0691 -0.0748
12761W        W55673  17.782  11.313   7.173  0.3276  0.2986  0.0189
12762W        W55674  21.764  13.258   9.367 -0.1018 -0.1080  0.2003
12763W        W55675  18.757  11.383   7.902 -0.3036 -0.1108  0.1973
12764W        W55676  19.948  12.601   8.834 -0.0194  0.0715 -0.2951
12765W        W55677  19.000  14.827   9.346 -0.1412 -0.2838  0.1157
12766W        W55678  18.245  13.327   7.648  0.1362  0.1237  0.0959
12767W        W55679  19.755  12.408   8.394  0.1265 -0.2406  0.1004
12768W        W55680  21.339  13.913   8.644 -0.0169  0.3061 -0.2845
12769W        W55681  17.882  11.886   9.850  0.1358 -0.1585  0.0390
12770W        W55682  18.977  10.938   8.778  0.0145  0.1516 -0.1993
12771W        W55683  19.009  13.080   8.729  0.2157  0.1728 -0.2233
12772W        W55684  19.965  14.014   8.558 -0.6206  0.0830 -0.0275
12773W        W55685  18.166  12.431   9.197 -0.0581  0.2304 -0.1825
12774W        W55686  18.200  11.314  10.031 -0.0495 -0.1089  0.1822
12775W        W55687  22.300  12.424   6.105  0.1030  0.0528  0.1909
12776W        W55688  19.509  11.646   8.305 -0.0531  0.1508 -0.0412
12777W        W55689  19.102  13.845   9.020  0.0271 -0.0648 -0.1885
12778W        W55690  19.155  12.871   6.294  0.1799 -0.3016 -0.1405
12779W        W55691  21.359  13.975   9.191 -0.1349  0.0744  0.1655
12780W        W55692  17.690  13.850   8.629  0.0628 -0.1867 -0.0243
12781W        W55693  17.761  13.233   7.881  0.0145 -0.1128  0.2126
12782W        W55694  17.749  15.652  10.063  0.0422 -0.0411  0.3290
12783W        W55695  21.110  10.072   7.468  0.1360  0.0519  0.0276
12784W        W55696  20.137  13.858   5.647  0.4319  0.0848 -0.0245
12785W        W55697  18.960  10.787   7.145  0.0049 -0.0553 -0.0493
12786W        W55698  20.580  13.526   7.426  0.1445 -0.2857  0.1107
12787W        W55699  19.849  11.394   9.216  0.0167  0.2236  0.0280
12788W        W55700  19.913  13.974   9.499  0.0443 -0.1238  0.0992
12789W        W55701  19.595  11.621   9.629  0.0077  0.0529 -0.0028
12790W        W55702  19.056  11.561   7.501  0.0705  0.3150 -0.3503
12791W        W55703  18.840  13.495   9.290  0.2425  0.0787 -0.0992
12792W        W55704  20.999  12.601   8.133 -0.0279 -0.1607  0.0308
12793W        W55705  20.151  13.696   7.190  0.1990  0.0065  0.1728
12794W        W55706  19.267  11.723   9.246 -0.0829 -0.2994  0.0695
12795W        W55707  18.351  12.828   9.570  0.1081  0.0655 -0.1393
12796W        W55708  19.562  12.794   9.279 -0.0591  0.0955  0.0195
12797W        W55709  18.862  12.577   8.528  0.0171  0.2927 -0.0587
12798W        W55710  16.783  13.134   9.172  0.3336  0.1290  0.2912
12799W        W55711  21.144  13.576   8.981 -0.1832 -0.0079  0.0391
12800W        W55712  20.782  12.322   8.536 -0.0428  0.0593  0.2274
12801W        W55713  21.716  15.773   9.532 -0.0469 -0.0637 -0.2391
12802W        W55714  21.173  13.155   7.079  0.0101 -0.0747 -0.1588
12803W        W55715  20.801  11.700   9.514 -0.1474 -0.3862 -0.0043
12804W        W55716  21.142  13.802   7.807 -0.0924  0.1772  0.3574
12805W        W55717  19.219  12.070   8.490  0.3281 -0.0249 -0.0220
12806W        W55718  16.122  11.332   9.332  0.5089 -0.1526 -0.0640
12807W        W55719  19.558  11.711   6.099 -0.0374  0.1705  0.0268
12808W        W55720  21.371  13.557   6.856  0.1616  0.1359  0.0318
12809W        W55721  20.771  13.984   7.347 -0.0154  0.0070  0.2625
12810W        W55722  20.312  12.993   8.962 -0.0054 -0.1827  0.2908
12811W        W55723  17.915  10.869   8.902 -0.3637  0.2746 -0.0622
12812W        W55724  18.749  12.106   8.133 -0.0764  0.2689 -0.0571
12813W        W55725  19.900  12.131   7.586  0.0856 -0.1820  0.3855
12814W        W55726  19.408  14.161   8.816 -0.0359 -0.1324 -0.3073
12815W        W55727  20.753  12.466   9.939 -0.1311 -0.0580  0.2011
12816W        W55728  18.703  12.741   8.067  0.0149  0.4348 -0.1839
12817W        W55729  20.451  12.232   9.529  0.4065 -0.2922  0.2054
12818W        W55730  18.800  16.127   9.100 -0.0088 -0.2317 -0.0508
12819W        W55731  20.439  13.971   8.399  0.0380  0.2287  0.0757
12820W        W55732  17.502  10.705   9.688 -0.1791 -0.1207 -0.1724
12821W        W55733  21.084  13.232   9.366 -0.1673  0.3604 -0.3629
12822W        W55734  19.726  13.450   9.409  0.1113 -0.1516 -0.1088
12823W        W55735  18.372  12.361   8.403  0.3116 -0.2026 -0.2316
12824W        W55736  21.376  13.330   7.743  0.0430  0.2342 -0.1105
12825W        W55737  20.245  14.095   7.572 -0.1481  0.1090 -0.1861
12826W        W55738  19.379  13.718   8.545  0.1122  0.0305 -0.1397
12827W        W55739  18.660  11.184   8.402 -0.1442  0.0852  0.1599
12828W        W55740  19.637  14.374   7.927  0.0294  0.1533  0.1264
12829W        W55741  17.174  13.732   9.530 -0.2032  0.3817  0.2228
12830W        W55742  17.198  15.275   9.817 -0.2736  0.1190  0.0226
12831W        W55743  20.439  14.143   6.993  0.0681 -0.2733  0.0418
12832W        W55744  18.875  13.545   8.676  0.0070  0.1327 -0.3488
12833W        W55745  20.773  15.976   9.504 -0.0375  0.0355  0.1431
12834W        W55746  20.711  11.941   8.157  0.0955 -0.1764 -0.2517
12835W        W55747  19.870  13.199   8.903 -0.0350 -0.1085  0.1963
12836W        W55748  18.409  13.319   6.205  0.1898  0.1892  0.2710
12837W        W55749  20.223  12.905   6.114  0.2323  0.0406 -0.0008
12838W        W55750  19.278  14.771   7.983  0.1240 -0.3546  0.2349
12839W        W55751  20.983  12.526   6.090  0.0575  0.0285 -0.3555
12840W        W55752  21.974  13.175   8.809  0.0149  0.0057 -0.1256
12841W        W55753  21.162  12.783   8.653  0.0869 -0.3854 -0.0568
12842W        W55754  20.828  11.501   8.973  0.1081 -0.1082  0.0894
12843W        W55755  19.636  11.304   7.554  0.0581 -0.1260 -0.1081
12844W        W55756  21.358  14.938   6.777  0.0539 -0.3005 -0.1705
12845W        W55757  18.487  11.553   8.909  0.1504 -0.0717 -0.0136
12846W        W55758  19.372  12.265   9.325  0.1072  0.0387  0.2364
12847W        W55759  20.680  13.397   9.104  0.1842 -0.0693 -0.3783
12848W        W55760  20.527  13.229   6.334  0.2533  0.0486 -0.0784
12849W        W55761  19.857  13.766   8.993 -0.0054 -0.0500 -0.0395
12850W        W55762  17.453  14.164   9.118 -0.0118 -0.0349  0.0595
12851W        W55763  19.816  14.900   8.322 -0.0425  0.4304  0.1673
12852W        W55764  20.042  14.403   8.319 -0.2893 -0.3454 -0.0974
12853W        W55765  19.161  11.936   7.976  0.0221  0.0531 -0.3350
12854W        W55766  22.753  14.062   8.395  0.2429  0.1171 -0.0627
12855W        W55767  18.456  10.089   9.972 -0.1287 -0.4453 -0.1894
12856W        W55768  17.645  11.056   9.327 -0.2514  0.0805  0.0008
12857W        W55769  20.361  11.713   7.735 -0.0750  0.0346  0.0782
12858W        W55770  20.074  13.988   8.074 -0.1187  0.1225 -0.0866
12859W        W55771  18.551  12.835   8.871 -0.0889  0.1476  0.0504
12860W        W55772  20.287  12.315   8.474  0.2835 -0.0442 -0.0697
12861W        W55773  20.335  13.160   8.460  0.1432 -0.0423 -0.1643
12862W        W55774  19.975  11.293   9.747 -0.2130  0.0152  0.1954
12863W        W55775  20.549  12.746   9.489 -0.0627  0.0024 -0.1093
12864W        W55776  18.704  12.397   9.091  0.0725  0.0210 -0.1364
12865W        W55777  20.951  13.697   9.460 -0.2732  0.0462 -0.0496
12866W        W55778  19.087  10.432   9.100  0.0021 -0.1217 -0.1105
12867W        W55779  21.704  12.963   6.485 -0.0991  0.0846  0.1258
12868W        W55780  21.043  13.385   9.837  0.0945 -0.0420 -0.1506
12869W        W55781  18.901  14.582   8.608 -0.1631 -0.1343  0.1727
12870W        W55782  22.250  13.064   7.517 -0.0517  0.0324 -0.2167
12871W        W55783  21.871  14.067   9.045  0.2138  0.1956  0.0222
12872W        W55784  17.733  10.224   8.966 -0.0432 -0.1060  0.2105
12873W        W55785  20.953  14.258   8.873  0.0125  0.1673  0.0758
12874W        W55786  21.425  13.091   8.957  0.3610 -0.1774  0.2285
12875W        W55787  20.473  12.464   8.979  0.1016 -0.4320  0.1218
12876W        W55788  23.138  12.867   9.662 -0.0901 -0.3216 -0.2736
12877W        W55789  17.662  15.258   8.873 -0.0008 -0.0299  0.3018
12878W        W55790  20.982  12.881   9.813  0.1637  0.1050  0.0972
12879W        W55791  19.873  14.597   8.824  0.1047 -0.3163  0.3158
12880W        W55792  20.250  15.116   9.542  0.1459 -0.0739  0.0140
12881W        W55793  19.386  12.399   6.971  0.0748 -0.1748  0.0126
12882W        W55794  19.909  13.127   7.862  0.4899  0.2013  0.0796
12883W        W55795  19.168  15.537   8.622  0.0720 -0.0274  0.0899
12884W        W55796  20.739  14.666   8.626 -0.3538 -0.0318  0.0606
12885W        W55797  20.397  11.575   9.257 -0.3512 -0.1676  0.2487
12886W        W55798  22.186  13.481   7.787 -0.0272  0.1580 -0.0207
12887W        W55799  19.470  10.438   8.166  0.0043  0.1946  0.0359
12888W        W55800  20.561  11.215   8.528  0.0204 -0.0286 -0.2836
12889W        W55801  19.048  13.068  11.853  0.1818 -0.3106 -0.2688
12890W        W55802  16.720  11.843   9.851  0.2190  0.0295  0.0971
12891W        W55803  17.227  11.344   7.721  0.1534  0.4615 -0.1392
12892W        W55804  19.977  12.494   7.234 -0.1705 -0.2465 -0.3479
12893W        W55805  18.814  14.160   9.638 -0.0138  0.2570 -0.1168
12894W        W55806  17.221  13.289   8.969  0.2843 -0.0565  0.0090
12895W        W55807  19.942  10.400   8.740  0.0335 -0.1639  0.2066
12896W        W55808  21.326  12.920   7.480 -0.1915  0.2367 -0.2291
12897W        W55809  19.238  11.194   9.153 -0.0070  0.2074  0.0087
12898W        W55810  18.773  11.277   9.201  0.1311  0.2591  0.0238
12899W        W55811  21.806  14.287   8.590  0.2837 -0.1193 -0.0822
12900W        W55812  20.604  13.733   6.254  0.2492  0.1247  0.3750
12901W        W55813  19.209  11.209   8.397  0.1245  0.2109  0.1683
12902W        W55814  19.364  12.673   8.514  0.3904  0.0875  0.0995
12903W        W55815  17.724  11.385   7.683 -0.2875  0.4352 -0.1215
12904W        W55816  18.137  14.747   9.626 -0.0647  0.1287 -0.0766
12905W        W55817  19.436  12.170   9.792  0.3456 -0.0088 -0.1977
12906W        W55818  20.536  14.030   5.875  0.1345  0.2774  0.0051
12907W        W55819  17.108  10.154   9.758  0.1420 -0.0025 -0.0198
12908W        W55820  21.244  14.430   8.477 -0.1742 -0.2727  0.4201
12909W        W55821  21.692  13.873   7.149  0.1446  0.2347  0.0626
12910W        W55822  21.636  12.971   8.520  0.5516 -0.0018 -0.0141
12911W        W55823  20.392  12.929   7.781  0.1575 -0.0087  0.0306
12912W        W55824  22.270  14.669   9.564  0.0732  0.1962  0.2578
12913W        W55825  18.682  11.853   9.230 -0.1412 -0.0449 -0.1120
12914W        W55826  20.940  11.518   8.396 -0.1449  0.0651  0.1808
12915W        W55827  20.491  13.254   6.978  0.2333 -0.0611 -0.3019
12916W        W55828  19.092  12.628   9.616  0.2845 -0.5417 -0.0560
12917W        W55829  20.580  12.377   7.996  0.1674 -0.0808  0.3322
12918W        W55830  20.945  14.006   8.252 -0.4296 -0.2509 -0.1090
12919W        W55831  19.105  12.047   8.962  0.0942  0.3637 -0.2300
12920W        W55832  21.825  13.281   7.410 -0.0192  0.1681 -0.1705
12921W        W55833  19.612  14.311   9.235  0.0859  0.0213  0.2044
12922W        W55834  20.494  15.551   9.722 -0.2540 -0.0039  0.0877
12923W        W55835  20.232  13.540   9.361 -0.1712  0.0139 -0.2714
12924W        W55836  18.661  10.724   9.245  0.2540  0.1179 -0.0461
12925W        W55837  19.108  12.773   7.734  0.1447  0.1841 -0.1160
12926W        W55838  18.053  12.692   8.681  0.1429  0.7150  0.1058
12927W        W55839  19.230  11.346   9.698  0.0208  0.0182  0.2333
12928W        W55840  21.590  12.032   9.715 -0.0725  0.1957  0.1908
12929W        W55841  20.474  10.797   7.571 -0.0116 -0.1528  0.3659
12930W        W55842  19.869  16.511   9.913  0.2256  0.0352  0.0649
12931W        W55843  19.188  14.432   9.525 -0.1102  0.0107  0.0060
12932W        W55844  20.614  17.935   1.056 -0.2287 -0.1929 -0.2837
12933W        W55845  19.112  16.065  30.783 -0.3797  0.2841 -0.1738
12934W        W55846  19.852  13.810  31.078 -0.0806  0.2883 -0.0552
12935W        W55847  19.974  16.319  31.569  0.1065 -0.1010  0.2249
12936W        W55848  17.911  14.804   0.162 -0.0442 -0.0235 -0.2606
12937W        W55849  20.345  17.558   0.508  0.0435 -0.3050  0.1259
12938W        W55850  18.583  15.324   2.213  0.1102 -0.0078 -0.3751
12939W        W55851  19.384  18.551   0.835  0.1287 -0.0225 -0.2029
12940W        W55852  21.431  16.976   1.221  0.1080 -0.2748 -0.0299
12941W        W55853  20.206  16.955  30.730  0.0696 -0.2481  0.1478
12942W        W55854  18.748  15.486   1.706 -0.0430 -0.0950  0.0189
12943W        W55855  19.090  18.826   3.321  0.0373  0.0291 -0.1573
12944W        W55856  20.772  13.462  31.980  0.1755 -0.0583 -0.0188
12945W        W55857  19.007  14.616   0.589 -0.2363  0.0378 -0.0353
12946W        W55858  22.309  16.145   1.926 -0.1104 -0.4810  0.0640
12947W        W55859  17.858  16.797   0.621 -0.1331 -0.0308  0.2851
12948W        W55860  20.290  14.389   2.019  0.1010 -0.2686  0.1829
12949W        W55861  19.140  17.293  31.694  0.0781 -0.0079 -0.3066
12950W        W55862  20.075  18.336   3.268  0.2731 -0.0842 -0.3028
12951W        W55863  20.554  15.269   2.048 -0.2020  0.1788 -0.0061
12952W        W55864  20.039  14.816   2.930  0.0711  0.1243  0.1370
12953W        W55865  19.925  17.417  31.724 -0.0801 -0.1313 -0.0338
12954W        W55866  17.432  16.260  30.267  0.0812 -0.3038  0.1963
12955W        W55867  18.111  14.278   1.000 -0.3397 -0.1902 -0.3406
12956W        W55868  18.595  16.394   0.198 -0.0335 -0.2488 -0.2211
12957W        W55869  19.190  15.967  31.768  0.1042 -0.1585 -0.4370
12958W        W55870  22.268  15.738  31.814 -0.1216 -0.2519 -0.0292
12959W        W55871  20.133  17.876   2.247 -0.0759  0.0416  0.2123
12960W        W55872  19.959  17.362   3.071  0.0700 -0.0366  0.1203
12961W        W55873  21.256  15.565   1.266 -0.3211  0.1211 -0.0054
12962W        W55874  18.995  17.225   0.750  0.2731 -0.3641 -0.1976
12963W        W55875  18.435  18.547   2.118 -0.1877  0.2689 -0.2792
12964W        W55876  19.196  17.849  31.885 -0.2610 -0.5098  0.1672
12965W        W55877  22.227  16.715   0.498 -0.1111 -0.1197 -0.4005
12966W        W55878  22.288  17.050   2.694 -0.1093  0.1037 -0.0682
12967W        W55879  18.864  18.436   3.049 -0.1240 -0.1571 -0.0011
12968W        W55880  19.432  14.823  31.502  0.0069 -0.0009  0.0573
12969W        W55881  20.911  17.107   1.157 -0.0088 -0.0342  0.0520
12970W        W55882  19.546  16.974   3.365  0.3375 -0.0293  0.0919
12971W        W55883  18.822  15.796   1.256  0.0696  0.3013  0.1151
12972W        W55884  19.220  15.101  31.844  0.0812 -0.2579  0.2092
12973W        W55885  20.483  18.503   0.316  0.3000 -0.2183 -0.1989
12974W        W55886  19.547  15.943   0.539 -0.0730  0.0439  0.2581
12975W        W55887  19.131  17.355   3.980 -0.1394 -0.1661 -0.0743
12976W        W55888  17.861  17.574   1.842  0.1955 -0.2252  0.0820
12977W        W55889  22.000  15.713   3.441 -0.0868  0.1927  0.1136
12978W        W55890  17.788  17.726  31.070  0.0111 -0.0137 -0.2250
12979W        W55891  20.130  15.558  31.312 -0.0629 -0.1665  0.0982
12980W        W55892  19.537  15.000  30.657  0.2013 -0.0902  0.1010
12981W        W55893  21.068  14.080   0.354 -0.1651 -0.0263 -0.1025
12982W        W55894  19.737  13.861   0.022 -0.1696  0.1714 -0.0839
12983W        W55895  18.808  18.681   1.491 -0.2615  0.0378  0.0206
12984W        W55896  20.534  14.003   2.817 -0.0779  0.3414 -0.0639
12985W        W55897  23.620  17.533   1.113  0.0895  0.0546 -0.0271
12986W        W55898  18.476  17.347  30.383 -0.1809 -0.2008  0.0387
12987W        W55899  20.654  16.681   1.039  0.2758  0.2055  0.2445
12988W        W55900  19.578  17.147   4.123  0.1944 -0.1369  0.2095
12989W        W55901  19.330  15.058   0.739  0.1625 -0.0472 -0.0794
12990W        W55902  20.078  17.196  31.210  0.0961 -0.4641  0.2905
12991W        W55903  22.865  17.170   0.838  0.0858  0.1536  0.1221
12992W        W55904  21.664  18.182  31.563  0.2881  0.1879  0.0497
12993W        W55905  17.880  15.149   1.402  0.1679  0.0019  0.2897
12994W        W55906  18.829  17.170   1.359 -0.1294  0.2655  0.1241
12995W        W55907  18.791  16.512   1.891  0.1926 -0.1327  0.0945
12996W        W55908  17.365  15.092  30.963  0.2263 -0.0542 -0.0662
12997W        W55909  23.704  17.700   2.937 -0.1926  0.5189  0.0913
12998W        W55910  18.617  16.284   3.401  0.2087  0.0263  0.1832
12999W        W55911  19.835  14.980   0.556  0.1164 -0.2162  0.1006
13000W        W55912  19.471  16.668   1.323 -0.1364 -0.2939 -0.0294
13001W        W55913  20.692  16.970   2.073  0.0958  0.2420 -0.0132
13002W        W55914  22.037  15.685  31.343 -0.1290 -0.3706  0.2074
13003W        W55915  19.419  14.216   0.635  0.2909 -0.1492  0.0201
13004W        W55916  20.914  15.872   1.494 -0.3976  0.2715  0.1181
13005W        W55917  18.989  17.540  30.244 -0.0506 -0.0760  0.1944
13006W        W55918  19.102  15.987   0.275  0.0454 -0.0609 -0.1108
13007W        W55919  22.464  18.137   1.923  0.1251  0.0493 -0.0049
13008W        W55920  20.028  16.471   0.072 -0.1706 -0.0475  0.2507
13009W        W55921  19.092  18.097   2.650  0.0278 -0.0979  0.1013
13010W        W55922  19.629  15.584   1.207  0.1523 -0.3246  0.1450
13011W        W55923  20.298  17.106   1.067 -0.0443 -0.1408 -0.2959
13012W        W55924  17.793  15.556  30.700  0.0549 -0.2359  0.1798
13013W        W55925  17.346  15.289   1.728 -0.0827  0.2591  0.1011
13014W        W55926  17.396  16.495  30.826 -0.0601  0.1093 -0.4755
13015W        W55927  18.395  15.884   1.600 -0.1255 -0.1248  0.1301
13016W        W55928  19.173  15.953   0.866  0.0297 -0.1486 -0.0955
13017W        W55929  19.443  15.741  30.501  0.2096 -0.1542  0.0247
13018W        W55930  18.987  14.276   1.528 -0.0676  0.2694  0.0361
13019W        W55931  21.121  15.764   0.779  0.0485 -0.1453 -0.2792
13020W        W55932  19.057  16.484  31.984 -0.2375  0.0014 -0.1937
13021W        W55933  21.089  17.168   0.380 -0.1546  0.0920  0.0652
13022W        W55934  20.898  14.174  31.403  0.0885  0.0836  0.1623
13023W        W55935  19.928  17.518   0.259  0.0115 -0.6144  0.1673
13024W        W55936  18.404  15.012   1.507  0.0714 -0.2191  0.2011
13025W        W55937  20.360  17.463  31.979  0.1138 -0.3812  0.2341
13026W        W55938  20.160  14.817   2.433 -0.1780  0.1632 -0.1366
13027W        W55939  18.896  15.164   1.366 -0.3038  0.2211  0.2114
13028W        W55940  21.351  16.066   1.109  0.0649  0.1536 -0.1137
13029W        W55941  16.130  14.950  29.968  0.0580 -0.2410 -0.0322
13030W        W55942  20.088  17.166   0.588 -0.1806 -0.2380  0.1230
13031W        W55943  17.533  16.920   0.977 -0.1509  0.2219  0.2190
13032W        W55944  17.792  16.154  31.707  0.2159  0.1675  0.1413
13033W        W55945  22.040  15.050   3.134 -0.0089  0.1050  0.3317
13034W        W55946  19.568  18.448   1.342 -0.2660  0.1559 -0.2372
13035W        W55947  21.863  18.085   3.381 -0.2557  0.0092 -0.2369
13036W        W55948  20.845  18.131  31.976 -0.1892  0.1633  0.0319
13037W        W55949  17.877  16.140   1.639  0.2359 -0.1490  0.0025
13038W        W55950  19.513  16.367  31.775 -0.0643 -0.1895  0.4207
13039W        W55951  18.558  17.717   0.308  0.0457 -0.0843 -0.0401
13040W        W55952  19.655  17.015   0.245 -0.2452 -0.4424  0.1229
13041W        W55953  18.724  16.127  31.153  0.0537  0.1810  0.2149
13042W        W55954  19.572  18.198   3.081 -0.0239 -0.4200 -0.1789
13043W        W55955  21.985  16.109  31.650 -0.1796  0.1477 -0.0180
13044W        W55956  20.024  17.021   2.568 -0.0515  0.1940 -0.1486
13045W        W55957  20.421  15.693   4.022 -0.4844 -0.1789  0.1858
13046W        W55958  22.014  16.519   2.895 -0.0956 -0.1670 -0.2670
13047W        W55959  20.900  15.430  31.317  0.3242 -0.5851 -0.3856
13048W        W55960  17.451  13.968   0.268 -0.1377  0.2336 -0.1993
13049W        W55961  20.036  18.317   0.034 -0.1147 -0.1398  0.0354
13050W        W55962  18.634  18.712   0.397  0.3740  0.3755  0.1368
13051W        W55963  18.516  14.532   0.844  0.3869 -0.4530 -0.0358
13052W        W55964  20.766  17.607   0.220  0.2138 -0.2051  0.0731
13053W        W55965  20.510  16.242   0.809 -0.0874 -0.1759  0.2999
13054W        W55966  19.483  17.317   1.587 -0.0182  0.0719 -0.0240
13055W        W55967  20.504  15.471   1.576 -0.0647  0.1676 -0.1242
13056W        W55968  18.084  16.820  31.103  0.0233  0.0026 -0.0233
13057W        W55969  17.699  17.543   2.742 -0.0144 -0.0325 -0.2892
13058W        W55970  18.170  13.915   0.027 -0.3252 -0.1974 -0.3633
13059W        W55971  22.519  16.021  31.036  0.5028  0.1634  0.1382
13060W        W55972  18.116  17.669   0.763 -0.1314  0.0185 -0.2365
13061W        W55973  21.163  17.667  30.970  0.0235 -0.2187  0.1947
13062W        W55974  19.733  14.337   0.044  0.2050  0.0537  0.2046
13063W        W55975  19.644  16.163  30.792 -0.0276  0.0080 -0.3771
13064W        W55976  19.299  17.397   3.502 -0.0131  0.0284  0.4471
13065W        W55977  19.956  16.220   0.608  0.0942 -0.0820 -0.2261
13066W        W55978  19.704  16.396   1.702  0.1163  0.0578 -0.1492
13067W        W55979  21.325  16.762  30.659  0.1522 -0.1341 -0.1109
13068W        W55980  21.721  17.614   0.481 -0.1338  0.3604 -0.1647
13069W        W55981  18.765  17.910   2.300  0.1997 -0.0921  0.1416
13070W        W55982  21.332  16.819   2.922 -0.1612 -0.1116 -0.3284
13071W        W55983  21.065  17.594   1.236  0.1621  0.1566 -0.2400
13072W        W55984  20.462  13.263   2.286 -0.3273  0.1915  0.0560
13073W        W55985  18.190  16.286  31.232  0.2122  0.3650  0.1153
13074W        W55986  19.371  15.107   1.239 -0.3631  0.5837  0.0439
13075W        W55987  18.647  17.868  31.090  0.1273  0.0626  0.2571
13076W        W55988  20.429  14.173   0.828 -0.1139  0.0506 -0.3392
13077W        W55989  20.234  15.002   1.413  0.0345  0.1798  0.0593
13078W        W55990  20.758  14.413   3.253  0.2370  0.0828 -0.0710
13079W        W55991  22.776  15.930   2.796  0.1468 -0.0953 -0.0714
13080W        W55992  22.442  16.242  31.532 -0.0426 -0.0580  0.2683
13081W        W55993  20.226  15.969   1.377 -0.1834 -0.0451 -0.1465
13082W        W55994  18.696  16.369  29.902 -0.3504  0.0825 -0.3065
13083W        W55995  21.630  15.155   1.689 -0.0421 -0.0465 -0.0822
13084W        W55996  19.266  16.101   1.406  0.3268 -0.0854  0.2185
13085W        W55997  20.188  17.662   2.731 -0.1671  0.0795  0.1694
13086W        W55998  22.549  16.519   2.117 -0.0120 -0.1852 -0.0650
13087W        W55999  20.402  16.614  31.364 -0.0304 -0.0992  0.2540
13088W        W56000  21.347  15.416   2.187  0.1104 -0.1922 -0.0279
13089W        W56001  20.583  14.195  30.883 -0.0927  0.2041  0.1121
13090W        W56002  19.674  17.986  31.119 -0.2279 -0.0130 -0.0043
13091W        W56003  20.408  17.933   0.205  0.0345  0.0172 -0.1772
13092W        W56004  19.596  14.661   1.016  0.1764 -0.2280  0.1510
13093W        W56005  19.802  17.744   1.394 -0.0925 -0.0764  0.0158
13094W        W56006  18.502  17.236  31.592  0.0522  0.1301 -0.3476
13095W        W56007  22.233  17.682   3.332  0.1231  0.2646  0.3256
13096W        W56008  17.699  16.990   0.207 -0.2907  0.5085 -0.0533
13097W        W56009  20.916  14.479   1.793  0.0423 -0.0955  0.0451
13098W        W56010  16.957  16.784   1.739  0.2817 -0.1139  0.2744
13099W        W56011  20.162  15.007  30.847  0.2456 -0.1925  0.2279
13100W        W56012  18.012  14.622  30.309 -0.0063  0.3202 -0.1130
13101W        W56013  21.593  15.868  31.571  0.0317  0.2206  0.0163
13102W        W56014  22.655  16.521  31.120  0.1548 -0.0082  0.0039
13103W        W56015  20.078  15.588   1.938  0.2890 -0.0476 -0.3234
13104W        W56016  20.090  15.287   2.324 -0.2923  0.0789  0.1437
13105W        W56017  18.468  18.336   1.713  0.0323 -0.1305  0.0102
13106W        W56018  21.273  16.015   2.627 -0.3342  0.0272  0.1075
13107W        W56019  20.671  15.139  30.990 -0.0138 -0.1831  0.1480
13108W        W56020  20.044  15.716   0.406 -0.2983 -0.0602 -0.0999
13109W        W56021  18.921  17.313   3.041  0.3296  0.0355 -0.0535
13110W        W56022  18.252  16.471  31.692  0.0888 -0.0125 -0.2279
13111W        W56023  22.046  16.188   1.477  0.0541  0.0235 -0.0371
13112W        W56024  19.363  14.112   1.249 -0.2467 -0.1340 -0.2829
13113W        W56025  17.667  17.347   0.646  0.0204 -0.1956  0.3173
13114W        W56026  20.146  17.619   1.026  0.1310 -0.1884  0.0647
13115W        W56027  19.095  16.441   1.034 -0.2401  0.2412  0.3256
13116W        W56028  18.270  17.560  31.902 -0.2511  0.3239 -0.4400
13117W        W56029  19.793  15.263   2.740  0.5049 -0.0725  0.0239
13118W        W56030  21.985  18.084   0.430  0.0065  0.1416 -0.0083
13119W        W56031  19.267  15.372   0.301 -0.2073  0.3251  0.1764
13120W        W56032  18.788  14.295   0.266  0.2491  0.0395 -0.1440
13121W        W56033  18.862  16.005   1.891 -0.0952 -0.0716  0.1048
13122W        W56034  21.559  16.763   2.088 -0.2294  0.1916  0.1101
13123W        W56035  20.958  15.428   1.770  0.1105  0.1198 -0.0063
13124W        W56036  19.028  16.463   4.292 -0.1245 -0.1242 -0.0414
13125W        W56037  20.280  15.134   0.520  0.1542 -0.2746 -0.2767
13126W        W56038  22.283  17.451   0.612  0.0126 -0.1319  0.1101
13127W        W56039  21.688  17.427   1.403 -0.0501 -0.2341 -0.1257
13128W        W56040  17.898  17.265  30.980 -0.1406  0.1327  0.0830
13129W        W56041  17.787  16.570   1.344  0.2353  0.0652  0.3355
13130W        W56042  19.614  16.983  30.267 -0.0157 -0.1041  0.3075
13131W        W56043  21.018  15.040   2.134 -0.3501  0.1291  0.0498
13132W        W56044  18.681  17.352   2.324  0.3652 -0.0912  0.0928
13133W        W56045  18.223  16.765   0.100  0.1770 -0.4034 -0.0818
13134W        W56046  19.252  17.809   2.288  0.0793  0.0553 -0.1440
13135W        W56047  21.093  14.916  30.721  0.1037  0.0532  0.5719
13136W        W56048  21.296  17.331   0.829  0.1645 -0.1033  0.1335
13137W        W56049  20.463  15.526  31.627 -0.0509 -0.0896  0.2796
13138W        W56050  20.603  14.768   2.082  0.2547 -0.0140  0.2035
13139W        W56051  21.813  16.489  30.588  0.2545 -0.2851 -0.0756
13140W        W56052  20.273  16.488   1.640 -0.1722  0.0454  0.0059
13141W        W56053  20.635  14.963   1.633 -0.2024 -0.2388 -0.0079
13142W        W56054  20.450  16.367  31.827 -0.1208 -0.1990 -0.2885
13143W        W56055  19.386  15.864   1.950  0.1025  0.0808  0.1262
13144W        W56056  20.462  16.312   2.773  0.3895  0.0000  0.0722
13145W        W56057  18.717  16.235   1.424  0.2406  0.1097  0.1210
13146W        W56058  20.202  15.920  31.830 -0.0572  0.0540  0.0334
13147W        W56059  18.855  14.155  30.970  0.2299  0.0594  0.4057
13148W        W56060  19.613  15.610  31.947 -0.0474 -0.1100 -0.1906
13149W        W56061  22.043  16.579   2.033 -0.0466  0.2383  0.1990
13150W        W56062  19.275  17.087   1.118 -0.1741 -0.0225 -0.2167
13151W        W56063  22.300  14.830   0.764 -0.0847  0.0183  0.1606
13152W        W56064  17.974  18.144   0.771  0.1349  0.0937 -0.0874
13153W        W56065  20.916  16.591   0.402 -0.0737  0.0642  0.2145
13154W        W56066  21.363  16.275  30.883  0.0908  0.1634 -0.3405
13155W        W56067  19.399  16.867  31.827 -0.1145 -0.3084 -0.1450
13156W        W56068  18.700  14.762   2.314  0.0865  0.0890 -0.0779
13157W        W56069  21.234  15.258   0.709 -0.3285  0.0000 -0.2729
13158W        W56070  20.144  14.602   0.629 -0.1512  0.3806  0.3926
13159W        W56071  19.707  15.826  31.475  0.3054 -0.1028  0.3595
13160W        W56072  21.960  15.193   1.092 -0.0969  0.2178  0.2979
13161W        W56073  19.245  16.374   1.985 -0.1834  0.2057 -0.0266
13162W        W56074  18.487  15.849   2.262  0.1590 -0.1737  0.2627
13163W        W56075  22.237  17.818   0.960 -0.1839  0.0953 -0.2039
13164W        W56076  20.820  16.315  31.306 -0.0978 -0.0797  0.0435
13165W        W56077  22.440  15.270   0.963 -0.3276 -0.2007 -0.0167
13166W        W56078  20.645  15.818   1.116 -0.2069 -0.0395  0.0412
13167W        W56079  19.192  15.854  31.228 -0.3657  0.2797  0.1761
13168W        W56080  16.908  14.563   1.195 -0.0728 -0.2494  0.0883
13169W        W56081  20.763  14.966   2.558  0.2809 -0.0695 -0.1967
13170W        W56082  19.535  16.239  30.271 -0.3795  0.0077  0.1784
13171W        W56083  21.207  15.181   2.616  0.0707  0.0342  0.0269
13172W        W56084  18.524  16.675  31.296  0.1229 -0.0122  0.0130
13173W        W56085  20.114  17.023   0.060 -0.2451 -0.1606  0.1667
13174W        W56086  20.173  15.753   0.915  0.3155  0.0361 -0.0865
13175W        W56087  18.722  16.214  31.726  0.1101  0.4314 -0.1300
13176W        W56088  19.092  16.910   4.086  0.2888  0.3154 -0.4713
13177W        W56089  17.743  15.057  30.665 -0.3297  0.1997 -0.0348
13178W        W56090  19.141  16.570  30.051 -0.0710 -0.1367 -0.2447
13179W        W56091  20.480  16.804   2.566  0.0548 -0.0522 -0.1122
13180W        W56092  21.998  17.469   2.455  0.2863 -0.2022 -0.1973
13181W        W56093  19.252  14.478  30.908  0.2265  0.0170  0.2154
13182W        W56094  22.512  16.003   1.231 -0.0145 -0.2011 -0.2580
13183W        W56095  18.758  16.839  31.798 -0.0507 -0.2062  0.2757
13184W        W56096  21.033  14.595   1.287 -0.0596  0.1812  0.0075
13185W        W56097  18.620  17.647   1.339  0.0070 -0.0950  0.1069
13186W        W56098  19.594  18.163   2.498  0.1500  0.0876 -0.1020
13187W        W56099  18.719  18.395  31.978 -0.0477  0.2536  0.0523
13188W        W56100  19.933  14.401   2.616 -0.1155  0.0058  0.1129
13189W        W56101  22.591  17.533   1.178  0.1019 -0.0544  0.1078
13190W        W56102  20.787  15.911  31.723 -0.1400 -0.0413 -0.2971
13191W        W56103  22.655  17.025   1.327  0.0127 -0.0981 -0.2573
13192W        W56104  20.243  16.786   2.082 -0.2512 -0.3566 -0.2396
13193W        W56105  19.319  17.074   2.037 -0.1813 -0.0103 -0.1205
13194W        W56106  21.111  16.793   1.797  0.2003 -0.1689  0.1853
13195W        W56107  20.661  16.842   1.617  0.1412 -0.2071  0.2973
13196W        W56108  20.345  17.191   1.740  0.1798 -0.0744  0.0215
13197W        W56109  17.505  15.441   1.159  0.1799 -0.1651  0.0026
13198W        W56110  20.861  16.097   3.117  0.0832 -0.1742 -0.1111
13199W        W56111  18.717  16.746   0.967  0.0661  0.1358  0.2780
13200W        W56112  18.941  13.733   0.490  0.0174 -0.1218 -0.0757
13201W        W56113  21.144  17.303  31.375  0.0120 -0.0793  0.1430
13202W        W56114  18.993  17.016   3.607  0.0307  0.0554 -0.2760
13203W        W56115  18.320  15.506   1.337 -0.2024 -0.1080 -0.2185
13204W        W56116  21.553  17.656  31.438 -0.1959 -0.3882 -0.1242
13205W        W56117  20.333  16.103   0.325  0.0112  0.0622  0.3876
13206W        W56118  19.969  16.687   0.494  0.1531 -0.1957 -0.0950
13207W        W56119  21.066  17.800   2.552  0.1300  0.2262 -0.3167
13208W        W56120  19.391  16.548  30.602  0.1108 -0.4087 -0.1576
13209W        W56121  19.674  17.461   1.012  0.0632 -0.1271 -0.0613
13210W        W56122  18.224  17.233  29.366  0.3196  0.3635 -0.1891
13211W        W56123  21.105  17.209  31.897 -0.1630 -0.1473  0.1641
13212W        W56124  19.738  17.794   0.674 -0.1456  0.0034  0.5845
13213W        W56125  21.882  17.183   2.059 -0.0457 -0.0219 -0.1411
13214W        W56126  20.825  13.811   0.788 -0.1577  0.1491 -0.1343
13215W        W56127  21.767  14.647   0.830  0.1088 -0.3358  0.0719
13216W        W56128  20.815  15.159  31.772  0.2932  0.2019  0.0202
13217W        W56129  20.407  15.446   2.677  0.0666  0.0662  0.2476
13218W        W56130  17.855  16.649   1.809 -0.3117 -0.1066 -0.4279
13219W        W56131  20.440  14.757  31.680  0.2477  0.1115  0.1707
13220W        W56132  20.475  17.180   2.895  0.0949 -0.3051 -0.1570
13221W        W56133  21.595  14.791   3.157 -0.2037 -0.3231 -0.0834
13222W        W56134  18.570  16.999   1.976 -0.2377  0.0522  0.2366
13223W        W56135  21.158  18.607  31.045 -0.1512  0.1635 -0.4789
13224W        W56136  18.822  15.097   0.669  0.0998  0.2208 -0.0117
13225W        W56137  20.198  15.337   0.033  0.2332  0.4170 -0.2446
13226W        W56138  21.503  14.926   2.141  0.1180  0.0034 -0.1939
13227W        W56139  19.977  17.978  31.618  0.2279 -0.1592  0.0644
13228W        W56140  20.517  14.813   3.040 -0.2083 -0.0131  0.0722
13229W        W56141  19.435  17.340   0.561  0.3948 -0.2117  0.3185
13230W        W56142  20.167  16.630   0.959  0.2224 -0.3449 -0.1413
13231W        W56143  19.756  18.170   3.672 -0.2049  0.2347  0.2170
13232W        W56144  18.702  15.561   0.476  0.1284 -0.3231 -0.0102
13233W        W56145  23.289  16.385   0.697  0.2770  0.2071 -0.1257
13234W        W56146  18.735  16.882   2.642  0.0801 -0.1738 -0.0025
13235W        W56147  20.511  14.454   2.586  0.0981  0.2572  0.2251
13236W        W56148  19.789  15.232  31.640  0.1117  0.0177  0.0765
13237W        W56149  21.139  15.132   0.216  0.1626 -0.2215 -0.1885
13238W        W56150  20.638  16.284   1.397  0.0448  0.1612 -0.2054
13239W        W56151  18.747  15.608   2.674  0.2131  0.0438 -0.2035
13240W        W56152  17.819  16.371   0.161 -0.0747 -0.0844 -0.6827
13241W        W56153  22.482  17.299   3.097  0.0372 -0.3906  0.2657
13242W        W56154  20.712  14.503  30.517  0.1631 -0.0489  0.0104
13243W        W56155  22.116  16.282   2.393  0.2456 -0.1164  0.0769
13244W        W56156  18.933  15.624  30.344  0.0828 -0.1380  0.0639
13245W        W56157  20.423  14.298  31.531 -0.1804  0.0619  0.1909
13246W        W56158  18.219  16.369   0.519 -0.1462  0.0175 -0.3875
13247W        W56159  19.782  16.937   0.949  0.0594  0.0263  0.2335
13248W        W56160  21.696  18.104   1.755  0.0889 -0.0447 -0.0100
13249W        W56161  19.685  13.734   0.486  0.1644  0.0612  0.3200
13250W        W56162  21.518  14.857   0.398 -0.1522  0.2718  0.0343
13251W        W56163  21.360  16.335   0.392  0.3152  0.1343 -0.0915
13252W        W56164  18.898  18.222  30.865 -0.0451  0.0146 -0.0738
13253W        W56165  20.998  16.209   0.785  0.0843 -0.0996  0.1611
13254W        W56166  21.188  17.662   0.426 -0.0314 -0.2984 -0.3763
13255W        W56167  17.993  14.708   1.189 -0.2632 -0.0525 -0.1744
13256W        W56168  20.591  17.060   0.628 -0.2905 -0.1699  0.0368
13257W        W56169  22.162  17.258   1.318  0.1032 -0.2693  0.0490
13258W        W56170  19.783  14.834   1.490  0.0591  0.1626 -0.4739
13259W        W56171  19.863  15.121   1.087  0.2852  0.1393  0.1194
13260W        W56172  19.195  17.695   1.447  0.2377  0.1213  0.2157
13261W        W56173  21.860  13.975   0.685 -0.3028 -0.2521  0.0602
13262W        W56174  21.456  15.054   1.126 -0.3270 -0.2499 -0.0416
13263W        W56175  19.243  18.485  30.665 -0.1548 -0.0876  0.1927
13264W        W56176  21.183  14.933   1.630 -0.0876  0.2642  0.0425
13265W        W56177  19.974  18.146   1.018 -0.1394  0.0426 -0.1311
13266W        W56178  20.173  17.723   3.963 -0.3400  0.0926 -0.1219
13267W        W56179  18.207  15.351  30.839  0.0123 -0.0070  0.1168
13268W        W56180  20.647  17.063   0.118 -0.1928  0.0749 -0.1164
13269W        W56181  19.882  16.307   1.173 -0.0638  0.2497  0.2106
13270W        W56182  19.219  18.316  31.964 -0.2736  0.0453  0.0521
13271W        W56183  20.848  16.115   0.255 -0.2594 -0.0109 -0.0353
13272W        W56184  18.690  15.628  31.522 -0.1173 -0.1005 -0.0580
13273W        W56185  21.748  17.939   0.893 -0.2206  0.1037 -0.3239
13274W        W56186  18.842  16.571  30.492  0.0647  0.1043  0.1443
13275W        W56187  20.514  14.550   0.229  0.1873  0.1214 -0.0956
13276W        W56188  20.628  15.797  30.996  0.1361  0.2340 -0.3355
13277W        W56189  18.249  15.521   2.630  0.0103 -0.2277 -0.1125
13278W        W56190  20.191  14.606  30.103  0.0386  0.1330  0.0499
13279W        W56191  18.227  17.216   0.536  0.1452 -0.3236  0.1113
13280W        W56192  18.384  16.225   1.920  0.2271  0.0625  0.0712
13281W        W56193  20.579  14.754   4.858 -0.0797  0.1457  0.3190
13282W        W56194  18.688  16.418   2.872 -0.0786  0.3273 -0.1798
13283W        W56195  18.992  16.489   0.526 -0.2008 -0.1139 -0.1235
13284W        W56196  18.618  15.126  30.609 -0.1002 -0.1550  0.0263
13285W        W56197  21.935  17.550  29.693  0.2158  0.0118 -0.1379
13286W        W56198  19.180  14.591  31.966  0.0806 -0.1426  0.3862
13287W        W56199  18.651  15.935   0.109  0.2446 -0.2417 -0.0070
13288W        W56200  20.444  16.618   0.367  0.2564 -0.0685 -0.2322
13289W        W56201  19.946  16.778   1.395  0.1042  0.4358  0.1864
13290W        W56202  19.320  14.107  31.677  0.0328  0.0834  0.2332
13291W        W56203  22.361  16.019   3.607 -0.3645  0.2187  0.0272
13292W        W56204  16.919  16.098  30.269  0.2685 -0.0719  0.1083
13293W        W56205  19.295  14.917   2.874 -0.0744 -0.1032  0.0956
13294W        W56206  21.447  15.780   1.756  0.0657  0.1973 -0.0461
13295W        W56207  17.426  14.679  30.665 -0.3701 -0.1942 -0.1891
13296W        W56208  21.430  16.864   0.211  0.0175 -0.2398 -0.1740
13297W        W56209  20.134  18.136   0.552  0.0359  0.2010  0.3878
13298W        W56210  21.934  19.839  31.227  0.2899  0.0023  0.2370
13299W        W56211  19.529  16.247  31.247  0.0250 -0.0854 -0.1796
13300W        W56212  20.394  17.382   2.367  0.2409 -0.1429 -0.2538
13301W        W56213  19.113  15.478   0.975  0.0056  0.2974 -0.0838
13302W        W56214  21.262  14.718   0.807 -0.1449  0.2132 -0.0787
13303W        W56215  20.294  16.208   4.002  0.1037  0.1291  0.1210
13304W        W56216  20.592  18.709  31.253 -0.0501  0.1760 -0.3349
13305W        W56217  21.861  14.616   1.737 -0.0786  0.3996 -0.3261
13306W        W56218  20.429  17.104  31.533  0.0098  0.0473  0.1271
13307W        W56219  16.976  15.039   3.102  0.0917  0.0891 -0.0346
13308W        W56220  20.412  18.139   4.279 -0.2795  0.1370 -0.1303
13309W        W56221  22.113  16.725   1.292 -0.1540  0.2951 -0.0242
13310W        W56222  19.369  16.664  31.123  0.0188 -0.0672  0.4429
13311W        W56223  19.674  15.629  30.959  0.3358  0.2442 -0.2416
13312W        W56224  21.074  15.918  30.700 -0.1355 -0.1386  0.0742
13313W        W56225  18.252  16.362   1.379 -0.1921  0.1801  0.2237
13314W        W56226  18.885  16.543  30.971 -0.0297 -0.1476  0.0947
13315W        W56227  19.946  17.270   1.377  0.1202 -0.2982 -0.0282
13316W        W56228  19.089  16.825   1.659  0.1950 -0.2473  0.2776
13317W        W56229  21.939  16.831   2.441 -0.1990 -0.0725 -0.1165
13318W        W56230  19.044  16.970  30.816 -0.3523  0.2543  0.1139
13319W        W56231  22.477  16.739  30.622  0.2051  0.0409 -0.0154
13320W        W56232  21.023  17.318   2.795  0.0681  0.1345 -0.0433
13321W        W56233  22.368  17.670   2.772 -0.3205 -0.1973 -0.6381
13322W        W56234  19.666  17.355   2.501  0.2089 -0.1281  0.1587
13323W        W56235  21.647  15.793   2.334  0.2815 -0.1498 -0.0287
13324W        W56236  18.060  14.190   2.510 -0.2828 -0.1309 -0.1642
13325W        W56237  18.536  17.252   0.912  0.2041 -0.2111  0.1019
13326W        W56238  19.000  16.962   0.275 -0.2925 -0.1602 -0.2304
13327W        W56239  20.727  16.434   1.844 -0.0257  0.0279 -0.5664
13328W        W56240  19.226  15.581   1.530 -0.2141  0.2943 -0.2350
13329W        W56241  20.034  14.743   0.059  0.1611  0.0089  0.0253
13330W        W56242  19.063  17.925   3.151 -0.1680  0.0208 -0.0258
13331W        W56243  21.181  16.447   2.249  0.0912  0.1627 -0.0032
13332W        W56244  20.105  17.847   6.009  0.2539  0.0210  0.0997
13333W        W56245  19.700  16.143   3.741  0.2398  0.1251 -0.1522
13334W        W56246  21.378  15.075   4.299 -0.0003 -0.0759  0.1528
13335W        W56247  21.702  17.249   4.330 -0.3089 -0.0650  0.3741
13336W        W56248  18.623  15.492   4.515  0.0098 -0.0894  0.1028
13337W        W56249  22.035  17.466   4.665 -0.1307 -0.0631 -0.0587
13338W        W56250  18.501  14.058   6.423 -0.0585  0.1440 -0.1839
13339W        W56251  21.018  17.290   5.131 -0.4604  0.0239  0.2658
13340W        W56252  21.404  18.358   5.155  0.0595 -0.0052 -0.2447
13341W        W56253  21.225  16.785   0.798 -0.0152 -0.0149 -0.0728
13342W        W56254  19.651  16.646   6.090  0.3501  0.0152  0.1275
13343W        W56255  19.472  17.560   5.925  0.3816 -0.3644 -0.1986
13344W        W56256  20.105  15.266   4.192  0.0833 -0.0614  0.1805
13345W        W56257  18.246  15.067   5.161  0.1098  0.0356  0.3081
13346W        W56258  20.500  16.439   5.340 -0.1147  0.0860  0.2565
13347W        W56259  19.229  16.385   2.711  0.1571 -0.0625  0.0767
13348W        W56260  19.451  14.839   6.506  0.0451  0.0964 -0.0008
13349W        W56261  18.722  14.221   4.051 -0.2665  0.2460 -0.4181
13350W        W56262  21.183  16.598   5.966 -0.0620 -0.0728 -0.1590
13351W        W56263  19.318  14.485   6.192  0.0995  0.0976 -0.3139
13352W        W56264  19.134  14.997   6.179 -0.0298 -0.0557  0.0322
13353W        W56265  20.944  17.019   3.229 -0.2028  0.1848  0.0256
13354W        W56266  18.564  15.521   0.925 -0.3658  0.0030  0.1329
13355W        W56267  18.469  16.117   3.863 -0.1027  0.1221  0.4698
13356W        W56268  19.216  16.589   7.253 -0.3782 -0.1578  0.2902
13357W        W56269  21.036  16.608   6.676  0.2412 -0.2384  0.0792
13358W        W56270  21.104  15.590   3.413 -0.0836 -0.1433  0.0795
13359W        W56271  20.218  17.298   5.980  0.0380 -0.0070 -0.1806
13360W        W56272  20.127  16.696   4.156  0.1208  0.0830  0.1446
13361W        W56273  20.219  16.590   5.968  0.0084 -0.0455 -0.3257
13362W        W56274  19.341  15.999   3.297  0.0685  0.3976  0.1784
13363W        W56275  17.206  16.485   5.627  0.3138  0.3557  0.1912
13364W        W56276  20.034  17.360   4.255  0.1528 -0.0863 -0.0729
13365W        W56277  22.369  16.989   4.671 -0.0003  0.1045 -0.0299
13366W        W56278  21.237  17.040   6.856  0.0584 -0.0160  0.0812
13367W        W56279  19.327  18.263   7.763 -0.2076  0.1813 -0.0036
13368W        W56280  17.391  17.334   2.389 -0.2236  0.3246  0.2262
13369W        W56281  21.712  17.916   7.123  0.2190 -0.1063 -0.1224
13370W        W56282  18.484  17.569   7.176  0.3543 -0.0996 -0.0951
13371W        W56283  19.979  16.458   6.619  0.2328  0.0842  0.5506
13372W        W56284  19.411  16.571   3.665  0.1340  0.0309 -0.1161
13373W        W56285  19.051  17.946   4.161  0.3158  0.0216  0.0785
13374W        W56286  20.718  16.736   5.706  0.1879 -0.1224  0.2655
13375W        W56287  20.065  16.926   6.358 -0.0229 -0.0158 -0.3074
13376W        W56288  18.029  18.403   4.671 -0.0368 -0.2764 -0.0433
13377W        W56289  22.129  15.604   6.167  0.2208 -0.1044 -0.0758
13378W        W56290  19.533  17.294   4.629  0.0454  0.0704 -0.2279
13379W        W56291  21.826  16.024   2.823  0.0376 -0.1393 -0.0475
13380W        W56292  19.307  15.470   2.599 -0.0448  0.0876 -0.1669
13381W        W56293  20.981  16.492   2.758  0.0267  0.2101  0.2751
13382W        W56294  20.287  14.654   6.051  0.0742 -0.0084 -0.0166
13383W        W56295  20.287  18.212   5.125  0.2359  0.1769  0.0783
13384W        W56296  19.022  16.011   4.531 -0.0270  0.1010 -0.1101
13385W        W56297  20.358  17.485   7.285  0.2370 -0.1194  0.2806
13386W        W56298  21.404  15.062   3.787 -0.2178  0.0075 -0.0440
13387W        W56299  20.244  15.949   5.457  0.3671  0.1656 -0.2514
13388W        W56300  18.146  17.468   8.081 -0.0377 -0.0582  0.1273
13389W        W56301  18.887  15.923   3.026  0.1907 -0.3380  0.1997
13390W        W56302  22.292  17.136   4.176 -0.2383  0.1536  0.0066
13391W        W56303  21.535  17.503   6.834 -0.0434 -0.3113  0.1584
13392W        W56304  21.076  16.925   2.464 -0.1412  0.1376 -0.0311
13393W        W56305  19.396  15.951   2.797  0.0347 -0.1596  0.2116
13394W        W56306  18.740  15.256   8.014 -0.1395 -0.0091  0.0265
13395W        W56307  17.918  16.917   6.933 -0.0872 -0.1808  0.0248
13396W        W56308  17.951  15.162   2.943  0.0932  0.0149 -0.0239
13397W        W56309  21.974  16.606   7.204  0.0353 -0.5002  0.0773
13398W        W56310  17.537  16.657   6.688  0.2089  0.0182 -0.2757
13399W        W56311  21.463  16.938   4.006 -0.2727 -0.2172 -0.0556
13400W        W56312  20.003  16.570   5.368 -0.3676 -0.1144 -0.0570
13401W        W56313  20.863  18.414   5.026  0.1833 -0.0962 -0.1461
13402W        W56314  21.663  16.214   2.000  0.1478  0.0193  0.2300
13403W        W56315  21.059  16.244   5.674  0.2570  0.0269 -0.3809
13404W        W56316  21.601  14.731   5.249  0.0284  0.0292  0.1583
13405W        W56317  19.531  16.522   3.095  0.2313  0.1965  0.2162
13406W        W56318  19.803  16.020   4.805  0.2472 -0.0469 -0.2090
13407W        W56319  22.372  18.528   6.657 -0.1393 -0.0096  0.0840
13408W        W56320  22.165  16.924   3.179  0.3031 -0.0297  0.2076
13409W        W56321  18.514  17.268   4.540 -0.0831  0.2423 -0.0368
13410W        W56322  19.578  17.132   6.308 -0.0900  0.2305 -0.1162
13411W        W56323  20.895  17.052   7.894  0.1462  0.2793 -0.2817
13412W        W56324  18.811  17.553   3.600 -0.2039 -0.5803  0.1889
13413W        W56325  18.194  16.856   4.542 -0.0791 -0.1251  0.4011
13414W        W56326  19.615  16.379   2.341  0.0358 -0.1421  0.1461
13415W        W56327  19.370  16.063   4.211 -0.1660  0.1913  0.1221
13416W        W56328  19.167  16.393   5.982 -0.0085 -0.2492  0.1606
13417W        W56329  22.514  16.590   2.725 -0.0406  0.2160 -0.1065
13418W        W56330  19.538  15.245   5.879 -0.0866 -0.0881  0.0111
13419W        W56331  21.661  15.625   5.389 -0.0175  0.0313 -0.0126
13420W        W56332  20.358  16.272   3.274 -0.0182 -0.0992 -0.1267
13421W        W56333  21.326  17.010   4.567 -0.0119  0.1281 -0.0337
13422W        W56334  21.540  15.678   3.641  0.0219  0.0936 -0.5694
13423W        W56335  20.645  16.559   3.585 -0.4513  0.1213 -0.1088
13424W        W56336  19.725  14.807   6.097  0.2777 -0.1568 -0.0973
13425W        W56337  18.538  16.245   4.415  0.1379 -0.1321  0.2934
13426W        W56338  19.069  12.759   7.186 -0.2428 -0.1026 -0.2041
13427W        W56339  18.455  14.297   5.055  0.4591  0.0552 -0.3076
13428W        W56340  21.692  16.101   7.442  0.1362  0.1014  0.0438
13429W        W56341  17.362  15.789   4.608 -0.1154  0.2754  0.3272
13430W        W56342  20.466  16.328   4.480 -0.0942  0.1626  0.0584
13431W        W56343  20.302  16.120   4.972  0.3434 -0.0162 -0.1046
13432W        W56344  18.483  17.457   5.246 -0.0260  0.1173 -0.3947
13433W        W56345  20.944  15.332   6.833  0.2373  0.2882 -0.2874
13434W        W56346  21.026  17.186   4.205  0.1431 -0.0385  0.1642
13435W        W56347  23.415  16.847   5.761  0.0648 -0.0778 -0.0968
13436W        W56348  21.813  17.398   5.714  0.1828 -0.0802 -0.0332
13437W        W56349  19.092  15.182   4.836 -0.0327  0.1278  0.2579
13438W        W56350  19.307  15.500   3.084  0.2014  0.0534 -0.2554
13439W        W56351  18.955  17.679   5.530 -0.1139  0.2306  0.0430
13440W        W56352  19.534  15.272   6.825  0.0730  0.0222 -0.0524
13441W        W56353  19.662  14.947   3.667 -0.0251 -0.2323  0.0263
13442W        W56354  21.750  18.507   3.565 -0.2359 -0.0341 -0.2443
13443W        W56355  20.133  16.421   2.434 -0.1279  0.0726  0.0390
13444W        W56356  19.526  18.396   4.416  0.1251  0.1086 -0.1482
13445W        W56357  20.064  15.205   6.814 -0.0721  0.0855  0.0473
13446W        W56358  21.900  16.040   5.094  0.0815  0.0741  0.2794
13447W        W56359  20.634  15.910   3.560  0.0183  0.0811  0.0407
13448W        W56360  19.068  15.434   2.158 -0.1626 -0.3172 -0.0516
13449W        W56361  20.411  16.659   4.926 -0.0838  0.1423 -0.0860
13450W        W56362  19.131  16.240   3.814  0.0686  0.0293 -0.0968
13451W        W56363  17.388  17.023   2.915  0.0601 -0.0242 -0.4879
13452W        W56364  19.804  16.250   2.793  0.1231 -0.0827 -0.1893
13453W        W56365  21.600  17.086   6.499 -0.1689  0.2852  0.0641
13454W        W56366  17.376  16.248   8.038 -0.3922  0.1387 -0.1623
13455W        W56367  20.411  16.680   6.504  0.1562 -0.3152 -0.0871
13456W        W56368  17.845  15.656   1.485 -0.1040  0.0191  0.0757
13457W        W56369  17.599  18.086   6.262  0.1538  0.0169  0.0403
13458W        W56370  18.587  14.267   3.526 -0.1529 -0.2130  0.0776
13459W        W56371  20.936  15.372   4.056  0.1784  0.1229 -0.0201
13460W        W56372  21.722  16.632   7.620 -0.3433  0.1777 -0.0924
13461W        W56373  21.681  15.335   3.208  0.4053  0.4160 -0.0520
13462W        W56374  21.153  16.259   1.626  0.3869 -0.0458 -0.4496
13463W        W56375  19.646  14.846   2.473  0.1234  0.2413  0.0400
13464W        W56376  17.781  17.465   6.595 -0.3829  0.0327  0.0740
13465W        W56377  20.043  16.084   2.007  0.2418  0.1069  0.1425
13466W        W56378  19.375  16.325   4.631  0.2385  0.3092  0.0477
13467W        W56379  21.098  15.640   2.902 -0.0752 -0.1851  0.1727
13468W        W56380  21.976  17.874   3.802 -0.1785 -0.2035  0.0045
13469W        W56381  19.465  16.707   6.650 -0.0503 -0.2096  0.0698
13470W        W56382  20.711  17.033   6.900 -0.3555  0.0329 -0.4379
13471W        W56383  21.567  16.471   3.786  0.1182  0.0418  0.0566
13472W        W56384  19.661  14.361   6.504  0.1332 -0.0333  0.1397
13473W        W56385  19.741  15.803   2.298  0.3073  0.1598  0.0732
13474W        W56386  19.976  15.512   5.806 -0.1006  0.1514  0.2651
13475W        W56387  19.214  18.334   3.426 -0.0069  0.1583  0.1654
13476W        W56388  21.569  14.835   5.765  0.2114 -0.2009  0.1504
13477W        W56389  19.748  15.039   7.183 -0.0149  0.0250  0.1859
13478W        W56390  20.036  14.679   6.923 -0.0985  0.3198  0.3378
13479W        W56391  22.383  15.675   7.028 -0.1693  0.4091  0.1785
13480W        W56392  20.953  16.593   5.270 -0.5192 -0.0283  0.0319
13481W        W56393  19.267  16.075   5.029  0.2244 -0.3532  0.0292
13482W        W56394  19.881  16.209   3.290  0.2727 -0.3126  0.0768
13483W        W56395  20.461  14.752   7.173 -0.0055  0.2136  0.1472
13484W        W56396  19.472  16.988   7.484 -0.0080 -0.4764 -0.2814
13485W        W56397  19.101  17.257   6.024  0.1754 -0.3185 -0.1360
13486W        W56398  21.825  17.083   7.705 -0.1583 -0.0771 -0.4271
13487W        W56399  20.892  16.571   4.605 -0.1497 -0.1635  0.3096
13488W        W56400  19.614  15.775   8.581  0.1257  0.1696  0.0524
13489W        W56401  20.059  14.782   3.931 -0.0607  0.1328 -0.0477
13490W        W56402  19.923  17.622   4.690  0.0698 -0.3246 -0.0583
13491W        W56403  20.085  16.491   3.685 -0.0514  0.0650  0.1943
13492W        W56404  19.309  14.098   4.485  0.0153  0.1500 -0.2389
13493W        W56405  20.366  17.257   6.529 -0.0114 -0.0664 -0.2162
13494W        W56406  20.197  17.102   4.647  0.3107  0.1227  0.1463
13495W        W56407  21.017  17.406   6.560  0.0406 -0.0740  0.0518
13496W        W56408  18.659  17.590   4.046  0.3724  0.0240 -0.3557
13497W        W56409  21.322  15.055   4.765  0.0651 -0.2094 -0.1098
13498W        W56410  17.951  17.009   6.442 -0.1762 -0.0526  0.1286
13499W        W56411  20.258  14.843   3.439  0.1553  0.0761  0.0312
13500W        W56412  17.856  15.037   3.514 -0.0212 -0.2594  0.0144
13501W        W56413  21.427  15.325   5.720  0.2016 -0.0091 -0.3846
13502W        W56414  22.111  16.506   3.657  0.0425  0.0674 -0.2561
13503W        W56415  19.290  15.415   6.405  0.0736  0.0238  0.1037
13504W        W56416  19.542  14.006   5.044  0.1250 -0.1618  0.2134
13505W        W56417  17.325  16.429   6.218  0.2868  0.1223 -0.2144
13506W        W56418  21.800  15.170   5.477 -0.0075  0.0518 -0.1236
13507W        W56419  21.002  15.567   4.566  0.1106  0.1597 -0.1511
13508W        W56420  20.538  17.643   6.238  0.0341  0.4218 -0.1444
13509W        W56421  19.213  15.918   5.531 -0.0456  0.1668  0.1390
13510W        W56422  19.063  16.775   3.002  0.0389  0.0339  0.1532
13511W        W56423  22.676  17.320   5.395  0.1195  0.0935  0.2763
13512W        W56424  19.736  16.013   5.341 -0.0530 -0.2518  0.1818
13513W        W56425  16.871  18.330   3.454 -0.3041 -0.4532  0.2288
13514W        W56426  21.416  16.022   5.216 -0.2752 -0.3528 -0.4504
13515W        W56427  19.972  17.267   2.068 -0.1529  0.3790 -0.3023
13516W        W56428  19.672  17.439   5.119  0.0331  0.1001  0.0113
13517W        W56429  18.982  15.051   8.691  0.1771  0.0528 -0.1046
13518W        W56430  21.594  18.026   5.471  0.3179  0.0935 -0.1198
13519W        W56431  18.896  16.400   4.805 -0.0849 -0.0420 -0.0735
13520W        W56432  18.567  15.955   4.793 -0.1318  0.0266  0.1993
13521W        W56433  19.585  15.898   5.940  0.1873 -0.0016 -0.0022
13522W        W56434  21.733  16.944   5.511  0.0257 -0.4145 -0.0317
13523W        W56435  20.498  15.495   7.569 -0.0157 -0.0282  0.3792
13524W        W56436  18.400  18.832   6.655 -0.1377 -0.1172  0.0362
13525W        W56437  20.454  15.195   6.484 -0.2684 -0.1665  0.3470
13526W        W56438  21.859  18.190   5.066 -0.1965 -0.0527  0.0850
13527W        W56439  21.182  16.189   6.378  0.0055 -0.0071 -0.0834
13528W        W56440  19.849  16.923   3.729  0.1096  0.3325 -0.5236
13529W        W56441  17.958  16.964   5.634  0.0800  0.3215 -0.0315
13530W        W56442  19.801  17.398   3.563 -0.1698  0.1969 -0.1100
13531W        W56443  19.037  14.081   5.225 -0.0585  0.1101 -0.3135
13532W        W56444  19.143  17.933   4.720  0.3513 -0.0085  0.1010
13533W        W56445  19.543  17.772   4.394  0.0008 -0.2655  0.0570
13534W        W56446  17.827  17.663   7.078  0.0646 -0.1943  0.4205
13535W        W56447  22.220  14.975   3.554  0.0180  0.4447 -0.1528
13536W        W56448  19.714  16.807   2.073  0.3133  0.0475 -0.1149
13537W        W56449  20.078  15.674   6.239  0.1191 -0.1562 -0.1004
13538W        W56450  22.902  15.565   6.775  0.0624  0.0273  0.1075
13539W        W56451  21.054  15.864   2.117  0.4122 -0.3804 -0.1180
13540W        W56452  20.838  15.958   6.059 -0.4652  0.0146  0.2421
13541W        W56453  18.811  15.142   5.488 -0.2731 -0.2153 -0.2143
13542W        W56454  21.452  16.345   3.015  0.1963 -0.4023 -0.1721
13543W        W56455  18.029  15.502   5.122 -0.0666  0.1331 -0.1719
13544W        W56456  20.553  17.004   7.441 -0.2746  0.1106  0.0689
13545W        W56457  19.756  17.108   5.811 -0.1381  0.2687 -0.1649
13546W        W56458  19.335  14.996   5.248  0.0502 -0.1858 -0.1216
13547W        W56459  17.535  15.288   4.887 -0.2320 -0.0323  0.0051
13548W        W56460  19.883  16.246   5.759 -0.4344  0.0711 -0.1182
13549W        W56461  21.315  16.915   5.121 -0.1277  0.0529 -0.4851
13550W        W56462  18.660  16.240   0.881 -0.5723 -0.0066  0.0065
13551W        W56463  20.506  15.527   5.965  0.0234 -0.0567 -0.0101
13552W        W56464  19.476  16.416   5.516 -0.0286  0.3298 -0.0090
13553W        W56465  22.124  15.994   4.653  0.1270  0.0480  0.2879
13554W        W56466  20.171  15.949   2.624  0.1747 -0.1757 -0.0844
13555W        W56467  18.694  16.767   4.464 -0.0963 -0.1854 -0.0764
13556W        W56468  18.660  14.194   7.360 -0.2810 -0.0740 -0.1967
13557W        W56469  22.116  16.649   5.572 -0.0015 -0.0461  0.1343
13558W        W56470  20.734  15.899   5.477 -0.0092  0.2607 -0.0496
13559W        W56471  20.287  16.534   7.305  0.3414  0.0805 -0.1020
13560W        W56472  23.283  16.253   5.907 -0.0340  0.0079 -0.2375
13561W        W56473  18.625  15.170   5.924 -0.1738  0.0051 -0.0418
13562W        W56474  18.156  15.306   7.162 -0.2264  0.4362  0.2305
13563W        W56475  20.023  17.485   5.556  0.0547 -0.3754  0.1280
13564W        W56476  21.860  16.231   3.322  0.4406 -0.1123  0.2553
13565W        W56477  21.483  16.234   5.947  0.1605  0.1951 -0.0207
13566W        W56478  21.275  15.790   5.645  0.1250  0.1890  0.3306
13567W        W56479  22.598  15.195   3.143  0.1032  0.0029  0.4262
13568W        W56480  18.845  16.924   4.915 -0.1071 -0.0320 -0.1663
13569W        W56481  21.277  15.972   7.707  0.1800  0.1710 -0.1069
13570W        W56482  19.721  15.278   1.675  0.3435 -0.5783  0.3024
13571W        W56483  20.704  16.096   6.554  0.0347  0.3865 -0.2993
13572W        W56484  20.449  18.495   4.745  0.1470 -0.0003  0.0164
13573W        W56485  21.440  17.124   6.005 -0.0523 -0.0558 -0.0629
13574W        W56486  20.182  15.829   4.419 -0.0811  0.0354  0.0887
13575W        W56487  18.512  14.756   4.855 -0.0712  0.0048 -0.3241
13576W        W56488  18.186  18.450   5.859  0.0142  0.0155 -0.2179
13577W        W56489  19.838  16.208   4.247  0.2154  0.1417  0.2670
13578W        W56490  20.770  15.903   2.648 -0.1965 -0.0912 -0.2176
13579W        W56491  20.514  18.134   6.376 -0.0165  0.2738 -0.2023
13580W        W56492  22.383  16.629   6.901 -0.2088  0.0571 -0.0264
13581W        W56493  19.801  14.366   3.732 -0.0716 -0.0021 -0.0672
13582W        W56494  20.369  15.970   7.401  0.1014  0.3926 -0.0707
13583W        W56495  18.028  17.946   4.969 -0.1916 -0.0256 -0.0939
13584W        W56496  19.697  15.754   4.392  0.3180  0.3056 -0.3091
13585W        W56497  18.789  16.868   5.929  0.1098 -0.2315 -0.1684
13586W        W56498  18.531  17.277   5.686 -0.1601 -0.1157 -0.1723
13587W        W56499  20.511  17.577   4.243 -0.3845 -0.0145  0.1884
13588W        W56500  20.674  15.007   5.926  0.0874  0.0580  0.1672
13589W        W56501  21.840  16.253   5.590 -0.3863 -0.0414 -0.2128
13590W        W56502  21.263  16.116   3.541  0.1790 -0.0792 -0.0262
13591W        W56503  21.879  16.548   6.024  0.3603 -0.1437  0.0418
13592W        W56504  19.604  18.082   4.825  0.1807  0.0724  0.2048
13593W        W56505  18.837  16.576   5.444 -0.0791  0.0566 -0.0557
13594W        W56506  21.257  19.235   5.524 -0.0390  0.0706 -0.0524
13595W        W56507  22.170  16.865   5.114  0.1344  0.0527 -0.5319
13596W        W56508  19.315  16.890   5.756 -0.1899 -0.1856 -0.0286
13597W        W56509  18.967  15.517   6.871 -0.3914 -0.0437  0.3005
13598W        W56510  21.007  16.186   6.927  0.1292 -0.3600  0.2130
13599W        W56511  20.653  16.974   5.276  0.0514  0.2751  0.2367
13600W        W56512  19.138  15.042   4.195  0.1950  0.1900  0.0301
13601W        W56513  21.387  17.107   3.508  0.2167 -0.2574  0.1435
13602W        W56514  17.884  17.983   8.028 -0.0351 -0.1880  0.1415
13603W        W56515  18.707  16.529   7.271  0.2875 -0.1485  0.2162
13604W        W56516  19.406  17.309   3.009  0.0651 -0.0294 -0.1222
13605W        W56517  21.075  16.757   3.737 -0.0909  0.3908 -0.1318
13606W        W56518  21.849  15.252   3.702  0.1600 -0.2388  0.2930
13607W        W56519  21.120  16.953   6.329  0.0440 -0.0518 -0.1438
13608W        W56520  19.652  15.131   3.199 -0.2638  0.1182  0.0151
13609W        W56521  20.985  17.631   5.543 -0.2125  0.0102 -0.0000
13610W        W56522  18.175  17.775   2.815  0.1786 -0.0289 -0.1041
13611W        W56523  20.525  17.960   3.393  0.1041  0.1390 -0.0077
13612W        W56524  19.018  17.465   4.477  0.1926  0.0532  0.1117
13613W        W56525  21.174  16.492   7.734  0.0740  0.2210  0.1812
13614W        W56526  21.187  15.127   3.207 -0.0356  0.2888  0.1206
13615W        W56527  21.873  16.725   4.319 -0.1396  0.0641  0.0325
13616W        W56528  22.705  15.387   4.075 -0.0152 -0.2368  0.0362
13617W        W56529  21.365  16.979   7.878 -0.1243 -0.1518  0.4171
13618W        W56530  19.325  15.862   6.620  0.2816  0.0362 -0.1031
13619W        W56531  21.003  14.222   4.090 -0.2127  0.0044  0.2609
13620W        W56532  19.493  14.579   6.950 -0.1132 -0.0751 -0.0333
13621W        W56533  22.215  14.853   6.471  0.0694  0.1493 -0.1086
13622W        W56534  19.015  16.846   6.780 -0.0158  0.3083  0.2683
13623W        W56535  21.566  17.906   2.585 -0.2072 -0.4487 -0.3206
13624W        W56536  17.735  15.545   3.305 -0.1022 -0.2080 -0.1094
13625W        W56537  19.648  15.626   3.521 -0.1722  0.1919  0.3736
13626W        W56538  21.707  14.112   6.725  0.1489  0.3249 -0.0599
13627W        W56539  19.530  16.804   2.610 -0.0149  0.0640  0.1852
13628W        W56540  19.753  15.296   6.358 -0.3112  0.1724  0.0624
13629W        W56541  20.057  17.779   5.130  0.1920 -0.0224  0.1282
13630W        W56542  19.627  17.830   5.442 -0.0331 -0.0365 -0.0129
13631W        W56543  19.275  16.820   4.656 -0.1036  0.2049  0.1653
13632W        W56544  19.608  15.281   4.180 -0.2454  0.1582 -0.1431
13633W        W56545  22.265  16.408   5.189 -0.2146  0.3012  0.2762
13634W        W56546  19.700  14.099   7.539 -0.0628  0.1446 -0.3207
13635W        W56547  21.577  14.842   6.328 -0.1193 -0.1633  0.0383
13636W        W56548  19.928  15.719   3.925  0.1186 -0.0112 -0.2194
13637W        W56549  19.997  16.461   4.696 -0.1245  0.1905 -0.2285
13638W        W56550  19.819  17.149   6.750 -0.3320  0.2366 -0.1361
13639W        W56551  19.543  15.492   5.425  0.0565 -0.0549 -0.0907
13640W        W56552  20.447  15.723   2.255 -0.0778 -0.1115  0.1830
13641W        W56553  22.506  16.991   5.889  0.3504 -0.1490  0.1166
13642W        W56554  21.114  16.524   1.218 -0.1503  0.0609 -0.1594
13643W        W56555  21.360  17.681   5.819  0.0510 -0.0522  0.1951
13644W        W56556  18.802  15.624   5.466 -0.0579  0.1515 -0.0105
13645W        W56557  21.706  14.725   4.561 -0.4725  0.2417  0.0845
13646W        W56558  18.444  15.808   3.161  0.1714  0.2546  0.1253
13647W        W56559  19.618  16.129   6.356 -0.1963  0.0141 -0.1936
13648W        W56560  20.905  17.592   7.859 -0.0690  0.1391 -0.1252
13649W        W56561  18.990  14.637   4.582  0.2140  0.0497 -0.0354
13650W        W56562  21.493  17.317   2.451  0.2933  0.1932 -0.0796
13651W        W56563  21.076  15.686   5.136 -0.2842  0.0341 -0.0913
13652W        W56564  20.640  17.752   3.789  0.0331 -0.2043 -0.0351
13653W        W56565  20.813  16.020   4.357 -0.3049  0.1844 -0.4451
13654W        W56566  20.868  18.384   4.533 -0.1092 -0.1873  0.0110
13655W        W56567  18.402  15.082   6.553 -0.0858 -0.1849 -0.0524
13656W        W56568  21.149  18.336   5.600 -0.0917  0.0082  0.1676
13657W        W56569  22.964  17.039   5.712  0.3390 -0.1289  0.0409
13658W        W56570  19.802  14.557   4.899 -0.3701  0.2003 -0.0561
13659W        W56571  18.458  18.549   4.493  0.2618  0.1313  0.1022
13660W        W56572  21.749  16.080   6.389 -0.0734  0.0267  0.1619
13661W        W56573  20.353  15.622   6.717  0.0073  0.0301  0.0485
13662W        W56574  20.083  16.697   2.937  0.1249  0.5961 -0.0300
13663W        W56575  21.222  15.868   7.209 -0.0893 -0.0063 -0.2803
13664W        W56576  20.482  18.178   5.826 -0.0053 -0.0414 -0.1430
13665W        W56577  19.941  16.922   7.502  0.1435  0.0455  0.1476
13666W        W56578  18.451  17.371   2.764 -0.1612 -0.0935 -0.1665
13667W        W56579  19.710  17.269   7.847  0.3827  0.1115  0.0697
13668W        W56580  18.079  17.503   4.140 -0.2563 -0.0024 -0.0280
13669W        W56581  20.532  18.503   3.430 -0.0054  0.1432  0.0212
13670W        W56582  21.430  17.438   5.393 -0.0276  0.1069  0.1462
13671W        W56583  20.202  15.284   3.129 -0.0051  0.0281 -0.0642
13672W        W56584  21.882  17.730   6.104 -0.2481 -0.1091  0.4025
13673W        W56585  19.049  15.667   5.044 -0.0747 -0.1045 -0.0113
13674W        W56586  20.029  15.574   5.006 -0.1115  0.1056 -0.0353
13675W        W56587  19.850  14.163   3.312  0.0452 -0.1880  0.2891
13676W        W56588  19.288  17.128   5.037  0.1190 -0.0061 -0.2911
13677W        W56589  18.060  16.047   2.483  0.2952  0.0802 -0.1508
13678W        W56590  19.073  16.385   3.292 -0.2559 -0.1133 -0.3861
13679W        W56591  18.561  16.979   4.011 -0.3079 -0.0221  0.0267
13680W        W56592  19.675  15.081   7.828  0.2058  0.1187 -0.1789
13681W        W56593  19.140  15.571   7.316 -0.1256  0.0328  0.3589
13682W        W56594  18.460  16.944   5.301  0.2107  0.0960  0.2391
13683W        W56595  18.983  15.127   3.150 -0.3083 -0.0084  0.2194
13684W        W56596  21.684  16.738   3.327 -0.1162  0.0591 -0.0738
13685W        W56597  19.566  14.525   4.312 -0.0001  0.0958  0.1904
13686W        W56598  18.729  15.056   4.472  0.2580  0.1592  0.1406
13687W        W56599  20.668  16.614   4.146 -0.4312  0.0660 -0.1182
13688W        W56600  21.703  17.410   3.832 -0.2992  0.1324 -0.2035
13689W        W56601  19.365  15.663   3.925  0.0319  0.0486 -0.2112
13690W        W56602  21.731  17.164   8.227  0.0449 -0.0534  0.3821
13691W        W56603  19.103  17.147   2.509 -0.2224  0.3045  0.4649
13692W        W56604  19.985  15.575   7.157 -0.0217 -0.0871  0.2320
13693W        W56605  20.016  15.419   7.644 -0.0911 -0.2679 -0.0154
13694W        W56606  18.814  14.974   1.839 -0.3468  0.2812 -0.3772
13695W        W56607  19.691  16.946   5.341  0.1420  0.1183 -0.3667
13696W        W56608  19.818  16.890   4.907  0.2285 -0.1342 -0.0216
13697W        W56609  21.004  16.315   3.940  0.0147 -0.2722  0.2202
13698W        W56610  19.625  16.423   5.048  0.0029 -0.0298 -0.0619
13699W        W56611  19.940  18.768   6.052 -0.3000 -0.0218  0.1012
13700W        W56612  18.353  14.841   5.608 -0.5446 -0.1040  0.1142
13701W        W56613  21.619  16.458   2.524 -0.1595 -0.2408 -0.1645
13702W        W56614  18.618  17.380   6.354 -0.0525 -0.1072 -0.0376
13703W        W56615  21.800  17.087   2.897  0.0967  0.0530 -0.1693
13704W        W56616  21.380  15.774   6.218 -0.0134  0.1432  0.2123
13705W        W56617  18.645  16.352   2.343  0.3475  0.0830  0.4555
13706W        W56618  18.966  15.025   6.661  0.2834 -0.0036  0.0665
13707W        W56619  20.561  16.440   6.912  0.0371 -0.1806 -0.1037
13708W        W56620  22.675  16.566   4.651 -0.0084  0.2243  0.1993
13709W        W56621  18.813  15.374   4.030  0.2004 -0.1929  0.0891
13710W        W56622  19.477  14.975   4.685  0.2361 -0.1103 -0.1669
13711W        W56623  20.612  16.285   2.307 -0.3105 -0.0922 -0.0487
13712W        W56624  17.681  17.283   5.854  0.1253 -0.1591 -0.3054
13713W        W56625  18.924  15.827   3.540  0.0188 -0.4359 -0.0885
13714W        W56626  21.359  14.499   7.051  0.1344 -0.0440  0.0089
13715W        W56627  21.370  16.540   4.385 -0.2459  0.0468 -0.2124
13716W        W56628  20.243  16.138   6.354  0.0585  0.2715  0.2017
13717W        W56629  20.560  15.926   1.792  0.1684  0.1323 -0.0747
13718W        W56630  22.315  17.053   2.199 -0.3035  0.1101  0.1685
13719W        W56631  22.386  18.412   4.566  0.0952 -0.2022  0.0053
13720W        W56632  22.199  17.228   8.186 -0.1319 -0.0213 -0.0328
13721W        W56633  20.459  17.705   5.644  0.0742  0.1754 -0.1201
13722W        W56634  22.460  16.455   5.931 -0.1116  0.0829 -0.3158
13723W        W56635  18.228  15.201   4.698 -0.1084 -0.2368 -0.0186
13724W        W56636  20.159  15.301   3.612 -0.0625 -0.0375  0.0342
13725W        W56637  19.511  16.669   4.179 -0.0321 -0.0204  0.1009
13726W        W56638  20.409  16.131   5.895 -0.1259  0.1499  0.0692
13727W        W56639  19.774  15.123   5.106  0.2018 -0.1390  0.1789
13728W        W56640  19.659  13.456   3.104 -0.0336  0.2743 -0.0803
13729W        W56641  18.604  17.794   6.751  0.2068  0.1615 -0.0350
13730W        W56642  21.547  16.688   6.908  0.0527  0.0975  0.0545
13731W        W56643  20.044  15.160   9.956 -0.1363  0.2743 -0.2034
13732W        W56644  18.430  16.923   8.140 -0.0561  0.0143 -0.1911
13733W        W56645  19.796  15.705   6.661 -0.0208 -0.1973  0.0883
13734W        W56646  22.093  16.257   7.611  0.0397  0.3938  0.1780
13735W        W56647  17.911  16.172   8.485  0.2043 -0.0354  0.2460
13736W        W56648  21.298  18.128   9.285 -0.1119  0.0796  0.0289
13737W        W56649  17.242  18.428   9.282  0.2349 -0.0365  0.0074
13738W        W56650  21.845  18.793  10.472  0.1876  0.5237 -0.0043
13739W        W56651  20.285  17.429   7.847 -0.3881  0.3058  0.1288
13740W        W56652  18.533  16.204   9.543 -0.0306  0.0817  0.1132
13741W        W56653  18.934  14.730   7.561  0.0129  0.1577  0.1243
13742W        W56654  16.667  14.552   9.351  0.0052  0.0577  0.0058
13743W        W56655  21.296  17.466   9.733  0.0008 -0.0134 -0.2958
13744W        W56656  17.520  17.425   7.942 -0.0795  0.1103  0.1477
13745W        W56657  18.056  14.943   9.099  0.2305  0.1071  0.1657
13746W        W56658  19.572  15.524   9.029 -0.0668 -0.0179 -0.0412
13747W        W56659  21.324  18.388  10.209 -0.0552 -0.0041  0.0126
13748W        W56660  20.171  12.612   9.834 -0.0027  0.3571 -0.1837
13749W        W56661  18.971  15.666   8.197  0.1946 -0.0730 -0.0250
13750W        W56662  18.890  14.664   6.996 -0.2686  0.0542 -0.0565
13751W        W56663  17.951  16.410   8.951 -0.4381  0.0365 -0.1411
13752W        W56664  19.028  17.967   9.022 -0.0827  0.1472  0.2708
13753W        W56665  21.445  16.356   8.540  0.0423  0.2105  0.2074
13754W        W56666  21.063  17.278  10.219  0.1137  0.0415  0.1875
13755W        W56667  18.488  16.562   9.033 -0.0769 -0.0667 -0.1513
13756W        W56668  21.423  15.908   9.927  0.3813 -0.1366  0.1217
13757W        W56669  16.426  18.516   8.954  0.1581 -0.1396  0.4167
13758W        W56670  18.782  18.097   7.268  0.0619  0.3230 -0.0603
13759W        W56671  18.370  18.235   7.545 -0.0112  0.0763 -0.3632
13760W        W56672  21.502  16.661   9.005  0.1061 -0.1325  0.1201
13761W        W56673  19.875  16.207   7.141  0.2046 -0.0706 -0.0227
13762W        W56674  20.696  15.226   8.537 -0.5714 -0.4483  0.0276
13763W        W56675  19.832  16.735   8.053 -0.3236 -0.1507  0.1676
13764W        W56676  19.960  16.324   8.264  0.0969 -0.2728 -0.0706
13765W        W56677  19.327  16.690   9.926  0.3787 -0.0421  0.1681
13766W        W56678  17.439  17.415   8.899 -0.1109  0.0051  0.1432
13767W        W56679  18.921  17.021   7.287  0.1134  0.0628 -0.0734
13768W        W56680  21.136  16.938   8.336 -0.0129 -0.0594  0.0272
13769W        W56681  19.999  14.506   7.400  0.2204 -0.2695 -0.0049
13770W        W56682  21.599  15.469   8.729 -0.2188  0.1714  0.0773
13771W        W56683  18.185  15.311   8.616 -0.0076 -0.2155 -0.3752
13772W        W56684  19.443  18.459   9.095 -0.2006 -0.0707  0.1636
13773W        W56685  18.274  17.285   9.294 -0.0510 -0.1710  0.0538
13774W        W56686  19.557  15.790   7.090  0.2803  0.0322 -0.0691
13775W        W56687  20.680  14.178  11.578 -0.1623 -0.0927  0.0355
13776W        W56688  19.885  18.029   8.459 -0.1510 -0.0549  0.2019
13777W        W56689  18.358  15.955   7.432 -0.2861 -0.0555 -0.0959
13778W        W56690  20.623  17.538   6.867  0.0347 -0.2724 -0.0267
13779W        W56691  21.611  17.937  10.625  0.2441  0.2691  0.3748
13780W        W56692  21.442  18.378   7.932 -0.0665 -0.1283 -0.1034
13781W        W56693  17.355  16.798   7.136 -0.1065  0.1597 -0.1036
13782W        W56694  19.421  13.319   7.149  0.1951  0.5952  0.1758
13783W        W56695  20.044  17.639  10.159 -0.2541  0.1978 -0.2669
13784W        W56696  19.227  17.420   8.207  0.0318 -0.0169 -0.0439
13785W        W56697  20.995  19.390   9.795 -0.0478 -0.0821 -0.3015
13786W        W56698  19.764  16.714   7.093  0.0909  0.2156  0.0644
13787W        W56699  21.234  15.535   7.892 -0.1297 -0.1647  0.0573
13788W        W56700  20.730  16.226  10.038  0.2784 -0.1044  0.0229
13789W        W56701  17.792  16.870   7.450 -0.1090 -0.1180  0.1070
13790W        W56702  18.469  16.394   8.543  0.0241  0.1337  0.0111
13791W        W56703  21.636  18.640   9.869 -0.1233  0.0092  0.2845
13792W        W56704  21.342  16.418   7.285 -0.1690 -0.2380  0.2539
13793W        W56705  17.433  19.150   8.414  0.0389 -0.0114 -0.3400
13794W        W56706  18.710  16.861   7.700  0.1571  0.4437  0.0501
13795W        W56707  15.328  18.755   9.273 -0.3382 -0.2111  0.0372
13796W        W56708  17.882  17.595   7.610  0.0401 -0.0571 -0.1186
13797W        W56709  19.279  16.130   9.287  0.0824  0.0374  0.2808
13798W        W56710  20.202  17.364   9.353 -0.0094  0.2264  0.0651
13799W        W56711  21.682  15.953   9.037  0.1092  0.1951  0.1701
13800W        W56712  21.921  15.357   7.077  0.1846 -0.2836  0.0092
13801W        W56713  19.505  17.635   8.602 -0.2825  0.2024  0.2987
13802W        W56714  20.941  18.717   9.103 -0.2591  0.4708  0.2941
13803W        W56715  21.740  15.577   7.991  0.2196  0.0122  0.3182
13804W        W56716  20.716  17.862   7.409  0.2484 -0.2984  0.0198
13805W        W56717  16.798  17.216   9.428 -0.0375 -0.0026  0.1959
13806W        W56718  18.291  16.039   9.157  0.2281 -0.0578 -0.2564
13807W        W56719  17.994  14.058   8.283 -0.2919 -0.1941  0.0016
13808W        W56720  19.118  15.170   7.658  0.0896  0.0676  0.2384
13809W        W56721  20.688  16.874   8.443  0.2907  0.0565 -0.3639
13810W        W56722  20.060  15.823   8.411 -0.0541  0.0754  0.1488
13811W        W56723  16.671  18.374   9.385 -0.0668 -0.0568 -0.3030
13812W        W56724  20.935  18.191   7.677 -0.2433  0.1375  0.0846
13813W        W56725  21.253  16.029   9.247  0.0261  0.0160  0.1627
13814W        W56726  21.146  17.647   9.045  0.0581  0.3727  0.1085
13815W        W56727  21.626  16.317   9.417  0.0180  0.3547 -0.1985
13816W        W56728  18.386  16.793   6.970  0.0824 -0.0585 -0.1434
13817W        W56729  18.287  18.426   9.659 -0.1207  0.0910 -0.0330
13818W        W56730  19.209  15.203   9.114  0.1395 -0.2044 -0.1013
13819W        W56731  19.020  15.884   9.643  0.2290  0.3818 -0.0906
13820W        W56732  19.781  21.705  10.303  0.4392  0.1177 -0.1590
13821W        W56733  21.931  17.434   9.619  0.0413  0.1783 -0.1131
13822W        W56734  20.234  19.257   9.328  0.0631  0.1121 -0.1275
13823W        W56735  20.144  16.748   8.548  0.1707  0.0980 -0.1537
13824W        W56736  18.292  14.177   7.767  0.2282 -0.2476 -0.1803
13825W        W56737  20.706  17.372   9.200  0.2026  0.3223 -0.2363
13826W        W56738  17.545  17.863   6.712  0.0726 -0.0778  0.1857
13827W        W56739  17.197  14.607   9.413 -0.0989 -0.0284  0.1072
13828W        W56740  18.411  17.531   8.653  0.0511  0.1774  0.0584
13829W        W56741  21.932  16.412   8.788  0.1755  0.0647  0.1138
13830W        W56742  17.940  17.061   7.861  0.1674 -0.0267 -0.0595
13831W        W56743  20.768  14.118   6.565 -0.0238  0.0692  0.3862
13832W        W56744  20.968  15.564   8.932 -0.0931  0.2409  0.3343
13833W        W56745  21.403  17.447   7.619 -0.4690 -0.0337  0.3443
13834W        W56746  22.312  16.302   6.432  0.0810 -0.0477 -0.2376
13835W        W56747  21.075  13.698   6.453  0.0499 -0.0278  0.0985
13836W        W56748  20.571  16.020   8.230  0.1849  0.2317  0.0161
13837W        W56749  20.253  16.080   9.828 -0.0650 -0.0138 -0.0399
13838W        W56750  21.707  16.075   7.981 -0.3279 -0.0904  0.1862
13839W        W56751  22.268  17.637   9.283 -0.0091 -0.0971  0.0468
13840W        W56752  18.466  18.308   9.130  0.3932  0.3597  0.1362
13841W        W56753  19.001  18.980   9.053 -0.2632  0.0456 -0.0762
13842W        W56754  19.003  17.657   8.589  0.2283  0.2166  0.3670
13843W        W56755  20.831  16.178   7.413 -0.2073 -0.2127 -0.0673
13844W        W56756  20.263  14.844   8.833  0.0017 -0.1953 -0.2073
13845W        W56757  17.005  18.590   6.903  0.0317  0.0667  0.1819
13846W        W56758  19.146  16.566   9.448  0.2028  0.0207 -0.1539
13847W        W56759  20.967  16.922   8.894  0.0341  0.1060  0.1389
13848W        W56760  21.153  15.810   6.671 -0.2162  0.5327  0.1360
13849W        W56761  20.527  17.087   8.862  0.1353 -0.0183  0.3310
13850W        W56762  20.378  16.980   7.985  0.4164 -0.2581 -0.1264
13851W        W56763  21.388  15.403   9.697  0.0280  0.2222  0.0522
13852W        W56764  18.804  17.738   8.017  0.0665 -0.2909  0.2330
13853W        W56765  20.524  15.610   9.180  0.2948  0.1287 -0.1469
13854W        W56766  19.365  14.695   8.481  0.2371  0.1754  0.1477
13855W        W56767  19.890  17.557   8.243 -0.0286 -0.0304  0.2605
13856W        W56768  19.319  15.706   7.845  0.3374  0.2439  0.0669
13857W        W56769  18.903  15.389   9.530 -0.1870  0.1658  0.1029
13858W        W56770  18.942  18.539   9.402  0.1898 -0.1643 -0.1869
13859W        W56771  19.749  17.310   7.233  0.2742 -0.2990 -0.1711
13860W        W56772  21.276  16.966   9.793 -0.4077  0.0196  0.1336
13861W        W56773  18.896  17.623   7.494 -0.1856 -0.2989 -0.1061
13862W        W56774  21.130  15.051   8.741  0.0497 -0.4626 -0.0168
13863W        W56775  17.732  17.330   9.277 -0.0239  0.1038 -0.0292
13864W        W56776  18.973  16.088   7.140 -0.1066 -0.2008 -0.1497
13865W        W56777  18.014  16.667   8.429  0.1901 -0.1115  0.1494
13866W        W56778  21.921  14.831   8.641 -0.2183 -0.1581  0.0392
13867W        W56779  22.259  17.225   8.842  0.3085  0.1235 -0.0887
13868W        W56780  17.757  14.557   9.096 -0.0626 -0.4455  0.1287
13869W        W56781  19.691  17.153   9.081 -0.0299 -0.2568 -0.1179
13870W        W56782  17.063  15.947   9.220 -0.2592  0.3336 -0.1608
13871W        W56783  21.334  15.034   7.793 -0.0082  0.2660 -0.1958
13872W        W56784  17.490  15.974   7.567 -0.2548  0.3949  0.0455
13873W        W56785  21.680  17.047   9.476 -0.0693 -0.0358  0.0285
13874W        W56786  19.030  17.199   7.777 -0.2365 -0.0380 -0.3496
13875W        W56787  18.433  18.357   8.024 -0.1882 -0.0380 -0.0057
13876W        W56788  21.356  18.807  10.482 -0.3906  0.1975  0.1792
13877W        W56789  19.538  16.143   8.042  0.0425 -0.1373 -0.0988
13878W        W56790  17.258  17.459   9.587  0.3790 -0.0461  0.3230
13879W        W56791  21.670  13.701   7.724  0.0952 -0.0102  0.2437
13880W        W56792  21.012  17.808   9.946  0.0298 -0.1278 -0.0643
13881W        W56793  20.572  16.578   8.924 -0.4096 -0.0350 -0.1145
13882W        W56794  18.355  17.940   8.327  0.1516 -0.2728 -0.3591
13883W        W56795  20.707  16.462   9.534 -0.2236  0.2876 -0.0799
13884W        W56796  20.649  15.111   9.221  0.0069 -0.3366  0.0138
13885W        W56797  21.150  14.309   7.942 -0.0918 -0.0478  0.1358
13886W        W56798  21.411  17.991   8.814  0.2965 -0.1755 -0.1400
13887W        W56799  17.471  18.337   7.886  0.1498  0.1401 -0.1300
13888W        W56800  18.452  15.736   9.730 -0.0927 -0.0305  0.0159
13889W        W56801  18.735  17.113   8.976  0.2402  0.1221 -0.0035
13890W        W56802  20.952  15.513   9.444  0.4862  0.0069  0.2662
13891W        W56803  15.936  18.939   9.434 -0.2310  0.1592  0.0605
13892W        W56804  19.647  17.144   8.343  0.0926  0.0826 -0.0984
13893W        W56805  17.054  18.336   8.806 -0.1303  0.0654 -0.1073
13894W        W56806  21.594  15.576   7.463  0.0999 -0.1573 -0.0874
13895W        W56807  19.087  16.909   8.223 -0.4552  0.2329 -0.0928
13896W        W56808  18.662  16.940   9.410  0.0319  0.0864  0.0116
13897W        W56809  20.091  17.577   6.840 -0.2934 -0.0727 -0.0175
13898W        W56810  19.548  15.407   7.489  0.0120 -0.1138  0.1269
13899W        W56811  21.106  16.279   9.713 -0.0933 -0.0800 -0.0458
13900W        W56812  20.982  15.618   8.410  0.0725 -0.2870  0.1066
13901W        W56813  19.797  15.910   7.661  0.4156  0.2139 -0.2019
13902W        W56814  19.604  17.839   9.091  0.1090  0.2497  0.0211
13903W        W56815  20.125  16.936   9.114  0.0261 -0.2006  0.0598
13904W        W56816  20.365  18.058   8.711  0.3882 -0.2429  0.1144
13905W        W56817  20.750  17.361   8.312 -0.0355  0.2768 -0.0497
13906W        W56818  18.737  16.827   8.595 -0.0129  0.1700 -0.0722
13907W        W56819  21.257  15.960   8.731  0.1775 -0.1265 -0.0466
13908W        W56820  20.148  16.415   7.796 -0.0323 -0.3527 -0.1391
13909W        W56821  19.428  16.470   8.441 -0.2410 -0.0852  0.0857
13910W        W56822  21.013  18.495  10.944 -0.0637 -0.0949 -0.0553
13911W        W56823  20.290  16.083   9.323 -0.1760 -0.1297  0.1356
13912W        W56824  19.452  18.140   8.716 -0.1744  0.3716  0.0176
13913W        W56825  20.861  15.535   6.417 -0.0836 -0.1113 -0.0650
13914W        W56826  16.921  18.782   9.306  0.5616 -0.2026  0.0927
13915W        W56827  22.043  16.155   9.700  0.2812  0.0979 -0.3214
13916W        W56828  20.654  16.380   7.801  0.0768  0.0621  0.2350
13917W        W56829  19.075  15.687   9.155  0.0059  0.1562 -0.0235
13918W        W56830  20.542  14.701   6.682  0.2434 -0.0546 -0.0099
13919W        W56831  19.296  17.466   7.280 -0.2111  0.1597  0.0083
13920W        W56832  18.682  19.398   8.778 -0.0631 -0.0710  0.1747
13921W        W56833  21.522  16.513   8.079 -0.2175  0.0227  0.2339
13922W        W56834  18.146  15.970   7.946 -0.0388  0.0868  0.4428
13923W        W56835  19.775  14.728  10.155  0.2773  0.1801  0.0657
13924W        W56836  21.008  17.350   5.998  0.0156  0.0348  0.1578
13925W        W56837  19.771  16.198   8.831 -0.0580 -0.1538 -0.1927
13926W        W56838  21.083  14.662   7.575 -0.2005  0.0131  0.3729
13927W        W56839  18.733  15.771   7.789  0.2953  0.3200  0.0432
13928W        W56840  21.634  14.542   8.170 -0.1557 -0.1702  0.2592
13929W        W56841  16.650  19.419   9.384 -0.0194 -0.0179 -0.0381
13930W        W56842  17.643  16.961   8.868  0.1730 -0.1321  0.1356
13931W        W56843  19.713  14.976   9.356  0.0887 -0.5078  0.0112
13932W        W56844  20.798  18.635   9.577 -0.3731 -0.4852  0.1680
13933W        W56845  19.958  18.465   9.542 -0.0627 -0.2918  0.0097
13934W        W56846  18.079  16.874   9.089 -0.2538  0.2571  0.0536
13935W        W56847  22.559  16.274   7.980 -0.4723  0.3197 -0.3082
13936W        W56848  18.685  17.313   8.288 -0.0788  0.1347  0.0842
13937W        W56849  19.073  18.514   8.100 -0.0159  0.3011  0.0426
13938W        W56850  18.279  14.769   8.663  0.3605  0.0944 -0.0529
13939W        W56851  20.216  16.075   6.833  0.0005 -0.0680  0.0526
13940W        W56852  16.957  17.621   9.156 -0.0364 -0.0843 -0.2290
13941W        W56853  18.383  18.300   6.696  0.1674  0.2800  0.1108
13942W        W56854  21.097  16.432   8.995  0.1942 -0.1172  0.0315
13943W        W56855  21.108  17.341   8.602  0.0638 -0.1777 -0.0822
13944W        W56856  19.621  19.598   8.807 -0.0724 -0.2176  0.0968
13945W        W56857  20.727  14.999   7.570 -0.1375  0.1075  0.0854
13946W        W56858  17.278  17.914   8.855  0.0748  0.0027 -0.1886
13947W        W56859  17.454  17.878   7.557 -0.2819  0.0175 -0.0189
13948W        W56860  21.948  17.579   8.385 -0.0025  0.1548  0.1585
13949W        W56861  17.835  17.178   8.382  0.0274 -0.1539 -0.0932
13950W        W56862  20.816  15.816   7.778 -0.2205  0.0028 -0.1332
13951W        W56863  20.745  16.081   8.994 -0.1489 -0.2591 -0.2435
13952W        W56864  21.740  15.926   8.507  0.0999  0.1373 -0.3421
13953W        W56865  19.479  15.129   9.802 -0.1006  0.0845 -0.1546
13954W        W56866  20.835  15.294   8.019 -0.0788  0.3433 -0.0182
13955W        W56867  21.700  18.328   8.544  0.2182  0.2061 -0.1656
13956W        W56868  18.746  16.494   8.121  0.0403 -0.1561  0.2760
13957W        W56869  21.408  15.542   9.224 -0.2441  0.2896  0.2435
13958W        W56870  20.417  14.346   8.737 -0.0336  0.2004 -0.0359
13959W        W56871  19.402  17.065   6.987 -0.0650  0.0329  0.1403
13960W        W56872  19.630  16.474   7.523  0.0402 -0.0115  0.0238
13961W        W56873  19.600  19.283   7.837 -0.0854  0.0550 -0.0652
13962W        W56874  19.364  17.963   9.899  0.1338 -0.1454  0.0458
13963W        W56875  18.839  18.355   9.867 -0.1419  0.1375  0.1852
13964W        W56876  18.593  16.059   8.188 -0.1381 -0.2299  0.0112
13965W        W56877  22.690  14.197   9.691 -0.1977 -0.0189 -0.4030
13966W        W56878  17.560  16.155   9.402 -0.2091  0.0504 -0.1901
13967W        W56879  19.531  16.137   9.771  0.2033  0.1853 -0.2497
13968W        W56880  21.508  16.135   6.817 -0.2160 -0.0463  0.0175
13969W        W56881  20.879  17.215   9.638 -0.1086 -0.0918  0.3818
13970W        W56882  18.196  17.908   9.232 -0.1166 -0.1985  0.1139
13971W        W56883  20.130  15.246   9.097 -0.1082 -0.0600  0.2441
13972W        W56884  20.208  16.994   7.034 -0.0538 -0.2054  0.0103
13973W        W56885  17.906  14.626   7.678  0.1963 -0.0416 -0.2508
13974W        W56886  20.467  15.537   8.294 -0.1242 -0.1645  0.2223
13975W        W56887  18.564  15.610   7.201  0.1020 -0.0033  0.0187
13976W        W56888  19.741  16.012   9.311 -0.3263  0.3671 -0.1113
13977W        W56889  19.239  16.060   8.739  0.1823  0.3314 -0.1543
13978W        W56890  20.056  17.788   7.551  0.0562 -0.1033  0.1177
13979W        W56891  20.330  16.228   8.670  0.0548  0.0937 -0.1752
13980W        W56892  20.143  17.620   8.820 -0.0253  0.2286 -0.2288
13981W        W56893  20.463  17.807   9.214  0.1622 -0.1090  0.2727
13982W        W56894  21.300  18.583   9.474  0.0591  0.1544  0.3000
13983W        W56895  18.068  15.504   9.101  0.0124  0.0852 -0.1767
13984W        W56896  21.695  18.044   9.727 -0.1977 -0.0788  0.2778
13985W        W56897  17.751  15.639   8.551 -0.1415 -0.0904 -0.1033
13986W        W56898  18.328  14.544   9.083 -0.0278 -0.3348 -0.1134
13987W        W56899  18.999  16.484   8.899 -0.1118  0.0847 -0.0081
13988W        W56900  16.210  18.049   8.877 -0.0268  0.0214 -0.0834
13989W        W56901  22.476  16.549   9.933  0.0083 -0.3283  0.0487
13990W        W56902  20.098  18.014   6.638 -0.1142 -0.1062  0.2488
13991W        W56903  19.349  19.953   9.078 -0.1341  0.0720 -0.1908
13992W        W56904  18.208  16.582   6.551 -0.0748 -0.1018 -0.0538
13993W        W56905  20.434  16.505   8.218  0.0492 -0.0535 -0.0872
13994W        W56906  20.675  18.123   8.345 -0.0971 -0.0537  0.1501
13995W        W56907  22.108  17.023   9.844 -0.2499  0.0491 -0.0030
13996W        W56908  19.165  15.179   8.244 -0.1712  0.0343  0.0676
13997W        W56909  21.163  16.652  10.178  0.0057 -0.2465 -0.1094
13998W        W56910  19.676  16.504   9.345 -0.0691 -0.0464 -0.2210
13999W        W56911  22.193  13.948   6.727 -0.2253 -0.1352  0.0102
14000W        W56912  22.037  15.326   8.516 -0.0996  0.0924  0.0205
14001W        W56913  16.955  17.971   8.533  0.0862 -0.0726  0.0670
14002W        W56914  17.564  15.808   8.045  0.2052 -0.1880 -0.1899
14003W        W56915  19.091  16.162   8.285 -0.1261 -0.1172 -0.0431
14004W        W56916  19.223  17.958   8.218 -0.1346  0.0387  0.0980
14005W        W56917  16.768  15.509   9.950 -0.0867 -0.3568  0.0923
14006W        W56918  20.112  16.460   9.053 -0.2287 -0.0593  0.1491
14007W        W56919  20.462  18.317   7.566  0.0001 -0.2961  0.1380
14008W        W56920  19.420  15.531   9.490 -0.2216  0.1268  0.2874
14009W        W56921  17.196  15.588   8.339 -0.3726 -0.0464  0.1513
14010W        W56922  21.248  15.957   8.201 -0.2205  0.1881  0.1982
14011W        W56923  21.070  17.767   8.432 -0.4821  0.0490 -0.0880
14012W        W56924  19.512  15.128   8.660  0.0497 -0.0479  0.2159
14013W        W56925  19.392  16.244   6.972 -0.0102  0.1896  0.0861
14014W        W56926  17.963  15.669   7.455 -0.0156  0.2001  0.0047
14015W        W56927  19.225  17.180   8.637 -0.4614  0.0157  0.4029
14016W        W56928  20.458  17.591   9.844 -0.1482 -0.0929  0.0381
14017W        W56929  21.120  17.865   6.497 -0.1978  0.0756 -0.2883
14018W        W56930  15.629  16.607   9.380 -0.2005  0.0550  0.2555
14019W        W56931  20.832  16.655   7.321  0.2418 -0.0031 -0.0349
14020W        W56932  21.983  16.715   8.145  0.1599 -0.2371 -0.1411
14021W        W56933  21.177  16.796   9.337  0.3869  0.1094 -0.0125
14022W        W56934  20.915  16.360   8.471  0.0373  0.2933 -0.3619
14023W        W56935  21.702  17.285  10.578 -0.1956 -0.5245  0.3023
14024W        W56936  20.463  15.756   8.721 -0.1048 -0.0364 -0.0007
14025W        W56937  20.950  14.897   7.053 -0.3221  0.2310  0.0529
14026W        W56938  19.724  17.977   7.907 -0.1581  0.1780  0.1231
14027W        W56939  19.863  14.683   9.675  0.1353  0.1045  0.0921
14028W        W56940  20.222  14.994   7.509 -0.0175  0.0569  0.2669
14029W        W56941  19.261  17.103   9.513  0.2841  0.1604  0.1495
14030W        W56942  20.023  15.762   8.963 -0.0403  0.0490 -0.0251
14031W        W56943  21.543  16.569   6.440 -0.2602  0.1136  0.2036
14032W        W56944  18.246  19.686   8.824 -0.0769  0.4164 -0.0656
14033W        W56945  16.630  16.179   9.341 -0.2162 -0.1873  0.2330
14034W        W56946  21.262  19.347  10.203 -0.0462  0.2656  0.0891
14035W        W56947  18.257  13.658   8.654 -0.0360  0.1686 -0.0552
14036W        W56948  19.211  16.597   7.854  0.0867  0.0443  0.0837
14037W        W56949  19.572  16.712   8.867  0.0791 -0.2565  0.3725
14038W        W56950  20.196  17.997   9.587 -0.1126  0.0821  0.0068
14039W        W56951  17.995  15.799   9.519  0.2458 -0.1007  0.0026
14040W        W56952  20.471  15.265   7.071 -0.0654 -0.0891 -0.0804
14041W        W56953  17.754  18.386   9.727  0.1571  0.1289  0.1131
14042W        W56954  24.197  15.279   9.560 -0.1368 -0.0114 -0.0628
14043W        W56955  18.125  19.836   2.904 -0.0103  0.0593 -0.0109
14044W        W56956  18.123  20.285   0.687 -0.0004  0.1251 -0.1182
14045W        W56957  20.790  17.939   0.576 -0.0086 -0.1779  0.1022
14046W        W56958  22.172  19.599   0.463 -0.1938  0.0595  0.3223
14047W        W56959  18.819  19.131   1.178 -0.0459 -0.0531  0.0527
14048W        W56960  20.549  21.773   1.373  0.1579 -0.0859  0.2051
14049W        W56961  19.499  17.735   2.834 -0.3266 -0.2390 -0.1168
14050W        W56962  20.401  19.497   0.696 -0.3986 -0.0994 -0.0069
14051W        W56963  20.879  22.277   2.626  0.0314 -0.0943 -0.1265
14052W        W56964  20.351  19.743  28.912  0.2207  0.1016 -0.0193
14053W        W56965  18.482  19.041   2.143 -0.0543 -0.0720  0.3744
14054W        W56966  20.387  21.496   0.236 -0.1114  0.0738 -0.0700
14055W        W56967  20.415  18.468  31.692  0.0092  0.2748  0.0777
14056W        W56968  19.010  18.205   0.798 -0.2521 -0.0778 -0.0723
14057W        W56969  20.844  18.904   0.800 -0.0264  0.2369 -0.1089
14058W        W56970  18.994  19.531   1.395 -0.0740  0.2178 -0.1798
14059W        W56971  18.940  18.169   1.333  0.1659  0.1721 -0.1364
14060W        W56972  18.830  18.661   0.918  0.1258 -0.3341 -0.2825
14061W        W56973  19.982  21.201   0.140 -0.0372 -0.3179  0.2736
14062W        W56974  18.872  18.774   1.989 -0.0643  0.3752 -0.0044
14063W        W56975  21.628  17.697   2.085 -0.1841 -0.2003 -0.0816
14064W        W56976  19.437  20.264  31.566 -0.0424  0.1418  0.2648
14065W        W56977  17.979  17.240  30.485  0.0973  0.1623 -0.1851
14066W        W56978  17.676  20.707   2.525 -0.0108  0.0217 -0.1476
14067W        W56979  18.967  19.701   2.346  0.0813  0.3364  0.0400
14068W        W56980  20.250  18.576   0.835 -0.0324 -0.0665 -0.0307
14069W        W56981  19.583  18.637   0.021  0.3938  0.0605  0.0589
14070W        W56982  19.500  21.640   0.806 -0.0152 -0.0115 -0.0787
14071W        W56983  19.006  20.330   2.099 -0.3238 -0.1376 -0.1971
14072W        W56984  20.727  18.328   3.875 -0.1095 -0.1415 -0.0066
14073W        W56985  17.778  20.648   1.649 -0.2858 -0.0742  0.0461
14074W        W56986  17.104  21.612  31.962 -0.0984  0.0847  0.1366
14075W        W56987  19.121  19.827  30.369  0.2746  0.1024  0.3148
14076W        W56988  21.106  20.147  31.648  0.2951  0.0580  0.1698
14077W        W56989  22.306  21.492   3.074  0.0470  0.2409 -0.1559
14078W        W56990  18.701  22.519   3.516 -0.2853  0.0734 -0.0070
14079W        W56991  18.631  20.398  29.968 -0.4501  0.0768  0.1780
14080W        W56992  20.456  21.048   4.438 -0.1023 -0.1499  0.3238
14081W        W56993  19.019  20.809   3.339 -0.2108 -0.0957  0.1158
14082W        W56994  19.790  18.858   1.017  0.2837 -0.1425 -0.0447
14083W        W56995  19.024  19.029   0.603 -0.2646  0.0448  0.0959
14084W        W56996  18.215  19.560  30.542  0.0323 -0.0509  0.2597
14085W        W56997  18.353  20.783   1.015 -0.0591 -0.1659 -0.1121
14086W        W56998  20.471  20.573   3.612  0.2788 -0.1375 -0.0968
14087W        W56999  17.977  20.502   2.217 -0.3435  0.0609 -0.0649
14088W        W57000  22.712  17.993   3.093 -0.3340 -0.2733  0.0379
14089W        W57001  19.839  21.013  31.590  0.0133 -0.0589  0.0734
14090W        W57002  21.362  20.400  31.282 -0.0874 -0.0466  0.0497
14091W        W57003  19.169  17.321  31.167 -0.6687 -0.1528 -0.2656
14092W        W57004  21.812  19.579   0.094 -0.1083  0.1348 -0.2265
14093W        W57005  19.214  17.657   0.889 -0.0780  0.0263 -0.0669
14094W        W57006  19.094  19.532  31.371  0.2281  0.2137  0.0611
14095W        W57007  18.058  19.087   0.450  0.0148  0.1114  0.1642
14096W        W57008  22.316  19.850   3.579 -0.0005  0.2144 -0.1986
14097W        W57009  19.174  19.701  31.930 -0.2364 -0.1194 -0.0849
14098W        W57010  19.810  19.289   1.955  0.0759  0.2184 -0.1813
14099W        W57011  18.168  20.771   2.578  0.1466  0.1728  0.2716
14100W        W57012  18.886  20.266   1.191  0.1385  0.1580  0.3517
14101W        W57013  20.631  20.941   0.124 -0.0635  0.0343  0.0142
14102W        W57014  20.893  20.552  31.467  0.2362  0.1138 -0.1469
14103W        W57015  19.844  21.310  30.841 -0.2603 -0.0464  0.1613
14104W        W57016  20.244  19.582  30.258 -0.1915  0.3263 -0.1320
14105W        W57017  17.933  21.009   3.697 -0.2204  0.1804  0.2077
14106W        W57018  19.661  20.205   3.759  0.0011 -0.0942 -0.0948
14107W        W57019  18.508  17.892  29.500  0.1017  0.0148 -0.0923
14108W        W57020  21.194  19.630   2.239  0.0792 -0.0064 -0.1629
14109W        W57021  17.972  20.797   0.730  0.1068 -0.2078  0.2371
14110W        W57022  22.066  16.206   0.867  0.0900 -0.1231 -0.0448
14111W        W57023  18.417  20.700   0.454 -0.1401  0.1880 -0.1275
14112W        W57024  21.304  19.808   2.660  0.3590 -0.0629  0.4072
14113W        W57025  20.614  19.263  31.461  0.3723 -0.2757  0.3323
14114W        W57026  20.700  18.405   0.778  0.3810 -0.3029 -0.4602
14115W        W57027  20.713  17.476   0.883 -0.3632  0.0907 -0.1960
14116W        W57028  17.905  18.161  31.434  0.3070  0.0168 -0.3462
14117W        W57029  20.039  20.408  31.249 -0.2979 -0.0836 -0.1546
14118W        W57030  21.583  20.631   2.514 -0.0725  0.3110  0.0293
14119W        W57031  19.920  18.670   0.486 -0.3354 -0.0419 -0.2103
14120W        W57032  18.449  22.233   2.470 -0.0197  0.0523 -0.1341
14121W        W57033  19.736  19.066   2.480 -0.1894  0.3703  0.3217
14122W        W57034  20.073  20.553   2.534  0.0220 -0.0990 -0.1625
14123W        W57035  18.329  20.715  29.638 -0.0211  0.1424 -0.1822
14124W        W57036  17.469  21.035   0.442  0.1080  0.1639 -0.0150
14125W        W57037  18.370  20.240   0.194  0.0079  0.0528 -0.0762
14126W        W57038  20.072  18.636   2.811  0.0724 -0.3933  0.2072
14127W        W57039  19.884  20.053   1.131  0.0287  0.2703 -0.1900
14128W        W57040  21.155  18.192  30.707  0.1110  0.0774 -0.1341
14129W        W57041  18.772  18.123   3.529 -0.1935  0.2046 -0.1740
14130W        W57042  20.954  17.990   1.549 -0.5056 -0.3626  0.1816
14131W        W57043  17.881  21.033  31.649  0.0244 -0.3142 -0.2028
14132W        W57044  21.539  21.983   0.126 -0.1459 -0.0015  0.2181
14133W        W57045  19.724  17.892   0.033 -0.1323 -0.2104  0.2057
14134W        W57046  19.402  20.865  29.665 -0.1148 -0.0755  0.1574
14135W        W57047  19.069  19.113   1.630  0.3487 -0.0700  0.2007
14136W        W57048  18.307  18.033   1.139 -0.0788 -0.0090  0.1942
14137W        W57049  18.946  20.346   3.185  0.0153 -0.4418  0.3035
14138W        W57050  19.327  19.157   2.950 -0.1789  0.0160 -0.0195
14139W        W57051  20.461  18.885   1.835  0.0685  0.2383  0.3776
14140W        W57052  15.955  17.774  30.397 -0.2287  0.0418 -0.1998
14141W        W57053  20.520  19.459   1.243 -0.1547  0.0684 -0.5419
14142W        W57054  20.186  19.880   1.920 -0.2539  0.4355 -0.1309
14143W        W57055  17.681  19.647  31.585  0.1117 -0.1523 -0.0587
14144W        W57056  20.261  16.931   3.358  0.1304  0.2488  0.1096
14145W        W57057  19.170  21.124   1.650 -0.3217 -0.3413 -0.1644
14146W        W57058  21.473  22.421   1.905  0.1035  0.1630  0.0214
14147W        W57059  20.676  20.846   1.269 -0.0132 -0.5375 -0.0761
14148W        W57060  19.112  19.222   3.708 -0.1166 -0.0415  0.3386
14149W        W57061  18.417  17.927  30.556 -0.0892  0.1914  0.0562
14150W        W57062  19.222  21.924   1.186  0.5069 -0.2708 -0.0536
14151W        W57063  19.727  20.063   0.574 -0.1215 -0.2021  0.1255
14152W        W57064  18.979  18.296  31.327  0.2834  0.1644  0.0911
14153W        W57065  20.696  21.984   2.192  0.0503 -0.0539 -0.3389
14154W        W57066  19.280  20.105   0.288 -0.0879 -0.1312  0.0111
14155W        W57067  17.404  20.776   2.082 -0.0307 -0.2385 -0.0880
14156W        W57068  20.600  17.935   2.404 -0.1911  0.1010  0.2067
14157W        W57069  22.034  18.905   0.869  0.0780  0.0480 -0.0598
14158W        W57070  20.001  19.612   0.974  0.0815 -0.1360  0.1028
14159W        W57071  18.704  19.528  30.585 -0.1096 -0.0218 -0.0962
14160W        W57072  19.806  20.090   2.614  0.0949  0.1904  0.2092
14161W        W57073  17.827  21.018  29.257  0.1565 -0.0848 -0.4216
14162W        W57074  17.588  20.237   2.143 -0.3844  0.0733 -0.1783
14163W        W57075  19.098  19.031   2.484  0.0996 -0.1676 -0.3732
14164W        W57076  21.126  18.509   1.011  0.3494 -0.2881  0.3509
14165W        W57077  18.841  20.687   3.988 -0.1097  0.3229  0.0186
14166W        W57078  19.871  18.109   4.195  0.0499  0.0856  0.1559
14167W        W57079  16.904  18.683  31.069 -0.0593 -0.2757  0.1021
14168W        W57080  18.732  20.818   1.936 -0.0729  0.1357 -0.1548
14169W        W57081  20.332  19.031   0.410  0.3835 -0.0219 -0.0936
14170W        W57082  20.457  18.875  29.447 -0.0981  0.1452 -0.0555
14171W        W57083  20.392  20.820   2.212  0.3395  0.1827  0.0567
14172W        W57084  20.177  20.628   0.089  0.2673  0.0507  0.1227
14173W        W57085  20.521  19.675  31.145  0.2118  0.0639  0.1071
14174W        W57086  20.874  19.079  31.047 -0.2010 -0.1419  0.1810
14175W        W57087  17.327  21.101   3.396 -0.0922 -0.1481 -0.1460
14176W        W57088  18.329  19.845   0.611 -0.1151  0.0549 -0.0566
14177W        W57089  19.150  18.514   0.417  0.0081  0.1247  0.1195
14178W        W57090  21.072  17.825  31.455 -0.1694  0.0205 -0.0920
14179W        W57091  21.081  20.789  31.901  0.0894 -0.3352  0.0254
14180W        W57092  18.317  21.176   1.235  0.1454  0.1816  0.0048
14181W        W57093  20.370  19.750   3.194  0.0697  0.2300 -0.0774
14182W        W57094  20.267  21.806  31.864 -0.1346 -0.0943 -0.0566
14183W        W57095  20.805  18.917   3.620  0.2730 -0.4053 -0.0299
14184W        W57096  19.874  19.077   0.083 -0.0032  0.3141 -0.1432
14185W        W57097  19.608  18.223   0.382  0.0193  0.2390  0.0752
14186W        W57098  17.417  20.932  31.272  0.1704  0.0724  0.0724
14187W        W57099  20.285  18.426   1.870  0.0755  0.0045 -0.3927
14188W        W57100  20.005  18.096   2.824 -0.2037  0.2425  0.0466
14189W        W57101  20.243  18.182   3.772  0.1626  0.2893 -0.3357
14190W        W57102  21.343  18.276   2.245 -0.0105 -0.3843 -0.2066
14191W        W57103  20.134  19.223  31.646 -0.0552  0.0677 -0.1249
14192W        W57104  19.155  20.182   1.687  0.1374 -0.0270 -0.1523
14193W        W57105  18.115  18.285  30.541 -0.0795 -0.0592  0.0837
14194W        W57106  19.998  18.405   2.305 -0.0004  0.1435 -0.2232
14195W        W57107  17.419  21.168   2.382 -0.0280 -0.0903 -0.1995
14196W        W57108  18.461  21.628   0.913  0.0291  0.2506  0.0274
14197W        W57109  20.920  20.517   3.557  0.0850 -0.0749  0.0614
14198W        W57110  19.669  20.059  31.985  0.1385  0.0993 -0.1769
14199W        W57111  20.960  17.354   2.259  0.1671  0.1207  0.0071
14200W        W57112  19.019  19.093  31.567  0.0881 -0.0572  0.1585
14201W        W57113  19.562  19.797  31.578  0.1050  0.0961  0.3026
14202W        W57114  18.669  19.305  29.864 -0.2861 -0.0372 -0.2484
14203W        W57115  20.108  17.683   1.819  0.0424  0.4433 -0.1557
14204W        W57116  19.678  19.775   1.925  0.1118  0.0224 -0.1102
14205W        W57117  19.760  20.300  30.421 -0.0527 -0.1592 -0.0265
14206W        W57118  20.502  18.817   1.238  0.1796  0.0537 -0.0840
14207W        W57119  19.682  18.799  31.343 -0.0015  0.1509 -0.1402
14208W        W57120  20.541  17.582   1.391  0.1837 -0.3873  0.1336
14209W        W57121  19.138  20.899  31.729  0.0381 -0.1622  0.0907
14210W        W57122  18.273  18.889  31.204  0.0319  0.0711 -0.2162
14211W        W57123  18.420  19.396   0.281 -0.0830 -0.3199 -0.0879
14212W        W57124  21.020  19.562  31.346  0.0439 -0.0908 -0.0413
14213W        W57125  19.228  20.563   0.122  0.1664 -0.2748  0.2858
14214W        W57126  18.247  19.288   2.763  0.0245 -0.0490  0.3451
14215W        W57127  19.420  19.044   2.020  0.2013 -0.0860 -0.1938
14216W        W57128  18.517  19.534   0.987 -0.1073  0.2302  0.0307
14217W        W57129  21.329  18.822   2.156  0.2656 -0.2093 -0.0275
14218W        W57130  20.193  20.117   0.023 -0.1994  0.1628  0.1911
14219W        W57131  20.448  20.342   2.003  0.1554 -0.1126 -0.0367
14220W        W57132  17.924  20.376   2.769 -0.1630  0.0329  0.0647
14221W        W57133  17.737  18.311  30.212 -0.1703 -0.0795  0.2011
14222W        W57134  20.747  18.514   1.546  0.1446 -0.2361 -0.0593
14223W        W57135  18.888  18.692  31.048  0.0523  0.1919  0.4234
14224W        W57136  17.915  21.798   0.224 -0.1304 -0.2883  0.1161
14225W        W57137  19.919  20.726   1.980 -0.2620  0.1467 -0.0236
14226W        W57138  18.413  18.643   1.209  0.2877  0.0300 -0.0208
14227W        W57139  18.993  20.018  31.390  0.1172 -0.0847  0.0302
14228W        W57140  18.686  20.326   3.634  0.2525 -0.1865 -0.1775
14229W        W57141  22.359  19.391   2.332  0.1935  0.1220  0.1349
14230W        W57142  18.851  19.907   2.936 -0.0815 -0.1624  0.0143
14231W        W57143  18.574  17.153   0.054  0.3711 -0.4290 -0.0696
14232W        W57144  18.947  19.898   0.786 -0.1998 -0.4103  0.1053
14233W        W57145  20.534  19.671   2.330 -0.0203 -0.2082 -0.0752
14234W        W57146  18.569  19.381   1.688 -0.2089 -0.1924  0.0624
14235W        W57147  18.775  21.389   2.498  0.5613 -0.0095 -0.2101
14236W        W57148  19.549  19.522   2.344 -0.0821  0.0122  0.0776
14237W        W57149  20.400  21.061   0.558  0.0772  0.1963  0.1464
14238W        W57150  19.832  20.237   2.137 -0.2062 -0.1681 -0.2087
14239W        W57151  20.116  18.915  31.229 -0.2106  0.2755  0.1210
14240W        W57152  16.343  20.376   2.654 -0.0212 -0.3484 -0.1635
14241W        W57153  18.489  18.900  31.905 -0.0804 -0.1498  0.0412
14242W        W57154  18.256  17.857   1.646 -0.0484 -0.0346 -0.1064
14243W        W57155  17.538  20.309   0.693 -0.1676  0.0085  0.0328
14244W        W57156  18.539  19.283  31.455 -0.1472 -0.1212 -0.2183
14245W        W57157  18.187  21.404   2.077  0.2135 -0.2222 -0.0752
14246W        W57158  20.966  18.821  31.501 -0.2153  0.0885 -0.1131
14247W        W57159  19.971  19.937  31.301 -0.0560 -0.0000  0.1601
14248W        W57160  21.245  18.100   0.270  0.1072 -0.0961  0.0766
14249W        W57161  20.760  18.161   2.016 -0.4516 -0.2387  0.1035
14250W        W57162  20.316  19.708  31.636 -0.2073  0.2775 -0.0210
14251W        W57163  21.369  17.734   1.622  0.0462 -0.0293 -0.0373
14252W        W57164  19.060  17.440   1.893 -0.1056  0.2595 -0.1080
14253W        W57165  20.372  20.692  31.551 -0.1708  0.1540 -0.0176
14254W        W57166  18.756  19.889   3.392  0.1562 -0.1211 -0.2146
14255W        W57167  21.329  21.452   3.664  0.1269  0.0695 -0.4002
14256W        W57168  17.589  20.306   4.033 -0.0844  0.0483  0.0198
14257W        W57169  19.463  18.032   1.100 -0.1735  0.1722 -0.2415
14258W        W57170  18.960  18.962  30.569  0.0315 -0.1212 -0.1651
14259W        W57171  18.589  20.347   2.814 -0.0677  0.3445  0.1077
14260W        W57172  20.758  20.276   1.087 -0.0409  0.0529  0.0786
14261W        W57173  18.499  19.862  31.857  0.1648  0.0190  0.0430
14262W        W57174  21.657  19.226   1.207 -0.1887  0.2413  0.0950
14263W        W57175  18.535  20.456   2.226  0.2292 -0.2355 -0.0753
14264W        W57176  20.763  19.170   1.600  0.0865 -0.1981  0.1064
14265W        W57177  20.261  20.122  30.423 -0.1953 -0.2795  0.0613
14266W        W57178  18.779  19.858   0.285  0.3390  0.0443  0.2906
14267W        W57179  18.037  18.395   2.780  0.3773 -0.2337 -0.2941
14268W        W57180  19.917  19.243   0.573  0.1815  0.0133  0.0517
14269W        W57181  20.677  17.337  31.103 -0.2840  0.0372  0.0415
14270W        W57182  20.578  18.756   2.770  0.1191 -0.3992 -0.0724
14271W        W57183  20.865  18.686   2.078  0.0368 -0.1482 -0.3920
14272W        W57184  19.865  18.190   1.652  0.2811  0.3259 -0.0108
14273W        W57185  19.645  19.105   3.668  0.1623  0.4143  0.2288
14274W        W57186  20.152  23.361   4.374 -0.0914  0.0079 -0.0697
14275W        W57187  21.404  19.106  31.300 -0.0029 -0.1362  0.0548
14276W        W57188  20.386  19.425   1.857  0.2274 -0.0445  0.2647
14277W        W57189  19.605  18.302  31.629  0.1400 -0.4779  0.1490
14278W        W57190  18.795  19.468   0.615  0.1389 -0.1032 -0.0617
14279W        W57191  19.489  18.987   0.478  0.0822  0.0810  0.2270
14280W        W57192  20.976  19.396   3.535  0.2129  0.3664 -0.1783
14281W        W57193  20.652  18.254  30.942  0.1008  0.1083 -0.0392
14282W        W57194  20.640  17.735   2.907  0.1421  0.2747 -0.1043
14283W        W57195  21.194  19.975  30.516 -0.1600  0.3160 -0.3236
14284W        W57196  20.799  19.828   0.923  0.1072  0.1150 -0.1280
14285W        W57197  20.506  20.035   0.440  0.1132  0.5426  0.4002
14286W        W57198  18.320  19.194   1.278  0.0423  0.2577 -0.2436
14287W        W57199  17.720  22.837   3.998 -0.1106 -0.0366  0.0630
14288W        W57200  18.479  18.229  31.356  0.3316 -0.0956 -0.1650
14289W        W57201  19.301  18.935  31.074  0.0261  0.1364 -0.3633
14290W        W57202  20.455  19.892   1.464 -0.1324 -0.5144 -0.2984
14291W        W57203  20.136  18.911   2.203  0.2317 -0.2670  0.1443
14292W        W57204  20.843  18.257  31.396  0.4198  0.0867 -0.1597
14293W        W57205  21.221  18.349   1.778  0.0330 -0.0104 -0.0229
14294W        W57206  19.509  19.166  31.740 -0.1243  0.1137  0.2751
14295W        W57207  19.216  17.919   0.414 -0.1999  0.1234  0.3696
14296W        W57208  18.722  21.399   1.997  0.0834  0.1583  0.0151
14297W        W57209  17.068  19.980   1.475 -0.1962 -0.1678 -0.0804
14298W        W57210  18.783  20.324   0.457  0.1784  0.0602  0.1029
14299W        W57211  18.748  17.788   0.852 -0.1317  0.1091 -0.1291
14300W        W57212  20.232  19.108   0.924 -0.0586 -0.0903 -0.0049
14301W        W57213  20.566  19.119   2.291  0.1039  0.0067 -0.4805
14302W        W57214  21.790  18.587   2.056  0.1434 -0.1298  0.2212
14303W        W57215  20.377  20.109   3.508 -0.0900 -0.0839  0.1395
14304W        W57216  19.354  19.997   2.240  0.2352 -0.0838  0.2078
14305W        W57217  19.386  20.326   1.231  0.2761 -0.1525 -0.2494
14306W        W57218  20.727  19.901  31.909 -0.1485  0.1934 -0.1546
14307W        W57219  19.678  19.617  30.178  0.2445  0.2287 -0.3707
14308W        W57220  20.060  19.498   2.325  0.0076  0.3633 -0.0278
14309W        W57221  20.647  20.418   2.573  0.5099 -0.0306 -0.0822
14310W        W57222  19.157  19.428   0.957  0.3259 -0.1959  0.1640
14311W        W57223  19.410  18.416  31.124 -0.2439  0.1287 -0.2227
14312W        W57224  19.607  20.523  29.980  0.1380  0.2481  0.1156
14313W        W57225  16.927  21.846   2.957 -0.0022  0.0139 -0.1079
14314W        W57226  19.344  18.744   3.752  0.2808 -0.0594 -0.0201
14315W        W57227  18.664  21.936  31.120  0.2299 -0.1088  0.0704
14316W        W57228  19.472  20.022  31.150 -0.0465  0.1102 -0.0757
14317W        W57229  20.611  20.602   0.725 -0.1761  0.0712 -0.2682
14318W        W57230  19.452  19.813   1.358  0.1739 -0.0100 -0.0521
14319W        W57231  19.980  18.695  31.718 -0.1319 -0.0007  0.3003
14320W        W57232  19.107  21.278   0.793  0.0751 -0.1526 -0.1802
14321W        W57233  18.572  20.048  30.746  0.0574  0.4196 -0.3452
14322W        W57234  19.564  22.062   1.529 -0.1983  0.2439  0.0367
14323W        W57235  18.495  21.094   0.100 -0.0540  0.3121 -0.0073
14324W        W57236  20.240  19.187   2.701  0.1683  0.1772 -0.0543
14325W        W57237  19.629  17.082  31.406 -0.0433  0.0111 -0.1586
14326W        W57238  20.172  19.145   1.459 -0.0321 -0.3687 -0.2693
14327W        W57239  21.630  17.831   0.048  0.0852 -0.1644 -0.0135
14328W        W57240  21.049  21.318   2.726  0.0408 -0.2225 -0.3417
14329W        W57241  18.204  20.624  31.409 -0.0452 -0.2520  0.3574
14330W        W57242  19.311  16.855   0.652  0.0051 -0.2108  0.3084
14331W        W57243  18.789  20.732   2.548  0.4377 -0.2102  0.1881
14332W        W57244  22.076  18.193   2.197  0.1936 -0.1361 -0.2463
14333W        W57245  17.357  22.164   3.204  0.2519  0.0756  0.0690
14334W        W57246  21.998  22.419  31.936 -0.1034 -0.1899  0.0333
14335W        W57247  18.100  18.695  31.644  0.0321  0.0117 -0.0451
14336W        W57248  19.040  21.186   0.195 -0.1105 -0.0332 -0.1383
14337W        W57249  22.409  17.759   2.229  0.3272 -0.2271  0.2981
14338W        W57250  19.466  19.215  29.160  0.1122 -0.1839  0.2087
14339W        W57251  18.950  19.264   0.165 -0.0977 -0.0482  0.0310
14340W        W57252  19.497  20.490   2.442 -0.1213  0.1649 -0.1628
14341W        W57253  19.369  20.684   1.908  0.1813  0.1654 -0.0149
14342W        W57254  20.288  20.098   2.431  0.0535  0.1632  0.1921
14343W        W57255  18.483  19.098   0.780 -0.0099  0.0776  0.1054
14344W        W57256  21.490  18.601   1.351  0.1294 -0.0923  0.0867
14345W        W57257  19.275  19.619   2.764 -0.1775 -0.1071 -0.2102
14346W        W57258  21.735  16.884   1.629  0.0340 -0.4607  0.0530
14347W        W57259  18.149  18.668   0.746  0.0133 -0.0750 -0.0020
14348W        W57260  20.462  19.453   0.057 -0.1782  0.1431  0.1162
14349W        W57261  19.596  20.960   3.003 -0.1793  0.1637 -0.0704
14350W        W57262  18.573  19.846   1.362  0.2978  0.0494 -0.1012
14351W        W57263  20.468  19.222  30.810  0.2024 -0.1407 -0.1457
14352W        W57264  20.758  19.882   2.805  0.0632  0.0206 -0.1657
14353W        W57265  19.970  19.067  29.307  0.3728 -0.4097  0.1555
14354W        W57266  20.600  21.525   2.397 -0.0840  0.0950  0.3553
14355W        W57267  18.365  20.327   1.221  0.1386 -0.2341  0.1482
14356W        W57268  21.292  18.806  30.013  0.1294 -0.1701  0.2048
14357W        W57269  18.936  20.685   0.944  0.2701  0.0560 -0.0173
14358W        W57270  17.909  20.017   2.467 -0.0382 -0.2127  0.0271
14359W        W57271  21.036  22.325   3.713  0.0074  0.0631  0.1137
14360W        W57272  18.154  18.055  30.996 -0.1021  0.2821  0.4260
14361W        W57273  23.150  18.520  30.960  0.1106 -0.1414  0.2663
14362W        W57274  19.970  19.598   1.534  0.2952  0.2659 -0.3045
14363W        W57275  20.894  20.803  29.954  0.1839  0.2222 -0.1454
14364W        W57276  21.114  19.395   0.910  0.0520  0.3979 -0.4917
14365W        W57277  20.819  19.408   0.463  0.0629  0.3998 -0.2526
14366W        W57278  18.059  19.537   2.402 -0.2110  0.1202 -0.1233
14367W        W57279  21.392  20.173   2.249 -0.1970  0.1066 -0.2184
14368W        W57280  21.751  21.075   0.440  0.2269 -0.1811 -0.0422
14369W        W57281  19.826  18.665   1.874 -0.1539  0.1099 -0.0749
14370W        W57282  19.693  19.036   1.487  0.2403  0.0515 -0.0987
14371W        W57283  19.438  19.823   0.866 -0.0139  0.3462  0.1363
14372W        W57284  22.479  18.793   1.759 -0.0891  0.0523 -0.0125
14373W        W57285  19.554  17.778   3.375  0.1767 -0.0912  0.0493
14374W        W57286  21.179  22.273  29.709  0.3549 -0.1616 -0.0718
14375W        W57287  20.926  18.375   2.571  0.0229  0.1477 -0.0381
14376W        W57288  20.364  19.988   0.926  0.2756  0.2632  0.2334
14377W        W57289  18.967  20.220   2.544 -0.1582 -0.0570  0.0045
14378W        W57290  18.074  19.556  29.653  0.3724 -0.0628 -0.0170
14379W        W57291  18.490  19.543   2.183 -0.1193  0.0666  0.3540
14380W        W57292  18.037  19.804   0.134 -0.1000 -0.3442  0.0895
14381W        W57293  20.310  20.108  30.966 -0.1140 -0.2045 -0.1064
14382W        W57294  20.213  20.921   1.030 -0.2487 -0.1659  0.0640
14383W        W57295  18.622  18.713  31.477 -0.3204 -0.2114  0.1350
14384W        W57296  21.729  19.657   0.939 -0.0484  0.2613 -0.3894
14385W        W57297  18.911  20.818   0.463  0.3871 -0.1779  0.1385
14386W        W57298  21.224  18.240  31.715  0.2346 -0.1032 -0.0080
14387W        W57299  21.409  18.663  31.507  0.0054 -0.1350  0.0153
14388W        W57300  19.328  20.122   2.927  0.1649 -0.0627  0.0213
14389W        W57301  17.597  19.945   0.355 -0.2127  0.4008 -0.0337
14390W        W57302  17.895  18.496  30.994  0.0953  0.1133  0.0793
14391W        W57303  19.628  19.362   1.090 -0.1828 -0.1661  0.0270
14392W        W57304  22.215  17.446   3.779 -0.4759 -0.0148 -0.2177
14393W        W57305  19.752  18.610   4.008  0.0760 -0.0584  0.0862
14394W        W57306  18.140  20.271   1.665 -0.1831  0.1822  0.0892
14395W        W57307  18.296  18.094  31.800 -0.0303 -0.0074 -0.1724
14396W        W57308  20.130  20.368   0.562 -0.0704  0.0152 -0.1930
14397W        W57309  18.493  18.174   0.695  0.2631 -0.0130 -0.3253
14398W        W57310  17.695  19.905   0.936 -0.0683  0.1589  0.0738
14399W        W57311  19.359  19.566   0.437  0.0200 -0.0875  0.1161
14400W        W57312  20.906  20.102  30.997 -0.0365 -0.0759 -0.1130
14401W        W57313  20.054  17.803   3.285  0.3979 -0.3648 -0.3371
14402W        W57314  22.208  21.024   3.152 -0.1005  0.3343 -0.3697
14403W        W57315  18.616  19.702  31.139  0.2892  0.3751  0.0083
14404W        W57316  20.335  18.744   3.951 -0.0540  0.0194  0.0143
14405W        W57317  19.004  19.637   3.976  0.0041  0.0791 -0.2093
14406W        W57318  16.852  17.896  30.618 -0.0061 -0.0340  0.0324
14407W        W57319  20.998  19.219   2.095 -0.2282  0.3029 -0.1525
14408W        W57320  19.615  20.281   1.695 -0.3403 -0.1943 -0.0836
14409W        W57321  21.481  21.614  31.556  0.1897 -0.1886  0.0043
14410W        W57322  21.005  20.276   1.853  0.0791 -0.0997 -0.3718
14411W        W57323  20.120  20.935   3.395 -0.3606 -0.0035  0.1081
14412W        W57324  17.849  18.109   1.341 -0.1582  0.1374  0.1447
14413W        W57325  20.567  20.133  31.478  0.1205  0.1205  0.2819
14414W        W57326  20.081  21.253   3.756 -0.1993  0.2816 -0.1164
14415W        W57327  20.240  21.023  30.724 -0.2293  0.1270  0.1800
14416W        W57328  20.870  17.276   1.726 -0.0231 -0.3325 -0.2766
14417W        W57329  19.657  19.526   0.060  0.0177  0.0604 -0.2523
14418W        W57330  17.998  16.903   3.973 -0.3203  0.1927  0.3699
14419W        W57331  19.791  19.562   2.813 -0.2292 -0.0227  0.0782
14420W        W57332  22.172  19.435   0.994 -0.2291  0.1526  0.2455
14421W        W57333  19.258  18.907   1.179  0.2285  0.1201 -0.0717
14422W        W57334  20.136  17.701  31.273 -0.0817  0.0580 -0.0084
14423W        W57335  19.412  20.878   0.557  0.0890  0.0529 -0.0812
14424W        W57336  18.133  19.857   1.155  0.0982  0.2275  0.0732
14425W        W57337  22.068  19.182   0.083 -0.0498 -0.0058 -0.0758
14426W        W57338  18.844  19.860   1.843  0.1092 -0.3209  0.0589
14427W        W57339  20.204  20.418   1.116 -0.3379 -0.0664  0.0994
14428W        W57340  20.809  19.710   1.894 -0.1014  0.0408  0.0986
14429W        W57341  20.055  18.717  30.245 -0.0716 -0.1295 -0.2139
14430W        W57342  21.321  19.181   0.384  0.1750  0.0645 -0.0545
14431W        W57343  20.433  21.369   1.057 -0.0672 -0.0603 -0.1520
14432W        W57344  21.385  22.122   2.861  0.2000 -0.3292  0.0976
14433W        W57345  19.076  20.647   1.507 -0.3166 -0.1003 -0.0884
14434W        W57346  21.635  20.782   1.582  0.1841  0.0416  0.0966
14435W        W57347  19.415  18.638   2.281  0.1104  0.2998  0.0557
14436W        W57348  19.062  18.803   0.017  0.0342  0.3139 -0.0711
14437W        W57349  19.124  18.885  29.969  0.2267 -0.1279 -0.1431
14438W        W57350  20.592  17.641   1.971  0.0012 -0.0526  0.2550
14439W        W57351  17.939  18.750   1.892 -0.1743  0.1288 -0.1876
14440W        W57352  19.291  18.670   1.743 -0.1657  0.2819  0.1983
14441W        W57353  18.807  21.361   1.219 -0.0494  0.0570  0.0594
14442W        W57354  19.438  18.652   2.895  0.2036  0.2646  0.0110
14443W        W57355  17.892  19.607   6.629 -0.2545 -0.3164  0.1300
14444W        W57356  19.706  17.691   3.952  0.1123  0.0436 -0.2234
14445W        W57357  21.969  18.989   3.466 -0.1385 -0.0209 -0.0141
14446W        W57358  21.813  18.485   5.967 -0.0920  0.1434  0.1358
14447W        W57359  17.658  17.692   5.166 -0.1405  0.0397 -0.0334
14448W        W57360  21.114  20.403   4.835  0.1329  0.2856  0.0335
14449W        W57361  18.823  18.335   4.755 -0.0863  0.1745 -0.3525
14450W        W57362  20.508  20.211   5.331 -0.3289  0.0494  0.2918
14451W        W57363  20.311  20.639   5.379 -0.3091 -0.0155 -0.0771
14452W        W57364  21.301  21.041   3.242  0.3193  0.0746 -0.0848
14453W        W57365  19.885  17.535   6.333  0.0132  0.0074  0.1970
14454W        W57366  21.345  21.019   6.223  0.1299  0.1473  0.1918
14455W        W57367  19.723  18.612   3.461  0.0784 -0.1347 -0.1638
14456W        W57368  17.972  18.082   5.489 -0.1354 -0.0960 -0.2524
14457W        W57369  21.355  19.404   4.465  0.0395  0.3888  0.0878
14458W        W57370  18.821  18.418   3.904  0.1607  0.1000  0.0059
14459W        W57371  17.488  18.843   5.601 -0.1548  0.0652  0.0763
14460W        W57372  20.114  18.063   4.684 -0.4514 -0.1808 -0.0213
14461W        W57373  19.810  21.175   5.778 -0.5624 -0.2387 -0.0754
14462W        W57374  19.755  17.864   7.176 -0.0553  0.5162 -0.2253
14463W        W57375  20.602  18.450   6.853 -0.1210 -0.0356  0.3365
14464W        W57376  19.475  20.427   3.347  0.2403 -0.0073  0.0222
14465W        W57377  18.193  18.975   3.877 -0.1310 -0.2882 -0.1683
14466W        W57378  18.118  18.991   5.058  0.0980 -0.0907 -0.1427
14467W        W57379  19.134  18.622   6.496 -0.0619  0.2630 -0.2618
14468W        W57380  20.593  18.834   5.053 -0.0297  0.1476  0.1851
14469W        W57381  20.310  19.575   5.714  0.0754  0.1256  0.0547
14470W        W57382  18.881  21.180   5.318  0.0113 -0.1504 -0.0442
14471W        W57383  19.802  21.616   6.693  0.0572  0.1533  0.1948
14472W        W57384  19.780  18.897   7.489  0.1466 -0.1986 -0.0584
14473W        W57385  17.466  20.641   6.277  0.0717  0.3366 -0.0841
14474W        W57386  17.973  21.592   5.443 -0.2166  0.1479 -0.2564
14475W        W57387  20.142  21.369   4.735  0.0723 -0.0110 -0.0134
14476W        W57388  21.876  20.791   3.524  0.1840  0.0746  0.2977
14477W        W57389  21.171  19.789   5.519 -0.2800  0.2338 -0.2747
14478W        W57390  19.027  22.434   7.643 -0.0240 -0.0911 -0.0248
14479W        W57391  18.227  21.428   3.746  0.2329 -0.0152  0.1867
14480W        W57392  20.889  20.762   7.108  0.0293  0.2188  0.1896
14481W        W57393  19.913  21.549   6.207  0.0478  0.0102  0.0604
14482W        W57394  18.794  19.757   5.223  0.0641  0.0640  0.2007
14483W        W57395  18.439  19.585   3.171  0.1002  0.0037 -0.1871
14484W        W57396  18.537  20.695   3.170  0.3271 -0.1842 -0.2820
14485W        W57397  18.358  19.287   4.710 -0.0942  0.0171  0.2662
14486W        W57398  19.651  20.718   6.816  0.1015  0.1550  0.3633
14487W        W57399  18.648  19.229   5.167  0.1201 -0.1338  0.1133
14488W        W57400  21.961  18.256   7.385  0.0860 -0.0839  0.2302
14489W        W57401  19.771  20.525   2.950  0.0241 -0.0310  0.0845
14490W        W57402  19.794  19.014   3.000 -0.0544 -0.0419 -0.0458
14491W        W57403  18.941  20.387   4.598  0.2110  0.3134  0.1074
14492W        W57404  20.483  18.236   2.832  0.0275  0.2568 -0.1219
14493W        W57405  20.155  15.770   3.505  0.0873 -0.0003 -0.2427
14494W        W57406  19.765  21.034   6.439 -0.0377 -0.1151 -0.0591
14495W        W57407  18.919  19.493   4.805  0.4847  0.0517  0.2854
14496W        W57408  20.681  21.634   6.500  0.1300 -0.0052 -0.1777
14497W        W57409  20.471  20.618   4.177  0.2368 -0.0664 -0.1945
14498W        W57410  20.430  19.281   4.880 -0.0018  0.0220 -0.0172
14499W        W57411  17.840  21.377   6.724  0.0308 -0.0286 -0.1080
14500W        W57412  18.938  19.851   4.474  0.2697 -0.0064  0.0926
14501W        W57413  21.507  20.340   4.492  0.1002  0.0653  0.0992
14502W        W57414  21.043  20.871   5.629 -0.3422 -0.2660  0.0361
14503W        W57415  18.628  20.925   4.522  0.1339 -0.0634  0.4613
14504W        W57416  18.429  20.574   4.171  0.3397  0.4122  0.2055
14505W        W57417  18.495  19.445   6.640  0.4245  0.0082  0.0151
14506W        W57418  18.790  18.938   6.332 -0.2375  0.2789  0.2231
14507W        W57419  20.452  17.497   3.309 -0.0049  0.0456  0.4674
14508W        W57420  21.538  20.811   7.860  0.1466  0.0529 -0.1930
14509W        W57421  17.283  20.482   5.766  0.0233 -0.0717 -0.1071
14510W        W57422  21.509  18.066   6.184 -0.2710 -0.0545 -0.2179
14511W        W57423  19.274  18.660   4.811  0.2041 -0.1438  0.0029
14512W        W57424  21.576  19.546   5.296 -0.1144 -0.0542  0.0848
14513W        W57425  21.161  20.310   4.124 -0.1642 -0.0405  0.0098
14514W        W57426  21.150  17.517   3.818  0.1572 -0.1561  0.1839
14515W        W57427  20.156  18.520   6.668  0.1087 -0.1867  0.1314
14516W        W57428  19.203  20.776   4.361 -0.0239  0.1592 -0.2275
14517W        W57429  19.982  20.440   3.459 -0.1029 -0.1157 -0.3007
14518W        W57430  21.722  20.920   7.266 -0.1929 -0.0231  0.0452
14519W        W57431  21.587  20.389   3.438 -0.2109  0.0981  0.1521
14520W        W57432  17.574  20.993   5.809 -0.4127 -0.2173  0.1081
14521W        W57433  21.078  18.652   7.635  0.2528  0.1949 -0.2628
14522W        W57434  20.150  20.173   5.718 -0.0985  0.0695  0.1381
14523W        W57435  20.022  20.845   4.386 -0.3192  0.2380 -0.0608
14524W        W57436  17.791  20.358   5.914 -0.0464  0.0190  0.0468
14525W        W57437  18.405  20.153   3.239 -0.0833 -0.1518 -0.0832
14526W        W57438  18.240  18.381   5.093  0.1322  0.3584 -0.1745
14527W        W57439  18.485  21.446   6.698  0.0335 -0.0232  0.1125
14528W        W57440  21.379  18.241   3.382 -0.3011 -0.2227 -0.0706
14529W        W57441  19.473  18.684   6.010 -0.1836 -0.1052  0.2493
14530W        W57442  21.833  17.218   5.108 -0.2147 -0.2651  0.0969
14531W        W57443  17.971  19.060   2.375  0.3275 -0.1320 -0.0743
14532W        W57444  20.775  22.147   4.766  0.1994 -0.1786 -0.1764
14533W        W57445  21.905  18.240   2.672  0.2063 -0.1075 -0.0645
14534W        W57446  21.077  21.682   2.351  0.0553  0.3403 -0.0665
14535W        W57447  19.175  19.170   5.121 -0.0047  0.0096 -0.0011
14536W        W57448  19.143  19.948   4.876 -0.4432  0.0661 -0.3457
14537W        W57449  17.572  19.177   6.045  0.0880 -0.0221  0.3221
14538W        W57450  19.230  18.186   5.171  0.0011  0.0306 -0.0668
14539W        W57451  20.953  18.822   6.941  0.2491 -0.4904 -0.0866
14540W        W57452  18.285  17.611   3.659 -0.0592 -0.1906 -0.0551
14541W        W57453  21.172  18.525   3.748  0.2715  0.0396 -0.2689
14542W        W57454  19.206  21.147   3.877  0.1199  0.0292 -0.2384
14543W        W57455  18.145  20.178   4.287  0.1169  0.1385 -0.1993
14544W        W57456  21.040  19.003   6.282 -0.5024  0.1591 -0.0373
14545W        W57457  20.585  21.644   5.541  0.2472 -0.3271 -0.0754
14546W        W57458  21.829  20.519   5.460 -0.0117 -0.1607  0.2152
14547W        W57459  19.703  20.483   4.262 -0.2209  0.4344  0.0060
14548W        W57460  18.562  17.966   5.034  0.0613 -0.2216  0.0962
14549W        W57461  17.653  18.366   3.942 -0.2838  0.2280  0.0344
14550W        W57462  18.265  21.925   5.036  0.1305  0.0447 -0.3435
14551W        W57463  19.617  19.432   6.304 -0.3045  0.2748  0.0603
14552W        W57464  20.168  19.118   3.674 -0.2557  0.0505 -0.0180
14553W        W57465  21.116  19.478   4.919 -0.1765  0.3081 -0.3035
14554W        W57466  21.234  20.161   3.217  0.1057 -0.2989  0.0177
14555W        W57467  19.037  20.473   5.749 -0.1594  0.0026  0.0133
14556W        W57468  21.407  18.178   6.858 -0.3099 -0.1567 -0.1399
14557W        W57469  21.756  19.445   6.309 -0.1864 -0.1588  0.1436
14558W        W57470  20.253  20.246   2.908 -0.0650  0.0746  0.0967
14559W        W57471  18.604  18.874   4.159  0.2377  0.1376 -0.3010
14560W        W57472  20.719  21.178   5.431 -0.4299  0.2588  0.2072
14561W        W57473  18.416  21.110   4.126 -0.0552  0.3512 -0.2429
14562W        W57474  17.364  19.342   5.664 -0.0036 -0.0794 -0.0063
14563W        W57475  19.325  20.430   5.011 -0.1234 -0.1363  0.1834
14564W        W57476  20.455  17.510   4.693 -0.0596  0.0614 -0.1136
14565W        W57477  18.511  19.984   6.428  0.0363 -0.4445  0.3656
14566W        W57478  19.883  19.865   5.971  0.3335 -0.1470  0.2164
14567W        W57479  18.764  18.980   2.923  0.1971 -0.6412 -0.2260
14568W        W57480  17.763  21.244   7.334  0.2618  0.0666  0.1836
14569W        W57481  20.331  17.181   3.843 -0.0456 -0.0614 -0.2897
14570W        W57482  21.020  18.017   3.677 -0.3884  0.5657 -0.3355
14571W        W57483  21.188  19.199   6.784  0.2408 -0.1491  0.1127
14572W        W57484  21.829  20.838   4.723  0.1780  0.0639  0.2762
14573W        W57485  19.971  19.754   3.557 -0.3688 -0.1067  0.0425
14574W        W57486  19.373  19.691   4.314  0.1890  0.0338  0.0128
14575W        W57487  18.166  21.528   7.114  0.0033 -0.0303  0.0426
14576W        W57488  19.663  20.920   3.485  0.1801  0.2111 -0.2179
14577W        W57489  18.470  20.538   6.464 -0.2757 -0.2642 -0.1952
14578W        W57490  20.084  19.363   3.222 -0.1836  0.1727 -0.0999
14579W        W57491  21.445  21.735   4.344  0.0280  0.1904 -0.2444
14580W        W57492  18.256  20.112   5.331  0.1950 -0.0975  0.0365
14581W        W57493  18.970  20.689   6.222  0.0549  0.1527 -0.0521
14582W        W57494  19.439  19.569   4.924 -0.1958 -0.1641 -0.3052
14583W        W57495  20.633  17.028   6.175  0.2949  0.3290  0.1174
14584W        W57496  19.562  19.487   3.212  0.1537  0.0970  0.0218
14585W        W57497  20.341  18.916   3.229  0.1253 -0.1610 -0.0249
14586W        W57498  17.706  22.201   3.802 -0.1737  0.0906 -0.2773
14587W        W57499  21.540  18.780   5.518  0.2250  0.0483  0.6618
14588W        W57500  21.502  17.492   4.778  0.2150  0.1627 -0.2469
14589W        W57501  20.744  18.052   5.377 -0.1369  0.1007 -0.3075
14590W        W57502  21.891  20.396   5.965  0.4447  0.2898  0.0633
14591W        W57503  20.989  18.517   3.175 -0.2641 -0.2056  0.1318
14592W        W57504  18.798  18.943   4.690  0.0297 -0.3503  0.2246
14593W        W57505  19.287  20.191   4.206  0.0390 -0.2161  0.1925
14594W        W57506  20.186  17.153   5.171 -0.1636  0.0012  0.1969
14595W        W57507  19.119  18.939   4.216 -0.0625  0.5077  0.0203
14596W        W57508  17.497  20.706   7.171 -0.0170 -0.0928 -0.1161
14597W        W57509  19.387  20.180   6.041  0.0469 -0.1325  0.0317
14598W        W57510  18.541  20.810   5.132 -0.0127  0.1428 -0.5302
14599W        W57511  20.069  18.475   5.682  0.1875  0.0585  0.0022
14600W        W57512  20.153  20.254   3.940 -0.1071 -0.2180  0.1227
14601W        W57513  20.352  21.662   3.926  0.1447  0.0760 -0.1048
14602W        W57514  19.806  19.951   3.160 -0.4367  0.1842 -0.2045
14603W        W57515  19.018  18.393   4.345 -0.1659  0.0265 -0.0174
14604W        W57516  20.031  20.557   6.544  0.0171 -0.0426 -0.1046
14605W        W57517  17.862  20.755   4.158 -0.0592  0.0725  0.0470
14606W        W57518  19.356  19.699   5.911 -0.1922 -0.2264 -0.1917
14607W        W57519  18.232  22.242   4.622 -0.0756 -0.0488  0.0035
14608W        W57520  21.195  17.897   5.178 -0.0702 -0.0971 -0.3485
14609W        W57521  18.896  20.977   5.857  0.1048 -0.0955  0.1044
14610W        W57522  18.723  21.658   3.973 -0.0306 -0.3292  0.0725
14611W        W57523  17.342  19.537   4.145 -0.1373  0.0751 -0.0285
14612W        W57524  20.194  16.925   5.616  0.1378  0.0802 -0.1104
14613W        W57525  20.258  19.419   4.402  0.0840  0.0107  0.1206
14614W        W57526  19.072  18.662   5.351  0.0192 -0.1249  0.2521
14615W        W57527  20.509  17.593   5.180  0.0768 -0.1980  0.0222
14616W        W57528  17.860  22.151   5.999 -0.0125  0.2705  0.2056
14617W        W57529  20.676  19.270   6.058 -0.3746 -0.0176  0.2202
14618W        W57530  20.543  19.166   3.991 -0.0449 -0.0287  0.2437
14619W        W57531  19.958  20.014   6.516  0.2531  0.0655 -0.4321
14620W        W57532  19.211  19.550   5.415  0.5128 -0.0664  0.0747
14621W        W57533  17.344  19.413   4.644 -0.1997  0.1760 -0.1179
14622W        W57534  21.958  19.872   5.753 -0.4036  0.1136  0.0756
14623W        W57535  19.814  19.450   4.511 -0.1733 -0.2708  0.0284
14624W        W57536  17.847  20.229   4.668  0.0407 -0.1633  0.0752
14625W        W57537  19.691  20.153   6.946 -0.0378  0.1565 -0.5475
14626W        W57538  18.176  19.409   4.090 -0.0156  0.3812  0.0596
14627W        W57539  19.013  20.059   5.504  0.0287  0.1065  0.1011
14628W        W57540  18.563  18.558   7.067 -0.0799 -0.1324  0.1237
14629W        W57541  21.249  19.415   6.286  0.0760 -0.2995  0.0664
14630W        W57542  20.154  18.694   5.226 -0.2548 -0.0782 -0.1200
14631W        W57543  19.323  18.262   3.927 -0.6320 -0.2177 -0.0972
14632W        W57544  19.261  18.099   5.641 -0.1435  0.1447  0.1508
14633W        W57545  20.579  18.561   5.526 -0.0027  0.2040 -0.1291
14634W        W57546  19.944  19.285   5.919 -0.0654  0.2284  0.0153
14635W        W57547  18.410  21.191   7.439  0.2315 -0.2117  0.4212
14636W        W57548  21.528  18.239   4.251 -0.0897 -0.1874 -0.0049
14637W        W57549  22.816  21.752   5.409  0.2404  0.1483  0.3356
14638W        W57550  20.959  19.764   5.976  0.2627  0.0107 -0.1567
14639W        W57551  18.429  20.366   4.655  0.2338  0.0772  0.0158
14640W        W57552  18.231  19.529   5.214  0.1953  0.1450  0.3686
14641W        W57553  20.450  19.640   3.794  0.1200 -0.1059  0.1236
14642W        W57554  20.577  17.960   4.763  0.0541  0.0607  0.0134
14643W        W57555  19.419  20.663   6.085 -0.0240 -0.2373  0.1420
14644W        W57556  18.411  20.779   3.690 -0.1299 -0.0243  0.0190
14645W        W57557  19.022  19.465   6.474 -0.1289 -0.1087 -0.1311
14646W        W57558  22.118  18.590   3.184 -0.0375  0.1017 -0.1384
14647W        W57559  19.637  20.978   4.095 -0.0960 -0.0277  0.0625
14648W        W57560  20.346  19.726   5.136 -0.1663  0.2396  0.2154
14649W        W57561  21.046  18.453   6.624 -0.1714 -0.0671 -0.0683
14650W        W57562  21.856  19.457   3.674  0.1873 -0.4478 -0.0906
14651W        W57563  20.919  17.382   7.307 -0.1431  0.2471 -0.1362
14652W        W57564  19.292  19.088   6.234  0.0503 -0.0694  0.1180
14653W        W57565  20.086  19.882   4.727  0.0612  0.1029  0.2649
14654W        W57566  17.578  17.767   5.709 -0.2149 -0.1440 -0.2184
14655W        W57567  19.182  22.203   7.222 -0.0654  0.2406  0.1921
14656W        W57568  19.416  18.082   6.795  0.2451 -0.0100 -0.2808
14657W        W57569  20.492  17.112   4.283 -0.0521 -0.0099 -0.0152
14658W        W57570  18.840  17.544   4.950 -0.2098  0.2740 -0.2892
14659W        W57571  18.468  19.714   5.634 -0.1933  0.0988  0.1324
14660W        W57572  21.344  20.221   6.792  0.1284  0.0947 -0.2160
14661W        W57573  21.421  20.815   3.715 -0.0339  0.0315 -0.2044
14662W        W57574  21.276  18.538   6.168 -0.1617  0.2439 -0.2478
14663W        W57575  18.385  19.034   5.559  0.0886 -0.0256 -0.1373
14664W        W57576  22.115  19.611   4.051 -0.3472  0.3030 -0.3262
14665W        W57577  20.847  19.827   3.318  0.0742  0.2482 -0.0511
14666W        W57578  18.133  18.921   4.491  0.1984 -0.1242  0.1597
14667W        W57579  19.145  17.349   6.608  0.2607  0.0323 -0.0786
14668W        W57580  19.545  18.744   5.265 -0.1859  0.0640 -0.1619
14669W        W57581  21.965  17.669   4.255 -0.0078  0.3192  0.2626
14670W        W57582  21.000  18.010   6.005 -0.0378 -0.3263  0.4822
14671W        W57583  20.761  19.132   5.565 -0.1171  0.1183  0.1849
14672W        W57584  19.282  17.965   7.362  0.1019  0.3136  0.1074
14673W        W57585  19.017  17.733   6.942 -0.2000  0.1061 -0.3322
14674W        W57586  22.194  20.762   6.215  0.2944 -0.3469  0.0798
14675W        W57587  21.062  18.831   2.684 -0.3081 -0.1783 -0.0324
14676W        W57588  21.071  18.794   5.254 -0.0954 -0.1555  0.0075
14677W        W57589  20.956  18.774   5.831  0.3589 -0.0428  0.3529
14678W        W57590  20.865  19.686   4.000  0.3279  0.2068 -0.2277
14679W        W57591  18.685  18.962   3.632  0.0116 -0.1139  0.1412
14680W        W57592  20.309  19.517   6.760  0.0118 -0.0087 -0.2094
14681W        W57593  20.010  19.063   4.202 -0.1171 -0.0398  0.2561
14682W        W57594  21.376  18.644   7.121 -0.0637  0.1687  0.0839
14683W        W57595  19.070  21.017   4.877 -0.0346 -0.0592  0.2171
14684W        W57596  19.462  19.986   5.222  0.1507  0.3750 -0.5053
14685W        W57597  22.734  18.097   4.526 -0.0639  0.3261  0.1169
14686W        W57598  18.656  19.493   3.635 -0.0186  0.2048  0.0908
14687W        W57599  17.529  21.616   7.053  0.1638 -0.0047  0.0722
14688W        W57600  18.692  19.417   2.643 -0.1726  0.3031 -0.0872
14689W        W57601  19.209  19.826   3.309 -0.1201  0.4104 -0.0449
14690W        W57602  19.790  19.974   4.177 -0.0822 -0.3306  0.0698
14691W        W57603  21.867  18.965   6.205 -0.1809  0.0691  0.0122
14692W        W57604  21.077  16.504   3.315 -0.0732 -0.3497  0.2128
14693W        W57605  21.732  18.376   6.457 -0.0227 -0.1506 -0.0563
14694W        W57606  18.426  22.179   3.286  0.1142 -0.0178  0.0595
14695W        W57607  21.049  17.102   5.568  0.2526 -0.0957 -0.0804
14696W        W57608  18.998  20.703   5.306 -0.2575 -0.0973  0.1043
14697W        W57609  17.860  19.780   5.569 -0.0993 -0.1095  0.0185
14698W        W57610  19.645  21.266   4.597  0.1733 -0.0520  0.0296
14699W        W57611  19.754  18.282   5.261  0.0029 -0.3751  0.4053
14700W        W57612  19.883  19.504   3.965  0.2346 -0.1063 -0.0512
14701W        W57613  19.695  19.484   5.463  0.1601  0.2191 -0.3006
14702W        W57614  22.288  19.562   5.358 -0.0171  0.2725  0.3093
14703W        W57615  19.941  19.954   5.297 -0.0691  0.1284  0.0424
14704W        W57616  18.587  17.896   6.205 -0.0482 -0.1411  0.3741
14705W        W57617  19.422  19.836   6.444  0.0347 -0.3605  0.0627
14706W        W57618  22.331  20.039   6.178  0.2319  0.0486  0.0373
14707W        W57619  18.457  20.850   6.068  0.0139 -0.0976 -0.5131
14708W        W57620  18.010  18.427   6.321 -0.1405 -0.0908  0.0533
14709W        W57621  19.660  18.466   6.417  0.2620 -0.0668 -0.0894
14710W        W57622  19.131  20.157   3.711 -0.1032 -0.0146  0.1252
14711W        W57623  20.859  17.948   4.269  0.0088 -0.1798  0.0729
14712W        W57624  21.770  20.440   3.892 -0.1094 -0.2434 -0.0399
14713W        W57625  16.873  20.043   5.887 -0.2782  0.2417 -0.3746
14714W        W57626  19.798  18.568   4.827  0.1734 -0.0740  0.1824
14715W        W57627  19.670  20.763   4.735  0.3022 -0.2215 -0.2408
14716W        W57628  20.128  20.869   2.927 -0.1396  0.1989  0.1966
14717W        W57629  20.653  19.812   4.660 -0.3548 -0.0025  0.1897
14718W        W57630  19.390  20.881   5.570 -0.2491  0.2161 -0.2607
14719W        W57631  20.502  18.918   4.448 -0.5225  0.0211 -0.2152
14720W        W57632  18.704  20.319   5.139  0.3507 -0.0163  0.1030
14721W        W57633  17.735  21.592   2.151 -0.2367  0.1619 -0.0773
14722W        W57634  19.987  20.741   3.897  0.1620  0.3170  0.0368
14723W        W57635  17.829  22.912   5.118  0.1880  0.0165 -0.0001
14724W        W57636  20.282  21.022   7.748  0.1725 -0.0014  0.1683
14725W        W57637  20.614  16.679   3.099  0.2144 -0.0902 -0.3970
14726W        W57638  22.850  20.260   5.265  0.1558  0.0618  0.2794
14727W        W57639  22.482  20.405   4.392 -0.2654 -0.1390 -0.0655
14728W        W57640  19.364  22.266   6.735 -0.1691 -0.1643  0.3407
14729W        W57641  18.488  20.485   5.546  0.1746 -0.1730 -0.0476
14730W        W57642  18.796  19.335   4.390  0.0567  0.1441 -0.1157
14731W        W57643  19.761  18.781   6.926  0.0129 -0.5023 -0.0650
14732W        W57644  20.803  18.554   8.094  0.3573  0.2604 -0.0481
14733W        W57645  16.847  21.454   6.628  0.0126  0.1465  0.1799
14734W        W57646  20.346  19.886   4.228 -0.0488  0.1800 -0.0950
14735W        W57647  18.265  18.056   3.384  0.0302 -0.1036 -0.0895
14736W        W57648  20.408  18.886   5.911 -0.1246  0.1272 -0.0261
14737W        W57649  21.235  18.023   4.698  0.0726 -0.0467 -0.1334
14738W        W57650  20.615  19.315   3.008 -0.3487 -0.0224 -0.1656
14739W        W57651  21.388  17.702   4.267 -0.1205 -0.0268 -0.1071
14740W        W57652  19.749  20.725   5.240 -0.2262 -0.0779  0.1628
14741W        W57653  19.072  21.700   5.332 -0.1519  0.1869 -0.0791
14742W        W57654  19.281  21.561   4.904  0.0739  0.0540 -0.3372
14743W        W57655  19.350  17.314   5.489 -0.4487 -0.0761 -0.0631
14744W        W57656  21.899  17.334   3.340 -0.0133 -0.0515 -0.1113
14745W        W57657  18.869  18.972   6.798 -0.0573  0.1489 -0.3094
14746W        W57658  21.693  17.128   7.163  0.1608  0.0740 -0.2261
14747W        W57659  18.019  19.675   3.446  0.0581  0.0624 -0.0679
14748W        W57660  21.500  18.032   3.813 -0.0051  0.1635 -0.2238
14749W        W57661  20.340  19.147   5.374  0.0566 -0.0030 -0.2536
14750W        W57662  17.923  20.823   6.129 -0.1383 -0.1461 -0.3082
14751W        W57663  20.495  18.465   2.350  0.1422 -0.1336 -0.0766
14752W        W57664  20.959  20.270   6.122  0.0494  0.4109  0.1554
14753W        W57665  20.904  21.117   3.627  0.4153  0.1841 -0.0738
14754W        W57666  19.220  21.041   6.571  0.4229 -0.2249  0.2472
14755W        W57667  17.674  18.991   3.291  0.1008 -0.0355 -0.1254
14756W        W57668  20.057  18.539   4.421  0.0622 -0.0488  0.0621
14757W        W57669  17.620  18.665   4.559  0.0667  0.2432 -0.1846
14758W        W57670  20.600  18.961   6.629  0.1435 -0.3792  0.0075
14759W        W57671  20.833  20.963   6.285 -0.3549  0.2139 -0.0264
14760W        W57672  18.356  18.464   3.710 -0.0764  0.3456  0.0279
14761W        W57673  21.802  21.319   3.440 -0.2342 -0.0112 -0.0343
14762W        W57674  20.757  19.469   5.216 -0.0526  0.5949  0.0597
14763W        W57675  19.069  20.991   2.303  0.1099 -0.0435  0.0515
14764W        W57676  21.086  17.983   3.037 -0.1658  0.1149 -0.4741
14765W        W57677  20.284  21.079   5.730 -0.2262  0.0327 -0.0088
14766W        W57678  17.670  18.377   5.829  0.3731 -0.0384  0.3179
14767W        W57679  19.547  20.340   5.612 -0.6201 -0.3678  0.2314
14768W        W57680  20.915  20.023   5.129 -0.2359 -0.1642  0.2126
14769W        W57681  21.029  18.890   4.719  0.0902 -0.0048  0.0730
14770W        W57682  17.729  19.233   4.329 -0.0524 -0.1147 -0.0362
14771W        W57683  18.027  20.422   3.879  0.1473  0.0358  0.2419
14772W        W57684  21.395  18.498   4.643  0.2257 -0.0499 -0.1544
14773W        W57685  21.661  19.726   6.717  0.1311 -0.0027  0.1296
14774W        W57686  20.632  20.916   2.709 -0.0883  0.2299 -0.1790
14775W        W57687  21.706  17.851   6.550 -0.0934 -0.0407 -0.2052
14776W        W57688  20.392  20.858   7.188  0.1634 -0.5620 -0.2178
14777W        W57689  19.175  20.018   7.641  0.1339 -0.0862 -0.0308
14778W        W57690  17.797  19.492   3.006  0.1088 -0.2153  0.2421
14779W        W57691  20.184  19.146   6.325  0.1179 -0.0685 -0.1126
14780W        W57692  18.077  19.670   4.522  0.0248  0.1341  0.2462
14781W        W57693  19.454  19.761   3.752 -0.0371  0.2320  0.0645
14782W        W57694  20.618  20.568   5.843 -0.0417 -0.1462 -0.0502
14783W        W57695  19.611  18.880   4.434 -0.0723 -0.0474 -0.2096
14784W        W57696  20.081  18.984   4.710  0.0191  0.0268  0.2093
14785W        W57697  18.942  18.633   5.860 -0.1088  0.0811 -0.0865
14786W        W57698  22.351  18.144   3.604 -0.0325  0.0730  0.2777
14787W        W57699  20.824  17.137   3.704  0.3083 -0.0637 -0.0080
14788W        W57700  18.904  18.171   6.620  0.3270 -0.0901  0.0630
14789W        W57701  17.764  20.055   3.642  0.2345  0.1041  0.0861
14790W        W57702  18.529  19.905   2.518 -0.1105 -0.2680 -0.1789
14791W        W57703  18.207  20.008   5.958  0.1524 -0.0522 -0.0889
14792W        W57704  20.083  18.017   5.525  0.1468 -0.1298 -0.1161
14793W        W57705  18.102  17.999   5.995  0.2245 -0.1903  0.4546
14794W        W57706  18.473  19.759   4.239 -0.3547 -0.0593 -0.1157
14795W        W57707  19.499  19.262   4.122 -0.4865  0.3340 -0.3698
14796W        W57708  22.738  21.522   2.642 -0.1381  0.1040  0.1663
14797W        W57709  19.971  19.380   5.015  0.0128  0.1539  0.0713
14798W        W57710  18.122  18.047   3.903 -0.0389 -0.0310  0.1908
14799W        W57711  20.518  20.361   4.846 -0.0270 -0.2153  0.0500
14800W        W57712  21.135  19.901   4.494 -0.1676  0.3474  0.1018
14801W        W57713  20.759  17.102   4.736  0.0184  0.1745  0.3222
14802W        W57714  22.463  21.329   7.671 -0.2853  0.2134  0.2446
14803W        W57715  18.722  22.019   4.529  0.4411 -0.2573  0.2247
14804W        W57716  19.676  18.210   5.834  0.0254 -0.1412 -0.3637
14805W        W57717  19.703  19.373   7.362  0.0320 -0.0605 -0.2520
14806W        W57718  18.072  18.547   4.138 -0.0566 -0.1992  0.0048
14807W        W57719  20.293  19.682   6.277 -0.0720 -0.2535  0.0427
14808W        W57720  19.880  20.343   6.102  0.1364 -0.0277 -0.0912
14809W        W57721  21.383  21.970   3.919 -0.2294 -0.1679 -0.3228
14810W        W57722  18.914  19.850   5.904 -0.0095 -0.3598 -0.0928
14811W        W57723  21.171  20.686   7.501  0.0580 -0.1254  0.1736
14812W        W57724  20.621  17.280   5.689  0.1964  0.0901 -0.1178
14813W        W57725  21.107  19.017   3.188  0.3711 -0.0750 -0.1285
14814W        W57726  18.142  22.319   7.199  0.1722 -0.3451  0.0677
14815W        W57727  21.590  20.172   2.802  0.2999 -0.1557 -0.1934
14816W        W57728  20.923  17.528   4.561 -0.3127 -0.1055 -0.1369
14817W        W57729  21.435  19.134   3.622  0.1592  0.0304 -0.0654
14818W        W57730  19.119  17.718   6.201  0.0888 -0.0287 -0.1235
14819W        W57731  19.002  20.133   6.436 -0.0233 -0.1320  0.2432
14820W        W57732  20.091  19.939   7.010 -0.0982 -0.0596 -0.2968
14821W        W57733  19.176  18.249   6.137  0.0904  0.1248 -0.1166
14822W        W57734  21.500  17.732   3.349 -0.0381  0.2154 -0.1559
14823W        W57735  21.169  22.138   2.160 -0.1156  0.3070  0.2284
14824W        W57736  19.606  19.072   4.880 -0.2836 -0.3265  0.0839
14825W        W57737  19.227  19.227   4.575 -0.1182 -0.3157 -0.1279
14826W        W57738  19.609  19.953   4.625  0.1835  0.1131 -0.1861
14827W        W57739  20.268  20.805   6.127  0.2587  0.2493 -0.0028
14828W        W57740  20.762  19.947   6.468 -0.0507 -0.0322 -0.1055
14829W        W57741  18.328  19.900   3.805 -0.3070  0.0927  0.0439
14830W        W57742  21.121  19.244   4.023  0.2052 -0.1391  0.1194
14831W        W57743  19.376  21.479   7.335 -0.3070  0.1690 -0.0230
14832W        W57744  21.572  21.336   6.554 -0.0991 -0.1590  0.1662
14833W        W57745  20.609  20.062   5.799 -0.1088  0.1924 -0.0688
14834W        W57746  21.045  20.320   5.590  0.2596 -0.2256 -0.0184
14835W        W57747  18.522  18.394   5.497 -0.4052  0.1888 -0.1124
14836W        W57748  18.082  20.879   4.663 -0.2426 -0.4534 -0.0804
14837W        W57749  18.713  20.186   4.139 -0.1946  0.4161  0.2983
14838W        W57750  19.854  19.028   5.490  0.2892 -0.0660 -0.2124
14839W        W57751  18.134  17.911   4.435  0.0453 -0.2007  0.0173
14840W        W57752  21.457  17.562   2.904  0.1867  0.1619  0.1437
14841W        W57753  19.449  21.641   6.252  0.1634 -0.0134  0.2592
14842W        W57754  20.889  18.808   4.157  0.2437 -0.0473 -0.1180
14843W        W57755  17.578  19.175   8.936 -0.1546 -0.1796 -0.1640
14844W        W57756  16.590  18.294   8.545 -0.2783 -0.0950  0.3373
14845W        W57757  20.715  19.272   7.036  0.2120 -0.1662 -0.1359
14846W        W57758  21.412  20.227   7.277  0.2299  0.0386  0.0673
14847W        W57759  16.809  18.795   8.646  0.1523 -0.0978 -0.1137
14848W        W57760  20.650  19.807   7.009  0.0525  0.0813  0.0453
14849W        W57761  21.349  20.502   8.743  0.0984 -0.0501  0.2875
14850W        W57762  21.766  20.565  10.039  0.0262  0.2677 -0.3284
14851W        W57763  21.483  19.599   5.830 -0.0765 -0.1084 -0.1808
14852W        W57764  19.857  20.288   9.576  0.0950 -0.5902 -0.2911
14853W        W57765  19.192  16.788   6.237  0.3357 -0.1234  0.0606
14854W        W57766  16.670  18.981   8.136 -0.1799  0.0867  0.0508
14855W        W57767  21.842  19.227   9.083 -0.0779  0.0568 -0.1859
14856W        W57768  17.176  20.925   7.540 -0.2108  0.0208 -0.0287
14857W        W57769  18.472  18.825   8.907 -0.1626 -0.2133 -0.1332
14858W        W57770  21.540  19.228   8.744  0.1602 -0.3108 -0.0551
14859W        W57771  21.297  19.617  10.685  0.0790  0.2097  0.2358
14860W        W57772  17.850  18.809   9.269 -0.2768 -0.1186 -0.1306
14861W        W57773  18.848  19.399   7.053  0.0469  0.1785  0.1910
14862W        W57774  18.591  18.699   5.153  0.2543 -0.0070  0.1662
14863W        W57775  16.798  19.331   8.419 -0.1147 -0.2020 -0.1469
14864W        W57776  18.768  19.830   8.337  0.0326 -0.1181 -0.0073
14865W        W57777  21.108  18.223   9.716  0.0783 -0.2292  0.1831
14866W        W57778  20.743  18.565   8.668 -0.1842 -0.0257  0.0436
14867W        W57779  17.390  20.646   9.124  0.2354  0.1484 -0.0827
14868W        W57780  19.609  21.924   7.259 -0.0721  0.1204  0.4960
14869W        W57781  17.743  20.809   8.781  0.1898  0.1532  0.0425
14870W        W57782  17.456  19.995   8.780  0.3223 -0.1783 -0.2355
14871W        W57783  20.287  19.538   7.273  0.0097  0.0420  0.2514
14872W        W57784  22.008  21.356   9.422  0.0916  0.0180  0.0045
14873W        W57785  18.382  20.149   7.458 -0.1173 -0.2065  0.0077
14874W        W57786  20.030  19.890   9.881  0.2302  0.0638  0.0940
14875W        W57787  19.544  19.764   7.832  0.1372  0.3187 -0.1053
14876W        W57788  18.343  20.653   7.298 -0.0705  0.0362  0.0186
14877W        W57789  20.467  19.879   7.642  0.2731 -0.1451 -0.4922
14878W        W57790  17.145  19.679   8.498  0.1060 -0.0972 -0.0215
14879W        W57791  18.835  21.217   7.824  0.2129  0.0990  0.1526
14880W        W57792  21.452  18.894   6.511 -0.1967  0.0980 -0.0147
14881W        W57793  20.648  18.840   7.415  0.1775  0.3220 -0.0402
14882W        W57794  22.081  19.917   7.493 -0.0913 -0.0687  0.2867
14883W        W57795  20.590  18.296   9.234 -0.0446  0.2628  0.1052
14884W        W57796  20.239  21.488   8.925 -0.0790 -0.0049 -0.3278
14885W        W57797  18.414  19.064   8.493 -0.1072  0.0012 -0.1342
14886W        W57798  20.315  18.728   7.934 -0.0234  0.1402  0.0110
14887W        W57799  19.721  16.947   9.644  0.4157  0.2546 -0.0392
14888W        W57800  18.257  19.561   8.330 -0.1472 -0.2451 -0.1016
14889W        W57801  19.753  20.861   7.905 -0.0461 -0.0532 -0.0496
14890W        W57802  19.285  21.033   7.643  0.0395  0.0208  0.3578
14891W        W57803  20.623  21.748   9.195  0.0661  0.2362 -0.3414
14892W        W57804  19.593  21.154   8.531 -0.2538 -0.1587 -0.0511
14893W        W57805  17.508  18.778   6.998  0.1397  0.3251 -0.0428
14894W        W57806  20.260  17.188   8.451  0.1550 -0.2431  0.3435
14895W        W57807  22.657  17.873   9.011 -0.3916  0.0895  0.2676
14896W        W57808  18.922  18.467   8.876 -0.0918 -0.2361  0.0737
14897W        W57809  20.220  20.601   8.812 -0.2336  0.0492  0.2471
14898W        W57810  21.159  19.726   6.824  0.0208  0.0054  0.0309
14899W        W57811  20.326  18.734   9.341 -0.1551  0.0511 -0.1670
14900W        W57812  21.169  18.879   9.905  0.0914  0.0247 -0.1274
14901W        W57813  19.311  19.036   5.687  0.0794  0.1415  0.2424
14902W        W57814  18.631  18.818   8.118  0.0699  0.1805  0.2594
14903W        W57815  24.482  19.544   9.808 -0.1748 -0.0495  0.3439
14904W        W57816  19.304  19.667   6.888 -0.0616 -0.2370  0.1011
14905W        W57817  17.439  19.875   7.832 -0.1855  0.1029  0.0052
14906W        W57818  20.070  21.308   8.095  0.0461 -0.0543  0.1556
14907W        W57819  18.125  20.589   8.823 -0.1490  0.4554 -0.0349
14908W        W57820  17.592  19.093   6.559  0.1092 -0.0427  0.0762
14909W        W57821  16.449  19.453   7.987  0.1450 -0.5053  0.1341
14910W        W57822  20.217  20.536   7.661 -0.0193 -0.1391 -0.1621
14911W        W57823  21.939  19.056   8.144  0.0114 -0.0962  0.1403
14912W        W57824  22.610  18.576   9.703  0.0385  0.1013  0.0590
14913W        W57825  17.523  19.444   6.937  0.0023 -0.0887 -0.0799
14914W        W57826  21.049  20.623   7.985 -0.1224 -0.4058  0.3149
14915W        W57827  22.535  20.817   7.511  0.0646  0.1727 -0.0675
14916W        W57828  19.692  18.945   6.450  0.0712  0.1791 -0.1717
14917W        W57829  17.890  20.826   8.199 -0.2435  0.1106 -0.0527
14918W        W57830  18.408  18.464   8.617  0.0783 -0.1545 -0.0034
14919W        W57831  17.712  18.890   8.086  0.2164 -0.2049 -0.1911
14920W        W57832  18.401  17.262   7.626 -0.0333 -0.0335  0.1129
14921W        W57833  19.375  18.887   9.396  0.0517 -0.2441 -0.1958
14922W        W57834  18.640  19.199   7.719 -0.1304  0.0721  0.1771
14923W        W57835  17.108  19.695   6.982  0.0726 -0.5051 -0.1081
14924W        W57836  21.097  21.372   6.560  0.0307  0.1323  0.1643
14925W        W57837  20.443  20.962   9.635  0.3343  0.0457  0.0765
14926W        W57838  20.654  21.566   8.711  0.2402 -0.1789 -0.1495
14927W        W57839  17.484  19.018   7.564  0.1404 -0.0212  0.1353
14928W        W57840  17.978  18.479   7.812  0.0660 -0.1638  0.5402
14929W        W57841  18.618  19.371   9.248 -0.2363  0.0052 -0.0353
14930W        W57842  19.349  20.434   7.329  0.2935  0.1646  0.2699
14931W        W57843  19.368  18.772   7.687 -0.0995  0.0990 -0.2870
14932W        W57844  21.238  21.188   8.022 -0.2680 -0.1127  0.0249
14933W        W57845  19.920  19.394   8.237  0.1466  0.0512 -0.4033
14934W        W57846  21.857  21.161  10.029  0.0135  0.0726  0.2096
14935W        W57847  20.485  19.394   8.502  0.4418 -0.0570 -0.2302
14936W        W57848  19.564  17.949   6.336  0.1339  0.0143  0.1965
14937W        W57849  20.232  19.768   9.434  0.3337  0.0826 -0.2323
14938W        W57850  17.817  23.067   7.454  0.1490 -0.1054  0.2348
14939W        W57851  18.483  18.794   9.443  0.0112 -0.2902 -0.1807
14940W        W57852  18.419  20.777   9.203 -0.0843 -0.1065 -0.2922
14941W        W57853  22.177  18.626  10.218 -0.0253  0.1487  0.1155
14942W        W57854  17.924  18.913   7.660 -0.3640  0.4359  0.1116
14943W        W57855  22.079  18.476   9.660  0.1971  0.1879 -0.0417
14944W        W57856  21.062  20.273   8.400 -0.1134  0.3447  0.3241
14945W        W57857  20.639  19.408   7.557  0.0620 -0.0057 -0.1379
14946W        W57858  21.344  17.894   7.818  0.4227 -0.0361 -0.2998
14947W        W57859  19.550  17.552   6.737 -0.0720  0.0235  0.2791
14948W        W57860  18.684  19.832   9.062 -0.1632 -0.0669 -0.0160
14949W        W57861  19.748  19.797   9.442 -0.0011 -0.0421  0.1737
14950W        W57862  21.968  18.840   6.652 -0.2615  0.2989 -0.1788
14951W        W57863  20.925  20.212   7.651 -0.1706 -0.1386  0.0119
14952W        W57864  18.160  20.918   9.653  0.1649  0.0221 -0.1518
14953W        W57865  21.083  20.701   9.607 -0.1882 -0.0220 -0.0795
14954W        W57866  19.036  19.056   7.960  0.1875 -0.1957  0.0481
14955W        W57867  18.831  19.305   5.825  0.5469 -0.1028  0.1341
14956W        W57868  20.001  18.164   9.070 -0.0498  0.0899 -0.0991
14957W        W57869  18.487  22.670   7.618 -0.2041  0.0383  0.0580
14958W        W57870  19.406  20.106   8.571  0.0757  0.1647  0.0553
14959W        W57871  18.516  18.780   9.940  0.2075  0.0976 -0.0785
14960W        W57872  20.334  19.193   8.023  0.2416 -0.2304  0.1673
14961W        W57873  17.464  18.790   9.568  0.1284  0.0699 -0.3546
14962W        W57874  18.636  18.375   6.250 -0.1416 -0.1302 -0.1018
14963W        W57875  16.977  20.499   9.979 -0.0760  0.0153  0.5581
14964W        W57876  17.964  18.337   9.238 -0.0316 -0.0410 -0.0366
14965W        W57877  19.895  20.332   8.550  0.1076  0.0584  0.1685
14966W        W57878  18.843  18.153   7.762  0.2839 -0.3234 -0.0861
14967W        W57879  20.614  21.479   7.920 -0.1344  0.2310  0.2139
14968W        W57880  19.027  19.601   7.905  0.0130 -0.2140 -0.0242
14969W        W57881  16.856  17.925   9.519  0.3520 -0.0679 -0.2420
14970W        W57882  20.747  20.304   8.889 -0.2530  0.1979 -0.1484
14971W        W57883  19.366  19.208   6.740  0.0749  0.0719  0.0095
14972W        W57884  23.674  18.366  11.022  0.0454  0.1822 -0.0028
14973W        W57885  17.811  21.611   8.149 -0.0363  0.0119  0.2133
14974W        W57886  22.609  19.398   9.556  0.1029  0.3101  0.2295
14975W        W57887  18.599  21.170   8.897 -0.0465 -0.1096  0.0257
14976W        W57888  19.769  18.689   7.921 -0.0292  0.3556  0.1081
14977W        W57889  17.899  18.103   7.455 -0.1738  0.2197 -0.0596
14978W        W57890  21.970  18.863   9.411  0.1140 -0.1189 -0.1198
14979W        W57891  20.921  20.377   6.634  0.0545 -0.1060  0.0850
14980W        W57892  18.255  20.055   8.144 -0.2426  0.1570  0.1664
14981W        W57893  20.395  20.235   9.680  0.2519 -0.3674  0.1216
14982W        W57894  17.364  19.648   9.116 -0.0808  0.2342 -0.2439
14983W        W57895  21.436  19.026   5.972 -0.3137 -0.2193  0.2608
14984W        W57896  18.729  19.333   8.220  0.0301  0.0114 -0.1847
14985W        W57897  21.401  19.086   9.219  0.0972  0.2728 -0.0229
14986W        W57898  18.919  18.959   8.575 -0.0622  0.2031  0.0022
14987W        W57899  17.839  20.460   7.879 -0.0908 -0.2937  0.1538
14988W        W57900  20.417  21.049   8.293  0.0641  0.1865 -0.2042
14989W        W57901  19.009  19.881   7.195 -0.2840 -0.0266 -0.1289
14990W        W57902  16.643  18.948   6.784  0.0857  0.2837  0.1394
14991W        W57903  22.891  19.721  10.697 -0.0213 -0.0334  0.0206
14992W        W57904  18.609  17.974   8.779 -0.0712  0.0376 -0.2140
14993W        W57905  20.358  17.699   8.322 -0.0177  0.3458  0.0789
14994W        W57906  21.156  18.880   8.648 -0.1824  0.4191 -0.2044
14995W        W57907  20.178  20.531   9.328  0.0181 -0.0852 -0.2782
14996W        W57908  20.269  18.518   8.407 -0.3377  0.0488  0.1274
14997W        W57909  19.176  16.959   9.052 -0.1132  0.0715 -0.1099
14998W        W57910  22.003  21.679   8.354  0.0965 -0.2181 -0.0824
14999W        W57911  18.428  18.886   6.049  0.1373 -0.0724 -0.0436
15000W        W57912  16.693  20.292   7.885  0.0702 -0.0052 -0.3728
15001W        W57913  19.682  20.297   7.651  0.2805  0.2098  0.0769
15002W        W57914  19.390  18.992   8.259  0.0129  0.1388  0.0863
15003W        W57915  18.285  19.885   9.843  0.3811 -0.0368  0.0515
15004W        W57916  19.285  20.532   7.804 -0.2929  0.1406  0.2035
15005W        W57917  16.864  20.767   8.981 -0.4130  0.2416 -0.0398
15006W        W57918  20.919  18.148   8.899 -0.0886  0.4503  0.1620
15007W        W57919  20.030  20.189   8.040  0.0252  0.0455  0.2060
15008W        W57920  19.312  17.638   7.780  0.1452 -0.0358  0.2304
15009W        W57921  20.905  18.407   7.253  0.0039  0.0955 -0.1941
15010W        W57922  20.634  17.631   8.762  0.1355 -0.1753  0.0258
15011W        W57923  21.546  20.055   8.829 -0.1089  0.3027  0.3483
15012W        W57924  20.059  19.550   7.734  0.1927  0.2056 -0.3326
15013W        W57925  19.962  18.865   8.424  0.0176 -0.0771  0.0238
15014W        W57926  19.337  20.544   9.402 -0.0419  0.0760  0.1173
15015W        W57927  21.542  18.401  10.869 -0.0523  0.1443 -0.0792
15016W        W57928  21.041  19.876   8.867 -0.0957 -0.5332  0.1904
15017W        W57929  22.673  18.536  10.182 -0.1116 -0.1080  0.0287
15018W        W57930  19.221  20.031   8.143 -0.2109 -0.2536 -0.2331
15019W        W57931  21.440  19.621   9.096  0.1547 -0.2996  0.1062
15020W        W57932  20.217  18.981   7.526 -0.2911  0.1669  0.0892
15021W        W57933  18.100  18.700   8.292  0.1370 -0.2325  0.2183
15022W        W57934  20.146  19.754   8.651 -0.0715  0.1392 -0.2312
15023W        W57935  20.777  19.001   7.832  0.0566 -0.2731  0.1437
15024W        W57936  20.055  22.035  10.567 -0.2164 -0.0239 -0.1825
15025W        W57937  21.814  19.962   6.228 -0.0210 -0.0349  0.2827
15026W        W57938  21.572  19.148   9.697  0.0871  0.0946 -0.1169
15027W        W57939  22.352  19.031   9.715  0.1542  0.0556  0.1714
15028W        W57940  21.141  19.058   7.371 -0.2438 -0.0458  0.1411
15029W        W57941  16.967  19.722   8.010  0.1509 -0.0937  0.1206
15030W        W57942  19.201  19.457   7.447 -0.2066  0.1443  0.0422
15031W        W57943  19.246  20.919   7.165 -0.1853  0.1213 -0.0345
15032W        W57944  20.014  19.977   7.472 -0.3524 -0.4725 -0.1382
15033W        W57945  21.423  18.271   7.448 -0.1273  0.0893 -0.0037
15034W        W57946  17.811  19.427   7.990 -0.0529 -0.1133 -0.1043
15035W        W57947  17.112  17.980   6.171  0.0328  0.1541 -0.0449
15036W        W57948  19.464  18.457   7.262 -0.0060 -0.0764 -0.2212
15037W        W57949  20.081  19.228   8.786  0.1428 -0.0950  0.0075
15038W        W57950  19.954  18.305   7.526 -0.0102  0.1136 -0.1111
15039W        W57951  18.273  20.535   8.348  0.0493  0.1115  0.2252
15040W        W57952  19.661  17.456   9.618 -0.0502  0.0321 -0.3718
15041W        W57953  20.477  20.554   8.076  0.1511  0.0216 -0.1369
15042W        W57954  19.698  20.762   7.290  0.0476  0.0552  0.1517
15043W        W57955  19.376  19.021   7.246 -0.1768  0.1393 -0.1690
15044W        W57956  19.108  19.696   8.672 -0.0780 -0.1940 -0.1551
15045W        W57957  19.298  18.618   8.581 -0.0169  0.3360 -0.0753
15046W        W57958  18.871  18.935   7.370 -0.2411 -0.1848  0.1376
15047W        W57959  22.700  20.300   9.262 -0.1568  0.1055 -0.2310
15048W        W57960  17.502  20.958   7.928 -0.3355 -0.1464 -0.0614
15049W        W57961  20.693  19.933   9.258  0.0756  0.0084 -0.1913
15050W        W57962  18.945  18.504   7.492  0.1453 -0.1617 -0.0545
15051W        W57963  18.958  20.265   8.762 -0.1754 -0.0510 -0.0156
15052W        W57964  17.641  19.324   9.392 -0.1939  0.0936  0.2994
15053W        W57965  18.841  20.377   7.289 -0.0851 -0.0238 -0.1368
15054W        W57966  20.752  20.694   8.462  0.0452  0.0744  0.3519
15055W        W57967  21.493  20.095   5.867 -0.0065  0.0800 -0.0020
15056W        W57968  20.326  22.465   9.622  0.0502 -0.2096 -0.2260
15057W        W57969  20.304  18.053   7.120 -0.3147 -0.0601  0.3236
15058W        W57970  18.847  20.831   7.452  0.0067  0.0249 -0.3576
15059W        W57971  17.088  20.753   6.952  0.1600  0.3521  0.0889
15060W        W57972  20.701  20.611   7.531 -0.0262 -0.0115 -0.1620
15061W        W57973  18.785  20.368   8.283  0.0381  0.1540 -0.0637
15062W        W57974  20.698  18.576   6.218  0.0051  0.0173  0.2999
15063W        W57975  19.931  18.845   9.101  0.0466 -0.1711 -0.0300
15064W        W57976  21.925  19.711   8.982 -0.1573 -0.1300 -0.0290
15065W        W57977  20.165  18.213   8.007 -0.3098 -0.1771 -0.0035
15066W        W57978  20.141  18.361   6.183 -0.1518  0.0385  0.1186
15067W        W57979  20.463  20.256   7.260 -0.0052 -0.2912  0.2469
15068W        W57980  18.419  18.754   7.712 -0.2003  0.2233 -0.2131
15069W        W57981  18.208  19.114   7.992  0.1058 -0.4033  0.3684
15070W        W57982  21.614  17.251  10.024 -0.0627 -0.1163 -0.1500
15071W        W57983  19.775  19.530   6.793  0.0244 -0.2395  0.0890
15072W        W57984  20.699  19.580   8.040  0.2412  0.2700  0.0672
15073W        W57985  19.191  21.308   8.169  0.1257 -0.0161  0.0923
15074W        W57986  19.590  20.370   8.145  0.0806 -0.2032  0.0749
15075W        W57987  20.021  21.122   9.868  0.1121 -0.1079  0.0476
15076W        W57988  17.626  18.514   7.425  0.2030 -0.3009 -0.0161
15077W        W57989  21.931  19.201  10.009 -0.0614 -0.2187  0.3293
15078W        W57990  17.683  19.580   7.501  0.0743  0.0352  0.0298
15079W        W57991  18.011  20.103   8.625 -0.0240  0.1517  0.0758
15080W        W57992  21.407  18.876   7.870  0.0895 -0.0175  0.0318
15081W        W57993  20.518  19.531   9.030 -0.1699  0.0049 -0.2359
15082W        W57994  18.786  18.178   8.326 -0.0367 -0.1434 -0.0679
15083W        W57995  19.871  18.286   6.970 -0.3640  0.1016 -0.0738
15084W        W57996  21.575  17.912   8.313  0.1366 -0.1170  0.0919
15085W        W57997  19.546  18.313   8.236  0.3689 -0.1301 -0.1613
15086W        W57998  20.280  18.502   8.929 -0.2206 -0.0461  0.1213
15087W        W57999  18.495  19.678   7.913  0.0323 -0.2806 -0.0870
15088W        W58000  15.163  21.182   9.447 -0.2046 -0.1662 -0.1923
15089W        W58001  17.926  18.301   8.426  0.0610 -0.3375  0.1817
15090W        W58002  22.183  20.015   8.070  0.3604  0.2486  0.1209
15091W        W58003  20.591  19.031   8.974 -0.1443 -0.0669 -0.0301
15092W        W58004  18.916  21.789   7.094  0.1515 -0.1985 -0.0512
15093W        W58005  19.720  19.293   9.309 -0.1927 -0.0492  0.0625
15094W        W58006  20.657  21.273   9.277  0.1593 -0.3057  0.1189
15095W        W58007  16.436  19.873   9.290 -0.0695 -0.1846 -0.2168
15096W        W58008  20.840  21.391  10.166  0.3923 -0.0350  0.1756
15097W        W58009  21.102  20.718   9.099 -0.2968  0.1128  0.0430
15098W        W58010  18.100  19.242   9.073  0.0116 -0.1590  0.0398
15099W        W58011  17.602  20.433   8.437  0.0537 -0.1030  0.1260
15100W        W58012  18.774  21.082   8.413 -0.1940 -0.0920  0.0690
15101W        W58013  20.145  19.396   9.807 -0.1204 -0.1631 -0.2832
15102W        W58014  20.014  21.613   7.224 -0.0564 -0.0946 -0.0958
15103W        W58015  19.189  19.360   9.335  0.0044  0.2513  0.0081
15104W        W58016  19.176  20.195   6.903 -0.0969 -0.3698  0.0055
15105W        W58017  19.743  19.847   8.258  0.1854  0.0187 -0.0761
15106W        W58018  20.083  21.065   8.694  0.0429 -0.0508 -0.4188
15107W        W58019  21.438  21.007   9.357 -0.1365 -0.0942 -0.0090
15108W        W58020  21.754  18.660   7.597  0.1345  0.0163 -0.0756
15109W        W58021  21.113  20.273   9.215  0.4426  0.0053  0.2642
15110W        W58022  17.954  17.482   8.830 -0.3381  0.1043 -0.2372
15111W        W58023  22.532  18.229   9.341  0.5371  0.1835 -0.1136
15112W        W58024  19.539  19.070   8.803  0.0994  0.1526 -0.1422
15113W        W58025  20.202  22.114  10.050  0.1900  0.1107 -0.0032
15114W        W58026  17.980  19.847   7.260 -0.1451 -0.2939  0.0385
15115W        W58027  18.692  19.679   7.491 -0.1325  0.2280  0.0277
15116W        W58028  18.722  19.869   6.847  0.2194  0.2351  0.1537
15117W        W58029  17.766  19.960   8.224  0.1409 -0.0000 -0.0530
15118W        W58030  18.361  19.568   7.095  0.2506  0.1459 -0.2277
15119W        W58031  21.120  19.850   8.096  0.2088 -0.0886  0.0707
15120W        W58032  19.415  18.423   9.579  0.1196 -0.0788  0.2239
15121W        W58033  17.214  18.847   7.921 -0.2248  0.1815 -0.2396
15122W        W58034  20.914  20.252   9.660 -0.0054  0.1285  0.0470
15123W        W58035  21.431  20.260   7.836  0.0962 -0.1672 -0.0922
15124W        W58036  19.787  18.548   8.760  0.0603 -0.0091 -0.1297
15125W        W58037  18.091  21.415   6.287 -0.1750 -0.0102  0.1555
15126W        W58038  17.936  19.144   7.204  0.1731  0.1723 -0.0295
15127W        W58039  20.651  18.932   8.347 -0.0542 -0.1386 -0.2511
15128W        W58040  19.153  21.293   8.715 -0.1083 -0.0131  0.2445
15129W        W58041  20.772  21.025   7.944 -0.1780  0.1537 -0.1895
15130W        W58042  16.404  18.447   8.047  0.0957 -0.1716  0.0508
15131W        W58043  20.211  19.067   6.890 -0.1391 -0.1238  0.0708
15132W        W58044  20.762  19.760   8.481 -0.0089 -0.1810  0.3746
15133W        W58045  22.435  18.255  10.446  0.1204 -0.0165 -0.2238
15134W        W58046  20.999  19.808   7.404 -0.0592  0.0529 -0.4135
15135W        W58047  21.404  20.970   9.937 -0.1200 -0.1143 -0.0813
15136W        W58048  17.304  18.796   8.806 -0.1658  0.1550 -0.0404
15137W        W58049  20.834  19.347   9.345  0.1188 -0.0517  0.2412
15138W        W58050  20.120  20.665   9.940 -0.2038 -0.1139 -0.0083
15139W        W58051  18.690  20.175   7.869 -0.0401  0.1669  0.0292
15140W        W58052  21.123  19.368   7.780  0.0204 -0.1645 -0.0848
15141W        W58053  20.260  19.756   8.154 -0.0985  0.1741  0.2314
15142W        W58054  19.515  19.875   7.318  0.2105  0.0471 -0.0122
15143W        W58055  22.169  19.111   7.686 -0.0452  0.1074  0.0596
15144W        W58056  22.736  20.651  10.838  0.2425 -0.1989  0.0987
15145W        W58057  19.331  19.512   8.275  0.0012 -0.0324 -0.2376
15146W        W58058  19.702  19.503   9.967 -0.1918  0.2499 -0.1656
15147W        W58059  17.917  19.137   8.448  0.0310  0.0862  0.0016
15148W        W58060  17.271  21.196   7.032  0.1357  0.0813  0.1392
15149W        W58061  20.228  18.601   7.159  0.2047 -0.0192 -0.1220
15150W        W58062  20.697  21.997  10.105 -0.1900  0.1412  0.0007
15151W        W58063  17.621  18.265   8.881 -0.0218 -0.0423  0.1865
15152W        W58064  19.046  18.456   6.994 -0.0315  0.1520  0.1737
15153W        W58065  19.746  20.348   9.097  0.0817  0.1550  0.2680
15154W        W58066  21.484  20.216   9.808 -0.0712  0.1139 -0.1899
15155W        W58067  18.671  23.724   2.518 -0.0099 -0.1180 -0.0810
15156W        W58068  18.911  21.786   0.744 -0.0516  0.2312 -0.1951
15157W        W58069  20.711  21.837   0.143  0.5313  0.0451 -0.0886
15158W        W58070  21.136  21.718  31.899 -0.3620  0.0787  0.1938
15159W        W58071  19.667  22.582   0.795  0.1884 -0.2330  0.1609
15160W        W58072  21.273  25.323   1.035 -0.0644 -0.0226  0.1268
15161W        W58073  19.180  21.483   2.172 -0.4275 -0.1102  0.1183
15162W        W58074  21.222  23.063   1.419 -0.1574 -0.0234 -0.0794
15163W        W58075  21.983  24.743   1.434  0.0093 -0.0861  0.1811
15164W        W58076  21.831  22.237   1.537  0.0236 -0.1157  0.0751
15165W        W58077  20.367  23.080   1.221  0.1040  0.0160  0.0811
15166W        W58078  19.245  23.514   1.626 -0.0809  0.3053  0.3113
15167W        W58079  19.017  20.482  31.460  0.1830 -0.1708  0.1552
15168W        W58080  18.733  21.843   1.388  0.0986  0.0276  0.1845
15169W        W58081  20.475  22.594   2.763  0.0374 -0.0186  0.1092
15170W        W58082  19.916  23.075   0.268  0.1472  0.0894  0.2545
15171W        W58083  18.740  22.177   0.981  0.1150 -0.2223 -0.0219
15172W        W58084  20.182  22.321   0.823  0.2866  0.0812  0.0138
15173W        W58085  19.537  24.329   1.454 -0.1689 -0.0480 -0.0043
15174W        W58086  19.402  22.651   3.853 -0.0178  0.1483 -0.0675
15175W        W58087  21.836  21.585   2.142 -0.1898 -0.1334 -0.2388
15176W        W58088  18.948  23.714   0.338 -0.0925  0.1045  0.3222
15177W        W58089  19.918  23.557   0.033  0.0522 -0.0482 -0.2088
15178W        W58090  19.444  22.416   1.924  0.0066 -0.2956 -0.1210
15179W        W58091  20.000  21.739   1.673  0.2775  0.0623  0.4179
15180W        W58092  20.961  21.163   2.249  0.0246  0.1669  0.0282
15181W        W58093  20.253  23.018   3.061 -0.0236 -0.0974 -0.1005
15182W        W58094  19.166  24.624   1.788  0.0520 -0.0615  0.1217
15183W        W58095  19.654  24.044   1.097 -0.2040 -0.0406 -0.0243
15184W        W58096  20.591  21.421   2.866 -0.1239 -0.0609  0.1570
15185W        W58097  18.461  23.667   1.180 -0.1266 -0.0633  0.1627
15186W        W58098  17.970  24.973   1.419  0.0138  0.1022 -0.2699
15187W        W58099  18.953  24.063   0.018  0.1050  0.0479  0.4036
15188W        W58100  21.671  25.521   1.239 -0.0169 -0.1640  0.1075
15189W        W58101  21.308  24.177   1.095  0.1816 -0.1631 -0.0620
15190W        W58102  20.067  24.766   4.165 -0.1292  0.3182 -0.2705
15191W        W58103  17.828  24.270   0.890 -0.1439  0.1752  0.3843
15192W        W58104  20.156  23.952   3.279 -0.1298  0.0758 -0.1849
15193W        W58105  19.346  23.131   2.767  0.0736  0.2610 -0.1303
15194W        W58106  19.312  22.340   2.875 -0.1372 -0.1405 -0.0296
15195W        W58107  19.536  23.090  31.873 -0.0099  0.0127 -0.2560
15196W        W58108  19.713  23.956  30.740 -0.0607  0.0280  0.0489
15197W        W58109  19.482  23.359   0.301  0.1446  0.0866  0.1801
15198W        W58110  19.763  23.848   2.945 -0.0965 -0.0155 -0.1771
15199W        W58111  18.281  24.280   2.347  0.3228 -0.0471  0.4398
15200W        W58112  21.325  22.951   1.908  0.3183  0.1285 -0.0581
15201W        W58113  18.682  22.824   0.021  0.2600 -0.3323 -0.1947
15202W        W58114  21.012  21.709  30.140  0.0680  0.1615  0.2585
15203W        W58115  20.106  22.042  31.425 -0.1136  0.2270  0.1333
15204W        W58116  20.105  20.484  30.740 -0.1834 -0.0125  0.0337
15205W        W58117  19.557  21.175   2.057  0.1764 -0.0020 -0.0091
15206W        W58118  18.632  25.490   1.570 -0.2167  0.3054 -0.2675
15207W        W58119  19.691  21.670   2.182  0.1227 -0.2073  0.2497
15208W        W58120  20.783  24.753   2.807  0.0080  0.0028 -0.2918
15209W        W58121  21.120  22.257   0.059  0.1385 -0.2557 -0.2665
15210W        W58122  20.389  21.559  31.394  0.1981 -0.0206 -0.2483
15211W        W58123  19.689  24.118   2.465  0.0367 -0.1458 -0.0005
15212W        W58124  19.651  22.197   2.290 -0.2526 -0.1949 -0.2561
15213W        W58125  20.124  24.174   0.238 -0.0778  0.1312 -0.0458
15214W        W58126  21.147  24.671   0.913  0.0966  0.1760  0.1452
15215W        W58127  20.652  26.894   1.830  0.3380 -0.1046  0.0892
15216W        W58128  20.262  21.225  31.739 -0.1245 -0.0301 -0.4653
15217W        W58129  19.073  23.439   2.363  0.6813 -0.1358  0.2428
15218W        W58130  18.235  22.335   1.902  0.1359  0.1939 -0.2652
15219W        W58131  19.964  22.244  30.507  0.1601 -0.2028 -0.0013
15220W        W58132  20.342  22.928   3.557 -0.1403 -0.0121  0.1026
15221W        W58133  17.824  24.337   1.559 -0.1378 -0.2081  0.5029
15222W        W58134  22.202  22.112   0.669  0.0595  0.1155 -0.0031
15223W        W58135  19.546  22.907   1.231 -0.2466 -0.0722  0.2786
15224W        W58136  20.408  24.202   1.758 -0.1742  0.3124  0.0416
15225W        W58137  20.232  23.515  31.538  0.0677  0.1841 -0.2228
15226W        W58138  20.759  22.313   1.291 -0.2024 -0.3635  0.1272
15227W        W58139  20.933  22.774   2.775 -0.1817 -0.1766  0.0294
15228W        W58140  19.135  22.923  30.917 -0.0362 -0.0989  0.1953
15229W        W58141  20.458  22.362  31.402 -0.0015 -0.2628  0.2079
15230W        W58142  20.850  24.733   2.342 -0.0186 -0.0368  0.0573
15231W        W58143  21.601  24.120   1.491  0.1639  0.1624  0.1214
15232W        W58144  18.749  25.187   1.964  0.2846  0.2349  0.0446
15233W        W58145  19.360  22.627   3.377 -0.1821  0.2439  0.1110
15234W        W58146  21.636  23.016   3.839  0.1943  0.0423  0.0069
15235W        W58147  18.446  23.576  31.390 -0.2520  0.1294  0.0499
15236W        W58148  18.225  24.069   1.892 -0.1544 -0.0666 -0.0813
15237W        W58149  19.174  22.010  28.801  0.0343  0.1486  0.1474
15238W        W58150  18.116  22.509   1.337  0.0137  0.4726  0.1417
15239W        W58151  18.898  24.243   1.719 -0.0771 -0.2166 -0.3651
15240W        W58152  21.663  21.796   1.510 -0.1989 -0.0938  0.0904
15241W        W58153  18.452  21.031   2.252  0.0143 -0.1815  0.2855
15242W        W58154  20.206  21.209   2.573 -0.1493 -0.1847  0.0120
15243W        W58155  18.655  24.986   1.134  0.0764 -0.0575  0.0251
15244W        W58156  20.817  24.083  31.732  0.2738 -0.2469 -0.0691
15245W        W58157  20.269  23.210  31.932  0.1377 -0.0580  0.0836
15246W        W58158  20.882  24.725  31.269 -0.2998 -0.4689 -0.2098
15247W        W58159  17.649  22.452   2.781 -0.3705  0.1101 -0.1472
15248W        W58160  18.573  21.958   1.874  0.1752  0.0219  0.2064
15249W        W58161  18.062  21.986   2.913 -0.0153  0.0518 -0.0659
15250W        W58162  17.903  22.756   1.987  0.1677  0.3760 -0.0828
15251W        W58163  21.751  22.049   2.027 -0.2240  0.1361 -0.3152
15252W        W58164  18.570  20.327  31.634  0.0212 -0.2992 -0.2034
15253W        W58165  21.690  22.933   2.366  0.1066 -0.3227 -0.0518
15254W        W58166  20.005  22.694   1.133  0.0488  0.0473 -0.2048
15255W        W58167  19.766  22.208   1.083  0.2223 -0.1618  0.0141
15256W        W58168  21.633  22.328   2.421 -0.3115  0.2209 -0.1684
15257W        W58169  19.886  23.148  31.564 -0.2488  0.0613 -0.0883
15258W        W58170  21.575  23.509   4.059  0.2692 -0.0974 -0.2056
15259W        W58171  20.308  25.781   0.685  0.3604  0.1973 -0.2197
15260W        W58172  18.653  20.857   1.464  0.2043 -0.0085  0.0003
15261W        W58173  18.200  21.347  30.910 -0.0634  0.2247 -0.2877
15262W        W58174  18.538  25.091   0.247  0.2128 -0.1698  0.3466
15263W        W58175  20.454  24.746   0.169  0.1273  0.0049  0.1211
15264W        W58176  19.481  21.214  31.243 -0.0946  0.0574  0.0968
15265W        W58177  20.194  25.484   2.494 -0.0256 -0.0784  0.1221
15266W        W58178  19.820  22.501   1.553  0.0439 -0.0179 -0.2166
15267W        W58179  18.755  24.190   2.241  0.3444 -0.1186 -0.1431
15268W        W58180  21.378  21.573   3.132 -0.0530  0.2691 -0.2177
15269W        W58181  20.777  23.423   1.495 -0.0998  0.1918 -0.0105
15270W        W58182  20.399  22.611   1.759 -0.3998 -0.1379 -0.0815
15271W        W58183  19.281  21.992  31.803 -0.2060  0.1068 -0.1484
15272W        W58184  21.134  25.096   0.595  0.0603  0.1684  0.0142
15273W        W58185  18.631  23.323  31.807  0.0844 -0.0824 -0.1226
15274W        W58186  19.095  22.940   0.989  0.0604 -0.0124 -0.1637
15275W        W58187  18.109  25.096  31.649  0.0043  0.0324 -0.2390
15276W        W58188  21.089  22.749   1.030  0.1419  0.1364 -0.1341
15277W        W58189  17.342  23.647   4.085 -0.1299  0.1437  0.0295
15278W        W58190  20.224  22.284   1.348 -0.0295 -0.2179 -0.1428
15279W        W58191  19.266  22.262   0.576  0.2742 -0.2404  0.0953
15280W        W58192  19.213  24.016   2.416  0.1138 -0.1055 -0.0584
15281W        W58193  19.226  20.328   0.709 -0.1255 -0.1785  0.2762
15282W        W58194  20.745  22.834   0.597 -0.2309 -0.2903  0.2991
15283W        W58195  20.189  23.105   1.725  0.2872  0.2471  0.0263
15284W        W58196  20.695  24.338   3.028  0.0563  0.2213 -0.0513
15285W        W58197  19.733  22.857  28.595 -0.1960  0.0252 -0.0270
15286W        W58198  19.978  20.867  29.868  0.2388 -0.1683  0.0015
15287W        W58199  19.134  24.892   2.353  0.0759  0.2083 -0.1200
15288W        W58200  19.954  22.696  31.845 -0.3263  0.4301  0.0714
15289W        W58201  19.956  23.999   1.825  0.1515  0.0625  0.0207
15290W        W58202  20.805  21.711  28.970  0.0338 -0.1980 -0.0128
15291W        W58203  22.655  24.709   1.213 -0.0068  0.1183  0.1319
15292W        W58204  19.122  23.853   1.940 -0.0186 -0.2996 -0.2300
15293W        W58205  19.254  23.587   2.906 -0.0438  0.0456 -0.1403
15294W        W58206  21.823  24.872  31.313 -0.1537  0.1667  0.2117
15295W        W58207  19.087  21.100   2.786 -0.2334  0.0217  0.0978
15296W        W58208  20.232  22.305  31.836  0.0635  0.0546 -0.3784
15297W        W58209  19.762  21.174   1.492 -0.1117 -0.0785  0.1506
15298W        W58210  18.210  22.993   0.135  0.1004 -0.1611 -0.2766
15299W        W58211  21.518  21.701   2.554  0.1835 -0.1235 -0.2321
15300W        W58212  19.551  21.796   3.280 -0.2066  0.0555 -0.1983
15301W        W58213  19.131  21.902   4.260  0.0756  0.2965  0.0005
15302W        W58214  20.498  22.319   3.721 -0.0317 -0.1489 -0.0056
15303W        W58215  23.642  25.190   0.220  0.1050  0.2823  0.2190
15304W        W58216  20.229  21.927   0.473 -0.0956  0.0729 -0.1935
15305W        W58217  18.861  22.342  31.940  0.4164 -0.0301 -0.4405
15306W        W58218  18.764  21.679   3.481  0.1106 -0.1842  0.1087
15307W        W58219  20.052  22.777   2.593 -0.2673 -0.0013 -0.1703
15308W        W58220  19.231  24.318   0.919  0.2466  0.0050  0.0586
15309W        W58221  20.887  23.328   2.736 -0.2493  0.1230 -0.0497
15310W        W58222  21.231  22.626   2.409  0.0034  0.2043  0.1492
15311W        W58223  19.614  21.342   3.663  0.2889  0.3435 -0.0722
15312W        W58224  19.109  21.061  30.277  0.0730 -0.1588 -0.0850
15313W        W58225  18.202  24.179  31.545  0.0245  0.0263 -0.0391
15314W        W58226  19.055  23.209   0.104 -0.1682 -0.1480 -0.4090
15315W        W58227  19.129  22.048   2.048  0.0974  0.0538 -0.1255
15316W        W58228  20.460  23.625   1.080 -0.0927  0.0093  0.1015
15317W        W58229  21.195  22.907  30.293 -0.1473 -0.0717  0.1175
15318W        W58230  18.721  24.470   3.133 -0.0425  0.2473 -0.1804
15319W        W58231  18.671  23.198   0.883  0.1698  0.1423 -0.5111
15320W        W58232  20.807  20.779   1.837 -0.0197 -0.3934 -0.0732
15321W        W58233  17.572  24.655   1.220 -0.0109 -0.2610 -0.0367
15322W        W58234  19.746  21.758  31.693 -0.0324 -0.3132  0.0730
15323W        W58235  17.914  21.547   1.192  0.2852  0.0403  0.1038
15324W        W58236  20.637  20.380   1.542  0.0302 -0.1464  0.0126
15325W        W58237  20.602  24.308   0.291 -0.0037  0.2548  0.3927
15326W        W58238  18.253  21.491   2.726  0.3447 -0.3412  0.3060
15327W        W58239  18.409  21.531   1.609  0.1532  0.1147 -0.2992
15328W        W58240  17.205  25.861   0.804  0.1109 -0.2377 -0.2380
15329W        W58241  19.751  23.232   1.631 -0.1812  0.0306 -0.0213
15330W        W58242  21.540  21.040  31.935 -0.2184 -0.0474  0.0866
15331W        W58243  20.539  24.656   1.477 -0.2200 -0.2247 -0.1874
15332W        W58244  19.031  22.829   2.171  0.0535 -0.0816 -0.2939
15333W        W58245  19.410  22.895  29.350 -0.1480 -0.2302  0.0686
15334W        W58246  20.641  22.115   1.713  0.1261  0.0151  0.3477
15335W        W58247  19.343  21.309   1.247 -0.2469  0.0213  0.1590
15336W        W58248  18.284  25.020   1.909 -0.3263  0.3303 -0.1147
15337W        W58249  20.424  23.921   0.659  0.0086  0.0600  0.2461
15338W        W58250  19.933  21.436  31.348  0.1418 -0.0428  0.3010
15339W        W58251  19.983  24.705   0.067  0.0218  0.1408 -0.1971
15340W        W58252  18.866  22.088   3.748 -0.0939  0.0956  0.0714
15341W        W58253  21.225  22.601   1.507 -0.1957 -0.3402  0.0157
15342W        W58254  19.731  22.060   0.559  0.3791 -0.2094  0.2885
15343W        W58255  19.566  20.918   0.070  0.2317 -0.1358 -0.1180
15344W        W58256  21.156  21.264  31.783 -0.2794 -0.0272 -0.1408
15345W        W58257  19.348  25.171   1.963 -0.0253 -0.0260 -0.0774
15346W        W58258  19.021  21.690   1.720 -0.1289 -0.4525 -0.0792
15347W        W58259  20.265  24.057   2.207  0.0396  0.1303  0.0235
15348W        W58260  19.109  22.050   3.237  0.1690  0.1056 -0.1487
15349W        W58261  20.901  24.549   1.806  0.0675 -0.0234  0.0640
15350W        W58262  19.162  21.620   2.959 -0.0238 -0.0877  0.1074
15351W        W58263  18.201  23.383   0.872  0.0337  0.2955  0.1292
15352W        W58264  18.758  22.364   0.487  0.2152 -0.1091  0.3259
15353W        W58265  18.752  24.221   0.584  0.1189 -0.0476  0.0280
15354W        W58266  19.226  21.232   3.308 -0.0470 -0.2085 -0.0683
15355W        W58267  18.624  23.765   2.025 -0.0892 -0.2765 -0.0356
15356W        W58268  18.377  21.887  31.976  0.1879 -0.1489  0.1059
15357W        W58269  18.482  24.224   1.445 -0.0981 -0.1037  0.3800
15358W        W58270  21.748  20.574  31.033  0.2890 -0.2075 -0.0676
15359W        W58271  20.319  23.549   0.317 -0.0519  0.0367  0.0763
15360W        W58272  20.234  22.753   0.601 -0.0247 -0.0226  0.1970
15361W        W58273  22.063  22.573   2.574  0.1488 -0.0707  0.0748
15362W        W58274  20.665  22.277   0.399  0.3733 -0.1447  0.0076
15363W        W58275  21.326  20.844   4.626 -0.0320  0.3826  0.4017
15364W        W58276  20.266  22.420   2.282  0.2764  0.1752  0.1324
15365W        W58277  21.139  25.309   1.520  0.1736  0.2671 -0.2842
15366W        W58278  17.134  22.708   2.435  0.2574 -0.2377  0.2718
15367W        W58279  20.828  25.164   4.165 -0.1685 -0.3249  0.3076
15368W        W58280  19.032  24.078   3.294 -0.0435 -0.0080 -0.0812
15369W        W58281  19.721  20.497   0.875  0.3704  0.0698 -0.0858
15370W        W58282  20.076  19.482  31.061 -0.1759 -0.0873 -0.0147
15371W        W58283  19.372  21.381  31.832  0.3421 -0.2259 -0.1668
15372W        W58284  21.266  24.460   2.154  0.1987 -0.1308 -0.1083
15373W        W58285  19.934  22.830  30.091 -0.1845  0.0265 -0.0263
15374W        W58286  21.147  22.598   0.431 -0.0945  0.1617 -0.2331
15375W        W58287  19.488  22.913   1.923  0.3267 -0.1037  0.1520
15376W        W58288  20.920  22.887  31.425  0.1350  0.0630 -0.1301
15377W        W58289  20.726  22.391  30.885  0.0880 -0.1761  0.1557
15378W        W58290  19.200  23.989   1.305  0.1720 -0.0103  0.3560
15379W        W58291  19.160  21.878   2.510  0.0104 -0.0591  0.2242
15380W        W58292  21.331  25.915   1.152  0.0400  0.0683  0.1681
15381W        W58293  20.574  22.031   0.824  0.3241  0.2818  0.1042
15382W        W58294  19.856  21.333   3.182  0.1323  0.3206  0.4904
15383W        W58295  20.710  22.642   2.336 -0.1327  0.1913  0.1228
15384W        W58296  19.504  21.405   2.598  0.3290 -0.0514  0.0157
15385W        W58297  16.797  22.350   3.190 -0.1461  0.0496  0.0882
15386W        W58298  20.331  25.262   0.691 -0.0686  0.3594 -0.1130
15387W        W58299  20.737  22.584  31.792  0.2061 -0.0385  0.1396
15388W        W58300  19.462  22.172   3.602 -0.0919 -0.2634 -0.3509
15389W        W58301  22.121  24.175   1.704 -0.1577  0.1279 -0.4699
15390W        W58302  21.358  22.161  31.591  0.0553  0.2231 -0.2659
15391W        W58303  18.547  22.291   1.473 -0.1005  0.0861 -0.0148
15392W        W58304  19.701  22.234   3.178  0.1232  0.3383  0.0146
15393W        W58305  19.527  21.685  31.185 -0.0868 -0.0194  0.3474
15394W        W58306  20.974  21.761   3.577  0.0713 -0.1242  0.1355
15395W        W58307  19.689  23.653  31.552 -0.1308  0.4458  0.6738
15396W        W58308  20.712  23.400   0.552 -0.1528 -0.3133  0.1921
15397W        W58309  20.873  21.635   1.887  0.1749  0.0143  0.0595
15398W        W58310  19.035  22.715   1.721 -0.0198  0.0510 -0.2465
15399W        W58311  18.215  24.403   3.003 -0.1747  0.0387 -0.0599
15400W        W58312  19.752  21.649   1.224 -0.2085  0.0037  0.2676
15401W        W58313  19.386  22.122  30.375 -0.3221 -0.0356 -0.0659
15402W        W58314  19.935  23.513   3.366 -0.2057 -0.0929 -0.0365
15403W        W58315  21.870  22.193   2.816 -0.0422  0.1189 -0.0289
15404W        W58316  20.762  21.027  31.614  0.2705  0.1674  0.1995
15405W        W58317  21.742  22.416   3.272  0.1627  0.0293  0.0456
15406W        W58318  18.061  23.955   1.318 -0.1251  0.0405  0.0068
15407W        W58319  18.515  21.840  30.308  0.1099 -0.2826  0.0461
15408W        W58320  19.084  24.476   2.558  0.3829 -0.0487  0.0070
15409W        W58321  17.638  24.490   3.056 -0.3244 -0.0578  0.0462
15410W        W58322  19.693  23.717   1.478 -0.0845  0.0159  0.2086
15411W        W58323  19.766  20.954   2.519  0.0461 -0.2784 -0.1392
15412W        W58324  20.961  23.098   2.274  0.1081  0.3692 -0.0596
15413W        W58325  19.017  20.180  31.877 -0.0530  0.0569 -0.0673
15414W        W58326  22.561  22.876   3.033  0.0240 -0.3254 -0.0943
15415W        W58327  20.416  24.580   2.155  0.0550 -0.0391 -0.0797
15416W        W58328  18.997  23.547   1.073  0.1758 -0.0781 -0.4367
15417W        W58329  21.027  24.706   3.578 -0.2864  0.2909 -0.2390
15418W        W58330  21.754  23.262   1.024  0.0865 -0.1766 -0.0190
15419W        W58331  18.292  22.437   0.767  0.2119 -0.0586 -0.0306
15420W        W58332  17.918  22.317   3.262  0.3221 -0.0139 -0.2086
15421W        W58333  18.928  22.669   3.970 -0.4234 -0.0286  0.3514
15422W        W58334  19.673  24.792   1.810  0.1150 -0.2118 -0.0782
15423W        W58335  18.708  21.411  31.162  0.0856  0.3757 -0.0751
15424W        W58336  20.975  21.816  30.619  0.0912 -0.0234  0.0223
15425W        W58337  19.401  25.360   4.084  0.1299 -0.4025 -0.0949
15426W        W58338  19.351  24.192   2.903  0.0511 -0.3297 -0.1374
15427W        W58339  16.706  22.865  31.078  0.1579 -0.1367 -0.1768
15428W        W58340  21.174  23.487   0.305 -0.4335  0.2061  0.1012
15429W        W58341  19.840  23.030   0.822 -0.0945 -0.2587 -0.0486
15430W        W58342  20.939  25.195   2.522 -0.0973  0.0981 -0.0610
15431W        W58343  19.943  20.877   0.566 -0.0906 -0.1919 -0.0657
15432W        W58344  18.366  24.971   0.685  0.0313 -0.0436  0.2434
15433W        W58345  17.875  24.718   0.619  0.3027 -0.0091 -0.2213
15434W        W58346  20.118  24.313  30.911  0.1553 -0.3453 -0.3433
15435W        W58347  18.973  25.182   0.527 -0.3964  0.0764  0.0438
15436W        W58348  21.863  23.921   2.387  0.0902  0.2743  0.0535
15437W        W58349  20.524  21.557  30.313 -0.3104 -0.0389  0.4930
15438W        W58350  21.309  23.673   1.338  0.0643  0.0711  0.1435
15439W        W58351  22.725  23.500   0.286 -0.1766  0.3336  0.1613
15440W        W58352  21.169  23.744   4.091 -0.1263  0.0249  0.1546
15441W        W58353  19.489  21.491   4.146  0.1495 -0.0180 -0.0874
15442W        W58354  20.533  20.516  31.099 -0.2099  0.1775 -0.2072
15443W        W58355  18.776  22.918   2.586  0.1516 -0.4242 -0.2497
15444W        W58356  21.915  22.033   3.665 -0.0935  0.1472  0.0813
15445W        W58357  18.477  25.218   2.451  0.1801 -0.2152 -0.1715
15446W        W58358  21.577  26.413   1.080 -0.1113 -0.1820  0.0291
15447W        W58359  19.169  21.473  30.973 -0.1135  0.4806  0.2892
15448W        W58360  19.480  21.335   0.380  0.0040  0.1378  0.0615
15449W        W58361  22.303  22.301   1.914  0.3541 -0.1467 -0.1881
15450W        W58362  20.664  23.468  31.752  0.0360 -0.1711  0.2022
15451W        W58363  20.760  22.838   1.445 -0.1390  0.3367 -0.3420
15452W        W58364  18.811  25.477   0.998  0.0363 -0.1901  0.3339
15453W        W58365  19.524  24.119   1.995  0.1699 -0.2962 -0.1997
15454W        W58366  19.020  25.830   2.304 -0.1281 -0.1130  0.2979
15455W        W58367  18.435  23.266   1.465  0.1476  0.0175 -0.1494
15456W        W58368  23.040  22.449   1.070  0.2341  0.2639 -0.1503
15457W        W58369  19.106  23.329   0.606  0.0259 -0.2287  0.3078
15458W        W58370  21.116  20.278   2.628  0.0189 -0.1075  0.0239
15459W        W58371  19.910  23.764   0.697 -0.2511  0.3134  0.0087
15460W        W58372  21.622  22.085   0.610 -0.1211 -0.1845 -0.0536
15461W        W58373  19.233  20.627   2.849 -0.2035  0.1977  0.0861
15462W        W58374  19.023  22.752   3.056  0.0501 -0.1820 -0.1877
15463W        W58375  20.028  22.656  31.341 -0.0434 -0.1281  0.5093
15464W        W58376  20.280  23.507   2.974  0.1831  0.0045  0.1119
15465W        W58377  20.426  23.025  31.505  0.0788 -0.1148 -0.0094
15466W        W58378  21.440  23.298   5.534  0.0803 -0.4516 -0.1516
15467W        W58379  19.876  21.677   0.220  0.0781  0.0016 -0.0355
15468W        W58380  20.149  20.524  30.177  0.1507  0.0158 -0.3242
15469W        W58381  18.081  23.777   2.311  0.3037 -0.3682 -0.2130
15470W        W58382  19.616  23.552   1.957 -0.2176 -0.1596 -0.1921
15471W        W58383  20.620  23.536   2.374  0.0607 -0.1701  0.0690
15472W        W58384  18.745  20.636  31.985 -0.2964  0.0330 -0.1958
15473W        W58385  20.753  23.758   0.214 -0.0122  0.0793 -0.0691
15474W        W58386  21.570  23.493   2.301 -0.0910 -0.1087 -0.0085
15475W        W58387  19.330  23.808   0.716 -0.0417 -0.1309  0.2858
15476W        W58388  20.728  21.995  31.628  0.2893  0.0044  0.0909
15477W        W58389  20.795  25.518   0.756  0.2894 -0.1152 -0.4019
15478W        W58390  17.554  22.039   2.284  0.3056  0.0574  0.6633
15479W        W58391  20.762  24.287   0.799  0.0522 -0.0012  0.1645
15480W        W58392  21.587  24.960   1.247 -0.1453 -0.1181  0.2177
15481W        W58393  20.098  21.317   2.014  0.5917 -0.2245  0.0127
15482W        W58394  19.067  22.224   1.556  0.2290  0.0075  0.2575
15483W        W58395  18.298  24.472   0.426  0.0950  0.2194 -0.1426
15484W        W58396  21.328  23.095   2.648  0.0899  0.0866  0.1077
15485W        W58397  21.512  23.468   2.993  0.1567 -0.1543 -0.1758
15486W        W58398  19.891  25.798  31.874 -0.4295 -0.2971  0.0473
15487W        W58399  21.914  21.505   4.941 -0.3356 -0.3216  0.1043
15488W        W58400  21.214  24.313   2.720 -0.5236 -0.0574  0.0188
15489W        W58401  20.053  23.702   2.547  0.2932  0.0696  0.4763
15490W        W58402  17.543  23.244  30.820 -0.0337  0.2324 -0.1364
15491W        W58403  20.481  23.062   2.658  0.0213 -0.1902 -0.2013
15492W        W58404  20.248  23.289   0.759  0.0133 -0.0929 -0.0455
15493W        W58405  20.502  22.628   1.017  0.0482  0.2319 -0.1056
15494W        W58406  20.899  23.198   1.051 -0.1875  0.0038  0.1905
15495W        W58407  19.646  21.936   2.756 -0.1269 -0.0834  0.3176
15496W        W58408  20.899  24.371   1.311 -0.1910  0.1666  0.0302
15497W        W58409  19.383  20.804   1.141 -0.1858  0.2149  0.0735
15498W        W58410  20.994  20.780  30.962 -0.1863  0.1420  0.3627
15499W        W58411  20.297  19.724   2.754 -0.2883 -0.3516 -0.0191
15500W        W58412  18.238  23.184   1.916 -0.2054 -0.0733 -0.2242
15501W        W58413  19.495  21.606  30.638 -0.1938  0.0128  0.0091
15502W        W58414  19.792  22.567  30.858 -0.2409 -0.2083  0.2815
15503W        W58415  18.045  25.622   2.397 -0.0782  0.1774 -0.0653
15504W        W58416  20.967  21.844   2.901  0.1345 -0.2279  0.0862
15505W        W58417  17.506  22.534   2.174 -0.0371 -0.1753  0.0085
15506W        W58418  19.540  23.410   0.865 -0.1334  0.1985 -0.2332
15507W        W58419  18.941  21.855   0.202 -0.1449  0.3711 -0.0068
15508W        W58420  20.101  24.168  31.417  0.1062 -0.0401  0.1276
15509W        W58421  20.871  19.345   2.592 -0.0188 -0.2140 -0.1255
15510W        W58422  17.327  22.862   0.871 -0.3275 -0.0252 -0.0556
15511W        W58423  20.819  25.087   1.071  0.1210 -0.0603 -0.0688
15512W        W58424  21.934  25.788   0.389 -0.1444  0.3540 -0.0141
15513W        W58425  20.138  20.252   1.572  0.1256  0.0095  0.2396
15514W        W58426  22.301  24.256   2.158  0.1349  0.0529  0.0892
15515W        W58427  18.534  23.661   0.699 -0.0417  0.1134  0.1048
15516W        W58428  20.045  21.761   2.927  0.0258 -0.0643 -0.1119
15517W        W58429  19.776  23.040   3.480 -0.2631  0.1110  0.2087
15518W        W58430  19.732  20.532   0.319 -0.2345 -0.0349  0.0351
15519W        W58431  20.098  22.187   1.838  0.2221 -0.0861  0.4654
15520W        W58432  20.875  23.118   0.093  0.2563  0.0221 -0.8368
15521W        W58433  19.479  25.618  31.547  0.0267  0.0361  0.1948
15522W        W58434  20.170  23.653   1.541  0.1952 -0.0037  0.0362
15523W        W58435  19.937  24.442   2.048  0.2444  0.3116 -0.1074
15524W        W58436  18.175  21.957   1.387  0.2212 -0.0286  0.0201
15525W        W58437  20.969  23.862   1.052 -0.1264 -0.2164 -0.1432
15526W        W58438  19.528  23.602   2.462  0.1137 -0.4146  0.2278
15527W        W58439  22.917  24.274   0.981  0.0158 -0.1781  0.0818
15528W        W58440  20.281  21.363   1.531  0.0005 -0.0433  0.0965
15529W        W58441  20.019  22.216   2.694 -0.1404  0.1135  0.2231
15530W        W58442  18.626  21.828   2.330  0.3659 -0.2561  0.1040
15531W        W58443  19.896  23.127   2.242 -0.0691  0.0553  0.3539
15532W        W58444  20.373  22.972   2.190  0.1742 -0.0907 -0.0325
15533W        W58445  18.721  21.443  31.835  0.4785 -0.1031  0.0605
15534W        W58446  20.076  19.728   0.274 -0.0727 -0.0565 -0.0719
15535W        W58447  19.949  23.363   1.208  0.4170 -0.0322  0.0987
15536W        W58448  18.767  22.336   2.872 -0.0004 -0.2182 -0.2073
15537W        W58449  19.753  21.146   0.924  0.0103  0.1848 -0.1285
15538W        W58450  20.116  21.768   2.379  0.0506  0.2608  0.0745
15539W        W58451  21.253  23.668   2.631  0.3174  0.0347  0.1420
15540W        W58452  20.358  23.521   3.576  0.2356  0.3459 -0.2648
15541W        W58453  20.443  21.099  31.175 -0.1784 -0.0597 -0.2917
15542W        W58454  21.900  24.489  31.685  0.0500 -0.1614  0.2168
15543W        W58455  20.682  23.960   3.366 -0.0319 -0.2432 -0.2372
15544W        W58456  22.544  23.572   4.323 -0.0433 -0.0590 -0.2459
15545W        W58457  19.939  25.024   2.202 -0.5205  0.0993 -0.1311
15546W        W58458  21.830  23.693   1.327  0.2081 -0.1583 -0.1019
15547W        W58459  18.600  20.364   1.706 -0.0894 -0.3853 -0.2577
15548W        W58460  19.734  22.151   0.008  0.1417 -0.1969 -0.1525
15549W        W58461  18.788  24.035   1.066  0.1576 -0.1115 -0.0699
15550W        W58462  21.835  23.150   1.963  0.0498 -0.1668  0.0072
15551W        W58463  19.239  22.421   1.136 -0.2151 -0.1436  0.1030
15552W        W58464  19.809  20.526  31.752  0.0684  0.1328  0.1730
15553W        W58465  18.964  25.018   1.515 -0.2160 -0.0303 -0.0013
15554W        W58466  20.561  23.689   1.898 -0.0139 -0.0924  0.1481
15555W        W58467  20.434  24.252   6.151  0.0036  0.1347  0.4387
15556W        W58468  19.840  20.279   4.911 -0.0448  0.0224  0.1469
15557W        W58469  20.486  22.420   4.264 -0.0150 -0.0321  0.1061
15558W        W58470  21.997  22.588   5.837 -0.0473 -0.2390 -0.0160
15559W        W58471  18.734  21.657   5.010 -0.1770  0.0697 -0.2040
15560W        W58472  20.653  25.145   4.755 -0.1491  0.0084  0.0570
15561W        W58473  18.960  21.448   6.343 -0.0881  0.1614  0.0700
15562W        W58474  19.566  25.217   6.154 -0.2069  0.1036  0.0379
15563W        W58475  20.848  24.526   6.490 -0.0969  0.5114 -0.0232
15564W        W58476  19.852  23.207   2.812  0.4121  0.0989 -0.0243
15565W        W58477  18.873  21.339   7.293 -0.2970  0.0755 -0.1440
15566W        W58478  18.890  25.261   5.962  0.2318  0.1875 -0.0434
15567W        W58479  19.721  21.805   3.841  0.0427 -0.3110 -0.0655
15568W        W58480  17.634  21.950   5.629  0.2496  0.0978 -0.0837
15569W        W58481  20.488  23.194   5.818  0.3027  0.3775  0.1804
15570W        W58482  18.273  22.978   2.583  0.1089 -0.0706  0.0418
15571W        W58483  18.007  23.083   5.569  0.0991 -0.1236  0.2229
15572W        W58484  19.612  22.813   4.838  0.1536  0.2550 -0.1198
15573W        W58485  19.267  25.162   4.733 -0.2136 -0.3667 -0.3167
15574W        W58486  19.000  21.397   6.811 -0.1186  0.2251  0.2608
15575W        W58487  18.803  22.297   6.828 -0.0322  0.0997  0.1973
15576W        W58488  18.797  23.414   4.648  0.4603 -0.1514  0.0142
15577W        W58489  18.321  23.464   2.740  0.1103 -0.0517 -0.2452
15578W        W58490  17.074  23.888   4.648  0.1961  0.1724 -0.2280
15579W        W58491  18.476  22.977   5.517  0.2988 -0.1249  0.0377
15580W        W58492  19.554  22.949   5.709 -0.1551  0.0693 -0.0851
15581W        W58493  21.476  23.534   5.027 -0.3301  0.1018 -0.3292
15582W        W58494  19.077  25.540   4.430 -0.1019 -0.1358  0.1058
15583W        W58495  19.557  24.222   3.558  0.0776 -0.0845 -0.1718
15584W        W58496  21.660  21.997   7.970 -0.1603  0.1637 -0.0956
15585W        W58497  18.003  23.032   3.490 -0.1044 -0.4798 -0.2035
15586W        W58498  18.881  25.530   5.408  0.1182  0.2963 -0.1699
15587W        W58499  19.851  24.379   3.096 -0.2556  0.1030 -0.1896
15588W        W58500  21.223  24.536   5.310  0.2023 -0.1471 -0.4025
15589W        W58501  20.632  24.877   7.600 -0.0115 -0.2722  0.2585
15590W        W58502  20.463  24.040   8.379 -0.0959 -0.2274 -0.1111
15591W        W58503  19.534  25.557   4.584 -0.1804  0.1245 -0.1832
15592W        W58504  20.312  24.614   6.454  0.2821  0.0908 -0.1810
15593W        W58505  18.730  22.640   5.919  0.3283 -0.1099  0.2215
15594W        W58506  19.564  21.781   5.432 -0.0747 -0.4305 -0.1079
15595W        W58507  19.433  23.775   5.510  0.1606 -0.0095  0.1359
15596W        W58508  21.352  24.021   2.316 -0.4048 -0.0060  0.1999
15597W        W58509  19.210  22.898   4.323  0.5153  0.2185  0.0075
15598W        W58510  19.631  22.451   6.125 -0.1853  0.2438  0.0189
15599W        W58511  18.246  23.213   5.152 -0.1226 -0.0947 -0.1116
15600W        W58512  21.378  22.198   6.444  0.3502  0.3312  0.0124
15601W        W58513  19.523  25.145   2.463 -0.5622  0.0570 -0.3268
15602W        W58514  20.533  21.858   3.196 -0.0029 -0.5539  0.2374
15603W        W58515  18.163  23.602   3.256  0.1831  0.1544 -0.4013
15604W        W58516  20.462  21.642   4.445 -0.1627 -0.1737  0.4891
15605W        W58517  20.778  20.597   5.189 -0.0341  0.0701  0.1713
15606W        W58518  20.153  24.174   6.521  0.0351  0.0194 -0.0024
15607W        W58519  18.447  21.030   5.595  0.3169  0.1075 -0.0197
15608W        W58520  21.292  24.284   6.515  0.0189  0.0856  0.0016
15609W        W58521  19.218  23.384   4.130  0.3061 -0.0539 -0.0152
15610W        W58522  20.511  22.133   5.241 -0.2645  0.2663  0.0651
15611W        W58523  18.681  23.238   5.923 -0.0821 -0.1261  0.1565
15612W        W58524  17.769  23.732   5.658  0.1221 -0.0633 -0.4560
15613W        W58525  21.927  22.578   2.085 -0.1629  0.3835  0.1500
15614W        W58526  20.558  23.517   4.172 -0.2218 -0.1157  0.2232
15615W        W58527  20.751  24.136   4.213  0.1510  0.0648  0.2352
15616W        W58528  18.643  22.416   6.302  0.0842 -0.0478 -0.2570
15617W        W58529  17.586  23.529   7.064 -0.1609  0.0710  0.1746
15618W        W58530  18.061  24.502   6.775  0.1501 -0.0775 -0.0894
15619W        W58531  18.039  20.470   3.371  0.0172 -0.2139 -0.4413
15620W        W58532  22.014  23.895   7.341  0.1250 -0.1209  0.1730
15621W        W58533  17.752  24.171   6.419 -0.1771  0.2071 -0.0092
15622W        W58534  20.975  21.958   5.327  0.1304  0.2471 -0.0811
15623W        W58535  17.969  24.385   3.655  0.1423 -0.2177 -0.1139
15624W        W58536  19.698  24.944   4.905  0.4206 -0.0798  0.0233
15625W        W58537  20.727  22.786   3.258 -0.0137  0.0370 -0.3785
15626W        W58538  20.943  22.580   4.633  0.1217 -0.0234  0.0704
15627W        W58539  19.995  21.132   5.235 -0.2975 -0.1108 -0.4869
15628W        W58540  20.186  22.826   4.034 -0.3161 -0.2728  0.0619
15629W        W58541  20.691  23.135   3.824  0.0820  0.0812  0.0973
15630W        W58542  21.875  24.539   8.047  0.1736  0.0119  0.2056
15631W        W58543  22.250  23.394   4.624 -0.2632  0.1112 -0.1924
15632W        W58544  18.511  24.017   5.484  0.2687  0.1010 -0.0576
15633W        W58545  19.005  21.597   5.868  0.1414  0.2163  0.2542
15634W        W58546  19.071  22.988   6.120  0.0750 -0.1622  0.0034
15635W        W58547  18.792  25.038   3.347 -0.0172  0.0375 -0.1296
15636W        W58548  17.594  23.649   6.127  0.2147 -0.0654 -0.3138
15637W        W58549  18.799  23.357   2.853  0.2947  0.0523 -0.0066
15638W        W58550  18.143  20.084   6.816  0.0645  0.1410  0.1284
15639W        W58551  19.556  24.296   4.685  0.1974 -0.0303 -0.0155
15640W        W58552  20.843  21.560   5.058 -0.0245  0.0823 -0.0288
15641W        W58553  18.073  22.817   7.073  0.1672 -0.0070 -0.1211
15642W        W58554  20.129  20.348   4.439 -0.0967  0.2922  0.2395
15643W        W58555  17.760  24.140   4.066 -0.2574  0.0382 -0.1265
15644W        W58556  20.722  25.168   5.285 -0.2884 -0.2233  0.2168
15645W        W58557  21.923  21.430   5.466 -0.1094  0.1898  0.0430
15646W        W58558  21.227  23.478   4.541  0.3264 -0.0500 -0.0726
15647W        W58559  17.909  22.577   5.499  0.0911  0.1539  0.4247
15648W        W58560  18.471  24.666   4.568 -0.1347  0.0740 -0.1869
15649W        W58561  19.518  23.009   7.177  0.2680  0.2002  0.0697
15650W        W58562  17.776  22.333   6.692  0.0363 -0.0144  0.0550
15651W        W58563  20.592  23.489   6.285  0.2298  0.0212  0.0281
15652W        W58564  20.093  22.019   4.815  0.1066  0.2322  0.0605
15653W        W58565  20.771  21.380   4.082  0.0250  0.0844 -0.1498
15654W        W58566  19.915  22.797   4.459 -0.5429 -0.0781 -0.0650
15655W        W58567  18.702  24.333   4.877 -0.2153  0.5545  0.0882
15656W        W58568  21.373  21.213   7.496  0.2810  0.0024  0.0786
15657W        W58569  19.452  24.742   4.380  0.1515 -0.3077  0.0086
15658W        W58570  21.527  25.406   7.768  0.1183 -0.2202  0.2741
15659W        W58571  20.427  25.515   5.578  0.0349 -0.0309  0.4787
15660W        W58572  18.635  21.811   6.316  0.2552 -0.0996 -0.1722
15661W        W58573  18.164  23.978   3.804  0.0492  0.1982  0.1473
15662W        W58574  17.897  25.858   5.746 -0.1975  0.0817  0.2603
15663W        W58575  18.758  25.277   4.755 -0.0371  0.1711  0.0240
15664W        W58576  18.750  22.655   4.501 -0.0398  0.0229  0.0480
15665W        W58577  21.238  24.788   5.787  0.0016 -0.1502  0.2785
15666W        W58578  19.978  24.635   4.639 -0.0533 -0.2086  0.1473
15667W        W58579  18.051  23.166   6.604  0.4335 -0.0784 -0.1628
15668W        W58580  20.405  20.259   6.246  0.1180 -0.2686  0.0086
15669W        W58581  20.345  21.976   5.891 -0.1945 -0.1721  0.1129
15670W        W58582  20.451  23.242   5.224  0.0356  0.0106  0.1842
15671W        W58583  18.505  21.064   2.808 -0.2725 -0.0024 -0.2188
15672W        W58584  20.465  25.519   5.033 -0.1518  0.3013 -0.2659
15673W        W58585  18.580  24.625   2.654 -0.0091 -0.1905  0.1142
15674W        W58586  18.531  23.811   4.882 -0.0507  0.1068 -0.2290
15675W        W58587  20.208  25.841   4.204  0.4257  0.1601  0.2138
15676W        W58588  20.933  20.782   3.993 -0.0248  0.2166 -0.1502
15677W        W58589  18.742  23.196   7.760  0.0220 -0.1192  0.1008
15678W        W58590  20.728  21.174   6.873 -0.2046 -0.1306 -0.2603
15679W        W58591  17.792  22.835   2.527 -0.1027  0.0292  0.0108
15680W        W58592  19.108  24.429   6.531  0.2221  0.1916 -0.2877
15681W        W58593  20.384  21.456   5.169  0.1219 -0.1776  0.3415
15682W        W58594  19.848  22.596   3.712  0.1416 -0.0679 -0.0603
15683W        W58595  20.856  22.821   6.644 -0.3013  0.3703 -0.2104
15684W        W58596  20.827  22.710   4.078  0.1088 -0.1833  0.2194
15685W        W58597  19.311  20.663   3.795  0.0228 -0.2881 -0.2933
15686W        W58598  20.774  21.902   4.021 -0.1687 -0.2760 -0.2629
15687W        W58599  18.096  24.020   7.961  0.0124  0.1143  0.0333
15688W        W58600  19.267  24.216   4.165  0.3626 -0.0902 -0.2122
15689W        W58601  19.822  24.493   5.076 -0.1880  0.2836  0.1686
15690W        W58602  19.680  23.917   5.063 -0.2501  0.0669 -0.2116
15691W        W58603  20.736  24.692   5.512  0.0294  0.0199  0.2105
15692W        W58604  19.099  23.321   6.457  0.0122  0.0317 -0.1619
15693W        W58605  20.419  22.929   6.318 -0.1942 -0.0331 -0.0494
15694W        W58606  19.046  24.026   4.671  0.4137  0.0235  0.1675
15695W        W58607  19.467  20.367   6.515  0.0222 -0.1524 -0.0036
15696W        W58608  19.320  23.084   3.228  0.1021 -0.1196 -0.1094
15697W        W58609  20.614  21.121   4.926 -0.2063  0.0308  0.0796
15698W        W58610  16.327  25.836   3.271  0.0022 -0.0824 -0.0493
15699W        W58611  20.742  22.210   5.680 -0.0838 -0.2065  0.2347
15700W        W58612  21.432  22.434   4.633 -0.0250 -0.2416 -0.0262
15701W        W58613  19.602  21.407   7.877 -0.0575 -0.2540  0.2315
15702W        W58614  21.682  22.473   6.866  0.0008 -0.3699  0.0682
15703W        W58615  21.305  22.626   4.176  0.1690 -0.1048  0.1155
15704W        W58616  20.145  23.038   4.850  0.1602 -0.0877  0.0241
15705W        W58617  18.411  23.052   3.113  0.3171  0.2076  0.2755
15706W        W58618  19.215  22.550   5.753  0.1742 -0.0440 -0.3660
15707W        W58619  18.645  22.943   5.001  0.3168 -0.0210 -0.0623
15708W        W58620  18.907  23.739   5.650 -0.2300  0.0572 -0.0381
15709W        W58621  21.651  23.770   7.776  0.3465 -0.0160  0.2468
15710W        W58622  20.089  23.295   3.884 -0.0500 -0.0528  0.1590
15711W        W58623  18.903  22.175   5.856 -0.3221 -0.2260  0.2622
15712W        W58624  20.093  21.760   3.468 -0.0140 -0.0949  0.0083
15713W        W58625  19.558  23.448   3.757 -0.0021 -0.0835  0.1915
15714W        W58626  18.677  23.123   4.233 -0.1826  0.1405 -0.3463
15715W        W58627  19.376  21.146   6.034 -0.4450  0.0403 -0.0837
15716W        W58628  19.188  24.417   5.076  0.0317  0.1838  0.1143
15717W        W58629  18.369  22.721   2.208 -0.0515  0.1617 -0.1230
15718W        W58630  19.353  23.917   6.006 -0.1380 -0.0682 -0.0349
15719W        W58631  19.769  25.129   3.868 -0.2707  0.1557  0.0963
15720W        W58632  20.228  22.393   5.657 -0.2358 -0.0089  0.0216
15721W        W58633  18.892  24.611   5.799  0.3112 -0.1009 -0.2850
15722W        W58634  18.728  24.128   3.964 -0.2454  0.2640 -0.1994
15723W        W58635  18.181  23.718   5.292  0.0366  0.0983  0.0912
15724W        W58636  21.061  21.253   4.630  0.1121 -0.3357 -0.0019
15725W        W58637  21.172  23.192   4.014 -0.1035  0.1400 -0.0642
15726W        W58638  17.992  21.860   6.773  0.1752  0.3222 -0.0632
15727W        W58639  20.001  21.343   4.217 -0.3412  0.1674 -0.0308
15728W        W58640  19.118  24.197   5.599  0.0702 -0.0141 -0.1960
15729W        W58641  21.026  23.355   6.576  0.0491  0.1634  0.0882
15730W        W58642  21.303  21.658   4.851 -0.0997 -0.1879 -0.0396
15731W        W58643  19.502  23.618   6.345 -0.2083 -0.2093 -0.1880
15732W        W58644  19.734  23.435   5.884 -0.1070 -0.1259  0.0639
15733W        W58645  17.576  23.178   3.288 -0.0996  0.2250  0.0664
15734W        W58646  22.174  21.488   5.861  0.3113 -0.0225 -0.0261
15735W        W58647  17.304  22.863   4.438  0.3014 -0.0391  0.1826
15736W        W58648  17.760  24.398   4.820 -0.2696  0.1629 -0.0020
15737W        W58649  20.071  24.155   4.796 -0.0300 -0.0647 -0.0426
15738W        W58650  19.526  22.748   2.403  0.1400  0.1624 -0.1835
15739W        W58651  19.195  23.076   4.851  0.0642 -0.2118 -0.2513
15740W        W58652  19.404  22.732   6.520  0.1424 -0.0289  0.1341
15741W        W58653  20.864  23.512   5.874  0.0813 -0.1692 -0.1516
15742W        W58654  19.405  21.397   5.601  0.1335 -0.3156 -0.2987
15743W        W58655  19.390  23.327   5.313  0.0854  0.3470 -0.2140
15744W        W58656  19.925  22.531   5.079 -0.1170  0.0615  0.3186
15745W        W58657  20.188  25.402   6.079 -0.0095 -0.0803 -0.1174
15746W        W58658  18.985  23.093   5.557  0.3594  0.0906 -0.0676
15747W        W58659  20.005  24.170   7.155  0.3378 -0.1134 -0.1596
15748W        W58660  20.444  20.217   6.760 -0.1274 -0.1257  0.1341
15749W        W58661  21.188  24.736   4.039 -0.3712  0.1486 -0.0321
15750W        W58662  21.009  23.938   7.205 -0.3520 -0.1533  0.1216
15751W        W58663  18.309  23.699   4.465 -0.2238 -0.0239  0.3514
15752W        W58664  17.918  23.857   4.839  0.0381  0.0422  0.0508
15753W        W58665  18.530  24.120   4.407 -0.1206 -0.3660 -0.2748
15754W        W58666  20.252  21.855   6.467  0.3116  0.0449  0.2687
15755W        W58667  18.109  23.497   6.024  0.2189 -0.3384 -0.2795
15756W        W58668  18.779  23.356   3.855 -0.3594  0.0332 -0.0896
15757W        W58669  18.196  23.787   6.501  0.0394  0.1543 -0.1767
15758W        W58670  21.811  19.995   3.647 -0.0012  0.0868 -0.0639
15759W        W58671  19.077  23.483   3.360 -0.0011  0.5001 -0.3425
15760W        W58672  19.504  21.301   6.881 -0.1415 -0.0315  0.2179
15761W        W58673  21.369  22.163   5.137  0.0135  0.1400  0.3101
15762W        W58674  19.489  23.758   3.339 -0.2981 -0.2587  0.2174
15763W        W58675  19.820  22.110   6.890 -0.0393  0.1369 -0.0899
15764W        W58676  18.632  20.980   6.998 -0.0488 -0.1439 -0.1747
15765W        W58677  21.335  23.350   6.140 -0.0196  0.1400 -0.1370
15766W        W58678  18.019  22.544   6.317 -0.1378  0.2743  0.0443
15767W        W58679  19.853  23.951   5.915 -0.1601  0.2918 -0.3388
15768W        W58680  18.546  22.265   4.100  0.2108 -0.0308 -0.0695
15769W        W58681  19.233  21.667   3.630 -0.1387 -0.0770 -0.2940
15770W        W58682  17.719  23.289   3.831  0.0155 -0.0310 -0.0647
15771W        W58683  20.694  24.046   6.546  0.2103 -0.1380  0.0257
15772W        W58684  20.551  24.944   3.727  0.2446 -0.1775  0.2207
15773W        W58685  21.537  21.171   4.993 -0.0045 -0.1429 -0.1274
15774W        W58686  19.418  23.830   4.443 -0.0551 -0.2910 -0.1824
15775W        W58687  20.552  23.383   4.697 -0.2795  0.2707 -0.1739
15776W        W58688  20.343  23.719   4.919  0.1333  0.0213 -0.1099
15777W        W58689  17.966  24.026   5.994 -0.0369  0.0365 -0.0314
15778W        W58690  18.619  22.284   7.338  0.3429  0.0525  0.2612
15779W        W58691  19.816  23.397   5.038 -0.0425  0.4227 -0.1420
15780W        W58692  20.412  22.646   5.192 -0.0184 -0.1051  0.1394
15781W        W58693  20.352  21.556   6.878 -0.0470 -0.0197 -0.1735
15782W        W58694  21.378  21.621   7.088  0.3722  0.1196 -0.0945
15783W        W58695  18.600  22.677   7.057  0.1182  0.3589  0.2295
15784W        W58696  18.070  21.909   7.464 -0.0521 -0.2836  0.0387
15785W        W58697  20.689  24.994   6.261  0.0628  0.2254  0.1437
15786W        W58698  22.417  22.734   3.985 -0.0449  0.0173 -0.2738
15787W        W58699  20.529  20.686   6.690  0.2686 -0.3255 -0.0431
15788W        W58700  21.967  22.044   5.272  0.1797  0.0598  0.0295
15789W        W58701  21.061  22.176   4.304  0.1126 -0.0800 -0.3416
15790W        W58702  19.166  22.060   4.777  0.3758  0.1179 -0.1004
15791W        W58703  21.268  23.861   6.780  0.3036  0.2788  0.0244
15792W        W58704  18.270  23.482   3.751 -0.2101 -0.1177 -0.1184
15793W        W58705  20.428  21.411   7.435 -0.2188 -0.1730 -0.2455
15794W        W58706  20.315  24.384   4.321 -0.0846  0.1358 -0.0438
15795W        W58707  20.178  24.090   5.349  0.0754 -0.5639  0.1573
15796W        W58708  22.263  21.504   4.060  0.0698  0.2007  0.1805
15797W        W58709  16.759  24.030   5.060  0.0286  0.1286  0.1023
15798W        W58710  18.966  25.286   6.993 -0.0638 -0.2703  0.0300
15799W        W58711  17.938  22.943   1.514  0.0614 -0.0013 -0.0405
15800W        W58712  20.104  23.580   2.039  0.1127 -0.0288  0.0896
15801W        W58713  19.295  24.905   5.177 -0.0321  0.0648  0.1436
15802W        W58714  22.229  22.430   7.103  0.0016  0.0541  0.0347
15803W        W58715  20.930  21.410   3.218  0.0982 -0.2055  0.1488
15804W        W58716  21.913  22.226   7.514 -0.3332  0.0501  0.1361
15805W        W58717  17.378  24.414   3.862  0.2232  0.2916 -0.0360
15806W        W58718  20.076  21.563   5.556 -0.0886 -0.1569 -0.1097
15807W        W58719  19.380  24.432   6.045 -0.0065 -0.0095  0.0822
15808W        W58720  18.113  24.724   7.228  0.1523  0.0932  0.2102
15809W        W58721  19.031  24.463   4.522 -0.2338 -0.1107  0.0107
15810W        W58722  19.530  21.175   5.104 -0.0302 -0.1474  0.0227
15811W        W58723  20.443  22.943   4.402 -0.2743 -0.0353 -0.0737
15812W        W58724  19.536  23.322   4.527 -0.0510 -0.2296  0.0991
15813W        W58725  21.679  23.883   6.376  0.0707 -0.1223 -0.0942
15814W        W58726  19.667  24.242   5.504  0.1843  0.1357  0.1062
15815W        W58727  20.391  22.492   4.775  0.0613 -0.2081  0.0729
15816W        W58728  21.331  24.266   5.990 -0.0940  0.1412 -0.2141
15817W        W58729  20.561  24.204   5.632 -0.1555  0.1502 -0.0112
15818W        W58730  18.746  23.400   5.178  0.0167 -0.2667  0.0448
15819W        W58731  17.635  22.812   6.446 -0.0249  0.0540 -0.0421
15820W        W58732  19.157  22.891   7.772 -0.0260 -0.1945 -0.0141
15821W        W58733  20.370  24.735   5.952  0.0386 -0.1176  0.0197
15822W        W58734  20.476  21.016   3.852  0.0371 -0.1390  0.1202
15823W        W58735  20.711  23.305   3.239  0.1139  0.1083 -0.0864
15824W        W58736  19.129  24.314   7.185  0.1376 -0.1973  0.1125
15825W        W58737  18.226  24.353   6.354  0.0480 -0.1343  0.1385
15826W        W58738  18.403  24.780   5.064 -0.0005 -0.0104 -0.0133
15827W        W58739  20.362  24.075   3.935  0.0158 -0.0612  0.0811
15828W        W58740  19.688  24.443   4.070 -0.0708 -0.2066  0.2418
15829W        W58741  21.440  24.809   4.447 -0.2030 -0.4011  0.0746
15830W        W58742  17.716  23.771   3.739 -0.1675 -0.1650  0.0110
15831W        W58743  18.045  24.787   5.521 -0.1421 -0.1033 -0.0192
15832W        W58744  17.814  22.839   3.045 -0.0945  0.3458 -0.0474
15833W        W58745  21.241  23.981   5.037  0.0675 -0.7076 -0.1008
15834W        W58746  17.927  24.758   4.491  0.1463  0.2293 -0.2137
15835W        W58747  20.397  23.269   6.688 -0.1513 -0.0996  0.0234
15836W        W58748  20.972  21.700   4.487  0.2516  0.2398  0.0844
15837W        W58749  20.077  23.609   5.481 -0.1420  0.2837  0.1587
15838W        W58750  21.349  22.702   5.086 -0.3051 -0.0317  0.3555
15839W        W58751  21.432  24.286   7.097  0.2571 -0.0222  0.2539
15840W        W58752  19.642  22.062   5.061  0.1963 -0.0720  0.1737
15841W        W58753  20.000  21.868   4.311  0.2966  0.3879 -0.1546
15842W        W58754  18.659  22.100   5.406  0.1293 -0.0044  0.1816
15843W        W58755  21.826  21.122   6.002  0.1816  0.1058  0.1191
15844W        W58756  18.281  25.074   7.548 -0.0729 -0.1910 -0.0474
15845W        W58757  21.007  24.171   3.794 -0.0267 -0.2829 -0.1756
15846W        W58758  18.872  23.759   4.211 -0.0346 -0.1466 -0.0322
15847W        W58759  20.686  22.791   5.541 -0.0198 -0.1832 -0.1746
15848W        W58760  21.621  20.061   5.390  0.1800 -0.0469  0.1207
15849W        W58761  20.653  24.310   2.493  0.0568 -0.0511 -0.3182
15850W        W58762  20.425  21.486   6.050  0.0998  0.0069  0.2084
15851W        W58763  17.929  25.293   5.255 -0.0853 -0.3490  0.0925
15852W        W58764  18.364  23.086   4.596 -0.1635  0.1284 -0.1249
15853W        W58765  18.720  24.515   5.369 -0.0553  0.1600 -0.1785
15854W        W58766  17.682  21.523   5.935  0.1005  0.1866  0.3756
15855W        W58767  21.792  22.736   6.454  0.0648 -0.0283  0.1462
15856W        W58768  20.046  20.480   7.040 -0.2160  0.1464  0.0805
15857W        W58769  22.027  20.349   6.420 -0.2878  0.1274  0.1456
15858W        W58770  17.731  23.435   5.250 -0.2032 -0.1210 -0.3877
15859W        W58771  21.584  22.537   3.747 -0.1071 -0.0320  0.0915
15860W        W58772  18.885  23.657   6.173  0.1774 -0.1997  0.2119
15861W        W58773  18.498  23.185   6.834  0.2339 -0.0000 -0.1652
15862W        W58774  20.891  23.555   3.683  0.1221  0.1753 -0.0421
15863W        W58775  21.858  24.783   6.639  0.0004 -0.3680  0.0956
15864W        W58776  20.879  22.209   3.204  0.0443 -0.2289 -0.0299
15865W        W58777  21.211  24.553   7.991  0.0318 -0.1114 -0.0034
15866W        W58778  17.903  22.361   5.088 -0.0109  0.1458 -0.0481
15867W        W58779  20.266  22.467   3.188 -0.2126 -0.0378  0.1942
15868W        W58780  18.879  24.836   4.952 -0.2369 -0.3262  0.0234
15869W        W58781  19.374  23.573   6.806 -0.1411  0.1558  0.1306
15870W        W58782  21.502  25.068   8.573 -0.1378  0.2577  0.2905
15871W        W58783  18.405  21.310   5.163 -0.0540  0.1492  0.2539
15872W        W58784  22.060  22.677   3.714 -0.1445 -0.0248  0.2661
15873W        W58785  19.364  22.063   5.963  0.0617  0.3221  0.0032
15874W        W58786  20.570  24.451   3.506 -0.2575  0.1095  0.1166
15875W        W58787  19.982  24.411   6.037 -0.3613 -0.1824  0.3184
15876W        W58788  21.276  24.274   4.222 -0.2444 -0.1207  0.2061
15877W        W58789  17.432  22.616   4.882  0.0450  0.1065 -0.2421
15878W        W58790  21.011  25.336   6.420  0.0306  0.0359 -0.5402
15879W        W58791  20.939  24.500   6.999  0.2692 -0.0051 -0.0196
15880W        W58792  19.064  21.407   4.450  0.0145 -0.1586  0.1222
15881W        W58793  19.842  23.726   4.616 -0.1425  0.3647 -0.2371
15882W        W58794  18.475  24.927   5.770 -0.3221 -0.0636  0.1508
15883W        W58795  21.834  21.635   6.172  0.0815  0.0497  0.2861
15884W        W58796  21.516  22.297   5.627 -0.4245  0.0549  0.1506
15885W        W58797  18.619  25.300   2.926 -0.1787  0.1910  0.0630
15886W        W58798  21.195  22.205   5.987 -0.1144  0.1389 -0.0936
15887W        W58799  19.494  24.502   6.836  0.2399  0.1607  0.1518
15888W        W58800  19.740  25.207   7.581 -0.2137 -0.0080 -0.1684
15889W        W58801  17.881  23.614   4.185 -0.0333 -0.2232 -0.3343
15890W        W58802  20.996  22.995   5.935  0.0848 -0.0410 -0.1345
15891W        W58803  19.976  23.815   3.734  0.0894  0.0145  0.2122
15892W        W58804  20.062  24.429   3.696  0.0055  0.2096 -0.1094
15893W        W58805  20.382  24.491   5.109 -0.0505 -0.1762  0.1532
15894W        W58806  19.186  23.862   3.758  0.0386  0.0699 -0.1328
15895W        W58807  20.789  25.787   5.296  0.1926 -0.1994 -0.1725
15896W        W58808  20.043  22.075   5.330  0.0959  0.4634 -0.1308
15897W        W58809  22.059  20.827   5.727 -0.0023  0.1212  0.1870
15898W        W58810  19.489  22.174   4.082 -0.2919 -0.0581 -0.2612
15899W        W58811  18.890  22.739   6.550 -0.1259 -0.0486  0.1230
15900W        W58812  17.889  23.260   2.850  0.1187  0.2464 -0.0847
15901W        W58813  19.895  22.663   2.045  0.0476  0.2829 -0.0010
15902W        W58814  18.685  22.316   4.978  0.1927 -0.2429 -0.3318
15903W        W58815  19.725  22.039   6.377 -0.1115 -0.0567 -0.0408
15904W        W58816  17.736  22.065   7.148  0.0851 -0.2364  0.0299
15905W        W58817  18.486  23.355   6.400 -0.2108 -0.1357  0.1672
15906W        W58818  19.137  22.564   4.826 -0.0914  0.2316  0.2766
15907W        W58819  21.537  24.036   4.588  0.0102  0.1753 -0.0286
15908W        W58820  20.045  21.171   6.897 -0.1696 -0.0620 -0.1729
15909W        W58821  17.578  23.939   4.486 -0.2028 -0.0342 -0.3190
15910W        W58822  20.232  24.969   4.995 -0.0124  0.3045 -0.0984
15911W        W58823  21.477  23.363   3.532 -0.0602 -0.1513 -0.0702
15912W        W58824  19.553  21.900   4.529  0.2645  0.0295  0.0295
15913W        W58825  22.605  24.270   6.290 -0.3159 -0.1042  0.1992
15914W        W58826  19.739  22.737   3.019 -0.3335 -0.0910  0.1510
15915W        W58827  19.119  22.422   6.228  0.1860  0.0602 -0.2326
15916W        W58828  19.073  21.944   6.445 -0.1028 -0.0320 -0.3382
15917W        W58829  18.043  23.125   4.254 -0.0965 -0.2905 -0.0962
15918W        W58830  19.785  23.607   4.163 -0.0878  0.2254  0.3036
15919W        W58831  18.364  25.659   4.511  0.0320  0.0185  0.0775
15920W        W58832  21.850  23.965   4.999  0.2851 -0.1513 -0.1632
15921W        W58833  19.197  24.728   7.441  0.0199  0.4083  0.1813
15922W        W58834  20.496  25.349   6.566 -0.2910 -0.2428  0.1072
15923W        W58835  18.904  20.620   6.765  0.2182 -0.2811  0.2916
15924W        W58836  21.530  23.072   4.332 -0.0826 -0.2736 -0.0935
15925W        W58837  19.182  23.955   6.488  0.0134 -0.1123  0.0918
15926W        W58838  20.878  23.525   5.019 -0.0449  0.1845 -0.0157
15927W        W58839  21.443  21.403   5.810 -0.0975 -0.0709  0.1436
15928W        W58840  21.187  23.126   4.972 -0.1516 -0.0355 -0.2730
15929W        W58841  18.388  23.104   7.390 -0.0259 -0.1720  0.0966
15930W        W58842  21.611  24.303   7.636  0.0758  0.3279 -0.0863
15931W        W58843  17.800  21.860   4.607 -0.0010  0.2012 -0.0289
15932W        W58844  20.674  20.882   3.206  0.3171  0.0379 -0.0853
15933W        W58845  20.930  24.508   4.927  0.1135  0.1599  0.0399
15934W        W58846  19.304  22.798   5.224  0.0445 -0.5443  0.0580
15935W        W58847  19.996  22.399   4.178 -0.1864  0.2533  0.0909
15936W        W58848  20.609  22.399   6.517  0.2111  0.0360 -0.2257
15937W        W58849  20.362  23.847   4.442  0.0141 -0.2542 -0.1186
15938W        W58850  21.532  22.854   6.030  0.0012  0.1158  0.0382
15939W        W58851  19.651  23.057   4.123  0.2467 -0.1201  0.1832
15940W        W58852  21.676  21.974   4.731 -0.0993 -0.3349 -0.0831
15941W        W58853  20.069  24.977   6.260  0.0566 -0.1591 -0.1929
15942W        W58854  21.354  24.703   7.514 -0.0000  0.0561  0.3234
15943W        W58855  20.421  25.338   7.409 -0.1916  0.5586  0.0042
15944W        W58856  21.353  23.427   6.967 -0.1123 -0.0891 -0.1504
15945W        W58857  19.783  21.589   5.050 -0.3217  0.0245  0.0777
15946W        W58858  19.162  22.386   4.385  0.1682  0.2610  0.1590
15947W        W58859  19.734  22.337   4.617  0.0371 -0.4981  0.0186
15948W        W58860  20.931  22.488   5.200 -0.1939  0.1336 -0.0884
15949W        W58861  18.529  21.647   5.564  0.0746 -0.3052 -0.1731
15950W        W58862  20.442  21.366   3.370  0.1476 -0.1461  0.2004
15951W        W58863  19.274  23.600   4.881  0.0426  0.0175  0.1341
15952W        W58864  20.058  24.530   5.550 -0.0657 -0.0952 -0.3959
15953W        W58865  18.676  25.212   9.931 -0.0721  0.2831  0.1789
15954W        W58866  17.598  22.462   8.100  0.2885  0.2903  0.0097
15955W        W58867  21.421  22.127   7.124  0.3504  0.0946 -0.1616
15956W        W58868  21.350  23.762   8.214 -0.0658 -0.1977 -0.3913
15957W        W58869  18.491  21.269   9.501  0.0148 -0.0769  0.0980
15958W        W58870  20.595  24.631   8.586 -0.0832 -0.1049 -0.0459
15959W        W58871  18.803  23.739   9.806  0.0626  0.0606 -0.2002
15960W        W58872  17.393  24.022  10.309 -0.1756 -0.2603  0.4295
15961W        W58873  21.453  22.991   7.210 -0.2305  0.0003  0.0231
15962W        W58874  21.360  24.259  11.791 -0.0769  0.2334 -0.3756
15963W        W58875  19.328  21.688   8.477  0.0211 -0.2576 -0.0418
15964W        W58876  19.050  20.777   8.967 -0.4705  0.0921  0.0735
15965W        W58877  19.797  22.056   9.746  0.0936  0.0474 -0.1302
15966W        W58878  20.401  22.428   7.515 -0.2004 -0.1418 -0.0637
15967W        W58879  19.442  22.751   9.389 -0.0412 -0.2372 -0.2086
15968W        W58880  19.607  21.916   8.859 -0.1623  0.1699 -0.2374
15969W        W58881  19.114  24.889   9.517 -0.3231  0.2937 -0.2299
15970W        W58882  18.535  19.711  11.126 -0.2319  0.2209  0.1648
15971W        W58883  20.476  24.393   7.686 -0.0655 -0.2119 -0.0162
15972W        W58884  18.928  22.869   7.356 -0.1285 -0.1857 -0.1487
15973W        W58885  17.261  22.079   9.170 -0.2028 -0.1033 -0.1801
15974W        W58886  19.014  22.322   9.682 -0.0021  0.0690 -0.0720
15975W        W58887  20.936  21.209   9.708 -0.0937 -0.0042 -0.0402
15976W        W58888  20.789  22.608   8.878 -0.0150 -0.2106 -0.1454
15977W        W58889  19.680  25.411  10.000 -0.1550 -0.1631  0.1953
15978W        W58890  19.754  26.032  10.435 -0.0414 -0.0960  0.1067
15979W        W58891  19.125  22.938   9.797  0.3230  0.1424 -0.4667
15980W        W58892  18.010  24.858   8.635  0.0032 -0.2141  0.3797
15981W        W58893  19.501  23.852   8.421  0.1266  0.2451 -0.0099
15982W        W58894  20.437  23.974   7.410  0.3712  0.1852 -0.1877
15983W        W58895  19.493  24.981   7.133 -0.0039  0.1063 -0.2289
15984W        W58896  21.330  22.339   8.615  0.1439  0.1356 -0.0924
15985W        W58897  20.029  22.190   7.860 -0.2090  0.0600  0.2702
15986W        W58898  19.943  24.143   8.466  0.2153 -0.1007 -0.3162
15987W        W58899  19.703  22.647   6.921  0.2932  0.0249 -0.0771
15988W        W58900  16.615  23.697   9.669 -0.1624  0.1816  0.2104
15989W        W58901  19.186  24.565   8.059  0.2377 -0.2855  0.2344
15990W        W58902  21.614  21.682   7.567 -0.1177  0.1181 -0.2016
15991W        W58903  18.217  22.688   5.851 -0.0071 -0.2650 -0.1355
15992W        W58904  20.299  21.998   7.265  0.1444  0.2652 -0.1295
15993W        W58905  20.588  21.875   7.605 -0.2297 -0.3732 -0.0838
15994W        W58906  18.778  22.941  10.182  0.0296 -0.0236  0.0349
15995W        W58907  17.873  20.150   9.359  0.1282 -0.2769  0.2548
15996W        W58908  20.596  22.603   6.009  0.0339  0.1093  0.2123
15997W        W58909  18.766  21.772   9.543  0.1162 -0.2182  0.0064
15998W        W58910  19.095  23.373  10.053 -0.2785  0.0058  0.1507
15999W        W58911  19.828  22.852   8.988 -0.6702  0.1871  0.0305
16000W        W58912  21.170  25.406   8.663 -0.2886 -0.0511  0.0040
16001W        W58913  19.635  22.945  10.116 -0.1283  0.3851  0.1452
16002W        W58914  19.951  23.698   6.539 -0.0191 -0.1342 -0.0623
16003W        W58915  19.736  21.754   9.369 -0.2234  0.1212 -0.0732
16004W        W58916  18.740  22.274   8.098 -0.1478  0.3589 -0.0896
16005W        W58917  20.650  23.590   9.580 -0.1481 -0.0894 -0.0147
16006W        W58918  19.739  23.949   8.016  0.1856 -0.0499  0.0613
16007W        W58919  21.843  22.803   9.350  0.0978  0.0763  0.3713
16008W        W58920  21.484  23.829   7.270  0.0545 -0.4666 -0.1646
16009W        W58921  20.170  21.042   9.164 -0.0385 -0.1082 -0.1179
16010W        W58922  21.560  20.983  10.455 -0.1746 -0.1548 -0.3380
16011W        W58923  18.019  22.554   7.690 -0.0321  0.0807 -0.0832
16012W        W58924  19.691  22.531   8.381  0.0339 -0.0554  0.1133
16013W        W58925  19.860  23.906  10.416 -0.0836 -0.1367 -0.0881
16014W        W58926  21.431  22.489   7.559  0.0297  0.1773  0.0843
16015W        W58927  18.225  24.987   9.574 -0.1297 -0.1597 -0.2392
16016W        W58928  18.840  25.193   7.506  0.0910 -0.1144 -0.1867
16017W        W58929  19.433  23.175   9.135 -0.1623  0.1275 -0.0877
16018W        W58930  18.387  23.527   8.730 -0.0842 -0.3242 -0.1068
16019W        W58931  20.780  21.806   8.246 -0.0381  0.3882 -0.2461
16020W        W58932  21.132  21.680   8.546  0.0863  0.1410 -0.1035
16021W        W58933  21.107  22.184   9.105  0.3007 -0.1352 -0.0488
16022W        W58934  17.835  24.401   8.147  0.1118 -0.3059 -0.2625
16023W        W58935  20.809  24.050   8.749 -0.1410  0.0564  0.0398
16024W        W58936  21.724  22.921   8.758  0.1032 -0.0271 -0.0505
16025W        W58937  20.278  23.809   6.914 -0.0117 -0.0227 -0.2235
16026W        W58938  18.854  20.845   9.451 -0.2147 -0.0312  0.0505
16027W        W58939  19.101  22.937   8.359  0.1038  0.1153 -0.1957
16028W        W58940  18.154  23.633   9.165 -0.1478  0.0057  0.0082
16029W        W58941  18.076  21.957   9.287 -0.0332  0.1430  0.1397
16030W        W58942  21.000  21.618   7.581 -0.2290 -0.2185  0.1347
16031W        W58943  18.433  22.862   6.267 -0.1716  0.2832 -0.2626
16032W        W58944  19.495  22.949   8.130 -0.0804 -0.1762  0.0706
16033W        W58945  21.003  24.852   8.366  0.0358  0.1032 -0.0513
16034W        W58946  22.305  21.508  11.221 -0.1696 -0.0191  0.0275
16035W        W58947  19.453  23.989   9.237 -0.1139  0.0376  0.0812
16036W        W58948  19.739  23.488   8.814 -0.2030 -0.0669  0.1630
16037W        W58949  19.075  21.707   7.658  0.5397 -0.0766 -0.1328
16038W        W58950  16.746  25.361  10.018  0.0075  0.2955 -0.0409
16039W        W58951  20.001  23.047   7.043 -0.2343  0.2759  0.2377
16040W        W58952  18.844  21.972   8.555  0.1927 -0.1027 -0.3722
16041W        W58953  20.403  23.664   8.727 -0.2768  0.0966  0.1886
16042W        W58954  19.633  23.011   6.205  0.1033 -0.0687 -0.2187
16043W        W58955  19.564  24.273  10.095  0.2272  0.1810  0.3798
16044W        W58956  20.002  22.541  10.289 -0.5049 -0.0496 -0.0135
16045W        W58957  19.111  21.933   8.108  0.1056 -0.0106 -0.0619
16046W        W58958  20.835  25.734  10.457  0.0566  0.1488  0.1351
16047W        W58959  18.365  25.436   6.715 -0.3078  0.1294  0.1282
16048W        W58960  18.587  21.944   9.008  0.2498  0.1918  0.2175
16049W        W58961  18.102  23.882   7.409  0.1065  0.1323 -0.1535
16050W        W58962  18.980  22.279   9.021 -0.0859 -0.1748 -0.0033
16051W        W58963  18.884  22.692   9.405  0.0839 -0.0270 -0.1337
16052W        W58964  21.292  20.863   8.364 -0.3521 -0.2822 -0.1446
16053W        W58965  20.804  21.668   7.084  0.3034  0.3121  0.3013
16054W        W58966  20.116  23.337   7.463  0.3629 -0.1519  0.2993
16055W        W58967  20.623  22.073   6.855  0.1116 -0.0396 -0.2685
16056W        W58968  20.162  22.327   6.261  0.1930 -0.2128 -0.1445
16057W        W58969  19.992  24.390   7.871  0.1819  0.1905 -0.2622
16058W        W58970  18.582  24.022   8.879  0.3456  0.7818 -0.3344
16059W        W58971  19.660  23.163   7.621  0.0102 -0.1101  0.1855
16060W        W58972  21.563  25.027   8.095  0.2677  0.3685  0.2814
16061W        W58973  19.030  24.153  10.109  0.1541 -0.0237  0.0749
16062W        W58974  19.805  24.015   9.706  0.2138  0.0966  0.3788
16063W        W58975  19.819  20.817   9.437  0.3026 -0.0379  0.0312
16064W        W58976  19.194  22.203   5.395 -0.1976  0.0201 -0.1404
16065W        W58977  20.006  21.702   7.733 -0.1948  0.2815  0.1433
16066W        W58978  18.786  24.976   6.566  0.1996 -0.1705  0.5111
16067W        W58979  20.682  20.592   9.362 -0.0835  0.1117 -0.2836
16068W        W58980  19.950  22.093   8.559 -0.0279 -0.3424 -0.0501
16069W        W58981  21.161  23.480   7.454 -0.3138  0.0219 -0.0124
16070W        W58982  20.395  21.636  10.256 -0.1679 -0.1513  0.2550
16071W        W58983  18.620  24.058   6.493 -0.1241 -0.3041  0.0626
16072W        W58984  19.939  23.045   9.440 -0.1510 -0.1025 -0.0007
16073W        W58985  18.728  23.869   9.298 -0.1321 -0.0980  0.0482
16074W        W58986  20.115  22.866   7.566  0.1003 -0.1445 -0.2448
16075W        W58987  19.135  22.658   6.958  0.1175  0.0588 -0.1053
16076W        W58988  19.862  23.007   8.504  0.0279  0.2275  0.1443
16077W        W58989  18.390  23.585   7.680 -0.1751  0.1449 -0.1702
16078W        W58990  19.426  22.437   8.982 -0.0956  0.2185  0.1566
16079W        W58991  20.604  23.543  10.328 -0.0424 -0.1076  0.3682
16080W        W58992  18.996  23.918   6.954 -0.1790  0.0108 -0.1731
16081W        W58993  20.500  21.919  10.654 -0.0638  0.0072 -0.1326
16082W        W58994  19.924  23.569   8.370 -0.0992  0.6330 -0.3554
16083W        W58995  20.586  22.349  10.405  0.1814 -0.0397 -0.0465
16084W        W58996  19.101  25.287   9.172  0.0436 -0.2773 -0.2438
16085W        W58997  18.673  21.028   6.503 -0.1080  0.1541  0.1039
16086W        W58998  18.437  22.355   8.638  0.0444 -0.1473  0.0702
16087W        W58999  20.242  23.160   8.766 -0.1305  0.0466  0.0705
16088W        W59000  21.405  22.886   7.882  0.2404 -0.1208  0.0741
16089W        W59001  19.342  20.921   9.742 -0.0134  0.0448 -0.3156
16090W        W59002  19.774  21.367   9.070  0.3127  0.1499 -0.2312
16091W        W59003  17.865  23.468  10.153  0.1975  0.0086  0.0587
16092W        W59004  20.860  21.247   8.400 -0.0813 -0.1667 -0.1397
16093W        W59005  17.687  22.625   7.230  0.0013  0.0900  0.4469
16094W        W59006  20.863  22.566   9.501  0.0714  0.1206  0.1877
16095W        W59007  20.033  22.705   8.052 -0.0518  0.1348 -0.0015
16096W        W59008  19.538  23.151   9.660 -0.0722  0.1357 -0.0648
16097W        W59009  18.931  23.668   8.482 -0.2162  0.1909  0.1861
16098W        W59010  19.070  23.150   6.914 -0.1016  0.2534  0.0171
16099W        W59011  19.417  22.809   8.713  0.1538  0.2252 -0.0364
16100W        W59012  20.662  20.111  10.104  0.0286  0.1286  0.0129
16101W        W59013  18.471  20.138   8.676  0.1558 -0.0399  0.2503
16102W        W59014  19.126  20.766   8.300 -0.3038  0.1148  0.3128
16103W        W59015  20.216  22.478   8.787  0.1110 -0.2279 -0.1583
16104W        W59016  20.178  23.416   9.713  0.0271  0.0223 -0.0875
16105W        W59017  20.862  22.272   8.491  0.0417  0.1523  0.1151
16106W        W59018  19.926  21.163   7.421 -0.1903  0.2735  0.2707
16107W        W59019  22.390  24.474   9.366 -0.0569 -0.0018  0.0711
16108W        W59020  18.253  23.130   9.122 -0.1446  0.1812  0.3949
16109W        W59021  19.123  21.817   8.965 -0.1893  0.4273 -0.1764
16110W        W59022  19.130  23.508   9.390  0.1903 -0.2430 -0.2532
16111W        W59023  19.189  24.654   9.940  0.3502  0.0507 -0.1856
16112W        W59024  19.300  23.876   9.710 -0.1387 -0.1281 -0.0839
16113W        W59025  19.179  23.309   7.450  0.3747 -0.0965 -0.0866
16114W        W59026  19.384  26.479  10.649  0.1552 -0.3623  0.2365
16115W        W59027  20.101  21.928   9.044 -0.2180 -0.0765 -0.1263
16116W        W59028  21.010  23.020   7.647 -0.2369 -0.2810 -0.1171
16117W        W59029  20.766  22.117   9.608 -0.1806  0.1378  0.0151
16118W        W59030  20.733  23.604   6.890 -0.0148  0.2235 -0.1827
16119W        W59031  17.352  23.262   8.369 -0.1659  0.1971  0.1198
16120W        W59032  21.017  22.648   8.182  0.2613 -0.0573 -0.2162
16121W        W59033  20.836  22.194   7.286 -0.0389  0.0753  0.0543
16122W        W59034  19.319  21.791   6.876 -0.1168 -0.0972  0.0916
16123W        W59035  19.350  21.073   9.218 -0.0840 -0.0900 -0.1364
16124W        W59036  20.299  24.265   9.613 -0.3192 -0.2698 -0.2196
16125W        W59037  18.635  23.939   7.375  0.2989  0.0662 -0.0324
16126W        W59038  20.637  22.202   7.980 -0.2029 -0.0053 -0.0196
16127W        W59039  19.539  23.525   7.966 -0.4718 -0.0600  0.1745
16128W        W59040  21.235  22.066   7.565  0.0591  0.1196 -0.0091
16129W        W59041  20.572  22.603   7.034  0.0831 -0.1591 -0.0954
16130W        W59042  20.211  23.673   7.873 -0.0975  0.2875 -0.3219
16131W        W59043  18.976  22.980   8.860  0.0945  0.3141  0.2067
16132W        W59044  21.906  22.439   8.495 -0.3246 -0.1954  0.0948
16133W        W59045  20.908  26.205  10.645  0.0281  0.2546  0.1806
16134W        W59046  20.750  22.073   6.207  0.0888 -0.0095 -0.4068
16135W        W59047  22.231  20.432   9.445 -0.1652  0.0905 -0.1409
16136W        W59048  21.647  22.892   8.295 -0.0530 -0.1541  0.3064
16137W        W59049  19.502  22.540   7.505 -0.0934  0.2304  0.3061
16138W        W59050  17.713  22.071   8.476 -0.1224  0.0400 -0.5271
16139W        W59051  18.494  20.363   6.945 -0.1408  0.0473  0.2558
16140W        W59052  19.694  22.446   5.531 -0.2714  0.0717 -0.3652
16141W        W59053  20.832  23.617   8.374  0.1587 -0.1439 -0.0354
16142W        W59054  20.322  22.355   8.294 -0.0297 -0.0698  0.1507
16143W        W59055  19.661  21.292   9.616 -0.2975  0.1950 -0.1119
16144W        W59056  17.377  21.969   8.071  0.2261 -0.1562 -0.0636
16145W        W59057  19.334  24.641   5.595 -0.0931  0.3623  0.1179
16146W        W59058  20.416  23.039  10.088  0.0462  0.0897  0.0343
16147W        W59059  21.105  22.127   8.080  0.1128  0.3052 -0.0569
16148W        W59060  17.277  23.360   8.926  0.1280  0.0761 -0.3544
16149W        W59061  21.189  20.533  10.284  0.0120 -0.1773 -0.0969
16150W        W59062  18.711  24.719   9.777 -0.0125  0.1960 -0.0180
16151W        W59063  17.562  24.250   9.770 -0.1125 -0.3310  0.0999
16152W        W59064  20.508  20.203   8.494  0.0550 -0.4463 -0.1155
16153W        W59065  21.272  23.296   9.080  0.0119 -0.0166  0.4805
16154W        W59066  19.283  23.788   7.353  0.0444  0.2905 -0.4334
16155W        W59067  18.901  21.433   9.223 -0.0625 -0.0326  0.2693
16156W        W59068  19.554  22.403  10.090 -0.2146 -0.0622 -0.0209
16157W        W59069  19.020  24.279   9.630 -0.0562 -0.1326  0.0270
16158W        W59070  20.274  24.876   8.939  0.0392  0.0830 -0.4070
16159W        W59071  18.914  22.548   8.614  0.4057  0.2621  0.1438
16160W        W59072  19.748  23.681   7.516 -0.2626  0.0030  0.1091
16161W        W59073  18.006  21.371   9.550  0.0362 -0.0160  0.0648
16162W        W59074  15.897  24.090   9.263 -0.0303  0.1370  0.0501
16163W        W59075  20.766  23.622   7.849 -0.0751 -0.1571  0.4689
16164W        W59076  20.971  22.493   7.757 -0.0088 -0.2789  0.1729
16165W        W59077  19.512  24.963   9.795 -0.0340  0.1235 -0.0994
16166W        W59078  19.339  22.472   8.019 -0.0023  0.3151 -0.0056
16167W        W59079  19.077  23.427   8.071 -0.0793 -0.0288 -0.1558
16168W        W59080  18.242  24.481   8.432 -0.0156 -0.1401  0.0568
16169W        W59081  20.937  24.436   7.506  0.0659 -0.2330  0.0592
16170W        W59082  18.959  24.169   8.466 -0.3467 -0.3509 -0.4117
16171W        W59083  22.417  21.684   8.113  0.1760  0.4849  0.2808
16172W        W59084  19.744  23.381  10.401  0.0381  0.4240  0.0606
16173W        W59085  21.029  22.313   6.825  0.4806  0.3726 -0.2246
16174W        W59086  19.061  22.500  10.148  0.3461 -0.2035 -0.2954
16175W        W59087  19.962  21.586   8.571  0.2280  0.1096 -0.2227
16176W        W59088  19.292  23.375   5.839 -0.2319 -0.1420  0.1064
16177W        W59089  19.359  22.170   8.520  0.1633 -0.1778 -0.1062
16178W        W59090  20.567  22.718   7.945  0.1321  0.0790 -0.0776
16179W        W59091  22.232  17.982  11.250 -0.2619  0.0535 -0.1724
16180W        W59092  21.120  22.601   7.174  0.3657  0.0757  0.0139
16181W        W59093  19.943  23.224   8.003 -0.0087  0.0961 -0.0271
16182W        W59094  20.284  24.593   7.306 -0.3136 -0.2514 -0.1806
16183W        W59095  15.373  25.592  12.171  0.1107  0.3107  0.2763
16184W        W59096  18.817  24.647   9.225  0.0851  0.1940  0.0620
16185W        W59097  18.390  21.942   8.239  0.3944 -0.0569  0.2049
16186W        W59098  21.528  21.439   9.628  0.0652 -0.0269  0.1035
16187W        W59099  20.163  21.484   9.433 -0.0854  0.0151 -0.2190
16188W        W59100  20.512  22.861   8.478  0.1193  0.0296 -0.3658
16189W        W59101  21.305  21.636   7.981 -0.1653 -0.1878 -0.0633
16190W        W59102  20.842  23.057   9.279  0.0876 -0.2889  0.1440
16191W        W59103  20.427  22.993   9.570  0.0775  0.2750  0.3415
16192W        W59104  19.980  22.799   6.480  0.3947 -0.0981  0.0391
16193W        W59105  20.183  22.416   6.748  0.0293  0.0073  0.0556
16194W        W59106  20.276  21.749   8.234  0.0474 -0.2578 -0.3393
16195W        W59107  20.115  22.797   5.954  0.0144  0.0164  0.1795
16196W        W59108  18.264  22.878   9.622 -0.0175 -0.2889  0.1733
16197W        W59109  19.774  23.603   9.398 -0.4101  0.0089  0.2273
16198W        W59110  18.295  19.774   9.366 -0.0500 -0.1839 -0.0676
16199W        W59111  21.034  24.954   6.704 -0.1198  0.2289  0.1098
16200W        W59112  21.509  22.442   8.160  0.1587  0.0315 -0.0111
16201W        W59113  20.534  25.723   8.043  0.0842 -0.1669  0.1565
16202W        W59114  20.861  23.207   8.715 -0.0179  0.2642 -0.2451
16203W        W59115  18.604  23.662  10.266 -0.2904 -0.2819 -0.0170
16204W        W59116  17.889  21.662  10.048 -0.0977 -0.1009 -0.0794
16205W        W59117  20.340  23.406   9.212 -0.0270 -0.2187 -0.0610
16206W        W59118  21.185  24.805   9.533  0.0407 -0.1496  0.0332
16207W        W59119  21.127  21.526   9.361  0.0596 -0.1429  0.1700
16208W        W59120  19.953  22.376   9.244 -0.0327  0.2218  0.1651
16209W        W59121  19.178  24.046   7.977  0.0746 -0.3537  0.0869
16210W        W59122  20.494  22.244   9.145 -0.0265 -0.2251 -0.1521
16211W        W59123  19.482  25.100   8.390 -0.0591 -0.1744 -0.0332
16212W        W59124  20.189  23.905   9.324  0.1807 -0.4899 -0.0096
16213W        W59125  18.574  23.107   8.583  0.2354  0.0524 -0.0049
16214W        W59126  18.901  23.692   7.685 -0.1512 -0.3740  0.0593
16215W        W59127  19.594  24.490   8.321 -0.1741 -0.1318  0.0330
16216W        W59128  20.091  24.451   9.168 -0.2675  0.0899  0.1212
16217W        W59129  19.516  22.067   7.767 -0.1724  0.1452  0.0461
16218W        W59130  21.183  23.886   7.685  0.1273 -0.0975  0.0636
16219W        W59131  19.414  20.594   8.665  0.0046  0.1890 -0.1843
16220W        W59132  22.073  21.366   7.441 -0.2350 -0.2409 -0.0504
16221W        W59133  21.105  21.183   8.898 -0.2252  0.1439 -0.1053
16222W        W59134  18.249  21.305  10.031 -0.1350 -0.1308 -0.0651
16223W        W59135  18.722  21.625   8.033 -0.0591  0.0814  0.0587
16224W        W59136  18.687  24.693   7.361  0.1653 -0.0906  0.1488
16225W        W59137  18.659  22.734   8.193 -0.0268 -0.1113  0.0476
16226W        W59138  18.093  23.029   8.611 -0.2370  0.0158 -0.1894
16227W        W59139  19.305  21.673   9.572  0.0656 -0.1172  0.0469
16228W        W59140  20.872  23.146   7.034  0.1329  0.0370 -0.0003
16229W        W59141  19.445  22.096   9.302 -0.3450 -0.0567 -0.0109
16230W        W59142  16.639  20.230   9.709  0.0540  0.0870  0.1879
16231W        W59143  19.663  23.206   6.650 -0.0714  0.0969 -0.2117
16232W        W59144  20.618  23.538   7.370 -0.2933 -0.0739  0.1435
16233W        W59145  20.549  21.580   9.751  0.0502  0.0005  0.1375
16234W        W59146  17.282  22.949   7.224 -0.0242  0.0270 -0.2295
16235W        W59147  18.373  22.191   7.792  0.1770 -0.1447 -0.1308
16236W        W59148  19.697  20.839   8.960  0.0114  0.0005  0.0638
16237W        W59149  19.494  24.394   9.583  0.0995 -0.1328  0.0858
16238W        W59150  20.656  25.252   8.830 -0.2756  0.0305  0.2395
16239W        W59151  18.329  20.401   9.848 -0.3150 -0.0479  0.1251
16240W        W59152  20.800  23.547   9.107 -0.3199 -0.2625  0.2405
16241W        W59153  21.812  23.358   9.014 -0.0929 -0.0722  0.0099
16242W        W59154  21.143  21.725   9.897 -0.0956  0.0689  0.2808
16243W        W59155  19.551  24.045   6.986  0.0573 -0.0602  0.2303
16244W        W59156  21.719  21.832   9.328 -0.1853 -0.1584 -0.0601
16245W        W59157  16.146  20.750   9.726  0.1014 -0.4243 -0.2702
16246W        W59158  19.662  21.865   8.177 -0.2810  0.1414  0.3967
16247W        W59159  20.779  24.116   7.939  0.1497  0.0179 -0.1670
16248W        W59160  19.173  21.957   9.947  0.0318 -0.0767  0.0306
16249W        W59161  20.496  23.021   7.278 -0.2594  0.3351  0.0178
16250W        W59162  20.531  23.152   7.732 -0.0043  0.3234  0.1957
16251W        W59163  18.770  23.613   6.706 -0.0240 -0.1979 -0.2881
16252W        W59164  21.622  23.250   7.633 -0.1310  0.0654  0.1340
16253W        W59165  17.931  23.882  11.582 -0.2153  0.2723 -0.1215
16254W        W59166  18.214  24.590   9.893  0.0575 -0.3336  0.2643
16255W        W59167  19.717  23.580   9.908 -0.3159 -0.2851 -0.0250
16256W        W59168  19.877  20.788   8.364 -0.0525 -0.2976  0.2912
16257W        W59169  18.580  22.661   9.037 -0.2350  0.2898 -0.2133
16258W        W59170  20.405  23.364   8.298  0.1434 -0.0034  0.0763
16259W        W59171  19.837  22.611   9.752 -0.4159 -0.0556 -0.1621
16260W        W59172  20.484  22.070   8.666 -0.2460 -0.0479 -0.1079
16261W        W59173  20.826  21.111   7.498 -0.2266 -0.2222 -0.0016
16262W        W59174  18.441  24.887  10.280 -0.0088 -0.0633  0.0983
16263W        W59175  20.334  22.830   9.127  0.1837 -0.1778 -0.0398
16264W        W59176  18.176  27.537   3.923 -0.0735 -0.1979  0.2726
16265W        W59177  19.918  25.747  31.349 -0.1806 -0.0247  0.1267
16266W        W59178  22.414  27.898  30.571 -0.0419  0.0206 -0.0731
16267W        W59179  20.207  28.399   0.480  0.1232  0.3667 -0.0840
16268W        W59180  17.154  24.103   0.962  0.0165 -0.0101  0.0367
16269W        W59181  21.111  28.260   1.496 -0.1064 -0.1747  0.0942
16270W        W59182  18.154  24.541   1.830 -0.0476  0.1475 -0.2708
16271W        W59183  21.049  27.270   2.546 -0.1448 -0.0541 -0.1776
16272W        W59184  21.605  26.991   2.161  0.1613  0.0904  0.0582
16273W        W59185  20.035  27.276   0.699  0.0823 -0.0356  0.3412
16274W        W59186  18.570  25.817   3.549  0.0122 -0.4567  0.0023
16275W        W59187  19.791  27.910   1.229 -0.2238 -0.4248  0.1112
16276W        W59188  20.019  24.492   1.518 -0.0552  0.2296  0.1577
16277W        W59189  18.581  24.699   1.601 -0.1250 -0.0155 -0.0469
16278W        W59190  19.580  26.458   1.976 -0.3680 -0.1283 -0.3738
16279W        W59191  18.473  27.108  31.606 -0.1499 -0.0756 -0.1267
16280W        W59192  17.939  26.359   0.527  0.2819 -0.0451  0.2311
16281W        W59193  20.135  26.094   0.194  0.1290  0.1863  0.4028
16282W        W59194  20.633  28.290   2.453  0.1430 -0.0966  0.1252
16283W        W59195  20.526  25.215   1.395 -0.0183 -0.4614 -0.0300
16284W        W59196  20.217  25.590   3.769 -0.0074  0.0331 -0.0197
16285W        W59197  20.542  28.797   1.635  0.1266 -0.1737 -0.0225
16286W        W59198  19.172  27.138  30.981  0.0278 -0.1510  0.2018
16287W        W59199  16.894  27.293   0.141  0.0047  0.5279  0.0096
16288W        W59200  18.259  27.272   3.371 -0.1133 -0.1458  0.0644
16289W        W59201  20.613  26.205   0.471 -0.1478  0.2722  0.0157
16290W        W59202  20.275  27.427   3.921  0.0144 -0.1563  0.2669
16291W        W59203  19.271  27.426   1.645  0.0029  0.0343 -0.0352
16292W        W59204  19.820  27.923   2.004 -0.5475 -0.0055 -0.0894
16293W        W59205  19.500  26.262   3.554 -0.0898 -0.1016 -0.0778
16294W        W59206  17.867  28.289   1.698 -0.2336  0.0422  0.3513
16295W        W59207  19.242  29.427   1.737  0.4515 -0.3719 -0.2852
16296W        W59208  19.216  28.711   0.316 -0.1719  0.0419  0.4555
16297W        W59209  19.316  26.964   1.334 -0.1638  0.2966 -0.2044
16298W        W59210  21.640  28.306   2.189 -0.0252  0.0815 -0.1627
16299W        W59211  20.170  28.884   4.042 -0.3436 -0.0930  0.4127
16300W        W59212  18.428  28.530  31.643  0.2133 -0.0015  0.2667
16301W        W59213  20.026  28.318   2.773  0.0698 -0.1262  0.1458
16302W        W59214  18.661  27.371   2.761  0.2359  0.2425  0.0153
16303W        W59215  19.681  26.547   1.436  0.1673  0.3427 -0.0035
16304W        W59216  19.534  25.225   0.475  0.0875 -0.0023  0.1414
16305W        W59217  19.009  29.248   0.265 -0.1421  0.0613  0.2293
16306W        W59218  19.221  26.262   0.443  0.0964  0.0863 -0.1844
16307W        W59219  19.545  28.264   3.766  0.3946 -0.1189  0.1375
16308W        W59220  18.003  26.835   0.694  0.2736 -0.0812 -0.0837
16309W        W59221  21.247  26.142   4.233  0.1432 -0.1109 -0.0724
16310W        W59222  18.437  27.212   1.109 -0.0987 -0.0995  0.1793
16311W        W59223  18.540  27.112   0.140  0.1167 -0.1457 -0.0987
16312W        W59224  19.626  23.967   0.308 -0.1055  0.0718  0.2010
16313W        W59225  21.044  25.783   0.159 -0.2173 -0.0340 -0.3648
16314W        W59226  19.465  24.633   2.787  0.0288  0.2904 -0.3636
16315W        W59227  18.598  28.810   0.864  0.0750 -0.2885 -0.0353
16316W        W59228  19.481  25.647   2.162  0.3904 -0.2507  0.5401
16317W        W59229  19.538  28.625   2.844 -0.0591  0.3464  0.0055
16318W        W59230  19.236  25.192  31.133 -0.1331  0.0917 -0.0936
16319W        W59231  20.746  26.329   2.490 -0.2614 -0.1141 -0.0006
16320W        W59232  18.014  28.792   1.626  0.0093  0.0166  0.1745
16321W        W59233  19.004  27.341   0.245 -0.3736 -0.2552 -0.1732
16322W        W59234  21.497  29.665   0.914 -0.2572 -0.0254  0.1127
16323W        W59235  19.357  27.862   1.443  0.0303 -0.1454  0.4342
16324W        W59236  20.613  29.740   0.489 -0.1593  0.0472 -0.0723
16325W        W59237  18.953  27.325  31.619  0.0386 -0.2442  0.0598
16326W        W59238  18.743  27.254   3.233  0.3411 -0.2156 -0.0099
16327W        W59239  18.484  27.826   0.940  0.0620 -0.1669  0.2703
16328W        W59240  18.788  25.397  30.182 -0.1609  0.1650  0.2666
16329W        W59241  21.019  27.824   4.291  0.1210 -0.0445  0.0512
16330W        W59242  17.969  28.176   0.865 -0.0804  0.0875  0.0012
16331W        W59243  21.699  26.597   2.522 -0.0174 -0.1676  0.1928
16332W        W59244  18.314  26.635   0.258 -0.0962 -0.0019 -0.1598
16333W        W59245  20.886  26.839   2.799 -0.1158  0.1113  0.0501
16334W        W59246  19.835  27.326  31.748 -0.1472  0.1055 -0.2972
16335W        W59247  21.091  23.934   0.591  0.0180 -0.1503  0.0228
16336W        W59248  20.612  25.517   2.816 -0.1535  0.1023 -0.0314
16337W        W59249  18.247  26.585  30.959  0.0647 -0.1932  0.0828
16338W        W59250  19.816  27.087   1.164  0.1338  0.1954 -0.0873
16339W        W59251  22.456  28.378   3.381  0.3184 -0.1266  0.0581
16340W        W59252  20.364  28.650   0.042  0.1881  0.0708  0.1327
16341W        W59253  19.618  28.500   0.564 -0.0206  0.0940  0.0296
16342W        W59254  20.278  24.922   1.837  0.0899 -0.1004 -0.0153
16343W        W59255  20.140  28.963   2.121  0.2901  0.0573 -0.1626
16344W        W59256  17.780  29.783   1.843 -0.1151  0.1088 -0.0058
16345W        W59257  18.771  28.087   1.374  0.0713  0.3020  0.0439
16346W        W59258  18.274  27.468   2.375  0.0826 -0.4605 -0.0110
16347W        W59259  18.415  25.549   2.014  0.2996 -0.2311  0.1979
16348W        W59260  19.401  28.031   0.873 -0.1719 -0.1579 -0.3423
16349W        W59261  20.121  27.520   1.177  0.0078  0.2236  0.2549
16350W        W59262  17.483  25.121   3.729  0.1090  0.3396  0.1387
16351W        W59263  20.791  25.028   1.831 -0.0128 -0.1076  0.1155
16352W        W59264  19.927  28.147   0.812 -0.1479 -0.0316 -0.0992
16353W        W59265  20.963  28.647   3.403 -0.0571 -0.4946 -0.1233
16354W        W59266  20.090  26.486   1.145 -0.2615  0.0681 -0.3707
16355W        W59267  20.989  26.776  30.763 -0.2632  0.0676 -0.2238
16356W        W59268  18.792  26.277   1.740  0.1686  0.1143  0.1293
16357W        W59269  17.550  27.203   0.327  0.0850  0.0234  0.2686
16358W        W59270  19.238  24.590   3.241  0.0679 -0.2011  0.0092
16359W        W59271  19.176  24.459   0.335  0.0494 -0.1132  0.0593
16360W        W59272  19.418  26.130   2.370 -0.2025 -0.2259  0.1189
16361W        W59273  18.868  24.706   0.658 -0.1578  0.2618  0.2022
16362W        W59274  21.129  24.835   1.411  0.1252  0.1472 -0.1565
16363W        W59275  19.869  27.012   0.203  0.2208 -0.3631 -0.0024
16364W        W59276  18.517  27.638   1.405 -0.1242  0.1480 -0.0788
16365W        W59277  21.648  24.264   3.283  0.2000 -0.0881  0.0969
16366W        W59278  20.951  27.732   1.244  0.0711  0.0458  0.2846
16367W        W59279  21.781  28.670   2.503 -0.1947  0.0077  0.0985
16368W        W59280  19.900  30.190   1.239  0.0181  0.3486  0.3308
16369W        W59281  20.254  25.139   2.874 -0.3596  0.1359  0.0045
16370W        W59282  18.955  23.700  31.540 -0.0260 -0.0127  0.0025
16371W        W59283  16.986  28.570   1.359 -0.1975 -0.1403  0.0596
16372W        W59284  20.469  27.816   1.123 -0.0464  0.1735 -0.2633
16373W        W59285  20.126  25.911  30.718  0.0099 -0.1660 -0.1038
16374W        W59286  21.801  27.514   1.750  0.0520 -0.0463 -0.0625
16375W        W59287  20.790  25.943   2.081 -0.1043 -0.2654  0.1446
16376W        W59288  19.115  26.936   2.208 -0.2582  0.0079 -0.0483
16377W        W59289  19.940  25.279   3.458 -0.0509  0.0379 -0.2574
16378W        W59290  20.811  26.906   3.330 -0.1472  0.0742  0.0976
16379W        W59291  19.856  24.041  31.837  0.1046 -0.1194 -0.0237
16380W        W59292  18.168  23.463   0.333  0.0435 -0.0067 -0.2030
16381W        W59293  20.369  28.342   3.693  0.0789 -0.2026 -0.0430
16382W        W59294  19.516  28.997  30.661 -0.1415 -0.0982  0.1936
16383W        W59295  17.745  25.979   0.819  0.1792  0.0821 -0.1915
16384W        W59296  18.931  26.840   0.482  0.0409 -0.2977 -0.1849
16385W        W59297  19.995  25.176   1.524  0.1302  0.1524 -0.0359
16386W        W59298  18.560  28.375   2.537 -0.2298 -0.1441  0.0453
16387W        W59299  19.311  25.358   2.928 -0.1693 -0.0500 -0.2950
16388W        W59300  17.983  27.989  30.991 -0.3113  0.5059  0.1768
16389W        W59301  19.400  27.482   1.119  0.0651 -0.0652  0.2815
16390W        W59302  21.285  22.699  31.680 -0.0001 -0.0331  0.1827
16391W        W59303  21.186  27.346   1.051 -0.2346 -0.0847  0.2370
16392W        W59304  19.578  27.910   3.402  0.2521  0.2844 -0.5168
16393W        W59305  20.074  26.068   2.787 -0.0408 -0.1200 -0.5489
16394W        W59306  20.108  26.243   0.697  0.2934  0.1898  0.2346
16395W        W59307  19.020  23.469  30.801 -0.2891  0.2863 -0.1785
16396W        W59308  17.386  28.938   2.685 -0.1837  0.0216  0.2197
16397W        W59309  19.736  27.659   0.774 -0.3195  0.0203 -0.1025
16398W        W59310  20.799  27.364   2.076 -0.1240 -0.1500 -0.1409
16399W        W59311  20.304  24.489   0.924  0.5448 -0.0009 -0.1758
16400W        W59312  21.389  29.119   2.497  0.0773 -0.0544 -0.0748
16401W        W59313  18.573  27.583  31.746 -0.0630 -0.1253 -0.4748
16402W        W59314  20.268  25.876   4.785  0.0649  0.3768 -0.3616
16403W        W59315  20.524  27.313   2.476  0.1136 -0.2026 -0.1818
16404W        W59316  20.466  25.037   2.436  0.0551  0.2923  0.1189
16405W        W59317  18.956  26.913  31.878  0.0958  0.0373  0.2133
16406W        W59318  19.361  24.837   0.787  0.0069  0.2511  0.0400
16407W        W59319  17.169  27.645  31.816  0.1006  0.1355  0.4591
16408W        W59320  19.753  25.633   3.089  0.2497 -0.0454 -0.2151
16409W        W59321  20.688  24.790   0.640  0.2213  0.2579 -0.1759
16410W        W59322  20.550  24.235   4.716 -0.0174 -0.0526 -0.0074
16411W        W59323  20.553  26.544   3.511 -0.2175  0.1323  0.0350
16412W        W59324  21.038  26.445   0.781 -0.1230  0.1251 -0.1350
16413W        W59325  20.463  25.881   3.485  0.4114 -0.1068  0.1469
16414W        W59326  16.725  26.759  31.845  0.1499  0.0432  0.2234
16415W        W59327  20.729  25.999   2.924 -0.1297 -0.1132 -0.0713
16416W        W59328  18.559  26.597   2.420  0.0758 -0.0302 -0.0869
16417W        W59329  16.145  28.234   3.054 -0.2536  0.3507  0.4136
16418W        W59330  21.688  27.155   3.202 -0.0445  0.2296  0.1745
16419W        W59331  19.737  26.221  30.919  0.0294 -0.0970 -0.3255
16420W        W59332  19.513  24.594   2.278 -0.2734  0.0846  0.1259
16421W        W59333  19.758  25.984   1.921 -0.1507  0.0115 -0.1545
16422W        W59334  18.333  29.872  31.252  0.1917  0.2502 -0.2873
16423W        W59335  19.763  26.411   0.337 -0.0023  0.2255  0.2785
16424W        W59336  20.276  24.612   2.906  0.2935  0.1904  0.4054
16425W        W59337  20.256  27.008   2.147  0.1321  0.1653 -0.2395
16426W        W59338  20.572  29.139  31.750 -0.0825  0.2219  0.1779
16427W        W59339  21.749  27.921   2.578  0.1008 -0.0154  0.1544
16428W        W59340  17.968  27.781   0.495 -0.1686 -0.1551  0.0325
16429W        W59341  20.234  24.086   2.822 -0.0821  0.1453 -0.1194
16430W        W59342  16.917  27.665   0.456  0.3176 -0.3753  0.1092
16431W        W59343  19.549  24.388   0.008  0.0221 -0.4752  0.2257
16432W        W59344  17.333  25.375   0.252  0.2492 -0.3570 -0.2437
16433W        W59345  22.379  24.315   1.376  0.2567  0.1986  0.1534
16434W        W59346  22.473  26.873   0.158  0.1594  0.2143 -0.0145
16435W        W59347  19.039  26.433   0.866  0.1159 -0.0122  0.0672
16436W        W59348  19.356  24.840   1.273 -0.1281  0.0837  0.0260
16437W        W59349  18.600  27.863   2.515 -0.1488  0.2870 -0.0214
16438W        W59350  19.721  26.190   3.084 -0.3032  0.0959 -0.2945
16439W        W59351  20.953  26.228   1.205 -0.0123  0.0190  0.2011
16440W        W59352  20.898  29.506   2.301  0.2657  0.1337 -0.0692
16441W        W59353  20.073  28.756   3.063 -0.0961 -0.4414 -0.1103
16442W        W59354  18.172  25.242   1.043 -0.1004 -0.3269 -0.0780
16443W        W59355  19.947  26.608   2.887 -0.1558 -0.2442 -0.1802
16444W        W59356  19.250  26.340   1.285 -0.1352  0.0184 -0.1325
16445W        W59357  18.181  27.453   0.756 -0.1742 -0.0590 -0.2353
16446W        W59358  19.290  27.276   3.178 -0.0107  0.3265 -0.1542
16447W        W59359  18.432  24.720  31.781  0.0313  0.4196 -0.1952
16448W        W59360  19.240  28.258  31.693 -0.0963 -0.0315  0.0307
16449W        W59361  19.805  25.733   3.989 -0.1293 -0.1306 -0.1927
16450W        W59362  22.197  26.996   1.613 -0.2548 -0.4225 -0.2383
16451W        W59363  20.215  24.944   1.146 -0.1700  0.2987 -0.2963
16452W        W59364  19.487  25.735   0.177  0.0997  0.1684  0.0295
16453W        W59365  19.685  27.057   1.664 -0.0015  0.2245 -0.0348
16454W        W59366  20.055  27.008   2.640  0.0778 -0.0960  0.0531
16455W        W59367  20.217  25.733   3.091 -0.3511  0.4359 -0.0954
16456W        W59368  18.377  29.604   2.057 -0.4350 -0.1060  0.3099
16457W        W59369  20.399  25.326   3.301  0.1903 -0.1764 -0.0428
16458W        W59370  21.943  29.215   0.319  0.1049 -0.2782  0.0382
16459W        W59371  19.785  27.246   4.035  0.1291  0.1507  0.1812
16460W        W59372  19.070  27.222   0.813 -0.0157  0.0938 -0.0406
16461W        W59373  18.253  28.130   2.230  0.2280 -0.0642  0.0286
16462W        W59374  19.288  27.713   0.533  0.0061 -0.1433  0.1261
16463W        W59375  19.016  24.931   0.118  0.2018 -0.0190  0.0513
16464W        W59376  19.307  27.942   2.025 -0.2033 -0.3572  0.0831
16465W        W59377  20.605  27.584  31.965  0.0554 -0.1353 -0.0588
16466W        W59378  19.648  27.341   2.047 -0.0573 -0.0739  0.0473
16467W        W59379  21.829  25.355   0.766 -0.1625 -0.0283  0.1472
16468W        W59380  19.791  29.427   0.895 -0.1240 -0.0172 -0.0550
16469W        W59381  18.973  24.548   1.294  0.3343  0.2233 -0.0058
16470W        W59382  21.666  25.904   3.993  0.0011 -0.2188  0.0488
16471W        W59383  19.926  25.906   1.075  0.0156  0.0085 -0.1700
16472W        W59384  19.488  25.688   3.600 -0.0136 -0.3908  0.1692
16473W        W59385  18.586  26.073   2.158 -0.3684 -0.4341 -0.0893
16474W        W59386  21.290  27.806   2.751  0.0558  0.0505 -0.0137
16475W        W59387  19.276  26.108   1.786  0.0335  0.0113  0.0485
16476W        W59388  19.077  29.066   1.439  0.2805 -0.1311  0.5299
16477W        W59389  19.001  27.005   2.661 -0.0613  0.0034 -0.0692
16478W        W59390  20.542  26.580   1.414 -0.0359 -0.0932  0.2284
16479W        W59391  19.043  25.454   0.061  0.1098 -0.0490  0.0248
16480W        W59392  19.345  25.861   3.142  0.2136 -0.1433  0.0545
16481W        W59393  20.685  26.834   2.343  0.1748  0.0305 -0.1647
16482W        W59394  19.206  25.214  31.599  0.1519  0.1012  0.0097
16483W        W59395  20.033  26.367   2.144  0.1031 -0.2041  0.0817
16484W        W59396  18.930  27.283   1.342 -0.0814  0.0741  0.1108
16485W        W59397  20.227  26.601   0.322  0.1567  0.0117 -0.1184
16486W        W59398  19.353  26.712   0.243  0.3216  0.1497  0.4306
16487W        W59399  18.726  27.612   0.567 -0.2518 -0.0907 -0.0168
16488W        W59400  18.962  24.971   2.783 -0.1519  0.1512 -0.2172
16489W        W59401  20.436  27.833   2.721  0.1582 -0.2244  0.1897
16490W        W59402  20.258  24.082   1.116 -0.5003 -0.0129 -0.0435
16491W        W59403  20.034  25.670   1.522 -0.2805  0.0176  0.2057
16492W        W59404  20.395  26.282   3.162  0.3454  0.0444 -0.2553
16493W        W59405  20.532  26.250   3.903  0.0412 -0.1241  0.0600
16494W        W59406  17.711  25.227   4.755  0.2661  0.2299  0.1272
16495W        W59407  20.227  29.534   3.026  0.2563  0.0839  0.0541
16496W        W59408  20.522  27.518   0.668  0.1660 -0.0957 -0.1921
16497W        W59409  21.311  26.791   3.154 -0.0343 -0.1323 -0.1058
16498W        W59410  20.430  25.915   2.476  0.0424 -0.1881  0.2024
16499W        W59411  19.233  27.645  31.274 -0.0376  0.0909  0.0649
16500W        W59412  18.912  26.495   0.156  0.1932  0.2771  0.0029
16501W        W59413  19.976  26.306   3.977  0.2684  0.3100 -0.0660
16502W        W59414  18.601  23.909  29.632 -0.4135 -0.1829  0.1993
16503W        W59415  20.825  26.513   4.193  0.1398 -0.0182  0.0417
16504W        W59416  19.680  28.997   0.578  0.1739 -0.3586  0.0451
16505W        W59417  21.064  28.220   2.101 -0.0991  0.3189 -0.2776
16506W        W59418  19.451  27.158   0.484  0.0592  0.2184 -0.2020
16507W        W59419  18.712  27.180   1.791 -0.1785 -0.4429 -0.1700
16508W        W59420  18.347  28.058   1.699  0.0503  0.0958 -0.0725
16509W        W59421  18.951  24.835  30.838  0.2453 -0.0195  0.0279
16510W        W59422  19.548  27.167  31.378 -0.3716 -0.3667 -0.1627
16511W        W59423  20.149  27.443   2.826 -0.0580 -0.1748 -0.1335
16512W        W59424  21.490  27.030   4.059  0.0174 -0.3436 -0.2497
16513W        W59425  20.240  23.381  30.876  0.0432  0.0362 -0.0206
16514W        W59426  20.380  26.235   4.479  0.2003 -0.2686  0.0286
16515W        W59427  17.668  28.691  30.493  0.2295 -0.3051  0.0460
16516W        W59428  19.497  25.563   1.700  0.0608 -0.0752  0.0937
16517W        W59429  17.924  28.432  31.696  0.0519  0.1534  0.1266
16518W        W59430  18.606  27.124   2.252  0.0104 -0.2037 -0.2767
16519W        W59431  18.931  28.061   0.697  0.0765  0.1035 -0.1352
16520W        W59432  21.297  24.794   2.555  0.4721 -0.0603  0.2659
16521W        W59433  20.577  25.639   1.618  0.3461 -0.1205  0.2325
16522W        W59434  19.607  25.965   1.445  0.1603 -0.5109  0.0280
16523W        W59435  20.187  26.830   4.030 -0.1758 -0.0400  0.2087
16524W        W59436  21.202  27.311   3.069  0.1103 -0.0449 -0.0721
16525W        W59437  19.910  25.880   2.370 -0.0294 -0.1350  0.2908
16526W        W59438  20.144  27.899   3.534  0.0018 -0.0817  0.0793
16527W        W59439  21.492  28.354   1.167  0.0824 -0.3762 -0.0346
16528W        W59440  18.950  27.716   1.060  0.1729 -0.2903 -0.0151
16529W        W59441  17.929  24.888   3.835  0.1530 -0.2610  0.1585
16530W        W59442  18.990  25.512   3.770  0.1245 -0.0009 -0.0329
16531W        W59443  20.900  25.657   1.235 -0.0948  0.0537  0.2488
16532W        W59444  19.430  24.782  31.427 -0.2637  0.0349 -0.3519
16533W        W59445  20.595  27.332   1.167 -0.4239 -0.0089  0.0530
16534W        W59446  18.729  27.618   3.599 -0.0476  0.3091  0.0195
16535W        W59447  18.133  26.521   2.153 -0.0520 -0.2225 -0.1884
16536W        W59448  17.601  27.750   0.134 -0.1802  0.1413 -0.0641
16537W        W59449  21.200  27.317  31.917 -0.0865 -0.0439  0.0860
16538W        W59450  19.491  26.542  31.264  0.1097 -0.0888 -0.2374
16539W        W59451  19.947  28.811   2.560 -0.0549  0.1414  0.1300
16540W        W59452  20.004  23.765  31.107  0.0421 -0.1810 -0.1069
16541W        W59453  18.028  28.668   1.115 -0.1352  0.0836 -0.0058
16542W        W59454  17.436  28.161  31.892 -0.2364 -0.1760 -0.2654
16543W        W59455  20.159  29.205   0.088  0.0998 -0.3341  0.1405
16544W        W59456  17.749  28.385   0.264  0.0293  0.1165  0.3303
16545W        W59457  21.690  28.267   2.906 -0.1586 -0.3484  0.0491
16546W        W59458  21.202  25.305   0.112 -0.0542  0.0001 -0.1654
16547W        W59459  20.397  27.748   2.156  0.0566 -0.0122 -0.0949
16548W        W59460  20.659  26.114   1.631 -0.1656 -0.0365 -0.0607
16549W        W59461  21.265  28.090   3.365 -0.1345 -0.4899  0.0908
16550W        W59462  19.173  26.633   1.723 -0.1432 -0.0257 -0.2595
16551W        W59463  19.984  24.988  31.678 -0.0806  0.0885  0.0335
16552W        W59464  19.479  26.927   2.852  0.2058 -0.0433 -0.1557
16553W        W59465  20.859  25.471   3.710 -0.0580  0.3134 -0.1048
16554W        W59466  19.331  28.643   1.599 -0.0990  0.3795 -0.0514
16555W        W59467  21.615  29.214   0.710  0.1692 -0.1240 -0.1409
16556W        W59468  17.804  26.766   0.236  0.2120  0.0737 -0.2961
16557W        W59469  18.527  26.162   0.311 -0.1080 -0.1749  0.1216
16558W        W59470  21.141  25.425   2.912  0.1500  0.0732 -0.2118
16559W        W59471  18.708  27.490  31.219  0.0839  0.0270 -0.2863
16560W        W59472  19.482  24.955  31.924 -0.2541 -0.2799  0.0189
16561W        W59473  18.248  29.133   0.881  0.1610  0.0622 -0.3175
16562W        W59474  19.208  28.277   1.281 -0.1971 -0.4550  0.0154
16563W        W59475  19.615  30.210   0.795 -0.2831  0.1364  0.1223
16564W        W59476  19.794  24.602   1.044  0.4548  0.2989  0.1066
16565W        W59477  20.954  26.455   1.916 -0.0193  0.0725 -0.0459
16566W        W59478  18.530  27.728   1.998  0.1190 -0.0414 -0.0903
16567W        W59479  20.718  23.769   2.862 -0.0712  0.1462 -0.0627
16568W        W59480  17.515  28.382  31.390  0.1926  0.0302  0.1880
16569W        W59481  20.121  25.431   1.085  0.1208 -0.0022  0.1604
16570W        W59482  19.008  26.373   2.166  0.1629  0.0468 -0.0080
16571W        W59483  18.201  25.274   3.315  0.0921  0.4126 -0.0080
16572W        W59484  19.609  26.268   0.833 -0.0130 -0.1537 -0.1326
16573W        W59485  21.052  26.574   3.691  0.2361  0.1030  0.4211
16574W        W59486  20.248  26.743  30.989  0.0153  0.0754 -0.1203
16575W        W59487  21.987  29.652   4.540 -0.1552 -0.1807 -0.2189
16576W        W59488  18.357  24.548  31.305 -0.0041  0.0021 -0.1242
16577W        W59489  19.752  26.024  30.442  0.1823 -0.1271  0.2076
16578W        W59490  17.294  27.984   0.580  0.3180  0.3997 -0.3657
16579W        W59491  18.459  25.748   3.047  0.2975  0.0387 -0.2459
16580W        W59492  20.549  29.074   3.032  0.2592  0.0792  0.2237
16581W        W59493  19.708  25.074   1.007 -0.1962 -0.1947 -0.1799
16582W        W59494  21.811  29.198   1.368 -0.1691 -0.1103  0.0815
16583W        W59495  21.152  26.948   1.944  0.2366 -0.1546 -0.0898
16584W        W59496  19.432  29.538  31.233  0.0747  0.1785 -0.1092
16585W        W59497  20.883  26.875   1.091 -0.0108 -0.0034 -0.2575
16586W        W59498  21.182  26.780   2.393  0.0276 -0.3854  0.2439
16587W        W59499  18.303  26.059   0.776 -0.0496 -0.0345 -0.2179
16588W        W59500  19.415  27.224   2.482 -0.1043 -0.1189  0.0216
16589W        W59501  20.733  27.349   3.482  0.0014 -0.1983  0.1926
16590W        W59502  19.610  24.744   0.367  0.0282  0.0231  0.2702
16591W        W59503  19.147  25.682   0.540 -0.0989 -0.2005  0.2396
16592W        W59504  17.718  29.313  31.898  0.2269  0.0489 -0.0252
16593W        W59505  19.959  25.475   2.045 -0.1716  0.0046 -0.1008
16594W        W59506  20.688  24.920   3.228  0.0349  0.0012 -0.1791
16595W        W59507  19.878  28.761   0.145 -0.2670 -0.2133  0.0484
16596W        W59508  21.646  24.575   2.919  0.2053  0.1013  0.1467
16597W        W59509  19.483  27.699   2.437  0.0367  0.2209 -0.0587
16598W        W59510  19.100  27.617   2.693 -0.1292  0.0321 -0.1218
16599W        W59511  19.655  27.999   0.259 -0.1010  0.3156 -0.1230
16600W        W59512  19.648  28.356   2.462  0.0383  0.4319  0.2372
16601W        W59513  19.732  27.546   1.564 -0.0481  0.1817  0.1908
16602W        W59514  19.588  29.802   1.259  0.1189 -0.0149  0.0121
16603W        W59515  20.325  28.244   3.145  0.1003 -0.0960  0.1518
16604W        W59516  19.389  27.145   0.017 -0.0142  0.2924 -0.1988
16605W        W59517  20.885  27.845   2.432 -0.1120 -0.0506 -0.0069
16606W        W59518  19.203  26.551   2.587 -0.2207  0.1806 -0.0239
16607W        W59519  20.449  25.912   1.175 -0.0064 -0.1043 -0.1326
16608W        W59520  22.152  25.903   1.970 -0.1055  0.1415  0.0002
16609W        W59521  19.688  26.888   2.144 -0.4146 -0.0258 -0.0015
16610W        W59522  19.220  26.084  31.278 -0.2912 -0.0087  0.1331
16611W        W59523  18.681  26.544  31.306  0.1950 -0.3143 -0.1857
16612W        W59524  20.141  27.427   1.862 -0.0923 -0.0894  0.0770
16613W        W59525  18.420  24.869   3.031 -0.1020  0.1348 -0.0184
16614W        W59526  17.267  26.442   4.101 -0.0452  0.2988 -0.0433
16615W        W59527  18.592  26.460   0.691 -0.3330  0.0736  0.1960
16616W        W59528  18.548  23.842  31.834  0.3393 -0.0349 -0.1075
16617W        W59529  19.416  26.777   0.780  0.2004 -0.0142  0.2173
16618W        W59530  19.165  25.504   1.395  0.0733  0.4229 -0.1852
16619W        W59531  17.678  24.570   0.143  0.4236 -0.2532  0.0449
16620W        W59532  20.769  28.115   2.916  0.0339 -0.1678 -0.0639
16621W        W59533  20.204  27.099   1.499 -0.2115 -0.1039 -0.2514
16622W        W59534  19.844  25.328   0.008 -0.1358  0.5281  0.0771
16623W        W59535  22.231  27.951   2.503  0.0067 -0.1740  0.0311
16624W        W59536  16.918  27.191  31.581 -0.3372  0.1076  0.0996
16625W        W59537  19.638  26.113   4.324  0.0094  0.0575  0.1046
16626W        W59538  19.742  24.974   2.981 -0.0783  0.0436  0.1824
16627W        W59539  17.259  24.578  31.133 -0.1422  0.2036  0.0937
16628W        W59540  20.278  25.883   1.982 -0.0167  0.1560  0.2764
16629W        W59541  19.960  27.923   2.507 -0.1109 -0.1670  0.0338
16630W        W59542  20.873  30.294   0.308 -0.3417  0.0086  0.2267
16631W        W59543  19.832  25.697   0.576 -0.4200 -0.0829  0.3053
16632W        W59544  18.909  27.747   1.715 -0.2150  0.0941  0.1766
16633W        W59545  18.633  23.809   3.135 -0.0643 -0.1247 -0.1488
16634W        W59546  20.289  26.529   2.574 -0.0251 -0.1730  0.0667
16635W        W59547  21.005  26.987   4.149 -0.1178 -0.2613 -0.1577
16636W        W59548  21.457  27.882   0.999  0.3365  0.0355  0.0510
16637W        W59549  21.103  23.743   3.184 -0.2572 -0.2186  0.3546
16638W        W59550  19.652  25.480   1.258  0.2204 -0.3479 -0.0928
16639W        W59551  18.184  26.127   2.490 -0.0504 -0.0871 -0.2379
16640W        W59552  18.778  26.553   2.949 -0.1272  0.2322 -0.1184
16641W        W59553  21.909  27.268   1.312  0.1196 -0.2871  0.0876
16642W        W59554  19.485  25.725   2.663 -0.0947  0.2312  0.0664
16643W        W59555  20.775  25.243   0.301  0.0537  0.2573  0.1279
16644W        W59556  20.578  28.640   2.106 -0.0086  0.2706  0.0410
16645W        W59557  18.726  26.723   1.977 -0.0718 -0.1979 -0.1315
16646W        W59558  19.314  25.860   1.029  0.4149 -0.1685  0.2700
16647W        W59559  19.255  26.392   3.044 -0.1809  0.2618 -0.0270
16648W        W59560  20.065  26.166   1.545  0.2413 -0.1393 -0.0717
16649W        W59561  21.263  28.302   2.540 -0.0906  0.0134  0.0714
16650W        W59562  19.313  26.059  30.735  0.0444 -0.0683 -0.0511
16651W        W59563  21.673  29.128  31.867  0.0565  0.1254 -0.0573
16652W        W59564  20.310  29.684   1.904 -0.3613  0.0846  0.0466
16653W        W59565  21.627  27.933   4.498 -0.0890 -0.0673 -0.2157
16654W        W59566  19.625  28.427   1.103 -0.0075  0.0473 -0.1030
16655W        W59567  21.016  27.804   1.842  0.0254 -0.0159  0.2514
16656W        W59568  17.901  25.689   1.919 -0.0856 -0.0776 -0.3375
16657W        W59569  19.106  24.566  31.762  0.0763 -0.0501 -0.0301
16658W        W59570  18.587  26.792   1.516 -0.2453 -0.2087 -0.1586
16659W        W59571  21.524  24.758   3.474  0.0908 -0.0960  0.2574
16660W        W59572  19.287  25.340   0.920  0.1618 -0.1864  0.3875
16661W        W59573  20.784  25.487  31.818  0.1752  0.0840 -0.2929
16662W        W59574  19.669  28.215   1.608  0.1357 -0.1617  0.1364
16663W        W59575  19.815  27.073   3.131 -0.2628  0.1813  0.2720
16664W        W59576  19.408  28.763   6.307 -0.0898 -0.0474 -0.3067
16665W        W59577  19.177  26.700   3.732  0.0959 -0.2297  0.0614
16666W        W59578  20.881  25.670   3.260 -0.0511  0.0981  0.1808
16667W        W59579  20.925  26.505   5.513  0.0629  0.3947  0.1079
16668W        W59580  17.551  25.566   3.937  0.0261  0.0353 -0.2931
16669W        W59581  21.107  28.455   4.862 -0.2051  0.0673  0.0786
16670W        W59582  19.746  24.925   5.416 -0.1225  0.0400 -0.0265
16671W        W59583  19.674  28.484   5.334  0.4923 -0.3404 -0.5844
16672W        W59584  21.181  28.150   6.442 -0.0825 -0.2051  0.0347
16673W        W59585  20.322  26.821   3.155 -0.0424  0.2046 -0.2477
16674W        W59586  20.716  26.422   6.847 -0.0127  0.1457  0.0778
16675W        W59587  18.971  28.827   5.973  0.0296  0.3454  0.2728
16676W        W59588  18.341  23.990   2.744 -0.0558  0.0467  0.2702
16677W        W59589  17.908  26.400   7.455 -0.1104 -0.1158 -0.0656
16678W        W59590  19.104  27.825   5.765  0.2114  0.0253  0.2170
16679W        W59591  17.667  27.851   3.691  0.2305  0.2007 -0.1229
16680W        W59592  19.892  26.152   6.435 -0.1573 -0.3470 -0.0099
16681W        W59593  18.840  24.555   3.593  0.1459 -0.1914 -0.0811
16682W        W59594  20.239  28.954   5.718  0.0982  0.0051 -0.0367
16683W        W59595  20.429  25.996   7.128  0.0705 -0.1038  0.0670
16684W        W59596  19.861  25.029   6.761  0.2322  0.0950 -0.1465
16685W        W59597  19.051  28.564   2.670  0.0507  0.0908 -0.1962
16686W        W59598  18.089  27.823   2.767 -0.0199 -0.0176  0.0600
16687W        W59599  17.926  26.001   3.809 -0.0873  0.5205 -0.0998
16688W        W59600  20.140  26.624   6.014  0.0945  0.2197 -0.0005
16689W        W59601  20.411  27.077   6.255 -0.0176  0.0113  0.1624
16690W        W59602  20.707  27.401   5.289  0.0002  0.3504 -0.2729
16691W        W59603  19.493  30.296   5.621 -0.0197  0.2090  0.1334
16692W        W59604  21.685  28.311   5.685  0.2970  0.2902  0.0681
16693W        W59605  20.316  25.282   7.883  0.1607 -0.4533 -0.1422
16694W        W59606  16.690  26.581   6.021  0.3187 -0.1362 -0.1980
16695W        W59607  18.192  28.235   4.408 -0.0345  0.1379 -0.1372
16696W        W59608  20.039  27.445   2.366  0.1031 -0.2063  0.0834
16697W        W59609  21.202  27.942   4.760  0.1290  0.1244 -0.1200
16698W        W59610  20.324  28.165   5.199 -0.0928 -0.2977  0.1483
16699W        W59611  20.157  28.065   7.783  0.0118  0.2703  0.0549
16700W        W59612  19.159  28.660   3.645 -0.1857  0.2780  0.1349
16701W        W59613  19.717  29.207   5.661  0.2376  0.0616 -0.0505
16702W        W59614  19.815  28.865   7.221  0.3528 -0.1312 -0.3139
16703W        W59615  19.354  27.053   6.252  0.3154  0.2660  0.0083
16704W        W59616  19.562  26.239   4.799 -0.3312  0.0773 -0.0362
16705W        W59617  19.535  28.060   2.860  0.0151 -0.1493 -0.1759
16706W        W59618  20.378  27.690   4.956  0.0024 -0.0962 -0.1349
16707W        W59619  18.963  26.049   6.485 -0.0603 -0.0354 -0.0932
16708W        W59620  18.789  27.326   4.595 -0.2976  0.4037 -0.1296
16709W        W59621  21.294  25.441   8.206  0.1049  0.2160 -0.1062
16710W        W59622  19.153  27.962   4.349 -0.1273  0.1746  0.4402
16711W        W59623  20.648  26.970   3.805  0.1220  0.3487 -0.1532
16712W        W59624  19.678  26.538   2.484  0.1099 -0.3028  0.1438
16713W        W59625  21.359  27.240   5.498  0.2147  0.3426 -0.1954
16714W        W59626  19.742  26.194   5.970 -0.1327 -0.0495 -0.1819
16715W        W59627  20.159  28.044   4.670 -0.1791  0.1489 -0.1121
16716W        W59628  18.913  23.946   5.156  0.0221 -0.0376  0.0963
16717W        W59629  20.363  28.198   5.698  0.1860 -0.2617  0.1890
16718W        W59630  19.739  25.798   4.959  0.1252 -0.1694 -0.2382
16719W        W59631  21.963  26.570   7.398 -0.1037  0.2352 -0.2459
16720W        W59632  18.731  28.338   6.125 -0.0268 -0.2559  0.1342
16721W        W59633  18.884  26.015   5.599 -0.0872 -0.0598 -0.3705
16722W        W59634  20.627  27.806   3.788 -0.0772 -0.2233  0.0589
16723W        W59635  21.835  28.881   5.074  0.0038 -0.0999  0.0865
16724W        W59636  20.249  27.926   4.135 -0.1857 -0.2082  0.2036
16725W        W59637  18.616  25.690   4.977 -0.1140 -0.1792  0.1087
16726W        W59638  19.053  27.398   6.612 -0.0332 -0.2899  0.0721
16727W        W59639  19.211  27.333   5.828  0.1369  0.3251  0.1235
16728W        W59640  18.963  25.348   2.420  0.1127 -0.0806  0.1758
16729W        W59641  20.834  28.319   6.115 -0.0921 -0.1754 -0.1711
16730W        W59642  18.344  27.695   7.297 -0.2755  0.1610  0.2767
16731W        W59643  21.147  25.106   4.873  0.0571 -0.6089  0.1303
16732W        W59644  18.631  26.524   4.993 -0.3142 -0.0409  0.1598
16733W        W59645  20.842  28.199   5.552 -0.1247 -0.2040  0.0281
16734W        W59646  20.498  27.789   3.235 -0.0637  0.0478 -0.0801
16735W        W59647  20.649  25.671   6.124 -0.0418  0.0700 -0.2264
16736W        W59648  21.494  25.160   6.612 -0.1520  0.0258  0.1023
16737W        W59649  18.413  26.218   3.172  0.2460  0.0689  0.0435
16738W        W59650  20.032  26.422   3.442  0.1620  0.1960  0.1828
16739W        W59651  20.337  28.585   6.037 -0.0339 -0.0356  0.0891
16740W        W59652  18.778  27.824   6.124 -0.1514 -0.1329  0.0467
16741W        W59653  19.786  25.838   5.482 -0.1450 -0.1556  0.1123
16742W        W59654  19.438  26.437   7.962  0.0981 -0.0501  0.2151
16743W        W59655  18.745  27.647   4.957  0.0471  0.0092  0.3507
16744W        W59656  17.890  27.435   4.936  0.2175 -0.2088 -0.2014
16745W        W59657  17.392  27.763   4.249 -0.3520  0.0510 -0.2415
16746W        W59658  19.053  25.794   7.195 -0.1348 -0.0773 -0.2004
16747W        W59659  19.683  27.858   4.311 -0.0706  0.0469 -0.1165
16748W        W59660  21.222  25.849   5.525 -0.2325 -0.0840 -0.0705
16749W        W59661  20.043  25.602   7.387  0.0771 -0.1818 -0.1957
16750W        W59662  19.861  25.340   5.688  0.2527 -0.0497  0.0262
16751W        W59663  17.236  25.948   3.998  0.1573 -0.4406  0.0193
16752W        W59664  20.521  29.173   3.903  0.0805  0.4132 -0.2596
16753W        W59665  21.256  26.634   4.434  0.0928  0.0330 -0.1056
16754W        W59666  20.749  29.667   3.964  0.1231 -0.0793  0.2281
16755W        W59667  20.155  27.006   5.698 -0.0462 -0.1215  0.1021
16756W        W59668  19.349  25.213   5.684  0.2381 -0.2812  0.2451
16757W        W59669  19.766  24.632   7.281  0.1096  0.1414 -0.2332
16758W        W59670  18.076  26.436   5.119 -0.0233  0.2512  0.0294
16759W        W59671  21.929  28.523   6.522  0.0588  0.0295 -0.0568
16760W        W59672  18.041  24.031   3.330  0.0088  0.0271  0.0134
16761W        W59673  21.645  26.105   5.241  0.3668 -0.2104 -0.0741
16762W        W59674  19.661  26.445   5.208  0.0153  0.0777  0.1184
16763W        W59675  18.647  28.485   4.100 -0.1842  0.0342 -0.1996
16764W        W59676  21.646  25.589   6.942  0.2595 -0.0142 -0.0952
16765W        W59677  20.451  28.854   3.492 -0.4389  0.0891  0.1078
16766W        W59678  21.622  28.345   6.866 -0.0271  0.1317  0.0418
16767W        W59679  21.860  31.243   4.910 -0.4556  0.1337 -0.2081
16768W        W59680  20.641  26.173   6.273 -0.0461 -0.0512 -0.0668
16769W        W59681  19.044  26.024   3.628  0.1224 -0.2001 -0.1690
16770W        W59682  19.062  28.507   4.603 -0.0661 -0.0755 -0.3549
16771W        W59683  21.152  28.905   4.069  0.1033  0.3064 -0.0004
16772W        W59684  18.281  24.955   4.194 -0.1628  0.2783  0.1050
16773W        W59685  21.424  27.725   5.431  0.0942  0.2116 -0.0004
16774W        W59686  19.897  27.153   4.515 -0.0779  0.1890  0.1076
16775W        W59687  18.443  27.910   5.755  0.0423 -0.1367 -0.0258
16776W        W59688  20.930  24.988   7.208  0.2067  0.2234  0.1347
16777W        W59689  21.946  27.459   5.331 -0.3017 -0.0074  0.2298
16778W        W59690  19.582  27.566   6.045 -0.3409  0.0177  0.0438
16779W        W59691  18.258  25.631   4.007 -0.0615  0.3143  0.1069
16780W        W59692  21.357  30.144   4.012  0.1381 -0.2354 -0.0009
16781W        W59693  19.250  29.124   4.058 -0.0459 -0.1079 -0.2240
16782W        W59694  18.327  27.413   4.707 -0.1534  0.0327 -0.0262
16783W        W59695  19.951  27.483   3.375 -0.0309  0.0649 -0.0057
16784W        W59696  20.645  26.606   5.922  0.3284 -0.4037  0.1061
16785W        W59697  18.455  26.561   7.739  0.3166  0.5446 -0.0261
16786W        W59698  21.023  26.031   7.514  0.0098  0.0718 -0.1237
16787W        W59699  19.053  26.822   3.247 -0.2775 -0.2519 -0.2532
16788W        W59700  19.468  29.258   6.430 -0.2924  0.1375 -0.2021
16789W        W59701  21.039  25.493   4.602 -0.0609  0.0159  0.3270
16790W        W59702  19.918  24.628   2.589  0.1714 -0.2039  0.0536
16791W        W59703  19.588  27.533   5.516 -0.3127  0.2079 -0.0350
16792W        W59704  21.896  27.297   3.846 -0.3180 -0.0800 -0.1954
16793W        W59705  20.225  25.930   5.924 -0.1544  0.0876  0.4285
16794W        W59706  20.115  25.311   4.138 -0.1481  0.1210  0.2109
16795W        W59707  18.851  28.073   6.546  0.0985  0.0722  0.1330
16796W        W59708  21.054  29.520   4.657 -0.0164  0.0378  0.0224
16797W        W59709  20.502  27.363   5.820 -0.0502 -0.0779  0.0232
16798W        W59710  19.156  25.650   4.917  0.2790 -0.0619 -0.3568
16799W        W59711  21.562  28.506   3.397 -0.0373 -0.2997  0.1456
16800W        W59712  19.446  27.990   5.445  0.2222 -0.0057  0.0458
16801W        W59713  20.081  25.825   7.885 -0.0995  0.1434  0.1366
16802W        W59714  21.096  28.999   4.589 -0.0115  0.1115 -0.1296
16803W        W59715  19.720  24.815   5.894 -0.0006 -0.1817 -0.2062
16804W        W59716  18.899  26.012   3.142  0.2944 -0.2573 -0.3453
16805W        W59717  19.653  24.658   6.394  0.0344  0.0445  0.1410
16806W        W59718  18.061  28.234   3.678 -0.3805  0.1673  0.2624
16807W        W59719  20.976  26.011   6.999  0.0589  0.0201  0.3005
16808W        W59720  20.240  25.792   6.461 -0.2505  0.1752  0.2433
16809W        W59721  20.121  24.866   7.779  0.3010  0.0488 -0.1372
16810W        W59722  20.918  27.198   6.122 -0.0341 -0.1170  0.0731
16811W        W59723  20.879  26.489   4.775  0.2123  0.1654  0.0319
16812W        W59724  19.736  27.855   6.446  0.1352  0.2089 -0.2366
16813W        W59725  18.633  26.496   4.479 -0.0651 -0.1248 -0.0477
16814W        W59726  20.242  26.495   5.518 -0.3186  0.0696 -0.2811
16815W        W59727  18.946  26.635   6.332 -0.2762  0.0582 -0.0934
16816W        W59728  18.373  28.016   6.343 -0.1878  0.3437 -0.0253
16817W        W59729  20.672  27.971   6.476 -0.1281  0.0370  0.0600
16818W        W59730  20.304  27.225   4.945 -0.1158  0.1990  0.3559
16819W        W59731  21.095  25.081   7.878 -0.0542 -0.2530  0.4223
16820W        W59732  20.563  25.517   4.377  0.3190  0.1173 -0.1248
16821W        W59733  19.015  28.126   3.658  0.1646  0.2958 -0.0538
16822W        W59734  18.866  27.664   4.043 -0.1829 -0.0973 -0.2603
16823W        W59735  18.870  24.176   6.096 -0.0925 -0.0778  0.1741
16824W        W59736  20.164  27.388   5.406  0.1944  0.2175 -0.0085
16825W        W59737  19.964  28.627   3.604 -0.1748  0.0737 -0.0632
16826W        W59738  19.738  28.351   6.342 -0.3068 -0.2082 -0.0947
16827W        W59739  19.243  28.059   4.897 -0.0929  0.2418 -0.0490
16828W        W59740  21.210  25.776   6.571  0.1435  0.2453  0.0639
16829W        W59741  19.864  29.022   5.189 -0.1415  0.0415  0.1181
16830W        W59742  18.997  25.691   2.757  0.1725 -0.2066 -0.3237
16831W        W59743  18.168  27.067   4.367 -0.0471 -0.2320  0.0749
16832W        W59744  20.536  26.292   5.160  0.2383  0.1487  0.2462
16833W        W59745  21.546  26.996   4.597 -0.2013  0.2729  0.1557
16834W        W59746  18.388  25.778   6.281  0.0117  0.3380 -0.0103
16835W        W59747  19.277  25.869   5.317  0.1662  0.0065 -0.1130
16836W        W59748  17.699  29.424   6.086 -0.1210 -0.0681  0.2244
16837W        W59749  20.620  27.491   6.378 -0.0902  0.1189 -0.2993
16838W        W59750  21.089  26.159   5.186  0.0971 -0.2061  0.1968
16839W        W59751  20.641  28.292   4.195 -0.0749  0.3880  0.2763
16840W        W59752  21.319  25.696   7.393 -0.0941 -0.2964 -0.1188
16841W        W59753  18.415  26.973   2.955 -0.0842  0.0069 -0.0429
16842W        W59754  21.369  26.356   5.696 -0.2942 -0.1355  0.0685
16843W        W59755  20.827  25.934   4.758  0.2380 -0.0559 -0.2781
16844W        W59756  19.287  27.697   3.755  0.1703  0.2993 -0.2727
16845W        W59757  19.739  30.134   4.558 -0.0366 -0.1178  0.0478
16846W        W59758  18.451  26.092   4.770 -0.2071 -0.0715  0.2257
16847W        W59759  19.487  27.075   3.553 -0.4042 -0.1116 -0.0698
16848W        W59760  18.324  26.025   7.811 -0.2042  0.2484  0.0630
16849W        W59761  20.643  27.861   5.964  0.0811  0.3890  0.2913
16850W        W59762  18.262  26.874   7.389  0.3528 -0.2505  0.2268
16851W        W59763  19.118  26.032   4.568  0.1134  0.2403  0.0437
16852W        W59764  19.734  26.700   3.785  0.0904 -0.3578 -0.1522
16853W        W59765  20.473  27.777   5.503  0.0415  0.0547 -0.0763
16854W        W59766  21.896  26.929   6.558  0.0940 -0.2224 -0.0582
16855W        W59767  18.930  26.928   6.758 -0.2567  0.3554 -0.1202
16856W        W59768  18.471  25.206   5.339  0.0076 -0.0820  0.0922
16857W        W59769  22.598  28.006   3.957  0.1574  0.3521  0.0630
16858W        W59770  21.101  26.436   7.258  0.1393  0.0984  0.2877
16859W        W59771  20.075  27.023   3.580 -0.2451  0.0858 -0.2343
16860W        W59772  18.454  27.974   6.915 -0.3494 -0.1812 -0.0063
16861W        W59773  19.412  26.375   4.027 -0.0130 -0.2829 -0.3178
16862W        W59774  20.115  27.561   5.966 -0.0316 -0.0809  0.1677
16863W        W59775  20.283  28.638   6.976  0.0645 -0.1577 -0.1637
16864W        W59776  18.587  27.209   4.063 -0.1045 -0.4540 -0.0245
16865W        W59777  18.825  28.554   6.584 -0.4719  0.2782  0.0319
16866W        W59778  20.426  24.865   4.453 -0.2000 -0.0785 -0.0954
16867W        W59779  21.082  27.516   3.865  0.2465 -0.0030 -0.2661
16868W        W59780  19.294  26.357   5.509 -0.0922  0.1303  0.0673
16869W        W59781  22.251  27.086   6.247 -0.0095 -0.1967 -0.1188
16870W        W59782  21.210  27.434   4.989 -0.0664  0.0235  0.0294
16871W        W59783  21.744  25.531   8.395 -0.2120  0.0252  0.0335
16872W        W59784  19.479  25.994   6.897  0.1469 -0.0359  0.3692
16873W        W59785  20.689  28.498   5.236 -0.1120  0.2922  0.0258
16874W        W59786  19.231  26.876   5.435 -0.3892 -0.1408  0.2134
16875W        W59787  20.761  28.397   8.188  0.3322 -0.3044  0.0179
16876W        W59788  18.564  27.247   7.115  0.2630 -0.3068  0.0189
16877W        W59789  19.348  25.132   6.657  0.1301  0.0147  0.1308
16878W        W59790  17.464  24.794   4.749 -0.0008  0.2374  0.3600
16879W        W59791  19.997  27.899   5.519 -0.4986  0.1695 -0.3270
16880W        W59792  21.103  27.681   6.335 -0.2181 -0.0569 -0.2211
16881W        W59793  19.561  26.660   3.269  0.2584 -0.0462 -0.1380
16882W        W59794  20.096  26.673   6.477 -0.1222  0.0481  0.2215
16883W        W59795  18.902  27.657   7.064 -0.1783 -0.2328 -0.0028
16884W        W59796  20.924  27.013   5.630 -0.3002  0.2053 -0.0539
16885W        W59797  19.635  27.534   2.901  0.4790 -0.2299 -0.0698
16886W        W59798  18.440  27.329   5.287 -0.2346 -0.0782  0.0084
16887W        W59799  19.698  24.135   6.394  0.2204 -0.2482 -0.0445
16888W        W59800  20.768  27.448   4.802  0.2042  0.2252  0.0213
16889W        W59801  20.760  25.983   4.266  0.1926 -0.1790 -0.0683
16890W        W59802  20.506  24.827   6.904  0.0049  0.1767 -0.0389
16891W        W59803  21.728  26.961   6.080 -0.2599  0.2148  0.2727
16892W        W59804  20.899  25.449   7.380  0.1470  0.0435 -0.1788
16893W        W59805  17.274  25.960   6.932 -0.1760  0.3346 -0.1088
16894W        W59806  21.641  28.959   6.598 -0.0301 -0.0509  0.0840
16895W        W59807  20.928  25.999   3.759 -0.3139  0.1869  0.2266
16896W        W59808  21.353  25.201   6.063  0.0061  0.0849  0.0181
16897W        W59809  21.629  27.803   3.087  0.1547  0.2415 -0.1122
16898W        W59810  20.085  26.270   5.014  0.1509 -0.0165  0.0187
16899W        W59811  17.490  25.677   4.916 -0.0518 -0.0206 -0.1047
16900W        W59812  21.181  26.740   6.825 -0.1283  0.1658  0.2984
16901W        W59813  18.433  25.202   3.781  0.1249  0.0427 -0.0689
16902W        W59814  20.982  25.634   7.855  0.3699 -0.1207  0.0317
16903W        W59815  20.406  29.073   4.454  0.2338  0.0479  0.0482
16904W        W59816  20.740  27.408   4.262  0.2161  0.1026  0.2340
16905W        W59817  21.007  26.934   5.117 -0.0190 -0.1212 -0.1626
16906W        W59818  17.261  26.727   2.734 -0.0150 -0.0479  0.1785
16907W        W59819  19.468  27.370   6.990  0.1048  0.1973  0.0991
16908W        W59820  18.369  26.257   3.777 -0.0594  0.0579  0.2337
16909W        W59821  20.425  27.017   4.412  0.0069  0.1903  0.0254
16910W        W59822  19.781  28.074   5.079  0.3381  0.2625 -0.0088
16911W        W59823  21.131  26.293   8.589  0.1191 -0.0772  0.0128
16912W        W59824  18.485  25.699   2.536  0.1842 -0.1550  0.0939
16913W        W59825  22.395  26.113   6.608  0.2308  0.1179 -0.1422
16914W        W59826  19.273  27.826   6.302 -0.0284 -0.3357 -0.1623
16915W        W59827  19.939  24.044   4.237  0.0986 -0.2253  0.1152
16916W        W59828  20.378  29.862   4.987 -0.0500  0.2342 -0.2659
16917W        W59829  18.008  27.062   6.170  0.2586  0.1041 -0.0028
16918W        W59830  20.111  29.400   3.808  0.1654  0.0466  0.1052
16919W        W59831  20.113  25.500   6.898  0.1117 -0.0393 -0.0729
16920W        W59832  20.509  26.876   5.338 -0.0509  0.1264 -0.2198
16921W        W59833  19.793  27.267   5.033  0.2650 -0.3394 -0.1720
16922W        W59834  21.095  26.292   6.547  0.1586  0.1074  0.0387
16923W        W59835  20.162  27.863   7.281 -0.3224  0.2402 -0.1517
16924W        W59836  18.936  26.076   5.016  0.0013  0.1313 -0.0644
16925W        W59837  19.375  28.764   5.684 -0.0362 -0.0110 -0.1252
16926W        W59838  21.703  26.607   4.830  0.0560 -0.0611  0.0511
16927W        W59839  20.620  28.302   4.745 -0.0031 -0.2443 -0.1671
16928W        W59840  18.053  24.996   6.749 -0.1306 -0.1732 -0.0149
16929W        W59841  20.620  27.365   7.283 -0.1661  0.0161 -0.3686
16930W        W59842  20.009  26.818   5.187  0.2646  0.1171 -0.1892
16931W        W59843  17.971  25.636   4.780 -0.2601 -0.0940 -0.0476
16932W        W59844  18.496  27.727   3.041  0.0843  0.0421  0.2134
16933W        W59845  18.128  29.115   5.862  0.2303  0.4115 -0.2927
16934W        W59846  18.873  26.924   5.762  0.3167 -0.1129  0.1074
16935W        W59847  18.698  28.111   4.473  0.0557  0.1300  0.1062
16936W        W59848  21.408  27.601   3.489 -0.1015  0.4419 -0.1689
16937W        W59849  21.583  28.578   4.729 -0.1376 -0.0272  0.2862
16938W        W59850  20.416  28.811   4.871 -0.1692 -0.0798 -0.2987
16939W        W59851  18.400  26.141   4.239 -0.1662  0.0457  0.1316
16940W        W59852  19.051  26.929   4.795  0.2822 -0.0841  0.0464
16941W        W59853  17.327  29.086   3.571 -0.0258 -0.2622  0.1502
16942W        W59854  20.527  29.150   5.241  0.1596  0.1887  0.1699
16943W        W59855  18.723  28.344   5.589 -0.1955  0.0857  0.1479
16944W        W59856  21.820  29.085   7.400 -0.1513 -0.1394 -0.1782
16945W        W59857  20.667  24.601   4.013 -0.0322  0.2790  0.0617
16946W        W59858  21.678  27.886   5.010  0.0231 -0.0150 -0.6338
16947W        W59859  21.442  25.758   4.502 -0.3808  0.0738 -0.0309
16948W        W59860  20.155  27.499   6.505 -0.0664  0.1641  0.1629
16949W        W59861  19.609  26.819   4.788  0.4081  0.2926 -0.0945
16950W        W59862  19.933  25.918   3.485  0.4410 -0.1873  0.1789
16951W        W59863  17.662  24.753   6.518 -0.3203 -0.3524 -0.0734
16952W        W59864  21.446  24.975   5.230 -0.3321 -0.2839 -0.0868
16953W        W59865  18.334  27.532   6.141  0.1970  0.2369 -0.1174
16954W        W59866  21.720  28.621   3.828  0.0679  0.1885 -0.0335
16955W        W59867  19.274  25.854   4.057 -0.1561 -0.1734 -0.1422
16956W        W59868  19.824  27.710   4.787  0.2141  0.0272 -0.3624
16957W        W59869  21.599  25.533   5.760  0.2133  0.2129  0.4291
16958W        W59870  19.249  27.533   4.827  0.2701  0.2014  0.1225
16959W        W59871  20.390  26.703   4.780 -0.1155 -0.0921 -0.0819
16960W        W59872  20.127  29.525   5.310 -0.0279 -0.1818  0.0928
16961W        W59873  19.653  28.696   4.165  0.0561  0.1116 -0.3766
16962W        W59874  19.324  29.074   5.290 -0.0556 -0.0488 -0.1290
16963W        W59875  17.443  25.545   4.450  0.1514 -0.0703 -0.2898
16964W        W59876  22.451  26.503   4.396  0.2431  0.2453 -0.2409
16965W        W59877  19.253  26.622   5.950  0.1061 -0.0635  0.0526
16966W        W59878  20.269  26.243   6.660  0.1664 -0.0760 -0.4031
16967W        W59879  17.979  25.321   4.314 -0.1420 -0.0478 -0.1146
16968W        W59880  21.371  25.738   5.080  0.0133  0.1423 -0.0691
16969W        W59881  18.828  27.282   6.133  0.1755 -0.0332  0.1417
16970W        W59882  18.826  26.469   5.410 -0.0868 -0.0695 -0.0088
16971W        W59883  18.308  26.670   3.335 -0.2204 -0.0728  0.0626
16972W        W59884  19.900  28.789   6.063  0.0715 -0.1804 -0.1025
16973W        W59885  20.231  27.539   4.438 -0.0635 -0.1887  0.0048
16974W        W59886  20.238  28.603   5.388  0.0743 -0.3022 -0.1779
16975W        W59887  16.997  25.939   4.668 -0.0751  0.2468  0.2597
16976W        W59888  20.048  25.266   4.664  0.0615 -0.1805 -0.2018
16977W        W59889  19.203  26.517   5.045  0.5249  0.0842 -0.2953
16978W        W59890  18.362  27.104   5.761 -0.0382  0.1658 -0.0343
16979W        W59891  21.428  27.568   6.707 -0.0840 -0.0822 -0.1370
16980W        W59892  18.088  25.235   5.762 -0.0754  0.2687 -0.2373
16981W        W59893  21.257  28.248   4.258  0.1466  0.4246  0.1540
16982W        W59894  21.339  26.195   4.779 -0.1834  0.4383  0.3966
16983W        W59895  19.254  28.452   2.135  0.4916 -0.0191 -0.1066
16984W        W59896  20.610  27.858   4.505  0.0045 -0.1538  0.0768
16985W        W59897  21.063  29.729   5.669  0.2468 -0.2891 -0.0808
16986W        W59898  17.605  26.821   6.643 -0.0407 -0.3074 -0.1255
16987W        W59899  20.126  28.136   6.139 -0.1009  0.0968  0.5890
16988W        W59900  21.323  28.236   5.348 -0.2303  0.0446 -0.2667
16989W        W59901  18.493  24.249   3.495  0.1288  0.2791  0.2281
16990W        W59902  19.773  25.702   6.006 -0.0220  0.1704  0.2098
16991W        W59903  18.967  26.873   4.299  0.2203  0.0368 -0.2254
16992W        W59904  22.257  26.729   4.989  0.0904  0.4884 -0.2442
16993W        W59905  20.926  25.278   5.817  0.0535 -0.4126 -0.3055
16994W        W59906  21.617  28.069   3.814  0.1285  0.1052 -0.2900
16995W        W59907  21.399  25.868   8.620  0.0509  0.0328 -0.1338
16996W        W59908  19.569  29.274   4.818 -0.1161 -0.3145  0.4598
16997W        W59909  19.707  27.826   7.069  0.0387  0.0869 -0.0625
16998W        W59910  18.078  26.907   5.296  0.2022  0.2305  0.0341
16999W        W59911  18.331  27.840   5.235 -0.0727 -0.0299  0.1982
17000W        W59912  19.502  26.857   4.251 -0.1001 -0.1797 -0.2971
17001W        W59913  19.923  28.274   4.168 -0.1977 -0.1927  0.0448
17002W        W59914  20.708  29.865   4.513 -0.1998 -0.0956  0.1812
17003W        W59915  19.751  26.558   5.683 -0.0680 -0.0674  0.1054
17004W        W59916  22.316  28.374   4.280  0.0740  0.0785  0.2036
17005W        W59917  19.286  25.988   5.864 -0.2582 -0.1730  0.0004
17006W        W59918  22.055  25.802   5.488  0.2149 -0.2414 -0.1844
17007W        W59919  20.731  26.050   5.706  0.0192 -0.1435  0.0621
17008W        W59920  19.603  27.093   5.754 -0.1276  0.0720 -0.2872
17009W        W59921  18.790  26.417   3.468 -0.0946  0.1413  0.0783
17010W        W59922  19.776  27.747   3.865 -0.1260 -0.0658  0.3066
17011W        W59923  18.766  26.963   5.216 -0.2642 -0.2693 -0.0680
17012W        W59924  21.387  24.751   6.907  0.0362 -0.2941  0.0037
17013W        W59925  19.971  24.528   6.792  0.1747  0.0073  0.3653
17014W        W59926  18.350  26.561   5.571  0.0694  0.2615 -0.2538
17015W        W59927  18.922  25.060   3.846 -0.1742  0.3103  0.0588
17016W        W59928  21.202  28.496   3.785  0.0041  0.2678 -0.3047
17017W        W59929  19.288  25.652   6.248 -0.2826  0.1759 -0.0867
17018W        W59930  18.278  25.223   4.915  0.3584  0.0204  0.0412
17019W        W59931  20.832  29.956   3.570  0.1846  0.1053  0.1635
17020W        W59932  21.809  28.369   5.167  0.0262 -0.3026  0.1407
17021W        W59933  19.283  24.708   3.856 -0.1024  0.2035 -0.4318
17022W        W59934  21.498  26.591   6.375  0.1329 -0.0468  0.1657
17023W        W59935  19.080  27.746   3.231  0.3040  0.4161  0.3260
17024W        W59936  19.918  25.664   8.338 -0.1603 -0.0511  0.0459
17025W        W59937  19.291  25.389   7.509 -0.0223  0.2734  0.0658
17026W        W59938  17.885  26.352   3.314 -0.0238  0.0216 -0.0491
17027W        W59939  20.735  26.716   6.423  0.1440 -0.0026 -0.1132
17028W        W59940  20.268  28.535   4.440 -0.2626 -0.2795 -0.0198
17029W        W59941  21.213  29.691   4.193  0.2632  0.2268  0.1239
17030W        W59942  19.629  28.090   5.927  0.5013  0.3815  0.0357
17031W        W59943  20.719  29.733   6.017 -0.0051 -0.0088  0.0981
17032W        W59944  18.826  25.472   6.431  0.0325 -0.1504 -0.0051
17033W        W59945  20.928  26.986   4.646 -0.1473  0.0427  0.2847
17034W        W59946  20.526  27.181   6.775  0.0503  0.0710 -0.1324
17035W        W59947  22.071  27.853   5.615  0.3546  0.0861 -0.4329
17036W        W59948  21.368  26.578   5.220  0.1788 -0.1447  0.1804
17037W        W59949  21.000  27.555   5.732  0.2211  0.0393  0.0194
17038W        W59950  19.748  25.616   6.490 -0.0484 -0.1194  0.4708
17039W        W59951  20.035  26.110   7.419  0.2068 -0.1305  0.2694
17040W        W59952  21.106  28.859   6.033  0.2904 -0.0266  0.0633
17041W        W59953  18.152  26.567   4.615 -0.1029 -0.2608 -0.5220
17042W        W59954  20.250  25.952   5.386 -0.0770 -0.1206 -0.1173
17043W        W59955  19.099  27.171   3.915  0.1842  0.1341  0.0430
17044W        W59956  19.911  26.522   4.445  0.0790 -0.0203  0.0952
17045W        W59957  20.026  25.369   5.215 -0.1807  0.1798 -0.0534
17046W        W59958  21.208  27.977   5.792 -0.1295  0.1426 -0.0956
17047W        W59959  20.702  28.783   5.641  0.0308  0.0503  0.1592
17048W        W59960  19.191  28.308   5.816 -0.0558 -0.0361  0.2747
17049W        W59961  19.342  25.216   3.472  0.0916  0.4185 -0.1360
17050W        W59962  21.950  28.056   3.404 -0.2123  0.0697 -0.1692
17051W        W59963  20.745  28.710   6.753 -0.0231  0.1456 -0.1058
17052W        W59964  20.959  27.829   6.823 -0.1071 -0.0631  0.1399
17053W        W59965  18.956  28.251   7.003 -0.0796  0.2638 -0.0519
17054W        W59966  19.583  28.363   4.547  0.2119  0.1964 -0.0197
17055W        W59967  20.424  24.298   6.935 -0.2438  0.1281  0.2708
17056W        W59968  19.256  26.511   4.505  0.1480  0.0499 -0.4004
17057W        W59969  20.004  28.496   4.896 -0.0790 -0.0924  0.0076
17058W        W59970  20.657  25.830   6.691  0.0767 -0.0382 -0.0065
17059W        W59971  19.546  26.583   6.360 -0.5179 -0.2147  0.2065
17060W        W59972  21.320  25.134   3.795  0.1173 -0.1581  0.0490
17061W        W59973  18.495  29.019   7.239 -0.1451 -0.2334 -0.3100
17062W        W59974  19.906  28.401   5.769  0.0064  0.3874  0.2519
17063W        W59975  18.965  27.247  10.234  0.0243  0.1473 -0.1952
17064W        W59976  18.841  26.725   7.292  0.0951  0.0455  0.0941
17065W        W59977  22.199  26.894   7.973 -0.0275 -0.2352  0.0602
17066W        W59978  21.711  26.397   8.928  0.1024 -0.1808  0.0651
17067W        W59979  18.564  25.621   9.036  0.2255  0.2430  0.0251
17068W        W59980  20.328  28.236   8.347 -0.0665 -0.2008  0.0291
17069W        W59981  21.300  27.369   9.737 -0.0253 -0.3436 -0.1944
17070W        W59982  19.730  27.418   8.975 -0.1987 -0.0085  0.2091
17071W        W59983  21.600  26.194   7.321  0.0439  0.3171 -0.0150
17072W        W59984  18.760  26.662  10.183  0.0496  0.1965 -0.0151
17073W        W59985  19.960  25.276   8.657 -0.0526  0.1600 -0.3796
17074W        W59986  18.099  24.341   8.894 -0.2187 -0.2446  0.0958
17075W        W59987  21.333  26.720   8.900  0.0603 -0.0139  0.2726
17076W        W59988  18.160  25.445   9.436  0.4301 -0.1642 -0.2820
17077W        W59989  19.288  25.687   8.970  0.1596  0.0003  0.1074
17078W        W59990  20.492  26.191   9.341 -0.2261  0.0073 -0.1420
17079W        W59991  20.306  28.713   8.441 -0.0741  0.0012 -0.1432
17080W        W59992  19.590  23.688  10.779  0.1439 -0.1356  0.0180
17081W        W59993  18.896  26.742   8.091  0.1248  0.1904  0.0045
17082W        W59994  19.733  26.922   7.251  0.1631  0.0159  0.0623
17083W        W59995  17.849  26.803  10.014  0.1741 -0.2809 -0.0036
17084W        W59996  19.898  28.082   9.068 -0.3742 -0.2009 -0.2019
17085W        W59997  20.140  25.567   9.983 -0.0902 -0.0182  0.0153
17086W        W59998  22.211  26.387   8.766  0.2598 -0.2887 -0.2013
17087W        W59999  20.561  27.195   9.046  0.3123 -0.1773 -0.1469
17088W        W60000  20.556  27.146   8.400 -0.0699 -0.2320  0.0130
17089W        W60001  17.974  26.678   9.077 -0.1104  0.1872 -0.0878
17090W        W60002  19.096  26.914   8.592 -0.2229 -0.0426 -0.1302
17091W        W60003  20.097  27.779   8.186 -0.0246  0.3813  0.3133
17092W        W60004  21.044  27.188   8.661 -0.0374 -0.1435 -0.2355
17093W        W60005  18.215  28.427   8.171  0.1938 -0.0273  0.0822
17094W        W60006  20.314  27.094  10.533  0.0617  0.1273  0.1895
17095W        W60007  19.750  25.509   9.493  0.1088 -0.1808 -0.0261
17096W        W60008  20.075  26.594   7.414  0.0736 -0.0491  0.0820
17097W        W60009  20.855  26.469   9.442 -0.1611 -0.0493 -0.1803
17098W        W60010  18.331  26.505   9.478 -0.3736  0.0473 -0.0734
17099W        W60011  19.296  27.691   7.602  0.0006 -0.1643 -0.1378
17100W        W60012  20.932  26.171   8.023 -0.0774 -0.3077  0.3230
17101W        W60013  20.036  25.048   7.209  0.0333  0.0309 -0.2043
17102W        W60014  20.592  25.517   9.340  0.2783 -0.1096  0.0139
17103W        W60015  19.301  24.603   9.127 -0.0053  0.3299 -0.2495
17104W        W60016  17.963  27.864   8.678  0.1145 -0.0597 -0.2607
17105W        W60017  17.618  25.795   9.782  0.0430  0.2904 -0.0848
17106W        W60018  18.998  26.250   8.182  0.0602  0.1905  0.0649
17107W        W60019  16.742  26.914   9.771 -0.2305 -0.0191  0.0073
17108W        W60020  19.975  28.721   9.699  0.4810 -0.1977 -0.0299
17109W        W60021  18.973  25.743   8.606  0.0841 -0.1253 -0.1662
17110W        W60022  21.102  27.443   7.167  0.0247  0.0485 -0.2501
17111W        W60023  22.051  27.568   9.685 -0.1335 -0.1945 -0.0298
17112W        W60024  21.166  27.172   7.602 -0.3122 -0.2937  0.1329
17113W        W60025  17.713  26.065   7.842  0.1674 -0.2246 -0.2589
17114W        W60026  19.593  24.794   7.846  0.1371 -0.0622 -0.1256
17115W        W60027  23.018  25.594   7.877  0.2680  0.2987  0.0030
17116W        W60028  18.311  26.841   8.127  0.0920  0.1130 -0.1300
17117W        W60029  20.226  25.710  10.479  0.4491 -0.1850 -0.2033
17118W        W60030  20.012  27.108   6.715  0.0169  0.1169  0.1418
17119W        W60031  21.042  20.974  10.351  0.1148 -0.0451 -0.3022
17120W        W60032  19.801  24.712  10.169  0.3259 -0.2114 -0.1710
17121W        W60033  19.214  26.836   7.632  0.1597 -0.1232 -0.0529
17122W        W60034  19.877  26.509   6.881 -0.1778 -0.2298 -0.0589
17123W        W60035  20.947  26.825   9.747  0.2206 -0.3030  0.0474
17124W        W60036  21.928  25.520   7.451  0.0633  0.0242  0.1545
17125W        W60037  19.131  27.394   8.859  0.1331 -0.0835 -0.0831
17126W        W60038  17.914  28.222   6.481  0.1151 -0.2344 -0.3168
17127W        W60039  18.745  26.309   9.798 -0.3612 -0.3230 -0.1254
17128W        W60040  18.733  27.558   7.569 -0.1834 -0.5238 -0.0446
17129W        W60041  18.565  24.910   8.447 -0.0606  0.2758  0.1355
17130W        W60042  19.104  26.556   8.919 -0.1159  0.0659  0.1409
17131W        W60043  22.272  24.506   8.761  0.3317 -0.0144  0.2321
17132W        W60044  21.768  25.982   9.180  0.3439 -0.0132 -0.1441
17133W        W60045  18.445  26.776   8.984 -0.1022  0.0855 -0.2647
17134W        W60046  22.333  28.490   6.077 -0.4295 -0.1381 -0.2403
17135W        W60047  20.454  26.293   7.905  0.0333 -0.0737 -0.0783
17136W        W60048  21.770  27.384   6.306 -0.4327 -0.0640  0.2841
17137W        W60049  18.381  26.253   8.998  0.0406 -0.0597  0.0706
17138W        W60050  18.130  25.961   7.178  0.0023  0.0204  0.1401
17139W        W60051  17.634  26.541   8.677 -0.1519 -0.0880 -0.0995
17140W        W60052  18.492  25.551   7.290  0.2060 -0.1389 -0.2138
17141W        W60053  20.067  26.234  10.112 -0.0025  0.0015 -0.0600
17142W        W60054  19.951  25.974   6.957 -0.1433 -0.0845 -0.1902
17143W        W60055  18.844  26.033   8.968  0.2545 -0.0219 -0.3600
17144W        W60056  19.768  26.870   8.338  0.0908  0.0002  0.1820
17145W        W60057  23.699  28.368  10.356  0.1947 -0.1343  0.3338
17146W        W60058  20.695  26.730   8.728 -0.0513 -0.0960  0.0256
17147W        W60059  20.231  24.292  10.816 -0.1668 -0.4081  0.1778
17148W        W60060  17.546  25.479   7.246  0.1578  0.2929  0.1235
17149W        W60061  18.787  28.402   8.022  0.0309  0.1227 -0.2134
17150W        W60062  19.473  27.017   8.926 -0.0062  0.0791 -0.1256
17151W        W60063  19.265  26.882   7.128 -0.1200 -0.0750 -0.2087
17152W        W60064  21.633  30.167   9.798 -0.0266  0.0599 -0.1240
17153W        W60065  20.418  27.584   7.655 -0.2855 -0.3181  0.0728
17154W        W60066  21.304  25.158   9.071 -0.1117 -0.3543 -0.1463
17155W        W60067  20.156  26.093   8.292  0.1651 -0.0454  0.1883
17156W        W60068  18.928  24.269   7.627 -0.2475 -0.0661 -0.3263
17157W        W60069  20.267  27.901  10.375  0.0641  0.1431  0.2206
17158W        W60070  17.971  27.720   6.363  0.1156 -0.1889  0.0703
17159W        W60071  17.545  26.535   8.158 -0.1291  0.0464 -0.0442
17160W        W60072  20.082  27.385   8.518 -0.1993  0.0027  0.0214
17161W        W60073  22.578  25.605   8.252 -0.2043 -0.1223 -0.0099
17162W        W60074  18.072  26.343   8.511  0.0620 -0.1212  0.0067
17163W        W60075  20.803  25.294   8.240  0.1300  0.2298  0.0675
17164W        W60076  21.459  24.696   9.070 -0.2955 -0.0290 -0.0442
17165W        W60077  22.492  27.305   8.097 -0.0324 -0.1754  0.2490
17166W        W60078  21.490  25.176   7.330 -0.1470  0.0068  0.2468
17167W        W60079  19.851  25.718   8.951 -0.2677  0.0218  0.1274
17168W        W60080  20.069  26.172   9.006  0.0759  0.0607 -0.2603
17169W        W60081  20.509  26.635  10.209  0.0385 -0.0951 -0.1032
17170W        W60082  19.622  25.512   7.951  0.4516  0.2114 -0.2476
17171W        W60083  21.833  27.788   7.793  0.3072 -0.2614 -0.2364
17172W        W60084  18.281  26.130   9.860  0.1942 -0.0266  0.2859
17173W        W60085  20.900  27.723   8.856 -0.2990  0.0831 -0.1570
17174W        W60086  21.012  24.156  10.202  0.0296  0.0411 -0.0094
17175W        W60087  19.419  26.096   6.396 -0.0174  0.0785 -0.2173
17176W        W60088  19.705  26.046   9.375 -0.0269 -0.1367 -0.1317
17177W        W60089  18.568  27.600   6.569 -0.4104 -0.1061 -0.2523
17178W        W60090  19.298  25.679  10.122  0.0533 -0.0703 -0.0802
17179W        W60091  20.835  25.755   8.836 -0.1102 -0.1576 -0.0930
17180W        W60092  20.641  28.443   9.720 -0.1785 -0.1375  0.0206
17181W        W60093  19.543  26.914   6.756 -0.0708  0.0998  0.1617
17182W        W60094  18.901  27.766   9.855  0.2260 -0.2195 -0.1180
17183W        W60095  18.712  25.739   9.843 -0.1419 -0.1663  0.1623
17184W        W60096  21.284  25.710   9.100  0.6621  0.1275  0.1968
17185W        W60097  20.303  25.033   8.391  0.2595  0.0989  0.0389
17186W        W60098  20.461  27.708   6.910  0.1383 -0.0099 -0.1321
17187W        W60099  19.875  27.049   6.226 -0.1025  0.0742  0.0229
17188W        W60100  17.754  25.374   9.942  0.0994 -0.0278  0.3318
17189W        W60101  20.056  26.984   8.748  0.1582  0.0095  0.0340
17190W        W60102  19.565  27.411   6.539  0.2499  0.0114  0.0130
17191W        W60103  17.030  27.906   8.999  0.0634 -0.1556  0.2501
17192W        W60104  19.724  27.223   7.961  0.0836 -0.4399  0.0112
17193W        W60105  20.250  24.769  10.509  0.0028 -0.2357  0.4148
17194W        W60106  17.083  27.699   9.970 -0.0335 -0.1153 -0.0023
17195W        W60107  18.566  25.457   8.530  0.0003 -0.1362  0.0517
17196W        W60108  17.094  26.366   8.665 -0.0719 -0.0805 -0.3716
17197W        W60109  22.165  25.557   8.810 -0.2697 -0.0906  0.0611
17198W        W60110  21.717  27.089   7.529 -0.0526 -0.3613  0.0026
17199W        W60111  19.889  27.051  10.330 -0.0901 -0.1097 -0.2243
17200W        W60112  20.451  26.381   9.793  0.3208  0.1217 -0.3180
17201W        W60113  18.356  28.711   7.687  0.0770 -0.1576  0.1265
17202W        W60114  20.579  24.829   8.065 -0.0981  0.1405  0.1532
17203W        W60115  19.038  24.770   6.956 -0.0637  0.0777 -0.0094
17204W        W60116  21.918  25.593  10.873  0.1234 -0.0759 -0.1384
17205W        W60117  20.143  25.302   9.162 -0.1502  0.2103 -0.0628
17206W        W60118  20.006  27.071   9.222  0.2741  0.0365  0.0954
17207W        W60119  19.472  27.105   9.963  0.0457  0.2160  0.0299
17208W        W60120  19.588  25.875   7.326  0.2844 -0.0293  0.0586
17209W        W60121  19.254  28.171   8.124 -0.3430 -0.0091  0.1527
17210W        W60122  20.131  27.351   9.972  0.1566  0.1302  0.1620
17211W        W60123  19.246  26.040  10.499 -0.1923  0.0128  0.0331
17212W        W60124  19.447  26.014   8.310  0.2016  0.1115  0.1697
17213W        W60125  19.817  26.391   8.567 -0.0152  0.0247  0.2623
17214W        W60126  20.865  26.072   9.830  0.0104 -0.3078 -0.0254
17215W        W60127  20.501  26.142  10.246  0.0305 -0.0204 -0.2470
17216W        W60128  19.430  24.293   8.757  0.2183  0.2241  0.1153
17217W        W60129  20.658  29.472   8.394  0.0958  0.1695  0.3908
17218W        W60130  19.505  27.237   7.564 -0.2675 -0.2701 -0.0724
17219W        W60131  18.128  26.967   9.611 -0.0630 -0.0947 -0.0566
17220W        W60132  19.334  26.485   8.480  0.0017  0.1134  0.0152
17221W        W60133  18.608  24.513   8.798 -0.1842  0.2591  0.0022
17222W        W60134  19.753  27.601  10.317 -0.0564  0.1276  0.0879
17223W        W60135  20.302  26.788   6.976 -0.0072  0.0115 -0.3141
17224W        W60136  18.637  28.008   8.938  0.0583  0.1043  0.2301
17225W        W60137  22.457  23.007  10.088 -0.1360  0.0495 -0.0052
17226W        W60138  21.414  26.665   7.554 -0.1396 -0.0091  0.2500
17227W        W60139  19.160  24.730   8.620 -0.0056 -0.0765  0.0162
17228W        W60140  20.869  26.593   7.777  0.3253 -0.2543  0.0177
17229W        W60141  17.099  27.373   9.009  0.0770  0.1967  0.0930
17230W        W60142  21.493  27.309   8.389 -0.1936  0.1811  0.2172
17231W        W60143  19.799  25.893   9.841 -0.1995 -0.2224  0.3268
17232W        W60144  18.244  27.251   7.751  0.2554 -0.0712  0.1067
17233W        W60145  19.333  25.829   9.660  0.0168 -0.0617 -0.0227
17234W        W60146  20.103  27.154   7.612  0.0786  0.1537 -0.0339
17235W        W60147  19.510  25.610   8.583  0.1367  0.1016  0.0787
17236W        W60148  20.927  25.972   9.347  0.0926  0.1467 -0.2387
17237W        W60149  20.177  27.849   9.574  0.1009  0.2055 -0.2581
17238W        W60150  20.597  26.191   8.418 -0.0942  0.0191 -0.0043
17239W        W60151  18.639  25.837   8.210 -0.4336  0.0926 -0.1473
17240W        W60152  18.759  26.473   9.299  0.4373 -0.0807  0.0345
17241W        W60153  21.539  25.585  10.235  0.0580  0.0604 -0.1050
17242W        W60154  20.728  25.047   9.262  0.0088  0.1091 -0.1829
17243W        W60155  20.230  27.331   8.044  0.1533 -0.1365 -0.0361
17244W        W60156  20.394  25.594   8.477  0.4397 -0.2114 -0.0682
17245W        W60157  21.322  23.009   9.547  0.1132  0.3122  0.1244
17246W        W60158  20.886  24.957   9.924 -0.2236  0.1155 -0.1622
17247W        W60159  20.333  25.746   8.913 -0.2238  0.0540  0.0072
17248W        W60160  20.565  27.593   9.874 -0.3086  0.0694 -0.1245
17249W        W60161  19.153  26.304   7.235 -0.2569  0.0994 -0.0101
17250W        W60162  21.408  27.920   7.578  0.0994  0.0704  0.0900
17251W        W60163  20.663  26.243   8.904  0.1613 -0.2366  0.1736
17252W        W60164  22.490  26.937   8.522  0.0788  0.1130  0.1060
17253W        W60165  19.205  26.180   9.975 -0.0161  0.2432  0.1227
17254W        W60166  18.747  25.761   7.685  0.3195 -0.2632 -0.1578
17255W        W60167  20.512  26.916   7.487 -0.1328 -0.3648  0.0706
17256W        W60168  19.684  26.480   9.068  0.0708  0.2604  0.0508
17257W        W60169  19.184  25.113   7.949  0.0841 -0.1103  0.2127
17258W        W60170  17.491  27.787   7.855  0.0647 -0.1140 -0.1824
17259W        W60171  20.955  24.770   8.916  0.0789  0.0185  0.0479
17260W        W60172  18.483  27.736  10.183 -0.2806  0.3743  0.0243
17261W        W60173  20.486  27.639   8.494 -0.0184 -0.1313 -0.1214
17262W        W60174  21.987  27.019   8.403  0.1490  0.2329  0.1929
17263W        W60175  20.515  25.214   9.729 -0.0855 -0.0321 -0.1629
17264W        W60176  19.478  26.928   9.524  0.2725 -0.0608  0.1253
17265W        W60177  19.018  26.963   9.214  0.0960 -0.0490  0.0610
17266W        W60178  22.235  25.964   9.599  0.1450 -0.1245  0.1225
17267W        W60179  19.308  27.452   9.325 -0.0691  0.0791 -0.1788
17268W        W60180  20.121  26.797   9.992  0.0281 -0.3198  0.2527
17269W        W60181  19.058  25.255   8.703  0.1077  0.0255  0.1695
17270W        W60182  19.894  27.648   7.669  0.0849  0.1041  0.3710
17271W        W60183  19.507  26.426   9.672 -0.0295  0.0701  0.0357
17272W        W60184  18.717  26.474   8.602  0.0523 -0.2092 -0.1356
17273W        W60185  22.874  27.270   8.618  0.0275  0.0085 -0.1296
17274W        W60186  18.907  26.331   7.689 -0.0221  0.2550 -0.0311
17275W        W60187  21.435  26.254   9.896  0.0514 -0.0802 -0.2355
17276W        W60188  20.480  25.846   7.564  0.0798 -0.2559  0.1719
17277W        W60189  18.971  27.313   8.381  0.1792  0.1399 -0.1886
17278W        W60190  18.079  28.610   6.243 -0.0272 -0.3419 -0.2968
17279W        W60191  20.340  26.803   7.955 -0.2665 -0.0125  0.0024
17280W        W60192  19.326  26.913   8.148 -0.0830  0.1562  0.1731
17281W        W60193  21.792  23.442   8.239  0.0581  0.0417  0.0512
17282W        W60194  21.359  25.139   9.842 -0.1434 -0.1628  0.0183
17283W        W60195  21.761  24.782   7.259  0.0357 -0.3507  0.0155
17284W        W60196  18.177  27.194   9.118  0.2513 -0.2585 -0.0073
17285W        W60197  19.846  24.647   8.786 -0.1329 -0.0781  0.2789
17286W        W60198  21.694  26.871   8.056 -0.0421 -0.1871 -0.1610
17287W        W60199  19.124  25.650   8.115  0.1470  0.0004  0.3030
17288W        W60200  19.534  25.198   8.945  0.1545 -0.0151 -0.1486
17289W        W60201  20.243  24.375  10.110 -0.1759  0.1345  0.2288
17290W        W60202  19.284  25.961   7.780 -0.3009 -0.1728 -0.1315
17291W        W60203  19.469  26.122   8.793  0.2029  0.0743  0.1088
17292W        W60204  19.590  27.674   8.042 -0.2345  0.0241  0.1442
17293W        W60205  17.820  28.152   9.060  0.0732 -0.2612 -0.4719
17294W        W60206  17.964  27.856  10.051  0.1912 -0.1884  0.2195
17295W        W60207  18.324  24.809   8.023  0.0932  0.0281 -0.3601
17296W        W60208  22.350  25.272   7.462  0.0011 -0.0849  0.1508
17297W        W60209  18.850  25.549  10.338  0.3270  0.0023  0.1651
17298W        W60210  18.120  25.766   8.325  0.1789  0.1763 -0.1022
17299W        W60211  22.683  25.632   8.757  0.2148 -0.1398  0.1229
17300W        W60212  20.446  26.849   9.475  0.0743 -0.0101  0.0352
17301W        W60213  16.137  28.250   7.690  0.0547 -0.1094  0.1246
17302W        W60214  21.381  27.134   6.478  0.0768  0.0919 -0.0337
17303W        W60215  19.953  26.316   7.875 -0.2466  0.0650  0.2854
17304W        W60216  17.782  25.174   9.333  0.0509 -0.0742 -0.0081
17305W        W60217  20.980  25.797   8.377 -0.0695 -0.2241 -0.0062
17306W        W60218  18.674  27.675   8.577  0.0344 -0.1508 -0.2627
17307W        W60219  19.035  27.162   9.678 -0.0186  0.0673  0.0856
17308W        W60220  18.244  25.513   7.853  0.0272  0.1434  0.2679
17309W        W60221  20.837  26.949   7.090  0.0235  0.0346 -0.0194
17310W        W60222  22.145  26.479   9.258  0.8362  0.1490  0.2820
17311W        W60223  19.567  27.333   8.463  0.0062 -0.2035 -0.0826
17312W        W60224  21.384  25.945   9.516 -0.1284  0.2367 -0.0046
17313W        W60225  19.226  26.884  10.365 -0.1684 -0.0526  0.2856
17314W        W60226  19.487  25.434  10.527 -0.1197  0.0931  0.0226
17315W        W60227  20.474  28.909   9.911  0.0211  0.2236  0.2080
17316W        W60228  21.200  28.015   8.050  0.2345  0.0023 -0.1287
17317W        W60229  19.861  23.938   8.919  0.2274 -0.0589  0.0905
17318W        W60230  18.635  25.190   9.421  0.1841  0.1117 -0.0968
17319W        W60231  18.752  27.041   7.699 -0.2382 -0.2736  0.0421
17320W        W60232  20.175  25.831   9.450 -0.0332 -0.0708 -0.2728
17321W        W60233  20.062  27.358   7.119  0.0214  0.0047 -0.1969
17322W        W60234  18.572  28.217   8.455  0.1445 -0.0610  0.0110
17323W        W60235  18.247  27.398   8.624  0.0417 -0.0192 -0.1860
17324W        W60236  18.216  27.899   8.205 -0.0337  0.0307  0.4316
17325W        W60237  19.739  26.785   7.755  0.2372 -0.0433 -0.2674
17326W        W60238  21.121  27.812   9.294  0.1302  0.1161  0.2580
17327W        W60239  21.051  25.467   9.497  0.2463 -0.1568 -0.1048
17328W        W60240  21.590  28.025  10.063 -0.4461  0.5228  0.0233
17329W        W60241  18.177  24.783   9.103  0.0719  0.0179 -0.0436
17330W        W60242  22.440  23.961  10.262  0.0884  0.1852 -0.4192
17331W        W60243  19.897  25.165   8.132  0.1548  0.2253  0.0606
17332W        W60244  20.305  27.646   9.007  0.0971 -0.1841 -0.2666
17333W        W60245  18.293  26.896   6.894  0.0680 -0.3932 -0.2960
17334W        W60246  19.278  27.893   6.790  0.0749  0.1009  0.0076
17335W        W60247  18.224  25.335  10.124 -0.0747 -0.0047  0.1174
17336W        W60248  19.149  26.733   9.821  0.2184  0.2485 -0.1056
17337W        W60249  18.708  25.838   6.844  0.1118  0.0818 -0.2453
17338W        W60250  21.366  27.870   8.528  0.1759  0.3452  0.2824
17339W        W60251  19.159  25.174  10.172  0.1602 -0.1183 -0.0441
17340W        W60252  18.361  23.995   8.418  0.1849  0.3446 -0.0852
17341W        W60253  20.249  26.606   8.484 -0.0102 -0.0043 -0.1160
17342W        W60254  21.382  27.509   7.892  0.0312  0.1638 -0.2570
17343W        W60255  20.028  25.085   9.752 -0.0978  0.3968  0.0448
17344W        W60256  17.179  27.169   6.546 -0.1082 -0.0222 -0.1824
17345W        W60257  18.000  26.461   7.970  0.2192 -0.0638  0.2101
17346W        W60258  19.153  25.370   9.682  0.1672 -0.0458  0.0446
17347W        W60259  19.183  27.862   9.069 -0.1731 -0.2387  0.1010
17348W        W60260  21.224  28.455   7.432 -0.2140 -0.1589 -0.2173
17349W        W60261  18.941  25.732   9.397 -0.0875 -0.1027 -0.2673
17350W        W60262  21.576  26.281   8.384  0.0246  0.0788 -0.1808
17351W        W60263  22.042  26.389   8.327  0.1675  0.1122  0.0855
17352W        W60264  21.092  26.474  10.146 -0.2281  0.0260 -0.3180
17353W        W60265  19.747  24.791   9.293 -0.1208  0.3240  0.0204
17354W        W60266  19.418  27.413  10.636 -0.3279 -0.1510  0.1944
17355W        W60267  18.621  25.083   8.929  0.0382 -0.0400  0.0659
17356W        W60268  21.271  26.231   9.055  0.0157  0.0306 -0.0307
17357W        W60269  22.519  27.416   8.918 -0.4158  0.1810  0.3264
17358W        W60270  19.207  26.187   9.335 -0.0527 -0.2895 -0.3522
17359W        W60271  21.950  25.280   9.833  0.1093 -0.0108  0.1073
17360W        W60272  19.784  27.316   9.596 -0.1568 -0.1383 -0.1252
17361W        W60273  20.538  26.428   7.447  0.0138 -0.1294  0.0686
17362W        W60274  22.511  25.678   7.727 -0.0002 -0.1574  0.1287
17363W        W60275  18.592  26.976   9.449 -0.0019 -0.2401 -0.3022
17364W        W60276  17.649  27.063   9.631  0.1590 -0.1095 -0.0367
17365W        W60277  22.040  25.548   9.361 -0.0122 -0.1234  0.1667
17366W        W60278  17.377  24.733   9.481 -0.0149 -0.1008 -0.0707
17367W        W60279  19.583  26.482   7.351  0.1357 -0.2487 -0.0431
17368W        W60280  20.313  26.622   9.059  0.0843  0.1280  0.1582
17369W        W60281  19.740  27.929   9.942  0.0903  0.0052  0.1769
17370W        W60282  20.556  25.683   9.837 -0.3685 -0.1390  0.0701
17371W        W60283  20.172  24.541   8.334 -0.0700 -0.0154  0.0574
17372W        W60284  19.125  28.680  10.115 -0.0900  0.0357 -0.1811
17373W        W60285  19.999  26.325   9.575 -0.1382  0.0689  0.2082
17374W        W60286  19.047  31.208   3.052  0.0397  0.0526  0.0319
17375W        W60287  20.694  30.679   0.076  0.1218  0.1329  0.1423
17376W        W60288  21.708  30.081   0.929  0.1063  0.6239  0.1236
17377W        W60289  21.555  30.546   0.887  0.2864 -0.0417  0.0167
17378W        W60290  18.209  30.388   1.516 -0.3383  0.0149 -0.1680
17379W        W60291  20.360  32.633   1.237  0.2634  0.1646  0.0737
17380W        W60292  18.642  26.877   3.647 -0.2905  0.2937 -0.0155
17381W        W60293  21.243  32.146   2.427 -0.4067  0.4539 -0.2704
17382W        W60294  20.422  33.282   2.394  0.1682  0.0543  0.3091
17383W        W60295  20.927  30.774   0.536 -0.0157  0.0870  0.1066
17384W        W60296  20.300  30.985   1.473 -0.2591  0.2257 -0.0465
17385W        W60297  19.620  31.260   2.919  0.1990 -0.2921 -0.0370
17386W        W60298  17.776  30.196   0.291  0.1242  0.1917  0.0702
17387W        W60299  18.708  29.463   1.628 -0.0095 -0.1456  0.0230
17388W        W60300  19.792  31.134   2.447  0.3206 -0.0747 -0.0109
17389W        W60301  19.823  31.828   0.237 -0.2436  0.2420  0.2371
17390W        W60302  20.724  29.763   2.817 -0.1179 -0.0412  0.0235
17391W        W60303  21.893  30.313   3.192  0.1052  0.1291 -0.0410
17392W        W60304  20.113  31.759   2.311  0.0338  0.1724 -0.2439
17393W        W60305  19.479  29.769   2.957 -0.4188 -0.1686 -0.0939
17394W        W60306  20.692  30.654   2.788  0.2132  0.0538  0.0902
17395W        W60307  19.149  30.189   1.119 -0.1346  0.0647 -0.1916
17396W        W60308  18.758  31.824  31.452  0.2790  0.0360  0.1208
17397W        W60309  19.049  31.981   1.637  0.0411 -0.0526 -0.1896
17398W        W60310  19.830  30.261   2.628  0.2813  0.1131  0.0513
17399W        W60311  21.829  28.768   1.553  0.1536 -0.0253 -0.0375
17400W        W60312  22.429  29.618   1.719 -0.1166  0.2822 -0.2507
17401W        W60313  19.160  33.668  31.712  0.2894  0.0803 -0.1216
17402W        W60314  20.274  31.949   0.660 -0.0113  0.1476 -0.0639
17403W        W60315  20.963  30.437   3.557 -0.2280  0.1304 -0.1204
17404W        W60316  18.547  32.608   1.665 -0.4408 -0.2384  0.1275
17405W        W60317  17.856  31.849   2.542 -0.5752  0.0274 -0.0292
17406W        W60318  19.529  31.544   0.647  0.2412  0.0057 -0.0784
17407W        W60319  21.646  31.174   2.799  0.4164 -0.2110 -0.1222
17408W        W60320  21.386  32.645   3.542  0.1767 -0.1577  0.5187
17409W        W60321  20.389  32.968   3.579  0.0410  0.1150  0.0825
17410W        W60322  20.635  31.897   1.533  0.3454 -0.0636  0.1185
17411W        W60323  19.567  33.947   4.138  0.1005 -0.2192 -0.0205
17412W        W60324  20.405  31.386   3.280 -0.0056  0.0076  0.0884
17413W        W60325  19.792  30.104   3.692  0.1795  0.0076  0.1414
17414W        W60326  21.152  31.104   1.588 -0.1523  0.2890 -0.2491
17415W        W60327  18.474  31.620   0.485 -0.0705  0.1854 -0.1324
17416W        W60328  19.661  32.194   1.138 -0.0339 -0.1168 -0.1668
17417W        W60329  20.846  32.127   5.623 -0.1366 -0.1809  0.0510
17418W        W60330  18.725  31.266   2.495  0.3077 -0.2661 -0.1898
17419W        W60331  21.175  30.058   4.551 -0.1954 -0.0714  0.1950
17420W        W60332  18.199  33.095   0.948  0.1826 -0.0303 -0.0481
17421W        W60333  20.647  30.324  31.351 -0.0286 -0.0832  0.3283
17422W        W60334  19.992  30.551   0.288 -0.3347  0.2512 -0.3571
17423W        W60335  21.781  29.715   0.489 -0.1587 -0.0257  0.3517
17424W        W60336  19.172  29.533   1.122 -0.2139  0.3166  0.0264
17425W        W60337  19.378  32.259   2.001  0.0755  0.0505  0.0695
17426W        W60338  18.836  30.201   2.090 -0.0865 -0.1250 -0.1868
17427W        W60339  21.727  30.928   2.332 -0.0661  0.0059  0.0827
17428W        W60340  21.080  31.713   2.132  0.1159 -0.2956  0.1816
17429W        W60341  19.493  30.167   1.527 -0.0063 -0.1271 -0.0059
17430W        W60342  18.727  32.189   1.952  0.1519 -0.1819 -0.0554
17431W        W60343  19.470  30.562   1.861 -0.2138  0.0789  0.1328
17432W        W60344  20.765  32.669  31.778  0.3510  0.0578 -0.1848
17433W        W60345  20.525  31.107   0.411  0.2837  0.2233 -0.1774
17434W        W60346  19.629  32.938  31.752 -0.1278  0.0293 -0.1806
17435W        W60347  18.917  31.474   1.496 -0.1834 -0.1358 -0.1223
17436W        W60348  18.689  30.981   3.365  0.0523  0.1130  0.0430
17437W        W60349  18.639  28.902   1.711 -0.0055  0.0541  0.0240
17438W        W60350  18.747  28.476   0.456 -0.3013 -0.0077  0.2528
17439W        W60351  22.265  32.878   3.716  0.2232 -0.2508  0.2808
17440W        W60352  19.164  31.676   3.902  0.2273 -0.1125  0.1918
17441W        W60353  21.355  29.470   2.122 -0.0258 -0.2078  0.0971
17442W        W60354  21.102  30.346   2.625  0.0236  0.0608  0.0901
17443W        W60355  20.304  32.382   3.549 -0.3393 -0.0888 -0.0674
17444W        W60356  19.591  30.691  31.018 -0.2017  0.2084 -0.0637
17445W        W60357  21.393  29.000   1.867  0.1417  0.1622  0.4036
17446W        W60358  20.606  28.180   1.856 -0.0514 -0.3269 -0.0315
17447W        W60359  19.001  30.981   1.548  0.0527  0.1135 -0.0361
17448W        W60360  19.847  31.366   1.450  0.0102 -0.0181  0.0609
17449W        W60361  21.148  33.160   3.101 -0.0852  0.1177  0.1348
17450W        W60362  21.204  30.815  31.976  0.0364 -0.2035 -0.1378
17451W        W60363  17.629  32.262   0.837 -0.1466 -0.2004  0.1794
17452W        W60364  19.284  29.003   3.024 -0.0759 -0.0934 -0.2057
17453W        W60365  21.289  31.414   3.654  0.1012  0.1124 -0.1062
17454W        W60366  17.577  33.115  31.408  0.1685 -0.2385 -0.1260
17455W        W60367  17.830  32.232   2.947  0.1268  0.1473  0.0304
17456W        W60368  19.601  31.822   1.530 -0.2551  0.0171  0.3249
17457W        W60369  17.846  29.255   1.774  0.0661 -0.0512  0.4803
17458W        W60370  19.179  32.083   2.805  0.2774  0.3919 -0.1744
17459W        W60371  20.829  30.214   1.315  0.1392  0.0879 -0.1530
17460W        W60372  17.025  30.233   1.133  0.0300  0.0485 -0.1548
17461W        W60373  22.036  29.643   1.135 -0.0065 -0.0984 -0.1168
17462W        W60374  20.405  30.537   1.810  0.1232  0.1012  0.0703
17463W        W60375  21.840  32.160   1.197  0.0060  0.0708 -0.0485
17464W        W60376  21.000  27.737   0.723  0.0181 -0.1410 -0.0713
17465W        W60377  21.277  32.773  31.451  0.0352 -0.2256  0.1919
17466W        W60378  19.039  30.394   1.629 -0.1402 -0.0279  0.0803
17467W        W60379  19.621  29.367   1.423 -0.3354  0.0710 -0.0383
17468W        W60380  19.334  29.301   2.169  0.1530 -0.1631 -0.0006
17469W        W60381  17.084  27.821   2.060  0.0825 -0.0954  0.0009
17470W        W60382  20.869  30.148   4.046  0.1774 -0.1283 -0.1059
17471W        W60383  18.056  30.824   0.530  0.0886 -0.5775  0.1461
17472W        W60384  21.351  30.247   1.309  0.1338  0.1407  0.2089
17473W        W60385  19.591  31.026   1.886  0.0617  0.0411  0.0412
17474W        W60386  16.148  29.706   0.363  0.0627 -0.3516  0.3500
17475W        W60387  21.354  28.919   3.591  0.6269 -0.0414  0.3206
17476W        W60388  21.416  31.506   1.754  0.0181  0.0529  0.0122
17477W        W60389  20.760  33.580   2.542  0.1618  0.0293 -0.2559
17478W        W60390  21.438  33.030   2.117  0.1435 -0.2863  0.0684
17479W        W60391  18.711  29.264   2.152 -0.0988 -0.0763 -0.0486
17480W        W60392  18.372  29.791   0.458  0.0199  0.1604  0.1205
17481W        W60393  18.570  32.760   1.015  0.0525  0.1400 -0.2275
17482W        W60394  19.954  30.234   1.740  0.2228 -0.0859  0.0528
17483W        W60395  18.343  29.651   0.924  0.1539 -0.0332 -0.0385
17484W        W60396  19.357  32.616   2.387 -0.1382 -0.2865  0.0176
17485W        W60397  20.228  31.282   1.039  0.0593 -0.1515  0.1469
17486W        W60398  19.240  30.938   2.533 -0.4544  0.2752  0.0396
17487W        W60399  19.112  28.373   3.218 -0.1929 -0.2481 -0.1451
17488W        W60400  22.759  33.060   2.927 -0.0690  0.0044  0.2133
17489W        W60401  21.020  30.782   2.116 -0.1574 -0.2179 -0.0240
17490W        W60402  17.608  29.753  31.727  0.1600 -0.2199 -0.1771
17491W        W60403  20.591  32.263   2.816 -0.1588  0.1223  0.4251
17492W        W60404  18.421  33.562   0.351  0.0961  0.5709 -0.0533
17493W        W60405  18.343  31.931   2.154 -0.2081 -0.0098 -0.1365
17494W        W60406  19.660  33.364   1.369  0.0423  0.1471 -0.1137
17495W        W60407  21.820  30.727   1.794 -0.0070  0.4598  0.0326
17496W        W60408  18.611  29.903   2.397  0.3613 -0.0389 -0.0044
17497W        W60409  19.848  29.380   2.203  0.5733  0.1377 -0.2079
17498W        W60410  19.515  30.528   1.181 -0.0030  0.0664  0.2140
17499W        W60411  17.980  31.786   3.187 -0.0561 -0.1468 -0.2199
17500W        W60412  20.668  30.203   0.783  0.2477  0.0881  0.0551
17501W        W60413  22.653  30.265   1.456  0.1129 -0.2617 -0.0908
17502W        W60414  21.740  31.921   4.337 -0.2041  0.0582 -0.1965
17503W        W60415  21.058  31.310   0.338  0.0769  0.0575  0.0589
17504W        W60416  22.143  30.224   0.085  0.0707  0.2262 -0.0758
17505W        W60417  20.702  28.618   0.465 -0.1365 -0.2402  0.0671
17506W        W60418  18.703  31.719   3.847  0.3470  0.0512 -0.0709
17507W        W60419  20.699  31.080   1.781  0.0382 -0.0177  0.0701
17508W        W60420  18.685  32.629   2.203 -0.2518 -0.1115 -0.0239
17509W        W60421  19.967  28.713   0.832  0.2258  0.0748 -0.2166
17510W        W60422  22.175  31.459   0.715  0.2405 -0.1243  0.3690
17511W        W60423  19.653  30.629   2.324 -0.4794 -0.2254 -0.0211
17512W        W60424  20.337  31.997   3.219  0.0987  0.1759  0.1850
17513W        W60425  20.881  32.195   1.975 -0.1098  0.2935  0.1212
17514W        W60426  18.243  29.061   1.974  0.0227 -0.2316  0.0063
17515W        W60427  18.820  31.372  31.841  0.2012 -0.0809 -0.0401
17516W        W60428  20.467  28.898   2.585 -0.1528  0.0931 -0.1575
17517W        W60429  15.884  33.525   0.778  0.3784  0.3345  0.1104
17518W        W60430  21.609  29.244   2.902  0.0448 -0.2016 -0.0115
17519W        W60431  20.683  30.051   2.359  0.0024 -0.0354 -0.0178
17520W        W60432  19.888  29.740   2.695  0.4074  0.1061 -0.0114
17521W        W60433  21.246  30.880   3.494  0.0505 -0.0462  0.0795
17522W        W60434  21.454  30.992   1.922 -0.2188 -0.0450 -0.1251
17523W        W60435  20.427  30.025   1.567 -0.3140 -0.2557 -0.2533
17524W        W60436  18.649  30.304   1.305  0.0346  0.1085 -0.1327
17525W        W60437  20.200  29.291   2.514  0.2147 -0.1042 -0.0326
17526W        W60438  18.913  30.045   2.742  0.1233 -0.0973  0.0529
17527W        W60439  18.961  32.085   3.575  0.2061  0.0364  0.0805
17528W        W60440  20.516  31.676   3.704  0.1716  0.1449 -0.0589
17529W        W60441  21.309  30.786   2.614  0.0280 -0.0388  0.0077
17530W        W60442  20.147  28.330   2.275  0.2154 -0.2846 -0.2076
17531W        W60443  20.170  29.785  31.974  0.0864  0.0128  0.3566
17532W        W60444  19.790  32.445  31.927 -0.2881  0.3302  0.0751
17533W        W60445  19.364  33.253  30.227  0.2495  0.1647  0.3731
17534W        W60446  17.811  28.945   0.714 -0.2993  0.3304  0.1428
17535W        W60447  19.004  32.858   0.732  0.1174 -0.0018  0.0219
17536W        W60448  20.496  33.011   0.916  0.4024 -0.0418  0.0786
17537W        W60449  21.221  30.494   3.089 -0.0533  0.1480 -0.0537
17538W        W60450  17.632  33.113   0.418  0.2067  0.1528 -0.0021
17539W        W60451  19.993  27.887   3.060 -0.2247 -0.0150  0.0376
17540W        W60452  19.171  33.511   1.372 -0.0058  0.1451  0.1700
17541W        W60453  18.479  30.781   1.289  0.0149  0.3247  0.0244
17542W        W60454  18.788  31.937   0.039  0.1437 -0.0273 -0.4529
17543W        W60455  21.287  28.641   0.302  0.2995 -0.1184  0.2535
17544W        W60456  20.415  31.746   1.091  0.0894 -0.1903  0.0700
17545W        W60457  18.006  29.220   2.357  0.1441  0.3036  0.1537
17546W        W60458  19.807  31.044   3.342 -0.1638 -0.1522 -0.0827
17547W        W60459  20.864  32.755   3.492 -0.2616 -0.0118 -0.2566
17548W        W60460  20.069  32.095   2.760 -0.2822 -0.0320 -0.3218
17549W        W60461  20.195  28.401   1.746  0.1289 -0.0708 -0.1683
17550W        W60462  21.679  32.384   3.279 -0.0502  0.2531  0.2767
17551W        W60463  20.335  31.323   5.387 -0.3169 -0.1692  0.4273
17552W        W60464  18.089  30.593  31.928  0.1428 -0.1054 -0.0104
17553W        W60465  22.591  29.901   3.362 -0.1254  0.1818 -0.1894
17554W        W60466  19.822  28.729   1.479  0.3268  0.0622  0.1085
17555W        W60467  17.775  32.286   1.368  0.0671 -0.0183 -0.0870
17556W        W60468  20.655  34.074   2.583  0.1587 -0.1889 -0.0516
17557W        W60469  20.082  29.511   0.462  0.1106 -0.2861 -0.0250
17558W        W60470  18.276  32.455   0.749  0.1057  0.2517 -0.2575
17559W        W60471  18.841  28.664   1.273  0.1011  0.1050  0.2139
17560W        W60472  22.150  30.760   3.414  0.4892  0.1055 -0.2002
17561W        W60473  19.788  29.991   2.240 -0.0950  0.4299 -0.1469
17562W        W60474  19.758  28.550   1.981 -0.0769  0.3766 -0.1117
17563W        W60475  20.957  30.257   1.994  0.2712 -0.1352  0.1621
17564W        W60476  20.080  30.836   2.063 -0.0073 -0.0901 -0.0715
17565W        W60477  19.279  31.258   2.167 -0.1802  0.1230 -0.1780
17566W        W60478  20.596  31.577   4.578  0.0199  0.0430 -0.0340
17567W        W60479  19.137  28.102   2.493 -0.2399 -0.1134 -0.3148
17568W        W60480  22.393  33.046   1.272  0.0417 -0.1320 -0.3801
17569W        W60481  21.499  30.458   3.491  0.0659 -0.0442  0.0426
17570W        W60482  19.935  30.725   1.587  0.2555 -0.0506 -0.1083
17571W        W60483  18.565  30.856   2.274 -0.0623  0.1224 -0.1460
17572W        W60484  19.333  30.063   1.981  0.0619  0.2740  0.3612
17573W        W60485  19.982  29.873   0.772 -0.0076 -0.1377 -0.1686
17574W        W60486  19.548  31.497   3.475 -0.2460 -0.0672  0.1677
17575W        W60487  19.490  33.398  31.946 -0.0020  0.1508  0.1939
17576W        W60488  20.737  30.855   3.400  0.1353  0.1137  0.2208
17577W        W60489  22.663  28.866  31.927 -0.1487 -0.1454 -0.0418
17578W        W60490  21.550  32.012  31.238  0.0332  0.2299  0.0945
17579W        W60491  20.211  30.147   2.207  0.1265 -0.2061 -0.3652
17580W        W60492  22.173  29.364   3.085  0.2199 -0.1061 -0.0276
17581W        W60493  19.900  31.707   1.050 -0.2694 -0.1530 -0.0780
17582W        W60494  21.201  29.945   2.292  0.0169  0.2943  0.1026
17583W        W60495  19.631  29.013   1.834  0.3337 -0.0546  0.4439
17584W        W60496  20.791  31.554   0.707  0.3628 -0.0915  0.6336
17585W        W60497  18.115  29.496   3.015  0.0304  0.0143  0.2248
17586W        W60498  21.123  34.026   4.628 -0.0520 -0.2909  0.0543
17587W        W60499  20.785  31.217   3.859 -0.0524 -0.0122 -0.3144
17588W        W60500  19.046  29.872   1.607 -0.0643 -0.0424 -0.2096
17589W        W60501  18.200  28.585   0.678 -0.1054 -0.0209  0.0165
17590W        W60502  21.267  31.976   3.438 -0.1353  0.0896 -0.0625
17591W        W60503  21.570  31.899   2.036 -0.1291  0.1173 -0.2163
17592W        W60504  19.626  31.956  31.746  0.2697  0.0567 -0.2604
17593W        W60505  22.019  30.446   2.304  0.0298 -0.0496  0.2325
17594W        W60506  20.112  31.194   2.815  0.0425 -0.1359  0.0734
17595W        W60507  20.152  31.990  31.852 -0.3769 -0.1252 -0.1064
17596W        W60508  20.944  31.784   1.147 -0.0479 -0.1340  0.0159
17597W        W60509  20.321  31.261   2.392 -0.1645 -0.1480  0.0288
17598W        W60510  18.899  28.947   3.307 -0.2021  0.3605  0.2251
17599W        W60511  20.806  31.988   2.489  0.0412 -0.1136  0.2094
17600W        W60512  20.726  29.062   0.881 -0.0027  0.2046 -0.2062
17601W        W60513  20.113  28.304   1.249  0.0638  0.0273 -0.2340
17602W        W60514  21.734  29.136   3.982 -0.2624  0.2422  0.1915
17603W        W60515  20.661  30.742   3.890 -0.1954 -0.0065  0.0448
17604W        W60516  18.847  28.090   2.919 -0.1245 -0.3016  0.1806
17605W        W60517  20.406  33.582   4.477  0.0644  0.3166  0.1225
17606W        W60518  19.629  29.467  30.746 -0.3169 -0.1553  0.0752
17607W        W60519  20.980  28.993   2.197 -0.0948  0.1216 -0.0222
17608W        W60520  20.808  30.654   1.544  0.0772  0.2116 -0.0432
17609W        W60521  20.314  30.393  31.815 -0.0178  0.2417  0.0358
17610W        W60522  18.556  30.669   1.810 -0.0485  0.1559 -0.2922
17611W        W60523  21.580  30.741   4.887  0.1663 -0.0547  0.1267
17612W        W60524  18.951  28.783  30.872 -0.0575 -0.1769 -0.1859
17613W        W60525  20.561  31.123   2.915  0.1410 -0.1801  0.1025
17614W        W60526  19.429  32.658   0.374 -0.1271  0.3704 -0.0059
17615W        W60527  20.920  31.509   1.674  0.0235  0.0336  0.2167
17616W        W60528  20.292  28.977   1.173 -0.1970 -0.1089  0.0207
17617W        W60529  18.391  31.184   0.799 -0.0730  0.2481  0.1197
17618W        W60530  19.313  32.239   3.327 -0.1774  0.0530 -0.1031
17619W        W60531  18.520  30.759   0.268 -0.3241  0.0681 -0.0587
17620W        W60532  21.045  31.174   0.832 -0.3303 -0.1075  0.3635
17621W        W60533  19.047  32.034   2.340 -0.2415 -0.2252 -0.0088
17622W        W60534  21.882  30.871   4.435  0.1675 -0.3285 -0.0642
17623W        W60535  18.871  29.753   0.712 -0.1042 -0.0456 -0.1950
17624W        W60536  22.075  30.242   2.718  0.2234 -0.0857 -0.0862
17625W        W60537  17.773  32.514   1.760  0.2135 -0.0081 -0.3435
17626W        W60538  20.169  29.218   1.686  0.0905  0.2774  0.1113
17627W        W60539  18.999  33.521   1.898  0.1288  0.2105 -0.0074
17628W        W60540  18.553  31.322   2.940  0.1399 -0.1832 -0.0359
17629W        W60541  20.121  32.239   0.994  0.1551  0.1155  0.1011
17630W        W60542  20.470  30.415   3.506 -0.0266 -0.2547 -0.2775
17631W        W60543  20.890  29.664   1.797  0.0284  0.1461 -0.4503
17632W        W60544  19.979  31.407   1.995  0.0233 -0.3281  0.1103
17633W        W60545  21.817  30.129   3.781 -0.0273 -0.0095  0.1118
17634W        W60546  19.648  32.321   2.840  0.0899  0.2164  0.0403
17635W        W60547  17.866  32.153   2.081  0.1623  0.1077 -0.0012
17636W        W60548  21.956  33.053   4.141  0.3180 -0.0134  0.3064
17637W        W60549  22.130  31.140   1.783 -0.0321 -0.2349  0.2126
17638W        W60550  18.856  31.124   1.980  0.4338  0.2383  0.1130
17639W        W60551  17.054  28.591   2.673  0.1496 -0.1389 -0.0599
17640W        W60552  20.631  31.110   4.304  0.2070 -0.2358 -0.2294
17641W        W60553  20.231  32.214   1.450 -0.3422  0.0570  0.0310
17642W        W60554  17.895  28.895   0.226  0.0225 -0.2195  0.2525
17643W        W60555  19.375  32.128   0.174 -0.0007 -0.1560 -0.0342
17644W        W60556  18.324  33.194   4.112  0.0955 -0.2144 -0.2097
17645W        W60557  19.719  30.760   2.809  0.2625 -0.2552  0.2428
17646W        W60558  18.831  32.357   1.262 -0.1559 -0.3347  0.0377
17647W        W60559  20.520  32.074   0.237 -0.0417  0.1523  0.1875
17648W        W60560  22.286  32.162   2.883  0.0181 -0.1478  0.2159
17649W        W60561  20.493  32.375   2.328  0.2383 -0.1484  0.0660
17650W        W60562  18.697  29.326   0.644  0.0224  0.2783 -0.2512
17651W        W60563  17.850  32.769   0.750  0.0391 -0.4421  0.0462
17652W        W60564  17.738  33.160   2.007 -0.3165  0.4357 -0.2077
17653W        W60565  19.645  32.627   0.800 -0.4737 -0.3806 -0.1739
17654W        W60566  19.267  34.230   0.826 -0.0031 -0.2449 -0.2501
17655W        W60567  20.962  32.613   2.821 -0.3600 -0.0551  0.1270
17656W        W60568  22.973  29.126  31.571  0.2064 -0.2735  0.0357
17657W        W60569  22.295  30.644   1.317 -0.2332 -0.1832 -0.0069
17658W        W60570  22.172  30.045   1.408 -0.0170 -0.2075  0.0426
17659W        W60571  20.219  31.047   4.663 -0.1159 -0.0651  0.0342
17660W        W60572  20.540  31.585   2.055  0.2292  0.1427 -0.1714
17661W        W60573  19.206  30.114   0.536  0.1206  0.1696 -0.0544
17662W        W60574  21.334  31.476   4.165 -0.0068  0.1014  0.0427
17663W        W60575  21.919  29.734   3.516 -0.0617 -0.1581  0.3789
17664W        W60576  19.311  31.943   4.333  0.1089  0.0914 -0.1523
17665W        W60577  21.440  32.178   0.837 -0.2562 -0.1616 -0.0556
17666W        W60578  20.073  29.673   1.371  0.0893  0.2810  0.0876
17667W        W60579  18.742  29.276   1.108  0.3367 -0.0004 -0.0391
17668W        W60580  21.759  29.201   2.142  0.1550 -0.2521 -0.1598
17669W        W60581  19.271  32.292   0.684  0.1430 -0.2959  0.0277
17670W        W60582  20.962  29.203   1.493 -0.2367  0.0004 -0.5029
17671W        W60583  18.920  33.065   1.194 -0.0713 -0.2006  0.4097
17672W        W60584  18.530  31.701   1.724 -0.0142 -0.3261  0.1086
17673W        W60585  19.814  31.654   2.675 -0.1972  0.2447  0.0218
17674W        W60586  16.716  28.545   0.352 -0.0700  0.1310 -0.0724
17675W        W60587  21.153  30.316   0.810 -0.1739  0.1669  0.0497
17676W        W60588  19.840  30.137   3.147 -0.0605  0.0083 -0.2596
17677W        W60589  21.274  29.568   2.661  0.0380 -0.1879 -0.1406
17678W        W60590  18.196  32.913   1.953  0.4735 -0.0040  0.0763
17679W        W60591  20.614  29.593  31.943 -0.2748  0.1017 -0.0373
17680W        W60592  21.232  32.012   2.907  0.0818  0.4029 -0.3486
17681W        W60593  20.137  31.008   4.132 -0.3233 -0.3888  0.1759
17682W        W60594  19.491  30.967   1.398  0.2519  0.0163 -0.1466
17683W        W60595  21.661  31.903   3.141 -0.1311 -0.1727 -0.0957
17684W        W60596  20.463  31.553  31.476  0.4072 -0.2339 -0.0148
17685W        W60597  20.030  31.586   3.648 -0.0473  0.1068 -0.1414
17686W        W60598  18.452  28.284   1.060 -0.0571  0.0554  0.1132
17687W        W60599  21.764  30.479   1.349  0.0988 -0.0035  0.0732
17688W        W60600  19.337  31.386   1.675  0.2579 -0.2154  0.0390
17689W        W60601  20.853  30.159   3.088 -0.2583  0.1777  0.0680
17690W        W60602  20.609  32.828   2.592 -0.2147 -0.1184  0.0105
17691W        W60603  17.504  31.449   0.884 -0.3355 -0.2145  0.2984
17692W        W60604  20.647  32.211   1.082 -0.2647  0.0544 -0.2311
17693W        W60605  21.133  31.040   3.012  0.4707 -0.0459  0.0324
17694W        W60606  19.909  33.113   1.755 -0.0270  0.2911  0.2267
17695W        W60607  20.788  31.092   2.457  0.2043 -0.0807  0.3247
17696W        W60608  19.897  32.268   1.898 -0.1420  0.0313 -0.1229
17697W        W60609  21.443  32.429   2.085 -0.1247 -0.1593 -0.0156
17698W        W60610  22.059  31.531   1.242 -0.1468 -0.0650 -0.1453
17699W        W60611  19.511  28.862   2.398 -0.1329  0.1478 -0.0812
17700W        W60612  19.667  29.714   1.754  0.1250  0.1630 -0.2152
17701W        W60613  17.911  31.644   2.057 -0.2076 -0.1115  0.2327
17702W        W60614  21.373  29.843   1.812 -0.2916  0.1645  0.3693
17703W        W60615  20.898  29.192   2.709 -0.0247  0.1027 -0.2474
17704W        W60616  17.633  32.508  31.571 -0.0228  0.1468  0.0348
17705W        W60617  20.375  29.892   1.097 -0.0934 -0.0525 -0.0714
17706W        W60618  19.459  31.782   1.986  0.0077 -0.1131 -0.2036
17707W        W60619  19.942  31.474   4.437  0.1662 -0.0028  0.2740
17708W        W60620  19.300  31.052   0.010 -0.4456 -0.0597  0.1106
17709W        W60621  20.928  31.319   3.364  0.1388  0.0976 -0.0339
17710W        W60622  18.698  31.855   1.247 -0.1591  0.1333  0.0641
17711W        W60623  18.773  32.307   0.779 -0.4410 -0.1438  0.3259
17712W        W60624  22.326  32.745   2.067 -0.2459 -0.0654 -0.0096
17713W        W60625  20.989  30.738   1.108  0.1765  0.0135 -0.1504
17714W        W60626  21.313  33.594   2.399  0.0450 -0.2170  0.0524
17715W        W60627  19.500  28.959   1.128 -0.1059  0.1214  0.0958
17716W        W60628  20.127  27.832   0.448  0.0049  0.3434  0.2683
17717W        W60629  20.513  29.407   1.336 -0.2323 -0.0637 -0.0164
17718W        W60630  19.252  32.650   3.758  0.0139 -0.0246 -0.0724
17719W        W60631  19.204  31.657  31.557 -0.0941 -0.0572  0.1154
17720W        W60632  19.306  31.118  31.484 -0.2374  0.0006  0.0414
17721W        W60633  19.123  30.762   2.111 -0.2829  0.1180  0.0303
17722W        W60634  19.473  29.330   2.654  0.0057 -0.0251 -0.0591
17723W        W60635  17.965  28.949   2.826 -0.0147  0.0706  0.0909
17724W        W60636  19.027  32.626   1.700  0.0607  0.2200 -0.4012
17725W        W60637  19.979  30.806   1.082  0.0408 -0.0920 -0.0984
17726W        W60638  21.596  31.696   1.286 -0.0528  0.0296  0.0807
17727W        W60639  18.984  29.705   2.096  0.2587 -0.0820  0.1272
17728W        W60640  18.089  30.617   2.099  0.0715  0.1310 -0.0999
17729W        W60641  20.055  32.308   0.417 -0.2335 -0.1670  0.2427
17730W        W60642  21.897  32.402   0.658  0.1380  0.0418  0.1038
17731W        W60643  21.265  29.294   1.096  0.0293  0.0971 -0.0022
17732W        W60644  22.601  33.705   4.222 -0.1901  0.0581 -0.1722
17733W        W60645  17.520  31.091   0.552 -0.1273  0.2210 -0.0554
17734W        W60646  19.552  30.522   3.185 -0.0936 -0.2403 -0.0057
17735W        W60647  18.743  28.137   2.116 -0.0409 -0.3432  0.1754
17736W        W60648  17.075  29.122  31.103  0.3408  0.1701 -0.2108
17737W        W60649  20.680  29.205   1.903 -0.0155  0.0648  0.0386
17738W        W60650  18.801  33.093   1.726 -0.0454  0.1833 -0.6070
17739W        W60651  20.796  32.522  31.312 -0.0358 -0.0682  0.0012
17740W        W60652  19.363  31.630   2.576  0.1710  0.2134  0.1045
17741W        W60653  21.077  32.558   3.973  0.2849  0.0019 -0.1067
17742W        W60654  18.194  30.142   2.059  0.0120  0.1385  0.1432
17743W        W60655  21.670  31.311   0.910 -0.1909 -0.1369 -0.0544
17744W        W60656  20.206  30.779   3.123  0.1367  0.0132  0.2826
17745W        W60657  21.841  31.462   0.379 -0.2709 -0.0905  0.1121
17746W        W60658  22.021  27.701   2.130 -0.1180  0.0749 -0.0379
17747W        W60659  20.766  31.293   1.261 -0.0838  0.2889  0.0690
17748W        W60660  17.628  29.364   2.675 -0.1617  0.0635  0.0330
17749W        W60661  18.746  30.843   2.804  0.2144 -0.2737  0.0670
17750W        W60662  23.377  32.704   2.710  0.2993 -0.0408 -0.0003
17751W        W60663  18.287  30.163   0.912  0.0915  0.2998 -0.0466
17752W        W60664  21.038  28.684   1.765 -0.1382 -0.0580 -0.1833
17753W        W60665  19.373  31.613   0.136  0.1169 -0.0515 -0.0102
17754W        W60666  18.588  30.397   2.453 -0.1307  0.0094  0.1073
17755W        W60667  19.197  29.183   0.709 -0.1633 -0.1359  0.2497
17756W        W60668  21.639  30.778   3.154  0.0660  0.2765  0.0371
17757W        W60669  20.141  31.853   1.749 -0.2008 -0.2029  0.0066
17758W        W60670  21.522  31.019   3.955  0.1953 -0.0944  0.0498
17759W        W60671  20.854  29.615   1.029 -0.1823 -0.0642 -0.1660
17760W        W60672  22.291  32.413   0.285 -0.2814  0.1890 -0.3380
17761W        W60673  19.988  31.607   3.133  0.4227  0.3712  0.4652
17762W        W60674  21.990  32.649   4.968  0.0962 -0.2787 -0.2065
17763W        W60675  20.931  33.678   1.666 -0.1806 -0.4476 -0.0011
17764W        W60676  20.629  30.590   2.290  0.1752 -0.0931 -0.2438
17765W        W60677  18.883  28.393   1.721 -0.2369 -0.0261 -0.2374
17766W        W60678  21.241  30.554   1.696 -0.0859 -0.0835  0.3804
17767W        W60679  20.438  30.568   1.209  0.3471  0.0109  0.1612
17768W        W60680  21.828  29.114   3.384  0.2541  0.1235  0.0239
17769W        W60681  18.748  29.822   1.186  0.3172  0.3216 -0.1034
17770W        W60682  19.252  28.639   0.867  0.0362  0.1965 -0.1928
17771W        W60683  19.603  33.207   2.251  0.3725  0.1544 -0.2104
17772W        W60684  20.776  31.828   3.198 -0.0929  0.3069 -0.3884
17773W        W60685  19.464  30.763   6.317 -0.0307 -0.6465  0.2761
17774W        W60686  18.644  30.385   2.984  0.1160  0.0327 -0.0694
17775W        W60687  22.290  29.876   3.960  0.0616  0.1163  0.1370
17776W        W60688  22.461  31.081   5.715 -0.1880  0.3585 -0.1105
17777W        W60689  17.872  29.655   4.280 -0.2399 -0.1883  0.1471
17778W        W60690  21.195  32.490   5.380  0.2318  0.0144 -0.1126
17779W        W60691  18.588  30.456   4.868  0.0783 -0.0747 -0.5063
17780W        W60692  21.602  31.651   5.572  0.5750 -0.1460  0.1555
17781W        W60693  22.856  33.661   6.181 -0.0903 -0.1125 -0.0748
17782W        W60694  20.409  30.214   2.734  0.2426  0.0234  0.1212
17783W        W60695  19.898  28.847   6.586 -0.1488 -0.0809 -0.0096
17784W        W60696  20.017  31.862   6.106  0.1217  0.0503  0.1313
17785W        W60697  18.739  28.913   3.775 -0.0421  0.2873 -0.0506
17786W        W60698  17.918  29.422   5.439 -0.1225  0.0840  0.1836
17787W        W60699  21.032  30.567   7.087 -0.2017  0.2620  0.4094
17788W        W60700  19.223  30.288   2.405  0.1005 -0.2946 -0.1091
17789W        W60701  19.237  30.181   7.507  0.1878 -0.1493 -0.2100
17790W        W60702  19.365  30.409   5.117  0.1935 -0.2341  0.2618
17791W        W60703  21.496  32.623   5.987 -0.1838  0.2214 -0.5110
17792W        W60704  19.545  30.249   6.928  0.0441 -0.0355 -0.0412
17793W        W60705  20.263  29.225   7.758  0.1084 -0.4223 -0.1653
17794W        W60706  20.591  32.033   4.178 -0.3418 -0.0978 -0.1666
17795W        W60707  18.673  29.795   3.066  0.0854  0.1953 -0.1683
17796W        W60708  19.531  31.092   5.537  0.1172  0.1214 -0.0287
17797W        W60709  18.780  30.099   6.271 -0.0583  0.0473 -0.2586
17798W        W60710  20.664  30.274   5.252  0.3560 -0.1708 -0.0252
17799W        W60711  22.627  31.999   4.547  0.0803  0.2956 -0.1444
17800W        W60712  20.370  31.356   6.548  0.1061  0.0368 -0.2028
17801W        W60713  19.549  31.616   6.154  0.0199 -0.2789  0.2179
17802W        W60714  20.478  29.570   7.364  0.1395 -0.1288 -0.1439
17803W        W60715  19.552  31.917   5.171 -0.1197 -0.0799 -0.1595
17804W        W60716  18.594  33.719   3.953  0.1319  0.3445 -0.1579
17805W        W60717  19.314  31.477   4.347  0.3014  0.0235  0.2571
17806W        W60718  22.844  32.410   4.341  0.5373 -0.0075 -0.1032
17807W        W60719  20.793  32.249   7.684  0.1780 -0.0357 -0.1912
17808W        W60720  19.726  33.310   6.857 -0.1515  0.2366 -0.2294
17809W        W60721  18.764  31.480   4.929 -0.3643 -0.0929  0.2902
17810W        W60722  21.138  32.118   7.328  0.0084  0.0537  0.0322
17811W        W60723  20.249  30.216   8.063  0.2661 -0.2408 -0.0424
17812W        W60724  19.802  30.589   6.698 -0.2806 -0.1819  0.1604
17813W        W60725  20.830  30.857   4.700 -0.0490 -0.1003  0.1583
17814W        W60726  19.756  32.925   5.445  0.1851  0.2742 -0.1024
17815W        W60727  19.857  31.238   6.301  0.1033 -0.0974 -0.3707
17816W        W60728  20.087  30.724   9.339  0.1088  0.0815 -0.0253
17817W        W60729  20.327  32.127   5.699 -0.3240  0.1350 -0.3396
17818W        W60730  21.978  29.102   8.320  0.0590  0.2271 -0.1585
17819W        W60731  19.940  32.476   3.897  0.1482  0.3286 -0.0785
17820W        W60732  21.195  30.665   3.911  0.0507  0.2955 -0.0601
17821W        W60733  19.546  29.343   3.306 -0.2231 -0.0398  0.1918
17822W        W60734  22.080  27.515   2.646 -0.0353 -0.0658  0.3367
17823W        W60735  19.553  28.839   3.385 -0.1172 -0.5089 -0.4351
17824W        W60736  19.875  31.448   5.292 -0.0798 -0.3340 -0.3230
17825W        W60737  19.166  29.233   5.945 -0.1212  0.2614  0.0663
17826W        W60738  21.766  31.905   7.008  0.1710  0.2423 -0.1733
17827W        W60739  18.227  30.866   3.563 -0.0560 -0.0642 -0.1695
17828W        W60740  21.241  29.862   6.095 -0.0657 -0.2449 -0.0337
17829W        W60741  18.526  30.822   6.566  0.0640  0.1031  0.0573
17830W        W60742  20.291  30.132   4.395 -0.0961  0.1092 -0.1584
17831W        W60743  21.948  32.256   2.210 -0.0678  0.0831  0.3068
17832W        W60744  22.758  31.204   4.484 -0.2075  0.0984  0.0895
17833W        W60745  20.532  32.608   4.814  0.1868 -0.1494  0.1386
17834W        W60746  19.160  30.473   2.848 -0.1959 -0.1143 -0.2092
17835W        W60747  19.397  31.249   6.551  0.0404  0.2302 -0.0576
17836W        W60748  19.630  29.631   7.878  0.0143 -0.1823  0.0959
17837W        W60749  18.579  29.926   1.765  0.1599 -0.1272  0.0387
17838W        W60750  21.031  30.022   7.038 -0.1617  0.0456 -0.0354
17839W        W60751  19.640  32.003   5.796 -0.0559  0.1932 -0.1749
17840W        W60752  22.167  29.393   4.082  0.3027  0.0599  0.1671
17841W        W60753  20.334  30.748   6.601 -0.0238  0.0379  0.3151
17842W        W60754  22.748  31.505   5.000 -0.1170  0.0509  0.1251
17843W        W60755  21.738  31.736   4.828 -0.1653 -0.0677 -0.0145
17844W        W60756  21.767  30.167   4.409 -0.2994 -0.0739  0.1043
17845W        W60757  20.185  29.317   6.276  0.1079 -0.0958  0.1767
17846W        W60758  19.227  30.880   4.152  0.0570 -0.4544  0.1451
17847W        W60759  19.767  30.730   3.999  0.0427  0.1355 -0.0609
17848W        W60760  21.341  32.150   7.801  0.0146  0.1983 -0.3369
17849W        W60761  23.015  30.167   3.215 -0.3196 -0.0160 -0.1501
17850W        W60762  20.990  32.382   6.115  0.0015  0.0015  0.1233
17851W        W60763  20.297  29.430   6.894 -0.1482 -0.1001  0.0586
17852W        W60764  20.663  29.948   8.147 -0.1770 -0.3296  0.0945
17853W        W60765  18.557  33.020   3.298  0.2818  0.2080 -0.1849
17854W        W60766  18.867  30.621   4.436 -0.4178 -0.2999 -0.0178
17855W        W60767  19.041  30.673   3.272 -0.4131 -0.0881  0.2211
17856W        W60768  19.124  29.859   5.971  0.0993  0.0767 -0.2194
17857W        W60769  20.221  30.128   5.390 -0.0008  0.0671  0.1578
17858W        W60770  22.871  31.242   6.109  0.0845  0.0492  0.0492
17859W        W60771  18.972  29.579   6.445  0.1901 -0.1325 -0.3547
17860W        W60772  21.280  30.073   5.281  0.1970 -0.1787  0.2023
17861W        W60773  19.339  30.546   4.603 -0.0425 -0.1131  0.0586
17862W        W60774  22.375  32.155   5.529 -0.2033 -0.0914  0.0127
17863W        W60775  21.447  30.514   4.397 -0.1891  0.2201 -0.2252
17864W        W60776  20.703  32.147   3.698 -0.0714 -0.0310 -0.2074
17865W        W60777  18.595  30.339   6.688  0.0653  0.2011 -0.0196
17866W        W60778  19.732  30.612   4.851 -0.0326  0.1650  0.1497
17867W        W60779  18.367  30.037   7.057 -0.1336  0.0742  0.2332
17868W        W60780  18.033  29.911   5.334  0.4180 -0.1499  0.0683
17869W        W60781  21.166  30.610   7.548  0.2002  0.0234  0.1919
17870W        W60782  17.528  28.483   3.515  0.0527  0.2586 -0.0285
17871W        W60783  19.883  29.780   4.169 -0.3210 -0.1613  0.2784
17872W        W60784  20.003  30.572   4.396 -0.1351 -0.3177  0.2508
17873W        W60785  17.915  31.269   3.939  0.0590 -0.0478 -0.2055
17874W        W60786  21.101  29.350   6.101 -0.2626  0.0736 -0.3332
17875W        W60787  21.027  32.029   5.172  0.0265  0.0646  0.1730
17876W        W60788  20.923  33.444   7.310 -0.3356  0.0598 -0.0519
17877W        W60789  22.540  31.973   5.108 -0.2482 -0.1497  0.0540
17878W        W60790  18.820  28.933   5.509  0.4206  0.1121  0.1508
17879W        W60791  18.213  28.757   3.782  0.3501  0.2994  0.1110
17880W        W60792  21.153  33.651   6.418  0.1725 -0.1612 -0.0258
17881W        W60793  20.453  30.619   5.573 -0.3843  0.0397  0.1458
17882W        W60794  19.342  30.462   3.669 -0.0386  0.1364 -0.1189
17883W        W60795  22.269  32.946   6.094  0.2001 -0.0768 -0.0409
17884W        W60796  20.268  31.078   3.653 -0.3216  0.0392  0.1312
17885W        W60797  20.042  30.845   7.214 -0.0321  0.1760 -0.0434
17886W        W60798  20.335  28.465   6.528 -0.3872 -0.1239  0.1652
17887W        W60799  21.551  29.856   7.863 -0.1035 -0.3107 -0.1538
17888W        W60800  20.861  30.678   5.907 -0.2190 -0.0345 -0.0401
17889W        W60801  19.381  29.779   2.423 -0.2116  0.0602 -0.2435
17890W        W60802  21.193  31.619   5.857  0.1772  0.4907  0.0550
17891W        W60803  18.773  32.640   4.118 -0.0792  0.1437 -0.3720
17892W        W60804  17.962  30.869   5.002  0.0766 -0.1390  0.1001
17893W        W60805  19.429  31.661   5.576  0.2078 -0.0804  0.0405
17894W        W60806  19.850  29.707   3.400 -0.0395 -0.1958 -0.0149
17895W        W60807  19.739  30.346   8.230  0.1202  0.3319 -0.0284
17896W        W60808  20.036  29.816   7.076 -0.1726  0.1064  0.2669
17897W        W60809  18.392  29.766   4.169  0.0086  0.3628 -0.0574
17898W        W60810  19.404  31.194   7.115 -0.0789 -0.0388 -0.0840
17899W        W60811  20.564  29.446   4.763 -0.0563  0.1320 -0.0797
17900W        W60812  22.307  29.453   3.602  0.2079  0.3744 -0.0766
17901W        W60813  20.725  30.363   7.876 -0.0391  0.0562  0.1140
17902W        W60814  23.039  31.910   4.824  0.0835  0.1337 -0.1221
17903W        W60815  21.564  30.242   4.876  0.0359  0.1380  0.1563
17904W        W60816  21.549  28.742   2.981  0.0130 -0.1818  0.0659
17905W        W60817  19.084  31.809   7.120 -0.3124  0.1327 -0.3873
17906W        W60818  20.175  31.848   4.464 -0.1163 -0.2951 -0.1816
17907W        W60819  20.235  30.278   6.961  0.3153 -0.4390  0.0319
17908W        W60820  20.886  29.168   3.517  0.1412  0.1095  0.1870
17909W        W60821  22.241  31.729   4.310  0.1317 -0.0226 -0.0913
17910W        W60822  18.095  31.897   3.705 -0.1927  0.0709 -0.0387
17911W        W60823  21.041  31.650   7.132  0.2885  0.2997 -0.0057
17912W        W60824  20.527  31.807   5.228  0.0617 -0.0696 -0.0459
17913W        W60825  20.289  29.530   5.814 -0.1904  0.1454 -0.0174
17914W        W60826  20.136  30.657   2.570 -0.0159  0.1243  0.0582
17915W        W60827  20.523  29.514   3.409  0.0790 -0.1530 -0.4440
17916W        W60828  18.379  33.358   3.637 -0.2926 -0.0049 -0.0398
17917W        W60829  21.508  29.634   5.219  0.0027  0.1096  0.1750
17918W        W60830  20.720  29.297   5.684 -0.0569  0.1195  0.3426
17919W        W60831  19.168  30.358   6.041  0.1304  0.0961 -0.0268
17920W        W60832  21.907  30.126   7.416  0.2453  0.0489  0.0654
17921W        W60833  20.091  29.412   4.855  0.0759  0.3497  0.0902
17922W        W60834  21.226  30.961   6.167  0.1082  0.0067  0.1627
17923W        W60835  21.186  31.063   5.597  0.2233  0.0379 -0.1540
17924W        W60836  19.011  29.102   6.439  0.2207 -0.0051 -0.1068
17925W        W60837  18.163  30.587   6.368 -0.0444 -0.0337 -0.2214
17926W        W60838  20.166  31.570   7.597 -0.1148 -0.1542 -0.0640
17927W        W60839  21.078  31.731   7.631  0.1171  0.1893 -0.0216
17928W        W60840  22.054  30.827   5.140  0.1143 -0.1781 -0.1970
17929W        W60841  20.300  28.559   7.991 -0.2823 -0.2544  0.0723
17930W        W60842  19.852  29.142   2.901  0.0389  0.1293 -0.0007
17931W        W60843  18.673  32.561   5.053 -0.0748  0.0950 -0.3383
17932W        W60844  18.867  31.289   4.002 -0.1047  0.0926  0.0083
17933W        W60845  19.457  31.158   6.006 -0.2082  0.1124 -0.2428
17934W        W60846  21.258  31.997   6.319 -0.0659 -0.0423 -0.2763
17935W        W60847  19.960  30.538   3.585 -0.0190  0.0814 -0.0811
17936W        W60848  21.543  31.000   7.121 -0.1187  0.2287  0.1887
17937W        W60849  19.375  30.981   3.648  0.0004 -0.2423  0.1620
17938W        W60850  21.850  30.311   5.601 -0.4066  0.1427  0.1951
17939W        W60851  19.046  32.590   5.664 -0.0121 -0.1079  0.1988
17940W        W60852  19.591  29.539   3.796  0.3017 -0.3924  0.1085
17941W        W60853  19.106  29.460   3.092  0.2069 -0.1930  0.5483
17942W        W60854  19.893  28.934   4.638  0.2884 -0.1634  0.1336
17943W        W60855  20.979  30.544   4.363 -0.0296  0.2112 -0.0088
17944W        W60856  19.606  30.237   6.224  0.1278 -0.2069 -0.1386
17945W        W60857  19.490  28.694   4.922  0.0651  0.1930  0.0184
17946W        W60858  19.387  32.716   6.216  0.1078 -0.0101 -0.0770
17947W        W60859  20.701  30.755   7.568  0.0725  0.1343 -0.4010
17948W        W60860  20.371  30.034   3.266  0.2945  0.2082 -0.0557
17949W        W60861  20.867  31.708   6.674  0.0856 -0.1675  0.1867
17950W        W60862  19.249  30.798   6.775 -0.2313  0.0623 -0.0911
17951W        W60863  18.042  28.393   2.765 -0.0726  0.1375 -0.0288
17952W        W60864  20.496  30.797   8.047 -0.1152 -0.2008 -0.1075
17953W        W60865  18.985  28.982   4.937 -0.1955 -0.2273  0.1096
17954W        W60866  18.561  31.340   5.402 -0.0842  0.0222  0.1809
17955W        W60867  21.148  32.967   6.208 -0.0488  0.1773  0.0985
17956W        W60868  19.088  28.975   1.920 -0.0131 -0.0001 -0.1972
17957W        W60869  19.908  31.350   5.853 -0.1164  0.2369  0.2551
17958W        W60870  18.656  30.391   5.909  0.0972  0.6276  0.1268
17959W        W60871  20.924  29.602   7.169  0.0988 -0.0451 -0.0626
17960W        W60872  19.198  30.691   5.496 -0.4665  0.1517  0.1974
17961W        W60873  19.440  30.930   5.081 -0.0707 -0.0092  0.0112
17962W        W60874  19.863  30.082   6.633  0.0517 -0.0319 -0.0186
17963W        W60875  22.910  31.705   6.238  0.0957 -0.0126  0.1114
17964W        W60876  19.861  30.315   7.298  0.3403 -0.1846 -0.1280
17965W        W60877  19.580  32.177   7.016  0.0827  0.1546 -0.0727
17966W        W60878  19.354  29.583   4.228  0.0495 -0.1038  0.0833
17967W        W60879  23.067  33.114   5.476  0.2041 -0.0910 -0.5997
17968W        W60880  20.881  30.236   6.244  0.2456 -0.1468  0.0238
17969W        W60881  21.296  31.568   3.157  0.0134  0.3837 -0.2639
17970W        W60882  18.584  30.971   6.059  0.0862 -0.1051  0.1656
17971W        W60883  20.337  31.508   6.013  0.0048 -0.2579  0.0415
17972W        W60884  20.057  29.857   6.141  0.0578  0.1112  0.0818
17973W        W60885  20.586  32.568   5.807 -0.0862 -0.2598 -0.1266
17974W        W60886  19.565  30.333   4.146 -0.0471 -0.2101 -0.2486
17975W        W60887  19.091  31.290   5.689  0.3465 -0.2930 -0.0184
17976W        W60888  22.117  28.708   4.693 -0.2019  0.2499  0.0272
17977W        W60889  21.021  33.206   4.365 -0.0463 -0.0216  0.2746
17978W        W60890  19.946  30.317   5.820 -0.0582 -0.2607  0.1646
17979W        W60891  21.082  29.063   6.534  0.0339 -0.3588 -0.0971
17980W        W60892  20.948  30.662   5.361  0.1993 -0.1373  0.1138
17981W        W60893  20.590  29.029   6.140 -0.4100  0.0252  0.0232
17982W        W60894  19.460  29.801   4.815  0.3274 -0.2066 -0.0889
17983W        W60895  22.002  30.917   5.902 -0.3152 -0.1923  0.2685
17984W        W60896  18.339  28.984   4.805  0.2084  0.1149 -0.1812
17985W        W60897  20.603  31.382   8.076 -0.0575  0.1103 -0.0240
17986W        W60898  19.316  28.607   7.276 -0.2741 -0.0849  0.2223
17987W        W60899  20.755  28.677   4.422  0.1890 -0.0627  0.2131
17988W        W60900  19.129  30.109   3.182 -0.3302  0.0346  0.1151
17989W        W60901  21.213  31.910   3.965  0.2894  0.0623 -0.0815
17990W        W60902  21.296  31.508   5.205  0.1394 -0.0175  0.0808
17991W        W60903  19.628  31.754   4.647  0.0138  0.1876  0.0878
17992W        W60904  21.143  30.247   5.749 -0.2538 -0.1503  0.0980
17993W        W60905  18.576  30.959   5.119  0.0582 -0.1567 -0.2298
17994W        W60906  21.578  30.703   5.859 -0.0692 -0.2560  0.0914
17995W        W60907  21.206  31.768   4.686 -0.1331 -0.4156 -0.1708
17996W        W60908  19.806  32.121   4.290  0.0888 -0.2492  0.2293
17997W        W60909  18.685  30.873   5.603 -0.0135 -0.0225  0.0335
17998W        W60910  21.508  31.987   5.192 -0.3113  0.0859  0.0281
17999W        W60911  21.406  29.294   4.403  0.2602 -0.0063  0.1890
18000W        W60912  20.363  29.012   6.619 -0.2990  0.0589  0.0868
18001W        W60913  21.041  29.395   5.163 -0.1897 -0.0338 -0.2232
18002W        W60914  19.276  29.495   6.893  0.0416  0.1536 -0.0105
18003W        W60915  18.009  29.698   6.332  0.0264 -0.0093 -0.2209
18004W        W60916  21.591  32.966   6.567 -0.3353  0.2024  0.0951
18005W        W60917  20.489  30.610   4.410 -0.2332  0.3292 -0.1006
18006W        W60918  21.227  29.066   5.556 -0.1188 -0.1435  0.0437
18007W        W60919  22.365  31.219   5.230  0.1022  0.0062 -0.1032
18008W        W60920  19.153  29.231   3.586  0.0285 -0.0496 -0.1657
18009W        W60921  18.766  30.425   5.380 -0.1327 -0.0390  0.0866
18010W        W60922  20.808  29.195   7.488 -0.1746  0.0141  0.2040
18011W        W60923  21.008  29.567   3.168  0.1521  0.2176  0.1697
18012W        W60924  20.728  28.709   7.772  0.1017  0.0875 -0.3558
18013W        W60925  19.464  32.168   3.885  0.0489  0.0180  0.0849
18014W        W60926  21.881  32.055   5.664  0.0238 -0.1541 -0.0104
18015W        W60927  20.239  30.400   3.963 -0.0503  0.3845 -0.0739
18016W        W60928  18.878  29.953   5.592 -0.1488  0.2358  0.1534
18017W        W60929  19.882  31.946   7.337  0.1741 -0.1501  0.0771
18018W        W60930  17.881  28.521   4.078  0.2217 -0.2256  0.1328
18019W        W60931  19.764  31.225   4.843 -0.3333  0.1457 -0.0778
18020W        W60932  21.031  31.126   7.191 -0.3231  0.1011  0.0917
18021W        W60933  22.088  31.632   7.271  0.1378  0.1045 -0.1801
18022W        W60934  19.027  29.004   2.495  0.2210  0.1197  0.0612
18023W        W60935  20.286  29.075   7.243  0.0503  0.0523 -0.4622
18024W        W60936  16.491  31.324   3.974 -0.0773 -0.1057 -0.1483
18025W        W60937  19.807  29.981   5.090 -0.1147  0.1719 -0.3903
18026W        W60938  21.038  32.866   6.744 -0.2240  0.2902  0.1423
18027W        W60939  17.499  33.371   6.120  0.0918  0.1110 -0.3620
18028W        W60940  20.721  31.574   5.656  0.1703  0.1614  0.0071
18029W        W60941  19.613  29.520   5.242 -0.1264  0.2179  0.0707
18030W        W60942  19.976  30.750   6.256 -0.2559  0.0045  0.0439
18031W        W60943  20.294  29.879   3.725 -0.4486 -0.2287 -0.2526
18032W        W60944  22.111  30.864   7.160 -0.0460  0.1595 -0.1229
18033W        W60945  20.530  30.671   7.096 -0.1383 -0.0500 -0.0606
18034W        W60946  20.249  30.511   7.630  0.1790  0.0851  0.0436
18035W        W60947  20.656  31.439   7.563  0.1544  0.0822  0.0076
18036W        W60948  22.016  31.350   5.678  0.2785 -0.1292  0.0083
18037W        W60949  19.094  31.745   6.016 -0.3317  0.0329  0.4100
18038W        W60950  18.909  30.625   6.365 -0.0483 -0.3466  0.0427
18039W        W60951  20.677  29.476   6.525 -0.0822 -0.2304  0.0843
18040W        W60952  19.859  31.134   6.812  0.1482 -0.1827 -0.0964
18041W        W60953  18.428  29.544   5.539  0.2481 -0.2686  0.3778
18042W        W60954  19.737  33.564   2.711  0.0142  0.0029  0.2517
18043W        W60955  18.742  30.835   8.088 -0.1065 -0.0547 -0.0209
18044W        W60956  19.044  30.794   5.940  0.1504  0.0417 -0.0510
18045W        W60957  19.797  32.641   4.424  0.2270  0.0698 -0.1751
18046W        W60958  21.570  32.805   4.120  0.0804 -0.0867 -0.3657
18047W        W60959  20.692  31.082   5.628  0.0640 -0.0831 -0.0791
18048W        W60960  21.409  33.226   5.845 -0.2163  0.1695  0.0322
18049W        W60961  19.737  29.032   3.813 -0.1947  0.3133 -0.0132
18050W        W60962  19.188  32.627   4.776  0.2255 -0.2498 -0.0485
18051W        W60963  18.846  32.563   3.460 -0.1286 -0.0802 -0.2433
18052W        W60964  21.332  34.001   4.141  0.0858  0.4547  0.1805
18053W        W60965  21.015  32.827   5.718 -0.1201 -0.0398 -0.0455
18054W        W60966  21.485  32.813   7.072  0.2417  0.0013  0.0336
18055W        W60967  22.643  28.308   2.454  0.2863 -0.0178 -0.1465
18056W        W60968  22.699  31.403   6.555 -0.0626 -0.1528 -0.3606
18057W        W60969  22.632  28.148   4.908  0.1878 -0.1198  0.1016
18058W        W60970  20.892  31.929   8.068 -0.2597 -0.2055  0.0541
18059W        W60971  20.521  30.756   5.077  0.4040  0.0655 -0.0592
18060W        W60972  21.167  29.021   3.120  0.0460  0.0828  0.1411
18061W        W60973  20.341  30.048   7.451 -0.0760  0.0405 -0.1032
18062W        W60974  21.481  29.370   6.400 -0.0523  0.3489 -0.1301
18063W        W60975  19.843  31.427   7.179  0.1087 -0.2770 -0.0540
18064W        W60976  21.655  31.952   3.682  0.1658 -0.3899  0.1238
18065W        W60977  19.196  30.035   4.392  0.0620  0.0590 -0.0771
18066W        W60978  18.208  31.639   4.114  0.2118 -0.0155  0.1879
18067W        W60979  21.724  28.759   5.571  0.0491  0.1742 -0.0767
18068W        W60980  19.627  31.720   4.065 -0.1185 -0.1237 -0.0550
18069W        W60981  20.630  29.757   5.417 -0.2624  0.2357  0.1175
18070W        W60982  19.953  32.618   4.918 -0.0600  0.0337  0.0463
18071W        W60983  20.403  31.852   6.487  0.1923  0.1156  0.1120
18072W        W60984  17.886  29.976   3.819  0.1274 -0.3404 -0.3666
18073W        W60985  21.658  30.988   5.437  0.0109  0.2607 -0.2479
18074W        W60986  19.577  30.555   7.703 -0.0476  0.0271 -0.1839
18075W        W60987  20.281  29.818   6.586 -0.2017  0.0097 -0.1001
18076W        W60988  19.612  30.713   5.819 -0.0870  0.1419 -0.0076
18077W        W60989  21.421  31.264   4.632  0.0711  0.0508 -0.0545
18078W        W60990  20.739  30.259   6.732 -0.0615 -0.1074  0.1171
18079W        W60991  19.554  30.709   7.160 -0.1008 -0.1402 -0.1368
18080W        W60992  21.333  30.023   2.919  0.1684  0.0160  0.0032
18081W        W60993  22.917  30.553   7.464  0.1347 -0.0367  0.0279
18082W        W60994  20.789  31.364   5.066  0.2039  0.2081  0.0608
18083W        W60995  20.806  32.715   8.531  0.0810  0.1153 -0.1147
18084W        W60996  20.322  30.299   6.231 -0.1298 -0.2279 -0.0333
18085W        W60997  21.380  29.896   3.515  0.2336  0.0794 -0.0954
18086W        W60998  19.867  30.486   5.340 -0.1637  0.4164 -0.2641
18087W        W60999  20.009  30.964   5.207 -0.0377  0.3096  0.1552
18088W        W61000  21.118  33.336   6.858  0.2012 -0.1588  0.1748
18089W        W61001  17.994  29.173   4.060 -0.1822  0.0310  0.0935
18090W        W61002  22.061  31.664   5.302 -0.0456 -0.2188 -0.0495
18091W        W61003  21.013  29.885   6.536 -0.1842 -0.1542 -0.0126
18092W        W61004  20.978  32.897   4.718  0.2017  0.2786 -0.2400
18093W        W61005  21.157  31.059   5.058  0.1883 -0.0475 -0.3426
18094W        W61006  21.736  33.515   4.929  0.0286 -0.4413  0.0281
18095W        W61007  17.818  30.585   4.537  0.1111  0.1101 -0.0614
18096W        W61008  21.886  31.226   8.001  0.3639 -0.2092 -0.0125
18097W        W61009  22.676  32.450   5.883 -0.0817  0.0063 -0.2086
18098W        W61010  20.820  27.870   5.139  0.1251 -0.1652  0.1023
18099W        W61011  20.821  31.825   6.106  0.3749 -0.1320  0.2715
18100W        W61012  20.118  30.912   5.796  0.1552 -0.1889 -0.0591
18101W        W61013  21.701  30.082   5.990  0.4124 -0.1224 -0.4980
18102W        W61014  19.767  29.275   6.910 -0.0483 -0.0821 -0.0362
18103W        W61015  19.636  30.996   4.388  0.2653 -0.2624 -0.1053
18104W        W61016  20.523  28.200   6.926  0.1223  0.3067 -0.1308
18105W        W61017  20.377  32.244   8.081  0.1393  0.0894  0.0450
18106W        W61018  19.662  31.719   7.713  0.0430 -0.0555  0.0770
18107W        W61019  19.079  31.763   3.227  0.3762  0.1980 -0.3567
18108W        W61020  20.834  29.884   7.679  0.3539  0.0081 -0.1549
18109W        W61021  20.475  30.956   6.144 -0.0261 -0.1776 -0.0587
18110W        W61022  21.714  32.490   5.407  0.0003 -0.0433  0.0812
18111W        W61023  20.826  31.621   4.110  0.3241 -0.2535  0.1270
18112W        W61024  20.043  29.223   3.369  0.1422  0.0524  0.0536
18113W        W61025  22.544  31.614   5.555  0.0033 -0.0753  0.0492
18114W        W61026  19.839  29.826   5.634 -0.1459  0.0125  0.0915
18115W        W61027  21.521  29.713   4.656  0.0060 -0.1331  0.2800
18116W        W61028  21.994  29.365   4.931  0.2200 -0.0217  0.1229
18117W        W61029  20.242  31.931   6.997 -0.0854  0.1726 -0.0933
18118W        W61030  18.566  30.238   4.361  0.3283  0.0849 -0.1174
18119W        W61031  18.081  30.288   4.157  0.2345 -0.0526 -0.2214
18120W        W61032  19.390  31.486   5.119 -0.0493  0.1032 -0.0248
18121W        W61033  20.391  28.344   7.381  0.2680  0.0172 -0.1648
18122W        W61034  18.973  28.827   7.005 -0.1494 -0.3898  0.0989
18123W        W61035  19.827  32.369   5.464 -0.1185 -0.0782  0.0472
18124W        W61036  18.620  29.158   2.938 -0.3956  0.0575 -0.2423
18125W        W61037  23.237  32.180   4.409  0.1360 -0.0562 -0.0251
18126W        W61038  18.977  29.390   5.485  0.1256 -0.1129  0.0512
18127W        W61039  18.680  29.367   5.082 -0.0285 -0.0655 -0.3652
18128W        W61040  22.351  31.659   3.834 -0.3016  0.2224 -0.1068
18129W        W61041  22.919  32.103   2.995  0.1679  0.0879  0.1088
18130W        W61042  20.651  28.604   2.993  0.1868  0.2041  0.0612
18131W        W61043  22.437  31.661   6.923 -0.0020  0.1959  0.0131
18132W        W61044  18.620  31.075   4.641 -0.0497 -0.3052  0.1811
18133W        W61045  21.174  29.468   6.805  0.0005 -0.3568  0.2581
18134W        W61046  19.382  29.841   6.537 -0.2944  0.1640 -0.0489
18135W        W61047  17.879  27.909   4.135 -0.0279 -0.3194 -0.2131
18136W        W61048  20.159  30.334   4.846  0.0502 -0.1759 -0.2916
18137W        W61049  20.287  31.490   4.107 -0.1160  0.1451 -0.1796
18138W        W61050  21.775  32.565   4.524  0.0693  0.1299  0.3526
18139W        W61051  20.733  32.406   7.237 -0.2398 -0.1919  0.3769
18140W        W61052  20.136  31.735   8.115  0.0934  0.2144  0.0822
18141W        W61053  18.375  28.635   5.763 -0.3746  0.2399 -0.2944
18142W        W61054  20.648  30.278   4.743 -0.0783 -0.1254 -0.1050
18143W        W61055  20.480  32.318   6.242  0.0717  0.1658 -0.0454
18144W        W61056  22.000  31.660   3.438  0.1571  0.2676 -0.1032
18145W        W61057  21.539  29.592   5.825 -0.0844  0.0773  0.4385
18146W        W61058  20.582  30.155   5.765  0.0656  0.1207 -0.2445
18147W        W61059  19.355  28.134   7.277 -0.0549 -0.1736 -0.2303
18148W        W61060  20.550  29.930   7.042  0.2652  0.1181 -0.1095
18149W        W61061  22.795  31.995   5.839 -0.2109  0.3542  0.3527
18150W        W61062  19.253  27.475   4.319  0.1057  0.2357 -0.0091
18151W        W61063  20.838  29.272   4.268 -0.2863 -0.2975  0.1496
18152W        W61064  21.259  32.589   4.459  0.0675 -0.1521  0.2494
18153W        W61065  19.189  31.164   4.716 -0.1294 -0.0818 -0.0179
18154W        W61066  19.236  29.994   3.893 -0.1836 -0.2612 -0.0123
18155W        W61067  19.546  29.618   5.988 -0.1266  0.1070  0.1302
18156W        W61068  21.698  30.812   6.312 -0.1191  0.1851  0.0274
18157W        W61069  19.639  29.771   9.308 -0.0858 -0.2473 -0.0382
18158W        W61070  18.758  30.418   3.547 -0.3256  0.1175 -0.0792
18159W        W61071  21.144  31.016   4.297  0.0452  0.0927 -0.3034
18160W        W61072  20.494  31.848   7.818 -0.0468 -0.0705 -0.0026
18161W        W61073  22.723  32.254   7.445  0.3432  0.1442  0.1041
18162W        W61074  20.512  32.401   6.783 -0.0582  0.0485 -0.0277
18163W        W61075  21.312  30.810   6.722 -0.2623 -0.0044  0.0737
18164W        W61076  19.343  28.976   4.503  0.2942  0.1247 -0.3654
18165W        W61077  20.850  30.753   6.537 -0.2531 -0.2226 -0.2192
18166W        W61078  20.359  29.614   4.235  0.0369  0.0384  0.2328
18167W        W61079  20.849  29.878   4.980 -0.2602  0.0663  0.0232
18168W        W61080  18.734  29.829   4.542  0.1432  0.0953  0.0639
18169W        W61081  21.286  29.326   3.862  0.2896 -0.1230 -0.1287
18170W        W61082  20.116  32.461   7.086 -0.0328 -0.1650  0.0290
18171W        W61083  20.862  31.224   6.713 -0.0902 -0.0118  0.2831
18172W        W61084  19.852  30.271   9.631 -0.1753 -0.1973 -0.0689
18173W        W61085  19.664  29.653   8.517 -0.0644 -0.0101  0.1694
18174W        W61086  20.830  28.719   7.230  0.0613  0.0510  0.1296
18175W        W61087  21.120  29.175   8.056  0.0503  0.0193  0.1410
18176W        W61088  19.431  29.170   7.336  0.1622 -0.1467  0.2591
18177W        W61089  21.549  29.583   8.886 -0.1568 -0.0086  0.0940
18178W        W61090  21.491  31.304  10.302  0.0074  0.2653 -0.1077
18179W        W61091  21.910  33.376   9.093  0.1095  0.1594 -0.4315
18180W        W61092  21.130  30.126   9.497 -0.0732  0.1483  0.0866
18181W        W61093  19.254  29.869   8.980 -0.0258 -0.0579 -0.2008
18182W        W61094  19.159  27.327   7.927  0.0592 -0.1741 -0.1050
18183W        W61095  18.115  28.347   8.664  0.0179  0.0886  0.2268
18184W        W61096  20.838  28.024   8.456 -0.0087  0.0791 -0.3797
18185W        W61097  18.850  29.892   9.292  0.2404  0.1247  0.1394
18186W        W61098  19.455  30.281   9.207  0.0054 -0.1294  0.2863
18187W        W61099  19.109  28.996   8.338 -0.0774 -0.1274  0.0829
18188W        W61100  21.951  30.414  10.165  0.1759  0.1833  0.1332
18189W        W61101  20.344  27.369   9.487  0.1080  0.0930  0.0410
18190W        W61102  19.708  31.625   9.179 -0.0178 -0.0303 -0.0173
18191W        W61103  18.174  30.609   7.012 -0.0388  0.2891 -0.0593
18192W        W61104  17.772  28.357  10.022 -0.2824 -0.4012  0.2664
18193W        W61105  19.175  28.532   9.593 -0.0668  0.2943  0.0827
18194W        W61106  21.903  29.324   9.744  0.2350  0.1201 -0.3223
18195W        W61107  21.100  29.951  10.026  0.0849  0.1159 -0.0058
18196W        W61108  20.738  30.886   9.623  0.1708 -0.1017 -0.2326
18197W        W61109  20.755  31.986   9.316 -0.1402  0.1865 -0.1523
18198W        W61110  18.857  30.556   8.479 -0.0854  0.2366  0.2380
18199W        W61111  18.390  31.849   8.253 -0.2351  0.0925 -0.2246
18200W        W61112  20.114  31.325   9.560 -0.0420  0.1142 -0.1209
18201W        W61113  21.651  30.898   8.679  0.0413 -0.1921  0.2871
18202W        W61114  19.825  30.567   8.957  0.1210 -0.0329  0.0866
18203W        W61115  16.899  30.343   9.826  0.1027  0.1018 -0.1500
18204W        W61116  20.959  29.862   8.610 -0.4107 -0.1859  0.0046
18205W        W61117  20.036  31.242   9.097 -0.0559 -0.1713 -0.3020
18206W        W61118  20.692  28.323   9.184 -0.0970  0.0243 -0.2477
18207W        W61119  19.270  30.800   9.125 -0.3618  0.0581 -0.0476
18208W        W61120  20.016  32.424   8.900  0.2549  0.0982 -0.0413
18209W        W61121  21.783  30.357   6.586 -0.1192  0.2784  0.1997
18210W        W61122  19.856  29.594   6.528 -0.0917 -0.3271 -0.3248
18211W        W61123  19.733  27.838   8.671  0.0615 -0.0823  0.0592
18212W        W61124  18.726  28.302   9.908 -0.3573  0.0420 -0.0970
18213W        W61125  19.378  30.940   9.978  0.2986 -0.1317  0.1858
18214W        W61126  17.852  29.912   9.830 -0.0062 -0.2576 -0.1176
18215W        W61127  19.948  28.856   8.107 -0.0263  0.0612 -0.0710
18216W        W61128  19.067  30.447  10.068 -0.2478 -0.2959  0.2003
18217W        W61129  18.171  32.761   9.836 -0.2890 -0.1349  0.0850
18218W        W61130  19.219  29.156  10.247 -0.1590 -0.1652  0.0515
18219W        W61131  21.843  31.268   7.524  0.1005  0.1037  0.0506
18220W        W61132  21.984  32.030   8.043  0.0956 -0.3020  0.0461
18221W        W61133  20.559  31.438   8.801  0.1554 -0.2272 -0.2522
18222W        W61134  19.554  31.437  10.235  0.2219 -0.0478 -0.1056
18223W        W61135  19.407  28.912   6.869 -0.2528  0.1953  0.1386
18224W        W61136  21.051  28.782   8.398 -0.0231 -0.0373 -0.3801
18225W        W61137  22.406  31.552   9.749 -0.1806  0.1533  0.1208
18226W        W61138  22.696  32.791   9.960  0.2137  0.2215  0.2170
18227W        W61139  21.593  30.862   7.962 -0.0499  0.2027  0.0136
18228W        W61140  20.688  28.469   8.726  0.1043 -0.1329 -0.1663
18229W        W61141  21.605  28.247   9.633 -0.1299 -0.1987 -0.0408
18230W        W61142  19.222  31.146   7.968  0.0340  0.2639 -0.2482
18231W        W61143  20.128  30.401   8.565  0.1999  0.1454  0.0082
18232W        W61144  20.388  31.129   9.913  0.4577  0.0809  0.1657
18233W        W61145  21.504  30.462   8.325 -0.1532 -0.0259 -0.3238
18234W        W61146  16.657  33.285  12.263 -0.1685 -0.2574 -0.2404
18235W        W61147  19.487  33.007   8.921  0.1684 -0.1745 -0.0338
18236W        W61148  16.790  31.550   9.185 -0.0709 -0.1769  0.1006
18237W        W61149  19.082  30.510   7.167 -0.2124 -0.1505  0.1252
18238W        W61150  18.091  30.328   9.965  0.2147  0.1828 -0.1098
18239W        W61151  20.241  28.638   8.919  0.1982  0.0248 -0.1899
18240W        W61152  21.188  28.611   7.936 -0.0471 -0.0398  0.1121
18241W        W61153  21.559  28.850   8.140 -0.0251 -0.0315 -0.1801
18242W        W61154  18.841  30.967   8.999 -0.0675 -0.1476  0.1613
18243W        W61155  21.801  32.601   9.839 -0.1384  0.1723 -0.0512
18244W        W61156  22.446  29.332   9.001 -0.2348  0.0526  0.0738
18245W        W61157  20.076  32.166   8.455 -0.0823 -0.0943  0.0582
18246W        W61158  19.413  30.603   9.638 -0.1749  0.1083  0.2116
18247W        W61159  19.197  29.403   8.619  0.0808  0.2502 -0.1791
18248W        W61160  19.009  29.472   9.059 -0.3004  0.0302 -0.0848
18249W        W61161  18.839  27.917   8.197 -0.0529  0.0168 -0.1502
18250W        W61162  21.021  27.565   8.300  0.1568 -0.0488  0.1076
18251W        W61163  19.680  28.541   9.032 -0.0321  0.0917 -0.0191
18252W        W61164  17.731  30.267   9.512  0.0046  0.0107  0.0506
18253W        W61165  20.852  30.875  10.061 -0.0070  0.2071 -0.0239
18254W        W61166  22.777  32.009  10.000 -0.4420 -0.2162 -0.1235
18255W        W61167  22.564  31.200  10.108  0.0104 -0.0066 -0.0471
18256W        W61168  21.101  28.229   9.522  0.1027  0.0290 -0.1123
18257W        W61169  18.019  29.882   9.264  0.2919  0.2316  0.4031
18258W        W61170  19.849  33.281   9.304  0.4445 -0.3155 -0.1285
18259W        W61171  20.317  30.928   8.758  0.3502  0.0276  0.1001
18260W        W61172  19.022  29.594   8.180 -0.4146 -0.0404 -0.0332
18261W        W61173  21.685  31.302   8.979 -0.0971  0.2171  0.1240
18262W        W61174  21.269  30.263   6.695  0.1749  0.0112 -0.2925
18263W        W61175  21.102  29.734   9.125  0.1320 -0.1733  0.1737
18264W        W61176  19.897  28.966   8.648 -0.2808  0.0024  0.2403
18265W        W61177  18.434  28.071   7.798 -0.0136 -0.3084 -0.1893
18266W        W61178  20.722  31.032   9.072 -0.0974 -0.0290  0.1085
18267W        W61179  18.956  32.581   8.066 -0.1106  0.2906 -0.2966
18268W        W61180  19.201  31.030   8.544  0.0697 -0.2780  0.1551
18269W        W61181  20.705  32.577  10.184  0.1371 -0.0086 -0.2270
18270W        W61182  19.569  28.539   9.929  0.0960  0.0190  0.1392
18271W        W61183  19.954  29.524   7.434 -0.0854 -0.1299  0.0330
18272W        W61184  22.138  28.280   8.890 -0.1391 -0.1242 -0.2343
18273W        W61185  21.513  28.981   8.613  0.0466  0.0907 -0.1914
18274W        W61186  22.035  30.249   9.228  0.1053  0.4582 -0.1846
18275W        W61187  21.955  30.101   8.225 -0.0699  0.0926 -0.4179
18276W        W61188  20.875  28.177   7.716 -0.0194 -0.3363  0.2447
18277W        W61189  21.220  29.478   7.645  0.1698 -0.0510  0.1848
18278W        W61190  20.367  30.583   9.937  0.0281 -0.1502 -0.0885
18279W        W61191  19.731  28.557   7.796 -0.2048  0.1471 -0.0626
18280W        W61192  21.777  30.690   7.496 -0.0038 -0.2156 -0.1685
18281W        W61193  18.349  30.774   9.928  0.4572  0.3080 -0.2342
18282W        W61194  20.234  29.503  10.072 -0.2213 -0.3909  0.2112
18283W        W61195  20.990  27.473  10.150  0.0654 -0.0352 -0.0923
18284W        W61196  19.533  28.614   8.407 -0.1337 -0.1201 -0.1086
18285W        W61197  21.427  28.371   8.431 -0.0962 -0.1226  0.0851
18286W        W61198  19.802  32.420   7.518 -0.0730 -0.1493 -0.2486
18287W        W61199  21.403  30.327  10.301  0.1653  0.2382  0.3019
18288W        W61200  18.834  28.095   9.453 -0.1148  0.2481  0.2133
18289W        W61201  21.646  30.521   7.047 -0.2233 -0.0094  0.1261
18290W        W61202  20.090  31.559  10.026  0.1660 -0.1585  0.0869
18291W        W61203  19.334  30.022   8.021 -0.1123 -0.1304  0.0309
18292W        W61204  20.050  30.132  10.040 -0.0629  0.2166 -0.0329
18293W        W61205  16.165  31.199   9.830 -0.0340 -0.1821  0.0363
18294W        W61206  23.326  31.846   8.589 -0.2476  0.2026  0.0727
18295W        W61207  19.317  28.848   7.775 -0.0564 -0.1472 -0.2484
18296W        W61208  20.236  31.194   8.306  0.1226  0.1180  0.1630
18297W        W61209  19.527  30.825   8.152 -0.0329  0.2577 -0.2586
18298W        W61210  19.211  29.323   7.832  0.1742 -0.2610  0.0509
18299W        W61211  20.981  30.620   9.291  0.3825  0.1815  0.0151
18300W        W61212  20.732  31.042   8.466 -0.0315 -0.3022 -0.1459
18301W        W61213  22.921  31.499   8.848 -0.1669 -0.1796 -0.3513
18302W        W61214  19.154  32.118   8.192 -0.2578 -0.0970 -0.1449
18303W        W61215  22.898  29.840  10.572 -0.1075  0.0418  0.1015
18304W        W61216  19.121  31.998   8.739 -0.0710  0.1044  0.2390
18305W        W61217  19.927  29.295   9.551 -0.1323 -0.1635 -0.0427
18306W        W61218  18.030  31.154   8.741 -0.0027  0.0437 -0.1840
18307W        W61219  21.465  27.556  10.212  0.3423  0.1015 -0.0336
18308W        W61220  21.567  30.478   9.389 -0.0206  0.0778 -0.1311
18309W        W61221  18.557  27.420   9.725 -0.0344  0.1691 -0.1933
18310W        W61222  19.552  28.937   9.385 -0.2323  0.0485 -0.1113
18311W        W61223  18.880  32.047   9.575 -0.1389  0.1203 -0.1863
18312W        W61224  21.331  28.616   6.561  0.3514  0.1542 -0.4031
18313W        W61225  19.281  30.949   7.514  0.2696 -0.2468 -0.0432
18314W        W61226  21.163  31.445   8.075  0.1110 -0.0059  0.0316
18315W        W61227  19.023  28.513   8.475  0.2980 -0.2535 -0.1631
18316W        W61228  19.661  31.489   9.718 -0.0811 -0.0533  0.1486
18317W        W61229  21.573  32.136   9.970 -0.0414 -0.2111 -0.0548
18318W        W61230  19.321  30.537   8.718 -0.0111  0.0546  0.1821
18319W        W61231  19.926  30.844   9.790 -0.0119  0.1564 -0.1607
18320W        W61232  22.529  32.461   9.174 -0.1129 -0.1834  0.0601
18321W        W61233  19.167  31.665   9.632  0.1513 -0.0558 -0.2512
18322W        W61234  19.074  29.001   9.246  0.2713 -0.0644  0.0252
18323W        W61235  19.843  29.739   9.780 -0.2706 -0.2072 -0.0043
18324W        W61236  21.263  31.266   9.363  0.1332  0.1067  0.0724
18325W        W61237  21.600  30.791  10.226 -0.2104  0.1512  0.3072
18326W        W61238  22.310  29.572  10.393  0.2130 -0.0413  0.0813
18327W        W61239  21.858  31.401   6.944 -0.2039  0.0441 -0.1037
18328W        W61240  19.716  29.651  10.229 -0.0299  0.1557 -0.1334
18329W        W61241  17.412  30.195   9.919 -0.1045 -0.1458  0.1337
18330W        W61242  20.035  30.765   8.011 -0.0791 -0.2776  0.1601
18331W        W61243  23.633  31.165   9.196  0.0612  0.0484 -0.0183
18332W        W61244  19.748  29.120  10.059  0.0315 -0.0499 -0.3969
18333W        W61245  20.920  30.999   7.964  0.1678 -0.0626  0.1376
18334W        W61246  19.161  31.858  10.769  0.0785 -0.0130  0.0370
18335W        W61247  20.951  27.640   7.673 -0.1262  0.1925  0.2379
18336W        W61248  21.212  30.136   8.011 -0.3370 -0.0259  0.0788
18337W        W61249  19.283  28.044   9.690 -0.2905  0.1000 -0.0546
18338W        W61250  21.458  29.923   8.457  0.4286  0.3497  0.3672
18339W        W61251  18.601  28.768   8.348  0.0846  0.1958  0.0877
18340W        W61252  20.692  29.486   7.894 -0.2871  0.1194  0.0856
18341W        W61253  21.109  28.187   8.885  0.0157 -0.0997 -0.1587
18342W        W61254  19.831  28.202   8.218  0.1078 -0.1693 -0.2044
18343W        W61255  20.557  29.788   9.827  0.1787 -0.2697  0.0100
18344W        W61256  20.314  29.977   8.888  0.0469  0.0777 -0.1326
18345W        W61257  18.964  30.348   9.022  0.3860  0.1851 -0.1033
18346W        W61258  19.428  28.220   8.662 -0.1951  0.0399  0.1491
18347W        W61259  19.915  30.522  10.270  0.1330 -0.0437  0.2834
18348W        W61260  20.537  29.513   8.879 -0.2164  0.2068  0.1927
18349W        W61261  20.625  30.263   8.596  0.0065  0.1460 -0.0914
18350W        W61262  19.665  31.173   8.721  0.1080  0.0925  0.0950
18351W        W61263  21.792  28.041   8.657  0.0399 -0.0855  0.2358
18352W        W61264  18.092  27.521   9.647  0.1456 -0.0040  0.3706
18353W        W61265  20.428  33.620   9.288 -0.1599  0.3415  0.0714
18354W        W61266  21.295  28.972   7.495  0.1460 -0.1781 -0.1490
18355W        W61267  23.122  30.059  10.085  0.2415 -0.0208  0.2004
18356W        W61268  21.417  31.022   9.766 -0.2946  0.0862  0.0189
18357W        W61269  20.747  29.149   6.968  0.6101  0.0374  0.1137
18358W        W61270  18.865  29.342   9.537  0.0911  0.0112 -0.1960
18359W        W61271  19.001  29.057   7.502  0.0074  0.0871  0.3124
18360W        W61272  20.775  30.297   7.408 -0.3682  0.1117 -0.1227
18361W        W61273  21.339  30.905   9.055 -0.2019 -0.1218 -0.0022
18362W        W61274  19.014  28.372   8.954 -0.2085 -0.0066  0.1678
18363W        W61275  18.297  30.417   9.471 -0.1224  0.0519 -0.1102
18364W        W61276  19.561  29.842   7.311  0.0512 -0.1045 -0.0011
18365W        W61277  19.417  29.398   9.453 -0.3328 -0.0572  0.0296
18366W        W61278  20.324  30.208   9.448 -0.0626  0.0313 -0.2586
18367W        W61279  20.981  27.299   6.701  0.0866  0.2641 -0.1310
18368W        W61280  18.293  30.503   7.872  0.1650 -0.1356 -0.2688
18369W        W61281  19.765  28.253   9.547 -0.1225  0.1156  0.0622
18370W        W61282  16.378  30.169   9.995 -0.5082 -0.0654  0.2211
18371W        W61283  21.192  30.517   9.839 -0.1980  0.0766  0.1602
18372W        W61284  18.692  28.600   9.425 -0.1394 -0.0257  0.2903
18373W        W61285  23.515  27.085   9.303 -0.0029  0.1092  0.2344
18374W        W61286  19.977  31.040  10.285 -0.0253 -0.0149  0.1170
18375W        W61287  19.135  32.753   9.697 -0.0809  0.1701  0.1862
18376W        W61288  20.052  29.871   8.445  0.2133  0.1942  0.1033
18377W        W61289  21.098  29.359   8.756  0.1836 -0.1978 -0.1924
18378W        W61290  19.516  30.279  10.054  0.1569 -0.2085 -0.3446
18379W        W61291  19.066  28.116   7.692  0.2873 -0.3362  0.1399
18380W        W61292  20.173  29.715   7.942 -0.0683  0.0362  0.2605
18381W        W61293  16.483  30.756   9.783  0.0522  0.3175  0.3567
18382W        W61294  18.703  31.711   7.417 -0.0214  0.0097  0.0934
18383W        W61295  22.239  30.591   6.649 -0.1044  0.6160 -0.1382
18384W        W61296  19.824  30.082   7.766  0.0823  0.0336  0.3055
18385W        W61297  21.884  33.665   8.643 -0.4713  0.0313 -0.0560
18386W        W61298  19.751  29.138   7.713 -0.1756 -0.0635 -0.2035
18387W        W61299  21.220  31.693  10.118  0.1721 -0.2373  0.1655
18388W        W61300  19.681  32.929   7.991  0.3031  0.1110 -0.0374
18389W        W61301  21.224  32.353   8.608 -0.1098 -0.0096 -0.2243
18390W        W61302  19.666  31.912   8.240  0.3065 -0.1441  0.1497
18391W        W61303  22.072  29.857   7.795 -0.0895 -0.0804  0.0969
18392W        W61304  23.482  31.636   9.686 -0.0569 -0.1805  0.2624
18393W        W61305  21.649  29.961   9.359  0.0502 -0.3553  0.0128
18394W        W61306  20.604  28.960   8.851  0.1444  0.1101 -0.0156
18395W        W61307  19.872  28.293   7.320 -0.2622  0.2067  0.1388
18396W        W61308  21.167  31.927   8.865 -0.3083  0.2007  0.1638
18397W        W61309  18.080  29.201   9.134 -0.4041 -0.3270 -0.0561
18398W        W61310  19.345  29.695   9.879  0.3958 -0.0322 -0.1096
18399W        W61311  20.790  26.651   8.251 -0.0676 -0.1163 -0.1978
18400W        W61312  20.938  31.592   8.473 -0.0129 -0.2876  0.2157
18401W        W61313  20.906  29.429   9.717  0.1138  0.1127 -0.2226
18402W        W61314  20.635  31.466   9.377  0.2348 -0.0712  0.2262
18403W        W61315  19.898  31.782  10.398 -0.1510  0.0672  0.0964
18404W        W61316  20.729  32.185   9.806  0.2334 -0.1866  0.0305
18405W        W61317  18.606  29.249   8.267  0.2797  0.0954 -0.2972
18406W        W61318  21.859  30.752   9.093 -0.0343 -0.0041 -0.0257
18407W        W61319  20.652  27.790   9.335 -0.0703 -0.0871  0.0924
18408W        W61320  18.817  29.865   9.796 -0.0147 -0.3092 -0.0610
18409W        W61321  22.071  29.632   8.761  0.4148 -0.0480 -0.2183
18410W        W61322  18.224  33.828   9.812 -0.3100 -0.0990 -0.3015
18411W        W61323  17.290  30.802   9.884  0.1217 -0.1767 -0.2612
18412W        W61324  19.619  28.452   6.830  0.4524  0.3379 -0.1100
18413W        W61325  19.963  28.342   8.669 -0.1774  0.3770  0.0079
18414W        W61326  18.803  28.547   7.544 -0.1374  0.3936  0.1963
18415W        W61327  20.185  29.288   8.433  0.0695  0.1177  0.2309
18416W        W61328  19.188  30.133   9.638 -0.2726 -0.0317 -0.1652
18417W        W61329  17.391  31.693   9.810 -0.3784  0.1950  0.0948
18418W        W61330  18.553  28.488   8.963 -0.1885 -0.1856 -0.3190
18419W        W61331  21.316  31.148   7.596 -0.0304  0.0183 -0.1859
18420W        W61332  20.474  29.299   9.589 -0.1773  0.2039 -0.1421
18421W        W61333  20.026  31.663   8.658  0.0608  0.1997  0.0657
18422W        W61334  21.099  29.696   8.144  0.0991 -0.0342 -0.0388
18423W        W61335  21.577  31.683   9.633  0.2815  0.1478 -0.0851
18424W        W61336  16.864  28.088   8.587 -0.2280 -0.1429  0.0149
18425W        W61337  20.236  32.177   9.311  0.0817  0.0139 -0.0327
18426W        W61338  23.088  33.535   9.950 -0.0715 -0.2258  0.2736
18427W        W61339  21.656  27.099   8.818 -0.2680  0.0714 -0.0911
18428W        W61340  19.372  28.899   8.790 -0.0343  0.0105  0.2661
18429W        W61341  18.576  31.022   9.525  0.3029  0.1631 -0.1587
18430W        W61342  20.637  27.430  10.497 -0.0878  0.0159  0.1535
18431W        W61343  19.756  31.272   8.139  0.2072  0.0306 -0.0708
18432W        W61344  19.320  30.589  10.481 -0.0745 -0.1065 -0.0223
18433W        W61345  18.490  30.078   8.958  0.0229  0.0056  0.2911
18434W        W61346  20.646  29.043   8.114 -0.0936  0.0999 -0.1934
18435W        W61347  20.650  31.530   9.995 -0.3264  0.3645 -0.1394
18436W        W61348  23.975  31.416   9.436  0.2997 -0.2967  0.1787
18437W        W61349  20.441  28.797   9.374  0.3253 -0.1056 -0.1874
18438W        W61350  22.592  31.753   7.379 -0.0935  0.0013 -0.1735
18439W        W61351  19.399  27.587   9.827 -0.0631 -0.2182 -0.0230
18440W        W61352  20.812  28.220  10.125 -0.1535  0.0345 -0.0382
18441W        W61353  20.875  27.965   7.259  0.1293  0.3236 -0.0824
18442W        W61354  21.520  31.972  10.448  0.2503  0.0520  0.1080
18443W        W61355  18.689  30.298   8.021 -0.0420  0.1689  0.4630
18444W        W61356  19.920  30.816   8.484 -0.1547  0.1347  0.0441
18445W        W61357  20.010  32.241  10.152  0.0800 -0.2151  0.1642
18446W        W61358  19.028  31.511  10.249  0.0793 -0.2342  0.1297
18447W        W61359  19.566  28.091   7.720  0.0705  0.2557  0.1695
18448W        W61360  22.634  30.594   7.909 -0.0941  0.1224  0.0781
18449W        W61361  19.266  29.019   9.781 -0.1678 -0.2474  0.1593
18450W        W61362  18.237  28.845   8.722  0.0710 -0.0630  0.0276
18451W        W61363  21.601  31.536   8.515 -0.2350 -0.2175  0.1437
18452W        W61364  20.999  30.628   8.247 -0.1406 -0.0023 -0.0500
18453W        W61365  19.244  27.726   8.430  0.0410  0.3131  0.4743
18454W        W61366  18.182  31.548   6.707  0.2224  0.1386  0.0901
18455W        W61367  19.361  29.823   5.461  0.0039 -0.3239 -0.2368
18456W        W61368  20.851  30.405  10.241 -0.4696  0.2456  0.1386
18457W        W61369  19.632  29.329   8.986 -0.2054  0.3435 -0.3207
18458W        W61370  20.491  31.808   8.392 -0.1243  0.1485 -0.0170
18459W        W61371  17.914  27.967   9.541  0.0160  0.0271  0.0214
18460W        W61372  22.668  30.187   9.966  0.2727  0.0189 -0.0158
18461W        W61373  21.909  29.546   9.238 -0.2675  0.0754  0.0128
18462W        W61374  22.683  29.623   9.412  0.3692 -0.0466  0.1200
18463W        W61375  20.887  30.249   9.007  0.0233  0.0407  0.2595
18464W        W61376  23.933  30.890   9.464  0.1237 -0.0027  0.0836
18465W        W61377  20.325  28.073   8.807  0.3188 -0.2261 -0.1354
18466W        W61378  20.586  27.911   8.045  0.0505 -0.0225 -0.2767
18467W        W61379  19.803  30.040   8.881  0.1282 -0.0980  0.1698
18468W        W61380  20.349  30.501   8.988 -0.1391  0.0275 -0.1017
18469W        W61381  20.172  28.769   7.586  0.1530  0.3365 -0.1133
18470W        W61382  20.927  30.713   8.792  0.0713 -0.0266  0.0786
18471W        W61383  20.053  29.557   8.887  0.0990  0.2816 -0.1250
18472W        W61384  21.826  29.669   7.393 -0.1894  0.2039  0.2721
18473W        W61385  21.957   0.570   8.652 -0.2142  0.2852 -0.2202
18474W        W61386  21.093  32.204  10.227 -0.1275 -0.1652 -0.0822
18475W        W61387  22.007  31.608   9.408 -0.0673 -0.0557 -0.2197
18476W        W61388  17.005  28.256   9.887 -0.4130  0.2651 -0.3289
18477W        W61389  19.108  30.054   8.490 -0.0428 -0.0638 -0.0552
18478W        W61390  20.176  29.692   9.370 -0.0328 -0.1251  0.1494
18479W        W61391  21.604  30.371   7.830  0.2148  0.0734 -0.0457
18480W        W61392  19.594  29.199   8.270 -0.0028  0.2470  0.0798
18481W        W61393  21.137  27.103   8.080 -0.1722 -0.2103 -0.0255
18482W        W61394  21.167  31.213   8.682  0.0027 -0.1270 -0.3281
18483W        W61395  20.241  32.605   9.823  0.0965  0.0894 -0.0989
18484W        W61396  19.470  33.957   1.306  0.0346 -0.0578 -0.0936
18485W        W61397  21.047  34.334   0.085  0.0340 -0.0500 -0.3191
18486W        W61398  21.054  34.538  31.255 -0.1223  0.2753  0.2291
18487W        W61399  17.281   0.031   1.960  0.0611 -0.0452  0.1024
18488W        W61400  20.969  32.309   3.293 -0.0043  0.0991 -0.0085
18489W        W61401  20.135  34.419   0.636 -0.2562  0.2729  0.2417
18490W        W61402  20.242  34.148   2.927 -0.0003  0.1320 -0.0001
18491W        W61403  20.817  32.429   0.223  0.1359  0.0633  0.1680
18492W        W61404  19.775  32.957   2.683 -0.2493  0.0127  0.0491
18493W        W61405  20.270   0.269   2.372  0.1200  0.0823  0.0286
18494W        W61406  16.934   1.662   1.985  0.1381 -0.0941  0.1413
18495W        W61407  19.136  34.362   2.834 -0.0629 -0.0258  0.0254
18496W        W61408  19.368  33.038   1.563  0.0315 -0.0057  0.1970
18497W        W61409  20.100  32.620   2.845 -0.3483 -0.0129 -0.0313
18498W        W61410  19.986  33.902   3.787 -0.2366 -0.2953 -0.0675
18499W        W61411  18.947   0.243   0.419  0.2518 -0.1350  0.1750
18500W        W61412  18.693  34.188   2.982 -0.1130  0.0639 -0.5432
18501W        W61413  19.342   0.337   2.592 -0.0685  0.2594 -0.0895
18502W        W61414  21.413  34.536   1.273 -0.0824 -0.0713 -0.0149
18503W        W61415  21.088   0.269   1.837  0.2290 -0.0380  0.0996
18504W        W61416  20.686   0.770   3.648  0.2644  0.0664 -0.1603
18505W        W61417  20.468  33.949   1.765 -0.0486 -0.3306 -0.0557
18506W        W61418  18.999   0.125   3.050  0.2920  0.2524 -0.4168
18507W        W61419  20.761  33.853   4.283  0.0101 -0.0048  0.0783
18508W        W61420  22.623  33.165   0.834  0.1692 -0.3369  0.1662
18509W        W61421  19.255  34.447   0.377 -0.0049 -0.1386 -0.1310
18510W        W61422  20.730   0.164   2.114  0.2134 -0.1317  0.1902
18511W        W61423  18.735  34.460   1.918  0.2142  0.0817 -0.0449
18512W        W61424  20.029  32.905   2.279  0.1996  0.1935  0.1410
18513W        W61425  19.387  33.090   1.012 -0.0333  0.2230  0.0021
18514W        W61426  20.096   0.962   2.826 -0.3416 -0.0899 -0.0741
18515W        W61427  19.056  33.097   3.264  0.0378 -0.4008  0.3717
18516W        W61428  16.995  33.437   0.769  0.1536 -0.1774  0.1222
18517W        W61429  19.125   0.787   2.908 -0.0782  0.1116 -0.1706
18518W        W61430  18.750   0.959   3.665  0.0903 -0.2563 -0.0249
18519W        W61431  19.690  32.028   0.693  0.0808 -0.3312  0.0828
18520W        W61432  22.112  33.999   1.010  0.1358  0.0710 -0.2398
18521W        W61433  21.145  33.049   2.556 -0.1001  0.2064 -0.0615
18522W        W61434  20.854  33.190   2.207 -0.1799 -0.1062 -0.0769
18523W        W61435  21.922  33.570  31.420  0.0206  0.1273 -0.1420
18524W        W61436  20.131  32.950   4.024  0.0525 -0.1746  0.1339
18525W        W61437  18.290  32.395   2.007 -0.1260 -0.1531 -0.0034
18526W        W61438  20.765  32.959   0.485  0.0871 -0.0852  0.3339
18527W        W61439  20.010  33.963   2.457  0.2567  0.3053 -0.0188
18528W        W61440  20.472  32.769   2.069 -0.1393 -0.3563 -0.0763
18529W        W61441  21.654  33.515   0.155  0.1500  0.0856 -0.1481
18530W        W61442  17.911  34.640   2.858  0.2046  0.2018  0.1350
18531W        W61443  17.643  33.910   1.483  0.1941  0.0870 -0.0426
18532W        W61444  19.576  34.689   3.077 -0.1657 -0.0701 -0.2912
18533W        W61445  19.445  33.480   1.810  0.1499  0.0030 -0.1300
18534W        W61446  21.046  34.587   2.718 -0.1666 -0.0393 -0.1003
18535W        W61447  18.402  33.420   1.823  0.3126  0.1340 -0.0230
18536W        W61448  21.065  33.111   1.783  0.1305 -0.2374  0.3278
18537W        W61449  17.929   0.586   1.021  0.2239  0.1790  0.1096
18538W        W61450  20.536  33.002   4.472 -0.0862 -0.1477  0.0503
18539W        W61451  20.081   0.312   3.355 -0.1099 -0.1422  0.0314
18540W        W61452  18.875  33.954   0.507  0.1450 -0.2263 -0.3291
18541W        W61453  18.777  33.331  31.453  0.0160  0.2037 -0.2866
18542W        W61454  21.470  32.758   3.035 -0.0612  0.0886  0.0429
18543W        W61455  21.487   0.293   1.490 -0.3001  0.2063  0.2080
18544W        W61456  20.240  34.275  31.766 -0.0796 -0.1201 -0.1048
18545W        W61457  18.314  34.563   3.158 -0.0329 -0.0633 -0.0900
18546W        W61458  21.509  34.088   0.989 -0.1704 -0.0504  0.0372
18547W        W61459  17.750   1.501   2.773  0.2920  0.0118 -0.1158
18548W        W61460  19.850  34.167   4.545  0.3891 -0.2351 -0.0391
18549W        W61461  19.240   0.103   0.838 -0.2262  0.2532 -0.1418
18550W        W61462  20.496  32.439   0.628 -0.1267  0.0234  0.0944
18551W        W61463  20.290  33.239   0.527 -0.0009 -0.2811  0.3151
18552W        W61464  20.633  33.571   0.208  0.1596  0.0393  0.0689
18553W        W61465  19.821  33.542   0.366 -0.1834 -0.0245 -0.0943
18554W        W61466  19.099  34.163  30.923 -0.1634 -0.2573 -0.0339
18555W        W61467  19.512   0.274   2.119 -0.1762  0.0693 -0.0861
18556W        W61468  18.613   0.105   1.069  0.1376 -0.0487  0.2996
18557W        W61469  20.689  34.251   2.142 -0.0297 -0.1727  0.1310
18558W        W61470  21.907   0.385   2.348 -0.2363  0.0782 -0.0446
18559W        W61471  21.199  34.492   2.146 -0.0252  0.2827  0.1980
18560W        W61472  19.896  32.822   3.547  0.0061 -0.0415  0.0009
18561W        W61473  21.555  34.346   2.607 -0.5336 -0.0524  0.3819
18562W        W61474  22.197   0.189   0.758 -0.1994  0.3895  0.2225
18563W        W61475  21.455   0.066   3.112 -0.2085  0.2601 -0.0620
18564W        W61476  20.330   0.042   0.127  0.0330  0.1955  0.1612
18565W        W61477  21.089  33.012   3.837  0.1784  0.0526  0.0101
18566W        W61478  20.190  32.023   3.929  0.0106 -0.0466  0.1892
18567W        W61479  20.329   0.712   1.492 -0.3056  0.0379 -0.1378
18568W        W61480  19.320  34.476   1.267  0.3164  0.0862 -0.1281
18569W        W61481  21.130  33.982   2.630 -0.1302 -0.1138 -0.3012
18570W        W61482  20.316  34.065   0.315 -0.1791  0.0378  0.1055
18571W        W61483  18.258   0.365   1.299 -0.1695  0.1796  0.2504
18572W        W61484  22.742  33.935   0.727  0.1135  0.3642  0.2146
18573W        W61485  19.605  32.029   2.414 -0.3176 -0.1061 -0.0023
18574W        W61486  19.625  33.924   1.960 -0.2452 -0.3511 -0.0150
18575W        W61487  19.803  34.386   2.757 -0.0072 -0.1977  0.1061
18576W        W61488  19.834  32.994   0.371  0.0057 -0.1737  0.4239
18577W        W61489  19.913   0.984   4.360 -0.0840 -0.0373  0.2826
18578W        W61490  15.947  33.829   1.164  0.0680 -0.4809  0.0938
18579W        W61491  20.337  34.077   3.377  0.2030  0.1430 -0.0279
18580W        W61492  19.934  33.795   1.615  0.2721  0.3086 -0.1310
18581W        W61493  19.280  33.591  31.216  0.0058  0.0565  0.1472
18582W        W61494  20.181  34.507   4.389  0.0308 -0.0542 -0.2494
18583W        W61495  19.768   0.314   1.058 -0.1593  0.0776 -0.1463
18584W        W61496  18.700  34.435   0.381  0.1116 -0.2170 -0.3632
18585W        W61497  20.267  34.530   1.920 -0.0847  0.2930  0.2802
18586W        W61498  21.069  34.449   4.373  0.5200 -0.1639 -0.1732
18587W        W61499  19.881  32.736   1.278  0.4193  0.0356 -0.0197
18588W        W61500  20.976   1.841   1.713 -0.0568 -0.1550 -0.0566
18589W        W61501  20.945  33.851   2.151  0.0323  0.1518  0.4651
18590W        W61502  21.209  31.962   1.622  0.1108 -0.3578  0.3309
18591W        W61503  19.845  34.495   2.233 -0.3004  0.0235  0.1233
18592W        W61504  21.535  33.111   4.516  0.1262  0.0566  0.0943
18593W        W61505  20.555  34.577   0.928 -0.0847 -0.0773  0.0615
18594W        W61506  20.640  33.194   4.029 -0.0088 -0.1713 -0.1456
18595W        W61507  17.731  32.990   3.963  0.0111  0.2177 -0.2918
18596W        W61508  19.366  33.205   3.579 -0.0229 -0.2566 -0.0478
18597W        W61509  20.258  34.022   4.169 -0.0443  0.2391  0.2870
18598W        W61510  20.315  34.129   1.297 -0.1910 -0.1125 -0.4938
18599W        W61511  17.486  31.801  30.826  0.1588 -0.2464  0.1937
18600W        W61512  19.612   0.877   2.669 -0.1921  0.2183  0.0118
18601W        W61513  20.517  34.588   1.416 -0.0089  0.1253 -0.0571
18602W        W61514  19.596   1.228   2.180 -0.1327 -0.1052 -0.0524
18603W        W61515  21.272   0.431   0.904 -0.1376  0.0459  0.1805
18604W        W61516  19.236  33.689   3.345  0.1982 -0.1983  0.3296
18605W        W61517  21.305  33.532   1.923 -0.2931  0.5094 -0.3103
18606W        W61518  20.648  33.814   3.015 -0.0464  0.0459  0.1613
18607W        W61519  20.485  34.636   3.449 -0.0716 -0.3666  0.1486
18608W        W61520  18.780   0.272   3.922 -0.2560 -0.1416  0.0385
18609W        W61521  19.833  32.063   3.529  0.2766  0.0389 -0.1861
18610W        W61522  22.605  32.687   0.890  0.0212 -0.1797  0.0152
18611W        W61523  20.887  34.201   3.874 -0.1604 -0.0718 -0.1697
18612W        W61524  21.910  33.774   0.602 -0.1722  0.1259 -0.0333
18613W        W61525  21.107  33.154   0.820 -0.3138 -0.1500 -0.1571
18614W        W61526  19.901  34.173   1.065 -0.0682 -0.2502 -0.4015
18615W        W61527  20.634  34.592   4.111 -0.1850  0.2342  0.4144
18616W        W61528  18.505  33.671   0.875 -0.1822  0.0283 -0.0112
18617W        W61529  21.315  34.235   3.007 -0.3454 -0.0731 -0.0985
18618W        W61530  19.822  33.341   0.856 -0.0042  0.4327 -0.0217
18619W        W61531  19.692   0.523   3.628 -0.3378 -0.2916 -0.0870
18620W        W61532  18.795  32.793  30.885  0.0768  0.1274  0.3407
18621W        W61533  20.192  33.679   0.743  0.2192 -0.0305 -0.0485
18622W        W61534  21.165  32.341   1.253 -0.0810  0.0676 -0.0078
18623W        W61535  19.367  34.331   2.011 -0.2852  0.1499 -0.0976
18624W        W61536  19.181  33.934   1.714 -0.0652 -0.1511  0.0443
18625W        W61537  20.068  33.454   4.011  0.1211 -0.1054  0.0600
18626W        W61538  22.299  34.356   1.685  0.2131  0.1847  0.1196
18627W        W61539  20.090   1.055   2.340 -0.1733  0.0811  0.1076
18628W        W61540  23.115  33.281   1.925  0.0138 -0.1700 -0.0678
18629W        W61541  19.684   0.570   4.119 -0.0224  0.2193 -0.2073
18630W        W61542  18.373  34.126   3.348  0.2926  0.1209  0.0995
18631W        W61543  19.291  32.493   1.285  0.1881 -0.2279  0.2048
18632W        W61544  18.748  32.617  31.862  0.1587 -0.0173 -0.0707
18633W        W61545  21.255  32.950   1.311 -0.0132  0.0769  0.0347
18634W        W61546  21.649  33.865   3.306 -0.0373 -0.3184  0.0624
18635W        W61547  21.806  33.428   2.088  0.0861 -0.2377  0.3626
18636W        W61548  18.904  34.585   2.429 -0.0405  0.0788  0.1817
18637W        W61549  19.169  34.305  31.638 -0.1597 -0.0188 -0.4345
18638W        W61550  20.441   0.724   2.530 -0.3015  0.0770 -0.1182
18639W        W61551  21.022  33.573   3.897  0.1127  0.2141 -0.1494
18640W        W61552  18.506  34.290   2.416  0.0971  0.3037  0.2075
18641W        W61553  18.968   1.224   2.133 -0.0725  0.1969  0.0391
18642W        W61554  21.885  32.850   2.282  0.0192 -0.1588 -0.1388
18643W        W61555  20.957   0.432   2.567  0.1017 -0.0765  0.2815
18644W        W61556  18.850  34.460   1.414  0.0004  0.0312 -0.0388
18645W        W61557  23.748  33.942   0.055  0.1029 -0.0263  0.2250
18646W        W61558  20.601  33.244   3.027 -0.1191  0.1417 -0.1831
18647W        W61559  21.127  33.666   3.208  0.0031 -0.0804 -0.1235
18648W        W61560  19.820   0.179   2.559  0.1574  0.1322  0.2207
18649W        W61561  21.681  33.714   1.688 -0.1406 -0.1342  0.3134
18650W        W61562  19.464  34.030   2.971  0.1014  0.2298  0.0349
18651W        W61563  20.805  34.083   1.357  0.0911 -0.1594 -0.1511
18652W        W61564  22.035  33.794   2.959  0.1160 -0.0321 -0.2506
18653W        W61565  20.399  33.660  31.727  0.0692  0.0367  0.3431
18654W        W61566  19.623  32.738   1.885 -0.1109 -0.0455 -0.0398
18655W        W61567  21.774  32.664   1.838  0.2984 -0.2726 -0.3764
18656W        W61568  18.219  34.291   2.004 -0.0073 -0.1230  0.1662
18657W        W61569  20.090   0.475   2.841 -0.0525  0.1801 -0.0093
18658W        W61570  17.685  32.641   2.201 -0.1918 -0.0493  0.1011
18659W        W61571  21.736   1.158   1.663 -0.4567 -0.3523  0.0128
18660W        W61572  20.919   1.012   1.109  0.2500  0.0810  0.0282
18661W        W61573  20.121  33.168   3.064 -0.0691  0.1793 -0.2248
18662W        W61574  20.848  33.234   1.226 -0.0921  0.2193  0.0131
18663W        W61575  20.409   0.918   0.873  0.1229  0.0046 -0.1288
18664W        W61576  19.840  34.374   1.598 -0.0005  0.1788 -0.0441
18665W        W61577  19.521  34.089   2.447  0.0171 -0.0849 -0.1777
18666W        W61578  21.847  32.545   3.749 -0.0021  0.0588 -0.3223
18667W        W61579  19.031   0.181   1.303 -0.2030 -0.2500 -0.1407
18668W        W61580  19.894  34.409   0.153 -0.2166  0.0546 -0.0565
18669W        W61581  22.502   0.141   1.748 -0.2068  0.1168 -0.0661
18670W        W61582  22.087  33.310   0.829 -0.1972  0.2891 -0.0833
18671W        W61583  19.257   1.251   2.575  0.2378 -0.1888  0.0109
18672W        W61584  19.433  33.669   0.946  0.1681  0.2323 -0.2506
18673W        W61585  21.411  32.698   4.970 -0.1608 -0.0104 -0.0288
18674W        W61586  19.033  34.081   2.256 -0.4916  0.0733  0.0236
18675W        W61587  17.542   0.462   2.083  0.0758  0.2651 -0.1306
18676W        W61588  18.270  34.585   1.356 -0.3901 -0.0410  0.0048
18677W        W61589  20.255  33.632   2.745  0.0348 -0.1787 -0.0589
18678W        W61590  19.185  33.013   2.066  0.2554 -0.2632  0.0600
18679W        W61591  20.002  33.679   1.162 -0.1195 -0.2516 -0.1126
18680W        W61592  19.873   0.879   3.270  0.0293  0.1307  0.1277
18681W        W61593  19.933  32.426   2.384  0.0422  0.1758  0.0386
18682W        W61594  17.424  32.275  31.135  0.0522 -0.0761 -0.1201
18683W        W61595  20.182  34.650   2.912  0.1615  0.0931  0.0722
18684W        W61596  19.534  32.794   3.220  0.1310 -0.1488  0.1098
18685W        W61597  21.786  34.530   2.157 -0.0435 -0.0014 -0.1523
18686W        W61598  21.025  34.262   0.949  0.1348  0.0271 -0.2259
18687W        W61599  20.565  32.689   3.906  0.0761 -0.1251  0.2451
18688W        W61600  19.335  33.366   0.506 -0.1893 -0.0265  0.1404
18689W        W61601  20.644  32.457   1.604  0.3582  0.1047  0.0881
18690W        W61602  20.160   0.802   3.818  0.0474 -0.0980 -0.1665
18691W        W61603  19.808   0.814   1.057 -0.1699 -0.2516 -0.1825
18692W        W61604  20.877   0.730   2.048  0.2401 -0.2628 -0.0747
18693W        W61605  19.543   1.218   1.184  0.0629  0.0862 -0.1154
18694W        W61606  21.776   1.642   1.383  0.1088  0.3481 -0.1924
18695W        W61607  19.765  31.255   3.908 -0.0078  0.1555  0.1722
18696W        W61608  19.442   0.576   1.284  0.0418  0.0830  0.1822
18697W        W61609  18.893   0.478   0.838  0.4048 -0.4692 -0.2352
18698W        W61610  20.936  34.504   1.647  0.0633 -0.3110 -0.0311
18699W        W61611  18.054  33.505   1.321 -0.2774 -0.2553 -0.2432
18700W        W61612  20.636  32.964   1.594  0.0093 -0.1626 -0.0546
18701W        W61613  18.621  32.773   4.585 -0.1314 -0.2038  0.1122
18702W        W61614  20.539  34.491   5.120  0.3302  0.1386  0.2592
18703W        W61615  21.055   0.752   4.940  0.0001 -0.0759 -0.1298
18704W        W61616  18.321  33.436   4.796 -0.1483 -0.0290  0.2607
18705W        W61617  20.092  32.554   5.855  0.0804  0.3115  0.0797
18706W        W61618  21.003   0.748   3.311 -0.3221  0.2244 -0.1830
18707W        W61619  20.163  33.727   7.955  0.0093 -0.1561  0.0531
18708W        W61620  19.954  32.018   4.921 -0.0010  0.3189 -0.0147
18709W        W61621  19.186  33.039   7.213 -0.1026  0.1601 -0.0280
18710W        W61622  19.974  34.419   6.675  0.2112 -0.0900  0.1544
18711W        W61623  18.195  34.225   5.213 -0.3610 -0.1588 -0.1655
18712W        W61624  21.052  34.246   6.393  0.0734  0.0963 -0.1853
18713W        W61625  19.917   0.220   4.520 -0.0932  0.1322  0.0241
18714W        W61626  20.929  32.942   7.249 -0.2104 -0.0137  0.0219
18715W        W61627  20.202  32.913   6.814 -0.0275 -0.0820  0.2276
18716W        W61628  18.647   0.906   4.658  0.0055  0.0620 -0.1810
18717W        W61629  18.423  32.960   6.336 -0.1174 -0.2329  0.1312
18718W        W61630  19.290  32.769   6.730  0.0983 -0.1051 -0.0422
18719W        W61631  21.238  34.107   5.108 -0.1983 -0.2127  0.0607
18720W        W61632  20.700  32.464   5.319 -0.0330 -0.0772 -0.0841
18721W        W61633  20.366  34.494   7.112  0.3186  0.0682  0.1316
18722W        W61634  19.413  33.301   6.208  0.3031  0.2236  0.2886
18723W        W61635  19.786   0.326   5.023 -0.0730  0.2913 -0.2383
18724W        W61636  21.917  32.704   6.331  0.3004 -0.0718 -0.1040
18725W        W61637  20.101   0.746   4.808 -0.0327  0.0118 -0.4084
18726W        W61638  20.301  33.522   3.398 -0.0685 -0.4555 -0.3139
18727W        W61639  21.329  34.414   3.911 -0.0318 -0.1986 -0.1767
18728W        W61640  20.356  32.859   5.241  0.1365 -0.1126  0.5423
18729W        W61641  19.796  33.855   6.877 -0.1931  0.0015  0.0780
18730W        W61642  20.594  34.248   4.496 -0.0004  0.0421  0.0455
18731W        W61643  21.293  33.957   5.964 -0.0938 -0.3546  0.2187
18732W        W61644  19.986   1.274   5.325 -0.2965  0.0702 -0.0602
18733W        W61645  17.738  33.333   4.819 -0.1533 -0.0431 -0.0315
18734W        W61646  18.134   0.021   8.802  0.2373 -0.0532 -0.0129
18735W        W61647  18.891  33.360   6.382 -0.1665 -0.1079 -0.0198
18736W        W61648  19.593  33.576   3.851  0.1477  0.2493  0.0589
18737W        W61649  21.310  33.183   4.988 -0.3192  0.0644 -0.1751
18738W        W61650  23.215  33.065   4.022 -0.1044  0.1386  0.2643
18739W        W61651  21.726  32.264   6.189  0.1259 -0.0486 -0.0979
18740W        W61652  20.998  34.415   3.469  0.1455 -0.0556 -0.0836
18741W        W61653  20.461  32.878   7.271  0.1667 -0.3117  0.1201
18742W        W61654  17.467  34.271   7.088  0.3351  0.1813 -0.0434
18743W        W61655  22.303  31.989   6.057 -0.0171  0.1689  0.2295
18744W        W61656  20.004  32.209   6.617  0.1231 -0.1113 -0.1205
18745W        W61657  22.905  32.405   4.927 -0.3578  0.0088  0.4074
18746W        W61658  20.851   0.765   4.231 -0.0686  0.0459  0.0554
18747W        W61659  18.757  32.730   7.183  0.2104 -0.0638  0.0397
18748W        W61660  19.323  33.706   5.809  0.1063 -0.0240  0.0719
18749W        W61661  19.272  33.274   6.691  0.2408  0.1156  0.4659
18750W        W61662  18.556  33.018   5.841 -0.0649  0.1144  0.1280
18751W        W61663  22.648  33.348   5.888 -0.0757  0.0329 -0.2904
18752W        W61664  18.939  32.258   4.640  0.1994 -0.1331 -0.1159
18753W        W61665  21.435  34.355   5.677 -0.1359  0.2169 -0.1199
18754W        W61666  19.348   0.230   4.782 -0.0993 -0.2104  0.0835
18755W        W61667  21.752  34.079   6.870  0.0100 -0.0023 -0.0398
18756W        W61668  20.308  33.530   6.742 -0.0141 -0.0146  0.0456
18757W        W61669  18.894  34.300   4.152  0.1787  0.1288 -0.2013
18758W        W61670  20.373  34.524   5.822  0.2387  0.3271  0.3183
18759W        W61671  21.963  32.673   7.210  0.1214 -0.3765 -0.3321
18760W        W61672  21.320   0.596   4.233  0.1535  0.2050  0.0913
18761W        W61673  18.765  32.943   3.756 -0.0922  0.1963 -0.4253
18762W        W61674  18.529   1.491   5.347 -0.1849 -0.1939 -0.5355
18763W        W61675  22.799  34.450   5.525 -0.0337 -0.1579  0.1564
18764W        W61676  18.349  33.892   6.742 -0.2250 -0.1603 -0.3300
18765W        W61677  20.811  34.180   7.428  0.0312 -0.1691  0.1017
18766W        W61678  19.590  34.059   3.482 -0.3237 -0.1386  0.0316
18767W        W61679  20.269  32.298   5.202 -0.2306 -0.0052  0.2121
18768W        W61680  20.977  32.170   4.688  0.1421  0.1344  0.3517
18769W        W61681  20.285  33.986   4.737  0.1423  0.0433  0.1753
18770W        W61682  20.824  33.610   4.698  0.0551  0.0878  0.0771
18771W        W61683  20.272  34.150   5.396  0.1453  0.1857  0.1378
18772W        W61684  21.164  32.427   6.898  0.0532  0.2008  0.0503
18773W        W61685  19.720  34.696   3.685 -0.0011  0.2536 -0.1725
18774W        W61686  21.129  33.295   5.416 -0.4069 -0.1409  0.1174
18775W        W61687  20.958  34.119   8.473  0.1496  0.0481  0.1186
18776W        W61688  22.040  33.087   5.116 -0.0162 -0.0152 -0.2497
18777W        W61689  20.451  31.239   7.052  0.2804 -0.2058  0.0178
18778W        W61690  21.163  33.861   7.576 -0.1078 -0.0494 -0.1431
18779W        W61691  21.184  33.658   4.976  0.0652 -0.0401 -0.0775
18780W        W61692  21.352  32.537   6.467  0.1023  0.3003 -0.1446
18781W        W61693  19.210  34.223   4.549 -0.1671 -0.0342  0.0466
18782W        W61694  20.640  33.752   7.785  0.0526  0.0403 -0.2722
18783W        W61695  20.879  33.194   7.757 -0.1024 -0.0141 -0.0792
18784W        W61696  19.999  31.865   5.457 -0.1862 -0.0639  0.0099
18785W        W61697  20.645  32.709   6.437  0.0046 -0.0760 -0.0649
18786W        W61698  21.388  33.226   7.298  0.1325 -0.4228  0.0860
18787W        W61699  19.474  33.788   4.681  0.3083  0.1127 -0.1307
18788W        W61700  18.605  34.186   5.861  0.1109  0.0553 -0.0905
18789W        W61701  21.274  33.958   3.665 -0.4710 -0.2469 -0.0745
18790W        W61702  19.633  32.978   3.974 -0.0569 -0.2175  0.0662
18791W        W61703  20.920  32.887   5.239 -0.1773 -0.1084 -0.0462
18792W        W61704  20.661   0.110   6.169 -0.1614 -0.0734  0.1843
18793W        W61705  20.164  33.075   5.787  0.0657  0.0687  0.1877
18794W        W61706  19.429   0.273   7.205 -0.0812  0.1146  0.0788
18795W        W61707  18.165  34.190   2.797 -0.1744  0.0565  0.1021
18796W        W61708  22.036  33.151   6.615  0.0335 -0.2246 -0.1174
18797W        W61709  20.184  34.026   5.966 -0.2397  0.3086  0.1727
18798W        W61710  19.278   0.046   3.480 -0.0485 -0.0329 -0.0740
18799W        W61711  19.809  32.333   6.181 -0.1420  0.2343 -0.1498
18800W        W61712  20.383  33.511   6.208  0.1433 -0.0754  0.0357
18801W        W61713  19.066  34.139   5.043 -0.1051 -0.0876  0.0840
18802W        W61714  20.426  33.792   7.189 -0.0426 -0.1935 -0.0580
18803W        W61715  19.440  33.541   7.214 -0.3224  0.0862 -0.1437
18804W        W61716  21.577  31.273   5.913 -0.3163  0.2615 -0.1421
18805W        W61717  20.315  34.120   6.801  0.2043  0.0512  0.1743
18806W        W61718  20.660  33.006   6.020  0.0902 -0.0716  0.1734
18807W        W61719  20.820  32.506   4.381 -0.0162 -0.5232 -0.3128
18808W        W61720  20.330  33.218   7.641  0.3657 -0.1109  0.2558
18809W        W61721  22.443  33.122   6.947  0.0470 -0.1821 -0.0478
18810W        W61722  20.793   0.359   5.089  0.0082  0.0233 -0.2982
18811W        W61723  20.376  33.080   9.118  0.2764  0.3475 -0.3474
18812W        W61724  19.743  32.918   6.517  0.3482  0.2132 -0.1010
18813W        W61725  19.093  31.810   6.618  0.0168  0.0104 -0.0395
18814W        W61726  19.411  34.436   8.473 -0.0257 -0.0998 -0.0103
18815W        W61727  21.452  32.908   5.422  0.0812 -0.0736 -0.0575
18816W        W61728  20.325  32.479   4.366 -0.3272 -0.2397  0.0868
18817W        W61729  20.409   1.058   6.133  0.2166  0.3490  0.0678
18818W        W61730  20.865  33.728   5.451  0.1565 -0.0874 -0.1398
18819W        W61731  20.045  34.552   7.540 -0.1474 -0.1850 -0.0811
18820W        W61732  21.905  34.397   5.014 -0.0602 -0.2603 -0.3624
18821W        W61733  21.178  32.577   7.593 -0.0662 -0.0099  0.0336
18822W        W61734  20.885  32.207   6.562 -0.0840 -0.0115 -0.0990
18823W        W61735  21.820  32.948   5.798 -0.1786 -0.1539  0.1368
18824W        W61736  21.375  33.308   8.214 -0.1368 -0.1872  0.0055
18825W        W61737  20.052   0.696   6.016  0.0697  0.1505 -0.2546
18826W        W61738  19.485  32.324   7.906  0.0066  0.3106 -0.1468
18827W        W61739  20.738   0.273   3.706  0.3709 -0.2153 -0.0156
18828W        W61740  21.979  33.710   6.563 -0.0861 -0.0705  0.0288
18829W        W61741  21.838  34.157   4.083  0.0801 -0.4203 -0.1759
18830W        W61742  19.917  33.167   4.383  0.0972 -0.0054 -0.1116
18831W        W61743  18.881  33.272   5.539 -0.1360 -0.1310  0.1886
18832W        W61744  20.481  34.620   6.653  0.2044  0.2522  0.2765
18833W        W61745  20.403  31.682   2.782 -0.0496 -0.0896  0.2116
18834W        W61746  20.569  34.595   7.532 -0.2584  0.0557 -0.2232
18835W        W61747  21.429  34.611   5.175  0.0435 -0.0149  0.1486
18836W        W61748  17.816   0.477   5.724 -0.1079 -0.1619 -0.2403
18837W        W61749  18.632  33.708   4.532 -0.0943 -0.3083 -0.0245
18838W        W61750  19.814  33.592   4.949 -0.0700  0.1895 -0.2203
18839W        W61751  20.271  33.169   4.845  0.0621  0.1421  0.1437
18840W        W61752  21.282  33.909   6.825  0.0788 -0.0941 -0.2956
18841W        W61753  21.603  33.457   6.733 -0.1281 -0.0184  0.1107
18842W        W61754  21.626  33.450   6.239 -0.0582  0.0572  0.2808
18843W        W61755  20.784  34.060   4.988  0.3637 -0.0447  0.0366
18844W        W61756  20.653  33.253   5.520 -0.5257  0.0742 -0.2278
18845W        W61757  21.413  34.494   6.187  0.2082 -0.0279  0.1857
18846W        W61758  19.853  34.109   5.040  0.1399  0.1589  0.3489
18847W        W61759  17.925  33.565   6.000 -0.3234 -0.2150  0.1182
18848W        W61760  20.273  33.069   6.352  0.0659 -0.0551 -0.0766
18849W        W61761  19.892  33.684   4.478 -0.1480 -0.1452 -0.0615
18850W        W61762  22.178  32.576   4.130 -0.0599 -0.3232  0.0750
18851W        W61763  21.678  33.897   4.612 -0.0330  0.1449  0.1620
18852W        W61764  22.263  33.118   5.590 -0.1983  0.0532  0.4041
18853W        W61765  19.765  34.587   5.876  0.1088  0.1465  0.0422
18854W        W61766  20.365  33.648   5.621 -0.2861  0.1277  0.0124
18855W        W61767  19.958  33.669   7.446 -0.0208  0.0081 -0.0436
18856W        W61768  23.153  32.455   7.262 -0.0606  0.1658  0.1147
18857W        W61769  20.130  33.294   5.292  0.2448 -0.2394 -0.1310
18858W        W61770  19.692   0.385   5.630 -0.0279  0.2818  0.0715
18859W        W61771  22.358  33.959   6.200 -0.1522  0.0973 -0.2045
18860W        W61772  19.945  33.812   5.414  0.1334  0.0189 -0.1629
18861W        W61773  19.928  33.787   3.202 -0.0860  0.1912 -0.2576
18862W        W61774  22.408  34.381   4.964  0.1239  0.2825 -0.1281
18863W        W61775  18.635  31.961   6.113 -0.1618  0.3264 -0.0439
18864W        W61776  23.759  31.652   5.793  0.1670  0.3026 -0.0317
18865W        W61777  19.565  34.242   5.451  0.1294 -0.3131 -0.1609
18866W        W61778  22.659  32.877   5.718  0.0112 -0.0879 -0.2823
18867W        W61779  19.310  33.770   6.787 -0.0024 -0.0975  0.4416
18868W        W61780  20.276   0.314   4.988 -0.1373 -0.1412 -0.0075
18869W        W61781  21.861  34.632   5.693  0.1084 -0.0521 -0.0769
18870W        W61782  20.283  34.324   3.804  0.2325 -0.0349 -0.0318
18871W        W61783  19.130  33.395   4.629  0.0880  0.2619 -0.0286
18872W        W61784  20.744  33.246   4.985 -0.0952 -0.2607 -0.0427
18873W        W61785  19.543  33.381   5.369 -0.3264  0.0681  0.2949
18874W        W61786  20.777  33.214   6.461  0.1674  0.1179  0.0330
18875W        W61787  19.544  32.273   4.791  0.1016 -0.2217 -0.1128
18876W        W61788  21.090   0.252   4.586 -0.1009 -0.0961  0.0434
18877W        W61789  21.027   0.657   5.668 -0.0633 -0.1318 -0.1258
18878W        W61790  18.173  32.494   5.305  0.2474  0.1550 -0.2072
18879W        W61791  22.041  32.178   5.145 -0.0206  0.1207 -0.0216
18880W        W61792  19.385  33.022   5.746  0.1437  0.0298 -0.3820
18881W        W61793  21.794  33.413   5.498  0.1481 -0.0599 -0.1097
18882W        W61794  21.620  34.007   6.351 -0.0767  0.0162 -0.0672
18883W        W61795  22.890  32.459   6.790  0.2872 -0.0045  0.1180
18884W        W61796  20.666  33.990   5.833  0.0172 -0.1388  0.2484
18885W        W61797  19.845  33.473   5.768 -0.1284  0.2523  0.3500
18886W        W61798  22.416  33.001   4.247  0.0384  0.0313 -0.1298
18887W        W61799  21.545  32.227   4.759  0.2534 -0.1385  0.0802
18888W        W61800  20.562  33.251   8.118  0.1422 -0.2289  0.2909
18889W        W61801  19.667  33.093   4.823  0.2635  0.1770  0.3583
18890W        W61802  20.644  31.929   7.344 -0.0924 -0.0541  0.1168
18891W        W61803  18.115  33.659   7.576  0.0749  0.1220 -0.0472
18892W        W61804  20.104   1.427   5.897  0.0226  0.0029 -0.3062
18893W        W61805  18.979  33.638   4.221  0.2925  0.5133 -0.0213
18894W        W61806  20.726  33.895   6.310  0.1457 -0.2519 -0.1345
18895W        W61807  19.504  32.634   5.128  0.1809 -0.2328  0.0894
18896W        W61808  21.522  33.834   5.534  0.1144  0.1966 -0.0319
18897W        W61809  21.621  33.775   9.058 -0.3148 -0.2828  0.0313
18898W        W61810  18.957  33.503   7.202 -0.3311 -0.2470  0.0554
18899W        W61811  19.134  33.085   4.039 -0.0365 -0.0864 -0.2037
18900W        W61812  20.745  33.699   6.803  0.0019  0.2650  0.3076
18901W        W61813  19.914  33.389   6.301  0.0134 -0.0679 -0.1063
18902W        W61814  23.043  33.198   6.309 -0.0291  0.1392 -0.1980
18903W        W61815  19.464  34.502   4.932 -0.2492 -0.0540 -0.0572
18904W        W61816  19.623  32.694   7.086 -0.2314  0.3558 -0.0906
18905W        W61817  19.494  33.414   4.294 -0.2384  0.1880  0.3615
18906W        W61818  20.958  33.472   5.949 -0.0957 -0.1682  0.0289
18907W        W61819  18.691  34.115   7.093 -0.1460  0.1638  0.0401
18908W        W61820  19.023  33.831   2.704 -0.0997  0.2780 -0.1699
18909W        W61821  19.794  34.073   7.740  0.1884 -0.0002 -0.1286
18910W        W61822  20.421  33.644   5.083 -0.1363 -0.4101  0.1224
18911W        W61823  21.736   1.885   4.042 -0.1561  0.1810 -0.2651
18912W        W61824  19.703  34.032   5.851  0.0742  0.1987 -0.3778
18913W        W61825  19.534  34.627   4.460  0.1685  0.1264 -0.4590
18914W        W61826  19.479   1.839   4.592  0.2650  0.0947  0.0261
18915W        W61827  21.894  33.870   5.872 -0.0315  0.3383  0.1139
18916W        W61828  19.139  32.954   5.243  0.1102 -0.1305  0.1756
18917W        W61829  20.451  32.130   4.736 -0.0631  0.1040  0.0707
18918W        W61830  20.356  34.097   8.283 -0.1917 -0.0556 -0.0314
18919W        W61831  21.559  32.431   7.381 -0.3976  0.0457  0.0319
18920W        W61832  21.158  34.515   7.615 -0.0786 -0.2398 -0.0174
18921W        W61833  20.405  33.028   8.624  0.1346 -0.0166  0.1728
18922W        W61834  20.972  33.678   8.196 -0.1026 -0.2877 -0.2260
18923W        W61835  18.197  32.978   9.232  0.0574 -0.0780  0.2558
18924W        W61836  18.372  31.154   9.106 -0.1815 -0.1676 -0.2800
18925W        W61837  18.887  32.371   9.157 -0.4684  0.3100  0.1657
18926W        W61838  18.514  33.146   7.388  0.2485  0.1475  0.1577
18927W        W61839  21.562  33.138   8.716  0.0295  0.1656 -0.0473
18928W        W61840  20.421  31.962   8.834  0.2717 -0.0508 -0.1305
18929W        W61841  18.834  32.368  10.073  0.1414 -0.1567 -0.1607
18930W        W61842  20.170  33.308   7.170 -0.0591 -0.1992 -0.4139
18931W        W61843  17.714  33.818   9.040  0.1147  0.0960 -0.2719
18932W        W61844  17.838  34.390  10.115  0.1971 -0.1857 -0.4794
18933W        W61845  21.827  31.957   7.525  0.0734  0.2120  0.5057
18934W        W61846  22.079  33.140   8.534  0.1382  0.0760 -0.0245
18935W        W61847  20.176  33.786   9.662 -0.0832  0.0336 -0.0698
18936W        W61848  20.147  34.615   8.500  0.3782 -0.0108 -0.0560
18937W        W61849  21.026  34.600   8.773  0.2160  0.2113  0.1690
18938W        W61850  20.086  32.802   7.641 -0.1435 -0.0817 -0.0070
18939W        W61851  22.014  32.417   7.667 -0.1162 -0.1013  0.3562
18940W        W61852  20.550  32.579   8.956 -0.1950  0.1479  0.1187
18941W        W61853  18.732   0.877  10.319  0.2791 -0.0109 -0.1487
18942W        W61854  19.537  33.340   8.436 -0.0543 -0.1314 -0.1913
18943W        W61855  21.016  33.638   9.281 -0.0404  0.4394  0.1246
18944W        W61856  19.161  33.333   8.991 -0.2255 -0.2459 -0.0064
18945W        W61857  20.109  33.452   8.866  0.2122  0.1385 -0.1441
18946W        W61858  20.300  31.096   7.617  0.3000  0.0335  0.4650
18947W        W61859  24.116  33.257   8.835 -0.4874 -0.0233 -0.1746
18948W        W61860  21.040  32.462   9.240 -0.0195 -0.4184 -0.0767
18949W        W61861  21.343  32.083   9.394  0.0392  0.2644  0.1343
18950W        W61862  21.977  34.455   7.136  0.1070  0.1284 -0.2494
18951W        W61863  18.112  33.561   9.107 -0.1482  0.1588 -0.1199
18952W        W61864  22.483  33.663   6.548  0.0042  0.0128  0.1750
18953W        W61865  21.632  31.834   9.041  0.0381 -0.0471  0.2797
18954W        W61866  20.711  32.209   8.531 -0.2246 -0.0339 -0.0567
18955W        W61867  19.588  32.016   9.930 -0.0589 -0.2660 -0.3371
18956W        W61868  18.378  33.387   7.862  0.0488 -0.4469  0.1693
18957W        W61869  19.022  32.618   8.671 -0.3175  0.1421 -0.1830
18958W        W61870  19.338  33.229   7.774  0.2812  0.0525 -0.0449
18959W        W61871  21.824  33.023   7.628 -0.1033  0.1554  0.2696
18960W        W61872  19.945  33.775   9.241 -0.1262 -0.3075 -0.0488
18961W        W61873  19.300  33.077  10.059  0.2545  0.1579 -0.1696
18962W        W61874  19.206  34.040   7.346  0.3090  0.0934  0.0650
18963W        W61875  19.676  33.089   7.425 -0.0157 -0.0024  0.0658
18964W        W61876  22.580  34.630   8.347  0.1202 -0.1044  0.1888
18965W        W61877  19.737  31.202   7.625 -0.0417  0.0224 -0.1464
18966W        W61878  19.448   1.372   9.883 -0.2655  0.2146 -0.2450
18967W        W61879  21.135  33.545   9.711 -0.0855  0.0567 -0.0709
18968W        W61880  20.348  34.181   9.388  0.0477  0.2282  0.0313
18969W        W61881  21.627  32.687   8.497  0.1860  0.0735  0.0217
18970W        W61882  21.395  31.959   8.313  0.0508 -0.2232  0.0557
18971W        W61883  21.194  32.820   8.285  0.0530  0.2090 -0.1864
18972W        W61884  21.588  32.614   7.957 -0.0202 -0.2259 -0.0897
18973W        W61885  19.965  32.068   7.839  0.2820  0.2429 -0.2001
18974W        W61886  19.760  33.553   9.752  0.1400 -0.0858 -0.0675
18975W        W61887  21.313  32.989   7.791 -0.0421  0.3751 -0.0769
18976W        W61888  20.120  32.650   9.348 -0.0197  0.1246 -0.1969
18977W        W61889  21.441  32.841  10.014  0.1092 -0.2739  0.0385
18978W        W61890  20.865  32.959   9.056  0.0498 -0.0116  0.1005
18979W        W61891  22.269  33.302   7.955 -0.0174 -0.0036 -0.2578
18980W        W61892  21.290   0.043   9.220 -0.2233 -0.1552  0.4803
18981W        W61893  20.255  32.885   8.092  0.0718  0.1845  0.0446
18982W        W61894  19.783  34.386  10.305 -0.3477  0.1902 -0.1931
18983W        W61895  19.646  31.111   9.410  0.0712 -0.2043  0.0197
18984W        W61896  19.786  32.407   9.713  0.0254  0.1383  0.1808
18985W        W61897  22.148  32.051   9.107  0.5848 -0.0808 -0.1000
18986W        W61898  20.620  33.171   6.932 -0.2356 -0.1909 -0.1190
18987W        W61899  18.930  33.094   8.631  0.2810 -0.3610 -0.0752
18988W        W61900  21.783  32.200   8.492 -0.1893 -0.0766 -0.1930
18989W        W61901  18.924  33.296   9.639 -0.1330 -0.0210 -0.1647
18990W        W61902  20.411  32.965  10.189  0.1361 -0.0396  0.0288
18991W        W61903  21.592  33.499   7.800 -0.1598  0.0623 -0.0927
18992W        W61904  19.198  32.441   7.111  0.0327  0.3012  0.2901
18993W        W61905  24.126   0.058  10.018  0.1258 -0.0338 -0.1192
18994W        W61906  20.563  33.415   9.958  0.1623 -0.3078 -0.0963
18995W        W61907  19.895  33.008   8.668  0.0237  0.0451  0.2808
18996W        W61908  21.836   0.027   9.186  0.2953 -0.0552  0.2150
18997W        W61909  20.245  33.108   9.586  0.0595 -0.2911 -0.3461
18998W        W61910  19.328  32.476  10.056 -0.0839 -0.0298 -0.1683
18999W        W61911  19.307  34.272   9.711 -0.0892 -0.4252 -0.2822
19000W        W61912  19.937  33.848  10.151  0.2439 -0.3658  0.0599
19001W        W61913  19.921  32.771  10.235 -0.1953 -0.1851 -0.0262
19002W        W61914  21.603  33.531   9.497  0.2138 -0.2003 -0.3114
19003W        W61915  22.148  30.397   7.837 -0.0867 -0.0934  0.0328
19004W        W61916  22.460  33.459   8.735  0.1033 -0.1193 -0.1038
19005W        W61917  21.302  34.091   8.822 -0.1927  0.2039 -0.0596
19006W        W61918  19.375  33.252   9.548 -0.0712  0.0211 -0.6119
19007W        W61919  19.933  32.475   8.064 -0.1288 -0.2915  0.1933
19008W        W61920  19.231  31.860   9.190  0.0549  0.0114 -0.0150
19009W        W61921  18.569  33.604   9.404 -0.2061  0.0474  0.0489
19010W        W61922  22.644  33.032   8.917  0.1216 -0.1254  0.1591
19011W        W61923  18.360   0.725   9.851  0.2353 -0.0771  0.0232
19012W        W61924  22.187  33.792   9.054 -0.0195 -0.1757 -0.3233
19013W        W61925  22.036  32.508   8.802  0.0089 -0.0953 -0.1644
19014W        W61926  21.628  33.660   7.206  0.4877  0.2214  0.2119
19015W        W61927  21.087  32.518   9.749 -0.1883  0.1599  0.0726
19016W        W61928  22.788  33.022   8.419  0.1242  0.0716  0.3586
19017W        W61929  21.178  33.550   8.693 -0.0312 -0.3848  0.4874
19018W        W61930  19.535  32.673   9.362  0.0580 -0.0435 -0.2716
19019W        W61931  19.780  33.431   7.932 -0.1987 -0.1184  0.1007
19020W        W61932  22.620  33.510   8.252 -0.2156  0.1971  0.1931
19021W        W61933  18.532  33.452   8.332  0.3574  0.1908 -0.2053
19022W        W61934  18.849  32.893   7.625  0.3277 -0.1497  0.2085
19023W        W61935  20.310  34.132   7.638 -0.3866 -0.2629  0.0239
19024W        W61936  20.379  31.792   9.640  0.0010 -0.0385 -0.0362
19025W        W61937  20.999  31.523   9.045 -0.3396 -0.1067  0.1346
19026W        W61938  20.706  33.401   8.913  0.0432 -0.2131  0.1525
19027W        W61939  22.475  33.219  10.142  0.0570  0.1100  0.1040
19028W        W61940  21.667  34.263   9.189 -0.0243  0.1308  0.1355
19029W        W61941  18.926   0.384   9.731 -0.0122 -0.2032  0.2189
19030W        W61942  19.936  31.917   9.604  0.1426  0.1773  0.2857
19031W        W61943  20.274  32.327   7.536 -0.1642 -0.1351 -0.2358
19032W        W61944  21.747  31.723   6.570  0.0781  0.3093  0.2005
19033W        W61945  22.105  34.017   7.262 -0.1637 -0.1381  0.1167
19034W        W61946  22.866  32.653   7.717 -0.2510 -0.2695  0.1932
19035W        W61947  20.202  34.220   9.982  0.2168  0.1610  0.1133
19036W        W61948  20.595  32.734   7.742 -0.1029  0.3276 -0.0839
19037W        W61949  19.454  34.072   8.918 -0.3736  0.3217  0.0342
19038W        W61950  19.781  34.089   9.645 -0.0523 -0.0858  0.1878
19039W        W61951  20.765  33.202   9.505 -0.0656 -0.0970 -0.3260
19040W        W61952  21.222  34.049   9.640 -0.2159  0.0966  0.0687
19041W        W61953  19.035  33.457   8.254  0.1053 -0.1168  0.1377
19042W        W61954  23.744  33.317   7.477  0.0158  0.2321  0.1996
19043W        W61955  18.625  32.794   9.555 -0.1999 -0.3850 -0.2043
19044W        W61956  19.380  33.787   9.361  0.0945 -0.1110 -0.1804
19045W        W61957  21.890  34.160   8.626  0.0511  0.1132  0.0676
19046W        W61958  18.696  33.120   9.156 -0.1709  0.0353 -0.0679
19047W        W61959  20.909  33.228   8.479 -0.0537 -0.0280 -0.1246
19048W        W61960  21.820  33.006   8.106 -0.2476  0.0248 -0.0516
19049W        W61961  19.639  32.026   8.747 -0.0687 -0.1952  0.0055
19050W        W61962  21.264  32.767   8.851 -0.0214 -0.1879  0.1434
19051W        W61963  19.706  34.617   9.780 -0.4057 -0.1669  0.0190
19052W        W61964  18.827   1.027   9.837  0.2354  0.0671 -0.2049
19053W        W61965  18.523  33.517   8.847 -0.2693  0.0208  0.2304
19054W        W61966  22.068  34.644   8.692 -0.0177  0.3172  0.0198
19055W        W61967  21.699  34.014   7.659  0.0536  0.2704 -0.0157
19056W        W61968  17.986  32.492   9.140 -0.0987  0.0303 -0.0532
19057W        W61969  21.547  32.368   8.976 -0.0374  0.1076 -0.2606
19058W        W61970  19.590  33.549   8.948 -0.1081  0.0799  0.0296
19059W        W61971  22.129  33.366   9.619  0.0291  0.3974 -0.0742
19060W        W61972  20.453  34.316   8.772  0.1352 -0.1489 -0.1317
19061W        W61973  20.013  33.309  10.067  0.0725 -0.0201  0.0183
19062W        W61974  22.515  31.911   8.809  0.4112  0.1768  0.1933
19063W        W61975  22.512  32.592   8.648 -0.1379 -0.0457  0.4605
19064W        W61976  19.413   0.177  10.106  0.0845 -0.1971 -0.1997
19065W        W61977  17.902  33.590   6.941 -0.0986  0.0628  0.1577
19066W        W61978  19.322  33.632   9.994 -0.2322  0.4030  0.0772
19067W        W61979  20.184  31.680   9.170 -0.3986 -0.0270  0.1149
19068W        W61980  19.035  33.381  10.363 -0.1077 -0.3444 -0.0658
19069W        W61981  19.082  32.842   9.096  0.1349 -0.1455  0.1330
19070W        W61982  19.733  32.937   9.734  0.0108 -0.0538  0.3782
19071W        W61983  18.275  32.789   7.818 -0.2564 -0.2427 -0.3804
19072W        W61984  19.292  32.286   9.584 -0.0470 -0.0469  0.2023
19073W        W61985  18.723  33.054  10.090 -0.0873  0.0234  0.2973
19074W        W61986  20.870  32.933   9.906  0.1767  0.3159  0.0898
19075W        W61987  21.863  33.995   8.171  0.0492 -0.2453 -0.1267
19076W        W61988  19.693  32.181   9.206 -0.0909  0.2487 -0.0339
19077W        W61989  20.355  32.587   8.447 -0.2738  0.4461 -0.0417
19078W        W61990  19.064  34.223   9.241  0.1982  0.1085 -0.1014
19079W        W61991  21.858  33.156   7.137  0.0394 -0.0539  0.3159
19080W        W61992  20.458  33.629   8.539 -0.0156 -0.3999  0.2300
19081W        W61993  22.528  34.565   6.778 -0.3713 -0.1757 -0.0870
19082W        W61994  18.360  32.417   9.457 -0.1818 -0.2164 -0.1453
19083W        W61995  19.369  34.265   7.886  0.0596 -0.2188 -0.1152
19084W        W61996  20.609  34.450   9.696  0.3123 -0.2863  0.1811
19085W        W61997  21.351  33.259   9.168  0.0425  0.1055  0.1660
19086W        W61998  18.442  34.077   8.931  0.0436  0.0420 -0.1961
19087W        W61999  21.012  32.442   8.096 -0.0315  0.1041  0.1047
19088W        W62000  23.481   1.679   3.958 -0.0398 -0.1930 -0.1240
19089W        W62001  23.319   0.177  31.883 -0.1923  0.2188 -0.0789
19090W        W62002  25.367   1.288   0.345 -0.2929  0.1590 -0.0995
19091W        W62003  26.517   1.601   0.111  0.3471 -0.1811  0.3397
19092W        W62004  20.455   1.240   2.643 -0.0470 -0.0784  0.1370
19093W        W62005  24.880   3.126   0.258  0.0323  0.3534 -0.2061
19094W        W62006  23.519   0.142   3.944  0.1848 -0.7440 -0.0111
19095W        W62007  25.237   1.592   2.354 -0.2270 -0.0067 -0.0599
19096W        W62008  26.520   2.357   2.271 -0.0597  0.1786  0.1505
19097W        W62009  24.965   2.207   0.164  0.0482  0.1576  0.0007
19098W        W62010  23.457   0.151   1.579 -0.0865  0.0250  0.0517
19099W        W62011  23.966   3.930   1.584 -0.0856  0.0647 -0.2964
19100W        W62012  24.786   0.073   1.147  0.0552  0.1053 -0.2868
19101W        W62013  22.224   1.328   1.833 -0.0446 -0.0738  0.0983
19102W        W62014  23.979   1.042   2.304  0.2833 -0.0344  0.0779
19103W        W62015  22.396   1.460   1.327 -0.0057  0.0276  0.0161
19104W        W62016  23.377   0.463   1.948  0.0332  0.0998  0.0751
19105W        W62017  25.465   0.506   1.675 -0.4248  0.1770  0.0042
19106W        W62018  23.644   3.494   1.678 -0.0920 -0.1536  0.0696
19107W        W62019  24.127   1.355   3.191 -0.0824  0.2004 -0.1865
19108W        W62020  24.044   0.083   3.880  0.1807 -0.1080 -0.1002
19109W        W62021  24.063   2.916   1.455  0.0762  0.0137  0.0489
19110W        W62022  23.178   3.120  31.137  0.0383  0.0460 -0.1688
19111W        W62023  20.795   1.670   3.468  0.0300 -0.0786  0.0205
19112W        W62024  22.990   1.457   2.783  0.1714  0.2032 -0.0725
19113W        W62025  24.652  34.604   2.857 -0.1861 -0.2505 -0.3473
19114W        W62026  25.754   0.681   2.501  0.1027 -0.0078 -0.2759
19115W        W62027  24.266   3.997   2.182  0.2082  0.1575 -0.0491
19116W        W62028  24.476   4.352   1.412 -0.0990  0.1748 -0.1441
19117W        W62029  23.895   0.456   3.492  0.0668 -0.1427  0.2169
19118W        W62030  21.183   1.344   2.832  0.0537  0.1400 -0.0107
19119W        W62031  21.041   4.462   0.468  0.0548 -0.1238  0.0688
19120W        W62032  24.948   5.483  31.486 -0.0896 -0.1935 -0.0685
19121W        W62033  25.795   1.339   0.602  0.2346 -0.0679 -0.1302
19122W        W62034  24.757   4.472   4.136 -0.3297  0.1624 -0.1769
19123W        W62035  23.118   3.771   2.599 -0.2570 -0.1039  0.0355
19124W        W62036  22.793   3.140  31.547  0.1192  0.1789  0.0839
19125W        W62037  23.484   4.523   4.285 -0.0551 -0.0800 -0.0921
19126W        W62038  23.016   3.140   2.118  0.0458 -0.0197 -0.0079
19127W        W62039  24.098   2.133   2.359  0.0163  0.0534 -0.1377
19128W        W62040  24.913   1.759   1.962 -0.0123 -0.3266  0.0913
19129W        W62041  22.159   3.077   0.219 -0.0291  0.3164 -0.3055
19130W        W62042  24.999   2.017   0.668 -0.0020 -0.0932 -0.0447
19131W        W62043  24.443   2.496   2.317  0.2653 -0.2893  0.2169
19132W        W62044  23.038   1.202   3.217 -0.1481 -0.1531  0.2105
19133W        W62045  25.846   0.522   4.299  0.1760  0.0730 -0.1230
19134W        W62046  22.751   3.182   0.091  0.1336  0.2923  0.1294
19135W        W62047  24.393   1.014  31.435 -0.1684  0.0355 -0.4114
19136W        W62048  23.763   1.851   0.512  0.2775  0.0852  0.3211
19137W        W62049  24.097   0.415   0.110 -0.0981  0.1054  0.3050
19138W        W62050  23.344  33.167   2.905 -0.1611 -0.0742  0.1914
19139W        W62051  23.132   2.799  31.615 -0.0176  0.0672  0.1381
19140W        W62052  22.162   0.916   2.580  0.1418  0.0214 -0.1202
19141W        W62053  26.919   3.372   3.455 -0.3021 -0.0103 -0.4447
19142W        W62054  23.892   1.865   2.019 -0.1556  0.2225 -0.1740
19143W        W62055  24.056   2.813   2.764 -0.1633 -0.0366  0.2762
19144W        W62056  25.091   3.629   3.586  0.2118  0.3445  0.1297
19145W        W62057  22.475   1.222   3.230 -0.1401 -0.1600 -0.2656
19146W        W62058  24.814   2.729   1.005 -0.3175 -0.0112  0.1238
19147W        W62059  25.933   2.960   1.791  0.1009 -0.0100 -0.0768
19148W        W62060  23.648   2.838   0.497 -0.2779  0.2628 -0.2583
19149W        W62061  22.161   2.570   0.159 -0.2018  0.1461  0.1955
19150W        W62062  22.765   3.125   3.209 -0.0034  0.1211  0.0657
19151W        W62063  23.012   2.605   2.286 -0.0482 -0.0334 -0.3429
19152W        W62064  23.492   1.677  31.704 -0.0175 -0.1346 -0.1200
19153W        W62065  25.510   2.500   3.008  0.1067  0.2088  0.0906
19154W        W62066  23.514   3.722   3.667 -0.2891 -0.0751  0.1868
19155W        W62067  25.041   0.509   1.375  0.1035  0.0552 -0.0521
19156W        W62068  24.715   3.370   3.142 -0.0208 -0.2029  0.1484
19157W        W62069  25.212   3.588   2.122 -0.0320  0.2001 -0.1877
19158W        W62070  24.808   1.153   0.718 -0.2502  0.1538  0.0806
19159W        W62071  24.689  34.521   2.282  0.2538 -0.0932 -0.1199
19160W        W62072  24.930   0.480   2.138 -0.0698 -0.0037 -0.0591
19161W        W62073  22.948   2.044   1.616 -0.1024 -0.0538 -0.1330
19162W        W62074  22.903   2.858   0.602  0.1720  0.2834  0.2161
19163W        W62075  25.401   5.260   2.816  0.1821 -0.0743 -0.2365
19164W        W62076  24.492   2.338  31.942 -0.0942  0.1793  0.1322
19165W        W62077  23.362   4.727   1.299  0.2516 -0.4173  0.1630
19166W        W62078  23.460   1.376   2.591 -0.3613 -0.0051  0.0336
19167W        W62079  24.535   3.346   3.643  0.0917  0.1731 -0.1214
19168W        W62080  21.841   3.796  30.169 -0.0358 -0.2443 -0.2596
19169W        W62081  21.988   3.870   1.111  0.1450  0.0692 -0.0805
19170W        W62082  20.788   1.644   0.407  0.0601  0.1738  0.0819
19171W        W62083  21.008   0.107   1.236  0.1110 -0.1390  0.1445
19172W        W62084  23.560   2.134   3.048  0.0631  0.2320 -0.0277
19173W        W62085  24.755   0.086  31.747 -0.1374 -0.0965  0.0110
19174W        W62086  20.759  34.394   3.063 -0.0923 -0.2402 -0.0816
19175W        W62087  25.100  34.697   2.513  0.2789 -0.0769  0.0484
19176W        W62088  23.388   1.916   1.977 -0.0771  0.1559 -0.2307
19177W        W62089  25.227   2.445   0.948 -0.2564  0.2657 -0.1185
19178W        W62090  26.580   1.582   1.023 -0.1072  0.2509  0.1035
19179W        W62091  24.705   2.429   0.606 -0.0807 -0.1207  0.2046
19180W        W62092  21.617   1.406   3.063  0.1973  0.3408  0.3762
19181W        W62093  23.505   1.103   0.378 -0.2544  0.0568  0.0317
19182W        W62094  23.944   1.023   3.527 -0.0168  0.0128 -0.0092
19183W        W62095  23.498   0.247   2.527  0.0221  0.2414 -0.1845
19184W        W62096  25.183   2.160   3.455 -0.2155 -0.0680  0.0332
19185W        W62097  21.815  34.447   0.938 -0.1399 -0.0923  0.2960
19186W        W62098  24.822   1.509   0.240  0.0787  0.0659 -0.2429
19187W        W62099  23.463   0.901   2.237 -0.0938  0.0362  0.2032
19188W        W62100  23.176   3.481   1.645 -0.1566 -0.3422 -0.0700
19189W        W62101  25.039   2.012   4.149 -0.0314 -0.2683 -0.0565
19190W        W62102  24.887   4.339   1.094 -0.1115 -0.3020 -0.0143
19191W        W62103  25.883   3.857   4.259  0.1555  0.0419  0.1096
19192W        W62104  25.574   3.180   1.509 -0.2814 -0.2819  0.0253
19193W        W62105  21.511   1.039   3.530 -0.3607  0.1722 -0.2152
19194W        W62106  22.766   1.246   2.013  0.2350 -0.0603  0.0384
19195W        W62107  22.933   5.438   1.886  0.2230  0.0724 -0.0696
19196W        W62108  23.796   3.833   3.199  0.0916 -0.0754  0.0301
19197W        W62109  24.149  34.493   2.550 -0.1338 -0.0270 -0.2379
19198W        W62110  24.781   3.179   0.772  0.0349  0.1799  0.0203
19199W        W62111  23.940   2.383  31.723 -0.2455  0.3742 -0.0248
19200W        W62112  22.845   2.270   2.615  0.1616  0.1181 -0.2324
19201W        W62113  23.947   1.140   2.762  0.0205  0.0843 -0.1898
19202W        W62114  24.446   2.934   3.172 -0.0701 -0.1159  0.0311
19203W        W62115  24.375   1.256   0.525 -0.2084  0.0220  0.0648
19204W        W62116  21.451  33.885   0.392  0.2713 -0.0440  0.0334
19205W        W62117  24.512   3.365   1.094 -0.0259  0.0193  0.1250
19206W        W62118  23.834   2.815  31.007  0.2136 -0.1523 -0.0975
19207W        W62119  22.014   1.910   1.785  0.3191  0.0333 -0.0502
19208W        W62120  24.413   2.352   2.897  0.1960  0.0846  0.3075
19209W        W62121  24.894   1.847   2.675 -0.0645  0.2230 -0.1241
19210W        W62122  21.872   2.505   2.944  0.2748  0.3456 -0.2181
19211W        W62123  24.678   3.051   4.023 -0.0930  0.2941  0.1076
19212W        W62124  22.889   1.612   1.186 -0.0562 -0.2135  0.0690
19213W        W62125  23.786   3.281   2.972  0.1351 -0.1267 -0.1509
19214W        W62126  24.710   0.313   2.515  0.0571  0.1744 -0.0601
19215W        W62127  23.780   0.217  31.105  0.2739 -0.1842  0.0646
19216W        W62128  24.142   3.637   2.500  0.0260  0.1643  0.0203
19217W        W62129  24.229   1.674   0.765  0.0705  0.0668  0.2636
19218W        W62130  23.461   2.160  31.645 -0.1213 -0.0092  0.0091
19219W        W62131  23.032   0.170   0.994 -0.2307  0.1896 -0.0253
19220W        W62132  23.276   2.227   2.374  0.2291 -0.4151 -0.4402
19221W        W62133  24.294   2.946   1.004 -0.1275  0.3700 -0.0065
19222W        W62134  24.491   1.014   3.301  0.2132  0.2198 -0.1370
19223W        W62135  25.635   2.050   0.080 -0.0311  0.1045  0.1897
19224W        W62136  25.632   2.696   0.764  0.0906 -0.0275  0.5240
19225W        W62137  22.440   3.688   0.990 -0.3811  0.2649  0.1649
19226W        W62138  23.820   1.703   3.377 -0.0356  0.0926  0.1854
19227W        W62139  24.866   3.049   1.378  0.2526 -0.2702  0.0495
19228W        W62140  24.088   1.219   1.011  0.1521 -0.3331 -0.1570
19229W        W62141  23.144   0.651   0.081 -0.2981  0.1526 -0.0382
19230W        W62142  24.243   0.391   1.648 -0.0700 -0.1515  0.0111
19231W        W62143  21.170   2.891  31.451 -0.2521  0.0802 -0.4381
19232W        W62144  25.847   0.682   1.957 -0.1361  0.0441 -0.0102
19233W        W62145  24.154   1.610   2.457  0.3474 -0.1465 -0.5032
19234W        W62146  24.248   1.993   3.346  0.4649 -0.0727  0.2560
19235W        W62147  26.153   3.420   4.454  0.1185 -0.2143 -0.0905
19236W        W62148  25.094   1.075  31.883 -0.1810  0.0102  0.3723
19237W        W62149  24.895   2.359   2.576 -0.0444 -0.3184  0.0633
19238W        W62150  23.240   1.284   0.056  0.1296  0.0221 -0.2231
19239W        W62151  25.424   3.254   2.480 -0.1537 -0.1789 -0.5588
19240W        W62152  23.693   2.327   2.164 -0.1717 -0.0059  0.0685
19241W        W62153  22.596   2.980   2.245 -0.1183 -0.1105 -0.0407
19242W        W62154  24.690   4.683   2.781  0.1120 -0.1326 -0.0359
19243W        W62155  24.792   1.811   1.462 -0.1966  0.0655 -0.2673
19244W        W62156  23.681   0.395   3.044 -0.0750  0.0348 -0.0677
19245W        W62157  23.403   1.730   1.019  0.1824  0.2020 -0.4922
19246W        W62158  24.207   2.921  31.420  0.1943  0.2416  0.4652
19247W        W62159  23.246   2.117   0.679  0.0552  0.1056  0.3704
19248W        W62160  23.671  34.018   3.135  0.0623 -0.0449  0.0206
19249W        W62161  24.259   2.469   1.834 -0.0051 -0.0015 -0.3907
19250W        W62162  22.709   2.673   0.193 -0.0562  0.0601  0.0550
19251W        W62163  26.962   1.741   2.798  0.0642 -0.2315  0.0694
19252W        W62164  23.383   3.326   1.223 -0.0273 -0.2709 -0.4092
19253W        W62165  25.977   0.403   2.880 -0.0509  0.2634  0.2661
19254W        W62166  22.031   3.324   0.640  0.0931  0.1467 -0.0055
19255W        W62167  23.410   1.952   0.118  0.0843  0.3349 -0.0143
19256W        W62168  20.787   1.595   0.918  0.0466  0.1252  0.0011
19257W        W62169  23.998   0.364   0.652 -0.0718 -0.0987  0.0900
19258W        W62170  25.845   1.775   1.089 -0.0830  0.0440  0.0734
19259W        W62171  20.923   1.768   2.995  0.1027 -0.3682 -0.0271
19260W        W62172  25.444   0.383   2.206  0.1715  0.1195  0.0030
19261W        W62173  22.200   2.460   1.108  0.0866  0.0551 -0.1537
19262W        W62174  24.581   3.498   2.360 -0.1394 -0.1806 -0.1342
19263W        W62175  24.374  34.612  31.936  0.4123 -0.0093 -0.0310
19264W        W62176  24.142   1.014   1.447 -0.1454 -0.0036  0.1917
19265W        W62177  22.348   2.171   2.759 -0.3273 -0.0749 -0.1607
19266W        W62178  22.166   1.295   0.018  0.2604 -0.0597 -0.2613
19267W        W62179  25.940   0.958   3.653 -0.4166 -0.0967 -0.3330
19268W        W62180  22.845   2.096   2.102 -0.1555  0.0941  0.1690
19269W        W62181  22.926   2.983   1.635 -0.2351 -0.2869 -0.0373
19270W        W62182  24.480   2.645   1.389  0.1968  0.2672 -0.1714
19271W        W62183  24.324   1.326   1.993  0.0859  0.1693 -0.4591
19272W        W62184  23.350   3.468   2.264  0.0299 -0.3019 -0.1755
19273W        W62185  23.206   1.229   3.959 -0.0113 -0.1090  0.0417
19274W        W62186  25.356   3.642   2.767 -0.2828  0.0548  0.0502
19275W        W62187  23.301   2.413   1.883  0.0972 -0.2268 -0.1035
19276W        W62188  24.201   0.627   2.543 -0.1381  0.0593  0.2518
19277W        W62189  23.347   0.959   1.754  0.0071 -0.0007  0.0034
19278W        W62190  24.320   3.497   1.952 -0.1656 -0.0515  0.0132
19279W        W62191  24.571   1.551   3.336  0.0145 -0.0750 -0.0765
19280W        W62192  22.351   2.007   3.261 -0.0466 -0.2104 -0.0794
19281W        W62193  23.103   0.028   3.550  0.0909  0.0963  0.3543
19282W        W62194  25.208   3.571   1.632  0.2538  0.0273  0.1197
19283W        W62195  26.440   2.127   3.803 -0.0036 -0.1790 -0.0399
19284W        W62196  23.843   3.201   2.518  0.3040 -0.4319  0.3922
19285W        W62197  22.611   2.650   3.093 -0.1572  0.4409  0.0356
19286W        W62198  23.767   3.992   2.253 -0.1163  0.3290 -0.0868
19287W        W62199  24.605   0.672   1.170  0.1323 -0.3534  0.0989
19288W        W62200  23.967   3.083   1.902  0.2549  0.0129  0.2348
19289W        W62201  23.752   2.854   0.957  0.0898  0.2263 -0.0881
19290W        W62202  23.681   2.746   3.065 -0.3684  0.0816 -0.2516
19291W        W62203  23.135   0.615   0.813  0.2300 -0.2662  0.0998
19292W        W62204  24.482   2.870   0.468 -0.1284  0.1547  0.2486
19293W        W62205  23.985   0.572   1.178 -0.1223  0.1150 -0.0981
19294W        W62206  25.088   1.171   3.485  0.4667  0.1696  0.0814
19295W        W62207  24.373   2.137   0.839  0.1079 -0.2519  0.1858
19296W        W62208  24.166   0.066   3.395  0.0995  0.2392 -0.0175
19297W        W62209  22.242  34.656   2.940  0.1722  0.0903  0.2193
19298W        W62210  25.174   1.890   1.115  0.0748  0.0311  0.2048
19299W        W62211  22.385   0.899   2.081 -0.2352  0.0751 -0.1597
19300W        W62212  24.406   2.707   4.630 -0.0152  0.1288 -0.0200
19301W        W62213  21.941   0.353   3.106 -0.0072  0.1837  0.1846
19302W        W62214  22.584   1.010   1.071 -0.1751 -0.0992 -0.1725
19303W        W62215  23.322   1.539   0.500  0.1867  0.0080 -0.1482
19304W        W62216  24.115   3.386   1.530 -0.0519 -0.0880  0.1377
19305W        W62217  24.280   3.256   2.751 -0.1287 -0.0738  0.1381
19306W        W62218  23.691   2.275   0.729  0.2114 -0.3319 -0.0080
19307W        W62219  24.785   2.237   1.101  0.0527  0.2886 -0.1223
19308W        W62220  23.282   0.440   3.334  0.0521  0.0281  0.2252
19309W        W62221  25.568   2.192   1.304  0.0139 -0.0911  0.2309
19310W        W62222  23.893   1.956  31.983  0.1398  0.1972 -0.1702
19311W        W62223  22.501   2.057   0.899 -0.2904  0.1340  0.0684
19312W        W62224  24.473   1.140   4.335  0.1127  0.1694  0.2131
19313W        W62225  25.485   1.208   2.862 -0.2071  0.2109 -0.0165
19314W        W62226  25.319   1.406   1.850 -0.0831 -0.0273 -0.1311
19315W        W62227  25.302   2.708   3.439  0.1227 -0.1133 -0.0655
19316W        W62228  26.084   1.229   2.827  0.0488 -0.1448 -0.0700
19317W        W62229  23.756   2.288   3.626 -0.0011  0.2614 -0.0710
19318W        W62230  20.663   0.357   1.581  0.1687 -0.1050 -0.2385
19319W        W62231  25.555   4.447   3.272 -0.1037 -0.4283 -0.0223
19320W        W62232  25.495   0.740   1.202  0.0674 -0.0042 -0.0379
19321W        W62233  25.384   0.994   0.777 -0.2585  0.3139 -0.0708
19322W        W62234  25.069   0.753   0.431 -0.2930  0.0840 -0.0851
19323W        W62235  24.857   1.692  31.395  0.0430  0.0043 -0.0708
19324W        W62236  22.303   1.094   0.600  0.0715  0.0857  0.1064
19325W        W62237  25.506   1.327   3.716  0.2715  0.0204  0.2861
19326W        W62238  21.949   1.472   0.581  0.0758  0.2694 -0.0793
19327W        W62239  25.345   1.584   4.291  0.1805 -0.1593 -0.2599
19328W        W62240  25.406   3.384  31.735  0.1552 -0.1122 -0.0559
19329W        W62241  26.081   3.362   1.516  0.5069  0.1644  0.1417
19330W        W62242  23.843  34.573   0.770 -0.1345 -0.0031 -0.0510
19331W        W62243  22.057   3.121   1.906 -0.0271 -0.3648 -0.2005
19332W        W62244  24.513   3.764   2.840  0.1473  0.1583  0.1546
19333W        W62245  22.933   1.310  31.050 -0.0963  0.2086  0.2510
19334W        W62246  23.637   0.552   0.106 -0.1345 -0.1148  0.1531
19335W        W62247  24.695   2.231   1.796  0.3950  0.2219  0.2573
19336W        W62248  26.676   3.613   3.852 -0.1970 -0.0491 -0.4215
19337W        W62249  23.699  34.429   1.682 -0.3874  0.1186  0.2775
19338W        W62250  25.820   2.914   3.698  0.1119 -0.0297 -0.1957
19339W        W62251  22.435   2.941   1.430  0.0397 -0.0029  0.0940
19340W        W62252  25.305   0.028   1.532 -0.1078 -0.0014 -0.0846
19341W        W62253  22.695   4.485   1.668 -0.1470 -0.0578  0.1113
19342W        W62254  23.176   2.957   3.051 -0.1538  0.2273  0.1853
19343W        W62255  22.024   4.081   1.965 -0.1433 -0.0584  0.1103
19344W        W62256  24.408   1.155   4.887  0.0830 -0.1741 -0.3155
19345W        W62257  25.175   0.694   2.550  0.3240 -0.3590  0.0039
19346W        W62258  23.432   2.875   1.551  0.0244  0.0365 -0.1793
19347W        W62259  26.058   2.473   3.926 -0.2078 -0.2199  0.0458
19348W        W62260  23.963   4.428   2.382 -0.1963 -0.0218  0.1350
19349W        W62261  24.348   1.878   1.824 -0.2697 -0.2538 -0.3489
19350W        W62262  24.451   2.958   1.791 -0.1225 -0.2524  0.2079
19351W        W62263  25.035   1.529   3.028 -0.1406 -0.0728 -0.0577
19352W        W62264  22.975   5.060   3.061 -0.1644 -0.0040 -0.0421
19353W        W62265  21.853   0.869   3.112  0.4016  0.0435  0.0946
19354W        W62266  24.322   2.299   3.808  0.0014  0.0623 -0.0310
19355W        W62267  24.263   3.534   3.248 -0.0452 -0.2520  0.0966
19356W        W62268  23.609   0.903   1.242  0.0129  0.2726  0.1485
19357W        W62269  24.403   3.008   0.011 -0.0587  0.1501 -0.3810
19358W        W62270  23.496   3.256   3.371 -0.0485 -0.1911  0.1108
19359W        W62271  22.256   2.150   2.157  0.0773 -0.1237 -0.0422
19360W        W62272  23.038   3.912  31.015 -0.0680  0.1138 -0.0508
19361W        W62273  24.705   1.645   0.818  0.0331 -0.4194  0.0058
19362W        W62274  23.831   3.503   2.157 -0.1270 -0.1875 -0.0110
19363W        W62275  25.067   2.517   1.980 -0.4993  0.2004 -0.0191
19364W        W62276  23.906   0.615   2.103  0.0814 -0.0545  0.1635
19365W        W62277  23.224   4.105   2.208  0.0185  0.1658 -0.1097
19366W        W62278  21.650   3.290   0.979  0.3765 -0.1344 -0.0019
19367W        W62279  23.569   3.789   1.277 -0.2627  0.0623  0.0210
19368W        W62280  25.148   2.065   2.286  0.1955  0.1416 -0.1358
19369W        W62281  24.751   1.263  31.125  0.0989 -0.1996 -0.3311
19370W        W62282  25.922   1.306   1.974 -0.2145  0.1128 -0.0863
19371W        W62283  25.087   1.423   1.177 -0.1588  0.1296 -0.1627
19372W        W62284  24.974   3.261   2.720 -0.0328  0.0341  0.1363
19373W        W62285  24.410   1.759   2.908 -0.1272  0.1481 -0.1676
19374W        W62286  23.145   1.901  31.352 -0.0199  0.3188  0.0003
19375W        W62287  23.492   1.279   3.555  0.0121  0.0183 -0.0305
19376W        W62288  25.023   1.180   2.635  0.3539 -0.0157  0.1056
19377W        W62289  21.737   5.193   4.825 -0.0210  0.3018 -0.2381
19378W        W62290  24.958   3.516  31.905  0.1050 -0.2335  0.2491
19379W        W62291  21.189   2.984   1.609 -0.0570  0.0474  0.2069
19380W        W62292  22.610   2.675   1.899  0.1969 -0.1089 -0.2841
19381W        W62293  25.310  34.691   3.163 -0.3086 -0.0617 -0.3362
19382W        W62294  23.426   1.943   1.472  0.2283  0.0788 -0.1210
19383W        W62295  24.718   0.790   1.824  0.2233  0.1468  0.0224
19384W        W62296  24.558   1.159   1.191  0.3122 -0.1496  0.0317
19385W        W62297  24.069   4.363   1.720 -0.1696 -0.1456  0.1393
19386W        W62298  23.730   3.820   0.657 -0.1107  0.0265 -0.1376
19387W        W62299  22.176   0.961   1.426  0.2961 -0.0232 -0.0226
19388W        W62300  25.572   1.540   1.463 -0.1856  0.1451  0.2508
19389W        W62301  23.139   0.437   2.842  0.0107  0.0255  0.1672
19390W        W62302  23.935   1.855   2.882 -0.2306 -0.1899  0.1047
19391W        W62303  23.006   1.133   2.394  0.3722 -0.0827 -0.3616
19392W        W62304  25.234  34.267   2.254 -0.4234  0.3674 -0.2245
19393W        W62305  24.589   2.463   3.389  0.1867 -0.1781  0.3120
19394W        W62306  21.724   1.987   2.157 -0.2803  0.3268  0.3208
19395W        W62307  24.215   0.791   0.758 -0.2101  0.0798 -0.0138
19396W        W62308  26.245   3.057   3.995  0.2015 -0.0153  0.0050
19397W        W62309  24.094   2.154   0.392  0.0495  0.0262 -0.3056
19398W        W62310  25.427   4.115   4.233 -0.1487 -0.0247  0.1203
19399W        W62311  23.015   1.056   0.555 -0.0466  0.1508  0.1786
19400W        W62312  23.998   2.332  31.249  0.0122  0.1282  0.1540
19401W        W62313  23.590   1.397   2.074 -0.1694 -0.4577 -0.0974
19402W        W62314  24.191   0.839   3.991  0.1235  0.2160  0.3459
19403W        W62315  25.629   4.138   4.691  0.0665 -0.0913  0.1135
19404W        W62316  23.035  34.316   0.996  0.5145 -0.0848  0.0693
19405W        W62317  25.711   1.730  30.990  0.0900 -0.2071  0.2846
19406W        W62318  25.295   0.873   2.054 -0.0265  0.0676 -0.0877
19407W        W62319  24.147   4.007  31.800 -0.0489  0.4090 -0.2978
19408W        W62320  25.883   2.401   2.399 -0.0496  0.1153  0.0960
19409W        W62321  26.613   3.222   1.656  0.1287  0.1202 -0.3350
19410W        W62322  21.903   1.990   3.044  0.2698  0.1049 -0.0128
19411W        W62323  26.111   3.623   1.037  0.0845  0.2271  0.1056
19412W        W62324  26.103   2.373   1.164 -0.0501  0.1187 -0.0198
19413W        W62325  22.133   0.425   1.396 -0.1364  0.0463  0.1279
19414W        W62326  21.082   2.967   2.634 -0.2266 -0.0152 -0.0060
19415W        W62327  22.573   4.029   0.342 -0.2159  0.0186  0.0685
19416W        W62328  25.129   0.928   1.580 -0.0087 -0.1589 -0.3057
19417W        W62329  25.414   1.880   3.851  0.1851  0.0462 -0.0086
19418W        W62330  24.457   3.511  31.854  0.0378  0.4077 -0.1778
19419W        W62331  25.109   0.916   3.065  0.1733  0.2029 -0.1163
19420W        W62332  23.248   4.135   2.960  0.0064 -0.1485  0.0884
19421W        W62333  24.217   5.133   2.271 -0.2556 -0.2191 -0.2191
19422W        W62334  21.828   3.574  31.314  0.2798 -0.0351 -0.2912
19423W        W62335  23.755   2.396   2.659 -0.0857 -0.2711  0.3021
19424W        W62336  23.499   2.888   2.060 -0.0091  0.0053 -0.2527
19425W        W62337  24.965   2.543   1.475 -0.1885  0.1972  0.4016
19426W        W62338  25.500   4.132   2.820  0.2846 -0.0290  0.2496
19427W        W62339  24.843   1.330   1.619  0.1641 -0.0708 -0.2956
19428W        W62340  26.484   1.219   1.417 -0.0519 -0.0727  0.1208
19429W        W62341  24.362  34.598   1.911 -0.2525  0.0459 -0.1983
19430W        W62342  25.072   0.036   2.007  0.1103  0.1457 -0.5027
19431W        W62343  25.340  34.165   0.167 -0.1455  0.1309 -0.1542
19432W        W62344  23.851   1.599   1.539  0.0991  0.2517 -0.0214
19433W        W62345  22.139   1.524  30.684 -0.0151  0.0369  0.2282
19434W        W62346  22.463   1.509   0.795 -0.3091  0.0620  0.1378
19435W        W62347  23.175   2.511   2.832 -0.1295 -0.1397 -0.3578
19436W        W62348  24.223  34.268   4.083  0.2672  0.0316  0.1125
19437W        W62349  23.146   0.924   2.831 -0.0093 -0.0069  0.2182
19438W        W62350  23.191   1.949   2.802 -0.0484  0.0895  0.1888
19439W        W62351  22.190   0.680   0.955  0.3823  0.3457  0.2604
19440W        W62352  24.071   3.140   0.607 -0.2109  0.0892 -0.1485
19441W        W62353  23.373  34.667   2.081 -0.1167  0.1771  0.2062
19442W        W62354  21.422   1.119   1.243 -0.1229 -0.3568  0.1961
19443W        W62355  25.686   1.648   2.826  0.0165 -0.1258  0.0808
19444W        W62356  24.530   1.991   0.357  0.3551 -0.0714  0.3639
19445W        W62357  24.434  34.572   1.381  0.2225  0.1973  0.0595
19446W        W62358  26.587   3.907   4.875 -0.0445 -0.4278  0.0038
19447W        W62359  22.393   2.569   0.638 -0.2511 -0.0891  0.1692
19448W        W62360  25.304   2.042   2.943 -0.0605 -0.1833  0.3223
19449W        W62361  24.371   0.459   2.143 -0.1613  0.1098 -0.0955
19450W        W62362  21.390  33.584   0.814  0.0565  0.1144 -0.0372
19451W        W62363  22.710   0.748   2.433 -0.1024  0.0010 -0.0766
19452W        W62364  24.417   2.120   1.390 -0.0603 -0.0891 -0.1184
19453W        W62365  25.278   4.213   0.795 -0.1262  0.3322 -0.0992
19454W        W62366  23.562   0.920   3.194  0.1814 -0.0693 -0.0675
19455W        W62367  24.093   2.504   3.249  0.3581  0.0861  0.0652
19456W        W62368  23.029   0.380   2.361  0.0676 -0.2036  0.1762
19457W        W62369  25.280   3.094   1.995  0.0648 -0.0237  0.1802
19458W        W62370  24.759   2.163   3.787  0.2123  0.1569  0.0557
19459W        W62371  25.090   3.562  31.446  0.0559 -0.1341  0.2247
19460W        W62372  24.586   2.013   2.293  0.2588  0.1644 -0.0005
19461W        W62373  24.250   1.883  31.662 -0.0984  0.1555  0.0813
19462W        W62374  22.102  34.360   2.554 -0.0657 -0.2790  0.2540
19463W        W62375  21.739   3.575   2.785  0.1365  0.0103 -0.1021
19464W        W62376  25.313   2.935   2.875 -0.0888  0.0547 -0.2175
19465W        W62377  22.529   0.370   2.214  0.0819 -0.0259  0.4754
19466W        W62378  23.079   0.577   1.334  0.4915  0.1152  0.1517
19467W        W62379  25.260   2.022   1.700  0.0549 -0.0271  0.0137
19468W        W62380  22.663   1.110   2.771 -0.0621  0.0267 -0.1145
19469W        W62381  24.331   1.606   1.263  0.3013  0.0399  0.1148
19470W        W62382  24.820   2.990   2.295  0.0336 -0.0499 -0.1093
19471W        W62383  23.111   2.509   1.396  0.0584  0.0153  0.1109
19472W        W62384  26.448   2.833   4.656 -0.2465 -0.0624 -0.0263
19473W        W62385  23.733   1.503   0.072  0.4492  0.2854  0.1843
19474W        W62386  26.632   1.967  31.621 -0.2008 -0.1792 -0.3162
19475W        W62387  23.635   4.436   1.992  0.0737 -0.2955 -0.0552
19476W        W62388  26.139   3.864   4.702  0.2439 -0.1405  0.1454
19477W        W62389  24.821   3.329   1.892  0.0706  0.1557 -0.2214
19478W        W62390  25.720   3.263   4.091  0.0095  0.1654 -0.1583
19479W        W62391  23.849   0.107   1.877 -0.1417  0.0213  0.1316
19480W        W62392  23.777   2.590   1.763  0.0410  0.4191 -0.1733
19481W        W62393  22.680   4.160   1.245 -0.1953  0.6273 -0.0530
19482W        W62394  26.097   1.003   2.350  0.1013 -0.0568 -0.1442
19483W        W62395  23.489   1.230   0.879 -0.1181 -0.0381 -0.0640
19484W        W62396  24.760   0.256   1.739 -0.0532  0.1047  0.1593
19485W        W62397  25.314   3.379   3.207  0.2838  0.2728 -0.0646
19486W        W62398  23.449   3.930   1.780  0.0127 -0.1636 -0.1752
19487W        W62399  22.702   2.220   6.184  0.0809 -0.2580 -0.0490
19488W        W62400  22.344   2.576   4.297  0.2616 -0.3592 -0.2352
19489W        W62401  24.864   1.870   4.716  0.1784 -0.1392  0.2224
19490W        W62402  24.897   2.891   4.619 -0.0147  0.1065  0.0389
19491W        W62403  21.456   0.520   3.266  0.1091 -0.3555  0.0211
19492W        W62404  23.950   3.056   4.857 -0.0402  0.3596 -0.1569
19493W        W62405  22.645  33.933   7.014  0.0535 -0.2936 -0.2210
19494W        W62406  24.326   1.871   5.746  0.0683  0.3070  0.0428
19495W        W62407  24.604   3.517   6.595  0.1999  0.1463  0.1964
19496W        W62408  25.312   3.587   4.070  0.2281  0.0850  0.0687
19497W        W62409  22.897   1.798   6.647  0.1707  0.1864 -0.0092
19498W        W62410  23.643   3.692   5.984  0.1462  0.0262  0.0121
19499W        W62411  23.601   1.425   3.079 -0.1054  0.3313  0.0664
19500W        W62412  21.989  34.317   6.092 -0.1764 -0.0333 -0.0264
19501W        W62413  24.810   0.925   6.184  0.0395  0.1452 -0.1666
19502W        W62414  21.235   2.487   3.652  0.1913 -0.4186  0.1283
19503W        W62415  23.664   0.045   6.910 -0.1161 -0.0789 -0.1286
19504W        W62416  22.579   2.347   5.199 -0.2845  0.1801  0.1202
19505W        W62417  23.019   5.473   5.556  0.0671 -0.5815  0.2469
19506W        W62418  22.803   0.621   7.290 -0.1711  0.1289  0.1538
19507W        W62419  22.474   1.003   7.061 -0.3364 -0.3916  0.0085
19508W        W62420  24.583   2.526   5.042  0.0172  0.3870 -0.0830
19509W        W62421  23.194   0.879   3.608  0.3213 -0.2849 -0.1170
19510W        W62422  22.995   1.065   5.148  0.0270  0.0673  0.0722
19511W        W62423  23.044   2.160   5.738 -0.0124  0.1800 -0.0042
19512W        W62424  24.477   0.538   5.033 -0.0845  0.0478  0.2516
19513W        W62425  24.808   2.410   4.593  0.0240  0.0114 -0.1639
19514W        W62426  23.208   2.728   4.240 -0.1488  0.1759  0.0611
19515W        W62427  23.951   3.061   6.601 -0.0388 -0.1179  0.0779
19516W        W62428  25.671   0.410   6.813  0.1180 -0.3272  0.1705
19517W        W62429  22.283   3.024   4.093 -0.1290 -0.0314  0.0993
19518W        W62430  21.439   3.586   3.375  0.0362 -0.0170  0.2134
19519W        W62431  22.521   3.427   4.274  0.2125 -0.0158  0.0039
19520W        W62432  25.295   3.076   5.537 -0.1696 -0.3990  0.0311
19521W        W62433  24.152   4.540   6.497 -0.1950 -0.4307 -0.2595
19522W        W62434  23.446   3.945   6.486 -0.0274  0.0209 -0.1363
19523W        W62435  22.711   2.652   3.614 -0.1539  0.3112 -0.0809
19524W        W62436  23.267   3.730   6.893  0.1447  0.2030 -0.2206
19525W        W62437  22.829   4.000   6.998 -0.3873 -0.0884  0.0504
19526W        W62438  23.437   1.106   6.471  0.1282 -0.3650 -0.2087
19527W        W62439  23.343   2.076   3.487  0.2480 -0.2242  0.3879
19528W        W62440  24.608   3.694   4.687 -0.0746  0.3416 -0.3614
19529W        W62441  23.308   2.966   6.341 -0.1290  0.1618 -0.0563
19530W        W62442  22.754   2.661   7.154  0.0697  0.2369 -0.1445
19531W        W62443  21.283   3.819   5.103 -0.1140  0.2153  0.0160
19532W        W62444  24.674   0.800   7.066  0.1648  0.2904  0.0010
19533W        W62445  22.981   4.835   3.542  0.2932  0.3607  0.2551
19534W        W62446  25.313   1.633   4.759 -0.0837 -0.1127  0.2231
19535W        W62447  22.347   0.322   3.759 -0.0763  0.5869  0.1502
19536W        W62448  25.001   2.494   3.058  0.2346 -0.0369  0.2267
19537W        W62449  22.503   0.737   5.905 -0.0608 -0.1593 -0.2467
19538W        W62450  23.554   2.892   6.882  0.0820  0.1382 -0.1493
19539W        W62451  24.274  33.944   6.522  0.3609 -0.0735 -0.1505
19540W        W62452  25.184   1.235   6.422 -0.0434 -0.3665 -0.2973
19541W        W62453  24.500   3.222   4.591  0.1149  0.1303 -0.1966
19542W        W62454  23.827   0.857   6.594 -0.2270 -0.1384  0.0096
19543W        W62455  22.847   2.827   5.022  0.0439  0.0273 -0.2054
19544W        W62456  21.887   2.775   4.260 -0.0381  0.1068 -0.0260
19545W        W62457  25.819   4.218   3.855  0.2015  0.1718 -0.1483
19546W        W62458  25.410   3.975   5.134  0.1547 -0.0593 -0.0429
19547W        W62459  25.505   2.516   3.859  0.0584 -0.0038 -0.1269
19548W        W62460  22.117   1.578   3.236  0.0171 -0.1014 -0.2060
19549W        W62461  21.954   1.651   6.480 -0.0210 -0.2644 -0.0028
19550W        W62462  21.092   1.821   6.533  0.2625  0.0858  0.2651
19551W        W62463  23.677   0.759   3.845 -0.0610 -0.2420 -0.1241
19552W        W62464  24.471   3.480   6.101  0.1062 -0.0237 -0.0216
19553W        W62465  22.471   2.209   7.193 -0.3489 -0.0305  0.0106
19554W        W62466  24.416   0.166   5.725  0.1295  0.1398 -0.1418
19555W        W62467  23.013   2.962   5.906  0.0576  0.1334 -0.0023
19556W        W62468  23.837   3.692   5.461 -0.1713  0.0276 -0.0072
19557W        W62469  24.903   2.657   3.826  0.0099 -0.2066  0.0051
19558W        W62470  24.199  34.301   5.401 -0.2087  0.3226  0.0459
19559W        W62471  24.650  34.611   6.105  0.2782  0.4173  0.2129
19560W        W62472  22.591   1.654   3.504 -0.1922 -0.0125  0.2132
19561W        W62473  25.054   3.341   4.473 -0.2115  0.0714  0.0261
19562W        W62474  24.644   3.043   6.276  0.1601  0.3812 -0.2842
19563W        W62475  25.093   1.195   4.019  0.0587  0.4807 -0.1135
19564W        W62476  23.493   2.827   5.846  0.0751 -0.0023 -0.0136
19565W        W62477  23.998   0.879   7.086 -0.0283  0.1633  0.1233
19566W        W62478  23.371   1.569   6.628 -0.3163  0.2121 -0.4048
19567W        W62479  23.268   3.705   4.101  0.1392  0.5123  0.0381
19568W        W62480  23.528   3.276   5.599  0.3565 -0.1282 -0.1783
19569W        W62481  22.716   2.189   4.168 -0.1572 -0.0883  0.0768
19570W        W62482  22.384  34.277   5.622 -0.2391 -0.1235  0.2461
19571W        W62483  22.428   2.040   6.700  0.2078  0.0866 -0.1301
19572W        W62484  24.752   0.737   4.607  0.0251 -0.1610 -0.0795
19573W        W62485  22.022  34.480   6.594  0.4785  0.0066 -0.2605
19574W        W62486  24.806   0.052   5.249  0.0357  0.0734 -0.4286
19575W        W62487  23.835   2.112   4.942  0.0006 -0.2753  0.1322
19576W        W62488  23.569   5.434   4.683 -0.1797  0.0807  0.1634
19577W        W62489  26.433   2.262   5.227 -0.0442 -0.1541  0.0102
19578W        W62490  25.430   2.952   4.384  0.2626  0.1117  0.1622
19579W        W62491  22.325   0.548   5.000 -0.1846 -0.0221 -0.0855
19580W        W62492  22.887   2.170   4.723  0.3777  0.2632 -0.1841
19581W        W62493  23.415   0.158   6.528  0.3879 -0.0274  0.3016
19582W        W62494  22.526   1.427   4.887  0.0987  0.1849  0.2611
19583W        W62495  24.898   1.705   6.397 -0.1764 -0.5199 -0.1445
19584W        W62496  22.768   1.228   3.687 -0.0280  0.2603 -0.2162
19585W        W62497  24.406   2.114   4.711  0.0573  0.2079  0.3206
19586W        W62498  23.405   2.508   5.474 -0.2049  0.0555  0.2145
19587W        W62499  22.329   2.954   6.163 -0.0005 -0.0875  0.0321
19588W        W62500  26.196   0.552   7.186 -0.0782 -0.2149 -0.1517
19589W        W62501  24.936   2.980   3.278  0.1079 -0.1806 -0.3223
19590W        W62502  25.309   4.694   6.048  0.0516 -0.1735 -0.1363
19591W        W62503  24.462   4.393   6.092 -0.0736  0.5033  0.0466
19592W        W62504  23.117   0.617   6.407  0.2049  0.0344 -0.0061
19593W        W62505  23.261   0.560   3.950  0.1173  0.0558 -0.1399
19594W        W62506  22.105   3.729   6.240 -0.0383  0.0187  0.1955
19595W        W62507  22.286   2.700   5.330  0.2195 -0.1090  0.2990
19596W        W62508  21.645   0.376   3.916  0.5080 -0.2247 -0.1125
19597W        W62509  25.870   3.861   5.538 -0.3319 -0.1319 -0.0461
19598W        W62510  23.451   2.727   3.750 -0.0454 -0.0703  0.1458
19599W        W62511  23.014   2.785   6.694 -0.3443 -0.0211 -0.0215
19600W        W62512  24.253   1.276   6.838 -0.5084  0.2279  0.1863
19601W        W62513  25.666   1.191   6.117  0.2360 -0.0767 -0.0285
19602W        W62514  23.881   2.672   5.588 -0.0678  0.0405 -0.2657
19603W        W62515  23.572   0.063   3.500 -0.1702 -0.1415  0.2072
19604W        W62516  23.529   4.931   4.576  0.2860  0.3338  0.0561
19605W        W62517  22.258   2.808   2.728  0.2973 -0.2512  0.4580
19606W        W62518  22.144   2.443   3.367 -0.4019 -0.2940 -0.2253
19607W        W62519  24.346   2.804   3.690 -0.2656 -0.2761 -0.0090
19608W        W62520  26.079   1.669   6.146 -0.1025  0.3348 -0.1974
19609W        W62521  20.595   1.099   7.085  0.0569  0.2492  0.1343
19610W        W62522  23.255   1.181   6.898  0.0663 -0.0766  0.1507
19611W        W62523  22.527   0.314   3.265 -0.3218  0.2598 -0.2291
19612W        W62524  22.725   1.466   5.348 -0.0626 -0.1561 -0.0407
19613W        W62525  24.340   0.913   5.347  0.1043 -0.0499  0.0627
19614W        W62526  24.709   1.556   4.136  0.0940  0.0644  0.0322
19615W        W62527  23.164   2.482   6.094  0.2452 -0.3002  0.0367
19616W        W62528  24.507   1.481   6.074 -0.0618 -0.1582  0.0778
19617W        W62529  23.464   0.371   4.456 -0.0245 -0.1374  0.0195
19618W        W62530  25.236   0.741   3.797  0.3790 -0.1195  0.0399
19619W        W62531  22.510   2.860   6.691  0.1466  0.1848  0.0046
19620W        W62532  24.541   4.068   4.998  0.0503  0.0808 -0.0092
19621W        W62533  23.637   2.317   5.914  0.0199 -0.2824 -0.3275
19622W        W62534  23.729   0.627   4.822 -0.0057  0.0787  0.0092
19623W        W62535  25.146   4.117   5.646  0.0738 -0.1474  0.1840
19624W        W62536  21.962   2.327   5.614  0.1249 -0.1713 -0.0230
19625W        W62537  24.173   3.740   7.225 -0.0795 -0.2412  0.1936
19626W        W62538  24.839   3.826   5.332 -0.0339  0.2611 -0.1368
19627W        W62539  23.997  33.976   7.306  0.0333  0.3036 -0.2100
19628W        W62540  23.704   2.238   4.148  0.2623  0.0557  0.0797
19629W        W62541  23.094   1.661   5.620 -0.0567  0.6187 -0.0060
19630W        W62542  22.411   3.808   1.792  0.0598 -0.1204  0.1659
19631W        W62543  23.576  33.874   5.829 -0.3703 -0.0898  0.2889
19632W        W62544  25.602   0.624   5.110  0.4015 -0.1315 -0.0443
19633W        W62545  25.448   0.801   7.090 -0.3474 -0.0625  0.1333
19634W        W62546  25.828   1.891   7.748 -0.2343  0.0424  0.1626
19635W        W62547  24.522   2.062   4.234 -0.0935 -0.0566  0.0813
19636W        W62548  24.754   0.974   5.643  0.0370  0.2090  0.5924
19637W        W62549  23.093   1.660   2.266  0.3278  0.2730  0.1925
19638W        W62550  24.312  34.677   6.811  0.0056 -0.1293 -0.0789
19639W        W62551  22.489   3.069   5.633  0.1036 -0.2726 -0.2140
19640W        W62552  22.922   3.335   5.541 -0.1301  0.1811  0.1161
19641W        W62553  24.734   2.979   7.272 -0.1820  0.1510 -0.4489
19642W        W62554  23.741   2.846   4.346  0.0614  0.3698  0.0527
19643W        W62555  24.323   2.549   8.624 -0.0926 -0.2946 -0.2776
19644W        W62556  23.452   0.823   5.224  0.5142  0.0198  0.2089
19645W        W62557  23.229   3.179   3.985  0.0324 -0.1312  0.0106
19646W        W62558  24.184   1.442   3.725  0.1621 -0.3951  0.0671
19647W        W62559  23.133   0.959   6.049  0.1326  0.0600  0.3448
19648W        W62560  22.018   1.690   5.197 -0.1359 -0.0537  0.0271
19649W        W62561  21.666   2.626   3.453 -0.0418 -0.0861 -0.4014
19650W        W62562  23.764   3.721   7.689 -0.0415 -0.4419 -0.0877
19651W        W62563  21.565   3.089   4.515  0.4262 -0.1815 -0.1703
19652W        W62564  24.397  33.362   5.239 -0.0777 -0.0019 -0.0094
19653W        W62565  21.693   2.629   5.280  0.0193 -0.0602  0.1161
19654W        W62566  23.072  33.771   3.952 -0.1006  0.1628 -0.1769
19655W        W62567  21.388   2.167   4.210  0.1620 -0.1107 -0.1310
19656W        W62568  23.430  34.545   5.204  0.0765 -0.1349  0.2866
19657W        W62569  25.599   2.909   5.128  0.2341  0.1832 -0.1291
19658W        W62570  23.720   0.096   4.844  0.1471  0.0977 -0.0208
19659W        W62571  23.193   0.328   6.030 -0.1445 -0.3426  0.1335
19660W        W62572  22.435   2.522   5.884 -0.2509 -0.1798 -0.0087
19661W        W62573  24.573   2.991   6.791 -0.2191  0.2938  0.1592
19662W        W62574  24.339  34.397   4.707 -0.2021 -0.3114  0.0275
19663W        W62575  24.205   1.187   6.378  0.1693 -0.0157  0.1788
19664W        W62576  22.820   1.276   6.683 -0.1246  0.4081 -0.0635
19665W        W62577  21.713   2.457   3.924  0.0333 -0.0279  0.0597
19666W        W62578  26.379   0.127   6.088 -0.2064 -0.3557  0.5576
19667W        W62579  23.675   1.568   4.947  0.0122  0.0709 -0.1009
19668W        W62580  22.669   1.715   4.520  0.1730 -0.2289 -0.0965
19669W        W62581  24.310   2.187   6.943  0.0487  0.0630 -0.0682
19670W        W62582  23.583   1.829   2.466 -0.3707  0.2881 -0.0751
19671W        W62583  22.922   1.958   5.168 -0.0339  0.1817 -0.0046
19672W        W62584  21.785   1.067   6.342 -0.2549 -0.0121  0.3433
19673W        W62585  24.252   2.665   6.431 -0.1277  0.2180 -0.0166
19674W        W62586  21.981   1.802   5.718  0.0457  0.1365 -0.2714
19675W        W62587  23.541   1.837   5.859  0.1146  0.2662  0.1227
19676W        W62588  23.107   1.920   6.144  0.0649 -0.3162 -0.1814
19677W        W62589  24.946   2.469   6.361 -0.2163 -0.2043  0.1378
19678W        W62590  22.947   2.147   7.030 -0.2469 -0.0306 -0.0163
19679W        W62591  21.726   3.408   7.840 -0.1171  0.0587 -0.3077
19680W        W62592  23.165  33.393   5.854  0.2013  0.2921  0.1643
19681W        W62593  23.973   3.503   4.629 -0.0637 -0.0550 -0.0505
19682W        W62594  24.672   1.253   6.529  0.1232  0.1440 -0.0713
19683W        W62595  23.470   1.531   4.441  0.1727  0.2619  0.1695
19684W        W62596  21.770   2.691   4.790 -0.2343 -0.2790  0.1550
19685W        W62597  23.230   2.583   3.373  0.0065  0.1381 -0.1301
19686W        W62598  22.688   0.568   6.757 -0.1862 -0.2005 -0.3833
19687W        W62599  22.668   1.626   5.862  0.1878  0.2438  0.1175
19688W        W62600  24.011   3.034   3.359  0.0600 -0.0649 -0.1457
19689W        W62601  21.266   2.703   5.006 -0.2452  0.1964 -0.0216
19690W        W62602  25.236   0.782   4.279  0.2017 -0.0437 -0.1925
19691W        W62603  25.762   2.302   3.512  0.0036  0.1505  0.0595
19692W        W62604  23.760   0.994   6.051  0.0084 -0.3175  0.1671
19693W        W62605  26.066   0.020   7.094 -0.1177 -0.3227 -0.1418
19694W        W62606  23.727   3.142   3.830  0.3849  0.1375  0.0930
19695W        W62607  25.077   0.788   6.660 -0.0795 -0.2616  0.3633
19696W        W62608  22.942   0.638   5.664 -0.2872  0.0161  0.3455
19697W        W62609  25.024   2.757   6.898  0.1925  0.0757 -0.2252
19698W        W62610  22.616   0.220   5.747  0.2691 -0.2123  0.1643
19699W        W62611  23.906   4.066   6.700  0.1023  0.4582  0.0866
19700W        W62612  21.035   1.159   6.697 -0.0374  0.1242  0.0493
19701W        W62613  23.882   1.107   5.575  0.1376  0.0847 -0.0519
19702W        W62614  22.555   0.903   5.306 -0.1143  0.2285 -0.0735
19703W        W62615  22.449   1.736   6.295  0.0797  0.0664  0.0617
19704W        W62616  25.367   2.439   6.821 -0.4116  0.0092 -0.1205
19705W        W62617  22.832   3.963   3.292 -0.0482  0.1239 -0.1247
19706W        W62618  24.567   2.560   4.165  0.4734  0.0612 -0.1671
19707W        W62619  22.176   2.081   6.055  0.0862 -0.2578  0.0011
19708W        W62620  24.850   1.069   5.108 -0.1207  0.2023 -0.1612
19709W        W62621  23.944   2.660   3.941 -0.1867 -0.2234 -0.0131
19710W        W62622  22.416   3.089   5.088 -0.1462  0.1293 -0.1074
19711W        W62623  22.810   0.166   7.476 -0.3106  0.1996  0.1617
19712W        W62624  24.583   2.471   7.283  0.0448 -0.0953  0.1605
19713W        W62625  23.433   1.417   5.383  0.0444  0.0595 -0.3498
19714W        W62626  24.762   0.409   6.787 -0.0289 -0.0251  0.2638
19715W        W62627  24.796   0.518   5.462 -0.3355 -0.0645 -0.2726
19716W        W62628  22.514   1.468   8.024  0.0500 -0.2343 -0.0774
19717W        W62629  22.295   0.457   5.467  0.1073 -0.0082  0.1126
19718W        W62630  25.679   4.385   5.344 -0.0566  0.0089 -0.2067
19719W        W62631  26.463   2.721   3.719 -0.1854  0.0812  0.3389
19720W        W62632  27.031   0.789   6.815 -0.0629  0.0912 -0.0600
19721W        W62633  23.930   1.579   5.416  0.2835 -0.2897  0.2175
19722W        W62634  23.424   1.943   5.335 -0.0350 -0.1904 -0.0561
19723W        W62635  23.363   1.013   4.352  0.2057  0.1092 -0.1456
19724W        W62636  23.527   1.632   7.152  0.2125  0.0586  0.2515
19725W        W62637  23.735  34.356   3.965 -0.0996 -0.2198  0.0841
19726W        W62638  24.438   0.814   6.578 -0.5555  0.3288 -0.3742
19727W        W62639  23.475   2.413   4.584  0.1549 -0.0537 -0.2249
19728W        W62640  24.327   2.136   5.341 -0.0684 -0.1184  0.2487
19729W        W62641  22.986   1.251   4.560 -0.2754 -0.3188  0.1436
19730W        W62642  21.517   0.906   5.195 -0.0556 -0.2174  0.0966
19731W        W62643  22.656   3.316   7.452  0.1879 -0.0382 -0.1228
19732W        W62644  22.846   0.752   3.214  0.1551 -0.1554 -0.0970
19733W        W62645  23.795   1.275   3.996 -0.1241 -0.2019 -0.3766
19734W        W62646  23.814   2.672   6.223  0.3503 -0.0852 -0.2640
19735W        W62647  25.029   2.588   7.396  0.2908  0.0440 -0.0535
19736W        W62648  23.437   1.176   4.779 -0.0652  0.1543 -0.0883
19737W        W62649  26.465   1.198   7.919  0.1391 -0.0522  0.3701
19738W        W62650  22.115   1.664   3.730 -0.0680  0.0855 -0.0165
19739W        W62651  24.321   0.071   5.156 -0.3536  0.1694  0.3495
19740W        W62652  23.086   4.358   5.446  0.2374  0.1726 -0.2011
19741W        W62653  22.750   2.707   6.260  0.1958  0.1669 -0.0542
19742W        W62654  22.984   3.376   5.024 -0.1636  0.2811 -0.2752
19743W        W62655  24.625   0.247   7.379 -0.0916  0.0525  0.2865
19744W        W62656  23.942   0.588   5.272  0.0777  0.2965  0.0024
19745W        W62657  23.954   2.265   6.493  0.0456  0.0441 -0.1675
19746W        W62658  25.208   0.795   5.376  0.2838  0.1310  0.2733
19747W        W62659  23.681   3.856   7.156 -0.2410  0.0397  0.0685
19748W        W62660  22.826   2.678   5.559  0.4154 -0.0477  0.3057
19749W        W62661  23.275   3.248   6.743  0.1136  0.0954  0.1925
19750W        W62662  24.786   1.921   5.340 -0.4920 -0.0624 -0.0264
19751W        W62663  24.098   2.597   5.057 -0.0700  0.0643  0.1306
19752W        W62664  21.194   0.305   6.943 -0.1317  0.0902  0.5296
19753W        W62665  23.755   1.308   6.874  0.3463  0.0180 -0.0028
19754W        W62666  23.686   3.178   6.153  0.0098  0.3697 -0.0778
19755W        W62667  21.819   0.649   4.882  0.1021  0.3312  0.2648
19756W        W62668  23.111   3.015   3.547 -0.1727  0.1415 -0.3038
19757W        W62669  22.885   3.188   6.434 -0.0026 -0.1138 -0.0454
19758W        W62670  22.465   2.040   5.543  0.2258  0.2437 -0.1421
19759W        W62671  22.524   2.154   3.705 -0.1567  0.2144  0.2880
19760W        W62672  24.943   2.862   5.189  0.3003  0.0710 -0.1879
19761W        W62673  23.651   2.806   5.164 -0.2570 -0.1722  0.1636
19762W        W62674  24.064   3.657   6.222  0.0480  0.0226  0.1333
19763W        W62675  23.209  34.673   3.060  0.1687 -0.0607 -0.1870
19764W        W62676  22.580   3.048   4.590 -0.2246  0.0013  0.3400
19765W        W62677  21.830   4.063   2.937  0.2642 -0.2429 -0.1867
19766W        W62678  25.619   2.709   5.697  0.1126 -0.1808 -0.0243
19767W        W62679  21.811   3.491   4.743  0.1796 -0.3344 -0.1411
19768W        W62680  24.124   3.550   6.758 -0.2475 -0.0334 -0.1406
19769W        W62681  24.814  33.865   4.371 -0.2070  0.0684 -0.2745
19770W        W62682  26.356   0.664   6.206 -0.1088 -0.0197  0.1322
19771W        W62683  25.979   1.294   5.191  0.1171  0.0227 -0.1014
19772W        W62684  24.196   4.750   7.320 -0.0195 -0.1257  0.1764
19773W        W62685  23.345   1.902   4.742  0.0320 -0.2972  0.2150
19774W        W62686  23.079   1.707   3.244 -0.2932  0.0817 -0.2220
19775W        W62687  21.868   2.012   7.464  0.0902 -0.4630 -0.0042
19776W        W62688  25.986   0.426   6.018  0.1321  0.1402 -0.0975
19777W        W62689  21.925   4.127   6.582 -0.0297  0.0431  0.2165
19778W        W62690  25.285   4.597   4.414  0.1430  0.0282 -0.1959
19779W        W62691  22.876   2.219   3.144 -0.3002  0.0437  0.2150
19780W        W62692  24.026   1.894   6.178  0.2681  0.1230  0.1832
19781W        W62693  25.626  33.566   6.216 -0.0639 -0.2122 -0.0908
19782W        W62694  22.275   1.269   4.017 -0.1306  0.2238  0.2809
19783W        W62695  22.477   1.611   6.886  0.1195  0.0116 -0.3034
19784W        W62696  24.240   3.917   5.855  0.1671 -0.1427  0.5378
19785W        W62697  21.518   2.219   4.744 -0.0694  0.0211 -0.0941
19786W        W62698  23.380   3.680   5.304  0.0813  0.1060 -0.0004
19787W        W62699  21.884   1.033   2.119  0.2838 -0.0183 -0.0309
19788W        W62700  26.213  34.617   4.796 -0.2535  0.1238  0.1942
19789W        W62701  22.225   1.230   6.654  0.0346  0.1039  0.1756
19790W        W62702  24.005   0.577   5.762  0.0185  0.2209 -0.2818
19791W        W62703  23.228   2.989   5.327 -0.1740  0.0853  0.1955
19792W        W62704  25.741   1.724   5.193  0.2142  0.1043  0.0642
19793W        W62705  24.905   3.249   7.635  0.1113 -0.0535 -0.0089
19794W        W62706  22.063   0.756   6.901 -0.0961 -0.2529 -0.0604
19795W        W62707  22.642   0.943   4.805 -0.1149  0.5102  0.0685
19796W        W62708  24.063   3.374   7.550 -0.1442  0.2828  0.2582
19797W        W62709  24.183   1.602   4.180  0.0379 -0.1838 -0.1427
19798W        W62710  24.911   3.840   6.826  0.0868  0.3856  0.1586
19799W        W62711  23.890   0.440   4.199 -0.0335 -0.2235  0.1602
19800W        W62712  23.909   1.112   5.034  0.2031 -0.0716 -0.1266
19801W        W62713  21.490   2.248   3.215  0.1266 -0.1648  0.1122
19802W        W62714  22.587   1.138   4.343  0.0403 -0.1366  0.0988
19803W        W62715  23.422   5.221   7.026  0.0679 -0.0555 -0.2754
19804W        W62716  21.973   1.009   4.366  0.3120  0.3474  0.2565
19805W        W62717  25.539   5.063   4.890  0.2815  0.3472 -0.4493
19806W        W62718  25.106   1.517   5.288 -0.2329 -0.0961  0.1054
19807W        W62719  22.835   4.340   4.605 -0.0188 -0.0074 -0.3844
19808W        W62720  24.184   1.624   4.977 -0.0275 -0.0765  0.0940
19809W        W62721  23.945   5.356   5.004  0.1756  0.1371 -0.3659
19810W        W62722  21.639   1.471   6.066  0.1611 -0.0399  0.0945
19811W        W62723  25.444   2.445   6.129 -0.2458  0.0599 -0.0161
19812W        W62724  24.786   3.964   5.973 -0.0821 -0.1238  0.1176
19813W        W62725  23.048   0.149   4.286 -0.1657  0.0627  0.0312
19814W        W62726  23.872   1.844   4.458  0.2020 -0.0173 -0.0563
19815W        W62727  22.475   3.947   5.844  0.1160 -0.1590  0.1767
19816W        W62728  24.064   1.429   5.918  0.2692  0.1727  0.1020
19817W        W62729  24.298   1.046   5.849 -0.2108 -0.1079 -0.0967
19818W        W62730  24.619   1.503   2.386  0.0075  0.0994 -0.0387
19819W        W62731  24.534   0.321   6.384 -0.1087 -0.0355  0.1029
19820W        W62732  24.161   2.681   6.931  0.1717 -0.3098 -0.1993
19821W        W62733  23.319   4.063   7.438 -0.0171 -0.2669 -0.0704
19822W        W62734  23.046   2.401   3.859 -0.0872  0.0626  0.0965
19823W        W62735  23.528   2.201   7.430  0.0150  0.0668  0.3421
19824W        W62736  23.274   2.877   4.740  0.3081  0.2486  0.2110
19825W        W62737  22.930   4.811   5.587  0.0957 -0.1209 -0.1710
19826W        W62738  24.141   3.499   5.104 -0.0563 -0.2256  0.1691
19827W        W62739  23.384   2.062   6.870  0.1398  0.0420  0.0811
19828W        W62740  26.160   3.173   4.942 -0.1580 -0.3666 -0.0257
19829W        W62741  23.024   1.605   7.094 -0.0672 -0.1611 -0.2920
19830W        W62742  24.954   1.247   4.546 -0.0262  0.1137  0.1982
19831W        W62743  24.193   3.128   7.094  0.1605 -0.1786  0.0431
19832W        W62744  22.637   0.808   4.003  0.0178 -0.0778  0.0476
19833W        W62745  21.854   3.121   2.916  0.2503  0.0545 -0.0842
19834W        W62746  22.371   2.608   4.805 -0.3012 -0.1299 -0.1656
19835W        W62747  23.633   0.423   7.309 -0.2073  0.0217  0.3046
19836W        W62748  21.904   1.027   7.884  0.0746 -0.2152  0.3894
19837W        W62749  20.969   1.156   3.700  0.3382 -0.1597  0.2508
19838W        W62750  22.291   0.713   4.515 -0.0326  0.2422 -0.3914
19839W        W62751  25.066   3.774   4.903  0.0842  0.1790  0.1059
19840W        W62752  23.436  34.249   4.808  0.1632 -0.0475  0.2939
19841W        W62753  22.672   0.174   5.073  0.2376  0.3284  0.1181
19842W        W62754  24.150   2.403   4.336  0.2781 -0.1801  0.0567
19843W        W62755  23.297   4.090   5.074 -0.1771  0.0807  0.1416
19844W        W62756  23.663   0.477   6.267 -0.1869 -0.2607 -0.3535
19845W        W62757  24.635   4.465   7.443 -0.1491 -0.5179 -0.2689
19846W        W62758  22.791   2.919   2.749  0.1983  0.0328  0.0947
19847W        W62759  21.572   1.933   6.591  0.0363  0.2127  0.1268
19848W        W62760  23.935   1.200   7.433  0.1555 -0.2464 -0.1212
19849W        W62761  21.805   0.043   2.759 -0.0264 -0.2109  0.0766
19850W        W62762  24.523   1.871   7.338 -0.1088  0.2244  0.0681
19851W        W62763  25.528   3.629   4.550  0.3737 -0.0320 -0.0996
19852W        W62764  25.190   3.172   3.733  0.0729 -0.1006  0.0884
19853W        W62765  23.489   2.078   6.390  0.2972  0.0699  0.1196
19854W        W62766  24.319   4.034   6.412  0.0132 -0.0235 -0.0239
19855W        W62767  22.629   0.334   6.213 -0.0943 -0.0194  0.0645
19856W        W62768  23.955   1.890   3.849  0.0714  0.2697  0.0385
19857W        W62769  24.433   4.051   6.914  0.0913  0.0758  0.0274
19858W        W62770  24.230   3.496   4.174  0.3641  0.2746  0.1792
19859W        W62771  27.445   0.009   5.705  0.0897 -0.0930 -0.2416
19860W        W62772  23.961   1.340   4.542  0.0791  0.1062 -0.1885
19861W        W62773  24.984  34.015   7.093 -0.0789  0.0505  0.3140
19862W        W62774  23.444   3.467   7.390  0.0079  0.2495  0.0912
19863W        W62775  24.423   3.528   5.579  0.1762  0.1225  0.0290
19864W        W62776  22.748  34.688   3.923 -0.0385  0.1417 -0.1038
19865W        W62777  24.721   0.022   4.789  0.0816 -0.1369 -0.0302
19866W        W62778  24.051   0.848   4.516  0.0736 -0.2468  0.0136
19867W        W62779  23.457   1.351   5.949 -0.0908  0.2509  0.3975
19868W        W62780  23.225   1.045   5.589  0.1891 -0.1480 -0.2661
19869W        W62781  23.749   2.507   7.782 -0.2492 -0.1707 -0.3822
19870W        W62782  23.526   4.083   5.602  0.0630 -0.1653 -0.2570
19871W        W62783  24.686   3.986   7.392 -0.2582 -0.2103 -0.0202
19872W        W62784  22.983   0.723   4.339  0.4996 -0.0069 -0.1641
19873W        W62785  24.422   2.995   5.053  0.1640 -0.2233  0.2552
19874W        W62786  24.737   5.374   5.087 -0.3091 -0.1624 -0.0086
19875W        W62787  24.925   2.122   7.543  0.3832 -0.2264  0.0176
19876W        W62788  23.105   3.860   5.703  0.1019  0.1622 -0.5198
19877W        W62789  23.840   2.131   5.501  0.2769  0.0381 -0.1401
19878W        W62790  23.209  34.195   5.610  0.2564  0.0110  0.0523
19879W        W62791  22.235   2.613   3.811  0.0829  0.1961  0.1000
19880W        W62792  23.175   3.278   2.699  0.2217 -0.0689  0.3024
19881W        W62793  24.318   1.642   6.517 -0.1370 -0.2219 -0.0596
19882W        W62794  21.880   2.313   4.431 -0.0391 -0.2867 -0.3177
19883W        W62795  23.097   1.514   4.932  0.1830  0.2587 -0.0357
19884W        W62796  22.443   3.803   7.389  0.1693 -0.0660  0.0952
19885W        W62797  24.151   2.390   5.971  0.2058  0.1155  0.1408
19886W        W62798  22.623   1.624   9.532  0.1843 -0.1406  0.0568
19887W        W62799  21.183   0.377   7.985  0.1663 -0.1276  0.1736
19888W        W62800  26.363   1.145   8.401  0.1947  0.1163 -0.2562
19889W        W62801  25.259   0.961   8.037  0.2081 -0.2824  0.1769
19890W        W62802  22.627   0.541   7.813  0.2049 -0.0139 -0.0711
19891W        W62803  24.032   2.867   8.856 -0.1703 -0.3256 -0.2733
19892W        W62804  24.109   2.170   9.688 -0.1266  0.1845 -0.0535
19893W        W62805  25.474   1.108   8.706 -0.2040  0.0775  0.0364
19894W        W62806  24.126   2.573   7.485 -0.0466  0.0506  0.0095
19895W        W62807  25.003   2.598   9.327  0.0117 -0.0925  0.0097
19896W        W62808  24.296   0.455   7.077 -0.1453 -0.2956  0.0346
19897W        W62809  22.386  33.817   9.514 -0.0848 -0.0041  0.1257
19898W        W62810  23.555   3.450   9.340  0.0121 -0.3107 -0.2796
19899W        W62811  23.120   0.531   7.701  0.1745  0.2488  0.1180
19900W        W62812  23.106   0.629   8.696 -0.1028 -0.0394 -0.0495
19901W        W62813  24.915   0.485   9.058  0.0398  0.3005  0.1250
19902W        W62814  22.776   4.638   7.661  0.2051 -0.2346 -0.0529
19903W        W62815  25.729  34.270  12.662  0.2443 -0.0399  0.1282
19904W        W62816  23.101   3.244   9.129  0.1824 -0.2482  0.1891
19905W        W62817  21.851   0.566   6.496  0.2000 -0.0623 -0.1231
19906W        W62818  22.878   0.410   9.767  0.0228  0.3276 -0.0979
19907W        W62819  22.059   1.534   8.760 -0.3540 -0.3443 -0.3192
19908W        W62820  23.333   0.006   9.438  0.1902 -0.1400  0.1112
19909W        W62821  25.113   1.519   8.868 -0.1495  0.2220 -0.1219
19910W        W62822  22.919   3.106   8.663 -0.3369  0.0947  0.0669
19911W        W62823  24.491   0.845   9.442 -0.0703 -0.1590 -0.1657
19912W        W62824  21.135   2.238   9.484  0.1430 -0.2557 -0.2091
19913W        W62825  21.247   3.008   9.635 -0.3135  0.0270 -0.0514
19914W        W62826  23.004   2.870   8.193 -0.1400  0.0144  0.1452
19915W        W62827  26.137   1.607   8.081 -0.2011 -0.0950 -0.2623
19916W        W62828  21.936   1.389   7.047  0.2165 -0.0986  0.0337
19917W        W62829  24.587   1.296   9.146 -0.1316  0.0881 -0.0297
19918W        W62830  23.307   1.770   9.076 -0.0460  0.1560 -0.1185
19919W        W62831  22.821   3.784   7.824  0.2995 -0.0865  0.2786
19920W        W62832  23.719   3.696   8.860 -0.1709  0.1290 -0.3347
19921W        W62833  20.692   2.017   9.732 -0.1930  0.2464 -0.1698
19922W        W62834  23.296   2.192   8.842  0.0516  0.3332 -0.2935
19923W        W62835  24.079   2.078   7.473  0.2100 -0.1144 -0.0986
19924W        W62836  22.326   0.854   8.959 -0.0699  0.2150 -0.5066
19925W        W62837  23.751   1.693   7.631 -0.1563  0.0528 -0.1120
19926W        W62838  24.356  34.538   9.226 -0.3162  0.0008 -0.1679
19927W        W62839  24.506   4.293   8.698  0.1286 -0.1405  0.3580
19928W        W62840  23.987   1.751   9.257  0.0336 -0.3056 -0.0072
19929W        W62841  24.407   2.659   8.152  0.3140 -0.0664 -0.2490
19930W        W62842  23.051   1.385   9.312 -0.0868 -0.0276 -0.0471
19931W        W62843  22.748   4.883   8.599  0.3153  0.1112  0.0686
19932W        W62844  22.410   1.012   8.026 -0.0548 -0.2523 -0.0885
19933W        W62845  25.016   3.199   6.689 -0.0689 -0.1842 -0.1866
19934W        W62846  25.506   1.835   9.190 -0.1774 -0.1741 -0.0432
19935W        W62847  24.209   3.981   7.699  0.0561 -0.1365  0.0770
19936W        W62848  22.603   2.310   8.991 -0.4220  0.1634  0.2445
19937W        W62849  23.983  34.598   8.205  0.2882  0.0328 -0.0160
19938W        W62850  27.535   0.291   9.586  0.2549 -0.1731 -0.0763
19939W        W62851  23.743   2.530   9.654 -0.3183  0.1389 -0.0458
19940W        W62852  23.684   1.408   8.803 -0.0739 -0.1902  0.2593
19941W        W62853  24.826   2.760   7.824 -0.1399 -0.1527 -0.1084
19942W        W62854  25.964   1.002   8.693 -0.0708 -0.1087  0.0259
19943W        W62855  22.197  32.878   9.704 -0.0740 -0.0813  0.1737
19944W        W62856  22.173   2.431   6.915  0.1734  0.0768 -0.1337
19945W        W62857  23.089   1.889   7.511 -0.1672 -0.1632  0.0356
19946W        W62858  24.643   1.709   8.878  0.0915  0.0484 -0.1827
19947W        W62859  24.167   3.013   8.391 -0.2182  0.0740  0.0390
19948W        W62860  21.368   5.281   9.653 -0.0035  0.3942  0.2139
19949W        W62861  21.366   3.637   6.971  0.1923  0.0160  0.0802
19950W        W62862  21.007   0.207   9.617 -0.1720 -0.1019 -0.0100
19951W        W62863  22.807   2.783   9.110  0.2460  0.1291 -0.0600
19952W        W62864  22.572  34.676  10.018  0.3536 -0.1576 -0.1560
19953W        W62865  23.608   2.174   8.300  0.1054 -0.2634 -0.2606
19954W        W62866  25.454   0.648   8.678 -0.1058 -0.0428 -0.3156
19955W        W62867  26.955   0.678   9.517 -0.0152  0.1851  0.0879
19956W        W62868  21.449   1.942   8.130 -0.0798  0.3876  0.1700
19957W        W62869  27.008   3.168   7.466 -0.2428 -0.0852 -0.0329
19958W        W62870  24.559   1.348   7.285 -0.0679  0.0335 -0.1500
19959W        W62871  25.189   3.531   7.193 -0.3833  0.4183 -0.1416
19960W        W62872  23.843   1.760   9.771 -0.0064 -0.1036  0.0365
19961W        W62873  22.881   1.417   7.678 -0.1397  0.0393  0.1961
19962W        W62874  23.825   0.145   9.613  0.0872 -0.2575 -0.2074
19963W        W62875  22.647  34.087   8.217  0.0735  0.0344 -0.1345
19964W        W62876  23.738   1.908   8.795 -0.1446 -0.1205 -0.1020
19965W        W62877  23.621   1.445   9.331 -0.0766  0.2702 -0.0021
19966W        W62878  20.396   0.590  10.021  0.2996 -0.1237 -0.1351
19967W        W62879  23.747   3.355   7.060 -0.1145 -0.0259 -0.0205
19968W        W62880  26.546   2.508   8.815  0.1264  0.1875 -0.1784
19969W        W62881  25.672   1.827   8.211 -0.0174 -0.1067 -0.0871
19970W        W62882  21.531   0.771   8.765  0.1835 -0.1646 -0.2731
19971W        W62883  21.778  34.539   7.612  0.0780 -0.0707  0.3509
19972W        W62884  21.901   3.740   8.172 -0.1315  0.2276  0.3101
19973W        W62885  23.857   4.004   8.137  0.0327 -0.0136 -0.0343
19974W        W62886  23.189   0.643   8.210  0.2257 -0.0423  0.2137
19975W        W62887  24.975   4.372   8.224 -0.4013  0.0146  0.2950
19976W        W62888  24.233   1.495   8.703 -0.1282 -0.0209  0.0472
19977W        W62889  25.604  33.128  10.011  0.1689 -0.0726  0.3073
19978W        W62890  27.026   0.141  10.335  0.0435 -0.0321  0.0636
19979W        W62891  22.741  34.427   7.879 -0.2256 -0.0575  0.1437
19980W        W62892  24.037   2.937   7.939  0.0558 -0.1147  0.0482
19981W        W62893  22.114   2.431   7.476  0.1460  0.1600  0.0323
19982W        W62894  21.112   1.535   8.178  0.2122 -0.4482 -0.4825
19983W        W62895  22.498   1.333   8.587  0.5265  0.2685 -0.2129
19984W        W62896  24.345   1.531   8.208 -0.2716 -0.1045 -0.0998
19985W        W62897  22.554   1.735   7.351 -0.1230 -0.2027 -0.1772
19986W        W62898  23.978   1.083   7.960 -0.3017  0.0358 -0.4321
19987W        W62899  24.614   1.206   8.591  0.4094  0.1360  0.2972
19988W        W62900  25.608   1.587   8.754  0.0460  0.2075  0.0773
19989W        W62901  24.052   0.248   7.545  0.0548 -0.1815 -0.4364
19990W        W62902  24.834   1.200   7.813  0.1337 -0.3782  0.2653
19991W        W62903  24.060   3.418   8.621  0.2711 -0.0490  0.2481
19992W        W62904  23.592   3.517   9.828  0.0779 -0.1393  0.3452
19993W        W62905  23.421   0.578   6.869 -0.0303  0.0543  0.1667
19994W        W62906  24.775   2.768   8.417  0.0221 -0.0379 -0.1448
19995W        W62907  24.013   1.288   9.632  0.0309 -0.1145 -0.2095
19996W        W62908  25.444   2.544   9.601 -0.1571  0.1887  0.3949
19997W        W62909  24.285  33.351   9.645  0.1565  0.1222 -0.1052
19998W        W62910  21.589   1.048   6.829 -0.0901  0.1865  0.0345
19999W        W62911  23.340   1.005   8.893  0.0688 -0.2551  0.3360
20000W        W62912  22.498   4.344   5.531  0.0537  0.3426 -0.1277
20001W        W62913  23.613   3.041   9.692  0.0086  0.4704  0.1693
20002W        W62914  25.532   1.814   9.736  0.2280 -0.0147 -0.3059
20003W        W62915  24.579   0.615   8.358 -0.0200 -0.2667 -0.0730
20004W        W62916  23.641   2.911   9.203 -0.4497  0.1863 -0.0886
20005W        W62917  22.090   0.545   7.885 -0.0139  0.1913  0.1295
20006W        W62918  22.925   0.171   8.644  0.0655 -0.1309 -0.1139
20007W        W62919  23.107   3.713   9.467 -0.0756 -0.0712  0.2045
20008W        W62920  23.359   1.690   8.516 -0.0917 -0.2981 -0.1426
20009W        W62921  24.778  34.234   8.107  0.1723  0.0574  0.4698
20010W        W62922  22.984   3.291   9.773  0.0953  0.3753  0.4306
20011W        W62923  23.490   2.518   6.593 -0.2241  0.1680 -0.0075
20012W        W62924  23.861  34.636   9.091  0.4623 -0.1449  0.0550
20013W        W62925  21.467   2.508   9.719 -0.1200 -0.3305  0.0929
20014W        W62926  23.372   4.728   7.034  0.1062 -0.1477 -0.2843
20015W        W62927  23.578   0.978  10.021  0.2675  0.0352 -0.0875
20016W        W62928  22.756   2.817   7.631  0.2221  0.2759 -0.2199
20017W        W62929  24.783   0.450   9.594  0.1237 -0.1130 -0.0759
20018W        W62930  24.483   4.432   9.755 -0.3427 -0.0994 -0.1324
20019W        W62931  24.062   0.376   8.082  0.1416  0.0549 -0.0769
20020W        W62932  21.186   0.708   8.430 -0.0034 -0.0748 -0.2521
20021W        W62933  26.542   2.036   9.097 -0.0628 -0.0375 -0.0073
20022W        W62934  24.645   2.500   6.735 -0.2548 -0.1795  0.5765
20023W        W62935  22.425   0.385   8.675  0.0171 -0.0636 -0.0347
20024W        W62936  23.718   0.975   9.292 -0.2266 -0.1362 -0.0742
20025W        W62937  24.122   4.507   8.996 -0.0160  0.2652 -0.1523
20026W        W62938  24.976   0.387   8.488 -0.0631 -0.2022 -0.3717
20027W        W62939  21.842   0.236   6.895  0.0264 -0.1920 -0.0351
20028W        W62940  25.785   0.259   9.601  0.1992  0.0254 -0.0884
20029W        W62941  22.764   1.724   8.482 -0.1067  0.0073 -0.2706
20030W        W62942  23.394   2.621   8.390  0.1356  0.0812 -0.1690
20031W        W62943  24.325   4.707   8.622 -0.1024  0.0932 -0.0269
20032W        W62944  23.849   2.278   7.025  0.0078 -0.1150 -0.0084
20033W        W62945  22.514   2.725   8.564  0.0440 -0.1672 -0.0627
20034W        W62946  25.844   0.727   8.315 -0.1649 -0.1365 -0.0268
20035W        W62947  24.608   0.038   9.832  0.0074 -0.4021 -0.2875
20036W        W62948  23.345   0.175   8.342  0.5128  0.2718  0.1974
20037W        W62949  23.013   1.451   8.153  0.0707  0.4185  0.2196
20038W        W62950  23.600   2.062   9.320 -0.2431  0.0683 -0.0644
20039W        W62951  22.837   1.956   9.224  0.1448 -0.3011 -0.0415
20040W        W62952  24.355  34.371   9.698  0.2169 -0.0147 -0.0723
20041W        W62953  25.768   3.602   7.178  0.0154  0.1565 -0.1958
20042W        W62954  21.626   0.651   7.668 -0.2119  0.2416 -0.0851
20043W        W62955  24.069   3.365   9.640 -0.0766  0.1789 -0.3281
20044W        W62956  23.686   2.978   7.469 -0.1035  0.3274 -0.0295
20045W        W62957  24.862   1.193   9.562 -0.1715 -0.0755 -0.3575
20046W        W62958  22.343   0.849   8.451 -0.2102 -0.2742 -0.2493
20047W        W62959  21.638   2.809   8.003  0.0263 -0.0093 -0.0454
20048W        W62960  22.610   3.258   9.466 -0.0127  0.0804  0.1479
20049W        W62961  25.182   0.338   7.081 -0.0151  0.2189  0.1114
20050W        W62962  24.373   3.902   8.278 -0.0812  0.0007 -0.0344
20051W        W62963  23.538  34.185   8.126  0.0661  0.0362 -0.0301
20052W        W62964  25.019   1.170   7.196  0.2178  0.1775 -0.0018
20053W        W62965  23.237   0.980   9.552 -0.1697  0.0629 -0.0290
20054W        W62966  25.379   2.505   8.547  0.2477 -0.0227 -0.0498
20055W        W62967  23.461   2.844   7.966  0.1462 -0.1496 -0.0551
20056W        W62968  23.114  34.070   7.933  0.0194  0.1460 -0.0337
20057W        W62969  23.306   2.825   8.839  0.0230 -0.2367 -0.0308
20058W        W62970  23.597   3.257   8.882 -0.0741  0.0233 -0.2146
20059W        W62971  21.986   1.523   7.538  0.1898  0.2108 -0.2934
20060W        W62972  25.172   1.374   8.379 -0.0117 -0.0188 -0.2976
20061W        W62973  22.020   2.882   8.398  0.0645  0.0448 -0.1320
20062W        W62974  24.111   1.231   9.129 -0.3094 -0.1318 -0.1494
20063W        W62975  24.996   0.859   8.457 -0.1651  0.3939  0.0988
20064W        W62976  22.615   2.398   8.038 -0.1119 -0.0812 -0.0919
20065W        W62977  25.098   2.028   8.974  0.4550  0.1045 -0.1164
20066W        W62978  25.935   2.656   9.009  0.2342  0.1607  0.1129
20067W        W62979  24.099   2.853   9.473 -0.0469  0.2460 -0.2050
20068W        W62980  25.182   1.600   6.931  0.1637  0.1249 -0.1678
20069W        W62981  24.422   0.504  10.046  0.3148 -0.0232  0.1720
20070W        W62982  26.763   1.050   8.704  0.3787 -0.2426 -0.1555
20071W        W62983  24.497   2.204   7.870 -0.3066  0.1953  0.0204
20072W        W62984  22.952  34.565   6.430  0.2950  0.2336  0.1270
20073W        W62985  23.216  33.865   6.779 -0.1547  0.2275  0.1719
20074W        W62986  23.300   3.639   7.830  0.4972  0.1793  0.1195
20075W        W62987  24.039   2.004   7.948 -0.3228  0.0402 -0.0032
20076W        W62988  23.463   0.859   7.834 -0.4016  0.1559 -0.1365
20077W        W62989  22.944   0.244   8.053 -0.0834  0.1211  0.3452
20078W        W62990  22.313   0.051   7.918 -0.3405 -0.1298 -0.1139
20079W        W62991  24.026   0.373   6.660 -0.0900  0.0935  0.3184
20080W        W62992  22.767   1.069   8.971 -0.2486  0.2770 -0.5215
20081W        W62993  23.837   0.188   8.672 -0.2767  0.0471  0.0833
20082W        W62994  23.220   2.727   7.498 -0.1692  0.0608 -0.3390
20083W        W62995  23.964   1.219   8.433  0.1328 -0.0686 -0.2565
20084W        W62996  22.800   1.994   9.893  0.2142 -0.0167  0.3059
20085W        W62997  24.008   4.220   8.572 -0.1248 -0.0518 -0.2714
20086W        W62998  22.516  32.002   9.482 -0.3094 -0.1231 -0.1212
20087W        W62999  24.599   0.803   8.850  0.0558 -0.1494 -0.2363
20088W        W63000  23.076   2.107   8.352  0.2384 -0.0019  0.1473
20089W        W63001  21.825   2.657   9.395  0.0891 -0.0368 -0.2313
20090W        W63002  24.269   2.044   8.963 -0.0091 -0.2075  0.0367
20091W        W63003  22.858   2.337   7.608 -0.2447  0.0075 -0.3466
20092W        W63004  24.831   0.818   9.948  0.0235  0.1383 -0.1462
20093W        W63005  22.730  33.128   7.773  0.2518  0.1432  0.1817
20094W        W63006  22.955   4.208   7.979  0.2284 -0.3942  0.3178
20095W        W63007  21.934   2.288   9.812 -0.1472  0.0773 -0.0595
20096W        W63008  22.420   3.792   6.795  0.1982  0.2456 -0.1046
20097W        W63009  24.529   3.536   7.662 -0.0431 -0.1867  0.0513
20098W        W63010  23.290   2.493   7.050  0.0171 -0.0721 -0.2356
20099W        W63011  23.926   2.427   9.206  0.0047  0.1068  0.3144
20100W        W63012  22.321   0.209   7.152 -0.0235 -0.1310  0.3315
20101W        W63013  23.118   2.364   9.229 -0.0565  0.1427 -0.0991
20102W        W63014  21.693   3.325   7.220 -0.2868 -0.1124 -0.1757
20103W        W63015  24.505   3.131   7.932  0.1654  0.4634  0.0016
20104W        W63016  22.344   2.043   7.659 -0.0615 -0.3359 -0.0089
20105W        W63017  24.366   0.909   7.466 -0.2324  0.0422 -0.0945
20106W        W63018  26.641   2.259   7.901 -0.5073  0.0184 -0.1091
20107W        W63019  25.505  34.438   8.738 -0.0805 -0.0477 -0.0528
20108W        W63020  22.934   0.964   7.864  0.1446  0.0507 -0.1378
20109W        W63021  22.957  34.343   6.948  0.2492  0.1189 -0.1419
20110W        W63022  24.413   4.771   7.792 -0.1025 -0.3181 -0.1073
20111W        W63023  22.995   1.138   7.296 -0.0355  0.1634 -0.2909
20112W        W63024  22.805   1.888   7.938 -0.0223 -0.0456  0.2235
20113W        W63025  23.530  34.631  10.067 -0.2501 -0.2038  0.1464
20114W        W63026  23.843   1.792   6.730 -0.2191  0.1873  0.3566
20115W        W63027  24.447   1.661   9.542  0.0013 -0.1160  0.2158
20116W        W63028  22.166   4.713   8.368 -0.2318 -0.1113  0.2717
20117W        W63029  24.026   3.604  10.442  0.1399  0.1165  0.1350
20118W        W63030  22.711   2.809   9.707 -0.1503 -0.0934 -0.3886
20119W        W63031  22.567  34.441   7.266  0.0795  0.0071  0.2126
20120W        W63032  26.571   1.747   7.851  0.2683 -0.3298 -0.3000
20121W        W63033  21.295   1.732   9.374  0.0203  0.1274 -0.1842
20122W        W63034  23.253   2.392   7.931 -0.1119 -0.1471  0.1861
20123W        W63035  23.472   1.414   8.000  0.1909  0.1600  0.3643
20124W        W63036  23.212   1.803   9.573 -0.1643 -0.0516  0.0516
20125W        W63037  22.947   1.054   8.488 -0.1384 -0.1097 -0.0016
20126W        W63038  23.535   0.883   7.291 -0.1370 -0.1603 -0.0377
20127W        W63039  25.842   2.349   7.484 -0.1233  0.3308 -0.0558
20128W        W63040  23.416  33.893   8.554 -0.0843 -0.1433  0.0839
20129W        W63041  23.035   0.195   6.967 -0.2612 -0.1954 -0.1838
20130W        W63042  22.118   2.815   7.860  0.2911 -0.1477 -0.1941
20131W        W63043  20.867   2.474   9.879  0.1281 -0.0049  0.0641
20132W        W63044  22.045   0.441   9.128 -0.0028  0.0734  0.2268
20133W        W63045  24.679   1.620   6.887  0.2868  0.2615  0.1288
20134W        W63046  25.617   0.581   7.840 -0.1740 -0.0209 -0.2340
20135W        W63047  23.052   3.035   7.121  0.0800 -0.2661 -0.2178
20136W        W63048  24.082   1.582   7.192 -0.1452 -0.0912 -0.1432
20137W        W63049  24.927   3.542   9.224  0.0254 -0.0916 -0.1222
20138W        W63050  22.683   0.575   9.188  0.3763 -0.1127 -0.1943
20139W        W63051  26.340   1.282   8.934 -0.0610  0.2428 -0.1767
20140W        W63052  25.487   2.384   9.039 -0.2585 -0.1253  0.1417
20141W        W63053  23.687   0.668   8.237 -0.0469  0.1503 -0.0406
20142W        W63054  21.173   0.416   8.852  0.1208  0.3330  0.0593
20143W        W63055  23.210   3.315   8.208 -0.3244 -0.0558 -0.3104
20144W        W63056  27.053   0.142   9.420  0.1074  0.1585  0.2690
20145W        W63057  23.443   4.136   7.927 -0.2025  0.1495  0.2694
20146W        W63058  23.092   4.364  10.085  0.0586 -0.2027 -0.2299
20147W        W63059  21.428   1.496   6.729 -0.1558  0.2017 -0.0678
20148W        W63060  24.209   4.288   7.291 -0.1054  0.1441  0.0439
20149W        W63061  23.666   3.301   7.904  0.2274 -0.3765 -0.0685
20150W        W63062  23.707   2.456   8.801  0.1892  0.1399 -0.1089
20151W        W63063  25.063   1.010   8.988  0.0103  0.1126 -0.2648
20152W        W63064  24.765   1.648   8.421  0.0015 -0.3966 -0.0998
20153W        W63065  24.060   0.750   9.682  0.0668 -0.0727 -0.0539
20154W        W63066  26.834   0.958   8.153 -0.3370  0.0285 -0.1492
20155W        W63067  24.553   0.397   7.853 -0.1138  0.1410 -0.0743
20156W        W63068  22.699   1.112   9.497  0.0911  0.0504 -0.0649
20157W        W63069  21.564   1.584   7.832 -0.1012  0.2306 -0.1420
20158W        W63070  21.578   1.619   8.535 -0.1634  0.2844 -0.1344
20159W        W63071  21.691   2.427   8.880 -0.1645 -0.1655 -0.0309
20160W        W63072  22.147   1.782   9.177 -0.0512 -0.0053 -0.1409
20161W        W63073  23.586   0.244   7.939  0.0022  0.3337  0.0211
20162W        W63074  23.886   2.600   8.280  0.3548 -0.1752  0.1932
20163W        W63075  23.701   0.483   9.260  0.0485 -0.0632  0.0081
20164W        W63076  22.285   0.848   9.451 -0.0590  0.4832 -0.0709
20165W        W63077  23.678   3.058   8.375 -0.3452 -0.1765 -0.2664
20166W        W63078  25.316   3.472   7.935  0.1345 -0.2181  0.1632
20167W        W63079  23.698  33.436   8.516  0.0010 -0.1395 -0.1121
20168W        W63080  21.290   2.802   6.817 -0.2280  0.1468  0.1859
20169W        W63081  22.277   0.781   6.362  0.0666  0.0511  0.3231
20170W        W63082  24.200  34.049   9.323  0.2467 -0.1414 -0.0354
20171W        W63083  24.514   2.998   8.778  0.2599  0.1730  0.1057
20172W        W63084  23.956   4.562   6.947 -0.1039  0.3973 -0.1315
20173W        W63085  21.084  33.807  10.190  0.1665 -0.0829 -0.0848
20174W        W63086  24.548   3.423   8.353 -0.1135 -0.0902  0.0159
20175W        W63087  25.347   2.409   7.753  0.0109  0.0141 -0.2103
20176W        W63088  26.320  34.242  10.234 -0.2099  0.1656  0.1212
20177W        W63089  24.837   2.423   8.864  0.0076  0.1535 -0.0228
20178W        W63090  26.579   0.396   9.297 -0.1865  0.2031  0.1148
20179W        W63091  23.111  34.348   8.341 -0.1551 -0.0576 -0.0272
20180W        W63092  24.266   1.495   7.721  0.2442  0.0288  0.3321
20181W        W63093  23.671   4.817   7.413 -0.0010  0.0829 -0.0761
20182W        W63094  22.703   0.552   8.316 -0.1698 -0.0503 -0.1424
20183W        W63095  23.429   1.290   7.528  0.0279 -0.1867 -0.0570
20184W        W63096  24.356   1.067   9.908  0.1045  0.0460 -0.1459
20185W        W63097  23.420   1.912   7.948 -0.3073  0.2141 -0.0705
20186W        W63098  27.574   1.425   7.252 -0.0472 -0.1588  0.0415
20187W        W63099  22.544   4.304  10.039  0.0283 -0.2357 -0.1784
20188W        W63100  23.440   3.925   9.196  0.1239 -0.4535  0.2158
20189W        W63101  25.004   2.804   9.826 -0.2205  0.1592  0.0873
20190W        W63102  21.857  33.982   9.551  0.1176 -0.0728 -0.1636
20191W        W63103  22.481   1.168   7.536 -0.1121  0.1600  0.1903
20192W        W63104  23.819   1.679   8.274  0.0104  0.0511 -0.1384
20193W        W63105  22.597  33.753  10.018  0.1409 -0.0515  0.1203
20194W        W63106  23.417   0.156   8.933  0.2172 -0.0965  0.0535
20195W        W63107  24.105   0.649   8.570 -0.1949  0.0379  0.1736
20196W        W63108  25.536   5.364   8.967  0.1922 -0.1028 -0.1153
20197W        W63109  23.037   1.442   8.808  0.0165 -0.0843 -0.3523
20198W        W63110  23.388   6.263   3.052 -0.0800  0.2269  0.0593
20199W        W63111  23.792   4.634   0.362 -0.1915  0.2946  0.1831
20200W        W63112  24.228   5.489   1.205 -0.2354 -0.4309  0.0099
20201W        W63113  25.029   6.369   0.147 -0.0443  0.0972  0.1078
20202W        W63114  22.807   5.070   1.016  0.0239  0.0094  0.0531
20203W        W63115  24.364   7.920   1.605 -0.0678 -0.2233  0.0266
20204W        W63116  22.751   4.972   2.245 -0.0072 -0.1617  0.0032
20205W        W63117  24.757   6.364   1.946 -0.1711  0.1236  0.2173
20206W        W63118  25.553   9.054   2.560 -0.3437  0.1704 -0.0684
20207W        W63119  23.509   7.112   0.625 -0.1405 -0.1691 -0.0973
20208W        W63120  22.940   5.567   3.196  0.0334  0.0885  0.0804
20209W        W63121  22.852   7.506   2.461  0.0813 -0.2292  0.0876
20210W        W63122  23.286   3.998  31.605  0.0749 -0.0258 -0.0963
20211W        W63123  22.332   4.574   2.232  0.1929  0.1176  0.0018
20212W        W63124  24.632   5.760   1.381 -0.1951  0.1191  0.2573
20213W        W63125  22.424   5.031  31.542  0.0040 -0.0057 -0.5786
20214W        W63126  23.008   5.385   3.735 -0.1877 -0.1391  0.2433
20215W        W63127  24.336   3.036   2.294 -0.4873  0.1425 -0.0181
20216W        W63128  24.881   6.830   0.601 -0.0889 -0.2679 -0.0665
20217W        W63129  23.255   4.984   2.012 -0.4065  0.0348 -0.0313
20218W        W63130  24.520   4.227   2.709  0.0418 -0.4306  0.1223
20219W        W63131  22.375   5.954   0.289  0.3213  0.1001 -0.0627
20220W        W63132  21.675   6.332  31.301  0.0566 -0.0752  0.0190
20221W        W63133  22.304   4.306   0.923 -0.0095 -0.2401 -0.0985
20222W        W63134  22.544   3.468   0.450  0.1060  0.1370 -0.0529
20223W        W63135  24.911   4.480   2.377  0.2648 -0.8711 -0.0396
20224W        W63136  24.907   5.766   0.904 -0.1551  0.1052  0.0556
20225W        W63137  23.427   6.438   2.014  0.0251 -0.0720  0.0907
20226W        W63138  24.020   8.060   0.398  0.0556  0.0737  0.1590
20227W        W63139  22.519   5.200   4.524 -0.0719  0.2057 -0.1858
20228W        W63140  22.665   5.838   1.803 -0.0533 -0.1340 -0.3645
20229W        W63141  20.888   6.403   2.019  0.1906 -0.3265 -0.0194
20230W        W63142  24.730   6.532   1.052  0.0241  0.4642  0.1654
20231W        W63143  24.792   5.352   0.602  0.0564  0.2159 -0.2410
20232W        W63144  24.930   7.148   3.556 -0.0455  0.2099  0.0277
20233W        W63145  20.914   7.416   3.787  0.0593  0.1716  0.1191
20234W        W63146  22.754   6.587  30.575  0.1066  0.2385 -0.1656
20235W        W63147  24.131   7.538   3.644 -0.0780 -0.1462  0.0962
20236W        W63148  22.788   7.820   3.568  0.0704 -0.0486 -0.0734
20237W        W63149  23.975   5.297   1.723 -0.2729 -0.1100  0.2549
20238W        W63150  24.312   5.182   0.702  0.0985  0.2256  0.0460
20239W        W63151  24.153   6.566  31.706 -0.0675  0.1271  0.0634
20240W        W63152  22.785   6.096   0.651 -0.2324  0.0319 -0.0752
20241W        W63153  23.652   6.091   3.733 -0.0172  0.1962  0.1599
20242W        W63154  22.998   6.217   1.923  0.0159 -0.0483  0.1422
20243W        W63155  25.116   4.887   2.619 -0.2547 -0.0068  0.3604
20244W        W63156  21.558   6.556   1.331  0.3640 -0.1099 -0.2821
20245W        W63157  24.284   4.900  30.910 -0.1365 -0.2614 -0.0670
20246W        W63158  21.516   3.635  31.728  0.0072  0.0011 -0.2440
20247W        W63159  23.663   5.110   0.338 -0.2979 -0.2000  0.2209
20248W        W63160  23.317   5.252   1.551 -0.0739  0.2907  0.0202
20249W        W63161  22.478   6.329   1.871  0.2563  0.0701 -0.0445
20250W        W63162  23.175   4.389   1.808 -0.0620 -0.0551 -0.1294
20251W        W63163  23.906   5.667   3.507  0.0592 -0.1954 -0.1312
20252W        W63164  23.378   4.068   0.461  0.1679 -0.2180 -0.3246
20253W        W63165  25.013   5.408   1.767  0.4049 -0.2370 -0.1683
20254W        W63166  23.717   6.927   2.488  0.1742 -0.4242 -0.2161
20255W        W63167  21.777   4.448   2.175 -0.0755  0.1100  0.1700
20256W        W63168  24.293   7.589   0.305 -0.4165  0.3026  0.1276
20257W        W63169  25.955   7.900   1.063 -0.0238  0.0018  0.2531
20258W        W63170  22.551   7.259   0.342 -0.1172  0.0843  0.0643
20259W        W63171  22.335   5.223   1.219 -0.0809 -0.0597 -0.1307
20260W        W63172  23.236   7.778   3.351  0.0149  0.1815 -0.3294
20261W        W63173  22.598   6.399   3.596  0.3733  0.1776  0.2093
20262W        W63174  21.903   2.161  31.252  0.0075 -0.1946  0.3526
20263W        W63175  25.568   6.927   2.851 -0.3187 -0.0815 -0.1498
20264W        W63176  22.668   7.276   2.871  0.0319  0.1055 -0.1674
20265W        W63177  24.623   5.495   2.180 -0.1392  0.0322 -0.0339
20266W        W63178  23.506   6.439   2.525  0.1472 -0.0513  0.1675
20267W        W63179  23.274   6.203   0.527  0.1163  0.1178  0.0102
20268W        W63180  23.887   6.249  30.854 -0.0300  0.0333  0.1132
20269W        W63181  24.468   4.295   3.660  0.0749 -0.0510 -0.0802
20270W        W63182  23.795   4.839   2.614  0.2299  0.2069 -0.2072
20271W        W63183  23.363   4.278  30.946 -0.0235  0.1170 -0.2429
20272W        W63184  23.918   4.896   0.764 -0.0436 -0.0402  0.0668
20273W        W63185  24.870   8.635   1.957 -0.2676 -0.0034  0.0127
20274W        W63186  24.462   6.147  31.805  0.4745 -0.2013 -0.0002
20275W        W63187  24.004   6.573   3.805  0.1776  0.3144 -0.1006
20276W        W63188  21.659   6.523   4.702  0.0556  0.1302  0.0519
20277W        W63189  21.606   7.129   1.203  0.0272 -0.0787 -0.2261
20278W        W63190  21.310   5.201   1.364 -0.2286  0.1989  0.1176
20279W        W63191  22.317   6.455   0.561 -0.1462 -0.2453 -0.2753
20280W        W63192  22.226   3.709   2.332 -0.0825 -0.0814  0.0834
20281W        W63193  23.751   6.077   0.926  0.2146 -0.0041  0.1641
20282W        W63194  24.951   4.261   1.573  0.0148 -0.1205 -0.0082
20283W        W63195  20.919   4.298   3.080 -0.1568 -0.3203 -0.2021
20284W        W63196  26.393   2.600   1.818 -0.1398 -0.1463  0.2706
20285W        W63197  21.673   6.042   0.849  0.2620  0.0150  0.1252
20286W        W63198  25.196   7.169   1.986  0.2551 -0.2003  0.1223
20287W        W63199  25.682   4.398   0.574  0.0926 -0.0618  0.1065
20288W        W63200  25.198   7.596   0.578  0.1705 -0.2845 -0.1947
20289W        W63201  22.424   5.621   2.548 -0.1041  0.0366 -0.1358
20290W        W63202  22.273   5.037   1.686 -0.1025 -0.4199 -0.1751
20291W        W63203  23.312   3.703   3.064 -0.2323 -0.2489  0.0478
20292W        W63204  21.669   3.987   2.429 -0.1692  0.2222 -0.0348
20293W        W63205  22.886   5.354   2.622 -0.1776 -0.0859  0.0123
20294W        W63206  22.118   3.236  31.593  0.2199 -0.1214  0.1131
20295W        W63207  25.218   5.151   0.487 -0.0119  0.0646  0.0116
20296W        W63208  24.880   6.257   1.418  0.1983 -0.0494 -0.0561
20297W        W63209  21.913   6.144   0.355 -0.0579 -0.2548 -0.1508
20298W        W63210  26.220   5.332   3.841  0.1731  0.0009 -0.1917
20299W        W63211  23.511   6.172   1.410  0.1566 -0.1279 -0.1549
20300W        W63212  25.852   7.697   2.973 -0.3060 -0.1628 -0.0781
20301W        W63213  24.204   7.312   0.791 -0.2161 -0.0889  0.1520
20302W        W63214  23.039   3.493   3.448  0.3197  0.0581 -0.2372
20303W        W63215  23.761   3.974  31.328 -0.3428  0.1453  0.0671
20304W        W63216  22.854   6.670   1.760 -0.1264  0.1652  0.3213
20305W        W63217  22.355   7.392   2.394  0.2800  0.1179  0.2311
20306W        W63218  23.005   3.981   0.139  0.0515  0.1945 -0.3891
20307W        W63219  24.224   6.727   0.781  0.0964 -0.2036  0.0744
20308W        W63220  23.305   5.310   0.932  0.0137  0.2142  0.0083
20309W        W63221  22.309   7.029   3.110 -0.1757  0.3317 -0.0463
20310W        W63222  24.107   4.232   3.300  0.0349  0.1455 -0.4054
20311W        W63223  24.297   6.047   2.640 -0.1202 -0.0122  0.0346
20312W        W63224  23.892   5.533   2.186 -0.0623 -0.1604 -0.0012
20313W        W63225  22.328   4.274  31.925  0.0022 -0.2278  0.0451
20314W        W63226  24.788   9.107   1.988  0.0611 -0.2162  0.1443
20315W        W63227  22.128   6.088  31.436 -0.2280 -0.0472  0.2142
20316W        W63228  22.881   4.779   0.519 -0.0377 -0.1173  0.0015
20317W        W63229  23.617   6.635   0.887  0.1826 -0.2077 -0.0472
20318W        W63230  24.155   4.528   2.845  0.3179  0.0617  0.1442
20319W        W63231  21.729   5.431   3.414 -0.1002 -0.1476 -0.2089
20320W        W63232  22.900   3.933   1.729 -0.3260 -0.0955  0.3857
20321W        W63233  23.172   5.205   0.464 -0.2777  0.3354 -0.1965
20322W        W63234  22.868   6.773   3.496  0.1975  0.0179 -0.2707
20323W        W63235  24.967   3.827   0.370  0.3243 -0.0712 -0.2559
20324W        W63236  24.884   3.897   1.904 -0.2674 -0.0048 -0.3249
20325W        W63237  22.593   5.893   3.254 -0.3441  0.0270  0.1608
20326W        W63238  24.015   5.264  31.811 -0.2146 -0.0468  0.1992
20327W        W63239  24.109   4.518  31.918 -0.0301  0.0099  0.0499
20328W        W63240  24.404   4.065   0.328  0.0525 -0.1209 -0.0665
20329W        W63241  23.171   7.432   3.026 -0.0975 -0.2666  0.0160
20330W        W63242  23.167   7.919  31.908 -0.0679  0.0947  0.1207
20331W        W63243  23.245   6.028   1.014  0.2252  0.1786  0.0449
20332W        W63244  24.837   4.894  30.775  0.0898 -0.0674 -0.1063
20333W        W63245  24.555   7.724   1.107  0.0459 -0.3304 -0.0174
20334W        W63246  21.640   5.803   3.043  0.1273 -0.2029 -0.0058
20335W        W63247  24.526   6.622   3.595 -0.3210 -0.2012 -0.0362
20336W        W63248  24.029   6.698   2.153 -0.0388 -0.3515 -0.3364
20337W        W63249  25.700   3.651   2.363  0.0094 -0.0255  0.3956
20338W        W63250  23.064   3.489   0.370  0.0631  0.2363  0.1252
20339W        W63251  24.752   3.637   1.457 -0.1703  0.0611  0.1745
20340W        W63252  21.681   6.766  30.716  0.2759 -0.1321 -0.0753
20341W        W63253  25.104   4.144   3.359  0.3533  0.4204  0.0414
20342W        W63254  23.655   4.867   1.702 -0.0275 -0.0755  0.1643
20343W        W63255  24.985   4.246   2.838  0.0806  0.0120  0.1454
20344W        W63256  25.840   4.193   2.418  0.2580  0.0348 -0.2218
20345W        W63257  24.433   4.129   0.792 -0.0540 -0.0072 -0.4002
20346W        W63258  24.280   4.827   1.827  0.2284  0.1943 -0.0212
20347W        W63259  22.124   5.098  31.098  0.2026  0.1265  0.0527
20348W        W63260  23.579   4.304   3.395  0.0264  0.1739 -0.1581
20349W        W63261  22.894   6.275   3.226 -0.0161  0.3430  0.2661
20350W        W63262  23.161   6.313   3.706 -0.0032 -0.2471 -0.1122
20351W        W63263  26.085   7.754   4.068 -0.0816 -0.0050 -0.2041
20352W        W63264  23.498   5.990   0.077 -0.1992 -0.3556  0.4864
20353W        W63265  23.928   5.242   3.225  0.1221 -0.1430 -0.1758
20354W        W63266  24.441   4.232  31.391 -0.0889 -0.1815  0.0344
20355W        W63267  22.250   6.821   1.025 -0.2509  0.1112  0.0285
20356W        W63268  22.005   5.263   0.815 -0.3092 -0.0822 -0.3887
20357W        W63269  23.300   4.261   1.081  0.2125  0.1262 -0.0769
20358W        W63270  23.513   7.961   2.196 -0.2322  0.1367  0.1894
20359W        W63271  23.781   4.851  31.679 -0.0404 -0.1704  0.2156
20360W        W63272  23.909   6.297   1.773  0.1710 -0.0895  0.1041
20361W        W63273  21.893   6.503   0.870  0.3419  0.0542 -0.0708
20362W        W63274  26.268   2.911   1.429 -0.1232  0.1539  0.3124
20363W        W63275  21.497   5.643   1.130 -0.1459  0.1375 -0.0275
20364W        W63276  23.925   4.636   1.182  0.1035  0.2077  0.1572
20365W        W63277  22.948   4.582   1.081 -0.4278  0.1390  0.3804
20366W        W63278  24.769   3.701   0.769  0.0218 -0.6297  0.1072
20367W        W63279  24.289   5.514   0.279  0.1434  0.0018 -0.0410
20368W        W63280  22.114   4.570   1.754 -0.1532 -0.0169 -0.0384
20369W        W63281  24.308   4.955   1.303  0.0690  0.1759  0.5437
20370W        W63282  21.036   6.747   2.467 -0.3265 -0.0526 -0.1455
20371W        W63283  23.751   5.012   2.154  0.0423  0.3408  0.2798
20372W        W63284  26.028   4.188   0.268  0.1827  0.2221  0.2717
20373W        W63285  25.170   6.635   1.937  0.0183  0.0475 -0.0051
20374W        W63286  23.271   5.928   3.415  0.0621 -0.0469  0.1516
20375W        W63287  20.694   4.477   0.836 -0.0729 -0.1591 -0.2429
20376W        W63288  24.830   5.880   1.843 -0.6595  0.1671 -0.0144
20377W        W63289  23.602   4.260   1.494 -0.1049  0.0104 -0.2526
20378W        W63290  22.326   6.062   1.402  0.1901  0.1155  0.0602
20379W        W63291  24.307   8.164   2.521 -0.3833  0.1361  0.0714
20380W        W63292  22.551   5.881  31.751  0.0356  0.1693  0.0135
20381W        W63293  22.446   6.613   1.470 -0.1270 -0.2916  0.2948
20382W        W63294  22.031   4.896   4.515 -0.2837  0.1170 -0.2170
20383W        W63295  24.425   7.421   1.562 -0.1877 -0.0021  0.0064
20384W        W63296  23.599   5.641   1.182  0.2249  0.0670  0.1706
20385W        W63297  23.360   4.856   0.756  0.1104  0.1715 -0.0204
20386W        W63298  24.566   5.207   1.666  0.0297 -0.1135  0.1869
20387W        W63299  25.168   6.641   1.177  0.0496 -0.1778 -0.1800
20388W        W63300  24.644   3.923   3.434 -0.2241 -0.1791 -0.1090
20389W        W63301  22.173   7.628   4.039 -0.0114 -0.2846 -0.2227
20390W        W63302  21.888   3.467   0.183  0.2675 -0.0995  0.0228
20391W        W63303  25.340   9.289   1.135  0.0727  0.0985  0.0574
20392W        W63304  24.223   5.035   2.892 -0.2444 -0.1283  0.0415
20393W        W63305  23.952   5.854   0.468 -0.2127 -0.1393 -0.0364
20394W        W63306  20.744   5.834   2.212 -0.2075  0.1511  0.1444
20395W        W63307  23.076   4.906   0.087 -0.1622 -0.0503 -0.1636
20396W        W63308  24.424   3.908   1.710 -0.1132  0.0420 -0.2780
20397W        W63309  23.626   5.735   1.701  0.1041  0.3005  0.0704
20398W        W63310  22.364   5.637   0.671  0.0192 -0.1496 -0.0709
20399W        W63311  21.562   6.444   3.157  0.1598  0.0522  0.0139
20400W        W63312  25.123   3.397   1.075 -0.1989 -0.0962  0.1611
20401W        W63313  22.475   9.036  31.267  0.1547  0.2965 -0.0145
20402W        W63314  24.401   3.826   1.206  0.2338  0.1185 -0.1459
20403W        W63315  24.265   4.425   4.102  0.0296  0.1892 -0.0224
20404W        W63316  25.276   6.540   0.687 -0.2130  0.1918  0.1064
20405W        W63317  24.867   4.017   3.885  0.0306  0.0802  0.0852
20406W        W63318  23.360   4.759   2.911 -0.1680 -0.2047  0.1608
20407W        W63319  25.514   6.105   0.459 -0.0869  0.1636  0.2331
20408W        W63320  22.571   4.129   2.120 -0.1644  0.0562  0.1438
20409W        W63321  23.903   7.958   3.620 -0.3812  0.1598 -0.0383
20410W        W63322  22.304   5.763   4.207 -0.0931 -0.3116 -0.3874
20411W        W63323  23.334   3.603   0.859  0.1433 -0.2682 -0.2642
20412W        W63324  21.972   4.697  31.965 -0.1678 -0.1167 -0.0165
20413W        W63325  22.022   4.699   1.279  0.0718  0.2201  0.1084
20414W        W63326  25.743   5.472   2.139 -0.0544  0.0765  0.3253
20415W        W63327  21.755   5.584   0.559  0.0173 -0.3854  0.0035
20416W        W63328  25.572   5.144   0.901 -0.2508  0.0181 -0.1926
20417W        W63329  21.945   5.486   2.256 -0.2309  0.2068  0.2239
20418W        W63330  26.333   5.238  31.668 -0.0841  0.2198 -0.2729
20419W        W63331  23.311   6.748   0.341 -0.1093 -0.0269 -0.1127
20420W        W63332  23.208   6.574   1.306  0.3247 -0.2654 -0.0061
20421W        W63333  22.068   3.773   3.273  0.0005  0.2365 -0.0818
20422W        W63334  24.275   6.211   0.536  0.1662  0.0471 -0.3756
20423W        W63335  24.181   4.977   0.191 -0.1798 -0.3252 -0.0282
20424W        W63336  23.439   4.467   2.481  0.1147 -0.1502 -0.0401
20425W        W63337  24.854   6.255   0.660 -0.0196 -0.2822  0.1259
20426W        W63338  24.462   5.152   3.335 -0.2170 -0.3407 -0.2989
20427W        W63339  22.638   3.432   2.474  0.1978 -0.3262 -0.1088
20428W        W63340  24.725   7.854   2.405 -0.1472 -0.0730  0.1499
20429W        W63341  25.235   5.637   0.323  0.0335 -0.1086  0.0481
20430W        W63342  24.058   3.989   2.777 -0.1661  0.0147  0.2221
20431W        W63343  24.657   5.258   1.073 -0.1507  0.0769 -0.4353
20432W        W63344  24.726   4.006  31.815  0.0146  0.4539 -0.2959
20433W        W63345  22.140   3.340   1.264 -0.1108  0.1277  0.1871
20434W        W63346  23.540   4.873   3.500 -0.0420  0.0637 -0.1531
20435W        W63347  23.870   4.607   3.709  0.1172 -0.5166  0.3659
20436W        W63348  24.224   7.832   0.750  0.0599 -0.3586  0.2960
20437W        W63349  23.123   5.830   1.623 -0.1116  0.0235  0.0093
20438W        W63350  24.255   4.593   0.511  0.0950  0.3247 -0.2335
20439W        W63351  20.582   5.069   0.942  0.5787 -0.0216 -0.1609
20440W        W63352  21.729   7.362   3.871 -0.1289 -0.0772 -0.1379
20441W        W63353  22.919   4.406  30.185  0.1940  0.1042 -0.0820
20442W        W63354  24.735   4.739   1.601  0.0352  0.0342  0.3119
20443W        W63355  23.664   5.779   3.111 -0.0612 -0.1171 -0.1014
20444W        W63356  23.827   4.682   3.161 -0.0077  0.0123 -0.1277
20445W        W63357  23.931   4.430  31.454 -0.4860  0.0995 -0.0349
20446W        W63358  23.441   5.416   2.127  0.1031 -0.0822 -0.0346
20447W        W63359  22.168   6.079   0.872  0.0507 -0.2842 -0.2396
20448W        W63360  26.249   3.504   2.025  0.0768 -0.0982 -0.3696
20449W        W63361  22.261   5.533   1.607 -0.0686  0.0198  0.0429
20450W        W63362  22.254   6.888   2.658  0.1524  0.2457 -0.0042
20451W        W63363  23.105   6.745   2.256  0.2071  0.0534  0.1162
20452W        W63364  25.391   4.469   2.447 -0.1986  0.0793  0.0245
20453W        W63365  25.420   4.327   1.354 -0.0166  0.0867  0.1749
20454W        W63366  24.433   4.658   2.305  0.5594 -0.1443 -0.1113
20455W        W63367  25.828   6.605   2.530  0.1310  0.0086 -0.1166
20456W        W63368  25.124   6.238   2.291 -0.4309  0.0533  0.2625
20457W        W63369  21.962   4.967   2.111 -0.0201  0.3042 -0.0572
20458W        W63370  23.421   5.926   2.127 -0.1302 -0.1850 -0.0065
20459W        W63371  25.682   6.811   1.173 -0.1034  0.2995 -0.2897
20460W        W63372  23.723   7.126   2.028  0.2111 -0.0076  0.1498
20461W        W63373  22.306   5.135   2.510  0.1026  0.0960  0.0017
20462W        W63374  22.771   5.628   4.270 -0.0880  0.0598  0.0283
20463W        W63375  23.196   5.584  31.921  0.1823  0.2974 -0.3025
20464W        W63376  25.046   0.918   1.104  0.0507  0.1539 -0.0167
20465W        W63377  21.754   7.236   0.768  0.2221 -0.0023  0.0877
20466W        W63378  22.325   7.817   3.399  0.3266 -0.0331 -0.0313
20467W        W63379  22.649   6.083   2.746  0.0244  0.0798  0.0807
20468W        W63380  21.779   7.769  31.656 -0.5119  0.0800  0.2394
20469W        W63381  22.963   6.010   0.205  0.1259 -0.2200 -0.0593
20470W        W63382  23.076   5.925  31.065  0.0088 -0.0101  0.3565
20471W        W63383  24.394   6.353   1.515 -0.1493  0.2182  0.1182
20472W        W63384  23.881   4.802  31.154 -0.0754 -0.0473  0.0706
20473W        W63385  22.993   6.935   3.058  0.0513 -0.4307  0.2675
20474W        W63386  20.795   5.787  30.506 -0.2380 -0.1588  0.1109
20475W        W63387  24.443   7.114  31.855 -0.2887  0.1345 -0.0519
20476W        W63388  21.943   7.027   1.533 -0.0604  0.1114 -0.1322
20477W        W63389  25.759   7.241   3.207  0.2468 -0.3908  0.1416
20478W        W63390  25.781   3.303   0.314 -0.2298 -0.4001 -0.0074
20479W        W63391  26.155   6.422   2.058  0.0405  0.1312 -0.0308
20480W        W63392  24.791   3.920   2.427 -0.3924 -0.2223  0.1175
20481W        W63393  24.891   7.477   2.716 -0.1051 -0.2900 -0.2403
20482W        W63394  22.971   5.744   2.285  0.1872  0.0210 -0.2195
20483W        W63395  23.106   4.458  31.856  0.1942  0.0687  0.1842
20484W        W63396  23.640   7.492   3.279 -0.1037 -0.1186 -0.1894
20485W        W63397  25.796   4.673   4.820  0.1730 -0.2731 -0.0678
20486W        W63398  21.080   8.665   4.728 -0.2356  0.2910 -0.3436
20487W        W63399  22.691   7.661   0.050  0.1392  0.3096  0.0318
20488W        W63400  23.634   4.289  31.877 -0.0664 -0.2078  0.0791
20489W        W63401  23.998   6.463   1.208  0.1417  0.0837 -0.1432
20490W        W63402  25.736   4.511   4.208  0.1555 -0.1687  0.4467
20491W        W63403  23.217   6.461  30.723 -0.1938  0.0909 -0.2432
20492W        W63404  25.639   4.569   1.805  0.0151  0.0465  0.1318
20493W        W63405  22.018   6.652   3.123 -0.0020 -0.1356 -0.2200
20494W        W63406  23.249   7.190   2.612 -0.3702  0.0748 -0.0051
20495W        W63407  22.617   6.473   2.361  0.2766  0.2992  0.0244
20496W        W63408  21.609   4.283   1.692  0.1121 -0.3862 -0.1175
20497W        W63409  25.899   4.406   1.368  0.3942 -0.1397 -0.0454
20498W        W63410  21.564   6.289   3.927 -0.0384  0.1258 -0.2259
20499W        W63411  23.678   4.305   2.859  0.0353  0.2940 -0.3229
20500W        W63412  22.639   4.689   3.190 -0.0325 -0.0289  0.2726
20501W        W63413  25.450   4.707   0.934  0.1524 -0.0368  0.0543
20502W        W63414  23.440   5.695   2.580 -0.1568 -0.0647 -0.0388
20503W        W63415  22.155   5.110   3.076  0.0184  0.2038  0.0404
20504W        W63416  23.844   5.398   0.756 -0.0669  0.1675 -0.1256
20505W        W63417  25.013   5.605   2.741 -0.0290  0.1397  0.1456
20506W        W63418  23.577   3.326   0.371  0.4274 -0.1044  0.1249
20507W        W63419  23.433   8.187   3.505  0.1634  0.0662  0.3973
20508W        W63420  22.652   3.574   1.393  0.0231 -0.2923 -0.1166
20509W        W63421  24.523   3.521   0.368  0.3687  0.1242 -0.0967
20510W        W63422  22.417   5.411   2.078  0.1891  0.0566 -0.0943
20511W        W63423  22.482   5.988   2.229  0.1684  0.0405 -0.0606
20512W        W63424  26.108   6.949   2.949 -0.0308 -0.1589 -0.1038
20513W        W63425  22.349   2.013  31.462 -0.1380  0.2816  0.0788
20514W        W63426  24.711   7.004   1.040 -0.1347  0.0160 -0.2009
20515W        W63427  26.274   5.167   2.202  0.1284 -0.0090 -0.3446
20516W        W63428  23.570   7.134  31.882 -0.1907 -0.2272 -0.1880
20517W        W63429  24.766   5.412   0.099  0.0533  0.0608  0.2152
20518W        W63430  23.874   8.000   1.353  0.1281  0.0090  0.2971
20519W        W63431  21.368   4.697   2.138  0.0488  0.0463  0.0061
20520W        W63432  25.317   7.554   1.052  0.3440  0.0605 -0.1448
20521W        W63433  24.343   5.657   1.758  0.1603  0.0278 -0.0687
20522W        W63434  23.934   2.108   1.599 -0.2505  0.1061  0.0780
20523W        W63435  24.827   4.951   2.041 -0.3265 -0.0426  0.1129
20524W        W63436  21.502   6.786   0.827 -0.0124 -0.0017  0.0799
20525W        W63437  24.649   5.124   2.538 -0.1059  0.0073 -0.2689
20526W        W63438  24.248   4.732   3.418 -0.2863 -0.0463  0.2421
20527W        W63439  22.312   5.386   0.056 -0.1680  0.1017  0.0077
20528W        W63440  24.374   3.839   3.853  0.1984  0.1280 -0.0861
20529W        W63441  24.305   6.047   2.065  0.3166  0.2634  0.0438
20530W        W63442  23.792   7.083   3.544 -0.1142 -0.0810  0.1083
20531W        W63443  23.142   5.449  31.352  0.2193  0.1706  0.2449
20532W        W63444  24.567   4.370   1.923 -0.2627  0.4587  0.1097
20533W        W63445  23.086   6.599   0.837  0.1347  0.1491 -0.0095
20534W        W63446  23.219   7.140   2.008 -0.3545 -0.1979 -0.2536
20535W        W63447  26.484   6.732   1.793  0.0578 -0.3126  0.0528
20536W        W63448  23.956   5.982   1.363 -0.2769  0.1185 -0.0195
20537W        W63449  26.247   7.218   1.600 -0.1423 -0.0103 -0.0914
20538W        W63450  22.822   2.887   1.091  0.0727  0.0840  0.1719
20539W        W63451  25.645   3.680   1.421 -0.0811  0.1647  0.1801
20540W        W63452  25.661   3.463   0.957  0.0725 -0.2062  0.1129
20541W        W63453  23.463   5.433   3.370 -0.1429  0.0949 -0.1197
20542W        W63454  23.154   6.400  31.966 -0.2357  0.1791 -0.0051
20543W        W63455  22.736   7.055  31.329  0.1521 -0.4993  0.2286
20544W        W63456  23.360   5.667   0.434  0.1390  0.0091  0.0222
20545W        W63457  24.747   3.519   4.115 -0.0406  0.0310 -0.1792
20546W        W63458  22.470   4.786   3.718 -0.1856  0.1621  0.1019
20547W        W63459  22.754   5.455   1.422  0.1669 -0.2024  0.3329
20548W        W63460  23.432   3.769   0.108  0.0014  0.2026 -0.1505
20549W        W63461  24.027   7.582   1.193  0.0376 -0.0147  0.0751
20550W        W63462  23.647   3.717   2.658  0.1535  0.2157 -0.1622
20551W        W63463  22.195   4.175   1.523 -0.0749 -0.0507  0.0174
20552W        W63464  24.820   6.763   1.521 -0.0066 -0.3403  0.0768
20553W        W63465  24.889   6.871   0.077  0.1477  0.0833  0.0053
20554W        W63466  23.207   2.908   0.158  0.1411 -0.1689  0.3839
20555W        W63467  25.953   8.281   3.894 -0.0936  0.2364 -0.0095
20556W        W63468  22.053   7.379  31.140 -0.1993  0.0031  0.1094
20557W        W63469  23.033   6.424   4.181  0.0143  0.1490  0.2285
20558W        W63470  22.790   4.987   1.606 -0.2092 -0.0585  0.0722
20559W        W63471  22.935   4.342  31.294 -0.2119 -0.0279  0.1285
20560W        W63472  22.647   4.909   2.742  0.1942 -0.0846  0.0402
20561W        W63473  24.029   6.199   0.126  0.0374  0.2008  0.3584
20562W        W63474  21.878   5.153  31.656 -0.1107  0.1915  0.2688
20563W        W63475  23.573   7.048   3.103 -0.2037  0.1146 -0.1601
20564W        W63476  23.858   6.151   2.865  0.1157  0.1835 -0.0101
20565W        W63477  22.382   4.173   3.181  0.0757 -0.0210 -0.0787
20566W        W63478  22.833   6.495   0.372  0.0619 -0.0794  0.1677
20567W        W63479  24.351   6.893   1.367 -0.0252  0.0781  0.0325
20568W        W63480  25.161   5.377   1.061 -0.1539 -0.2991  0.1571
20569W        W63481  25.634   2.760   2.172  0.3389 -0.0546  0.0436
20570W        W63482  25.005   4.873   0.056 -0.1048 -0.0300 -0.0970
20571W        W63483  22.911   4.513   2.231  0.0600 -0.0283 -0.1078
20572W        W63484  21.875   6.381   3.538 -0.0980  0.0238  0.0296
20573W        W63485  24.406   6.100   1.032 -0.0272 -0.1679  0.0467
20574W        W63486  22.984   4.294   0.690 -0.3691 -0.0535 -0.2214
20575W        W63487  24.013   4.089   1.114 -0.3393  0.3353  0.1058
20576W        W63488  22.986   7.106   0.683 -0.0250  0.1914  0.0326
20577W        W63489  22.614   5.776   1.068  0.1557 -0.0774 -0.0009
20578W        W63490  24.244   3.636   0.751 -0.1776  0.1421  0.0228
20579W        W63491  23.678   5.184   3.847 -0.0847 -0.0343 -0.1108
20580W        W63492  23.438   6.951   1.531  0.3737 -0.1293 -0.0257
20581W        W63493  24.455   6.411   2.325  0.2641 -0.2147 -0.0891
20582W        W63494  23.924   4.178   0.385 -0.0822 -0.0342  0.2953
20583W        W63495  26.071   5.894   0.159 -0.1452  0.2138 -0.0074
20584W        W63496  24.372   8.002   3.325 -0.0545  0.1649  0.3060
20585W        W63497  25.295   6.356   6.372  0.0042  0.2303  0.1013
20586W        W63498  24.089   6.573   2.637  0.1058 -0.0005  0.1324
20587W        W63499  25.862   4.705   2.328  0.0824  0.2399  0.0869
20588W        W63500  22.889   3.722   2.166 -0.1528  0.0740  0.0678
20589W        W63501  22.851   3.826   0.746 -0.4094 -0.2361 -0.1309
20590W        W63502  23.705   5.088   1.200 -0.0719 -0.1434  0.1754
20591W        W63503  25.265   2.913   1.143 -0.1816  0.3491  0.2637
20592W        W63504  23.250   5.038   2.507  0.2025 -0.2235 -0.1430
20593W        W63505  24.865   4.344   0.522 -0.3686  0.0477  0.1438
20594W        W63506  23.734   8.293   2.582  0.3177 -0.1713  0.1380
20595W        W63507  24.214   7.186   1.998  0.2540  0.1108  0.0585
20596W        W63508  21.824   6.441   5.774  0.4192 -0.0233  0.0960
20597W        W63509  23.290   2.325   5.034 -0.2005  0.1121  0.0164
20598W        W63510  23.504   5.616   3.835  0.0897 -0.2591  0.2578
20599W        W63511  24.796   4.977   4.485 -0.1623 -0.2942 -0.1985
20600W        W63512  22.699   4.395   5.102  0.0066 -0.0103  0.2837
20601W        W63513  23.875   6.284   4.766 -0.2166 -0.3319  0.2252
20602W        W63514  22.864   3.754   6.346  0.2094  0.0997 -0.0262
20603W        W63515  25.939   6.404   5.304  0.0633  0.1539  0.1365
20604W        W63516  24.918   6.511   6.800 -0.1607 -0.1440  0.0270
20605W        W63517  22.818   5.914   3.718 -0.0278  0.1327  0.3614
20606W        W63518  23.291   6.372   5.788  0.0761 -0.1343  0.1434
20607W        W63519  22.299   7.297   6.714 -0.0412  0.4170 -0.0308
20608W        W63520  23.021   4.087   3.751  0.1014 -0.0335 -0.0487
20609W        W63521  21.743   4.764   6.526 -0.0035 -0.1349 -0.0030
20610W        W63522  26.071   4.655   5.231  0.0130 -0.0565  0.0982
20611W        W63523  22.019   5.355   4.392  0.3624  0.0792 -0.0772
20612W        W63524  23.230   6.820   5.328  0.2248  0.2113 -0.2780
20613W        W63525  24.361   4.793   5.720 -0.2872  0.1909 -0.1590
20614W        W63526  22.996   7.183   4.850 -0.1133  0.1317  0.2576
20615W        W63527  23.060   4.228   6.574  0.1332  0.4479  0.0188
20616W        W63528  24.441   5.397   6.443  0.0666 -0.2295 -0.2148
20617W        W63529  22.951   6.914   4.015  0.2607 -0.0584 -0.0499
20618W        W63530  21.588   5.167   2.335 -0.3962  0.0337  0.1934
20619W        W63531  22.125   3.816   4.422 -0.0772  0.1377 -0.0552
20620W        W63532  22.124   6.083   5.513  0.0667 -0.3384 -0.0896
20621W        W63533  25.010   4.877   4.880 -0.1576 -0.1140  0.3985
20622W        W63534  25.700   5.943   5.376  0.1415 -0.0915 -0.0220
20623W        W63535  22.922   6.728   4.513  0.0654  0.2034 -0.3196
20624W        W63536  23.865   6.542   5.497 -0.0283  0.3612  0.1315
20625W        W63537  25.765   6.045   6.221 -0.0737  0.0479  0.2266
20626W        W63538  22.453   7.447   3.671  0.2038 -0.1274 -0.0483
20627W        W63539  21.725   7.873   3.867  0.2592  0.0502 -0.4452
20628W        W63540  23.611   6.313   4.212  0.1368  0.6140 -0.0985
20629W        W63541  26.285   7.057   4.314  0.1568  0.0261 -0.3152
20630W        W63542  25.714   5.854   6.906  0.3588  0.2102  0.0731
20631W        W63543  22.626   6.991   6.894  0.0888  0.1413  0.0012
20632W        W63544  20.568   6.318   3.969  0.0427 -0.0598 -0.2138
20633W        W63545  23.256   7.267   6.393  0.2366 -0.0744  0.0037
20634W        W63546  22.255   6.677   7.045 -0.0386  0.0181  0.3948
20635W        W63547  23.624   5.857   6.439 -0.0448 -0.1243  0.0017
20636W        W63548  23.853   6.705   5.020  0.0740 -0.3412  0.0283
20637W        W63549  23.478   7.517   4.269  0.0903 -0.2120 -0.3253
20638W        W63550  22.807   5.675   5.130 -0.3271  0.1293  0.0878
20639W        W63551  23.682   6.173   6.022 -0.1148 -0.3423  0.0635
20640W        W63552  23.939   7.128   5.279 -0.2112  0.1078 -0.0083
20641W        W63553  24.925   4.421   6.903 -0.0374  0.0350  0.0551
20642W        W63554  21.617   8.064   5.554  0.1106  0.0548  0.3413
20643W        W63555  23.535   5.233   2.891 -0.0098  0.0900  0.0824
20644W        W63556  23.999   3.547   3.648 -0.2159  0.0873 -0.1231
20645W        W63557  24.367   4.853   4.308 -0.0893 -0.0436  0.1455
20646W        W63558  23.869   5.128   5.833  0.0675 -0.1173  0.0701
20647W        W63559  22.977   8.206   6.564 -0.0424 -0.1677  0.3114
20648W        W63560  23.373   4.176   6.060  0.1337  0.1285  0.2022
20649W        W63561  24.533   5.903   5.806 -0.2156  0.2925 -0.2479
20650W        W63562  22.258   6.256   3.255 -0.2907 -0.2018  0.1432
20651W        W63563  25.002   5.837   5.651  0.1849  0.1430 -0.0071
20652W        W63564  22.024   6.900   6.655 -0.2186 -0.3539 -0.0992
20653W        W63565  21.156   6.334   4.877 -0.1203  0.1011  0.1330
20654W        W63566  24.131   7.488   3.173 -0.0452  0.4716  0.0640
20655W        W63567  24.391   6.293   6.660 -0.1060  0.1517 -0.0038
20656W        W63568  24.354   6.959   2.416  0.1822 -0.1420  0.1526
20657W        W63569  23.070   3.784   4.733 -0.0243 -0.1759  0.0274
20658W        W63570  21.377   6.985   6.766  0.0747 -0.1369 -0.0317
20659W        W63571  21.944   5.096   6.268 -0.4260  0.2496 -0.1919
20660W        W63572  23.989   4.067   3.739 -0.0875  0.1497  0.2579
20661W        W63573  23.716   6.687   6.084 -0.0217 -0.1722 -0.1082
20662W        W63574  23.106   7.470   6.848  0.0044 -0.2585 -0.0881
20663W        W63575  24.972   4.427   5.226 -0.1465  0.0862 -0.1745
20664W        W63576  22.288   4.974   5.733 -0.0290  0.0561  0.0669
20665W        W63577  26.117   6.009   5.787  0.1850  0.1451  0.3349
20666W        W63578  24.824   6.146   2.793 -0.0846 -0.2771  0.0276
20667W        W63579  24.523   4.226   5.600  0.5700 -0.2013 -0.0669
20668W        W63580  24.396   4.472   4.709  0.1448  0.0403 -0.3845
20669W        W63581  22.896   4.924   5.045  0.2137  0.1164 -0.3627
20670W        W63582  22.217   5.107   4.032  0.2335 -0.1690 -0.1468
20671W        W63583  26.918   7.059   6.579 -0.2178 -0.1056  0.1571
20672W        W63584  23.912   4.857   4.156 -0.1772 -0.0780 -0.3805
20673W        W63585  21.468   6.385   5.293 -0.3869  0.1881 -0.0426
20674W        W63586  23.110   4.625   6.185  0.0865  0.1600  0.0351
20675W        W63587  25.057   6.166  10.184  0.0947  0.0926  0.0371
20676W        W63588  22.224   8.156   3.806  0.1448 -0.0300  0.3713
20677W        W63589  21.583   7.157   5.782  0.0095 -0.2118 -0.0240
20678W        W63590  22.526   7.223   4.110 -0.0900 -0.0652 -0.3469
20679W        W63591  22.661   3.910   5.296 -0.0437  0.0864 -0.2004
20680W        W63592  23.147   5.952   6.377  0.0847  0.0408 -0.1646
20681W        W63593  24.499   4.801   3.866 -0.1273 -0.3273 -0.2901
20682W        W63594  22.409   5.105   6.483  0.2592 -0.3210  0.2851
20683W        W63595  24.500   4.022   4.325  0.2496 -0.0422 -0.0348
20684W        W63596  21.284   7.073   3.946  0.1340  0.0772  0.0864
20685W        W63597  25.554   6.466   4.044  0.1102  0.0924 -0.3007
20686W        W63598  24.713   5.661   3.220 -0.2973  0.0418 -0.3003
20687W        W63599  25.701   5.499   4.610 -0.2542  0.1297  0.2183
20688W        W63600  21.381   5.307   6.189 -0.1216  0.2112 -0.0197
20689W        W63601  22.011   4.663   4.073  0.0363  0.0016  0.3772
20690W        W63602  21.889   4.656   5.978  0.1296  0.3877  0.0485
20691W        W63603  24.784   5.414   5.566  0.2426 -0.1769  0.1964
20692W        W63604  24.637   6.357   6.256  0.1140 -0.0412 -0.0219
20693W        W63605  22.281   3.468   3.817  0.4016 -0.1856 -0.0725
20694W        W63606  25.121   5.386   4.790  0.1724  0.1837  0.3494
20695W        W63607  23.423   5.217   5.100  0.2510 -0.1343  0.1506
20696W        W63608  21.423   7.158   4.501 -0.1897  0.0934  0.0243
20697W        W63609  25.026   5.080   6.327  0.2174 -0.0804 -0.1278
20698W        W63610  24.709   6.619   2.675  0.3455  0.1003 -0.2393
20699W        W63611  24.097   7.616   5.994 -0.0412 -0.0852 -0.1618
20700W        W63612  25.315   6.404   4.461  0.0477 -0.0490 -0.0571
20701W        W63613  22.092   5.585   5.612 -0.0720  0.0253 -0.3118
20702W        W63614  22.223   5.551   3.418 -0.1622 -0.2929  0.0540
20703W        W63615  22.733   6.999   5.294  0.0763  0.2159 -0.0884
20704W        W63616  22.839   7.340   5.995 -0.3160  0.3371  0.0792
20705W        W63617  23.218   4.945   3.976 -0.2713  0.1047 -0.1219
20706W        W63618  24.626   7.462   6.559  0.1992  0.3135 -0.0523
20707W        W63619  22.104   5.954   4.669 -0.1555  0.1997  0.3801
20708W        W63620  23.128   5.438   6.079  0.1947 -0.0861 -0.0380
20709W        W63621  24.025   3.389   5.815 -0.3737 -0.0656 -0.1965
20710W        W63622  25.474   5.092   7.244  0.0396  0.0115 -0.2089
20711W        W63623  24.464   5.885   4.286 -0.0375  0.1201 -0.0376
20712W        W63624  24.004   2.697   2.236  0.0147 -0.2504 -0.2010
20713W        W63625  24.271   6.781   4.813 -0.4953 -0.4149  0.1749
20714W        W63626  22.655   8.241   3.052  0.0763 -0.2740  0.0373
20715W        W63627  20.680   6.103   5.097 -0.0216 -0.2145 -0.3457
20716W        W63628  23.412   5.190   5.621 -0.2105  0.3174 -0.3638
20717W        W63629  24.478   4.912   5.000 -0.0458  0.1350  0.1163
20718W        W63630  22.223   5.580   7.139  0.0140 -0.0323  0.1258
20719W        W63631  24.021   5.948   6.691 -0.0090 -0.4739 -0.0029
20720W        W63632  22.145   4.014   5.480  0.1075  0.1042 -0.1315
20721W        W63633  21.550   6.528   6.680 -0.2850 -0.0907 -0.0739
20722W        W63634  23.256   5.356   4.252  0.3070 -0.0660 -0.1842
20723W        W63635  25.158   5.981   3.142 -0.0681  0.0919  0.4990
20724W        W63636  24.005   6.291   8.403 -0.0695 -0.0437 -0.1164
20725W        W63637  24.850   6.801   3.174 -0.0099  0.2541 -0.1688
20726W        W63638  22.926   4.525   2.820  0.0648  0.1767 -0.4888
20727W        W63639  23.125   4.459   3.301 -0.1095  0.0097  0.0259
20728W        W63640  21.368   6.422   6.132  0.0616 -0.1065 -0.3276
20729W        W63641  24.809   6.331   3.349  0.1149 -0.0538  0.1134
20730W        W63642  22.988   6.383   6.743 -0.2646 -0.1528  0.0317
20731W        W63643  23.529   3.879   4.488  0.0193 -0.1624 -0.1888
20732W        W63644  26.309   7.321   3.830 -0.2192  0.6354  0.1025
20733W        W63645  21.994   6.010   5.986  0.1479  0.3291  0.2069
20734W        W63646  24.233   6.773   7.376 -0.0428 -0.1610 -0.1379
20735W        W63647  23.845   7.256   4.685  0.0255  0.0771  0.0897
20736W        W63648  23.888   4.704   6.098  0.1225  0.0532 -0.0274
20737W        W63649  22.508   4.686   4.302  0.2213 -0.0600  0.0751
20738W        W63650  23.214   4.605   4.834 -0.1534 -0.2345 -0.1272
20739W        W63651  20.870   7.861   4.062  0.1620 -0.1432 -0.1187
20740W        W63652  24.777   4.899   5.357 -0.0275  0.0047  0.1807
20741W        W63653  24.488   5.286   4.083  0.2085  0.1490 -0.0196
20742W        W63654  23.101   6.835   5.828 -0.2580 -0.0849 -0.2493
20743W        W63655  24.329   5.439   5.814 -0.0667 -0.0851  0.0481
20744W        W63656  25.644   5.185   5.458  0.1165  0.1475  0.4617
20745W        W63657  24.841   5.835   5.014 -0.1801 -0.2792  0.0735
20746W        W63658  22.451   3.957   3.707  0.3602 -0.0175  0.1079
20747W        W63659  23.555   5.698   6.998 -0.3375  0.0474  0.1134
20748W        W63660  22.436   6.692   5.015  0.4672  0.0674 -0.0027
20749W        W63661  22.088   7.664   7.104 -0.0060  0.0656  0.1549
20750W        W63662  25.371   6.085   5.901  0.0589 -0.0103  0.0316
20751W        W63663  22.880   6.551   4.996  0.1150 -0.0896 -0.1758
20752W        W63664  24.109   6.396   7.072  0.2725  0.1643  0.1365
20753W        W63665  22.678   4.372   3.560  0.0989  0.0372  0.5001
20754W        W63666  23.035   7.618   5.213 -0.0855 -0.2209 -0.0552
20755W        W63667  24.929   6.473   4.157 -0.2522  0.1604 -0.0584
20756W        W63668  23.582   4.458   6.503 -0.0424 -0.2064  0.0167
20757W        W63669  24.743   6.319   4.924 -0.1306  0.1909 -0.1621
20758W        W63670  23.581   7.987   3.014 -0.0598  0.1751 -0.1658
20759W        W63671  25.201   6.133   5.063  0.1917 -0.2657  0.0678
20760W        W63672  23.286   7.060   4.392 -0.0904  0.1832  0.2316
20761W        W63673  23.884   4.456   5.654  0.0858  0.1588 -0.0920
20762W        W63674  23.409   8.255   5.791  0.0981  0.1250  0.2558
20763W        W63675  21.100   5.846   4.774  0.3499 -0.0287  0.0413
20764W        W63676  20.271   7.344   4.899  0.3714  0.1356  0.5808
20765W        W63677  23.003   4.935   4.466  0.0130  0.1244  0.1466
20766W        W63678  24.329   5.890   3.139 -0.0108  0.0798  0.1224
20767W        W63679  23.912   4.172   6.162  0.0798 -0.0852 -0.0470
20768W        W63680  24.027   5.556   3.997  0.4657 -0.0229  0.0828
20769W        W63681  22.520   9.057   6.070 -0.0273 -0.1214  0.1137
20770W        W63682  24.926   6.369   5.788  0.0181  0.0288 -0.0063
20771W        W63683  24.801   4.774   3.488  0.1223  0.0642 -0.1073
20772W        W63684  24.574   6.104   5.352 -0.1332  0.2294 -0.0144
20773W        W63685  23.010   6.656   7.205  0.0211  0.4418  0.1008
20774W        W63686  22.192   4.202   2.497 -0.0272  0.1614  0.2640
20775W        W63687  25.759   4.798   6.609  0.3089  0.0335  0.2872
20776W        W63688  22.536   5.301   5.449  0.2128 -0.0008 -0.1136
20777W        W63689  21.045   7.759   4.504  0.1970  0.2893  0.2139
20778W        W63690  23.800   7.251   6.253 -0.3384 -0.2407 -0.0311
20779W        W63691  22.519   6.232   5.218 -0.0968  0.1012 -0.2509
20780W        W63692  21.704   8.255   3.469 -0.0989 -0.2416 -0.0284
20781W        W63693  23.625   5.676   7.950  0.0659  0.2107  0.3599
20782W        W63694  26.639   3.680   6.216 -0.0655 -0.1270 -0.4274
20783W        W63695  24.298   5.686   5.258  0.1438  0.2781 -0.0426
20784W        W63696  23.806   4.237   5.184 -0.2190  0.0011  0.0518
20785W        W63697  25.305   4.704   5.490  0.2738  0.0142 -0.1081
20786W        W63698  25.332   5.861   6.569 -0.0773 -0.1111  0.0866
20787W        W63699  23.452   6.386   6.413  0.2680  0.1885 -0.3965
20788W        W63700  21.982   5.807   7.978  0.2483 -0.2814  0.2469
20789W        W63701  24.177   3.951   5.316  0.1278  0.1120 -0.0601
20790W        W63702  24.673   6.743   4.511 -0.3346  0.0080  0.1001
20791W        W63703  24.439   6.417   5.832  0.1556 -0.0936  0.1610
20792W        W63704  22.915   5.973   4.604  0.0621  0.1609  0.1078
20793W        W63705  21.577   6.038   4.946 -0.0101 -0.4597  0.1260
20794W        W63706  21.434   6.167   4.460  0.4908 -0.0284  0.3390
20795W        W63707  24.208   6.306   5.093 -0.1554  0.1482 -0.1546
20796W        W63708  22.468   6.462   4.559  0.1050 -0.1014 -0.0746
20797W        W63709  23.580   7.548   3.770  0.2564 -0.1825 -0.1919
20798W        W63710  21.837   7.261   8.067 -0.1918  0.0300 -0.0173
20799W        W63711  24.205   2.969   4.196 -0.2096 -0.0147 -0.0511
20800W        W63712  23.759   6.630   2.964  0.1792  0.2902  0.0640
20801W        W63713  23.963   5.203   6.323 -0.2262 -0.2116  0.4371
20802W        W63714  25.708   4.409   6.274 -0.3428 -0.1016 -0.1925
20803W        W63715  24.399   5.651   3.677  0.0026  0.2648 -0.0810
20804W        W63716  24.767   5.491   6.063 -0.0153 -0.1670 -0.0531
20805W        W63717  22.478   4.813   5.296  0.3186  0.1416  0.1756
20806W        W63718  25.234   6.029   4.077  0.0364 -0.0870 -0.0607
20807W        W63719  22.595   5.463   6.791 -0.1028 -0.1696 -0.1081
20808W        W63720  23.831   8.498   7.600 -0.2608  0.1041 -0.0524
20809W        W63721  21.721   6.129   6.440 -0.0416 -0.1269 -0.1497
20810W        W63722  23.042   6.149   5.320  0.0452  0.1465  0.0417
20811W        W63723  22.589   3.140   3.704  0.0829  0.3338 -0.4299
20812W        W63724  22.706   5.810   7.428 -0.1199  0.1128  0.0431
20813W        W63725  24.964   5.997   4.567  0.0588  0.0124 -0.0348
20814W        W63726  22.583   5.783   5.549  0.1351 -0.2145 -0.2251
20815W        W63727  26.064   5.140   4.997  0.0493 -0.1683  0.0826
20816W        W63728  22.421   6.509   6.006 -0.0116  0.3456 -0.3094
20817W        W63729  24.147   5.162   3.695 -0.2301  0.1549  0.0447
20818W        W63730  22.596   6.155   4.141 -0.1968  0.1599  0.1226
20819W        W63731  22.073   6.740   4.258 -0.1662  0.0675  0.4357
20820W        W63732  23.800   4.947   5.373  0.0483  0.0717  0.1562
20821W        W63733  24.136   6.121   3.824 -0.1001  0.3057 -0.0455
20822W        W63734  25.190   5.220   5.247 -0.0539 -0.0415  0.2545
20823W        W63735  24.899   4.526   5.788  0.0709 -0.2498 -0.1066
20824W        W63736  25.628   5.647   5.861 -0.3776 -0.1372  0.3918
20825W        W63737  21.927   5.723   6.752  0.1462  0.0523 -0.2056
20826W        W63738  21.961   3.205   6.487 -0.2815  0.3234 -0.1669
20827W        W63739  24.394   6.719   6.853  0.1314  0.2154 -0.0986
20828W        W63740  25.295   5.449   3.849 -0.1004 -0.3037  0.1501
20829W        W63741  26.817   4.058   5.425 -0.1981  0.2030 -0.0554
20830W        W63742  25.917   6.191   3.596 -0.0005  0.0546 -0.1022
20831W        W63743  23.981   4.016   4.243 -0.0785 -0.2357  0.4146
20832W        W63744  22.479   4.728   4.790  0.1285 -0.1056  0.1271
20833W        W63745  23.897   6.340   7.508 -0.1224  0.1591 -0.0545
20834W        W63746  22.830   3.546   2.944 -0.1717  0.0738 -0.2965
20835W        W63747  25.182   4.207   6.127  0.0296  0.4343  0.1342
20836W        W63748  23.741   6.713   4.480 -0.1677  0.0697 -0.3074
20837W        W63749  25.108   6.795   4.945 -0.3165 -0.0739 -0.0004
20838W        W63750  24.012   4.975   4.672  0.1372  0.0056  0.1178
20839W        W63751  21.786   5.577   6.227 -0.1383 -0.3028 -0.2465
20840W        W63752  22.264   6.621   7.605 -0.2344  0.2394  0.0632
20841W        W63753  21.402   3.975   3.802 -0.1800  0.0628 -0.0333
20842W        W63754  22.339   5.929   3.733 -0.2393  0.0648 -0.0059
20843W        W63755  22.923   6.348   6.103  0.1072 -0.0597 -0.0182
20844W        W63756  25.830   5.940   7.827  0.0578 -0.1373 -0.1374
20845W        W63757  23.569   3.329   5.087 -0.0448  0.3024  0.0521
20846W        W63758  26.497   4.943   5.205  0.3159 -0.3190  0.0990
20847W        W63759  21.082   7.461   6.016  0.0111 -0.0859  0.0190
20848W        W63760  23.781   5.886   5.125  0.2528 -0.1343 -0.0128
20849W        W63761  23.471   7.987   5.064  0.1002  0.0484  0.1196
20850W        W63762  22.431   6.947   6.352  0.0747 -0.2722  0.0321
20851W        W63763  23.780   7.122   4.176 -0.1502  0.3343  0.0395
20852W        W63764  24.295   5.184   5.385  0.0201 -0.2287  0.0072
20853W        W63765  25.818   5.035   4.440 -0.0526  0.1403 -0.0934
20854W        W63766  24.823   5.019   5.907  0.1054  0.0021 -0.1071
20855W        W63767  26.878   3.974   6.496 -0.2639  0.2573 -0.3184
20856W        W63768  24.143   6.183   6.150 -0.1350 -0.0603  0.0865
20857W        W63769  21.454   4.888   4.479 -0.2592  0.1694 -0.0072
20858W        W63770  23.936   6.966   6.867  0.0713 -0.1690 -0.0986
20859W        W63771  25.541   5.883   3.450 -0.0907  0.3729  0.0197
20860W        W63772  22.591   6.950   5.831 -0.4072  0.0278  0.0065
20861W        W63773  20.591   5.357   7.066 -0.1260  0.0264 -0.1118
20862W        W63774  23.591   6.304   7.970  0.0022  0.1143 -0.0313
20863W        W63775  22.771   5.115   4.057 -0.1507  0.1289 -0.1410
20864W        W63776  23.016   3.318   4.500  0.0017  0.2658  0.0593
20865W        W63777  23.413   6.740   3.966  0.0680  0.2368  0.0003
20866W        W63778  21.136   6.563   6.948 -0.2778 -0.1448 -0.2137
20867W        W63779  22.634   7.926   5.433 -0.2106 -0.4246 -0.1043
20868W        W63780  22.158   7.758   5.526 -0.0752  0.1016 -0.1748
20869W        W63781  23.988   6.015   4.379  0.1187  0.2609  0.1777
20870W        W63782  23.346   6.450   4.644 -0.0106  0.1862  0.3498
20871W        W63783  24.081   7.597   6.756 -0.0999 -0.3937 -0.2296
20872W        W63784  23.412   5.968   4.740 -0.1332  0.2233  0.1650
20873W        W63785  22.248   6.654   5.444  0.0133 -0.2823 -0.3292
20874W        W63786  19.616   7.546   3.229 -0.0198  0.0027 -0.2857
20875W        W63787  24.408   7.113   3.600 -0.0640 -0.0726 -0.1234
20876W        W63788  23.424   7.762   5.526 -0.0702 -0.1122 -0.1277
20877W        W63789  24.081   5.641   6.220  0.1628  0.0166 -0.2921
20878W        W63790  24.925   5.022   3.991 -0.2539  0.1979 -0.0968
20879W        W63791  25.796   6.680   3.411  0.3006 -0.0767 -0.1986
20880W        W63792  25.444   5.922   4.700 -0.0206  0.1271  0.1057
20881W        W63793  24.632   6.772   8.310 -0.0141  0.1602 -0.1233
20882W        W63794  22.509   6.450   6.480 -0.0653  0.0614 -0.0528
20883W        W63795  23.575   4.065   3.982  0.1979 -0.0540  0.0924
20884W        W63796  22.899   5.061   6.309  0.2400  0.0119  0.2012
20885W        W63797  24.448   4.918   6.245 -0.1760 -0.2303 -0.0279
20886W        W63798  21.135   6.852   7.428 -0.0161  0.0199 -0.2783
20887W        W63799  25.197   6.921   4.181 -0.2556 -0.0742  0.1857
20888W        W63800  22.354   5.221   4.989  0.2633 -0.2649 -0.1225
20889W        W63801  24.389   6.734   5.377  0.1523 -0.1035  0.0034
20890W        W63802  24.116   4.001   4.779  0.3023  0.0337  0.0478
20891W        W63803  23.911   6.222   2.324 -0.2125 -0.2963  0.3225
20892W        W63804  24.725   6.171   3.817  0.2057  0.2723 -0.1049
20893W        W63805  22.595   7.428   5.509  0.3040  0.1535 -0.1785
20894W        W63806  22.358   7.470   6.173  0.2466 -0.1491  0.0814
20895W        W63807  22.781   7.313   6.515  0.1739 -0.1364  0.0736
20896W        W63808  22.771   3.627   3.882  0.0939 -0.0512 -0.0388
20897W        W63809  25.748   6.074   4.351 -0.1234 -0.3138  0.2645
20898W        W63810  23.075   5.874   5.869  0.0940  0.1794  0.1612
20899W        W63811  24.203   4.546   5.237  0.0687  0.1020  0.2705
20900W        W63812  22.887   4.210   5.991  0.0702  0.1051 -0.3206
20901W        W63813  24.736   5.488   4.478 -0.0143 -0.1011 -0.2386
20902W        W63814  24.185   6.794   6.247  0.1410  0.3429 -0.4406
20903W        W63815  21.930   3.609   6.769  0.2677 -0.0401 -0.1035
20904W        W63816  23.293   5.875   4.257  0.2222 -0.2347 -0.0601
20905W        W63817  25.600   5.116   6.165 -0.2627 -0.1895  0.1622
20906W        W63818  23.898   5.603   2.730 -0.2510  0.0881  0.0921
20907W        W63819  23.781   7.807   7.183 -0.0949  0.1105  0.0436
20908W        W63820  23.663   3.775   4.906 -0.2293 -0.1519 -0.4395
20909W        W63821  22.889   4.590   3.979  0.1803  0.4051  0.2042
20910W        W63822  22.540   6.029   5.976  0.0676  0.1037 -0.1617
20911W        W63823  23.061   5.396   6.685 -0.3238  0.0034  0.0323
20912W        W63824  23.076   7.298   5.578 -0.0308 -0.0201 -0.2861
20913W        W63825  22.502   3.536   4.852  0.0939 -0.0320  0.4089
20914W        W63826  24.414   6.428   3.039  0.1525  0.0108  0.0411
20915W        W63827  25.077   6.653   3.704  0.0020  0.0993  0.4152
20916W        W63828  23.962   7.766   4.147  0.0955  0.2783 -0.1754
20917W        W63829  24.446   5.936   4.773 -0.1698  0.1298  0.1312
20918W        W63830  23.914   7.940   6.338 -0.0290  0.0636  0.1184
20919W        W63831  22.695   5.235   5.884 -0.2462 -0.0192 -0.1544
20920W        W63832  24.084   6.935   5.737 -0.1635 -0.1582 -0.2995
20921W        W63833  25.288   5.689   5.236 -0.1038  0.1076 -0.1069
20922W        W63834  23.735   3.543   4.094  0.0139 -0.1339 -0.2566
20923W        W63835  22.370   3.514   5.311 -0.0059 -0.1171 -0.1973
20924W        W63836  21.682   6.879   3.659  0.2455  0.0899 -0.2139
20925W        W63837  25.073   5.809   3.609  0.0070  0.1277  0.0000
20926W        W63838  26.597   5.363   6.160 -0.0338  0.1854  0.2597
20927W        W63839  23.296   7.186   3.516  0.3072 -0.2363 -0.2733
20928W        W63840  23.618   5.535   5.986  0.1816  0.0192  0.1838
20929W        W63841  22.645   7.923   6.800  0.2375 -0.2483  0.1256
20930W        W63842  23.290   6.392   8.569  0.6488  0.1796 -0.1280
20931W        W63843  21.614   6.816   4.166 -0.3173 -0.1748 -0.3525
20932W        W63844  23.467   6.793   7.059  0.1230  0.0601 -0.0072
20933W        W63845  22.551   6.673   4.120  0.0285  0.2686 -0.0380
20934W        W63846  22.536   5.475   3.774 -0.0341 -0.2350 -0.3810
20935W        W63847  25.381   6.402   5.453 -0.1808 -0.2624 -0.0811
20936W        W63848  24.333   5.450   4.761  0.3006 -0.3544  0.1679
20937W        W63849  25.475   6.839   6.437  0.0712  0.3953  0.2321
20938W        W63850  23.138   4.148   4.230  0.1452 -0.3969 -0.0454
20939W        W63851  25.426   4.843   4.001  0.0753  0.0490  0.1078
20940W        W63852  23.977   4.469   4.503  0.0970  0.1448  0.0604
20941W        W63853  22.117   6.270   6.789 -0.1698 -0.2480 -0.1043
20942W        W63854  23.015   5.417   4.678  0.0765 -0.1777  0.1625
20943W        W63855  21.892   6.029   4.199  0.1463 -0.2713 -0.1675
20944W        W63856  21.894   5.896   3.535 -0.2734  0.2512  0.3455
20945W        W63857  23.400   4.225   6.981  0.0373 -0.0710  0.1215
20946W        W63858  20.661   4.389   5.415 -0.2242 -0.0112  0.0375
20947W        W63859  21.705   7.739   3.327 -0.1975  0.2777  0.1899
20948W        W63860  22.570   4.239   4.145 -0.0973  0.2044 -0.1039
20949W        W63861  23.965   6.323   3.382  0.0972 -0.1915  0.4731
20950W        W63862  23.501   3.277   4.496 -0.0725 -0.0480 -0.1405
20951W        W63863  22.494   5.622   4.699 -0.0544 -0.0103 -0.0770
20952W        W63864  25.494   7.068   5.981  0.1278  0.1257 -0.2076
20953W        W63865  25.641   6.791   5.528 -0.0663 -0.0648 -0.0827
20954W        W63866  23.596   4.303   4.759  0.0013 -0.1835  0.0832
20955W        W63867  24.973   5.950   6.142 -0.0247 -0.1339 -0.0812
20956W        W63868  21.690   7.574   5.422  0.2419  0.0723  0.0961
20957W        W63869  23.389   6.499   7.509  0.2205  0.0935  0.0743
20958W        W63870  23.370   4.680   5.736  0.0268  0.1242 -0.0429
20959W        W63871  21.586   4.776   3.595  0.1229  0.0272  0.1646
20960W        W63872  23.580   6.943   5.688  0.1175 -0.1694 -0.2543
20961W        W63873  24.391   6.434   4.119  0.2492  0.2009 -0.0185
20962W        W63874  23.525   6.631   3.476 -0.2844 -0.0339  0.0829
20963W        W63875  23.542   6.887   6.543 -0.0619 -0.1083 -0.0522
20964W        W63876  23.331   7.468   5.982  0.0093 -0.3861 -0.2671
20965W        W63877  23.049   2.319   6.567 -0.1653  0.2235 -0.4252
20966W        W63878  25.487   6.994   4.669 -0.2695 -0.2297 -0.0284
20967W        W63879  25.772   6.967   4.294  0.0024 -0.1231 -0.1413
20968W        W63880  24.817   5.680   4.007 -0.0970 -0.1588  0.2336
20969W        W63881  21.586   3.232   6.767  0.2353 -0.1282 -0.2264
20970W        W63882  22.971   5.835   6.854  0.0858  0.1801 -0.0204
20971W        W63883  24.014   5.901   5.713  0.3016  0.3518  0.0631
20972W        W63884  23.745   4.718   4.966 -0.2554  0.2318 -0.1868
20973W        W63885  25.247   5.627   4.344  0.1598  0.1371 -0.1738
20974W        W63886  24.119   7.041   2.870  0.1676  0.0726 -0.2233
20975W        W63887  21.772   5.220   5.825 -0.0812  0.1599 -0.0217
20976W        W63888  22.773   6.566   5.518 -0.1972 -0.1221  0.1586
20977W        W63889  23.550   5.398   6.518 -0.0337 -0.0718 -0.1564
20978W        W63890  22.069   6.385   4.970  0.0581  0.1796  0.0475
20979W        W63891  24.367   5.966   7.440 -0.0889  0.3078  0.2387
20980W        W63892  23.367   4.473   3.779  0.1642  0.2198 -0.1978
20981W        W63893  25.320   6.281   3.451  0.1218  0.0515  0.0068
20982W        W63894  23.732   6.865   7.531  0.1115  0.1587  0.1306
20983W        W63895  24.702   7.737   7.705  0.4735  0.0272  0.0447
20984W        W63896  24.038   8.080   7.572 -0.2277 -0.2224 -0.0470
20985W        W63897  25.264   5.129   4.404 -0.1469 -0.0834 -0.1873
20986W        W63898  23.301   4.756   5.277 -0.0092  0.2553 -0.0654
20987W        W63899  23.845   5.459   5.479 -0.0223  0.0933 -0.3316
20988W        W63900  22.084   7.126   5.492 -0.0750 -0.0107  0.0554
20989W        W63901  26.172   5.132   5.580 -0.0205 -0.1466 -0.1016
20990W        W63902  21.880   4.774   5.040  0.1464 -0.1950  0.0435
20991W        W63903  23.286   5.741   5.170  0.0105 -0.0756  0.1243
20992W        W63904  23.066   8.237   5.377 -0.0098  0.1659  0.0014
20993W        W63905  25.959   6.020   4.846  0.0119 -0.0601  0.3320
20994W        W63906  20.815   9.777   9.430  0.1878  0.0813  0.1173
20995W        W63907  22.583   4.750   6.048 -0.0626  0.2475 -0.0657
20996W        W63908  25.397   5.257   6.584 -0.0751  0.2349 -0.2748
20997W        W63909  25.808   4.941   8.207  0.3153 -0.0183  0.1105
20998W        W63910  22.491   5.013   8.211 -0.1868 -0.0846 -0.0287
20999W        W63911  25.477   7.130   9.138 -0.3197 -0.0307  0.0093
21000W        W63912  23.193   7.346   8.948 -0.1030 -0.2014 -0.0570
21001W        W63913  25.401   9.318   9.816 -0.1274  0.1329  0.0215
21002W        W63914  25.305   7.290   8.694  0.2175 -0.0125  0.0182
21003W        W63915  21.635   5.113   9.277 -0.2164 -0.0622  0.0774
21004W        W63916  22.824   4.124   7.483  0.0102 -0.0879 -0.0337
21005W        W63917  21.559   4.248   8.922  0.0102  0.0276  0.0028
21006W        W63918  24.478   5.304   9.437 -0.0879  0.0862 -0.1166
21007W        W63919  22.334   5.603   7.670  0.2393  0.1960 -0.4088
21008W        W63920  21.513   5.277   8.759  0.1345 -0.0784  0.2568
21009W        W63921  23.938   4.521   7.779 -0.1483  0.1973 -0.1097
21010W        W63922  22.418   7.097   9.449  0.2170 -0.1432  0.0373
21011W        W63923  22.038   3.470   9.075  0.0289 -0.0733  0.3733
21012W        W63924  24.268   7.067   8.772  0.0945 -0.0022 -0.4303
21013W        W63925  22.957   4.992   7.029  0.2186  0.0186  0.2316
21014W        W63926  20.969   6.496   9.097 -0.1691  0.2913 -0.1148
21015W        W63927  22.124   3.108   9.451 -0.1010 -0.0290  0.1601
21016W        W63928  23.476   4.324   8.827 -0.1841 -0.0238 -0.2534
21017W        W63929  24.285   5.911   8.421 -0.0922  0.0290 -0.2591
21018W        W63930  22.746   7.517   9.056  0.1541  0.0354 -0.2530
21019W        W63931  24.989   6.069   9.449  0.1456 -0.1287  0.0357
21020W        W63932  22.032   4.978   9.607  0.4472  0.0854  0.2758
21021W        W63933  21.328   7.309   8.660  0.1179 -0.0995 -0.0605
21022W        W63934  23.319   5.162   9.330  0.1272  0.1588 -0.1528
21023W        W63935  23.962   6.604   7.956 -0.1848 -0.1421  0.0146
21024W        W63936  23.113   6.911   6.768  0.2062  0.0754 -0.2183
21025W        W63937  22.616   3.679   8.923 -0.0667 -0.0035  0.0819
21026W        W63938  22.035   4.849  10.188 -0.1720  0.1303  0.0412
21027W        W63939  24.853   7.015  10.067  0.1376  0.0280 -0.0833
21028W        W63940  23.510   5.986   7.567  0.2061  0.0759 -0.1144
21029W        W63941  21.955   6.620   8.471 -0.1253 -0.1009 -0.0443
21030W        W63942  23.185   7.476   8.457 -0.3057  0.0531 -0.1069
21031W        W63943  23.766   4.965   6.713 -0.1177  0.3599 -0.1558
21032W        W63944  23.293   4.837   6.560 -0.0696  0.2435 -0.1382
21033W        W63945  24.478   4.615   6.954 -0.1120 -0.2892 -0.2701
21034W        W63946  21.640   2.154   9.385  0.0564 -0.1191 -0.2860
21035W        W63947  24.690   7.496   9.620 -0.3041 -0.0337  0.1707
21036W        W63948  23.691   5.513   9.386  0.2074 -0.3494 -0.0138
21037W        W63949  23.584   5.244   8.839 -0.0004 -0.1622 -0.1484
21038W        W63950  24.031   6.184   9.847 -0.1940  0.1941  0.2578
21039W        W63951  23.048   5.971   8.814  0.1428 -0.2956  0.1794
21040W        W63952  21.538   4.066   9.368 -0.2415  0.2281 -0.0428
21041W        W63953  25.569   7.371   6.922  0.0723 -0.4533  0.1728
21042W        W63954  25.940   6.495   9.530  0.1927 -0.0898 -0.2085
21043W        W63955  24.696   6.834   7.352 -0.0020 -0.0818 -0.0479
21044W        W63956  22.348   4.289   8.679  0.0566  0.1695 -0.0318
21045W        W63957  23.220   3.414   6.015  0.0705 -0.2587  0.2309
21046W        W63958  24.189   5.169   7.646 -0.1070  0.1800 -0.1008
21047W        W63959  22.908   5.174   9.615 -0.0691 -0.4115  0.0681
21048W        W63960  25.792   7.605   9.582  0.0981  0.1062 -0.1597
21049W        W63961  25.223   6.217   9.027 -0.1347  0.0291 -0.2319
21050W        W63962  24.459   3.506   8.970  0.1579 -0.0216  0.0782
21051W        W63963  24.486   3.580   9.452 -0.1595  0.0837  0.1000
21052W        W63964  22.083   5.150   8.004 -0.1392 -0.1095  0.0941
21053W        W63965  22.497   6.074   9.125 -0.3442  0.0963 -0.3334
21054W        W63966  25.552   6.697   9.302 -0.0338  0.0272 -0.1114
21055W        W63967  24.502   5.883   6.295  0.0440 -0.1317 -0.2164
21056W        W63968  21.208   6.116  10.064  0.0493  0.0238 -0.0101
21057W        W63969  22.723   5.242   7.840  0.1338 -0.1446 -0.0169
21058W        W63970  23.528   6.153   9.528  0.3044 -0.1624  0.2657
21059W        W63971  24.333   6.691   9.684 -0.0107 -0.0049  0.1898
21060W        W63972  20.903   1.404   9.337 -0.0352  0.2387  0.3642
21061W        W63973  24.143   6.808   8.362  0.1649  0.0535 -0.1576
21062W        W63974  25.199   4.006   8.530 -0.1440  0.2101 -0.2415
21063W        W63975  24.246   4.412   8.230 -0.1790  0.1528 -0.1128
21064W        W63976  23.087   6.522   9.020 -0.1186 -0.0215  0.0905
21065W        W63977  25.076   8.031   7.860 -0.0785 -0.0618  0.0353
21066W        W63978  24.872   5.681   7.037 -0.1283  0.1871 -0.3270
21067W        W63979  23.926   6.483   6.589  0.0493  0.0502 -0.2934
21068W        W63980  23.072   2.958  12.034 -0.1877  0.3569 -0.0305
21069W        W63981  22.875   5.380   8.334  0.1030 -0.0390 -0.0770
21070W        W63982  21.625   3.734   8.933  0.1500  0.1319 -0.0886
21071W        W63983  22.335   2.417   6.400  0.0468  0.1017 -0.4793
21072W        W63984  24.916   4.623   6.382  0.2654 -0.3804 -0.1901
21073W        W63985  22.696   6.416   7.628  0.0431  0.0044  0.2005
21074W        W63986  22.210   6.129   8.284 -0.2732  0.0038 -0.3226
21075W        W63987  24.328   8.553   7.742  0.0201 -0.0081  0.1794
21076W        W63988  25.916   6.243   9.962  0.2096 -0.0986 -0.1639
21077W        W63989  24.505   8.253   9.719  0.1930  0.1661  0.2617
21078W        W63990  22.253   3.788   8.492  0.2035  0.1981  0.1061
21079W        W63991  22.056   5.163   6.865 -0.0148  0.2281 -0.0860
21080W        W63992  22.571   7.534   8.051 -0.0061 -0.1745 -0.0094
21081W        W63993  22.808   5.664   9.116  0.1363 -0.1421 -0.0425
21082W        W63994  22.468   4.199   7.823 -0.0682  0.0283  0.1863
21083W        W63995  26.550   9.891  10.199  0.0248 -0.0008  0.1356
21084W        W63996  23.390   5.485   8.392  0.0971 -0.1255  0.0200
21085W        W63997  25.562   4.802   9.523 -0.1938  0.0177  0.1172
21086W        W63998  23.695   4.329   9.277  0.2014 -0.0974 -0.0463
21087W        W63999  22.265   2.916   7.293 -0.1735  0.0002 -0.1522
21088W        W64000  25.906   8.760  10.061  0.2087  0.1079  0.1152
21089W        W64001  21.377   7.299   7.232  0.1481  0.3441 -0.2564
21090W        W64002  20.956   3.184   9.152 -0.2305 -0.1576 -0.0472
21091W        W64003  24.129   6.999  10.069  0.0585  0.0891  0.0563
21092W        W64004  24.874   4.824   8.696 -0.0188 -0.2381  0.1351
21093W        W64005  21.675   4.959   7.086 -0.0116  0.1936  0.0484
21094W        W64006  23.245   4.559   7.503 -0.0228 -0.0785  0.0992
21095W        W64007  24.905   4.696   7.831 -0.1554  0.1029 -0.2713
21096W        W64008  26.034   6.190   9.186  0.0025  0.2209 -0.1375
21097W        W64009  23.095   6.125   7.276 -0.0375  0.0198 -0.0891
21098W        W64010  22.736   3.459   6.917 -0.0205 -0.2082 -0.1070
21099W        W64011  24.795   7.286   8.374  0.0644  0.1185 -0.0336
21100W        W64012  23.318   4.746   9.786 -0.1503  0.1932 -0.1106
21101W        W64013  24.003   5.670   7.671  0.2614  0.3605 -0.1722
21102W        W64014  24.283   7.714   7.373 -0.0405  0.1498 -0.0860
21103W        W64015  20.845   3.842   9.139  0.1578  0.0923 -0.1912
21104W        W64016  24.774   7.031   9.438 -0.4303 -0.2164 -0.2526
21105W        W64017  24.225   3.901   8.845 -0.0328 -0.0718 -0.0841
21106W        W64018  23.533   6.000   8.330  0.0336  0.1591  0.2964
21107W        W64019  22.739   3.508   8.441  0.1934 -0.2599  0.1056
21108W        W64020  22.346   8.051   8.032  0.3880 -0.0844 -0.1700
21109W        W64021  23.527   3.988   8.519  0.1476 -0.0280 -0.1101
21110W        W64022  23.119   3.860   8.273 -0.2299  0.1182 -0.0430
21111W        W64023  24.001   5.398   8.124 -0.2085  0.1317 -0.0202
21112W        W64024  24.231   5.093   9.964  0.1263 -0.0152 -0.1602
21113W        W64025  22.802   4.670   6.626  0.1441 -0.1288  0.1854
21114W        W64026  24.575   4.560   9.152 -0.0928 -0.1207  0.1775
21115W        W64027  23.738   7.084   9.661  0.0332  0.1370 -0.0752
21116W        W64028  25.122   6.847   8.530  0.4410 -0.0429  0.1907
21117W        W64029  22.990   3.663   7.368 -0.2837  0.0988 -0.2242
21118W        W64030  22.767   6.781   8.413  0.1808 -0.1832  0.4466
21119W        W64031  23.054   6.865   7.647 -0.3954 -0.0588  0.2194
21120W        W64032  23.937   3.858   9.249  0.0155  0.1394  0.3353
21121W        W64033  21.935   6.735   9.997 -0.2455 -0.3103  0.2381
21122W        W64034  22.583   5.984   7.935  0.0628  0.0720  0.0878
21123W        W64035  21.895   4.862   8.798 -0.3799  0.0758 -0.1023
21124W        W64036  21.939   7.770   7.878 -0.0270  0.1491  0.1073
21125W        W64037  24.052   5.180   8.597 -0.2219 -0.0433  0.2861
21126W        W64038  23.313   6.731   9.618  0.0053 -0.0341 -0.0730
21127W        W64039  23.477   5.449   7.532 -0.0142 -0.3665 -0.2026
21128W        W64040  22.336   5.538   8.203  0.0046  0.3492  0.1810
21129W        W64041  24.659   4.999   7.424 -0.2023 -0.1173  0.0786
21130W        W64042  24.874   5.836   8.815 -0.0136  0.0994 -0.3626
21131W        W64043  22.511   4.168   9.133  0.2432 -0.1307 -0.1832
21132W        W64044  23.638   4.476   8.301  0.1966  0.0423  0.0568
21133W        W64045  20.624   8.780   9.445 -0.0390  0.0623  0.0329
21134W        W64046  25.038   4.225   7.650  0.1960  0.0458 -0.1027
21135W        W64047  21.357   4.510   7.087  0.2201  0.0804  0.1614
21136W        W64048  25.407   6.378   7.743 -0.0990  0.2022  0.1319
21137W        W64049  22.914   4.487   7.151 -0.3273  0.2868 -0.1673
21138W        W64050  22.978   6.149   9.417  0.0252  0.1590 -0.2244
21139W        W64051  24.733   5.257   9.889  0.0628  0.2481  0.0675
21140W        W64052  22.368   4.752   7.109 -0.1267  0.0562 -0.1466
21141W        W64053  23.220   6.985   8.535 -0.2621  0.0283  0.0947
21142W        W64054  25.323   5.896   9.886  0.2135  0.1459  0.4958
21143W        W64055  23.234   4.819   8.820 -0.2736  0.3647 -0.0921
21144W        W64056  23.092   5.507   7.192 -0.1064  0.1895  0.1741
21145W        W64057  22.981   4.864   8.129  0.1229 -0.0447 -0.0652
21146W        W64058  24.146   5.894   9.464  0.1637  0.1295 -0.2406
21147W        W64059  23.026   3.964   8.765  0.0072 -0.1046 -0.1967
21148W        W64060  24.026   3.312   9.166 -0.0610 -0.2030  0.4660
21149W        W64061  25.867   7.236   8.654 -0.1271 -0.1780 -0.2477
21150W        W64062  21.670   5.061   8.305  0.2401  0.3259  0.1822
21151W        W64063  21.239   4.893   8.537 -0.1291 -0.2665 -0.3504
21152W        W64064  21.870   5.846   7.455  0.3095 -0.0893  0.1664
21153W        W64065  23.389   4.984   8.418  0.0619 -0.0358 -0.0965
21154W        W64066  22.690   6.610   9.314 -0.1885 -0.2818 -0.1519
21155W        W64067  22.473   7.043   7.804 -0.3210  0.0152  0.0202
21156W        W64068  22.751   8.345   9.822  0.3384 -0.1623 -0.3865
21157W        W64069  25.231   4.837   6.710 -0.3845  0.1710  0.4171
21158W        W64070  24.454   6.388   7.596  0.1620  0.0194 -0.0668
21159W        W64071  23.090   3.174   7.754  0.0062  0.2666 -0.0511
21160W        W64072  23.864   5.623   8.578 -0.1675 -0.3119  0.0653
21161W        W64073  25.423   7.966   9.801 -0.0031  0.1349 -0.2600
21162W        W64074  23.989   5.457   6.828  0.2189  0.1072 -0.1211
21163W        W64075  22.455   4.324   6.873 -0.1532 -0.2890  0.0352
21164W        W64076  22.964   4.153   9.220 -0.0205  0.2395 -0.0925
21165W        W64077  25.204   7.338   9.629  0.0458  0.1044  0.0616
21166W        W64078  23.151   6.210   7.828 -0.1233 -0.0188  0.2516
21167W        W64079  24.517   5.483   8.864  0.0881  0.0618 -0.3752
21168W        W64080  23.387   5.220   9.804  0.0462  0.0509 -0.2666
21169W        W64081  23.541   5.810   9.860 -0.1370 -0.2406 -0.4149
21170W        W64082  24.538   6.341   8.066  0.0811  0.4487 -0.1801
21171W        W64083  22.471   4.795   9.926  0.2568 -0.0320  0.2670
21172W        W64084  24.993   8.310   9.943 -0.2421  0.2157 -0.1668
21173W        W64085  24.440   2.515   9.139 -0.1869 -0.0928  0.0375
21174W        W64086  23.983   8.065   9.736  0.0276 -0.0608  0.1069
21175W        W64087  24.650   6.312   7.138  0.0022 -0.0326  0.0171
21176W        W64088  24.577   2.979   9.266  0.0841  0.0415 -0.0394
21177W        W64089  25.120   5.514   8.002  0.1786  0.2767 -0.2021
21178W        W64090  23.536   6.194   6.966  0.1253 -0.1146  0.0658
21179W        W64091  21.349   3.338   8.790  0.0366 -0.1802  0.0292
21180W        W64092  23.707   5.169   7.822 -0.1041 -0.1413 -0.0688
21181W        W64093  23.425   7.106   8.051 -0.0945 -0.1824  0.1653
21182W        W64094  23.470   5.739   8.905 -0.2811  0.0035 -0.0662
21183W        W64095  25.074   4.639   9.171  0.1496  0.2379  0.1442
21184W        W64096  22.118   3.926   8.942  0.1653 -0.1340  0.0983
21185W        W64097  22.055   3.971   7.147 -0.0672  0.0148 -0.1827
21186W        W64098  22.303   6.079   7.490 -0.2533  0.0307  0.1075
21187W        W64099  23.038   5.728   7.796 -0.0362  0.3044 -0.1964
21188W        W64100  22.112   3.463   7.602 -0.1086  0.0880  0.0907
21189W        W64101  23.657   6.675   8.324  0.0369 -0.0052  0.1267
21190W        W64102  24.114   3.521   8.036  0.1043  0.1130  0.2205
21191W        W64103  23.729   5.147  10.142 -0.4154  0.2015  0.0709
21192W        W64104  23.752   7.012   8.827 -0.2007 -0.2754  0.0020
21193W        W64105  23.769   4.767   8.635  0.3234 -0.1206  0.0933
21194W        W64106  23.445   4.728   7.935  0.0865  0.2031 -0.3512
21195W        W64107  23.825   6.586   9.543  0.0716 -0.1819  0.3278
21196W        W64108  21.505   7.851   9.686 -0.0359 -0.0883 -0.1032
21197W        W64109  24.449   6.203  10.157  0.2406  0.0966  0.4138
21198W        W64110  21.808   7.097   8.545  0.2368  0.0301 -0.3076
21199W        W64111  24.046   6.548   8.842 -0.2431 -0.2185  0.1917
21200W        W64112  21.783   2.969   7.560 -0.2247  0.2268  0.1277
21201W        W64113  22.419   6.554   8.103  0.0971 -0.1223 -0.1653
21202W        W64114  22.643   4.009   9.655  0.2131  0.1937 -0.2834
21203W        W64115  22.114   7.642   8.304 -0.1868 -0.0188 -0.2033
21204W        W64116  23.673   6.158   8.774  0.2549 -0.3125 -0.3195
21205W        W64117  24.892   6.057   7.892 -0.3253  0.1859  0.0235
21206W        W64118  24.424   8.924   9.021  0.1700  0.1088  0.1501
21207W        W64119  22.623   4.572   8.271 -0.1786  0.0564 -0.1205
21208W        W64120  22.679   6.452   8.828 -0.0201  0.1729 -0.1351
21209W        W64121  21.630   6.613   7.621 -0.0004  0.2580 -0.0265
21210W        W64122  25.431   7.813   9.241 -0.3545  0.1138  0.4500
21211W        W64123  23.310   7.362   9.619 -0.3611 -0.0738 -0.0382
21212W        W64124  26.379   4.526   7.086 -0.1129  0.3069  0.0579
21213W        W64125  25.176   4.876   9.788  0.0508 -0.1739  0.0518
21214W        W64126  26.042   4.350   6.758 -0.1327  0.1115 -0.1220
21215W        W64127  23.040   5.282   8.771  0.0781  0.1045 -0.0277
21216W        W64128  23.496   5.046   6.146 -0.0982 -0.3126 -0.0198
21217W        W64129  24.821   8.509   7.783  0.4285 -0.2096 -0.1291
21218W        W64130  22.320   4.302   7.366  0.1712 -0.0596 -0.0613
21219W        W64131  22.808   4.894   9.119 -0.0028 -0.0482  0.1410
21220W        W64132  24.795   3.833   8.732  0.0818 -0.1251 -0.1192
21221W        W64133  24.102   6.062   7.885 -0.3003  0.3202  0.0373
21222W        W64134  23.655   3.556   8.334 -0.1386 -0.0528 -0.1672
21223W        W64135  23.432   7.619   8.018  0.1182  0.1179  0.0420
21224W        W64136  24.395   7.867  10.092  0.2129  0.2036  0.0693
21225W        W64137  23.219   4.223   9.640 -0.0034  0.1674 -0.0394
21226W        W64138  23.700   3.531   6.524 -0.0444  0.1744 -0.3633
21227W        W64139  26.024   4.183   8.827 -0.0729 -0.0085  0.0738
21228W        W64140  23.649   4.828   9.133  0.0982  0.2607 -0.0842
21229W        W64141  22.701   6.295   8.380 -0.0128  0.1113 -0.4075
21230W        W64142  25.335   2.972   8.427  0.2875 -0.1217  0.0659
21231W        W64143  23.276   3.919  10.032  0.0311  0.2039 -0.0178
21232W        W64144  21.545   3.156   9.199  0.1082 -0.0570 -0.0568
21233W        W64145  23.208   4.593   9.290  0.1378 -0.1791 -0.2718
21234W        W64146  23.525   5.980   5.579 -0.0268  0.1247 -0.1841
21235W        W64147  22.674   4.011   8.332  0.1006 -0.3329  0.1364
21236W        W64148  24.249   5.021   6.707 -0.1479 -0.0615  0.1743
21237W        W64149  19.640   6.448   9.626  0.0240  0.2922 -0.0511
21238W        W64150  22.418   5.184   9.293 -0.1315  0.0457  0.1730
21239W        W64151  22.167   2.164   8.759  0.2338  0.0892  0.3176
21240W        W64152  23.951   7.131   7.899  0.0655 -0.0785  0.0755
21241W        W64153  24.693   5.183   7.915 -0.0979  0.2057  0.3993
21242W        W64154  23.505   7.049   9.243  0.0198 -0.0350 -0.0943
21243W        W64155  24.256   5.041   9.041 -0.3253  0.1141  0.3521
21244W        W64156  24.335   8.783   9.883 -0.4742  0.4780  0.2031
21245W        W64157  21.427   3.658   8.399 -0.0650 -0.1674  0.0728
21246W        W64158  23.602   4.486  10.029 -0.1553 -0.2037  0.1015
21247W        W64159  25.767   8.278  10.048 -0.1755 -0.0441  0.0741
21248W        W64160  22.382   3.754   8.001  0.1195  0.1160  0.2350
21249W        W64161  22.492   5.294   8.750  0.0648 -0.0366  0.0926
21250W        W64162  22.278   6.666   9.112  0.0121  0.3033  0.0180
21251W        W64163  26.255   4.271   9.805  0.0286  0.0959 -0.1728
21252W        W64164  22.287   5.966   6.415  0.1232 -0.4259  0.1007
21253W        W64165  24.371   5.633   9.820 -0.2169 -0.0460 -0.3136
21254W        W64166  21.524   7.088   7.630 -0.2108 -0.1759 -0.2039
21255W        W64167  24.749   6.503   9.445  0.1851 -0.3832  0.0983
21256W        W64168  24.387   7.817   9.431  0.0897 -0.2405 -0.0971
21257W        W64169  24.840   6.521   9.918  0.1337 -0.1024  0.1530
21258W        W64170  24.597   5.555   7.581 -0.2178 -0.1212 -0.0887
21259W        W64171  25.211   6.383   8.185  0.2268  0.1168 -0.1058
21260W        W64172  23.243   3.547   8.661 -0.1838  0.0126 -0.3077
21261W        W64173  24.630   4.791   8.229  0.3156  0.1374  0.0128
21262W        W64174  25.001   3.747   7.700  0.0362 -0.1327  0.1198
21263W        W64175  24.971   4.441   9.685  0.2661 -0.4249 -0.0669
21264W        W64176  20.652   4.642   7.869  0.0849  0.0226  0.0521
21265W        W64177  22.698   5.633   6.292  0.2294 -0.1397 -0.0527
21266W        W64178  21.098   5.644   9.441  0.2090  0.2589  0.0101
21267W        W64179  17.980   5.551   9.742  0.0520 -0.0701 -0.2360
21268W        W64180  21.989   4.477   6.942 -0.2185 -0.2938  0.0677
21269W        W64181  24.655   6.230   9.052  0.3293  0.0002  0.2827
21270W        W64182  23.156   4.424   8.453 -0.0522  0.0872  0.1391
21271W        W64183  22.379   3.219   8.525  0.3499 -0.0887  0.1611
21272W        W64184  24.022   7.331   7.271 -0.1521  0.2370 -0.1949
21273W        W64185  23.420   7.216   7.582 -0.1904 -0.2004 -0.2709
21274W        W64186  23.231   5.280   7.981 -0.4811  0.0681  0.3965
21275W        W64187  22.617   6.268   7.103 -0.1851  0.3033 -0.0783
21276W        W64188  22.107   3.314   8.106 -0.0778 -0.1219 -0.1474
21277W        W64189  24.759   5.043   9.106 -0.2034 -0.0021 -0.1408
21278W        W64190  24.526   7.424   9.086  0.0835 -0.2864 -0.1235
21279W        W64191  23.613   9.613   7.770 -0.1368 -0.0658 -0.1903
21280W        W64192  22.209   2.787   9.076  0.0469 -0.3402  0.0837
21281W        W64193  24.805   5.339   8.401  0.2590  0.0470  0.0469
21282W        W64194  24.590   6.775   9.026 -0.0915  0.0128  0.3786
21283W        W64195  24.095   3.805   9.777 -0.0272  0.0220  0.1009
21284W        W64196  24.024   4.868   8.174 -0.1825 -0.1296  0.1202
21285W        W64197  24.132   6.024   8.870  0.0711 -0.0251  0.0520
21286W        W64198  22.180   4.216   8.212 -0.2141  0.2147 -0.0344
21287W        W64199  23.860   5.283   7.286  0.0653  0.1624  0.1795
21288W        W64200  24.360   7.242   8.150 -0.2807  0.1765  0.1973
21289W        W64201  20.586   3.742   9.709 -0.0805  0.0815 -0.0386
21290W        W64202  23.081   5.106   7.518 -0.0411 -0.0676 -0.2186
21291W        W64203  24.464   6.444   8.646  0.3901 -0.0646  0.3294
21292W        W64204  21.724   5.463   7.799  0.0910  0.0235 -0.1474
21293W        W64205  25.736   5.564   6.354 -0.1939 -0.0999 -0.0678
21294W        W64206  23.801   4.835   9.691  0.0474 -0.2423  0.0666
21295W        W64207  24.287   7.206   9.568  0.0457  0.2612 -0.0733
21296W        W64208  23.979   5.932   7.171  0.0146  0.0741 -0.0287
21297W        W64209  20.363   3.017   8.133 -0.1050  0.0197 -0.0680
21298W        W64210  22.014   5.302   8.527 -0.1795 -0.1979 -0.0456
21299W        W64211  23.019   5.916   8.245 -0.1440 -0.2655 -0.0769
21300W        W64212  23.204   2.803   9.409  0.0682  0.0102 -0.0042
21301W        W64213  22.132   6.251   8.770  0.0190  0.0741 -0.3666
21302W        W64214  23.737   4.323   7.333 -0.1242 -0.2079  0.0450
21303W        W64215  24.013   4.334   9.698 -0.1141 -0.0790 -0.3204
21304W        W64216  22.800   4.410   8.813  0.0721  0.3419 -0.0213
21305W        W64217  22.989  11.562   3.972  0.2474 -0.1050 -0.2915
21306W        W64218  21.687   8.124   1.339 -0.0719 -0.2328 -0.2774
21307W        W64219  27.339   7.556   0.830 -0.0881 -0.0665 -0.2576
21308W        W64220  26.380   9.851   1.291  0.0176  0.1208  0.1111
21309W        W64221  22.118   7.291   1.976  0.1273  0.0635 -0.1800
21310W        W64222  24.304  10.532   1.076  0.1121 -0.0203 -0.2560
21311W        W64223  22.027   7.353   3.385  0.3655 -0.0413 -0.2043
21312W        W64224  23.701  10.181   1.657 -0.4027  0.3102 -0.1839
21313W        W64225  24.526  10.306   3.376 -0.4905 -0.3471 -0.0291
21314W        W64226  22.919   8.694   1.365 -0.2567 -0.0234 -0.1483
21315W        W64227  23.293   8.848   2.537 -0.0120  0.1774 -0.3551
21316W        W64228  22.712  10.237   3.007  0.0159 -0.2685 -0.0404
21317W        W64229  21.787   6.728  31.795  0.0455  0.2998  0.2542
21318W        W64230  21.193   6.017   2.196  0.2816 -0.0640  0.0617
21319W        W64231  24.097   9.799   2.809  0.0964 -0.3047  0.2227
21320W        W64232  22.859   7.915   1.112 -0.0499 -0.1263 -0.0364
21321W        W64233  22.741   8.084   2.571  0.1046  0.0363  0.0598
21322W        W64234  23.077   8.210   1.992 -0.1368  0.1887 -0.0717
21323W        W64235  23.562  11.198   2.081 -0.1873 -0.0444  0.0696
21324W        W64236  22.858   8.818   4.779 -0.1477  0.1225 -0.3682
21325W        W64237  24.690   7.056   4.025 -0.2612 -0.0812 -0.0446
21326W        W64238  22.393   9.959   1.703 -0.1125 -0.0861  0.3082
21327W        W64239  21.539   8.500   1.087  0.2414  0.0117  0.1583
21328W        W64240  21.346   6.845   1.680 -0.3164  0.1400 -0.0120
21329W        W64241  22.842   9.153   2.984 -0.0850 -0.0816  0.1155
21330W        W64242  24.249   8.454   2.925 -0.1639  0.2898  0.1813
21331W        W64243  23.990   9.923   1.965 -0.0634 -0.0378 -0.0453
21332W        W64244  23.485  10.750   2.395 -0.0575 -0.0831 -0.0983
21333W        W64245  23.093   9.422   1.112 -0.0280  0.2761  0.1312
21334W        W64246  24.978   8.516   3.635  0.0068 -0.1967 -0.1309
21335W        W64247  21.440   8.288   1.853 -0.2131  0.0725  0.0016
21336W        W64248  22.001   9.689   2.013  0.1164 -0.3260 -0.1230
21337W        W64249  21.250  10.859   0.515 -0.1442 -0.1857  0.2291
21338W        W64250  25.761  10.751   0.475 -0.2013 -0.0747  0.1280
21339W        W64251  24.962  10.238   3.645 -0.3079 -0.0839  0.0288
21340W        W64252  23.020  11.565   3.397 -0.0746 -0.4101  0.1831
21341W        W64253  23.149  10.989   0.188  0.0714  0.2110  0.0499
21342W        W64254  23.499   9.969   4.007  0.4976 -0.3169  0.0714
21343W        W64255  22.755   9.797   3.649 -0.5099  0.2309 -0.2505
21344W        W64256  25.204   8.942   2.886 -0.0491  0.4381  0.0389
21345W        W64257  23.497  10.909   2.864  0.1635  0.2304  0.0623
21346W        W64258  22.062  10.621   0.879 -0.0185 -0.0635  0.1434
21347W        W64259  23.683   9.021   2.259 -0.4582  0.1070 -0.2023
21348W        W64260  23.797  11.108   4.699 -0.0294  0.0907 -0.3028
21349W        W64261  21.501   8.891   2.669 -0.0182 -0.0087  0.0235
21350W        W64262  25.490   7.431   3.556  0.0436 -0.4022  0.1237
21351W        W64263  22.872  11.822  31.567  0.0296  0.2759 -0.0707
21352W        W64264  25.011  10.019   0.691  0.0584 -0.1084  0.1606
21353W        W64265  25.240   7.694  31.599 -0.0083 -0.0897 -0.2004
21354W        W64266  24.454   8.720   1.125  0.0418  0.1526 -0.4469
21355W        W64267  22.869   6.255   1.438 -0.0113 -0.4510  0.0049
21356W        W64268  23.103  11.088   2.412  0.2937  0.2024 -0.2027
21357W        W64269  21.805   7.896   2.647  0.3706 -0.1848 -0.1996
21358W        W64270  25.184  10.604   3.407 -0.0630  0.1170  0.2276
21359W        W64271  23.762   9.331   2.716  0.2372  0.3451  0.2313
21360W        W64272  23.341   9.028   3.040  0.0498  0.0349 -0.1373
21361W        W64273  22.193  10.653   3.191  0.1440 -0.4136 -0.0346
21362W        W64274  21.661   8.162   2.266  0.1938  0.2651  0.1594
21363W        W64275  25.785  10.803   0.986  0.2445 -0.0192  0.0796
21364W        W64276  24.424  10.924   2.243 -0.2870 -0.0929 -0.0775
21365W        W64277  23.763   9.989   0.689  0.1110 -0.0197 -0.0837
21366W        W64278  22.602   9.499   1.266  0.1397 -0.0030 -0.1206
21367W        W64279  22.610   9.478   2.654  0.1721  0.0118  0.3309
21368W        W64280  21.655   9.585   2.332  0.2828  0.0835 -0.3420
21369W        W64281  21.455   7.583   0.527 -0.0299  0.3509 -0.0984
21370W        W64282  25.502   9.811   2.633  0.0177  0.0719 -0.0955
21371W        W64283  21.486  10.076   3.211 -0.2537 -0.0329 -0.1568
21372W        W64284  24.520   9.706   0.757  0.1617  0.2594 -0.2673
21373W        W64285  21.949   8.714   2.584  0.2422  0.1923  0.0690
21374W        W64286  24.195  11.506   2.583  0.2000  0.0661  0.2154
21375W        W64287  25.083  10.156   0.211 -0.1190 -0.0241  0.2036
21376W        W64288  22.878   7.658   1.551  0.0566  0.0597  0.0437
21377W        W64289  23.402   7.685   0.430 -0.0893 -0.1752 -0.1334
21378W        W64290  22.625  10.725   0.786  0.0682 -0.2086  0.1303
21379W        W64291  23.536   8.450   2.096  0.1094 -0.1993 -0.0078
21380W        W64292  25.092  11.388   3.016 -0.1376  0.4628  0.0365
21381W        W64293  25.821  10.713   1.490  0.2226  0.1214 -0.2251
21382W        W64294  22.533  11.388   3.636  0.3489 -0.1873  0.3907
21383W        W64295  22.826   8.633   3.258 -0.0190  0.2454  0.1988
21384W        W64296  25.565  11.090   2.809 -0.2609 -0.0264  0.3727
21385W        W64297  21.455  10.072   0.856 -0.0585 -0.0942 -0.2848
21386W        W64298  21.561   9.881   1.840 -0.0111 -0.1491 -0.0008
21387W        W64299  22.674   9.104   0.936 -0.1544  0.2476  0.0753
21388W        W64300  22.746   8.757   4.202 -0.0564  0.2579  0.1273
21389W        W64301  23.583  10.456   3.181  0.1678 -0.3408  0.2918
21390W        W64302  25.180   8.124  31.245  0.0044 -0.1461 -0.0611
21391W        W64303  22.019   8.007   3.064  0.1868 -0.0058  0.1349
21392W        W64304  24.322   7.688   2.141  0.0114  0.0043 -0.0847
21393W        W64305  21.452   9.354   1.930 -0.0933 -0.0281 -0.2587
21394W        W64306  25.152  10.947   0.434  0.1399 -0.0957 -0.2033
21395W        W64307  24.777   8.518  31.794 -0.1185 -0.3758  0.0553
21396W        W64308  24.608  11.309  31.876  0.3924  0.1911  0.2946
21397W        W64309  21.560   9.102   3.098 -0.0871  0.2925 -0.0678
21398W        W64310  22.094   8.230   0.748  0.0728  0.4699  0.2595
21399W        W64311  21.841   7.436   4.386 -0.0660  0.2103 -0.1823
21400W        W64312  22.336   6.828   1.935  0.1957  0.0407 -0.0557
21401W        W64313  23.901   8.850   2.877 -0.2151  0.1253  0.2162
21402W        W64314  21.769   6.807   1.985  0.0616  0.1138  0.0900
21403W        W64315  23.180   8.930   0.977 -0.0912 -0.1571 -0.0536
21404W        W64316  22.554   8.065   1.618  0.3952  0.0294  0.1073
21405W        W64317  21.594   9.587   0.833 -0.0344 -0.0324 -0.2534
21406W        W64318  25.508   6.905   3.740  0.1519  0.0544  0.2358
21407W        W64319  23.601  10.926   1.611 -0.2451  0.2655 -0.1506
21408W        W64320  25.965  11.152   2.499  0.3727 -0.0633  0.1096
21409W        W64321  24.665  12.065   1.842  0.0242  0.0584 -0.2929
21410W        W64322  23.076   8.081   2.987  0.1572 -0.1569 -0.1682
21411W        W64323  23.518   8.188   0.321 -0.0340  0.0424 -0.0940
21412W        W64324  23.036  10.587   2.242 -0.0095 -0.1265 -0.0517
21413W        W64325  22.557  10.781   2.952  0.1810  0.0461  0.2462
21414W        W64326  21.322   7.819   0.093  0.0131  0.0719 -0.1542
21415W        W64327  25.582  10.217   2.961 -0.1414 -0.0999  0.0160
21416W        W64328  23.452   9.716   1.394 -0.0021  0.0208  0.0718
21417W        W64329  22.681  10.546   3.489  0.1956 -0.1263 -0.0722
21418W        W64330  24.533   7.190   3.076  0.3809  0.3553 -0.0238
21419W        W64331  23.995  11.121   2.796 -0.2095 -0.1354  0.3430
21420W        W64332  23.201   9.098   2.037  0.1024  0.2256 -0.0986
21421W        W64333  20.744   7.162   0.585  0.1198  0.0092 -0.0195
21422W        W64334  24.760  11.217   1.308 -0.0390 -0.2601  0.1212
21423W        W64335  22.047  10.303  30.731  0.0901  0.5886  0.1173
21424W        W64336  21.467   9.079   0.975  0.2455  0.0350  0.0625
21425W        W64337  23.260  10.389   1.758 -0.0184  0.0014 -0.0826
21426W        W64338  24.892   7.415   1.309 -0.1439 -0.2349  0.2146
21427W        W64339  21.880  10.113   3.758 -0.2055  0.0276 -0.2797
21428W        W64340  23.611   9.977   2.908  0.1945  0.0235  0.2421
21429W        W64341  21.174   7.296   0.159 -0.1460 -0.1025 -0.1793
21430W        W64342  22.340  10.685   4.234 -0.0068  0.2848  0.0596
21431W        W64343  24.747   7.766   1.884  0.2839  0.3276  0.1005
21432W        W64344  25.214   7.550   0.125  0.0688 -0.2707 -0.1976
21433W        W64345  24.088   9.695   3.373  0.2326  0.2596  0.2841
21434W        W64346  23.483  10.558   0.781  0.3477  0.0431 -0.2438
21435W        W64347  23.841   8.720  31.737 -0.0131 -0.0600  0.0124
21436W        W64348  23.915   8.360   0.058  0.3140  0.3572 -0.3792
21437W        W64349  21.798  10.532   4.064  0.1592 -0.4096  0.1431
21438W        W64350  24.466  11.034   0.916 -0.2181  0.1529  0.0379
21439W        W64351  23.833  10.202   2.442 -0.2540  0.1690  0.0591
21440W        W64352  23.290   9.367   0.276 -0.0437 -0.1716 -0.2537
21441W        W64353  25.033  10.193   1.165 -0.0484 -0.0493  0.1053
21442W        W64354  22.236   9.788   3.217 -0.0426  0.5706  0.0755
21443W        W64355  24.604   9.989   3.879 -0.0489 -0.0475 -0.0375
21444W        W64356  24.395  11.344   1.882  0.0415  0.0108  0.1067
21445W        W64357  24.359   7.622   2.730  0.0068 -0.2759 -0.0971
21446W        W64358  23.163   9.036  31.924 -0.0025 -0.2103  0.0554
21447W        W64359  23.552   8.354   1.563 -0.2007 -0.1429 -0.2223
21448W        W64360  20.240  11.222   0.665  0.1145  0.3873 -0.2932
21449W        W64361  24.010   7.301   2.417 -0.0363 -0.0793 -0.3049
21450W        W64362  23.856   7.797   1.828 -0.3335  0.1898 -0.0400
21451W        W64363  22.798   7.344   3.365 -0.1813  0.3047 -0.0621
21452W        W64364  24.784   8.938   3.216  0.0406 -0.2001  0.0174
21453W        W64365  24.937   8.052  31.948 -0.1640 -0.0956 -0.1941
21454W        W64366  22.460   9.034   1.374  0.1631  0.3033 -0.1796
21455W        W64367  22.985   8.102   0.410  0.1947  0.0691  0.0233
21456W        W64368  24.848   6.855   2.232  0.1622 -0.2648  0.1225
21457W        W64369  22.251  10.737   3.713 -0.3744  0.1248  0.0698
21458W        W64370  23.103   9.880   2.680  0.0718 -0.1040  0.0653
21459W        W64371  23.855  10.842   3.225  0.0319  0.1107 -0.2763
21460W        W64372  23.274  10.381   2.681 -0.1441  0.0244 -0.2119
21461W        W64373  24.049   7.963   2.971  0.1378 -0.0382  0.1472
21462W        W64374  23.490   7.588   0.943  0.1553 -0.0133  0.2786
21463W        W64375  21.600  11.109   0.957  0.3058 -0.0222  0.0504
21464W        W64376  22.546   8.312   1.139 -0.0915  0.3133 -0.4021
21465W        W64377  24.097   8.209   2.055  0.2542  0.0439 -0.1340
21466W        W64378  23.192  10.647   3.512  0.0992 -0.0481 -0.0065
21467W        W64379  23.145   8.946   0.447 -0.0734  0.0070  0.0475
21468W        W64380  24.081   9.203   3.832  0.0962  0.0117 -0.1240
21469W        W64381  21.989   9.009   1.207  0.1137  0.0062 -0.0262
21470W        W64382  24.690   7.389   2.257  0.1123  0.1926  0.1691
21471W        W64383  22.037  10.194   1.984  0.2350  0.0592 -0.0772
21472W        W64384  22.382   8.542   2.328 -0.0362 -0.4338  0.3400
21473W        W64385  21.293   8.178  31.740 -0.0717 -0.1235 -0.1175
21474W        W64386  25.060   8.881   2.332 -0.0126  0.0025  0.0070
21475W        W64387  25.392   9.700   0.308 -0.2628  0.1838 -0.0437
21476W        W64388  20.940   8.455   3.855  0.4022  0.1164  0.1178
21477W        W64389  22.184   8.709   1.629  0.2748 -0.1341 -0.2350
21478W        W64390  21.714  10.911   3.690  0.1737 -0.4338 -0.1414
21479W        W64391  23.666   9.586   3.641 -0.1919 -0.1060 -0.3508
21480W        W64392  23.532   8.772   0.187 -0.3295 -0.0226 -0.2000
21481W        W64393  24.342  10.703   2.996 -0.0343  0.2600  0.2526
21482W        W64394  23.187  10.046   3.200 -0.2340  0.0733 -0.3207
21483W        W64395  20.720   6.664  31.650 -0.1747 -0.4892  0.0180
21484W        W64396  24.966   8.660   1.375  0.0739 -0.0647 -0.0188
21485W        W64397  22.707   7.142   2.057  0.1456  0.2833 -0.2110
21486W        W64398  22.807  10.205   2.494  0.0775  0.2103  0.0759
21487W        W64399  23.249  11.600   4.503 -0.1301  0.0601  0.0908
21488W        W64400  22.979   8.664   2.190 -0.0752 -0.1316  0.1273
21489W        W64401  23.334  10.161   2.253 -0.2129  0.2304 -0.0726
21490W        W64402  22.800   9.750   4.545  0.0716 -0.3112 -0.1595
21491W        W64403  23.296   8.691   3.453  0.3826 -0.0052 -0.1457
21492W        W64404  23.300   7.427   1.563 -0.1272 -0.1612  0.3602
21493W        W64405  22.133   7.020   0.551  0.1258 -0.4682 -0.0062
21494W        W64406  21.670   8.346   2.736 -0.0679 -0.2034 -0.1645
21495W        W64407  24.616   9.796   3.235 -0.0768  0.0075 -0.4068
21496W        W64408  23.807   8.704   3.720  0.0263  0.0216 -0.1468
21497W        W64409  22.071  11.727   3.601  0.1135  0.1713 -0.1310
21498W        W64410  22.671   8.537   1.775  0.2071  0.1572  0.0252
21499W        W64411  25.996  11.193   0.593 -0.0637  0.0676  0.3529
21500W        W64412  25.092   9.430   2.532  0.2781  0.1216  0.1417
21501W        W64413  23.066   9.566  31.781 -0.0833  0.1695 -0.2799
21502W        W64414  20.408   9.978   2.383  0.1183 -0.0061  0.2315
21503W        W64415  22.366  10.954   1.334  0.2631 -0.1497  0.1246
21504W        W64416  22.787   8.832   3.703 -0.0316  0.0452 -0.0091
21505W        W64417  23.843   9.270   3.225 -0.0886  0.0430 -0.1678
21506W        W64418  22.711  10.714   0.171  0.3044 -0.3216 -0.2235
21507W        W64419  20.910  10.319   2.380 -0.0082 -0.1844 -0.0359
21508W        W64420  22.060   7.357   1.120  0.1491  0.1807 -0.3185
21509W        W64421  23.892  10.302   0.360 -0.1591  0.2254  0.3099
21510W        W64422  22.471   7.617   1.246 -0.0093 -0.0556  0.2996
21511W        W64423  25.932   8.140   3.433 -0.2135 -0.1279 -0.0038
21512W        W64424  24.570  10.069   1.076 -0.3784  0.1722 -0.1923
21513W        W64425  25.087   8.160   3.924  0.0519  0.1834  0.3058
21514W        W64426  23.015   6.558   2.749 -0.4618  0.0058 -0.2707
21515W        W64427  24.027  10.524   1.504  0.2369  0.2687  0.1159
21516W        W64428  21.889   8.746   3.621  0.1453  0.0075 -0.1110
21517W        W64429  24.496  10.438   4.395  0.3834 -0.1444  0.1293
21518W        W64430  22.244   9.022   5.075 -0.0186 -0.0103 -0.4831
21519W        W64431  24.039   7.305  31.974  0.0053 -0.3258  0.1094
21520W        W64432  22.601   6.347   1.014  0.4798 -0.0558  0.1057
21521W        W64433  22.758   9.711   3.120 -0.2255  0.2171 -0.1306
21522W        W64434  21.912  10.260   0.553  0.0347 -0.1429 -0.0081
21523W        W64435  23.915  10.203   1.142  0.1546 -0.0816  0.0630
21524W        W64436  24.778   9.893   1.470 -0.1916 -0.0897 -0.0923
21525W        W64437  21.554   9.221   3.709  0.3027  0.2321  0.0154
21526W        W64438  23.833   8.200   0.811 -0.0347  0.1432 -0.0809
21527W        W64439  24.182  10.418  31.705  0.0586  0.0728 -0.0821
21528W        W64440  21.847   7.784   0.891 -0.5604 -0.3507 -0.1624
21529W        W64441  22.121   7.049   3.892  0.1376 -0.2998 -0.3602
21530W        W64442  24.473   9.369   2.239  0.0796 -0.2701  0.3616
21531W        W64443  23.458   8.507   2.955  0.1302 -0.1068 -0.1422
21532W        W64444  22.328   7.838   2.591 -0.0068  0.2126  0.3108
21533W        W64445  24.167   8.929   3.447  0.2478 -0.1160 -0.0536
21534W        W64446  23.985   8.309   3.287 -0.0846  0.0839  0.0114
21535W        W64447  23.374   9.520   4.382  0.2959 -0.2492  0.1220
21536W        W64448  24.378  11.444   3.814 -0.0347  0.1789 -0.2823
21537W        W64449  24.656   9.245   0.627 -0.1868 -0.2393  0.1158
21538W        W64450  24.380   8.734   1.994  0.0840 -0.1314  0.1045
21539W        W64451  24.585   8.626   2.464  0.0194  0.1464  0.0404
21540W        W64452  23.389   7.878   1.308  0.3340  0.0315  0.3476
21541W        W64453  21.428   7.324   3.449  0.2781  0.1447  0.3119
21542W        W64454  25.420   9.004   4.962 -0.0444  0.1702 -0.2683
21543W        W64455  22.173   7.509   0.589  0.4993  0.2064  0.2746
21544W        W64456  23.824   8.593   4.525 -0.0560 -0.2517  0.0857
21545W        W64457  23.649  10.971  31.325 -0.0446 -0.3760  0.0687
21546W        W64458  24.284  10.415   2.513  0.1141  0.1174  0.2867
21547W        W64459  23.708   8.817   1.783 -0.0406 -0.2365  0.2243
21548W        W64460  21.120   8.532   2.810 -0.3433  0.2678 -0.0275
21549W        W64461  20.921  11.710   1.240 -0.1502  0.0520 -0.1764
21550W        W64462  21.299   8.341   0.232  0.3669 -0.0807 -0.0747
21551W        W64463  23.509   9.777   0.203 -0.0547  0.0871  0.1588
21552W        W64464  23.181  11.447   2.049 -0.0130 -0.2489 -0.0406
21553W        W64465  24.634   9.504   3.775 -0.2350  0.1291 -0.2661
21554W        W64466  23.179   7.315   0.192 -0.0532  0.1633  0.2493
21555W        W64467  24.109   9.175   1.855 -0.4064  0.2137 -0.1022
21556W        W64468  21.644  10.310   0.134  0.1355  0.0487  0.0918
21557W        W64469  23.885   7.287   1.588  0.1343  0.1196  0.3446
21558W        W64470  21.215  10.831   1.481  0.1727 -0.0808  0.2581
21559W        W64471  21.855   9.271   2.774 -0.0378  0.1569 -0.3688
21560W        W64472  22.986   9.983   1.360 -0.0067 -0.0433  0.2904
21561W        W64473  23.960   6.794   1.647  0.1325  0.1218  0.0025
21562W        W64474  23.979   9.524   2.300 -0.1532 -0.1244  0.0726
21563W        W64475  23.267   7.756   2.622 -0.0994 -0.2345 -0.0587
21564W        W64476  24.997   8.644   4.177 -0.0819 -0.0140  0.0756
21565W        W64477  23.572   9.096   3.585 -0.3120 -0.0601  0.0868
21566W        W64478  22.029   9.199   3.431  0.0224  0.1033 -0.1236
21567W        W64479  23.754  10.590   3.674 -0.0365  0.2858  0.1764
21568W        W64480  24.497   9.341   1.125 -0.2096 -0.1649 -0.0840
21569W        W64481  22.498  11.250   3.123 -0.0074  0.2615 -0.0099
21570W        W64482  22.687   8.205   4.127  0.1129  0.1183  0.2867
21571W        W64483  23.084   8.460   3.984  0.2181 -0.4401 -0.0960
21572W        W64484  25.006   9.129   3.839  0.0986  0.1952 -0.0706
21573W        W64485  22.973   7.416   1.070 -0.2313  0.0989 -0.0103
21574W        W64486  23.407   9.589   0.723  0.0977  0.1509  0.0406
21575W        W64487  21.275  10.605   2.518 -0.3357  0.4110 -0.1849
21576W        W64488  22.269   9.063   2.496 -0.0229 -0.3258  0.0646
21577W        W64489  23.091  11.307   1.013  0.1190 -0.2220  0.3586
21578W        W64490  25.520  10.289   1.151 -0.1434 -0.2524  0.2159
21579W        W64491  23.917   9.605   1.560  0.1376  0.4627 -0.4419
21580W        W64492  23.368  10.575   1.325 -0.0059 -0.0656  0.1660
21581W        W64493  23.002   8.214   1.448  0.2120  0.1136 -0.1762
21582W        W64494  22.844  10.046   1.906 -0.0898 -0.4778  0.2264
21583W        W64495  20.870  11.564   0.071  0.3176  0.0608  0.3104
21584W        W64496  24.996  10.146  31.403 -0.1366 -0.0364 -0.0744
21585W        W64497  20.841  10.144   0.800 -0.0399 -0.2917 -0.1546
21586W        W64498  25.488   9.389   2.949  0.4838  0.0016 -0.3156
21587W        W64499  27.400   7.495   0.136 -0.3118 -0.4742 -0.2957
21588W        W64500  25.594  10.304   1.617  0.0523  0.0349 -0.0726
21589W        W64501  25.456   7.183  31.827  0.1381 -0.2718 -0.1516
21590W        W64502  24.134   9.681   3.890  0.0606  0.3280  0.0095
21591W        W64503  22.797   9.086   1.739 -0.0765  0.1919  0.0618
21592W        W64504  22.615   8.972  31.886  0.1686  0.0923 -0.2951
21593W        W64505  23.035  10.169   4.361  0.1432 -0.0595 -0.2130
21594W        W64506  25.492   7.827   3.294  0.0283 -0.4835  0.0240
21595W        W64507  20.847  12.416   1.972  0.1063 -0.1226  0.1652
21596W        W64508  24.245  10.977  31.602  0.0841  0.2033 -0.2510
21597W        W64509  20.345   7.525   0.497 -0.0117 -0.1313 -0.2429
21598W        W64510  22.793   9.019   2.474  0.0287 -0.0080 -0.3598
21599W        W64511  25.441   8.561   2.631  0.0767 -0.3101 -0.0018
21600W        W64512  23.328   9.978  31.778  0.3162  0.2073 -0.2471
21601W        W64513  21.246   7.627   0.996  0.4019 -0.3712 -0.1832
21602W        W64514  21.931   9.770   1.506  0.0871 -0.5656  0.0912
21603W        W64515  22.673  10.771   2.465  0.0482  0.2086  0.0993
21604W        W64516  23.029  11.651   2.676 -0.3898  0.1378  0.0427
21605W        W64517  20.342   6.854   0.454 -0.0596 -0.1365  0.2215
21606W        W64518  25.271   9.892   1.547 -0.2989  0.2176  0.1453
21607W        W64519  20.195   9.775   2.784 -0.2412 -0.1419 -0.1184
21608W        W64520  24.701   8.418   3.220 -0.2378  0.1877 -0.2621
21609W        W64521  22.971   8.625   2.829 -0.1078  0.0493 -0.0956
21610W        W64522  24.061   8.503   1.559 -0.1068  0.1203 -0.1740
21611W        W64523  24.238   8.761   4.025 -0.1474  0.0484  0.0858
21612W        W64524  21.974   8.806   3.116 -0.1451  0.2089 -0.0742
21613W        W64525  23.194   8.630   1.770 -0.2244 -0.1420  0.0069
21614W        W64526  24.684  10.654   2.595 -0.2392  0.1450 -0.2364
21615W        W64527  23.609   8.919   1.208  0.0399  0.3659  0.3290
21616W        W64528  23.925  11.545   3.604  0.1375 -0.1819 -0.1650
21617W        W64529  22.421   7.111   1.463  0.2043  0.0766 -0.4163
21618W        W64530  23.282   8.039   0.774  0.1033 -0.1512 -0.1172
21619W        W64531  21.181   8.085   3.078 -0.1913  0.1274 -0.1825
21620W        W64532  23.090   9.140   3.469 -0.1250  0.1113  0.0814
21621W        W64533  23.792  11.350   3.185 -0.2492  0.1416  0.0538
21622W        W64534  23.116   7.624   2.029 -0.1881 -0.2773 -0.1157
21623W        W64535  25.378   8.493   0.626 -0.0153  0.3927 -0.1360
21624W        W64536  24.269   9.926   1.439  0.1762  0.1683  0.1620
21625W        W64537  23.490  11.789  31.901  0.0415 -0.0243 -0.2773
21626W        W64538  23.377   9.831   1.906 -0.0288 -0.3050  0.1169
21627W        W64539  25.001  11.017   2.587  0.0500 -0.1112 -0.0107
21628W        W64540  22.033   8.198   1.730 -0.0044  0.1307  0.0602
21629W        W64541  23.656   9.366   1.888  0.0634  0.1946  0.1226
21630W        W64542  25.175  10.033   2.110 -0.0045 -0.1462  0.3183
21631W        W64543  23.823   7.136   1.067 -0.0555  0.0271  0.0679
21632W        W64544  21.390   9.523   2.753  0.2450  0.1429 -0.0724
21633W        W64545  22.563   9.581   0.795  0.1546 -0.1288  0.0993
21634W        W64546  25.601   7.817   2.592 -0.0706  0.0067  0.1151
21635W        W64547  23.716  10.093   3.507 -0.1603  0.2018  0.0421
21636W        W64548  22.883  10.713  31.692 -0.2972  0.1892  0.0448
21637W        W64549  23.706   7.527   2.797 -0.2477 -0.1865  0.0725
21638W        W64550  23.076  10.728   3.038 -0.1025 -0.2903 -0.0164
21639W        W64551  23.452  11.029   3.436 -0.2817 -0.0031  0.0892
21640W        W64552  22.132   8.825   0.236  0.1059 -0.0556  0.0750
21641W        W64553  23.131   9.387   2.479  0.1571 -0.1078  0.0630
21642W        W64554  23.491   9.736   2.432  0.1429 -0.1529  0.4626
21643W        W64555  23.603  11.647   0.765 -0.0312 -0.0173  0.0269
21644W        W64556  24.739  12.045   3.262 -0.0007  0.0850 -0.0584
21645W        W64557  22.951   9.762   2.250  0.0643  0.1046  0.0575
21646W        W64558  24.385  10.265   0.171 -0.0305  0.2799 -0.1919
21647W        W64559  22.707   7.895   2.105 -0.0815 -0.0498 -0.1357
21648W        W64560  25.115   8.221   1.691 -0.1038  0.1473  0.2852
21649W        W64561  24.137   9.100   1.326  0.0985 -0.0860 -0.1661
21650W        W64562  22.070  10.223   3.016 -0.0488  0.0841 -0.0711
21651W        W64563  22.150   7.981   1.296  0.0531 -0.2547  0.3864
21652W        W64564  22.111  10.224  31.980 -0.0653 -0.0100  0.2331
21653W        W64565  21.893   8.529   2.046 -0.1810 -0.1392  0.1278
21654W        W64566  22.692   7.717   4.098 -0.1372 -0.2490 -0.2929
21655W        W64567  22.416   8.725   2.859 -0.0612  0.2022 -0.0521
21656W        W64568  21.831   9.070   2.210 -0.0944 -0.0947 -0.0777
21657W        W64569  21.251   6.776   0.134 -0.0021 -0.0032 -0.0744
21658W        W64570  24.450  10.818   0.046  0.0550  0.0685 -0.0504
21659W        W64571  22.881   7.165   1.600 -0.1518  0.0619  0.0044
21660W        W64572  21.997   6.530   2.319 -0.1266  0.1272  0.3046
21661W        W64573  24.963  11.126   0.870 -0.0668 -0.2293 -0.1237
21662W        W64574  24.861  11.024   1.917  0.1818  0.1359 -0.2018
21663W        W64575  23.275   7.003   1.085  0.1475  0.0087  0.1635
21664W        W64576  24.331  11.695   3.293  0.0203  0.0442  0.0213
21665W        W64577  21.493  11.210   0.160  0.2579  0.1436 -0.2367
21666W        W64578  23.512   7.463   2.316 -0.0558  0.3664  0.1711
21667W        W64579  22.339   8.610   3.811 -0.2235  0.0545 -0.2168
21668W        W64580  20.630   7.998   0.669 -0.2732 -0.0796 -0.0361
21669W        W64581  22.245   8.303   2.767 -0.1766 -0.0638 -0.1020
21670W        W64582  21.577  10.589   0.838  0.0426  0.4396  0.0988
21671W        W64583  24.368  10.650   0.540  0.2177 -0.1666  0.0000
21672W        W64584  23.081  10.154   3.718 -0.2301 -0.0970 -0.0683
21673W        W64585  23.775  12.084   2.164  0.0731  0.0123  0.0700
21674W        W64586  22.153   5.920   1.871  0.2121  0.1304  0.0056
21675W        W64587  24.100   9.721   0.989 -0.1907  0.1954  0.0252
21676W        W64588  23.219   9.619   3.464  0.0546 -0.0247  0.1158
21677W        W64589  26.216  10.789   0.781  0.0457  0.0791  0.0165
21678W        W64590  24.181   9.059   2.437  0.3277  0.4325  0.0085
21679W        W64591  24.010   8.613   2.330  0.2325  0.2273 -0.2503
21680W        W64592  21.850   8.836   4.817 -0.1231 -0.5623  0.3482
21681W        W64593  22.220   8.392   4.244  0.0872 -0.1150 -0.0825
21682W        W64594  25.038   9.552   3.509 -0.2145 -0.1299 -0.0496
21683W        W64595  22.166   6.922   0.050 -0.0664 -0.2798 -0.0680
21684W        W64596  23.923   8.594   0.506  0.2415  0.1582 -0.0236
21685W        W64597  24.251  10.158   0.729 -0.0017  0.4549 -0.0704
21686W        W64598  22.180   7.836   2.050  0.2706 -0.0511  0.0809
21687W        W64599  22.965   9.356   0.648  0.1653 -0.2239  0.1484
21688W        W64600  23.944   7.838   2.463  0.1901  0.1992  0.1444
21689W        W64601  24.531   9.602   2.677 -0.5923  0.1841  0.0077
21690W        W64602  24.529  11.217   2.810 -0.0222 -0.0779 -0.0658
21691W        W64603  22.953   9.533   1.614 -0.2548  0.3042  0.0026
21692W        W64604  25.704   9.532   0.768 -0.2730 -0.0804  0.2250
21693W        W64605  24.196  12.709   3.235  0.1660  0.3302 -0.0584
21694W        W64606  22.788  11.001   4.627  0.1968  0.1486 -0.1028
21695W        W64607  24.672  11.348   2.331  0.1801 -0.0831  0.1070
21696W        W64608  24.271  12.243   3.302 -0.1225  0.2857 -0.1430
21697W        W64609  23.203   8.290   2.562 -0.1372  0.3607  0.1307
21698W        W64610  23.257   9.151   1.553 -0.0132 -0.1153 -0.0090
21699W        W64611  22.645   9.419   2.040 -0.3195  0.1421  0.1585
21700W        W64612  25.597   9.015   2.029  0.1296 -0.1769 -0.2364
21701W        W64613  21.578   7.594   1.401  0.0110 -0.0153 -0.1122
21702W        W64614  22.302   8.693   0.809 -0.3066 -0.0567  0.0929
21703W        W64615  22.878  11.019   3.455  0.0832  0.0415  0.2114
21704W        W64616  24.275  10.718   3.496  0.2634 -0.0762 -0.0820
21705W        W64617  24.398  11.018   6.428 -0.0184  0.0314 -0.0057
21706W        W64618  23.132   8.567   4.479 -0.1461 -0.0428 -0.0689
21707W        W64619  25.171   7.791   4.178  0.1396 -0.1641 -0.2373
21708W        W64620  25.105  10.089   4.075  0.1003 -0.1610 -0.0846
21709W        W64621  22.712   8.484   5.186 -0.0975  0.1525 -0.2239
21710W        W64622  25.049  10.327   6.004  0.3451  0.0223 -0.1997
21711W        W64623  21.806   7.429   7.454 -0.0211  0.0103 -0.2127
21712W        W64624  25.245   9.605   5.649  0.2705  0.0220  0.0982
21713W        W64625  25.061  10.088   5.547 -0.2883 -0.0927 -0.1189
21714W        W64626  24.893   9.397   2.989 -0.1217  0.1931  0.0107
21715W        W64627  22.280   8.587   6.104  0.2122  0.1557 -0.0856
21716W        W64628  24.709  11.755   5.947 -0.0632 -0.1697 -0.1464
21717W        W64629  23.373   7.561   4.824  0.0921  0.2552  0.1854
21718W        W64630  22.368   7.904   4.410 -0.0736  0.1298 -0.5739
21719W        W64631  24.843   8.209   5.969  0.0896  0.1634 -0.4028
21720W        W64632  22.945  10.094   5.363 -0.1745 -0.1029 -0.0423
21721W        W64633  23.885   8.555   5.848 -0.1830  0.2227  0.1482
21722W        W64634  24.677   8.063   5.540 -0.1075  0.3168  0.0550
21723W        W64635  24.227  12.483   5.605 -0.0280 -0.1393 -0.1454
21724W        W64636  23.500   8.789   5.644  0.3815  0.0319 -0.2183
21725W        W64637  23.563   9.342   6.964 -0.2097  0.3073  0.1843
21726W        W64638  25.051  10.442   6.509  0.0904  0.2193 -0.1583
21727W        W64639  22.064   8.602   5.304  0.3426 -0.0956  0.1582
21728W        W64640  23.658   8.970   6.156 -0.3501 -0.0730  0.2175
21729W        W64641  24.267   8.572   4.902 -0.2509  0.2307  0.0781
21730W        W64642  23.866   7.670   5.251  0.0805  0.0919 -0.0981
21731W        W64643  25.401   9.459   5.225  0.0767  0.1321  0.2435
21732W        W64644  23.603  11.895   5.909 -0.0685  0.2583  0.2273
21733W        W64645  23.673  10.637   5.196  0.1419 -0.0748  0.2350
21734W        W64646  24.000   9.526   6.127  0.0998  0.2542  0.0478
21735W        W64647  21.623   8.635   5.568 -0.1576  0.2076 -0.0747
21736W        W64648  20.769  10.748   4.090 -0.1605  0.2185  0.2898
21737W        W64649  22.393  10.620   4.830 -0.0662  0.2001  0.0746
21738W        W64650  26.145   9.892   5.096  0.2514 -0.0033  0.0425
21739W        W64651  24.883  12.318   6.772  0.0381  0.3765  0.1146
21740W        W64652  23.036  10.498   6.647 -0.1741  0.0291 -0.1156
21741W        W64653  23.636  10.647   4.630 -0.0851 -0.2708 -0.0591
21742W        W64654  23.940  10.360   6.420  0.2870  0.1114  0.0790
21743W        W64655  22.299  10.850   5.987 -0.3430  0.1309 -0.0830
21744W        W64656  23.279   9.657   6.689  0.0030  0.1209 -0.2355
21745W        W64657  24.621   8.985   5.264 -0.1139  0.0318 -0.0325
21746W        W64658  23.708  10.898   4.223  0.2625  0.0577  0.3781
21747W        W64659  24.589  11.403   5.129  0.1711  0.0847 -0.0965
21748W        W64660  24.023  10.342   7.886  0.0709 -0.0781 -0.1517
21749W        W64661  21.170  10.563   5.355 -0.1668 -0.2147  0.0257
21750W        W64662  25.615   7.939   7.451 -0.2499 -0.2372 -0.0296
21751W        W64663  23.414  11.887   4.013 -0.0639 -0.0840 -0.0466
21752W        W64664  24.660   8.021   4.356 -0.0148  0.2311 -0.0312
21753W        W64665  22.703   8.299   3.649  0.1777 -0.1532  0.1663
21754W        W64666  24.637   7.599   3.673 -0.3503  0.6494  0.1267
21755W        W64667  24.337   7.697   4.510 -0.1320  0.1266 -0.2483
21756W        W64668  23.064  10.667   5.518 -0.2383  0.0413 -0.2186
21757W        W64669  23.752   7.413   5.662  0.0407 -0.1659 -0.1217
21758W        W64670  25.163  10.932   6.173  0.2994  0.0609  0.2177
21759W        W64671  24.438   9.493   5.160 -0.1833 -0.2909  0.2467
21760W        W64672  24.953   9.580   6.683  0.0725 -0.1255 -0.1130
21761W        W64673  22.752  11.005   5.867 -0.0345  0.0014  0.3152
21762W        W64674  23.636  10.309   5.990 -0.2821  0.2590 -0.3316
21763W        W64675  25.160  11.033   4.336 -0.0086 -0.2593 -0.2289
21764W        W64676  25.604  10.970   5.178 -0.1066  0.0441 -0.0731
21765W        W64677  24.607  10.991   3.912 -0.0589 -0.2990  0.4357
21766W        W64678  23.988  10.490   5.665  0.3363 -0.1996  0.2706
21767W        W64679  22.381  10.340   6.171  0.1707  0.0337  0.0703
21768W        W64680  22.504   8.962   7.647  0.3263  0.0894 -0.1556
21769W        W64681  23.086   7.963   4.429  0.0010 -0.2520  0.0464
21770W        W64682  26.811   9.423   6.029 -0.0155 -0.2313 -0.1830
21771W        W64683  22.070  11.729   5.692  0.0850 -0.0721  0.1265
21772W        W64684  25.803   9.193   5.496 -0.4392  0.0434 -0.2583
21773W        W64685  23.308   9.858   5.605  0.1375 -0.1101 -0.2464
21774W        W64686  24.818  10.681   5.681 -0.4863  0.0075  0.1807
21775W        W64687  23.639  10.093   4.583 -0.1034  0.1669 -0.0963
21776W        W64688  23.539   7.709   6.579 -0.1134  0.0307  0.1886
21777W        W64689  24.247   7.184   6.570  0.2674 -0.1909 -0.0398
21778W        W64690  22.798   9.298   3.883 -0.2515 -0.0295 -0.3146
21779W        W64691  23.805  10.191   5.132 -0.0262  0.0729  0.2288
21780W        W64692  26.172  10.480   7.078  0.1473  0.1266 -0.0359
21781W        W64693  24.153  10.039   4.364 -0.0356  0.0290  0.1511
21782W        W64694  22.361  10.016   4.901  0.2377  0.1731 -0.3460
21783W        W64695  22.380   9.897   6.463  0.0966 -0.1170 -0.1250
21784W        W64696  24.534   9.553   6.974 -0.1051 -0.1663 -0.0695
21785W        W64697  21.732  10.489   3.467  0.0298  0.3656  0.2224
21786W        W64698  20.794   9.848   5.096  0.0920 -0.0480 -0.1128
21787W        W64699  22.962   9.731   4.075  0.0691  0.0588 -0.0198
21788W        W64700  21.242   8.499   6.709  0.5196  0.1392  0.3130
21789W        W64701  24.169  10.000   6.032  0.1896  0.1231  0.0302
21790W        W64702  24.616   7.673   5.244 -0.0297 -0.2683 -0.3052
21791W        W64703  21.679   6.784   7.141 -0.0024  0.1582  0.0482
21792W        W64704  26.633   7.422   6.816 -0.0660  0.1215  0.1338
21793W        W64705  24.520  10.266   5.711  0.0016 -0.1607 -0.0063
21794W        W64706  25.223  12.102   5.093  0.0164 -0.0379 -0.2693
21795W        W64707  25.129   8.907   5.373  0.0763  0.0721  0.2156
21796W        W64708  24.542  10.117   2.844 -0.4369 -0.3468  0.0921
21797W        W64709  22.211   9.363   5.858  0.0801 -0.2509  0.1148
21798W        W64710  23.937   8.945   4.824  0.2315 -0.5044 -0.2633
21799W        W64711  22.971   7.145   7.197 -0.0369 -0.0433  0.0600
21800W        W64712  23.557   9.092   5.164 -0.2360 -0.1004  0.0828
21801W        W64713  25.551  10.603   6.658  0.2055  0.0115 -0.0264
21802W        W64714  23.106   8.251   4.867 -0.2301  0.0411  0.0566
21803W        W64715  24.878   6.586   5.352 -0.3259 -0.2910  0.1406
21804W        W64716  23.870   9.654   4.353  0.3701  0.3534 -0.1139
21805W        W64717  22.770   9.133   5.640  0.3461  0.2373  0.0473
21806W        W64718  25.123   7.782   7.413 -0.0597 -0.2816  0.0181
21807W        W64719  23.834  10.376   4.172  0.0278  0.0199  0.1506
21808W        W64720  26.353  12.293   5.825  0.0441 -0.0063 -0.1969
21809W        W64721  26.113  11.964   6.214  0.1164 -0.2211 -0.1466
21810W        W64722  22.318   9.403   6.862 -0.0905 -0.3786 -0.1292
21811W        W64723  20.754   9.278   5.876 -0.0952 -0.1129 -0.0349
21812W        W64724  22.603  11.196   5.078  0.2625  0.2237  0.1277
21813W        W64725  26.433  10.259   4.495 -0.4353  0.1652  0.0914
21814W        W64726  22.322   9.079   3.834 -0.2363  0.1925 -0.0594
21815W        W64727  25.981  11.154   5.630 -0.1381  0.0262 -0.1293
21816W        W64728  23.910   9.440   5.244  0.1019 -0.0891 -0.1288
21817W        W64729  22.143  10.266   7.108  0.1676 -0.0148 -0.0942
21818W        W64730  24.403   7.193   6.081 -0.0538 -0.1136 -0.0249
21819W        W64731  25.421   9.032   6.291  0.1420  0.0156 -0.0938
21820W        W64732  24.682   8.485   5.245  0.2863  0.1180 -0.1814
21821W        W64733  21.617   7.714   4.750  0.0067 -0.2006  0.2821
21822W        W64734  24.671  10.973   4.436 -0.1115 -0.0460 -0.2372
21823W        W64735  23.592  11.469   5.046  0.1987  0.1147 -0.2284
21824W        W64736  21.111   9.827   5.578  0.0025  0.0531  0.1838
21825W        W64737  24.546  10.669   4.841 -0.0938 -0.4853 -0.0665
21826W        W64738  25.213   7.288   6.448  0.0777  0.1721  0.1107
21827W        W64739  21.828  10.712   7.869  0.4140  0.0190 -0.3875
21828W        W64740  24.307   8.700   5.613  0.1342  0.1416 -0.0827
21829W        W64741  22.131   9.897   5.271 -0.1635  0.2369  0.0392
21830W        W64742  22.299  10.914   6.571  0.0215  0.0581  0.0258
21831W        W64743  24.506   7.208   4.569  0.2556  0.0094  0.1922
21832W        W64744  24.785   7.510   4.248  0.2017 -0.1022 -0.2465
21833W        W64745  25.287  11.003   6.699  0.2238  0.1200 -0.2940
21834W        W64746  25.021   9.812   5.125 -0.1363  0.3699  0.0052
21835W        W64747  23.244   8.930   3.916  0.3467 -0.4664 -0.3227
21836W        W64748  22.687   8.292   4.637 -0.0370 -0.1463  0.1189
21837W        W64749  23.362  10.129   6.467 -0.1400  0.1430  0.3492
21838W        W64750  25.290  11.189   3.860 -0.3678  0.2930 -0.1101
21839W        W64751  24.327  11.188   5.983  0.2020 -0.1480  0.3145
21840W        W64752  24.978   7.524   3.201  0.1414  0.1010 -0.1082
21841W        W64753  25.767  11.803   5.076 -0.0971 -0.1119  0.0161
21842W        W64754  21.757  10.162   6.112 -0.0710 -0.1852 -0.1183
21843W        W64755  24.248  10.386   7.023 -0.0287 -0.1852 -0.1377
21844W        W64756  26.378  10.676   5.575 -0.1196 -0.1220 -0.3840
21845W        W64757  23.248   7.965   6.941 -0.0932  0.3056  0.0548
21846W        W64758  23.647   9.260   4.062  0.0212 -0.3344 -0.1005
21847W        W64759  23.448   6.920   4.849  0.1632 -0.1159 -0.0492
21848W        W64760  21.354  10.070   2.623  0.1218  0.0992 -0.2483
21849W        W64761  24.655   6.888   5.818 -0.0387  0.3280  0.1285
21850W        W64762  25.104   7.335   5.041  0.2720 -0.0070  0.0589
21851W        W64763  23.176   6.629   8.115 -0.0375  0.0094 -0.1004
21852W        W64764  26.240   8.523   7.382 -0.1306  0.3196  0.0930
21853W        W64765  24.542   8.538   4.526 -0.0763 -0.2734  0.1181
21854W        W64766  24.666  10.187   6.233 -0.0323  0.0388  0.3116
21855W        W64767  22.120   8.250   4.703  0.1502 -0.0388  0.2274
21856W        W64768  24.243   8.285   5.364 -0.0760  0.0739  0.0447
21857W        W64769  24.416   9.571   5.760  0.0156  0.0052 -0.0625
21858W        W64770  22.607  10.386   7.264  0.0373  0.1142  0.4820
21859W        W64771  26.420   9.143   5.923 -0.1688 -0.1757 -0.3113
21860W        W64772  25.597   9.950   5.933  0.0186  0.0028  0.0847
21861W        W64773  23.423   8.166   6.397  0.3326 -0.0407 -0.1820
21862W        W64774  24.757   7.580   4.810  0.1216  0.1878  0.4436
21863W        W64775  21.938  11.366   4.809  0.4026 -0.0543  0.5377
21864W        W64776  22.780  11.435   4.382  0.5020  0.1902 -0.1999
21865W        W64777  23.295   8.608   6.130 -0.0776 -0.0205  0.0060
21866W        W64778  24.081  10.021   5.534 -0.1861  0.0133  0.3245
21867W        W64779  22.640  11.029   4.011 -0.2560  0.0631 -0.2692
21868W        W64780  25.115   8.836   7.525  0.1251 -0.0168 -0.0521
21869W        W64781  21.988   9.377   4.076  0.0359 -0.1345  0.0763
21870W        W64782  24.425   7.837   6.278 -0.3792 -0.3363  0.1461
21871W        W64783  21.717  10.099   5.494 -0.2823  0.0037 -0.0848
21872W        W64784  23.351   9.544   2.957 -0.0798 -0.1103  0.3404
21873W        W64785  21.646   9.052   5.881  0.2517  0.1921  0.0249
21874W        W64786  23.703   7.896   5.916 -0.3582 -0.2294  0.0538
21875W        W64787  25.556   9.889   4.965  0.1649  0.0162  0.0099
21876W        W64788  23.249   9.181   6.533  0.0556  0.0294 -0.0063
21877W        W64789  23.002   7.756   5.725  0.1507  0.0451 -0.1494
21878W        W64790  21.682  11.623   6.020 -0.1560  0.2269  0.1481
21879W        W64791  25.779   9.283   6.516 -0.0406 -0.0553  0.4738
21880W        W64792  25.784   7.345   3.961  0.2133 -0.0481  0.2865
21881W        W64793  25.182   9.924   6.297 -0.1121  0.0484  0.1668
21882W        W64794  23.524   9.850   7.297  0.3199 -0.0130 -0.0829
21883W        W64795  22.955   7.488   4.408  0.4264  0.2597 -0.0318
21884W        W64796  25.034   8.591   6.529 -0.1511  0.2353 -0.0432
21885W        W64797  23.663   9.392   4.758  0.2743  0.0367  0.1250
21886W        W64798  21.148  10.913   4.427 -0.0027 -0.0875 -0.1337
21887W        W64799  24.254  10.508   6.070 -0.3823 -0.1392 -0.3583
21888W        W64800  22.388   9.465   5.384  0.3317 -0.1909  0.2434
21889W        W64801  21.106  10.488   4.854  0.2851 -0.0519 -0.1514
21890W        W64802  24.255   8.238   6.596  0.3233 -0.1233  0.1086
21891W        W64803  25.357  10.004   6.739  0.1976  0.3151 -0.0005
21892W        W64804  23.865   8.512   6.386  0.1569  0.0305  0.1803
21893W        W64805  22.330   8.162   5.158  0.0234 -0.1571  0.1118
21894W        W64806  23.114   8.805   5.224 -0.4633  0.0293 -0.2128
21895W        W64807  24.569   9.672   6.372 -0.1503  0.0705  0.3525
21896W        W64808  24.462   8.501   6.087  0.1036  0.1507 -0.3861
21897W        W64809  23.480  10.600   6.407 -0.0147  0.0899  0.0037
21898W        W64810  23.494   7.330   5.234 -0.0893 -0.2498 -0.2992
21899W        W64811  25.712  13.256   3.969 -0.4246 -0.1241  0.1017
21900W        W64812  24.956   9.917   7.358 -0.3027  0.1538 -0.3588
21901W        W64813  22.889   8.701   5.775  0.0262 -0.0344  0.0420
21902W        W64814  21.839   9.502   5.064 -0.1518 -0.0077 -0.1391
21903W        W64815  23.524  10.875   5.874  0.2401  0.0345 -0.0391
21904W        W64816  23.137   7.676   7.303  0.0910 -0.1162  0.1830
21905W        W64817  21.742  10.600   7.386  0.1448 -0.1658 -0.1687
21906W        W64818  23.176  11.018   3.858 -0.1100 -0.0998 -0.4507
21907W        W64819  22.746  10.634   6.266 -0.1212 -0.3095 -0.2222
21908W        W64820  24.044   8.277   4.063 -0.0072  0.2731 -0.1946
21909W        W64821  23.116  10.675   4.457 -0.0487 -0.0294 -0.0910
21910W        W64822  25.270   8.158   6.332 -0.0535  0.1542  0.0699
21911W        W64823  27.166   6.847   6.972  0.0193 -0.1070 -0.0711
21912W        W64824  24.888   9.592   4.185 -0.1281  0.1971  0.1349
21913W        W64825  23.787   7.544   7.647  0.0635  0.0259 -0.0200
21914W        W64826  23.671   9.410   6.466  0.2062  0.0499 -0.0540
21915W        W64827  26.275  10.385   5.999 -0.3528  0.2740  0.0630
21916W        W64828  22.550   7.937   5.938  0.2167 -0.2615  0.0020
21917W        W64829  25.048  12.169   5.769 -0.0471 -0.0129 -0.1137
21918W        W64830  22.073   8.744   7.478  0.1409  0.2032 -0.1401
21919W        W64831  24.191   8.180   4.513 -0.4998 -0.0291  0.2246
21920W        W64832  23.564   8.028   4.087 -0.1309 -0.1716 -0.3750
21921W        W64833  23.171  10.451   6.017  0.1073 -0.1238 -0.0272
21922W        W64834  24.817   9.896   5.874 -0.3738 -0.0114 -0.2206
21923W        W64835  23.285  10.373   5.039 -0.0329  0.1828  0.0169
21924W        W64836  26.390   8.665   5.995  0.1394  0.1090 -0.1862
21925W        W64837  24.368   8.735   6.522 -0.2699 -0.0651  0.0301
21926W        W64838  23.230   9.319   5.809  0.2256 -0.2010  0.0069
21927W        W64839  23.998   9.132   4.384 -0.0267 -0.1615 -0.0339
21928W        W64840  23.428  11.182   5.431 -0.0343  0.2627 -0.0378
21929W        W64841  22.158   7.149   7.175  0.2751 -0.0651  0.0437
21930W        W64842  24.121   9.911   4.806 -0.1143  0.1892  0.0966
21931W        W64843  24.912   8.925   6.162 -0.1854 -0.0818  0.1733
21932W        W64844  24.838   8.619   5.711  0.2453 -0.0149 -0.3039
21933W        W64845  24.506   9.622   7.522 -0.0486  0.2001  0.1705
21934W        W64846  22.636   9.419   7.241 -0.1237  0.1074 -0.2944
21935W        W64847  22.585   6.889   7.356  0.2746 -0.0076  0.1284
21936W        W64848  25.924  12.559   6.009  0.1335  0.1146  0.0535
21937W        W64849  25.166   8.221   3.134  0.0174 -0.0502 -0.1386
21938W        W64850  26.178   7.906   6.636 -0.1716  0.4578 -0.1491
21939W        W64851  26.126   8.905   3.878  0.0660  0.1692 -0.1899
21940W        W64852  24.680   9.074   4.185  0.0233 -0.0901  0.2022
21941W        W64853  22.893  10.033   5.871  0.1643  0.2643 -0.1868
21942W        W64854  24.709  10.524   7.242 -0.0532 -0.0435 -0.0110
21943W        W64855  26.001   8.979   6.106 -0.2646  0.0578  0.1300
21944W        W64856  24.079  11.387   5.149 -0.1533 -0.1738  0.1514
21945W        W64857  24.874  10.119   6.823 -0.2285  0.1397  0.0925
21946W        W64858  24.264   7.373   5.009  0.2068 -0.0990  0.2786
21947W        W64859  22.175  10.280   5.686  0.0392 -0.0976 -0.1568
21948W        W64860  22.640  10.488   7.793 -0.0034  0.0271  0.1886
21949W        W64861  23.425   8.732   4.849 -0.0331  0.0536  0.0926
21950W        W64862  24.815   8.026   3.490  0.4302 -0.2226 -0.1663
21951W        W64863  24.418  10.875   7.036  0.0776 -0.2169  0.4225
21952W        W64864  24.369  10.008   7.962  0.1426  0.0064  0.2073
21953W        W64865  22.978   7.420   3.853  0.0297 -0.1548 -0.3491
21954W        W64866  25.457   7.712   6.531  0.0210 -0.1136 -0.2029
21955W        W64867  21.993  10.257   4.592  0.1088 -0.1276  0.0037
21956W        W64868  23.498   6.350   5.163 -0.1556 -0.0455 -0.1741
21957W        W64869  23.874  10.854   6.257 -0.2034  0.0709 -0.2203
21958W        W64870  21.659  10.167   7.087 -0.2213 -0.1634 -0.2453
21959W        W64871  22.846  10.671   5.016  0.0274  0.1436 -0.0614
21960W        W64872  23.591   7.311   6.942  0.2751  0.0887  0.0102
21961W        W64873  24.620   7.671   5.830 -0.0885  0.1897  0.0741
21962W        W64874  24.476  10.521   6.592 -0.1734 -0.2159  0.0561
21963W        W64875  25.603   8.753   5.802 -0.1111 -0.1825  0.0247
21964W        W64876  24.397  11.587   6.376 -0.1112  0.4043 -0.0520
21965W        W64877  23.897  11.121   5.648 -0.0801 -0.1367 -0.0996
21966W        W64878  24.936  11.745   6.491  0.1665 -0.1980 -0.0509
21967W        W64879  26.001   9.968   6.187  0.1146 -0.0803  0.0447
21968W        W64880  23.499  11.073   6.514 -0.2455 -0.2088 -0.1773
21969W        W64881  21.624   8.179   6.781 -0.0894  0.0061  0.1110
21970W        W64882  23.069  10.754   7.819  0.1083  0.1918  0.1679
21971W        W64883  25.657  10.254   7.124  0.1886 -0.1109  0.3804
21972W        W64884  23.827   7.764   4.657  0.0018 -0.2716 -0.0742
21973W        W64885  23.336  10.446   4.045  0.2658 -0.0323  0.2117
21974W        W64886  22.774   9.685   6.724  0.1787  0.1842 -0.1058
21975W        W64887  20.809  10.258   6.015 -0.4008  0.0484 -0.0311
21976W        W64888  22.950  12.062   4.188 -0.2239 -0.0906  0.1489
21977W        W64889  25.541   9.458   4.542  0.0044 -0.0273  0.1210
21978W        W64890  24.517   9.985   5.278 -0.3063  0.0983  0.2503
21979W        W64891  25.329  11.841   6.141 -0.0056  0.1477 -0.1829
21980W        W64892  23.800   8.105   5.476  0.2366 -0.1407  0.1668
21981W        W64893  21.342  12.081   5.059  0.3447 -0.0606 -0.0680
21982W        W64894  22.103   9.723   4.624  0.0611 -0.2162 -0.0733
21983W        W64895  23.326  11.096   4.569 -0.1561 -0.2566 -0.1516
21984W        W64896  22.935  11.124   5.391  0.1598 -0.4978 -0.1106
21985W        W64897  26.413   9.060   6.420  0.2907 -0.1827 -0.2220
21986W        W64898  25.681   7.802   4.355 -0.0290 -0.1639 -0.4111
21987W        W64899  23.515   8.192   4.600  0.2444 -0.2336 -0.3740
21988W        W64900  25.263   9.122   5.767 -0.3659 -0.0176  0.1899
21989W        W64901  25.271   9.828   7.748 -0.0420  0.0272 -0.2463
21990W        W64902  24.128   9.152   5.606  0.3219  0.0848  0.1713
21991W        W64903  23.100   7.980   3.936  0.0282 -0.0573 -0.0745
21992W        W64904  22.339  10.139   7.601 -0.1285  0.0442 -0.0939
21993W        W64905  25.278   6.945   7.603 -0.1449  0.0202 -0.1692
21994W        W64906  22.331  11.554   7.760 -0.3078 -0.1444  0.0533
21995W        W64907  25.702  11.490   4.137  0.2638 -0.1017 -0.2327
21996W        W64908  21.881   7.982   5.101 -0.2029 -0.2505 -0.0780
21997W        W64909  23.705   9.447   5.731 -0.0461 -0.3267 -0.2398
21998W        W64910  24.911   7.286   7.334 -0.0416 -0.0419  0.0201
21999W        W64911  24.156  10.223   3.808 -0.0819  0.0835 -0.2008
22000W        W64912  23.890   8.696   5.270 -0.3662 -0.3145 -0.0339
22001W        W64913  22.328  10.835   5.423 -0.2387 -0.1537 -0.1808
22002W        W64914  24.372  10.843   5.532  0.0588  0.1067 -0.0504
22003W        W64915  23.600  11.809   6.437 -0.0306  0.1368 -0.2847
22004W        W64916  21.868   7.931   4.334  0.1178  0.1563 -0.0691
22005W        W64917  24.700   9.991   4.365  0.1402  0.0983  0.2192
22006W        W64918  22.867   7.414   7.667  0.0195  0.0869 -0.0070
22007W        W64919  24.899   7.027   6.879 -0.0203 -0.1100 -0.0518
22008W        W64920  24.091  10.827   5.046 -0.2388  0.1779 -0.1939
22009W        W64921  24.638   8.413   4.022 -0.0338  0.2433 -0.0335
22010W        W64922  23.814   9.899   6.673 -0.2961  0.2652 -0.1859
22011W        W64923  23.068   9.277   6.977 -0.0094 -0.0130  0.3478
22012W        W64924  23.857   8.279   4.938 -0.0119  0.2049 -0.2244
22013W        W64925  24.161   8.878   6.080  0.2026  0.1935 -0.1920
22014W        W64926  24.223   9.262   2.869 -0.2121  0.2448 -0.0624
22015W        W64927  24.311  12.037   5.789 -0.0979 -0.2865  0.2551
22016W        W64928  23.491   9.017   4.425  0.2706  0.1708 -0.1693
22017W        W64929  22.468   7.113   4.681  0.1929 -0.0533 -0.1065
22018W        W64930  21.892  11.131   5.839  0.2008 -0.1023 -0.0719
22019W        W64931  23.346   8.865   7.065  0.1752  0.0028  0.0840
22020W        W64932  25.427  11.315   7.319 -0.0157 -0.0600  0.0358
22021W        W64933  21.896   7.309   6.353 -0.0823 -0.0748  0.0077
22022W        W64934  24.627   9.696   4.771  0.1474 -0.0575  0.2947
22023W        W64935  24.857   9.410   5.421  0.2401  0.1640  0.0296
22024W        W64936  24.126  10.787   4.486 -0.2555  0.0396 -0.0308
22025W        W64937  25.328   8.391   4.993 -0.0130 -0.1897 -0.1512
22026W        W64938  25.597  11.297   6.006  0.0096  0.0869 -0.0460
22027W        W64939  20.949   8.099   6.715 -0.3012 -0.3381 -0.0845
22028W        W64940  25.370  11.018   5.643  0.3252 -0.0479 -0.0872
22029W        W64941  25.207  10.593   5.380  0.1987  0.0097  0.2460
22030W        W64942  24.216   6.883   4.355 -0.0506  0.2971 -0.0770
22031W        W64943  23.461   8.443   5.251 -0.0328  0.2093  0.1946
22032W        W64944  21.211  10.032   4.663 -0.0346  0.1872 -0.1439
22033W        W64945  24.666   6.870   6.447  0.2057  0.0940  0.0859
22034W        W64946  24.577   7.946   7.000  0.0555  0.1183  0.1274
22035W        W64947  23.307  13.051   3.342  0.2262  0.0378 -0.3466
22036W        W64948  23.388   8.679   6.631 -0.0418  0.3466  0.1908
22037W        W64949  24.783  11.294   6.229 -0.1500  0.3512 -0.3184
22038W        W64950  21.508  11.516   7.722 -0.0970  0.1189 -0.0397
22039W        W64951  22.522  10.277   4.485  0.4421  0.0904  0.3355
22040W        W64952  23.321   9.442   8.213 -0.1194 -0.2523 -0.0206
22041W        W64953  24.087  10.394   4.792 -0.1142  0.1687  0.1509
22042W        W64954  24.676  11.291   5.643  0.1797 -0.2666 -0.0369
22043W        W64955  25.751  10.501   5.267 -0.0825  0.1847 -0.1312
22044W        W64956  24.604   9.070   5.714 -0.2323  0.1255 -0.0989
22045W        W64957  25.087   9.641   4.655 -0.0751  0.0419  0.0484
22046W        W64958  24.217   7.906   4.960  0.0910 -0.3106  0.1345
22047W        W64959  24.892   7.379   5.559  0.4021 -0.0873 -0.4957
22048W        W64960  24.836   6.049   6.653  0.3000  0.4065  0.0649
22049W        W64961  22.977   9.070   6.119  0.1504 -0.1467  0.0750
22050W        W64962  22.250   9.564   3.727 -0.1442 -0.1000  0.1070
22051W        W64963  22.793  10.566   4.088 -0.0857 -0.2606 -0.1441
22052W        W64964  22.654   7.842   4.895  0.1444  0.0326 -0.2428
22053W        W64965  24.038   6.920   9.218 -0.1538  0.0354  0.2470
22054W        W64966  22.849   8.847   6.727 -0.2188 -0.0765 -0.0724
22055W        W64967  21.966   9.888   6.781  0.4135  0.0494 -0.0302
22056W        W64968  22.425   7.430   5.076  0.1545 -0.0672 -0.1327
22057W        W64969  24.091  10.192   3.202  0.0155 -0.0353 -0.4055
22058W        W64970  22.562   9.641   6.005 -0.0273 -0.0229 -0.1923
22059W        W64971  23.235   9.793   4.850  0.0314  0.1044  0.0715
22060W        W64972  25.058  10.854   4.764  0.0685  0.0288  0.1135
22061W        W64973  25.058  10.725   3.863  0.0298 -0.5112  0.0795
22062W        W64974  24.527   9.106   4.777  0.0364 -0.2000  0.1495
22063W        W64975  25.431  11.880   5.492  0.1371 -0.1350 -0.3055
22064W        W64976  23.291  10.914   4.988 -0.3148 -0.2037  0.0565
22065W        W64977  23.117   9.466   7.427 -0.1561  0.2348  0.0895
22066W        W64978  23.720   8.188   6.733 -0.0693 -0.0713 -0.2510
22067W        W64979  22.102   7.691   4.757 -0.0460 -0.0609 -0.1529
22068W        W64980  24.654   8.449   6.896  0.4405  0.1623 -0.2724
22069W        W64981  24.168  10.752   4.006  0.0504 -0.1945  0.1158
22070W        W64982  25.560  10.742   3.839 -0.1049 -0.0064 -0.2127
22071W        W64983  24.678  12.646   6.511 -0.1526 -0.0193  0.0880
22072W        W64984  23.574  10.362   6.908 -0.1302  0.0449  0.0364
22073W        W64985  22.950   8.210   5.944 -0.0729 -0.1404 -0.0077
22074W        W64986  24.542  10.155   4.819 -0.0900  0.0319  0.0424
22075W        W64987  23.874  10.329   7.354 -0.4293  0.2056 -0.1851
22076W        W64988  25.302  10.539   4.222 -0.0482  0.3213  0.0033
22077W        W64989  26.229   7.520   6.131  0.3543 -0.1904  0.1679
22078W        W64990  24.374   9.423   4.291  0.3073 -0.3587  0.0606
22079W        W64991  22.638   9.198   6.501  0.0200  0.2196  0.0020
22080W        W64992  22.196  10.395   7.985  0.0019 -0.4809  0.1125
22081W        W64993  25.750   9.094   6.986  0.0470  0.0217  0.1011
22082W        W64994  24.272   7.342   4.120 -0.0147 -0.4498 -0.1265
22083W        W64995  25.144   7.884   5.733 -0.2197  0.2952  0.2074
22084W        W64996  24.798  10.432   5.149  0.2155  0.1537  0.2425
22085W        W64997  22.703  10.491   5.805  0.0215 -0.1495  0.1312
22086W        W64998  22.926   9.165   4.372 -0.1053  0.1261  0.4299
22087W        W64999  24.305  10.058   6.614 -0.0921 -0.1821 -0.2140
22088W        W65000  25.524  10.655   4.773  0.2199 -0.0299 -0.1631
22089W        W65001  25.791   9.936   7.946  0.1638  0.1342  0.3179
22090W        W65002  24.121   9.420   4.778 -0.0842 -0.2703 -0.3893
22091W        W65003  25.043   9.108   4.505  0.0621  0.2802  0.0758
22092W        W65004  25.538  12.793   6.291 -0.2452  0.1000 -0.0445
22093W        W65005  24.925  12.205   6.275 -0.2462  0.0527  0.2114
22094W        W65006  23.865  10.783   6.760 -0.0962 -0.2654  0.0535
22095W        W65007  25.463  10.413   5.764  0.0977  0.0158 -0.0915
22096W        W65008  22.555   8.373   5.652  0.1859  0.1494  0.5099
22097W        W65009  24.271  10.445   5.255  0.3659 -0.2475 -0.0267
22098W        W65010  25.235  10.256   5.024  0.0098 -0.0598  0.2219
22099W        W65011  24.738   8.223   6.456  0.4024 -0.1381 -0.3186
22100W        W65012  23.183   9.457   5.217  0.2330 -0.0114  0.0857
22101W        W65013  25.153   7.328   3.923  0.2467 -0.0179 -0.0217
22102W        W65014  23.668  11.370   6.896  0.1311  0.1224 -0.1011
22103W        W65015  23.595  11.417   6.098 -0.1745 -0.0507 -0.3975
22104W        W65016  23.496  11.973   9.027 -0.1880 -0.3301  0.0180
22105W        W65017  23.568   9.271   9.097  0.0805 -0.3195 -0.1174
22106W        W65018  24.792   9.054   6.633 -0.1390 -0.2288 -0.0831
22107W        W65019  25.655   9.876   7.416 -0.3316  0.2722  0.2078
22108W        W65020  22.516   6.194   9.645  0.0931  0.0087 -0.1979
22109W        W65021  24.816  11.300   8.667 -0.0508  0.0300  0.2546
22110W        W65022  25.008  10.554   8.145  0.4049  0.0757 -0.1412
22111W        W65023  25.189  10.373   8.559  0.1852 -0.0350  0.0701
22112W        W65024  23.978   9.833   7.558 -0.0659  0.0843 -0.0351
22113W        W65025  23.538   7.810   9.668  0.3688  0.0645 -0.1523
22114W        W65026  22.997   7.859   8.247 -0.0495  0.0538  0.0033
22115W        W65027  22.872   5.079  10.110 -0.0577 -0.4194  0.0598
22116W        W65028  23.387  10.144   9.402  0.0220  0.0015 -0.0436
22117W        W65029  22.793   9.539   8.825 -0.0825 -0.2938  0.4068
22118W        W65030  23.035   8.263   9.425  0.0211  0.0462  0.2836
22119W        W65031  22.452   8.468   7.278 -0.0360  0.2656  0.0953
22120W        W65032  22.680  10.704   8.784  0.1669 -0.1288  0.0206
22121W        W65033  21.502   5.730   9.851 -0.0957  0.1601 -0.1397
22122W        W65034  23.987  10.900   7.784 -0.0243  0.0419  0.0879
22123W        W65035  22.678   7.983   7.265 -0.0564  0.0643 -0.0107
22124W        W65036  22.217   8.183   8.514 -0.0559  0.1255  0.0433
22125W        W65037  22.653   8.078   8.842 -0.1967 -0.0999  0.0875
22126W        W65038  25.658   8.570   8.293 -0.0889  0.1568  0.0629
22127W        W65039  25.643   9.216   8.612 -0.2104  0.0560 -0.0052
22128W        W65040  24.043  12.045   7.223 -0.0917 -0.0042 -0.3823
22129W        W65041  24.302  10.343   9.705  0.1863  0.0873 -0.1665
22130W        W65042  22.106   9.179   7.900  0.2556  0.1685 -0.0703
22131W        W65043  21.121  12.141   7.955  0.0002  0.0520  0.0468
22132W        W65044  23.095  11.151   7.202 -0.1053 -0.3431  0.1125
22133W        W65045  25.574  10.580   8.080 -0.3403  0.0958 -0.0834
22134W        W65046  24.206   9.415   6.656  0.3722 -0.1648 -0.1317
22135W        W65047  26.457   8.861  10.233  0.1321 -0.2036  0.1541
22136W        W65048  23.047   8.309   7.953 -0.3469 -0.0716  0.1873
22137W        W65049  22.665  10.852   7.445 -0.3524 -0.0089 -0.0008
22138W        W65050  22.392   9.488   8.156 -0.0686 -0.2752  0.3147
22139W        W65051  23.565  11.085   7.555  0.1043 -0.1939  0.0967
22140W        W65052  22.945  10.083   6.974 -0.1097  0.2259 -0.0748
22141W        W65053  24.104   9.302   7.135  0.2189 -0.0488 -0.0690
22142W        W65054  22.501   8.473   6.791 -0.2092 -0.4250  0.0093
22143W        W65055  24.053   8.385   8.173  0.0231  0.1498  0.1690
22144W        W65056  26.637   5.572   9.702 -0.1242 -0.0336 -0.1736
22145W        W65057  22.800  12.008   8.081  0.1740 -0.1180 -0.1475
22146W        W65058  24.300   8.886   8.113 -0.0278  0.0959 -0.2087
22147W        W65059  24.606   9.719   8.798 -0.1325  0.0267 -0.0202
22148W        W65060  22.285  11.028   8.855 -0.2781  0.0391  0.0194
22149W        W65061  21.380  12.380   8.417  0.0486  0.0863  0.2629
22150W        W65062  22.389   8.921   9.098  0.4844  0.0410  0.3635
22151W        W65063  25.762   9.641   6.863  0.3213 -0.4085 -0.0272
22152W        W65064  24.812  10.774   7.647  0.3776 -0.2556 -0.1747
22153W        W65065  23.953  12.083   6.139  0.3437 -0.2324 -0.0330
22154W        W65066  22.794   7.879   7.762 -0.2450 -0.1008  0.2883
22155W        W65067  23.111   7.862   8.726  0.0975 -0.0621 -0.1347
22156W        W65068  23.263   8.280   8.950 -0.3095 -0.0336  0.1591
22157W        W65069  24.710  10.153   8.356 -0.1077 -0.5138 -0.1158
22158W        W65070  24.946  10.526   9.636 -0.0881 -0.1435  0.0591
22159W        W65071  25.182  10.507   7.089 -0.0492 -0.3545 -0.0058
22160W        W65072  24.051   8.366  10.117  0.3336  0.0533  0.3050
22161W        W65073  27.219   6.929   9.300 -0.0697 -0.0206  0.4314
22162W        W65074  23.437   8.561   8.028  0.1028 -0.0742 -0.3664
22163W        W65075  23.566  10.196   7.861 -0.1744 -0.2212 -0.0557
22164W        W65076  23.950  10.275   9.285  0.0588  0.2596 -0.2296
22165W        W65077  24.562   9.036   7.688 -0.1582 -0.2134  0.0116
22166W        W65078  23.686  11.166   9.042 -0.0751 -0.1671 -0.0254
22167W        W65079  21.153  11.106   6.390 -0.0009 -0.2639 -0.0616
22168W        W65080  22.689  10.163   8.873 -0.2265 -0.1514 -0.0442
22169W        W65081  22.164   9.409   6.400 -0.0304  0.4032  0.2518
22170W        W65082  23.798   8.795   9.988  0.3988  0.0334  0.1360
22171W        W65083  29.512   9.294  12.663 -0.0472 -0.1517  0.2019
22172W        W65084  24.338   8.363   7.259 -0.1617 -0.0015 -0.0493
22173W        W65085  23.895   7.227   8.408  0.4077  0.0164  0.0124
22174W        W65086  22.106  11.958   8.493 -0.2007  0.0603  0.2085
22175W        W65087  25.283  10.993   8.048  0.1122 -0.3575  0.1125
22176W        W65088  24.719   9.212   7.249 -0.1656  0.1593 -0.0058
22177W        W65089  24.876  11.001   7.189  0.3114  0.1025  0.0894
22178W        W65090  22.925   8.801   7.882 -0.1453 -0.0732  0.1477
22179W        W65091  22.398   9.164   8.601 -0.1787  0.2135  0.0092
22180W        W65092  20.145   6.353  10.018 -0.0834 -0.1831  0.0707
22181W        W65093  22.560   7.745   8.491 -0.2118  0.0946 -0.2139
22182W        W65094  24.909   8.896   8.034  0.0008  0.1492  0.0863
22183W        W65095  23.467   8.970   8.312  0.2480 -0.3002 -0.2947
22184W        W65096  22.715  11.564   9.013  0.1526 -0.1213  0.1235
22185W        W65097  24.521  11.175   7.495  0.0110 -0.0808  0.1813
22186W        W65098  24.840  10.763   8.519 -0.1169 -0.0628  0.0229
22187W        W65099  24.785  11.048   8.102 -0.0561 -0.4189  0.3421
22188W        W65100  24.238   6.382   9.296 -0.1747  0.0180  0.1538
22189W        W65101  22.531   8.445   7.822 -0.3995  0.1405  0.1019
22190W        W65102  21.948  11.745   8.965 -0.0326 -0.0573 -0.2794
22191W        W65103  22.970  12.860   8.800 -0.1449  0.4182 -0.0074
22192W        W65104  22.982   9.596   6.216  0.1655 -0.2166  0.0456
22193W        W65105  23.093  13.062   7.917  0.0658  0.1554 -0.3052
22194W        W65106  23.781   8.868   7.938  0.2136 -0.2851  0.2633
22195W        W65107  26.442   8.628   9.757 -0.0577 -0.1976  0.2948
22196W        W65108  23.203  11.265   7.849  0.0823  0.2815  0.3223
22197W        W65109  23.314   8.662   7.550 -0.3420  0.0696  0.1475
22198W        W65110  23.806   9.918   8.223 -0.3473 -0.1726  0.0740
22199W        W65111  21.816  11.903   7.469  0.2196 -0.1089  0.1512
22200W        W65112  21.643   8.732   9.232  0.0617 -0.1714  0.3767
22201W        W65113  23.581  10.444   8.401 -0.1438  0.3328 -0.2046
22202W        W65114  25.297   9.738   9.587 -0.0647  0.2575 -0.2176
22203W        W65115  23.124   8.257   8.470  0.0656 -0.1054  0.1691
22204W        W65116  24.355   7.194   7.595 -0.2229  0.0001 -0.0464
22205W        W65117  24.827   8.222   7.333 -0.1522  0.1028  0.2907
22206W        W65118  25.680  10.589   8.654 -0.2347  0.0577 -0.1327
22207W        W65119  24.424  10.087   7.482 -0.1614 -0.0844  0.0922
22208W        W65120  22.477   8.930   7.051 -0.0367  0.0478  0.0411
22209W        W65121  24.380  10.553   9.252  0.0741  0.0086  0.1986
22210W        W65122  22.746  11.092   9.088  0.0359 -0.3248  0.0492
22211W        W65123  24.072   9.219   7.728  0.1035  0.3435 -0.1192
22212W        W65124  25.660  10.959   6.338 -0.3083 -0.4693 -0.1871
22213W        W65125  21.822  10.910   8.651 -0.1437  0.1572 -0.5610
22214W        W65126  25.660  10.136   8.460 -0.0364 -0.1130 -0.1796
22215W        W65127  23.876   7.428   9.325  0.2848  0.0802 -0.0935
22216W        W65128  25.121   9.297   7.785 -0.1503  0.2856 -0.0447
22217W        W65129  23.552   7.657   8.988 -0.2232  0.1451 -0.2295
22218W        W65130  21.148  10.711   6.805  0.0528 -0.0335  0.0781
22219W        W65131  24.711   8.435   9.014  0.1403 -0.2346  0.0658
22220W        W65132  26.253   9.126   9.860 -0.0950 -0.1270  0.0380
22221W        W65133  25.528   8.676   6.621 -0.1496 -0.0684  0.0249
22222W        W65134  23.913   8.891   8.950 -0.2346 -0.1359  0.1598
22223W        W65135  22.872   9.636   5.600  0.1419  0.1787  0.1492
22224W        W65136  23.738   8.451   9.013  0.1354  0.2571  0.1083
22225W        W65137  23.046  12.389   9.541  0.0424 -0.2540 -0.2509
22226W        W65138  24.596   8.483   8.198  0.1689  0.0506  0.0010
22227W        W65139  22.906   8.376   7.485  0.0053  0.1764  0.0367
22228W        W65140  22.760  11.560   7.117 -0.0473  0.0200 -0.2397
22229W        W65141  24.407   8.927   6.963 -0.0349 -0.0905 -0.0323
22230W        W65142  22.756   7.293   8.503 -0.0477 -0.2146  0.3653
22231W        W65143  24.294   9.226   8.563 -0.1781  0.0418 -0.1387
22232W        W65144  23.522  10.607   7.505  0.0829 -0.0384 -0.0484
22233W        W65145  23.975  10.464   8.816  0.0803  0.3778  0.2532
22234W        W65146  21.629  11.185   8.053 -0.1186 -0.0167 -0.0435
22235W        W65147  24.267   8.280   9.229  0.3113 -0.2322 -0.1939
22236W        W65148  22.290  11.834   9.387 -0.2592 -0.1009  0.0853
22237W        W65149  23.537   9.790   6.109 -0.0618 -0.0029 -0.0461
22238W        W65150  22.246   8.410   8.975 -0.1341 -0.3620 -0.4188
22239W        W65151  26.051   8.363   7.917 -0.0978  0.2608  0.1818
22240W        W65152  25.856  10.627   7.496  0.1242  0.0510 -0.0892
22241W        W65153  23.586   6.533   9.112  0.1054 -0.1784 -0.1098
22242W        W65154  23.206   8.680   9.800  0.1961 -0.1315  0.1969
22243W        W65155  22.733   9.288   9.260 -0.0404 -0.0823 -0.0437
22244W        W65156  24.401   7.622   8.496 -0.3423 -0.3156 -0.0784
22245W        W65157  21.895   8.332   7.760 -0.0853  0.1394  0.2102
22246W        W65158  25.052   8.452   9.500  0.1861 -0.1712  0.0723
22247W        W65159  22.679   8.352   8.281  0.2080 -0.0493  0.0992
22248W        W65160  21.613   9.905   8.906  0.0966  0.1877  0.0547
22249W        W65161  23.786  11.632   8.826 -0.0278  0.3290 -0.0706
22250W        W65162  22.930   9.372   7.878 -0.1352 -0.0634 -0.1870
22251W        W65163  21.609  12.045   7.906  0.1263 -0.1520 -0.1432
22252W        W65164  25.084   9.379   9.303 -0.0881  0.1665 -0.0668
22253W        W65165  23.664   8.104   7.917  0.0100  0.0284 -0.1934
22254W        W65166  22.222   7.812   8.905 -0.0597 -0.1827  0.0925
22255W        W65167  24.084   9.517   8.996 -0.1977  0.0799 -0.0698
22256W        W65168  24.613   9.563   9.269  0.1912  0.0914  0.0434
22257W        W65169  22.161   9.939   8.955 -0.1116 -0.1072  0.1089
22258W        W65170  24.567   6.109   9.686 -0.0381 -0.0190  0.0719
22259W        W65171  25.930  11.193   7.136 -0.1663 -0.2556  0.0423
22260W        W65172  23.055  10.681   7.146 -0.0693  0.1509 -0.2373
22261W        W65173  21.436  11.680  10.194  0.2298 -0.2173  0.1057
22262W        W65174  22.883   9.713   8.311  0.3246 -0.0484 -0.2620
22263W        W65175  22.846   9.240   8.361 -0.0506 -0.1802  0.0272
22264W        W65176  22.590  10.295   8.343  0.0167  0.4041 -0.0506
22265W        W65177  22.911   8.844   7.338 -0.0073  0.1562  0.2840
22266W        W65178  23.284   8.878   9.341  0.1119  0.3013 -0.0070
22267W        W65179  24.839   7.194   7.861 -0.2747  0.2989  0.1941
22268W        W65180  23.174   9.848   7.772  0.2893 -0.0172  0.1401
22269W        W65181  24.175   8.511   8.792  0.2921 -0.0620 -0.1876
22270W        W65182  24.477   9.240   6.206 -0.4973 -0.0482 -0.1661
22271W        W65183  22.028   9.129   9.366  0.0100  0.0059 -0.2570
22272W        W65184  25.198   8.867   8.488  0.0843  0.2354 -0.1306
22273W        W65185  24.057   8.841   7.366  0.3884 -0.3623  0.0817
22274W        W65186  22.360   7.158   8.257  0.0289  0.2711 -0.0342
22275W        W65187  24.427   9.375   8.084 -0.0513 -0.1016  0.1965
22276W        W65188  25.294  11.546   9.395  0.0938 -0.1195 -0.0184
22277W        W65189  24.369  11.900   7.743 -0.1398  0.1007  0.3265
22278W        W65190  24.418   8.077   7.917 -0.1531 -0.1835  0.2431
22279W        W65191  22.323  10.552   9.087 -0.0642 -0.2597 -0.2162
22280W        W65192  22.747   7.444   9.625  0.2016 -0.1120  0.2951
22281W        W65193  22.997   8.453   6.985  0.0213 -0.2700  0.0765
22282W        W65194  22.386   9.791   8.529 -0.3386  0.1568  0.2567
22283W        W65195  25.712   9.389   7.748 -0.4719  0.1957  0.2621
22284W        W65196  24.218   7.670   7.900 -0.1938 -0.4038 -0.0181
22285W        W65197  23.972   8.650   9.452 -0.1076  0.1438  0.0561
22286W        W65198  24.440   7.238   7.027  0.2283 -0.3804 -0.1296
22287W        W65199  25.332   9.056   8.931  0.0639 -0.2970 -0.4004
22288W        W65200  25.580   8.190   7.912  0.3836  0.0082 -0.0410
22289W        W65201  23.626   8.396   8.503 -0.0694 -0.1494  0.0649
22290W        W65202  21.492   6.855   9.868  0.0544  0.0207  0.2202
22291W        W65203  22.331   7.466   7.584  0.1754  0.2596  0.5410
22292W        W65204  23.106  11.387   6.332  0.2274  0.2615  0.1399
22293W        W65205  24.469  10.058   9.325  0.1964  0.1896 -0.1392
22294W        W65206  23.970   7.982   8.751  0.0391  0.4139  0.2872
22295W        W65207  21.915   6.815   9.480 -0.3022  0.1855  0.0846
22296W        W65208  23.382   8.116   7.502 -0.2131  0.0477  0.2870
22297W        W65209  23.114  10.348   8.046  0.2193 -0.0497  0.1953
22298W        W65210  24.139   9.984   8.888  0.2063  0.1717 -0.2870
22299W        W65211  23.531   7.796   8.483  0.0210  0.1528 -0.1687
22300W        W65212  21.869  11.488   7.217  0.2410  0.0221 -0.0663
22301W        W65213  25.253   6.675  10.357  0.2207 -0.5411 -0.2369
22302W        W65214  21.676  11.637   9.349 -0.0850  0.0593 -0.2745
22303W        W65215  22.718  11.227   7.919 -0.0882  0.0349  0.3054
22304W        W65216  25.008   7.675   9.995 -0.2796 -0.1132 -0.1148
22305W        W65217  26.209   8.538   8.408  0.0643 -0.0965  0.0803
22306W        W65218  23.919   8.826   8.457 -0.0060  0.3457 -0.1670
22307W        W65219  20.831   8.321   9.328 -0.4131 -0.1262  0.0386
22308W        W65220  25.146  11.000   9.406 -0.0291 -0.1962  0.1119
22309W        W65221  23.050  10.581   9.052 -0.1275  0.1197 -0.0117
22310W        W65222  25.101  10.070   9.883  0.0430 -0.3340  0.1788
22311W        W65223  22.587   7.846   9.863 -0.0899  0.3896  0.1685
22312W        W65224  23.115  10.202   7.420 -0.2595 -0.2018 -0.0001
22313W        W65225  21.954   8.940   8.858  0.0699  0.0896 -0.1824
22314W        W65226  21.763  11.236   9.081 -0.1427 -0.3107  0.3882
22315W        W65227  23.351   9.946   8.372  0.2820 -0.0011 -0.0576
22316W        W65228  24.145   9.919   7.069  0.0294 -0.1264  0.0949
22317W        W65229  23.255  10.930   8.791 -0.2067 -0.1848  0.1319
22318W        W65230  23.499   8.428   7.147 -0.0776 -0.0229 -0.0931
22319W        W65231  22.162  11.262   8.211  0.0927  0.0784  0.0898
22320W        W65232  21.864  10.132   7.580  0.2127  0.0166  0.2967
22321W        W65233  24.303  10.556   7.490  0.3330  0.4450 -0.1105
22322W        W65234  21.332  10.728   8.187 -0.1745  0.0335 -0.1957
22323W        W65235  25.321   9.318   7.270 -0.0132  0.0979 -0.1091
22324W        W65236  25.957   8.916   7.987  0.3644 -0.1247  0.0273
22325W        W65237  26.133   8.047   7.436 -0.0793  0.0668 -0.3512
22326W        W65238  22.290   9.418   9.064 -0.1290  0.0711  0.0433
22327W        W65239  22.925   7.109   8.092 -0.1325  0.0544 -0.0963
22328W        W65240  24.390  11.551   8.282 -0.1805 -0.1386 -0.1788
22329W        W65241  21.829   8.121   8.227 -0.1682 -0.2141  0.0342
22330W        W65242  23.253   9.349   8.698  0.2492 -0.2809 -0.0541
22331W        W65243  25.340   8.937   9.415  0.0031 -0.0636 -0.0857
22332W        W65244  23.603  10.095   8.791  0.2115  0.0841  0.0542
22333W        W65245  25.163  10.583  10.198  0.2660  0.1636  0.0272
22334W        W65246  22.822  11.628   7.709  0.1461  0.1571  0.1134
22335W        W65247  22.631  11.165   8.522 -0.1920  0.0853  0.0795
22336W        W65248  23.728   9.531   8.616  0.0761  0.1756  0.0872
22337W        W65249  21.761   7.469   8.874  0.1310  0.0032 -0.3388
22338W        W65250  24.860   8.188   8.593 -0.1562  0.1735  0.0151
22339W        W65251  23.932   7.885   9.244  0.2861  0.1452 -0.2107
22340W        W65252  22.181  10.399   8.566  0.1726  0.2820 -0.0996
22341W        W65253  25.622   8.915   7.496  0.0404  0.1156  0.0924
22342W        W65254  22.349  11.519   9.771 -0.2101  0.0595  0.4313
22343W        W65255  20.373   7.101   8.682 -0.0779 -0.1567 -0.1398
22344W        W65256  24.177   9.706   8.468  0.1298 -0.0903  0.1686
22345W        W65257  23.685   9.195   7.415 -0.2164 -0.0167 -0.1484
22346W        W65258  22.234   7.576   9.362  0.1423  0.2517 -0.4895
22347W        W65259  25.013   9.435   6.203 -0.0990  0.0897 -0.1966
22348W        W65260  22.992   8.783   8.394 -0.0359 -0.0279 -0.1019
22349W        W65261  25.781  12.164  10.031  0.3577  0.1431 -0.1434
22350W        W65262  23.946   7.591   9.839  0.3023 -0.0939  0.1065
22351W        W65263  27.011  11.187   5.644 -0.0744 -0.1428  0.0377
22352W        W65264  24.840   9.809   8.041 -0.1968 -0.1910  0.1380
22353W        W65265  22.665  10.821   6.919 -0.1162  0.1599  0.0055
22354W        W65266  25.926   9.434   7.315  0.0737  0.1438  0.1227
22355W        W65267  24.989  10.402   9.006  0.0206  0.0999 -0.0357
22356W        W65268  23.033   5.639  10.070  0.1615  0.1534 -0.1230
22357W        W65269  24.863   9.307   8.806  0.0658 -0.0282 -0.4674
22358W        W65270  24.674  10.745  10.291 -0.1136 -0.0843  0.0394
22359W        W65271  23.055   7.780   9.286  0.1682  0.0059 -0.1485
22360W        W65272  22.350   8.482   9.440 -0.1834 -0.3508 -0.1513
22361W        W65273  21.636  10.413   8.671  0.0774  0.0654  0.0148
22362W        W65274  24.395   8.122   8.480 -0.1985  0.1938  0.2549
22363W        W65275  24.082  11.780   6.745  0.2220 -0.1430  0.0291
22364W        W65276  23.244  10.622   9.652 -0.1146 -0.0228 -0.3731
22365W        W65277  23.403   9.141   7.839  0.0135  0.2973 -0.3359
22366W        W65278  21.768  10.314   8.184  0.1645 -0.2706 -0.0427
22367W        W65279  23.508  10.744   8.039 -0.1124 -0.2178 -0.0940
22368W        W65280  25.538  10.665   9.151  0.1293  0.0556 -0.3242
22369W        W65281  24.157   9.154   9.428 -0.0833  0.0197  0.2333
22370W        W65282  24.690  11.010   9.502  0.2829  0.0433  0.4242
22371W        W65283  25.048   7.424   9.090  0.0668 -0.2427  0.0204
22372W        W65284  23.999   8.581   6.926  0.0729  0.3432  0.0042
22373W        W65285  24.986   7.934   9.584 -0.0574  0.1386 -0.1617
22374W        W65286  23.493   8.277   9.945  0.3584  0.0612 -0.1900
22375W        W65287  22.157   9.255   7.315 -0.2387 -0.1575  0.0383
22376W        W65288  22.747   9.854   7.437  0.0680 -0.1703 -0.1143
22377W        W65289  24.358   9.778  10.259  0.1155  0.1200  0.0954
22378W        W65290  21.318   8.214   9.379  0.2352  0.1892 -0.1835
22379W        W65291  22.222   7.991   7.501 -0.2371  0.1516 -0.0836
22380W        W65292  25.262  10.153   8.119 -0.0479  0.0477  0.2939
22381W        W65293  22.541   7.977   9.353 -0.3861 -0.2766 -0.3018
22382W        W65294  19.732   8.057   9.990  0.0439  0.1237  0.1578
22383W        W65295  23.905   9.300   8.168  0.2687  0.0625 -0.1188
22384W        W65296  25.798  11.035   8.868 -0.0125  0.1768 -0.0189
22385W        W65297  24.016   7.502   8.845  0.0273  0.0773  0.0642
22386W        W65298  21.996   9.754   7.243  0.0094 -0.2381  0.0088
22387W        W65299  22.002   7.038   7.611 -0.0093  0.3329 -0.2116
22388W        W65300  24.063   9.859   9.529  0.0609  0.4221 -0.2730
22389W        W65301  23.669  11.277   7.991 -0.2629  0.0638  0.1982
22390W        W65302  25.040  11.217   7.649  0.0060 -0.0390 -0.0074
22391W        W65303  22.400   4.593   9.410  0.0132  0.0394  0.1227
22392W        W65304  24.813  10.282   7.762 -0.1623  0.0092 -0.2027
22393W        W65305  25.806  12.274   6.523  0.1382 -0.0475 -0.0060
22394W        W65306  26.464   9.462   8.129 -0.0917  0.1699 -0.3986
22395W        W65307  23.921   8.961   6.597  0.0700  0.1467  0.1535
22396W        W65308  26.384  10.585   9.591 -0.0737  0.1091  0.0896
22397W        W65309  22.914   7.042   9.347 -0.1500  0.2796 -0.0993
22398W        W65310  24.595   7.924   8.950 -0.0263  0.1627 -0.3497
22399W        W65311  23.999  10.732   8.221  0.1807 -0.1590 -0.0256
22400W        W65312  22.840   9.037   8.851 -0.0721  0.2152  0.0410
22401W        W65313  24.575   8.679   9.488  0.1240 -0.0441  0.1436
22402W        W65314  24.504  10.554   8.062  0.1626  0.0725 -0.2628
22403W        W65315  25.498   9.188   8.158 -0.2676 -0.1565 -0.0579
22404W        W65316  25.351  10.801   7.572 -0.1912  0.0428  0.0628
22405W        W65317  26.414  10.471   9.090  0.0914  0.0251 -0.2836
22406W        W65318  22.699  10.708   9.397 -0.0907 -0.1910 -0.2583
22407W        W65319  24.980   9.928   9.181  0.0305  0.0177  0.0032
22408W        W65320  22.390   6.706   9.803 -0.2260 -0.1278 -0.0554
22409W        W65321  22.698   8.592   8.766 -0.1120  0.0483  0.0776
22410W        W65322  21.890   9.934   8.463 -0.2231  0.0982 -0.1299
22411W        W65323  25.469   9.653   8.241 -0.0932  0.0957  0.0289
22412W        W65324  23.564   8.254   9.417  0.0053  0.0075 -0.0727
22413W        W65325  24.681   8.707   7.340  0.1209  0.1129  0.0361
22414W        W65326  22.163  14.266   9.806 -0.2448  0.0658 -0.0560
22415W        W65327  24.652   9.743   9.730 -0.0313 -0.0904  0.1234
22416W        W65328  23.562  13.540   2.940 -0.2674 -0.1183  0.0326
22417W        W65329  22.277  11.746   1.351 -0.3021 -0.3010 -0.1150
22418W        W65330  25.024  11.082  31.951  0.1452 -0.0899 -0.0952
22419W        W65331  25.251  12.372   0.073 -0.1542 -0.2745 -0.2923
22420W        W65332  21.830  10.808   1.288 -0.0076 -0.1451 -0.0424
22421W        W65333  23.407  12.604  31.547 -0.1100  0.2377  0.0396
22422W        W65334  22.127  11.741   2.984  0.2001  0.1319  0.1446
22423W        W65335  25.843  12.980   1.736  0.0068 -0.1311  0.1630
22424W        W65336  24.983  14.330   2.209 -0.1397 -0.3367  0.1662
22425W        W65337  25.071  12.121  30.645 -0.3566 -0.4843 -0.2299
22426W        W65338  24.075  13.722   1.316 -0.1006 -0.1698 -0.1642
22427W        W65339  24.067  14.806   2.365  0.0445 -0.2670  0.0083
22428W        W65340  23.821  10.789   1.098 -0.1066  0.2686 -0.0789
22429W        W65341  22.376  10.441   2.666  0.1409  0.1714 -0.1833
22430W        W65342  24.762  12.962   1.642  0.2072  0.2652 -0.1071
22431W        W65343  22.446  12.717  31.802  0.1177 -0.3401  0.1096
22432W        W65344  22.698  11.289   2.111  0.0762 -0.0873  0.1083
22433W        W65345  23.505  12.566   0.990  0.1060  0.0701  0.1425
22434W        W65346  24.748  13.774   0.784  0.0891  0.1724  0.1271
22435W        W65347  22.330  12.238   3.107  0.0651 -0.2112 -0.2612
22436W        W65348  23.804  12.043   3.775 -0.1803  0.1419 -0.1321
22437W        W65349  23.923  13.669   0.717 -0.0162 -0.3038 -0.0346
22438W        W65350  22.571  11.145  30.993 -0.1828 -0.2009  0.0011
22439W        W65351  20.350  13.024   1.380  0.4439 -0.0363 -0.0729
22440W        W65352  21.654  12.340   0.834  0.1241  0.2645  0.0413
22441W        W65353  24.046  12.512   2.346  0.3985 -0.1423  0.2482
22442W        W65354  26.000  13.704   1.866  0.1471 -0.4055  0.2282
22443W        W65355  22.891  15.035   2.796 -0.3092  0.2415 -0.0460
22444W        W65356  23.937  12.457   1.285 -0.0176  0.2390 -0.0406
22445W        W65357  24.447  12.433   3.754 -0.2334  0.2174 -0.0364
22446W        W65358  20.596  11.186   1.848  0.3334  0.0212  0.2459
22447W        W65359  22.141  15.143   1.678  0.1522 -0.3804 -0.0772
22448W        W65360  22.453  13.436   1.255  0.1374 -0.2052  0.0310
22449W        W65361  26.171  13.528   0.540 -0.1283 -0.3768  0.1293
22450W        W65362  25.280  13.908   2.564  0.3269 -0.3686 -0.3206
22451W        W65363  23.991  15.615   4.207  0.3502 -0.1836 -0.1312
22452W        W65364  20.974  14.528  31.040  0.1967  0.0763 -0.0125
22453W        W65365  24.097  14.019   3.156  0.2903 -0.0379  0.3457
22454W        W65366  22.368  14.314   2.755 -0.3691 -0.0400 -0.0587
22455W        W65367  23.381  13.377   3.749  0.2675  0.2400  0.1392
22456W        W65368  23.177  13.379   0.848 -0.0554  0.0315  0.1547
22457W        W65369  22.757  13.070   0.016 -0.0617  0.1499 -0.0818
22458W        W65370  24.444  12.711  31.961 -0.0610 -0.3083 -0.0568
22459W        W65371  23.655  13.391   4.746  0.0447 -0.1250 -0.2307
22460W        W65372  22.787  13.670   1.615  0.1589 -0.0836  0.0869
22461W        W65373  26.632  10.806   3.893  0.1835  0.2644 -0.1769
22462W        W65374  21.993  12.557  30.547  0.1008  0.1379 -0.2297
22463W        W65375  24.486  12.065   0.567 -0.3247 -0.4048  0.2194
22464W        W65376  23.173  11.890   0.782  0.1539  0.3592  0.2248
22465W        W65377  24.021  12.142  30.329 -0.0589  0.3873  0.0707
22466W        W65378  22.257  10.371   1.430  0.2045  0.0658 -0.1413
22467W        W65379  22.347  14.501   1.637  0.1080  0.1425 -0.1703
22468W        W65380  23.381  11.814   2.291  0.0382  0.0466 -0.2616
22469W        W65381  25.456  13.226   3.387  0.1128 -0.0854  0.0766
22470W        W65382  24.453  13.313   0.473 -0.1862  0.2414  0.1295
22471W        W65383  24.214  14.064   4.121  0.0497  0.1062  0.0425
22472W        W65384  22.200  14.609   3.194  0.1116  0.2069 -0.4127
22473W        W65385  21.757  11.700   1.412 -0.3179  0.0252  0.3160
22474W        W65386  24.524  15.827  31.586 -0.0148  0.3046  0.3268
22475W        W65387  23.565  14.967   2.208 -0.0710  0.1073  0.0297
22476W        W65388  22.356  14.960  31.102 -0.0578 -0.2064  0.3805
22477W        W65389  21.477  12.811   0.174 -0.0029  0.0405 -0.2197
22478W        W65390  22.049  14.604   2.493  0.3306  0.1576 -0.0912
22479W        W65391  21.894  11.640   2.023  0.0056 -0.0692 -0.2376
22480W        W65392  21.072  11.573  31.468  0.0531 -0.3190 -0.0184
22481W        W65393  25.060  12.414   2.669 -0.2198  0.2505  0.1140
22482W        W65394  21.811  12.587   1.929  0.1898  0.3647 -0.0125
22483W        W65395  24.357  11.546   1.177 -0.1697  0.0126  0.0505
22484W        W65396  23.452  13.114   2.242  0.0834 -0.0139  0.1559
22485W        W65397  25.721  13.424   2.671 -0.4787 -0.1743 -0.0612
22486W        W65398  24.658  13.341  31.979 -0.0992  0.1848 -0.0371
22487W        W65399  24.066  11.301   0.536  0.1775 -0.2809 -0.0507
22488W        W65400  24.888  11.063   3.491 -0.0122  0.1039 -0.1286
22489W        W65401  23.059  13.257  29.853 -0.1069 -0.1754 -0.1599
22490W        W65402  22.463  12.743  30.196  0.1560 -0.4511  0.1606
22491W        W65403  24.676  14.706   2.377 -0.0396 -0.3664  0.0561
22492W        W65404  26.342  12.910   1.346  0.2561  0.1629  0.0315
22493W        W65405  22.187  13.333   1.714  0.3653  0.1338 -0.2029
22494W        W65406  24.544  11.774   2.821  0.1460 -0.2502  0.1268
22495W        W65407  23.182  14.563   3.101  0.1682  0.0834  0.2376
22496W        W65408  22.927  16.656  30.242  0.1181 -0.5375  0.0358
22497W        W65409  20.656  12.898   1.807 -0.0903  0.0160  0.2658
22498W        W65410  21.591  13.416  31.849  0.1627 -0.1545 -0.1863
22499W        W65411  21.081   9.501   1.652 -0.1806 -0.2385  0.4099
22500W        W65412  23.789  13.508   2.233  0.2314  0.2739 -0.1941
22501W        W65413  25.167  12.766   1.329 -0.0443  0.0286 -0.0647
22502W        W65414  21.897  11.416   2.606  0.0417 -0.1134  0.1149
22503W        W65415  25.042  11.463   0.327  0.3187  0.1785 -0.0340
22504W        W65416  22.526  12.133   0.911 -0.2354  0.1347  0.2264
22505W        W65417  24.470  14.253   1.345 -0.0282 -0.0990  0.2175
22506W        W65418  25.883  12.304   0.868 -0.0348 -0.3701 -0.0481
22507W        W65419  23.992  14.004  31.561  0.2355  0.1229 -0.1265
22508W        W65420  21.819  12.036   3.963 -0.1521 -0.1481  0.0390
22509W        W65421  22.135  12.374   0.612 -0.0852  0.0584 -0.3122
22510W        W65422  21.995  12.013   2.528  0.0763  0.1902  0.1082
22511W        W65423  22.042  11.296   1.593  0.2204  0.1515  0.0850
22512W        W65424  24.742  13.665   2.775 -0.3212 -0.0632 -0.1359
22513W        W65425  21.737  10.794   0.327  0.0059 -0.0047  0.3306
22514W        W65426  24.922  13.303   1.044  0.0901  0.2241  0.0759
22515W        W65427  22.769  12.531   0.163 -0.5385  0.2132  0.1409
22516W        W65428  20.696  13.408   1.608 -0.0641 -0.2252 -0.2114
22517W        W65429  23.863  11.122   3.780 -0.0552  0.0046  0.3788
22518W        W65430  24.423  14.007  31.315 -0.2213  0.0405 -0.0888
22519W        W65431  25.865  15.576   2.058 -0.1662  0.1995 -0.1204
22520W        W65432  24.628  12.805   1.190  0.0192  0.0390 -0.1997
22521W        W65433  22.334  11.695   2.380 -0.2537 -0.2021  0.0808
22522W        W65434  21.348  10.416   1.265  0.1355  0.0566  0.2312
22523W        W65435  21.865  13.094   2.050 -0.1579  0.0904 -0.2825
22524W        W65436  22.985  13.679   0.349  0.1591  0.0756 -0.2590
22525W        W65437  22.084  11.305   1.040  0.1335 -0.0410  0.0449
22526W        W65438  24.635  13.787   1.231 -0.0921  0.0903 -0.2068
22527W        W65439  23.108  12.231  31.313  0.0602  0.0556  0.2143
22528W        W65440  24.283  13.584   2.995  0.2067 -0.0084 -0.2783
22529W        W65441  24.516  13.143   2.984 -0.0450  0.2902  0.2817
22530W        W65442  24.419  14.949   1.986  0.0120 -0.0185  0.0903
22531W        W65443  25.478  13.560   1.691  0.1009  0.1028  0.0636
22532W        W65444  20.785  12.031  31.713  0.0063  0.0585  0.0976
22533W        W65445  23.873  14.225   1.496 -0.2457 -0.0356  0.1145
22534W        W65446  21.946  14.818  30.862  0.2849  0.0963 -0.0682
22535W        W65447  21.268  11.937   0.778 -0.1817  0.1108 -0.1051
22536W        W65448  22.433  13.411   0.230  0.0314 -0.3591 -0.0199
22537W        W65449  25.622  12.154   1.847 -0.0049 -0.1116 -0.0194
22538W        W65450  21.089  13.285   2.634  0.0594  0.0747  0.0594
22539W        W65451  25.152  12.261   4.052  0.0490  0.0400  0.4341
22540W        W65452  22.143  11.563  31.430  0.0400 -0.3590 -0.4936
22541W        W65453  22.445  13.201   3.038 -0.1170 -0.2075  0.4273
22542W        W65454  23.293  10.084   0.552 -0.0065  0.1297  0.1322
22543W        W65455  25.177  11.744  31.688 -0.2073  0.1109 -0.1031
22544W        W65456  24.305  13.343   2.491  0.2376 -0.2337  0.1812
22545W        W65457  25.971  12.572   1.349  0.0266  0.0932 -0.0108
22546W        W65458  24.202  12.074  31.303  0.1843  0.3448 -0.3216
22547W        W65459  24.650  11.121   0.437 -0.2288  0.3566  0.0335
22548W        W65460  21.584  12.979   1.573 -0.2074 -0.0336  0.1160
22549W        W65461  23.307  13.539  31.946 -0.0149  0.2201  0.0869
22550W        W65462  23.523  11.618   1.792  0.0669 -0.1598 -0.0391
22551W        W65463  23.579  12.153  31.473 -0.0625  0.1986  0.1759
22552W        W65464  26.163  12.681   0.569 -0.3022 -0.2567  0.1076
22553W        W65465  20.955  12.458   1.336  0.1678  0.3752  0.2478
22554W        W65466  25.168  14.459   3.796  0.2143 -0.2835 -0.0492
22555W        W65467  25.598  14.070   1.776 -0.2479 -0.1100 -0.2476
22556W        W65468  24.220  12.050   2.549 -0.1616  0.1015  0.0152
22557W        W65469  22.834  13.541  31.734 -0.0413 -0.1072  0.2440
22558W        W65470  23.535  11.373   2.667  0.2120  0.2432  0.0566
22559W        W65471  21.425  14.613  31.050 -0.0542 -0.4426 -0.1357
22560W        W65472  23.917  12.809   1.674 -0.0591 -0.1474 -0.4936
22561W        W65473  22.717  11.750   1.135 -0.2818 -0.0099  0.0956
22562W        W65474  22.727  10.426   1.509 -0.0398 -0.2866  0.2067
22563W        W65475  24.952  12.329   4.537  0.1396 -0.1713  0.0327
22564W        W65476  25.735  12.151  31.802 -0.1327  0.1028 -0.0893
22565W        W65477  23.318  12.095   1.902 -0.3167 -0.2343  0.2078
22566W        W65478  22.885  11.496   0.006 -0.1966  0.2542 -0.0793
22567W        W65479  23.247  12.458   2.961 -0.1972 -0.0615 -0.5659
22568W        W65480  23.149  11.203   3.086  0.0101 -0.0147 -0.4932
22569W        W65481  21.648  14.340   2.275  0.2471  0.1249 -0.2704
22570W        W65482  24.292  13.816   2.568 -0.1903  0.0518  0.2076
22571W        W65483  25.358  12.993   0.728 -0.0364 -0.0119  0.2443
22572W        W65484  23.628  11.387   4.216  0.3628 -0.0488 -0.0391
22573W        W65485  23.302  11.910   1.404 -0.1641  0.1330 -0.5177
22574W        W65486  22.547  14.025  31.066 -0.1544  0.0575  0.3122
22575W        W65487  21.936  13.238   1.306  0.0111 -0.1394 -0.0543
22576W        W65488  23.937  10.621   2.743 -0.3729 -0.1790  0.1374
22577W        W65489  23.591  13.109   0.828 -0.0156  0.2938  0.0212
22578W        W65490  21.416  14.546  31.977  0.2702 -0.0501 -0.4061
22579W        W65491  23.672  12.762   2.588  0.1349  0.1699 -0.0269
22580W        W65492  22.414  13.385   2.194 -0.0240  0.2909  0.2654
22581W        W65493  24.839  10.680   1.406 -0.2447 -0.0780 -0.0152
22582W        W65494  20.055  14.628   1.128  0.1478 -0.0023 -0.1349
22583W        W65495  23.165  11.410   0.487  0.0635 -0.1146  0.0111
22584W        W65496  21.379  12.250  31.965 -0.0955  0.1343  0.1003
22585W        W65497  25.487  11.123   0.760  0.0087 -0.1697 -0.2142
22586W        W65498  25.662  12.831  31.532  0.0030 -0.1592 -0.0842
22587W        W65499  23.178  10.903   1.793 -0.0411 -0.1952 -0.0746
22588W        W65500  23.069  12.148   2.541 -0.0438  0.0191 -0.0746
22589W        W65501  21.345  13.159   1.173 -0.2874 -0.4454  0.1959
22590W        W65502  24.004  13.189   3.113  0.2356 -0.0054 -0.2157
22591W        W65503  24.193  11.116   1.373  0.0772  0.1232 -0.0657
22592W        W65504  25.675  14.015   3.935  0.1354  0.4420  0.2173
22593W        W65505  23.849  13.241   2.640  0.0953  0.2082  0.0714
22594W        W65506  21.708  11.665   0.892  0.0177 -0.1295  0.2132
22595W        W65507  23.958  12.432   2.839 -0.0623  0.0201 -0.1732
22596W        W65508  22.475  11.779   1.886 -0.0440 -0.2665 -0.0362
22597W        W65509  22.067  12.407  31.636 -0.1761  0.1806  0.1597
22598W        W65510  24.967  13.450   2.039 -0.1862  0.0957  0.0701
22599W        W65511  23.076  11.908   0.232 -0.0685 -0.3743  0.0451
22600W        W65512  21.406  12.048   1.289 -0.0869 -0.0348  0.5706
22601W        W65513  23.999  13.099   4.561 -0.1183 -0.0638  0.1365
22602W        W65514  25.848  13.970   2.694 -0.1925  0.2838  0.0873
22603W        W65515  22.937  11.757   1.742 -0.1950  0.1580 -0.3350
22604W        W65516  22.040  11.080   0.600  0.4253 -0.0525 -0.1003
22605W        W65517  25.417  12.398   0.882 -0.0608  0.1460  0.0206
22606W        W65518  24.165  13.290   0.896 -0.4865  0.1728  0.0287
22607W        W65519  24.303  11.902   3.777 -0.2056  0.0658 -0.0641
22608W        W65520  23.134  13.921   2.985  0.1773  0.2185  0.2245
22609W        W65521  23.939  10.954   2.355 -0.0630 -0.3575  0.3616
22610W        W65522  24.744  14.452  31.335  0.1402 -0.0172 -0.2751
22611W        W65523  24.324  11.212   4.751 -0.3015  0.0524  0.2182
22612W        W65524  22.903  12.678  31.070 -0.4307 -0.0606 -0.0864
22613W        W65525  20.951  12.759   0.904  0.3575 -0.4640  0.1008
22614W        W65526  21.879  12.879   0.680 -0.3157  0.0070 -0.1004
22615W        W65527  24.868  12.379   1.420 -0.1436  0.0651  0.1797
22616W        W65528  22.657  12.646   1.191  0.0922  0.1829 -0.0173
22617W        W65529  22.346  12.852   0.302  0.1904 -0.1276  0.2095
22618W        W65530  22.826  13.134   1.741 -0.1011 -0.1494 -0.3568
22619W        W65531  26.462   9.879   0.317  0.2411 -0.4726  0.2862
22620W        W65532  24.737  11.891   1.141 -0.1371  0.0231 -0.0689
22621W        W65533  22.241  11.269   2.128  0.0310  0.0504 -0.0143
22622W        W65534  24.703  13.142   3.918 -0.0140  0.1492  0.1036
22623W        W65535  24.742  12.337   0.217  0.1720 -0.0290 -0.1299
22624W        W65536  25.434  11.110   3.390 -0.2389 -0.1674  0.1129
22625W        W65537  22.640  11.285   2.658 -0.0559 -0.1616  0.0042
22626W        W65538  25.239  13.664   1.144 -0.0192 -0.0245 -0.0504
22627W        W65539  20.958  11.325   1.570 -0.0392  0.0844  0.0055
22628W        W65540  23.332  14.261   5.082  0.1198  0.3170 -0.1193
22629W        W65541  24.541  13.488   1.675 -0.0809  0.0317 -0.1121
22630W        W65542  24.015  12.782   0.806  0.0690 -0.0660  0.1411
22631W        W65543  23.249  12.209  31.833 -0.2777 -0.0077  0.0997
22632W        W65544  22.368  12.844   2.055 -0.3283  0.1078 -0.2218
22633W        W65545  25.174  14.035   1.483 -0.0007  0.0784  0.0060
22634W        W65546  22.436  13.245  31.652 -0.2523 -0.2822 -0.1554
22635W        W65547  24.646  12.380   2.269 -0.2569 -0.1899 -0.3643
22636W        W65548  21.872  12.350   2.903 -0.0224  0.1005 -0.0684
22637W        W65549  25.675  12.593   0.503  0.2712  0.0019 -0.0017
22638W        W65550  25.286  13.657  31.159  0.0244 -0.0123  0.2816
22639W        W65551  22.358  12.979   0.965 -0.2547 -0.2521 -0.2134
22640W        W65552  23.930  11.857   3.053 -0.2494 -0.0615 -0.1918
22641W        W65553  23.513  13.497   0.392 -0.1166 -0.0457 -0.1157
22642W        W65554  23.128  11.325   1.516 -0.3758 -0.2232 -0.0803
22643W        W65555  24.004  12.680   3.703  0.0932 -0.1092 -0.1454
22644W        W65556  23.529  12.292   2.506 -0.1072 -0.0490 -0.0244
22645W        W65557  23.939  11.758   4.125 -0.0526 -0.3982 -0.0165
22646W        W65558  21.728  11.457   3.853 -0.0877 -0.3353  0.5416
22647W        W65559  25.000  14.033   2.954 -0.2537  0.0612 -0.2167
22648W        W65560  23.086  10.928   0.704 -0.0330  0.1399  0.0424
22649W        W65561  24.609  12.836   3.491 -0.0810 -0.0767  0.0759
22650W        W65562  25.514  12.146   0.446  0.0530  0.0033  0.0169
22651W        W65563  23.613  12.768   0.425 -0.0370 -0.3003  0.2889
22652W        W65564  22.801  12.206   1.989  0.0879  0.0976  0.2934
22653W        W65565  23.498  11.855   3.432  0.0663 -0.1774 -0.0634
22654W        W65566  23.576  11.460   1.302  0.3926 -0.0463  0.1546
22655W        W65567  24.227  12.778   4.126  0.0215 -0.0716  0.3852
22656W        W65568  22.246  12.797   1.540 -0.0013  0.2260 -0.2120
22657W        W65569  22.363  14.093   1.276  0.0329  0.0644  0.1595
22658W        W65570  24.150  12.180   0.253 -0.1345 -0.2326 -0.3328
22659W        W65571  23.168  12.766   1.300  0.1073  0.1386 -0.0463
22660W        W65572  23.056  13.468   3.047 -0.1441 -0.0565 -0.3075
22661W        W65573  20.548  11.384   1.100  0.1434 -0.2527  0.3411
22662W        W65574  23.926  12.317   0.705 -0.0600  0.0753  0.0343
22663W        W65575  24.753  13.981   1.768 -0.0060 -0.0346 -0.1459
22664W        W65576  24.365  13.636   3.863  0.4424 -0.2564 -0.0343
22665W        W65577  25.318  10.535   0.697  0.1693 -0.2286 -0.0223
22666W        W65578  25.263  11.755   3.924  0.2612  0.0439  0.1163
22667W        W65579  22.340  14.524  31.924  0.0774  0.2287 -0.1782
22668W        W65580  24.298  12.170   1.017  0.2029  0.1416  0.1792
22669W        W65581  22.884  14.936   2.271  0.2699 -0.0784  0.3489
22670W        W65582  20.732  14.115   2.185  0.1478 -0.0805  0.0519
22671W        W65583  24.067  12.975   0.373  0.1888 -0.0054 -0.0767
22672W        W65584  23.746  11.804   2.612 -0.1039 -0.0630 -0.1192
22673W        W65585  24.037  13.058   2.135 -0.3873  0.1199  0.0884
22674W        W65586  24.351  12.490   1.526 -0.1770  0.2059  0.0365
22675W        W65587  24.644  13.832   3.241  0.0071 -0.2213 -0.0503
22676W        W65588  23.402  14.276   3.500  0.0362 -0.0339 -0.0438
22677W        W65589  23.121  12.585   1.964 -0.4043  0.0932 -0.1719
22678W        W65590  23.964  14.568   1.929  0.1085  0.0593 -0.0907
22679W        W65591  25.659  13.330   0.929  0.1709  0.0596 -0.1434
22680W        W65592  24.146  12.935   1.263 -0.1705  0.1415 -0.2782
22681W        W65593  23.179  12.963   3.958 -0.3956 -0.0337 -0.2108
22682W        W65594  23.777  12.337   3.352 -0.2584  0.1631 -0.0639
22683W        W65595  24.313  11.982   1.509 -0.0181  0.2859  0.2700
22684W        W65596  22.933  10.915   1.244  0.1637  0.0301  0.2207
22685W        W65597  22.848  13.129  31.344  0.1089  0.0973 -0.0727
22686W        W65598  20.775  14.987   4.472  0.2981 -0.1809 -0.1216
22687W        W65599  22.550  12.835   2.700  0.3421  0.1172 -0.0544
22688W        W65600  23.411  15.987  31.722  0.1659 -0.2198  0.0766
22689W        W65601  25.078  12.554   0.531  0.2517 -0.0888 -0.0468
22690W        W65602  25.441  12.944  31.045  0.0122  0.1449  0.1355
22691W        W65603  23.647  13.535   1.123  0.0337  0.0482 -0.1986
22692W        W65604  23.284  11.318  31.767  0.1826 -0.1484 -0.0017
22693W        W65605  22.693  12.621   0.660  0.0282  0.0273 -0.0595
22694W        W65606  22.234  13.754  31.450 -0.1170  0.2739  0.0211
22695W        W65607  24.467  14.516   0.329 -0.2309 -0.0245  0.0411
22696W        W65608  21.800  12.020   0.493  0.0322 -0.0239  0.1135
22697W        W65609  24.278  14.304   2.278  0.0495 -0.0214  0.1116
22698W        W65610  24.574  11.783  31.832 -0.0616 -0.3883 -0.1319
22699W        W65611  26.516  12.608   1.702 -0.0390  0.0010 -0.0586
22700W        W65612  26.244  12.013  31.877 -0.0965  0.2668  0.1703
22701W        W65613  24.560  14.253   2.714  0.1867 -0.1028 -0.0614
22702W        W65614  22.566  11.351   1.641 -0.0543 -0.0838  0.0348
22703W        W65615  24.111  12.461  31.013  0.1904 -0.0597  0.0040
22704W        W65616  22.047  13.176   2.506 -0.1221  0.0247  0.1230
22705W        W65617  26.066  11.590   3.348 -0.0195  0.1068  0.2307
22706W        W65618  20.609  15.421   3.577 -0.1570 -0.0709 -0.0631
22707W        W65619  24.707  14.740   0.719  0.0270  0.1161 -0.0429
22708W        W65620  21.065  11.953   0.359  0.1683  0.0067  0.0428
22709W        W65621  23.041  12.323   1.536  0.2215  0.2418 -0.0326
22710W        W65622  24.328  11.776   2.118  0.3694  0.1350  0.0034
22711W        W65623  24.761  12.879   0.311 -0.2963 -0.0534  0.0797
22712W        W65624  24.201  12.236   1.944  0.1712 -0.4647  0.2386
22713W        W65625  22.086  14.891   2.094  0.0799 -0.1396 -0.1267
22714W        W65626  22.284  14.987   2.696  0.0988  0.1653  0.1964
22715W        W65627  21.886  14.361   2.922  0.3823 -0.0853 -0.2414
22716W        W65628  22.657  10.828   1.826  0.1281 -0.1321  0.1030
22717W        W65629  26.750  12.054   1.124 -0.0022 -0.2657  0.3507
22718W        W65630  24.217  13.174   3.859  0.1386 -0.1097 -0.2715
22719W        W65631  23.322  13.124   2.821  0.4507 -0.3297  0.0429
22720W        W65632  21.883  11.964  31.979  0.2284  0.3754 -0.2064
22721W        W65633  23.965  11.749   0.282  0.1464  0.3365  0.1933
22722W        W65634  23.647  13.020   1.331 -0.1154  0.1873 -0.1636
22723W        W65635  22.941  12.842   3.054 -0.2122 -0.2652  0.4478
22724W        W65636  25.535  12.360  30.921  0.0241 -0.0979  0.0801
22725W        W65637  25.892  13.326   2.194 -0.0078 -0.1604 -0.3739
22726W        W65638  24.157  13.144  31.778  0.1983  0.2889  0.2370
22727W        W65639  23.353  15.549   3.382  0.0161 -0.2111  0.3022
22728W        W65640  22.968  10.466   1.000 -0.2068 -0.1043 -0.1638
22729W        W65641  24.009  12.495  31.553 -0.0106  0.4341  0.2828
22730W        W65642  20.075  12.502   0.478  0.2436  0.1377  0.2916
22731W        W65643  23.191  12.745   2.543  0.0225 -0.0936 -0.0809
22732W        W65644  24.001  15.071   3.774 -0.3731 -0.1465 -0.1805
22733W        W65645  21.497   9.816   0.345 -0.1141  0.0254 -0.0552
22734W        W65646  23.939  13.476  30.140 -0.0747  0.0292  0.1571
22735W        W65647  23.648  13.831   3.365  0.0508  0.1540  0.2089
22736W        W65648  24.403  13.798  31.801 -0.0768 -0.2830 -0.2996
22737W        W65649  25.382  12.426  31.589 -0.1685 -0.1804  0.0893
22738W        W65650  23.886  14.028   2.165  0.2290 -0.3223  0.1065
22739W        W65651  20.653  11.487   3.304 -0.1223 -0.0748  0.1776
22740W        W65652  23.970  15.073   1.833 -0.0699 -0.1591 -0.0046
22741W        W65653  25.976  14.451   2.522 -0.1775 -0.1306 -0.2589
22742W        W65654  24.001  11.561   1.657  0.2315  0.5114 -0.0168
22743W        W65655  20.604  12.496   0.568  0.4240  0.1594 -0.1025
22744W        W65656  20.238  14.176  31.978  0.4110  0.1898 -0.1229
22745W        W65657  24.872  11.954   2.467 -0.1073 -0.3269  0.2748
22746W        W65658  23.873  11.886   1.146 -0.2388  0.3254 -0.5340
22747W        W65659  22.886  14.038   0.653 -0.0361  0.1212  0.3331
22748W        W65660  25.666  10.671   3.232 -0.1659  0.0017  0.2452
22749W        W65661  23.983  13.360   1.713  0.3626 -0.2036  0.2031
22750W        W65662  21.922  14.171   3.444 -0.1561 -0.1959 -0.2092
22751W        W65663  22.421  11.554  31.885 -0.1303 -0.1105  0.1285
22752W        W65664  24.969  12.500   3.572  0.3441  0.1672 -0.1332
22753W        W65665  26.026  13.351   1.363  0.1655 -0.2516 -0.0250
22754W        W65666  22.070  13.659   1.002 -0.2523  0.1085 -0.1138
22755W        W65667  24.859  13.234   2.535 -0.1135 -0.1066  0.0186
22756W        W65668  24.336  12.249  31.795 -0.0305  0.3508  0.0027
22757W        W65669  27.540  15.007   0.649 -0.0267  0.2302  0.1648
22758W        W65670  22.366  10.249   0.676  0.3076 -0.0261  0.0138
22759W        W65671  25.578  11.167   0.180  0.1805 -0.4169 -0.0047
22760W        W65672  25.675  11.190   1.284 -0.1090  0.0450 -0.0182
22761W        W65673  22.700  12.656   1.719 -0.1721  0.0396 -0.2738
22762W        W65674  21.074  12.418  30.955 -0.1377  0.0206  0.1119
22763W        W65675  22.212  11.681   0.729  0.2878  0.3148  0.1825
22764W        W65676  21.675  13.335   0.854 -0.2110  0.0162  0.0296
22765W        W65677  24.894  11.306   4.717  0.1436 -0.2490  0.0032
22766W        W65678  22.771  14.277   3.495 -0.0769 -0.0700 -0.0536
22767W        W65679  21.792  13.651   1.595  0.1022 -0.2766 -0.1661
22768W        W65680  21.355  11.496   1.250  0.0942 -0.0886  0.1147
22769W        W65681  26.041  14.021  31.352 -0.3865 -0.0757  0.0095
22770W        W65682  22.607  11.292   0.892  0.1248 -0.0789  0.3699
22771W        W65683  22.310  12.350   1.899  0.0842  0.2474 -0.1546
22772W        W65684  25.093  13.311   1.486  0.0431  0.0763 -0.1602
22773W        W65685  25.293  13.717   0.682 -0.0584  0.1583  0.0632
22774W        W65686  22.691  11.698   0.576  0.1542 -0.1455  0.1215
22775W        W65687  25.367  13.435   2.362 -0.0861  0.0642  0.1504
22776W        W65688  21.143  12.321  31.432  0.0050  0.0792  0.1992
22777W        W65689  23.060  11.996   3.697 -0.0484  0.0058 -0.2113
22778W        W65690  23.399  11.908   2.934 -0.2995 -0.0990 -0.1880
22779W        W65691  22.200  10.659   0.323 -0.3530 -0.0362 -0.0363
22780W        W65692  24.402  12.757   1.964 -0.2304 -0.1936  0.0162
22781W        W65693  24.052  13.485   0.195 -0.0680 -0.1941 -0.0706
22782W        W65694  25.955  14.572   0.342  0.6029  0.4310 -0.1082
22783W        W65695  23.418  13.801   0.758 -0.1420 -0.0572  0.1457
22784W        W65696  22.754  14.062   2.333  0.1686 -0.2952 -0.1536
22785W        W65697  21.976  11.087   3.000  0.1174 -0.1687  0.0290
22786W        W65698  26.143  13.163   0.903 -0.0230 -0.0476  0.4064
22787W        W65699  23.063  13.887   4.277 -0.0069 -0.1093  0.1911
22788W        W65700  24.980  13.300   0.503 -0.1129  0.1551  0.2252
22789W        W65701  23.876  11.595   2.157  0.1403  0.0400 -0.3188
22790W        W65702  24.416  12.622   0.573 -0.0076  0.0275 -0.1627
22791W        W65703  22.204  10.958   2.601 -0.0425  0.0229  0.0721
22792W        W65704  24.633  14.943   3.317  0.0621 -0.1260 -0.2355
22793W        W65705  25.519  13.131   1.347  0.0016  0.0332 -0.4867
22794W        W65706  21.587  11.144   1.578 -0.1922 -0.1730  0.1951
22795W        W65707  23.573  11.371   0.211 -0.0578 -0.1392 -0.0000
22796W        W65708  24.980  13.223  31.013  0.2463 -0.0477  0.0745
22797W        W65709  22.522  12.202   1.410  0.1354  0.1293 -0.0769
22798W        W65710  23.103  13.148   0.401  0.1689  0.1409 -0.3836
22799W        W65711  24.244  13.611   4.416  0.0143  0.0695 -0.0232
22800W        W65712  25.417  12.690   2.367 -0.5872 -0.4662 -0.0520
22801W        W65713  24.992  13.115   3.236  0.1449 -0.1618 -0.0134
22802W        W65714  23.008  12.344   1.012 -0.0956 -0.2004 -0.0743
22803W        W65715  26.632  11.984   1.624  0.0227 -0.1004 -0.1998
22804W        W65716  24.372  14.791   2.754 -0.0127 -0.0772  0.3234
22805W        W65717  24.885  14.768   4.732 -0.0221  0.1506  0.3226
22806W        W65718  23.563  14.822   3.341 -0.0456 -0.1241  0.0101
22807W        W65719  24.670  13.909   2.295 -0.2105  0.1773 -0.0658
22808W        W65720  22.111  10.621   2.264  0.1117 -0.0420  0.1735
22809W        W65721  22.769  12.154   0.506 -0.1086  0.0001 -0.0371
22810W        W65722  22.710  13.321   0.767 -0.1546  0.1555 -0.1710
22811W        W65723  24.728  12.756   2.607  0.1823 -0.4091  0.2671
22812W        W65724  23.487  12.522   1.619 -0.3789 -0.2627 -0.1585
22813W        W65725  23.103  10.343   0.034 -0.0142 -0.1061 -0.1113
22814W        W65726  23.594  14.257   4.684  0.2935 -0.2916 -0.0484
22815W        W65727  23.616  12.597   2.137  0.2039  0.1827  0.3280
22816W        W65728  22.994  12.504   6.498  0.3558  0.0991  0.0169
22817W        W65729  22.108  13.188   4.848 -0.2856  0.0227  0.5328
22818W        W65730  25.500  12.423   3.677  0.2481 -0.1354  0.1145
22819W        W65731  24.430  12.600   4.567  0.0403  0.2535 -0.0797
22820W        W65732  21.794  12.784   5.394 -0.6576 -0.0591 -0.3394
22821W        W65733  24.701  15.379   5.014 -0.1451 -0.3050 -0.1604
22822W        W65734  22.433  12.093   5.789  0.5511  0.0086  0.0604
22823W        W65735  24.993  14.930   6.815 -0.0245  0.3759  0.0492
22824W        W65736  24.319  14.745   7.319 -0.1362  0.3699 -0.3748
22825W        W65737  24.360  14.185   3.601 -0.2072  0.2261  0.0147
22826W        W65738  22.296  12.915   5.256 -0.3815 -0.2291 -0.1609
22827W        W65739  23.431  14.033   5.976  0.1457 -0.4052 -0.1184
22828W        W65740  22.427  12.698   4.244  0.0744  0.1927 -0.1758
22829W        W65741  22.588  11.894   3.794 -0.0869  0.1350 -0.2237
22830W        W65742  25.595  13.207   7.991 -0.1686  0.1448 -0.0939
22831W        W65743  23.054  13.815   3.488 -0.3857 -0.3937 -0.0254
22832W        W65744  22.275  11.753   6.385 -0.1045  0.1438  0.2156
22833W        W65745  24.230  12.478   5.119  0.0500  0.0182 -0.2048
22834W        W65746  25.134  14.099   7.610 -0.0058 -0.1700 -0.1109
22835W        W65747  22.789  11.608   5.403  0.1670  0.4029 -0.2142
22836W        W65748  25.663  14.328   6.220 -0.0276  0.0612 -0.1469
22837W        W65749  24.083  14.049   4.597 -0.0647 -0.0377  0.0376
22838W        W65750  22.858  11.806   2.226  0.2247  0.1332  0.1104
22839W        W65751  21.910  12.837   4.515 -0.0878 -0.0454  0.4523
22840W        W65752  22.158  12.119   5.324 -0.3215  0.2644 -0.1941
22841W        W65753  25.394  13.305   6.148  0.0099 -0.0551  0.2320
22842W        W65754  25.696  14.778   5.962 -0.2053 -0.1728  0.5127
22843W        W65755  24.252  14.480   6.632 -0.1852 -0.0142  0.0737
22844W        W65756  23.404  15.523   6.599  0.3591  0.1684 -0.0513
22845W        W65757  24.856  12.537   7.897 -0.0839 -0.0955 -0.0531
22846W        W65758  21.971  13.732   4.772  0.3824  0.0491  0.2880
22847W        W65759  21.763  15.732   5.892  0.2423  0.0009 -0.2498
22848W        W65760  22.593  13.357   5.402  0.2013  0.3083  0.4003
22849W        W65761  25.077  13.185   4.288  0.4774  0.0057  0.0605
22850W        W65762  24.315  14.173   7.501  0.4394 -0.0015  0.2782
22851W        W65763  25.471  13.867   6.957  0.0356 -0.4198 -0.0891
22852W        W65764  21.560  13.465   2.503 -0.0467  0.1705 -0.1488
22853W        W65765  23.489  14.956   7.337 -0.2636 -0.0153  0.0149
22854W        W65766  24.094  13.441   6.737 -0.0470  0.3269  0.1318
22855W        W65767  23.097  13.264   6.971  0.0364 -0.1055 -0.0237
22856W        W65768  25.232  12.544   4.836  0.1057 -0.2436 -0.4174
22857W        W65769  22.662  14.635   3.072 -0.0270 -0.1148 -0.0650
22858W        W65770  24.018  13.407   6.025 -0.3190 -0.2463  0.2492
22859W        W65771  22.561  14.072   7.068  0.0031  0.1367 -0.1709
22860W        W65772  22.144  13.757   5.418  0.0224  0.4169 -0.1944
22861W        W65773  23.852  12.786   8.094 -0.4207  0.3247  0.2820
22862W        W65774  23.066  14.720   3.610  0.0546  0.0142 -0.1696
22863W        W65775  24.959  11.873   4.368 -0.0353  0.1193  0.0215
22864W        W65776  23.544  12.945   4.534  0.1789  0.1031  0.3874
22865W        W65777  24.391  11.643   4.317  0.1670 -0.1370  0.1392
22866W        W65778  22.687  11.830   4.655  0.0059  0.1215  0.0698
22867W        W65779  23.125  14.803   6.330 -0.2799  0.2138 -0.0887
22868W        W65780  23.187  11.961   7.259  0.2771 -0.3942  0.0244
22869W        W65781  23.838  13.465   7.388 -0.2195 -0.1535  0.1124
22870W        W65782  23.338  12.694   5.628 -0.3043  0.3324 -0.0834
22871W        W65783  26.179  13.557   7.206 -0.0425 -0.2464  0.1423
22872W        W65784  22.622  13.846   5.432  0.0546 -0.1214  0.3898
22873W        W65785  21.445  12.935   4.240  0.2524 -0.0795  0.0013
22874W        W65786  23.718  13.857   4.956  0.0724 -0.0992 -0.1998
22875W        W65787  27.770  14.228   5.432  0.1176  0.2192 -0.0424
22876W        W65788  25.101  16.021   3.055  0.0534 -0.0048  0.0321
22877W        W65789  22.725  13.948   3.867 -0.0636  0.1374 -0.3596
22878W        W65790  21.431  13.364   6.311  0.0389 -0.2301  0.1407
22879W        W65791  21.266  12.633   7.080  0.2314 -0.0013 -0.3894
22880W        W65792  23.257  12.301   3.412 -0.0863  0.0241  0.2042
22881W        W65793  25.547  13.760   7.768 -0.1916 -0.3967  0.1964
22882W        W65794  21.756  13.889   5.739 -0.0963  0.2380 -0.0204
22883W        W65795  25.141  11.485   5.795  0.1468 -0.1304 -0.1413
22884W        W65796  22.571  13.044   5.880 -0.2031 -0.0053  0.0110
22885W        W65797  25.678  14.526   6.998 -0.0611  0.0224 -0.0930
22886W        W65798  23.649  12.820   3.084  0.0941  0.1731 -0.1781
22887W        W65799  25.275  11.525   4.419 -0.0554  0.1523 -0.3243
22888W        W65800  24.678  10.765   6.129 -0.1633 -0.1368 -0.2811
22889W        W65801  22.854  13.117   1.192 -0.4085 -0.0645 -0.1185
22890W        W65802  25.200  13.466   5.093 -0.0915  0.0796  0.0362
22891W        W65803  24.816  15.138   6.363 -0.1733 -0.0810  0.0549
22892W        W65804  24.093  12.282   4.048  0.1414  0.0739 -0.3689
22893W        W65805  22.133  14.761   5.548  0.1505 -0.0409 -0.1540
22894W        W65806  24.614  13.066   6.231 -0.0852  0.0906 -0.0276
22895W        W65807  23.918  12.302   6.743  0.0737 -0.0722 -0.2732
22896W        W65808  21.737  15.797   4.463 -0.1568 -0.0316  0.2060
22897W        W65809  20.951  13.276   6.643  0.0612 -0.0856 -0.1525
22898W        W65810  22.817  13.089   2.269  0.2780  0.0908  0.1217
22899W        W65811  21.429  11.269   5.421  0.0448 -0.1983 -0.2056
22900W        W65812  23.177  13.212   5.394  0.2315 -0.3129  0.4087
22901W        W65813  24.871  11.821   4.853 -0.3466  0.1786 -0.0986
22902W        W65814  21.996  10.359   5.081  0.0882  0.4482 -0.0616
22903W        W65815  26.273  13.276   4.675  0.0086  0.1600 -0.2062
22904W        W65816  22.638  13.652   3.292  0.2040 -0.1775  0.2364
22905W        W65817  25.462  14.297   5.370 -0.0079  0.1031 -0.2002
22906W        W65818  25.317  13.078   4.768  0.1877  0.0405 -0.0203
22907W        W65819  23.924  14.018   3.733 -0.0661  0.4608  0.1862
22908W        W65820  22.263  12.256   4.783 -0.0782  0.3920 -0.0129
22909W        W65821  22.691  13.107   4.924 -0.1460  0.0411 -0.0576
22910W        W65822  22.313  11.741   6.881 -0.0810 -0.3678  0.1890
22911W        W65823  21.032  12.592   4.306 -0.1815  0.1365  0.1618
22912W        W65824  24.974  14.232   8.058  0.0630  0.1528 -0.0010
22913W        W65825  22.220  11.558   4.052 -0.2775 -0.0780 -0.1296
22914W        W65826  25.023  12.681   6.133  0.0509 -0.1675  0.0175
22915W        W65827  23.443  12.041   5.028 -0.2113  0.0417 -0.0348
22916W        W65828  21.366  13.803   3.362 -0.0243  0.0906  0.2850
22917W        W65829  25.263  11.386   6.439 -0.1331  0.1253  0.2810
22918W        W65830  25.274  14.009   4.987 -0.0080  0.2294  0.0756
22919W        W65831  24.935  14.809   7.898 -0.0622  0.0703  0.1192
22920W        W65832  24.603  14.598   6.090 -0.1599 -0.1052  0.3554
22921W        W65833  23.212  12.422   3.922  0.0213  0.0331 -0.1157
22922W        W65834  22.614  13.053   3.953 -0.2816  0.0914  0.4003
22923W        W65835  22.429  13.611   4.698  0.0367 -0.0208 -0.1687
22924W        W65836  23.884  15.617   6.328  0.1888 -0.2086 -0.1898
22925W        W65837  22.497  13.476   3.741 -0.0982 -0.2640 -0.0530
22926W        W65838  26.813  13.465   5.866 -0.0340 -0.1214 -0.1605
22927W        W65839  22.945  14.019   5.796 -0.1212  0.1280 -0.0403
22928W        W65840  24.048  12.568   6.308 -0.0084  0.0988 -0.0518
22929W        W65841  25.103  11.207   5.211 -0.3513 -0.3333  0.3151
22930W        W65842  25.113  13.566   6.678 -0.0298  0.1872  0.4310
22931W        W65843  24.313  13.891   5.580  0.3202 -0.0743 -0.2976
22932W        W65844  22.475  12.707   3.218  0.3347 -0.1329  0.2309
22933W        W65845  24.716  15.688   6.236 -0.0779 -0.1036  0.1866
22934W        W65846  21.239  13.460   3.078  0.0256  0.0015 -0.7421
22935W        W65847  21.136  12.220   3.805 -0.0752  0.2165 -0.4219
22936W        W65848  24.310  15.020   5.861 -0.1547  0.1393 -0.1339
22937W        W65849  26.120  12.109   5.399  0.0225 -0.2043 -0.0963
22938W        W65850  21.196  13.587   7.326  0.2712  0.0494  0.0274
22939W        W65851  24.177  13.125   7.145 -0.1010  0.1474 -0.0342
22940W        W65852  22.011  13.067   3.951  0.0381 -0.2732 -0.0864
22941W        W65853  22.976  14.331   6.272 -0.0657  0.0535  0.2222
22942W        W65854  24.645  12.140   5.421 -0.3517  0.0591  0.3296
22943W        W65855  25.660  12.778   4.072  0.1940 -0.0426 -0.1561
22944W        W65856  23.116  13.732   6.262 -0.2990 -0.0153  0.3209
22945W        W65857  24.150  13.545   4.934  0.2023 -0.1887 -0.0106
22946W        W65858  24.184  12.925   5.857  0.2406 -0.0478 -0.3173
22947W        W65859  23.942  11.636   4.635  0.0784  0.2918 -0.0831
22948W        W65860  22.136  12.755   7.111  0.3448  0.0174  0.1286
22949W        W65861  22.536  14.311   4.110 -0.0173  0.0965  0.4004
22950W        W65862  24.135  13.913   6.532  0.4339 -0.0253 -0.0492
22951W        W65863  22.004  12.677   3.425 -0.1925 -0.0298 -0.0432
22952W        W65864  24.618  13.971   4.461 -0.0828  0.0675  0.0695
22953W        W65865  21.438  13.853   4.885  0.1659 -0.0599  0.3506
22954W        W65866  24.004  12.819   7.632  0.0262  0.1118 -0.0007
22955W        W65867  24.312  15.397   6.186 -0.1943  0.0660  0.0508
22956W        W65868  24.836  11.473   7.230  0.1393  0.2032  0.2335
22957W        W65869  22.887  13.281   3.505 -0.4237  0.1588 -0.1648
22958W        W65870  22.559  12.508   5.147  0.3287 -0.0208  0.1115
22959W        W65871  20.455  15.787   3.089 -0.1350 -0.0037  0.0690
22960W        W65872  26.279  12.803   5.736 -0.4133  0.0117  0.2021
22961W        W65873  24.317  11.707   5.466 -0.1108 -0.3844 -0.2413
22962W        W65874  23.181  11.928   6.279  0.0425 -0.2913  0.0861
22963W        W65875  24.766  13.740   7.648  0.2383 -0.0049  0.1030
22964W        W65876  24.808  12.870   4.667 -0.1330 -0.2438  0.4405
22965W        W65877  24.515  12.203   7.389  0.5956 -0.2197  0.0854
22966W        W65878  22.222  13.103   3.446 -0.2900 -0.2464 -0.2736
22967W        W65879  25.270  12.779   6.909 -0.0255  0.0097 -0.1904
22968W        W65880  21.395  12.461   5.724  0.2306 -0.1148 -0.0465
22969W        W65881  23.462  14.507   6.143 -0.0089 -0.2651  0.0266
22970W        W65882  24.661  13.377   7.287  0.1935 -0.0187 -0.0963
22971W        W65883  25.851  13.669   5.813  0.0609  0.0135 -0.0450
22972W        W65884  23.975  12.045   4.965 -0.0018  0.1468 -0.0401
22973W        W65885  24.374  11.739   4.839  0.2091 -0.1021 -0.2517
22974W        W65886  22.184  14.467   3.752  0.3394 -0.2300  0.1588
22975W        W65887  22.918  12.747   3.561 -0.1131 -0.5955  0.0994
22976W        W65888  23.070  11.939   5.773 -0.0738 -0.0031 -0.2403
22977W        W65889  23.479  15.140   6.309 -0.1936 -0.1248  0.1807
22978W        W65890  22.468  12.171   2.352  0.3611 -0.0609  0.1122
22979W        W65891  23.260  13.765   6.773  0.0050 -0.1553 -0.4211
22980W        W65892  22.672  13.909   2.827 -0.0758 -0.1104 -0.1155
22981W        W65893  25.991  10.818   6.778  0.3229 -0.0921  0.5288
22982W        W65894  22.762  12.962   6.423 -0.2435  0.0425 -0.2848
22983W        W65895  22.545  11.899   2.799  0.0573 -0.0873  0.0049
22984W        W65896  21.688  13.180   3.278  0.2618  0.0263 -0.0111
22985W        W65897  25.075  13.050   5.313  0.1913  0.1706 -0.2105
22986W        W65898  25.152  13.423   3.834 -0.2240 -0.1094  0.3564
22987W        W65899  21.441  11.766   5.632 -0.2101  0.0415  0.1577
22988W        W65900  23.338  11.702   5.430  0.0167  0.0796  0.0879
22989W        W65901  22.207  15.285   5.696  0.1177 -0.1758 -0.0779
22990W        W65902  25.424  13.550   8.410  0.1846  0.3004  0.0809
22991W        W65903  24.580  12.229   4.222 -0.3937 -0.0471 -0.1792
22992W        W65904  25.150  14.434   7.110 -0.0996  0.1175 -0.0872
22993W        W65905  23.221  12.415   6.049 -0.2746  0.0037 -0.1909
22994W        W65906  23.123  12.613   4.350 -0.1738 -0.0866  0.3386
22995W        W65907  25.742  12.738   6.800 -0.2485 -0.1139 -0.0585
22996W        W65908  23.829  12.805   5.505  0.1548 -0.0654 -0.0261
22997W        W65909  20.488  15.371   4.470  0.1100 -0.1579 -0.1800
22998W        W65910  24.258  14.085   6.996 -0.1172  0.2719 -0.4231
22999W        W65911  21.164  12.798   1.764 -0.1425  0.3360  0.0004
23000W        W65912  22.328  14.047   3.172 -0.1863  0.1197 -0.2564
23001W        W65913  23.571  12.320   6.390  0.2830  0.0597  0.0696
23002W        W65914  26.013  14.572   7.385  0.2312  0.1628 -0.0140
23003W        W65915  21.999  13.243   5.516 -0.0000  0.2898  0.1847
23004W        W65916  22.420  12.126   4.222 -0.0860  0.1744  0.0430
23005W        W65917  24.514  13.327   5.841  0.1792  0.1956  0.2494
23006W        W65918  25.557  14.868   5.426 -0.1157  0.2886 -0.0235
23007W        W65919  23.182  13.734   8.248  0.1224 -0.3212  0.1116
23008W        W65920  22.633  14.683   6.125 -0.2098 -0.2095 -0.0636
23009W        W65921  24.050  11.580   6.010  0.2009 -0.3954  0.3104
23010W        W65922  27.446  13.921   6.628 -0.0138  0.1253 -0.3493
23011W        W65923  23.864  14.229   6.267  0.3091 -0.0107 -0.4043
23012W        W65924  23.758  13.104   3.594  0.2409 -0.1193  0.0959
23013W        W65925  21.036  13.060   6.063 -0.0902  0.2231  0.1383
23014W        W65926  22.422  13.211   4.419 -0.0112 -0.0929 -0.1832
23015W        W65927  23.115  13.084   5.982 -0.1963 -0.0627 -0.1366
23016W        W65928  21.650  13.067   4.999  0.2940  0.2560  0.0871
23017W        W65929  22.187  13.670   2.827 -0.3365 -0.1858  0.0562
23018W        W65930  22.835  12.676   6.045  0.1827  0.0540  0.3489
23019W        W65931  24.136  11.232   4.284 -0.2943 -0.2309 -0.0641
23020W        W65932  23.648  13.441   5.262 -0.2128 -0.2001  0.0720
23021W        W65933  23.819  11.598   5.503  0.1712  0.0107 -0.0090
23022W        W65934  25.350  12.800   8.226 -0.2055  0.1328 -0.0483
23023W        W65935  23.902  14.474   3.525 -0.2444 -0.1073 -0.2214
23024W        W65936  25.293  12.996   5.764 -0.1635  0.0881  0.0781
23025W        W65937  22.755  11.776   6.599 -0.0528 -0.1530 -0.0080
23026W        W65938  26.178  14.495   5.974  0.1557 -0.4460 -0.1174
23027W        W65939  21.363  12.033   6.037  0.1287 -0.3209 -0.0716
23028W        W65940  23.541  15.132   6.855  0.2781 -0.1400  0.0714
23029W        W65941  24.737  12.924   5.701  0.0635 -0.1202 -0.0024
23030W        W65942  23.191  12.466   5.223 -0.0690 -0.3211 -0.1323
23031W        W65943  22.711  12.354   4.574 -0.4119  0.0046 -0.0934
23032W        W65944  22.830  13.462   5.901  0.0491 -0.0022 -0.0009
23033W        W65945  25.366  12.492   5.535  0.2111 -0.0811  0.2207
23034W        W65946  23.110  14.328   4.558  0.1540  0.3744  0.1933
23035W        W65947  26.380  11.802   5.775  0.1166  0.1840  0.0585
23036W        W65948  22.227  14.163   5.727 -0.1284 -0.1181 -0.2697
23037W        W65949  25.327  11.643   5.034  0.1717 -0.0167  0.3361
23038W        W65950  24.214  12.058   4.471 -0.0260 -0.2114  0.0756
23039W        W65951  22.707  14.037   4.672  0.2028 -0.0582 -0.1704
23040W        W65952  23.956  11.324   6.479  0.0597 -0.0121  0.1626
23041W        W65953  27.020  13.499   5.359  0.0487  0.3694  0.3963
23042W        W65954  23.732  12.479   5.170  0.1285  0.2559  0.1246
23043W        W65955  24.766  12.602   5.090 -0.0685  0.0722 -0.0572
23044W        W65956  25.971  13.050   6.132  0.1795  0.1628  0.2414
23045W        W65957  24.145  13.397   5.525 -0.4710 -0.0699 -0.0113
23046W        W65958  22.745  11.660   6.018  0.0256  0.0971  0.0396
23047W        W65959  24.830  14.551   6.528 -0.1988  0.1076 -0.1635
23048W        W65960  24.757  12.672   4.059 -0.1022  0.0222  0.2571
23049W        W65961  25.123  13.264   8.187 -0.2607  0.3692  0.2065
23050W        W65962  26.595  13.724   4.994  0.0966 -0.3654 -0.1078
23051W        W65963  23.458  12.718   3.650  0.0043  0.2185  0.0352
23052W        W65964  21.142  12.790   3.871 -0.0408 -0.0393 -0.0717
23053W        W65965  25.386  13.276   7.028 -0.2005  0.1596 -0.1443
23054W        W65966  22.962  12.012   3.072 -0.2091 -0.1269 -0.1547
23055W        W65967  24.527  13.183   6.827  0.3030 -0.0464 -0.2168
23056W        W65968  24.049  14.427   4.971 -0.0074 -0.1338  0.1083
23057W        W65969  23.981  14.767   6.208  0.1583 -0.3866 -0.0681
23058W        W65970  24.488  13.156   4.366  0.0531  0.1292 -0.1909
23059W        W65971  21.081  13.357   4.039 -0.3337  0.0853  0.0914
23060W        W65972  22.922  15.704   7.383  0.0680  0.0040  0.0728
23061W        W65973  22.110  11.153   3.461 -0.2216 -0.2420 -0.0286
23062W        W65974  23.657  13.867   4.386 -0.1402  0.0125  0.2743
23063W        W65975  23.830  14.143   5.348 -0.2187  0.0593  0.1195
23064W        W65976  24.832  12.812   8.341  0.0497 -0.1846  0.4305
23065W        W65977  23.083  11.541   4.998  0.2227 -0.2037 -0.1375
23066W        W65978  24.710  11.529   7.797 -0.1135  0.0737 -0.1446
23067W        W65979  22.341  14.046   5.005 -0.0498 -0.2521 -0.0787
23068W        W65980  25.811  12.643   4.594 -0.2453  0.2008  0.1797
23069W        W65981  23.074  14.316   3.923  0.3425 -0.4323 -0.1550
23070W        W65982  22.085  12.927   5.959  0.5624 -0.0705  0.0351
23071W        W65983  23.199  13.287   4.883 -0.2474 -0.2193 -0.1360
23072W        W65984  23.730  12.442   5.879  0.2413 -0.0515 -0.0304
23073W        W65985  25.964  13.411   7.665  0.0832 -0.1799 -0.3929
23074W        W65986  24.999  14.042   6.775  0.2690  0.1092  0.0080
23075W        W65987  25.455  12.032   7.954 -0.2278  0.2372 -0.1606
23076W        W65988  25.891  13.648   6.778  0.1930 -0.4915  0.4269
23077W        W65989  21.818  11.925   4.913  0.0053 -0.0498  0.2535
23078W        W65990  23.122  14.878   6.848  0.0651  0.1052  0.0514
23079W        W65991  25.088  13.838   4.485 -0.0260 -0.1317 -0.1484
23080W        W65992  21.047  14.655   5.123  0.1134  0.0390  0.0155
23081W        W65993  21.193  12.679   6.587  0.1090  0.1714  0.0792
23082W        W65994  23.570  12.867   6.078  0.2412 -0.2969  0.0016
23083W        W65995  23.817  13.763   5.732  0.3331  0.1944  0.3465
23084W        W65996  21.566  11.081   4.709 -0.1664 -0.0647 -0.2211
23085W        W65997  23.910  12.973   5.029 -0.1684 -0.0551  0.3326
23086W        W65998  22.239  14.472   6.868  0.0748  0.2381 -0.1869
23087W        W65999  21.698  14.159   5.196  0.2008 -0.2113  0.0510
23088W        W66000  21.406  14.606   4.041 -0.1583 -0.0848  0.1056
23089W        W66001  24.774  13.620   4.145  0.2511 -0.0875  0.0897
23090W        W66002  24.772  13.482   4.709 -0.3510  0.1488  0.1955
23091W        W66003  25.181  15.781   6.324  0.1842  0.5300  0.0681
23092W        W66004  23.972  12.442   4.632 -0.0378 -0.2028  0.1532
23093W        W66005  22.735  14.453   5.701  0.1686  0.3327 -0.4755
23094W        W66006  22.247  15.225   4.100 -0.0749  0.0926 -0.3494
23095W        W66007  22.774  12.404   2.816 -0.0279  0.1259 -0.1991
23096W        W66008  23.387  14.668   4.835  0.0387 -0.1475 -0.1357
23097W        W66009  23.561  13.294   6.833 -0.1798 -0.2725 -0.0192
23098W        W66010  24.805  11.575   3.614 -0.1856  0.2385  0.2116
23099W        W66011  26.522  12.204   7.130 -0.0189  0.0507 -0.2528
23100W        W66012  25.608  11.968   4.186 -0.1911  0.2112  0.0328
23101W        W66013  24.633  14.469   6.997  0.1991 -0.2463 -0.2696
23102W        W66014  25.567  13.376   5.528 -0.1280  0.2636  0.2878
23103W        W66015  22.307  12.723   4.781  0.0083  0.0246  0.0893
23104W        W66016  24.556  13.706   6.796 -0.2557 -0.0199 -0.0475
23105W        W66017  25.298  12.446   6.557 -0.0134 -0.0323  0.3097
23106W        W66018  21.867  13.611   6.735 -0.1063 -0.2491 -0.4578
23107W        W66019  24.380  14.492   3.211 -0.3645 -0.3752 -0.1115
23108W        W66020  21.765  13.993   3.955  0.0207  0.0725 -0.0925
23109W        W66021  23.670  13.287   6.326 -0.1407 -0.0079 -0.1064
23110W        W66022  25.657  13.235   6.573 -0.2349 -0.1439  0.3165
23111W        W66023  23.238  13.869   4.765 -0.1325  0.1242 -0.2210
23112W        W66024  24.369  12.464   7.902  0.2433  0.1859 -0.2874
23113W        W66025  22.773  14.640   4.802  0.2768  0.0800 -0.2022
23114W        W66026  21.856  14.404   6.145  0.2793  0.0472 -0.2286
23115W        W66027  22.752  15.229   7.069 -0.0324 -0.1609  0.0006
23116W        W66028  23.414  12.505   4.728  0.0159 -0.0798 -0.2090
23117W        W66029  25.559  12.806   5.175  0.2434 -0.2933  0.0268
23118W        W66030  22.971  12.695   4.856 -0.0085 -0.2617 -0.2424
23119W        W66031  26.175  12.731   6.555  0.3064  0.3765 -0.1343
23120W        W66032  23.316  13.847   5.400  0.3503 -0.2018  0.0320
23121W        W66033  25.386  13.806   5.939  0.2728 -0.3166 -0.1779
23122W        W66034  24.122  13.027   6.392 -0.5236  0.0395 -0.1022
23123W        W66035  21.979  11.198   5.381 -0.1063 -0.1014 -0.2860
23124W        W66036  23.402  12.898   5.100 -0.4339 -0.2975 -0.0907
23125W        W66037  25.367  14.321   6.638 -0.3496  0.3533  0.0481
23126W        W66038  23.667  12.550   4.245  0.0063 -0.0313 -0.2620
23127W        W66039  23.863  15.927   7.332 -0.2073 -0.2668 -0.1563
23128W        W66040  21.745  11.765   4.408 -0.0599 -0.0303 -0.2044
23129W        W66041  24.784  12.039   3.809  0.0653  0.3198 -0.1403
23130W        W66042  22.905  13.508   4.573 -0.2556 -0.0396  0.1284
23131W        W66043  25.121  13.063   6.518 -0.0725 -0.0352 -0.1168
23132W        W66044  24.207  14.180   8.348 -0.0833 -0.1173  0.4468
23133W        W66045  22.250  12.180   3.614 -0.0945 -0.0584 -0.0306
23134W        W66046  25.992  14.199   3.566  0.0350 -0.0340  0.1574
23135W        W66047  25.052  13.398   5.654 -0.3763 -0.1093 -0.1590
23136W        W66048  23.292  13.398   4.293  0.1371 -0.2306 -0.0912
23137W        W66049  24.937  14.440   5.181 -0.2615  0.3931  0.0136
23138W        W66050  24.647  15.238   5.532  0.5498 -0.2263 -0.1444
23139W        W66051  19.624  11.991   7.146  0.0492 -0.0449 -0.1042
23140W        W66052  23.825  14.280   6.800  0.3044  0.4538  0.2131
23141W        W66053  25.342  14.563   4.927 -0.1696 -0.1779  0.1738
23142W        W66054  24.579  12.189   4.924 -0.2229  0.0108  0.2365
23143W        W66055  22.222  11.657   5.147 -0.3032  0.0722 -0.0853
23144W        W66056  21.408  14.428   4.818  0.3855  0.2290 -0.0892
23145W        W66057  26.646  12.778   6.768  0.4438 -0.1485 -0.2656
23146W        W66058  26.274  14.002   5.262 -0.3137 -0.0266 -0.1193
23147W        W66059  24.611  14.586   3.714  0.0090  0.2616  0.0178
23148W        W66060  24.711  11.326   6.782  0.0572  0.1005  0.2835
23149W        W66061  23.334  13.543   5.826  0.1430 -0.0392  0.1894
23150W        W66062  23.421  14.549   7.021 -0.1023  0.0292 -0.0843
23151W        W66063  22.384  12.670   3.715 -0.0448  0.1053 -0.0064
23152W        W66064  24.625  12.404   5.889  0.1624 -0.1028 -0.2213
23153W        W66065  24.083  14.828   5.478 -0.0285  0.0906  0.2313
23154W        W66066  22.188  13.551   3.327  0.0632 -0.1365 -0.1530
23155W        W66067  25.882  14.487   5.150  0.0396  0.1354  0.0077
23156W        W66068  23.422  12.187   5.533  0.1615  0.1228  0.0878
23157W        W66069  25.519  14.129   4.443  0.0780  0.0614 -0.0885
23158W        W66070  23.120  12.101   4.615 -0.1615  0.4392 -0.3511
23159W        W66071  25.650  11.624   3.675  0.3367 -0.2327 -0.1863
23160W        W66072  25.756  12.922   5.656 -0.1827 -0.0471 -0.0841
23161W        W66073  22.307  13.473   5.830  0.0515  0.0706 -0.1144
23162W        W66074  22.025  12.517   3.968  0.2291  0.0887 -0.2520
23163W        W66075  22.829  14.512   2.598  0.2758 -0.1380  0.0765
23164W        W66076  21.571  13.768   4.380  0.1014  0.1696  0.4743
23165W        W66077  23.515  10.902   7.060  0.2453  0.0397  0.0687
23166W        W66078  21.745  12.556   6.214 -0.2211 -0.0826 -0.1626
23167W        W66079  21.200  12.546   5.169  0.1909  0.2855  0.1699
23168W        W66080  23.632  12.024   4.513  0.0081  0.0355 -0.1389
23169W        W66081  24.858  13.869   3.684  0.1070 -0.0247 -0.3326
23170W        W66082  23.057  11.046   6.697 -0.0730  0.0338 -0.3332
23171W        W66083  22.392  11.354   5.785 -0.3398 -0.1209 -0.2182
23172W        W66084  24.312  12.920   5.320  0.1231  0.4082 -0.1950
23173W        W66085  24.726  14.191   4.041  0.3461 -0.2367  0.0483
23174W        W66086  22.194  11.778   4.587  0.0362 -0.0335 -0.0274
23175W        W66087  25.101  13.624   7.292 -0.4367 -0.0055 -0.2746
23176W        W66088  21.625  13.030   2.783  0.1707 -0.1635 -0.0007
23177W        W66089  24.356  11.652   7.290  0.0537  0.0874  0.0736
23178W        W66090  21.880  12.061   6.101  0.0775 -0.2639 -0.1006
23179W        W66091  22.065  13.613   4.109  0.0328  0.1579 -0.0346
23180W        W66092  24.437  12.056   6.258  0.1260  0.0614  0.0715
23181W        W66093  24.617  13.338   5.305  0.0917  0.2709 -0.1591
23182W        W66094  24.635  15.098   4.422  0.1999 -0.0580  0.2046
23183W        W66095  24.295  14.052   6.094  0.4034  0.1795 -0.3147
23184W        W66096  23.638  15.434   7.380  0.0706 -0.2344  0.0926
23185W        W66097  20.949  10.762   7.815 -0.1456  0.1224  0.3891
23186W        W66098  24.424  13.079   4.893 -0.0896  0.1462 -0.3365
23187W        W66099  24.712  13.988   7.201 -0.3355 -0.0495  0.2482
23188W        W66100  24.698  13.917   5.310  0.0154 -0.2308 -0.2454
23189W        W66101  26.720  13.041   5.589 -0.0504  0.2610 -0.0728
23190W        W66102  25.919  14.201   5.704 -0.1715 -0.2554 -0.2926
23191W        W66103  22.537  10.357   6.724 -0.0230 -0.0081 -0.1620
23192W        W66104  21.614  13.817   6.281 -0.0197 -0.0484  0.2700
23193W        W66105  26.179  13.261   6.610 -0.1951 -0.0132 -0.2048
23194W        W66106  20.453  10.502   4.429  0.0648  0.1852 -0.1992
23195W        W66107  25.592  11.433   5.437 -0.0641 -0.2402 -0.0089
23196W        W66108  23.875  13.476   4.061 -0.0248 -0.0123 -0.1177
23197W        W66109  23.126  11.414   5.802 -0.1749 -0.0320 -0.2918
23198W        W66110  22.975  13.056   4.416  0.0419 -0.0700 -0.0982
23199W        W66111  23.375  14.239   6.537  0.0073  0.1996 -0.2343
23200W        W66112  23.685  13.204   5.734 -0.0008  0.2089 -0.0163
23201W        W66113  24.943  12.958   7.302  0.0028 -0.3096 -0.2560
23202W        W66114  22.543  13.645   4.203 -0.2798 -0.3382 -0.1597
23203W        W66115  26.135  13.151   5.398 -0.0502  0.0068  0.0124
23204W        W66116  24.470  14.983   6.949  0.1071  0.3551 -0.1542
23205W        W66117  24.637  13.949   8.435 -0.3212 -0.4095 -0.0490
23206W        W66118  24.423  13.572   6.300  0.1005 -0.0982 -0.2650
23207W        W66119  24.811  13.716   6.043 -0.0898 -0.1035  0.1094
23208W        W66120  21.723  10.993   6.497 -0.0545  0.1227 -0.0722
23209W        W66121  22.702  12.606   2.297  0.0523  0.1129  0.0038
23210W        W66122  22.978  13.479   3.954 -0.1435 -0.0532 -0.0929
23211W        W66123  26.739  14.293   5.835  0.1356  0.3551  0.3105
23212W        W66124  21.386  12.150   6.494 -0.1032 -0.6611 -0.2128
23213W        W66125  23.907  12.077   5.482  0.0366  0.2164  0.2527
23214W        W66126  21.880  13.388   6.152 -0.0541 -0.0432  0.1718
23215W        W66127  25.198  13.912   5.465  0.1333  0.2721 -0.0273
23216W        W66128  22.792  14.562   8.597  0.0189 -0.0193 -0.2269
23217W        W66129  21.979  12.243   6.581  0.1635  0.0376 -0.1602
23218W        W66130  25.794  11.144   7.621 -0.1914 -0.1968 -0.1642
23219W        W66131  23.681  12.825   8.619  0.0362 -0.1913 -0.0005
23220W        W66132  20.643  13.925   7.812  0.4555  0.2296 -0.2887
23221W        W66133  23.824  15.536   8.336 -0.2282  0.0471  0.0359
23222W        W66134  24.785  13.908   8.898 -0.0494  0.2391 -0.1440
23223W        W66135  23.465  13.791   8.733 -0.4466 -0.2777  0.4055
23224W        W66136  22.899  13.692   7.206  0.2897 -0.1818  0.2470
23225W        W66137  22.479  12.991   8.877  0.0730  0.2279 -0.1111
23226W        W66138  22.806  12.325   5.594  0.1363  0.1549 -0.2897
23227W        W66139  22.421  10.205   9.580  0.0188  0.0220 -0.2050
23228W        W66140  23.100  14.394   9.420 -0.2988  0.0335 -0.2940
23229W        W66141  22.463  12.190   6.579 -0.1915 -0.3426  0.1302
23230W        W66142  22.515  12.540   8.674  0.0046 -0.0446 -0.4876
23231W        W66143  22.750  12.260   7.048 -0.2420 -0.1930 -0.1338
23232W        W66144  24.471  14.972   7.822  0.2441  0.1973 -0.0179
23233W        W66145  23.655  11.024   8.395 -0.0915  0.1172  0.2135
23234W        W66146  23.788  14.870   8.729  0.0336 -0.1743 -0.2460
23235W        W66147  20.749  13.026   8.158  0.0305 -0.1345  0.1091
23236W        W66148  21.838  12.766   7.559 -0.0316 -0.2727  0.0226
23237W        W66149  23.143  11.908   8.727 -0.0019 -0.1715 -0.2179
23238W        W66150  23.261  10.973   9.273 -0.1168  0.0214  0.0181
23239W        W66151  24.902  11.434   9.714 -0.1986 -0.0166  0.0939
23240W        W66152  23.711  14.335  10.374 -0.0366 -0.0345  0.1926
23241W        W66153  25.068  11.373  10.199 -0.3322 -0.0199 -0.1234
23242W        W66154  20.121  14.243   9.086  0.0412 -0.0987 -0.1508
23243W        W66155  24.034  15.792   9.443  0.3639 -0.1879 -0.4715
23244W        W66156  26.563  14.993   8.576 -0.1365 -0.0692 -0.0769
23245W        W66157  20.332  13.723   6.701 -0.0149  0.0681 -0.3769
23246W        W66158  24.004  14.023   9.662 -0.0474  0.0913 -0.0271
23247W        W66159  23.226  12.158   8.300 -0.1072 -0.0703  0.0339
23248W        W66160  23.465  14.242   8.107  0.3593 -0.0269 -0.0334
23249W        W66161  23.563  12.468   9.248  0.1450  0.1666 -0.2010
23250W        W66162  20.557  14.014   9.191 -0.0223 -0.4768  0.2247
23251W        W66163  22.813  13.902   6.599  0.1683 -0.0950 -0.1370
23252W        W66164  24.977  11.970   7.257  0.2397 -0.0273  0.0938
23253W        W66165  22.070  11.313   6.266  0.0523  0.2946 -0.2037
23254W        W66166  24.099  12.141   8.149 -0.2167  0.1093  0.0742
23255W        W66167  22.851  10.735   8.282 -0.1401  0.0613 -0.0052
23256W        W66168  22.550  12.967   6.915  0.1548  0.1718 -0.2305
23257W        W66169  22.915  10.238   9.421 -0.1319  0.0435  0.0072
23258W        W66170  23.977  13.272   7.967 -0.0451 -0.5608 -0.0096
23259W        W66171  21.803  12.290   8.692 -0.2426  0.0617 -0.1831
23260W        W66172  21.928  14.558   9.181  0.0357  0.1159 -0.1634
23261W        W66173  22.471  13.472   8.893 -0.1026  0.0656 -0.2059
23262W        W66174  25.186  15.087   8.292 -0.1572 -0.1447 -0.0489
23263W        W66175  26.011  14.404   8.866 -0.0428  0.0733 -0.0434
23264W        W66176  23.670  13.743   6.378  0.2587  0.0876  0.0717
23265W        W66177  21.761  13.304   8.096 -0.1918  0.1512 -0.2362
23266W        W66178  21.579  11.396   6.790 -0.0718  0.1039 -0.2943
23267W        W66179  25.535  12.340   8.313 -0.1633 -0.1427 -0.1912
23268W        W66180  22.631  12.733   9.321 -0.3855 -0.0173 -0.0709
23269W        W66181  26.357  12.891  10.783 -0.3656 -0.2682 -0.0790
23270W        W66182  23.864  13.961   7.400  0.0278 -0.2271  0.1559
23271W        W66183  25.356  11.362   8.450 -0.0403 -0.2810  0.0122
23272W        W66184  23.379  12.437   8.757 -0.2784  0.1931  0.1515
23273W        W66185  22.478  13.424   6.304  0.2290 -0.4203  0.0757
23274W        W66186  23.223  14.133   8.519  0.3779 -0.4047  0.2378
23275W        W66187  25.301  14.557  10.184  0.1411 -0.0079  0.0987
23276W        W66188  24.420  11.550   9.537 -0.1177  0.3316  0.2875
23277W        W66189  22.090  15.334   9.598  0.0666 -0.1139 -0.1402
23278W        W66190  24.192  14.567   7.894 -0.0058  0.2994  0.0078
23279W        W66191  21.617  12.674   8.947  0.2297 -0.0205  0.2333
23280W        W66192  22.637  12.644   7.365 -0.0925 -0.2790 -0.1423
23281W        W66193  21.347  12.493   9.763 -0.0023  0.1402 -0.2224
23282W        W66194  21.871  13.722   8.649 -0.1479  0.1911  0.0973
23283W        W66195  25.792  11.247   8.096  0.0563 -0.2471 -0.2908
23284W        W66196  24.029  10.948   7.272 -0.2753 -0.1984 -0.2313
23285W        W66197  22.142  14.441   7.792 -0.3100  0.1817  0.1714
23286W        W66198  24.645  13.885   9.418 -0.1835  0.0615 -0.0595
23287W        W66199  24.572  12.057   8.166 -0.0075 -0.1046 -0.0723
23288W        W66200  24.259  13.636   7.166  0.2067 -0.0909  0.0200
23289W        W66201  20.050  11.822   9.594  0.0742 -0.3154 -0.1532
23290W        W66202  22.650  12.023   8.584  0.0814 -0.2294  0.1090
23291W        W66203  20.694  12.013   8.949 -0.0061  0.0249  0.0416
23292W        W66204  20.851  13.220   7.752 -0.1311 -0.1024  0.0145
23293W        W66205  24.316  11.090   9.143 -0.0343 -0.1680 -0.1731
23294W        W66206  23.199  13.439   9.474 -0.0762  0.2924  0.0949
23295W        W66207  22.078  13.965   7.629 -0.0485 -0.5575 -0.1707
23296W        W66208  23.459  16.199  10.027  0.0670 -0.0385 -0.1459
23297W        W66209  24.297  14.629   9.062  0.0003  0.1622 -0.2354
23298W        W66210  24.036  11.348   9.796  0.0277  0.1884  0.0275
23299W        W66211  22.261  11.337   9.286  0.2932 -0.2372 -0.2082
23300W        W66212  22.254  11.996   7.933 -0.0079  0.4635 -0.0549
23301W        W66213  22.157  14.737   8.242  0.0539  0.0585  0.1039
23302W        W66214  23.987  14.333   8.752 -0.2434  0.0993 -0.1771
23303W        W66215  21.962  12.405   5.736  0.0397  0.0082  0.0315
23304W        W66216  24.252  14.770   8.593 -0.1198  0.0602  0.2642
23305W        W66217  22.710  13.286   7.383  0.2215 -0.4130 -0.5663
23306W        W66218  25.657  14.293   9.919 -0.0885 -0.0741  0.0497
23307W        W66219  23.642  12.250   8.004 -0.0969  0.0075 -0.2230
23308W        W66220  20.434  12.139   4.882 -0.0392  0.0888 -0.0186
23309W        W66221  23.078  15.104   8.651  0.2495  0.1049  0.1644
23310W        W66222  21.959  14.261   7.228  0.0144 -0.6541  0.0260
23311W        W66223  22.484  13.712   7.467 -0.1626  0.2143  0.0511
23312W        W66224  23.314  14.682   8.363 -0.2675  0.4984 -0.1388
23313W        W66225  24.221  12.526   8.438 -0.0311  0.1473  0.1386
23314W        W66226  23.384  12.888   6.540 -0.0867  0.1827 -0.1215
23315W        W66227  24.188  10.343   8.398  0.0174  0.0888 -0.1449
23316W        W66228  24.335  12.922   8.069 -0.1070  0.2230  0.1498
23317W        W66229  24.084  13.149   8.464  0.0404  0.2524  0.0798
23318W        W66230  23.842  12.836   6.769  0.0395 -0.1049  0.1412
23319W        W66231  23.180  12.117   7.733  0.0807 -0.2180 -0.0493
23320W        W66232  23.391  13.216   8.761  0.1104  0.0434  0.2722
23321W        W66233  22.860  12.395   9.021 -0.3246  0.0534 -0.0310
23322W        W66234  24.384  12.259   6.674  0.0095  0.0610  0.1218
23323W        W66235  25.511  14.052   8.259 -0.0806 -0.2100  0.0201
23324W        W66236  20.237  13.560   8.801 -0.0084  0.0893  0.0265
23325W        W66237  23.560  13.144   8.228 -0.2470 -0.1752  0.0727
23326W        W66238  20.704  11.098   9.274 -0.0194 -0.0115 -0.1042
23327W        W66239  22.398  12.608   5.645 -0.0390  0.3231  0.0125
23328W        W66240  22.060  12.892   8.008  0.1808 -0.0372 -0.2384
23329W        W66241  23.945  15.108   6.625  0.1302 -0.1622 -0.1197
23330W        W66242  23.175  11.095   8.302  0.0253  0.0787  0.0238
23331W        W66243  23.370  11.706   7.943 -0.0833 -0.4115  0.1365
23332W        W66244  25.237  11.846   8.503  0.2601 -0.1874 -0.1737
23333W        W66245  23.875  13.411   8.872 -0.1304 -0.0769  0.1741
23334W        W66246  23.153  12.503   7.428  0.0709 -0.4501  0.3340
23335W        W66247  21.898  12.178   9.321 -0.0582  0.1303  0.4090
23336W        W66248  22.208  16.600   9.497 -0.0517  0.0961 -0.0044
23337W        W66249  24.064  12.908   8.980  0.2059 -0.3394 -0.1525
23338W        W66250  22.454  11.641   8.248  0.0115  0.1052  0.0757
23339W        W66251  23.323  14.518   7.570 -0.0693  0.0267 -0.0563
23340W        W66252  23.949  14.154   7.908  0.3338 -0.1173 -0.2913
23341W        W66253  22.238  13.360   8.284  0.1324  0.2429  0.0956
23342W        W66254  20.591  14.582   9.145  0.0183 -0.0670 -0.2846
23343W        W66255  23.012  14.266   6.843  0.1619 -0.0691  0.2153
23344W        W66256  23.526  10.501   9.066  0.0858 -0.0476  0.0224
23345W        W66257  22.234  13.427   7.180 -0.2959 -0.0685  0.1555
23346W        W66258  24.767  10.865   8.979 -0.1662  0.0460  0.3482
23347W        W66259  22.718  14.652   7.693 -0.0638 -0.0674 -0.1023
23348W        W66260  21.613  12.485   6.744  0.1273 -0.0085 -0.1956
23349W        W66261  21.697  12.407   7.215 -0.0784 -0.1202  0.2686
23350W        W66262  23.962  11.373   8.405 -0.0218  0.1853 -0.0213
23351W        W66263  23.531  13.202   7.706  0.0384 -0.0786 -0.0206
23352W        W66264  20.863  12.349   9.304 -0.0692 -0.1075  0.2616
23353W        W66265  22.232  11.977   9.861  0.2141  0.4402 -0.0761
23354W        W66266  23.425  14.731   9.561 -0.0090 -0.0860 -0.2854
23355W        W66267  24.767  11.802   8.624  0.3101 -0.1195  0.0261
23356W        W66268  21.774  11.715   6.482 -0.0884 -0.0643  0.2728
23357W        W66269  26.689  12.078   9.755  0.0085  0.2145 -0.0193
23358W        W66270  23.240  12.136   6.790 -0.1263 -0.0574  0.0987
23359W        W66271  23.754  14.048   8.413  0.0405 -0.0279  0.0226
23360W        W66272  22.341  13.936  10.182 -0.1080  0.1900  0.0907
23361W        W66273  23.657  12.011   7.499  0.0883 -0.2140 -0.1207
23362W        W66274  22.071  12.724   8.591 -0.1644  0.0149 -0.0199
23363W        W66275  24.125  12.662   9.417  0.3544 -0.1576 -0.2268
23364W        W66276  22.935  14.045   7.852  0.3908 -0.1380 -0.1386
23365W        W66277  21.439  12.508   7.844  0.0436 -0.0460  0.2012
23366W        W66278  23.185  12.771   9.194 -0.0819 -0.1868 -0.1680
23367W        W66279  23.812  16.356   9.641 -0.1245  0.1436 -0.2968
23368W        W66280  24.271  12.000   8.703  0.3011  0.1444 -0.2526
23369W        W66281  22.725   9.858   9.238  0.3459  0.2655 -0.0871
23370W        W66282  23.169  15.473   7.754 -0.2653  0.1819 -0.0868
23371W        W66283  22.841  12.854   5.394  0.1252 -0.0853 -0.2526
23372W        W66284  20.827  12.920   9.022 -0.0355 -0.0569  0.0373
23373W        W66285  23.151  13.325   6.496 -0.1538 -0.1218  0.1280
23374W        W66286  21.675  12.128  10.228  0.1258  0.2754  0.2303
23375W        W66287  22.784  13.250   9.833  0.1484 -0.0938 -0.1230
23376W        W66288  22.159  12.721   6.528 -0.0781  0.0166  0.0855
23377W        W66289  21.425  12.308   9.289 -0.2486  0.1281 -0.2594
23378W        W66290  25.196  11.589   6.931  0.2537  0.2397  0.0537
23379W        W66291  23.552  12.708   7.658  0.4582  0.0619 -0.2426
23380W        W66292  22.914  12.537   8.387  0.2798 -0.2549  0.1574
23381W        W66293  23.750  12.042   8.526  0.1027 -0.1051 -0.1455
23382W        W66294  22.674  11.113   9.718  0.0953  0.1158 -0.0752
23383W        W66295  25.430  13.091   9.116  0.2143  0.0116  0.0312
23384W        W66296  23.497  11.570   8.394 -0.2342 -0.0003  0.2710
23385W        W66297  23.189  11.536   6.800 -0.0520 -0.2390 -0.0509
23386W        W66298  24.532  10.437   8.792  0.2152 -0.3810 -0.3255
23387W        W66299  22.751  13.220   9.343 -0.0317 -0.1847 -0.0469
23388W        W66300  23.883  14.790   7.046 -0.1576  0.0183 -0.1091
23389W        W66301  27.559  10.811   8.849  0.1556 -0.0901 -0.0897
23390W        W66302  24.311  15.487  11.957 -0.0894 -0.1391 -0.0710
23391W        W66303  24.501  14.068   7.962 -0.0714  0.0654 -0.1054
23392W        W66304  23.142  13.000   7.427 -0.1738 -0.0764 -0.0465
23393W        W66305  23.373  12.603   8.190  0.0452 -0.1270  0.1200
23394W        W66306  23.402  14.097   7.144  0.0582  0.0285  0.0107
23395W        W66307  23.913  11.485   7.405 -0.5856 -0.1642  0.0751
23396W        W66308  24.330  14.449   9.887 -0.3035 -0.0947 -0.2375
23397W        W66309  25.347  11.453   7.990 -0.0927  0.2853  0.1031
23398W        W66310  25.205  12.092  10.212  0.1196  0.3209  0.0835
23399W        W66311  24.281  11.461   8.766  0.0992  0.0737  0.0829
23400W        W66312  23.614  11.891   6.987 -0.0505 -0.0375  0.2031
23401W        W66313  20.856  13.278   8.640  0.0312 -0.1004  0.1431
23402W        W66314  22.566  11.287   6.755 -0.0342 -0.2710 -0.2908
23403W        W66315  23.718  13.728   7.926  0.1604 -0.1320 -0.1371
23404W        W66316  24.369  12.115   9.487  0.0788 -0.0568  0.0087
23405W        W66317  23.996  12.308   7.667 -0.0273 -0.2607  0.3690
23406W        W66318  20.060  12.907   9.417  0.3294 -0.4279 -0.1802
23407W        W66319  23.077  12.710   6.964  0.3111  0.0311 -0.2341
23408W        W66320  24.658  11.915   6.890  0.1394  0.2437 -0.0451
23409W        W66321  23.456  13.445   9.949 -0.0884 -0.0559  0.0645
23410W        W66322  23.455  11.515   7.408 -0.0298 -0.0502  0.0812
23411W        W66323  22.634  13.503   6.793  0.1026 -0.1744  0.0031
23412W        W66324  24.039  11.510   9.195 -0.1183 -0.1701 -0.0941
23413W        W66325  22.077  13.636   9.241 -0.0977 -0.1243 -0.4172
23414W        W66326  22.943  14.277   7.333  0.2746  0.0680  0.1816
23415W        W66327  24.575  11.270  10.134 -0.0379  0.2074 -0.0296
23416W        W66328  23.889  10.758   9.250  0.0249  0.1883  0.3229
23417W        W66329  23.264  13.872   9.163 -0.2626  0.1790  0.1335
23418W        W66330  22.657  12.447   9.837  0.1301 -0.1528 -0.0373
23419W        W66331  26.483  13.578  10.742 -0.0109  0.1911  0.2667
23420W        W66332  23.420  14.350   8.965 -0.0324  0.4232 -0.1901
23421W        W66333  22.179  12.595   9.162 -0.1254  0.3708 -0.1764
23422W        W66334  22.283  11.799   7.368  0.2306 -0.0897 -0.1012
23423W        W66335  23.374  13.996   7.658  0.0918  0.3597 -0.0947
23424W        W66336  22.348  14.136   9.272 -0.0051  0.2936 -0.1516
23425W        W66337  22.337  14.325   6.398 -0.3979 -0.0066 -0.1442
23426W        W66338  22.128  13.816   6.246 -0.0479 -0.0844 -0.0751
23427W        W66339  24.005  11.828   9.596  0.0644  0.0724  0.0667
23428W        W66340  28.332  15.263  10.777  0.0086 -0.0232  0.0320
23429W        W66341  22.751  12.167   6.146  0.1278 -0.0184 -0.0406
23430W        W66342  22.711  14.153   8.924  0.0037 -0.1236 -0.0047
23431W        W66343  21.202  14.551   5.967  0.1788 -0.1926  0.1366
23432W        W66344  23.795  13.792   6.910  0.2723  0.0608  0.2158
23433W        W66345  22.296  15.461   7.731  0.1174  0.0022 -0.0385
23434W        W66346  25.790  11.685   7.219  0.1708  0.1422 -0.0106
23435W        W66347  26.959  14.152  10.407  0.4435  0.0959 -0.2284
23436W        W66348  24.711  11.945   9.959  0.0953 -0.1879 -0.3080
23437W        W66349  23.660  11.115   9.548  0.0536  0.2433  0.1478
23438W        W66350  24.123  12.543   7.189  0.0271  0.1365 -0.1210
23439W        W66351  24.543  14.509   8.276  0.0228 -0.0387 -0.2256
23440W        W66352  20.780  12.435   7.124 -0.0187 -0.2491 -0.0462
23441W        W66353  22.546  12.979   8.335  0.2626  0.0394  0.2356
23442W        W66354  23.118   9.905   8.930 -0.0739  0.0086 -0.3165
23443W        W66355  23.577  12.453   7.043 -0.1728 -0.2992 -0.1800
23444W        W66356  22.992  11.567   8.298  0.1651 -0.0834 -0.1341
23445W        W66357  22.819  16.669   7.747  0.0289  0.0421 -0.2125
23446W        W66358  22.741  13.549   8.396  0.2129 -0.2047  0.0281
23447W        W66359  23.807  13.543   8.415 -0.2382  0.2336  0.1299
23448W        W66360  21.943  12.370   8.097 -0.0594 -0.1247  0.1057
23449W        W66361  25.175  12.563   8.640  0.1940  0.0741  0.1458
23450W        W66362  24.151  14.790   9.529  0.2420 -0.1262  0.2564
23451W        W66363  21.603  13.578   9.023 -0.0638 -0.0172 -0.2416
23452W        W66364  24.935  12.462   7.244  0.1457 -0.3705  0.1467
23453W        W66365  22.119  12.506   9.676 -0.0402  0.0343  0.0819
23454W        W66366  21.735  12.675   9.418  0.0971  0.1810 -0.0578
23455W        W66367  23.630  13.025   7.254  0.0459 -0.0708  0.1357
23456W        W66368  24.711  14.413   7.641 -0.0862  0.0853  0.1352
23457W        W66369  22.300  12.125   8.932  0.1438  0.0624 -0.0231
23458W        W66370  24.534  12.809   7.516 -0.0325  0.1532 -0.0300
23459W        W66371  22.100  12.337   7.600 -0.1132  0.0393 -0.0182
23460W        W66372  23.013  11.408   9.404 -0.0910  0.1680 -0.0622
23461W        W66373  21.020  12.514   7.589 -0.0066 -0.0306 -0.0850
23462W        W66374  24.168  13.756   7.711  0.2765 -0.0048  0.0593
23463W        W66375  24.008  12.012   9.121 -0.2047 -0.2685  0.0367
23464W        W66376  23.861  14.510   8.337 -0.0459 -0.0580  0.1669
23465W        W66377  24.581  11.957   9.071  0.0013  0.1079  0.0683
23466W        W66378  23.464  14.119   9.564 -0.3596  0.1188  0.3186
23467W        W66379  20.572  12.772   8.595  0.4509  0.0616 -0.0451
23468W        W66380  24.793  14.633   8.907 -0.0389 -0.2478  0.2734
23469W        W66381  23.019  11.892   9.225 -0.1763  0.3143 -0.0512
23470W        W66382  22.395  11.301   7.325 -0.1419 -0.3306  0.1363
23471W        W66383  19.022  12.016   9.592 -0.0237  0.1773 -0.1274
23472W        W66384  22.286  14.494   8.682 -0.0439 -0.1403 -0.0733
23473W        W66385  23.072  10.348   8.597  0.1695 -0.1026  0.0978
23474W        W66386  22.792  15.576   8.557 -0.0982  0.0143 -0.2741
23475W        W66387  23.287  15.094   9.156 -0.0475  0.0162 -0.0611
23476W        W66388  22.565  12.862   7.821  0.0139 -0.0658  0.1160
23477W        W66389  23.629  14.698   7.872 -0.0927  0.0536  0.1296
23478W        W66390  23.621  15.303   8.845 -0.0178 -0.0325 -0.1208
23479W        W66391  24.485  13.441   8.873 -0.1165  0.1499  0.0555
23480W        W66392  23.114  13.538   7.620 -0.1031 -0.0689  0.2505
23481W        W66393  25.171  13.907   9.355 -0.1807 -0.2739 -0.0324
23482W        W66394  22.687  12.194   7.593 -0.0081  0.1190  0.1068
23483W        W66395  24.754  11.436   9.208 -0.3807  0.0950  0.0942
23484W        W66396  24.210  11.388   7.807 -0.2343 -0.1175  0.0665
23485W        W66397  21.765  14.956   9.568 -0.0425  0.0631 -0.0886
23486W        W66398  21.297  12.985   8.132 -0.0742 -0.1894 -0.0657
23487W        W66399  22.195  13.204   6.661 -0.1922  0.1418  0.0015
23488W        W66400  22.460  14.343   8.157 -0.2322 -0.2439 -0.0253
23489W        W66401  21.952  13.867   8.188  0.1342  0.0005 -0.1108
23490W        W66402  22.380  13.865   8.676  0.1447  0.2108 -0.0942
23491W        W66403  24.860  13.060   7.842 -0.1382 -0.2219 -0.0903
23492W        W66404  21.903  11.641   8.094 -0.0639  0.0881 -0.0794
23493W        W66405  21.140  12.359   8.888 -0.1230  0.2061 -0.1438
23494W        W66406  24.228  13.829   8.739 -0.1757 -0.0034  0.0756
23495W        W66407  24.674  14.990   8.265  0.3849 -0.0388 -0.0840
23496W        W66408  22.186  12.217   7.069  0.1785 -0.0976 -0.1143
23497W        W66409  21.131  14.038   6.898 -0.0251  0.1288  0.0793
23498W        W66410  21.887  11.181   7.634  0.0160  0.1514  0.1471
23499W        W66411  23.622  13.086   9.237 -0.0280 -0.0309 -0.1281
23500W        W66412  23.641  15.259   7.879 -0.3370  0.1100  0.1205
23501W        W66413  24.025  15.024   8.118 -0.1743 -0.3404  0.1221
23502W        W66414  22.231  13.092   9.293  0.0109  0.0228  0.0592
23503W        W66415  24.361  12.414   9.063 -0.1114 -0.2940  0.1116
23504W        W66416  24.303  13.676   8.207 -0.0210  0.4902 -0.1207
23505W        W66417  25.301  10.896   8.661  0.0613  0.0123  0.0564
23506W        W66418  23.918  12.424   8.848  0.1477 -0.0420 -0.2094
23507W        W66419  25.369  13.406   9.566  0.0966  0.1562 -0.2562
23508W        W66420  21.388  10.399   7.783 -0.0062  0.2360 -0.0411
23509W        W66421  23.900  11.713   7.940 -0.1985  0.1397 -0.0384
23510W        W66422  23.787  14.005   9.067 -0.3792  0.1515  0.1224
23511W        W66423  21.535  11.997   8.919  0.3718  0.1172  0.0024
23512W        W66424  22.967  12.572   7.904 -0.0342 -0.0297 -0.1715
23513W        W66425  24.243  14.144   9.201 -0.1503  0.0047 -0.3042
23514W        W66426  20.880  11.935   6.253 -0.0284  0.2639 -0.0115
23515W        W66427  25.624  12.039   8.708 -0.1686  0.3485 -0.0738
23516W        W66428  21.741  16.372  10.501 -0.3041 -0.0693 -0.2148
23517W        W66429  23.706  13.613   9.455  0.0550  0.1164 -0.1323
23518W        W66430  24.107  13.195   9.439  0.0951 -0.1010 -0.1725
23519W        W66431  20.668   8.403   9.831 -0.1173 -0.0312 -0.3050
23520W        W66432  23.011  13.122   8.373 -0.2784 -0.0721 -0.1231
23521W        W66433  23.081  13.784   9.793  0.0942  0.3197  0.1180
23522W        W66434  24.008  10.937   8.710 -0.2446  0.0475 -0.5064
23523W        W66435  22.440  12.454   8.097  0.0925  0.1199 -0.1126
23524W        W66436  24.218  11.313   6.934 -0.0314  0.0710  0.0752
23525W        W66437  23.783  14.445   9.811  0.0057 -0.1233  0.0646
23526W        W66438  23.270  11.450   8.949  0.0947  0.1347 -0.1871
23527W        W66439  22.964  17.322   1.599  0.0939 -0.1624 -0.2015
23528W        W66440  22.417  15.017   0.085  0.0793  0.1767  0.3163
23529W        W66441  24.182  15.562  30.922  0.0238 -0.2206 -0.1345
23530W        W66442  24.603  17.946   1.317 -0.1138  0.2496  0.0312
23531W        W66443  22.933  16.283  31.852  0.4196 -0.0546  0.1492
23532W        W66444  24.314  18.924   1.723 -0.0189 -0.0599  0.3334
23533W        W66445  23.140  14.978   4.054 -0.3410  0.3531  0.3482
23534W        W66446  23.971  17.246   1.206 -0.0552 -0.1275  0.2126
23535W        W66447  25.917  17.492   2.280 -0.0596 -0.0706 -0.0235
23536W        W66448  24.771  18.005  31.552  0.2223 -0.4149  0.3592
23537W        W66449  23.192  13.500   1.987  0.1258  0.2142  0.1083
23538W        W66450  23.711  17.353   3.497  0.1094  0.0713 -0.1191
23539W        W66451  21.840  14.219   1.355 -0.1321  0.3168  0.3793
23540W        W66452  21.761  14.073   1.858 -0.2463  0.2114  0.1279
23541W        W66453  22.422  15.698   3.167 -0.0474  0.2440  0.0234
23542W        W66454  22.684  15.715   0.170 -0.0386  0.3232  0.3229
23543W        W66455  22.615  16.038   2.338 -0.0291  0.0604  0.0079
23544W        W66456  23.498  13.946   1.303 -0.1733 -0.0809 -0.1723
23545W        W66457  23.547  19.645   0.960  0.1958 -0.1490  0.0218
23546W        W66458  23.194  15.538   3.965 -0.1941  0.0008 -0.0163
23547W        W66459  25.170  13.946   2.028  0.0839  0.0419  0.0242
23548W        W66460  23.256  18.113   0.789  0.0010  0.1296  0.1685
23549W        W66461  22.086  15.803  30.725  0.2762  0.3350  0.0080
23550W        W66462  21.213  15.721   0.268 -0.2123 -0.2181 -0.2974
23551W        W66463  22.785  17.021   2.761  0.2441  0.1592 -0.1050
23552W        W66464  24.904  15.347   1.720 -0.0256  0.2069 -0.0007
23553W        W66465  25.109  16.530   2.937 -0.2318 -0.2805  0.2144
23554W        W66466  24.810  18.338   2.455 -0.3362  0.0724  0.1259
23555W        W66467  23.143  17.658   1.005  0.4438  0.1249 -0.0746
23556W        W66468  24.606  15.853   3.021  0.0821  0.0993 -0.1147
23557W        W66469  21.639  17.165  31.422 -0.0850  0.1826 -0.1069
23558W        W66470  21.682  18.449   0.691  0.0134 -0.1583  0.1855
23559W        W66471  21.967  18.620  31.832  0.0978  0.1296  0.1205
23560W        W66472  25.534  17.966  31.596 -0.0324 -0.2384 -0.2001
23561W        W66473  24.604  18.895   3.088  0.4112 -0.1185  0.0910
23562W        W66474  23.399  18.822   3.385 -0.0642  0.0559  0.1042
23563W        W66475  20.728  18.380  30.391 -0.1329 -0.2627 -0.0605
23564W        W66476  23.836  18.448   3.629  0.1669 -0.3421 -0.1779
23565W        W66477  23.278  17.193   1.282  0.0488 -0.0923 -0.0379
23566W        W66478  22.146  15.803   2.311  0.1636 -0.2183 -0.0173
23567W        W66479  24.025  15.443   0.512  0.0980  0.0459  0.1651
23568W        W66480  22.849  17.034  31.917 -0.2181 -0.1306 -0.1872
23569W        W66481  23.373  16.189   1.670  0.2592  0.0542 -0.0724
23570W        W66482  23.554  16.296   4.508  0.0137  0.0734 -0.0514
23571W        W66483  21.923  17.367   0.882  0.1444  0.0990 -0.1585
23572W        W66484  25.342  15.870   4.760  0.0273  0.4895  0.2329
23573W        W66485  22.642  17.697  30.933  0.0071  0.0899 -0.1474
23574W        W66486  24.921  17.327  30.639  0.1432  0.0012  0.0172
23575W        W66487  22.815  13.647  30.506 -0.1077  0.0994  0.0639
23576W        W66488  24.650  15.262   0.300 -0.1438 -0.3645 -0.2786
23577W        W66489  24.261  14.098   1.827 -0.1566  0.0570 -0.0210
23578W        W66490  23.247  17.298   0.264 -0.3542  0.3564 -0.0595
23579W        W66491  22.322  16.090   2.838 -0.0259 -0.1940 -0.0035
23580W        W66492  24.906  18.291   1.547  0.1090 -0.1090 -0.3042
23581W        W66493  23.695  16.602  30.952 -0.2452 -0.2347  0.0782
23582W        W66494  24.463  15.491   1.931  0.1848 -0.2441 -0.5854
23583W        W66495  23.403  17.651   1.651  0.0121 -0.0167 -0.0639
23584W        W66496  20.844  15.224   1.188 -0.1164  0.0843 -0.0087
23585W        W66497  23.853  18.450  31.634 -0.0317  0.0812 -0.1239
23586W        W66498  25.679  18.383   1.590  0.0872 -0.0971  0.2753
23587W        W66499  25.484  19.165   0.378 -0.1776  0.1355 -0.1308
23588W        W66500  22.126  14.378   0.865  0.2952 -0.0879 -0.0946
23589W        W66501  22.400  16.483   3.184 -0.2600  0.1875 -0.0401
23590W        W66502  22.972  16.357   2.462  0.1733  0.2398 -0.0046
23591W        W66503  23.311  15.953   0.271  0.1496 -0.0400 -0.1806
23592W        W66504  24.819  16.709   3.395 -0.2351  0.1156  0.1376
23593W        W66505  22.915  17.859   2.483 -0.0467  0.0342 -0.2566
23594W        W66506  25.208  15.385  31.677 -0.0131  0.0048  0.0439
23595W        W66507  23.828  15.905   1.308  0.1956  0.1441 -0.2323
23596W        W66508  24.508  17.213   2.652  0.1661  0.3514 -0.4847
23597W        W66509  25.128  17.897   1.102  0.0349 -0.0620  0.0559
23598W        W66510  23.967  14.511   0.211 -0.0040  0.0303 -0.2527
23599W        W66511  25.319  14.474   1.879  0.0391 -0.1897  0.2241
23600W        W66512  21.833  18.282  30.827  0.3539  0.0757  0.0660
23601W        W66513  22.073  15.757   0.494  0.1656  0.2853 -0.1736
23602W        W66514  26.009  17.246   3.462  0.1577  0.0426 -0.0765
23603W        W66515  24.568  16.634   0.102  0.2205 -0.3348 -0.0524
23604W        W66516  22.452  16.503   1.604 -0.1482 -0.0566  0.2252
23605W        W66517  23.856  15.339   4.622 -0.1345 -0.0081  0.3286
23606W        W66518  24.495  17.658   3.163  0.1610  0.1633 -0.1870
23607W        W66519  22.575  17.736  31.585 -0.1428  0.0783 -0.2157
23608W        W66520  22.026  16.950  31.907  0.4000  0.0346  0.1562
23609W        W66521  21.893  16.638  31.549 -0.1572  0.2061 -0.2189
23610W        W66522  19.853  15.748   3.038  0.0802  0.3674  0.2500
23611W        W66523  23.546  17.709   0.111 -0.4673  0.0260  0.1720
23612W        W66524  24.892  14.810   1.831 -0.0683  0.1389  0.0976
23613W        W66525  22.722  16.116   3.330  0.3324  0.0893  0.0919
23614W        W66526  24.383  15.156   2.421  0.1766 -0.3830  0.0140
23615W        W66527  23.446  18.248  31.902  0.1191  0.0989  0.0667
23616W        W66528  23.986  18.950   0.471  0.1590  0.0643 -0.0687
23617W        W66529  24.215  16.114  31.291  0.0843 -0.2467 -0.0375
23618W        W66530  25.030  16.801  30.958  0.2365 -0.1390  0.1480
23619W        W66531  21.777  15.731   1.352 -0.1621 -0.0692 -0.2717
23620W        W66532  22.159  14.805  31.542  0.1590  0.4083  0.2715
23621W        W66533  22.628  14.745   3.823 -0.1615 -0.1053 -0.0347
23622W        W66534  22.490  14.610   2.133 -0.1018  0.3818 -0.1080
23623W        W66535  23.966  16.382   2.192  0.0493  0.0187 -0.0854
23624W        W66536  21.100  14.625  31.567 -0.0821 -0.0013  0.0458
23625W        W66537  25.029  15.087   1.288  0.1692 -0.0410  0.2328
23626W        W66538  23.791  16.307  31.959 -0.4432  0.0752  0.0040
23627W        W66539  22.718  16.555   0.637  0.5193  0.1579 -0.0912
23628W        W66540  24.596  16.415   3.060  0.2301 -0.0835 -0.3148
23629W        W66541  23.408  17.253   0.751 -0.2093 -0.1018 -0.1859
23630W        W66542  24.485  18.063   2.715  0.1029  0.0510 -0.0180
23631W        W66543  25.755  17.235   0.390  0.1037  0.1165 -0.1334
23632W        W66544  23.110  15.074   3.255 -0.1176  0.0203  0.0117
23633W        W66545  21.610  15.422   0.412 -0.0614  0.2556 -0.0060
23634W        W66546  23.600  19.284   2.445 -0.0133  0.0059 -0.4804
23635W        W66547  24.237  17.114   1.832  0.0010 -0.0491 -0.1379
23636W        W66548  23.034  14.542   0.912  0.0262  0.1674  0.1634
23637W        W66549  24.224  17.865   0.448 -0.0547  0.1045 -0.0272
23638W        W66550  24.189  16.945   0.274  0.2868 -0.3287  0.1759
23639W        W66551  22.896  17.788   2.008 -0.1702 -0.2794  0.2924
23640W        W66552  23.760  14.876   2.780  0.0378 -0.0551  0.0623
23641W        W66553  25.368  16.312   2.521  0.0910 -0.4280 -0.1420
23642W        W66554  23.321  14.300   2.698  0.2011  0.1772 -0.2905
23643W        W66555  22.857  16.699  31.572  0.3354  0.0115 -0.3152
23644W        W66556  23.839  18.004   0.951 -0.0531  0.2539  0.2296
23645W        W66557  20.656  17.086  30.636  0.1972  0.2725  0.0732
23646W        W66558  23.736  17.176   0.337 -0.3453  0.1332 -0.3930
23647W        W66559  24.523  18.530   0.579 -0.2835  0.0129  0.0696
23648W        W66560  24.260  14.667   1.560 -0.0228 -0.0471 -0.1304
23649W        W66561  21.957  15.780   1.827 -0.2734  0.1652  0.3764
23650W        W66562  23.612  16.354   3.440 -0.4367 -0.1506 -0.0220
23651W        W66563  21.518  14.355   0.411  0.0709  0.4109 -0.0495
23652W        W66564  22.581  18.556   3.106  0.0021 -0.3235  0.2533
23653W        W66565  23.373  14.058   2.262 -0.0552  0.1673  0.2521
23654W        W66566  24.772  14.692  31.757  0.0033 -0.0377 -0.0266
23655W        W66567  22.838  15.588   2.372 -0.1775  0.1046 -0.1260
23656W        W66568  25.238  17.724   0.372  0.1067  0.0883 -0.0281
23657W        W66569  21.139  15.908  31.256 -0.3663  0.1802 -0.1224
23658W        W66570  23.770  15.010   0.243  0.1549  0.4199  0.0557
23659W        W66571  22.519  17.428   1.850  0.1205  0.0494 -0.5179
23660W        W66572  23.646  17.312  31.750 -0.1574 -0.0636  0.0276
23661W        W66573  23.005  15.829   1.220 -0.2885 -0.0443 -0.0819
23662W        W66574  22.804  14.622  31.174 -0.2016  0.0223 -0.4142
23663W        W66575  24.980  19.044  31.256  0.0058  0.1159  0.2339
23664W        W66576  22.382  16.996   0.858  0.5135  0.0191 -0.0273
23665W        W66577  24.699  16.728   1.957 -0.0690 -0.3516 -0.1546
23666W        W66578  24.336  17.383   0.561 -0.1162  0.0934 -0.1116
23667W        W66579  23.269  13.439   1.392  0.0362 -0.1189  0.1848
23668W        W66580  23.709  14.703   0.626 -0.3006  0.0903  0.0398
23669W        W66581  24.927  12.875   2.094  0.3019 -0.2755 -0.1848
23670W        W66582  20.194  17.089  30.191  0.1119  0.0122  0.3418
23671W        W66583  23.288  15.236   2.505  0.1225 -0.1578  0.1718
23672W        W66584  24.895  15.343   2.272  0.0992  0.0281 -0.0212
23673W        W66585  24.365  15.390   3.286 -0.1428 -0.2835  0.0964
23674W        W66586  23.459  16.404   2.911 -0.0095  0.4299  0.1745
23675W        W66587  24.545  16.185   0.571 -0.2204  0.1196  0.0655
23676W        W66588  22.921  16.460   1.419 -0.2385 -0.0074  0.0669
23677W        W66589  21.995  15.130   0.547  0.0178  0.0656 -0.1475
23678W        W66590  24.072  14.885   3.314  0.0207 -0.1027 -0.2853
23679W        W66591  22.496  16.537   1.064  0.0331  0.0415  0.2377
23680W        W66592  22.205  16.971   1.714  0.1442 -0.1313  0.2238
23681W        W66593  25.368  18.306   1.205  0.1043 -0.0798 -0.0917
23682W        W66594  24.111  15.647   2.204  0.1342 -0.0053  0.1119
23683W        W66595  25.650  15.889   3.959 -0.2354  0.0856 -0.2344
23684W        W66596  23.693  13.075  31.474 -0.0197  0.3208  0.3691
23685W        W66597  22.635  19.179  31.269  0.0944  0.2917 -0.1136
23686W        W66598  22.625  17.113  30.958  0.1007 -0.0826  0.1237
23687W        W66599  23.407  13.017   1.751  0.2679  0.0140 -0.0560
23688W        W66600  24.152  17.852   1.891 -0.3282 -0.0946 -0.0108
23689W        W66601  22.997  18.046  30.669 -0.1731  0.0273  0.1276
23690W        W66602  24.685  16.778   2.550  0.0574 -0.1647  0.5163
23691W        W66603  22.170  19.426  31.394  0.1857 -0.2292  0.1466
23692W        W66604  25.881  14.487   1.952  0.1113 -0.0895  0.1343
23693W        W66605  22.766  18.411   1.589 -0.0181 -0.1026  0.0712
23694W        W66606  23.049  14.400   0.382  0.1291 -0.2776 -0.3002
23695W        W66607  21.605  15.344  31.874  0.2076  0.1650  0.1455
23696W        W66608  24.191  16.092   1.899 -0.2579  0.1345 -0.0982
23697W        W66609  24.031  17.031   0.746 -0.0321 -0.0136  0.1893
23698W        W66610  21.481  14.527   2.709  0.0602 -0.0373 -0.1668
23699W        W66611  24.264  13.611   2.089  0.0515  0.0204  0.1266
23700W        W66612  23.036  17.951   0.297  0.0847  0.3271 -0.2655
23701W        W66613  22.518  15.462   2.744 -0.0362  0.0707 -0.0158
23702W        W66614  23.298  14.911   0.468  0.2291  0.1676 -0.2262
23703W        W66615  24.042  18.851   0.940  0.0635  0.2257 -0.4264
23704W        W66616  24.202  17.585   2.742  0.0309  0.0943 -0.1546
23705W        W66617  20.296  15.483  30.827 -0.2732  0.0990  0.1057
23706W        W66618  24.534  15.716   1.476  0.1152  0.1801 -0.1244
23707W        W66619  23.538  15.479   2.047  0.1974 -0.1204  0.1950
23708W        W66620  22.891  17.881   1.523  0.1411  0.0378 -0.0214
23709W        W66621  23.764  17.805   2.375 -0.2078  0.3099 -0.1185
23710W        W66622  23.021  14.775   0.026 -0.1579 -0.1020 -0.4235
23711W        W66623  21.658  17.333  31.871  0.4871 -0.0653 -0.0229
23712W        W66624  23.685  15.519   3.810  0.0647  0.3452 -0.1248
23713W        W66625  24.907  17.492   2.803  0.0435  0.1013 -0.1676
23714W        W66626  22.754  14.966   0.529 -0.1630 -0.1826 -0.3730
23715W        W66627  22.521  14.362   0.491 -0.0091  0.0083 -0.2303
23716W        W66628  22.848  14.613   1.801 -0.0784 -0.0966  0.0224
23717W        W66629  23.561  16.550   1.949  0.1330  0.0088 -0.1544
23718W        W66630  24.068  15.225   2.915  0.1156 -0.1941 -0.2098
23719W        W66631  23.498  17.743   4.184 -0.1706  0.3376 -0.1405
23720W        W66632  23.104  13.684   2.470  0.0874 -0.0813 -0.3208
23721W        W66633  24.827  18.277   0.926  0.5644 -0.0301 -0.2325
23722W        W66634  22.799  15.989   1.730  0.0139 -0.1790  0.3575
23723W        W66635  21.677  16.553   0.725 -0.0265 -0.1836  0.0138
23724W        W66636  21.591  16.467   1.227  0.2995  0.1327  0.1490
23725W        W66637  23.375  16.921  31.956  0.0146  0.0547 -0.1080
23726W        W66638  23.303  14.762   2.615  0.1340  0.4178  0.0630
23727W        W66639  21.963  17.202   0.323 -0.0544  0.1057 -0.3218
23728W        W66640  22.377  16.872  31.360  0.0032  0.0986  0.4824
23729W        W66641  23.052  16.753   0.994 -0.0655 -0.2680 -0.2365
23730W        W66642  25.725  14.693  31.752  0.2052 -0.0977  0.1298
23731W        W66643  23.826  17.579   0.627 -0.0518 -0.2858 -0.0779
23732W        W66644  23.402  14.260   0.735  0.0934  0.0192  0.0465
23733W        W66645  24.653  15.607   3.644  0.1957 -0.1262 -0.1070
23734W        W66646  23.551  15.602   0.599  0.2216 -0.1076  0.1255
23735W        W66647  24.307  16.054   3.927 -0.2569 -0.0360 -0.1076
23736W        W66648  22.902  14.134   1.359  0.1005 -0.0616 -0.0983
23737W        W66649  23.644  19.469   0.125 -0.2201  0.3061 -0.0998
23738W        W66650  22.237  15.550   1.396 -0.0059  0.5019  0.2078
23739W        W66651  24.931  19.363   3.651 -0.2544  0.2861  0.0062
23740W        W66652  23.165  17.767   3.298  0.1579  0.0378 -0.0523
23741W        W66653  22.079  14.336   2.098  0.1450 -0.1124  0.2428
23742W        W66654  21.872  14.425  31.670 -0.0730  0.0151 -0.3127
23743W        W66655  23.070  15.516   1.777  0.0322  0.0206  0.1428
23744W        W66656  25.239  18.141   1.926 -0.0172 -0.0021  0.0342
23745W        W66657  23.499  18.722   1.263 -0.0901 -0.0930 -0.1035
23746W        W66658  24.217  15.568   1.056  0.3498 -0.2939 -0.1718
23747W        W66659  23.025  16.421   2.009  0.3617  0.2084  0.1559
23748W        W66660  22.801  15.339  31.803  0.0563  0.0343  0.4637
23749W        W66661  24.404  16.860  30.805  0.1561  0.1024  0.0895
23750W        W66662  22.749  17.479   0.159  0.1687  0.1978  0.1208
23751W        W66663  23.791  13.956   2.719  0.0429 -0.1638  0.1035
23752W        W66664  24.653  17.800   0.709 -0.0595  0.0033  0.2469
23753W        W66665  23.449  14.346   1.856 -0.1474  0.1858  0.0001
23754W        W66666  23.488  15.664   1.568  0.1408 -0.0829  0.1593
23755W        W66667  23.176  15.028   1.874  0.2361 -0.1225  0.0118
23756W        W66668  23.141  17.284   3.151 -0.0266 -0.0285 -0.0196
23757W        W66669  22.852  15.159   3.658  0.1822  0.0703  0.1246
23758W        W66670  25.149  19.070   3.260 -0.0996  0.0374 -0.2099
23759W        W66671  24.716  16.792  31.596 -0.0721  0.1517 -0.0957
23760W        W66672  25.124  14.894   2.268  0.0509  0.0463 -0.0330
23761W        W66673  25.385  16.382   1.835 -0.2496  0.0236 -0.0235
23762W        W66674  23.699  16.159   0.485  0.1599 -0.2308 -0.2665
23763W        W66675  21.607  15.556   0.898  0.3519  0.2982  0.0349
23764W        W66676  24.289  15.977   3.452 -0.2334  0.0771 -0.1818
23765W        W66677  22.743  14.117   0.074 -0.1852  0.1821  0.3702
23766W        W66678  24.188  16.085   2.550  0.2196 -0.0418 -0.0764
23767W        W66679  24.046  17.542   0.082  0.1317  0.1664  0.0610
23768W        W66680  24.457  17.403   1.439 -0.3155  0.1650 -0.2099
23769W        W66681  24.031  15.618   1.653  0.3488  0.2138  0.0510
23770W        W66682  19.695  15.464   0.679  0.0839 -0.4535  0.4058
23771W        W66683  23.639  16.827   3.647  0.0552  0.2754 -0.2314
23772W        W66684  22.739  13.970  31.526 -0.1102 -0.2004  0.0137
23773W        W66685  24.377  17.092  31.358 -0.4236 -0.1778 -0.0131
23774W        W66686  24.212  16.169   1.391  0.3847  0.2445  0.1554
23775W        W66687  25.353  17.495   2.537 -0.0130  0.0112  0.0889
23776W        W66688  24.182  14.026   0.208 -0.0327  0.0061 -0.1629
23777W        W66689  25.278  14.747   4.462 -0.0019 -0.0196 -0.2160
23778W        W66690  22.768  17.325  31.441  0.2694 -0.3767  0.2238
23779W        W66691  23.740  14.459   2.392 -0.0962 -0.2010  0.0204
23780W        W66692  23.694  18.030   1.688 -0.0278  0.1692 -0.1960
23781W        W66693  23.199  17.330   2.548 -0.1857 -0.0232  0.0763
23782W        W66694  22.106  18.153  31.972  0.0726  0.1713 -0.1109
23783W        W66695  23.145  14.471   2.206  0.0328  0.3012 -0.0744
23784W        W66696  23.287  15.216   1.421  0.0577 -0.1839 -0.0526
23785W        W66697  22.466  15.622   1.961 -0.1430 -0.0072 -0.1450
23786W        W66698  24.611  15.942   2.236  0.0472  0.1466 -0.2084
23787W        W66699  23.721  16.691   2.613 -0.1256  0.0095  0.3422
23788W        W66700  21.650  15.951   0.648  0.1518  0.1232 -0.0392
23789W        W66701  24.092  18.052   3.033 -0.1117 -0.1029 -0.2678
23790W        W66702  25.685  17.047   1.433  0.2010 -0.0204 -0.1794
23791W        W66703  23.380  16.655   1.513 -0.0220 -0.1725  0.2286
23792W        W66704  21.604  15.553   2.725 -0.6051  0.0500  0.0512
23793W        W66705  23.857  16.732   3.102  0.0853 -0.1858 -0.4431
23794W        W66706  23.595  14.831   1.623 -0.0637 -0.2300  0.0831
23795W        W66707  21.978  15.225  31.225 -0.1631  0.1229 -0.2854
23796W        W66708  24.677  18.149   0.301 -0.1467 -0.0003  0.0491
23797W        W66709  23.701  17.342   2.582  0.1584  0.2636  0.2702
23798W        W66710  22.719  16.869   1.806 -0.1903  0.1099  0.1344
23799W        W66711  22.820  17.622   0.634  0.2784  0.1993 -0.0756
23800W        W66712  24.077  15.987   0.742 -0.1067 -0.1025 -0.0413
23801W        W66713  23.839  16.899  30.618  0.2741  0.1116 -0.1822
23802W        W66714  23.142  19.880   0.776  0.0214 -0.1957  0.1024
23803W        W66715  23.771  13.536  31.617  0.0197 -0.0340 -0.0890
23804W        W66716  23.338  19.070   1.562  0.0491 -0.1400  0.1240
23805W        W66717  20.833  16.800  31.613  0.2156  0.1732  0.2617
23806W        W66718  23.992  16.477   0.777 -0.0801  0.0329 -0.1147
23807W        W66719  23.178  18.733   0.807  0.0385 -0.1174  0.1201
23808W        W66720  25.509  17.398   3.599  0.2452 -0.1004 -0.2213
23809W        W66721  23.828  14.116   0.504  0.4933  0.0043  0.1840
23810W        W66722  23.593  16.793   1.041  0.1503 -0.1589 -0.1881
23811W        W66723  24.999  15.912   0.861  0.0035 -0.0634  0.2176
23812W        W66724  23.812  17.861   3.459  0.2694 -0.2109 -0.4232
23813W        W66725  22.064  15.501   2.899 -0.0809  0.1563  0.3117
23814W        W66726  23.360  15.292  31.036 -0.1805  0.0847  0.0413
23815W        W66727  23.481  15.239   3.006 -0.0629  0.3971 -0.0153
23816W        W66728  25.156  15.202   4.460 -0.2155 -0.2389  0.4110
23817W        W66729  22.003  17.620   1.706 -0.1977  0.0846 -0.2093
23818W        W66730  23.755  18.100   0.468 -0.2216 -0.2329 -0.0368
23819W        W66731  21.447  15.436  31.352 -0.1560 -0.1724 -0.1239
23820W        W66732  22.809  15.348   1.384  0.0955 -0.1995 -0.2005
23821W        W66733  25.939  15.796   1.097  0.0370  0.1833 -0.3057
23822W        W66734  24.845  17.228  31.139 -0.2855  0.2181  0.1642
23823W        W66735  23.218  13.913   1.677 -0.1861 -0.0148  0.0970
23824W        W66736  23.100  16.857   0.458 -0.0772 -0.1186  0.3037
23825W        W66737  23.625  16.325   1.110 -0.1483  0.2350  0.3846
23826W        W66738  23.805  16.395   1.563  0.3153 -0.3624  0.1133
23827W        W66739  21.569  14.804  31.516 -0.0782 -0.1170  0.1531
23828W        W66740  26.292  17.211   0.888 -0.3027 -0.0374  0.0094
23829W        W66741  23.583  15.839   2.887 -0.1020  0.0645  0.2898
23830W        W66742  24.640  16.295   1.759  0.0159  0.0612 -0.1611
23831W        W66743  23.705  15.181   0.789 -0.2176 -0.0731 -0.2805
23832W        W66744  24.940  16.750   0.564  0.0134  0.1172  0.2713
23833W        W66745  24.242  16.833   2.306  0.0761 -0.1957  0.1050
23834W        W66746  21.995  16.299   0.406  0.0782 -0.0918  0.2778
23835W        W66747  23.206  14.335  31.353  0.1092 -0.0165 -0.2280
23836W        W66748  24.954  19.237   1.431  0.0990  0.4290  0.1327
23837W        W66749  24.089  17.518  31.565  0.1554 -0.0719 -0.1491
23838W        W66750  25.008  17.202   1.729 -0.0836 -0.0496 -0.0907
23839W        W66751  22.147  13.315   0.658 -0.3124  0.2416 -0.0728
23840W        W66752  23.372  14.850   1.047  0.0101 -0.0670  0.4495
23841W        W66753  22.093  15.710   0.970 -0.1365 -0.1342 -0.0985
23842W        W66754  21.833  15.295   2.119  0.0869  0.0988  0.0207
23843W        W66755  25.000  17.794   2.307 -0.1635 -0.1683  0.4558
23844W        W66756  22.548  14.517   1.146 -0.0894  0.2352  0.3813
23845W        W66757  25.424  17.358  30.483 -0.1247 -0.0167  0.3455
23846W        W66758  24.214  16.591   1.742 -0.0247  0.0947 -0.4015
23847W        W66759  22.689  18.172  31.171  0.0687 -0.0206  0.2871
23848W        W66760  24.713  17.077   0.275  0.2181  0.0973  0.1304
23849W        W66761  23.800  17.053   2.051 -0.0395  0.0967 -0.4007
23850W        W66762  20.716  15.513   0.131  0.3878 -0.0326 -0.3695
23851W        W66763  25.614  18.889   1.081 -0.1169  0.3787 -0.2584
23852W        W66764  25.469  18.417   2.908 -0.1330  0.2112 -0.1911
23853W        W66765  23.883  14.091   0.988  0.1907  0.0090 -0.5416
23854W        W66766  22.839  14.129   1.892 -0.0473 -0.0411  0.1451
23855W        W66767  21.126  17.142  30.894 -0.1382 -0.1608 -0.0018
23856W        W66768  24.312  15.597   2.694 -0.1149 -0.1165  0.0899
23857W        W66769  23.844  15.318   3.379 -0.0664 -0.0798  0.0012
23858W        W66770  24.269  17.460  31.086 -0.0053  0.1568 -0.0307
23859W        W66771  24.787  14.999   2.797 -0.2539 -0.1392  0.1019
23860W        W66772  24.898  18.870   2.397  0.3087  0.1049  0.0717
23861W        W66773  23.317  18.143   4.451 -0.0877 -0.2753  0.2744
23862W        W66774  21.716  16.662  31.020 -0.0399 -0.0030  0.1208
23863W        W66775  23.039  17.310   2.071 -0.0691 -0.0065 -0.1229
23864W        W66776  23.171  19.313   1.106  0.3036  0.0452 -0.0727
23865W        W66777  23.334  17.677   0.538  0.1859  0.5348  0.1542
23866W        W66778  24.106  17.845   1.424 -0.1823 -0.0613 -0.1279
23867W        W66779  23.393  15.949   0.894  0.0188 -0.2111  0.2196
23868W        W66780  25.726  16.424   0.789 -0.2031  0.2007 -0.1878
23869W        W66781  22.651  13.432   2.649 -0.0252 -0.5189  0.1048
23870W        W66782  25.076  14.667   0.994 -0.1657 -0.1365  0.1833
23871W        W66783  23.271  14.443   1.360 -0.0566 -0.0156  0.1921
23872W        W66784  22.633  15.124   1.830  0.1153  0.1610  0.0603
23873W        W66785  21.782  15.928   0.157 -0.3808  0.0240 -0.1307
23874W        W66786  22.400  16.147   0.138 -0.0644  0.1087 -0.1665
23875W        W66787  22.490  16.049   0.635 -0.3155  0.0890 -0.1007
23876W        W66788  23.676  14.409   3.090 -0.0582 -0.4115 -0.1730
23877W        W66789  23.648  15.028   4.237  0.1542  0.2510  0.1194
23878W        W66790  23.040  15.330   0.343 -0.3627  0.0167 -0.0870
23879W        W66791  22.083  15.323   0.046  0.1811 -0.0501  0.0138
23880W        W66792  23.782  18.578   0.158 -0.4588 -0.1285  0.1425
23881W        W66793  21.437  14.247  31.458 -0.0338  0.0861 -0.1336
23882W        W66794  22.858  15.711   0.645  0.2286  0.0598 -0.0137
23883W        W66795  24.512  16.006   1.016  0.1116  0.1799 -0.0467
23884W        W66796  25.121  18.690   1.027 -0.2727  0.0205 -0.1653
23885W        W66797  21.726  14.971   2.638 -0.2053 -0.3844 -0.1070
23886W        W66798  25.063  18.538   4.183  0.1500 -0.3044  0.0853
23887W        W66799  23.304  16.467   0.198 -0.3239 -0.0452  0.0087
23888W        W66800  22.919  18.288   2.743 -0.2112 -0.1994  0.0970
23889W        W66801  23.532  14.671   3.853 -0.2865  0.0365  0.1055
23890W        W66802  23.395  13.036  30.180 -0.0982 -0.2871  0.0768
23891W        W66803  23.813  15.333   2.463 -0.1594 -0.1849 -0.1980
23892W        W66804  24.942  17.747   1.590  0.1090 -0.1424 -0.2228
23893W        W66805  22.329  18.954  31.675  0.0730  0.0579 -0.0949
23894W        W66806  23.802  16.965   1.564  0.1478 -0.2620 -0.1674
23895W        W66807  23.876  17.452   1.631 -0.2306  0.1987 -0.1215
23896W        W66808  21.007  14.733   2.886  0.3968 -0.0779 -0.0813
23897W        W66809  23.896  16.803  31.769  0.0416 -0.0736  0.1732
23898W        W66810  23.391  16.928   2.279 -0.1016 -0.3090  0.3418
23899W        W66811  25.798  17.660   0.008  0.1535 -0.0255 -0.5348
23900W        W66812  24.959  14.471   1.412 -0.3621  0.0519 -0.2009
23901W        W66813  24.144  14.439   0.728 -0.1776 -0.0006 -0.0875
23902W        W66814  22.295  13.926   2.382 -0.0237  0.2387 -0.1742
23903W        W66815  22.650  16.640   0.156  0.2626  0.3936 -0.2182
23904W        W66816  24.972  17.284   2.311 -0.2478  0.0464 -0.2883
23905W        W66817  22.848  13.654   1.122  0.0429  0.1207  0.2421
23906W        W66818  24.099  15.867   0.261  0.1224  0.1217  0.0882
23907W        W66819  23.610  18.459   0.804  0.0035  0.1267 -0.2097
23908W        W66820  22.909  14.801   1.353  0.0877 -0.0201 -0.1952
23909W        W66821  24.335  13.462  31.444 -0.1436  0.0418 -0.1454
23910W        W66822  23.034  15.486   2.892  0.5088 -0.0447 -0.1113
23911W        W66823  23.338  17.061   1.777 -0.0038  0.2381  0.0707
23912W        W66824  23.715  15.962   1.956  0.1044  0.0653  0.2075
23913W        W66825  24.649  14.776   1.230  0.0848 -0.2861 -0.0982
23914W        W66826  25.077  17.709  31.843 -0.0545  0.0337 -0.0686
23915W        W66827  24.255  18.146   2.321  0.0552 -0.1815 -0.0544
23916W        W66828  24.978  18.559   2.835  0.1937 -0.0848  0.1710
23917W        W66829  23.610  18.237   3.092  0.0169 -0.4763 -0.0780
23918W        W66830  24.110  16.618   1.204 -0.3662 -0.1205 -0.0479
23919W        W66831  23.785  14.589   1.195  0.6341 -0.2966  0.0099
23920W        W66832  22.581  17.061   0.377  0.1264  0.0661  0.0006
23921W        W66833  22.840  16.196   0.953  0.1371  0.0262 -0.0692
23922W        W66834  22.963  15.201   0.927  0.0039 -0.2207 -0.0383
23923W        W66835  22.472  14.969   1.386 -0.1980 -0.0839 -0.0180
23924W        W66836  23.659  13.769   1.764 -0.0251  0.1979 -0.0109
23925W        W66837  23.258  17.871   2.831  0.0186 -0.1262 -0.3609
23926W        W66838  24.254  17.644   1.019  0.1136  0.3587  0.2424
23927W        W66839  22.505  17.444   7.224  0.4794 -0.0466  0.0240
23928W        W66840  23.759  14.289   4.126 -0.2214  0.1051  0.2292
23929W        W66841  23.219  16.872   2.726 -0.2276  0.0429 -0.1179
23930W        W66842  23.740  16.640   4.212  0.2676  0.0300 -0.2719
23931W        W66843  21.935  16.216   4.277  0.0433  0.0839  0.3552
23932W        W66844  25.330  17.962   5.388  0.3507 -0.0727  0.0866
23933W        W66845  23.111  14.679   5.855 -0.0316 -0.0322 -0.3386
23934W        W66846  24.454  17.101   6.618  0.2039 -0.0252  0.2961
23935W        W66847  25.450  18.007   5.909  0.0049  0.0395  0.1672
23936W        W66848  22.853  17.521   2.842 -0.2358 -0.0658  0.0006
23937W        W66849  23.416  15.324   5.835  0.1147 -0.1502 -0.0249
23938W        W66850  23.172  16.991   6.543 -0.4304 -0.1416  0.5853
23939W        W66851  24.574  14.840   5.126 -0.0672  0.1958 -0.2305
23940W        W66852  22.487  14.688   5.238  0.0002 -0.0765 -0.2650
23941W        W66853  25.523  16.321   6.521  0.1654  0.2680 -0.3414
23942W        W66854  23.070  16.439   3.563  0.1618  0.1658  0.0178
23943W        W66855  23.316  16.162   5.425  0.0103 -0.0851 -0.1203
23944W        W66856  25.455  16.177   4.400 -0.1731 -0.3980 -0.0048
23945W        W66857  23.293  16.766   4.417  0.0342 -0.1693 -0.1825
23946W        W66858  23.059  15.243   5.496 -0.0431 -0.0864 -0.1513
23947W        W66859  24.888  16.484   7.103  0.1623  0.2356 -0.4897
23948W        W66860  23.120  15.911   4.335  0.1962  0.1832 -0.0843
23949W        W66861  23.232  15.916   2.099 -0.0428 -0.1958 -0.2076
23950W        W66862  22.598  14.962   5.706  0.3033  0.1491  0.0302
23951W        W66863  23.580  16.703   6.196  0.1195 -0.1916  0.2256
23952W        W66864  25.491  15.853   7.385  0.2099  0.0713  0.0615
23953W        W66865  25.134  16.216   5.045  0.0137  0.3058 -0.0444
23954W        W66866  22.753  17.788   5.497  0.0053  0.0594 -0.4222
23955W        W66867  23.770  17.357   5.081  0.0981 -0.2838 -0.1181
23956W        W66868  26.090  17.857   8.398  0.1918 -0.0961  0.0646
23957W        W66869  22.196  16.487   4.711 -0.0177  0.2173 -0.0546
23958W        W66870  21.889  18.517   4.491  0.0425  0.2329 -0.1018
23959W        W66871  23.193  16.624   5.339  0.0683 -0.4805  0.3687
23960W        W66872  24.308  17.393   4.187 -0.1652  0.2989 -0.0430
23961W        W66873  24.621  18.192   6.576 -0.0046 -0.1747 -0.1173
23962W        W66874  23.243  17.496   7.830  0.0494  0.0483  0.2026
23963W        W66875  21.906  16.956   3.700  0.0566  0.2233 -0.0359
23964W        W66876  23.385  17.730   7.399 -0.0423  0.3797  0.2818
23965W        W66877  23.013  17.390   7.349  0.1807 -0.0167  0.2125
23966W        W66878  24.243  17.270   5.715  0.0020  0.0909  0.1215
23967W        W66879  25.106  16.637   6.690  0.1756 -0.0926  0.1166
23968W        W66880  24.204  17.435   4.833  0.3304  0.2796  0.0600
23969W        W66881  23.018  15.465   6.310 -0.3395 -0.3880  0.2732
23970W        W66882  22.659  17.152   7.889  0.0768 -0.0840 -0.1309
23971W        W66883  22.214  17.167   5.508 -0.3747 -0.1146 -0.4641
23972W        W66884  25.010  15.732   5.309 -0.0295  0.0513 -0.0020
23973W        W66885  23.261  17.870   4.870  0.2331  0.1077  0.3571
23974W        W66886  26.221  15.062   4.257  0.1185 -0.1645  0.1894
23975W        W66887  25.285  15.761   4.244 -0.0463 -0.2231  0.0075
23976W        W66888  24.832  15.919   4.001  0.0514  0.0219 -0.0592
23977W        W66889  22.832  14.214   5.180  0.0435 -0.3884 -0.1069
23978W        W66890  22.692  18.329   6.293 -0.2887  0.0014 -0.0889
23979W        W66891  23.800  15.283   5.488  0.0405  0.1725  0.2399
23980W        W66892  25.340  17.198   6.164  0.0156  0.0457 -0.1503
23981W        W66893  24.248  16.085   4.835  0.0658 -0.0995 -0.1331
23982W        W66894  24.858  15.743   6.718  0.1724  0.4419  0.1928
23983W        W66895  22.219  17.845   6.532 -0.2174 -0.1411  0.1556
23984W        W66896  23.456  15.173   5.156  0.0816 -0.0621 -0.0044
23985W        W66897  24.889  17.490   3.777 -0.0522 -0.2262 -0.0881
23986W        W66898  25.241  18.388   3.740  0.0168  0.0757  0.1155
23987W        W66899  24.045  17.399   3.148  0.0298  0.0865 -0.3320
23988W        W66900  22.866  16.042   3.829 -0.1757  0.0464  0.1533
23989W        W66901  22.239  16.150   7.100  0.2433 -0.0984 -0.2933
23990W        W66902  22.580  15.754   6.448 -0.0970  0.0050 -0.1158
23991W        W66903  22.530  15.456   4.854  0.3857  0.0623  0.0504
23992W        W66904  25.731  17.919   7.197  0.0305  0.0359 -0.0567
23993W        W66905  22.587  16.043   6.811  0.0356  0.2599 -0.2074
23994W        W66906  26.599  15.275   5.951  0.3208 -0.1585 -0.2099
23995W        W66907  22.329  16.541   4.198  0.0705  0.1660 -0.1717
23996W        W66908  24.304  16.838   5.485  0.0282  0.0460  0.3116
23997W        W66909  24.660  18.026   1.912 -0.1103  0.2041  0.0664
23998W        W66910  24.759  14.171   5.830  0.0170  0.1416  0.2237
23999W        W66911  24.725  14.626   5.590 -0.0299  0.1223  0.0969
24000W        W66912  22.760  17.465   3.455 -0.0875 -0.0610  0.2479
24001W        W66913  23.708  16.157   5.061 -0.0363 -0.4157 -0.1063
24002W        W66914  25.052  17.196   5.282 -0.1375  0.2231 -0.2385
24003W        W66915  24.239  16.569   2.728  0.1958  0.0176  0.0989
24004W        W66916  21.682  16.271   4.689 -0.0877 -0.2166  0.2143
24005W        W66917  22.744  14.620   6.618 -0.0903  0.3303  0.1822
24006W        W66918  24.380  18.651   8.049  0.0810  0.1654  0.3048
24007W        W66919  22.804  17.298   3.985  0.1530  0.1912  0.1606
24008W        W66920  20.704  16.421   6.138 -0.3999 -0.1337 -0.0462
24009W        W66921  22.870  16.884   2.269  0.1426  0.1998 -0.0525
24010W        W66922  22.680  15.081   6.565 -0.0734  0.1680 -0.0617
24011W        W66923  21.791  16.542   5.210  0.1195 -0.2244  0.1087
24012W        W66924  24.251  15.536   5.681  0.1187 -0.0572  0.0137
24013W        W66925  22.427  15.211   6.148 -0.1760 -0.2425  0.0289
24014W        W66926  25.602  15.734   5.205 -0.0076 -0.3383  0.4450
24015W        W66927  22.952  16.385   4.163 -0.0566  0.0757 -0.1424
24016W        W66928  25.034  17.632   3.294 -0.0341 -0.0783  0.0555
24017W        W66929  24.420  16.541   4.502 -0.1555 -0.1999 -0.3227
24018W        W66930  24.854  16.935   3.881 -0.1457 -0.5085 -0.0050
24019W        W66931  22.592  16.812   5.422 -0.0310 -0.1514  0.0306
24020W        W66932  24.870  15.607   4.530  0.1422  0.0421 -0.2449
24021W        W66933  23.520  16.656   6.718  0.2554 -0.2229  0.1226
24022W        W66934  22.850  14.647   4.268  0.1018  0.0777 -0.1220
24023W        W66935  25.474  14.936   6.685 -0.1442 -0.3123 -0.4162
24024W        W66936  22.757  15.094   5.068  0.1978 -0.1478  0.2565
24025W        W66937  23.892  15.219   6.014 -0.1072  0.2276  0.0198
24026W        W66938  24.215  16.388   5.212  0.2425 -0.1387 -0.0766
24027W        W66939  22.578  16.532   3.714  0.0914  0.1290  0.2872
24028W        W66940  25.529  15.032   7.889 -0.1049 -0.0761  0.2950
24029W        W66941  24.612  18.171   4.358  0.2443 -0.1329 -0.2115
24030W        W66942  24.938  17.925   6.889  0.0130 -0.0502  0.1913
24031W        W66943  25.309  18.089   4.908 -0.1971 -0.1068 -0.2078
24032W        W66944  23.057  15.691   5.849 -0.1910 -0.1753  0.1086
24033W        W66945  22.621  16.056   4.442 -0.2133 -0.0821  0.2426
24034W        W66946  22.353  17.963   5.096  0.1821 -0.1388 -0.2355
24035W        W66947  24.645  16.575   5.735 -0.1351  0.0543  0.1398
24036W        W66948  22.953  15.514   4.591 -0.0573  0.2616  0.1807
24037W        W66949  25.318  19.117   6.703  0.2961  0.1495 -0.0273
24038W        W66950  23.207  16.811   3.213  0.0122  0.2057  0.0690
24039W        W66951  22.884  15.953   5.429  0.0143 -0.0751  0.3093
24040W        W66952  25.940  15.066   7.516  0.1049 -0.2371 -0.0655
24041W        W66953  26.794  15.866   6.695 -0.1775 -0.2306 -0.0194
24042W        W66954  25.115  15.350   7.100  0.0228 -0.1168 -0.1617
24043W        W66955  21.475  14.247   3.653  0.1861 -0.0477 -0.1387
24044W        W66956  24.818  17.699   5.296 -0.0582  0.0906 -0.0786
24045W        W66957  23.324  17.188   4.165 -0.1995  0.3047  0.3196
24046W        W66958  22.969  16.463   2.948  0.1596  0.0765 -0.2392
24047W        W66959  26.890  15.583   5.327 -0.3149 -0.0698  0.1833
24048W        W66960  21.205  17.852   7.320  0.0518  0.2346  0.1267
24049W        W66961  22.884  16.656   7.073 -0.0829  0.0096 -0.0731
24050W        W66962  21.019  15.830   3.917 -0.0999 -0.1530  0.0747
24051W        W66963  22.744  17.209   6.283  0.2517 -0.1503 -0.4641
24052W        W66964  24.528  14.338   4.848  0.3016  0.0102 -0.2517
24053W        W66965  25.625  16.439   3.845  0.3114  0.1670 -0.2626
24054W        W66966  25.281  17.075   6.989 -0.2446 -0.0344 -0.0226
24055W        W66967  24.404  16.946   3.091  0.3403  0.4505 -0.3118
24056W        W66968  23.682  15.821   2.408 -0.1746 -0.1892 -0.0544
24057W        W66969  23.827  14.918   4.941  0.4471  0.0140  0.1541
24058W        W66970  22.238  16.782   6.312 -0.0335 -0.0545  0.1667
24059W        W66971  24.571  17.252   5.313 -0.3038 -0.0007  0.1628
24060W        W66972  24.372  16.891   6.179  0.3964  0.1343  0.1399
24061W        W66973  24.375  16.878   3.919  0.2520 -0.1324 -0.0572
24062W        W66974  24.828  17.547   4.346  0.0188  0.0572 -0.1310
24063W        W66975  22.229  15.910   4.051  0.2456  0.2185 -0.3725
24064W        W66976  24.573  17.186   7.500  0.2689 -0.0301  0.0663
24065W        W66977  24.400  16.961   4.944 -0.2145 -0.2134  0.2762
24066W        W66978  23.749  14.447   5.760  0.2674  0.0338  0.2072
24067W        W66979  24.813  15.416   3.101  0.2037 -0.1450 -0.1147
24068W        W66980  24.083  14.644   3.978  0.1588  0.1035  0.0221
24069W        W66981  21.003  17.602   3.359  0.0137  0.0772  0.1570
24070W        W66982  23.602  14.743   6.565  0.1299 -0.0721 -0.0218
24071W        W66983  24.362  15.404   6.687  0.1057  0.1073 -0.0770
24072W        W66984  23.867  15.569   6.872  0.0637  0.2574  0.2376
24073W        W66985  26.370  16.527   5.927 -0.3302  0.3299  0.1755
24074W        W66986  24.321  16.476   3.459  0.2562 -0.2158  0.1033
24075W        W66987  26.174  15.881   6.522 -0.0477 -0.1585 -0.0058
24076W        W66988  24.062  15.749   3.088  0.1461  0.0570  0.0126
24077W        W66989  23.250  15.458   7.106  0.0360  0.3060 -0.3059
24078W        W66990  23.509  16.263   6.405 -0.1658  0.0020 -0.0205
24079W        W66991  22.985  18.748   6.277 -0.2768  0.0865  0.0433
24080W        W66992  25.938  16.797   5.693 -0.3087 -0.0755  0.2446
24081W        W66993  23.480  16.675   4.956 -0.0016  0.1360 -0.3612
24082W        W66994  24.652  16.186   7.371  0.3284 -0.0973 -0.1007
24083W        W66995  23.635  14.598   5.339 -0.2296  0.1420 -0.0285
24084W        W66996  23.494  18.234   5.193 -0.0202 -0.0233 -0.2178
24085W        W66997  22.574  17.763   3.996 -0.2268 -0.0563 -0.0422
24086W        W66998  24.377  14.479   4.382  0.3046 -0.0439  0.1500
24087W        W66999  23.079  17.606   6.408 -0.0668 -0.0510 -0.0402
24088W        W67000  24.079  17.393   2.277  0.3796 -0.0623  0.0775
24089W        W67001  23.958  17.066   6.526  0.2271 -0.0430  0.0161
24090W        W67002  23.084  17.520   5.224 -0.1154 -0.3097 -0.0104
24091W        W67003  26.011  14.202   4.384  0.0920 -0.3065  0.2321
24092W        W67004  23.178  17.156   3.610  0.2945  0.0624  0.0934
24093W        W67005  23.330  15.946   3.676  0.0543  0.2881  0.1123
24094W        W67006  22.992  15.594   5.123 -0.0739 -0.0934  0.0475
24095W        W67007  24.300  15.643   4.618  0.0707 -0.0222 -0.1620
24096W        W67008  24.629  17.259   3.445  0.1600  0.0140 -0.1469
24097W        W67009  21.375  15.411   6.958  0.0914  0.0559 -0.3698
24098W        W67010  24.420  14.909   6.454 -0.2512 -0.0049 -0.0468
24099W        W67011  21.429  17.539   6.301  0.0881 -0.0846  0.1596
24100W        W67012  24.788  17.032   6.984  0.2305 -0.2424 -0.2717
24101W        W67013  25.810  15.503   4.837  0.0884  0.0081  0.0872
24102W        W67014  24.463  17.661   6.673  0.2890  0.3153  0.0327
24103W        W67015  22.349  17.738   8.662 -0.2172  0.2982 -0.1621
24104W        W67016  22.418  15.278   2.314  0.0011 -0.0560  0.0610
24105W        W67017  26.060  16.315   6.247  0.1084  0.1146 -0.3114
24106W        W67018  23.730  15.648   5.831 -0.4478  0.0209  0.0975
24107W        W67019  22.324  17.383   5.082 -0.1454 -0.4055  0.1574
24108W        W67020  24.846  17.114   6.264  0.1619  0.0604 -0.0374
24109W        W67021  23.793  15.872   4.644  0.1654  0.0568 -0.0006
24110W        W67022  22.823  16.933   5.010  0.0317  0.0916 -0.3001
24111W        W67023  23.996  17.402   7.861  0.0446  0.0605  0.2050
24112W        W67024  25.494  16.678   5.998 -0.0178  0.1217  0.1548
24113W        W67025  23.836  15.600   5.075  0.1467  0.2421 -0.2337
24114W        W67026  23.393  15.841   6.188 -0.0656 -0.0967 -0.2842
24115W        W67027  24.389  16.728   7.192  0.0822  0.4330  0.0704
24116W        W67028  25.539  17.196   5.687  0.0044 -0.0282 -0.0862
24117W        W67029  24.002  16.521   6.443  0.0031 -0.4655  0.0928
24118W        W67030  22.275  17.422   7.708 -0.0144  0.1032  0.3084
24119W        W67031  23.899  14.656   4.521  0.3678 -0.0572  0.2253
24120W        W67032  25.700  18.442   3.350  0.1277  0.0917 -0.0138
24121W        W67033  26.078  16.987   7.344 -0.1906  0.1477  0.3413
24122W        W67034  23.742  16.022   4.039  0.0577 -0.2637 -0.0542
24123W        W67035  21.317  16.437   4.954  0.1462 -0.2155 -0.1775
24124W        W67036  22.908  17.083   4.547 -0.1538  0.1703  0.0994
24125W        W67037  24.464  15.615   7.161 -0.0141  0.0784  0.1052
24126W        W67038  22.021  17.101   6.022 -0.1221 -0.2831  0.2266
24127W        W67039  22.719  16.833   4.141  0.2316  0.2222  0.2658
24128W        W67040  22.349  17.517   5.917  0.4267  0.0116 -0.0366
24129W        W67041  27.493  13.806   5.377  0.2805  0.3359 -0.1013
24130W        W67042  24.051  17.066   2.698  0.1385 -0.1069 -0.0705
24131W        W67043  24.126  15.049   4.296  0.0626 -0.0574  0.1715
24132W        W67044  26.728  14.656   7.741  0.2776 -0.3811 -0.3545
24133W        W67045  23.605  17.122   3.036  0.0753  0.1480  0.2164
24134W        W67046  24.012  16.464   6.958 -0.1821  0.2493  0.2831
24135W        W67047  22.553  14.183   7.629  0.3946 -0.0757  0.0112
24136W        W67048  25.466  16.538   4.846 -0.4524 -0.2829  0.1926
24137W        W67049  23.764  16.230   5.982 -0.0695  0.0165 -0.0547
24138W        W67050  25.320  18.673   7.540 -0.2244 -0.0489  0.3712
24139W        W67051  23.103  17.044   7.711 -0.4026 -0.1423 -0.1238
24140W        W67052  24.884  16.138   5.959 -0.5880  0.2343 -0.0621
24141W        W67053  21.813  15.300   4.455  0.4998 -0.3294 -0.1306
24142W        W67054  23.332  17.231   6.089  0.0717 -0.1461  0.0666
24143W        W67055  25.215  17.551   5.781  0.0332  0.0650  0.0213
24144W        W67056  22.618  17.371   2.384  0.3536  0.0611 -0.0067
24145W        W67057  25.057  16.781   4.808 -0.3191  0.0999  0.1343
24146W        W67058  22.931  17.498   5.933  0.1087  0.0394 -0.1900
24147W        W67059  24.089  16.174   4.366 -0.0453 -0.4232  0.3652
24148W        W67060  22.724  16.892   3.250  0.0577 -0.0491 -0.0300
24149W        W67061  24.517  15.588   4.134  0.1750  0.0272 -0.0482
24150W        W67062  24.624  14.121   6.492  0.3150 -0.2519  0.1313
24151W        W67063  25.521  16.181   5.970 -0.1603 -0.0883 -0.0406
24152W        W67064  25.187  15.807   5.740  0.1218 -0.2119  0.0732
24153W        W67065  23.595  16.273   7.660  0.0811  0.1018 -0.1604
24154W        W67066  26.062  17.535   6.981 -0.0107  0.0432  0.1914
24155W        W67067  23.053  18.073   8.119 -0.0436  0.1533  0.1859
24156W        W67068  22.060  15.559   4.892 -0.0923  0.1254 -0.0611
24157W        W67069  26.211  17.494   7.539  0.1380 -0.4173  0.1196
24158W        W67070  25.351  15.519   3.628 -0.2908  0.1206 -0.2261
24159W        W67071  24.293  16.063   7.012  0.3346  0.0169  0.2283
24160W        W67072  25.381  16.895   3.820  0.1199  0.2928  0.2203
24161W        W67073  24.893  16.984   3.015  0.1517  0.2226 -0.1083
24162W        W67074  23.566  14.867   5.721 -0.2253 -0.2193 -0.0599
24163W        W67075  25.543  16.931   6.516  0.2621 -0.1370 -0.3199
24164W        W67076  23.394  14.615   4.318 -0.1462  0.0592  0.0091
24165W        W67077  25.537  17.101   7.616 -0.2180  0.2993 -0.1040
24166W        W67078  23.135  16.775   3.917 -0.0983 -0.2356 -0.0277
24167W        W67079  25.296  17.234   4.342 -0.4565 -0.0981 -0.0565
24168W        W67080  24.236  16.283   5.740 -0.0630 -0.1148  0.1401
24169W        W67081  22.623  15.514   5.499  0.2210  0.0433  0.0702
24170W        W67082  22.749  18.368   8.779 -0.1125 -0.0328 -0.3830
24171W        W67083  23.431  15.462   4.405  0.1589  0.1140  0.2560
24172W        W67084  23.788  15.888   3.505 -0.0365 -0.1533 -0.0593
24173W        W67085  23.785  17.504   5.703 -0.1304  0.0470  0.2375
24174W        W67086  25.657  17.060   8.495  0.1100 -0.2170  0.1581
24175W        W67087  25.339  14.904   4.018  0.0480 -0.4230  0.1423
24176W        W67088  25.147  16.180   7.530  0.1677 -0.0009  0.0269
24177W        W67089  21.770  16.794   4.781  0.0001  0.0470  0.0795
24178W        W67090  24.454  16.395   6.228 -0.1292 -0.0169  0.3599
24179W        W67091  23.998  18.127   6.774  0.2172  0.0434 -0.0060
24180W        W67092  22.050  17.485   6.855  0.2051  0.1536 -0.1270
24181W        W67093  23.934  17.110   6.066  0.1829  0.1423 -0.1815
24182W        W67094  24.249  14.438   5.787  0.0728  0.0941 -0.1320
24183W        W67095  25.509  15.554   5.984 -0.4239  0.0389  0.0162
24184W        W67096  24.338  15.761   5.206  0.0056 -0.0734  0.3985
24185W        W67097  26.301  17.103   6.820 -0.0012 -0.0531 -0.0976
24186W        W67098  23.064  15.964   6.579 -0.1295  0.1935  0.1445
24187W        W67099  24.035  16.671   5.911  0.0446  0.0708  0.1487
24188W        W67100  23.878  17.604   6.213 -0.1027  0.0070 -0.1912
24189W        W67101  25.088  16.930   5.736 -0.2110 -0.1096 -0.1648
24190W        W67102  23.708  16.528   5.435  0.1933  0.0629 -0.2581
24191W        W67103  21.919  16.415   6.715 -0.1482  0.0851 -0.0303
24192W        W67104  24.365  17.394   7.054 -0.0941  0.0867  0.0654
24193W        W67105  24.676  16.427   4.949  0.1397 -0.3364  0.0407
24194W        W67106  23.466  13.881   3.854 -0.0755  0.2479 -0.1953
24195W        W67107  24.282  17.810   4.505 -0.1364 -0.0216 -0.1553
24196W        W67108  20.863  17.976   6.929  0.0841  0.1316 -0.0760
24197W        W67109  22.912  16.471   5.684 -0.0587  0.2424 -0.1177
24198W        W67110  23.110  18.561   4.773 -0.0712 -0.0406  0.0060
24199W        W67111  24.265  17.513   3.681  0.1891  0.1122  0.0860
24200W        W67112  24.095  17.029   3.510 -0.3206 -0.0858 -0.0156
24201W        W67113  23.491  18.673   6.470 -0.1973  0.2472  0.1252
24202W        W67114  25.609  15.376   4.069 -0.0603  0.0222 -0.2133
24203W        W67115  21.278  16.924   7.394 -0.0567 -0.3284 -0.2067
24204W        W67116  22.413  16.990   3.699 -0.1029  0.0911  0.0356
24205W        W67117  23.534  18.394   4.088  0.1817  0.3882  0.3319
24206W        W67118  22.802  17.630   4.812  0.4546 -0.0266 -0.1993
24207W        W67119  24.906  17.410   6.635 -0.0869  0.1282  0.0833
24208W        W67120  26.493  15.270   5.387 -0.0313 -0.0270  0.2536
24209W        W67121  24.804  16.780   5.250 -0.0197  0.0450  0.2743
24210W        W67122  25.320  17.676   3.976  0.1114  0.1466  0.1797
24211W        W67123  24.797  17.571   7.134  0.0505 -0.4295  0.1657
24212W        W67124  23.222  16.998   7.127  0.0869  0.1594  0.1725
24213W        W67125  25.125  14.612   5.841  0.2183 -0.0939  0.0820
24214W        W67126  22.958  16.215   7.563  0.6770  0.0647 -0.2006
24215W        W67127  26.853  15.094   8.048 -0.1517  0.2691 -0.1645
24216W        W67128  22.200  17.270   6.501 -0.2002  0.1211  0.0856
24217W        W67129  23.452  16.411   3.859 -0.0033 -0.1216 -0.1212
24218W        W67130  24.562  16.026   4.476  0.0345  0.0798  0.2179
24219W        W67131  23.385  15.848   4.838 -0.4164 -0.2898 -0.2150
24220W        W67132  25.292  14.946   6.161 -0.0408 -0.0162 -0.1017
24221W        W67133  23.516  16.303   2.377  0.0912 -0.3376  0.1553
24222W        W67134  24.476  16.005   6.556  0.0139  0.1545 -0.1654
24223W        W67135  23.348  17.323   5.565  0.2395  0.1548  0.0300
24224W        W67136  22.986  18.574   5.253 -0.1082 -0.1856  0.0607
24225W        W67137  21.851  15.587   4.045 -0.0935 -0.1016  0.1591
24226W        W67138  26.452  16.975   4.689  0.2674 -0.0805  0.0173
24227W        W67139  23.591  16.373   7.147  0.2964  0.1316  0.2301
24228W        W67140  25.458  14.566   8.122  0.0713 -0.1705 -0.2816
24229W        W67141  22.803  16.200   6.222  0.1042  0.2514 -0.0773
24230W        W67142  25.139  16.381   3.888 -0.4798  0.2494  0.0357
24231W        W67143  24.022  16.982   6.999  0.0849  0.0894  0.0681
24232W        W67144  22.094  15.798   5.548  0.2222 -0.0471  0.0355
24233W        W67145  25.299  16.018   3.571  0.2429  0.4120  0.0452
24234W        W67146  26.246  17.067   7.865  0.0455  0.0757 -0.0915
24235W        W67147  23.167  16.035   3.189 -0.1707  0.1111 -0.2336
24236W        W67148  23.990  17.491   6.728  0.1596 -0.0066 -0.1206
24237W        W67149  23.234  14.323   5.560 -0.3819  0.1077 -0.2155
24238W        W67150  24.636  16.435   4.013 -0.1161  0.0546 -0.2501
24239W        W67151  23.044  16.740   6.114  0.3044  0.0574 -0.1918
24240W        W67152  24.526  16.480   6.723 -0.3067 -0.0784  0.2467
24241W        W67153  24.900  18.508   6.865  0.3787  0.0440  0.0333
24242W        W67154  22.416  15.910   5.107 -0.1042 -0.3272 -0.2282
24243W        W67155  25.155  17.902   4.494  0.0660  0.0222  0.0359
24244W        W67156  27.055  16.911   6.415 -0.0228 -0.1099  0.0049
24245W        W67157  23.341  18.881   4.418 -0.2865  0.2231 -0.1577
24246W        W67158  25.828  16.751   5.080  0.2053  0.3389 -0.1096
24247W        W67159  24.341  17.420   6.193  0.1163 -0.0490 -0.0626
24248W        W67160  22.219  15.399   6.624  0.5673 -0.1334  0.1581
24249W        W67161  23.400  17.727   5.951  0.3635  0.0510  0.2807
24250W        W67162  24.775  17.351   5.861  0.1535  0.1580  0.1134
24251W        W67163  24.236  13.998   5.102  0.1001 -0.0854  0.0266
24252W        W67164  22.429  16.138   5.575  0.2786  0.2745 -0.2712
24253W        W67165  21.750  18.731   5.015 -0.2770  0.0067  0.0736
24254W        W67166  25.569  15.837   6.873 -0.3254 -0.0239  0.0440
24255W        W67167  24.986  16.642   6.135 -0.0181  0.2822 -0.0169
24256W        W67168  23.815  18.030   3.930  0.0446  0.0380 -0.2858
24257W        W67169  24.875  14.880   7.350 -0.0242  0.0847  0.2308
24258W        W67170  22.701  17.019   7.368 -0.0296  0.1320 -0.1554
24259W        W67171  24.747  18.280   7.347 -0.1634  0.0263  0.2046
24260W        W67172  22.838  15.572   3.364 -0.2839  0.3494 -0.5354
24261W        W67173  22.712  17.089   6.834 -0.0932  0.0134 -0.1375
24262W        W67174  23.570  17.804   5.342 -0.0664 -0.0782 -0.1471
24263W        W67175  23.379  17.414   4.683 -0.0681 -0.1338 -0.2863
24264W        W67176  24.041  17.943   5.826 -0.0557  0.0216  0.0607
24265W        W67177  24.717  15.916   4.940 -0.4393 -0.1064  0.2877
24266W        W67178  24.943  17.415   4.838  0.0362 -0.3284 -0.1054
24267W        W67179  23.354  15.173   3.684  0.1314 -0.1512  0.1362
24268W        W67180  26.487  14.827   5.755 -0.1174  0.0122  0.1350
24269W        W67181  26.095  15.925   5.222 -0.0428  0.1636  0.0168
24270W        W67182  23.496  17.764   6.664  0.1434  0.0870  0.1119
24271W        W67183  23.200  15.949   2.600  0.0519  0.1142 -0.1027
24272W        W67184  23.355  17.093   5.161 -0.0749  0.2802  0.2576
24273W        W67185  22.867  15.960   4.869 -0.0331 -0.0209 -0.0228
24274W        W67186  22.738  15.226   7.574 -0.1548 -0.1610 -0.0099
24275W        W67187  22.059  16.096   5.999 -0.1710  0.0901  0.2638
24276W        W67188  22.382  15.629   4.441 -0.2497 -0.1391  0.3266
24277W        W67189  23.402  15.648   5.481 -0.4589 -0.1741  0.4011
24278W        W67190  24.480  17.851   4.033  0.0572 -0.1138  0.0940
24279W        W67191  24.347  14.394   5.331 -0.1791 -0.2246  0.0374
24280W        W67192  21.330  15.248   5.220  0.2998  0.1973 -0.3823
24281W        W67193  23.124  16.400   4.858  0.0739 -0.1547  0.0005
24282W        W67194  23.787  17.042   5.491 -0.0075 -0.0232  0.2376
24283W        W67195  24.295  15.935   6.100 -0.0244  0.3919  0.0467
24284W        W67196  25.572  18.133   7.615 -0.0841 -0.1473 -0.1767
24285W        W67197  21.520  15.846   3.173  0.1621  0.1493 -0.0327
24286W        W67198  23.945  16.055   6.550  0.2023  0.0513  0.0953
24287W        W67199  23.122  14.930   7.940  0.1166  0.0941  0.0587
24288W        W67200  21.819  16.031   3.820 -0.2900 -0.0912  0.1690
24289W        W67201  25.164  16.455   5.642 -0.0530 -0.0293 -0.2445
24290W        W67202  24.192  17.008   4.462  0.0129 -0.2616  0.1026
24291W        W67203  24.828  18.386   4.706 -0.1178 -0.4359 -0.1032
24292W        W67204  23.537  17.301   6.560 -0.3356  0.0690 -0.0938
24293W        W67205  23.933  17.711   7.147  0.0952  0.0471  0.1099
24294W        W67206  23.069  14.744   5.287  0.0783 -0.1900  0.2175
24295W        W67207  23.903  17.113   4.005 -0.3341 -0.3633 -0.0415
24296W        W67208  23.622  17.337   7.053 -0.2535  0.2216 -0.2862
24297W        W67209  24.827  16.206   2.643 -0.2251  0.1111  0.0216
24298W        W67210  25.386  15.469   6.629  0.4246  0.0325 -0.0167
24299W        W67211  23.978  16.515   4.757  0.1511 -0.1496 -0.3048
24300W        W67212  22.604  17.524   6.658  0.3164  0.0756  0.1407
24301W        W67213  23.738  16.718   7.458 -0.2784  0.0755 -0.0579
24302W        W67214  25.481  17.582   6.797 -0.3027  0.2089 -0.3476
24303W        W67215  23.140  15.022   4.532  0.0653 -0.2421 -0.1142
24304W        W67216  25.608  16.296   5.322 -0.2815  0.2373 -0.1290
24305W        W67217  23.809  17.529   4.493  0.1646 -0.1123 -0.2436
24306W        W67218  22.734  16.399   5.203 -0.4521  0.2284  0.0579
24307W        W67219  24.218  15.261   5.182  0.0966 -0.2019  0.0598
24308W        W67220  24.223  16.842   7.697  0.1405 -0.1103 -0.0199
24309W        W67221  24.475  17.717   5.803 -0.1357  0.1384  0.0778
24310W        W67222  25.773  17.079   6.937 -0.0173 -0.0971  0.0633
24311W        W67223  24.988  16.348   4.403 -0.1987  0.0171 -0.0604
24312W        W67224  25.268  15.840   2.470  0.0230  0.0759 -0.4022
24313W        W67225  23.965  19.093   6.190 -0.2065  0.0817 -0.0310
24314W        W67226  25.210  17.805   7.359 -0.0127  0.1864  0.1662
24315W        W67227  23.216  18.304   6.183 -0.2991  0.0517 -0.0210
24316W        W67228  24.775  16.180   5.432  0.1644 -0.0879  0.0812
24317W        W67229  22.947  15.148   5.972 -0.2071  0.3048 -0.1046
24318W        W67230  24.308  14.813   4.724  0.2304  0.0798  0.0555
24319W        W67231  23.943  16.855   5.107 -0.0296  0.1489  0.3373
24320W        W67232  24.964  16.210   6.541 -0.2863  0.2969 -0.1107
24321W        W67233  22.156  15.041   4.624 -0.0614  0.3542 -0.0752
24322W        W67234  25.333  15.271   5.605  0.0805  0.1405 -0.0891
24323W        W67235  22.967  18.007   5.928 -0.3440  0.0002 -0.3957
24324W        W67236  23.858  15.950   5.456 -0.1289 -0.0859  0.2380
24325W        W67237  22.316  16.980  10.648 -0.0553 -0.1157 -0.0295
24326W        W67238  23.011  15.291   8.221  0.1995 -0.0456  0.3530
24327W        W67239  24.936  15.808   7.228 -0.2146  0.0689  0.0863
24328W        W67240  25.865  16.730   7.748 -0.0783  0.1890 -0.0314
24329W        W67241  21.846  15.875   7.038 -0.0285 -0.0447  0.0836
24330W        W67242  23.903  18.638   8.413  0.2798 -0.1786 -0.0742
24331W        W67243  23.837  17.703  10.231  0.1767 -0.1612  0.2015
24332W        W67244  25.697  18.333   9.108  0.1623 -0.3128 -0.0722
24333W        W67245  26.446  18.188   8.664  0.2424  0.1504 -0.2937
24334W        W67246  22.426  16.238   9.248 -0.1047  0.0386  0.3601
24335W        W67247  23.017  14.913   7.322 -0.3551 -0.1328 -0.1527
24336W        W67248  23.134  15.563  10.053  0.0417  0.2602 -0.3484
24337W        W67249  25.218  17.012   9.569  0.2228 -0.1270  0.2263
24338W        W67250  22.885  16.368   8.959 -0.1337  0.2934  0.3028
24339W        W67251  23.049  14.981  10.149  0.2784  0.1934 -0.3380
24340W        W67252  22.489  16.714   9.095  0.0082 -0.1172 -0.1227
24341W        W67253  24.666  19.937   8.865  0.0357  0.4089  0.0177
24342W        W67254  24.769  16.508  10.183  0.3107  0.1653  0.2020
24343W        W67255  24.020  16.373   8.776  0.0468 -0.4897 -0.1564
24344W        W67256  23.024  16.136   7.097  0.1067 -0.3947 -0.3816
24345W        W67257  20.713  16.759   9.963 -0.3337 -0.1061 -0.1901
24346W        W67258  23.660  18.581  10.075  0.0142  0.3410 -0.0434
24347W        W67259  22.341  13.776   9.662  0.1634  0.1726  0.0267
24348W        W67260  24.250  16.842   8.756 -0.0159  0.0816  0.2548
24349W        W67261  23.040  18.112   9.175 -0.0903 -0.3979  0.2577
24350W        W67262  23.868  18.962   9.018 -0.2730  0.0237  0.1252
24351W        W67263  22.102  16.267   8.324  0.2906 -0.0691 -0.1619
24352W        W67264  22.733  16.849   8.661 -0.1201 -0.0826 -0.1315
24353W        W67265  23.603  16.562   9.186 -0.4786 -0.2512 -0.0448
24354W        W67266  26.987  16.949   9.096 -0.1644  0.0601  0.0235
24355W        W67267  21.726  17.607   7.935  0.1016 -0.0120  0.0439
24356W        W67268  23.392  17.034  10.386  0.1218 -0.0655  0.0838
24357W        W67269  24.271  17.079   9.635  0.1628  0.1145 -0.0127
24358W        W67270  22.751  18.414   7.832 -0.2011  0.1201  0.0376
24359W        W67271  23.260  18.219   8.572  0.0757 -0.0780 -0.0222
24360W        W67272  23.257  17.602  10.155 -0.4719 -0.0660 -0.1082
24361W        W67273  21.833  18.099   7.852 -0.0595 -0.0994  0.1447
24362W        W67274  25.196  16.773   7.373  0.1337 -0.2177 -0.1944
24363W        W67275  24.150  16.355   7.470 -0.1890  0.0903  0.1863
24364W        W67276  26.621  16.197   7.778  0.0066  0.2255 -0.4460
24365W        W67277  22.982  14.459   8.108  0.1598 -0.1252  0.0446
24366W        W67278  22.852  18.995   9.624 -0.3357  0.1487 -0.2836
24367W        W67279  22.782  13.713   9.320  0.1623 -0.2708  0.0031
24368W        W67280  25.529  16.663   6.949 -0.0903 -0.1834  0.0619
24369W        W67281  27.813  15.198  10.586  0.0943  0.2852  0.1457
24370W        W67282  24.470  18.300  10.060  0.1563  0.0701  0.0778
24371W        W67283  19.242  17.439   9.120  0.1346 -0.1560 -0.1966
24372W        W67284  26.049  18.198   9.543  0.0357  0.2932  0.0128
24373W        W67285  25.756  16.400   9.629  0.2966 -0.0927 -0.1413
24374W        W67286  25.115  18.059   7.850 -0.0669 -0.0715 -0.1064
24375W        W67287  22.151  15.972   8.859  0.1429  0.3805  0.0155
24376W        W67288  23.896  14.452   7.357  0.0045 -0.3459 -0.2769
24377W        W67289  25.701  16.995   9.707 -0.2163 -0.1392  0.2313
24378W        W67290  24.287  16.024   9.012  0.0652 -0.0278  0.1345
24379W        W67291  25.321  17.517   9.432 -0.0924  0.0102  0.1604
24380W        W67292  24.645  16.677   9.738  0.3209 -0.1757  0.0005
24381W        W67293  24.100  15.698  10.353  0.2035 -0.2569 -0.1319
24382W        W67294  23.518  16.665   9.987  0.1169 -0.0876  0.1494
24383W        W67295  22.706  17.685   8.081 -0.1913  0.0929 -0.0464
24384W        W67296  22.726  16.017   8.399 -0.4216 -0.2758 -0.1547
24385W        W67297  23.540  19.003  11.586 -0.0795 -0.0283 -0.0148
24386W        W67298  24.235  17.363   8.923  0.0164 -0.2762  0.2395
24387W        W67299  20.579  19.098   9.709 -0.0862  0.3534 -0.0389
24388W        W67300  23.735  18.127   8.596  0.1205 -0.2833 -0.0422
24389W        W67301  22.609  18.273   8.350 -0.1747 -0.1582  0.0268
24390W        W67302  21.537  17.499   8.706 -0.2661 -0.2827  0.1309
24391W        W67303  22.423  14.958   8.640  0.1482  0.0633  0.0913
24392W        W67304  23.309  17.838   9.649  0.0852 -0.0578  0.1233
24393W        W67305  25.635  16.298   8.297  0.0326  0.1245 -0.1427
24394W        W67306  24.444  15.565   8.038  0.3675  0.0315  0.0936
24395W        W67307  23.573  18.708   7.615 -0.1096 -0.0839  0.3345
24396W        W67308  26.347  18.391   9.163 -0.0252  0.1214 -0.1350
24397W        W67309  25.065  15.716   9.380 -0.2756 -0.2433  0.0733
24398W        W67310  25.777  18.443   7.987  0.2950  0.0742 -0.1633
24399W        W67311  22.089  17.270  10.261 -0.1508 -0.1345  0.0845
24400W        W67312  23.211  15.553   8.923 -0.3060 -0.1162  0.0028
24401W        W67313  21.670  15.021   8.983  0.0500  0.0892  0.3061
24402W        W67314  22.512  15.925   7.561  0.1277  0.2096  0.0443
24403W        W67315  25.371  16.849   8.838 -0.2138 -0.2201 -0.1401
24404W        W67316  21.761  16.977   8.669 -0.1889 -0.0883 -0.1127
24405W        W67317  20.536  17.950   7.881 -0.0484 -0.1238 -0.1015
24406W        W67318  26.201  18.775   8.786  0.1939 -0.1564  0.0096
24407W        W67319  25.177  17.503   9.914 -0.2271  0.2057  0.2328
24408W        W67320  25.107  17.824   8.542 -0.0179  0.2612 -0.1182
24409W        W67321  23.115  14.281  10.022  0.3191 -0.0676  0.0951
24410W        W67322  22.495  15.360   8.179  0.2486  0.3632 -0.1438
24411W        W67323  23.701  18.852   9.652  0.0028 -0.0310 -0.2920
24412W        W67324  23.751  17.601   8.720  0.3442 -0.2598  0.0688
24413W        W67325  21.339  15.221   8.331 -0.2455  0.0387  0.1593
24414W        W67326  26.407  17.542   8.882 -0.3128 -0.1528  0.1851
24415W        W67327  23.139  16.068   8.139  0.0665  0.1267  0.1456
24416W        W67328  23.795  16.672   8.360 -0.4881 -0.2815 -0.0620
24417W        W67329  25.105  17.259   8.447  0.0731  0.3311 -0.1250
24418W        W67330  21.837  14.879   7.083  0.1576 -0.0196  0.4002
24419W        W67331  25.645  17.806   9.182 -0.0973 -0.0593 -0.2461
24420W        W67332  22.809  18.877   7.110 -0.1999  0.0933 -0.0344
24421W        W67333  21.958  16.835   9.117  0.1635  0.2043  0.0064
24422W        W67334  23.463  18.487   8.192  0.2663 -0.1918  0.1663
24423W        W67335  23.900  15.988   9.996 -0.0197 -0.1805 -0.0326
24424W        W67336  23.547  15.965   6.823  0.0565 -0.1770 -0.0645
24425W        W67337  23.613  16.029   8.715 -0.1178  0.1124  0.0194
24426W        W67338  24.582  15.332   7.555 -0.1414  0.0546 -0.4416
24427W        W67339  25.328  16.513   9.854  0.1008  0.0677  0.1231
24428W        W67340  25.805  16.185   7.817  0.1641 -0.0279  0.1564
24429W        W67341  23.395  16.607   8.039 -0.2402 -0.2859  0.0874
24430W        W67342  24.891  17.685   8.117 -0.0643  0.0575  0.0034
24431W        W67343  22.890  17.369   9.905 -0.0869  0.1899 -0.2145
24432W        W67344  23.520  17.872   8.157 -0.1337 -0.0374  0.0944
24433W        W67345  24.378  17.668   8.013 -0.0517  0.0130  0.1706
24434W        W67346  22.564  18.376  11.000 -0.2013  0.3074  0.2435
24435W        W67347  23.403  16.949   8.399 -0.1647 -0.1477  0.0812
24436W        W67348  23.034  14.680   8.992 -0.3822  0.0718 -0.1353
24437W        W67349  22.120  15.890   6.622  0.0532 -0.2009 -0.1827
24438W        W67350  22.712  15.875   9.006  0.3325  0.1903 -0.0644
24439W        W67351  22.180  17.068   7.213  0.1027  0.0625  0.1113
24440W        W67352  24.629  14.400   9.369  0.5152 -0.2902  0.0769
24441W        W67353  23.248  15.218   9.730  0.2251  0.0546 -0.1564
24442W        W67354  25.406  17.466   8.803 -0.1388 -0.2857 -0.1471
24443W        W67355  22.834  16.880  10.558 -0.2310  0.0919  0.2556
24444W        W67356  22.119  18.146   8.368 -0.1309 -0.0646  0.0989
24445W        W67357  23.839  14.487   9.251  0.2333  0.3340 -0.0839
24446W        W67358  21.877  18.118  10.236  0.1709 -0.1729 -0.0257
24447W        W67359  24.885  16.904   8.747 -0.2119 -0.0199 -0.2012
24448W        W67360  24.089  15.404   7.651  0.0059  0.0261  0.0135
24449W        W67361  22.249  18.200   8.930  0.0751 -0.4443  0.3238
24450W        W67362  24.368  18.184   7.855 -0.0116  0.2511  0.4792
24451W        W67363  23.564  15.522   9.316  0.2128 -0.0220  0.2702
24452W        W67364  22.959  16.782  10.002 -0.1888 -0.1934  0.0213
24453W        W67365  24.305  17.688   7.441  0.3072 -0.1843 -0.0083
24454W        W67366  24.632  18.670   9.720  0.0244 -0.0580 -0.0171
24455W        W67367  22.683  17.335   8.966 -0.0042 -0.3174  0.0315
24456W        W67368  23.991  15.620   8.869  0.2104  0.0215  0.4022
24457W        W67369  22.711  17.769   9.591  0.0348 -0.2517 -0.1642
24458W        W67370  22.458  16.339   8.733  0.1920 -0.0516 -0.0184
24459W        W67371  21.338  17.409   8.169 -0.0679 -0.0770  0.1102
24460W        W67372  24.542  15.746   9.446  0.1961  0.1545 -0.1258
24461W        W67373  25.608  17.597   8.360 -0.5011 -0.1964 -0.2574
24462W        W67374  22.760  15.954   9.525  0.0126 -0.0282 -0.2709
24463W        W67375  25.360  15.001  10.407 -0.0738  0.2379 -0.0857
24464W        W67376  22.433  14.928   9.962 -0.1584 -0.1653 -0.2931
24465W        W67377  24.116  15.242   7.173  0.0114 -0.2439  0.2866
24466W        W67378  22.230  15.884   7.952  0.2250 -0.1807  0.3697
24467W        W67379  23.431  18.074  10.042  0.1152  0.3438 -0.1257
24468W        W67380  23.756  14.963   9.943  0.5755 -0.2379 -0.1500
24469W        W67381  21.912  16.807  10.313 -0.2067  0.3719  0.1085
24470W        W67382  22.036  18.270  10.802 -0.4291 -0.2978 -0.0474
24471W        W67383  22.514  16.419   7.397  0.0317  0.1100  0.0984
24472W        W67384  22.612  18.874   7.561 -0.1957  0.0624 -0.1092
24473W        W67385  24.234  17.712  10.569 -0.0034 -0.0744 -0.0406
24474W        W67386  22.209  15.739   8.434  0.2225  0.1640 -0.1098
24475W        W67387  22.324  15.004   7.818 -0.0684 -0.0816 -0.3233
24476W        W67388  22.510  16.729   8.178  0.3533 -0.1958  0.0406
24477W        W67389  24.095  16.893  10.367  0.1132  0.1910  0.3497
24478W        W67390  24.209  15.183  10.124 -0.0164  0.1620 -0.3264
24479W        W67391  23.507  11.988   9.647  0.1449  0.1243  0.1085
24480W        W67392  25.174  19.054   8.129 -0.0343  0.0582 -0.0376
24481W        W67393  22.297  18.336   7.729 -0.1161 -0.0724 -0.1579
24482W        W67394  23.075  15.570   9.380  0.1897 -0.1687 -0.1868
24483W        W67395  23.593  15.769   7.939  0.1629 -0.0688 -0.2648
24484W        W67396  23.253  16.183   9.258  0.0244  0.3095 -0.0606
24485W        W67397  21.460  17.696  10.175  0.1851 -0.1525  0.0628
24486W        W67398  22.225  16.734   7.681 -0.2499  0.1051  0.4178
24487W        W67399  22.141  17.850  10.515 -0.0462 -0.1793 -0.2399
24488W        W67400  24.491  15.483   8.968  0.0688 -0.2415 -0.0320
24489W        W67401  23.811  17.823   7.666 -0.5556 -0.1712  0.0353
24490W        W67402  24.149  16.562   9.353  0.0312  0.0678  0.2439
24491W        W67403  24.526  17.043   9.173  0.3039  0.0891 -0.3091
24492W        W67404  21.163  15.071   9.222  0.0733  0.0190 -0.2057
24493W        W67405  24.978  16.705   9.227 -0.3034  0.0601 -0.2261
24494W        W67406  24.070  16.427   7.999 -0.0198 -0.3059 -0.1549
24495W        W67407  22.679  14.656   7.112 -0.0120  0.1663  0.1279
24496W        W67408  22.548  17.147  10.212  0.1098 -0.2519 -0.0417
24497W        W67409  26.842  16.578   9.886  0.2142 -0.2790  0.0013
24498W        W67410  22.236  17.853   7.993  0.2957  0.1888  0.0429
24499W        W67411  26.351  16.352   9.513  0.0412  0.3617 -0.2238
24500W        W67412  22.505  16.042  10.161  0.2453  0.1256  0.1823
24501W        W67413  24.775  17.300   9.578  0.4181 -0.0782  0.0009
24502W        W67414  26.553  17.228   7.254  0.3200 -0.3310 -0.1536
24503W        W67415  21.839  17.330   9.087  0.2116 -0.2864 -0.1007
24504W        W67416  25.263  18.585   8.148  0.0013 -0.1191 -0.1510
24505W        W67417  22.950  13.435   8.835  0.0366 -0.1299 -0.1389
24506W        W67418  24.767  17.701  10.110 -0.4735 -0.2233 -0.0790
24507W        W67419  24.865  16.801   8.167 -0.3183 -0.0601  0.2917
24508W        W67420  26.655  17.039  10.206  0.1067 -0.0358  0.0660
24509W        W67421  25.464  16.601   9.301  0.2560 -0.0730  0.0532
24510W        W67422  23.253  16.757   9.617 -0.1201  0.2313 -0.0698
24511W        W67423  21.904  15.507   9.123  0.3738 -0.4574 -0.0125
24512W        W67424  23.569  17.388   8.199 -0.3471  0.0062  0.4203
24513W        W67425  23.777  16.924   7.947  0.0613 -0.0377 -0.0841
24514W        W67426  24.531  16.229   7.906 -0.4135 -0.4682  0.2981
24515W        W67427  24.485  16.384   8.401 -0.1276 -0.1651  0.0267
24516W        W67428  22.368  15.691   9.871  0.1475  0.0360  0.1414
24517W        W67429  22.780  15.692   7.952 -0.1124 -0.0970 -0.1290
24518W        W67430  23.153  16.090   8.640 -0.0721  0.1659 -0.1289
24519W        W67431  23.809  18.252  10.405  0.0869  0.2692  0.2648
24520W        W67432  25.111  16.243   8.056 -0.0725 -0.1169 -0.4378
24521W        W67433  21.921  17.774   8.883 -0.0602 -0.0071  0.0961
24522W        W67434  23.946  14.948   7.583  0.0327  0.1101 -0.3361
24523W        W67435  24.032  20.558   9.847 -0.0353  0.1233 -0.0807
24524W        W67436  22.959  17.139   9.381  0.0878 -0.3426  0.3727
24525W        W67437  22.921  16.262   9.977  0.0040  0.2175 -0.0683
24526W        W67438  24.729  16.420   8.855  0.2414 -0.2236 -0.2202
24527W        W67439  23.809  16.816   9.627  0.1206  0.0891 -0.0361
24528W        W67440  22.241  17.148   9.330  0.3183 -0.0690  0.2030
24529W        W67441  25.059  16.983  10.104 -0.1821  0.0027  0.0726
24530W        W67442  23.370  17.898  11.271 -0.4190  0.0882  0.3199
24531W        W67443  24.634  16.313   9.320 -0.1853 -0.0111 -0.1172
24532W        W67444  22.556  17.360   8.450 -0.3430  0.1550  0.2359
24533W        W67445  22.874  17.878   8.555  0.1277  0.3272 -0.2829
24534W        W67446  23.498  18.370   9.602  0.0970 -0.1137  0.7527
24535W        W67447  23.118  19.061   8.442 -0.0349 -0.1739  0.1341
24536W        W67448  24.814  17.501   8.791  0.0897  0.0793  0.2615
24537W        W67449  23.344  15.897   7.353  0.2259 -0.0909 -0.0892
24538W        W67450  24.056  18.539   9.474  0.2272 -0.0199 -0.0333
24539W        W67451  23.225  16.632   7.448 -0.2131  0.3849 -0.0817
24540W        W67452  22.751  19.075   8.041  0.0457  0.1475  0.1657
24541W        W67453  21.145  18.300   8.375 -0.2313  0.1417 -0.1689
24542W        W67454  26.209  18.688   8.249 -0.1943 -0.2238 -0.0504
24543W        W67455  23.434  18.690   8.640  0.1883 -0.0339 -0.2103
24544W        W67456  25.855  16.224   6.908  0.1467 -0.1906  0.0095
24545W        W67457  23.355  18.099  10.597  0.0716  0.1726  0.0139
24546W        W67458  25.437  15.803   8.911  0.2986  0.0738 -0.0128
24547W        W67459  23.583  18.079   9.079  0.1669 -0.2642 -0.2133
24548W        W67460  22.292  14.690   7.419  0.1086 -0.2574  0.1455
24549W        W67461  24.366  18.440   8.689  0.0054  0.0443  0.2389
24550W        W67462  22.330  15.211   7.325 -0.0023  0.3686  0.1951
24551W        W67463  22.825  16.462   9.478  0.0140  0.3884  0.0989
24552W        W67464  23.766  17.807  10.751 -0.5724  0.2765  0.3499
24553W        W67465  23.590  16.238   8.256  0.0251  0.0590  0.0691
24554W        W67466  23.484  17.060   9.283  0.0236  0.2105  0.1492
24555W        W67467  22.951  19.709   7.350 -0.2089 -0.0698  0.1774
24556W        W67468  23.399  18.632  10.671 -0.0103  0.2351  0.2223
24557W        W67469  22.950  16.938   8.231 -0.0198  0.0735 -0.1470
24558W        W67470  22.572  15.667   5.954  0.0122 -0.1663 -0.2840
24559W        W67471  26.387  16.649   9.042 -0.1425  0.2588  0.0993
24560W        W67472  23.756  15.487   9.759  0.1843 -0.1680  0.0760
24561W        W67473  21.362  17.169   9.043 -0.2500 -0.4010 -0.0451
24562W        W67474  24.318  15.848   8.547  0.2226 -0.2286 -0.1966
24563W        W67475  23.755  16.897   8.848 -0.1859 -0.2820 -0.0726
24564W        W67476  23.782  15.101   9.404 -0.2187 -0.1783  0.1962
24565W        W67477  25.381  16.537   7.764 -0.0091 -0.0874  0.0727
24566W        W67478  24.756  16.624   7.630 -0.1040 -0.0221  0.1573
24567W        W67479  22.767  15.164   9.143 -0.2213  0.0288 -0.4128
24568W        W67480  24.663  15.509   8.474  0.0469 -0.1664 -0.1246
24569W        W67481  22.229  16.778   8.644  0.0386  0.0749 -0.1998
24570W        W67482  22.510  17.784  10.108  0.2129  0.0418  0.4837
24571W        W67483  22.715  14.879   8.221 -0.1241 -0.0601 -0.3012
24572W        W67484  25.527  18.025   8.767  0.0760  0.0840 -0.0537
24573W        W67485  27.301  15.549  10.534  0.1853 -0.0493  0.2363
24574W        W67486  24.496  18.753   7.443 -0.2211  0.1650 -0.1740
24575W        W67487  25.668  17.852   9.780 -0.0965  0.0198  0.1050
24576W        W67488  24.014  17.138   8.354  0.3157  0.2719  0.0204
24577W        W67489  21.622  16.466   9.892  0.0900 -0.0266  0.2999
24578W        W67490  23.278  17.224   8.824 -0.0482 -0.0156  0.2235
24579W        W67491  26.511  17.119   8.273 -0.1857  0.0362  0.1832
24580W        W67492  24.308  15.878   7.573  0.1790 -0.2477  0.0813
24581W        W67493  23.896  17.231  10.012 -0.2353 -0.0122 -0.1602
24582W        W67494  21.683  17.760   9.317  0.2736 -0.1926  0.1655
24583W        W67495  26.923  15.550  10.147  0.1259  0.0063 -0.1994
24584W        W67496  24.083  18.429   5.742  0.0702  0.1392 -0.1294
24585W        W67497  21.101  18.097  10.656  0.1362 -0.0811  0.1696
24586W        W67498  22.074  15.756   7.432  0.0132 -0.0534  0.1769
24587W        W67499  22.849  18.604   9.283  0.0442  0.1587 -0.0786
24588W        W67500  24.131  18.203   8.365 -0.0251  0.1255  0.0978
24589W        W67501  25.085  17.210   9.097  0.0788 -0.2251  0.1867
24590W        W67502  24.128  15.921   8.074  0.1254 -0.2683 -0.3461
24591W        W67503  27.680  17.875   9.571  0.0981 -0.0442  0.0873
24592W        W67504  21.042  14.876   8.175 -0.1035 -0.1991 -0.0922
24593W        W67505  24.826  15.715   9.864  0.0172 -0.1445 -0.0247
24594W        W67506  23.304  15.622   8.439  0.1461  0.4474  0.0625
24595W        W67507  23.602  17.586   9.212  0.2934  0.1167  0.0741
24596W        W67508  21.812  15.105   6.652  0.0340 -0.1466 -0.2261
24597W        W67509  22.740  16.670   6.502  0.1517 -0.1444  0.0207
24598W        W67510  22.398  17.388   9.727 -0.2803 -0.0582 -0.1531
24599W        W67511  20.658  16.915   9.332  0.1271 -0.0202 -0.1238
24600W        W67512  22.334  14.996   6.918  0.1506  0.0087  0.1818
24601W        W67513  25.917  17.488   8.968 -0.0283  0.0758  0.0071
24602W        W67514  23.711  13.882  10.011 -0.0893 -0.2662 -0.0678
24603W        W67515  22.719  15.337   9.695  0.1665 -0.0432 -0.0115
24604W        W67516  23.771  17.631   9.707 -0.1339  0.0317  0.0244
24605W        W67517  26.098  17.929   9.000  0.0488  0.1908 -0.0725
24606W        W67518  23.519  15.927   9.628  0.0014  0.0659  0.0649
24607W        W67519  21.933  17.521   7.387  0.0871  0.0509  0.2203
24608W        W67520  21.073  14.517   6.636  0.0723 -0.1469 -0.0599
24609W        W67521  23.117  16.791   9.047 -0.0805  0.2216 -0.1853
24610W        W67522  24.023  17.725   8.348  0.0374 -0.2346 -0.0880
24611W        W67523  25.658  20.284   9.097 -0.3209  0.4851 -0.0556
24612W        W67524  22.364  15.746   9.336 -0.1326 -0.1291 -0.0717
24613W        W67525  25.114  17.310   7.431  0.1076  0.3133 -0.0040
24614W        W67526  26.263  17.618   9.424  0.1337  0.2560 -0.2704
24615W        W67527  24.349  15.671   9.889  0.2289  0.1705 -0.1534
24616W        W67528  24.831  15.908   8.271  0.0196 -0.2281 -0.0995
24617W        W67529  24.096  17.879   8.909  0.0703  0.1093 -0.0862
24618W        W67530  23.675  16.030   9.182 -0.0052  0.2146  0.0200
24619W        W67531  23.401  16.521   8.717  0.3880 -0.0868  0.0318
24620W        W67532  24.275  17.929   6.308 -0.0031 -0.1655  0.1593
24621W        W67533  21.334  14.651   8.962  0.2222 -0.1295 -0.1320
24622W        W67534  24.537  17.209   8.008  0.1135 -0.0789 -0.0471
24623W        W67535  23.575  17.223   7.533  0.0748 -0.3784  0.0527
24624W        W67536  24.334  16.804   8.180  0.5565 -0.2027  0.1445
24625W        W67537  27.112  18.396   9.286 -0.1370 -0.1623  0.2328
24626W        W67538  24.021  17.241   7.409 -0.2980 -0.1224  0.2224
24627W        W67539  23.387  17.233   9.779  0.0637 -0.0546  0.1312
24628W        W67540  24.231  17.525   9.499 -0.1945 -0.0803 -0.1929
24629W        W67541  21.222  14.102   7.381 -0.0401 -0.1481 -0.0605
24630W        W67542  23.067  17.400   8.343 -0.1521  0.0755 -0.1568
24631W        W67543  22.946  16.464   8.306  0.0085 -0.0347 -0.2218
24632W        W67544  24.131  15.100   9.041  0.2238 -0.1876  0.0951
24633W        W67545  22.362  15.480   8.885 -0.0433 -0.0868  0.0370
24634W        W67546  23.535  15.136   8.357 -0.2338  0.1035  0.1166
24635W        W67547  25.274  19.643   9.451  0.0888 -0.0729  0.1002
24636W        W67548  22.788  17.930  10.537  0.3676  0.2631  0.0643
24637W        W67549  23.432  21.725   3.737 -0.0456  0.1010 -0.0540
24638W        W67550  22.452  19.843   0.870 -0.0287 -0.2130  0.1349
24639W        W67551  23.468  20.450  30.420  0.1179  0.3236  0.1597
24640W        W67552  24.241  20.915  31.403 -0.1979 -0.0406  0.0527
24641W        W67553  21.274  18.956   1.682 -0.2919 -0.2960 -0.0441
24642W        W67554  24.281  21.708   1.144  0.2060 -0.1689  0.1823
24643W        W67555  22.911  18.325   2.085  0.0643 -0.3202 -0.3478
24644W        W67556  23.850  20.999   2.653 -0.1366  0.1863 -0.0593
24645W        W67557  23.916  21.740   1.628 -0.2064  0.3433 -0.1285
24646W        W67558  22.248  20.725  31.098  0.1603 -0.0402  0.0829
24647W        W67559  24.061  21.103   3.101  0.0144 -0.0643 -0.3295
24648W        W67560  20.930  19.908   1.401 -0.1109 -0.1317 -0.3936
24649W        W67561  22.657  21.093   0.014  0.4781  0.0783 -0.0579
24650W        W67562  21.617  17.037   0.642 -0.1625  0.0293 -0.1085
24651W        W67563  24.565  20.163   2.721 -0.3806 -0.3266  0.0968
24652W        W67564  21.204  20.938  31.386 -0.1985  0.1285 -0.0302
24653W        W67565  22.299  19.210   1.859 -0.2089 -0.2195  0.0712
24654W        W67566  23.723  19.829   2.348  0.1734  0.0780  0.1450
24655W        W67567  23.621  22.226   0.308 -0.0368 -0.0196  0.0276
24656W        W67568  24.021  18.655   2.241 -0.1585 -0.1891 -0.2765
24657W        W67569  22.446  18.437   5.040 -0.1839  0.3038 -0.0253
24658W        W67570  23.682  20.159  30.889  0.2015  0.3102 -0.0361
24659W        W67571  21.100  19.283  29.938  0.0473  0.0168  0.1648
24660W        W67572  21.207  20.506   1.442 -0.1093 -0.1696  0.2287
24661W        W67573  21.731  19.748   2.435  0.1663  0.1759 -0.0612
24662W        W67574  22.484  19.901   3.091  0.1107 -0.0081  0.0397
24663W        W67575  23.594  19.483   1.947 -0.0196 -0.0002  0.0061
24664W        W67576  23.127  21.446   1.391  0.1678  0.1741  0.0401
24665W        W67577  24.091  20.317   2.620 -0.2393  0.3430 -0.0149
24666W        W67578  25.514  19.342   2.878 -0.1336  0.2510  0.1132
24667W        W67579  21.149  20.640   0.913  0.2724  0.0665  0.0675
24668W        W67580  20.906  22.384   0.825 -0.1937 -0.4219 -0.0044
24669W        W67581  23.995  22.129  31.282  0.1301 -0.0585  0.0699
24670W        W67582  23.497  20.473   1.567 -0.1887 -0.1022  0.0657
24671W        W67583  24.875  20.490   1.586 -0.2804 -0.1323  0.4283
24672W        W67584  22.881  22.495   3.835  0.1503  0.5760 -0.0906
24673W        W67585  22.328  21.347   0.399  0.1023  0.0393 -0.0193
24674W        W67586  23.897  21.487   3.881  0.1273 -0.0744  0.1825
24675W        W67587  24.488  20.953   3.715 -0.1445  0.0188 -0.2102
24676W        W67588  22.242  18.325   0.816  0.2395 -0.1249  0.1191
24677W        W67589  22.915  19.437   2.926  0.1533 -0.1213  0.0330
24678W        W67590  23.180  21.698  31.567 -0.1600 -0.0667  0.0472
24679W        W67591  23.008  19.926   3.051 -0.1699 -0.0576  0.1603
24680W        W67592  22.752  21.681   3.148  0.1486 -0.1723 -0.0716
24681W        W67593  21.892  20.184   2.347  0.0010 -0.1537  0.1299
24682W        W67594  23.844  19.061   1.989  0.2540  0.1831 -0.0246
24683W        W67595  22.995  20.783   1.558 -0.2772 -0.2475 -0.1202
24684W        W67596  24.272  19.327  31.676 -0.2304 -0.2743  0.1113
24685W        W67597  21.468  19.934  31.352  0.1061 -0.0394  0.3727
24686W        W67598  24.175  19.335   0.210 -0.1383 -0.0328 -0.1706
24687W        W67599  23.014  18.801   1.815  0.0426 -0.3473  0.1014
24688W        W67600  20.809  21.311   1.446 -0.0909  0.2909  0.1361
24689W        W67601  22.037  19.393   1.505 -0.0166  0.0527  0.1108
24690W        W67602  25.395  20.580   2.665  0.2753  0.1301  0.1422
24691W        W67603  23.829  22.658   0.488  0.1355 -0.1162  0.2429
24692W        W67604  23.409  19.873   0.350 -0.0144  0.3504 -0.0814
24693W        W67605  21.654  20.918   2.052 -0.1494 -0.1748 -0.2239
24694W        W67606  21.178  19.493   1.413  0.0028 -0.3285  0.0477
24695W        W67607  24.342  21.159   1.121  0.1040 -0.2649 -0.3025
24696W        W67608  24.391  20.655   1.054  0.2325  0.2940 -0.0183
24697W        W67609  23.750  20.841   0.549 -0.1057  0.0469  0.0345
24698W        W67610  20.956  20.587   0.363 -0.1925  0.1295  0.0538
24699W        W67611  21.767  19.566   2.853  0.3180  0.3405 -0.3290
24700W        W67612  22.082  19.427   3.231 -0.0285 -0.0213  0.1185
24701W        W67613  22.141  17.946  31.297  0.1099  0.3205 -0.1489
24702W        W67614  25.173  21.535   3.229 -0.2755 -0.2224 -0.0467
24703W        W67615  21.375  20.619   2.986  0.0402 -0.0360 -0.1359
24704W        W67616  23.863  20.314   1.866 -0.0444  0.1007 -0.0283
24705W        W67617  23.142  19.514   2.451 -0.3445 -0.1567 -0.0469
24706W        W67618  25.764  20.012   1.321 -0.1694  0.1353 -0.2143
24707W        W67619  23.181  20.536  30.839  0.1040  0.0765 -0.2563
24708W        W67620  23.680  18.588   1.701 -0.3340 -0.0926  0.0145
24709W        W67621  23.005  20.468   2.508  0.0412  0.0353  0.0690
24710W        W67622  21.614  20.046  31.832 -0.1833  0.1802  0.0665
24711W        W67623  22.825  20.634   0.365 -0.0797  0.1150 -0.1880
24712W        W67624  25.323  21.386   1.891 -0.0700 -0.0756  0.2560
24713W        W67625  23.100  19.904  31.726 -0.1385  0.1057 -0.0115
24714W        W67626  20.242  20.878   1.659  0.0087 -0.1841 -0.3781
24715W        W67627  24.034  18.380   2.704 -0.0159  0.1197  0.5125
24716W        W67628  22.649  21.852   4.448  0.1059  0.0195  0.1429
24717W        W67629  22.753  23.674  31.661  0.2332 -0.1854  0.0860
24718W        W67630  21.376  19.685   0.541 -0.1148  0.0750 -0.1912
24719W        W67631  22.727  20.150   0.544  0.1071  0.0642 -0.2723
24720W        W67632  22.406  18.148   2.589 -0.0885  0.1982 -0.1057
24721W        W67633  21.309  19.883   1.788  0.2527  0.1986 -0.0493
24722W        W67634  22.716  20.648  31.772 -0.2394 -0.0236 -0.1854
24723W        W67635  21.690  18.744   2.626  0.2351  0.3427  0.3687
24724W        W67636  23.797  18.223   2.086  0.1062  0.0420 -0.2799
24725W        W67637  20.690  21.527  31.763 -0.1168 -0.1579  0.1196
24726W        W67638  23.908  21.360   0.789  0.1551 -0.3442  0.1188
24727W        W67639  24.475  18.902   0.162 -0.1226 -0.1394 -0.0720
24728W        W67640  24.424  20.717  29.714  0.0701  0.0665  0.2635
24729W        W67641  22.521  20.265   2.413 -0.0218  0.1313 -0.1156
24730W        W67642  20.920  19.176  31.894  0.0501 -0.1726 -0.2253
24731W        W67643  22.957  18.759   2.416 -0.1996 -0.2478  0.1373
24732W        W67644  21.515  18.719   3.148 -0.1686 -0.0068 -0.1146
24733W        W67645  24.546  21.383   2.347  0.1218  0.1026 -0.0899
24734W        W67646  20.985  18.780   0.154 -0.1539  0.2102  0.2460
24735W        W67647  22.508  19.460   1.411 -0.1941 -0.0190 -0.1650
24736W        W67648  22.879  20.430   0.987  0.1774 -0.3785 -0.1064
24737W        W67649  20.982  20.142   0.599  0.0057 -0.2629 -0.0624
24738W        W67650  24.964  19.283   2.797  0.0403 -0.1520  0.0828
24739W        W67651  23.146  22.895   0.775 -0.1415 -0.1883 -0.1261
24740W        W67652  24.735  21.012   2.659  0.0513 -0.0007 -0.1499
24741W        W67653  24.760  22.443   1.482 -0.1815  0.1475 -0.2871
24742W        W67654  22.396  19.497   2.801  0.1281  0.0277  0.0170
24743W        W67655  23.396  17.996   1.307  0.2197 -0.0306 -0.2615
24744W        W67656  20.569  21.247   1.904 -0.1843  0.1024 -0.2836
24745W        W67657  21.963  19.527   2.066 -0.1984  0.1824  0.1906
24746W        W67658  21.214  17.857   0.850  0.1872 -0.3554  0.2522
24747W        W67659  26.504  21.562   0.124  0.0288  0.3086 -0.0721
24748W        W67660  23.027  22.020   1.477 -0.1534 -0.0792 -0.1696
24749W        W67661  22.898  20.946   2.500 -0.2378  0.2076 -0.0385
24750W        W67662  24.713  18.779   3.591  0.2498 -0.1276 -0.3052
24751W        W67663  25.148  19.687   1.324  0.1070 -0.3201  0.4273
24752W        W67664  22.938  19.975   2.111  0.0747 -0.1704  0.2542
24753W        W67665  22.463  17.897   0.464  0.1862  0.0987 -0.0853
24754W        W67666  23.939  20.611   2.260  0.0491 -0.5095  0.3907
24755W        W67667  21.951  20.732   0.003  0.0911  0.2137 -0.0070
24756W        W67668  20.883  20.035   2.316 -0.1094 -0.1029  0.2690
24757W        W67669  22.097  21.184   0.956 -0.0421 -0.1398  0.0221
24758W        W67670  23.424  18.592   2.151  0.3019  0.2836 -0.1748
24759W        W67671  22.021  20.443   4.509  0.0502 -0.0987 -0.2621
24760W        W67672  23.496  19.247   3.717 -0.4146 -0.1438 -0.1242
24761W        W67673  22.740  19.953  31.217 -0.0756 -0.1350  0.0584
24762W        W67674  22.621  21.231   2.197  0.0126 -0.1311  0.3664
24763W        W67675  23.540  18.981   0.367  0.2999  0.0845 -0.2305
24764W        W67676  24.543  18.855  31.571  0.0582  0.1391  0.0408
24765W        W67677  24.686  20.534   3.375  0.1511 -0.2117  0.1214
24766W        W67678  23.937  20.415   1.290 -0.4156 -0.1581  0.1659
24767W        W67679  22.248  20.951  31.661 -0.1905 -0.0818  0.4228
24768W        W67680  23.581  18.649  31.206  0.4821 -0.0248 -0.0842
24769W        W67681  21.931  20.023   3.110 -0.0100  0.0314 -0.2408
24770W        W67682  24.695  21.487   1.190  0.0677  0.2260  0.1124
24771W        W67683  23.919  19.849   1.882  0.0054 -0.1024 -0.0618
24772W        W67684  22.902  17.647  30.405 -0.0384  0.0374 -0.0686
24773W        W67685  25.999  21.442   1.527  0.0459  0.4350  0.2141
24774W        W67686  22.445  21.717   2.258 -0.1067 -0.0943 -0.1061
24775W        W67687  24.308  21.040   4.702 -0.1217  0.4122 -0.1406
24776W        W67688  23.510  21.294   2.494  0.0415  0.1221  0.1440
24777W        W67689  22.507  19.033   2.633  0.1712  0.0801 -0.1530
24778W        W67690  21.969  18.746  30.120  0.0894  0.1086 -0.2853
24779W        W67691  23.070  18.893   0.269 -0.0414 -0.0181  0.0049
24780W        W67692  22.449  22.566   0.935  0.1783  0.2409 -0.3905
24781W        W67693  24.999  18.580   1.960 -0.0803 -0.2307 -0.1053
24782W        W67694  23.226  19.094   2.745  0.3175 -0.0607  0.2124
24783W        W67695  23.677  18.711   2.642 -0.2141 -0.1859  0.0469
24784W        W67696  25.880  18.772   2.206 -0.1832  0.0189  0.0879
24785W        W67697  22.893  20.425  31.360  0.0867  0.2163  0.3631
24786W        W67698  24.338  20.223   3.179  0.1563  0.1037  0.2799
24787W        W67699  21.321  19.489  30.376  0.1043  0.0416 -0.2037
24788W        W67700  23.261  18.722   3.839  0.0264  0.0151 -0.0161
24789W        W67701  22.380  20.861   2.646 -0.1430 -0.0166  0.0795
24790W        W67702  21.592  22.608   2.849  0.1112  0.2741  0.0666
24791W        W67703  22.562  21.108   5.033 -0.1270 -0.1328  0.4237
24792W        W67704  24.385  20.374   1.503 -0.1639 -0.0291 -0.2032
24793W        W67705  24.623  18.338   3.885  0.3875 -0.0796 -0.2343
24794W        W67706  22.724  20.861  31.246 -0.1518  0.0411  0.0212
24795W        W67707  21.881  21.620   0.602 -0.1402 -0.2345 -0.2078
24796W        W67708  23.431  21.326   0.982 -0.0349  0.0018 -0.0161
24797W        W67709  23.366  17.933   2.086  0.0096 -0.1093  0.1833
24798W        W67710  24.249  19.852   2.546  0.2004 -0.1089  0.1302
24799W        W67711  22.184  21.699  31.453  0.0423  0.0888 -0.0246
24800W        W67712  24.963  20.733   3.846  0.2603 -0.0409  0.0127
24801W        W67713  22.460  20.921   0.708  0.1827 -0.0951 -0.0075
24802W        W67714  23.672  19.165   1.018 -0.0072  0.1921  0.2406
24803W        W67715  21.652  20.993   0.919 -0.0466  0.0265 -0.2372
24804W        W67716  21.402  18.942   0.889  0.1214  0.3389 -0.0857
24805W        W67717  21.212  18.613   0.543 -0.0260  0.0911 -0.2753
24806W        W67718  24.712  19.989   1.548  0.1807  0.1392  0.0215
24807W        W67719  24.261  21.717   0.051 -0.3243  0.1109 -0.0637
24808W        W67720  22.126  18.403   1.702  0.3408  0.1921  0.2245
24809W        W67721  23.279  19.401   0.572 -0.1172  0.0181 -0.1106
24810W        W67722  21.911  22.484   0.942 -0.1560  0.3170  0.2345
24811W        W67723  22.377  19.974   0.195 -0.2585  0.0741 -0.0637
24812W        W67724  23.870  19.439   0.630 -0.1110  0.1686 -0.0259
24813W        W67725  23.886  21.380   1.266  0.0992 -0.1714 -0.2340
24814W        W67726  23.240  19.421   3.313  0.0119 -0.0049  0.0905
24815W        W67727  20.415  19.105  30.309  0.1669  0.3169  0.0722
24816W        W67728  24.863  19.282   0.952  0.1837  0.5098 -0.1828
24817W        W67729  22.264  19.917   1.321 -0.0543  0.1883  0.0848
24818W        W67730  20.051  21.812   0.896 -0.0145  0.2397  0.2955
24819W        W67731  23.414  20.301   2.953 -0.0149 -0.2815 -0.1558
24820W        W67732  20.711  20.444  31.953  0.0560 -0.1773 -0.0171
24821W        W67733  22.271  20.346   0.840 -0.0350  0.3626  0.0811
24822W        W67734  22.384  18.681   2.220  0.0079  0.0339 -0.2398
24823W        W67735  23.843  19.978   2.959  0.1055 -0.0958 -0.3730
24824W        W67736  22.030  19.953   1.737 -0.1696  0.1051  0.2283
24825W        W67737  22.744  19.613   0.538 -0.2308 -0.1867 -0.2249
24826W        W67738  21.770  20.411   1.948  0.0592 -0.0855 -0.2172
24827W        W67739  24.193  19.903   1.419 -0.4301 -0.1905 -0.0729
24828W        W67740  24.331  19.064   2.195  0.0993  0.0890 -0.1498
24829W        W67741  23.124  21.294   2.798 -0.2348  0.2057  0.0028
24830W        W67742  24.035  18.571   3.133 -0.0688 -0.1387 -0.2812
24831W        W67743  25.717  22.025   0.651  0.2969 -0.0946 -0.1161
24832W        W67744  23.886  20.091   3.791 -0.2969  0.2018 -0.5311
24833W        W67745  21.848  21.348  31.361  0.1309  0.3124 -0.1751
24834W        W67746  21.580  19.238   3.128 -0.0537  0.2192  0.1307
24835W        W67747  22.869  20.316   1.482 -0.0081  0.2731 -0.1791
24836W        W67748  22.732  19.857   1.644 -0.0098  0.2672  0.1912
24837W        W67749  22.047  20.641   2.357  0.1978 -0.1968  0.0305
24838W        W67750  23.829  20.872   1.023  0.1273 -0.3949 -0.0321
24839W        W67751  20.807  20.341   3.073  0.2669 -0.0815  0.0109
24840W        W67752  24.794  19.071   0.510  0.2752  0.2791  0.0070
24841W        W67753  24.043  19.877  30.604  0.2673 -0.1338  0.1642
24842W        W67754  23.298  19.094   2.070 -0.1402 -0.0624 -0.0353
24843W        W67755  26.675  18.261   2.425 -0.0281 -0.1312  0.4670
24844W        W67756  23.727  21.004  31.937  0.1396 -0.1203 -0.1620
24845W        W67757  24.302  18.174   0.878 -0.1650 -0.0066  0.0473
24846W        W67758  23.525  17.434   2.093  0.0939  0.0524  0.0777
24847W        W67759  23.888  21.210   1.848 -0.1064 -0.3080  0.0083
24848W        W67760  21.376  17.261   1.935 -0.1222  0.1225 -0.1841
24849W        W67761  22.502  22.309   2.397  0.4214 -0.0959 -0.0353
24850W        W67762  22.201  20.434   2.871  0.0437  0.0529  0.0092
24851W        W67763  22.545  19.427   0.061  0.0904 -0.0819  0.0413
24852W        W67764  21.761  17.559  31.022  0.1816  0.0284  0.1909
24853W        W67765  22.387  19.815   2.070  0.2612  0.0380  0.0580
24854W        W67766  24.238  20.915   0.656 -0.0316  0.1392  0.0530
24855W        W67767  24.686  21.818   0.236  0.2809  0.2115 -0.0584
24856W        W67768  22.854  18.409   0.522 -0.0168 -0.0553  0.0393
24857W        W67769  21.808  20.805   2.884  0.0055 -0.4694  0.1255
24858W        W67770  23.777  19.496   1.420 -0.0953 -0.3074 -0.0043
24859W        W67771  24.237  21.713   0.538  0.0700  0.1745  0.1777
24860W        W67772  22.829  21.223   0.493 -0.1420 -0.3583  0.0745
24861W        W67773  22.718  19.077   2.153 -0.0352 -0.3113  0.0873
24862W        W67774  23.494  21.514   1.719 -0.0878 -0.0550  0.0309
24863W        W67775  23.432  19.985   1.989  0.0905  0.0226 -0.0995
24864W        W67776  25.133  19.136   1.888 -0.2488 -0.1040 -0.3378
24865W        W67777  23.653  19.095   3.027 -0.0883  0.0108  0.1814
24866W        W67778  23.279  20.636   3.850 -0.0920  0.0891  0.1975
24867W        W67779  21.872  17.930   1.342  0.3467 -0.1296 -0.0118
24868W        W67780  24.847  21.466   3.564 -0.1946  0.1675  0.0370
24869W        W67781  24.734  20.572   0.656 -0.1166 -0.0216 -0.3377
24870W        W67782  25.144  19.575   3.131 -0.0527  0.0627  0.0877
24871W        W67783  22.936  21.233  31.564 -0.1168  0.2264 -0.1000
24872W        W67784  23.809  20.133  31.453 -0.2379 -0.5214 -0.0808
24873W        W67785  21.112  19.502   2.996 -0.1616  0.3163  0.3064
24874W        W67786  25.341  18.747   1.522  0.4498  0.0264  0.1654
24875W        W67787  22.338  20.542   0.341  0.0657  0.2474  0.0649
24876W        W67788  24.362  19.778   3.023  0.2536  0.3127 -0.1281
24877W        W67789  24.002  21.207   0.310 -0.0309 -0.0689 -0.0565
24878W        W67790  22.524  20.702   1.280 -0.0727 -0.0158  0.1080
24879W        W67791  23.372  20.441  31.772 -0.4255 -0.2430  0.0300
24880W        W67792  22.356  18.530   1.326 -0.2199  0.1579  0.2652
24881W        W67793  22.553  22.368   2.928  0.0782  0.1852 -0.1790
24882W        W67794  21.465  18.504   0.053  0.0790 -0.1683  0.0547
24883W        W67795  21.897  20.146   1.094  0.2904  0.0885 -0.0022
24884W        W67796  22.421  20.291   1.861 -0.1625 -0.0610 -0.0187
24885W        W67797  23.475  21.171   3.691 -0.3173  0.0129  0.2827
24886W        W67798  22.895  19.209  31.759  0.2793  0.0898  0.0150
24887W        W67799  24.679  19.401   3.214  0.0255 -0.2294 -0.0041
24888W        W67800  21.374  20.084   0.268 -0.0236 -0.0334  0.0330
24889W        W67801  23.278  20.147   1.167  0.0571 -0.0209 -0.0136
24890W        W67802  21.594  20.234   1.510  0.1622 -0.1042 -0.0480
24891W        W67803  22.892  21.287   3.879  0.2471 -0.1653 -0.0774
24892W        W67804  21.205  21.276   0.846 -0.2109 -0.1926 -0.0176
24893W        W67805  23.898  19.005   3.493  0.1760  0.3410 -0.1090
24894W        W67806  25.454  19.746  31.783 -0.0033  0.0072 -0.1635
24895W        W67807  22.980  19.350   1.799 -0.1089 -0.1788  0.0469
24896W        W67808  25.298  19.438   2.250 -0.2240  0.1033  0.1443
24897W        W67809  23.867  20.325   3.374  0.2341  0.2926  0.1245
24898W        W67810  21.290  19.948   1.044  0.0248 -0.0913 -0.4548
24899W        W67811  23.851  21.510   2.810  0.0235  0.0892 -0.1052
24900W        W67812  24.563  20.882   0.267 -0.0724 -0.0783 -0.2541
24901W        W67813  21.815  19.922   0.550  0.0560  0.0713 -0.0349
24902W        W67814  20.031  18.601   1.402  0.0955  0.0121 -0.0419
24903W        W67815  22.671  20.360   2.864  0.0264  0.0314 -0.1224
24904W        W67816  24.309  20.241   2.179  0.0576 -0.0732  0.4218
24905W        W67817  22.710  20.144  31.818  0.0987 -0.0664  0.1056
24906W        W67818  21.983  21.052  30.865  0.0349 -0.0679 -0.1591
24907W        W67819  21.795  21.107   3.945 -0.0760  0.0560  0.0007
24908W        W67820  21.967  21.140   2.438 -0.0936  0.3339 -0.0021
24909W        W67821  21.406  22.353  31.062  0.1794  0.2502  0.1927
24910W        W67822  23.224  20.713   0.619 -0.2768  0.1000  0.0470
24911W        W67823  22.186  21.618   3.568  0.1314  0.2801  0.1915
24912W        W67824  21.864  18.789   0.408  0.4520 -0.0223  0.1716
24913W        W67825  21.125  22.024   0.588  0.0201 -0.2328  0.0208
24914W        W67826  21.112  20.787  30.454  0.2467 -0.1984  0.0988
24915W        W67827  24.483  21.350   0.360 -0.2142  0.1545 -0.0732
24916W        W67828  22.619  21.193   1.326  0.4010  0.0206  0.0550
24917W        W67829  24.839  20.191   2.009 -0.2850  0.0380 -0.3057
24918W        W67830  25.997  18.675   0.101 -0.0401 -0.2482  0.2409
24919W        W67831  24.460  20.175   0.385  0.0131 -0.0035 -0.0343
24920W        W67832  24.711  19.409   0.193 -0.3612 -0.1362  0.1493
24921W        W67833  24.035  20.589   4.459  0.2872 -0.1407 -0.0249
24922W        W67834  22.724  19.820   2.588 -0.1201 -0.0640 -0.1008
24923W        W67835  21.185  19.621  31.921 -0.1539  0.1313 -0.0734
24924W        W67836  22.633  20.703   3.289 -0.1190  0.2365  0.1384
24925W        W67837  25.112  17.129   3.455  0.1533 -0.0500  0.0457
24926W        W67838  21.757  21.278   2.887  0.2753 -0.1453 -0.3245
24927W        W67839  25.649  20.815   0.604 -0.0449 -0.2187 -0.0971
24928W        W67840  21.716  19.310   0.590  0.1472  0.3359  0.1138
24929W        W67841  22.208  20.405   1.454  0.0021  0.0639  0.0132
24930W        W67842  25.953  16.772   1.068 -0.2881  0.0474  0.2542
24931W        W67843  23.884  20.032   0.985  0.1070  0.1278 -0.0533
24932W        W67844  24.781  18.792   1.533 -0.2603 -0.2126  0.1229
24933W        W67845  23.455  23.137  31.812 -0.1195  0.2448  0.0487
24934W        W67846  21.203  21.160   1.801  0.1894 -0.0589 -0.0341
24935W        W67847  23.433  20.746   2.658 -0.3105 -0.0501 -0.1354
24936W        W67848  20.599  17.802  31.233  0.2096  0.2690 -0.1600
24937W        W67849  26.185  19.170   0.275  0.0287  0.0444 -0.0851
24938W        W67850  23.100  20.955   3.450 -0.0649  0.1874  0.0627
24939W        W67851  24.470  18.654   2.625 -0.1362 -0.0990  0.0960
24940W        W67852  23.308  19.472  31.739 -0.0226  0.1014  0.2121
24941W        W67853  25.097  20.133   0.643 -0.3653 -0.1511  0.0970
24942W        W67854  23.597  20.725   3.483 -0.0403 -0.1495  0.3191
24943W        W67855  23.125  20.450   3.333  0.2170  0.2077  0.1535
24944W        W67856  23.083  20.215   0.212 -0.2459  0.1919  0.0865
24945W        W67857  24.535  21.046   3.206  0.1467  0.1630  0.2040
24946W        W67858  21.872  20.248   0.192  0.1094  0.1329 -0.0841
24947W        W67859  23.198  22.419   2.639 -0.4399 -0.1489 -0.3113
24948W        W67860  22.300  19.004   1.323  0.3959 -0.0189  0.4919
24949W        W67861  22.682  19.302   0.958 -0.2165  0.1591 -0.2130
24950W        W67862  21.474  20.350   0.674 -0.1799 -0.2481 -0.4656
24951W        W67863  22.640  18.943   3.552 -0.0705 -0.5236  0.0254
24952W        W67864  24.205  21.078   4.080  0.1696 -0.2914 -0.2011
24953W        W67865  22.443  19.137   0.507  0.1275  0.0176  0.2689
24954W        W67866  25.422  22.325  31.728 -0.2250  0.1835  0.2017
24955W        W67867  23.898  19.036   1.485 -0.1132  0.2271  0.0538
24956W        W67868  21.713  23.171  31.561 -0.2304  0.1081 -0.1636
24957W        W67869  24.327  19.766   0.111 -0.1721  0.0478  0.0190
24958W        W67870  24.188  22.516   1.497 -0.1236 -0.2442  0.1291
24959W        W67871  21.390  19.228   2.560 -0.0158 -0.0398 -0.1107
24960W        W67872  23.432  21.058   1.510  0.3033 -0.0300  0.4123
24961W        W67873  25.295  20.180   1.243 -0.1032  0.0217 -0.0228
24962W        W67874  23.686  16.712   0.481  0.1127  0.0942  0.0269
24963W        W67875  22.548  18.800   0.894 -0.0571 -0.1187  0.1504
24964W        W67876  19.509  21.549   1.716  0.4280  0.1790 -0.2689
24965W        W67877  24.627  19.254   1.890  0.0849  0.1093  0.2672
24966W        W67878  24.824  19.771   2.705  0.3187  0.1771  0.1532
24967W        W67879  22.840  21.896  31.951  0.0016 -0.2051 -0.3679
24968W        W67880  26.099  19.157   2.891  0.2794 -0.1091 -0.2471
24969W        W67881  23.802  21.480   3.403 -0.0566  0.0658  0.3539
24970W        W67882  23.152  20.025   2.569  0.1825  0.0776  0.1777
24971W        W67883  21.049  18.917   1.226 -0.1257  0.1279 -0.3990
24972W        W67884  22.807  19.416   4.678  0.1399 -0.0529  0.1475
24973W        W67885  24.024  22.311   1.981 -0.0771 -0.3233  0.0934
24974W        W67886  22.267  22.949  31.688 -0.0664  0.1464 -0.0600
24975W        W67887  24.816  21.007   2.122 -0.2269 -0.1341 -0.0261
24976W        W67888  23.922  20.549  31.752  0.1665  0.1939 -0.2706
24977W        W67889  24.479  19.375   2.735  0.1185  0.2082 -0.2069
24978W        W67890  23.457  18.230   2.587  0.0328  0.1231  0.1399
24979W        W67891  23.948  18.452   1.208 -0.0100  0.2760 -0.0017
24980W        W67892  24.414  19.134   1.258  0.0537 -0.0484 -0.0211
24981W        W67893  23.235  20.163   3.853  0.0770 -0.1134 -0.0343
24982W        W67894  21.881  18.389   1.113  0.2270 -0.2723 -0.0201
24983W        W67895  21.597  19.916  30.865 -0.0930  0.0593  0.0194
24984W        W67896  22.123  21.071   1.438  0.2408 -0.0610  0.1400
24985W        W67897  24.110  18.429   4.145  0.1918 -0.0482 -0.1217
24986W        W67898  21.902  19.062   2.210 -0.0306 -0.3541  0.0595
24987W        W67899  22.613  20.665   2.132 -0.1218 -0.4180  0.0174
24988W        W67900  23.296  19.646   1.439  0.0254  0.0036 -0.1591
24989W        W67901  25.477  21.718   0.358  0.0116 -0.2230  0.0738
24990W        W67902  20.280  18.080   1.425  0.0694 -0.0110 -0.3563
24991W        W67903  21.352  18.099   1.285  0.0790 -0.0717 -0.2331
24992W        W67904  24.142  22.186   0.158  0.3695 -0.1030 -0.0446
24993W        W67905  24.025  20.753   1.647 -0.3063 -0.0135  0.3018
24994W        W67906  21.607  20.532   1.134  0.0187 -0.2219  0.1370
24995W        W67907  23.715  20.927   4.079  0.1826  0.1104 -0.1056
24996W        W67908  21.043  19.494  30.800 -0.4590  0.0168 -0.0764
24997W        W67909  23.456  19.697   2.909 -0.3294  0.1018  0.0016
24998W        W67910  23.264  18.618   2.900 -0.1159  0.0491  0.1094
24999W        W67911  20.264  17.478  30.770 -0.3695  0.1790  0.0613
25000W        W67912  23.944  19.918   0.492  0.1954  0.4965  0.1599
25001W        W67913  23.720  21.703   0.354 -0.0055 -0.2905 -0.1778
25002W        W67914  23.948  21.405  30.717  0.0252  0.1839  0.0656
25003W        W67915  23.515  20.925   2.091 -0.1192 -0.0874  0.1461
25004W        W67916  24.276  21.417   3.500 -0.1584  0.0434  0.1062
25005W        W67917  22.396  17.919   1.433  0.0027 -0.2665  0.0621
25006W        W67918  23.671  20.944  31.445 -0.0395  0.2593 -0.0774
25007W        W67919  22.726  20.617   3.759 -0.1174 -0.0395 -0.0358
25008W        W67920  24.285  20.228  31.930  0.2961 -0.2124 -0.0299
25009W        W67921  24.330  19.168   0.759  0.0848  0.2593  0.1899
25010W        W67922  24.544  20.588   1.944 -0.0782  0.1569 -0.2206
25011W        W67923  22.231  18.099   3.077 -0.1661 -0.1709  0.1216
25012W        W67924  21.412  19.660   3.840  0.1091  0.0261 -0.0204
25013W        W67925  25.774  21.017   2.260  0.1769  0.1944 -0.0782
25014W        W67926  23.090  18.388   1.204  0.1424  0.1288  0.0780
25015W        W67927  23.063  19.454  31.325 -0.2071  0.0383  0.1138
25016W        W67928  24.790  21.641   0.681 -0.1956  0.0650  0.0959
25017W        W67929  21.992  19.091   2.825 -0.1872 -0.3384 -0.1386
25018W        W67930  22.149  19.842  31.699 -0.0617  0.2076 -0.2772
25019W        W67931  23.418  19.951   3.337  0.1309 -0.0945  0.0527
25020W        W67932  24.369  20.721   2.845 -0.0881 -0.0719  0.2916
25021W        W67933  24.734  19.531   2.286  0.2844  0.2081 -0.0904
25022W        W67934  21.643  19.704   1.465 -0.0768 -0.3084 -0.1289
25023W        W67935  25.434  19.866   0.902  0.3201 -0.0398  0.0923
25024W        W67936  24.066  22.223   3.093 -0.0100 -0.0494 -0.1100
25025W        W67937  24.216  20.698   3.340  0.2905  0.1035  0.1367
25026W        W67938  23.115  20.441   1.998  0.2851  0.0748 -0.1912
25027W        W67939  24.734  21.087   0.849 -0.1201  0.1525 -0.1912
25028W        W67940  22.839  18.909   1.329  0.1106 -0.2129 -0.1255
25029W        W67941  22.845  19.731   1.162  0.0319  0.0264  0.0226
25030W        W67942  23.658  20.022   1.452  0.2435  0.1341 -0.0108
25031W        W67943  24.047  19.466   2.191  0.3223 -0.1242 -0.1479
25032W        W67944  22.283  18.533   0.367  0.0817 -0.0693  0.1958
25033W        W67945  23.016  19.605   0.149  0.1967  0.1224  0.3018
25034W        W67946  23.473  21.670   3.099  0.1451  0.2282  0.1229
25035W        W67947  24.156  19.635   0.992  0.0411 -0.1944  0.0507
25036W        W67948  23.694  19.504   5.940 -0.2771  0.0507  0.1165
25037W        W67949  23.069  18.159   4.049 -0.0127  0.2323  0.1987
25038W        W67950  24.550  18.337   3.214 -0.3655  0.0229  0.3536
25039W        W67951  25.872  19.434   4.313  0.1717  0.1019  0.1416
25040W        W67952  23.125  19.116   5.426  0.1051  0.1511  0.0138
25041W        W67953  22.457  21.242   6.313  0.2646  0.0259  0.0176
25042W        W67954  23.077  18.036   7.133 -0.1268  0.0592 -0.2211
25043W        W67955  25.267  21.952   4.732  0.0422  0.1016 -0.0035
25044W        W67956  24.620  21.420   5.992 -0.0812 -0.2204  0.1883
25045W        W67957  24.840  18.957   4.074  0.2846 -0.0984  0.0543
25046W        W67958  23.910  19.851   6.190  0.1473  0.2845 -0.3157
25047W        W67959  22.576  20.798   5.850  0.0737  0.0970 -0.1295
25048W        W67960  22.858  18.125   5.073 -0.1014 -0.2090 -0.0142
25049W        W67961  23.658  18.540   6.006 -0.0407  0.2672 -0.1924
25050W        W67962  24.167  19.477   6.549 -0.1519 -0.0723 -0.2421
25051W        W67963  22.656  18.315   5.490 -0.2535  0.0248  0.1401
25052W        W67964  21.750  19.006   7.147 -0.0059  0.0399 -0.0323
25053W        W67965  23.779  18.812   3.955 -0.1573 -0.1110  0.0031
25054W        W67966  22.844  20.716   5.115  0.2879 -0.1723  0.3286
25055W        W67967  23.052  19.064   5.887  0.1464  0.1200  0.0488
25056W        W67968  26.033  18.337   7.531 -0.1136 -0.0236 -0.0364
25057W        W67969  22.780  20.382   4.750  0.0377 -0.1907  0.1233
25058W        W67970  21.128  20.025   3.673  0.2568  0.0397 -0.1859
25059W        W67971  22.689  19.339   5.694  0.1081  0.0570 -0.3050
25060W        W67972  22.758  19.307   6.268 -0.1083 -0.0632  0.2180
25061W        W67973  25.681  19.505   4.787  0.0196  0.1363  0.3711
25062W        W67974  23.640  21.794   5.666  0.0038 -0.4839  0.2663
25063W        W67975  22.921  20.488   6.789 -0.0953  0.1537 -0.1152
25064W        W67976  24.203  20.919   5.131 -0.3053  0.1887  0.1754
25065W        W67977  24.117  18.516   6.213 -0.1179 -0.2632 -0.1664
25066W        W67978  21.520  19.166   4.992 -0.0270  0.3001  0.6380
25067W        W67979  21.843  20.333   4.978  0.1265  0.0262  0.0920
25068W        W67980  23.456  20.749   4.618 -0.0011 -0.0131  0.0129
25069W        W67981  25.354  20.758   4.201  0.1859 -0.1658 -0.2287
25070W        W67982  24.226  19.731   6.962  0.2380 -0.0086  0.0480
25071W        W67983  23.597  20.981   7.639  0.0147  0.0173 -0.1505
25072W        W67984  23.026  20.775   2.931 -0.1132  0.1049  0.0238
25073W        W67985  22.365  22.069   6.738  0.1376 -0.1033 -0.0400
25074W        W67986  23.464  20.516   5.946  0.0872  0.0422 -0.1669
25075W        W67987  24.010  19.578   5.114 -0.0820 -0.0974 -0.0364
25076W        W67988  23.342  19.433   5.001 -0.1277 -0.1770  0.0726
25077W        W67989  23.503  21.067   3.095  0.1200 -0.2337  0.0721
25078W        W67990  22.304  19.403   4.841 -0.0274 -0.1205 -0.1820
25079W        W67991  22.026  20.551   8.048  0.0360  0.0742  0.1493
25080W        W67992  21.466  20.618   5.794 -0.0686  0.4060 -0.0687
25081W        W67993  25.480  19.792   7.305 -0.4516 -0.0369  0.1628
25082W        W67994  22.154  20.326   3.560  0.1631  0.4058 -0.3102
25083W        W67995  25.223  18.956   3.716  0.0466  0.0563 -0.1371
25084W        W67996  22.386  19.050   3.137  0.2367  0.2548  0.1662
25085W        W67997  24.222  19.097   4.141 -0.1126  0.0628 -0.1652
25086W        W67998  23.632  18.515   4.676 -0.0740  0.1394  0.0200
25087W        W67999  22.448  20.326   5.797 -0.0058 -0.1182 -0.3147
25088W        W68000  24.950  18.844   5.945 -0.0617  0.0146 -0.2429
25089W        W68001  23.864  21.012   7.168 -0.4817 -0.0588 -0.1131
25090W        W68002  24.078  18.720   4.533 -0.1517 -0.3408 -0.1827
25091W        W68003  24.422  18.765   5.910  0.0749  0.3688  0.1159
25092W        W68004  22.746  19.937   5.604  0.3268  0.1767 -0.0957
25093W        W68005  22.994  18.591   4.226  0.0016 -0.1145 -0.1796
25094W        W68006  24.834  20.163   4.874  0.4165 -0.1837 -0.0577
25095W        W68007  24.395  20.477   4.871 -0.2411  0.1078 -0.1236
25096W        W68008  22.942  22.038   2.805 -0.2422 -0.1473 -0.2695
25097W        W68009  22.092  19.006   4.720 -0.2868 -0.1311  0.0011
25098W        W68010  22.901  20.329   7.810 -0.0164  0.1149  0.3098
25099W        W68011  22.244  19.293   6.411  0.1084  0.1099 -0.0149
25100W        W68012  21.861  17.758   2.951 -0.0210  0.2864  0.1251
25101W        W68013  25.027  20.483   6.846  0.0478  0.1439  0.0656
25102W        W68014  21.077  20.990   5.074  0.0381  0.2160  0.0602
25103W        W68015  25.723  19.167   3.795 -0.2012  0.2067  0.2119
25104W        W68016  23.575  19.490   5.464  0.3202 -0.2966  0.1112
25105W        W68017  24.634  20.313   5.295 -0.1202 -0.5496 -0.3983
25106W        W68018  24.334  19.793   3.942 -0.1417  0.0570 -0.0772
25107W        W68019  24.787  19.738   5.291  0.0646 -0.2105  0.2408
25108W        W68020  23.579  18.147   5.672  0.1947  0.2046  0.2386
25109W        W68021  22.193  20.128   4.037 -0.2785  0.1862  0.0565
25110W        W68022  23.818  20.618   2.967  0.1022  0.2934  0.0904
25111W        W68023  24.838  19.745   6.260 -0.2092 -0.1751  0.1959
25112W        W68024  24.665  19.388   4.101  0.0182 -0.1402 -0.0950
25113W        W68025  21.503  20.641   5.114  0.1206 -0.2092 -0.0831
25114W        W68026  23.308  18.188   7.625 -0.0764 -0.0859  0.2260
25115W        W68027  22.629  20.934   6.967 -0.0316 -0.2329 -0.3505
25116W        W68028  23.054  21.430   2.279  0.1397  0.2890 -0.6622
25117W        W68029  21.472  20.405   6.285 -0.1922  0.2828  0.2588
25118W        W68030  21.817  19.462   4.709 -0.1136  0.1963  0.0149
25119W        W68031  23.573  18.027   7.077  0.0215 -0.0310 -0.0854
25120W        W68032  22.458  20.238   6.651  0.0097 -0.1134  0.2005
25121W        W68033  24.966  18.908   4.630  0.0886  0.2298 -0.1882
25122W        W68034  22.279  18.546   5.889  0.3805  0.2566 -0.2841
25123W        W68035  24.794  18.974   5.392  0.1208 -0.0653  0.3809
25124W        W68036  21.893  19.971   4.576 -0.2185 -0.3818  0.2859
25125W        W68037  25.158  22.524   3.606  0.3773 -0.0589  0.5398
25126W        W68038  25.900  19.658   2.742 -0.0013 -0.0340  0.2158
25127W        W68039  25.009  20.937   3.329 -0.1779 -0.3526  0.0433
25128W        W68040  23.769  19.278   7.657 -0.0175 -0.0052  0.0129
25129W        W68041  21.418  18.305   2.882  0.0412  0.0760 -0.2906
25130W        W68042  23.320  18.244   6.691 -0.1586 -0.0890 -0.0592
25131W        W68043  22.654  18.936   6.613  0.2635 -0.0290  0.0635
25132W        W68044  24.027  19.027   5.662 -0.0025 -0.3518 -0.0825
25133W        W68045  22.856  18.009   3.574  0.0685  0.0766 -0.1027
25134W        W68046  24.517  18.727   4.868 -0.4374  0.1888 -0.1161
25135W        W68047  23.308  19.385   4.460 -0.2572  0.0719  0.2731
25136W        W68048  21.904  18.865   4.012  0.2466 -0.2113  0.1502
25137W        W68049  25.995  19.245   7.954  0.1599  0.0768  0.1019
25138W        W68050  23.482  21.562   4.938 -0.2489 -0.0134 -0.0353
25139W        W68051  24.901  22.293   6.365  0.0023 -0.0719  0.1647
25140W        W68052  23.701  21.820   4.632 -0.0755  0.2020  0.0537
25141W        W68053  23.102  18.708   7.573  0.1680  0.0151  0.2140
25142W        W68054  22.506  18.255   4.094 -0.2208 -0.2459 -0.0830
25143W        W68055  22.387  20.687   5.396  0.2453  0.0579 -0.0140
25144W        W68056  21.635  20.762   4.237  0.1774 -0.0901 -0.2470
25145W        W68057  22.203  17.678   5.522 -0.0770 -0.0825  0.1092
25146W        W68058  25.630  20.661   6.238 -0.0414  0.3518  0.0864
25147W        W68059  24.159  19.819   3.473  0.2124  0.4437 -0.1171
25148W        W68060  22.204  20.712   6.735 -0.1940  0.0653  0.1169
25149W        W68061  25.542  18.723   7.031  0.1764  0.0398  0.1761
25150W        W68062  24.700  18.719   8.443 -0.0103 -0.0591 -0.1961
25151W        W68063  24.443  19.619   4.913 -0.0007  0.0442  0.1552
25152W        W68064  22.798  18.506   3.732  0.1249  0.1849 -0.1194
25153W        W68065  23.244  21.422   5.410 -0.0807 -0.0631  0.0374
25154W        W68066  22.135  21.003   4.326 -0.5199 -0.1005 -0.0429
25155W        W68067  22.034  18.170   4.189 -0.1163  0.5558  0.1839
25156W        W68068  22.943  20.024   6.466 -0.2066  0.0306  0.0997
25157W        W68069  25.478  19.310   7.137  0.1615  0.0660  0.1396
25158W        W68070  20.712  20.113   8.073  0.0067  0.0731  0.1576
25159W        W68071  24.479  19.257   7.260 -0.2663  0.1490 -0.3098
25160W        W68072  22.681  20.138   3.425  0.2868 -0.1255  0.1914
25161W        W68073  21.726  20.480   6.936 -0.0737  0.2720 -0.2973
25162W        W68074  23.695  19.010   4.742 -0.1471 -0.0293  0.2811
25163W        W68075  25.583  18.703   3.905 -0.1089 -0.0492 -0.0065
25164W        W68076  23.034  20.895   7.703 -0.1723 -0.3374 -0.2607
25165W        W68077  24.799  19.742   4.584 -0.0268 -0.3931  0.1310
25166W        W68078  23.421  18.100   3.649 -0.2365 -0.1027 -0.2723
25167W        W68079  23.415  19.875   4.302 -0.0950  0.1818  0.2309
25168W        W68080  21.849  20.397   7.462 -0.0457 -0.2218  0.0003
25169W        W68081  23.412  19.961   6.205  0.0831  0.1182 -0.0842
25170W        W68082  23.594  20.029   5.744 -0.0988 -0.1503 -0.2350
25171W        W68083  24.211  18.137   3.631 -0.2558  0.3404  0.0786
25172W        W68084  24.856  22.328   4.503  0.1588  0.0185 -0.0504
25173W        W68085  21.822  19.255   5.793  0.0022 -0.1754 -0.2210
25174W        W68086  24.708  20.146   7.700 -0.1349 -0.1188 -0.0768
25175W        W68087  24.063  20.730   6.070  0.1141 -0.0311  0.0180
25176W        W68088  24.005  18.136   7.311 -0.1035 -0.2368 -0.2814
25177W        W68089  23.000  19.007   3.217  0.1597 -0.1056  0.0169
25178W        W68090  23.064  19.051   4.847 -0.0057 -0.0201 -0.0915
25179W        W68091  22.223  20.655   3.996  0.1073  0.1161  0.3048
25180W        W68092  23.713  19.662   6.595  0.0406 -0.2033  0.1471
25181W        W68093  24.730  19.248   4.987  0.0589  0.1595  0.2335
25182W        W68094  22.855  17.951   6.665 -0.0684 -0.5293  0.2292
25183W        W68095  25.408  20.790   6.996  0.2734  0.2414  0.2196
25184W        W68096  24.308  19.948   5.247  0.3421  0.1424  0.2571
25185W        W68097  24.054  19.742   5.631 -0.0911 -0.0599 -0.0486
25186W        W68098  22.284  19.199   3.815 -0.0237 -0.0567  0.1791
25187W        W68099  23.765  18.107   6.278 -0.2317  0.1511  0.0001
25188W        W68100  22.041  20.126   6.923  0.1115  0.3034  0.1284
25189W        W68101  21.819  22.242   6.121 -0.0820 -0.1041  0.0984
25190W        W68102  24.281  20.341   6.226 -0.1460 -0.2545 -0.0726
25191W        W68103  23.770  19.508   4.630 -0.1705 -0.0975 -0.1589
25192W        W68104  23.959  18.950   7.306 -0.3517  0.0328 -0.0231
25193W        W68105  23.145  17.681   3.846 -0.0876 -0.0105 -0.1628
25194W        W68106  22.175  20.103   5.391  0.2620  0.1133  0.2688
25195W        W68107  23.166  20.986   4.197 -0.0795  0.0465  0.2398
25196W        W68108  23.143  19.042   6.621  0.1923 -0.3239  0.1217
25197W        W68109  23.547  20.887   6.283  0.1670  0.0756 -0.3097
25198W        W68110  23.791  19.515   3.296  0.0332 -0.2199  0.0945
25199W        W68111  24.188  18.906   6.635  0.0267 -0.0322 -0.1481
25200W        W68112  22.997  20.476   4.274  0.2866  0.1854 -0.1320
25201W        W68113  25.266  19.269   5.799 -0.1958 -0.0314 -0.0981
25202W        W68114  21.720  19.313   4.163 -0.1668  0.1773 -0.2465
25203W        W68115  21.544  19.318   1.936 -0.0819  0.0887 -0.0265
25204W        W68116  22.699  20.166   3.917 -0.1378 -0.1122  0.5500
25205W        W68117  23.963  18.076   5.303  0.1833  0.1845 -0.1432
25206W        W68118  23.845  21.305   4.455 -0.2185 -0.2722  0.0080
25207W        W68119  23.863  18.249   7.921  0.0266 -0.1459  0.2337
25208W        W68120  23.113  18.132   5.506 -0.0199  0.2038 -0.0794
25209W        W68121  19.899  20.669   5.711 -0.2671  0.3831  0.1827
25210W        W68122  23.291  20.393   6.476 -0.2019  0.1566  0.2111
25211W        W68123  24.556  19.103   4.510 -0.2050  0.2743  0.0304
25212W        W68124  24.747  20.237   6.350  0.0161  0.0558 -0.0512
25213W        W68125  23.043  20.558   8.299  0.0923 -0.1399 -0.1379
25214W        W68126  22.220  18.681   2.684  0.0403  0.1040 -0.1359
25215W        W68127  25.396  18.661   6.009  0.1521 -0.1359  0.0711
25216W        W68128  25.304  18.906   5.482  0.0972 -0.0638  0.0119
25217W        W68129  21.503  19.930   4.873 -0.1296 -0.0749  0.0928
25218W        W68130  24.477  20.315   6.875  0.0865 -0.1542  0.1568
25219W        W68131  23.860  19.751   4.169 -0.0705 -0.0802 -0.0271
25220W        W68132  21.621  18.966   4.551 -0.1513  0.0672  0.0442
25221W        W68133  23.425  19.579   7.401  0.2169 -0.0307  0.2740
25222W        W68134  24.606  19.764   7.334 -0.0808  0.0273 -0.1391
25223W        W68135  24.416  19.398   5.453  0.2240 -0.1241  0.1958
25224W        W68136  22.410  19.856   4.417  0.2783  0.1780  0.1592
25225W        W68137  23.499  19.853   4.894  0.1021  0.2200  0.2198
25226W        W68138  23.822  20.310   7.673  0.1712 -0.0189  0.2848
25227W        W68139  25.642  19.301   5.303  0.0944 -0.0010  0.0082
25228W        W68140  21.799  20.956   8.241  0.3385  0.4337  0.0131
25229W        W68141  23.707  17.019   4.599  0.1548 -0.2847 -0.1426
25230W        W68142  24.681  21.232   4.213  0.0598  0.0504  0.0627
25231W        W68143  24.391  19.897   6.430  0.0185  0.2064 -0.0508
25232W        W68144  23.026  19.821   4.970  0.0574 -0.3165 -0.0961
25233W        W68145  21.950  19.329   6.837 -0.2661  0.3106  0.1274
25234W        W68146  21.956  19.800   5.060 -0.3045 -0.2054 -0.2282
25235W        W68147  24.038  20.246   5.809 -0.0018  0.1303 -0.2973
25236W        W68148  22.316  20.488   7.149  0.3009  0.3762 -0.2881
25237W        W68149  21.397  18.788   4.129 -0.2416  0.2012  0.1820
25238W        W68150  21.242  20.720   6.687  0.1404 -0.1949  0.3264
25239W        W68151  24.453  19.196   3.678  0.2840  0.0549  0.2273
25240W        W68152  24.169  20.163   4.231 -0.4457  0.0535  0.1027
25241W        W68153  24.280  18.297   4.748  0.1474 -0.1656  0.2438
25242W        W68154  25.128  18.353   8.561  0.1844 -0.1135  0.0035
25243W        W68155  24.184  19.238   3.163  0.1440 -0.2589  0.1327
25244W        W68156  24.896  19.350   8.485  0.3392  0.0033  0.2037
25245W        W68157  22.463  17.877   6.972 -0.2862 -0.1989  0.2068
25246W        W68158  24.924  20.713   4.546 -0.0115 -0.0097 -0.2951
25247W        W68159  22.623  17.804   6.226 -0.1287 -0.1410  0.0366
25248W        W68160  24.649  21.345   7.009 -0.0721 -0.0693  0.1575
25249W        W68161  22.292  21.074   8.131 -0.2001 -0.0120  0.0400
25250W        W68162  25.803  18.072   5.243  0.1584  0.2076 -0.0536
25251W        W68163  22.527  17.483   4.439  0.0928 -0.1774  0.1660
25252W        W68164  22.296  17.905   4.615  0.1085 -0.2292  0.0047
25253W        W68165  23.799  20.046   5.208 -0.3490 -0.2453  0.0222
25254W        W68166  24.269  20.014   4.709 -0.0346  0.3047  0.1328
25255W        W68167  26.034  18.463   4.912 -0.4665  0.0144  0.1020
25256W        W68168  22.701  19.803   6.047 -0.0753 -0.3008  0.0219
25257W        W68169  25.805  18.968   4.664 -0.1375 -0.0017 -0.0663
25258W        W68170  24.066  20.547   5.422 -0.1386 -0.0874 -0.0436
25259W        W68171  22.611  19.451   3.349 -0.1033  0.4339 -0.1501
25260W        W68172  23.133  17.424   6.867 -0.1814  0.1212 -0.0621
25261W        W68173  25.812  20.496   5.735 -0.4842  0.0443 -0.2634
25262W        W68174  23.832  18.049   4.412 -0.2817 -0.0885 -0.0299
25263W        W68175  24.470  17.995   7.087  0.1956  0.2502  0.3657
25264W        W68176  23.784  19.851   7.170  0.2196 -0.2547  0.0237
25265W        W68177  23.677  19.142   6.673 -0.0884 -0.2704 -0.1539
25266W        W68178  23.231  18.961   7.994  0.1126  0.1286  0.1008
25267W        W68179  25.683  21.143   7.247  0.0317 -0.0206  0.2886
25268W        W68180  24.375  17.924   5.049 -0.0904  0.0868 -0.0985
25269W        W68181  27.171  19.021   5.706  0.2477 -0.4043 -0.2989
25270W        W68182  25.334  20.077   4.845  0.1178 -0.2753 -0.1126
25271W        W68183  24.092  19.003   2.592 -0.1258  0.0795  0.0473
25272W        W68184  23.251  19.512   6.936  0.3306 -0.0348 -0.1132
25273W        W68185  24.269  19.969   7.879  0.3048 -0.2807 -0.0792
25274W        W68186  23.112  18.343   3.276 -0.1494  0.0778  0.0950
25275W        W68187  24.533  19.137   6.272 -0.0967 -0.0903  0.2056
25276W        W68188  21.780  21.619   3.901 -0.1130 -0.0503 -0.1220
25277W        W68189  25.388  21.298   5.927  0.0557  0.0777  0.0415
25278W        W68190  24.302  19.519   4.434  0.1265 -0.1462 -0.0384
25279W        W68191  22.055  18.219   5.517  0.0134  0.1730  0.1633
25280W        W68192  22.714  20.838   6.525 -0.2063 -0.1909 -0.0198
25281W        W68193  21.076  17.803   2.072 -0.1303  0.0093 -0.2043
25282W        W68194  22.194  19.866   2.583 -0.0622  0.1442 -0.2884
25283W        W68195  23.251  20.879   6.638  0.2623  0.0424  0.2081
25284W        W68196  26.461  20.323   6.323 -0.0860  0.1104  0.0087
25285W        W68197  24.196  17.620   5.367  0.0953  0.1207 -0.1336
25286W        W68198  23.826  18.497   7.074 -0.1446 -0.2784  0.2400
25287W        W68199  22.724  21.132   3.089  0.0885  0.0705 -0.1682
25288W        W68200  23.422  18.787   5.095  0.3856 -0.1523  0.0471
25289W        W68201  22.043  21.181   6.588 -0.1799  0.0003  0.0878
25290W        W68202  21.709  20.844   6.490 -0.3096  0.3651  0.1892
25291W        W68203  22.407  20.757   4.711 -0.1473 -0.3088  0.0716
25292W        W68204  23.695  18.623   5.489 -0.0980  0.1253  0.3993
25293W        W68205  24.278  18.749   5.397 -0.5569 -0.0942  0.1385
25294W        W68206  22.658  18.837   5.569 -0.0633  0.1321 -0.1081
25295W        W68207  24.949  20.444   7.398  0.0745  0.1913 -0.0381
25296W        W68208  22.870  20.024   6.950 -0.0154 -0.0656 -0.4339
25297W        W68209  23.962  18.637   5.042 -0.3199  0.2768  0.0820
25298W        W68210  24.123  21.384   6.723  0.1855  0.0845 -0.0532
25299W        W68211  24.907  20.688   5.472 -0.3264  0.1875 -0.0602
25300W        W68212  22.633  19.697   3.918 -0.1582 -0.1520 -0.0213
25301W        W68213  22.087  18.200   6.877 -0.2018 -0.0564  0.0278
25302W        W68214  24.170  20.850   8.373 -0.0826  0.2589 -0.1737
25303W        W68215  22.330  19.538   5.974 -0.2807 -0.0922 -0.0766
25304W        W68216  23.116  19.573   4.055 -0.1379  0.0843 -0.1983
25305W        W68217  24.497  20.587   4.078  0.1396  0.1780  0.2504
25306W        W68218  21.330  21.739   6.284 -0.3763 -0.0833  0.0565
25307W        W68219  22.014  19.445   7.320  0.1191 -0.1082 -0.3166
25308W        W68220  23.878  21.786   5.170 -0.0207  0.4388 -0.2729
25309W        W68221  23.285  20.245   4.604  0.2970 -0.0406  0.3138
25310W        W68222  24.583  20.729   6.289  0.0097 -0.2842  0.0086
25311W        W68223  22.467  19.314   4.291  0.3743 -0.1042  0.4716
25312W        W68224  20.750  20.250   4.428 -0.2004 -0.0962 -0.2458
25313W        W68225  22.380  21.149   3.591  0.0188  0.2608 -0.1280
25314W        W68226  24.064  22.287   5.151  0.0906 -0.0898  0.0170
25315W        W68227  23.215  21.048   5.773  0.2265  0.0676 -0.3081
25316W        W68228  25.413  20.323   7.175  0.0293 -0.3060 -0.0883
25317W        W68229  25.157  18.592   3.286  0.0821 -0.1314 -0.0662
25318W        W68230  26.108  19.260   5.495 -0.2298 -0.0842 -0.1498
25319W        W68231  25.408  19.465   3.542 -0.1560 -0.1419  0.2093
25320W        W68232  24.113  21.890   7.643 -0.2864 -0.2041  0.0880
25321W        W68233  22.682  19.359   6.961 -0.0932  0.0183  0.1388
25322W        W68234  22.494  18.847   4.070 -0.2773  0.2399  0.2733
25323W        W68235  23.210  19.536   6.447 -0.0605 -0.1019 -0.2535
25324W        W68236  26.657  18.899   7.106  0.2308 -0.2405 -0.1371
25325W        W68237  22.379  21.596   6.722  0.2758 -0.4922 -0.2531
25326W        W68238  24.558  21.420   4.941 -0.0360  0.1174 -0.0098
25327W        W68239  22.258  18.629   3.720  0.0010  0.0823  0.1569
25328W        W68240  23.798  20.561   4.949 -0.0243  0.3292  0.1259
25329W        W68241  24.997  18.319   6.164  0.0691  0.0408 -0.3992
25330W        W68242  23.085  21.507   3.455 -0.2766 -0.0092  0.0054
25331W        W68243  24.669  19.453   6.711 -0.2931 -0.1165  0.2216
25332W        W68244  23.311  20.461   5.038 -0.3326  0.2496 -0.1834
25333W        W68245  22.534  19.835   4.996 -0.0306 -0.0222  0.1901
25334W        W68246  24.188  20.680   6.590  0.1546  0.2869  0.0990
25335W        W68247  23.049  17.642   4.326  0.1219 -0.1693  0.1026
25336W        W68248  25.866  18.789   5.282 -0.0076 -0.1592  0.1022
25337W        W68249  24.076  18.555   7.581 -0.1025 -0.2035  0.0392
25338W        W68250  24.532  18.219   5.962 -0.4075 -0.0137 -0.2034
25339W        W68251  22.920  19.120   4.292 -0.1280  0.0299  0.5007
25340W        W68252  25.357  18.862   2.261  0.1472 -0.0177 -0.2486
25341W        W68253  23.448  19.144   6.196  0.1459 -0.2351  0.0379
25342W        W68254  22.269  17.920   7.447 -0.1139 -0.2775  0.1003
25343W        W68255  23.549  20.422   4.194  0.0076  0.2892 -0.0502
25344W        W68256  25.501  20.394   6.657 -0.1548  0.1434 -0.2814
25345W        W68257  23.962  19.477   2.783  0.2538  0.1204  0.4011
25346W        W68258  22.780  22.072   7.225  0.1101 -0.1951 -0.0620
25347W        W68259  23.892  17.839   4.875  0.0498 -0.3226 -0.2129
25348W        W68260  24.245  18.649   3.675 -0.2385 -0.1364  0.3231
25349W        W68261  22.148  18.716   5.339 -0.1303 -0.2304  0.3686
25350W        W68262  23.188  19.602   5.775  0.1899  0.2015 -0.1034
25351W        W68263  24.835  20.906   7.203 -0.0475  0.0021 -0.2396
25352W        W68264  21.716  17.945   4.641  0.2924  0.0840 -0.1187
25353W        W68265  25.210  19.933   3.635 -0.2607  0.0960 -0.0678
25354W        W68266  24.945  19.758   4.011 -0.0544  0.2365  0.1491
25355W        W68267  22.852  21.103   5.460  0.1106  0.2389  0.0634
25356W        W68268  25.178  19.438   4.785  0.0593  0.1717  0.1597
25357W        W68269  24.649  20.987   5.723  0.0763  0.5583  0.1064
25358W        W68270  22.159  18.244   6.257 -0.5003  0.1926 -0.0620
25359W        W68271  24.681  21.372   6.519 -0.5385 -0.1232 -0.3426
25360W        W68272  26.133  19.845   6.892  0.1723 -0.1141 -0.0737
25361W        W68273  24.750  17.867   4.760  0.2426  0.0288  0.2202
25362W        W68274  22.277  19.079   5.704  0.1749 -0.1058  0.1971
25363W        W68275  21.258  21.143   4.116 -0.2607  0.0333  0.1239
25364W        W68276  25.522  19.107   6.231  0.0853 -0.0232 -0.0668
25365W        W68277  24.753  18.949   6.743 -0.1313  0.0765 -0.1423
25366W        W68278  23.435  21.438   4.162 -0.1886 -0.0672 -0.3067
25367W        W68279  24.808  17.774   6.301  0.1404 -0.1269 -0.2971
25368W        W68280  25.280  20.795   5.867  0.2791 -0.0517 -0.0975
25369W        W68281  22.632  20.725   8.054 -0.0542  0.0599 -0.0663
25370W        W68282  20.839  19.356   4.439  0.1460 -0.1321 -0.0684
25371W        W68283  22.397  21.800   6.273  0.1908 -0.0294 -0.0297
25372W        W68284  22.942  19.849   4.490  0.0613  0.1395 -0.1221
25373W        W68285  23.112  20.594   5.522 -0.1525  0.1252  0.0932
25374W        W68286  24.156  21.046   5.627  0.1706  0.1775 -0.2225
25375W        W68287  23.976  19.400   3.752 -0.3635  0.1876 -0.1089
25376W        W68288  26.020  22.022   5.902 -0.0141  0.1075 -0.3637
25377W        W68289  24.210  19.189   4.934 -0.3084  0.0324 -0.0420
25378W        W68290  25.447  18.209   4.164 -0.1013 -0.1712  0.0718
25379W        W68291  25.860  18.457   4.423  0.2146 -0.2217 -0.2764
25380W        W68292  21.701  19.875   7.147 -0.0858  0.2631  0.1947
25381W        W68293  23.015  19.214   3.741  0.2748  0.1416  0.0197
25382W        W68294  20.686  20.155   3.934  0.0390  0.3010 -0.1792
25383W        W68295  22.988  19.778   3.547  0.0338 -0.2057 -0.1663
25384W        W68296  24.424  19.225   8.191  0.1583  0.1954  0.1049
25385W        W68297  22.890  18.523   6.697 -0.0938  0.3597 -0.0723
25386W        W68298  21.966  19.157   5.268  0.4483 -0.0277 -0.1116
25387W        W68299  22.618  18.890   4.599  0.0128  0.3445 -0.2220
25388W        W68300  24.682  20.229   4.384  0.0477  0.1163  0.0675
25389W        W68301  21.680  19.223   7.631  0.0301  0.3763 -0.4304
25390W        W68302  22.614  18.904   5.083  0.0054 -0.1875  0.0780
25391W        W68303  25.217  19.299   4.086 -0.0430  0.1100  0.2227
25392W        W68304  23.256  21.013   5.105 -0.0258  0.2203 -0.1176
25393W        W68305  23.783  19.126   5.219  0.2404 -0.2838 -0.1276
25394W        W68306  24.456  22.230   6.672  0.2199  0.0141  0.1042
25395W        W68307  21.479  19.726   3.322  0.0569  0.3658 -0.1064
25396W        W68308  22.544  20.045   7.386  0.3188 -0.0662  0.0592
25397W        W68309  23.267  18.574   7.153  0.1941  0.0869  0.1463
25398W        W68310  21.842  18.937   1.653  0.2476 -0.0928 -0.4676
25399W        W68311  24.703  19.295   5.837  0.0852  0.0531  0.0880
25400W        W68312  23.797  20.120   4.589 -0.0902 -0.0389  0.1038
25401W        W68313  23.733  21.092   4.969  0.1342 -0.2042  0.1138
25402W        W68314  23.392  19.958   6.826 -0.2131  0.1797 -0.2195
25403W        W68315  24.333  21.021   7.492  0.0710  0.1072  0.1849
25404W        W68316  22.319  19.071   7.036 -0.1635 -0.0809  0.2067
25405W        W68317  24.537  19.975   5.739 -0.6905  0.3895 -0.0158
25406W        W68318  23.273  20.876   7.138 -0.1048 -0.3928 -0.1851
25407W        W68319  25.651  19.749   3.140 -0.0366 -0.1029  0.0738
25408W        W68320  25.800  19.015   7.398 -0.0340  0.2299  0.1971
25409W        W68321  23.625  20.406   5.464  0.0323 -0.1396  0.0839
25410W        W68322  22.418  18.013   5.765 -0.0917  0.0931  0.1415
25411W        W68323  21.360  19.684   8.484 -0.2086 -0.1584 -0.2726
25412W        W68324  25.563  19.654   5.656 -0.1655 -0.1013 -0.0246
25413W        W68325  23.216  18.641   5.730  0.0641 -0.0744  0.2858
25414W        W68326  24.514  18.666   4.256 -0.1470 -0.2777 -0.3369
25415W        W68327  22.955  20.861   4.668 -0.2807  0.0923  0.0807
25416W        W68328  22.527  19.684   6.510  0.0949  0.2374  0.1320
25417W        W68329  24.829  20.101   3.133  0.3137 -0.3437 -0.1886
25418W        W68330  24.000  20.458   7.110  0.1689  0.1563 -0.2554
25419W        W68331  22.317  20.254   4.887 -0.1494  0.2761 -0.2597
25420W        W68332  23.586  20.876   5.444  0.0059  0.2399 -0.2341
25421W        W68333  23.508  19.756   3.757 -0.0405  0.0076  0.2027
25422W        W68334  25.346  20.361   3.939  0.3171  0.1434  0.3618
25423W        W68335  24.905  20.991   6.735  0.1769  0.1115  0.0541
25424W        W68336  24.996  21.672   7.175 -0.0184  0.1536 -0.1346
25425W        W68337  23.611  21.796   7.437  0.1989  0.1227 -0.4575
25426W        W68338  24.915  20.320   5.887  0.0529 -0.0772 -0.0153
25427W        W68339  21.955  16.978   6.798  0.0241  0.0845  0.0442
25428W        W68340  23.701  19.230   4.185 -0.1487  0.3342 -0.3099
25429W        W68341  23.285  19.914   5.352 -0.1316  0.0761 -0.2234
25430W        W68342  24.284  19.538   6.049 -0.0945 -0.3907 -0.1001
25431W        W68343  21.886  17.699   5.137 -0.0434 -0.1161  0.2465
25432W        W68344  24.449  18.119   5.494  0.2836 -0.2284 -0.2194
25433W        W68345  22.515  21.482   7.174 -0.2063  0.0473  0.2803
25434W        W68346  22.739  19.379   5.177  0.2409  0.1284  0.2618
25435W        W68347  23.286  20.151   9.169  0.0646  0.1941  0.0230
25436W        W68348  21.879  19.513   8.487 -0.0404 -0.1877 -0.1478
25437W        W68349  23.515  19.076   5.695 -0.0491  0.0541  0.1143
25438W        W68350  24.643  19.770   8.285 -0.1181 -0.2445  0.2638
25439W        W68351  21.814  18.394   9.270  0.1378 -0.0129  0.1187
25440W        W68352  25.691  21.508   8.552  0.0699 -0.0052 -0.2113
25441W        W68353  24.045  19.597  10.053 -0.2211 -0.1633 -0.3646
25442W        W68354  28.014  19.685   9.716  0.3278 -0.1309  0.0755
25443W        W68355  24.007  20.884   7.878 -0.0440 -0.0101  0.0486
25444W        W68356  22.598  20.655  10.344  0.1664  0.2183  0.0235
25445W        W68357  23.330  18.729   9.267  0.0047 -0.0800  0.0073
25446W        W68358  20.225  16.601   9.600  0.1899  0.1782 -0.0033
25447W        W68359  24.782  19.091   8.936  0.1298 -0.0300 -0.0169
25448W        W68360  22.636  19.774   8.423  0.1115 -0.5380 -0.0465
25449W        W68361  26.632  20.731   9.053 -0.0774 -0.0674 -0.0361
25450W        W68362  22.880  19.402   8.708  0.0289  0.2627  0.1994
25451W        W68363  23.779  21.234   8.119  0.0327 -0.1253 -0.2806
25452W        W68364  23.246  18.981  11.033  0.3202  0.2898  0.2071
25453W        W68365  24.165  20.806   9.443 -0.2881 -0.2793 -0.1402
25454W        W68366  22.836  20.481   7.343  0.1638 -0.0535  0.2139
25455W        W68367  20.637  19.684   9.698  0.2372  0.0850 -0.3129
25456W        W68368  22.157  19.182  10.547  0.0492  0.0004  0.1194
25457W        W68369  25.169  19.014  10.281  0.0469 -0.0321 -0.0538
25458W        W68370  26.877  18.085  10.361 -0.2158 -0.0594  0.2402
25459W        W68371  23.165  20.636   9.574  0.0414 -0.0911  0.2535
25460W        W68372  24.827  20.800   9.337  0.2733  0.1786 -0.0215
25461W        W68373  21.151  19.777   9.451  0.1050  0.1810 -0.1053
25462W        W68374  21.635  21.348   9.049 -0.2642  0.0065  0.2509
25463W        W68375  23.388  20.407   8.645 -0.1770  0.3465  0.0944
25464W        W68376  24.856  20.360   8.715  0.1705  0.0310  0.0672
25465W        W68377  20.923  20.247   7.142 -0.0129 -0.0977 -0.2321
25466W        W68378  25.065  18.528   9.934 -0.0916  0.0202  0.3349
25467W        W68379  24.156  19.997   8.928 -0.2319  0.1624 -0.1645
25468W        W68380  23.637  20.930   8.463 -0.1337  0.3587  0.0792
25469W        W68381  23.065  20.112   9.604  0.0208  0.1580  0.2351
25470W        W68382  21.954  20.325   9.005 -0.0302  0.0521 -0.1979
25471W        W68383  22.901  21.448   8.532  0.0630  0.2292  0.0534
25472W        W68384  25.576  20.368   7.672  0.1268 -0.0937  0.0014
25473W        W68385  24.340  18.627   6.977 -0.1459  0.2171 -0.1059
25474W        W68386  25.386  19.921   7.840  0.0622  0.0980  0.2146
25475W        W68387  22.951  18.648   8.371 -0.1841  0.2236 -0.2371
25476W        W68388  22.042  19.994   9.602  0.1510  0.0091 -0.1957
25477W        W68389  25.348  19.183   9.203 -0.0245  0.2725  0.0798
25478W        W68390  23.891  20.390   8.670  0.2236  0.0040 -0.0327
25479W        W68391  26.461  19.045   9.747  0.1166 -0.2436 -0.0005
25480W        W68392  24.502  20.817   9.942 -0.2749  0.1166  0.0433
25481W        W68393  21.952  19.512   9.480  0.1519  0.0087  0.0657
25482W        W68394  25.097  20.936   8.022  0.0055 -0.0772  0.1293
25483W        W68395  25.554  21.822   9.212  0.0841 -0.1308 -0.1911
25484W        W68396  24.406  21.296   7.945 -0.0462 -0.0364 -0.4135
25485W        W68397  22.419  18.691   8.072 -0.0110  0.2970  0.3477
25486W        W68398  23.241  17.754   8.814  0.0242 -0.0019  0.0729
25487W        W68399  26.918  21.603  10.399  0.0500  0.4638  0.0612
25488W        W68400  22.306  19.883   9.217  0.1491  0.0902 -0.1311
25489W        W68401  25.278  20.145   8.840 -0.1765  0.1931 -0.1276
25490W        W68402  24.205  20.053   8.392  0.0439  0.0171  0.3670
25491W        W68403  25.121  17.825   9.071  0.1786  0.0514 -0.0115
25492W        W68404  25.018  18.814   9.379 -0.0509  0.4656 -0.0257
25493W        W68405  22.360  18.846   6.228 -0.2335 -0.0123 -0.1292
25494W        W68406  22.663  20.456   9.816  0.1829  0.1208 -0.3669
25495W        W68407  25.113  21.437  10.180  0.0528 -0.0850  0.2431
25496W        W68408  25.440  20.356   8.319 -0.1552 -0.0994 -0.0546
25497W        W68409  21.741  20.072  10.278  0.1266 -0.0400 -0.0919
25498W        W68410  21.295  21.111   6.924  0.0435  0.1795  0.0362
25499W        W68411  20.024  21.647   9.884 -0.0540  0.1198  0.1553
25500W        W68412  22.392  20.415   7.752 -0.0933  0.3102  0.2506
25501W        W68413  21.301  17.509  10.747 -0.3526  0.0628 -0.0302
25502W        W68414  23.399  18.387  11.870  0.2917  0.0790 -0.0797
25503W        W68415  26.760  19.502   9.613  0.0560 -0.3144  0.0166
25504W        W68416  25.589  18.634   8.723 -0.3712 -0.0150  0.1527
25505W        W68417  22.555  19.463   7.478  0.0722 -0.0277 -0.1293
25506W        W68418  24.550  21.668   8.490 -0.1355 -0.0396  0.1350
25507W        W68419  25.018  20.025   7.211  0.2302 -0.0204  0.1531
25508W        W68420  25.369  20.838   7.473 -0.0219 -0.1474  0.0730
25509W        W68421  24.612  19.197   9.503 -0.2009 -0.0902  0.0646
25510W        W68422  23.148  19.958   8.294 -0.0398 -0.1135 -0.0253
25511W        W68423  22.004  17.678  10.049  0.0643 -0.0992  0.0825
25512W        W68424  22.330  18.710   9.101  0.0926 -0.0313  0.0491
25513W        W68425  26.261  20.795   8.589  0.2117 -0.0636 -0.1584
25514W        W68426  22.797  19.734   9.095 -0.0423 -0.1744  0.1834
25515W        W68427  20.565  21.021   8.831 -0.0272  0.1387 -0.1793
25516W        W68428  23.443  21.417   8.441 -0.4673 -0.1958  0.1331
25517W        W68429  25.950  22.591  10.175  0.0373  0.1034  0.4767
25518W        W68430  25.937  21.837   8.926 -0.0161 -0.0770  0.0801
25519W        W68431  23.604  20.382   9.639  0.0931  0.2561  0.0709
25520W        W68432  22.669  18.260   7.260 -0.0699  0.0002  0.3763
25521W        W68433  22.339  20.619   8.486 -0.1156  0.0577  0.2128
25522W        W68434  24.894  21.366   9.366  0.1251 -0.0672 -0.0194
25523W        W68435  22.276  18.591   8.550  0.3387  0.2307 -0.0423
25524W        W68436  25.761  21.206   9.622 -0.0042  0.0062 -0.1689
25525W        W68437  23.666  21.141   8.890 -0.1118 -0.1357  0.0861
25526W        W68438  25.096  20.564   9.685 -0.0130 -0.2751  0.1018
25527W        W68439  23.640  20.860   9.733 -0.3402 -0.0596  0.3778
25528W        W68440  21.929  18.556   8.077  0.0494  0.1114  0.2014
25529W        W68441  24.852  22.295   9.504 -0.0066 -0.2618  0.0127
25530W        W68442  22.740  21.283   8.058  0.1387  0.3440  0.1371
25531W        W68443  20.934  19.350   8.745  0.0013  0.1107  0.1848
25532W        W68444  23.157  21.082   8.233 -0.3546  0.3557  0.1152
25533W        W68445  22.953  18.815   8.861  0.0070  0.1942 -0.1252
25534W        W68446  22.979  19.227   7.587 -0.1141  0.0791 -0.2600
25535W        W68447  24.310  18.898   9.253  0.0155 -0.1996 -0.2351
25536W        W68448  26.024  19.479   8.622 -0.0926  0.4575 -0.1649
25537W        W68449  25.631  20.679   9.549  0.1475 -0.0663 -0.0564
25538W        W68450  24.557  19.531   7.778 -0.0836 -0.3404  0.2155
25539W        W68451  25.587  18.902   7.894  0.1824 -0.1445 -0.1562
25540W        W68452  23.908  21.591  10.263 -0.0188  0.1710  0.1758
25541W        W68453  25.392  20.188   9.520 -0.1463 -0.1885  0.1844
25542W        W68454  24.891  18.524   7.780  0.4113  0.0886  0.1982
25543W        W68455  25.151  20.373   7.925  0.1549 -0.1746 -0.2595
25544W        W68456  19.373  21.382  10.147 -0.0902 -0.0202 -0.0115
25545W        W68457  23.907  21.268   9.331 -0.0865 -0.0924 -0.0230
25546W        W68458  23.429  19.047  10.324 -0.0130  0.3345  0.2774
25547W        W68459  22.396  19.745   7.009 -0.0970  0.1196  0.2043
25548W        W68460  22.587  18.987   8.572 -0.4370 -0.1590  0.1752
25549W        W68461  22.017  20.938   7.681  0.0748 -0.0757 -0.1402
25550W        W68462  24.948  18.285   9.417 -0.1646  0.3123  0.1607
25551W        W68463  23.878  19.651   8.458  0.0252 -0.2786  0.1954
25552W        W68464  24.407  19.503   8.685 -0.0666 -0.1063 -0.0615
25553W        W68465  24.655  20.395  10.085  0.0838  0.0519 -0.0678
25554W        W68466  22.293  18.562   7.182  0.3691  0.0024 -0.0563
25555W        W68467  23.325  19.186   8.900  0.1971 -0.3598 -0.0479
25556W        W68468  21.923  21.359  10.483 -0.0882 -0.0664 -0.0993
25557W        W68469  24.363  20.481   8.623 -0.2945  0.0986  0.0737
25558W        W68470  23.317  19.670   9.106  0.2512  0.0637 -0.0045
25559W        W68471  23.452  20.711   7.999  0.1734  0.1143 -0.0248
25560W        W68472  23.873  19.329   7.078 -0.0219 -0.1318 -0.2002
25561W        W68473  22.915  18.112   9.907 -0.1124  0.1331  0.3531
25562W        W68474  23.815  20.444  10.609  0.1061  0.0313 -0.1534
25563W        W68475  23.745  21.598   6.992  0.2181 -0.4839  0.0856
25564W        W68476  23.999  20.330   9.238 -0.0712 -0.0804 -0.2057
25565W        W68477  22.661  20.969   8.564 -0.2349 -0.3134  0.1360
25566W        W68478  24.430  17.994   9.664  0.1764 -0.0156 -0.1630
25567W        W68479  21.529  20.527   9.405 -0.0639  0.2666 -0.0022
25568W        W68480  23.009  20.002   8.749  0.1197  0.0610 -0.0327
25569W        W68481  20.297  20.027   9.011  0.2889  0.3334 -0.0731
25570W        W68482  25.738  19.141   8.817 -0.0527  0.0060  0.0573
25571W        W68483  25.679  21.021   8.698 -0.0725 -0.1533  0.1877
25572W        W68484  22.976  18.956  10.118 -0.0834 -0.1156 -0.0759
25573W        W68485  22.569  16.930   9.620 -0.1580 -0.1262  0.1703
25574W        W68486  23.628  22.395  11.122  0.0049  0.0227  0.1033
25575W        W68487  24.337  18.973   8.701 -0.2790  0.1911 -0.2232
25576W        W68488  21.241  19.894   6.395 -0.0860  0.1182 -0.1970
25577W        W68489  25.986  17.128  10.128 -0.1598 -0.1744 -0.0960
25578W        W68490  23.318  19.169   9.802 -0.1851 -0.1019 -0.2429
25579W        W68491  22.103  21.095   8.678 -0.2089 -0.0662 -0.0824
25580W        W68492  24.683  19.132  10.031 -0.0744  0.1367  0.2397
25581W        W68493  22.653  19.898   7.869 -0.0823  0.1111  0.0851
25582W        W68494  21.550  20.436   8.294 -0.2964 -0.0883 -0.0718
25583W        W68495  26.326  21.105  10.376  0.0605  0.1794  0.3330
25584W        W68496  21.591  20.052   9.338 -0.0153  0.8255  0.2861
25585W        W68497  22.049  19.058   8.618  0.1425  0.0141  0.1603
25586W        W68498  23.321  19.351  10.738 -0.1148 -0.0961  0.0717
25587W        W68499  25.242  20.620   9.183 -0.3352  0.0788  0.0254
25588W        W68500  25.077  19.262   9.677 -0.0098  0.3824  0.2425
25589W        W68501  24.137  18.664   9.942 -0.0868  0.1432  0.1853
25590W        W68502  25.689  22.318   9.025 -0.5342  0.1465  0.4087
25591W        W68503  22.437  20.146   8.826  0.3036 -0.3030 -0.0489
25592W        W68504  22.360  20.288  10.596 -0.0681  0.1544 -0.0695
25593W        W68505  23.055  19.588   9.613 -0.1061  0.0758  0.0013
25594W        W68506  22.806  18.943  10.582  0.2459  0.1151 -0.2163
25595W        W68507  22.115  21.791  10.212  0.3132  0.1576 -0.1575
25596W        W68508  22.836  20.524   8.763 -0.2960 -0.2306 -0.0785
25597W        W68509  21.867  20.842   9.641 -0.3178 -0.0726  0.0310
25598W        W68510  25.167  18.975   8.666 -0.1454  0.1528  0.0932
25599W        W68511  23.369  20.526   7.537  0.0687  0.1698  0.0208
25600W        W68512  23.675  19.121   8.471 -0.0922  0.0021  0.2150
25601W        W68513  24.783  19.043   7.809  0.3363  0.2968  0.3147
25602W        W68514  23.922  19.733   9.341 -0.0087  0.0362  0.2548
25603W        W68515  26.117  19.395   9.844 -0.1222 -0.1853  0.1170
25604W        W68516  25.226  18.427   9.071 -0.3498 -0.1240  0.3043
25605W        W68517  23.827  18.956   7.990 -0.3421  0.1069 -0.1265
25606W        W68518  22.023  20.716  10.492  0.0024  0.0445  0.1177
25607W        W68519  25.908  20.755  10.075  0.3481 -0.0612 -0.3078
25608W        W68520  24.954  20.195   9.262  0.0687  0.1925  0.1252
25609W        W68521  25.760  20.538   8.699 -0.2682  0.0499  0.2347
25610W        W68522  22.206  20.221  10.081 -0.1026  0.1791  0.1779
25611W        W68523  25.944  19.323   9.300  0.0606 -0.1962  0.0717
25612W        W68524  24.246  19.108   7.745 -0.2905 -0.1186 -0.0101
25613W        W68525  22.259  20.800   9.904 -0.0488  0.1145  0.0514
25614W        W68526  24.752  20.885   8.785 -0.1303  0.0159 -0.1919
25615W        W68527  25.630  19.345   9.697  0.0068  0.1457  0.0283
25616W        W68528  20.718  20.665   9.972 -0.0253 -0.1818  0.1753
25617W        W68529  25.749  19.705   8.199  0.1020 -0.1332  0.0869
25618W        W68530  25.677  18.837   9.323  0.0290  0.0647 -0.0897
25619W        W68531  26.225  19.132  10.206  0.3192  0.1397  0.0645
25620W        W68532  23.697  19.816   7.751  0.1535 -0.1193 -0.0741
25621W        W68533  23.084  18.567   9.758  0.1725 -0.1331  0.0202
25622W        W68534  23.384  20.251   7.920  0.0314  0.0324 -0.0993
25623W        W68535  24.193  21.482   7.241 -0.3223 -0.1522  0.1808
25624W        W68536  24.741  20.733   8.257 -0.1498 -0.1660  0.0892
25625W        W68537  25.121  19.549   8.905 -0.3279 -0.0713 -0.1380
25626W        W68538  21.989  19.563   7.846 -0.0022 -0.0716 -0.1990
25627W        W68539  22.879  17.931   7.613 -0.0631  0.2074  0.0993
25628W        W68540  23.339  19.529   8.519 -0.1546  0.1303  0.0444
25629W        W68541  23.868  21.154  10.670  0.3709  0.1880  0.0020
25630W        W68542  24.508  17.235   8.482 -0.0225 -0.2265 -0.0484
25631W        W68543  22.649  20.209   8.238 -0.3700 -0.2358 -0.0890
25632W        W68544  24.452  17.809   8.562 -0.0982  0.0978  0.0883
25633W        W68545  22.546  21.673   9.151 -0.0815  0.1660  0.0004
25634W        W68546  23.575  20.606   9.126 -0.0762 -0.0798  0.0064
25635W        W68547  23.907  19.035  10.147  0.1087 -0.2500  0.3508
25636W        W68548  27.534  19.431   9.927  0.0635  0.2222  0.2170
25637W        W68549  23.575  20.407  10.151  0.0158 -0.1585  0.0190
25638W        W68550  22.402  19.666  10.482  0.2616  0.2152  0.0728
25639W        W68551  25.918  20.234   8.283  0.1437  0.2053 -0.3147
25640W        W68552  23.292  21.835  10.324  0.1720 -0.1122  0.1801
25641W        W68553  25.225  21.141   9.009  0.1034  0.0245  0.0519
25642W        W68554  22.393  17.440  10.611 -0.2064 -0.1767  0.1766
25643W        W68555  23.430  20.438   6.987  0.2112  0.2512 -0.0734
25644W        W68556  24.161  18.587  10.431 -0.1904 -0.1217  0.2546
25645W        W68557  21.917  20.940   9.122 -0.2404 -0.1310  0.2869
25646W        W68558  25.792  20.855   7.770  0.2097  0.0151  0.0565
25647W        W68559  24.036  20.134   6.703 -0.0319 -0.0145  0.0767
25648W        W68560  23.904  23.169  10.343 -0.1863 -0.5269  0.0788
25649W        W68561  24.800  19.682   9.323  0.1516 -0.0365 -0.4750
25650W        W68562  22.698  21.033   9.902 -0.1021  0.3693 -0.3214
25651W        W68563  22.186  20.981   7.158 -0.2025 -0.0453 -0.0949
25652W        W68564  24.414  22.588   8.646  0.0959 -0.0590  0.2149
25653W        W68565  22.675  21.612   9.646 -0.1524 -0.2617 -0.0612
25654W        W68566  25.255  19.188   7.549  0.2558  0.0952  0.0843
25655W        W68567  25.495  20.500   9.957  0.0429 -0.0626 -0.1598
25656W        W68568  25.549  19.663   9.021  0.1594 -0.2238  0.0218
25657W        W68569  24.424  19.921   9.425  0.0997 -0.2337  0.1248
25658W        W68570  25.667  19.940   8.632 -0.0049  0.3269 -0.0302
25659W        W68571  24.893  21.488   8.029 -0.2349 -0.4069 -0.0015
25660W        W68572  21.731  18.695   8.927 -0.0625  0.1401  0.0028
25661W        W68573  23.487  19.420   8.054  0.2621  0.0803  0.1032
25662W        W68574  25.403  18.910   9.810  0.1337  0.0257  0.1775
25663W        W68575  23.343  20.057   7.329 -0.0624 -0.3211 -0.3072
25664W        W68576  23.668  20.044   8.301  0.2760  0.2830 -0.0711
25665W        W68577  24.951  22.522  10.502  0.2380 -0.0111  0.3589
25666W        W68578  21.848  19.566  10.358 -0.0824  0.1347 -0.0138
25667W        W68579  23.609  20.866  10.333  0.2471 -0.0948  0.1206
25668W        W68580  21.323  18.454   8.900  0.1692  0.0894 -0.1420
25669W        W68581  26.374  19.285   8.913 -0.0596  0.2894 -0.1585
25670W        W68582  22.270  18.724  10.828 -0.0674  0.1315  0.1366
25671W        W68583  22.396  19.498   8.723 -0.0715 -0.2374  0.2252
25672W        W68584  24.775  18.630   8.976  0.0858  0.3211 -0.1588
25673W        W68585  24.116  19.147   9.683  0.1927 -0.0261 -0.2809
25674W        W68586  20.902  17.872   9.436 -0.0062  0.0370 -0.0710
25675W        W68587  23.176  19.822   7.747  0.1412 -0.0485  0.0081
25676W        W68588  24.291  20.118   7.366  0.3973  0.3977 -0.0967
25677W        W68589  24.504  17.837   9.174 -0.2450 -0.2427  0.0299
25678W        W68590  24.785  18.124   8.804  0.0741 -0.0559 -0.0565
25679W        W68591  22.454  19.440   8.085  0.1123  0.0398  0.1813
25680W        W68592  22.693  19.643  10.054  0.2039 -0.4600  0.4529
25681W        W68593  23.069  17.602   9.280  0.1034 -0.0235  0.2780
25682W        W68594  25.059  19.573   8.089 -0.1352  0.0115  0.1694
25683W        W68595  28.516  19.013  10.120 -0.1013 -0.2184  0.0644
25684W        W68596  23.472  21.364  10.399 -0.1030  0.1257  0.2735
25685W        W68597  26.170  20.509   9.193 -0.0665  0.2415 -0.0747
25686W        W68598  25.061  20.703  10.212  0.0475 -0.0953 -0.3047
25687W        W68599  22.505  19.161  10.167  0.0392  0.3565 -0.1502
25688W        W68600  27.070  21.029  10.242 -0.0895 -0.1841  0.2180
25689W        W68601  25.610  19.887   9.981 -0.0996 -0.0065 -0.1007
25690W        W68602  24.725  17.831   7.600  0.0295  0.1637  0.0678
25691W        W68603  22.342  18.218   9.968  0.0035  0.0280  0.0668
25692W        W68604  21.541  21.387   8.402  0.2445  0.0665  0.1025
25693W        W68605  25.604  19.289  10.159  0.0361 -0.0722  0.0480
25694W        W68606  24.099  21.212   8.685 -0.2067  0.1626  0.0105
25695W        W68607  24.970  19.957   9.727  0.0203  0.1556  0.3072
25696W        W68608  21.515  19.741   7.636  0.2027  0.0021  0.3762
25697W        W68609  24.709  21.804  10.247  0.2308 -0.3214 -0.1088
25698W        W68610  23.187  20.942   8.750 -0.2953 -0.1069 -0.1114
25699W        W68611  25.503  21.092  10.045 -0.1772 -0.1321 -0.3577
25700W        W68612  24.480  20.509   9.126 -0.0355  0.0844 -0.3387
25701W        W68613  25.061  21.237   8.534  0.0043  0.0265 -0.2177
25702W        W68614  23.760  19.450   8.900  0.0523 -0.3560 -0.1290
25703W        W68615  24.526  17.139  10.048  0.1001  0.0515  0.2058
25704W        W68616  25.801  18.967   8.355 -0.1903  0.0725 -0.1559
25705W        W68617  21.132  19.819  10.038 -0.2169  0.0363 -0.1836
25706W        W68618  20.786  19.483   6.596  0.2459 -0.1925  0.1823
25707W        W68619  21.501  19.416   7.155 -0.0846  0.1455 -0.0524
25708W        W68620  22.125  19.934   8.563  0.0811  0.0193 -0.1069
25709W        W68621  23.514  19.815   9.566 -0.0087  0.2872 -0.1203
25710W        W68622  22.996  19.250   9.234 -0.2776  0.1425 -0.4081
25711W        W68623  26.148  21.290   8.517 -0.1858  0.0057 -0.3050
25712W        W68624  23.516  19.300   9.359 -0.0980 -0.0100  0.1580
25713W        W68625  24.295  19.442   9.197  0.1257  0.1184  0.0278
25714W        W68626  23.931  20.446   8.134 -0.1727 -0.1184  0.1902
25715W        W68627  25.281  21.594   8.813 -0.0673  0.1427 -0.1164
25716W        W68628  23.968  18.449   8.937 -0.2315 -0.1191  0.0050
25717W        W68629  22.415  20.708   9.047 -0.0499 -0.1556  0.0683
25718W        W68630  21.582  18.755   8.362 -0.0256  0.2913 -0.2206
25719W        W68631  23.053  19.433  10.305 -0.1229  0.2768  0.0942
25720W        W68632  24.024  20.804   8.928  0.2828  0.0824  0.1398
25721W        W68633  25.013  21.119   6.199 -0.1102 -0.0386 -0.0843
25722W        W68634  21.090  19.300   8.259 -0.1050  0.1769  0.0636
25723W        W68635  24.653  20.234   8.182 -0.2570  0.3695 -0.1089
25724W        W68636  25.552  21.139   8.168 -0.0894  0.1199 -0.1774
25725W        W68637  24.899  17.811   9.548  0.5053  0.0297  0.0509
25726W        W68638  24.098  19.646   7.530 -0.0506 -0.0360  0.2012
25727W        W68639  26.446  21.744   9.103  0.1242  0.1948  0.1173
25728W        W68640  23.031  18.263  11.249  0.0668  0.1671 -0.0181
25729W        W68641  23.396  19.079   7.227  0.2875  0.2346 -0.0313
25730W        W68642  24.764  20.776   7.700  0.2162  0.2293  0.0262
25731W        W68643  21.573  19.599   9.917  0.0503 -0.2067 -0.2324
25732W        W68644  23.630  19.957   8.822 -0.1709  0.1936 -0.0336
25733W        W68645  24.549  20.433   9.574 -0.4459 -0.0141 -0.1421
25734W        W68646  23.028  19.507   8.108  0.1995 -0.0102 -0.0581
25735W        W68647  27.063  21.242   8.861 -0.2933 -0.0503  0.1455
25736W        W68648  24.408  21.218   9.099 -0.0410 -0.1795  0.0153
25737W        W68649  24.840  22.202   9.977 -0.2938  0.3805 -0.1367
25738W        W68650  25.304  21.048   9.503 -0.1577 -0.0724 -0.1283
25739W        W68651  19.818  18.965   9.647  0.1953  0.1978 -0.2675
25740W        W68652  21.585  19.367   8.119 -0.2469 -0.1967 -0.0121
25741W        W68653  22.583  19.920   9.656  0.2533  0.1579  0.2552
25742W        W68654  23.518  16.498  10.434 -0.2749  0.0634 -0.1351
25743W        W68655  22.492  19.197   9.113 -0.1372  0.0678  0.3406
25744W        W68656  24.005  19.439   8.056 -0.0168 -0.0157  0.1124
25745W        W68657  23.105  22.074  11.698 -0.1135 -0.2328  0.1481
25746W        W68658  23.822  19.432  10.588 -0.2396  0.1720 -0.3125
25747W        W68659  21.887  23.260   3.250 -0.2203  0.1584  0.0892
25748W        W68660  21.615  23.526  31.932  0.2973 -0.0372  0.1269
25749W        W68661  24.407  22.093  31.541  0.0339  0.2546  0.0924
25750W        W68662  24.889  23.652   0.967 -0.0204  0.1173 -0.3100
25751W        W68663  22.028  22.520   0.441 -0.3402  0.0619 -0.1624
25752W        W68664  24.678  24.430   0.423  0.2513  0.0179 -0.0855
25753W        W68665  23.177  22.365   2.102  0.2464 -0.1034  0.0898
25754W        W68666  24.107  24.227   2.148  0.2608  0.1170  0.0253
25755W        W68667  25.101  23.718   3.023 -0.2219  0.2712  0.4587
25756W        W68668  23.685  23.637   0.223 -0.0364 -0.0552  0.2553
25757W        W68669  22.053  20.709   1.069 -0.3550 -0.0760  0.0218
25758W        W68670  23.929  24.455   1.638  0.0771  0.1347  0.0038
25759W        W68671  22.677  24.277   0.413  0.0668 -0.1088  0.2347
25760W        W68672  19.801  20.710   1.394  0.1409  0.1383  0.1819
25761W        W68673  24.429  24.410   1.707 -0.0169  0.2722  0.1497
25762W        W68674  21.682  22.944   0.596 -0.2761  0.0879 -0.3222
25763W        W68675  22.543  20.969   1.744 -0.1816  0.0675  0.0545
25764W        W68676  22.648  22.522   1.433  0.2278 -0.1473 -0.0786
25765W        W68677  24.864  26.463   0.891  0.0523  0.2872  0.1151
25766W        W68678  22.322  23.021   3.450 -0.2147  0.0012 -0.3936
25767W        W68679  25.006  22.990   2.712  0.1425 -0.0512 -0.0523
25768W        W68680  24.567  23.462  31.955 -0.0253 -0.1270  0.1437
25769W        W68681  20.373  22.845  29.776 -0.0553 -0.4771  0.0135
25770W        W68682  21.455  21.153   2.459 -0.2243 -0.0348 -0.1182
25771W        W68683  22.668  22.610   1.953 -0.3284  0.2302 -0.2306
25772W        W68684  24.435  22.558   1.983 -0.0652 -0.2131  0.2448
25773W        W68685  24.833  23.267   2.328  0.2068  0.3810  0.1604
25774W        W68686  22.007  26.427   0.751  0.0581 -0.3885 -0.1358
25775W        W68687  23.735  25.916   1.937  0.0463  0.1136  0.1345
25776W        W68688  24.974  23.301   1.731 -0.0289 -0.0470 -0.3477
25777W        W68689  21.981  23.179   1.473  0.2990  0.2523  0.0339
25778W        W68690  21.641  25.114   1.735 -0.2082 -0.0690  0.0655
25779W        W68691  23.492  24.832   0.656 -0.0402  0.2192 -0.3918
25780W        W68692  26.017  24.314   1.359 -0.0355  0.1812  0.1646
25781W        W68693  25.959  25.085   3.444  0.1680  0.1534  0.0500
25782W        W68694  22.578  24.778   2.197  0.1196 -0.1616  0.1448
25783W        W68695  24.221  25.251   1.942 -0.3370  0.1937  0.0005
25784W        W68696  25.735  25.347   2.815 -0.4526  0.0623  0.0643
25785W        W68697  23.703  22.633   1.844 -0.3070  0.1359  0.1255
25786W        W68698  22.499  22.876   0.287  0.0671 -0.0899  0.0876
25787W        W68699  24.221  26.624   0.178 -0.0069  0.2089  0.2937
25788W        W68700  24.292  25.708   1.353 -0.0711 -0.2426 -0.1084
25789W        W68701  22.896  24.582   2.593 -0.3499  0.3737  0.3140
25790W        W68702  20.632  23.191   1.901 -0.0483  0.0210 -0.1604
25791W        W68703  24.129  21.853   4.138  0.1696 -0.2869 -0.0803
25792W        W68704  23.826  24.982   1.775  0.1813 -0.3538  0.0066
25793W        W68705  22.763  22.052   0.883 -0.0413 -0.0118  0.0670
25794W        W68706  23.079  24.632  31.493 -0.4282 -0.2294  0.1612
25795W        W68707  22.971  23.077   0.289 -0.1907  0.0570  0.3705
25796W        W68708  23.577  20.306   2.423 -0.0911 -0.2176 -0.1311
25797W        W68709  22.916  25.133   2.429  0.4429  0.0515  0.3860
25798W        W68710  22.140  20.723   1.866  0.0794  0.0046 -0.0500
25799W        W68711  24.802  24.946   2.826  0.0149  0.0984 -0.2172
25800W        W68712  23.638  22.914  31.363 -0.1641 -0.2150  0.1324
25801W        W68713  24.031  23.061   1.129 -0.4876 -0.2964  0.1731
25802W        W68714  22.014  24.224   2.862 -0.0096  0.0209 -0.1852
25803W        W68715  22.096  25.619   1.539 -0.0543  0.2020 -0.0974
25804W        W68716  24.722  25.349   0.098 -0.0700 -0.0871  0.3032
25805W        W68717  25.067  24.206   0.731 -0.0887 -0.0067  0.0490
25806W        W68718  22.684  26.299  31.893 -0.0816 -0.1251  0.0927
25807W        W68719  22.134  23.442   0.509 -0.0931 -0.0166 -0.0101
25808W        W68720  21.183  23.573   1.936  0.3856  0.0990 -0.2999
25809W        W68721  22.907  21.975   2.225  0.2073 -0.0308 -0.1329
25810W        W68722  24.280  23.887  30.772  0.1006  0.0078 -0.1970
25811W        W68723  25.186  23.805   3.605  0.4251 -0.2747  0.0190
25812W        W68724  22.489  24.337   2.691 -0.0616 -0.0398 -0.0928
25813W        W68725  26.225  23.296   1.170 -0.0789 -0.0196  0.1421
25814W        W68726  22.609  23.832   1.003 -0.0169 -0.1102 -0.2331
25815W        W68727  25.688  25.004   1.625  0.3971 -0.0665 -0.1542
25816W        W68728  25.013  24.441  30.325  0.0957  0.1810 -0.1056
25817W        W68729  23.340  21.773   2.598 -0.1032  0.1292  0.1828
25818W        W68730  24.640  20.567   2.420 -0.2838 -0.0500  0.0623
25819W        W68731  23.114  23.426   0.634  0.3456  0.1973 -0.0538
25820W        W68732  21.617  23.389   0.461  0.2894  0.3041 -0.0457
25821W        W68733  23.979  23.995   4.359 -0.1390 -0.0722  0.2122
25822W        W68734  24.327  22.949  31.788 -0.0380 -0.0522 -0.2900
25823W        W68735  22.106  25.033   2.337 -0.0925  0.1010  0.0726
25824W        W68736  22.503  22.766   2.472 -0.1953 -0.2382  0.0193
25825W        W68737  23.841  24.346   2.633  0.1768 -0.0398  0.0526
25826W        W68738  21.457  23.167  30.736  0.1692 -0.0802  0.0127
25827W        W68739  21.547  23.402   1.673  0.1071  0.2537  0.2151
25828W        W68740  22.843  24.762   0.726 -0.1546  0.1518  0.0141
25829W        W68741  22.075  21.612   2.652  0.1749 -0.1483 -0.0489
25830W        W68742  23.803  22.464   2.693  0.1169 -0.1671  0.5488
25831W        W68743  24.003  22.231   0.650  0.0314  0.1777 -0.3492
25832W        W68744  21.717  22.188   4.217  0.3031 -0.1940  0.1150
25833W        W68745  24.757  22.441   2.436  0.2045  0.3192 -0.1343
25834W        W68746  22.145  22.953   0.798  0.2825  0.2313 -0.0147
25835W        W68747  24.484  24.842   0.573  0.2704  0.0089 -0.3912
25836W        W68748  25.735  23.381   1.117  0.0137  0.1268  0.0883
25837W        W68749  24.032  24.255  31.681 -0.0212 -0.2324 -0.0235
25838W        W68750  22.801  24.043   1.418 -0.0738 -0.1412  0.0420
25839W        W68751  23.468  23.619   1.640  0.0173 -0.1707  0.2439
25840W        W68752  23.613  22.238   2.292  0.1519 -0.3239  0.0914
25841W        W68753  21.212  20.664   2.071 -0.0360  0.1371  0.0322
25842W        W68754  24.647  23.002   3.409  0.1448 -0.1021 -0.1415
25843W        W68755  20.685  21.919  31.141 -0.0325  0.2757 -0.1967
25844W        W68756  23.053  22.810  31.842  0.0153  0.0510  0.1081
25845W        W68757  22.610  23.111  30.842  0.2197  0.2233 -0.0612
25846W        W68758  21.610  23.769   0.761  0.0876 -0.0507 -0.0547
25847W        W68759  24.877  22.757   2.030 -0.1470  0.2544 -0.0577
25848W        W68760  24.036  25.351  31.895 -0.2185 -0.0830  0.2281
25849W        W68761  24.992  25.269   2.351 -0.1044 -0.2822  0.1123
25850W        W68762  25.481  24.954   1.198 -0.2388  0.0281  0.1962
25851W        W68763  21.913  23.289   2.701 -0.0811 -0.2014 -0.1061
25852W        W68764  22.507  22.328   0.244  0.3768  0.0829 -0.0679
25853W        W68765  21.635  24.347   2.478 -0.0604  0.0033 -0.2667
25854W        W68766  23.371  24.904   1.727 -0.1146  0.2131 -0.1133
25855W        W68767  23.047  21.593   0.798 -0.1600 -0.3460  0.1157
25856W        W68768  25.153  24.975   1.638  0.0013  0.0470  0.1610
25857W        W68769  23.125  26.338   0.962 -0.0074 -0.0726  0.0254
25858W        W68770  20.880  23.958   2.183  0.1115  0.0447  0.1517
25859W        W68771  24.017  20.586   3.839 -0.0817 -0.3006  0.2046
25860W        W68772  24.142  23.942   1.619 -0.0600  0.0401 -0.2930
25861W        W68773  23.631  23.263   2.604 -0.0061 -0.0538 -0.0677
25862W        W68774  21.449  21.707   0.942 -0.0463 -0.2421 -0.0433
25863W        W68775  24.263  24.846   1.635  0.2692 -0.0329 -0.2304
25864W        W68776  22.312  24.293   0.821 -0.2703 -0.0400 -0.1723
25865W        W68777  21.781  22.758   1.668  0.1640  0.1231 -0.1773
25866W        W68778  23.307  25.400   1.890  0.1245 -0.1157  0.3407
25867W        W68779  24.714  22.027   1.076  0.1803  0.1216  0.0259
25868W        W68780  22.457  21.952   2.738  0.3305 -0.1011 -0.0272
25869W        W68781  22.923  22.554   4.741  0.0255 -0.0859 -0.2534
25870W        W68782  22.744  24.748   0.274 -0.2546 -0.0261  0.2183
25871W        W68783  22.353  23.297   2.866  0.3588 -0.0904 -0.0494
25872W        W68784  24.195  23.047   0.655 -0.1230  0.2376  0.0452
25873W        W68785  23.369  21.852   0.054 -0.2115  0.1372 -0.0591
25874W        W68786  24.406  23.373   2.577 -0.2977  0.1287 -0.1353
25875W        W68787  24.641  24.397   0.922  0.1866  0.3037 -0.3937
25876W        W68788  23.094  22.201  31.597 -0.0245 -0.0468 -0.2152
25877W        W68789  22.950  22.377   0.091  0.4318 -0.0652 -0.0065
25878W        W68790  21.432  23.831   3.639 -0.2103 -0.3332 -0.1780
25879W        W68791  23.255  24.234   2.245  0.0658 -0.1798  0.1246
25880W        W68792  23.670  24.524   2.092 -0.3558  0.0603  0.4940
25881W        W68793  23.779  23.105  30.832 -0.0453  0.3459  0.1398
25882W        W68794  27.075  24.050   1.363 -0.2143  0.0811 -0.1860
25883W        W68795  22.035  25.204   1.232  0.3843 -0.1013  0.1206
25884W        W68796  23.901  23.982   2.988 -0.0609 -0.1310 -0.1382
25885W        W68797  23.606  23.572   0.706 -0.0140 -0.2625 -0.2918
25886W        W68798  22.185  21.264   1.964  0.1045  0.0184  0.0082
25887W        W68799  21.943  24.115   0.558 -0.0004  0.1035  0.3679
25888W        W68800  23.508  21.812   1.314  0.1520 -0.0111 -0.0300
25889W        W68801  21.414  25.528   0.538  0.1333  0.2003  0.0682
25890W        W68802  24.462  22.135   0.575 -0.4388 -0.1148 -0.0793
25891W        W68803  24.530  22.248   2.930 -0.2187  0.0511 -0.2905
25892W        W68804  23.528  22.124   2.903  0.1621 -0.0540  0.1002
25893W        W68805  25.050  22.805   3.203 -0.0169  0.2303 -0.0569
25894W        W68806  25.551  22.784   0.131 -0.2764  0.1154  0.0610
25895W        W68807  21.787  21.416   1.265 -0.0635 -0.0317 -0.1201
25896W        W68808  22.301  25.992   0.688 -0.5032  0.1692 -0.1654
25897W        W68809  23.083  22.516   3.150 -0.0581  0.2984 -0.2061
25898W        W68810  22.156  22.718   1.334 -0.2766 -0.1759 -0.0791
25899W        W68811  22.103  25.217   1.792 -0.4569 -0.1288  0.1128
25900W        W68812  25.541  25.416   3.316 -0.1142  0.0787 -0.1612
25901W        W68813  22.782  25.103   1.920  0.2295 -0.3257 -0.0686
25902W        W68814  23.218  21.750   4.521  0.1465  0.1790  0.1640
25903W        W68815  23.867  24.060   0.125  0.1445  0.2998 -0.3809
25904W        W68816  24.015  25.145   1.302  0.1038  0.3027 -0.0079
25905W        W68817  23.792  24.650   1.170  0.1447 -0.0089  0.1988
25906W        W68818  21.301  20.981   1.285  0.0227 -0.1877  0.2384
25907W        W68819  22.517  25.168   0.964 -0.1371  0.2099 -0.1090
25908W        W68820  22.605  23.909  31.188 -0.0508 -0.3334 -0.3632
25909W        W68821  23.999  22.014   2.629 -0.0406  0.0937  0.0170
25910W        W68822  23.309  25.524   1.380  0.0457 -0.1168 -0.1380
25911W        W68823  24.345  24.870  31.867 -0.2262 -0.2811 -0.4713
25912W        W68824  23.103  25.082   0.469 -0.1977  0.1898  0.0377
25913W        W68825  21.854  23.337  30.317 -0.1308 -0.3144 -0.0172
25914W        W68826  23.042  25.014  31.929 -0.0469 -0.1527 -0.2398
25915W        W68827  24.572  22.895   1.601 -0.1203  0.3207  0.0160
25916W        W68828  24.213  23.578   0.561  0.0131 -0.0905  0.1303
25917W        W68829  21.419  21.728   1.921 -0.5623  0.3921 -0.0489
25918W        W68830  21.845  21.975   1.050 -0.0284  0.2142  0.0732
25919W        W68831  21.593  23.932   2.868  0.1548  0.1943  0.2481
25920W        W68832  25.645  23.992   1.383 -0.0984 -0.2887  0.3996
25921W        W68833  23.861  20.579  31.184 -0.1559 -0.2748  0.1016
25922W        W68834  25.302  23.212   3.054 -0.3212  0.3430 -0.1591
25923W        W68835  22.943  23.780   2.296  0.2294  0.1258  0.0363
25924W        W68836  21.788  23.316  31.098  0.0542 -0.0044 -0.1562
25925W        W68837  24.535  21.772   2.670  0.0519  0.1392 -0.0993
25926W        W68838  22.292  22.107   1.276  0.1842  0.1931 -0.0004
25927W        W68839  21.498  24.562   1.675  0.0402 -0.2760  0.1294
25928W        W68840  23.478  23.789   2.674  0.1896 -0.0876  0.0782
25929W        W68841  22.726  22.951   1.153  0.1681 -0.1707  0.0061
25930W        W68842  22.988  22.474   0.592  0.0054 -0.1080 -0.0536
25931W        W68843  23.422  22.416   4.325  0.0377 -0.1054  0.0174
25932W        W68844  26.496  24.478   1.990  0.2278  0.4121 -0.1838
25933W        W68845  22.600  21.529   1.767  0.0953  0.1174 -0.4230
25934W        W68846  22.106  23.716   0.898 -0.1941 -0.3128 -0.0670
25935W        W68847  22.078  23.688   2.815  0.1819  0.3460  0.1752
25936W        W68848  25.377  23.190   2.021 -0.4074  0.3161 -0.2011
25937W        W68849  23.694  21.715   2.144 -0.1013 -0.1141  0.4553
25938W        W68850  21.993  23.301   3.729 -0.1207 -0.0515  0.0023
25939W        W68851  24.182  21.749   3.148  0.0388 -0.0515  0.1136
25940W        W68852  26.770  25.396   0.804 -0.0351  0.0500 -0.1139
25941W        W68853  23.263  23.344   2.895  0.0414 -0.1960  0.0598
25942W        W68854  22.408  24.968   0.019 -0.0537 -0.0272  0.0043
25943W        W68855  21.835  24.352   2.054 -0.0619  0.0663  0.1359
25944W        W68856  23.668  23.050   0.756 -0.1859  0.1713 -0.1217
25945W        W68857  23.485  22.841   2.831 -0.2674 -0.5348 -0.2228
25946W        W68858  21.645  23.870   1.942 -0.2702  0.0145  0.2026
25947W        W68859  23.145  24.464   0.465 -0.1105  0.0492  0.1260
25948W        W68860  25.244  24.571   2.772  0.0018 -0.0918 -0.1087
25949W        W68861  24.467  22.496   0.013  0.2344  0.0217 -0.2491
25950W        W68862  25.216  24.618   0.106 -0.1332  0.1746  0.0066
25951W        W68863  21.621  22.821   1.203 -0.2571 -0.1360 -0.1072
25952W        W68864  25.822  22.137   1.770  0.4108 -0.0039 -0.0621
25953W        W68865  24.326  23.836   0.172  0.0167  0.1666 -0.2127
25954W        W68866  23.753  23.070   3.145  0.1909 -0.3920 -0.2906
25955W        W68867  23.591  22.076   1.773 -0.3169  0.0515  0.1412
25956W        W68868  24.560  25.227   1.529 -0.1066  0.1505 -0.2776
25957W        W68869  21.154  22.900   3.607 -0.0593 -0.0616 -0.3318
25958W        W68870  25.798  26.459   2.633 -0.1918  0.3657  0.2978
25959W        W68871  22.801  23.063   1.615 -0.0510 -0.2190  0.0258
25960W        W68872  23.293  23.053   1.517  0.0636  0.0908  0.3509
25961W        W68873  22.079  21.913   0.143 -0.0340 -0.1470  0.1900
25962W        W68874  22.439  24.980   1.583 -0.0785 -0.0150 -0.3596
25963W        W68875  26.027  24.294   0.316 -0.0985 -0.1653 -0.0161
25964W        W68876  24.200  25.766   0.793 -0.0321  0.2197  0.1004
25965W        W68877  24.327  23.835   1.057  0.2220  0.2368 -0.6039
25966W        W68878  23.154  23.995   1.801 -0.3171 -0.1812 -0.0693
25967W        W68879  24.631  24.117   1.337 -0.3407  0.1163  0.0280
25968W        W68880  24.157  24.463   0.794  0.0589  0.1422  0.1186
25969W        W68881  23.376  25.500   0.573 -0.1680 -0.0238 -0.2969
25970W        W68882  23.446  22.419   0.756 -0.2067 -0.2165 -0.1222
25971W        W68883  24.046  23.622   3.451  0.1382  0.0823  0.0937
25972W        W68884  23.908  22.694   2.265  0.1538 -0.0282  0.1078
25973W        W68885  24.589  23.613   1.523 -0.1459  0.1290  0.2163
25974W        W68886  23.921  23.428   1.912 -0.1282  0.0092 -0.0480
25975W        W68887  22.159  23.080   2.335  0.1956  0.1303 -0.2387
25976W        W68888  22.467  22.315   4.697  0.0426 -0.0396  0.2472
25977W        W68889  26.219  24.239   3.450  0.1805 -0.1438 -0.0081
25978W        W68890  25.272  23.761   0.228 -0.0825  0.0248  0.1233
25979W        W68891  23.428  22.372   3.725  0.0061  0.5053 -0.2254
25980W        W68892  26.282  23.297   0.694 -0.0734 -0.4172 -0.2983
25981W        W68893  24.810  23.931   0.063 -0.2623  0.4713  0.1144
25982W        W68894  21.462  22.556   0.774  0.0159  0.3122  0.2545
25983W        W68895  25.214  23.438   2.537  0.2418  0.0217 -0.1286
25984W        W68896  23.197  23.519   0.075 -0.0517 -0.0669 -0.0621
25985W        W68897  23.131  22.826   1.942 -0.0256  0.0015 -0.0046
25986W        W68898  24.216  26.234   0.581  0.0848 -0.1637 -0.1570
25987W        W68899  24.095  24.742   2.204 -0.3067 -0.1357 -0.1429
25988W        W68900  24.594  23.037   0.295 -0.2573  0.1472 -0.1615
25989W        W68901  22.082  22.005   2.371 -0.0093  0.0109  0.1539
25990W        W68902  24.648  23.773   2.455 -0.2406  0.1023 -0.1603
25991W        W68903  21.533  22.505   0.083 -0.0423  0.0275  0.0828
25992W        W68904  21.517  23.614  31.449 -0.0933  0.0226  0.1721
25993W        W68905  25.091  24.751   2.292 -0.1115  0.1924 -0.1072
25994W        W68906  25.250  23.511   4.668  0.1395  0.3247 -0.0338
25995W        W68907  23.373  21.218   0.465  0.0732 -0.0122 -0.0298
25996W        W68908  25.290  22.836   2.381 -0.0390  0.0898 -0.1550
25997W        W68909  21.158  24.119   1.735  0.0201  0.1628 -0.0198
25998W        W68910  23.118  22.479   1.636 -0.4365  0.0344  0.1579
25999W        W68911  23.422  23.612   2.160  0.1634 -0.1726 -0.1826
26000W        W68912  22.278  23.784   1.470  0.1150  0.0344 -0.1020
26001W        W68913  22.663  25.259   0.353  0.1401  0.0148  0.0532
26002W        W68914  22.653  22.003   1.792 -0.1397  0.1639 -0.0571
26003W        W68915  22.331  23.330   1.151 -0.1134 -0.0966  0.0510
26004W        W68916  23.422  24.024   0.446  0.1646 -0.1273 -0.0481
26005W        W68917  24.685  23.622   3.429  0.0852 -0.0767  0.0546
26006W        W68918  25.379  25.048   2.581 -0.3253  0.1845 -0.3228
26007W        W68919  22.067  23.638   1.871 -0.1772  0.2814  0.0241
26008W        W68920  24.230  24.838   3.343  0.1367  0.0047 -0.0084
26009W        W68921  25.159  24.712   0.876 -0.2037 -0.0145  0.1519
26010W        W68922  22.095  24.776   0.919 -0.0208  0.0157  0.0111
26011W        W68923  21.692  21.284   4.485 -0.1467  0.0911 -0.2594
26012W        W68924  24.081  23.022   2.742  0.0050  0.1183 -0.2462
26013W        W68925  22.447  23.337   1.767 -0.2977 -0.2050 -0.1819
26014W        W68926  21.655  21.308   1.734  0.2943  0.0475 -0.1832
26015W        W68927  22.953  23.936   0.590 -0.1282 -0.2370 -0.0480
26016W        W68928  22.165  23.855   3.664  0.1615  0.0512 -0.0652
26017W        W68929  20.485  21.953   2.624 -0.1600  0.0857 -0.6262
26018W        W68930  21.472  26.058   0.494 -0.1083  0.0029  0.4286
26019W        W68931  23.747  24.023  31.310 -0.1297  0.0870  0.0893
26020W        W68932  24.537  24.193  31.807 -0.0758  0.2399  0.0978
26021W        W68933  23.306  25.964   2.680 -0.5167  0.1924  0.1273
26022W        W68934  23.470  23.456  31.328  0.1725  0.1809 -0.1161
26023W        W68935  22.145  24.736   1.923  0.2382  0.3286  0.0719
26024W        W68936  20.361  23.899  31.854 -0.0275  0.0220  0.6591
26025W        W68937  24.695  23.982   1.842 -0.0549 -0.2940  0.1180
26026W        W68938  23.170  24.831   1.129 -0.1617 -0.3277 -0.1868
26027W        W68939  24.794  23.327   2.999 -0.1637 -0.1423 -0.0863
26028W        W68940  24.777  21.313   1.713 -0.0250 -0.0290 -0.1060
26029W        W68941  24.927  23.149   0.791 -0.2890 -0.0134 -0.2641
26030W        W68942  23.936  22.605  30.706 -0.3022 -0.0321 -0.1022
26031W        W68943  25.561  26.367   3.616  0.0296  0.2334  0.1863
26032W        W68944  23.779  24.842   2.983 -0.0675  0.0517  0.1116
26033W        W68945  23.643  23.595  30.813 -0.2452 -0.0578 -0.0825
26034W        W68946  22.721  23.122   2.138  0.0380 -0.2296 -0.0306
26035W        W68947  24.048  21.468   2.298  0.0016  0.1544  0.1129
26036W        W68948  22.273  24.862   3.550 -0.0322  0.1397 -0.0290
26037W        W68949  24.077  24.234   1.214 -0.1534 -0.0144 -0.1611
26038W        W68950  21.202  23.068   0.674  0.1814 -0.4153  0.0109
26039W        W68951  24.361  23.717   2.059 -0.1632  0.2178  0.0919
26040W        W68952  24.277  20.957   2.399  0.3491  0.0459  0.3304
26041W        W68953  24.884  22.553  30.961  0.3421  0.2937 -0.0635
26042W        W68954  22.134  21.813   1.806 -0.0976 -0.0552  0.0260
26043W        W68955  22.558  26.599   0.629 -0.1969 -0.1648 -0.2249
26044W        W68956  23.425  24.289   2.983  0.0565  0.2817 -0.0732
26045W        W68957  22.179  25.656   1.013 -0.1996  0.0569  0.1336
26046W        W68958  21.997  23.022   0.198  0.3880  0.0128 -0.4104
26047W        W68959  26.092  23.370   0.126 -0.0136 -0.0126  0.1897
26048W        W68960  22.892  22.275   4.352  0.0785 -0.1313 -0.0439
26049W        W68961  23.964  21.033   3.619  0.1677 -0.2022 -0.1262
26050W        W68962  23.781  23.838   1.144  0.2430 -0.0349 -0.2590
26051W        W68963  24.607  23.968   0.618 -0.1603  0.2398  0.0037
26052W        W68964  24.770  24.947   3.377 -0.0577 -0.1248 -0.0626
26053W        W68965  22.477  21.521   0.861  0.0049 -0.0202  0.0462
26054W        W68966  22.889  24.207  31.589 -0.1400 -0.2615 -0.3087
26055W        W68967  25.406  23.596   1.748 -0.0661  0.0248 -0.3584
26056W        W68968  23.468  24.724  29.993  0.0575  0.0940 -0.0335
26057W        W68969  22.919  25.261   2.950 -0.1123 -0.3568 -0.0378
26058W        W68970  20.963  21.785   1.135  0.1971 -0.3707  0.1005
26059W        W68971  22.958  23.976   0.053 -0.0968 -0.1394  0.1754
26060W        W68972  23.347  20.697   1.145  0.0389  0.4720  0.0901
26061W        W68973  24.088  23.168   2.278  0.0330 -0.0256 -0.0076
26062W        W68974  24.736  24.077   3.200 -0.0369  0.2486  0.0294
26063W        W68975  20.804  21.044   0.822 -0.1533 -0.0629 -0.1131
26064W        W68976  24.765  24.841   0.151  0.3699  0.2155 -0.1631
26065W        W68977  24.461  23.337   0.974  0.0182 -0.2317  0.0853
26066W        W68978  23.214  25.916   0.778  0.2294  0.2756 -0.1466
26067W        W68979  26.097  22.342   1.184 -0.1042 -0.0190 -0.1159
26068W        W68980  24.760  24.784   1.478  0.1444 -0.4730  0.1340
26069W        W68981  21.177  23.151   3.115  0.2490  0.1962  0.0907
26070W        W68982  24.934  25.432   1.839  0.0149 -0.4102  0.1964
26071W        W68983  25.986  24.413   1.911  0.0586  0.1901  0.1219
26072W        W68984  24.704  20.712  31.296 -0.0748  0.0768 -0.1024
26073W        W68985  22.289  22.897   1.854  0.2265  0.2388 -0.0741
26074W        W68986  23.022  24.696   2.072  0.0111 -0.0119  0.2331
26075W        W68987  25.371  22.991   1.089 -0.1595 -0.2230  0.1992
26076W        W68988  22.663  21.729   1.290  0.0054  0.1256 -0.0456
26077W        W68989  23.865  24.626  31.898  0.2018 -0.1198  0.1008
26078W        W68990  24.511  22.913   2.371 -0.0809 -0.2176  0.1360
26079W        W68991  24.480  23.230   1.936  0.1638  0.2223  0.1564
26080W        W68992  22.159  23.895   4.560 -0.1247 -0.2089 -0.0059
26081W        W68993  22.174  23.455  31.952 -0.1825  0.1638 -0.2314
26082W        W68994  22.930  22.895   2.710  0.0705  0.0577  0.0026
26083W        W68995  23.426  24.360   0.913 -0.0678 -0.0039  0.2764
26084W        W68996  23.088  24.452   1.528  0.1892 -0.1680  0.1072
26085W        W68997  24.750  24.987   1.970 -0.1646  0.1546  0.1058
26086W        W68998  23.563  24.181   1.469  0.1917 -0.3224 -0.0407
26087W        W68999  25.049  23.879   1.548 -0.1210  0.2168 -0.2295
26088W        W69000  23.616  21.887   0.834  0.3295 -0.2333  0.2119
26089W        W69001  24.452  23.420  31.271  0.2887  0.1777 -0.3158
26090W        W69002  25.289  21.528  31.783 -0.2590  0.1075 -0.1550
26091W        W69003  22.759  24.256   2.223  0.0574 -0.1879  0.3783
26092W        W69004  20.824  23.129  30.044 -0.3142 -0.1962 -0.0127
26093W        W69005  23.023  25.340  31.508 -0.3563  0.1351 -0.2508
26094W        W69006  22.738  23.555   1.439 -0.1117 -0.4643  0.2082
26095W        W69007  23.632  21.992   4.164 -0.0311 -0.0582  0.0519
26096W        W69008  22.641  24.503   1.761 -0.1080 -0.0984  0.0450
26097W        W69009  20.950  22.545   1.920 -0.0887  0.1003  0.0493
26098W        W69010  23.519  22.303   1.330 -0.0510  0.1933  0.0329
26099W        W69011  25.367  23.826   0.979 -0.1492 -0.0220 -0.3388
26100W        W69012  21.368  22.164   1.155  0.1192  0.1734  0.1323
26101W        W69013  21.182  22.123   1.657  0.1021 -0.1149  0.0238
26102W        W69014  24.376  24.574   2.560 -0.0713 -0.2357 -0.1743
26103W        W69015  24.495  25.110   2.465 -0.1599 -0.3318  0.1421
26104W        W69016  24.102  22.974   1.844  0.3984  0.0316  0.1639
26105W        W69017  24.800  23.510   3.925  0.2517 -0.2577  0.5991
26106W        W69018  22.388  23.882   0.484  0.2536  0.3653  0.0435
26107W        W69019  23.087  21.724   1.862  0.1847 -0.1547 -0.0741
26108W        W69020  23.384  22.749   2.373  0.1112  0.0814  0.1940
26109W        W69021  21.390  21.418   0.284 -0.1036 -0.2613 -0.0625
26110W        W69022  22.988  21.151   1.848  0.0410  0.0829 -0.1855
26111W        W69023  24.011  24.430   3.100  0.2746 -0.1776 -0.1759
26112W        W69024  23.543  25.426  31.682 -0.1904  0.1330 -0.2290
26113W        W69025  22.965  23.492   1.883  0.0390  0.0728  0.1075
26114W        W69026  23.853  23.674   2.379  0.0900  0.0863 -0.1325
26115W        W69027  21.098  20.812   2.613  0.0888  0.0463  0.0598
26116W        W69028  23.674  24.029   1.907  0.0683  0.1896 -0.1871
26117W        W69029  22.862  24.288   3.128  0.2112  0.0355 -0.1255
26118W        W69030  26.031  25.220   0.392 -0.2561  0.4138  0.2367
26119W        W69031  24.399  22.098   1.648  0.1287 -0.0996 -0.1650
26120W        W69032  23.698  23.653  31.704  0.1048 -0.1106  0.1512
26121W        W69033  23.142  22.012   3.369  0.0793 -0.1685  0.0336
26122W        W69034  22.081  23.626   4.128 -0.2905 -0.3014  0.2518
26123W        W69035  26.991  24.614   1.999  0.5296 -0.0892  0.0033
26124W        W69036  22.249  21.565   1.390  0.2290  0.2636  0.1727
26125W        W69037  23.929  22.604   0.984  0.0326  0.0344 -0.4003
26126W        W69038  23.245  23.128  31.040 -0.0733 -0.0328 -0.5453
26127W        W69039  22.586  23.786   1.873  0.4172 -0.3612  0.0642
26128W        W69040  24.123  22.879  31.292 -0.1572 -0.1156  0.0117
26129W        W69041  22.383  23.492   2.258  0.0445  0.0424 -0.2788
26130W        W69042  23.775  25.478   2.207 -0.3433 -0.3518 -0.4093
26131W        W69043  24.429  23.383   4.321  0.0617 -0.0559  0.0843
26132W        W69044  21.178  22.321  30.598  0.0226  0.0136  0.0074
26133W        W69045  25.851  23.848   0.116 -0.1564 -0.0939  0.1519
26134W        W69046  23.022  24.761   3.014  0.1278  0.1703 -0.0236
26135W        W69047  24.283  24.054   2.603 -0.0735 -0.0703 -0.1420
26136W        W69048  22.107  26.111   1.320  0.0011  0.0093 -0.2246
26137W        W69049  25.104  24.484   1.323  0.0760  0.0613 -0.1413
26138W        W69050  21.190  22.615   3.143  0.3438 -0.1111 -0.0244
26139W        W69051  23.103  23.327   1.153 -0.3187 -0.2535  0.0912
26140W        W69052  23.254  23.819   1.088  0.1325 -0.2005 -0.3758
26141W        W69053  23.445  22.757   1.159  0.0842 -0.0409 -0.2467
26142W        W69054  21.143  23.267  31.617  0.0786 -0.1213 -0.2329
26143W        W69055  24.824  22.211  31.748  0.1300  0.2270  0.1288
26144W        W69056  24.523  25.357   3.058  0.1145  0.1392 -0.0015
26145W        W69057  23.600  23.111   2.108  0.1415  0.1042 -0.0803
26146W        W69058  23.198  23.646   6.048  0.0837  0.2650 -0.0979
26147W        W69059  23.389  22.008   5.196  0.2816  0.1417  0.1747
26148W        W69060  24.275  22.525   2.593 -0.0844  0.0984 -0.2151
26149W        W69061  24.904  23.163   4.603 -0.0465 -0.0808  0.1693
26150W        W69062  22.275  21.984   3.232  0.1214 -0.1923  0.1927
26151W        W69063  24.140  24.883   3.889  0.0668 -0.1932  0.0338
26152W        W69064  23.499  21.820   6.540  0.2626 -0.2447  0.0138
26153W        W69065  23.676  24.866   6.596 -0.0529  0.1394  0.1703
26154W        W69066  24.266  24.669   5.651 -0.0988  0.1073  0.1630
26155W        W69067  23.529  23.579   3.742 -0.1506  0.0722 -0.1682
26156W        W69068  22.478  22.202   5.209 -0.0248 -0.4486 -0.5067
26157W        W69069  21.048  24.170   5.593 -0.0887 -0.5098 -0.2659
26158W        W69070  22.877  21.416   4.371 -0.3850  0.1947  0.1186
26159W        W69071  20.830  20.789   4.583 -0.2091  0.0059  0.0358
26160W        W69072  24.030  23.374   7.176  0.0628 -0.1328  0.0271
26161W        W69073  20.651  22.909   4.900 -0.0538 -0.0687 -0.1520
26162W        W69074  22.309  22.559   6.617 -0.1858 -0.1497  0.0437
26163W        W69075  22.466  23.377   5.422  0.2182 -0.0493 -0.3048
26164W        W69076  22.169  25.815   3.900  0.0308  0.2914 -0.3505
26165W        W69077  24.112  23.119   7.605  0.0829  0.0968 -0.0636
26166W        W69078  24.078  22.024   7.175  0.0413 -0.0083 -0.1823
26167W        W69079  22.261  24.526   4.439 -0.0683  0.0719 -0.2639
26168W        W69080  22.707  22.251   3.376 -0.3484  0.0278 -0.0198
26169W        W69081  22.226  23.909   6.759  0.0681  0.0599 -0.0368
26170W        W69082  23.222  22.921   6.784 -0.0985  0.0019  0.0527
26171W        W69083  23.134  22.183   5.626  0.0638 -0.0681 -0.3806
26172W        W69084  23.161  24.948   4.222 -0.3357  0.0491 -0.0742
26173W        W69085  23.125  25.792   4.103  0.2577 -0.0586 -0.0491
26174W        W69086  24.614  22.426   7.702  0.0719  0.2458 -0.2373
26175W        W69087  20.952  23.043   4.443  0.2571 -0.1549 -0.1737
26176W        W69088  19.528  25.373   5.198 -0.0135 -0.1787 -0.2250
26177W        W69089  22.347  22.829   4.540  0.0286  0.0960  0.0931
26178W        W69090  24.742  24.830   5.442 -0.0008 -0.1219  0.1026
26179W        W69091  24.458  25.228   6.375  0.1924  0.0421 -0.0515
26180W        W69092  23.567  25.915   5.070 -0.3868  0.1262 -0.2443
26181W        W69093  20.075  22.965   5.446  0.0717 -0.0165  0.1523
26182W        W69094  23.470  24.305   7.214 -0.0087  0.3842  0.2574
26183W        W69095  23.247  23.940   6.956 -0.1786 -0.3290 -0.0422
26184W        W69096  23.643  24.552   5.142 -0.0245 -0.4695  0.2351
26185W        W69097  23.561  24.357   4.013 -0.0527 -0.0427  0.1106
26186W        W69098  22.446  24.592   3.165 -0.0456  0.0846  0.1029
26187W        W69099  22.239  24.131   4.117 -0.1864  0.0149  0.2847
26188W        W69100  22.998  23.645   7.313  0.3263  0.0038  0.0229
26189W        W69101  22.147  24.076   6.317 -0.0550 -0.0092 -0.1156
26190W        W69102  24.913  22.370   6.900 -0.0299 -0.1939 -0.2485
26191W        W69103  21.709  23.984   4.127  0.0524 -0.1749 -0.0824
26192W        W69104  25.965  22.901   0.951  0.0589  0.0335 -0.0708
26193W        W69105  23.627  23.290   1.284 -0.1488 -0.1680 -0.1155
26194W        W69106  24.170  22.528   3.536 -0.1140 -0.2409 -0.0259
26195W        W69107  24.447  20.545   5.780  0.0311 -0.2453  0.2578
26196W        W69108  21.897  24.988   4.315 -0.0081 -0.1436 -0.1243
26197W        W69109  23.614  22.288   5.711  0.1546  0.0352  0.3475
26198W        W69110  25.739  24.194   7.822  0.0583  0.2047 -0.0897
26199W        W69111  22.196  22.916   5.096  0.0821  0.1750 -0.0684
26200W        W69112  24.263  21.128   6.256 -0.3973  0.2633  0.2824
26201W        W69113  23.183  24.983   4.837  0.2137  0.0335 -0.0521
26202W        W69114  20.871  21.277   5.897  0.1862 -0.0948 -0.0194
26203W        W69115  26.009  24.663   3.763  0.0440  0.1293  0.0246
26204W        W69116  24.374  24.721   5.083  0.0538 -0.0927 -0.1119
26205W        W69117  24.339  23.776   3.838 -0.2297  0.1083  0.1396
26206W        W69118  22.502  23.458   3.821 -0.0116 -0.3212 -0.0874
26207W        W69119  22.418  22.856   7.024 -0.0588 -0.2643  0.0723
26208W        W69120  22.370  22.890   7.512 -0.0933 -0.0025 -0.2422
26209W        W69121  22.660  21.756   3.678 -0.1236  0.0161  0.0408
26210W        W69122  24.872  22.719   7.262 -0.1280 -0.1035  0.1058
26211W        W69123  22.172  23.571   6.296  0.3223  0.1035  0.0017
26212W        W69124  24.753  23.673   4.689 -0.1185  0.1473 -0.1067
26213W        W69125  23.639  23.774   5.762 -0.1420  0.3505  0.0432
26214W        W69126  24.481  24.381   6.413  0.1761  0.0689 -0.0279
26215W        W69127  25.699  24.086   3.677 -0.1735 -0.0428 -0.0169
26216W        W69128  23.189  22.703   5.722  0.1418 -0.1984 -0.0216
26217W        W69129  23.422  21.362   6.689  0.0584 -0.1301  0.2494
26218W        W69130  23.089  23.007   3.895  0.0421  0.3112  0.1158
26219W        W69131  22.279  23.515   3.305  0.1076  0.0598 -0.1472
26220W        W69132  24.893  23.663   7.545  0.4593  0.0912 -0.2413
26221W        W69133  23.998  23.131   3.622  0.4128 -0.0963 -0.4912
26222W        W69134  21.779  24.572   5.217 -0.1339 -0.3977 -0.1347
26223W        W69135  21.887  22.958   6.888 -0.2230  0.1575 -0.4630
26224W        W69136  23.793  23.931   6.880 -0.0357  0.0673  0.0827
26225W        W69137  21.493  24.112   5.480  0.3963 -0.1651  0.0445
26226W        W69138  20.695  24.097   5.181 -0.2305  0.1776  0.1390
26227W        W69139  22.229  22.262   4.290 -0.0045  0.0602 -0.1926
26228W        W69140  21.186  21.391   5.379  0.1299  0.0048  0.2327
26229W        W69141  23.168  24.303   5.081  0.2155 -0.0828  0.1421
26230W        W69142  25.286  22.796   5.028  0.1778 -0.1416  0.2122
26231W        W69143  22.856  21.622   6.400 -0.1181  0.1003 -0.0311
26232W        W69144  25.189  21.133   4.578  0.0194  0.0226  0.0946
26233W        W69145  21.579  22.852   3.342 -0.1926  0.0527 -0.0541
26234W        W69146  24.245  24.888   4.437 -0.0733 -0.0538  0.0528
26235W        W69147  23.840  23.521   4.196 -0.1164 -0.0097 -0.1099
26236W        W69148  23.475  25.057   2.241 -0.1221  0.1715 -0.3076
26237W        W69149  22.909  21.283   6.749 -0.0202  0.1161 -0.0346
26238W        W69150  21.734  23.107   5.127 -0.0364  0.0020 -0.2767
26239W        W69151  22.732  22.576   7.397 -0.0034  0.1247 -0.3727
26240W        W69152  22.660  22.804   5.178 -0.0472  0.0658  0.1857
26241W        W69153  23.677  22.506   7.336 -0.0031  0.1120  0.2485
26242W        W69154  21.813  21.870   3.161 -0.1175 -0.1285  0.0142
26243W        W69155  24.095  21.494   4.876 -0.3722 -0.4329 -0.0110
26244W        W69156  23.384  23.501   5.448 -0.0285  0.1200 -0.1856
26245W        W69157  21.102  22.632   6.256  0.1934 -0.0081  0.0046
26246W        W69158  24.741  21.853   6.123  0.1939  0.1711  0.1601
26247W        W69159  24.282  24.114   3.462 -0.3553 -0.1830  0.1632
26248W        W69160  23.996  25.369   5.657  0.1513  0.2206  0.0910
26249W        W69161  25.130  25.418   4.643  0.1735  0.2178 -0.1164
26250W        W69162  23.410  21.334   7.291 -0.2015 -0.2604  0.1380
26251W        W69163  22.914  21.436   5.885  0.0034 -0.2940 -0.0288
26252W        W69164  21.735  25.422   5.291 -0.1620  0.0164 -0.1108
26253W        W69165  20.908  23.197   5.507 -0.4111  0.0352  0.0388
26254W        W69166  22.028  21.678   4.459  0.3162  0.1316 -0.0365
26255W        W69167  24.714  25.143   3.892 -0.1968  0.1951 -0.3431
26256W        W69168  23.360  25.376   3.957  0.0428  0.3117 -0.2257
26257W        W69169  21.724  23.738   6.865 -0.0866 -0.0823 -0.0837
26258W        W69170  24.591  21.884   5.665 -0.0012  0.2592 -0.2181
26259W        W69171  26.604  23.460   6.261 -0.1387 -0.0515 -0.1349
26260W        W69172  24.181  23.631   4.638  0.0792 -0.0071 -0.3222
26261W        W69173  21.372  22.103   3.416  0.2057  0.0647  0.0267
26262W        W69174  24.230  25.173   4.864  0.1115  0.0727 -0.1745
26263W        W69175  21.121  22.640   5.643 -0.0565 -0.0967  0.1794
26264W        W69176  21.577  21.763   5.403 -0.2472  0.0687  0.0634
26265W        W69177  23.534  25.051   5.157 -0.1521  0.0596  0.0998
26266W        W69178  24.637  21.880   4.347  0.2295  0.2753  0.0110
26267W        W69179  20.321  23.781   5.912  0.2416 -0.2546  0.2020
26268W        W69180  23.817  22.124   8.347 -0.3412  0.0715  0.1089
26269W        W69181  22.768  22.857   3.509 -0.0896  0.0676 -0.0548
26270W        W69182  22.726  25.243   6.455 -0.1499 -0.1919  0.2188
26271W        W69183  22.780  21.939   5.967  0.1202 -0.2596  0.0256
26272W        W69184  23.489  23.006   5.426  0.0031 -0.2129 -0.2248
26273W        W69185  23.878  24.257   5.686 -0.2855  0.1827 -0.2064
26274W        W69186  23.736  25.408   4.877  0.1597 -0.4013  0.0183
26275W        W69187  25.110  22.569   4.148 -0.1990  0.0673  0.2039
26276W        W69188  23.081  21.892   4.025 -0.0246 -0.2857 -0.1894
26277W        W69189  22.447  22.753   6.203 -0.2403  0.2990 -0.0922
26278W        W69190  23.209  23.940   3.179  0.0464 -0.0643 -0.1211
26279W        W69191  23.118  24.111   4.555 -0.2715  0.4309  0.0798
26280W        W69192  24.278  23.261   3.185  0.3080  0.1372  0.0030
26281W        W69193  25.126  24.242   5.526 -0.2867  0.0303 -0.0894
26282W        W69194  21.103  23.701   5.420 -0.0268  0.1342  0.1451
26283W        W69195  23.857  23.168   8.040  0.2978 -0.1993  0.0135
26284W        W69196  23.117  25.388   5.776  0.0790 -0.1405  0.0551
26285W        W69197  23.727  20.815   6.758 -0.0751  0.0548 -0.0996
26286W        W69198  23.634  22.478   3.303  0.1641 -0.1390  0.1615
26287W        W69199  23.395  22.813   4.798  0.1458 -0.0419 -0.1099
26288W        W69200  20.190  24.814   3.425 -0.1573  0.0906  0.0643
26289W        W69201  24.761  22.350   5.856 -0.2962 -0.0832  0.4982
26290W        W69202  23.962  22.008   6.692 -0.1719 -0.2286 -0.1013
26291W        W69203  23.199  21.285   6.232  0.1433  0.2611  0.0767
26292W        W69204  26.023  22.323   7.229 -0.1622 -0.1613 -0.1764
26293W        W69205  24.172  22.854   4.107  0.1978  0.0206  0.0071
26294W        W69206  24.265  22.631   5.779 -0.0846  0.1984  0.0144
26295W        W69207  22.047  22.823   3.003 -0.1078  0.0492  0.0284
26296W        W69208  23.530  23.272   7.596 -0.1847 -0.5745  0.4451
26297W        W69209  22.359  23.717   5.806  0.0145  0.1000  0.4207
26298W        W69210  21.697  25.032   5.635  0.0023 -0.0272  0.0339
26299W        W69211  24.390  23.703   7.410 -0.1106  0.0798  0.0426
26300W        W69212  23.964  23.931   4.946  0.0209  0.0310 -0.1048
26301W        W69213  24.780  21.324   7.532 -0.1134 -0.2280 -0.0109
26302W        W69214  23.192  22.829   4.379  0.0163 -0.0803  0.1809
26303W        W69215  21.831  24.525   5.753  0.0300  0.1057  0.2311
26304W        W69216  22.319  24.025   3.221 -0.1079  0.0582 -0.0548
26305W        W69217  23.046  20.773   6.156  0.0803 -0.1105 -0.1218
26306W        W69218  22.309  24.201   4.988 -0.1734 -0.2644 -0.2131
26307W        W69219  22.593  25.080   4.413 -0.0855  0.0788 -0.1261
26308W        W69220  23.751  23.046   6.973  0.0523 -0.0592 -0.1150
26309W        W69221  20.851  23.980   6.086  0.1156 -0.2569 -0.3259
26310W        W69222  23.774  21.182   5.849 -0.0149 -0.2461 -0.1101
26311W        W69223  21.187  25.382   5.365 -0.0664  0.1081  0.0089
26312W        W69224  22.687  23.245   4.967  0.4502 -0.0412 -0.2420
26313W        W69225  22.043  21.034   5.205 -0.0458  0.4059 -0.1247
26314W        W69226  24.605  22.638   3.869  0.0141 -0.2818  0.0483
26315W        W69227  23.675  22.830   4.376  0.1611  0.0872  0.3614
26316W        W69228  21.870  21.846   7.187 -0.1375 -0.1448  0.0259
26317W        W69229  23.777  21.493   6.266 -0.1314  0.0152  0.0352
26318W        W69230  20.270  25.028   5.456  0.0105 -0.1176  0.2275
26319W        W69231  24.009  23.982   7.336  0.2477  0.2213 -0.3033
26320W        W69232  24.399  21.718   2.013 -0.2828 -0.0590  0.0477
26321W        W69233  24.277  24.673   7.778  0.0435 -0.1347  0.2428
26322W        W69234  23.606  22.141   7.001  0.0437 -0.2684  0.0849
26323W        W69235  21.854  22.662   4.299  0.1394  0.2158  0.1238
26324W        W69236  25.180  22.845   6.578  0.0462  0.2445  0.3992
26325W        W69237  22.332  23.143   6.523  0.0879 -0.3343 -0.3525
26326W        W69238  22.521  24.961   5.312  0.0451  0.0187 -0.0560
26327W        W69239  24.072  25.717   5.313 -0.0049  0.0323 -0.0568
26328W        W69240  22.481  22.246   3.850  0.0979  0.0950 -0.2225
26329W        W69241  22.016  23.021   6.109  0.1879  0.3025  0.0489
26330W        W69242  21.901  22.542   7.908  0.3478  0.0792  0.0084
26331W        W69243  24.390  23.590   6.188  0.0655  0.0180 -0.2685
26332W        W69244  21.128  21.840   6.724  0.0930  0.1068  0.1095
26333W        W69245  22.767  23.112   4.293 -0.1077  0.4400  0.1634
26334W        W69246  22.432  23.215   6.056  0.0149  0.0047  0.1395
26335W        W69247  24.882  23.072   6.241  0.0100  0.3213  0.1386
26336W        W69248  23.633  22.626   6.707  0.1119  0.1248 -0.0944
26337W        W69249  23.456  23.849   7.617 -0.0733 -0.5034 -0.4034
26338W        W69250  23.427  22.732   6.150  0.1647  0.0646 -0.1123
26339W        W69251  25.721  25.235   6.731  0.1939 -0.2008  0.2948
26340W        W69252  24.636  23.247   7.353 -0.2084 -0.2045  0.2459
26341W        W69253  22.772  24.000   4.010 -0.0185 -0.1242 -0.3650
26342W        W69254  20.934  23.938   4.613  0.1296 -0.3146 -0.2799
26343W        W69255  23.093  23.508   3.422 -0.1864  0.1460  0.1224
26344W        W69256  23.127  22.498   6.479 -0.0322  0.0950 -0.2611
26345W        W69257  23.532  24.371   6.516 -0.0365 -0.2409  0.1862
26346W        W69258  21.731  23.633   5.412  0.1009 -0.1220  0.3757
26347W        W69259  23.097  24.516   6.251  0.1084  0.1259  0.3611
26348W        W69260  24.971  22.974   3.898  0.1036 -0.3223 -0.0346
26349W        W69261  24.567  22.779   2.882 -0.2005  0.0258 -0.2330
26350W        W69262  23.702  23.525   5.067 -0.1838  0.2150  0.3239
26351W        W69263  25.709  22.707   6.731 -0.0222  0.2902  0.0197
26352W        W69264  24.702  22.393   3.413  0.0305  0.1584  0.1160
26353W        W69265  24.449  21.894   8.009 -0.0246  0.0623 -0.2085
26354W        W69266  23.439  22.245   6.182 -0.1417 -0.1192 -0.0963
26355W        W69267  24.196  23.994   5.928  0.5718  0.0738 -0.3651
26356W        W69268  20.992  21.739   5.817 -0.1429  0.0927  0.0284
26357W        W69269  24.191  24.205   6.780 -0.1160 -0.0056  0.2355
26358W        W69270  23.516  23.574   7.181 -0.1740  0.1927  0.0619
26359W        W69271  23.833  22.532   4.056  0.1768 -0.0298 -0.0397
26360W        W69272  22.908  21.477   5.023 -0.2318  0.2644 -0.1047
26361W        W69273  20.877  24.524   5.960 -0.2675  0.3220 -0.2496
26362W        W69274  23.382  24.578   4.504  0.0717 -0.0205  0.1677
26363W        W69275  24.306  24.301   3.983  0.1517 -0.0426 -0.2243
26364W        W69276  24.486  23.917   4.283 -0.1768  0.0572  0.0530
26365W        W69277  22.905  23.376   6.388 -0.3467 -0.0824 -0.1834
26366W        W69278  24.617  22.787   4.446  0.1700  0.1174  0.0845
26367W        W69279  22.678  23.836   3.523  0.3716 -0.0770 -0.2287
26368W        W69280  19.863  21.957   5.847  0.1419  0.2537 -0.1098
26369W        W69281  24.305  22.796   7.986 -0.0682 -0.1231 -0.0685
26370W        W69282  23.837  22.858   5.903  0.2252 -0.1202  0.0577
26371W        W69283  22.777  22.873   6.596  0.0525  0.1608  0.1273
26372W        W69284  24.166  21.604   5.794  0.1423 -0.1173  0.2159
26373W        W69285  23.488  23.666   6.563 -0.0489 -0.0186 -0.2119
26374W        W69286  23.343  22.919   7.295  0.0535  0.0851  0.0969
26375W        W69287  20.154  20.811   4.909 -0.5164  0.0857  0.4089
26376W        W69288  24.865  24.318   6.720  0.1101  0.3628  0.0866
26377W        W69289  24.217  23.035   4.564  0.3154  0.3273  0.0833
26378W        W69290  24.445  23.563   5.152  0.1429  0.1214 -0.0361
26379W        W69291  23.900  23.000   6.405  0.1731 -0.2480 -0.1102
26380W        W69292  22.708  23.284   3.258  0.1977 -0.1488  0.0377
26381W        W69293  22.702  20.382   6.202  0.4244 -0.0301  0.3354
26382W        W69294  23.749  23.497   6.193  0.0574 -0.1384  0.0498
26383W        W69295  23.780  22.387   4.662  0.0107  0.2165  0.2345
26384W        W69296  25.092  22.623   6.106 -0.2562  0.0564  0.0905
26385W        W69297  23.574  23.572   3.219 -0.0970 -0.3398  0.1013
26386W        W69298  23.899  24.522   4.286  0.0747 -0.0245 -0.0856
26387W        W69299  23.182  24.060   3.674  0.1862 -0.3325 -0.0707
26388W        W69300  22.342  22.257   5.851 -0.0604  0.2479 -0.2061
26389W        W69301  22.773  24.711   6.599  0.1212  0.0085 -0.1872
26390W        W69302  22.450  21.442   4.626 -0.2335 -0.3370  0.1803
26391W        W69303  23.630  22.834   3.680  0.2595 -0.0762 -0.2060
26392W        W69304  23.589  24.036   5.302  0.0767 -0.2681 -0.2809
26393W        W69305  25.494  23.422   8.472 -0.0707 -0.0718  0.1142
26394W        W69306  23.270  21.241   4.598  0.2574 -0.2734  0.3589
26395W        W69307  23.909  21.936   6.121  0.0284  0.0181  0.1305
26396W        W69308  22.649  22.295   6.351 -0.4241 -0.2873 -0.2724
26397W        W69309  22.377  21.856   5.573  0.3167 -0.2016  0.0712
26398W        W69310  22.007  25.009   5.254  0.0796  0.3060  0.0377
26399W        W69311  21.350  24.725   6.305  0.0027  0.1073  0.0886
26400W        W69312  21.387  23.763   5.854 -0.0709  0.0793 -0.1999
26401W        W69313  24.450  21.803   6.937 -0.0957 -0.2052  0.0762
26402W        W69314  23.870  22.665   5.455  0.3543  0.0668  0.1696
26403W        W69315  24.007  24.977   5.308 -0.1048 -0.0094 -0.0654
26404W        W69316  24.958  23.440   8.493  0.1316 -0.0959  0.0655
26405W        W69317  24.842  24.442   5.166  0.3389 -0.3137 -0.1928
26406W        W69318  22.369  21.730   5.048  0.1529  0.0045 -0.2206
26407W        W69319  24.403  23.174   6.409  0.0693 -0.1825 -0.0973
26408W        W69320  25.133  22.673   5.586 -0.0596  0.1170 -0.1173
26409W        W69321  22.835  23.466   5.744  0.0146  0.0401  0.0184
26410W        W69322  22.443  22.233   7.764  0.0848 -0.2472  0.2743
26411W        W69323  24.148  23.550   8.232  0.0031  0.1483  0.0268
26412W        W69324  24.311  24.375   4.571 -0.0017 -0.0028  0.0213
26413W        W69325  22.896  22.059   4.938  0.2751  0.1197 -0.2184
26414W        W69326  23.163  23.247   2.421 -0.1008  0.2406 -0.0304
26415W        W69327  21.828  24.272   6.756 -0.3603  0.0630  0.1909
26416W        W69328  20.122  23.350   6.227 -0.0052  0.1628  0.1241
26417W        W69329  22.164  25.529   3.406  0.0336  0.1694 -0.1240
26418W        W69330  23.315  23.942   4.158 -0.1831  0.1439  0.1259
26419W        W69331  23.578  24.192   3.420  0.2240  0.0978  0.3197
26420W        W69332  24.581  24.838   6.100  0.2909 -0.3539  0.0391
26421W        W69333  22.987  23.514   3.941 -0.0281 -0.1419  0.2524
26422W        W69334  20.612  23.656   5.449  0.0836 -0.0173  0.0120
26423W        W69335  21.797  23.754   3.324 -0.3487  0.0710 -0.2828
26424W        W69336  23.966  24.468   3.636 -0.1531  0.0263  0.0575
26425W        W69337  21.764  24.559   4.177  0.0690  0.1623 -0.1132
26426W        W69338  24.069  23.559   6.540 -0.0325  0.0989 -0.0947
26427W        W69339  24.328  21.498   4.443  0.4028 -0.0056  0.0370
26428W        W69340  24.715  22.858   5.775  0.0858 -0.5759  0.0440
26429W        W69341  24.523  23.098   4.945  0.0642 -0.0118  0.3427
26430W        W69342  22.226  23.738   8.290 -0.1409 -0.0761  0.1453
26431W        W69343  24.268  23.127   5.942 -0.6779  0.0011 -0.1916
26432W        W69344  24.518  21.609   3.923 -0.2492 -0.1041 -0.1194
26433W        W69345  22.694  23.814   6.148  0.0691  0.0927 -0.1649
26434W        W69346  24.340  22.140   6.096  0.3510  0.3528 -0.0080
26435W        W69347  23.160  24.692   7.264 -0.1363  0.1011 -0.0755
26436W        W69348  25.149  24.848   3.760  0.0068  0.0842  0.3950
26437W        W69349  21.896  23.049   4.689 -0.2446  0.1372  0.2082
26438W        W69350  22.256  24.484   5.382  0.1261  0.5408  0.1142
26439W        W69351  24.879  23.118   6.925  0.2253  0.0482 -0.1747
26440W        W69352  22.787  23.444   2.692  0.1519 -0.4708 -0.0973
26441W        W69353  24.053  22.491   6.916 -0.2311  0.0065 -0.0966
26442W        W69354  22.094  23.491   5.097 -0.2769  0.1202  0.2201
26443W        W69355  22.688  24.554   5.001  0.0937 -0.1437  0.3446
26444W        W69356  22.314  24.474   6.646 -0.2518  0.0318 -0.0589
26445W        W69357  22.660  20.879   4.213  0.3282  0.0180 -0.4491
26446W        W69358  25.985  22.761   3.633 -0.0339  0.3230  0.0574
26447W        W69359  22.552  23.534   6.672 -0.1503 -0.0067  0.0244
26448W        W69360  25.248  21.989   6.207  0.4087 -0.0629  0.1164
26449W        W69361  22.080  23.078   5.591 -0.2816  0.0238 -0.1801
26450W        W69362  23.802  23.263   4.652 -0.1665 -0.2236  0.2530
26451W        W69363  23.990  24.399   6.184 -0.0991 -0.3017  0.1069
26452W        W69364  23.169  21.700   7.047  0.2069 -0.1685  0.1586
26453W        W69365  23.214  22.985   3.343  0.2155 -0.1588  0.1001
26454W        W69366  25.548  23.199   6.352  0.1741  0.2944  0.2307
26455W        W69367  24.112  22.708   3.110 -0.1914 -0.2813  0.1927
26456W        W69368  23.964  25.247   6.445  0.1504 -0.1063 -0.3452
26457W        W69369  23.250  21.767   6.093  0.0411 -0.0852 -0.0890
26458W        W69370  24.358  22.187   3.807 -0.5275 -0.2622 -0.2926
26459W        W69371  21.778  23.456   5.946 -0.1628  0.4926  0.2488
26460W        W69372  21.181  23.740   6.297 -0.2821 -0.2774  0.0340
26461W        W69373  24.489  23.891   6.546 -0.0176 -0.1123 -0.1331
26462W        W69374  23.782  20.337   6.303  0.2063  0.1236  0.0136
26463W        W69375  25.061  24.092   2.379 -0.0366 -0.0191  0.0906
26464W        W69376  24.553  22.692   6.263  0.0555  0.3694 -0.1213
26465W        W69377  23.947  23.532   2.874  0.0435  0.0353 -0.0298
26466W        W69378  24.048  23.862   5.433  0.0523 -0.0834  0.0881
26467W        W69379  25.537  24.426   5.776  0.0016 -0.0545 -0.3280
26468W        W69380  22.317  21.935   7.307 -0.1702 -0.0369  0.1200
26469W        W69381  24.382  24.345   7.408 -0.3171 -0.1504  0.2181
26470W        W69382  25.185  24.340   6.235  0.2430  0.0926 -0.1825
26471W        W69383  22.807  22.460   5.883  0.2000  0.3090 -0.1521
26472W        W69384  22.903  23.686   5.306  0.1968 -0.0377 -0.0882
26473W        W69385  21.855  25.822   4.829 -0.3393  0.6344 -0.3626
26474W        W69386  24.798  22.593   4.921 -0.2347  0.1396 -0.2232
26475W        W69387  24.396  22.799   7.137  0.0341 -0.1386 -0.0165
26476W        W69388  22.730  23.761   3.027  0.2147 -0.1647  0.0157
26477W        W69389  24.321  20.520   7.667  0.3181  0.0061 -0.3351
26478W        W69390  22.274  24.260   7.099 -0.1190 -0.2073  0.4009
26479W        W69391  22.748  24.581   5.641 -0.0198 -0.0423 -0.0110
26480W        W69392  22.078  23.122   4.200  0.1104 -0.2616 -0.1184
26481W        W69393  23.428  23.202   5.892 -0.2536 -0.0003 -0.3854
26482W        W69394  22.825  24.603   4.523  0.0315  0.2071 -0.1880
26483W        W69395  23.530  24.826   3.939  0.0112 -0.1203  0.0885
26484W        W69396  24.032  24.932   6.023  0.1562 -0.2319  0.1233
26485W        W69397  23.246  23.229   5.030  0.0184  0.0869  0.3639
26486W        W69398  24.895  23.538   6.135 -0.0224  0.0504 -0.1250
26487W        W69399  22.973  23.119   5.450  0.3013  0.0108  0.3000
26488W        W69400  25.531  21.864   3.033 -0.3178 -0.1707 -0.2535
26489W        W69401  23.322  22.248   4.748 -0.1057  0.1176 -0.1218
26490W        W69402  22.719  22.476   6.891  0.1395  0.0284  0.2613
26491W        W69403  21.907  22.428   4.776 -0.0303  0.1466 -0.0380
26492W        W69404  22.621  23.778   4.832  0.0986  0.0909  0.0000
26493W        W69405  22.061  24.006   5.440 -0.0098 -0.3764 -0.2662
26494W        W69406  23.866  21.443   7.625 -0.1045 -0.1610  0.3867
26495W        W69407  23.290  22.182   7.458 -0.2161 -0.2114  0.2406
26496W        W69408  21.615  22.797   5.546 -0.1707 -0.1737 -0.1630
26497W        W69409  23.106  20.157   5.903  0.0383 -0.1387  0.2479
26498W        W69410  25.418  24.793   4.138  0.1397  0.2561  0.0057
26499W        W69411  21.981  22.545   5.333 -0.1012 -0.0658 -0.0952
26500W        W69412  21.866  21.916   5.739  0.1495  0.0591  0.1507
26501W        W69413  23.771  25.854   4.141 -0.0881 -0.0210  0.3008
26502W        W69414  23.586  23.769   4.619 -0.4115 -0.1260  0.3332
26503W        W69415  23.123  22.574   5.243  0.3861 -0.2693 -0.4310
26504W        W69416  24.581  23.817   8.133  0.2854  0.0040  0.1206
26505W        W69417  22.257  22.504   3.304 -0.0851 -0.0883  0.0617
26506W        W69418  23.698  22.190   7.793 -0.1660 -0.0116  0.0019
26507W        W69419  23.315  21.336   7.822 -0.0701 -0.1573 -0.1866
26508W        W69420  21.699  19.982   4.123 -0.0464 -0.3101  0.0669
26509W        W69421  22.560  22.851   5.647  0.2074 -0.2462 -0.0623
26510W        W69422  23.093  24.501   3.974 -0.1974 -0.0985 -0.4946
26511W        W69423  24.718  24.047   3.711 -0.1406  0.4032  0.0141
26512W        W69424  23.083  23.499   6.853 -0.1680 -0.0126 -0.1265
26513W        W69425  23.590  24.675   6.134 -0.1122 -0.0010 -0.3211
26514W        W69426  20.243  21.210   6.429  0.2015 -0.0151  0.1275
26515W        W69427  24.824  24.342   4.319 -0.4326  0.0876 -0.1924
26516W        W69428  21.829  23.981   5.898 -0.0463 -0.1327  0.3700
26517W        W69429  25.019  23.203   5.166  0.0166 -0.1282 -0.2605
26518W        W69430  24.718  21.882   4.847  0.0026 -0.3067 -0.2816
26519W        W69431  23.459  23.216   4.105  0.4871 -0.0847 -0.0922
26520W        W69432  22.110  21.747   7.750  0.0695 -0.3349 -0.0944
26521W        W69433  21.702  23.327   6.465  0.2031 -0.1431 -0.1904
26522W        W69434  25.635  24.909   5.996 -0.1460 -0.1188  0.0237
26523W        W69435  22.450  21.328   5.431  0.1803 -0.0896  0.3385
26524W        W69436  24.088  23.207   5.183 -0.3100 -0.2920  0.5515
26525W        W69437  23.869  23.965   3.804 -0.0706 -0.2582 -0.1611
26526W        W69438  21.340  22.963   6.528 -0.3107  0.1452  0.0504
26527W        W69439  23.848  23.272   5.637  0.3305  0.0514 -0.2343
26528W        W69440  24.052  22.523   6.302  0.0000 -0.2017  0.2739
26529W        W69441  23.199  23.953   5.651  0.2708 -0.1284  0.2747
26530W        W69442  25.285  22.850   7.540 -0.0140 -0.1062 -0.3292
26531W        W69443  23.139  23.527   4.411 -0.1571 -0.2209 -0.1404
26532W        W69444  23.910  22.788   4.959 -0.2874  0.4046 -0.0825
26533W        W69445  22.892  24.210   5.910 -0.0704  0.1714  0.3358
26534W        W69446  24.143  24.748   6.475 -0.2544 -0.0118 -0.3276
26535W        W69447  22.383  24.860   5.740 -0.1992  0.0533  0.0557
26536W        W69448  24.480  23.478   6.898 -0.3694 -0.0416  0.1942
26537W        W69449  22.900  21.205   7.319  0.3864  0.3826  0.3230
26538W        W69450  23.414  23.172   6.408 -0.2319 -0.2022 -0.2310
26539W        W69451  22.998  22.917   6.162 -0.0020 -0.2473 -0.0554
26540W        W69452  23.579  22.447   5.123  0.0088 -0.0908 -0.0753
26541W        W69453  21.634  20.981   5.511 -0.4343 -0.0239  0.1016
26542W        W69454  23.815  21.962   3.444 -0.1822 -0.0112 -0.5977
26543W        W69455  22.216  25.178   6.100  0.3317  0.3243 -0.2011
26544W        W69456  23.888  23.996   6.396  0.1674 -0.0254  0.3005
26545W        W69457  21.113  24.167   9.699 -0.0299 -0.1510  0.2211
26546W        W69458  23.394  22.093   9.403  0.1375  0.1717 -0.1109
26547W        W69459  24.304  22.136   8.473 -0.2207 -0.1452  0.0235
26548W        W69460  23.635  24.057   8.852  0.0303 -0.1130  0.0009
26549W        W69461  22.429  21.497   8.574  0.0318  0.1931 -0.0838
26550W        W69462  23.446  25.173   8.710  0.0596 -0.1107  0.0238
26551W        W69463  23.283  23.662  10.072 -0.1565  0.0319  0.0368
26552W        W69464  24.929  23.645  10.019  0.2551  0.4298 -0.2197
26553W        W69465  23.482  24.154   6.043 -0.0703  0.0003  0.1917
26554W        W69466  22.873  21.522  10.155  0.2202  0.0318  0.0492
26555W        W69467  23.485  21.601   9.402  0.2263  0.0283 -0.0772
26556W        W69468  22.141  21.775   9.666 -0.2021  0.2373  0.0584
26557W        W69469  23.663  24.048   9.383  0.0143 -0.2045 -0.0228
26558W        W69470  22.105  22.033   8.661 -0.0743 -0.2603 -0.2907
26559W        W69471  23.826  22.922  11.398  0.3020  0.2343 -0.0204
26560W        W69472  23.711  21.722   8.925 -0.2020  0.4604  0.0302
26561W        W69473  23.451  24.981   9.780  0.0241  0.1184  0.0177
26562W        W69474  23.279  22.581  10.346  0.0781  0.2517 -0.2212
26563W        W69475  22.808  23.505   8.002 -0.1455  0.2153 -0.1985
26564W        W69476  22.834  23.118   7.113  0.0788 -0.2339  0.1142
26565W        W69477  20.637  22.633   9.965 -0.1481  0.1457  0.1709
26566W        W69478  21.669  22.862   9.891  0.1575 -0.0472  0.2429
26567W        W69479  25.410  24.012  10.075  0.0538 -0.0768  0.2836
26568W        W69480  22.852  22.924  10.633 -0.1332  0.2924  0.1923
26569W        W69481  22.840  24.261   9.495  0.2334 -0.3115  0.0455
26570W        W69482  22.945  24.198   7.367 -0.1545 -0.1549  0.0035
26571W        W69483  21.178  23.479   9.520  0.1545 -0.1148 -0.0249
26572W        W69484  21.027  24.190   8.320 -0.2044  0.0523  0.0889
26573W        W69485  22.968  23.324   8.441  0.1694 -0.1318  0.0609
26574W        W69486  24.074  24.301   9.803 -0.0989 -0.1015 -0.2061
26575W        W69487  21.212  23.744   8.726 -0.0893  0.3445 -0.0319
26576W        W69488  24.685  23.256  10.253 -0.0246 -0.0652  0.1419
26577W        W69489  23.181  22.737   9.088  0.0349  0.0220 -0.0440
26578W        W69490  22.071  23.062   7.980 -0.0073 -0.0319  0.1511
26579W        W69491  23.979  22.612   8.383 -0.0317 -0.2144 -0.0765
26580W        W69492  22.599  24.859   9.089  0.0829  0.4046 -0.0825
26581W        W69493  21.914  24.077   8.608  0.3238  0.2091  0.1267
26582W        W69494  25.228  23.126   8.767  0.0142  0.0484 -0.1709
26583W        W69495  23.419  22.442   8.644 -0.0132  0.2871 -0.0257
26584W        W69496  25.513  21.996   8.630  0.0525 -0.2277 -0.1120
26585W        W69497  22.669  21.629  10.664 -0.5079  0.1572  0.0750
26586W        W69498  22.918  24.048  10.045 -0.0138 -0.3080 -0.1290
26587W        W69499  23.059  22.178   9.869 -0.0597 -0.0344 -0.2479
26588W        W69500  23.117  22.221   8.994 -0.1135 -0.0159 -0.2828
26589W        W69501  26.405  23.731  10.165  0.2128  0.2787 -0.3646
26590W        W69502  21.464  23.986   9.977  0.1791 -0.0421 -0.2130
26591W        W69503  22.132  22.899   9.720  0.2785 -0.1156 -0.0601
26592W        W69504  23.716  24.261   7.672 -0.0877 -0.3408 -0.1437
26593W        W69505  25.705  23.877  10.500  0.2349  0.2021 -0.2562
26594W        W69506  22.546  23.745   7.154 -0.0507  0.0164 -0.0290
26595W        W69507  22.404  22.467   8.556 -0.0289 -0.1000 -0.1524
26596W        W69508  22.857  20.835   9.243 -0.0793  0.1675  0.1019
26597W        W69509  23.997  23.731   9.415  0.0054  0.0303 -0.1955
26598W        W69510  22.787  23.274   9.168  0.1999  0.1023  0.0020
26599W        W69511  25.189  25.278   9.689  0.2354  0.1713  0.0528
26600W        W69512  24.225  23.075   8.438  0.0542 -0.1225  0.1009
26601W        W69513  25.362  22.586  10.127 -0.1488 -0.1862  0.1068
26602W        W69514  22.687  20.098  10.304  0.0720 -0.0085  0.1100
26603W        W69515  23.000  23.198   7.579  0.1292 -0.1034 -0.0325
26604W        W69516  22.685  22.862   8.848  0.2757 -0.3575 -0.1982
26605W        W69517  26.743  23.403   9.913  0.1802  0.0373 -0.1708
26606W        W69518  24.912  23.460   8.982 -0.5956  0.1110  0.1834
26607W        W69519  21.672  24.878   9.431 -0.1997  0.0496 -0.0739
26608W        W69520  22.757  24.079   6.729 -0.3843  0.0415 -0.2218
26609W        W69521  21.091  24.338   9.095  0.0662  0.2880 -0.1415
26610W        W69522  21.730  21.854   6.642  0.1058  0.0338  0.3621
26611W        W69523  24.262  24.033  10.623  0.3159 -0.1069  0.2775
26612W        W69524  21.513  24.290   9.381 -0.0539 -0.1522 -0.2875
26613W        W69525  25.298  22.755   9.093  0.0232  0.3505  0.0638
26614W        W69526  25.845  23.297   9.323 -0.0285 -0.0562 -0.0413
26615W        W69527  20.826  23.127   8.177 -0.0081  0.2019  0.0828
26616W        W69528  24.615  23.034   8.714 -0.0597 -0.4649  0.1592
26617W        W69529  24.431  22.882  10.537 -0.1218  0.0997 -0.3259
26618W        W69530  24.590  24.190   8.877  0.0111  0.0205  0.2733
26619W        W69531  20.280  21.958   9.559  0.2227 -0.4938 -0.0383
26620W        W69532  21.318  23.314   8.514  0.0559  0.0137 -0.1769
26621W        W69533  21.895  22.245   9.657  0.0365  0.0160 -0.1088
26622W        W69534  21.570  20.984   8.772  0.1731  0.0039  0.3018
26623W        W69535  22.261  22.530   9.399  0.2499 -0.1583 -0.3060
26624W        W69536  22.141  23.621   8.748 -0.2148  0.3502  0.1762
26625W        W69537  20.730  24.008   9.277  0.1166  0.1277 -0.3270
26626W        W69538  23.593  23.582   9.072 -0.1336  0.0888 -0.0331
26627W        W69539  25.078  22.729   9.628  0.0046 -0.2210  0.1298
26628W        W69540  24.052  24.849   9.546  0.1802  0.1205  0.1991
26629W        W69541  21.666  22.224   9.051  0.0455  0.4005 -0.3430
26630W        W69542  22.608  22.103   8.282 -0.3327 -0.3228 -0.0136
26631W        W69543  22.210  24.040   9.027 -0.0873  0.0802 -0.1253
26632W        W69544  23.349  24.355   9.198  0.0917 -0.2550 -0.0831
26633W        W69545  22.513  21.170   8.996 -0.0911  0.0756  0.2283
26634W        W69546  23.586  24.457   9.700  0.0201 -0.2997  0.4670
26635W        W69547  24.260  22.505   9.923  0.2382 -0.0114 -0.1330
26636W        W69548  22.851  23.356  10.147  0.0526 -0.0511  0.2948
26637W        W69549  24.520  23.693   9.226 -0.1032 -0.1461  0.0715
26638W        W69550  21.675  19.914   8.191 -0.1013  0.1265 -0.1373
26639W        W69551  24.142  24.038   8.993  0.0178 -0.1992 -0.0659
26640W        W69552  21.797  24.580   8.706 -0.3348 -0.0285  0.2747
26641W        W69553  21.419  22.506   9.528  0.2803 -0.0156  0.0484
26642W        W69554  22.581  23.873   8.621 -0.0588  0.1497 -0.1988
26643W        W69555  25.193  23.203   9.861 -0.0813 -0.3116 -0.2913
26644W        W69556  22.135  22.562   8.929 -0.0945  0.0418 -0.2271
26645W        W69557  24.537  21.199   8.377 -0.0284  0.2252 -0.1783
26646W        W69558  25.756  21.993   8.167  0.1348 -0.0389  0.0555
26647W        W69559  24.298  24.917   8.582 -0.0123  0.2038 -0.2306
26648W        W69560  25.229  22.958   8.269 -0.2168  0.1002  0.0729
26649W        W69561  23.371  21.900   8.518 -0.2783  0.1985  0.0127
26650W        W69562  22.959  23.668   9.556  0.0674  0.1226  0.2016
26651W        W69563  25.646  22.163  10.068 -0.1722 -0.3513  0.0224
26652W        W69564  22.989  21.672   8.132 -0.3334 -0.2228 -0.2458
26653W        W69565  25.022  24.527   7.879  0.0382  0.3358 -0.1428
26654W        W69566  21.079  25.530   9.998  0.1752 -0.0294 -0.3082
26655W        W69567  23.602  23.115   8.484  0.2116 -0.0195 -0.1080
26656W        W69568  23.067  20.415  10.202  0.3209  0.0504  0.0438
26657W        W69569  23.060  22.014   6.682  0.1531 -0.0770 -0.1909
26658W        W69570  23.159  21.216   9.728  0.3814 -0.1506  0.0790
26659W        W69571  22.163  23.453   6.923  0.0049 -0.1160  0.2659
26660W        W69572  26.674  22.898   9.807  0.0427 -0.2782 -0.1603
26661W        W69573  22.604  22.327   9.052 -0.2107 -0.0731  0.0245
26662W        W69574  25.049  21.864   9.264  0.2171  0.3512 -0.0194
26663W        W69575  22.734  23.181   9.661 -0.0915 -0.0759 -0.1886
26664W        W69576  22.919  22.351   8.568  0.0903 -0.0944 -0.0845
26665W        W69577  23.644  22.834  10.842 -0.4276  0.2688  0.1740
26666W        W69578  21.870  26.003  10.385  0.3429 -0.1021 -0.1999
26667W        W69579  23.239  24.239   8.737 -0.0322 -0.0353 -0.0761
26668W        W69580  23.615  21.747   8.019  0.1460 -0.0769  0.0654
26669W        W69581  22.632  24.144   8.139  0.0069  0.1974 -0.0402
26670W        W69582  23.984  21.829   9.309  0.0878 -0.0836 -0.0729
26671W        W69583  22.290  21.306   9.835 -0.0954  0.0478  0.2423
26672W        W69584  23.547  23.590   9.620  0.0172  0.3698  0.0182
26673W        W69585  23.339  23.547   8.009  0.0833 -0.1496 -0.1428
26674W        W69586  23.195  25.740   9.408 -0.0507 -0.4934  0.2446
26675W        W69587  22.686  24.315   8.983 -0.0514 -0.0441 -0.5133
26676W        W69588  24.927  21.160   9.816 -0.1554 -0.0872  0.0427
26677W        W69589  20.321  24.825   9.422  0.0484 -0.3526 -0.0466
26678W        W69590  22.575  22.940   8.399 -0.1673 -0.3162  0.1957
26679W        W69591  22.348  22.629   8.092  0.0655  0.0772 -0.2926
26680W        W69592  23.713  21.804   9.766  0.0094  0.1895 -0.1029
26681W        W69593  24.491  23.570   8.596 -0.2211 -0.1197  0.0685
26682W        W69594  21.758  23.288   9.511 -0.0310  0.0885 -0.2127
26683W        W69595  21.201  22.266  10.438  0.1710  0.1973  0.0797
26684W        W69596  23.853  24.920  10.774  0.2970  0.0567 -0.0689
26685W        W69597  25.664  22.566   9.702  0.2290  0.1808  0.2644
26686W        W69598  22.863  22.553   8.114 -0.1619  0.2005 -0.0421
26687W        W69599  26.548  24.382   9.706  0.0251  0.0292  0.0252
26688W        W69600  22.988  21.858   9.322  0.2443 -0.0603 -0.2064
26689W        W69601  21.201  23.388   7.941 -0.2949 -0.0721 -0.2084
26690W        W69602  22.939  22.397   9.422 -0.2942 -0.1642  0.1491
26691W        W69603  22.545  23.370   8.748  0.0698 -0.0951 -0.2191
26692W        W69604  20.579  24.498   9.105  0.0219 -0.1427 -0.2383
26693W        W69605  22.306  23.104   9.267 -0.0896  0.0956 -0.0466
26694W        W69606  24.560  21.347  10.172  0.1087  0.2695  0.1197
26695W        W69607  21.355  22.742   9.092  0.0060 -0.0802  0.1261
26696W        W69608  24.458  21.982   9.850 -0.1241  0.0040 -0.0873
26697W        W69609  22.026  23.860   9.983 -0.2040 -0.1974 -0.1213
26698W        W69610  22.438  21.260  10.291  0.2932 -0.2474  0.0036
26699W        W69611  26.350  20.542  10.052  0.0644 -0.2264  0.0555
26700W        W69612  25.159  25.200   8.188  0.3252  0.0343 -0.0597
26701W        W69613  23.513  22.672   8.254 -0.0572 -0.0663 -0.1672
26702W        W69614  20.909  23.139   9.814  0.2543  0.0132 -0.0540
26703W        W69615  23.005  23.662   8.819  0.0978  0.1066 -0.3671
26704W        W69616  24.020  20.652  12.143  0.0950  0.1239 -0.2225
26705W        W69617  23.363  23.046  10.475  0.3835 -0.3952 -0.0390
26706W        W69618  22.519  23.359   7.474  0.1813  0.0122  0.1352
26707W        W69619  21.039  22.774  10.200  0.2688 -0.0675 -0.4281
26708W        W69620  25.262  21.812   7.650  0.0727  0.0172 -0.1264
26709W        W69621  24.115  23.319   8.844  0.3114  0.3187  0.2544
26710W        W69622  24.533  22.358  10.343 -0.0456  0.0907  0.0842
26711W        W69623  24.686  22.411   8.289 -0.0092 -0.0523 -0.0431
26712W        W69624  21.079  23.660  10.025 -0.3638  0.3075 -0.2823
26713W        W69625  24.758  22.708   9.098  0.2545  0.2460 -0.6316
26714W        W69626  24.492  21.808   9.372  0.1501 -0.2885  0.1926
26715W        W69627  21.909  21.385   7.963 -0.1006 -0.0412  0.0262
26716W        W69628  21.745  23.494  10.142  0.2027  0.2362 -0.1997
26717W        W69629  23.281  23.168   9.402 -0.5312 -0.1082 -0.2320
26718W        W69630  23.691  22.502   9.239  0.0623  0.1373  0.1518
26719W        W69631  24.365  23.217   9.264 -0.1530 -0.2980  0.2165
26720W        W69632  20.586  23.999   9.882 -0.1890 -0.1785  0.2491
26721W        W69633  23.269  23.221   8.855 -0.0808 -0.1272 -0.2610
26722W        W69634  24.513  23.325   8.018 -0.0353  0.0992 -0.0312
26723W        W69635  22.013  24.130   9.480 -0.2529  0.0505 -0.1689
26724W        W69636  27.616  21.795  10.336 -0.0380  0.1718  0.1233
26725W        W69637  24.319  23.552  10.201 -0.0323  0.0204  0.4447
26726W        W69638  23.892  27.407   9.400  0.0242 -0.1504 -0.2205
26727W        W69639  24.924  22.085   7.879 -0.0598  0.0522  0.0793
26728W        W69640  25.730  21.358   9.123 -0.0479  0.0073 -0.2215
26729W        W69641  24.155  22.826   8.996  0.1637 -0.0312  0.0131
26730W        W69642  23.793  23.160   9.246  0.2961  0.0425  0.3752
26731W        W69643  21.311  21.992   9.553  0.0063  0.2781  0.1142
26732W        W69644  22.635  21.805   7.707 -0.1803 -0.0882 -0.1771
26733W        W69645  23.256  22.271   8.166 -0.3347  0.0004  0.0734
26734W        W69646  23.804  23.905   9.930  0.0245 -0.1230 -0.1967
26735W        W69647  23.802  22.650  10.127  0.0334  0.1818  0.4183
26736W        W69648  21.404  21.395  10.157  0.2842 -0.2798 -0.2066
26737W        W69649  23.247  22.502   7.051 -0.3339 -0.0609  0.1024
26738W        W69650  22.654  22.999   7.901  0.1011  0.0857  0.4348
26739W        W69651  21.592  23.790   9.553  0.0694  0.1811 -0.1412
26740W        W69652  23.196  21.627   8.905 -0.0614 -0.2911  0.0298
26741W        W69653  20.331  24.227   8.791 -0.0028  0.3185  0.0932
26742W        W69654  23.406  21.118   9.310  0.1574 -0.1574  0.0171
26743W        W69655  23.006  25.145  10.003 -0.2641  0.1519  0.1370
26744W        W69656  21.788  24.386   9.854 -0.5022 -0.0419  0.0907
26745W        W69657  21.704  21.806   9.916  0.0425  0.1328 -0.0583
26746W        W69658  23.902  24.287  10.324  0.0037 -0.1526  0.1134
26747W        W69659  23.843  25.242   9.932 -0.2167  0.1138  0.2973
26748W        W69660  20.549  25.322  10.313  0.0170  0.2841 -0.3906
26749W        W69661  25.733  23.952   8.697  0.1600 -0.0140  0.1377
26750W        W69662  22.902  26.253  10.193  0.0529  0.3015  0.2099
26751W        W69663  23.548  22.190  10.073  0.0338 -0.1776 -0.3133
26752W        W69664  22.077  21.542   8.899  0.0853 -0.1155  0.1747
26753W        W69665  23.180  22.660   7.703  0.1132 -0.1494 -0.0031
26754W        W69666  20.169  23.820  10.048  0.1769 -0.0461  0.1065
26755W        W69667  22.198  24.292   8.290 -0.0754 -0.1020 -0.1187
26756W        W69668  24.142  22.516   7.511 -0.0115 -0.2122 -0.1811
26757W        W69669  23.965  23.303   9.824 -0.3101 -0.1751  0.2326
26758W        W69670  24.120  25.117  10.345  0.0888  0.0176  0.0034
26759W        W69671  22.509  22.135   9.579 -0.1121 -0.3818 -0.2150
26760W        W69672  21.429  24.219   8.718  0.0674  0.2571  0.4038
26761W        W69673  22.031  23.184   7.311 -0.3110 -0.2264 -0.2666
26762W        W69674  23.466  23.625   8.537  0.0584  0.1253  0.1956
26763W        W69675  20.707  24.517   9.663 -0.0985 -0.0317 -0.4831
26764W        W69676  25.395  22.310   7.731 -0.0434 -0.0725  0.2231
26765W        W69677  25.163  22.999  10.394  0.1646 -0.1110 -0.0328
26766W        W69678  26.423  24.076   9.221 -0.1291  0.1662 -0.0406
26767W        W69679  22.468  23.941   9.538 -0.1571 -0.0500  0.2321
26768W        W69680  22.930  22.182   7.800 -0.1890  0.1426  0.0634
26769W        W69681  24.629  24.737   8.116 -0.1010  0.0884 -0.2717
26770W        W69682  22.604  21.947  10.054 -0.3266 -0.0189 -0.1287
26771W        W69683  23.200  20.854  10.039 -0.0016 -0.0508  0.2364
26772W        W69684  25.792  21.707   9.883  0.2609 -0.4566  0.0782
26773W        W69685  23.359  24.457   5.629 -0.1138 -0.1634 -0.0994
26774W        W69686  23.648  21.323   9.876 -0.1114  0.1557 -0.0090
26775W        W69687  21.417  24.556   8.392  0.1824 -0.1196  0.1270
26776W        W69688  21.791  25.845   9.819  0.0213  0.3614  0.0097
26777W        W69689  24.360  26.721   9.699  0.2116  0.3001  0.1663
26778W        W69690  22.083  22.127   8.132  0.0715 -0.0244  0.2480
26779W        W69691  26.213  23.062   9.036  0.1095 -0.2196  0.0489
26780W        W69692  22.446  23.572  11.758 -0.1850  0.0801  0.0468
26781W        W69693  21.897  24.505   9.203 -0.1735  0.0237  0.2318
26782W        W69694  25.515  23.000   9.446  0.3115  0.0693 -0.0305
26783W        W69695  22.968  22.857  10.083  0.1850 -0.2664  0.1881
26784W        W69696  23.005  21.114  10.422  0.4238  0.0230  0.0871
26785W        W69697  23.960  22.220   8.896 -0.1374  0.0643  0.2116
26786W        W69698  25.046  22.611   8.613 -0.2805  0.1965 -0.0275
26787W        W69699  21.371  21.811   8.962  0.0098 -0.1920 -0.1291
26788W        W69700  24.791  21.550   8.921  0.0235 -0.2353  0.0939
26789W        W69701  20.869  24.579  10.372 -0.1564 -0.2575 -0.0760
26790W        W69702  24.019  22.107  10.116 -0.0980 -0.0014  0.0084
26791W        W69703  23.094  21.662   7.544  0.0978 -0.0209 -0.3022
26792W        W69704  24.868  24.210   8.407  0.0788 -0.0534  0.2880
26793W        W69705  24.220  22.952  10.012 -0.2479  0.1801  0.2038
26794W        W69706  23.255  24.478   7.714  0.0136  0.1514  0.0982
26795W        W69707  23.817  22.258   9.667 -0.3876  0.0871 -0.2670
26796W        W69708  24.977  26.427  10.344  0.0928 -0.4386 -0.1764
26797W        W69709  24.298  20.060   9.898 -0.1517 -0.1252 -0.0339
26798W        W69710  23.441  25.050   9.319 -0.0377 -0.2144 -0.0563
26799W        W69711  26.031  22.978   9.661 -0.1140  0.0046  0.2449
26800W        W69712  24.176  21.560   9.679 -0.1141  0.1290 -0.0093
26801W        W69713  21.697  23.876   9.011  0.2305  0.2199 -0.1513
26802W        W69714  21.200  24.550  10.021 -0.2261  0.1800 -0.1041
26803W        W69715  24.866  21.729   9.741 -0.0313 -0.1486  0.0664
26804W        W69716  23.175  24.909   5.858 -0.1980  0.0289 -0.0921
26805W        W69717  21.568  22.353  10.053  0.3282 -0.0732  0.1251
26806W        W69718  22.115  23.540   7.770 -0.3278 -0.0947  0.0917
26807W        W69719  23.014  24.359  10.421  0.1182  0.1048 -0.1598
26808W        W69720  24.462  24.678   6.947  0.0494  0.0091 -0.1472
26809W        W69721  25.052  23.828   8.148  0.2469 -0.0436 -0.0246
26810W        W69722  23.892  21.671   8.445  0.2738  0.2236 -0.1726
26811W        W69723  23.852  24.436   9.151 -0.2653 -0.0014 -0.2127
26812W        W69724  23.718  19.889  10.388  0.1456  0.0119  0.3061
26813W        W69725  25.938  22.725   9.285  0.1869  0.3371 -0.0461
26814W        W69726  24.188  21.654   8.868 -0.1420 -0.1660  0.2853
26815W        W69727  23.671  21.940  10.637  0.1997 -0.1199  0.2890
26816W        W69728  21.888  22.722   7.378  0.1548  0.2044 -0.0040
26817W        W69729  22.072  23.110   8.521  0.0131  0.0403 -0.0968
26818W        W69730  19.953  24.589   9.707  0.0396 -0.0035 -0.3020
26819W        W69731  21.268  23.224  10.167  0.1462 -0.2234 -0.0376
26820W        W69732  22.651  21.923   8.753  0.0892 -0.0108 -0.0754
26821W        W69733  24.169  24.058   7.925 -0.1370  0.1185  0.0117
26822W        W69734  22.436  21.013   9.463 -0.1370 -0.3644  0.2452
26823W        W69735  22.169  22.056   9.177  0.3318 -0.3017 -0.1771
26824W        W69736  25.158  23.876   8.823  0.1236  0.2208  0.1151
26825W        W69737  24.922  23.566   9.501 -0.0568 -0.1093  0.0973
26826W        W69738  22.926  21.372   9.245 -0.1316 -0.1554 -0.1808
26827W        W69739  22.071  24.078   7.815  0.0394 -0.0483  0.2261
26828W        W69740  21.886  20.581   8.600  0.1926 -0.0525 -0.1231
26829W        W69741  23.897  22.340  10.527  0.0099  0.0062  0.0968
26830W        W69742  22.985  23.834   8.301 -0.1625  0.1246 -0.0666
26831W        W69743  23.924  25.064   8.897  0.2326 -0.1176  0.2052
26832W        W69744  24.618  20.859  10.434 -0.1270  0.1109 -0.0467
26833W        W69745  23.672  22.785   7.774 -0.5197  0.1546  0.0620
26834W        W69746  25.816  24.987   8.924  0.0386 -0.1284  0.3196
26835W        W69747  27.247  22.315  10.335  0.3422 -0.0372 -0.1683
26836W        W69748  24.560  22.674   9.561  0.0121 -0.1375  0.0969
26837W        W69749  24.221  24.624  10.236 -0.1093 -0.4138  0.1528
26838W        W69750  20.440  21.016  10.221  0.2084 -0.1668 -0.1373
26839W        W69751  24.247  22.279   9.446  0.2074  0.2114 -0.2499
26840W        W69752  24.753  22.936   8.286  0.0198 -0.0684  0.1907
26841W        W69753  21.075  22.343   9.920 -0.2758  0.1901 -0.0662
26842W        W69754  23.182  21.735   9.837  0.1148  0.0984 -0.1562
26843W        W69755  22.331  23.429   9.805  0.0401  0.0653  0.2821
26844W        W69756  23.119  22.848   8.535  0.0243  0.0605 -0.1648
26845W        W69757  25.031  22.610   7.902  0.2029  0.1696  0.1250
26846W        W69758  21.882  24.075  10.440  0.5066  0.2088  0.0263
26847W        W69759  23.003  25.763  10.365 -0.0537 -0.0769  0.2529
26848W        W69760  23.323  22.640   9.738 -0.1817  0.6532 -0.0037
26849W        W69761  23.318  19.931  10.049 -0.2553 -0.1843  0.0760
26850W        W69762  21.191  22.814   8.595 -0.1330 -0.0793  0.1605
26851W        W69763  22.338  24.326   9.894 -0.2241 -0.1636  0.2687
26852W        W69764  23.574  19.491  10.134  0.2374  0.0651  0.0343
26853W        W69765  21.606  21.967   8.494  0.1705  0.2049  0.0274
26854W        W69766  25.250  20.739   8.562 -0.1282 -0.0563  0.0597
26855W        W69767  22.152  25.587  10.301 -0.0219 -0.3737 -0.2805
26856W        W69768  22.683  24.753   9.950  0.0758  0.3305 -0.1901
26857W        W69769  22.290  28.527   1.664 -0.0833  0.3348  0.1302
26858W        W69770  23.018  26.050   0.142  0.1871 -0.2449 -0.1575
26859W        W69771  24.696  26.380   0.409  0.0188 -0.0395  0.2778
26860W        W69772  24.307  27.520  31.946  0.1219  0.0092 -0.1322
26861W        W69773  21.754  25.338   2.183 -0.0302 -0.2616  0.0043
26862W        W69774  24.413  30.446   0.832  0.0469 -0.0254 -0.0931
26863W        W69775  22.436  25.349   3.004 -0.1620  0.2882  0.1035
26864W        W69776  24.511  28.709   1.181 -0.1022 -0.1183  0.1106
26865W        W69777  24.698  28.506   3.244  0.3988  0.0347  0.1808
26866W        W69778  22.440  28.338  31.944 -0.1326  0.1120 -0.3759
26867W        W69779  21.991  25.378   2.693  0.2564 -0.1103 -0.0238
26868W        W69780  23.358  27.434   2.395 -0.3119 -0.0162 -0.1040
26869W        W69781  23.605  25.788   0.147  0.2738 -0.0041  0.1166
26870W        W69782  22.098  24.351   3.512  0.0187  0.0088 -0.0405
26871W        W69783  26.473  25.902   3.146  0.0011  0.0366  0.2210
26872W        W69784  20.948  27.821  31.651  0.1572 -0.1453  0.0896
26873W        W69785  22.827  25.667   2.249  0.1964  0.0359 -0.1391
26874W        W69786  22.467  26.734   1.159 -0.0983 -0.4878 -0.1329
26875W        W69787  24.993  27.962   1.802  0.2883  0.2182 -0.0241
26876W        W69788  24.100  26.368   2.682  0.0181  0.0675 -0.2611
26877W        W69789  24.429  23.738   3.008 -0.0757 -0.3188  0.2200
26878W        W69790  23.616  29.864   0.338 -0.1147  0.3752 -0.1995
26879W        W69791  20.803  26.027  31.781 -0.0948  0.0326 -0.1931
26880W        W69792  22.913  26.110   2.415 -0.2383 -0.0189  0.0965
26881W        W69793  21.735  25.862   2.288  0.0119 -0.0043 -0.0805
26882W        W69794  25.125  25.311   3.021 -0.0994 -0.0827  0.0182
26883W        W69795  24.561  27.118   2.664 -0.0801  0.1526 -0.0642
26884W        W69796  23.265  29.576   2.149  0.0088 -0.2421  0.2589
26885W        W69797  23.935  29.383   1.368  0.1600 -0.0261  0.2314
26886W        W69798  24.657  27.200   3.869  0.1070 -0.3938  0.0029
26887W        W69799  21.436  27.474   1.440  0.1088  0.0296  0.2470
26888W        W69800  22.221  28.792   1.243 -0.3840  0.0471 -0.0408
26889W        W69801  21.370  28.696   2.236 -0.0918 -0.0411  0.1657
26890W        W69802  24.994  28.610  31.044 -0.0468  0.0819 -0.6336
26891W        W69803  25.556  28.431   3.667 -0.2490  0.0656 -0.0872
26892W        W69804  24.493  30.005   2.184  0.0643  0.0354 -0.0262
26893W        W69805  21.105  27.802   0.153  0.2722  0.2975 -0.2930
26894W        W69806  24.251  27.564   4.044  0.4039  0.1125 -0.0128
26895W        W69807  23.463  28.368   1.965 -0.1701 -0.1404 -0.0591
26896W        W69808  25.569  25.570   2.375 -0.3941 -0.0035  0.2130
26897W        W69809  24.179  26.305   2.022 -0.1632  0.2197  0.0111
26898W        W69810  23.117  29.032   0.898 -0.0047  0.3096 -0.0471
26899W        W69811  23.458  28.406   1.440 -0.1350  0.1050 -0.1820
26900W        W69812  23.093  27.988   3.955  0.2707  0.0324  0.0168
26901W        W69813  22.826  28.401   1.649  0.1602 -0.0753  0.1859
26902W        W69814  25.370  25.993   3.311  0.0303  0.0905 -0.1253
26903W        W69815  21.895  29.665  31.938 -0.2180 -0.0433  0.1946
26904W        W69816  24.169  26.785  31.518  0.1717 -0.0563 -0.0076
26905W        W69817  24.374  26.155   0.013 -0.0105  0.3308 -0.1160
26906W        W69818  24.772  25.844   0.115 -0.0288 -0.0998  0.0796
26907W        W69819  22.773  26.144   0.639 -0.1385 -0.2446 -0.2727
26908W        W69820  22.982  28.983   0.367  0.1471  0.1071 -0.0659
26909W        W69821  23.746  25.690   2.671  0.0356 -0.2671 -0.1094
26910W        W69822  25.302  27.776   2.272 -0.0002 -0.0218  0.0671
26911W        W69823  23.412  27.328   1.058  0.0675 -0.3016  0.1754
26912W        W69824  26.440  26.021   2.165  0.0094  0.0649  0.0814
26913W        W69825  22.817  29.310   1.808 -0.0393  0.1783  0.1571
26914W        W69826  22.902  28.019   1.290 -0.3857 -0.0444  0.0123
26915W        W69827  24.370  29.135  31.345 -0.2947  0.2064 -0.0918
26916W        W69828  24.778  28.316   1.513  0.2592  0.5246  0.0915
26917W        W69829  23.312  29.289   0.135 -0.0562  0.0730  0.1918
26918W        W69830  22.945  26.443   1.414 -0.0141 -0.1300 -0.2634
26919W        W69831  20.715  27.452   2.908  0.0369  0.6731 -0.3970
26920W        W69832  21.268  25.926   2.994  0.0125 -0.2292 -0.1471
26921W        W69833  22.545  25.399  31.785 -0.2472  0.0513  0.1659
26922W        W69834  24.959  27.871   2.617 -0.4189  0.0059 -0.0316
26923W        W69835  22.436  27.836   3.466  0.2172  0.2389 -0.1540
26924W        W69836  24.749  25.787   1.524  0.0632 -0.1085  0.0840
26925W        W69837  22.057  27.206   2.052 -0.2769  0.1121  0.0035
26926W        W69838  24.500  28.689   2.864  0.2330  0.1926 -0.0323
26927W        W69839  23.495  27.833   0.131  0.0161 -0.1362 -0.1657
26928W        W69840  25.648  24.752   2.078  0.3671 -0.2614  0.0631
26929W        W69841  23.312  25.827   2.196  0.5041  0.1418 -0.0672
26930W        W69842  24.288  27.577   0.541  0.2493  0.0301 -0.0652
26931W        W69843  24.403  26.973  31.908  0.0117 -0.2665  0.1868
26932W        W69844  23.290  28.171   1.028 -0.0431  0.1059  0.0646
26933W        W69845  24.423  28.095  31.728  0.1270 -0.1315  0.0061
26934W        W69846  21.960  28.199   0.250 -0.1498 -0.1935  0.0183
26935W        W69847  22.284  25.448   0.559  0.2441  0.3472  0.2968
26936W        W69848  23.774  28.389   2.358  0.0404  0.1843 -0.1112
26937W        W69849  22.890  29.553  31.158  0.2562 -0.0088  0.0703
26938W        W69850  21.172  28.424   3.001 -0.0571  0.1429 -0.3238
26939W        W69851  20.838  27.241   0.342  0.2596  0.1498  0.0529
26940W        W69852  20.539  25.458   2.146  0.0370  0.0374  0.1157
26941W        W69853  22.533  29.122   0.940  0.3250  0.0605  0.1860
26942W        W69854  23.860  25.433   0.598  0.4166 -0.0993  0.3391
26943W        W69855  21.556  25.609   2.676 -0.1897 -0.0105  0.0637
26944W        W69856  26.376  25.615   1.289  0.0152  0.0181  0.0645
26945W        W69857  20.990  28.212   0.521  0.0098 -0.0537  0.0336
26946W        W69858  24.404  28.525   0.565 -0.2925  0.0786  0.0300
26947W        W69859  24.776  25.647   2.641 -0.0809  0.1389 -0.1762
26948W        W69860  23.357  28.118  31.064  0.1145 -0.1177  0.2676
26949W        W69861  19.765  28.348   3.262 -0.0051 -0.3004  0.1105
26950W        W69862  23.608  26.355   1.301  0.2315  0.1669 -0.1734
26951W        W69863  21.158  24.821   3.089 -0.1926 -0.1145  0.1349
26952W        W69864  22.492  26.038   1.625  0.0568  0.1134  0.2745
26953W        W69865  24.083  26.842   1.887 -0.3140 -0.0763 -0.0880
26954W        W69866  20.990  24.715   0.203 -0.1754  0.1654 -0.2838
26955W        W69867  25.513  24.550   1.650 -0.0226 -0.0903 -0.3979
26956W        W69868  23.522  27.116   0.637  0.1426  0.1046  0.1149
26957W        W69869  19.941  26.745   0.730 -0.3129 -0.0610 -0.2031
26958W        W69870  24.928  25.516   3.654  0.3922 -0.0280  0.0265
26959W        W69871  22.888  28.538   1.040  0.0525 -0.0074 -0.0088
26960W        W69872  24.328  29.108   3.131  0.3352  0.0522 -0.3715
26961W        W69873  24.020  28.030   1.984  0.1723  0.1214  0.0228
26962W        W69874  23.349  25.235   3.200  0.1378 -0.1018  0.0789
26963W        W69875  21.432  24.326   0.595 -0.3712  0.2440 -0.2866
26964W        W69876  22.827  29.360   0.024 -0.0494  0.2044 -0.0061
26965W        W69877  21.275  27.444   0.426 -0.0510 -0.0080  0.3165
26966W        W69878  21.577  26.551  31.813 -0.1852 -0.1510 -0.0758
26967W        W69879  24.633  29.949   2.667  0.2448 -0.1544  0.1450
26968W        W69880  23.819  29.298   1.930 -0.1852 -0.3490 -0.0885
26969W        W69881  22.107  27.097   2.923 -0.1722  0.0257  0.1497
26970W        W69882  25.790  26.293   3.168 -0.0908  0.0532 -0.1682
26971W        W69883  24.869  28.323   2.805 -0.0712  0.0180 -0.0599
26972W        W69884  25.655  25.873   1.941 -0.3297 -0.0157 -0.2004
26973W        W69885  21.161  24.253   0.041 -0.2855 -0.2651  0.1119
26974W        W69886  24.657  29.696   1.792 -0.0489  0.0299 -0.0714
26975W        W69887  21.035  28.223   1.020 -0.1808  0.0522 -0.0459
26976W        W69888  21.292  26.093   2.157  0.1157 -0.3570  0.1732
26977W        W69889  24.714  29.454   1.046  0.3019 -0.2293 -0.0849
26978W        W69890  26.518  25.522   2.135  0.3778 -0.3033  0.2515
26979W        W69891  21.177  27.099   3.608 -0.0659 -0.1838  0.0183
26980W        W69892  24.631  26.035   4.030 -0.0254  0.0020 -0.1631
26981W        W69893  20.585  26.460   0.927  0.0397  0.0172  0.0833
26982W        W69894  20.755  28.191   3.408  0.2119  0.1088  0.1923
26983W        W69895  23.470  24.276  31.694 -0.0980  0.0935  0.0631
26984W        W69896  25.516  26.038   0.173 -0.0285 -0.0993  0.4479
26985W        W69897  22.366  26.694   3.148 -0.0587 -0.0660  0.0012
26986W        W69898  25.717  28.355   1.597  0.0327 -0.2473 -0.1517
26987W        W69899  24.203  27.123   0.410  0.3522 -0.0260  0.2625
26988W        W69900  22.881  27.118  31.445 -0.2806  0.3517 -0.1652
26989W        W69901  21.696  27.474   4.744 -0.2000 -0.0798 -0.0939
26990W        W69902  25.117  26.748   1.925  0.4460  0.2260 -0.0378
26991W        W69903  23.366  25.946   1.652 -0.0834  0.3370 -0.1473
26992W        W69904  22.918  26.503   0.326 -0.2315 -0.1930 -0.0140
26993W        W69905  25.205  29.463  31.169 -0.0669 -0.3767 -0.1431
26994W        W69906  22.015  26.964   2.449  0.0781  0.2048  0.2060
26995W        W69907  24.516  28.278   2.432  0.0960  0.1450 -0.0100
26996W        W69908  24.382  28.528   1.654 -0.1770 -0.0826  0.1178
26997W        W69909  22.482  25.543   1.898  0.1837 -0.1482 -0.3487
26998W        W69910  23.145  27.349   0.311  0.1213  0.0860 -0.0291
26999W        W69911  23.628  26.403   0.789 -0.1286  0.0796 -0.0608
27000W        W69912  20.882  28.685   1.148  0.1197 -0.1928  0.1206
27001W        W69913  24.646  24.326   2.221  0.1589  0.2344  0.0177
27002W        W69914  24.277  24.726   1.186 -0.1434  0.2383  0.0893
27003W        W69915  22.651  24.683   4.064  0.0890 -0.0876 -0.1555
27004W        W69916  24.148  28.131   3.922 -0.2870  0.0332 -0.0695
27005W        W69917  24.466  26.682   0.681 -0.0061  0.0323  0.1278
27006W        W69918  23.791  26.392   1.780 -0.0195  0.0593  0.2079
27007W        W69919  20.323  26.887   1.026  0.0204 -0.1560 -0.1377
27008W        W69920  25.448  25.800   2.815  0.0131 -0.0833 -0.1488
27009W        W69921  21.500  26.533   2.026  0.2394  0.4154  0.1382
27010W        W69922  21.462  27.890   2.142 -0.0822  0.1492 -0.2694
27011W        W69923  25.764  27.878   2.430  0.2599  0.0337  0.0203
27012W        W69924  24.778  26.803   0.140  0.2005  0.1357  0.1661
27013W        W69925  24.092  25.776   3.786 -0.0261 -0.1214 -0.0686
27014W        W69926  22.985  26.594   2.136  0.3793 -0.3624  0.0870
27015W        W69927  21.396  30.985   0.506  0.0222  0.0311 -0.3279
27016W        W69928  22.858  28.464   0.215  0.1137 -0.0386 -0.0279
27017W        W69929  22.508  26.301   2.123 -0.4484  0.0925  0.1857
27018W        W69930  22.533  27.933   1.972  0.0576 -0.0566  0.0126
27019W        W69931  23.566  27.686  31.422  0.1165 -0.2720  0.1857
27020W        W69932  23.565  27.260   1.847 -0.0206  0.2897  0.0154
27021W        W69933  22.660  28.719   0.669 -0.2034 -0.0407  0.1749
27022W        W69934  24.277  24.932   2.877 -0.0647  0.1694 -0.2918
27023W        W69935  20.453  28.554   0.908 -0.2756 -0.1199 -0.1043
27024W        W69936  20.008  26.453  31.893 -0.2586  0.0337 -0.5392
27025W        W69937  21.364  26.957  31.562  0.0418  0.1618  0.0896
27026W        W69938  24.677  25.680   1.015 -0.2634  0.0140  0.0214
27027W        W69939  24.703  28.550  31.901 -0.2589 -0.0709 -0.0629
27028W        W69940  21.535  24.341   3.752 -0.1140  0.2458 -0.2217
27029W        W69941  24.578  26.128   1.170  0.0237 -0.0158  0.0553
27030W        W69942  22.773  27.676   1.566  0.0286 -0.1234 -0.1709
27031W        W69943  24.993  26.060   2.669 -0.2944 -0.1648 -0.1663
27032W        W69944  22.531  27.774  31.641 -0.2178  0.0113  0.1466
27033W        W69945  22.891  27.731   3.221 -0.4124  0.0307 -0.2456
27034W        W69946  23.311  27.698   3.513 -0.3829 -0.0896  0.1184
27035W        W69947  20.095  26.659   1.748  0.1094  0.2213 -0.0014
27036W        W69948  24.294  27.158   3.064  0.0731  0.3690  0.0721
27037W        W69949  21.046  25.403   2.074  0.2920  0.0812  0.0296
27038W        W69950  21.255  28.618   0.766  0.0230  0.0392 -0.0823
27039W        W69951  23.785  27.973   1.567 -0.1432 -0.0368  0.1051
27040W        W69952  21.494  26.518   0.536  0.0862 -0.0383  0.1713
27041W        W69953  21.524  28.248   0.610  0.0272 -0.0656 -0.0137
27042W        W69954  22.269  25.248   4.011  0.0605 -0.0724 -0.0825
27043W        W69955  26.253  26.739   1.964  0.0678 -0.0587 -0.1693
27044W        W69956  23.396  25.040   2.771 -0.0648  0.0654 -0.0570
27045W        W69957  21.643  27.432   2.409  0.1562  0.2743  0.0322
27046W        W69958  23.698  28.264   0.276 -0.1753  0.1256 -0.3706
27047W        W69959  23.639  28.912   1.663 -0.0208 -0.2755 -0.1619
27048W        W69960  23.454  26.281   2.139  0.2628  0.1522  0.0725
27049W        W69961  22.885  27.415   2.646  0.4931  0.1536  0.2478
27050W        W69962  22.613  25.508   1.356  0.0844 -0.3084  0.1012
27051W        W69963  26.057  31.140   0.365  0.1026  0.0292  0.0002
27052W        W69964  23.861  27.101   2.251  0.1950 -0.0676  0.1875
27053W        W69965  21.517  27.957   1.641  0.1463 -0.0712 -0.0497
27054W        W69966  21.687  26.993   1.693 -0.2861 -0.2382 -0.1196
27055W        W69967  21.775  26.831   0.835 -0.1750 -0.0673  0.0166
27056W        W69968  24.514  26.686   2.862  0.0236 -0.2259 -0.3276
27057W        W69969  22.979  26.179   1.880  0.1697  0.1542 -0.1058
27058W        W69970  22.243  29.733   0.335  0.0642  0.0309  0.0855
27059W        W69971  21.325  26.156   3.593 -0.1456 -0.0661  0.2195
27060W        W69972  24.554  25.509  31.006  0.0553 -0.1752 -0.1126
27061W        W69973  24.609  27.643   1.864 -0.0370  0.3711  0.2491
27062W        W69974  23.536  25.900   1.108 -0.3823 -0.4168 -0.1528
27063W        W69975  26.426  27.327   3.173  0.0154  0.3589  0.2902
27064W        W69976  23.435  27.554  30.452  0.3537  0.2572 -0.0201
27065W        W69977  23.188  25.042   3.614  0.0267 -0.1805 -0.1457
27066W        W69978  21.687  24.827   2.209  0.0592  0.1716  0.0830
27067W        W69979  24.235  27.790   1.575 -0.2298  0.0856 -0.1570
27068W        W69980  21.559  26.310   3.173  0.1170  0.4642  0.1832
27069W        W69981  23.135  29.005   4.051 -0.0366 -0.2318  0.0006
27070W        W69982  22.649  26.946   3.551  0.0485  0.0840  0.0002
27071W        W69983  24.614  26.630   2.028 -0.2574 -0.1625  0.2137
27072W        W69984  21.313  26.102  31.865  0.2569 -0.0363  0.0132
27073W        W69985  23.818  26.665   0.425  0.0580  0.0140  0.0752
27074W        W69986  24.440  28.174   2.983  0.1877 -0.2782  0.0254
27075W        W69987  24.562  29.042   0.782 -0.1028  0.2896  0.1410
27076W        W69988  25.896  24.825   2.747 -0.0163  0.0603 -0.0419
27077W        W69989  23.133  28.462   2.862  0.0361 -0.2556  0.0410
27078W        W69990  24.200  25.806   1.824 -0.0213  0.0995  0.0425
27079W        W69991  22.125  27.829  31.957  0.2060 -0.0633  0.0329
27080W        W69992  22.215  26.528   2.580  0.0839  0.3455 -0.2850
27081W        W69993  21.553  25.600   3.221  0.0817 -0.0425 -0.1635
27082W        W69994  24.479  27.112   2.088 -0.3456 -0.1529  0.1502
27083W        W69995  25.978  26.328   2.116  0.2625 -0.3042  0.0911
27084W        W69996  25.458  26.394   1.777 -0.0152 -0.0972  0.1769
27085W        W69997  24.556  25.562   2.186 -0.1231 -0.0431  0.0253
27086W        W69998  23.422  26.604   2.570 -0.4193 -0.1304  0.1058
27087W        W69999  21.358  25.649   3.718 -0.0553 -0.3204 -0.2147
27088W        W70000  24.889  29.677   2.279  0.0302 -0.1779  0.1558
27089W        W70001  24.002  27.227  31.291  0.2215  0.2786  0.0136
27090W        W70002  26.860  25.735   2.818  0.1969  0.1124 -0.4637
27091W        W70003  24.804  27.032   1.722  0.4609  0.2967  0.2039
27092W        W70004  23.481  26.934   0.179 -0.1220 -0.2273 -0.2510
27093W        W70005  21.140  24.247   3.295  0.3240  0.0244 -0.2003
27094W        W70006  24.161  26.372   3.226  0.0326 -0.0059  0.1780
27095W        W70007  23.067  25.365   0.912 -0.0049 -0.1039 -0.0392
27096W        W70008  24.512  25.775   3.411 -0.3521 -0.0210 -0.2546
27097W        W70009  21.963  28.914  31.492 -0.0364 -0.0035 -0.1021
27098W        W70010  23.905  27.495   1.331 -0.2462  0.3235  0.1564
27099W        W70011  24.396  26.259   1.604  0.0517 -0.1219 -0.2406
27100W        W70012  21.480  27.051   2.703  0.1147  0.2553  0.0397
27101W        W70013  23.504  28.844   3.724  0.0134 -0.3722 -0.1057
27102W        W70014  20.964  25.961   0.770 -0.1068  0.1286  0.0094
27103W        W70015  21.923  27.826   1.368  0.1365 -0.3006 -0.0923
27104W        W70016  24.380  27.261   1.519 -0.1859 -0.1707 -0.3181
27105W        W70017  24.177  28.691   3.303 -0.1028 -0.0007 -0.1633
27106W        W70018  24.292  25.520   2.613 -0.1951  0.0663 -0.0822
27107W        W70019  25.369  26.330   2.974  0.3739  0.0960  0.1280
27108W        W70020  20.617  27.613   1.656 -0.1662 -0.0028 -0.1236
27109W        W70021  23.414  25.746   3.182  0.0133  0.0552 -0.0634
27110W        W70022  21.508  26.924   1.192  0.0624  0.2220 -0.1476
27111W        W70023  21.008  27.749   3.142  0.0599  0.1821  0.2253
27112W        W70024  21.744  28.771   1.027  0.0684 -0.0888 -0.0435
27113W        W70025  24.977  25.765   3.093  0.1732 -0.0082  0.0806
27114W        W70026  25.763  26.774   1.931  0.0207 -0.0789  0.0650
27115W        W70027  23.254  27.548   1.509 -0.0998  0.0949  0.0869
27116W        W70028  24.785  26.629   3.783 -0.3550  0.0859  0.0081
27117W        W70029  23.181  28.889   2.067 -0.1655 -0.0006  0.0904
27118W        W70030  20.608  28.359   1.398  0.2205  0.0851 -0.0966
27119W        W70031  24.076  27.433   1.898 -0.1248  0.0058 -0.0196
27120W        W70032  24.524  27.017   1.070  0.1070 -0.0243 -0.1503
27121W        W70033  23.200  27.879   2.631  0.3088 -0.1379 -0.2751
27122W        W70034  22.197  24.563   3.913  0.0959  0.3465 -0.1999
27123W        W70035  23.580  27.148   2.707  0.0330 -0.0689  0.0501
27124W        W70036  22.917  27.134   0.782 -0.0516 -0.0902 -0.0609
27125W        W70037  22.624  25.638   0.873  0.0092  0.1619 -0.1620
27126W        W70038  22.789  28.103  30.101 -0.1219 -0.0859 -0.3044
27127W        W70039  22.706  27.791   2.433 -0.1505 -0.3148 -0.0128
27128W        W70040  22.024  26.636   2.056 -0.0198  0.0257 -0.2236
27129W        W70041  22.925  30.395   0.637 -0.0936 -0.3469  0.3837
27130W        W70042  23.466  29.271   1.296  0.5174 -0.0489 -0.3373
27131W        W70043  23.606  27.783   1.125 -0.0107  0.0091 -0.0855
27132W        W70044  23.302  29.273   1.759  0.3403  0.2502 -0.0944
27133W        W70045  21.572  25.726   0.074  0.0034 -0.0976  0.0009
27134W        W70046  23.886  30.241   0.523 -0.0661 -0.0834 -0.1262
27135W        W70047  21.826  26.193  31.984  0.1158 -0.0949  0.0326
27136W        W70048  23.999  28.831   1.279  0.0248 -0.2292 -0.0553
27137W        W70049  22.906  29.427   0.556  0.0831 -0.1235 -0.2498
27138W        W70050  24.023  28.315   4.810 -0.0452 -0.1702  0.2189
27139W        W70051  24.891  26.925   2.353 -0.0758 -0.2176  0.2461
27140W        W70052  25.982  27.417   1.135  0.1937  0.2011 -0.0501
27141W        W70053  24.088  27.331   2.672 -0.0067 -0.1623 -0.1221
27142W        W70054  22.401  26.242   2.937  0.1717  0.1022 -0.1066
27143W        W70055  23.553  25.179   1.004  0.3133 -0.1339 -0.0471
27144W        W70056  22.818  26.559   2.630  0.0664  0.0265 -0.1064
27145W        W70057  25.303  24.878   3.234  0.0814 -0.1364 -0.0367
27146W        W70058  21.585  30.382   2.649  0.1303  0.2235 -0.1058
27147W        W70059  24.127  29.578  31.698 -0.0938 -0.0585  0.0545
27148W        W70060  21.314  26.227   1.642  0.1184 -0.0894  0.3054
27149W        W70061  23.224  28.016   1.724  0.4207 -0.0554 -0.0870
27150W        W70062  25.974  26.417   3.934 -0.2602 -0.2333 -0.0286
27151W        W70063  21.986  28.025   0.804  0.0829  0.1908  0.0079
27152W        W70064  22.930  27.126   2.234 -0.3460 -0.3001  0.2190
27153W        W70065  23.135  29.856   0.163  0.0709 -0.3178 -0.0057
27154W        W70066  22.145  28.534   0.779 -0.0286 -0.1367  0.1200
27155W        W70067  22.366  28.081   1.526  0.1666 -0.2301 -0.0242
27156W        W70068  22.897  25.131   1.400 -0.0865 -0.1014 -0.0766
27157W        W70069  26.049  25.363   2.414 -0.1618 -0.1773 -0.3923
27158W        W70070  21.586  25.083   2.860  0.0028  0.2108  0.1312
27159W        W70071  24.764  24.297   2.698  0.2289 -0.1279  0.3999
27160W        W70072  23.694  26.847   1.453  0.2072 -0.1548 -0.0767
27161W        W70073  25.086  25.758   2.251  0.1410  0.0460 -0.1795
27162W        W70074  23.112  27.091   1.770  0.1129 -0.3722 -0.1335
27163W        W70075  21.258  24.901   1.957 -0.0847  0.1387  0.1158
27164W        W70076  23.733  27.483   0.364  0.1752  0.3420 -0.3853
27165W        W70077  24.589  27.957   3.446 -0.1122  0.1417  0.3514
27166W        W70078  24.771  27.303   0.096 -0.0734 -0.0604 -0.0510
27167W        W70079  24.204  29.057   1.742 -0.0826  0.1439 -0.2214
27168W        W70080  22.094  24.560   2.490 -0.0447  0.3994 -0.1076
27169W        W70081  23.551  27.014  31.620 -0.0880 -0.1677 -0.1005
27170W        W70082  21.972  28.359   1.252 -0.1145 -0.4903  0.0075
27171W        W70083  23.303  26.563   1.716  0.1459  0.1747  0.0606
27172W        W70084  24.091  30.016   2.622 -0.4448 -0.1003 -0.0171
27173W        W70085  22.302  26.502   1.608  0.1183  0.1626 -0.2324
27174W        W70086  24.469  29.266  31.838  0.0299  0.0899 -0.0587
27175W        W70087  25.024  27.961   3.177 -0.0938 -0.0295  0.2462
27176W        W70088  22.288  29.368  31.830  0.1579 -0.0543  0.0158
27177W        W70089  24.858  27.497   2.999  0.2313  0.3006  0.1029
27178W        W70090  25.625  28.984   1.648  0.1779 -0.1276  0.3572
27179W        W70091  20.485  26.437   2.014  0.3325  0.1974  0.1924
27180W        W70092  24.837  28.801   1.917  0.0292 -0.1840  0.2135
27181W        W70093  24.543  29.263   2.110  0.0935 -0.2153  0.2646
27182W        W70094  23.954  25.130   2.572 -0.1230 -0.1504 -0.2220
27183W        W70095  20.956  25.759   2.553 -0.0898  0.1920 -0.0743
27184W        W70096  21.929  28.689   2.048 -0.1844 -0.2957  0.1023
27185W        W70097  24.344  26.735   2.426  0.2511  0.0812  0.1640
27186W        W70098  23.846  26.111   3.492 -0.0124  0.0665 -0.0678
27187W        W70099  20.552  28.031   0.668 -0.1522 -0.2221 -0.0682
27188W        W70100  24.675  24.697   4.742 -0.0981 -0.0840  0.2018
27189W        W70101  22.380  27.193   1.131 -0.2468 -0.5533  0.0701
27190W        W70102  23.368  28.812   3.177  0.1083  0.1253 -0.0840
27191W        W70103  21.101  26.650   1.454  0.0235  0.2045 -0.1466
27192W        W70104  23.703  27.651   2.785  0.1460 -0.0062  0.1476
27193W        W70105  22.668  28.897   1.487 -0.0498  0.3300  0.0568
27194W        W70106  22.609  30.376   1.005 -0.0986 -0.0009 -0.0990
27195W        W70107  25.366  28.203   2.599 -0.0171  0.0577 -0.3473
27196W        W70108  24.189  25.940   2.320  0.1082  0.2375 -0.3651
27197W        W70109  25.864  28.669   2.036  0.1059  0.1255  0.0219
27198W        W70110  23.328  26.799   1.091  0.1678  0.1531 -0.1993
27199W        W70111  24.657  26.008   1.977  0.3267  0.1265 -0.2134
27200W        W70112  23.734  25.925   0.656 -0.0107 -0.2031 -0.0046
27201W        W70113  21.723  26.100   2.709 -0.1213 -0.0103  0.0025
27202W        W70114  20.914  27.202   1.560 -0.1140 -0.1037 -0.3006
27203W        W70115  21.750  28.725   0.456 -0.2501 -0.3108  0.0918
27204W        W70116  22.498  26.852   2.222  0.0789 -0.0210 -0.2667
27205W        W70117  24.962  25.661   4.263  0.1975  0.0609  0.1146
27206W        W70118  21.839  25.917   3.471 -0.0848  0.3357 -0.1381
27207W        W70119  21.376  27.389   1.994  0.1080  0.0859 -0.2955
27208W        W70120  21.743  26.416   1.558 -0.0426 -0.3623  0.0768
27209W        W70121  25.170  29.585  31.762 -0.0027 -0.3684  0.0108
27210W        W70122  23.901  25.476   1.627 -0.0854 -0.0440 -0.0969
27211W        W70123  21.535  25.690   1.833 -0.2333  0.1362  0.1841
27212W        W70124  23.930  28.528   0.666  0.2144 -0.0004  0.2756
27213W        W70125  25.225  28.419   1.793  0.0335  0.3149 -0.1553
27214W        W70126  22.894  25.960   1.209 -0.2058 -0.0060 -0.3174
27215W        W70127  25.574  26.946   2.668 -0.1536 -0.0881  0.0004
27216W        W70128  22.175  27.353   0.090 -0.0364  0.0421 -0.2097
27217W        W70129  23.046  26.168   3.075 -0.0522 -0.3301 -0.1928
27218W        W70130  22.021  26.373   3.307 -0.2422  0.1595 -0.0143
27219W        W70131  22.774  24.910  31.072 -0.1305 -0.1013  0.2108
27220W        W70132  23.893  27.510   0.824  0.1955  0.0197 -0.5423
27221W        W70133  24.526  28.141   1.925 -0.1594 -0.2086 -0.0749
27222W        W70134  24.048  29.666   0.254  0.1246  0.4193  0.1185
27223W        W70135  23.829  27.596   2.309 -0.0457  0.0514 -0.0454
27224W        W70136  22.986  28.104   2.138  0.0023 -0.3668 -0.2559
27225W        W70137  22.059  24.883   2.918 -0.0099 -0.0069 -0.2569
27226W        W70138  24.309  28.143   1.248  0.0316 -0.0926  0.3716
27227W        W70139  22.957  27.575   2.012  0.4644 -0.0499  0.1961
27228W        W70140  24.722  27.869   1.359 -0.1282 -0.1322 -0.2099
27229W        W70141  24.188  26.494   1.104  0.0044 -0.0172  0.1121
27230W        W70142  24.815  27.351   1.300  0.2222  0.2824 -0.0915
27231W        W70143  22.537  23.863   2.516  0.0448  0.4191 -0.2617
27232W        W70144  21.590  26.767   3.549  0.1201  0.1513 -0.0878
27233W        W70145  25.998  29.235   2.802 -0.1837  0.1186  0.1054
27234W        W70146  22.493  26.249   1.076 -0.1004  0.5523 -0.1809
27235W        W70147  24.614  26.696   1.390  0.1101 -0.0577 -0.0336
27236W        W70148  23.829  29.051   0.915 -0.2589 -0.1607  0.1111
27237W        W70149  21.252  26.353   2.690  0.0485 -0.3336  0.0648
27238W        W70150  21.656  27.786   0.455 -0.5129 -0.2916  0.0501
27239W        W70151  23.674  26.139   3.001  0.1959  0.1364 -0.0470
27240W        W70152  24.719  27.741   0.777  0.0938 -0.4997  0.0505
27241W        W70153  24.480  27.647   2.660  0.1635 -0.0775  0.1222
27242W        W70154  23.822  27.566  31.839 -0.1460  0.0049 -0.2092
27243W        W70155  25.319  27.158   2.175  0.1837 -0.0094  0.1511
27244W        W70156  24.544  29.334   2.625  0.0509  0.0922 -0.2040
27245W        W70157  24.158  28.181   3.379 -0.0956  0.1568 -0.0046
27246W        W70158  23.392  27.666   0.701  0.0204  0.2937 -0.0460
27247W        W70159  24.038  26.951   0.879 -0.0486 -0.3167 -0.3202
27248W        W70160  20.991  26.347   3.252 -0.2221  0.1188 -0.0061
27249W        W70161  22.294  26.284   0.306 -0.0340  0.0614  0.2420
27250W        W70162  22.647  27.238   0.416 -0.0989  0.0376 -0.2978
27251W        W70163  24.147  25.908   2.967  0.2026  0.1435 -0.2234
27252W        W70164  21.072  25.757   1.733  0.1605 -0.0319 -0.0289
27253W        W70165  22.638  27.253   1.890 -0.0909 -0.2652  0.5816
27254W        W70166  23.557  29.250   2.394 -0.0582 -0.1068 -0.0936
27255W        W70167  23.989  26.847   2.788 -0.1870 -0.1949  0.1033
27256W        W70168  23.416  27.590   5.502 -0.1471  0.0341  0.2127
27257W        W70169  22.599  26.258   4.861 -0.1803  0.0619 -0.0528
27258W        W70170  25.139  25.223   4.138 -0.1223 -0.1931  0.0812
27259W        W70171  25.590  27.525   4.398 -0.0469 -0.4544 -0.1534
27260W        W70172  21.845  25.206   3.256 -0.0065 -0.2160 -0.2948
27261W        W70173  23.077  28.577   4.745 -0.3673  0.2541  0.0568
27262W        W70174  21.170  25.721   6.084 -0.2863 -0.2547  0.1880
27263W        W70175  22.439  27.962   4.507 -0.1308 -0.0811 -0.0386
27264W        W70176  25.250  28.517   5.609  0.0233  0.0607  0.2438
27265W        W70177  21.978  26.783   4.434  0.3334  0.2174  0.2265
27266W        W70178  22.971  25.876   5.955  0.1846 -0.0599 -0.0852
27267W        W70179  24.040  28.561   6.896 -0.0570  0.3372  0.1878
27268W        W70180  23.078  24.103   2.679 -0.2843 -0.2377 -0.0359
27269W        W70181  21.177  25.423   6.945  0.1325 -0.1146 -0.3384
27270W        W70182  24.548  25.886   5.153 -0.1107 -0.0060 -0.1597
27271W        W70183  23.477  28.290   3.628 -0.1514 -0.3500  0.2140
27272W        W70184  22.169  27.765   6.315  0.0663  0.4391  0.0656
27273W        W70185  22.810  26.675   4.005  0.0208  0.0355 -0.1055
27274W        W70186  22.900  28.226   4.455  0.1140  0.1685  0.0305
27275W        W70187  22.226  24.623   6.131  0.3454  0.3253  0.1116
27276W        W70188  23.667  26.352   6.088  0.2983 -0.1571 -0.0320
27277W        W70189  22.859  27.342   4.633 -0.3134  0.0567 -0.2165
27278W        W70190  21.115  25.629   4.141 -0.1177  0.0074 -0.0886
27279W        W70191  22.005  27.123   4.805 -0.2898 -0.1728  0.0286
27280W        W70192  22.686  28.445   5.608  0.0035 -0.0373 -0.0979
27281W        W70193  24.100  24.339   5.271 -0.0450  0.0729  0.0884
27282W        W70194  24.899  26.365   4.466  0.2825 -0.2173  0.2332
27283W        W70195  23.984  29.292   5.300  0.0769 -0.5209 -0.3479
27284W        W70196  24.066  27.441   5.139  0.0634  0.1591  0.0433
27285W        W70197  24.109  27.491   5.903 -0.0935  0.0738 -0.2631
27286W        W70198  21.668  28.789   4.308  0.2736  0.1572 -0.3903
27287W        W70199  22.018  28.241   4.692 -0.1193  0.2616 -0.0415
27288W        W70200  23.114  28.121   5.033 -0.1212  0.2152  0.1902
27289W        W70201  24.224  27.897   5.125 -0.1668 -0.1835 -0.1514
27290W        W70202  23.140  27.209   7.352  0.0180 -0.0935  0.0717
27291W        W70203  21.585  29.059   5.957  0.0124  0.1523 -0.1059
27292W        W70204  22.105  27.806   3.809 -0.1301 -0.0452  0.0442
27293W        W70205  23.505  27.961   7.896 -0.1187 -0.1792 -0.2498
27294W        W70206  22.719  28.132   6.364  0.2536 -0.0583  0.0358
27295W        W70207  23.161  25.472   5.001 -0.3296  0.0463  0.2062
27296W        W70208  23.793  26.779   3.496  0.0829  0.1550  0.2783
27297W        W70209  24.230  27.700   3.062  0.2374 -0.2649  0.1124
27298W        W70210  23.749  27.878   3.265 -0.0173  0.2589  0.1350
27299W        W70211  23.183  27.686   6.281 -0.3196 -0.0414  0.3128
27300W        W70212  21.933  28.202   6.059 -0.1261  0.0775  0.0255
27301W        W70213  24.577  25.200   6.929 -0.1416  0.2359  0.0645
27302W        W70214  22.400  27.360   3.626 -0.0251 -0.1466  0.1925
27303W        W70215  23.286  27.558   2.994 -0.2723  0.0210  0.1107
27304W        W70216  23.193  25.494   2.612  0.1903 -0.0640  0.2446
27305W        W70217  24.233  27.173   3.535  0.1827 -0.2393  0.0968
27306W        W70218  23.163  23.751   4.874 -0.0259 -0.2129 -0.1914
27307W        W70219  22.943  29.885   5.513  0.2829 -0.1221  0.1511
27308W        W70220  22.871  25.814   4.666  0.0608  0.1653  0.1198
27309W        W70221  23.544  26.772   5.832 -0.0858 -0.1725 -0.2155
27310W        W70222  21.786  26.667   3.000  0.1153 -0.0785  0.1775
27311W        W70223  23.127  26.114   4.916 -0.1218  0.0027 -0.0115
27312W        W70224  22.269  27.927   7.336  0.2178 -0.0792 -0.0794
27313W        W70225  21.918  27.359   5.847 -0.3195 -0.1393 -0.1996
27314W        W70226  23.435  29.003   4.663 -0.1093 -0.1035 -0.0396
27315W        W70227  24.470  29.986   4.036  0.1476  0.2243  0.4123
27316W        W70228  23.541  26.629   3.017  0.0110  0.0163  0.0441
27317W        W70229  22.209  26.036   2.451  0.2811 -0.0653 -0.3174
27318W        W70230  22.435  26.496   7.175 -0.0063 -0.4206  0.1435
27319W        W70231  21.794  26.472   5.949 -0.1572  0.3155 -0.0570
27320W        W70232  22.584  24.168   4.485 -0.1622  0.1649 -0.1048
27321W        W70233  24.477  27.108   7.076  0.1701 -0.1208 -0.1567
27322W        W70234  22.302  28.046   6.724 -0.0704  0.0373 -0.1124
27323W        W70235  23.079  25.723   5.387 -0.0203  0.0770 -0.4006
27324W        W70236  22.291  26.218   5.233  0.0478 -0.3020 -0.2662
27325W        W70237  23.622  27.717   5.992  0.0801  0.3753  0.2595
27326W        W70238  23.835  27.401   3.168  0.1465 -0.0882 -0.4306
27327W        W70239  23.952  24.668   4.772 -0.0278 -0.1343  0.2155
27328W        W70240  25.037  25.326   5.467 -0.0856  0.1587 -0.1980
27329W        W70241  22.710  26.752   1.702 -0.1898 -0.3097 -0.1338
27330W        W70242  22.921  27.207   3.170  0.1505 -0.0377 -0.0425
27331W        W70243  23.543  28.344   4.837  0.1075  0.2599 -0.0419
27332W        W70244  26.113  26.853   2.994  0.1610  0.2381 -0.0180
27333W        W70245  22.144  28.350   3.803  0.0482 -0.1754  0.0975
27334W        W70246  22.395  25.614   6.489  0.2956  0.0785 -0.0846
27335W        W70247  23.192  26.898   7.786  0.1341  0.1966 -0.2229
27336W        W70248  22.852  30.625   3.120  0.1515 -0.2063  0.2307
27337W        W70249  21.267  27.344   4.419  0.3209 -0.2679 -0.1222
27338W        W70250  22.888  28.112   3.530 -0.1393 -0.0750 -0.0119
27339W        W70251  22.435  27.990   5.942  0.2605  0.0258 -0.0275
27340W        W70252  22.477  27.628   5.360 -0.1184  0.0582 -0.0376
27341W        W70253  24.338  25.327   3.573 -0.1059 -0.0197 -0.0462
27342W        W70254  22.136  25.717   6.019  0.0481 -0.2137 -0.0190
27343W        W70255  25.246  26.060   4.483 -0.1941 -0.0156 -0.1722
27344W        W70256  21.904  25.545   4.323 -0.0821  0.1357  0.1190
27345W        W70257  24.107  29.892   5.364  0.2283  0.1875 -0.0834
27346W        W70258  25.606  26.297   4.219 -0.0325  0.1446 -0.2807
27347W        W70259  25.254  28.214   4.550  0.0621 -0.1383 -0.1395
27348W        W70260  21.403  27.300   5.960 -0.5380 -0.0699 -0.0074
27349W        W70261  22.088  27.006   5.447 -0.2748 -0.2706 -0.1973
27350W        W70262  22.312  25.019   6.562  0.1946  0.0906 -0.1878
27351W        W70263  21.891  26.506   5.296  0.2438 -0.0594 -0.0603
27352W        W70264  24.500  26.628   6.178 -0.1913  0.3928  0.0488
27353W        W70265  21.827  25.457   3.751 -0.1343  0.1322  0.1139
27354W        W70266  24.959  26.320   5.635 -0.0081 -0.1054  0.0930
27355W        W70267  23.400  24.603   2.566  0.0072 -0.1221 -0.3077
27356W        W70268  21.541  27.653   4.013 -0.1983  0.1550 -0.4105
27357W        W70269  24.563  25.875   7.273 -0.1225 -0.1660 -0.1309
27358W        W70270  24.127  27.648   3.534  0.3411  0.0717  0.2867
27359W        W70271  23.905  27.740   6.875  0.2399  0.0228  0.0226
27360W        W70272  23.881  28.638   5.710  0.0918  0.0820  0.0155
27361W        W70273  22.819  26.773   5.016  0.0647  0.1002 -0.2636
27362W        W70274  20.926  24.784   4.505  0.2320  0.0574  0.2020
27363W        W70275  23.130  29.526   4.838  0.0995  0.3490  0.1387
27364W        W70276  23.239  27.550   4.061  0.3345 -0.0538  0.1821
27365W        W70277  22.705  25.737   3.236 -0.0028  0.3920 -0.2295
27366W        W70278  24.786  28.814   5.289 -0.4013  0.2529  0.1367
27367W        W70279  24.232  27.151   4.771 -0.0145  0.0254 -0.1114
27368W        W70280  21.094  28.331   6.964 -0.1584  0.1674 -0.0735
27369W        W70281  23.228  25.063   6.348  0.1292  0.0338  0.0123
27370W        W70282  24.000  26.453   6.465 -0.0811 -0.1531  0.2645
27371W        W70283  24.457  26.529   4.187  0.1152 -0.0253 -0.2592
27372W        W70284  21.846  24.938   3.802  0.3373 -0.1528  0.2754
27373W        W70285  23.931  28.496   6.308  0.0933 -0.0168  0.0085
27374W        W70286  22.564  28.601   3.868 -0.0139  0.1670 -0.0303
27375W        W70287  23.862  27.157   5.473  0.0528 -0.0088  0.0342
27376W        W70288  24.402  27.995   4.365  0.0143  0.3718  0.2594
27377W        W70289  24.502  25.384   5.346  0.2193 -0.1063 -0.1091
27378W        W70290  21.356  25.927   7.926  0.3357  0.1768 -0.5098
27379W        W70291  23.702  26.092   6.609  0.2570  0.1990 -0.2752
27380W        W70292  21.462  26.508   3.952  0.0369 -0.2365  0.1501
27381W        W70293  22.132  28.341   5.617 -0.0401  0.2005  0.1362
27382W        W70294  22.702  25.316   4.839  0.0773 -0.4572 -0.1114
27383W        W70295  23.905  25.306   3.993  0.1638 -0.0193  0.0972
27384W        W70296  23.660  27.345   7.532 -0.1423  0.0287 -0.1402
27385W        W70297  25.572  28.591   4.773 -0.0161 -0.2589  0.0223
27386W        W70298  24.551  24.666   3.676  0.2088 -0.2122 -0.0752
27387W        W70299  24.500  25.545   4.069  0.1470 -0.0935  0.1323
27388W        W70300  21.682  27.992   6.442  0.0321  0.1755 -0.0537
27389W        W70301  23.218  26.599   4.844 -0.2868 -0.1346 -0.2257
27390W        W70302  21.849  27.274   4.318 -0.0580  0.0689  0.3133
27391W        W70303  22.512  24.923   2.697 -0.0905  0.2046 -0.2383
27392W        W70304  25.070  27.420   3.639 -0.3204 -0.0315 -0.4169
27393W        W70305  23.865  27.835   5.568  0.1802 -0.4086 -0.1159
27394W        W70306  24.582  28.123   6.713 -0.3312  0.0444  0.0647
27395W        W70307  23.691  27.501   4.274  0.0094  0.0329  0.0269
27396W        W70308  23.519  25.300   6.818 -0.2204 -0.1019  0.2214
27397W        W70309  22.580  24.307   3.667 -0.1636  0.0546  0.1693
27398W        W70310  23.937  25.349   3.059  0.0307  0.2712  0.0456
27399W        W70311  22.477  27.346   2.343 -0.3808  0.0485  0.2921
27400W        W70312  25.245  24.828   6.370 -0.3353 -0.1935  0.2733
27401W        W70313  22.880  26.860   4.493 -0.1217  0.3577 -0.0617
27402W        W70314  21.946  25.928   6.519  0.1851 -0.1317 -0.1339
27403W        W70315  24.156  25.945   6.690 -0.0837  0.1442  0.0705
27404W        W70316  25.086  27.613   4.673  0.0167  0.2050  0.1978
27405W        W70317  24.374  27.021   4.286  0.0731 -0.0260 -0.0358
27406W        W70318  22.737  25.752   2.751 -0.2378 -0.1248 -0.0825
27407W        W70319  24.019  26.247   5.101 -0.1222  0.2134 -0.2328
27408W        W70320  21.241  28.548   5.691  0.0547  0.3901  0.1677
27409W        W70321  21.829  29.337   6.933 -0.2017 -0.1734 -0.1269
27410W        W70322  23.662  26.589   6.829  0.1561  0.1754 -0.1681
27411W        W70323  23.887  26.832   4.520 -0.0612  0.1444  0.0668
27412W        W70324  23.507  25.797   5.945 -0.1520 -0.2546  0.0725
27413W        W70325  22.793  24.714   3.541 -0.1811  0.0175 -0.1403
27414W        W70326  23.568  27.486   6.528 -0.2522  0.2160 -0.0090
27415W        W70327  22.344  27.040   4.015  0.2785 -0.0776 -0.1863
27416W        W70328  23.074  24.784   5.317 -0.2840 -0.2766 -0.2074
27417W        W70329  22.308  29.002   7.174  0.1840 -0.0111  0.2258
27418W        W70330  22.852  27.647   3.728  0.2845 -0.1429 -0.2510
27419W        W70331  23.698  27.796   5.076  0.4868  0.1024  0.2988
27420W        W70332  23.363  28.637   4.280  0.1515 -0.0473  0.2429
27421W        W70333  25.102  25.054   5.858 -0.3008 -0.0006  0.0933
27422W        W70334  21.805  29.250   5.475  0.0243 -0.1119  0.0448
27423W        W70335  22.623  25.287   3.549 -0.0337  0.1636  0.0728
27424W        W70336  22.045  27.564   3.307 -0.1551 -0.0884  0.1783
27425W        W70337  24.979  25.617   5.061  0.1131 -0.0411  0.0372
27426W        W70338  23.124  26.962   2.632 -0.2842  0.3884 -0.3138
27427W        W70339  21.674  26.864   5.591  0.0619  0.0559  0.0097
27428W        W70340  22.559  26.654   5.519  0.0230  0.2193 -0.2218
27429W        W70341  20.949  28.893   5.073  0.0868 -0.0721 -0.3092
27430W        W70342  23.630  25.221   6.041 -0.0972 -0.0162  0.0881
27431W        W70343  25.194  24.831   4.671 -0.0525 -0.0933 -0.0288
27432W        W70344  22.918  27.523   5.835 -0.0627 -0.0761  0.1949
27433W        W70345  22.940  27.399   6.866 -0.1200  0.2694 -0.1434
27434W        W70346  22.302  26.555   3.706  0.0497 -0.1519  0.2157
27435W        W70347  23.938  25.704   6.109  0.0640  0.0578  0.0405
27436W        W70348  23.008  25.439   4.378  0.0360  0.2049  0.0827
27437W        W70349  23.813  28.609   4.488 -0.2781 -0.0493  0.0645
27438W        W70350  22.176  28.000   5.138 -0.0503 -0.1536  0.0771
27439W        W70351  22.050  25.845   2.974  0.2703  0.1297  0.1623
27440W        W70352  23.410  27.185   3.201 -0.2235  0.2131 -0.1340
27441W        W70353  21.950  25.367   6.538 -0.2013  0.2855  0.0886
27442W        W70354  23.865  25.939   4.628 -0.4640 -0.0048 -0.4880
27443W        W70355  23.057  25.601   6.372 -0.1548  0.1894  0.4315
27444W        W70356  22.679  25.827   5.133  0.3157 -0.2609 -0.2168
27445W        W70357  23.295  27.225   4.436 -0.1274 -0.1223 -0.0694
27446W        W70358  23.240  26.977   6.715 -0.4236  0.3130  0.0297
27447W        W70359  22.954  26.289   5.357  0.0868  0.3444 -0.1907
27448W        W70360  22.329  27.597   7.724  0.0003 -0.1681  0.0509
27449W        W70361  23.443  25.592   4.413 -0.4305  0.1255 -0.1941
27450W        W70362  26.065  29.607   5.114  0.1477  0.1400 -0.2619
27451W        W70363  24.894  27.301   5.587  0.2355  0.1405 -0.2692
27452W        W70364  22.060  26.962   3.462 -0.0597 -0.1043  0.1823
27453W        W70365  21.680  27.740   5.990  0.0128  0.1228  0.0667
27454W        W70366  23.205  26.748   3.629  0.2406  0.1756 -0.2070
27455W        W70367  22.291  24.764   4.861 -0.0364 -0.1013  0.0790
27456W        W70368  22.223  28.808   5.673 -0.1446 -0.1643  0.3132
27457W        W70369  23.991  27.164   3.997 -0.1830  0.3482 -0.0265
27458W        W70370  21.853  28.676   7.153  0.2574  0.0740  0.0510
27459W        W70371  24.606  24.539   3.165 -0.4750 -0.2581  0.0005
27460W        W70372  23.335  27.667   4.734  0.1975  0.0340 -0.2671
27461W        W70373  23.674  24.924   3.472  0.1847  0.1792 -0.0808
27462W        W70374  25.451  25.291   6.270 -0.1306 -0.1717 -0.0275
27463W        W70375  24.850  27.061   3.328  0.0312 -0.0318 -0.4057
27464W        W70376  23.722  24.755   7.520 -0.0923 -0.3500  0.3351
27465W        W70377  21.073  26.179   6.069 -0.0882  0.1306  0.0098
27466W        W70378  24.705  27.966   5.327 -0.2195 -0.2272  0.1777
27467W        W70379  21.532  26.098   6.250  0.1061 -0.1870 -0.1791
27468W        W70380  23.972  28.301   7.552  0.2519 -0.3904 -0.2808
27469W        W70381  21.967  27.413   6.817  0.0716 -0.2041  0.1456
27470W        W70382  23.684  25.015   4.387  0.2075  0.5331  0.3307
27471W        W70383  23.324  26.348   3.971  0.2628 -0.1772  0.1164
27472W        W70384  23.314  27.315   5.086  0.1125 -0.0000 -0.6466
27473W        W70385  24.619  27.902   5.862 -0.3884  0.1924 -0.3437
27474W        W70386  23.671  27.898   3.860 -0.0847  0.1586  0.0508
27475W        W70387  24.035  26.770   5.061 -0.0441 -0.0693  0.1814
27476W        W70388  22.031  27.750   4.307  0.0872  0.0250 -0.0579
27477W        W70389  25.358  26.644   5.152  0.1381 -0.2697 -0.1187
27478W        W70390  23.460  27.853   2.147 -0.0620 -0.0660 -0.0159
27479W        W70391  22.439  27.192   5.090 -0.1737  0.1887  0.0277
27480W        W70392  22.751  24.892   6.122  0.3505 -0.0777 -0.2717
27481W        W70393  23.447  26.402   5.266  0.1435 -0.1236 -0.2672
27482W        W70394  23.373  26.684   4.339 -0.0500  0.0858 -0.0498
27483W        W70395  23.475  26.898   5.263 -0.1249 -0.1943 -0.3802
27484W        W70396  23.603  25.557   5.420 -0.2175  0.0678 -0.1596
27485W        W70397  22.829  26.307   6.899  0.0750 -0.3730 -0.2047
27486W        W70398  22.063  24.441   7.493 -0.0294 -0.0411  0.2707
27487W        W70399  22.971  28.770   6.459  0.3327 -0.1137 -0.2196
27488W        W70400  24.054  26.340   4.489 -0.0147  0.1728  0.1869
27489W        W70401  24.950  24.774   7.047 -0.0098 -0.1852 -0.1863
27490W        W70402  24.931  26.065   3.557 -0.0899 -0.0880 -0.0013
27491W        W70403  24.510  26.249   3.590 -0.2479 -0.1377  0.1433
27492W        W70404  22.431  27.165   4.535  0.2693 -0.0297 -0.2323
27493W        W70405  23.428  27.499   7.061 -0.1148  0.0605  0.0377
27494W        W70406  22.930  25.672   1.719 -0.0289 -0.1557  0.0437
27495W        W70407  23.806  26.112   5.608 -0.1144 -0.0726  0.1588
27496W        W70408  23.711  28.386   4.038  0.2023 -0.0354  0.2484
27497W        W70409  22.692  26.630   6.315  0.1438  0.1822 -0.0770
27498W        W70410  24.834  25.780   5.530 -0.0061 -0.0148  0.0209
27499W        W70411  21.610  25.638   6.311  0.0731 -0.1598  0.2879
27500W        W70412  22.788  27.908   6.861 -0.0542 -0.3532 -0.0095
27501W        W70413  21.823  24.866   4.805  0.2814  0.0975  0.3496
27502W        W70414  22.612  26.998   2.751 -0.2932 -0.2400  0.0771
27503W        W70415  23.536  26.847   6.342  0.1459  0.2881 -0.1396
27504W        W70416  24.787  27.414   6.598 -0.1208 -0.0091 -0.1252
27505W        W70417  24.158  26.218   3.991  0.1672  0.1025 -0.0239
27506W        W70418  24.237  25.515   7.057  0.2797 -0.0296 -0.1355
27507W        W70419  23.397  28.078   4.360 -0.0792 -0.3262  0.0590
27508W        W70420  22.669  25.391   5.475 -0.1597  0.1045  0.0962
27509W        W70421  22.605  28.944   6.005 -0.2232  0.3443  0.2034
27510W        W70422  21.416  27.934   7.054 -0.2478 -0.0714  0.0755
27511W        W70423  22.437  27.501   4.097 -0.2232  0.1569 -0.1110
27512W        W70424  24.442  26.190   4.785 -0.0228  0.0782  0.2466
27513W        W70425  24.440  26.418   5.390 -0.1118  0.1143 -0.2737
27514W        W70426  22.720  26.303   5.911 -0.0945  0.1421  0.3690
27515W        W70427  24.801  26.984   6.257 -0.2141  0.0061  0.2266
27516W        W70428  23.230  26.452   6.679 -0.0574 -0.1935 -0.1703
27517W        W70429  21.692  26.180   4.399  0.2319  0.1324 -0.0052
27518W        W70430  23.706  27.267   8.512 -0.1580  0.1762  0.2461
27519W        W70431  24.416  27.649   5.521  0.2227  0.1313  0.0948
27520W        W70432  22.439  27.418   5.788  0.1217  0.1132 -0.0825
27521W        W70433  21.343  26.512   7.988  0.1461  0.1221  0.0269
27522W        W70434  24.032  27.569   6.387  0.0786  0.3589 -0.4180
27523W        W70435  23.943  26.596   5.565 -0.0848  0.1294 -0.1495
27524W        W70436  21.734  23.568   4.525 -0.0369 -0.1442 -0.1910
27525W        W70437  23.429  26.792   2.106 -0.1085 -0.0196 -0.1040
27526W        W70438  22.275  29.444   7.532 -0.3648  0.1066  0.3196
27527W        W70439  21.176  26.686   6.014 -0.0970 -0.1585 -0.1594
27528W        W70440  22.155  27.934   2.980  0.2442  0.2213  0.2736
27529W        W70441  23.247  28.079   3.181  0.3697  0.0654 -0.0552
27530W        W70442  24.501  27.635   6.267 -0.0170  0.4665 -0.3119
27531W        W70443  24.091  29.017   6.529  0.4369  0.0161 -0.2581
27532W        W70444  22.746  25.614   3.894  0.1759  0.1257 -0.1639
27533W        W70445  22.436  27.440   3.008 -0.1677  0.1772  0.0819
27534W        W70446  20.665  28.686   3.916 -0.2919  0.0189 -0.3362
27535W        W70447  24.027  29.056   4.770  0.2099 -0.2603  0.5205
27536W        W70448  22.998  29.363   4.343  0.1796  0.0141  0.2726
27537W        W70449  23.920  27.019   6.570  0.1179 -0.4558 -0.0392
27538W        W70450  23.867  26.654   4.029 -0.0265  0.0362  0.2218
27539W        W70451  25.362  26.801   5.796 -0.2532 -0.0956 -0.2370
27540W        W70452  27.272  24.909   3.424 -0.2665 -0.1964 -0.1649
27541W        W70453  23.792  28.521   7.967 -0.1212 -0.3246  0.1687
27542W        W70454  22.197  26.210   5.873  0.2261  0.0120 -0.1608
27543W        W70455  21.573  25.359   4.783  0.1297 -0.3103 -0.1369
27544W        W70456  22.892  28.485   6.042  0.0930  0.3094 -0.1311
27545W        W70457  24.217  24.452   8.280  0.0119 -0.2188  0.1314
27546W        W70458  21.491  29.197   4.919 -0.2088 -0.1264  0.0781
27547W        W70459  24.434  27.467   4.493 -0.0732 -0.1038  0.1701
27548W        W70460  21.813  26.303   3.737 -0.3214 -0.2187  0.2478
27549W        W70461  22.634  25.352   5.950 -0.0441 -0.0893  0.0818
27550W        W70462  24.931  23.709   6.973  0.1513  0.0051 -0.0349
27551W        W70463  22.902  26.018   3.638  0.0231 -0.1877  0.0365
27552W        W70464  23.714  25.449   3.567  0.1688  0.1565 -0.2805
27553W        W70465  22.585  28.564   4.720 -0.0507 -0.3347  0.0300
27554W        W70466  22.782  28.644   5.194  0.0682 -0.2424  0.1825
27555W        W70467  23.235  28.294   6.306  0.1164 -0.2309 -0.0320
27556W        W70468  21.718  26.013   5.750  0.2482 -0.0544 -0.0691
27557W        W70469  24.912  26.241   5.087  0.0895 -0.0767 -0.0690
27558W        W70470  23.142  26.611   6.129 -0.0773  0.5339 -0.1576
27559W        W70471  24.612  24.211   7.796 -0.2211 -0.0822 -0.0353
27560W        W70472  22.814  27.167   4.025 -0.0477  0.0119  0.0816
27561W        W70473  25.572  26.259   4.817 -0.1722  0.3839 -0.0496
27562W        W70474  22.391  26.770   6.721 -0.1240 -0.2610 -0.1765
27563W        W70475  22.453  25.154   7.942 -0.1726  0.0165  0.0652
27564W        W70476  24.557  26.156   3.066 -0.2317 -0.2009  0.0278
27565W        W70477  25.011  28.154   5.969  0.0936  0.1199  0.0062
27566W        W70478  23.250  24.566   3.430  0.1529  0.0790 -0.1225
27567W        W70479  24.523  29.090   6.258 -0.5431  0.1574 -0.1563
27568W        W70480  22.267  25.404   5.098 -0.1075 -0.2953  0.0865
27569W        W70481  22.716  26.452   3.390 -0.0325 -0.3489  0.1871
27570W        W70482  21.639  27.021   5.130 -0.3099 -0.2484  0.3446
27571W        W70483  23.204  27.192   6.209 -0.0168 -0.2631  0.1475
27572W        W70484  23.832  28.784   7.327 -0.2344 -0.0273 -0.0292
27573W        W70485  21.419  24.475   4.821  0.1070  0.1855  0.0584
27574W        W70486  24.969  28.364   5.097  0.2362  0.1403 -0.1111
27575W        W70487  24.225  25.695   4.862 -0.1400  0.0038  0.1162
27576W        W70488  23.538  29.785   3.579  0.1514 -0.1181  0.0518
27577W        W70489  24.894  26.802   4.262  0.3505 -0.0807  0.0548
27578W        W70490  23.334  28.141   5.501  0.1234 -0.0466 -0.0794
27579W        W70491  23.101  26.720   5.525  0.2548 -0.1670  0.0666
27580W        W70492  23.953  29.027   7.772 -0.1560 -0.1130  0.0286
27581W        W70493  25.666  28.660   5.334 -0.2598 -0.0082  0.1603
27582W        W70494  22.420  25.466   2.438 -0.1371  0.0292 -0.0665
27583W        W70495  22.896  27.158   5.411  0.2449  0.0828  0.1891
27584W        W70496  21.094  28.029   3.853  0.1100 -0.0760  0.4518
27585W        W70497  24.639  26.811   5.773  0.1511 -0.0355  0.0079
27586W        W70498  24.168  25.033   7.380 -0.3789 -0.1892 -0.0704
27587W        W70499  23.781  29.010   3.318  0.0072 -0.1662  0.2120
27588W        W70500  24.549  24.019   7.079  0.0137 -0.2159  0.0530
27589W        W70501  22.737  27.667   7.358 -0.2874 -0.1538 -0.3389
27590W        W70502  22.088  28.056   8.143 -0.2324 -0.0192 -0.0925
27591W        W70503  22.349  26.055   3.452 -0.1386 -0.3208 -0.0419
27592W        W70504  22.111  26.561   6.318  0.3494  0.1644 -0.1517
27593W        W70505  23.898  28.032   4.357  0.1591 -0.2687 -0.0057
27594W        W70506  23.094  28.609   3.771 -0.1748 -0.1947  0.1958
27595W        W70507  24.780  28.018   4.797  0.1268 -0.2228 -0.2013
27596W        W70508  23.672  26.431   4.821 -0.1085  0.0117  0.1425
27597W        W70509  26.239  27.001   5.528 -0.2201 -0.1551 -0.2809
27598W        W70510  22.767  25.122   3.983 -0.3368 -0.0144  0.2679
27599W        W70511  25.426  25.791   4.880  0.1769 -0.0455 -0.0038
27600W        W70512  23.079  25.540   3.545  0.0775  0.1286 -0.1028
27601W        W70513  22.732  27.055   5.924 -0.0063  0.1598 -0.1188
27602W        W70514  22.351  25.786   4.763  0.0873  0.1192 -0.1330
27603W        W70515  22.628  26.032   4.220  0.0677 -0.1455  0.1218
27604W        W70516  22.260  27.639   4.798  0.0078 -0.2205 -0.0965
27605W        W70517  22.751  25.802   6.839  0.0053 -0.1382  0.0732
27606W        W70518  22.226  26.777   5.846 -0.1847 -0.1807 -0.4627
27607W        W70519  22.682  27.611   6.254 -0.0730 -0.1506 -0.2334
27608W        W70520  21.191  25.220   3.349 -0.3240 -0.3847  0.0044
27609W        W70521  24.594  27.456   3.393 -0.1495 -0.1653 -0.0236
27610W        W70522  22.187  25.326   5.615  0.2109  0.0234 -0.2391
27611W        W70523  22.696  24.191   5.356  0.0010 -0.1345 -0.0670
27612W        W70524  24.620  27.469   5.025  0.0300  0.0647 -0.1203
27613W        W70525  23.638  28.255   5.957  0.1640 -0.0925 -0.1710
27614W        W70526  23.041  26.287   4.413  0.0872 -0.1052 -0.0274
27615W        W70527  24.920  28.174   7.953  0.0750 -0.1706 -0.2686
27616W        W70528  21.919  26.784   3.956  0.1496 -0.0049 -0.1015
27617W        W70529  23.018  26.060   7.279  0.0846 -0.0824 -0.1642
27618W        W70530  23.663  24.839   5.663 -0.3593 -0.1726  0.1766
27619W        W70531  21.461  25.297   4.217  0.1927 -0.4084  0.4404
27620W        W70532  23.466  26.061   4.461  0.5368  0.0974 -0.0947
27621W        W70533  23.451  28.475   7.573 -0.3343  0.1682 -0.1727
27622W        W70534  24.551  29.818   3.499 -0.1520  0.2922  0.2282
27623W        W70535  23.801  27.838   7.336  0.2473 -0.0782  0.0607
27624W        W70536  22.513  28.560   6.646  0.0128  0.2810  0.3225
27625W        W70537  21.741  24.433   6.281  0.1369 -0.0275 -0.0936
27626W        W70538  23.711  27.395   3.656  0.2919 -0.0220  0.3590
27627W        W70539  23.586  27.025   7.153 -0.1120  0.0507  0.1367
27628W        W70540  24.722  27.744   3.951  0.0139  0.0493  0.1563
27629W        W70541  25.018  25.911   6.358 -0.1883  0.0464  0.2184
27630W        W70542  23.523  27.060   4.013 -0.0006 -0.3899 -0.0659
27631W        W70543  21.631  24.154   8.131 -0.1580  0.1737 -0.0881
27632W        W70544  22.947  28.034   5.894  0.0624 -0.0823 -0.2399
27633W        W70545  24.498  27.235   5.876  0.0909  0.0997 -0.1822
27634W        W70546  22.175  25.256   4.627  0.1067 -0.1080  0.3016
27635W        W70547  24.067  25.435   4.473 -0.3689  0.3167  0.0114
27636W        W70548  23.690  27.090   4.862  0.0157 -0.2343 -0.1629
27637W        W70549  22.076  26.328   4.722 -0.1139  0.1404 -0.1162
27638W        W70550  23.044  26.727   3.170 -0.1004  0.0684 -0.1790
27639W        W70551  23.694  27.215   6.030  0.1339 -0.0111 -0.0250
27640W        W70552  23.315  27.174   5.689  0.1309 -0.0318  0.1532
27641W        W70553  23.027  28.389   6.829  0.2101 -0.0095  0.2929
27642W        W70554  23.476  25.839   3.675  0.0028 -0.2411 -0.1303
27643W        W70555  24.086  27.734   4.685  0.4438 -0.1448 -0.3382
27644W        W70556  24.711  29.553   5.976  0.2232 -0.1524  0.0982
27645W        W70557  26.045  28.504   7.375  0.0252  0.2049 -0.2127
27646W        W70558  23.141  29.135   5.571 -0.0432  0.2601  0.3498
27647W        W70559  25.708  26.866   3.740  0.1197 -0.4906 -0.2454
27648W        W70560  21.905  24.375   4.717 -0.4426  0.0172  0.0128
27649W        W70561  23.168  27.269   3.638 -0.0652  0.0119 -0.0624
27650W        W70562  22.115  26.193   4.209  0.4001 -0.0148 -0.0366
27651W        W70563  24.119  28.114   6.522 -0.0845 -0.2688 -0.2707
27652W        W70564  22.582  25.819   5.664  0.0303  0.2675  0.3629
27653W        W70565  22.486  25.572   4.336  0.2414  0.0657  0.2402
27654W        W70566  22.744  30.822   6.549 -0.1045 -0.2412 -0.0748
27655W        W70567  24.406  27.034   5.331 -0.0651 -0.2180  0.0843
27656W        W70568  20.214  28.366   9.363  0.0944  0.2080 -0.2140
27657W        W70569  22.922  25.347   9.140  0.2788 -0.1277  0.1234
27658W        W70570  24.161  25.585   7.803  0.0969 -0.2111 -0.3010
27659W        W70571  24.736  27.927   7.125 -0.1117  0.0496 -0.0620
27660W        W70572  22.116  24.952   9.246 -0.1738 -0.2687  0.0860
27661W        W70573  23.365  28.075   8.471  0.2582 -0.2322 -0.0308
27662W        W70574  22.947  27.184   9.292  0.2533  0.2076  0.1626
27663W        W70575  22.870  26.899   9.670 -0.0188 -0.1986 -0.4774
27664W        W70576  23.659  27.660   8.234 -0.1085 -0.0868 -0.0422
27665W        W70577  21.356  23.844  10.443 -0.1742 -0.0546  0.1411
27666W        W70578  21.914  25.160   6.947  0.0211  0.1021 -0.2370
27667W        W70579  19.415  23.743  10.234  0.2236  0.0709  0.0659
27668W        W70580  24.524  26.442   9.173  0.1513  0.1740  0.2267
27669W        W70581  22.220  25.557   6.912  0.1501  0.2959 -0.0552
27670W        W70582  26.635  25.532   9.574  0.0173  0.1045  0.0529
27671W        W70583  23.764  25.690   6.898 -0.1322 -0.0989 -0.1037
27672W        W70584  22.537  27.881   9.091  0.0411 -0.1083 -0.2373
27673W        W70585  22.100  24.730   9.683 -0.0338 -0.0570  0.2373
27674W        W70586  23.050  26.730   9.192  0.3527 -0.1087 -0.1543
27675W        W70587  21.990  25.940   7.061  0.2371  0.1989 -0.1847
27676W        W70588  20.367  24.854  10.072  0.2835 -0.1449 -0.0567
27677W        W70589  22.435  25.111   9.678 -0.0046  0.0852 -0.0059
27678W        W70590  23.614  25.567   9.588 -0.2235  0.2244 -0.0490
27679W        W70591  24.805  25.362   9.264  0.0398  0.5177  0.3556
27680W        W70592  21.591  27.742   9.521  0.3051 -0.0282  0.2478
27681W        W70593  23.010  28.126   9.317  0.5360  0.3878  0.0562
27682W        W70594  22.976  26.663   8.515 -0.1457 -0.0531  0.2702
27683W        W70595  21.681  28.640   8.998 -0.0626 -0.1605  0.1242
27684W        W70596  22.248  27.486   8.461 -0.0970  0.2835 -0.1226
27685W        W70597  24.828  29.054   8.173  0.0315  0.2650 -0.1709
27686W        W70598  21.931  27.933   6.967  0.0884 -0.0384  0.2534
27687W        W70599  23.801  26.445   9.026 -0.2427  0.3172  0.1268
27688W        W70600  23.938  25.439   8.240 -0.1503 -0.1392  0.0836
27689W        W70601  22.967  28.620   9.322 -0.0296  0.3163  0.0614
27690W        W70602  22.906  27.024   8.139  0.1046  0.0744 -0.0334
27691W        W70603  21.598  27.569   8.856  0.1387  0.1041  0.1019
27692W        W70604  21.655  28.660   7.617  0.3965  0.1685  0.1227
27693W        W70605  24.525  26.755   6.672 -0.3925 -0.0506 -0.0574
27694W        W70606  21.787  24.964   6.201 -0.2672 -0.0373 -0.1440
27695W        W70607  24.484  25.672   8.986  0.1029 -0.1083  0.4074
27696W        W70608  22.604  23.787   9.092  0.0528 -0.0047  0.0636
27697W        W70609  22.450  26.897   9.355  0.0452 -0.1877  0.0457
27698W        W70610  21.660  25.455   8.901  0.2486  0.1655 -0.0751
27699W        W70611  23.303  26.263   5.750 -0.1331  0.3012 -0.0626
27700W        W70612  24.020  26.058  10.489  0.2632  0.1738 -0.1107
27701W        W70613  21.557  28.124   9.134 -0.0735 -0.0192 -0.0212
27702W        W70614  22.412  25.963   8.528  0.2187 -0.3014 -0.1480
27703W        W70615  24.303  28.588   7.826  0.1649 -0.0775  0.0588
27704W        W70616  24.292  27.460   9.952 -0.1864  0.1901  0.0050
27705W        W70617  24.199  28.103   7.072 -0.1037  0.0486  0.1350
27706W        W70618  23.062  25.577   8.418  0.1664 -0.0623  0.2757
27707W        W70619  22.225  24.756   7.070  0.0740 -0.1411 -0.0948
27708W        W70620  25.027  25.445   8.816  0.0850  0.0007 -0.0640
27709W        W70621  23.128  26.197   9.293  0.1366 -0.1553 -0.1042
27710W        W70622  25.279  27.989   9.998  0.1874  0.1347 -0.1354
27711W        W70623  24.860  26.825   7.420 -0.0660 -0.2964  0.1229
27712W        W70624  23.170  25.838   8.910 -0.1704  0.1596  0.1087
27713W        W70625  24.305  25.097   9.906 -0.3212  0.0978 -0.0993
27714W        W70626  23.286  27.919   6.724  0.1690  0.0315 -0.3732
27715W        W70627  22.378  26.500   7.788 -0.1583 -0.1912  0.1185
27716W        W70628  24.061  27.957   9.841 -0.1647  0.0246 -0.1974
27717W        W70629  24.494  27.651   7.859  0.0845 -0.0077 -0.4125
27718W        W70630  20.940  26.950   9.223  0.2241  0.0413 -0.1669
27719W        W70631  22.212  28.423   7.505 -0.1288  0.0542 -0.0396
27720W        W70632  18.763  27.560   9.297 -0.2466  0.1361 -0.2262
27721W        W70633  20.712  27.173   7.839 -0.0345 -0.0210  0.0953
27722W        W70634  20.947  26.951  10.249 -0.1433 -0.1445 -0.0360
27723W        W70635  22.874  27.583   9.710  0.1240 -0.0300 -0.1142
27724W        W70636  23.474  25.468   9.077 -0.2674  0.0293  0.1295
27725W        W70637  24.348  24.656   9.060  0.1321 -0.0818 -0.2940
27726W        W70638  23.568  26.620   8.647 -0.1859 -0.2393  0.0119
27727W        W70639  24.700  29.106   9.544 -0.1744  0.1540  0.0767
27728W        W70640  24.056  26.545   7.739  0.3270  0.2740 -0.0087
27729W        W70641  25.658  28.081   7.398  0.1069 -0.0027 -0.0211
27730W        W70642  21.815  27.335   9.315  0.0410 -0.0539  0.3141
27731W        W70643  22.629  25.392  10.285 -0.0269  0.0926 -0.2285
27732W        W70644  23.024  24.972   9.550 -0.4625 -0.0217  0.1236
27733W        W70645  22.641  24.375   7.705 -0.0095 -0.0917  0.1441
27734W        W70646  23.893  25.280   9.319 -0.1448 -0.1804 -0.0428
27735W        W70647  23.754  23.873   8.126 -0.1794  0.1220  0.2540
27736W        W70648  22.772  26.065   7.812  0.1964 -0.2339  0.0304
27737W        W70649  24.005  27.409   8.016 -0.1884 -0.1229  0.1374
27738W        W70650  24.831  28.093  10.484  0.2529 -0.1171  0.0845
27739W        W70651  24.181  29.228  10.000 -0.0799 -0.2601 -0.1187
27740W        W70652  23.795  26.641  10.206 -0.1158  0.4123  0.0656
27741W        W70653  21.951  24.974   7.706 -0.2135 -0.1164 -0.1081
27742W        W70654  22.749  28.784   8.842 -0.0039  0.2470  0.2689
27743W        W70655  22.871  28.238   8.804  0.2092  0.0736  0.0733
27744W        W70656  23.249  23.035   8.058 -0.0271  0.0388 -0.1009
27745W        W70657  25.163  29.098   8.832  0.1961 -0.1411 -0.3014
27746W        W70658  23.587  27.431   9.003  0.2664  0.1182  0.1023
27747W        W70659  24.597  24.939   9.478 -0.3284 -0.0783  0.0779
27748W        W70660  23.432  25.198   8.189 -0.2235 -0.3612 -0.3794
27749W        W70661  22.035  25.465   7.941  0.0330  0.0345 -0.0096
27750W        W70662  22.803  28.466  10.074  0.0654  0.0423  0.2479
27751W        W70663  21.664  27.500   7.273 -0.0689 -0.2796  0.1782
27752W        W70664  21.297  26.755   8.406 -0.4083  0.0214 -0.1146
27753W        W70665  23.083  26.422   9.767  0.3914  0.0101 -0.1186
27754W        W70666  23.983  25.986   9.909 -0.3174  0.1623  0.0171
27755W        W70667  22.539  25.135   6.978  0.2875 -0.1508 -0.1609
27756W        W70668  23.519  24.671   8.819 -0.0796 -0.2676 -0.0605
27757W        W70669  23.795  24.647   7.977 -0.2128  0.2289  0.0769
27758W        W70670  23.780  26.036   7.875  0.4359  0.1652  0.0239
27759W        W70671  23.762  25.302   7.303  0.1445 -0.0989 -0.0378
27760W        W70672  23.558  24.908   7.060 -0.0342  0.3100  0.4452
27761W        W70673  24.353  28.141   8.031  0.1359 -0.1339 -0.1749
27762W        W70674  23.706  25.936   9.073 -0.1282 -0.1932 -0.0668
27763W        W70675  23.050  24.021   7.817 -0.0000 -0.1985 -0.1978
27764W        W70676  23.929  28.399   8.734  0.1729 -0.2080 -0.1420
27765W        W70677  21.633  26.436   9.449 -0.1044 -0.0784  0.0020
27766W        W70678  24.273  27.187   8.506 -0.0189  0.0750 -0.5636
27767W        W70679  23.884  23.694  10.431  0.1008 -0.1733 -0.1711
27768W        W70680  24.031  26.796   6.056 -0.2575  0.0295 -0.1078
27769W        W70681  22.911  24.703   7.947  0.2938 -0.2312  0.0213
27770W        W70682  22.353  28.389   7.048 -0.2542  0.1379 -0.1350
27771W        W70683  24.299  27.005  10.124 -0.0140 -0.0195  0.1282
27772W        W70684  22.251  25.995   7.982 -0.4041 -0.3435 -0.0214
27773W        W70685  24.017  27.032   7.482  0.0379  0.0545 -0.1229
27774W        W70686  22.872  26.028   8.341  0.1762  0.0512  0.2354
27775W        W70687  22.813  25.543   7.355 -0.4116  0.0258 -0.1197
27776W        W70688  24.800  22.699  10.022 -0.0661  0.0586 -0.0487
27777W        W70689  21.176  28.599   9.882 -0.2440  0.2926  0.0685
27778W        W70690  23.467  26.391   8.032  0.2142 -0.0876 -0.0484
27779W        W70691  23.936  24.575   7.074 -0.3541 -0.0375  0.1880
27780W        W70692  21.917  27.319   7.998 -0.1492  0.1087 -0.2180
27781W        W70693  22.747  29.188   9.804  0.1927  0.1107  0.0538
27782W        W70694  22.513  25.070   8.578 -0.1541  0.0113  0.0771
27783W        W70695  23.942  27.034   9.785  0.2333 -0.1554 -0.1235
27784W        W70696  22.619  27.813   8.161 -0.2109  0.0710 -0.1615
27785W        W70697  22.559  28.098   9.547 -0.1014 -0.0915  0.0554
27786W        W70698  22.742  27.122   6.456  0.1341 -0.1697  0.2388
27787W        W70699  23.713  25.702  10.306 -0.4225  0.2503 -0.0383
27788W        W70700  21.252  27.309   9.155  0.2191  0.2391  0.0511
27789W        W70701  23.337  26.096   6.271  0.1934 -0.0120 -0.0649
27790W        W70702  22.029  25.099   8.766 -0.0701  0.1072  0.0310
27791W        W70703  23.380  23.098   9.906 -0.0260 -0.3589  0.2153
27792W        W70704  23.987  27.838   7.806  0.1426 -0.1190  0.1453
27793W        W70705  22.563  24.364  10.643 -0.0567 -0.1539  0.1132
27794W        W70706  23.834  26.509   9.733 -0.3276  0.2486  0.0556
27795W        W70707  20.565  27.110   9.965 -0.0545  0.1030  0.0607
27796W        W70708  24.632  25.444   7.988  0.2018 -0.0840  0.4676
27797W        W70709  21.523  25.369   9.464  0.0965 -0.0537 -0.0468
27798W        W70710  26.113  23.476   9.818 -0.3198 -0.0817 -0.0078
27799W        W70711  22.882  26.192   6.445  0.0541  0.2191 -0.1733
27800W        W70712  23.360  26.845   8.242  0.0408 -0.0796 -0.4121
27801W        W70713  22.506  28.047  10.108  0.3868 -0.2268  0.2246
27802W        W70714  22.418  24.778   7.553 -0.1895  0.1164  0.1715
27803W        W70715  22.517  26.408   8.306 -0.1357 -0.0463  0.0942
27804W        W70716  22.825  25.485   9.662 -0.1197 -0.2312  0.0146
27805W        W70717  22.450  25.321   9.125 -0.1074 -0.0082 -0.2104
27806W        W70718  23.691  24.283   8.364  0.1228 -0.2761 -0.2222
27807W        W70719  22.768  26.162   8.878  0.0948 -0.3066  0.0783
27808W        W70720  24.395  27.440  10.483  0.1605 -0.1051  0.2056
27809W        W70721  23.408  26.475  10.487  0.1700  0.1519  0.1325
27810W        W70722  23.182  23.923   9.180 -0.0074 -0.4241 -0.2467
27811W        W70723  23.797  28.919   8.825 -0.1115  0.0393  0.4374
27812W        W70724  22.647  27.150   7.273  0.0009 -0.2671  0.4209
27813W        W70725  19.192  27.785  10.291 -0.1405 -0.0934  0.0358
27814W        W70726  21.999  26.409   6.774  0.0616  0.4069 -0.2080
27815W        W70727  23.406  25.439  10.015  0.3426 -0.0722 -0.1334
27816W        W70728  22.457  27.217   9.823  0.2382 -0.0280  0.0779
27817W        W70729  21.777  28.172   7.438  0.3180 -0.4102  0.2285
27818W        W70730  20.821  27.337   9.524 -0.0450 -0.1044 -0.2944
27819W        W70731  25.096  24.705   8.369  0.0286  0.0997  0.0064
27820W        W70732  22.891  26.497   8.004 -0.3272  0.1595 -0.2574
27821W        W70733  23.150  24.288   8.231 -0.0952 -0.0542 -0.0361
27822W        W70734  24.732  25.394   7.459  0.1455 -0.1437 -0.2132
27823W        W70735  19.208  23.604   8.934  0.1813  0.0957  0.3415
27824W        W70736  24.484  26.499  10.171 -0.2547  0.3020 -0.1514
27825W        W70737  24.274  25.111   8.107  0.1999 -0.1716  0.2556
27826W        W70738  23.120  24.966   6.808  0.0966 -0.0530  0.0581
27827W        W70739  21.491  26.864   9.856  0.0205 -0.1848  0.2662
27828W        W70740  25.191  26.915  10.284  0.1046  0.2588  0.3737
27829W        W70741  22.459  25.922   7.270 -0.1377  0.0424  0.3896
27830W        W70742  23.994  25.901   8.431  0.2457 -0.0131 -0.1346
27831W        W70743  22.047  26.847   8.995  0.0640  0.0318 -0.0636
27832W        W70744  24.516  27.200   7.566  0.0161 -0.1898 -0.2097
27833W        W70745  22.447  27.531   6.863 -0.0671  0.0483 -0.1035
27834W        W70746  23.254  26.047   7.688 -0.0451 -0.3997  0.0225
27835W        W70747  23.684  26.819   7.796 -0.1669 -0.1775 -0.2607
27836W        W70748  23.762  24.748  10.069 -0.2107  0.1466 -0.0067
27837W        W70749  23.158  31.158  10.170 -0.0226  0.1274  0.3171
27838W        W70750  23.533  26.173   7.072 -0.0964 -0.0193 -0.1813
27839W        W70751  23.602  26.193  10.105  0.0871 -0.0654 -0.1029
27840W        W70752  24.041  26.375   8.385 -0.0805 -0.3253 -0.2700
27841W        W70753  22.851  26.544   7.436  0.0375  0.4013 -0.0152
27842W        W70754  21.604  26.922   9.256 -0.1253  0.0137 -0.0128
27843W        W70755  23.228  25.216   7.337  0.1555 -0.4026  0.0716
27844W        W70756  23.282  28.398   8.028  0.1253  0.0380 -0.0276
27845W        W70757  23.901  26.824   8.265  0.2910 -0.1330 -0.1417
27846W        W70758  23.413  25.707   7.293  0.0806  0.1166  0.0480
27847W        W70759  22.081  26.079   7.543  0.0849 -0.0827 -0.1224
27848W        W70760  22.413  24.219   5.791  0.2572  0.1656 -0.1653
27849W        W70761  24.113  26.756   6.953 -0.0344 -0.2314  0.1497
27850W        W70762  22.373  29.241   9.477 -0.0150  0.0332 -0.1740
27851W        W70763  23.112  23.995   6.373 -0.0166 -0.0364  0.0146
27852W        W70764  21.924  26.509   9.813 -0.2098  0.0658 -0.0261
27853W        W70765  23.077  24.740   9.044  0.0728  0.0555  0.0815
27854W        W70766  20.115  28.262   9.918 -0.3628  0.3053  0.2639
27855W        W70767  22.375  27.975   8.584 -0.3696  0.1141  0.2016
27856W        W70768  24.698  23.805  10.465  0.3314 -0.0297  0.0438
27857W        W70769  23.413  26.787   9.903 -0.2001  0.0273 -0.1258
27858W        W70770  22.165  23.630   9.291  0.0945  0.3512  0.0078
27859W        W70771  23.477  26.580   9.391  0.3609 -0.1150  0.0377
27860W        W70772  24.801  26.300   8.228  0.1634 -0.3480  0.1420
27861W        W70773  23.243  27.048   8.782 -0.2771  0.3676 -0.0800
27862W        W70774  23.992  25.565   8.910  0.1318 -0.0567 -0.1196
27863W        W70775  22.707  24.511   8.463  0.0069  0.2023  0.3348
27864W        W70776  23.421  27.295   7.977  0.4433 -0.0850 -0.0214
27865W        W70777  22.333  25.581   9.868 -0.0199  0.0816  0.0335
27866W        W70778  21.094  28.682   8.892 -0.1047 -0.2561 -0.0808
27867W        W70779  23.992  27.263   7.022  0.2350 -0.1064 -0.1667
27868W        W70780  24.001  26.313   7.272 -0.2098  0.0618 -0.3411
27869W        W70781  23.561  27.107  10.272  0.2199  0.1188  0.1371
27870W        W70782  23.350  24.705   8.195 -0.1571 -0.0844 -0.0768
27871W        W70783  21.972  26.943   9.569  0.0822 -0.1615  0.1935
27872W        W70784  22.151  27.403   7.280  0.1420  0.1903 -0.4559
27873W        W70785  24.654  27.729   8.349 -0.2029 -0.3927  0.4304
27874W        W70786  21.038  27.751   9.762  0.1999 -0.1473 -0.4793
27875W        W70787  23.381  25.867   8.194  0.0118 -0.0762  0.1190
27876W        W70788  24.902  25.927   9.042 -0.2586  0.1294 -0.2188
27877W        W70789  24.426  25.850   8.203 -0.2736 -0.2174 -0.0797
27878W        W70790  23.555  26.114   9.603 -0.3308  0.1030  0.1378
27879W        W70791  22.047  25.038   8.207  0.0704  0.2117  0.1280
27880W        W70792  26.029  28.878   7.717  0.1676  0.0219 -0.0401
27881W        W70793  22.891  25.148   8.190 -0.1570  0.0971  0.0448
27882W        W70794  23.558  25.623   8.603 -0.0930  0.3281 -0.1355
27883W        W70795  22.784  24.947  10.391  0.1776 -0.2197 -0.1769
27884W        W70796  22.642  26.916   7.719 -0.0567 -0.4908  0.3965
27885W        W70797  23.302  24.769  10.237  0.1262  0.0900 -0.0546
27886W        W70798  22.076  27.726   8.933 -0.1408  0.1271 -0.0690
27887W        W70799  22.644  26.652   8.897 -0.2735  0.0184  0.0628
27888W        W70800  21.587  26.536  10.293  0.1987  0.0723  0.0408
27889W        W70801  22.782  25.064   7.565  0.2752  0.0692  0.0215
27890W        W70802  24.475  26.723   8.374  0.2125 -0.0842 -0.0110
27891W        W70803  19.687  27.754   9.411  0.1538 -0.1656  0.1362
27892W        W70804  24.091  26.278   9.396  0.2889  0.0400 -0.1123
27893W        W70805  24.415  25.186   9.019 -0.1077 -0.1119 -0.1312
27894W        W70806  22.147  26.851  10.082 -0.1041 -0.0843  0.1551
27895W        W70807  21.410  27.007  10.381 -0.2112  0.0238 -0.2292
27896W        W70808  22.986  25.419   6.891 -0.1595 -0.3992  0.2017
27897W        W70809  24.417  26.289   6.949  0.2415 -0.0903  0.0145
27898W        W70810  22.728  25.843   9.251 -0.2736 -0.4543 -0.2180
27899W        W70811  23.561  25.561   6.414  0.0240  0.4031  0.1365
27900W        W70812  23.138  24.390   6.774  0.1427  0.2278 -0.0246
27901W        W70813  22.707  25.993   9.775 -0.0467 -0.0212  0.5726
27902W        W70814  23.285  24.049   9.686  0.3999 -0.1392  0.1331
27903W        W70815  24.419  28.055   7.528  0.0602 -0.2309  0.0935
27904W        W70816  24.096  26.775   9.310  0.1353  0.1259 -0.2133
27905W        W70817  23.000  28.708   7.592  0.0823 -0.0392 -0.2776
27906W        W70818  25.049  28.643   7.873  0.1736  0.1091 -0.0876
27907W        W70819  23.389  25.283  10.495 -0.2026 -0.1925  0.0553
27908W        W70820  21.228  25.999  10.281 -0.1491 -0.2932 -0.2500
27909W        W70821  22.490  26.532   9.836  0.0982 -0.0458 -0.0289
27910W        W70822  23.047  26.817  10.270  0.1201 -0.2136  0.1528
27911W        W70823  23.889  25.824   7.447  0.3533 -0.0900  0.0856
27912W        W70824  21.905  25.965   8.708  0.2062  0.1179 -0.1500
27913W        W70825  21.775  27.678   8.307 -0.0111  0.0882 -0.1756
27914W        W70826  24.323  25.404   9.492 -0.0276  0.0885 -0.1943
27915W        W70827  22.177  28.975   6.675  0.3702 -0.0980 -0.4497
27916W        W70828  21.831  27.282  10.004 -0.1131 -0.2812  0.0293
27917W        W70829  21.866  26.422   7.875  0.0632 -0.1972 -0.1957
27918W        W70830  22.890  27.492   7.788 -0.0397 -0.1326 -0.1744
27919W        W70831  22.401  28.382   8.381  0.2281  0.0538 -0.1333
27920W        W70832  23.393  29.226  10.038 -0.0552  0.0899 -0.0925
27921W        W70833  24.394  25.425   8.516 -0.0389 -0.0026  0.0255
27922W        W70834  23.591  26.415   7.542 -0.3697 -0.0767  0.2501
27923W        W70835  22.298  25.978   9.030 -0.0793 -0.0485  0.0135
27924W        W70836  25.165  24.434   8.816 -0.2830  0.0186 -0.2128
27925W        W70837  23.834  24.871   8.377 -0.2899 -0.2063 -0.2131
27926W        W70838  23.837  26.932   8.898  0.1838 -0.0766  0.2273
27927W        W70839  21.597  26.598   7.015 -0.0965  0.1662 -0.1240
27928W        W70840  21.556  26.135   6.770  0.3783  0.1244 -0.3722
27929W        W70841  23.178  26.382   8.852  0.0841 -0.3136  0.0827
27930W        W70842  21.818  25.960   8.120  0.2049  0.0430  0.0512
27931W        W70843  22.435  24.675   8.055  0.0685 -0.0308  0.1722
27932W        W70844  25.113  28.779   7.396 -0.2541 -0.0408  0.0608
27933W        W70845  21.629  24.785  10.269  0.1998 -0.1367  0.1486
27934W        W70846  22.396  26.084  10.122  0.0377 -0.1650 -0.3616
27935W        W70847  23.542  27.983  10.005  0.3130 -0.4303  0.2335
27936W        W70848  24.145  27.550   8.958 -0.0797 -0.0921  0.2576
27937W        W70849  23.300  24.973   7.763 -0.1154 -0.2010  0.1751
27938W        W70850  21.508  27.115   6.959  0.1217 -0.3243 -0.2212
27939W        W70851  22.588  23.844   7.629 -0.0915 -0.2599 -0.0743
27940W        W70852  23.183  25.938   9.946 -0.0819  0.0856  0.0600
27941W        W70853  23.108  27.706   8.163  0.0002  0.0560  0.2341
27942W        W70854  23.248  28.946   8.091 -0.3805 -0.0299  0.1073
27943W        W70855  21.147  25.195  10.378 -0.2014 -0.0849 -0.1772
27944W        W70856  23.549  25.582   7.742  0.1826 -0.0952 -0.2040
27945W        W70857  25.954  27.886   7.934 -0.2645 -0.3255  0.0851
27946W        W70858  24.047  24.474   8.719  0.1210 -0.2419 -0.1555
27947W        W70859  23.268  26.603   7.227 -0.1742 -0.1281 -0.1293
27948W        W70860  24.514  25.963  10.139  0.2888 -0.1931 -0.0042
27949W        W70861  23.060  24.871   8.567 -0.0705 -0.0049 -0.2494
27950W        W70862  24.230  23.975   8.439  0.0700  0.0827 -0.0043
27951W        W70863  23.840  28.143   8.283  0.2405 -0.0091  0.0981
27952W        W70864  22.636  26.321   9.354 -0.0644 -0.2631 -0.0304
27953W        W70865  22.882  26.811   6.997  0.0195 -0.2260  0.0348
27954W        W70866  23.309  27.539   8.578 -0.0189  0.1810 -0.1901
27955W        W70867  22.700  24.625   7.163  0.1111 -0.2699  0.1127
27956W        W70868  24.580  26.523   7.744 -0.2119 -0.1456 -0.3897
27957W        W70869  23.704  30.517   9.776 -0.3084  0.3135 -0.3992
27958W        W70870  22.516  28.465   9.108 -0.0313 -0.1246 -0.0237
27959W        W70871  24.201  26.580   8.792  0.1138 -0.0582  0.0817
27960W        W70872  22.097  24.778  10.149 -0.3104 -0.2824  0.5247
27961W        W70873  22.219  26.996   7.512  0.1214  0.2929 -0.0561
27962W        W70874  23.250  25.927   6.773  0.0749  0.1874  0.2564
27963W        W70875  24.179  25.545  10.116  0.1055  0.2872  0.1616
27964W        W70876  20.307  26.450  10.643  0.1509 -0.3248  0.2075
27965W        W70877  24.759  25.124   8.534  0.0835 -0.1499  0.0475
27966W        W70878  21.872  31.326   9.872  0.0194 -0.0874  0.0618
27967W        W70879  23.581  26.123   8.567 -0.0061  0.1040 -0.0298
27968W        W70880  22.575  30.966   3.294  0.1558 -0.2939  0.0522
27969W        W70881  24.386  30.945   0.624  0.2518 -0.0548  0.0866
27970W        W70882  23.773  29.805   0.819  0.0251 -0.0293 -0.0048
27971W        W70883  24.159  31.326   0.947 -0.0573 -0.0100 -0.1070
27972W        W70884  22.451  29.188   0.359  0.0098 -0.2876 -0.0748
27973W        W70885  23.378  31.991   2.218  0.1982 -0.0617 -0.1851
27974W        W70886  22.185  28.391   2.726 -0.0026  0.0432  0.0790
27975W        W70887  24.658  32.245   2.919  0.0848 -0.1717 -0.1540
27976W        W70888  25.789  31.340   2.769  0.2711 -0.0101 -0.3196
27977W        W70889  23.430  30.386   0.288  0.0550 -0.2290 -0.1862
27978W        W70890  23.098  30.020   2.325  0.0430 -0.1732 -0.3144
27979W        W70891  23.332  31.826   3.059  0.2307 -0.3913 -0.0592
27980W        W70892  22.539  28.074   0.350  0.0980  0.0161  0.1910
27981W        W70893  21.000  28.728   2.649  0.1003  0.0925 -0.0352
27982W        W70894  23.694  29.648   2.652 -0.1625 -0.0528 -0.1747
27983W        W70895  20.102  31.500   0.603  0.1637  0.0241  0.0243
27984W        W70896  22.917  30.501   2.150 -0.1573 -0.1375  0.0024
27985W        W70897  23.675  30.486   1.422  0.0088 -0.2633 -0.1269
27986W        W70898  23.726  33.008   1.061  0.3718 -0.0024  0.1250
27987W        W70899  22.961  29.015   2.935  0.0111 -0.0472  0.0507
27988W        W70900  23.799  29.531   3.267  0.1169  0.2667 -0.0822
27989W        W70901  23.774  32.166   1.299 -0.0074 -0.2843 -0.2533
27990W        W70902  21.831  31.826   0.790 -0.0569 -0.2240 -0.1719
27991W        W70903  22.961  30.444   2.665  0.2258 -0.1645 -0.2358
27992W        W70904  22.843  30.109   1.888 -0.0322 -0.0751 -0.1671
27993W        W70905  23.532  30.961   1.597 -0.1135 -0.2096 -0.0271
27994W        W70906  24.100  30.998   1.472 -0.2680 -0.2542  0.0661
27995W        W70907  22.481  31.161   1.374 -0.2169 -0.0939 -0.1331
27996W        W70908  22.915  32.517   2.566 -0.0204 -0.1824 -0.0477
27997W        W70909  25.174  32.114   4.068  0.1959  0.0501  0.1017
27998W        W70910  21.660  29.878   1.361  0.0189 -0.2108 -0.0481
27999W        W70911  20.167  32.686   1.709 -0.1438  0.2766 -0.1438
28000W        W70912  21.736  31.178   1.464  0.0354 -0.0592  0.0370
28001W        W70913  25.926  31.880   1.772  0.0468 -0.3935  0.1783
28002W        W70914  24.714  31.431   3.604 -0.2039  0.5304  0.2767
28003W        W70915  22.441  31.707   3.033  0.2060  0.0809 -0.0282
28004W        W70916  22.073  33.081   1.818 -0.1385  0.0675 -0.3517
28005W        W70917  24.176  32.619   2.512  0.0308  0.0205 -0.1309
28006W        W70918  22.906  31.848   1.743 -0.2711 -0.2129  0.1510
28007W        W70919  24.962  30.058   3.307 -0.2334  0.3896  0.2462
28008W        W70920  24.467  30.905   1.099 -0.1213 -0.0785  0.1814
28009W        W70921  22.766  32.711  31.885  0.2415  0.0014 -0.5827
28010W        W70922  24.110  30.662   3.489 -0.0801  0.0542  0.1019
28011W        W70923  22.248  30.269   4.242 -0.2551 -0.1400  0.0754
28012W        W70924  22.328  31.497   2.162 -0.0112  0.2342  0.0562
28013W        W70925  25.410  29.933   2.341 -0.0040 -0.0315  0.1615
28014W        W70926  22.188  32.869   0.549 -0.0416  0.0412  0.2635
28015W        W70927  26.078  31.056  31.791 -0.0219 -0.2603 -0.5056
28016W        W70928  22.697  30.782   0.314  0.4214 -0.2421 -0.2131
28017W        W70929  25.217  31.072   0.628 -0.0030  0.2074 -0.2004
28018W        W70930  23.872  28.297   1.140 -0.2673 -0.0529 -0.0221
28019W        W70931  21.929  31.677   1.702  0.1921 -0.0314 -0.0105
28020W        W70932  23.866  30.537   0.954 -0.0134 -0.1078 -0.0786
28021W        W70933  25.023  31.516   3.200  0.2626  0.0960  0.1875
28022W        W70934  24.122  30.900  31.822 -0.2644 -0.3793 -0.0593
28023W        W70935  23.161  31.753   2.566 -0.0390 -0.1419  0.3062
28024W        W70936  23.815  32.972   2.584 -0.1443 -0.5193 -0.1849
28025W        W70937  22.422  29.558   0.739  0.2305 -0.0476  0.3459
28026W        W70938  24.372  32.869  31.299 -0.0951 -0.0043 -0.1342
28027W        W70939  25.174  32.076   0.016 -0.0178  0.0103 -0.3946
28028W        W70940  24.417  33.355  31.027  0.0316  0.3907 -0.1058
28029W        W70941  21.273  31.255   2.328 -0.2028  0.1964  0.1992
28030W        W70942  22.863  32.146   2.203  0.0452  0.1811  0.1310
28031W        W70943  22.004  30.680   2.851 -0.0389 -0.0024 -0.0005
28032W        W70944  21.559  27.488  31.497  0.2736  0.1105 -0.1518
28033W        W70945  25.453  32.155   2.671  0.1297  0.0495  0.1857
28034W        W70946  22.011  32.581   2.773 -0.4369 -0.3558 -0.4361
28035W        W70947  23.799  30.482   2.566  0.0643 -0.0143  0.5240
28036W        W70948  23.718  31.771   2.753 -0.1455 -0.1449 -0.2294
28037W        W70949  24.813  33.148   1.295  0.1480  0.1625 -0.3612
28038W        W70950  23.201  32.509   0.706  0.1120  0.0962 -0.1823
28039W        W70951  24.299  28.638   2.122 -0.1655 -0.1354 -0.0295
28040W        W70952  23.377  30.444   2.354 -0.0123 -0.1213 -0.4002
28041W        W70953  22.302  32.001  31.851 -0.0553  0.0104  0.0591
28042W        W70954  23.147  30.551   1.691  0.0597  0.3057  0.1783
28043W        W70955  25.139  32.558   2.790 -0.0122 -0.3417  0.3477
28044W        W70956  24.220  31.247   0.137 -0.0224  0.0066  0.2504
28045W        W70957  22.140  33.345   0.305  0.1538  0.1624 -0.0448
28046W        W70958  22.283  28.815   2.363  0.2408  0.0134 -0.1434
28047W        W70959  24.011  31.036   3.848  0.1861  0.1592  0.0227
28048W        W70960  23.222  33.827   0.715  0.1009  0.3345  0.1503
28049W        W70961  20.945  31.531   2.684  0.0064 -0.1790 -0.1614
28050W        W70962  22.987  31.454   0.514  0.2775 -0.0799 -0.2710
28051W        W70963  21.411  29.366   1.574  0.3995  0.1352  0.2325
28052W        W70964  23.191  31.047   2.065 -0.0062 -0.2790 -0.2080
28053W        W70965  24.289  29.918   0.796  0.1522  0.1084 -0.0323
28054W        W70966  22.093  29.256   2.535  0.0130  0.2594  0.2175
28055W        W70967  23.339  30.639   3.323 -0.2304 -0.1890  0.1804
28056W        W70968  22.787  30.807   1.199 -0.2502 -0.1801 -0.0389
28057W        W70969  24.010  33.483   2.508  0.1896  0.0175 -0.0377
28058W        W70970  24.711  31.220   0.430  0.2090  0.3432 -0.0336
28059W        W70971  25.970  33.163   0.334 -0.1004 -0.0812  0.0101
28060W        W70972  22.416  31.962   2.011 -0.0689  0.0913 -0.0440
28061W        W70973  21.927  30.960   0.550 -0.1708 -0.1690 -0.0296
28062W        W70974  22.720  31.019   2.340  0.1198  0.0912 -0.0812
28063W        W70975  23.473  29.901   1.257  0.1001 -0.1446 -0.0124
28064W        W70976  24.425  30.434   3.884 -0.0977 -0.2090  0.4335
28065W        W70977  22.192  29.075  30.510  0.0150  0.0358  0.2113
28066W        W70978  24.475  29.945   0.258 -0.1334  0.0469  0.0554
28067W        W70979  24.212  30.509   1.333 -0.3032 -0.0848  0.2127
28068W        W70980  21.831  31.789  31.793  0.1061  0.1866 -0.0933
28069W        W70981  24.702  29.589   3.956  0.1011  0.1405  0.3377
28070W        W70982  21.749  32.201   1.673 -0.1112  0.1762 -0.1453
28071W        W70983  24.554  31.522   3.049 -0.2878  0.1128  0.0739
28072W        W70984  24.300  31.614   1.977 -0.3284  0.0958  0.0921
28073W        W70985  22.916  28.586   3.242  0.0521  0.3032 -0.2290
28074W        W70986  23.405  29.401   0.714 -0.0319  0.1338  0.1648
28075W        W70987  20.528  33.371   1.871 -0.1184  0.2512 -0.0440
28076W        W70988  22.869  31.495   1.395  0.0314  0.5030 -0.1800
28077W        W70989  22.433  28.223   1.044  0.1648 -0.3242 -0.0604
28078W        W70990  25.612  32.474   1.923 -0.2033 -0.2689 -0.3282
28079W        W70991  24.231  30.627   1.829 -0.2902 -0.2040 -0.0363
28080W        W70992  22.451  30.682   2.667  0.3780 -0.0008  0.3929
28081W        W70993  24.016  29.023   2.756 -0.0225  0.2010 -0.1474
28082W        W70994  26.523  31.065   2.176 -0.0389  0.4927  0.1867
28083W        W70995  24.377  30.089   1.600 -0.1981  0.0491  0.3069
28084W        W70996  21.806  30.946  31.391 -0.0888 -0.0203  0.3237
28085W        W70997  23.294  32.213   2.650  0.0821 -0.0798 -0.0842
28086W        W70998  23.321  30.812   1.140  0.0900  0.1956 -0.0605
28087W        W70999  20.982  32.615   2.232 -0.3563  0.1757  0.1510
28088W        W71000  23.099  30.335   1.151 -0.0669 -0.0154 -0.1778
28089W        W71001  23.972  30.290   2.139  0.0157  0.0020  0.1735
28090W        W71002  21.726  31.190   3.444 -0.0217 -0.0278 -0.0449
28091W        W71003  23.341  30.781   2.853 -0.1219  0.0449  0.1673
28092W        W71004  22.914  30.840  31.819  0.1786 -0.0930  0.1256
28093W        W71005  21.623  33.153   2.630 -0.0270 -0.2637 -0.4108
28094W        W71006  24.763  30.110   0.740 -0.2532 -0.4459 -0.0576
28095W        W71007  24.708  30.394   0.364  0.1113  0.2462  0.2615
28096W        W71008  24.500  30.449   4.438  0.2581 -0.1096  0.0304
28097W        W71009  24.148  32.416   0.430  0.0317 -0.1348 -0.1025
28098W        W71010  23.504  30.931  31.849  0.1475  0.1391 -0.0802
28099W        W71011  22.269  31.455   4.723 -0.0187  0.1797  0.1121
28100W        W71012  23.366  31.309   1.252  0.1330 -0.0903 -0.2702
28101W        W71013  22.960  31.466   2.992 -0.1014  0.0555  0.1465
28102W        W71014  25.002  30.981   1.086  0.0947  0.0570  0.0094
28103W        W71015  25.459  33.215   0.537  0.0382 -0.1871  0.0719
28104W        W71016  21.491  30.546   2.128 -0.0644 -0.0797 -0.1889
28105W        W71017  24.902  31.203   2.821  0.1200  0.0581  0.7241
28106W        W71018  24.532  31.982   2.284 -0.0919  0.0975  0.0008
28107W        W71019  22.976  29.239   2.384  0.0576 -0.2121  0.0508
28108W        W71020  21.440  31.556   0.070  0.2172  0.1591 -0.0538
28109W        W71021  23.877  30.702   0.202 -0.1840 -0.1700 -0.2148
28110W        W71022  20.982  32.579   0.772 -0.0277  0.1118 -0.0679
28111W        W71023  24.307  30.531   2.921  0.3104 -0.1165  0.1736
28112W        W71024  24.061  28.012   2.522 -0.0439 -0.2318 -0.0871
28113W        W71025  24.034  28.749   3.866  0.2525 -0.0234 -0.0683
28114W        W71026  25.470  31.489   3.548 -0.2466 -0.0917 -0.2188
28115W        W71027  25.070  31.658   1.335 -0.0434 -0.1844  0.3452
28116W        W71028  23.895  30.122   1.681 -0.0558  0.0610  0.0690
28117W        W71029  23.019  31.763   0.084  0.0726 -0.1128 -0.1730
28118W        W71030  23.577  28.756   2.749  0.1433  0.0043  0.0194
28119W        W71031  22.251  30.339   3.724 -0.0807  0.0516 -0.1241
28120W        W71032  22.730  32.929   2.304  0.0627 -0.1999  0.0013
28121W        W71033  24.591  32.919   3.466 -0.3400  0.0926 -0.0210
28122W        W71034  24.080  31.852   1.155 -0.1170  0.2752  0.0066
28123W        W71035  23.882  28.494   1.737  0.2925 -0.0754  0.2918
28124W        W71036  23.520  28.948   0.538 -0.1805 -0.2359  0.3482
28125W        W71037  23.052  31.039   1.593  0.0132 -0.2999  0.0068
28126W        W71038  23.752  31.106   0.469 -0.1392  0.2702  0.2274
28127W        W71039  22.884  29.388   1.231 -0.1069 -0.1202 -0.2103
28128W        W71040  22.581  30.670   1.737 -0.0180 -0.4057  0.1913
28129W        W71041  22.406  30.344   0.439 -0.2033 -0.1390 -0.3343
28130W        W71042  23.786  31.739   3.289  0.2601 -0.0795  0.0672
28131W        W71043  22.682  31.947   1.339 -0.0351 -0.0938 -0.0286
28132W        W71044  24.468  28.577   3.682 -0.4786 -0.1750 -0.1693
28133W        W71045  21.419  32.622   2.528 -0.0103 -0.1797  0.2291
28134W        W71046  23.425  30.205   0.831 -0.3656  0.2849  0.0279
28135W        W71047  21.088  29.755  31.948  0.2695  0.0557 -0.2441
28136W        W71048  25.348  29.186   1.264 -0.0828  0.1634 -0.1160
28137W        W71049  24.295  31.996   0.686  0.0308 -0.1250 -0.3059
28138W        W71050  22.027  28.903   2.869  0.0891 -0.0546  0.3902
28139W        W71051  24.274  29.592   2.314  0.0024  0.0733  0.1100
28140W        W71052  21.760  33.065   3.629  0.0996  0.0840 -0.0600
28141W        W71053  25.138  30.762   2.798 -0.0049 -0.0736  0.1433
28142W        W71054  23.001  30.339  31.005 -0.2271 -0.1149  0.2269
28143W        W71055  23.735  30.999   3.321 -0.0892  0.0260  0.2763
28144W        W71056  22.549  30.161   2.461  0.1241  0.1022 -0.1414
28145W        W71057  21.999  30.986   1.086  0.0580  0.1179  0.0135
28146W        W71058  25.806  30.340   2.384  0.0535  0.0531  0.1856
28147W        W71059  22.743  31.704  31.653 -0.1468 -0.1744  0.0098
28148W        W71060  23.032  33.605   2.921  0.2044 -0.1572  0.3870
28149W        W71061  23.377  32.298   3.125 -0.1380  0.2299 -0.0848
28150W        W71062  21.662  30.214   1.727 -0.1541  0.1357  0.2526
28151W        W71063  21.511  31.765   2.568  0.0055 -0.1515  0.1777
28152W        W71064  22.600  29.127   2.671  0.0226  0.0804 -0.4221
28153W        W71065  24.298  31.906   3.069 -0.0847 -0.2697 -0.0493
28154W        W71066  24.736  30.090   1.259  0.3172  0.0386  0.1640
28155W        W71067  23.101  29.827   1.590  0.3280  0.2369 -0.0314
28156W        W71068  23.793  31.782   1.830  0.0271  0.2900  0.1374
28157W        W71069  25.354  30.358   2.094 -0.0665 -0.2142  0.6194
28158W        W71070  23.063  31.050   3.327 -0.3610 -0.0917  0.1967
28159W        W71071  23.834  30.935   2.819 -0.2491  0.3566  0.2453
28160W        W71072  24.314  27.686   2.231  0.6742  0.4711  0.4273
28161W        W71073  24.373  32.546  31.938  0.1999 -0.1182  0.1047
28162W        W71074  25.589  32.028   4.379 -0.2628 -0.2642  0.2320
28163W        W71075  21.562  31.936   0.374 -0.3252  0.1193  0.1263
28164W        W71076  22.300  29.691   2.510 -0.0475 -0.0863 -0.1884
28165W        W71077  23.266  31.811   1.391 -0.3358 -0.0026 -0.1848
28166W        W71078  23.155  29.753   0.951  0.0596  0.0527 -0.2851
28167W        W71079  22.616  31.410   2.638 -0.1210 -0.5280  0.0229
28168W        W71080  23.788  33.956   0.691 -0.0111 -0.2502  0.0552
28169W        W71081  21.695  32.184   2.739  0.4488 -0.0746  0.0260
28170W        W71082  24.846  28.664   0.746 -0.2182 -0.1341 -0.1526
28171W        W71083  22.842  32.184   0.866 -0.0952 -0.3616  0.2917
28172W        W71084  24.013  29.897   1.237  0.0314 -0.1901 -0.0811
28173W        W71085  24.022  28.477   2.830 -0.0377 -0.1810 -0.1682
28174W        W71086  24.705  30.576   1.442  0.5323  0.1682 -0.2017
28175W        W71087  25.283  28.268   4.056  0.0487 -0.0452  0.4468
28176W        W71088  22.309  27.521   1.615 -0.1766  0.0241  0.1504
28177W        W71089  24.716  31.297   2.337 -0.2543  0.1005 -0.1143
28178W        W71090  22.666  29.383   3.205  0.2537  0.1523 -0.1202
28179W        W71091  24.497  30.976   3.558  0.0738  0.1035 -0.1082
28180W        W71092  22.149  28.933   3.754  0.1258 -0.0007 -0.0201
28181W        W71093  23.260  28.299   0.009 -0.0769 -0.1068 -0.2229
28182W        W71094  23.700  30.527  31.664  0.0553  0.0668 -0.1700
28183W        W71095  23.874  31.277   1.846  0.4108  0.1172 -0.0567
28184W        W71096  24.647  32.727   1.180 -0.1339 -0.1910 -0.2374
28185W        W71097  23.774  31.021   1.022 -0.1167  0.0715  0.1144
28186W        W71098  22.194  30.896   2.190 -0.1554  0.1224 -0.0645
28187W        W71099  25.590  29.720   1.174  0.1772 -0.1180 -0.2719
28188W        W71100  23.439  30.049  31.759  0.0584 -0.0253 -0.0147
28189W        W71101  22.642  31.148   1.868  0.1333 -0.0663  0.0847
28190W        W71102  21.902  28.222   1.799 -0.0389 -0.1083 -0.3012
28191W        W71103  22.627  32.449   1.815 -0.0059  0.0022 -0.4750
28192W        W71104  25.111  29.316   1.899 -0.2529 -0.1048  0.1856
28193W        W71105  23.212  29.584   2.657  0.0436 -0.0683 -0.1161
28194W        W71106  24.078  29.628   3.691  0.2348 -0.1951 -0.2622
28195W        W71107  23.909  30.163   3.705 -0.0753  0.1844  0.1551
28196W        W71108  21.652  30.057   2.182  0.2546  0.2505  0.2017
28197W        W71109  26.063  30.820   2.655 -0.0686  0.0170  0.2839
28198W        W71110  25.103  31.705   0.341  0.0587  0.1089 -0.3200
28199W        W71111  25.762  30.467   2.863 -0.1783 -0.1259 -0.2337
28200W        W71112  25.135  29.664   1.428  0.2190 -0.1231 -0.3065
28201W        W71113  23.982  31.514   0.421 -0.2722 -0.0247 -0.0270
28202W        W71114  22.856  28.775   2.460  0.0304  0.0964 -0.1135
28203W        W71115  24.786  31.011   4.941  0.1479  0.3144  0.3893
28204W        W71116  24.266  28.764  31.688 -0.3468 -0.2559 -0.1276
28205W        W71117  25.458  29.356   3.678  0.2461 -0.0291  0.3995
28206W        W71118  23.361  32.629   1.279 -0.0803  0.2800 -0.1498
28207W        W71119  24.287  32.283   1.109 -0.2727  0.2369  0.1442
28208W        W71120  24.089  31.652  31.869 -0.0849  0.1816 -0.1000
28209W        W71121  21.194  29.789   1.347  0.2656 -0.0366  0.2245
28210W        W71122  22.078  33.448   1.455  0.0310  0.0347  0.0819
28211W        W71123  23.156  30.470  31.534  0.0951 -0.0313  0.1997
28212W        W71124  23.352  31.259   0.778  0.3150  0.1135 -0.2136
28213W        W71125  23.694  32.834   2.111  0.0615 -0.0402 -0.0179
28214W        W71126  26.045  32.378   3.407 -0.2433  0.1606  0.1663
28215W        W71127  23.062  28.680  31.387 -0.3364  0.1562 -0.0645
28216W        W71128  24.486  30.359   3.340  0.2754 -0.0019  0.0806
28217W        W71129  22.256  32.140   1.577  0.0153  0.2747 -0.1118
28218W        W71130  24.208  29.415   0.897 -0.1167  0.4520 -0.0257
28219W        W71131  23.278  32.492   2.214  0.0323  0.1741  0.0498
28220W        W71132  21.790  31.431   2.127 -0.0793  0.0125 -0.1375
28221W        W71133  22.639  31.291   0.909 -0.0589 -0.0751 -0.1655
28222W        W71134  24.121  29.107   2.289 -0.1581 -0.2666 -0.1215
28223W        W71135  24.147  29.934   3.288  0.0877 -0.2675 -0.2718
28224W        W71136  24.227  32.011   1.615  0.2719  0.1567 -0.1836
28225W        W71137  25.520  31.652   3.053  0.2688  0.0927  0.0885
28226W        W71138  25.128  32.023   3.013 -0.0074 -0.1551 -0.1237
28227W        W71139  22.695  29.914   0.579 -0.0204  0.3451 -0.0889
28228W        W71140  23.232  33.429   3.636 -0.1075  0.3688  0.2424
28229W        W71141  24.729  31.735   1.679 -0.1278  0.4043  0.2077
28230W        W71142  22.554  31.899   2.592 -0.1431 -0.0565  0.0512
28231W        W71143  22.262  31.259   3.496 -0.0804 -0.1231 -0.1815
28232W        W71144  23.613  30.891   2.325 -0.2378 -0.0692 -0.1581
28233W        W71145  24.101  30.851   2.296  0.1965 -0.0771 -0.0170
28234W        W71146  23.229  28.575   0.548 -0.1098 -0.0317 -0.3047
28235W        W71147  23.782  31.914   0.510  0.2651 -0.0936  0.0835
28236W        W71148  22.527  32.203   3.413  0.1434  0.1010 -0.1924
28237W        W71149  22.752  31.768   3.486  0.0141  0.0208 -0.2929
28238W        W71150  22.319  32.287   0.886 -0.2784 -0.0915 -0.0863
28239W        W71151  24.530  31.410  31.357  0.0035  0.0693 -0.0249
28240W        W71152  24.808  30.735   0.743 -0.0258  0.0931 -0.0212
28241W        W71153  24.660  32.245   1.831 -0.2294  0.1301  0.1061
28242W        W71154  23.196  30.838   0.286  0.1078 -0.0146 -0.0668
28243W        W71155  22.079  32.732   0.994 -0.0825  0.3223 -0.0300
28244W        W71156  20.817  32.717   1.221  0.0735 -0.0540 -0.1746
28245W        W71157  25.094  32.485   1.971 -0.1908  0.0470 -0.1285
28246W        W71158  22.463  31.563   1.657  0.0314  0.2592  0.0853
28247W        W71159  24.554  30.835   4.052 -0.4199  0.2423 -0.0493
28248W        W71160  22.213  28.903  31.034  0.1224  0.2319  0.0384
28249W        W71161  23.456  31.320   3.077 -0.0282  0.0852 -0.1610
28250W        W71162  25.792  30.594   1.952 -0.3379  0.1635 -0.0798
28251W        W71163  24.941  31.327   5.428  0.0526 -0.0260 -0.1618
28252W        W71164  22.449  30.828   0.764  0.1062 -0.0793  0.1120
28253W        W71165  23.697  29.545  31.926 -0.4554 -0.0710  0.3178
28254W        W71166  22.687  29.709   2.207 -0.0973  0.1267  0.0684
28255W        W71167  25.729  29.186   3.193  0.1558 -0.1195 -0.2158
28256W        W71168  22.152  32.631   1.480  0.0282  0.0316  0.0895
28257W        W71169  25.745  33.372  31.173 -0.2694 -0.2920  0.2953
28258W        W71170  21.355  28.877   1.403 -0.2070  0.2696  0.0164
28259W        W71171  23.628  30.590   1.921 -0.1361 -0.1229  0.0395
28260W        W71172  25.024  29.284   2.894 -0.1794  0.2868 -0.2030
28261W        W71173  22.229  31.193  31.356  0.1154  0.0551  0.1536
28262W        W71174  24.384  29.192   1.281 -0.0060  0.0397  0.0093
28263W        W71175  22.547  33.538   1.582 -0.0560  0.1974 -0.4135
28264W        W71176  23.230  34.325   1.551 -0.2632  0.0261  0.1144
28265W        W71177  22.611  32.442   1.328 -0.1433 -0.1099  0.1725
28266W        W71178  22.215  29.999   0.871  0.0008 -0.2536 -0.2428
28267W        W71179  23.402  31.444   1.736 -0.2167 -0.1896 -0.2818
28268W        W71180  22.559  28.688   2.879 -0.1780 -0.1277  0.1347
28269W        W71181  23.481  30.118   2.813 -0.2297  0.2080 -0.2017
28270W        W71182  23.038  31.701   0.948  0.0607  0.0662 -0.0466
28271W        W71183  25.313  31.207   1.413  0.2626  0.0342 -0.1869
28272W        W71184  24.271  32.072   3.605 -0.0121 -0.0043  0.2644
28273W        W71185  22.400  30.355   3.238  0.1581 -0.1290 -0.1853
28274W        W71186  22.686  30.719  31.261  0.1639  0.0544 -0.0138
28275W        W71187  26.326  30.594   2.954  0.1697  0.1276 -0.1503
28276W        W71188  24.452  31.640   0.365  0.2519  0.2607  0.0724
28277W        W71189  25.253  31.976   3.566 -0.3768 -0.0034 -0.0575
28278W        W71190  22.130  29.145   1.843 -0.1381  0.2658  0.0321
28279W        W71191  22.161  31.700  31.489  0.0023 -0.1161  0.1455
28280W        W71192  21.269  32.336   0.359 -0.3030  0.1260 -0.0294
28281W        W71193  22.832  30.967   2.775 -0.2257 -0.0105  0.1476
28282W        W71194  25.244  33.142   5.039 -0.2060  0.0348  0.1105
28283W        W71195  21.684  29.743   3.074 -0.2440 -0.0100 -0.0879
28284W        W71196  25.596  32.115  30.212  0.1469  0.1978  0.0607
28285W        W71197  25.265  30.728   1.553  0.0557 -0.1337  0.2323
28286W        W71198  23.895  33.504   1.280  0.2729  0.1353  0.5081
28287W        W71199  25.020  30.245   1.622  0.0232 -0.1629 -0.0182
28288W        W71200  24.915  32.200   2.451 -0.1527  0.1845  0.0336
28289W        W71201  22.315  31.079   2.913  0.0291  0.1208  0.2737
28290W        W71202  23.955  32.667   3.400  0.0313 -0.0444 -0.0869
28291W        W71203  25.995  31.783   3.068 -0.1522 -0.3131 -0.1960
28292W        W71204  23.461  28.675   1.018  0.0997  0.3505  0.1611
28293W        W71205  22.258  29.972   2.022 -0.1960 -0.0738 -0.2788
28294W        W71206  22.479  31.774   0.904  0.1387  0.2264 -0.0842
28295W        W71207  25.325  30.315   2.670  0.2063 -0.0682  0.1247
28296W        W71208  25.368  31.137   3.061 -0.2009 -0.0320 -0.3120
28297W        W71209  22.668  33.675  31.492 -0.1916 -0.1410  0.0908
28298W        W71210  25.159  28.666   2.497 -0.2144  0.0021  0.2061
28299W        W71211  23.750  32.452   4.255 -0.3515  0.3959 -0.0413
28300W        W71212  24.655  32.223   4.311  0.3530  0.1539  0.1622
28301W        W71213  21.326  32.592  31.903 -0.1156 -0.0997 -0.1375
28302W        W71214  25.335  30.633   3.215 -0.1323  0.0417  0.1866
28303W        W71215  23.791  31.448   1.421 -0.2333 -0.1889 -0.1986
28304W        W71216  23.409  32.906   0.473 -0.1115 -0.1078 -0.4596
28305W        W71217  24.076  32.101   2.706 -0.0044  0.0606 -0.2554
28306W        W71218  24.261  31.462   1.516  0.1629 -0.3183 -0.2125
28307W        W71219  24.407  31.093   1.925 -0.0135 -0.0420  0.1414
28308W        W71220  23.401  30.150   1.949  0.1723 -0.1127  0.0953
28309W        W71221  23.634  29.707   1.705 -0.2758 -0.0565  0.0887
28310W        W71222  24.840  29.401   0.179 -0.0527 -0.0411 -0.0228
28311W        W71223  23.961  31.673   4.032 -0.0365 -0.3224 -0.1945
28312W        W71224  19.490  30.007  31.486 -0.3250  0.1094  0.0275
28313W        W71225  21.778  32.679  31.728 -0.0530 -0.1101 -0.2570
28314W        W71226  22.725  29.666   2.738 -0.2129  0.1378  0.0112
28315W        W71227  24.786  28.393   4.427  0.0195 -0.0466  0.1771
28316W        W71228  22.719  29.592   4.004  0.1272 -0.4461  0.0648
28317W        W71229  22.194  30.373   1.777  0.0180 -0.1770 -0.0385
28318W        W71230  22.075  29.038   0.834 -0.0477  0.2117 -0.1735
28319W        W71231  25.293  32.537  31.868 -0.0920 -0.1773 -0.3730
28320W        W71232  22.667  28.828   2.018 -0.0774 -0.1559 -0.4241
28321W        W71233  21.479  28.457   1.699 -0.0856  0.0623 -0.0235
28322W        W71234  24.268  33.245   1.134 -0.3365  0.1575 -0.0583
28323W        W71235  24.719  32.729   1.750 -0.2192 -0.0002  0.3132
28324W        W71236  23.748  31.296   0.031 -0.3053  0.0733 -0.3491
28325W        W71237  25.757  33.051   4.056  0.0207 -0.2735  0.1958
28326W        W71238  21.991  30.275  31.462 -0.0335  0.1357  0.1920
28327W        W71239  23.310  29.645   4.008 -0.0302  0.3306 -0.1296
28328W        W71240  23.286  28.407   2.414  0.1783 -0.0186  0.1654
28329W        W71241  21.724  30.965   0.115  0.0162  0.1779 -0.0201
28330W        W71242  23.853  29.840   2.181 -0.5239  0.1432 -0.0385
28331W        W71243  23.906  31.325   2.412  0.1402  0.1512  0.4257
28332W        W71244  24.696  31.331   0.946 -0.0563 -0.1604  0.2249
28333W        W71245  23.183  31.178   2.545  0.2698 -0.1918  0.0899
28334W        W71246  22.367  32.980   2.639  0.1804  0.1571 -0.0136
28335W        W71247  21.882  29.662   1.714 -0.2933 -0.0332 -0.3775
28336W        W71248  24.208  32.793   1.967 -0.1247  0.2908  0.2114
28337W        W71249  23.835  30.543   3.131  0.0839 -0.1195 -0.0734
28338W        W71250  25.158  31.473   0.863  0.0199 -0.0966 -0.0320
28339W        W71251  25.050  29.130   0.578  0.3680  0.0152  0.3046
28340W        W71252  25.720  32.848   0.004 -0.0480 -0.2100  0.1291
28341W        W71253  22.683  28.145   2.920  0.1876 -0.2505  0.1242
28342W        W71254  22.699  31.076   3.788  0.0403 -0.2420  0.2508
28343W        W71255  24.563  33.269   3.006 -0.0612  0.2551  0.0613
28344W        W71256  24.769  29.210   1.591  0.0229  0.2010  0.1642
28345W        W71257  23.942  30.084  31.978  0.0603  0.0451 -0.0582
28346W        W71258  23.470  31.872   0.007  0.1362 -0.0330 -0.3154
28347W        W71259  22.656  29.840   1.141  0.0126 -0.3271 -0.2181
28348W        W71260  23.483  30.974  30.644  0.2200  0.1360  0.0514
28349W        W71261  24.333  31.095   2.694 -0.3128 -0.0340 -0.2169
28350W        W71262  23.432  31.477   2.261 -0.1911  0.3969  0.4226
28351W        W71263  24.776  30.785   3.156 -0.0876  0.1239 -0.3511
28352W        W71264  22.996  30.904   0.778  0.1547 -0.0412 -0.2543
28353W        W71265  25.652  32.210   0.061 -0.2853 -0.1189 -0.2792
28354W        W71266  24.721  32.243   3.778  0.1152 -0.3811 -0.0943
28355W        W71267  25.254  33.808   2.601  0.1710 -0.3211 -0.0009
28356W        W71268  23.869  33.074   4.497  0.1007  0.0920 -0.0715
28357W        W71269  26.897  31.971   1.562  0.2178  0.0836 -0.1915
28358W        W71270  22.491  29.276   2.191 -0.1675  0.0805  0.2481
28359W        W71271  21.433  30.819   1.277  0.1332 -0.0072 -0.0639
28360W        W71272  22.903  31.462   2.167 -0.1210 -0.1035  0.2329
28361W        W71273  24.739  28.990   3.548 -0.1997  0.0557  0.1014
28362W        W71274  22.376  29.269   1.424 -0.1441 -0.0496 -0.1506
28363W        W71275  23.504  28.781  31.197 -0.0690  0.1209  0.2957
28364W        W71276  22.617  32.800   3.412 -0.1083  0.0028 -0.0709
28365W        W71277  23.807  32.377   1.751  0.0557  0.1601  0.0464
28366W        W71278  23.739  31.473   6.719 -0.0139 -0.1202  0.0532
28367W        W71279  23.410  29.264   3.409  0.0205 -0.1707 -0.2191
28368W        W71280  25.138  28.609   3.541 -0.0264  0.2139  0.1000
28369W        W71281  23.617  30.136   3.253 -0.0185 -0.4116 -0.1694
28370W        W71282  23.046  30.365   4.273  0.3255  0.0296 -0.0800
28371W        W71283  24.377  32.642   4.936 -0.5499  0.3372  0.2549
28372W        W71284  22.824  28.640   8.104 -0.2148  0.1510 -0.0986
28373W        W71285  25.645  29.976   6.653 -0.1252 -0.1041  0.2694
28374W        W71286  25.350  30.353   6.986 -0.2340 -0.0704  0.1115
28375W        W71287  23.979  29.851   4.562  0.0355 -0.2407  0.0154
28376W        W71288  22.028  28.920   6.159  0.1230 -0.1608  0.1034
28377W        W71289  24.181  32.320   6.496 -0.2227 -0.1394 -0.2263
28378W        W71290  23.689  28.885   5.184  0.0323  0.0405  0.0249
28379W        W71291  22.663  30.270   5.554  0.4757  0.4108  0.2723
28380W        W71292  24.833  30.819   7.596  0.1736 -0.1536 -0.0204
28381W        W71293  23.288  33.212   4.522 -0.4199  0.0689 -0.1937
28382W        W71294  22.498  29.467   7.027  0.2323  0.2421 -0.2962
28383W        W71295  24.242  29.524   4.127  0.0145  0.0627  0.0976
28384W        W71296  25.332  31.206   4.702  0.2258 -0.2079  0.2012
28385W        W71297  22.913  27.813   5.436  0.0016 -0.0036  0.0776
28386W        W71298  25.091  28.856   6.888  0.1092 -0.1834 -0.1411
28387W        W71299  23.701  31.284   4.975  0.1053  0.3581 -0.2761
28388W        W71300  22.796  30.973   5.016 -0.0081 -0.0272  0.3543
28389W        W71301  21.377  30.391   6.213  0.1355 -0.1411  0.2026
28390W        W71302  22.881  29.174   7.352 -0.0248  0.0097 -0.0987
28391W        W71303  24.319  29.991   5.781 -0.1656 -0.2198 -0.0831
28392W        W71304  25.493  30.526   6.434  0.1026 -0.0178  0.1486
28393W        W71305  24.047  32.224   5.063  0.1918 -0.1750 -0.1348
28394W        W71306  23.194  29.644   6.735  0.2495 -0.1920  0.0670
28395W        W71307  25.547  30.719   7.671  0.4338 -0.1831  0.2128
28396W        W71308  23.661  29.939   4.983  0.2679 -0.3831 -0.3641
28397W        W71309  23.245  31.424   5.074 -0.1221 -0.0644 -0.2497
28398W        W71310  21.807  31.432   3.881 -0.0970  0.1798  0.1220
28399W        W71311  24.906  30.711   4.473 -0.0968 -0.0050 -0.3870
28400W        W71312  23.969  30.443   7.547 -0.0326  0.3300  0.0983
28401W        W71313  23.283  32.866   7.485  0.0770  0.1326  0.0464
28402W        W71314  23.426  33.043   3.477 -0.0628 -0.5256 -0.0218
28403W        W71315  25.835  33.188   7.565  0.0666  0.1414  0.2905
28404W        W71316  23.494  31.890   6.762  0.1577  0.0037 -0.0892
28405W        W71317  25.173  30.882   6.807  0.1421 -0.1169  0.0007
28406W        W71318  23.438  29.640   5.785  0.0342 -0.0202 -0.2753
28407W        W71319  23.575  31.955   4.040 -0.1193 -0.0631  0.0916
28408W        W71320  24.315  31.005   5.836  0.2157 -0.0207  0.1812
28409W        W71321  22.543  29.915   6.805  0.0919 -0.1152  0.1379
28410W        W71322  22.148  32.438   5.927 -0.0409 -0.0466 -0.1628
28411W        W71323  22.775  29.112   7.872 -0.1144 -0.0188 -0.0556
28412W        W71324  22.921  32.881   4.658  0.0699 -0.1697  0.0440
28413W        W71325  25.272  30.841   4.145 -0.0995  0.0328 -0.2255
28414W        W71326  24.048  30.256   4.232  0.1869 -0.0779 -0.1126
28415W        W71327  24.850  30.345   2.937  0.3602 -0.0529  0.0963
28416W        W71328  22.538  29.533   4.442  0.0971  0.2931  0.1700
28417W        W71329  23.242  31.660   4.389 -0.2626  0.1330  0.0361
28418W        W71330  22.259  29.410   5.343  0.2232  0.0633 -0.3541
28419W        W71331  25.121  32.607   6.977 -0.2486 -0.0525  0.1955
28420W        W71332  24.288  31.242   4.161  0.0204 -0.0670 -0.0407
28421W        W71333  23.651  28.889   6.802  0.1355 -0.0878 -0.0460
28422W        W71334  23.427  31.125   6.955  0.0421 -0.0621 -0.0805
28423W        W71335  22.633  30.407   4.564  0.3008  0.0128 -0.2069
28424W        W71336  24.996  30.613   3.857 -0.2449 -0.6187 -0.0682
28425W        W71337  24.725  32.824   4.626 -0.0201  0.0519 -0.3028
28426W        W71338  22.254  33.465   4.487 -0.2539  0.0406  0.1491
28427W        W71339  23.253  30.131   4.688  0.4047 -0.0647  0.4237
28428W        W71340  21.586  31.696   7.879  0.2417 -0.3093 -0.0258
28429W        W71341  22.540  30.102   8.012  0.0265  0.2151  0.1816
28430W        W71342  23.655  28.829   2.151  0.1942 -0.0195 -0.2837
28431W        W71343  25.347  29.607   7.612 -0.0965 -0.1257 -0.1712
28432W        W71344  22.437  32.420   6.341 -0.0302 -0.0464  0.1680
28433W        W71345  25.268  28.924   5.284 -0.1006 -0.2850  0.1812
28434W        W71346  23.524  30.002   5.473  0.3837 -0.0950 -0.2670
28435W        W71347  25.062  31.780   6.411  0.1470 -0.1108 -0.1107
28436W        W71348  24.687  32.738   2.845  0.0306 -0.1402 -0.2593
28437W        W71349  25.163  29.811   6.519  0.0616 -0.2293  0.1292
28438W        W71350  23.690  28.293   7.122 -0.2505  0.2751  0.0212
28439W        W71351  22.782  30.573   3.603 -0.2817 -0.2091  0.0452
28440W        W71352  23.531  30.214   4.170 -0.2151  0.1972 -0.1146
28441W        W71353  25.468  31.418   6.525 -0.0874  0.2185 -0.1385
28442W        W71354  24.955  31.695   3.931 -0.0813  0.0362 -0.1023
28443W        W71355  23.356  31.875   6.194 -0.3770 -0.0304  0.2572
28444W        W71356  22.739  28.745   7.183 -0.0389  0.2078 -0.1871
28445W        W71357  24.929  32.146   6.771 -0.1155  0.1050 -0.1413
28446W        W71358  22.455  32.388   2.431  0.1585 -0.0716  0.1509
28447W        W71359  22.699  31.591   4.198  0.1005 -0.3522  0.2520
28448W        W71360  22.555  32.100   4.072 -0.0030  0.1449  0.3632
28449W        W71361  21.870  29.875   5.066 -0.0982 -0.0961  0.2408
28450W        W71362  22.292  30.956   6.333  0.0610  0.1067  0.3253
28451W        W71363  25.336  30.291   3.593 -0.1734 -0.0409 -0.2040
28452W        W71364  22.130  29.283   5.863  0.0580 -0.2666  0.2926
28453W        W71365  25.364  28.984   4.323  0.0179 -0.1028  0.0711
28454W        W71366  22.259  33.436   3.950 -0.1725 -0.0903  0.0730
28455W        W71367  25.410  32.742   5.328 -0.0919  0.2022 -0.2451
28456W        W71368  25.671  30.450   5.015 -0.1590 -0.0609 -0.1467
28457W        W71369  23.917  31.113   4.582  0.0404  0.0326  0.5524
28458W        W71370  21.595  29.894   6.493  0.0645  0.2773  0.3639
28459W        W71371  22.509  30.557   5.119 -0.5185 -0.2073 -0.0929
28460W        W71372  22.392  29.441   7.970  0.0905  0.0332  0.1029
28461W        W71373  22.389  28.977   5.072 -0.1603  0.3054  0.2069
28462W        W71374  25.425  29.753   7.068 -0.0687  0.2765  0.1089
28463W        W71375  22.399  29.081   4.561 -0.0160  0.1180 -0.0715
28464W        W71376  24.152  30.220   4.980  0.2530 -0.3986 -0.0326
28465W        W71377  23.020  32.002   3.987 -0.4257  0.0990 -0.0726
28466W        W71378  23.682  29.447   4.866 -0.3074  0.0308  0.1393
28467W        W71379  24.663  30.007   6.107  0.2269 -0.1730 -0.0519
28468W        W71380  24.187  32.260   4.114 -0.0333  0.0022  0.0005
28469W        W71381  25.255  30.962   7.347 -0.0383 -0.1812  0.2513
28470W        W71382  24.578  32.311   5.697  0.1459 -0.1988  0.0971
28471W        W71383  22.431  29.833   5.196 -0.2085  0.1047 -0.2344
28472W        W71384  21.898  29.173   4.493  0.1142 -0.1564 -0.3888
28473W        W71385  22.814  32.370   5.443 -0.3921  0.1934 -0.1862
28474W        W71386  23.137  31.367   3.966 -0.0507  0.3338  0.0095
28475W        W71387  24.002  30.657   4.839  0.1171 -0.3072  0.0757
28476W        W71388  24.449  33.347   6.404  0.1031  0.0973  0.0438
28477W        W71389  23.296  30.763   5.400 -0.1190 -0.2007 -0.2028
28478W        W71390  21.879  30.890   6.735  0.3412  0.3009  0.1246
28479W        W71391  24.317  28.600   7.308  0.1876 -0.1251  0.1121
28480W        W71392  23.662  29.490   6.590 -0.0660  0.2430  0.0199
28481W        W71393  23.335  30.114   6.095 -0.4359  0.0069 -0.2403
28482W        W71394  22.620  29.101   4.013  0.3744 -0.1580 -0.0657
28483W        W71395  24.857  32.897   6.264 -0.0546 -0.2192 -0.1209
28484W        W71396  21.879  31.400   4.378 -0.0393  0.0111  0.0898
28485W        W71397  22.070  30.341   5.181 -0.3101  0.0804  0.1092
28486W        W71398  24.090  30.752   4.276 -0.2670  0.4051 -0.2739
28487W        W71399  24.235  28.858   5.345  0.1405 -0.1386 -0.2551
28488W        W71400  20.906  29.321   9.215 -0.5151  0.1787  0.1816
28489W        W71401  22.487  29.726   5.703 -0.0241 -0.2159  0.1517
28490W        W71402  21.135  30.463   4.949 -0.1725  0.4847  0.1628
28491W        W71403  20.837  31.346   6.184 -0.3174 -0.1623 -0.1751
28492W        W71404  25.267  30.993   5.248  0.1478  0.1408 -0.2571
28493W        W71405  25.280  29.043   3.321 -0.3653 -0.0184 -0.1317
28494W        W71406  24.817  30.622   7.048 -0.0744  0.4285 -0.1555
28495W        W71407  24.514  31.011   5.371  0.1752 -0.1098  0.2129
28496W        W71408  25.249  31.296   3.917  0.1573  0.1216 -0.1213
28497W        W71409  24.150  29.529   2.866 -0.0510 -0.2688 -0.0631
28498W        W71410  22.158  32.188   7.185 -0.0588  0.1757  0.2155
28499W        W71411  23.534  31.805   4.941 -0.0585 -0.0618  0.0575
28500W        W71412  24.493  30.957   4.552 -0.2036  0.2135 -0.1323
28501W        W71413  23.477  29.677   4.471  0.4852  0.0965  0.5270
28502W        W71414  25.091  32.985   4.137  0.1857  0.1159 -0.0137
28503W        W71415  22.806  32.711   6.278  0.2069 -0.2916  0.1544
28504W        W71416  25.124  31.818   7.703 -0.0443  0.2294 -0.0953
28505W        W71417  24.572  31.488   5.109  0.0792 -0.4506 -0.1544
28506W        W71418  22.608  30.343   6.382  0.1513  0.0086 -0.0984
28507W        W71419  23.764  30.605   3.880 -0.2108 -0.1731  0.3180
28508W        W71420  22.234  30.182   5.867  0.0822  0.4210  0.0875
28509W        W71421  21.489  32.311   4.009  0.0646  0.2554 -0.3362
28510W        W71422  24.891  28.750   6.088 -0.0209  0.1391  0.0874
28511W        W71423  24.124  27.981   6.008  0.0661 -0.3484 -0.1627
28512W        W71424  23.465  28.762   6.319  0.2586 -0.2631  0.1786
28513W        W71425  24.781  30.844   8.410 -0.0267 -0.2260  0.5598
28514W        W71426  25.189  29.696   4.792  0.0734  0.0408 -0.0534
28515W        W71427  22.900  29.476   5.808  0.0902  0.2445  0.1004
28516W        W71428  21.752  29.579   2.409  0.0557  0.2846  0.4197
28517W        W71429  22.507  29.750   6.267 -0.0327 -0.1720 -0.1153
28518W        W71430  23.178  30.556   6.341  0.0845 -0.0750  0.0063
28519W        W71431  22.561  33.177   6.452 -0.0055 -0.2090  0.2046
28520W        W71432  24.501  32.019   7.527  0.3392  0.1631 -0.1348
28521W        W71433  24.878  30.686   5.342  0.1794  0.0979 -0.3317
28522W        W71434  24.042  29.807   6.729 -0.0407  0.0469  0.2179
28523W        W71435  23.746  29.281   3.765  0.0139 -0.0773 -0.1704
28524W        W71436  24.220  31.854   4.399 -0.0337  0.0809 -0.3505
28525W        W71437  23.965  31.396   2.932 -0.2586 -0.4024  0.1104
28526W        W71438  22.862  27.717   4.311 -0.0623 -0.2462 -0.2447
28527W        W71439  24.141  32.032   6.092  0.1134 -0.1934  0.0314
28528W        W71440  23.388  31.993   3.558  0.1707  0.1421 -0.1598
28529W        W71441  24.671  29.828   6.576 -0.0006  0.3807 -0.1915
28530W        W71442  23.820  32.104   4.537  0.2865  0.1473  0.2566
28531W        W71443  24.529  28.671   6.564 -0.1819 -0.0393 -0.1198
28532W        W71444  22.984  31.209   5.443  0.0918  0.1511  0.1741
28533W        W71445  21.717  30.583   3.993  0.0685  0.2027 -0.0012
28534W        W71446  22.355  28.910   3.263 -0.0013 -0.0756 -0.1760
28535W        W71447  25.635  30.640   3.906 -0.0522  0.1641 -0.0904
28536W        W71448  24.699  31.671   4.340 -0.1566  0.1845 -0.0581
28537W        W71449  22.039  30.502   6.169  0.2132  0.1733  0.0915
28538W        W71450  23.296  28.607   5.737 -0.3126 -0.1495  0.0583
28539W        W71451  22.205  31.612   6.481  0.0540 -0.0954  0.0572
28540W        W71452  24.454  30.499   5.565  0.1824  0.1052 -0.1525
28541W        W71453  24.502  28.758   4.585  0.2040 -0.1431 -0.1488
28542W        W71454  24.566  31.946   4.815 -0.1908 -0.0118 -0.1397
28543W        W71455  24.247  31.404   6.559  0.0414 -0.2507 -0.0109
28544W        W71456  22.859  28.996   3.488  0.1352  0.0642  0.1215
28545W        W71457  24.160  29.145   5.908 -0.2771  0.2067  0.1673
28546W        W71458  23.176  29.036   5.076 -0.0351 -0.2397  0.2393
28547W        W71459  22.381  31.171   6.857 -0.0621 -0.0403  0.1294
28548W        W71460  24.588  32.390   6.205  0.2105 -0.0875  0.0767
28549W        W71461  22.321  30.032   4.663 -0.1049  0.1298 -0.2275
28550W        W71462  23.617  31.293   4.175  0.1148  0.1421  0.2803
28551W        W71463  22.362  29.898   8.467 -0.3664 -0.0876 -0.0333
28552W        W71464  24.304  30.926   6.305  0.1416  0.1338 -0.0017
28553W        W71465  22.861  29.997   6.044  0.5254 -0.2000 -0.3327
28554W        W71466  23.001  29.461   3.612 -0.3088  0.2173 -0.3064
28555W        W71467  24.377  29.520   5.595 -0.0382  0.4248  0.0155
28556W        W71468  24.579  31.036   6.731 -0.1455 -0.0153  0.2355
28557W        W71469  23.262  28.109   7.194  0.1287  0.0083 -0.1569
28558W        W71470  22.126  32.126   6.635  0.0002 -0.2370 -0.0469
28559W        W71471  22.657  29.034   5.532 -0.0718  0.1495  0.0978
28560W        W71472  24.608  33.755   4.893  0.2778  0.3816 -0.3183
28561W        W71473  22.999  30.493   5.853 -0.0690 -0.0983  0.1466
28562W        W71474  23.001  30.897   4.206  0.0190  0.4385 -0.0354
28563W        W71475  22.058  29.707   6.042 -0.2588 -0.1029 -0.2631
28564W        W71476  21.895  31.557   2.875  0.1061 -0.2419 -0.1132
28565W        W71477  22.839  29.034   4.740 -0.0815 -0.3266 -0.1578
28566W        W71478  23.203  31.077   6.494  0.1484 -0.1232  0.3078
28567W        W71479  22.524  30.709   4.129  0.2590  0.0889 -0.0811
28568W        W71480  23.209  31.014   5.872  0.0621 -0.1657  0.4228
28569W        W71481  24.080  28.984   4.305  0.1120 -0.1418  0.2349
28570W        W71482  23.386  30.912   3.844  0.0939 -0.2293 -0.0783
28571W        W71483  23.661  29.096   5.669  0.0231  0.4563  0.0135
28572W        W71484  26.032  29.303   6.010  0.0824  0.3004 -0.0730
28573W        W71485  24.263  30.993   3.141 -0.0244  0.2627 -0.1451
28574W        W71486  25.068  29.978   8.837 -0.2399  0.1207  0.0880
28575W        W71487  23.013  30.437   5.178 -0.0677 -0.0345  0.0307
28576W        W71488  24.606  31.435   5.735  0.2964  0.2517 -0.0277
28577W        W71489  22.028  29.593   6.558 -0.0801 -0.0121 -0.2319
28578W        W71490  23.876  34.192   6.850 -0.1843 -0.2351  0.1719
28579W        W71491  22.084  30.378   8.710 -0.0529 -0.1331 -0.0188
28580W        W71492  25.134  30.633   4.896  0.3714 -0.0735  0.0291
28581W        W71493  23.683  28.463   3.212  0.2125  0.0814  0.0190
28582W        W71494  23.508  30.576   6.717 -0.0361  0.0323  0.1103
28583W        W71495  23.984  32.058   5.560  0.0300  0.1022  0.1655
28584W        W71496  22.668  30.112   2.907 -0.1697  0.3462 -0.0307
28585W        W71497  25.598  31.385   5.701 -0.0363  0.1101  0.1135
28586W        W71498  22.470  29.980   7.321  0.1781 -0.1322 -0.0573
28587W        W71499  23.415  29.480   5.264  0.0159  0.5361  0.1671
28588W        W71500  24.797  31.722   2.666 -0.4040  0.1040 -0.1864
28589W        W71501  24.938  29.795   4.321 -0.0010  0.2495  0.0244
28590W        W71502  22.756  28.216   7.324  0.0730  0.1120 -0.2464
28591W        W71503  24.580  30.580   6.538 -0.0230  0.0250 -0.1525
28592W        W71504  23.262  29.593   6.262  0.1459 -0.0270 -0.2314
28593W        W71505  23.682  29.206   6.188 -0.0406  0.1975 -0.1417
28594W        W71506  25.742  31.360   6.948 -0.2933 -0.2578 -0.0722
28595W        W71507  22.953  29.653   7.179  0.0605 -0.3765  0.0790
28596W        W71508  22.344  29.294   6.312  0.1490  0.1982  0.1758
28597W        W71509  24.593  32.519   6.753 -0.2409  0.2773 -0.0090
28598W        W71510  25.690  31.116   4.126 -0.1177 -0.1236 -0.0382
28599W        W71511  23.470  29.021   7.595 -0.2334 -0.0881 -0.3390
28600W        W71512  25.044  29.663   5.352 -0.1520 -0.3188  0.0440
28601W        W71513  25.205  30.162   5.117  0.3082 -0.0882  0.2041
28602W        W71514  22.800  29.403   5.269  0.0976 -0.1471 -0.0698
28603W        W71515  24.061  29.885   7.569  0.4506  0.1646  0.1557
28604W        W71516  23.125  29.611   3.144 -0.1648 -0.2193 -0.0738
28605W        W71517  23.632  29.499   8.066 -0.0387 -0.0531  0.1803
28606W        W71518  23.582  33.316   4.871 -0.1591  0.2420  0.2285
28607W        W71519  24.392  29.374   6.778 -0.1778 -0.1060  0.0015
28608W        W71520  25.586  30.813   4.562 -0.2031 -0.0234  0.2176
28609W        W71521  22.150  30.054   6.444  0.3097 -0.2783 -0.1691
28610W        W71522  23.906  32.342   8.439 -0.2337  0.1944  0.1356
28611W        W71523  21.718  29.670   4.048 -0.1427 -0.0288  0.0391
28612W        W71524  23.745  30.283   4.624  0.0387  0.1416  0.0270
28613W        W71525  24.259  30.689   6.941  0.0357 -0.5359 -0.0945
28614W        W71526  25.543  31.484   7.785  0.2349  0.3569  0.3343
28615W        W71527  23.781  29.368   4.224  0.2623 -0.2193  0.1257
28616W        W71528  24.394  30.157   6.913 -0.0012  0.0490 -0.0687
28617W        W71529  22.077  32.071   3.939  0.1845 -0.0630 -0.1862
28618W        W71530  23.293  28.576   5.250 -0.3024  0.0035  0.1613
28619W        W71531  24.472  31.805   3.946 -0.0624 -0.0937 -0.0466
28620W        W71532  21.337  31.473   6.353 -0.4588 -0.2318  0.0343
28621W        W71533  23.694  30.620   5.781  0.3039 -0.2250 -0.1473
28622W        W71534  23.644  27.992   6.399  0.2683  0.1194  0.0664
28623W        W71535  23.142  29.051   6.052 -0.3008  0.0299  0.0365
28624W        W71536  23.578  29.774   7.141 -0.0430  0.0135 -0.1110
28625W        W71537  25.658  30.949   6.663 -0.0394 -0.3873 -0.1535
28626W        W71538  25.529  31.066   6.120  0.1435  0.0605 -0.0693
28627W        W71539  22.798  30.781   5.520  0.1189  0.0722 -0.4489
28628W        W71540  24.429  32.094   7.030  0.0530 -0.1920  0.1661
28629W        W71541  25.478  30.565   5.918 -0.2016  0.1925  0.2472
28630W        W71542  23.539  30.832   4.395 -0.2570  0.0600 -0.0628
28631W        W71543  21.320  30.097   7.469  0.0540  0.2799 -0.1506
28632W        W71544  23.739  31.192   7.355  0.3738  0.0411  0.1714
28633W        W71545  23.705  30.359   6.324  0.2284 -0.0522 -0.1012
28634W        W71546  22.809  28.702   4.295  0.1645  0.1002  0.0568
28635W        W71547  22.242  29.879   3.029 -0.2244 -0.0178 -0.2645
28636W        W71548  22.714  30.967   7.105 -0.2975  0.0943  0.1803
28637W        W71549  21.933  31.284   6.320  0.1549 -0.0475  0.0377
28638W        W71550  22.866  33.281   4.259  0.1822  0.1730 -0.1093
28639W        W71551  25.315  31.734   5.016 -0.1158 -0.0317  0.3653
28640W        W71552  23.982  30.399   5.426 -0.0040  0.0521 -0.0913
28641W        W71553  25.212  32.725   5.979 -0.0696 -0.0572  0.2396
28642W        W71554  23.277  32.508   3.948  0.2501  0.1207 -0.3108
28643W        W71555  23.613  30.882   6.237 -0.0938  0.0374  0.0459
28644W        W71556  22.688  32.641   3.929 -0.0517  0.0206 -0.4363
28645W        W71557  24.268  32.351   4.580  0.1493 -0.2167 -0.0312
28646W        W71558  24.620  31.927   5.973 -0.2259  0.1077  0.0538
28647W        W71559  24.705  31.097   7.192 -0.1237 -0.0009 -0.1563
28648W        W71560  24.650  29.641   3.052 -0.0201  0.0701 -0.3179
28649W        W71561  25.568  31.362   5.135 -0.0270  0.0308 -0.0883
28650W        W71562  24.889  30.115   3.777  0.4063 -0.3085 -0.0150
28651W        W71563  25.890  31.862   7.081  0.1654  0.0329  0.0564
28652W        W71564  22.548  30.680   5.992  0.1993  0.0139  0.1880
28653W        W71565  23.630  28.140   2.811 -0.1206  0.2834 -0.2263
28654W        W71566  24.065  31.810   6.747 -0.0219 -0.2807  0.1523
28655W        W71567  24.172  30.300   7.981  0.2243  0.2257  0.2425
28656W        W71568  21.393  32.137   5.850  0.2380  0.3125 -0.0761
28657W        W71569  25.939  32.610   5.257  0.4426  0.0286 -0.0655
28658W        W71570  22.812  30.150   3.831  0.0026 -0.0363 -0.1539
28659W        W71571  22.361  30.922   4.759  0.2162 -0.0837 -0.3813
28660W        W71572  25.114  29.784   6.038 -0.1593 -0.0892  0.0518
28661W        W71573  25.571  31.712   3.977 -0.0260 -0.0670  0.1105
28662W        W71574  24.188  30.065   6.305  0.2695  0.0007 -0.2936
28663W        W71575  23.927  29.660   5.716  0.2941 -0.1880  0.1538
28664W        W71576  23.491  31.405   6.203  0.1910  0.2110  0.1394
28665W        W71577  25.143  31.329   6.999 -0.0890 -0.2242  0.1991
28666W        W71578  22.011  28.513   3.236  0.1524  0.1768 -0.1871
28667W        W71579  25.829  28.969   4.551  0.0649 -0.1534  0.1283
28668W        W71580  24.018  30.323   6.673 -0.0320  0.2419  0.3225
28669W        W71581  24.697  28.515   6.987 -0.0518 -0.0103 -0.1864
28670W        W71582  23.412  30.851   4.929  0.0917  0.1192  0.0932
28671W        W71583  22.811  29.332   6.319 -0.1375 -0.2144  0.0740
28672W        W71584  23.250  29.174   6.667  0.0153  0.1112 -0.5700
28673W        W71585  23.426  30.344   7.291  0.1231 -0.0881  0.0270
28674W        W71586  24.223  29.142   3.616  0.2102 -0.2692  0.1463
28675W        W71587  22.886  31.448   7.667 -0.2865 -0.2663  0.2172
28676W        W71588  25.985  32.270   4.347 -0.0029 -0.3804 -0.1620
28677W        W71589  25.669  32.699   6.875 -0.0184 -0.2872 -0.0577
28678W        W71590  21.821  28.308   4.190 -0.2328 -0.0178  0.4073
28679W        W71591  25.410  29.584   3.124  0.4181 -0.0810 -0.0659
28680W        W71592  23.519  31.195   5.451 -0.1522 -0.2373  0.3085
28681W        W71593  21.481  29.847   7.005  0.2061  0.0706  0.0974
28682W        W71594  25.502  31.810   7.385  0.6421 -0.1818 -0.3118
28683W        W71595  22.503  29.403   4.914  0.1233 -0.3545  0.2641
28684W        W71596  23.832  30.123   5.847 -0.2301 -0.0046 -0.0123
28685W        W71597  25.520  30.056   5.857 -0.1587  0.2570 -0.0311
28686W        W71598  23.048  32.822   3.656  0.0993 -0.3550 -0.2767
28687W        W71599  24.742  29.696   4.988 -0.2425 -0.0077 -0.0484
28688W        W71600  25.655  32.237   5.383 -0.0277  0.0182 -0.4432
28689W        W71601  22.275  30.617   5.581 -0.0619  0.0689 -0.1322
28690W        W71602  25.970  31.310   6.481 -0.0524  0.1587 -0.0646
28691W        W71603  25.835  30.184   6.236 -0.2649 -0.0263  0.4356
28692W        W71604  23.494  29.242   2.925  0.0205  0.1903 -0.0123
28693W        W71605  22.622  30.437   6.970 -0.1143  0.0179  0.1286
28694W        W71606  22.394  32.518   4.639 -0.0521  0.1073 -0.0213
28695W        W71607  25.557  29.550   5.706  0.1903  0.3416  0.1270
28696W        W71608  23.136  29.412   7.978 -0.1455  0.3250 -0.2398
28697W        W71609  23.179  31.537   3.468  0.1376  0.0727 -0.1679
28698W        W71610  24.517  30.001   7.599  0.0275 -0.1848 -0.0104
28699W        W71611  23.868  31.741   7.257  0.0640  0.0770 -0.0091
28700W        W71612  23.160  31.554   6.609  0.1544  0.1275  0.3796
28701W        W71613  22.169  28.334   2.242 -0.1758 -0.2179 -0.0273
28702W        W71614  22.988  30.103   6.559  0.3768 -0.0571 -0.0201
28703W        W71615  23.748  31.576   4.572 -0.0469 -0.1791 -0.4330
28704W        W71616  24.111  31.429   3.430  0.1234 -0.1553 -0.0355
28705W        W71617  24.084  32.615   5.749  0.2213 -0.0929 -0.0060
28706W        W71618  23.354  31.245   4.613 -0.0957 -0.0269  0.0902
28707W        W71619  24.935  31.915   5.307 -0.0635 -0.2517  0.0871
28708W        W71620  23.806  29.812   4.085 -0.1764  0.1636  0.0802
28709W        W71621  24.390  29.297   4.549 -0.2248 -0.0267 -0.1833
28710W        W71622  26.099  28.559   3.900  0.0325  0.1422 -0.0032
28711W        W71623  22.035  30.472   4.713  0.0618 -0.1305  0.1595
28712W        W71624  22.012  30.974   3.854 -0.1340 -0.0300 -0.1681
28713W        W71625  22.380  31.413   6.044  0.1805  0.1358 -0.0373
28714W        W71626  23.253  27.668   7.519  0.0630 -0.1434  0.2349
28715W        W71627  23.164  30.117   7.639  0.0678  0.1062 -0.0994
28716W        W71628  22.832  29.958   4.390  0.0869 -0.3356 -0.2809
28717W        W71629  24.489  29.091   4.029  0.0102 -0.3986 -0.0889
28718W        W71630  24.954  31.485   4.776  0.2637 -0.0429 -0.3271
28719W        W71631  22.292  28.501   5.156  0.1362  0.2403  0.2688
28720W        W71632  22.023  29.818   5.535 -0.0175 -0.0781  0.1682
28721W        W71633  24.404  31.810   5.486  0.0824 -0.0721  0.1722
28722W        W71634  24.882  33.404   3.416 -0.0177 -0.0912 -0.3973
28723W        W71635  24.483  29.925   4.538 -0.1862 -0.1528 -0.2135
28724W        W71636  25.809  31.759   6.537 -0.0072 -0.3168 -0.2011
28725W        W71637  22.356  31.201   4.186  0.2907  0.2201  0.0237
28726W        W71638  23.745  29.405   7.513  0.2390 -0.0723 -0.2187
28727W        W71639  23.151  29.678   9.143 -0.0500  0.1401 -0.2437
28728W        W71640  21.426  29.389   3.325 -0.0763 -0.1646  0.0989
28729W        W71641  23.529  30.403   5.127  0.0734 -0.1513  0.1503
28730W        W71642  24.127  30.478   6.034 -0.0162  0.1049 -0.0817
28731W        W71643  24.114  31.403   5.488  0.3341 -0.0059  0.1254
28732W        W71644  24.140  31.227   7.016 -0.1192  0.0095  0.0974
28733W        W71645  24.723  31.558   6.849 -0.0243  0.0268  0.1792
28734W        W71646  21.389  28.713   5.199 -0.0039 -0.0750  0.4251
28735W        W71647  24.655  30.156   5.297  0.1352  0.1459 -0.2288
28736W        W71648  23.900  30.164   7.132 -0.1023 -0.1480 -0.1692
28737W        W71649  23.976  30.906   5.341 -0.1801 -0.1603 -0.1597
28738W        W71650  24.711  28.432   5.569  0.0399 -0.4328 -0.0340
28739W        W71651  24.863  30.232   4.759  0.0517  0.1668 -0.2105
28740W        W71652  23.285  28.764   7.190  0.4342  0.1008 -0.0166
28741W        W71653  21.304  31.352   6.840 -0.1591 -0.1401 -0.0630
28742W        W71654  24.998  31.249   6.498 -0.1199 -0.2688  0.0170
28743W        W71655  22.136  28.834   4.212 -0.0288  0.0343 -0.1218
28744W        W71656  24.175  29.626   4.950 -0.0445  0.3211  0.0892
28745W        W71657  24.143  32.863   2.967  0.0834  0.1127  0.0941
28746W        W71658  21.462  30.550   5.364 -0.2097  0.0383  0.0854
28747W        W71659  22.835  30.056   4.933 -0.1160 -0.0376  0.3558
28748W        W71660  24.466  30.493   7.355 -0.0433 -0.0570  0.0695
28749W        W71661  23.624  31.338   3.708 -0.0560  0.0073  0.2244
28750W        W71662  23.395  31.563   7.214  0.2641 -0.1835  0.1754
28751W        W71663  23.035  32.331   3.543 -0.0689 -0.0301  0.0437
28752W        W71664  25.307  30.254   4.525 -0.1381  0.0525  0.0880
28753W        W71665  25.581  33.287   6.713  0.0615 -0.1152  0.1629
28754W        W71666  25.465  32.737   7.330  0.0243  0.1368 -0.0403
28755W        W71667  24.573  32.846   5.850  0.3485 -0.1215 -0.1908
28756W        W71668  26.238  30.308   5.967 -0.2270  0.0099  0.1962
28757W        W71669  21.562  28.571   6.103 -0.0028  0.1931 -0.2492
28758W        W71670  23.237  30.466   3.805 -0.0825  0.2674 -0.0907
28759W        W71671  23.763  29.786   6.207 -0.3681 -0.1774 -0.1059
28760W        W71672  25.844  29.423   7.006 -0.2771  0.1862 -0.1803
28761W        W71673  22.864  27.679   4.966  0.0397  0.3378 -0.2244
28762W        W71674  24.466  29.202   5.095 -0.0279  0.1803  0.0576
28763W        W71675  23.152  31.569   5.771  0.1699  0.0376 -0.1295
28764W        W71676  23.527  30.101   6.744  0.0469  0.1618  0.0761
28765W        W71677  22.821  30.132   8.499 -0.3277  0.0337 -0.2196
28766W        W71678  22.984  29.265   8.815  0.3799 -0.0453 -0.0951
28767W        W71679  24.127  29.499   8.447  0.0281 -0.1101 -0.1737
28768W        W71680  25.571  31.495   9.557 -0.1252 -0.0509  0.3376
28769W        W71681  21.459  29.159   9.095  0.1944  0.0096 -0.1833
28770W        W71682  24.302  32.223   8.100 -0.1904  0.4460 -0.0474
28771W        W71683  26.781  34.676  10.889  0.0146  0.0989 -0.0558
28772W        W71684  25.823  31.606   9.092 -0.2770  0.0668  0.2953
28773W        W71685  24.777  31.105   7.989  0.1132  0.0490  0.0530
28774W        W71686  27.108  29.757   9.621  0.0253  0.1586 -0.0564
28775W        W71687  22.856  27.781   8.653 -0.2535  0.2797  0.3082
28776W        W71688  23.122  27.256  10.001 -0.0212 -0.1070 -0.0731
28777W        W71689  22.130  28.859   9.845 -0.2038 -0.1576  0.0049
28778W        W71690  20.656  29.894   9.325  0.0129 -0.1779  0.2037
28779W        W71691  22.884  30.078   9.213 -0.1347 -0.0413 -0.2812
28780W        W71692  22.961  29.147  10.263 -0.2938 -0.1031 -0.2006
28781W        W71693  24.190  32.562   7.023 -0.0555 -0.0351 -0.2745
28782W        W71694  22.630  31.632  10.384  0.0979 -0.1852 -0.0840
28783W        W71695  23.052  31.951   7.644  0.0948  0.0075  0.1755
28784W        W71696  22.425  30.576   7.462  0.2165  0.1486 -0.0057
28785W        W71697  21.330  29.676   9.606 -0.0845  0.1545 -0.2764
28786W        W71698  25.069  31.516   9.645 -0.1300  0.0896  0.5316
28787W        W71699  24.013  29.657   8.942 -0.0922 -0.2050 -0.0830
28788W        W71700  23.472  30.793   8.686  0.0105  0.0506  0.0446
28789W        W71701  24.396  32.661   9.086 -0.3694 -0.0912 -0.0343
28790W        W71702  25.642  33.022   8.940 -0.0218  0.0543  0.1203
28791W        W71703  21.016  31.682   9.681 -0.3127 -0.0097  0.5899
28792W        W71704  22.005  31.796   8.684  0.1930  0.2171  0.2293
28793W        W71705  23.253  31.982   8.118 -0.0819  0.1209 -0.0603
28794W        W71706  26.871  31.231   9.040  0.2947  0.0752  0.1164
28795W        W71707  23.416  30.733   7.591  0.2613  0.0282  0.0149
28796W        W71708  24.151  30.009   8.544 -0.0536  0.1963  0.0668
28797W        W71709  23.076  29.645   9.764  0.2010 -0.0453 -0.0401
28798W        W71710  24.417  32.680   7.639  0.0635 -0.0871 -0.3489
28799W        W71711  24.663  31.292   9.328 -0.1563  0.1938  0.1194
28800W        W71712  22.091  30.389   9.700  0.1787 -0.1322  0.2016
28801W        W71713  23.145  30.681   6.988 -0.2910 -0.1121 -0.0122
28802W        W71714  25.120  30.555   8.014  0.0424  0.0572  0.3419
28803W        W71715  23.419  29.234   7.097 -0.0970  0.1827  0.1143
28804W        W71716  24.618  29.523   9.853  0.0440 -0.2495 -0.1672
28805W        W71717  22.095  28.257   9.916 -0.0027 -0.3513 -0.0197
28806W        W71718  23.956  32.761   7.800  0.0868 -0.0790 -0.0238
28807W        W71719  23.301  28.873   9.639 -0.1375 -0.3831  0.0102
28808W        W71720  23.262  28.841   9.020 -0.0415 -0.0835  0.3005
28809W        W71721  23.428  30.795  10.066  0.0664  0.0493 -0.2137
28810W        W71722  22.081  31.385  10.405  0.0618 -0.2418 -0.2196
28811W        W71723  22.079  30.910  10.116  0.2931  0.2019  0.1872
28812W        W71724  26.234  32.381   7.659  0.2590  0.1144  0.0639
28813W        W71725  25.884  32.603   8.672 -0.0780 -0.0738  0.0843
28814W        W71726  24.872  31.796   7.249 -0.5608 -0.0314  0.1779
28815W        W71727  21.326  30.396   8.877 -0.0798 -0.0822  0.1295
28816W        W71728  22.042  29.070   7.845  0.1661 -0.0929  0.0879
28817W        W71729  24.663  31.434   8.397  0.1631  0.1928  0.1400
28818W        W71730  23.442  31.643   9.141  0.2416 -0.2523 -0.1200
28819W        W71731  25.491  32.368  10.487 -0.3129 -0.1241 -0.1043
28820W        W71732  24.247  30.920   7.451 -0.1066 -0.0471 -0.2018
28821W        W71733  25.209  27.758   9.549  0.0441  0.0954  0.0704
28822W        W71734  23.889  29.984   9.790  0.0397  0.0555 -0.0932
28823W        W71735  23.268  29.476   7.526 -0.0548  0.3924  0.1444
28824W        W71736  22.301  31.522   7.763 -0.5642 -0.2453  0.0632
28825W        W71737  26.367  29.651   9.838 -0.3615  0.0504  0.2160
28826W        W71738  24.963  31.375   7.612  0.0378 -0.0593  0.0071
28827W        W71739  23.469  32.125   9.011 -0.0453 -0.0951 -0.0150
28828W        W71740  23.840  31.733   6.321 -0.0393 -0.1383  0.0379
28829W        W71741  23.489  33.358   9.022 -0.2390  0.1652  0.0413
28830W        W71742  23.077  30.517   8.837 -0.1140  0.0682 -0.0373
28831W        W71743  22.473  29.622   9.921  0.2960  0.1507  0.2402
28832W        W71744  23.649  32.944   9.536 -0.1103 -0.2673  0.2221
28833W        W71745  23.706  30.231   8.715 -0.4862  0.3106  0.2121
28834W        W71746  24.950  28.148   9.596  0.2021 -0.4067  0.1028
28835W        W71747  22.005  31.219   8.477  0.2326  0.0175 -0.1820
28836W        W71748  26.197  31.975   8.404 -0.1398  0.0157  0.0317
28837W        W71749  25.169  32.077   8.355  0.1525 -0.0587  0.1225
28838W        W71750  24.712  31.088   6.091  0.0626 -0.2872  0.0028
28839W        W71751  23.130  31.056   9.082 -0.0226 -0.1418 -0.4261
28840W        W71752  21.901  29.173   8.885 -0.0844  0.0443  0.0408
28841W        W71753  20.908  28.884   9.549  0.1609 -0.0798 -0.2129
28842W        W71754  22.985  28.027   7.805 -0.1597 -0.1394  0.0240
28843W        W71755  23.525  28.517   9.897  0.1997  0.0850  0.0904
28844W        W71756  22.861  31.064   8.619 -0.0016 -0.3720  0.2551
28845W        W71757  21.741  30.053   8.889 -0.1452 -0.0892 -0.0238
28846W        W71758  23.955  31.256   7.758  0.0780  0.0029  0.1173
28847W        W71759  27.083  32.187  10.393 -0.0727  0.2328  0.1325
28848W        W71760  24.953  32.413   8.815 -0.1645  0.0785  0.1362
28849W        W71761  22.837  29.081   9.275 -0.1083 -0.0016 -0.1773
28850W        W71762  22.781  29.619   8.356  0.0246  0.0256  0.0356
28851W        W71763  23.402  32.361   8.564  0.2106 -0.1011 -0.2726
28852W        W71764  22.496  32.424   7.980  0.1424 -0.1070  0.2165
28853W        W71765  22.413  28.930   8.176  0.1714  0.1662  0.2865
28854W        W71766  24.535  30.427   9.398  0.0822 -0.2254  0.1225
28855W        W71767  24.437  31.623   8.902 -0.0474  0.1972  0.1232
28856W        W71768  26.776  30.400   9.733 -0.0466 -0.1629 -0.0712
28857W        W71769  24.194  31.016   8.221 -0.0876  0.2864  0.0605
28858W        W71770  21.256  28.889   7.026 -0.1354  0.0877 -0.1401
28859W        W71771  24.592  33.230   8.288  0.1877  0.0860  0.0322
28860W        W71772  23.313  30.320   8.467 -0.0951 -0.1803 -0.0129
28861W        W71773  20.087  29.066   9.125 -0.3094 -0.4202 -0.4762
28862W        W71774  25.545  31.404   8.288  0.2545  0.2254  0.0566
28863W        W71775  23.976  27.693  10.315 -0.0625 -0.2316 -0.0211
28864W        W71776  22.006  29.549   8.243 -0.1022 -0.0638  0.0014
28865W        W71777  23.793  29.146   9.661 -0.0395 -0.0522 -0.1520
28866W        W71778  24.279  29.674   7.158  0.0779 -0.1894  0.1991
28867W        W71779  26.362  31.522   8.347  0.1625  0.0870  0.4226
28868W        W71780  22.380  30.936   8.160  0.0600 -0.0820  0.0027
28869W        W71781  22.697  29.727   7.721 -0.1698 -0.0549 -0.0449
28870W        W71782  23.433  31.132   7.869 -0.2265  0.1159 -0.1693
28871W        W71783  24.355  31.813   9.459 -0.1933  0.0204 -0.1188
28872W        W71784  23.788  29.016   8.232 -0.2719  0.2787 -0.0989
28873W        W71785  26.319  31.573   8.909  0.3128  0.0962  0.1411
28874W        W71786  22.046  31.856  10.017  0.0682  0.2994  0.5366
28875W        W71787  24.270  33.648   8.559  0.2890 -0.0021 -0.2148
28876W        W71788  20.749  30.355   9.663  0.3314 -0.0809  0.0072
28877W        W71789  22.062  29.806   9.672  0.0087  0.0785  0.3850
28878W        W71790  23.353  30.175   9.036  0.1944  0.2576  0.0508
28879W        W71791  22.845  31.450   7.043  0.0321 -0.2255 -0.0327
28880W        W71792  27.189  30.179   9.894  0.0535 -0.1038 -0.0772
28881W        W71793  23.043  28.063   9.795  0.0545 -0.0636 -0.1168
28882W        W71794  24.647  31.747   7.937  0.0714  0.0167  0.1969
28883W        W71795  23.029  31.496   9.348 -0.0355  0.0083  0.0413
28884W        W71796  22.740  29.725   8.867 -0.0236  0.1588  0.1640
28885W        W71797  23.095  27.586   9.070 -0.0240 -0.0225  0.0930
28886W        W71798  22.765  32.410   9.656 -0.1101 -0.0343  0.0323
28887W        W71799  25.957  32.034   8.865 -0.2757 -0.1776 -0.3159
28888W        W71800  23.940  29.319   6.991  0.2649 -0.2143  0.1811
28889W        W71801  22.880  30.598   8.358 -0.1370  0.0615 -0.3984
28890W        W71802  23.932  30.875   6.643  0.4350  0.0194  0.3797
28891W        W71803  24.636  29.500  10.724 -0.0641 -0.2151 -0.3532
28892W        W71804  23.895  32.499   9.850  0.0783  0.0058  0.3264
28893W        W71805  22.463  31.290   7.348  0.0798  0.0531  0.1362
28894W        W71806  25.382  34.055   9.063  0.2030 -0.2706 -0.1566
28895W        W71807  22.312  30.813   8.684 -0.0156 -0.2052  0.0518
28896W        W71808  21.690  28.718   9.856 -0.2379  0.1323  0.2746
28897W        W71809  22.180  31.222   9.052 -0.0217  0.1292  0.1491
28898W        W71810  22.289  29.845   9.119  0.1059  0.0993  0.0368
28899W        W71811  23.700  31.257   9.897 -0.2532 -0.1719  0.2350
28900W        W71812  23.828  30.527   8.326  0.1391  0.0650  0.2478
28901W        W71813  25.345  30.893   8.382 -0.2189 -0.1531  0.2679
28902W        W71814  22.557  30.282   8.893  0.1999 -0.1826  0.4117
28903W        W71815  24.598  29.124  10.213 -0.0890 -0.1264  0.0177
28904W        W71816  21.224  32.995   9.563  0.1384  0.3417 -0.0341
28905W        W71817  24.348  29.016   8.074 -0.1356  0.2806  0.2679
28906W        W71818  21.430  29.327   7.197 -0.2523 -0.2046  0.1746
28907W        W71819  24.639  30.390   8.752  0.0022 -0.2500 -0.1043
28908W        W71820  22.270  29.996  10.123  0.2576  0.2897 -0.1618
28909W        W71821  22.434  31.455   8.689  0.0466 -0.0474 -0.1602
28910W        W71822  25.240  32.783   8.669 -0.0162  0.1413  0.3423
28911W        W71823  21.623  28.286   7.915 -0.2388  0.3473 -0.2982
28912W        W71824  22.901  31.789   8.427  0.1602 -0.1754  0.2638
28913W        W71825  25.498  33.503   9.091 -0.0641 -0.2106  0.1547
28914W        W71826  22.884  31.984   9.192 -0.1250  0.0592  0.0894
28915W        W71827  23.588  29.589  10.365  0.3160  0.1036  0.1475
28916W        W71828  22.544  28.773   9.561 -0.1175  0.0298  0.0104
28917W        W71829  25.469  31.754   8.758  0.0311  0.1575  0.1350
28918W        W71830  23.813  28.722   9.284 -0.0975  0.3817  0.1437
28919W        W71831  23.769  27.506   9.893 -0.3891 -0.0906 -0.0448
28920W        W71832  26.519  33.276   8.515 -0.0017 -0.1654 -0.0175
28921W        W71833  22.410  30.433   8.340  0.0439 -0.0516  0.3433
28922W        W71834  23.842  31.398   8.718 -0.0625  0.0762 -0.2644
28923W        W71835  23.751  31.688   8.168 -0.3759 -0.1912  0.0628
28924W        W71836  23.335  27.592  10.477 -0.1587  0.3614 -0.1406
28925W        W71837  24.178  30.282  10.253  0.0140 -0.0570 -0.1014
28926W        W71838  22.194  30.913   7.688  0.0051  0.0113  0.3439
28927W        W71839  22.510  31.543   9.279  0.0446  0.0146 -0.1173
28928W        W71840  24.147  29.865  10.694  0.0623  0.1632 -0.1234
28929W        W71841  22.971  30.995   8.025 -0.0935 -0.1801 -0.1041
28930W        W71842  23.347  28.395   8.898  0.0101  0.2549 -0.1475
28931W        W71843  25.061  31.632   8.187  0.0826 -0.3068  0.0432
28932W        W71844  23.806  30.235   9.306 -0.1463  0.0594  0.0897
28933W        W71845  25.470  32.261   8.765 -0.1060 -0.0403 -0.0542
28934W        W71846  22.972  31.496   9.844 -0.0673  0.1633  0.1090
28935W        W71847  22.367  29.305   8.529 -0.5394  0.0818  0.3303
28936W        W71848  24.641  31.994   8.381 -0.0652  0.5873  0.0100
28937W        W71849  24.727  33.116   9.705  0.4580  0.1417 -0.0363
28938W        W71850  23.620  29.762   9.218  0.3806 -0.0595  0.1507
28939W        W71851  23.879  28.357   9.637 -0.1280  0.4456  0.2580
28940W        W71852  21.926  30.863   9.636 -0.0020 -0.0986 -0.2523
28941W        W71853  24.320  32.177   9.908  0.2543  0.0412 -0.0446
28942W        W71854  22.595  31.062   9.618 -0.1268  0.0582 -0.0075
28943W        W71855  22.633  31.097   9.118 -0.0809 -0.1114  0.0600
28944W        W71856  24.383  30.943   9.563  0.3336 -0.0892  0.0679
28945W        W71857  23.767  27.794   8.717  0.1571  0.3106  0.0490
28946W        W71858  25.029  33.424  10.059 -0.0148 -0.0476  0.0306
28947W        W71859  25.149  30.881   8.873 -0.0587 -0.1276 -0.2475
28948W        W71860  23.727  28.927  10.234  0.3234  0.2018  0.2045
28949W        W71861  24.860  29.986   9.337  0.1120 -0.0357  0.0659
28950W        W71862  23.415  30.657   9.301  0.1602  0.3054 -0.0142
28951W        W71863  23.358  29.384   9.439 -0.1920 -0.1314  0.0719
28952W        W71864  22.682  29.049   6.712  0.0793  0.0971  0.1820
28953W        W71865  23.094  32.053   6.596  0.3242  0.1881 -0.2141
28954W        W71866  25.526  32.486   8.298  0.1371 -0.2529  0.2175
28955W        W71867  24.321  29.011   8.579  0.1793  0.0344 -0.0476
28956W        W71868  21.198  29.347  10.085 -0.0814  0.2599  0.0907
28957W        W71869  22.016  29.865   6.952  0.3093  0.0020 -0.1130
28958W        W71870  23.017  30.145   7.065 -0.1166 -0.0618 -0.2402
28959W        W71871  23.338  31.341   8.606  0.0668  0.1232 -0.1631
28960W        W71872  22.500  28.790   7.663  0.0096  0.0258  0.1890
28961W        W71873  21.929  30.672   8.257 -0.0288 -0.1787  0.2413
28962W        W71874  23.333  27.501   9.521 -0.0160 -0.4949 -0.1790
28963W        W71875  23.900  32.866   9.077 -0.2758 -0.1645 -0.4645
28964W        W71876  23.944  31.849   9.007  0.1048  0.0248 -0.0632
28965W        W71877  23.236  28.758  10.280 -0.0514  0.2086 -0.2120
28966W        W71878  23.726  30.077  10.283 -0.0259 -0.2639  0.1845
28967W        W71879  23.721  31.176   8.276  0.1471 -0.0596  0.1294
28968W        W71880  24.194  30.434   9.712  0.0811  0.1921 -0.0139
28969W        W71881  25.473  30.483   9.300 -0.0227  0.0584  0.0392
28970W        W71882  25.519  31.764  10.006  0.1788  0.1140  0.1877
28971W        W71883  24.112  30.910   8.667 -0.0380 -0.0711  0.1035
28972W        W71884  22.843  28.200   8.301 -0.4070  0.0303  0.2527
28973W        W71885  23.748  30.748   7.168  0.1079  0.0330 -0.1236
28974W        W71886  24.919  30.889   9.355 -0.1680  0.1576  0.1069
28975W        W71887  22.735  31.947   7.990  0.1943 -0.0111  0.0790
28976W        W71888  24.249  31.475   8.162  0.1325  0.0694  0.1517
28977W        W71889  25.862  32.511   9.135 -0.1377  0.0091  0.0071
28978W        W71890  24.873  32.867   9.068 -0.2532 -0.2234 -0.4941
28979W        W71891  23.326  29.295   8.416  0.1472  0.1667  0.0333
28980W        W71892  23.220  31.792  10.181 -0.3872 -0.0516  0.1567
28981W        W71893  22.704  30.967   7.602  0.0489 -0.1175 -0.0238
28982W        W71894  25.031  31.894   8.813 -0.1723 -0.2480  0.4399
28983W        W71895  22.187  31.643   8.213 -0.3075 -0.1637  0.2234
28984W        W71896  23.451  27.950   9.075 -0.0332  0.3734 -0.0682
28985W        W71897  25.426  28.589  10.129  0.0136 -0.0251  0.2982
28986W        W71898  24.322  30.610  12.312  0.0544  0.4066  0.2788
28987W        W71899  23.907  30.801  10.154  0.0352  0.0990 -0.1027
28988W        W71900  22.480  28.223   7.900 -0.3204  0.0288  0.3043
28989W        W71901  25.264  31.810   6.853  0.0705  0.3061 -0.3877
28990W        W71902  21.841  28.901   9.340 -0.1025  0.0315  0.2764
28991W        W71903  24.028  31.678   9.955  0.0407 -0.2475 -0.1739
28992W        W71904  25.347  29.766  10.268 -0.1188 -0.0662  0.1367
28993W        W71905  23.829  30.775   7.891  0.4918 -0.1389 -0.0103
28994W        W71906  24.458  30.714   7.935  0.1225  0.1712 -0.3374
28995W        W71907  24.011  32.383   8.954 -0.1650 -0.0461 -0.0372
28996W        W71908  24.669  31.354   9.963 -0.3613  0.0643 -0.1718
28997W        W71909  23.779  33.834   9.534  0.1057  0.0563 -0.1316
28998W        W71910  21.628  29.397   7.931  0.3598  0.0301  0.0778
28999W        W71911  24.492  30.787   9.081  0.0230 -0.0678  0.1257
29000W        W71912  24.519  27.934  10.082 -0.2101 -0.1716 -0.0319
29001W        W71913  22.810  30.653   9.382 -0.2612  0.2531  0.3680
29002W        W71914  24.601  29.797   8.754 -0.0797  0.2178 -0.3278
29003W        W71915  24.335  30.545   8.409  0.1931  0.2815 -0.0392
29004W        W71916  23.008  30.329   9.652 -0.2448  0.0447 -0.2151
29005W        W71917  23.138  30.439   7.988  0.2488 -0.4442 -0.1006
29006W        W71918  23.660  30.281   7.900  0.2749 -0.1766  0.2358
29007W        W71919  21.339  29.118   9.611  0.1200 -0.0414 -0.1073
29008W        W71920  23.176  29.830   8.658 -0.1028  0.0457 -0.2612
29009W        W71921  21.853  29.787  10.163 -0.3921 -0.0740 -0.0257
29010W        W71922  23.376  30.028   9.569 -0.1205  0.0569  0.1134
29011W        W71923  22.125  28.556   7.986 -0.0789 -0.1433  0.0308
29012W        W71924  24.713  32.412   7.243 -0.1770 -0.3272 -0.0574
29013W        W71925  24.880  30.904   9.836 -0.4254 -0.2370 -0.1639
29014W        W71926  24.071  31.783   7.804  0.0698  0.1742 -0.1202
29015W        W71927  24.645  31.176   8.848 -0.1086 -0.1170  0.2176
29016W        W71928  25.885  30.586   9.633  0.2274 -0.0215  0.1558
29017W        W71929  23.230  31.080   9.633  0.0021  0.1091  0.0159
29018W        W71930  25.370  33.800   9.901 -0.1301 -0.2425  0.0991
29019W        W71931  25.333  30.830   9.631 -0.2193 -0.1841 -0.0504
29020W        W71932  22.203  28.851   8.633 -0.0637 -0.0020  0.3946
29021W        W71933  22.490  30.060   9.534  0.0584  0.0735  0.1383
29022W        W71934  22.476  32.670   7.258  0.1476 -0.0557  0.2366
29023W        W71935  24.085  28.550  10.080  0.2192  0.1742  0.0162
29024W        W71936  23.526  32.087   7.505 -0.0742 -0.0767 -0.2308
29025W        W71937  23.847  31.928   9.524  0.1476 -0.1659 -0.2046
29026W        W71938  24.448  27.642   6.817  0.1353  0.0037 -0.2915
29027W        W71939  22.698  31.413   8.165  0.1814 -0.0737 -0.1625
29028W        W71940  23.146  31.087   7.416  0.6062 -0.1768  0.0356
29029W        W71941  26.910  33.334   9.403 -0.1162  0.1262 -0.0971
29030W        W71942  23.568  29.838   7.687  0.0657  0.1162  0.2492
29031W        W71943  24.152  32.824   9.549  0.1262 -0.1414 -0.0441
29032W        W71944  23.458  28.320   9.396  0.3231  0.0522  0.2362
29033W        W71945  23.609  28.629   8.471 -0.3309 -0.1331  0.1298
29034W        W71946  24.141  28.592   8.304  0.1533 -0.0018 -0.1423
29035W        W71947  22.929  32.281   8.729 -0.1192  0.0037 -0.1384
29036W        W71948  21.503  29.425   8.424 -0.4197  0.2529  0.2504
29037W        W71949  22.136  30.358   7.084  0.0398  0.2597  0.0940
29038W        W71950  23.145  32.004   9.597 -0.1270 -0.0895 -0.1186
29039W        W71951  22.470  30.655   9.927 -0.0113  0.1867  0.1843
29040W        W71952  21.860  28.534   8.495  0.0131  0.2152 -0.0308
29041W        W71953  25.665  32.004   8.314  0.1501 -0.0986  0.0297
29042W        W71954  22.303  28.895   9.122 -0.3083 -0.0048  0.2244
29043W        W71955  22.002  27.989   9.345 -0.0140  0.0128 -0.0061
29044W        W71956  25.206  32.748   8.038 -0.0780  0.0130 -0.0427
29045W        W71957  25.574  31.175   8.819 -0.1678 -0.3508  0.4092
29046W        W71958  23.103  28.636   8.511 -0.2004 -0.2102  0.3181
29047W        W71959  21.671  31.776   6.047  0.0095  0.2476  0.1441
29048W        W71960  21.941  26.958   7.046  0.2955  0.2148  0.0322
29049W        W71961  24.567  32.523   9.647  0.0557  0.0904  0.0945
29050W        W71962  24.736  32.040   9.726  0.0220  0.3286  0.0480
29051W        W71963  24.123  33.294   8.182 -0.1048  0.2327 -0.0202
29052W        W71964  21.321  28.580   9.354  0.1654  0.3045 -0.0532
29053W        W71965  23.187  31.512   8.113 -0.0256 -0.2506  0.0137
29054W        W71966  26.399  32.031   7.950 -0.0693  0.1028 -0.0765
29055W        W71967  24.176  31.205   9.058  0.1478  0.0749 -0.1813
29056W        W71968  23.423  30.798   8.177  0.1811 -0.1995 -0.1292
29057W        W71969  26.462  32.233  10.610  0.3134  0.2655  0.1190
29058W        W71970  22.158  28.469   9.438 -0.0091  0.3224  0.1060
29059W        W71971  23.869  29.922   8.104 -0.0115 -0.1547  0.0447
29060W        W71972  24.757  32.249   7.942  0.2980 -0.0969 -0.2101
29061W        W71973  22.970  30.677   9.991 -0.0810  0.0118 -0.1316
29062W        W71974  23.218  29.868   8.106 -0.1808 -0.1647 -0.0133
29063W        W71975  24.828  31.792   9.300 -0.2510  0.0129 -0.1119
29064W        W71976  24.151  30.414   8.908  0.1310  0.0253 -0.0405
29065W        W71977  25.940  30.690   8.065 -0.0002 -0.2425  0.0104
29066W        W71978  24.479  33.671   9.183 -0.0554  0.0552  0.0028
29067W        W71979  24.769  32.377  10.134  0.0763 -0.0180  0.0782
29068W        W71980  24.998  30.455   9.060 -0.2977 -0.0471 -0.4429
29069W        W71981  22.374  27.401   9.357  0.1733  0.1495 -0.0994
29070W        W71982  22.362  30.641   9.176 -0.2153 -0.1125 -0.1854
29071W        W71983  22.946  32.518   8.276 -0.0248 -0.1201 -0.1971
29072W        W71984  25.102  30.480  10.045  0.0747  0.1645 -0.2383
29073W        W71985  23.141  28.201  10.398  0.0070 -0.1394  0.3106
29074W        W71986  22.782  29.112   8.391  0.0897 -0.0431 -0.3732
29075W        W71987  25.340  32.629   9.131  0.1056  0.0174 -0.0586
29076W        W71988  25.184  33.254   9.633  0.2586 -0.2639  0.0511
29077W        W71989  22.913  33.941   1.316  0.0527 -0.0995 -0.4035
29078W        W71990  24.193  33.021  31.771 -0.0775 -0.1455  0.1900
29079W        W71991  24.150  34.096   1.762 -0.1490 -0.2081  0.0272
29080W        W71992  20.754  33.485   0.711 -0.0409 -0.1212  0.0278
29081W        W71993  21.139  32.650   1.695 -0.0528 -0.3793  0.1253
29082W        W71994  23.508   0.412   1.154 -0.0497 -0.1246  0.0798
29083W        W71995  22.287  34.121   3.844 -0.0640  0.1094  0.0544
29084W        W71996  23.922  32.936   0.555 -0.0932  0.2973 -0.3006
29085W        W71997  21.483  33.962   2.059 -0.1620 -0.1230  0.0724
29086W        W71998  24.440   1.841   3.826  0.0442 -0.0735 -0.3728
29087W        W71999  22.154   0.585   0.374 -0.2627 -0.0190 -0.0884
29088W        W72000  22.632  34.021   4.695 -0.1280 -0.1007 -0.0871
29089W        W72001  23.315  33.706   0.167  0.1270 -0.1560  0.0245
29090W        W72002  22.322  34.559   3.469 -0.0988 -0.2022 -0.0876
29091W        W72003  23.202  34.457   3.958  0.0537 -0.3426 -0.2436
29092W        W72004  23.467  34.350  31.960 -0.5122 -0.0352 -0.1715
29093W        W72005  21.905  34.649   1.533  0.0881 -0.2446  0.2961
29094W        W72006  22.548  34.249   2.667 -0.3468  0.1885  0.0695
29095W        W72007  25.088  34.346   3.594 -0.0135  0.1400 -0.1884
29096W        W72008  25.720  34.165   2.551 -0.0359 -0.2084 -0.1016
29097W        W72009  24.388   0.405   4.219 -0.1799  0.0425  0.1501
29098W        W72010  25.160  34.060   3.151  0.0174  0.3518  0.4968
29099W        W72011  23.922  34.210   1.226 -0.2606  0.2185  0.1269
29100W        W72012  24.774   2.047   3.121 -0.1529 -0.0413  0.2896
29101W        W72013  24.262  33.700  31.328  0.2354 -0.1508  0.5404
29102W        W72014  23.919  34.258  31.685  0.3888 -0.3277 -0.0268
29103W        W72015  25.164  32.207  31.412 -0.4866  0.5075 -0.1873
29104W        W72016  23.329  33.095   1.436 -0.0613 -0.0063 -0.0314
29105W        W72017  23.743  32.379   2.350 -0.0678  0.1867  0.0294
29106W        W72018  23.941  34.354   2.124 -0.0260 -0.1168 -0.0954
29107W        W72019  23.640   0.756   2.687  0.3967 -0.1203 -0.0608
29108W        W72020  21.505  34.493   1.738  0.2610 -0.0304 -0.0077
29109W        W72021  22.969   0.170   1.838  0.1418  0.0788 -0.3014
29110W        W72022  22.772  34.289   3.638 -0.1778  0.0027  0.0004
29111W        W72023  20.515  33.665   3.894  0.1699 -0.0371 -0.0720
29112W        W72024  24.092  33.355   0.674  0.3343  0.0512 -0.0179
29113W        W72025  24.216  33.809   1.065  0.0599  0.0210 -0.0440
29114W        W72026  24.932  33.222   2.619 -0.0873 -0.2736 -0.1385
29115W        W72027  24.898  33.588   2.245  0.1987 -0.0679 -0.5689
29116W        W72028  24.692  33.817  31.597  0.0718  0.4497 -0.0702
29117W        W72029  23.638  34.468   2.518  0.0062 -0.2059  0.2405
29118W        W72030  21.903  33.446   3.349 -0.0560  0.0961 -0.1605
29119W        W72031  25.682  34.457  31.925 -0.0045 -0.0981 -0.1820
29120W        W72032  22.100  32.641   3.294 -0.0147 -0.5740  0.0783
29121W        W72033  25.194  33.748   1.892 -0.1977  0.0306 -0.1211
29122W        W72034  24.409   0.419  31.634 -0.1206  0.0900  0.2665
29123W        W72035  21.818  34.191   1.386  0.0310  0.2623 -0.3664
29124W        W72036  22.241  33.915   1.497 -0.0456  0.1097  0.0644
29125W        W72037  23.882  32.291   3.718  0.0397 -0.0618 -0.0511
29126W        W72038  21.800  34.327   3.036  0.1143  0.0453 -0.2405
29127W        W72039  25.694  34.411   3.512 -0.3694  0.0526 -0.0229
29128W        W72040  20.420  33.797   2.253  0.0809  0.2154 -0.1612
29129W        W72041  24.808  34.449   1.648  0.2010 -0.1707  0.0130
29130W        W72042  22.391  33.880   0.276 -0.3069 -0.2228  0.0036
29131W        W72043  24.914  33.655   2.938 -0.0822 -0.0332  0.1334
29132W        W72044  22.930  33.307   3.296  0.1303  0.2065 -0.1559
29133W        W72045  23.557  33.495   0.860  0.2968 -0.0932 -0.1432
29134W        W72046  23.662  31.636   0.931 -0.0234 -0.2669 -0.0057
29135W        W72047  24.723  31.986   3.340 -0.0216  0.2081  0.2253
29136W        W72048  24.207   0.190   2.878 -0.1137 -0.1056 -0.2364
29137W        W72049  21.641  34.689  31.718 -0.3258  0.4012  0.1634
29138W        W72050  21.756  33.661   1.177  0.0918 -0.0576  0.1933
29139W        W72051  23.583  33.454   1.772  0.0413  0.1595  0.0866
29140W        W72052  23.501  32.522   3.495 -0.0029  0.2641  0.0996
29141W        W72053  24.546   0.413   3.180 -0.2739  0.0819  0.2847
29142W        W72054  21.826   0.213   0.126 -0.0093  0.0750  0.1348
29143W        W72055  25.145  33.397   0.826 -0.0621  0.0054  0.0377
29144W        W72056  24.977  33.810  30.370 -0.0740 -0.1129 -0.1183
29145W        W72057  25.147  33.724  31.849 -0.0892  0.0838 -0.1143
29146W        W72058  23.758   0.580   1.627  0.2836 -0.1042  0.3229
29147W        W72059  23.463   0.328   0.617  0.0819  0.0856 -0.0926
29148W        W72060  23.806  32.512   2.885  0.2230  0.0329  0.0793
29149W        W72061  22.668  33.689   2.052 -0.1431 -0.2483  0.1031
29150W        W72062  24.533  33.604   2.608  0.0422 -0.0062 -0.0321
29151W        W72063  24.374  34.089   2.259 -0.3015  0.2652  0.2493
29152W        W72064  24.819  33.429   1.776  0.1975  0.0794  0.1229
29153W        W72065  23.045  33.882   3.456 -0.2551  0.2770 -0.2206
29154W        W72066  24.165  34.012   4.942  0.2629 -0.0982  0.2750
29155W        W72067  24.220  32.620   1.476  0.2083  0.0980 -0.2449
29156W        W72068  23.454  33.993   2.620 -0.0562  0.2732  0.0603
29157W        W72069  22.854  34.276   0.439 -0.1901  0.1616 -0.0277
29158W        W72070  24.309  32.564   3.768 -0.1387  0.4811 -0.0464
29159W        W72071  24.096  33.817   3.508 -0.2361  0.0820 -0.2267
29160W        W72072  23.437  34.044   1.112  0.0696 -0.2487 -0.0615
29161W        W72073  22.419  33.306   2.222  0.1301  0.3011 -0.2362
29162W        W72074  25.270  34.233   1.723 -0.0565  0.1390 -0.3973
29163W        W72075  22.787  34.569   1.457  0.1751 -0.1161  0.5637
29164W        W72076  21.310  33.507   1.391 -0.2466 -0.2801 -0.0202
29165W        W72077  23.233  32.993   2.337 -0.2450 -0.0563  0.2521
29166W        W72078  22.349  34.158   2.199 -0.0361  0.2445 -0.1693
29167W        W72079  24.552   0.012   3.746  0.0717  0.5628 -0.3035
29168W        W72080  24.756   0.744   3.953  0.1489  0.0443  0.0375
29169W        W72081  24.981  34.508   0.180  0.0413  0.0454  0.0649
29170W        W72082  23.849  34.323   3.507  0.1735 -0.2679  0.0374
29171W        W72083  21.642  32.596   1.295  0.2826 -0.1009 -0.3047
29172W        W72084  24.706  33.077   2.152  0.1754 -0.3368  0.0694
29173W        W72085  22.252  34.656   2.119  0.1294 -0.2121  0.2429
29174W        W72086  23.296   2.581   0.874  0.0822 -0.0305  0.0938
29175W        W72087  24.421  34.051   2.757 -0.1500  0.3478  0.2507
29176W        W72088  22.646  33.691   3.690 -0.1128 -0.1533  0.3297
29177W        W72089  24.359  33.193   1.667  0.1694  0.0081  0.0828
29178W        W72090  22.606  33.624   2.637  0.0555 -0.2405  0.0704
29179W        W72091  22.674  33.895   3.107 -0.0039 -0.0812 -0.0560
29180W        W72092  23.762  32.867   1.592  0.2604 -0.0557 -0.1426
29181W        W72093  24.677   0.768   2.857  0.0104 -0.0737 -0.0570
29182W        W72094  23.487  34.137   2.079 -0.0058 -0.2275  0.1585
29183W        W72095  26.722  33.328   0.917 -0.1175 -0.1740  0.0078
29184W        W72096  23.133  33.824   1.782 -0.0042  0.0192  0.2925
29185W        W72097  25.350  33.908   3.713 -0.1589 -0.2165  0.0241
29186W        W72098  23.925   0.181   2.358 -0.3478  0.0547  0.1169
29187W        W72099  24.690  32.580   2.227 -0.1510  0.0111  0.1023
29188W        W72100  23.346  32.246   1.711  0.0368  0.2587  0.0713
29189W        W72101  22.204  33.818   3.443 -0.3596 -0.2323  0.0152
29190W        W72102  21.952  34.246   3.538 -0.0441  0.2610  0.0541
29191W        W72103  24.715  33.658   1.057 -0.3037 -0.1278  0.4250
29192W        W72104  21.185  32.286  31.487  0.2819  0.1328 -0.1093
29193W        W72105  21.798   0.049   3.483  0.1885 -0.0704  0.4123
29194W        W72106  23.524  33.457   2.311  0.3911  0.2163  0.2912
29195W        W72107  21.464   1.265   2.210 -0.1851  0.0996  0.1043
29196W        W72108  23.832  33.780   2.090  0.1929  0.2548  0.0203
29197W        W72109  23.024  33.445   2.454 -0.2081  0.1382 -0.2122
29198W        W72110  24.978  33.850   1.467 -0.1146  0.0553 -0.0456
29199W        W72111  23.615  33.563   2.770 -0.0431 -0.0838  0.0782
29200W        W72112  26.185  33.699   3.135 -0.0036  0.4628 -0.2753
29201W        W72113  24.145  34.305   3.122  0.2289  0.1166 -0.0308
29202W        W72114  21.129   0.160   4.044 -0.1674 -0.1394  0.1658
29203W        W72115  25.766  33.875   0.002  0.0059 -0.0792 -0.0067
29204W        W72116  25.208  33.158   1.894 -0.4110 -0.0679  0.2553
29205W        W72117  25.770  34.164   0.504 -0.1152 -0.2498 -0.2701
29206W        W72118  24.067  33.657  31.771  0.4081  0.2983 -0.1480
29207W        W72119  21.847  34.597   3.919 -0.1685  0.2426  0.0999
29208W        W72120  24.637   1.174   3.761 -0.0123 -0.1622  0.1175
29209W        W72121  22.297   0.768  31.824  0.0036  0.0718 -0.1446
29210W        W72122  23.465  33.587   3.212  0.1526 -0.0349 -0.1235
29211W        W72123  23.601  33.905   1.595  0.2561 -0.0501  0.2284
29212W        W72124  21.610   0.322   1.961 -0.2982  0.1845  0.2202
29213W        W72125  22.922  34.262   2.174 -0.2930 -0.3451  0.3281
29214W        W72126  22.699   0.857  31.259  0.0794  0.1753 -0.1504
29215W        W72127  24.198  33.264   0.208  0.0477 -0.2042 -0.3042
29216W        W72128  25.031   0.306   3.932  0.2456 -0.1040 -0.3675
29217W        W72129  23.913  31.800   2.301 -0.2215 -0.0684 -0.1595
29218W        W72130  24.171  32.296   2.111  0.0230  0.4570  0.1681
29219W        W72131  24.614  34.125   1.235 -0.0816  0.0576 -0.0784
29220W        W72132  21.912   0.624   3.569  0.0462 -0.0881  0.2747
29221W        W72133  26.116  34.553   2.610 -0.0125 -0.1050 -0.2745
29222W        W72134  22.301   2.001   1.349 -0.1782  0.1859 -0.0110
29223W        W72135  21.341  33.421   3.571 -0.2192 -0.1133  0.0806
29224W        W72136  22.038  31.798   2.436  0.1553  0.0390  0.1189
29225W        W72137  23.317  33.612   1.284  0.2138  0.1680 -0.2399
29226W        W72138  26.000  33.850   1.059  0.2604  0.0144 -0.0471
29227W        W72139  24.089   0.763   3.083  0.0784 -0.3516 -0.0251
29228W        W72140  25.473  34.589   0.382  0.0835 -0.0842  0.0986
29229W        W72141  22.557   0.655   1.618  0.2404  0.0091  0.0007
29230W        W72142  22.631  33.043   1.759  0.1401 -0.2583  0.0921
29231W        W72143  22.755   0.454   4.673 -0.0584  0.1678  0.2067
29232W        W72144  27.367   0.063   3.108  0.2192 -0.0470  0.0687
29233W        W72145  22.886  33.408   1.164 -0.0016  0.0322 -0.4531
29234W        W72146  22.739   0.056   2.809 -0.0140  0.0134 -0.1215
29235W        W72147  24.278  31.636   2.558 -0.1365 -0.2539 -0.0649
29236W        W72148  23.146  34.440   2.601  0.1560 -0.2904 -0.0604
29237W        W72149  23.133  33.342   0.600 -0.0891 -0.3785 -0.0802
29238W        W72150  25.648  33.741   1.572  0.1326 -0.2794  0.0434
29239W        W72151  23.448  34.578   1.134 -0.2409 -0.0485 -0.0064
29240W        W72152  25.384  31.604   2.590  0.0978 -0.3287 -0.0256
29241W        W72153  23.116   1.042   1.106 -0.0218 -0.2938 -0.1656
29242W        W72154  23.436  34.292   0.580  0.3055  0.0219  0.1912
29243W        W72155  22.075   0.550   1.885  0.0013 -0.1787 -0.1524
29244W        W72156  24.197  34.268   0.816 -0.1960 -0.1515 -0.2501
29245W        W72157  26.106  34.220   3.284  0.1460  0.2014  0.0084
29246W        W72158  24.604   0.440   0.773  0.0324  0.1787  0.2407
29247W        W72159  21.564  33.597   2.928 -0.3029 -0.1335  0.0071
29248W        W72160  24.584  33.515   0.613  0.1896 -0.1435 -0.1586
29249W        W72161  21.305  34.089   1.506 -0.0996 -0.0761 -0.0817
29250W        W72162  22.765  34.428   3.188  0.1503 -0.0237 -0.3084
29251W        W72163  21.580  33.146   1.627  0.1126  0.1089 -0.0445
29252W        W72164  25.766   0.155   1.911  0.0658 -0.2857  0.2306
29253W        W72165  25.461   0.272   2.768  0.2254  0.0086 -0.4167
29254W        W72166  22.952  33.975   2.638 -0.0354 -0.0113  0.1555
29255W        W72167  24.620  32.385   0.691 -0.1012  0.1338  0.1353
29256W        W72168  22.710  34.036   1.737  0.2016  0.3588 -0.2151
29257W        W72169  24.607  33.059   0.793  0.1099 -0.3012 -0.2023
29258W        W72170  25.115  33.030   3.116  0.2410 -0.2224 -0.1320
29259W        W72171  24.631  32.685   4.111  0.2435  0.0048  0.0158
29260W        W72172  22.358  33.339   3.451  0.0837  0.4891  0.2124
29261W        W72173  23.908  33.233   2.083  0.1045 -0.1193 -0.2116
29262W        W72174  24.681  33.157   0.205 -0.0269 -0.0164  0.0066
29263W        W72175  25.607  33.658  31.589  0.1755 -0.0067 -0.1848
29264W        W72176  22.384   0.770   3.043  0.1869 -0.0321  0.1320
29265W        W72177  21.642  33.211   0.590  0.0281  0.1138 -0.2697
29266W        W72178  24.403  31.440   4.608 -0.0542 -0.1059 -0.0971
29267W        W72179  22.307  34.593   4.095  0.1942  0.1089 -0.0229
29268W        W72180  21.784  34.672   0.521  0.1570 -0.2930  0.1549
29269W        W72181  22.812   0.124  31.970  0.0753  0.0250  0.1775
29270W        W72182  23.166  32.755   3.173 -0.0209 -0.2863  0.0338
29271W        W72183  22.164  33.628   1.923 -0.0285 -0.0895  0.2755
29272W        W72184  22.847  32.877   1.304 -0.0427 -0.0112 -0.0205
29273W        W72185  23.595  34.603   4.400  0.0323  0.1997  0.1556
29274W        W72186  21.421  33.294   4.045  0.1414  0.2620 -0.5057
29275W        W72187  22.298  33.533  31.802  0.5760  0.2055 -0.1383
29276W        W72188  23.928  34.030   2.544  0.1693 -0.0325 -0.0782
29277W        W72189  20.470  32.719   3.164 -0.1217  0.0504  0.0206
29278W        W72190  25.093  32.079   1.628  0.1261  0.0176 -0.1396
29279W        W72191  24.557  33.609   0.058 -0.0361 -0.0666 -0.0091
29280W        W72192  22.063  33.415   2.581  0.0692  0.2433 -0.1388
29281W        W72193  23.221  32.744   1.766 -0.0069  0.0657  0.0977
29282W        W72194  24.050  33.593   1.722  0.0245 -0.1132  0.0092
29283W        W72195  22.618   0.380   1.201  0.0513 -0.0536  0.1070
29284W        W72196  24.386  33.081   2.532 -0.0282  0.2252 -0.0034
29285W        W72197  24.553   1.303   2.848 -0.1334  0.1486  0.0032
29286W        W72198  23.191  34.193   3.010  0.0428  0.3157  0.2446
29287W        W72199  25.023   0.083   0.713 -0.1173 -0.0111 -0.0350
29288W        W72200  21.914  34.103   1.956  0.1116  0.0255  0.1410
29289W        W72201  22.657   0.091   0.525 -0.0957 -0.1114 -0.0281
29290W        W72202  23.401   1.389   1.397 -0.1057 -0.5747 -0.3484
29291W        W72203  24.721  34.391   3.315 -0.2508  0.1052 -0.2593
29292W        W72204  21.692  33.184   1.135 -0.2737 -0.2570  0.2653
29293W        W72205  23.190  33.030   0.953 -0.1170  0.1208 -0.0156
29294W        W72206  22.979   0.579   5.167 -0.3514  0.0133 -0.1707
29295W        W72207  24.909   0.136   3.414 -0.1143 -0.0096 -0.2561
29296W        W72208  24.018  33.387   4.147  0.0694 -0.0287  0.0653
29297W        W72209  23.057  33.278   5.024 -0.2827 -0.1572  0.2647
29298W        W72210  22.834  33.099   7.316  0.0545 -0.0424 -0.3848
29299W        W72211  24.586  34.284   5.082  0.0775  0.2348  0.2961
29300W        W72212  22.904  33.483   6.816 -0.1417 -0.0821  0.1853
29301W        W72213  23.818  33.356   3.589  0.1570  0.1461  0.1116
29302W        W72214  22.096  33.403   6.001  0.2009  0.1204  0.0144
29303W        W72215  24.142   0.678   6.235 -0.2541  0.3726 -0.1642
29304W        W72216  21.481  34.357   3.454  0.1430 -0.2483 -0.1168
29305W        W72217  23.204  32.629   5.461 -0.3268  0.0054 -0.1111
29306W        W72218  22.708  34.592   4.587 -0.3340  0.0284 -0.2120
29307W        W72219  23.833  31.095   5.840  0.0188 -0.2053 -0.4391
29308W        W72220  25.747  32.305   7.298  0.0696  0.1237 -0.2368
29309W        W72221  22.289  34.187   3.064 -0.2526  0.3132  0.2170
29310W        W72222  22.469  33.061   4.763 -0.1854  0.0587 -0.0895
29311W        W72223  23.972  33.497   6.208  0.1845  0.1751  0.2328
29312W        W72224  25.655  33.107   5.981 -0.1073 -0.1873 -0.1149
29313W        W72225  23.918   0.141   5.492  0.4161 -0.1309  0.0653
29314W        W72226  25.915  34.493   7.581  0.0685  0.1725  0.1394
29315W        W72227  24.439  32.672   5.410 -0.0939  0.1498 -0.0910
29316W        W72228  22.994   1.601   4.191 -0.0066  0.1640 -0.0676
29317W        W72229  26.246   0.688   8.956 -0.1299  0.2517  0.0258
29318W        W72230  23.855  34.366   4.970 -0.2360  0.0619 -0.1471
29319W        W72231  23.079  34.313   4.516 -0.0706  0.5070  0.2111
29320W        W72232  24.918  32.619   5.203 -0.2124 -0.0656 -0.1744
29321W        W72233  22.981  31.869   5.344 -0.0832  0.1691 -0.2167
29322W        W72234  22.404  34.543   6.208  0.0143  0.1261  0.2185
29323W        W72235  25.294   0.253   5.387 -0.0232  0.2086 -0.0805
29324W        W72236  24.304  33.503   5.780  0.1981 -0.2934 -0.2456
29325W        W72237  22.604  33.986   5.268  0.2734  0.0375 -0.0138
29326W        W72238  21.612   0.907   3.988 -0.0686 -0.5107 -0.0086
29327W        W72239  22.781  34.081   6.528 -0.1182  0.0760 -0.3010
29328W        W72240  21.923   0.230   5.194  0.5350  0.0849 -0.3127
29329W        W72241  22.508  32.597   2.911  0.0236  0.1620  0.0583
29330W        W72242  26.441  34.385   5.174 -0.0742 -0.0688 -0.1321
29331W        W72243  25.325  33.879   6.461 -0.0216 -0.2102 -0.0332
29332W        W72244  23.389  32.331   4.965  0.1884  0.2625 -0.1806
29333W        W72245  24.288  33.751   4.465 -0.1529  0.2278 -0.2275
29334W        W72246  23.311  32.401   7.859 -0.0743 -0.3330  0.2109
29335W        W72247  22.231  33.595   6.985  0.2292 -0.1770 -0.1011
29336W        W72248  24.913  33.596   5.352 -0.2356 -0.0800  0.0175
29337W        W72249  23.656  33.625   7.075 -0.1156 -0.0403  0.3829
29338W        W72250  25.761  33.005   4.855  0.1549  0.3121 -0.0269
29339W        W72251  25.347  34.381   3.981  0.2279 -0.2677  0.0509
29340W        W72252  23.390  34.414   6.665  0.0707  0.1558 -0.0668
29341W        W72253  22.806  34.170   6.012 -0.0503 -0.0560 -0.0779
29342W        W72254  23.670  32.239   6.425 -0.0123  0.0041 -0.3204
29343W        W72255  23.488   0.574   5.666 -0.3098  0.0027 -0.2782
29344W        W72256  23.789   1.475   6.344  0.0987 -0.0821 -0.0249
29345W        W72257  22.103  32.093   4.622  0.2044  0.0948 -0.0850
29346W        W72258  24.738  34.189   4.004 -0.2328 -0.1543  0.2623
29347W        W72259  24.279  34.401   6.387  0.0887 -0.2783 -0.0583
29348W        W72260  25.818  32.594   6.248  0.0443  0.1411 -0.1258
29349W        W72261  24.095  34.000   5.767 -0.0981 -0.0201  0.0553
29350W        W72262  23.382  32.848   4.923 -0.1447 -0.2956 -0.0412
29351W        W72263  23.600  33.839   3.644  0.1674  0.2404 -0.0804
29352W        W72264  24.824  34.664   6.585  0.0584 -0.2519 -0.3853
29353W        W72265  24.185  33.111   6.016 -0.5495  0.1269  0.0511
29354W        W72266  22.727  32.871   5.218  0.0862  0.0281 -0.2772
29355W        W72267  21.296   0.395   5.194  0.1600  0.0929  0.3015
29356W        W72268  24.635  34.415   5.635  0.2200  0.0871  0.2253
29357W        W72269  22.625  33.519   7.268  0.0649  0.3664 -0.0404
29358W        W72270  25.037  34.262   6.425  0.1658 -0.1729 -0.1051
29359W        W72271  21.542   0.041   4.314 -0.1214 -0.3584  0.1307
29360W        W72272  24.094  33.054   5.475  0.0049  0.1683  0.0816
29361W        W72273  25.662  33.937   4.252 -0.1386 -0.1093 -0.1402
29362W        W72274  24.444  33.727   3.910 -0.2629 -0.1987  0.0074
29363W        W72275  23.998  33.627   3.045 -0.3388  0.1443 -0.1368
29364W        W72276  24.492  33.769   3.195 -0.0382  0.3026  0.1645
29365W        W72277  23.828  32.640   6.719  0.0279 -0.0806 -0.2561
29366W        W72278  24.856  34.088   2.514  0.0192 -0.0064 -0.0545
29367W        W72279  23.713  33.030   4.031  0.4498 -0.1572  0.1363
29368W        W72280  23.453  31.956   5.525  0.2069 -0.1753 -0.1898
29369W        W72281  24.403  33.380   3.488  0.0519  0.1159  0.1826
29370W        W72282  24.406  32.833   6.353 -0.1803  0.2106  0.3596
29371W        W72283  25.040  34.505   7.046 -0.0781 -0.2424  0.1133
29372W        W72284  24.203  33.023   3.804  0.3262  0.2711  0.0323
29373W        W72285  24.773  33.843   5.759  0.1523 -0.0708 -0.2200
29374W        W72286  23.445  33.997   4.224 -0.2723 -0.2894  0.0013
29375W        W72287  23.930  32.675   6.230 -0.0742  0.2932  0.3356
29376W        W72288  23.019  34.331   7.455  0.1294 -0.1561 -0.1444
29377W        W72289  23.347  34.267   3.477 -0.0367  0.0151  0.1517
29378W        W72290  23.539  33.078   5.371 -0.2288 -0.0463 -0.1728
29379W        W72291  24.757  33.019   6.728 -0.0987 -0.4194  0.1090
29380W        W72292  22.317  33.504   5.071 -0.2794  0.4578 -0.0588
29381W        W72293  21.336  33.586   4.467 -0.2331  0.0592  0.1052
29382W        W72294  25.015   0.326   4.492 -0.0288 -0.0294  0.1121
29383W        W72295  22.265  33.129   7.397 -0.0954  0.3766  0.0734
29384W        W72296  23.813  32.195   7.068  0.0611  0.1793 -0.0651
29385W        W72297  24.553   0.610   5.915  0.1737  0.0011  0.0023
29386W        W72298  25.334  33.580   4.320  0.0159  0.3215 -0.2004
29387W        W72299  24.126   0.151   6.177 -0.1856  0.3478 -0.0760
29388W        W72300  21.729  33.685   3.842  0.0490  0.2763 -0.1686
29389W        W72301  24.962  34.301   7.532  0.1364 -0.0302 -0.2419
29390W        W72302  23.544  33.098   6.168  0.0363  0.1562 -0.0122
29391W        W72303  23.142   0.184   4.780  0.0641  0.1040  0.0427
29392W        W72304  23.745  33.781   6.535  0.1624  0.3192  0.0069
29393W        W72305  23.777  32.590   4.741 -0.0675 -0.1661  0.0107
29394W        W72306  23.082  33.699   4.453  0.2814  0.1267  0.1406
29395W        W72307  23.637  34.069   5.339  0.4539  0.0880  0.3244
29396W        W72308  24.663  33.448   6.912 -0.1291  0.1845  0.1435
29397W        W72309  24.407  31.644   7.248 -0.0874  0.2326 -0.2822
29398W        W72310  24.654  34.218   6.747  0.1553 -0.0194 -0.0287
29399W        W72311  23.421  33.632   6.217 -0.0939  0.3731  0.2735
29400W        W72312  26.332  34.326   3.949 -0.1780 -0.0315  0.0925
29401W        W72313  23.960  33.678   5.352  0.0669 -0.0319 -0.0123
29402W        W72314  26.411  33.279   6.767  0.0476 -0.0233 -0.0820
29403W        W72315  24.192   0.354   4.707  0.0520  0.2548  0.1737
29404W        W72316  25.152  33.921   7.773 -0.0311  0.0597  0.1030
29405W        W72317  23.418  32.881   6.554  0.1084  0.2319  0.3421
29406W        W72318  22.266   0.277   6.598  0.0180 -0.0112 -0.0702
29407W        W72319  22.174   0.222   5.949 -0.0423 -0.1888  0.2142
29408W        W72320  25.445  33.455   3.828 -0.1810  0.1597  0.2505
29409W        W72321  22.746  33.540   4.746 -0.0898 -0.2649  0.2591
29410W        W72322  23.589  33.995   7.679  0.2143  0.0003  0.0844
29411W        W72323  24.361  33.215   4.519 -0.2759 -0.0464  0.3393
29412W        W72324  21.983   0.692   5.955 -0.2667  0.1394  0.0239
29413W        W72325  23.011   1.451   6.221 -0.0068  0.0773 -0.1361
29414W        W72326  23.418  32.386   6.851  0.1716 -0.1757  0.1817
29415W        W72327  25.114  33.636   5.965 -0.0952  0.0405 -0.0652
29416W        W72328  24.069  32.994   4.972  0.1997  0.2926  0.0950
29417W        W72329  26.069  34.639   5.751  0.0606 -0.3491  0.2634
29418W        W72330  23.713  34.464   5.659  0.5453  0.1033 -0.0163
29419W        W72331  21.319  31.969   6.805  0.2458  0.0268  0.3257
29420W        W72332  24.960  33.630   3.969 -0.0714  0.0040  0.1241
29421W        W72333  26.115  33.561   6.437 -0.1771 -0.2048 -0.2688
29422W        W72334  25.290   0.959   4.766 -0.3194  0.1509 -0.0141
29423W        W72335  24.117  33.514   4.858  0.2080  0.2467  0.3794
29424W        W72336  23.216  34.079   6.334  0.2086  0.2222  0.0041
29425W        W72337  25.455  34.236   7.543  0.1139  0.2332 -0.2014
29426W        W72338  22.731  33.199   3.780  0.0702  0.3253 -0.2569
29427W        W72339  24.895   0.003   8.056 -0.1370  0.1801 -0.4829
29428W        W72340  23.610  33.785   4.957 -0.0475  0.1598  0.0766
29429W        W72341  22.806  33.783   5.692 -0.2482  0.3493 -0.1833
29430W        W72342  22.320  32.651   5.457 -0.0121 -0.3130  0.0302
29431W        W72343  24.089  34.685   4.390 -0.1572 -0.0471  0.0633
29432W        W72344  23.860  32.214   3.250 -0.2031  0.3719 -0.3041
29433W        W72345  26.306  34.260   7.263 -0.0713  0.2734  0.2230
29434W        W72346  24.755  33.271   4.898 -0.0256  0.1881 -0.1000
29435W        W72347  23.717  32.292   5.904  0.2322 -0.4898  0.0491
29436W        W72348  25.192  33.179   5.677 -0.1993 -0.1490  0.1577
29437W        W72349  24.474  33.891   5.407  0.2297 -0.3997  0.1842
29438W        W72350  24.453   0.961   8.057 -0.3713  0.3560  0.3984
29439W        W72351  23.125  33.937   5.155  0.0872  0.1347  0.4320
29440W        W72352  21.872  33.507   8.168  0.1934 -0.2724 -0.1463
29441W        W72353  25.044  31.961   4.671 -0.4007  0.0834 -0.0799
29442W        W72354  23.359  33.543   5.392  0.0798  0.2456  0.2301
29443W        W72355  24.803  33.363   4.384 -0.1506 -0.0479  0.3189
29444W        W72356  25.610   0.120   5.022 -0.0633 -0.1015  0.0557
29445W        W72357  25.615  34.123   4.903  0.3756  0.1353 -0.2595
29446W        W72358  23.695   0.164   5.921  0.0784 -0.0281  0.0821
29447W        W72359  21.976  33.023   4.643 -0.3493 -0.1121  0.0417
29448W        W72360  23.429  34.440   6.103 -0.1173 -0.2784  0.1996
29449W        W72361  26.656  31.630   6.622 -0.1362 -0.1735 -0.3569
29450W        W72362  21.816  33.491   4.290  0.0928  0.1235 -0.1084
29451W        W72363  23.821  34.590   6.473  0.1087 -0.0700  0.0721
29452W        W72364  24.465  31.341   7.711  0.1017 -0.3361  0.0254
29453W        W72365  23.594  32.748   5.746  0.0338  0.0954  0.0916
29454W        W72366  22.345  34.154   4.324 -0.1006 -0.0594  0.1331
29455W        W72367  25.040  34.259   5.892 -0.2362  0.2170  0.2305
29456W        W72368  25.023   0.414   6.317  0.1193  0.1227  0.0076
29457W        W72369  24.790  33.081   5.364  0.1541  0.0828 -0.0618
29458W        W72370  23.461   0.340   5.207 -0.0117  0.1331  0.2398
29459W        W72371  26.272   0.719   3.989 -0.2079 -0.0213 -0.0650
29460W        W72372  23.449  33.398   6.662  0.2379  0.1826  0.0096
29461W        W72373  23.482  33.491   4.085  0.0749  0.0049 -0.2186
29462W        W72374  26.652   0.312   7.352  0.0636  0.0013  0.0324
29463W        W72375  23.877  34.143   4.449 -0.1175 -0.2094 -0.2169
29464W        W72376  22.133  33.915   4.809  0.1103  0.2636  0.1441
29465W        W72377  23.749  34.575   3.086  0.1966  0.1443 -0.1623
29466W        W72378  22.428   1.881   5.026 -0.1149  0.0283  0.1318
29467W        W72379  23.344  34.649   7.349  0.0525 -0.4597 -0.2766
29468W        W72380  24.168  32.723   4.270 -0.1931 -0.0759 -0.2866
29469W        W72381  25.845  34.475   5.271 -0.3718 -0.3611  0.0360
29470W        W72382  26.110   0.799   5.236  0.3375  0.1203 -0.0336
29471W        W72383  22.262  34.105   6.767  0.0111  0.1028 -0.1085
29472W        W72384  23.974  33.878   4.031 -0.0987  0.3019  0.1729
29473W        W72385  23.148  32.862   5.903 -0.1909  0.2482 -0.0544
29474W        W72386  26.002  34.555   6.234 -0.0952 -0.1541  0.2965
29475W        W72387  25.211  33.578   6.896  0.0926  0.1184 -0.1654
29476W        W72388  25.482  32.201   6.943 -0.0107 -0.0793 -0.2113
29477W        W72389  25.024   0.422   4.981  0.1286 -0.2793 -0.3739
29478W        W72390  24.376  32.474   3.293  0.0141  0.1263 -0.0461
29479W        W72391  25.122  33.556   4.807  0.0487  0.0204 -0.3072
29480W        W72392  24.496  32.233   5.208  0.1451 -0.2048 -0.1542
29481W        W72393  22.679  33.426   5.384  0.2867  0.3261 -0.0606
29482W        W72394  23.689  33.396   5.803 -0.1174 -0.0741  0.0788
29483W        W72395  23.890  34.147   6.192  0.0473 -0.1343  0.1441
29484W        W72396  22.363  32.809   7.731  0.1638 -0.4828 -0.3528
29485W        W72397  22.219   0.085   4.752  0.2203  0.0908  0.0451
29486W        W72398  22.778  34.166   4.116  0.0039 -0.1363  0.0893
29487W        W72399  24.070  31.697   4.916 -0.0053 -0.0977 -0.1860
29488W        W72400  22.289  34.667   5.421 -0.1755  0.0495  0.1585
29489W        W72401  23.781  33.642   4.482  0.2008  0.2964  0.1926
29490W        W72402  23.807  34.534   7.672  0.1056  0.1667 -0.2334
29491W        W72403  24.262  33.035   6.821  0.0569  0.2399  0.1504
29492W        W72404  21.954  33.041   2.978  0.0241  0.3086 -0.4157
29493W        W72405  24.798  33.787   6.517  0.0270 -0.2399 -0.2278
29494W        W72406  23.195  32.344   5.881  0.0906  0.2734  0.0552
29495W        W72407  24.485  34.023   6.115 -0.2920 -0.1181 -0.0558
29496W        W72408  24.972   0.093   5.760 -0.2341 -0.0919 -0.0015
29497W        W72409  22.637  31.917   6.554  0.2981 -0.2000 -0.1139
29498W        W72410  23.363  32.739   4.437 -0.0746 -0.0665 -0.0918
29499W        W72411  24.780  32.395   4.802 -0.1480 -0.1132  0.0828
29500W        W72412  22.312  33.669   5.612  0.1595 -0.4393 -0.0316
29501W        W72413  23.755  32.648   5.223 -0.3664  0.4912  0.0824
29502W        W72414  25.537   0.268   5.831  0.3212 -0.1506 -0.0194
29503W        W72415  24.331   0.463   3.668 -0.2230 -0.0553 -0.2080
29504W        W72416  25.988   0.447   4.859  0.0796  0.0497 -0.0364
29505W        W72417  22.931  34.424   5.034 -0.0573 -0.0012  0.0401
29506W        W72418  22.015   0.320   4.314  0.0547  0.0557  0.0174
29507W        W72419  23.235   0.717   4.748  0.1230  0.1464 -0.1658
29508W        W72420  25.058  33.340   6.469  0.0001  0.0150  0.0022
29509W        W72421  23.174   0.081   5.593 -0.0949  0.0392  0.0196
29510W        W72422  25.340  33.363   2.347  0.2339 -0.1331  0.0579
29511W        W72423  22.313  33.816   7.918 -0.0304 -0.4639 -0.0024
29512W        W72424  26.044  34.195   6.622  0.2990  0.1160 -0.0737
29513W        W72425  26.742   0.186   8.834 -0.0488 -0.2219  0.0181
29514W        W72426  22.320  32.165   8.390  0.2231 -0.0778 -0.0647
29515W        W72427  25.384  34.207   6.813 -0.2952 -0.0545 -0.0841
29516W        W72428  22.982  34.072   9.831 -0.4007 -0.3427 -0.2163
29517W        W72429  24.504  32.938   8.704 -0.0785 -0.2503  0.1931
29518W        W72430  21.797  32.156   9.537 -0.0063  0.2730 -0.2749
29519W        W72431  24.830  34.231   9.855  0.1693 -0.1859 -0.2507
29520W        W72432  22.393  34.287   8.772  0.3661  0.0083 -0.0342
29521W        W72433  22.185  32.944   9.084 -0.0661  0.2071  0.0252
29522W        W72434  22.869  34.362   8.757  0.0481 -0.0245  0.1271
29523W        W72435  23.486  33.858   9.997  0.1886  0.0942  0.4112
29524W        W72436  21.725  34.498   8.077 -0.0548  0.2415  0.1201
29525W        W72437  22.376  32.912   8.220  0.0069  0.0901 -0.0776
29526W        W72438  23.943  33.725   8.965 -0.1672 -0.0622 -0.0397
29527W        W72439  24.663  33.026  10.178  0.0332 -0.1240 -0.5120
29528W        W72440  25.313   0.700   9.319 -0.1596 -0.2789 -0.1155
29529W        W72441  25.733   0.935  10.260 -0.0531  0.4753 -0.1556
29530W        W72442  23.639   0.613   8.751  0.0982  0.2895 -0.0613
29531W        W72443  24.334  34.156   8.243 -0.1512  0.4374 -0.1729
29532W        W72444  24.233  33.492   7.225 -0.1093 -0.0437  0.0833
29533W        W72445  24.768  34.073   8.648 -0.2620  0.0062 -0.0152
29534W        W72446  24.132  31.855   8.427 -0.0025  0.1497  0.2406
29535W        W72447  24.315  34.057   8.862  0.2517 -0.0195  0.0233
29536W        W72448  23.373  33.010   8.555 -0.1029  0.0316 -0.2968
29537W        W72449  24.669  33.615   9.733  0.2179  0.1508  0.1620
29538W        W72450  21.758  33.044   9.427  0.1930 -0.0826 -0.0919
29539W        W72451  23.161  32.897   7.985 -0.0871  0.3249  0.1134
29540W        W72452  24.320  32.707   8.222 -0.4276  0.1966 -0.0322
29541W        W72453  25.337  33.531   8.091  0.2449 -0.1259  0.2544
29542W        W72454  24.573  32.098   8.967  0.2737 -0.1809 -0.0299
29543W        W72455  26.066  32.851   8.248 -0.3044 -0.2359 -0.2440
29544W        W72456  25.897  34.228   8.958  0.2027  0.1158 -0.3430
29545W        W72457  22.154  34.628   9.569  0.2527  0.1867  0.3273
29546W        W72458  25.641  32.711   7.792  0.2005  0.0061  0.1958
29547W        W72459  25.098  34.128  12.021 -0.2399 -0.0891  0.0364
29548W        W72460  25.077  34.474   8.464  0.1845  0.0385  0.1983
29549W        W72461  22.264  32.376   9.808  0.1787 -0.0423 -0.1339
29550W        W72462  22.959  33.893   8.538 -0.0971 -0.2479  0.2080
29551W        W72463  23.452  32.675   8.953 -0.0238  0.1085  0.1032
29552W        W72464  22.282  32.691   6.802 -0.2306 -0.0282  0.0730
29553W        W72465  24.796   0.057   9.312 -0.0001 -0.2115 -0.1371
29554W        W72466  22.278  33.819   8.425  0.0918  0.2524 -0.0895
29555W        W72467  23.927  33.313   9.347 -0.1587  0.0960 -0.5497
29556W        W72468  22.907  32.979   6.786 -0.1582  0.1959 -0.1065
29557W        W72469  22.868  33.649   7.788  0.2749  0.1386  0.0693
29558W        W72470  25.353  34.328   9.952  0.0082 -0.0013 -0.0155
29559W        W72471  23.075  31.984   7.111 -0.1111  0.2201 -0.0572
29560W        W72472  23.370  34.066   9.547  0.1337  0.2915  0.1194
29561W        W72473  26.071  33.235   8.591 -0.2216  0.3051  0.2964
29562W        W72474  23.310  32.860   7.018 -0.0018 -0.0774 -0.1013
29563W        W72475  24.829  32.686   8.345  0.0584  0.2572  0.0850
29564W        W72476  25.579  33.516   8.565 -0.1674 -0.1168 -0.3645
29565W        W72477  25.746  33.799   6.738 -0.0774 -0.1876  0.0671
29566W        W72478  25.095  33.063   7.110  0.0972  0.0170  0.1401
29567W        W72479  25.002  32.705   7.474  0.1811 -0.3272  0.0793
29568W        W72480  24.913  33.360   9.262  0.1356 -0.2750  0.0815
29569W        W72481  23.400  34.208   7.153  0.1904 -0.2044  0.1213
29570W        W72482  24.361  33.177   7.768  0.1530  0.1307  0.3442
29571W        W72483  24.930  32.271   9.278 -0.0033 -0.1106  0.2115
29572W        W72484  25.098  33.216   8.368 -0.1336 -0.3197 -0.5422
29573W        W72485  24.084  32.275   7.626 -0.2738  0.0862  0.0244
29574W        W72486  25.670   0.072  10.042  0.0254 -0.2979  0.0505
29575W        W72487  23.906   0.702   7.656  0.1810 -0.0655 -0.3294
29576W        W72488  24.082  34.454   8.705 -0.2636  0.0552  0.2332
29577W        W72489  23.226  33.385   7.152 -0.1486 -0.1642 -0.1130
29578W        W72490  23.670  32.434   9.342  0.1201 -0.2128 -0.0222
29579W        W72491  25.573  32.068   9.220 -0.0694 -0.0198  0.0120
29580W        W72492  24.981  34.383   8.972  0.0547 -0.0411 -0.1485
29581W        W72493  22.986  32.724   8.801 -0.2103 -0.2121 -0.0702
29582W        W72494  25.599  33.006   8.352  0.4682 -0.1441 -0.3006
29583W        W72495  23.184  32.448   9.972  0.0216 -0.0261 -0.4118
29584W        W72496  24.367  33.416  10.128 -0.0280  0.1880  0.3279
29585W        W72497  24.427  33.663   8.040  0.2265  0.0348 -0.2195
29586W        W72498  21.681  32.481   6.782 -0.0469 -0.2791 -0.1944
29587W        W72499  25.807  31.946   9.618  0.0367 -0.0771  0.0336
29588W        W72500  24.337   0.274   8.924 -0.1110 -0.0629  0.2832
29589W        W72501  23.252  34.576   7.866 -0.0907  0.0941 -0.0200
29590W        W72502  24.893   0.364  10.116  0.0012  0.2179  0.1762
29591W        W72503  24.254  34.136   7.701  0.2131  0.1755 -0.0415
29592W        W72504  23.336  33.478   7.726 -0.1041  0.0332 -0.1228
29593W        W72505  23.882  34.009   8.561 -0.1340 -0.0712 -0.0815
29594W        W72506  22.697  33.895   8.958  0.1829  0.2956 -0.1069
29595W        W72507  24.198  33.821   9.773  0.2097 -0.2523 -0.1355
29596W        W72508  25.130  33.246   8.851 -0.0374 -0.0510  0.0009
29597W        W72509  24.771  32.928   7.887 -0.1230  0.1239 -0.0798
29598W        W72510  24.792  33.695   8.385  0.4075  0.2661  0.1797
29599W        W72511  23.125  33.101  10.137  0.4073  0.3979 -0.0467
29600W        W72512  24.058  34.563   7.242  0.2877 -0.0245  0.2169
29601W        W72513  23.630  32.652   8.149  0.2391  0.1933 -0.4711
29602W        W72514  22.257   1.788   8.364 -0.1369 -0.1421  0.0591
29603W        W72515  25.760   0.913   9.143  0.3599  0.0985  0.0302
29604W        W72516  22.472  33.395   9.201  0.2011 -0.0548  0.0301
29605W        W72517  26.087   0.188   9.211 -0.3515  0.2020 -0.0879
29606W        W72518  23.743  32.711   7.306 -0.1674  0.0204 -0.3925
29607W        W72519  26.423  34.055   9.610 -0.0988 -0.4917  0.1574
29608W        W72520  26.824  33.857   9.136 -0.0171  0.1459 -0.0107
29609W        W72521  25.231   0.120   8.847  0.0546 -0.0579 -0.2249
29610W        W72522  20.942  34.302   9.254 -0.4215  0.0681 -0.0181
29611W        W72523  21.507   0.071   7.254 -0.1755 -0.1935 -0.1341
29612W        W72524  26.433  34.596   7.602 -0.0725 -0.1281 -0.0055
29613W        W72525  22.068  32.509   9.313 -0.3570 -0.3963  0.0583
29614W        W72526  24.471  32.420   8.600  0.4433  0.0091  0.2877
29615W        W72527  23.605  34.447   8.586 -0.2704 -0.0877 -0.2021
29616W        W72528  23.231  32.471   6.373  0.1469  0.1410 -0.2458
29617W        W72529  24.013  33.663   7.704  0.0852 -0.1642 -0.0260
29618W        W72530  25.041  33.719   8.890 -0.2538 -0.2735 -0.1277
29619W        W72531  26.306   2.453   9.257 -0.0873  0.2722  0.1679
29620W        W72532  24.300   0.293   9.494 -0.1370 -0.0047  0.0761
29621W        W72533  23.224  33.870   9.077 -0.0128 -0.0046 -0.0942
29622W        W72534  23.463  31.623   7.711 -0.0189 -0.3165 -0.0469
29623W        W72535  23.899  33.087   6.480 -0.3089 -0.1797 -0.4869
29624W        W72536  25.912  32.001   7.725 -0.0799  0.0571  0.2033
29625W        W72537  25.725  34.022   8.578  0.2076 -0.2967 -0.0963
29626W        W72538  25.222  34.357   8.005  0.1872  0.2998 -0.1646
29627W        W72539  24.447  33.169   9.253 -0.0946 -0.1128  0.0546
29628W        W72540  24.085  33.458   6.747 -0.2222 -0.1257  0.0175
29629W        W72541  21.491  31.550   7.304 -0.0864  0.1956 -0.0239
29630W        W72542  23.611  33.703   8.093 -0.0362  0.3255 -0.2339
29631W        W72543  26.270  32.962   8.925  0.1764  0.2922 -0.1065
29632W        W72544  25.893  34.329   9.881 -0.0040 -0.0694  0.2094
29633W        W72545  22.357  32.049   7.658  0.1554 -0.2267 -0.0259
29634W        W72546  24.371   0.106   8.360 -0.0578  0.0992  0.2860
29635W        W72547  23.665  33.187   8.033 -0.1662 -0.4360  0.1697
29636W        W72548  22.639  32.913   9.444  0.0542  0.0483 -0.0816
29637W        W72549  25.917   0.441   8.696  0.5993  0.1624  0.0185
29638W        W72550  21.838  33.104   9.950 -0.0431  0.1306 -0.0912
29639W        W72551  25.257  33.102   7.676 -0.1812  0.2556 -0.4815
29640W        W72552  24.514  33.906   7.133 -0.1420  0.2929 -0.1130
29641W        W72553  23.773  32.168   7.988  0.1264  0.1742 -0.0187
29642W        W72554  24.648  33.297   7.376  0.1625 -0.0593 -0.0052
29643W        W72555  22.967  33.677   9.424  0.1791 -0.0963 -0.2784
29644W        W72556  23.852  34.304   9.693  0.3062 -0.1604 -0.0487
29645W        W72557  22.579  32.138   6.972 -0.1876 -0.3631 -0.2325
29646W        W72558  26.128  34.399   9.436  0.0931 -0.0691  0.0586
29647W        W72559  25.721   0.915   9.682  0.3814  0.0819  0.1863
29648W        W72560  20.437  31.933  10.241  0.1799 -0.0936  0.1297
29649W        W72561  24.649  33.404   8.806 -0.0597 -0.1070  0.2485
29650W        W72562  21.524  32.594   9.404 -0.1760 -0.1749  0.1076
29651W        W72563  25.213  33.971   8.414  0.2485 -0.0052  0.0919
29652W        W72564  25.159  34.399   9.424  0.1005 -0.1381  0.1431
29653W        W72565  24.576  32.854   7.179 -0.0801 -0.0683 -0.0675
29654W        W72566  24.854  33.436   7.882 -0.0399 -0.0322 -0.3079
29655W        W72567  23.742  33.088   6.971  0.2198  0.0148  0.1482
29656W        W72568  23.304  34.342   9.033  0.2193  0.1697  0.4247
29657W        W72569  22.604  34.025   7.568  0.1101  0.0650 -0.2350
29658W        W72570  22.705   0.015   9.539 -0.1386 -0.1494  0.3736
29659W        W72571  22.023  32.517   8.167 -0.2213 -0.0059 -0.1616
29660W        W72572  24.189  32.253   9.370 -0.1036  0.1504  0.0098
29661W        W72573  23.064  33.195   9.196  0.0265  0.0691 -0.0349
29662W        W72574  24.698  33.844   7.620  0.1426 -0.1050  0.3437
29663W        W72575  23.094  33.791   7.337 -0.0536  0.3302 -0.0330
29664W        W72576  23.147  32.856   9.617  0.1520 -0.0811  0.0458
29665W        W72577  23.126  32.459   9.244  0.1570  0.3644 -0.0864
29666W        W72578  24.675  34.631   8.713  0.1785  0.0309 -0.1771
29667W        W72579  25.671   0.430   9.084 -0.2396  0.0262  0.2310
29668W        W72580  24.009  32.851   8.543  0.4263  0.5134 -0.1227
29669W        W72581  25.307   0.210   9.410  0.1348 -0.2626  0.2622
29670W        W72582  22.101  33.755   9.999 -0.0352  0.0383  0.0210
29671W        W72583  24.129   0.669   9.108  0.0615  0.0678  0.2050
29672W        W72584  24.395  34.581   7.814 -0.2018 -0.2106  0.2792
29673W        W72585  25.356   0.826   6.259  0.0975 -0.0798  0.0906
29674W        W72586  23.413  33.372   9.580 -0.1776  0.1016  0.0720
29675W        W72587  23.192  33.388   8.254  0.1304  0.2913  0.0956
29676W        W72588  23.712  34.122   9.072 -0.0971 -0.1066  0.2492
29677W        W72589  25.319  32.620  10.021  0.0246  0.0603 -0.0133
29678W        W72590  23.807  33.292  10.361 -0.0823  0.1293  0.0220
29679W        W72591  25.053  33.527   7.437  0.0313  0.2368 -0.3468
29680W        W72592  27.030   3.825   3.092  0.1999 -0.1041  0.1492
29681W        W72593  26.384   0.790   0.724  0.0600  0.1165 -0.3838
29682W        W72594  28.579   1.214   2.020 -0.0578  0.3232  0.1153
29683W        W72595  28.990   2.073   0.520  0.0618 -0.0745 -0.2055
29684W        W72596  25.911   0.482   1.344  0.1485  0.0039 -0.0996
29685W        W72597  28.987   4.610   0.560  0.2325 -0.2888  0.1641
29686W        W72598  25.692   0.285   3.268  0.0667 -0.2613 -0.0100
29687W        W72599  28.349   3.822   2.218  0.0255  0.1776 -0.2206
29688W        W72600  29.178   3.296   2.651  0.0000  0.5299  0.4749
29689W        W72601  26.543   1.745  30.697 -0.0255  0.0811  0.1673
29690W        W72602  27.714   1.303   1.409  0.0141  0.1382  0.0405
29691W        W72603  28.555   3.371   2.963  0.2475  0.2298 -0.1227
29692W        W72604  27.668   0.671   1.320  0.0170  0.2202 -0.2556
29693W        W72605  25.155  32.814   1.489 -0.0119 -0.1251  0.1643
29694W        W72606  29.398   1.009   3.233 -0.3346  0.1143 -0.1253
29695W        W72607  24.910   1.229   2.084 -0.2688 -0.0863 -0.2035
29696W        W72608  25.919   0.807   0.938  0.1043  0.0780 -0.0437
29697W        W72609  28.519   1.738   1.202  0.0129  0.2557  0.0434
29698W        W72610  27.522   3.501   2.459  0.2060  0.4668 -0.2425
29699W        W72611  27.467   0.944   2.901  0.1800  0.1061  0.2591
29700W        W72612  27.868   1.276   2.711  0.1555  0.1980 -0.1038
29701W        W72613  29.287   3.394   0.838  0.0131  0.1976  0.1048
29702W        W72614  25.891   1.104  31.116  0.2068  0.1749  0.0466
29703W        W72615  26.309   0.276   0.404 -0.0829  0.1027  0.1082
29704W        W72616  27.239   2.804   4.013 -0.0803 -0.0359 -0.0879
29705W        W72617  29.114  34.495   2.644 -0.0714  0.0273  0.0444
29706W        W72618  29.077   1.727   2.645 -0.0366  0.0248 -0.2066
29707W        W72619  27.557   4.563   1.525  0.0867 -0.0066  0.0137
29708W        W72620  28.040   4.347   2.577  0.0746 -0.1160  0.6094
29709W        W72621  28.910   1.281   2.403  0.2731  0.3718 -0.0786
29710W        W72622  25.400   2.699   1.643  0.1899 -0.0892  0.0707
29711W        W72623  26.904   4.074   1.875  0.0183 -0.1093  0.1129
29712W        W72624  25.962   2.042   1.550  0.1123  0.1981  0.3425
29713W        W72625  27.146   3.451  31.962 -0.2276  0.1144 -0.1298
29714W        W72626  27.837   1.676   2.411 -0.0399 -0.0345  0.4159
29715W        W72627  27.486   3.356   3.847  0.0086 -0.1427  0.1912
29716W        W72628  26.153   1.704   0.649 -0.0854 -0.2542 -0.0844
29717W        W72629  27.773   3.033   4.049 -0.0577  0.1066 -0.2174
29718W        W72630  26.872   2.748   1.442  0.1333  0.3168 -0.0733
29719W        W72631  27.675   1.395   3.969  0.1970 -0.1802  0.0172
29720W        W72632  27.616   2.308   1.316  0.0330 -0.2809  0.0694
29721W        W72633  27.365   4.109   0.537  0.1405 -0.2258  0.1498
29722W        W72634  26.757   1.877   0.630 -0.1174  0.0091 -0.4381
29723W        W72635  27.220   3.232   4.953  0.0677 -0.4345  0.0068
29724W        W72636  25.688   3.491   1.889 -0.0836  0.1064  0.0123
29725W        W72637  28.463   2.407   3.870 -0.1724  0.0127 -0.3408
29726W        W72638  26.423   3.194   1.063  0.0294  0.0404 -0.2186
29727W        W72639  28.075   1.899   1.251 -0.0514 -0.3290 -0.2379
29728W        W72640  27.026   2.197  31.423  0.1200 -0.0027  0.0411
29729W        W72641  28.958   1.668   0.789  0.0104 -0.0812  0.2760
29730W        W72642  26.780   0.571   1.119  0.1916  0.0216  0.1753
29731W        W72643  27.881   4.290   0.782  0.0801 -0.0880 -0.2214
29732W        W72644  27.030   1.321   1.303 -0.2253 -0.0737  0.0151
29733W        W72645  28.500   3.358   2.480 -0.3726 -0.2443  0.0697
29734W        W72646  27.681   2.572   0.432 -0.3068 -0.2027  0.1708
29735W        W72647  28.794   0.924   3.255 -0.2637  0.1901 -0.0224
29736W        W72648  24.982   3.785   3.011 -0.0375  0.0483 -0.2591
29737W        W72649  27.800   0.973   0.972 -0.0686 -0.1419 -0.2018
29738W        W72650  29.571   1.716   1.401  0.0472  0.1350  0.1954
29739W        W72651  30.150   2.403   1.408  0.0203  0.1814  0.1875
29740W        W72652  28.093   2.889   0.590  0.0422  0.0815  0.3553
29741W        W72653  26.003   1.949  31.703  0.0074  0.0341  0.1075
29742W        W72654  26.218   2.419   3.406  0.1826  0.3150  0.1318
29743W        W72655  25.927   2.123   3.072 -0.0495 -0.1287  0.1225
29744W        W72656  27.598   0.096   0.128 -0.2465  0.0951  0.0152
29745W        W72657  28.557   2.569   1.795  0.0552 -0.4765  0.0810
29746W        W72658  26.508   2.705   3.213  0.1742  0.0093  0.0242
29747W        W72659  28.035   0.397   2.150 -0.1409 -0.2804  0.0941
29748W        W72660  27.311   3.054   2.392  0.1771  0.1918 -0.0061
29749W        W72661  28.326   2.866   2.498 -0.3212 -0.0045 -0.1545
29750W        W72662  28.623   3.303  31.222  0.2410  0.1602  0.1866
29751W        W72663  28.012   0.450   1.586  0.2211 -0.0606 -0.3180
29752W        W72664  28.311   1.036   2.414  0.2142 -0.0498 -0.2818
29753W        W72665  26.137   2.033   0.224 -0.1040 -0.0204 -0.4499
29754W        W72666  26.766   2.491   0.455 -0.0736  0.2627 -0.0029
29755W        W72667  27.169   2.248   1.456  0.1209  0.2412 -0.4398
29756W        W72668  28.769   2.178   0.133 -0.0253  0.1775  0.0842
29757W        W72669  26.032   3.986   3.368  0.1343  0.3567 -0.2699
29758W        W72670  27.444   1.778   2.153 -0.1201  0.0176  0.0693
29759W        W72671  27.287   1.715   3.183  0.0464 -0.1585 -0.0893
29760W        W72672  25.420   2.989   0.219  0.0758  0.1166  0.0246
29761W        W72673  25.786   2.830   2.684  0.1293  0.0657  0.2991
29762W        W72674  25.369   3.139   0.675 -0.1125  0.1059 -0.1202
29763W        W72675  25.006   0.422   3.003  0.1627 -0.1868 -0.1078
29764W        W72676  27.524   3.821   2.823 -0.0671 -0.3462 -0.1214
29765W        W72677  28.445  34.661   0.236  0.0112  0.2146 -0.2067
29766W        W72678  26.213   0.360   1.773 -0.0954 -0.0984  0.0025
29767W        W72679  27.159   1.141   3.272  0.1815  0.2336  0.0094
29768W        W72680  27.253   3.805   2.119  0.0478  0.0352 -0.0396
29769W        W72681  27.837   4.027   0.277  0.0171 -0.2369 -0.0110
29770W        W72682  28.515   1.409   0.822  0.2540  0.3119  0.0906
29771W        W72683  29.206   1.773   0.031  0.1461  0.2018  0.0245
29772W        W72684  26.078   1.554   2.457  0.1537 -0.0483 -0.0441
29773W        W72685  25.661   1.212   1.102 -0.1659 -0.2087  0.0076
29774W        W72686  27.560   1.267   2.267  0.1470 -0.0723 -0.0373
29775W        W72687  26.493   1.342   2.160 -0.1725  0.1108 -0.2119
29776W        W72688  29.443   1.542   2.243  0.0898  0.2622 -0.0275
29777W        W72689  25.995   0.364   0.798  0.0195  0.2524 -0.0563
29778W        W72690  28.666   0.709   2.737 -0.3455  0.1163 -0.4583
29779W        W72691  28.077   1.670   3.029 -0.0443 -0.0990 -0.0631
29780W        W72692  25.125   2.719   0.521 -0.3345 -0.0186  0.4097
29781W        W72693  28.459   0.437   3.605  0.0626 -0.0682 -0.1156
29782W        W72694  26.527   4.413   0.261 -0.1013 -0.3075  0.0095
29783W        W72695  28.682   3.006   2.082 -0.0022  0.1560 -0.1907
29784W        W72696  29.198   3.633   0.420  0.3016  0.0266 -0.3769
29785W        W72697  26.932   2.285   2.559  0.7059 -0.0699  0.1265
29786W        W72698  26.855  34.160   0.629 -0.1651 -0.3009 -0.0515
29787W        W72699  25.720   3.777   0.011  0.1156  0.1032  0.1313
29788W        W72700  27.075   3.495   1.787 -0.1475 -0.1449  0.4159
29789W        W72701  26.131   0.068  31.796 -0.2015 -0.1804 -0.0975
29790W        W72702  29.010   3.463   1.217 -0.0133 -0.2068  0.1766
29791W        W72703  27.169   2.660   0.154  0.2679  0.3889 -0.0878
29792W        W72704  25.892   3.180   2.304 -0.1685 -0.1901  0.1268
29793W        W72705  29.303   0.539   3.214 -0.1487  0.0148 -0.0782
29794W        W72706  28.931   1.613   3.342 -0.2796  0.2188  0.3645
29795W        W72707  28.832   0.771   2.143 -0.0177  0.0286 -0.1046
29796W        W72708  26.256  33.500   0.694  0.0573 -0.0524 -0.2167
29797W        W72709  28.157   3.690   0.109 -0.0835  0.0058 -0.0197
29798W        W72710  26.582   4.247   0.810  0.0394  0.3330 -0.0805
29799W        W72711  25.595   1.039   1.659 -0.0734 -0.1580  0.2731
29800W        W72712  27.702   2.650   2.097  0.2393  0.0087 -0.4383
29801W        W72713  28.502   1.488   2.471 -0.0785 -0.1860 -0.1648
29802W        W72714  24.213   2.976   5.984 -0.0409  0.1818  0.2784
29803W        W72715  27.417   1.780   4.159  0.0936  0.2334 -0.3294
29804W        W72716  26.121   0.636   0.024 -0.0500  0.0110  0.1230
29805W        W72717  26.097   2.557   2.941 -0.0054  0.3159 -0.0814
29806W        W72718  27.487   0.537   0.844  0.1212 -0.0064 -0.0815
29807W        W72719  27.319   0.346   0.415 -0.0612 -0.0688  0.1875
29808W        W72720  28.012   0.997   3.923 -0.1154 -0.3056 -0.2236
29809W        W72721  28.600   2.095   2.002 -0.0320  0.1974 -0.4007
29810W        W72722  28.965   1.383  31.508  0.2532 -0.0871 -0.0803
29811W        W72723  28.969   0.649   0.273 -0.1882 -0.1051  0.0516
29812W        W72724  26.189   2.045   2.547 -0.1951 -0.2673 -0.0239
29813W        W72725  27.569   3.135   1.965 -0.0810 -0.1282 -0.0989
29814W        W72726  27.539   3.583   1.659 -0.2419 -0.0093 -0.0218
29815W        W72727  27.621   2.431  31.946 -0.2074 -0.5799  0.0900
29816W        W72728  28.567   2.602   0.068  0.3368 -0.2836  0.0016
29817W        W72729  27.024   2.032   2.128 -0.3189  0.0846  0.4457
29818W        W72730  27.238   2.507   3.489  0.1903 -0.1727 -0.3455
29819W        W72731  29.014   3.739   1.700  0.1454  0.3510  0.0303
29820W        W72732  26.580  34.494   2.752 -0.1838 -0.1898  0.1969
29821W        W72733  27.080   1.764   1.039 -0.1493 -0.2438 -0.0376
29822W        W72734  27.536   0.415   2.260  0.0459  0.0940  0.0901
29823W        W72735  24.833   2.657   0.069 -0.0311  0.0537  0.3314
29824W        W72736  27.598   1.044   3.586  0.1484  0.1782  0.4174
29825W        W72737  27.601   0.197   3.553  0.0457 -0.1236 -0.0873
29826W        W72738  26.719   0.839   2.504 -0.2838 -0.4082 -0.2576
29827W        W72739  28.679   1.095   4.613 -0.0195 -0.0915  0.5168
29828W        W72740  28.586   0.958   1.514 -0.0065  0.0600 -0.0009
29829W        W72741  28.210   1.959  31.576  0.1753  0.2602  0.1906
29830W        W72742  27.370   1.362   0.247 -0.2403 -0.2805  0.1060
29831W        W72743  26.337   1.321   3.230  0.1797 -0.0097 -0.0352
29832W        W72744  25.424   2.353   2.558  0.0178 -0.2658  0.2185
29833W        W72745  26.880   4.158   3.523  0.0072 -0.1205 -0.2679
29834W        W72746  29.021   2.607   2.943 -0.2492  0.1042 -0.2147
29835W        W72747  27.244   2.639   1.163 -0.0628 -0.1053  0.3997
29836W        W72748  28.056   0.326   3.135 -0.2408 -0.0109  0.0599
29837W        W72749  27.160   0.409   1.418 -0.0451 -0.4561  0.0783
29838W        W72750  26.250   3.136   0.126  0.1029  0.1528 -0.1544
29839W        W72751  27.934   3.702   1.956  0.3107  0.2330 -0.0679
29840W        W72752  25.642  34.238   1.388 -0.1024 -0.1356  0.1888
29841W        W72753  26.187   3.089   2.754  0.6425 -0.1366 -0.1488
29842W        W72754  25.890   2.890  31.933 -0.1583 -0.1077  0.0655
29843W        W72755  28.361   1.161   2.892 -0.0700 -0.0519 -0.1717
29844W        W72756  26.342   1.950   1.246  0.2797  0.0562 -0.1562
29845W        W72757  28.137   1.397   1.629 -0.2598  0.2796  0.1235
29846W        W72758  25.691   1.920   2.374  0.0428 -0.0889 -0.1053
29847W        W72759  26.730   1.063   0.988 -0.0811 -0.0517 -0.0410
29848W        W72760  25.187   1.492   0.723  0.1524 -0.1282  0.4446
29849W        W72761  29.725   0.291   2.269  0.2726  0.3883 -0.1459
29850W        W72762  28.124   2.458   1.260  0.3085 -0.1670  0.3306
29851W        W72763  27.080   0.576   2.883 -0.0719  0.1671  0.1677
29852W        W72764  26.336   0.670   1.243  0.4683  0.3979 -0.0816
29853W        W72765  25.734   3.292   2.878  0.0662 -0.0771  0.4643
29854W        W72766  28.618   1.714   2.970 -0.2196  0.1553  0.2001
29855W        W72767  26.657  34.533   0.061 -0.0229 -0.0104  0.2935
29856W        W72768  28.803   2.161   1.043 -0.0170  0.0733  0.2805
29857W        W72769  26.734   3.148   3.034 -0.0722  0.2478 -0.3552
29858W        W72770  25.801   0.310   0.262  0.1671 -0.2706 -0.0965
29859W        W72771  30.286   1.420   3.848 -0.0254  0.0873  0.1137
29860W        W72772  26.200   1.239   1.016 -0.0740 -0.1597 -0.1019
29861W        W72773  26.122   3.535   2.585  0.1077  0.4185  0.3652
29862W        W72774  28.488   3.820   2.666 -0.0649 -0.0888 -0.1010
29863W        W72775  25.950   2.203   0.659  0.0247  0.2956 -0.0385
29864W        W72776  26.024   2.875   0.575 -0.1489  0.0079  0.0342
29865W        W72777  26.419   1.663   3.887  0.1208 -0.2465  0.1923
29866W        W72778  28.432   2.454   2.739  0.1308  0.1316  0.0787
29867W        W72779  27.340   1.411   1.736  0.2014  0.1210 -0.1964
29868W        W72780  26.737  34.153   1.408 -0.1180  0.1716 -0.0956
29869W        W72781  27.417   3.098   1.470  0.3812 -0.1322 -0.0124
29870W        W72782  29.047   2.718   1.680 -0.0844  0.0715 -0.0458
29871W        W72783  27.533   1.807   1.340 -0.3110  0.0131 -0.2398
29872W        W72784  27.909   2.447   2.705 -0.0393  0.0648  0.3197
29873W        W72785  26.381   0.975   1.848 -0.1553  0.1617  0.0322
29874W        W72786  27.558   4.012   1.260 -0.0314 -0.0303 -0.1883
29875W        W72787  28.990   1.323   3.745  0.2201 -0.2591  0.1880
29876W        W72788  26.297   2.540   0.299 -0.0026  0.1147 -0.1972
29877W        W72789  24.632   2.760   2.685  0.2263 -0.2220  0.2288
29878W        W72790  26.532   2.951   0.534  0.1356  0.2314 -0.1326
29879W        W72791  27.618   1.358   3.210  0.0419 -0.0497 -0.1314
29880W        W72792  26.923   3.366   2.271 -0.1069  0.0537  0.0212
29881W        W72793  26.665   2.085   0.165  0.0228  0.1785 -0.1068
29882W        W72794  25.534   3.862   3.240  0.0046 -0.1267 -0.0285
29883W        W72795  28.295   0.266   0.702  0.0462  0.2360  0.0567
29884W        W72796  27.993   1.361   0.697 -0.1328  0.0234 -0.1167
29885W        W72797  27.192   0.882   1.048 -0.0860 -0.0160  0.0811
29886W        W72798  29.096   1.227   1.804 -0.0195  0.1733  0.0787
29887W        W72799  28.768   1.680   0.362 -0.1421 -0.1350 -0.0348
29888W        W72800  27.991   0.624   3.537 -0.1006  0.0510 -0.0658
29889W        W72801  26.843   0.202   3.079  0.1476 -0.2440  0.1602
29890W        W72802  27.846   3.253   1.239  0.0524  0.0648 -0.1272
29891W        W72803  26.678   1.337   3.617  0.2849 -0.1753  0.1401
29892W        W72804  29.070   3.601   5.290 -0.2042 -0.1323  0.2125
29893W        W72805  25.954   1.938   3.776  0.0420  0.1400  0.0066
29894W        W72806  26.920   0.273  31.973  0.1704  0.1482 -0.2573
29895W        W72807  24.452   0.994   2.384  0.2837 -0.0888  0.1967
29896W        W72808  28.236   2.413   2.261 -0.2087 -0.2520 -0.0164
29897W        W72809  28.013   1.275   2.101 -0.3991 -0.3529  0.0226
29898W        W72810  28.374   1.907   0.076  0.0086  0.1249  0.2155
29899W        W72811  28.178   0.883   0.612  0.2600  0.1909 -0.0693
29900W        W72812  26.195   1.718   1.995 -0.1476  0.1447  0.0989
29901W        W72813  28.613   1.621   1.690  0.0834  0.0689 -0.0939
29902W        W72814  27.170   2.167  31.930  0.1020 -0.0562  0.0268
29903W        W72815  25.193   2.740   2.453  0.1120 -0.1107  0.0185
29904W        W72816  26.512   1.333   2.641 -0.2448  0.0069  0.0460
29905W        W72817  27.986   4.916   3.781  0.0035  0.0591 -0.0050
29906W        W72818  27.449   2.169   0.918 -0.0023  0.0525  0.2799
29907W        W72819  27.009   1.203   2.680 -0.1495  0.0764  0.1759
29908W        W72820  28.455   1.389   3.906 -0.1292  0.0051  0.1547
29909W        W72821  25.549   2.212   5.032 -0.1341  0.0493 -0.3182
29910W        W72822  25.680   0.488   3.775  0.1086 -0.1637  0.1952
29911W        W72823  28.157   2.357   3.134 -0.0997  0.0933  0.1791
29912W        W72824  27.886   1.138   0.238  0.0528 -0.1140  0.0295
29913W        W72825  28.499   2.074   3.346  0.1244 -0.0719 -0.0450
29914W        W72826  29.095   1.518   1.377  0.0551  0.3104  0.0559
29915W        W72827  27.651   2.077   0.456  0.0084  0.2631  0.0741
29916W        W72828  26.612   1.840   2.385  0.0445  0.0438  0.0939
29917W        W72829  27.787   3.032   6.121 -0.1962  0.1144 -0.0197
29918W        W72830  26.781   0.232   0.437 -0.0130 -0.0776 -0.1317
29919W        W72831  27.516   2.071   3.725  0.0653 -0.0470 -0.0019
29920W        W72832  28.141   3.335   1.645  0.2086  0.0313  0.2385
29921W        W72833  28.429   2.159   1.491 -0.0507 -0.2234  0.0974
29922W        W72834  27.062   3.030   0.453  0.2691  0.0625  0.0308
29923W        W72835  25.729  34.284   2.035  0.0759 -0.0252  0.3033
29924W        W72836  26.473   4.422   5.137  0.2556 -0.5039 -0.4404
29925W        W72837  27.708   0.134   0.759 -0.1384 -0.4850  0.3352
29926W        W72838  27.007   2.965  31.665  0.0901  0.1351  0.1634
29927W        W72839  27.774   3.016   2.548 -0.3363 -0.0110 -0.2918
29928W        W72840  28.872   2.781   5.527 -0.1398 -0.0869 -0.1700
29929W        W72841  28.550   0.928   0.084 -0.1132 -0.0005 -0.1460
29930W        W72842  29.017   1.027   4.174  0.1257  0.2201 -0.0034
29931W        W72843  25.590   1.829   0.612  0.3425 -0.0077  0.2325
29932W        W72844  28.281   0.842   1.886 -0.0339 -0.0709 -0.0183
29933W        W72845  27.422   3.778   4.222  0.0565  0.0887 -0.0524
29934W        W72846  26.506   3.818   3.424 -0.0105 -0.2151  0.1969
29935W        W72847  26.798   1.869   1.417 -0.0432 -0.1761 -0.3003
29936W        W72848  27.856   2.122   2.209 -0.0940  0.1066 -0.1222
29937W        W72849  27.846   1.881   1.751  0.3193 -0.1081 -0.2761
29938W        W72850  26.161   2.766   2.283  0.0592 -0.0625  0.1040
29939W        W72851  28.760   2.508   2.269 -0.3270  0.0716 -0.1006
29940W        W72852  27.507   3.161   2.937 -0.0389  0.0514  0.0784
29941W        W72853  25.547   2.238   2.023  0.0467 -0.4112 -0.1269
29942W        W72854  28.164   3.734   3.552 -0.0125  0.1452  0.0336
29943W        W72855  27.840   2.804   1.528  0.0576 -0.1563 -0.4675
29944W        W72856  27.674   3.892   3.758  0.0021 -0.0256  0.1410
29945W        W72857  26.259   3.553   3.106  0.0024  0.2619 -0.1430
29946W        W72858  27.388   2.692   4.779 -0.2790 -0.2971 -0.1436
29947W        W72859  27.249   2.605   0.675  0.1307  0.0931 -0.4019
29948W        W72860  26.428   0.187   0.988 -0.1162  0.2344  0.1253
29949W        W72861  27.677   2.991   0.189 -0.2804  0.2916  0.1548
29950W        W72862  26.389   4.478   3.387 -0.1318 -0.0939 -0.1111
29951W        W72863  26.257   1.709   2.892 -0.1826  0.1880  0.0163
29952W        W72864  26.175   3.332   0.587 -0.0037 -0.2807 -0.3145
29953W        W72865  28.847   3.074   0.822 -0.2587 -0.0583 -0.1280
29954W        W72866  26.942   2.280   0.965 -0.3722 -0.0815  0.1893
29955W        W72867  28.842   3.685   2.274  0.2989  0.0698 -0.3161
29956W        W72868  27.491   0.936   0.551  0.1333 -0.1038  0.0168
29957W        W72869  27.187   2.576   2.223  0.2731  0.2108 -0.0975
29958W        W72870  25.391   4.041   0.328  0.1255  0.2012 -0.1555
29959W        W72871  28.810   3.540   0.102  0.4194  0.3042 -0.2442
29960W        W72872  26.615   2.344   1.377 -0.0680  0.3394 -0.2073
29961W        W72873  29.481   3.254   3.447  0.0022  0.0537  0.3895
29962W        W72874  29.585  33.146  31.855  0.0538  0.2598 -0.0461
29963W        W72875  29.046   2.253   1.949  0.1936  0.1379 -0.3414
29964W        W72876  29.809   1.300   1.283  0.0975 -0.1437  0.0165
29965W        W72877  28.407   3.267   3.420 -0.0133  0.2805  0.0273
29966W        W72878  28.194   2.025   2.748 -0.1257 -0.1185  0.0671
29967W        W72879  27.889   2.028   0.009 -0.0319 -0.2030 -0.1928
29968W        W72880  26.033   2.760   5.371  0.1222 -0.1102  0.0193
29969W        W72881  29.308  34.262   3.567 -0.1110 -0.1043  0.1617
29970W        W72882  25.708   3.418   3.606 -0.0771 -0.1700  0.2389
29971W        W72883  29.621   4.171  31.893  0.2080  0.3508 -0.1454
29972W        W72884  26.866   1.646   1.875  0.0459 -0.0315  0.0125
29973W        W72885  26.493   2.077   1.801  0.0491  0.3044 -0.0698
29974W        W72886  28.686   1.832   3.742 -0.0984 -0.0988 -0.3626
29975W        W72887  27.547   2.049  31.524 -0.1756 -0.2363  0.3205
29976W        W72888  27.768   2.675   0.948  0.2631 -0.0335  0.1994
29977W        W72889  27.667   4.022   2.320  0.0653 -0.3062 -0.0017
29978W        W72890  28.107   2.811   1.939  0.2087 -0.1780  0.1732
29979W        W72891  27.496   4.788   3.938 -0.2238  0.0545  0.1815
29980W        W72892  24.647  34.112   0.292  0.2712  0.4253  0.0646
29981W        W72893  28.923   2.089   3.045  0.1715  0.0579  0.1687
29982W        W72894  25.577   1.259   2.362 -0.3924 -0.1475 -0.0512
29983W        W72895  27.225  33.929   3.653  0.1581 -0.1614  0.2084
29984W        W72896  25.926   3.060   1.078 -0.1072  0.1916  0.0023
29985W        W72897  28.458   0.534   1.186 -0.1905 -0.1787  0.3189
29986W        W72898  27.449   2.241   1.916 -0.1440 -0.1283 -0.3448
29987W        W72899  26.879   2.433   1.846  0.1528  0.1675  0.1601
29988W        W72900  27.455   1.824   0.063  0.2401  0.0273  0.1494
29989W        W72901  27.976   1.381   3.569  0.1556  0.0259  0.2495
29990W        W72902  28.143   2.424   0.357  0.2359 -0.3683 -0.0556
29991W        W72903  28.710   2.852   3.688 -0.0699  0.0017  0.0355
29992W        W72904  24.410  33.496   2.136  0.1131  0.1329 -0.0070
29993W        W72905  28.337   1.431   0.187 -0.0451 -0.0727  0.1734
29994W        W72906  28.242   1.702   2.027 -0.1232  0.2085  0.1927
29995W        W72907  25.714   1.789   3.355 -0.2357  0.0659 -0.1282
29996W        W72908  27.762   1.811   3.336 -0.1087 -0.0296 -0.0048
29997W        W72909  24.952  33.986   0.754 -0.0030 -0.0919  0.0395
29998W        W72910  27.913   2.748  31.649 -0.4346  0.2167 -0.1526
29999W        W72911  29.313   1.835   1.832  0.0965  0.0950 -0.2666
30000W        W72912  25.352   3.552   0.236  0.0465 -0.2980  0.0198
30001W        W72913  26.869   2.861   0.889 -0.1495  0.2541  0.2914
30002W        W72914  28.550   4.559   1.464 -0.2974  0.0219 -0.2201
30003W        W72915  26.206  34.485   2.165  0.0207  0.0872 -0.1226
30004W        W72916  27.160   4.593   1.833 -0.2558 -0.0661  0.0323
30005W        W72917  28.749   2.958   2.752  0.2234  0.1912 -0.1496
30006W        W72918  27.417  34.013  31.895 -0.0168 -0.2976 -0.1002
30007W        W72919  26.806   2.919   2.121 -0.0410  0.0843  0.2740
30008W        W72920  25.733   2.698   1.279 -0.0685  0.0310  0.1339
30009W        W72921  29.067   0.001   1.775  0.0106  0.1119  0.1011
30010W        W72922  29.448   0.439   4.358 -0.0092  0.0933  0.0134
30011W        W72923  26.869   3.870   0.310 -0.0212  0.1860 -0.1174
30012W        W72924  28.955   0.521   4.005 -0.1573 -0.1274 -0.2867
30013W        W72925  28.007   3.828   2.635 -0.4057  0.1322  0.0732
30014W        W72926  25.713   3.185   4.701 -0.3433 -0.2661  0.1043
30015W        W72927  27.444   1.306   0.866 -0.2847 -0.1718  0.1095
30016W        W72928  27.658   1.975   2.814  0.3835  0.5072  0.0672
30017W        W72929  27.134   3.837   1.410 -0.0518  0.0608 -0.1579
30018W        W72930  27.141   4.326   1.405  0.1036  0.3577 -0.1599
30019W        W72931  28.650   3.006   1.564  0.1054 -0.1084 -0.0767
30020W        W72932  27.202   1.178  31.794  0.3129 -0.2707 -0.0498
30021W        W72933  28.864   2.501   0.713 -0.1101  0.0460  0.1936
30022W        W72934  27.185   0.618   1.985  0.4686  0.1378 -0.1750
30023W        W72935  30.292   0.385   1.752  0.1488 -0.1434 -0.0494
30024W        W72936  28.511   0.489   0.332 -0.0545  0.1868 -0.2712
30025W        W72937  26.510   2.717   2.695  0.2271  0.0678  0.2225
30026W        W72938  25.218   1.788   0.208  0.0386 -0.1457  0.4263
30027W        W72939  25.848   2.663  31.221 -0.1412 -0.2991 -0.0787
30028W        W72940  27.004   2.618   3.047  0.1455 -0.0178 -0.5145
30029W        W72941  27.194   0.628   4.049  0.0446  0.1322  0.1614
30030W        W72942  25.794   1.289   3.225  0.0982  0.3975  0.5025
30031W        W72943  24.963   1.632   3.610  0.2841  0.1733 -0.2140
30032W        W72944  26.043   0.295   2.326 -0.2088  0.2371 -0.0406
30033W        W72945  29.253   3.576  31.916 -0.0548  0.2236  0.1920
30034W        W72946  27.752   0.990   1.811 -0.1988  0.2598 -0.1121
30035W        W72947  26.062   1.556   1.512  0.2604  0.1465 -0.0547
30036W        W72948  27.961   3.710   1.348 -0.1599 -0.0202  0.1119
30037W        W72949  28.234   2.966   1.216  0.2657 -0.0522 -0.0026
30038W        W72950  26.701   0.624   1.687  0.1151 -0.1927  0.1743
30039W        W72951  28.591   2.777   4.226  0.0806 -0.0786 -0.0440
30040W        W72952  25.595   2.411  30.800  0.1778 -0.2601  0.2501
30041W        W72953  27.298   1.558   3.690 -0.0399  0.0454  0.2105
30042W        W72954  27.628   0.424   2.819 -0.0322 -0.1274  0.1128
30043W        W72955  26.031   0.634  31.480 -0.0298  0.0472 -0.2624
30044W        W72956  28.018   2.358   1.757  0.1148 -0.0894  0.1011
30045W        W72957  27.072   5.138   0.389  0.0171 -0.1002  0.2267
30046W        W72958  28.514   2.167   0.569  0.2565  0.0019 -0.1988
30047W        W72959  27.474   2.240   2.447 -0.0666 -0.1699  0.0507
30048W        W72960  27.402   4.685   3.419  0.1428  0.0769  0.2373
30049W        W72961  26.128  34.692   3.520  0.1263  0.2385 -0.1961
30050W        W72962  28.851   1.149   1.112  0.3862  0.0421  0.1190
30051W        W72963  26.781   3.024   3.964  0.1481  0.1599  0.2219
30052W        W72964  28.606   2.638   1.203  0.0677 -0.0838  0.0130
30053W        W72965  28.652   0.437   1.744 -0.1846 -0.0285  0.0168
30054W        W72966  28.746   1.711  31.824  0.1826  0.2078  0.0204
30055W        W72967  25.318   0.524   3.376  0.1988 -0.3057  0.3665
30056W        W72968  26.780   2.280   3.369 -0.2398 -0.2008  0.0151
30057W        W72969  29.307   4.491   1.486 -0.2849  0.3361 -0.0258
30058W        W72970  25.455   0.751   0.113 -0.0911 -0.1957 -0.2110
30059W        W72971  28.905   1.696   2.112  0.0988  0.0536 -0.0647
30060W        W72972  27.324   4.486   0.981 -0.0907 -0.1935  0.1010
30061W        W72973  25.689   1.739   1.902 -0.0691 -0.0422 -0.2904
30062W        W72974  27.299   1.717   0.595 -0.2752  0.0277  0.2068
30063W        W72975  27.076   1.519   2.305  0.1809 -0.1832  0.0196
30064W        W72976  28.118   4.144   1.909 -0.1340  0.0841 -0.0201
30065W        W72977  28.154   2.844   4.483 -0.1066  0.2073  0.1227
30066W        W72978  26.921   1.395   0.625  0.2809 -0.2619 -0.2791
30067W        W72979  30.546   2.074   1.379  0.0755  0.1900 -0.0693
30068W        W72980  26.436   3.902   4.273 -0.0509  0.1440 -0.0717
30069W        W72981  27.986   3.321   3.020  0.1384  0.3281 -0.0218
30070W        W72982  27.508   5.642   4.381  0.2583 -0.1118  0.3614
30071W        W72983  29.277   2.780   0.824  0.0730  0.0402  0.0061
30072W        W72984  25.562   0.716   2.981 -0.3774  0.1073  0.1095
30073W        W72985  27.161   2.156   0.401  0.1058  0.3480  0.1121
30074W        W72986  27.367   2.654   1.710 -0.1458  0.0582  0.1651
30075W        W72987  29.312   1.010   2.222 -0.2220 -0.0371 -0.1343
30076W        W72988  26.023   0.990   1.477  0.1229  0.0665 -0.1184
30077W        W72989  29.619   0.396   0.878 -0.2343  0.1885 -0.4235
30078W        W72990  25.997   2.981   3.248  0.1831 -0.0728  0.0261
30079W        W72991  27.431   3.051   0.892 -0.1288  0.0252  0.1899
30080W        W72992  25.827   2.337   6.995  0.0283 -0.3982  0.0168
30081W        W72993  25.749   2.145   4.204 -0.0675  0.0388 -0.1197
30082W        W72994  28.597   0.924   3.885 -0.0096  0.0069 -0.2460
30083W        W72995  28.175   3.247   4.841  0.0304  0.2310 -0.1244
30084W        W72996  25.314   2.085   4.538 -0.2040  0.3245 -0.1260
30085W        W72997  28.253   1.667   6.021 -0.0575  0.2679  0.1062
30086W        W72998  26.506   0.299   6.864 -0.2421  0.0182  0.2218
30087W        W72999  27.638   2.002   5.592 -0.1915 -0.2021  0.1243
30088W        W73000  28.787   3.072   6.533 -0.1072  0.2219 -0.0031
30089W        W73001  27.753   2.811   3.155  0.1235 -0.2264  0.1817
30090W        W73002  27.103   0.624   6.134 -0.1566  0.0942  0.2830
30091W        W73003  27.003   1.617   5.681  0.4178 -0.1759  0.1923
30092W        W73004  27.573  34.618   5.276 -0.1512 -0.1670  0.0412
30093W        W73005  26.446   0.607   5.692  0.1724 -0.1546  0.0428
30094W        W73006  29.055   1.220   6.383  0.0936  0.1477  0.1180
30095W        W73007  24.368   2.643   5.519 -0.2116  0.4198 -0.0539
30096W        W73008  26.559   2.349   4.756 -0.0424 -0.2370 -0.0089
30097W        W73009  28.026   2.498   4.079 -0.0380 -0.1428 -0.0330
30098W        W73010  26.707   3.602   5.296  0.3639  0.3206 -0.0233
30099W        W73011  27.520   0.041   6.882 -0.2460 -0.1806 -0.1122
30100W        W73012  27.691   0.688   7.794  0.0473  0.1105 -0.2108
30101W        W73013  27.621   3.577   5.903 -0.0415 -0.0465  0.1881
30102W        W73014  26.950   0.768   3.500 -0.0575  0.0310  0.2295
30103W        W73015  25.897   0.787   6.370  0.1627 -0.1626 -0.1060
30104W        W73016  25.747   1.409   7.053  0.0419 -0.0017 -0.0804
30105W        W73017  27.910   0.532   6.723 -0.2344 -0.1246  0.2326
30106W        W73018  28.154   1.874   4.632 -0.1748  0.0181  0.0573
30107W        W73019  26.287   2.395   6.619  0.1831  0.0167 -0.1312
30108W        W73020  27.027   2.845   5.434 -0.0676  0.1376 -0.0402
30109W        W73021  29.120   2.341   7.007  0.1279 -0.1273 -0.0992
30110W        W73022  25.740   1.812   4.681 -0.2457 -0.3338 -0.0298
30111W        W73023  26.971   5.192   5.106 -0.1334  0.0139 -0.3069
30112W        W73024  26.684   3.353   4.860  0.1522  0.2214 -0.0697
30113W        W73025  29.928   2.592   5.276  0.3878 -0.0085 -0.2352
30114W        W73026  28.729   3.822   7.327 -0.3185  0.0724 -0.0669
30115W        W73027  27.140   3.972   7.103 -0.4783  0.0734 -0.0015
30116W        W73028  26.432   3.201   2.309 -0.1865  0.0301 -0.0389
30117W        W73029  26.406   3.573   5.687 -0.2079  0.1406 -0.1291
30118W        W73030  24.791   1.544   5.667 -0.2617 -0.1870 -0.3748
30119W        W73031  28.162   1.142   6.993  0.0969 -0.1962  0.2385
30120W        W73032  28.227   0.885   6.561  0.4031  0.0635 -0.0260
30121W        W73033  26.899   2.891   6.011  0.1298 -0.2809  0.1531
30122W        W73034  27.261   2.181   5.910  0.0645 -0.2176 -0.4867
30123W        W73035  26.107   3.047   6.350 -0.1639  0.1858  0.1527
30124W        W73036  23.975   3.112   5.371 -0.0586 -0.2450 -0.1884
30125W        W73037  28.592   0.750   7.477  0.0045 -0.0318 -0.4038
30126W        W73038  27.423   2.296   4.226  0.0482  0.4216  0.2287
30127W        W73039  27.843   1.996   4.204  0.1890  0.0528 -0.1214
30128W        W73040  26.541   0.296   2.595  0.2081 -0.2976 -0.1894
30129W        W73041  27.992  34.680   4.990 -0.1720  0.3887 -0.2577
30130W        W73042  27.609   0.413   4.840  0.2250  0.2306 -0.0327
30131W        W73043  25.902   2.627   6.261  0.2970  0.1441 -0.0500
30132W        W73044  26.527   0.296   7.866 -0.0781 -0.0022  0.0933
30133W        W73045  28.458   2.565   7.732 -0.0021 -0.2106 -0.1653
30134W        W73046  27.358   2.158   4.734  0.1218  0.0368  0.0843
30135W        W73047  27.372   1.120   6.305  0.1623  0.1813 -0.1607
30136W        W73048  26.244   3.623   6.417 -0.1257  0.0237  0.1289
30137W        W73049  25.390   2.106   7.360 -0.0488  0.2500  0.0285
30138W        W73050  29.286   4.081   5.193  0.3804  0.0999 -0.0610
30139W        W73051  27.622   3.994   5.155 -0.1186 -0.1623  0.1469
30140W        W73052  27.364   2.988   3.480 -0.1775 -0.0607  0.1322
30141W        W73053  26.076   1.418   4.526 -0.0171 -0.0103 -0.0379
30142W        W73054  24.668   3.550   7.178 -0.0629 -0.0306  0.1424
30143W        W73055  25.775   1.520   6.496 -0.0011  0.1340  0.0465
30144W        W73056  26.133   0.520   3.435  0.0065  0.3759  0.0840
30145W        W73057  29.041   2.683   8.135  0.0036  0.3115 -0.0688
30146W        W73058  25.414   3.693   5.903  0.0966 -0.2712 -0.0736
30147W        W73059  28.304   1.637   5.072  0.3325 -0.1075 -0.1906
30148W        W73060  26.873   2.381   5.574  0.0578 -0.3887 -0.0860
30149W        W73061  28.511   3.523   6.085 -0.1727  0.0069 -0.0765
30150W        W73062  28.290   3.069   3.941  0.3099  0.2334 -0.1655
30151W        W73063  28.945   0.951   5.038  0.0554  0.1125  0.1755
30152W        W73064  28.211   0.660   7.857 -0.3953  0.1719  0.1532
30153W        W73065  25.666   2.517   4.574 -0.1062 -0.0321  0.2435
30154W        W73066  26.833   1.959   5.127  0.0563  0.0721 -0.1815
30155W        W73067  28.001   2.619   6.392  0.1621  0.2440  0.2749
30156W        W73068  28.874   2.427   4.542 -0.0165 -0.2806 -0.0293
30157W        W73069  24.789   4.182   6.474 -0.1586  0.1045 -0.1618
30158W        W73070  26.367   0.752   6.767  0.0233 -0.1975 -0.0967
30159W        W73071  26.795   3.104   6.832 -0.2551 -0.0418  0.0452
30160W        W73072  27.456   3.181   4.395  0.1473 -0.0208 -0.0692
30161W        W73073  24.751   3.348   5.047 -0.2748  0.0843 -0.2214
30162W        W73074  26.527   2.753   5.158 -0.0953  0.1651  0.0764
30163W        W73075  25.674   0.827   5.599  0.0275  0.1211  0.1572
30164W        W73076  27.964   1.658   7.131  0.1175  0.0731  0.0887
30165W        W73077  27.495  33.468   5.459  0.0794  0.0603  0.0333
30166W        W73078  26.699  34.559   7.209  0.3633  0.1285  0.0822
30167W        W73079  28.166   0.718   5.299  0.5179 -0.3019 -0.2107
30168W        W73080  27.055   4.756   4.087  0.1867  0.0451  0.4368
30169W        W73081  27.631   3.486   5.279 -0.0978  0.0507 -0.0156
30170W        W73082  29.293   0.015   4.160  0.2222  0.0743 -0.1595
30171W        W73083  28.651   3.572   5.599  0.3266 -0.0001 -0.0738
30172W        W73084  25.115   0.633   5.861 -0.1521  0.1915  0.3314
30173W        W73085  25.973   1.428   5.741 -0.1569 -0.1398 -0.1623
30174W        W73086  26.763   1.815   6.170  0.1293 -0.0758  0.1419
30175W        W73087  26.865   0.382   5.032  0.1652 -0.1758 -0.3892
30176W        W73088  28.744  34.075   7.028 -0.0849  0.0735 -0.1086
30177W        W73089  25.874  34.065   3.756  0.0934  0.0597  0.0620
30178W        W73090  27.196   1.243   4.445  0.0631 -0.2188 -0.3012
30179W        W73091  27.735   2.477   5.945  0.1462  0.2627  0.0177
30180W        W73092  24.910   3.555   5.744  0.0133  0.3397 -0.2597
30181W        W73093  28.831   1.600   6.116  0.1481 -0.0157  0.1636
30182W        W73094  28.515   4.183   5.745 -0.2112  0.1994  0.1044
30183W        W73095  28.407   3.406   6.589 -0.1452 -0.2115 -0.1240
30184W        W73096  28.254   4.283   5.263 -0.0375  0.3810 -0.2027
30185W        W73097  27.274   1.158   6.928 -0.0693  0.0342  0.0685
30186W        W73098  26.372   1.215   5.471  0.2560 -0.1305 -0.1161
30187W        W73099  26.659   4.929   7.019 -0.2113  0.2041 -0.1879
30188W        W73100  25.951   3.461   5.972  0.3703 -0.3072 -0.0279
30189W        W73101  26.594   1.382   4.495  0.0067 -0.0728  0.3013
30190W        W73102  28.110   3.332   7.059  0.0086 -0.0260 -0.1341
30191W        W73103  27.752   0.664   6.233 -0.0008 -0.1327 -0.4328
30192W        W73104  25.058   2.615   5.849  0.0781  0.3145 -0.3797
30193W        W73105  28.921  33.687   8.005 -0.1716  0.0697  0.0169
30194W        W73106  29.391   2.060   5.473  0.0194 -0.1104  0.3377
30195W        W73107  28.339   2.854   5.217 -0.2923 -0.0746 -0.0510
30196W        W73108  26.171   0.888   4.434  0.0358  0.1842 -0.2931
30197W        W73109  27.405   4.421   6.221 -0.2261  0.1160 -0.2563
30198W        W73110  25.259   2.618   4.825  0.0171 -0.1585  0.0848
30199W        W73111  25.152   2.559   4.233  0.2514  0.2476  0.2896
30200W        W73112  26.466   2.649   6.141 -0.1235 -0.0898  0.0543
30201W        W73113  28.593   1.414   5.589 -0.0615 -0.0586  0.2647
30202W        W73114  25.501   3.165   6.967  0.0639  0.0933  0.3319
30203W        W73115  27.838   1.885   7.624  0.3039 -0.1740 -0.2934
30204W        W73116  26.956   2.560   4.455 -0.1289  0.3666  0.1852
30205W        W73117  25.618   4.221   5.842  0.1441  0.2590 -0.1915
30206W        W73118  27.364   0.798   4.556 -0.0625  0.0726  0.0148
30207W        W73119  27.881   2.266   4.624  0.0123  0.1412 -0.1720
30208W        W73120  27.482   1.575   6.500  0.2301  0.2197 -0.2460
30209W        W73121  28.371   2.382   4.496  0.0043 -0.1656 -0.0561
30210W        W73122  27.402   1.494   2.753  0.0644 -0.0915  0.1384
30211W        W73123  28.587   1.612   4.535  0.0013  0.1435 -0.1612
30212W        W73124  25.017   3.593   6.290 -0.0920  0.0710  0.0490
30213W        W73125  27.540   2.872   5.245  0.0851 -0.1168  0.2323
30214W        W73126  27.458   3.017   5.777 -0.0073  0.1815  0.4811
30215W        W73127  27.182   1.141   3.963 -0.2134 -0.2189 -0.0365
30216W        W73128  29.377   3.871   4.408  0.1030  0.2886 -0.3734
30217W        W73129  24.936   2.128   5.966 -0.2141 -0.1488 -0.0900
30218W        W73130  28.282   2.545   7.181  0.1242  0.0788  0.0446
30219W        W73131  27.191   2.060   5.398 -0.0752  0.0090 -0.3002
30220W        W73132  28.895   0.717   6.705  0.0246  0.2381  0.0685
30221W        W73133  25.795   1.547   4.108 -0.0021  0.2488  0.3754
30222W        W73134  28.230   0.991   4.417  0.1944  0.0916 -0.3917
30223W        W73135  24.929   4.400   4.728  0.0038  0.0002  0.2733
30224W        W73136  28.409   0.459   6.682  0.2036 -0.2363 -0.1487
30225W        W73137  28.030  34.492   6.623  0.0716 -0.1476 -0.0097
30226W        W73138  27.451   0.471   6.664 -0.4596 -0.1939 -0.1062
30227W        W73139  28.572   1.214   6.608  0.3427 -0.0190 -0.0240
30228W        W73140  28.539   0.157   4.036 -0.3241 -0.0085 -0.3050
30229W        W73141  27.677   0.969   7.213  0.3061  0.1279  0.5850
30230W        W73142  26.571   2.223   2.848  0.2369  0.2931 -0.0948
30231W        W73143  26.954   0.018   7.602  0.1249  0.4610  0.2354
30232W        W73144  25.876   1.846   7.265  0.1484 -0.1020  0.2118
30233W        W73145  26.606   3.174   6.388  0.0303 -0.0559  0.1781
30234W        W73146  28.988   2.959   6.993 -0.1959 -0.0068  0.4521
30235W        W73147  28.860   1.583   4.158 -0.0769  0.0778  0.0444
30236W        W73148  27.394  34.673   7.334 -0.2646 -0.0363 -0.1488
30237W        W73149  26.835   1.408   5.113 -0.1240  0.1124 -0.1821
30238W        W73150  26.941   2.413   3.882  0.0886  0.1860  0.1260
30239W        W73151  28.004   2.591   4.946  0.1289 -0.1517 -0.0852
30240W        W73152  27.782   1.859   6.112 -0.1381 -0.0129 -0.2318
30241W        W73153  28.081   2.179   5.756  0.0395  0.2595 -0.1495
30242W        W73154  27.458   2.647   2.721 -0.0398  0.0764 -0.4677
30243W        W73155  27.731   2.973   7.106 -0.0653 -0.0427 -0.1223
30244W        W73156  26.845   2.358   6.083  0.0532 -0.0180 -0.0383
30245W        W73157  28.615  34.274   6.536 -0.3764  0.0614 -0.1656
30246W        W73158  27.344   2.656   6.198  0.1224 -0.0373  0.0877
30247W        W73159  27.268   0.904   1.585  0.0657  0.1148 -0.2988
30248W        W73160  26.264   1.869   3.345  0.0528 -0.2718 -0.1269
30249W        W73161  27.619  34.179   6.631 -0.0771  0.2188 -0.1460
30250W        W73162  29.213   3.625   4.812 -0.0500  0.0070 -0.2584
30251W        W73163  25.952   0.396   5.519  0.1074  0.1313  0.0834
30252W        W73164  27.970   0.689   5.780  0.1882  0.0158 -0.1490
30253W        W73165  25.991   3.988   6.052  0.1687  0.0333 -0.1627
30254W        W73166  28.706   2.057   6.863 -0.0660  0.1358  0.0998
30255W        W73167  28.420   0.666   4.830  0.5391 -0.0927  0.1745
30256W        W73168  27.921   3.786   6.719  0.1399 -0.3250  0.1245
30257W        W73169  26.728   2.542   6.916 -0.2650  0.1341 -0.4569
30258W        W73170  25.501   1.190   5.170  0.1752  0.2117  0.0988
30259W        W73171  29.371   0.722   5.377 -0.0399 -0.1734  0.0828
30260W        W73172  27.001   2.411   5.099  0.1675 -0.2669  0.1832
30261W        W73173  25.706   2.230   5.772 -0.0492 -0.0174 -0.1092
30262W        W73174  27.782   3.006   6.627 -0.0453  0.1627 -0.1798
30263W        W73175  26.228   1.936   4.262 -0.2270 -0.0885 -0.0248
30264W        W73176  26.845   2.763   6.469 -0.0704  0.0947  0.0355
30265W        W73177  27.164   0.538   7.215  0.0194  0.1788 -0.1191
30266W        W73178  29.282   1.382   5.996 -0.0308  0.2073 -0.2122
30267W        W73179  27.483   1.898   6.819  0.1203 -0.0924 -0.1404
30268W        W73180  27.681   1.161   4.438  0.2444 -0.1279 -0.0948
30269W        W73181  27.599   1.532   5.530  0.1521 -0.2014  0.0196
30270W        W73182  28.653   1.831   7.460  0.1344 -0.3397  0.1105
30271W        W73183  28.470   1.575   6.988  0.1322 -0.1812 -0.3922
30272W        W73184  24.667   2.229   8.365  0.1421  0.1365 -0.3339
30273W        W73185  27.875  34.391   5.722 -0.0617  0.1041  0.0250
30274W        W73186  29.919   4.872   3.997 -0.0836 -0.2760 -0.3391
30275W        W73187  27.932   2.468   7.608  0.4378  0.2409  0.3561
30276W        W73188  26.878   2.875   3.494  0.1829 -0.2025 -0.1170
30277W        W73189  26.427   1.161   6.296 -0.1189 -0.1131  0.1935
30278W        W73190  26.137   3.596   3.786 -0.0974  0.1648  0.2677
30279W        W73191  28.259   0.036   5.839  0.0501  0.2366 -0.1327
30280W        W73192  25.320   2.515   5.370  0.1618  0.1158 -0.1284
30281W        W73193  25.961   2.264   5.362  0.1377 -0.0813  0.0362
30282W        W73194  25.776   2.175   6.431 -0.0100  0.1867  0.2101
30283W        W73195  29.016   0.333   4.526 -0.2986 -0.2317 -0.3884
30284W        W73196  27.928   3.431   4.458  0.2624 -0.3316  0.3330
30285W        W73197  28.101   1.709   5.490  0.2552 -0.0140 -0.2963
30286W        W73198  29.521   1.301   7.067 -0.1331 -0.1285  0.0743
30287W        W73199  28.485   2.010   4.182 -0.1333  0.1202 -0.2337
30288W        W73200  28.607   0.325   7.804 -0.2773  0.2514  0.1978
30289W        W73201  27.823   0.527   4.374  0.1687  0.0086 -0.5059
30290W        W73202  28.178   2.722   3.518 -0.3840 -0.0418 -0.2127
30291W        W73203  25.184   1.124   5.885 -0.3500  0.4596 -0.0408
30292W        W73204  27.647   3.689   8.195 -0.4401  0.1856 -0.1955
30293W        W73205  25.474   2.860   6.535 -0.1834  0.0323 -0.2455
30294W        W73206  27.657   0.128   4.080  0.0539 -0.1763 -0.0634
30295W        W73207  26.438   1.676   5.346 -0.1713  0.1849  0.0600
30296W        W73208  26.162   1.848   6.659  0.1840 -0.0570  0.0018
30297W        W73209  28.446   2.487   5.567  0.3485  0.0921  0.0497
30298W        W73210  27.683   2.687   4.380 -0.1933 -0.1877 -0.0307
30299W        W73211  28.965  34.412   4.491 -0.0567 -0.0881 -0.1893
30300W        W73212  25.125   1.640   5.968 -0.3396 -0.0265 -0.0610
30301W        W73213  28.034   1.584   4.242  0.0229  0.1377  0.0945
30302W        W73214  27.629   2.325   3.241 -0.0716  0.1617 -0.3884
30303W        W73215  26.557   2.801   5.649  0.0863 -0.1246  0.2877
30304W        W73216  26.370  34.584   6.652  0.2160  0.1088  0.0175
30305W        W73217  28.245   1.088   6.068  0.1711 -0.0016  0.0540
30306W        W73218  27.896   0.305   5.464  0.0067  0.0544  0.0350
30307W        W73219  27.408  34.113   8.075 -0.0671  0.0259 -0.0618
30308W        W73220  29.048   1.120   7.011 -0.0022 -0.2050  0.0894
30309W        W73221  26.230   2.521   7.801 -0.0395  0.1651 -0.0597
30310W        W73222  24.930   0.755   7.518  0.0439  0.0367 -0.0275
30311W        W73223  28.468   4.383   6.232  0.1767  0.0724  0.0934
30312W        W73224  27.953  34.366   3.772  0.0243  0.1994  0.3740
30313W        W73225  28.194   0.430   6.171 -0.1299  0.1001  0.4048
30314W        W73226  29.519   1.045   4.990 -0.0140  0.1104 -0.0008
30315W        W73227  27.933   0.841   4.809  0.0165  0.1754 -0.0662
30316W        W73228  25.570   1.093   6.619  0.1243  0.0930 -0.0875
30317W        W73229  27.876   2.289   8.091  0.1191  0.0636  0.1750
30318W        W73230  27.162   0.750   5.098 -0.1724  0.0361  0.1162
30319W        W73231  27.643   0.427   7.194  0.0318 -0.0479 -0.4738
30320W        W73232  26.893   2.865   4.864 -0.0486 -0.0265 -0.3876
30321W        W73233  27.847   2.568   6.850  0.1726 -0.0290 -0.2163
30322W        W73234  28.590   0.572   4.387 -0.0358 -0.0516  0.0961
30323W        W73235  26.881   0.974   6.355 -0.0010  0.0900 -0.1423
30324W        W73236  26.504   3.989   7.444  0.0077 -0.3488  0.1558
30325W        W73237  26.865   1.490   4.096  0.0980  0.4148 -0.1880
30326W        W73238  28.022   2.240   3.643 -0.2401 -0.2269 -0.1144
30327W        W73239  28.010   1.345   6.509 -0.1354 -0.2005 -0.1246
30328W        W73240  28.686   3.603   7.857 -0.1843  0.0796  0.4352
30329W        W73241  26.387   0.289   5.206  0.1402 -0.1843 -0.1906
30330W        W73242  28.051   1.076   7.499 -0.0182  0.0758 -0.1844
30331W        W73243  25.277   3.310   4.909  0.0411 -0.0610 -0.2579
30332W        W73244  26.763   0.527   6.498 -0.4833  0.0093  0.1572
30333W        W73245  25.577   1.831   6.083 -0.1010  0.3711  0.0936
30334W        W73246  24.931   2.144   6.929  0.3589  0.3672 -0.1342
30335W        W73247  26.611   1.970   5.711 -0.1509 -0.3070 -0.2008
30336W        W73248  26.504  33.975   8.210 -0.1437  0.0627  0.1127
30337W        W73249  27.732   0.997   6.736  0.4553 -0.0047  0.0090
30338W        W73250  27.289   1.746   7.913 -0.0269  0.0898 -0.0872
30339W        W73251  28.642   0.827   6.272 -0.0896  0.1094  0.1314
30340W        W73252  28.549   0.888   6.967  0.0341  0.0451 -0.2769
30341W        W73253  26.546   1.556   6.575  0.1086 -0.1778  0.0530
30342W        W73254  28.163   2.163   6.263  0.1008  0.1417  0.0575
30343W        W73255  29.169   1.709   5.093  0.2370 -0.1818 -0.3270
30344W        W73256  26.506   1.428   5.921  0.1149  0.1752  0.2860
30345W        W73257  25.444   1.597   7.360 -0.0954 -0.0629  0.2349
30346W        W73258  28.416   1.398   7.966  0.1184  0.1162 -0.0593
30347W        W73259  28.190   2.110   5.124  0.0890  0.1417 -0.1465
30348W        W73260  25.455   0.493   4.647 -0.2375 -0.0214  0.1283
30349W        W73261  28.609   2.591   3.220 -0.1171  0.0669  0.2082
30350W        W73262  25.440   3.249   7.465  0.0090 -0.0784  0.2875
30351W        W73263  25.538   1.920   6.819 -0.0666 -0.2888  0.0462
30352W        W73264  25.322   3.589   5.441  0.0232  0.0546  0.2341
30353W        W73265  27.683   3.061   4.848  0.1012 -0.0355  0.0851
30354W        W73266  28.489   3.078   5.737 -0.1308 -0.0806 -0.2042
30355W        W73267  28.277   2.313   6.692  0.0622 -0.0535 -0.0721
30356W        W73268  27.202   2.195   2.965 -0.0740  0.0742  0.0083
30357W        W73269  27.001   3.434   6.480  0.0396 -0.2140 -0.2168
30358W        W73270  25.747   3.610   5.026  0.1466  0.0282  0.1645
30359W        W73271  29.391   2.875   4.331 -0.0943 -0.0180  0.2471
30360W        W73272  26.742   4.462   6.174 -0.1220 -0.2044 -0.0595
30361W        W73273  29.459   3.414   7.878 -0.2059 -0.1180 -0.1699
30362W        W73274  28.929  34.645   3.645 -0.0109  0.1535  0.1181
30363W        W73275  29.233   1.362   4.743  0.4530  0.1813  0.2114
30364W        W73276  27.480  34.411   3.710  0.1249 -0.0713  0.2666
30365W        W73277  26.889   4.413   7.165  0.0737 -0.4085  0.0226
30366W        W73278  27.619   1.693   4.564 -0.0135 -0.1535 -0.3305
30367W        W73279  26.703   0.491   3.872  0.0208 -0.1792  0.0727
30368W        W73280  26.142   1.260   6.682  0.2243 -0.1538 -0.0424
30369W        W73281  29.096  34.363   6.696  0.5182  0.1552  0.0518
30370W        W73282  25.246   4.055   7.153 -0.1475  0.1529 -0.0445
30371W        W73283  29.258   3.509   3.843 -0.1375  0.0188  0.0971
30372W        W73284  26.385   1.151   4.906 -0.1098  0.3078 -0.3582
30373W        W73285  27.094   1.720   4.572  0.1718 -0.0407 -0.3521
30374W        W73286  28.428  34.663   6.869  0.0589 -0.0766 -0.0632
30375W        W73287  27.931   3.202   3.507  0.2221  0.1062 -0.3288
30376W        W73288  27.048   1.445   6.585  0.0614 -0.3436  0.0259
30377W        W73289  26.557   4.056   5.871  0.0978 -0.1291  0.1784
30378W        W73290  26.313   2.088   6.126  0.1653 -0.2254  0.4203
30379W        W73291  26.780   3.606   7.239  0.4327 -0.0444 -0.0258
30380W        W73292  24.389   1.391   5.472 -0.1914 -0.0406  0.1075
30381W        W73293  27.663   0.635   3.892  0.0151 -0.0601 -0.1853
30382W        W73294  27.378   1.658   6.013 -0.0027 -0.0212  0.1387
30383W        W73295  28.639  33.793   6.654  0.2342 -0.1391 -0.2817
30384W        W73296  26.140   1.900   4.971  0.0362 -0.1480 -0.4615
30385W        W73297  28.753   1.444   4.983 -0.3945  0.0247  0.1933
30386W        W73298  28.699   2.308   7.312 -0.0804  0.2497  0.3284
30387W        W73299  25.478   1.532   5.624  0.2285  0.0142  0.0887
30388W        W73300  26.454   2.467   4.199 -0.0823 -0.0276 -0.2510
30389W        W73301  29.047   2.533   6.328 -0.2719 -0.0312  0.0848
30390W        W73302  26.459   0.903   3.541  0.1761  0.0381  0.0032
30391W        W73303  27.784   4.259   7.606  0.0179  0.0328 -0.1169
30392W        W73304  25.212   2.057   6.462  0.0296 -0.0777  0.2111
30393W        W73305  26.787   2.032   4.282  0.0300  0.1400  0.0712
30394W        W73306  25.274   1.997   5.540 -0.1039 -0.1675  0.1901
30395W        W73307  26.971   2.068   7.630 -0.2581  0.0065  0.1196
30396W        W73308  29.289   4.951   7.112  0.0802  0.2280 -0.0960
30397W        W73309  25.866   0.983   4.814 -0.0769 -0.3472  0.0296
30398W        W73310  29.364   2.806   3.728 -0.1501 -0.3365 -0.0704
30399W        W73311  28.735   2.138   6.325 -0.0261 -0.1329 -0.0082
30400W        W73312  27.106   4.419   4.391  0.1924 -0.1070  0.2691
30401W        W73313  28.602   2.075   4.789 -0.2290 -0.3590 -0.0769
30402W        W73314  27.223   3.304   5.431 -0.1394 -0.1817  0.0806
30403W        W73315  25.765   1.093   7.432 -0.1880  0.0963 -0.0384
30404W        W73316  28.335   3.765   6.989 -0.1158 -0.1634 -0.1122
30405W        W73317  29.180   2.074   6.560 -0.4764 -0.1855 -0.1377
30406W        W73318  27.809   1.764   5.112  0.2375 -0.0144 -0.2790
30407W        W73319  26.081   1.892   5.699  0.1071 -0.0606 -0.0568
30408W        W73320  25.771   3.316   5.410 -0.2608  0.2755  0.1726
30409W        W73321  27.725   0.005   4.600 -0.1972 -0.1631  0.3124
30410W        W73322  28.606   0.401   7.119  0.0621  0.0765 -0.2588
30411W        W73323  26.953   3.101   4.463 -0.2065  0.1017 -0.1512
30412W        W73324  27.315   0.610   8.129 -0.0160  0.2445 -0.1601
30413W        W73325  27.619   3.400   6.856 -0.1830 -0.0685  0.0045
30414W        W73326  25.470   4.472   7.023  0.3173  0.0883 -0.0340
30415W        W73327  25.978   2.884   4.413 -0.0601  0.0414 -0.0062
30416W        W73328  27.136   1.649   7.044 -0.0638 -0.1134  0.1070
30417W        W73329  26.411   3.188   5.378 -0.1225  0.1335 -0.0348
30418W        W73330  27.691   2.674   3.730  0.0220 -0.0092 -0.2752
30419W        W73331  28.341   3.015   6.248 -0.1311 -0.0011  0.0002
30420W        W73332  27.697   2.270   5.152 -0.0931  0.0596 -0.1378
30421W        W73333  27.866   3.096   5.519 -0.5882  0.0365  0.0777
30422W        W73334  28.368   1.123   5.152 -0.0034  0.0621 -0.1822
30423W        W73335  28.925   0.243   2.636  0.1037 -0.0511 -0.1052
30424W        W73336  28.862  34.284   3.246  0.4753  0.1364  0.2549
30425W        W73337  26.265   2.616   7.198 -0.2415  0.1868 -0.1631
30426W        W73338  24.798   2.400   5.497  0.0179 -0.2542 -0.3332
30427W        W73339  26.027   1.463   3.630 -0.0502  0.0333 -0.2678
30428W        W73340  26.143   2.415   5.783  0.1191 -0.2056  0.4531
30429W        W73341  28.105  34.428   7.373 -0.0914 -0.0845  0.0349
30430W        W73342  25.641   0.388   7.385  0.1869 -0.1539  0.3546
30431W        W73343  24.648   1.529   5.081  0.0929  0.0393  0.1191
30432W        W73344  26.883   1.004   4.741  0.3553 -0.0697 -0.0213
30433W        W73345  28.600   3.843   5.173  0.0266  0.2476 -0.1725
30434W        W73346  26.860   0.262   5.887 -0.2860  0.0866  0.1437
30435W        W73347  25.576  34.464   5.797  0.0843  0.2872 -0.0812
30436W        W73348  26.905   1.924   3.767 -0.1514  0.0494 -0.2594
30437W        W73349  29.334   3.039   5.246 -0.2505 -0.2732 -0.0145
30438W        W73350  27.508   0.553   5.742 -0.1298 -0.0743 -0.2115
30439W        W73351  28.227   5.178   6.970  0.1679 -0.1624 -0.1056
30440W        W73352  24.990   3.921   4.411  0.2225  0.4477 -0.1716
30441W        W73353  26.960   0.564   7.734  0.0440  0.0051 -0.0643
30442W        W73354  27.484  34.607   7.840 -0.2048  0.0352  0.0109
30443W        W73355  24.482   1.565   4.590 -0.1842  0.0341  0.0237
30444W        W73356  26.621   2.447   7.441  0.2328 -0.1056  0.0305
30445W        W73357  27.409   2.510   5.582  0.2747  0.1315  0.0089
30446W        W73358  27.773   4.503   5.368 -0.1212 -0.0959  0.3726
30447W        W73359  26.675   1.760   7.302 -0.0730 -0.2482  0.0035
30448W        W73360  26.084   2.935   5.829  0.2173 -0.1523 -0.1942
30449W        W73361  25.301   0.059   6.666  0.0066 -0.0889  0.2056
30450W        W73362  29.029   1.907   4.596  0.1082 -0.1293  0.2175
30451W        W73363  27.169   2.800   7.102 -0.1362  0.0448 -0.1826
30452W        W73364  29.107   3.201   5.679  0.4512 -0.2014 -0.3978
30453W        W73365  28.152   0.294   4.617  0.0904  0.3018 -0.1970
30454W        W73366  29.331   1.495   4.203  0.0210 -0.3811  0.4825
30455W        W73367  25.828  34.167   7.124 -0.0034 -0.2080  0.2208
30456W        W73368  25.781   2.758   7.745  0.0162 -0.0160  0.0651
30457W        W73369  29.015   1.665   5.576 -0.0697  0.0495  0.0977
30458W        W73370  26.808   1.070   5.711  0.1452 -0.1731  0.1006
30459W        W73371  27.245   0.071   4.952 -0.0665  0.0582 -0.0375
30460W        W73372  28.587   2.915   4.803 -0.1224 -0.0003  0.0365
30461W        W73373  24.439   2.169   6.361 -0.0819 -0.0618  0.3762
30462W        W73374  28.014   1.383   4.727  0.0051 -0.0958 -0.1268
30463W        W73375  28.291   2.107   7.656  0.0331  0.2033 -0.1716
30464W        W73376  26.690   1.991   6.686  0.0818 -0.0313  0.4984
30465W        W73377  28.461   3.334   8.266 -0.2003  0.4190  0.2134
30466W        W73378  26.573   1.861   4.716  0.0265 -0.0082 -0.0798
30467W        W73379  29.873   3.111   2.842 -0.0372  0.0514  0.0732
30468W        W73380  27.539   4.848   7.409 -0.1315 -0.0060  0.0027
30469W        W73381  27.770   3.398   7.428  0.0861  0.0308  0.1076
30470W        W73382  27.658   2.279   6.486  0.4441 -0.1187  0.3957
30471W        W73383  28.934   0.496   5.628  0.2048  0.0514 -0.0608
30472W        W73384  27.231   1.702   5.030 -0.0520  0.1009  0.0101
30473W        W73385  25.015   2.238   5.007  0.1819 -0.2991 -0.1404
30474W        W73386  26.095   2.545   4.903  0.0262 -0.1505 -0.1800
30475W        W73387  28.401  34.427   5.438 -0.0936 -0.1683  0.0615
30476W        W73388  27.004   1.360   6.096  0.2795 -0.3351 -0.1776
30477W        W73389  26.681   0.949   2.997 -0.4426  0.3905  0.1484
30478W        W73390  28.015   3.876   7.418  0.0936 -0.1045 -0.1817
30479W        W73391  28.551   2.594   6.346 -0.0078 -0.2625 -0.1926
30480W        W73392  26.807   1.506   9.010  0.1277 -0.0338 -0.1559
30481W        W73393  27.631   0.596   8.828  0.2051  0.0648  0.2159
30482W        W73394  28.150   0.684   7.153 -0.4163  0.2470 -0.3449
30483W        W73395  29.397   2.934   7.793 -0.2965  0.0883  0.1235
30484W        W73396  26.546   0.893   9.311 -0.2208  0.3659 -0.1568
30485W        W73397  27.428   4.341   7.119 -0.1653  0.0377  0.0406
30486W        W73398  27.999   1.613   8.902 -0.0671  0.1124 -0.0053
30487W        W73399  28.580   3.796   9.506 -0.2249  0.1636 -0.0071
30488W        W73400  27.169   1.996   6.456 -0.1536  0.1263 -0.0109
30489W        W73401  28.368   1.116   9.634  0.1686  0.3158  0.1004
30490W        W73402  27.189  34.605   8.677 -0.0951 -0.1940 -0.0613
30491W        W73403  25.990  34.482  10.712 -0.0032  0.3120 -0.1664
30492W        W73404  29.774   1.529   9.507 -0.0126  0.1555 -0.1163
30493W        W73405  26.586   2.106   8.431 -0.1052  0.0340 -0.2427
30494W        W73406  26.582   1.656   9.478  0.0622  0.0637 -0.0882
30495W        W73407  27.822   2.124   7.138 -0.0551  0.1556  0.3915
30496W        W73408  26.725   4.365   9.891 -0.0558  0.1018  0.0807
30497W        W73409  24.690  34.113   9.265 -0.2307  0.0170 -0.5077
30498W        W73410  27.402   1.930   7.388 -0.1982  0.1064 -0.0190
30499W        W73411  25.529  34.652   7.224 -0.0839 -0.4263  0.0070
30500W        W73412  26.144   2.439   8.540 -0.0354  0.0252  0.3294
30501W        W73413  25.547   2.941   8.990 -0.2481 -0.0284 -0.1597
30502W        W73414  27.473   0.745   9.302 -0.1160 -0.1147  0.2027
30503W        W73415  28.884   2.320   8.507  0.1775 -0.3251 -0.2914
30504W        W73416  26.313   2.941   9.830  0.1811  0.3256  0.3376
30505W        W73417  26.858   5.104   9.644 -0.3566  0.0757  0.0708
30506W        W73418  27.799   0.610   9.885  0.1906  0.0652  0.1726
30507W        W73419  25.536   1.400   7.894  0.2695 -0.1808 -0.1292
30508W        W73420  27.418   3.304   7.786 -0.1533 -0.0792 -0.1857
30509W        W73421  29.685   3.940   9.080  0.0411 -0.0404  0.2536
30510W        W73422  25.533   2.731   7.304  0.0703 -0.3464  0.1532
30511W        W73423  27.196   2.426   9.660 -0.0105  0.1009  0.1548
30512W        W73424  27.913   2.585   8.853 -0.2758  0.2450 -0.1362
30513W        W73425  27.510   2.485   7.249  0.0438 -0.0843 -0.0164
30514W        W73426  26.948   2.899   9.312  0.1849  0.0303 -0.0492
30515W        W73427  27.108   2.476   7.984  0.1885 -0.0600 -0.4495
30516W        W73428  26.287   3.535   7.356 -0.3344 -0.0970  0.3503
30517W        W73429  29.007   0.957   7.500 -0.2804 -0.2385 -0.0262
30518W        W73430  26.052   0.316   7.616 -0.1230  0.0569 -0.0198
30519W        W73431  29.028   0.669   7.844  0.1407  0.1477  0.0082
30520W        W73432  27.495   1.101   8.224  0.0516 -0.0013 -0.2907
30521W        W73433  25.333   4.214  10.094 -0.1875  0.1935 -0.1887
30522W        W73434  28.116   0.275  10.092 -0.1857 -0.0788 -0.0108
30523W        W73435  27.951   2.071   9.094  0.2649 -0.3002  0.0552
30524W        W73436  27.621   2.064   9.532 -0.3211  0.0666  0.0071
30525W        W73437  24.507   5.752   8.032  0.3481 -0.1592  0.3334
30526W        W73438  27.854   1.119   9.117  0.0446  0.2127  0.1051
30527W        W73439  27.636   4.315   6.626  0.0233  0.0019 -0.2934
30528W        W73440  28.209   3.893   9.059  0.3912 -0.0784 -0.1200
30529W        W73441  26.976   4.680   7.597  0.1994 -0.0956  0.1277
30530W        W73442  26.656   1.619   8.418  0.4710 -0.1697 -0.1158
30531W        W73443  26.170  34.176   7.900 -0.2181  0.0463  0.0914
30532W        W73444  27.896   1.040   8.576 -0.0264  0.0550  0.3835
30533W        W73445  25.318   2.939   7.844  0.0037 -0.1530  0.0757
30534W        W73446  28.473   1.720   9.057  0.0417  0.0740 -0.0103
30535W        W73447  27.971   4.155   7.043  0.2597 -0.2392  0.1415
30536W        W73448  29.091   0.320   9.552  0.1806 -0.0811  0.0386
30537W        W73449  29.516  34.278   9.133 -0.0403 -0.1928  0.0347
30538W        W73450  24.973   1.570   7.532 -0.2512  0.2058  0.1713
30539W        W73451  26.653   3.477   7.719 -0.1587  0.0675  0.2382
30540W        W73452  27.268   2.750   8.871  0.2735  0.0048 -0.0886
30541W        W73453  28.162   1.853   8.105  0.3537  0.1816 -0.1593
30542W        W73454  25.333   1.155   9.975 -0.2984 -0.0141  0.0191
30543W        W73455  26.594   4.091   6.903  0.2043 -0.0091  0.0130
30544W        W73456  24.222   1.979   8.459 -0.3720  0.0011 -0.1615
30545W        W73457  25.897   1.074   7.875  0.0930 -0.0200  0.3309
30546W        W73458  26.109  33.267   9.804 -0.0991  0.0332  0.1624
30547W        W73459  25.399   0.550   9.804  0.3397  0.0955 -0.0521
30548W        W73460  29.260   0.659   8.697  0.3926  0.0278  0.0579
30549W        W73461  29.089   0.743   9.225  0.1020  0.2400 -0.1874
30550W        W73462  26.366   2.158   7.084 -0.3716  0.1088 -0.3093
30551W        W73463  29.395   4.568   9.157 -0.0309 -0.1176  0.1077
30552W        W73464  29.813   0.927   7.483 -0.0829  0.1301  0.1377
30553W        W73465  27.018   2.170   7.122  0.1049  0.3674  0.0881
30554W        W73466  23.568  33.025  10.004 -0.0282  0.2139 -0.1992
30555W        W73467  27.102   1.054   9.200 -0.1505  0.1387  0.2836
30556W        W73468  26.104   0.631   9.418 -0.0363  0.0653  0.3125
30557W        W73469  25.996   0.294   8.132 -0.0241 -0.1266 -0.1340
30558W        W73470  28.846   1.798   8.657  0.0164 -0.1373 -0.0448
30559W        W73471  27.499   2.247   7.767 -0.0479  0.0290 -0.0149
30560W        W73472  25.331   1.096   7.589  0.0695 -0.2068 -0.0129
30561W        W73473  27.229   3.601   7.451 -0.0109  0.1898  0.2675
30562W        W73474  28.277   3.046   8.631 -0.0352  0.0147  0.0129
30563W        W73475  28.299   2.953   9.198  0.0546 -0.1230 -0.0597
30564W        W73476  26.810  33.793  12.725 -0.2971 -0.1670  0.1328
30565W        W73477  26.281   0.848   7.605  0.2884  0.0060  0.0487
30566W        W73478  26.976   3.929   8.377 -0.0331  0.2078 -0.2361
30567W        W73479  25.453   3.049   9.586  0.2233  0.3608 -0.1105
30568W        W73480  26.627   0.774   7.164 -0.1215  0.0039 -0.0082
30569W        W73481  28.952   4.447   8.924 -0.0954 -0.0944  0.1404
30570W        W73482  27.039   2.040   8.194 -0.0170  0.1624  0.0766
30571W        W73483  28.878   3.013   9.060  0.0979  0.0783 -0.1366
30572W        W73484  29.662   5.143   8.809  0.4314 -0.1718 -0.2564
30573W        W73485  26.221   0.053   8.593 -0.1008  0.0975  0.2453
30574W        W73486  27.540   1.850  10.021 -0.3580  0.1287  0.0296
30575W        W73487  25.810   3.421   6.565  0.0950  0.2097 -0.3727
30576W        W73488  24.703   1.740   7.916  0.0380  0.0388 -0.2141
30577W        W73489  27.871   3.696   8.587  0.1174 -0.2908  0.1785
30578W        W73490  29.002   0.994   8.278  0.0416  0.2927  0.2213
30579W        W73491  26.128   2.156   8.106 -0.1843 -0.0515 -0.1343
30580W        W73492  27.104  34.681   8.129  0.1705  0.0386 -0.1553
30581W        W73493  29.164   0.076   7.768  0.1051  0.1134 -0.1252
30582W        W73494  28.195   2.481   8.450 -0.0214  0.1338  0.0049
30583W        W73495  27.408   0.321   7.651  0.0141  0.3280  0.1250
30584W        W73496  28.605   0.946   7.960 -0.1630 -0.0276  0.0834
30585W        W73497  27.268   2.930   8.392  0.3256  0.0775 -0.2530
30586W        W73498  26.973   3.450   8.137  0.2508 -0.0381  0.1208
30587W        W73499  27.023   0.195   6.883  0.1626  0.1416 -0.1539
30588W        W73500  29.145   4.399   8.396 -0.1771 -0.1884  0.3151
30589W        W73501  25.735   2.462   8.180  0.2054  0.2530 -0.0937
30590W        W73502  26.416   4.094  10.245  0.2344  0.0615 -0.0676
30591W        W73503  26.950  34.306   9.396  0.3282  0.2899  0.3068
30592W        W73504  27.749   1.563   7.975  0.1455  0.1578 -0.0993
30593W        W73505  28.173   1.510   9.379  0.1677  0.0412  0.0815
30594W        W73506  25.115   4.695   7.301  0.2806 -0.1635  0.1917
30595W        W73507  28.645   0.321  10.111  0.1688 -0.4329  0.0160
30596W        W73508  28.380   0.959   8.411  0.1574 -0.0361  0.1843
30597W        W73509  27.784   2.931   8.509  0.2940  0.1615 -0.0932
30598W        W73510  26.718   3.824   9.505  0.2125 -0.0835  0.0420
30599W        W73511  27.096   2.551   7.527 -0.1356 -0.1226 -0.2137
30600W        W73512  25.111   0.021   9.827  0.4485  0.3277 -0.1625
30601W        W73513  24.969   4.330   8.759  0.1998  0.0105  0.0630
30602W        W73514  28.304   2.275   8.863  0.0334  0.2152  0.0487
30603W        W73515  27.938  33.805   8.044 -0.1355  0.0686 -0.2692
30604W        W73516  27.161   4.114   7.562 -0.0140  0.1515 -0.0617
30605W        W73517  26.268   2.099   7.593  0.3714 -0.2276  0.2589
30606W        W73518  25.462  32.401   9.631 -0.1840 -0.0324  0.0269
30607W        W73519  28.107   2.514   9.335 -0.3883 -0.1101  0.1747
30608W        W73520  26.502   3.129   7.274 -0.0726 -0.0164  0.0793
30609W        W73521  29.988   1.061  10.256  0.1974 -0.1315 -0.0126
30610W        W73522  27.684   4.273   8.471  0.0701  0.0173 -0.1496
30611W        W73523  29.467   1.950   9.862  0.1226  0.2811 -0.0298
30612W        W73524  24.969   5.588   9.555  0.1818 -0.0781  0.0215
30613W        W73525  26.722   1.160   6.856 -0.1390 -0.2900 -0.1959
30614W        W73526  26.432   0.547   8.518  0.0327 -0.1190 -0.0294
30615W        W73527  28.504   0.316   8.626  0.1156  0.1239 -0.1004
30616W        W73528  28.469   3.117   7.787 -0.2876 -0.0313  0.0587
30617W        W73529  27.236   0.473   9.958  0.0339 -0.0635  0.1185
30618W        W73530  28.778  34.603   9.928  0.1974  0.0937 -0.0839
30619W        W73531  26.754   2.820   9.770 -0.1741  0.0598 -0.0838
30620W        W73532  28.127  34.446   8.728 -0.0320 -0.0079 -0.1527
30621W        W73533  25.519   0.214   8.340 -0.1416  0.2638 -0.2989
30622W        W73534  28.633  33.933   9.484 -0.2466 -0.1446 -0.1952
30623W        W73535  26.088   1.661   8.571  0.3295  0.0488 -0.3001
30624W        W73536  26.092   2.838   8.180 -0.2317 -0.2730 -0.0579
30625W        W73537  27.897   3.042   9.522 -0.0698 -0.0649 -0.0432
30626W        W73538  26.177   3.606   8.676  0.1838 -0.0133 -0.0542
30627W        W73539  25.786   2.865   8.533  0.3781  0.1693 -0.0388
30628W        W73540  29.705   3.460   9.810 -0.2326  0.2097  0.2361
30629W        W73541  28.988   1.781   9.679  0.0827  0.1593  0.2712
30630W        W73542  28.120   1.451   8.388 -0.1636 -0.1059 -0.2243
30631W        W73543  26.984   2.400   9.124 -0.1998 -0.1146  0.1122
30632W        W73544  27.690   3.745   9.029  0.2007 -0.1748  0.0241
30633W        W73545  27.570   2.574   9.257  0.1268  0.0429  0.0612
30634W        W73546  28.369   2.757   9.691  0.0507  0.0098 -0.2951
30635W        W73547  28.814   4.030   8.542 -0.0604 -0.0196  0.2504
30636W        W73548  27.485   2.901   7.522 -0.0996 -0.2760  0.0426
30637W        W73549  27.093   1.526   7.542  0.0896  0.2078  0.1927
30638W        W73550  26.843   2.890   8.614  0.1493 -0.0469 -0.1670
30639W        W73551  27.385  33.895   9.327 -0.2796  0.2135  0.0916
30640W        W73552  25.902   3.086   9.341 -0.2714 -0.1683 -0.1544
30641W        W73553  25.237   1.902   8.511  0.2151  0.0087 -0.3584
30642W        W73554  24.684   2.112   9.277  0.2313  0.2783 -0.0269
30643W        W73555  28.415  33.579   7.886  0.0970 -0.2723  0.1500
30644W        W73556  29.134   2.024   8.213  0.2736  0.3364  0.1513
30645W        W73557  27.164   1.349   8.527  0.0553  0.2790  0.2088
30646W        W73558  27.571   2.762   7.999  0.1014 -0.2089 -0.0233
30647W        W73559  26.770  32.674   9.312 -0.0315  0.1251 -0.0850
30648W        W73560  26.538   3.185   8.150  0.0635 -0.4049 -0.2057
30649W        W73561  28.556   1.586   9.781 -0.2277 -0.2385 -0.1809
30650W        W73562  27.301   0.977   9.780  0.0713  0.0606  0.1124
30651W        W73563  25.231   3.498   8.436  0.0359 -0.1300 -0.1047
30652W        W73564  27.812   3.217   8.137  0.2334  0.0460 -0.0061
30653W        W73565  27.384   2.938   9.534 -0.3764  0.1543  0.0426
30654W        W73566  28.815   0.555   8.333 -0.2027  0.2588  0.1693
30655W        W73567  25.661   2.133   8.656  0.2693  0.3200 -0.0442
30656W        W73568  28.978   2.229   9.996  0.0017  0.1528 -0.0777
30657W        W73569  28.117   2.958   7.451 -0.1768 -0.0322  0.2182
30658W        W73570  27.038   2.409   8.581 -0.1634 -0.3015  0.1638
30659W        W73571  28.945   1.280   9.590 -0.2761 -0.1422  0.0527
30660W        W73572  27.793   2.601   9.706  0.1544  0.1210  0.1826
30661W        W73573  29.632   4.286   9.490 -0.2089 -0.2689 -0.2529
30662W        W73574  28.307   2.047   7.163 -0.0602 -0.0758  0.0821
30663W        W73575  29.832   0.208   9.571 -0.0816  0.0090  0.0371
30664W        W73576  28.791   0.050   8.160  0.3084 -0.0577  0.0889
30665W        W73577  27.447   1.292   9.386 -0.0306  0.2266  0.1769
30666W        W73578  27.438   0.170   9.026  0.1792 -0.0800  0.0891
30667W        W73579  26.195   1.113   7.193 -0.0288 -0.0530  0.3229
30668W        W73580  27.955   1.923   6.656 -0.3074  0.0604 -0.2685
30669W        W73581  28.465   2.241   8.156  0.0574 -0.1849  0.0354
30670W        W73582  28.609   1.355   8.534  0.0412  0.1649  0.0516
30671W        W73583  26.930   1.323   9.575  0.0036  0.1772 -0.1424
30672W        W73584  26.224   1.556   7.065  0.0725  0.1808  0.2260
30673W        W73585  27.147   1.013   7.389  0.1327 -0.2885 -0.1242
30674W        W73586  25.157   2.161   9.488 -0.1839 -0.0672  0.2109
30675W        W73587  27.675  34.163   7.652 -0.0680 -0.0685  0.0285
30676W        W73588  26.201   3.097   7.756 -0.0363  0.1067  0.0739
30677W        W73589  30.297  33.990   9.623  0.1154 -0.3366 -0.1557
30678W        W73590  24.357   4.112   9.386 -0.0691  0.4689 -0.2388
30679W        W73591  26.081   3.377   8.210  0.2288 -0.0929 -0.2735
30680W        W73592  30.316   0.365   9.519  0.0538 -0.0024 -0.2401
30681W        W73593  28.258   1.192   8.892 -0.0638 -0.0851 -0.1046
30682W        W73594  27.053   1.851   8.723 -0.0378 -0.0152 -0.2856
30683W        W73595  25.903   2.604   9.510  0.2887 -0.0433  0.0863
30684W        W73596  29.530   2.710   8.213 -0.1827  0.0752  0.2313
30685W        W73597  24.894   3.313   8.708 -0.3033  0.0614 -0.2758
30686W        W73598  26.364   2.994   8.558 -0.1183  0.2458 -0.2251
30687W        W73599  26.322   0.729   8.078  0.1309  0.1041  0.0782
30688W        W73600  27.606   3.806   7.149  0.0827 -0.1480 -0.0556
30689W        W73601  26.995   0.875  10.154 -0.2024  0.0467  0.0972
30690W        W73602  25.471   5.530   7.571 -0.0845  0.1102 -0.0693
30691W        W73603  27.625   1.629   8.582  0.0368  0.3044 -0.0202
30692W        W73604  28.328   1.857   8.602 -0.0061 -0.1677 -0.4881
30693W        W73605  29.506   5.007  10.359  0.2102  0.0423 -0.1447
30694W        W73606  26.919   1.431   8.043 -0.0726 -0.0761  0.0487
30695W        W73607  26.825   4.082   9.116  0.0989  0.2849 -0.2388
30696W        W73608  25.407   3.696   6.786 -0.0339  0.0592 -0.0194
30697W        W73609  28.403   4.384   9.043  0.2845 -0.1867  0.1858
30698W        W73610  25.959   3.106   7.255  0.2783 -0.0799  0.0703
30699W        W73611  28.500  34.093   8.840  0.0777 -0.1403  0.2265
30700W        W73612  29.697   1.340   9.041 -0.0265 -0.2674 -0.3573
30701W        W73613  28.213   1.584   7.577 -0.0892  0.1244 -0.2505
30702W        W73614  26.642   3.237   9.044 -0.0624 -0.3240 -0.0952
30703W        W73615  26.668  34.192   7.583 -0.1587  0.1182 -0.1212
30704W        W73616  27.906   4.048   8.024  0.1306  0.3649  0.0227
30705W        W73617  25.081   0.514   7.920 -0.0188  0.0860  0.0019
30706W        W73618  27.499   1.716   9.188  0.1780 -0.1508  0.0197
30707W        W73619  31.243   1.583   9.960  0.2022  0.1928  0.0565
30708W        W73620  26.947   4.237   7.953 -0.2816 -0.0988  0.2279
30709W        W73621  28.322  34.263   9.747  0.0163 -0.0796  0.0542
30710W        W73622  25.364   4.030   8.063 -0.0522  0.0163 -0.1030
30711W        W73623  25.992   3.964   7.444  0.1110 -0.2728  0.3520
30712W        W73624  25.927   2.173  10.098 -0.3402  0.1274  0.1890
30713W        W73625  24.520  34.372   7.332  0.0256  0.3158 -0.1441
30714W        W73626  29.055   0.143   8.593  0.1646 -0.3380 -0.1252
30715W        W73627  24.250   4.802   9.466  0.1504 -0.0552  0.1941
30716W        W73628  26.166   1.664   9.248 -0.1190 -0.0550 -0.1172
30717W        W73629  28.099   0.951  10.139  0.1258  0.1507 -0.1581
30718W        W73630  28.067   1.476  10.014  0.1127  0.1233  0.1869
30719W        W73631  27.651   0.040  10.106 -0.3062 -0.1906  0.1520
30720W        W73632  28.041   1.103   8.037  0.1156  0.0003 -0.0826
30721W        W73633  27.887   2.126   8.636  0.0382 -0.1785 -0.1282
30722W        W73634  26.505   0.520  10.310 -0.2189  0.0636 -0.1411
30723W        W73635  29.085   0.428   7.380  0.1503 -0.0239  0.1456
30724W        W73636  27.453   2.209   8.958 -0.0430  0.2886 -0.1746
30725W        W73637  28.767  33.987   9.939  0.0493 -0.0962  0.1359
30726W        W73638  26.917  34.173  10.109  0.3340 -0.2717  0.1319
30727W        W73639  29.359   2.763   6.689 -0.1473 -0.1223 -0.0731
30728W        W73640  29.018   3.471   9.779  0.0637  0.0858  0.1553
30729W        W73641  27.625   3.768   7.671  0.1822  0.0273 -0.0029
30730W        W73642  29.046   1.499   8.351  0.0302 -0.2621  0.1868
30731W        W73643  27.755   2.990   9.037  0.1412  0.0659 -0.0501
30732W        W73644  27.057   1.918   9.358 -0.1590 -0.1063 -0.0612
30733W        W73645  25.729   1.354   8.321  0.1204 -0.1408  0.1787
30734W        W73646  28.917   4.614   9.963 -0.2172 -0.0159 -0.1277
30735W        W73647  28.087  34.596   7.874 -0.0109 -0.1400 -0.0971
30736W        W73648  25.767   1.444   9.188  0.3445  0.2419  0.0528
30737W        W73649  25.479   3.864   7.556  0.0463 -0.0976  0.0564
30738W        W73650  29.077   0.560  10.201  0.3190  0.4485  0.2416
30739W        W73651  26.254   3.297   6.857 -0.1377  0.0774  0.0749
30740W        W73652  24.892   3.744   8.207 -0.2450 -0.2094 -0.0322
30741W        W73653  25.897   0.898   6.889 -0.0647  0.1864  0.0647
30742W        W73654  28.390   4.017   7.706 -0.1627  0.1874 -0.0805
30743W        W73655  26.278   4.957   8.469 -0.2065 -0.0209  0.0356
30744W        W73656  28.100   3.581   7.830 -0.0638 -0.0770  0.1382
30745W        W73657  25.956   0.568   9.924 -0.2216 -0.0869 -0.2178
30746W        W73658  28.544   2.790   8.240 -0.2808  0.2089  0.2436
30747W        W73659  29.485   0.627   9.503 -0.1607 -0.0551 -0.4019
30748W        W73660  29.627   1.516   8.553  0.0168  0.2896  0.3645
30749W        W73661  28.036  34.205   8.293 -0.2998  0.1361  0.0736
30750W        W73662  25.101   3.077   9.208 -0.1946  0.1161  0.1081
30751W        W73663  26.189   1.476   7.563  0.0030 -0.1379  0.0782
30752W        W73664  26.645   2.853   7.704  0.0994  0.1934 -0.1972
30753W        W73665  26.412   2.938   9.300  0.1144  0.0981  0.1873
30754W        W73666  26.470   0.744   9.804 -0.3112  0.5458 -0.1316
30755W        W73667  27.084   0.597   8.915  0.3793 -0.2093 -0.2495
30756W        W73668  28.382   3.469   7.443 -0.0719  0.2210 -0.0368
30757W        W73669  26.135   0.053  10.219 -0.3671 -0.0652 -0.1112
30758W        W73670  25.338   1.233   9.301  0.3201  0.2298  0.0897
30759W        W73671  27.540   2.471   8.458 -0.3367  0.2551 -0.0750
30760W        W73672  29.076   3.637   8.186  0.1966 -0.1542 -0.0143
30761W        W73673  26.892   0.446   8.358 -0.0227 -0.0188  0.1919
30762W        W73674  25.915   2.810   6.780  0.1339  0.2448  0.0075
30763W        W73675  25.540   0.023   7.885 -0.0568  0.0021 -0.0409
30764W        W73676  25.361   0.602  10.350  0.0242 -0.2314 -0.0805
30765W        W73677  26.529   2.650   8.223  0.2110  0.2814 -0.2366
30766W        W73678  28.414   1.755   6.518  0.0772  0.1310 -0.3766
30767W        W73679  25.889   1.468   9.756 -0.2154 -0.4727  0.0265
30768W        W73680  28.844   2.258   7.834  0.0720 -0.0651 -0.1790
30769W        W73681  28.962   3.534   9.246 -0.0639  0.3357 -0.0350
30770W        W73682  29.882   0.630   8.576 -0.0108 -0.1443 -0.0755
30771W        W73683  28.119   2.769   7.996 -0.0604  0.1366 -0.0179
30772W        W73684  28.991   1.489   7.366  0.3650 -0.2906 -0.1756
30773W        W73685  27.177  34.613   9.845 -0.2158  0.0118 -0.4704
30774W        W73686  27.643   1.242  10.026 -0.0328 -0.0159 -0.1200
30775W        W73687  26.194   4.472   8.266 -0.0829  0.1119 -0.2418
30776W        W73688  26.687   2.306   9.552 -0.1221  0.1424 -0.2174
30777W        W73689  27.564   1.163   7.728 -0.2130  0.1981 -0.0574
30778W        W73690  27.481  34.685  10.570 -0.3650 -0.1391 -0.2045
30779W        W73691  27.459   1.301   8.889  0.1442  0.2172  0.0725
30780W        W73692  29.336   2.732   7.305  0.0636  0.0495 -0.0033
30781W        W73693  27.565   4.348   9.737  0.4106  0.0148  0.0575
30782W        W73694  30.074   5.337   9.710  0.4458 -0.2412 -0.1915
30783W        W73695  28.891   2.751   9.609 -0.3919  0.1661 -0.2237
30784W        W73696  26.689  34.413   9.767  0.0079 -0.0510 -0.0291
30785W        W73697  27.523   1.990   8.256 -0.0273 -0.3599 -0.3258
30786W        W73698  27.254   2.499   6.700 -0.2829  0.0967 -0.0288
30787W        W73699  29.259   1.674   8.801 -0.4504  0.0316 -0.2777
30788W        W73700  28.029  34.654   9.566  0.1793 -0.0989  0.3295
30789W        W73701  27.438  34.517   9.384 -0.1896  0.0184  0.0513
30790W        W73702  25.673   3.168   8.039  0.0760 -0.1498  0.0756
30791W        W73703  28.070   1.991   9.708  0.0070 -0.1229 -0.3015
30792W        W73704  25.763   7.371   1.276  0.0891 -0.2309 -0.0013
30793W        W73705  25.147   5.754   1.425 -0.3527 -0.1198  0.1430
30794W        W73706  27.002   4.097   0.979  0.2410 -0.1375  0.0068
30795W        W73707  29.278   5.524   0.748 -0.1387 -0.0229 -0.0707
30796W        W73708  24.938   4.895   0.845  0.1090  0.1934  0.1210
30797W        W73709  28.849   8.743   0.844 -0.0745  0.2305 -0.0949
30798W        W73710  26.690   5.426   2.188  0.0490 -0.0618 -0.3172
30799W        W73711  27.566   6.388   0.795 -0.2055 -0.0524 -0.1314
30800W        W73712  27.886   7.308   2.606  0.2026  0.0306  0.1572
30801W        W73713  28.882   5.271   0.521 -0.0622  0.0281 -0.0955
30802W        W73714  28.020   4.627   1.672 -0.2811 -0.2696 -0.0179
30803W        W73715  27.613   6.537   1.250 -0.0124 -0.0025 -0.2569
30804W        W73716  27.506   5.791  31.478  0.0281 -0.4578 -0.0471
30805W        W73717  27.295   4.253   2.834 -0.1483 -0.1205  0.2273
30806W        W73718  27.989   6.330   3.791 -0.0930 -0.3333 -0.0338
30807W        W73719  25.718   5.500   0.252  0.0489  0.2252  0.0583
30808W        W73720  27.292   5.607   0.688 -0.0678  0.1304  0.1346
30809W        W73721  26.669   4.672   1.563  0.1589 -0.1150  0.1280
30810W        W73722  27.282   6.835   2.278 -0.2451 -0.3577 -0.1832
30811W        W73723  26.391   4.635   2.453 -0.1231 -0.0659 -0.2178
30812W        W73724  26.954   3.969   4.196  0.1828 -0.1974 -0.0121
30813W        W73725  27.756   7.848   0.886  0.0399  0.2246 -0.1193
30814W        W73726  26.694   5.426   0.658 -0.3072  0.4495  0.1478
30815W        W73727  25.859   5.262   2.616 -0.2397  0.3228 -0.1113
30816W        W73728  25.437   5.622   2.483  0.2862 -0.1236 -0.2174
30817W        W73729  28.399   5.793   2.931  0.1730 -0.0347 -0.1113
30818W        W73730  29.003   5.557   1.301  0.1004 -0.0607 -0.0741
30819W        W73731  26.799   7.702   1.968  0.1353  0.3554 -0.1498
30820W        W73732  27.844   6.741   2.035  0.0435  0.0005 -0.0365
30821W        W73733  27.892   5.819   3.139 -0.0245  0.2205 -0.1335
30822W        W73734  25.267   6.179   1.762  0.1741  0.2181 -0.3213
30823W        W73735  25.305   6.755  31.657 -0.1666 -0.2811 -0.1719
30824W        W73736  26.240   7.678   2.564  0.1386 -0.2783  0.1051
30825W        W73737  29.023   5.558   2.356  0.0898 -0.3173  0.0384
30826W        W73738  25.928   7.334   2.704 -0.0993  0.1090 -0.2373
30827W        W73739  23.961   8.636   1.026  0.0353  0.1717  0.0239
30828W        W73740  27.360   7.414   2.478  0.1281 -0.1118 -0.0316
30829W        W73741  26.701   5.973   2.281  0.2355 -0.1962  0.3958
30830W        W73742  26.992   5.825   2.692  0.0237  0.0537  0.0084
30831W        W73743  28.056   5.508   1.820 -0.1752 -0.0371 -0.0747
30832W        W73744  25.483   8.786   1.145 -0.1339 -0.0829  0.2822
30833W        W73745  27.990   7.391   0.899  0.1439 -0.0541 -0.1057
30834W        W73746  27.166   7.107   3.152  0.2307  0.1029 -0.1115
30835W        W73747  27.523   7.276   1.778  0.0740 -0.4173 -0.0326
30836W        W73748  28.453   4.181   4.756  0.1152  0.2359 -0.0299
30837W        W73749  26.151   7.045   1.079 -0.2027  0.0331 -0.0454
30838W        W73750  28.927   5.163  31.581  0.0297  0.0595  0.0315
30839W        W73751  26.921   5.807  31.684 -0.2433 -0.1683 -0.2373
30840W        W73752  28.408   5.658  31.572 -0.1813  0.0713 -0.3662
30841W        W73753  27.471   5.726   3.441 -0.4408 -0.1660 -0.0940
30842W        W73754  26.492   9.346   0.496 -0.0964  0.0879  0.3814
30843W        W73755  27.160   3.734   3.723 -0.0924 -0.3955 -0.1054
30844W        W73756  28.554   5.744   3.513  0.3253  0.1672 -0.1246
30845W        W73757  27.621   5.910   2.048  0.0419  0.2027 -0.0563
30846W        W73758  26.819   6.390   0.559 -0.0433 -0.0075  0.0576
30847W        W73759  25.269   7.632   1.671  0.4152  0.0719  0.0722
30848W        W73760  25.686   4.879   1.381  0.1396  0.2437  0.0285
30849W        W73761  28.646   6.155   0.525 -0.3759 -0.1156  0.0421
30850W        W73762  28.712   6.985   1.367 -0.1200  0.2296 -0.2482
30851W        W73763  27.658   8.267   1.249  0.1373  0.2639 -0.0283
30852W        W73764  27.330   5.453   1.582 -0.1220  0.1487 -0.2693
30853W        W73765  25.094   5.296   2.308 -0.0934  0.2184  0.2057
30854W        W73766  26.223   5.361   3.061 -0.0483 -0.0050  0.1542
30855W        W73767  26.328   3.165  30.412  0.1443 -0.1232 -0.3367
30856W        W73768  29.417   5.537   4.647  0.2996 -0.0685  0.3171
30857W        W73769  24.696   7.116   1.869 -0.0516  0.0173  0.3633
30858W        W73770  29.299   4.148   0.522  0.2450  0.0200 -0.2943
30859W        W73771  26.376   7.923   1.688 -0.1606  0.2815 -0.0967
30860W        W73772  29.331   6.270   2.866  0.1587  0.0890 -0.2197
30861W        W73773  30.132   8.557  30.245  0.0032  0.1154 -0.2907
30862W        W73774  29.123   4.475   2.453  0.2030  0.4207 -0.4790
30863W        W73775  27.470   4.186   3.321 -0.1104 -0.0780  0.0287
30864W        W73776  26.899   6.872   0.433  0.2072  0.0663  0.2551
30865W        W73777  25.721   6.646   0.525 -0.2075  0.2461  0.0574
30866W        W73778  29.241   5.962   3.264  0.0365 -0.0767  0.1924
30867W        W73779  27.982   5.561  31.306  0.0903  0.0599  0.2899
30868W        W73780  25.739   7.188   1.757 -0.1151 -0.0566 -0.0764
30869W        W73781  27.635   5.118   2.599  0.0503 -0.0343 -0.0399
30870W        W73782  27.213   6.793   3.549  0.2515  0.2099 -0.3382
30871W        W73783  25.832   9.023   0.836  0.1493  0.0375 -0.0146
30872W        W73784  25.685   7.104   0.740 -0.1383 -0.0078 -0.1392
30873W        W73785  26.431   6.468  31.712  0.1012  0.2037  0.2192
30874W        W73786  25.311   4.024   2.261  0.1980  0.1908  0.0227
30875W        W73787  27.090   6.482   1.474  0.0204  0.1308 -0.1630
30876W        W73788  29.200   2.453   1.261 -0.2361  0.3032  0.2029
30877W        W73789  27.585   4.542   2.568 -0.0861 -0.2053 -0.0405
30878W        W73790  27.678   4.507   2.023 -0.0698  0.1183  0.2229
30879W        W73791  25.898   5.076   1.767  0.1415  0.2073  0.0751
30880W        W73792  28.867   7.437   1.230  0.0973  0.0734  0.1163
30881W        W73793  29.135   6.345  31.693 -0.1359  0.1688  0.2566
30882W        W73794  28.407   5.989   0.961  0.0007 -0.1507 -0.1079
30883W        W73795  25.302   5.721   2.015 -0.3451 -0.1846 -0.3016
30884W        W73796  25.941   4.748   0.884 -0.2590  0.1614  0.1501
30885W        W73797  27.339   5.150   4.233  0.2569 -0.0867 -0.0318
30886W        W73798  26.075   3.966   1.481  0.1175 -0.0310 -0.1754
30887W        W73799  28.925   3.620   4.402  0.2336 -0.0915 -0.0692
30888W        W73800  26.659   3.773   2.244  0.0605  0.0569  0.0483
30889W        W73801  27.900   5.461   0.759  0.3498  0.0833 -0.3262
30890W        W73802  27.819   5.961   0.820 -0.0683 -0.1019  0.1147
30891W        W73803  25.680   7.520   0.288 -0.0340 -0.0022  0.2819
30892W        W73804  28.257   3.767   3.072  0.0744  0.0218 -0.1388
30893W        W73805  28.229   6.763   1.572 -0.1394  0.2791 -0.0210
30894W        W73806  29.354   6.760   3.403 -0.1347 -0.1139 -0.0194
30895W        W73807  28.736   6.339   2.184  0.2588 -0.1763  0.2230
30896W        W73808  26.534   4.379   1.978  0.0693 -0.5175  0.0464
30897W        W73809  26.199   5.208   0.574 -0.2113 -0.2438  0.3966
30898W        W73810  26.065   8.952   0.418  0.1373  0.2869 -0.2061
30899W        W73811  26.008   6.511   0.127  0.0171 -0.0054 -0.1571
30900W        W73812  27.017   5.505   1.105  0.2735  0.2356 -0.0094
30901W        W73813  27.683   7.851   2.633 -0.1645 -0.3533  0.1312
30902W        W73814  25.666   6.222   2.210  0.2394 -0.1898  0.1011
30903W        W73815  25.194   6.494   2.973  0.0876 -0.1246 -0.0095
30904W        W73816  28.965   4.667   4.386  0.4382  0.1243  0.2537
30905W        W73817  28.378   5.353   3.285  0.1623 -0.3391  0.1933
30906W        W73818  28.808   6.512   1.618  0.2826 -0.0353  0.1076
30907W        W73819  28.242   4.353  31.732  0.1267 -0.0460 -0.1242
30908W        W73820  27.950   8.026   2.197  0.0606  0.0204  0.2678
30909W        W73821  25.218   8.326   1.068 -0.1729 -0.0152  0.2337
30910W        W73822  25.051   5.078   1.437 -0.2549 -0.0028 -0.3036
30911W        W73823  26.034   7.424   0.779  0.0751 -0.3139 -0.0026
30912W        W73824  28.164   4.879   3.312 -0.0546 -0.1652  0.2277
30913W        W73825  26.243   4.814   2.910  0.1094 -0.4164 -0.0492
30914W        W73826  25.781   4.682   3.646  0.2398  0.0236 -0.1011
30915W        W73827  26.037   6.013   1.042 -0.0175  0.1071  0.0431
30916W        W73828  26.561   5.143   2.653  0.0127  0.0978  0.3292
30917W        W73829  28.414   4.377   0.911  0.0842 -0.1739  0.0454
30918W        W73830  27.903   5.045   0.281  0.2545 -0.1813  0.0509
30919W        W73831  27.461   5.171   4.751  0.0428 -0.1567 -0.3153
30920W        W73832  29.153   5.611   1.847 -0.1235 -0.0536 -0.0923
30921W        W73833  27.908   5.795  31.798 -0.1470 -0.2395  0.1671
30922W        W73834  27.046   3.912   2.570 -0.0811  0.0147  0.1145
30923W        W73835  24.696   5.979   2.360 -0.2450  0.2354 -0.0692
30924W        W73836  26.502   6.189   0.910 -0.2336 -0.1410  0.1485
30925W        W73837  26.688   8.413   1.372 -0.2507  0.1199 -0.1717
30926W        W73838  28.578   5.349  31.896  0.1667  0.0039 -0.3300
30927W        W73839  28.329   6.746   0.281  0.0747 -0.1851 -0.1483
30928W        W73840  26.418   6.617   2.393  0.1653 -0.1584  0.1095
30929W        W73841  27.956   6.230   4.359  0.1545 -0.3357 -0.3541
30930W        W73842  28.143   7.169   2.196  0.0623 -0.1134 -0.1691
30931W        W73843  27.343   5.553   2.446  0.0418 -0.2719 -0.1833
30932W        W73844  27.758   5.293  31.658 -0.0322  0.1513 -0.0600
30933W        W73845  27.559   4.742  31.412 -0.0814 -0.0425  0.1146
30934W        W73846  24.846   7.272   0.347  0.0962  0.0911 -0.0605
30935W        W73847  27.916   5.033   2.101 -0.2486 -0.0877  0.1008
30936W        W73848  27.445   4.147   1.812 -0.2728  0.0779 -0.1275
30937W        W73849  28.517   5.476   2.089  0.2287 -0.1003 -0.2249
30938W        W73850  28.702   5.145   4.049  0.0235  0.1297  0.1344
30939W        W73851  28.267   5.287   1.049 -0.2651  0.1076  0.1796
30940W        W73852  27.006   6.182   1.894  0.0068 -0.1973  0.0302
30941W        W73853  26.529   6.493   1.347  0.4139  0.2460 -0.1102
30942W        W73854  28.116   4.069   3.911  0.3288 -0.0534  0.1681
30943W        W73855  25.820   5.875   1.801  0.0475 -0.0394 -0.0461
30944W        W73856  27.089   8.130   3.604 -0.1571 -0.1899  0.0584
30945W        W73857  28.564   7.665   3.995  0.0742 -0.0540 -0.1163
30946W        W73858  28.304   7.785   0.983  0.0649 -0.0387  0.0051
30947W        W73859  26.781   4.719   4.849  0.1461 -0.0383 -0.1375
30948W        W73860  28.139   6.261   0.074 -0.3049  0.1059  0.1782
30949W        W73861  27.397   8.224   2.112  0.2358 -0.1988  0.1425
30950W        W73862  26.950   7.161   0.944  0.2821  0.0518  0.1131
30951W        W73863  25.940   3.889   2.882 -0.6058 -0.1288 -0.1456
30952W        W73864  26.328   7.539   2.096 -0.0766  0.0765 -0.0399
30953W        W73865  24.914   7.934   1.403  0.2106  0.1030  0.2101
30954W        W73866  28.658   6.054   4.407 -0.0042  0.0416 -0.0177
30955W        W73867  24.991   7.895   0.894 -0.2325 -0.1784  0.2117
30956W        W73868  28.670   4.331   2.094  0.1219 -0.0141 -0.1509
30957W        W73869  25.149   7.021   2.635  0.2305 -0.4058 -0.0899
30958W        W73870  27.689   5.629   0.335  0.0676  0.1397  0.1476
30959W        W73871  25.381   4.030   1.748  0.1117  0.1083 -0.2337
30960W        W73872  28.205   3.343   0.838 -0.1287 -0.0206 -0.2438
30961W        W73873  28.094   6.456   1.086 -0.0004  0.0476  0.1746
30962W        W73874  24.575   4.408   3.202 -0.1953  0.0153 -0.1379
30963W        W73875  25.933   2.468   1.897  0.0040 -0.0969  0.2054
30964W        W73876  26.132   6.585   0.962  0.0988  0.0676 -0.1848
30965W        W73877  26.793   6.956   2.316 -0.3192 -0.0186 -0.0115
30966W        W73878  28.379   4.133  31.300 -0.1300 -0.2745 -0.4787
30967W        W73879  27.945   6.815   3.030  0.0647  0.1980 -0.0071
30968W        W73880  25.951   4.163   1.920  0.0594  0.1575  0.1053
30969W        W73881  26.177   4.643   1.689  0.0918  0.1213  0.2438
30970W        W73882  28.562   4.124   3.595  0.0311 -0.0809 -0.2088
30971W        W73883  26.624   3.758   1.202 -0.4298  0.0242  0.0663
30972W        W73884  26.068   6.715   1.460 -0.2352  0.4136  0.1450
30973W        W73885  28.472   7.515   2.004  0.0507 -0.4888 -0.0448
30974W        W73886  27.018   7.443   0.450  0.1823 -0.4431  0.0783
30975W        W73887  26.539   8.742   0.417  0.2817 -0.3325  0.1749
30976W        W73888  25.061   4.617   3.114  0.0505  0.0644 -0.2583
30977W        W73889  28.607   5.910   2.316 -0.0708 -0.0726  0.0923
30978W        W73890  26.684   4.885   2.066  0.0873  0.4300 -0.4614
30979W        W73891  26.431   3.978  31.443  0.3504 -0.0956  0.2596
30980W        W73892  27.433   6.176   1.633  0.1591  0.1705  0.0778
30981W        W73893  28.199   6.002   2.533 -0.2185  0.0441 -0.0933
30982W        W73894  28.029   5.402   2.898  0.6224  0.1029 -0.2636
30983W        W73895  26.765   6.198   2.792 -0.4480  0.0956 -0.0510
30984W        W73896  26.030   5.166   1.150  0.1613 -0.0393  0.7158
30985W        W73897  28.751   8.699   2.335 -0.0779 -0.1670  0.0988
30986W        W73898  26.714   5.575   1.645 -0.1057  0.1445  0.0660
30987W        W73899  26.032   6.199   1.559 -0.1946  0.1631 -0.0356
30988W        W73900  25.172   6.155   1.002  0.0235  0.3982 -0.3108
30989W        W73901  25.566   6.439   1.477 -0.0546  0.2731 -0.3581
30990W        W73902  25.999   5.596   1.444 -0.0740 -0.3376  0.2997
30991W        W73903  24.754   7.926   2.915 -0.3851  0.1471 -0.2870
30992W        W73904  24.675   6.849  31.516 -0.0642 -0.2362  0.2122
30993W        W73905  24.422   6.729   1.860 -0.2118 -0.1198 -0.0493
30994W        W73906  27.823   3.754   0.866 -0.1791 -0.0462  0.0549
30995W        W73907  27.659   6.143   0.357 -0.2238 -0.1779 -0.2450
30996W        W73908  27.160   5.164   2.667 -0.1202 -0.1115  0.0454
30997W        W73909  29.572   3.472   2.862 -0.1697 -0.2182 -0.1508
30998W        W73910  28.500   6.744  31.522  0.0862  0.0884  0.0207
30999W        W73911  27.881   5.067   4.280 -0.3791 -0.2319  0.0879
31000W        W73912  27.267   4.737   2.848  0.2834 -0.3014  0.2024
31001W        W73913  28.354   6.575   2.018 -0.0382  0.1334 -0.1185
31002W        W73914  25.393   5.033   1.883  0.0846 -0.2988 -0.2802
31003W        W73915  27.684   5.992   4.013 -0.1368  0.0349 -0.1088
31004W        W73916  25.561   5.690   2.973  0.0479 -0.1609  0.3628
31005W        W73917  27.487   5.030   1.770 -0.2853 -0.1410 -0.1250
31006W        W73918  27.787   4.580   0.364  0.1484  0.2084  0.0701
31007W        W73919  27.401   6.320   2.130 -0.0426  0.3928 -0.1498
31008W        W73920  29.705   5.364   1.584  0.0750  0.4260  0.0454
31009W        W73921  27.842   6.863   0.951  0.0841 -0.3179 -0.0489
31010W        W73922  27.931   5.624   1.278 -0.4905 -0.5583 -0.1347
31011W        W73923  25.841   5.877   2.526 -0.1936  0.1100 -0.2095
31012W        W73924  27.433   5.896   1.182  0.2674  0.0403 -0.1462
31013W        W73925  27.195   6.052   0.505  0.0984 -0.0671  0.0353
31014W        W73926  26.686   7.169   1.880 -0.1342  0.0119 -0.0972
31015W        W73927  27.524   5.142   3.571 -0.2373 -0.0107 -0.1747
31016W        W73928  27.906   6.097   1.316 -0.0653  0.0292  0.0978
31017W        W73929  27.885   5.088   1.513  0.0866 -0.1671  0.2140
31018W        W73930  28.825   4.076   3.091  0.0786  0.0582  0.0754
31019W        W73931  27.787   4.389   2.991  0.3489  0.3649 -0.0369
31020W        W73932  26.199   5.538   1.902  0.2426  0.2027 -0.1405
31021W        W73933  25.484   3.919   3.770 -0.0739  0.5422 -0.2668
31022W        W73934  28.403   7.892   3.203  0.0371  0.0783 -0.3885
31023W        W73935  27.279   4.889   1.296  0.3072 -0.1775  0.1707
31024W        W73936  27.893   3.958   4.548 -0.2511 -0.1059  0.0231
31025W        W73937  29.406   4.478   0.970 -0.3430 -0.1198 -0.0661
31026W        W73938  26.929   5.593   0.262 -0.1048  0.0927 -0.2709
31027W        W73939  26.908   4.738   2.498  0.1007  0.0658 -0.2604
31028W        W73940  29.103   4.977   2.799 -0.0550 -0.0972  0.3493
31029W        W73941  27.177   5.476  31.407 -0.1293 -0.3892  0.0733
31030W        W73942  28.335   5.265   4.946 -0.1941  0.1753 -0.0459
31031W        W73943  25.494   7.914   0.771 -0.0531 -0.3128 -0.2786
31032W        W73944  27.839   7.137   3.716 -0.4804  0.1352  0.0149
31033W        W73945  28.169   4.754   0.632 -0.3903 -0.0004  0.1548
31034W        W73946  26.733   4.296   2.450 -0.1358 -0.0820 -0.3981
31035W        W73947  25.361   6.639   2.388 -0.0332  0.2943  0.1157
31036W        W73948  26.145   4.791  31.172 -0.1930 -0.2315  0.1335
31037W        W73949  27.739   6.644   0.119  0.0367 -0.1350 -0.0824
31038W        W73950  27.612   5.918   2.568  0.0562 -0.2926  0.4941
31039W        W73951  29.044   5.778   4.337 -0.1479 -0.1031  0.0281
31040W        W73952  26.401   2.564  30.901  0.0849 -0.0258  0.1092
31041W        W73953  29.874   3.690   3.427 -0.2294  0.1580 -0.0344
31042W        W73954  25.865   7.065   0.179 -0.3579 -0.1634 -0.1086
31043W        W73955  28.000   4.253   1.276 -0.1293  0.1514  0.0588
31044W        W73956  26.754   7.482   2.435  0.2532 -0.1983  0.0282
31045W        W73957  26.060   5.860   3.036 -0.1469 -0.3414  0.2129
31046W        W73958  28.431   7.441   1.486  0.2342 -0.2370 -0.2081
31047W        W73959  27.101   5.206   2.194  0.2576  0.0967  0.4107
31048W        W73960  28.675   5.411   2.768  0.0645 -0.1545 -0.0956
31049W        W73961  27.134   6.300   0.977 -0.0224  0.0108 -0.3056
31050W        W73962  28.661   5.697   4.002  0.4073 -0.1695  0.0685
31051W        W73963  27.950   5.366   3.419 -0.0260 -0.0539  0.0232
31052W        W73964  25.647   6.307   0.985  0.1962 -0.4779  0.1661
31053W        W73965  27.879   6.311   2.277  0.1096  0.1240  0.0081
31054W        W73966  28.897   6.064   1.334 -0.0185  0.0248 -0.3253
31055W        W73967  28.011   7.354   1.772 -0.0799  0.3624  0.0114
31056W        W73968  24.406   5.523   2.688  0.0517  0.0487  0.0038
31057W        W73969  28.763   6.108   3.182  0.0390 -0.1898  0.1124
31058W        W73970  29.280   6.523   2.241  0.1389  0.1246  0.2884
31059W        W73971  27.404   3.487   0.617 -0.1649  0.0430 -0.0375
31060W        W73972  26.600   6.740   0.895 -0.1526 -0.5112  0.1455
31061W        W73973  26.332   6.594   3.440 -0.1602  0.2247  0.4660
31062W        W73974  25.641   7.091   2.269 -0.1528  0.1751  0.1017
31063W        W73975  25.980   8.728   1.328 -0.4650  0.0844 -0.1053
31064W        W73976  29.478   6.549   0.423 -0.0882  0.1456  0.0885
31065W        W73977  27.268   6.790   0.879  0.1970 -0.1210 -0.1786
31066W        W73978  28.043   7.613   2.978  0.2367 -0.1681  0.1511
31067W        W73979  27.722   4.779   0.916 -0.0407  0.0121 -0.2607
31068W        W73980  25.068   8.291   2.335  0.2342 -0.0030  0.3454
31069W        W73981  25.279   7.112   1.468 -0.1683  0.0533  0.0534
31070W        W73982  28.124   8.101   1.346 -0.1619  0.3610 -0.3249
31071W        W73983  25.715   8.314   1.047  0.1203  0.0083 -0.1546
31072W        W73984  28.559   4.971   2.995 -0.1123 -0.2549 -0.0529
31073W        W73985  28.776   3.579   0.689 -0.1051  0.3219  0.0831
31074W        W73986  28.903   4.433   1.084  0.0897 -0.2311  0.0268
31075W        W73987  28.796   4.262  31.014 -0.2376 -0.1463 -0.0287
31076W        W73988  26.515   6.054   3.602  0.2502 -0.2794  0.3074
31077W        W73989  25.684   7.556   2.144 -0.3712 -0.3793  0.2429
31078W        W73990  25.696   5.701   0.821 -0.2775  0.2394 -0.2931
31079W        W73991  26.937   4.620   3.550  0.1569 -0.2765 -0.0495
31080W        W73992  29.662   4.112   1.320  0.2627  0.1427  0.0447
31081W        W73993  25.757   6.256   3.067  0.1037  0.2297  0.2348
31082W        W73994  28.590   8.466   0.331 -0.1404 -0.3660 -0.3981
31083W        W73995  25.643   4.019   1.046  0.0093 -0.2204 -0.1474
31084W        W73996  26.691   7.082   2.867  0.1017  0.0128  0.0067
31085W        W73997  28.794   4.162   2.579  0.1998 -0.3462  0.0441
31086W        W73998  28.129   5.903   0.462 -0.2109  0.0525 -0.1509
31087W        W73999  28.560   5.128   1.399 -0.2237  0.1308  0.0678
31088W        W74000  26.001   8.198   1.511  0.1370 -0.0833  0.1535
31089W        W74001  26.674   9.317   1.066 -0.2652 -0.2739 -0.1900
31090W        W74002  26.566   6.989   1.349 -0.0349  0.2314  0.0004
31091W        W74003  26.071   4.667  31.722  0.1394  0.1089 -0.3239
31092W        W74004  28.113   4.807   2.776  0.1914  0.1096 -0.0734
31093W        W74005  26.133   4.984   3.463 -0.1526  0.0830  0.2003
31094W        W74006  28.044   3.586   3.988  0.0135  0.2446 -0.3679
31095W        W74007  26.420   5.130   1.584 -0.0086 -0.0666 -0.2011
31096W        W74008  28.720   3.988   0.385 -0.1593 -0.0187  0.0131
31097W        W74009  27.600   5.410   2.054 -0.0783  0.0876  0.0843
31098W        W74010  26.078   4.233   0.898 -0.0105  0.2871  0.1321
31099W        W74011  26.848   4.588   1.039  0.1573 -0.0978  0.3992
31100W        W74012  28.445   4.412   2.898 -0.0830  0.2269  0.0534
31101W        W74013  27.260   6.565   0.436 -0.0880  0.0156  0.2259
31102W        W74014  27.333   7.255   3.636 -0.1957 -0.2259 -0.0528
31103W        W74015  27.090   3.418   2.759 -0.3641  0.0512  0.0379
31104W        W74016  28.924   5.786  31.751  0.0940  0.2214 -0.1808
31105W        W74017  26.575   5.984   0.416 -0.2469 -0.0694 -0.0310
31106W        W74018  26.886   4.466   3.001  0.2253 -0.4305 -0.0630
31107W        W74019  28.040   6.873   4.081  0.2602 -0.3544  0.1654
31108W        W74020  26.306   4.013   2.461  0.1882  0.0392  0.1977
31109W        W74021  29.053   5.816   0.309  0.1749 -0.1281 -0.1012
31110W        W74022  28.820   5.265   1.762 -0.2485 -0.1840 -0.2183
31111W        W74023  27.645   8.640   1.674  0.0628 -0.3265 -0.0024
31112W        W74024  28.614   5.664   0.431  0.0092  0.3848 -0.0724
31113W        W74025  28.528   7.983   2.168 -0.0614 -0.1580  0.2867
31114W        W74026  27.198   4.285   2.324 -0.0920 -0.1493  0.2290
31115W        W74027  28.206   7.229   3.253  0.0144 -0.2082 -0.0112
31116W        W74028  28.883   7.408   3.057 -0.3224  0.1336 -0.0303
31117W        W74029  26.752   5.098   1.239 -0.2127  0.1359 -0.1864
31118W        W74030  26.487   5.471   1.114  0.2299  0.2379  0.0499
31119W        W74031  24.777   7.777   0.437  0.0860  0.0315  0.4444
31120W        W74032  28.240   4.650   2.189  0.0215 -0.0046 -0.2680
31121W        W74033  30.284   6.598   3.300  0.2758 -0.2521 -0.0134
31122W        W74034  28.951   3.712   2.801  0.3399  0.0289  0.0939
31123W        W74035  27.466   6.678   1.742 -0.0092 -0.2568 -0.1738
31124W        W74036  25.415   7.422   2.908  0.3306 -0.1439  0.4438
31125W        W74037  25.992   6.883  31.196 -0.0313 -0.1112  0.3312
31126W        W74038  27.794   6.313   3.378  0.0158 -0.0039  0.0650
31127W        W74039  25.756   6.724   1.898 -0.2035 -0.2191  0.0792
31128W        W74040  27.488   7.108   0.618  0.1286  0.2623  0.0362
31129W        W74041  28.347   6.491   2.605 -0.0900 -0.2869 -0.0109
31130W        W74042  27.627   5.226   1.141 -0.0338 -0.1879 -0.1458
31131W        W74043  28.638   7.008   1.892  0.4129  0.3413  0.0533
31132W        W74044  28.358   5.025   1.881 -0.1237 -0.0216  0.2006
31133W        W74045  28.383   4.917   0.167 -0.0474  0.1596 -0.3034
31134W        W74046  28.173   4.779   1.176 -0.0153  0.3341  0.0182
31135W        W74047  28.257   6.264   3.323  0.3294 -0.3680 -0.0264
31136W        W74048  25.738   5.000   0.500  0.0641 -0.0671  0.0595
31137W        W74049  26.255   5.753   0.654 -0.0061  0.1093  0.4803
31138W        W74050  26.272   5.539   2.510 -0.1208 -0.0137 -0.2899
31139W        W74051  26.593   3.392   4.316 -0.2416  0.2175  0.0241
31140W        W74052  26.429   4.181   2.893  0.1538  0.1491  0.0401
31141W        W74053  25.436   6.129   2.657 -0.0220 -0.0404 -0.0551
31142W        W74054  26.143   4.722   0.389 -0.1167  0.6966  0.5000
31143W        W74055  28.631   7.951   1.339 -0.0377 -0.1766 -0.1165
31144W        W74056  26.985   5.081   1.704  0.4523  0.2473 -0.2190
31145W        W74057  25.664   4.749   2.800  0.1403  0.0638  0.4161
31146W        W74058  27.896   6.739   2.518 -0.6345 -0.0210 -0.1414
31147W        W74059  28.263   7.031   1.143  0.0345 -0.0181 -0.1714
31148W        W74060  26.554   4.835   0.729  0.1590  0.0994  0.0603
31149W        W74061  29.022   8.535   3.878 -0.2041 -0.0073  0.0594
31150W        W74062  25.291   5.360  31.904 -0.0428  0.0657 -0.0625
31151W        W74063  27.812   4.415   3.622  0.2258 -0.1703 -0.0900
31152W        W74064  28.114   5.834   3.675  0.2984  0.1249 -0.2068
31153W        W74065  26.631   3.744   1.731  0.0850 -0.1945 -0.3585
31154W        W74066  27.412   4.844   2.225  0.0201  0.0187  0.1139
31155W        W74067  26.945   6.418   2.375 -0.1345  0.0329  0.0091
31156W        W74068  28.361   8.609   0.813 -0.1541 -0.1970  0.1498
31157W        W74069  28.423   6.215   1.422  0.2901 -0.2421  0.3961
31158W        W74070  25.945   7.671   1.634  0.1030  0.2502 -0.3350
31159W        W74071  26.649   4.289   4.500 -0.1515  0.0628 -0.0264
31160W        W74072  29.457   7.509   0.483  0.0341  0.0718  0.0609
31161W        W74073  27.021   6.792   1.871  0.3540  0.1137 -0.0946
31162W        W74074  29.626   6.408   1.062  0.1502 -0.0193 -0.0623
31163W        W74075  28.620   4.620   2.521  0.0426 -0.1442 -0.0318
31164W        W74076  29.104   6.085   2.379  0.1882  0.0448  0.2900
31165W        W74077  26.192   3.621   5.202 -0.0626 -0.3510 -0.0601
31166W        W74078  26.269   6.163   2.572  0.0579 -0.1185 -0.3049
31167W        W74079  29.835   5.038   2.450  0.2430 -0.0054  0.0299
31168W        W74080  26.446   2.225   0.804 -0.1688  0.0906  0.0695
31169W        W74081  28.732   3.961   0.977 -0.1142  0.2703 -0.1123
31170W        W74082  26.974   8.004   0.898 -0.0882 -0.0103 -0.3352
31171W        W74083  25.507   5.454   1.539 -0.1133  0.3409 -0.1420
31172W        W74084  28.103   5.474   0.106 -0.1757 -0.1116 -0.1457
31173W        W74085  27.989   5.550   2.330  0.1814  0.1384 -0.1327
31174W        W74086  27.894   6.367   1.741 -0.2690 -0.2218  0.2771
31175W        W74087  28.295   5.501   5.396 -0.0213  0.0335 -0.0073
31176W        W74088  26.566   4.187   1.426 -0.3302 -0.0271  0.0493
31177W        W74089  28.933   6.752   0.374  0.2492 -0.0218 -0.0207
31178W        W74090  27.533   6.952   2.737 -0.3955  0.2749 -0.0359
31179W        W74091  27.576   8.073   3.694  0.4176  0.1264 -0.0101
31180W        W74092  27.410   6.405   2.626 -0.0413  0.3277 -0.0716
31181W        W74093  29.295   5.081   1.779  0.0732 -0.2270  0.1097
31182W        W74094  26.845   5.423   3.006  0.0042 -0.1284  0.1070
31183W        W74095  26.560   6.200   1.768  0.1788  0.0351 -0.1875
31184W        W74096  26.470   5.929   1.341  0.1219 -0.2210 -0.1525
31185W        W74097  29.352   4.933   2.364 -0.0620 -0.0680  0.3651
31186W        W74098  26.362   4.583   1.180 -0.1144 -0.0526 -0.1398
31187W        W74099  26.613   4.285  30.972 -0.0480  0.1292 -0.3053
31188W        W74100  26.008   7.997   2.072  0.0349  0.0852 -0.4056
31189W        W74101  29.378   5.159   1.286  0.2337  0.2898 -0.0534
31190W        W74102  27.025   6.131   7.496 -0.1294 -0.1072 -0.0494
31191W        W74103  26.326   4.036   5.456  0.0449 -0.1022  0.1465
31192W        W74104  29.339   3.732   2.512  0.0649  0.0659  0.0819
31193W        W74105  28.751   5.637   5.676  0.1818 -0.0392  0.0999
31194W        W74106  25.578   6.530   4.970 -0.2188 -0.1970 -0.1099
31195W        W74107  28.183   6.302   6.202  0.0538 -0.1935  0.2464
31196W        W74108  27.362   5.198   8.682  0.0980  0.1044  0.0842
31197W        W74109  29.881   6.480   5.633  0.2641 -0.3909  0.3384
31198W        W74110  28.939   7.654   5.784 -0.1506 -0.1968 -0.0428
31199W        W74111  28.580   4.306   4.231  0.3654  0.0129  0.0057
31200W        W74112  26.799   5.528   7.073  0.0684  0.0390  0.1152
31201W        W74113  27.643   8.283   6.458 -0.0687 -0.0897  0.2785
31202W        W74114  27.907   5.388   4.643  0.1378  0.2085 -0.1404
31203W        W74115  25.107   3.115   5.995  0.0883  0.1439  0.0025
31204W        W74116  28.335   5.541   7.373 -0.0444 -0.0228 -0.0765
31205W        W74117  25.954   4.397   3.012 -0.1234 -0.3566 -0.0283
31206W        W74118  26.051   6.237   7.143  0.0285  0.0862  0.0390
31207W        W74119  26.076   4.422   5.702  0.1567  0.0281  0.0333
31208W        W74120  27.300   6.892   5.088 -0.3161  0.0847 -0.0086
31209W        W74121  27.074   5.138   7.348  0.3683  0.1096 -0.2580
31210W        W74122  27.648   4.707   7.879  0.0094 -0.0837  0.0662
31211W        W74123  28.334   7.321   5.028 -0.1479 -0.3201 -0.0028
31212W        W74124  26.332   4.120   3.813  0.1321  0.3551 -0.2055
31213W        W74125  25.673   5.214   3.724 -0.0554  0.2629  0.0228
31214W        W74126  26.313   5.830   6.289  0.0692  0.1703  0.0633
31215W        W74127  27.326   3.852   5.594 -0.3179  0.2007 -0.2204
31216W        W74128  28.589   6.532   6.285  0.3071  0.1546  0.1481
31217W        W74129  26.697   6.581   4.366  0.4021  0.0881  0.1180
31218W        W74130  27.627   6.295   5.023 -0.2583 -0.0528  0.0710
31219W        W74131  27.428   5.336   7.145 -0.0084 -0.2263 -0.0402
31220W        W74132  26.021   6.962   4.966  0.2930 -0.1093 -0.2642
31221W        W74133  26.621   8.088   6.783 -0.5130  0.0821  0.0254
31222W        W74134  27.166   6.381   4.100  0.0017  0.4990 -0.0629
31223W        W74135  29.388   6.730   5.160  0.0757 -0.1640 -0.0274
31224W        W74136  28.830   7.657   6.847 -0.3389  0.1572 -0.3682
31225W        W74137  26.628   7.328   6.285 -0.6294 -0.0044 -0.0601
31226W        W74138  26.549   4.848   3.739 -0.1089 -0.0458 -0.1188
31227W        W74139  27.349   8.004   7.603  0.1476 -0.0555 -0.0329
31228W        W74140  25.713   6.765   7.833  0.1646  0.1084  0.0040
31229W        W74141  28.202   5.939   7.043  0.1713 -0.0620 -0.1658
31230W        W74142  27.603   6.313   5.540  0.1893 -0.0197 -0.1229
31231W        W74143  27.050   6.745   2.797  0.2845  0.2914  0.2435
31232W        W74144  27.107   6.326   6.288 -0.2049  0.0726 -0.1504
31233W        W74145  26.876   6.072   6.757 -0.0076  0.1314 -0.1904
31234W        W74146  25.455   6.535   6.799 -0.3284 -0.0890  0.2722
31235W        W74147  27.965   5.577   7.726 -0.0165 -0.2409 -0.1505
31236W        W74148  26.603   7.696   3.425 -0.0635 -0.1551 -0.2256
31237W        W74149  29.155   4.970   5.889  0.1000 -0.0342  0.0697
31238W        W74150  26.580   4.782   4.301 -0.0583 -0.3045 -0.0220
31239W        W74151  27.080   4.935   4.585 -0.0797 -0.0677  0.1574
31240W        W74152  26.792   3.264   5.683  0.2031  0.0439 -0.0631
31241W        W74153  27.176   6.452   5.303  0.2526  0.0369 -0.1055
31242W        W74154  28.007   4.980   6.504 -0.1310  0.1042 -0.0681
31243W        W74155  27.169   6.096   7.996  0.5038  0.1446 -0.1588
31244W        W74156  27.406   6.162   4.478 -0.1159  0.0517  0.0299
31245W        W74157  27.695   5.358   6.302 -0.0922 -0.0349 -0.0045
31246W        W74158  26.238   5.442   6.554  0.1044 -0.1131 -0.0083
31247W        W74159  26.981   4.797   5.378 -0.1250  0.1004 -0.3971
31248W        W74160  27.889   5.787   5.379 -0.1118  0.0743 -0.2469
31249W        W74161  28.501   6.128   3.885  0.2335  0.2227 -0.1750
31250W        W74162  27.323   6.294   3.576  0.4623  0.2930 -0.0871
31251W        W74163  25.815   5.430   4.153 -0.1270 -0.2639  0.1491
31252W        W74164  25.219   7.526   7.870 -0.1362 -0.2798  0.0019
31253W        W74165  25.097   6.485   7.296 -0.1040  0.1222  0.2587
31254W        W74166  26.277   4.426   4.190 -0.0825 -0.0755 -0.1334
31255W        W74167  27.855   7.053   6.829 -0.1372 -0.0332  0.0117
31256W        W74168  26.632   8.246   7.272  0.0301  0.3363  0.1679
31257W        W74169  28.140   5.573   6.750 -0.0641  0.3622 -0.1810
31258W        W74170  26.857   5.915   6.123 -0.0041 -0.2594 -0.0136
31259W        W74171  29.239   7.817   6.628  0.2780 -0.0808  0.0602
31260W        W74172  28.346   4.819   4.119 -0.2509  0.1544 -0.1100
31261W        W74173  28.289   3.323   5.343  0.1642  0.1357  0.3089
31262W        W74174  27.225   4.826   7.016 -0.1752  0.2114  0.1818
31263W        W74175  27.054   5.910   3.677 -0.2367  0.2170  0.0499
31264W        W74176  26.812   5.201   4.208 -0.0836 -0.3074 -0.0653
31265W        W74177  29.869   7.529   7.258  0.1864  0.0416  0.1575
31266W        W74178  29.115   5.237   5.492 -0.2771  0.2920  0.2090
31267W        W74179  26.456   6.465   5.439  0.0970  0.4105 -0.1086
31268W        W74180  26.155   6.187   8.158  0.3435 -0.0381  0.0331
31269W        W74181  28.290   6.805   6.617  0.0617 -0.0157  0.1249
31270W        W74182  26.663   6.953   3.342 -0.0542 -0.1763  0.1295
31271W        W74183  26.514   6.887   3.813 -0.1160  0.1074  0.0603
31272W        W74184  26.153   7.041   2.091  0.0152  0.1356  0.2186
31273W        W74185  26.267   4.533   6.229  0.1221 -0.2598 -0.0601
31274W        W74186  26.148   6.567   6.377  0.1738 -0.0301 -0.0059
31275W        W74187  28.932   4.573   6.470  0.1441 -0.0193 -0.0688
31276W        W74188  25.607   3.148   6.058 -0.2517  0.1341  0.1405
31277W        W74189  28.124   5.028   5.452 -0.0980  0.0756 -0.1168
31278W        W74190  26.180   6.388   4.181  0.0324 -0.1076 -0.0732
31279W        W74191  30.308   7.530   3.367 -0.1695  0.3883  0.0823
31280W        W74192  28.335   5.363   3.863 -0.1276  0.2564 -0.0816
31281W        W74193  28.528   6.672   3.864 -0.2989  0.3227 -0.1269
31282W        W74194  25.757   5.519   5.090  0.1181 -0.1052 -0.3167
31283W        W74195  26.898   4.272   4.971  0.2288  0.3266 -0.0459
31284W        W74196  26.506   4.575   7.553  0.2136 -0.1169  0.1073
31285W        W74197  26.074   5.046   6.281  0.1266 -0.0538 -0.1594
31286W        W74198  28.844   5.745   7.305 -0.0881 -0.0632 -0.2946
31287W        W74199  26.997   3.706   4.632  0.1175  0.1232 -0.3511
31288W        W74200  27.714   6.343   6.274  0.0033  0.0070 -0.2192
31289W        W74201  27.066   5.875   4.195 -0.2766 -0.0165 -0.1366
31290W        W74202  24.862   5.157   3.088 -0.0115  0.0952 -0.3058
31291W        W74203  27.507   5.842   7.682 -0.1488 -0.0918 -0.5156
31292W        W74204  28.027   7.135   4.720 -0.1433  0.1665  0.2131
31293W        W74205  29.131   7.292   6.544 -0.3377  0.1998 -0.1030
31294W        W74206  27.222   8.483   3.904  0.0223 -0.0741  0.0389
31295W        W74207  26.422   5.570   7.487 -0.1992  0.2078 -0.0091
31296W        W74208  26.205   5.534   4.775 -0.0268  0.0645  0.3525
31297W        W74209  27.086   7.242   4.748  0.3889  0.0693 -0.1612
31298W        W74210  27.151   6.014   4.955 -0.0095 -0.1965 -0.0875
31299W        W74211  26.371   3.197   3.522 -0.3995  0.0087 -0.2344
31300W        W74212  27.372   8.568   6.826  0.1703 -0.2097 -0.1496
31301W        W74213  26.895   5.920   3.199 -0.0995  0.2879 -0.2877
31302W        W74214  26.027   5.615   5.496 -0.2214  0.0137 -0.0305
31303W        W74215  28.337   3.859   8.198 -0.0315 -0.0486 -0.2472
31304W        W74216  29.158   5.904   6.814  0.0170 -0.0237 -0.0075
31305W        W74217  27.356   5.197   5.960  0.2408  0.2467 -0.1023
31306W        W74218  25.211   4.371   3.824  0.3496 -0.0411  0.0491
31307W        W74219  28.416   7.669   4.472 -0.3253  0.1976  0.0988
31308W        W74220  24.653   7.061   5.027  0.0874 -0.0831 -0.2883
31309W        W74221  26.938   4.932   5.881  0.3717 -0.0433  0.0290
31310W        W74222  27.666   7.225   4.999  0.0048 -0.1838 -0.2324
31311W        W74223  28.950   4.258   7.452 -0.1334 -0.0301 -0.4126
31312W        W74224  24.395   5.801   6.965 -0.1319  0.0952 -0.3086
31313W        W74225  27.076   4.850   6.413  0.1517 -0.2532  0.3887
31314W        W74226  26.695   5.263   5.562  0.0717 -0.3210  0.0611
31315W        W74227  25.953   6.878   6.810  0.0469 -0.0136  0.2254
31316W        W74228  27.675   4.880   5.695  0.4119  0.0554 -0.1091
31317W        W74229  28.921   4.102   4.588  0.1143 -0.2972 -0.0608
31318W        W74230  26.669   6.144   7.996  0.1144  0.1989  0.1505
31319W        W74231  28.704   5.632   4.646  0.4871  0.0842 -0.0285
31320W        W74232  28.504   4.674   4.597 -0.2457  0.0739  0.1076
31321W        W74233  27.058   3.393   4.108 -0.3872 -0.2751  0.1179
31322W        W74234  25.116   5.908   7.504 -0.0631 -0.0316 -0.1885
31323W        W74235  28.217   5.680   4.246  0.1469 -0.0042 -0.1670
31324W        W74236  27.504   5.667   5.836  0.0220 -0.0997 -0.0252
31325W        W74237  27.815   5.910   4.778  0.1165  0.1137 -0.0413
31326W        W74238  28.946   7.574   4.311 -0.0176  0.1293  0.0732
31327W        W74239  26.084   6.153   6.639 -0.4872 -0.1060  0.0992
31328W        W74240  27.879   5.286   8.728  0.0773  0.2918  0.3452
31329W        W74241  28.022   6.527   5.821  0.2777  0.1223  0.1803
31330W        W74242  27.161   3.475   6.986 -0.1779 -0.2772  0.0370
31331W        W74243  27.052   6.433   3.172 -0.1578 -0.0027 -0.3613
31332W        W74244  27.272   4.621   5.792  0.0323  0.2080 -0.0102
31333W        W74245  26.377   7.942   3.087 -0.3928  0.0576  0.0061
31334W        W74246  28.136   4.514   5.696  0.1825 -0.1715 -0.0609
31335W        W74247  27.978   4.750   6.927  0.0947  0.5028 -0.1582
31336W        W74248  26.465   4.209   7.908  0.0387 -0.1876  0.2362
31337W        W74249  28.099   6.059   7.622  0.1239 -0.0312  0.2490
31338W        W74250  28.638   5.133   5.333  0.2618 -0.0616 -0.0134
31339W        W74251  27.989   6.407   6.794 -0.0747 -0.2039  0.1052
31340W        W74252  25.737   5.255   3.201  0.0406  0.1429  0.1300
31341W        W74253  27.049   5.231   6.768 -0.1238 -0.0356 -0.3447
31342W        W74254  25.298   5.132   5.774  0.0211 -0.2767  0.1203
31343W        W74255  27.083   6.929   6.147  0.0331 -0.0551  0.1524
31344W        W74256  28.467   8.422   5.786 -0.0467 -0.3285 -0.0512
31345W        W74257  26.375   6.301   4.684  0.2239  0.2752 -0.1724
31346W        W74258  27.045   5.593   7.589 -0.0542 -0.1997 -0.0211
31347W        W74259  27.340   4.106   4.719  0.2638  0.1193  0.1233
31348W        W74260  25.529   7.998   5.386  0.0087  0.2942  0.2321
31349W        W74261  27.270   5.918   5.446 -0.1862 -0.1231  0.0206
31350W        W74262  26.146   3.780   6.887 -0.2040  0.1044 -0.1126
31351W        W74263  26.984   6.427   7.081  0.1601  0.4999 -0.0163
31352W        W74264  26.987   5.166   3.617 -0.0295 -0.1034  0.0221
31353W        W74265  26.848   5.703   8.066 -0.1350 -0.1446  0.1836
31354W        W74266  25.156   6.977   5.439 -0.4171  0.0330 -0.1006
31355W        W74267  28.399   5.011   7.593  0.0707 -0.0277  0.0378
31356W        W74268  25.672   6.522   6.044 -0.1027  0.1185  0.2016
31357W        W74269  25.668   5.832   3.907  0.1900  0.2031 -0.1007
31358W        W74270  26.001   6.755   3.898 -0.0031 -0.1881  0.0899
31359W        W74271  27.952   3.442   6.338 -0.0695 -0.0648 -0.0821
31360W        W74272  28.437   5.238   5.755  0.2793  0.0328  0.0994
31361W        W74273  25.848   5.383   6.928  0.2569 -0.0391  0.2669
31362W        W74274  27.581   4.808   6.673  0.1131  0.0979  0.3651
31363W        W74275  26.070   7.435   6.927 -0.1288 -0.3665  0.0100
31364W        W74276  26.850   6.541   6.632  0.3261 -0.2254 -0.3424
31365W        W74277  28.737   3.200   5.196 -0.3051  0.3297 -0.0594
31366W        W74278  28.112   8.177   6.088 -0.1248 -0.1026  0.1146
31367W        W74279  24.966   6.627   7.796 -0.3179  0.2154  0.0865
31368W        W74280  24.846   5.341   3.600  0.0743 -0.0537  0.2313
31369W        W74281  29.793   6.073   6.503  0.0814 -0.0718 -0.1066
31370W        W74282  26.423   4.111   6.344 -0.1554 -0.0087 -0.0813
31371W        W74283  26.346   6.223   3.126 -0.0701 -0.3343 -0.2684
31372W        W74284  28.060   7.734   5.298  0.4167 -0.0335  0.3613
31373W        W74285  26.548   5.599   3.396  0.1574 -0.0250  0.0547
31374W        W74286  26.518   6.230   5.882  0.2307  0.2091  0.2480
31375W        W74287  25.801   4.897   7.572  0.2897  0.2244  0.1581
31376W        W74288  27.808   5.495   8.214  0.1677 -0.0286  0.4028
31377W        W74289  27.233   6.183   5.863  0.2275 -0.0034  0.1128
31378W        W74290  26.619   4.516   6.653  0.1426  0.4115 -0.0481
31379W        W74291  26.641   4.485   5.613  0.2567  0.1808 -0.0430
31380W        W74292  27.389   6.249   6.803  0.5021 -0.1193  0.1203
31381W        W74293  28.619   5.867   6.855 -0.0062 -0.1666  0.0576
31382W        W74294  25.877   7.123   7.252  0.0523 -0.0699 -0.1203
31383W        W74295  27.251   2.988   6.571  0.3136 -0.1041 -0.1128
31384W        W74296  27.112   9.008   3.830  0.3361  0.1414  0.2146
31385W        W74297  27.686   6.004   8.128  0.1558  0.0174  0.3861
31386W        W74298  27.482   5.567   2.959 -0.0926  0.0251 -0.2462
31387W        W74299  26.186   5.915   4.403  0.1370 -0.2522  0.1036
31388W        W74300  26.817   6.105   5.526  0.0022  0.4569 -0.0507
31389W        W74301  26.722   5.668   6.583 -0.1537  0.2986 -0.1296
31390W        W74302  25.684   6.578   7.353  0.1320  0.0477 -0.0671
31391W        W74303  25.265   5.472   3.266  0.2760 -0.1988 -0.2655
31392W        W74304  26.818   7.092   5.272 -0.1224 -0.0215 -0.1735
31393W        W74305  28.589   3.454   4.782 -0.1910 -0.6596 -0.0857
31394W        W74306  28.457   7.144   4.397  0.2826 -0.0670 -0.1494
31395W        W74307  27.299   3.914   6.218 -0.0672 -0.2061 -0.0609
31396W        W74308  30.305   5.970   6.034  0.1738  0.1190  0.1328
31397W        W74309  27.904   5.362   5.778 -0.0201  0.2711 -0.2844
31398W        W74310  28.796   5.405   8.715  0.0097 -0.1500  0.0502
31399W        W74311  26.623   3.607   6.719 -0.0252 -0.4766 -0.4653
31400W        W74312  28.567   6.028   5.420  0.2325  0.1780  0.0629
31401W        W74313  26.457   5.520   5.213  0.1329 -0.0906  0.0795
31402W        W74314  28.894   8.212   8.716 -0.2640  0.1740 -0.2014
31403W        W74315  25.884   5.694   7.364  0.1344  0.1220  0.2416
31404W        W74316  27.226   4.330   5.329 -0.3091  0.1158 -0.1214
31405W        W74317  26.104   4.891   4.033 -0.1565 -0.0733 -0.0984
31406W        W74318  27.286   5.861   7.166  0.0554  0.1121 -0.0866
31407W        W74319  28.584   6.911   4.814 -0.3183 -0.1105  0.2218
31408W        W74320  27.493   5.662   5.004 -0.0206 -0.0069  0.1736
31409W        W74321  29.128   5.793   5.364 -0.0379 -0.2790 -0.0202
31410W        W74322  27.004   5.210   7.988  0.1085 -0.0816  0.1216
31411W        W74323  29.195   5.633   5.977  0.1966  0.0580  0.2573
31412W        W74324  27.761   5.449   3.948 -0.1051 -0.1862  0.1802
31413W        W74325  27.181   6.877   5.587 -0.1151  0.1119 -0.1778
31414W        W74326  26.211   5.003   6.813  0.0648  0.1667  0.0755
31415W        W74327  28.958   6.178   5.677  0.1361 -0.1910  0.1240
31416W        W74328  27.301   4.618   4.871 -0.1845  0.0753  0.3840
31417W        W74329  27.055   4.211   5.895 -0.2452  0.1794 -0.0608
31418W        W74330  28.758   5.190   7.259 -0.0577 -0.0385 -0.1404
31419W        W74331  26.648   4.764   8.028 -0.0369  0.0356  0.2043
31420W        W74332  25.699   4.015   7.018  0.0666 -0.2446  0.0304
31421W        W74333  27.793   7.444   7.344 -0.0247  0.2940 -0.1368
31422W        W74334  29.435   5.639   6.500  0.3796 -0.1783 -0.0643
31423W        W74335  28.487   4.769   6.520 -0.2305  0.1883 -0.0705
31424W        W74336  28.320   5.734   5.923 -0.0728  0.1122  0.1531
31425W        W74337  28.353   5.223   4.420  0.1522  0.1004 -0.0817
31426W        W74338  26.122   5.450   5.991  0.0642  0.0745 -0.3450
31427W        W74339  27.679   6.300   7.720  0.1159 -0.0077  0.0391
31428W        W74340  27.505   3.651   3.331  0.0645 -0.0228 -0.1386
31429W        W74341  28.886   4.975   6.812  0.0681 -0.1871 -0.0187
31430W        W74342  27.501   6.653   3.147 -0.3204 -0.1852  0.2156
31431W        W74343  27.889   6.063   5.820 -0.1949  0.0996 -0.1463
31432W        W74344  27.882   5.803   6.244 -0.2877  0.1708  0.1343
31433W        W74345  27.081   5.595   4.684 -0.0092 -0.2931 -0.2151
31434W        W74346  26.597   7.271   7.815  0.0273  0.3263  0.0904
31435W        W74347  27.181   5.100   3.136  0.1320 -0.1462  0.0771
31436W        W74348  26.609   4.932   3.231  0.0710  0.3950 -0.3077
31437W        W74349  29.629   7.981   6.977 -0.0077  0.1720  0.0034
31438W        W74350  28.391   6.650   7.657 -0.2147 -0.2363  0.0850
31439W        W74351  27.520   3.579   4.751 -0.1705 -0.1400  0.0301
31440W        W74352  29.147   5.398   6.840 -0.1899  0.0699 -0.2066
31441W        W74353  25.536   8.255   4.229  0.0571 -0.2838  0.2341
31442W        W74354  27.479   3.432   6.390 -0.0610 -0.2650 -0.0044
31443W        W74355  26.761   7.763   5.335  0.0560 -0.1267 -0.3395
31444W        W74356  25.746   6.435   8.183 -0.1186 -0.3792 -0.2156
31445W        W74357  25.799   7.389   5.809  0.0337  0.2603 -0.2711
31446W        W74358  27.398   3.861   6.673  0.1989 -0.0019  0.0359
31447W        W74359  27.083   5.406   6.242 -0.0637  0.0273 -0.1109
31448W        W74360  26.577   6.723   6.178  0.1028  0.1387 -0.0288
31449W        W74361  29.241   5.532   8.045  0.0505 -0.0399  0.1088
31450W        W74362  28.085   6.446   7.324  0.0288  0.0284 -0.2286
31451W        W74363  26.916   5.654   5.250 -0.0316  0.1009  0.0538
31452W        W74364  27.793   6.760   7.610 -0.2940 -0.1580 -0.0411
31453W        W74365  29.561   5.363   5.688 -0.1927  0.0855  0.0838
31454W        W74366  26.892   6.559   5.834 -0.1270  0.1140  0.2571
31455W        W74367  24.756   5.117   6.837  0.0222  0.2518  0.0608
31456W        W74368  26.068   6.754   8.215  0.0829  0.0503 -0.1802
31457W        W74369  27.514   6.699   5.984 -0.0954  0.1848 -0.2707
31458W        W74370  26.279   5.167   4.408 -0.1318 -0.1742  0.1013
31459W        W74371  26.798   6.415   3.808 -0.0252 -0.0033  0.2479
31460W        W74372  26.947   7.302   7.169  0.0596 -0.3018  0.0003
31461W        W74373  25.839   7.339   6.463  0.0288 -0.1252 -0.0892
31462W        W74374  26.019   8.162   2.699 -0.2069 -0.1831  0.1014
31463W        W74375  27.268   5.516   3.885 -0.0852 -0.2424  0.2367
31464W        W74376  27.662   6.809   5.462  0.0651 -0.2160  0.0002
31465W        W74377  27.906   4.411   6.161 -0.0224 -0.2068 -0.1229
31466W        W74378  24.914   7.236   6.029  0.0572 -0.2030 -0.1948
31467W        W74379  25.417   7.360   4.368 -0.1121 -0.2943  0.0201
31468W        W74380  28.207   8.099   4.609 -0.0707  0.0243 -0.1024
31469W        W74381  26.096   6.542   5.770 -0.0344  0.1247 -0.0451
31470W        W74382  27.444   7.191   8.320  0.1464 -0.2801  0.1144
31471W        W74383  28.282   5.733   4.918  0.0543 -0.0165 -0.1825
31472W        W74384  28.498   6.332   5.808 -0.0968  0.4838  0.3040
31473W        W74385  28.892   4.456   5.925  0.3597 -0.2490  0.1084
31474W        W74386  26.866   6.600   7.957  0.0233  0.5300 -0.4609
31475W        W74387  27.653   4.891   6.185 -0.0239 -0.2774 -0.0750
31476W        W74388  28.196   3.752   4.916  0.1971 -0.3976  0.0444
31477W        W74389  26.257   5.718   7.018  0.0869 -0.1025 -0.1405
31478W        W74390  30.321   5.844   7.117  0.0781  0.0012 -0.0477
31479W        W74391  25.736   7.685   7.928  0.2698  0.0704 -0.3488
31480W        W74392  29.540   5.714   3.748 -0.0380  0.0465  0.0587
31481W        W74393  27.688   4.974   3.122  0.1299 -0.3997  0.4133
31482W        W74394  27.030   5.642   5.760 -0.3461  0.1656 -0.2188
31483W        W74395  27.586   4.224   5.798  0.3279 -0.0357  0.3822
31484W        W74396  26.190   5.846   3.907  0.0172  0.3192  0.2352
31485W        W74397  28.709   4.941   6.087 -0.1420  0.1160 -0.1828
31486W        W74398  26.574   5.597   4.386 -0.1556 -0.1390  0.0688
31487W        W74399  27.158   6.486   4.814 -0.0171  0.1406  0.0485
31488W        W74400  28.411   7.714   6.469  0.2332  0.1538  0.1591
31489W        W74401  25.356   4.500   4.930 -0.1095 -0.1890  0.0448
31490W        W74402  29.743   4.052   4.917 -0.0183 -0.2256 -0.1394
31491W        W74403  26.609   4.966   6.440 -0.0948  0.1327  0.1988
31492W        W74404  28.732   5.998   6.073 -0.2783  0.0836  0.2283
31493W        W74405  26.599   5.823   4.827  0.1270  0.0983  0.1041
31494W        W74406  26.755   4.395   3.999 -0.2761 -0.0243  0.0072
31495W        W74407  27.285   7.348   5.368 -0.2380 -0.0396  0.0287
31496W        W74408  25.721   4.753   5.810  0.0242  0.0282  0.1553
31497W        W74409  28.067   6.205   5.267 -0.2469  0.1148 -0.3792
31498W        W74410  28.898   6.826   6.636 -0.0309  0.1809 -0.3482
31499W        W74411  27.716   4.244   4.185  0.0668 -0.1120  0.1507
31500W        W74412  29.428   7.252   7.414  0.0883  0.0330  0.1155
31501W        W74413  27.143   4.352   6.659 -0.2476 -0.0831 -0.0228
31502W        W74414  28.112   4.481   4.347  0.1800 -0.0745 -0.0194
31503W        W74415  25.846   6.505   4.561  0.0448  0.1358  0.1743
31504W        W74416  27.726   5.840   6.738 -0.1005  0.0852 -0.0555
31505W        W74417  28.915   7.683   6.302  0.1781 -0.0242  0.0756
31506W        W74418  25.964   4.134   5.062 -0.0527 -0.2133  0.2140
31507W        W74419  29.634   5.157   4.826  0.1663 -0.0696 -0.2068
31508W        W74420  29.360   6.859   6.672  0.0440 -0.0803  0.0151
31509W        W74421  26.625   6.094   4.180 -0.0713  0.0985 -0.1192
31510W        W74422  29.297   6.754   4.330 -0.3504 -0.0609  0.0709
31511W        W74423  27.865   7.285   5.427 -0.0193 -0.1370 -0.1065
31512W        W74424  26.342   4.794   4.718  0.1303  0.0720 -0.0505
31513W        W74425  28.864   6.616   7.471  0.0437  0.0994  0.2063
31514W        W74426  29.613   7.398   6.456 -0.2078 -0.4060  0.1485
31515W        W74427  26.689   5.608   3.919 -0.1792 -0.6185 -0.4486
31516W        W74428  26.065   7.025   6.025  0.1483  0.0942 -0.0599
31517W        W74429  28.565   6.168   7.388  0.2642  0.2305  0.1310
31518W        W74430  27.754   5.268   6.830 -0.0973 -0.2484 -0.1625
31519W        W74431  27.697   6.699   3.642 -0.2357 -0.0479 -0.0517
31520W        W74432  29.648   5.182   8.150  0.0994  0.1541 -0.0170
31521W        W74433  27.316   6.550   7.495 -0.0840 -0.1577  0.1073
31522W        W74434  24.931   7.743   6.255  0.2149 -0.0995  0.0817
31523W        W74435  27.150   5.671   1.995  0.0278 -0.0514 -0.0049
31524W        W74436  26.421   6.497   6.906  0.1370 -0.2805  0.0883
31525W        W74437  26.883   6.160   4.574  0.1023  0.1504  0.3203
31526W        W74438  24.407   7.274   5.563  0.4384  0.2272  0.1929
31527W        W74439  28.313   7.154   5.649  0.0348  0.1512 -0.2017
31528W        W74440  27.228   4.283   3.892 -0.1600 -0.1674  0.1286
31529W        W74441  27.423   7.227   5.831 -0.1771  0.0589 -0.2300
31530W        W74442  27.141   3.751   5.121  0.1749  0.0018  0.2406
31531W        W74443  29.380   4.317   4.692 -0.0761 -0.1220  0.1770
31532W        W74444  28.529   3.258   4.309 -0.2010 -0.0800 -0.2069
31533W        W74445  26.516   6.928   5.687 -0.1962  0.0987 -0.0258
31534W        W74446  25.984   5.621   3.460 -0.0145 -0.0500 -0.1455
31535W        W74447  26.548   5.748   2.846  0.1228 -0.0372 -0.0067
31536W        W74448  26.633   5.284   4.772  0.1566  0.0457  0.0132
31537W        W74449  26.378   2.878   6.752  0.0300 -0.0161  0.3022
31538W        W74450  25.600   6.092   7.358  0.1959  0.2829 -0.1667
31539W        W74451  26.292   5.993   5.261  0.2532 -0.1213 -0.1945
31540W        W74452  26.424   4.880   5.937  0.3883  0.2039 -0.0688
31541W        W74453  28.289   6.669   4.417  0.0551  0.2790 -0.1109
31542W        W74454  24.609   2.598   5.994  0.1474 -0.0495 -0.3091
31543W        W74455  26.185   4.334   4.662  0.2667  0.0316 -0.3184
31544W        W74456  26.698   6.267   5.054 -0.2251 -0.1002  0.3561
31545W        W74457  28.329   7.294   3.786  0.0320  0.4981 -0.2112
31546W        W74458  27.947   4.884   4.771 -0.1353 -0.1698  0.2627
31547W        W74459  29.682   7.013   6.978 -0.2824  0.0973  0.1526
31548W        W74460  25.616   7.801   3.862  0.2468 -0.2037 -0.1180
31549W        W74461  27.322   5.606   8.169  0.0890  0.2655  0.1976
31550W        W74462  26.166   5.162   7.395  0.1553  0.1277 -0.0171
31551W        W74463  25.361   4.933   3.388  0.0486 -0.0702 -0.1410
31552W        W74464  27.342   5.787   6.278  0.1808  0.0347  0.1147
31553W        W74465  27.835   6.850   6.342  0.3341 -0.0698 -0.0576
31554W        W74466  27.643   6.752   4.634 -0.3200  0.1116 -0.0053
31555W        W74467  27.365   6.685   6.537 -0.1680  0.3361 -0.1684
31556W        W74468  27.829   7.704   7.777 -0.1709  0.1672 -0.0284
31557W        W74469  25.323   4.262   6.584  0.1561 -0.2001  0.0458
31558W        W74470  28.745   6.806   5.344 -0.3654  0.0846  0.0588
31559W        W74471  27.367   7.245   6.789 -0.0740 -0.5738  0.1224
31560W        W74472  29.667   5.215   3.601 -0.5726 -0.1356  0.0334
31561W        W74473  28.437   4.268   7.161 -0.1684 -0.0679  0.0258
31562W        W74474  28.910   5.739   6.440  0.2660 -0.1594  0.2047
31563W        W74475  24.936   3.192   8.127 -0.1339 -0.3744 -0.0338
31564W        W74476  26.042   6.443   7.746 -0.1512  0.3394  0.1057
31565W        W74477  28.779   7.194   5.728 -0.0420 -0.0320 -0.0598
31566W        W74478  27.798   3.903   6.232  0.0064  0.2213  0.0778
31567W        W74479  27.482   4.889   5.210 -0.2569 -0.3518  0.0387
31568W        W74480  28.264   6.195   4.778  0.3322  0.1269 -0.0255
31569W        W74481  26.531   5.703   5.718  0.2355 -0.2064  0.4061
31570W        W74482  27.769   5.316   5.160 -0.1238 -0.4684 -0.0246
31571W        W74483  27.624   6.661   7.079  0.2882  0.1544  0.0827
31572W        W74484  28.266   6.866   6.105 -0.0085  0.1755 -0.0124
31573W        W74485  28.567   6.429   6.864 -0.0682 -0.1687  0.3229
31574W        W74486  27.558   4.711   4.415  0.2416  0.0772 -0.0344
31575W        W74487  28.934   6.294   4.109  0.1231 -0.4192  0.4349
31576W        W74488  27.952   7.624   6.838  0.1641  0.1580 -0.1319
31577W        W74489  29.236   6.818   7.183  0.0701 -0.1278 -0.0004
31578W        W74490  28.423   7.347   6.066  0.0927  0.0247 -0.2563
31579W        W74491  29.123   5.940   7.754  0.0224 -0.0075  0.4916
31580W        W74492  24.696   3.062   5.648  0.1052  0.0665  0.0972
31581W        W74493  26.602   3.653   2.743 -0.1008 -0.1103 -0.1912
31582W        W74494  28.632   5.028   3.545  0.1203 -0.0062 -0.1187
31583W        W74495  28.815   7.009   6.236  0.0350  0.1242  0.1187
31584W        W74496  27.171   3.432   6.012 -0.1624  0.1854 -0.2518
31585W        W74497  27.326   5.420   5.434  0.1119  0.2955 -0.5476
31586W        W74498  26.100   8.302   5.712  0.0087  0.1790 -0.1831
31587W        W74499  26.955   7.264   5.775 -0.0054 -0.2960  0.0400
31588W        W74500  25.931   5.247   8.635 -0.1086  0.0183  0.0152
31589W        W74501  28.013   4.699   7.441  0.2104 -0.1063  0.5002
31590W        W74502  29.390   6.167   8.074  0.1265 -0.1609 -0.0065
31591W        W74503  25.679   4.233   8.395 -0.0059 -0.1095 -0.1010
31592W        W74504  28.477   8.367   9.318 -0.1909 -0.2286 -0.3236
31593W        W74505  27.945   6.281   9.919 -0.1365 -0.2652 -0.0585
31594W        W74506  28.042   6.644   9.479 -0.2192  0.1795 -0.2352
31595W        W74507  27.251   6.943   7.843  0.1479  0.1472 -0.3517
31596W        W74508  27.208   6.473   8.941  0.4239 -0.0513 -0.2991
31597W        W74509  26.667   4.413   8.392 -0.1132  0.0655 -0.0915
31598W        W74510  24.889   4.111   9.197  0.2393  0.1030 -0.2446
31599W        W74511  27.822   5.436   9.813 -0.1464 -0.0033 -0.0051
31600W        W74512  25.237   5.508   6.205 -0.4074  0.5670 -0.2698
31601W        W74513  26.802   6.002   9.531  0.0431 -0.0794  0.3317
31602W        W74514  28.217   4.651   7.958  0.1363  0.2263  0.1605
31603W        W74515  27.903   7.454   8.209  0.0420 -0.1013 -0.1761
31604W        W74516  24.526   3.016   9.736 -0.1369 -0.0579  0.1882
31605W        W74517  26.858   7.856   7.893 -0.0090  0.4757 -0.3285
31606W        W74518  26.321   5.477   8.450 -0.2150 -0.2622 -0.1208
31607W        W74519  25.343   3.547   9.503 -0.0077  0.2655  0.0347
31608W        W74520  25.082   5.353   8.873 -0.0064  0.0995  0.2181
31609W        W74521  28.948   6.439  10.167 -0.0347 -0.0042  0.0604
31610W        W74522  30.001   5.922  10.204 -0.1234  0.3708 -0.0564
31611W        W74523  26.711   6.953   9.479  0.0046  0.1811 -0.0825
31612W        W74524  27.636   5.862  10.289 -0.1646  0.0699  0.1474
31613W        W74525  25.486   6.547   9.887 -0.1318 -0.3372  0.0854
31614W        W74526  25.084   6.782   9.074 -0.1929  0.0432  0.0420
31615W        W74527  26.495   6.503   8.420 -0.0576  0.1557  0.1520
31616W        W74528  30.482   6.755  10.319  0.2173  0.0192  0.2621
31617W        W74529  26.108   7.250   8.076 -0.0725 -0.2882  0.2416
31618W        W74530  26.467   6.730   9.885  0.0256  0.4509  0.4122
31619W        W74531  25.867   6.827  10.059  0.4561 -0.0356 -0.0900
31620W        W74532  26.294   6.861   7.776 -0.1680  0.0064  0.2909
31621W        W74533  26.077   5.544   8.993 -0.0733 -0.4034  0.0621
31622W        W74534  25.921   5.123   9.742 -0.1173 -0.0261 -0.0408
31623W        W74535  26.553   8.197   7.752  0.1688 -0.1661 -0.2449
31624W        W74536  28.115   5.819  10.033  0.2878 -0.0061  0.2448
31625W        W74537  27.009   6.359   8.412  0.1085  0.5058 -0.0468
31626W        W74538  27.731   6.109   7.153  0.1763  0.1438 -0.1185
31627W        W74539  26.988   3.364   8.700  0.2464 -0.1224 -0.1451
31628W        W74540  25.942   8.033   9.408  0.0923  0.0115  0.0346
31629W        W74541  24.897   3.349   9.706  0.1115 -0.1985  0.0499
31630W        W74542  28.385   5.391   9.732 -0.1363 -0.0786  0.0230
31631W        W74543  30.051   4.829  10.369 -0.1207  0.2817 -0.0953
31632W        W74544  27.326   7.838   9.461  0.0215  0.0203  0.1274
31633W        W74545  26.078   3.154   8.889  0.0474 -0.3550  0.0941
31634W        W74546  29.684   6.545   9.034  0.0839 -0.0480 -0.3129
31635W        W74547  30.046   6.877   7.957  0.1373 -0.1422  0.0647
31636W        W74548  30.417   6.792   8.343  0.3100  0.1172 -0.3380
31637W        W74549  25.831   3.529   9.110  0.2045 -0.2679  0.1722
31638W        W74550  25.676   3.885   6.398 -0.2024 -0.2187  0.1640
31639W        W74551  29.684   5.472   9.389  0.0418  0.3772  0.0870
31640W        W74552  26.007   6.509   8.679 -0.0430 -0.3557  0.0233
31641W        W74553  28.000   8.141   9.290  0.3090  0.0501 -0.1523
31642W        W74554  27.075   6.876   8.381  0.3934  0.0892  0.0718
31643W        W74555  27.441   4.170   8.026  0.2500 -0.0789  0.0030
31644W        W74556  29.945   4.796   9.838 -0.0197 -0.1061  0.0378
31645W        W74557  24.885   5.550   6.525 -0.0972  0.1248  0.0301
31646W        W74558  25.847   5.626   8.336  0.0669 -0.1415 -0.1613
31647W        W74559  27.505   7.952   8.981  0.1976 -0.1270  0.0708
31648W        W74560  28.335   5.336   8.034  0.3570 -0.0813  0.0280
31649W        W74561  26.513   8.467   9.229  0.2673 -0.0176 -0.2526
31650W        W74562  27.093   8.455   7.492  0.0709 -0.2973  0.0912
31651W        W74563  24.077   5.549   9.076 -0.0259 -0.0510  0.1876
31652W        W74564  25.554   7.343   8.245  0.2931  0.0062 -0.4719
31653W        W74565  24.961   1.654   9.304  0.0480 -0.2231  0.1430
31654W        W74566  26.758   4.533   8.934 -0.1430  0.0726  0.3140
31655W        W74567  28.537   4.945   9.018  0.3274 -0.1360 -0.1141
31656W        W74568  29.816   4.274   8.391  0.0753  0.1228  0.2135
31657W        W74569  25.384   5.599   7.114  0.0450  0.0411 -0.2152
31658W        W74570  28.708   6.925   8.560  0.0766 -0.3345 -0.1378
31659W        W74571  29.037   5.076   9.814  0.0533 -0.0099  0.0415
31660W        W74572  28.793   7.162   7.479  0.0790 -0.0816 -0.2822
31661W        W74573  25.960   4.040   9.404  0.0484 -0.1675  0.3860
31662W        W74574  27.508   5.078   8.189  0.3825  0.0321 -0.0596
31663W        W74575  25.416   4.198   9.606  0.1601  0.1630  0.1447
31664W        W74576  25.278   4.976   7.682 -0.2703  0.0663  0.0340
31665W        W74577  26.552   3.579   9.936  0.1200  0.2701 -0.2714
31666W        W74578  25.333   4.564   8.547  0.1208 -0.3619  0.0206
31667W        W74579  25.452   5.152   8.548 -0.1311 -0.4965  0.0793
31668W        W74580  27.819   6.191   9.424  0.3874  0.1885  0.2260
31669W        W74581  28.095   5.738   9.478 -0.1877  0.0692 -0.2661
31670W        W74582  29.153   5.737   8.634  0.1153  0.0977  0.0104
31671W        W74583  25.333   3.412   8.900  0.0929  0.1371  0.0490
31672W        W74584  26.056   5.355   7.830 -0.0261 -0.2701 -0.2429
31673W        W74585  27.107   7.620   8.947  0.1412  0.3063 -0.0415
31674W        W74586  26.496   7.211   9.095  0.0833  0.2147  0.0923
31675W        W74587  27.866   4.293   8.899 -0.0354 -0.1170  0.0460
31676W        W74588  29.087   6.665   8.314 -0.0613  0.2494 -0.0635
31677W        W74589  26.641   5.948   8.505  0.1199 -0.5706  0.1566
31678W        W74590  28.344   7.737   9.183  0.1737  0.0316 -0.0271
31679W        W74591  28.527   4.992  10.000  0.3507  0.1404 -0.0604
31680W        W74592  26.021   4.446   7.524 -0.1714 -0.1099 -0.0232
31681W        W74593  29.391   6.903   8.795 -0.0369  0.2212  0.0183
31682W        W74594  24.962   7.705   8.641  0.0956 -0.1674  0.0453
31683W        W74595  25.157   5.167   9.346 -0.2075  0.0922  0.0732
31684W        W74596  26.413   8.038   8.264 -0.4849 -0.0255 -0.0027
31685W        W74597  28.922   6.905   9.975  0.1082  0.1539  0.3040
31686W        W74598  26.302   5.766   7.985 -0.2910  0.2093 -0.0207
31687W        W74599  28.160   4.115   9.833 -0.2168  0.0609 -0.5776
31688W        W74600  29.436   4.748   8.601  0.3309 -0.1097 -0.0433
31689W        W74601  28.389   6.714   8.236  0.0191 -0.0835  0.1673
31690W        W74602  27.943   4.782   8.366 -0.2152  0.0606 -0.0824
31691W        W74603  27.938   5.198   7.364 -0.1783 -0.2684  0.2477
31692W        W74604  26.341   6.667   9.168  0.1227 -0.3588  0.3540
31693W        W74605  24.924   8.868   9.173  0.3314  0.1180  0.1240
31694W        W74606  28.575   4.320   8.162  0.0767  0.0401 -0.2226
31695W        W74607  29.873   7.061   8.390  0.1359  0.0981  0.3124
31696W        W74608  25.256   5.716   9.128  0.1409 -0.0083 -0.1795
31697W        W74609  27.502   6.648   9.723  0.0059 -0.0128 -0.0543
31698W        W74610  24.708   4.864   9.604 -0.3252 -0.2269  0.1672
31699W        W74611  26.976   7.331   8.126 -0.1951 -0.1308  0.1348
31700W        W74612  26.331   3.711   9.124 -0.4537 -0.1607  0.1157
31701W        W74613  24.758   7.798   8.217  0.4120 -0.0413  0.2638
31702W        W74614  28.749   5.518  10.005 -0.0485  0.0710  0.1359
31703W        W74615  27.098   3.592   9.177 -0.0283 -0.0595 -0.3982
31704W        W74616  29.169   6.459   8.983  0.1424 -0.0271 -0.1154
31705W        W74617  28.160   3.542   9.501 -0.2441 -0.1086 -0.1519
31706W        W74618  26.602   6.040   7.157 -0.1093  0.2726 -0.1597
31707W        W74619  27.424   3.955  10.009  0.1730  0.1411  0.1463
31708W        W74620  26.244   8.349  10.094 -0.1362 -0.0796  0.0003
31709W        W74621  27.469   5.424   9.148  0.1033  0.1801  0.3291
31710W        W74622  27.095   2.979   7.939 -0.1346  0.0516 -0.3293
31711W        W74623  26.854   8.186   8.489 -0.1182  0.0591 -0.1216
31712W        W74624  26.806   6.861   7.528  0.0222  0.0358 -0.3522
31713W        W74625  26.141   1.974   9.652 -0.0814  0.1284  0.3297
31714W        W74626  27.584   6.656   9.199 -0.2229  0.0256 -0.0310
31715W        W74627  27.394   7.640   7.217  0.1192 -0.0069 -0.0924
31716W        W74628  26.411   6.268   9.526  0.4625 -0.2304 -0.1032
31717W        W74629  25.286   6.971   8.114 -0.0154  0.3226 -0.1838
31718W        W74630  27.939   4.420   9.389  0.4071 -0.2536  0.0311
31719W        W74631  25.898   6.863   9.042 -0.2659 -0.0702  0.3213
31720W        W74632  25.607   6.792   8.521 -0.1022 -0.0282 -0.0529
31721W        W74633  25.577   5.352   8.060 -0.0081 -0.1208 -0.1607
31722W        W74634  27.103   4.347   8.609  0.0527 -0.1224 -0.0896
31723W        W74635  27.044   7.736   8.385  0.1167 -0.0743  0.1040
31724W        W74636  24.544   4.311   7.871 -0.0042  0.2191  0.1746
31725W        W74637  25.111   3.690  10.108  0.1828 -0.0757  0.0893
31726W        W74638  25.535   8.400   9.294 -0.0044  0.0710  0.3292
31727W        W74639  28.643   4.926   8.033  0.0041  0.2722 -0.1229
31728W        W74640  25.041   5.393   7.440  0.2365  0.0726  0.0380
31729W        W74641  29.490   5.536  10.209  0.0536  0.0909  0.0364
31730W        W74642  26.214   4.662   8.918  0.2961 -0.1832 -0.0556
31731W        W74643  25.620   6.430   8.927 -0.1915 -0.0921  0.1983
31732W        W74644  27.851   5.735   9.056  0.0667 -0.0753  0.0172
31733W        W74645  26.158   4.765   7.890  0.1997  0.1749 -0.0965
31734W        W74646  26.672   7.810   8.743 -0.1645  0.1562  0.1738
31735W        W74647  28.356   6.240   9.500 -0.1449 -0.0173 -0.0173
31736W        W74648  28.212   6.072   8.993  0.3485 -0.1305  0.0883
31737W        W74649  25.454   4.628   8.043  0.2394 -0.2031 -0.3569
31738W        W74650  27.206   3.921   8.837  0.0850 -0.2646 -0.1267
31739W        W74651  28.127   6.757   8.676 -0.2151  0.0652  0.0968
31740W        W74652  28.025   5.211   9.440 -0.0384 -0.1181 -0.0415
31741W        W74653  29.892   5.014   9.393  0.3029  0.2265  0.2317
31742W        W74654  30.724   7.120   8.181  0.1070  0.2350 -0.2538
31743W        W74655  24.945   6.387   8.634 -0.0777 -0.0153  0.1391
31744W        W74656  28.625   6.034   9.842 -0.1507  0.0059 -0.0362
31745W        W74657  26.279   6.898   8.708 -0.1416 -0.0112  0.1756
31746W        W74658  25.712   3.821   9.741 -0.2147 -0.1266 -0.0911
31747W        W74659  24.619   5.795   9.239  0.2398 -0.1418 -0.3383
31748W        W74660  26.547   5.274   8.083 -0.0798 -0.1676  0.1676
31749W        W74661  25.828   7.086   9.531  0.3837  0.0749 -0.0760
31750W        W74662  28.531   4.521   7.578  0.0128  0.2277  0.1855
31751W        W74663  28.289   8.465   6.801  0.0252  0.3416 -0.1712
31752W        W74664  28.603   5.809   9.132  0.0116 -0.1368  0.0978
31753W        W74665  28.004   6.287   8.470 -0.3545 -0.0913 -0.0973
31754W        W74666  25.395   3.902   9.170  0.0758 -0.1240 -0.2220
31755W        W74667  27.483   6.265   8.570  0.2216  0.1217  0.0479
31756W        W74668  27.110   4.683   8.200 -0.2104 -0.1310 -0.0392
31757W        W74669  25.916   4.748   7.094  0.0865  0.0096 -0.0782
31758W        W74670  25.950   5.028   9.181 -0.2098 -0.2306 -0.1604
31759W        W74671  29.244   7.105   9.312  0.1946 -0.1770  0.0614
31760W        W74672  28.177   5.800   8.113  0.2665 -0.1429 -0.0563
31761W        W74673  29.411   6.752   9.907  0.3237  0.1542 -0.4435
31762W        W74674  25.434   4.286   8.905  0.3428 -0.1975  0.1144
31763W        W74675  28.199   5.684   8.630  0.2509 -0.0576 -0.0283
31764W        W74676  27.674   4.839   9.406  0.1072  0.0451  0.2739
31765W        W74677  26.796   6.474   9.279 -0.0536 -0.0921  0.1977
31766W        W74678  26.768   6.805   8.857 -0.3381 -0.0648 -0.1091
31767W        W74679  27.420   6.182   9.944 -0.0135 -0.2563 -0.1647
31768W        W74680  27.852   7.194   8.700 -0.1466  0.1572  0.1344
31769W        W74681  28.526   5.770   7.796  0.0323 -0.3105  0.0663
31770W        W74682  26.300   5.303   9.464  0.2817 -0.0563  0.1562
31771W        W74683  29.037   6.182   8.427  0.0610 -0.0836 -0.0751
31772W        W74684  27.371   5.927   9.009 -0.2777  0.3212 -0.2538
31773W        W74685  26.126   4.622  10.262 -0.2557  0.0453 -0.1810
31774W        W74686  25.796   4.471   9.190 -0.3343  0.0630  0.0118
31775W        W74687  27.260   8.089   8.063 -0.0075  0.2140  0.0087
31776W        W74688  28.818   6.218   9.262 -0.0277  0.1469 -0.0354
31777W        W74689  28.918   5.786   9.514 -0.2060 -0.2246 -0.3557
31778W        W74690  25.793   4.472   9.832  0.0940  0.2425  0.1834
31779W        W74691  25.437   5.894   8.100  0.4047 -0.0148  0.0493
31780W        W74692  28.342   5.427   9.064  0.0733 -0.1568  0.1136
31781W        W74693  26.877   6.028   9.002 -0.0870 -0.0601 -0.1595
31782W        W74694  28.052   4.804   8.879 -0.1710  0.1841 -0.1931
31783W        W74695  25.373   5.688   8.584  0.3843  0.1777 -0.0832
31784W        W74696  27.542   3.434   9.382 -0.0754 -0.1985 -0.2661
31785W        W74697  27.002   8.170   8.976 -0.0786 -0.3383 -0.0322
31786W        W74698  26.566   7.009   8.299 -0.4097 -0.1076 -0.0581
31787W        W74699  27.526   3.334   8.737  0.5448  0.1509  0.2467
31788W        W74700  28.801   6.464   9.697  0.1150  0.0321 -0.0278
31789W        W74701  27.124   5.822   8.564 -0.1318 -0.1509  0.0795
31790W        W74702  25.484   4.873   9.021  0.0615  0.3344 -0.1520
31791W        W74703  30.149   6.595   8.888 -0.0786 -0.0925 -0.1391
31792W        W74704  26.950   7.796   9.862 -0.0651 -0.0987 -0.1211
31793W        W74705  26.661   5.588   8.848  0.1645 -0.1757  0.2749
31794W        W74706  25.734   3.728   8.212  0.0791  0.0495  0.0009
31795W        W74707  27.638   7.207   7.775 -0.4663  0.1549 -0.0154
31796W        W74708  25.412   5.350   9.752  0.0175 -0.2385  0.1709
31797W        W74709  25.645   7.737   8.756  0.0839  0.1021 -0.3728
31798W        W74710  28.131   7.098   7.393  0.1572 -0.2474  0.1874
31799W        W74711  26.184   6.752   7.289 -0.1717 -0.0681  0.0162
31800W        W74712  27.554   5.808   9.584 -0.3267 -0.0591  0.1976
31801W        W74713  27.365   6.577   8.131  0.0177  0.2028  0.2108
31802W        W74714  27.259   7.436   9.767 -0.4087  0.0577  0.1377
31803W        W74715  24.998   7.647   6.770 -0.0085  0.1068  0.0595
31804W        W74716  28.115   7.080   7.926  0.1678 -0.1287 -0.0201
31805W        W74717  25.110   8.128   9.088 -0.0333  0.0538  0.1274
31806W        W74718  28.196   4.186   8.576  0.0533 -0.0374 -0.1598
31807W        W74719  28.574   6.444   8.648 -0.1505  0.0716 -0.2318
31808W        W74720  29.132   4.950   8.944  0.0907 -0.0691 -0.2790
31809W        W74721  26.374   4.308   9.211  0.0322 -0.3943  0.1532
31810W        W74722  25.500   4.416   7.521 -0.2896  0.0975 -0.0690
31811W        W74723  28.341   7.252   8.893  0.1426 -0.2090 -0.1421
31812W        W74724  26.668   5.118   7.607 -0.3240  0.0764 -0.2050
31813W        W74725  26.146   5.926   8.661 -0.1936 -0.1332  0.3445
31814W        W74726  27.261   4.633   9.163  0.0551  0.2720 -0.2490
31815W        W74727  26.563   6.408   7.487 -0.0149  0.2620 -0.0880
31816W        W74728  28.403   7.110   9.983 -0.1124 -0.1242 -0.1205
31817W        W74729  26.321   7.476   8.667  0.0863 -0.2106 -0.1146
31818W        W74730  26.773   7.199   9.926  0.0104  0.4605  0.2679
31819W        W74731  27.958   8.088   8.666  0.2780  0.1377 -0.0239
31820W        W74732  25.798   4.685   8.640  0.0565  0.2839 -0.2612
31821W        W74733  31.249   2.118  12.360 -0.2091  0.1983  0.1391
31822W        W74734  25.137   4.991   8.180  0.3467  0.0822  0.0717
31823W        W74735  26.181   5.836   9.699  0.1610  0.3081 -0.3198
31824W        W74736  29.245   6.116   9.671 -0.2625 -0.0593  0.1836
31825W        W74737  27.838   7.752   9.609 -0.0278 -0.0006 -0.0127
31826W        W74738  26.160   3.960   8.249  0.2913  0.0764 -0.0871
31827W        W74739  28.884   4.930   8.482 -0.1561 -0.0478 -0.1457
31828W        W74740  27.478   5.323   7.641 -0.2870 -0.1214 -0.2361
31829W        W74741  26.245   3.462   9.562  0.1093  0.1091  0.0944
31830W        W74742  28.365   5.054   8.499  0.0636  0.0548 -0.1011
31831W        W74743  24.985   5.927   8.362  0.2117  0.2333  0.1241
31832W        W74744  26.768   3.292   9.616  0.0848  0.0380 -0.2027
31833W        W74745  25.885   3.484   7.715  0.0971  0.0899 -0.1867
31834W        W74746  28.147   6.307   8.032  0.0391 -0.0652 -0.1638
31835W        W74747  28.391   4.822   9.508 -0.0500 -0.2572 -0.0258
31836W        W74748  27.920   9.227   7.236  0.1306  0.1554 -0.0699
31837W        W74749  28.361   6.552   9.088 -0.0084  0.1019  0.0311
31838W        W74750  27.497   7.806   9.959  0.2580 -0.0611 -0.0701
31839W        W74751  24.885   3.882   9.662 -0.0520  0.0090 -0.0730
31840W        W74752  27.648   9.392  10.005 -0.2364  0.0853 -0.0449
31841W        W74753  28.055   7.972  10.101 -0.2079  0.2149  0.3715
31842W        W74754  27.331   5.303   9.633  0.2331  0.1754 -0.1598
31843W        W74755  27.533   4.696   8.680  0.0942  0.1539  0.0509
31844W        W74756  26.001   7.639   8.365  0.0792  0.3473 -0.1511
31845W        W74757  30.263   5.308   9.167 -0.0921  0.2556  0.1843
31846W        W74758  27.099   7.446   7.661  0.3791  0.1250 -0.0886
31847W        W74759  26.352   7.612   9.493 -0.1468  0.1251  0.2102
31848W        W74760  25.218   6.099   6.994 -0.3633 -0.1019  0.0888
31849W        W74761  26.788   7.311   8.685 -0.0845  0.0221 -0.2378
31850W        W74762  27.387   7.590   8.020 -0.0839  0.2863 -0.0287
31851W        W74763  25.806   5.693   9.384  0.2698 -0.3388 -0.2960
31852W        W74764  27.844   4.928   9.860 -0.0850 -0.1039 -0.0879
31853W        W74765  28.668   5.946   8.687  0.0788  0.0845 -0.1439
31854W        W74766  25.958   2.136   9.035  0.0078 -0.0600  0.1265
31855W        W74767  28.642   2.605   6.882  0.1318 -0.0384  0.0503
31856W        W74768  27.094   5.734   9.798  0.1961 -0.0415 -0.2429
31857W        W74769  26.961   5.606   9.247  0.5031 -0.0868  0.3303
31858W        W74770  24.362   5.258   7.119 -0.0633  0.1158  0.2229
31859W        W74771  25.678   7.242   7.789  0.2645 -0.1482 -0.0271
31860W        W74772  25.691   5.856   8.928  0.1835 -0.0830 -0.2820
31861W        W74773  26.415   5.823   9.260  0.1270 -0.2359  0.0990
31862W        W74774  25.600   3.837   8.730 -0.0867 -0.1661 -0.2266
31863W        W74775  29.271   7.114   8.287  0.0577  0.0439 -0.2326
31864W        W74776  26.358   2.467   9.851 -0.0549  0.0242  0.1797
31865W        W74777  25.347   1.860   7.800 -0.0276 -0.0187 -0.0749
31866W        W74778  27.825   6.811   8.163  0.2338 -0.1776 -0.1598
31867W        W74779  27.935   6.793  10.063 -0.0022 -0.2267  0.1849
31868W        W74780  26.275   3.741   7.832  0.2462  0.0687  0.0257
31869W        W74781  26.267   6.038   7.538 -0.0924  0.1961  0.2074
31870W        W74782  25.086   2.857   8.799  0.0041 -0.0769  0.0653
31871W        W74783  26.373   5.149   8.965 -0.0878 -0.0036 -0.0408
31872W        W74784  27.979   7.029   9.143 -0.1527  0.2004  0.0101
31873W        W74785  29.807   7.618   7.710 -0.0210 -0.2578  0.0942
31874W        W74786  24.517   2.524   9.634  0.1316  0.0297 -0.1559
31875W        W74787  27.245   7.159   8.795 -0.0477  0.1285 -0.0091
31876W        W74788  28.767   7.422   8.397  0.2204  0.0614 -0.3000
31877W        W74789  30.346   4.480  10.053 -0.2224  0.2345 -0.1814
31878W        W74790  27.696   5.764   8.610 -0.0764 -0.1778  0.2552
31879W        W74791  27.742   8.215   9.706 -0.1031  0.2262 -0.0765
31880W        W74792  25.845   4.224   7.913  0.1475  0.3349 -0.2101
31881W        W74793  28.571   4.580   8.650 -0.3849  0.1877 -0.3204
31882W        W74794  26.927   5.150   8.950  0.3548 -0.1460 -0.2882
31883W        W74795  26.944   6.454   9.930 -0.0750 -0.2818 -0.0543
31884W        W74796  26.800   4.880   8.541  0.0270  0.1420 -0.0570
31885W        W74797  26.463   6.285   8.883  0.1543  0.1694 -0.0936
31886W        W74798  26.887   5.383   8.469  0.1942 -0.0848 -0.1813
31887W        W74799  28.579   6.193   8.210 -0.1768 -0.2848 -0.0967
31888W        W74800  28.672   7.404   9.287  0.2098 -0.0984 -0.0205
31889W        W74801  26.903   8.273   9.718  0.0518 -0.1564 -0.6083
31890W        W74802  29.339   6.019   9.189 -0.0017  0.1037  0.2512
31891W        W74803  25.749   3.397   8.594 -0.3104 -0.0019  0.5344
31892W        W74804  26.161   4.658   9.517  0.0301 -0.0993  0.0298
31893W        W74805  25.660   6.106   8.502 -0.3172  0.4220 -0.1111
31894W        W74806  30.151   6.168   9.658 -0.0918 -0.0268  0.3746
31895W        W74807  26.547   4.836   9.291  0.1410  0.4480  0.2089
31896W        W74808  27.337   4.099   9.274 -0.1374 -0.5175  0.1136
31897W        W74809  26.973   8.636   9.361  0.1475  0.0481 -0.1078
31898W        W74810  28.764   6.837   9.076 -0.1214 -0.1797 -0.1345
31899W        W74811  25.622   9.911   1.955  0.1705  0.1873 -0.1018
31900W        W74812  25.804   9.286   1.324  0.1501 -0.0426  0.3030
31901W        W74813  27.420   8.890   1.228  0.1887 -0.0393 -0.2894
31902W        W74814  28.664  11.750   2.085 -0.1923  0.0264 -0.2205
31903W        W74815  24.748   8.293   1.147  0.0945  0.0151  0.0152
31904W        W74816  28.735   9.648   2.424 -0.1289 -0.0510 -0.0983
31905W        W74817  26.343   7.225   2.476  0.1129  0.1009 -0.1674
31906W        W74818  27.355  10.685   2.679  0.0053 -0.0649 -0.0413
31907W        W74819  28.306  11.023   3.657  0.0501  0.3170  0.0739
31908W        W74820  28.924  10.676   0.663  0.0581 -0.0758 -0.0760
31909W        W74821  28.468   9.083   4.344  0.1364  0.1614 -0.0817
31910W        W74822  25.685  12.058   3.302 -0.0907  0.1695 -0.1557
31911W        W74823  27.518   7.220   1.144 -0.0268  0.0733 -0.3224
31912W        W74824  24.127   6.812   3.288 -0.3128  0.0987 -0.2307
31913W        W74825  28.393  10.259   3.078  0.2549  0.0749  0.0545
31914W        W74826  24.990  10.316   1.665 -0.0396 -0.1212  0.0252
31915W        W74827  25.475   8.239   3.591 -0.1268 -0.2134  0.3021
31916W        W74828  27.682   7.153   3.236  0.1135  0.1071  0.2045
31917W        W74829  27.190  10.960   2.211 -0.5371 -0.2527 -0.0818
31918W        W74830  26.809   7.838   3.886 -0.0840 -0.0966  0.2146
31919W        W74831  27.389   7.451   2.950  0.0419 -0.3620  0.0364
31920W        W74832  27.249  10.490   1.402 -0.1028 -0.1251 -0.2808
31921W        W74833  24.151   9.190   0.786 -0.0779 -0.1169  0.0509
31922W        W74834  25.297   9.012   0.708 -0.0570 -0.0161  0.1265
31923W        W74835  24.962   9.412   1.517 -0.3070 -0.1580  0.0027
31924W        W74836  27.072   8.999   4.388  0.6218 -0.3317 -0.1745
31925W        W74837  28.554   9.414   2.006  0.1518  0.2386 -0.0016
31926W        W74838  27.331   9.225   2.711 -0.1530  0.1561  0.2587
31927W        W74839  27.746  10.500   1.275 -0.3327  0.1193  0.2583
31928W        W74840  26.644   8.965   4.118 -0.0050 -0.3140  0.2631
31929W        W74841  26.102  10.407   0.229 -0.1223  0.0881  0.3642
31930W        W74842  26.146  11.398   1.072 -0.2416  0.0933  0.2233
31931W        W74843  26.550  11.339   0.464 -0.2293 -0.1597 -0.0642
31932W        W74844  27.639  11.129   1.874  0.0838  0.0804 -0.0358
31933W        W74845  28.727  11.034   2.963  0.1885  0.1549  0.4100
31934W        W74846  26.040  10.914   4.767 -0.4090  0.0003  0.1190
31935W        W74847  26.419  10.286   0.963 -0.2298  0.1148  0.2589
31936W        W74848  26.715  10.429   3.515  0.0215  0.2106  0.0248
31937W        W74849  25.793  12.152   4.653 -0.1023  0.1803  0.4032
31938W        W74850  26.033   9.198   2.223 -0.5116  0.0137 -0.0783
31939W        W74851  27.170   8.855   2.161  0.1998 -0.2494 -0.1747
31940W        W74852  28.118  11.662   0.580 -0.0811  0.1424 -0.0021
31941W        W74853  27.341   9.749   0.875  0.0791  0.4753 -0.0766
31942W        W74854  26.584   9.408   3.739  0.0332 -0.0604 -0.0095
31943W        W74855  24.435  10.798   1.698  0.3402 -0.0696 -0.3354
31944W        W74856  27.793   8.450   2.335 -0.1850  0.0179 -0.3138
31945W        W74857  26.265  10.795   1.293  0.1165 -0.2085 -0.3549
31946W        W74858  28.917   9.234   0.888 -0.0218  0.1319 -0.2033
31947W        W74859  28.206   8.798  31.799 -0.1111 -0.0744 -0.3988
31948W        W74860  28.281   9.346   1.586 -0.1194 -0.1562  0.0975
31949W        W74861  26.797   8.242   1.816 -0.1424  0.2149 -0.1457
31950W        W74862  25.801  11.661   1.583 -0.0879 -0.1326 -0.1251
31951W        W74863  25.183   7.940   2.738 -0.2583  0.3004  0.1032
31952W        W74864  27.826  10.413   2.594 -0.1616 -0.1020 -0.1291
31953W        W74865  26.163   8.994   1.766  0.2573  0.3941  0.1518
31954W        W74866  27.840   9.935   2.972  0.3747  0.0410  0.1951
31955W        W74867  24.836  10.740   3.080  0.0289  0.0914  0.3730
31956W        W74868  25.631   8.257   3.026  0.0348  0.2843 -0.1893
31957W        W74869  29.025  11.384  31.306  0.1557  0.0920  0.0525
31958W        W74870  30.134  11.084   1.236  0.3567 -0.1169  0.2729
31959W        W74871  28.603  11.450   0.391  0.0397 -0.3064 -0.0788
31960W        W74872  26.322   8.924   0.861  0.0194  0.1082 -0.2956
31961W        W74873  25.318   9.799   3.124 -0.1831 -0.0768 -0.0078
31962W        W74874  26.627   7.547   1.555 -0.0046  0.1922 -0.2459
31963W        W74875  28.424  11.529   3.268 -0.1112  0.2086 -0.1464
31964W        W74876  26.184  10.663   3.435 -0.1463 -0.0684  0.1221
31965W        W74877  29.189   8.438   1.789  0.1285  0.1959 -0.2886
31966W        W74878  26.452   9.914   2.141  0.0184 -0.4060 -0.0087
31967W        W74879  28.249   9.816   2.104  0.0080 -0.1744 -0.2119
31968W        W74880  27.765  10.701   0.594  0.0551 -0.2300  0.0785
31969W        W74881  29.004   8.305   1.346 -0.0685 -0.0512  0.0634
31970W        W74882  27.175   7.902   2.386 -0.1386 -0.0457  0.0356
31971W        W74883  27.788   9.654   1.449  0.2436 -0.2811 -0.0106
31972W        W74884  25.976   8.651   2.100  0.4787 -0.0557  0.0161
31973W        W74885  27.849  11.773   3.062 -0.1706 -0.1086 -0.1920
31974W        W74886  27.866   9.151   1.322  0.3944 -0.1479  0.1502
31975W        W74887  26.039  11.134   1.621 -0.0199  0.2716  0.0687
31976W        W74888  26.903   8.552   4.304 -0.2927  0.5293 -0.2022
31977W        W74889  27.743  11.259   3.846 -0.3070  0.1537  0.0621
31978W        W74890  26.888   9.697   0.117  0.1714 -0.0212  0.2558
31979W        W74891  24.599   8.916   3.697 -0.1173 -0.2125 -0.2240
31980W        W74892  26.418   9.799   0.774  0.1585 -0.0456 -0.0321
31981W        W74893  26.661   7.957   2.649  0.1458 -0.1137 -0.4653
31982W        W74894  27.001  10.073   3.188  0.1471  0.1846 -0.1558
31983W        W74895  29.929   6.438   1.509  0.3740 -0.1326  0.0099
31984W        W74896  26.242   7.814   4.545 -0.0286  0.1663  0.0551
31985W        W74897  28.350   8.420   2.269 -0.1898  0.1428 -0.0351
31986W        W74898  26.104   9.662   1.856  0.0991 -0.0785  0.2496
31987W        W74899  27.555  12.142   3.524 -0.1667  0.0803 -0.2991
31988W        W74900  28.256  10.449   0.879  0.1237 -0.0357  0.0801
31989W        W74901  28.667  13.034   0.588  0.1004 -0.1362  0.0924
31990W        W74902  24.333   8.413   3.619 -0.1067 -0.1178 -0.1987
31991W        W74903  26.834   9.249   1.577 -0.2700  0.1763 -0.0531
31992W        W74904  27.433   8.286   3.181  0.2755  0.1307 -0.0340
31993W        W74905  24.812   9.708   2.244  0.0784 -0.0653  0.1779
31994W        W74906  27.127   9.547   3.041  0.0446 -0.0443 -0.3221
31995W        W74907  25.435   7.950   1.317 -0.0091  0.2861  0.0749
31996W        W74908  27.993   8.342   1.845 -0.2268  0.4674  0.2718
31997W        W74909  26.761   9.279   2.409 -0.5226 -0.0662 -0.0547
31998W        W74910  24.972   9.642   1.064  0.2076  0.3252 -0.0538
31999W        W74911  28.315   7.061   2.667 -0.0563  0.1243 -0.3422
32000W        W74912  27.939  10.076   0.997 -0.2336  0.0690 -0.2057
32001W        W74913  29.490   9.981   3.177  0.0910 -0.1213 -0.1383
32002W        W74914  26.253  11.258   2.026  0.0357 -0.3005 -0.0538
32003W        W74915  26.239   9.081   2.702  0.1257 -0.2890  0.0672
32004W        W74916  26.911   7.956   1.428 -0.1645  0.0658  0.0330
32005W        W74917  24.133  11.753   0.788  0.2574  0.1273 -0.1797
32006W        W74918  28.460   9.341   0.756 -0.1845  0.2327 -0.2902
32007W        W74919  27.035   8.715   1.604 -0.3128  0.0775 -0.0458
32008W        W74920  27.378  10.225   2.889 -0.1003  0.2873 -0.0163
32009W        W74921  27.754  10.048   1.711 -0.2590 -0.0032 -0.0111
32010W        W74922  24.539  10.064   1.911 -0.1637  0.0483 -0.2496
32011W        W74923  28.110   8.154   2.688  0.0024 -0.1550 -0.0453
32012W        W74924  28.301   9.807   2.647 -0.1825  0.1288 -0.0525
32013W        W74925  27.112   7.335   2.057  0.2677 -0.0343 -0.0353
32014W        W74926  25.550   9.234   0.396 -0.0415  0.0414 -0.3386
32015W        W74927  27.060  11.637   2.702  0.1290 -0.2244 -0.0897
32016W        W74928  27.061  11.620   0.802 -0.1136 -0.1293 -0.0021
32017W        W74929  23.693  10.506   2.027 -0.0905 -0.4147 -0.3160
32018W        W74930  27.210  10.107   1.718  0.0938 -0.1412 -0.0670
32019W        W74931  28.893   9.289   1.663  0.1602 -0.1384  0.2661
32020W        W74932  25.429  10.068   4.526  0.2393  0.2168  0.1014
32021W        W74933  27.941   8.979   3.239  0.3111  0.1553 -0.1526
32022W        W74934  26.017  10.296   1.292 -0.1105 -0.1066  0.1242
32023W        W74935  25.202  10.362   2.578 -0.1590  0.0718 -0.1660
32024W        W74936  26.352   9.370   1.482  0.1661 -0.0901  0.1656
32025W        W74937  28.713   8.251   0.814  0.4816  0.0390 -0.3449
32026W        W74938  26.848  11.564   3.427 -0.3004 -0.0201  0.1158
32027W        W74939  28.668  10.242  31.681 -0.2666 -0.0664 -0.0173
32028W        W74940  27.626   9.865   0.416 -0.2219 -0.4497 -0.1867
32029W        W74941  29.983  10.179   1.582 -0.1928 -0.0127 -0.2844
32030W        W74942  26.204  10.196   3.241 -0.0114  0.1685 -0.1528
32031W        W74943  28.421  10.843   2.089  0.0245  0.1304 -0.0192
32032W        W74944  27.516   9.288   3.207  0.1988  0.0455  0.3941
32033W        W74945  27.611   8.518   0.474  0.1510 -0.1918  0.1350
32034W        W74946  29.236  12.363   2.089  0.0753  0.0838  0.2277
32035W        W74947  25.285  10.878   1.177 -0.0197 -0.0372 -0.1674
32036W        W74948  26.792  11.320   3.866 -0.2170 -0.0317 -0.2470
32037W        W74949  28.092  10.908   2.431  0.0937  0.1526 -0.3392
32038W        W74950  26.401   8.089   3.754  0.0061  0.0304 -0.0700
32039W        W74951  26.417   7.900   0.046  0.1253  0.2592 -0.2375
32040W        W74952  27.468   8.931   0.718 -0.0338  0.0283 -0.2183
32041W        W74953  26.537  10.702  31.861 -0.2680 -0.1164  0.2747
32042W        W74954  28.485   8.270   1.748  0.0686 -0.2114 -0.0313
32043W        W74955  26.948   7.710   4.459 -0.3066 -0.3724  0.0438
32044W        W74956  27.427   6.097   2.986  0.2223 -0.0152  0.2376
32045W        W74957  27.853   8.488   3.475 -0.2096 -0.0564 -0.3456
32046W        W74958  27.955   8.646   1.271  0.1006  0.0985  0.1417
32047W        W74959  26.672   9.296   2.887 -0.0799  0.2790  0.2012
32048W        W74960  25.951   9.921   0.991 -0.0374  0.1604 -0.1757
32049W        W74961  26.612   6.620   3.006 -0.0294  0.1730 -0.2038
32050W        W74962  25.650   9.514   2.251  0.0604  0.0106 -0.2038
32051W        W74963  24.221  12.864   2.714 -0.1182 -0.1458  0.0417
32052W        W74964  28.698  11.145   3.455 -0.1425  0.1805 -0.4915
32053W        W74965  28.676   9.956   1.427  0.1701  0.2036 -0.4494
32054W        W74966  27.164   8.022   4.147  0.0487  0.2643 -0.2860
32055W        W74967  27.816   8.081   0.342  0.0945 -0.0257 -0.2911
32056W        W74968  26.996  11.122   1.227  0.0078  0.1437 -0.0002
32057W        W74969  27.944   8.359   0.882 -0.1765  0.0627  0.1473
32058W        W74970  25.375   8.565   1.995  0.1110 -0.1278  0.1128
32059W        W74971  27.423  10.284   2.257  0.5089 -0.0131 -0.1511
32060W        W74972  26.387   9.509  31.954  0.1512  0.0170  0.0244
32061W        W74973  27.468   9.802   2.013  0.3137 -0.0701  0.0274
32062W        W74974  26.712   9.772   1.675 -0.0324 -0.0142  0.0685
32063W        W74975  29.143   8.568   3.183  0.1685  0.2848 -0.2652
32064W        W74976  25.725  10.470   2.576 -0.0506  0.0980 -0.0404
32065W        W74977  24.888   8.646   0.279 -0.1663  0.0023  0.0543
32066W        W74978  26.524  11.122   1.611 -0.2711 -0.1047 -0.0420
32067W        W74979  28.424   6.778   3.012 -0.1363  0.2396 -0.0874
32068W        W74980  27.969  10.844   1.022  0.3891 -0.0782  0.1312
32069W        W74981  25.617   8.056   1.798  0.1730  0.2456 -0.1977
32070W        W74982  26.336   9.537   2.468 -0.3185 -0.2927  0.1227
32071W        W74983  23.997  11.023   1.898 -0.0474 -0.0315  0.0330
32072W        W74984  27.634   7.621   2.115  0.1062 -0.0544 -0.2504
32073W        W74985  28.578   9.126   2.481  0.1992 -0.0250  0.2160
32074W        W74986  28.002  10.411   2.072  0.0258  0.0251 -0.3027
32075W        W74987  26.996   9.607   3.551 -0.0091  0.0905  0.3588
32076W        W74988  26.625  10.273   1.559 -0.0804  0.1012  0.0902
32077W        W74989  27.860   9.440   3.587 -0.2581  0.1714 -0.2780
32078W        W74990  26.713   8.885   1.930 -0.0428 -0.2488 -0.2546
32079W        W74991  25.423  10.057   3.528 -0.0953 -0.0873 -0.1904
32080W        W74992  26.828  10.859   2.740  0.1603  0.0074 -0.3050
32081W        W74993  25.446   9.754   1.145 -0.1076  0.2362 -0.0886
32082W        W74994  25.312  10.692   2.893 -0.1837  0.0448  0.0546
32083W        W74995  26.447   9.905   3.734  0.1152 -0.2817 -0.4372
32084W        W74996  28.103  11.115   3.215  0.0323 -0.3691 -0.2591
32085W        W74997  26.971   8.779   2.664  0.2782  0.0077 -0.0978
32086W        W74998  24.255   8.220   1.196 -0.0394 -0.1383  0.1601
32087W        W74999  25.043  10.224   3.109 -0.1374  0.2655 -0.2867
32088W        W75000  27.932   9.018   1.788 -0.1313  0.0100 -0.1476
32089W        W75001  26.647   8.846   3.050  0.1331  0.2669  0.1519
32090W        W75002  24.840  11.438   4.133  0.0185  0.0029 -0.0888
32091W        W75003  28.301   7.601   2.453  0.0109  0.1057 -0.0239
32092W        W75004  30.265  11.871   1.368 -0.3576 -0.1565  0.1657
32093W        W75005  26.954  11.275   3.012  0.1059  0.1884 -0.0009
32094W        W75006  24.927   8.638   0.808  0.0276  0.0768 -0.1517
32095W        W75007  24.256   9.922   2.365 -0.0914  0.0836  0.0320
32096W        W75008  26.801   9.828   1.110 -0.1803 -0.1282 -0.1550
32097W        W75009  26.923   7.511   2.934  0.1734 -0.2370 -0.2369
32098W        W75010  24.745  10.204   2.383 -0.0941  0.2810 -0.0461
32099W        W75011  26.173  10.125   1.753  0.1279 -0.3753 -0.1913
32100W        W75012  25.414  11.744   2.068  0.1384 -0.0843  0.1165
32101W        W75013  28.266   7.714  31.651 -0.2188  0.1105  0.2186
32102W        W75014  27.723   9.392   0.045  0.1072  0.1144  0.0045
32103W        W75015  26.778   8.439   2.267  0.1164  0.1113 -0.0276
32104W        W75016  28.736   7.269   2.418 -0.1143 -0.0250 -0.1825
32105W        W75017  28.876   8.989   0.455  0.1744 -0.0606  0.2538
32106W        W75018  27.828   8.356   4.394 -0.2352 -0.4421 -0.2712
32107W        W75019  24.964   8.504   2.765  0.0494 -0.1118  0.2282
32108W        W75020  29.193   9.794   2.356  0.0509  0.1704  0.2695
32109W        W75021  24.223  10.498   2.050  0.0929  0.0510 -0.1615
32110W        W75022  26.487  12.102   4.484  0.2196  0.2091  0.1903
32111W        W75023  25.409   9.069   4.200  0.0535 -0.3739 -0.0272
32112W        W75024  27.189   8.352   2.585  0.1806  0.0468 -0.1562
32113W        W75025  26.351   8.512   1.739 -0.0461  0.3135  0.0044
32114W        W75026  26.568   9.393   1.959  0.1345  0.2004 -0.0936
32115W        W75027  28.114  11.180   1.924 -0.2113  0.0536 -0.0973
32116W        W75028  28.007  10.204   0.400 -0.0500 -0.1346  0.0400
32117W        W75029  28.743   9.516   3.445  0.0105 -0.2832 -0.1782
32118W        W75030  24.996  10.563   2.112  0.0983 -0.1403 -0.0349
32119W        W75031  28.415   8.920   2.069  0.1465  0.2646 -0.1557
32120W        W75032  27.030  10.559   1.988 -0.0115 -0.3554 -0.0446
32121W        W75033  26.920  10.034   2.157  0.1016 -0.0132 -0.2108
32122W        W75034  25.994   7.624   3.510 -0.2055 -0.2280 -0.0934
32123W        W75035  29.524   9.856   1.334  0.0357  0.0185 -0.0219
32124W        W75036  27.767   8.498   2.868 -0.1417 -0.1044  0.0228
32125W        W75037  27.276   8.920   4.799  0.4024  0.0121  0.5221
32126W        W75038  28.683   8.730   2.873  0.2265 -0.3410 -0.0124
32127W        W75039  27.957   7.629   4.765 -0.0276 -0.1475 -0.1684
32128W        W75040  26.033   8.226   4.396 -0.1577 -0.1696  0.3134
32129W        W75041  28.126  12.169   3.058 -0.1520 -0.0907 -0.3010
32130W        W75042  29.588   7.855   0.834 -0.0524  0.1330 -0.1553
32131W        W75043  29.232   7.343   2.517  0.2095 -0.3603 -0.3728
32132W        W75044  28.695   9.825   0.961  0.2637 -0.0843  0.0993
32133W        W75045  28.211   9.630   1.123 -0.0576 -0.0100 -0.0524
32134W        W75046  25.667   8.241   2.276  0.0703 -0.1768  0.2452
32135W        W75047  27.777  10.614   3.070 -0.1975 -0.1909  0.0447
32136W        W75048  27.286   8.280   1.583  0.0982 -0.0940 -0.0341
32137W        W75049  27.757   9.546   2.559 -0.0490 -0.0362 -0.3066
32138W        W75050  26.599  10.384   0.332 -0.2314  0.1287 -0.2507
32139W        W75051  26.125  10.342   2.321  0.0791  0.0948  0.1801
32140W        W75052  28.330  10.350   2.513  0.0472 -0.2301 -0.2764
32141W        W75053  24.604   8.217   2.137  0.1229 -0.2879  0.2668
32142W        W75054  25.792   8.962   3.036  0.1005  0.0419  0.1497
32143W        W75055  25.082   8.220   0.409 -0.3049  0.5049 -0.2610
32144W        W75056  27.324   8.799   0.085  0.0227  0.0227 -0.0173
32145W        W75057  27.345  10.929   3.158 -0.3107 -0.3573  0.2457
32146W        W75058  28.690  10.041   4.686  0.0067  0.0800 -0.4052
32147W        W75059  27.190   9.272   0.080 -0.0459  0.0861 -0.0403
32148W        W75060  28.579  10.328   3.683 -0.0763  0.0226 -0.1759
32149W        W75061  25.832  10.815   2.089  0.0228  0.1232 -0.0885
32150W        W75062  27.111   7.112   1.509  0.1603 -0.2811  0.2486
32151W        W75063  26.421  11.188   2.734 -0.3757 -0.2535 -0.0905
32152W        W75064  24.951   9.850   2.773  0.1669  0.0844 -0.1294
32153W        W75065  25.840   9.781   3.216 -0.0984 -0.3970  0.1859
32154W        W75066  26.521   8.038   2.211 -0.3702 -0.1593  0.0328
32155W        W75067  27.536   9.273   2.191 -0.0991 -0.1891 -0.3171
32156W        W75068  27.184   9.726   2.544  0.0003  0.1415  0.0113
32157W        W75069  28.066   8.936   3.701  0.1216  0.0670 -0.1721
32158W        W75070  26.784  11.319   2.424  0.4290 -0.2856  0.1498
32159W        W75071  25.276   9.042   1.573 -0.1847 -0.1830  0.3745
32160W        W75072  27.735  11.006   2.753 -0.0542  0.1357 -0.1724
32161W        W75073  29.206  11.357   0.942  0.1495  0.0471 -0.0864
32162W        W75074  26.145   9.901   2.834  0.0593 -0.0110 -0.1401
32163W        W75075  25.337   6.977   3.264  0.1648 -0.2104  0.1921
32164W        W75076  26.382   8.828   2.296 -0.0359 -0.1623 -0.1576
32165W        W75077  27.602  10.558   1.798 -0.0489  0.1494  0.0524
32166W        W75078  27.385   9.093   1.734  0.0608  0.3118  0.1482
32167W        W75079  27.054  10.237   0.965 -0.0401 -0.2222  0.1774
32168W        W75080  26.103  11.316   4.423  0.0239 -0.1302 -0.2158
32169W        W75081  25.893  11.040   3.633  0.2188 -0.0764 -0.2559
32170W        W75082  26.275  10.913   0.254  0.1734 -0.0271 -0.3621
32171W        W75083  28.293  11.236   0.013 -0.1299 -0.1053 -0.1700
32172W        W75084  28.370  10.596   0.357  0.0758  0.0266  0.2201
32173W        W75085  26.543  11.654   3.003 -0.0857  0.1270  0.1147
32174W        W75086  26.158   8.430   0.940  0.1957 -0.0687  0.2318
32175W        W75087  25.801   9.873   1.485  0.0547 -0.0200  0.1880
32176W        W75088  24.795  10.558   0.346  0.3167 -0.1214 -0.3082
32177W        W75089  29.393  10.423   0.918 -0.2728 -0.4572 -0.1952
32178W        W75090  25.275  10.748   1.680 -0.3229  0.3478  0.0234
32179W        W75091  28.979  10.711   4.279  0.0474 -0.0133 -0.0999
32180W        W75092  28.738   7.558  31.965  0.1818 -0.0301 -0.0329
32181W        W75093  29.494  10.300   1.447 -0.0656 -0.1259 -0.4767
32182W        W75094  28.323   8.784   1.637 -0.0622 -0.0842 -0.1475
32183W        W75095  26.951  10.898   3.524  0.0861  0.1870  0.1240
32184W        W75096  26.233   8.936   3.350 -0.1973  0.2119  0.0411
32185W        W75097  27.363   9.442   0.517  0.2070 -0.3273  0.3715
32186W        W75098  25.836  10.319   3.601  0.0000 -0.0007 -0.0523
32187W        W75099  29.224   8.222   3.546 -0.0302 -0.0381  0.2884
32188W        W75100  25.926  12.337   4.145  0.1895 -0.3930 -0.2072
32189W        W75101  28.224  10.395   1.411 -0.1102  0.5006  0.0257
32190W        W75102  24.799   7.442   0.821  0.4175 -0.1879  0.0359
32191W        W75103  25.928   8.710   2.654 -0.0579 -0.2723 -0.2092
32192W        W75104  28.932   8.013   1.732  0.1019  0.1559  0.0810
32193W        W75105  28.711  10.174   0.511  0.0080  0.0026  0.1784
32194W        W75106  27.421   8.849   3.046  0.1347  0.2218  0.1090
32195W        W75107  26.342  12.140   0.769 -0.1139  0.3137 -0.0682
32196W        W75108  26.592  10.414   2.964 -0.1109  0.1230  0.0173
32197W        W75109  26.236  10.632   1.771  0.0583  0.0754 -0.0812
32198W        W75110  24.448   8.728   0.593  0.0366  0.0691  0.2428
32199W        W75111  30.282  11.128   2.549 -0.2011  0.2528  0.3158
32200W        W75112  25.874   9.823   3.725  0.2348 -0.0215  0.1241
32201W        W75113  27.539   8.966   3.589  0.3063  0.3095  0.3170
32202W        W75114  25.546   8.480   1.530 -0.1693 -0.0337 -0.0400
32203W        W75115  29.096   8.553   0.435 -0.1386 -0.1007  0.1516
32204W        W75116  28.206   9.875   1.638  0.3613  0.1079  0.1636
32205W        W75117  26.132   8.486   3.097 -0.1172 -0.2256 -0.0385
32206W        W75118  26.809   8.970   0.050  0.0793 -0.3904 -0.0731
32207W        W75119  27.118  10.002   3.763  0.0217  0.1049 -0.1456
32208W        W75120  29.152   9.579   1.090  0.2289 -0.0024 -0.0408
32209W        W75121  28.650  11.959   2.980  0.1006  0.1056  0.1487
32210W        W75122  23.596   9.113   0.655 -0.1650 -0.0874 -0.0078
32211W        W75123  28.320   9.013   2.940 -0.0635 -0.2785 -0.1531
32212W        W75124  24.517   9.549   1.795  0.0434 -0.0890  0.1949
32213W        W75125  27.830  10.003   2.281 -0.1452 -0.0293  0.0482
32214W        W75126  27.743  12.262   4.401  0.0065  0.4335  0.0670
32215W        W75127  25.256   7.901   2.069  0.2706  0.2041  0.0678
32216W        W75128  28.484  11.549   0.901 -0.1289  0.0494 -0.1178
32217W        W75129  28.540   9.475   2.916  0.0835 -0.2328 -0.0129
32218W        W75130  27.189  12.609  31.759  0.0039 -0.3210 -0.1246
32219W        W75131  27.284  12.127   2.290  0.0834 -0.1591  0.1128
32220W        W75132  27.230  10.904   1.688  0.1836  0.4461 -0.2429
32221W        W75133  24.578   8.421   1.569 -0.1450 -0.0546  0.2152
32222W        W75134  27.560  11.685   2.695  0.0297  0.2052 -0.0576
32223W        W75135  29.172  10.958   1.908 -0.3631 -0.1023 -0.2036
32224W        W75136  27.670   7.906   1.701  0.0283 -0.3759  0.1724
32225W        W75137  25.542   9.510   1.667  0.1272  0.0767  0.0831
32226W        W75138  25.859  11.812   0.842  0.0637  0.2784 -0.0901
32227W        W75139  28.112   8.836   2.485  0.2195  0.1345  0.1374
32228W        W75140  29.471   9.727   4.205  0.0635  0.2932  0.1662
32229W        W75141  25.965  10.375   0.760 -0.1356  0.0165  0.1707
32230W        W75142  28.639   8.172   2.876  0.0184  0.0167  0.2349
32231W        W75143  27.363  11.406   1.515 -0.1136 -0.2893  0.0197
32232W        W75144  25.950  12.218   2.898  0.0823  0.3791  0.0537
32233W        W75145  26.735   8.417   0.057 -0.0296  0.1269 -0.2437
32234W        W75146  26.459  10.739   2.492 -0.1770 -0.3319 -0.2758
32235W        W75147  26.740  10.717   1.605 -0.1702  0.0253  0.4192
32236W        W75148  26.216  11.973   1.226  0.1982  0.2034 -0.0707
32237W        W75149  29.442  12.438   1.576 -0.2404  0.6009 -0.0374
32238W        W75150  27.045   8.651   3.334  0.1053 -0.0212  0.0095
32239W        W75151  28.184   9.353   2.363  0.2126 -0.1728  0.0451
32240W        W75152  26.942   8.899   1.066 -0.2928 -0.0294  0.1221
32241W        W75153  28.933   7.425   1.723 -0.0456 -0.0363 -0.0832
32242W        W75154  28.689   8.957  31.933  0.0799 -0.2643 -0.1449
32243W        W75155  25.990   9.490   0.334 -0.0419  0.2447  0.0495
32244W        W75156  24.892   9.037   1.101 -0.0587  0.1536 -0.2102
32245W        W75157  28.035   9.459   0.449 -0.1306 -0.1686 -0.0062
32246W        W75158  25.570  10.396   2.141 -0.1142  0.2637  0.0750
32247W        W75159  26.950   6.884   4.037 -0.1394  0.0486  0.1247
32248W        W75160  25.233   9.069   3.393 -0.0913 -0.2201  0.2419
32249W        W75161  24.480  10.339   1.530  0.1333 -0.0654  0.0886
32250W        W75162  27.056   8.587   0.563  0.0539  0.0426 -0.4403
32251W        W75163  28.856  10.215   2.302  0.0045 -0.0382  0.0511
32252W        W75164  25.215   9.476   2.042  0.0123  0.2311 -0.3437
32253W        W75165  25.254   7.441   2.380 -0.1575 -0.2202  0.0942
32254W        W75166  29.448  11.011  31.661 -0.0548  0.1761  0.1157
32255W        W75167  28.460  10.287   1.861  0.1480  0.0820  0.2776
32256W        W75168  27.888   9.530   1.956 -0.0270 -0.3384  0.2098
32257W        W75169  30.405  11.260   3.158 -0.1157 -0.0714  0.4095
32258W        W75170  24.386   8.525   0.141  0.1408  0.1666  0.0658
32259W        W75171  27.790   9.085   2.787  0.0113  0.1442 -0.0652
32260W        W75172  26.496   7.528   4.230  0.0436 -0.0794 -0.1766
32261W        W75173  25.173   9.095   0.114  0.2650 -0.0744 -0.1502
32262W        W75174  25.885   9.494   2.664  0.0178  0.0118 -0.0119
32263W        W75175  27.076   9.516   2.093 -0.1999  0.2720  0.0071
32264W        W75176  29.586  11.767   0.174 -0.1732 -0.0838  0.2026
32265W        W75177  26.935  10.416   2.473  0.2098  0.2351 -0.3024
32266W        W75178  27.042  10.568   3.094 -0.2398  0.0000 -0.3212
32267W        W75179  25.019   8.272   4.571  0.3648  0.1899 -0.2928
32268W        W75180  27.937   9.950  31.979  0.1010  0.1647  0.0019
32269W        W75181  27.304  11.325   3.516 -0.0189  0.1586 -0.3250
32270W        W75182  29.781  10.752   1.314 -0.0408 -0.1748  0.2963
32271W        W75183  29.222   8.814   2.172  0.0523 -0.1968 -0.1540
32272W        W75184  27.032   9.093   0.522 -0.0043  0.2110 -0.1741
32273W        W75185  26.368   7.416   3.044  0.2249 -0.0052 -0.0831
32274W        W75186  25.534   9.485   3.488  0.2802  0.3366 -0.0857
32275W        W75187  28.109  11.361   2.700  0.0480  0.3943  0.0130
32276W        W75188  26.505   8.910   1.410  0.1257 -0.0955  0.0977
32277W        W75189  28.998   8.221   2.276 -0.2588 -0.0168  0.0334
32278W        W75190  29.063  11.136   0.488 -0.1132 -0.1700 -0.0056
32279W        W75191  24.594   9.010   1.539  0.0363 -0.3107 -0.2837
32280W        W75192  28.684  11.301   1.941 -0.0653  0.0383  0.1480
32281W        W75193  26.943   9.114   3.362  0.0264 -0.0315  0.0373
32282W        W75194  26.185   9.404   0.915  0.0170  0.0308  0.2598
32283W        W75195  27.794  10.837   3.595  0.1360 -0.0901 -0.2907
32284W        W75196  27.248   9.633   1.545 -0.0144 -0.0490  0.1092
32285W        W75197  29.084  10.086   1.155  0.0044  0.1072  0.0876
32286W        W75198  26.363  11.592   3.947  0.4414  0.0285  0.2832
32287W        W75199  27.563  11.644   4.450  0.0471 -0.0509  0.2250
32288W        W75200  27.561  11.058   1.244  0.0050 -0.0392 -0.3703
32289W        W75201  28.297   9.870   0.643 -0.1531 -0.1443 -0.0671
32290W        W75202  24.673   9.064   2.619  0.2629  0.0027 -0.3431
32291W        W75203  25.983   9.883   2.284 -0.3295 -0.0025 -0.1095
32292W        W75204  26.905   9.616   0.611  0.1738  0.2189  0.1447
32293W        W75205  27.650   7.161   2.235 -0.1512  0.1399 -0.3021
32294W        W75206  26.386   8.512   2.713 -0.1404 -0.1333  0.1318
32295W        W75207  27.924   8.898   0.858 -0.1273  0.2122 -0.3523
32296W        W75208  26.695  10.951   2.073 -0.2305 -0.0517  0.5451
32297W        W75209  27.204   7.770   1.742  0.1142 -0.0363 -0.3774
32298W        W75210  27.624   9.712   7.745  0.2769 -0.3146 -0.2228
32299W        W75211  25.284   7.871   4.724 -0.3114  0.0866 -0.0409
32300W        W75212  27.139   7.950   2.914  0.1164  0.2475  0.0727
32301W        W75213  29.468  10.354   4.514 -0.0190  0.1163 -0.0531
32302W        W75214  25.809   7.905   5.765  0.0964 -0.1196  0.0520
32303W        W75215  26.564  11.795   5.254  0.0920  0.0105 -0.1303
32304W        W75216  25.326   6.935   7.098 -0.2796 -0.2278 -0.0723
32305W        W75217  27.764  11.130   6.486 -0.0155 -0.0065 -0.3148
32306W        W75218  29.275  11.345   7.335  0.0364 -0.0155 -0.4116
32307W        W75219  27.362  10.517   3.468  0.3538 -0.0280  0.0308
32308W        W75220  27.182   9.599   6.328 -0.0513 -0.0333 -0.0298
32309W        W75221  26.036   8.775   6.629 -0.2032 -0.0025 -0.2741
32310W        W75222  26.671   9.391   4.424 -0.2186  0.1052  0.1822
32311W        W75223  25.027   6.730   6.121 -0.3816 -0.1964  0.2113
32312W        W75224  28.549   8.824   5.050  0.1671  0.1142 -0.1825
32313W        W75225  25.454   7.514   5.460  0.0764 -0.0296 -0.1549
32314W        W75226  26.950   7.884   7.378  0.4759 -0.0520  0.0912
32315W        W75227  25.974   7.386   5.307 -0.0842 -0.0768  0.2203
32316W        W75228  26.567  11.608   4.517 -0.1338  0.1223  0.3438
32317W        W75229  27.464   9.519   5.903 -0.2451  0.0150  0.1330
32318W        W75230  27.497   8.504   7.775  0.5524  0.2707  0.1551
32319W        W75231  25.879  11.656   5.848 -0.1480  0.2296  0.2072
32320W        W75232  26.236   9.427   3.101 -0.0693  0.2223  0.2305
32321W        W75233  24.656   8.137   4.877  0.1189 -0.1551  0.1353
32322W        W75234  26.622   6.920   7.007 -0.1650  0.1464 -0.1084
32323W        W75235  29.196   9.191   6.373 -0.0515 -0.3339 -0.1094
32324W        W75236  27.618   9.830   4.863  0.1593  0.0949  0.0356
32325W        W75237  26.758  10.842   5.857 -0.0900 -0.0298 -0.0067
32326W        W75238  28.466  10.787   4.477 -0.2763  0.0058  0.0038
32327W        W75239  28.261   8.950   6.072  0.1481 -0.1894  0.2442
32328W        W75240  26.135  12.392   4.924 -0.2521  0.0323  0.0863
32329W        W75241  28.363  11.839   5.222  0.2936 -0.3476  0.3520
32330W        W75242  26.959   9.679   5.643 -0.2436 -0.3543 -0.2546
32331W        W75243  27.967   9.465   4.576 -0.2575  0.1882 -0.1749
32332W        W75244  28.260  10.500   6.909  0.1407 -0.2742 -0.0634
32333W        W75245  28.128  11.649   6.503 -0.4453 -0.0218 -0.0092
32334W        W75246  25.634  10.220   4.065 -0.2046  0.1861 -0.1422
32335W        W75247  28.139  10.578   7.796 -0.1071 -0.1320 -0.0658
32336W        W75248  26.293  11.241   7.960  0.2124  0.0236 -0.0536
32337W        W75249  27.779  10.127   5.648  0.2537  0.0096  0.0084
32338W        W75250  25.938   8.225   5.197 -0.2175  0.1396  0.0365
32339W        W75251  26.167  10.681   2.911  0.2793  0.0709 -0.2441
32340W        W75252  28.287   9.676   4.899 -0.1293  0.1012 -0.0252
32341W        W75253  26.165   9.264   6.831  0.3315 -0.1560 -0.0704
32342W        W75254  26.098   9.548   5.820  0.2623  0.3219 -0.1021
32343W        W75255  28.629   9.015   6.542  0.0310 -0.0410  0.1680
32344W        W75256  26.092   9.348   3.584 -0.0408  0.0025  0.2081
32345W        W75257  28.104   8.350   3.940 -0.1051  0.0912 -0.2444
32346W        W75258  26.638   9.724   3.081  0.2773 -0.1135 -0.1858
32347W        W75259  28.102   9.949   4.127 -0.1131 -0.1553  0.2781
32348W        W75260  28.097   6.672   4.902 -0.0734 -0.0537 -0.1414
32349W        W75261  26.652  11.320   5.263 -0.1359 -0.1507 -0.5164
32350W        W75262  27.143   7.419   6.221  0.1628 -0.0825  0.0161
32351W        W75263  29.079  10.633   8.659  0.0789 -0.0510 -0.0738
32352W        W75264  27.171   9.891   4.317 -0.3661 -0.1319  0.1028
32353W        W75265  27.916   9.332   6.142 -0.0416 -0.1305 -0.0626
32354W        W75266  24.833  10.882   6.689  0.0352  0.0488  0.1795
32355W        W75267  25.626   8.587   5.343 -0.1075 -0.0295  0.3225
32356W        W75268  27.605  11.685   5.142  0.1349  0.1679  0.0042
32357W        W75269  28.402   9.814   5.521  0.3086  0.2917 -0.3648
32358W        W75270  25.958  11.376   4.905 -0.1816  0.1135 -0.0663
32359W        W75271  25.832   9.496   4.984  0.3203  0.1423 -0.2637
32360W        W75272  25.800   8.611   7.043 -0.3491  0.0466 -0.2544
32361W        W75273  24.188   8.118   5.892 -0.1458 -0.1645 -0.0295
32362W        W75274  26.710   7.959   4.786  0.1193 -0.0931  0.0238
32363W        W75275  30.158   8.897   7.816  0.1104  0.0196  0.2789
32364W        W75276  26.150   9.497   6.318 -0.0272 -0.1764  0.0675
32365W        W75277  28.610   8.038   5.579  0.0876  0.1678 -0.0412
32366W        W75278  26.076   9.954   7.150 -0.2235  0.1539 -0.0009
32367W        W75279  28.255  11.308   5.801 -0.0116 -0.0227 -0.0590
32368W        W75280  28.454   9.650   4.452 -0.0526  0.1521  0.2085
32369W        W75281  27.580   8.040   5.291 -0.1741  0.0254 -0.0777
32370W        W75282  27.624   8.875   6.476  0.4273  0.1702  0.0480
32371W        W75283  25.864   8.624   3.524 -0.1731 -0.2060 -0.0914
32372W        W75284  25.905   9.906   4.397  0.0014 -0.0490  0.0616
32373W        W75285  28.992  10.955   7.456 -0.2894 -0.2054  0.1970
32374W        W75286  27.463   9.923   3.409 -0.0751 -0.3321 -0.1777
32375W        W75287  26.676   9.316   5.480  0.2907 -0.1160  0.0303
32376W        W75288  27.415   7.850   6.156 -0.0135 -0.1136 -0.3358
32377W        W75289  27.195  11.012   7.668  0.1948  0.1684  0.3461
32378W        W75290  25.081  11.867   2.895 -0.2104 -0.0117 -0.1002
32379W        W75291  26.719   8.719   5.385  0.0050 -0.1718 -0.2853
32380W        W75292  25.848   9.298   4.164  0.0080 -0.0423  0.2100
32381W        W75293  24.425   6.780   7.851 -0.0551 -0.2244 -0.0444
32382W        W75294  25.891  10.130   6.651 -0.1235  0.2427  0.1755
32383W        W75295  27.206   6.792   4.437  0.0612  0.1522 -0.1593
32384W        W75296  27.628   7.372   6.394  0.1237 -0.0259  0.2156
32385W        W75297  27.748   8.964   4.505 -0.0700  0.0888 -0.0905
32386W        W75298  25.508  10.117   5.403 -0.0020 -0.1558 -0.3451
32387W        W75299  29.853  10.644   6.201  0.2395 -0.4251 -0.0211
32388W        W75300  26.362   9.806   4.589 -0.1977 -0.0138  0.0858
32389W        W75301  27.508  12.064   4.847  0.1461  0.3314 -0.0240
32390W        W75302  25.865   7.932   6.262  0.2154  0.2806  0.1597
32391W        W75303  25.773   8.967   4.553 -0.1503 -0.1914  0.0914
32392W        W75304  26.670   7.682   5.931  0.1664 -0.2767  0.3041
32393W        W75305  27.772   8.929   5.048  0.1470  0.1531  0.1192
32394W        W75306  29.432   9.292   6.859  0.1355  0.4315 -0.1689
32395W        W75307  24.990   7.216   4.595  0.1010  0.1539 -0.0161
32396W        W75308  28.088   8.606   4.811  0.0455 -0.0567  0.0928
32397W        W75309  26.276   8.387   4.757 -0.0898 -0.2059  0.1721
32398W        W75310  26.498   9.778   5.482 -0.1453 -0.2008 -0.3203
32399W        W75311  29.636   7.139   7.921  0.0556  0.2395  0.0858
32400W        W75312  26.996  10.534   6.803  0.0508 -0.0720  0.1199
32401W        W75313  29.409  10.945   7.741 -0.0634 -0.1906 -0.3464
32402W        W75314  29.887  12.289   5.966  0.2591  0.0532  0.2662
32403W        W75315  27.084   8.263   7.028  0.1789  0.0785  0.1688
32404W        W75316  26.758   8.349   3.904  0.1495 -0.1250  0.0247
32405W        W75317  27.411  12.759   5.839 -0.2294  0.0099  0.0385
32406W        W75318  26.109   8.788   5.630  0.0078 -0.0003 -0.0361
32407W        W75319  25.385   7.581   6.085  0.2343 -0.1373  0.0402
32408W        W75320  28.137  10.488   5.815  0.3351  0.1606 -0.4553
32409W        W75321  26.825  10.018   4.651 -0.2227 -0.0913 -0.3680
32410W        W75322  26.844   8.535   4.886  0.0085  0.1023 -0.4122
32411W        W75323  29.159   8.243   6.864  0.0560 -0.1656  0.1837
32412W        W75324  28.129   9.878   6.112  0.2391  0.2701  0.1400
32413W        W75325  28.018   8.136   5.553 -0.2291 -0.3382 -0.2915
32414W        W75326  25.424   8.620   3.247 -0.1194 -0.0638  0.0918
32415W        W75327  27.700  11.045   5.266 -0.2737  0.4382  0.0258
32416W        W75328  25.876  10.548   4.367  0.0536 -0.0502 -0.0641
32417W        W75329  24.986   9.264   4.967  0.2643 -0.2348 -0.0997
32418W        W75330  27.007  10.439   5.057  0.1658 -0.1171  0.1252
32419W        W75331  28.989   7.870   5.248  0.1657 -0.2035 -0.3052
32420W        W75332  26.162   9.154   8.410  0.2091  0.1539  0.3002
32421W        W75333  27.521   9.245   5.379  0.1094 -0.0682  0.1241
32422W        W75334  24.460   9.322   3.294 -0.4984  0.1744  0.0401
32423W        W75335  26.472  12.424   6.314  0.1998  0.0067  0.0873
32424W        W75336  26.577   8.219   5.165 -0.1103  0.2777  0.3020
32425W        W75337  29.487   8.786   3.685 -0.1129 -0.0555 -0.3077
32426W        W75338  27.915   9.570   5.633  0.1973  0.0629 -0.1448
32427W        W75339  28.649  10.341   5.820  0.0668  0.1564  0.1814
32428W        W75340  27.071   9.438   4.117  0.0910  0.3404 -0.0704
32429W        W75341  26.855   7.287   3.690  0.0718  0.0320 -0.1528
32430W        W75342  26.482   8.730   6.953  0.0046  0.0848 -0.0664
32431W        W75343  27.359  10.998   3.873  0.1434 -0.0728 -0.1727
32432W        W75344  27.223   8.803   5.304 -0.0489 -0.0516  0.2313
32433W        W75345  27.667   8.575   3.936  0.3918  0.0077 -0.0301
32434W        W75346  29.634  10.372   5.410  0.2378  0.1135 -0.2483
32435W        W75347  25.334   9.308   6.721 -0.1844 -0.1741  0.0212
32436W        W75348  27.964  10.109   7.943  0.0892  0.3135 -0.5462
32437W        W75349  27.961   9.445   5.167 -0.0813  0.0755 -0.0017
32438W        W75350  28.125   7.311   6.477 -0.2367  0.0332 -0.2536
32439W        W75351  25.666   9.064   3.736 -0.0337  0.2323 -0.1207
32440W        W75352  27.096   9.561   4.671  0.0577 -0.1581  0.4682
32441W        W75353  24.257  11.166   3.271  0.2320 -0.0258 -0.3424
32442W        W75354  27.893   7.800   6.376  0.0259 -0.4568  0.3259
32443W        W75355  27.498   7.820   6.689 -0.0087  0.0293  0.2608
32444W        W75356  27.107   7.854   5.685  0.1999  0.2621 -0.2840
32445W        W75357  30.131   7.870   6.930 -0.1521  0.1976 -0.4240
32446W        W75358  27.604   9.796   3.932 -0.1816 -0.1880  0.1721
32447W        W75359  28.200   9.123   4.896 -0.2048  0.1604 -0.1707
32448W        W75360  26.246   8.878   4.578  0.2976 -0.1783  0.2777
32449W        W75361  27.039   7.817   6.866  0.2873  0.0485 -0.2080
32450W        W75362  26.594  10.759   4.848  0.0018 -0.2834  0.0640
32451W        W75363  26.197  10.873   6.097  0.6018 -0.1064 -0.4454
32452W        W75364  27.538  10.239   5.212  0.2307 -0.0444 -0.0350
32453W        W75365  27.679  10.305   3.775  0.1134 -0.0555 -0.2837
32454W        W75366  27.207   9.357   7.867 -0.2711  0.1839 -0.1581
32455W        W75367  26.145   7.081   3.461  0.0976  0.3215  0.2017
32456W        W75368  26.426  10.711   4.342  0.0011  0.2401 -0.0196
32457W        W75369  26.232  11.100   3.979 -0.2632 -0.1410 -0.0017
32458W        W75370  26.518   6.247   6.409 -0.2648 -0.0868  0.2035
32459W        W75371  27.724  10.782   6.876  0.1451 -0.0186  0.0483
32460W        W75372  25.352  12.007   4.619  0.0406 -0.1692  0.0501
32461W        W75373  28.367   9.387   6.317  0.1921 -0.3460  0.1215
32462W        W75374  24.947  10.409   4.509 -0.3586  0.0769 -0.3332
32463W        W75375  29.324   7.506   7.856  0.2362  0.0289 -0.5494
32464W        W75376  25.762  11.620   6.346  0.3294  0.4533 -0.1303
32465W        W75377  25.807   8.552   4.787  0.0346  0.0417  0.0493
32466W        W75378  25.163   8.306   5.449 -0.0240  0.0432  0.2875
32467W        W75379  26.634   8.241   5.676  0.0861 -0.0614  0.1609
32468W        W75380  28.847   9.011   4.711  0.0885 -0.3384  0.3942
32469W        W75381  26.435   8.385   6.454  0.3292  0.2467 -0.0717
32470W        W75382  28.522   6.921   7.092 -0.3299 -0.1811  0.1754
32471W        W75383  25.749  10.741   5.904 -0.2363 -0.3496 -0.4208
32472W        W75384  28.035   9.108   5.484 -0.0210 -0.1452 -0.2087
32473W        W75385  27.394   8.600   4.398 -0.1356 -0.2056  0.2920
32474W        W75386  27.242  10.731   5.972 -0.1133 -0.0545  0.0813
32475W        W75387  27.499   9.437   8.231  0.0164 -0.1038 -0.2359
32476W        W75388  25.403   8.633   4.511  0.1865 -0.0755  0.0590
32477W        W75389  28.381   8.955   6.979 -0.5153 -0.2811  0.5546
32478W        W75390  26.257   8.582   5.205  0.2753  0.1397 -0.1263
32479W        W75391  26.016  12.621   5.366 -0.2116  0.0445 -0.2243
32480W        W75392  28.328  11.226   6.436  0.1927 -0.0382  0.1527
32481W        W75393  26.180  10.187   4.056  0.2286 -0.0043 -0.1416
32482W        W75394  25.706  10.982   4.351  0.0487  0.1049  0.2140
32483W        W75395  27.434   9.495   7.302  0.0552  0.0770  0.1669
32484W        W75396  28.416   9.352   5.769  0.1764 -0.2825  0.3555
32485W        W75397  27.139   8.496   5.688 -0.0141 -0.2411 -0.2619
32486W        W75398  25.153   7.752   3.690  0.0563 -0.1597  0.1602
32487W        W75399  27.522   9.306   4.834  0.0356 -0.0669  0.1847
32488W        W75400  27.707  10.528   6.088  0.2643 -0.1012  0.1543
32489W        W75401  27.465  10.058   6.021 -0.0980  0.2282  0.1700
32490W        W75402  27.459  11.132   8.078 -0.1698  0.0775 -0.1534
32491W        W75403  27.961   7.367   5.981  0.0138 -0.1108 -0.2335
32492W        W75404  29.212  10.206   4.960  0.3125  0.1483  0.0222
32493W        W75405  27.511  10.070   7.295 -0.2356 -0.3482 -0.0534
32494W        W75406  26.555   9.527   4.956 -0.2992  0.2086  0.1862
32495W        W75407  26.137   8.975   7.279 -0.2274  0.0895 -0.0269
32496W        W75408  26.111   9.373   4.615  0.2069 -0.2033  0.3366
32497W        W75409  27.136   8.167   6.501  0.0169 -0.1891  0.1749
32498W        W75410  27.000  10.004   6.129 -0.0146  0.2195 -0.0293
32499W        W75411  26.613   8.793   3.653  0.0002  0.0696  0.2759
32500W        W75412  25.491  10.295   6.283  0.0631 -0.2329  0.1847
32501W        W75413  27.604   7.798   3.302  0.0110 -0.0311  0.0679
32502W        W75414  27.544  10.630   4.225  0.2901  0.2981  0.3706
32503W        W75415  26.404   7.292   4.891  0.1330 -0.0722  0.0310
32504W        W75416  29.639   8.557   8.159 -0.0350 -0.1409  0.1874
32505W        W75417  28.180  10.410   3.950 -0.0006  0.2395  0.1367
32506W        W75418  28.100   8.303   7.274 -0.0630  0.1291  0.1311
32507W        W75419  26.883   8.336   6.060  0.0006 -0.0493  0.0877
32508W        W75420  28.764   9.836   5.142 -0.2342  0.0253  0.0269
32509W        W75421  26.168   8.332   6.864 -0.1186 -0.2453  0.1630
32510W        W75422  27.291  11.689   9.211 -0.4254 -0.0921 -0.3425
32511W        W75423  26.683   9.514   6.548  0.1743 -0.3006 -0.1531
32512W        W75424  27.584   8.495   4.924 -0.4029 -0.3065  0.0370
32513W        W75425  25.685   7.483   4.844 -0.3559  0.2605 -0.0382
32514W        W75426  26.459  11.209   4.828  0.0550 -0.3607  0.2266
32515W        W75427  29.092  10.684   6.660  0.0296  0.1791  0.3473
32516W        W75428  28.887  10.941   4.942  0.0894 -0.1340 -0.3313
32517W        W75429  28.135   8.603   5.315 -0.2798  0.0934  0.0590
32518W        W75430  26.487   9.874   6.049 -0.2460  0.3308 -0.1015
32519W        W75431  29.548   8.867   6.200  0.0005 -0.3057 -0.2466
32520W        W75432  26.879  10.546   4.525  0.1417  0.0500 -0.0480
32521W        W75433  25.937  10.293   4.743  0.3317 -0.2112 -0.1772
32522W        W75434  27.570   8.237   5.857 -0.0757 -0.0294 -0.1638
32523W        W75435  28.466   7.820   4.985  0.3931 -0.2628  0.1331
32524W        W75436  27.728   7.713   5.707  0.1162  0.3559  0.2977
32525W        W75437  28.405   7.977   6.891 -0.0198  0.0325  0.1752
32526W        W75438  27.986   9.981   5.216  0.2431 -0.0857 -0.2764
32527W        W75439  25.886   7.891   7.059 -0.2164  0.2169 -0.1209
32528W        W75440  26.424   8.713   7.911  0.0241  0.1034 -0.0998
32529W        W75441  28.533  11.364   8.146  0.0835  0.1933 -0.1053
32530W        W75442  28.568   8.512   4.518  0.0037  0.1477  0.0041
32531W        W75443  29.714   8.156   5.525  0.2936 -0.1689  0.1564
32532W        W75444  29.238   8.005   4.789  0.1808  0.1252 -0.0982
32533W        W75445  26.697  10.338   4.079 -0.2572  0.3353 -0.0319
32534W        W75446  26.261   7.846   5.565 -0.1021 -0.3141  0.1026
32535W        W75447  28.947   9.739   6.933  0.1298  0.3388  0.0887
32536W        W75448  26.628   8.146   4.374 -0.0572 -0.0629 -0.0621
32537W        W75449  27.806   9.635   6.962  0.0841  0.2451  0.1318
32538W        W75450  27.314  10.299   4.717  0.1076 -0.3058  0.1938
32539W        W75451  28.036  10.402   4.421  0.0466 -0.1112 -0.0828
32540W        W75452  27.657  10.042   4.371  0.0489 -0.0769 -0.2300
32541W        W75453  25.202   8.536   6.075 -0.0646 -0.0612  0.0240
32542W        W75454  27.042  10.601   7.995 -0.1746 -0.0227 -0.2209
32543W        W75455  26.515   8.402   3.348  0.1855 -0.0157  0.2884
32544W        W75456  25.851   9.762   5.466  0.2908  0.1651 -0.0382
32545W        W75457  27.305  11.307   6.779  0.0669 -0.0183  0.1172
32546W        W75458  29.381   9.719   7.133 -0.0886 -0.1778 -0.2142
32547W        W75459  27.590   7.615   3.982  0.0197 -0.3197 -0.0239
32548W        W75460  30.382   8.724   6.999 -0.2316 -0.0044  0.1329
32549W        W75461  25.662  12.292   5.209 -0.4203  0.0317  0.0368
32550W        W75462  28.481   8.297   5.124 -0.1436 -0.1674  0.2149
32551W        W75463  26.256   9.770   6.711  0.1211  0.0902  0.1965
32552W        W75464  25.142   8.331   6.942  0.2452  0.4729 -0.2513
32553W        W75465  27.037  10.941   4.255 -0.0520  0.2185 -0.0227
32554W        W75466  27.890   8.713   6.898  0.1641 -0.1029 -0.3218
32555W        W75467  28.832   8.425   5.388 -0.1460  0.1059 -0.0300
32556W        W75468  27.606   8.909   5.918 -0.0082  0.0049  0.4348
32557W        W75469  29.408   8.664   6.760 -0.1920 -0.3630 -0.2841
32558W        W75470  26.508  10.059   6.984 -0.2963 -0.0375 -0.1272
32559W        W75471  27.674  10.620   5.538 -0.0578 -0.0922  0.2661
32560W        W75472  28.458  10.866   6.047  0.1412 -0.3548  0.1241
32561W        W75473  28.588   9.827   5.994 -0.1495  0.2742 -0.0164
32562W        W75474  26.125  11.583   5.419 -0.1741  0.0089  0.3013
32563W        W75475  25.401   7.385   7.399 -0.2929 -0.2352 -0.0143
32564W        W75476  27.614   9.373   6.641 -0.0871  0.0881  0.0960
32565W        W75477  28.002   8.588   5.835 -0.0831 -0.0774  0.2994
32566W        W75478  23.520   8.512   4.127 -0.0480  0.1201 -0.0738
32567W        W75479  27.008  11.048   4.894  0.0767  0.3205  0.0493
32568W        W75480  25.958  10.557   6.385 -0.2761 -0.2052  0.0563
32569W        W75481  26.900   8.636   6.636 -0.1916  0.1573 -0.1940
32570W        W75482  27.619  11.829   5.656  0.0851 -0.2766  0.0501
32571W        W75483  27.990  10.885   4.056 -0.2071  0.0044  0.0787
32572W        W75484  27.423  10.773   4.912  0.0494  0.1399  0.1131
32573W        W75485  28.521  11.164   7.306 -0.3226 -0.0354  0.2068
32574W        W75486  25.494   8.203   5.864 -0.0567  0.0333  0.0803
32575W        W75487  26.774  11.221   6.123 -0.2138 -0.0031 -0.1513
32576W        W75488  25.461  11.201   4.767  0.0921  0.0814  0.1069
32577W        W75489  28.928  10.876   5.923  0.2089 -0.0316 -0.0834
32578W        W75490  27.246  11.877   6.075  0.2072  0.1288  0.2583
32579W        W75491  27.191  10.636   7.260 -0.1270 -0.1008  0.1115
32580W        W75492  27.091   7.680   3.384  0.1653 -0.0155 -0.1239
32581W        W75493  28.795   9.201   6.070 -0.2952  0.2747 -0.1243
32582W        W75494  28.593   8.140   4.147 -0.2267 -0.0061  0.1458
32583W        W75495  29.049  10.625   8.007 -0.2323  0.3514  0.1332
32584W        W75496  26.575   9.044   4.988  0.1259  0.1021  0.0014
32585W        W75497  27.135   8.215   4.626  0.0756 -0.3267 -0.2745
32586W        W75498  27.254   9.534   6.874 -0.1170 -0.3119 -0.1422
32587W        W75499  29.990   8.049   7.437 -0.0233  0.2474 -0.0757
32588W        W75500  25.395  12.160   7.088 -0.0841  0.0898 -0.2591
32589W        W75501  27.032  11.432   4.429 -0.0028  0.2390  0.1227
32590W        W75502  25.064   7.869   5.219 -0.1624 -0.0678  0.1234
32591W        W75503  25.654   9.368   5.959  0.1974 -0.1363 -0.1794
32592W        W75504  29.420   8.464   5.836  0.1879  0.0208  0.2881
32593W        W75505  28.104  10.166   3.497 -0.2126  0.2281 -0.1373
32594W        W75506  27.292   9.154   6.122  0.0295  0.0649 -0.0118
32595W        W75507  26.041  10.664   3.908  0.1228  0.0631  0.0551
32596W        W75508  26.200  10.537   5.058 -0.0062  0.0733 -0.1972
32597W        W75509  25.609   9.703   6.349  0.0075  0.0538  0.1578
32598W        W75510  25.551   7.116   5.159 -0.1239 -0.2077  0.2102
32599W        W75511  28.914   8.409   4.874  0.3274 -0.1202  0.1183
32600W        W75512  26.199   9.704   7.743 -0.1784 -0.3741  0.3156
32601W        W75513  30.408   8.184   7.224 -0.1598  0.0399  0.0557
32602W        W75514  26.665  10.250   5.712  0.0534  0.3362  0.1869
32603W        W75515  28.269   8.500   2.992 -0.0024 -0.0426 -0.1025
32604W        W75516  27.024   9.355   5.164 -0.0066 -0.1166  0.2103
32605W        W75517  27.338   8.565   6.156  0.0438 -0.0223 -0.3043
32606W        W75518  26.733   9.830   4.130 -0.0941  0.3220  0.4361
32607W        W75519  28.346  10.288   6.292  0.2838  0.0920  0.0430
32608W        W75520  27.929  11.357   4.413  0.3276  0.2439  0.1811
32609W        W75521  29.642   9.975   6.769 -0.0990  0.0632 -0.2044
32610W        W75522  25.457   8.634   3.875 -0.2166  0.0127  0.3615
32611W        W75523  27.069   7.375   4.161 -0.3370  0.1092  0.1610
32612W        W75524  27.505   9.535   4.377 -0.2729  0.5113 -0.0241
32613W        W75525  27.170   9.082   6.652 -0.3030 -0.2036  0.1237
32614W        W75526  29.176  10.204   6.841 -0.2204 -0.1594  0.1630
32615W        W75527  26.494   7.382   5.479 -0.0150 -0.1990  0.0834
32616W        W75528  27.592  11.269   4.772  0.1831  0.2191  0.0102
32617W        W75529  29.733   8.193   4.931 -0.1719  0.1438  0.2635
32618W        W75530  26.612  12.472   4.897  0.1651  0.1257  0.3855
32619W        W75531  28.585  10.745   5.509  0.0057  0.0401 -0.2938
32620W        W75532  27.251  11.303   5.273  0.0019 -0.0984  0.2284
32621W        W75533  25.381   7.912   6.978 -0.0060  0.5158 -0.4152
32622W        W75534  28.886   9.563   5.700  0.1588 -0.1828 -0.2340
32623W        W75535  29.281   9.116   5.808  0.0594  0.1972 -0.2055
32624W        W75536  26.765   7.091   4.450 -0.0013 -0.0767 -0.3343
32625W        W75537  27.079   8.131   5.208  0.0727  0.1797 -0.4104
32626W        W75538  25.707  11.688   4.584  0.0964 -0.2696  0.0623
32627W        W75539  29.804   8.337   6.641  0.0124 -0.1593  0.0264
32628W        W75540  28.781   8.169   6.501 -0.1642  0.0329 -0.0724
32629W        W75541  27.116  10.513   3.929  0.0805 -0.1526 -0.2650
32630W        W75542  28.638   7.048   8.001 -0.0350  0.0299 -0.0079
32631W        W75543  26.840  10.005   6.668  0.4080  0.0101  0.2766
32632W        W75544  27.409  11.887   7.511 -0.1234  0.0008  0.0570
32633W        W75545  26.292   9.471   4.119  0.2166 -0.0832 -0.0437
32634W        W75546  27.962  10.500   5.158  0.1255  0.0706  0.1438
32635W        W75547  26.548  10.256   5.211 -0.1555  0.1590 -0.4514
32636W        W75548  26.960  11.624   4.892 -0.3328 -0.0102  0.1711
32637W        W75549  29.493   9.988   6.295  0.1377  0.0399 -0.0464
32638W        W75550  27.624   8.612   5.465 -0.1948 -0.1783  0.0267
32639W        W75551  29.678  10.034   5.027  0.0396  0.2684  0.2922
32640W        W75552  27.177   7.662   4.968  0.4197 -0.1230  0.0667
32641W        W75553  30.417   8.251   4.807 -0.1822  0.1145 -0.0307
32642W        W75554  27.537   7.108   4.132 -0.1289  0.0465 -0.1388
32643W        W75555  26.316   8.033   6.054 -0.0339 -0.0154 -0.1130
32644W        W75556  24.961   8.742   4.809 -0.0504  0.1671 -0.1126
32645W        W75557  25.405   9.675   3.941  0.0987 -0.0243 -0.0669
32646W        W75558  26.038  10.253   5.620 -0.0598 -0.2265 -0.0044
32647W        W75559  28.333   7.482   7.115 -0.0506 -0.0800 -0.0748
32648W        W75560  26.612   8.978   7.388  0.0068  0.2800 -0.1852
32649W        W75561  26.834   8.925   6.169  0.0441  0.2248 -0.2052
32650W        W75562  24.374   7.940   3.838 -0.1298  0.1589 -0.2232
32651W        W75563  27.508  11.321   5.656  0.2820  0.3684  0.0671
32652W        W75564  25.990   7.400   4.476 -0.0537 -0.1574  0.3532
32653W        W75565  24.223   7.764   5.541 -0.1278 -0.2385  0.0449
32654W        W75566  28.406  10.787   5.042  0.1707  0.3046  0.4715
32655W        W75567  27.455  11.161   4.334  0.1578 -0.1096  0.0788
32656W        W75568  26.133   6.877   5.401  0.3285 -0.0278  0.2034
32657W        W75569  29.452   8.925   7.236 -0.1318 -0.1671  0.0628
32658W        W75570  25.894   8.644   4.215 -0.3476 -0.0884  0.0786
32659W        W75571  27.629   8.543   7.269 -0.1892 -0.0396  0.5259
32660W        W75572  26.542   7.507   8.249  0.1416 -0.2496  0.2387
32661W        W75573  26.401   8.558   4.129 -0.3362 -0.1252  0.2085
32662W        W75574  26.216   9.364   5.284 -0.0351 -0.2119 -0.0007
32663W        W75575  28.898  11.111   6.952  0.1698  0.1337 -0.0080
32664W        W75576  28.544  12.217   3.415  0.0666 -0.0427  0.1590
32665W        W75577  28.292   9.947   7.000 -0.1023  0.0724 -0.1116
32666W        W75578  28.244  11.039   6.890  0.1788  0.0979 -0.1031
32667W        W75579  26.378   7.256   7.338 -0.0763 -0.1097 -0.1152
32668W        W75580  28.319  10.294   5.437  0.0814  0.2055 -0.0017
32669W        W75581  27.028   8.785   7.099 -0.1361  0.2295 -0.2976
32670W        W75582  29.525  10.345   3.973  0.4402 -0.0573  0.1593
32671W        W75583  28.211   7.744   5.833 -0.0179  0.0175 -0.1300
32672W        W75584  28.467   9.335   5.265 -0.0257 -0.0019  0.2908
32673W        W75585  26.357   7.054   6.549 -0.0969 -0.1692 -0.3750
32674W        W75586  27.369   9.945   6.711 -0.0521  0.0552  0.1695
32675W        W75587  29.617  10.147   7.235  0.2075 -0.1110  0.1403
32676W        W75588  26.636   6.772   4.978  0.1661  0.2713  0.1227
32677W        W75589  28.097   7.915   4.157  0.2282 -0.4331 -0.2187
32678W        W75590  26.428  11.270   3.552  0.2082 -0.1508 -0.3331
32679W        W75591  25.899   8.456   6.206 -0.2235 -0.0364  0.0120
32680W        W75592  27.971   8.147   5.037 -0.0324 -0.1892  0.0537
32681W        W75593  28.627  10.267   6.690 -0.0843  0.0770 -0.3510
32682W        W75594  28.704  11.530   6.657  0.2682  0.5181 -0.0028
32683W        W75595  28.603  10.763   6.602  0.1407  0.0953  0.0138
32684W        W75596  25.768   8.072   4.768 -0.0404 -0.1618 -0.5817
32685W        W75597  28.761   9.852   4.079 -0.0544  0.0933  0.1398
32686W        W75598  27.761   9.784   6.429  0.2244 -0.1460 -0.5950
32687W        W75599  28.852   9.850   9.069  0.0149 -0.0266 -0.0136
32688W        W75600  27.265  10.864   6.513 -0.1004 -0.1628  0.0144
32689W        W75601  28.805   9.586   6.478 -0.2438 -0.2482 -0.2212
32690W        W75602  26.736   7.868   6.368 -0.1341 -0.0324  0.0159
32691W        W75603  25.959   9.034   4.996  0.2182  0.2187 -0.0663
32692W        W75604  26.898   9.922   5.187  0.0076 -0.0496  0.0018
32693W        W75605  28.085   8.658   6.392 -0.0665  0.1237 -0.0789
32694W        W75606  26.203   7.837   5.051  0.2483  0.0444  0.0690
32695W        W75607  27.580   8.002   4.725  0.0146 -0.2867 -0.2134
32696W        W75608  26.719  11.102   7.477 -0.1002 -0.1749 -0.1742
32697W        W75609  27.925  10.984   5.993  0.1735 -0.0356 -0.1011
32698W        W75610  25.492   9.818  10.040 -0.4490  0.0962 -0.1266
32699W        W75611  26.807   9.653   7.045  0.0343 -0.4811  0.1640
32700W        W75612  29.173   7.848   7.205  0.0973 -0.0020 -0.3028
32701W        W75613  29.151   8.780   9.715  0.0677 -0.0497 -0.2337
32702W        W75614  25.709   8.737   8.719 -0.0787 -0.1107 -0.2938
32703W        W75615  29.623  11.112   9.258 -0.3602 -0.0123 -0.0604
32704W        W75616  27.361  10.019   9.253  0.2851 -0.0079  0.0038
32705W        W75617  29.380   9.508   9.006 -0.1614  0.0215 -0.0831
32706W        W75618  28.587   9.754   7.311 -0.0017  0.0713  0.2516
32707W        W75619  26.758   8.405  10.405 -0.0604 -0.2047  0.1728
32708W        W75620  28.588   8.707   8.765  0.4740  0.0748 -0.0721
32709W        W75621  24.651   8.508  10.236 -0.1289  0.2141 -0.4548
32710W        W75622  27.931  10.910   9.226  0.0721  0.2496  0.2060
32711W        W75623  27.429   9.780   8.543 -0.0410 -0.0013 -0.1329
32712W        W75624  26.933   7.362   9.349  0.0409  0.2685 -0.2191
32713W        W75625  26.244   9.408   9.471  0.0226 -0.0428  0.2609
32714W        W75626  27.208  12.931   9.467 -0.1082  0.1528 -0.1053
32715W        W75627  26.135   9.300   8.957  0.3041 -0.1772 -0.2714
32716W        W75628  27.400  11.296   8.573 -0.1372 -0.1991  0.1513
32717W        W75629  25.296   8.386   7.484 -0.1320 -0.1943  0.0776
32718W        W75630  24.937   9.377   8.243 -0.2271 -0.1750 -0.3760
32719W        W75631  25.702   9.258   9.222 -0.1923  0.0071 -0.1413
32720W        W75632  28.614   8.880   9.552 -0.4320  0.0283 -0.0904
32721W        W75633  28.198   9.378   7.625  0.0297  0.1224  0.1072
32722W        W75634  27.001   9.922   8.840  0.2131  0.2271 -0.2217
32723W        W75635  28.555  10.494  10.392 -0.1535 -0.0131 -0.1723
32724W        W75636  25.500  10.299   7.661 -0.0189  0.3094  0.1992
32725W        W75637  25.533  10.863   7.065  0.1255 -0.0885  0.1559
32726W        W75638  28.115   9.280  10.173 -0.0359  0.1381 -0.0061
32727W        W75639  29.674  10.011  10.091  0.3134 -0.2880  0.3389
32728W        W75640  25.410   8.764   7.927 -0.1534  0.0916  0.0115
32729W        W75641  26.661  10.223   9.805  0.1061 -0.3857 -0.0750
32730W        W75642  27.994   9.944   8.477 -0.0140  0.1477  0.0529
32731W        W75643  26.609  12.309   8.681  0.0030  0.0488  0.1519
32732W        W75644  26.850  10.677   9.308 -0.1941 -0.1534 -0.0359
32733W        W75645  25.130   9.811   8.526  0.0316 -0.1855 -0.0318
32734W        W75646  26.042  10.797   7.922 -0.0899 -0.2211 -0.0092
32735W        W75647  29.873   8.448   7.118  0.0112  0.1981  0.3642
32736W        W75648  27.977   9.099   8.276  0.0923  0.2842 -0.0620
32737W        W75649  28.758   8.638   7.923 -0.0444  0.0473 -0.1102
32738W        W75650  27.446   8.970   8.030 -0.1919  0.1429 -0.0539
32739W        W75651  25.695  10.308  10.178 -0.1540 -0.0512  0.0309
32740W        W75652  26.138   7.837   8.936 -0.1189 -0.2729 -0.2111
32741W        W75653  28.582  10.837   8.012  0.1420 -0.3323 -0.0993
32742W        W75654  27.330   8.092   8.581  0.1891  0.1428  0.2379
32743W        W75655  25.699   9.825   9.198 -0.0747  0.0696  0.2555
32744W        W75656  26.577   9.968   7.468 -0.1239 -0.3317  0.2775
32745W        W75657  29.640   9.822   7.638 -0.3540 -0.1581  0.2030
32746W        W75658  28.462  10.003   8.076 -0.0466  0.0829 -0.0805
32747W        W75659  27.857  11.142   8.675 -0.3820 -0.1218 -0.0630
32748W        W75660  26.556  10.041   8.685 -0.2130  0.0526  0.1155
32749W        W75661  26.021   7.536   7.556  0.1302 -0.1502  0.2048
32750W        W75662  29.268   9.018  10.358 -0.6605 -0.3710  0.1890
32751W        W75663  25.261  10.125  10.327  0.1997  0.2058  0.1194
32752W        W75664  27.092  12.242   9.996  0.0789 -0.2326  0.2593
32753W        W75665  29.089   8.907   7.623  0.1812 -0.1714 -0.0425
32754W        W75666  27.027   9.909   9.637 -0.3204  0.1406  0.1693
32755W        W75667  28.146   9.100   9.690 -0.0150  0.1638 -0.1093
32756W        W75668  26.410   9.439   7.272 -0.0424  0.1810 -0.2168
32757W        W75669  27.903  10.505   7.275 -0.3809 -0.1055  0.0513
32758W        W75670  28.174  10.132   9.090  0.0498  0.0036  0.1040
32759W        W75671  28.471   9.449   6.832  0.1446 -0.0326 -0.1883
32760W        W75672  24.597  10.205  10.033 -0.1899 -0.1344  0.2535
32761W        W75673  26.649  11.291   6.629 -0.3767  0.0143 -0.0074
32762W        W75674  25.465   8.727   9.866  0.0269  0.0506 -0.0816
32763W        W75675  26.049  10.353   8.054  0.0832  0.2738 -0.0288
32764W        W75676  26.006   8.312   8.997 -0.0806  0.1671 -0.0063
32765W        W75677  26.541  11.713  10.185  0.0186  0.1079  0.6324
32766W        W75678  28.791   8.950  10.053 -0.0997  0.2040 -0.3307
32767W        W75679  27.808   6.313   8.960 -0.1979 -0.5740  0.1259
32768W        W75680  25.869  10.285   9.046  0.2009  0.0810 -0.0338
32769W        W75681  28.937   9.852   8.386  0.1265 -0.1246  0.1119
32770W        W75682  29.424   8.126   8.508  0.0813 -0.0687  0.0752
32771W        W75683  28.780  10.197   7.224 -0.0544  0.0077 -0.2857
32772W        W75684  26.319   9.608   8.622  0.0028  0.1091 -0.0609
32773W        W75685  27.590   8.493   8.872 -0.2286 -0.0524 -0.0250
32774W        W75686  24.679   9.179   9.541 -0.1803 -0.0595 -0.1768
32775W        W75687  26.929   8.510   7.922 -0.0596  0.1024  0.1909
32776W        W75688  28.639   9.166   7.790 -0.0718  0.0639  0.2097
32777W        W75689  26.240   8.901   9.391  0.0679  0.3310  0.1814
32778W        W75690  26.445  10.434   7.651  0.0741 -0.3439  0.2103
32779W        W75691  29.523   9.871   8.574  0.0200  0.1516 -0.1699
32780W        W75692  25.974  10.791   9.797  0.4280  0.0754 -0.0567
32781W        W75693  29.733  10.113   9.543  0.0714  0.3415 -0.0430
32782W        W75694  26.808   9.014   9.736  0.0227 -0.1483  0.1068
32783W        W75695  26.858   9.697   8.433 -0.0510  0.3325  0.1793
32784W        W75696  24.871  11.891   9.463  0.0632 -0.0114 -0.2723
32785W        W75697  25.270  11.779   9.819  0.1759 -0.0146  0.1461
32786W        W75698  27.624   8.086   7.194  0.2206  0.0592  0.1839
32787W        W75699  29.310   9.085   9.327 -0.3103 -0.0329 -0.0976
32788W        W75700  27.351  10.280   8.795 -0.1325 -0.1950  0.3915
32789W        W75701  29.435   7.269   9.846 -0.1674 -0.0094  0.1866
32790W        W75702  28.373  10.177   7.594 -0.1077  0.1098 -0.2776
32791W        W75703  26.508   7.699   7.517 -0.1596  0.0201  0.2019
32792W        W75704  28.401   9.800   9.420  0.0808 -0.1044 -0.0227
32793W        W75705  26.328  11.743   6.957  0.3155  0.1854 -0.0183
32794W        W75706  26.202  10.409   8.601 -0.2196 -0.3030  0.0891
32795W        W75707  26.983  11.349   9.370 -0.0403 -0.0244  0.0810
32796W        W75708  27.393   8.385   9.294 -0.1390 -0.1132  0.0311
32797W        W75709  27.632   9.237   7.661  0.0089  0.1479 -0.2213
32798W        W75710  27.590   6.733   8.672  0.0975 -0.0957  0.1088
32799W        W75711  30.158   8.766   8.312 -0.2591 -0.0112 -0.1528
32800W        W75712  28.454   9.762  10.081  0.0840 -0.3535 -0.0045
32801W        W75713  28.676   7.792   7.440  0.0757 -0.0020 -0.0990
32802W        W75714  27.908   8.126   6.812  0.0262 -0.0067  0.1928
32803W        W75715  27.370  11.567   7.955  0.0030 -0.0649  0.0688
32804W        W75716  27.734   9.942   8.911  0.2567  0.2028 -0.0788
32805W        W75717  27.481   9.086   7.025  0.2319  0.0338 -0.4001
32806W        W75718  28.311  11.175   8.901  0.3032  0.0084 -0.1851
32807W        W75719  25.570  11.605  10.217  0.0532 -0.1366  0.0567
32808W        W75720  26.688  11.137   8.938  0.1167  0.1130  0.2314
32809W        W75721  28.265   8.911   9.247  0.0362 -0.0296  0.1189
32810W        W75722  27.205   8.910   7.624 -0.0261  0.1206  0.3722
32811W        W75723  27.694   8.405   8.412 -0.0445  0.0919  0.0398
32812W        W75724  26.260  12.190   6.702 -0.4187  0.1967  0.2543
32813W        W75725  28.652   9.726  10.578  0.2169 -0.0550 -0.3630
32814W        W75726  27.884  10.003   9.508  0.2571 -0.2544  0.1332
32815W        W75727  28.559   8.549   6.279  0.2203  0.2511 -0.1605
32816W        W75728  26.342   9.375  10.291  0.0982  0.2508 -0.0866
32817W        W75729  26.021  10.193   7.564 -0.0954  0.2925 -0.2819
32818W        W75730  27.185   9.076   9.392  0.0565  0.1816  0.0300
32819W        W75731  24.932   9.647  10.150  0.0263 -0.4106  0.1058
32820W        W75732  28.353  10.735   7.324 -0.0910  0.0330  0.0286
32821W        W75733  29.340   8.515   7.755 -0.0072  0.0475  0.1316
32822W        W75734  28.222  11.478   8.540 -0.3217 -0.0611 -0.3231
32823W        W75735  26.701   9.146   6.882  0.1549  0.0343 -0.3861
32824W        W75736  27.707   7.987   8.147 -0.3547 -0.0856 -0.1168
32825W        W75737  26.806  10.140   9.243  0.0712 -0.3086 -0.2577
32826W        W75738  27.452  11.102   7.197  0.0591 -0.0317 -0.0437
32827W        W75739  24.708   8.888   8.556  0.2337 -0.2468 -0.3524
32828W        W75740  26.228  10.885   7.421 -0.1208 -0.0239 -0.1614
32829W        W75741  27.457   7.437   9.208 -0.0110 -0.0285 -0.0852
32830W        W75742  26.378  11.543   8.875  0.1128 -0.1437  0.0871
32831W        W75743  26.650   9.480   7.673 -0.2730 -0.1464  0.0779
32832W        W75744  27.174   8.569   8.418 -0.1598  0.2744  0.0119
32833W        W75745  28.792   7.980   9.123  0.0112  0.0314  0.1200
32834W        W75746  29.635   8.924   7.802 -0.0538 -0.1866 -0.0276
32835W        W75747  25.167   8.574   8.876  0.0226  0.3195 -0.1571
32836W        W75748  26.567   7.707  10.225 -0.2116  0.1110 -0.0832
32837W        W75749  25.047  12.277   9.714 -0.0522 -0.0852  0.2381
32838W        W75750  29.092   7.984   7.884  0.2888 -0.0286 -0.1797
32839W        W75751  26.276   7.801   7.894  0.0205 -0.2750 -0.3469
32840W        W75752  30.397   8.736   9.831 -0.1035  0.6092 -0.2705
32841W        W75753  27.733   8.694   9.470 -0.1030  0.0364 -0.1786
32842W        W75754  25.663  11.330   6.774  0.3255  0.0654  0.0937
32843W        W75755  27.580  11.928  10.189  0.0842  0.0848 -0.0909
32844W        W75756  26.613   9.917   7.993 -0.2052 -0.0069  0.1460
32845W        W75757  26.988  11.127   8.360  0.2272  0.0897  0.0276
32846W        W75758  29.965   9.067  10.153 -0.2732  0.2180 -0.1459
32847W        W75759  27.875   7.581   9.133  0.1335  0.0991  0.0658
32848W        W75760  27.192   8.748   8.926 -0.1426  0.1616  0.0431
32849W        W75761  28.280   9.150   8.717  0.1085  0.2571 -0.0092
32850W        W75762  29.155  10.393  10.344  0.0922  0.0900  0.0829
32851W        W75763  29.692   9.178  10.599 -0.0412 -0.0391 -0.2149
32852W        W75764  27.876   8.619   8.011  0.2279  0.1564 -0.0758
32853W        W75765  28.285  12.210   9.210  0.0134 -0.0320 -0.1983
32854W        W75766  26.702  10.530   7.266  0.0674  0.0226 -0.0033
32855W        W75767  25.938   9.516   8.187 -0.0637  0.0268 -0.0844
32856W        W75768  26.995  10.209   8.450  0.1650  0.1417 -0.1554
32857W        W75769  28.268  10.172   9.872  0.4594  0.1663 -0.0571
32858W        W75770  25.414  11.279   9.802 -0.1058 -0.0800  0.1714
32859W        W75771  26.158  11.344   6.661 -0.2312  0.2052 -0.6322
32860W        W75772  25.369  10.262   9.439 -0.2685 -0.1982  0.2636
32861W        W75773  28.570   8.419   8.312 -0.1316 -0.1320  0.0654
32862W        W75774  27.962   9.818   7.418 -0.0363 -0.1155  0.1355
32863W        W75775  27.779   8.884   9.945 -0.0703  0.0546 -0.1451
32864W        W75776  29.146   8.928   8.150 -0.2478  0.0374  0.1861
32865W        W75777  26.404   8.142   9.628  0.0828  0.0808  0.0539
32866W        W75778  28.760  10.178  10.009  0.2008 -0.2197 -0.0323
32867W        W75779  27.526   9.002   8.599  0.1041 -0.0478 -0.0739
32868W        W75780  28.188   7.838   7.460  0.1805 -0.2486 -0.1998
32869W        W75781  27.668  10.476   9.701  0.1494  0.2226 -0.2964
32870W        W75782  28.707  10.386   8.250 -0.0536  0.0551 -0.4435
32871W        W75783  26.999  10.299   7.594 -0.1055 -0.0753  0.1353
32872W        W75784  29.571   9.031   9.781  0.2035 -0.1484 -0.0144
32873W        W75785  26.430  11.254   9.904  0.0021  0.0465 -0.0550
32874W        W75786  27.871   9.012   8.962  0.0856  0.1618  0.0237
32875W        W75787  28.423   9.566   8.396  0.1191  0.0988  0.2034
32876W        W75788  26.652  10.864   7.948  0.0577 -0.0801 -0.1722
32877W        W75789  26.158  10.419  10.103  0.0278  0.1327 -0.2626
32878W        W75790  27.287   9.055   9.872  0.1485  0.1736  0.0132
32879W        W75791  27.822  11.631   8.856 -0.0120 -0.4677  0.0764
32880W        W75792  28.057   9.135   6.650  0.0212  0.2117 -0.0917
32881W        W75793  29.521   9.427  10.128  0.1852 -0.0358  0.0095
32882W        W75794  28.136   8.549   9.681  0.2514  0.1143 -0.0049
32883W        W75795  28.610   9.277   7.282  0.2281 -0.1579 -0.2586
32884W        W75796  26.742   8.655   8.813  0.1228  0.0113 -0.1260
32885W        W75797  26.223   9.181   7.693 -0.0427  0.0770 -0.2756
32886W        W75798  26.588  10.771   8.572 -0.2316 -0.3261 -0.1767
32887W        W75799  29.000   9.485   9.364 -0.1345 -0.3038  0.1539
32888W        W75800  27.877   9.841  10.052 -0.1095  0.2581  0.0498
32889W        W75801  23.967   7.893   8.231  0.1295 -0.0567 -0.3792
32890W        W75802  27.429   7.101   7.323  0.1236  0.1705 -0.1291
32891W        W75803  27.595  10.229   8.332 -0.0325 -0.2357 -0.0206
32892W        W75804  28.543  10.831   9.403 -0.1405  0.0602 -0.2707
32893W        W75805  28.918   8.608   6.657  0.1951 -0.2890  0.0158
32894W        W75806  26.591  10.417   8.192  0.1294 -0.2211 -0.1302
32895W        W75807  27.542   7.560   8.613  0.2566 -0.0970  0.2385
32896W        W75808  25.603  11.136   9.337  0.1080  0.0926  0.2070
32897W        W75809  26.566  12.717   8.352  0.0256 -0.1360 -0.4434
32898W        W75810  27.290   6.220   9.408  0.0749 -0.0461  0.3218
32899W        W75811  28.585   9.352   9.782  0.2154  0.1534 -0.1127
32900W        W75812  27.978   9.554   9.669 -0.3353  0.1471  0.0054
32901W        W75813  26.219   9.929   9.045 -0.1884 -0.2424 -0.0496
32902W        W75814  29.683   8.807   9.387 -0.1134  0.1620  0.1926
32903W        W75815  26.488   9.871   9.455  0.0832  0.2324 -0.0319
32904W        W75816  27.172  10.515   9.693 -0.1381 -0.2606 -0.3888
32905W        W75817  27.880   8.206   7.703  0.1395 -0.1776 -0.4717
32906W        W75818  28.870  10.148   7.864  0.2341  0.0113 -0.0975
32907W        W75819  25.354   9.537   8.916  0.1256 -0.0887 -0.0743
32908W        W75820  26.619  11.822   8.471  0.1259 -0.0372 -0.3129
32909W        W75821  28.181  10.402   8.270  0.0509  0.0681  0.0403
32910W        W75822  29.315   9.814   8.007  0.2065 -0.0809  0.2705
32911W        W75823  26.594  13.802  10.277  0.1813  0.3684  0.1231
32912W        W75824  28.010   9.572   8.084  0.1042  0.2293 -0.1436
32913W        W75825  25.396  10.090   8.909  0.0767  0.0314 -0.1037
32914W        W75826  25.403  11.875   6.626  0.2071 -0.2288 -0.0917
32915W        W75827  28.255  10.631   9.008 -0.0265 -0.1582 -0.0451
32916W        W75828  26.032  10.766   9.301 -0.1939 -0.2662  0.1415
32917W        W75829  30.217   7.662   5.755  0.2782 -0.0856 -0.2585
32918W        W75830  30.120   9.664   9.287  0.1293  0.0435 -0.2195
32919W        W75831  28.089   8.516   8.951 -0.2951  0.1677  0.1567
32920W        W75832  24.896   8.843   9.834 -0.1331 -0.2419 -0.0979
32921W        W75833  28.048   8.750   7.498 -0.0874  0.1635 -0.0250
32922W        W75834  27.188  10.638   8.473  0.0814 -0.0497  0.2020
32923W        W75835  27.057   9.036   8.504 -0.0722 -0.0908  0.2183
32924W        W75836  25.377  10.715   9.722 -0.2596 -0.1254 -0.0970
32925W        W75837  29.655   7.790  10.360 -0.1262  0.0934  0.0692
32926W        W75838  27.959  10.297   6.581 -0.0121 -0.0660 -0.2481
32927W        W75839  27.098   9.393   8.809 -0.0513  0.0192  0.0717
32928W        W75840  26.444  11.280   8.501 -0.0475 -0.0002  0.0708
32929W        W75841  27.163  11.877   9.681  0.1121 -0.0258 -0.1848
32930W        W75842  26.066  12.531  10.428  0.5507  0.0485  0.1008
32931W        W75843  26.238   8.791   8.878  0.1877 -0.1523  0.0084
32932W        W75844  30.137   8.339   8.057 -0.0309  0.0564  0.1845
32933W        W75845  26.074   7.872  10.004  0.0033 -0.0047 -0.1291
32934W        W75846  27.456   9.569   9.123  0.2123 -0.5169 -0.0286
32935W        W75847  29.291   9.376   7.821 -0.1213  0.0135  0.1101
32936W        W75848  26.034  11.777  10.245 -0.0602  0.0057 -0.3566
32937W        W75849  25.839   9.028   9.657  0.2021 -0.3708  0.0173
32938W        W75850  27.156   9.901   8.060 -0.0594 -0.0509  0.0588
32939W        W75851  27.414   9.744   5.358  0.0863  0.0544 -0.0881
32940W        W75852  25.335   8.032   8.370 -0.1715 -0.2445  0.1855
32941W        W75853  29.683   8.991   8.343  0.2152  0.0615  0.0046
32942W        W75854  27.881   9.481   8.592 -0.0136  0.1164 -0.1576
32943W        W75855  25.986   8.486   9.600  0.1543  0.0536 -0.0670
32944W        W75856  25.492   8.166   8.786 -0.0099  0.0720 -0.3611
32945W        W75857  30.205   9.398   7.564  0.0745  0.0762  0.3209
32946W        W75858  27.662   9.200   9.384 -0.1000  0.1153 -0.0696
32947W        W75859  27.009  11.828   7.788 -0.0352  0.3535  0.0560
32948W        W75860  27.753  10.440   9.186  0.1792  0.1125 -0.0241
32949W        W75861  27.518  12.009   8.834 -0.0574  0.4823 -0.3582
32950W        W75862  25.952   7.423   9.099  0.2331 -0.3080 -0.1512
32951W        W75863  26.707  12.214  10.461 -0.0716  0.0256 -0.3912
32952W        W75864  27.503  10.068   9.833 -0.1806  0.0292 -0.1207
32953W        W75865  28.853   7.512   7.914 -0.2705  0.1323 -0.2268
32954W        W75866  25.835   8.797   9.177 -0.5292 -0.1426 -0.0104
32955W        W75867  26.261  11.451   6.134  0.0540  0.0217  0.0419
32956W        W75868  28.986   7.249   8.887  0.1096 -0.0230 -0.2635
32957W        W75869  27.524  10.384   7.701 -0.0288  0.4059  0.0510
32958W        W75870  25.810   9.719   8.689  0.0098 -0.1306 -0.1515
32959W        W75871  25.719   8.213   6.662 -0.3549 -0.0754 -0.1481
32960W        W75872  27.817  10.756   8.174  0.0862  0.0617 -0.3245
32961W        W75873  26.095  11.323   9.248  0.1124  0.1371 -0.0312
32962W        W75874  30.184   9.209   9.646  0.0040 -0.0150  0.0046
32963W        W75875  28.187   8.656   8.483 -0.1380  0.0235 -0.1296
32964W        W75876  28.186  10.487   9.478  0.0429  0.3046  0.2524
32965W        W75877  27.209   7.529  10.355 -0.0793  0.2248  0.0524
32966W        W75878  30.188   6.431   8.118 -0.2731  0.0189  0.1270
32967W        W75879  28.376   8.367   7.757  0.0011  0.2511  0.1115
32968W        W75880  25.840   9.496   9.752 -0.0573  0.0295  0.2182
32969W        W75881  26.785   9.061   7.967  0.2773  0.5932 -0.0653
32970W        W75882  27.110   9.793   7.579  0.3169 -0.1228  0.1981
32971W        W75883  24.944  10.975   9.919 -0.2987  0.1681  0.2911
32972W        W75884  26.173   9.946   8.297  0.2644 -0.3493 -0.0386
32973W        W75885  25.925   8.127   8.523 -0.0057 -0.1053  0.1282
32974W        W75886  29.140   9.296   7.333  0.1068  0.1379 -0.2353
32975W        W75887  25.136   8.598  10.345  0.0454 -0.1802  0.1122
32976W        W75888  25.098   8.461   8.183 -0.2443  0.0216 -0.2285
32977W        W75889  27.084  10.856   8.892  0.2068 -0.1398 -0.2118
32978W        W75890  28.256  10.067  10.441 -0.0990 -0.1952 -0.1347
32979W        W75891  26.627   9.587   8.987  0.1765  0.0554  0.0024
32980W        W75892  25.784   8.407   7.487 -0.0520  0.2422 -0.0359
32981W        W75893  25.267   8.817   7.041 -0.2067 -0.0033 -0.3105
32982W        W75894  26.690   9.085   9.116 -0.3849  0.2976  0.2067
32983W        W75895  27.572  11.305   9.104  0.0447  0.0722 -0.0857
32984W        W75896  28.691  10.573   7.604 -0.3476 -0.0486 -0.1114
32985W        W75897  25.574   6.152   9.432  0.1237 -0.1138 -0.0127
32986W        W75898  28.832   9.471   8.763  0.3754 -0.1013  0.0261
32987W        W75899  29.192   9.248   8.578 -0.0984 -0.0083 -0.1971
32988W        W75900  29.615   7.915   9.425 -0.1706 -0.1465  0.1576
32989W        W75901  29.072   8.748   8.582  0.0246 -0.2782 -0.1040
32990W        W75902  28.981   9.454  10.260 -0.1531  0.0111  0.1541
32991W        W75903  26.676   8.724   8.353  0.1964  0.3413 -0.0484
32992W        W75904  28.639   9.031   8.386  0.4533 -0.2929 -0.1273
32993W        W75905  28.241  11.018   8.347 -0.0765  0.0386  0.1221
32994W        W75906  26.623   9.131   8.653 -0.5544  0.0043  0.0107
32995W        W75907  28.568   8.716   7.457 -0.1039 -0.3563 -0.0450
32996W        W75908  28.806  10.895   8.938 -0.0295  0.2099 -0.0231
32997W        W75909  27.007   9.324   7.368 -0.1328  0.1443 -0.0592
32998W        W75910  28.898   9.025   9.032  0.0771 -0.0766 -0.2961
32999W        W75911  28.017  12.993  10.287  0.1300 -0.4321 -0.0843
33000W        W75912  27.587  12.189   9.708 -0.3187 -0.1908  0.0126
33001W        W75913  27.959   9.546   9.163  0.0613  0.0378  0.0593
33002W        W75914  26.414   8.248   8.742  0.0232 -0.1098 -0.2669
33003W        W75915  28.287   8.858   7.942 -0.0685 -0.1039 -0.1815
33004W        W75916  25.920  11.271   9.801  0.1014 -0.0315 -0.2312
33005W        W75917  27.230  11.256   9.761  0.1884  0.2178  0.5057
33006W        W75918  26.831   7.893   9.348  0.0426  0.4599  0.1801
33007W        W75919  28.711   8.428   7.092 -0.1555  0.4060  0.1245
33008W        W75920  23.794  10.248   9.821  0.1847  0.1984 -0.2673
33009W        W75921  26.364  12.587   9.779 -0.4943 -0.0237  0.1009
33010W        W75922  26.811  13.340   2.851  0.3358  0.0776  0.0780
33011W        W75923  26.561  11.109   1.067 -0.0490  0.1800 -0.3058
33012W        W75924  28.319  12.327   1.330 -0.1273 -0.2944  0.1111
33013W        W75925  27.831  13.937  31.444 -0.2004  0.1540 -0.2922
33014W        W75926  26.001  11.814   2.009 -0.0007  0.0144  0.1020
33015W        W75927  28.025  14.190   0.506  0.1307 -0.1089 -0.3291
33016W        W75928  25.803  12.600   3.252 -0.1002 -0.1847 -0.2401
33017W        W75929  28.349  14.369   2.601  0.1099  0.0268 -0.4661
33018W        W75930  29.016  15.007   2.762 -0.0976  0.2016 -0.0688
33019W        W75931  27.787  11.308  30.833  0.0008 -0.1534 -0.4131
33020W        W75932  27.912  12.465   3.375 -0.2081 -0.2736 -0.0306
33021W        W75933  25.545  15.122   1.481  0.3508 -0.0491  0.1206
33022W        W75934  28.656  10.948   0.278 -0.4605 -0.0877 -0.0191
33023W        W75935  25.360  10.968   2.113  0.1368  0.0578  0.2241
33024W        W75936  26.776  15.051   3.291  0.3545 -0.2310  0.0352
33025W        W75937  26.423  13.203   2.428 -0.2119 -0.0514  0.0556
33026W        W75938  27.360  11.546   3.972  0.0908  0.0180  0.0059
33027W        W75939  27.117  12.470   1.243  0.2501 -0.0106 -0.2322
33028W        W75940  29.261  14.828   0.956 -0.1690 -0.1707  0.0083
33029W        W75941  25.614  11.516   3.002 -0.1796 -0.2224  0.1106
33030W        W75942  28.612  12.896   3.577  0.2397  0.3249 -0.0472
33031W        W75943  28.394  14.326   0.910  0.1467  0.3278 -0.0318
33032W        W75944  26.666  13.661   0.791  0.2123 -0.1098  0.0051
33033W        W75945  25.382  11.883   0.926  0.2122 -0.1854  0.1331
33034W        W75946  24.426  13.325   3.416  0.0768  0.0884 -0.0357
33035W        W75947  27.728  11.702   1.820 -0.1011  0.1306  0.0604
33036W        W75948  28.923  13.321   3.292 -0.0805 -0.3876  0.0646
33037W        W75949  26.028  15.114   1.774  0.1820 -0.2355 -0.4356
33038W        W75950  26.289  15.420   2.727 -0.0542  0.2266 -0.1192
33039W        W75951  29.035  13.679   4.022  0.0177 -0.1711  0.2283
33040W        W75952  27.261  15.642   2.175 -0.0685 -0.0976  0.1246
33041W        W75953  25.619  13.965   0.369 -0.2345  0.0538 -0.0022
33042W        W75954  26.663  14.613   2.119  0.0049  0.1479 -0.1190
33043W        W75955  28.942  14.182   0.748  0.0517 -0.0987 -0.0384
33044W        W75956  28.047  15.724   2.170  0.1167  0.2444  0.0298
33045W        W75957  26.458  16.874   2.311 -0.1220  0.2385 -0.3331
33046W        W75958  25.172  13.802   0.212  0.1376  0.2121  0.2337
33047W        W75959  25.827  15.758   4.412  0.3062 -0.0958  0.2304
33048W        W75960  26.047  14.376   3.012 -0.0450 -0.2901 -0.1503
33049W        W75961  27.845  14.119   2.590  0.2153 -0.0793  0.2760
33050W        W75962  28.084  13.660   0.612 -0.0322  0.4478 -0.0296
33051W        W75963  25.780  15.568   0.222  0.0606  0.1221 -0.0371
33052W        W75964  27.936  14.186   1.735  0.3132 -0.3721  0.0979
33053W        W75965  26.172  13.326   3.864 -0.0408 -0.2139  0.2487
33054W        W75966  26.405  13.684   1.560 -0.0985 -0.0918  0.0413
33055W        W75967  29.156  11.966   3.609  0.1688 -0.4148  0.1536
33056W        W75968  25.230  14.174   0.951 -0.2959  0.1537 -0.0428
33057W        W75969  29.249  13.121   1.836  0.0274 -0.0155  0.0331
33058W        W75970  27.034  14.956  31.676 -0.0173  0.0379  0.0939
33059W        W75971  29.860  11.779   1.104  0.1167  0.0230 -0.3727
33060W        W75972  25.185  11.783   3.372 -0.0946  0.0949  0.0606
33061W        W75973  26.602  15.555   3.125 -0.2500 -0.0193 -0.0769
33062W        W75974  25.335  11.259   1.662 -0.0708 -0.0331 -0.0584
33063W        W75975  27.644  15.328   2.941  0.0742 -0.1617  0.0821
33064W        W75976  27.787  12.162   2.090  0.0585 -0.0086  0.1495
33065W        W75977  27.848  12.269   1.626 -0.2689  0.0395  0.0971
33066W        W75978  26.077  14.673   3.427  0.2119  0.3222  0.3540
33067W        W75979  26.864  12.305   1.998 -0.1247  0.1807 -0.1093
33068W        W75980  27.511  14.976   0.032 -0.1239  0.1249 -0.0144
33069W        W75981  28.447  14.678   1.609 -0.0775 -0.1870 -0.2363
33070W        W75982  26.488  14.347  30.949 -0.3502 -0.0450  0.4679
33071W        W75983  26.235  11.780   0.395  0.1984  0.1095 -0.2683
33072W        W75984  25.197  13.941   4.037 -0.4618 -0.1554  0.0452
33073W        W75985  25.186  13.468   2.839  0.0352  0.2981  0.1971
33074W        W75986  27.893  11.299   0.326 -0.1263 -0.3173  0.0619
33075W        W75987  29.043  13.719   2.710  0.2923 -0.3870  0.0101
33076W        W75988  25.569  13.805   3.148  0.0573  0.0780  0.0292
33077W        W75989  28.422  13.315   1.314  0.1463  0.0084 -0.0451
33078W        W75990  26.119  14.946   2.812 -0.1790  0.0597  0.2385
33079W        W75991  26.494  14.662   3.089  0.2861  0.2333  0.3144
33080W        W75992  28.194  13.830   1.548 -0.3007 -0.0961  0.2647
33081W        W75993  27.994  12.577   2.379  0.1250 -0.0070 -0.2008
33082W        W75994  27.647  10.804   2.246  0.3804  0.0962  0.1185
33083W        W75995  26.644  14.193   1.769 -0.0056 -0.2542 -0.3302
33084W        W75996  27.272  14.355   2.828 -0.0583  0.1244  0.1066
33085W        W75997  29.645  13.855   3.027  0.1903  0.1684  0.0616
33086W        W75998  28.144  13.538  31.165 -0.0471  0.1463  0.2600
33087W        W75999  27.269  13.850   1.094 -0.3388  0.3148  0.1462
33088W        W76000  27.841  12.334   3.943 -0.0109 -0.0937  0.2132
33089W        W76001  26.799  13.525   4.542  0.1289 -0.1626  0.1905
33090W        W76002  26.681  14.370   0.338  0.2431  0.0718 -0.0381
33091W        W76003  26.911  13.336   2.360  0.2138  0.1306  0.0042
33092W        W76004  25.928  14.266   1.193 -0.0390  0.0890 -0.0293
33093W        W76005  25.406  12.035   2.522 -0.3328 -0.1688 -0.0520
33094W        W76006  26.294  13.566   2.791  0.2319  0.0441 -0.1745
33095W        W76007  30.535  12.796   0.784  0.2681 -0.0375  0.0421
33096W        W76008  25.356  12.751   3.258  0.1188 -0.1836 -0.0573
33097W        W76009  29.673  12.079   2.746  0.1600  0.1047  0.1673
33098W        W76010  26.633  13.656   2.128 -0.0267  0.1202 -0.0924
33099W        W76011  27.584  16.464   1.532  0.2832 -0.4117  0.0926
33100W        W76012  29.429  11.607   1.408  0.0817  0.0611  0.1638
33101W        W76013  27.326  13.410   1.463 -0.4035  0.1256  0.0565
33102W        W76014  25.148  12.336   1.922 -0.0731  0.0793  0.0850
33103W        W76015  26.081  11.630   2.823  0.0456  0.0795 -0.2188
33104W        W76016  27.328  11.785   3.212 -0.1139  0.0509  0.3120
33105W        W76017  25.235  12.281   3.174 -0.1528 -0.1106  0.0323
33106W        W76018  28.384  13.224   2.943  0.4257  0.1875 -0.0716
33107W        W76019  26.235  10.100  31.890 -0.1314 -0.3308  0.2455
33108W        W76020  27.568  12.662   1.860 -0.1491  0.0362  0.0005
33109W        W76021  27.354  12.214   1.693  0.0885  0.0221 -0.5211
33110W        W76022  26.186  13.727   2.350  0.2286  0.0016 -0.0661
33111W        W76023  29.666  11.224   3.824 -0.1068  0.1232 -0.2151
33112W        W76024  27.078  15.650   0.283  0.1026 -0.2144  0.0305
33113W        W76025  29.465  16.219   3.317  0.2944  0.0948  0.3060
33114W        W76026  29.229  16.446   2.001 -0.0258 -0.1418  0.2699
33115W        W76027  26.802  12.463   2.966  0.2086 -0.0915 -0.1429
33116W        W76028  27.977  12.983   2.045  0.0154  0.0731 -0.2397
33117W        W76029  26.856  17.003   2.105 -0.0603 -0.1108  0.4307
33118W        W76030  26.910  16.623   2.440 -0.0434  0.0532  0.0111
33119W        W76031  27.666  12.201   0.512 -0.0624  0.1483 -0.0028
33120W        W76032  27.960  15.248   1.498 -0.0258 -0.2272  0.1878
33121W        W76033  28.058  14.753   1.321  0.1893 -0.1201 -0.0102
33122W        W76034  25.564  12.539   2.813  0.0813 -0.0298 -0.0985
33123W        W76035  28.042  11.982   3.545  0.1494 -0.1286 -0.1725
33124W        W76036  27.583  13.955   3.016  0.1723 -0.4360  0.2061
33125W        W76037  27.850  13.967   0.906  0.1909  0.0723 -0.0884
33126W        W76038  25.914  12.726  31.122 -0.0212  0.0597 -0.2949
33127W        W76039  26.655  15.035   2.511  0.0381 -0.3834 -0.3699
33128W        W76040  24.918  14.215   0.016 -0.0467 -0.1609 -0.0468
33129W        W76041  26.481  12.437   1.215 -0.1557 -0.2465 -0.1263
33130W        W76042  27.861  15.591   0.767 -0.0502  0.0460 -0.0139
33131W        W76043  28.980  12.925   2.161 -0.1182 -0.3395 -0.0470
33132W        W76044  25.199  12.941   3.756 -0.2391  0.0436 -0.2423
33133W        W76045  27.157  12.943   2.929 -0.1348  0.1839 -0.2314
33134W        W76046  26.567  11.624   0.909  0.2506 -0.0648 -0.1609
33135W        W76047  27.084  13.222   3.318  0.1607  0.0032  0.1192
33136W        W76048  28.465  10.887   1.629 -0.1006  0.1425 -0.1930
33137W        W76049  28.841  10.599   2.010  0.2472 -0.2346  0.0341
33138W        W76050  27.076  13.869   4.950 -0.0316  0.2334  0.1425
33139W        W76051  28.659  14.088   1.256  0.0269 -0.0101  0.1986
33140W        W76052  27.870  12.602   1.268 -0.3582 -0.2131  0.0363
33141W        W76053  27.576  11.969  31.628  0.1057  0.1932 -0.4430
33142W        W76054  25.062  13.592   3.300 -0.0331 -0.0386 -0.1244
33143W        W76055  28.483  12.895   1.990 -0.3741  0.1569  0.2774
33144W        W76056  27.265  16.479   2.035  0.3529 -0.0480 -0.2015
33145W        W76057  27.148  12.826   0.912  0.2917 -0.2372  0.0748
33146W        W76058  28.501  15.466   2.826 -0.1115  0.0336 -0.1397
33147W        W76059  25.651  14.822   2.531  0.0581  0.1644  0.1388
33148W        W76060  28.290  13.883   3.582 -0.2205 -0.1965 -0.0966
33149W        W76061  27.725  15.308   2.448 -0.0505  0.1258 -0.1678
33150W        W76062  27.091  11.817   1.862  0.1283  0.0085 -0.1352
33151W        W76063  26.964  13.832   1.604  0.4156  0.0214 -0.2528
33152W        W76064  26.293  11.620   1.626  0.0170  0.3632 -0.4026
33153W        W76065  25.395  13.626  31.774 -0.0685 -0.0100 -0.1043
33154W        W76066  27.154  13.666   3.693 -0.1752 -0.0434 -0.1489
33155W        W76067  28.695  12.047   2.473 -0.1477 -0.1279 -0.0125
33156W        W76068  26.656   9.929   2.582 -0.3333  0.0586  0.0200
33157W        W76069  29.115  13.279   3.773 -0.0109  0.1728 -0.2313
33158W        W76070  27.633  13.094   1.013  0.2008 -0.0029 -0.1065
33159W        W76071  28.144  13.355   1.742  0.0273  0.1981 -0.3468
33160W        W76072  26.962  12.338   0.756 -0.1519  0.2630  0.1334
33161W        W76073  27.651  11.326   3.118  0.3018  0.1097  0.0378
33162W        W76074  26.686  12.920   3.125  0.0205 -0.0600  0.0578
33163W        W76075  25.238  14.631   3.234 -0.1283  0.2459 -0.0337
33164W        W76076  26.519  14.590   3.705  0.0301 -0.2597 -0.2324
33165W        W76077  28.792  14.569   1.075  0.2799 -0.2811 -0.0391
33166W        W76078  27.359  12.519   3.783  0.1284  0.1484 -0.0524
33167W        W76079  28.265  11.744   0.123  0.2015  0.3937 -0.0337
33168W        W76080  26.025  14.943   0.012 -0.0548 -0.1606  0.2710
33169W        W76081  26.632  14.211  31.423  0.2648 -0.0231 -0.1017
33170W        W76082  27.304  11.162   2.666  0.1459 -0.1524 -0.0702
33171W        W76083  26.772  15.401   2.144  0.1923 -0.0130 -0.1366
33172W        W76084  26.227  13.690   1.067  0.5021 -0.1986 -0.4876
33173W        W76085  27.071  14.617   4.019  0.0850 -0.1266 -0.0073
33174W        W76086  26.266  14.726  31.602  0.1174  0.0505  0.0389
33175W        W76087  27.757  11.276   2.337  0.1625  0.0198 -0.1621
33176W        W76088  26.426  14.192   0.763  0.0459 -0.3067 -0.0099
33177W        W76089  26.639  13.193   0.848 -0.1874 -0.0462  0.0418
33178W        W76090  25.731  12.790   0.969  0.1263  0.2753  0.2021
33179W        W76091  28.818  13.023   1.623  0.1935  0.1241 -0.1151
33180W        W76092  28.184  14.635   0.452 -0.2365 -0.3289 -0.1370
33181W        W76093  25.660  11.575   2.486 -0.2309  0.2231 -0.1502
33182W        W76094  27.043  11.371   1.983 -0.2109  0.3507 -0.1605
33183W        W76095  26.395  16.107   1.038 -0.0723 -0.0859  0.2652
33184W        W76096  26.744  13.780   2.587  0.3343  0.1362 -0.1718
33185W        W76097  28.670  10.454   1.183 -0.0523 -0.0318 -0.1988
33186W        W76098  28.442  13.462   3.438  0.0515  0.1652 -0.1030
33187W        W76099  26.692  13.327   3.675 -0.0174 -0.1874 -0.4059
33188W        W76100  25.873  13.101   0.437 -0.0099 -0.1611  0.3790
33189W        W76101  29.409  13.267   3.176  0.0035  0.0270 -0.1857
33190W        W76102  26.586  10.422   2.121  0.0549 -0.0927  0.3338
33191W        W76103  24.895  14.124   0.515 -0.2424  0.0522  0.2470
33192W        W76104  26.804  14.051   3.565 -0.3215 -0.1619  0.4047
33193W        W76105  26.375  13.230   1.804 -0.0865  0.0268 -0.2996
33194W        W76106  25.980  15.201   1.149 -0.2850  0.0902  0.2732
33195W        W76107  26.928  12.310   3.991  0.1626  0.0876  0.1405
33196W        W76108  27.516  12.745   3.310 -0.3480  0.0386 -0.0090
33197W        W76109  26.457  12.111   2.859 -0.0638  0.2217 -0.2419
33198W        W76110  27.603  12.215   3.037  0.0932 -0.1217  0.1042
33199W        W76111  27.855  12.187   2.613  0.1039  0.4843 -0.1031
33200W        W76112  26.935  14.687   2.779 -0.0678  0.0953  0.1934
33201W        W76113  27.901  13.062   2.651 -0.1653  0.0057 -0.3000
33202W        W76114  26.421  14.186   3.290  0.0007  0.1809 -0.2592
33203W        W76115  26.843  11.899   2.355 -0.0979  0.1113 -0.2141
33204W        W76116  27.704  14.501   0.281  0.2208  0.3662  0.0641
33205W        W76117  27.819  12.841   3.716 -0.2378 -0.6548  0.0836
33206W        W76118  26.373  14.272   2.212 -0.1273 -0.0103  0.0691
33207W        W76119  26.190  12.828   2.046 -0.1345 -0.0438 -0.0787
33208W        W76120  27.804  13.201   1.459  0.1251  0.2202 -0.0793
33209W        W76121  27.207  12.154   2.789 -0.2569 -0.2477 -0.0636
33210W        W76122  26.317  14.588   1.777 -0.2673 -0.1860 -0.0285
33211W        W76123  25.825  12.640   0.027 -0.1134 -0.1795  0.0295
33212W        W76124  25.564  14.289   2.269 -0.0553  0.0927 -0.0833
33213W        W76125  28.247  11.655   1.832  0.0206 -0.3743 -0.0838
33214W        W76126  28.486  14.204   1.696  0.1825 -0.2403 -0.2623
33215W        W76127  27.663  11.789   1.254 -0.0300 -0.0344  0.2205
33216W        W76128  28.667  12.446   2.155  0.0163 -0.4696  0.0028
33217W        W76129  28.237  12.880   1.550  0.0304 -0.0343  0.0507
33218W        W76130  28.326  12.080   3.960 -0.0549 -0.5219 -0.1779
33219W        W76131  25.969  11.135   3.071 -0.2278  0.0584  0.1725
33220W        W76132  28.235  13.773   2.036 -0.1842 -0.0996  0.4150
33221W        W76133  24.032  13.580   3.465 -0.2877  0.0331  0.1620
33222W        W76134  27.831  13.495   3.684 -0.2573 -0.2563  0.0805
33223W        W76135  25.937  13.678   3.606 -0.3174 -0.0031  0.3622
33224W        W76136  27.359  11.961   0.908 -0.2906  0.1900 -0.3721
33225W        W76137  27.542  11.110   0.652  0.0679  0.0013  0.6439
33226W        W76138  27.499  12.603   2.686 -0.0440  0.1079  0.2269
33227W        W76139  28.307  13.886   2.617  0.1400  0.1653  0.0595
33228W        W76140  27.144  15.555   1.280  0.4013 -0.0967 -0.0534
33229W        W76141  28.240  12.146   2.268 -0.0251 -0.3689  0.1472
33230W        W76142  26.063  13.892   3.120  0.0940  0.1598  0.2463
33231W        W76143  27.856  13.607   2.662 -0.0503  0.1203 -0.3120
33232W        W76144  28.622  13.455   1.840 -0.2551  0.1309 -0.1266
33233W        W76145  26.072  14.866   2.279  0.0431 -0.0959  0.0045
33234W        W76146  26.609  10.956   3.148 -0.2929 -0.0200 -0.2632
33235W        W76147  28.543  14.658   2.175  0.1049  0.2732  0.0452
33236W        W76148  27.598  13.552   0.797 -0.1603 -0.0895 -0.0337
33237W        W76149  29.034  12.528   2.507 -0.0148 -0.2928  0.2419
33238W        W76150  29.209  12.833   3.330  0.2538 -0.0279  0.2323
33239W        W76151  26.891  11.976   3.145 -0.4487  0.0339  0.1758
33240W        W76152  26.216  12.127   3.314 -0.3337 -0.1353 -0.0036
33241W        W76153  28.143  15.449   3.932  0.0537 -0.3202  0.4007
33242W        W76154  28.418  11.358   1.442 -0.0270 -0.1886 -0.0169
33243W        W76155  28.410  12.356   2.692  0.1904  0.2002 -0.0638
33244W        W76156  28.084  14.899   2.365 -0.1504  0.0398 -0.0504
33245W        W76157  29.153  12.012   1.729  0.1992 -0.1860  0.3637
33246W        W76158  25.406  13.108   1.929  0.0026 -0.0517 -0.1991
33247W        W76159  29.551  12.353   3.670 -0.1733 -0.1149 -0.0677
33248W        W76160  27.133  12.644   0.306 -0.0501  0.1808 -0.2832
33249W        W76161  27.911  11.367   1.491  0.2440 -0.0836  0.0002
33250W        W76162  27.820  14.635   0.896 -0.1471 -0.1311  0.0313
33251W        W76163  27.678  14.474   2.299  0.0521  0.1153  0.2415
33252W        W76164  28.646  12.717   1.286 -0.1908  0.0618  0.0655
33253W        W76165  26.084  12.125   1.679  0.0558 -0.4007  0.2837
33254W        W76166  26.044  14.871   5.431 -0.0019 -0.0386  0.0087
33255W        W76167  25.751  12.139  31.313 -0.0027 -0.0953 -0.2629
33256W        W76168  27.693  13.971   2.073  0.0127 -0.1579  0.1347
33257W        W76169  28.034  14.112   3.092  0.0277 -0.0905 -0.0804
33258W        W76170  29.553  13.532   3.971  0.1568 -0.0602  0.1049
33259W        W76171  28.218  11.773   1.299  0.0704 -0.2249 -0.0754
33260W        W76172  28.260  11.891   2.675  0.1298 -0.0746  0.1854
33261W        W76173  25.769  13.810   0.851  0.1205  0.0116 -0.1542
33262W        W76174  28.991  11.452   2.329 -0.3753  0.2603 -0.2599
33263W        W76175  27.055  14.936   1.925  0.4112 -0.0229 -0.0685
33264W        W76176  26.919  13.341   1.833 -0.2081 -0.2694 -0.1796
33265W        W76177  26.317  13.856  31.791 -0.0861 -0.1051 -0.0038
33266W        W76178  26.752  12.346   2.503 -0.1142  0.1666 -0.0773
33267W        W76179  28.468  12.775   2.479 -0.3269  0.0981 -0.0368
33268W        W76180  26.307  12.653   2.504 -0.2673  0.1099 -0.0693
33269W        W76181  30.280  13.631   1.556 -0.1344 -0.1046 -0.2406
33270W        W76182  26.492  14.571   2.561 -0.1360  0.3178 -0.2048
33271W        W76183  26.678  12.925   2.098  0.2322  0.1606  0.0398
33272W        W76184  27.696  15.423   1.991  0.0183  0.0974 -0.2839
33273W        W76185  29.142  13.948   1.219 -0.0251  0.0775  0.1650
33274W        W76186  26.315  15.315   2.236  0.2391  0.1179 -0.2243
33275W        W76187  23.796  13.010   4.090  0.0893 -0.2963  0.0884
33276W        W76188  28.072  13.098   3.340  0.1122  0.3199  0.0749
33277W        W76189  27.138  14.367   1.957 -0.1778  0.2339  0.0132
33278W        W76190  25.942  12.016   2.483 -0.1660  0.0363  0.4038
33279W        W76191  28.501  15.042   0.455 -0.0536 -0.0251 -0.1307
33280W        W76192  25.780  15.869   3.473  0.0442  0.1475  0.0545
33281W        W76193  25.656  13.811   2.227 -0.0111  0.2631 -0.0769
33282W        W76194  27.110  13.704   0.577  0.0923  0.0642 -0.1966
33283W        W76195  27.001  14.253   1.362 -0.2721 -0.1470 -0.2938
33284W        W76196  28.004  15.712   1.706  0.0311  0.3141  0.2372
33285W        W76197  26.537  16.765   3.010  0.1093  0.1780 -0.0468
33286W        W76198  26.690  11.749   0.092 -0.0298 -0.1816 -0.0488
33287W        W76199  25.373  14.341   0.143 -0.0799 -0.3367 -0.1050
33288W        W76200  26.514  16.234  31.249  0.0630  0.3684 -0.0654
33289W        W76201  26.867  14.260   2.446 -0.0104 -0.1235 -0.0768
33290W        W76202  28.555  14.196   3.264  0.0374 -0.1680  0.2300
33291W        W76203  28.197  12.134   0.452 -0.0821 -0.2748  0.2203
33292W        W76204  28.151  14.298   1.311 -0.3743  0.2756 -0.1440
33293W        W76205  29.371  11.044   1.407  0.2139 -0.0204 -0.1284
33294W        W76206  26.250  15.519   4.535  0.3940 -0.0699  0.1022
33295W        W76207  27.387  13.467   2.835 -0.2533  0.1830 -0.0144
33296W        W76208  28.503  12.251  31.930  0.0592  0.0928  0.1340
33297W        W76209  26.329  13.293   3.354  0.2405 -0.0811 -0.1681
33298W        W76210  29.483  10.850   4.202  0.0336 -0.0133  0.6101
33299W        W76211  24.160  15.557   3.726 -0.2086 -0.3943 -0.0171
33300W        W76212  28.377  15.617   0.345  0.0703 -0.0763  0.0517
33301W        W76213  25.530  12.625   1.842  0.0339  0.0687 -0.2061
33302W        W76214  27.884  14.647   1.807 -0.0790  0.0742  0.1039
33303W        W76215  28.310  10.768   2.854 -0.0976 -0.2322  0.0312
33304W        W76216  26.697  13.508   0.318  0.0854  0.3009 -0.3200
33305W        W76217  29.606  12.567   2.365 -0.0264 -0.2704 -0.1148
33306W        W76218  25.468  14.413   1.362 -0.2236 -0.2156 -0.1796
33307W        W76219  26.434  15.091   1.410 -0.0696  0.7036 -0.0939
33308W        W76220  26.597  13.721   3.120  0.0543  0.2132 -0.2032
33309W        W76221  24.956  11.351  31.491  0.1506 -0.2504 -0.1480
33310W        W76222  30.132  12.516   2.281  0.1959 -0.0758  0.0238
33311W        W76223  26.850  12.461   4.442  0.0700  0.0356 -0.4046
33312W        W76224  27.934  11.753   2.316  0.2679  0.0323  0.1017
33313W        W76225  25.906  13.446   3.190 -0.0530 -0.0768 -0.1713
33314W        W76226  28.693  11.807   1.493  0.0039  0.1619  0.1006
33315W        W76227  26.767  14.249   2.975 -0.0750 -0.1420  0.1084
33316W        W76228  25.681  13.015   2.961  0.1970 -0.0092 -0.0818
33317W        W76229  27.065  13.150   0.503  0.1384 -0.1991 -0.0585
33318W        W76230  27.743  13.949   3.512 -0.3775  0.1130 -0.3186
33319W        W76231  28.974  12.564   0.826  0.0490  0.0074 -0.5214
33320W        W76232  27.254  14.813   3.154 -0.1379 -0.1480 -0.0600
33321W        W76233  24.705  11.537   0.737 -0.0318  0.1546  0.0681
33322W        W76234  27.540  12.430   0.966  0.2005 -0.0896  0.2500
33323W        W76235  26.581  11.694   2.018  0.2299 -0.1412 -0.2843
33324W        W76236  26.186  13.087   2.883 -0.0424  0.1604  0.3858
33325W        W76237  28.657  16.199   3.794 -0.2869  0.1093  0.1293
33326W        W76238  27.271  10.753   0.908  0.1117  0.0725 -0.2544
33327W        W76239  29.322  15.969   0.179  0.1168  0.0202  0.2766
33328W        W76240  30.995  12.009   3.056  0.1751 -0.4824 -0.1223
33329W        W76241  26.693  14.733   0.004 -0.0087 -0.5237  0.0758
33330W        W76242  29.402  13.991   0.705  0.0281  0.0673  0.0078
33331W        W76243  28.157  15.127   2.848 -0.0401  0.2825  0.3066
33332W        W76244  24.497  12.382   2.819  0.0506 -0.0425 -0.0044
33333W        W76245  26.753  15.583   2.634 -0.0489  0.2569  0.1883
33334W        W76246  30.798  14.598   2.520 -0.0081  0.1525  0.4217
33335W        W76247  27.446  10.890   0.258  0.1084 -0.2478  0.2795
33336W        W76248  27.393  11.569   2.232 -0.1066  0.0393  0.2661
33337W        W76249  25.859  14.703   1.474  0.0343  0.1758  0.0927
33338W        W76250  28.567  12.670   3.123  0.1923  0.0923  0.1872
33339W        W76251  27.334  12.089   4.044  0.1331 -0.5297  0.0883
33340W        W76252  27.388  13.801  31.904  0.1448 -0.2607 -0.1729
33341W        W76253  28.706  11.773   3.589  0.1505 -0.1256  0.3001
33342W        W76254  25.164  14.551   2.614 -0.0279  0.0542  0.1063
33343W        W76255  27.579  14.783   4.216 -0.2302  0.3268  0.1089
33344W        W76256  23.689  13.079  31.976 -0.0438 -0.0804  0.0112
33345W        W76257  27.051  13.844   3.036 -0.1000  0.0737  0.0484
33346W        W76258  27.472  13.111   1.931  0.0267  0.1588 -0.0156
33347W        W76259  26.291  15.751   0.302 -0.1171  0.0535 -0.3343
33348W        W76260  29.307  13.294   1.358 -0.0308 -0.0362  0.0218
33349W        W76261  27.440  12.858   1.422 -0.2538 -0.1604  0.0247
33350W        W76262  27.931  14.608   2.728 -0.0474 -0.1977  0.1083
33351W        W76263  25.072  11.557   1.093  0.2440 -0.4269 -0.0977
33352W        W76264  29.164  12.744   1.251  0.0681 -0.2126 -0.1680
33353W        W76265  28.980   9.302   2.237 -0.0152 -0.2189 -0.1463
33354W        W76266  25.267  15.024   2.714  0.1371  0.0142  0.0960
33355W        W76267  27.265  13.706   2.018 -0.3234  0.4102  0.3109
33356W        W76268  26.316  13.977   0.291 -0.0665  0.1544  0.2212
33357W        W76269  27.136  14.627   2.335  0.1073  0.0687  0.2233
33358W        W76270  27.761  11.604   3.510  0.1100 -0.0821  0.1924
33359W        W76271  24.884  12.645   3.110  0.3617  0.1385  0.1231
33360W        W76272  26.321  14.531   1.312 -0.0083 -0.0680  0.2236
33361W        W76273  25.592  12.164   1.333 -0.1070  0.0514 -0.0449
33362W        W76274  28.821  15.150   2.271  0.3736  0.4184  0.0310
33363W        W76275  23.849  12.035   1.687  0.1515  0.1364 -0.1004
33364W        W76276  24.790  12.408   0.913  0.0273 -0.2381 -0.2909
33365W        W76277  27.986  15.171   0.400 -0.0014 -0.0364 -0.1615
33366W        W76278  28.854  14.455   1.797  0.0399 -0.1807  0.2406
33367W        W76279  27.146  11.843   1.339  0.1207  0.2603  0.1494
33368W        W76280  29.208  14.573   2.999 -0.1242 -0.0405 -0.2036
33369W        W76281  26.748  13.445   1.247  0.0086 -0.0152  0.1532
33370W        W76282  27.597  13.796   4.023  0.1906  0.1618 -0.0786
33371W        W76283  27.200  12.345   3.297  0.0221 -0.1040 -0.1434
33372W        W76284  26.051  12.252   0.271  0.4269  0.1976  0.0100
33373W        W76285  26.334  14.082   2.704  0.2341 -0.0671  0.2874
33374W        W76286  27.358  14.525   1.573  0.0256  0.0411  0.2133
33375W        W76287  28.951  14.847   0.058 -0.2353 -0.0440 -0.0561
33376W        W76288  27.176  12.648   2.298  0.1222 -0.0402  0.3512
33377W        W76289  26.591  14.314   4.141 -0.0001  0.1268 -0.0008
33378W        W76290  24.924  11.616   1.986 -0.1870  0.0057 -0.0800
33379W        W76291  29.744  14.489   1.566  0.1616 -0.0857 -0.2825
33380W        W76292  26.507  12.892   3.600  0.2792 -0.2472  0.2505
33381W        W76293  29.198  14.584   0.500 -0.0330 -0.3734  0.0143
33382W        W76294  28.782  12.717   4.070 -0.0111  0.0981 -0.3912
33383W        W76295  29.263  14.597   1.555 -0.3171  0.0374  0.4391
33384W        W76296  25.141  11.500   2.479 -0.0953  0.0311  0.0988
33385W        W76297  24.525  15.123   3.827 -0.0079 -0.1910 -0.0766
33386W        W76298  28.245  16.191   2.184 -0.0405  0.1686  0.1404
33387W        W76299  24.976  12.008   0.667  0.1380  0.0315 -0.1609
33388W        W76300  26.745  11.550   1.433  0.3257 -0.0505  0.0603
33389W        W76301  26.788  15.015   0.546  0.4242  0.0799 -0.0710
33390W        W76302  25.817  12.449   2.299 -0.0375 -0.0562  0.0607
33391W        W76303  28.129  12.977   1.041  0.2312  0.2458 -0.3800
33392W        W76304  26.406  13.753   3.622 -0.0069  0.2154 -0.0197
33393W        W76305  27.405  15.238   1.652  0.1079  0.0903  0.0420
33394W        W76306  28.238  13.556   5.366  0.0525 -0.4593 -0.2311
33395W        W76307  26.351  12.316   2.148 -0.2727  0.0537 -0.0505
33396W        W76308  27.664  13.689  31.060 -0.3043 -0.1605 -0.5433
33397W        W76309  26.251  14.648   4.547 -0.0250  0.0911 -0.2418
33398W        W76310  29.849  15.861   3.396  0.2317 -0.2098  0.1149
33399W        W76311  27.301  15.666   2.816  0.0559 -0.0913 -0.2811
33400W        W76312  27.686  13.587   1.731  0.0703 -0.0845  0.0893
33401W        W76313  25.275  11.713   1.570 -0.0881  0.2059  0.1870
33402W        W76314  27.059  12.802   1.748  0.1343  0.3124 -0.0321
33403W        W76315  27.158  13.366   0.953  0.0350 -0.1414 -0.1950
33404W        W76316  28.478  12.141   1.769  0.1385 -0.0270 -0.1283
33405W        W76317  26.324  11.562   2.447  0.0453 -0.0514 -0.2428
33406W        W76318  28.037  12.071   0.910  0.1313  0.1131  0.0665
33407W        W76319  26.175  15.914   2.717 -0.1309  0.0885  0.0005
33408W        W76320  26.586  16.128   2.892 -0.2152  0.1913 -0.2259
33409W        W76321  26.899  13.667   8.344 -0.1889  0.0226  0.2779
33410W        W76322  26.527  12.927   6.264  0.1080 -0.0117 -0.1861
33411W        W76323  30.786  11.261   2.449 -0.0180 -0.0205 -0.1037
33412W        W76324  29.067  13.004   4.519  0.3729  0.2111 -0.0805
33413W        W76325  25.412  13.536   4.257  0.0511  0.3901 -0.1574
33414W        W76326  28.866  13.443   6.784 -0.2883 -0.1941 -0.1239
33415W        W76327  25.662  12.144   7.459  0.1921  0.1735 -0.2012
33416W        W76328  27.969  15.095   6.098 -0.0711  0.1006 -0.1810
33417W        W76329  28.545  13.756   7.155  0.2072 -0.1825  0.1142
33418W        W76330  28.167  14.309   2.130 -0.2000  0.0041 -0.3735
33419W        W76331  27.384  12.255   5.351  0.0707  0.0070 -0.0894
33420W        W76332  25.304  14.590   7.588  0.4056 -0.1210 -0.0764
33421W        W76333  24.649  10.476   3.933 -0.0784 -0.0205  0.3471
33422W        W76334  26.704  11.951   6.144  0.0299 -0.0873  0.3903
33423W        W76335  29.226  13.552   6.237 -0.0149  0.0499  0.1684
33424W        W76336  27.317  13.400   4.910  0.0094  0.0832  0.2626
33425W        W76337  27.808  12.924   6.507  0.0737  0.2792 -0.2206
33426W        W76338  28.696  12.234   5.424  0.0088  0.0914 -0.0534
33427W        W76339  28.519  13.830   4.086  0.0969  0.0500  0.2716
33428W        W76340  26.895  11.588   6.916 -0.3423  0.0437 -0.3682
33429W        W76341  28.625  11.463   7.685  0.1103 -0.1965  0.3422
33430W        W76342  27.575  13.801   4.876  0.0836  0.2859  0.0442
33431W        W76343  25.804  14.084   4.900 -0.0573 -0.1684  0.0539
33432W        W76344  25.766  12.175   5.718  0.3082  0.2408  0.1017
33433W        W76345  26.107  14.010   7.137 -0.0379  0.0949 -0.0609
33434W        W76346  28.133  10.896   5.502 -0.2758  0.1312  0.2373
33435W        W76347  29.442  14.721   7.002  0.0706 -0.2387  0.0210
33436W        W76348  26.948  14.947   5.937 -0.0940  0.0586 -0.0507
33437W        W76349  26.628  14.565   7.224 -0.1439 -0.0115 -0.0051
33438W        W76350  28.598  12.548   6.692 -0.1264 -0.0271 -0.1266
33439W        W76351  27.715  15.084   5.637 -0.0340 -0.4373 -0.3432
33440W        W76352  26.289  14.987   6.570 -0.1831  0.0225  0.0548
33441W        W76353  28.026  13.921   5.161  0.1844  0.2548  0.0425
33442W        W76354  29.377  13.566   5.522  0.0756  0.2180  0.2925
33443W        W76355  28.406  13.342   7.572  0.1524  0.0561  0.0724
33444W        W76356  26.464  15.250   7.711 -0.0817 -0.0461  0.3092
33445W        W76357  26.256  13.966   4.020  0.2034 -0.0945  0.0388
33446W        W76358  28.392  15.670   7.150  0.2089 -0.1480  0.0038
33447W        W76359  27.351  14.383   6.882  0.2139 -0.0065  0.0718
33448W        W76360  27.168  12.598   6.872 -0.1127  0.1561 -0.1983
33449W        W76361  27.878  13.706   5.712  0.1038  0.0068 -0.0266
33450W        W76362  27.510  14.383   3.886  0.1820 -0.1135  0.0223
33451W        W76363  28.523  14.366   5.932 -0.2039 -0.3738  0.0724
33452W        W76364  26.309  13.983   8.651  0.1501  0.2763  0.0352
33453W        W76365  27.813  14.217   5.917 -0.1414 -0.3464  0.0076
33454W        W76366  28.242  12.576   8.674 -0.0527 -0.3041  0.1373
33455W        W76367  26.722  14.952   4.046  0.2931 -0.0640  0.0021
33456W        W76368  29.705  12.109   4.738 -0.1814  0.1036  0.0728
33457W        W76369  27.801  12.689   4.213 -0.1870  0.1389  0.2107
33458W        W76370  28.296  12.460   4.382 -0.1611  0.0908  0.2177
33459W        W76371  27.217  10.770   5.443  0.0699  0.0130  0.3622
33460W        W76372  26.417  14.174   7.492  0.4522 -0.1767 -0.1472
33461W        W76373  26.463  11.244   5.729  0.0496 -0.0227 -0.0453
33462W        W76374  28.528  13.104   6.027  0.0541  0.2087 -0.2098
33463W        W76375  26.983  12.616   5.346 -0.0379  0.1284  0.2848
33464W        W76376  27.390  13.026   6.818 -0.0169  0.1847 -0.0952
33465W        W76377  26.630  13.806   7.285  0.1351  0.1407 -0.1546
33466W        W76378  25.661  13.254   5.072  0.0316 -0.2029  0.5423
33467W        W76379  28.232  14.633   3.108 -0.2483  0.1120  0.0138
33468W        W76380  27.974  14.217   4.783 -0.2542 -0.1809  0.1114
33469W        W76381  27.224  14.438   4.435 -0.3414 -0.0570 -0.1288
33470W        W76382  26.105  13.532   5.072  0.0464 -0.1323 -0.1421
33471W        W76383  26.206  12.310   8.281  0.0720  0.1572 -0.0985
33472W        W76384  26.408  13.554   8.336 -0.0729 -0.1257 -0.1641
33473W        W76385  26.121  12.879   4.106  0.0614  0.0291  0.1248
33474W        W76386  29.008  12.862   6.888 -0.0301 -0.2603 -0.0608
33475W        W76387  26.067  14.038   6.141 -0.0210  0.0765 -0.1258
33476W        W76388  29.357  10.665   6.150 -0.0817 -0.1086  0.1801
33477W        W76389  26.299  14.317   6.467 -0.0162 -0.1981 -0.2820
33478W        W76390  29.371  14.193   5.393 -0.1695  0.1742 -0.1329
33479W        W76391  27.700  13.012   4.939 -0.2505 -0.1365  0.1755
33480W        W76392  27.806  11.463   6.943 -0.0875 -0.1998 -0.0393
33481W        W76393  27.758  11.970   6.745  0.0566  0.0665  0.2388
33482W        W76394  26.687  12.807   4.033  0.0820 -0.0620 -0.2936
33483W        W76395  27.596  13.488   4.491 -0.1730 -0.2239  0.0824
33484W        W76396  28.878  15.460   7.836  0.0457 -0.0031 -0.2317
33485W        W76397  28.015  13.545   3.119 -0.1810  0.2140  0.3556
33486W        W76398  27.250  14.262   6.119 -0.1778  0.0827  0.0230
33487W        W76399  27.139  11.451   7.471  0.5900 -0.1752  0.1953
33488W        W76400  26.816  15.091   7.410 -0.1248  0.1656  0.0325
33489W        W76401  26.723  13.255   4.987  0.0081  0.0148 -0.5511
33490W        W76402  26.874  14.023   7.701  0.2267 -0.0479 -0.1694
33491W        W76403  25.467  13.677   3.633 -0.3817  0.0920 -0.0035
33492W        W76404  27.205  13.519   6.789  0.1906 -0.1059 -0.1030
33493W        W76405  26.974  14.046   6.613 -0.2134  0.1543  0.0993
33494W        W76406  28.284  12.560   3.799 -0.0081 -0.2632 -0.0708
33495W        W76407  25.645  13.538   7.302  0.4040  0.1625 -0.0412
33496W        W76408  28.906  10.496   4.694  0.0888  0.2447 -0.2113
33497W        W76409  27.022  12.809   3.540 -0.1158 -0.2356 -0.0115
33498W        W76410  28.090  14.587   4.073  0.1313 -0.1663 -0.0214
33499W        W76411  28.771  13.814   3.656 -0.2076 -0.1454 -0.1823
33500W        W76412  27.278  14.171   3.435  0.1842  0.0534  0.1922
33501W        W76413  26.332  13.283   5.888 -0.1885  0.2955  0.2844
33502W        W76414  27.304  12.755   6.370 -0.0319  0.0239  0.3046
33503W        W76415  27.498  10.355   6.855 -0.1072 -0.0249 -0.2181
33504W        W76416  27.174  12.337   5.748  0.2274 -0.1572  0.3869
33505W        W76417  27.453  12.928   8.432 -0.0834  0.1848 -0.0340
33506W        W76418  26.246  11.871   4.870 -0.1172 -0.3586 -0.0992
33507W        W76419  28.742  11.332   5.801 -0.1402 -0.0612  0.2596
33508W        W76420  27.545  13.830   6.116  0.1770 -0.1110  0.0145
33509W        W76421  25.628  14.524   4.094  0.2964 -0.0676 -0.1165
33510W        W76422  29.436  12.354   7.021 -0.1179  0.1400  0.3442
33511W        W76423  28.834  14.631   3.932  0.1449  0.0900 -0.1238
33512W        W76424  29.149  14.424   7.395  0.2657  0.0404 -0.1024
33513W        W76425  28.370  15.228   4.639 -0.1189 -0.0720 -0.0537
33514W        W76426  26.018  12.455   7.543  0.1004 -0.0704  0.0357
33515W        W76427  25.740  11.330   1.970 -0.1082  0.2627 -0.1748
33516W        W76428  25.872  15.238   5.797 -0.2238 -0.0752  0.0785
33517W        W76429  28.019  15.045   6.738 -0.3027  0.2856  0.1781
33518W        W76430  27.711  12.325   5.699  0.2190 -0.2412 -0.0465
33519W        W76431  29.224  13.500   4.494  0.1230  0.2594 -0.2131
33520W        W76432  27.654  12.695   5.344 -0.1643  0.3809 -0.0935
33521W        W76433  26.450  13.165   7.050 -0.0792 -0.1924 -0.1825
33522W        W76434  27.250  12.025   6.640  0.0613 -0.0781 -0.0707
33523W        W76435  28.404  11.949   7.294  0.1923 -0.1121 -0.0876
33524W        W76436  28.875  13.129   7.326  0.0823  0.1918 -0.0030
33525W        W76437  26.060  11.826   4.288  0.0350  0.0750 -0.1622
33526W        W76438  28.365  14.359   5.043  0.1603  0.0280  0.1528
33527W        W76439  25.599  15.029   4.932  0.2330 -0.2507  0.1693
33528W        W76440  24.799  14.277   3.389 -0.3282 -0.0767  0.0686
33529W        W76441  27.733  14.584   6.445  0.0719 -0.1117 -0.1227
33530W        W76442  29.230  11.550   5.554  0.1126 -0.0544 -0.2395
33531W        W76443  25.498  13.736   6.434  0.0348  0.1766  0.1039
33532W        W76444  28.186  12.864   6.874 -0.2998 -0.0480 -0.0492
33533W        W76445  25.882  13.667   4.245 -0.0290  0.2118 -0.0941
33534W        W76446  25.989  14.003   8.115  0.0031 -0.2508 -0.2831
33535W        W76447  27.553  12.518   4.898 -0.0310 -0.1216 -0.3873
33536W        W76448  27.499  13.543   3.318 -0.0540 -0.1001 -0.1005
33537W        W76449  26.451  11.820   7.900  0.2711  0.3185  0.2264
33538W        W76450  29.565  13.736   5.089  0.1261 -0.0940 -0.0466
33539W        W76451  29.046  12.386   3.102  0.1506 -0.1694 -0.0041
33540W        W76452  28.054  12.712   2.932 -0.4709 -0.0672 -0.2311
33541W        W76453  25.273  13.321   7.600 -0.0445  0.3497  0.1796
33542W        W76454  28.793  13.774   4.500  0.1280  0.3743 -0.2064
33543W        W76455  28.440  13.201   7.116 -0.0760 -0.0739 -0.0948
33544W        W76456  27.174  12.918   4.134  0.1515 -0.0029  0.2035
33545W        W76457  29.351  13.033   4.127 -0.2511 -0.2103  0.3326
33546W        W76458  25.850  14.714   6.507  0.0489 -0.0130 -0.0864
33547W        W76459  28.647  13.822   8.001  0.0437  0.1682 -0.0198
33548W        W76460  27.651  14.724   5.935  0.2638 -0.1507 -0.1559
33549W        W76461  26.514  10.740   6.703 -0.2256 -0.0020  0.0462
33550W        W76462  26.002  11.962   3.787 -0.0605  0.3976 -0.2677
33551W        W76463  28.382  11.835   5.696  0.0218 -0.0533  0.1059
33552W        W76464  25.017  15.341   5.954  0.1204 -0.3704 -0.1080
33553W        W76465  28.976  11.936   6.711  0.0616  0.1590  0.0901
33554W        W76466  27.897  12.038   5.311 -0.1514 -0.0710  0.1546
33555W        W76467  27.664  11.431   7.531 -0.0335 -0.2450  0.1243
33556W        W76468  27.787  12.846   8.797  0.0214 -0.1279  0.0087
33557W        W76469  28.119  13.509   4.075 -0.0912 -0.3586  0.0148
33558W        W76470  27.461  13.607   7.177  0.0104 -0.2802  0.0328
33559W        W76471  26.529  13.212   4.201 -0.0825  0.1182 -0.0681
33560W        W76472  26.359  10.305   6.559  0.2007 -0.1228  0.1261
33561W        W76473  26.472  13.452   7.645 -0.3130  0.2160  0.2768
33562W        W76474  25.916  14.433   8.328 -0.1013 -0.1678 -0.0582
33563W        W76475  29.093  14.025   8.296 -0.2938  0.1244  0.1804
33564W        W76476  28.328  13.083   4.956  0.3536  0.0291 -0.2196
33565W        W76477  28.278  11.537   7.026  0.0688 -0.0819  0.1170
33566W        W76478  27.339  12.528   4.346  0.0774  0.0955 -0.1437
33567W        W76479  27.165  13.900   5.736  0.3724  0.0049 -0.1782
33568W        W76480  27.157  13.414   4.208  0.2491  0.4507 -0.2494
33569W        W76481  27.311  10.355   6.402 -0.0071  0.0089 -0.0752
33570W        W76482  26.622  14.217   6.866  0.2970 -0.2244  0.1600
33571W        W76483  26.122  14.538   4.029 -0.0240  0.1981  0.3824
33572W        W76484  27.128  13.986   7.051  0.0099 -0.3000  0.0152
33573W        W76485  27.216  14.563   5.736  0.2944  0.2905  0.0963
33574W        W76486  28.970  10.031   6.419 -0.0543 -0.2667 -0.0688
33575W        W76487  26.313  14.179   4.784 -0.0412  0.0515 -0.1129
33576W        W76488  26.664  12.911   4.601 -0.4370 -0.3573  0.3148
33577W        W76489  26.400  12.309   3.943 -0.2739 -0.1515 -0.2176
33578W        W76490  28.131  11.294   5.005 -0.1068 -0.0370  0.1247
33579W        W76491  30.296  12.977   3.521  0.1424  0.1384 -0.0222
33580W        W76492  26.463  11.735   6.511 -0.2501 -0.0888 -0.2468
33581W        W76493  27.132  11.801   5.318 -0.1277 -0.0410  0.0326
33582W        W76494  26.335  13.830   6.575  0.2339 -0.0528 -0.2401
33583W        W76495  28.363  13.984   6.295 -0.0256  0.1707  0.1755
33584W        W76496  29.143  10.849   3.107 -0.1445  0.1379  0.0178
33585W        W76497  29.457  14.375   5.844 -0.4664  0.3281  0.1980
33586W        W76498  26.268  12.694   7.952  0.1802 -0.0787  0.1184
33587W        W76499  25.215  12.960   2.754  0.1885  0.2676  0.1791
33588W        W76500  28.172  12.870   7.431 -0.3995  0.2074 -0.5473
33589W        W76501  28.004  12.661   4.743 -0.1615 -0.0586 -0.3317
33590W        W76502  26.758  14.628   4.512  0.2480  0.2398 -0.0408
33591W        W76503  28.521  14.580   5.504  0.1512 -0.2228 -0.1873
33592W        W76504  26.957  12.964   6.064 -0.0727 -0.1349  0.3148
33593W        W76505  27.044  14.091   4.007  0.2413 -0.1613 -0.1295
33594W        W76506  26.041  13.895   7.638 -0.1773  0.0195  0.0413
33595W        W76507  28.817  12.408   7.938 -0.0724 -0.4090  0.2496
33596W        W76508  27.797  12.635   6.115  0.0238 -0.2210 -0.0052
33597W        W76509  27.755  11.815   3.966  0.0874  0.2079 -0.2320
33598W        W76510  28.589  12.745   5.393 -0.0430 -0.1470 -0.2061
33599W        W76511  29.478  11.728   5.979 -0.0652  0.1746 -0.1037
33600W        W76512  28.083  12.206   6.433 -0.0697 -0.2735  0.0725
33601W        W76513  24.440  13.325   7.801  0.0797 -0.0861  0.0409
33602W        W76514  26.970  11.079   7.072 -0.1339  0.1263 -0.2099
33603W        W76515  30.287  15.290   2.837  0.0284 -0.1856 -0.1296
33604W        W76516  28.026  13.513   7.161  0.0652  0.0320 -0.0237
33605W        W76517  27.410  13.384   5.798 -0.1927 -0.0927 -0.2318
33606W        W76518  25.705  13.789   5.285  0.2357  0.0875 -0.1909
33607W        W76519  26.677  12.245   5.439  0.2575 -0.1231 -0.2290
33608W        W76520  27.553  11.641   6.428 -0.1957 -0.3988 -0.0609
33609W        W76521  27.148  14.708   6.366 -0.2083 -0.0187 -0.0855
33610W        W76522  27.225  13.912   4.489 -0.0463 -0.0321 -0.1900
33611W        W76523  26.695  13.923   6.189  0.0345  0.1890 -0.2530
33612W        W76524  30.156  10.133   4.748  0.2367 -0.2930 -0.0692
33613W        W76525  28.463  14.240   3.840  0.1070 -0.0761 -0.1583
33614W        W76526  27.307  13.047   5.338  0.1562  0.3483 -0.0976
33615W        W76527  28.461  12.063   6.776 -0.0879 -0.0359  0.4123
33616W        W76528  28.555  12.973   4.512  0.0723 -0.0799  0.0253
33617W        W76529  28.207  11.764   8.074 -0.3208 -0.2206 -0.1698
33618W        W76530  27.041   8.995   5.728 -0.1463  0.2401 -0.2898
33619W        W76531  28.818  14.193   4.231 -0.0497 -0.0264 -0.1682
33620W        W76532  26.959  13.106   7.065 -0.0424  0.1830  0.2613
33621W        W76533  28.396  14.404   7.817 -0.0583  0.0692 -0.1565
33622W        W76534  26.784  12.176   8.156  0.2512 -0.0455  0.0261
33623W        W76535  28.421  11.556   4.370  0.3126  0.0678 -0.1527
33624W        W76536  27.069  12.684   4.859  0.0115  0.0849  0.1066
33625W        W76537  27.653  12.687   7.038  0.1552 -0.0781 -0.1106
33626W        W76538  29.889  14.144   5.159  0.1897 -0.1345 -0.1487
33627W        W76539  28.268  14.901   5.191 -0.3597  0.4517 -0.0843
33628W        W76540  28.314  12.721   5.828 -0.0003  0.0697  0.0923
33629W        W76541  27.939  13.577   6.220  0.0704 -0.4637 -0.0607
33630W        W76542  28.132  13.019   5.443  0.0971 -0.1820 -0.0548
33631W        W76543  26.777  12.893   2.592  0.0188 -0.1417  0.1278
33632W        W76544  27.703  13.483   6.690  0.5052  0.1959 -0.1468
33633W        W76545  26.825  10.536   6.261  0.0931 -0.2427 -0.2357
33634W        W76546  28.564  12.068   4.576 -0.0215 -0.0194  0.0678
33635W        W76547  27.965  11.724   4.776  0.1142  0.0788 -0.1844
33636W        W76548  28.942  11.780   5.888  0.2660 -0.0092  0.1059
33637W        W76549  28.798  11.618   7.228  0.2874  0.3052 -0.2165
33638W        W76550  26.658  11.664   7.387  0.0720 -0.2194 -0.0298
33639W        W76551  26.481  13.851   7.910  0.2341  0.2606 -0.0227
33640W        W76552  28.797  15.078   7.394 -0.0687  0.3319  0.2833
33641W        W76553  28.931  13.746   2.059 -0.1127  0.2971  0.1601
33642W        W76554  28.226  13.228   6.415 -0.1089  0.3114 -0.2192
33643W        W76555  28.785  11.683   5.437 -0.0811  0.2058 -0.0116
33644W        W76556  29.441  12.231   5.797  0.1112  0.1803 -0.0791
33645W        W76557  26.952  11.646   6.427 -0.0991  0.1507  0.1827
33646W        W76558  28.992  12.551   7.486 -0.1949 -0.0743  0.0484
33647W        W76559  25.991  12.481   3.697 -0.2369  0.0161  0.0973
33648W        W76560  28.387  12.284   5.947  0.3456  0.0772 -0.0439
33649W        W76561  28.071  13.826   4.458 -0.3589 -0.1184  0.2377
33650W        W76562  28.691  13.906   6.681 -0.0960  0.1877  0.0344
33651W        W76563  28.491  12.495   4.868 -0.0523 -0.1362 -0.5179
33652W        W76564  24.897  11.691   5.412  0.0605 -0.0336  0.3944
33653W        W76565  25.984  15.280   8.052  0.2015 -0.0460  0.3146
33654W        W76566  25.771  12.950   3.604 -0.0359  0.0763 -0.1886
33655W        W76567  26.667  12.419   3.535  0.0976 -0.0446  0.2806
33656W        W76568  28.273  14.179   6.774 -0.2755  0.0569 -0.0360
33657W        W76569  28.634  13.584   8.453 -0.1395  0.4217 -0.0658
33658W        W76570  27.190  11.946   4.476 -0.2574  0.1062 -0.1665
33659W        W76571  28.718  12.151   6.333 -0.0487  0.0259 -0.1105
33660W        W76572  25.261  14.149   3.380  0.0369 -0.0259  0.1424
33661W        W76573  28.130  10.733   6.464 -0.1094 -0.0688 -0.1835
33662W        W76574  26.240  14.547   6.894  0.0934 -0.3593 -0.0431
33663W        W76575  26.002  13.582   6.265 -0.0116  0.4117  0.0418
33664W        W76576  28.847  14.017   6.119 -0.0090 -0.0877 -0.1486
33665W        W76577  26.789  12.209   6.680 -0.1660  0.0073 -0.1216
33666W        W76578  28.392  13.622   5.860  0.1748 -0.1861 -0.1620
33667W        W76579  28.894  13.500   5.837 -0.2362  0.4297  0.1067
33668W        W76580  29.224  11.452   6.768 -0.0363 -0.0212 -0.0247
33669W        W76581  27.327  12.852   7.465  0.0829  0.0501  0.1208
33670W        W76582  27.075  14.387   7.393  0.2265 -0.2315 -0.0629
33671W        W76583  28.283  13.811   7.602  0.0608  0.0091  0.1228
33672W        W76584  30.645  11.747   5.378  0.0807 -0.1204  0.0897
33673W        W76585  27.753  13.954   8.445  0.2370 -0.3107  0.1231
33674W        W76586  25.595  12.624   7.325  0.0808  0.0197  0.1230
33675W        W76587  27.724  13.133   7.229  0.0263 -0.0537  0.0633
33676W        W76588  27.808  13.857   7.518  0.2125  0.1041 -0.0294
33677W        W76589  26.300  13.875   5.726 -0.1819  0.3153 -0.2471
33678W        W76590  27.335  13.088   2.487 -0.0614 -0.0236  0.0822
33679W        W76591  26.131  14.869   8.423  0.1753 -0.1222  0.2861
33680W        W76592  25.639  14.067   7.365 -0.1175  0.0504 -0.1234
33681W        W76593  27.065  15.462   6.128 -0.0947  0.0085  0.1250
33682W        W76594  28.880  14.513   5.208 -0.4485  0.1877 -0.2606
33683W        W76595  28.266  14.143   5.621 -0.0506 -0.3769 -0.4353
33684W        W76596  28.575  15.351   6.691  0.5027 -0.1012 -0.1220
33685W        W76597  26.493  13.537   5.473 -0.0585  0.0909  0.2512
33686W        W76598  27.397  13.199   6.322 -0.1579 -0.2100 -0.1411
33687W        W76599  25.019  14.298   4.632  0.5609 -0.0845  0.3958
33688W        W76600  28.654  13.707   3.067  0.0757 -0.4296 -0.0008
33689W        W76601  26.664  14.686   6.251 -0.1627 -0.0672  0.1243
33690W        W76602  29.009  14.945   6.842  0.1778 -0.2152 -0.2366
33691W        W76603  29.124  10.140   4.310  0.2491 -0.4057  0.1766
33692W        W76604  30.099  11.502   6.052  0.0772  0.2801  0.1557
33693W        W76605  28.925  12.485   4.533 -0.1141  0.1598 -0.1378
33694W        W76606  25.879  14.143   6.655  0.0266  0.1449  0.1512
33695W        W76607  28.025  11.951   6.011 -0.1487 -0.0207 -0.0178
33696W        W76608  26.544  11.922   3.653 -0.0448 -0.0183  0.2565
33697W        W76609  26.152  11.951   7.505 -0.1679  0.2186  0.0861
33698W        W76610  28.947  11.139   7.877 -0.2315 -0.2328 -0.1558
33699W        W76611  25.935  14.748   7.935  0.0461  0.1804 -0.1036
33700W        W76612  28.324  13.064   4.056 -0.0155 -0.0923  0.0252
33701W        W76613  25.725  13.161   4.426  0.0612  0.0338  0.0693
33702W        W76614  27.985  13.106   4.509  0.2417 -0.0070 -0.0124
33703W        W76615  29.965  10.862   7.586 -0.1084 -0.1973 -0.1109
33704W        W76616  28.614  13.214   5.568 -0.2147  0.0635  0.2109
33705W        W76617  28.901  13.576   5.320  0.1647  0.0143 -0.1206
33706W        W76618  28.399  13.458   4.494 -0.1709 -0.1009 -0.0732
33707W        W76619  25.905  14.988   6.998 -0.0956  0.2226  0.1484
33708W        W76620  26.715  14.742   6.751  0.2481 -0.0092 -0.0270
33709W        W76621  25.260  12.719   4.374 -0.2908 -0.0438  0.0239
33710W        W76622  29.291  11.839   4.950  0.0882  0.1830 -0.0153
33711W        W76623  27.289  11.334   6.114 -0.2385  0.0587 -0.0872
33712W        W76624  27.954  11.439   5.464  0.1780 -0.0965  0.2516
33713W        W76625  27.071  13.620   6.280 -0.2734  0.0145  0.0855
33714W        W76626  29.865  10.552   4.889 -0.1053  0.2432 -0.5462
33715W        W76627  27.057  13.504   7.905  0.0589  0.2478 -0.1047
33716W        W76628  25.720  12.577   7.942 -0.2020  0.0749 -0.2429
33717W        W76629  27.266  13.027   4.589 -0.0105 -0.0958  0.0414
33718W        W76630  29.455  13.409   8.600 -0.2834  0.2187 -0.2769
33719W        W76631  27.624  13.128   4.118  0.3544 -0.0114 -0.3645
33720W        W76632  29.177  15.084   8.210  0.0517  0.2643 -0.3476
33721W        W76633  27.021  12.355   6.188  0.1004  0.0836  0.0322
33722W        W76634  26.837  11.749   4.049 -0.1553  0.4340 -0.1676
33723W        W76635  25.049  15.037   5.192 -0.0010 -0.1928  0.1471
33724W        W76636  27.053  12.309   7.669 -0.1161  0.2925  0.0302
33725W        W76637  29.354  13.412   7.359  0.1182  0.0640 -0.4778
33726W        W76638  26.303  12.561   4.455  0.2779 -0.0977 -0.0777
33727W        W76639  28.495  14.664   3.561 -0.1217 -0.0489 -0.0743
33728W        W76640  28.882  12.925   5.005 -0.1646 -0.1307  0.6021
33729W        W76641  27.626  15.186   4.542  0.2513  0.0953 -0.0789
33730W        W76642  29.513  12.301   5.153  0.4145  0.0804 -0.0307
33731W        W76643  28.093  14.816   7.379  0.1464 -0.3376  0.2681
33732W        W76644  26.726  12.594   5.833  0.2388 -0.0131 -0.5672
33733W        W76645  27.114  14.817   7.046 -0.0580 -0.2077  0.0824
33734W        W76646  28.220  13.498   8.097 -0.0389 -0.2002  0.3129
33735W        W76647  26.583  11.195   4.297  0.1493  0.2967 -0.0486
33736W        W76648  27.852  13.134   5.963  0.3150  0.2046  0.1791
33737W        W76649  27.244  15.343   5.639 -0.1801 -0.0099 -0.0420
33738W        W76650  28.547  11.600   6.164  0.0513  0.2091  0.0249
33739W        W76651  29.416  10.752   7.043 -0.1024  0.1270  0.0909
33740W        W76652  27.664  14.442   3.115  0.1734  0.1008 -0.0715
33741W        W76653  29.524  10.649   8.960 -0.0718 -0.0149 -0.0566
33742W        W76654  28.096  15.214   8.048 -0.1079  0.0096 -0.1811
33743W        W76655  27.356  15.084   7.985  0.0960 -0.1059 -0.1240
33744W        W76656  26.344  13.724   4.426 -0.2174 -0.0493 -0.1022
33745W        W76657  26.633  13.101   8.010  0.0762 -0.1851  0.1675
33746W        W76658  28.198  13.679   6.697 -0.2881 -0.1012  0.2685
33747W        W76659  27.935  14.442   3.550  0.3091  0.1923  0.0053
33748W        W76660  28.783  13.299   4.165 -0.0521  0.3385  0.1271
33749W        W76661  28.954  12.272   5.876 -0.0990 -0.1469 -0.2734
33750W        W76662  29.747  12.626   5.523 -0.1672  0.1278  0.1536
33751W        W76663  27.872  11.487   6.074  0.0936  0.1122  0.0861
33752W        W76664  30.292  11.303   5.496  0.1439  0.0334  0.1284
33753W        W76665  28.220  11.534   3.810  0.2979 -0.0105  0.1826
33754W        W76666  26.291  13.035   7.516  0.1492  0.3027  0.1270
33755W        W76667  24.860  14.665   4.152 -0.1450  0.2155 -0.0944
33756W        W76668  25.750  14.538   4.626 -0.1217 -0.3949 -0.2741
33757W        W76669  27.719  13.368   5.379 -0.5806 -0.0905  0.0683
33758W        W76670  26.755  11.375   7.933  0.0549 -0.4987  0.1615
33759W        W76671  25.896  11.834   6.798  0.0431  0.2374 -0.4397
33760W        W76672  25.284  12.809   7.711  0.0926 -0.0482 -0.5150
33761W        W76673  27.003  12.170   4.896 -0.0020  0.0594 -0.2229
33762W        W76674  29.576  14.517   4.261 -0.2320 -0.0089 -0.1559
33763W        W76675  27.213  10.249   5.605  0.1146  0.0158 -0.2272
33764W        W76676  26.228  11.003   5.226  0.1595  0.0275 -0.2902
33765W        W76677  28.098  12.490   5.233  0.1177 -0.0562 -0.1181
33766W        W76678  29.331  13.260   4.976 -0.0320  0.2745 -0.2248
33767W        W76679  26.494  12.783   5.243 -0.3426  0.3541 -0.3420
33768W        W76680  28.643  13.253   8.022 -0.1456 -0.1864  0.0714
33769W        W76681  25.825  12.928   2.481 -0.0596  0.2118 -0.1743
33770W        W76682  28.638  12.869   7.665 -0.1148 -0.0865 -0.1794
33771W        W76683  26.867  13.051   7.581  0.0966  0.0662  0.0888
33772W        W76684  26.026  12.915   4.927  0.1620 -0.3402  0.2046
33773W        W76685  27.633  12.096   6.227 -0.0582  0.1112  0.1862
33774W        W76686  29.355  14.767   5.398 -0.1501  0.1040 -0.2828
33775W        W76687  29.074  14.668   4.491 -0.2516 -0.0441 -0.2259
33776W        W76688  25.729  15.194   6.325 -0.3474 -0.3012 -0.1561
33777W        W76689  27.506  14.413   8.285 -0.1117  0.1112  0.2375
33778W        W76690  25.474  12.359   6.070 -0.2373  0.0093 -0.1263
33779W        W76691  28.792  13.385   4.872  0.1663 -0.2076  0.2636
33780W        W76692  26.762  14.584   8.223 -0.1154  0.1182  0.0051
33781W        W76693  28.936  14.369   3.487 -0.1764  0.0465 -0.0403
33782W        W76694  29.116  11.653   6.344 -0.2109 -0.2021  0.1859
33783W        W76695  29.762  13.460   3.470  0.2695  0.0192  0.1862
33784W        W76696  26.432  11.282   7.071 -0.0416  0.2310  0.2848
33785W        W76697  25.807  12.943   7.611 -0.1306 -0.0646 -0.1852
33786W        W76698  28.782  12.670   6.260 -0.1790  0.1443  0.0177
33787W        W76699  26.880  11.678   5.779 -0.0349 -0.1259  0.0283
33788W        W76700  28.121  11.963   4.393 -0.0996 -0.1748  0.0532
33789W        W76701  29.660  15.512   4.447 -0.0414 -0.0808 -0.1012
33790W        W76702  26.960  13.155   6.587  0.0345 -0.1282 -0.1599
33791W        W76703  28.098  12.204   4.806  0.0104  0.1250  0.4912
33792W        W76704  29.239  12.122   6.228  0.0783  0.2616 -0.0213
33793W        W76705  28.473  13.858   4.879  0.1461  0.2396 -0.0498
33794W        W76706  27.173  13.044   8.035  0.1502 -0.1006  0.2361
33795W        W76707  26.324  12.615   3.174  0.1683 -0.4250 -0.0421
33796W        W76708  30.151  12.579   3.195  0.1241  0.1530 -0.1055
33797W        W76709  27.558  14.193   7.305 -0.2465 -0.1987 -0.1113
33798W        W76710  30.065  14.770   7.365  0.2243  0.0376 -0.0951
33799W        W76711  27.183  14.783   8.417 -0.2781 -0.0554 -0.0025
33800W        W76712  29.071  13.104   5.383 -0.0777  0.1711  0.2352
33801W        W76713  26.747  10.835   5.324  0.0955  0.0874 -0.0691
33802W        W76714  25.567  13.660   4.728  0.0674 -0.0702 -0.0792
33803W        W76715  28.036  13.481   4.841 -0.1521 -0.4048 -0.3343
33804W        W76716  28.624  11.938   7.919 -0.3855 -0.0894 -0.1887
33805W        W76717  26.268  12.660   7.131  0.1318  0.0928  0.0721
33806W        W76718  27.065  11.972   3.662  0.0611  0.2801 -0.2391
33807W        W76719  25.938  14.909   8.916  0.0186 -0.0074  0.4235
33808W        W76720  27.953  14.477   6.973  0.1687 -0.2531  0.2798
33809W        W76721  27.597  11.571   9.528  0.3747 -0.0399  0.3564
33810W        W76722  26.978  13.208   8.505  0.2970 -0.1363 -0.1451
33811W        W76723  27.608  12.355   7.590  0.1755 -0.1076  0.3218
33812W        W76724  28.162  13.717   8.511  0.0072  0.2040 -0.0700
33813W        W76725  25.642  12.774  10.406  0.2064 -0.0849  0.1052
33814W        W76726  28.998  14.328   5.672 -0.0273 -0.2182 -0.4924
33815W        W76727  28.595  14.219   8.422 -0.0621 -0.0367  0.1635
33816W        W76728  29.195  14.218  10.368  0.0034 -0.0483 -0.1904
33817W        W76729  27.804  13.953   6.965  0.1176  0.2085  0.0733
33818W        W76730  26.196  11.740   9.765 -0.3244  0.0601  0.0993
33819W        W76731  26.928  11.556   8.823 -0.1369 -0.0592 -0.3781
33820W        W76732  23.684   9.749   9.191 -0.1359 -0.1242 -0.1534
33821W        W76733  27.104  13.751   9.572 -0.0151 -0.0358 -0.2023
33822W        W76734  24.605  13.304   8.365 -0.2714  0.3306  0.2819
33823W        W76735  25.918  13.418  10.370  0.3998 -0.0929 -0.0210
33824W        W76736  27.380  12.626   9.002  0.3774 -0.0316 -0.2137
33825W        W76737  28.582  13.425   9.747 -0.1649  0.0582 -0.1013
33826W        W76738  26.366  12.020   9.016  0.1558  0.1790  0.1668
33827W        W76739  26.803  14.019   8.789 -0.0289  0.2701  0.1215
33828W        W76740  25.092  11.811   8.988 -0.0806 -0.1850 -0.0770
33829W        W76741  23.511  11.542   9.390 -0.1761  0.0362 -0.0851
33830W        W76742  26.612  13.120   9.940 -0.2432 -0.2372 -0.2485
33831W        W76743  27.208  12.624  10.898  0.2500  0.0329  0.0852
33832W        W76744  29.370  12.003  11.067 -0.0411 -0.3573 -0.1306
33833W        W76745  26.093  13.505   9.894 -0.3487 -0.2839 -0.3116
33834W        W76746  27.409  13.978  10.458  0.0053 -0.0110  0.5073
33835W        W76747  25.933  12.985   8.952 -0.2130 -0.2249  0.4305
33836W        W76748  24.477  14.292   8.783 -0.0298 -0.0496  0.0472
33837W        W76749  25.845  13.378   9.298 -0.3734  0.3747  0.2413
33838W        W76750  28.619  12.603   9.224  0.1498  0.0048 -0.2082
33839W        W76751  25.681  13.771   9.592 -0.1744  0.1525  0.0761
33840W        W76752  27.949  11.596  10.443 -0.0343  0.0115 -0.1285
33841W        W76753  26.743  13.365   9.519  0.2428 -0.1377  0.0042
33842W        W76754  28.537  14.724   8.271  0.1254 -0.0819 -0.2638
33843W        W76755  26.636  13.244  10.405 -0.1723 -0.0685  0.1129
33844W        W76756  24.946  13.426   9.187  0.2710 -0.0019  0.0352
33845W        W76757  25.763  14.328   7.749  0.0764  0.2364 -0.1621
33846W        W76758  27.882  13.483   9.170 -0.2151  0.0855  0.2064
33847W        W76759  27.047  10.064   7.150  0.2155  0.0925 -0.0238
33848W        W76760  28.998  12.048   8.376 -0.1733  0.1636 -0.1757
33849W        W76761  24.732  12.469   9.413 -0.0138 -0.0395 -0.3114
33850W        W76762  25.642  14.701   9.658 -0.0732  0.1122  0.0740
33851W        W76763  25.733  11.807   9.660 -0.0429 -0.1998 -0.1734
33852W        W76764  27.072  13.616   8.905 -0.1390  0.2290 -0.0292
33853W        W76765  28.320  12.537  10.072  0.3763 -0.2031  0.0714
33854W        W76766  26.798  14.291   9.903  0.4359  0.0956  0.1478
33855W        W76767  25.147  13.048   8.665  0.0112  0.1075  0.3621
33856W        W76768  28.842  14.323   7.989 -0.1762  0.0068  0.1234
33857W        W76769  29.536  13.058   8.968  0.3020 -0.2022  0.3306
33858W        W76770  27.321  15.308   7.102 -0.4576  0.0568  0.0164
33859W        W76771  25.679  11.735   8.277  0.2578 -0.1013 -0.2341
33860W        W76772  26.182  11.386   7.483 -0.0527  0.1064  0.1594
33861W        W76773  29.565  11.830   8.142  0.0096 -0.0700  0.1228
33862W        W76774  27.529  12.835  10.419  0.0398  0.0346  0.4386
33863W        W76775  29.931  13.287  10.064 -0.0087 -0.0704 -0.1671
33864W        W76776  27.750  12.885   7.769 -0.0308  0.1648 -0.2446
33865W        W76777  28.505  12.802   9.679  0.2797  0.0863 -0.0745
33866W        W76778  27.456  11.633  12.337 -0.2368 -0.2051 -0.3457
33867W        W76779  26.620  13.472   8.761 -0.0221  0.1644 -0.1832
33868W        W76780  27.784  13.215   8.168  0.1337 -0.0122 -0.1334
33869W        W76781  27.988  13.868  10.403  0.0171 -0.1650 -0.4343
33870W        W76782  29.064  13.179   9.832  0.1449  0.1620 -0.1477
33871W        W76783  24.326  13.279  10.155  0.0578  0.0146  0.0523
33872W        W76784  25.634  14.879   8.405  0.0688 -0.1991  0.0401
33873W        W76785  24.595  13.398   9.564  0.1497 -0.1579  0.1912
33874W        W76786  24.963  13.510   8.663  0.0786  0.1014 -0.2254
33875W        W76787  27.496  11.437  10.223 -0.0609 -0.2029 -0.0931
33876W        W76788  26.590  12.615  10.259  0.2294  0.3017  0.0927
33877W        W76789  28.673  11.830   9.417  0.1947  0.1738  0.2358
33878W        W76790  28.172  11.894   9.588  0.0514  0.1272  0.1599
33879W        W76791  26.388  14.440   8.533 -0.1627 -0.0176  0.1612
33880W        W76792  29.657  13.828   8.780  0.4738  0.1656  0.0744
33881W        W76793  27.883  12.844   9.810 -0.0734 -0.3356 -0.0069
33882W        W76794  28.979  13.273   8.929  0.1082  0.1811 -0.1998
33883W        W76795  24.498  12.852   8.683  0.4175 -0.2060 -0.0582
33884W        W76796  26.635  12.900   9.495  0.1412  0.2317  0.1036
33885W        W76797  24.408  10.973   8.450 -0.0848  0.1338  0.2187
33886W        W76798  26.484  12.279   7.638 -0.1381 -0.1001  0.0568
33887W        W76799  29.031  10.580   9.330  0.0293  0.2243 -0.0470
33888W        W76800  27.857  11.373   8.133 -0.1648  0.2167  0.4883
33889W        W76801  25.978  12.787   8.382  0.0645 -0.4418 -0.0397
33890W        W76802  28.663  14.755  10.117  0.1695 -0.0823  0.0219
33891W        W76803  26.234  15.658  10.154 -0.0924 -0.0377 -0.1581
33892W        W76804  28.454  14.947   9.688 -0.0654 -0.1697  0.0051
33893W        W76805  24.178  10.837   9.731 -0.1565 -0.1773  0.0360
33894W        W76806  27.420  12.077   8.040 -0.1703  0.0940 -0.1332
33895W        W76807  24.923  14.329   8.552  0.1343 -0.0110 -0.0548
33896W        W76808  26.207  12.984  10.224  0.1626 -0.3212 -0.1215
33897W        W76809  28.043  12.325   7.067  0.1284  0.0661  0.1382
33898W        W76810  28.819  14.212  10.057  0.1525  0.1257 -0.2764
33899W        W76811  27.236  14.064   9.112 -0.2821  0.1790 -0.1342
33900W        W76812  28.048  13.388   9.963  0.0352 -0.3293  0.1559
33901W        W76813  26.988  13.657  10.588  0.0971  0.2504  0.1220
33902W        W76814  25.325  11.765   7.490  0.0457  0.0809 -0.1917
33903W        W76815  27.852  15.442  10.116 -0.0688  0.0057 -0.2188
33904W        W76816  25.456  15.039   7.363  0.0758  0.1021 -0.0524
33905W        W76817  24.152  13.663   9.267  0.0345 -0.4470 -0.1194
33906W        W76818  27.387  14.403  10.022 -0.1215 -0.1276 -0.1350
33907W        W76819  28.138  12.759   9.218  0.4001 -0.0850 -0.1701
33908W        W76820  25.567  11.576   8.906  0.0602  0.0891 -0.1240
33909W        W76821  27.695  10.916   7.695  0.3081 -0.1489  0.1716
33910W        W76822  28.665  13.082   9.275 -0.0140  0.3787  0.1346
33911W        W76823  29.621  13.856   8.252 -0.1618 -0.2004  0.0168
33912W        W76824  28.523  12.400   7.533 -0.2391 -0.1021  0.2541
33913W        W76825  27.914  10.495   8.712 -0.1937 -0.1424 -0.2382
33914W        W76826  27.765  14.302   9.238  0.1878 -0.1371  0.1125
33915W        W76827  28.088  14.616   9.492 -0.0421 -0.2720  0.1200
33916W        W76828  27.400  11.735   7.020  0.0558 -0.1738 -0.1406
33917W        W76829  29.504  13.490   9.732  0.0367 -0.4078  0.1689
33918W        W76830  27.102  12.538  10.407  0.0127 -0.0045  0.1293
33919W        W76831  27.883  14.041   9.918 -0.0699  0.1178  0.1614
33920W        W76832  25.487  10.938  10.167 -0.0545  0.3676 -0.1456
33921W        W76833  26.811  12.621   7.236 -0.0441 -0.2370 -0.2043
33922W        W76834  29.273  11.275   9.988  0.2430  0.1341 -0.3926
33923W        W76835  25.118  15.326   7.579  0.2002  0.1265  0.0507
33924W        W76836  29.175  13.681  10.559  0.1327 -0.1652 -0.2104
33925W        W76837  27.554  12.408   8.559  0.0003 -0.3042  0.1826
33926W        W76838  27.650  12.614   9.413 -0.1917  0.1862  0.0529
33927W        W76839  27.601  13.790   8.889  0.1615 -0.0735 -0.1614
33928W        W76840  25.956  12.241   7.115  0.0700 -0.1155 -0.0885
33929W        W76841  26.282  12.209  10.101  0.1011  0.0179 -0.1220
33930W        W76842  25.414  14.295   9.473 -0.0198  0.2652 -0.1652
33931W        W76843  29.112  13.811   8.850 -0.1627 -0.0095  0.2431
33932W        W76844  27.883  12.712   8.259 -0.1531  0.3214 -0.1337
33933W        W76845  26.359  14.156   9.128  0.2144 -0.0275  0.1005
33934W        W76846  26.748  14.109   8.288 -0.0485 -0.0160 -0.0525
33935W        W76847  26.856  10.430   8.857 -0.1028  0.1301 -0.0012
33936W        W76848  26.282  13.128   8.567 -0.0887 -0.0648 -0.1578
33937W        W76849  27.341  13.841   7.631 -0.1056 -0.0700  0.1840
33938W        W76850  28.159  13.651   9.570 -0.0230  0.0613 -0.1429
33939W        W76851  25.489  13.580   9.019  0.1394 -0.1491 -0.0681
33940W        W76852  28.677  10.195   9.473  0.3200 -0.1094  0.0736
33941W        W76853  23.398  13.586   7.246  0.4054 -0.0851 -0.0417
33942W        W76854  25.962  11.821   9.251 -0.2668 -0.0233  0.0894
33943W        W76855  25.654  12.638   8.692 -0.0992 -0.1997  0.0185
33944W        W76856  29.299  11.442   9.452 -0.1185 -0.0127  0.1728
33945W        W76857  29.733  11.980   8.813 -0.2076 -0.0100 -0.0001
33946W        W76858  25.755  13.113  10.020  0.0966 -0.1754 -0.2412
33947W        W76859  27.160  12.417   9.492 -0.1563 -0.0220 -0.0007
33948W        W76860  23.964  17.058   9.254 -0.0788 -0.2653  0.0790
33949W        W76861  26.704  12.446   9.196 -0.2254  0.1228 -0.0541
33950W        W76862  25.234  12.295   7.609 -0.1068 -0.1745 -0.1153
33951W        W76863  28.892  12.679  10.098  0.1540  0.0908  0.0633
33952W        W76864  27.682  13.026   9.195  0.0874 -0.2202  0.1494
33953W        W76865  23.401  12.830  10.088  0.0976  0.1411  0.1071
33954W        W76866  26.963  15.333  10.785 -0.0564 -0.1580 -0.1231
33955W        W76867  25.911  13.087   7.165  0.2539  0.1746  0.0707
33956W        W76868  24.950  12.781   9.019 -0.1458 -0.3272 -0.1525
33957W        W76869  24.997  13.640   9.751  0.0102  0.3567 -0.1116
33958W        W76870  27.264   8.598   9.713  0.4180  0.1194  0.0880
33959W        W76871  25.811  12.283   9.134 -0.0507  0.0698 -0.0541
33960W        W76872  25.858  12.639   9.978 -0.0058  0.0839  0.0865
33961W        W76873  26.483  14.319  10.310 -0.0077 -0.2088  0.2304
33962W        W76874  26.486  11.047   9.466  0.2208 -0.0715  0.2428
33963W        W76875  28.024  11.523   9.923  0.0504 -0.0710 -0.3730
33964W        W76876  28.820  13.633   7.527 -0.0611 -0.0592  0.4797
33965W        W76877  26.041  13.509   8.829 -0.1789  0.3561  0.0946
33966W        W76878  25.108  13.199   9.941 -0.1905  0.0469 -0.0352
33967W        W76879  25.899  13.563   8.323  0.1370  0.0225  0.1191
33968W        W76880  27.377  10.846   9.313  0.2632  0.3837  0.0834
33969W        W76881  28.656  12.634  10.507  0.4296  0.0721 -0.0118
33970W        W76882  26.822  14.354   9.185 -0.2206  0.0351  0.4332
33971W        W76883  28.289  14.824  11.117  0.1716  0.0228  0.0877
33972W        W76884  28.140  12.117   7.675 -0.1942 -0.2018  0.1006
33973W        W76885  27.020  13.499   7.414 -0.1430  0.2739  0.0950
33974W        W76886  26.254  12.588   9.298 -0.1502  0.2180 -0.0698
33975W        W76887  26.793  12.631   7.912 -0.0580  0.3804 -0.2869
33976W        W76888  27.025  12.049   8.774 -0.3059 -0.0276 -0.0298
33977W        W76889  28.607  14.615   8.819 -0.3571 -0.1441 -0.0498
33978W        W76890  27.049  11.768  10.184 -0.1053 -0.0750 -0.3376
33979W        W76891  25.962  11.440   8.575 -0.1668 -0.0162  0.2325
33980W        W76892  28.937  11.011   9.624  0.1551  0.1396  0.0477
33981W        W76893  27.269  13.432   9.295 -0.0094 -0.0991 -0.1586
33982W        W76894  26.412  14.903   8.039 -0.0262 -0.0351  0.0667
33983W        W76895  28.176  13.168   9.540  0.0601 -0.1356  0.2378
33984W        W76896  24.690  12.311   8.609 -0.2522  0.1056  0.0530
33985W        W76897  28.174  14.062   8.125 -0.0628  0.0606  0.0747
33986W        W76898  27.778  11.812   7.850 -0.0306  0.5643 -0.3019
33987W        W76899  26.846  13.163   9.077 -0.1139  0.0625 -0.1592
33988W        W76900  28.520  13.910  10.675 -0.0512 -0.2486 -0.0296
33989W        W76901  29.029  11.331  10.479 -0.0345 -0.3646  0.0378
33990W        W76902  28.574  14.431   9.662 -0.1792 -0.1629  0.1261
33991W        W76903  28.566  11.826   8.477 -0.3350  0.2514 -0.2647
33992W        W76904  28.714  12.213  10.234 -0.2487 -0.1364 -0.2349
33993W        W76905  28.226  13.090   8.414  0.2927  0.2440 -0.0156
33994W        W76906  27.648  12.441   6.593 -0.2096 -0.0330 -0.1193
33995W        W76907  24.473  12.979   9.195 -0.4361  0.2099  0.3440
33996W        W76908  27.500  12.205   7.056 -0.0208  0.2210  0.1379
33997W        W76909  26.499  14.381   9.545  0.1846  0.0123 -0.1507
33998W        W76910  27.531  14.401   8.828  0.1268  0.3377 -0.0322
33999W        W76911  28.520  13.092  10.260  0.1559 -0.0634  0.0093
34000W        W76912  24.434  12.408   9.884  0.1130 -0.1491  0.0218
34001W        W76913  24.981  11.924   7.909  0.0436  0.1382  0.2709
34002W        W76914  27.267  14.091   8.590  0.0717 -0.1172  0.2531
34003W        W76915  27.217  13.943   9.992  0.4835 -0.0817  0.2886
34004W        W76916  28.169  11.552   7.507 -0.1294  0.2321 -0.0043
34005W        W76917  25.810  13.970   8.621 -0.0423  0.3234 -0.0108
34006W        W76918  28.401  11.723   8.965  0.0929  0.1120 -0.0749
34007W        W76919  26.106  14.499   9.950 -0.2475  0.0769 -0.0894
34008W        W76920  25.634  13.138   8.579  0.0029 -0.0310 -0.2095
34009W        W76921  28.578  12.294   9.650  0.1054 -0.1929 -0.0578
34010W        W76922  28.090  12.419   9.611 -0.1271 -0.0766  0.1213
34011W        W76923  26.908  13.543  10.030 -0.2745 -0.0938  0.0615
34012W        W76924  25.742  12.777   9.444  0.2285 -0.1623 -0.3736
34013W        W76925  28.626  13.932   9.566  0.3094 -0.0937 -0.1826
34014W        W76926  25.388  13.230  10.416 -0.1094 -0.0045  0.2017
34015W        W76927  28.263  15.104  10.212 -0.1632  0.0028 -0.2894
34016W        W76928  27.104  12.534   8.406  0.3050 -0.1501 -0.1049
34017W        W76929  27.350  13.542   8.432 -0.1317  0.1443 -0.0973
34018W        W76930  25.500  13.555  10.009  0.0967  0.3631  0.2039
34019W        W76931  25.610  15.168   9.839  0.1420  0.0122 -0.4873
34020W        W76932  29.506  14.314   8.543  0.0480 -0.1684  0.0806
34021W        W76933  28.247  13.020   7.912 -0.2701 -0.1006 -0.0933
34022W        W76934  29.342  13.333  10.192 -0.0844  0.2346  0.0423
34023W        W76935  27.758  11.931   9.257 -0.2038  0.0449  0.2204
34024W        W76936  25.055  14.700   9.349 -0.1214  0.0200 -0.0734
34025W        W76937  25.096  14.243   6.202  0.1009  0.0540 -0.0586
34026W        W76938  29.613  14.802   8.065  0.3227  0.1832 -0.0935
34027W        W76939  25.197  13.947   8.652  0.1492 -0.1140 -0.0976
34028W        W76940  29.339  11.767   8.631 -0.3585 -0.2449 -0.2197
34029W        W76941  29.571  12.955   9.791 -0.1207  0.1862  0.0501
34030W        W76942  28.153  12.223  10.438 -0.0872  0.1283 -0.1725
34031W        W76943  27.335  13.352  10.383 -0.1121 -0.1110 -0.1369
34032W        W76944  27.920  11.890   7.277 -0.0063  0.1159  0.0990
34033W        W76945  29.883  13.982   9.217  0.1800 -0.1149  0.1358
34034W        W76946  25.035  12.273   9.072  0.0057  0.0697 -0.0813
34035W        W76947  26.046  12.219   9.639 -0.4897 -0.2172  0.0263
34036W        W76948  27.447   9.595   9.615  0.3026  0.0373 -0.1150
34037W        W76949  27.834  13.328   8.670  0.2300 -0.1000 -0.1478
34038W        W76950  26.882  12.761   8.788 -0.1291 -0.0152  0.0047
34039W        W76951  26.700  13.777   9.247 -0.3416  0.0034 -0.2274
34040W        W76952  26.052  13.993  10.054 -0.1110 -0.4102  0.5498
34041W        W76953  26.571  13.893   9.783 -0.3317 -0.1262  0.0249
34042W        W76954  24.926  11.517   8.230  0.2481 -0.0147  0.0260
34043W        W76955  29.213  13.043   9.344 -0.0106  0.1031 -0.2221
34044W        W76956  26.640  12.398  10.921  0.0267  0.0611  0.0335
34045W        W76957  25.538  12.350   9.622 -0.0074 -0.0814 -0.3031
34046W        W76958  27.869  12.421   8.972 -0.1997  0.0029 -0.2166
34047W        W76959  28.530  14.396  10.908  0.0252  0.0630 -0.1627
34048W        W76960  26.755  11.592   9.777 -0.0047 -0.0567 -0.0862
34049W        W76961  27.402  12.604   8.033 -0.3516 -0.3422  0.3671
34050W        W76962  28.845  12.331   7.042  0.2445  0.0259 -0.2875
34051W        W76963  25.228  11.260   9.026 -0.1199  0.3045 -0.1756
34052W        W76964  28.008  11.119   7.316 -0.0584  0.1817 -0.0170
34053W        W76965  25.006  12.249   8.278  0.0612 -0.0913  0.1807
34054W        W76966  27.344  14.442  10.509  0.2342  0.4073 -0.4223
34055W        W76967  26.168  11.913   8.595 -0.3324  0.1543 -0.1606
34056W        W76968  28.562  12.889   8.760 -0.0813 -0.0212  0.3380
34057W        W76969  28.578  11.153  10.233 -0.1187  0.2893 -0.0537
34058W        W76970  25.831  13.982   9.129  0.0044 -0.2591  0.1944
34059W        W76971  27.933  12.238   8.251 -0.1593 -0.2110 -0.2069
34060W        W76972  28.594  13.911   8.894  0.1783 -0.1063  0.0259
34061W        W76973  23.909  12.319   9.744 -0.2214 -0.0870 -0.0445
34062W        W76974  27.060  13.089  10.724  0.2925 -0.1474  0.0045
34063W        W76975  27.370  12.723   9.899  0.0122 -0.0782 -0.5386
34064W        W76976  25.826  10.353   9.604 -0.0509  0.0879  0.4787
34065W        W76977  27.048  12.978  10.182  0.6447 -0.2617  0.1472
34066W        W76978  25.027  13.744   8.143  0.2058 -0.2396  0.0417
34067W        W76979  28.589  10.654   9.919  0.4194 -0.2021 -0.0516
34068W        W76980  27.691  13.725   7.989 -0.1604  0.3403 -0.0353
34069W        W76981  26.865  14.729  10.337  0.1560  0.0843  0.1674
34070W        W76982  26.089  12.546   8.831 -0.0371  0.0629  0.1100
34071W        W76983  26.167  13.034   9.590 -0.0663  0.0326 -0.2906
34072W        W76984  26.481  14.678   8.969 -0.0037 -0.3156  0.3002
34073W        W76985  27.814  14.778   9.101 -0.3203  0.1496 -0.0919
34074W        W76986  27.709  13.860   9.419 -0.0318  0.3799  0.0791
34075W        W76987  30.223  14.641   9.281 -0.1432  0.0502  0.0948
34076W        W76988  26.861  12.662   9.835 -0.1269  0.2010 -0.1132
34077W        W76989  29.788  12.200   9.350  0.1226 -0.0120  0.0336
34078W        W76990  28.728  10.342   8.939  0.0267  0.0376 -0.1632
34079W        W76991  27.283  13.267   9.876 -0.1645 -0.0997  0.2001
34080W        W76992  25.764  11.636   7.695 -0.0366  0.1101 -0.0203
34081W        W76993  26.157  13.239   8.049  0.1712  0.1134 -0.0296
34082W        W76994  25.387  12.551   9.142 -0.0863  0.0089 -0.3924
34083W        W76995  26.429  12.868   8.947  0.1940  0.0443  0.1535
34084W        W76996  27.001  12.091   7.137  0.0836 -0.0012  0.1878
34085W        W76997  29.971  13.783   7.969 -0.2911 -0.2845  0.0794
34086W        W76998  26.908  11.994   9.303 -0.3899  0.0240  0.0639
34087W        W76999  24.531  12.901   9.758 -0.0076 -0.1545  0.1561
34088W        W77000  28.102  14.306   8.655 -0.0565 -0.0741 -0.4443
34089W        W77001  29.321  13.567   9.233  0.1474 -0.0937 -0.0754
34090W        W77002  28.212  13.181   8.954 -0.1295 -0.3758 -0.1003
34091W        W77003  26.562  13.400   6.304 -0.1224  0.2991  0.0206
34092W        W77004  24.637  12.712   7.007 -0.0266 -0.2808 -0.2204
34093W        W77005  25.453  12.014   9.252  0.0849 -0.0100 -0.3207
34094W        W77006  26.909  14.594   8.761  0.1362 -0.0697  0.1276
34095W        W77007  29.070  14.619   8.324 -0.1276 -0.1436 -0.2265
34096W        W77008  28.019  12.124  10.003  0.2654  0.3048  0.1589
34097W        W77009  28.506  14.847   7.791 -0.0335  0.2294 -0.0984
34098W        W77010  28.234  12.686   6.358  0.0116  0.0603 -0.1537
34099W        W77011  28.648  11.315   9.283 -0.0069 -0.4224  0.1044
34100W        W77012  28.143  12.550   7.935  0.1498 -0.1044  0.0508
34101W        W77013  29.998  12.131  10.225 -0.1486  0.4193 -0.0756
34102W        W77014  26.069  10.939   8.422  0.1592  0.2774  0.0064
34103W        W77015  28.098  12.028   8.648 -0.1787 -0.2826 -0.0774
34104W        W77016  28.507  13.575   9.227 -0.1355  0.1762  0.0791
34105W        W77017  24.979  13.006   9.467 -0.0133 -0.3226  0.1321
34106W        W77018  26.320  13.312   9.138  0.0076  0.4080  0.0547
34107W        W77019  27.697  14.915   8.357  0.0847  0.1460 -0.2764
34108W        W77020  25.933  12.056   7.941 -0.2469 -0.2564  0.2705
34109W        W77021  29.432  12.575   9.233 -0.1085  0.4551 -0.0643
34110W        W77022  27.452  14.382  11.014 -0.0368  0.0946 -0.3642
34111W        W77023  25.557  16.017   9.942 -0.0110 -0.2101  0.3374
34112W        W77024  29.426  13.154   8.180  0.1043 -0.3310  0.1038
34113W        W77025  26.797  10.887   9.861  0.1444  0.2346 -0.3948
34114W        W77026  27.329  13.138   8.871  0.1713  0.1216 -0.0334
34115W        W77027  27.696  13.381   9.620  0.0694 -0.1540  0.0807
34116W        W77028  28.460  13.863  11.164  0.0016  0.4422  0.0214
34117W        W77029  26.240  10.844   8.884 -0.1556 -0.1751  0.2751
34118W        W77030  26.505  11.699   9.335 -0.0253 -0.1969  0.1578
34119W        W77031  25.750  14.827  10.186  0.1436  0.0719 -0.1039
34120W        W77032  29.290  14.686   8.834 -0.1680 -0.3241  0.3476
34121W        W77033  27.091  16.112   2.960  0.0123 -0.0893  0.1550
34122W        W77034  26.206  16.357   0.541  0.0654 -0.2562 -0.1521
34123W        W77035  30.520  16.181   0.282  0.1214  0.2116 -0.0541
34124W        W77036  29.202  16.812   1.238  0.1416 -0.0742  0.0345
34125W        W77037  25.850  15.510   1.506  0.2285  0.2503  0.0630
34126W        W77038  27.526  18.334   1.005  0.1166  0.2078  0.0272
34127W        W77039  25.488  14.262   2.915  0.2890  0.0235  0.1052
34128W        W77040  27.138  17.808   1.600 -0.0350 -0.2987  0.1874
34129W        W77041  29.612  17.203   1.830  0.2028  0.2834  0.1866
34130W        W77042  26.013  16.814   0.556 -0.5752 -0.0012 -0.1998
34131W        W77043  27.110  15.890   4.133 -0.1538  0.1673 -0.0347
34132W        W77044  27.435  17.997   1.953  0.2429  0.0123 -0.0831
34133W        W77045  26.706  16.056   0.040 -0.0191 -0.1662 -0.2647
34134W        W77046  24.667  14.309   0.907  0.0776  0.2887  0.1710
34135W        W77047  28.480  16.458   1.425 -0.0461  0.2853 -0.1783
34136W        W77048  25.645  18.958  31.888  0.2013  0.0412 -0.1305
34137W        W77049  26.155  16.452   2.975  0.0197  0.1302  0.1014
34138W        W77050  25.414  16.645   0.345  0.0289  0.1958 -0.2165
34139W        W77051  27.256  17.744   1.085 -0.1815 -0.2788  0.1536
34140W        W77052  26.641  15.115   4.552  0.0285 -0.0299  0.1431
34141W        W77053  27.133  15.468   3.264  0.1510 -0.0017  0.1287
34142W        W77054  27.547  17.833  31.658  0.0195  0.0774  0.1536
34143W        W77055  24.750  16.304  31.703  0.0021 -0.1373 -0.1193
34144W        W77056  25.547  15.966   1.584 -0.2968  0.1140 -0.1490
34145W        W77057  25.619  16.948   3.334 -0.1767 -0.3336  0.1242
34146W        W77058  26.238  15.161   3.244  0.4154  0.1090  0.0402
34147W        W77059  28.029  16.320   1.760  0.1406  0.0955 -0.1479
34148W        W77060  27.553  17.829   2.410  0.2606 -0.2398  0.1573
34149W        W77061  28.375  18.567   1.256  0.2385  0.0663  0.2372
34150W        W77062  29.783  16.850   4.891  0.1452  0.2598 -0.2318
34151W        W77063  26.820  16.470   1.046 -0.0859  0.1736 -0.0903
34152W        W77064  25.819  17.774   0.544 -0.0011 -0.0585 -0.1989
34153W        W77065  27.373  18.648  31.341 -0.1736  0.0204 -0.2415
34154W        W77066  29.472  17.101  31.527 -0.0918 -0.2449  0.0697
34155W        W77067  28.930  17.230   4.147  0.1545 -0.2989  0.3693
34156W        W77068  27.350  17.431   3.621  0.1998 -0.1037 -0.3805
34157W        W77069  27.346  17.411  31.577  0.0034 -0.2079 -0.2179
34158W        W77070  28.674  18.195   3.090 -0.0528 -0.0555  0.1451
34159W        W77071  26.255  17.278   2.718  0.2142  0.0837 -0.0194
34160W        W77072  25.937  17.027   2.008 -0.0099 -0.3935  0.3902
34161W        W77073  26.645  16.009   0.590  0.0149  0.0639 -0.0353
34162W        W77074  26.083  18.085  31.872  0.0131  0.2900 -0.1768
34163W        W77075  27.732  17.388   0.217  0.1619  0.1965  0.0239
34164W        W77076  26.606  15.980   4.311  0.0038 -0.2245  0.1059
34165W        W77077  24.876  18.666   0.012  0.2654 -0.1635 -0.0335
34166W        W77078  30.776  16.975   3.225 -0.2310 -0.3088 -0.2755
34167W        W77079  27.021  17.618  31.283 -0.1879 -0.0507  0.1613
34168W        W77080  27.073  15.598  30.793 -0.1286 -0.2192 -0.1211
34169W        W77081  26.338  14.328  31.945  0.1400 -0.0483 -0.2398
34170W        W77082  29.844  17.306   1.015 -0.0058 -0.1219 -0.2513
34171W        W77083  26.467  16.129   1.610  0.1045 -0.0817  0.2258
34172W        W77084  27.236  17.481   2.689 -0.2899 -0.0916 -0.3899
34173W        W77085  25.728  16.044   2.957 -0.1483  0.1801  0.0315
34174W        W77086  28.545  16.575   1.930  0.1506 -0.3280 -0.0568
34175W        W77087  25.268  16.235   0.609  0.0018 -0.0580 -0.0595
34176W        W77088  27.999  16.985   2.595 -0.0220  0.3150  0.1224
34177W        W77089  25.533  17.919   1.603 -0.0768  0.1115  0.1179
34178W        W77090  25.394  16.928   1.772  0.1956  0.3737 -0.1245
34179W        W77091  28.455  19.511   0.113  0.1361  0.2262 -0.2082
34180W        W77092  29.834  17.704   1.864  0.3254 -0.3464  0.1206
34181W        W77093  28.255  17.573   0.938 -0.0871  0.0452  0.1844
34182W        W77094  25.030  15.885   0.358  0.0446 -0.0972  0.0197
34183W        W77095  25.296  15.581   2.973  0.1693  0.1106 -0.2552
34184W        W77096  23.979  16.237   3.066 -0.4124  0.2783 -0.0602
34185W        W77097  26.691  13.802  30.968  0.1376  0.2045 -0.2682
34186W        W77098  30.122  17.103   4.484 -0.2081 -0.2867 -0.0571
34187W        W77099  25.339  16.535   3.452 -0.0087  0.3169 -0.0514
34188W        W77100  28.763  16.034   1.345 -0.0050  0.1138 -0.0981
34189W        W77101  27.564  17.040   2.800 -0.0138 -0.0578 -0.0428
34190W        W77102  28.174  17.390   2.210 -0.1232  0.1370  0.0131
34191W        W77103  30.153  16.660  31.158  0.1864 -0.4203 -0.1305
34192W        W77104  28.445  15.868   2.505  0.2100  0.0726  0.1586
34193W        W77105  27.723  15.328   3.491  0.2611 -0.0380  0.0270
34194W        W77106  26.120  17.233  31.182  0.2596  0.0146 -0.0672
34195W        W77107  26.696  17.378   0.224 -0.0519 -0.2604 -0.2911
34196W        W77108  28.899  16.230   3.356 -0.0769  0.0812  0.0756
34197W        W77109  30.077  16.217  31.481 -0.1251  0.0481 -0.2585
34198W        W77110  26.281  17.386   1.858 -0.0756  0.0660 -0.2648
34199W        W77111  27.859  14.899   3.222  0.0933 -0.0339  0.0572
34200W        W77112  26.878  18.116   2.832  0.1064 -0.0359  0.1393
34201W        W77113  27.273  18.059  31.170  0.0770 -0.1757  0.0609
34202W        W77114  25.970  16.695   1.658  0.0623  0.0107  0.0206
34203W        W77115  26.935  16.274  31.500  0.0425 -0.2584  0.1295
34204W        W77116  25.072  15.736   2.046 -0.1034  0.0007  0.2362
34205W        W77117  26.413  16.543   1.349  0.1320 -0.1926  0.0074
34206W        W77118  28.481  15.014   1.299  0.1989  0.4691  0.0193
34207W        W77119  24.953  14.929   3.666 -0.3877 -0.0615  0.0302
34208W        W77120  29.689  14.415   3.029  0.1025 -0.1185 -0.1023
34209W        W77121  25.185  18.273  31.747 -0.1068  0.1768  0.0274
34210W        W77122  28.752  17.616   0.776  0.1825 -0.1509 -0.2201
34211W        W77123  28.359  16.207  31.432 -0.1485  0.3317  0.0472
34212W        W77124  28.008  18.178  30.750  0.1044  0.3966  0.1623
34213W        W77125  27.072  16.670   2.988  0.0812  0.0736 -0.2145
34214W        W77126  25.333  15.355   0.221 -0.1374 -0.1617 -0.2217
34215W        W77127  26.331  16.079   3.284  0.1586 -0.1642 -0.0219
34216W        W77128  25.618  14.803   1.050  0.4086 -0.2505 -0.2398
34217W        W77129  28.722  16.230   0.893 -0.0055  0.1845  0.2333
34218W        W77130  24.502  15.662   0.624  0.2239 -0.0478  0.0497
34219W        W77131  28.464  15.986   1.746  0.3978 -0.2053 -0.1245
34220W        W77132  25.422  15.713   0.666 -0.2778  0.0067  0.0631
34221W        W77133  25.309  17.091   0.351  0.0412 -0.1505  0.2804
34222W        W77134  27.940  15.540   4.432  0.3433  0.0545 -0.2311
34223W        W77135  26.992  18.585   1.433  0.1128 -0.0390 -0.3311
34224W        W77136  29.994  17.487   4.179 -0.2366  0.1202 -0.0301
34225W        W77137  28.839  18.833   1.253 -0.2150 -0.2244 -0.1588
34226W        W77138  26.753  14.256   5.046 -0.0448 -0.1732 -0.2849
34227W        W77139  24.239  15.457   0.068  0.1916  0.3060 -0.1723
34228W        W77140  26.782  19.113   2.662  0.4813 -0.2850 -0.1610
34229W        W77141  26.531  17.557   0.712 -0.1307  0.0642 -0.2673
34230W        W77142  26.687  14.676   0.962 -0.3511  0.1184 -0.1894
34231W        W77143  29.212  17.416   2.192 -0.2034  0.2313 -0.2988
34232W        W77144  26.395  17.692   1.487  0.0383  0.1991 -0.3182
34233W        W77145  25.836  17.760   2.690  0.1206 -0.2634 -0.1926
34234W        W77146  26.311  15.602   3.562 -0.3520 -0.0780 -0.0631
34235W        W77147  29.395  16.920   2.231  0.1414  0.0113  0.0866
34236W        W77148  27.288  15.922   1.684  0.1063  0.0861  0.0253
34237W        W77149  24.990  14.694   0.244  0.2369 -0.2144  0.0537
34238W        W77150  28.730  17.775   1.499 -0.2617 -0.0038  0.1300
34239W        W77151  26.953  18.455   0.181 -0.1377  0.2945  0.1303
34240W        W77152  25.152  16.947   1.303 -0.1247 -0.1620  0.0193
34241W        W77153  26.722  16.991   1.214  0.4903 -0.3165  0.2011
34242W        W77154  27.705  16.030   1.973  0.2094  0.1199  0.1106
34243W        W77155  25.070  16.773   2.241  0.0876  0.1745  0.1374
34244W        W77156  28.727  17.355   3.019 -0.5018 -0.1505 -0.1487
34245W        W77157  24.411  15.188   1.504 -0.3302  0.0608  0.0079
34246W        W77158  26.038  16.920   3.059 -0.0828 -0.1180  0.0248
34247W        W77159  26.999  15.209   2.848 -0.2462 -0.1055  0.0425
34248W        W77160  26.716  15.497   0.558  0.0664  0.1320  0.1158
34249W        W77161  27.870  16.783   2.009 -0.0867 -0.2300  0.0358
34250W        W77162  28.349  16.461   0.563  0.2572  0.1232  0.0285
34251W        W77163  26.118  15.496   0.724  0.0706  0.0356 -0.1125
34252W        W77164  29.034  15.805   1.017  0.0555 -0.3687  0.0798
34253W        W77165  25.617  17.496   4.637 -0.1928 -0.1341 -0.0516
34254W        W77166  28.499  17.830  31.362 -0.0780 -0.1595  0.1340
34255W        W77167  27.593  17.968   1.429 -0.3961 -0.1942 -0.0307
34256W        W77168  26.848  15.935   1.926 -0.1645  0.0556  0.1135
34257W        W77169  27.822  16.844   0.221  0.1737 -0.1971  0.0476
34258W        W77170  24.619  16.915   1.473  0.2183 -0.1334  0.0963
34259W        W77171  27.532  16.588   4.619  0.0575  0.1043 -0.1787
34260W        W77172  28.447  15.806   0.851 -0.2867 -0.0408  0.0518
34261W        W77173  27.197  15.202   2.389 -0.0261 -0.3157 -0.2996
34262W        W77174  25.943  15.056   0.514  0.0309  0.1109  0.3758
34263W        W77175  26.717  16.422   2.016  0.4424  0.1564  0.1430
34264W        W77176  25.256  18.850  31.630 -0.2114 -0.0301  0.0025
34265W        W77177  29.300  15.521   2.810  0.2889  0.0846 -0.1256
34266W        W77178  26.476  17.209   3.268  0.0294  0.2363 -0.2520
34267W        W77179  25.515  16.553   1.327  0.2722  0.0212 -0.1471
34268W        W77180  28.455  15.912   3.090 -0.0723 -0.1914  0.0815
34269W        W77181  28.437  14.753  31.975  0.0906  0.2789  0.0410
34270W        W77182  27.215  16.261   1.303 -0.2232 -0.2034  0.0167
34271W        W77183  24.632  15.251   0.859 -0.0275 -0.0925 -0.2320
34272W        W77184  27.210  15.013   3.650  0.1012  0.0873 -0.0671
34273W        W77185  26.082  16.577   2.105 -0.0797 -0.2430  0.0180
34274W        W77186  26.670  18.556   2.836  0.0219 -0.2200  0.0629
34275W        W77187  27.532  16.523   5.218  0.0384  0.1007 -0.4950
34276W        W77188  29.259  15.974   1.439 -0.1471 -0.0973  0.0848
34277W        W77189  26.916  14.549   3.458  0.0681  0.0206  0.0361
34278W        W77190  27.423  15.456  31.808 -0.3379  0.1380 -0.0939
34279W        W77191  25.530  18.095   0.110  0.0944 -0.1593  0.1144
34280W        W77192  25.972  18.315  31.297 -0.2047 -0.0628 -0.2789
34281W        W77193  26.280  16.058   2.214  0.1633  0.0857  0.2207
34282W        W77194  27.749  17.448   2.698  0.1670 -0.2249  0.4056
34283W        W77195  26.330  16.723  31.301  0.2479 -0.1929  0.0429
34284W        W77196  28.468  17.041   3.864 -0.1631  0.2759 -0.2688
34285W        W77197  27.532  16.498  31.870  0.1779  0.0742 -0.2943
34286W        W77198  27.661  15.845   2.476  0.1464 -0.1422 -0.0229
34287W        W77199  25.247  17.579   1.934  0.2557  0.0801  0.0257
34288W        W77200  25.114  16.480   1.015 -0.0358 -0.2246 -0.2131
34289W        W77201  24.911  17.451   1.148  0.2660 -0.0062 -0.3202
34290W        W77202  27.905  16.605   2.879  0.1505  0.1217 -0.2043
34291W        W77203  29.316  15.746  31.750 -0.3165 -0.0229 -0.1001
34292W        W77204  26.185  15.962   4.004  0.0934 -0.1544 -0.0471
34293W        W77205  26.352  15.544   1.764  0.0031 -0.3751 -0.3731
34294W        W77206  26.028  18.875   1.649 -0.0344  0.0835 -0.0803
34295W        W77207  27.672  17.386   2.201  0.1544 -0.1657  0.0697
34296W        W77208  29.261  15.553  31.169  0.0466 -0.0328  0.0284
34297W        W77209  28.413  17.370   1.488 -0.2863 -0.0477 -0.1002
34298W        W77210  26.272  16.892   5.154  0.0723  0.0953 -0.2003
34299W        W77211  25.559  14.856   0.240 -0.3049 -0.1021 -0.0874
34300W        W77212  28.775  15.478   3.267  0.1800  0.0398  0.1879
34301W        W77213  25.589  15.284   0.832 -0.0865  0.1963  0.0451
34302W        W77214  25.766  17.224   0.961 -0.0263 -0.4909  0.0936
34303W        W77215  27.981  18.391   1.561 -0.1712 -0.2505  0.0139
34304W        W77216  25.384  17.476   1.362 -0.0613  0.3809  0.0656
34305W        W77217  26.213  17.090   1.360 -0.2154 -0.1098  0.3268
34306W        W77218  27.073  14.677   4.957  0.0857  0.1089 -0.0130
34307W        W77219  28.058  17.346   4.013 -0.0143  0.0812 -0.2947
34308W        W77220  26.930  16.830   3.507  0.0870  0.1733 -0.1574
34309W        W77221  25.466  16.071   1.069 -0.0314  0.0806 -0.1954
34310W        W77222  27.692  16.175   0.375  0.0953  0.1215  0.0719
34311W        W77223  27.273  17.054   2.391  0.1003 -0.0092  0.0740
34312W        W77224  26.280  16.691   3.393 -0.3027 -0.0067 -0.1697
34313W        W77225  24.828  16.147   3.474 -0.1236 -0.2863 -0.0386
34314W        W77226  25.910  15.268   2.497  0.1785 -0.1240  0.0450
34315W        W77227  31.059  17.611   2.261  0.2555  0.0734 -0.0827
34316W        W77228  28.287  16.523   2.550 -0.0200  0.1351 -0.2016
34317W        W77229  26.424  16.522   0.117  0.0603  0.1130  0.1272
34318W        W77230  24.445  17.118   0.999  0.0762 -0.0618 -0.2659
34319W        W77231  26.229  17.867   0.317  0.1099 -0.1042  0.1787
34320W        W77232  26.747  14.682   1.550  0.1187  0.1944 -0.2186
34321W        W77233  25.555  16.672   2.194 -0.3754 -0.3207 -0.1047
34322W        W77234  27.504  17.722   0.582 -0.0425  0.0898  0.0983
34323W        W77235  25.669  16.653   2.890 -0.0014 -0.2618  0.1331
34324W        W77236  28.398  16.101   0.046  0.0127  0.0874 -0.1107
34325W        W77237  27.653  16.962  31.263  0.3207 -0.0329  0.0883
34326W        W77238  27.708  16.035   1.309  0.0609  0.0822  0.1325
34327W        W77239  30.519  16.341   4.022  0.2384  0.4211  0.0749
34328W        W77240  27.796  15.939  31.174 -0.0019  0.1015 -0.2460
34329W        W77241  27.981  14.104   3.939 -0.0073 -0.3966 -0.0816
34330W        W77242  27.473  16.467   0.972  0.1476  0.0196 -0.1269
34331W        W77243  27.964  17.187   1.709 -0.1597 -0.4132  0.1549
34332W        W77244  25.426  15.360   2.294  0.1853 -0.2532 -0.2391
34333W        W77245  27.688  18.463   4.194 -0.1137 -0.1837  0.0864
34334W        W77246  25.741  17.204   2.721 -0.0478  0.2468  0.2274
34335W        W77247  27.231  16.135   2.392 -0.1392  0.0715 -0.0645
34336W        W77248  25.974  15.088  31.446  0.2494 -0.0182 -0.0141
34337W        W77249  26.392  17.650   2.243  0.0665  0.2163 -0.3129
34338W        W77250  29.682  16.908   0.842 -0.0149  0.1375 -0.0787
34339W        W77251  26.839  17.487   1.158  0.2394  0.1506  0.0374
34340W        W77252  28.919  16.779   2.169  0.1058 -0.0773 -0.2294
34341W        W77253  25.573  14.932   1.972  0.1635 -0.2832 -0.1078
34342W        W77254  26.824  16.476   0.515  0.1749 -0.5199 -0.3596
34343W        W77255  27.377  16.548   0.374 -0.0395  0.4328 -0.1472
34344W        W77256  24.913  17.369   0.576  0.2603 -0.0972  0.3403
34345W        W77257  25.689  14.804   3.139  0.1771  0.1766 -0.1471
34346W        W77258  28.734  16.331   2.371  0.0336 -0.0126 -0.0757
34347W        W77259  27.641  16.477   2.453 -0.0476 -0.0823  0.0244
34348W        W77260  28.093  16.123   2.846 -0.1884 -0.3348 -0.4297
34349W        W77261  29.036  16.293   4.403  0.0018 -0.2927 -0.0400
34350W        W77262  26.866  15.351   3.687  0.1477 -0.0101  0.1597
34351W        W77263  26.124  15.478   4.049 -0.4912  0.0107  0.3781
34352W        W77264  28.124  17.117   1.152  0.0226 -0.3699 -0.0344
34353W        W77265  28.735  16.332  31.666  0.0891  0.0166  0.2634
34354W        W77266  28.987  14.986   1.368  0.1849  0.4562 -0.0463
34355W        W77267  28.872  18.282   1.315 -0.2809 -0.1799 -0.2128
34356W        W77268  28.028  15.168  31.877  0.2449  0.5126  0.0761
34357W        W77269  25.268  15.125   3.285  0.2120 -0.1703  0.3801
34358W        W77270  25.676  16.832  31.945  0.1434 -0.2146  0.0970
34359W        W77271  28.065  14.963   3.657 -0.0434 -0.3704  0.1324
34360W        W77272  27.366  19.177  30.559  0.1459 -0.5793  0.1237
34361W        W77273  28.156  17.020   0.644  0.1433  0.2899 -0.0931
34362W        W77274  27.190  15.384   0.786 -0.1597 -0.0835 -0.0502
34363W        W77275  24.457  16.431   2.250 -0.2638  0.2155  0.1981
34364W        W77276  27.439  16.967   3.275 -0.1667 -0.1348  0.0836
34365W        W77277  28.112  16.048   0.548 -0.4136 -0.0951  0.1449
34366W        W77278  25.301  14.954   0.649 -0.1135  0.0161 -0.0857
34367W        W77279  28.829  17.363   1.844 -0.3661  0.3807  0.0222
34368W        W77280  28.268  16.936   3.441 -0.1231 -0.1525  0.2936
34369W        W77281  27.270  14.639   1.052  0.3101  0.0176  0.0283
34370W        W77282  28.883  16.897   3.076  0.2754 -0.3473 -0.2337
34371W        W77283  24.170  19.413   1.736 -0.0574  0.2253  0.3355
34372W        W77284  27.624  15.563   1.241  0.0232 -0.2602  0.3613
34373W        W77285  25.333  18.005   2.714  0.0451  0.2068 -0.1019
34374W        W77286  25.452  17.174   2.188  0.1527  0.0213 -0.1825
34375W        W77287  26.961  18.165   1.905  0.0318  0.0062 -0.1022
34376W        W77288  26.439  16.474   2.562 -0.0876  0.0278 -0.1309
34377W        W77289  27.748  15.776   3.073  0.1711  0.1191  0.0728
34378W        W77290  27.687  17.403   1.223 -0.3491 -0.0531  0.0304
34379W        W77291  29.102  17.136   2.606 -0.1437 -0.0283 -0.1180
34380W        W77292  28.357  17.779   1.983 -0.0214 -0.2125 -0.4995
34381W        W77293  25.527  15.998   2.073  0.4513  0.4096  0.2156
34382W        W77294  28.450  17.009   2.080  0.1139  0.2146 -0.3601
34383W        W77295  30.065  17.606   0.700 -0.1198  0.4547  0.0051
34384W        W77296  26.759  17.034   2.681  0.5137 -0.1362  0.1294
34385W        W77297  25.864  14.956   3.900  0.2040 -0.1802  0.5983
34386W        W77298  27.772  17.000   4.322 -0.1732  0.0033 -0.0070
34387W        W77299  27.500  17.527   1.672  0.0892 -0.0106  0.0907
34388W        W77300  26.447  15.561   1.179 -0.2080 -0.1307  0.1838
34389W        W77301  27.208  17.523   0.103  0.0170  0.0119  0.0908
34390W        W77302  26.292  17.477   3.837 -0.1260 -0.0364  0.0209
34391W        W77303  25.329  17.346   3.041 -0.2507  0.0315 -0.1224
34392W        W77304  25.881  18.274   0.421  0.2148  0.1497  0.1097
34393W        W77305  27.818  15.531  31.508 -0.3881  0.3505  0.2410
34394W        W77306  27.185  16.084   0.625  0.1209  0.1098  0.1086
34395W        W77307  28.650  18.589   1.678 -0.1467  0.2645 -0.3224
34396W        W77308  26.387  14.807   0.487 -0.1800  0.0224  0.2231
34397W        W77309  25.742  18.349   0.928  0.0226  0.6583 -0.0581
34398W        W77310  24.829  19.772   0.939 -0.0360 -0.1186  0.0118
34399W        W77311  27.311  17.268   0.849  0.2483  0.0047  0.5445
34400W        W77312  25.996  17.885   1.779 -0.1492 -0.0678 -0.0881
34401W        W77313  27.988  17.892   3.082 -0.0893 -0.1092  0.2215
34402W        W77314  27.921  15.124   0.995 -0.1076  0.2050  0.0842
34403W        W77315  28.988  16.423   1.559  0.0928 -0.1947  0.5127
34404W        W77316  28.331  15.343   0.825 -0.1439 -0.1239 -0.0268
34405W        W77317  28.572  17.923   2.527 -0.0933  0.4434 -0.0164
34406W        W77318  26.678  17.542   2.779  0.0767  0.0359 -0.0734
34407W        W77319  25.537  15.910  31.316 -0.3137 -0.0120 -0.1890
34408W        W77320  25.311  16.955   2.627 -0.0672 -0.2310  0.0855
34409W        W77321  31.198  14.829   3.042  0.0417  0.1675 -0.1000
34410W        W77322  27.250  17.076   3.967  0.0975  0.3131 -0.2158
34411W        W77323  29.079  17.643   0.203 -0.1668 -0.1655  0.2224
34412W        W77324  26.201  15.524  31.846 -0.1706 -0.1368 -0.0340
34413W        W77325  26.485  16.912   1.772 -0.1202  0.1873  0.1234
34414W        W77326  29.270  15.210   3.153  0.0402  0.2167 -0.0711
34415W        W77327  27.659  16.543  30.507  0.0571  0.0475 -0.1564
34416W        W77328  26.790  15.368   1.619  0.0674  0.1186  0.0363
34417W        W77329  26.223  18.169   0.835  0.5910  0.2468  0.0705
34418W        W77330  28.319  18.268   2.154  0.2408 -0.3116 -0.0924
34419W        W77331  27.468  16.444   3.208 -0.0316 -0.3159  0.0090
34420W        W77332  26.959  14.178   0.831  0.3212 -0.2571 -0.3388
34421W        W77333  28.896  16.009   2.006 -0.3436 -0.1478 -0.0511
34422W        W77334  26.050  16.797   2.565  0.0520  0.1964 -0.1981
34423W        W77335  28.694  16.063   4.653 -0.2076 -0.2195 -0.0441
34424W        W77336  26.963  17.196   3.130 -0.0675  0.0697 -0.0173
34425W        W77337  29.527  16.485   1.418 -0.1232 -0.2328  0.1180
34426W        W77338  26.837  17.257   1.678  0.2086  0.0755 -0.2118
34427W        W77339  26.747  16.100   2.415  0.0784 -0.2842 -0.0206
34428W        W77340  26.458  16.949   0.371 -0.1435  0.2445 -0.1308
34429W        W77341  29.240  16.778   4.317  0.0723  0.0653 -0.1231
34430W        W77342  28.098  15.634   1.177 -0.1209  0.0524  0.1002
34431W        W77343  28.306  17.469   2.688  0.2285 -0.1571  0.2628
34432W        W77344  24.998  16.259   2.169  0.0857  0.0979  0.1370
34433W        W77345  26.898  15.120   1.075  0.1226 -0.0289 -0.3158
34434W        W77346  25.690  17.881   1.129  0.0725  0.2098 -0.2431
34435W        W77347  27.380  15.937   3.386  0.1010  0.1821  0.0168
34436W        W77348  28.884  17.158   3.533 -0.0004  0.0913  0.1020
34437W        W77349  25.398  15.520   1.148 -0.2840  0.1729  0.0685
34438W        W77350  28.541  16.781   0.278 -0.0924 -0.0436  0.2405
34439W        W77351  29.167  16.389   3.915 -0.1189 -0.2887 -0.0197
34440W        W77352  24.837  19.393  31.603 -0.1544  0.0978 -0.0039
34441W        W77353  27.351  17.077   1.882 -0.0406 -0.1922 -0.1008
34442W        W77354  29.733  18.109   3.167 -0.0854  0.1402  0.4329
34443W        W77355  24.940  16.061   1.317 -0.0737 -0.0986 -0.1180
34444W        W77356  29.289  17.720   1.724 -0.0438  0.2407 -0.1933
34445W        W77357  29.029  18.116   0.639 -0.0697 -0.1214  0.1335
34446W        W77358  27.572  14.929   2.091  0.2336 -0.2220 -0.0749
34447W        W77359  26.033  15.954   1.775  0.2431  0.0894 -0.0799
34448W        W77360  27.139  17.481   2.067  0.2932  0.5814 -0.2227
34449W        W77361  28.786  16.895   1.530  0.1528  0.2071 -0.4992
34450W        W77362  27.553  16.150   2.875 -0.0189  0.1819 -0.0769
34451W        W77363  27.024  18.941   0.097 -0.1252  0.1191  0.0431
34452W        W77364  27.471  14.819   2.675 -0.1329  0.1124  0.0581
34453W        W77365  28.213  17.758   3.665 -0.0935  0.0085 -0.2170
34454W        W77366  26.809  17.281   3.595  0.0558  0.2070 -0.2147
34455W        W77367  25.288  17.942  29.925  0.1835 -0.1731 -0.0882
34456W        W77368  25.748  18.272   2.551 -0.0918  0.1456 -0.1650
34457W        W77369  28.791  16.699   0.674 -0.0206 -0.1296 -0.1443
34458W        W77370  26.815  17.704  31.840 -0.0388  0.3247  0.0349
34459W        W77371  29.043  17.648   2.629 -0.1519  0.0411  0.0411
34460W        W77372  25.951  16.314   1.267  0.1744 -0.3879 -0.0122
34461W        W77373  29.461  18.105   0.407 -0.0405 -0.1135 -0.0477
34462W        W77374  25.544  14.503   0.693  0.1897 -0.2782  0.1997
34463W        W77375  28.694  16.421   2.858 -0.1890  0.1574 -0.1212
34464W        W77376  28.962  15.562   1.596 -0.1050  0.0757  0.2186
34465W        W77377  23.964  16.390   3.822  0.1489  0.2221  0.0398
34466W        W77378  25.072  16.831   0.009 -0.0402  0.4350 -0.1074
34467W        W77379  26.257  18.755  31.220  0.2146  0.2802  0.0916
34468W        W77380  25.928  17.492   1.378 -0.0216  0.2852  0.0670
34469W        W77381  27.604  14.787   3.616  0.2372  0.3274  0.3531
34470W        W77382  24.820  15.655   2.611 -0.1684 -0.3279 -0.0665
34471W        W77383  26.088  18.050   1.298 -0.0583  0.4038  0.3707
34472W        W77384  26.375  15.144   0.876  0.4420  0.1529 -0.1150
34473W        W77385  29.215  16.380  31.875 -0.0983  0.1288 -0.1598
34474W        W77386  26.519  15.028   1.922 -0.1761  0.0369 -0.1313
34475W        W77387  23.381  15.459   1.049 -0.2292 -0.1395 -0.0314
34476W        W77388  27.922  15.636   0.164  0.2458 -0.3250 -0.0451
34477W        W77389  28.465  18.993   1.000 -0.1751  0.1370  0.1447
34478W        W77390  28.779  15.438   0.568  0.1375 -0.2993  0.1474
34479W        W77391  29.526  17.624   3.368  0.0591  0.1663 -0.1174
34480W        W77392  25.361  17.441   0.805 -0.0275  0.1027 -0.0779
34481W        W77393  27.893  16.498   4.207 -0.0454  0.0275 -0.0152
34482W        W77394  26.364  15.099   3.696  0.1450 -0.2575 -0.1816
34483W        W77395  24.155  14.947   1.036 -0.2108 -0.1569 -0.0839
34484W        W77396  26.997  16.742   1.527 -0.0742 -0.0613 -0.1790
34485W        W77397  28.169  17.150  31.986  0.1723 -0.2582  0.1031
34486W        W77398  27.830  17.444   0.772  0.0670 -0.1839  0.0398
34487W        W77399  27.869  16.655   3.381  0.0267 -0.0734  0.1749
34488W        W77400  27.554  18.796   2.348 -0.3420 -0.3591 -0.1922
34489W        W77401  24.073  14.359   2.780 -0.0784  0.3738  0.1480
34490W        W77402  28.146  16.524   0.019  0.2770 -0.1326 -0.0045
34491W        W77403  27.401  16.635   3.688 -0.0895 -0.1580  0.2829
34492W        W77404  28.425  18.048   1.133  0.0350  0.1608  0.0143
34493W        W77405  31.278  14.801   2.404  0.1334 -0.0581 -0.3514
34494W        W77406  27.184  17.254   1.354  0.0010  0.0204  0.2704
34495W        W77407  25.401  15.476   1.835 -0.1051 -0.0494 -0.3063
34496W        W77408  27.946  17.061   3.111 -0.1290  0.2333 -0.0581
34497W        W77409  29.815  17.338   3.105 -0.2101  0.0109 -0.0272
34498W        W77410  26.082  14.705   0.886 -0.0063 -0.0012 -0.1311
34499W        W77411  28.430  15.532   1.529 -0.0013 -0.0133 -0.0280
34500W        W77412  27.563  16.967   1.452 -0.1498  0.0132  0.0038
34501W        W77413  25.729  15.665   2.628 -0.0770 -0.2677 -0.1973
34502W        W77414  26.108  16.730  31.765  0.1588 -0.1169 -0.0257
34503W        W77415  27.956  16.186   3.314 -0.2992 -0.1418 -0.0005
34504W        W77416  25.722  17.487   1.831  0.0855 -0.1842 -0.2545
34505W        W77417  27.818  15.765   3.616  0.1058 -0.0761 -0.0041
34506W        W77418  27.652  16.034   0.834 -0.0424  0.2886 -0.0236
34507W        W77419  27.833  16.529  31.424  0.1477  0.4976 -0.1021
34508W        W77420  28.130  17.791   1.393 -0.1340 -0.0174 -0.2910
34509W        W77421  28.730  18.639   3.416  0.3093  0.0628  0.0963
34510W        W77422  28.613  18.519   2.607  0.2045 -0.0201  0.3641
34511W        W77423  28.288  16.886   1.576 -0.1686 -0.1218  0.1360
34512W        W77424  26.133  14.155   1.641  0.2343  0.2276  0.1810
34513W        W77425  26.267  17.688  30.960  0.0746 -0.1371 -0.2101
34514W        W77426  27.862  16.545   0.653  0.1044  0.0641 -0.0615
34515W        W77427  28.369  16.477   3.181  0.2238  0.0462 -0.1239
34516W        W77428  25.011  16.574   1.575 -0.1508  0.2276 -0.0586
34517W        W77429  28.106  16.205   1.089 -0.1407  0.0900  0.1167
34518W        W77430  27.484  19.503   1.709 -0.0340 -0.0053  0.1877
34519W        W77431  26.809  15.868   1.062  0.2091 -0.3138 -0.0097
34520W        W77432  27.151  18.874   6.946  0.0950  0.0232  0.0277
34521W        W77433  26.722  14.078   4.558  0.0656 -0.1945 -0.5488
34522W        W77434  28.526  15.199   4.136  0.1559  0.1728  0.0408
34523W        W77435  28.698  16.986   5.797  0.0959 -0.0731  0.1596
34524W        W77436  28.056  15.502   5.777  0.0375  0.1851 -0.1750
34525W        W77437  28.391  17.757   5.142  0.2337  0.1718 -0.3129
34526W        W77438  26.417  15.361   8.245 -0.0644 -0.2263 -0.2370
34527W        W77439  27.328  16.360   5.691 -0.0303 -0.0186 -0.0876
34528W        W77440  29.514  17.898   5.997 -0.2945  0.1694 -0.0938
34529W        W77441  28.638  16.562   4.546  0.0838 -0.1036 -0.0532
34530W        W77442  27.675  15.450   6.660  0.0247 -0.3829  0.0412
34531W        W77443  27.075  17.060   7.427 -0.3673 -0.1844  0.4262
34532W        W77444  27.696  14.312   4.343  0.0818  0.0560  0.1520
34533W        W77445  27.910  13.346   7.717  0.1702 -0.1882 -0.2652
34534W        W77446  28.419  16.681   6.924 -0.1191  0.1203  0.2069
34535W        W77447  26.753  16.548   3.989  0.0568  0.1039  0.3018
34536W        W77448  26.630  16.211   6.302 -0.0295 -0.1739 -0.0890
34537W        W77449  26.744  15.908   4.944  0.0429  0.0358 -0.1945
34538W        W77450  26.730  17.838   4.712 -0.1382 -0.1793  0.0740
34539W        W77451  27.435  14.995   6.685 -0.4063  0.0073  0.1597
34540W        W77452  27.713  14.228   7.840 -0.0682  0.1377 -0.3790
34541W        W77453  27.296  17.022   4.929 -0.0148  0.1031 -0.0234
34542W        W77454  24.804  14.556   2.999  0.0429  0.0108  0.0160
34543W        W77455  26.560  16.420   5.071 -0.1920 -0.0488 -0.0177
34544W        W77456  27.492  15.747   7.340  0.3268 -0.0930  0.1919
34545W        W77457  27.123  15.520   6.644  0.2376  0.0574 -0.2749
34546W        W77458  28.514  15.882   5.979  0.0669  0.2295  0.0909
34547W        W77459  26.206  17.594   4.623  0.0462 -0.1311  0.2536
34548W        W77460  27.933  18.540   6.272  0.0413  0.1705  0.2720
34549W        W77461  28.554  16.066   8.317 -0.1320 -0.1330 -0.1628
34550W        W77462  26.532  15.997   5.423  0.2084  0.2923 -0.0027
34551W        W77463  25.411  17.591   5.085 -0.0271  0.1647  0.1478
34552W        W77464  26.890  17.664   5.590 -0.1649  0.2546 -0.2856
34553W        W77465  28.955  17.532   5.594 -0.0216  0.2064  0.1161
34554W        W77466  29.362  19.305   5.840  0.0455  0.1746 -0.1442
34555W        W77467  27.769  18.192   7.249  0.3168  0.1816  0.0146
34556W        W77468  28.247  17.477   3.178 -0.1162  0.1729 -0.1516
34557W        W77469  26.757  17.829   7.428  0.0601 -0.1821 -0.0361
34558W        W77470  27.167  17.642   7.730 -0.0496 -0.0909  0.1112
34559W        W77471  27.648  17.363   6.153  0.1772  0.0323 -0.2831
34560W        W77472  27.618  18.630   7.891 -0.0793 -0.0367  0.0820
34561W        W77473  27.602  16.208   3.768 -0.1731 -0.1763 -0.1912
34562W        W77474  27.150  16.764   5.412  0.1914  0.2230 -0.1062
34563W        W77475  27.762  15.851   8.921  0.0938  0.1912  0.2413
34564W        W77476  26.658  17.164   5.547  0.0618  0.0841  0.1075
34565W        W77477  29.216  15.765   8.024 -0.3197  0.2533 -0.2931
34566W        W77478  25.029  18.094   3.179  0.2351  0.2060 -0.1816
34567W        W77479  28.654  15.880   5.143  0.2137  0.0718 -0.3021
34568W        W77480  26.882  15.939   3.326 -0.1229 -0.1253  0.0945
34569W        W77481  28.143  16.665   4.671  0.0863 -0.0389  0.1197
34570W        W77482  28.765  15.299   5.833  0.3435  0.2094 -0.0715
34571W        W77483  25.749  18.036   4.688  0.0527 -0.3126  0.1817
34572W        W77484  26.713  13.508   6.831 -0.0449 -0.1153  0.0983
34573W        W77485  28.101  17.915   6.975  0.0032 -0.0852  0.0301
34574W        W77486  27.623  16.130   4.432  0.0170 -0.1057 -0.3344
34575W        W77487  28.288  16.581   6.342 -0.0346  0.1267 -0.2861
34576W        W77488  25.289  17.892   6.354  0.0005  0.0741 -0.0629
34577W        W77489  27.016  16.178   5.381  0.0414  0.3092 -0.0605
34578W        W77490  28.073  17.804   4.241 -0.0969  0.0647  0.2085
34579W        W77491  29.334  18.360   5.760  0.1293 -0.0339  0.1493
34580W        W77492  29.216  18.255   3.229 -0.0045 -0.0264  0.2080
34581W        W77493  26.323  15.527   5.001 -0.0672  0.0521 -0.1454
34582W        W77494  26.125  16.485   7.253  0.2774  0.3495 -0.3729
34583W        W77495  25.668  16.383   7.376 -0.0279  0.0875 -0.3107
34584W        W77496  27.385  13.158   3.674  0.0873 -0.4551  0.0041
34585W        W77497  29.497  17.343   6.940  0.1067  0.6152  0.0512
34586W        W77498  26.244  17.946   7.233  0.2293 -0.0207  0.1992
34587W        W77499  29.265  15.821   6.649  0.0866  0.2814 -0.3063
34588W        W77500  27.855  18.356   6.758 -0.2733  0.0161  0.1512
34589W        W77501  28.996  17.595   6.799 -0.1728  0.1500  0.1239
34590W        W77502  28.039  16.303   5.510  0.1977 -0.6412 -0.0851
34591W        W77503  27.634  14.818   7.130 -0.2612  0.2236  0.2306
34592W        W77504  29.392  14.214   6.949 -0.1036 -0.0320 -0.0940
34593W        W77505  25.948  16.273   4.315 -0.0195  0.0112 -0.0560
34594W        W77506  25.752  16.125   4.879  0.2929  0.1608  0.1467
34595W        W77507  28.502  18.595   6.496  0.0962 -0.2235  0.0389
34596W        W77508  28.211  16.475   3.790  0.2486  0.0455  0.0159
34597W        W77509  25.339  18.287   6.688  0.1434  0.0880 -0.0145
34598W        W77510  28.510  16.159   7.818 -0.1424 -0.0903 -0.1598
34599W        W77511  27.312  18.254   7.692  0.0453 -0.0023 -0.0292
34600W        W77512  26.305  17.874   2.664 -0.2989 -0.0562 -0.0029
34601W        W77513  25.949  16.308   5.733  0.0899 -0.5563 -0.1448
34602W        W77514  25.982  17.743   3.497  0.0846 -0.0921  0.2281
34603W        W77515  25.781  15.847   5.670  0.2262 -0.0113  0.2179
34604W        W77516  26.847  16.845   5.918 -0.0862  0.1117  0.0017
34605W        W77517  29.114  14.923   4.959 -0.1481 -0.1296  0.1892
34606W        W77518  27.620  16.354   8.032 -0.0012  0.2620  0.4990
34607W        W77519  28.351  15.122   5.655 -0.0644  0.3150  0.2951
34608W        W77520  25.917  16.784   4.318  0.1154 -0.3888  0.1846
34609W        W77521  28.702  17.549   4.854 -0.2682 -0.0753 -0.1281
34610W        W77522  28.299  15.719   4.745  0.2640  0.2444 -0.2363
34611W        W77523  27.687  17.762   3.852 -0.2036  0.4816 -0.0766
34612W        W77524  26.263  15.598   5.641 -0.1289 -0.0646  0.2170
34613W        W77525  26.830  16.869   4.993  0.0545  0.1719 -0.2721
34614W        W77526  26.505  15.012   9.482  0.0825  0.1501 -0.1533
34615W        W77527  26.858  16.294   5.853  0.2670 -0.1610 -0.0332
34616W        W77528  27.954  15.713   6.240  0.2371 -0.3421 -0.2568
34617W        W77529  27.808  14.659   5.141  0.1750  0.0029  0.0450
34618W        W77530  28.640  14.816   4.815  0.0315 -0.2771  0.0329
34619W        W77531  27.335  15.964   4.919 -0.0279  0.0136  0.1058
34620W        W77532  26.305  16.564   4.161  0.3987  0.1196 -0.0551
34621W        W77533  28.609  15.196   8.186 -0.0289  0.0729  0.2604
34622W        W77534  27.487  18.455   4.737  0.2297 -0.0415 -0.6507
34623W        W77535  28.589  17.710   7.367 -0.1848 -0.0544  0.0809
34624W        W77536  28.954  18.612   6.066 -0.1497 -0.0276  0.0230
34625W        W77537  26.383  15.859   7.029  0.1320  0.0310  0.1051
34626W        W77538  26.080  15.071   4.786  0.0456 -0.0229 -0.2260
34627W        W77539  25.858  17.175   5.302  0.2326 -0.0774  0.2602
34628W        W77540  27.605  17.190   7.473 -0.4278  0.2299 -0.0811
34629W        W77541  28.456  14.787   4.326 -0.1446 -0.2214  0.0539
34630W        W77542  29.188  18.214   6.316  0.0887 -0.0810 -0.0309
34631W        W77543  27.505  16.023   5.361 -0.0292  0.0200  0.4288
34632W        W77544  26.333  17.615   6.559 -0.0980  0.3868  0.0066
34633W        W77545  28.371  15.170   7.139  0.1559  0.0713  0.0661
34634W        W77546  28.872  16.842   7.258 -0.0340  0.2491  0.1224
34635W        W77547  28.498  16.086   6.412  0.2449  0.0793  0.0081
34636W        W77548  26.621  15.444   4.164  0.0386 -0.0588  0.2545
34637W        W77549  28.157  16.797   5.876  0.0493  0.3471  0.1084
34638W        W77550  25.508  17.868   3.168  0.1834 -0.3231 -0.1098
34639W        W77551  26.253  16.000   4.672  0.3040  0.1872 -0.2748
34640W        W77552  28.223  17.676   5.646 -0.1481 -0.3707 -0.2260
34641W        W77553  29.712  14.775   5.957  0.2263 -0.0261 -0.0891
34642W        W77554  26.235  16.208   8.139 -0.2010  0.2174 -0.1654
34643W        W77555  27.122  15.425   8.305  0.2625 -0.0884  0.0011
34644W        W77556  25.012  15.393   3.987 -0.0952  0.2494  0.0138
34645W        W77557  25.100  18.781   6.400  0.2656  0.1631 -0.0521
34646W        W77558  28.701  14.051   5.302 -0.0708  0.0639 -0.0738
34647W        W77559  30.056  15.520   4.084  0.0619 -0.3084  0.0479
34648W        W77560  27.733  17.549   7.086 -0.0668 -0.1863 -0.1817
34649W        W77561  28.401  16.998   4.336  0.0268 -0.0315  0.3317
34650W        W77562  27.666  15.791   4.089 -0.0918  0.1550 -0.1190
34651W        W77563  28.348  14.279   4.401  0.2987 -0.0642  0.1513
34652W        W77564  25.536  18.082   8.235  0.1428  0.3352 -0.1578
34653W        W77565  27.873  17.412   3.469 -0.1577 -0.4657  0.1718
34654W        W77566  28.259  18.159   6.548  0.3390  0.0028  0.1397
34655W        W77567  26.735  16.405   3.356 -0.0455  0.0262 -0.0385
34656W        W77568  28.699  17.195   5.246 -0.1134  0.1685  0.0294
34657W        W77569  25.695  17.624   5.498 -0.1110  0.3128  0.0590
34658W        W77570  27.606  15.277   7.637 -0.1848 -0.0503 -0.0146
34659W        W77571  30.158  19.078   6.480 -0.1212 -0.0876 -0.0692
34660W        W77572  27.402  14.931   5.263  0.0813 -0.2140 -0.2664
34661W        W77573  27.168  14.933   4.580  0.1812  0.0429 -0.1286
34662W        W77574  29.294  15.266   4.199 -0.2204 -0.0269 -0.1459
34663W        W77575  25.745  18.283   2.052 -0.2493  0.1856 -0.1298
34664W        W77576  28.859  15.154   6.337 -0.0376 -0.1182 -0.0751
34665W        W77577  26.786  15.729   5.811  0.0824 -0.2514 -0.0355
34666W        W77578  27.233  14.874   7.537 -0.2708  0.2596  0.0154
34667W        W77579  29.395  16.282   6.729  0.0562  0.3050  0.1293
34668W        W77580  28.802  16.714   5.044 -0.0351 -0.0514  0.0542
34669W        W77581  27.809  16.113   6.528 -0.1616 -0.0044 -0.3446
34670W        W77582  26.010  15.603   3.165 -0.1441 -0.0437  0.0660
34671W        W77583  27.828  15.289   7.152  0.2864 -0.3350 -0.2713
34672W        W77584  25.833  17.341   6.502  0.2495 -0.1098 -0.2728
34673W        W77585  26.320  18.208   8.148  0.0517  0.1836 -0.0900
34674W        W77586  28.285  17.210   6.121 -0.0571 -0.2863 -0.2357
34675W        W77587  27.356  16.888   5.990 -0.1398  0.0340  0.0843
34676W        W77588  27.602  14.608   9.579 -0.1889 -0.2894 -0.1667
34677W        W77589  28.051  15.066   4.326 -0.1376  0.1937  0.0561
34678W        W77590  26.091  17.573   3.060 -0.2182 -0.1248 -0.1430
34679W        W77591  26.612  16.447   4.571  0.1019  0.0562  0.0666
34680W        W77592  26.801  15.241   6.887 -0.1893  0.2523  0.1756
34681W        W77593  26.753  18.060   8.069  0.2910 -0.0697  0.2627
34682W        W77594  28.408  16.972   2.970 -0.1657 -0.0345 -0.1964
34683W        W77595  28.233  17.183   6.658 -0.4234  0.1727  0.1048
34684W        W77596  26.490  16.924   3.827  0.0449  0.1514  0.2482
34685W        W77597  28.249  14.230   7.376 -0.0698  0.2864  0.2132
34686W        W77598  24.849  16.870   4.364  0.0429  0.1666  0.0984
34687W        W77599  26.825  15.183   4.991  0.0397 -0.1517  0.2786
34688W        W77600  25.865  16.270   2.468 -0.0385  0.1584  0.2749
34689W        W77601  29.570  15.175   5.693  0.0855 -0.0416 -0.2037
34690W        W77602  27.366  17.361   5.694 -0.1629  0.2913  0.2388
34691W        W77603  26.364  15.018   7.179  0.0012 -0.1413  0.2246
34692W        W77604  28.171  16.222   5.977 -0.1547 -0.1274 -0.2006
34693W        W77605  25.247  18.316   7.171 -0.0580  0.1113  0.1089
34694W        W77606  28.085  16.427   7.796  0.2283  0.3508  0.2238
34695W        W77607  29.769  15.448   3.088  0.2409  0.0046 -0.1297
34696W        W77608  27.840  17.155   5.741  0.0058  0.2406  0.1367
34697W        W77609  26.702  15.703   7.995 -0.2086 -0.0594 -0.3686
34698W        W77610  25.637  14.492   3.563  0.5259 -0.0698 -0.0366
34699W        W77611  28.949  15.776   5.647  0.1240 -0.2752  0.0225
34700W        W77612  28.218  15.684   6.643  0.0286 -0.2352  0.1370
34701W        W77613  25.771  17.957   6.651  0.0044  0.1576 -0.0662
34702W        W77614  29.079  17.299   6.018 -0.3820  0.3174 -0.1585
34703W        W77615  27.355  15.683   4.519  0.0036  0.0464  0.2092
34704W        W77616  27.021  16.412   4.870 -0.3472  0.3158  0.0261
34705W        W77617  26.912  15.278   8.776  0.2138  0.1462  0.1097
34706W        W77618  28.707  17.387   6.401 -0.0500  0.1191 -0.2311
34707W        W77619  27.235  15.871   5.709 -0.0681  0.0219  0.1493
34708W        W77620  26.727  13.693   4.046  0.0476  0.0463 -0.3514
34709W        W77621  27.237  16.392   4.174 -0.2594 -0.2649  0.0070
34710W        W77622  27.179  17.423   6.437 -0.1478  0.1915  0.1759
34711W        W77623  27.937  16.613   6.709 -0.2122 -0.0033  0.1007
34712W        W77624  26.394  17.632   8.063 -0.1750  0.0960  0.0685
34713W        W77625  27.902  14.023   6.479 -0.0482 -0.1583 -0.1819
34714W        W77626  29.440  17.497   5.732 -0.0909 -0.0295 -0.1809
34715W        W77627  29.009  16.651   7.695 -0.1619 -0.3134 -0.3402
34716W        W77628  26.137  16.528   4.756  0.2165 -0.2467 -0.0703
34717W        W77629  25.934  16.918   6.193  0.0837  0.0306 -0.1532
34718W        W77630  25.919  17.923   4.165 -0.0927 -0.1562 -0.1248
34719W        W77631  28.570  14.850   6.061  0.1638  0.3282 -0.2277
34720W        W77632  26.163  17.948   6.307  0.0101 -0.0824  0.0784
34721W        W77633  25.890  16.877   3.751 -0.1231 -0.0957 -0.0664
34722W        W77634  25.929  18.307   6.965  0.3198 -0.2743 -0.0720
34723W        W77635  29.308  15.839   4.202 -0.0303  0.1984 -0.0389
34724W        W77636  27.196  17.269   4.480 -0.3234 -0.2229  0.4802
34725W        W77637  27.258  16.167   6.628  0.0817 -0.1196  0.2451
34726W        W77638  30.784  15.507   6.925  0.2072  0.2783 -0.0446
34727W        W77639  27.878  17.634   5.281  0.0076 -0.0049  0.2464
34728W        W77640  29.273  15.137   7.282 -0.0725  0.5492 -0.1394
34729W        W77641  26.575  15.762   7.470 -0.0183  0.1185 -0.0489
34730W        W77642  29.662  17.483   6.191  0.2071  0.2010 -0.4181
34731W        W77643  25.632  15.393   7.089  0.0704 -0.1133  0.1690
34732W        W77644  28.105  17.557   7.827  0.1116 -0.0505  0.2055
34733W        W77645  26.704  16.183   7.223  0.0273  0.0489  0.0092
34734W        W77646  27.666  15.519   5.417 -0.2338 -0.0316 -0.2536
34735W        W77647  26.878  14.858   5.438  0.2097 -0.1402  0.0677
34736W        W77648  27.879  16.732   8.370 -0.0167 -0.2371  0.0645
34737W        W77649  28.217  17.187   5.399  0.2470  0.0865 -0.0170
34738W        W77650  26.862  15.572   4.619  0.2985 -0.0534  0.0970
34739W        W77651  28.964  16.240   6.403  0.0516 -0.0487 -0.0704
34740W        W77652  26.528  16.672   7.046 -0.1836 -0.1892  0.1963
34741W        W77653  29.824  17.616   5.379  0.1755 -0.0470 -0.1517
34742W        W77654  28.014  16.698   5.216  0.1808  0.1473  0.0719
34743W        W77655  27.748  17.041   6.575  0.0739 -0.1764  0.4489
34744W        W77656  25.963  15.398   8.525 -0.0036 -0.0284  0.1536
34745W        W77657  27.591  17.020   5.319 -0.2747 -0.0423  0.2222
34746W        W77658  27.413  13.301   7.559  0.0525 -0.2621  0.0361
34747W        W77659  27.660  15.449   8.080  0.0121  0.1978 -0.1104
34748W        W77660  28.748  16.696   6.448 -0.2102  0.2699 -0.1330
34749W        W77661  26.068  17.266   5.838 -0.1408  0.2868 -0.0805
34750W        W77662  26.369  15.869   8.493 -0.1894 -0.2483 -0.0474
34751W        W77663  29.069  18.901   5.291  0.0857  0.3144 -0.1474
34752W        W77664  28.545  15.185   3.655 -0.2359 -0.3374  0.1808
34753W        W77665  28.726  15.850   6.774 -0.1815 -0.3868 -0.2563
34754W        W77666  28.948  16.594   5.536  0.0413 -0.0350  0.0129
34755W        W77667  28.433  17.007   4.846 -0.0026  0.1332 -0.0833
34756W        W77668  25.945  17.978   5.716 -0.2499 -0.1185  0.2589
34757W        W77669  26.867  16.484   6.623 -0.3726 -0.1375  0.0768
34758W        W77670  27.068  15.975   6.212  0.3452  0.4147 -0.0018
34759W        W77671  28.914  15.443   7.020  0.2212 -0.0724 -0.0414
34760W        W77672  27.565  17.474   4.932  0.1651  0.1236 -0.1021
34761W        W77673  25.763  14.962   4.417 -0.0763 -0.0347  0.1201
34762W        W77674  29.846  14.993   3.982  0.2843 -0.1563 -0.1313
34763W        W77675  25.244  15.381   4.904  0.0925  0.0794 -0.1186
34764W        W77676  26.609  17.626   6.985  0.1009 -0.3591  0.1818
34765W        W77677  26.719  15.845   3.824 -0.0841  0.4050  0.3780
34766W        W77678  26.129  14.954   6.104 -0.1965 -0.1796 -0.2720
34767W        W77679  27.626  17.679   7.550  0.0897 -0.2781  0.1506
34768W        W77680  29.358  16.973   7.359 -0.0977 -0.3669  0.3584
34769W        W77681  27.827  15.178   5.077 -0.0661 -0.1142  0.1598
34770W        W77682  28.419  15.189   8.697 -0.1462 -0.2469  0.0660
34771W        W77683  26.690  17.408   4.567 -0.5179  0.0889 -0.1639
34772W        W77684  27.180  14.218   5.345  0.1505  0.1288  0.4463
34773W        W77685  26.646  18.562   5.850  0.0048 -0.4397  0.0538
34774W        W77686  26.882  17.179   6.903 -0.1631  0.0022 -0.0270
34775W        W77687  26.300  17.180   4.287  0.2076 -0.2659  0.1599
34776W        W77688  28.193  16.070   7.403  0.0724  0.1900 -0.3841
34777W        W77689  29.532  16.035   5.864  0.2367  0.1090  0.0746
34778W        W77690  27.637  16.074   6.045 -0.2653 -0.1021  0.1281
34779W        W77691  28.896  16.420   6.875 -0.0454 -0.0872 -0.0337
34780W        W77692  27.651  16.669   7.163 -0.1672 -0.2804 -0.1399
34781W        W77693  26.572  17.185   6.255  0.2364 -0.0475  0.0409
34782W        W77694  28.194  17.722   6.228 -0.1873  0.0829 -0.0325
34783W        W77695  27.719  16.641   5.657 -0.0611 -0.0216 -0.0052
34784W        W77696  26.170  16.462   5.347  0.2855  0.0074 -0.1133
34785W        W77697  24.815  15.824   7.736 -0.0338 -0.2435  0.1196
34786W        W77698  27.521  15.818   7.851 -0.4837  0.1278  0.1139
34787W        W77699  27.858  16.224   4.969 -0.0916 -0.1514  0.0043
34788W        W77700  26.590  15.699   6.295  0.1332  0.0908 -0.0275
34789W        W77701  27.843  18.231   3.788  0.0309  0.1175 -0.2285
34790W        W77702  25.631  17.413   7.265  0.0406 -0.1323 -0.0041
34791W        W77703  26.240  18.281   5.419  0.3074 -0.0187 -0.1528
34792W        W77704  25.329  18.501   4.639  0.0365 -0.3181  0.1649
34793W        W77705  28.231  17.427   4.517 -0.1189 -0.0146  0.1138
34794W        W77706  27.007  16.802   4.470 -0.0482  0.0139 -0.3767
34795W        W77707  27.631  17.500   4.396 -0.1128 -0.2048 -0.5005
34796W        W77708  27.259  15.462   5.016  0.1616 -0.0309 -0.3213
34797W        W77709  26.108  18.369   6.507  0.0513  0.0997  0.3615
34798W        W77710  25.526  17.129   4.958  0.0921 -0.3417 -0.0509
34799W        W77711  26.646  17.699   4.174  0.0048  0.2643  0.0380
34800W        W77712  26.398  17.629   5.975  0.2130 -0.1621  0.0286
34801W        W77713  27.305  17.218   7.896 -0.4827 -0.3082 -0.0750
34802W        W77714  28.858  15.606   4.061  0.0174  0.1098  0.1091
34803W        W77715  29.884  16.721   5.479  0.0572 -0.3293 -0.1306
34804W        W77716  28.307  15.428   5.129 -0.1750 -0.0860 -0.2397
34805W        W77717  27.237  17.972   7.289  0.2729  0.2557  0.1017
34806W        W77718  27.249  17.477   7.258  0.1164  0.1346 -0.1228
34807W        W77719  27.699  15.267   4.030  0.0996 -0.1354  0.2655
34808W        W77720  27.672  16.268   7.448  0.1230  0.1210  0.0422
34809W        W77721  28.828  14.282   6.965 -0.0220  0.1608  0.0242
34810W        W77722  25.610  18.653   6.548 -0.3125 -0.1666  0.1161
34811W        W77723  28.983  17.998   5.187  0.0328 -0.0646 -0.2004
34812W        W77724  25.928  15.321   5.276 -0.1777  0.1127 -0.0987
34813W        W77725  26.546  17.873   5.285 -0.0984  0.2001 -0.1022
34814W        W77726  29.683  14.667   4.994 -0.1520 -0.4371 -0.0440
34815W        W77727  27.083  16.247   3.677 -0.1149  0.0031 -0.0605
34816W        W77728  29.007  16.185   5.916  0.1695 -0.0919 -0.1103
34817W        W77729  26.806  17.219   4.099 -0.1017  0.0131 -0.3990
34818W        W77730  25.773  17.662   6.089  0.2173 -0.4436 -0.0354
34819W        W77731  27.111  18.051   6.400 -0.2578 -0.3216 -0.4703
34820W        W77732  26.471  14.820   5.033 -0.1490  0.2767  0.0889
34821W        W77733  29.417  16.325   6.256  0.2999  0.4301  0.1330
34822W        W77734  27.034  16.005   7.600 -0.3331 -0.0910  0.1748
34823W        W77735  28.670  13.505   6.273  0.0204  0.2558 -0.2532
34824W        W77736  26.189  17.586   5.502  0.1810  0.0451  0.3237
34825W        W77737  28.788  17.031   6.786  0.2402 -0.0324  0.2240
34826W        W77738  27.235  16.195   7.170  0.5431 -0.0632  0.1426
34827W        W77739  26.884  16.967   7.909 -0.1168 -0.3534 -0.0771
34828W        W77740  28.077  16.003   3.999 -0.2363  0.1743  0.1504
34829W        W77741  30.118  17.392   6.987  0.0359  0.0190  0.3672
34830W        W77742  28.384  16.309   4.974  0.1341 -0.2891  0.1916
34831W        W77743  28.703  17.962   6.432 -0.2589  0.1539  0.1984
34832W        W77744  26.147  15.484   6.195 -0.1210 -0.0581 -0.1856
34833W        W77745  27.209  15.224   4.166  0.2865  0.0057 -0.1693
34834W        W77746  25.430  16.695   4.248  0.3413 -0.0046 -0.0682
34835W        W77747  27.437  17.087   6.992 -0.1267 -0.0891  0.0897
34836W        W77748  29.124  17.720   6.256  0.1305  0.3743  0.1202
34837W        W77749  27.421  15.100   6.136 -0.0661 -0.2831 -0.2535
34838W        W77750  27.249  17.800   4.637 -0.2052  0.1702  0.3465
34839W        W77751  28.617  16.526   5.983 -0.6091  0.0985  0.1701
34840W        W77752  27.799  18.375   3.336  0.0407 -0.0099  0.3376
34841W        W77753  29.722  17.136   6.511 -0.0021 -0.1208 -0.0440
34842W        W77754  28.105  18.094   5.374 -0.3027  0.1021 -0.1044
34843W        W77755  25.202  16.151   6.985 -0.0116  0.0710 -0.0255
34844W        W77756  26.972  17.313   5.968  0.1007 -0.0196  0.0038
34845W        W77757  29.585  15.685   6.989  0.1243  0.2451  0.0762
34846W        W77758  28.039  14.722   5.599 -0.1717 -0.1039 -0.0044
34847W        W77759  26.276  15.981   5.982  0.1501 -0.3833  0.0750
34848W        W77760  26.936  17.458   5.002  0.1412  0.0031  0.0145
34849W        W77761  28.835  15.730   6.332 -0.0669 -0.3084  0.0023
34850W        W77762  28.445  15.383   6.164 -0.2115 -0.2552 -0.1310
34851W        W77763  27.290  18.188   3.721  0.2783  0.0854  0.1321
34852W        W77764  28.620  13.017   6.648  0.2608 -0.1553  0.0256
34853W        W77765  27.738  16.767   7.635  0.0209  0.0486 -0.1282
34854W        W77766  27.582  17.617   8.098 -0.1609  0.1054 -0.3385
34855W        W77767  25.787  15.263   3.459 -0.0843  0.2489  0.0854
34856W        W77768  27.007  17.468   8.216 -0.2714 -0.0505 -0.1961
34857W        W77769  27.882  17.587   6.641  0.1351  0.3000 -0.0061
34858W        W77770  25.973  17.094   4.764  0.0505  0.1167  0.1385
34859W        W77771  30.058  17.579   6.507 -0.3542 -0.0954  0.1235
34860W        W77772  28.077  15.858   5.306 -0.2340  0.1641 -0.1631
34861W        W77773  29.656  18.461   6.176 -0.1177  0.1313  0.1486
34862W        W77774  26.729  15.164   6.428 -0.1326 -0.0383 -0.0143
34863W        W77775  29.275  14.393   4.916  0.1013 -0.2299  0.1126
34864W        W77776  28.845  15.161   4.510 -0.3073  0.1270 -0.0858
34865W        W77777  25.374  16.729   5.287  0.0818  0.0860 -0.1463
34866W        W77778  26.173  16.415   3.738  0.1484  0.3166 -0.0550
34867W        W77779  25.747  15.214   2.943 -0.3117 -0.0692 -0.0520
34868W        W77780  27.848  15.853   6.958  0.1520  0.2815  0.1616
34869W        W77781  27.236  13.959   8.087 -0.3847 -0.0524 -0.2062
34870W        W77782  25.988  15.954   7.376 -0.1630  0.4548  0.0188
34871W        W77783  26.697  16.589   5.510  0.0770  0.1260  0.0698
34872W        W77784  27.566  14.668   4.709  0.2907  0.0419 -0.2967
34873W        W77785  29.393  18.018   2.834  0.2337 -0.2565  0.3865
34874W        W77786  26.391  16.282   6.718  0.1034  0.2548 -0.3056
34875W        W77787  27.222  16.453   6.165  0.4768  0.3551 -0.2543
34876W        W77788  28.554  18.269   5.980 -0.0088  0.1063 -0.0528
34877W        W77789  28.626  17.626   5.949 -0.0484  0.2465  0.0889
34878W        W77790  27.799  15.725   4.925 -0.1546  0.1355  0.1558
34879W        W77791  27.985  18.388   8.249 -0.1015  0.1728 -0.0213
34880W        W77792  25.821  16.419   3.347 -0.2341  0.1824 -0.0917
34881W        W77793  25.968  16.629   6.659 -0.1329 -0.0181  0.1351
34882W        W77794  27.689  14.744   7.753 -0.1800 -0.4554 -0.1208
34883W        W77795  26.377  14.452   5.445  0.0166  0.4184  0.2131
34884W        W77796  27.580  15.531   5.926  0.2624 -0.2787 -0.1981
34885W        W77797  28.530  18.248   5.050  0.1702  0.0141 -0.0382
34886W        W77798  29.019  18.571   3.837 -0.1214  0.0986 -0.1051
34887W        W77799  27.556  18.001   6.764  0.3983 -0.0461 -0.0912
34888W        W77800  27.238  17.986   8.161  0.3440  0.2922  0.2216
34889W        W77801  25.876  15.836   8.261  0.1898  0.4212  0.0040
34890W        W77802  28.722  17.703   4.306 -0.1365 -0.3077  0.0203
34891W        W77803  27.819  17.144   7.998  0.2905  0.0660  0.0540
34892W        W77804  28.436  17.988   4.632 -0.2475  0.0930 -0.1357
34893W        W77805  29.257  15.521   6.119 -0.1325  0.0684 -0.1880
34894W        W77806  27.884  17.045   4.875  0.1785 -0.1870  0.1998
34895W        W77807  25.763  15.548   7.668  0.0886  0.2728  0.2108
34896W        W77808  25.920  17.943   7.934  0.0186 -0.1479 -0.1104
34897W        W77809  29.658  16.761   6.212  0.0363 -0.3419  0.0639
34898W        W77810  26.768  13.958   5.438  0.2234  0.0973 -0.3086
34899W        W77811  28.573  14.438   6.450 -0.0078  0.0476  0.2560
34900W        W77812  27.914  17.979   1.841  0.1793  0.0253  0.0810
34901W        W77813  25.741  15.808   6.294 -0.3642  0.0082  0.1363
34902W        W77814  28.274  16.230   4.420  0.1580  0.0586 -0.1074
34903W        W77815  27.422  16.662   6.672  0.2140  0.1805  0.1946
34904W        W77816  27.710  17.707   5.756 -0.0579  0.1646 -0.1664
34905W        W77817  28.687  16.302   7.319 -0.1728 -0.1889 -0.0916
34906W        W77818  27.342  15.593   3.793  0.1644  0.1413 -0.1335
34907W        W77819  28.858  17.006   4.616 -0.1965 -0.1619 -0.0611
34908W        W77820  28.749  18.990   6.330 -0.0878 -0.1440 -0.1373
34909W        W77821  29.547  18.433   6.719 -0.0659  0.1969 -0.3915
34910W        W77822  27.261  17.691   6.042  0.0027 -0.2130 -0.0078
34911W        W77823  29.216  17.229   6.536 -0.0987 -0.0760  0.1019
34912W        W77824  26.273  14.398   7.972  0.3500  0.1409  0.1802
34913W        W77825  26.435  16.768   6.466 -0.2131 -0.1112  0.0600
34914W        W77826  27.710  16.605   6.177 -0.0309 -0.0710  0.1991
34915W        W77827  28.289  16.170   6.917 -0.3161 -0.0849  0.2070
34916W        W77828  25.905  15.477   6.700 -0.2566 -0.1620  0.0701
34917W        W77829  28.866  15.624   2.512  0.2106  0.1689  0.2518
34918W        W77830  27.346  18.456   6.555  0.0748  0.1318 -0.1040
34919W        W77831  27.107  16.689   7.013  0.3732 -0.0697  0.0013
34920W        W77832  24.220  14.331  10.360 -0.3828  0.2848  0.0828
34921W        W77833  25.596  16.243   8.798 -0.2550  0.0532 -0.1661
34922W        W77834  29.610  15.886   8.255  0.3276  0.2275  0.2026
34923W        W77835  29.691  17.145   9.215 -0.2541  0.0662  0.0137
34924W        W77836  24.582  15.063   8.763 -0.2516 -0.0470  0.3637
34925W        W77837  29.797  17.454   7.779 -0.1024  0.0313 -0.0439
34926W        W77838  28.282  17.168   9.041 -0.1738  0.0671  0.3146
34927W        W77839  29.175  16.623   9.601 -0.1777 -0.2097 -0.4663
34928W        W77840  28.344  15.707   8.017  0.0207  0.0950  0.0692
34929W        W77841  27.552  17.182  10.145  0.1752  0.0305  0.0782
34930W        W77842  25.968  14.264   9.523  0.3578  0.2969 -0.0348
34931W        W77843  24.721  14.799   9.799  0.0354 -0.0156  0.1927
34932W        W77844  29.333  16.166   9.364  0.1033 -0.0533 -0.1025
34933W        W77845  27.158  15.933   8.274  0.3204  0.5144 -0.3070
34934W        W77846  24.676  15.900  10.289 -0.0842 -0.4177  0.0803
34935W        W77847  25.930  16.319   9.185 -0.1311 -0.0507 -0.2191
34936W        W77848  28.417  17.999   9.201 -0.2199 -0.3080 -0.1162
34937W        W77849  26.526  15.210  10.268 -0.0519  0.0338 -0.4038
34938W        W77850  28.126  17.769   8.255 -0.2827 -0.0345  0.1433
34939W        W77851  25.448  15.852   7.878  0.1509  0.3119 -0.2711
34940W        W77852  25.991  17.112  12.268 -0.2874 -0.1252  0.2146
34941W        W77853  27.776  16.063  10.462  0.1623  0.4325 -0.0749
34942W        W77854  29.521  15.691  10.337  0.0054 -0.0228  0.2436
34943W        W77855  29.382  16.322   8.225  0.2523  0.2476  0.1106
34944W        W77856  28.136  18.675  10.117  0.1466  0.3952 -0.0318
34945W        W77857  28.973  17.405   8.766 -0.0395  0.4061 -0.1450
34946W        W77858  27.309  16.602  10.152  0.0562 -0.2254 -0.0626
34947W        W77859  28.239  16.901   9.630  0.1874  0.4681 -0.1348
34948W        W77860  28.522  17.770   7.844 -0.1439  0.0252  0.0264
34949W        W77861  30.422  16.454  10.461 -0.0507 -0.0044 -0.2288
34950W        W77862  26.727  17.737   8.529  0.2233  0.1221 -0.2836
34951W        W77863  27.476  15.168  11.017  0.0118 -0.2178  0.1174
34952W        W77864  28.235  15.666   9.065 -0.1205 -0.0256 -0.1804
34953W        W77865  27.536  18.416   8.402  0.0317  0.1008 -0.2591
34954W        W77866  29.539  16.608   9.144  0.3351 -0.1722  0.0327
34955W        W77867  25.822  17.462   9.567 -0.2052 -0.2536  0.1188
34956W        W77868  27.036  18.536   7.297  0.0669  0.0924  0.2537
34957W        W77869  28.392  15.310   7.666  0.0279  0.1067  0.0921
34958W        W77870  26.430  15.509   6.707  0.3525  0.1057 -0.1093
34959W        W77871  27.127  15.508   7.747 -0.0504  0.1729  0.2104
34960W        W77872  26.576  14.745   9.898 -0.4174  0.2243 -0.2826
34961W        W77873  25.418  18.115   9.480  0.0527  0.0227 -0.0939
34962W        W77874  28.385  14.783  10.603  0.0802 -0.1622 -0.2736
34963W        W77875  28.144  16.187   9.144 -0.0560  0.0684 -0.0228
34964W        W77876  27.671  15.343   9.644 -0.3609 -0.0289 -0.0323
34965W        W77877  26.833  15.994   9.636 -0.1057 -0.1816 -0.0525
34966W        W77878  25.316  15.622   9.983  0.0559  0.1063 -0.0600
34967W        W77879  30.170  18.126   9.083 -0.0349 -0.3528  0.0655
34968W        W77880  28.454  17.613   8.644  0.0803  0.1751 -0.0376
34969W        W77881  28.478  17.120   7.158 -0.1250 -0.2340  0.3507
34970W        W77882  25.100  16.184   9.134 -0.0043 -0.3199 -0.3116
34971W        W77883  26.137  15.488   7.318  0.2410 -0.0955  0.0599
34972W        W77884  29.310  15.328   9.011  0.0665  0.0325 -0.0456
34973W        W77885  28.077  17.214   8.460 -0.0576  0.3401 -0.1505
34974W        W77886  28.732  16.798   9.970  0.0598 -0.0351 -0.1391
34975W        W77887  30.429  16.261   7.363 -0.2068 -0.0311 -0.0697
34976W        W77888  27.398  15.324  10.077  0.2703  0.0503  0.1958
34977W        W77889  29.416  13.812  10.110 -0.0478 -0.1916  0.4388
34978W        W77890  26.774  16.587   7.526  0.0721  0.1006 -0.1547
34979W        W77891  27.158  18.188   8.705  0.2158  0.0434  0.0398
34980W        W77892  29.034  17.932   9.833 -0.1853 -0.2949  0.1666
34981W        W77893  28.606  15.645   8.570 -0.1917 -0.2615 -0.2843
34982W        W77894  27.441  18.532   8.901  0.0016  0.2296 -0.0774
34983W        W77895  25.430  17.597   7.851 -0.2304 -0.0519  0.0107
34984W        W77896  26.401  16.676   8.511 -0.1533  0.0483  0.0303
34985W        W77897  26.932  16.831   8.409 -0.1502 -0.2244  0.4057
34986W        W77898  24.778  15.230  10.163 -0.1223 -0.4375 -0.0346
34987W        W77899  26.948  16.489   9.390 -0.1682 -0.2713 -0.0043
34988W        W77900  29.182  15.280   9.856  0.1603 -0.1798 -0.2450
34989W        W77901  29.046  14.159   9.395 -0.0158  0.3280  0.0618
34990W        W77902  29.398  17.094   8.747 -0.1340 -0.1016 -0.3998
34991W        W77903  27.680  19.588   8.086  0.0995 -0.1320  0.1137
34992W        W77904  28.676  16.405   8.688  0.0196  0.4335  0.1783
34993W        W77905  28.415  17.659   6.696 -0.0519  0.1834  0.0895
34994W        W77906  25.943  15.160   9.478 -0.0758 -0.3813 -0.0979
34995W        W77907  24.915  15.294   9.612 -0.4527  0.0440 -0.4692
34996W        W77908  24.346  13.941  10.007 -0.0727 -0.2614  0.1878
34997W        W77909  25.054  15.518   8.076  0.1761  0.2314  0.0387
34998W        W77910  29.226  16.179   9.890  0.1069 -0.3027 -0.1593
34999W        W77911  27.379  16.396   9.120 -0.3615 -0.0444 -0.0791
35000W        W77912  28.209  18.321   9.591 -0.0734  0.2565 -0.0287
35001W        W77913  28.666  17.461   9.130 -0.2245 -0.2760 -0.0559
35002W        W77914  31.707  18.877   9.221 -0.2421 -0.4186  0.0880
35003W        W77915  29.959  16.797   8.844 -0.1597  0.0348  0.0885
35004W        W77916  25.553  15.504   9.398 -0.1657 -0.0089 -0.2673
35005W        W77917  25.338  15.905   8.418 -0.2765 -0.1436  0.0619
35006W        W77918  26.985  17.648   9.045 -0.0574  0.2097 -0.1550
35007W        W77919  28.200  16.592  10.053 -0.0336 -0.1023 -0.2205
35008W        W77920  26.377  15.110   9.030 -0.0886 -0.0196  0.1985
35009W        W77921  28.937  18.858   8.111 -0.2152  0.2770 -0.0595
35010W        W77922  28.074  17.116   7.558  0.0189 -0.3065  0.1372
35011W        W77923  28.644  15.309   9.949 -0.4359  0.0720 -0.0543
35012W        W77924  28.511  16.646   7.654  0.2922 -0.0362 -0.3313
35013W        W77925  25.941  15.904   8.849  0.2336  0.0310  0.0441
35014W        W77926  27.560  18.362   9.475 -0.1276 -0.1341  0.1714
35015W        W77927  26.653  16.978   8.775  0.0222 -0.2995  0.0786
35016W        W77928  25.561  16.010   9.392  0.0812 -0.0288 -0.1896
35017W        W77929  27.763  17.297   9.636  0.0060 -0.2158  0.0068
35018W        W77930  25.484  16.975  12.220  0.1318 -0.1692  0.0146
35019W        W77931  25.124  15.511   8.616 -0.0423  0.0380  0.1745
35020W        W77932  27.458  14.978   8.829  0.5591  0.0925 -0.0698
35021W        W77933  28.654  14.601   7.297 -0.2094 -0.0258 -0.1027
35022W        W77934  29.094  16.714   8.524 -0.0745  0.0611 -0.2793
35023W        W77935  29.113  16.106   7.592 -0.1356  0.1992 -0.1307
35024W        W77936  27.934  15.645   7.679  0.2610  0.2960  0.1958
35025W        W77937  28.542  17.399   8.177 -0.2542  0.1125 -0.3818
35026W        W77938  27.750  16.321   9.485  0.2306 -0.1390  0.1869
35027W        W77939  27.996  14.570   8.110 -0.2067  0.1568  0.1238
35028W        W77940  29.092  17.248   8.298 -0.1824  0.0842 -0.2325
35029W        W77941  28.748  18.254  10.058 -0.0661  0.0015  0.1380
35030W        W77942  28.630  15.457   9.469 -0.0626 -0.1674  0.1861
35031W        W77943  27.805  12.512  10.198 -0.1871 -0.0735 -0.2518
35032W        W77944  25.969  16.646   8.244 -0.2106 -0.2065 -0.2326
35033W        W77945  27.147  15.605   9.065 -0.0292 -0.1175 -0.0282
35034W        W77946  24.754  18.257   8.241  0.2883  0.1360  0.0892
35035W        W77947  27.697  14.943  10.201 -0.1893 -0.0795 -0.2813
35036W        W77948  29.564  17.943   9.860  0.1154  0.1922  0.0802
35037W        W77949  28.779  16.946   8.013 -0.2414 -0.1874 -0.1821
35038W        W77950  29.330  16.318   8.827  0.2333  0.0381  0.1820
35039W        W77951  25.074  17.233   7.961  0.0308  0.0743  0.3181
35040W        W77952  26.239  14.741  10.385 -0.0605  0.0888  0.3275
35041W        W77953  29.648  17.510   9.595  0.0634  0.0158  0.0955
35042W        W77954  29.656  16.389   9.639  0.1554  0.0880 -0.0235
35043W        W77955  26.956  15.685   7.125 -0.0468  0.3137 -0.0242
35044W        W77956  29.348  18.040   7.524  0.0431  0.1501  0.0704
35045W        W77957  26.818  19.090   8.345  0.2007  0.3289  0.1156
35046W        W77958  24.073  13.502   9.794  0.1722 -0.0558  0.1958
35047W        W77959  29.159  17.410   9.815  0.0842  0.5014 -0.2527
35048W        W77960  27.723  17.982   8.402 -0.1788  0.1633 -0.0263
35049W        W77961  28.805  15.086  10.500 -0.4183 -0.1206  0.1415
35050W        W77962  28.739  18.324   9.513 -0.1637  0.2177  0.1232
35051W        W77963  27.299  14.197   9.600  0.0664  0.0822  0.3310
35052W        W77964  25.976  16.786   9.346  0.0720 -0.0280 -0.1282
35053W        W77965  27.288  16.623   7.659 -0.4204  0.1581 -0.0711
35054W        W77966  26.157  17.220   8.582 -0.2406  0.1149 -0.2482
35055W        W77967  28.144  14.579   9.985 -0.0090  0.0474 -0.0951
35056W        W77968  30.032  16.412   6.873  0.0950 -0.0212  0.0093
35057W        W77969  27.803  13.575  10.852 -0.0369 -0.3439  0.1266
35058W        W77970  26.476  15.485   9.733 -0.2951  0.0853  0.1594
35059W        W77971  25.972  15.526   9.789  0.0596  0.1249 -0.0946
35060W        W77972  28.793  15.433   9.005  0.0573  0.1650 -0.1330
35061W        W77973  25.184  16.440   8.564  0.2764  0.2083  0.1373
35062W        W77974  30.042  17.708  10.054  0.1336 -0.0417  0.1571
35063W        W77975  24.963  15.316   9.082 -0.0938 -0.1731 -0.2165
35064W        W77976  27.240  18.557   9.787 -0.2408 -0.1367  0.1123
35065W        W77977  29.035  15.190   9.413 -0.0278 -0.0699 -0.0643
35066W        W77978  26.474  16.134   8.947 -0.1450  0.0305 -0.0578
35067W        W77979  26.128  17.684   9.925 -0.4067  0.1085  0.1775
35068W        W77980  27.809  14.706  10.787  0.3905  0.0433 -0.3018
35069W        W77981  26.755  15.410   9.322 -0.0090  0.0711 -0.2820
35070W        W77982  25.378  15.055   9.327 -0.0759  0.0391  0.0234
35071W        W77983  27.897  15.738   9.436  0.0668 -0.1692 -0.4980
35072W        W77984  30.461  15.623  10.419 -0.3551  0.1941 -0.1277
35073W        W77985  28.899  15.994  10.244 -0.2116 -0.0478  0.1299
35074W        W77986  26.131  14.681   9.341  0.0449 -0.1406 -0.2127
35075W        W77987  28.778  18.694   7.532 -0.0770 -0.0371  0.1225
35076W        W77988  28.558  18.044   8.299  0.3457 -0.0841  0.0434
35077W        W77989  26.609  16.868   9.497  0.1135  0.2111  0.1386
35078W        W77990  29.428  17.549   8.983 -0.1699  0.0517 -0.1213
35079W        W77991  24.710  14.516  10.242 -0.1581 -0.3813 -0.2005
35080W        W77992  27.213  17.331   9.415  0.2305  0.1269 -0.0864
35081W        W77993  26.794  18.427   8.950 -0.0877  0.0159  0.1138
35082W        W77994  22.959  18.415  10.588  0.1439  0.0332  0.4086
35083W        W77995  30.025  15.092   8.806 -0.3315 -0.1075  0.0311
35084W        W77996  28.170  17.473   7.277  0.1984  0.2127 -0.0150
35085W        W77997  28.053  15.960   9.888  0.1242  0.2614  0.0143
35086W        W77998  29.360  15.307   7.772 -0.0204  0.0772 -0.1098
35087W        W77999  28.024  14.139  10.841 -0.1697  0.0001 -0.1270
35088W        W78000  29.679  17.356  10.133  0.0809  0.0515  0.0526
35089W        W78001  26.917  16.048   9.142  0.2135 -0.0057  0.2377
35090W        W78002  25.549  15.463   8.218 -0.1896  0.0051 -0.1118
35091W        W78003  28.254  16.126  10.372  0.3004 -0.1429  0.4139
35092W        W78004  27.763  16.354  10.021  0.0538 -0.1160 -0.0054
35093W        W78005  28.331  16.518   8.194  0.3088  0.0837  0.1198
35094W        W78006  27.907  15.286   8.796 -0.3053 -0.0502  0.1314
35095W        W78007  27.505  17.223   8.482 -0.1391 -0.2020 -0.1222
35096W        W78008  28.282  16.978   8.034 -0.0208 -0.2775 -0.1145
35097W        W78009  27.613  15.425   9.148  0.2758 -0.1073 -0.1097
35098W        W78010  27.784  17.573   8.676 -0.1772 -0.2148  0.0310
35099W        W78011  27.280  16.004   8.759 -0.2135 -0.0582  0.2266
35100W        W78012  28.497  16.483   9.176 -0.3101 -0.0460  0.0607
35101W        W78013  28.655  15.694  10.605  0.1343 -0.1466  0.1134
35102W        W78014  27.951  15.668   8.463  0.3812  0.0715 -0.1525
35103W        W78015  27.814  14.361  10.352  0.0267  0.0955  0.0947
35104W        W78016  29.002  16.525   9.149  0.2717  0.3838  0.0114
35105W        W78017  28.135  16.632   7.344  0.3200 -0.1909  0.0985
35106W        W78018  26.980  14.655   9.584  0.2818  0.0837 -0.2942
35107W        W78019  26.483  15.551   8.869  0.0201  0.0956  0.1371
35108W        W78020  28.289  18.261   7.887  0.0885 -0.0704  0.0476
35109W        W78021  27.074  16.086  10.115  0.0109 -0.0467  0.2874
35110W        W78022  28.041  15.197   9.295 -0.1831 -0.1387 -0.1431
35111W        W78023  25.168  14.953   9.840 -0.4182 -0.0996  0.1709
35112W        W78024  28.010  16.061   8.118 -0.0132 -0.1268  0.3870
35113W        W78025  26.879  16.386   8.771 -0.0985  0.2698 -0.0259
35114W        W78026  27.839  17.068   8.853 -0.1530 -0.3423 -0.0277
35115W        W78027  27.263  14.880   9.996  0.4052  0.2179  0.0062
35116W        W78028  26.703  17.344   9.344  0.0285 -0.0049  0.2288
35117W        W78029  26.200  13.766   9.385 -0.1730 -0.0396 -0.2116
35118W        W78030  27.415  17.561   9.892  0.0038  0.1694  0.0492
35119W        W78031  29.064  18.767   9.171 -0.2170 -0.2228 -0.3440
35120W        W78032  24.177  15.259   8.543 -0.4251 -0.1819 -0.1196
35121W        W78033  29.040  15.475  10.310 -0.2350  0.2050  0.0288
35122W        W78034  26.910  15.131   9.822  0.1252 -0.3070  0.3147
35123W        W78035  26.074  16.294   8.617 -0.1418 -0.0232  0.0866
35124W        W78036  30.199  16.415   8.968 -0.0961 -0.0263  0.1371
35125W        W78037  27.226  16.851   9.629  0.0371  0.1653  0.1823
35126W        W78038  28.209  16.345   9.624 -0.1844  0.3532  0.4174
35127W        W78039  26.053  15.603   9.223  0.3216  0.1468  0.1018
35128W        W78040  28.175  17.945   7.507 -0.0384 -0.0674 -0.1935
35129W        W78041  25.590  17.170   9.229 -0.2899  0.2757  0.1284
35130W        W78042  26.984  17.328   8.676  0.3799  0.0608 -0.0704
35131W        W78043  29.411  17.494   7.433  0.3378 -0.0601 -0.2780
35132W        W78044  29.642  17.229   8.144  0.0578 -0.0151  0.1831
35133W        W78045  28.391  15.908   9.512  0.1746  0.4161  0.3827
35134W        W78046  25.608  15.316   8.871  0.0392 -0.2994  0.0804
35135W        W78047  28.574  17.400   9.922  0.1554 -0.1667  0.0873
35136W        W78048  25.977  18.333   8.582  0.0778  0.0256  0.0526
35137W        W78049  28.713  19.490   8.147  0.0130  0.3360 -0.0344
35138W        W78050  26.262  18.155  10.032 -0.0618 -0.0541 -0.1911
35139W        W78051  28.840  16.454   8.186  0.0013  0.0348 -0.0438
35140W        W78052  29.766  16.292   8.565  0.1944  0.0874  0.0470
35141W        W78053  30.263  16.037   9.350 -0.1411 -0.0097 -0.0048
35142W        W78054  23.979  18.172   9.879 -0.0940  0.0996 -0.0534
35143W        W78055  27.170  14.402   7.888  0.1711 -0.3577  0.0626
35144W        W78056  27.564  18.691   7.348 -0.3254  0.0957 -0.0018
35145W        W78057  25.250  14.293   9.021 -0.0132 -0.2127 -0.0187
35146W        W78058  27.255  14.992  10.539 -0.0832 -0.1810 -0.1576
35147W        W78059  29.231  15.807   8.913  0.0468  0.1556 -0.1390
35148W        W78060  27.050  16.475   8.079 -0.0790 -0.1788  0.1241
35149W        W78061  27.924  14.969   9.811 -0.0009  0.0186 -0.1195
35150W        W78062  27.515  16.870   9.216  0.4562 -0.0819  0.0979
35151W        W78063  28.321  17.418   9.463 -0.1467 -0.2874  0.1588
35152W        W78064  29.430  18.636   8.226 -0.5049  0.0980  0.7445
35153W        W78065  25.838  17.326   7.989  0.0235  0.0341  0.3194
35154W        W78066  30.060  16.060   8.150 -0.3120  0.2627  0.0456
35155W        W78067  26.842  17.250   9.804 -0.0952 -0.0560 -0.0868
35156W        W78068  26.011  16.793   8.784 -0.0676 -0.0573  0.0823
35157W        W78069  30.019  14.684   8.434  0.1643 -0.1988  0.2504
35158W        W78070  30.994  15.609  10.638  0.0645  0.1684 -0.0257
35159W        W78071  24.180  16.602   9.877 -0.2071  0.1488 -0.2667
35160W        W78072  27.471  15.524   8.659  0.2509  0.1128  0.4197
35161W        W78073  28.730  15.822   7.527  0.2256  0.0977 -0.1155
35162W        W78074  24.619  14.997   9.282 -0.0716  0.2220  0.0334
35163W        W78075  28.965  15.069   8.676  0.2379 -0.3030  0.2172
35164W        W78076  27.311  16.404   8.497  0.4199  0.1035 -0.3781
35165W        W78077  27.827  16.442   8.858 -0.0541 -0.1483 -0.2384
35166W        W78078  25.466  14.458   8.600 -0.1280 -0.1559 -0.1077
35167W        W78079  29.793  16.906   7.752 -0.4334  0.1244  0.0567
35168W        W78080  29.970  15.774  10.569  0.1435 -0.3239 -0.4392
35169W        W78081  26.697  18.689   7.971  0.2021 -0.1682 -0.0899
35170W        W78082  28.548  16.969   8.475 -0.1070  0.2521  0.2946
35171W        W78083  30.136  19.010   8.496  0.0992  0.0453 -0.2414
35172W        W78084  25.881  16.466  10.097 -0.1881  0.0367 -0.0974
35173W        W78085  29.271  17.519  10.629 -0.4489 -0.1284 -0.2189
35174W        W78086  30.122  17.892   9.529 -0.0436 -0.0793 -0.0822
35175W        W78087  27.298  14.625   9.154  0.2480 -0.2413  0.1531
35176W        W78088  27.114  16.461  10.713  0.3267 -0.3945  0.0218
35177W        W78089  27.432  17.280   8.963  0.2206  0.0676 -0.3096
35178W        W78090  29.476  14.875   9.736 -0.0590  0.0025  0.4068
35179W        W78091  27.733  18.846   6.744 -0.0092  0.2144  0.1231
35180W        W78092  27.293  16.291   9.734  0.0868 -0.0076  0.0445
35181W        W78093  26.498  16.645   7.993 -0.0652  0.3077  0.1110
35182W        W78094  28.012  16.746   9.217 -0.2125  0.1605  0.1109
35183W        W78095  28.722  16.828   9.479 -0.0638 -0.3505 -0.2009
35184W        W78096  30.027  16.828   9.344 -0.0398 -0.0505 -0.0202
35185W        W78097  29.652  15.534   8.658  0.0378  0.0864 -0.4864
35186W        W78098  30.257  16.492   8.474 -0.0216  0.0148  0.0037
35187W        W78099  27.372  16.828   8.756  0.1201  0.2113 -0.0411
35188W        W78100  29.421  14.915   9.245  0.1429  0.0073 -0.1706
35189W        W78101  26.868  14.905   9.140  0.1151  0.1887  0.1371
35190W        W78102  27.594  15.873   9.804 -0.0688 -0.2160 -0.0322
35191W        W78103  26.692  16.221   8.338 -0.2458  0.1280 -0.1677
35192W        W78104  26.678  17.393   7.772  0.0381  0.0752  0.2228
35193W        W78105  25.376  16.729   8.262  0.0446  0.2064  0.0602
35194W        W78106  26.457  16.033   9.936 -0.1716 -0.3053  0.2747
35195W        W78107  25.249  14.895   8.823  0.2174  0.1114  0.1852
35196W        W78108  29.837  17.845   7.424  0.0059  0.1310  0.2138
35197W        W78109  24.844  14.225   9.800 -0.0288  0.0771  0.0712
35198W        W78110  24.474  16.156   9.840 -0.0516  0.1243 -0.2619
35199W        W78111  29.951  16.983   9.903  0.1441  0.2549  0.0237
35200W        W78112  30.365  17.229   8.517  0.0752 -0.3165  0.1874
35201W        W78113  28.212  15.484   9.742  0.1178  0.1434  0.1662
35202W        W78114  26.214  15.806   7.840  0.0325  0.0333 -0.2308
35203W        W78115  24.811  15.914   8.818  0.0152  0.1831 -0.1263
35204W        W78116  26.312  17.136   9.128  0.0809 -0.2727 -0.2534
35205W        W78117  29.624  16.778   8.455 -0.1295  0.1410 -0.0818
35206W        W78118  28.393  19.026   7.456  0.1914  0.1259  0.3329
35207W        W78119  26.145  14.982   9.939 -0.1516 -0.0991  0.3052
35208W        W78120  29.953  16.570   7.384 -0.0042 -0.1410 -0.2012
35209W        W78121  29.761  17.877   8.075 -0.0662  0.0478 -0.4607
35210W        W78122  28.926  14.669   9.189  0.0960  0.0533  0.0672
35211W        W78123  27.377  16.816   8.158  0.0699 -0.2850 -0.0325
35212W        W78124  29.438  15.751   9.758 -0.3287 -0.1617 -0.0825
35213W        W78125  25.637  14.565   9.093  0.0947  0.1919  0.0265
35214W        W78126  28.208  16.040   8.649  0.0727 -0.1335  0.2690
35215W        W78127  28.199  18.650   8.798  0.1661 -0.5913  0.3633
35216W        W78128  25.017  16.145   9.633 -0.0301  0.1996  0.0386
35217W        W78129  28.292  16.728   8.797 -0.2053  0.0662  0.2122
35218W        W78130  27.238  15.055   9.433 -0.2486  0.2175  0.0402
35219W        W78131  26.801  15.848   8.662  0.0874 -0.2290  0.0869
35220W        W78132  29.354  16.824   8.036  0.3877  0.1767 -0.2445
35221W        W78133  28.977  17.798   9.293  0.0128  0.3988 -0.0387
35222W        W78134  28.113  15.681  10.432 -0.0595 -0.3075  0.0282
35223W        W78135  27.785  16.833   9.891 -0.2223  0.2684 -0.1725
35224W        W78136  27.151  15.556   9.630  0.4074 -0.0475  0.0042
35225W        W78137  27.676  16.074   8.475  0.2616  0.0154 -0.1379
35226W        W78138  27.312  17.704   8.559 -0.0054 -0.1823  0.1931
35227W        W78139  27.424  15.926   9.338 -0.2022  0.1203  0.0261
35228W        W78140  25.100  16.122  10.125 -0.1294 -0.1246  0.0937
35229W        W78141  28.083  14.818   8.657  0.2120 -0.0546 -0.1905
35230W        W78142  28.272  18.075  10.117 -0.1288  0.0267  0.0178
35231W        W78143  26.478  15.818   9.381 -0.2171  0.0295  0.1130
35232W        W78144  27.547  21.401   2.858 -0.0419 -0.1771 -0.1182
35233W        W78145  24.524  19.584   1.329 -0.1574  0.0365 -0.0456
35234W        W78146  27.147  20.013  31.330 -0.0162 -0.1771 -0.1270
35235W        W78147  27.872  20.099   2.293  0.1385 -0.0187  0.2286
35236W        W78148  25.363  18.662  30.448  0.1330 -0.1065  0.1619
35237W        W78149  29.042  20.224   0.740 -0.1737  0.3231 -0.1902
35238W        W78150  28.042  17.903   2.412  0.0429  0.1398 -0.4144
35239W        W78151  26.265  20.989   1.438 -0.1525  0.0331 -0.0739
35240W        W78152  28.086  20.461   1.914 -0.0798 -0.0532  0.0283
35241W        W78153  28.230  20.997   0.780  0.0681 -0.0979 -0.1253
35242W        W78154  27.291  20.084   2.011 -0.2532  0.3329 -0.0657
35243W        W78155  27.428  20.934   2.557 -0.2770  0.1639 -0.2652
35244W        W78156  27.467  19.097  31.612 -0.0698 -0.1236 -0.0857
35245W        W78157  24.448  18.414   1.343 -0.2236 -0.2804 -0.2307
35246W        W78158  28.381  20.784   1.636 -0.2130 -0.1145  0.1200
35247W        W78159  26.310  20.177  31.942 -0.0645 -0.0103  0.0406
35248W        W78160  25.825  19.615   1.054  0.1846  0.3262 -0.2211
35249W        W78161  26.126  18.702   0.627  0.2130 -0.0737 -0.1007
35250W        W78162  27.999  22.207   1.238  0.0047  0.1499 -0.2317
35251W        W78163  26.808  19.663   2.573 -0.0688  0.3677 -0.0896
35252W        W78164  28.627  17.794   3.385 -0.1306  0.0710 -0.2555
35253W        W78165  26.429  21.625   0.610  0.0445  0.0035 -0.1847
35254W        W78166  25.834  19.392  31.510  0.1693 -0.0143 -0.1057
35255W        W78167  24.920  19.637   1.860  0.0061 -0.2632 -0.1379
35256W        W78168  27.474  19.601  31.514  0.0807 -0.0011  0.4601
35257W        W78169  29.347  18.812   1.981 -0.0651 -0.0631  0.0361
35258W        W78170  28.508  20.462  31.815 -0.0587 -0.1969  0.3281
35259W        W78171  27.946  21.454   2.028 -0.2235  0.0659 -0.1827
35260W        W78172  27.630  21.080   0.539  0.0899  0.1530  0.2637
35261W        W78173  28.974  19.111   3.370  0.1855 -0.4244  0.0160
35262W        W78174  25.218  20.532   0.351  0.2158 -0.2652 -0.1993
35263W        W78175  24.528  20.872   1.477 -0.3169  0.0735  0.1332
35264W        W78176  26.216  20.297   1.722 -0.0351  0.1748  0.1607
35265W        W78177  29.150  20.842   1.807  0.2662  0.0591 -0.1266
35266W        W78178  27.875  20.936   1.568  0.2166  0.1262 -0.3109
35267W        W78179  25.938  21.710   2.725  0.1691 -0.0140 -0.1651
35268W        W78180  26.264  20.564   0.527 -0.2360 -0.1283 -0.1478
35269W        W78181  27.939  21.560   4.687  0.1716 -0.0315 -0.2039
35270W        W78182  25.463  20.707   3.153 -0.3078  0.1776 -0.1150
35271W        W78183  27.697  19.903   1.846 -0.2558 -0.2007 -0.0714
35272W        W78184  26.956  19.718   0.874  0.0446  0.0390  0.0956
35273W        W78185  26.035  20.862   0.991 -0.0808 -0.1578 -0.1033
35274W        W78186  26.007  19.155   1.245 -0.2915  0.2657 -0.1827
35275W        W78187  27.068  21.149   2.946  0.2029  0.0458 -0.2168
35276W        W78188  25.808  21.427   1.960 -0.0336  0.0129 -0.1066
35277W        W78189  28.736  19.015   4.413 -0.1109 -0.0861 -0.1136
35278W        W78190  25.160  21.430   1.374 -0.0864 -0.0099  0.2220
35279W        W78191  28.832  19.487   0.661  0.5407  0.1173 -0.0090
35280W        W78192  27.046  20.566   0.079  0.1578  0.0755 -0.0792
35281W        W78193  27.239  19.569  31.026  0.1450  0.0410 -0.0656
35282W        W78194  27.472  18.483   1.466  0.1140  0.0117  0.1548
35283W        W78195  25.096  20.940   1.716  0.0942  0.1218 -0.0438
35284W        W78196  26.334  18.926   2.043 -0.0810  0.2340 -0.2772
35285W        W78197  29.224  20.250   2.665  0.0117  0.1006 -0.1956
35286W        W78198  27.024  17.539   0.557  0.2494  0.0851 -0.0791
35287W        W78199  29.186  19.289   2.221 -0.2148  0.0371  0.1983
35288W        W78200  24.999  21.497   2.691  0.0690 -0.0192 -0.1038
35289W        W78201  25.478  19.309   1.337  0.0330  0.1381 -0.0157
35290W        W78202  29.130  22.138  31.592 -0.0771  0.1767 -0.2793
35291W        W78203  29.306  22.867   2.617  0.0981 -0.1733 -0.3674
35292W        W78204  28.260  21.851   0.665 -0.1162 -0.1830 -0.0401
35293W        W78205  25.742  20.099   1.813 -0.1587  0.1121  0.1151
35294W        W78206  25.909  20.571   1.410  0.0967 -0.2059  0.2667
35295W        W78207  25.735  19.004   3.258  0.0754 -0.1107 -0.4397
35296W        W78208  23.622  19.209  30.318 -0.1412 -0.0234 -0.2123
35297W        W78209  29.756  18.893   3.935  0.2085 -0.2445 -0.1062
35298W        W78210  25.118  22.016   3.501 -0.0170 -0.0530 -0.1173
35299W        W78211  29.935  18.686   2.530 -0.0944 -0.4061 -0.0027
35300W        W78212  27.179  21.089   0.911  0.0277 -0.3067  0.0862
35301W        W78213  27.954  19.592   2.173 -0.0384  0.0443 -0.0195
35302W        W78214  28.931  20.279  31.932  0.2088 -0.1867 -0.0774
35303W        W78215  26.562  18.416   1.198 -0.3162 -0.0771 -0.0726
35304W        W78216  27.778  18.701   1.865 -0.2557  0.0482  0.1448
35305W        W78217  26.678  20.973   0.122  0.2188  0.0868  0.0924
35306W        W78218  25.079  20.299  31.216 -0.2716  0.2476  0.0154
35307W        W78219  27.900  22.262   2.482  0.2047  0.2802 -0.1348
35308W        W78220  29.404  19.690   0.886 -0.0812 -0.2943 -0.0894
35309W        W78221  25.317  21.075   2.796 -0.1497 -0.2188 -0.1015
35310W        W78222  25.371  19.805   2.714  0.0617 -0.3741  0.2070
35311W        W78223  27.314  22.143   5.406  0.2541 -0.0535  0.2073
35312W        W78224  25.266  20.232  31.704  0.3184  0.0455  0.1222
35313W        W78225  26.253  18.414   2.192  0.1232 -0.0211  0.1339
35314W        W78226  24.846  20.320   1.067  0.1198  0.0178 -0.1134
35315W        W78227  25.434  18.129   0.607  0.1617 -0.0305  0.1901
35316W        W78228  26.643  21.379   2.683  0.0176 -0.2618  0.2276
35317W        W78229  29.681  18.518   0.737  0.1477 -0.1590 -0.0347
35318W        W78230  24.589  17.435   1.914 -0.0887  0.2918 -0.4227
35319W        W78231  28.075  19.436   1.690 -0.1527 -0.0758  0.1514
35320W        W78232  25.074  19.643   0.441 -0.1372  0.1936  0.0569
35321W        W78233  29.297  22.701   1.026  0.0974  0.3230  0.1772
35322W        W78234  28.789  19.217   2.486  0.0561  0.3320 -0.0820
35323W        W78235  28.931  19.700   0.215 -0.1507 -0.0463 -0.2911
35324W        W78236  25.323  20.217   2.990  0.4240 -0.0381  0.0334
35325W        W78237  25.069  19.452  31.018  0.1825  0.2333 -0.0625
35326W        W78238  25.282  18.407   2.418 -0.2353 -0.3649  0.0673
35327W        W78239  24.130  18.377   1.737  0.2674 -0.0247 -0.2530
35328W        W78240  29.849  18.596   4.294  0.0463  0.0413 -0.1915
35329W        W78241  23.336  18.453   0.375  0.1435  0.1604  0.1941
35330W        W78242  28.328  20.246   2.377 -0.0602  0.1111 -0.1175
35331W        W78243  26.365  19.602  31.639  0.1444 -0.1421  0.1846
35332W        W78244  22.648  18.791   0.029 -0.0214  0.0052  0.2308
35333W        W78245  28.455  18.157   1.603  0.1609 -0.4635  0.2257
35334W        W78246  27.746  22.735  31.838 -0.3275 -0.2346 -0.2379
35335W        W78247  27.932  23.469   2.886 -0.2506 -0.1300  0.2266
35336W        W78248  28.302  21.898   1.605 -0.1057  0.1181 -0.0823
35337W        W78249  26.347  18.874   2.554  0.2506  0.1515 -0.1587
35338W        W78250  26.738  18.423  31.294  0.0200 -0.0824 -0.1570
35339W        W78251  24.773  22.491   0.829 -0.0986 -0.0268  0.0580
35340W        W78252  27.522  20.764   1.193 -0.1599  0.1862 -0.0299
35341W        W78253  26.548  18.145  31.895  0.0557  0.1559 -0.2742
35342W        W78254  27.086  21.297   2.430 -0.0663  0.0142  0.3842
35343W        W78255  27.411  18.823   0.942 -0.0644  0.1410 -0.1498
35344W        W78256  25.013  20.273   2.577 -0.0612  0.6538  0.0134
35345W        W78257  28.957  18.377   2.178 -0.1981 -0.1059  0.0718
35346W        W78258  29.499  20.503   3.801 -0.4098  0.1467 -0.1187
35347W        W78259  27.508  20.077   0.679 -0.1261 -0.4135  0.0807
35348W        W78260  25.306  19.217  29.691  0.0924 -0.3144 -0.0697
35349W        W78261  28.409  20.544  31.180  0.1871  0.0722 -0.1135
35350W        W78262  25.943  20.981   0.251 -0.0402  0.0553  0.2963
35351W        W78263  24.720  20.261  31.622  0.4997 -0.0032  0.2347
35352W        W78264  26.951  21.838   1.785 -0.1652 -0.1719 -0.1924
35353W        W78265  27.672  19.272   3.106 -0.1908 -0.1056  0.2219
35354W        W78266  24.329  20.251   3.730 -0.1899 -0.0135  0.1211
35355W        W78267  27.817  19.088   2.665 -0.0089 -0.0665 -0.0255
35356W        W78268  23.797  20.273   0.185  0.0287 -0.4294  0.0998
35357W        W78269  24.885  20.644   2.927 -0.1276  0.0622 -0.0187
35358W        W78270  26.887  19.190   1.638 -0.0414 -0.2215  0.2825
35359W        W78271  28.380  18.789   2.121 -0.1405 -0.0262 -0.1157
35360W        W78272  27.213  21.113   4.016  0.2202  0.2749 -0.0938
35361W        W78273  28.928  21.655   2.128  0.1313 -0.0778 -0.1415
35362W        W78274  28.157  21.018   2.108  0.0709  0.3704 -0.0079
35363W        W78275  26.622  18.796   0.455 -0.1424 -0.2911 -0.4141
35364W        W78276  24.780  20.195   3.774 -0.0257 -0.0215  0.0134
35365W        W78277  26.711  20.264   0.209 -0.0474  0.1245 -0.0231
35366W        W78278  27.544  20.241   2.643 -0.0630 -0.1075 -0.0787
35367W        W78279  27.760  17.931   0.980 -0.3279  0.2746  0.0740
35368W        W78280  30.466  21.794   1.548 -0.2415 -0.0051 -0.2550
35369W        W78281  26.510  20.569   1.426  0.0994 -0.0320 -0.2294
35370W        W78282  27.441  19.907   3.903 -0.2949  0.0552 -0.0584
35371W        W78283  29.120  21.117   0.742 -0.1598 -0.0056 -0.5472
35372W        W78284  27.496  17.474   3.151 -0.0814  0.1511  0.1733
35373W        W78285  25.915  19.947   0.254 -0.3816 -0.1453  0.0597
35374W        W78286  27.423  20.166   1.532  0.3894 -0.3597 -0.2118
35375W        W78287  24.362  22.604   0.491  0.0531 -0.0648  0.1973
35376W        W78288  28.455  18.122   0.677  0.1204  0.0228  0.0120
35377W        W78289  26.879  19.182   1.122  0.0670  0.2284 -0.4302
35378W        W78290  25.450  19.637   1.741  0.2172 -0.1501  0.1509
35379W        W78291  28.887  19.880   3.194  0.1802 -0.1172  0.1403
35380W        W78292  27.941  18.935  31.572  0.3293 -0.0558 -0.1332
35381W        W78293  28.347  19.012   2.624 -0.0197 -0.1086 -0.0850
35382W        W78294  26.390  20.025   0.514  0.1010  0.0587 -0.0626
35383W        W78295  26.942  19.358   3.078  0.0887  0.0471  0.1349
35384W        W78296  25.841  18.764   2.692  0.1995  0.1718 -0.0459
35385W        W78297  25.232  21.185   2.313 -0.1832 -0.0365  0.1464
35386W        W78298  27.516  20.526   2.143 -0.1674 -0.1846  0.3418
35387W        W78299  27.315  19.009   1.402  0.1807  0.3845 -0.0872
35388W        W78300  27.277  18.639   3.417  0.0007 -0.3283  0.1410
35389W        W78301  27.214  18.592   0.573  0.0770  0.0651 -0.0634
35390W        W78302  26.268  22.082   0.423 -0.0467 -0.0429 -0.3134
35391W        W78303  25.627  20.652   1.884  0.0972 -0.4140 -0.1091
35392W        W78304  25.567  17.884   2.273  0.0544  0.1039  0.0252
35393W        W78305  27.524  19.307   2.193 -0.0664 -0.1485 -0.1232
35394W        W78306  26.426  23.134  31.684  0.1448 -0.2958 -0.3057
35395W        W78307  26.884  20.434   1.727  0.1624  0.4575  0.0177
35396W        W78308  25.629  21.113   1.588  0.0736  0.3390  0.0208
35397W        W78309  29.844  18.158   2.502  0.1248  0.1760 -0.2269
35398W        W78310  25.958  20.060   0.728  0.0835  0.1890  0.0799
35399W        W78311  26.139  19.093  31.763  0.3450 -0.1692 -0.0780
35400W        W78312  25.944  19.845  31.705 -0.1101 -0.0386 -0.2333
35401W        W78313  29.879  18.624   1.933 -0.0842 -0.1223 -0.3420
35402W        W78314  27.977  18.999   0.790  0.0021  0.2481  0.3043
35403W        W78315  26.983  18.115  31.604 -0.2956  0.1748 -0.1000
35404W        W78316  28.840  18.983   1.985  0.0312 -0.1736  0.0152
35405W        W78317  24.750  22.149   1.946  0.3205 -0.0876  0.0037
35406W        W78318  28.583  19.428   3.489 -0.0681  0.4535 -0.0866
35407W        W78319  29.059  18.064  31.883 -0.1803  0.4019  0.1075
35408W        W78320  27.865  19.828   1.414  0.5468  0.1926 -0.2015
35409W        W78321  26.175  20.384   2.648  0.2593 -0.2142 -0.0008
35410W        W78322  25.300  19.396  31.495  0.0769  0.3175  0.0137
35411W        W78323  27.167  18.156   2.323  0.3176 -0.0028  0.0709
35412W        W78324  26.759  19.427   0.246 -0.1845 -0.0332  0.0102
35413W        W78325  24.418  20.080   0.978  0.0123  0.1457 -0.0070
35414W        W78326  26.770  19.155   2.146  0.0657  0.0983  0.0912
35415W        W78327  25.011  19.837  31.401 -0.0500 -0.0780 -0.0624
35416W        W78328  27.102  22.517   0.852  0.1784  0.1840  0.4668
35417W        W78329  26.467  18.162   3.085  0.4865  0.0307  0.1946
35418W        W78330  27.264  19.287   2.595 -0.0550  0.2435  0.0009
35419W        W78331  26.499  19.360   1.351  0.2897 -0.1573 -0.1568
35420W        W78332  26.334  19.623   0.150  0.1081 -0.0342  0.0025
35421W        W78333  27.204  18.974   1.952 -0.1401 -0.0399  0.2375
35422W        W78334  27.129  20.022   2.541 -0.0547 -0.0972  0.0247
35423W        W78335  27.655  20.008   3.134  0.0433  0.0799 -0.0503
35424W        W78336  26.531  20.769   3.504  0.0245 -0.0144 -0.0001
35425W        W78337  27.342  18.521   2.004  0.0430 -0.4224 -0.0253
35426W        W78338  29.563  21.518   1.861  0.2371  0.0959 -0.1333
35427W        W78339  27.562  19.743   2.427 -0.1092  0.0862 -0.0064
35428W        W78340  25.283  20.062   0.199 -0.1109 -0.4348  0.5064
35429W        W78341  25.196  20.683   0.860 -0.1443  0.4487  0.0621
35430W        W78342  25.634  20.436   0.922 -0.0671  0.1604  0.0122
35431W        W78343  26.892  17.756   2.435  0.2640 -0.3141 -0.1082
35432W        W78344  25.976  20.333   2.192 -0.0891 -0.0625 -0.0760
35433W        W78345  25.717  20.364   0.439  0.1379  0.2809  0.4006
35434W        W78346  26.020  20.598   3.086  0.0942 -0.2364  0.1399
35435W        W78347  29.138  17.814   1.167  0.0365 -0.2395 -0.2175
35436W        W78348  28.509  21.429   0.842 -0.0766 -0.1973  0.0963
35437W        W78349  28.950  18.665   2.925  0.0402  0.1569  0.3157
35438W        W78350  29.377  18.733   3.418  0.0074  0.2219 -0.1620
35439W        W78351  27.154  20.176   1.115  0.0183 -0.2879  0.1894
35440W        W78352  28.032  18.611   2.473 -0.1282 -0.1222 -0.0874
35441W        W78353  27.092  19.794   1.557  0.4180 -0.1016 -0.1047
35442W        W78354  28.116  20.072   1.114  0.2055 -0.0964  0.1662
35443W        W78355  25.945  19.441   1.642 -0.0111 -0.0111  0.1872
35444W        W78356  27.261  22.512   3.516 -0.0343  0.0171 -0.0593
35445W        W78357  26.011  18.759   3.632 -0.1022 -0.1758 -0.1528
35446W        W78358  27.731  19.111   1.595 -0.0224  0.2480  0.0561
35447W        W78359  26.339  17.581  31.832 -0.2175 -0.0642 -0.2586
35448W        W78360  28.092  19.988   2.748  0.0429 -0.1290 -0.0108
35449W        W78361  28.938  21.012   2.378 -0.2080 -0.1850  0.1807
35450W        W78362  27.717  19.996   0.239 -0.1291 -0.0538 -0.0595
35451W        W78363  29.089  18.789   2.409  0.2691 -0.0107  0.0749
35452W        W78364  26.213  20.854   2.400  0.0358 -0.1341 -0.0963
35453W        W78365  28.387  19.686   0.819  0.0640 -0.2046 -0.1722
35454W        W78366  28.545  20.269   0.889 -0.1240  0.0379 -0.2063
35455W        W78367  26.115  20.803   1.919  0.0888 -0.0897 -0.2094
35456W        W78368  26.790  19.894   3.082  0.0634  0.0923  0.0424
35457W        W78369  27.240  19.663   0.404 -0.1402  0.1467  0.2995
35458W        W78370  26.629  20.090   1.487 -0.2616  0.1325 -0.3006
35459W        W78371  29.036  18.252   2.620  0.1205  0.0856 -0.2244
35460W        W78372  28.409  19.315   2.059 -0.0106 -0.0299 -0.0103
35461W        W78373  27.455  19.758   1.182 -0.3202  0.0481 -0.0556
35462W        W78374  26.424  18.032   1.917  0.2519 -0.0324  0.0728
35463W        W78375  27.415  22.559   2.599 -0.2868 -0.0664 -0.0733
35464W        W78376  28.638  19.422   1.146 -0.1094  0.2623 -0.1133
35465W        W78377  27.568  18.793   2.983  0.0045 -0.1589  0.1260
35466W        W78378  28.819  20.113   2.310 -0.2172 -0.1519  0.1511
35467W        W78379  27.546  19.334   0.592 -0.0609  0.0614  0.0636
35468W        W78380  25.464  18.551   0.093 -0.1524  0.0445 -0.0614
35469W        W78381  28.459  19.905   3.674 -0.3117 -0.0896  0.1350
35470W        W78382  26.430  18.504  30.285 -0.2263 -0.1595 -0.2078
35471W        W78383  29.453  18.450   2.320 -0.1407  0.0768  0.5297
35472W        W78384  26.647  22.291   0.704  0.1238  0.2552  0.0316
35473W        W78385  27.730  20.560   0.430  0.2455 -0.0300  0.1921
35474W        W78386  27.181  18.041   0.601  0.0024 -0.1193 -0.1785
35475W        W78387  25.879  19.143   0.740 -0.0736  0.1029  0.4310
35476W        W78388  24.670  21.550   3.116  0.0233  0.2452  0.1843
35477W        W78389  24.564  19.686  29.163  0.0808 -0.0692  0.2992
35478W        W78390  27.571  19.085  31.127  0.0725 -0.0102 -0.1869
35479W        W78391  26.524  20.877   1.051 -0.0612 -0.1175 -0.1938
35480W        W78392  28.779  19.994   4.008 -0.1423  0.1618 -0.1954
35481W        W78393  27.051  18.167   1.179  0.0718  0.2559  0.3861
35482W        W78394  30.005  19.526   2.717  0.0644  0.0040  0.1588
35483W        W78395  25.030  20.977   0.112 -0.1603  0.1787 -0.2162
35484W        W78396  27.654  18.795   0.526  0.0414  0.0299  0.2602
35485W        W78397  26.741  21.117   1.412  0.2350 -0.2578  0.4523
35486W        W78398  24.017  20.420   0.659 -0.1574  0.0543  0.1566
35487W        W78399  27.592  22.505   1.154  0.3887  0.3540 -0.0509
35488W        W78400  27.953  19.047   2.151  0.0205 -0.0598 -0.0641
35489W        W78401  27.685  18.265   2.285 -0.0686  0.0203 -0.0084
35490W        W78402  26.803  20.081   2.103  0.1192 -0.0824 -0.2001
35491W        W78403  28.592  20.049   2.818 -0.0509 -0.2723  0.0549
35492W        W78404  26.616  20.889   1.804 -0.0629 -0.3565 -0.4273
35493W        W78405  25.187  20.694   2.196  0.0560  0.2114  0.1112
35494W        W78406  28.420  19.674   2.481 -0.0682  0.0940  0.0017
35495W        W78407  28.786  20.507   1.700  0.2299  0.0565 -0.2106
35496W        W78408  25.161  21.243   0.705  0.0701 -0.3279 -0.3500
35497W        W78409  24.489  17.633   2.360 -0.1407  0.2142  0.0511
35498W        W78410  27.143  19.718   3.449 -0.2240 -0.4484  0.1447
35499W        W78411  27.331  20.622   0.720  0.0804  0.0002 -0.2070
35500W        W78412  26.566  17.904   1.044  0.0467  0.2352 -0.0852
35501W        W78413  28.590  21.063   1.225  0.1176 -0.0291 -0.0243
35502W        W78414  25.587  21.559   4.892  0.0049 -0.0400  0.0771
35503W        W78415  25.627  19.653   0.520 -0.0541  0.0743  0.0939
35504W        W78416  26.993  22.293   0.338 -0.1521 -0.2144  0.1703
35505W        W78417  27.139  20.925   2.024  0.0096  0.1463  0.0556
35506W        W78418  28.337  19.893   2.019  0.0976 -0.0545  0.0142
35507W        W78419  26.576  21.192   2.230 -0.0589 -0.0310 -0.0074
35508W        W78420  26.727  18.343   0.686  0.4952  0.1055 -0.2609
35509W        W78421  24.848  21.789   1.596 -0.3205  0.1035 -0.2328
35510W        W78422  25.575  22.957   0.567  0.0991 -0.0016  0.2395
35511W        W78423  28.495  22.443  31.228 -0.1488  0.0654  0.0873
35512W        W78424  27.600  21.324   1.112 -0.0409 -0.0148  0.0974
35513W        W78425  29.088  19.155   2.907 -0.2321  0.3775 -0.1329
35514W        W78426  27.843  19.550  31.868 -0.1715  0.1426  0.1437
35515W        W78427  29.124  19.252   1.054  0.0998 -0.0433  0.1193
35516W        W78428  27.642  19.126   0.126  0.0492 -0.1325 -0.3106
35517W        W78429  26.849  21.826   4.468 -0.0164  0.2714  0.0343
35518W        W78430  27.406  20.605   1.631  0.1212 -0.0997 -0.1853
35519W        W78431  27.078  19.079   0.638 -0.3019 -0.1026 -0.0283
35520W        W78432  26.506  20.568   2.150  0.0992 -0.0524 -0.1720
35521W        W78433  29.958  17.989   4.073  0.0600 -0.0212 -0.2175
35522W        W78434  25.622  21.409   2.479  0.0186 -0.0630 -0.2200
35523W        W78435  29.424  21.478   1.299  0.2489  0.0377  0.0301
35524W        W78436  23.854  19.008  31.899  0.0047  0.1244 -0.2182
35525W        W78437  25.167  19.308  31.978 -0.1105 -0.2916 -0.0519
35526W        W78438  29.970  17.323   2.631  0.3280  0.1402 -0.0415
35527W        W78439  27.754  21.957   0.867 -0.1953  0.0429  0.3032
35528W        W78440  28.226  18.882   1.588 -0.1349  0.1443  0.1156
35529W        W78441  27.273  19.722   2.944  0.0057 -0.1202  0.1709
35530W        W78442  25.373  21.886   2.057  0.0453  0.0140 -0.2046
35531W        W78443  25.610  21.702   1.599 -0.1857 -0.1793  0.2778
35532W        W78444  24.886  19.901  31.961 -0.1229 -0.2548 -0.0487
35533W        W78445  28.649  19.232   1.591 -0.2591 -0.3132 -0.2113
35534W        W78446  25.480  20.256   2.213  0.0810  0.0346  0.0323
35535W        W78447  30.175  19.150   3.157 -0.1643  0.0927 -0.2027
35536W        W78448  26.212  19.871   1.475  0.4507  0.1100  0.0014
35537W        W78449  27.670  18.269   0.543 -0.0633 -0.1715  0.0560
35538W        W78450  26.892  20.762   4.310 -0.2705 -0.0602  0.4732
35539W        W78451  26.345  19.386   2.469  0.0731  0.0765  0.2177
35540W        W78452  25.509  21.060   1.105  0.0476  0.0334  0.0338
35541W        W78453  29.123  20.758   3.527 -0.3832  0.2430  0.0874
35542W        W78454  28.063  20.194   0.631 -0.0417 -0.2773  0.1788
35543W        W78455  27.502  21.117   3.235  0.0886 -0.0173 -0.1502
35544W        W78456  24.652  18.782   1.043  0.1117  0.1742  0.0821
35545W        W78457  26.614  20.480  30.036 -0.1446 -0.1312 -0.0753
35546W        W78458  25.024  20.693  31.697  0.1899  0.1831 -0.2369
35547W        W78459  28.349  20.564   2.815  0.1048 -0.1039 -0.0927
35548W        W78460  27.650  21.025   4.178 -0.1753  0.1669 -0.0072
35549W        W78461  24.491  19.638   0.589  0.2494  0.0421  0.1081
35550W        W78462  28.885  20.694   0.627  0.0683 -0.1933  0.1316
35551W        W78463  28.434  21.541   2.287  0.3327  0.1652  0.3923
35552W        W78464  27.818  21.638   0.231 -0.0185  0.1403  0.0294
35553W        W78465  28.379  19.787   1.432  0.1647 -0.1421 -0.0443
35554W        W78466  27.152  20.622  31.572 -0.0366  0.2918 -0.0283
35555W        W78467  26.454  18.886   1.044 -0.0473 -0.2036  0.1636
35556W        W78468  28.688  21.583   1.631 -0.3427  0.2405  0.0275
35557W        W78469  29.313  19.902   2.233  0.1620 -0.1339 -0.0865
35558W        W78470  26.720  17.685   1.908 -0.0796  0.2427 -0.2257
35559W        W78471  25.623  19.142   1.838 -0.4569  0.0547 -0.0597
35560W        W78472  25.008  20.987   1.214  0.1880  0.2517 -0.1479
35561W        W78473  29.446  18.866   1.068  0.1340  0.0766 -0.1213
35562W        W78474  28.907  19.654   1.495 -0.0902 -0.2565  0.0839
35563W        W78475  28.138  20.936  31.243  0.1369 -0.2814  0.1596
35564W        W78476  29.797  19.329   3.748 -0.1847 -0.0090 -0.0927
35565W        W78477  27.504  21.365   3.654 -0.0812 -0.1265  0.0597
35566W        W78478  26.017  21.017   3.342 -0.0123  0.0277  0.0806
35567W        W78479  25.033  19.563  30.048 -0.0664 -0.1081  0.1456
35568W        W78480  25.964  19.374   2.130  0.2046  0.1586  0.0851
35569W        W78481  26.981  20.144   0.651 -0.0038 -0.2395  0.2043
35570W        W78482  26.984  20.698   1.198 -0.1586 -0.2307 -0.1495
35571W        W78483  28.904  21.520   1.193 -0.1599 -0.4141 -0.2011
35572W        W78484  26.097  19.572   0.580 -0.0385  0.3167  0.1456
35573W        W78485  28.759  22.504   2.029 -0.3406  0.2325 -0.0642
35574W        W78486  26.890  17.038   0.656 -0.0143  0.1145 -0.1713
35575W        W78487  29.632  18.553   1.362 -0.0851 -0.2068 -0.1439
35576W        W78488  28.766  18.474   0.887 -0.1030  0.0473 -0.1366
35577W        W78489  26.632  21.227   3.200 -0.0291  0.1740 -0.0423
35578W        W78490  25.230  20.079   1.739  0.0020 -0.1514 -0.0499
35579W        W78491  26.188  20.266   1.189  0.0434  0.1897  0.1391
35580W        W78492  26.430  19.812   1.005 -0.1795  0.1029  0.2724
35581W        W78493  27.529  18.022   5.004 -0.0244  0.1443  0.0686
35582W        W78494  24.423  19.765   2.015  0.0654  0.0790  0.0800
35583W        W78495  26.065  18.602   1.185 -0.5515  0.2075  0.0273
35584W        W78496  26.363  18.352   0.309 -0.2883 -0.0321 -0.4329
35585W        W78497  28.234  20.671   1.167 -0.1807  0.0027 -0.2814
35586W        W78498  26.193  18.382   1.673  0.1290 -0.2927 -0.1373
35587W        W78499  24.488  18.567   2.098 -0.4463 -0.1685  0.0772
35588W        W78500  28.721  21.710   0.462  0.2021  0.0353  0.1836
35589W        W78501  29.036  21.968   1.375  0.2526  0.2919  0.1083
35590W        W78502  26.110  17.676   0.895  0.2213 -0.0941 -0.4970
35591W        W78503  28.688  20.498   3.751 -0.1488 -0.2240  0.1196
35592W        W78504  26.198  19.860   2.099 -0.2022 -0.1317 -0.0357
35593W        W78505  26.347  19.872   2.568  0.2286 -0.0515 -0.2872
35594W        W78506  27.236  17.755   4.050 -0.1497 -0.0051  0.0301
35595W        W78507  22.560  18.233  31.720  0.0726 -0.0746  0.2518
35596W        W78508  25.657  19.782   2.213 -0.0451 -0.3641 -0.0325
35597W        W78509  28.068  20.361   0.117  0.0353  0.1382 -0.2080
35598W        W78510  28.613  21.485  31.932  0.1366 -0.1483  0.0773
35599W        W78511  25.746  20.136   2.591 -0.0299  0.3081 -0.2092
35600W        W78512  25.563  22.210   3.696 -0.3478  0.0805 -0.0764
35601W        W78513  25.729  19.153   2.465  0.0125 -0.0879 -0.0548
35602W        W78514  28.389  19.675  31.508 -0.0560 -0.1592  0.0139
35603W        W78515  27.899  20.933   3.522 -0.0095  0.0999 -0.0816
35604W        W78516  28.678  20.902   0.010 -0.0066  0.0310 -0.0249
35605W        W78517  28.962  18.156   1.775 -0.0550  0.3973 -0.0220
35606W        W78518  27.030  18.646  31.707 -0.1690  0.3238  0.1299
35607W        W78519  25.784  17.454   4.122 -0.3648  0.1813  0.1901
35608W        W78520  26.025  20.045   3.017 -0.2154  0.0216 -0.1154
35609W        W78521  29.617  18.970   4.527  0.1685  0.1771  0.0995
35610W        W78522  26.723  18.055   1.516 -0.0757  0.2594 -0.0286
35611W        W78523  26.964  18.761   2.383  0.4249  0.0352  0.0909
35612W        W78524  26.748  20.790   0.643 -0.0563 -0.2542  0.0253
35613W        W78525  25.358  19.383   0.811 -0.0163  0.2242 -0.2936
35614W        W78526  26.775  18.623   1.946  0.0971 -0.2379  0.0631
35615W        W78527  27.789  18.758   1.242  0.1936 -0.1604  0.1073
35616W        W78528  27.147  20.966   0.366 -0.0701  0.0911  0.0486
35617W        W78529  27.839  20.670   2.533 -0.0342  0.2064  0.1178
35618W        W78530  26.518  19.306   0.752 -0.1965  0.0740  0.1712
35619W        W78531  30.609  20.875   0.480 -0.3041  0.0383 -0.0546
35620W        W78532  27.408  21.501   1.841 -0.1008  0.0582  0.0151
35621W        W78533  28.621  20.980   3.771  0.1073 -0.2681  0.0106
35622W        W78534  25.797  20.894   2.805 -0.1166 -0.2704  0.1839
35623W        W78535  26.267  21.270   1.873  0.0750 -0.0162  0.0142
35624W        W78536  26.513  17.739   3.338 -0.0645  0.2220 -0.0949
35625W        W78537  26.378  21.174   0.578 -0.0481 -0.1036 -0.1987
35626W        W78538  26.671  20.348   0.977 -0.5220  0.1335 -0.1006
35627W        W78539  28.576  18.983   3.064 -0.1047 -0.1230 -0.0511
35628W        W78540  26.213  18.412   2.712  0.3271  0.0850 -0.0004
35629W        W78541  28.025  17.913   0.587 -0.0983 -0.0892 -0.2342
35630W        W78542  26.305  21.747   3.638 -0.1781  0.0448  0.2093
35631W        W78543  26.360  21.436   1.085 -0.1163  0.2159  0.1925
35632W        W78544  25.882  19.458   5.986  0.1624  0.1322 -0.1585
35633W        W78545  25.297  18.946   2.769 -0.0021  0.1747  0.1089
35634W        W78546  29.203  20.564   3.094 -0.2076  0.1077  0.1017
35635W        W78547  28.766  18.167   3.692 -0.1787  0.3051 -0.0010
35636W        W78548  26.330  18.115   4.425 -0.0958  0.0984 -0.2444
35637W        W78549  28.165  21.085   4.096  0.0031 -0.3322  0.1211
35638W        W78550  26.489  18.601   7.500 -0.0782 -0.0817  0.2373
35639W        W78551  27.735  21.348   5.575  0.0213 -0.2983 -0.0082
35640W        W78552  27.873  21.423   6.123  0.0487 -0.0070  0.1744
35641W        W78553  27.501  20.667   3.016  0.1564  0.0454  0.1726
35642W        W78554  26.987  18.713   4.811  0.2354  0.1078  0.0047
35643W        W78555  26.491  20.223   6.934 -0.3115 -0.1764  0.3573
35644W        W78556  26.330  18.005   3.792 -0.0332 -0.1075  0.0026
35645W        W78557  26.181  17.977   4.944 -0.2772 -0.0938 -0.1035
35646W        W78558  28.530  20.879   5.711  0.1210  0.1735  0.0117
35647W        W78559  25.241  20.055   6.438 -0.2961 -0.1366 -0.3509
35648W        W78560  27.020  19.575   5.092  0.5790  0.0018  0.2068
35649W        W78561  26.067  18.404   4.018  0.0185  0.0638 -0.1526
35650W        W78562  25.844  20.739   4.259  0.2582  0.0624  0.0206
35651W        W78563  27.064  18.257   6.896 -0.0631  0.0890  0.1036
35652W        W78564  27.313  19.241   7.284  0.0221  0.3389  0.0421
35653W        W78565  27.569  20.342   5.529  0.0725 -0.1457  0.2150
35654W        W78566  26.554  18.834   1.537  0.0311 -0.0763 -0.3153
35655W        W78567  25.721  19.022   5.728 -0.1821  0.2893 -0.1244
35656W        W78568  27.372  19.406   5.444  0.3063  0.0585 -0.3530
35657W        W78569  28.616  18.974   5.312 -0.3422  0.0958  0.0043
35658W        W78570  30.131  20.570   5.429  0.1884  0.6677 -0.2432
35659W        W78571  26.569  20.924   5.593  0.0370  0.2661  0.0926
35660W        W78572  27.961  20.714   4.880 -0.1609  0.1686  0.1726
35661W        W78573  29.612  19.623   8.507  0.3242  0.0033 -0.1613
35662W        W78574  25.427  20.145   5.919  0.1488 -0.2034 -0.1984
35663W        W78575  24.322  21.733   6.397  0.2397  0.1783  0.1138
35664W        W78576  26.243  19.209   4.452 -0.0484 -0.4400 -0.1523
35665W        W78577  29.367  20.697   4.928 -0.0495  0.1942  0.0697
35666W        W78578  26.154  20.959   6.073 -0.2005  0.0274  0.0370
35667W        W78579  26.693  21.153   6.975 -0.3170 -0.1176 -0.0370
35668W        W78580  25.141  20.258   4.395 -0.0514 -0.0069  0.1710
35669W        W78581  26.912  22.598   7.699 -0.2051  0.3108  0.5120
35670W        W78582  26.223  21.446   7.651 -0.0457 -0.0294 -0.1709
35671W        W78583  27.534  19.803   5.880  0.2589  0.1651  0.3407
35672W        W78584  26.903  20.048   4.782  0.0357  0.0405 -0.1152
35673W        W78585  27.583  20.652   4.520  0.2664  0.2571  0.0580
35674W        W78586  26.455  19.964   4.392 -0.1198 -0.1243 -0.3760
35675W        W78587  26.300  20.402   7.389 -0.0383  0.1991 -0.3303
35676W        W78588  25.340  21.067   5.076 -0.0378 -0.1627 -0.0736
35677W        W78589  28.708  19.578   5.253  0.1571 -0.2122  0.0797
35678W        W78590  25.685  20.727   3.759  0.1021 -0.0107 -0.1638
35679W        W78591  27.066  18.636   3.917  0.2812 -0.0124  0.1256
35680W        W78592  26.776  20.292   3.504 -0.0539 -0.0038  0.1744
35681W        W78593  28.821  18.191   4.174  0.1799 -0.4748  0.0874
35682W        W78594  26.997  18.258   4.661  0.0294  0.2409 -0.2017
35683W        W78595  25.927  21.716   6.499 -0.0160 -0.2698  0.1687
35684W        W78596  26.599  18.079   5.712 -0.1852 -0.2200 -0.1623
35685W        W78597  28.862  21.224   5.921 -0.4463  0.0658  0.3341
35686W        W78598  26.795  19.025   3.721  0.1525  0.2402 -0.0011
35687W        W78599  27.319  19.384   6.013  0.2059 -0.2016 -0.2254
35688W        W78600  25.885  21.718   5.450 -0.2831 -0.2014 -0.1324
35689W        W78601  25.393  18.979   4.975 -0.1460 -0.3027 -0.0806
35690W        W78602  28.679  20.385   3.224  0.1047  0.0290 -0.1114
35691W        W78603  27.889  21.143   5.159 -0.2402 -0.0407 -0.0858
35692W        W78604  26.929  21.305   4.464  0.0323 -0.1944 -0.0592
35693W        W78605  26.187  18.776   5.627 -0.0519 -0.0183  0.1491
35694W        W78606  24.635  18.673   6.374 -0.3390  0.1211 -0.0968
35695W        W78607  25.622  19.960   6.838  0.0306 -0.2590  0.0554
35696W        W78608  27.774  16.984   3.709 -0.0677  0.0966  0.1595
35697W        W78609  29.116  19.760   6.614 -0.0813 -0.2444  0.0569
35698W        W78610  25.810  20.843   6.726  0.0091 -0.0050  0.3088
35699W        W78611  29.695  20.312   5.155  0.0224  0.0637 -0.2010
35700W        W78612  26.484  20.655   5.151  0.0964  0.0051 -0.1088
35701W        W78613  28.760  21.211   6.455 -0.2119 -0.1819 -0.4057
35702W        W78614  28.391  19.777   3.184  0.0353  0.1710 -0.2475
35703W        W78615  29.022  18.005   5.863  0.1685  0.2710  0.0753
35704W        W78616  28.010  18.085   5.884  0.1100  0.0269  0.1730
35705W        W78617  25.890  20.338   3.981 -0.1223  0.0898 -0.0588
35706W        W78618  25.927  19.992   4.339 -0.0983 -0.0501 -0.1183
35707W        W78619  29.545  20.715   5.413 -0.0560 -0.2216 -0.0012
35708W        W78620  27.657  19.465   3.753 -0.2847  0.0812 -0.3000
35709W        W78621  25.998  20.328   6.167  0.1276 -0.1748 -0.1852
35710W        W78622  27.260  20.080   6.680 -0.2345  0.0160 -0.0999
35711W        W78623  26.978  21.598   6.823  0.0053 -0.0238  0.0209
35712W        W78624  25.509  21.609   3.635  0.0380  0.2155 -0.1278
35713W        W78625  26.029  19.961   5.793 -0.0770 -0.0043 -0.1123
35714W        W78626  24.727  19.791   3.546  0.1092  0.2323  0.1860
35715W        W78627  26.586  18.351   7.096  0.2338  0.0951 -0.2666
35716W        W78628  26.734  19.880   5.477  0.1931 -0.1479  0.1445
35717W        W78629  28.712  19.311   4.845 -0.0196 -0.0501  0.0276
35718W        W78630  27.034  18.491   6.137 -0.0883  0.0107  0.1805
35719W        W78631  30.389  18.295   4.382  0.0070 -0.4132 -0.2228
35720W        W78632  25.619  20.368   4.534 -0.2336 -0.1319 -0.0549
35721W        W78633  27.122  21.738   5.773  0.1912  0.0883 -0.2660
35722W        W78634  27.738  18.329   2.807 -0.2514  0.0239 -0.2456
35723W        W78635  27.182  21.904   3.617  0.0961  0.0003  0.0442
35724W        W78636  26.762  19.014   6.090  0.4131  0.1106 -0.3173
35725W        W78637  26.067  19.698   5.293  0.0956 -0.1180  0.1831
35726W        W78638  27.483  18.290   6.064  0.1563 -0.0032  0.0295
35727W        W78639  24.721  18.538   5.573 -0.0655  0.2148 -0.1181
35728W        W78640  29.523  21.031   6.662 -0.0137 -0.0043  0.1018
35729W        W78641  26.836  17.758   3.695  0.4056 -0.0602 -0.0354
35730W        W78642  29.124  18.991   4.696 -0.4108 -0.1348  0.3282
35731W        W78643  26.167  19.651   4.639  0.0899  0.1359  0.2697
35732W        W78644  26.057  19.493   3.403  0.1968  0.1309  0.1339
35733W        W78645  28.878  18.229   7.375  0.2858  0.2599  0.0114
35734W        W78646  28.476  20.658   5.230  0.0068  0.1311 -0.1761
35735W        W78647  28.386  21.242   6.054 -0.0056  0.1527  0.4432
35736W        W78648  28.284  21.882   6.218  0.0304  0.2783  0.0071
35737W        W78649  28.386  18.794   6.005 -0.2124 -0.1614  0.1316
35738W        W78650  26.185  18.327   3.431 -0.1544  0.6375  0.1840
35739W        W78651  25.823  22.103   4.626  0.2311 -0.2374 -0.1635
35740W        W78652  27.603  20.273   4.873  0.1739 -0.0009 -0.0676
35741W        W78653  26.239  19.199   3.783  0.0257  0.1636  0.3689
35742W        W78654  28.835  20.393   6.055 -0.1351  0.0198  0.2622
35743W        W78655  27.045  19.489   3.862 -0.0462  0.2934 -0.2839
35744W        W78656  26.286  19.097   5.997 -0.0639  0.0339  0.1335
35745W        W78657  28.965  19.042   7.193 -0.1125 -0.1531 -0.0247
35746W        W78658  28.413  19.795   5.814  0.1100  0.0159 -0.4319
35747W        W78659  28.444  20.029   4.804 -0.0970  0.3309 -0.1191
35748W        W78660  26.995  17.709   3.131  0.0973 -0.0805 -0.1011
35749W        W78661  27.939  21.656   5.252  0.2389 -0.0088 -0.1360
35750W        W78662  25.194  21.192   3.911  0.5552  0.2605  0.1838
35751W        W78663  25.101  19.364   5.310 -0.1219 -0.0034 -0.0184
35752W        W78664  27.428  20.681   5.109  0.2201 -0.0597  0.0894
35753W        W78665  29.085  19.198   6.721 -0.1230 -0.0665  0.0903
35754W        W78666  25.258  19.631   6.697  0.1462  0.0476 -0.1340
35755W        W78667  28.443  19.269   5.676 -0.2051 -0.1439  0.2224
35756W        W78668  26.370  19.921   3.425 -0.3910  0.3181  0.0261
35757W        W78669  26.120  20.753   5.486 -0.1114  0.0304 -0.1074
35758W        W78670  28.304  18.874   3.578  0.0674  0.1422 -0.0467
35759W        W78671  29.735  18.411   3.685  0.0940  0.1903 -0.0279
35760W        W78672  26.796  20.122   6.563  0.1939 -0.2655  0.0375
35761W        W78673  28.408  20.511   4.692  0.3633  0.2985 -0.1561
35762W        W78674  27.059  19.574   2.088 -0.2396  0.1379 -0.0411
35763W        W78675  27.283  18.456   2.711 -0.0449 -0.1583  0.0159
35764W        W78676  25.906  18.796   6.133  0.2147  0.2105 -0.2275
35765W        W78677  27.311  20.312   3.626 -0.0384  0.0752 -0.2029
35766W        W78678  27.371  20.606   6.590 -0.1353  0.0728 -0.0859
35767W        W78679  27.147  18.177   3.244  0.6165  0.0272  0.1347
35768W        W78680  29.494  21.183   3.668 -0.1831  0.1421 -0.1651
35769W        W78681  25.063  19.771   5.728 -0.2822  0.1300 -0.0259
35770W        W78682  27.548  21.021   6.412 -0.4118  0.0665 -0.3369
35771W        W78683  27.601  20.165   4.293 -0.0984  0.0775 -0.4716
35772W        W78684  27.627  19.150   6.355  0.4895 -0.0141  0.1186
35773W        W78685  26.686  20.313   2.594  0.2305  0.3659  0.0088
35774W        W78686  27.531  18.940   3.845  0.1447  0.1306  0.0594
35775W        W78687  24.727  20.897   4.951  0.1006  0.2418 -0.1037
35776W        W78688  29.890  18.652   5.264 -0.0294 -0.2188 -0.2634
35777W        W78689  28.020  18.270   4.873  0.1117  0.2411  0.0037
35778W        W78690  27.810  18.774   5.026 -0.0892 -0.0694  0.3194
35779W        W78691  28.441  20.289   8.124 -0.1255  0.1969 -0.0340
35780W        W78692  28.649  18.536   4.591  0.0480 -0.1105  0.3161
35781W        W78693  26.509  18.917   4.141  0.3386 -0.1588  0.0703
35782W        W78694  26.437  19.537   2.968 -0.1602  0.1989 -0.1946
35783W        W78695  28.286  18.446   6.950  0.1637 -0.1016  0.0955
35784W        W78696  26.328  19.882   7.386 -0.2937 -0.0874 -0.3647
35785W        W78697  25.101  20.568   6.284 -0.0044  0.0150 -0.2637
35786W        W78698  27.242  20.073   5.168  0.0572 -0.0739 -0.3246
35787W        W78699  28.029  19.857   3.887 -0.2304 -0.3740  0.0243
35788W        W78700  27.088  18.520   8.250 -0.0669 -0.0239 -0.5165
35789W        W78701  27.822  18.918   3.483  0.0297  0.1273  0.1310
35790W        W78702  26.114  20.676   4.689 -0.4446 -0.7413 -0.1662
35791W        W78703  27.020  20.704   3.231 -0.2908  0.1198 -0.0557
35792W        W78704  26.759  17.706   6.312 -0.1457  0.2278 -0.0178
35793W        W78705  26.979  20.591   4.919  0.2802 -0.1601  0.1286
35794W        W78706  27.311  21.617   4.665 -0.0367 -0.0736 -0.0553
35795W        W78707  27.934  20.630   6.339 -0.0662  0.1842 -0.0422
35796W        W78708  26.184  20.364   3.496  0.3136 -0.2064  0.4792
35797W        W78709  30.022  19.004   4.801  0.3671  0.1349 -0.1269
35798W        W78710  24.330  20.846   7.014 -0.1608 -0.1218 -0.1997
35799W        W78711  26.641  19.481   3.541  0.1195  0.1477 -0.0261
35800W        W78712  25.593  19.943   4.003 -0.0878 -0.2580  0.0711
35801W        W78713  28.060  18.983   5.447 -0.0977 -0.0008 -0.0984
35802W        W78714  28.293  20.671   3.306  0.0092 -0.0183 -0.3236
35803W        W78715  25.693  18.242   6.247  0.0422 -0.0775  0.0944
35804W        W78716  27.746  17.934   6.258  0.2023 -0.0037  0.1315
35805W        W78717  24.349  22.708   5.239 -0.0193  0.0253 -0.1989
35806W        W78718  28.866  19.010   5.787  0.0466  0.2616  0.0657
35807W        W78719  27.721  18.068   4.510 -0.1080 -0.2126 -0.1830
35808W        W78720  28.388  19.363   6.168  0.0176 -0.2331  0.0660
35809W        W78721  27.014  20.420   6.189  0.0558  0.1074  0.2723
35810W        W78722  26.375  20.105   3.904 -0.1492  0.0332  0.0634
35811W        W78723  28.136  18.977   6.481  0.1649  0.1377 -0.1349
35812W        W78724  26.790  18.552   4.322 -0.1312 -0.0812 -0.1016
35813W        W78725  25.381  20.661   5.415 -0.1627 -0.0836  0.1036
35814W        W78726  27.174  20.083   5.706  0.0175 -0.0595  0.1043
35815W        W78727  25.909  20.059   4.834 -0.1801 -0.1894  0.0450
35816W        W78728  25.214  20.543   4.894  0.1568  0.0679 -0.0750
35817W        W78729  27.125  18.896   6.454 -0.5152  0.1575  0.0082
35818W        W78730  28.866  19.544   5.814 -0.0654 -0.0412 -0.0662
35819W        W78731  26.002  18.846   4.135 -0.1856  0.1293 -0.1196
35820W        W78732  26.791  18.249   3.595 -0.0550 -0.1201 -0.1970
35821W        W78733  27.416  21.216   5.078 -0.1178  0.1066 -0.1725
35822W        W78734  27.775  19.702   5.313 -0.2334  0.0896 -0.3695
35823W        W78735  27.781  20.329   6.708 -0.0774  0.0297 -0.1897
35824W        W78736  26.725  20.688   7.227 -0.1621  0.0724 -0.0357
35825W        W78737  27.071  17.697   6.832  0.0581  0.0340 -0.0103
35826W        W78738  28.420  21.480   4.557  0.0052 -0.5682 -0.3443
35827W        W78739  27.507  20.818   7.830 -0.1792  0.0339 -0.1447
35828W        W78740  25.439  19.782   4.497  0.1763  0.3780  0.2213
35829W        W78741  26.120  18.848   6.599  0.0871  0.1751 -0.0970
35830W        W78742  26.077  21.152   4.767  0.0320 -0.0078  0.0373
35831W        W78743  27.080  18.058   5.823 -0.2157  0.0775 -0.1428
35832W        W78744  25.700  20.106   5.447  0.0929 -0.1103 -0.1298
35833W        W78745  25.617  20.315   3.493 -0.0984  0.1562  0.3737
35834W        W78746  26.193  19.842   6.354 -0.2354  0.0532  0.5614
35835W        W78747  27.948  18.696   4.559  0.2043 -0.0340 -0.1283
35836W        W78748  27.182  20.214   3.160 -0.3127 -0.4440 -0.0579
35837W        W78749  26.650  19.155   4.801 -0.1535  0.2628 -0.1868
35838W        W78750  28.298  19.841   5.275 -0.3777  0.1850 -0.0820
35839W        W78751  28.487  18.652   4.054 -0.4027 -0.0862 -0.0709
35840W        W78752  27.530  19.765   6.417 -0.2364 -0.0783 -0.2436
35841W        W78753  26.401  18.700   6.243 -0.1843  0.0988  0.0511
35842W        W78754  30.029  21.187   3.283  0.0548  0.2024  0.0059
35843W        W78755  26.259  19.343   6.531  0.0968 -0.1837 -0.0136
35844W        W78756  27.017  21.528   6.308  0.1437  0.1394  0.1392
35845W        W78757  25.943  19.569   7.367  0.2128  0.1370  0.1053
35846W        W78758  27.736  20.436   3.446  0.1550  0.1642 -0.4079
35847W        W78759  26.719  18.612   3.321  0.1214 -0.0857 -0.1916
35848W        W78760  27.052  19.838   6.280  0.2798  0.0636  0.0334
35849W        W78761  27.749  21.505   4.178 -0.1247 -0.0390  0.0116
35850W        W78762  27.185  20.352   4.527  0.0438 -0.0547 -0.0407
35851W        W78763  27.700  19.749   4.480 -0.3648  0.4376  0.3024
35852W        W78764  25.781  19.519   6.659  0.0450 -0.0824 -0.0195
35853W        W78765  27.929  19.406   4.169 -0.2352  0.0303  0.0899
35854W        W78766  26.949  20.674   3.814  0.1991 -0.0652 -0.3065
35855W        W78767  25.811  20.486   5.094 -0.0423  0.1760 -0.1565
35856W        W78768  26.853  19.112   7.494  0.0054 -0.0554 -0.0670
35857W        W78769  27.082  20.913   6.226 -0.2588  0.0604 -0.1014
35858W        W78770  27.331  18.606   5.196  0.0094  0.0013 -0.0229
35859W        W78771  27.298  17.704   5.303 -0.3970 -0.1227 -0.0652
35860W        W78772  27.912  19.003   5.986  0.0909 -0.0775  0.1992
35861W        W78773  27.304  18.556   5.694 -0.3631  0.0170  0.2610
35862W        W78774  25.021  19.548   7.137 -0.1286  0.1273 -0.1378
35863W        W78775  28.269  22.201   5.706  0.2350 -0.0583  0.2430
35864W        W78776  28.761  19.083   3.876  0.1377 -0.1972 -0.0677
35865W        W78777  28.948  19.859   4.857  0.1681 -0.0209 -0.0807
35866W        W78778  27.296  19.240   3.441 -0.0455  0.0095  0.0852
35867W        W78779  25.551  18.474   5.110  0.0449 -0.3490 -0.1930
35868W        W78780  28.005  20.533   5.855 -0.2350 -0.1485  0.1736
35869W        W78781  26.104  18.710   3.115  0.1244 -0.1946  0.2812
35870W        W78782  28.034  18.814   7.107  0.0821  0.0582  0.3130
35871W        W78783  26.499  21.489   4.695  0.0727  0.0255 -0.1038
35872W        W78784  26.522  20.402   4.713 -0.0539  0.0372 -0.1234
35873W        W78785  27.764  19.164   4.583  0.0393 -0.0342  0.0138
35874W        W78786  24.846  18.214   5.191  0.1961 -0.1078 -0.1347
35875W        W78787  26.011  20.353   6.862 -0.2973  0.2683 -0.2226
35876W        W78788  25.912  18.140   3.036  0.0842  0.2124 -0.3173
35877W        W78789  26.197  21.164   2.878 -0.1035 -0.2306 -0.2745
35878W        W78790  27.171  20.875   7.120  0.4383 -0.2262  0.1902
35879W        W78791  29.697  20.254   7.260  0.1202 -0.4313 -0.2626
35880W        W78792  26.846  18.689   5.373 -0.1257 -0.0124  0.0159
35881W        W78793  29.052  19.420   6.260 -0.3035  0.1684  0.0161
35882W        W78794  25.195  20.155   5.345  0.0702 -0.0054  0.1746
35883W        W78795  27.591  18.085   5.491  0.1280  0.0324  0.0183
35884W        W78796  25.033  21.618   5.732  0.0378  0.1121 -0.0347
35885W        W78797  25.392  19.621   6.156 -0.2663 -0.0750  0.4096
35886W        W78798  26.057  21.484   6.014 -0.0538  0.1965  0.0062
35887W        W78799  26.793  18.144   4.091 -0.0139 -0.1857 -0.1173
35888W        W78800  27.043  19.785   4.257 -0.4838 -0.1074  0.0349
35889W        W78801  26.450  20.024   5.046 -0.1726 -0.0805  0.2034
35890W        W78802  29.547  20.253   5.699 -0.0023  0.0946  0.0432
35891W        W78803  27.297  21.365   7.091 -0.1961  0.3955  0.1794
35892W        W78804  25.444  19.738   5.190 -0.0891  0.0349  0.0526
35893W        W78805  26.743  21.240   6.004 -0.0476  0.0867  0.2932
35894W        W78806  29.714  20.439   4.682  0.0414 -0.3140  0.0027
35895W        W78807  25.056  21.177   5.462 -0.1265  0.2114  0.1043
35896W        W78808  25.106  19.942   8.365  0.0590 -0.3747  0.1745
35897W        W78809  28.258  20.298   6.599 -0.3979  0.3504 -0.0126
35898W        W78810  27.701  19.252   5.113  0.2178 -0.2636 -0.1127
35899W        W78811  25.930  17.583   5.039  0.3071 -0.1332 -0.1366
35900W        W78812  26.089  19.222   4.938  0.0762  0.0542 -0.1559
35901W        W78813  25.725  19.914   6.353 -0.1302 -0.1536  0.1506
35902W        W78814  26.007  19.204   7.000 -0.1822 -0.1167  0.1124
35903W        W78815  24.601  21.896   3.454 -0.0729  0.1900  0.1535
35904W        W78816  28.179  19.332   3.187 -0.2162 -0.2782 -0.1618
35905W        W78817  28.212  20.190   3.373  0.1356 -0.2074 -0.4269
35906W        W78818  27.966  20.991   5.937 -0.2539 -0.0651 -0.0129
35907W        W78819  26.612  19.479   4.114  0.1350  0.0792  0.1259
35908W        W78820  25.839  21.187   5.280 -0.3886 -0.3961  0.1832
35909W        W78821  25.132  20.385   3.442  0.3518 -0.0071 -0.1346
35910W        W78822  26.799  21.478   3.794  0.2448  0.1445  0.2715
35911W        W78823  25.660  21.179   4.342  0.0257  0.2154  0.1071
35912W        W78824  28.463  21.216   6.885 -0.1349  0.2879  0.2353
35913W        W78825  28.255  18.211   2.780 -0.0146 -0.0800 -0.1427
35914W        W78826  28.222  19.380   4.635  0.1030  0.1948 -0.2252
35915W        W78827  28.106  19.283   3.672 -0.0773 -0.1408  0.0647
35916W        W78828  27.923  20.072   6.215  0.1462  0.0862  0.1207
35917W        W78829  27.274  19.237   4.726 -0.0343  0.1707 -0.1895
35918W        W78830  27.544  17.917   3.381  0.1768  0.1201 -0.0433
35919W        W78831  27.076  20.194   7.882  0.0595  0.1714  0.0348
35920W        W78832  29.082  18.651   6.641  0.0578  0.1602  0.1344
35921W        W78833  25.404  20.992   6.542  0.0669 -0.0220 -0.3099
35922W        W78834  27.945  21.438   3.207 -0.2496  0.2035 -0.0747
35923W        W78835  25.396  18.896   4.361  0.0147 -0.1566  0.0569
35924W        W78836  26.748  19.632   4.618 -0.2032  0.2783 -0.0472
35925W        W78837  29.408  18.865   6.076 -0.2154  0.0012  0.0754
35926W        W78838  26.868  20.266   4.130  0.2718  0.1239  0.0983
35927W        W78839  26.901  19.090   4.324 -0.2175 -0.2819  0.2470
35928W        W78840  26.571  20.955   4.683 -0.1342  0.0156  0.1223
35929W        W78841  26.205  20.718   6.483 -0.2869 -0.0516 -0.0058
35930W        W78842  26.626  19.968   6.033  0.0482 -0.1642 -0.0448
35931W        W78843  25.728  18.113   3.737  0.1098 -0.1591 -0.0371
35932W        W78844  28.359  18.779   4.943 -0.4382 -0.1139  0.0219
35933W        W78845  26.816  19.829   7.037 -0.0089 -0.0801 -0.0157
35934W        W78846  29.246  18.497   7.113  0.0279 -0.4780  0.2558
35935W        W78847  26.389  20.584   4.218 -0.4596 -0.2962  0.1076
35936W        W78848  28.338  20.209   4.109  0.0858  0.4290 -0.1110
35937W        W78849  26.997  20.376   7.009 -0.0736  0.2149  0.2157
35938W        W78850  25.050  18.875   7.169  0.2595 -0.1204  0.1470
35939W        W78851  27.076  20.536   2.757  0.1652 -0.0790  0.1440
35940W        W78852  29.255  20.122   6.272  0.2355  0.1095 -0.4308
35941W        W78853  27.386  17.978   2.895 -0.0075 -0.0281 -0.0679
35942W        W78854  26.177  21.349   7.080 -0.1435 -0.1229 -0.0783
35943W        W78855  24.924  18.008   5.779  0.1066 -0.0692 -0.3059
35944W        W78856  28.337  18.209   3.965  0.0249 -0.4531 -0.3815
35945W        W78857  26.672  19.115   5.615 -0.0801 -0.0400 -0.0225
35946W        W78858  27.098  19.098   5.189  0.1970  0.2368 -0.2580
35947W        W78859  26.509  21.585   6.354 -0.1459  0.2472 -0.1267
35948W        W78860  26.665  18.196   6.228  0.1446  0.0560  0.1658
35949W        W78861  28.545  19.498   4.074 -0.0559  0.1021 -0.0693
35950W        W78862  29.426  18.429   5.262  0.2383  0.2880 -0.3042
35951W        W78863  25.927  19.926   3.598 -0.1840 -0.0368 -0.2524
35952W        W78864  28.254  18.986   4.330 -0.1325 -0.0971 -0.0540
35953W        W78865  28.987  20.496   5.477 -0.1360 -0.0698 -0.0891
35954W        W78866  25.193  18.428   5.571 -0.1752  0.1668  0.0428
35955W        W78867  27.959  19.996   5.670 -0.1168 -0.2295  0.1468
35956W        W78868  28.835  20.047   5.677 -0.2564 -0.0586  0.1479
35957W        W78869  28.302  18.282   3.438 -0.3522 -0.2084 -0.0606
35958W        W78870  26.379  18.943   5.216  0.4509  0.1329 -0.1633
35959W        W78871  24.503  21.405   5.441 -0.0965 -0.0710 -0.2835
35960W        W78872  28.889  20.555   4.982  0.0266 -0.4157 -0.3587
35961W        W78873  29.491  19.680   6.257 -0.0102  0.0725 -0.1292
35962W        W78874  27.329  20.570   4.102 -0.2881  0.2293 -0.1137
35963W        W78875  29.091  18.140   6.820  0.0757  0.3952  0.1149
35964W        W78876  27.183  21.649   7.529  0.0975  0.1246  0.1062
35965W        W78877  26.689  21.119   7.603  0.1166 -0.2596 -0.0066
35966W        W78878  25.138  19.879   2.249 -0.0380 -0.0011 -0.0602
35967W        W78879  27.587  20.821   7.346 -0.3280  0.2640  0.2435
35968W        W78880  26.902  21.082   5.133 -0.0563 -0.2740 -0.2347
35969W        W78881  27.190  20.965   4.699  0.3619  0.2087 -0.4376
35970W        W78882  27.995  19.720   4.884 -0.0529  0.1231  0.3724
35971W        W78883  26.427  17.396   5.049  0.0993  0.3059 -0.2461
35972W        W78884  29.823  20.665   5.782  0.3057 -0.2351  0.0184
35973W        W78885  27.046  18.108   5.203 -0.2312  0.0155  0.2090
35974W        W78886  29.414  17.930   5.390  0.2451  0.1534 -0.0271
35975W        W78887  27.978  17.779   4.839 -0.1483 -0.2000 -0.2401
35976W        W78888  26.929  19.586   5.770  0.0705 -0.0044  0.0219
35977W        W78889  26.477  19.045   3.321 -0.2603 -0.0788  0.0116
35978W        W78890  26.612  20.811   2.924 -0.2054 -0.2421  0.2647
35979W        W78891  26.251  20.241   5.450 -0.2478 -0.1229  0.1502
35980W        W78892  29.454  17.886   6.557 -0.2666  0.1697 -0.0616
35981W        W78893  26.301  19.164   7.477 -0.0517  0.0223  0.0961
35982W        W78894  26.496  19.500   5.162 -0.2923  0.2498  0.1738
35983W        W78895  27.266  18.232   4.238 -0.0352  0.1546 -0.1642
35984W        W78896  28.211  21.654   4.096  0.3182 -0.0299 -0.1827
35985W        W78897  26.181  18.330   5.963  0.2517  0.1454 -0.0136
35986W        W78898  25.058  18.632   5.072 -0.0540 -0.1153  0.0626
35987W        W78899  27.854  20.326   3.929 -0.3115  0.2443 -0.2150
35988W        W78900  27.366  21.978   6.227  0.2778 -0.0215 -0.1705
35989W        W78901  26.497  18.586   3.763 -0.3470 -0.2280 -0.0653
35990W        W78902  28.993  21.720   7.447  0.3241 -0.1285  0.1348
35991W        W78903  24.332  21.298   2.758 -0.1937  0.0099 -0.0247
35992W        W78904  27.456  18.770   6.121  0.1230 -0.0411 -0.3307
35993W        W78905  27.823  18.519   5.605  0.0727 -0.0560 -0.0891
35994W        W78906  24.662  17.906   3.548  0.0931 -0.1490 -0.3378
35995W        W78907  27.568  18.936   5.437  0.0119 -0.3122  0.1840
35996W        W78908  27.997  19.526   2.764  0.5090  0.0422  0.3247
35997W        W78909  26.792  20.648   6.602  0.3184  0.1230  0.1604
35998W        W78910  25.944  21.829   7.086  0.0192 -0.2802  0.2101
35999W        W78911  25.703  18.472   5.631 -0.0277  0.0937  0.1177
36000W        W78912  27.974  21.470   3.707  0.0373 -0.2521  0.1171
36001W        W78913  26.300  20.812   6.967  0.0646  0.3421 -0.4254
36002W        W78914  28.229  19.779   4.359  0.0534  0.3732 -0.0187
36003W        W78915  27.947  19.470   5.725  0.0460  0.0890  0.2929
36004W        W78916  26.777  19.883   3.773 -0.3393  0.1293  0.0869
36005W        W78917  26.769  18.560   6.595  0.3977  0.0630  0.0363
36006W        W78918  26.604  20.472   5.830  0.1009  0.2096  0.1231
36007W        W78919  28.092  20.825   5.474 -0.0930  0.0040 -0.0940
36008W        W78920  26.413  18.739   4.660  0.0475 -0.0076  0.0431
36009W        W78921  28.118  18.704   3.061 -0.3137  0.3617 -0.0675
36010W        W78922  27.666  21.894   4.924  0.1217 -0.0721  0.0347
36011W        W78923  26.574  18.306   4.929  0.2280 -0.1444 -0.1335
36012W        W78924  27.038  18.846   2.992 -0.1338 -0.2646 -0.1132
36013W        W78925  27.450  20.246   6.178 -0.0406  0.0110 -0.2286
36014W        W78926  26.891  20.340   5.349  0.1928  0.0681 -0.0295
36015W        W78927  29.391  21.153   6.110  0.0356 -0.0981  0.1376
36016W        W78928  26.159  19.655   3.982  0.2533  0.0666 -0.1412
36017W        W78929  30.458  19.274   3.714  0.3499 -0.1321 -0.4978
36018W        W78930  28.548  20.713   4.231 -0.1933 -0.1710  0.1810
36019W        W78931  29.317  20.675   5.860 -0.1566  0.0439  0.4296
36020W        W78932  26.583  20.805   6.183  0.1169 -0.0894  0.1424
36021W        W78933  28.738  20.234   4.424 -0.1409 -0.1784 -0.0463
36022W        W78934  25.004  19.299   6.325 -0.5774  0.1620  0.1321
36023W        W78935  26.515  20.365   3.103 -0.0370  0.1658 -0.1276
36024W        W78936  24.969  18.022   4.033  0.0048  0.2340 -0.5185
36025W        W78937  28.745  18.633   7.004 -0.3906 -0.1209 -0.3618
36026W        W78938  27.379  19.315   4.215  0.3389  0.3289  0.1857
36027W        W78939  27.900  20.403   2.958  0.1568  0.1502 -0.0379
36028W        W78940  26.178  21.226   6.564 -0.3540  0.0784  0.0342
36029W        W78941  27.882  19.549   6.231 -0.4939  0.3689 -0.0603
36030W        W78942  25.945  20.156  10.199 -0.2274 -0.2362 -0.3557
36031W        W78943  25.623  19.476   7.714 -0.0027  0.1038 -0.0332
36032W        W78944  28.416  19.870   6.858 -0.1160  0.0688  0.1217
36033W        W78945  29.314  20.137   8.155  0.0573 -0.1925 -0.2652
36034W        W78946  23.967  18.053   9.386  0.1861 -0.0993  0.0915
36035W        W78947  28.050  22.311   8.636 -0.0740  0.0726 -0.1820
36036W        W78948  28.017  22.717   9.595 -0.0504 -0.1315  0.1321
36037W        W78949  27.943  21.485   9.367  0.3440 -0.3048 -0.3091
36038W        W78950  28.815  19.845   6.211 -0.0947  0.1394  0.1245
36039W        W78951  27.070  18.851   9.088 -0.0697  0.0074  0.0190
36040W        W78952  27.806  18.911   9.164  0.1008  0.0969 -0.0500
36041W        W78953  26.690  19.104   9.307 -0.0219 -0.2937  0.0299
36042W        W78954  27.947  20.539   7.989 -0.0726 -0.0219 -0.0528
36043W        W78955  26.635  19.509   8.508 -0.3670 -0.3157 -0.1702
36044W        W78956  27.627  18.033  10.214  0.2327 -0.4321 -0.1684
36045W        W78957  26.234  19.643   7.936  0.1157  0.1030 -0.0651
36046W        W78958  27.521  22.298   8.819 -0.4109  0.1979 -0.2312
36047W        W78959  29.663  18.312   8.919  0.0729  0.0811  0.1926
36048W        W78960  27.511  21.330   7.983 -0.2401 -0.3224 -0.4072
36049W        W78961  24.847  19.947   6.730  0.1629 -0.0419  0.0148
36050W        W78962  26.596  19.495  10.126 -0.2920 -0.1035 -0.3720
36051W        W78963  26.863  20.596  10.022 -0.2806  0.2576 -0.2065
36052W        W78964  29.402  17.919  11.372 -0.0307  0.1820 -0.0585
36053W        W78965  27.178  19.289   9.538  0.0474 -0.3198  0.2221
36054W        W78966  30.004  22.367   9.771  0.5042 -0.3548  0.0423
36055W        W78967  27.459  21.483   8.568  0.0780 -0.2331 -0.0684
36056W        W78968  26.155  21.116   9.148 -0.1986  0.0137 -0.1397
36057W        W78969  25.156  22.232   8.909 -0.1095  0.1504 -0.0155
36058W        W78970  25.908  21.474   8.118  0.1926 -0.0287 -0.0878
36059W        W78971  27.979  22.085   6.884  0.0346  0.1796 -0.1783
36060W        W78972  26.382  19.651   5.729  0.3167  0.2417 -0.2783
36061W        W78973  28.948  18.654   9.906  0.0991  0.0201 -0.1782
36062W        W78974  27.259  20.285   8.564  0.3999  0.0291 -0.4028
36063W        W78975  26.660  21.604   7.228  0.0536  0.0432 -0.3270
36064W        W78976  29.092  19.757   8.478  0.2095  0.2324 -0.0627
36065W        W78977  27.378  20.098   9.750 -0.0613  0.0396 -0.0733
36066W        W78978  26.973  21.401   7.926 -0.0848  0.2165 -0.1043
36067W        W78979  28.391  20.202   6.051  0.0844 -0.0170 -0.1058
36068W        W78980  27.631  19.102   7.634  0.1664 -0.0441 -0.1025
36069W        W78981  29.146  19.121   8.826 -0.0251  0.1632 -0.0379
36070W        W78982  27.139  18.736   7.757 -0.0650 -0.2304 -0.2978
36071W        W78983  25.964  21.640   9.426  0.0445  0.0320 -0.1508
36072W        W78984  26.607  18.602  10.079  0.1988  0.0238  0.2431
36073W        W78985  26.981  20.549   8.241 -0.2197  0.2479 -0.2304
36074W        W78986  28.924  18.404   8.343  0.3104 -0.3574 -0.0393
36075W        W78987  29.107  20.926   8.659 -0.0355 -0.1401 -0.1624
36076W        W78988  26.189  18.923   9.276 -0.1616  0.2408  0.0188
36077W        W78989  28.151  22.041   7.539  0.1662  0.0735 -0.1185
36078W        W78990  29.868  22.011   8.649 -0.1282  0.0994 -0.3416
36079W        W78991  28.797  20.287   6.573 -0.0727 -0.1223  0.2286
36080W        W78992  26.549  21.050   9.424  0.0046 -0.2928 -0.1879
36081W        W78993  27.125  19.450   8.484  0.1958 -0.2174  0.2999
36082W        W78994  28.999  17.682   7.668 -0.1569  0.1487 -0.2074
36083W        W78995  27.695  20.528   8.588  0.0397 -0.0544 -0.0732
36084W        W78996  28.490  19.981   8.474 -0.1366  0.1043  0.2353
36085W        W78997  28.761  20.417   7.498  0.0153  0.0351 -0.0946
36086W        W78998  29.850  18.625   9.282 -0.2726  0.1926 -0.2457
36087W        W78999  29.026  19.487   9.877  0.1882 -0.0011 -0.2725
36088W        W79000  27.454  20.472   8.163  0.0584  0.0233  0.3643
36089W        W79001  27.864  19.957   7.783 -0.0600  0.1940 -0.0047
36090W        W79002  30.210  18.155  10.001 -0.0758 -0.0450 -0.1153
36091W        W79003  29.008  19.609   7.513  0.2857  0.3534  0.2737
36092W        W79004  25.349  21.505   9.604 -0.0996 -0.2437  0.2010
36093W        W79005  25.510  21.617   7.149 -0.0561  0.1164  0.0092
36094W        W79006  27.385  20.475   9.392 -0.0905 -0.2187  0.3573
36095W        W79007  26.214  20.974   7.460  0.2627  0.2781 -0.2808
36096W        W79008  24.304  17.606   9.993  0.1695 -0.1684 -0.0997
36097W        W79009  27.657  20.368   7.589 -0.0735 -0.1186 -0.4720
36098W        W79010  28.985  17.741   8.263 -0.1006 -0.0944 -0.0958
36099W        W79011  29.018  15.988   8.482  0.0519 -0.4779  0.0981
36100W        W79012  26.420  21.520   9.599  0.2284  0.1458  0.3140
36101W        W79013  28.082  20.709   7.477 -0.1210  0.0287 -0.1964
36102W        W79014  29.405  19.104   7.902  0.0931  0.2134  0.1535
36103W        W79015  28.576  20.753   6.737  0.2343 -0.0346 -0.0222
36104W        W79016  26.931  19.074   9.947 -0.1269  0.1498 -0.0560
36105W        W79017  25.837  19.892   9.435 -0.0037  0.1501  0.1255
36106W        W79018  25.898  18.902   9.841 -0.1469  0.0478  0.1332
36107W        W79019  26.357  17.988   7.719  0.0736 -0.3165 -0.0637
36108W        W79020  28.553  21.733   9.950  0.1331  0.4120 -0.4625
36109W        W79021  26.472  19.173   7.953  0.0198  0.2131  0.1763
36110W        W79022  25.831  21.036  10.544  0.1815 -0.0094 -0.1013
36111W        W79023  28.390  21.814   8.480 -0.0928  0.1892  0.4919
36112W        W79024  28.697  20.963   8.896  0.0086  0.1085  0.0566
36113W        W79025  28.348  22.566   9.000  0.1986 -0.1253  0.2019
36114W        W79026  28.716  16.452  10.428 -0.1934 -0.0021 -0.2283
36115W        W79027  26.722  19.601   7.602 -0.0468 -0.0166 -0.1110
36116W        W79028  27.924  20.717  10.075 -0.0068 -0.1425  0.2304
36117W        W79029  26.695  20.319   8.656 -0.1600  0.1212 -0.0734
36118W        W79030  26.329  19.119   8.440  0.1068 -0.2096 -0.1961
36119W        W79031  28.911  20.236   8.396  0.1743 -0.0493 -0.1169
36120W        W79032  27.953  21.052   7.823  0.0216  0.2146 -0.2231
36121W        W79033  28.494  19.349   9.715 -0.2678  0.0752 -0.1376
36122W        W79034  28.275  19.829   7.950  0.0977 -0.3795  0.0574
36123W        W79035  26.436  19.434   7.092  0.0380 -0.0831 -0.0205
36124W        W79036  28.327  21.425   8.153  0.0805  0.0129  0.1446
36125W        W79037  26.714  20.955   8.156  0.3319 -0.2578 -0.2945
36126W        W79038  25.115  20.150  10.149 -0.4033 -0.1749  0.0692
36127W        W79039  28.314  21.891   8.967 -0.0589 -0.0492 -0.1221
36128W        W79040  31.381  18.848   9.668 -0.1661  0.1772 -0.1936
36129W        W79041  26.715  22.195   9.172 -0.1636  0.2983  0.0621
36130W        W79042  29.767  18.780   8.789 -0.0196  0.3067  0.2029
36131W        W79043  28.154  19.505   8.250  0.1089 -0.1090 -0.1858
36132W        W79044  28.988  20.579   7.086  0.1495 -0.1604 -0.1865
36133W        W79045  28.116  18.756   7.748 -0.0630 -0.2196 -0.0352
36134W        W79046  29.356  17.655   7.963  0.2328 -0.1549  0.0309
36135W        W79047  29.120  20.074   7.554 -0.2216 -0.2216  0.2073
36136W        W79048  28.695  20.681   8.373 -0.0002 -0.1157  0.0029
36137W        W79049  28.117  19.510   6.664  0.3490 -0.0563  0.2703
36138W        W79050  27.622  21.314   7.475 -0.1617  0.0980 -0.1161
36139W        W79051  26.326  19.900   9.944  0.2205 -0.1069  0.0660
36140W        W79052  27.886  20.110   8.255  0.0767 -0.3297  0.0785
36141W        W79053  30.185  17.349   9.594 -0.0392  0.1013  0.3226
36142W        W79054  26.638  19.485   6.172  0.0099 -0.2361  0.0391
36143W        W79055  27.995  17.725   9.104  0.3725 -0.0893 -0.2441
36144W        W79056  25.324  21.482   6.406 -0.4900  0.0586  0.0287
36145W        W79057  28.864  16.114   9.556  0.4327 -0.0249  0.1654
36146W        W79058  27.545  18.838  10.156 -0.1088  0.2737  0.1308
36147W        W79059  28.554  19.524   7.649 -0.2612 -0.0763 -0.0708
36148W        W79060  27.484  20.180   9.016 -0.0222  0.5262 -0.3203
36149W        W79061  27.631  19.342   6.780 -0.1599 -0.2515 -0.0747
36150W        W79062  28.307  17.655  10.356  0.3892  0.0860  0.0550
36151W        W79063  28.459  20.056   9.029  0.2487 -0.1173  0.0190
36152W        W79064  28.201  20.569   8.428 -0.1049 -0.1202  0.5131
36153W        W79065  26.883  17.698   9.618  0.1794  0.0701  0.0341
36154W        W79066  26.152  21.808   8.418  0.0730  0.0694  0.0728
36155W        W79067  27.181  21.094   7.573  0.0080  0.3372 -0.1354
36156W        W79068  29.261  18.551   8.693  0.1736 -0.2144 -0.1758
36157W        W79069  27.591  21.846   7.777  0.1755  0.1202 -0.1295
36158W        W79070  27.119  21.140   6.661 -0.2437 -0.1500  0.2096
36159W        W79071  28.320  19.563   9.219 -0.0129 -0.2996  0.1085
36160W        W79072  26.246  20.995   8.008 -0.0584  0.0949  0.1698
36161W        W79073  29.893  15.913   9.688 -0.1482 -0.1152  0.3405
36162W        W79074  25.958  21.231  10.013  0.0202  0.3497  0.2387
36163W        W79075  26.623  19.044   6.612 -0.2625 -0.1253 -0.1016
36164W        W79076  26.530  20.133   7.917  0.4302 -0.1804  0.2435
36165W        W79077  27.960  19.345   7.152  0.0238  0.1455 -0.0197
36166W        W79078  29.369  19.623   8.031  0.1522 -0.0412  0.1004
36167W        W79079  26.317  18.601   9.678  0.2130  0.0758  0.2772
36168W        W79080  28.334  19.526  10.239  0.1809  0.0688  0.1284
36169W        W79081  25.883  22.072  10.534  0.0077 -0.0597 -0.0276
36170W        W79082  29.331  17.826   7.049  0.0480 -0.3098 -0.1339
36171W        W79083  25.372  19.491   8.498  0.4300  0.4385 -0.3059
36172W        W79084  29.629  18.239   8.440  0.3599 -0.1321  0.2957
36173W        W79085  27.098  19.705   9.937 -0.3410  0.1344  0.2854
36174W        W79086  25.696  20.869   9.148 -0.1119 -0.0912 -0.1173
36175W        W79087  27.129  20.933   9.248 -0.0329 -0.0710  0.0494
36176W        W79088  26.915  20.839   8.651  0.0797 -0.0157  0.0837
36177W        W79089  26.461  20.517   8.225 -0.2934 -0.0937  0.0793
36178W        W79090  27.521  19.767   9.369 -0.0192  0.2778  0.2224
36179W        W79091  27.920  19.960   9.236  0.1274 -0.0708  0.2423
36180W        W79092  27.681  19.403   8.537 -0.0913 -0.0615 -0.0662
36181W        W79093  26.330  19.590   9.408  0.0780  0.0199  0.1152
36182W        W79094  29.581  22.345   9.428  0.0601  0.5298 -0.2219
36183W        W79095  28.115  20.206  10.035 -0.1226 -0.3156  0.0871
36184W        W79096  29.103  17.109   9.249  0.2638  0.0090  0.1744
36185W        W79097  27.779  22.396   7.587  0.1956  0.3400  0.0711
36186W        W79098  27.331  21.018   8.329 -0.0651  0.0732  0.4168
36187W        W79099  26.670  20.051  10.261  0.1223 -0.3739  0.0062
36188W        W79100  27.831  21.553   8.228  0.1729 -0.3572  0.0888
36189W        W79101  27.743  19.266   9.483  0.3382  0.2408  0.2046
36190W        W79102  28.040  20.248   8.796  0.0304  0.1306 -0.1726
36191W        W79103  27.335  22.306   7.300 -0.0554  0.2713  0.0503
36192W        W79104  27.732  20.830   9.563 -0.3163 -0.3166 -0.2611
36193W        W79105  29.799  19.384   7.640 -0.1882 -0.1862  0.0429
36194W        W79106  28.578  19.965   7.416  0.1044  0.2595 -0.1413
36195W        W79107  26.154  20.260   8.702 -0.0963 -0.3756  0.1466
36196W        W79108  29.433  19.747   8.953  0.2350 -0.1979 -0.1450
36197W        W79109  28.103  17.684   9.840  0.1702  0.0359 -0.0789
36198W        W79110  29.081  21.362   7.753  0.0144 -0.3563 -0.1234
36199W        W79111  27.811  19.811   6.871  0.2122  0.0431 -0.0131
36200W        W79112  26.652  18.026   6.712  0.1126 -0.0873  0.2242
36201W        W79113  26.664  17.751  10.091  0.1090 -0.3693 -0.1473
36202W        W79114  28.738  21.418   9.645 -0.0450  0.0216 -0.1705
36203W        W79115  27.336  20.023   7.398 -0.0091  0.0395  0.0608
36204W        W79116  29.577  19.053   8.474  0.0073  0.0367  0.2420
36205W        W79117  26.558  21.634   8.600 -0.1224 -0.0332 -0.1837
36206W        W79118  30.128  19.823   8.355  0.0711 -0.0002 -0.1419
36207W        W79119  26.803  20.128   7.479  0.1033  0.3740  0.1123
36208W        W79120  27.839  21.840   8.666 -0.2619  0.1169  0.2773
36209W        W79121  28.457  21.089   8.492  0.2225  0.2694  0.0794
36210W        W79122  27.910  19.016   8.097 -0.2320 -0.2778  0.1436
36211W        W79123  29.200  22.229   9.814 -0.4829  0.1806  0.1809
36212W        W79124  27.024  19.865   8.826  0.1402  0.0050  0.2264
36213W        W79125  27.824  17.585  10.358  0.1373 -0.0298  0.2534
36214W        W79126  29.329  20.573   8.385 -0.0067 -0.0851  0.0709
36215W        W79127  28.113  19.810   7.360 -0.1550  0.0536 -0.1388
36216W        W79128  26.233  17.085   9.680 -0.2800 -0.0197 -0.0003
36217W        W79129  27.309  19.505   7.733  0.3743  0.0178 -0.1296
36218W        W79130  27.890  21.020   8.335 -0.4225 -0.0924  0.1956
36219W        W79131  29.704  20.922   8.525  0.2485 -0.1174 -0.0671
36220W        W79132  27.656  19.608   7.425  0.1823  0.0344 -0.1325
36221W        W79133  24.469  18.338   9.283  0.1626  0.3383 -0.0017
36222W        W79134  26.803  19.926   8.333 -0.2104 -0.2793 -0.1175
36223W        W79135  27.134  19.395   6.533 -0.2757 -0.0777  0.0206
36224W        W79136  29.662  21.493   9.849  0.1349 -0.1601  0.2201
36225W        W79137  27.386  19.201   8.093 -0.2074 -0.0612  0.1064
36226W        W79138  26.151  20.501   7.848 -0.0292  0.4318  0.0542
36227W        W79139  30.407  16.816   9.928 -0.1605 -0.2335 -0.2286
36228W        W79140  24.044  21.079  10.031  0.2532  0.0634 -0.4203
36229W        W79141  26.481  21.108   9.932 -0.3013  0.0470  0.2772
36230W        W79142  29.536  18.807   9.877  0.1141  0.2002 -0.0383
36231W        W79143  28.750  18.362   7.893  0.3318 -0.1612  0.1228
36232W        W79144  27.316  20.774   9.839 -0.3857  0.2028 -0.3243
36233W        W79145  25.205  19.593  10.018  0.0737 -0.3300 -0.0182
36234W        W79146  28.123  19.708   8.807 -0.1006  0.2029 -0.0281
36235W        W79147  26.875  18.737   9.550 -0.4185  0.2429 -0.1109
36236W        W79148  27.740  20.583   9.105 -0.1496 -0.5894 -0.0299
36237W        W79149  28.786  18.811   8.682  0.0938 -0.2211 -0.1307
36238W        W79150  28.037  21.607   7.736  0.0233  0.1319  0.3028
36239W        W79151  26.854  21.573   9.893 -0.3332 -0.2596 -0.3216
36240W        W79152  26.725  22.144   8.678 -0.0650 -0.2327 -0.1202
36241W        W79153  28.842  19.924   7.937  0.0161  0.2278 -0.1386
36242W        W79154  29.112  20.804   9.203  0.1452  0.1953 -0.2292
36243W        W79155  29.671  22.434   8.954 -0.2712  0.1419  0.1649
36244W        W79156  28.459  18.587   8.299 -0.0255 -0.0840 -0.3674
36245W        W79157  26.097  20.847   9.600  0.2562  0.1002  0.0311
36246W        W79158  25.265  21.306   7.729  0.0220  0.0025  0.1380
36247W        W79159  27.488  20.756   5.964 -0.1429 -0.4807 -0.3236
36248W        W79160  26.370  22.036   9.547  0.0988 -0.4035 -0.1111
36249W        W79161  28.370  18.445   7.397 -0.1236 -0.4418 -0.1777
36250W        W79162  29.593  19.248   9.012  0.3455 -0.2621 -0.0578
36251W        W79163  30.112  18.422   8.653 -0.0517  0.1382  0.2240
36252W        W79164  27.277  17.858   9.345  0.0039 -0.0958 -0.2198
36253W        W79165  26.901  19.418   8.014  0.2780 -0.0801 -0.0750
36254W        W79166  28.554  21.792   7.704 -0.1552  0.4663 -0.2181
36255W        W79167  26.127  18.784   7.769  0.1075  0.0571 -0.2276
36256W        W79168  27.417  18.848   9.489 -0.3631  0.0660 -0.1864
36257W        W79169  32.517  16.002  10.231  0.2206  0.0084 -0.3371
36258W        W79170  26.374  21.721   6.817  0.2012 -0.1971  0.0327
36259W        W79171  26.860  19.539   9.131  0.2851  0.0820  0.2696
36260W        W79172  26.559  21.214   8.928 -0.1539  0.2504  0.2034
36261W        W79173  26.956  21.117   9.744  0.1709 -0.3451  0.0381
36262W        W79174  27.046  20.443   9.056 -0.2248  0.2326  0.3079
36263W        W79175  26.834  19.193   8.808 -0.0091  0.2075 -0.0356
36264W        W79176  30.466  20.049   7.790  0.0330  0.0699 -0.1074
36265W        W79177  26.014  15.964   9.635  0.1687 -0.3692  0.0916
36266W        W79178  27.636  21.112   9.012 -0.0027  0.1945  0.1655
36267W        W79179  27.014  19.984   9.343 -0.1837  0.0703 -0.1203
36268W        W79180  28.505  18.752   9.686  0.1155 -0.0796  0.0675
36269W        W79181  27.078  18.069   9.913  0.1698 -0.2411 -0.2315
36270W        W79182  27.445  20.451   7.070 -0.0057  0.3268 -0.2117
36271W        W79183  28.503  19.024   6.851 -0.0739 -0.3082  0.1005
36272W        W79184  25.588  18.460   9.987 -0.1602 -0.3593  0.4113
36273W        W79185  27.554  18.006   8.952  0.0323  0.3012 -0.2566
36274W        W79186  26.744  20.591   7.795  0.0767 -0.2238 -0.0890
36275W        W79187  28.096  20.954   9.304 -0.1192 -0.1133  0.2183
36276W        W79188  28.156  17.141  10.186  0.1151 -0.0983 -0.3101
36277W        W79189  29.797  20.341   8.355 -0.2773  0.1055  0.2868
36278W        W79190  28.063  19.185   8.793 -0.0172  0.3084  0.1712
36279W        W79191  27.166  20.546   7.505 -0.0582  0.2234 -0.0065
36280W        W79192  29.027  20.486   7.920  0.0007 -0.1102  0.0531
36281W        W79193  27.723  21.892   9.138 -0.1974 -0.3921 -0.0451
36282W        W79194  22.217  19.591   9.883 -0.1785  0.1121  0.1898
36283W        W79195  32.110  22.693   9.650 -0.1277  0.2335  0.4756
36284W        W79196  28.876  22.645   9.155  0.0215 -0.1381 -0.0445
36285W        W79197  28.231  19.019   9.355  0.0844 -0.0450 -0.3091
36286W        W79198  26.270  19.792   8.983  0.0521 -0.2120 -0.1081
36287W        W79199  25.817  20.665   7.285 -0.0579 -0.0973  0.1646
36288W        W79200  29.182  19.289   8.363 -0.0416 -0.0488 -0.3284
36289W        W79201  26.609  21.775   7.747 -0.3165 -0.1851 -0.0318
36290W        W79202  29.229  21.158   9.554 -0.0946 -0.0270 -0.2016
36291W        W79203  25.054  19.631   7.591  0.0504  0.0423  0.1519
36292W        W79204  27.360  21.956   8.527 -0.0710  0.0400 -0.0638
36293W        W79205  26.964  21.372   8.430 -0.1692 -0.0119 -0.0248
36294W        W79206  28.016  20.884   8.795 -0.5863  0.2858  0.1530
36295W        W79207  26.602  18.227   9.686  0.2419 -0.0555  0.0215
36296W        W79208  28.512  19.203   8.505  0.3872 -0.1063 -0.1033
36297W        W79209  27.967  19.841  10.321 -0.1032 -0.2359  0.2013
36298W        W79210  29.500  17.562   8.448 -0.1783  0.3302  0.2112
36299W        W79211  28.527  18.575   9.150  0.0390 -0.0823  0.1024
36300W        W79212  25.928  20.333   9.731  0.1467  0.1577 -0.0784
36301W        W79213  25.978  20.035   7.795 -0.0522  0.0504  0.2711
36302W        W79214  26.628  19.682   6.622  0.0598  0.0331 -0.1823
36303W        W79215  26.574  20.205   9.120 -0.1732  0.2022  0.0833
36304W        W79216  24.353  19.481  10.498  0.0844  0.0328  0.1706
36305W        W79217  26.253  19.884   8.390 -0.0554 -0.2095  0.2751
36306W        W79218  30.173  20.732   8.330  0.0638  0.0255  0.0952
36307W        W79219  27.773  18.867   8.533  0.1608  0.1446 -0.3282
36308W        W79220  26.614  18.636   8.483  0.0328  0.0369 -0.0152
36309W        W79221  28.692  22.162   8.053  0.0735  0.0592  0.4195
36310W        W79222  29.048  20.720   6.429 -0.1453  0.1183  0.1540
36311W        W79223  27.298  19.912   8.246  0.0633  0.1983 -0.0338
36312W        W79224  25.900  20.105   7.275  0.2993  0.0631 -0.1087
36313W        W79225  26.163  18.689   7.101  0.3555  0.0905  0.0118
36314W        W79226  27.919  18.367   9.086  0.0799  0.0653  0.2238
36315W        W79227  27.394  22.742   7.617  0.0551 -0.0779 -0.3103
36316W        W79228  27.925  20.252   7.173 -0.3645  0.0220 -0.1964
36317W        W79229  26.337  16.724   9.964 -0.2479  0.0551 -0.2759
36318W        W79230  27.609  19.864   8.665  0.1915 -0.4275 -0.1364
36319W        W79231  30.004  20.517   8.732  0.0133 -0.1876 -0.1749
36320W        W79232  28.638  16.295   9.927  0.0990  0.0574 -0.1787
36321W        W79233  28.206  20.252   7.679  0.2375  0.0575  0.0299
36322W        W79234  33.083  19.569   9.901 -0.2967  0.2251  0.0082
36323W        W79235  27.905  18.768   9.607 -0.0529  0.1343 -0.0181
36324W        W79236  27.804  18.125   7.831 -0.0149 -0.0463 -0.2544
36325W        W79237  28.705  19.475   6.609  0.0531 -0.0534  0.1120
36326W        W79238  26.035  18.589  10.206 -0.1631 -0.1480  0.0389
36327W        W79239  27.295  19.701   7.053 -0.1191  0.0743  0.1517
36328W        W79240  28.435  21.389   9.252  0.2179 -0.0607  0.3202
36329W        W79241  26.900  19.299   6.967 -0.0742  0.0778 -0.0187
36330W        W79242  28.432  19.509   7.143 -0.0164  0.0945 -0.3416
36331W        W79243  26.898  20.538   9.528 -0.1821 -0.1784 -0.0855
36332W        W79244  28.742  19.813   9.335  0.0219  0.2508 -0.0987
36333W        W79245  28.184  20.458   9.250 -0.0686 -0.2499  0.3068
36334W        W79246  27.252  18.906   8.539 -0.1619 -0.2072 -0.0526
36335W        W79247  27.314  19.281   8.923  0.1293 -0.2179 -0.1721
36336W        W79248  27.344  20.778   8.815  0.1117 -0.1145 -0.2753
36337W        W79249  29.274  18.250  10.139  0.2172  0.1969  0.3983
36338W        W79250  26.669  17.966   9.200 -0.1685  0.1865  0.0160
36339W        W79251  28.145  17.997   8.729 -0.1596 -0.0585 -0.1018
36340W        W79252  29.809  21.013   9.714 -0.0594  0.1453  0.4502
36341W        W79253  26.748  20.066   9.778 -0.1061  0.0926  0.0010
36342W        W79254  25.908  23.576   1.547 -0.0435  0.3844  0.0924
36343W        W79255  25.124  25.080  31.896 -0.1783  0.0814 -0.1000
36344W        W79256  27.306  22.702  31.505  0.0187  0.0489 -0.0486
36345W        W79257  28.523  23.529  31.469  0.2222 -0.0158  0.2014
36346W        W79258  26.853  21.511   0.990 -0.0007  0.3524 -0.0429
36347W        W79259  28.590  25.413   1.760 -0.0460  0.0546 -0.0845
36348W        W79260  23.996  22.090   1.292 -0.2947 -0.0181 -0.2884
36349W        W79261  28.263  23.880   2.939 -0.3669 -0.1626 -0.1924
36350W        W79262  29.146  23.711   3.083 -0.2554  0.0163  0.1291
36351W        W79263  26.757  24.217   0.174  0.3684 -0.1298 -0.1016
36352W        W79264  26.369  23.479   1.890  0.2951  0.2031 -0.1542
36353W        W79265  27.502  25.339   2.599 -0.1335 -0.1856  0.1516
36354W        W79266  27.264  22.798   0.153  0.3359 -0.0601  0.0224
36355W        W79267  26.241  22.365   1.971  0.2141 -0.0302  0.0196
36356W        W79268  28.508  23.239   1.451 -0.0669  0.1297  0.1044
36357W        W79269  26.259  23.990   1.721 -0.0383  0.0063  0.2457
36358W        W79270  26.549  21.554   1.524  0.1505 -0.0911  0.2078
36359W        W79271  26.530  23.728   0.888  0.3840  0.1031  0.2958
36360W        W79272  27.048  25.862   1.015  0.3382 -0.2841 -0.2312
36361W        W79273  26.854  22.004   3.237  0.0514 -0.0491 -0.0857
36362W        W79274  27.431  20.834   3.619  0.0094  0.0683  0.1713
36363W        W79275  26.014  25.216   1.249  0.2182  0.1868  0.0215
36364W        W79276  24.433  20.673  30.325 -0.2008 -0.1774 -0.2218
36365W        W79277  26.573  24.935   1.292  0.1050  0.1694 -0.1869
36366W        W79278  27.565  23.793   1.190  0.1776 -0.1723  0.4102
36367W        W79279  28.866  22.524   1.226 -0.0821 -0.0010 -0.1107
36368W        W79280  27.570  23.200   0.168  0.1969 -0.2384  0.0962
36369W        W79281  26.957  25.178   2.013 -0.0562 -0.0745  0.1081
36370W        W79282  27.833  25.220   2.204  0.0730 -0.1540 -0.1729
36371W        W79283  27.222  23.547   3.548  0.0847  0.0056 -0.2350
36372W        W79284  25.345  23.393   0.734  0.0521  0.1613  0.2501
36373W        W79285  25.614  25.546   1.061 -0.1094 -0.1291 -0.1107
36374W        W79286  26.858  23.635   2.014 -0.3140 -0.0018  0.2152
36375W        W79287  29.024  24.944   1.881 -0.0613  0.0483 -0.4306
36376W        W79288  28.403  24.596   2.922 -0.2586  0.0791 -0.1351
36377W        W79289  25.943  25.943   2.867 -0.2805 -0.1325  0.0603
36378W        W79290  25.560  24.625   0.501  0.0737  0.0616  0.0148
36379W        W79291  26.770  26.310   2.864  0.0316 -0.0325  0.2016
36380W        W79292  25.618  24.339   2.337  0.2109 -0.2474  0.1280
36381W        W79293  27.511  21.995   2.036  0.2430 -0.0554 -0.3041
36382W        W79294  27.668  24.459   1.313  0.2985  0.2208 -0.0643
36383W        W79295  26.883  25.916   0.492 -0.2080  0.1249 -0.0113
36384W        W79296  28.282  24.042   0.146  0.0769 -0.0680  0.0685
36385W        W79297  26.084  23.636   3.683 -0.1600 -0.1087 -0.1121
36386W        W79298  26.992  23.024   0.973 -0.1669 -0.1393  0.0049
36387W        W79299  27.588  21.828   3.880 -0.2506  0.1400  0.1856
36388W        W79300  26.179  25.553  31.879  0.0229  0.2940 -0.1313
36389W        W79301  28.490  22.414  31.839 -0.0558  0.1747  0.1176
36390W        W79302  27.275  23.565   0.176 -0.0821 -0.0441 -0.1177
36391W        W79303  27.489  20.958  31.275 -0.0471 -0.0908 -0.2777
36392W        W79304  28.593  22.291   1.559  0.0104 -0.1159 -0.0738
36393W        W79305  28.097  25.205   1.779  0.2067 -0.0552  0.2347
36394W        W79306  26.084  21.902   1.420 -0.1726 -0.2865 -0.0247
36395W        W79307  28.772  23.988   1.157 -0.0769 -0.0291 -0.0387
36396W        W79308  26.134  22.744  31.417 -0.2521 -0.1316  0.0934
36397W        W79309  27.576  22.939   1.394  0.3719  0.0409 -0.0604
36398W        W79310  25.744  24.566   3.219  0.2586  0.2009 -0.2613
36399W        W79311  25.177  21.826   1.020  0.1388 -0.1062 -0.2870
36400W        W79312  29.315  25.949  31.666  0.1045 -0.2217 -0.0151
36401W        W79313  29.072  25.187   2.619 -0.0147 -0.0654 -0.2272
36402W        W79314  26.678  25.778  31.974  0.0027  0.1904  0.2349
36403W        W79315  26.452  24.213   0.709  0.4474  0.3567 -0.0066
36404W        W79316  25.168  23.354   4.169  0.0545 -0.0087 -0.4940
36405W        W79317  25.206  22.491   2.747 -0.0845 -0.0077 -0.0487
36406W        W79318  25.819  21.211   0.701 -0.0130 -0.3085 -0.0490
36407W        W79319  28.462  24.208   1.525 -0.1428  0.0134 -0.1447
36408W        W79320  25.575  23.642   3.397  0.0282  0.0469  0.3319
36409W        W79321  29.186  22.243   2.866 -0.0865 -0.1792  0.2004
36410W        W79322  27.229  24.018   1.939  0.1670  0.3014  0.1690
36411W        W79323  29.506  24.519   2.005  0.0806 -0.2125 -0.1194
36412W        W79324  26.037  22.766  31.937  0.0930  0.0437  0.0103
36413W        W79325  28.310  21.218   3.462  0.1055  0.1621 -0.2849
36414W        W79326  28.242  22.399   1.936 -0.1329  0.0305  0.0740
36415W        W79327  25.869  23.430  29.825 -0.0215  0.0412  0.1543
36416W        W79328  26.209  24.466  31.662  0.2653  0.0954  0.1554
36417W        W79329  29.678  24.734   3.652 -0.2544 -0.1595 -0.3271
36418W        W79330  29.512  22.620   0.514  0.3153 -0.0775  0.2837
36419W        W79331  26.684  24.829   2.356 -0.0333  0.2428  0.3510
36420W        W79332  25.540  22.798   3.396 -0.0782 -0.3546  0.0326
36421W        W79333  25.861  25.447   4.727  0.1034  0.1565  0.2903
36422W        W79334  25.781  27.021   0.804 -0.1709 -0.1213  0.0629
36423W        W79335  26.268  22.688   1.558  0.1159  0.1156 -0.0561
36424W        W79336  25.821  24.712  31.517  0.0687  0.2938 -0.0329
36425W        W79337  24.345  21.138   1.965 -0.0271 -0.0850  0.3527
36426W        W79338  26.182  24.785   1.576 -0.2506 -0.0151 -0.1311
36427W        W79339  29.394  23.571   1.791 -0.0176  0.0568 -0.1464
36428W        W79340  26.129  23.977   2.188  0.0335 -0.0063  0.0239
36429W        W79341  28.235  21.450   2.796  0.0199  0.0083 -0.0823
36430W        W79342  25.251  25.230   0.808  0.0300 -0.0541 -0.0013
36431W        W79343  28.464  25.597   0.116  0.2074  0.1024 -0.0560
36432W        W79344  29.101  22.181   1.860 -0.0218 -0.0509 -0.0975
36433W        W79345  27.767  25.616   0.682 -0.0895  0.0341 -0.3934
36434W        W79346  25.469  23.820   2.247 -0.0794  0.0686  0.1038
36435W        W79347  26.087  22.430   0.706  0.1014 -0.1855  0.0178
36436W        W79348  26.395  21.633   3.071  0.2456 -0.0801  0.1025
36437W        W79349  24.887  21.622   2.123  0.1489 -0.1239  0.0557
36438W        W79350  28.659  23.004   2.773 -0.1447  0.4086  0.0384
36439W        W79351  25.533  22.486   0.761 -0.1052  0.1090 -0.1507
36440W        W79352  28.965  22.540   0.203  0.0676  0.1831 -0.0152
36441W        W79353  27.232  24.142   0.223  0.0186  0.1381 -0.1445
36442W        W79354  25.895  24.722   1.158 -0.2462  0.1368 -0.0575
36443W        W79355  27.811  22.916   2.826 -0.2156 -0.0736 -0.0401
36444W        W79356  27.302  25.346   0.635 -0.2618  0.2279  0.1139
36445W        W79357  28.575  25.042   2.667 -0.0865 -0.2114  0.0518
36446W        W79358  28.559  24.084  31.660  0.1518  0.0430  0.1267
36447W        W79359  25.111  22.542   1.147  0.0817  0.2855  0.0787
36448W        W79360  25.977  22.263  31.642 -0.2609 -0.2084 -0.2041
36449W        W79361  27.024  25.222   2.875 -0.0394 -0.3825  0.1086
36450W        W79362  27.441  24.205   2.819  0.1075  0.2923  0.0220
36451W        W79363  26.450  23.598  31.794 -0.2319 -0.1197 -0.2520
36452W        W79364  28.909  25.598   0.727  0.1437 -0.0173  0.1619
36453W        W79365  25.731  22.801  30.963 -0.2458  0.0736 -0.0365
36454W        W79366  25.791  23.492   2.032  0.0245 -0.0292 -0.0683
36455W        W79367  27.198  21.602   4.170  0.1011  0.2610  0.0862
36456W        W79368  28.589  23.327   2.274 -0.2168  0.0915 -0.2044
36457W        W79369  26.420  22.459  31.809  0.0155 -0.0153 -0.0876
36458W        W79370  24.882  21.209  31.458 -0.1654 -0.0767 -0.0791
36459W        W79371  27.711  24.843   0.958 -0.4129  0.2102 -0.0549
36460W        W79372  24.439  25.242   1.015 -0.4582 -0.3202  0.0319
36461W        W79373  24.046  23.499   1.437  0.2677 -0.1628  0.0458
36462W        W79374  26.992  24.921   1.034  0.2086 -0.1933  0.1030
36463W        W79375  28.439  22.286   2.429 -0.2470  0.0407  0.1544
36464W        W79376  26.195  22.933   2.696 -0.1684 -0.0077  0.0032
36465W        W79377  26.773  23.216   1.770  0.1988 -0.0996  0.0858
36466W        W79378  25.532  24.043   0.550 -0.0398 -0.0796  0.3353
36467W        W79379  26.185  25.151   2.939 -0.1177  0.0114  0.3243
36468W        W79380  27.773  21.630   1.581  0.0710  0.1631  0.1035
36469W        W79381  29.874  22.465   1.415 -0.1670  0.4250  0.1729
36470W        W79382  26.650  23.072   2.447  0.0486  0.3710 -0.1347
36471W        W79383  28.455  23.504  31.981  0.2752 -0.2890 -0.1994
36472W        W79384  28.842  22.173   0.567  0.0638 -0.0229 -0.2775
36473W        W79385  28.171  23.283   0.330  0.1572 -0.0434 -0.0644
36474W        W79386  26.170  24.116   3.982 -0.2785 -0.0999  0.2131
36475W        W79387  27.917  23.799   0.754  0.1855  0.2290  0.0678
36476W        W79388  27.785  25.919   1.539  0.1294  0.2240 -0.1132
36477W        W79389  28.051  22.797  31.471  0.0565 -0.2156 -0.2112
36478W        W79390  28.269  24.779   0.817 -0.2268  0.0043  0.2136
36479W        W79391  26.379  23.946   2.673 -0.2013 -0.0672  0.0773
36480W        W79392  26.225  23.237   2.303  0.1102 -0.1799  0.3112
36481W        W79393  28.318  24.334   0.543  0.0894  0.0440 -0.1768
36482W        W79394  26.531  21.707   2.184 -0.2338 -0.1856 -0.0525
36483W        W79395  26.840  23.411   0.072 -0.0418 -0.2975 -0.0268
36484W        W79396  27.001  22.183   1.377 -0.3741  0.0306 -0.2075
36485W        W79397  25.470  25.456   1.612 -0.2849 -0.0261  0.0214
36486W        W79398  27.924  21.161   2.545  0.1188  0.0485  0.2229
36487W        W79399  27.272  23.348   2.034 -0.1029  0.2733  0.0189
36488W        W79400  26.241  21.038   4.272  0.0643 -0.1147  0.2856
36489W        W79401  27.316  23.832   2.438  0.1037  0.4244  0.3597
36490W        W79402  27.460  23.472  31.080  0.2448 -0.1524  0.1987
36491W        W79403  27.487  22.365   0.619  0.0740 -0.0898 -0.1901
36492W        W79404  25.215  24.053  31.250  0.0456  0.0323  0.1320
36493W        W79405  26.178  21.419   2.393  0.1680 -0.0183 -0.0713
36494W        W79406  26.637  22.449   1.187  0.1133 -0.2694  0.0080
36495W        W79407  26.594  25.385   3.114  0.2801  0.3047 -0.1094
36496W        W79408  26.472  23.856   3.186  0.4820 -0.0802 -0.1364
36497W        W79409  26.708  23.709   1.532  0.0132  0.0270  0.3392
36498W        W79410  26.964  21.071   3.539 -0.0822 -0.2396  0.2099
36499W        W79411  28.453  22.775   1.747  0.1909  0.0162 -0.0149
36500W        W79412  25.954  26.103   0.333 -0.1146  0.0376 -0.1221
36501W        W79413  26.476  25.325   0.254 -0.1810 -0.0243 -0.2309
36502W        W79414  27.046  20.439   2.281  0.2347  0.3865  0.1964
36503W        W79415  26.539  23.574   2.386 -0.0721 -0.0996 -0.1638
36504W        W79416  28.058  24.279  31.769 -0.2801 -0.4062 -0.1978
36505W        W79417  27.772  25.220   3.520  0.1778 -0.2421 -0.0747
36506W        W79418  24.789  25.331   0.605  0.0883 -0.0290  0.1942
36507W        W79419  29.001  21.777   3.615 -0.2792  0.0129 -0.0017
36508W        W79420  25.398  25.169   2.066 -0.1976  0.0104 -0.3065
36509W        W79421  25.936  22.369   0.253 -0.0801  0.2202 -0.0043
36510W        W79422  25.595  23.262  31.960  0.2100 -0.1779  0.0381
36511W        W79423  28.411  23.683   1.309 -0.1949  0.1717  0.0747
36512W        W79424  28.035  24.363   1.698  0.0611 -0.1236  0.4727
36513W        W79425  25.878  21.813   2.283  0.2362 -0.2970 -0.1550
36514W        W79426  26.766  22.229   2.076 -0.0081  0.0554 -0.2217
36515W        W79427  26.171  24.765   2.275 -0.1505 -0.1235 -0.1394
36516W        W79428  27.969  23.504   1.156  0.2884 -0.1921  0.1810
36517W        W79429  28.486  22.817   2.327  0.1951 -0.2481 -0.1394
36518W        W79430  26.500  24.105   1.242  0.3421  0.1641  0.0348
36519W        W79431  26.980  22.715   2.648 -0.0140 -0.3267 -0.1522
36520W        W79432  24.487  22.859   1.051 -0.2861  0.0835 -0.3925
36521W        W79433  28.914  23.283   1.782 -0.1071  0.1638 -0.0465
36522W        W79434  26.914  21.814   0.559  0.1669  0.1468 -0.1009
36523W        W79435  27.022  24.947   1.582 -0.2375  0.0924  0.2779
36524W        W79436  27.499  24.894   2.012  0.0952 -0.3350 -0.0098
36525W        W79437  25.536  24.223  30.919  0.0616 -0.1016  0.2600
36526W        W79438  26.351  24.553   1.053 -0.1554  0.1957 -0.1176
36527W        W79439  25.707  21.311   3.004 -0.2447 -0.0432 -0.0701
36528W        W79440  27.263  22.866   1.802 -0.1872 -0.2838  0.2245
36529W        W79441  27.142  22.691   1.373  0.1683 -0.3117 -0.2493
36530W        W79442  27.789  23.265   0.676 -0.2906 -0.1546 -0.2254
36531W        W79443  27.540  22.336   0.104  0.0626 -0.1303 -0.2080
36532W        W79444  27.678  23.798   2.025  0.0777  0.1357  0.0425
36533W        W79445  27.121  22.626   2.212  0.3800  0.3949  0.1789
36534W        W79446  24.950  23.642   2.066  0.2343 -0.0176  0.0152
36535W        W79447  26.889  21.328   1.800  0.0302  0.2688 -0.0890
36536W        W79448  28.605  24.787   0.501 -0.0815 -0.1708  0.0629
36537W        W79449  27.191  23.139   2.785 -0.3682  0.2109  0.0536
36538W        W79450  26.857  23.497  31.474  0.0231  0.0322  0.0457
36539W        W79451  26.461  22.912   2.023  0.2061 -0.0616  0.1106
36540W        W79452  26.461  23.711   0.369  0.1081  0.1162  0.1776
36541W        W79453  27.034  21.824   2.261 -0.0170  0.1930  0.0633
36542W        W79454  27.172  24.963   2.398  0.1070 -0.1948  0.2322
36543W        W79455  26.921  25.390   0.177 -0.1657  0.2456 -0.1430
36544W        W79456  25.604  22.732   2.024  0.0241 -0.2301  0.0648
36545W        W79457  30.320  22.534   1.045  0.0526 -0.2317 -0.2174
36546W        W79458  26.171  24.854   0.102 -0.3471  0.1478 -0.0812
36547W        W79459  27.221  22.337   1.788  0.3324 -0.0372  0.1467
36548W        W79460  28.897  21.829   3.093 -0.1583  0.0576  0.5560
36549W        W79461  25.984  24.271   0.860  0.0786 -0.0973 -0.1890
36550W        W79462  28.892  21.623   4.350  0.0061 -0.1426  0.0514
36551W        W79463  24.996  22.054   2.974  0.0945  0.2212 -0.0098
36552W        W79464  28.932  24.446   1.924  0.2006  0.1517  0.2267
36553W        W79465  25.236  22.178   1.534  0.4319 -0.2520  0.1412
36554W        W79466  27.718  26.247   3.742  0.1908  0.1573 -0.2064
36555W        W79467  25.457  24.194   3.261 -0.1383 -0.1619  0.0353
36556W        W79468  27.942  22.484   0.813  0.3113 -0.3076 -0.1226
36557W        W79469  26.433  22.531   0.344  0.0618  0.3056  0.1079
36558W        W79470  26.820  24.005   2.317  0.0957  0.4013  0.0096
36559W        W79471  28.809  25.307   2.186  0.0555  0.3569 -0.0096
36560W        W79472  27.084  25.597  31.569 -0.0033  0.0596 -0.1376
36561W        W79473  28.243  22.661   2.719 -0.0748 -0.0621  0.1792
36562W        W79474  26.800  24.241   3.316  0.0257  0.0670 -0.1270
36563W        W79475  28.018  23.998   1.265 -0.0954 -0.2198 -0.0384
36564W        W79476  25.952  23.605  31.696 -0.0526  0.0514  0.0068
36565W        W79477  26.004  24.759   0.657  0.1300 -0.1228 -0.0231
36566W        W79478  24.944  21.994   2.426 -0.0684  0.0546  0.0466
36567W        W79479  27.904  24.666   0.410 -0.1346 -0.0124 -0.1002
36568W        W79480  28.072  22.596   1.483  0.0747 -0.0079  0.0246
36569W        W79481  27.495  21.959   2.592  0.2465 -0.3300 -0.1635
36570W        W79482  27.513  22.949   2.260  0.2499 -0.2220 -0.0664
36571W        W79483  26.822  22.666   1.714 -0.2410 -0.1656 -0.0685
36572W        W79484  26.020  22.724   2.279 -0.2993 -0.3073 -0.0428
36573W        W79485  27.943  25.037   2.646 -0.0572  0.0700 -0.1295
36574W        W79486  29.880  22.287   0.361 -0.0710  0.0070  0.0165
36575W        W79487  29.206  21.642   2.745 -0.1010  0.0474  0.2619
36576W        W79488  28.876  22.650   0.756  0.3561  0.0356 -0.0183
36577W        W79489  28.845  22.705  31.643  0.1443  0.0913  0.0952
36578W        W79490  25.916  22.042   3.364  0.2351  0.2552 -0.0548
36579W        W79491  26.310  22.892   3.307  0.1491 -0.1274 -0.1694
36580W        W79492  27.764  22.799   0.423 -0.2388  0.2457  0.0960
36581W        W79493  27.505  22.951   3.563 -0.0511 -0.0156  0.2058
36582W        W79494  26.577  26.180  31.084 -0.0059  0.3489  0.0784
36583W        W79495  28.440  24.406   1.999  0.0662  0.1548 -0.3094
36584W        W79496  28.360  24.051   0.933  0.0343 -0.1517 -0.0134
36585W        W79497  26.052  23.853   0.581  0.0625  0.3789  0.1440
36586W        W79498  25.517  24.593   3.653 -0.2704 -0.0189 -0.0534
36587W        W79499  24.833  23.182   1.282  0.1793 -0.0078 -0.2839
36588W        W79500  25.775  23.818  31.251 -0.1579  0.1081 -0.3778
36589W        W79501  28.884  24.475   1.381  0.2657  0.0409  0.0325
36590W        W79502  27.908  22.479   3.770  0.0696  0.0713  0.3022
36591W        W79503  29.191  21.754   0.832 -0.0506  0.1190  0.1264
36592W        W79504  27.494  23.287   3.130 -0.1633 -0.0868  0.3688
36593W        W79505  26.488  24.630   0.410  0.3358 -0.0723  0.0597
36594W        W79506  28.005  22.780   2.276 -0.1063  0.1290  0.5486
36595W        W79507  27.064  25.682   1.958  0.0653 -0.0599  0.1144
36596W        W79508  25.484  24.082   1.839 -0.0738  0.1257 -0.1530
36597W        W79509  25.785  25.128   0.834 -0.0444  0.1427 -0.1653
36598W        W79510  26.825  20.820   2.449  0.0227 -0.0474  0.1567
36599W        W79511  28.556  22.684   3.210  0.1218  0.0542 -0.3257
36600W        W79512  26.800  23.339   0.693  0.0987 -0.1435  0.0877
36601W        W79513  30.550  24.192   2.423  0.0215 -0.0225  0.2499
36602W        W79514  27.614  24.677   2.488 -0.1762  0.1303  0.0127
36603W        W79515  26.474  22.802   0.887  0.1594  0.0469 -0.2302
36604W        W79516  27.322  24.454   1.659  0.4040 -0.4124 -0.1027
36605W        W79517  28.945  23.746  31.605  0.1329 -0.4171  0.1806
36606W        W79518  27.250  26.426   2.983 -0.0640  0.1665  0.0080
36607W        W79519  25.467  22.310   3.217  0.0010  0.2136  0.1073
36608W        W79520  26.599  21.891   2.654  0.1207  0.1901  0.2500
36609W        W79521  28.445  24.808   1.565 -0.0737 -0.0311  0.2519
36610W        W79522  26.545  22.200   1.624  0.0574  0.1026 -0.0079
36611W        W79523  27.645  24.042   1.594  0.3389 -0.1520  0.0667
36612W        W79524  26.458  25.581   3.553  0.0262 -0.0375 -0.0941
36613W        W79525  26.016  24.273   2.558  0.0546 -0.0309 -0.1113
36614W        W79526  25.152  26.160   0.504 -0.0316 -0.0436 -0.1558
36615W        W79527  27.749  25.397   1.411  0.3243 -0.0932  0.0239
36616W        W79528  27.844  24.406   0.807 -0.3218 -0.0112 -0.0935
36617W        W79529  28.673  25.682   1.261  0.2048  0.0279  0.1354
36618W        W79530  27.402  24.129   0.779 -0.2131 -0.3746  0.3066
36619W        W79531  26.249  25.284   1.670 -0.1561 -0.2175  0.0391
36620W        W79532  24.995  24.297  31.795  0.1527  0.1259  0.2516
36621W        W79533  27.371  25.649  31.104  0.0950  0.1325  0.2743
36622W        W79534  27.561  24.401   2.092 -0.3443  0.0290  0.0240
36623W        W79535  28.913  23.483   4.060 -0.2139 -0.2346  0.0692
36624W        W79536  27.896  20.524  31.501  0.1233 -0.0947 -0.0758
36625W        W79537  30.758  23.682   1.953  0.1930 -0.0874  0.2480
36626W        W79538  28.394  23.686   0.517 -0.1566  0.2693 -0.0305
36627W        W79539  27.613  23.492   3.814 -0.0399  0.2060  0.5552
36628W        W79540  27.259  23.204   0.536  0.2355 -0.2116 -0.2717
36629W        W79541  25.439  22.267   0.255  0.0630  0.3202  0.1051
36630W        W79542  25.717  23.143   2.496 -0.1915  0.1790 -0.2189
36631W        W79543  28.002  22.628   4.218 -0.2627 -0.3200  0.1797
36632W        W79544  26.086  24.566   4.895  0.3314  0.0090  0.0851
36633W        W79545  27.624  25.943  31.466 -0.1176  0.1773  0.0797
36634W        W79546  24.312  22.286   0.992 -0.2160  0.0042  0.2850
36635W        W79547  26.932  23.803   0.480  0.1431  0.4018 -0.2535
36636W        W79548  28.017  21.993   2.072  0.2736  0.2648 -0.1744
36637W        W79549  26.081  22.896   0.451  0.3540  0.0007 -0.3078
36638W        W79550  27.556  21.502   2.329  0.2195  0.1923 -0.0589
36639W        W79551  27.221  26.695   1.120  0.0997 -0.0217  0.0428
36640W        W79552  26.816  25.904   1.470 -0.0380  0.2386  0.0439
36641W        W79553  26.894  25.893   2.364 -0.1404  0.0604  0.1184
36642W        W79554  25.121  22.020   0.536 -0.1147  0.0502 -0.4588
36643W        W79555  27.897  22.951   1.023  0.2962 -0.0514  0.0733
36644W        W79556  26.192  22.176   2.467 -0.1307  0.2830  0.3848
36645W        W79557  28.018  21.933   3.576  0.0953 -0.1148  0.1626
36646W        W79558  26.264  24.059  31.966  0.0953 -0.2005 -0.1283
36647W        W79559  27.529  22.092   1.404  0.0488  0.1813  0.0663
36648W        W79560  27.375  23.676   2.891 -0.0019 -0.3182 -0.0091
36649W        W79561  25.788  23.084   1.460  0.2300  0.2397 -0.2834
36650W        W79562  27.471  22.827   0.799  0.0576  0.2976 -0.0712
36651W        W79563  28.834  22.545   2.592 -0.0745  0.1652  0.0399
36652W        W79564  26.680  24.278  31.582 -0.1772  0.0318  0.3700
36653W        W79565  28.472  24.218   2.548  0.1119  0.5223 -0.1104
36654W        W79566  25.170  22.806   1.604  0.0391 -0.0212  0.2135
36655W        W79567  28.497  22.314   0.933 -0.3099 -0.0433 -0.1035
36656W        W79568  26.736  24.511   1.486  0.0128  0.0435 -0.1255
36657W        W79569  26.562  22.573   2.398  0.0423  0.0675 -0.0045
36658W        W79570  28.613  23.384   3.643  0.1775 -0.0504  0.3451
36659W        W79571  25.635  21.542   1.111 -0.0496  0.0315 -0.0417
36660W        W79572  28.777  25.218  31.986 -0.2402  0.2664  0.1682
36661W        W79573  28.112  23.237   2.030  0.0169  0.2576 -0.1242
36662W        W79574  25.898  26.113  31.773  0.2202 -0.1157  0.1608
36663W        W79575  28.045  24.286   2.274 -0.0432  0.1040  0.0633
36664W        W79576  27.708  26.281   1.157 -0.0839 -0.0138 -0.1306
36665W        W79577  25.296  23.445   1.281 -0.1609 -0.2773  0.0442
36666W        W79578  29.298  23.788   2.591 -0.0216 -0.1431  0.0147
36667W        W79579  27.849  23.870   2.613  0.0948 -0.0633 -0.1085
36668W        W79580  27.820  23.630   0.256 -0.0867 -0.1303 -0.0933
36669W        W79581  25.989  23.834   1.095 -0.1295  0.0106  0.1289
36670W        W79582  25.523  25.970   1.410 -0.1294 -0.4061 -0.0556
36671W        W79583  27.641  21.060   2.088  0.2264  0.1284 -0.5004
36672W        W79584  27.561  22.455   2.149 -0.2071 -0.0139  0.1742
36673W        W79585  24.102  26.281  31.546 -0.1494 -0.1054 -0.0547
36674W        W79586  27.486  21.791   3.181  0.2588  0.1011 -0.3703
36675W        W79587  28.313  25.331   1.345 -0.2565 -0.0260  0.0591
36676W        W79588  26.811  24.944   3.330  0.0225 -0.1340 -0.3627
36677W        W79589  25.354  23.161  30.706  0.2987 -0.0800  0.0889
36678W        W79590  26.515  24.369   2.453  0.2359  0.0965  0.2478
36679W        W79591  27.102  23.190   1.421 -0.0178  0.0113 -0.0420
36680W        W79592  27.212  25.375   1.100  0.1163 -0.0062  0.1646
36681W        W79593  28.137  24.470   1.194  0.2659 -0.0884 -0.2589
36682W        W79594  26.838  22.829   0.554 -0.1773  0.3641 -0.0081
36683W        W79595  28.021  25.230   0.887 -0.1638 -0.0099 -0.0166
36684W        W79596  26.566  21.887   1.117 -0.2810  0.0272  0.1393
36685W        W79597  28.893  23.234  31.778 -0.2914  0.0944 -0.0555
36686W        W79598  28.295  21.291   1.611  0.3430 -0.0914 -0.0530
36687W        W79599  26.401  24.788   2.729 -0.1645  0.1958  0.1635
36688W        W79600  24.560  22.527  31.451  0.0529  0.0274  0.4317
36689W        W79601  26.128  24.929  31.087 -0.2879  0.1150 -0.0615
36690W        W79602  25.997  23.052   1.889  0.1006  0.1118  0.3085
36691W        W79603  26.323  21.513   4.131  0.1478 -0.1647 -0.0806
36692W        W79604  25.417  21.653   4.328 -0.0778  0.0414  0.1353
36693W        W79605  26.784  24.147   1.774 -0.0147 -0.1263  0.0300
36694W        W79606  25.140  22.682   0.543 -0.0195  0.1268 -0.2614
36695W        W79607  27.337  24.685   0.608 -0.0548 -0.0690  0.0634
36696W        W79608  26.664  22.933   1.339  0.0742 -0.0237 -0.0869
36697W        W79609  25.851  21.393  31.930 -0.2365  0.0174 -0.0911
36698W        W79610  26.938  24.081   0.908  0.0021 -0.3421 -0.1284
36699W        W79611  28.653  25.020   0.983 -0.1480  0.0397  0.4698
36700W        W79612  25.631  22.044   1.215 -0.3787  0.2892  0.1295
36701W        W79613  28.175  25.815   5.045 -0.2026 -0.1451  0.1849
36702W        W79614  24.355  24.383  30.909  0.0913  0.0389 -0.1626
36703W        W79615  25.477  21.935   2.552 -0.0440  0.0530 -0.1026
36704W        W79616  25.666  22.744   2.800 -0.1474  0.0232  0.0361
36705W        W79617  23.838  22.832  31.957  0.3635 -0.1391  0.1448
36706W        W79618  27.795  22.302   1.748 -0.0186 -0.2746  0.2602
36707W        W79619  28.052  25.707   1.107 -0.0551 -0.1159 -0.0474
36708W        W79620  27.464  26.468   0.751  0.0565  0.1031  0.0992
36709W        W79621  28.038  23.156   1.544  0.5752 -0.0332 -0.0103
36710W        W79622  26.908  23.495   2.646 -0.0084 -0.1448 -0.1546
36711W        W79623  24.377  22.094   2.309 -0.1697 -0.2092  0.4260
36712W        W79624  29.098  23.452   0.172  0.1975  0.0556 -0.0432
36713W        W79625  25.563  23.646   2.890 -0.0858  0.0859  0.1901
36714W        W79626  29.922  24.630   1.753  0.0668 -0.0006 -0.0874
36715W        W79627  28.984  22.962   2.214  0.1311 -0.2068 -0.1394
36716W        W79628  27.158  23.625   1.617  0.0697 -0.2344  0.0180
36717W        W79629  26.269  22.169   2.949 -0.0647 -0.2752 -0.0220
36718W        W79630  26.332  23.433   2.843 -0.0636  0.4468 -0.1603
36719W        W79631  28.223  24.699   2.445 -0.1862  0.0251  0.0643
36720W        W79632  24.811  22.356   0.322 -0.0089 -0.2644 -0.2287
36721W        W79633  27.594  23.373   2.504  0.1430 -0.4336 -0.0727
36722W        W79634  27.476  24.953   1.385  0.0190  0.1271  0.2969
36723W        W79635  25.946  23.614   2.585  0.0462 -0.0721  0.3013
36724W        W79636  28.386  22.763   1.175  0.0267 -0.0745 -0.0742
36725W        W79637  26.173  21.799   1.892  0.0735  0.0371  0.0027
36726W        W79638  27.989  24.949   1.362 -0.2844 -0.2706  0.0638
36727W        W79639  27.728  25.057   4.213 -0.0339  0.1093  0.1150
36728W        W79640  28.677  23.122   0.293 -0.1877 -0.0683  0.0192
36729W        W79641  27.919  23.490  30.876 -0.0946 -0.0994  0.1680
36730W        W79642  28.621  24.425   3.336 -0.2171 -0.0062 -0.1242
36731W        W79643  28.282  24.044   3.416  0.3319  0.0900 -0.0345
36732W        W79644  27.475  25.360   1.785 -0.0527  0.0621 -0.2238
36733W        W79645  28.220  23.158   2.568  0.0077  0.2092  0.0244
36734W        W79646  24.317  21.419   1.551 -0.0766  0.3511 -0.0174
36735W        W79647  25.735  24.578   0.034 -0.1063  0.1760  0.2021
36736W        W79648  27.216  24.480   1.082 -0.0107  0.3935 -0.1386
36737W        W79649  28.597  22.015   2.010 -0.0014 -0.2764  0.1655
36738W        W79650  25.789  22.570   1.520  0.0680 -0.1797  0.0723
36739W        W79651  26.294  21.135  31.843  0.1366  0.0125 -0.3298
36740W        W79652  25.135  25.484   1.268  0.0977 -0.2712 -0.1697
36741W        W79653  27.118  24.449   2.421 -0.2688  0.1453 -0.0047
36742W        W79654  26.108  25.270   6.314  0.1378  0.2684 -0.2159
36743W        W79655  26.382  23.367   3.355 -0.0208 -0.1795  0.0418
36744W        W79656  28.749  22.171   5.142  0.1768 -0.2757 -0.4014
36745W        W79657  27.031  23.034   3.324 -0.0329  0.2156  0.0235
36746W        W79658  23.953  21.347   5.356 -0.1699  0.2709  0.3469
36747W        W79659  27.725  23.639   3.353 -0.4482  0.1223 -0.0615
36748W        W79660  25.758  21.920   7.574 -0.0099  0.2945  0.2280
36749W        W79661  28.686  24.527   6.131 -0.0784 -0.1685 -0.0436
36750W        W79662  28.250  24.640   6.411  0.0810  0.1432 -0.2952
36751W        W79663  26.466  22.610   2.933  0.0891  0.1697  0.1609
36752W        W79664  26.604  22.406   5.206 -0.1134 -0.2210  0.0245
36753W        W79665  26.126  26.068   6.095 -0.1800 -0.0427 -0.0299
36754W        W79666  26.620  21.011   3.960  0.0328  0.3131 -0.0977
36755W        W79667  24.093  22.043   5.636 -0.2509 -0.1409  0.0202
36756W        W79668  27.295  23.113   6.269  0.1177 -0.0098  0.3241
36757W        W79669  25.546  23.386   5.845 -0.0518  0.1506  0.2675
36758W        W79670  25.689  23.164   4.922  0.1132  0.1743  0.1063
36759W        W79671  25.355  22.127   4.176 -0.1974  0.2896 -0.0404
36760W        W79672  26.648  24.251   4.034  0.2980 -0.0715 -0.0001
36761W        W79673  27.374  22.890   8.970 -0.0241 -0.0531 -0.0641
36762W        W79674  28.070  20.722   6.868 -0.0698 -0.0959 -0.1085
36763W        W79675  26.596  23.563   4.689  0.1987 -0.0161 -0.3366
36764W        W79676  24.281  22.413   4.240  0.0531 -0.0716 -0.0279
36765W        W79677  24.256  23.527   5.716 -0.0937  0.1541 -0.1340
36766W        W79678  27.051  23.119   7.770 -0.0671  0.1038 -0.0481
36767W        W79679  27.698  22.593   5.537 -0.0633  0.0570  0.1709
36768W        W79680  28.072  23.274   5.889 -0.1657  0.0469  0.0232
36769W        W79681  27.338  24.105   5.205 -0.0165 -0.6142 -0.2756
36770W        W79682  27.417  23.247   4.526  0.1845  0.2251 -0.0443
36771W        W79683  27.593  23.281   7.479  0.1131  0.1673  0.2956
36772W        W79684  25.782  22.200   6.242 -0.1200  0.3058 -0.2301
36773W        W79685  24.593  25.283   4.495  0.1693  0.0560  0.1255
36774W        W79686  26.481  23.636   4.061  0.1350 -0.0396 -0.1565
36775W        W79687  27.433  25.714   2.293 -0.2013  0.1226 -0.2122
36776W        W79688  27.805  23.643   6.237 -0.2260  0.0620 -0.2382
36777W        W79689  27.135  25.889   6.995  0.1879  0.2447  0.1625
36778W        W79690  25.229  23.334   3.655  0.1154  0.0642  0.0954
36779W        W79691  27.066  24.852   6.065  0.1570 -0.0257 -0.0833
36780W        W79692  26.660  24.231   5.395 -0.2482 -0.3256  0.1050
36781W        W79693  26.869  22.077   6.075 -0.2761  0.3099  0.0217
36782W        W79694  26.385  22.906   5.103 -0.0054 -0.0615  0.0939
36783W        W79695  26.844  24.675   2.915  0.2872 -0.2208 -0.1981
36784W        W79696  28.025  23.516   5.094 -0.0933 -0.2523  0.1086
36785W        W79697  25.920  24.516   6.945  0.2569  0.0843  0.1793
36786W        W79698  25.369  24.399   6.712  0.0308 -0.2019 -0.2420
36787W        W79699  28.027  22.823   7.149  0.0464  0.1918  0.2011
36788W        W79700  27.874  24.382   3.529  0.1074 -0.3649  0.0834
36789W        W79701  27.383  22.784   3.051  0.0600 -0.3335  0.2375
36790W        W79702  25.595  23.712   3.971  0.1554 -0.2202 -0.0169
36791W        W79703  27.420  21.320   6.015 -0.2406  0.1362  0.1049
36792W        W79704  25.674  20.842   4.759  0.1634  0.0097 -0.1410
36793W        W79705  25.731  24.620   5.328  0.1822  0.0972 -0.1090
36794W        W79706  26.656  22.442   6.371  0.0153  0.0120 -0.0998
36795W        W79707  27.074  23.547   5.053  0.0576  0.1837  0.2363
36796W        W79708  26.100  22.335   4.313 -0.1386  0.3326 -0.1545
36797W        W79709  28.016  22.632   6.677 -0.0340  0.1432 -0.2030
36798W        W79710  26.721  23.925   4.965 -0.1764 -0.0833  0.1513
36799W        W79711  24.545  22.250   5.328 -0.1917 -0.3383 -0.1948
36800W        W79712  28.453  25.391   4.133  0.1606  0.0923 -0.1316
36801W        W79713  27.800  24.465   4.223  0.2663  0.2996  0.3328
36802W        W79714  28.281  24.286   3.970  0.2669  0.3813  0.4739
36803W        W79715  25.892  22.722   5.065  0.0606  0.0593  0.0574
36804W        W79716  25.945  23.754   7.702 -0.1128  0.0065 -0.3053
36805W        W79717  25.445  23.100   6.952  0.1569  0.1069 -0.1580
36806W        W79718  25.964  21.523   3.354  0.2564 -0.1487  0.3052
36807W        W79719  29.767  24.100   6.676 -0.0548 -0.2130 -0.0494
36808W        W79720  25.494  23.681   7.769 -0.0039 -0.1225  0.0753
36809W        W79721  27.749  22.691   6.123 -0.1677  0.0895  0.0895
36810W        W79722  26.122  23.701   6.548 -0.1088 -0.1943 -0.0525
36811W        W79723  26.543  24.542   4.997  0.0942  0.2091  0.0063
36812W        W79724  26.721  23.092   2.967 -0.0719 -0.2753  0.0569
36813W        W79725  28.319  21.365   5.058  0.1365 -0.0619  0.1961
36814W        W79726  27.965  21.211   6.603 -0.0921  0.1106  0.0670
36815W        W79727  25.533  24.134   2.789 -0.0827  0.0176 -0.0823
36816W        W79728  25.729  24.181   4.837 -0.2384 -0.2742  0.4124
36817W        W79729  29.146  24.752   6.387  0.1020 -0.0914  0.0082
36818W        W79730  26.764  22.731   3.644  0.0875  0.1386 -0.1088
36819W        W79731  25.132  23.875   6.487  0.4811 -0.0458  0.1176
36820W        W79732  26.901  22.004   6.545 -0.1877  0.0631 -0.1620
36821W        W79733  28.491  25.119   7.596  0.2238  0.1864 -0.0564
36822W        W79734  26.421  25.127   3.723 -0.0470  0.3120  0.2617
36823W        W79735  24.760  23.578   5.639 -0.1237 -0.0452  0.2510
36824W        W79736  24.901  23.878   5.212 -0.1951 -0.3098  0.1280
36825W        W79737  25.712  21.336   7.678 -0.0447 -0.3757  0.1321
36826W        W79738  26.045  23.203   6.615  0.1271 -0.2446 -0.1708
36827W        W79739  29.262  21.679   7.053 -0.0518  0.0882 -0.3370
36828W        W79740  25.344  21.620   8.219 -0.2773 -0.0028  0.1122
36829W        W79741  28.704  20.132   5.177 -0.1943  0.0385 -0.1751
36830W        W79742  25.673  22.996   3.929  0.2215  0.0618 -0.2502
36831W        W79743  27.959  23.892   3.761  0.1109 -0.2027 -0.0622
36832W        W79744  27.280  23.027   4.004 -0.2358  0.2044  0.0792
36833W        W79745  26.625  22.896   4.292 -0.2247  0.0896 -0.0044
36834W        W79746  25.139  23.250   7.351 -0.0949  0.0929 -0.1716
36835W        W79747  26.303  21.994   4.583 -0.1469  0.0826  0.2615
36836W        W79748  25.745  22.732   7.354 -0.1881 -0.1739  0.2685
36837W        W79749  24.910  21.524   4.531 -0.0135 -0.0308  0.0186
36838W        W79750  26.702  23.082   7.171 -0.2357  0.1755  0.0809
36839W        W79751  25.035  21.723   4.018  0.0178 -0.1082  0.1319
36840W        W79752  28.242  21.330   5.566  0.2911  0.4363  0.1920
36841W        W79753  26.738  22.340   4.356 -0.2625 -0.1460 -0.1740
36842W        W79754  24.992  24.141   4.735  0.1651  0.0472 -0.1402
36843W        W79755  28.316  21.676   6.650 -0.1889  0.2138  0.2896
36844W        W79756  26.578  25.271   4.813 -0.0685 -0.2730  0.2312
36845W        W79757  28.211  24.997   5.293  0.0509  0.2824 -0.1622
36846W        W79758  28.015  24.715   3.847 -0.1602 -0.1797  0.1434
36847W        W79759  27.076  21.895   8.065 -0.2576  0.0524 -0.0261
36848W        W79760  26.933  22.525   3.124 -0.1845 -0.0400 -0.2506
36849W        W79761  24.825  25.112   5.015 -0.0681 -0.0251  0.3011
36850W        W79762  26.329  23.820   5.364  0.1036 -0.2352  0.1484
36851W        W79763  26.340  22.568   4.707 -0.0828 -0.2893  0.0199
36852W        W79764  27.314  24.697   4.541 -0.2889 -0.0429 -0.1913
36853W        W79765  27.087  24.489   3.695 -0.0101  0.1978 -0.3755
36854W        W79766  25.107  23.355   6.590 -0.2151 -0.0359 -0.1250
36855W        W79767  27.982  21.146   7.180 -0.0729  0.3067  0.0455
36856W        W79768  29.038  23.880   5.891 -0.1768 -0.0733  0.0027
36857W        W79769  27.324  23.025   4.924 -0.0218  0.0551 -0.1005
36858W        W79770  25.480  21.146   3.450 -0.0069 -0.0826 -0.0945
36859W        W79771  26.542  24.444   4.487  0.2293  0.2588 -0.2073
36860W        W79772  25.328  24.452   4.945 -0.3327 -0.0784 -0.1115
36861W        W79773  24.543  24.132   5.581  0.0613  0.2199 -0.0142
36862W        W79774  27.331  22.505   4.973  0.2116 -0.2600 -0.3160
36863W        W79775  27.136  21.988   4.991  0.0437  0.0813  0.3910
36864W        W79776  24.626  22.135   8.871 -0.1143  0.1487 -0.1480
36865W        W79777  29.011  23.056   7.011 -0.1024  0.3232  0.1762
36866W        W79778  25.842  23.241   2.989 -0.0351  0.0636 -0.1165
36867W        W79779  25.687  23.388   7.376  0.0347  0.0196  0.3355
36868W        W79780  26.152  22.185   5.085 -0.1282 -0.3405  0.1654
36869W        W79781  28.515  22.011   4.709 -0.1257 -0.0048 -0.2115
36870W        W79782  26.633  25.033   6.589  0.1729  0.2568  0.1549
36871W        W79783  28.260  24.410   4.463 -0.0867 -0.0816  0.1259
36872W        W79784  27.386  22.275   2.990  0.2551 -0.1190 -0.2056
36873W        W79785  26.972  21.678   2.838  0.2499 -0.1212 -0.1745
36874W        W79786  26.516  23.811   7.758 -0.2015  0.4581  0.1064
36875W        W79787  26.246  24.098   4.876 -0.1899 -0.3875 -0.2540
36876W        W79788  26.866  23.701   6.600  0.0146  0.1583  0.2153
36877W        W79789  26.991  22.640   4.069 -0.1231  0.2033  0.3956
36878W        W79790  29.792  24.270   3.786 -0.1888  0.3564 -0.0436
36879W        W79791  26.439  22.244   6.799  0.1726 -0.1066 -0.1765
36880W        W79792  27.533  22.951   7.151 -0.0936  0.0239 -0.0887
36881W        W79793  28.143  23.865   5.874  0.2935  0.2448  0.0465
36882W        W79794  25.745  22.150   5.532  0.1995 -0.0359 -0.0102
36883W        W79795  25.869  21.301   3.904 -0.3942  0.1350 -0.1592
36884W        W79796  25.729  21.182   6.246 -0.0106 -0.0182 -0.2173
36885W        W79797  24.847  24.875   4.285  0.3701 -0.0923  0.0082
36886W        W79798  29.077  21.666   5.840  0.2856  0.0128 -0.0787
36887W        W79799  26.240  21.320   5.620 -0.2336 -0.0945 -0.0563
36888W        W79800  26.513  21.734   5.874  0.1092 -0.1687 -0.2182
36889W        W79801  28.289  22.991   6.286  0.2189  0.1874 -0.0500
36890W        W79802  26.834  22.582   4.742  0.0127 -0.2584 -0.1313
36891W        W79803  28.355  23.169   4.816 -0.2284  0.0590 -0.3067
36892W        W79804  25.718  22.290   2.242  0.0889 -0.0360 -0.2172
36893W        W79805  26.912  22.059   7.024 -0.1830 -0.1644  0.1399
36894W        W79806  24.754  22.985   7.758 -0.0885 -0.2114 -0.1340
36895W        W79807  25.995  25.649   5.899 -0.1119  0.4089  0.0591
36896W        W79808  27.623  24.603   5.872  0.1109  0.2268 -0.1529
36897W        W79809  27.769  22.825   5.100 -0.1709 -0.1259 -0.0204
36898W        W79810  27.421  21.925   6.886  0.0987 -0.0101 -0.3757
36899W        W79811  24.844  22.228   3.940  0.3242  0.1237  0.0035
36900W        W79812  27.083  24.057   4.122 -0.2371 -0.4733 -0.2464
36901W        W79813  27.541  23.857   4.221 -0.2141 -0.2086  0.1161
36902W        W79814  26.816  22.905   6.388 -0.1983  0.3131  0.1541
36903W        W79815  27.078  24.975   6.939 -0.4087  0.0153  0.3012
36904W        W79816  26.364  24.310   2.969  0.1243 -0.3157  0.3700
36905W        W79817  27.289  24.510   6.981  0.0704  0.2519  0.0891
36906W        W79818  25.057  23.883   4.225 -0.2248  0.0771 -0.2245
36907W        W79819  26.813  22.109   5.534  0.0761  0.1961 -0.0189
36908W        W79820  25.233  24.801   5.383  0.1188 -0.3450 -0.1500
36909W        W79821  26.438  22.553   3.966 -0.0636  0.1337  0.3074
36910W        W79822  25.095  22.268   5.141 -0.3673 -0.0164  0.0081
36911W        W79823  28.456  21.847   5.366  0.2007  0.1564 -0.0797
36912W        W79824  27.895  23.232   3.504  0.3087 -0.0489 -0.1206
36913W        W79825  25.439  22.124   7.269  0.0340  0.1471 -0.1069
36914W        W79826  26.186  20.822   3.834  0.0957 -0.1939  0.1702
36915W        W79827  25.962  23.588   6.074  0.0945  0.0135  0.1293
36916W        W79828  26.800  22.539   5.891  0.0178  0.2704  0.0818
36917W        W79829  28.571  21.700   5.809 -0.1159  0.2279 -0.1274
36918W        W79830  27.001  24.539   5.236  0.0936 -0.1698 -0.0283
36919W        W79831  26.594  25.514   6.315  0.3001 -0.0116 -0.0845
36920W        W79832  25.182  22.375   2.196  0.4917  0.0566 -0.5756
36921W        W79833  27.607  20.967   6.886  0.2038 -0.1293  0.1834
36922W        W79834  25.726  23.307   4.434 -0.1095  0.0557  0.0278
36923W        W79835  25.088  23.181   5.715  0.0749  0.1950 -0.0208
36924W        W79836  26.666  24.714   5.685 -0.1611  0.2880  0.1288
36925W        W79837  26.390  22.013   4.102  0.1485 -0.1906 -0.3089
36926W        W79838  26.181  24.777   6.111  0.0381  0.0135  0.2821
36927W        W79839  25.976  23.387   8.321 -0.1348 -0.1220 -0.1496
36928W        W79840  27.399  23.796   5.623 -0.0303  0.2554 -0.0510
36929W        W79841  25.955  22.210   6.747 -0.4325  0.0539  0.0396
36930W        W79842  25.902  22.524   3.165  0.0972 -0.1743 -0.0007
36931W        W79843  26.586  24.173   6.675 -0.1355  0.0731 -0.0358
36932W        W79844  27.507  23.592   5.193 -0.1860 -0.1190 -0.0172
36933W        W79845  25.443  21.468   5.382 -0.2227 -0.3791 -0.1281
36934W        W79846  25.480  24.805   7.042  0.0606  0.0847  0.1694
36935W        W79847  26.641  22.003   4.906  0.1990  0.0400 -0.4807
36936W        W79848  29.150  24.822   4.455  0.0217  0.0417 -0.0248
36937W        W79849  27.820  24.841   6.268 -0.0166  0.0170  0.0857
36938W        W79850  25.330  23.676   5.501  0.0988  0.3164  0.1581
36939W        W79851  25.561  23.683   6.342  0.1050 -0.0041  0.1742
36940W        W79852  26.612  23.360   5.159  0.3159 -0.1079 -0.0276
36941W        W79853  27.864  21.810   6.439 -0.0742  0.0115  0.2268
36942W        W79854  25.356  22.647   7.074  0.1562 -0.0667  0.0023
36943W        W79855  26.915  24.032   2.858  0.0265 -0.0629  0.1292
36944W        W79856  24.745  24.030   6.123  0.0044  0.2396 -0.2323
36945W        W79857  29.094  22.642   4.884  0.1211 -0.0917  0.1223
36946W        W79858  28.600  24.028   4.441 -0.0488 -0.2980 -0.0256
36947W        W79859  26.317  22.039   5.512 -0.0038 -0.1102  0.0216
36948W        W79860  28.762  21.667   6.285  0.1795 -0.0569  0.0220
36949W        W79861  25.979  23.680   4.526 -0.1926 -0.0424  0.0439
36950W        W79862  26.374  22.360   5.928  0.0831  0.3788 -0.1710
36951W        W79863  26.302  22.039   6.326 -0.1299 -0.0714 -0.3772
36952W        W79864  27.817  24.000   5.110  0.1753 -0.1205  0.1582
36953W        W79865  24.886  21.709   5.296  0.1594 -0.0790  0.2584
36954W        W79866  28.876  25.368   7.086 -0.0033  0.7317  0.1683
36955W        W79867  26.172  24.389   6.486  0.0454 -0.1296  0.1010
36956W        W79868  26.387  21.647   5.260 -0.0420 -0.0636  0.1797
36957W        W79869  24.458  23.137   3.862  0.0916  0.0805 -0.0530
36958W        W79870  26.250  22.732   7.078  0.0396  0.5139  0.1277
36959W        W79871  28.460  23.025   5.701  0.0832 -0.1796  0.0315
36960W        W79872  25.930  23.213   3.542  0.0129 -0.0397 -0.0386
36961W        W79873  29.012  22.940   5.611  0.2515 -0.1689 -0.0625
36962W        W79874  26.975  24.031   5.963  0.0349 -0.0002  0.1691
36963W        W79875  27.377  22.367   5.837 -0.0500  0.0816 -0.3288
36964W        W79876  26.420  22.435   3.465  0.3176  0.0934  0.2647
36965W        W79877  25.464  23.160   5.381 -0.0283  0.0552 -0.2416
36966W        W79878  26.941  22.078   7.571  0.0311 -0.2981 -0.0493
36967W        W79879  27.859  23.648   5.507  0.2655  0.3771 -0.0948
36968W        W79880  25.790  21.054   5.762  0.1278  0.0234  0.0939
36969W        W79881  27.044  22.592   5.447 -0.2173 -0.2135  0.0189
36970W        W79882  29.108  22.519   6.812  0.1735  0.2247  0.0374
36971W        W79883  27.712  22.251   6.496  0.0394 -0.0630  0.0894
36972W        W79884  25.507  21.916   6.756 -0.1868  0.1081  0.1105
36973W        W79885  27.558  24.935   6.768  0.3458 -0.1022 -0.0940
36974W        W79886  27.948  21.952   2.953 -0.0014 -0.0813 -0.1241
36975W        W79887  27.503  21.502   6.626  0.1691  0.1630 -0.1172
36976W        W79888  29.247  22.133   5.032 -0.0931 -0.0371  0.0415
36977W        W79889  27.085  21.510   3.286  0.2375 -0.1867 -0.2854
36978W        W79890  26.930  23.124   5.970 -0.0654  0.0012  0.0702
36979W        W79891  27.427  24.987   7.370  0.0423  0.2261 -0.0514
36980W        W79892  25.770  21.873   4.019  0.0634  0.2127  0.0618
36981W        W79893  28.438  22.789   7.437 -0.1680  0.2880  0.2063
36982W        W79894  27.254  24.019   3.259 -0.1789  0.0012 -0.0609
36983W        W79895  27.368  23.020   5.419 -0.1292  0.0641  0.1022
36984W        W79896  25.869  22.758   4.570  0.1651  0.3117  0.2567
36985W        W79897  25.946  23.005   6.091  0.1581 -0.1894  0.2488
36986W        W79898  25.831  22.266   2.747  0.0383  0.0814 -0.1962
36987W        W79899  25.496  23.917   4.475 -0.1355 -0.3417  0.3401
36988W        W79900  26.809  25.478   6.837 -0.0339 -0.2288  0.2415
36989W        W79901  28.107  24.829   7.515 -0.0014 -0.0665  0.4231
36990W        W79902  27.566  20.921   5.526 -0.2961 -0.0997 -0.3921
36991W        W79903  28.766  23.038   6.072  0.1551  0.0301 -0.2324
36992W        W79904  24.866  24.514   5.834  0.0677 -0.0642  0.2112
36993W        W79905  28.759  21.676   4.938  0.0219 -0.2608 -0.1519
36994W        W79906  26.033  25.675   6.523  0.0834  0.0284 -0.3140
36995W        W79907  25.743  23.543   6.922 -0.1716 -0.1118  0.0959
36996W        W79908  25.597  24.112   5.340 -0.1400 -0.0304 -0.2323
36997W        W79909  28.451  20.297   5.559 -0.0375  0.2060 -0.1674
36998W        W79910  28.226  22.729   5.163 -0.0657  0.1215  0.1748
36999W        W79911  26.408  22.863   6.133  0.0301 -0.0583 -0.1126
37000W        W79912  29.447  23.237   5.620 -0.1368 -0.1412  0.2588
37001W        W79913  27.924  24.975   5.715 -0.2517  0.0424 -0.0120
37002W        W79914  26.129  22.539   6.457  0.2005 -0.3635  0.0263
37003W        W79915  27.220  24.926   5.001  0.0019  0.0518 -0.2576
37004W        W79916  27.662  23.647   4.717  0.2061 -0.1662  0.1795
37005W        W79917  25.342  23.912   4.970 -0.2567 -0.1559  0.0296
37006W        W79918  25.369  22.347   6.616 -0.0149 -0.2876 -0.3288
37007W        W79919  27.432  24.545   6.330 -0.2162  0.2332  0.1890
37008W        W79920  26.888  23.604   5.631 -0.2531 -0.0818 -0.1245
37009W        W79921  25.952  21.622   4.489 -0.0774  0.2756  0.3314
37010W        W79922  27.114  22.876   4.460 -0.0634 -0.1776 -0.1508
37011W        W79923  25.232  24.682   7.467  0.0090 -0.3991 -0.2798
37012W        W79924  24.882  21.848   6.695 -0.1238 -0.0089 -0.5907
37013W        W79925  27.340  25.322   3.807  0.1034 -0.2631  0.1762
37014W        W79926  27.563  22.650   4.576 -0.2442  0.0284 -0.0610
37015W        W79927  26.785  23.339   3.655 -0.1675  0.1025 -0.0187
37016W        W79928  27.455  26.162   6.312  0.1753  0.2681  0.0038
37017W        W79929  26.024  22.265   3.784  0.1341 -0.3185  0.2312
37018W        W79930  25.783  24.060   6.773  0.0871  0.1429  0.2664
37019W        W79931  25.312  24.383   4.438 -0.3463 -0.0061  0.1160
37020W        W79932  27.470  24.052   3.743 -0.5262  0.1986 -0.1962
37021W        W79933  26.087  23.382   4.129  0.1478  0.1178 -0.1124
37022W        W79934  28.124  25.098   6.633  0.5190 -0.0372  0.0227
37023W        W79935  27.635  22.185   3.419  0.0247  0.2267 -0.0535
37024W        W79936  28.096  22.697   5.789  0.0782  0.1188  0.2129
37025W        W79937  28.165  23.081   4.354  0.0831 -0.4380  0.2153
37026W        W79938  28.400  25.145   7.110 -0.0804  0.2200 -0.0123
37027W        W79939  28.244  22.480   6.253  0.2727 -0.1843  0.1992
37028W        W79940  26.342  21.257   3.585  0.0600  0.1383  0.0266
37029W        W79941  27.263  23.362   7.120 -0.1295  0.1280 -0.3329
37030W        W79942  28.292  21.573   7.317 -0.2418 -0.1118  0.1547
37031W        W79943  25.448  25.593   7.437  0.1026 -0.0884  0.1595
37032W        W79944  29.100  24.114   3.397 -0.1784 -0.1557 -0.1813
37033W        W79945  25.660  22.525   4.095 -0.0234 -0.0626  0.0514
37034W        W79946  26.917  22.990   5.162 -0.1914  0.3992  0.1122
37035W        W79947  28.446  20.685   6.285 -0.1324 -0.0556 -0.2074
37036W        W79948  27.917  22.991   3.895  0.1154  0.0907 -0.3025
37037W        W79949  26.498  23.341   6.780  0.0525  0.2234 -0.0994
37038W        W79950  27.764  24.144   5.679  0.0854 -0.0489 -0.0163
37039W        W79951  25.777  23.913   5.790 -0.0943  0.0512  0.0777
37040W        W79952  26.611  23.939   4.426 -0.4274  0.1567 -0.0412
37041W        W79953  24.275  22.530   4.754  0.2479  0.1444  0.0927
37042W        W79954  28.711  22.643   5.344 -0.3433 -0.3074  0.4950
37043W        W79955  25.539  22.664   6.292  0.2113 -0.1140 -0.0459
37044W        W79956  28.559  22.705   6.895  0.2384  0.0254 -0.1168
37045W        W79957  24.546  23.190   5.442 -0.3600  0.1751  0.2968
37046W        W79958  28.710  22.171   6.171 -0.3984  0.1898  0.1658
37047W        W79959  27.158  22.523   6.296 -0.0397  0.0656 -0.1419
37048W        W79960  25.396  22.358   5.864 -0.1997 -0.1140  0.2265
37049W        W79961  27.172  23.710   4.579  0.1554  0.0034 -0.1796
37050W        W79962  29.669  23.642   5.989 -0.3751  0.0210  0.1833
37051W        W79963  27.072  22.191   2.534 -0.2166 -0.0803 -0.0120
37052W        W79964  27.487  25.202   5.887  0.1562  0.2725 -0.0010
37053W        W79965  24.347  21.836   5.217 -0.2943 -0.0775  0.1073
37054W        W79966  27.103  22.130   4.036 -0.2962  0.1309  0.1159
37055W        W79967  27.195  22.417   6.815  0.0879 -0.2239 -0.2850
37056W        W79968  25.998  23.145   7.103 -0.1738  0.2846 -0.0128
37057W        W79969  28.918  26.344   6.510 -0.3458 -0.3094  0.1479
37058W        W79970  25.834  23.743   5.042 -0.5097  0.1466 -0.1705
37059W        W79971  27.825  24.073   3.137  0.1439  0.1000  0.0813
37060W        W79972  29.700  23.217   6.794 -0.0339 -0.0053  0.3370
37061W        W79973  28.274  23.576   3.336  0.3276 -0.1231 -0.2064
37062W        W79974  26.667  23.069   4.771 -0.3060  0.0176 -0.0451
37063W        W79975  27.510  24.632   5.293 -0.2242  0.0328  0.1231
37064W        W79976  25.639  22.629   5.455  0.2053 -0.2472 -0.2711
37065W        W79977  28.202  24.423   5.906 -0.2536  0.0605  0.0185
37066W        W79978  29.616  25.386   5.222 -0.2411  0.4035 -0.0310
37067W        W79979  25.083  21.430   4.961 -0.1270  0.1094 -0.1508
37068W        W79980  25.881  23.543   5.493 -0.0705  0.0341  0.0241
37069W        W79981  26.207  26.006   5.555 -0.0235 -0.2081  0.1267
37070W        W79982  28.940  24.478   5.163  0.2335 -0.0850 -0.0354
37071W        W79983  28.365  22.243   6.628 -0.1998 -0.3203  0.1697
37072W        W79984  26.983  25.442   2.454 -0.0065  0.4121  0.2920
37073W        W79985  27.589  21.785   5.785 -0.0747  0.1572  0.0385
37074W        W79986  27.926  25.484   5.892  0.0171  0.4326  0.0584
37075W        W79987  25.369  25.601   6.655  0.0966 -0.0893 -0.2135
37076W        W79988  25.388  22.420   4.557  0.0985  0.1068 -0.0776
37077W        W79989  26.768  23.702   7.137 -0.1073 -0.3849  0.2883
37078W        W79990  26.443  23.347   5.789 -0.0836 -0.0881 -0.0089
37079W        W79991  28.165  25.465   4.633 -0.0801  0.1969 -0.2912
37080W        W79992  28.422  23.516   5.471 -0.3039  0.0870  0.0033
37081W        W79993  26.033  21.761   4.948  0.0796 -0.0319  0.0074
37082W        W79994  27.322  22.845   5.860  0.1967  0.2456 -0.0739
37083W        W79995  26.594  22.962   5.594 -0.0894 -0.0722  0.0676
37084W        W79996  27.098  20.753   5.557  0.2678 -0.1146  0.1613
37085W        W79997  27.139  21.235   5.641 -0.1996 -0.0095 -0.1957
37086W        W79998  25.709  24.175   6.253  0.0521  0.2990  0.0692
37087W        W79999  25.379  22.912   4.429  0.0877  0.1428  0.1127
37088W        W80000  25.963  23.962   3.070 -0.0856  0.0202  0.1038
37089W        W80001  25.280  23.869   5.946 -0.2430  0.4180 -0.1478
37090W        W80002  27.875  22.199   6.026  0.3560  0.1455  0.1761
37091W        W80003  26.165  21.877   7.927  0.2241 -0.1266 -0.0096
37092W        W80004  25.612  21.731   5.903 -0.1678  0.1534 -0.1908
37093W        W80005  26.058  22.828   4.135 -0.0030 -0.2638  0.0939
37094W        W80006  28.001  26.008   4.089  0.0814 -0.1309  0.0271
37095W        W80007  25.914  22.576   5.909  0.0165  0.0481  0.0562
37096W        W80008  25.294  21.937   5.542 -0.2109  0.2448 -0.0587
37097W        W80009  27.797  22.358   4.975  0.3263  0.0459  0.1915
37098W        W80010  28.021  24.528   5.456  0.1345 -0.0725 -0.1481
37099W        W80011  26.830  21.553   5.432  0.0834  0.1162 -0.0386
37100W        W80012  27.823  24.483   6.619  0.0200 -0.5009  0.3273
37101W        W80013  25.183  24.286   3.939 -0.2016  0.0187  0.2941
37102W        W80014  28.080  21.740   5.793  0.2917 -0.1302  0.0140
37103W        W80015  26.326  21.921   7.363  0.0934  0.1417  0.0013
37104W        W80016  24.231  21.992   4.745 -0.2158  0.0408  0.0382
37105W        W80017  26.142  22.519   5.454 -0.0124 -0.2382 -0.1900
37106W        W80018  26.741  25.634   4.385 -0.2089 -0.1695 -0.0328
37107W        W80019  29.333  25.477   3.872  0.1465 -0.2661  0.1123
37108W        W80020  27.224  24.435   5.756 -0.2276  0.0130 -0.0132
37109W        W80021  26.623  24.408   6.090  0.1802 -0.1480  0.0944
37110W        W80022  25.185  21.224   7.124  0.2924  0.3296  0.4111
37111W        W80023  27.019  23.592   4.023  0.2407  0.4322  0.0847
37112W        W80024  27.064  24.151   6.423 -0.1746 -0.1043 -0.0306
37113W        W80025  28.250  24.989   4.359 -0.0297  0.0745 -0.4117
37114W        W80026  29.310  21.187   5.592 -0.0468 -0.1143 -0.1866
37115W        W80027  26.370  23.069   3.779  0.0572 -0.2759 -0.0464
37116W        W80028  26.510  21.411   8.108  0.0777 -0.1094  0.0275
37117W        W80029  25.837  23.934   7.238 -0.2199 -0.1131 -0.3499
37118W        W80030  28.477  24.868   5.797 -0.1457 -0.0973  0.1628
37119W        W80031  25.637  22.349   4.986  0.0299  0.1366  0.0153
37120W        W80032  26.922  21.516   4.927 -0.2492 -0.1010 -0.2163
37121W        W80033  29.570  24.060   3.357  0.0268 -0.1999 -0.1385
37122W        W80034  25.455  22.919   5.899 -0.1488 -0.0297  0.1136
37123W        W80035  26.815  22.257   3.675  0.0520 -0.3400  0.0317
37124W        W80036  26.438  23.826   5.928 -0.1960 -0.2868 -0.1263
37125W        W80037  27.576  25.133   5.388  0.3041  0.0078 -0.1597
37126W        W80038  28.243  23.184   6.759  0.0432 -0.0129  0.1318
37127W        W80039  26.150  23.214   4.618  0.1035 -0.1631  0.1000
37128W        W80040  27.933  22.677   3.249  0.1242  0.0623 -0.4619
37129W        W80041  27.497  25.733   5.634 -0.0561  0.2130  0.1583
37130W        W80042  29.346  24.551   6.893 -0.0899 -0.0054  0.0113
37131W        W80043  26.516  25.727   5.827 -0.2136  0.2936  0.2420
37132W        W80044  27.577  23.346   5.848  0.0962 -0.1470 -0.0155
37133W        W80045  25.694  21.342   6.770 -0.0495 -0.3182  0.0642
37134W        W80046  26.106  23.293   5.150 -0.0099 -0.1021  0.3839
37135W        W80047  27.196  22.229   4.566  0.2610 -0.1592 -0.1238
37136W        W80048  29.012  23.616   5.088  0.0867 -0.2458  0.2565
37137W        W80049  26.400  21.198   5.108 -0.1317  0.2162 -0.4711
37138W        W80050  27.364  21.616   5.345  0.3129  0.2430 -0.1973
37139W        W80051  25.157  25.177   6.780  0.0493  0.0321 -0.2297
37140W        W80052  26.007  23.000   5.534 -0.0150  0.1421  0.2214
37141W        W80053  27.360  23.164   9.822  0.1238  0.1792 -0.2755
37142W        W80054  25.952  23.475   8.786  0.3039 -0.4088  0.1735
37143W        W80055  27.694  22.490   7.077  0.2792  0.0130  0.0169
37144W        W80056  27.300  23.355   8.874  0.0440 -0.1528  0.0553
37145W        W80057  26.425  22.497   8.396  0.3387  0.1707 -0.2110
37146W        W80058  27.092  24.457   8.539  0.0048 -0.1022 -0.1555
37147W        W80059  27.568  25.123  10.074  0.0169  0.0880  0.0966
37148W        W80060  28.832  25.983   9.740 -0.1022  0.1123 -0.0191
37149W        W80061  27.217  23.594   6.164 -0.2196  0.0342 -0.2967
37150W        W80062  28.079  23.588   9.845  0.1722 -0.2024  0.1247
37151W        W80063  26.086  22.240   8.643 -0.0755 -0.3133 -0.3986
37152W        W80064  25.824  22.108   9.555  0.0275  0.2877 -0.1970
37153W        W80065  26.405  24.223  10.221 -0.4066  0.1666 -0.2241
37154W        W80066  25.578  22.489   8.549 -0.1269 -0.0789 -0.0377
37155W        W80067  26.933  21.409   9.327  0.1650 -0.1675  0.0254
37156W        W80068  25.685  22.997   8.417  0.0605 -0.2636  0.0834
37157W        W80069  26.955  24.181   9.449  0.3013  0.3776  0.1196
37158W        W80070  26.889  23.070  10.248  0.0307 -0.0235 -0.0792
37159W        W80071  25.493  24.606   7.938  0.0464 -0.3167  0.3911
37160W        W80072  26.189  24.353   5.787  0.3395 -0.1615 -0.2877
37161W        W80073  24.605  23.178   9.761 -0.1651  0.0141 -0.0153
37162W        W80074  26.505  22.628   8.886  0.2388  0.2318 -0.3981
37163W        W80075  28.889  23.075   9.427 -0.1475  0.3949  0.1405
37164W        W80076  28.097  22.481  10.072  0.2403 -0.1564  0.0878
37165W        W80077  26.300  24.910   8.351 -0.3069  0.2780  0.1019
37166W        W80078  26.210  26.447   9.223  0.0242 -0.1269 -0.3453
37167W        W80079  23.370  24.173  10.166 -0.0387  0.0443 -0.1323
37168W        W80080  25.161  24.870   9.369 -0.3928  0.2129  0.2963
37169W        W80081  26.091  24.405   9.470  0.0405  0.0593 -0.0359
37170W        W80082  27.764  25.158   7.698 -0.0325  0.2204  0.1717
37171W        W80083  24.839  24.940   9.029  0.2058 -0.2373 -0.0540
37172W        W80084  29.879  23.116   9.289  0.0043 -0.2873 -0.1764
37173W        W80085  27.012  22.481   8.935  0.0633 -0.0883  0.0338
37174W        W80086  26.864  25.411   7.910 -0.2761  0.1971  0.4448
37175W        W80087  29.699  22.791   9.721  0.3287 -0.1045 -0.0367
37176W        W80088  24.991  27.295   9.512 -0.2100  0.0659 -0.3159
37177W        W80089  25.435  25.142   7.745 -0.1244 -0.0803  0.0487
37178W        W80090  29.168  22.938   6.400 -0.0431  0.0584 -0.1989
37179W        W80091  27.457  22.823   6.611  0.0199  0.2611  0.1844
37180W        W80092  27.721  21.929   7.322 -0.0271  0.0002  0.0858
37181W        W80093  27.459  21.220   9.547 -0.2611  0.0016 -0.4607
37182W        W80094  26.178  25.429   9.239 -0.0101 -0.0027 -0.0896
37183W        W80095  26.738  22.374   9.637  0.1064  0.3061 -0.0602
37184W        W80096  27.523  24.096   6.567  0.0499  0.0157 -0.0491
37185W        W80097  27.658  23.624   9.515 -0.1453  0.1302 -0.1450
37186W        W80098  23.140  24.529   9.808  0.0273 -0.1497 -0.0122
37187W        W80099  25.219  24.368   9.674  0.1116 -0.2092  0.0672
37188W        W80100  29.120  23.427   6.210  0.1811 -0.0418 -0.0752
37189W        W80101  28.739  24.342   7.616 -0.0087  0.0678  0.0116
37190W        W80102  26.850  24.941   7.411  0.0435  0.1797 -0.0311
37191W        W80103  25.370  24.199   8.234  0.1467  0.0147  0.0578
37192W        W80104  26.565  21.972   8.222  0.3381  0.4662 -0.0000
37193W        W80105  28.100  23.278   7.423  0.0885  0.1794 -0.1234
37194W        W80106  27.445  23.212   9.342  0.1613  0.3295  0.1438
37195W        W80107  27.277  24.034   8.347  0.3638  0.0997 -0.2454
37196W        W80108  28.016  24.147   6.321  0.0342  0.0424 -0.0500
37197W        W80109  28.839  22.554   9.913  0.1609  0.2776  0.0755
37198W        W80110  29.886  19.387   9.579  0.0428 -0.1326  0.0152
37199W        W80111  26.710  22.685   6.827 -0.0073  0.2007  0.1086
37200W        W80112  27.594  22.365   9.336  0.2113  0.1337  0.1335
37201W        W80113  28.750  23.959   9.524 -0.2621 -0.0021  0.3198
37202W        W80114  28.402  24.169   6.795  0.1386 -0.2277  0.2015
37203W        W80115  25.749  25.695   9.450  0.1021  0.2774  0.1074
37204W        W80116  26.170  24.613   7.774 -0.0039  0.1691  0.0192
37205W        W80117  24.415  23.709   9.704 -0.2385 -0.5162 -0.1003
37206W        W80118  25.035  24.235   7.190 -0.2872 -0.0330  0.0170
37207W        W80119  27.394  21.778   9.655 -0.0690  0.1926 -0.0322
37208W        W80120  26.779  24.043   8.351  0.0432  0.0209 -0.0595
37209W        W80121  27.323  22.298   7.824 -0.0777  0.0771  0.1516
37210W        W80122  30.052  20.421   7.867  0.1253 -0.0416  0.2335
37211W        W80123  25.336  23.455   9.222 -0.0959 -0.0698 -0.0315
37212W        W80124  29.576  23.691   7.119 -0.3352  0.0607 -0.1174
37213W        W80125  26.590  23.343   7.563  0.1296  0.1321  0.1280
37214W        W80126  28.658  24.747   7.275  0.1351 -0.1746 -0.1204
37215W        W80127  26.027  23.504  10.396  0.1466 -0.3111 -0.1210
37216W        W80128  26.947  23.989   8.990  0.1377 -0.1132  0.2460
37217W        W80129  27.065  22.749   9.435  0.2454  0.1086 -0.2514
37218W        W80130  26.192  22.522   9.700 -0.3084 -0.0205  0.0384
37219W        W80131  28.549  23.488   9.658  0.2795 -0.1089 -0.1030
37220W        W80132  25.683  24.203   9.612  0.0949 -0.1261  0.0223
37221W        W80133  23.673  22.873   8.883  0.1402  0.1877  0.0329
37222W        W80134  26.713  24.214   7.235 -0.1018  0.3369 -0.3068
37223W        W80135  28.299  24.065   8.653  0.1969  0.3621  0.1144
37224W        W80136  28.495  25.828   8.069 -0.1583  0.2041 -0.1589
37225W        W80137  26.467  23.247   9.482  0.1917 -0.0325 -0.0428
37226W        W80138  25.568  22.743   7.921  0.0376 -0.0918 -0.0418
37227W        W80139  26.947  23.681   8.644  0.0100  0.0609  0.0073
37228W        W80140  26.256  27.051  10.419  0.5744  0.0972  0.2782
37229W        W80141  27.012  23.755   7.984 -0.2461  0.2570 -0.1015
37230W        W80142  27.534  24.407   8.184  0.3401 -0.1959 -0.0966
37231W        W80143  27.195  24.486   7.478 -0.1140  0.3354 -0.1620
37232W        W80144  29.613  22.427   8.438 -0.1814 -0.0258 -0.1181
37233W        W80145  27.719  23.548   9.048 -0.0939 -0.3903 -0.1358
37234W        W80146  25.301  22.309   8.214 -0.2063  0.2396  0.0867
37235W        W80147  26.441  26.331   9.631  0.1392  0.2250  0.2375
37236W        W80148  23.999  23.577   7.760 -0.1338 -0.3223  0.1160
37237W        W80149  24.564  24.584   9.859 -0.1141 -0.0795  0.2039
37238W        W80150  26.232  24.756   7.317  0.0566 -0.3853  0.0672
37239W        W80151  28.734  21.473   8.689  0.0484 -0.0168 -0.0294
37240W        W80152  25.740  23.829   8.208 -0.3306 -0.2587  0.0177
37241W        W80153  29.146  21.885   7.879 -0.0524  0.0510 -0.0928
37242W        W80154  28.516  22.621   8.377 -0.0018  0.0212  0.2963
37243W        W80155  29.597  24.630   7.431 -0.0579  0.0793 -0.3429
37244W        W80156  26.997  23.130   6.781 -0.3876 -0.1286  0.0219
37245W        W80157  27.952  23.043   8.226  0.2423  0.2337 -0.0589
37246W        W80158  28.356  23.040   9.161 -0.3679  0.3110  0.0358
37247W        W80159  27.565  23.709   7.700  0.0189  0.1068  0.3153
37248W        W80160  27.147  22.769   8.085  0.2887 -0.3404  0.0766
37249W        W80161  28.956  25.167   7.566 -0.3341 -0.3277  0.1497
37250W        W80162  25.400  24.219   9.160  0.1281 -0.3582 -0.2988
37251W        W80163  26.838  25.769   7.583  0.0927 -0.5692 -0.0453
37252W        W80164  25.837  22.616  12.169 -0.0920 -0.2045  0.1360
37253W        W80165  26.135  22.893   7.987  0.2332 -0.1618 -0.2194
37254W        W80166  27.258  22.034   9.180 -0.0042 -0.3093 -0.0770
37255W        W80167  24.698  24.634   8.639  0.0262  0.0294 -0.1028
37256W        W80168  28.613  22.235   9.248  0.3509  0.1635 -0.1930
37257W        W80169  28.375  20.524   9.787 -0.0036 -0.3245  0.0860
37258W        W80170  28.847  23.039   8.191 -0.0940  0.5238 -0.2742
37259W        W80171  28.360  23.060   9.732 -0.0640 -0.3102  0.0552
37260W        W80172  26.201  24.142   7.469 -0.3294  0.0563 -0.1572
37261W        W80173  25.699  21.597  10.350 -0.1600 -0.0868 -0.1195
37262W        W80174  25.624  22.983   9.979 -0.0629 -0.0173 -0.0680
37263W        W80175  28.242  23.494   7.880 -0.1344  0.3705 -0.0190
37264W        W80176  27.874  22.035   9.645  0.1743 -0.0388 -0.1093
37265W        W80177  26.247  24.146   7.965 -0.2290  0.0486 -0.0509
37266W        W80178  26.244  23.597   7.268  0.0890 -0.4206  0.1448
37267W        W80179  28.105  22.247   9.253  0.1359  0.0370  0.1730
37268W        W80180  26.616  25.072   9.336  0.4529  0.0712 -0.0623
37269W        W80181  27.047  25.379   7.281 -0.1956  0.2647 -0.0254
37270W        W80182  27.618  23.562  10.008 -0.0499 -0.3698  0.0303
37271W        W80183  26.298  23.778   8.306 -0.2906  0.3415 -0.0699
37272W        W80184  28.955  21.336   9.148  0.1728 -0.0776 -0.0635
37273W        W80185  24.757  24.301  10.692 -0.1836 -0.1876 -0.2289
37274W        W80186  26.524  22.288   7.783 -0.1924  0.1462  0.5069
37275W        W80187  24.000  22.814   9.555  0.2202  0.0361  0.1332
37276W        W80188  27.317  21.453  10.045 -0.1270 -0.0564  0.2048
37277W        W80189  27.135  24.065   7.013  0.1101  0.0004  0.0285
37278W        W80190  26.553  20.740  10.809 -0.1611 -0.1614  0.0201
37279W        W80191  26.842  21.878   9.491 -0.1873  0.1204 -0.1652
37280W        W80192  25.451  27.827  10.431  0.2191  0.1316  0.0601
37281W        W80193  27.906  21.573   6.942  0.1340  0.1977 -0.0171
37282W        W80194  24.503  22.290   7.227  0.2787 -0.0924  0.1667
37283W        W80195  30.501  21.260   9.141  0.0934  0.1824 -0.2030
37284W        W80196  26.583  23.370   8.536  0.0419  0.1111 -0.2594
37285W        W80197  26.594  22.533  10.142  0.0094  0.0420 -0.0381
37286W        W80198  26.863  24.479  10.114 -0.3605  0.1971  0.0113
37287W        W80199  25.977  22.698   8.762  0.1054 -0.1095  0.2685
37288W        W80200  26.096  24.232   8.517  0.2257  0.1306 -0.1162
37289W        W80201  28.821  24.196   8.871 -0.1036  0.0011 -0.0957
37290W        W80202  27.283  23.004   8.502 -0.0591 -0.2270  0.0595
37291W        W80203  26.229  23.000   8.461  0.2191 -0.1927 -0.1549
37292W        W80204  27.820  21.554   9.879 -0.0762 -0.3277  0.2187
37293W        W80205  27.224  23.721   9.286 -0.0161  0.1834  0.0661
37294W        W80206  27.424  21.533   9.165 -0.0892  0.0002 -0.3806
37295W        W80207  25.984  19.592  10.307  0.0356  0.0735 -0.1197
37296W        W80208  29.046  26.352   7.362 -0.2065 -0.3522 -0.0370
37297W        W80209  25.235  24.139   7.691  0.2280 -0.2242  0.3771
37298W        W80210  22.654  22.612   9.810  0.1568  0.3048 -0.1167
37299W        W80211  25.975  24.232   9.020 -0.0511 -0.1315 -0.0373
37300W        W80212  26.958  21.691   8.906  0.3052  0.0609 -0.2026
37301W        W80213  24.951  24.205  10.223  0.2024 -0.0813 -0.0102
37302W        W80214  25.739  23.800   9.251  0.2615  0.0337  0.1749
37303W        W80215  24.405  24.188  10.156  0.1790 -0.2230 -0.0461
37304W        W80216  28.358  19.840   6.350  0.3243  0.0912 -0.3273
37305W        W80217  26.993  23.339   8.238  0.0269  0.0090 -0.1257
37306W        W80218  26.860  23.505   9.052  0.1003  0.0212 -0.0604
37307W        W80219  27.921  23.786   6.796 -0.0381  0.2322 -0.2955
37308W        W80220  26.401  22.231  10.532 -0.1432  0.1895 -0.2661
37309W        W80221  27.037  24.305   7.979  0.3198 -0.1115  0.1054
37310W        W80222  27.172  21.939  10.073 -0.0987 -0.2577 -0.0026
37311W        W80223  25.033  21.927   8.481  0.1445 -0.2237 -0.0567
37312W        W80224  26.982  25.339   8.791  0.1222  0.4273  0.2380
37313W        W80225  28.207  23.485   8.835  0.2844  0.1181  0.2522
37314W        W80226  25.631  24.447   8.607  0.0515  0.0839  0.2342
37315W        W80227  28.533  22.669   9.511 -0.1155 -0.2289  0.0798
37316W        W80228  26.988  23.229   9.477  0.0563  0.0597 -0.1689
37317W        W80229  27.838  23.500   8.174  0.0591  0.2082 -0.1525
37318W        W80230  27.077  22.718   7.193  0.0724  0.2435  0.0003
37319W        W80231  27.202  23.728   9.780 -0.0459  0.3726  0.1293
37320W        W80232  28.412  23.264   8.330 -0.0774  0.0752  0.0140
37321W        W80233  28.040  21.409   8.893  0.5086 -0.0233  0.0655
37322W        W80234  26.763  24.855   8.724 -0.0021  0.0138 -0.1568
37323W        W80235  28.881  24.458   6.862  0.1229 -0.0118  0.0764
37324W        W80236  30.925  19.633   9.686 -0.2077 -0.0911 -0.1414
37325W        W80237  28.879  24.589   8.207  0.4360 -0.1172 -0.4045
37326W        W80238  28.052  23.839   7.508  0.1216 -0.0586 -0.2079
37327W        W80239  27.201  23.467  10.340 -0.1094  0.3808  0.4241
37328W        W80240  25.896  22.520   8.235 -0.0055 -0.0372 -0.0628
37329W        W80241  26.136  25.403   7.028  0.0842 -0.1347  0.0922
37330W        W80242  27.458  23.899   8.793  0.1138 -0.1643  0.1321
37331W        W80243  27.783  23.228   8.620  0.0932  0.1565 -0.1182
37332W        W80244  26.158  22.279   9.161  0.0221 -0.0001 -0.1156
37333W        W80245  26.633  22.402   7.257  0.0183  0.2951 -0.0739
37334W        W80246  27.490  23.126   8.005 -0.1820 -0.1687  0.2456
37335W        W80247  27.515  24.716   9.649  0.1239  0.0914 -0.0372
37336W        W80248  26.849  22.386   8.113  0.0089  0.0589 -0.2176
37337W        W80249  25.248  25.966   9.398  0.2562 -0.0007  0.0710
37338W        W80250  28.586  20.890   9.444  0.0169 -0.1284  0.0594
37339W        W80251  24.783  25.035   9.944  0.0673  0.1233 -0.3184
37340W        W80252  25.623  24.840   9.722 -0.2881  0.3677  0.2660
37341W        W80253  28.215  21.198   9.771  0.2611 -0.1315  0.0588
37342W        W80254  28.188  23.979   9.539  0.3072  0.1432 -0.0573
37343W        W80255  28.226  24.552   8.694 -0.2081  0.1219 -0.1790
37344W        W80256  29.557  24.584   9.497  0.2277  0.0005 -0.0622
37345W        W80257  28.286  24.308   7.370 -0.1140 -0.4932  0.1097
37346W        W80258  27.510  22.643   9.736  0.2770 -0.1177 -0.1467
37347W        W80259  27.238  24.942   8.676 -0.2755 -0.1516  0.2581
37348W        W80260  26.686  21.991  10.065  0.2877 -0.0177 -0.0564
37349W        W80261  27.575  24.662   7.730 -0.1819  0.0822  0.1495
37350W        W80262  26.651  24.852   9.889 -0.4218 -0.0426 -0.1362
37351W        W80263  26.237  24.662   8.774 -0.2417  0.1931  0.0699
37352W        W80264  27.338  25.390   7.688 -0.1941  0.2220 -0.2284
37353W        W80265  27.128  24.875   7.846  0.0409 -0.1348  0.0288
37354W        W80266  26.625  24.675   7.003  0.0309 -0.0415 -0.0906
37355W        W80267  25.909  22.393   7.728  0.1304 -0.1659  0.1152
37356W        W80268  25.615  24.482  10.045 -0.1995 -0.0894  0.0987
37357W        W80269  24.717  24.706   7.435  0.0013  0.0296 -0.2512
37358W        W80270  26.954  25.045   8.252  0.0850  0.1639  0.2531
37359W        W80271  25.737  25.194   9.373  0.1057 -0.2436 -0.4230
37360W        W80272  30.551  22.249   7.752  0.0211 -0.3333 -0.0963
37361W        W80273  27.887  22.656   9.007  0.1438 -0.1811 -0.0318
37362W        W80274  28.563  23.197   7.207  0.0059 -0.0885 -0.0530
37363W        W80275  28.424  23.889   9.119  0.0414  0.1448 -0.2964
37364W        W80276  26.652  22.880   8.053  0.0255  0.0793  0.1828
37365W        W80277  28.685  24.947   6.720  0.1739  0.1212 -0.3864
37366W        W80278  24.963  22.236   7.380 -0.1302  0.1024  0.4209
37367W        W80279  28.180  23.480   9.358  0.3650  0.0419  0.1579
37368W        W80280  29.088  19.070  10.192  0.1360  0.2519 -0.4045
37369W        W80281  26.235  24.020   6.936 -0.1382 -0.0505 -0.3210
37370W        W80282  28.327  21.807   9.437  0.1095  0.1583  0.3123
37371W        W80283  26.660  24.338   8.730  0.2451  0.1972 -0.5455
37372W        W80284  27.064  22.646   9.958 -0.1498  0.3299  0.0729
37373W        W80285  26.636  24.411   7.698 -0.2979  0.0299 -0.1150
37374W        W80286  24.600  21.798   7.484  0.0155 -0.1816  0.3476
37375W        W80287  29.142  23.629   8.888  0.3278  0.0616  0.0321
37376W        W80288  25.354  25.467   9.206 -0.1662  0.0360 -0.0713
37377W        W80289  27.382  23.529   8.445 -0.0462  0.3359 -0.0799
37378W        W80290  28.292  22.452   7.803 -0.0935  0.0680  0.1459
37379W        W80291  26.133  24.856   9.292 -0.1061 -0.2130 -0.0672
37380W        W80292  24.937  24.011   9.287  0.1584 -0.1579  0.2483
37381W        W80293  27.552  23.765   7.194 -0.3033  0.3016  0.1726
37382W        W80294  27.041  23.535   7.518  0.2338 -0.5058 -0.0737
37383W        W80295  25.602  23.420   9.745  0.0692  0.1803 -0.0575
37384W        W80296  27.724  22.709   8.532 -0.4259  0.1967  0.1045
37385W        W80297  25.483  23.530  10.237 -0.0708 -0.3480  0.0859
37386W        W80298  25.184  22.045  10.351  0.0210  0.2039 -0.0046
37387W        W80299  28.035  21.981  10.180  0.1867 -0.2146 -0.0341
37388W        W80300  27.432  24.870   8.199 -0.0874  0.3262 -0.0711
37389W        W80301  30.100  21.637   8.958 -0.0894  0.2630 -0.0755
37390W        W80302  24.948  25.264   6.361  0.0402 -0.0428  0.0880
37391W        W80303  27.898  23.109   9.138  0.3977 -0.1024 -0.1305
37392W        W80304  28.287  24.808   9.128 -0.2007 -0.0080  0.1795
37393W        W80305  26.211  22.117  10.018 -0.0137  0.0338  0.0109
37394W        W80306  27.203  26.199   9.089 -0.1339 -0.1077 -0.0967
37395W        W80307  28.782  23.531   8.059  0.1056 -0.1077 -0.1653
37396W        W80308  25.813  20.774   8.240  0.3241 -0.2158  0.2077
37397W        W80309  25.337  23.844   9.532  0.0718  0.0746 -0.1861
37398W        W80310  24.777  25.763   8.529 -0.0265 -0.0404 -0.4198
37399W        W80311  29.472  22.814   9.135 -0.0884 -0.0863 -0.1182
37400W        W80312  25.707  24.742   6.537 -0.3713 -0.1178  0.0053
37401W        W80313  26.269  25.155   8.839  0.0907  0.3164  0.0957
37402W        W80314  27.055  24.012   7.566  0.0023  0.2862 -0.2249
37403W        W80315  27.881  23.746   8.588 -0.1624  0.0178 -0.1121
37404W        W80316  26.245  25.233   7.510 -0.0802 -0.0180  0.2993
37405W        W80317  27.573  24.158   7.521 -0.2658 -0.1207 -0.3310
37406W        W80318  26.823  23.819  10.480  0.1649  0.0401  0.0312
37407W        W80319  28.480  24.624   7.897 -0.0258  0.0114 -0.1509
37408W        W80320  26.484  23.836   8.823 -0.0174 -0.0519  0.4086
37409W        W80321  29.150  22.345   7.632  0.0587 -0.0764 -0.2877
37410W        W80322  28.500  20.879   7.267  0.0777 -0.2990  0.0250
37411W        W80323  29.592  24.849   9.008 -0.1644  0.0593  0.1144
37412W        W80324  25.700  23.035   8.934 -0.3433  0.1389  0.0077
37413W        W80325  25.531  24.304   7.202 -0.0441  0.1220 -0.0092
37414W        W80326  25.673  24.605   9.246  0.1444  0.0368  0.0336
37415W        W80327  25.909  24.050  10.055 -0.0643  0.0104 -0.0771
37416W        W80328  25.931  24.589   8.227 -0.1365  0.0499 -0.0550
37417W        W80329  27.714  24.610   7.265 -0.1179 -0.0995  0.1413
37418W        W80330  27.212  22.275   9.660 -0.2379  0.4343 -0.0545
37419W        W80331  25.347  22.340   9.389  0.1289  0.0829  0.0400
37420W        W80332  26.596  24.908   7.854  0.0234  0.2481 -0.2135
37421W        W80333  28.955  23.781   7.688 -0.2128 -0.0716  0.3844
37422W        W80334  26.432  23.337   8.056 -0.1495  0.0945 -0.3356
37423W        W80335  25.699  23.221   7.908  0.1592 -0.0284 -0.0533
37424W        W80336  24.964  23.115   9.299 -0.1611 -0.4849  0.2968
37425W        W80337  29.139  23.125   8.959 -0.0895 -0.0272  0.0089
37426W        W80338  26.500  25.620   7.295 -0.0928 -0.2041  0.1031
37427W        W80339  28.050  25.978   8.397 -0.1276  0.0398  0.1218
37428W        W80340  26.476  22.733   9.385 -0.0003 -0.2847 -0.1583
37429W        W80341  28.738  23.978   7.242  0.1283  0.3654 -0.4350
37430W        W80342  29.112  23.501   7.274 -0.1130  0.0960  0.3292
37431W        W80343  28.786  22.060   9.653  0.1281  0.1802  0.3731
37432W        W80344  26.336  22.694   7.599  0.0318 -0.2792  0.1492
37433W        W80345  26.802  23.965   9.973  0.2699 -0.1549 -0.0268
37434W        W80346  26.363  23.033  10.172  0.2506 -0.0055  0.2019
37435W        W80347  28.368  20.762   7.991  0.0390  0.0478 -0.0058
37436W        W80348  26.122  23.254   7.600  0.0930 -0.0737 -0.3758
37437W        W80349  24.801  24.068   9.772  0.2500  0.0473 -0.1851
37438W        W80350  26.754  23.013   9.071  0.1291  0.4129  0.0261
37439W        W80351  26.252  23.949   9.673  0.3513 -0.2569 -0.0236
37440W        W80352  27.234  22.495   8.467 -0.1058  0.2061  0.0927
37441W        W80353  28.192  24.682   6.980  0.2284  0.0838 -0.1201
37442W        W80354  27.039  26.066   9.882  0.0179  0.0910 -0.2829
37443W        W80355  26.618  24.525   8.248 -0.0226 -0.0113  0.1392
37444W        W80356  28.981  22.703   8.593 -0.0649  0.1214 -0.5393
37445W        W80357  25.300  22.010   9.750 -0.1438  0.2055 -0.0929
37446W        W80358  26.217  23.623   9.200 -0.1910 -0.1272  0.1071
37447W        W80359  28.366  23.760   8.259  0.4828 -0.4384  0.2283
37448W        W80360  27.387  22.873  10.250  0.4208  0.4578 -0.0585
37449W        W80361  26.806  22.855   8.580 -0.0968 -0.1779 -0.0209
37450W        W80362  27.600  22.250  10.000  0.1123  0.0247  0.1280
37451W        W80363  27.317  26.638   8.923 -0.1610  0.0392  0.3067
37452W        W80364  25.347  26.451   9.566  0.1055  0.2558  0.1778
37453W        W80365  25.887  28.225   3.385  0.3724 -0.2795  0.1118
37454W        W80366  25.960  26.212   1.646 -0.1297  0.0602  0.1553
37455W        W80367  28.510  26.655  31.526 -0.3346  0.1347 -0.1462
37456W        W80368  27.414  27.364   0.225 -0.1514  0.0777 -0.2276
37457W        W80369  25.807  27.320   2.429 -0.0946 -0.1004  0.1321
37458W        W80370  27.933  29.480   1.141 -0.2578  0.0393  0.1393
37459W        W80371  26.391  25.674   2.656  0.0763 -0.1826 -0.0066
37460W        W80372  26.538  28.641   2.986 -0.0501 -0.0318  0.0968
37461W        W80373  28.866  29.572   2.628  0.3644 -0.0888  0.3560
37462W        W80374  25.809  28.496  31.438 -0.2111  0.2888  0.1737
37463W        W80375  27.480  28.186   1.697 -0.5861 -0.3212 -0.0893
37464W        W80376  27.178  29.214   2.799 -0.1216 -0.2675 -0.0159
37465W        W80377  27.515  26.777   0.376  0.2665 -0.0790 -0.1120
37466W        W80378  26.560  24.927   1.814  0.0898  0.0872  0.2065
37467W        W80379  28.778  26.980   1.498 -0.2262  0.2407 -0.1312
37468W        W80380  25.309  27.086   1.613  0.0258 -0.1849 -0.0533
37469W        W80381  27.311  26.916   3.141 -0.3199 -0.1391 -0.2983
37470W        W80382  23.709  28.576  31.839 -0.0628  0.0830 -0.0079
37471W        W80383  26.789  29.274   2.307  0.0776  0.1025  0.1658
37472W        W80384  26.543  25.244   2.569 -0.0926 -0.2818 -0.1194
37473W        W80385  27.334  24.763   2.933  0.0453 -0.1530  0.2010
37474W        W80386  27.456  28.360   1.284 -0.0342 -0.3816 -0.1431
37475W        W80387  24.485  26.483  31.201  0.0599  0.1832  0.0073
37476W        W80388  25.697  27.994   2.876  0.0465  0.1911 -0.1581
37477W        W80389  26.257  27.670   2.317  0.1761  0.1803  0.1158
37478W        W80390  28.225  26.996   2.429 -0.1790  0.1905 -0.0562
37479W        W80391  29.495  28.034   1.064  0.1851 -0.2371 -0.0588
37480W        W80392  26.329  29.410   0.613  0.1531 -0.1260 -0.0831
37481W        W80393  27.178  27.794   1.171  0.1749 -0.0631 -0.3819
37482W        W80394  28.020  26.557   2.502 -0.0970 -0.1179 -0.1122
37483W        W80395  24.995  28.244   2.251  0.0929  0.0410 -0.0022
37484W        W80396  26.101  28.647   1.592  0.0914  0.2585  0.0505
37485W        W80397  26.756  29.647  31.825 -0.1410  0.2308 -0.0633
37486W        W80398  28.072  28.287   3.006  0.1261  0.1756  0.1474
37487W        W80399  28.203  28.784   3.142  0.2203  0.0641 -0.1544
37488W        W80400  26.806  29.637   2.953  0.1440  0.4303  0.2183
37489W        W80401  25.874  27.522   0.026  0.0729 -0.0079  0.0999
37490W        W80402  27.401  28.106   3.779  0.1509 -0.2324 -0.1500
37491W        W80403  26.999  28.182   3.541  0.0778  0.2768  0.0538
37492W        W80404  26.722  27.606   2.468 -0.0160  0.2124  0.0673
37493W        W80405  27.072  27.839   1.745  0.2236  0.0888 -0.1298
37494W        W80406  27.387  31.667   0.594 -0.1201  0.1270  0.0612
37495W        W80407  26.220  29.127   0.094 -0.0891 -0.2015  0.0174
37496W        W80408  25.616  28.560   4.243 -0.1071  0.0691  0.5184
37497W        W80409  25.997  28.290   2.369 -0.0751 -0.2266  0.1694
37498W        W80410  28.021  27.840   2.534 -0.2365 -0.2598 -0.3047
37499W        W80411  25.387  29.626   0.312  0.2548  0.1008  0.0408
37500W        W80412  28.037  25.719  31.729 -0.3323 -0.4584  0.0791
37501W        W80413  26.031  27.195  31.613 -0.0118  0.0160  0.0042
37502W        W80414  26.773  26.058  31.567 -0.0490  0.0524  0.4053
37503W        W80415  28.724  26.108   1.479  0.2410  0.1681  0.0255
37504W        W80416  26.167  28.312   0.507 -0.1732  0.1985  0.0303
37505W        W80417  27.548  27.457   1.991  0.0122 -0.0720 -0.0648
37506W        W80418  28.421  27.851   2.093  0.1606  0.1773 -0.1505
37507W        W80419  26.665  28.641   1.294  0.0151  0.1635 -0.2615
37508W        W80420  28.307  25.612   2.074 -0.1119 -0.0250 -0.1871
37509W        W80421  27.369  29.590   3.049  0.1907  0.2332 -0.0863
37510W        W80422  24.576  26.286   2.509  0.0948  0.1409  0.1179
37511W        W80423  27.479  28.694   0.145  0.2431  0.3770 -0.1732
37512W        W80424  27.207  29.139   0.685 -0.2287  0.2688 -0.0855
37513W        W80425  27.580  28.241   0.441 -0.2654  0.0393  0.5876
37514W        W80426  25.720  27.267   1.921 -0.0064  0.0871  0.0670
37515W        W80427  26.030  25.857   2.365  0.0887  0.2852 -0.0519
37516W        W80428  26.307  26.423   3.083 -0.1387  0.1303 -0.1955
37517W        W80429  25.923  26.737  31.352 -0.0280  0.0569 -0.1180
37518W        W80430  27.041  28.650   3.055 -0.0928 -0.0521 -0.0640
37519W        W80431  24.173  29.704   1.778 -0.0371 -0.1723 -0.3958
37520W        W80432  29.130  25.380   1.122  0.4430  0.0389 -0.1228
37521W        W80433  25.864  28.747   3.049 -0.3809 -0.0939  0.2438
37522W        W80434  27.693  28.632   3.169  0.1728 -0.4024  0.0653
37523W        W80435  28.779  27.471   0.363 -0.4612  0.1525  0.2415
37524W        W80436  28.745  25.964   2.562 -0.2365  0.0721 -0.1885
37525W        W80437  28.710  23.829   3.307 -0.1435  0.1460 -0.0823
37526W        W80438  27.435  26.993   0.823  0.1649 -0.1472 -0.3448
37527W        W80439  26.262  27.694   0.373  0.1602  0.3273 -0.0774
37528W        W80440  28.395  28.312   4.369 -0.3589  0.2539  0.2158
37529W        W80441  27.238  28.871   1.130  0.0474  0.0803  0.0781
37530W        W80442  24.683  28.865   2.397  0.2033  0.1742  0.1124
37531W        W80443  25.748  27.330   2.983 -0.0894  0.2586  0.1518
37532W        W80444  27.633  27.829   2.905 -0.2676  0.0220 -0.0417
37533W        W80445  23.297  28.800  31.823  0.3832 -0.3356  0.1184
37534W        W80446  25.207  26.577   2.553  0.1540 -0.1278 -0.3042
37535W        W80447  25.174  28.307  31.972 -0.1509  0.4631 -0.2026
37536W        W80448  27.004  27.345   1.973 -0.1098 -0.1044 -0.0629
37537W        W80449  25.669  28.697   1.215  0.0885 -0.0847 -0.5289
37538W        W80450  27.770  26.804   1.160 -0.0590  0.1271  0.0663
37539W        W80451  25.987  26.024   1.059 -0.1688 -0.0221  0.1204
37540W        W80452  28.785  23.839   0.158 -0.2030 -0.0772  0.1872
37541W        W80453  24.854  28.264   0.457 -0.0262  0.4252  0.2165
37542W        W80454  28.512  30.302   1.719 -0.0673  0.0532 -0.2775
37543W        W80455  28.276  26.375   0.441  0.0616 -0.3553  0.2178
37544W        W80456  27.985  28.336  31.461 -0.1749 -0.0589 -0.0893
37545W        W80457  23.866  26.596   2.326  0.0547  0.0206 -0.0774
37546W        W80458  26.055  26.629   1.369  0.1410 -0.1113 -0.1710
37547W        W80459  27.787  25.668   1.953 -0.0256 -0.3908 -0.3326
37548W        W80460  26.493  26.408   1.759 -0.0336  0.0289  0.2088
37549W        W80461  27.548  26.635   2.559  0.0096  0.1387  0.0233
37550W        W80462  26.022  26.642  31.821 -0.2502  0.0052 -0.0586
37551W        W80463  29.249  27.440   1.108 -0.0936 -0.2433 -0.2278
37552W        W80464  26.162  27.923   0.831  0.1819 -0.0471  0.3052
37553W        W80465  24.182  28.424   0.140 -0.1706  0.2193 -0.1799
37554W        W80466  28.244  25.256   3.003  0.0680  0.2903 -0.1423
37555W        W80467  27.374  28.681   1.733 -0.1433 -0.0008 -0.0656
37556W        W80468  28.424  29.113   3.497  0.0322  0.0298  0.3243
37557W        W80469  28.772  30.167   3.510 -0.2351  0.1722  0.0850
37558W        W80470  27.042  26.732   2.614  0.2230 -0.1239  0.3474
37559W        W80471  25.283  25.918  31.529  0.0068  0.0316  0.1110
37560W        W80472  25.476  30.098  31.848 -0.0503 -0.2157 -0.2251
37561W        W80473  25.646  27.714   0.930 -0.3075 -0.0803  0.1118
37562W        W80474  25.138  27.437   0.519  0.0992 -0.0799  0.0192
37563W        W80475  28.591  29.941   1.461 -0.1701  0.0510  0.0354
37564W        W80476  28.967  28.493   1.923  0.0649  0.2680 -0.0678
37565W        W80477  25.514  29.039   2.810 -0.0456  0.1958  0.0007
37566W        W80478  27.304  25.748   1.467  0.1152  0.0877 -0.2235
37567W        W80479  29.636  27.689   2.717  0.1176 -0.2741  0.0971
37568W        W80480  27.995  26.174   1.937 -0.2049 -0.0707  0.2102
37569W        W80481  24.971  26.683  31.116 -0.1665 -0.4767  0.2598
37570W        W80482  27.760  29.159   1.987 -0.0693  0.0889 -0.5141
37571W        W80483  24.879  29.119  31.582 -0.2808  0.0351 -0.3707
37572W        W80484  25.017  26.319   2.181  0.2673 -0.1193  0.2195
37573W        W80485  27.906  29.821   0.312 -0.1583 -0.1912  0.0366
37574W        W80486  29.213  25.984   1.553 -0.2029  0.1926 -0.0490
37575W        W80487  23.365  26.336   3.475 -0.0221  0.0765  0.5119
37576W        W80488  26.539  26.585   3.840  0.0032 -0.1738 -0.2721
37577W        W80489  25.029  27.027   0.895 -0.0967  0.1388 -0.1854
37578W        W80490  26.225  29.015   3.193  0.3590 -0.1279 -0.3366
37579W        W80491  28.189  26.170   1.278 -0.0125 -0.0824 -0.2667
37580W        W80492  27.842  26.576   1.597 -0.0514  0.0864 -0.1737
37581W        W80493  26.788  27.651   3.004 -0.1646  0.2251  0.2356
37582W        W80494  27.865  27.848   1.959  0.1533  0.2256 -0.2120
37583W        W80495  28.037  26.608  31.187  0.2031 -0.1957 -0.1278
37584W        W80496  28.335  25.708   0.672  0.2515 -0.2028 -0.2998
37585W        W80497  25.536  28.251   2.158  0.1086 -0.0194  0.4153
37586W        W80498  26.674  27.973   1.182 -0.2326 -0.2216 -0.0047
37587W        W80499  26.178  27.220   2.099 -0.0154 -0.1366 -0.1730
37588W        W80500  26.635  27.475  31.394 -0.1215 -0.0095 -0.0093
37589W        W80501  28.229  30.683  31.695 -0.3313 -0.2176  0.0639
37590W        W80502  26.196  28.827   2.651  0.0844  0.2791  0.0630
37591W        W80503  28.363  26.871   2.944 -0.2834 -0.0659 -0.2358
37592W        W80504  26.967  28.979   1.534  0.0411 -0.1888 -0.2482
37593W        W80505  26.620  24.637   3.716  0.1301  0.2952 -0.1721
37594W        W80506  25.287  28.411   0.715  0.0727  0.0403 -0.0119
37595W        W80507  26.012  26.499   0.791  0.3801  0.0064 -0.0796
37596W        W80508  25.505  29.454   0.797  0.1303 -0.1667  0.4162
37597W        W80509  29.229  26.896   1.829  0.2495 -0.3021 -0.2943
37598W        W80510  27.343  26.613   1.666 -0.0370  0.1084  0.3144
37599W        W80511  26.348  24.776   3.266  0.0324  0.0906 -0.1968
37600W        W80512  28.334  25.880   2.912  0.2156 -0.1826 -0.2742
37601W        W80513  26.964  26.317   0.753 -0.0591  0.0832  0.0971
37602W        W80514  26.902  28.019   2.285 -0.1922  0.2017  0.2022
37603W        W80515  26.419  26.523  31.530  0.1299 -0.3725 -0.1721
37604W        W80516  27.500  25.762   2.807 -0.3098  0.1309 -0.1395
37605W        W80517  26.807  27.200   2.822 -0.2299 -0.1256  0.1404
37606W        W80518  25.160  28.849   1.568 -0.0735 -0.0284 -0.1344
37607W        W80519  28.495  28.068   2.803 -0.3176  0.1094  0.1421
37608W        W80520  27.226  28.094   0.735  0.0550 -0.1929 -0.0496
37609W        W80521  27.490  25.287   3.095 -0.2816  0.0744 -0.1737
37610W        W80522  25.064  26.090   1.304 -0.0082 -0.2680 -0.1223
37611W        W80523  26.113  30.986   0.874 -0.4195  0.3873  0.0779
37612W        W80524  26.852  27.353   0.073 -0.1594  0.1158 -0.2915
37613W        W80525  27.653  26.559   2.074  0.0438 -0.1204 -0.3432
37614W        W80526  26.803  29.079   3.156 -0.3365  0.0074  0.2148
37615W        W80527  24.412  29.357   0.422 -0.0289 -0.3261 -0.0522
37616W        W80528  27.946  28.179   3.709  0.0417  0.2371  0.0042
37617W        W80529  25.255  29.121  31.979 -0.2215 -0.0044 -0.0492
37618W        W80530  29.052  25.514   1.703 -0.3089  0.2456  0.0715
37619W        W80531  25.510  27.924   1.794  0.0769  0.0738  0.0107
37620W        W80532  24.485  25.941  31.285 -0.0054  0.2246 -0.3574
37621W        W80533  25.254  26.973   0.441 -0.0845 -0.2674 -0.0780
37622W        W80534  28.020  27.298   2.799 -0.1538 -0.0046  0.3361
37623W        W80535  27.374  27.514   0.761  0.0538  0.3865 -0.0034
37624W        W80536  25.962  26.860   2.381  0.1887  0.2825 -0.0216
37625W        W80537  27.630  27.041   1.731 -0.0333  0.1520  0.0946
37626W        W80538  25.943  28.009   1.965 -0.1521 -0.0030  0.2300
37627W        W80539  27.579  27.107   2.745 -0.0725  0.0089 -0.0837
37628W        W80540  28.027  27.914  31.694 -0.1360 -0.3936 -0.2476
37629W        W80541  28.424  29.638   2.396  0.2681  0.2371 -0.1098
37630W        W80542  26.966  27.404   3.811 -0.0931 -0.1215  0.0442
37631W        W80543  24.749  25.958   0.638  0.0824  0.0158 -0.2165
37632W        W80544  28.827  24.901   3.186  0.1116  0.2113 -0.0589
37633W        W80545  26.508  27.461   0.946  0.1446  0.2050  0.1077
37634W        W80546  25.185  28.505   1.188 -0.1409  0.1352 -0.1101
37635W        W80547  28.059  29.174   2.466  0.3292 -0.1090  0.0425
37636W        W80548  25.981  28.688   0.797  0.0851  0.0051  0.0695
37637W        W80549  25.859  29.161   0.609  0.0347 -0.1361 -0.2510
37638W        W80550  25.875  25.951   3.514 -0.0141 -0.1320  0.0056
37639W        W80551  29.599  28.135   2.590 -0.1296 -0.0371 -0.0359
37640W        W80552  26.928  26.179   1.872  0.1205 -0.1511 -0.1119
37641W        W80553  26.846  25.401   1.561 -0.1664 -0.1994 -0.0227
37642W        W80554  26.410  28.170   2.128  0.0008  0.1211 -0.1113
37643W        W80555  27.317  28.640   3.494 -0.0008 -0.3337  0.2633
37644W        W80556  28.486  26.484   2.351  0.0891 -0.1700 -0.0072
37645W        W80557  25.437  27.748   3.314  0.0973 -0.0457 -0.2833
37646W        W80558  28.122  26.334   3.303  0.2102  0.0611 -0.1658
37647W        W80559  27.617  30.295   1.297 -0.1105  0.1074 -0.0961
37648W        W80560  28.454  28.319   3.327 -0.1282 -0.1033  0.1164
37649W        W80561  25.116  26.696   1.372  0.1531 -0.1164  0.0373
37650W        W80562  26.546  28.505   2.491  0.0844 -0.0704 -0.0533
37651W        W80563  26.681  28.108   0.662 -0.0668 -0.0371  0.0743
37652W        W80564  27.992  27.441   2.203 -0.1886 -0.0073  0.0790
37653W        W80565  25.309  28.331   3.111  0.0481 -0.2508 -0.0318
37654W        W80566  25.601  29.600  31.564 -0.1337 -0.0452  0.1120
37655W        W80567  25.346  28.786   2.040  0.0218 -0.0770  0.1090
37656W        W80568  28.611  26.674   0.035 -0.0379  0.2753 -0.1273
37657W        W80569  26.908  28.803   2.167  0.1294  0.1690 -0.1234
37658W        W80570  27.255  27.367   1.560 -0.1106  0.0499 -0.2904
37659W        W80571  28.315  26.286   4.327 -0.2890 -0.0150  0.1308
37660W        W80572  28.006  27.435  31.417 -0.0504 -0.3315 -0.0416
37661W        W80573  27.257  26.123   2.583 -0.0744  0.0325 -0.1162
37662W        W80574  25.931  25.659   1.490  0.1591  0.0889 -0.2727
37663W        W80575  29.019  27.297   2.083 -0.2088 -0.0892  0.1799
37664W        W80576  25.543  25.685   4.234  0.2584 -0.1038 -0.1685
37665W        W80577  27.670  31.161   3.350  0.3427 -0.0436  0.0447
37666W        W80578  26.862  25.460   3.842  0.1936 -0.3315  0.2388
37667W        W80579  28.301  26.539   0.948 -0.2366  0.1992  0.2395
37668W        W80580  26.163  25.513   0.871  0.4331  0.1277  0.1047
37669W        W80581  27.400  27.922   2.178 -0.5247  0.1773 -0.0107
37670W        W80582  28.549  27.374   2.235 -0.3074  0.2807  0.0235
37671W        W80583  26.756  29.402   0.390  0.5135  0.1023  0.2283
37672W        W80584  29.291  27.496   1.734 -0.1051 -0.2208  0.2441
37673W        W80585  26.499  28.020   2.642 -0.1563 -0.1169 -0.0312
37674W        W80586  27.822  27.203   0.559 -0.1049 -0.1680 -0.0025
37675W        W80587  26.996  28.236   1.448 -0.0231 -0.1042  0.3062
37676W        W80588  26.218  29.227   2.306  0.0252  0.0997  0.5057
37677W        W80589  26.695  26.433   2.307  0.0955 -0.1773 -0.0577
37678W        W80590  29.047  26.690   2.302 -0.1279 -0.0464  0.2798
37679W        W80591  27.874  25.681   2.474  0.1837 -0.0580  0.2234
37680W        W80592  28.133  26.676   2.036  0.2297  0.0756 -0.1422
37681W        W80593  28.379  26.402   1.713 -0.1950 -0.2218  0.4655
37682W        W80594  27.353  27.238   3.546  0.1466  0.1842  0.0256
37683W        W80595  25.966  25.886   4.139 -0.1479 -0.2580 -0.2428
37684W        W80596  29.137  30.254   2.787 -0.2376  0.0039 -0.1999
37685W        W80597  28.264  27.100  31.797 -0.3290  0.0205 -0.1332
37686W        W80598  28.790  25.517   2.842 -0.3530  0.0567 -0.0077
37687W        W80599  28.757  26.485   1.154  0.1103 -0.2251 -0.4362
37688W        W80600  27.853  27.791   0.564  0.1752 -0.2243 -0.1240
37689W        W80601  27.300  26.926   2.108  0.0884 -0.0287 -0.3778
37690W        W80602  27.329  26.647   4.511  0.0451  0.0783 -0.1929
37691W        W80603  26.800  26.638   0.383  0.2457  0.1160 -0.0573
37692W        W80604  27.989  24.763   2.008 -0.3019  0.2890  0.1782
37693W        W80605  27.035  28.924   0.250  0.0134 -0.1063 -0.0511
37694W        W80606  26.148  27.608   1.800  0.1362  0.0224  0.2659
37695W        W80607  27.185  25.836   0.065 -0.3403 -0.0801 -0.6881
37696W        W80608  25.660  26.948   1.287 -0.0530  0.4465 -0.1664
37697W        W80609  26.248  28.540   3.361  0.0634 -0.2010  0.1851
37698W        W80610  25.610  26.472   1.178  0.0291  0.1875 -0.1157
37699W        W80611  28.506  28.019   1.205 -0.1475 -0.0977 -0.1135
37700W        W80612  26.880  27.281   3.365  0.4371 -0.0335  0.2830
37701W        W80613  28.468  27.326   3.212 -0.0665  0.5883  0.1332
37702W        W80614  28.339  25.485  31.006  0.2613 -0.1353  0.1032
37703W        W80615  29.721  27.617   1.076 -0.0755 -0.1449  0.2580
37704W        W80616  25.133  27.225   2.687  0.1641  0.2565  0.3076
37705W        W80617  27.985  25.909   0.264 -0.0887 -0.2019  0.1881
37706W        W80618  26.177  30.128   3.151 -0.3520 -0.1289  0.3505
37707W        W80619  26.525  29.696   2.447  0.0027 -0.0183  0.1030
37708W        W80620  26.390  28.894   0.495 -0.0877  0.1036 -0.1127
37709W        W80621  25.163  25.935   1.790  0.0663  0.1278  0.0069
37710W        W80622  27.281  27.455   2.997 -0.0108 -0.1487 -0.0255
37711W        W80623  27.583  28.242   2.555  0.3519 -0.0712 -0.1371
37712W        W80624  29.438  26.523   1.613 -0.0452 -0.1380 -0.1721
37713W        W80625  27.367  28.790   2.283  0.1156 -0.2153 -0.1664
37714W        W80626  25.331  27.711   2.865 -0.0208  0.0632 -0.1841
37715W        W80627  28.702  29.049   4.118  0.2822 -0.0084 -0.2257
37716W        W80628  28.112  28.306   2.508  0.0349  0.0977 -0.1522
37717W        W80629  25.072  27.486   1.810 -0.0401 -0.0854  0.2521
37718W        W80630  24.817  25.875   4.689 -0.0379 -0.0352  0.1524
37719W        W80631  28.785  27.012   2.531  0.2607  0.1117 -0.1724
37720W        W80632  27.275  27.774   3.391  0.0026  0.0130 -0.1941
37721W        W80633  26.479  26.297   0.577 -0.0509  0.2528 -0.0414
37722W        W80634  27.514  30.393   1.915  0.1080  0.1162  0.4138
37723W        W80635  26.337  28.805   2.111 -0.0201 -0.1601 -0.1342
37724W        W80636  25.004  26.454   3.277 -0.3122 -0.0874  0.0065
37725W        W80637  25.831  29.190   1.173  0.2006  0.1379  0.1606
37726W        W80638  27.970  27.337   1.532  0.2446 -0.0071 -0.0269
37727W        W80639  27.782  27.012   2.268 -0.1175 -0.0606  0.2756
37728W        W80640  28.098  30.163   1.316 -0.1541  0.1413 -0.2453
37729W        W80641  26.997  27.242   1.069  0.1061  0.0675  0.0681
37730W        W80642  26.147  26.683   0.330 -0.0739  0.0230 -0.1242
37731W        W80643  24.675  29.808  31.812  0.2514  0.2096 -0.0342
37732W        W80644  27.554  29.557   0.741 -0.1750 -0.2111  0.1344
37733W        W80645  25.741  29.263  31.962 -0.3522  0.3384  0.1989
37734W        W80646  28.162  27.282   3.587  0.2032 -0.2641 -0.2480
37735W        W80647  26.553  25.868   0.935  0.0502 -0.0478  0.2138
37736W        W80648  28.845  28.057   1.705 -0.2676 -0.3341 -0.0437
37737W        W80649  29.189  26.457   0.863 -0.0671  0.0524 -0.0554
37738W        W80650  26.742  28.011   3.916  0.2811 -0.0373 -0.1194
37739W        W80651  25.150  27.698   1.133 -0.2938 -0.2467 -0.2812
37740W        W80652  25.614  26.581   0.351 -0.0634  0.3863 -0.1766
37741W        W80653  27.168  27.401   2.499 -0.2090 -0.3667  0.2550
37742W        W80654  27.095  25.429   3.358 -0.0660 -0.2688  0.1398
37743W        W80655  25.649  28.585   2.576 -0.0898  0.0964  0.1448
37744W        W80656  26.951  31.445   0.699  0.1787  0.3185 -0.1099
37745W        W80657  25.509  24.362   0.999  0.1093 -0.3881  0.2402
37746W        W80658  25.386  28.071   1.334  0.3249  0.1651 -0.2768
37747W        W80659  28.697  24.217   3.749 -0.0053  0.1037 -0.1687
37748W        W80660  26.657  28.875  31.929  0.0215  0.0500 -0.2513
37749W        W80661  27.783  26.353   0.386 -0.1675 -0.0867  0.1510
37750W        W80662  26.212  28.365   1.213  0.1212 -0.0375  0.4350
37751W        W80663  26.168  29.666   2.829  0.4452 -0.0104 -0.0204
37752W        W80664  25.701  29.929   2.802 -0.2641  0.1539 -0.0404
37753W        W80665  25.843  25.414   1.960  0.0227 -0.2992 -0.3783
37754W        W80666  26.886  26.707   1.926  0.0751 -0.1498 -0.1091
37755W        W80667  26.314  27.219   2.631  0.2377  0.2038 -0.2126
37756W        W80668  28.215  26.101   2.423 -0.1962 -0.3540 -0.2270
37757W        W80669  26.539  27.037   1.264 -0.1748  0.3726 -0.0459
37758W        W80670  27.297  26.909  31.605  0.0020 -0.1393 -0.1161
37759W        W80671  27.721  27.168   3.226 -0.2997 -0.0748 -0.0460
37760W        W80672  26.787  28.197   3.083 -0.0955 -0.0515 -0.0828
37761W        W80673  26.568  27.187   0.501  0.0457  0.0843  0.1325
37762W        W80674  29.500  27.062   1.447 -0.0357  0.1116  0.0396
37763W        W80675  25.742  28.139  31.797  0.3370  0.0508 -0.0558
37764W        W80676  28.535  29.504   3.810 -0.4210 -0.1240 -0.2310
37765W        W80677  27.006  26.978   1.518  0.1346  0.3659  0.0071
37766W        W80678  26.350  26.125   1.360 -0.3239 -0.0198  0.1885
37767W        W80679  26.397  28.105   1.590 -0.1503  0.3442 -0.1839
37768W        W80680  27.689  26.171   2.384  0.0232 -0.0937  0.2988
37769W        W80681  27.430  28.826   2.758 -0.0422 -0.1938 -0.0399
37770W        W80682  25.556  26.021   0.775 -0.3255 -0.2580  0.0650
37771W        W80683  28.768  27.233  31.934  0.1310 -0.0400  0.0430
37772W        W80684  29.227  26.811   2.742 -0.1538 -0.1721  0.0586
37773W        W80685  27.320  29.453   1.178  0.0852 -0.2176  0.2947
37774W        W80686  27.637  27.585   2.516  0.1578 -0.2271  0.0140
37775W        W80687  27.827  28.722   2.514 -0.1293  0.0364  0.2031
37776W        W80688  26.022  26.628   3.480 -0.2155 -0.0393  0.1024
37777W        W80689  28.646  28.882   2.163  0.0974 -0.1249 -0.3083
37778W        W80690  27.296  28.217   3.020  0.0749 -0.1715  0.0023
37779W        W80691  27.264  26.212   1.302  0.1665  0.0035  0.1646
37780W        W80692  27.787  26.655   3.000  0.0674  0.1550 -0.1065
37781W        W80693  25.475  28.874   0.759 -0.0737 -0.2205  0.1095
37782W        W80694  28.094  27.625   1.096 -0.2959  0.0485 -0.1446
37783W        W80695  27.168  25.936   3.141 -0.1922  0.1119 -0.1148
37784W        W80696  26.339  28.558  31.762  0.2577  0.0986  0.2595
37785W        W80697  28.489  24.723   3.789 -0.0522  0.0327 -0.0454
37786W        W80698  26.864  28.876   2.667  0.1543 -0.2003  0.0947
37787W        W80699  25.427  29.153   4.780 -0.2380 -0.2447 -0.2770
37788W        W80700  25.400  27.306   0.929 -0.1613 -0.2400  0.0358
37789W        W80701  27.141  27.874   2.733  0.0006  0.1083 -0.0495
37790W        W80702  25.944  27.912   1.368 -0.0586  0.1877  0.0486
37791W        W80703  26.780  27.467   1.493  0.0401  0.1107  0.0311
37792W        W80704  28.646  29.123   2.561 -0.0748 -0.0226  0.1652
37793W        W80705  26.839  26.450   1.432 -0.2858  0.2558  0.1157
37794W        W80706  28.366  30.333   2.182 -0.0779  0.0979  0.0871
37795W        W80707  26.624  27.055   2.290 -0.2038 -0.2113 -0.3832
37796W        W80708  28.261  25.815   1.604 -0.3477 -0.3829 -0.2046
37797W        W80709  27.618  25.446  31.707  0.1967  0.0625 -0.1048
37798W        W80710  26.519  26.743   2.697  0.1679 -0.1608 -0.0877
37799W        W80711  25.165  26.452  31.584 -0.2443 -0.2178 -0.2671
37800W        W80712  25.250  27.903   0.688 -0.4887  0.2380 -0.0744
37801W        W80713  25.578  27.512   1.386  0.1823  0.0716  0.3202
37802W        W80714  26.957  25.015   3.821 -0.2719 -0.0331 -0.2499
37803W        W80715  26.337  26.210   2.651 -0.1851  0.2638 -0.2412
37804W        W80716  24.841  27.443   2.374  0.0765 -0.0313 -0.1163
37805W        W80717  26.326  25.800   1.766 -0.1641 -0.1028 -0.0173
37806W        W80718  28.103  28.782   2.125  0.2640  0.2041 -0.3925
37807W        W80719  27.199  26.458   2.213 -0.0937 -0.0902 -0.3714
37808W        W80720  24.897  26.355   1.708  0.2230 -0.1140 -0.2353
37809W        W80721  26.627  27.710   1.960 -0.1714  0.1705  0.0848
37810W        W80722  26.659  29.284   1.189  0.0793  0.3879 -0.2266
37811W        W80723  25.536  27.035  31.519 -0.4099  0.1294 -0.1100
37812W        W80724  28.355  27.779   4.289  0.0318 -0.4288 -0.0143
37813W        W80725  25.727  28.200   0.926  0.2468 -0.0226 -0.1083
37814W        W80726  27.837  26.111   2.864 -0.2301  0.1394 -0.1063
37815W        W80727  27.020  26.858   3.574 -0.2045  0.1533  0.0976
37816W        W80728  25.029  24.478   1.802 -0.1049  0.2446 -0.5154
37817W        W80729  26.202  30.171   2.675  0.1464  0.2441  0.0548
37818W        W80730  28.242  27.174   1.901  0.0574  0.5577  0.2632
37819W        W80731  27.985  29.345  31.775  0.0931  0.3032 -0.0905
37820W        W80732  26.297  28.020   3.261 -0.3465 -0.0830 -0.3427
37821W        W80733  26.379  30.298   3.628  0.2011 -0.0886 -0.3523
37822W        W80734  25.063  24.435   3.480  0.0295 -0.2170  0.1269
37823W        W80735  27.645  27.876   1.006  0.0114 -0.0076  0.3206
37824W        W80736  26.908  27.560   4.330 -0.1252  0.0933 -0.0819
37825W        W80737  28.361  28.516   0.987 -0.0162 -0.0565 -0.1216
37826W        W80738  28.903  25.367   3.361 -0.1417  0.2292  0.4266
37827W        W80739  26.358  27.658   1.352 -0.0701  0.1078 -0.0709
37828W        W80740  26.868  25.871   3.546 -0.1670 -0.0558  0.2284
37829W        W80741  26.145  27.727   2.840 -0.1762  0.0927 -0.1077
37830W        W80742  28.845  28.486   3.702 -0.1511  0.1858  0.0812
37831W        W80743  26.409  25.073   0.744 -0.0076  0.0992 -0.0269
37832W        W80744  27.452  26.133   1.854  0.0148 -0.0446  0.4494
37833W        W80745  28.743  27.537   1.673 -0.1374 -0.1408 -0.0399
37834W        W80746  27.517  26.684   3.505 -0.0481  0.4363  0.0529
37835W        W80747  26.552  27.121   1.800  0.1897 -0.0095  0.1713
37836W        W80748  27.862  27.125   3.954 -0.1341 -0.1888  0.1677
37837W        W80749  26.664  28.491   1.777 -0.0854 -0.2138  0.0847
37838W        W80750  28.663  26.863   2.024 -0.0507 -0.1860  0.3313
37839W        W80751  27.139  26.876   0.116  0.1256  0.0265 -0.0715
37840W        W80752  28.888  27.718   2.409  0.1238 -0.0348  0.0225
37841W        W80753  27.821  29.135   2.882  0.0659  0.0497  0.1803
37842W        W80754  29.701  29.155   3.483 -0.1929  0.0858 -0.3730
37843W        W80755  26.839  28.642   3.529 -0.2615 -0.0188 -0.1546
37844W        W80756  28.452  26.898   0.557  0.0613  0.0671  0.0731
37845W        W80757  25.461  26.138   2.419  0.0378  0.0124  0.1717
37846W        W80758  24.760  28.936   0.209 -0.1726  0.2855 -0.2447
37847W        W80759  25.537  27.840   0.266 -0.1940 -0.2889 -0.1706
37848W        W80760  28.461  25.552   3.310 -0.0371  0.1516 -0.1105
37849W        W80761  26.778  26.864   0.848 -0.1547  0.0279  0.1356
37850W        W80762  26.130  27.082   1.533  0.3309 -0.1236 -0.1706
37851W        W80763  27.585  29.315   2.441 -0.1361 -0.1379 -0.0284
37852W        W80764  28.191  27.802   1.602 -0.0176 -0.0040 -0.3335
37853W        W80765  25.158  27.828   5.104 -0.0318  0.0896  0.2199
37854W        W80766  27.084  25.116   5.628 -0.3691 -0.0372 -0.0876
37855W        W80767  27.576  26.200   3.297  0.4344  0.2314 -0.2333
37856W        W80768  29.245  27.030   5.098  0.0212  0.0437 -0.0619
37857W        W80769  25.432  25.684   3.737 -0.0568  0.0052  0.0056
37858W        W80770  28.130  29.229   3.890 -0.0500 -0.0754 -0.1777
37859W        W80771  26.598  25.081   6.092 -0.2871 -0.0841 -0.2081
37860W        W80772  27.267  27.481   5.709 -0.0342 -0.1021 -0.2518
37861W        W80773  28.702  28.505   5.307 -0.1570 -0.1567  0.1450
37862W        W80774  27.305  27.082   4.797 -0.3717 -0.0331 -0.0402
37863W        W80775  25.472  25.664   5.385  0.0688 -0.0147  0.1224
37864W        W80776  25.072  28.497   6.536  0.2082 -0.1769  0.0122
37865W        W80777  27.566  25.678   3.380 -0.1136 -0.0677  0.3482
37866W        W80778  23.633  24.240   4.782  0.2287 -0.0236  0.0443
37867W        W80779  26.274  27.027   6.293  0.1170  0.3315  0.2295
37868W        W80780  24.297  25.878   4.435 -0.1479  0.1161 -0.2356
37869W        W80781  26.026  26.690   5.186  0.0122 -0.2146 -0.1029
37870W        W80782  27.233  26.362   3.917 -0.1771  0.2374  0.0900
37871W        W80783  27.093  27.333   5.269  0.0011 -0.1541 -0.0364
37872W        W80784  25.547  26.577   6.747  0.2199  0.2554  0.0361
37873W        W80785  27.711  25.315   6.448  0.1647 -0.1768 -0.0533
37874W        W80786  25.996  27.630   4.733  0.1788  0.1744  0.0112
37875W        W80787  25.549  26.796   3.219  0.0173 -0.0902 -0.2370
37876W        W80788  25.304  26.039   5.844 -0.2338 -0.2667  0.3044
37877W        W80789  25.522  28.228   6.556  0.5150 -0.0798 -0.1159
37878W        W80790  27.778  26.804   5.805  0.0758  0.0480  0.1497
37879W        W80791  28.391  26.201   5.293 -0.0741 -0.3744  0.0242
37880W        W80792  26.265  28.788   4.347 -0.1175  0.0932  0.1066
37881W        W80793  27.703  29.165   6.704  0.1031  0.1581  0.0093
37882W        W80794  28.011  26.566   6.954 -0.1469 -0.1225 -0.3672
37883W        W80795  24.804  27.126   4.685  0.1657 -0.0242  0.3150
37884W        W80796  25.419  28.971   5.748  0.2536 -0.1262 -0.0144
37885W        W80797  25.456  28.863   3.871 -0.1520 -0.1218  0.1928
37886W        W80798  28.405  28.785   4.410 -0.0773  0.1604  0.1378
37887W        W80799  27.147  29.603   7.448 -0.0087  0.0435  0.0548
37888W        W80800  26.725  28.247   6.720  0.3203  0.6542  0.0634
37889W        W80801  25.998  28.316   4.465  0.1425  0.1776  0.0015
37890W        W80802  26.435  29.974   6.991 -0.0833 -0.2629 -0.2385
37891W        W80803  26.136  27.600   6.901 -0.1558 -0.0010  0.0557
37892W        W80804  25.628  27.753   5.478  0.1165 -0.0953 -0.2911
37893W        W80805  26.309  26.942   4.819  0.1588 -0.2744  0.2319
37894W        W80806  26.674  27.721   3.467 -0.2297 -0.2159 -0.2820
37895W        W80807  26.508  28.877   4.887 -0.0120 -0.0650  0.1735
37896W        W80808  25.761  28.261   6.120  0.0774  0.2005 -0.2141
37897W        W80809  26.066  27.840   6.467  0.2102  0.2780 -0.2744
37898W        W80810  28.631  26.092   7.673  0.0671 -0.1832  0.2480
37899W        W80811  26.228  28.056   3.787  0.2029  0.0593 -0.1866
37900W        W80812  28.531  26.963   3.669  0.0417  0.0759 -0.3817
37901W        W80813  26.939  24.697   4.209 -0.1732 -0.1481  0.1674
37902W        W80814  27.878  25.850   4.683  0.0776  0.0963 -0.2857
37903W        W80815  26.641  26.774   5.204 -0.0055  0.0877  0.0111
37904W        W80816  27.006  29.775   5.908  0.0020  0.1356 -0.0438
37905W        W80817  25.397  27.407   5.881 -0.1530  0.0570 -0.0212
37906W        W80818  27.664  27.090   7.722 -0.3392  0.1725  0.1492
37907W        W80819  27.334  27.308   4.365  0.2105  0.2337  0.1486
37908W        W80820  26.616  26.013   6.243  0.0636 -0.2829  0.2759
37909W        W80821  25.855  28.320   5.631  0.0955  0.0557  0.0621
37910W        W80822  25.986  25.562   5.361  0.0104 -0.1461  0.1880
37911W        W80823  28.804  29.092   4.615 -0.2955  0.1017 -0.0386
37912W        W80824  28.125  29.118   4.684  0.2485 -0.0678  0.1551
37913W        W80825  28.912  29.686   3.579  0.0861  0.1730 -0.0557
37914W        W80826  26.252  25.495   4.474  0.2340 -0.1134 -0.4130
37915W        W80827  24.372  27.127   6.393  0.0824  0.1868 -0.2355
37916W        W80828  24.382  25.769   5.763  0.0652 -0.1258  0.0320
37917W        W80829  26.983  24.239   4.650 -0.1346 -0.1480 -0.2640
37918W        W80830  28.961  27.337   5.944  0.3079  0.0621  0.0769
37919W        W80831  24.580  28.934   5.744 -0.0104 -0.0089  0.2664
37920W        W80832  28.410  27.088   4.598  0.2134 -0.3473  0.1700
37921W        W80833  26.051  27.169   6.725 -0.2244  0.0572  0.1225
37922W        W80834  27.746  28.072   5.996  0.0599  0.0734 -0.1254
37923W        W80835  27.697  26.581   4.102  0.2260 -0.0065 -0.3068
37924W        W80836  27.116  25.400   4.678  0.4035  0.1776  0.4059
37925W        W80837  26.555  25.247   5.571  0.2700  0.1011  0.0406
37926W        W80838  26.576  27.054   3.789  0.0161 -0.2479 -0.2073
37927W        W80839  26.008  27.683   4.123  0.1973 -0.0559  0.2693
37928W        W80840  28.805  28.557   6.232 -0.0721  0.0199  0.0641
37929W        W80841  29.409  27.349   3.145 -0.1272  0.0457  0.0318
37930W        W80842  26.080  27.760   5.214 -0.0009 -0.0753 -0.1408
37931W        W80843  24.917  27.465   6.080 -0.0688  0.1175  0.0225
37932W        W80844  25.740  27.900   6.881 -0.1520  0.1704 -0.0322
37933W        W80845  25.836  30.163   3.909  0.4750  0.1176  0.0674
37934W        W80846  25.683  27.979   4.747  0.1320 -0.0040  0.3401
37935W        W80847  25.139  27.983   3.659 -0.0439  0.1466  0.1084
37936W        W80848  24.427  25.198   5.788  0.0469  0.0122  0.0498
37937W        W80849  26.354  28.615   6.841 -0.2068 -0.1001  0.4825
37938W        W80850  28.195  26.414   3.822 -0.0814 -0.1544  0.0948
37939W        W80851  24.995  25.589   7.061 -0.0480  0.0734  0.1212
37940W        W80852  28.219  26.624   4.746  0.2887  0.3796 -0.1649
37941W        W80853  24.260  26.744   3.768 -0.0519 -0.2833  0.1626
37942W        W80854  29.024  29.416   4.179  0.0710  0.0398  0.2435
37943W        W80855  29.149  27.341   2.668 -0.0218 -0.2078 -0.2408
37944W        W80856  28.015  28.059   4.570  0.1980  0.3748 -0.2185
37945W        W80857  24.753  25.495   5.957 -0.0881  0.0947  0.0309
37946W        W80858  26.075  25.557   3.202  0.1184 -0.2295 -0.0983
37947W        W80859  26.167  24.958   6.731 -0.1004 -0.0358 -0.2206
37948W        W80860  25.769  24.932   4.866  0.0471  0.0213 -0.1387
37949W        W80861  27.155  25.834   8.125  0.1570  0.0078  0.0490
37950W        W80862  26.023  24.290   4.446  0.3441  0.1694  0.1002
37951W        W80863  27.605  25.522   4.339  0.0887 -0.1402 -0.2200
37952W        W80864  25.990  27.847   5.817 -0.2076 -0.1785  0.0386
37953W        W80865  25.052  26.806   2.964 -0.0782 -0.1850  0.0406
37954W        W80866  28.547  25.480   6.633 -0.0389 -0.1091 -0.1187
37955W        W80867  29.285  29.718   2.347  0.1326  0.0706 -0.0644
37956W        W80868  28.325  27.408   6.540  0.1210  0.0614  0.1104
37957W        W80869  27.848  30.332   6.040 -0.0389 -0.1678 -0.0994
37958W        W80870  24.114  25.042   6.878  0.0825  0.0052 -0.0718
37959W        W80871  25.772  24.694   4.469 -0.1593 -0.1848  0.0676
37960W        W80872  23.832  28.247   5.253 -0.0753  0.2309 -0.3146
37961W        W80873  26.889  27.437   6.062 -0.1850  0.3233 -0.0002
37962W        W80874  25.355  25.201   5.032  0.0581 -0.0352 -0.2530
37963W        W80875  28.118  28.854   6.249 -0.2242  0.0029  0.1581
37964W        W80876  26.441  27.455   4.702 -0.2275  0.3007 -0.1751
37965W        W80877  24.582  28.225   6.214 -0.0294 -0.2459 -0.1686
37966W        W80878  26.582  26.285   5.744 -0.3173  0.2381  0.0526
37967W        W80879  28.873  27.314   7.632 -0.0693 -0.2499  0.0757
37968W        W80880  27.895  27.593   6.801  0.0788  0.0042  0.0218
37969W        W80881  25.561  25.179   4.413 -0.1070  0.1952  0.2309
37970W        W80882  26.667  26.747   6.478 -0.1536  0.2022  0.1132
37971W        W80883  25.296  27.293   3.228  0.0727 -0.2463 -0.1557
37972W        W80884  25.780  26.859   4.233 -0.0584  0.0343 -0.1398
37973W        W80885  27.049  29.748   5.352 -0.0904 -0.0525 -0.1712
37974W        W80886  27.158  26.065   5.360  0.0018 -0.1411 -0.1027
37975W        W80887  24.410  25.749   6.275 -0.2172 -0.0996 -0.2682
37976W        W80888  27.084  25.803   6.428 -0.0924 -0.0263 -0.0644
37977W        W80889  26.532  26.842   3.295 -0.0413  0.0808 -0.2238
37978W        W80890  24.733  26.307   7.336  0.2820 -0.2553  0.2714
37979W        W80891  27.802  26.322   4.503  0.3069 -0.0492 -0.0369
37980W        W80892  28.261  25.379   2.477 -0.3446 -0.2985 -0.0800
37981W        W80893  26.364  27.491   6.447  0.3032  0.0698  0.4463
37982W        W80894  28.607  26.489   6.172 -0.4005 -0.0556 -0.2699
37983W        W80895  27.904  25.588   2.970  0.0746 -0.1840 -0.0003
37984W        W80896  28.156  26.796   4.164  0.1025  0.3020  0.3796
37985W        W80897  25.178  27.879   6.797 -0.1376 -0.0502  0.3339
37986W        W80898  27.912  27.203   4.901  0.2387 -0.3217  0.1003
37987W        W80899  24.332  28.662   6.123 -0.1483  0.1296  0.0822
37988W        W80900  26.933  26.354   3.393  0.3021  0.0849 -0.0371
37989W        W80901  28.132  28.849   5.563 -0.2759 -0.3035 -0.0011
37990W        W80902  26.013  27.184   4.519  0.0769  0.0620  0.2142
37991W        W80903  26.609  27.466   6.901 -0.2990  0.3414  0.1392
37992W        W80904  26.422  27.915   4.375  0.4099  0.0998 -0.1103
37993W        W80905  25.712  25.646   7.007  0.3487  0.2521  0.2323
37994W        W80906  27.342  25.917   3.712  0.3210  0.3143 -0.1688
37995W        W80907  26.112  25.164   5.080  0.0550 -0.0708  0.1288
37996W        W80908  25.450  30.058   3.158 -0.2017  0.2924 -0.0869
37997W        W80909  28.015  25.944   5.546 -0.0135 -0.0803  0.3247
37998W        W80910  27.304  25.502   5.168  0.1717  0.2148  0.1502
37999W        W80911  27.212  25.289   6.447  0.1610  0.0125  0.3333
38000W        W80912  28.676  27.579   6.841  0.1608 -0.1172  0.0060
38001W        W80913  28.043  26.794   3.560  0.0990 -0.0503 -0.0058
38002W        W80914  25.891  27.335   6.211  0.0498 -0.0291  0.2708
38003W        W80915  25.996  25.531   3.803 -0.2955 -0.0880 -0.0393
38004W        W80916  27.506  25.691   6.097  0.1596 -0.0151  0.0114
38005W        W80917  25.636  27.110   5.357 -0.0477  0.2890  0.1414
38006W        W80918  24.239  29.513   6.323 -0.1503 -0.2096 -0.2363
38007W        W80919  27.161  26.671   6.477  0.0337  0.2681 -0.3581
38008W        W80920  27.528  27.594   5.348 -0.0950  0.1922  0.0050
38009W        W80921  28.087  26.645   6.175 -0.2214  0.2387  0.1310
38010W        W80922  26.374  24.719   4.159  0.1818 -0.2038  0.0978
38011W        W80923  25.637  28.048   4.219  0.1676 -0.0401 -0.0713
38012W        W80924  28.153  27.770   3.006  0.1309 -0.0760 -0.0438
38013W        W80925  26.894  26.373   5.058 -0.2632  0.0771  0.2050
38014W        W80926  27.628  27.597   6.048  0.1803  0.2021 -0.0217
38015W        W80927  26.772  28.076   4.700  0.1159  0.2418 -0.1265
38016W        W80928  25.093  27.734   5.697 -0.3943 -0.1214  0.4901
38017W        W80929  25.314  27.710   4.046  0.0579  0.3509 -0.0003
38018W        W80930  29.311  25.661   5.547 -0.3294  0.0796  0.2972
38019W        W80931  25.233  26.937   3.587 -0.1567  0.0504 -0.0404
38020W        W80932  26.385  26.297   4.246 -0.2097 -0.0828 -0.3708
38021W        W80933  24.147  26.162   6.050  0.1389  0.2488  0.1398
38022W        W80934  28.628  26.004   3.348  0.0271  0.1358  0.1068
38023W        W80935  28.347  28.770   3.836 -0.1860 -0.1528  0.2412
38024W        W80936  25.797  27.262   7.108  0.1080  0.0118 -0.3527
38025W        W80937  27.062  26.219   4.454 -0.0548 -0.2193  0.1985
38026W        W80938  24.431  28.923   6.958 -0.2512  0.0082  0.1479
38027W        W80939  28.199  28.448   5.292 -0.0608  0.3199  0.1783
38028W        W80940  27.350  26.970   4.017  0.1443  0.0989 -0.0282
38029W        W80941  27.910  28.530   5.897  0.0879  0.0813 -0.2420
38030W        W80942  25.001  26.621   6.563  0.1902 -0.0140  0.1131
38031W        W80943  25.385  26.626   4.461  0.4389 -0.1135 -0.2309
38032W        W80944  29.542  25.185   5.667  0.0621 -0.2462  0.1248
38033W        W80945  25.460  28.170   5.220 -0.0456 -0.1418  0.0571
38034W        W80946  24.531  26.713   4.686  0.3046 -0.3692  0.1423
38035W        W80947  26.795  27.216   5.639 -0.3689  0.1786 -0.1956
38036W        W80948  26.327  26.157   3.543 -0.2312  0.1817  0.2724
38037W        W80949  25.010  26.720   4.818 -0.3513 -0.2869  0.0359
38038W        W80950  25.410  25.965   7.836  0.1155 -0.0624 -0.0620
38039W        W80951  26.997  26.530   5.562  0.0451  0.1537  0.1663
38040W        W80952  27.679  25.897   5.188  0.3051  0.3492 -0.2350
38041W        W80953  26.222  25.020   4.596 -0.1647  0.0900  0.1097
38042W        W80954  26.626  26.513   4.659 -0.1857  0.1435 -0.0855
38043W        W80955  25.910  26.912   5.920  0.0416 -0.0234  0.1183
38044W        W80956  26.973  25.576   5.497  0.0714 -0.1574 -0.1637
38045W        W80957  25.387  27.633   7.724 -0.2390  0.1516  0.0895
38046W        W80958  26.723  24.994   5.214 -0.4419 -0.0400  0.0301
38047W        W80959  29.081  28.225   4.533  0.0425  0.2071 -0.0716
38048W        W80960  25.655  26.507   5.502  0.0382 -0.0519  0.1212
38049W        W80961  26.005  27.242   5.086  0.0201  0.1240  0.1138
38050W        W80962  25.134  27.175   5.139 -0.0388 -0.0883  0.0050
38051W        W80963  26.833  29.392   5.116  0.0106 -0.1110 -0.1177
38052W        W80964  27.560  26.385   5.255  0.0571  0.0897  0.1380
38053W        W80965  25.288  27.299   6.414  0.0769 -0.1518  0.0680
38054W        W80966  26.067  28.604   4.828  0.0147  0.0828  0.0965
38055W        W80967  24.930  27.815   7.597 -0.1141 -0.0690 -0.0821
38056W        W80968  28.778  24.504   4.681 -0.1354  0.0994 -0.1975
38057W        W80969  27.754  27.584   3.435 -0.2110  0.1692  0.2181
38058W        W80970  27.199  25.690   4.122  0.2617 -0.1392  0.1018
38059W        W80971  26.632  25.890   5.369 -0.4952 -0.3725 -0.1073
38060W        W80972  28.711  25.835   4.873  0.2660  0.0680 -0.3846
38061W        W80973  28.410  25.837   5.815  0.2327 -0.0701  0.1278
38062W        W80974  25.338  25.513   5.828  0.2357 -0.2076  0.1340
38063W        W80975  26.800  27.019   4.514  0.0071  0.0446 -0.2981
38064W        W80976  25.606  26.748   7.308  0.1737  0.1349 -0.0782
38065W        W80977  28.181  28.316   7.125  0.1241  0.0938 -0.0862
38066W        W80978  24.897  26.126   6.883  0.0316 -0.0826  0.1610
38067W        W80979  27.719  26.990   4.413  0.0475 -0.1679 -0.0861
38068W        W80980  26.648  25.117   4.276  0.0725 -0.2762  0.0383
38069W        W80981  25.455  27.650   7.204 -0.1060  0.1095  0.0935
38070W        W80982  28.175  28.305   6.288 -0.1560  0.0702  0.0505
38071W        W80983  26.919  27.392   4.827  0.4131 -0.0443  0.0121
38072W        W80984  28.268  26.286   5.890 -0.1862 -0.1777 -0.2717
38073W        W80985  25.705  26.888   4.790  0.0509 -0.2321 -0.2705
38074W        W80986  28.412  26.192   4.782  0.0394 -0.0478  0.3130
38075W        W80987  28.927  27.253   3.523 -0.2580  0.0831 -0.1918
38076W        W80988  26.395  27.282   5.941  0.1606 -0.0170 -0.0281
38077W        W80989  26.502  25.825   6.700 -0.0809 -0.3703  0.3470
38078W        W80990  29.162  27.278   4.042 -0.0994  0.0375 -0.2295
38079W        W80991  28.106  26.860   5.251 -0.1666  0.2128  0.1221
38080W        W80992  28.767  25.188   6.105  0.1611 -0.1565 -0.0129
38081W        W80993  27.211  26.957   5.618  0.1599  0.0531  0.0067
38082W        W80994  26.939  26.259   6.657  0.2451 -0.0786 -0.0118
38083W        W80995  24.642  25.689   6.714 -0.1129  0.2490  0.1469
38084W        W80996  28.574  28.124   6.157 -0.2411 -0.1963  0.5324
38085W        W80997  29.222  26.729   4.297 -0.4451 -0.1946 -0.0445
38086W        W80998  29.796  25.945   6.119 -0.1111  0.1656  0.1385
38087W        W80999  30.286  27.731   3.668 -0.1950 -0.0789 -0.3103
38088W        W81000  29.523  26.494   2.227 -0.1900 -0.1628  0.2177
38089W        W81001  26.087  25.121   5.805 -0.0193 -0.1269  0.0819
38090W        W81002  26.290  26.551   6.164  0.0021 -0.0406 -0.0898
38091W        W81003  25.915  25.050   4.120  0.1826 -0.0479  0.0922
38092W        W81004  28.275  26.046   6.797 -0.2655 -0.0831 -0.2708
38093W        W81005  27.013  29.117   3.647  0.2562 -0.2814 -0.0806
38094W        W81006  28.374  27.616   4.737 -0.0436  0.1263 -0.2402
38095W        W81007  27.457  27.495   3.922  0.1672  0.0255 -0.0094
38096W        W81008  25.350  26.277   6.353 -0.2796 -0.0148  0.2547
38097W        W81009  25.715  29.189   7.423  0.0584  0.1437 -0.2518
38098W        W81010  26.087  26.007   4.591 -0.1821  0.2527 -0.0845
38099W        W81011  26.461  27.360   4.231  0.1957  0.1879 -0.1411
38100W        W81012  27.150  28.444   6.445 -0.3310 -0.1869  0.0400
38101W        W81013  27.939  26.285   6.545 -0.0663  0.2993 -0.1255
38102W        W81014  27.732  25.668   3.857 -0.0911  0.2194 -0.3949
38103W        W81015  27.608  27.030   5.254 -0.0357 -0.0384 -0.1461
38104W        W81016  26.007  27.116   3.412 -0.1256 -0.2159  0.0706
38105W        W81017  26.890  23.300   4.420  0.1200  0.1344  0.0907
38106W        W81018  26.978  28.699   6.820  0.1214  0.1799 -0.0442
38107W        W81019  24.267  28.227   5.549 -0.0043  0.0774  0.0803
38108W        W81020  26.380  27.908   6.113 -0.1804  0.1962 -0.1426
38109W        W81021  28.152  25.646   6.440 -0.0841 -0.1440 -0.1171
38110W        W81022  27.014  25.976   5.861 -0.2986 -0.0508 -0.2099
38111W        W81023  26.537  27.258   5.146 -0.0093  0.4205 -0.0147
38112W        W81024  28.959  25.340   5.641  0.1040 -0.0501 -0.3056
38113W        W81025  27.464  27.166   6.124 -0.0893  0.0527  0.1640
38114W        W81026  25.872  25.946   5.056  0.1133  0.0559 -0.2065
38115W        W81027  26.837  27.692   6.526  0.1271  0.0243  0.0527
38116W        W81028  28.778  26.825   4.902 -0.0237  0.2251  0.3764
38117W        W81029  25.948  28.242   5.150  0.0097  0.0480  0.0990
38118W        W81030  24.380  26.680   7.338 -0.0300  0.1731  0.1007
38119W        W81031  25.689  26.234   7.233 -0.0317  0.0642  0.0364
38120W        W81032  27.382  26.246   4.822  0.1426 -0.3810  0.0706
38121W        W81033  25.700  24.380   4.084  0.6652  0.2546 -0.1931
38122W        W81034  25.368  27.236   4.061 -0.0626  0.1663  0.1920
38123W        W81035  25.830  28.424   6.869 -0.0265  0.2959  0.0003
38124W        W81036  25.342  27.168   4.595 -0.0891 -0.0975 -0.1302
38125W        W81037  26.376  28.032   5.604  0.0142  0.1618  0.0073
38126W        W81038  27.204  28.056   4.235  0.1231 -0.0204  0.2326
38127W        W81039  28.988  27.617   3.165 -0.0019  0.3427  0.0175
38128W        W81040  26.572  29.011   6.664  0.3850  0.0466 -0.1616
38129W        W81041  27.602  26.174   5.805  0.0070 -0.2339 -0.2150
38130W        W81042  25.577  27.494   4.931  0.1308 -0.0862 -0.0791
38131W        W81043  24.690  28.260   3.975 -0.2787 -0.1645  0.1842
38132W        W81044  27.317  29.136   3.264 -0.0358  0.0917  0.1476
38133W        W81045  26.213  28.715   5.353  0.1179 -0.0398 -0.2170
38134W        W81046  27.447  28.033   6.567 -0.1139  0.1786 -0.1436
38135W        W81047  27.997  25.861   3.362 -0.2229 -0.1287 -0.0298
38136W        W81048  28.869  27.968   3.645 -0.3031  0.0536 -0.1648
38137W        W81049  28.613  26.070   3.907  0.3035  0.0281 -0.0620
38138W        W81050  26.678  29.602   7.735  0.0425 -0.1528  0.0102
38139W        W81051  26.128  26.492   5.694 -0.1748  0.0374 -0.0843
38140W        W81052  27.478  24.784   3.917 -0.1784 -0.0260  0.2473
38141W        W81053  25.166  26.529   7.162  0.2172 -0.3552 -0.1104
38142W        W81054  29.398  25.915   6.457 -0.0769 -0.1721  0.1407
38143W        W81055  25.286  29.312   7.213  0.4021  0.0487 -0.2047
38144W        W81056  26.887  28.534   4.964 -0.1110  0.0351 -0.2156
38145W        W81057  26.066  26.509   4.635  0.0397 -0.0638 -0.0879
38146W        W81058  27.268  27.762   4.648 -0.0532 -0.2251  0.1292
38147W        W81059  28.823  25.876   6.751 -0.0201 -0.0955 -0.1753
38148W        W81060  26.843  26.022   4.019 -0.0998 -0.0723  0.0480
38149W        W81061  27.216  25.124   4.250 -0.1890 -0.0548  0.0369
38150W        W81062  26.606  29.746   4.181  0.0790  0.1396 -0.0693
38151W        W81063  27.348  28.462   5.934 -0.0059 -0.0374  0.4076
38152W        W81064  26.588  26.797   5.847 -0.0122  0.0177  0.0913
38153W        W81065  25.529  25.185   3.784  0.2398  0.0986 -0.2238
38154W        W81066  29.717  25.589   3.445  0.0356  0.0834  0.0517
38155W        W81067  25.651  25.776   6.251 -0.1251  0.1786  0.3585
38156W        W81068  28.747  24.911   5.359 -0.0150 -0.2856  0.0877
38157W        W81069  26.402  26.269   5.054  0.1712 -0.0076 -0.2123
38158W        W81070  28.374  26.807   5.794  0.1565  0.0753 -0.2935
38159W        W81071  26.436  26.881   6.904  0.0940 -0.1582  0.3386
38160W        W81072  25.420  26.774   6.272 -0.1468 -0.0354 -0.2314
38161W        W81073  27.693  26.704   4.883 -0.2639 -0.1667 -0.0961
38162W        W81074  28.097  27.198   6.016 -0.0802 -0.1839 -0.1440
38163W        W81075  27.543  26.050   4.195 -0.3551 -0.2101  0.0310
38164W        W81076  28.362  28.172   7.683  0.0486 -0.1208 -0.3001
38165W        W81077  26.309  25.658   4.957 -0.0687 -0.3203 -0.4256
38166W        W81078  26.415  25.793   4.036  0.1213  0.1224  0.0783
38167W        W81079  26.353  26.839   4.284  0.1032  0.0427  0.1960
38168W        W81080  24.737  26.062   6.000 -0.0168 -0.1786  0.2821
38169W        W81081  27.995  28.752   6.821  0.1066 -0.1838  0.0539
38170W        W81082  24.434  24.115   4.960  0.2833  0.2276 -0.1130
38171W        W81083  28.620  27.536   2.753 -0.3362 -0.2339  0.1085
38172W        W81084  28.493  25.406   5.091  0.0598 -0.3588  0.1267
38173W        W81085  26.758  29.329   4.482  0.2852 -0.1118  0.1796
38174W        W81086  28.936  27.250   5.378  0.1733  0.0216 -0.2482
38175W        W81087  27.124  28.367   5.377  0.1474  0.0368  0.0889
38176W        W81088  25.014  26.537   6.106  0.1849 -0.0549  0.5022
38177W        W81089  27.162  28.846   5.598 -0.2501 -0.1308 -0.1231
38178W        W81090  28.475  27.194   5.099  0.2325 -0.0693  0.0902
38179W        W81091  26.897  25.740   4.958  0.2662 -0.2507  0.1434
38180W        W81092  26.579  26.005   4.656  0.0762 -0.0507  0.2753
38181W        W81093  24.911  27.360   4.283 -0.4461  0.3266 -0.0142
38182W        W81094  29.860  26.545   5.363 -0.0008  0.4793  0.1844
38183W        W81095  27.737  27.268   5.690  0.0763 -0.1036  0.3419
38184W        W81096  26.375  27.527   3.768 -0.2144  0.1628 -0.1305
38185W        W81097  27.470  23.995   6.065 -0.0890  0.3337 -0.0553
38186W        W81098  26.867  27.853   5.574 -0.2160  0.1448 -0.1470
38187W        W81099  24.822  29.553   6.970  0.1120 -0.3187 -0.0659
38188W        W81100  26.901  26.694   4.118 -0.2395  0.1822 -0.2384
38189W        W81101  24.942  27.916   6.380 -0.0697 -0.1823 -0.0521
38190W        W81102  27.076  29.887   3.906  0.1910 -0.1578  0.1425
38191W        W81103  27.471  28.623   4.100 -0.0908 -0.2060 -0.0513
38192W        W81104  27.522  28.931   6.067  0.1076  0.1931 -0.0928
38193W        W81105  28.083  27.696   3.852 -0.1429  0.1869 -0.2228
38194W        W81106  27.743  28.280   4.963 -0.2441 -0.2567 -0.1147
38195W        W81107  26.200  24.807   5.424 -0.0291  0.0995 -0.1239
38196W        W81108  29.271  26.879   3.248  0.1906 -0.1387 -0.0176
38197W        W81109  28.497  25.826   4.423  0.1454 -0.0421  0.3251
38198W        W81110  25.935  27.387   5.714  0.2655  0.0253 -0.4319
38199W        W81111  25.130  26.139   4.034 -0.1076 -0.2341 -0.3355
38200W        W81112  25.995  27.608   3.420  0.2738  0.0501  0.5044
38201W        W81113  25.476  28.045   5.833 -0.3386  0.4430 -0.1181
38202W        W81114  26.337  25.719   7.744  0.0827  0.0682  0.3174
38203W        W81115  25.455  27.728   6.265  0.0757  0.1850  0.0381
38204W        W81116  25.706  26.409   6.006 -0.0880 -0.2117 -0.0810
38205W        W81117  26.045  24.261   5.329 -0.2887  0.2264 -0.0173
38206W        W81118  29.260  27.865   3.959  0.0174  0.2624 -0.1622
38207W        W81119  25.636  25.183   5.435  0.3241  0.1976 -0.1560
38208W        W81120  25.728  26.055   5.609  0.1635 -0.1869 -0.3163
38209W        W81121  26.613  27.815   5.146 -0.1320  0.1050 -0.3437
38210W        W81122  29.472  29.390   4.424  0.1569  0.1222 -0.4080
38211W        W81123  26.837  24.841   4.688 -0.1912  0.3296  0.1882
38212W        W81124  28.513  27.366   5.642  0.1392  0.2190  0.0496
38213W        W81125  25.610  27.388   3.642 -0.1439 -0.5399  0.0885
38214W        W81126  25.731  24.673   7.489  0.2572 -0.2068 -0.1918
38215W        W81127  26.766  26.055   8.977 -0.1889 -0.1963 -0.0862
38216W        W81128  24.486  26.740   3.379 -0.0614  0.1046 -0.0862
38217W        W81129  25.478  26.049   6.821  0.0944  0.2704  0.0186
38218W        W81130  25.281  26.620   4.010 -0.3883  0.0176  0.1247
38219W        W81131  27.850  30.830   2.540  0.1276 -0.0573 -0.0367
38220W        W81132  26.467  27.557   5.529 -0.0714 -0.0076 -0.0930
38221W        W81133  25.722  29.219   7.956  0.0145  0.0670  0.0013
38222W        W81134  25.318  23.815   7.260  0.0511 -0.0205 -0.0121
38223W        W81135  27.925  28.378   4.182  0.0822 -0.1294 -0.1219
38224W        W81136  26.168  28.375   6.396 -0.1625 -0.0352  0.1638
38225W        W81137  28.003  27.427   4.444  0.0621  0.0127  0.4678
38226W        W81138  28.593  26.799   5.353 -0.0469  0.0048  0.1064
38227W        W81139  27.208  26.784   5.168 -0.0979 -0.1634 -0.2592
38228W        W81140  25.692  25.152   7.335 -0.0866  0.1110  0.1591
38229W        W81141  23.579  28.404   6.643 -0.1703  0.0923 -0.2203
38230W        W81142  28.894  26.723   5.809 -0.0796 -0.0378  0.1921
38231W        W81143  25.866  26.795   6.444 -0.0753  0.0387  0.1774
38232W        W81144  27.814  25.413   4.969  0.0844 -0.0025 -0.0352
38233W        W81145  26.503  28.288   5.201  0.2374  0.1930  0.1749
38234W        W81146  25.369  26.151   5.329  0.1135 -0.1716  0.0677
38235W        W81147  27.410  25.786   4.785 -0.4809  0.0864  0.0786
38236W        W81148  25.861  26.211   6.540  0.0644 -0.0657 -0.2716
38237W        W81149  28.087  27.529   5.329 -0.0963 -0.2858 -0.0045
38238W        W81150  27.653  27.922   7.650  0.1853  0.1557  0.3991
38239W        W81151  28.820  27.393   4.816  0.2784  0.2171 -0.0781
38240W        W81152  27.683  28.147   3.275 -0.2363  0.0249 -0.0882
38241W        W81153  28.277  31.081   4.729  0.1132 -0.2147  0.1282
38242W        W81154  28.133  27.812   7.154 -0.0715  0.3192  0.3731
38243W        W81155  26.867  26.447   6.099  0.0618 -0.1241  0.0525
38244W        W81156  27.020  26.944   6.059  0.0332  0.1333 -0.1906
38245W        W81157  24.784  24.811   6.586  0.2755 -0.2426 -0.0459
38246W        W81158  26.082  27.192   3.959 -0.0030  0.4187 -0.0002
38247W        W81159  26.780  28.182   6.236 -0.1322 -0.0223 -0.0125
38248W        W81160  29.281  26.635   5.397 -0.2781  0.0685 -0.1741
38249W        W81161  24.850  26.757   5.330  0.0029 -0.0564 -0.2984
38250W        W81162  27.523  24.179   4.634 -0.1985  0.0276 -0.1221
38251W        W81163  25.465  29.409   6.688 -0.0610 -0.3734 -0.0222
38252W        W81164  27.355  27.501   6.534  0.1454 -0.1996 -0.2608
38253W        W81165  25.888  27.595  10.018  0.2326 -0.1372  0.0447
38254W        W81166  25.725  25.475   8.090  0.0224  0.1189  0.2535
38255W        W81167  26.151  26.032   6.967  0.0263 -0.1895 -0.1472
38256W        W81168  26.895  26.655   7.654 -0.2272  0.2437  0.1685
38257W        W81169  25.281  24.995   8.819  0.0222  0.0020  0.0200
38258W        W81170  27.601  27.071   9.202  0.2746 -0.2502 -0.3107
38259W        W81171  27.169  28.980   9.119 -0.0514 -0.0976  0.0853
38260W        W81172  28.609  29.937   9.453 -0.0453 -0.2524  0.2493
38261W        W81173  27.414  26.581   6.015  0.2357  0.1019  0.1679
38262W        W81174  26.713  26.502   9.208  0.1637  0.2603  0.2269
38263W        W81175  25.118  25.555   7.769 -0.3950 -0.0684 -0.0911
38264W        W81176  24.714  26.881  10.366 -0.0299  0.2337  0.0106
38265W        W81177  28.659  25.594   9.529 -0.1798 -0.1025  0.1587
38266W        W81178  26.175  27.288   7.966  0.1444  0.1474  0.0593
38267W        W81179  25.545  27.368   9.575  0.2022  0.3214 -0.0300
38268W        W81180  25.921  26.717   7.934  0.3252 -0.2999  0.1820
38269W        W81181  27.662  28.025  10.261 -0.0786 -0.1351  0.0832
38270W        W81182  24.891  26.640   9.925 -0.3140  0.2171 -0.1277
38271W        W81183  25.576  27.900   8.267  0.2434  0.0156 -0.1685
38272W        W81184  25.405  26.355   8.199 -0.0403  0.1392 -0.1841
38273W        W81185  25.380  26.481  10.029  0.1679  0.3418 -0.0762
38274W        W81186  24.415  26.985   8.961  0.2644 -0.3956 -0.1085
38275W        W81187  25.758  26.647   9.138  0.0485 -0.0527 -0.1153
38276W        W81188  28.769  27.772   9.908 -0.0392 -0.0037 -0.4024
38277W        W81189  26.732  28.138   7.771  0.0727  0.0159 -0.0451
38278W        W81190  26.001  28.051   8.565 -0.1038  0.0897 -0.0148
38279W        W81191  24.703  27.310   8.146  0.1900  0.2260 -0.1826
38280W        W81192  24.184  27.758   8.378 -0.1912 -0.2536  0.0875
38281W        W81193  27.168  28.250   6.962  0.0511  0.1529 -0.0954
38282W        W81194  28.022  27.114   8.836  0.0331  0.0201 -0.1243
38283W        W81195  24.944  26.959   6.903 -0.0239 -0.1269 -0.1067
38284W        W81196  26.219  26.868   8.983  0.2950  0.1720  0.3153
38285W        W81197  27.248  27.034   7.391  0.0907 -0.1997 -0.1012
38286W        W81198  27.100  27.768   6.924  0.0443  0.2625 -0.1688
38287W        W81199  26.647  27.041  10.075  0.0131  0.4010  0.0281
38288W        W81200  25.416  28.069   8.756  0.0544 -0.0290 -0.2747
38289W        W81201  25.301  28.853   8.210 -0.1263  0.1065 -0.0283
38290W        W81202  27.880  26.604   7.793  0.2830 -0.0375  0.1354
38291W        W81203  27.611  25.916   7.049 -0.2050 -0.3096 -0.0460
38292W        W81204  28.008  25.507   8.813  0.0673 -0.0699 -0.0452
38293W        W81205  26.968  24.638   6.544  0.2691  0.2609 -0.2552
38294W        W81206  24.798  28.413   8.898 -0.2393  0.1509 -0.0409
38295W        W81207  25.994  25.143   9.793 -0.2181 -0.1828 -0.2293
38296W        W81208  27.246  27.795   8.942 -0.0501  0.0996 -0.0995
38297W        W81209  25.883  26.232   9.587  0.0282  0.0945  0.1974
38298W        W81210  26.923  30.462  10.225 -0.1406 -0.2295  0.2524
38299W        W81211  25.092  26.380   9.172 -0.0826  0.1466  0.2417
38300W        W81212  28.494  28.950   7.915 -0.2233 -0.0726 -0.0161
38301W        W81213  27.684  29.283   9.088 -0.0994 -0.1869 -0.0716
38302W        W81214  27.012  28.562   7.465  0.0841  0.0972  0.4522
38303W        W81215  24.592  26.201   8.683  0.1948  0.1044 -0.4069
38304W        W81216  26.517  25.138   7.070  0.0847 -0.1481 -0.1143
38305W        W81217  27.626  25.790   8.287  0.2114  0.0461 -0.2740
38306W        W81218  27.817  27.880   9.624  0.2644  0.0221  0.0479
38307W        W81219  28.305  28.110   9.110  0.0457 -0.0162  0.3083
38308W        W81220  27.469  26.341   6.764  0.1259  0.1486 -0.0969
38309W        W81221  27.215  25.097   9.729  0.0924 -0.1037  0.1954
38310W        W81222  28.629  26.328   8.946  0.1040 -0.0023 -0.1393
38311W        W81223  25.402  27.068   6.860  0.0686  0.0156 -0.1319
38312W        W81224  26.470  26.542   7.291 -0.1735 -0.3507 -0.0830
38313W        W81225  28.436  26.832   8.937  0.2434 -0.0076  0.0290
38314W        W81226  28.121  25.410   7.423 -0.2413  0.0197 -0.1380
38315W        W81227  27.889  29.402   9.868  0.3687 -0.0227  0.0843
38316W        W81228  25.342  28.328   8.239 -0.1583  0.0218 -0.0000
38317W        W81229  24.974  27.936   9.050 -0.2883 -0.1205 -0.0602
38318W        W81230  25.046  27.295   7.762 -0.0225  0.1699  0.2267
38319W        W81231  21.834  25.242  10.437  0.1008 -0.0230  0.2295
38320W        W81232  26.363  27.332   8.752  0.0589  0.0907  0.1782
38321W        W81233  27.870  25.659   7.821 -0.1800  0.0011  0.1165
38322W        W81234  28.190  25.264   9.308 -0.2303  0.1862 -0.0433
38323W        W81235  24.790  27.104   8.577  0.2943 -0.0550 -0.2256
38324W        W81236  27.623  28.030   9.203  0.0803 -0.0263  0.2639
38325W        W81237  28.073  25.529   6.903  0.0879  0.3819 -0.0805
38326W        W81238  27.032  27.267   7.024  0.0816  0.1340 -0.2980
38327W        W81239  25.012  25.818  10.133 -0.2801  0.1643 -0.0688
38328W        W81240  24.378  24.168   9.431  0.0349  0.0165  0.0933
38329W        W81241  25.467  25.461   8.548  0.1535  0.3762  0.2895
38330W        W81242  25.185  25.838   8.258  0.0944 -0.1616  0.0330
38331W        W81243  27.871  25.260   8.384  0.0375 -0.0418  0.1605
38332W        W81244  25.405  25.874   9.861  0.3139  0.1205 -0.1242
38333W        W81245  25.600  27.386   8.208  0.0554 -0.0121 -0.1353
38334W        W81246  27.118  28.728   7.993 -0.2521 -0.3028  0.0169
38335W        W81247  26.422  27.282   9.258  0.1148  0.0526 -0.1059
38336W        W81248  27.420  28.231   8.765  0.0751  0.1556 -0.2340
38337W        W81249  24.050  25.806   9.403  0.0192 -0.1116  0.1221
38338W        W81250  24.129  26.065   8.913 -0.2212 -0.0876  0.1274
38339W        W81251  24.185  28.790   9.563 -0.1253  0.0286  0.0210
38340W        W81252  24.919  27.626  10.206 -0.1841 -0.1955 -0.0018
38341W        W81253  26.622  25.317   8.503 -0.1249  0.0006 -0.2615
38342W        W81254  28.996  29.029   9.540 -0.1333  0.0004 -0.0720
38343W        W81255  27.193  27.962   8.324  0.4251 -0.1601  0.0311
38344W        W81256  30.034  26.360   9.513 -0.2416  0.2636 -0.0476
38345W        W81257  27.060  26.937   9.391 -0.0215 -0.1282  0.3374
38346W        W81258  25.650  24.935   8.439  0.3089  0.0336 -0.1418
38347W        W81259  27.205  27.183   8.953  0.0718  0.0671  0.1098
38348W        W81260  25.475  27.584   8.641 -0.0568 -0.1842  0.4645
38349W        W81261  24.936  27.421   7.185  0.0077 -0.1289 -0.0714
38350W        W81262  26.298  28.142   8.192 -0.1632 -0.2234 -0.2330
38351W        W81263  27.574  26.979   8.650  0.0095 -0.2040 -0.4005
38352W        W81264  25.111  26.234   8.665 -0.3438 -0.3087  0.0951
38353W        W81265  27.363  25.811   7.458 -0.1087  0.0954 -0.1213
38354W        W81266  28.702  25.624   7.618  0.1190  0.1972 -0.0914
38355W        W81267  27.888  27.448   7.456  0.1393  0.5865  0.0444
38356W        W81268  27.905  25.044   7.132  0.2013 -0.4499 -0.2456
38357W        W81269  27.712  25.829   6.571  0.1406 -0.1070 -0.3050
38358W        W81270  26.438  27.674   7.861  0.0619 -0.1822  0.4298
38359W        W81271  26.871  27.553   9.221  0.1941 -0.0332 -0.5204
38360W        W81272  26.391  26.806   8.467 -0.2127  0.0016 -0.1082
38361W        W81273  27.476  27.446   7.109 -0.0610  0.0119 -0.0027
38362W        W81274  24.930  28.149   8.482 -0.3560  0.1769  0.1100
38363W        W81275  26.878  28.078   8.684 -0.4161 -0.0159 -0.0458
38364W        W81276  27.768  25.895   9.696  0.1666  0.1426 -0.1325
38365W        W81277  25.916  25.780   7.488 -0.1288  0.2110  0.0038
38366W        W81278  25.932  25.990   8.006 -0.2795  0.1003 -0.3055
38367W        W81279  25.575  28.636   7.317 -0.3205 -0.1751  0.3822
38368W        W81280  28.781  28.009   9.336  0.0832  0.2823 -0.1041
38369W        W81281  25.534  26.183  10.439 -0.2160  0.0400  0.2440
38370W        W81282  26.615  25.842   8.148  0.1706  0.0848  0.1508
38371W        W81283  27.188  27.025   9.918  0.1170  0.1911 -0.0878
38372W        W81284  25.179  26.015   7.271 -0.1260  0.0744  0.0713
38373W        W81285  26.301  21.607  10.146  0.0289 -0.2691 -0.1157
38374W        W81286  26.828  27.858   9.671 -0.0697 -0.2317 -0.3802
38375W        W81287  26.851  26.454   8.694 -0.0277 -0.0199 -0.2464
38376W        W81288  27.387  25.473   6.855 -0.0456 -0.0841  0.1588
38377W        W81289  24.648  28.593   8.193  0.2435 -0.0425 -0.3753
38378W        W81290  26.602  27.916   7.170  0.0930  0.0927  0.0046
38379W        W81291  25.201  24.802   9.954 -0.1822  0.0922  0.1214
38380W        W81292  25.730  26.813  11.948  0.0547  0.1399 -0.5052
38381W        W81293  26.211  28.104   6.937  0.1127  0.1040  0.0401
38382W        W81294  26.637  27.805   8.345 -0.0641 -0.1818  0.2010
38383W        W81295  25.863  28.349   7.770  0.1060 -0.1866 -0.0731
38384W        W81296  28.460  24.002   7.833  0.1109  0.1701  0.0443
38385W        W81297  25.729  28.436   8.859  0.1052  0.1413 -0.0391
38386W        W81298  25.347  26.863   7.833  0.1735  0.1719  0.0046
38387W        W81299  25.579  26.830   8.272  0.2593  0.0726 -0.2854
38388W        W81300  27.314  25.385   8.317  0.1155 -0.2535 -0.1837
38389W        W81301  27.689  26.716   6.486  0.0211 -0.1823 -0.0046
38390W        W81302  25.411  27.412  10.091 -0.0411  0.1463 -0.0892
38391W        W81303  26.199  25.725   9.747 -0.2673  0.0171 -0.1564
38392W        W81304  24.099  29.189   9.138  0.0801  0.1471  0.1834
38393W        W81305  28.765  25.381   8.058 -0.4213  0.0455 -0.2438
38394W        W81306  23.827  25.152   7.817 -0.0437 -0.2981  0.3475
38395W        W81307  27.255  27.621   9.894 -0.1328  0.0701  0.1078
38396W        W81308  26.412  26.522   8.088 -0.2270 -0.0297 -0.0597
38397W        W81309  24.435  28.220   8.512 -0.0221 -0.3008  0.0398
38398W        W81310  26.416  27.658   9.926 -0.1513 -0.0054  0.0860
38399W        W81311  24.876  26.819   7.991 -0.2197 -0.0954 -0.2134
38400W        W81312  25.255  27.091   8.711 -0.0896 -0.1446 -0.0289
38401W        W81313  24.932  28.359  10.072 -0.0206  0.1089 -0.0472
38402W        W81314  26.728  27.010   8.944 -0.2673 -0.2175  0.1514
38403W        W81315  24.507  25.923   9.406  0.0593  0.2905 -0.1263
38404W        W81316  25.975  27.101   8.390 -0.0793 -0.0569  0.0607
38405W        W81317  25.707  27.893   9.608  0.0644  0.1252  0.0250
38406W        W81318  24.739  25.595   9.734 -0.2182  0.1061 -0.0401
38407W        W81319  25.394  25.669  10.431 -0.0736 -0.0513  0.0231
38408W        W81320  27.851  27.372   8.391 -0.4409 -0.2262 -0.1832
38409W        W81321  25.658  27.487   6.636 -0.2408  0.1183  0.3508
38410W        W81322  23.670  27.861   9.479  0.1528  0.2127  0.2711
38411W        W81323  24.521  26.232   6.464 -0.1318 -0.3576 -0.2459
38412W        W81324  26.604  27.312   8.341  0.1368  0.0964  0.0790
38413W        W81325  24.262  27.704   9.423 -0.0637 -0.0232  0.1189
38414W        W81326  25.177  28.247   7.418 -0.0469 -0.0946  0.6075
38415W        W81327  24.774  27.441   9.076  0.1067 -0.0485  0.0470
38416W        W81328  26.707  27.067   7.355 -0.1316 -0.0196 -0.4235
38417W        W81329  26.884  25.809   8.559  0.3010 -0.1565 -0.0639
38418W        W81330  26.932  26.642   6.952  0.1769  0.1956 -0.1282
38419W        W81331  24.437  27.229   9.469 -0.1954 -0.0078 -0.1700
38420W        W81332  27.661  26.231   7.557 -0.1948  0.0686 -0.0710
38421W        W81333  26.537  26.171   7.724 -0.1295 -0.0555 -0.0743
38422W        W81334  24.881  25.018   7.767  0.0563  0.1770  0.1489
38423W        W81335  26.857  27.523   8.714  0.0559  0.2539 -0.3217
38424W        W81336  27.066  27.037   8.525 -0.0110 -0.1533 -0.0743
38425W        W81337  25.769  27.131   7.677  0.0351  0.2544 -0.1961
38426W        W81338  27.372  25.816   9.413 -0.1953  0.0539 -0.0378
38427W        W81339  24.533  27.855   8.815  0.3827  0.2073  0.0075
38428W        W81340  27.685  25.959   8.845 -0.0765  0.0600 -0.3289
38429W        W81341  25.990  26.645   6.976  0.1203 -0.0147  0.1177
38430W        W81342  26.183  27.651   8.386 -0.0143  0.1629 -0.1442
38431W        W81343  28.533  26.555   9.466 -0.0928  0.1296 -0.0852
38432W        W81344  26.229  25.953   9.194  0.0028 -0.1887  0.3622
38433W        W81345  27.195  28.177   9.500  0.1657  0.1561 -0.1170
38434W        W81346  28.637  27.063   6.715 -0.0200  0.0451 -0.1415
38435W        W81347  30.571  23.968   9.675  0.2697 -0.4043 -0.0243
38436W        W81348  28.237  27.021   7.591 -0.1891  0.0344 -0.1275
38437W        W81349  26.083  26.306   7.629 -0.3011 -0.2130  0.1469
38438W        W81350  25.426  26.625   8.806 -0.2159 -0.0825  0.1970
38439W        W81351  25.876  25.704   8.904  0.0357 -0.0825  0.1565
38440W        W81352  26.202  27.979   7.516 -0.0578 -0.0741  0.4514
38441W        W81353  28.332  29.390   8.386  0.1963  0.0424 -0.0776
38442W        W81354  28.232  26.393   8.184  0.1413 -0.2886 -0.1108
38443W        W81355  24.907  26.186   9.722 -0.1622 -0.0143  0.0068
38444W        W81356  25.601  26.413   7.728  0.0540 -0.1063 -0.0748
38445W        W81357  27.033  25.429   6.009  0.1970  0.0777 -0.1048
38446W        W81358  27.088  28.208   9.985 -0.2983 -0.3177  0.0188
38447W        W81359  26.682  25.569   9.098 -0.0082 -0.3805 -0.0754
38448W        W81360  25.159  27.197   8.238 -0.2216 -0.1128  0.0426
38449W        W81361  26.807  27.322   9.651  0.0670  0.0374 -0.0340
38450W        W81362  24.975  29.512   9.520  0.0940 -0.1672  0.1562
38451W        W81363  26.337  28.421   7.797  0.2262  0.0819 -0.2331
38452W        W81364  28.168  27.045   9.406  0.0235  0.0432  0.0920
38453W        W81365  26.491  26.541  10.212 -0.2142  0.0495 -0.0926
38454W        W81366  26.861  26.808   8.140  0.2284  0.0110  0.1818
38455W        W81367  24.277  26.986   7.951  0.1085 -0.2738  0.0276
38456W        W81368  29.130  27.697   9.168 -0.0614  0.2442 -0.1664
38457W        W81369  25.702  26.911  10.147 -0.5024  0.0699  0.1592
38458W        W81370  27.279  26.638   8.380  0.0067 -0.3845  0.0145
38459W        W81371  26.058  26.258   8.772  0.0759  0.1550  0.0240
38460W        W81372  27.135  29.118   7.631 -0.1721  0.0119 -0.1148
38461W        W81373  25.854  28.222  10.039  0.0663 -0.1043 -0.1885
38462W        W81374  25.516  28.806   7.774  0.0826  0.3248  0.3152
38463W        W81375  27.885  28.750   7.302 -0.0414 -0.0035 -0.1299
38464W        W81376  26.091  26.970   7.332  0.0919 -0.1404 -0.0940
38465W        W81377  26.593  28.572   9.070 -0.0799  0.3470 -0.3332
38466W        W81378  26.318  25.722   8.657  0.1904 -0.1119  0.0204
38467W        W81379  25.306  27.538   9.120 -0.1622  0.0460 -0.0732
38468W        W81380  24.653  28.982   7.668 -0.0117 -0.1013 -0.1052
38469W        W81381  27.701  27.876   8.406 -0.0265 -0.2685  0.0335
38470W        W81382  25.446  28.371   9.701 -0.0917 -0.0008  0.0668
38471W        W81383  27.669  26.703   7.307 -0.2648 -0.1709 -0.3753
38472W        W81384  29.962  26.829   8.511 -0.3271 -0.1104  0.1791
38473W        W81385  26.800  26.001   9.443 -0.0607 -0.3009  0.0487
38474W        W81386  25.707  26.160   9.155 -0.1928  0.2943 -0.1361
38475W        W81387  26.740  26.177   7.151  0.1365  0.1861 -0.1797
38476W        W81388  28.393  27.606   7.616  0.0391 -0.2969 -0.3659
38477W        W81389  25.666  25.977   8.466  0.0486 -0.3382  0.0990
38478W        W81390  26.471  26.844   9.504  0.3543  0.2398  0.1786
38479W        W81391  27.013  24.486   9.032  0.0226  0.2469  0.3799
38480W        W81392  26.977  27.145   6.557 -0.3449  0.2218 -0.0393
38481W        W81393  27.073  28.015   7.363 -0.2864  0.0110 -0.1408
38482W        W81394  25.016  27.588   8.629  0.2323  0.0044 -0.0843
38483W        W81395  26.408  27.845   8.817  0.5510  0.0651  0.0188
38484W        W81396  25.724  27.889   9.106  0.0432 -0.2339 -0.1345
38485W        W81397  26.035  25.369   8.478  0.0911  0.2035  0.0853
38486W        W81398  27.807  24.951   9.023  0.1353 -0.5214 -0.2382
38487W        W81399  28.279  25.108   8.728 -0.0662  0.0881  0.2406
38488W        W81400  25.767  27.074   8.834  0.2463 -0.2361  0.0535
38489W        W81401  29.445  26.281   8.085 -0.1023 -0.1037 -0.0499
38490W        W81402  26.148  26.638   9.840 -0.1255 -0.1179 -0.0672
38491W        W81403  23.966  28.137   9.149  0.1643 -0.0157 -0.1881
38492W        W81404  26.342  27.448   7.359 -0.0033 -0.0207 -0.1092
38493W        W81405  26.381  26.359   6.614 -0.4308  0.0628  0.1738
38494W        W81406  26.899  26.274   8.203  0.3815  0.0320  0.2240
38495W        W81407  28.506  25.709   7.130  0.1947 -0.2143  0.3349
38496W        W81408  24.256  27.606   7.277 -0.1135  0.0532 -0.1063
38497W        W81409  26.856  26.653   9.783 -0.1499 -0.1663  0.0841
38498W        W81410  26.562  24.570   9.200 -0.3153 -0.0283 -0.0360
38499W        W81411  28.856  27.888   7.543 -0.1931 -0.0978  0.0187
38500W        W81412  27.126  25.394   9.292 -0.0400  0.2554 -0.2040
38501W        W81413  26.533  28.425   7.232  0.0994 -0.1132 -0.0815
38502W        W81414  28.066  26.739   8.505  0.0913 -0.0004  0.2509
38503W        W81415  28.539  27.926   8.130  0.1573 -0.2502  0.2451
38504W        W81416  24.823  24.495   9.335 -0.0925  0.2767 -0.4804
38505W        W81417  27.996  27.444   9.741  0.0260  0.0465  0.0356
38506W        W81418  28.984  28.469  10.056 -0.1083  0.1093  0.1840
38507W        W81419  26.393  25.312   8.085 -0.0434 -0.0316 -0.0242
38508W        W81420  25.114  26.698   8.422  0.0574 -0.3860 -0.0163
38509W        W81421  24.512  28.103   9.257  0.0545 -0.1935 -0.1685
38510W        W81422  30.372  24.025   9.097  0.1331  0.0192 -0.0686
38511W        W81423  26.600  28.911   7.209  0.3159 -0.1244 -0.2391
38512W        W81424  24.819  27.159   9.942 -0.2643  0.0250 -0.0960
38513W        W81425  25.323  27.179   7.388 -0.0075 -0.0591 -0.1489
38514W        W81426  27.026  27.727   7.927  0.1469 -0.1205 -0.2102
38515W        W81427  25.176  29.146   7.737 -0.2302  0.2872 -0.0296
38516W        W81428  28.188  27.718   8.523 -0.2131  0.0395 -0.3477
38517W        W81429  27.250  26.171   8.604  0.3212 -0.1710  0.0328
38518W        W81430  27.698  29.567   7.830 -0.1583  0.2013  0.0857
38519W        W81431  25.972  25.075   7.897 -0.2297  0.0411 -0.0540
38520W        W81432  29.136  24.630   7.677 -0.2279 -0.1422  0.0142
38521W        W81433  27.928  24.839   8.044 -0.3788 -0.1429 -0.1483
38522W        W81434  27.253  27.142   8.079 -0.1538  0.2557 -0.0354
38523W        W81435  24.787  25.897   7.790  0.0260  0.0893 -0.1921
38524W        W81436  24.257  26.078   7.709  0.0969  0.1582 -0.3803
38525W        W81437  25.229  28.355   9.231 -0.0747 -0.2771 -0.1637
38526W        W81438  25.903  26.921   9.488  0.0120 -0.2235 -0.0135
38527W        W81439  25.159  25.145   7.330 -0.2106 -0.2165 -0.1085
38528W        W81440  25.899  27.604   7.453 -0.2955 -0.2623 -0.0768
38529W        W81441  25.364  25.856   8.868  0.4060 -0.0748 -0.1049
38530W        W81442  24.649  25.447  10.244 -0.3247 -0.2304  0.0607
38531W        W81443  27.592  27.918   7.094 -0.2138  0.1135 -0.0381
38532W        W81444  27.679  27.534   8.885  0.0713  0.0380  0.1878
38533W        W81445  26.482  26.154   8.481  0.1863  0.0328 -0.2935
38534W        W81446  24.722  28.402   7.594 -0.0760  0.2707  0.0418
38535W        W81447  25.186  23.304   7.848  0.2838  0.1289  0.1411
38536W        W81448  25.354  26.640  10.657  0.0312 -0.0331 -0.1799
38537W        W81449  27.540  27.536   8.028 -0.0425  0.1223 -0.1824
38538W        W81450  28.330  29.403   7.913  0.1472  0.0028  0.1825
38539W        W81451  24.782  26.836   9.505 -0.5787  0.1848 -0.2030
38540W        W81452  26.453  26.908   7.831 -0.0577 -0.0377 -0.0345
38541W        W81453  27.681  26.838   8.195  0.0922 -0.2769  0.2952
38542W        W81454  28.346  25.425  10.166  0.1069 -0.2481 -0.0737
38543W        W81455  27.127  26.158   7.748  0.2125 -0.0577 -0.1796
38544W        W81456  26.024  27.499   9.451 -0.2213 -0.2254  0.2244
38545W        W81457  26.137  24.618   9.903  0.0274 -0.2377  0.2042
38546W        W81458  27.519  25.358   8.830 -0.0628 -0.0213 -0.3321
38547W        W81459  26.795  27.602   7.512  0.0007  0.0771 -0.1126
38548W        W81460  24.940  26.782   8.922 -0.0622 -0.0325  0.0645
38549W        W81461  25.888  26.453   8.350 -0.2092 -0.1041  0.0853
38550W        W81462  27.290  27.474   7.591 -0.1552  0.0748  0.0783
38551W        W81463  25.073  26.353   7.792  0.1573 -0.3745 -0.0632
38552W        W81464  29.230  27.143   6.665 -0.1302 -0.1709  0.0073
38553W        W81465  27.210  28.683   9.503  0.2411  0.1165 -0.1950
38554W        W81466  25.554  27.204  10.640  0.2368 -0.0491  0.3501
38555W        W81467  28.056  25.796   9.246 -0.0223  0.0582 -0.2085
38556W        W81468  26.724  23.723   9.483 -0.1073 -0.2141 -0.0804
38557W        W81469  24.935  27.293  10.577  0.0155 -0.1605  0.1479
38558W        W81470  26.836  27.234   7.857  0.0626  0.3172  0.2685
38559W        W81471  26.972  24.658   9.527  0.2221  0.2222 -0.0835
38560W        W81472  25.331  27.011   9.252 -0.2555  0.5370  0.3462
38561W        W81473  27.639  25.413   7.246 -0.2228 -0.0648 -0.1858
38562W        W81474  25.281  26.950   9.794  0.4254 -0.2025 -0.1924
38563W        W81475  29.632  25.545   9.706  0.1535 -0.1030  0.3158
38564W        W81476  26.478  32.538   4.204  0.2013  0.5408 -0.1213
38565W        W81477  26.102  30.111   2.042  0.0905  0.4333 -0.0992
38566W        W81478  26.741  30.898   0.881  0.2602 -0.2956  0.0399
38567W        W81479  28.245  31.609   0.059  0.4638  0.0070 -0.1513
38568W        W81480  24.961  28.972   1.132  0.4333 -0.2906  0.4311
38569W        W81481  27.578  33.532   0.279 -0.0426 -0.0113  0.1622
38570W        W81482  26.685  30.607   2.490 -0.1534  0.1139 -0.3009
38571W        W81483  27.753  30.747  31.876 -0.2728 -0.0139  0.2380
38572W        W81484  28.574  32.367   3.016 -0.1079 -0.1782 -0.0715
38573W        W81485  29.389  32.874  30.553 -0.1267  0.1927  0.2227
38574W        W81486  26.669  29.969   3.319  0.0242 -0.3647  0.0246
38575W        W81487  26.886  32.711   3.296  0.3166 -0.0944  0.1560
38576W        W81488  25.014  29.602   0.660 -0.2336 -0.2342  0.0896
38577W        W81489  26.392  29.759   0.272  0.0520  0.1843 -0.0952
38578W        W81490  27.529  31.645   3.472  0.4416  0.2074  0.2215
38579W        W81491  25.676  29.895   1.929 -0.1276  0.2207 -0.1810
38580W        W81492  26.888  29.793   2.108  0.1844 -0.3458  0.2215
38581W        W81493  26.269  31.318  31.080 -0.1409  0.2168  0.3045
38582W        W81494  26.796  32.752   0.808 -0.2979 -0.4399  0.0508
38583W        W81495  26.553  30.213   2.163 -0.1225 -0.3023 -0.1649
38584W        W81496  27.142  30.393   3.823 -0.0487 -0.0184 -0.0092
38585W        W81497  27.773  32.894   0.909  0.2830  0.0497  0.2692
38586W        W81498  26.150  32.298  31.265  0.0831  0.0369  0.0608
38587W        W81499  25.833  31.838   2.559 -0.1537 -0.1093 -0.1950
38588W        W81500  27.780  30.394   2.756 -0.0093  0.1744  0.0009
38589W        W81501  28.519  30.558   3.541 -0.1149  0.1202  0.1730
38590W        W81502  28.610  31.977   0.123 -0.2107 -0.0873  0.0034
38591W        W81503  27.331  32.217   1.683  0.1023  0.0572 -0.0680
38592W        W81504  28.790  31.184   1.621  0.2348 -0.0202  0.1447
38593W        W81505  27.936  29.603   3.228  0.1924  0.1485  0.2026
38594W        W81506  25.748  31.902   0.939 -0.0482  0.0332  0.1078
38595W        W81507  24.975  31.825   2.081  0.0014 -0.3621  0.0512
38596W        W81508  27.311  32.567   0.268 -0.2430 -0.3049  0.2115
38597W        W81509  29.240  32.174   2.752  0.1062 -0.2671 -0.0089
38598W        W81510  28.096  31.528   3.634  0.2702  0.0896  0.0575
38599W        W81511  26.613  33.484   4.118 -0.2565  0.1381 -0.0876
38600W        W81512  25.909  31.982  30.853 -0.2833 -0.0648  0.2909
38601W        W81513  26.708  33.559   3.449 -0.0131  0.2547  0.1099
38602W        W81514  26.412  33.104   3.298  0.2499 -0.3561 -0.0208
38603W        W81515  27.062  30.701   2.791  0.0223  0.1810  0.4629
38604W        W81516  26.627  30.599   1.917  0.0367 -0.0776 -0.1240
38605W        W81517  26.584  33.662  31.799 -0.1728 -0.0748  0.2160
38606W        W81518  27.989  32.594   2.317 -0.3529 -0.0850 -0.0954
38607W        W81519  28.032  30.755   3.504  0.0697 -0.1800  0.1148
38608W        W81520  24.825  32.114   1.142  0.0384 -0.1618  0.0818
38609W        W81521  28.544  29.392   5.001  0.0110  0.3903  0.0638
38610W        W81522  25.862  33.631  30.714 -0.0019 -0.0457  0.2688
38611W        W81523  27.645  29.813   1.388 -0.2394 -0.3201  0.0088
38612W        W81524  26.528  30.387   0.948 -0.3252 -0.2289 -0.2104
38613W        W81525  28.621  30.276  31.754  0.1573 -0.1760 -0.2523
38614W        W81526  27.083  29.615   2.543 -0.0159 -0.0670 -0.2667
38615W        W81527  27.149  32.822   2.239  0.2143  0.3870  0.2528
38616W        W81528  25.514  29.456   2.120 -0.3376 -0.3244 -0.0670
38617W        W81529  26.725  30.693   3.743 -0.2657 -0.1488  0.0492
38618W        W81530  27.278  31.290   0.271  0.3648  0.0342 -0.2924
38619W        W81531  26.842  30.459  31.699 -0.0632 -0.0608  0.0582
38620W        W81532  24.879  32.569   3.282 -0.0628 -0.1524  0.1887
38621W        W81533  25.896  31.135   2.253  0.0555 -0.1680 -0.2080
38622W        W81534  28.899  33.026   0.587 -0.0769 -0.0525  0.2273
38623W        W81535  28.590  32.030   2.118 -0.0406  0.0302  0.0457
38624W        W81536  27.340  33.756   1.850 -0.1213  0.1867  0.0818
38625W        W81537  25.685  29.457   1.574 -0.2826  0.2789  0.0181
38626W        W81538  25.587  32.711   3.685  0.0319 -0.0384  0.1420
38627W        W81539  25.608  30.940   3.507 -0.3274  0.3033 -0.0971
38628W        W81540  26.673  28.516   0.324  0.3600 -0.2595  0.1198
38629W        W81541  28.619  31.935   3.313  0.1661  0.2098  0.0663
38630W        W81542  25.542  32.532   4.692  0.1301 -0.0265  0.5406
38631W        W81543  28.910  30.853   1.224  0.1445 -0.0087  0.1299
38632W        W81544  27.523  31.249   2.478  0.1896 -0.2838 -0.1679
38633W        W81545  28.204  33.104   3.625  0.1670 -0.1081 -0.2291
38634W        W81546  28.747  31.620  31.793  0.1171  0.0596  0.1624
38635W        W81547  28.474  30.482   1.088  0.1750  0.0686 -0.2504
38636W        W81548  27.314  30.219   0.897  0.3462  0.0445  0.0012
38637W        W81549  25.216  33.062   0.078  0.2186 -0.1531  0.0666
38638W        W81550  26.224  31.937   0.787 -0.0168 -0.1342  0.0161
38639W        W81551  28.089  32.644   3.889 -0.0744 -0.3872 -0.0225
38640W        W81552  29.050  31.505  30.893  0.1772  0.1888 -0.0268
38641W        W81553  25.400  32.086   2.187  0.0313  0.0227 -0.2269
38642W        W81554  26.170  30.625   3.921  0.0141  0.3907 -0.0473
38643W        W81555  26.856  31.402   4.812  0.0435 -0.0081 -0.4173
38644W        W81556  25.811  33.602   0.540 -0.1615  0.4740 -0.1759
38645W        W81557  25.939  32.193   2.183  0.0848  0.1960  0.3729
38646W        W81558  25.121  32.189   0.595  0.3061  0.2154 -0.1326
38647W        W81559  25.088  29.208   2.405  0.4569 -0.1731  0.1491
38648W        W81560  26.419  32.424   2.027 -0.2927  0.0904  0.0671
38649W        W81561  28.249  31.405   0.712 -0.0865  0.0729  0.2220
38650W        W81562  25.150  29.824   1.862 -0.0415  0.0562 -0.0829
38651W        W81563  27.996  30.594   0.919 -0.3634 -0.2220  0.2415
38652W        W81564  26.264  32.480   0.820  0.1872 -0.0239  0.0887
38653W        W81565  29.433  32.958   2.202 -0.2390 -0.0298 -0.0278
38654W        W81566  27.814  31.354   0.191  0.0974  0.1313 -0.0823
38655W        W81567  28.214  34.193   0.393  0.2553  0.0547 -0.2144
38656W        W81568  26.355  31.470   1.552 -0.0869  0.3504  0.0279
38657W        W81569  25.127  29.882   2.824  0.1813 -0.1512 -0.0755
38658W        W81570  25.828  28.881   3.561 -0.0426 -0.2359  0.0415
38659W        W81571  24.923  30.323   2.397  0.1191 -0.0479  0.0526
38660W        W81572  28.387  31.394   1.292 -0.4042 -0.0535 -0.2244
38661W        W81573  23.795  29.291   0.346 -0.2483  0.0431  0.0032
38662W        W81574  28.744  31.035   2.258 -0.3073 -0.2281  0.0057
38663W        W81575  25.469  32.608   0.429 -0.1149 -0.2236  0.1325
38664W        W81576  24.551  31.696   1.181  0.1325  0.0151 -0.2012
38665W        W81577  27.942  29.478   4.326 -0.2791  0.0770  0.3002
38666W        W81578  30.195  32.769   5.929 -0.0007 -0.1561 -0.1537
38667W        W81579  29.374  33.456   1.832  0.0429  0.2110 -0.0693
38668W        W81580  25.152  31.045   2.338 -0.3097 -0.0224  0.0256
38669W        W81581  25.982  29.575   0.888  0.0222  0.0383 -0.1991
38670W        W81582  26.415  33.759   1.405  0.0666  0.0014  0.1850
38671W        W81583  26.991  31.911   0.818 -0.2875 -0.1662  0.2816
38672W        W81584  25.975  30.636  31.576 -0.0062 -0.1748 -0.1278
38673W        W81585  28.946  32.620   2.885  0.0939  0.2379  0.0248
38674W        W81586  26.454  31.310  31.592 -0.0097 -0.3371 -0.2305
38675W        W81587  25.671  31.599   2.173 -0.0989 -0.1527  0.1638
38676W        W81588  26.690  30.214   4.002  0.0602 -0.0622  0.0976
38677W        W81589  27.969  31.578   1.500  0.0299 -0.2333 -0.0840
38678W        W81590  26.537  31.693   0.465  0.2569 -0.0985 -0.2257
38679W        W81591  25.522  29.089  30.194 -0.1099  0.1810  0.0910
38680W        W81592  28.493  33.180   0.898 -0.0406  0.1085  0.4146
38681W        W81593  26.056  32.609   0.263 -0.0303 -0.0568 -0.2320
38682W        W81594  24.603  30.806   2.322  0.2000  0.0998 -0.0022
38683W        W81595  28.408  33.257   2.439  0.3744 -0.0172  0.1751
38684W        W81596  27.867  29.628   2.161  0.2474  0.0386  0.1218
38685W        W81597  25.655  32.083   3.246  0.0157 -0.0513 -0.0779
38686W        W81598  26.982  29.518   3.352 -0.1229  0.1303 -0.0560
38687W        W81599  24.403  29.651   1.368 -0.1361 -0.2805  0.0984
38688W        W81600  26.013  32.795   4.358 -0.0916 -0.1281  0.0665
38689W        W81601  27.528  29.834  31.859 -0.0836  0.0306 -0.0077
38690W        W81602  27.728  30.344   0.585 -0.1250  0.1604  0.0390
38691W        W81603  26.846  31.315   4.322 -0.1454 -0.0034 -0.1375
38692W        W81604  26.573  31.754  31.908 -0.2896  0.2072 -0.2786
38693W        W81605  27.547  30.182  31.399  0.1871  0.1468  0.2546
38694W        W81606  27.137  30.598   1.194  0.2539  0.1994  0.1015
38695W        W81607  25.579  32.621   4.219  0.2201  0.0952  0.2246
38696W        W81608  27.584  32.899   2.441  0.2062 -0.0861  0.0644
38697W        W81609  26.394  32.602   2.999  0.0244 -0.1569  0.0788
38698W        W81610  25.899  30.108   0.194  0.0797  0.0031  0.4712
38699W        W81611  28.890  32.011   0.595 -0.1242  0.0548  0.1401
38700W        W81612  25.570  30.775   2.390 -0.1168  0.2558 -0.1379
38701W        W81613  28.110  31.325   3.120  0.1487 -0.1801 -0.0282
38702W        W81614  28.035  32.271   2.772 -0.1299  0.4126 -0.1008
38703W        W81615  27.394  30.063   2.503  0.2433  0.0643  0.0231
38704W        W81616  26.893  30.248   0.652  0.0827 -0.0259  0.2597
38705W        W81617  27.052  30.330   2.175  0.1769  0.3579  0.0815
38706W        W81618  25.993  32.617  31.713  0.0542 -0.2687  0.2310
38707W        W81619  27.148  30.045   3.443  0.0296 -0.0857  0.0581
38708W        W81620  27.349  31.672   2.368  0.0052  0.0414 -0.1886
38709W        W81621  27.911  29.107   3.393 -0.2899  0.0429 -0.0946
38710W        W81622  28.274  31.047   2.622  0.0448 -0.2161  0.0611
38711W        W81623  28.376  31.087  31.300 -0.0848 -0.3034  0.3567
38712W        W81624  26.740  31.564   1.838 -0.0506 -0.1526  0.2605
38713W        W81625  24.696  31.914  31.443  0.0257  0.0144 -0.0999
38714W        W81626  26.383  29.174   4.075 -0.1515  0.0130  0.0117
38715W        W81627  26.646  31.050   2.711  0.3734  0.0448 -0.0455
38716W        W81628  25.339  33.573   3.090  0.0488 -0.2325 -0.0289
38717W        W81629  28.098  32.626   4.415 -0.0537  0.1765 -0.1314
38718W        W81630  27.494  31.744  31.917 -0.0950  0.0735  0.2263
38719W        W81631  26.737  30.368   2.939  0.1538  0.1756 -0.2211
38720W        W81632  26.491  31.430   0.931 -0.1832  0.2389 -0.0207
38721W        W81633  26.031  31.805   0.219  0.0218 -0.2507  0.1780
38722W        W81634  26.980  32.256   0.043 -0.0245 -0.3769 -0.3224
38723W        W81635  25.754  29.044   2.356 -0.0867 -0.1730 -0.0235
38724W        W81636  26.243  30.611   2.252 -0.1063  0.1360 -0.0923
38725W        W81637  27.019  31.709   0.270 -0.1075 -0.0883 -0.2630
38726W        W81638  28.247  32.801   2.698 -0.1243  0.2175 -0.2408
38727W        W81639  27.241  32.078   1.201 -0.0533  0.0512  0.1395
38728W        W81640  28.405  29.717   3.424 -0.3844  0.1084 -0.0576
38729W        W81641  25.173  32.867   2.332 -0.0400  0.0166 -0.2335
38730W        W81642  26.617  30.880  31.891  0.1790  0.2486 -0.1971
38731W        W81643  26.122  31.502   0.639 -0.0702 -0.0269  0.1001
38732W        W81644  26.854  31.050   0.410 -0.1455 -0.0262  0.0527
38733W        W81645  29.148  31.835   0.126  0.0280  0.4788 -0.0556
38734W        W81646  26.543  29.417   1.895 -0.0916 -0.2995  0.1094
38735W        W81647  27.441  30.610   2.432  0.0725  0.0026  0.2804
38736W        W81648  25.408  32.497   3.186  0.1383 -0.0184 -0.0453
38737W        W81649  28.001  31.812   3.270  0.2072 -0.1557  0.3414
38738W        W81650  28.084  30.628   0.230 -0.1285  0.0184 -0.4518
38739W        W81651  26.811  32.735   3.915 -0.0753 -0.2291  0.1449
38740W        W81652  26.257  30.874   3.486 -0.1396  0.0429  0.1336
38741W        W81653  25.870  30.502   0.630  0.0380  0.0622 -0.1678
38742W        W81654  27.253  30.151   1.570  0.1143 -0.2066 -0.1464
38743W        W81655  26.793  30.176   1.690  0.1838 -0.0148 -0.2295
38744W        W81656  25.603  32.414   0.964 -0.1890  0.4345 -0.1009
38745W        W81657  28.300  31.739   2.868 -0.2304 -0.0421 -0.1533
38746W        W81658  25.535  31.392   0.375 -0.0945  0.2897  0.0123
38747W        W81659  25.623  30.892   0.388 -0.3151 -0.2781  0.0958
38748W        W81660  26.454  32.077   3.322  0.0920  0.2066  0.1364
38749W        W81661  28.648  31.364   3.304 -0.0586  0.1126 -0.2926
38750W        W81662  26.433  29.952   1.268  0.1295 -0.0518 -0.1608
38751W        W81663  25.796  30.917   1.441  0.2930 -0.0454  0.2753
38752W        W81664  26.502  29.268   2.817 -0.3482  0.0303 -0.1242
38753W        W81665  27.600  31.422   1.996  0.0961 -0.1237 -0.1263
38754W        W81666  27.379  30.842   3.124  0.2744 -0.0297  0.0388
38755W        W81667  26.573  31.734   5.111 -0.0615 -0.1284 -0.1273
38756W        W81668  27.031  28.486   3.979  0.1528  0.0173 -0.0702
38757W        W81669  28.172  32.838   1.589 -0.0251  0.1436 -0.3289
38758W        W81670  27.919  30.078   1.813  0.3550  0.1328 -0.0081
38759W        W81671  25.836  31.350   1.643  0.0954 -0.1177 -0.0243
38760W        W81672  25.813  30.918   3.062 -0.1321 -0.3875 -0.1445
38761W        W81673  26.007  32.799   1.156  0.2801 -0.1698  0.1958
38762W        W81674  27.538  30.926   2.085 -0.2640 -0.0564 -0.0945
38763W        W81675  27.485  32.033   2.890  0.0038  0.0461 -0.0831
38764W        W81676  26.771  33.118   0.431 -0.1143 -0.0436  0.2040
38765W        W81677  26.105  32.473   1.627  0.1189 -0.0765 -0.0885
38766W        W81678  29.178  29.152   1.124 -0.1465 -0.0794 -0.1443
38767W        W81679  27.382  33.059   0.048  0.0227  0.0408 -0.0108
38768W        W81680  25.505  30.998   1.919  0.5992 -0.0228 -0.0853
38769W        W81681  27.524  30.549   3.532 -0.0206  0.3757 -0.1568
38770W        W81682  28.798  31.004  30.964 -0.0540 -0.1572  0.0300
38771W        W81683  27.496  30.636   4.055  0.1097  0.0093 -0.2209
38772W        W81684  26.802  30.103   2.565 -0.2513  0.0353  0.2710
38773W        W81685  27.050  32.525   1.330 -0.1847 -0.1871 -0.1649
38774W        W81686  25.404  29.842   3.634 -0.3686 -0.2754 -0.0960
38775W        W81687  27.378  33.862   4.584 -0.0082 -0.3927 -0.1862
38776W        W81688  26.767  32.490   2.437 -0.1303 -0.0088  0.0826
38777W        W81689  26.191  30.389   1.670  0.0396 -0.1179  0.2295
38778W        W81690  25.942  29.547   0.327  0.1813 -0.1379 -0.1316
38779W        W81691  26.979  31.990   2.586 -0.2920 -0.0696 -0.0943
38780W        W81692  27.274  32.991   3.503  0.0240  0.0699  0.1743
38781W        W81693  28.111  32.358   0.889 -0.0096 -0.0376  0.0044
38782W        W81694  29.694  29.836   1.917 -0.2203 -0.2335 -0.0431
38783W        W81695  27.600  32.613   3.655  0.0378 -0.0335 -0.2902
38784W        W81696  27.817  29.707  31.456 -0.0841 -0.3884 -0.2843
38785W        W81697  28.134  32.859   0.031  0.0864 -0.1455  0.3938
38786W        W81698  27.298  32.751   1.685  0.1034 -0.0657  0.2605
38787W        W81699  25.908  29.577   2.396 -0.3073 -0.1150 -0.2948
38788W        W81700  27.786  31.446   0.930  0.1046  0.1351 -0.0732
38789W        W81701  27.357  29.557   1.664  0.0115  0.2387 -0.1137
38790W        W81702  27.656  29.985   2.953 -0.2100  0.0396  0.0554
38791W        W81703  27.217  30.996   3.790 -0.3113  0.2831  0.0864
38792W        W81704  26.697  31.678   2.904  0.1538  0.0487 -0.0806
38793W        W81705  26.516  28.363   4.101  0.1272 -0.1184  0.2509
38794W        W81706  27.584  32.602   4.155 -0.2144  0.0601  0.1309
38795W        W81707  28.921  32.040  30.952 -0.2015 -0.0118  0.3091
38796W        W81708  28.936  30.285   1.390 -0.1351 -0.0198 -0.2016
38797W        W81709  28.223  31.983   1.740 -0.3706  0.0123 -0.0629
38798W        W81710  28.357  31.076   0.242 -0.0317 -0.2403 -0.1475
38799W        W81711  26.205  31.252   2.941 -0.1462  0.5419  0.0244
38800W        W81712  27.267  32.087   3.359 -0.0344 -0.1094 -0.3210
38801W        W81713  26.107  30.621   0.160  0.2024  0.0306 -0.1752
38802W        W81714  28.479  30.890   3.129  0.1789  0.2035  0.0012
38803W        W81715  27.953  32.099  31.883 -0.0930 -0.0799 -0.0230
38804W        W81716  28.235  32.830   1.126 -0.1687 -0.1344 -0.1296
38805W        W81717  27.660  32.008   0.948  0.0632 -0.2043 -0.0886
38806W        W81718  24.383  30.362   2.491  0.0361 -0.0533  0.1210
38807W        W81719  26.816  31.458   1.343 -0.0400  0.0803 -0.2675
38808W        W81720  25.154  30.764   0.177 -0.5678 -0.1074  0.0583
38809W        W81721  27.281  31.522   1.073  0.0169  0.0259  0.2344
38810W        W81722  27.127  32.756   4.335  0.2210 -0.1397  0.1669
38811W        W81723  28.529  32.664   4.171  0.1098  0.4402  0.4190
38812W        W81724  26.911  30.078   1.170  0.2109 -0.1857 -0.0605
38813W        W81725  28.532  30.063   2.604  0.0097  0.1306 -0.3160
38814W        W81726  24.466  32.789   0.411  0.1111 -0.1793  0.0884
38815W        W81727  26.418  29.862   1.750 -0.3051  0.2919  0.2937
38816W        W81728  27.791  32.304   3.250 -0.0901 -0.0058  0.0401
38817W        W81729  26.460  31.442   3.359  0.1972 -0.1538  0.0957
38818W        W81730  26.352  32.972   0.695 -0.0544  0.0603  0.2067
38819W        W81731  28.012  30.040   2.429 -0.1214  0.0890 -0.2479
38820W        W81732  26.677  31.058   1.690  0.0456  0.0325 -0.0722
38821W        W81733  27.220  30.694   0.731 -0.0093 -0.1446 -0.1344
38822W        W81734  27.744  32.095   3.722 -0.1037  0.0919 -0.0872
38823W        W81735  26.486  31.680   3.819  0.0878 -0.3477 -0.0184
38824W        W81736  26.900  31.380   2.399 -0.1881 -0.0695 -0.2502
38825W        W81737  27.999  33.070   4.212 -0.0880  0.0261  0.0847
38826W        W81738  28.647  31.660   0.891  0.0608  0.2704  0.0793
38827W        W81739  26.433  31.918   1.724 -0.1173 -0.0674 -0.1048
38828W        W81740  25.892  29.687   3.341  0.1250  0.1236  0.2149
38829W        W81741  26.861  31.764   3.527 -0.3201 -0.0200 -0.0483
38830W        W81742  27.167  31.076   1.205 -0.4044 -0.5100 -0.1195
38831W        W81743  26.009  30.087   0.834 -0.0046 -0.1390 -0.2173
38832W        W81744  26.579  32.615   0.358 -0.0084  0.2162  0.1295
38833W        W81745  25.171  32.476   3.648 -0.0684  0.5285  0.2823
38834W        W81746  26.459  31.969   2.229 -0.0361  0.2110  0.3312
38835W        W81747  26.765  33.682   0.477  0.0250 -0.1715  0.1977
38836W        W81748  28.454  33.327   1.364  0.2808  0.0281 -0.2502
38837W        W81749  27.838  32.969   0.426  0.0214  0.3479  0.1890
38838W        W81750  27.417  32.982   2.948 -0.0059 -0.1707  0.0374
38839W        W81751  25.210  29.956   0.959 -0.0931  0.0117  0.1389
38840W        W81752  27.778  32.011   1.440 -0.0639  0.3708 -0.0514
38841W        W81753  25.792  33.257   1.020 -0.1001  0.2227 -0.1776
38842W        W81754  29.129  32.541   0.830  0.3412 -0.0703 -0.2788
38843W        W81755  25.608  32.177   1.394  0.0407 -0.1588  0.3838
38844W        W81756  28.190  32.197   3.630 -0.1330  0.0510  0.3719
38845W        W81757  27.011  29.209  31.774  0.0221  0.0489  0.0971
38846W        W81758  28.061  32.071   2.228 -0.0780 -0.1767 -0.2025
38847W        W81759  28.244  29.797   0.850  0.0623  0.2030 -0.0964
38848W        W81760  28.569  32.668   4.671  0.0998  0.2524  0.1044
38849W        W81761  27.010  30.908   2.189  0.1085 -0.1949  0.0208
38850W        W81762  26.269  31.012   1.373 -0.0660 -0.2206 -0.0514
38851W        W81763  25.959  31.293   3.349  0.2440 -0.0901 -0.2305
38852W        W81764  29.107  30.397   3.748 -0.0448 -0.1900  0.0560
38853W        W81765  23.765  33.130   3.145 -0.1445 -0.0831 -0.0215
38854W        W81766  28.701  33.412   0.285  0.2384  0.0483  0.1370
38855W        W81767  25.049  30.485   1.088  0.2167  0.0707 -0.0179
38856W        W81768  25.225  31.424   1.954  0.3080  0.1854 -0.0218
38857W        W81769  28.412  30.897   1.427 -0.0913  0.2112  0.1345
38858W        W81770  26.085  32.208   1.203 -0.2633  0.0898 -0.1004
38859W        W81771  27.556  31.293   1.363 -0.3036  0.2611  0.1318
38860W        W81772  24.999  32.894   0.541 -0.1306  0.1363 -0.1971
38861W        W81773  26.145  32.648   2.505  0.1295  0.1452 -0.0069
38862W        W81774  27.923  33.186   2.859 -0.2900 -0.1355  0.0769
38863W        W81775  25.424  31.180  30.930 -0.0119  0.0653  0.0798
38864W        W81776  28.352  31.460   1.810  0.2513  0.1946 -0.0427
38865W        W81777  26.962  30.728   4.177 -0.1225  0.3516 -0.1157
38866W        W81778  27.431  29.614   3.599 -0.1726 -0.3102 -0.0222
38867W        W81779  25.605  31.717   1.357  0.1884 -0.1341 -0.1883
38868W        W81780  27.424  31.143   0.732  0.1089 -0.0999  0.1426
38869W        W81781  26.756  31.238   3.718 -0.0054 -0.1902 -0.3382
38870W        W81782  26.404  29.455   3.225  0.1973 -0.1531 -0.2882
38871W        W81783  26.101  30.572  31.045  0.1960 -0.0599 -0.1309
38872W        W81784  27.715  31.558   2.921 -0.2299 -0.0790 -0.1055
38873W        W81785  28.168  30.320  30.632 -0.0460  0.1011 -0.2472
38874W        W81786  27.072  34.379   2.871 -0.1903 -0.1106  0.0181
38875W        W81787  26.094  30.512   1.206 -0.2617 -0.1083 -0.0152
38876W        W81788  27.329  30.702  31.554 -0.0475  0.1632  0.0535
38877W        W81789  25.594  30.329   1.499  0.1603  0.1504  0.0717
38878W        W81790  28.364  30.331   4.843 -0.2732 -0.2138  0.4067
38879W        W81791  28.238  32.336   5.081 -0.1588  0.0778  0.0735
38880W        W81792  26.052  29.600   1.833  0.1584  0.0230  0.0554
38881W        W81793  28.107  32.080  31.377 -0.0766  0.2979 -0.2265
38882W        W81794  28.063  31.057   1.103 -0.1941  0.3456 -0.0037
38883W        W81795  26.554  32.874  31.475 -0.0264 -0.1822 -0.0012
38884W        W81796  28.255  31.882   1.172  0.2353  0.3640 -0.1244
38885W        W81797  28.957  33.053   2.100 -0.0363  0.2074 -0.3914
38886W        W81798  26.106  29.293   3.607 -0.2202  0.0155  0.0559
38887W        W81799  27.735  33.096   3.792 -0.0214  0.0391  0.1663
38888W        W81800  28.824  31.903   2.902 -0.2171  0.1598 -0.2261
38889W        W81801  27.238  29.091   1.966 -0.0720  0.0813  0.0617
38890W        W81802  26.642  30.654   1.363 -0.0540  0.2075  0.0354
38891W        W81803  25.053  32.537   0.955 -0.1463  0.1971  0.1762
38892W        W81804  27.615  30.797   1.105 -0.0896 -0.0875 -0.2484
38893W        W81805  28.523  30.323   3.076 -0.1289 -0.3010  0.4131
38894W        W81806  25.017   0.214  31.174  0.0622 -0.0873 -0.0715
38895W        W81807  27.451  29.002   3.816 -0.3383 -0.2796  0.0106
38896W        W81808  27.609  33.358   4.331 -0.0236 -0.1695  0.1084
38897W        W81809  25.902  33.114   2.473  0.0325  0.0292 -0.2374
38898W        W81810  25.603  30.296   0.996  0.2213 -0.1002 -0.1237
38899W        W81811  26.721  32.150   3.821 -0.1450 -0.0961  0.0689
38900W        W81812  27.676  32.528   0.613  0.1011  0.2588 -0.2098
38901W        W81813  26.462  32.800   1.195  0.2465 -0.1007  0.0391
38902W        W81814  28.827  33.741   1.945 -0.1191  0.4357 -0.0632
38903W        W81815  26.462  28.949   1.678  0.1070  0.1998 -0.0290
38904W        W81816  28.853  31.644   1.858  0.0333 -0.1309  0.1519
38905W        W81817  27.120  28.451   2.513  0.1973  0.1128  0.0927
38906W        W81818  29.576  28.933   1.531  0.1077 -0.2992 -0.3077
38907W        W81819  28.663  32.673   0.912 -0.0167 -0.3013  0.1838
38908W        W81820  26.841  32.353   2.997  0.0595  0.2475  0.3640
38909W        W81821  24.698  31.266   1.473  0.0197  0.0440  0.1405
38910W        W81822  24.846  33.409  30.785  0.1023  0.0981  0.0699
38911W        W81823  26.281  31.509   2.000 -0.0601  0.1066 -0.0346
38912W        W81824  27.328  28.294   4.695  0.2494  0.2242  0.2701
38913W        W81825  26.229  30.126   4.238 -0.1303 -0.0335  0.1304
38914W        W81826  25.254  32.025   1.063 -0.0649  0.2815  0.0163
38915W        W81827  26.060  29.145   1.813 -0.0410  0.1059 -0.0785
38916W        W81828  27.646  32.508   1.300  0.1136 -0.0517  0.0243
38917W        W81829  24.697  30.488   1.911  0.1533 -0.1738  0.0943
38918W        W81830  26.243  29.504   1.357  0.1402  0.0438  0.2890
38919W        W81831  27.189  31.248   1.669  0.2233  0.0595 -0.0162
38920W        W81832  29.223  32.122   1.665 -0.1866 -0.0238  0.1898
38921W        W81833  26.384  30.736   0.569 -0.0539 -0.1559 -0.2356
38922W        W81834  29.915  32.480   3.382 -0.0622 -0.1122  0.1702
38923W        W81835  24.631  31.791  31.896  0.3483 -0.1757 -0.0370
38924W        W81836  27.293  30.315   2.987 -0.1432  0.2311 -0.0256
38925W        W81837  26.623  29.734   4.783 -0.2464 -0.1797 -0.0202
38926W        W81838  23.896  30.070  31.510  0.2485  0.0831 -0.2277
38927W        W81839  27.574  30.792   0.328  0.0908 -0.1469  0.0765
38928W        W81840  28.294  32.694   0.548 -0.0675  0.0432  0.2639
38929W        W81841  28.367  33.753   1.077 -0.0680  0.1120 -0.2031
38930W        W81842  26.425  32.092   2.780  0.1439 -0.0692  0.1325
38931W        W81843  26.759  34.035   3.461 -0.0054  0.2937  0.0833
38932W        W81844  24.348  28.540   4.182 -0.2750 -0.3150 -0.3640
38933W        W81845  27.409  31.701   1.609 -0.0050 -0.0297  0.3905
38934W        W81846  26.071  32.614   4.791  0.0627 -0.1156 -0.0798
38935W        W81847  30.241  32.969   1.640  0.1191  0.1889 -0.1651
38936W        W81848  28.277  30.515   2.680  0.2935  0.0920  0.1814
38937W        W81849  27.231  32.152   0.449 -0.1789  0.2096 -0.1918
38938W        W81850  26.289  29.774   3.741  0.4355 -0.0186  0.0256
38939W        W81851  25.972  32.285   2.850  0.1773  0.1096  0.0105
38940W        W81852  29.037  32.175   3.226 -0.0929  0.1626 -0.1398
38941W        W81853  26.291  28.954   1.121 -0.3172 -0.1167  0.1684
38942W        W81854  29.620  31.554   0.190 -0.0575  0.1234  0.0215
38943W        W81855  25.918  32.236   0.547 -0.3535 -0.0616 -0.1150
38944W        W81856  25.903  30.520   3.415 -0.2175 -0.1236 -0.0474
38945W        W81857  25.648  31.302   0.848  0.1632 -0.2230 -0.4036
38946W        W81858  28.032  31.186   2.210 -0.0756 -0.0914 -0.0689
38947W        W81859  27.643  31.967   2.013  0.3337  0.0985 -0.2666
38948W        W81860  28.012  32.184   4.131  0.0536  0.0725 -0.2637
38949W        W81861  26.045  31.535   1.214 -0.4251  0.2388 -0.0413
38950W        W81862  28.348  31.916   0.621  0.0757  0.1719 -0.0413
38951W        W81863  26.623  33.503   2.923 -0.2169 -0.2272 -0.0335
38952W        W81864  28.140  33.198   5.141 -0.2723 -0.0315  0.0265
38953W        W81865  27.369  32.555   3.210 -0.3312 -0.0587  0.1839
38954W        W81866  28.481  32.118   2.579  0.1014 -0.0361 -0.0037
38955W        W81867  25.099  28.745   2.993  0.1194  0.0621  0.4274
38956W        W81868  26.492  31.857   1.229  0.0843  0.0162 -0.2372
38957W        W81869  26.992  31.961   2.048 -0.0565 -0.0234 -0.0215
38958W        W81870  26.153  30.981   1.870 -0.0326 -0.0720  0.1983
38959W        W81871  26.659  29.493   3.776  0.1182  0.3066 -0.0750
38960W        W81872  27.447  29.970   0.363  0.1364 -0.1862  0.0904
38961W        W81873  26.701  33.020   4.457 -0.0326  0.4321 -0.0846
38962W        W81874  27.558  30.861   1.580  0.0790 -0.0297  0.2269
38963W        W81875  26.660  31.434   7.087 -0.0538  0.3814  0.0793
38964W        W81876  27.127  31.235   2.843  0.0357  0.3924 -0.2640
38965W        W81877  29.180  31.541   4.460  0.1342 -0.2494  0.2135
38966W        W81878  27.078  28.676   4.481  0.0312 -0.1807  0.0318
38967W        W81879  29.191  32.886   4.612  0.2207 -0.3627  0.0764
38968W        W81880  24.894  29.334   6.529  0.1306  0.0605  0.1437
38969W        W81881  28.308  30.096   5.885  0.1354  0.1266  0.2717
38970W        W81882  28.107  31.230   6.313 -0.0858  0.4542  0.0233
38971W        W81883  27.987  30.793   3.000  0.2744  0.1538 -0.3898
38972W        W81884  26.753  30.344   6.164 -0.1140  0.1377  0.0371
38973W        W81885  26.425  32.070   6.550  0.1105  0.1405  0.0741
38974W        W81886  27.423  30.476   5.497  0.0718 -0.2694 -0.0672
38975W        W81887  25.958  29.110   4.987  0.0792  0.1183  0.0090
38976W        W81888  27.387  31.046   5.455  0.1938  0.0704  0.0813
38977W        W81889  24.870  31.189   4.247 -0.0083 -0.1658 -0.1539
38978W        W81890  26.073  30.109   5.183 -0.1719 -0.0431 -0.3675
38979W        W81891  26.970  30.925   4.709  0.0336 -0.0913 -0.0784
38980W        W81892  26.163  33.338   4.251 -0.1249 -0.4779 -0.0143
38981W        W81893  26.188  29.819   6.120  0.0622  0.0908 -0.0670
38982W        W81894  27.216  29.037   6.438  0.3368 -0.0332 -0.1006
38983W        W81895  27.113  32.000   5.440  0.0620  0.2157 -0.1270
38984W        W81896  25.402  29.534   2.633  0.0690  0.0691  0.0254
38985W        W81897  25.358  28.555   6.087 -0.0545  0.0631  0.0533
38986W        W81898  26.651  29.738   6.316  0.2874  0.0223  0.2033
38987W        W81899  27.155  30.451   5.048 -0.1338 -0.2522  0.1002
38988W        W81900  28.746  30.486   5.960 -0.4188  0.0394  0.0585
38989W        W81901  25.968  32.122   6.232  0.2124 -0.1885 -0.2925
38990W        W81902  26.658  32.880   6.451 -0.1276 -0.1627  0.0540
38991W        W81903  27.564  29.930   7.489 -0.0464  0.0533  0.0540
38992W        W81904  24.218  31.130   4.962  0.2828 -0.2098 -0.0051
38993W        W81905  25.803  33.182   5.434 -0.3483 -0.1336  0.2317
38994W        W81906  27.098  32.765   6.011  0.3106  0.3035  0.4041
38995W        W81907  29.134  31.986   5.233  0.1128  0.0504 -0.1959
38996W        W81908  27.741  31.519   6.457 -0.3758 -0.0293 -0.0758
38997W        W81909  26.915  33.038   6.828  0.1183 -0.0737 -0.0323
38998W        W81910  26.278  31.440   2.478  0.2155  0.1688  0.2385
38999W        W81911  27.090  31.634   6.950  0.0230 -0.0708  0.2463
39000W        W81912  26.629  32.752   7.503  0.2468 -0.1156  0.1025
39001W        W81913  26.950  31.089   5.752  0.0113  0.0633 -0.2124
39002W        W81914  26.949  30.248   5.616 -0.0193  0.1235  0.0238
39003W        W81915  26.942  32.228   4.317 -0.1113  0.0997  0.0093
39004W        W81916  27.887  31.430   4.780 -0.1167 -0.1503  0.4488
39005W        W81917  26.196  31.632   6.821  0.2452  0.0923 -0.1467
39006W        W81918  25.490  31.729   6.078  0.0251  0.1338  0.3144
39007W        W81919  28.958  29.402   7.224 -0.1777 -0.1507 -0.0408
39008W        W81920  26.301  32.970   4.001 -0.2289  0.1464  0.1403
39009W        W81921  29.697  29.751   3.380 -0.0270 -0.0005 -0.1186
39010W        W81922  26.510  28.468   4.612  0.2504  0.1040  0.1321
39011W        W81923  28.255  29.745   4.705 -0.4047  0.0301  0.2159
39012W        W81924  27.398  28.812   5.082 -0.1567 -0.0615  0.0604
39013W        W81925  26.084  33.811   4.638 -0.1036  0.1226 -0.1012
39014W        W81926  25.930  29.155   5.541 -0.5733 -0.0287  0.1224
39015W        W81927  29.908  30.774   6.654 -0.0642 -0.4376  0.2804
39016W        W81928  27.395  30.588   4.550  0.0830  0.2217 -0.1912
39017W        W81929  27.339  30.191   5.967  0.1302 -0.0003  0.1817
39018W        W81930  25.897  30.711   6.196  0.0882 -0.0495 -0.0883
39019W        W81931  25.869  30.465   4.326 -0.0458 -0.0415  0.1107
39020W        W81932  29.617  32.852   5.188  0.1795  0.1105 -0.1067
39021W        W81933  29.063  31.647   6.262 -0.0392  0.1318  0.0032
39022W        W81934  27.253  32.412   2.682 -0.4022  0.2958  0.0562
39023W        W81935  24.537  30.585   4.981  0.0557 -0.2893 -0.2503
39024W        W81936  25.065  30.250   6.318  0.1284  0.2093  0.1770
39025W        W81937  25.227  32.276   7.426 -0.1109  0.1419 -0.0350
39026W        W81938  26.421  28.890   3.657  0.0312 -0.0832  0.3284
39027W        W81939  28.869  32.979   6.451  0.1837 -0.0644 -0.3243
39028W        W81940  25.100  30.418   7.423 -0.1319 -0.3051  0.2069
39029W        W81941  26.970  31.278   5.286 -0.0144  0.1453 -0.3972
39030W        W81942  27.825  32.030   6.266 -0.0005  0.1991  0.0248
39031W        W81943  29.129  30.919   6.670  0.0372 -0.1328 -0.1219
39032W        W81944  28.808  31.516   5.198 -0.1060 -0.1707  0.1020
39033W        W81945  27.955  28.934   4.260  0.0492 -0.0078  0.1560
39034W        W81946  26.488  30.345   5.355  0.0460  0.0574 -0.0515
39035W        W81947  26.513  31.078   5.430  0.0131  0.3668 -0.1773
39036W        W81948  27.082  33.603   3.993 -0.0827 -0.0429  0.1035
39037W        W81949  28.164  32.452   7.185 -0.0011 -0.0830 -0.0883
39038W        W81950  28.000  30.791   4.021  0.1021  0.2068 -0.0611
39039W        W81951  26.560  32.090   5.861  0.4483 -0.1285  0.4887
39040W        W81952  25.334  30.093   7.766 -0.2788  0.0602  0.2169
39041W        W81953  27.215  31.910   8.117  0.1238  0.1224 -0.0026
39042W        W81954  26.415  32.659   3.654  0.1473  0.2434 -0.2813
39043W        W81955  24.919  30.509   5.854  0.1608  0.0885 -0.1843
39044W        W81956  25.893  31.034   4.856  0.0863 -0.1443 -0.3413
39045W        W81957  25.584  29.246   6.122 -0.0696  0.0771 -0.1481
39046W        W81958  26.668  30.623   5.736 -0.3574  0.0452  0.2564
39047W        W81959  27.765  30.401   4.843  0.3414 -0.1261  0.0942
39048W        W81960  23.675  29.766   8.523 -0.1511  0.1029 -0.0124
39049W        W81961  27.386  28.059   5.608  0.0147 -0.0262  0.1285
39050W        W81962  25.441  33.110   4.481  0.2067  0.2774  0.1735
39051W        W81963  26.857  32.435   5.632 -0.0686  0.2580 -0.2423
39052W        W81964  29.867  29.796   5.110  0.0803  0.1777  0.1754
39053W        W81965  28.522  31.814   3.786 -0.0142 -0.0337 -0.0065
39054W        W81966  24.227  29.146   7.369 -0.0636 -0.0512 -0.1533
39055W        W81967  25.724  28.686   6.381  0.0288 -0.1359 -0.1066
39056W        W81968  24.779  29.493   7.534 -0.1019  0.0494  0.1393
39057W        W81969  25.553  29.504   5.189 -0.0945 -0.2407  0.0454
39058W        W81970  28.906  31.111   7.781 -0.0646  0.2697  0.1688
39059W        W81971  24.492  28.394   4.984  0.0978  0.1049  0.1773
39060W        W81972  27.990  29.257   7.082 -0.1779 -0.0400  0.1510
39061W        W81973  27.546  31.519   5.357  0.1294  0.0670 -0.0715
39062W        W81974  24.881  30.279   4.227 -0.1564  0.1015  0.2533
39063W        W81975  27.940  29.668   8.327  0.1300 -0.1778  0.2863
39064W        W81976  28.802  32.350   5.118 -0.1661  0.0507  0.0533
39065W        W81977  28.846  32.901   7.384  0.0945  0.0501  0.1796
39066W        W81978  29.990  32.596   4.977  0.1262  0.1335  0.2299
39067W        W81979  24.976  29.949   7.446 -0.2127 -0.1881  0.2247
39068W        W81980  26.860  28.970   4.123  0.0436 -0.2087 -0.2322
39069W        W81981  26.130  32.836   5.760 -0.0060 -0.1050 -0.0213
39070W        W81982  27.823  31.557   5.975 -0.1751  0.1608 -0.0706
39071W        W81983  27.126  30.234   4.270 -0.2975  0.1435 -0.2652
39072W        W81984  29.599  33.053   6.616 -0.1278 -0.0000  0.3953
39073W        W81985  27.481  32.020   4.183 -0.0540 -0.0121 -0.1242
39074W        W81986  25.017  30.055   5.634  0.0223 -0.1151  0.1047
39075W        W81987  28.363  28.781   7.500  0.0567 -0.0741  0.1292
39076W        W81988  28.521  29.471   6.378  0.0358 -0.0266 -0.3030
39077W        W81989  29.548  31.003   6.228  0.1327 -0.3915 -0.1859
39078W        W81990  26.157  28.308   2.852 -0.0461 -0.0329 -0.0376
39079W        W81991  27.389  32.937   6.637 -0.0588 -0.0259 -0.2585
39080W        W81992  26.012  34.256   4.470 -0.1490 -0.0271 -0.2170
39081W        W81993  25.304  30.075   4.100 -0.0603  0.3308 -0.1452
39082W        W81994  26.786  32.306   5.095 -0.2282 -0.0628  0.1311
39083W        W81995  26.812  28.319   5.738 -0.2730  0.2085  0.1532
39084W        W81996  25.707  30.729   7.158  0.1171 -0.1528 -0.2553
39085W        W81997  28.358  29.245   5.473  0.0788 -0.2525 -0.0693
39086W        W81998  25.849  29.149   4.109 -0.0796  0.3006 -0.0359
39087W        W81999  26.979  31.078   6.855  0.0451  0.3685  0.1414
39088W        W82000  27.212  30.379   6.458 -0.1141 -0.1991  0.1693
39089W        W82001  28.804  29.927   5.060 -0.1907 -0.0530  0.2032
39090W        W82002  27.822  31.126   7.717  0.1625 -0.0385  0.0198
39091W        W82003  28.449  31.149   5.472 -0.1464  0.2159  0.0461
39092W        W82004  26.974  30.541   3.356 -0.3846  0.0564  0.1273
39093W        W82005  27.612  30.116   4.335 -0.0748  0.0866  0.1540
39094W        W82006  25.984  31.353   5.946 -0.2124 -0.0514  0.0463
39095W        W82007  28.055  31.858   5.470  0.0794  0.0549  0.2958
39096W        W82008  27.205  30.987   6.415 -0.2837 -0.1580  0.2143
39097W        W82009  26.674  30.138   4.547 -0.1471  0.0680 -0.2292
39098W        W82010  28.421  33.227   4.071 -0.1836 -0.0797 -0.0739
39099W        W82011  25.866  31.818   5.792  0.1886 -0.0854 -0.0344
39100W        W82012  27.560  31.420   6.938  0.2155  0.0214  0.0860
39101W        W82013  28.369  31.523   5.863 -0.2209 -0.0484  0.1503
39102W        W82014  25.294  28.320   6.951  0.2645 -0.0291  0.1480
39103W        W82015  26.060  31.201   3.795  0.1544 -0.1637 -0.1443
39104W        W82016  26.549  29.983   5.783  0.0148 -0.2640  0.1943
39105W        W82017  25.604  33.112   3.338  0.0274  0.0118 -0.1764
39106W        W82018  26.495  29.819   5.308  0.3893  0.1286  0.0954
39107W        W82019  27.166  27.820   5.120  0.1106 -0.2078  0.0981
39108W        W82020  27.238  27.958   6.075 -0.3916  0.2358  0.1188
39109W        W82021  28.140  29.808   7.713  0.2771 -0.3717  0.1208
39110W        W82022  27.545  29.614   4.053  0.2003  0.1078  0.1997
39111W        W82023  27.103  29.859   6.924 -0.1133 -0.4085  0.0113
39112W        W82024  26.139  30.462   4.720 -0.1328  0.2294 -0.1613
39113W        W82025  25.630  28.891   6.812 -0.1891  0.0369 -0.0201
39114W        W82026  26.140  30.462   7.370 -0.3960  0.0475 -0.0789
39115W        W82027  25.525  32.143   6.424  0.0751  0.0054  0.0689
39116W        W82028  28.934  31.386   6.708  0.0569 -0.0640  0.0120
39117W        W82029  27.900  31.844   4.432  0.2317 -0.2721  0.4872
39118W        W82030  25.933  29.943   7.091 -0.1470 -0.0760  0.4249
39119W        W82031  27.774  29.808   4.723 -0.2567  0.0660 -0.1218
39120W        W82032  26.599  32.741   4.914  0.2331 -0.1715 -0.0404
39121W        W82033  25.252  32.257   5.087 -0.4991 -0.0695  0.1066
39122W        W82034  26.420  29.225   5.358  0.1880  0.1291  0.3022
39123W        W82035  27.979  31.732   6.926 -0.2775  0.1455  0.0978
39124W        W82036  26.458  32.316   4.706  0.1711  0.0672  0.1260
39125W        W82037  27.231  29.274   7.041  0.2079  0.0142 -0.0628
39126W        W82038  25.096  32.527   4.394 -0.2209  0.0772  0.1747
39127W        W82039  26.956  28.841   6.026  0.1555 -0.0760 -0.2645
39128W        W82040  25.387  32.857   6.432 -0.0387  0.0643 -0.1092
39129W        W82041  26.062  30.916   4.383  0.0100 -0.2525  0.0846
39130W        W82042  25.738  29.932   4.372  0.3327  0.1047 -0.1493
39131W        W82043  26.770  30.102   6.634  0.0837 -0.1033  0.0694
39132W        W82044  28.357  30.775   5.119  0.0040 -0.2281 -0.3567
39133W        W82045  25.345  30.516   5.465 -0.3816  0.0808 -0.1789
39134W        W82046  26.340  29.469   6.911 -0.1778  0.2508  0.0899
39135W        W82047  25.380  31.836   5.567 -0.1660  0.1803  0.0046
39136W        W82048  27.741  31.012   6.568  0.1610 -0.2131  0.1567
39137W        W82049  29.594  30.219   3.594  0.1171 -0.0149 -0.0716
39138W        W82050  28.689  30.826   6.325  0.0625  0.2879 -0.1793
39139W        W82051  27.046  31.294   7.461  0.1454  0.0228  0.0996
39140W        W82052  24.929  29.478   3.441 -0.2282 -0.0701  0.0753
39141W        W82053  29.138  30.688   7.123 -0.0506 -0.1698 -0.1617
39142W        W82054  25.899  30.440   5.510  0.0413  0.1182 -0.1968
39143W        W82055  24.622  31.547   6.266 -0.0590  0.2985 -0.4857
39144W        W82056  27.149  32.489   7.525  0.2968  0.0758  0.1083
39145W        W82057  25.762  32.123   4.871 -0.1481  0.0552  0.3619
39146W        W82058  25.063  32.174   6.061 -0.0269 -0.0918  0.2171
39147W        W82059  25.623  29.754   6.221 -0.1246  0.1403 -0.1174
39148W        W82060  28.350  30.396   7.032  0.1598  0.2031 -0.0843
39149W        W82061  27.887  30.423   6.552 -0.1964 -0.0218  0.0971
39150W        W82062  25.799  29.659   3.901 -0.1958  0.1517 -0.0750
39151W        W82063  26.179  30.700   5.183 -0.1374 -0.0408 -0.3076
39152W        W82064  28.193  31.746   6.431 -0.0785  0.4586  0.0942
39153W        W82065  25.906  29.627   7.596 -0.1703 -0.1452  0.3162
39154W        W82066  26.309  32.302   7.112 -0.2221 -0.0337 -0.0210
39155W        W82067  26.494  29.537   5.858 -0.3716 -0.2646  0.0972
39156W        W82068  29.943  32.623   6.368 -0.1226 -0.3579 -0.1913
39157W        W82069  27.001  30.328   7.059  0.1017 -0.1320  0.0639
39158W        W82070  26.682  30.524   4.916 -0.5504 -0.0120 -0.1615
39159W        W82071  27.511  29.948   5.173  0.1148 -0.3054 -0.2583
39160W        W82072  26.820  31.604   5.599 -0.1688 -0.2586 -0.0236
39161W        W82073  27.189  29.892   6.335  0.0059  0.0120 -0.0692
39162W        W82074  24.196  31.528   6.046 -0.0860  0.2204  0.0041
39163W        W82075  26.206  31.912   4.774 -0.1227  0.3498  0.1822
39164W        W82076  26.239  31.659   6.305 -0.1672 -0.0653 -0.2063
39165W        W82077  28.859  30.902   2.790 -0.1444  0.0545  0.0560
39166W        W82078  27.447  31.929   4.716  0.2811  0.2214 -0.0420
39167W        W82079  25.774  29.462   4.587  0.3784  0.2652 -0.3060
39168W        W82080  27.491  29.530   6.488  0.4460 -0.0484  0.0827
39169W        W82081  28.371  32.129   4.608 -0.2440  0.1619  0.0068
39170W        W82082  28.637  28.881   6.517  0.0906 -0.1264 -0.2328
39171W        W82083  24.952  29.216   5.586 -0.1186 -0.3264  0.0727
39172W        W82084  28.768  31.874   5.627 -0.1901  0.1428  0.2475
39173W        W82085  25.087  30.773   6.267 -0.1263  0.0748 -0.0087
39174W        W82086  27.974  33.047   7.419  0.0866  0.1551 -0.1210
39175W        W82087  26.097  30.764   6.627 -0.0207 -0.1749  0.0884
39176W        W82088  27.518  29.658   5.617 -0.1983 -0.2470  0.0340
39177W        W82089  26.242  28.031   4.828 -0.0316  0.2603  0.1323
39178W        W82090  25.938  31.214   5.413  0.1745 -0.3228  0.2089
39179W        W82091  27.557  30.066   3.775 -0.0917 -0.2686  0.2340
39180W        W82092  26.894  31.926   4.745 -0.0965  0.2729 -0.0290
39181W        W82093  26.982  29.009   4.821 -0.0494  0.0912 -0.1171
39182W        W82094  26.441  31.131   6.705  0.0160 -0.2201  0.0192
39183W        W82095  29.640  30.111   5.645 -0.0686  0.2540 -0.2384
39184W        W82096  26.489  31.278   5.895  0.3596  0.0435  0.0834
39185W        W82097  25.471  33.706   5.191 -0.2366 -0.0870 -0.0892
39186W        W82098  25.135  30.982   5.778  0.4348  0.0686 -0.0692
39187W        W82099  27.563  30.789   5.045  0.0050  0.1958  0.2918
39188W        W82100  27.834  30.895   4.642 -0.1087  0.0665  0.0676
39189W        W82101  26.347  29.366   6.424 -0.1188 -0.0882  0.1017
39190W        W82102  27.638  30.004   6.522  0.4472  0.2678 -0.0345
39191W        W82103  26.760  31.713   6.174  0.2914 -0.2581 -0.1848
39192W        W82104  24.718  30.214   8.256 -0.0630  0.0482  0.0085
39193W        W82105  29.210  32.353   5.691  0.0295 -0.0157 -0.1271
39194W        W82106  27.696  31.614   3.977 -0.3805 -0.0892 -0.1330
39195W        W82107  29.138  28.949   6.330  0.0997  0.2229  0.2919
39196W        W82108  27.630  28.665   4.608  0.1950  0.0227 -0.3977
39197W        W82109  27.367  31.072   4.279 -0.0669  0.2635  0.1160
39198W        W82110  24.900  29.146   4.417 -0.3466 -0.2714  0.0239
39199W        W82111  26.181  29.444   7.986  0.2689  0.1208  0.0444
39200W        W82112  25.086  29.203   3.946 -0.0525 -0.3735  0.0176
39201W        W82113  26.989  29.459   6.602 -0.0319  0.0820  0.1352
39202W        W82114  26.779  33.189   3.782  0.0013  0.0192 -0.0687
39203W        W82115  28.629  31.375   6.272 -0.1220  0.0410  0.0241
39204W        W82116  28.330  31.421   5.107 -0.0735 -0.2300  0.3536
39205W        W82117  25.042  28.749   4.755 -0.1442 -0.1827 -0.4200
39206W        W82118  25.987  33.879   7.542 -0.0473  0.1753 -0.3676
39207W        W82119  24.993  28.708   4.056 -0.3015 -0.0101  0.1011
39208W        W82120  25.895  32.815   2.987  0.1126  0.1307  0.1054
39209W        W82121  27.945  30.252   7.435  0.1778 -0.2809  0.0761
39210W        W82122  27.933  30.100   6.940  0.2443  0.0446  0.1492
39211W        W82123  27.862  28.721   3.688  0.1580 -0.0817 -0.2262
39212W        W82124  27.648  30.194   7.878 -0.1941 -0.0569 -0.1867
39213W        W82125  25.774  31.430   4.532 -0.1475  0.0609  0.0850
39214W        W82126  26.791  29.290   6.145  0.2284  0.2079  0.0591
39215W        W82127  26.513  33.390   5.514 -0.0916 -0.0425  0.0373
39216W        W82128  26.210  31.395   7.328  0.2151 -0.2636 -0.0111
39217W        W82129  25.062  31.430   5.978 -0.1098 -0.3168 -0.0219
39218W        W82130  27.702  28.528   6.343 -0.2339 -0.1420 -0.2031
39219W        W82131  28.098  29.934   6.294 -0.0217 -0.0641  0.1301
39220W        W82132  27.681  30.764   5.790 -0.6381 -0.3747  0.0603
39221W        W82133  28.464  30.378   6.475  0.0986  0.0352  0.1959
39222W        W82134  28.004  31.963   8.142  0.1801  0.2061  0.2578
39223W        W82135  27.183  31.702   5.067  0.1917  0.0746 -0.2924
39224W        W82136  27.217  31.494   6.525 -0.3263  0.0974  0.2362
39225W        W82137  28.013  31.113   5.778  0.0542  0.0178  0.0640
39226W        W82138  25.502  32.248   5.887  0.1391 -0.2535  0.2514
39227W        W82139  25.889  30.379   6.815  0.2211  0.1725  0.0781
39228W        W82140  25.734  29.962   8.490 -0.1781 -0.2419 -0.1117
39229W        W82141  27.382  31.423   5.816 -0.1815  0.2319 -0.1386
39230W        W82142  27.144  29.392   4.007  0.1684  0.1264 -0.0871
39231W        W82143  26.438  31.940   4.342  0.1216  0.0727 -0.1774
39232W        W82144  26.862  32.339   8.056 -0.0932 -0.1258 -0.1632
39233W        W82145  25.667  29.903   4.893 -0.0037 -0.1526  0.0147
39234W        W82146  25.282  34.412   5.412  0.1839  0.2091 -0.0848
39235W        W82147  27.283  31.536   4.445 -0.0105 -0.2163 -0.2108
39236W        W82148  28.273  31.639   4.161  0.0131  0.2765  0.1815
39237W        W82149  28.516  32.539   6.800  0.0222  0.4406  0.1718
39238W        W82150  27.983  30.666   5.416 -0.1559 -0.0209 -0.2287
39239W        W82151  27.287  32.406   4.816  0.2561  0.0556  0.1123
39240W        W82152  25.726  33.635   3.460  0.0170 -0.3468 -0.3089
39241W        W82153  28.942  32.476   4.425  0.1156  0.0947  0.3560
39242W        W82154  26.039  32.296   5.762 -0.2277  0.1529  0.2028
39243W        W82155  29.406  32.219   7.931 -0.1166  0.0701 -0.3960
39244W        W82156  29.204  29.340   3.349 -0.0530  0.2297 -0.1228
39245W        W82157  29.544  30.471   6.395  0.0888  0.2130  0.1078
39246W        W82158  28.887  30.468   5.058  0.3840  0.2939 -0.1411
39247W        W82159  28.039  29.694   7.226  0.2329 -0.0549 -0.0369
39248W        W82160  26.125  29.543   4.242 -0.0628 -0.1188  0.0151
39249W        W82161  27.042  29.745   4.453 -0.1876 -0.1709  0.3620
39250W        W82162  25.881  29.227   6.500 -0.0569 -0.1962 -0.0331
39251W        W82163  27.977  28.758   8.048  0.2618 -0.0171  0.2270
39252W        W82164  26.018  32.738   7.344  0.0618  0.0123  0.0329
39253W        W82165  28.001  32.633   5.422  0.0468 -0.0217 -0.1593
39254W        W82166  26.285  29.280   4.651 -0.0471  0.0157 -0.2090
39255W        W82167  26.436  30.787   6.196 -0.1543  0.0938  0.0626
39256W        W82168  28.092  27.664   5.794  0.2692 -0.0925 -0.3402
39257W        W82169  25.601  32.238   3.840 -0.0060 -0.1698 -0.1498
39258W        W82170  27.545  30.655   6.254 -0.0573  0.1587  0.1143
39259W        W82171  26.193  32.110   5.292 -0.6073 -0.0662  0.1041
39260W        W82172  26.937  30.782   5.364 -0.1821  0.2660 -0.3752
39261W        W82173  26.264  32.997   5.219  0.0170  0.0158  0.2481
39262W        W82174  25.092  31.027   3.530 -0.2121 -0.0289 -0.0046
39263W        W82175  29.050  29.324   5.022  0.1845  0.2857  0.0769
39264W        W82176  26.397  30.462   6.957 -0.4996  0.5237 -0.0945
39265W        W82177  27.894  29.027   5.177  0.3282  0.0277  0.2038
39266W        W82178  25.614  30.879   5.570 -0.2800 -0.2156  0.1841
39267W        W82179  27.908  30.189   5.576 -0.0689  0.0416 -0.0821
39268W        W82180  27.259  29.407   6.003  0.3393 -0.0083 -0.2517
39269W        W82181  25.402  29.558   4.219  0.0160 -0.0937 -0.0772
39270W        W82182  26.391  30.937   4.806  0.1530 -0.2893  0.0888
39271W        W82183  30.213  30.386   6.485  0.2003  0.0321  0.0011
39272W        W82184  27.180  31.244   3.372  0.0935 -0.1410 -0.2357
39273W        W82185  28.050  32.317   7.723  0.2542  0.0764  0.3016
39274W        W82186  25.061  29.194   6.066  0.1444 -0.1198 -0.3076
39275W        W82187  27.384  31.269   4.874  0.0806  0.1034 -0.0340
39276W        W82188  25.247  31.628   4.366 -0.0316  0.2637  0.1455
39277W        W82189  26.124  30.889   5.710  0.0326 -0.1611 -0.1539
39278W        W82190  29.263  31.152   7.092  0.0375 -0.0445 -0.1249
39279W        W82191  24.962  29.231   5.038  0.4700 -0.1310 -0.0443
39280W        W82192  28.607  30.730   4.641 -0.0489 -0.1544  0.2581
39281W        W82193  28.377  29.955   6.750 -0.1477 -0.1011 -0.2070
39282W        W82194  26.238  33.104   4.695 -0.0233  0.1005 -0.3230
39283W        W82195  27.252  31.459   3.948  0.1445 -0.1132 -0.1408
39284W        W82196  28.362  31.605   4.658 -0.0683  0.2149 -0.0990
39285W        W82197  26.281  28.506   5.901 -0.2113 -0.1368 -0.1727
39286W        W82198  27.906  31.119   5.261 -0.0349  0.0555  0.0518
39287W        W82199  28.654  29.968   6.270 -0.2717  0.1344 -0.0189
39288W        W82200  27.700  27.853   4.273 -0.0241  0.0056 -0.3306
39289W        W82201  26.193  29.855   4.682  0.0432 -0.1588 -0.1070
39290W        W82202  25.131  32.315   5.595 -0.0496 -0.0238 -0.2863
39291W        W82203  27.928  29.542   5.205  0.1093 -0.1054  0.3086
39292W        W82204  27.851  29.337   6.177 -0.1406 -0.0557 -0.2650
39293W        W82205  26.589  33.550   4.596 -0.0911  0.1862 -0.1170
39294W        W82206  27.216  28.235   7.827  0.0189 -0.1002 -0.2597
39295W        W82207  26.271  31.627   5.487 -0.1126  0.1124  0.0499
39296W        W82208  26.693  32.209   7.530  0.1793 -0.2626 -0.1000
39297W        W82209  26.361  31.429   4.531  0.1648  0.2144 -0.0564
39298W        W82210  27.369  28.805   7.195  0.1925  0.2416 -0.1523
39299W        W82211  25.829  31.738   5.233  0.3913  0.0596  0.1980
39300W        W82212  26.771  32.976   5.437  0.2159  0.1171  0.0931
39301W        W82213  29.590  31.728   6.174 -0.0530 -0.0590  0.2202
39302W        W82214  26.483  30.550   4.431 -0.0084 -0.0177  0.0018
39303W        W82215  29.157  31.035   5.705  0.0298 -0.1709  0.2998
39304W        W82216  25.983  29.782   5.627  0.1695  0.0759  0.0253
39305W        W82217  27.488  29.205   4.365  0.6231  0.0083 -0.2815
39306W        W82218  27.320  30.083   4.721 -0.2368  0.0106 -0.1618
39307W        W82219  26.504  32.837   6.996  0.0443  0.1134  0.0059
39308W        W82220  26.034  31.638   4.167 -0.1698 -0.3599 -0.1116
39309W        W82221  27.165  32.423   3.759  0.1141 -0.3281 -0.0125
39310W        W82222  27.177  30.644   5.897 -0.0062 -0.0637  0.2077
39311W        W82223  27.682  29.200   5.656 -0.1378  0.1960  0.0657
39312W        W82224  24.225  29.445   7.798 -0.0978 -0.0459  0.1185
39313W        W82225  25.582  30.045   5.385 -0.1594 -0.2217 -0.0423
39314W        W82226  26.830  30.091   5.080  0.4903 -0.1076 -0.0831
39315W        W82227  27.672  31.170   3.877  0.0088 -0.3141  0.1231
39316W        W82228  26.671  28.658   6.375  0.2653 -0.0813  0.0423
39317W        W82229  25.870  28.794   5.859 -0.1943  0.0253 -0.2117
39318W        W82230  28.547  31.935   5.080 -0.2079  0.2421 -0.2435
39319W        W82231  29.198  32.063   4.255 -0.3333 -0.0744  0.0744
39320W        W82232  27.633  31.120   6.123 -0.0965  0.1782 -0.6201
39321W        W82233  28.915  32.020   7.682  0.0135 -0.0203  0.1111
39322W        W82234  26.217  32.115   3.890 -0.1589 -0.1504 -0.0029
39323W        W82235  25.283  29.347   8.201 -0.1780  0.1253 -0.1719
39324W        W82236  26.359  28.965   5.793 -0.0692 -0.2316 -0.0138
39325W        W82237  25.717  27.891   3.729 -0.0270  0.1740 -0.0311
39326W        W82238  26.559  30.941   7.294  0.2001  0.2716 -0.1160
39327W        W82239  28.591  31.883   6.242  0.0328 -0.1448  0.1276
39328W        W82240  28.587  31.376   2.713 -0.0123  0.0096  0.1181
39329W        W82241  26.278  30.192   6.579  0.2217  0.4467  0.4896
39330W        W82242  28.246  31.433   7.329 -0.1749  0.0729 -0.1018
39331W        W82243  25.407  28.130   7.804  0.1085 -0.0005 -0.0411
39332W        W82244  29.379  31.852   4.803 -0.0804 -0.1895 -0.2211
39333W        W82245  26.204  30.885   7.676 -0.5882  0.1804  0.1037
39334W        W82246  28.779  31.677   4.251 -0.0275 -0.1386  0.2453
39335W        W82247  27.691  29.860   6.064  0.0191 -0.0020  0.0300
39336W        W82248  28.485  30.090   3.856  0.1894  0.0800  0.1169
39337W        W82249  24.816  29.102   7.213  0.1041 -0.1693  0.1667
39338W        W82250  26.670  30.555   8.259  0.0369 -0.2363  0.1947
39339W        W82251  29.307  31.945   6.704 -0.2429  0.1668  0.1167
39340W        W82252  26.186  28.885   6.297  0.2139  0.0843 -0.0586
39341W        W82253  27.234  29.610   4.893 -0.0311 -0.2684 -0.0900
39342W        W82254  28.868  31.451   5.812  0.1628 -0.2386 -0.0526
39343W        W82255  26.082  29.761   6.595 -0.1965  0.1034  0.3362
39344W        W82256  26.838  31.764   4.143 -0.3470 -0.1227  0.1413
39345W        W82257  26.314  29.938   7.505 -0.1308  0.0441 -0.0894
39346W        W82258  27.801  30.650   7.037 -0.0402  0.0623 -0.1083
39347W        W82259  28.370  31.902   7.411 -0.0929 -0.0525 -0.0795
39348W        W82260  26.437  30.986   4.086  0.2120  0.1731 -0.0543
39349W        W82261  29.275  32.427   4.846  0.1282 -0.2922  0.2792
39350W        W82262  27.688  32.564   7.456  0.1313  0.1498  0.4421
39351W        W82263  28.377  32.075   6.868 -0.2621  0.1695 -0.1418
39352W        W82264  26.751  31.971   7.058  0.0605  0.1007  0.0308
39353W        W82265  27.589  29.268   4.821  0.0999  0.1165  0.0958
39354W        W82266  25.258  28.997   6.436 -0.1811  0.4085  0.0438
39355W        W82267  25.896  31.798   3.580  0.0922 -0.2373 -0.2597
39356W        W82268  27.104  33.011   4.781 -0.1048 -0.2135 -0.3381
39357W        W82269  27.463  30.247   7.177  0.0324 -0.1145  0.0995
39358W        W82270  26.773  28.916   5.315 -0.0972 -0.2366  0.0387
39359W        W82271  28.007  30.338   3.830 -0.1734 -0.1493  0.1546
39360W        W82272  26.930  32.526   7.073 -0.0671 -0.1178 -0.1205
39361W        W82273  27.961  31.193   6.981  0.0439 -0.0622 -0.1022
39362W        W82274  24.226  29.744  10.057 -0.1014 -0.3477 -0.2461
39363W        W82275  27.102  30.304   8.676  0.1670  0.3315 -0.1850
39364W        W82276  27.583  29.657   6.990  0.0414 -0.0937  0.3897
39365W        W82277  29.443  29.858   8.463 -0.1339 -0.5704 -0.2343
39366W        W82278  25.374  29.576   8.725 -0.1432  0.0476 -0.0162
39367W        W82279  27.115  34.378  10.595  0.0492  0.1074 -0.1416
39368W        W82280  26.249  32.107   9.814  0.1814 -0.0595 -0.3679
39369W        W82281  29.440  32.605   9.601 -0.1137  0.1228 -0.1834
39370W        W82282  26.806  31.228   6.321  0.1623  0.2637  0.0245
39371W        W82283  26.170  28.613   9.470  0.0660  0.2176 -0.0463
39372W        W82284  26.047  29.097   9.510 -0.0162 -0.0891  0.1677
39373W        W82285  25.815  28.724   9.833 -0.0729 -0.1567 -0.0665
39374W        W82286  29.226  30.234  10.385 -0.1302  0.1732 -0.0870
39375W        W82287  27.141  30.826   8.286 -0.3562 -0.0382  0.2522
39376W        W82288  25.793  28.326   9.337  0.3090 -0.2698 -0.2412
39377W        W82289  25.807  29.269   8.984 -0.2705  0.1551  0.1031
39378W        W82290  28.108  32.628   8.778 -0.0784 -0.0303 -0.0597
39379W        W82291  27.443  31.001  10.263  0.0933 -0.0535  0.1156
39380W        W82292  28.607  30.754   8.077 -0.1473  0.1953 -0.1489
39381W        W82293  25.737  31.114   7.442  0.1418 -0.0383  0.0302
39382W        W82294  25.295  31.262   9.258 -0.1420  0.0290 -0.1728
39383W        W82295  24.794  28.819   8.599 -0.0035 -0.0248  0.0589
39384W        W82296  26.146  28.667   8.813 -0.1772 -0.3019  0.2548
39385W        W82297  27.149  29.843   8.662 -0.1465  0.1576 -0.2240
39386W        W82298  28.853   1.428   9.015  0.1541 -0.1689 -0.1414
39387W        W82299  26.782  31.190   8.395 -0.2636  0.0729  0.1665
39388W        W82300  25.083  31.366   8.641 -0.2464 -0.1032 -0.1800
39389W        W82301  26.497  33.468   9.038 -0.1458 -0.1907 -0.0882
39390W        W82302  26.333  31.800   9.396  0.3745  0.1234 -0.2091
39391W        W82303  28.665  31.553   7.578 -0.3218  0.0031  0.0114
39392W        W82304  25.913  31.687   8.081  0.1191  0.1464 -0.0440
39393W        W82305  27.893  28.767  10.096  0.1463  0.0248  0.0077
39394W        W82306  26.763  31.717   9.121 -0.2181 -0.0390 -0.1820
39395W        W82307  26.762  30.690   6.558 -0.2692  0.0049 -0.2610
39396W        W82308  27.582  30.632   9.434  0.1004  0.0869  0.0500
39397W        W82309  26.112  31.412   9.626 -0.1503 -0.2575  0.0467
39398W        W82310  26.861  31.718   7.649 -0.0403 -0.4226 -0.2513
39399W        W82311  28.618  29.809   7.780  0.1359 -0.1640 -0.1177
39400W        W82312  25.935  30.112   7.789 -0.0217 -0.2500 -0.0223
39401W        W82313  25.654  28.879   8.644 -0.0710 -0.0220  0.1467
39402W        W82314  24.643  28.616   9.322  0.0541  0.1125 -0.1966
39403W        W82315  26.192  31.189   9.190  0.2711 -0.6235 -0.1047
39404W        W82316  27.290  29.716   9.140  0.0091  0.3285  0.1918
39405W        W82317  27.311  30.593   8.948  0.0941 -0.1233 -0.1628
39406W        W82318  27.586  30.127   9.558  0.0702  0.1602  0.1069
39407W        W82319  27.095  32.134   9.897 -0.3114 -0.0831 -0.0696
39408W        W82320  26.782  30.974   9.911  0.1895  0.0177 -0.2074
39409W        W82321  29.829  31.751   7.184  0.2275 -0.0049 -0.2423
39410W        W82322  29.770  31.693   8.584 -0.0378  0.0092  0.2235
39411W        W82323  28.230  30.812   6.681  0.0584 -0.3258  0.3276
39412W        W82324  26.569  30.845   9.167 -0.0175  0.0042 -0.1216
39413W        W82325  25.564  29.197   9.402  0.1510 -0.2260  0.1616
39414W        W82326  27.582  28.578   9.116 -0.3346 -0.1355  0.0317
39415W        W82327  26.249  31.097  10.041 -0.2192 -0.4116  0.0093
39416W        W82328  27.589  31.498   8.622 -0.0377 -0.0564  0.0693
39417W        W82329  27.021  30.819   7.262 -0.0599 -0.0466  0.0831
39418W        W82330  27.851  26.677   8.947 -0.1554  0.1371 -0.2827
39419W        W82331  28.577  28.934   9.300 -0.0608 -0.2530 -0.4025
39420W        W82332  28.053  30.645   8.211  0.1351  0.0761  0.0614
39421W        W82333  27.129  30.356   8.156 -0.0961 -0.5411  0.2337
39422W        W82334  28.751  30.659   9.405 -0.1052  0.0651 -0.1455
39423W        W82335  28.432  30.295   7.766  0.2954  0.3815  0.0579
39424W        W82336  24.098  32.937  10.075 -0.1497 -0.0132 -0.1185
39425W        W82337  26.136  32.849   7.792 -0.1525  0.0603 -0.2484
39426W        W82338  24.190  31.252   9.920  0.2480 -0.3019 -0.1120
39427W        W82339  26.347  30.554   8.703 -0.3068 -0.0242  0.2140
39428W        W82340  24.032  29.591   9.527 -0.1021 -0.3534 -0.4102
39429W        W82341  26.946  31.566   8.658  0.1799  0.2530 -0.0268
39430W        W82342  27.923  28.118   8.763 -0.3778 -0.1878 -0.0224
39431W        W82343  28.877  27.589   8.543 -0.1195  0.1623  0.1587
39432W        W82344  25.913  31.522   8.578 -0.0487  0.0978 -0.0303
39433W        W82345  28.865  31.844   8.809  0.0989 -0.5154 -0.3247
39434W        W82346  28.490  29.958   7.252  0.2745 -0.0307 -0.4459
39435W        W82347  28.057  30.755   6.174 -0.1267  0.0013  0.0048
39436W        W82348  25.867  29.792   8.977  0.0910 -0.3819  0.2087
39437W        W82349  24.470  29.538   9.249 -0.0373 -0.0478  0.0951
39438W        W82350  26.238  28.206   9.137 -0.1361 -0.4162 -0.2527
39439W        W82351  24.773  30.362   7.751  0.0590 -0.1062 -0.2243
39440W        W82352  26.784  28.356   8.249  0.0265  0.1471  0.0164
39441W        W82353  26.594  29.390   9.404  0.0673  0.1048 -0.3468
39442W        W82354  26.450  31.117   8.760  0.2697  0.2155 -0.0161
39443W        W82355  28.580  31.344   8.049  0.1198 -0.0434 -0.1189
39444W        W82356  27.306  30.694   9.904 -0.0879  0.2714 -0.2745
39445W        W82357  28.968  31.528   8.447  0.2615 -0.0645 -0.0613
39446W        W82358  23.564  29.622   9.836  0.0255 -0.0809 -0.2846
39447W        W82359  26.339  30.452   7.881 -0.1550  0.0925  0.0971
39448W        W82360  26.363  31.542   7.833  0.0428 -0.0844  0.0466
39449W        W82361  28.955  31.115  10.068 -0.1215  0.2256  0.0045
39450W        W82362  26.993  29.161   8.436  0.0725 -0.0434 -0.0447
39451W        W82363  28.281  31.512   9.283  0.1024  0.4182 -0.0591
39452W        W82364  28.089  30.650   7.722 -0.0020 -0.1569 -0.0008
39453W        W82365  29.217  30.812   9.506  0.1262  0.0096 -0.1195
39454W        W82366  27.643  29.621   9.497  0.0272  0.1216 -0.1453
39455W        W82367  25.654  29.689   8.049 -0.0232 -0.0559  0.0343
39456W        W82368  29.489  32.132   9.331  0.0494  0.2186 -0.0276
39457W        W82369  27.587  30.677   7.963 -0.1190 -0.1096 -0.1208
39458W        W82370  25.518  30.212   8.905  0.1321 -0.1357 -0.0197
39459W        W82371  26.647  32.072   8.513  0.0543 -0.1933 -0.0603
39460W        W82372  26.723  29.076   8.895 -0.0592  0.2647 -0.0720
39461W        W82373  26.333  29.951   9.136 -0.0900  0.2405  0.2726
39462W        W82374  26.011  27.529   8.974  0.1004  0.0181  0.5537
39463W        W82375  27.762  29.241   8.594  0.0262 -0.1015 -0.3152
39464W        W82376  28.404  31.067   7.687  0.0387 -0.1104 -0.4028
39465W        W82377  27.449  29.530   8.338 -0.1912 -0.0566 -0.0760
39466W        W82378  26.752  30.181   7.831 -0.2306 -0.1127 -0.1242
39467W        W82379  26.311  30.921   9.591  0.0363 -0.2175 -0.4381
39468W        W82380  28.467  32.013   9.115  0.1920  0.2176 -0.0753
39469W        W82381  27.554  28.471   6.826  0.2329 -0.1207  0.0831
39470W        W82382  27.457  32.525  10.111 -0.2588  0.1831 -0.3575
39471W        W82383  25.057  30.440   9.566  0.0992 -0.1830  0.2861
39472W        W82384  28.730  30.607   8.920  0.2183 -0.0630  0.0956
39473W        W82385  28.428  26.256   9.928 -0.4268 -0.2089 -0.1368
39474W        W82386  25.661  30.251   7.385  0.3045  0.3105 -0.0362
39475W        W82387  26.313  29.028   9.099 -0.1821 -0.2676  0.1727
39476W        W82388  26.511  33.025   8.029  0.1732 -0.2780  0.1677
39477W        W82389  31.329  28.949   9.044 -0.2431  0.1076 -0.1916
39478W        W82390  26.826  28.124   9.210  0.1866  0.1393 -0.2006
39479W        W82391  27.908  29.242   8.102  0.1603  0.1822 -0.1365
39480W        W82392  27.701  31.063   9.835  0.1392  0.4779  0.1233
39481W        W82393  24.625  29.520   8.329 -0.0334  0.0311 -0.1044
39482W        W82394  26.252  27.207   9.750  0.1690  0.1572 -0.0878
39483W        W82395  24.548  30.591   9.983 -0.0620  0.2856 -0.0644
39484W        W82396  27.987  30.063   8.659  0.2138 -0.0065  0.3017
39485W        W82397  27.480  28.356   7.348 -0.2508  0.1830 -0.4305
39486W        W82398  26.763  32.801   8.429 -0.0774  0.0453  0.1772
39487W        W82399  26.626  30.443   7.426 -0.2563 -0.1380  0.1442
39488W        W82400  25.266  28.577   8.686 -0.0977 -0.0238  0.1250
39489W        W82401  28.159  33.739   9.725  0.0939 -0.0625  0.0595
39490W        W82402  26.152  31.425   4.988  0.1430 -0.2674  0.2348
39491W        W82403  29.019  30.796  10.450 -0.0638 -0.0869 -0.2214
39492W        W82404  27.273  30.986   7.782  0.1793 -0.1537  0.1333
39493W        W82405  27.640  28.955   9.528 -0.0320 -0.1033  0.0944
39494W        W82406  25.672  30.964   9.263 -0.0978  0.4825 -0.1689
39495W        W82407  25.803  28.797   9.207  0.1696 -0.3067 -0.1623
39496W        W82408  25.988  30.248   8.841  0.0943 -0.0748  0.0170
39497W        W82409  28.106  29.965   9.153  0.0821  0.0608  0.2211
39498W        W82410  27.342  30.720   6.884  0.0245 -0.1149 -0.2942
39499W        W82411  27.326  29.263   9.960  0.0494 -0.2490 -0.1289
39500W        W82412  27.384  28.729  10.046 -0.0415 -0.1170  0.0463
39501W        W82413  26.460  31.639   9.896 -0.0963 -0.1278  0.0264
39502W        W82414  26.717  29.498   8.711  0.0500  0.1616 -0.2547
39503W        W82415  26.024  31.024   8.449 -0.1072  0.1086 -0.1359
39504W        W82416  28.097  31.127   8.695  0.0094  0.3464 -0.0388
39505W        W82417  26.811  29.404   9.993  0.1365  0.2772 -0.0830
39506W        W82418  27.995  32.506   9.912  0.0043 -0.0169 -0.0608
39507W        W82419  26.492  32.102   9.006  0.2263 -0.2183  0.0828
39508W        W82420  26.182  30.292   8.302  0.0253 -0.2408  0.1075
39509W        W82421  25.995  32.609   9.631  0.0028 -0.0317 -0.3841
39510W        W82422  27.090  32.629   9.733 -0.0258  0.3758 -0.0206
39511W        W82423  26.677  28.414   9.559  0.2248 -0.3115 -0.1649
39512W        W82424  25.417  29.511   9.753  0.5827  0.1142  0.0728
39513W        W82425  26.748  30.365   9.023  0.1474  0.0795  0.2138
39514W        W82426  28.442  30.822   9.862  0.2268 -0.1202 -0.4013
39515W        W82427  28.054  29.898   9.686  0.1310  0.2127 -0.2635
39516W        W82428  26.358  28.554  10.000 -0.1713  0.3497 -0.1425
39517W        W82429  29.423  31.995   8.835 -0.2124  0.2029 -0.0586
39518W        W82430  26.093  30.728   9.070 -0.3259 -0.0875  0.2736
39519W        W82431  24.260  29.992   9.269  0.0736 -0.1882  0.1833
39520W        W82432  26.811  30.769   8.698  0.1025 -0.2320 -0.2076
39521W        W82433  25.191  28.960   9.780  0.0825 -0.0962 -0.1847
39522W        W82434  27.188  32.032   8.814 -0.1241  0.1327  0.2374
39523W        W82435  27.594  30.505   8.417  0.0945 -0.2881 -0.1302
39524W        W82436  26.707  32.170   9.433 -0.1760  0.1244  0.0342
39525W        W82437  26.885  28.685   8.591  0.0790  0.2774 -0.2803
39526W        W82438  27.655  31.065   8.298  0.2755  0.2122  0.1717
39527W        W82439  26.445  28.310   8.638  0.3530 -0.1023 -0.1180
39528W        W82440  27.108  30.380   7.576  0.0205 -0.0234 -0.0679
39529W        W82441  27.810  30.527  12.572 -0.3451  0.1770 -0.0812
39530W        W82442  28.406  30.335   9.259  0.1848 -0.3163 -0.2595
39531W        W82443  26.728  29.825   8.311 -0.2543  0.0793 -0.2470
39532W        W82444  25.232  30.020   8.343 -0.1294  0.1099  0.1619
39533W        W82445  27.539  29.813   9.968 -0.4846  0.1985 -0.2828
39534W        W82446  28.958  31.934   9.954  0.0048 -0.0471  0.0699
39535W        W82447  27.747  30.798   8.825  0.1209  0.0100 -0.1371
39536W        W82448  27.136  28.501   9.048 -0.0992  0.2996  0.3892
39537W        W82449  27.739  31.994  10.346 -0.0575 -0.1087 -0.0250
39538W        W82450  27.497  30.115   9.003 -0.0261 -0.2431 -0.0401
39539W        W82451  26.786  29.942   7.353 -0.2909 -0.0544 -0.2280
39540W        W82452  26.665  31.295   9.524 -0.2741  0.0553  0.1697
39541W        W82453  27.897  30.400   9.120 -0.1136  0.2540  0.0742
39542W        W82454  26.473  28.748   8.309  0.1698  0.1250 -0.2454
39543W        W82455  30.758  31.717  10.248  0.0080 -0.0061 -0.1515
39544W        W82456  27.598  28.802   7.752 -0.0893  0.1551 -0.1200
39545W        W82457  27.997  30.377   9.605 -0.1547  0.0238 -0.6203
39546W        W82458  27.684  30.366  10.037  0.1241 -0.0772 -0.2421
39547W        W82459  27.292  29.354   8.774 -0.2596  0.0269 -0.0633
39548W        W82460  25.896  29.375   9.866 -0.2051  0.3260 -0.0451
39549W        W82461  24.367  29.830   8.057 -0.0410  0.0355 -0.2591
39550W        W82462  27.792  31.538   7.413  0.1863  0.0318  0.1572
39551W        W82463  28.199  30.537   8.779  0.1423 -0.3163 -0.2727
39552W        W82464  27.088  30.207   9.360 -0.0783  0.0440  0.0281
39553W        W82465  23.467  29.394   8.895  0.1384 -0.1993 -0.0704
39554W        W82466  24.918  30.135   6.899 -0.0428 -0.0449  0.1517
39555W        W82467  25.787  29.385   8.482  0.3064 -0.0830 -0.1809
39556W        W82468  29.437  29.924   9.452 -0.0965  0.0905  0.0480
39557W        W82469  27.060  29.486   8.047  0.0108  0.1935  0.3689
39558W        W82470  26.793  31.710   8.187  0.3233 -0.2547 -0.1952
39559W        W82471  27.344  27.425   9.431 -0.1725  0.0775 -0.1403
39560W        W82472  28.957  32.296   9.586  0.0175  0.1539  0.1317
39561W        W82473  27.758  31.500   8.140 -0.3046  0.2831 -0.0185
39562W        W82474  26.429  27.778   9.354 -0.1338 -0.0449 -0.1501
39563W        W82475  28.116  30.222  10.057  0.2652  0.0129 -0.0218
39564W        W82476  28.392  29.521   9.649 -0.0669 -0.0263  0.0328
39565W        W82477  25.523  30.317   9.811  0.1411 -0.4446  0.0179
39566W        W82478  28.074  30.872   9.476  0.0083 -0.1151 -0.0214
39567W        W82479  25.179  32.115  10.160 -0.2358 -0.3102  0.0503
39568W        W82480  28.939  30.591   9.959 -0.3095  0.2891  0.1173
39569W        W82481  24.319  28.630   8.921  0.0569 -0.2399  0.0133
39570W        W82482  27.518  31.058   7.265  0.0193 -0.1770  0.0746
39571W        W82483  25.837  29.851   9.908 -0.4558 -0.0150  0.1368
39572W        W82484  25.971  33.083   6.949  0.1154  0.0213  0.0944
39573W        W82485  28.283  30.907   7.191 -0.0494  0.0641 -0.0353
39574W        W82486  27.535  30.628   7.472 -0.2079 -0.1833  0.0390
39575W        W82487  28.396  31.816   9.928 -0.0272 -0.0468  0.1281
39576W        W82488  26.626  28.927   7.785  0.1503 -0.0171  0.3454
39577W        W82489  25.727  32.262  10.001 -0.2224 -0.0063 -0.2033
39578W        W82490  25.413  32.240   7.877 -0.2228  0.3568  0.0521
39579W        W82491  28.743  31.175   7.267  0.1075  0.2966  0.0270
39580W        W82492  26.403  32.504   8.619  0.1016  0.1353  0.0825
39581W        W82493  27.990  29.209   7.563 -0.0973  0.1136 -0.0188
39582W        W82494  29.251  27.792   9.667  0.0789 -0.2228  0.1205
39583W        W82495  26.585  29.390   8.209  0.0631 -0.3819  0.1685
39584W        W82496  26.729  28.880   9.421  0.1454 -0.1939 -0.0576
39585W        W82497  26.741  29.446   7.167  0.1455 -0.0091 -0.3917
39586W        W82498  28.492  31.895   7.897  0.1529 -0.0047 -0.0380
39587W        W82499  25.690  30.696   8.806  0.0210 -0.3399 -0.4781
39588W        W82500  25.988  31.646  10.040 -0.2828  0.2687  0.2122
39589W        W82501  26.925  28.874   9.863  0.0393 -0.0495  0.0384
39590W        W82502  26.824  30.739   7.787  0.2987  0.0150 -0.2399
39591W        W82503  28.389  29.865  10.572 -0.0450  0.1873  0.4910
39592W        W82504  25.529  32.920   9.516 -0.1423 -0.1012  0.0439
39593W        W82505  27.581  32.304   9.677 -0.1342 -0.0231  0.2758
39594W        W82506  28.340  31.277   9.693  0.3270  0.3505 -0.0162
39595W        W82507  24.573  30.114   9.797  0.1872  0.2859  0.3301
39596W        W82508  29.005  29.652   9.610 -0.2645  0.0262 -0.0381
39597W        W82509  28.572  31.073  10.493  0.2933  0.0329 -0.2079
39598W        W82510  26.448  29.089   9.797 -0.3484 -0.1023  0.0047
39599W        W82511  27.362  28.844   8.686  0.1828 -0.0008  0.3482
39600W        W82512  25.780  31.053   9.780  0.0165 -0.3849 -0.2745
39601W        W82513  25.364  29.792   9.291  0.1236  0.2388  0.1611
39602W        W82514  24.967  29.648   7.958 -0.2756 -0.1568  0.0256
39603W        W82515  26.345  29.295   7.458  0.0217  0.2278 -0.0033
39604W        W82516  25.084  29.219  10.264  0.0002 -0.1654  0.0311
39605W        W82517  26.046  28.898   7.138 -0.1036 -0.1580  0.1930
39606W        W82518  26.195  30.142   9.761 -0.0566 -0.4336  0.2490
39607W        W82519  25.307  31.176  10.003  0.4031 -0.0935  0.3006
39608W        W82520  24.958  29.521   8.981  0.1916 -0.2814 -0.0239
39609W        W82521  28.705  30.823   6.907 -0.1387  0.0393  0.0573
39610W        W82522  27.062  29.299   9.504  0.3027  0.0689  0.0205
39611W        W82523  27.568  32.159   7.776  0.1376  0.0779  0.0386
39612W        W82524  28.445  30.361   8.329 -0.1435  0.0804 -0.4476
39613W        W82525  28.011  30.803  10.133 -0.0606  0.2186 -0.1501
39614W        W82526  25.830  30.117   9.393  0.1598  0.0972  0.0953
39615W        W82527  27.303  31.308   9.613  0.4095  0.1321  0.2841
39616W        W82528  29.410  30.850  10.036  0.1120 -0.0010  0.0701
39617W        W82529  25.991  28.919   8.274 -0.0881  0.2597 -0.1873
39618W        W82530  26.593  29.977   9.532 -0.1954  0.2067  0.2376
39619W        W82531  25.893  32.346   8.014  0.1363 -0.0189 -0.2868
39620W        W82532  28.381  29.247  10.125 -0.3460 -0.0181  0.1196
39621W        W82533  27.499  32.467   6.883 -0.0256  0.0139  0.0757
39622W        W82534  28.141  31.127   8.145  0.0147 -0.2232  0.2417
39623W        W82535  25.285  31.123   7.927 -0.2852 -0.0354 -0.0912
39624W        W82536  26.422  32.518   8.134  0.2557 -0.0363  0.0951
39625W        W82537  27.335  31.587   9.028  0.0705 -0.3602 -0.2406
39626W        W82538  27.814  31.294   9.307 -0.1399 -0.1088  0.3117
39627W        W82539  26.571  30.186   8.601 -0.1269  0.2822 -0.2910
39628W        W82540  28.927  30.150   8.583 -0.0822 -0.2371 -0.0601
39629W        W82541  26.039  29.620   9.393  0.0939 -0.2518 -0.0919
39630W        W82542  28.176  29.556   8.858  0.3498  0.0022  0.2784
39631W        W82543  27.375  27.494   8.528  0.2323  0.2367  0.2235
39632W        W82544  24.685  29.088   8.995  0.0864  0.2611  0.3006
39633W        W82545  25.171  30.452   8.554  0.0108 -0.0347 -0.1991
39634W        W82546  26.382  30.928   8.142  0.0033 -0.1207 -0.1647
39635W        W82547  26.354  30.456   9.408  0.2258 -0.2111  0.0454
39636W        W82548  25.076  29.974   9.889  0.0127 -0.1345  0.1839
39637W        W82549  26.210  29.747   8.474 -0.1249 -0.1330  0.0960
39638W        W82550  29.154  31.013   8.166  0.3720  0.1322 -0.4573
39639W        W82551  26.182  28.161   9.629  0.0791  0.0935 -0.0192
39640W        W82552  24.450  28.410   9.752 -0.0978 -0.1633  0.1468
39641W        W82553  27.302  31.111   8.664  0.2338  0.1463  0.3650
39642W        W82554  28.378  31.726   8.436  0.0113 -0.5502  0.1351
39643W        W82555  26.333  29.924   8.033 -0.0080 -0.2700 -0.0064
39644W        W82556  25.934  31.193   7.986  0.3450  0.1531 -0.4279
39645W        W82557  25.577  30.380   8.198 -0.0451  0.1905  0.1438
39646W        W82558  27.889  31.539   9.720 -0.4083 -0.0648 -0.2184
39647W        W82559  27.996  31.627   8.849  0.0508  0.2484  0.2538
39648W        W82560  28.654  30.672   7.524  0.0479 -0.0627  0.2502
39649W        W82561  25.020  28.821  11.042 -0.0094 -0.0774  0.1729
39650W        W82562  26.982  30.860   9.474  0.0234  0.2180 -0.0478
39651W        W82563  29.431  31.360   8.323 -0.0232  0.1816 -0.1157
39652W        W82564  28.346  29.759  10.071  0.1244 -0.1981 -0.3883
39653W        W82565  26.815  29.812   9.131 -0.0496 -0.0834  0.1127
39654W        W82566  28.432  32.286   9.641  0.0429  0.0487 -0.3950
39655W        W82567  25.154  27.686   8.122  0.5071 -0.0122 -0.0831
39656W        W82568  26.331  29.206   8.597 -0.0149  0.0806  0.2011
39657W        W82569  25.236  31.961   9.637 -0.2742 -0.1238  0.1299
39658W        W82570  25.114  28.886   9.292 -0.0971  0.0787 -0.0664
39659W        W82571  27.632  29.676   8.758 -0.0683 -0.2252 -0.2273
39660W        W82572  26.378  30.557   9.964 -0.1265  0.2172 -0.0407
39661W        W82573  27.180  29.915   7.825  0.4741 -0.2527  0.1542
39662W        W82574  28.022  30.183   8.159  0.0098  0.0278 -0.2810
39663W        W82575  28.969  32.754   9.339 -0.2007  0.1311 -0.1877
39664W        W82576  28.831  32.323   9.111  0.0870 -0.1329  0.0832
39665W        W82577  29.335  29.867   8.955  0.1368 -0.1802  0.0388
39666W        W82578  24.723  27.682   9.661  0.0003 -0.2859  0.0953
39667W        W82579  26.314  29.493   8.978 -0.2088 -0.2588 -0.2947
39668W        W82580  26.704  29.979  10.034 -0.1480 -0.1819 -0.0971
39669W        W82581  29.065  31.541  10.263  0.0771 -0.1086  0.0295
39670W        W82582  25.790  28.463   8.304 -0.0509  0.0065  0.3679
39671W        W82583  27.573  29.343   7.412  0.0741  0.0281 -0.0503
39672W        W82584  28.060  33.610  10.657 -0.1398  0.0597  0.2442
39673W        W82585  27.313  30.149  10.403 -0.1279 -0.1334  0.0368
39674W        W82586  25.264   0.042  31.602  0.3975 -0.4147  0.0063
39675W        W82587  28.470  33.710   0.597 -0.1043 -0.2122  0.1949
39676W        W82588  27.936  33.948   1.018 -0.0266 -0.0186  0.2231
39677W        W82589  24.462  33.736   1.492  0.2403  0.0003 -0.2800
39678W        W82590  25.951  32.527   3.919 -0.3862  0.2077 -0.0124
39679W        W82591  27.765  32.985  31.633  0.1907  0.1232  0.5544
39680W        W82592  26.499  34.060   1.869  0.0210 -0.1769 -0.3015
39681W        W82593  25.767  32.855   0.756  0.1464 -0.3632  0.1673
39682W        W82594  26.574  32.360   1.494 -0.0599  0.1503  0.2604
39683W        W82595  28.302  33.506   2.834 -0.0367 -0.0209 -0.0460
39684W        W82596  26.036  34.169   1.686 -0.0802  0.2470 -0.2527
39685W        W82597  26.987  33.193   1.954  0.2382  0.0413  0.0173
39686W        W82598  26.746   0.139   1.337 -0.0683 -0.0157 -0.0115
39687W        W82599  27.181   0.083   1.994 -0.3397  0.1321 -0.1035
39688W        W82600  28.587  33.369   3.425  0.2283 -0.0748 -0.1386
39689W        W82601  27.811  33.916   0.448 -0.2754 -0.1379 -0.1500
39690W        W82602  26.120  33.587   1.767  0.1021  0.2157  0.2116
39691W        W82603  26.021   0.873   3.133 -0.3571 -0.1174 -0.1672
39692W        W82604  28.651  32.950   1.708 -0.0659  0.1221 -0.2443
39693W        W82605  28.055   0.897   1.382  0.1271 -0.0479 -0.1507
39694W        W82606  28.346  32.929   2.129  0.2087 -0.3096 -0.3001
39695W        W82607  28.080   0.134   3.770  0.1380  0.1870 -0.3507
39696W        W82608  26.012  34.568   0.773 -0.0538  0.1955  0.0400
39697W        W82609  28.337  32.678   3.409  0.0504  0.0668 -0.0393
39698W        W82610  28.012  34.699  31.686  0.1702  0.3073 -0.1477
39699W        W82611  27.050  31.852  31.697 -0.1690 -0.0750  0.5042
39700W        W82612  27.998  33.291   1.157  0.0152  0.0262 -0.0204
39701W        W82613  27.861  32.376   1.844 -0.2181 -0.1992 -0.0359
39702W        W82614  27.139  34.506   1.245 -0.0312 -0.1236  0.0872
39703W        W82615  27.468  33.706   2.320 -0.4010  0.1998 -0.2189
39704W        W82616  27.755  34.683   2.178  0.1799 -0.2910  0.1728
39705W        W82617  25.120  34.359   1.241 -0.0020 -0.0835 -0.1723
39706W        W82618  25.259  34.090  31.529 -0.1759 -0.2436 -0.2221
39707W        W82619  25.629   1.038   4.058 -0.0587 -0.0340 -0.0053
39708W        W82620  25.584  34.629   2.371 -0.0242  0.0443  0.0875
39709W        W82621  27.041  33.631  31.620 -0.0469  0.2343 -0.0533
39710W        W82622  28.382  33.475   2.010  0.1144 -0.2848  0.2210
39711W        W82623  28.446  33.849   2.335  0.1268 -0.2342 -0.2013
39712W        W82624  27.942  33.785   2.572 -0.2706  0.0481  0.0636
39713W        W82625  28.546   0.018  31.728 -0.1064 -0.1630 -0.0351
39714W        W82626  25.698  33.980   3.034 -0.2439 -0.1396  0.1318
39715W        W82627  25.760  33.325   2.001  0.0142 -0.1545 -0.1791
39716W        W82628  29.488  34.161   2.215  0.3779  0.0114 -0.4115
39717W        W82629  25.785  34.509   2.990  0.0651  0.0200  0.3053
39718W        W82630  28.856  34.012   0.840  0.0380  0.1171 -0.0091
39719W        W82631  28.863  34.087   0.268 -0.0109  0.1839  0.0232
39720W        W82632  25.681  32.711   1.507 -0.1911  0.0669  0.3071
39721W        W82633  25.279  33.373   1.384 -0.0850  0.0893 -0.3361
39722W        W82634  26.246  33.542   2.527 -0.0413 -0.0776 -0.2359
39723W        W82635  27.090  33.708   1.151 -0.1611  0.0167 -0.1407
39724W        W82636  27.580   0.400   1.738  0.3490 -0.0252 -0.0269
39725W        W82637  26.349  34.104   0.695  0.0053  0.2525  0.1687
39726W        W82638  29.302   0.408   0.513 -0.0918  0.0751 -0.1581
39727W        W82639  27.639  34.298   1.235  0.1284  0.0967  0.0713
39728W        W82640  28.919  33.526   2.414 -0.1232 -0.0429 -0.3252
39729W        W82641  27.202  33.242   2.488 -0.0541  0.1991 -0.4195
39730W        W82642  25.578  33.428   0.062  0.1115 -0.2521  0.0922
39731W        W82643  27.958  33.507   0.696  0.0496 -0.0254  0.2025
39732W        W82644  26.944  33.190   3.146  0.3070  0.0256  0.0230
39733W        W82645  28.377   0.673   3.128 -0.5070  0.5453  0.0730
39734W        W82646  24.807  33.018  31.132 -0.0437 -0.0104  0.1125
39735W        W82647  26.093  34.441   0.235 -0.0730 -0.2206  0.3990
39736W        W82648  29.591  32.460   1.298  0.0085 -0.2238  0.1359
39737W        W82649  25.273  34.110   4.574  0.1727 -0.0143  0.0493
39738W        W82650  27.012   0.245   2.498 -0.2808 -0.2355 -0.0018
39739W        W82651  25.506   0.230   1.157  0.0643  0.0254  0.2139
39740W        W82652  27.438  32.441   2.144 -0.1188  0.1257  0.2525
39741W        W82653  29.257  32.790   0.042  0.0062 -0.0529 -0.2708
39742W        W82654  27.255   0.227  31.197 -0.0621  0.1650 -0.2589
39743W        W82655  27.478  33.548   2.833 -0.3298 -0.1895  0.0115
39744W        W82656  26.595  33.318   1.615  0.4274  0.1520  0.0849
39745W        W82657  26.705  34.030   2.961 -0.0966  0.0127  0.2090
39746W        W82658  25.645  34.031  30.507 -0.0581 -0.3193 -0.1890
39747W        W82659  28.668  32.553   2.409  0.1416 -0.3196  0.2087
39748W        W82660  28.914  32.520   1.845  0.1375  0.2005 -0.1355
39749W        W82661  27.666  33.287   3.311 -0.0836  0.1610  0.0857
39750W        W82662  26.927  32.849   2.743 -0.3566 -0.0416 -0.0428
39751W        W82663  29.828  33.065   3.487 -0.1975  0.0795 -0.3109
39752W        W82664  27.528  34.326   0.282  0.0028 -0.0412 -0.0329
39753W        W82665  27.560   0.165   1.215 -0.1504  0.2048 -0.1473
39754W        W82666  26.740  33.213  31.859  0.0380  0.1381 -0.1881
39755W        W82667  27.514  34.089   2.691  0.1919 -0.3650  0.1528
39756W        W82668  27.232  33.612   3.259  0.0821 -0.3313 -0.2014
39757W        W82669  27.260  32.469   0.825  0.0389 -0.1273 -0.1424
39758W        W82670  26.309  33.281   1.205  0.1758  0.1204  0.3130
39759W        W82671  28.968  34.143   2.201 -0.0636  0.1041 -0.1546
39760W        W82672  26.888  33.759   1.675 -0.1373  0.1918 -0.1120
39761W        W82673  25.189  33.715  31.097  0.3423  0.0214  0.3490
39762W        W82674  28.659  34.438   0.620  0.3165  0.0591 -0.1876
39763W        W82675  26.305   0.767   2.746 -0.0273  0.1178 -0.0967
39764W        W82676  26.015  32.786   2.014 -0.1789  0.3246  0.1773
39765W        W82677  26.898   1.098   1.961  0.0015  0.0854 -0.1313
39766W        W82678  27.171  33.327   1.510  0.2407  0.1031  0.1087
39767W        W82679  27.108   0.303   3.585  0.0454 -0.2644  0.2585
39768W        W82680  24.649  32.216   0.230 -0.0402 -0.1487 -0.0201
39769W        W82681  28.505  34.688   3.348 -0.0422 -0.1736  0.0438
39770W        W82682  26.974  33.666   2.257  0.0534 -0.4083 -0.2412
39771W        W82683  24.721   0.336   0.233 -0.1855 -0.1513  0.0692
39772W        W82684  26.274  33.203   2.106 -0.0477 -0.1353  0.3295
39773W        W82685  27.816  32.822   1.964 -0.3812 -0.0666  0.0112
39774W        W82686  27.550  33.335   0.989  0.2448  0.0492  0.1139
39775W        W82687  26.195  33.996   2.700 -0.3131 -0.1174 -0.4181
39776W        W82688  27.052  33.761   2.706 -0.2151 -0.2435 -0.2761
39777W        W82689  27.767  32.622   2.817 -0.0066 -0.1816 -0.2179
39778W        W82690  28.110  33.513   3.397  0.1811 -0.0072  0.1653
39779W        W82691  28.041  33.711   1.438  0.1842  0.1275 -0.4537
39780W        W82692  28.367  33.801   0.133  0.0635  0.0148 -0.2876
39781W        W82693  27.671  32.975   1.480  0.1731 -0.1193 -0.0682
39782W        W82694  28.925  33.372   1.597 -0.1948  0.0083 -0.0410
39783W        W82695  28.504   0.061   1.062 -0.0487  0.1885 -0.1703
39784W        W82696  27.120  32.659   5.189  0.1836  0.1076  0.1097
39785W        W82697  25.769  33.244   1.522 -0.4169 -0.1018  0.0263
39786W        W82698  25.704  33.675   2.681  0.1012  0.3517 -0.1159
39787W        W82699  26.195   1.230   4.005  0.1570 -0.1727 -0.1403
39788W        W82700  27.943  33.355   1.750  0.1800  0.0753 -0.1808
39789W        W82701  26.882  34.018   0.083  0.1767  0.1685 -0.2355
39790W        W82702  27.197   0.839   2.380  0.2648 -0.1216 -0.2437
39791W        W82703  28.530   0.270   2.938 -0.2248 -0.1731  0.3573
39792W        W82704  25.541   0.943   3.403 -0.3675 -0.3458 -0.2069
39793W        W82705  28.695   0.742   0.727  0.0682 -0.1572  0.0618
39794W        W82706  25.603  32.579   2.416  0.2012  0.3860 -0.0153
39795W        W82707  28.305  34.247   1.930  0.3164 -0.1124 -0.0076
39796W        W82708  27.937  34.210   2.348  0.0478  0.0920  0.2250
39797W        W82709  29.813  32.950   2.534  0.1410  0.0245 -0.0544
39798W        W82710  27.359   0.305   4.425  0.0924 -0.2155 -0.0127
39799W        W82711  26.217   0.048   3.066 -0.0824  0.2371  0.1168
39800W        W82712  29.124  32.797  31.560 -0.2413  0.1741 -0.1938
39801W        W82713  27.882  33.848   3.052 -0.0639  0.2716  0.2201
39802W        W82714  29.249  33.964   2.615 -0.2356 -0.2674  0.0563
39803W        W82715  27.215  33.787  31.228 -0.0563 -0.0268  0.1265
39804W        W82716  25.558  33.768   2.187 -0.1547  0.1284  0.0612
39805W        W82717  27.922   0.862   2.989  0.0230 -0.0295 -0.1227
39806W        W82718  27.700  33.750  30.900 -0.1894  0.0053 -0.2210
39807W        W82719  28.307  33.899   3.638  0.0335  0.0501 -0.2495
39808W        W82720  28.158  34.258   1.428  0.5464  0.0156  0.1983
39809W        W82721  24.968  30.976   1.898  0.1718 -0.0135 -0.3756
39810W        W82722  27.210  34.086   1.500  0.3140  0.2364  0.0411
39811W        W82723  27.499  33.807   0.885 -0.0545 -0.2715 -0.1286
39812W        W82724  28.325  33.182   0.412  0.0982 -0.0131  0.0765
39813W        W82725  28.729  32.950   3.746  0.0242 -0.2683  0.3756
39814W        W82726  28.543  32.536   1.435 -0.0356 -0.0890  0.0490
39815W        W82727  27.529  33.301   1.927 -0.4234  0.0742 -0.2469
39816W        W82728  27.464   0.019   2.603  0.3032  0.3187 -0.0488
39817W        W82729  26.856  34.528   1.697  0.1149 -0.4888 -0.2364
39818W        W82730  29.059  32.464   1.337  0.2481 -0.2841 -0.3833
39819W        W82731  26.058  33.941   2.190  0.0192 -0.2892 -0.3313
39820W        W82732  24.876   0.705   3.474 -0.0571  0.0774  0.2589
39821W        W82733  25.351  32.892   0.956  0.1074  0.0694  0.0428
39822W        W82734  27.154  32.982   1.131  0.0976  0.1050 -0.0355
39823W        W82735  29.947  32.280  29.989  0.0445 -0.1702  0.1445
39824W        W82736  28.287  34.039   2.786 -0.3535  0.1044 -0.0137
39825W        W82737  28.510  33.260  30.858  0.0153 -0.0174  0.1205
39826W        W82738  27.475  34.198   2.174 -0.0795 -0.0313  0.2998
39827W        W82739  26.182  33.790  31.291 -0.1024  0.2265 -0.3399
39828W        W82740  26.602   0.099   2.035 -0.0452  0.2653 -0.3697
39829W        W82741  29.282  33.045   2.757 -0.1344  0.3572 -0.2265
39830W        W82742  24.824  34.406  31.228 -0.0510  0.0910 -0.0114
39831W        W82743  27.494  34.548   1.682  0.2246  0.1756  0.2326
39832W        W82744  29.343  32.445   2.083  0.0309  0.0377  0.1357
39833W        W82745  27.989  34.699   1.755  0.0186  0.2389 -0.0396
39834W        W82746  26.358  33.946   0.217  0.0821 -0.1917  0.3556
39835W        W82747  29.415  34.679   0.726  0.0428 -0.1286  0.1272
39836W        W82748  27.100  34.419   3.363  0.1046 -0.1200  0.0811
39837W        W82749  28.239   0.076   2.464  0.2901 -0.3827 -0.3728
39838W        W82750  27.087   0.245   0.885  0.3307 -0.4790  0.2183
39839W        W82751  27.907  34.313  31.954 -0.1445 -0.2091  0.1834
39840W        W82752  26.021   0.037   1.274  0.3358 -0.1687  0.2128
39841W        W82753  27.787   0.539   0.455  0.0838  0.0523  0.2118
39842W        W82754  29.642  33.389   3.776 -0.0708 -0.0488  0.3218
39843W        W82755  28.365   1.446  31.656 -0.0831 -0.2544  0.0927
39844W        W82756  26.363  33.400   0.163  0.1654  0.1126  0.1574
39845W        W82757  27.776  33.928  31.343 -0.1450  0.0683  0.0385
39846W        W82758  27.363  34.280   0.841  0.3128  0.5152 -0.1590
39847W        W82759  26.565   0.188   3.500 -0.2173 -0.0630 -0.0040
39848W        W82760  25.329  33.886   1.164 -0.0262  0.0733  0.2965
39849W        W82761  28.505  34.675   1.602 -0.2172  0.2079  0.0463
39850W        W82762  29.906  34.680   1.746  0.0662 -0.3568  0.0214
39851W        W82763  24.956  33.672   0.375 -0.0379  0.1674 -0.1069
39852W        W82764  26.939  32.465   1.888 -0.2604  0.2232  0.0230
39853W        W82765  27.049  34.116   2.000 -0.2981 -0.2675  0.0866
39854W        W82766  27.802   0.799   2.433 -0.0278 -0.2162 -0.1757
39855W        W82767  28.459  33.949   4.576 -0.0790 -0.1464 -0.0233
39856W        W82768  28.361  33.067   4.542  0.2512 -0.1106  0.0003
39857W        W82769  27.965   0.520   0.939 -0.5000 -0.2467 -0.2142
39858W        W82770  26.351  33.065   2.775  0.2661 -0.1112 -0.1039
39859W        W82771  28.915  33.057   1.207  0.2253  0.1648  0.1686
39860W        W82772  27.760  34.063   1.666 -0.0391  0.2637  0.2377
39861W        W82773  25.314  34.344   2.765 -0.1737  0.0524  0.0266
39862W        W82774  23.452  33.355  31.826  0.0890  0.0822 -0.3714
39863W        W82775  27.219  33.144   3.997 -0.0403  0.0100 -0.0400
39864W        W82776  26.230  33.000   1.599  0.1374 -0.0738 -0.0287
39865W        W82777  24.682  33.888   1.908 -0.0787 -0.2932 -0.0721
39866W        W82778  26.644  32.157   0.404  0.3115 -0.2063 -0.0794
39867W        W82779  26.802  32.279   1.000 -0.2254  0.2458  0.1316
39868W        W82780  25.507   0.489   0.575  0.0356  0.0871  0.0121
39869W        W82781  26.522  33.601   2.069  0.0452  0.0662  0.2898
39870W        W82782  26.472   0.516   3.134 -0.0151  0.0731 -0.1105
39871W        W82783  26.572  34.454   3.290 -0.0372  0.0104  0.0213
39872W        W82784  26.190   1.415  31.735  0.1901  0.0317 -0.2624
39873W        W82785  26.259  34.234   1.171 -0.1236 -0.1212  0.1933
39874W        W82786  26.006  32.888   3.483  0.1455  0.0586 -0.1295
39875W        W82787  28.670  32.106   1.631 -0.0664  0.1811 -0.0939
39876W        W82788  28.042   0.077   1.261 -0.0608 -0.0363  0.0931
39877W        W82789  25.611  33.555   4.728 -0.2561 -0.1774 -0.0985
39878W        W82790  25.382  33.799   0.556 -0.1622 -0.2980 -0.1395
39879W        W82791  27.919  33.794   2.042 -0.0777  0.0511 -0.1980
39880W        W82792  26.666  34.033   2.452 -0.1916 -0.3024 -0.2730
39881W        W82793  27.053  34.555   0.481 -0.4285  0.0936  0.1643
39882W        W82794  26.719  34.634   3.937  0.0105 -0.0126  0.4232
39883W        W82795  26.624  34.439   1.052 -0.2835  0.3882 -0.4718
39884W        W82796  29.465   0.443   0.041 -0.3235 -0.0001  0.2711
39885W        W82797  26.861  32.956   1.561 -0.0597  0.0330 -0.1339
39886W        W82798  26.662  33.858   0.959 -0.1396  0.0668 -0.2977
39887W        W82799  26.375  34.513   1.642 -0.0886 -0.0606 -0.0703
39888W        W82800  28.550  34.332   2.356 -0.0223 -0.1989  0.0939
39889W        W82801  26.666  32.847   2.136 -0.0394  0.2662 -0.2048
39890W        W82802  27.097  33.113  31.506 -0.0027  0.0175  0.2517
39891W        W82803  27.352   0.361   5.345 -0.0194 -0.0055  0.0869
39892W        W82804  28.334  33.612   4.902  0.1377 -0.0269  0.1153
39893W        W82805  28.829  34.184   4.896  0.0923 -0.0026  0.0497
39894W        W82806  26.058  33.447   5.006  0.0345  0.0014  0.0089
39895W        W82807  26.369  31.854   7.347  0.0603  0.0691  0.0222
39896W        W82808  26.903  33.870   4.412 -0.0688 -0.0958 -0.0190
39897W        W82809  27.126  34.331   7.121  0.2858  0.0167  0.0895
39898W        W82810  27.441  33.407   4.791 -0.1300  0.4024 -0.1706
39899W        W82811  25.048  32.509   6.476 -0.1016  0.3694 -0.1557
39900W        W82812  27.818   0.214   5.957  0.0019 -0.0976 -0.3521
39901W        W82813  25.172  34.579   4.856 -0.0474 -0.1481 -0.1315
39902W        W82814  26.946  34.210   5.247 -0.0267 -0.2792 -0.1315
39903W        W82815  26.649   0.842   5.232 -0.0408  0.0855 -0.1014
39904W        W82816  28.093  33.544   5.856 -0.0002 -0.0271  0.1828
39905W        W82817  27.413  32.937   8.309  0.0002  0.0950  0.2169
39906W        W82818  24.344  34.221   3.600 -0.0278  0.0097 -0.2404
39907W        W82819  24.179  34.454   5.876 -0.1385  0.1256  0.1173
39908W        W82820  26.511  33.926   6.440  0.0348  0.3570 -0.2017
39909W        W82821  27.641  32.987   5.131  0.1166  0.2186  0.3039
39910W        W82822  27.813  33.956   6.162  0.0351 -0.1313 -0.1007
39911W        W82823  28.388  33.009   7.735  0.0388 -0.2850  0.2115
39912W        W82824  27.851   1.238   5.231 -0.3813 -0.4522  0.3095
39913W        W82825  26.103   0.404   6.535 -0.1012  0.0593  0.3768
39914W        W82826  30.169  32.988   7.775  0.2398  0.0363 -0.0479
39915W        W82827  29.713  34.228   3.928 -0.4194  0.0796  0.1949
39916W        W82828  27.153  34.244   4.082 -0.0483 -0.2530 -0.0212
39917W        W82829  28.130  34.618   4.243  0.5900 -0.0945 -0.0371
39918W        W82830  26.810  32.340   6.191 -0.0735 -0.0435 -0.3232
39919W        W82831  27.808  33.178   5.658  0.1045  0.0775  0.0489
39920W        W82832  27.893  34.179   5.281  0.0448  0.0287 -0.1929
39921W        W82833  27.365  33.210   5.862 -0.0561  0.1606  0.0684
39922W        W82834  27.210  34.429   6.556 -0.1174  0.0701 -0.0820
39923W        W82835  26.078   0.985   5.906  0.2612  0.0251 -0.0269
39924W        W82836  26.443  34.351   6.033 -0.4348  0.0622 -0.2648
39925W        W82837  26.400  33.859   6.950 -0.2033  0.3229 -0.0818
39926W        W82838  26.425  32.525   5.427  0.1026 -0.1316  0.3118
39927W        W82839  27.628  34.348   4.174 -0.0319  0.3476  0.2888
39928W        W82840  28.484  32.786   5.208  0.1323 -0.0125 -0.0216
39929W        W82841  27.675  32.401   5.873 -0.0107 -0.2791  0.1122
39930W        W82842  28.478  34.430   3.723  0.1608  0.1343  0.0606
39931W        W82843  27.381  33.915   7.289  0.0121  0.2260 -0.1201
39932W        W82844  26.025  34.019   5.120 -0.2670  0.2368 -0.1058
39933W        W82845  27.553  32.462   5.251 -0.2784 -0.0470  0.0337
39934W        W82846  25.927  32.225   6.745  0.1204 -0.1815 -0.1170
39935W        W82847  28.327  34.100   5.004 -0.2097  0.3058 -0.2016
39936W        W82848  28.185  34.031   5.695 -0.1288  0.0768  0.1191
39937W        W82849  25.205  34.662   6.204 -0.2885  0.1807  0.1246
39938W        W82850  26.925  33.798   4.892 -0.0775 -0.1504  0.1757
39939W        W82851  26.322  33.126   7.332  0.1588 -0.0126 -0.2412
39940W        W82852  26.175  33.320   5.943  0.0140  0.3500  0.1214
39941W        W82853  28.292  33.445   7.406  0.1899 -0.0692 -0.2817
39942W        W82854  25.220  33.919   5.583 -0.0032  0.0440  0.2166
39943W        W82855  27.939  32.737   6.860 -0.2155 -0.2109 -0.2586
39944W        W82856  26.949   0.546   4.504 -0.0950  0.1116 -0.1114
39945W        W82857  28.287  32.727   8.266  0.0285 -0.0389  0.0851
39946W        W82858  27.175  33.439   7.393 -0.1295 -0.2668 -0.0507
39947W        W82859  26.608  34.343   4.359  0.1391 -0.0160  0.1277
39948W        W82860  26.493  33.930   5.322 -0.3565  0.2109  0.0069
39949W        W82861  28.384  32.942   7.121 -0.0640 -0.1774  0.1835
39950W        W82862  28.431   0.599   5.786 -0.0234  0.0312 -0.1335
39951W        W82863  25.140  33.015   3.622 -0.0108 -0.1395 -0.0504
39952W        W82864  27.741  34.500   6.194  0.2349  0.2167 -0.0083
39953W        W82865  29.533  32.252   5.250  0.1301  0.0190  0.1685
39954W        W82866  25.090   0.125   7.579 -0.0715  0.0302  0.1987
39955W        W82867  27.556  32.981   7.155 -0.1971 -0.2148  0.1047
39956W        W82868  25.466   0.195   4.180 -0.2854 -0.0482 -0.0941
39957W        W82869  28.188  32.011   5.948 -0.3386  0.0858 -0.1695
39958W        W82870  28.444  34.438   4.623 -0.0986 -0.0346 -0.0033
39959W        W82871  28.212  33.547   4.397 -0.0204  0.2644 -0.0262
39960W        W82872  27.579  32.860   4.553  0.1562  0.0237  0.0076
39961W        W82873  27.252  33.704   5.889 -0.1177  0.0538  0.0332
39962W        W82874  26.590  33.337   6.267  0.2318  0.0172 -0.1408
39963W        W82875  27.910  33.255   2.357 -0.1559  0.1958 -0.3010
39964W        W82876  28.281  33.011   5.649  0.1240  0.1177  0.4372
39965W        W82877  27.062  32.967   7.323 -0.1188  0.3888  0.2987
39966W        W82878  27.071  32.584   6.563  0.2820 -0.0148  0.3157
39967W        W82879  26.862  33.545   6.643 -0.3339 -0.0219  0.0923
39968W        W82880  28.565   0.003   7.396 -0.0777  0.1377 -0.3269
39969W        W82881  28.219   0.576   4.047 -0.4931 -0.2495 -0.0188
39970W        W82882  27.372   0.194   6.261  0.0246 -0.2499  0.0821
39971W        W82883  26.665  33.273   2.441  0.2957 -0.0879  0.1565
39972W        W82884  27.927  32.211   6.723 -0.2161  0.0252 -0.0340
39973W        W82885  27.630  33.355   8.152 -0.2213  0.1455  0.1499
39974W        W82886  27.802  32.326   4.710  0.0153 -0.2428  0.1468
39975W        W82887  26.711  33.290   5.007  0.3732  0.2383 -0.1704
39976W        W82888  28.747  32.705   5.600  0.1891 -0.1949 -0.2738
39977W        W82889  26.809  34.563   4.866 -0.1001  0.1619 -0.1092
39978W        W82890  25.528   0.329   6.344  0.2836  0.0077 -0.0113
39979W        W82891  28.963  33.079   4.156 -0.4985 -0.0826 -0.1863
39980W        W82892  25.977  33.647   5.473 -0.1749  0.0241  0.0431
39981W        W82893  27.280  31.881   6.197 -0.1029 -0.0425  0.2015
39982W        W82894  29.161  34.293   5.806  0.0674 -0.0212 -0.0544
39983W        W82895  28.764  33.062   2.730  0.0751 -0.0065 -0.0001
39984W        W82896  26.734  34.240   6.821 -0.1954  0.0203 -0.0576
39985W        W82897  24.823  33.922   3.504 -0.3709 -0.1908  0.0935
39986W        W82898  28.571  33.411   5.837 -0.1754 -0.0749 -0.5506
39987W        W82899  27.341  34.239   5.506  0.0483  0.0933  0.0313
39988W        W82900  26.945  34.467   2.348  0.0863 -0.1190 -0.2006
39989W        W82901  26.598  32.808   5.923 -0.2761 -0.0455 -0.0875
39990W        W82902  27.410  33.479   6.381  0.1294  0.1787 -0.1121
39991W        W82903  25.071  34.531   4.386 -0.1444  0.0176 -0.0341
39992W        W82904  27.686   0.739   5.245 -0.2474 -0.1005  0.2778
39993W        W82905  28.114  33.928   6.565  0.1354  0.0900 -0.4551
39994W        W82906  26.641  32.447   6.708 -0.1919 -0.0001  0.1011
39995W        W82907  28.187  34.086   7.791 -0.1429 -0.1391  0.2058
39996W        W82908  28.048  33.059   6.117 -0.1135 -0.3261  0.0592
39997W        W82909  28.731  33.262   5.407 -0.2725  0.1317 -0.1643
39998W        W82910  27.682  33.862   5.664 -0.2163 -0.2369 -0.0605
39999W        W82911  28.974  33.351   7.119 -0.3538  0.0791  0.3138
40000W        W82912  27.893  33.736   4.808  0.0245 -0.1675 -0.0392
40001W        W82913  28.583  32.503   7.681 -0.1725 -0.2230 -0.1224
40002W        W82914  26.059  33.061   6.370  0.3323  0.3038  0.0892
40003W        W82915  26.858  33.250   5.859 -0.0773 -0.0361 -0.1184
40004W        W82916  25.444  33.879   7.206  0.0438  0.0450  0.0186
40005W        W82917  27.483  32.796   5.642 -0.4628 -0.1504 -0.3162
40006W        W82918  25.842  34.547   3.981  0.4154 -0.0802 -0.2541
40007W        W82919  26.847   0.033   6.408  0.0466  0.2178 -0.0005
40008W        W82920  28.763  34.103   5.403  0.0265 -0.1063  0.2992
40009W        W82921  26.579  34.685   5.603  0.2700 -0.1239 -0.2198
40010W        W82922  27.368  34.282   4.986  0.1060 -0.0291 -0.2363
40011W        W82923  27.379  31.859   7.352 -0.1291  0.0285 -0.1631
40012W        W82924  27.001  32.109   6.677  0.1382  0.2736  0.0995
40013W        W82925  27.738  32.077   7.210 -0.1026 -0.1374 -0.1306
40014W        W82926  28.874  33.798   5.815  0.3585  0.2697 -0.1802
40015W        W82927  27.958  33.256   6.955 -0.2215  0.2167  0.0016
40016W        W82928  25.561  33.522   5.644  0.2558  0.0014  0.1952
40017W        W82929  29.170  32.668   5.253  0.0508 -0.3392  0.1041
40018W        W82930  29.463  33.235   7.224  0.1655  0.1218  0.0130
40019W        W82931  27.967  33.653   5.281  0.1497  0.0431 -0.0455
40020W        W82932  28.045  33.503   3.918 -0.1112 -0.1842 -0.0989
40021W        W82933  26.751   0.115   4.415 -0.0043 -0.2876  0.2535
40022W        W82934  27.689  33.712   6.839  0.3571  0.1452 -0.0878
40023W        W82935  26.475   0.690   4.738 -0.1068  0.0088  0.0091
40024W        W82936  27.065  33.150   6.318 -0.2455  0.0341  0.2124
40025W        W82937  27.167  33.188   5.255  0.0833  0.0376  0.1944
40026W        W82938  25.682  34.095   5.496  0.4503 -0.1563  0.1039
40027W        W82939  26.708  34.026   3.983  0.1987 -0.0030 -0.0744
40028W        W82940  26.514   0.574   2.159 -0.0652 -0.2151  0.1410
40029W        W82941  25.458  33.176   2.797  0.1578  0.1629 -0.0058
40030W        W82942  29.710  33.895   7.705  0.2119  0.0491 -0.0231
40031W        W82943  27.603  31.940   5.677 -0.1321  0.0598 -0.2339
40032W        W82944  26.361  32.478   6.194  0.1426  0.0643  0.1966
40033W        W82945  28.606   0.153   4.846 -0.0466 -0.1934 -0.0291
40034W        W82946  28.437   0.003   6.377 -0.0229  0.0830  0.0901
40035W        W82947  28.309  32.938   6.556 -0.3887 -0.3722 -0.3058
40036W        W82948  27.000  34.487   5.930 -0.0534  0.1445 -0.1627
40037W        W82949  26.158  32.662   6.622  0.0026 -0.1282 -0.1777
40038W        W82950  25.098  34.038   5.051 -0.2083  0.1534 -0.2613
40039W        W82951  27.493   0.622   3.299  0.2267 -0.0361  0.0329
40040W        W82952  29.805  33.153   5.573 -0.1164 -0.3021 -0.0375
40041W        W82953  27.934  34.208   4.558  0.2152  0.0840 -0.2648
40042W        W82954  27.916  32.584   6.354 -0.3157 -0.0793  0.5693
40043W        W82955  27.620   1.046   5.679  0.0505 -0.3432 -0.1443
40044W        W82956  25.888  33.341   3.030 -0.0235 -0.3815 -0.1855
40045W        W82957  26.668  33.501   8.086  0.0342  0.1096 -0.2814
40046W        W82958  28.625  33.312   6.730  0.5360  0.0551 -0.0877
40047W        W82959  25.646  34.588   4.569 -0.1368  0.1024 -0.1880
40048W        W82960  27.197   1.154   5.432  0.0102 -0.1612 -0.1913
40049W        W82961  29.125  32.413   6.813 -0.0452 -0.1359 -0.1594
40050W        W82962  28.483   0.293   5.362  0.1915 -0.1120  0.0176
40051W        W82963  26.278   0.212   3.942 -0.2238  0.0502  0.1716
40052W        W82964  28.223  34.273   6.192  0.1723 -0.0191 -0.4210
40053W        W82965  27.326  33.369   6.885  0.0051  0.0008  0.2608
40054W        W82966  27.952  33.909   7.267 -0.2446  0.1066  0.1488
40055W        W82967  27.441   1.120   4.991 -0.3874  0.2730 -0.0704
40056W        W82968  28.088  32.725   4.860  0.0324  0.1925 -0.1544
40057W        W82969  26.897  33.920   7.202 -0.2426  0.1699  0.0315
40058W        W82970  27.906  34.544   2.742  0.0667 -0.1715 -0.0355
40059W        W82971  29.626  34.339   6.680 -0.1264 -0.1770 -0.0174
40060W        W82972  28.515  34.495   2.854  0.1715 -0.3696 -0.1689
40061W        W82973  27.035  33.739   5.431 -0.1406 -0.0041  0.1128
40062W        W82974  28.151  34.014   4.125  0.3273 -0.0693  0.2985
40063W        W82975  27.388  34.161   5.996  0.2448 -0.2381  0.0172
40064W        W82976  27.240  33.922   6.794  0.3698 -0.1670  0.2495
40065W        W82977  27.189  34.528   4.477 -0.0141 -0.0093  0.0595
40066W        W82978  27.700  34.291   7.106 -0.1468  0.0789 -0.1675
40067W        W82979  28.726   0.945   5.489  0.0491  0.2972 -0.2527
40068W        W82980  26.006  33.973   6.133  0.1282  0.0321 -0.2929
40069W        W82981  28.021  31.915   4.962  0.2430 -0.0788 -0.4839
40070W        W82982  26.996  34.012   6.322 -0.3356  0.0281 -0.1899
40071W        W82983  28.551  32.844   6.087  0.1980 -0.2108  0.1036
40072W        W82984  27.462  32.379   6.365 -0.2733 -0.2256 -0.0384
40073W        W82985  28.817  31.957   6.701  0.1760 -0.0909 -0.0609
40074W        W82986  27.546  33.515   3.745 -0.1768  0.0330 -0.0031
40075W        W82987  26.337  33.918   3.613  0.0437  0.1615  0.3806
40076W        W82988  29.377  32.867   5.686  0.0484  0.0264  0.2870
40077W        W82989  28.441  32.255   5.507 -0.1907  0.4509 -0.0941
40078W        W82990  26.962   0.592   5.574 -0.1193 -0.0389 -0.3039
40079W        W82991  24.579  34.617   4.257  0.1963 -0.1389  0.0557
40080W        W82992  26.731  33.418   7.112 -0.3370  0.0011 -0.1273
40081W        W82993  25.573  34.285   6.343  0.1944 -0.0465 -0.0984
40082W        W82994  26.296   0.316   4.458  0.0405 -0.0089 -0.2161
40083W        W82995  25.503  34.017   5.946  0.2441  0.4061  0.0344
40084W        W82996  26.452  34.110   4.789 -0.0243 -0.2178  0.1516
40085W        W82997  24.738  33.309   5.937 -0.0985  0.0711 -0.0395
40086W        W82998  27.470  33.810   5.135  0.0140  0.2364  0.1712
40087W        W82999  29.037  32.650   6.061 -0.2726 -0.0244 -0.2178
40088W        W83000  26.426  33.732   5.910 -0.2201 -0.1719 -0.3928
40089W        W83001  26.282  33.403   3.732 -0.0336  0.1096 -0.0883
40090W        W83002  27.556  32.862   6.135 -0.0716  0.1499  0.2154
40091W        W83003  24.497  31.927   6.529  0.0294 -0.0652  0.1887
40092W        W83004  29.201  33.378   6.642 -0.3678 -0.0193  0.0193
40093W        W83005  27.357  34.043   3.151 -0.0838  0.0175 -0.1816
40094W        W83006  27.482  33.298   8.596 -0.0088 -0.0014 -0.0653
40095W        W83007  26.137  34.134   5.624  0.4581 -0.2363  0.2523
40096W        W83008  27.914  33.192   4.720  0.0575 -0.0380  0.1581
40097W        W83009  27.013  34.646   5.395 -0.2002  0.0419  0.0225
40098W        W83010  27.173   0.076   4.020 -0.3191 -0.1923 -0.0987
40099W        W83011  28.247  34.215   6.949 -0.2830 -0.0043  0.5190
40100W        W83012  26.152  33.786   4.087  0.1145  0.2412 -0.0423
40101W        W83013  29.778   0.098   4.061  0.0050  0.1043 -0.1624
40102W        W83014  25.636  32.682   5.743 -0.2967  0.0923 -0.1607
40103W        W83015  25.411   0.063   3.657  0.3031 -0.0343 -0.2260
40104W        W83016  28.184   1.107   5.592  0.2666  0.2595  0.0847
40105W        W83017  28.445  33.643   5.434  0.1214  0.1404 -0.1340
40106W        W83018  26.851  34.063   5.725 -0.1453 -0.1983  0.0267
40107W        W83019  27.932  31.278   4.298 -0.2591  0.0986  0.0679
40108W        W83020  26.357  34.098   9.085  0.0443  0.2637 -0.0921
40109W        W83021  28.712  33.987   7.571 -0.2009 -0.0599 -0.0109
40110W        W83022  29.354   0.482   8.193 -0.1612 -0.3750 -0.1542
40111W        W83023  27.168  34.138   8.856 -0.0990 -0.3931  0.0111
40112W        W83024  27.454  33.680   7.710 -0.1047  0.0699 -0.0329
40113W        W83025  26.549  32.562   9.771 -0.2569  0.0059  0.1816
40114W        W83026  27.142  32.467   8.469  0.1104 -0.3320  0.0287
40115W        W83027  25.965  33.264   9.274  0.0922  0.0073  0.1279
40116W        W83028  28.324   0.661   9.858  0.0691  0.1210  0.0688
40117W        W83029  26.533  34.616   9.328 -0.1010  0.0872  0.1638
40118W        W83030  26.532  33.537   9.659  0.0773 -0.1201 -0.2870
40119W        W83031  27.643  33.905   8.455 -0.0087 -0.1320  0.1497
40120W        W83032  27.550  32.867   9.687  0.0962 -0.1759 -0.0888
40121W        W83033  26.325  33.758   8.643  0.1211  0.2038  0.0527
40122W        W83034  26.167   1.136   9.427  0.2757 -0.2077 -0.4441
40123W        W83035  26.152  32.502  10.156  0.1704 -0.0206 -0.3328
40124W        W83036  27.887  33.326   9.628  0.1348 -0.3270 -0.0406
40125W        W83037  28.134   0.602   8.789  0.2763 -0.0079  0.1841
40126W        W83038  27.847   0.998   9.626 -0.2781  0.0025 -0.2124
40127W        W83039  28.697   1.039   9.228  0.2341  0.0372 -0.0475
40128W        W83040  28.139  33.153   9.102  0.1868 -0.0048 -0.0314
40129W        W83041  26.478  33.756   7.446 -0.2279 -0.0876 -0.0463
40130W        W83042  28.623  33.212   9.162  0.3595 -0.0236 -0.2788
40131W        W83043  26.868  32.480   8.904 -0.0313 -0.0017  0.3420
40132W        W83044  27.858  34.584   9.129 -0.1430 -0.1166 -0.0640
40133W        W83045  26.316  34.651   8.116 -0.0986  0.0957  0.1170
40134W        W83046  29.918  32.077   9.008  0.2520  0.1705  0.0525
40135W        W83047  27.220  33.772  10.070 -0.5044  0.2787 -0.0432
40136W        W83048  26.942  33.862   9.678 -0.1917  0.0234 -0.3334
40137W        W83049  28.163  33.259   8.246 -0.0815 -0.0005  0.1462
40138W        W83050  28.702  34.608   8.925  0.2843 -0.0342  0.0980
40139W        W83051  27.482  31.765   9.945  0.0788 -0.0496  0.2204
40140W        W83052  28.113  33.383  10.055 -0.0518  0.0917  0.1890
40141W        W83053  28.694  33.249   8.149 -0.1590 -0.1002  0.0965
40142W        W83054  25.040  32.697   9.599 -0.0699  0.0116 -0.0052
40143W        W83055  28.477  32.695   9.204  0.0572  0.2797 -0.0863
40144W        W83056  28.106  32.131   8.605 -0.2289 -0.2617  0.0394
40145W        W83057  28.862  33.802   8.488  0.1076 -0.4444 -0.0292
40146W        W83058  25.664  34.580   9.242  0.1465 -0.0223  0.1110
40147W        W83059  26.004  33.716   8.256 -0.1443  0.2182 -0.0949
40148W        W83060  25.941  33.726   8.977 -0.1454 -0.1146 -0.1695
40149W        W83061  25.804  33.327   8.041  0.0241 -0.0766  0.0500
40150W        W83062  28.659  31.007  11.036  0.1191 -0.3199  0.1342
40151W        W83063  25.874   0.423  10.409  0.2091  0.0249  0.3190
40152W        W83064  25.764  32.746  10.273 -0.0267 -0.2128 -0.0113
40153W        W83065  27.946  33.453   8.679  0.2692 -0.0137  0.2137
40154W        W83066  27.133  33.378   8.918 -0.4245 -0.2084 -0.0171
40155W        W83067  28.530  34.431   8.447 -0.1821 -0.0144  0.1250
40156W        W83068  25.607  33.617   7.671  0.1195  0.1909  0.1748
40157W        W83069  26.762   0.345   9.852 -0.0868 -0.0978 -0.1475
40158W        W83070  28.773  31.212   9.350 -0.0542 -0.1787  0.0554
40159W        W83071  26.743  34.393   8.003 -0.2000  0.3061  0.0383
40160W        W83072  28.577  32.383   8.690  0.3255 -0.0487  0.1461
40161W        W83073  29.409  33.454   7.712 -0.2566  0.2358 -0.0043
40162W        W83074  28.453  33.063   8.597  0.1114  0.0391  0.0736
40163W        W83075  27.501  33.205   7.711 -0.1970  0.1626  0.2613
40164W        W83076  27.924  33.451   7.733  0.0464  0.0964  0.0107
40165W        W83077  28.849  33.433   9.637  0.2106 -0.2840 -0.1695
40166W        W83078  26.942  33.839   7.895 -0.0189 -0.1546 -0.1490
40167W        W83079  27.422  31.581   7.799 -0.2209  0.1705 -0.3556
40168W        W83080  28.091  32.802   9.485 -0.2583 -0.1958  0.1325
40169W        W83081  27.279  31.960   9.329  0.3937  0.0702  0.1395
40170W        W83082  28.891  32.855   7.866  0.0707  0.0688  0.2420
40171W        W83083  28.561   0.284   9.545  0.1643  0.0519  0.1267
40172W        W83084  26.681  34.613   8.445  0.2811 -0.1098 -0.0588
40173W        W83085  27.641  34.282   8.823  0.3102 -0.1185 -0.0458
40174W        W83086  27.838  32.864   7.904 -0.4935 -0.1419 -0.1378
40175W        W83087  27.136  33.366   7.994 -0.2778  0.0030 -0.1219
40176W        W83088  29.309  31.716   9.609 -0.2697 -0.0481  0.0192
40177W        W83089  27.190  33.747   8.338 -0.1822  0.0979 -0.0324
40178W        W83090  26.681  33.012   9.852  0.0245 -0.1272  0.1354
40179W        W83091  29.614   0.160   8.598  0.3169 -0.2364  0.1051
40180W        W83092  25.875  33.629  10.063  0.2640 -0.1575  0.1016
40181W        W83093  27.351  31.053   9.175 -0.0601  0.1335  0.3754
40182W        W83094  28.142  31.576   7.851 -0.1003 -0.1249 -0.5096
40183W        W83095  27.451  33.743   8.856  0.3673  0.2282  0.1039
40184W        W83096  30.374  34.145  10.477 -0.3609 -0.5419  0.1757
40185W        W83097  25.815  34.487   8.227  0.1374 -0.2744 -0.1859
40186W        W83098  26.350  32.535   9.112  0.2027  0.2267  0.0908
40187W        W83099  27.730   1.600   9.648  0.1745  0.0179 -0.0323
40188W        W83100  27.662  32.014   8.990 -0.1991 -0.3377 -0.1696
40189W        W83101  26.996  33.227   8.449 -0.2154 -0.0644  0.0933
40190W        W83102  27.198  32.904   9.340  0.0321  0.0813 -0.1058
40191W        W83103  28.412   1.912  10.225 -0.2115  0.0561 -0.3526
40192W        W83104  27.173  31.355   8.174 -0.2167  0.2013 -0.1230
40193W        W83105  28.743  33.012  10.125  0.2094 -0.1603  0.2346
40194W        W83106  28.775  32.033   8.351 -0.2185 -0.1690  0.0354
40195W        W83107  27.574  33.185   9.121  0.1474  0.0323  0.0053
40196W        W83108  28.612  34.368   7.860  0.1042 -0.2851  0.2578
40197W        W83109  26.432  33.114   9.447  0.1087 -0.4952 -0.1732
40198W        W83110  28.321  34.412   9.256 -0.2501  0.3611  0.2230
40199W        W83111  26.985  32.834   7.907 -0.0876  0.0770  0.0557
40200W        W83112  27.659  33.779   9.676 -0.0422  0.0973  0.2014
40201W        W83113  27.996  34.061   9.372 -0.2677 -0.2588  0.0934
40202W        W83114  25.631  33.526   9.609  0.3497 -0.2841 -0.0677
40203W        W83115  28.280  33.664   9.270 -0.0584  0.2709  0.0791
40204W        W83116  28.523  30.923   8.560  0.0413  0.0168  0.0254
40205W        W83117  28.728  32.652   9.807  0.2048 -0.0916  0.0332
40206W        W83118  29.376   1.457   9.862  0.1558  0.2397  0.0751
40207W        W83119  29.162  34.635   9.091 -0.1945  0.2197 -0.0906
40208W        W83120  28.888  32.835   8.819 -0.0181  0.1289 -0.0169
40209W        W83121  26.271   0.137   9.700 -0.1564  0.3371  0.2193
40210W        W83122  27.409  32.595   7.931 -0.1073 -0.0830 -0.4686
40211W        W83123  29.079  32.379   8.542  0.2707  0.0101  0.3856
40212W        W83124  24.117  33.018   7.315  0.0099 -0.2456 -0.0993
40213W        W83125  25.658  34.033   7.976  0.1408  0.0074  0.1314
40214W        W83126  26.173  34.215   8.447  0.1256 -0.0013  0.1114
40215W        W83127  27.464  31.935   6.741 -0.0777 -0.1825 -0.1612
40216W        W83128  27.521  30.038   8.352 -0.1418 -0.2639  0.0618
40217W        W83129  27.465  34.263  10.211  0.0367  0.3744 -0.0918
40218W        W83130  28.289  33.769   8.430 -0.4529 -0.0496  0.1184
40219W        W83131  28.329   0.709   9.240 -0.0865  0.0717  0.2656
40220W        W83132  25.619  34.072   9.517 -0.2319  0.1419  0.3420
40221W        W83133  27.308  32.883   8.776  0.1180 -0.1788  0.0962
40222W        W83134  27.181  34.269   7.649 -0.1491  0.0206  0.1973
40223W        W83135  28.791  32.760   8.331 -0.1292  0.3407 -0.1320
40224W        W83136  29.114  33.235   9.135  0.1402 -0.0928  0.0400
40225W        W83137  29.853   0.737   8.037 -0.1057  0.1213 -0.2433
40226W        W83138  26.365  32.911  10.225 -0.3576 -0.0967 -0.1684
40227W        W83139  27.805  32.462   8.251  0.2264  0.2251 -0.3246
40228W        W83140  25.987  33.515   7.224  0.3537  0.2340 -0.0977
40229W        W83141  27.349   0.335   8.543  0.3115  0.0930 -0.0573
40230W        W83142  29.170  32.598   9.996 -0.3426 -0.0211 -0.5442
40231W        W83143  28.386  33.259   9.628 -0.0351  0.2065  0.2649
40232W        W83144  25.475  33.293   7.261 -0.0666 -0.2266 -0.0910
40233W        W83145  29.889  32.474   9.474 -0.1849 -0.0197  0.0119
40234W        W83146  26.513  33.771  10.075  0.1548 -0.0756 -0.2043
40235W        W83147  27.587  34.459   8.399 -0.2082 -0.1658 -0.0576
40236W        W83148  27.988   0.484   9.460 -0.0952  0.0406  0.1383
40237W        W83149  26.622  32.197  10.111 -0.0513  0.1246 -0.0358
40238W        W83150  26.713  34.383   8.890 -0.2296  0.4355 -0.2204
40239W        W83151  27.665  33.450   7.307 -0.1998  0.2475 -0.0188
40240W        W83152  26.141  33.714   9.412 -0.3651 -0.0752  0.2187
40241W        W83153  27.998  33.958   8.845 -0.0331  0.1554 -0.0324
40242W        W83154  27.756  34.325   9.768 -0.1994 -0.1780 -0.0628
40243W        W83155  27.321  32.427   9.193 -0.3654  0.2212  0.1703
40244W        W83156  27.715  32.725   9.115 -0.1245 -0.0232 -0.3188
40245W        W83157  30.261  34.115   8.021  0.2696  0.4347 -0.1109
40246W        W83158  29.661  33.692   7.256  0.1633 -0.2084  0.0390
40247W        W83159  25.115  33.812   9.454  0.0387 -0.2023 -0.2457
40248W        W83160  27.833  32.964   8.524 -0.0696 -0.1707  0.0651
40249W        W83161  27.361  33.435   9.554  0.1377  0.2453  0.2008
40250W        W83162  29.479   0.803  10.080 -0.0542  0.1928 -0.2966
40251W        W83163  27.677   0.246   8.147 -0.3174 -0.2275  0.1347
40252W        W83164  27.856   0.163   8.642 -0.2455  0.1490 -0.3243
40253W        W83165  29.358  32.734   8.123 -0.1670 -0.0809 -0.3583
40254W        W83166  28.410  32.278   8.164  0.3206 -0.1648  0.0018
40255W        W83167  27.216  32.930  10.206  0.0944  0.1049  0.2809
40256W        W83168  25.784  34.619   6.726 -0.0124 -0.1046  0.0883
40257W        W83169  27.733  34.055  10.593 -0.3043 -0.1939 -0.0349
40258W        W83170  26.758  33.256   7.630  0.0332  0.0625 -0.0414
40259W        W83171  27.578  33.416  10.094  0.3516  0.2393  0.1009
40260W        W83172  26.810  33.694   8.623 -0.3218  0.0554  0.3081
40261W        W83173  28.058  32.309   9.177  0.0473  0.1173  0.0110
40262W        W83174  26.238  33.537   7.825 -0.1867  0.2193  0.0642
40263W        W83175  29.251  33.596   9.917 -0.2586  0.1428  0.5904
40264W        W83176  28.828  31.487   9.763  0.2809  0.3260 -0.1114
40265W        W83177  29.681  31.275   8.770 -0.2454 -0.3091 -0.0693
40266W        W83178  28.308   0.213   9.051  0.1820  0.0719 -0.0720
40267W        W83179  26.764  33.028   8.967 -0.0234  0.1693 -0.0794
40268W        W83180  27.793  33.591   9.226 -0.1897 -0.1516  0.1516
40269W        W83181  25.640  34.279  10.379 -0.3924 -0.2111 -0.3052
40270W        W83182  27.625  32.440   8.723 -0.0951 -0.0751  0.0530
40271W        W83183  27.009  34.186   8.353 -0.1122 -0.0979  0.2417
40272W        W83184  27.979   0.644   8.301  0.0469  0.3060 -0.1732
40273W        W83185  26.777  31.217   7.883  0.1181 -0.0649  0.1258
40274W        W83186  26.695   1.255   7.379 -0.0871 -0.0883 -0.0567
40275W        W83187  27.293   0.874   8.600 -0.0194  0.0755 -0.0008
40276W        W83188  30.448  33.840  10.121 -0.0943 -0.1654 -0.1605
40277W        W83189  27.605  31.967   8.491  0.0879  0.0463  0.0951
40278W        W83190  28.443  31.238   6.811  0.0806 -0.0202  0.1163
40279W        W83191  29.815   2.740   3.168  0.1379 -0.0541 -0.0898
40280W        W83192  30.249   1.565   1.244 -0.1092  0.3547 -0.0155
40281W        W83193  34.451   0.224  30.160  0.0911 -0.1077  0.4570
40282W        W83194  31.848   0.337   1.855 -0.1924 -0.0933 -0.0150
40283W        W83195  30.064   1.332   0.809 -0.3402  0.0796  0.0256
40284W        W83196  31.963   3.585   1.204  0.1755  0.0675 -0.2306
40285W        W83197  29.670  34.092   2.781 -0.3474 -0.0527  0.0308
40286W        W83198  31.678   4.080   2.214 -0.0114  0.0827  0.2322
40287W        W83199  33.248   2.710   3.186  0.1587  0.1072 -0.0099
40288W        W83200  31.267   0.649   0.622  0.2911 -0.3404 -0.1301
40289W        W83201  30.633   2.418   2.319  0.0622  0.1393 -0.0284
40290W        W83202  29.544   2.609   1.637 -0.3097 -0.0924  0.1106
40291W        W83203  31.625   1.378   2.051 -0.0161  0.3370 -0.3979
40292W        W83204  28.157   0.512   2.679  0.1651  0.0786  0.3428
40293W        W83205  32.767   1.061   2.656 -0.1055  0.0392 -0.2432
40294W        W83206  29.959   2.098   0.799 -0.0139 -0.3355 -0.1004
40295W        W83207  30.047   1.493   2.981  0.1483 -0.1846  0.0495
40296W        W83208  29.454   2.251   0.086 -0.0004 -0.1301 -0.5588
40297W        W83209  31.571   3.331   1.600 -0.3690  0.1102 -0.0362
40298W        W83210  30.589   0.485   2.523 -0.0666 -0.0445 -0.0914
40299W        W83211  32.147   0.727   3.286  0.2122 -0.3081  0.2930
40300W        W83212  30.435   3.866  31.393 -0.1374  0.1361  0.0395
40301W        W83213  29.181   1.219  31.054 -0.0968 -0.2286 -0.0173
40302W        W83214  29.584   1.341   1.809  0.2008  0.1313 -0.1499
40303W        W83215  29.603   0.781   1.838 -0.0896 -0.0562 -0.1496
40304W        W83216  31.247   0.607   2.751 -0.0109  0.0092  0.3473
40305W        W83217  31.025   0.994   1.953 -0.1719 -0.0996  0.0430
40306W        W83218  30.945   3.072   2.863 -0.1054  0.0121  0.1550
40307W        W83219  30.890   3.108   1.619 -0.0078  0.0795  0.0393
40308W        W83220  31.692   1.035   4.504  0.0667  0.0616  0.2206
40309W        W83221  29.660   2.224   1.381  0.1201 -0.4201  0.0623
40310W        W83222  29.946   3.339   0.703  0.2651 -0.3957 -0.0326
40311W        W83223  30.883   2.949  31.710  0.0874 -0.2573  0.0338
40312W        W83224  32.193   3.740   2.217  0.1380  0.2196  0.1064
40313W        W83225  31.582   2.419   2.375  0.0482 -0.4503 -0.0607
40314W        W83226  30.103   3.590   3.018 -0.2031  0.0557  0.1707
40315W        W83227  29.971   3.641  31.915  0.1851  0.0978 -0.2705
40316W        W83228  31.197   3.904   2.875 -0.0180 -0.2266  0.0960
40317W        W83229  31.220   3.821   2.246 -0.1200 -0.0546  0.2285
40318W        W83230  29.100   0.799   3.621  0.0285  0.1140  0.1029
40319W        W83231  31.193   1.646   1.234 -0.1202 -0.0440  0.1474
40320W        W83232  30.900   3.963  31.638 -0.0647  0.2181 -0.0841
40321W        W83233  32.050   2.244   2.409 -0.1054  0.1149 -0.4537
40322W        W83234  30.736   2.229   3.896 -0.1331  0.2243 -0.0286
40323W        W83235  29.233   2.990   1.284  0.1385 -0.0734 -0.1488
40324W        W83236  32.122   1.388   2.103 -0.2522  0.1069  0.4106
40325W        W83237  30.363   3.312  31.938  0.0691 -0.0137 -0.0840
40326W        W83238  32.377  34.530  31.457  0.1776  0.0026  0.2392
40327W        W83239  30.820   1.779   0.904 -0.0868  0.0297  0.0825
40328W        W83240  33.025   0.717   0.470 -0.0552 -0.0058 -0.3698
40329W        W83241  31.629  33.862   2.901  0.1484  0.1655  0.2104
40330W        W83242  30.667   2.792   1.070  0.1109 -0.1080  0.0528
40331W        W83243  31.630  34.258   2.556 -0.1549 -0.1006 -0.0287
40332W        W83244  32.374   1.175   1.487  0.2895 -0.0546 -0.1083
40333W        W83245  30.338   0.226   0.438  0.1023  0.0804 -0.0057
40334W        W83246  31.396   1.469   2.473 -0.1586 -0.2958 -0.1517
40335W        W83247  28.193   2.844   2.999  0.0981  0.2260  0.1606
40336W        W83248  28.945   1.989   1.495  0.1806 -0.3742 -0.4697
40337W        W83249  32.091   4.492   0.619  0.1543  0.2035  0.2508
40338W        W83250  32.600   4.046   2.272 -0.0374 -0.1385  0.0818
40339W        W83251  32.621   3.365   0.765 -0.1460  0.2014  0.2752
40340W        W83252  28.885   1.276   0.014  0.1986  0.0108 -0.0573
40341W        W83253  30.462   1.870   3.642  0.0969 -0.1592  0.3394
40342W        W83254  29.989   1.671   3.496  0.2545  0.3058 -0.0831
40343W        W83255  29.234   0.486   1.187  0.0964  0.1150  0.2297
40344W        W83256  32.390   3.236   2.956  0.4234 -0.0649 -0.0971
40345W        W83257  30.700   3.277   2.168 -0.1851  0.0230  0.0721
40346W        W83258  32.114   0.974   0.605 -0.0868 -0.1719 -0.0663
40347W        W83259  31.282   1.095   1.120  0.1024  0.0453 -0.1198
40348W        W83260  29.927   3.337   1.918  0.0110  0.1722  0.1399
40349W        W83261  32.091   2.544   0.481  0.3596  0.0715  0.2828
40350W        W83262  31.442   0.619   1.103 -0.0865  0.0957  0.0091
40351W        W83263  31.964   0.891   2.240 -0.1350 -0.2009 -0.1473
40352W        W83264  30.392   0.920   1.011  0.0367  0.0184  0.0366
40353W        W83265  31.356   1.295   1.597  0.1279 -0.2446 -0.1340
40354W        W83266  31.570   2.760   2.737  0.0641  0.4247 -0.0337
40355W        W83267  31.406   1.514   0.169 -0.1076 -0.1230 -0.3633
40356W        W83268  30.109   3.423   1.243 -0.0514  0.0587 -0.2090
40357W        W83269  30.111   0.538   2.239  0.2662 -0.0162  0.2122
40358W        W83270  30.812   1.710   3.266  0.0553  0.2201  0.3195
40359W        W83271  30.174   4.934  30.531  0.0321 -0.0188 -0.0330
40360W        W83272  28.279   3.798   0.586 -0.0030 -0.0203  0.2841
40361W        W83273  29.291   1.453   0.496  0.1597 -0.0773 -0.1669
40362W        W83274  28.842  34.098   3.677  0.0272  0.2217  0.0500
40363W        W83275  29.270   2.021   2.330  0.2594 -0.3442 -0.0178
40364W        W83276  31.914  34.510   1.558  0.0232  0.0433 -0.5872
40365W        W83277  29.937   1.093   3.603  0.2531 -0.0728 -0.1548
40366W        W83278  32.650   0.705   1.812 -0.0078 -0.1256  0.2504
40367W        W83279  29.882   1.716   1.968 -0.3232  0.2508  0.2017
40368W        W83280  31.922   3.707   1.720 -0.0079  0.0250 -0.2422
40369W        W83281  34.096   1.642  31.855 -0.2795 -0.1412  0.1129
40370W        W83282  31.858   3.408  31.590  0.0996 -0.1349  0.2900
40371W        W83283  29.150   0.372   2.147 -0.0288  0.0608  0.0477
40372W        W83284  30.317   1.763   0.761  0.0402 -0.1096 -0.0099
40373W        W83285  30.652   0.744   2.942 -0.0922  0.2056  0.4507
40374W        W83286  30.373  34.004   1.995 -0.0412 -0.1395 -0.0349
40375W        W83287  32.127   1.064   2.934  0.0583  0.0286  0.0299
40376W        W83288  30.616   0.639   2.055 -0.1067  0.1108  0.3273
40377W        W83289  31.829   1.184   2.560  0.0712 -0.0642  0.0979
40378W        W83290  29.662   1.655   0.878  0.3638  0.1379 -0.1247
40379W        W83291  30.038   1.916   1.505 -0.2699  0.0445  0.1152
40380W        W83292  31.163  34.250   3.826 -0.1768 -0.1849 -0.1336
40381W        W83293  31.745   2.897   1.868 -0.1135  0.3789 -0.1439
40382W        W83294  32.052   4.177   1.838  0.0172 -0.0567 -0.1471
40383W        W83295  32.428   4.419   1.555 -0.0523 -0.0501  0.0064
40384W        W83296  31.434   0.973   2.344  0.3915  0.0471  0.1724
40385W        W83297  29.764   1.447   0.394  0.1447 -0.2604 -0.0028
40386W        W83298  29.520   3.401   1.556 -0.0810  0.0813  0.1194
40387W        W83299  30.518   2.808   1.534 -0.1004  0.1676 -0.2738
40388W        W83300  30.767   0.037  30.669 -0.1145 -0.2607  0.0859
40389W        W83301  32.527   4.519   2.012  0.3218  0.1193  0.2685
40390W        W83302  30.562  34.253   1.214  0.1694 -0.2643 -0.1585
40391W        W83303  30.255   3.353   2.548 -0.1027  0.0819 -0.2343
40392W        W83304  31.635   0.031   2.769 -0.1578 -0.1262 -0.1814
40393W        W83305  32.285   1.413   2.627 -0.3873 -0.0950  0.0447
40394W        W83306  31.652   0.937   0.836 -0.2746  0.1454 -0.1890
40395W        W83307  29.331   0.716  31.225 -0.2838  0.1003  0.0130
40396W        W83308  31.139   3.561   1.523  0.0500 -0.0691  0.1170
40397W        W83309  28.330   2.542   0.811 -0.1116  0.0021 -0.4140
40398W        W83310  30.835   1.894   2.222  0.1980 -0.3832 -0.2419
40399W        W83311  30.592   4.390  31.559 -0.3484  0.1992 -0.1067
40400W        W83312  32.291   0.723   1.242  0.2047  0.3372  0.3793
40401W        W83313  29.027   3.080   4.557 -0.2157 -0.0146  0.2466
40402W        W83314  30.807   0.058   2.143  0.0231 -0.1168 -0.0009
40403W        W83315  29.854   0.593  31.469  0.2756  0.0029 -0.2011
40404W        W83316  28.518   3.498   1.355 -0.3472 -0.1195  0.1465
40405W        W83317  31.287  33.521   1.022  0.2016 -0.2999 -0.3917
40406W        W83318  31.797   1.537  31.361 -0.0577  0.1893 -0.3284
40407W        W83319  30.574   1.757   4.121 -0.1195 -0.1016 -0.2403
40408W        W83320  32.474   3.372   1.341  0.0960  0.0345  0.2794
40409W        W83321  32.003   1.644  31.929  0.2670 -0.0197  0.0351
40410W        W83322  30.929  34.629   1.613  0.1839 -0.1831 -0.2949
40411W        W83323  28.988   3.119   4.073  0.1754  0.0532 -0.1160
40412W        W83324  32.624   1.402   1.156 -0.1823 -0.0787 -0.0241
40413W        W83325  29.331   2.243   2.809 -0.2315 -0.0188  0.0450
40414W        W83326  31.269   0.315  30.398 -0.1937 -0.2021 -0.0944
40415W        W83327  32.112   3.180   0.959 -0.2420 -0.2490 -0.0771
40416W        W83328  29.336   2.267   3.798  0.0018 -0.0731 -0.3210
40417W        W83329  30.285   2.388   3.820 -0.1923 -0.0645 -0.4259
40418W        W83330  31.721   2.301   0.772  0.2057  0.1950 -0.0641
40419W        W83331  30.823   0.405   1.679 -0.2349 -0.0749 -0.0654
40420W        W83332  29.644   2.386  30.699 -0.1382 -0.0945 -0.1788
40421W        W83333  30.845  34.514   0.566  0.3817  0.0930 -0.1613
40422W        W83334  30.138   2.929   1.105 -0.0586 -0.0156 -0.0071
40423W        W83335  32.324   0.382   1.620  0.1800  0.0399 -0.1438
40424W        W83336  32.512  34.596   1.461 -0.1159 -0.0712 -0.2650
40425W        W83337  31.946   0.275   3.123 -0.2076 -0.0142 -0.2668
40426W        W83338  32.602   1.395   3.007 -0.1424 -0.1007  0.0022
40427W        W83339  30.253   0.840  31.731 -0.2020 -0.1585  0.3477
40428W        W83340  30.346   1.985   2.082  0.3713  0.1214 -0.0550
40429W        W83341  30.886   1.486  31.451  0.0186  0.1909  0.1150
40430W        W83342  31.394   0.252   1.575 -0.1553 -0.2112  0.1650
40431W        W83343  29.905   2.185   2.915  0.2057  0.0798 -0.1326
40432W        W83344  28.551   3.615   3.938 -0.2867 -0.1932  0.0889
40433W        W83345  31.442   3.242   2.817  0.2128  0.0706 -0.0012
40434W        W83346  32.195   1.652   3.229 -0.0839  0.1399  0.1044
40435W        W83347  31.300   1.673   5.008  0.1029  0.0422  0.0103
40436W        W83348  30.044   1.197   1.715  0.0084 -0.5410  0.4422
40437W        W83349  28.642   4.441   0.175 -0.1371  0.0074 -0.0568
40438W        W83350  31.092   1.258  31.857  0.3237  0.1920 -0.2317
40439W        W83351  32.122  33.932   2.790 -0.1598  0.0354 -0.0420
40440W        W83352  30.292   2.688   0.583 -0.1644  0.1813  0.0862
40441W        W83353  30.836   1.629  31.912 -0.0278  0.0196 -0.1170
40442W        W83354  31.590   1.119   3.059  0.0789 -0.0459  0.0898
40443W        W83355  29.738   2.199  31.647 -0.0600 -0.0685 -0.2048
40444W        W83356  33.063   1.234   2.974  0.0065  0.1757  0.0416
40445W        W83357  30.142   4.133   1.224 -0.0277  0.1928 -0.1509
40446W        W83358  30.480   0.504  31.384 -0.0291 -0.1288 -0.1812
40447W        W83359  29.324   1.319   0.963 -0.1094  0.0413  0.0520
40448W        W83360  32.261   0.347  31.635 -0.2239  0.0343 -0.0887
40449W        W83361  32.027   2.511   1.911 -0.3017 -0.2641 -0.2436
40450W        W83362  30.150   1.874   2.627 -0.1897 -0.1073 -0.2425
40451W        W83363  30.884   1.390   2.334 -0.1958 -0.2516  0.2080
40452W        W83364  29.671   3.167   1.076 -0.1640  0.0543  0.0548
40453W        W83365  32.042  34.392   2.863 -0.1842  0.1454  0.0028
40454W        W83366  32.501   0.558   0.668 -0.2479 -0.0371  0.0105
40455W        W83367  31.450   2.832   1.465  0.0424  0.2562  0.3658
40456W        W83368  30.740   1.780   5.008 -0.1537 -0.1287 -0.3535
40457W        W83369  29.279   1.972   1.052 -0.2395 -0.2235  0.1186
40458W        W83370  32.499   2.257   2.613 -0.2795  0.0647 -0.1925
40459W        W83371  31.567   1.801   1.509 -0.1728  0.0679 -0.3028
40460W        W83372  29.202   3.078   0.455 -0.0672  0.0486 -0.1925
40461W        W83373  32.450   1.852   1.589  0.0896  0.2570 -0.1255
40462W        W83374  29.694   1.753  31.886  0.2381 -0.1549 -0.0809
40463W        W83375  30.519   2.823   0.154 -0.2430  0.2936 -0.0572
40464W        W83376  28.599  33.844   3.226  0.0608  0.1977  0.0416
40465W        W83377  30.668   1.746   2.681 -0.0025  0.0260 -0.3625
40466W        W83378  29.850   1.378   2.533 -0.2384  0.0840 -0.3037
40467W        W83379  29.924   0.843   1.405 -0.2266 -0.2634 -0.2111
40468W        W83380  30.550   1.140   1.973 -0.1143 -0.1374 -0.0356
40469W        W83381  30.905   1.532   1.851 -0.1026  0.0250 -0.3192
40470W        W83382  30.474   1.279   3.334  0.0144  0.2928 -0.4109
40471W        W83383  29.865   3.673   2.499 -0.1967 -0.0985 -0.1387
40472W        W83384  31.236  33.809   1.758  0.4085  0.1574  0.0400
40473W        W83385  32.413   2.887   0.562 -0.2988 -0.0404  0.0946
40474W        W83386  30.964   2.146   2.727 -0.4014  0.2036  0.1657
40475W        W83387  29.512   2.343   0.768  0.1188  0.1317 -0.1407
40476W        W83388  28.009   3.286   2.165 -0.1271 -0.0771 -0.0079
40477W        W83389  30.723   1.784   0.409  0.1688 -0.0634  0.2022
40478W        W83390  30.880   0.427   3.325  0.0459 -0.1533 -0.1274
40479W        W83391  29.388   2.923   2.982 -0.0112  0.3138  0.1649
40480W        W83392  31.364   3.216   0.284  0.0776  0.0261  0.1514
40481W        W83393  29.530   3.043   1.869 -0.0608  0.1329  0.3293
40482W        W83394  32.203   1.280  31.636  0.1288  0.1822 -0.0421
40483W        W83395  30.945   4.020   0.252 -0.0313 -0.2802  0.0699
40484W        W83396  30.353  34.599   1.938  0.0497  0.0533  0.1070
40485W        W83397  33.786   0.643   2.640 -0.0530  0.2073  0.0619
40486W        W83398  31.847   0.532   1.390 -0.1427  0.0180 -0.1399
40487W        W83399  31.237   1.164   3.967  0.0323 -0.0453  0.0295
40488W        W83400  30.126  33.980   3.016 -0.0161 -0.1093 -0.0298
40489W        W83401  31.536   2.033   0.030  0.3590 -0.2850  0.2082
40490W        W83402  28.951   1.311   2.922  0.2717 -0.2800 -0.3043
40491W        W83403  31.110   2.044   1.515 -0.0258 -0.4186 -0.0500
40492W        W83404  29.995   4.424   2.532  0.0671  0.0470  0.1258
40493W        W83405  30.703   0.065  31.598  0.1024  0.1244  0.1127
40494W        W83406  30.638  34.581   0.129 -0.1532 -0.2538  0.1210
40495W        W83407  29.561   2.241   1.957 -0.4017  0.1738  0.1885
40496W        W83408  32.001   2.779   2.419  0.1399 -0.1769  0.0021
40497W        W83409  31.896   2.308   1.474  0.2887  0.3014  0.0752
40498W        W83410  32.529   1.826   0.914 -0.0069  0.0297 -0.1407
40499W        W83411  30.230   2.701   2.791 -0.0282 -0.0234 -0.0361
40500W        W83412  31.613   0.923   1.820 -0.3660  0.1061  0.0195
40501W        W83413  30.407   2.230   0.411 -0.2582  0.3922 -0.3801
40502W        W83414  29.711   2.686   1.191 -0.0186  0.0720  0.0123
40503W        W83415  30.202   0.683   2.768 -0.2751 -0.0733 -0.2509
40504W        W83416  32.524   1.890   0.392 -0.1893 -0.1096  0.1197
40505W        W83417  31.008   0.243   0.919  0.1175 -0.2947  0.3837
40506W        W83418  30.340   0.652   3.436  0.2490  0.3128 -0.3613
40507W        W83419  31.928   2.436   2.893 -0.2368  0.0691  0.1758
40508W        W83420  32.198   1.886   2.781  0.3892 -0.1998  0.5696
40509W        W83421  28.827   0.379   3.319 -0.0257  0.3680 -0.2661
40510W        W83422  31.593   3.573   2.024  0.1135  0.0607 -0.4600
40511W        W83423  32.518   0.013  30.911  0.0417 -0.2790  0.0861
40512W        W83424  31.836   1.678   2.482 -0.0049  0.0774  0.2439
40513W        W83425  31.760   0.629   0.465 -0.1221 -0.1583 -0.3056
40514W        W83426  31.527   0.014   0.012  0.0153  0.3486  0.1374
40515W        W83427  28.409   1.564   3.408  0.2482  0.0352  0.0817
40516W        W83428  32.413   2.735   2.809  0.2818  0.2945  0.0825
40517W        W83429  30.897   0.697   1.143  0.0752 -0.0596  0.1852
40518W        W83430  32.644  34.389   2.190  0.0405 -0.1627  0.0398
40519W        W83431  31.925   3.056   0.498  0.1058 -0.1902  0.1635
40520W        W83432  31.993   2.757   1.281 -0.1830 -0.2531  0.2221
40521W        W83433  30.800   0.945   0.647 -0.3103  0.2651 -0.2291
40522W        W83434  29.363   0.996   1.375  0.1280 -0.1622  0.1554
40523W        W83435  29.565   4.177   2.397 -0.2004  0.1802 -0.1041
40524W        W83436  30.207   0.909   0.455  0.0858 -0.0170 -0.2052
40525W        W83437  29.909   2.904  31.414  0.4742  0.0047  0.1009
40526W        W83438  30.714   2.625   3.026 -0.1431  0.1068 -0.1566
40527W        W83439  32.631   3.276   3.951  0.1412  0.0273 -0.0592
40528W        W83440  30.458  34.692   1.471 -0.1157 -0.2688  0.1890
40529W        W83441  32.012   1.826   1.885 -0.1445 -0.2614  0.2622
40530W        W83442  29.146   3.380   2.044 -0.5788 -0.1990 -0.1734
40531W        W83443  31.039   0.917   3.214  0.1506 -0.0751 -0.1954
40532W        W83444  28.920   4.251   1.657 -0.0579 -0.0379  0.2448
40533W        W83445  29.565   3.314   2.333 -0.1365  0.1224 -0.0510
40534W        W83446  31.456   2.362   1.202 -0.1529 -0.0090 -0.1707
40535W        W83447  32.195  34.674   2.018 -0.1877 -0.1481 -0.0668
40536W        W83448  31.746   1.638   2.966  0.2280  0.0062 -0.3011
40537W        W83449  29.095   0.751   1.743 -0.0339 -0.1381 -0.3761
40538W        W83450  33.147   1.541   1.959 -0.0137  0.1149  0.0337
40539W        W83451  31.171   1.706   2.859  0.3212  0.0739 -0.2101
40540W        W83452  30.086   2.377   1.881 -0.1355  0.0405 -0.0072
40541W        W83453  31.216   3.222   1.979  0.0096  0.0085 -0.0851
40542W        W83454  32.832   1.908   2.002 -0.1373  0.1657 -0.1383
40543W        W83455  30.137   2.334   2.440  0.0005 -0.0399  0.2928
40544W        W83456  26.676   1.021   4.095 -0.0264 -0.1312 -0.0301
40545W        W83457  31.783   1.228   3.873  0.2209 -0.2024 -0.2855
40546W        W83458  32.728   1.931   3.133  0.2004  0.1804 -0.4659
40547W        W83459  29.828   0.168   0.374 -0.4211 -0.0689  0.1764
40548W        W83460  32.248   2.758  31.763  0.0497 -0.0010  0.2076
40549W        W83461  29.388   2.500   3.265 -0.4478  0.0837 -0.0255
40550W        W83462  29.358   1.527   3.124 -0.0071 -0.1543  0.4538
40551W        W83463  28.834   4.298  31.597 -0.0094 -0.0834 -0.0298
40552W        W83464  31.267   3.438   0.715  0.0524 -0.0711 -0.3675
40553W        W83465  31.488   2.284   1.758  0.3278 -0.1103  0.1134
40554W        W83466  30.006   2.850   1.615 -0.0189  0.2596  0.4107
40555W        W83467  31.140  34.435   0.096  0.3436 -0.1699 -0.0065
40556W        W83468  29.807   2.832   0.735  0.2492 -0.0739 -0.1370
40557W        W83469  29.592   3.554  31.566  0.1303  0.0907  0.2785
40558W        W83470  32.082   3.836   0.373 -0.3176  0.1819 -0.1095
40559W        W83471  30.099   3.671  31.010 -0.0794  0.0855 -0.0216
40560W        W83472  31.975   3.291   2.042 -0.3302  0.1069 -0.0615
40561W        W83473  32.070  33.236   0.084  0.1232  0.0097 -0.1133
40562W        W83474  32.399   2.202   1.962 -0.1508 -0.2622 -0.1623
40563W        W83475  32.567   0.959   0.366 -0.2814 -0.0818  0.1591
40564W        W83476  31.125   2.451   3.202  0.1492 -0.1581  0.1407
40565W        W83477  30.711   1.623   1.386 -0.0583 -0.2649  0.2076
40566W        W83478  30.008   0.509   0.080  0.2445 -0.0038  0.1489
40567W        W83479  29.794   2.093   3.821  0.1021 -0.1922  0.1810
40568W        W83480  31.890  34.122   3.226  0.0976 -0.0792 -0.0146
40569W        W83481  29.241   2.516   2.405  0.0429  0.3091 -0.1107
40570W        W83482  31.340   1.935   0.873 -0.0167 -0.2319  0.1611
40571W        W83483  29.407   1.317  31.945  0.0665  0.3122  0.0220
40572W        W83484  30.582   2.365   1.773  0.0973 -0.3839 -0.1469
40573W        W83485  33.398   0.300   2.630 -0.0915  0.3442  0.3977
40574W        W83486  31.270   2.415   0.648  0.0411  0.0411 -0.1105
40575W        W83487  31.160   0.728   1.524  0.1548 -0.1052 -0.2497
40576W        W83488  30.773   2.539   0.523  0.5971 -0.0139 -0.0439
40577W        W83489  29.913   4.027   2.104 -0.0998 -0.0769  0.0886
40578W        W83490  30.484   5.108   1.552  0.1923  0.1029 -0.1667
40579W        W83491  27.708   1.757   0.888  0.2108  0.1944 -0.2260
40580W        W83492  33.360   2.801   0.432 -0.2386  0.2424 -0.2422
40581W        W83493  30.321   2.376   4.351  0.0455  0.1331 -0.0850
40582W        W83494  31.467   1.462   4.391  0.2417 -0.4471 -0.0269
40583W        W83495  30.332   2.782   2.072  0.1594  0.1780 -0.0157
40584W        W83496  31.397   0.439   0.185 -0.0345 -0.2535 -0.1326
40585W        W83497  31.188   1.096   2.747  0.1315 -0.4296  0.2819
40586W        W83498  30.453   0.267   3.058 -0.1716  0.0885  0.3197
40587W        W83499  30.563   0.560   0.040  0.3993  0.0653 -0.0915
40588W        W83500  33.333   1.721   2.790  0.2573  0.0220  0.3627
40589W        W83501  30.957   0.307  31.176 -0.0645  0.0271 -0.0587
40590W        W83502  31.571   3.732   2.592  0.1567 -0.0870 -0.2635
40591W        W83503  29.508   0.305   1.624 -0.1878  0.2426 -0.4734
40592W        W83504  32.450   0.396  31.149 -0.1383 -0.3515  0.3786
40593W        W83505  31.223   1.952   0.377  0.0304 -0.4012  0.0458
40594W        W83506  30.848   0.893   2.411  0.1822  0.1031  0.2135
40595W        W83507  32.063   3.909   2.754 -0.1147 -0.0336 -0.2967
40596W        W83508  30.053  34.447   1.293  0.0510  0.1644  0.0902
40597W        W83509  32.631   3.476  31.041  0.3750  0.2487 -0.0313
40598W        W83510  31.745   1.011   1.319  0.0738  0.2684 -0.1570
40599W        W83511  30.756   4.459   1.278 -0.0745 -0.1468 -0.0410
40600W        W83512  32.703   1.790   2.622 -0.2873 -0.2014  0.1846
40601W        W83513  31.645   3.156   1.154 -0.0268  0.0527 -0.1987
40602W        W83514  27.742  34.451   3.304 -0.1085  0.1579 -0.1201
40603W        W83515  29.763   2.658   2.115  0.1288 -0.2634 -0.2332
40604W        W83516  33.313   2.985   1.454  0.2053  0.2022  0.4163
40605W        W83517  31.236  34.037   1.203 -0.0012  0.1893  0.3017
40606W        W83518  30.425   0.846   1.562  0.0900 -0.1020  0.2280
40607W        W83519  30.892   4.612   1.847 -0.3364  0.2871  0.0732
40608W        W83520  33.225   0.734   1.099  0.1056 -0.0030  0.1855
40609W        W83521  31.815   1.686   3.544 -0.4047  0.1903  0.2685
40610W        W83522  31.107   3.616   0.028 -0.2798 -0.2020 -0.1246
40611W        W83523  32.417   0.293   3.062 -0.0725  0.0846  0.0150
40612W        W83524  31.076   3.068   2.428  0.2520  0.1779  0.1826
40613W        W83525  30.111   3.142   3.361  0.3074 -0.0212  0.2069
40614W        W83526  30.438   1.371  31.565  0.3020  0.1550  0.0396
40615W        W83527  30.801   1.291   2.946  0.0554 -0.2623  0.1637
40616W        W83528  31.287   4.243  31.946  0.0059 -0.2180 -0.1708
40617W        W83529  30.156   4.223  31.842  0.2008 -0.0205 -0.0276
40618W        W83530  31.171   2.729   1.031 -0.1107 -0.3396 -0.0669
40619W        W83531  30.809   1.253   1.015 -0.3439 -0.3853 -0.4001
40620W        W83532  33.298   2.966   2.445 -0.1730 -0.1342 -0.0359
40621W        W83533  29.728   0.860   2.605 -0.0599  0.1277  0.0167
40622W        W83534  33.197   0.345   2.100 -0.1378 -0.0598 -0.0915
40623W        W83535  32.121   0.151   1.248  0.0588 -0.1056  0.1608
40624W        W83536  31.085   1.975   3.640  0.1373 -0.1247 -0.2150
40625W        W83537  28.186   1.809   0.627  0.0264  0.1145  0.1476
40626W        W83538  31.073   2.367   0.154 -0.0213  0.1589  0.0622
40627W        W83539  31.015   2.586   1.567 -0.0542 -0.0376 -0.1157
40628W        W83540  30.417  33.902   3.615 -0.1361  0.3947  0.0815
40629W        W83541  26.833   1.675   3.318 -0.2842  0.0422  0.0849
40630W        W83542  28.695   2.009   2.550 -0.1037 -0.0190 -0.0530
40631W        W83543  28.658   0.055   2.121  0.0736  0.2857 -0.1738
40632W        W83544  31.515   2.909   0.737  0.3064 -0.0385  0.0180
40633W        W83545  30.237   1.517   2.264  0.1026 -0.1108  0.1828
40634W        W83546  29.698  33.682   3.208  0.1544  0.2838  0.3807
40635W        W83547  30.951   3.776   1.052  0.2569 -0.0426  0.0150
40636W        W83548  32.896   2.749   1.546  0.2022  0.0656  0.0445
40637W        W83549  30.432   0.457   1.273  0.1825  0.0254 -0.3556
40638W        W83550  31.187   2.433   4.165  0.3755  0.0852  0.0915
40639W        W83551  31.507   2.638   0.227  0.0162  0.0647  0.5027
40640W        W83552  29.599   0.698   3.592 -0.2558 -0.1290 -0.3208
40641W        W83553  30.005   0.649   3.880  0.3172  0.0501 -0.1542
40642W        W83554  29.725   0.933   0.863 -0.1200  0.5050  0.0178
40643W        W83555  30.706   2.198   3.363  0.2110  0.1991  0.2142
40644W        W83556  30.931   3.043   0.639 -0.0581 -0.1200  0.2250
40645W        W83557  31.310   2.705  31.756  0.0743  0.1834  0.1759
40646W        W83558  29.679   2.626   2.673  0.1736  0.2479 -0.0610
40647W        W83559  31.095   3.245   1.146 -0.1389 -0.0804  0.2582
40648W        W83560  28.507   0.465   2.328  0.3777 -0.4375 -0.0524
40649W        W83561  32.143   1.292   1.073  0.0105 -0.1138  0.2270
40650W        W83562  31.365   1.962   4.071  0.2512  0.0798  0.2007
40651W        W83563  32.461   2.441   0.088 -0.1524 -0.0602 -0.1065
40652W        W83564  31.962   0.450   0.890 -0.2585 -0.2633 -0.1114
40653W        W83565  30.820   1.149   1.497  0.0674  0.0446 -0.0184
40654W        W83566  30.113   0.975   3.146  0.1157 -0.3140 -0.0943
40655W        W83567  30.513   2.249   2.756  0.2608  0.0983  0.0312
40656W        W83568  32.343   1.836   2.289 -0.0872  0.1340 -0.0576
40657W        W83569  30.577   0.482   0.770 -0.5196 -0.0214 -0.2319
40658W        W83570  30.904   0.359   0.385 -0.1168 -0.0453 -0.2472
40659W        W83571  31.052   4.529   0.275  0.5455  0.0020 -0.1227
40660W        W83572  29.888   1.011   2.191 -0.0482 -0.0341  0.1168
40661W        W83573  30.891   0.911  31.626  0.3076 -0.1150  0.1158
40662W        W83574  31.016   1.574   4.208 -0.1165  0.1249 -0.1151
40663W        W83575  31.607   2.158   3.612  0.3378 -0.0080 -0.1558
40664W        W83576  31.302   2.705   1.955 -0.0162  0.3818  0.1446
40665W        W83577  30.359   1.781  31.077  0.0491  0.2348  0.2129
40666W        W83578  31.348   1.594  30.992  0.0215 -0.1830  0.0994
40667W        W83579  31.991   4.784   2.598  0.2744  0.1277  0.0623
40668W        W83580  32.445   3.323   4.829 -0.2660  0.2168 -0.1960
40669W        W83581  30.501   3.707   1.388 -0.3012 -0.2266  0.2282
40670W        W83582  30.831   2.833   2.044  0.0729  0.1242  0.2025
40671W        W83583  31.205   0.051   2.510 -0.1931 -0.4429  0.0510
40672W        W83584  29.346   0.968   0.382 -0.0342  0.3503 -0.2238
40673W        W83585  30.378   1.553   1.777  0.1251 -0.2197  0.2998
40674W        W83586  32.078   0.852   1.718  0.2079  0.5702 -0.1560
40675W        W83587  31.100   0.526   2.118  0.4904 -0.2038  0.4398
40676W        W83588  32.101  34.418   0.400 -0.2617 -0.1236  0.3836
40677W        W83589  30.013   2.944   2.407 -0.0105 -0.0260 -0.1955
40678W        W83590  31.051   2.626   2.640  0.0399 -0.0337  0.2645
40679W        W83591  30.241   2.936   6.763  0.0109 -0.0683 -0.1031
40680W        W83592  29.176   2.157   5.022  0.2555  0.0705  0.1887
40681W        W83593  32.454   1.091   3.546 -0.1158  0.1670 -0.2694
40682W        W83594  32.575   1.767   5.031 -0.0938 -0.0618 -0.0411
40683W        W83595  29.817   1.553   4.019 -0.0692 -0.2433  0.0489
40684W        W83596  30.973   3.632   4.259 -0.1626 -0.1680 -0.0978
40685W        W83597  30.325   0.794   7.299 -0.0808 -0.1229  0.2490
40686W        W83598  31.987   2.369   7.429  0.0371  0.2062  0.1516
40687W        W83599  32.187   2.073   7.080  0.0227  0.2753 -0.0608
40688W        W83600  31.718   2.634   3.312  0.0168 -0.0924 -0.0359
40689W        W83601  30.879   0.226   3.950 -0.0339  0.1988 -0.0486
40690W        W83602  29.821   4.139   6.488 -0.1649  0.2473 -0.1332
40691W        W83603  29.760   0.581   6.538 -0.0297  0.0989 -0.0626
40692W        W83604  28.630  34.223   5.987 -0.1411  0.0970  0.1265
40693W        W83605  32.558   2.266   7.391 -0.1602 -0.1928  0.0217
40694W        W83606  29.472   1.331   3.579  0.1595  0.1474 -0.2991
40695W        W83607  29.549   1.819   4.806 -0.2469  0.0507 -0.1552
40696W        W83608  30.819   0.649   5.267 -0.0133  0.0162  0.1854
40697W        W83609  31.838   4.249   5.929 -0.0190 -0.0064 -0.0465
40698W        W83610  30.489   1.235   7.168 -0.3050 -0.0458  0.0367
40699W        W83611  31.750   0.771   8.612  0.0212 -0.2678  0.1051
40700W        W83612  30.286   4.019   2.748  0.2834  0.0653 -0.0327
40701W        W83613  29.880   2.479   4.163 -0.2184 -0.1968 -0.0707
40702W        W83614  28.856   2.912   6.045  0.0158 -0.0213  0.1636
40703W        W83615  29.998   2.216   6.059 -0.4571 -0.1070  0.1569
40704W        W83616  31.443   1.669   6.311  0.1518 -0.1656  0.2023
40705W        W83617  31.017   2.130   5.247 -0.0106  0.3384 -0.0082
40706W        W83618  30.130   3.954   5.219  0.2755 -0.1311  0.3017
40707W        W83619  30.192   3.395   6.565 -0.1533  0.1776  0.1390
40708W        W83620  31.320   1.715   7.183  0.3915  0.2517  0.1390
40709W        W83621  29.286   1.774   3.755 -0.1062 -0.1082 -0.0066
40710W        W83622  29.069   3.846   5.734 -0.4377 -0.3067 -0.2831
40711W        W83623  29.388   3.393   4.359  0.1601  0.2315 -0.1561
40712W        W83624  31.828   2.644   5.146  0.0617  0.0652 -0.0273
40713W        W83625  31.484   3.576   6.231  0.0456  0.0659  0.0772
40714W        W83626  30.716   4.527   6.594 -0.3460 -0.1105 -0.0342
40715W        W83627  30.465   3.714   4.624  0.0111 -0.2079 -0.1682
40716W        W83628  31.868   2.899   7.725 -0.3404 -0.2427 -0.1167
40717W        W83629  28.831   4.073   6.230  0.0879  0.1281  0.2187
40718W        W83630  30.344   0.975   5.181  0.1191  0.2483  0.0608
40719W        W83631  30.621   2.292   4.941 -0.0130  0.3372  0.0274
40720W        W83632  30.916   3.756   3.372  0.0145 -0.0646 -0.2276
40721W        W83633  29.905   1.914   5.451  0.2028 -0.1215  0.2572
40722W        W83634  30.181   3.889   7.780  0.2193 -0.1894 -0.1790
40723W        W83635  29.168   2.674   4.856 -0.1344 -0.1190 -0.3188
40724W        W83636  32.626   1.005   6.418  0.1227  0.2953  0.0031
40725W        W83637  28.890   3.307   3.609 -0.1373 -0.1717 -0.2732
40726W        W83638  33.528   1.142   2.784  0.0663  0.0763  0.0433
40727W        W83639  30.835   1.307   3.751 -0.2667 -0.0927 -0.1362
40728W        W83640  32.847   1.357   4.909 -0.2685 -0.0035 -0.2984
40729W        W83641  31.087   0.107   5.033 -0.3542 -0.1970 -0.0193
40730W        W83642  28.694   5.434   6.133 -0.2307 -0.0099  0.0334
40731W        W83643  29.608   1.014   6.340  0.0909 -0.1143  0.2422
40732W        W83644  31.815   1.829   7.305  0.1396  0.4608 -0.0882
40733W        W83645  30.178   2.002   5.040  0.0983  0.1429 -0.3169
40734W        W83646  31.044   0.241   4.536 -0.0518  0.0406 -0.0487
40735W        W83647  30.962   2.930   5.604 -0.1559  0.2391 -0.0869
40736W        W83648  28.811   1.144   5.941 -0.0108 -0.1332 -0.0100
40737W        W83649  32.264   2.771   3.461  0.1611 -0.1284  0.0816
40738W        W83650  33.973   2.200   6.404 -0.2209 -0.1208  0.3584
40739W        W83651  31.112   2.337   2.202 -0.0235  0.3155 -0.3085
40740W        W83652  30.351   1.393   4.336  0.1209 -0.1189 -0.2516
40741W        W83653  29.737   3.066   6.571  0.0755  0.1159  0.1960
40742W        W83654  29.154   2.121   7.462  0.0355 -0.1504  0.1208
40743W        W83655  29.688   1.241   4.540 -0.0312 -0.0013 -0.1720
40744W        W83656  32.367   1.614   7.845 -0.1437 -0.1116 -0.0650
40745W        W83657  29.330   3.795   6.706 -0.0628 -0.2041  0.4066
40746W        W83658  31.122   0.635   4.875  0.0553 -0.0685  0.2020
40747W        W83659  29.813   2.502   6.547 -0.0013  0.1079 -0.0526
40748W        W83660  32.220   2.800   5.956  0.1733  0.0370  0.2184
40749W        W83661  31.500   2.269   2.977 -0.6633 -0.1541  0.0485
40750W        W83662  29.525   1.518   5.479 -0.2508 -0.1233  0.0937
40751W        W83663  30.320   0.829   5.777  0.0369 -0.0014 -0.2817
40752W        W83664  30.292   2.633   3.291  0.1799  0.1558 -0.0995
40753W        W83665  30.812   3.479   3.812  0.2714 -0.2881 -0.0485
40754W        W83666  32.361   3.080   8.542  0.1232  0.0241  0.0809
40755W        W83667  31.449   2.105   4.999  0.0582  0.1462 -0.0883
40756W        W83668  29.281   3.568   6.127 -0.0470 -0.1057  0.2441
40757W        W83669  30.259   0.506   6.191 -0.1621 -0.0012 -0.0799
40758W        W83670  32.012   1.013   8.262  0.1096 -0.1908 -0.0112
40759W        W83671  30.203   4.112   4.635  0.0338 -0.4152  0.0470
40760W        W83672  27.923   2.559   5.458 -0.0174 -0.2716  0.0099
40761W        W83673  29.667   3.188   3.939  0.1157  0.4701  0.1544
40762W        W83674  30.483   0.740   6.751  0.3687  0.2342  0.0163
40763W        W83675  30.610   2.942   6.422 -0.0187 -0.4227 -0.1782
40764W        W83676  32.467   1.007   4.978  0.3532  0.0389 -0.0893
40765W        W83677  29.783   0.465   5.556 -0.2785 -0.0753 -0.0940
40766W        W83678  31.606   0.431   5.602 -0.1408  0.2501 -0.0357
40767W        W83679  29.539   3.540   5.666 -0.1502 -0.1642  0.2993
40768W        W83680  32.743   2.912   5.108  0.0490 -0.0280 -0.2342
40769W        W83681  31.963   1.194   3.393  0.0648 -0.0526  0.1328
40770W        W83682  31.114   3.799   5.201 -0.0970  0.0139  0.2248
40771W        W83683  27.834   1.371   5.962  0.0099 -0.0157 -0.3434
40772W        W83684  29.899   2.132   4.569  0.1692 -0.2351 -0.0513
40773W        W83685  29.665   1.833   5.941  0.0030 -0.0370 -0.2055
40774W        W83686  28.961   0.434   5.103 -0.0422 -0.1068 -0.0709
40775W        W83687  32.476   1.179   8.313 -0.0625 -0.1708  0.0798
40776W        W83688  29.092  33.837   3.243  0.0613 -0.0026  0.1784
40777W        W83689  29.855   1.451   5.047 -0.1803  0.0688 -0.5170
40778W        W83690  29.491   1.038   3.999  0.1859 -0.0821 -0.0192
40779W        W83691  29.646   2.912   5.590  0.2416 -0.1475 -0.2339
40780W        W83692  32.459   0.217   7.279  0.1847 -0.1701 -0.1383
40781W        W83693  30.550   3.063   3.742  0.2056  0.2342 -0.2749
40782W        W83694  33.091   2.590   6.698 -0.1018 -0.1512  0.2955
40783W        W83695  32.968   3.308   4.958 -0.0058 -0.0939  0.1801
40784W        W83696  29.322   0.425   6.913 -0.0637  0.2246 -0.2116
40785W        W83697  29.819   0.759   4.543  0.1307  0.1297 -0.0682
40786W        W83698  28.128   4.322   6.610  0.0221  0.2041 -0.0672
40787W        W83699  30.072   3.085   5.236 -0.3005 -0.1901  0.2164
40788W        W83700  29.829   1.002   5.357 -0.0137 -0.1352 -0.1594
40789W        W83701  31.613   2.764   5.679 -0.2240  0.1307 -0.0156
40790W        W83702  31.451   3.124   5.332 -0.0735  0.0842 -0.2529
40791W        W83703  30.160   2.960   6.236  0.0363  0.1484 -0.4213
40792W        W83704  31.712  34.516   6.838 -0.0054  0.2278  0.2466
40793W        W83705  32.237   1.401   6.408  0.1870 -0.0830 -0.2386
40794W        W83706  31.221   0.935   4.467 -0.0409  0.1673 -0.0888
40795W        W83707  30.434   1.256   2.622 -0.1309 -0.2342  0.1290
40796W        W83708  31.544   4.136   4.985 -0.0060  0.1012 -0.0428
40797W        W83709  30.966   3.376   5.316  0.1942  0.0790  0.1159
40798W        W83710  29.170   1.141   5.561  0.1808 -0.2923  0.2710
40799W        W83711  31.336   4.802   4.350  0.0184  0.0113  0.3129
40800W        W83712  30.298   0.404   5.402 -0.1827  0.1071  0.2543
40801W        W83713  28.718   0.339   6.143 -0.0457 -0.2108  0.0396
40802W        W83714  31.058   1.311   7.085  0.2535 -0.0034 -0.0999
40803W        W83715  28.960   2.306   5.432 -0.0160  0.1738  0.0206
40804W        W83716  29.098   3.513   7.072 -0.1576  0.1768 -0.2116
40805W        W83717  31.227   0.192   3.072  0.1604  0.0392  0.0020
40806W        W83718  32.320   0.748   2.584 -0.1514  0.1285 -0.1202
40807W        W83719  30.964   1.934   6.245 -0.0895 -0.0123  0.1263
40808W        W83720  31.119   2.555   4.753  0.1963 -0.0642 -0.0427
40809W        W83721  31.786   1.799   3.988 -0.0187  0.2237 -0.1993
40810W        W83722  31.760   1.743   5.196 -0.0126 -0.2056 -0.0967
40811W        W83723  29.877   3.792   5.952 -0.1110 -0.1401 -0.1867
40812W        W83724  30.988   2.933   6.101 -0.1565  0.0749 -0.1641
40813W        W83725  31.066   2.806   6.653  0.0432 -0.1083 -0.0918
40814W        W83726  31.780   2.279   4.153 -0.0428  0.2538  0.0128
40815W        W83727  32.511   2.250   4.915  0.0301 -0.1790  0.1679
40816W        W83728  29.010   2.051   4.053  0.3712 -0.0719  0.0528
40817W        W83729  31.870   2.696   6.349  0.1669 -0.0129  0.1603
40818W        W83730  32.393   4.188   4.847  0.1430 -0.0450 -0.3273
40819W        W83731  29.379   0.028   6.501 -0.0266 -0.0769 -0.1276
40820W        W83732  29.643   1.843   2.713  0.0851 -0.3312  0.4602
40821W        W83733  29.539  34.573   5.821  0.2044  0.0686  0.0527
40822W        W83734  29.428   4.108   1.770 -0.2932  0.1485 -0.4319
40823W        W83735  32.908   0.223   4.558  0.2323 -0.3269  0.0680
40824W        W83736  30.431   1.449   4.829 -0.0466  0.0205  0.2396
40825W        W83737  29.400  34.696   7.308  0.0921  0.4874  0.0092
40826W        W83738  32.099   1.130   7.213  0.3632 -0.0171  0.0459
40827W        W83739  31.276   2.630   3.679 -0.1261 -0.1797 -0.1303
40828W        W83740  31.342   1.538   5.834 -0.1861 -0.3075 -0.0409
40829W        W83741  29.812   2.555   3.630  0.4678 -0.0490  0.1779
40830W        W83742  31.645   0.514   6.110  0.3805  0.3412  0.1209
40831W        W83743  29.800   1.921   6.413 -0.0227 -0.0785 -0.5754
40832W        W83744  28.564   2.964   7.346  0.1590 -0.3249  0.1076
40833W        W83745  31.829   2.382   7.965  0.3914 -0.3095 -0.1448
40834W        W83746  30.152   1.966   4.097 -0.3031  0.0916 -0.1245
40835W        W83747  32.593   1.295   7.173  0.1337  0.1191  0.0929
40836W        W83748  30.687   0.879   4.778 -0.0361 -0.1444 -0.4928
40837W        W83749  30.503   3.245   4.988  0.2159 -0.1840  0.0181
40838W        W83750  31.802   2.677   3.756  0.0494 -0.0304 -0.2518
40839W        W83751  29.427   1.507   6.527 -0.2072 -0.0348 -0.0173
40840W        W83752  30.114   3.069   5.679  0.0681  0.0040 -0.2922
40841W        W83753  30.821   2.721   3.545  0.2861  0.1303  0.2885
40842W        W83754  30.582   1.298   5.595  0.1870 -0.2220 -0.1589
40843W        W83755  30.197   3.453   3.785 -0.0786  0.1941 -0.0633
40844W        W83756  32.593   0.264   5.776 -0.2356  0.2933  0.0323
40845W        W83757  28.222   2.892   6.792 -0.0117 -0.0859 -0.0718
40846W        W83758  31.034   2.869   4.390  0.2585  0.0657 -0.0861
40847W        W83759  29.430   1.258   2.711  0.2960 -0.1105 -0.1812
40848W        W83760  31.264   0.776   5.400  0.2216  0.3569  0.2159
40849W        W83761  31.330   3.261   4.321 -0.0330  0.0724  0.2425
40850W        W83762  28.906  34.545   6.235  0.1934 -0.0867 -0.2505
40851W        W83763  29.723   1.276   5.886 -0.0144 -0.1618  0.5157
40852W        W83764  29.356   4.055   6.220  0.1937  0.0968 -0.0432
40853W        W83765  30.964   2.088   5.751  0.2109  0.1654 -0.4039
40854W        W83766  33.554   0.696   3.138 -0.2550  0.0993  0.0277
40855W        W83767  30.858   2.446   8.006  0.3563 -0.2580  0.2425
40856W        W83768  30.717   2.475   6.184  0.0504 -0.1819  0.0764
40857W        W83769  28.918   2.357   3.558 -0.2726  0.2861  0.0800
40858W        W83770  32.621   2.399   5.828 -0.2155 -0.1660 -0.0070
40859W        W83771  29.697   2.387   5.697  0.0855 -0.0775 -0.0970
40860W        W83772  28.056   3.969   5.840 -0.1984  0.1550  0.0654
40861W        W83773  32.304   3.072   5.336  0.3156  0.3630 -0.0777
40862W        W83774  29.740   0.122   4.631  0.1251 -0.1531  0.1609
40863W        W83775  30.115   2.182   3.425 -0.0837 -0.0078 -0.0144
40864W        W83776  30.677   2.058   6.614  0.2691  0.1837  0.2727
40865W        W83777  31.977   1.416   7.597  0.2322 -0.0047  0.0851
40866W        W83778  29.201   0.144   5.411 -0.0263  0.1408 -0.1522
40867W        W83779  30.214   0.097   5.858  0.4147 -0.0584  0.1009
40868W        W83780  31.617   2.509   4.631 -0.0669 -0.0035 -0.0909
40869W        W83781  30.148   2.432   4.850  0.1231 -0.2567  0.0292
40870W        W83782  31.774   1.296   6.048 -0.6256 -0.0460 -0.0988
40871W        W83783  29.028   3.235   7.462 -0.1116 -0.0199  0.1750
40872W        W83784  31.399  34.584   5.435  0.1756 -0.0932  0.0994
40873W        W83785  33.423   4.472   5.807  0.3138 -0.2297 -0.0905
40874W        W83786  31.323   1.415   6.721 -0.1946 -0.0315  0.1402
40875W        W83787  30.113   2.856   3.826  0.2236  0.2432  0.1283
40876W        W83788  29.926   0.544   5.076  0.4432 -0.1763  0.1735
40877W        W83789  29.854   3.017   4.354  0.0737 -0.1974  0.1734
40878W        W83790  30.718   1.024   6.078 -0.0169 -0.1336  0.0379
40879W        W83791  29.212   3.320   6.617 -0.0613 -0.2393 -0.2781
40880W        W83792  29.376   2.359   4.508  0.1296 -0.0409  0.0447
40881W        W83793  28.805   2.425   5.911 -0.1162  0.2627 -0.1694
40882W        W83794  32.491   0.521   3.570 -0.2501  0.0549  0.3218
40883W        W83795  31.085   3.070   3.901  0.1801  0.0015  0.1430
40884W        W83796  31.345   0.411   4.143 -0.1108  0.0363 -0.0672
40885W        W83797  31.644   0.964   6.413 -0.1147 -0.0033  0.2410
40886W        W83798  31.527   2.831   4.161  0.3221  0.0479 -0.2403
40887W        W83799  31.728   0.448   7.674  0.1596 -0.2140 -0.0174
40888W        W83800  29.450  34.347   7.693 -0.0238 -0.1399 -0.0204
40889W        W83801  31.848   3.266   5.562 -0.2780  0.0475  0.2052
40890W        W83802  29.992   1.428   7.280  0.0075  0.2150 -0.1440
40891W        W83803  32.303   3.082   6.446  0.1078  0.1576 -0.3048
40892W        W83804  29.783   2.735   7.581 -0.1338  0.0556 -0.0199
40893W        W83805  32.048   0.513   5.271 -0.1494 -0.1121 -0.4256
40894W        W83806  27.665  33.884   4.093  0.1107  0.2387  0.1166
40895W        W83807  29.487   2.266   6.220  0.2109  0.0129  0.0654
40896W        W83808  31.399   2.617   6.177 -0.0323 -0.0046 -0.0889
40897W        W83809  30.571   2.906   2.468 -0.0016  0.0392 -0.0816
40898W        W83810  32.120   0.574   5.824  0.0124  0.1059  0.2036
40899W        W83811  30.113   1.398   5.424  0.2404  0.0906 -0.0600
40900W        W83812  31.702   1.937   4.492  0.3918  0.0796  0.2964
40901W        W83813  30.701   3.219   4.432 -0.2272 -0.1627  0.2398
40902W        W83814  30.494   3.808   5.802  0.1421  0.0587  0.3235
40903W        W83815  29.841   1.690   6.863 -0.0117  0.1081  0.0131
40904W        W83816  30.486   2.083   5.959 -0.0458 -0.0813  0.3395
40905W        W83817  31.568  34.688   4.719 -0.2332  0.0209 -0.2018
40906W        W83818  32.084   0.625   7.191 -0.1166  0.1268 -0.2541
40907W        W83819  32.505   0.775   7.446 -0.2113  0.0950 -0.1441
40908W        W83820  30.751   1.562   6.510 -0.3713 -0.1099 -0.1585
40909W        W83821  29.155   0.163   5.947 -0.1412 -0.0394 -0.0257
40910W        W83822  32.436   2.061   6.116 -0.1672  0.1920 -0.0446
40911W        W83823  31.966   1.517   4.347  0.2116  0.1163  0.0853
40912W        W83824  31.856   1.814   5.833  0.0083  0.2009 -0.0165
40913W        W83825  32.093   2.114   5.159  0.1607  0.0539 -0.0025
40914W        W83826  30.961   3.275   3.392  0.0747  0.2654  0.3119
40915W        W83827  28.811  34.573   5.696 -0.0448 -0.0633 -0.0654
40916W        W83828  31.817   2.305   8.868 -0.1726  0.1350  0.2184
40917W        W83829  30.089   0.379   4.353  0.3226  0.0436 -0.0893
40918W        W83830  30.831   1.091   6.616 -0.0214  0.1817  0.0345
40919W        W83831  29.790   4.066   2.835 -0.0508 -0.0326 -0.0277
40920W        W83832  31.142   1.882   4.603  0.3233 -0.1126 -0.0387
40921W        W83833  31.563   0.822   4.044 -0.1296  0.3424  0.1457
40922W        W83834  29.233   0.857   4.608  0.0469  0.1328  0.0386
40923W        W83835  29.473   3.183   7.007  0.2176  0.2056  0.4780
40924W        W83836  29.540   1.938   4.214 -0.0147  0.0596  0.1253
40925W        W83837  31.337   2.918   3.167  0.0165 -0.2826 -0.0879
40926W        W83838  29.717   2.775   6.125  0.2533 -0.2420 -0.1003
40927W        W83839  32.478   3.508   8.218 -0.0166 -0.0529  0.2065
40928W        W83840  30.583   0.216   4.422 -0.3632 -0.0441  0.2484
40929W        W83841  31.048   1.160   5.661  0.0959 -0.0753  0.0372
40930W        W83842  28.059   3.770   5.414  0.1397 -0.1073 -0.1420
40931W        W83843  30.880   0.455   6.829 -0.1510 -0.1097 -0.0233
40932W        W83844  28.096   3.412   5.850  0.1219  0.2674  0.1870
40933W        W83845  29.280   1.806   6.975 -0.0205 -0.3547 -0.1630
40934W        W83846  29.815   3.658   4.625  0.0124  0.5013  0.1216
40935W        W83847  30.354   1.351   6.059 -0.0495 -0.3930 -0.6389
40936W        W83848  30.436   1.768   5.421 -0.0430  0.2596 -0.2288
40937W        W83849  29.609   2.160   6.850 -0.0928 -0.1677  0.0745
40938W        W83850  31.574   2.249   7.104 -0.3314  0.1186  0.2974
40939W        W83851  30.932   2.334   6.958 -0.0770  0.0328  0.1323
40940W        W83852  30.563   2.982   5.887  0.0038  0.1355 -0.5114
40941W        W83853  30.907   3.768   7.095 -0.3875 -0.1209  0.1349
40942W        W83854  32.123   0.840   3.766  0.1827 -0.0303 -0.0256
40943W        W83855  29.603   3.999   5.590  0.0809  0.1795 -0.0179
40944W        W83856  30.240   1.011   7.806 -0.1054  0.1369  0.1294
40945W        W83857  31.434   1.529   7.665  0.0309  0.2917  0.1762
40946W        W83858  31.738   2.265   5.490  0.0531  0.2032  0.0060
40947W        W83859  30.468   0.963   3.806 -0.0439 -0.4307  0.1508
40948W        W83860  30.753   2.661   4.057  0.1519 -0.0407  0.1841
40949W        W83861  29.130   3.793   8.862 -0.1831  0.2670  0.3585
40950W        W83862  28.616   1.972   5.739  0.1555  0.0133 -0.3926
40951W        W83863  29.584   4.553   5.101  0.1877 -0.1079 -0.1813
40952W        W83864  30.617   3.730   5.194  0.0489 -0.2442 -0.0463
40953W        W83865  30.912   3.521   4.796 -0.1929 -0.2273  0.1197
40954W        W83866  30.722   3.703   6.317 -0.4239 -0.1795  0.1311
40955W        W83867  30.766   1.099   4.244 -0.4715  0.0320 -0.0289
40956W        W83868  28.669   2.499   5.043 -0.1637  0.0658  0.0482
40957W        W83869  29.569   3.587   5.171 -0.0158 -0.2197 -0.0542
40958W        W83870  31.877   3.423   4.506 -0.0607  0.1162 -0.0782
40959W        W83871  28.440   4.732   5.142 -0.0167 -0.1148 -0.0073
40960W        W83872  31.450   1.663   8.191 -0.1287  0.1032  0.1006
40961W        W83873  31.557   0.606   3.176  0.0031  0.1253  0.1639
40962W        W83874  30.692   2.493   5.605 -0.0512  0.0344 -0.4108
40963W        W83875  32.368  33.989   3.595  0.0359 -0.2068 -0.1532
40964W        W83876  32.040   4.007   7.993  0.0382 -0.0365 -0.0261
40965W        W83877  29.731   2.213   5.077  0.0457 -0.0587  0.0214
40966W        W83878  30.399   1.940   4.559 -0.3023  0.1450 -0.2559
40967W        W83879  29.589   1.758   7.423  0.3805  0.3757 -0.2784
40968W        W83880  32.572   0.169   6.409 -0.0565  0.0848 -0.1139
40969W        W83881  29.607   5.718   7.606  0.1580  0.2170 -0.1905
40970W        W83882  32.129   2.695   6.843  0.0076  0.2183 -0.3386
40971W        W83883  28.236  34.251   3.282 -0.1603  0.5143  0.0023
40972W        W83884  30.902   2.848   5.102 -0.1201  0.0603 -0.0549
40973W        W83885  32.088   0.512   6.415 -0.0226 -0.3563 -0.1662
40974W        W83886  32.103   3.110   4.081 -0.1403  0.3084  0.1610
40975W        W83887  29.886  34.658   6.273 -0.2316 -0.2968 -0.1778
40976W        W83888  30.837   4.250   6.021  0.1679 -0.2315 -0.3036
40977W        W83889  30.260   4.405   5.075  0.0875 -0.1019 -0.1578
40978W        W83890  30.242   3.869   6.250 -0.0977  0.3959 -0.2365
40979W        W83891  30.244  34.139   4.040  0.0836 -0.2061  0.3502
40980W        W83892  33.042   1.077   3.482 -0.2509 -0.2514 -0.0797
40981W        W83893  30.295   1.859   6.341  0.0359 -0.2271  0.1371
40982W        W83894  31.779   0.729   6.782 -0.1210  0.2375 -0.1625
40983W        W83895  29.689   2.689   4.803 -0.0095  0.2267 -0.4718
40984W        W83896  31.778   0.912   5.625 -0.3544  0.1297 -0.0237
40985W        W83897  31.710   1.820   6.780 -0.0410 -0.2489  0.1720
40986W        W83898  28.868   1.611   6.732 -0.2080 -0.0013 -0.1957
40987W        W83899  29.998   1.636   4.605 -0.0042  0.0778  0.0438
40988W        W83900  32.412   3.068   7.822 -0.1812 -0.0754  0.1272
40989W        W83901  31.377   1.566   3.750 -0.0270 -0.1813 -0.1253
40990W        W83902  31.867   3.904   6.248  0.0800 -0.2960  0.1475
40991W        W83903  29.449   0.470   4.905  0.0942 -0.0148 -0.0689
40992W        W83904  31.001  34.603   3.472  0.0936 -0.0578 -0.4842
40993W        W83905  30.157   2.953   4.759 -0.0375  0.0749  0.0664
40994W        W83906  30.998   1.588   5.404  0.1370  0.1261 -0.1483
40995W        W83907  32.239   1.916   8.280 -0.3355  0.0618  0.0888
40996W        W83908  30.710   0.220   5.852  0.1366  0.2513  0.2720
40997W        W83909  32.909   3.609   4.219  0.1091 -0.0143  0.3931
40998W        W83910  30.780   1.202   5.129 -0.0593 -0.1833 -0.1878
40999W        W83911  30.493   3.923   3.766  0.1399  0.0435 -0.1873
41000W        W83912  32.044   2.286   4.645 -0.1012 -0.1265 -0.5325
41001W        W83913  30.519   3.319   5.516  0.3621 -0.0668 -0.1259
41002W        W83914  28.180   2.734   5.896  0.0209 -0.1461  0.2470
41003W        W83915  31.917   3.255   4.970  0.2743 -0.0701 -0.0423
41004W        W83916  33.869   2.968   5.091 -0.4776 -0.0397  0.1638
41005W        W83917  30.697  34.572   4.810 -0.0407 -0.0489  0.2476
41006W        W83918  29.318   0.743   5.938  0.0069  0.1792  0.0811
41007W        W83919  28.973   4.785   5.336  0.1533  0.0281  0.3507
41008W        W83920  32.125   2.250   6.613  0.2430 -0.1012 -0.2905
41009W        W83921  31.692   0.065   6.387  0.0034 -0.1092 -0.1525
41010W        W83922  29.127   2.899   2.155 -0.7363  0.1538  0.4113
41011W        W83923  31.421   0.035   7.412 -0.1823  0.1515 -0.1135
41012W        W83924  31.433   2.069   5.962  0.4617 -0.0594  0.2611
41013W        W83925  29.066   4.040   7.055  0.0877 -0.1080 -0.1566
41014W        W83926  29.614   1.992   3.393 -0.1196  0.1696 -0.2011
41015W        W83927  30.303   2.277   5.410 -0.1009 -0.3708  0.2207
41016W        W83928  30.382   2.906   4.273 -0.1594  0.3044 -0.2671
41017W        W83929  30.444   3.090   2.980  0.1164 -0.1496  0.1009
41018W        W83930  32.193   2.536   5.508 -0.0099  0.2213  0.2492
41019W        W83931  31.454   1.259   5.437 -0.0604  0.1939 -0.0052
41020W        W83932  34.059   2.612   4.641  0.0229 -0.0037  0.1604
41021W        W83933  29.552  33.967   5.618 -0.3720 -0.0227 -0.2928
41022W        W83934  32.235   1.290   4.678 -0.1951 -0.1085 -0.2625
41023W        W83935  32.129  33.105   3.806 -0.2112 -0.1927  0.2901
41024W        W83936  29.180   3.718   7.599  0.2703 -0.1990  0.1044
41025W        W83937  28.219   1.814   3.740 -0.0269 -0.0873 -0.2177
41026W        W83938  30.997   2.290   1.024  0.4574  0.1519 -0.0262
41027W        W83939  29.274   3.035   6.147 -0.2303  0.2535  0.3020
41028W        W83940  30.997   0.717   6.323  0.2017 -0.1805 -0.1811
41029W        W83941  29.411   0.875   6.785  0.2282 -0.1662 -0.2010
41030W        W83942  29.248   2.608   5.848  0.1040  0.1480 -0.0412
41031W        W83943  29.029   2.603   4.119 -0.0371  0.0766 -0.2130
41032W        W83944  31.263   3.601   3.771  0.0420 -0.2361 -0.2008
41033W        W83945  29.297   0.247   3.731  0.0860 -0.1241  0.2442
41034W        W83946  29.699  34.633   3.037 -0.2615  0.0382  0.0718
41035W        W83947  30.202   3.344   4.454 -0.2126 -0.2469  0.1077
41036W        W83948  30.847   3.464   5.835  0.0882 -0.2004 -0.0681
41037W        W83949  30.503   0.486   3.880  0.0492 -0.1302  0.2353
41038W        W83950  32.584   4.115   7.789 -0.0004  0.1228  0.2056
41039W        W83951  30.249   3.852   4.185  0.0649  0.0469  0.3361
41040W        W83952  31.045   1.866   7.901  0.3814 -0.1927  0.0750
41041W        W83953  29.920   1.421   6.360  0.0834  0.4215 -0.1393
41042W        W83954  28.582  34.273   4.156 -0.2259 -0.2835  0.3379
41043W        W83955  30.869   1.338   4.655 -0.1953 -0.3870  0.0895
41044W        W83956  30.978   3.934   5.642  0.0495  0.1735 -0.1260
41045W        W83957  31.031   3.510   2.605 -0.3261 -0.1379  0.0837
41046W        W83958  28.737   1.893   5.226  0.0383 -0.1860 -0.0733
41047W        W83959  31.197   1.988   6.736  0.1796 -0.1475 -0.0967
41048W        W83960  30.058   0.537   7.627  0.2318 -0.0506  0.0381
41049W        W83961  31.964   3.213   3.570 -0.3189 -0.0363 -0.0300
41050W        W83962  31.098   2.380   6.470 -0.0139  0.1740 -0.1352
41051W        W83963  32.283   2.694   4.993  0.2031 -0.2605  0.2353
41052W        W83964  31.963   1.855   6.341  0.0097 -0.3987 -0.1396
41053W        W83965  31.621   0.508   4.649  0.2595  0.2580 -0.2753
41054W        W83966  29.985  33.984   6.457  0.4365  0.0574 -0.0897
41055W        W83967  30.180   2.994   7.400  0.0927 -0.0195  0.0438
41056W        W83968  31.608   1.085   7.959 -0.1016 -0.0131  0.4117
41057W        W83969  30.833   0.697   5.735  0.2755  0.0091 -0.1005
41058W        W83970  32.681   2.411   5.359 -0.0272  0.1889 -0.7423
41059W        W83971  30.822   2.218   4.466  0.2098 -0.0127 -0.1524
41060W        W83972  30.235   2.625   5.905 -0.4036  0.2502 -0.1838
41061W        W83973  31.267   1.117   4.967 -0.1859  0.2016 -0.1696
41062W        W83974  31.622   1.214   7.228  0.1520  0.0344 -0.0176
41063W        W83975  30.304   3.410   6.041 -0.0263 -0.3246  0.1011
41064W        W83976  31.738   2.550   8.444  0.2466 -0.1222  0.1715
41065W        W83977  30.445   2.798   5.336  0.0018 -0.2511 -0.3486
41066W        W83978  31.300   2.519   5.251  0.3332  0.1846  0.0146
41067W        W83979  31.580   2.614   6.754  0.2536 -0.1637  0.0734
41068W        W83980  31.395   2.539   7.548 -0.1150  0.4262  0.2937
41069W        W83981  32.382   3.340   6.036 -0.1179 -0.1828  0.3531
41070W        W83982  31.385   1.908   5.497 -0.0531  0.2458  0.1842
41071W        W83983  29.424  33.877   6.645  0.0293  0.0785 -0.0409
41072W        W83984  29.411   2.538   5.291  0.0748 -0.2490  0.1831
41073W        W83985  31.461   3.003   4.848  0.1442  0.3248 -0.2612
41074W        W83986  31.954   0.088   7.316 -0.0628  0.0108  0.1467
41075W        W83987  30.017   1.113   4.091  0.0596 -0.0366  0.2412
41076W        W83988  32.171   0.756   4.640 -0.2843  0.1359 -0.3391
41077W        W83989  30.634   4.684   6.133 -0.1501 -0.2138 -0.0383
41078W        W83990  31.440   3.035   6.432  0.0246  0.0616 -0.1673
41079W        W83991  28.367   1.351  10.383 -0.1360  0.4400  0.2358
41080W        W83992  29.958   0.054   8.221  0.0464 -0.0118 -0.0410
41081W        W83993  32.696  34.266   7.595 -0.0910  0.0095 -0.0844
41082W        W83994  31.153   2.347   8.944  0.0893  0.1705 -0.0140
41083W        W83995  29.548   1.033   8.459  0.2572  0.1306  0.0625
41084W        W83996  31.847   3.196   6.639  0.2786  0.1988  0.2453
41085W        W83997  31.913   3.166   9.860  0.2400  0.3470 -0.0689
41086W        W83998  30.726   4.700  10.534  0.1237 -0.1350  0.2578
41087W        W83999  31.575   2.213   6.473  0.0402 -0.0800  0.0200
41088W        W84000  30.905   2.543   9.618  0.3246 -0.0079 -0.0958
41089W        W84001  29.496   0.475   7.651  0.3955  0.1504  0.0749
41090W        W84002  28.960  34.127   9.170  0.0399  0.0070  0.1938
41091W        W84003  30.948   2.853   8.787  0.2510  0.2140  0.4317
41092W        W84004  28.572   1.268   7.484  0.0163 -0.1577 -0.0034
41093W        W84005  31.142   1.151   8.060  0.1014 -0.1690 -0.0403
41094W        W84006  30.306   1.697  10.274 -0.3840  0.0350  0.0663
41095W        W84007  30.960   2.939   8.303  0.1989 -0.2729 -0.0140
41096W        W84008  30.279  34.522   9.601  0.2135 -0.0699  0.0739
41097W        W84009  30.309   2.388   7.641  0.2056 -0.0121 -0.1073
41098W        W84010  28.784   0.911   8.774  0.0610 -0.1093  0.4080
41099W        W84011  29.618   0.818   9.018  0.2876 -0.0521  0.1813
41100W        W84012  29.391   0.336   9.043  0.1290 -0.3495  0.0440
41101W        W84013  31.028  34.010  10.599 -0.1577 -0.1039 -0.0605
41102W        W84014  33.076  30.442  12.359  0.0519 -0.1250  0.3529
41103W        W84015  29.351   2.560   9.897  0.3053  0.0806  0.3005
41104W        W84016  30.958   3.720   8.838  0.0607  0.0226 -0.2293
41105W        W84017  29.387   2.343   7.877  0.0379 -0.4939  0.1285
41106W        W84018  28.583   2.664   8.721  0.0535  0.0825  0.2517
41107W        W84019  30.675   2.038   7.710  0.1378 -0.1214 -0.1444
41108W        W84020  33.117   2.975   9.676 -0.0602 -0.0350  0.0648
41109W        W84021  28.830   3.701   6.674  0.1908 -0.1842  0.2811
41110W        W84022  31.567   1.733   9.540  0.0459 -0.0844  0.0432
41111W        W84023  30.528   1.689   8.582 -0.2910 -0.0511 -0.0310
41112W        W84024  31.115   3.549   7.462  0.2592 -0.1699  0.2583
41113W        W84025  30.518   2.217   9.504  0.1862  0.3240 -0.2394
41114W        W84026  29.290   3.294   8.818 -0.2184  0.0117 -0.0442
41115W        W84027  29.376   4.226   7.678  0.1074  0.0540  0.0128
41116W        W84028  32.505   0.415   8.246  0.0179 -0.0343 -0.4091
41117W        W84029  30.846   1.588   5.889 -0.0433  0.3177 -0.1370
41118W        W84030  32.073   0.902   7.632  0.0638 -0.0379 -0.2718
41119W        W84031  29.699  32.730  10.055  0.2416 -0.0132 -0.1417
41120W        W84032  30.066   3.454   8.562 -0.0873  0.0120 -0.2578
41121W        W84033  30.397   0.485   9.031 -0.1458  0.3024  0.2492
41122W        W84034  30.060   1.949   7.809 -0.1133 -0.0378 -0.0063
41123W        W84035  31.877   2.140  10.543  0.0925 -0.1613 -0.2252
41124W        W84036  29.921   0.366   9.082 -0.0127 -0.1887  0.0748
41125W        W84037  30.610   1.668   9.251  0.2614  0.1028 -0.0750
41126W        W84038  31.808   2.677   9.791  0.1889 -0.1825  0.1910
41127W        W84039  31.892   2.163   9.727  0.4991 -0.2623 -0.0134
41128W        W84040  30.527   3.299   7.520 -0.0320 -0.2558 -0.1992
41129W        W84041  29.534   2.224   8.394 -0.0922 -0.1500 -0.0238
41130W        W84042  30.470   0.151   7.639  0.1161  0.2326  0.1556
41131W        W84043  32.815   1.565   8.916 -0.1468  0.0996 -0.0597
41132W        W84044  29.265   1.658   9.310  0.1091 -0.4334 -0.3104
41133W        W84045  33.188   5.217   9.685  0.2189  0.2837 -0.0824
41134W        W84046  30.494   2.073   8.984 -0.0256 -0.1185 -0.0286
41135W        W84047  33.020   0.165  10.011  0.0478 -0.0456 -0.0524
41136W        W84048  32.189  34.620  10.602 -0.1065  0.0555  0.0364
41137W        W84049  30.904   0.013   8.460 -0.1650 -0.3868  0.1513
41138W        W84050  30.231   2.502   7.066  0.5375 -0.1677 -0.0373
41139W        W84051  31.376   2.834  10.329 -0.0803 -0.0751  0.2456
41140W        W84052  31.516   2.768   8.988 -0.4045  0.2028 -0.0628
41141W        W84053  28.625   3.204   9.558  0.1962  0.3708 -0.0879
41142W        W84054  29.547   3.719   7.181 -0.1545 -0.2219  0.3176
41143W        W84055  28.353   3.671   8.668  0.1764 -0.0748  0.0226
41144W        W84056  30.812   1.788   7.009 -0.2982  0.2224 -0.0055
41145W        W84057  30.164   0.153  10.024 -0.0657  0.0143 -0.0398
41146W        W84058  29.362   4.658   9.730  0.1761 -0.0611  0.2100
41147W        W84059  32.189  34.374   8.552  0.0396  0.6521  0.0372
41148W        W84060  33.282  33.364   9.696  0.2633  0.2170  0.0358
41149W        W84061  29.723   3.263   7.443 -0.1728  0.1022  0.1752
41150W        W84062  32.897   4.076   9.293  0.2253 -0.1495  0.1022
41151W        W84063  31.700   1.465   9.067  0.0819 -0.1845 -0.4675
41152W        W84064  32.240   2.594   8.118 -0.1598  0.2544  0.1109
41153W        W84065  29.571  33.422   9.579  0.2296 -0.3389 -0.0038
41154W        W84066  29.709  34.132  10.331 -0.2738 -0.0643 -0.2455
41155W        W84067  29.007  34.269   8.198 -0.3656 -0.2958  0.0223
41156W        W84068  28.315   0.259   8.193 -0.1249  0.1868 -0.1993
41157W        W84069  31.873   2.575   9.289  0.0746  0.1618 -0.2395
41158W        W84070  30.524   1.042   9.200 -0.0448 -0.3014 -0.3019
41159W        W84071  29.078   1.731   7.800 -0.1601  0.2488 -0.0237
41160W        W84072  31.076   2.054   7.364  0.0801 -0.2060 -0.3348
41161W        W84073  33.742   4.020   9.714 -0.0709  0.0642  0.1616
41162W        W84074  31.878   3.517   9.481 -0.2802 -0.4665 -0.3075
41163W        W84075  30.040   0.635   9.890  0.3062  0.0343 -0.0531
41164W        W84076  28.293  33.672   6.934  0.0359  0.1736  0.0647
41165W        W84077  28.032   3.391   8.952  0.0366  0.1247 -0.2389
41166W        W84078  30.556   3.041   8.994 -0.0717 -0.1077  0.0347
41167W        W84079  28.932   1.293   7.854 -0.1236  0.2609  0.2924
41168W        W84080  30.934   3.450   9.956  0.0316  0.0802 -0.0805
41169W        W84081  30.934   1.970   9.426  0.3010  0.0647 -0.1789
41170W        W84082  32.738   2.486   8.969 -0.2270  0.2821  0.0289
41171W        W84083  31.968   1.035   9.165 -0.0462 -0.0834 -0.1356
41172W        W84084  30.152   2.162   6.717 -0.1443 -0.1219 -0.1749
41173W        W84085  30.407   3.008   8.365 -0.3432  0.0448  0.1028
41174W        W84086  28.942   4.551   7.917 -0.2265  0.4096  0.0925
41175W        W84087  28.700   1.805   8.157 -0.2604 -0.2100 -0.2584
41176W        W84088  30.315   4.047   8.256 -0.1390  0.2946  0.0461
41177W        W84089  32.006   0.276   9.773  0.2143  0.2091 -0.1684
41178W        W84090  30.263   0.835   8.335 -0.0486 -0.1523 -0.2500
41179W        W84091  31.344   1.539   8.688  0.0546 -0.0220 -0.0661
41180W        W84092  32.635   0.503   8.840 -0.3544 -0.2670 -0.0224
41181W        W84093  32.321   2.593  10.012 -0.1245 -0.0149 -0.3347
41182W        W84094  31.818   1.305   6.761  0.0563  0.0324  0.0718
41183W        W84095  31.754   0.475   8.173  0.0063  0.2442  0.1862
41184W        W84096  31.350   3.247   7.982  0.1340 -0.0031  0.3021
41185W        W84097  29.365   2.166   9.315 -0.1007 -0.2369 -0.1537
41186W        W84098  30.871   0.879   7.114 -0.0951 -0.0555 -0.2959
41187W        W84099  32.935   3.687   8.322  0.2677  0.1097  0.0686
41188W        W84100  28.902   2.242   9.444  0.1520  0.0239  0.0045
41189W        W84101  30.465   2.642   9.902  0.1242 -0.1633  0.0275
41190W        W84102  29.832  34.635  10.487 -0.2366 -0.0001  0.4457
41191W        W84103  30.136   1.753   5.923  0.1435  0.0141 -0.4018
41192W        W84104  31.751   0.034   8.659  0.1534  0.0145 -0.0762
41193W        W84105  29.685   3.809   7.698  0.0794 -0.0379 -0.3398
41194W        W84106  30.007   0.765   9.408  0.1782  0.1558  0.0917
41195W        W84107  30.571   3.665   9.610 -0.2247  0.1910 -0.0931
41196W        W84108  32.229   0.826   8.704  0.4759  0.2991  0.2334
41197W        W84109  31.470   0.953   8.986 -0.4846 -0.4373 -0.2007
41198W        W84110  29.890   1.440   7.755  0.2478 -0.1786 -0.1045
41199W        W84111  29.852  33.758   9.939  0.0269 -0.0103  0.2945
41200W        W84112  27.829   3.899   9.469  0.0093 -0.0942 -0.0484
41201W        W84113  29.860   3.162   8.224  0.1770 -0.0370 -0.3348
41202W        W84114  29.962   1.057   6.914 -0.4290 -0.2718  0.0693
41203W        W84115  30.624   2.422   8.554 -0.1501  0.1333 -0.1147
41204W        W84116  30.862   2.477   7.450  0.1448 -0.3177  0.4911
41205W        W84117  30.808  33.669   9.044 -0.0666  0.0575 -0.1354
41206W        W84118  30.779   1.261   9.576  0.0711 -0.1351  0.0041
41207W        W84119  30.150   3.337   7.849 -0.2994 -0.1146 -0.1414
41208W        W84120  29.387   1.139   9.451 -0.2282 -0.2796  0.0470
41209W        W84121  29.291   3.211   8.302 -0.0456  0.2574 -0.1054
41210W        W84122  31.932  33.936   9.341 -0.2182 -0.1121 -0.0592
41211W        W84123  28.729   4.031   9.025 -0.2508 -0.0623  0.0108
41212W        W84124  30.313   0.454   8.094 -0.1207 -0.1526 -0.1212
41213W        W84125  30.103   0.863   8.957 -0.0490  0.0923  0.1227
41214W        W84126  32.803   0.512   9.677 -0.3107 -0.0093 -0.0133
41215W        W84127  31.373   2.226   8.086  0.1169 -0.1729 -0.1248
41216W        W84128  28.852  34.576   9.450 -0.3058  0.1562  0.1059
41217W        W84129  29.717  34.608   9.996  0.0011 -0.1464 -0.0193
41218W        W84130  29.255   5.529   9.679 -0.0642 -0.0831 -0.0717
41219W        W84131  31.564   0.720   7.280  0.0748 -0.3685  0.1689
41220W        W84132  29.580   2.302   7.343 -0.1861  0.0034  0.2976
41221W        W84133  34.462   1.124   9.128  0.1189 -0.0073  0.0114
41222W        W84134  30.178   0.224   8.620 -0.0945 -0.1009 -0.1655
41223W        W84135  30.534   1.693   8.040 -0.3782 -0.1559  0.0169
41224W        W84136  31.180  34.635  10.085 -0.0559 -0.0657  0.5078
41225W        W84137  30.341   1.714   7.011 -0.0510 -0.4154  0.0375
41226W        W84138  28.813   3.379   8.572 -0.0110  0.3421 -0.2341
41227W        W84139  31.049   4.144   8.526 -0.0488 -0.3636 -0.1643
41228W        W84140  31.335   0.716   8.316  0.0425  0.0073  0.0896
41229W        W84141  30.059   2.172   8.627 -0.0070 -0.2904 -0.0011
41230W        W84142  30.749   2.631   9.146  0.2046  0.1216  0.0926
41231W        W84143  30.811   3.071   9.641 -0.0034  0.1620 -0.3455
41232W        W84144  32.493   1.164  10.106 -0.0356  0.1850  0.2833
41233W        W84145  29.426   0.295   9.881  0.5120 -0.0559 -0.2942
41234W        W84146  31.900   4.418   7.746  0.0903 -0.1642  0.2477
41235W        W84147  30.068   2.037   7.245 -0.1990 -0.0468 -0.1124
41236W        W84148  29.192   2.602   9.178 -0.2011 -0.1025 -0.2456
41237W        W84149  30.839   2.951  10.218 -0.0629  0.0161 -0.2248
41238W        W84150  30.871   1.310   8.929 -0.1571 -0.0842 -0.0059
41239W        W84151  29.273   2.310   8.827 -0.1235  0.0146 -0.0659
41240W        W84152  29.902   3.107   9.430 -0.1836 -0.5252 -0.1589
41241W        W84153  29.994   5.281  10.184 -0.0100 -0.1187 -0.0442
41242W        W84154  33.008   0.012   8.937 -0.0276  0.1033 -0.0832
41243W        W84155  31.565   1.210   8.425 -0.1157 -0.3211 -0.1593
41244W        W84156  31.656   0.434   8.971  0.1130  0.2492  0.0449
41245W        W84157  33.026   1.448   8.492  0.1613  0.0343  0.0019
41246W        W84158  30.762  34.124   9.353  0.1299  0.1975 -0.1715
41247W        W84159  31.002   2.978   7.637  0.0785 -0.1398 -0.1081
41248W        W84160  32.298   2.256   8.633 -0.3858 -0.0116  0.0783
41249W        W84161  30.688   1.310   7.804  0.0833 -0.0793  0.0260
41250W        W84162  30.089   2.209   9.269 -0.1566  0.0774  0.1339
41251W        W84163  32.043   1.582  10.401  0.0941  0.0983  0.0880
41252W        W84164  30.866   2.044   8.353  0.0235  0.2945 -0.2099
41253W        W84165  33.231   1.220   8.940  0.1398 -0.4393  0.0437
41254W        W84166  30.449   4.174   9.550 -0.0606 -0.1214 -0.4177
41255W        W84167  32.380   0.572  10.582  0.2891 -0.1205  0.0341
41256W        W84168  31.819   1.829   8.682 -0.2551  0.1237  0.0303
41257W        W84169  30.402   2.181   8.161 -0.2199  0.1047  0.0454
41258W        W84170  31.598   1.148   9.551  0.0053  0.0694 -0.1234
41259W        W84171  33.716   0.696  10.026 -0.0612  0.1042 -0.4131
41260W        W84172  30.903   3.384   9.244  0.0760  0.0672 -0.4221
41261W        W84173  32.287   2.302   9.277 -0.0892 -0.0140 -0.0287
41262W        W84174  31.684   1.359  10.093  0.0305  0.0046 -0.3000
41263W        W84175  32.651   2.597   8.444  0.1349  0.1751 -0.2424
41264W        W84176  30.511  34.351   7.647 -0.2406 -0.0018  0.2286
41265W        W84177  30.089   1.282   8.637  0.2183 -0.1423 -0.0020
41266W        W84178  30.667   0.762   7.635  0.0896  0.4259  0.1919
41267W        W84179  30.493   3.352   7.034  0.2574 -0.1347 -0.1174
41268W        W84180  31.401   2.419   9.431  0.2154 -0.2317 -0.0191
41269W        W84181  32.032   1.495   8.197 -0.1235  0.0068  0.0725
41270W        W84182  29.791   1.090   9.802  0.2416  0.0126  0.3032
41271W        W84183  30.314   1.363   6.666 -0.3103 -0.0153 -0.4157
41272W        W84184  31.329   2.027   8.561 -0.2450  0.2013 -0.0952
41273W        W84185  30.311   1.023   9.740 -0.1056 -0.0431 -0.0086
41274W        W84186  31.119   0.504   7.363  0.1858 -0.0312 -0.0969
41275W        W84187  28.617   3.313   7.058 -0.0636 -0.0454 -0.0586
41276W        W84188  31.530  34.271   9.307 -0.0165 -0.3764  0.1347
41277W        W84189  29.036   4.106   9.780  0.0949  0.1292  0.1018
41278W        W84190  30.531   2.864   7.812 -0.3352 -0.4111  0.0843
41279W        W84191  28.481   3.537   9.108 -0.1025  0.4104 -0.1239
41280W        W84192  31.594  34.667  10.310  0.2464 -0.1109  0.0269
41281W        W84193  30.779   4.078  10.011  0.1119  0.1463 -0.0072
41282W        W84194  29.229   1.145   8.885 -0.0480  0.1408 -0.0749
41283W        W84195  33.542   0.019   9.985 -0.0025 -0.1455 -0.3099
41284W        W84196  29.914   2.167   9.832 -0.0836  0.0795 -0.2102
41285W        W84197  31.227   2.123   9.841 -0.1717  0.0723  0.0038
41286W        W84198  30.715   0.022   9.428 -0.1448 -0.2151 -0.0673
41287W        W84199  29.769   2.801   7.022  0.0196  0.4084  0.0015
41288W        W84200  28.805   0.761   9.666  0.2997 -0.0062  0.4340
41289W        W84201  29.928   4.793   8.506  0.3543 -0.1747  0.2605
41290W        W84202  30.972   3.199   7.143  0.0949  0.0344 -0.1414
41291W        W84203  30.285   2.549   8.954 -0.0595 -0.2700  0.0163
41292W        W84204  32.079   3.513   8.545 -0.4256  0.0403  0.0879
41293W        W84205  32.078   1.503   9.356  0.0113  0.1163 -0.0801
41294W        W84206  29.457   3.487   9.228 -0.2370  0.2128  0.2509
41295W        W84207  28.933   3.129   7.949 -0.0147 -0.0474  0.0131
41296W        W84208  32.428   3.739   9.194 -0.1077  0.0794 -0.0220
41297W        W84209  28.905   4.735   9.390 -0.0953 -0.2802  0.2571
41298W        W84210  32.323  34.599   7.718 -0.2374  0.0530 -0.0860
41299W        W84211  33.138   0.820   9.928  0.2729  0.1809 -0.2873
41300W        W84212  32.992   0.781   8.283 -0.2042 -0.0025 -0.2482
41301W        W84213  31.708   1.825  10.062  0.2747  0.1370 -0.0757
41302W        W84214  29.983   1.720   8.269 -0.1723  0.1084  0.2660
41303W        W84215  31.885   4.587   9.502  0.0276 -0.2283  0.3371
41304W        W84216  29.429   1.442   8.044  0.3004  0.1486 -0.0949
41305W        W84217  30.806   1.779   9.946  0.0491 -0.0946 -0.1407
41306W        W84218  31.952  33.980  10.169 -0.1669  0.1305 -0.1373
41307W        W84219  30.985   1.531   8.362  0.0548 -0.0838  0.1953
41308W        W84220  31.176   1.464   9.316  0.1901  0.1538 -0.5184
41309W        W84221  29.845   4.244   7.928  0.0238 -0.0081 -0.1464
41310W        W84222  29.674   2.901   8.619  0.0078  0.0011  0.2020
41311W        W84223  29.347   2.956   9.577  0.0823  0.0310  0.0523
41312W        W84224  29.002  34.364   7.502 -0.1377 -0.1067  0.0380
41313W        W84225  32.237   2.681   8.922  0.3131 -0.0595  0.0052
41314W        W84226  28.426   2.137   9.346 -0.1323 -0.1045  0.0836
41315W        W84227  30.548   1.265   8.287 -0.0408  0.2070 -0.0811
41316W        W84228  32.334   1.741   8.933  0.0576  0.2192 -0.2074
41317W        W84229  29.935   1.628   9.953 -0.1732 -0.1092 -0.1693
41318W        W84230  30.971   0.802   9.162  0.1494 -0.1171  0.1970
41319W        W84231  31.120   1.325   6.221  0.1174 -0.1962 -0.0437
41320W        W84232  31.405   0.106   7.936  0.1627 -0.1950  0.1108
41321W        W84233  30.250  34.424   8.583 -0.0670 -0.1777 -0.0415
41322W        W84234  31.303   0.653   7.823 -0.1527  0.0012 -0.5053
41323W        W84235  29.436   0.969   7.964 -0.0993  0.3028  0.2722
41324W        W84236  30.979   2.504  10.160  0.0684 -0.1590 -0.2156
41325W        W84237  31.280   0.023   8.881  0.0176 -0.0560 -0.0371
41326W        W84238  32.030   3.735   7.497  0.0890 -0.1222  0.0011
41327W        W84239  30.851   1.425  10.356  0.1910  0.2228 -0.0390
41328W        W84240  30.482   3.759   6.775 -0.1427  0.0932 -0.2851
41329W        W84241  31.453   1.950   9.073  0.1947  0.2193 -0.2848
41330W        W84242  30.550   4.759   9.544  0.1923 -0.3513 -0.2723
41331W        W84243  29.660   1.968   8.926  0.3276  0.2143  0.1343
41332W        W84244  29.753   2.926   9.911 -0.0434 -0.1354  0.1754
41333W        W84245  34.638   5.231  10.362  0.1597  0.0723  0.0488
41334W        W84246  32.467   1.187   9.168 -0.1022 -0.1245  0.0968
41335W        W84247  30.897   0.268   9.817 -0.1085 -0.1365  0.0524
41336W        W84248  29.438   3.999   8.104  0.1010 -0.0589  0.1917
41337W        W84249  32.717   1.607   9.457 -0.0875 -0.2268 -0.1634
41338W        W84250  29.945   3.818   6.882 -0.0958 -0.2580  0.1771
41339W        W84251  28.612   4.300   9.591  0.0521  0.1236 -0.1395
41340W        W84252  30.540   2.193   7.185  0.0312 -0.2747  0.0142
41341W        W84253  30.367   3.270   9.885  0.0092  0.1935  0.1730
41342W        W84254  30.815   3.817   8.285 -0.3049 -0.1107 -0.1818
41343W        W84255  29.696   2.537   9.506 -0.2735  0.0980 -0.1741
41344W        W84256  31.951   1.968   9.231 -0.1262  0.0325 -0.2084
41345W        W84257  31.301   2.730   9.784 -0.3061 -0.0387 -0.2294
41346W        W84258  30.724   0.861   8.129  0.1388  0.1892  0.0465
41347W        W84259  32.571   0.715   9.291 -0.2854  0.0104 -0.0014
41348W        W84260  32.774   1.093   8.760 -0.0208 -0.2809  0.0314
41349W        W84261  28.458   2.321   9.879 -0.0368  0.1440  0.0072
41350W        W84262  29.407   1.272   7.529  0.0426  0.1302 -0.1516
41351W        W84263  28.931   2.692   7.593 -0.1014 -0.0287  0.1092
41352W        W84264  30.123   1.743   8.941 -0.0679  0.0582  0.1717
41353W        W84265  29.556   2.976   9.068  0.0227 -0.1983 -0.1098
41354W        W84266  29.942   1.186   8.147  0.0376  0.2228 -0.1750
41355W        W84267  31.914   3.007   8.711 -0.1011 -0.2629 -0.4155
41356W        W84268  30.431  33.905   8.750 -0.0279 -0.3056  0.2702
41357W        W84269  29.189  34.346   8.675  0.1356  0.1312  0.0559
41358W        W84270  32.312   1.881   9.610 -0.2326 -0.1965 -0.1236
41359W        W84271  31.242   2.534   8.494  0.1710  0.1496  0.2430
41360W        W84272  30.637  34.522  10.243  0.2882 -0.0789  0.0397
41361W        W84273  29.931   2.451   8.009  0.0020  0.0447  0.1905
41362W        W84274  28.023   0.146   7.077 -0.1790  0.2659  0.1161
41363W        W84275  31.016  34.383   9.688  0.0051  0.0144 -0.1003
41364W        W84276  31.306   3.328   8.971  0.5583  0.2480  0.0496
41365W        W84277  31.422   3.125   6.882 -0.1704  0.2021  0.3470
41366W        W84278  29.380  34.602   8.223 -0.0287 -0.0661  0.0713
41367W        W84279  29.723   2.453   8.948  0.0170 -0.4815  0.0035
41368W        W84280  31.410   2.697   8.099  0.0928 -0.1342  0.3093
41369W        W84281  31.519   0.410   9.881 -0.0457  0.1373 -0.1262
41370W        W84282  30.225   1.810   9.582 -0.1845  0.0021  0.0802
41371W        W84283  30.372   2.844   9.421 -0.1658  0.0905 -0.0125
41372W        W84284  30.698   0.733   9.582  0.3812 -0.0629 -0.2438
41373W        W84285  32.076   0.372   8.527  0.3426 -0.0261 -0.0502
41374W        W84286  30.555   2.494   6.713  0.2850 -0.0088 -0.4273
41375W        W84287  28.753   2.123   8.993 -0.1712  0.1724  0.0825
41376W        W84288  31.579  34.606   9.775 -0.0635  0.1173 -0.0839
41377W        W84289  32.204   2.089  10.116  0.2015 -0.2085 -0.0121
41378W        W84290  30.411   1.630   7.545 -0.1755  0.1047 -0.3528
41379W        W84291  32.293   2.813   7.339  0.0117  0.0428 -0.0385
41380W        W84292  33.819   1.848   8.907  0.1082 -0.0801 -0.0725
41381W        W84293  28.667   2.591   9.199 -0.0444  0.1135 -0.0065
41382W        W84294  33.204   1.545   9.353  0.0281 -0.2110  0.0380
41383W        W84295  28.832   0.412   8.981  0.0803  0.2126  0.1773
41384W        W84296  29.602   1.904   8.008 -0.0339  0.0464  0.0628
41385W        W84297  31.183   1.895  10.350 -0.2339  0.0060 -0.2406
41386W        W84298  31.475   2.361  10.208  0.0026 -0.0413 -0.1275
41387W        W84299  30.210   1.351   9.306  0.2052 -0.0910 -0.1971
41388W        W84300  31.364   0.274   8.434 -0.2587 -0.0895  0.1090
41389W        W84301  30.623   4.931   9.048 -0.0006 -0.0909  0.1204
41390W        W84302  30.195   4.136   9.096 -0.1489 -0.0609 -0.2067
41391W        W84303  30.250   7.345   2.756 -0.0116  0.0358 -0.2068
41392W        W84304  30.275   4.605   1.427 -0.2225  0.2657  0.1720
41393W        W84305  32.069   4.325   0.042  0.1977  0.0349  0.1441
41394W        W84306  32.811   5.017   1.987 -0.0845  0.0360  0.0094
41395W        W84307  30.276   3.767   0.893  0.0760  0.1251 -0.2408
41396W        W84308  32.982   6.859   0.047  0.1191 -0.0885 -0.1389
41397W        W84309  29.070   2.882   3.369 -0.0329 -0.0641  0.2815
41398W        W84310  31.867   8.357   2.109 -0.0427  0.1329 -0.1567
41399W        W84311  31.976   6.764   3.950  0.1671  0.3310 -0.0688
41400W        W84312  31.100   6.140   0.876 -0.3025  0.3767  0.0626
41401W        W84313  29.879   6.234   3.007 -0.2790 -0.2588  0.3608
41402W        W84314  29.679   7.096   2.708 -0.1854 -0.1841 -0.1014
41403W        W84315  30.766   6.294   0.387  0.1139  0.0572 -0.0493
41404W        W84316  28.611   4.561   3.368  0.2310 -0.0224 -0.0705
41405W        W84317  31.360   5.938   2.614 -0.3693 -0.2431 -0.0574
41406W        W84318  29.447   5.741   1.406  0.0726  0.0661 -0.0594
41407W        W84319  29.851   5.377   2.953 -0.0851  0.1686  0.0039
41408W        W84320  31.578   5.698   1.708  0.0348  0.2679  0.1219
41409W        W84321  29.830   7.820   2.129  0.3264  0.0062  0.0571
41410W        W84322  29.875   4.517   3.277 -0.0656 -0.0318  0.0500
41411W        W84323  31.269   4.441   2.716  0.0950 -0.0400 -0.1325
41412W        W84324  29.609   6.841   1.682 -0.2264  0.0295 -0.0142
41413W        W84325  30.081   5.052  31.713  0.5336 -0.0724  0.1155
41414W        W84326  29.110   4.058   2.159 -0.1449 -0.4381 -0.0606
41415W        W84327  30.410   6.203   2.867 -0.1317 -0.3961  0.2445
41416W        W84328  30.878   5.101   1.823  0.3921  0.2272  0.0510
41417W        W84329  30.740   6.062   1.745 -0.0263  0.1851  0.1848
41418W        W84330  32.655   6.827  31.592  0.0242  0.1078 -0.0626
41419W        W84331  30.909   8.218   1.298 -0.0766 -0.1136 -0.2681
41420W        W84332  31.314   4.548   3.684 -0.2122  0.1604  0.1947
41421W        W84333  28.157   5.991   2.033  0.2198 -0.2971 -0.1401
41422W        W84334  29.439   6.342   1.544 -0.2354  0.2656 -0.0733
41423W        W84335  29.199   7.077   1.399 -0.2236  0.0658 -0.3074
41424W        W84336  32.700   6.059   1.707 -0.0423  0.1586 -0.0791
41425W        W84337  32.054   6.961   3.440 -0.3106  0.1654  0.1040
41426W        W84338  30.337   7.401   2.224  0.0061  0.0381 -0.2022
41427W        W84339  28.259   8.072   0.577  0.0392 -0.1974 -0.1718
41428W        W84340  31.402   6.943   3.447  0.3345  0.0534 -0.2656
41429W        W84341  30.786   6.671   2.876 -0.1308 -0.1631 -0.0761
41430W        W84342  31.427   5.630   3.579  0.2340 -0.1081 -0.1361
41431W        W84343  30.944   6.349   1.407  0.3448 -0.1183 -0.1495
41432W        W84344  30.610   7.264  31.305  0.1856  0.1362  0.0431
41433W        W84345  30.830   7.225   0.892  0.1211  0.2325 -0.0765
41434W        W84346  29.013   5.851   3.674 -0.3840  0.1997  0.0835
41435W        W84347  29.081   5.748   2.818 -0.0328 -0.3017 -0.0772
41436W        W84348  33.265   4.643   3.839 -0.0790  0.2353  0.0902
41437W        W84349  29.890   9.172   1.772  0.1056  0.0460 -0.1051
41438W        W84350  31.604   5.990   0.793  0.0138  0.1485  0.3345
41439W        W84351  30.399   5.294   0.145  0.3241  0.2180  0.0133
41440W        W84352  33.158   5.347   2.179 -0.2968  0.2095 -0.1091
41441W        W84353  29.677   4.795   1.648 -0.1482 -0.0674  0.3500
41442W        W84354  29.579   6.977   2.210 -0.0520 -0.2553 -0.1548
41443W        W84355  29.959   5.078   1.273  0.0541  0.2424 -0.0617
41444W        W84356  33.702   5.518   3.130  0.2042  0.0322  0.0825
41445W        W84357  29.577   5.766   2.896 -0.1602 -0.0277  0.2285
41446W        W84358  32.060   4.352   3.153 -0.0429  0.2319  0.0349
41447W        W84359  28.754   6.984   3.449 -0.0564 -0.1322 -0.2207
41448W        W84360  30.042   5.055   1.891  0.0892 -0.2903  0.3085
41449W        W84361  34.024   7.280  30.608 -0.0844  0.1520  0.1801
41450W        W84362  32.294   5.711   2.588  0.0904  0.4540 -0.2069
41451W        W84363  31.420   8.621  31.213  0.0432 -0.0472 -0.1989
41452W        W84364  32.063   6.000   2.261 -0.0280 -0.1627 -0.1167
41453W        W84365  28.897   5.482   3.306 -0.3318 -0.2469 -0.1700
41454W        W84366  30.207   5.494   3.552 -0.1700 -0.0006  0.1547
41455W        W84367  30.291   3.522   0.382  0.0335  0.0663 -0.2470
41456W        W84368  34.372   6.209   3.437  0.1413 -0.1267 -0.0150
41457W        W84369  28.006   7.647   3.606  0.2245  0.1237  0.2663
41458W        W84370  33.500   3.501   1.649  0.2945 -0.1571  0.0082
41459W        W84371  31.014   5.909   2.246 -0.1532  0.0297 -0.0324
41460W        W84372  32.223   5.791   3.068 -0.0946  0.2245 -0.0083
41461W        W84373  31.750   8.436  31.863  0.1625  0.2433 -0.5519
41462W        W84374  31.273   4.247   1.925 -0.2498 -0.1425  0.0942
41463W        W84375  31.691   4.486   1.739 -0.2375  0.1034 -0.0769
41464W        W84376  30.369   6.249   0.097  0.0463 -0.0237  0.0782
41465W        W84377  30.792   7.538   0.407  0.0326  0.0496  0.1864
41466W        W84378  33.117   6.457   3.174  0.2127 -0.0972  0.0099
41467W        W84379  31.667   5.916  31.266 -0.1227  0.1204  0.0403
41468W        W84380  28.980   6.587   3.131  0.0302 -0.0595  0.0286
41469W        W84381  30.523   4.189   1.645  0.0668 -0.0087 -0.1629
41470W        W84382  31.198   6.567   3.266  0.0171 -0.0218  0.1438
41471W        W84383  29.095   6.286   0.225  0.0203  0.0961 -0.1096
41472W        W84384  27.790   6.958   1.496  0.2464  0.0680  0.0185
41473W        W84385  30.470   5.969  31.697 -0.0419  0.1566 -0.3045
41474W        W84386  29.230   4.592   1.949 -0.2278  0.0579 -0.1819
41475W        W84387  30.615   6.379   3.625  0.0526 -0.0510  0.2506
41476W        W84388  32.745   5.129   1.001  0.2694 -0.0720 -0.2594
41477W        W84389  29.841   4.575   1.188 -0.1989 -0.0594 -0.4750
41478W        W84390  30.944   4.955   1.281  0.1244 -0.2026 -0.1505
41479W        W84391  29.167   6.605   1.199  0.0683  0.2705  0.2155
41480W        W84392  32.795   7.776   1.481  0.1051 -0.0715 -0.1248
41481W        W84393  31.876   4.871   0.824  0.0992 -0.1428  0.1137
41482W        W84394  32.578   6.157  30.499  0.3550 -0.1384 -0.0685
41483W        W84395  27.943   4.410   4.936  0.2308  0.0628  0.2906
41484W        W84396  30.183   6.426   1.008  0.2105 -0.1170  0.0247
41485W        W84397  29.222   3.729   3.323  0.2838 -0.0462  0.0889
41486W        W84398  29.708   4.121   0.822  0.2421  0.0115 -0.0472
41487W        W84399  31.968   5.358   2.880  0.2351  0.2303  0.1050
41488W        W84400  30.108   4.353   0.775  0.1052  0.2338 -0.2199
41489W        W84401  32.800   5.489   1.884  0.4008  0.0446 -0.0848
41490W        W84402  31.997   5.530   2.018  0.0930 -0.1622  0.0063
41491W        W84403  30.284   5.543   2.526  0.2746  0.0342 -0.0835
41492W        W84404  31.478   3.773   4.305 -0.1799 -0.2948  0.2460
41493W        W84405  30.270   7.907   1.898  0.2115 -0.4566 -0.0362
41494W        W84406  33.323   7.222   3.998  0.0679  0.0106 -0.0913
41495W        W84407  32.282   7.470   2.203 -0.1205 -0.0562 -0.2585
41496W        W84408  29.636   4.110   3.321 -0.1163 -0.0269  0.3135
41497W        W84409  29.555   4.459  31.497  0.1791 -0.3342 -0.2018
41498W        W84410  29.701   7.542   2.998  0.2702 -0.1480  0.1472
41499W        W84411  31.314   6.733   1.432 -0.1418 -0.1050 -0.0937
41500W        W84412  29.568   4.627   0.511  0.3153  0.3716  0.2422
41501W        W84413  32.713   9.093   2.084 -0.1564 -0.0198 -0.0032
41502W        W84414  30.666   5.860   0.999 -0.2710 -0.0052 -0.1888
41503W        W84415  30.296   6.367   2.345  0.0277  0.0166  0.3562
41504W        W84416  31.316   4.905   1.928 -0.1427 -0.1587  0.0410
41505W        W84417  33.396   6.444   2.806  0.2153 -0.0410 -0.0128
41506W        W84418  31.575   6.171   1.363 -0.0076  0.0497 -0.1002
41507W        W84419  28.343   4.428  30.830  0.2917  0.1780  0.0467
41508W        W84420  32.271   7.632   1.745  0.0526  0.0086  0.0768
41509W        W84421  29.160   6.799   1.857  0.0546  0.0670  0.1157
41510W        W84422  30.334   6.028   0.598 -0.1901  0.1907 -0.1688
41511W        W84423  30.997   5.632   1.810 -0.0778  0.1269 -0.2255
41512W        W84424  32.174   4.854   1.656 -0.0303  0.0892 -0.0850
41513W        W84425  29.666   6.414   3.482 -0.1348 -0.0061 -0.0823
41514W        W84426  31.478   5.399   3.034  0.1205 -0.0962  0.1649
41515W        W84427  30.644   4.491   0.587  0.0882 -0.1741 -0.0191
41516W        W84428  28.861   6.329   3.596 -0.2431  0.1878  0.0248
41517W        W84429  31.572   4.572   2.339 -0.1443 -0.1610 -0.0116
41518W        W84430  32.373   5.200  31.515 -0.0949 -0.1082  0.1860
41519W        W84431  31.572   6.353   3.602 -0.1501  0.3566 -0.3229
41520W        W84432  32.462   6.711   1.234 -0.0254  0.0161 -0.1340
41521W        W84433  31.512   4.287   0.402  0.0574  0.0620  0.0174
41522W        W84434  33.277   3.932   1.568 -0.0762 -0.2568 -0.1749
41523W        W84435  29.251   7.077   3.039 -0.0075  0.5792  0.0023
41524W        W84436  31.372   7.640   0.540 -0.5182 -0.0893 -0.3551
41525W        W84437  30.600   7.019   2.559 -0.0935  0.4179 -0.1940
41526W        W84438  31.064   5.429   1.126  0.2455  0.1246  0.2201
41527W        W84439  32.598   6.596   1.684 -0.1506 -0.0695 -0.1338
41528W        W84440  29.628   4.924   3.125 -0.1944 -0.2029 -0.2509
41529W        W84441  32.462   6.844   3.740 -0.0718  0.0957 -0.0318
41530W        W84442  32.736   7.605   2.427 -0.0367 -0.4173 -0.1870
41531W        W84443  30.135   4.889   2.800  0.3058  0.4487 -0.2246
41532W        W84444  30.365   5.512   1.984  0.0171  0.0603  0.0443
41533W        W84445  30.580   4.117   0.937 -0.0466  0.0961  0.0238
41534W        W84446  29.860   8.363  31.737 -0.1742 -0.2388 -0.2848
41535W        W84447  31.924   4.824   2.103  0.1538  0.3295  0.1141
41536W        W84448  31.135   5.380   2.616 -0.0871  0.1425 -0.0539
41537W        W84449  30.811   4.114   2.050 -0.0473 -0.1264 -0.0163
41538W        W84450  31.546   4.467   3.164  0.1099 -0.0339  0.0286
41539W        W84451  32.706   7.224   0.157 -0.5490 -0.1542 -0.0820
41540W        W84452  30.650   5.930   3.325 -0.0064 -0.0523 -0.0261
41541W        W84453  31.499   5.865  31.862  0.0038 -0.0053  0.6459
41542W        W84454  30.931   4.521   2.308 -0.0925 -0.1184  0.1273
41543W        W84455  30.082   7.064   3.116  0.4782 -0.0435  0.1353
41544W        W84456  29.579   6.846   3.864  0.4135 -0.3359  0.2201
41545W        W84457  32.985   6.541   3.683 -0.1119 -0.0018  0.1034
41546W        W84458  32.812   7.113   2.265 -0.2127  0.0331 -0.1896
41547W        W84459  31.861   3.877   4.702 -0.0218  0.2585  0.0172
41548W        W84460  31.493   6.594   0.123  0.3543  0.1080  0.0431
41549W        W84461  29.729   6.365   2.058 -0.1093  0.0949 -0.2469
41550W        W84462  30.557   6.698   0.030 -0.5914 -0.1686  0.1321
41551W        W84463  30.368   3.235   1.767  0.0938  0.1599  0.0130
41552W        W84464  31.709   7.211   3.196  0.3279  0.1159  0.0038
41553W        W84465  29.667   6.941   1.129 -0.1018  0.1981  0.0596
41554W        W84466  31.268   6.336   2.337 -0.0053 -0.1330  0.2510
41555W        W84467  28.442   5.647   1.444 -0.1201 -0.1075 -0.1484
41556W        W84468  32.509   4.783   2.507 -0.0596 -0.1194 -0.3286
41557W        W84469  30.106   6.935   2.334  0.1398 -0.3026  0.1066
41558W        W84470  30.010   5.474   0.346  0.0195  0.0222 -0.0593
41559W        W84471  30.312   4.629   2.013  0.0339  0.1037  0.0222
41560W        W84472  32.911   5.349   2.866 -0.4984  0.1150  0.1315
41561W        W84473  32.370   5.253   1.922  0.1593  0.1340  0.2958
41562W        W84474  28.287   4.476   3.735 -0.2699  0.1876  0.3098
41563W        W84475  30.786   3.617   1.849  0.1655  0.1108  0.2951
41564W        W84476  29.094   6.167   1.873  0.2116 -0.2158 -0.1846
41565W        W84477  31.483   6.462   0.919  0.1659 -0.0970 -0.1642
41566W        W84478  32.449   3.403   1.867 -0.1126  0.0985  0.1396
41567W        W84479  31.767   4.869   3.050 -0.0983  0.1977 -0.0839
41568W        W84480  31.891   4.642   3.516 -0.1959  0.0483 -0.3436
41569W        W84481  30.232   5.613  31.290 -0.0880 -0.0764 -0.1726
41570W        W84482  32.389   4.293   2.695 -0.3225  0.2274 -0.0370
41571W        W84483  30.563   5.629   1.540  0.0338 -0.4560  0.3584
41572W        W84484  28.860   5.045   2.264  0.1244  0.1737  0.1180
41573W        W84485  32.309   6.964   2.384 -0.0585 -0.0824  0.0712
41574W        W84486  29.089   5.379   0.067 -0.1983  0.1158 -0.1544
41575W        W84487  29.865   5.964   1.274 -0.0288  0.1732 -0.3906
41576W        W84488  29.533   4.494   2.840  0.0228 -0.1034 -0.3353
41577W        W84489  32.443   5.638   3.669 -0.0435  0.1033  0.1515
41578W        W84490  29.917   4.346   1.692 -0.0279  0.1551  0.1440
41579W        W84491  30.800   5.398   2.280  0.2764  0.1494 -0.1885
41580W        W84492  30.362   6.082   1.350 -0.1893 -0.1106  0.1775
41581W        W84493  30.793   6.300   2.458  0.1782  0.0330 -0.1783
41582W        W84494  30.617   5.157   2.654 -0.0955  0.1161 -0.0025
41583W        W84495  30.554   7.184   4.060 -0.2205  0.1335 -0.0909
41584W        W84496  30.575   4.341   0.092 -0.1933 -0.0806 -0.1978
41585W        W84497  32.422   8.199   1.609 -0.1470 -0.0342 -0.0440
41586W        W84498  30.771   5.728   2.767 -0.3317  0.2035 -0.2507
41587W        W84499  29.879   6.801   0.681 -0.1255 -0.2119 -0.0800
41588W        W84500  28.849   4.491   3.829 -0.0286  0.0874  0.0477
41589W        W84501  29.917   5.841   0.757 -0.0631 -0.0544  0.0357
41590W        W84502  30.493   4.662   2.550 -0.1032  0.2581  0.1735
41591W        W84503  29.703   6.754   3.036 -0.1271 -0.1168  0.0697
41592W        W84504  29.676   7.408   0.040  0.1514 -0.1924 -0.3419
41593W        W84505  29.732   6.544   2.523 -0.1045  0.0012  0.2598
41594W        W84506  32.612   3.591  31.894  0.0603 -0.0663  0.0285
41595W        W84507  29.373   6.759  31.891  0.0187 -0.0956 -0.1730
41596W        W84508  31.075   4.417   0.797  0.1067  0.4164  0.0531
41597W        W84509  33.907   3.866   3.003 -0.1933 -0.0686  0.0100
41598W        W84510  31.966   5.115  31.768  0.3704  0.1788  0.1675
41599W        W84511  31.439   3.548   4.832 -0.0902 -0.2838 -0.0573
41600W        W84512  30.423   4.036   0.485  0.1823  0.0399  0.1483
41601W        W84513  33.139   6.737   2.483  0.1041 -0.1824  0.0322
41602W        W84514  28.674   3.693   3.387  0.2437 -0.1070 -0.2557
41603W        W84515  32.207   7.244   3.041 -0.0268 -0.1989 -0.0297
41604W        W84516  30.933   6.187   2.979  0.1594  0.1087  0.0667
41605W        W84517  31.858   3.969   0.778 -0.0267 -0.1457  0.1006
41606W        W84518  31.718   1.505   1.119  0.1654 -0.1894 -0.1321
41607W        W84519  30.252   5.610   1.168  0.1746 -0.1038 -0.0325
41608W        W84520  31.838   6.032   2.776  0.0652 -0.0164  0.0078
41609W        W84521  30.766   6.851   0.571  0.1370 -0.0316  0.2168
41610W        W84522  31.710   5.157   1.808  0.2472  0.0020 -0.2762
41611W        W84523  29.567   5.962   1.871 -0.1312 -0.2597  0.2837
41612W        W84524  32.087   6.335   1.398 -0.3703 -0.1778 -0.1668
41613W        W84525  31.352   6.124   0.270 -0.2369 -0.0009 -0.1850
41614W        W84526  28.990   7.446   0.651 -0.1387  0.2828  0.0315
41615W        W84527  30.019   3.757   1.621 -0.1070  0.2572 -0.2584
41616W        W84528  32.425   5.766   2.059 -0.0411 -0.1168  0.1769
41617W        W84529  30.949   4.942   0.699 -0.2375 -0.1387 -0.1194
41618W        W84530  32.449   5.277   2.805 -0.0181  0.2407 -0.0276
41619W        W84531  31.493   5.926   2.128  0.1228  0.0839  0.0669
41620W        W84532  31.166   4.945   2.400  0.1033 -0.0141  0.2052
41621W        W84533  30.355   3.637   2.119 -0.0438  0.1988  0.0220
41622W        W84534  32.095   6.737   2.858 -0.0126  0.0823 -0.2857
41623W        W84535  31.808   6.440   0.485  0.0021  0.3820 -0.2055
41624W        W84536  34.260   6.525   2.064  0.2101  0.0641 -0.0081
41625W        W84537  31.283   6.218   1.730 -0.1527  0.1305 -0.0455
41626W        W84538  30.878   5.288   0.370 -0.2854  0.1060 -0.0649
41627W        W84539  28.970   4.805   1.392 -0.4244 -0.1007 -0.0674
41628W        W84540  32.396   4.145   3.487  0.5673 -0.1992  0.2191
41629W        W84541  29.570   3.644   1.114 -0.1090 -0.0524 -0.0325
41630W        W84542  31.694   3.934   3.149  0.1770 -0.1295  0.1147
41631W        W84543  31.788   7.464   0.188 -0.0128 -0.1220  0.0280
41632W        W84544  32.416   7.203   1.399  0.1786  0.2589  0.1428
41633W        W84545  32.029   5.950   1.734 -0.0132  0.0143  0.0665
41634W        W84546  30.070   5.241   0.803 -0.1006  0.0535  0.2970
41635W        W84547  29.209   7.191   3.627 -0.0399  0.1580  0.0937
41636W        W84548  29.110   3.925  30.791  0.0795 -0.0578  0.0599
41637W        W84549  31.096   5.889   1.335  0.1170  0.1171  0.1464
41638W        W84550  30.072   6.940   1.466  0.5468 -0.1996  0.1303
41639W        W84551  31.948   6.065   3.664 -0.0662  0.1450 -0.0156
41640W        W84552  31.461   3.771   0.358 -0.2245  0.2505 -0.1576
41641W        W84553  32.624   5.532   3.213  0.1884 -0.0196 -0.2550
41642W        W84554  28.664   5.981   1.816  0.1578  0.1131  0.0454
41643W        W84555  30.846   3.634   0.546  0.1257  0.1496 -0.1307
41644W        W84556  30.033   5.817   3.872  0.0313 -0.2283 -0.0230
41645W        W84557  28.203   6.827   3.522  0.1748 -0.2489  0.2793
41646W        W84558  29.921   7.744   1.590 -0.0643  0.3103  0.1324
41647W        W84559  32.026   4.554   1.231  0.1593  0.1839  0.3020
41648W        W84560  31.735   5.623   2.482 -0.1294 -0.0570  0.1259
41649W        W84561  30.435   6.583   1.471 -0.1178 -0.4475 -0.1749
41650W        W84562  32.315   4.778   2.984 -0.0543  0.2016  0.0565
41651W        W84563  30.296   7.358   1.693  0.0770  0.1818  0.0277
41652W        W84564  30.062   5.736   1.661  0.0432 -0.2017  0.1913
41653W        W84565  31.671   6.556   1.709  0.3105  0.3755  0.2006
41654W        W84566  32.059   5.925   1.097  0.2438  0.0797 -0.0740
41655W        W84567  30.648   6.546   2.017 -0.1305 -0.0827  0.3640
41656W        W84568  28.325   5.108   2.437 -0.0484 -0.1181 -0.4194
41657W        W84569  30.313   4.436   2.963 -0.2260 -0.1088  0.2132
41658W        W84570  31.872   7.128   2.035  0.1654  0.2020 -0.0481
41659W        W84571  29.848   3.136  31.813  0.2246  0.0945 -0.0598
41660W        W84572  31.919   7.573   1.396  0.4434 -0.3427  0.0009
41661W        W84573  29.787   9.580   3.483 -0.0556  0.2503 -0.0448
41662W        W84574  29.369   4.646   3.368  0.2221 -0.1044 -0.2083
41663W        W84575  30.443   6.983   1.942  0.1309 -0.0292  0.0027
41664W        W84576  31.162   7.191   1.233 -0.0231 -0.1709 -0.0166
41665W        W84577  32.104   7.993   1.129  0.1040 -0.0999  0.1069
41666W        W84578  32.460   7.727   2.849 -0.2475  0.1240 -0.1109
41667W        W84579  31.280   3.986   0.747  0.0860  0.2464 -0.1267
41668W        W84580  31.655   7.719   2.384 -0.2734  0.4560 -0.2277
41669W        W84581  28.251   7.623   0.376  0.1262 -0.2682 -0.0955
41670W        W84582  31.005   7.720  31.130  0.1305  0.0124  0.2920
41671W        W84583  30.247   6.667   2.754 -0.0308 -0.1374  0.1862
41672W        W84584  31.134   7.075   2.934  0.1507 -0.0127 -0.1907
41673W        W84585  32.895   2.944   0.628  0.1178 -0.4243  0.1003
41674W        W84586  32.504   7.039   1.854  0.1047 -0.1015  0.0843
41675W        W84587  32.355   4.236   1.004 -0.0913  0.0056  0.2937
41676W        W84588  31.171   6.647   1.952 -0.0337 -0.1699 -0.2408
41677W        W84589  30.332   5.092   2.277  0.1944 -0.1412 -0.2159
41678W        W84590  30.045   4.420   0.314  0.3438  0.0599  0.0680
41679W        W84591  29.805   5.862   3.367  0.0466 -0.1867 -0.1629
41680W        W84592  31.719   3.657   3.553  0.2795  0.2082 -0.0565
41681W        W84593  28.765   6.742   4.327  0.1136  0.0122 -0.0967
41682W        W84594  31.731   8.527   0.945  0.1842  0.1934  0.0507
41683W        W84595  28.624   4.914   0.887  0.0755 -0.2442 -0.0502
41684W        W84596  30.447   4.980   3.659 -0.2992 -0.0209  0.1239
41685W        W84597  33.171   3.435   2.512  0.0614 -0.1523  0.0919
41686W        W84598  30.883   5.778   0.326 -0.0615 -0.0734 -0.2732
41687W        W84599  30.127   5.790   2.964 -0.0889  0.3325  0.3754
41688W        W84600  29.911   8.285   1.916  0.0977  0.2939  0.0988
41689W        W84601  31.251   7.661   1.552 -0.0221 -0.3929 -0.2712
41690W        W84602  29.273   6.778   2.661  0.1292 -0.2254 -0.1669
41691W        W84603  28.878   4.894   0.122  0.2634  0.0256  0.0891
41692W        W84604  32.640   5.412   2.392  0.0679  0.1395 -0.1424
41693W        W84605  29.010   4.541   3.071  0.3100  0.3112 -0.1584
41694W        W84606  33.285   4.217   2.906  0.2175 -0.0229  0.1449
41695W        W84607  30.329   6.623   0.513  0.0324 -0.0748  0.1048
41696W        W84608  33.321   5.624   2.780  0.2032 -0.1850 -0.2064
41697W        W84609  30.769   7.789   2.214 -0.0988  0.3026  0.0371
41698W        W84610  29.804   5.448   2.198  0.0977  0.4099 -0.2872
41699W        W84611  32.218   6.540  31.581  0.2104 -0.1876 -0.2798
41700W        W84612  32.421   6.193   2.895 -0.1999 -0.0584  0.1163
41701W        W84613  31.458   3.693   1.142 -0.1878 -0.1382  0.0455
41702W        W84614  32.619   7.226   2.755  0.1988 -0.0216 -0.0012
41703W        W84615  30.148   4.594  31.486  0.0106  0.0039 -0.1415
41704W        W84616  31.252   4.472   1.395 -0.0166 -0.0182 -0.1560
41705W        W84617  30.948   6.766   1.065 -0.0836  0.0782 -0.1275
41706W        W84618  30.523   5.936   2.190 -0.1546  0.2077 -0.2103
41707W        W84619  32.969   7.373   3.623 -0.2106  0.0830 -0.0203
41708W        W84620  29.939   3.850   0.402 -0.0052 -0.0588  0.1071
41709W        W84621  31.181   6.617   0.483 -0.2763 -0.0725  0.0394
41710W        W84622  32.824   5.831   2.861  0.2475  0.1994  0.2484
41711W        W84623  29.373   6.019   1.026 -0.2111  0.1233 -0.1366
41712W        W84624  31.284   5.248   1.545 -0.0713  0.0783 -0.1903
41713W        W84625  31.742   6.365   2.157  0.2766  0.0883  0.2054
41714W        W84626  28.225   4.237   3.304 -0.1252 -0.1413  0.0301
41715W        W84627  33.716   6.941   3.669 -0.0054  0.1636 -0.0180
41716W        W84628  32.883   5.408   3.636  0.0369 -0.1431  0.3365
41717W        W84629  30.965   4.010   1.508 -0.4948 -0.0683  0.0284
41718W        W84630  29.732   5.488   1.027  0.0722  0.0238 -0.3061
41719W        W84631  30.092   6.656   1.897 -0.1180  0.2911  0.0383
41720W        W84632  33.090   5.185   1.511  0.2682 -0.2599 -0.1245
41721W        W84633  32.116   4.359   2.259 -0.0533  0.3872 -0.1520
41722W        W84634  28.889   6.953   0.935 -0.0446 -0.0365 -0.1193
41723W        W84635  30.734   4.230   3.377  0.0046 -0.1377  0.0641
41724W        W84636  30.819   7.277   2.144  0.1364  0.0441  0.0854
41725W        W84637  29.362   7.851   2.309  0.1046  0.1230 -0.1870
41726W        W84638  30.542   5.242   1.055 -0.0464 -0.0904  0.0782
41727W        W84639  30.886   5.256   3.086  0.0657 -0.2838  0.2397
41728W        W84640  30.176   6.160   1.873  0.6278 -0.0451 -0.0602
41729W        W84641  31.669   7.030   0.428 -0.1152  0.2768  0.1148
41730W        W84642  32.595   6.712   2.754 -0.1590 -0.1364  0.0857
41731W        W84643  30.824   6.882   1.582  0.1764  0.1049 -0.0576
41732W        W84644  33.326   5.996   3.112 -0.5580 -0.0492  0.2406
41733W        W84645  31.841   4.079   1.305  0.3289  0.0267 -0.2195
41734W        W84646  32.310   3.908   1.389 -0.0823 -0.0255 -0.2154
41735W        W84647  32.300   3.730   0.895 -0.3139 -0.0083  0.1629
41736W        W84648  29.441   5.447   3.235 -0.2324 -0.2343 -0.1613
41737W        W84649  28.920   5.873   0.831 -0.1264  0.3089  0.2223
41738W        W84650  28.567   7.233   0.354  0.0463 -0.1793  0.2510
41739W        W84651  29.343   5.061   0.422  0.3437 -0.1691 -0.0452
41740W        W84652  30.732   3.881   2.478 -0.0111 -0.1477 -0.1302
41741W        W84653  29.403   4.917   3.934  0.0262  0.1063  0.0153
41742W        W84654  28.684   5.479   0.949  0.1530 -0.0164 -0.3775
41743W        W84655  29.202   4.520  31.110 -0.1348  0.3125 -0.3480
41744W        W84656  32.453   6.610   3.302  0.1898  0.0161  0.1900
41745W        W84657  30.584   3.229   1.235  0.0600  0.1726  0.0940
41746W        W84658  28.487   3.973   1.516 -0.0777 -0.0183  0.2068
41747W        W84659  32.928   6.991   1.454 -0.0691 -0.3608 -0.1415
41748W        W84660  32.493   7.710   0.900 -0.1223  0.4348 -0.2504
41749W        W84661  31.452   3.935   1.602  0.0189  0.1294  0.0974
41750W        W84662  32.621   6.028   3.470 -0.0580 -0.3581  0.1909
41751W        W84663  28.706   6.449   1.062 -0.0923  0.2342 -0.4079
41752W        W84664  30.557   3.590   2.866  0.5010 -0.1103  0.0554
41753W        W84665  31.339   4.057   3.511 -0.0121 -0.1747  0.1245
41754W        W84666  29.597   2.852   0.273 -0.2099 -0.0935 -0.0255
41755W        W84667  29.534   3.683   2.015  0.0395  0.3041 -0.1487
41756W        W84668  30.838   7.447   1.654  0.0681  0.1365  0.1519
41757W        W84669  31.648   7.666  31.756 -0.1220  0.1681  0.1926
41758W        W84670  31.253   6.614   2.783  0.0167  0.0377  0.0306
41759W        W84671  31.230   7.180   1.874 -0.4308 -0.0507  0.0257
41760W        W84672  28.758   4.749   1.895  0.1850 -0.0878  0.0539
41761W        W84673  31.031   6.792  31.903 -0.1214 -0.1804  0.1996
41762W        W84674  29.124   5.425   3.932  0.2971 -0.0247 -0.0233
41763W        W84675  32.056   5.669  31.645  0.0167  0.1155  0.0235
41764W        W84676  32.616   5.110   1.500  0.1254 -0.0727  0.0339
41765W        W84677  31.636   5.578   1.128  0.0809  0.1906 -0.0254
41766W        W84678  30.074   3.550   5.477  0.0514 -0.1700  0.0757
41767W        W84679  29.088   5.049   3.503  0.0452 -0.1075 -0.4006
41768W        W84680  31.721   6.492   2.623 -0.0230  0.0557  0.1644
41769W        W84681  30.481   2.282   0.903  0.3429 -0.1746  0.3727
41770W        W84682  31.631   7.150   1.520  0.1696 -0.0256 -0.0820
41771W        W84683  29.798   4.653   2.114 -0.1100 -0.2724 -0.2567
41772W        W84684  31.364   5.367   2.074  0.0491 -0.2638  0.1452
41773W        W84685  31.026   6.821   2.395 -0.0207 -0.1583  0.0147
41774W        W84686  31.686   7.670   1.821  0.0299  0.0049  0.0633
41775W        W84687  31.460   6.198   3.129  0.1825 -0.4017  0.4004
41776W        W84688  31.974   5.449   1.476  0.1493  0.1336  0.1610
41777W        W84689  31.176   7.184   0.378 -0.1167  0.0168  0.2179
41778W        W84690  31.600   7.998   2.942  0.3141 -0.0816  0.1960
41779W        W84691  33.835   7.073   3.059  0.2518 -0.3963 -0.1299
41780W        W84692  31.928   7.602   2.865 -0.0800  0.0401 -0.1053
41781W        W84693  32.094   5.407   3.405  0.1548  0.0873  0.1596
41782W        W84694  29.199   3.977   1.308  0.2425 -0.0832  0.1586
41783W        W84695  30.045   7.346   1.111 -0.1080 -0.0001 -0.1307
41784W        W84696  29.476   5.338   2.633 -0.0504  0.1278 -0.1209
41785W        W84697  32.139   5.245   2.412  0.1190 -0.1365  0.0767
41786W        W84698  30.539   5.482   0.639  0.0918 -0.0155 -0.1034
41787W        W84699  31.595   4.416   0.926 -0.1019 -0.0742  0.3692
41788W        W84700  31.434   7.542   2.853  0.0265 -0.0995  0.3414
41789W        W84701  31.666   5.144   2.430 -0.0161  0.0846  0.1361
41790W        W84702  29.822   7.537   6.038 -0.0641 -0.2060  0.1560
41791W        W84703  30.619   4.478   3.961  0.2575 -0.2518  0.1523
41792W        W84704  30.928   4.778   2.846  0.1103  0.2093 -0.0372
41793W        W84705  32.542   5.285   4.024  0.2057  0.1628 -0.0226
41794W        W84706  30.213   4.384   6.231  0.0453 -0.1214  0.0723
41795W        W84707  31.358   7.400   4.031  0.0120 -0.1720 -0.0798
41796W        W84708  28.497   4.765   7.106  0.0339  0.0583  0.0696
41797W        W84709  32.605   6.144   5.652  0.3008  0.2197 -0.1949
41798W        W84710  32.962   6.630   7.262 -0.1634  0.1873  0.2730
41799W        W84711  30.209   4.541   3.622  0.2436  0.0540  0.5205
41800W        W84712  29.059   6.302   5.168 -0.0264  0.1585 -0.4235
41801W        W84713  29.864   6.574   5.152 -0.1914 -0.0387 -0.0891
41802W        W84714  30.965   4.916   3.977  0.1239 -0.0090 -0.1173
41803W        W84715  28.621   4.142   6.722 -0.1482  0.1318  0.2704
41804W        W84716  32.266   4.196   6.692  0.0452  0.0626 -0.0993
41805W        W84717  29.527   5.568   5.206 -0.4501  0.2030 -0.1951
41806W        W84718  29.567   5.217   6.177 -0.2762 -0.2963  0.1550
41807W        W84719  30.351   5.109   5.444 -0.2769  0.1444  0.1379
41808W        W84720  31.293   6.660   4.303 -0.1331 -0.1836  0.1318
41809W        W84721  31.144   4.952   6.533 -0.1986  0.0736 -0.0492
41810W        W84722  31.248   3.848   7.983  0.0078 -0.1011  0.0125
41811W        W84723  31.118   7.865   2.625  0.1086 -0.3346  0.0971
41812W        W84724  28.412   3.844   4.369  0.1980  0.0191  0.2261
41813W        W84725  28.347   5.870   6.422 -0.1235 -0.0464 -0.0910
41814W        W84726  31.603   5.148   6.377 -0.0394  0.0042 -0.0781
41815W        W84727  33.326   4.359   5.041 -0.0902  0.3268 -0.1732
41816W        W84728  32.514   4.653   4.548  0.1072 -0.3358 -0.1843
41817W        W84729  31.451   5.547   6.050 -0.1226 -0.1339 -0.1151
41818W        W84730  31.768   5.977   5.369  0.1884 -0.2369  0.1722
41819W        W84731  32.281   4.782   7.409 -0.1245 -0.4640 -0.1983
41820W        W84732  29.889   5.603   6.250 -0.1708 -0.1337  0.1879
41821W        W84733  28.561   6.453   5.069 -0.0555  0.2448 -0.0847
41822W        W84734  30.446   6.297   4.093  0.0204  0.0376 -0.2294
41823W        W84735  33.075   7.325   4.421  0.3903 -0.0592  0.0391
41824W        W84736  32.230   7.142   6.218 -0.1630 -0.0477 -0.1010
41825W        W84737  31.189   6.817   7.223  0.0641 -0.1991  0.0787
41826W        W84738  29.396   6.365   3.913 -0.1207 -0.1059 -0.5815
41827W        W84739  31.310   7.005   6.142  0.1464  0.0765 -0.0301
41828W        W84740  29.261   6.784   6.203  0.2046 -0.3336 -0.0482
41829W        W84741  31.501   5.331   6.826  0.0860 -0.0020 -0.2116
41830W        W84742  30.715   4.144   4.815  0.0107 -0.0116 -0.2012
41831W        W84743  31.327   6.057   4.064  0.0778  0.1193 -0.0553
41832W        W84744  32.890   4.098   5.071  0.2021 -0.1567 -0.1273
41833W        W84745  29.389   6.372   7.542  0.0705 -0.0382 -0.3777
41834W        W84746  29.379   8.315   6.343  0.2697  0.0519  0.0684
41835W        W84747  31.579   3.556   7.133 -0.0301 -0.0617  0.2420
41836W        W84748  30.908   6.283   4.292  0.1265  0.0541 -0.0437
41837W        W84749  30.723   4.036   4.309 -0.0994 -0.1264  0.4719
41838W        W84750  28.941   3.998   3.984 -0.2144  0.3831 -0.0145
41839W        W84751  30.993   3.996   3.865 -0.2546 -0.3181 -0.2533
41840W        W84752  31.431   3.149   5.932  0.1252 -0.4229 -0.0854
41841W        W84753  30.659   6.379   4.967  0.2982  0.1272 -0.2799
41842W        W84754  28.168   4.908   6.025  0.2710  0.1303  0.0448
41843W        W84755  32.783   5.485   6.653  0.2636 -0.1666  0.2296
41844W        W84756  30.209   5.299   4.000 -0.1863 -0.2262  0.1614
41845W        W84757  32.430   5.221   6.354 -0.1217 -0.0227 -0.1817
41846W        W84758  29.996   7.082   6.329 -0.0246  0.1924  0.2312
41847W        W84759  29.231   6.068   6.192 -0.1837 -0.0511  0.0908
41848W        W84760  32.228   6.492   2.490  0.0851  0.0419  0.1843
41849W        W84761  31.193   7.001   4.933  0.2197 -0.0670  0.3289
41850W        W84762  31.382   7.288   2.392 -0.0584  0.1421 -0.1120
41851W        W84763  29.243   5.871   4.912  0.2706 -0.0575  0.0346
41852W        W84764  29.159   7.056   7.800  0.0693 -0.0671 -0.1570
41853W        W84765  30.059   6.230   6.949  0.3168  0.4058 -0.2065
41854W        W84766  30.276   4.033   3.351  0.1567 -0.1160  0.1842
41855W        W84767  32.586   5.791   6.975  0.1525  0.1333  0.1740
41856W        W84768  28.959   7.159   7.028 -0.0224 -0.0666 -0.3470
41857W        W84769  33.285   5.764   4.249 -0.0076 -0.0833  0.1331
41858W        W84770  31.738   5.635   6.503  0.1053  0.0205  0.1309
41859W        W84771  33.268   6.854   6.085  0.2260 -0.0899  0.1108
41860W        W84772  31.151   5.731   3.140  0.2292  0.2785  0.0787
41861W        W84773  32.720   3.247   5.589  0.0128 -0.0694  0.0137
41862W        W84774  32.955   2.758   5.559 -0.1135 -0.4896  0.0208
41863W        W84775  30.088   5.030   3.356  0.0972  0.2100 -0.0934
41864W        W84776  30.705   5.445   3.542  0.0374 -0.2634  0.1396
41865W        W84777  34.628   6.938   5.765  0.1307 -0.3211 -0.0909
41866W        W84778  30.770   4.640   4.997  0.1086 -0.3338 -0.2341
41867W        W84779  29.947   6.773   4.729 -0.0053 -0.3141  0.1130
41868W        W84780  30.399   5.456   6.304 -0.1938 -0.5187  0.0834
41869W        W84781  31.878   6.305   7.183  0.1366  0.3144 -0.2310
41870W        W84782  28.784   7.195   4.044  0.0267 -0.2794  0.0123
41871W        W84783  29.881   7.788   4.654  0.3860 -0.0065 -0.1264
41872W        W84784  29.991   5.632   4.444  0.1699  0.2338 -0.1566
41873W        W84785  29.875   4.703   7.367  0.0930  0.1250 -0.1063
41874W        W84786  31.389   6.089   5.946  0.1456  0.0534 -0.0683
41875W        W84787  31.818   5.056   5.289  0.0207 -0.0729 -0.1524
41876W        W84788  30.563   5.160   5.900  0.1578 -0.1599  0.3734
41877W        W84789  33.549   4.143   3.436 -0.1397  0.2081  0.0571
41878W        W84790  29.340   4.026   2.942  0.1841 -0.1247 -0.2135
41879W        W84791  32.069   7.541   3.430 -0.1344 -0.0778 -0.0953
41880W        W84792  31.645   5.246   4.351  0.0638 -0.1246  0.1425
41881W        W84793  31.921   5.964   4.232 -0.0111  0.0654 -0.2309
41882W        W84794  30.265   6.379   6.448  0.3346  0.1576  0.0563
41883W        W84795  29.473   5.985   5.748 -0.1139  0.0552  0.1886
41884W        W84796  29.381   4.373   6.703 -0.1940  0.0351 -0.0543
41885W        W84797  28.955   4.509   6.993 -0.5218 -0.2683  0.0816
41886W        W84798  32.905   5.340   5.618  0.1964  0.2111 -0.1067
41887W        W84799  28.838   4.329   5.353 -0.1942  0.2303  0.1232
41888W        W84800  31.468   4.319   4.479 -0.0139 -0.0765  0.0810
41889W        W84801  30.535   5.053   4.833  0.2671 -0.1570 -0.2028
41890W        W84802  30.036   5.890   5.232  0.0201  0.0176 -0.6075
41891W        W84803  33.067   4.204   6.559  0.0010  0.0120 -0.2108
41892W        W84804  31.134   6.505   4.771  0.3982  0.2030 -0.2689
41893W        W84805  33.425   6.200   5.592 -0.0854  0.3271  0.0215
41894W        W84806  31.688   7.741   3.822 -0.2670 -0.0101  0.4081
41895W        W84807  30.319   4.737   5.762  0.1483 -0.2201  0.0678
41896W        W84808  28.540   4.794   5.674 -0.5283 -0.0606  0.0597
41897W        W84809  29.215   7.518   4.855  0.2209 -0.0878 -0.0118
41898W        W84810  30.699   5.381   4.029  0.0062  0.1992 -0.0962
41899W        W84811  29.805   4.109   4.319  0.1020  0.1623 -0.0936
41900W        W84812  33.578   6.301   6.050 -0.0722 -0.5493 -0.0461
41901W        W84813  30.468   5.457   5.164  0.0769  0.0173  0.0393
41902W        W84814  30.378   6.834   4.970  0.0746  0.0161 -0.2244
41903W        W84815  32.407   4.714   6.516 -0.0025  0.2884 -0.1309
41904W        W84816  33.045   5.789   7.227  0.1887 -0.0921 -0.4362
41905W        W84817  31.849   5.899   6.088  0.0731 -0.2960 -0.1609
41906W        W84818  29.524   4.002   3.812 -0.2314  0.0396  0.0920
41907W        W84819  31.274   4.913   3.157 -0.1396  0.0864 -0.0155
41908W        W84820  30.347   7.738   4.778  0.0774  0.3281  0.2029
41909W        W84821  28.194   5.395   6.228  0.0830 -0.1066  0.0093
41910W        W84822  31.721   5.474   5.645 -0.0606  0.4698  0.1312
41911W        W84823  32.328   5.672   4.394 -0.0927  0.2829  0.1078
41912W        W84824  28.400   7.417   7.671  0.0059 -0.2362  0.0022
41913W        W84825  32.059   4.580   6.969  0.1418  0.0670 -0.1792
41914W        W84826  29.345   4.397   5.673  0.1042 -0.0388  0.2290
41915W        W84827  30.414   7.092   6.519 -0.1760 -0.1581  0.0021
41916W        W84828  32.232   3.742   5.071 -0.0016  0.1559 -0.0020
41917W        W84829  33.845   5.788   4.479  0.0394  0.1999  0.1487
41918W        W84830  32.296   6.209   6.147 -0.0989  0.1926  0.1957
41919W        W84831  32.677   6.564   4.079  0.2040 -0.3457 -0.2125
41920W        W84832  30.720   4.199   2.860 -0.1576 -0.0566 -0.1524
41921W        W84833  30.102   3.524   5.000  0.1798 -0.0321  0.0564
41922W        W84834  29.723   6.544   6.336 -0.0839 -0.2253 -0.1067
41923W        W84835  31.037   6.114   5.284 -0.0477 -0.0653  0.0360
41924W        W84836  32.009   6.262   5.730 -0.0394 -0.0488 -0.0023
41925W        W84837  30.503   3.531   3.387  0.3225  0.1534 -0.0705
41926W        W84838  33.497   6.684   5.563  0.0933  0.0134  0.0454
41927W        W84839  28.266   6.705   5.434 -0.0560 -0.0567 -0.1648
41928W        W84840  31.714   7.438   6.837 -0.0732  0.2552 -0.1075
41929W        W84841  32.182   6.465   4.290  0.1110 -0.0755 -0.2757
41930W        W84842  31.125   4.461   6.314  0.0308  0.1118 -0.0814
41931W        W84843  30.379   4.226   2.310  0.2580  0.0692 -0.2689
41932W        W84844  30.863   4.714   4.475 -0.1742 -0.1016 -0.4890
41933W        W84845  29.006   6.752   3.898  0.0385  0.2605 -0.1732
41934W        W84846  31.320   3.588   6.710  0.0159 -0.2072 -0.1510
41935W        W84847  31.962   3.918   4.151  0.2037  0.1178 -0.0766
41936W        W84848  31.068   5.245   5.693 -0.3253  0.0945  0.2052
41937W        W84849  33.015   4.626   6.133 -0.2197 -0.2420 -0.0329
41938W        W84850  31.988   5.029   3.832 -0.0873 -0.1051  0.0423
41939W        W84851  30.334   4.480   7.141 -0.0297  0.2747 -0.5129
41940W        W84852  29.153   5.198   4.397 -0.1479 -0.0881  0.0903
41941W        W84853  30.877   3.281   6.649  0.3443  0.0432 -0.0132
41942W        W84854  30.698   6.510   6.263  0.0936  0.1951  0.0027
41943W        W84855  28.984   8.790   7.155 -0.0953 -0.0636 -0.1543
41944W        W84856  31.961   6.399   8.324  0.0775 -0.1226 -0.2847
41945W        W84857  33.312   4.745   4.315 -0.2913 -0.2538  0.0639
41946W        W84858  29.385   4.783   7.588 -0.1310 -0.3232 -0.5552
41947W        W84859  31.326   4.814   5.343 -0.0738 -0.4028 -0.3481
41948W        W84860  31.067   7.215   4.453 -0.0487 -0.0996  0.0888
41949W        W84861  31.807   4.637   4.130  0.0776  0.3916 -0.2084
41950W        W84862  30.788   4.689   5.599 -0.1814  0.0072  0.1169
41951W        W84863  32.096   6.678   6.156  0.2864 -0.1882  0.2041
41952W        W84864  31.118   6.098   3.511  0.4665  0.0095  0.1974
41953W        W84865  32.886   6.673   6.680 -0.0441 -0.0302 -0.0021
41954W        W84866  29.712   5.925   4.704 -0.0245  0.1042 -0.2056
41955W        W84867  32.827   3.661   5.294  0.1136  0.0409 -0.0733
41956W        W84868  28.977   7.132   5.026  0.0172 -0.2913  0.1890
41957W        W84869  29.649   5.954   4.194  0.3718  0.0177  0.0948
41958W        W84870  28.736   5.595   5.155 -0.1807 -0.4191  0.0123
41959W        W84871  32.307   3.568   5.569  0.0135 -0.1284  0.0884
41960W        W84872  32.018   6.286   3.142 -0.0083 -0.1752  0.2186
41961W        W84873  30.558   5.080   6.609 -0.0294 -0.1106 -0.2759
41962W        W84874  31.593   4.682   6.674 -0.3025 -0.1682 -0.0749
41963W        W84875  29.428   6.490   5.869  0.2167  0.3430  0.0172
41964W        W84876  31.854   5.022   7.075 -0.2193  0.0956 -0.1777
41965W        W84877  31.360   3.548   3.240  0.2323  0.1125  0.0098
41966W        W84878  31.322   5.725   5.601 -0.0719  0.0194  0.0236
41967W        W84879  30.146   6.670   6.016  0.0475 -0.3229  0.0598
41968W        W84880  29.037   3.308   3.126 -0.0689 -0.0768 -0.1856
41969W        W84881  32.011   4.020   5.518  0.1457 -0.1954  0.0589
41970W        W84882  30.944   5.318   6.247  0.1909  0.1454 -0.2840
41971W        W84883  30.119   6.268   4.844  0.2606  0.2313  0.2004
41972W        W84884  32.604   7.117   5.416 -0.0773  0.1935  0.2242
41973W        W84885  28.836   4.465   4.891 -0.3884  0.1524  0.3828
41974W        W84886  30.500   6.072   4.591 -0.0928  0.1254 -0.0691
41975W        W84887  30.314   4.245   6.682 -0.0164  0.3873  0.2014
41976W        W84888  32.078   6.829   5.659  0.3559 -0.1907 -0.2038
41977W        W84889  30.586   5.871   4.990  0.1020  0.3437  0.0054
41978W        W84890  31.098   4.318   5.216  0.0035 -0.1133  0.0429
41979W        W84891  30.453   5.874   5.515  0.0656  0.1577 -0.2505
41980W        W84892  32.851   5.976   6.515 -0.1929  0.3325 -0.0146
41981W        W84893  32.245   3.875   5.975  0.0013 -0.0334 -0.0849
41982W        W84894  29.931   7.077   7.470  0.1376  0.2308  0.2062
41983W        W84895  31.311   4.425   5.688 -0.2133  0.0955 -0.0366
41984W        W84896   0.343   7.298   4.195  0.2297 -0.0074  0.1056
41985W        W84897  31.532   4.039   7.565  0.0158 -0.2385 -0.1290
41986W        W84898  30.515   4.884   3.144 -0.3046 -0.1331  0.1289
41987W        W84899  30.094   6.761   6.760 -0.0814  0.4280 -0.0226
41988W        W84900  30.744   6.804   3.427  0.2278 -0.2451  0.0054
41989W        W84901  32.040   5.047   6.577 -0.1017  0.2320 -0.0129
41990W        W84902  28.880   6.703   5.839 -0.1074  0.4395 -0.0583
41991W        W84903  30.379   5.789   4.198  0.0040 -0.2883 -0.0185
41992W        W84904  29.354   7.921   5.700 -0.1002 -0.1376  0.1695
41993W        W84905  31.839   4.160   3.593 -0.1640 -0.0612  0.1835
41994W        W84906  31.891   7.210   4.176 -0.0998 -0.1555 -0.0969
41995W        W84907  32.250   4.419   5.285 -0.2536  0.2774 -0.2119
41996W        W84908  32.865   3.410   6.684 -0.0445  0.1148  0.0521
41997W        W84909  31.497   6.901   3.933 -0.4734  0.1030 -0.0057
41998W        W84910  32.374   3.838   7.129  0.0786 -0.0459 -0.1852
41999W        W84911  30.239   4.207   5.748  0.0815  0.1254  0.4345
42000W        W84912  32.328   6.510   4.876  0.1046 -0.0788 -0.1399
42001W        W84913  28.765   5.337   7.738  0.1763 -0.0497 -0.2791
42002W        W84914  32.114   6.868   7.127 -0.1200  0.3396 -0.0163
42003W        W84915  28.611   7.297   6.579 -0.1079  0.2734  0.0294
42004W        W84916  30.877   4.702   3.472  0.1283 -0.1237 -0.2638
42005W        W84917  30.144   4.496   4.196  0.0272 -0.5400 -0.2603
42006W        W84918  31.067   6.113   6.782 -0.1613  0.2197 -0.0923
42007W        W84919  33.061   6.195   6.900 -0.2944  0.1610  0.1682
42008W        W84920  32.031   5.622   3.928 -0.0485  0.0050 -0.3146
42009W        W84921  32.208   4.813   4.965  0.0974 -0.0991  0.2349
42010W        W84922  29.886   6.185   6.058 -0.0465 -0.1906  0.0083
42011W        W84923  32.841   4.993   4.368 -0.0930 -0.0970  0.0630
42012W        W84924  31.632   5.102   3.434  0.2980 -0.3188 -0.1275
42013W        W84925  30.990   5.223   4.428  0.1994  0.2077 -0.0470
42014W        W84926  30.203   4.942   6.207 -0.1821 -0.1396  0.0124
42015W        W84927  31.891   5.289   4.815 -0.2732 -0.3216 -0.0738
42016W        W84928  31.337   4.061   6.180  0.1945  0.1685  0.2697
42017W        W84929  31.121   4.807   5.976  0.2541 -0.0670 -0.1126
42018W        W84930  32.432   4.958   6.924  0.0361  0.0442 -0.0844
42019W        W84931  30.995   4.987   7.436 -0.1429 -0.0889  0.0887
42020W        W84932  30.235   4.697   6.658 -0.0974  0.0876 -0.0347
42021W        W84933  32.830   7.016   6.276  0.1187  0.3951 -0.1956
42022W        W84934  32.396   4.776   3.521  0.0982 -0.0861 -0.1584
42023W        W84935  32.695   2.866   5.974  0.0623 -0.1595 -0.1613
42024W        W84936  33.343   5.597   4.731  0.3159 -0.1185 -0.0232
42025W        W84937  31.145   5.245   3.548  0.4036  0.0854 -0.1713
42026W        W84938  30.066   5.338   5.891 -0.1729  0.2058 -0.0499
42027W        W84939  32.427   5.815   6.388  0.0702  0.1056 -0.2971
42028W        W84940  29.542   4.724   4.364  0.2002 -0.0703  0.0841
42029W        W84941  29.632   5.400   7.138 -0.0244  0.1700  0.1576
42030W        W84942  30.725   8.053   3.385 -0.0296  0.1203 -0.0441
42031W        W84943  31.364   5.293   5.252  0.0228  0.2071 -0.0203
42032W        W84944  32.003   4.757   5.602 -0.0950  0.0473  0.0025
42033W        W84945  28.560   5.302   6.570  0.1549  0.0831  0.4498
42034W        W84946  30.031   7.414   6.731  0.2366 -0.0810  0.2062
42035W        W84947  29.639   4.491   3.790  0.0369  0.1553  0.0766
42036W        W84948  30.380   5.389   3.073 -0.2226 -0.0136 -0.0258
42037W        W84949  30.466   6.361   5.805 -0.0621  0.1103  0.0499
42038W        W84950  33.342   6.191   7.292  0.1109  0.1623 -0.1321
42039W        W84951  31.470   3.183   3.630  0.0686  0.1169  0.0703
42040W        W84952  32.392   5.350   7.932 -0.0238  0.1090 -0.1896
42041W        W84953  30.227   6.115   3.444  0.3827  0.0630  0.0651
42042W        W84954  32.542   5.215   5.240  0.1966 -0.0613 -0.2073
42043W        W84955  30.257   6.328   5.358  0.1725  0.0102 -0.2498
42044W        W84956  28.554   7.956   6.090  0.0596  0.2251 -0.0741
42045W        W84957  29.989   6.391   3.876 -0.1737  0.0007 -0.0061
42046W        W84958  31.586   4.637   6.116  0.1261 -0.5022 -0.2827
42047W        W84959  32.462   5.190   4.693  0.0234 -0.3732 -0.1680
42048W        W84960  30.858   5.055   5.253  0.0540 -0.1573 -0.1422
42049W        W84961  33.317   5.508   5.905 -0.4001 -0.2046 -0.1625
42050W        W84962  32.587   6.546   6.343 -0.0670 -0.2728  0.2337
42051W        W84963  30.360   6.558   4.537  0.0851  0.2001  0.2664
42052W        W84964  31.460   6.321   5.492  0.1800  0.1200 -0.1542
42053W        W84965  33.413   4.929   4.761 -0.2737  0.2841  0.1188
42054W        W84966  30.965   5.393   4.887 -0.2633 -0.0658 -0.1485
42055W        W84967  27.916   5.102   7.903  0.1051  0.0275 -0.0108
42056W        W84968  31.194   7.058   5.680 -0.1246  0.4652  0.0863
42057W        W84969  32.046   4.945   6.129  0.3217  0.1673  0.2526
42058W        W84970  29.627   3.196   4.827  0.2176  0.2753  0.0313
42059W        W84971  31.100   6.574   3.810 -0.0507 -0.0123  0.0963
42060W        W84972  30.446   7.495   7.318  0.0637 -0.0408  0.2564
42061W        W84973  27.823   5.659   7.235 -0.1850 -0.2019  0.0054
42062W        W84974  30.047   6.193   4.362 -0.1944  0.0600 -0.0856
42063W        W84975  31.438   6.169   4.528 -0.0024  0.0926  0.2958
42064W        W84976  31.386   5.110   4.761  0.0280  0.0803  0.3248
42065W        W84977  32.129   7.565   6.498  0.3099 -0.2953 -0.1008
42066W        W84978  29.252   4.817   4.738 -0.4830 -0.2885 -0.0044
42067W        W84979  29.186   7.396   5.382  0.0405  0.0748 -0.0525
42068W        W84980  29.297   7.186   4.084  0.0213  0.3357  0.1915
42069W        W84981  31.194   7.355   3.316  0.2960  0.1109 -0.2373
42070W        W84982  29.926   5.802   5.746  0.1636  0.1440  0.0113
42071W        W84983  32.609   7.433   6.501  0.4901  0.3611  0.1106
42072W        W84984  31.515   4.198   3.994 -0.2799 -0.1983 -0.2547
42073W        W84985  32.127   5.799   5.661  0.1634 -0.2893  0.1575
42074W        W84986  32.147   5.253   4.299 -0.1433 -0.1114 -0.3329
42075W        W84987  32.489   6.578   7.095  0.0083 -0.2380  0.0972
42076W        W84988  29.098   6.183   4.547  0.0813  0.0579  0.0269
42077W        W84989  30.606   4.204   5.376 -0.0870 -0.0171  0.1615
42078W        W84990  31.173   5.428   7.227  0.1209 -0.0977 -0.0424
42079W        W84991  32.751   4.524   7.465 -0.0396 -0.1169 -0.0411
42080W        W84992  29.391   8.378   7.255 -0.0152 -0.0721  0.3456
42081W        W84993  31.313   8.015   4.834  0.0724 -0.2701 -0.3010
42082W        W84994  29.981   5.405   5.401  0.2472 -0.3779  0.1095
42083W        W84995  29.967   4.942   5.069  0.1673 -0.0234 -0.0177
42084W        W84996  33.650   3.952   5.906  0.1344 -0.0687  0.1204
42085W        W84997  30.790   5.939   3.844 -0.0073 -0.0316  0.0524
42086W        W84998  32.156   4.332   4.344  0.0771 -0.2345 -0.2885
42087W        W84999  30.209   6.826   4.054 -0.0414  0.0786  0.2789
42088W        W85000  29.577   6.069   5.286 -0.1107  0.1330 -0.3227
42089W        W85001  30.659   6.812   5.423 -0.3951 -0.1808  0.1493
42090W        W85002  29.343   4.597   6.191 -0.2196  0.0321  0.1160
42091W        W85003  33.477   4.285   4.072  0.4709  0.0981 -0.1538
42092W        W85004  30.203   5.054   7.033  0.6499 -0.0687 -0.4665
42093W        W85005  31.791   3.681   5.838 -0.1466 -0.0216 -0.2148
42094W        W85006  29.933   4.614   5.437 -0.0326  0.1799 -0.2244
42095W        W85007  33.345   3.823   4.261 -0.0505  0.1605  0.1446
42096W        W85008  30.888   5.593   5.374 -0.3599 -0.3003 -0.2058
42097W        W85009  31.374   4.862   7.042  0.1885  0.0341  0.1172
42098W        W85010  31.090   4.436   4.121 -0.0278  0.0332  0.0230
42099W        W85011  34.014   6.053   7.432 -0.0315  0.2813  0.1110
42100W        W85012  31.745   5.811   3.241  0.1518 -0.1123  0.1755
42101W        W85013  32.908   6.364   8.166 -0.2244  0.0674  0.1426
42102W        W85014  29.924   4.538   4.754  0.0064  0.0098 -0.0529
42103W        W85015  31.446   5.003   3.888  0.3866  0.0984  0.0183
42104W        W85016  30.465   5.520   4.615 -0.0988  0.0996  0.1234
42105W        W85017  30.638   5.636   5.861 -0.2415  0.2668  0.2236
42106W        W85018  32.795   7.078   6.972 -0.1454  0.1147 -0.0242
42107W        W85019  29.770   4.310   5.984  0.0491 -0.1703  0.0081
42108W        W85020  32.864   7.023   3.978 -0.0716  0.2062 -0.0800
42109W        W85021  31.911   4.407   6.405 -0.3845 -0.1301  0.2437
42110W        W85022  31.586   7.005   4.520  0.0647 -0.2937 -0.2719
42111W        W85023  31.296   5.625   4.515  0.2759 -0.2612 -0.2060
42112W        W85024  31.909   6.331   4.671  0.1235 -0.0593  0.2186
42113W        W85025  29.888   5.705   6.821 -0.2064 -0.1928 -0.0469
42114W        W85026  33.741   6.158   6.952  0.0377  0.1091  0.0987
42115W        W85027  33.961   6.174   5.634  0.3570 -0.5119  0.4214
42116W        W85028  31.118   3.981   4.657  0.1034  0.1238 -0.2580
42117W        W85029  29.683   4.780   5.889 -0.2834  0.1830  0.1275
42118W        W85030  28.754   6.033   4.903  0.1336 -0.2102 -0.3336
42119W        W85031  33.477   5.520   6.416 -0.0526  0.1715  0.0821
42120W        W85032  31.896   3.684   6.754  0.0742 -0.2138  0.5266
42121W        W85033  30.346   7.068   3.577 -0.3544 -0.1312  0.2620
42122W        W85034  31.878   2.353   6.001 -0.2007 -0.1261  0.1877
42123W        W85035  32.141   6.521   6.622  0.1580 -0.1018  0.0297
42124W        W85036  30.580   7.423   6.817 -0.3550 -0.0710 -0.0692
42125W        W85037  29.335   4.320   4.185 -0.1488 -0.0278  0.0661
42126W        W85038  31.413   5.791   7.033 -0.4229 -0.1951 -0.1777
42127W        W85039  30.469   4.935   4.210 -0.0142  0.5003  0.3636
42128W        W85040  30.717   6.734   4.025 -0.2483  0.1714  0.0079
42129W        W85041  31.931   7.496   5.399 -0.1083  0.0030 -0.3417
42130W        W85042  30.420   4.542   4.574  0.3123  0.2189  0.1135
42131W        W85043  31.734   5.848   4.793  0.2157  0.0297  0.1487
42132W        W85044  31.679   4.455   5.338 -0.3546  0.1589  0.0352
42133W        W85045  33.703   3.972   4.864 -0.0480  0.1644  0.1822
42134W        W85046  32.352   3.553   4.324 -0.0524 -0.0428 -0.1041
42135W        W85047  30.699   7.006   7.083  0.2235  0.2170  0.0138
42136W        W85048  29.108   5.268   5.004  0.0714  0.0227 -0.1082
42137W        W85049  29.801   6.596   4.257 -0.0517  0.1076 -0.0925
42138W        W85050  30.279   7.161   5.852 -0.1304  0.0829 -0.0509
42139W        W85051  30.142   3.616   7.325  0.3149 -0.2080  0.0264
42140W        W85052  29.923   5.165   6.526 -0.2781  0.2319 -0.3240
42141W        W85053  29.502   6.369   4.840 -0.2191  0.2988 -0.0823
42142W        W85054  29.799   3.599   4.139 -0.0038  0.0154  0.0569
42143W        W85055  31.663   6.648   3.106 -0.2867  0.1993  0.0955
42144W        W85056  29.738   3.579   6.416  0.0577 -0.0330 -0.2919
42145W        W85057  28.749   5.095   4.690  0.1038 -0.0395  0.0205
42146W        W85058  31.645   6.891   5.433  0.2220 -0.2351  0.0984
42147W        W85059  31.593   6.705   4.904 -0.0078  0.1926 -0.4648
42148W        W85060  31.197   5.572   4.027 -0.1850 -0.0142 -0.0853
42149W        W85061  31.841   6.164   7.864 -0.0839  0.1911 -0.0188
42150W        W85062  29.454   6.925   4.745  0.0244  0.0633 -0.0762
42151W        W85063  32.187   5.190   8.861  0.1636 -0.1221 -0.1717
42152W        W85064  31.183   4.496   6.811  0.1801 -0.1039 -0.1827
42153W        W85065  29.998   4.049   3.774 -0.0995  0.1016 -0.1315
42154W        W85066  32.047   5.428   6.149  0.0941 -0.0150 -0.0878
42155W        W85067  31.942   6.469   5.259  0.2534 -0.0670  0.1835
42156W        W85068  32.654   7.798   3.760  0.3568 -0.1502 -0.0848
42157W        W85069  30.387   6.559   7.148  0.0749  0.0374  0.0096
42158W        W85070  30.616   6.682   6.742 -0.2317  0.2968  0.3186
42159W        W85071  29.075   5.230   6.385  0.3689 -0.0719 -0.1272
42160W        W85072  31.451   6.239   4.985 -0.0969  0.3662  0.1541
42161W        W85073  31.501   6.230   6.742 -0.1430  0.1379 -0.1821
42162W        W85074  34.083   7.011   4.652 -0.2557 -0.0369 -0.0141
42163W        W85075  32.522   3.995   5.498 -0.0819 -0.1783  0.0118
42164W        W85076  30.978   6.007   4.764 -0.2347  0.1607  0.0038
42165W        W85077  29.425   4.944   6.562  0.0543  0.2903  0.1596
42166W        W85078  29.402   7.448   6.932  0.1351 -0.1653  0.1595
42167W        W85079  32.247   5.992   5.180  0.1312 -0.3782  0.2067
42168W        W85080  29.815   3.260   5.978  0.1491  0.0136  0.0612
42169W        W85081  31.974   4.886   4.526  0.2018  0.2509 -0.0070
42170W        W85082  32.079   6.856   4.596  0.2521 -0.1167 -0.2404
42171W        W85083  30.804   5.903   6.248 -0.0386 -0.1522 -0.3048
42172W        W85084  30.028   5.024   4.479  0.2636  0.1988 -0.2042
42173W        W85085  31.311   4.454   7.819  0.0924 -0.3104  0.0422
42174W        W85086  30.963   6.037   5.780 -0.0078  0.0794 -0.0216
42175W        W85087  33.015   5.808   5.628  0.2421 -0.1792  0.1000
42176W        W85088  29.155   4.227   3.542  0.1000 -0.0986 -0.0918
42177W        W85089  33.146   5.307   4.091 -0.3025  0.1661  0.1209
42178W        W85090  32.933   6.904   5.733 -0.0040  0.0909  0.1283
42179W        W85091  32.926   6.052   8.577 -0.1178 -0.0718 -0.0391
42180W        W85092  32.647   7.481   4.182  0.0069 -0.1515 -0.1324
42181W        W85093  32.073   5.490   5.247 -0.0725  0.5237  0.1047
42182W        W85094  28.328   3.893   6.402  0.0173 -0.0836 -0.2672
42183W        W85095  30.028   5.481   4.934  0.0717 -0.3761  0.0188
42184W        W85096  31.543   5.032   5.791 -0.2415  0.0579 -0.4123
42185W        W85097  32.315   5.233   5.669  0.0490  0.1624  0.2312
42186W        W85098  29.643   5.307   4.171 -0.1328 -0.1246  0.2052
42187W        W85099  31.242   4.609   4.824 -0.1299  0.0466  0.2943
42188W        W85100  30.642   7.269   4.833  0.0704 -0.0424 -0.1844
42189W        W85101  31.901   4.439   4.761 -0.0187  0.1979  0.0933
42190W        W85102  30.358   3.325   9.374  0.0875 -0.2049  0.3191
42191W        W85103  30.706   4.491   7.481  0.0196 -0.1114 -0.0925
42192W        W85104  31.606   3.670   8.240 -0.1695 -0.1050  0.0399
42193W        W85105  31.444   4.249   8.291 -0.1900 -0.2666 -0.1773
42194W        W85106  29.892   4.769   7.862 -0.0426 -0.1385  0.0442
42195W        W85107  31.554   6.586   7.490 -0.1176 -0.3297 -0.1319
42196W        W85108  31.783   6.051   9.220  0.0361  0.1158  0.1167
42197W        W85109  31.352   5.981  10.019  0.1910  0.0430 -0.0095
42198W        W85110  32.421   6.761   8.203 -0.0196 -0.0238  0.0946
42199W        W85111  29.926   3.513   9.048  0.1308  0.0776  0.2044
42200W        W85112  29.963   3.310   6.952 -0.0549 -0.0773  0.0673
42201W        W85113  29.316   5.076   9.416 -0.2359 -0.2642 -0.0766
42202W        W85114  30.939   4.314   9.561 -0.3221  0.0268 -0.1228
42203W        W85115  30.606   5.654   8.385 -0.0781  0.0495  0.1704
42204W        W85116  30.434   5.047   9.980  0.0535 -0.2394 -0.3234
42205W        W85117  29.832   4.157   7.297 -0.0158 -0.0639 -0.1328
42206W        W85118  30.965   6.980   8.591  0.3346 -0.1322 -0.1796
42207W        W85119  29.728   5.873   9.772  0.2148  0.1307  0.0365
42208W        W85120  31.566   6.563   8.088  0.3382  0.0074 -0.0639
42209W        W85121  30.062   5.499   7.392 -0.0264  0.0424  0.5085
42210W        W85122  29.654   6.418   9.593 -0.5002  0.2350 -0.0938
42211W        W85123  30.420   3.532   8.909  0.0778 -0.0285  0.2636
42212W        W85124  31.707   4.620  10.013  0.2272 -0.2413 -0.2210
42213W        W85125  32.675   5.220   9.654  0.0839 -0.1691 -0.1779
42214W        W85126  30.849   6.302   9.074 -0.0794  0.0663  0.0885
42215W        W85127  31.320   6.175   9.036  0.1126 -0.2865  0.3958
42216W        W85128  29.863   6.089   9.223  0.0696 -0.1409  0.0227
42217W        W85129  29.513   7.392   8.691 -0.2604 -0.0000  0.0139
42218W        W85130  31.246   5.103   8.930  0.1594  0.1018 -0.2432
42219W        W85131  33.322   5.796   8.645 -0.0881  0.1468  0.1056
42220W        W85132  29.453   7.511   9.217  0.2096  0.3780 -0.0865
42221W        W85133  30.384   3.751  10.050  0.0637  0.1847  0.1312
42222W        W85134  31.000   5.652   9.686 -0.1321  0.2224 -0.0381
42223W        W85135  30.053   7.038  10.370  0.0483  0.2652 -0.0513
42224W        W85136  31.455   6.096   8.184  0.0128 -0.0307  0.1352
42225W        W85137  28.183   7.629   8.598 -0.2681  0.4211 -0.2480
42226W        W85138  29.698   6.536   8.452  0.2364 -0.1646 -0.2077
42227W        W85139  31.902   3.280   6.132  0.0565 -0.0592 -0.1572
42228W        W85140  30.231   5.897   6.518  0.3799 -0.0264  0.3087
42229W        W85141  32.441   6.250   7.921  0.1220 -0.0883  0.4095
42230W        W85142  30.012   4.106   9.842 -0.2177 -0.0264  0.2882
42231W        W85143  30.336   6.205   9.093  0.0500  0.0654 -0.0946
42232W        W85144  30.560   4.065   8.762 -0.1710  0.2347  0.3831
42233W        W85145  32.385   3.680   6.418 -0.0515  0.0370 -0.0857
42234W        W85146  31.639   3.411   8.661 -0.1489  0.1865 -0.2841
42235W        W85147  29.791   8.178  10.028  0.1537 -0.0066  0.1330
42236W        W85148  30.553   5.350   7.941 -0.1364 -0.0555 -0.0004
42237W        W85149  32.429   5.892   8.805  0.2495  0.1579 -0.1873
42238W        W85150  31.916   6.726   9.762 -0.0808  0.0380  0.0196
42239W        W85151  32.540   6.257   6.800 -0.3074  0.1623 -0.0030
42240W        W85152  30.222   5.037   8.086  0.0350 -0.0633  0.0948
42241W        W85153  29.543   5.018   5.304 -0.2067 -0.0787  0.4873
42242W        W85154  31.552   4.214   9.698  0.2339 -0.1125 -0.4306
42243W        W85155  31.910   5.636   7.061  0.1246 -0.3272  0.0413
42244W        W85156  33.882   6.891   9.905  0.0756  0.1783 -0.0948
42245W        W85157  31.112   6.818  10.375 -0.2856 -0.3601  0.1395
42246W        W85158  32.857   2.250  10.131 -0.1765  0.1393 -0.0829
42247W        W85159  30.540   5.501  10.299 -0.2316 -0.0050  0.3608
42248W        W85160  29.839   6.521   7.735  0.1529  0.0256  0.5042
42249W        W85161  31.509   5.076   7.463  0.0299 -0.0996  0.0145
42250W        W85162  34.388   8.494  10.219  0.1064  0.1175  0.1967
42251W        W85163  31.328   4.109   7.079 -0.0737 -0.0232 -0.0122
42252W        W85164  26.647   9.491   9.816  0.3849 -0.1687  0.1254
42253W        W85165  28.892   8.272   7.556  0.0949 -0.1196  0.0402
42254W        W85166  26.492   3.991   8.669 -0.1885  0.0074 -0.2195
42255W        W85167  29.001   6.319   7.107  0.1215 -0.2015 -0.0795
42256W        W85168  33.164   6.411  10.452  0.1603  0.0971 -0.2481
42257W        W85169  30.039   8.220   9.564  0.3082 -0.1367  0.1792
42258W        W85170  31.556   3.317  10.274  0.1391  0.0630  0.1862
42259W        W85171  33.896   4.133   9.280 -0.0410  0.3811  0.1982
42260W        W85172  30.374   5.962   7.997  0.0419  0.4288 -0.2022
42261W        W85173  33.057   7.840   9.171  0.1655 -0.0771  0.1749
42262W        W85174  31.667   4.460   7.291 -0.1649 -0.0656  0.1767
42263W        W85175  31.678   7.035   7.916  0.3827  0.1010 -0.2714
42264W        W85176  27.749   7.158   9.601  0.3153  0.2913 -0.2117
42265W        W85177  31.655   5.219   7.983 -0.3626 -0.0600  0.3684
42266W        W85178  29.418   3.845   9.551 -0.0912  0.3279  0.0683
42267W        W85179  29.135   4.173   9.304  0.1386  0.3490 -0.0770
42268W        W85180  31.302   4.912  10.071  0.1610  0.0451 -0.2962
42269W        W85181  31.776   4.733   8.612  0.0004  0.0889  0.2386
42270W        W85182  28.806   6.546   7.955  0.0424 -0.1569  0.0814
42271W        W85183  32.198   6.398   7.532 -0.2406 -0.2134  0.1189
42272W        W85184  31.636   7.222  10.008 -0.1277  0.1885 -0.0321
42273W        W85185  31.457   6.547   8.543 -0.2007  0.0036  0.2564
42274W        W85186  32.159   5.418  10.200 -0.0620  0.2101  0.1529
42275W        W85187  28.922   4.785   7.443 -0.0757 -0.2699 -0.0086
42276W        W85188  28.294   7.179   8.372 -0.3912 -0.1717 -0.1169
42277W        W85189  30.660   6.233   8.272 -0.2257 -0.0481 -0.0611
42278W        W85190  30.792   4.293   7.040 -0.0016 -0.1192 -0.3811
42279W        W85191  33.576   7.254  10.488  0.0235  0.3318 -0.2409
42280W        W85192  31.070   5.587   8.652 -0.2277 -0.2531  0.0258
42281W        W85193  32.193   5.293   9.655 -0.1437  0.1069 -0.3321
42282W        W85194  32.062   4.671   9.041  0.0378 -0.0355  0.0293
42283W        W85195  29.813   4.676   6.388  0.1034  0.0255 -0.0983
42284W        W85196  31.107   6.111   8.543  0.1870  0.2902 -0.0737
42285W        W85197  30.403   6.908   9.821 -0.1840  0.4081  0.1330
42286W        W85198  30.604   5.312   7.204 -0.0548 -0.1451  0.1107
42287W        W85199  30.316   6.189   8.592  0.2061 -0.3239 -0.2922
42288W        W85200   0.170   5.716  10.196 -0.1891  0.1227 -0.1240
42289W        W85201  29.582   5.710   8.347 -0.0775 -0.1408 -0.3309
42290W        W85202  31.598   4.877   9.212 -0.0613 -0.1462 -0.0796
42291W        W85203  31.811   4.026   7.104 -0.4294 -0.1295  0.0115
42292W        W85204  32.962   6.509   9.914 -0.2257  0.2157 -0.0973
42293W        W85205  31.975   4.940   7.785  0.0889 -0.0091  0.1189
42294W        W85206  30.994   4.036   7.479 -0.5296  0.1272  0.1514
42295W        W85207  31.413   7.014   8.297 -0.4212 -0.2702 -0.0304
42296W        W85208  31.507   6.427   9.450 -0.2677 -0.2321  0.0249
42297W        W85209  31.210   4.527   7.347  0.0023 -0.3283  0.3423
42298W        W85210  34.110   6.549   6.555  0.5252 -0.3630  0.2978
42299W        W85211  30.413   8.216   9.948 -0.1538  0.1802 -0.2738
42300W        W85212  32.349   7.105   9.575  0.1145 -0.0025  0.1353
42301W        W85213  29.460   4.198  10.087  0.0597 -0.0068 -0.0805
42302W        W85214  29.861   4.426   6.874  0.3364  0.0994  0.1511
42303W        W85215  31.563   4.375   9.135  0.0857 -0.0803 -0.1172
42304W        W85216  29.196   7.735   8.267 -0.1011  0.0468  0.1494
42305W        W85217  32.206   5.807   9.797 -0.0908  0.1685 -0.1414
42306W        W85218  30.127   4.534   9.367 -0.3723  0.0750  0.1147
42307W        W85219  32.902   5.863   9.041 -0.2251 -0.0767 -0.0003
42308W        W85220  31.009   6.397   9.962 -0.0643  0.0917 -0.0499
42309W        W85221  30.585   5.739   7.546  0.0395  0.1030 -0.0106
42310W        W85222  34.411   3.668   9.149  0.2423 -0.2096  0.1047
42311W        W85223  30.885   5.118  10.215  0.0716 -0.0771 -0.1129
42312W        W85224  31.888   5.364   7.512  0.0036  0.0984  0.2228
42313W        W85225  30.732   3.324   8.588 -0.3824 -0.0912  0.1735
42314W        W85226  30.725   7.260   7.647  0.1589  0.0837 -0.0610
42315W        W85227  30.938   5.342   6.737  0.2176  0.3535 -0.3029
42316W        W85228  30.854   3.352   7.997  0.3428 -0.1441  0.2076
42317W        W85229  30.238   6.632   9.420  0.3357  0.1694 -0.1758
42318W        W85230  30.554   6.217   6.828  0.1465  0.0201  0.0130
42319W        W85231  33.263   5.716   9.781  0.1889 -0.0427 -0.0820
42320W        W85232  31.685   5.951   7.449  0.0453  0.0742  0.1407
42321W        W85233  33.197   3.272   9.283 -0.0266 -0.0087 -0.1368
42322W        W85234  28.382   6.596   9.937 -0.0579  0.0655  0.0126
42323W        W85235  29.499   4.585   8.074 -0.0486  0.1374 -0.4214
42324W        W85236  30.162   4.812   8.954  0.4124 -0.4868  0.1421
42325W        W85237  30.851   4.597  10.033 -0.3401 -0.0950  0.1841
42326W        W85238  32.530   5.843   8.252 -0.1024  0.0474  0.0058
42327W        W85239  30.031   3.919   8.637  0.1298 -0.0994 -0.0199
42328W        W85240  31.197   2.929   9.307  0.1476  0.2708 -0.1100
42329W        W85241  27.913   7.425   9.955  0.2015  0.0620  0.0862
42330W        W85242  31.935   3.805   8.983 -0.1163 -0.1508 -0.3644
42331W        W85243  28.740   5.582   8.265 -0.1117  0.0538 -0.2977
42332W        W85244  32.260   2.517  10.529  0.4559  0.0135 -0.5500
42333W        W85245  30.221   4.513   8.157 -0.2048 -0.1197 -0.1308
42334W        W85246  30.071   5.777   8.368  0.0649 -0.0279 -0.1858
42335W        W85247  29.664   6.914   9.514 -0.1790  0.0080 -0.1207
42336W        W85248  31.384   5.498   7.691 -0.1329  0.0516 -0.0659
42337W        W85249  30.711   5.917   8.808  0.1146 -0.1433 -0.2329
42338W        W85250  32.564   5.915   9.433 -0.0502 -0.2584  0.0411
42339W        W85251  29.161   5.931  10.169 -0.0677 -0.4169 -0.0715
42340W        W85252  30.624   4.824   7.939 -0.1294  0.1708 -0.1865
42341W        W85253  31.021   4.595   8.246  0.0379  0.0019 -0.2071
42342W        W85254  32.699   6.429   9.426 -0.1959 -0.1382  0.2129
42343W        W85255  31.320   5.271   9.473 -0.2388 -0.2695 -0.1123
42344W        W85256  31.195   3.464   8.435  0.1610 -0.0318  0.2004
42345W        W85257  34.331   7.273   7.360  0.1024 -0.0263 -0.1823
42346W        W85258  29.279   5.298   7.558  0.0366 -0.2728  0.1593
42347W        W85259  29.587   5.113   9.830 -0.0735 -0.0497  0.2125
42348W        W85260  31.126   5.421   8.128  0.0038  0.1599  0.1623
42349W        W85261  29.532   3.663   8.588 -0.3537  0.0775 -0.1794
42350W        W85262  31.255   7.225   9.643  0.1284 -0.1699 -0.3530
42351W        W85263  29.858   6.032   7.921 -0.0332  0.3492 -0.2531
42352W        W85264  30.252   5.693   8.846  0.0994 -0.2303 -0.0467
42353W        W85265  32.717   3.895   6.782  0.0302  0.1200 -0.1499
42354W        W85266  32.132   6.028   6.775 -0.2020  0.0819 -0.1351
42355W        W85267  31.495   3.906   8.660 -0.0011  0.1270 -0.1886
42356W        W85268  32.749   5.565   7.657  0.2042 -0.0781  0.1453
42357W        W85269  29.186   3.776  10.167  0.1119 -0.1927  0.0703
42358W        W85270  32.686   6.345   8.947  0.0974 -0.0913  0.1267
42359W        W85271  31.694   5.247   8.760  0.1603  0.0140 -0.3519
42360W        W85272  31.015   4.005   6.604  0.2503 -0.0491 -0.0351
42361W        W85273  30.644   4.445   9.146  0.1563  0.0301 -0.0612
42362W        W85274  33.199   7.211   9.773  0.0262  0.0564 -0.2624
42363W        W85275  31.788   5.674   7.895  0.1208  0.0493  0.2129
42364W        W85276  31.629   3.716   9.880 -0.1363 -0.1358  0.0020
42365W        W85277  30.565   5.459   9.752  0.0570  0.2733  0.0789
42366W        W85278  32.258   4.780   9.751 -0.0358  0.0664 -0.0949
42367W        W85279  32.351   5.440   7.311  0.0944 -0.1308 -0.0186
42368W        W85280  30.955   5.036   9.706  0.1600  0.3063  0.1090
42369W        W85281  32.107   6.309   8.892  0.1186 -0.2667  0.0727
42370W        W85282  31.278   4.616   8.759  0.2532 -0.2266 -0.0356
42371W        W85283  30.926   6.268  10.421  0.0777 -0.2416 -0.1176
42372W        W85284  31.643   4.660   8.125  0.4088  0.2184  0.2768
42373W        W85285  32.748   4.481   9.788  0.0643 -0.1430  0.2256
42374W        W85286  32.520   5.468   9.145 -0.0000 -0.2583 -0.1082
42375W        W85287  32.484   6.295   8.426  0.1572 -0.0763 -0.0244
42376W        W85288  30.448   4.915   8.479  0.2875  0.1019  0.1719
42377W        W85289  31.495   4.104   6.615 -0.3295 -0.2109 -0.2666
42378W        W85290  31.258   6.324   7.185 -0.3331 -0.3031  0.1344
42379W        W85291  31.757   6.105   9.785  0.0288  0.2998 -0.1514
42380W        W85292  32.040   5.901   8.234  0.0210 -0.1732 -0.1328
42381W        W85293  30.296   4.477   8.637  0.0187 -0.3699  0.0703
42382W        W85294  29.921   5.538   7.952  0.2514  0.0129  0.0394
42383W        W85295  30.290   5.477   6.792 -0.0430  0.0846 -0.3447
42384W        W85296  31.096   6.183   9.498  0.0429  0.2045 -0.0626
42385W        W85297  30.666   2.822   7.111  0.0967  0.3476 -0.0522
42386W        W85298  30.317   6.325   7.606  0.1519 -0.2411  0.0923
42387W        W85299  30.114   3.073   8.942  0.1118 -0.0563 -0.1654
42388W        W85300  30.643   6.482   9.618 -0.2144  0.1862 -0.1668
42389W        W85301  30.230   7.202   9.300 -0.0853 -0.1515  0.0703
42390W        W85302  31.401   3.358   9.591  0.0195 -0.3148  0.0139
42391W        W85303  31.855   5.299   9.233  0.0940  0.1204  0.0977
42392W        W85304  31.554   5.632   8.461  0.3484  0.0005  0.0835
42393W        W85305  30.142   5.721   9.425  0.1601 -0.0049 -0.0570
42394W        W85306  32.122   5.713   9.314 -0.4478  0.0627 -0.0408
42395W        W85307  31.679   5.007   9.720  0.0027  0.0963 -0.0875
42396W        W85308  31.512   5.641   9.024 -0.2868  0.1819  0.0745
42397W        W85309  29.435   4.402   7.184  0.3006 -0.0624  0.0751
42398W        W85310  29.747   5.225   7.642 -0.3746 -0.2191  0.2968
42399W        W85311  31.040   5.777   9.207  0.1223 -0.2305  0.0134
42400W        W85312  31.206   7.416   8.614  0.1042  0.1052  0.1787
42401W        W85313  32.217   5.992   7.307 -0.1081  0.0087  0.3445
42402W        W85314  31.969   5.678   8.819  0.4126 -0.0874  0.1658
42403W        W85315  31.090   6.752   9.472  0.2063  0.1104 -0.2196
42404W        W85316  30.393   4.028   7.342 -0.2072 -0.1469 -0.0510
42405W        W85317  29.243   6.652   9.474  0.2548 -0.2356 -0.0994
42406W        W85318  29.467   6.692   8.006  0.0857 -0.1867  0.0091
42407W        W85319  33.081   7.365   7.851  0.5792  0.3581  0.1427
42408W        W85320  28.422   7.636  10.052  0.1891 -0.0405  0.2256
42409W        W85321  31.443   3.151   7.436  0.1963 -0.1876 -0.2143
42410W        W85322  32.559   3.599   8.731  0.1073 -0.3911 -0.0854
42411W        W85323  32.077   4.504   8.270  0.1280  0.0693  0.0312
42412W        W85324  30.572   5.339   8.788  0.0998 -0.2047  0.1170
42413W        W85325  30.676   3.763   7.799 -0.2435 -0.0255 -0.1447
42414W        W85326  32.957   7.032   8.237 -0.3151  0.1132 -0.0929
42415W        W85327  29.282   5.244   8.507 -0.2160 -0.0028 -0.1534
42416W        W85328  30.768   6.183   7.259  0.1522 -0.0758 -0.1579
42417W        W85329  31.217   4.200  10.102 -0.0495  0.4059 -0.3881
42418W        W85330  32.261   5.460   6.710  0.1884  0.2616  0.2483
42419W        W85331  31.417   5.010   8.432  0.3386 -0.0596 -0.0037
42420W        W85332  31.747   6.587   8.975  0.2268  0.4398 -0.0125
42421W        W85333  28.246   7.357   9.493  0.1059  0.1883 -0.0348
42422W        W85334  31.404   6.786   9.861 -0.0775 -0.1791 -0.2266
42423W        W85335  29.725   4.901   6.935 -0.0041 -0.0575 -0.1316
42424W        W85336  33.218   4.829   9.992  0.0997 -0.2095 -0.3779
42425W        W85337  30.025   2.625   8.436 -0.0256  0.0118  0.3074
42426W        W85338  30.898   5.142   8.501  0.0767 -0.1416  0.3191
42427W        W85339  31.981   4.014   8.518  0.1225  0.2745 -0.0239
42428W        W85340  31.240   5.452  10.052 -0.0539  0.1004  0.0013
42429W        W85341  28.865   8.318   9.613 -0.0623  0.2283  0.0420
42430W        W85342  30.807   4.835   7.008 -0.1900  0.0655  0.2077
42431W        W85343  32.717   5.235   8.290  0.0407 -0.1671  0.1612
42432W        W85344  30.245   4.401   7.664 -0.0916 -0.1688  0.1748
42433W        W85345  31.132   4.110   9.113  0.0579 -0.1924  0.3210
42434W        W85346  29.486   6.116   8.720  0.0440  0.0090  0.1049
42435W        W85347  31.431   5.764   9.551  0.0937 -0.0442 -0.1770
42436W        W85348  28.955   4.022   7.897  0.0917  0.2808  0.2067
42437W        W85349  32.858   5.034   6.521  0.1611  0.0348 -0.0285
42438W        W85350  34.569   5.495   8.449 -0.2314  0.0140  0.1711
42439W        W85351  30.850   5.764   7.010 -0.1264  0.3363 -0.1715
42440W        W85352  31.536   6.905   9.291 -0.0478  0.0088 -0.0143
42441W        W85353  32.451   6.653   9.799  0.1531  0.1492 -0.1305
42442W        W85354  30.080   3.791   9.482 -0.0112 -0.0898 -0.3904
42443W        W85355  28.397   7.994   9.667  0.1870  0.0988 -0.1166
42444W        W85356  33.312   6.902  10.170 -0.1523  0.0244 -0.1021
42445W        W85357  31.477   3.743   9.237 -0.1275 -0.0728  0.1559
42446W        W85358  31.065   4.709   9.178 -0.2430  0.0105 -0.3238
42447W        W85359  29.405   8.717   8.981 -0.5466 -0.1975 -0.1380
42448W        W85360  32.284   5.425   8.456  0.0622 -0.2227  0.0540
42449W        W85361  31.804   6.290   6.390 -0.3822  0.0438  0.3719
42450W        W85362  29.138   7.833   9.497  0.0815 -0.1317  0.0429
42451W        W85363  29.530   6.065   7.158  0.0782 -0.1366  0.3072
42452W        W85364  30.800   5.326   9.265 -0.3252  0.0779 -0.5148
42453W        W85365  29.948   6.096   7.403 -0.0609 -0.2171 -0.1978
42454W        W85366  33.601   8.069   9.095  0.1088  0.2072 -0.0436
42455W        W85367  31.080   3.807   9.566  0.1131 -0.0483  0.1306
42456W        W85368  34.142   7.226  10.164  0.1809 -0.1588  0.1194
42457W        W85369  30.691   4.223   8.034  0.0157  0.0185  0.1121
42458W        W85370  32.190   2.883   9.409 -0.0797  0.0216  0.2566
42459W        W85371  32.263   4.276   9.828 -0.1095  0.2483  0.0483
42460W        W85372  29.829   4.463   8.850 -0.0802 -0.2907 -0.0194
42461W        W85373  30.094   5.255   8.685 -0.2086  0.1472 -0.1295
42462W        W85374  28.920   6.267   6.511 -0.2984  0.0995  0.3040
42463W        W85375  29.930   7.580   9.385  0.2124 -0.3255  0.2734
42464W        W85376  30.602   5.946   9.410  0.0892  0.0556  0.0564
42465W        W85377  29.393   4.185   8.778  0.0447 -0.1813  0.1727
42466W        W85378  32.832   5.359   7.184  0.0362 -0.6061 -0.1106
42467W        W85379  29.877   3.747   8.178 -0.1078 -0.0491  0.2251
42468W        W85380  28.776   5.272   9.324  0.1285  0.2013  0.0333
42469W        W85381  33.228   6.643   8.382 -0.0643 -0.2569 -0.1641
42470W        W85382  33.245   7.730  10.040  0.0591 -0.1738  0.0197
42471W        W85383  30.412   3.488   8.221 -0.0591  0.5018  0.1076
42472W        W85384  29.595   6.446   6.798 -0.0092 -0.2990 -0.0052
42473W        W85385  29.162   5.018   8.020  0.1995 -0.1771  0.1169
42474W        W85386  31.325   4.690   9.601  0.2859  0.0211 -0.2034
42475W        W85387  30.694   6.575   8.671  0.0396 -0.1295 -0.1372
42476W        W85388  32.613   6.656   7.655  0.2473  0.0432 -0.3378
42477W        W85389  30.675   3.926   9.204  0.0228  0.0225 -0.3621
42478W        W85390  32.771   6.703   8.548 -0.1190  0.0443  0.2550
42479W        W85391  34.422   6.247   7.693 -0.2429  0.2475 -0.0628
42480W        W85392  32.720   5.673   9.902 -0.0176 -0.0900 -0.0051
42481W        W85393  31.753   5.485   9.880  0.2623 -0.1007  0.3147
42482W        W85394  31.876   5.843  10.243  0.2987 -0.1129  0.1540
42483W        W85395  29.687   5.660   8.838  0.1251 -0.2634 -0.4403
42484W        W85396  30.794   4.573   8.682  0.5440 -0.1616  0.0882
42485W        W85397  32.339   6.812   8.745  0.0362  0.1572  0.1705
42486W        W85398  29.656   7.297  10.275 -0.0284  0.0057  0.1777
42487W        W85399  30.253   4.980   7.597 -0.2824 -0.1462 -0.2005
42488W        W85400  31.869   6.931   8.449 -0.0139 -0.3767  0.1385
42489W        W85401  31.170   5.029   7.884 -0.0026 -0.0593  0.0906
42490W        W85402  33.517   4.419   8.949  0.0521  0.0707 -0.1491
42491W        W85403  33.580   9.449   9.569 -0.3994 -0.4424 -0.2540
42492W        W85404  29.108   5.464   9.051  0.1583  0.2295  0.0523
42493W        W85405  31.892   7.391  10.509  0.0915 -0.2060 -0.0227
42494W        W85406  28.602   3.631  10.036 -0.0545 -0.1958  0.1744
42495W        W85407  29.799   6.614   7.236  0.3182  0.0187 -0.1716
42496W        W85408  31.673   6.117   8.721  0.1452 -0.4651  0.0121
42497W        W85409  32.834   4.638   9.038  0.0784 -0.0543  0.1269
42498W        W85410  29.048   2.831   8.630 -0.1178 -0.3135  0.1493
42499W        W85411  31.194   2.709   7.115 -0.5016 -0.1670 -0.0501
42500W        W85412  30.612   5.982   9.896 -0.1827  0.1180  0.2699
42501W        W85413  31.654   5.200  10.280  0.0023 -0.1416 -0.1110
42502W        W85414  30.074   9.825   2.872  0.0966  0.0069 -0.0073
42503W        W85415  29.261  10.453   0.404  0.0624 -0.0004 -0.1941
42504W        W85416  33.263   8.666  31.731 -0.2795 -0.2843 -0.0388
42505W        W85417  32.651   8.972   0.530  0.0114  0.1496 -0.1916
42506W        W85418  28.548   7.354   0.843  0.1604 -0.0238 -0.1293
42507W        W85419  32.264   9.945   1.692 -0.0375  0.1645 -0.2125
42508W        W85420  28.838   6.800   2.266  0.0942  0.0054  0.1638
42509W        W85421  31.626  10.068   1.630  0.1572  0.0007 -0.1313
42510W        W85422  32.491   9.477   1.812 -0.3084 -0.0034  0.0575
42511W        W85423  30.666  10.505  31.348 -0.2032 -0.2407  0.0978
42512W        W85424  31.543   8.159   3.484 -0.0003  0.0167 -0.1655
42513W        W85425  32.089  10.367   3.114  0.3239 -0.1513 -0.4625
42514W        W85426  29.615   8.791   0.247 -0.0504  0.0062 -0.1120
42515W        W85427  29.358   7.464   1.993 -0.2519  0.0358 -0.0788
42516W        W85428  32.765  10.284   2.009  0.4331  0.3107 -0.2230
42517W        W85429  29.150   9.744   1.673  0.3597  0.0494 -0.1601
42518W        W85430  30.075   7.843   3.039  0.3090 -0.0013  0.1763
42519W        W85431  29.432   9.343   1.935 -0.1007 -0.3131 -0.3370
42520W        W85432  30.517  11.455   1.355 -0.0227 -0.3288 -0.2769
42521W        W85433  31.939   7.236   2.544 -0.2048 -0.1548  0.0381
42522W        W85434  31.772   7.290   3.695 -0.0494  0.2194  0.2352
42523W        W85435  30.922   9.781   0.898  0.2850  0.1572  0.0670
42524W        W85436  30.643  10.531   0.721  0.1743 -0.1848 -0.1737
42525W        W85437  29.490   9.265   2.578  0.1436  0.2790 -0.0340
42526W        W85438  28.961   9.916   3.262 -0.0473 -0.1830  0.0068
42527W        W85439  31.246   7.647   2.078  0.2107 -0.2044 -0.0147
42528W        W85440  31.188   7.854   3.221  0.0221  0.2179  0.1305
42529W        W85441  30.812  10.544   1.327 -0.3570 -0.2157 -0.0581
42530W        W85442  30.867  11.252   1.841  0.0786  0.0282  0.0738
42531W        W85443  32.861   9.473   3.676 -0.2668 -0.1955 -0.0212
42532W        W85444  30.586   9.867   3.000  0.3324 -0.0284 -0.3901
42533W        W85445  28.361  11.381   2.281  0.1827  0.3527  0.2725
42534W        W85446  31.018  10.226   0.990 -0.0587 -0.0506  0.0518
42535W        W85447  32.191   9.264   0.520  0.2216 -0.1987 -0.0721
42536W        W85448  31.258  10.687   2.704 -0.0302 -0.1645  0.1136
42537W        W85449  30.006  11.583   3.933 -0.2549 -0.0218  0.1648
42538W        W85450  29.798  10.409   0.465  0.0622 -0.1359  0.1144
42539W        W85451  31.805  11.242   4.616 -0.0660 -0.3664  0.0260
42540W        W85452  31.012  10.859   3.706 -0.1069 -0.3058  0.0599
42541W        W85453  30.644   8.225   2.518 -0.0512  0.1517  0.0057
42542W        W85454  30.664   8.866   1.844  0.1913  0.0791  0.1164
42543W        W85455  31.131  11.410   1.054  0.2625  0.4088  0.2663
42544W        W85456  31.346   9.511   3.696  0.1032  0.0258  0.2834
42545W        W85457  31.873   9.310   2.892  0.0010  0.2290 -0.1549
42546W        W85458  29.415  10.718   3.553 -0.0728 -0.0982 -0.2089
42547W        W85459  33.064   8.353   3.170 -0.0544 -0.0150 -0.4292
42548W        W85460  31.053  10.735   0.964  0.4279  0.0187 -0.3263
42549W        W85461  31.920   8.046   1.604  0.1779  0.0442 -0.1794
42550W        W85462  29.922   8.369   1.074  0.3178  0.1359 -0.1718
42551W        W85463  31.590   8.948   1.150 -0.1099  0.1448 -0.1788
42552W        W85464  30.537   7.129   1.290  0.0570 -0.0322 -0.2283
42553W        W85465  29.861  10.272   1.109 -0.2169 -0.1549 -0.0472
42554W        W85466  31.483   8.744   3.692  0.3552 -0.2214 -0.0800
42555W        W85467  31.602  10.167   2.971 -0.1099  0.1977  0.0279
42556W        W85468  30.738   8.703   1.395 -0.0032  0.1160 -0.0434
42557W        W85469  31.305   8.581   2.678  0.1202  0.0311  0.4146
42558W        W85470  28.873  11.516   3.122 -0.1046 -0.1355  0.2514
42559W        W85471  28.783   8.705   1.766  0.4015 -0.0702  0.2192
42560W        W85472  31.706  11.034   0.096  0.2174 -0.1572  0.1965
42561W        W85473  32.264   8.721   0.390  0.0502 -0.0067  0.0675
42562W        W85474  32.413  10.979   0.858  0.0125  0.1106  0.0489
42563W        W85475  28.747   9.852   1.930 -0.0577  0.0457  0.0487
42564W        W85476  28.324   9.798   3.291 -0.1545  0.1985  0.2103
42565W        W85477  29.262   9.496   3.342  0.1510  0.0671 -0.6377
42566W        W85478  27.853   7.637  31.930 -0.1059  0.1813  0.3487
42567W        W85479  32.910  10.622   2.631 -0.0601  0.1365 -0.1182
42568W        W85480  29.295   7.729   2.811  0.0369 -0.0172  0.1821
42569W        W85481  33.606   9.052   2.376 -0.3472 -0.0063 -0.1300
42570W        W85482  30.869  10.778   2.308 -0.3014 -0.1625  0.4064
42571W        W85483  32.458  10.827   2.535 -0.2001  0.1366  0.1556
42572W        W85484  31.266   9.233  31.779  0.1106  0.1023  0.0666
42573W        W85485  32.394   8.351   2.106 -0.1580  0.0540  0.0178
42574W        W85486  32.746   6.996   3.328 -0.2211 -0.2262 -0.1552
42575W        W85487  31.202  10.491   0.522 -0.0797 -0.3283  0.3087
42576W        W85488  31.292  10.769   0.099  0.2246 -0.1556  0.0096
42577W        W85489  32.023  10.786   4.916 -0.3386  0.1209  0.0341
42578W        W85490  32.045   8.605  31.420 -0.2577  0.0544 -0.3480
42579W        W85491  30.864   9.450   3.297  0.1057 -0.1581  0.4158
42580W        W85492  29.523   8.495   2.720  0.0056  0.1963  0.2944
42581W        W85493  31.121  10.103   3.127  0.0122  0.0746  0.0663
42582W        W85494  29.610  13.566   0.785  0.2835  0.3466  0.2672
42583W        W85495  28.683   9.420   1.225  0.1080  0.0278 -0.2321
42584W        W85496  29.116  10.032   0.673  0.2390  0.4241  0.0173
42585W        W85497  29.242   7.688   1.490  0.2392 -0.0442  0.5385
42586W        W85498  29.231  11.326   4.206  0.1327 -0.0547 -0.1859
42587W        W85499  32.816   8.637   2.042 -0.0253  0.0276  0.0409
42588W        W85500  27.863   6.286   2.867 -0.1033 -0.1867 -0.0475
42589W        W85501  32.311   8.383   2.952 -0.1445 -0.0344  0.2394
42590W        W85502  29.578  10.827   0.242  0.0398 -0.2532 -0.3752
42591W        W85503  32.812   9.526  31.940  0.0432 -0.2079 -0.0528
42592W        W85504  32.542   8.644   0.922 -0.3732  0.2716 -0.2799
42593W        W85505  32.409   9.685  31.221  0.2461  0.0294 -0.3555
42594W        W85506  26.836   8.351   2.999 -0.0302 -0.2445 -0.0674
42595W        W85507  29.708   7.461   2.381  0.0173 -0.1756 -0.0236
42596W        W85508  28.568   9.258   3.864 -0.4477  0.0317 -0.1601
42597W        W85509  27.477   8.772   2.547  0.0336 -0.0235  0.0026
42598W        W85510  32.535   9.091   2.537  0.0218 -0.0414  0.0572
42599W        W85511  29.132   6.366   0.738  0.2675  0.0807  0.0781
42600W        W85512  30.799   8.461   0.810 -0.1026 -0.1129  0.0762
42601W        W85513  30.305   9.038   1.432 -0.0288  0.0434 -0.3432
42602W        W85514  29.498  10.675   1.764  0.1553 -0.0072  0.1086
42603W        W85515  32.741   7.193   4.835  0.0725 -0.1804  0.0594
42604W        W85516  31.700  10.064   0.485 -0.1627 -0.0591  0.4000
42605W        W85517  32.713  11.978   3.192  0.1529  0.2988 -0.0848
42606W        W85518  30.219  12.052   2.536  0.0564 -0.3230 -0.0943
42607W        W85519  29.588   8.066   3.179  0.0311  0.1207  0.3956
42608W        W85520  29.306   9.210   0.093 -0.2641 -0.1111  0.2032
42609W        W85521  27.504  11.603   0.587 -0.2494 -0.3758  0.0731
42610W        W85522  30.306  10.494   1.847 -0.2329  0.0045  0.0009
42611W        W85523  30.842   9.371   2.070  0.2524 -0.0697  0.0076
42612W        W85524  32.816  11.332   1.903 -0.0969  0.0728 -0.1416
42613W        W85525  31.056   9.468   1.267 -0.2469 -0.2460  0.0141
42614W        W85526  29.015   9.518   2.828  0.2102 -0.0893 -0.3364
42615W        W85527  33.040   7.780   4.092  0.0783  0.0920 -0.0004
42616W        W85528  31.485   9.902   2.142  0.0656 -0.1001  0.0562
42617W        W85529  31.000   9.764   2.284  0.1500 -0.0673  0.0573
42618W        W85530  28.935   7.718   2.171  0.4104 -0.1578  0.1913
42619W        W85531  32.330  11.029   1.636 -0.0772 -0.0619  0.0206
42620W        W85532  28.842  11.159  31.754 -0.0200  0.1505  0.1221
42621W        W85533  28.840  10.472   0.117  0.0830 -0.0126  0.1263
42622W        W85534  31.369  10.816   1.789 -0.1447 -0.1423 -0.2072
42623W        W85535  31.621   9.723   2.719 -0.0366 -0.2747  0.0532
42624W        W85536  29.359   9.908   3.724 -0.0162  0.1390  0.0320
42625W        W85537  31.871   9.677   3.627 -0.2272  0.0289  0.6702
42626W        W85538  30.103   9.801   1.169 -0.0750 -0.0539  0.0502
42627W        W85539  28.590  10.277   4.258 -0.0841 -0.2013 -0.0716
42628W        W85540  31.392   8.154   1.731 -0.2313 -0.1630  0.1523
42629W        W85541  32.169   8.891   0.927  0.0121  0.2010  0.1054
42630W        W85542  29.758  10.289   3.512 -0.0142  0.2639 -0.0912
42631W        W85543  30.851   9.370   0.664 -0.3760  0.0893  0.4235
42632W        W85544  30.388   8.905   0.492  0.0275  0.1361 -0.2050
42633W        W85545  29.646   7.001   0.286  0.0432  0.1824 -0.0048
42634W        W85546  29.023   9.359   3.833  0.2619  0.1185  0.2494
42635W        W85547  31.660  10.482   1.950  0.1025 -0.1061 -0.1958
42636W        W85548  28.851  10.573   2.784 -0.3230 -0.0565 -0.1946
42637W        W85549  31.195   9.527   1.813  0.0299  0.2693  0.1716
42638W        W85550  33.172   8.750   0.489  0.0573 -0.3772  0.0640
42639W        W85551  28.333   9.021   1.183 -0.3197  0.2007  0.3154
42640W        W85552  31.284  11.268   4.149  0.1500  0.0959  0.0071
42641W        W85553  31.540   9.417   2.271 -0.1768 -0.1075  0.3390
42642W        W85554  32.266   8.580   2.518 -0.2637 -0.0349  0.0795
42643W        W85555  29.854   9.183   0.425 -0.2003  0.2033 -0.2022
42644W        W85556  30.474   8.009   0.292  0.0435  0.0199  0.2391
42645W        W85557  30.468  10.255   0.211  0.3248 -0.2725 -0.1687
42646W        W85558  33.606   7.474   2.884 -0.0286 -0.0696 -0.3519
42647W        W85559  31.198   8.616   1.187  0.1601 -0.1126 -0.1288
42648W        W85560  31.586   6.981   2.749  0.0389 -0.4319  0.0473
42649W        W85561  32.912   9.619   2.116 -0.2719  0.0675  0.2888
42650W        W85562  31.775   8.896   0.608  0.1278 -0.0380  0.0985
42651W        W85563  30.427   9.508   2.426 -0.4293 -0.2261  0.3249
42652W        W85564  30.543   9.839   0.578 -0.2841 -0.0974 -0.1135
42653W        W85565  32.077   8.006   3.185 -0.0998  0.4420  0.1947
42654W        W85566  29.022   8.894   3.569  0.0044  0.1345  0.0758
42655W        W85567  30.355  10.636   4.803  0.0354 -0.2007  0.1835
42656W        W85568  32.000  10.154   1.259 -0.1676 -0.2333  0.2790
42657W        W85569  30.586  10.008   2.532  0.0756  0.0469  0.0459
42658W        W85570  32.599   7.910   1.979  0.0206 -0.3519  0.2019
42659W        W85571  31.069   8.802  31.873 -0.1207 -0.0445 -0.0578
42660W        W85572  30.808  11.494   2.909  0.0621 -0.2496  0.0966
42661W        W85573  29.626   9.364   0.892  0.3105  0.2917  0.1307
42662W        W85574  30.547   7.793   1.494  0.2477  0.1395  0.0877
42663W        W85575  30.408  11.379   1.871  0.2021  0.0553  0.0208
42664W        W85576  30.606  12.324   0.936 -0.0922 -0.1983  0.1626
42665W        W85577  29.621   9.857   2.007 -0.1258  0.1892  0.0335
42666W        W85578  30.125  11.453   0.864 -0.3982  0.1335  0.0377
42667W        W85579  33.412   6.972   2.819  0.1876  0.0724 -0.0565
42668W        W85580  29.508  11.634   2.964 -0.0192 -0.1135  0.3937
42669W        W85581  29.461   8.578   1.390  0.0207  0.0305  0.0174
42670W        W85582  30.154  10.135   0.748 -0.2216  0.1031  0.0742
42671W        W85583  32.028   8.093   2.608  0.2252  0.1404  0.0944
42672W        W85584  32.436  10.565   0.612  0.1539  0.0471  0.5918
42673W        W85585  28.722   7.734   2.621  0.0149 -0.1750 -0.1795
42674W        W85586  32.710   6.614   2.260 -0.2944 -0.2688 -0.0595
42675W        W85587  28.615  11.564   2.635 -0.2845 -0.1360 -0.1687
42676W        W85588  29.118   8.240   2.807 -0.2310 -0.0622  0.0020
42677W        W85589  31.329   8.655   0.710 -0.1794  0.0888  0.1849
42678W        W85590  31.482  10.957   3.743 -0.1136  0.0676  0.0866
42679W        W85591  29.276  10.255   2.696  0.0827  0.0161  0.0754
42680W        W85592  27.934  10.889   1.555 -0.1698  0.3503 -0.1216
42681W        W85593  32.676   9.112   1.173  0.1943 -0.0080 -0.0203
42682W        W85594  30.359   8.660   1.071  0.3467 -0.0915  0.0965
42683W        W85595  29.041   9.984   0.104 -0.2951  0.0652  0.0135
42684W        W85596  30.834  10.393   2.773 -0.2795  0.2893 -0.2334
42685W        W85597  29.978   9.345   1.301 -0.0377  0.3115 -0.0427
42686W        W85598  29.113  10.843   0.050  0.3569  0.1889 -0.0998
42687W        W85599  28.480   8.801   3.377  0.0727 -0.0600 -0.0358
42688W        W85600  30.742   8.687   2.831  0.1345  0.3066  0.0634
42689W        W85601  30.073   9.269   2.731 -0.3892 -0.1193  0.3244
42690W        W85602  29.814   7.313   1.850 -0.8134 -0.1381  0.0977
42691W        W85603  31.204   9.078   2.025  0.2512 -0.1307 -0.1411
42692W        W85604  32.464   9.260   3.030 -0.0535 -0.1231  0.1548
42693W        W85605  31.095   8.248   2.145 -0.2683  0.1393 -0.1734
42694W        W85606  28.809  10.020   2.812 -0.0083 -0.1425 -0.0937
42695W        W85607  30.428   6.877   0.908 -0.0291  0.2460  0.0425
42696W        W85608  32.415  10.541   1.104  0.3915 -0.0242  0.0347
42697W        W85609  32.119   9.315   2.476  0.3032  0.0512 -0.1351
42698W        W85610  29.477   8.734   0.757  0.1392  0.2314 -0.0534
42699W        W85611  28.768   8.941   1.311  0.0357 -0.1441  0.1583
42700W        W85612  30.196  10.006   2.089  0.0152 -0.0176 -0.0398
42701W        W85613  29.818   8.899   1.214  0.0206  0.0335  0.2375
42702W        W85614  28.228  10.647   3.387  0.0468  0.1759 -0.1482
42703W        W85615  29.762  11.311   0.039  0.1964 -0.2525  0.3016
42704W        W85616  29.317   9.060   3.156  0.0200  0.4843 -0.2900
42705W        W85617  31.540   7.098   0.947 -0.1247 -0.0788  0.0042
42706W        W85618  32.130   8.824  31.824 -0.0145 -0.0797 -0.0560
42707W        W85619  29.549   8.102   1.258  0.1435 -0.0498 -0.2529
42708W        W85620  32.988   8.072   2.343  0.4101  0.2181  0.3405
42709W        W85621  31.839   9.363   0.960 -0.1565  0.2250  0.1165
42710W        W85622  31.401   9.252   2.740 -0.2573  0.1572 -0.1519
42711W        W85623  28.804   6.985   2.816 -0.3238 -0.1745 -0.1278
42712W        W85624  31.911   9.855   0.871  0.1405 -0.0633  0.1424
42713W        W85625  29.626   8.783   1.908 -0.3608 -0.1714 -0.0863
42714W        W85626  30.721  10.292   3.301  0.0443  0.1591 -0.1339
42715W        W85627  28.588  10.725   3.980 -0.0098  0.1608 -0.1048
42716W        W85628  30.726   7.997   0.726 -0.1513 -0.1589  0.2452
42717W        W85629  29.384   6.985   0.698 -0.0328  0.0293 -0.1371
42718W        W85630  30.406   7.793   2.590 -0.1172 -0.0476 -0.4232
42719W        W85631  33.015   8.335   0.887  0.0706  0.0211  0.1090
42720W        W85632  31.672  10.636   0.596 -0.1956 -0.2463  0.2654
42721W        W85633  31.304   9.244   0.905  0.2410 -0.1287 -0.0685
42722W        W85634  28.809   9.117   3.172 -0.0192  0.2416  0.2489
42723W        W85635  33.060   8.776   1.508  0.0563 -0.1137 -0.2892
42724W        W85636  31.404  10.174   0.122 -0.1782  0.0874 -0.0654
42725W        W85637  29.632   9.930   2.628 -0.0537  0.1123  0.0086
42726W        W85638  30.220   8.576   3.408  0.0108 -0.4366  0.3171
42727W        W85639  31.456  10.793   1.227 -0.0572  0.0938  0.2330
42728W        W85640  31.128   8.587   1.795  0.1837 -0.1132  0.0259
42729W        W85641  32.099   8.872   2.910 -0.0674 -0.2412  0.1837
42730W        W85642  31.839   8.451   2.859  0.2009 -0.2706  0.1411
42731W        W85643  30.988   9.123   2.545  0.0133  0.1398 -0.0661
42732W        W85644  29.269   7.606   3.845 -0.4284  0.0679 -0.0685
42733W        W85645  32.228  11.411   3.757  0.2539  0.1594  0.0773
42734W        W85646  30.985   7.770   1.098  0.1847 -0.1942  0.1181
42735W        W85647  33.075   9.866   3.484  0.1405  0.1661 -0.0991
42736W        W85648  32.097   7.927   2.133 -0.2166 -0.1570  0.0110
42737W        W85649  31.267   8.139   0.846  0.1373 -0.5044 -0.1767
42738W        W85650  30.016   9.691   1.761 -0.1383  0.0596  0.0615
42739W        W85651  32.629  10.481   4.853  0.5293 -0.5469  0.0270
42740W        W85652  29.404   8.297   0.007  0.0293 -0.2471 -0.1312
42741W        W85653  32.925   9.134   2.862 -0.1883  0.1817  0.1303
42742W        W85654  31.316  10.990   0.627 -0.2287  0.1057 -0.1864
42743W        W85655  32.063  10.213   2.079 -0.0900  0.3010 -0.1696
42744W        W85656  31.024   8.267   0.408  0.2639  0.0839 -0.2823
42745W        W85657  30.042   9.112   2.233 -0.0420 -0.0302  0.2471
42746W        W85658  29.940  11.300   2.922  0.0509  0.1336 -0.0010
42747W        W85659  28.771  10.419  31.086 -0.1083 -0.0875 -0.0878
42748W        W85660  30.915   8.673   2.304 -0.3681 -0.0165  0.1594
42749W        W85661  29.924  11.272   2.206  0.0197 -0.3237  0.3225
42750W        W85662  32.041  10.100   3.556 -0.0392 -0.0344 -0.0015
42751W        W85663  29.556   8.319   0.491  0.0801  0.0139 -0.0214
42752W        W85664  31.619   7.686   3.302 -0.0822  0.2521 -0.3228
42753W        W85665  29.929  11.521   1.593  0.0517 -0.0876  0.0410
42754W        W85666  30.924   8.016   1.717  0.1989  0.0786 -0.2039
42755W        W85667  30.331  11.572   2.742 -0.1729  0.1129  0.0718
42756W        W85668  28.020   9.431   3.043  0.0944  0.0803  0.4285
42757W        W85669  30.270  10.491   1.189 -0.0741  0.0567 -0.0573
42758W        W85670  30.061   7.857   1.137  0.1014 -0.0730 -0.0038
42759W        W85671  31.655   9.239   1.607 -0.0582 -0.1686  0.0586
42760W        W85672  30.343   9.830   4.081  0.0866 -0.0157  0.2121
42761W        W85673  33.241   9.017   1.940  0.2758 -0.1724 -0.0959
42762W        W85674  30.273   8.864   2.969 -0.0844  0.0063  0.0517
42763W        W85675  28.688  11.045   2.478 -0.1767  0.2396 -0.1547
42764W        W85676  31.851  12.137   2.525  0.0494  0.1262  0.3121
42765W        W85677  32.588   8.753   1.610  0.2721 -0.3766 -0.1488
42766W        W85678  30.034  10.700   2.263  0.1095  0.0566  0.1505
42767W        W85679  28.492   8.896   5.605 -0.2239  0.1175  0.2592
42768W        W85680  30.330   8.854   4.097 -0.0695 -0.3243  0.0639
42769W        W85681  31.174  10.069   2.582  0.3712  0.0687  0.3669
42770W        W85682  29.268   8.336   0.906  0.0184 -0.0473  0.1122
42771W        W85683  30.644  11.035   1.021  0.1657 -0.0087 -0.0666
42772W        W85684  28.779  11.249   4.520 -0.0225  0.0239 -0.2248
42773W        W85685  27.547   9.200   3.990  0.1377  0.3448 -0.1712
42774W        W85686  29.520  11.721   1.952 -0.1270 -0.0070  0.0616
42775W        W85687  32.246   8.719  30.973 -0.0472 -0.3146  0.2021
42776W        W85688  31.538  10.222   0.923 -0.2468  0.2183  0.2054
42777W        W85689  31.494  12.540   2.384  0.2871 -0.0405 -0.2990
42778W        W85690  29.033   7.837   0.989 -0.0289 -0.1252 -0.1862
42779W        W85691  29.558  10.627   2.978 -0.0438  0.0072 -0.1031
42780W        W85692  30.387  11.570  31.379 -0.2195  0.2778  0.0390
42781W        W85693  31.382   9.686   0.648 -0.2521 -0.3666 -0.3133
42782W        W85694  30.044  10.276   2.535  0.2834 -0.1035 -0.0074
42783W        W85695  31.642  10.884   4.382 -0.0895 -0.0733 -0.1517
42784W        W85696  32.144   7.977  31.843  0.0613  0.0414  0.1063
42785W        W85697  32.503   9.638   1.342  0.1765  0.2152  0.0049
42786W        W85698  32.218   8.480   1.291 -0.2512  0.0935  0.3353
42787W        W85699  29.853  10.272   2.983 -0.1602  0.2000 -0.1379
42788W        W85700  29.257   8.960   1.634 -0.2061 -0.0559 -0.0413
42789W        W85701  30.199   9.192   0.846 -0.0882  0.0494  0.2212
42790W        W85702  29.632   9.480   3.031  0.0068  0.0865 -0.0387
42791W        W85703  34.146   7.523   2.763  0.1225 -0.1421 -0.1216
42792W        W85704  29.090  11.006   3.860  0.0474  0.1226  0.0158
42793W        W85705  32.787   9.868   0.758 -0.1621 -0.1877 -0.1504
42794W        W85706  29.189  10.832   2.538 -0.0429 -0.0036  0.2238
42795W        W85707  29.500   9.363   1.389 -0.0981 -0.4262  0.1502
42796W        W85708  33.345   7.870   2.573  0.0845 -0.1895  0.1941
42797W        W85709  29.935  11.079   0.570 -0.4266  0.2356 -0.0637
42798W        W85710  29.563   8.367   2.252  0.2166  0.0365  0.0601
42799W        W85711  30.647  10.123   1.630  0.1862  0.3074 -0.0086
42800W        W85712  30.011  10.766   2.779 -0.1998 -0.3927  0.0075
42801W        W85713  30.430  10.929   2.082  0.3050  0.2333 -0.0688
42802W        W85714  28.682   7.810   0.478  0.0082  0.0780 -0.1904
42803W        W85715  34.084   7.938   1.421 -0.2297 -0.1075 -0.0142
42804W        W85716  32.190   8.907   3.375  0.1731 -0.1899 -0.0158
42805W        W85717  33.559   8.085   2.057  0.1847 -0.1355 -0.2793
42806W        W85718  29.892   7.292   0.623 -0.0741  0.2819  0.2150
42807W        W85719  32.966   9.259   1.588 -0.0288 -0.4067 -0.2050
42808W        W85720  30.901   8.239   2.923 -0.3421  0.1444 -0.2826
42809W        W85721  30.779   7.477   2.616  0.4180 -0.2260 -0.1585
42810W        W85722  30.546   9.737   1.997  0.0416  0.1977 -0.1698
42811W        W85723  32.680   9.815   4.136 -0.1134  0.1710  0.0222
42812W        W85724  30.587   9.365   1.106 -0.1603  0.1885 -0.1869
42813W        W85725  32.372  11.174   2.211 -0.0190  0.0472  0.0820
42814W        W85726  30.192   8.212   2.309  0.1101  0.1486 -0.2478
42815W        W85727  31.338   8.220   0.029  0.1863  0.5643  0.2839
42816W        W85728  29.034  10.286   1.663  0.5563  0.1597 -0.4619
42817W        W85729  30.653   8.328   2.014  0.0652  0.0535  0.2082
42818W        W85730  32.129  11.522   4.334  0.1356 -0.1723 -0.0803
42819W        W85731  29.522   5.811   2.312  0.0995  0.0937  0.2990
42820W        W85732  32.908  10.373  31.178  0.0879 -0.1027  0.1267
42821W        W85733  31.738   9.026   2.027 -0.0693 -0.1813 -0.0824
42822W        W85734  31.680  11.908   0.092 -0.0677  0.3306 -0.0545
42823W        W85735  31.811   9.570   0.351 -0.0841 -0.2535  0.0294
42824W        W85736  32.578  12.293   1.594 -0.2685 -0.1143 -0.3328
42825W        W85737  29.789   7.758   3.487 -0.0194 -0.2042 -0.0478
42826W        W85738  31.491  11.132   3.236  0.0066 -0.3876 -0.0146
42827W        W85739  32.471  10.494   1.635  0.0584  0.0630 -0.0420
42828W        W85740  30.430   7.271   0.595  0.0324  0.0428 -0.2357
42829W        W85741  29.276   7.601   3.364  0.0729 -0.1362 -0.1388
42830W        W85742  29.333  10.374   2.126  0.3051  0.2088  0.0260
42831W        W85743  32.477   8.017   2.487 -0.0475 -0.2245 -0.4503
42832W        W85744  30.614   7.720   3.016 -0.1770  0.1311 -0.0009
42833W        W85745  29.954  10.260  31.473  0.2456  0.3472 -0.2251
42834W        W85746  32.946   7.774   2.863 -0.1661 -0.0893 -0.2455
42835W        W85747  30.657   9.318   2.861 -0.1591  0.1734  0.0072
42836W        W85748  29.915  10.682   3.912 -0.1370  0.1209 -0.3110
42837W        W85749  30.464   9.637   1.476  0.0762  0.0488 -0.1391
42838W        W85750  29.931   8.361   2.918  0.0727 -0.1451 -0.0800
42839W        W85751  30.689  10.240   2.138 -0.0360 -0.1656 -0.0573
42840W        W85752  30.988  11.348   0.443  0.0551  0.1737 -0.2618
42841W        W85753  31.578   9.732   1.237 -0.1738 -0.0860  0.2882
42842W        W85754  31.259  10.439   2.219  0.0785 -0.0871 -0.0403
42843W        W85755  33.617  11.023   1.669 -0.2791 -0.0781 -0.1181
42844W        W85756  30.174   8.672   2.027  0.1198  0.0478 -0.1238
42845W        W85757  33.149   8.168   0.293  0.4361  0.2127  0.0769
42846W        W85758  31.482   8.004   1.261  0.1149  0.0725 -0.1000
42847W        W85759  30.417   9.046   3.534  0.1816  0.2769  0.1342
42848W        W85760  29.588  10.263  30.679  0.0631  0.0562  0.0060
42849W        W85761  30.827  10.845   0.362 -0.0069 -0.1560 -0.0243
42850W        W85762  31.176   9.922   1.402 -0.0543 -0.0778  0.0206
42851W        W85763  30.139   7.440   3.804  0.0011 -0.0158 -0.0412
42852W        W85764  28.761   7.518   3.516  0.0860 -0.1771 -0.0293
42853W        W85765  28.771  11.132   0.835 -0.0886  0.0509 -0.1313
42854W        W85766  30.450   8.289   1.577 -0.1565  0.1441  0.0149
42855W        W85767  32.732  11.660   0.957 -0.2497 -0.1086  0.0184
42856W        W85768  29.483   7.995   1.786 -0.3752 -0.0120 -0.2574
42857W        W85769  28.197   7.803   1.726 -0.1822 -0.0360 -0.1494
42858W        W85770  31.956   9.506  31.855  0.0014 -0.0459  0.2083
42859W        W85771  32.250  10.134   0.423 -0.0986  0.1679  0.0545
42860W        W85772  29.202   7.253   0.120  0.1897  0.1086 -0.1568
42861W        W85773  31.952  11.815   3.891  0.3025 -0.1641  0.4932
42862W        W85774  29.621  10.030  31.737  0.0004  0.0213 -0.2347
42863W        W85775  30.759   9.409   3.903 -0.0340 -0.1126 -0.2652
42864W        W85776  29.676   8.850   2.363 -0.0615 -0.0830  0.1588
42865W        W85777  28.534   8.427   1.281  0.0993 -0.1062  0.2443
42866W        W85778  29.691   7.991   2.658  0.0511 -0.0439  0.1338
42867W        W85779  31.832  11.795   1.574  0.1733 -0.1318  0.0860
42868W        W85780  32.003  10.523   0.211 -0.2651 -0.1143  0.0499
42869W        W85781  30.472  10.546   2.446  0.1604  0.2459 -0.2004
42870W        W85782  29.629  10.524   2.482 -0.1354 -0.2493 -0.0371
42871W        W85783  28.894   7.931   3.188 -0.1646 -0.0627 -0.2434
42872W        W85784  32.165   9.070   1.389  0.0229  0.2241 -0.2534
42873W        W85785  30.942   8.125   4.080 -0.1929  0.0646 -0.2161
42874W        W85786  33.655   9.085   0.198 -0.1337  0.0355 -0.0630
42875W        W85787  31.544   8.209   2.446  0.1168  0.0093 -0.0210
42876W        W85788  30.748   9.305   1.599  0.2930 -0.0916  0.1200
42877W        W85789  29.725   7.274   3.534 -0.1058  0.1065  0.2778
42878W        W85790  28.734  10.630   3.275  0.4446 -0.2173 -0.2441
42879W        W85791  32.761  10.060   3.128  0.2394 -0.2202 -0.1471
42880W        W85792  31.521   6.803   2.265  0.1393  0.1257  0.2162
42881W        W85793  31.684   8.112  31.431  0.2732  0.3691 -0.0243
42882W        W85794  31.291  11.336   0.020 -0.1484  0.0992 -0.3333
42883W        W85795  29.124   8.765   2.719 -0.1731 -0.1379 -0.1943
42884W        W85796  30.363   8.376   0.563  0.0672 -0.0770 -0.3202
42885W        W85797  32.051   9.906   2.572  0.2567  0.0076 -0.0236
42886W        W85798  32.098  10.930   3.060  0.1028  0.4038 -0.1024
42887W        W85799  31.067   9.630   2.845 -0.2074  0.6776  0.0988
42888W        W85800  30.367   9.306   1.858 -0.0662 -0.1869 -0.1543
42889W        W85801  32.279   9.665   0.209 -0.0640 -0.2319  0.0850
42890W        W85802  30.389  12.520   1.334 -0.1185  0.2303  0.1663
42891W        W85803  32.418   9.820   2.229 -0.4552  0.0961  0.0183
42892W        W85804  31.767  11.477   2.842 -0.2435  0.2163 -0.1229
42893W        W85805  31.186   9.054   1.451  0.0958  0.1003 -0.3472
42894W        W85806  28.850   6.429   2.689  0.0275  0.3238  0.0050
42895W        W85807  29.905   9.618   2.305  0.1682 -0.1514  0.1038
42896W        W85808  30.506  10.035   1.127 -0.0958  0.1422  0.1652
42897W        W85809  33.131   9.168   2.401  0.0702  0.2226  0.0031
42898W        W85810  30.134   8.673   2.542  0.2034  0.3966  0.0847
42899W        W85811  29.335   7.430   1.036  0.0802 -0.0439 -0.0431
42900W        W85812  30.163   9.965   3.311 -0.1461  0.1155 -0.2101
42901W        W85813  29.757   8.931   2.846 -0.0161 -0.1206 -0.2058
42902W        W85814  31.177   8.525   5.748 -0.1601  0.1365 -0.0762
42903W        W85815  29.540   8.736   4.173 -0.0775  0.1249 -0.1986
42904W        W85816  30.511   8.961   2.343 -0.2125 -0.2405  0.0164
42905W        W85817  33.196   8.970   3.262  0.1632 -0.0348  0.1166
42906W        W85818  29.057   8.371   4.416  0.0070  0.1712 -0.0209
42907W        W85819  31.543   9.970   5.467 -0.1248 -0.2077 -0.0626
42908W        W85820  29.815   8.938   6.788 -0.2479 -0.1130  0.1305
42909W        W85821  30.411  10.016   6.164  0.0104 -0.1963  0.0932
42910W        W85822  32.049  11.034   6.756  0.0119 -0.0361  0.0376
42911W        W85823  31.399  10.086   4.063  0.0439  0.3585 -0.2450
42912W        W85824  30.073   8.596   5.454  0.0656  0.1027 -0.0577
42913W        W85825  30.626   9.649   5.845  0.1011 -0.0914  0.2058
42914W        W85826  31.212   8.318   4.493 -0.0104 -0.0697  0.0437
42915W        W85827  29.429   7.721   4.338  0.2143 -0.1288 -0.1090
42916W        W85828  32.065   8.381   5.476  0.0297  0.0627  0.2208
42917W        W85829  29.900   9.603   5.247  0.0385  0.0179 -0.0300
42918W        W85830  30.763   6.976   6.066  0.4779  0.0324  0.0299
42919W        W85831  30.611   7.853   5.529  0.2612 -0.1206 -0.2195
42920W        W85832  30.780  10.656   4.405 -0.0713 -0.0892 -0.1241
42921W        W85833  31.228   7.298   7.101  0.0567  0.0885  0.2937
42922W        W85834  32.401   7.016   6.721  0.1345 -0.2262 -0.3369
42923W        W85835  30.578  10.156   5.013 -0.2489  0.4452 -0.0328
42924W        W85836  30.618   7.217   3.088 -0.1929 -0.0799  0.2767
42925W        W85837  29.372   9.180   4.375  0.1616 -0.2519  0.2156
42926W        W85838  31.827   8.195   6.525  0.0314  0.0398 -0.3116
42927W        W85839  32.361   7.085   4.206  0.0101  0.0859  0.2016
42928W        W85840  32.491   8.462   4.548  0.1105  0.1319 -0.1521
42929W        W85841  29.473   9.845   5.641  0.2582  0.1593  0.0336
42930W        W85842  31.084  10.859   8.214  0.0072 -0.0560  0.0435
42931W        W85843  32.496   7.971   8.534  0.0127  0.0070 -0.2152
42932W        W85844  28.734  10.410   5.148 -0.0366  0.1568 -0.0670
42933W        W85845  29.064  10.569   5.577  0.3193 -0.1966  0.0948
42934W        W85846  30.578  10.105   4.444 -0.2467 -0.3532 -0.1033
42935W        W85847  32.939   8.566   4.794  0.1338 -0.0897  0.2729
42936W        W85848  33.814   9.564   7.362  0.3034  0.1307 -0.1065
42937W        W85849  29.209  10.474   7.419 -0.2157 -0.4166  0.2569
42938W        W85850  29.976  10.754   4.409  0.1494 -0.0025  0.1072
42939W        W85851  29.904  10.876   6.683 -0.3211  0.1549  0.2867
42940W        W85852  29.961  10.169   6.274 -0.0374 -0.0569 -0.1265
42941W        W85853  31.465   9.186   6.687  0.0415  0.1186 -0.1003
42942W        W85854  31.019   8.635   3.916  0.2615 -0.1104 -0.2949
42943W        W85855  30.386   9.654   3.575  0.0192  0.0877 -0.1159
42944W        W85856  31.158   8.948   4.649  0.3226  0.0643  0.1738
42945W        W85857  30.368   8.866   5.813  0.0344 -0.1011  0.1307
42946W        W85858  30.365   9.690   5.298  0.1086 -0.3206 -0.0080
42947W        W85859  34.013   7.935   8.129  0.0542  0.0437 -0.0699
42948W        W85860  29.907   8.933   4.549  0.3883 -0.0947  0.1924
42949W        W85861  31.748   8.931   2.538 -0.0453  0.0221 -0.0047
42950W        W85862  29.872   7.124   4.177  0.0009  0.2176  0.0156
42951W        W85863  31.166   8.457   3.324 -0.0834 -0.1337 -0.3224
42952W        W85864  31.279   5.889   6.379 -0.3888  0.0790 -0.0765
42953W        W85865  30.167  10.945   5.866  0.0235 -0.0655 -0.0367
42954W        W85866  30.245   8.164   5.721 -0.2534 -0.0178  0.2982
42955W        W85867  32.417   9.333   6.913  0.0580  0.2972 -0.3859
42956W        W85868  30.699   8.494   4.339  0.3183 -0.0026  0.2426
42957W        W85869  31.941   8.334   6.036 -0.0887 -0.0386 -0.0398
42958W        W85870  29.270  10.255   8.317  0.2336  0.3026 -0.1508
42959W        W85871  28.081   8.850   4.168 -0.1701  0.1572 -0.1757
42960W        W85872  32.249  10.013   4.862 -0.2274  0.0276 -0.3164
42961W        W85873  32.241   8.903   5.556 -0.2360 -0.1303  0.1030
42962W        W85874  31.546  11.679   4.293 -0.0181 -0.0227 -0.0638
42963W        W85875  30.204   8.107   3.520 -0.2037 -0.1846 -0.2204
42964W        W85876  30.895   8.421   6.548 -0.1303 -0.0169  0.0419
42965W        W85877  30.876   8.279   7.033  0.3568  0.0418  0.0901
42966W        W85878  30.219   7.530   4.315  0.1578 -0.2740 -0.1651
42967W        W85879  33.541   9.054   6.687  0.1542 -0.1729 -0.2467
42968W        W85880  29.719   9.447   5.822  0.1129 -0.1797 -0.1065
42969W        W85881  31.876   7.288   4.827 -0.1047  0.0680 -0.1248
42970W        W85882  30.682   9.269   5.430 -0.0304 -0.0578 -0.2234
42971W        W85883  32.279   9.458   5.456  0.1967  0.2735 -0.2374
42972W        W85884  31.611  10.101   4.622  0.1102 -0.1632 -0.0283
42973W        W85885  31.463   7.460   5.690  0.2085 -0.1548  0.0613
42974W        W85886  32.871   7.757   5.673  0.3589 -0.2632 -0.3383
42975W        W85887  29.882   9.424   4.280  0.1005  0.1318 -0.1976
42976W        W85888  29.855   7.881   4.005 -0.1326 -0.0946 -0.0091
42977W        W85889  33.179   9.819   5.276 -0.2787  0.0655  0.1478
42978W        W85890  31.612   8.862   3.046 -0.1060 -0.0021  0.0175
42979W        W85891  30.111   9.979   7.195  0.1720 -0.4922 -0.2844
42980W        W85892  30.917   7.076   6.624 -0.0575  0.1703  0.1444
42981W        W85893  29.050   8.735   6.197 -0.1544  0.1038  0.0931
42982W        W85894  30.362  11.066   4.400 -0.1166  0.0480 -0.1039
42983W        W85895  29.498   9.313   5.417 -0.1802  0.2351 -0.2006
42984W        W85896  29.851   8.429   3.760  0.0189  0.0360  0.0393
42985W        W85897  29.722   7.863   6.505 -0.1202 -0.3558  0.1926
42986W        W85898  28.918   9.163   5.390 -0.1739  0.0648 -0.0532
42987W        W85899  32.118   7.633   4.014 -0.0989  0.0992  0.0496
42988W        W85900  30.193   7.764   6.284  0.1966 -0.4169  0.0293
42989W        W85901  32.430   6.592   5.381 -0.1328 -0.0992  0.3588
42990W        W85902  28.363   9.726   3.766  0.0857 -0.2718  0.2236
42991W        W85903  32.303  11.772   5.434  0.1968 -0.3550  0.0689
42992W        W85904  33.058   7.833   3.436  0.0851  0.6866  0.0602
42993W        W85905  30.300   9.206   4.478  0.0658 -0.0346  0.2962
42994W        W85906  28.367   9.862   6.550  0.0078 -0.2056  0.0765
42995W        W85907  30.822   6.821   4.554 -0.2105 -0.0246 -0.3761
42996W        W85908  31.567   7.896   5.345  0.0345  0.0157  0.1153
42997W        W85909  30.098   7.838   5.191  0.1205 -0.5299  0.5268
42998W        W85910  32.974   9.231   7.557 -0.0036  0.1716 -0.0727
42999W        W85911  28.859   7.930   3.721 -0.1830 -0.2956  0.2079
43000W        W85912  31.722   9.165   3.426 -0.1768 -0.0109 -0.0258
43001W        W85913  31.154   8.353   5.221  0.2341 -0.3230 -0.0425
43002W        W85914  29.144   9.818   4.669  0.1588  0.0452  0.1541
43003W        W85915  32.995   8.241   7.497 -0.2218  0.1185 -0.1037
43004W        W85916  31.397  10.600   4.036  0.3751 -0.0920  0.1585
43005W        W85917  30.999   8.854   6.323  0.2357 -0.1197 -0.2969
43006W        W85918  33.140  10.198   5.642  0.0803 -0.2472 -0.0096
43007W        W85919  31.843   6.972   6.512  0.1356 -0.0985  0.1717
43008W        W85920  29.876   8.973   3.323 -0.1614  0.2332 -0.0580
43009W        W85921  29.001  11.097   5.451  0.0822  0.1869  0.1405
43010W        W85922  30.230   9.305   5.038 -0.0156 -0.0142 -0.2810
43011W        W85923  29.035   7.142   4.520  0.0923  0.1489  0.0404
43012W        W85924  31.074  10.027   4.579  0.1552 -0.6343 -0.0588
43013W        W85925  31.944   8.602   4.356  0.3981 -0.1465  0.2296
43014W        W85926  30.013   8.933   7.265 -0.0970 -0.0668 -0.0392
43015W        W85927  31.571   8.271   5.678  0.1827  0.0648  0.2344
43016W        W85928  32.433   9.666   6.557 -0.0415 -0.0966  0.1063
43017W        W85929  32.614   8.189   7.198  0.0628 -0.0473 -0.1171
43018W        W85930  28.935   9.499   4.327 -0.2251 -0.2163  0.1310
43019W        W85931  32.153  11.070   6.158 -0.2070  0.1538 -0.0086
43020W        W85932  30.371  10.681   5.384  0.0246 -0.1502 -0.0030
43021W        W85933  28.096   9.424   4.103 -0.2640 -0.0434 -0.2559
43022W        W85934  31.060   9.251   5.094  0.0309  0.0211 -0.0079
43023W        W85935  33.296   7.463   4.888 -0.0677 -0.0398 -0.0885
43024W        W85936  29.826   8.479   7.625  0.1834  0.1060  0.3575
43025W        W85937  32.239   6.718   9.225 -0.0808  0.1166 -0.0521
43026W        W85938  30.237   9.345   3.961  0.1339  0.2436  0.0300
43027W        W85939  29.717   9.519   6.460 -0.1694 -0.0958 -0.0783
43028W        W85940  32.302   7.466   5.036 -0.0236 -0.0255 -0.2416
43029W        W85941  33.329   7.798   4.450 -0.0738 -0.0385 -0.4333
43030W        W85942  31.469   8.416   6.154 -0.0227 -0.1119  0.0823
43031W        W85943  32.332   8.411   3.995 -0.2236 -0.2012 -0.1308
43032W        W85944  31.149   9.189   4.102 -0.0285 -0.1670 -0.0840
43033W        W85945  32.007   8.867   3.939 -0.0252  0.0111 -0.1559
43034W        W85946  30.618   9.126   7.167 -0.0767  0.2757 -0.0252
43035W        W85947  29.627   9.600   4.712 -0.1523 -0.2729  0.5666
43036W        W85948  30.695   8.486   6.081 -0.0503  0.3423  0.0105
43037W        W85949  30.406   8.297   3.044 -0.0968  0.2861 -0.0894
43038W        W85950  32.568  10.527   3.001 -0.1558  0.0885 -0.0693
43039W        W85951  30.413   8.827   5.162 -0.1077  0.2432 -0.4181
43040W        W85952  32.649   8.825   6.881 -0.4991  0.1522  0.0713
43041W        W85953  32.056  10.206   5.721 -0.2214  0.1029 -0.2240
43042W        W85954  30.694   7.316   5.336 -0.2820 -0.0289  0.3537
43043W        W85955  30.706   8.557   3.322 -0.0795  0.1089 -0.1135
43044W        W85956  31.322   5.759   5.061 -0.0379 -0.1230 -0.0491
43045W        W85957  30.175  11.075   3.912  0.0469  0.0640 -0.0421
43046W        W85958  33.349   7.020   6.840 -0.3271 -0.0864 -0.0551
43047W        W85959  31.748   8.158   4.672 -0.2392  0.0156 -0.2920
43048W        W85960  31.512   7.765   6.541  0.0769 -0.2734  0.1131
43049W        W85961  32.731   8.424   7.871 -0.4210  0.0801  0.0535
43050W        W85962  31.913   8.483   3.325 -0.1305 -0.0282  0.0081
43051W        W85963  32.442   9.102   6.445 -0.3222  0.2169  0.3534
43052W        W85964  29.620   8.211   4.449 -0.0160 -0.1610 -0.0085
43053W        W85965  31.826   7.554   6.111 -0.0409  0.0054 -0.1634
43054W        W85966  29.723   7.594   5.545 -0.0719 -0.2195 -0.1771
43055W        W85967  30.179  11.141   7.005 -0.2829  0.0676 -0.0793
43056W        W85968  32.572  10.128   5.692  0.0804  0.2560  0.1453
43057W        W85969  31.414   8.779   4.188  0.0328  0.1253 -0.0179
43058W        W85970  32.666   8.351   6.599  0.0862 -0.0377 -0.3662
43059W        W85971  30.730   9.035   4.280  0.0542  0.1208 -0.0320
43060W        W85972  31.181  10.398   3.614 -0.3124 -0.0889 -0.1092
43061W        W85973  30.422   8.745   4.655  0.0832 -0.1002  0.1154
43062W        W85974  30.721   7.530   6.321  0.0981  0.0613 -0.4945
43063W        W85975  31.080   9.445   5.773 -0.0085 -0.3123  0.0199
43064W        W85976  30.514  10.675   3.937 -0.1525 -0.0966  0.0614
43065W        W85977  32.261   9.336   5.932  0.0282 -0.1306 -0.2249
43066W        W85978  29.191  10.412   3.285 -0.0402 -0.0260 -0.0939
43067W        W85979  33.120   7.400   6.486  0.1264  0.1981  0.0625
43068W        W85980  29.259   9.251   4.920 -0.1818 -0.0994 -0.1100
43069W        W85981  30.391   8.024   4.290  0.2032  0.0968 -0.4922
43070W        W85982  28.960   8.948   4.151 -0.1888  0.1487  0.0962
43071W        W85983  30.856   8.546   4.807 -0.0999 -0.0580  0.0442
43072W        W85984  32.056  10.357   4.020  0.0322 -0.1484  0.2981
43073W        W85985  30.132   6.856   5.463 -0.0434  0.1124 -0.1565
43074W        W85986  30.845   5.760   4.357 -0.1920  0.4257 -0.2417
43075W        W85987  29.510  10.815   5.649  0.1845  0.2922  0.0038
43076W        W85988  32.098   8.789   6.703 -0.0396  0.0629  0.1582
43077W        W85989  32.386   8.498   3.499  0.1826  0.2279  0.1107
43078W        W85990  31.870   9.644   6.829 -0.1330 -0.3684  0.0157
43079W        W85991  31.549   8.904   7.306 -0.0989  0.1534 -0.1593
43080W        W85992  28.332   8.030   3.683  0.1816 -0.2594 -0.2229
43081W        W85993  32.425   7.610   5.518  0.0313 -0.1083  0.2676
43082W        W85994  31.090   7.727   5.335 -0.1753 -0.0310 -0.3189
43083W        W85995  30.922  10.544   4.999  0.3072 -0.1975  0.0103
43084W        W85996  31.244  10.216   6.835  0.2465 -0.1338  0.2181
43085W        W85997  29.972   8.698   4.968 -0.2083  0.1643 -0.0603
43086W        W85998  29.326   8.785   4.734 -0.0478 -0.0719 -0.0115
43087W        W85999  30.287   8.286   6.743  0.1390  0.2167 -0.1355
43088W        W86000  32.383   8.578   6.199  0.3520  0.0396 -0.0249
43089W        W86001  31.085   8.023   6.324  0.0618 -0.2141 -0.0288
43090W        W86002  30.986   7.644   4.797  0.3716 -0.2433  0.0573
43091W        W86003  30.883   8.782   5.250 -0.5154 -0.1204  0.0123
43092W        W86004  32.079   8.944   4.778  0.2817 -0.1583  0.2635
43093W        W86005  32.878   7.765   6.201 -0.2199 -0.0435 -0.0432
43094W        W86006  30.094  10.366   6.685 -0.3698  0.1330  0.0516
43095W        W86007  31.516   7.320   5.160 -0.0621  0.4395 -0.2299
43096W        W86008  32.946  11.426   3.193 -0.0643 -0.2396 -0.0190
43097W        W86009  34.012   7.581   7.205 -0.0807 -0.4040 -0.1300
43098W        W86010  29.826   9.979   4.412 -0.3055  0.0620 -0.1689
43099W        W86011  29.008   8.724   5.698  0.0484  0.4265 -0.3081
43100W        W86012  28.730   7.488   4.782 -0.0689 -0.3831  0.0161
43101W        W86013  31.233   6.491   6.315  0.1261 -0.1972  0.1565
43102W        W86014  30.245   9.212   6.635 -0.1582  0.3258  0.0630
43103W        W86015  30.658   9.586   4.415  0.4054 -0.3962 -0.2358
43104W        W86016  29.432   8.772   5.392 -0.4060  0.2859 -0.2873
43105W        W86017  33.577   7.892   4.929  0.1063 -0.0744 -0.2005
43106W        W86018  30.927   9.829   4.090  0.2524  0.3574  0.0731
43107W        W86019  31.877   8.111   4.194 -0.0147  0.3173 -0.1028
43108W        W86020  34.236   7.520   8.303  0.1606  0.1356  0.0379
43109W        W86021  30.157  10.304   4.171  0.0974  0.3073 -0.1157
43110W        W86022  32.680   7.258   7.434  0.0277  0.1481 -0.0279
43111W        W86023  29.324   7.377   5.953 -0.1336 -0.0560  0.2020
43112W        W86024  32.440   9.540   4.512 -0.1260  0.0460  0.1315
43113W        W86025  32.248   8.101   6.340  0.0307  0.2925  0.1537
43114W        W86026  31.452  11.180   9.003 -0.1583  0.1949  0.2019
43115W        W86027  30.266   7.329   7.795  0.0216 -0.0105 -0.1480
43116W        W86028  31.393   8.294   3.979  0.0664  0.0163  0.1878
43117W        W86029  30.773   7.593   4.314 -0.1475  0.1065 -0.1422
43118W        W86030  30.717   7.955   5.076  0.0926  0.5278  0.1507
43119W        W86031  31.583   9.245   4.951 -0.1150  0.0641 -0.1554
43120W        W86032  30.185   9.395   5.704  0.0773  0.1674  0.0207
43121W        W86033  31.767   7.674   4.366 -0.0739  0.0846 -0.2385
43122W        W86034  29.763   8.905   5.766  0.1744  0.0278 -0.1628
43123W        W86035  31.296   7.817   4.339 -0.1764  0.0801  0.1501
43124W        W86036  32.710  10.872   4.466 -0.1928 -0.3077  0.0389
43125W        W86037  29.742   9.174   3.867 -0.0626 -0.0562 -0.2829
43126W        W86038  31.655   6.604   5.874 -0.1519  0.4395 -0.0119
43127W        W86039  31.866   9.592   6.233  0.2631  0.3725 -0.0193
43128W        W86040  30.347   7.051   4.536  0.0425 -0.2270 -0.0422
43129W        W86041  32.319   8.404   7.575 -0.3075 -0.0078 -0.1748
43130W        W86042  33.898   7.614   6.165  0.0799 -0.0475  0.2111
43131W        W86043  31.479   9.376   7.404 -0.4332 -0.1143  0.0227
43132W        W86044  30.154   7.317   5.327 -0.0015  0.0001 -0.2376
43133W        W86045  31.449  11.676   7.957 -0.0776 -0.0019  0.1735
43134W        W86046  32.788   8.290   2.773 -0.1387 -0.2632 -0.0610
43135W        W86047  33.027   9.086   7.062 -0.2670  0.1055  0.0497
43136W        W86048  32.067   9.384   4.223  0.0549  0.1241 -0.1939
43137W        W86049  31.491   9.612   3.245 -0.1466  0.1472  0.1002
43138W        W86050  29.728   9.146   4.994  0.1213 -0.1636 -0.2450
43139W        W86051  31.569   9.065   7.857  0.0840 -0.1194 -0.1887
43140W        W86052  28.035   7.394   4.241 -0.4094  0.0927  0.1386
43141W        W86053  33.412   6.522   6.912  0.0946  0.0681 -0.2044
43142W        W86054  30.988   9.874   3.588  0.2168  0.0785  0.2354
43143W        W86055  32.340   8.929   4.337  0.2783  0.0807  0.1301
43144W        W86056  30.920   9.020   3.602  0.1708 -0.0003 -0.3101
43145W        W86057  28.981   8.205   5.884  0.2448  0.1088 -0.0953
43146W        W86058  29.416  10.247   7.841  0.0753 -0.4611 -0.2257
43147W        W86059  29.427   8.175   3.982 -0.0589  0.0948  0.1629
43148W        W86060  31.091   9.019   3.111  0.0623 -0.1617  0.2592
43149W        W86061  30.585  10.558   5.823  0.1648 -0.1529  0.2150
43150W        W86062  31.036   9.789   6.217 -0.2735 -0.2596 -0.0884
43151W        W86063  31.465   7.536   4.729  0.0317  0.0428 -0.1930
43152W        W86064  33.133   8.773   6.710 -0.1909 -0.2878 -0.2276
43153W        W86065  28.028  10.891   4.773  0.0413 -0.0084  0.1910
43154W        W86066  31.636   8.357   5.160  0.3100 -0.1585 -0.1863
43155W        W86067  28.989  11.091   6.391 -0.0209 -0.1488  0.0060
43156W        W86068  29.229   9.631   6.063  0.0654  0.3915  0.0965
43157W        W86069  30.221  11.105   4.996 -0.1873  0.1532 -0.2605
43158W        W86070  31.887   7.900   5.702 -0.0384  0.2491  0.1375
43159W        W86071  32.152   7.294   5.787  0.1483 -0.0479  0.1710
43160W        W86072  31.361   8.837   5.130 -0.0224  0.3226  0.0367
43161W        W86073  33.218   8.643   7.267  0.0742  0.0132  0.0848
43162W        W86074  30.598   9.586   6.471  0.5161  0.0315  0.4237
43163W        W86075  30.546   8.446   3.852  0.1110  0.0446 -0.1733
43164W        W86076  30.579  10.172   6.630 -0.0540  0.1612 -0.0586
43165W        W86077  31.721   9.049   4.456 -0.0924 -0.0242  0.0940
43166W        W86078  29.860  10.851   5.281  0.2732  0.2370 -0.3340
43167W        W86079  31.034   7.662   6.700  0.2190  0.0077  0.2915
43168W        W86080  32.515   7.975   8.054 -0.0580 -0.3534  0.3294
43169W        W86081  31.878   8.806   5.167 -0.2254 -0.0236  0.0615
43170W        W86082  30.559   7.788   3.866  0.1737  0.3029  0.1640
43171W        W86083  31.519   9.573   4.305 -0.2890 -0.2085  0.1565
43172W        W86084  28.760  10.659   7.050  0.1300  0.2675 -0.4517
43173W        W86085  28.887  10.475   6.224  0.0263 -0.1923  0.0670
43174W        W86086  29.275  10.892   4.656  0.0990  0.1857  0.1244
43175W        W86087  32.488  10.146   3.803 -0.3760  0.1870 -0.1869
43176W        W86088  31.116   9.507   4.605  0.1616 -0.2255 -0.3017
43177W        W86089  31.121  11.072   6.659  0.1055  0.1725  0.0800
43178W        W86090  29.627   8.558   3.298  0.2423  0.2187 -0.0545
43179W        W86091  30.173   9.606   6.194 -0.3021 -0.2173  0.1229
43180W        W86092  29.330  11.375   4.684 -0.2109  0.0704  0.1563
43181W        W86093  31.475  10.705   4.909  0.2780 -0.0359 -0.3194
43182W        W86094  30.194   9.637   4.702  0.0462 -0.0681  0.1492
43183W        W86095  32.879   8.806   8.211  0.3843 -0.2743  0.1691
43184W        W86096  31.736   6.357   4.050  0.0560  0.0941  0.2698
43185W        W86097  32.973   9.017   3.894  0.0259 -0.1059  0.1267
43186W        W86098  32.913   8.220   3.842  0.0205 -0.0767 -0.3531
43187W        W86099  32.178   9.877   7.645 -0.0255 -0.2559  0.3456
43188W        W86100  31.833   9.622   5.171 -0.1255 -0.2633  0.0870
43189W        W86101  30.796   7.308   3.614 -0.3531 -0.2729  0.0213
43190W        W86102  28.941   9.235   6.841 -0.4059 -0.0726 -0.2962
43191W        W86103  33.455   7.054   8.117  0.1582  0.3531  0.2051
43192W        W86104  27.061  11.725   8.323 -0.2913 -0.1158 -0.1019
43193W        W86105  31.736  11.363   3.920  0.2418  0.1929  0.1133
43194W        W86106  28.294  10.252   4.870  0.2311  0.1229 -0.0688
43195W        W86107  30.842   8.892   5.825 -0.1819 -0.4015 -0.0952
43196W        W86108  34.222   5.772   4.881  0.2614 -0.1271 -0.0847
43197W        W86109  30.267   9.373   3.189  0.1539  0.0870 -0.1749
43198W        W86110  31.256   7.534   6.175 -0.0922  0.4617 -0.0280
43199W        W86111  29.769  11.051   4.796 -0.0906 -0.0643  0.1457
43200W        W86112  30.600   9.128   6.296 -0.0813  0.1468  0.2958
43201W        W86113  30.686  11.027   7.023  0.2064 -0.0730  0.0427
43202W        W86114  27.426   7.530   4.472 -0.0351  0.0439  0.2445
43203W        W86115  33.460   8.891   3.701 -0.0726 -0.2303  0.2184
43204W        W86116  32.022   7.826   6.871  0.0988  0.0498 -0.1361
43205W        W86117  33.573   7.614   5.778 -0.0772  0.0516  0.1497
43206W        W86118  29.307   8.260   5.286  0.2619  0.1576 -0.1949
43207W        W86119  32.500   7.336   3.759 -0.0117 -0.2082  0.1296
43208W        W86120  31.897   9.167   7.006 -0.1294  0.2265 -0.2052
43209W        W86121  30.897   7.524   5.828  0.3119 -0.0434 -0.1020
43210W        W86122  31.405   9.731   4.910  0.1196  0.0341  0.3913
43211W        W86123  33.523   8.540   6.849  0.0076  0.3271 -0.0314
43212W        W86124  31.694   9.231   3.929  0.1600  0.0898  0.2631
43213W        W86125  31.863   9.461   7.813  0.0392 -0.0609  0.0985
43214W        W86126  29.294   6.939   5.714  0.0105  0.2386 -0.1060
43215W        W86127  32.258   9.277   3.684  0.1196 -0.0729  0.0326
43216W        W86128  28.727   8.359   3.454  0.0858  0.0957  0.1281
43217W        W86129  32.393   8.125   5.817  0.2032 -0.0222  0.0568
43218W        W86130  30.806  10.923   6.123 -0.1172 -0.0094  0.1442
43219W        W86131  29.001   6.636   4.792 -0.2215  0.0998 -0.0339
43220W        W86132  31.533  10.589   3.227 -0.4035 -0.0952  0.1086
43221W        W86133  31.758   7.068   6.018  0.1371  0.0744  0.0833
43222W        W86134  30.544  11.724   2.246 -0.1880  0.0879  0.1036
43223W        W86135  32.244   9.758   3.946  0.1375  0.2905 -0.1138
43224W        W86136  32.678   9.467   6.171  0.2503 -0.0521 -0.0871
43225W        W86137  29.769   7.990   5.985  0.1170  0.1110 -0.1536
43226W        W86138  32.202   9.882   7.084  0.1843 -0.0575 -0.1248
43227W        W86139  33.325  10.019   4.310  0.0414 -0.2493  0.0288
43228W        W86140  31.113   6.625   5.284 -0.0020  0.0385 -0.1358
43229W        W86141  29.623   7.185   5.259  0.0176 -0.1097 -0.0157
43230W        W86142  31.057   9.792   5.270  0.2063 -0.1071  0.1466
43231W        W86143  34.379   7.470   6.887  0.2293  0.1408 -0.2524
43232W        W86144  34.463   6.902   6.727  0.4239  0.3558 -0.3792
43233W        W86145  30.564  10.118   3.747 -0.1269 -0.1155  0.0929
43234W        W86146  32.685   7.345   5.926  0.1230 -0.1092 -0.2746
43235W        W86147  31.447   9.826   6.550 -0.1950 -0.2167 -0.0446
43236W        W86148  30.307   8.738   6.367 -0.1131  0.1599  0.1216
43237W        W86149  30.824   8.063   4.578  0.0302  0.2152  0.3054
43238W        W86150  31.337   8.716   6.642 -0.1630 -0.4267  0.3511
43239W        W86151  31.258   9.025   5.544 -0.2514 -0.1845 -0.1587
43240W        W86152  31.260  10.496   4.506  0.3351  0.1604  0.0422
43241W        W86153  32.284   7.936   5.155 -0.0481  0.2219 -0.1243
43242W        W86154  29.767   7.012   5.906 -0.1402 -0.3410  0.0147
43243W        W86155  32.215  10.799   4.375  0.1335 -0.2709  0.0105
43244W        W86156  31.054   8.001   5.771 -0.0198 -0.1347  0.0584
43245W        W86157  32.507   7.957   4.236 -0.1547 -0.0122  0.5429
43246W        W86158  31.156   7.796   3.765 -0.1810 -0.1832 -0.0941
43247W        W86159  29.907   9.564   6.976  0.2411 -0.0870 -0.1561
43248W        W86160  28.519   8.700   3.965 -0.1588  0.1148 -0.0395
43249W        W86161  29.889   9.984   3.875  0.1373  0.2194 -0.2235
43250W        W86162  29.302   9.660   6.564 -0.0357 -0.2464  0.1694
43251W        W86163  33.482   7.543   6.954  0.1335 -0.3176 -0.2476
43252W        W86164  30.564   7.932   6.594  0.0259  0.1645  0.3170
43253W        W86165  28.712   9.479   4.833  0.0588 -0.1466  0.0413
43254W        W86166  29.509   7.761   5.127  0.0929 -0.0813 -0.0378
43255W        W86167  32.308  11.195   4.750 -0.0637 -0.2055  0.0470
43256W        W86168  29.937   7.273   4.908 -0.2264 -0.1142  0.1103
43257W        W86169  28.762   7.985   4.578  0.3111  0.0159  0.1893
43258W        W86170  32.386  10.153   4.436 -0.0001 -0.0230 -0.1487
43259W        W86171  31.342  11.104   4.664  0.0700  0.2642 -0.1413
43260W        W86172  30.085   8.409   4.325 -0.0529 -0.2265  0.2722
43261W        W86173  31.581  10.427   6.481  0.0150  0.2132 -0.1191
43262W        W86174  28.291   9.267   3.433 -0.1371 -0.0637  0.0588
43263W        W86175  32.651   8.221   5.366 -0.1181  0.2749 -0.2603
43264W        W86176  31.742   7.061   7.370  0.3555 -0.0149 -0.0903
43265W        W86177  27.611   6.563   4.097 -0.0978  0.0517 -0.3337
43266W        W86178  31.242   9.332   6.235 -0.0530 -0.5349 -0.2426
43267W        W86179  31.457   9.461   5.453 -0.2822  0.0560 -0.1133
43268W        W86180  31.423  12.157   3.320 -0.0318 -0.0236  0.1520
43269W        W86181  31.692   8.752   5.677  0.5605  0.0059 -0.0952
43270W        W86182  30.779   9.394   7.866  0.0555  0.1277  0.0132
43271W        W86183  29.370   7.800   6.173 -0.1349  0.0670  0.2380
43272W        W86184  31.907   9.693   4.670 -0.0545 -0.0928  0.2246
43273W        W86185  30.781  10.181   7.119 -0.0934 -0.1217  0.0461
43274W        W86186  32.678  10.563   3.579 -0.0307 -0.4208 -0.1852
43275W        W86187  33.180   6.935   4.745 -0.1657 -0.1048 -0.0818
43276W        W86188  32.121   8.052   3.685  0.0756  0.0911  0.0908
43277W        W86189  29.452   7.973   7.575 -0.0213 -0.2418 -0.1172
43278W        W86190  30.448   9.483   8.211 -0.0014  0.1652  0.0571
43279W        W86191  32.242   9.426   4.969 -0.0282  0.1042 -0.0353
43280W        W86192  31.027   6.621   5.816  0.4767 -0.0158  0.1516
43281W        W86193  30.674   9.136   4.823  0.2142  0.3002 -0.2903
43282W        W86194  32.643   9.123   5.374  0.0703  0.1564 -0.2767
43283W        W86195  30.676   8.354   5.476 -0.1102 -0.3766  0.0230
43284W        W86196  31.825   9.167   5.461  0.2666 -0.1452  0.2292
43285W        W86197  31.915   8.068   7.327 -0.1470  0.1258  0.1233
43286W        W86198  29.983   9.088   5.400 -0.0843  0.0502 -0.6638
43287W        W86199  32.370   7.856   7.455  0.1721  0.4709 -0.1318
43288W        W86200  31.541  10.047   3.544 -0.0070  0.3098  0.0719
43289W        W86201  32.370   9.678   3.339  0.3293 -0.0541 -0.0214
43290W        W86202  31.690  11.150   6.434  0.0371  0.0556 -0.2495
43291W        W86203  31.954  10.307   7.417 -0.2356  0.0767  0.0183
43292W        W86204  31.986   9.201   6.475 -0.0734 -0.0340 -0.0959
43293W        W86205  32.050   8.910   6.040 -0.2847  0.3011  0.0378
43294W        W86206  28.583   7.472   5.411 -0.1362  0.0838  0.4209
43295W        W86207  28.988  10.088   5.474 -0.3656  0.3227 -0.3037
43296W        W86208  30.727   9.609   4.968 -0.0985  0.0730 -0.0419
43297W        W86209  30.649   7.968   6.093  0.1135 -0.1195  0.1033
43298W        W86210  29.611   7.339   4.522 -0.3042 -0.0864 -0.0169
43299W        W86211  32.674   7.562   3.277  0.0917  0.1109  0.2256
43300W        W86212  29.977   9.097   6.221 -0.0755 -0.0176  0.1540
43301W        W86213  31.168  10.075   5.777  0.1452  0.1589  0.0826
43302W        W86214  30.116  10.011  10.306 -0.0161 -0.0392 -0.0212
43303W        W86215  31.039   8.175   7.781  0.0730  0.0549 -0.4139
43304W        W86216  33.940   7.216   6.877  0.0874 -0.1491 -0.1285
43305W        W86217  32.050   8.706   9.232 -0.2355 -0.0616 -0.2110
43306W        W86218  28.950   8.596   9.232  0.2244  0.1665  0.2818
43307W        W86219  31.087   9.774   9.077  0.2621 -0.0515 -0.3579
43308W        W86220  31.131   8.252   9.377  0.0969  0.2396  0.3256
43309W        W86221  32.511  10.322   9.754  0.0293 -0.1603 -0.3666
43310W        W86222  30.893   9.831   6.795 -0.1900  0.1013 -0.3443
43311W        W86223  30.167   7.792   8.121  0.3166  0.0673  0.2608
43312W        W86224  30.428   7.768   9.590 -0.4900 -0.0246  0.0025
43313W        W86225  28.421   8.182   8.742  0.1387  0.1379 -0.2426
43314W        W86226  30.702   7.468   9.128 -0.0600  0.1882  0.0625
43315W        W86227  28.097  10.905   9.896  0.2292  0.0992 -0.3207
43316W        W86228  30.635   8.974   7.645 -0.0493  0.2211 -0.1759
43317W        W86229  31.910   7.444   7.706 -0.2783  0.2289 -0.1623
43318W        W86230  30.681  11.003   9.397 -0.2452  0.2795 -0.1735
43319W        W86231  28.662   7.651   8.824 -0.0704  0.0059 -0.3255
43320W        W86232  31.030  10.232   9.207  0.0317 -0.0719  0.0690
43321W        W86233  29.925   8.507   5.990  0.0081 -0.1198  0.2365
43322W        W86234  28.238   8.730  10.174 -0.1936 -0.1367 -0.1480
43323W        W86235  30.314   7.782   9.094 -0.0552 -0.0464  0.2156
43324W        W86236  30.589   6.509  10.757  0.1446 -0.2146 -0.1600
43325W        W86237  31.734   7.486   8.605 -0.1064 -0.2461  0.2138
43326W        W86238  31.615  10.250   9.180 -0.2677  0.0677  0.4073
43327W        W86239  31.619   9.961   9.891 -0.2340 -0.1571 -0.2192
43328W        W86240  29.956   9.642   9.893  0.2407  0.0238 -0.1955
43329W        W86241  30.221  11.825   9.865 -0.1253  0.3629  0.0028
43330W        W86242  30.866   8.648   9.503  0.0123  0.0419  0.1449
43331W        W86243  32.086   8.728   7.172  0.1313  0.2100  0.3841
43332W        W86244  30.138   9.877   7.838  0.0159  0.2251 -0.2137
43333W        W86245  31.068   7.720   9.358  0.0905 -0.0291 -0.1133
43334W        W86246  30.532   8.244   9.426 -0.1124 -0.2654  0.1243
43335W        W86247  31.047  10.677   6.966  0.0134 -0.0171  0.2725
43336W        W86248  30.646   9.572   9.550  0.1504  0.0534  0.0294
43337W        W86249  29.744   9.342   9.406  0.0798  0.0768 -0.0772
43338W        W86250  30.120   9.836   6.621  0.0433  0.3754  0.0813
43339W        W86251  33.749   7.150   8.548 -0.0793  0.2186  0.0864
43340W        W86252  32.349   7.698   6.050 -0.0669  0.2562  0.0589
43341W        W86253  32.307   7.476   7.045  0.1017 -0.1553 -0.0192
43342W        W86254  30.725   7.407   8.641 -0.0164  0.1971  0.2019
43343W        W86255  29.027  10.795  10.085 -0.2842 -0.0355 -0.3151
43344W        W86256  30.696   7.581   8.107  0.0567 -0.2751 -0.2304
43345W        W86257  33.215   8.436   8.315 -0.0132  0.0352 -0.1228
43346W        W86258  30.718   7.163   9.506 -0.1495  0.0737  0.0835
43347W        W86259  32.058  10.283   8.477  0.0219 -0.3544  0.0745
43348W        W86260  30.654   8.114   8.192 -0.2094  0.0492  0.3995
43349W        W86261  31.046   9.212   8.668 -0.0439  0.3621  0.0637
43350W        W86262  31.688  10.597   7.727 -0.3801 -0.0203 -0.1134
43351W        W86263  31.973   8.888   8.518 -0.1167  0.1258  0.0096
43352W        W86264  31.077   6.437   8.175  0.0342  0.0608  0.0219
43353W        W86265  31.142   6.610   6.768 -0.0155  0.3225 -0.0492
43354W        W86266  33.272   7.419   8.371 -0.2645 -0.3031 -0.0477
43355W        W86267  30.315   8.389   8.556 -0.1555 -0.2313 -0.2137
43356W        W86268  31.531   9.447   9.928  0.1972 -0.3091  0.1296
43357W        W86269  31.323   8.619   7.725 -0.0046  0.0604  0.2892
43358W        W86270  30.747   7.554   9.924  0.0290  0.2578  0.2075
43359W        W86271  32.879   6.901   9.551 -0.1083  0.0028 -0.1306
43360W        W86272  32.184   8.311   6.896  0.1272  0.0005  0.2908
43361W        W86273  30.757   9.884   7.898 -0.2765 -0.3067  0.0793
43362W        W86274  34.482   9.984   9.187 -0.0005 -0.3607 -0.1452
43363W        W86275  32.482   9.100   7.414  0.0078 -0.2198 -0.1984
43364W        W86276  29.759  10.427  10.442 -0.0280  0.0128  0.1945
43365W        W86277  30.429  10.713   6.729  0.1771  0.1282  0.1387
43366W        W86278  30.183   9.529  10.368 -0.1048 -0.3067  0.1138
43367W        W86279  31.448   8.248   7.279 -0.1268 -0.0672 -0.0898
43368W        W86280  30.081   7.816  10.028  0.0442  0.3380  0.1984
43369W        W86281  30.569   8.647  10.442  0.0522 -0.2447  0.3005
43370W        W86282  31.904   7.272   9.542 -0.2300  0.1070 -0.3731
43371W        W86283  32.959   7.165   8.706 -0.0229  0.0114  0.0104
43372W        W86284  30.624   9.842   9.148  0.1917 -0.0393  0.0119
43373W        W86285  31.930  11.759   9.271 -0.0774  0.2270  0.2847
43374W        W86286  33.673   6.591   8.716  0.2918 -0.0933  0.3056
43375W        W86287  31.211   9.703   7.703 -0.0172 -0.2457 -0.1190
43376W        W86288  28.356   9.670   8.887 -0.3516 -0.1993  0.0861
43377W        W86289  29.259   9.345  10.758  0.1689  0.2252 -0.1151
43378W        W86290  26.090   9.944   9.879 -0.3576 -0.0578  0.0606
43379W        W86291  30.243   7.125   7.075 -0.0848  0.2747  0.0769
43380W        W86292  32.079   7.883  10.196  0.1911  0.0012 -0.2436
43381W        W86293  30.615   8.806   9.049 -0.1515  0.0090  0.0875
43382W        W86294  29.176   9.958   7.488 -0.2306 -0.0196  0.0993
43383W        W86295  31.719   9.827   7.468  0.4671 -0.1472  0.0418
43384W        W86296  32.831   8.375  10.380 -0.0046  0.1173  0.1561
43385W        W86297  31.986  10.085   9.565 -0.2305  0.2023  0.2946
43386W        W86298  29.429   8.567  10.050  0.2835  0.0778 -0.0577
43387W        W86299  30.270   7.360   8.364  0.0475 -0.1430 -0.1084
43388W        W86300  30.582  11.050  10.554  0.1745 -0.0803 -0.4283
43389W        W86301  30.149  10.242   9.810 -0.0422 -0.0760  0.0872
43390W        W86302  31.327   6.225   7.739  0.2014 -0.0022  0.0674
43391W        W86303  31.955   9.595   9.793 -0.1561 -0.0290  0.2506
43392W        W86304  30.842  10.044   8.706  0.0181  0.3969 -0.1580
43393W        W86305  31.512   8.189  10.451  0.1629  0.3396  0.2194
43394W        W86306  32.109   7.775   8.807  0.0762  0.1973 -0.1143
43395W        W86307  29.946   7.226   9.730 -0.1706 -0.1545 -0.0973
43396W        W86308  31.504  10.508   8.211  0.1906  0.3318  0.0986
43397W        W86309  29.537  10.660   8.164 -0.0625  0.1485 -0.2262
43398W        W86310  29.905   8.682   9.795  0.0014 -0.1014  0.1441
43399W        W86311  30.893  10.612   9.725  0.0416  0.1771 -0.0069
43400W        W86312  33.455   7.604   9.359  0.0360 -0.2273  0.0587
43401W        W86313  30.289   8.262   6.269  0.0634  0.2328  0.0238
43402W        W86314  31.561   7.094   8.810 -0.0936 -0.1479  0.0637
43403W        W86315  33.718   6.495   7.359 -0.0641  0.0548  0.1104
43404W        W86316  31.516   8.953   8.342 -0.2422  0.3325  0.0852
43405W        W86317  31.836   7.623   7.242 -0.2763 -0.0511  0.2066
43406W        W86318  31.402   7.014   6.677 -0.2147 -0.3318 -0.1420
43407W        W86319  30.496   9.934   8.348  0.1997  0.1586  0.1730
43408W        W86320  30.528   9.109  10.150 -0.0257  0.0452 -0.0965
43409W        W86321  31.305   8.189   6.753  0.3876 -0.1494  0.1950
43410W        W86322  33.252   9.519   7.253 -0.3560  0.1210 -0.3627
43411W        W86323  27.908  11.078  10.344  0.0868 -0.0878  0.1628
43412W        W86324  32.480   8.870   7.835 -0.3039  0.0892 -0.2441
43413W        W86325  28.973   7.402   9.772 -0.0422 -0.0535 -0.3581
43414W        W86326  31.521   7.953   6.042 -0.0528 -0.1028 -0.1221
43415W        W86327  31.642   7.899   8.938  0.1281 -0.0709 -0.1828
43416W        W86328  28.513  10.659   8.586 -0.0633 -0.1857  0.2391
43417W        W86329  32.232   8.226   9.250 -0.0586 -0.3191  0.0027
43418W        W86330  32.800   7.656   8.765 -0.0130 -0.3651 -0.1046
43419W        W86331  32.723   8.366   8.364  0.0313 -0.0537  0.2838
43420W        W86332  31.719   8.178   9.996 -0.0247  0.0548  0.0408
43421W        W86333  31.155   8.691   8.628 -0.1035 -0.1716  0.1264
43422W        W86334  28.561   6.877   9.523 -0.2832  0.1724  0.3055
43423W        W86335  29.380   7.866   9.954 -0.1981 -0.0134  0.0522
43424W        W86336  31.525   8.438   9.096 -0.1553  0.3983  0.1592
43425W        W86337  30.777   6.201   7.727  0.3240  0.1780 -0.0968
43426W        W86338  29.672   9.386   7.437 -0.1402 -0.2001 -0.1033
43427W        W86339  31.797   8.650   8.027  0.1179  0.0433  0.1454
43428W        W86340  30.328   7.091   8.823 -0.2859 -0.0213  0.2090
43429W        W86341  30.998   9.471   9.911 -0.1348 -0.0036 -0.1132
43430W        W86342  30.711   8.896   6.720 -0.0386  0.1073  0.1519
43431W        W86343  31.963  10.734   8.334  0.0394  0.0102 -0.2106
43432W        W86344  31.069  10.284   7.783  0.3488  0.1511 -0.3373
43433W        W86345  30.852   7.371  10.380 -0.1576 -0.2442 -0.2071
43434W        W86346  31.602  11.786  10.007  0.1129  0.1723 -0.0300
43435W        W86347  31.713   8.457   6.941  0.0094 -0.2487 -0.3225
43436W        W86348  29.705   8.517   8.642 -0.0512 -0.2522 -0.0125
43437W        W86349  32.576   7.741   9.277  0.0972  0.0485 -0.2984
43438W        W86350  32.135   7.175   8.039 -0.0308 -0.1901  0.0377
43439W        W86351  29.155   7.759   8.777 -0.0256  0.0324  0.3107
43440W        W86352  30.212   8.264   8.995 -0.2686 -0.1239 -0.0256
43441W        W86353  26.959  11.276  10.183 -0.0063  0.5202  0.0675
43442W        W86354  32.740   8.654   7.402 -0.1958  0.0616  0.1683
43443W        W86355  30.440   7.802   7.694  0.1386 -0.2686  0.2211
43444W        W86356  30.905   6.906   9.885 -0.3054 -0.0411  0.1334
43445W        W86357  31.710   7.988   8.443  0.2789  0.3561 -0.1031
43446W        W86358  29.818  10.194   8.095  0.2119 -0.0733 -0.1146
43447W        W86359  31.987   8.332  10.441 -0.0218 -0.5097 -0.2644
43448W        W86360  31.178   7.446   8.080 -0.1416 -0.2010  0.1584
43449W        W86361  30.431   9.559   8.733  0.0132  0.0622 -0.0417
43450W        W86362  31.669   8.904   8.958  0.2777  0.0081 -0.2326
43451W        W86363  31.088   7.131   9.132  0.0468  0.3739  0.0908
43452W        W86364  30.987   7.653   7.655 -0.5342  0.1313 -0.0238
43453W        W86365  31.099   8.448   8.211  0.0213 -0.0230 -0.1117
43454W        W86366   0.806   7.512  10.038  0.1208 -0.0578 -0.1464
43455W        W86367  30.189   9.223   9.052  0.0896  0.0913  0.1539
43456W        W86368  29.257   8.156   9.111  0.2878 -0.0706 -0.2865
43457W        W86369  30.987  11.028   8.725  0.0647  0.0028 -0.1251
43458W        W86370  31.098   7.926   8.297 -0.1921 -0.0242  0.0759
43459W        W86371  28.460  10.122   8.586 -0.0390  0.0008 -0.3916
43460W        W86372  29.563   9.480   8.275  0.0686  0.1901  0.0040
43461W        W86373  31.230   7.589  10.070  0.1945  0.1044 -0.0088
43462W        W86374  31.713   8.537  10.807 -0.0050  0.1263 -0.1949
43463W        W86375  31.115   9.089   7.606  0.2017  0.0285  0.1213
43464W        W86376  28.546   9.345   9.261  0.0881  0.1398  0.2925
43465W        W86377  33.818   7.786   8.564  0.3344 -0.1061  0.0521
43466W        W86378  30.877   9.591   8.352  0.1237 -0.1965  0.0411
43467W        W86379  31.804   8.511   7.542  0.2610 -0.3078  0.0259
43468W        W86380  33.025   8.005   8.061  0.0255 -0.1070  0.0195
43469W        W86381  31.246   6.675   8.954  0.2475  0.0158 -0.0919
43470W        W86382  32.298   8.990   8.918  0.2073  0.0135 -0.1545
43471W        W86383  31.196   6.841   7.891 -0.1490 -0.1265 -0.1247
43472W        W86384  31.379   7.292   7.665  0.0207 -0.0115  0.1573
43473W        W86385  31.334   8.489   9.770  0.0055 -0.1120  0.2116
43474W        W86386  32.462   9.577   8.928 -0.2607  0.1408 -0.0516
43475W        W86387  31.104   8.973   8.133  0.2859 -0.2325 -0.0401
43476W        W86388  31.949   8.300   8.829 -0.1317  0.2205  0.2718
43477W        W86389  32.474  11.099  10.428  0.0706 -0.1107  0.4456
43478W        W86390  30.864   7.813   8.885  0.1428  0.5365  0.5022
43479W        W86391  31.998   7.165   9.050 -0.0658 -0.2004 -0.0323
43480W        W86392  30.064   9.263   8.574 -0.0755 -0.0267 -0.1206
43481W        W86393  31.434   9.343   9.052  0.2576 -0.0738 -0.1364
43482W        W86394  33.187   8.440   9.301  0.0476  0.1329 -0.3728
43483W        W86395  31.782  10.813  10.053  0.0552  0.3920 -0.0798
43484W        W86396  32.790   7.625   7.012  0.1935 -0.0088  0.3860
43485W        W86397  32.598   8.415   9.913  0.1077  0.1236  0.0822
43486W        W86398  32.605   8.205   8.931 -0.1654 -0.2849 -0.1886
43487W        W86399  33.039   7.888   6.663  0.1383  0.0297 -0.1487
43488W        W86400  30.136   8.478  10.201 -0.1359  0.0172  0.1191
43489W        W86401  30.716   7.813   7.083 -0.1880 -0.2962 -0.1685
43490W        W86402  29.967   9.368   8.002 -0.0460 -0.2570 -0.0032
43491W        W86403  30.697   9.075   9.630 -0.1944  0.0060 -0.1929
43492W        W86404  33.311   6.828   8.912  0.0326 -0.1178 -0.0608
43493W        W86405  28.865   7.883  10.002  0.4067 -0.2047 -0.2551
43494W        W86406  30.678   6.771   9.149  0.0084  0.1620 -0.1170
43495W        W86407  30.859   8.717   7.294  0.1072 -0.2086  0.0997
43496W        W86408  30.746   9.282   9.073 -0.3607 -0.1417 -0.0296
43497W        W86409  32.226   5.820   7.752  0.0328 -0.2223  0.2338
43498W        W86410  28.750   9.676   7.798  0.2051  0.0819 -0.2309
43499W        W86411  29.152   7.512  10.230 -0.1150  0.2246  0.0517
43500W        W86412  29.896  11.159  10.549 -0.0850 -0.1159 -0.1091
43501W        W86413  31.149   9.900   9.687  0.1713 -0.2610 -0.0243
43502W        W86414  29.952   6.699   9.902 -0.0748 -0.1110 -0.0570
43503W        W86415  32.989   7.634   9.623 -0.2596  0.1473 -0.1790
43504W        W86416  31.639   8.488   8.513 -0.2846 -0.1019 -0.0449
43505W        W86417  30.184   8.772   9.358  0.0785 -0.3726  0.1205
43506W        W86418  32.781   9.285   8.082  0.1110  0.0087 -0.0211
43507W        W86419  30.844  11.147   9.813 -0.0450 -0.1308 -0.3198
43508W        W86420  32.747   8.203   9.519 -0.0332 -0.3647  0.2112
43509W        W86421  30.701   6.704   7.922  0.1612 -0.5447  0.0107
43510W        W86422  31.149   9.130   7.111 -0.3147  0.0080  0.3282
43511W        W86423  28.595   8.452  10.048  0.0603  0.0647  0.0055
43512W        W86424  30.258  10.067   8.791 -0.1985  0.1536  0.2364
43513W        W86425  32.108   9.467   7.337  0.0585  0.3262 -0.2027
43514W        W86426  32.123   9.104   8.060 -0.0543 -0.2734 -0.0703
43515W        W86427  32.325   8.554   8.609 -0.1355 -0.0043  0.1201
43516W        W86428  32.469   7.569   7.818  0.1241 -0.1562 -0.0389
43517W        W86429  29.131   9.308   9.803 -0.0690 -0.2418 -0.0177
43518W        W86430  29.164  10.179   8.789  0.2337 -0.1420  0.1185
43519W        W86431  31.682  11.019   9.619 -0.1774  0.1615 -0.2400
43520W        W86432  30.156  10.352   8.418  0.0871  0.2703 -0.1584
43521W        W86433  33.074   6.813   7.845 -0.2278 -0.1494  0.3809
43522W        W86434  31.215   8.192   8.710 -0.0994  0.2844  0.2325
43523W        W86435  34.099   8.123   9.145 -0.0993 -0.0630 -0.2365
43524W        W86436  29.820   9.654  10.663 -0.1094  0.1011 -0.1452
43525W        W86437  30.335   6.825   7.546 -0.1561 -0.2470  0.2002
43526W        W86438  31.182  10.068   7.398 -0.0770 -0.0278 -0.1919
43527W        W86439  28.886   9.359   8.190  0.1317  0.1377  0.1581
43528W        W86440  31.297   8.895   9.316 -0.0717  0.2129  0.0084
43529W        W86441  33.513   8.551  10.358 -0.1405  0.2568 -0.0304
43530W        W86442  30.318   8.552   7.520  0.0721 -0.0400 -0.0215
43531W        W86443  30.460   7.690  10.378 -0.0735  0.0042  0.0154
43532W        W86444  29.228  10.090   9.348 -0.0398  0.2484  0.1422
43533W        W86445  30.599  10.365  10.018  0.3690 -0.0446 -0.0613
43534W        W86446  30.341  11.167  10.175  0.1600 -0.0153 -0.1586
43535W        W86447  28.734   7.902   8.392 -0.1461 -0.2245 -0.2005
43536W        W86448  33.836   7.838   9.532  0.0910  0.3392 -0.0432
43537W        W86449  29.578   6.278  10.096 -0.5229 -0.1825 -0.0731
43538W        W86450  30.533   9.110   8.631  0.1976  0.2935  0.2071
43539W        W86451  31.805   8.300   9.499  0.0356  0.0197 -0.1504
43540W        W86452  29.168   9.866  10.107  0.0446 -0.0169  0.0557
43541W        W86453  29.951   8.006   8.535  0.2149 -0.2542 -0.1344
43542W        W86454  32.488   7.855   6.708 -0.2005 -0.0912 -0.0045
43543W        W86455  32.613   7.107   7.907  0.1699  0.2809 -0.2570
43544W        W86456  30.025   7.486   8.749  0.0966  0.1095 -0.6323
43545W        W86457  30.785   6.658   7.444 -0.1771 -0.2081  0.0886
43546W        W86458  30.608   8.952   8.145 -0.0799 -0.2405  0.1283
43547W        W86459  29.662   7.886   8.914  0.0716 -0.1035  0.2239
43548W        W86460  29.113   8.363   8.170 -0.1085 -0.1746 -0.0694
43549W        W86461  30.454   9.635   6.950  0.2410 -0.0095  0.0489
43550W        W86462  30.719   9.458  10.466 -0.0905 -0.0406  0.0766
43551W        W86463  29.861  11.066   8.025  0.2105  0.3880 -0.1021
43552W        W86464  33.255   9.407   8.369 -0.0981  0.1300 -0.3374
43553W        W86465  33.176  11.004  10.135  0.0196 -0.0328  0.4526
43554W        W86466  28.865   9.786   9.750  0.3218  0.1367  0.3057
43555W        W86467  31.619   9.700   9.424 -0.1416  0.1078  0.0138
43556W        W86468  31.753   9.785   8.955  0.1655 -0.0312 -0.3424
43557W        W86469  32.510   7.238   8.428 -0.2838  0.0095 -0.1110
43558W        W86470  30.389   7.811   8.571 -0.3425 -0.3158 -0.2314
43559W        W86471  29.895   9.665   8.840 -0.1204 -0.0661 -0.0897
43560W        W86472  33.740   7.396   9.844 -0.0001  0.0727 -0.5161
43561W        W86473  30.752  11.260   8.203 -0.0362  0.0582 -0.2001
43562W        W86474  30.971   8.321  10.259  0.2978 -0.0410  0.1286
43563W        W86475  29.667   7.523   8.214  0.2977 -0.1004  0.0764
43564W        W86476  32.124  14.339  10.889  0.0215 -0.0878  0.0312
43565W        W86477  30.579  10.357   8.162  0.0931  0.1917 -0.1104
43566W        W86478  30.731  10.007  10.475  0.0027  0.0940 -0.0194
43567W        W86479  31.473   7.802   7.551  0.3110 -0.1051 -0.1213
43568W        W86480  32.278   7.571   9.722  0.1700 -0.0712  0.1975
43569W        W86481  30.937   5.868   8.034  0.1358 -0.0583 -0.0753
43570W        W86482  33.320   6.049   8.143  0.0049 -0.0137  0.1432
43571W        W86483  32.135   7.676   8.215 -0.0150 -0.0433  0.0547
43572W        W86484  30.876   8.048   9.798 -0.0192 -0.0190 -0.0822
43573W        W86485  29.590   7.997   8.041 -0.3291  0.0871  0.0285
43574W        W86486  30.020   9.769   8.356  0.0954  0.0091 -0.3756
43575W        W86487  27.375  10.821  10.132 -0.4624  0.0518 -0.0855
43576W        W86488  30.094   8.762   8.835 -0.3334  0.1385  0.3199
43577W        W86489  31.058   5.857   7.480 -0.2543 -0.1473  0.1266
43578W        W86490  31.361   9.718   7.028 -0.2928  0.3384  0.1511
43579W        W86491  29.366   8.354   9.548  0.0237  0.0731 -0.2085
43580W        W86492  28.387   7.633   8.102  0.3074 -0.1110  0.1437
43581W        W86493  31.294   9.689   8.624 -0.2613  0.0306  0.1970
43582W        W86494  31.677   9.960   8.426 -0.0333 -0.0441 -0.2955
43583W        W86495  31.401   7.771   7.073 -0.0028  0.0925  0.1118
43584W        W86496  30.039  10.372   7.572 -0.1399  0.0858  0.0754
43585W        W86497  29.730   8.342   9.118 -0.1408  0.1189 -0.0118
43586W        W86498  30.714   8.265   8.950 -0.0115  0.0265  0.1337
43587W        W86499  33.776   7.472   8.146 -0.0789  0.1397 -0.0314
43588W        W86500  32.618   9.973   6.886  0.0620 -0.1263  0.0739
43589W        W86501  28.192   8.099   8.172 -0.1833  0.1298 -0.3995
43590W        W86502  31.589   8.174   7.973 -0.3358 -0.2607  0.2137
43591W        W86503  32.359   9.416   7.788  0.3156 -0.1874 -0.3504
43592W        W86504  34.350   5.682   9.359 -0.2177  0.1117  0.2947
43593W        W86505  32.810   7.552   8.219 -0.1312  0.1476 -0.0202
43594W        W86506  31.725   8.889  10.105  0.1713  0.2160 -0.5888
43595W        W86507  32.031   6.665   7.894  0.0466 -0.1325  0.1327
43596W        W86508  31.659   7.674   8.084 -0.1515 -0.2284  0.2058
43597W        W86509  31.018  10.464   8.489 -0.0660 -0.1229  0.0416
43598W        W86510  29.428   9.683   9.624 -0.1334 -0.0208 -0.1998
43599W        W86511  33.941   8.528  10.012 -0.1077 -0.2000 -0.1249
43600W        W86512  31.580  10.365  10.264  0.0831  0.2107  0.0133
43601W        W86513  32.885   7.708   7.510  0.2459  0.2039  0.1125
43602W        W86514  33.373   9.509   6.688 -0.0303  0.1864 -0.0335
43603W        W86515  29.189  12.631  10.647 -0.1158  0.1509 -0.1371
43604W        W86516  28.858  13.657  10.147 -0.0517 -0.0940 -0.0444
43605W        W86517  31.935   9.198   9.344  0.0128 -0.0544 -0.5045
43606W        W86518  29.834   7.108   9.020  0.0214 -0.0954 -0.1015
43607W        W86519  30.731   8.556   7.881  0.1420 -0.1674 -0.1425
43608W        W86520  31.354  10.224   8.750  0.3200 -0.5827  0.2241
43609W        W86521  31.553   7.472   9.204  0.0011 -0.0041 -0.0014
43610W        W86522  30.707   8.607   8.458 -0.1985 -0.0622  0.2390
43611W        W86523  32.216   7.002   7.569 -0.1198  0.0616 -0.4364
43612W        W86524  30.222  11.718  10.409  0.0630  0.0585  0.0842
43613W        W86525  32.634  10.542   9.331 -0.0433  0.1330  0.0109
43614W        W86526  29.391  14.811   3.838  0.2868  0.2733 -0.1998
43615W        W86527  30.407  12.499   0.388 -0.2744 -0.1659 -0.1053
43616W        W86528  32.346  12.411  30.960 -0.0178  0.0819  0.2073
43617W        W86529  31.912  13.457   1.076  0.1793  0.4468  0.0340
43618W        W86530  29.783  12.105   1.464  0.5165  0.2916 -0.3208
43619W        W86531  31.862  14.841   0.688 -0.0306  0.0385  0.0112
43620W        W86532  29.433  11.923   3.963 -0.0481 -0.4980  0.0471
43621W        W86533  31.564  13.561   2.071  0.1382 -0.1868  0.4002
43622W        W86534  32.627  14.011   1.005  0.0046  0.2237 -0.1503
43623W        W86535  32.251  12.462  30.276  0.2102 -0.0244  0.1490
43624W        W86536  30.312  12.906   2.733  0.2160 -0.2798  0.1318
43625W        W86537  30.479  14.960   3.532  0.1471 -0.2350  0.0018
43626W        W86538  31.951  10.727   1.481 -0.0400  0.0791  0.0146
43627W        W86539  30.076  11.748   2.009  0.0686 -0.0893  0.1539
43628W        W86540  30.525  12.648   1.793  0.0336  0.0182  0.1674
43629W        W86541  30.296  13.884   0.087  0.3640 -0.1756 -0.5786
43630W        W86542  30.660  11.655   3.369  0.1268 -0.1586 -0.1775
43631W        W86543  31.427  11.478   0.623  0.0778 -0.0815  0.0477
43632W        W86544  31.746  13.393   0.040 -0.0768 -0.0606  0.0280
43633W        W86545  31.264  12.142   2.594 -0.0331  0.0435  0.2272
43634W        W86546  32.074  11.836   2.963  0.2544 -0.0746  0.1742
43635W        W86547  31.142  13.603  31.860  0.3300  0.0193 -0.4623
43636W        W86548  30.135  12.397   0.816 -0.0755 -0.0301 -0.0497
43637W        W86549  29.255  13.343   2.292 -0.0411  0.2352 -0.0814
43638W        W86550  30.394  13.307   3.889  0.2176 -0.3312 -0.1264
43639W        W86551  32.713  10.847   1.293 -0.4484 -0.0262  0.0470
43640W        W86552  31.861  12.188   0.418 -0.0551 -0.2276  0.2523
43641W        W86553  31.128  15.344   1.718  0.0662  0.3632 -0.0671
43642W        W86554  31.780  14.029   2.126 -0.3303  0.1464  0.2412
43643W        W86555  32.433  12.681   3.422 -0.0459 -0.1287 -0.1325
43644W        W86556  29.679  12.957   1.567 -0.0111  0.0125  0.1769
43645W        W86557  29.300  13.648   1.765  0.0345 -0.1707 -0.0438
43646W        W86558  31.397  14.111   0.656  0.3386  0.1478 -0.1538
43647W        W86559  32.758  14.270   0.572  0.2364 -0.1771  0.2534
43648W        W86560  31.910  15.495   2.764 -0.3331 -0.0461 -0.1276
43649W        W86561  29.420  14.500   3.445  0.1681  0.1888  0.0467
43650W        W86562  28.685  14.403  31.738  0.0356 -0.2161 -0.2276
43651W        W86563  30.834  16.078   2.475  0.1014  0.1072  0.1085
43652W        W86564  29.603  15.547   3.914 -0.1192 -0.1209  0.3814
43653W        W86565  31.453  13.510   2.625  0.0182  0.1656  0.1890
43654W        W86566  31.563  12.203  31.718  0.1891 -0.4507  0.0131
43655W        W86567  30.539  14.987   0.473  0.0013 -0.1201 -0.0830
43656W        W86568  31.140  13.302   1.814  0.1717  0.0326  0.0474
43657W        W86569  31.142  11.309   3.663  0.6136  0.3330 -0.1053
43658W        W86570  28.492  15.086   3.173  0.0557 -0.3547  0.1817
43659W        W86571  33.471  11.988   4.142 -0.0561  0.4199 -0.2469
43660W        W86572  30.422  14.581  31.932  0.1057  0.1071 -0.1132
43661W        W86573  32.302  12.479   1.955 -0.0788  0.1085  0.0904
43662W        W86574  30.387  12.107  31.337  0.0121  0.2091  0.1124
43663W        W86575  32.765  10.981   0.329  0.1047 -0.2679 -0.2405
43664W        W86576  30.856  12.389   1.532  0.2638 -0.0185 -0.2310
43665W        W86577  30.839  15.124   2.592  0.2252 -0.0119  0.1359
43666W        W86578  30.246  13.502   3.313  0.2247  0.0048  0.0763
43667W        W86579  32.121  13.276   3.022 -0.2238 -0.0405 -0.0534
43668W        W86580  30.997  12.154  31.831  0.0177  0.1823  0.1232
43669W        W86581  30.710  12.044   2.586 -0.4043  0.0631 -0.0939
43670W        W86582  30.003  14.407   2.441  0.1155  0.2185  0.1563
43671W        W86583  29.600  12.626   0.701 -0.0196 -0.0595 -0.0627
43672W        W86584  32.152  13.973   0.695  0.0018  0.1104 -0.0341
43673W        W86585  32.907  14.754   1.534 -0.2891  0.2348  0.0496
43674W        W86586  32.117  12.860   0.797  0.2776 -0.2582  0.1600
43675W        W86587  31.357  11.882   1.220  0.5682 -0.0326  0.1881
43676W        W86588  29.695  12.714   4.122 -0.4709  0.1614  0.3661
43677W        W86589  30.603  12.741   2.404 -0.0233  0.1969 -0.2892
43678W        W86590  31.401  12.000   0.676 -0.2527 -0.0808  0.0918
43679W        W86591  33.109  13.574   2.626 -0.0838 -0.2912  0.1750
43680W        W86592  29.688  14.759   1.948  0.0121  0.1830 -0.0215
43681W        W86593  33.017  12.852   1.623  0.0506  0.2439 -0.0682
43682W        W86594  32.030  13.175   1.897  0.1782 -0.0414 -0.1116
43683W        W86595  32.774  13.984   2.008  0.0114  0.0104 -0.2608
43684W        W86596  31.568  12.963  29.980 -0.1838  0.1237 -0.1742
43685W        W86597  31.028  11.026   1.358  0.0017  0.1434  0.1929
43686W        W86598  31.385  11.702   3.750 -0.0010  0.0269  0.0469
43687W        W86599  30.740  12.167   0.311 -0.0972 -0.0292  0.0818
43688W        W86600  31.197  13.897  31.440 -0.1402 -0.1878  0.1865
43689W        W86601  32.021  12.765   2.263  0.1326  0.2527  0.1153
43690W        W86602  32.867  12.422   0.243 -0.0921  0.2560  0.1783
43691W        W86603  30.838  15.769   2.037  0.3118  0.0347 -0.1284
43692W        W86604  29.501  12.067   3.216 -0.0196 -0.1127 -0.1004
43693W        W86605  30.624  12.820   3.888 -0.0517 -0.0080 -0.0046
43694W        W86606  30.149  15.155   0.762  0.0057 -0.1015 -0.0702
43695W        W86607  28.757  14.111   2.727  0.3198 -0.0583 -0.3295
43696W        W86608  28.713  14.614   0.533  0.3077 -0.0113  0.1215
43697W        W86609  29.475  10.897   0.745  0.0734 -0.1133 -0.2741
43698W        W86610  30.580  13.659   2.027 -0.0586 -0.0309 -0.2634
43699W        W86611  33.261   9.853   0.946 -0.1040 -0.3391 -0.0932
43700W        W86612  29.513  11.175   3.211 -0.1638 -0.1074  0.0492
43701W        W86613  32.290  12.370   2.423  0.1075 -0.2430 -0.3064
43702W        W86614  30.289  13.347   0.323 -0.0038 -0.0709  0.2666
43703W        W86615  32.400  15.779   1.239 -0.1795  0.0886  0.1764
43704W        W86616  33.279  11.118   0.476 -0.0704  0.1229 -0.1596
43705W        W86617  31.825  15.210  31.302  0.2510  0.0182 -0.0328
43706W        W86618  29.741  12.122   2.253  0.1503 -0.3816 -0.1928
43707W        W86619  28.904  13.993   1.643  0.2116 -0.0822  0.1689
43708W        W86620  30.661  11.621   4.930  0.2193  0.0331 -0.0498
43709W        W86621  29.605  10.932   2.211  0.1155 -0.0623 -0.0038
43710W        W86622  30.987  12.569   2.698 -0.2100 -0.1565  0.1626
43711W        W86623  29.806  10.338   2.002 -0.2109  0.0620 -0.0923
43712W        W86624  33.406  10.310   1.119  0.1499 -0.0971 -0.0400
43713W        W86625  29.145  13.257   0.688  0.0065  0.0292  0.1814
43714W        W86626  29.712  13.637   1.464  0.0943 -0.2118 -0.2201
43715W        W86627  32.201  10.601   3.573  0.2162  0.0668  0.2250
43716W        W86628  30.788  15.164   0.903  0.1214  0.0794 -0.0563
43717W        W86629  32.637  14.743   3.314  0.0095  0.1699  0.0188
43718W        W86630  32.341  14.542   0.635  0.0772  0.1627  0.0764
43719W        W86631  29.977  11.352   3.457  0.2124  0.3294 -0.2335
43720W        W86632  27.729  13.604   1.227 -0.0665  0.0020 -0.1258
43721W        W86633  31.045  14.130   0.024  0.2358 -0.1327  0.2414
43722W        W86634  30.316  14.382   0.381  0.0465  0.0701  0.0686
43723W        W86635  30.826  11.855   1.238  0.3807 -0.2142  0.0291
43724W        W86636  32.947  15.098   2.075  0.0440  0.3845 -0.2092
43725W        W86637  31.407  12.270   0.255 -0.1998  0.2161 -0.2173
43726W        W86638  29.790  13.053   2.694  0.1923 -0.1342  0.0655
43727W        W86639  30.857  11.480   4.447 -0.1995 -0.1643  0.0546
43728W        W86640  32.428  13.185   2.291 -0.0266 -0.0403 -0.0661
43729W        W86641  31.004  12.748   1.825  0.2384  0.0022  0.0564
43730W        W86642  29.620  12.729  30.903  0.1078 -0.1650 -0.3801
43731W        W86643  31.287  14.433   2.151 -0.0359 -0.0534  0.0822
43732W        W86644  29.847  13.932   1.898 -0.1265  0.1248 -0.1442
43733W        W86645  27.232  13.901   2.541  0.0576  0.0154 -0.0503
43734W        W86646  31.363  12.745   0.945 -0.0191  0.3569  0.0027
43735W        W86647  31.948  10.865   0.978  0.1185  0.0457  0.2355
43736W        W86648  29.945  11.811   3.087 -0.3532 -0.3369 -0.0717
43737W        W86649  31.560  12.684   3.449  0.1714  0.2212  0.0003
43738W        W86650  28.448  13.399   0.816  0.1656  0.0562  0.2686
43739W        W86651  30.940  14.005   2.931  0.4915 -0.1038  0.0675
43740W        W86652  32.446   9.512   0.841  0.0895 -0.0450  0.0793
43741W        W86653  33.217  11.264   1.549 -0.1892  0.0675  0.0242
43742W        W86654  31.273  11.609   3.165  0.1106  0.1422 -0.0041
43743W        W86655  32.505  12.824   1.580  0.0067  0.0269 -0.0202
43744W        W86656  32.533  11.430   0.191 -0.0170 -0.1764 -0.0997
43745W        W86657  31.124  11.681  31.068 -0.0909 -0.0429  0.1287
43746W        W86658  29.538  13.006   3.645 -0.0751  0.1640  0.1628
43747W        W86659  31.935  12.965   0.348  0.1478 -0.2195  0.0018
43748W        W86660  29.989  13.247   0.690 -0.2050 -0.3845 -0.0773
43749W        W86661  30.681  10.465  30.036  0.0236 -0.0766 -0.1455
43750W        W86662  31.770  14.089   1.635  0.0292  0.2022  0.2915
43751W        W86663  30.083  13.520   2.824  0.0331  0.5837 -0.1094
43752W        W86664  32.349  13.842   1.790  0.3637  0.0490 -0.0328
43753W        W86665  33.106  13.904   0.717  0.0299 -0.1664 -0.0823
43754W        W86666  31.257  12.061   4.095 -0.0050 -0.4692  0.0847
43755W        W86667  31.002  11.856  30.629 -0.0676  0.3745  0.2801
43756W        W86668  32.015  10.361   0.784  0.3578  0.1312  0.1051
43757W        W86669  28.766  15.451   1.163  0.3719  0.1358  0.3795
43758W        W86670  31.254  10.379   1.462 -0.0678 -0.0743  0.0605
43759W        W86671  32.174  12.353   0.767  0.0630  0.3837 -0.2450
43760W        W86672  31.911  11.091   3.509  0.0606 -0.0625  0.1139
43761W        W86673  33.255  13.140   2.919 -0.0561 -0.0963 -0.0593
43762W        W86674  32.806  12.680   1.152 -0.0537 -0.4443 -0.2393
43763W        W86675  31.056  12.950   2.297 -0.2338  0.0630  0.0113
43764W        W86676  29.848  12.256   0.418 -0.0751  0.1150 -0.0143
43765W        W86677  30.923  11.141   3.255  0.3089  0.1695  0.1889
43766W        W86678  29.897  13.056   3.202  0.2684  0.2505  0.3025
43767W        W86679  29.073  15.367   3.654  0.2812 -0.3160 -0.2457
43768W        W86680  31.601  13.335   3.069  0.1581 -0.1500  0.0610
43769W        W86681  31.467  12.643   1.904  0.0754 -0.0011 -0.1694
43770W        W86682  30.761  11.068   4.126 -0.1223 -0.0090 -0.0644
43771W        W86683  30.954  11.860   0.669 -0.2012 -0.1199  0.0155
43772W        W86684  30.722  14.075   1.193  0.1189  0.1629 -0.0498
43773W        W86685  30.110  14.629   0.735  0.0615  0.0255 -0.0672
43774W        W86686  29.865  11.655   2.559  0.0921 -0.0971  0.2809
43775W        W86687  32.183  13.817   2.643  0.1830 -0.1039  0.0193
43776W        W86688  29.278  15.279  31.617 -0.3981 -0.0527 -0.0765
43777W        W86689  31.901  12.652   1.655 -0.0011  0.1182 -0.4053
43778W        W86690  28.949  14.562   2.511  0.1275  0.3168 -0.1321
43779W        W86691  32.316  11.528   1.739 -0.1264  0.1460 -0.2051
43780W        W86692  29.658  15.058   3.436  0.3215  0.0600 -0.3504
43781W        W86693  31.794  11.449  31.763  0.1036 -0.0660 -0.4481
43782W        W86694  29.415  14.395   1.068  0.0228  0.0887  0.0695
43783W        W86695  32.375  10.041   0.919 -0.1247  0.1571 -0.2583
43784W        W86696  30.624  13.709  31.741 -0.0407 -0.1481  0.2019
43785W        W86697  29.557  11.259   1.855 -0.0551 -0.1171 -0.1757
43786W        W86698  30.584  10.795   3.448  0.2446 -0.2165 -0.2164
43787W        W86699  28.307  15.333   2.409  0.0733 -0.1775  0.0513
43788W        W86700  30.629  13.157   2.174 -0.0517  0.2954  0.0856
43789W        W86701  32.194  11.329   1.167 -0.2042  0.0471 -0.2867
43790W        W86702  31.356  13.498   1.168  0.1259 -0.0829 -0.0078
43791W        W86703  31.216  13.045   2.909 -0.1876 -0.1231 -0.1587
43792W        W86704  30.369  11.231   0.023 -0.2201 -0.2141  0.2605
43793W        W86705  31.577  11.698   2.427  0.1841 -0.2092 -0.1164
43794W        W86706  31.077  13.095   1.349  0.0527  0.2303 -0.0202
43795W        W86707  28.847  13.558   1.356  0.1490  0.0151 -0.0333
43796W        W86708  31.176  14.160   1.631 -0.0551  0.1683 -0.3048
43797W        W86709  30.220  12.065   0.216 -0.1510 -0.0195  0.0855
43798W        W86710  30.716  13.540   1.150 -0.1833  0.2380 -0.0035
43799W        W86711  29.673  11.771   3.562 -0.1989  0.1866 -0.2770
43800W        W86712  32.627  13.690   2.344  0.0674  0.0484 -0.1660
43801W        W86713  31.143  11.666   2.631 -0.1657 -0.3068 -0.3710
43802W        W86714  31.089  12.509   0.617 -0.0767 -0.1598  0.2291
43803W        W86715  31.607  12.318   0.973 -0.2573 -0.0499  0.0071
43804W        W86716  30.665  13.213   1.637  0.0199 -0.0665 -0.0380
43805W        W86717  31.730  11.675   3.405  0.0124 -0.0998 -0.0082
43806W        W86718  29.716  13.995   4.235  0.0972 -0.2933 -0.0905
43807W        W86719  30.677  10.900   2.874  0.2044 -0.0632  0.0569
43808W        W86720  32.905  13.753   0.228 -0.1130 -0.0967  0.0547
43809W        W86721  31.486  12.548   2.919 -0.0552 -0.1132 -0.0216
43810W        W86722  31.222  14.000   1.175  0.0665 -0.0930 -0.1643
43811W        W86723  29.782  13.962   2.541 -0.0805  0.1776 -0.1363
43812W        W86724  30.246  13.602   1.008 -0.0735 -0.1114 -0.1121
43813W        W86725  31.098  12.251   1.047 -0.2753 -0.2985 -0.0281
43814W        W86726  29.884  14.872   2.436  0.3070  0.0991 -0.0019
43815W        W86727  30.241  13.311  31.138 -0.0583 -0.1319  0.0153
43816W        W86728  30.314  14.533   3.213  0.0307  0.0038 -0.1503
43817W        W86729  32.952   9.555   1.152  0.1470  0.2190 -0.0234
43818W        W86730  31.757  12.235  31.181 -0.0741  0.2042 -0.2086
43819W        W86731  31.426  11.298   1.719  0.0837  0.0186 -0.1456
43820W        W86732  34.045  12.230   2.299  0.2698  0.1687  0.3149
43821W        W86733  32.156  14.061   1.305  0.0813  0.1649 -0.1396
43822W        W86734  31.691  10.863   2.832  0.3810  0.1202  0.0190
43823W        W86735  30.349  10.432   2.957 -0.0421  0.5022  0.1060
43824W        W86736  32.365  13.595   1.245 -0.2234  0.0951 -0.1865
43825W        W86737  29.469  11.422   2.363 -0.1895  0.2800  0.1055
43826W        W86738  32.033  13.636   4.776  0.1468  0.0146  0.0363
43827W        W86739  30.629  12.403   3.347  0.0493 -0.1759  0.3523
43828W        W86740  31.903  11.877  31.558 -0.3438  0.0511 -0.0199
43829W        W86741  30.524  13.104   1.162 -0.1163 -0.2014  0.0095
43830W        W86742  30.199  12.946   1.506 -0.1121 -0.2530  0.2211
43831W        W86743  32.291  13.319   0.179 -0.0688  0.0047 -0.3409
43832W        W86744  30.810  14.592   0.336 -0.2152 -0.1295  0.2189
43833W        W86745  31.612  11.270   1.059 -0.2714  0.0111 -0.1544
43834W        W86746  29.778  13.506   2.302  0.0436 -0.1133 -0.2224
43835W        W86747  31.817  12.701   1.201  0.2417  0.1789  0.0084
43836W        W86748  32.142  13.095   1.314  0.0732  0.0350  0.1890
43837W        W86749  30.572  13.318   0.730 -0.4103 -0.0566 -0.1137
43838W        W86750  29.600  11.082   2.677 -0.1211 -0.0875 -0.2150
43839W        W86751  33.155  12.712   2.646 -0.0812  0.2276 -0.0959
43840W        W86752  32.718  10.873   1.968 -0.2190 -0.1373  0.1855
43841W        W86753  31.554  13.089   2.307  0.0374 -0.1057 -0.0451
43842W        W86754  31.028  12.385   2.216 -0.1940 -0.4877 -0.0170
43843W        W86755  30.961  11.649   4.000 -0.0568  0.1221  0.1554
43844W        W86756  28.979  11.677   4.555  0.1894 -0.2308 -0.4194
43845W        W86757  31.729  14.552   1.491 -0.0654 -0.0166  0.1247
43846W        W86758  32.601  11.875  31.831  0.1259  0.1060  0.0394
43847W        W86759  32.683  11.742   2.260 -0.1310  0.0558  0.0326
43848W        W86760  33.621  14.225   1.201  0.0730 -0.1552 -0.0312
43849W        W86761  30.616  11.573   0.897 -0.1872  0.0500 -0.0624
43850W        W86762  29.911  12.583   1.779  0.0320  0.2424  0.0345
43851W        W86763  31.996  12.843   3.228  0.0068  0.1822 -0.0040
43852W        W86764  29.158  12.000  31.962  0.0808 -0.1100 -0.0150
43853W        W86765  31.736  12.979   2.796  0.0948 -0.1703  0.0310
43854W        W86766  30.549  14.575  30.409  0.1107  0.1756  0.0196
43855W        W86767  31.484  13.906   0.150  0.0785 -0.0575 -0.0816
43856W        W86768  31.788  11.767   0.996 -0.2583  0.2334  0.1652
43857W        W86769  28.535  13.265   2.340  0.0553  0.1324  0.2501
43858W        W86770  31.660  14.699   2.737 -0.0222  0.0767 -0.4936
43859W        W86771  30.905  12.697   1.147 -0.2175  0.1283  0.1302
43860W        W86772  30.314  14.103   0.899  0.0619 -0.1520  0.2434
43861W        W86773  30.272  14.803   2.729 -0.2452  0.5088  0.3097
43862W        W86774  32.868  13.518   3.142 -0.0287  0.2320  0.3136
43863W        W86775  30.530  10.973   1.600 -0.1419 -0.0546 -0.1071
43864W        W86776  32.756  12.413   2.624  0.3167 -0.0559 -0.0108
43865W        W86777  29.346  12.128   1.097  0.0100  0.0374  0.1342
43866W        W86778  31.822  10.954   1.918 -0.0312  0.1016  0.1847
43867W        W86779  29.762  14.793   1.060 -0.2439 -0.1061  0.3326
43868W        W86780  29.881  14.634   3.541  0.1436 -0.0679 -0.0776
43869W        W86781  31.887  13.838   3.269  0.2312  0.1784  0.0141
43870W        W86782  30.578  12.236   2.097 -0.4420  0.0372  0.1976
43871W        W86783  32.639  12.141   0.687 -0.2617  0.1335  0.1260
43872W        W86784  32.119  12.091  31.966  0.1415 -0.0166 -0.0791
43873W        W86785  32.677  11.486   3.600 -0.0707 -0.1802 -0.1059
43874W        W86786  30.976  13.445   2.330  0.1531  0.0088  0.0062
43875W        W86787  28.843  13.682   0.903 -0.0645 -0.0928  0.2664
43876W        W86788  32.448  15.141   3.045 -0.2971 -0.4009 -0.2833
43877W        W86789  32.720  13.120   0.413  0.1125 -0.1208  0.1796
43878W        W86790  29.555  12.989   1.044 -0.0917  0.0023 -0.1750
43879W        W86791  29.502  13.455   2.723  0.0571 -0.3008  0.0581
43880W        W86792  31.293  13.951   2.442  0.0537  0.1922  0.2221
43881W        W86793  30.841  13.712   0.251 -0.0193  0.1623  0.0606
43882W        W86794  29.998  10.881   1.751 -0.2303  0.1171  0.1161
43883W        W86795  30.388  15.215  30.625  0.1253  0.2636 -0.2120
43884W        W86796  29.664  12.555   3.158  0.2548  0.0711  0.0212
43885W        W86797  27.663  13.156   3.123  0.0378  0.0415  0.0067
43886W        W86798  29.004  14.259   0.182  0.1182  0.2421 -0.1401
43887W        W86799  32.410  12.807   0.085 -0.0335 -0.2579 -0.0620
43888W        W86800  30.803  11.451  31.871 -0.0054  0.0255 -0.1489
43889W        W86801  30.587  15.598   2.447 -0.0268  0.4141  0.0924
43890W        W86802  30.485  11.209   0.551 -0.2403 -0.0757  0.4166
43891W        W86803  29.958  13.351   1.822 -0.2751  0.0019  0.1302
43892W        W86804  29.609  16.118   0.647 -0.1806  0.1812  0.2001
43893W        W86805  31.343  13.471   0.451  0.4705 -0.2840  0.0473
43894W        W86806  30.929  13.730   1.549 -0.1421  0.1772  0.4474
43895W        W86807  30.739  13.874   2.505  0.0519 -0.0903 -0.0824
43896W        W86808  32.549  10.590   0.127 -0.2019  0.2359  0.2753
43897W        W86809  32.704  13.152   1.274  0.2373 -0.3177  0.1972
43898W        W86810  33.245  10.776   1.256 -0.1068  0.1098 -0.0645
43899W        W86811  32.913  14.431   3.036  0.0047  0.0909 -0.0921
43900W        W86812  31.699  12.603   0.562  0.1678  0.0222 -0.1367
43901W        W86813  29.248  12.592   0.156  0.0410 -0.0818  0.2532
43902W        W86814  29.928  12.483   2.736 -0.2387  0.0397 -0.2381
43903W        W86815  33.776  11.456   3.287 -0.0831 -0.0045  0.2071
43904W        W86816  30.225  15.707   3.125  0.1175 -0.0739 -0.3029
43905W        W86817  32.530  16.407   0.126 -0.1049 -0.2131 -0.1724
43906W        W86818  28.822  13.121   1.090  0.0919 -0.1002  0.0396
43907W        W86819  30.999  11.852   2.197  0.0245  0.0381  0.1398
43908W        W86820  32.190  11.792   2.450 -0.1790  0.0243  0.0617
43909W        W86821  31.405  12.660  31.887 -0.0599 -0.2134 -0.3013
43910W        W86822  31.497  12.221   1.652  0.1715  0.1486 -0.2984
43911W        W86823  30.761  14.783  31.520  0.3246  0.1078 -0.1474
43912W        W86824  30.875  14.644   1.287 -0.0655 -0.1612  0.0003
43913W        W86825  32.018  15.089   2.549 -0.1295 -0.0014  0.0767
43914W        W86826  29.806  12.524   1.191  0.0285  0.3762  0.2189
43915W        W86827  33.286  11.195   2.057  0.2484 -0.1629 -0.0540
43916W        W86828  30.806  13.106   2.686  0.1888  0.2133 -0.2885
43917W        W86829  32.240  10.652   2.037  0.1774 -0.0587 -0.1115
43918W        W86830  30.175  12.974   2.110 -0.1044  0.0197 -0.1601
43919W        W86831  32.842  11.852   0.280 -0.0278 -0.2310  0.0907
43920W        W86832  29.126  11.993   2.804 -0.3084  0.0427 -0.3987
43921W        W86833  28.182  12.543   1.899 -0.1756 -0.0207  0.1556
43922W        W86834  31.361  11.756  31.753 -0.1325  0.0243 -0.0313
43923W        W86835  32.260  13.719   3.595  0.1015 -0.0150 -0.0847
43924W        W86836  32.330  12.155  31.410  0.0459  0.4239 -0.0413
43925W        W86837  31.231  14.321   3.706  0.1707  0.1742 -0.0200
43926W        W86838  29.086  10.659   1.246 -0.1328 -0.1223 -0.2770
43927W        W86839  32.290  11.875   0.396  0.0328 -0.0934  0.0875
43928W        W86840  30.177  14.345   1.888  0.4684  0.1243 -0.0810
43929W        W86841  31.600  11.944   2.945 -0.0644 -0.0912 -0.1096
43930W        W86842  31.694  13.768   3.686 -0.0879  0.1680  0.2788
43931W        W86843  28.890  12.498   1.732 -0.1353 -0.2801  0.2578
43932W        W86844  32.397  13.069  31.372  0.0649 -0.0348  0.3306
43933W        W86845  32.318  11.822   1.377 -0.3048  0.1152  0.1080
43934W        W86846  29.919  14.708  31.824 -0.1886  0.3784  0.1545
43935W        W86847  33.541  13.120   0.446 -0.0110 -0.4482  0.1129
43936W        W86848  32.299  14.849   1.627  0.1492  0.2829  0.6595
43937W        W86849  29.163  11.280   2.805  0.0128  0.1042  0.0803
43938W        W86850  33.318  14.567   2.823 -0.1615  0.0398  0.0908
43939W        W86851  33.378  14.604   0.959  0.2322 -0.0671 -0.0526
43940W        W86852  31.834  11.184   0.567  0.0632 -0.2172 -0.1893
43941W        W86853  30.072  12.830   0.995 -0.1907  0.3295 -0.1436
43942W        W86854  29.385  13.817   2.304  0.0033  0.0822  0.3666
43943W        W86855  33.428  10.700   0.770  0.0889 -0.0241  0.0437
43944W        W86856  32.316  12.917   2.696 -0.0172  0.0929  0.2175
43945W        W86857  29.822  13.682  31.894  0.3732 -0.2033 -0.0555
43946W        W86858  33.377  11.530   2.886 -0.2062  0.1306  0.0484
43947W        W86859  30.328  13.357   2.453  0.2776  0.0402 -0.0882
43948W        W86860  31.425  15.175   2.729 -0.3229 -0.2021  0.3254
43949W        W86861  29.988  12.778   0.453 -0.1729  0.3300 -0.0019
43950W        W86862  30.775  13.032   4.278 -0.0355 -0.0528  0.3460
43951W        W86863  32.450  13.331   1.728 -0.0989 -0.3180  0.1156
43952W        W86864  31.483  15.581   1.940  0.2798  0.4381  0.2479
43953W        W86865  32.585  13.676   0.599  0.0900  0.2215  0.3292
43954W        W86866  32.273  11.875   0.874  0.3592  0.0777  0.3381
43955W        W86867  32.523  13.774  31.874  0.1866  0.0587  0.0445
43956W        W86868  31.226  11.383   2.248  0.1810 -0.1603 -0.0852
43957W        W86869  31.702  10.230   2.469 -0.1616  0.2398  0.0156
43958W        W86870  32.236  10.979   0.184 -0.2671  0.4673 -0.1796
43959W        W86871  29.638  12.978   2.096  0.2287  0.1640 -0.0249
43960W        W86872  28.400  12.630   0.836  0.2063  0.1436  0.1708
43961W        W86873  28.810  15.008   0.891  0.0342 -0.2355  0.0479
43962W        W86874  30.202  13.834   2.334  0.3896 -0.0165  0.2019
43963W        W86875  31.838  11.205   2.388  0.2693  0.1351  0.1088
43964W        W86876  29.935  13.191   3.891 -0.2446 -0.0480 -0.0077
43965W        W86877  28.853  13.010   2.853 -0.1260 -0.1935  0.4305
43966W        W86878  31.401  12.644   1.388 -0.3344  0.0299 -0.0112
43967W        W86879  31.992  13.841   0.107 -0.0569  0.2461  0.2253
43968W        W86880  29.206  11.922   2.306 -0.0548 -0.0080 -0.0028
43969W        W86881  32.158  14.362   1.746  0.4458 -0.2429 -0.0682
43970W        W86882  32.314  14.608   1.156  0.2353  0.1816  0.0779
43971W        W86883  31.033  13.142   0.875  0.3887 -0.3616  0.3303
43972W        W86884  33.977  13.849   2.643  0.0161  0.6363 -0.1379
43973W        W86885  28.617  13.470   0.304 -0.2207 -0.2669 -0.4194
43974W        W86886  30.756  11.067   4.813  0.1019  0.2504  0.4511
43975W        W86887  31.411  10.917   2.321  0.0752  0.0136 -0.1619
43976W        W86888  30.671  11.770   1.768  0.2185 -0.1083  0.0577
43977W        W86889  33.246  12.804   2.145  0.3864 -0.1949  0.2042
43978W        W86890  33.096  14.494  31.309 -0.0617 -0.2444 -0.0182
43979W        W86891  30.478  14.465  31.254  0.3923 -0.0389 -0.1409
43980W        W86892  30.518  13.697   2.937  0.1144  0.0368 -0.3659
43981W        W86893  30.157  15.722   2.651 -0.0282  0.1927  0.0554
43982W        W86894  30.996  12.044   3.603 -0.1362 -0.0164  0.0505
43983W        W86895  31.610  13.150   1.551 -0.0963  0.2738  0.0613
43984W        W86896  30.579  14.203   2.197  0.2452 -0.1796 -0.3775
43985W        W86897  33.243  12.469   0.902  0.1279  0.2344  0.1421
43986W        W86898  32.991  10.303   1.516  0.1978  0.1049 -0.2135
43987W        W86899  30.806  14.270  31.607  0.1908 -0.3498 -0.1168
43988W        W86900  30.440  11.969   3.060  0.3710  0.4466  0.3113
43989W        W86901  29.359  12.770   2.833  0.2085 -0.0947  0.1571
43990W        W86902  33.599  12.614   1.832 -0.0147 -0.1662 -0.6355
43991W        W86903  30.109  12.259  31.751  0.0383  0.0198  0.1408
43992W        W86904  31.639  12.686  31.393 -0.3016 -0.0682  0.1685
43993W        W86905  33.039  14.273   0.042 -0.2440  0.1774 -0.6581
43994W        W86906  30.244  12.170   1.748 -0.1395 -0.0611 -0.1453
43995W        W86907  31.376  11.086  31.084  0.0961  0.0869  0.4644
43996W        W86908  30.471  12.399   2.846 -0.1758  0.0994 -0.1606
43997W        W86909  30.829  14.245   0.674  0.0669 -0.2934 -0.4655
43998W        W86910  32.401  13.729   3.131  0.0479  0.2562 -0.1730
43999W        W86911  29.396  14.489  31.812 -0.3905  0.1549 -0.1006
44000W        W86912  32.594  12.695   0.718  0.3295  0.0860  0.0658
44001W        W86913  32.294  14.757   2.285 -0.0678  0.0260 -0.1236
44002W        W86914  31.217  13.978   4.625  0.2494 -0.2359 -0.2967
44003W        W86915  31.247  14.257   3.216  0.1414 -0.1575  0.0443
44004W        W86916  32.145  13.648   2.179 -0.1322  0.0170 -0.0551
44005W        W86917  29.268  11.445   3.557  0.1428  0.1306 -0.0851
44006W        W86918  30.145  14.063  31.182 -0.1062 -0.1841 -0.1616
44007W        W86919  31.706  13.975   1.119 -0.2570 -0.1141  0.0011
44008W        W86920  31.887  11.269   1.546  0.0645  0.0793 -0.3048
44009W        W86921  31.217  11.794   1.752  0.1609 -0.0273 -0.3109
44010W        W86922  32.303  11.410   0.697  0.2034  0.0543 -0.1219
44011W        W86923  31.636  14.151   4.123  0.0119 -0.0958 -0.2365
44012W        W86924  31.436  12.071   2.101 -0.2103 -0.0758  0.1024
44013W        W86925  30.309  13.859   6.881 -0.2428 -0.0058  0.0705
44014W        W86926  31.721  12.306   4.195  0.2012 -0.3098  0.0172
44015W        W86927  31.693  12.291   3.732  0.1625  0.1015 -0.4733
44016W        W86928  30.247  12.918   4.212 -0.1573 -0.0386  0.0532
44017W        W86929  29.597  11.526   6.449 -0.1013  0.1903 -0.0411
44018W        W86930  31.391  15.009   4.825  0.1401 -0.2610  0.2174
44019W        W86931  29.571  10.432   6.613  0.1089  0.0037 -0.1775
44020W        W86932  31.236  14.534   4.725  0.1762 -0.0894 -0.3428
44021W        W86933  32.423  14.756   4.968 -0.0213 -0.3513 -0.1114
44022W        W86934  32.181  11.986   3.412  0.2138 -0.0695  0.0350
44023W        W86935  30.890  11.368   5.609 -0.1324  0.0912  0.2929
44024W        W86936  30.405  13.500   5.091  0.3479  0.3285  0.0014
44025W        W86937  29.635  10.304   5.921 -0.1983 -0.0567  0.0497
44026W        W86938  29.242   9.733   5.203  0.0392  0.2958  0.1835
44027W        W86939  30.892  12.296   5.996 -0.4465 -0.1103  0.0295
44028W        W86940  30.072  12.364   4.867 -0.0734  0.2185  0.0706
44029W        W86941  29.207  12.766   7.948 -0.4622 -0.0861  0.0999
44030W        W86942  29.783  11.501   4.963  0.0899  0.0330 -0.0657
44031W        W86943  30.667  13.451   4.530 -0.1503  0.2808  0.1916
44032W        W86944  30.317  12.621   5.969 -0.4570  0.1774  0.1756
44033W        W86945  31.176  10.031   8.273 -0.1031 -0.1681 -0.0918
44034W        W86946  31.262  14.098   5.144  0.0859 -0.0934  0.2840
44035W        W86947  30.249  11.844   3.533  0.0125  0.1875 -0.1265
44036W        W86948  29.745  12.210   7.900  0.0433 -0.0896 -0.0704
44037W        W86949  30.379  13.466   6.590 -0.1341  0.0179  0.0138
44038W        W86950  31.122  12.176   7.164  0.0640 -0.3626  0.0238
44039W        W86951  31.297  13.148   5.912  0.4370  0.0436 -0.3738
44040W        W86952  29.529  15.124   5.134  0.0735  0.0461  0.2255
44041W        W86953  30.333  14.560   5.895 -0.1571  0.1232  0.3675
44042W        W86954  30.821  12.506   6.902  0.2628  0.1208 -0.1748
44043W        W86955  28.511  11.268   5.370 -0.2395  0.2134  0.2494
44044W        W86956  28.908  14.820   5.683  0.2078  0.2562 -0.1949
44045W        W86957  30.328  14.357   4.755  0.2016  0.2412  0.0225
44046W        W86958  30.517  14.386   6.356 -0.1599  0.1226  0.1044
44047W        W86959  32.056  13.719   5.374 -0.0052 -0.0362 -0.1018
44048W        W86960  31.252  14.509   7.825  0.0281 -0.2009  0.1185
44049W        W86961  28.920  14.891   3.425  0.0147  0.1678 -0.0062
44050W        W86962  30.863  13.603   6.718 -0.4506 -0.1284 -0.0725
44051W        W86963  30.927  12.807   6.031  0.3091 -0.2700 -0.0148
44052W        W86964  30.928  13.022   6.891  0.5450 -0.0616 -0.2734
44053W        W86965  30.821  14.619   5.830 -0.1735  0.1237  0.0096
44054W        W86966  30.047  14.672   4.497 -0.2166  0.0596  0.0367
44055W        W86967  30.386  13.034   5.297  0.1072 -0.2392  0.0692
44056W        W86968  31.286  14.202   7.400 -0.0157  0.0924  0.0292
44057W        W86969  29.303  13.753   6.678 -0.2869 -0.4709  0.1450
44058W        W86970  32.529  11.234   6.508  0.1094 -0.0308 -0.0703
44059W        W86971  30.629  14.017   4.600  0.1232  0.2527  0.0916
44060W        W86972  31.545  13.050   4.510  0.0494 -0.0427  0.2279
44061W        W86973  29.211  12.592   5.512  0.0404  0.1174  0.2863
44062W        W86974  31.380  12.072   4.588 -0.3337 -0.1304  0.3129
44063W        W86975  31.267  10.212   6.249  0.1307  0.0005  0.1497
44064W        W86976  29.904  15.398   5.338 -0.0337 -0.2285 -0.1015
44065W        W86977  29.500  12.459   7.528 -0.2928 -0.1558 -0.0942
44066W        W86978  31.625  13.473   6.120  0.0941 -0.1037  0.3348
44067W        W86979  30.256  12.343   3.758  0.3690 -0.0800 -0.2769
44068W        W86980  30.497  11.676   6.380 -0.1642 -0.0126 -0.0721
44069W        W86981  29.393  13.952   7.413  0.1336  0.0049  0.3946
44070W        W86982  30.428  12.804   6.752  0.1163  0.0924  0.2624
44071W        W86983  32.229  14.188   3.891  0.0893 -0.0010  0.2138
44072W        W86984  32.735  13.496   5.998 -0.1577  0.1252 -0.2121
44073W        W86985  31.413  13.791   3.281  0.1416  0.0339 -0.2026
44074W        W86986  30.019  11.849   5.682 -0.3656 -0.0824  0.1371
44075W        W86987  29.861  13.147   7.245  0.1738  0.2245 -0.2313
44076W        W86988  30.488  12.912   7.740  0.3313  0.2425 -0.0871
44077W        W86989  31.005  10.650   3.186 -0.0265 -0.2086 -0.2328
44078W        W86990  32.155  13.028   6.873 -0.0313  0.1308  0.0566
44079W        W86991  29.830  14.324   7.645  0.0808 -0.1020  0.0138
44080W        W86992  32.809  11.834   5.540  0.3104  0.0822  0.2543
44081W        W86993  29.403  12.612   4.600 -0.0027 -0.1156  0.2091
44082W        W86994  30.851  13.292   5.815  0.0788 -0.5358 -0.0227
44083W        W86995  31.975  13.728   4.094 -0.0696 -0.1680 -0.1330
44084W        W86996  31.894   9.707   5.745  0.0414  0.0483 -0.1552
44085W        W86997  31.672  11.075   7.495 -0.0326 -0.0668 -0.1889
44086W        W86998  29.245  12.140   4.489 -0.1808  0.1514 -0.0597
44087W        W86999  31.465  12.769   6.124 -0.3417 -0.1412 -0.0968
44088W        W87000  32.501  11.804   4.009  0.2420  0.0614  0.1933
44089W        W87001  29.789  14.545   6.687 -0.1205 -0.1468  0.0254
44090W        W87002  30.030  12.430   7.527 -0.3015  0.0920 -0.2145
44091W        W87003  31.502  14.088   6.504 -0.0153 -0.0212  0.0132
44092W        W87004  30.207  13.709   4.700 -0.1208  0.1147  0.0047
44093W        W87005  29.601  13.082   5.493  0.3748  0.0885 -0.1819
44094W        W87006  30.408  13.809   4.200 -0.1716  0.1082 -0.0221
44095W        W87007  29.795  11.257   5.666 -0.0009 -0.1098  0.0033
44096W        W87008  29.716  13.976   5.691 -0.1766 -0.1990 -0.1543
44097W        W87009  31.820  11.781   5.443  0.1168 -0.0708 -0.1282
44098W        W87010  29.542  11.940   6.755  0.1640 -0.0220  0.0689
44099W        W87011  31.469   9.755   6.009  0.0701 -0.1189  0.0387
44100W        W87012  29.660  13.596   4.624 -0.2079 -0.1340 -0.0306
44101W        W87013  31.975  14.991   5.020  0.1493  0.2687 -0.0477
44102W        W87014  32.653  11.469   5.256 -0.0875  0.1548  0.1862
44103W        W87015  31.117  13.004   3.887 -0.1512 -0.2790  0.0667
44104W        W87016  29.508  12.797   6.662  0.1187 -0.4391  0.4666
44105W        W87017  30.095  11.417   6.538 -0.0011 -0.0273 -0.2089
44106W        W87018  28.447  12.256   8.278 -0.3679  0.0288  0.0534
44107W        W87019  29.606  11.802   5.371 -0.1582 -0.2308  0.1709
44108W        W87020  32.077  13.742   7.245  0.1372 -0.3882  0.0002
44109W        W87021  30.931  10.326   4.047  0.0096  0.1125 -0.0274
44110W        W87022  32.113  11.970   6.476  0.1541 -0.1212 -0.2178
44111W        W87023  30.555  12.187   5.110 -0.0826 -0.0571  0.0602
44112W        W87024  28.769  11.394   4.032  0.0254  0.1874  0.0623
44113W        W87025  33.469   9.106   7.307 -0.1538  0.1308 -0.1946
44114W        W87026  30.867  14.668   3.518 -0.2623  0.0660  0.0998
44115W        W87027  32.222  14.747   6.842  0.1125  0.4047 -0.2717
44116W        W87028  31.248  13.584   5.305  0.0438 -0.2712  0.0489
44117W        W87029  30.558  12.140   6.689  0.2669  0.3214 -0.0141
44118W        W87030  29.022  10.394   3.883  0.1968 -0.0037 -0.0443
44119W        W87031  30.541  16.567   6.222  0.0787  0.4293 -0.3275
44120W        W87032  30.584  12.650   4.968 -0.0104  0.0468 -0.4165
44121W        W87033  30.447  11.465   4.161 -0.0523 -0.0824 -0.1279
44122W        W87034  31.282  15.222   5.261 -0.1199  0.1303  0.1019
44123W        W87035  30.963  13.817   3.478  0.2782  0.0028  0.3980
44124W        W87036  29.393  13.251   6.851 -0.0351 -0.2044 -0.0173
44125W        W87037  31.239  11.016   7.298  0.3393  0.2237 -0.0680
44126W        W87038  31.749  12.677   7.047  0.5880 -0.0858  0.0496
44127W        W87039  31.814  11.592   6.597  0.3068  0.3941  0.2322
44128W        W87040  30.021  11.808   4.366  0.0036 -0.4353  0.0768
44129W        W87041  30.256  14.596   3.859 -0.0053 -0.1373  0.0154
44130W        W87042  30.089  13.395   4.314  0.1695  0.0328 -0.0325
44131W        W87043  29.364  12.768   5.086  0.0598  0.1893  0.1209
44132W        W87044  30.261  14.198   3.639  0.1987 -0.3737 -0.2462
44133W        W87045  32.477  12.015   4.484 -0.1324  0.4074 -0.1771
44134W        W87046  30.363  13.035   7.240  0.1241  0.0759  0.1194
44135W        W87047  30.399  12.114   6.142 -0.6060 -0.1507  0.1014
44136W        W87048  29.494  11.145   5.213 -0.0444 -0.0744 -0.1420
44137W        W87049  31.181  13.419   7.103  0.0097  0.2147 -0.0386
44138W        W87050  31.322  10.210   5.036 -0.0148 -0.1776  0.0103
44139W        W87051  32.954  12.661   3.696  0.2223 -0.1983  0.1050
44140W        W87052  30.391  12.389   7.106 -0.0187 -0.0694  0.1122
44141W        W87053  31.638  13.626   4.509 -0.1344  0.2566 -0.1476
44142W        W87054  30.615  12.597   4.457 -0.2095 -0.1162 -0.0858
44143W        W87055  30.198  10.476   3.461 -0.1404 -0.1438  0.0754
44144W        W87056  29.541  14.923   6.390  0.2552 -0.4387  0.0677
44145W        W87057  31.186  13.632   5.784 -0.0507 -0.1296 -0.0655
44146W        W87058  30.745  14.332   5.355 -0.2443 -0.0783 -0.3969
44147W        W87059  29.826  11.271   4.294  0.1283 -0.0876 -0.0675
44148W        W87060  33.829  14.528   3.150 -0.2415  0.1627 -0.0129
44149W        W87061  29.168  12.475   6.595  0.2114  0.4075  0.3214
44150W        W87062  30.750  13.273   7.501  0.0542 -0.2101  0.3808
44151W        W87063  31.126  14.176   5.731 -0.3472  0.0133  0.0102
44152W        W87064  30.331  11.027   6.323 -0.0606  0.1223  0.1514
44153W        W87065  31.211  11.204   2.804 -0.1401  0.1843  0.3602
44154W        W87066  32.277  10.511   6.021  0.1838 -0.2660  0.0630
44155W        W87067  29.282  15.360   4.741  0.1264  0.0018  0.2117
44156W        W87068  31.103  10.644   5.815  0.2298 -0.0753  0.1180
44157W        W87069  29.842  11.140   6.219 -0.0493 -0.0917  0.1221
44158W        W87070  31.368  11.207   6.027  0.5111 -0.0923 -0.1554
44159W        W87071  31.535  10.777   6.788  0.3470 -0.1534  0.0603
44160W        W87072  30.800  13.334   3.466  0.3548 -0.4858 -0.0220
44161W        W87073  31.286  13.101   5.353  0.1313  0.1307  0.2599
44162W        W87074  29.527  11.726   4.435 -0.2833 -0.1897  0.2993
44163W        W87075  29.967  12.889   7.630  0.0127  0.0774  0.2986
44164W        W87076  29.618  13.949   6.257  0.0487  0.1411 -0.0979
44165W        W87077  30.139  15.137   5.909 -0.0955  0.1581  0.2754
44166W        W87078  31.939  14.319   7.185  0.1398  0.0233 -0.1264
44167W        W87079  30.407  11.945   3.984  0.1715  0.1768 -0.0412
44168W        W87080  30.631  11.627   7.760  0.2899 -0.0108 -0.3617
44169W        W87081  30.636  11.230   3.681  0.1767  0.2673  0.2859
44170W        W87082  30.758  15.326   4.295  0.0727 -0.0656 -0.0403
44171W        W87083  29.080  14.024   3.153  0.1458  0.0980 -0.0213
44172W        W87084  30.893  10.854   5.398  0.0583  0.0843  0.0578
44173W        W87085  30.088  14.141   6.487  0.2274  0.2288 -0.0695
44174W        W87086  29.725  14.154   3.759  0.1935  0.0681  0.1562
44175W        W87087  30.908  11.820   6.823  0.0231 -0.1889  0.0255
44176W        W87088  29.286  13.675   3.531 -0.1024  0.1309 -0.3150
44177W        W87089  32.028  10.614   6.436 -0.1651 -0.0501  0.0173
44178W        W87090  28.116  14.694   4.693  0.0577  0.0684 -0.0122
44179W        W87091  29.004  12.391   5.055  0.1524 -0.0130  0.4185
44180W        W87092  29.297  11.208   6.026 -0.1228  0.0253 -0.1793
44181W        W87093  32.224  10.961   5.649  0.0308 -0.1490  0.3688
44182W        W87094  31.914  13.321   3.508  0.0836 -0.2077  0.1438
44183W        W87095  30.927  11.887   6.279  0.0097  0.1645  0.0975
44184W        W87096  31.490  11.643   5.857  0.0949  0.0692 -0.1342
44185W        W87097  30.099  14.779   6.329 -0.1337  0.0656 -0.1852
44186W        W87098  31.356  12.627   5.626 -0.3457  0.0824 -0.0447
44187W        W87099  31.885  12.298   3.176  0.1414  0.1509 -0.0076
44188W        W87100  31.097  12.778   6.511  0.3006 -0.0948 -0.2526
44189W        W87101  30.203  13.327   7.618 -0.0227 -0.0423  0.0533
44190W        W87102  30.104  10.917   3.261  0.0434  0.2501 -0.1039
44191W        W87103  32.929  10.906   6.851  0.1436  0.0844  0.2023
44192W        W87104  30.999  12.739   5.254 -0.1621  0.2289 -0.0459
44193W        W87105  30.230  13.058   4.703  0.0756 -0.1208 -0.0541
44194W        W87106  31.764  13.252   5.003  0.1113  0.2194 -0.1139
44195W        W87107  28.845  12.245   4.056 -0.0407 -0.1827 -0.1981
44196W        W87108  29.949  13.595   5.442  0.1222 -0.2107  0.2878
44197W        W87109  30.210  11.738   8.873  0.1077 -0.0676  0.1360
44198W        W87110  32.353  13.286   7.305 -0.0142 -0.2675  0.1212
44199W        W87111  30.067  13.025   5.650 -0.0077  0.3251  0.0208
44200W        W87112  31.310  10.812   6.278  0.1406 -0.2075  0.0962
44201W        W87113  30.965  12.355   4.685 -0.1230  0.1570  0.0970
44202W        W87114  31.891  12.369   6.197  0.0472 -0.0760  0.1261
44203W        W87115  31.033  11.716   7.498  0.2251 -0.1234 -0.1271
44204W        W87116  29.375  14.310   8.000  0.0311 -0.0331 -0.3363
44205W        W87117  32.216   9.946   5.348 -0.0509 -0.2092 -0.1004
44206W        W87118  32.442  13.321   4.734 -0.0004  0.1322  0.0555
44207W        W87119  29.881  11.976   6.342 -0.2897 -0.0628  0.1368
44208W        W87120  30.774  12.324   3.926 -0.1276  0.2081  0.0255
44209W        W87121  29.832  13.608   6.569 -0.1052  0.1394 -0.1506
44210W        W87122  30.160  13.964   3.204  0.1015  0.3449 -0.0674
44211W        W87123  30.830  10.263   6.086 -0.1174 -0.0810  0.0327
44212W        W87124  30.052  13.806   6.068  0.1343  0.3836  0.0602
44213W        W87125  30.400  13.365   5.691 -0.3350 -0.3623  0.2132
44214W        W87126  30.474  13.631   6.135  0.2971  0.1368  0.2177
44215W        W87127  32.122  11.460   3.264 -0.0100 -0.0246  0.0770
44216W        W87128  29.918  14.088   1.417  0.2299  0.1536 -0.1062
44217W        W87129  30.951  11.423   6.142  0.0092 -0.0479 -0.0303
44218W        W87130  32.208  11.533   6.262 -0.1330 -0.1271 -0.0978
44219W        W87131  31.978  12.570   2.745  0.1255  0.0005  0.1222
44220W        W87132  30.847  10.596   7.452 -0.0423 -0.0915 -0.0854
44221W        W87133  29.270  11.858   7.172  0.2609  0.2979  0.1670
44222W        W87134  30.617  14.784   4.405  0.1513  0.0333 -0.1658
44223W        W87135  28.935  12.048   7.568 -0.1390 -0.6199  0.0796
44224W        W87136  30.409  14.343   8.334 -0.0055 -0.0151 -0.2656
44225W        W87137  29.699  13.727   7.008 -0.2469  0.3804 -0.0703
44226W        W87138  30.919  10.259   5.397  0.3227  0.1505  0.0842
44227W        W87139  31.047  11.323   5.123 -0.2757 -0.1172 -0.2330
44228W        W87140  30.201  11.836   5.100  0.2337  0.1760 -0.2427
44229W        W87141  32.423  13.949   5.916 -0.1821 -0.1804  0.0014
44230W        W87142  31.113  12.578   3.198  0.2025 -0.2175 -0.1813
44231W        W87143  32.792   9.814   4.686 -0.0335  0.2001  0.1346
44232W        W87144  29.962  13.146   6.760  0.1287 -0.0893 -0.2937
44233W        W87145  31.049  11.946   5.007 -0.0723  0.2298  0.0144
44234W        W87146  30.654  12.835   3.084  0.0325 -0.1626  0.3510
44235W        W87147  28.127  14.573   6.157  0.1207 -0.0133  0.0540
44236W        W87148  30.491  11.735   5.839 -0.0550  0.0890 -0.1303
44237W        W87149  32.197  12.183   4.956 -0.0517 -0.1787 -0.0162
44238W        W87150  31.582  12.051   6.542  0.3882  0.0677  0.2217
44239W        W87151  30.146  11.850   6.772  0.0459 -0.2424 -0.0508
44240W        W87152  32.004  11.799   7.475 -0.0905 -0.2551  0.0668
44241W        W87153  30.924  12.791   7.385 -0.0675  0.0559 -0.0023
44242W        W87154  28.509  12.762   8.221 -0.1196 -0.1098 -0.2539
44243W        W87155  31.701  14.247   5.307 -0.1221 -0.1622  0.1079
44244W        W87156  33.387  12.264   3.576 -0.0452  0.1880  0.0960
44245W        W87157  32.664  11.806   6.523 -0.1420 -0.0691  0.2297
44246W        W87158  31.874  12.915   5.367  0.3516 -0.1522  0.0081
44247W        W87159  32.424  12.364   2.988  0.2608  0.0271  0.1312
44248W        W87160  29.442  11.037   6.527 -0.0160  0.0983 -0.2667
44249W        W87161  31.425  11.793   6.996  0.1350 -0.1005 -0.1907
44250W        W87162  30.198  11.453   4.671  0.1960  0.1832  0.2102
44251W        W87163  31.242  11.554   6.524  0.0221  0.1794  0.1868
44252W        W87164  30.101  15.439   3.538  0.1555 -0.3540 -0.0069
44253W        W87165  31.000  11.820   5.778 -0.4091 -0.1990 -0.0414
44254W        W87166  32.545  10.970   5.132  0.1926 -0.0274 -0.0640
44255W        W87167  29.264  12.648   6.069  0.1223  0.0583 -0.1584
44256W        W87168  28.747  14.122   7.504  0.2479  0.3627 -0.1656
44257W        W87169  29.114  11.515   1.790  0.0891 -0.1323  0.1790
44258W        W87170  31.185  12.505   3.706 -0.1188 -0.2502  0.2254
44259W        W87171  30.631  14.088   5.967  0.0867 -0.0413  0.0907
44260W        W87172  32.291  13.085   7.805  0.0355 -0.1597 -0.0197
44261W        W87173  31.581  12.844   3.916 -0.1333  0.1690 -0.0952
44262W        W87174  31.870  11.950   7.961 -0.2123  0.0816 -0.3047
44263W        W87175  30.867  13.707   4.925 -0.1506 -0.1366 -0.3478
44264W        W87176  30.905  10.601   6.497  0.2689  0.3353  0.1470
44265W        W87177  31.110  14.951   6.193  0.0240 -0.0079  0.0275
44266W        W87178  29.509  14.741   7.555 -0.1844 -0.0237 -0.0391
44267W        W87179  29.951  14.855   5.501  0.0089  0.0731 -0.1020
44268W        W87180  30.109  10.377   5.792 -0.0736  0.1937  0.1046
44269W        W87181  31.635  12.589   6.565  0.1970  0.0511  0.0918
44270W        W87182  29.730  12.797   6.044 -0.1241  0.1905  0.0587
44271W        W87183  32.949  12.077   7.117 -0.1784  0.3231  0.0388
44272W        W87184  31.016  13.933   6.274 -0.0072 -0.1107 -0.1402
44273W        W87185  30.350  13.927   5.582 -0.4029 -0.1314  0.3819
44274W        W87186  30.403  14.468   6.952 -0.2825 -0.0649  0.1810
44275W        W87187  31.674  13.333   5.557  0.1205 -0.2125 -0.1830
44276W        W87188  30.094  15.710   4.663  0.0028 -0.0745  0.0610
44277W        W87189  29.608  13.199   6.378 -0.0101 -0.0661 -0.3081
44278W        W87190  30.576  13.752   7.649 -0.1601 -0.0652  0.0279
44279W        W87191  29.890  12.705   4.601  0.0138 -0.2764  0.4402
44280W        W87192  30.340  10.494   6.268  0.0291  0.1323  0.2201
44281W        W87193  30.639  14.163   3.352  0.1188  0.0412  0.2913
44282W        W87194  29.488  13.559   7.840 -0.0608 -0.1010 -0.0358
44283W        W87195  28.586  12.751   7.191 -0.1237 -0.0753 -0.0082
44284W        W87196  28.746  15.432   4.913 -0.2458  0.2452 -0.1414
44285W        W87197  32.096  13.309   4.374 -0.0957 -0.1354 -0.0700
44286W        W87198  31.133  12.573   4.237 -0.0856  0.3072 -0.1435
44287W        W87199  32.143  14.506   5.291 -0.0668  0.0555  0.0827
44288W        W87200  31.402  12.152   5.531 -0.1981  0.0349 -0.3064
44289W        W87201  29.051  13.857   4.934  0.3225 -0.1541 -0.3461
44290W        W87202  28.741  14.614   3.016 -0.3798  0.0122  0.0931
44291W        W87203  31.014  14.426   4.285 -0.2958 -0.0778 -0.1758
44292W        W87204  29.698  13.433   5.890 -0.0073 -0.0254 -0.0752
44293W        W87205  31.174  13.912   6.930  0.0372 -0.0812 -0.0395
44294W        W87206  32.561  11.980   2.726  0.1435 -0.0692  0.1504
44295W        W87207  31.750  12.403   5.273 -0.2295 -0.0964  0.0685
44296W        W87208  32.179  12.310   3.836 -0.1706  0.1793 -0.2918
44297W        W87209  30.789  13.027   8.312  0.0986  0.2906 -0.3396
44298W        W87210  30.132  12.392   4.349 -0.0642  0.0812 -0.2476
44299W        W87211  29.907  12.669   3.647 -0.3202 -0.0402 -0.2165
44300W        W87212  29.747  12.732   8.083  0.1365 -0.3045 -0.0646
44301W        W87213  31.498  10.476   7.259  0.1135 -0.0438 -0.4149
44302W        W87214  29.039  14.802   7.792 -0.4336  0.0585 -0.0878
44303W        W87215  33.244  13.058   5.110  0.1480 -0.0695 -0.2932
44304W        W87216  29.115  13.070   6.403 -0.0830 -0.0459 -0.0820
44305W        W87217  30.095  13.230   6.133  0.4054  0.2763 -0.1544
44306W        W87218  33.517  12.143   6.540 -0.2405  0.1860  0.0218
44307W        W87219  31.089  13.523   2.991 -0.2608 -0.1968 -0.0803
44308W        W87220  30.785  13.362   5.354  0.1790 -0.0280 -0.0592
44309W        W87221  29.880  13.288   5.032  0.1746  0.1271 -0.1140
44310W        W87222  30.059  13.684   3.778  0.3666 -0.0265 -0.0819
44311W        W87223  31.137  13.306   6.363  0.0824  0.1191  0.3672
44312W        W87224  30.537  11.279   5.914 -0.1758 -0.0237 -0.0248
44313W        W87225  31.877  11.841   6.074 -0.1266 -0.3731  0.4146
44314W        W87226  29.522  13.032   7.694 -0.2954 -0.3288  0.3237
44315W        W87227  31.532  11.286   6.916  0.2001  0.2004 -0.3621
44316W        W87228  30.502  12.202   5.653  0.3580  0.1930 -0.2311
44317W        W87229  31.124  12.901   4.720 -0.1341 -0.5186  0.0905
44318W        W87230  31.501  14.594   6.197 -0.0320 -0.1775  0.1551
44319W        W87231  28.978  11.586   8.254 -0.1172  0.1561  0.0656
44320W        W87232  31.250  13.369   4.881  0.0843 -0.0264 -0.0788
44321W        W87233  32.397  13.535   6.434 -0.2112  0.1148  0.1212
44322W        W87234  31.242  13.060   3.390 -0.0880 -0.0129 -0.4163
44323W        W87235  33.117  14.890   6.663  0.3841 -0.1905  0.1308
44324W        W87236  30.703  11.259   6.544  0.1591  0.2515  0.1926
44325W        W87237  30.844  11.997   4.333  0.1941  0.2512  0.1247
44326W        W87238  28.863  12.835   5.789 -0.1149  0.0227  0.0720
44327W        W87239  30.059  12.369   6.658  0.5446 -0.0820 -0.1067
44328W        W87240  32.567  13.775   7.397 -0.2282  0.0489  0.1562
44329W        W87241  29.335  10.672   5.129  0.3044 -0.1512  0.2216
44330W        W87242  31.928  13.313   2.490  0.1642  0.0065 -0.1998
44331W        W87243  30.440  12.076   4.598 -0.0710  0.1218  0.5377
44332W        W87244  30.369  15.102   4.040  0.0597  0.0646  0.0820
44333W        W87245  30.751  13.601   3.923  0.1370  0.2013 -0.0197
44334W        W87246  31.645  13.775   5.095 -0.0494 -0.2290 -0.0931
44335W        W87247  29.602  12.405   6.368 -0.1032 -0.2014 -0.1534
44336W        W87248  31.820  13.903   6.864  0.1393 -0.1240  0.2138
44337W        W87249  33.153  12.118   5.501 -0.0715  0.0130  0.0168
44338W        W87250  31.350  10.533   5.388 -0.1084  0.0088 -0.0288
44339W        W87251  30.056  12.810   6.421 -0.0786  0.2556 -0.0756
44340W        W87252  28.169  15.476   3.370 -0.0922  0.3202  0.1536
44341W        W87253  32.487  11.421   5.722 -0.0709 -0.1192 -0.0900
44342W        W87254  32.801  11.493   7.774  0.1250  0.0682  0.0000
44343W        W87255  30.148  14.991   3.188  0.0104  0.0110 -0.1266
44344W        W87256  31.946  10.756   7.196  0.0587 -0.0739 -0.2419
44345W        W87257  30.858  13.855   5.467 -0.0980 -0.0780  0.1197
44346W        W87258  30.790  14.148   7.208  0.0294 -0.0021  0.1600
44347W        W87259  29.027  12.474   3.592  0.0324  0.3184 -0.3348
44348W        W87260  30.581  12.431   7.582  0.0477 -0.1754  0.0576
44349W        W87261  30.745  13.184   4.913  0.3817 -0.2181  0.2701
44350W        W87262  30.242  14.812   4.981  0.0924  0.4727 -0.0435
44351W        W87263  32.064  13.486   5.814  0.0782  0.3643  0.2867
44352W        W87264  31.697  10.865   5.853 -0.4050 -0.3184  0.1724
44353W        W87265  32.070  12.777   4.792 -0.2336 -0.0254  0.0545
44354W        W87266  30.939  12.289   5.475 -0.1277 -0.1347 -0.1500
44355W        W87267  31.886  11.939   4.532 -0.2162 -0.2859 -0.0743
44356W        W87268  31.845  10.821   5.360  0.2755 -0.0946 -0.0368
44357W        W87269  29.246  14.037   4.515  0.2016  0.2119 -0.0349
44358W        W87270  29.969  12.202   5.332  0.3620  0.1827  0.3848
44359W        W87271  29.677  13.132   4.539 -0.0882 -0.1348 -0.3668
44360W        W87272  30.478  14.001   5.111  0.0596  0.2481  0.1245
44361W        W87273  30.915   9.510   7.321 -0.0162  0.1849  0.2796
44362W        W87274  28.693  11.331   8.610  0.0176 -0.0824  0.1948
44363W        W87275  29.101  14.179   6.480 -0.1272  0.3547  0.2267
44364W        W87276  30.265  12.575   5.442  0.2119  0.0649  0.0734
44365W        W87277  31.159  13.862   4.090 -0.2285 -0.0203  0.1069
44366W        W87278  29.157  10.185   5.928  0.2878  0.6557  0.2188
44367W        W87279  28.930  11.448   5.049  0.1561 -0.1784  0.2826
44368W        W87280  30.737  14.126   6.699 -0.1477  0.1536 -0.0971
44369W        W87281  31.895  14.817   3.779 -0.0398  0.0324  0.1523
44370W        W87282  30.482  10.048   5.658  0.0560 -0.0831 -0.0672
44371W        W87283  32.273  12.043   8.273  0.1340 -0.0637 -0.1252
44372W        W87284  30.415  14.248   2.802  0.2503 -0.2156  0.0137
44373W        W87285  30.123  11.912   7.303 -0.0376  0.1494  0.1448
44374W        W87286  30.221  11.975   7.859 -0.0728  0.0941 -0.0569
44375W        W87287  28.770  12.003   4.999 -0.0226  0.1861  0.1103
44376W        W87288  30.625  12.544   6.405  0.0495  0.5403  0.1710
44377W        W87289  31.866  15.529   3.630  0.3450 -0.1354  0.1417
44378W        W87290  31.622  13.309   4.085 -0.1267 -0.0138 -0.1791
44379W        W87291  29.880  12.798   5.101  0.0303 -0.1871  0.1568
44380W        W87292  29.897  14.342   6.094 -0.0344 -0.1086 -0.2653
44381W        W87293  29.396  12.853   7.208 -0.3180  0.0951  0.0110
44382W        W87294  31.200  13.469   3.711 -0.1323 -0.1244 -0.1123
44383W        W87295  29.219  13.893   5.857 -0.0425  0.1106 -0.0855
44384W        W87296  31.950  12.795   4.281  0.0688 -0.2127  0.1578
44385W        W87297  31.658   9.220   5.915  0.0302 -0.0234  0.1547
44386W        W87298  29.897  12.056   3.893 -0.1807  0.0422 -0.2023
44387W        W87299  28.220  11.100   7.771  0.6365 -0.3994 -0.0997
44388W        W87300  29.883  12.719   6.990 -0.0511  0.1284  0.1193
44389W        W87301  30.673  12.817   5.617 -0.2620  0.0120 -0.1972
44390W        W87302  30.148  10.245   5.235  0.1743 -0.0311 -0.0492
44391W        W87303  31.386  12.203   6.081  0.0731  0.0218  0.5174
44392W        W87304  31.151  13.394   4.274  0.0813 -0.0581 -0.1751
44393W        W87305  31.354  11.669   5.337  0.1061 -0.0569 -0.1228
44394W        W87306  31.391  11.571   4.797 -0.0845 -0.0059  0.1305
44395W        W87307  30.559  13.103   6.153 -0.1126  0.2825 -0.1879
44396W        W87308  31.260  14.596   5.270  0.2463  0.0549 -0.1616
44397W        W87309  31.908  13.439   7.636 -0.1191 -0.0636 -0.2093
44398W        W87310  29.627  12.289   4.270  0.0815  0.0636 -0.1307
44399W        W87311  32.231  14.053   4.459 -0.1000  0.1409 -0.2064
44400W        W87312  31.923  13.782   6.384 -0.0659 -0.0494 -0.1467
44401W        W87313  31.650  13.235   8.738 -0.2921 -0.0474 -0.2144
44402W        W87314  31.649  13.874   5.612 -0.0111  0.1626  0.0677
44403W        W87315  31.827  12.625   5.777  0.3186  0.2104  0.0793
44404W        W87316  30.041   9.845   5.770  0.3669  0.1168  0.0121
44405W        W87317  29.239  12.559   4.126 -0.3297  0.1696 -0.0436
44406W        W87318  29.276  13.155   5.898 -0.0263  0.2326  0.0412
44407W        W87319  31.618  12.008   5.008  0.1084 -0.0582  0.4282
44408W        W87320  29.149  12.059   5.420  0.2241  0.0845 -0.2632
44409W        W87321  31.576  11.217   5.148  0.1499 -0.2747  0.0154
44410W        W87322  29.917  14.310   7.121 -0.0579 -0.0117 -0.1196
44411W        W87323  31.490  13.565   6.653  0.3728  0.1182  0.0172
44412W        W87324  32.773  15.639   9.847  0.0090 -0.0026 -0.0808
44413W        W87325  29.845  12.995   8.577  0.1383  0.0256 -0.3098
44414W        W87326  29.685  10.350   8.617 -0.0769 -0.2821 -0.1752
44415W        W87327  32.227  11.524   8.090 -0.1632  0.3249 -0.0282
44416W        W87328  29.741  11.549   9.134  0.5332 -0.0119 -0.1657
44417W        W87329  31.254  13.783   9.463  0.1720 -0.5262 -0.3146
44418W        W87330  32.196  11.097   9.601  0.3515 -0.0123  0.1594
44419W        W87331  33.754  11.558   9.479 -0.3114 -0.1424  0.0434
44420W        W87332  31.702  12.527   7.554 -0.0395  0.0349  0.0039
44421W        W87333  29.070  11.767  10.201 -0.3624  0.2024  0.0323
44422W        W87334  30.346  11.182   7.910  0.2843  0.1502  0.2844
44423W        W87335  29.160  10.359   9.819  0.0592  0.0154  0.0363
44424W        W87336  30.846  12.996   9.755  0.0690  0.0080 -0.0164
44425W        W87337  29.015  12.762   8.956 -0.2988 -0.0225  0.4622
44426W        W87338  29.502  10.854  10.303 -0.1690 -0.0762 -0.1381
44427W        W87339  31.832  12.458   8.048 -0.1920 -0.3115 -0.1417
44428W        W87340  32.579  14.744   8.797  0.0153 -0.2455  0.0391
44429W        W87341  29.207  11.705  12.569 -0.3903  0.0706  0.0070
44430W        W87342  30.724  13.636   9.092 -0.1156 -0.0006  0.0980
44431W        W87343  28.715  12.158   8.878 -0.3198 -0.2584 -0.4744
44432W        W87344  28.921  11.696   8.870 -0.3133  0.0783 -0.1217
44433W        W87345  30.584  12.044  10.627 -0.1447 -0.1770  0.1518
44434W        W87346  32.004  12.110   9.878  0.2289  0.3770  0.3195
44435W        W87347  30.714  12.276   9.174  0.1053 -0.0680  0.1456
44436W        W87348  32.164  13.387  10.022  0.0359 -0.1818  0.0722
44437W        W87349  31.847  12.548  10.212 -0.3180  0.2068 -0.1447
44438W        W87350  29.046  14.061  10.814 -0.3310 -0.0453 -0.2353
44439W        W87351  28.170  14.132   9.534 -0.0526 -0.2579  0.0036
44440W        W87352  30.917  14.525  10.425  0.1728  0.2105  0.1765
44441W        W87353  31.509  12.814   9.078  0.4580  0.0867 -0.1790
44442W        W87354  29.116  13.894   7.830 -0.1136 -0.0308  0.3421
44443W        W87355  31.717  13.633  10.235 -0.2144  0.3040 -0.0999
44444W        W87356  30.263  12.394   9.342  0.0864 -0.2666  0.2520
44445W        W87357  30.390  13.465   8.039 -0.2197 -0.1381  0.0917
44446W        W87358  30.500  12.734   9.108  0.0991 -0.1902  0.1050
44447W        W87359  29.468  13.993   9.639  0.1185  0.1915  0.0099
44448W        W87360  31.050  14.317   8.249  0.0988  0.1427  0.1743
44449W        W87361  31.059  12.279   6.551  0.2256 -0.5193 -0.2292
44450W        W87362  30.125  11.350   7.472 -0.4624 -0.4160  0.1447
44451W        W87363  31.844  11.954   8.547 -0.2081 -0.0099 -0.1051
44452W        W87364  30.984  11.835  10.347  0.2037  0.0794 -0.0811
44453W        W87365  29.956  13.262   9.566 -0.0897 -0.0377  0.0606
44454W        W87366  28.973  12.101   9.803 -0.2777 -0.1482 -0.1009
44455W        W87367  30.590  12.118   9.592 -0.0131 -0.0481 -0.2710
44456W        W87368  30.082  10.750  10.210  0.0206 -0.2777  0.0336
44457W        W87369  31.428  14.544  10.483  0.1346  0.0214  0.0910
44458W        W87370  29.679  14.459   9.535 -0.0089  0.2647 -0.0996
44459W        W87371  30.990  13.482   7.989  0.0148 -0.1811 -0.1885
44460W        W87372  32.328  15.622   8.135 -0.4299  0.0255 -0.4359
44461W        W87373  31.614  14.341   8.140  0.2413 -0.3681  0.0265
44462W        W87374  30.570  11.398   8.708  0.3114  0.1563  0.0561
44463W        W87375  30.923   9.342   6.701  0.2622  0.3829  0.1191
44464W        W87376  32.737  10.785   9.785  0.0466  0.0463 -0.0148
44465W        W87377  28.579  11.688  10.466  0.2030  0.1777  0.2261
44466W        W87378  33.282  12.808   9.506 -0.1309 -0.2842 -0.1280
44467W        W87379  31.164  12.982   7.867 -0.0332 -0.0450 -0.2258
44468W        W87380  31.948   9.339   8.826 -0.0452  0.3298  0.2428
44469W        W87381  28.955  12.108  10.657 -0.0507 -0.1346  0.2821
44470W        W87382  30.642  13.915   8.159  0.2452 -0.0549  0.0279
44471W        W87383  29.879  13.276   7.994 -0.1422 -0.0845 -0.1073
44472W        W87384  30.819  11.571   9.551  0.1944 -0.1399 -0.0276
44473W        W87385  31.031  12.331   8.339 -0.3960  0.1958 -0.5752
44474W        W87386  29.997  14.855   9.831  0.0025  0.0739  0.0681
44475W        W87387  30.944  14.087   7.770 -0.0684  0.0784  0.2774
44476W        W87388  28.091  13.929   9.023 -0.1187 -0.0047 -0.0425
44477W        W87389  29.048  13.221   7.750 -0.0117  0.1025  0.1202
44478W        W87390  28.781  11.451   9.889  0.1000  0.0431 -0.1261
44479W        W87391  30.254  14.171   9.563  0.5022 -0.0411  0.1403
44480W        W87392  30.650  11.989   8.748  0.2020  0.1423  0.0924
44481W        W87393  32.307   9.421   8.468  0.1047 -0.4327  0.0830
44482W        W87394  30.112  13.904   8.408  0.1879 -0.0233  0.2105
44483W        W87395  32.100  13.728   9.490 -0.0639  0.1171 -0.0414
44484W        W87396  33.177  11.979   8.874  0.0267  0.2282  0.2697
44485W        W87397  31.054  13.713   7.445  0.4982 -0.7013  0.5227
44486W        W87398  30.523  11.382   9.192  0.1475  0.1113  0.2069
44487W        W87399  29.764  12.577  10.181 -0.1951  0.1581 -0.3045
44488W        W87400  29.544  11.065   8.663  0.3154 -0.0175 -0.1502
44489W        W87401  29.253  11.305   8.970 -0.0289 -0.1511  0.0304
44490W        W87402  29.838  11.523   9.634  0.0721  0.0173 -0.1001
44491W        W87403  30.181  13.018  10.451 -0.1539  0.1753  0.2251
44492W        W87404  29.378  12.738   8.533  0.0999  0.0932  0.3195
44493W        W87405  31.056  15.308   9.294  0.3178 -0.1517  0.1202
44494W        W87406  33.885  14.150   9.605 -0.1770  0.4901 -0.1438
44495W        W87407  31.719  14.553   8.598  0.1163 -0.0340  0.1767
44496W        W87408  32.235   9.911  10.128 -0.0931  0.1185 -0.1167
44497W        W87409  28.960  12.199   9.256  0.4317  0.1284 -0.1554
44498W        W87410  29.183  14.831  10.186 -0.1597 -0.0802 -0.2427
44499W        W87411  31.536  14.631   9.600  0.3899  0.4103  0.2828
44500W        W87412  30.210  10.698   7.972  0.2823 -0.0953  0.1634
44501W        W87413  31.680  13.829   9.757  0.3320  0.0985 -0.0019
44502W        W87414  30.852  13.104   8.886  0.0889 -0.0055 -0.0775
44503W        W87415  31.736  12.928   9.887 -0.2339  0.1701 -0.0033
44504W        W87416  31.713  12.359   9.135 -0.3644 -0.3679  0.0321
44505W        W87417  29.966  10.624   7.130  0.0275 -0.0937 -0.3820
44506W        W87418  32.410  13.516   9.106 -0.3957 -0.1888  0.1176
44507W        W87419  29.868  14.321   8.173 -0.1119  0.2897  0.1915
44508W        W87420  29.008  12.637   9.608 -0.0580 -0.0845  0.1931
44509W        W87421  31.697  14.579   9.106 -0.5891 -0.1457 -0.1041
44510W        W87422  31.744  11.426   8.260  0.1159 -0.0230 -0.0761
44511W        W87423  29.338  11.828   9.143 -0.0311  0.1633  0.0728
44512W        W87424  31.493  11.543   9.351  0.1612  0.0994  0.2580
44513W        W87425  31.978  11.357   7.166  0.2205 -0.1288  0.0113
44514W        W87426  32.860  13.283   8.695 -0.1504  0.0729  0.1069
44515W        W87427  31.157  12.463   7.617  0.1416 -0.2935 -0.1590
44516W        W87428  29.789  11.559   7.104 -0.2710 -0.0727 -0.0486
44517W        W87429  30.859  14.627   8.647  0.0380  0.2951  0.2351
44518W        W87430  29.745  14.414  10.048  0.0020 -0.0638 -0.2880
44519W        W87431  30.428  10.872   7.452 -0.0900  0.3910  0.1114
44520W        W87432  31.183  13.841   8.281 -0.2228  0.1119  0.1473
44521W        W87433  25.383  12.769   9.846 -0.2407 -0.0578  0.1139
44522W        W87434  32.219  13.219   8.618  0.1009  0.0469  0.1328
44523W        W87435  32.466   8.890  10.117 -0.1164 -0.0643  0.1887
44524W        W87436  30.826  11.206   7.570  0.1117 -0.2264  0.1161
44525W        W87437  30.569  10.541   9.329 -0.2752  0.0447 -0.0937
44526W        W87438  30.194  16.033  10.211 -0.3162  0.1999  0.1270
44527W        W87439  31.037  11.268  10.262  0.0587 -0.0801 -0.0076
44528W        W87440  32.139  13.538  10.517 -0.0905 -0.4010 -0.0388
44529W        W87441  31.307  12.911   8.552 -0.0333  0.2141  0.0805
44530W        W87442  30.632  12.593   9.573  0.0569 -0.0104  0.1596
44531W        W87443  30.409  11.647   8.296  0.2256 -0.0706  0.0003
44532W        W87444  31.556  12.575   9.592  0.2539  0.0148 -0.0221
44533W        W87445  29.454  15.275  10.748 -0.0852  0.1786 -0.2913
44534W        W87446  31.226  14.314   8.789  0.1031  0.0296  0.1326
44535W        W87447  31.214  10.944   9.465  0.1623 -0.1663  0.1936
44536W        W87448  30.683  14.533   9.509 -0.0234 -0.0212 -0.6613
44537W        W87449  30.187  13.945   7.403 -0.1771 -0.0382  0.0373
44538W        W87450  31.312   9.807  10.284  0.1675 -0.3791  0.3551
44539W        W87451  31.296  14.012  10.272 -0.1595  0.1695 -0.0627
44540W        W87452  30.390  14.414   7.469 -0.0082  0.3758  0.0876
44541W        W87453  30.645  11.579  10.100 -0.0678  0.3627  0.0522
44542W        W87454  30.137  15.443   9.542  0.2228 -0.1369 -0.1097
44543W        W87455  31.468  10.536   9.690  0.0188  0.2310 -0.2344
44544W        W87456  29.436  14.260   9.092  0.2075  0.0080  0.0727
44545W        W87457  30.539   9.809   7.448  0.0808 -0.2703 -0.2103
44546W        W87458  29.233  12.170   7.883  0.2401  0.0401 -0.3079
44547W        W87459  30.524  10.946   8.880 -0.0065  0.2437 -0.3363
44548W        W87460  32.716  12.251   8.013 -0.1783  0.3296  0.0143
44549W        W87461  29.703  10.525   9.954  0.1196  0.0998 -0.0995
44550W        W87462  31.001  11.325   9.187 -0.0335  0.3219 -0.1190
44551W        W87463  28.168  13.428  10.500  0.1860  0.2824 -0.0345
44552W        W87464  31.380  12.171   7.971 -0.1369 -0.0340  0.2278
44553W        W87465  29.446  11.336   8.190 -0.1698  0.1591  0.0240
44554W        W87466  34.112  10.887   9.202  0.0740  0.0003  0.4535
44555W        W87467  30.077  11.165   8.882  0.0437 -0.0805 -0.0537
44556W        W87468  30.128  13.362   8.481  0.0221  0.0244  0.0279
44557W        W87469  31.284  12.801   9.944 -0.0581  0.0387  0.1040
44558W        W87470  29.900  12.686   9.509  0.2466  0.2546  0.1780
44559W        W87471  29.498  12.494   9.782  0.2161  0.0445  0.0568
44560W        W87472  34.378  12.365  10.232  0.1378  0.0676 -0.2113
44561W        W87473  30.500  10.815   8.386 -0.1071  0.0270  0.2409
44562W        W87474  30.223  11.888   9.402  0.1563 -0.2168  0.2196
44563W        W87475  29.357  12.811  10.215  0.0880  0.0088  0.1230
44564W        W87476  30.397  12.537  10.295  0.0624 -0.1607 -0.3525
44565W        W87477  29.662  14.715  10.469  0.0512 -0.1265 -0.0731
44566W        W87478  30.651  10.141   9.595 -0.1034 -0.0166 -0.0739
44567W        W87479  32.768  13.204   7.687  0.4006 -0.3264  0.0409
44568W        W87480  29.044  13.544   8.190 -0.0204  0.2877 -0.1902
44569W        W87481  28.975  13.583   9.528 -0.1113 -0.2609 -0.0658
44570W        W87482  30.364  13.154   8.835 -0.3290 -0.2162  0.2157
44571W        W87483  31.266  10.845   9.975  0.1278  0.2774  0.0522
44572W        W87484  29.624  12.024   9.950  0.0871 -0.1992  0.2489
44573W        W87485  29.248  12.244   8.855  0.2800  0.0791  0.1280
44574W        W87486  29.251  14.360   9.885  0.2258  0.1128  0.1439
44575W        W87487  31.777  11.564   8.833 -0.1429  0.3635  0.0722
44576W        W87488  31.015  11.415   7.105  0.2545 -0.1216 -0.2750
44577W        W87489  30.193  11.211   8.373 -0.2015 -0.2055 -0.1858
44578W        W87490  31.401  12.644   8.155 -0.0403  0.2480  0.0310
44579W        W87491  30.863  10.682  10.315  0.0882 -0.0098 -0.1168
44580W        W87492  32.752  15.293  10.417  0.0443  0.3911 -0.1133
44581W        W87493  30.732  10.810   7.896 -0.2279  0.1560  0.0431
44582W        W87494  30.499  10.278   7.604 -0.4512 -0.0888  0.0364
44583W        W87495  30.443  14.383  10.469  0.3266 -0.0030 -0.1751
44584W        W87496  32.815  13.139   9.960  0.2657 -0.3600  0.0471
44585W        W87497  30.231  14.834  10.290  0.2981  0.0583 -0.0317
44586W        W87498  31.234  12.367   9.161 -0.0554  0.1056 -0.0949
44587W        W87499  30.634  11.546  10.659  0.2622  0.0003 -0.1682
44588W        W87500  31.471  11.490   7.400 -0.2208 -0.0488 -0.1373
44589W        W87501  30.228  12.924   8.199 -0.0922  0.2950 -0.1642
44590W        W87502  30.374  14.527   8.802  0.0520 -0.0479  0.1097
44591W        W87503  31.413  13.036   9.523 -0.2198  0.2921 -0.0535
44592W        W87504  30.580  10.478   8.752 -0.2054  0.2340 -0.1846
44593W        W87505  30.758  13.990  10.487  0.0355  0.3272 -0.0205
44594W        W87506  29.635  11.837   7.587 -0.2558  0.0105 -0.1230
44595W        W87507  30.856  12.596  10.098  0.1750 -0.0694  0.3868
44596W        W87508  31.052  11.654   8.857 -0.3385  0.0708 -0.0627
44597W        W87509  30.536  12.148   8.300  0.2728 -0.0569 -0.0121
44598W        W87510  29.964  12.033   8.344  0.0535 -0.1363 -0.1060
44599W        W87511  29.473  12.269   8.363 -0.0777  0.1481 -0.0946
44600W        W87512  30.061  15.586   9.012 -0.0303  0.0602 -0.3958
44601W        W87513  31.723  14.079   8.869 -0.1839 -0.0104  0.3397
44602W        W87514  31.155  11.922   9.308 -0.0552 -0.0348  0.0948
44603W        W87515  28.412  11.229   9.678 -0.3050 -0.3309 -0.1033
44604W        W87516  29.217  11.607   7.773  0.0142  0.1683 -0.0392
44605W        W87517  30.885  12.143   7.834 -0.1151  0.0786  0.3674
44606W        W87518  29.563  11.782  10.381 -0.3037 -0.2992 -0.1589
44607W        W87519  31.319   9.423   8.109 -0.0931  0.0028  0.1952
44608W        W87520  30.500  15.318   9.038  0.2124 -0.2241  0.0921
44609W        W87521  31.294  11.347   9.807  0.1285 -0.2375 -0.2572
44610W        W87522  30.575  12.062  10.085  0.3515 -0.1875 -0.1920
44611W        W87523  31.174  13.756   8.930 -0.0953  0.0752 -0.2801
44612W        W87524  31.954  11.268   9.158 -0.0143  0.1891 -0.7280
44613W        W87525  30.832  12.782  10.580 -0.0811  0.0143  0.1900
44614W        W87526  30.493  13.904  10.085 -0.1040  0.0461  0.2175
44615W        W87527  30.276  12.903   9.775 -0.0007  0.0288 -0.3543
44616W        W87528  32.963  12.585   7.068 -0.3892 -0.0430 -0.1597
44617W        W87529  29.666  14.033  10.495  0.0050  0.0461  0.2836
44618W        W87530  30.513  13.213   9.339  0.1461  0.0718 -0.2729
44619W        W87531  30.241  10.154   9.287 -0.4441  0.2628 -0.1282
44620W        W87532  30.467  12.660   8.629  0.1610  0.0419 -0.3067
44621W        W87533  28.085  11.529   9.285 -0.0148 -0.0368 -0.1168
44622W        W87534  30.052  15.161   8.134  0.0602 -0.0397 -0.1544
44623W        W87535  31.980  12.935   7.421  0.1214 -0.0834  0.1294
44624W        W87536  31.051  13.370   9.485 -0.3748  0.3298 -0.1783
44625W        W87537  31.195  14.257   9.633  0.0522  0.2787 -0.2564
44626W        W87538  30.498  11.494   6.997 -0.2627 -0.0197 -0.2857
44627W        W87539  29.804  13.461   9.103  0.4588  0.0438 -0.3105
44628W        W87540  29.029  13.799   7.092 -0.0860  0.1757  0.2792
44629W        W87541  30.022  12.989   9.091  0.0140  0.0706 -0.0009
44630W        W87542  29.800  14.652   8.951  0.1448  0.1347 -0.1683
44631W        W87543  32.183  10.470   6.882  0.0433  0.1664 -0.0680
44632W        W87544  31.867  11.512   9.696  0.1007 -0.2092  0.0642
44633W        W87545  32.674  12.027   9.227  0.0247  0.1343  0.0718
44634W        W87546  28.337  13.833  10.015  0.0726 -0.0966  0.3143
44635W        W87547  30.366  10.378   7.118 -0.0271 -0.0758 -0.3909
44636W        W87548  31.116  13.438   8.539  0.1238  0.0415  0.0119
44637W        W87549  27.700  11.755   8.371  0.2597  0.1482 -0.1493
44638W        W87550  30.729  13.518  10.424 -0.0083  0.0252 -0.0626
44639W        W87551  31.460  10.962   8.550  0.1028 -0.0327  0.0841
44640W        W87552  30.809  12.629   8.008 -0.0131 -0.0124  0.1745
44641W        W87553  30.331  10.744   9.766 -0.1877 -0.0082  0.0539
44642W        W87554  30.485  15.002   8.635  0.0560  0.0569  0.2040
44643W        W87555  29.691  13.535  10.451 -0.1559  0.2577  0.3908
44644W        W87556  30.741  13.972   9.503 -0.0252 -0.0907  0.0262
44645W        W87557  29.653  11.366   7.685 -0.0228 -0.0126  0.0070
44646W        W87558  31.341  10.866  10.539 -0.1673 -0.1011 -0.1239
44647W        W87559  32.540  10.632  10.376 -0.0153 -0.0188  0.1689
44648W        W87560  30.289  12.440   8.038 -0.2276 -0.1175  0.3984
44649W        W87561  31.541  11.050   8.021 -0.0501 -0.2156 -0.0054
44650W        W87562  31.020  11.886   9.877  0.0587 -0.0473 -0.0603
44651W        W87563  29.610  12.286  10.619  0.0218 -0.0104 -0.0265
44652W        W87564  30.006  12.515   8.467 -0.0896 -0.1491  0.1500
44653W        W87565  30.677  12.006   7.280  0.0853 -0.2205 -0.5533
44654W        W87566  29.673   9.081   8.851  0.0299 -0.2851 -0.0524
44655W        W87567  29.997  11.566   8.033  0.1275 -0.0121 -0.0005
44656W        W87568  28.131  12.622  10.813  0.0446  0.0881 -0.3265
44657W        W87569  30.602  13.113  10.193 -0.2531 -0.1828  0.5565
44658W        W87570  29.842  11.555   8.528  0.2885  0.0635  0.3435
44659W        W87571  32.889  12.639   8.285  0.0354 -0.1815  0.3226
44660W        W87572  32.582  11.344   9.891  0.0719  0.1537 -0.2875
44661W        W87573  30.503  14.880   8.144 -0.3256  0.0679 -0.1440
44662W        W87574  31.479  12.279   9.999  0.0592 -0.1436  0.4939
44663W        W87575  31.580  13.164  10.294 -0.3719  0.0898  0.0101
44664W        W87576  29.864  11.498  10.126  0.2995 -0.0945  0.4799
44665W        W87577  31.824  13.330   9.627 -0.0693  0.2441 -0.2281
44666W        W87578  33.407  15.112  10.602  0.0850  0.1825 -0.4949
44667W        W87579  30.094  10.560   8.985  0.0027 -0.3420 -0.0533
44668W        W87580  27.651  10.998   9.708  0.1410 -0.0728  0.0162
44669W        W87581  30.204  13.671   8.887  0.0619  0.1063 -0.0807
44670W        W87582  34.115  13.729  10.609  0.3241  0.4714  0.1580
44671W        W87583  30.252  14.174   7.882  0.1134 -0.0151 -0.0845
44672W        W87584  33.075  15.771  10.379  0.1797  0.0214 -0.2430
44673W        W87585  29.713  11.090   7.241 -0.1058 -0.2724  0.2807
44674W        W87586  30.400  14.077   9.059  0.1946  0.2183 -0.0573
44675W        W87587  32.037  14.594   9.915  0.0058  0.0545 -0.0366
44676W        W87588  32.530  14.991  10.122 -0.0076 -0.1109  0.1205
44677W        W87589  30.000  10.804   8.507  0.2781  0.0005  0.1415
44678W        W87590  32.379  14.813  10.577 -0.0426 -0.1192  0.1292
44679W        W87591  30.167  10.978   9.325 -0.2456 -0.3867 -0.2645
44680W        W87592  33.211  11.137   7.773  0.0366 -0.2754  0.0329
44681W        W87593  31.648  10.780   9.212 -0.2330  0.1201 -0.4314
44682W        W87594  31.040   9.092  10.363 -0.0575  0.1130 -0.4027
44683W        W87595  28.854  12.522   8.549  0.0621 -0.0073  0.1455
44684W        W87596  30.630  13.573   7.157 -0.1160 -0.0761  0.1994
44685W        W87597  29.231  12.312  10.202 -0.2505  0.0758 -0.2203
44686W        W87598  30.402  13.389   9.813  0.0589  0.0388 -0.2959
44687W        W87599  29.804  11.064   9.906  0.4612 -0.3868 -0.1557
44688W        W87600  31.352  13.312   9.121  0.1965 -0.0355  0.0455
44689W        W87601  30.477   9.747   9.980  0.0716 -0.1057 -0.1966
44690W        W87602  28.437  11.754   9.996  0.2157  0.0940 -0.0627
44691W        W87603  31.676  13.702   9.188  0.1051  0.0908 -0.0682
44692W        W87604  29.751  10.142   9.057 -0.0204  0.0301  0.2673
44693W        W87605  28.927  12.989   8.408  0.1299  0.3425  0.0075
44694W        W87606  29.070  11.030   8.372  0.0767 -0.0844 -0.0715
44695W        W87607  30.321  11.272   9.682 -0.0255  0.0599 -0.3342
44696W        W87608  30.869  14.222   9.094 -0.0278  0.0956 -0.2740
44697W        W87609  32.057  13.373   8.119  0.0359  0.0536 -0.0777
44698W        W87610  26.977   9.548   9.321  0.0403  0.1818  0.0997
44699W        W87611  31.441  12.947   7.418  0.0232  0.0318  0.1523
44700W        W87612  31.403  13.427   9.869  0.3734  0.1073  0.4556
44701W        W87613  32.016   9.430  10.290  0.0836  0.0040 -0.2179
44702W        W87614  31.306  11.930   8.492  0.1225 -0.0566  0.0706
44703W        W87615  33.337  13.244   9.817 -0.3378  0.1420 -0.0422
44704W        W87616  30.902  11.795   8.207  0.2243 -0.1369 -0.1938
44705W        W87617  31.211  10.780   7.761 -0.0905 -0.1953 -0.0473
44706W        W87618  31.471  13.224   8.194  0.0076  0.0461 -0.0152
44707W        W87619  30.194  12.392   9.830  0.3717 -0.2283 -0.2005
44708W        W87620  30.243  12.249   8.877  0.2138  0.0805  0.3219
44709W        W87621  32.203  12.683   9.807  0.0566 -0.2914 -0.0833
44710W        W87622  29.788  12.573   8.898  0.2740 -0.0051  0.1836
44711W        W87623  31.472  11.989   7.437 -0.0988 -0.2829 -0.4652
44712W        W87624  34.010  15.672   9.299  0.2026  0.2404  0.4200
44713W        W87625  31.159  14.640   9.183 -0.1845 -0.1264  0.0101
44714W        W87626  30.260  13.672   9.428 -0.1274 -0.2880  0.3409
44715W        W87627  29.407  10.825   9.601 -0.0605 -0.0481  0.1571
44716W        W87628  30.607  13.522   8.614 -0.1233 -0.1062  0.0266
44717W        W87629  31.068  13.092  10.270  0.0630  0.0225 -0.0162
44718W        W87630  31.030  12.831   9.315  0.3068 -0.0770  0.2197
44719W        W87631  29.910  10.587   9.450 -0.0708 -0.1726  0.0494
44720W        W87632  31.002  10.681   9.132  0.0882 -0.1458  0.3164
44721W        W87633  30.755  14.924   9.108 -0.2040 -0.1222 -0.4844
44722W        W87634  30.938  12.619   8.827  0.0167 -0.2357 -0.3113
44723W        W87635  30.090  16.860   2.744 -0.1720  0.2950 -0.0896
44724W        W87636  30.370  14.712   2.253  0.3671  0.1548  0.0740
44725W        W87637  33.220  16.276  31.039 -0.0489  0.0714  0.0852
44726W        W87638  34.097  16.704  31.375  0.2151  0.2880  0.2271
44727W        W87639  29.414  14.164   1.729  0.1950 -0.0553  0.2604
44728W        W87640  32.472  17.384   2.283  0.1354  0.3378  0.0001
44729W        W87641  29.775  15.237   1.927 -0.1413 -0.0989 -0.1223
44730W        W87642  31.268  17.921   1.087 -0.1984 -0.1435 -0.2599
44731W        W87643  32.784  18.254   3.953 -0.2347  0.2919 -0.0155
44732W        W87644  31.670  13.113   0.792  0.1857 -0.1708  0.1208
44733W        W87645  31.258  16.686   1.847  0.1003 -0.1244 -0.1754
44734W        W87646  30.538  18.040   2.973 -0.0225  0.1101  0.3476
44735W        W87647  32.401  14.109   0.258  0.0787 -0.2603 -0.1379
44736W        W87648  29.712  14.544   0.452 -0.3662  0.0386 -0.0352
44737W        W87649  31.494  16.254   1.852  0.0224  0.0269  0.0149
44738W        W87650  29.322  15.590   0.655 -0.1922  0.0055 -0.3298
44739W        W87651  29.451  14.610   2.543  0.3209 -0.1894  0.0309
44740W        W87652  31.450  16.944  31.536  0.2852  0.2315  0.2123
44741W        W87653  31.364  17.240   2.665  0.3111  0.1077 -0.2325
44742W        W87654  30.764  16.779   1.856  0.2321 -0.0092  0.0375
44743W        W87655  31.526  15.630   3.052 -0.1422  0.1308  0.0973
44744W        W87656  32.199  17.738  31.902  0.2654  0.1339  0.0437
44745W        W87657  28.652  17.178   0.567 -0.1877  0.2124 -0.1364
44746W        W87658  28.560  15.584   2.090 -0.1856 -0.0686  0.0290
44747W        W87659  30.145  17.187   3.586  0.0822  0.0800  0.0068
44748W        W87660  31.122  15.916   1.600  0.0772  0.3835  0.1914
44749W        W87661  32.193  16.103   0.934 -0.1841 -0.1451  0.1842
44750W        W87662  30.440  17.891   0.921 -0.2000 -0.0044  0.1330
44751W        W87663  32.172  17.914   1.101 -0.1496 -0.0663 -0.0733
44752W        W87664  32.097  16.371   3.481  0.0363 -0.2026  0.0056
44753W        W87665  29.970  17.777   1.193  0.0401 -0.0674 -0.2996
44754W        W87666  30.372  17.640   2.677  0.2828 -0.1091  0.2528
44755W        W87667  30.864  16.239   0.815 -0.0355  0.1143  0.2254
44756W        W87668  32.299  16.972   2.064 -0.6296  0.1570 -0.0840
44757W        W87669  30.747  18.349   4.890  0.2441  0.0449  0.1157
44758W        W87670  29.014  16.620  30.738  0.0782  0.3791 -0.1212
44759W        W87671  29.977  17.623   3.668 -0.0125  0.3449  0.1914
44760W        W87672  30.665  16.454   2.249  0.2026  0.0219  0.1761
44761W        W87673  31.115  16.343   2.787  0.0334  0.0675 -0.0801
44762W        W87674  29.205  14.583   2.108  0.0536  0.0608 -0.1314
44763W        W87675  31.234  18.378   0.035  0.2947 -0.1552 -0.0257
44764W        W87676  30.080  16.803   1.140  0.0180  0.0864 -0.0186
44765W        W87677  30.920  16.440   3.306 -0.0220  0.2016 -0.4583
44766W        W87678  30.357  18.542   1.311 -0.2246 -0.2072 -0.1236
44767W        W87679  33.099  14.171   2.485  0.3641 -0.0571  0.0149
44768W        W87680  30.013  18.248   1.079 -0.1461  0.0382 -0.1158
44769W        W87681  31.695  16.099  29.871  0.0210  0.1501 -0.0546
44770W        W87682  31.221  15.642  30.885 -0.1032 -0.0283  0.0695
44771W        W87683  32.998  16.249  31.895 -0.0053 -0.0009  0.0090
44772W        W87684  29.120  15.062   0.550 -0.1578 -0.1700  0.0628
44773W        W87685  31.151  18.678   1.164  0.2649  0.1177 -0.3142
44774W        W87686  31.086  15.640   2.685  0.0303 -0.2053 -0.2250
44775W        W87687  31.968  17.507   2.511  0.2655  0.0056  0.0196
44776W        W87688  31.732  17.383  31.758  0.1769  0.0563 -0.0224
44777W        W87689  31.195  15.317   2.282  0.2316 -0.1273  0.0131
44778W        W87690  29.668  17.095   3.540 -0.2726  0.0279  0.2698
44779W        W87691  29.673  16.532   2.373 -0.3070  0.1601  0.0212
44780W        W87692  32.770  17.065  31.842 -0.1353 -0.4419  0.0906
44781W        W87693  32.325  17.265   0.581 -0.0959  0.0220 -0.1091
44782W        W87694  30.337  18.317  31.041 -0.0164  0.0834  0.2112
44783W        W87695  29.673  16.666   1.903 -0.2473 -0.1175 -0.2431
44784W        W87696  29.845  15.346   2.595 -0.1295 -0.0141  0.3089
44785W        W87697  30.041  15.390   1.521 -0.0560 -0.0282 -0.2293
44786W        W87698  29.427  15.006   0.143  0.6748  0.0441  0.1637
44787W        W87699  32.801  16.740   3.400  0.1638 -0.1997  0.1403
44788W        W87700  29.272  17.210   3.154 -0.2475 -0.1337  0.2183
44789W        W87701  31.705  16.088   1.040 -0.0012  0.0441 -0.2567
44790W        W87702  29.206  17.097   0.806  0.0121  0.0042 -0.1346
44791W        W87703  32.711  16.977   1.187 -0.1788  0.0728  0.1829
44792W        W87704  32.181  17.023   1.110  0.1107 -0.1076  0.2700
44793W        W87705  30.330  16.259   1.195 -0.3157 -0.0437  0.1837
44794W        W87706  31.701  13.926   2.771 -0.2298  0.0666  0.2530
44795W        W87707  30.532  17.188   0.598 -0.1285  0.0123 -0.1216
44796W        W87708  30.509  16.758   1.453 -0.0990  0.0971 -0.1359
44797W        W87709  33.804  17.912   2.632  0.1253  0.0622 -0.1611
44798W        W87710  33.529  16.624  31.403  0.1219  0.2576  0.1651
44799W        W87711  29.777  19.106   2.818  0.0509  0.2632  0.1846
44800W        W87712  30.546  15.352   3.278  0.0656 -0.1346 -0.2368
44801W        W87713  31.718  16.927   2.427  0.0719  0.1335 -0.0186
44802W        W87714  29.258  18.412   1.035 -0.0220  0.0522 -0.0141
44803W        W87715  28.847  17.791   2.087 -0.0709  0.0755  0.1778
44804W        W87716  28.824  16.330   0.260 -0.0044  0.0370 -0.1164
44805W        W87717  28.032  15.656   2.711  0.2869  0.1693  0.0945
44806W        W87718  30.555  17.451   2.189  0.0573  0.1080  0.1016
44807W        W87719  31.988  15.323   0.386 -0.1480  0.3184  0.0282
44808W        W87720  30.959  15.656   3.474 -0.0556  0.3094  0.0826
44809W        W87721  32.809  15.521   1.034  0.0778 -0.0679 -0.0399
44810W        W87722  29.208  16.303   1.084  0.0097 -0.0965  0.2801
44811W        W87723  31.338  18.018   0.387  0.1478 -0.1988  0.1345
44812W        W87724  30.762  16.041  31.795  0.1400 -0.3704  0.2829
44813W        W87725  32.115  18.276  31.839 -0.0923  0.0705  0.1423
44814W        W87726  30.817  14.496   2.975 -0.2533  0.1318 -0.0085
44815W        W87727  29.147  15.524   2.107  0.4171 -0.1816  0.0121
44816W        W87728  29.270  14.202   3.948 -0.1276  0.1241  0.0434
44817W        W87729  28.647  14.153   2.249 -0.3948  0.2363  0.1373
44818W        W87730  33.107  14.883   3.551 -0.1136 -0.0060  0.2237
44819W        W87731  29.859  13.839   0.371  0.1498  0.0530 -0.1005
44820W        W87732  31.015  16.258   1.976 -0.1945 -0.0584  0.1444
44821W        W87733  30.866  17.425  30.830 -0.1824 -0.0233 -0.2103
44822W        W87734  28.798  17.175   1.072  0.1823 -0.0904  0.0531
44823W        W87735  33.260  15.458   2.285  0.3064 -0.0925 -0.1683
44824W        W87736  31.703  17.901   0.790  0.0922  0.1108  0.0880
44825W        W87737  32.935  17.829   4.231  0.3108  0.1526 -0.1219
44826W        W87738  33.103  18.146   1.954  0.2700 -0.1732 -0.2925
44827W        W87739  29.351  15.160   2.399  0.0525  0.3045  0.1044
44828W        W87740  30.074  15.040   0.164 -0.1934  0.2746 -0.3417
44829W        W87741  30.743  19.085   2.386  0.0423  0.0952 -0.2765
44830W        W87742  29.653  16.988   1.352 -0.0480 -0.0765  0.0132
44831W        W87743  30.874  15.436   1.300  0.0070 -0.0242 -0.0765
44832W        W87744  32.437  17.230   1.550 -0.1107  0.0249 -0.3685
44833W        W87745  30.995  16.678   0.489 -0.1520  0.6092 -0.2410
44834W        W87746  29.068  17.605   3.714  0.2300  0.2821 -0.0703
44835W        W87747  32.186  14.752   2.900 -0.1827  0.0963  0.1556
44836W        W87748  32.681  16.952   2.491  0.0284 -0.2330  0.1894
44837W        W87749  31.650  15.947   1.484 -0.2729 -0.0571  0.2684
44838W        W87750  29.886  13.209   0.077  0.0964  0.0361  0.1249
44839W        W87751  31.517  17.415   2.237  0.3796  0.1706  0.0279
44840W        W87752  28.662  17.869   0.293 -0.1061 -0.0149 -0.0989
44841W        W87753  29.412  18.067   1.439  0.2838 -0.2295  0.2574
44842W        W87754  31.304  17.396   1.265  0.2467 -0.1072  0.1057
44843W        W87755  31.875  14.403   0.916 -0.0244 -0.0717  0.1160
44844W        W87756  29.217  17.528   4.572 -0.1044  0.1057  0.0210
44845W        W87757  32.378  15.819   4.147 -0.0046 -0.1180 -0.2262
44846W        W87758  30.251  15.907  31.928 -0.1663  0.0382 -0.0267
44847W        W87759  30.748  16.694   2.736 -0.0224  0.2107 -0.1920
44848W        W87760  31.369  15.029   0.617 -0.1820  0.1101  0.2363
44849W        W87761  31.874  14.314  31.381  0.1244  0.0807  0.0481
44850W        W87762  31.484  16.002   2.685 -0.0136  0.3146 -0.0150
44851W        W87763  33.398  16.125   0.381  0.1621  0.2868 -0.1036
44852W        W87764  33.256  17.200  31.799 -0.0048 -0.0773  0.1136
44853W        W87765  31.483  14.538  30.946 -0.3422  0.1580  0.0497
44854W        W87766  29.464  17.427   4.011  0.0898  0.0468 -0.0811
44855W        W87767  31.893  15.775   0.586 -0.1173 -0.0335 -0.3562
44856W        W87768  30.864  17.177   2.511 -0.5146 -0.0617  0.0567
44857W        W87769  31.086  12.827  31.416 -0.0278 -0.1194  0.0983
44858W        W87770  32.722  18.782  31.728  0.2413  0.1237  0.2049
44859W        W87771  29.592  17.551   1.382  0.2668  0.0648  0.0750
44860W        W87772  32.052  17.305   3.313 -0.2227  0.3481 -0.1472
44861W        W87773  33.943  17.347   2.523 -0.2190  0.1359 -0.0801
44862W        W87774  30.609  14.607   1.778  0.0103 -0.3075  0.3317
44863W        W87775  30.858  14.980   2.084 -0.1319 -0.1773 -0.0641
44864W        W87776  30.733  15.777   0.959  0.2852 -0.0875  0.0652
44865W        W87777  28.093  19.292   1.174  0.0666 -0.2089  0.0574
44866W        W87778  31.350  15.711   1.166  0.0841  0.1834  0.1581
44867W        W87779  31.083  15.339   3.092  0.3802 -0.2259  0.1106
44868W        W87780  32.352  14.243   2.191  0.0038  0.1598  0.2031
44869W        W87781  32.960  16.442   2.663  0.1979 -0.0635  0.2337
44870W        W87782  31.461  15.499   0.347 -0.0030  0.1660  0.1331
44871W        W87783  31.369  16.356   1.376  0.0231  0.3940 -0.0772
44872W        W87784  29.800  17.751   0.349  0.2066 -0.0425 -0.1126
44873W        W87785  32.953  15.309   2.658  0.3080 -0.1808 -0.2159
44874W        W87786  29.605  16.116   3.816  0.0933  0.0055 -0.0424
44875W        W87787  29.670  16.572   3.718 -0.3346 -0.2948  0.0822
44876W        W87788  32.506  16.218   2.617 -0.0409 -0.0929  0.0235
44877W        W87789  30.595  15.825   1.470  0.1066 -0.3653  0.1221
44878W        W87790  31.752  15.949   2.136  0.0223 -0.3270 -0.0696
44879W        W87791  30.984  15.252   0.411  0.1527  0.2120 -0.1278
44880W        W87792  32.045  17.061  31.476 -0.1916 -0.0307  0.0550
44881W        W87793  29.498  18.004   0.876  0.4706  0.0259 -0.1273
44882W        W87794  29.687  15.877   2.826 -0.0905 -0.0589 -0.2519
44883W        W87795  32.137  17.674   1.546  0.1134  0.1497  0.0304
44884W        W87796  30.084  18.070   1.567 -0.0179 -0.2370 -0.3032
44885W        W87797  30.932  16.709   1.003 -0.0212 -0.2077 -0.0339
44886W        W87798  30.600  17.651   0.465 -0.0187 -0.2946  0.0411
44887W        W87799  31.907  13.534   1.581  0.1375  0.0146 -0.0726
44888W        W87800  30.243  18.430   2.209  0.0289  0.1679 -0.0608
44889W        W87801  29.740  16.075   1.473  0.0196  0.1542 -0.2402
44890W        W87802  29.204  16.920   1.761  0.0969  0.1085 -0.5593
44891W        W87803  32.334  15.542   0.118  0.1388  0.0643 -0.0171
44892W        W87804  33.074  17.344   0.292  0.3268 -0.1844  0.1005
44893W        W87805  29.904  16.936   2.268  0.0997  0.1254 -0.1769
44894W        W87806  30.392  14.398   1.340 -0.1375 -0.2986  0.1254
44895W        W87807  30.143  16.158   3.011  0.0984  0.1233  0.3662
44896W        W87808  31.243  14.414   2.702 -0.0318  0.0696  0.0132
44897W        W87809  30.974  15.740  31.407  0.0707  0.0268 -0.3705
44898W        W87810  31.767  17.092   2.914 -0.1946 -0.0973 -0.0833
44899W        W87811  31.739  15.442   2.317 -0.2027  0.2748 -0.1114
44900W        W87812  26.348  15.245   0.297 -0.2944  0.0600  0.0197
44901W        W87813  32.988  16.289   1.676 -0.1181 -0.0072 -0.0890
44902W        W87814  30.353  15.994   2.253 -0.0536 -0.1916 -0.0047
44903W        W87815  29.483  17.846  30.731 -0.0385  0.0047 -0.0762
44904W        W87816  32.834  16.657   2.107  0.1555  0.0421 -0.0577
44905W        W87817  29.463  16.818  31.950 -0.0079 -0.1625 -0.0722
44906W        W87818  29.992  16.840   0.105  0.0706 -0.4468  0.0822
44907W        W87819  29.744  14.883   2.915  0.0141 -0.1197 -0.4379
44908W        W87820  32.498  16.452   1.828  0.0246  0.0760  0.1118
44909W        W87821  29.930  16.106   2.476 -0.0564  0.0979  0.1836
44910W        W87822  30.536  14.659   0.904 -0.0287 -0.2314 -0.1155
44911W        W87823  31.909  16.312   0.540  0.1377  0.0656 -0.0217
44912W        W87824  31.267  16.914   1.333  0.0966  0.0405 -0.0324
44913W        W87825  31.946  15.635   1.118 -0.2067 -0.2435  0.1743
44914W        W87826  30.713  17.080   3.778 -0.4287 -0.0252  0.0748
44915W        W87827  31.986  14.362   2.507  0.4209  0.0620 -0.0694
44916W        W87828  32.702  18.503   0.232 -0.2863 -0.3761  0.3141
44917W        W87829  33.219  16.605   3.059  0.0887 -0.0398  0.1747
44918W        W87830  31.746  16.873  31.936 -0.1477 -0.2606  0.0334
44919W        W87831  28.638  16.905   2.544 -0.0896  0.0018 -0.2124
44920W        W87832  29.605  15.775   1.098  0.2196  0.1610  0.1210
44921W        W87833  30.635  15.754   2.922 -0.1194 -0.1688 -0.4345
44922W        W87834  30.062  17.346   2.078  0.2647  0.0302 -0.2271
44923W        W87835  29.783  17.393  31.941 -0.1160  0.4221 -0.3722
44924W        W87836  28.809  16.712   4.110 -0.0968 -0.4128  0.1472
44925W        W87837  31.200  16.081  31.636 -0.0647 -0.3074  0.0133
44926W        W87838  31.895  17.541   0.359 -0.5326 -0.1564  0.3589
44927W        W87839  30.126  15.819   1.176 -0.0444  0.0495 -0.1622
44928W        W87840  33.395  14.678   2.225 -0.2152 -0.4139 -0.1624
44929W        W87841  32.905  17.648  31.392  0.3208 -0.1732  0.4243
44930W        W87842  31.625  15.157   4.026 -0.1147 -0.1156 -0.1390
44931W        W87843  28.306  14.815   0.907 -0.2463 -0.0028  0.4886
44932W        W87844  32.369  17.759   0.646  0.0606  0.0734 -0.0497
44933W        W87845  29.122  15.914   3.749  0.0888 -0.0385 -0.0477
44934W        W87846  30.444  18.655   3.163 -0.3216 -0.0116  0.0441
44935W        W87847  30.064  16.371   3.458 -0.1166  0.1133 -0.1807
44936W        W87848  30.540  16.242   1.749 -0.0275  0.2762  0.0177
44937W        W87849  29.860  15.693   0.643 -0.3280  0.0018  0.0799
44938W        W87850  31.266  15.954   2.252 -0.3332 -0.0854  0.1318
44939W        W87851  32.332  17.746   3.303 -0.3010 -0.0968  0.1111
44940W        W87852  32.729  16.876   0.389 -0.0359 -0.0668  0.2475
44941W        W87853  32.400  16.076   0.433 -0.1930 -0.0767 -0.0105
44942W        W87854  30.082  16.926   1.775  0.1298 -0.0432  0.0732
44943W        W87855  31.457  16.046   0.081  0.2209  0.1620  0.3062
44944W        W87856  31.057  16.279   0.220  0.1994 -0.0793 -0.2966
44945W        W87857  29.721  16.168   1.989 -0.1672  0.2022 -0.0013
44946W        W87858  31.791  14.350   3.055  0.3773  0.2190 -0.1438
44947W        W87859  31.345  16.509   0.816  0.2380 -0.0130 -0.0573
44948W        W87860  32.228  15.606   2.191  0.1847  0.0303  0.1161
44949W        W87861  32.893  15.809   2.758 -0.1906  0.1122  0.1261
44950W        W87862  32.027  17.351   1.837  0.1990 -0.0095  0.1439
44951W        W87863  29.870  16.165   4.823  0.1023  0.1703  0.0982
44952W        W87864  29.364  15.987   4.677  0.0235 -0.0018 -0.1364
44953W        W87865  32.178  18.192   1.591  0.0760 -0.1957  0.1428
44954W        W87866  34.134  16.297  31.740  0.1345 -0.0578 -0.2228
44955W        W87867  31.525  15.072   1.984  0.0001  0.2519 -0.0706
44956W        W87868  32.227  17.165   0.000 -0.1240  0.0662 -0.0663
44957W        W87869  30.587  17.118   0.007  0.1550 -0.1254 -0.0597
44958W        W87870  29.819  16.342   1.036 -0.3356  0.1560 -0.2104
44959W        W87871  32.822  16.111   4.022  0.0451  0.0653  0.2084
44960W        W87872  30.148  15.536  31.628  0.1136 -0.2779  0.0868
44961W        W87873  31.765  14.631   2.137  0.1187  0.0392 -0.2885
44962W        W87874  31.092  19.260  31.253 -0.3518 -0.0060 -0.2051
44963W        W87875  33.718  17.276   1.148  0.1600  0.0929 -0.0145
44964W        W87876  29.907  16.584   0.513 -0.2102  0.0378 -0.0192
44965W        W87877  27.951  16.678   1.268  0.0123  0.1269  0.2286
44966W        W87878  30.409  17.198   2.890 -0.3261  0.4399 -0.0103
44967W        W87879  29.279  15.023  31.137  0.0105 -0.1588  0.2217
44968W        W87880  30.842  16.303   1.313 -0.1719 -0.1560 -0.2503
44969W        W87881  31.170  17.833   1.572  0.2732  0.1655 -0.0985
44970W        W87882  32.596  15.336   4.315 -0.0276  0.0659  0.0817
44971W        W87883  31.400  14.512   1.076  0.0002  0.2259 -0.3595
44972W        W87884  33.936  15.063   1.685  0.1523  0.2723  0.1271
44973W        W87885  30.280  17.404  31.693 -0.1104 -0.0676 -0.1488
44974W        W87886  31.910  14.294   0.360 -0.1026 -0.1216 -0.0352
44975W        W87887  31.431  17.612   3.301  0.1611  0.1087  0.1864
44976W        W87888  29.286  17.925   2.278 -0.1010  0.4320  0.1555
44977W        W87889  30.369  17.653   1.739 -0.0106  0.1799 -0.2746
44978W        W87890  31.042  13.866   2.014 -0.1659 -0.2815 -0.0144
44979W        W87891  32.342  16.558   2.335  0.0281  0.0200  0.0571
44980W        W87892  30.476  16.507   0.739 -0.4348  0.1206  0.4030
44981W        W87893   0.335  16.200   1.841 -0.0740 -0.2158 -0.2830
44982W        W87894  31.544  18.004   4.228  0.3071  0.0178 -0.0940
44983W        W87895  29.505  15.530   1.589 -0.1874  0.3372  0.2736
44984W        W87896  31.796  17.220   1.395 -0.1843 -0.0753  0.2130
44985W        W87897  33.314  16.398   2.258 -0.2676 -0.2126  0.0686
44986W        W87898  31.190  16.906   2.286  0.1657 -0.4663 -0.2418
44987W        W87899  30.428  16.658   3.680  0.1469  0.0952 -0.3304
44988W        W87900  29.276  16.725   3.406 -0.1274  0.2002  0.0037
44989W        W87901  30.749  17.128   1.217 -0.4574  0.1857  0.2602
44990W        W87902  30.267  15.221   2.311 -0.3307 -0.1747 -0.2862
44991W        W87903  32.465  17.895  31.482 -0.0446 -0.1476  0.0349
44992W        W87904  29.004  18.030   4.665 -0.0788 -0.1568 -0.0248
44993W        W87905  29.568  16.464   4.206 -0.3158 -0.4317 -0.1474
44994W        W87906  30.853  17.579  31.963  0.0722  0.2225 -0.1183
44995W        W87907  33.054  17.345   1.584  0.0709  0.0855 -0.2177
44996W        W87908  31.401  16.029   0.613  0.2104 -0.0699 -0.0866
44997W        W87909  31.673  17.129   0.466  0.0086  0.0288  0.1705
44998W        W87910  30.943  16.113  31.071 -0.0835  0.1132  0.2274
44999W        W87911  29.625  18.187   1.908 -0.0140 -0.5544 -0.0454
45000W        W87912  29.154  17.517  29.599  0.0567 -0.0187  0.1544
45001W        W87913  32.383  17.500   1.135 -0.2539  0.1737 -0.2057
45002W        W87914  29.873  19.524   1.518  0.3456  0.0887 -0.1970
45003W        W87915  31.416  16.414   3.252 -0.3158 -0.0891  0.2340
45004W        W87916  31.156  14.630  31.876 -0.0556  0.0930 -0.1907
45005W        W87917  32.463  16.564   0.788  0.2058  0.1768 -0.1880
45006W        W87918  32.735  15.528  31.583 -0.0021  0.0204  0.1853
45007W        W87919  31.910  17.937   2.552  0.0494  0.3803  0.0871
45008W        W87920  30.564  16.006   3.377  0.1017 -0.1544 -0.1901
45009W        W87921  30.372  15.411   1.129  0.0112  0.0100 -0.1773
45010W        W87922  30.009  16.382   3.976  0.2019  0.0070  0.0664
45011W        W87923  32.351  16.134   3.109 -0.3055 -0.2107 -0.5678
45012W        W87924  28.694  17.374   2.374  0.1518 -0.0571 -0.2278
45013W        W87925  32.578  17.932   1.385 -0.1644  0.1785 -0.0757
45014W        W87926  29.219  15.100   1.808  0.4478 -0.0938 -0.0548
45015W        W87927  30.130  16.011   1.806 -0.1517  0.2636 -0.1123
45016W        W87928  33.306  15.243   1.680  0.2592  0.2955  0.2359
45017W        W87929  31.656  16.707  31.048  0.0790  0.0871  0.2406
45018W        W87930  30.018  16.480   1.541  0.1639 -0.1606 -0.2027
45019W        W87931  31.667  18.030   1.615 -0.0950  0.0636  0.3763
45020W        W87932  30.708  17.953   2.091 -0.0012 -0.0288 -0.1544
45021W        W87933  31.872  17.794   2.093  0.0624 -0.2704  0.0055
45022W        W87934  29.808  14.152   0.937 -0.0216  0.0547  0.1444
45023W        W87935  32.100  16.233   1.572  0.1019  0.1913  0.1398
45024W        W87936  29.262  16.123   2.373  0.5164  0.0577  0.1202
45025W        W87937  32.781  15.215   3.385 -0.1547  0.0153 -0.3148
45026W        W87938  30.488  17.197   1.705 -0.1889 -0.1184  0.1285
45027W        W87939  33.249  15.726   0.609 -0.3290 -0.0051 -0.0942
45028W        W87940  30.415  16.937   2.243  0.2301 -0.0251 -0.0343
45029W        W87941  29.724  17.658   2.344 -0.1930  0.2236 -0.3409
45030W        W87942  31.024  17.301   0.386 -0.0965 -0.3452  0.0329
45031W        W87943  33.346  15.936   2.497  0.0081  0.1812 -0.0398
45032W        W87944  33.084  16.630   1.329  0.0944  0.1245  0.1326
45033W        W87945  30.915  17.881   3.665  0.0789 -0.2267 -0.0307
45034W        W87946  28.725  15.092   1.779 -0.0296  0.1102  0.1073
45035W        W87947  31.140  15.675  31.937 -0.1739 -0.1183 -0.1537
45036W        W87948  29.112  17.311   1.468 -0.0656 -0.2371 -0.2702
45037W        W87949  30.949  15.147   3.527  0.0178  0.0021  0.0275
45038W        W87950  33.212  17.595   1.976 -0.2402  0.0338 -0.0853
45039W        W87951  30.554  14.080   1.670 -0.1858  0.3184 -0.0922
45040W        W87952  33.241  18.860  31.467  0.1006 -0.2262  0.3627
45041W        W87953  31.824  14.939   1.208 -0.1860  0.2389 -0.0017
45042W        W87954  29.919  17.556  30.724 -0.0338  0.0158 -0.0043
45043W        W87955  32.984  16.474   0.831  0.0105 -0.0624  0.0208
45044W        W87956  32.115  15.924   2.735 -0.0702  0.1820  0.2275
45045W        W87957  28.476  14.844   2.646 -0.1957  0.1523 -0.1159
45046W        W87958  32.622  18.343   1.977 -0.0747  0.1340  0.3248
45047W        W87959  33.266  16.724   1.807  0.1178 -0.2217 -0.2252
45048W        W87960  31.234  15.047   1.207 -0.3249 -0.1446  0.0190
45049W        W87961  29.279  16.906   3.855 -0.0510  0.1521  0.1929
45050W        W87962  30.092  18.096   0.623  0.3215  0.2821  0.2328
45051W        W87963  32.535  16.634   2.955 -0.4340 -0.1469 -0.2956
45052W        W87964  34.212  14.732   2.861 -0.0826 -0.0085  0.1600
45053W        W87965  30.885  18.044   0.156 -0.0715 -0.0534  0.2069
45054W        W87966  32.475  15.561   2.740 -0.0208  0.1432 -0.1257
45055W        W87967  31.134  17.407   3.624  0.1998  0.0864 -0.1416
45056W        W87968  31.176  17.714   4.092 -0.2505  0.1091 -0.0983
45057W        W87969  31.612  17.338  31.218  0.0050 -0.1297  0.0314
45058W        W87970  31.124  17.193   4.098 -0.0596  0.0846  0.0357
45059W        W87971  31.228  16.967   0.077 -0.3972  0.0639 -0.0591
45060W        W87972  31.260  17.071   0.808  0.1956  0.1003 -0.2422
45061W        W87973  32.888  16.174   2.238 -0.0550 -0.2495  0.0320
45062W        W87974  30.315  17.420   1.056 -0.1180 -0.0601  0.2676
45063W        W87975  33.398  17.385   0.724 -0.0105  0.0354 -0.1281
45064W        W87976  30.652  15.049   1.464  0.1077 -0.2886  0.0642
45065W        W87977  31.639  15.384   0.833 -0.1236  0.0577  0.0181
45066W        W87978  32.042  14.318  31.839  0.1236 -0.2256  0.0703
45067W        W87979  30.179  16.517   2.044 -0.1096  0.0797  0.1792
45068W        W87980  29.262  16.597   0.634  0.0109 -0.1647  0.0898
45069W        W87981  30.070  17.088   0.617  0.0480  0.0598 -0.3851
45070W        W87982  31.046  17.158   1.839 -0.0502 -0.0011 -0.0394
45071W        W87983  31.576  17.559   1.735 -0.1222  0.0794  0.0811
45072W        W87984  28.483  15.769   3.607 -0.4603  0.2594  0.4731
45073W        W87985  29.097  16.621   2.616 -0.0178  0.0345 -0.0898
45074W        W87986  29.592  15.005   1.492  0.0113  0.1884  0.2083
45075W        W87987  32.265  16.538  31.192 -0.1234  0.1877 -0.0430
45076W        W87988  29.573  14.243   2.201 -0.1689  0.3020  0.0127
45077W        W87989  28.275  15.087   1.939 -0.0155 -0.0792  0.2850
45078W        W87990  32.003  16.546   1.168  0.0654  0.1984  0.0734
45079W        W87991  33.482  16.586   0.952 -0.1226  0.1158  0.0438
45080W        W87992  30.022  16.112   0.329 -0.4487 -0.1313  0.1912
45081W        W87993  32.469  17.867   4.155  0.2426  0.0632 -0.1185
45082W        W87994  29.697  16.116  30.437 -0.1808  0.4392  0.1313
45083W        W87995  32.253  14.937   4.117 -0.0852 -0.0717  0.0963
45084W        W87996  32.320  15.842   3.595  0.0966 -0.1256 -0.1487
45085W        W87997  29.582  15.495   0.170  0.2435 -0.1667 -0.4358
45086W        W87998  31.201  14.758   1.709 -0.1726 -0.1204  0.0038
45087W        W87999  30.870  17.515   0.846  0.1470 -0.2641  0.1742
45088W        W88000  32.503  18.033   0.233 -0.0253 -0.1533  0.1564
45089W        W88001  29.570  16.960   2.773  0.0054  0.2080 -0.0936
45090W        W88002  30.669  17.974   5.326  0.0275 -0.0980 -0.0248
45091W        W88003  29.251  15.755   3.275 -0.4016  0.1525 -0.2187
45092W        W88004  32.843  16.868   1.679  0.4508 -0.2736  0.3006
45093W        W88005  31.148  16.889   3.532 -0.3890  0.3911 -0.1736
45094W        W88006  33.010  16.493   0.340 -0.3542 -0.0914  0.0573
45095W        W88007  33.045  15.141   1.224  0.0523  0.0510  0.1015
45096W        W88008  30.629  15.662   0.111 -0.0663  0.1523  0.0545
45097W        W88009  29.742  14.291   4.668  0.0496  0.3285 -0.1768
45098W        W88010  30.322  16.403   2.599  0.0722 -0.0395  0.2081
45099W        W88011  33.295  17.093   1.077  0.0663 -0.0603 -0.2124
45100W        W88012  29.344  14.137   2.705  0.3300  0.3776 -0.1686
45101W        W88013  32.007  15.718   1.757  0.1554  0.2892  0.0699
45102W        W88014  31.525  16.547   0.282 -0.0776 -0.0962  0.1819
45103W        W88015  29.026  16.255   4.987 -0.0361 -0.0905 -0.0787
45104W        W88016  31.480  14.769  31.433 -0.0195  0.1604 -0.1188
45105W        W88017  32.699  15.667   3.236  0.1701  0.1512 -0.1570
45106W        W88018  31.760  17.691   1.237 -0.1941  0.1625 -0.1146
45107W        W88019  32.650  17.640   1.841  0.2367  0.3150 -0.0683
45108W        W88020  30.473  16.702   0.307  0.4305 -0.1464  0.1545
45109W        W88021  34.263  16.257   0.224 -0.1981  0.2079 -0.1468
45110W        W88022  30.864  17.690   2.702 -0.2988  0.1219 -0.0533
45111W        W88023  31.937  17.625   4.193 -0.1984 -0.3115  0.3403
45112W        W88024  31.554  18.159   3.085 -0.1417  0.2089  0.2559
45113W        W88025  32.092  16.883   0.429 -0.1935 -0.0496  0.2243
45114W        W88026  30.410  15.450   1.917  0.2562 -0.0513  0.4504
45115W        W88027  29.996  17.359   1.493 -0.3365  0.4387  0.0872
45116W        W88028  29.299  17.293  31.931 -0.1047 -0.2318  0.0481
45117W        W88029  31.937  16.356   2.517  0.1282  0.0219 -0.1782
45118W        W88030  30.193  14.963   1.200 -0.0911  0.1880 -0.3440
45119W        W88031  30.446  15.908  31.420  0.0724 -0.1607  0.1651
45120W        W88032  31.044  17.373   3.079  0.4643  0.0198  0.1040
45121W        W88033  31.732  16.685   1.544  0.1138 -0.0677 -0.0816
45122W        W88034  31.469  17.474   6.830  0.1118  0.1170  0.0199
45123W        W88035  30.773  15.764   5.759 -0.2642 -0.0432 -0.0376
45124W        W88036  31.630  14.744   3.351 -0.2213  0.1159 -0.1367
45125W        W88037  33.798  16.080   4.115 -0.3613 -0.4696  0.3280
45126W        W88038  29.107  14.689   6.385  0.3779 -0.0299  0.2366
45127W        W88039  32.027  17.172   3.785  0.2313 -0.1473  0.0923
45128W        W88040  30.105  14.880   6.874 -0.0076  0.0356  0.1364
45129W        W88041  32.439  16.530   5.654 -0.1502 -0.0425  0.0528
45130W        W88042  33.519  17.344   5.638 -0.1867  0.2628 -0.0278
45131W        W88043  31.819  16.318   2.987  0.0959 -0.2350  0.0247
45132W        W88044  30.840  16.618   6.582  0.0601 -0.1689  0.0038
45133W        W88045  30.936  18.964   6.664 -0.3841 -0.1797 -0.1069
45134W        W88046  32.220  15.572   3.165 -0.2218 -0.0314 -0.1895
45135W        W88047  29.483  14.443   6.328  0.1784 -0.0969 -0.1240
45136W        W88048  31.702  15.840   6.948  0.1576  0.0691  0.1042
45137W        W88049  29.922  16.355   5.840 -0.2294  0.1526 -0.2570
45138W        W88050  30.548  14.989   7.160 -0.2678  0.3187  0.3036
45139W        W88051  30.168  15.741   5.154 -0.1180  0.1445 -0.0593
45140W        W88052  32.270  17.693   5.863  0.0953  0.0820  0.0414
45141W        W88053  32.751  15.013   7.892  0.1078 -0.0482  0.2580
45142W        W88054  31.871  14.210   6.200  0.0860  0.1570  0.0938
45143W        W88055  31.513  17.919   5.353  0.1878 -0.0851  0.1309
45144W        W88056  28.426  15.708   4.271 -0.2399 -0.0735 -0.2266
45145W        W88057  29.289  16.514   7.212  0.2023 -0.1315  0.0001
45146W        W88058  29.782  15.198   7.513 -0.0817 -0.1121 -0.0652
45147W        W88059  31.779  16.084   4.850  0.4517  0.2200  0.2762
45148W        W88060  31.109  15.930   6.103 -0.0473 -0.1380 -0.1349
45149W        W88061  30.221  19.407   7.277 -0.1124  0.1211 -0.0670
45150W        W88062  31.292  18.356   4.457 -0.0070 -0.0216 -0.1323
45151W        W88063  32.293  16.489   6.925  0.0329  0.0300  0.0304
45152W        W88064  29.296  16.932   4.841  0.1935 -0.3861  0.2798
45153W        W88065  29.228  17.488   5.152  0.1054 -0.0376  0.0591
45154W        W88066  31.096  17.635   5.339 -0.0469 -0.1510  0.1577
45155W        W88067  33.244  17.768   5.981  0.2309 -0.0712 -0.3126
45156W        W88068  31.768  17.768   5.950  0.0181 -0.0433  0.2269
45157W        W88069  31.053  17.662   7.950 -0.3628  0.1952  0.1362
45158W        W88070  31.006  17.896   3.152  0.0801 -0.0188 -0.2069
45159W        W88071  31.179  18.535   6.490 -0.2310  0.0651 -0.3591
45160W        W88072  30.601  18.438   7.156 -0.0827  0.0576 -0.1652
45161W        W88073  30.340  15.741   6.570 -0.1341 -0.1510  0.0347
45162W        W88074  32.528  16.414   4.932 -0.1511 -0.0754 -0.1509
45163W        W88075  30.879  18.059   4.386  0.2194 -0.0021 -0.0967
45164W        W88076  31.141  16.373   5.255 -0.0522 -0.1001 -0.1570
45165W        W88077  31.314  17.246   8.824  0.2314 -0.0061 -0.1738
45166W        W88078  29.786  17.124   5.797  0.0671  0.1779 -0.2159
45167W        W88079  33.286  14.578   8.186 -0.0084  0.0754  0.1917
45168W        W88080  30.399  17.347   3.994 -0.2516  0.0146 -0.0308
45169W        W88081  30.618  16.251   2.935  0.1135  0.0655 -0.0263
45170W        W88082  31.417  15.746   3.601  0.0898  0.3135 -0.2074
45171W        W88083  31.724  15.776   4.340 -0.1268  0.0997  0.2177
45172W        W88084  30.592  14.842   5.394 -0.3150  0.3370 -0.1494
45173W        W88085  31.521  17.456   5.061 -0.0191 -0.0537 -0.2789
45174W        W88086  30.332  15.571   6.080  0.1465 -0.0114 -0.2495
45175W        W88087  32.210  17.142   5.424 -0.1083 -0.0916  0.0427
45176W        W88088  31.317  16.124   4.659  0.0291  0.0114  0.0064
45177W        W88089  31.110  15.080   7.020  0.2064 -0.3497  0.2265
45178W        W88090  30.462  17.282   6.639 -0.0119  0.0313 -0.2384
45179W        W88091  30.153  16.728   6.047  0.2842 -0.1008  0.0829
45180W        W88092  31.733  16.813   4.369  0.0395 -0.1921 -0.2718
45181W        W88093  33.149  17.282   4.706 -0.1079 -0.1713 -0.1436
45182W        W88094  31.661  18.133   3.734  0.1573  0.2780 -0.1764
45183W        W88095  29.926  15.750   5.714 -0.1755  0.0328  0.3333
45184W        W88096  30.396  15.056   7.696  0.0114  0.0230  0.4227
45185W        W88097  27.951  17.057   7.084 -0.2122 -0.2955 -0.1962
45186W        W88098  30.232  14.965   1.740  0.3428  0.0724  0.1925
45187W        W88099  33.504  16.493   6.197  0.2068  0.0151 -0.0870
45188W        W88100  29.136  17.184   7.750  0.0047  0.3524  0.0813
45189W        W88101  33.373  14.690   5.231  0.2976 -0.1846 -0.0640
45190W        W88102  30.352  18.038   6.180 -0.0690  0.3725  0.1018
45191W        W88103  32.693  16.748   5.313  0.0832 -0.0882 -0.0545
45192W        W88104  32.229  16.751   1.514  0.1210 -0.0157  0.3352
45193W        W88105  31.620  14.425   5.744 -0.4457  0.3811 -0.0749
45194W        W88106  31.463  13.924   6.042  0.1351 -0.3271  0.3689
45195W        W88107  30.354  16.885   4.134 -0.0423  0.2054  0.4284
45196W        W88108  31.344  16.501   4.305  0.1825  0.2855 -0.0696
45197W        W88109  33.554  16.855   5.897  0.0161 -0.0411 -0.1545
45198W        W88110  33.426  15.258   5.201  0.0317 -0.1873 -0.0309
45199W        W88111  30.305  17.325   5.692 -0.0439 -0.3399 -0.0173
45200W        W88112  31.234  15.750   6.868 -0.0719 -0.1231  0.0843
45201W        W88113  30.656  17.662   8.408 -0.2347  0.1512  0.0194
45202W        W88114  28.899  18.432   5.450 -0.1713  0.1393  0.0678
45203W        W88115  30.229  16.796   6.594  0.0867 -0.0760 -0.0770
45204W        W88116  29.477  16.482   4.656 -0.0432 -0.0356 -0.1298
45205W        W88117  28.510  14.828   6.774 -0.2915 -0.0184  0.1547
45206W        W88118  30.522  16.607   7.029 -0.1049 -0.2066  0.2924
45207W        W88119  31.673  14.636   4.998  0.0911  0.2342 -0.0685
45208W        W88120  29.602  15.915   7.731 -0.1281 -0.0139 -0.1076
45209W        W88121  30.759  15.223   5.735 -0.1179 -0.0765  0.0376
45210W        W88122  30.605  16.956   5.872 -0.1503 -0.1415 -0.0912
45211W        W88123  32.761  17.750   5.785  0.0953 -0.0222 -0.2816
45212W        W88124  33.052  15.986   5.114  0.2622  0.2035  0.4851
45213W        W88125  31.710  17.005   1.900 -0.0368 -0.3897  0.0554
45214W        W88126  29.087  16.012   7.091  0.3671  0.2695  0.2883
45215W        W88127  29.230  16.167   5.455 -0.3897 -0.1060 -0.6720
45216W        W88128  30.828  15.246   7.431 -0.2590 -0.2237  0.1056
45217W        W88129  30.844  15.787   6.517  0.2214  0.1575 -0.3267
45218W        W88130  32.560  16.898   6.211 -0.0352  0.0124 -0.1124
45219W        W88131  27.431  14.278   4.906 -0.3816 -0.0339  0.2291
45220W        W88132  32.084  15.649   7.118  0.0167  0.0964 -0.1178
45221W        W88133  30.490  16.578   4.457 -0.1059  0.0273  0.2201
45222W        W88134  28.985  15.677   4.571  0.0872 -0.0533 -0.2535
45223W        W88135  31.900  16.160   7.282 -0.1775  0.2354 -0.0233
45224W        W88136  32.361  16.337   3.947  0.0152  0.1193  0.1583
45225W        W88137  32.751  18.416   6.136 -0.2074  0.2465 -0.2500
45226W        W88138  33.302  18.157   5.130  0.1448 -0.2066 -0.0847
45227W        W88139  29.890  15.425   6.625 -0.2045 -0.0761  0.1075
45228W        W88140  29.684  15.716   4.990 -0.0171 -0.1417  0.1833
45229W        W88141  30.141  19.021   5.474  0.0337  0.0120  0.0891
45230W        W88142  31.081  16.500   6.092  0.1455 -0.2468  0.0454
45231W        W88143  30.855  15.933   3.910 -0.0055 -0.0651  0.3423
45232W        W88144   0.578  17.973   7.884 -0.0476 -0.1310 -0.1604
45233W        W88145  31.848  17.064   4.828  0.0289 -0.1094  0.0593
45234W        W88146  31.348  17.224   8.192 -0.2561 -0.0574  0.0131
45235W        W88147  31.677  13.330   7.178  0.0921  0.0070  0.0884
45236W        W88148  31.653  16.410   5.892 -0.1694  0.1120 -0.1229
45237W        W88149  31.961  16.042   3.929  0.1257 -0.0204  0.1386
45238W        W88150  31.175  15.429   3.933 -0.0670 -0.0988 -0.0211
45239W        W88151  32.773  18.659   5.680 -0.1940 -0.1182 -0.1652
45240W        W88152  29.205  17.841   4.151  0.0317 -0.0170 -0.0159
45241W        W88153  29.514  16.517   5.183  0.1681 -0.3855 -0.0474
45242W        W88154  30.967  16.695   5.624  0.0317 -0.0514 -0.1075
45243W        W88155  32.603  14.892   5.804  0.0819  0.0954 -0.0668
45244W        W88156  29.307  15.251   6.637  0.1264  0.0280  0.1815
45245W        W88157  31.795  14.918   7.046  0.1433 -0.1851  0.0072
45246W        W88158  29.167  17.056   5.624 -0.0183  0.0385  0.3109
45247W        W88159  31.363  16.768   7.469 -0.1407 -0.0162 -0.0652
45248W        W88160  31.781  14.868   4.552 -0.1524 -0.3032 -0.0221
45249W        W88161  32.073  14.184   5.638 -0.1742  0.0323  0.3419
45250W        W88162  31.897  17.574   5.409  0.0405  0.2182  0.0317
45251W        W88163  32.920  16.256   4.670 -0.0472 -0.0296  0.0587
45252W        W88164  30.646  14.918   3.040  0.4396 -0.0498  0.3593
45253W        W88165  31.140  15.017   4.265 -0.1257  0.0031 -0.1350
45254W        W88166  29.838  17.161   7.309  0.2921 -0.0594 -0.3289
45255W        W88167  31.458  16.811   3.918  0.1576 -0.1295  0.1963
45256W        W88168  31.709  17.013   6.682  0.2377 -0.1443  0.2466
45257W        W88169  31.182  15.977   3.159 -0.2858 -0.1053 -0.0441
45258W        W88170  33.576  17.900   4.733  0.0509  0.0002 -0.2620
45259W        W88171  30.737  17.046   6.306  0.0657 -0.0685 -0.3421
45260W        W88172  31.404  17.942   7.578  0.1496  0.2599 -0.0650
45261W        W88173  31.673  16.369   5.249 -0.0821  0.0860  0.0645
45262W        W88174  31.328  15.081   7.461 -0.0914  0.2424  0.1191
45263W        W88175  30.937  16.762   4.226 -0.0283 -0.0667 -0.1107
45264W        W88176  30.261  14.276   4.245  0.3176  0.2114 -0.0899
45265W        W88177  29.599  17.211   4.456  0.1989 -0.0214 -0.0981
45266W        W88178  32.701  14.585   5.372  0.1427 -0.1087 -0.0835
45267W        W88179  30.444  15.376   5.064 -0.2748  0.1375  0.3748
45268W        W88180  31.747  14.274   7.617 -0.0451 -0.1609 -0.1139
45269W        W88181  32.763  16.390   7.114 -0.0319  0.0932 -0.5679
45270W        W88182  32.461  15.897   4.971  0.1808 -0.0653 -0.0211
45271W        W88183  31.535  16.274   6.856 -0.1622  0.0229  0.2740
45272W        W88184  29.708  16.473   2.890 -0.0438  0.0334  0.1900
45273W        W88185  32.149  15.117   6.560 -0.1690  0.0244  0.1688
45274W        W88186  30.657  17.271   8.035  0.0176  0.2419  0.0221
45275W        W88187  29.943  18.951   7.355 -0.1058  0.3464 -0.1052
45276W        W88188  33.006  17.911   7.395  0.0904 -0.0587  0.1573
45277W        W88189  32.825  16.900   4.850 -0.1505 -0.0202  0.0679
45278W        W88190  32.601  15.479   6.594 -0.0913  0.3944 -0.2600
45279W        W88191  31.322  15.961   4.060 -0.2361  0.0437  0.0911
45280W        W88192  29.051  18.527   4.931 -0.1429 -0.1125  0.2193
45281W        W88193  30.609  17.492   5.265  0.0677 -0.1986  0.0259
45282W        W88194  30.364  15.978   5.552 -0.1173 -0.0534  0.2299
45283W        W88195  31.929  19.626   6.228  0.2359  0.1245  0.1198
45284W        W88196  30.736  17.054   4.537  0.0522  0.0601  0.0329
45285W        W88197  31.809  15.415   6.078 -0.1362 -0.2470  0.0997
45286W        W88198  30.469  17.393   4.790  0.0788 -0.0544  0.1916
45287W        W88199  30.603  14.916   6.131 -0.1982  0.0875 -0.1151
45288W        W88200  30.341  18.658   5.717  0.1258 -0.0930 -0.1567
45289W        W88201  31.055  15.795   4.435  0.0156 -0.2587  0.1659
45290W        W88202  28.465  16.731   5.427 -0.0444  0.0150  0.1452
45291W        W88203  31.298  15.643   5.554  0.1993 -0.4163  0.2202
45292W        W88204  32.586  16.338   3.490  0.2664  0.0727  0.1691
45293W        W88205  29.238  16.753   6.687 -0.1641 -0.1253 -0.2263
45294W        W88206  31.279  15.436   6.022 -0.1251 -0.0185 -0.4724
45295W        W88207  30.719  18.185   5.791 -0.0593 -0.0332  0.2850
45296W        W88208  31.463  16.698   5.539  0.0714 -0.3403 -0.2331
45297W        W88209  32.707  14.950   4.553 -0.4940  0.1749 -0.1246
45298W        W88210  32.799  17.947   6.309  0.1150 -0.1885  0.1945
45299W        W88211  31.093  16.206   6.547 -0.0211 -0.0534  0.2335
45300W        W88212  30.607  15.470   3.765 -0.1112  0.0305  0.1334
45301W        W88213  32.092  16.065   6.270 -0.0474 -0.1585 -0.1232
45302W        W88214  30.814  15.400   6.185  0.2564  0.1929  0.2428
45303W        W88215  29.830  17.486   4.872  0.0415  0.1602  0.1598
45304W        W88216  31.711  17.101   5.436  0.2833  0.1412 -0.2685
45305W        W88217  31.789  16.330   4.346  0.2733  0.4471 -0.1546
45306W        W88218  30.095  17.626   5.975  0.1107 -0.0918 -0.2985
45307W        W88219  31.495  14.589   7.205  0.0422  0.1983  0.2442
45308W        W88220  32.222  16.709   5.155  0.1890  0.0161 -0.0489
45309W        W88221  31.619  15.789   7.472  0.0313 -0.1484  0.1848
45310W        W88222  29.141  15.745   5.046 -0.1203  0.0488 -0.0223
45311W        W88223  31.937  16.680   5.569  0.3174  0.0458 -0.2351
45312W        W88224  33.535  17.283   6.164 -0.1224  0.1676  0.0824
45313W        W88225  31.584  15.341   6.949  0.0651 -0.0485 -0.1868
45314W        W88226  31.022  16.913   7.962  0.0928  0.1461  0.1021
45315W        W88227  30.269  14.439   5.353 -0.3325 -0.2964  0.2276
45316W        W88228  32.464  17.489   4.532 -0.2285  0.0621 -0.1787
45317W        W88229  31.716  17.032   7.941 -0.0737  0.0401 -0.2435
45318W        W88230  30.194  16.158   4.441  0.0102  0.1757  0.2496
45319W        W88231  29.552  17.164   5.308  0.0264  0.0492 -0.0233
45320W        W88232  30.373  16.879   4.857 -0.3164 -0.0027  0.1056
45321W        W88233  30.661  16.469   5.184 -0.1330 -0.2958  0.0904
45322W        W88234  30.576  17.524   6.214  0.3075  0.0358 -0.0947
45323W        W88235  29.976  16.598   4.457  0.0546 -0.0820 -0.0863
45324W        W88236  30.109  17.487   8.168  0.1956 -0.1729 -0.3071
45325W        W88237  32.708  13.887   4.590  0.0729  0.0161 -0.3098
45326W        W88238  31.434  16.447   2.329 -0.1736  0.1145 -0.1317
45327W        W88239  30.207  15.454   7.054  0.2983  0.2095 -0.3407
45328W        W88240  32.593  13.919   9.363 -0.3078 -0.1733 -0.2758
45329W        W88241  31.430  15.254   3.450  0.0047 -0.1222  0.0076
45330W        W88242  31.760  14.420   6.741 -0.0151 -0.2637 -0.0368
45331W        W88243  29.735  15.187   7.023 -0.0327 -0.0119  0.2997
45332W        W88244  34.026  16.217   4.507 -0.2721  0.3791 -0.2501
45333W        W88245  29.777  15.443   6.096  0.2375 -0.1259  0.1284
45334W        W88246  32.222  17.329   8.648 -0.2476  0.1726 -0.0926
45335W        W88247  29.921  15.950   6.721  0.0102  0.2676 -0.2156
45336W        W88248  30.784  14.862   3.967 -0.0496 -0.1183  0.0816
45337W        W88249  30.487  15.754   4.204 -0.0844  0.2710 -0.0218
45338W        W88250  31.221  15.507   7.307 -0.3635 -0.0359  0.1947
45339W        W88251  33.269  19.182   6.316 -0.1820  0.0452  0.0431
45340W        W88252  32.220  17.610   4.980 -0.2400 -0.1816 -0.1571
45341W        W88253  31.752  15.425   5.521 -0.1473 -0.2036  0.3275
45342W        W88254  30.778  16.118   6.958 -0.0627  0.1439 -0.0030
45343W        W88255  32.037  15.578   5.150 -0.2128 -0.1180  0.0110
45344W        W88256  33.501  16.063   5.291 -0.0008 -0.2190 -0.0436
45345W        W88257  32.209  16.158   4.547 -0.1019  0.0672 -0.3912
45346W        W88258  29.911  15.754   7.404  0.0545 -0.1801  0.1539
45347W        W88259  32.268  16.676   4.386 -0.1751  0.2589 -0.1581
45348W        W88260  30.891  15.514   5.300 -0.2055 -0.1714  0.1333
45349W        W88261  32.273  15.184   7.108  0.0151 -0.1792 -0.0360
45350W        W88262  32.810  15.521   8.134 -0.3538 -0.0488  0.0852
45351W        W88263  31.623  16.221   7.823  0.2839  0.0737  0.1107
45352W        W88264  29.668  15.408   8.162  0.2149  0.2215  0.0387
45353W        W88265  34.030  18.905   7.208  0.1180 -0.1569  0.0500
45354W        W88266  31.462  14.692   4.211  0.1564 -0.2190  0.1882
45355W        W88267  32.717  15.170   6.225 -0.2462 -0.2429 -0.1337
45356W        W88268  33.126  15.621   5.476 -0.1600 -0.1050 -0.0019
45357W        W88269  31.406  15.405   4.495 -0.3119 -0.0682  0.0779
45358W        W88270  30.254  17.155   6.205 -0.1144  0.1410  0.1327
45359W        W88271  32.200  16.943   7.830 -0.2014 -0.0404 -0.1658
45360W        W88272  30.199  15.955   3.791 -0.1899  0.1631 -0.0553
45361W        W88273  31.690  14.802   7.735 -0.0091 -0.3868  0.2845
45362W        W88274  31.266  17.579   4.576  0.1727 -0.0797  0.0343
45363W        W88275  32.339  17.040   4.771  0.0992  0.1832 -0.1973
45364W        W88276  32.049  15.390   4.069 -0.1320 -0.1410 -0.0122
45365W        W88277  29.056  16.778   6.098 -0.1874 -0.0631  0.2587
45366W        W88278  29.753  19.287   6.219 -0.0067 -0.1079  0.3707
45367W        W88279  29.507  14.987   4.583  0.2149  0.1425 -0.0493
45368W        W88280  31.633  16.344   3.780  0.2085  0.1416  0.1782
45369W        W88281  31.792  17.969   7.159 -0.0164 -0.2373 -0.1881
45370W        W88282  32.987  16.373   6.477 -0.0123 -0.2048 -0.3917
45371W        W88283  30.771  14.252   3.872 -0.1853 -0.0045  0.0754
45372W        W88284  33.785  14.797   6.825  0.1759  0.2384 -0.1319
45373W        W88285  30.898  16.253   4.289  0.0574 -0.4241 -0.2455
45374W        W88286  30.735  14.694   4.909  0.2190  0.4983  0.1331
45375W        W88287  30.779  18.563   6.192 -0.0542  0.2869 -0.0792
45376W        W88288  30.302  16.644   7.775 -0.2807  0.0003 -0.0409
45377W        W88289  31.384  17.391   5.746  0.2138 -0.0121 -0.0963
45378W        W88290  31.533  13.788   7.271 -0.1877  0.0855 -0.1276
45379W        W88291  31.226  15.326   6.529  0.4792  0.1055 -0.0505
45380W        W88292  31.467  15.744   6.387  0.0861  0.2354  0.1171
45381W        W88293  33.801  15.122   5.855  0.2145  0.0807 -0.1130
45382W        W88294  31.695  16.818   6.226 -0.0215 -0.4232 -0.0708
45383W        W88295  29.675  16.787   6.960 -0.1089  0.1303  0.3642
45384W        W88296  30.432  17.702   7.871 -0.0690 -0.1102  0.1294
45385W        W88297  33.823  16.031   3.521 -0.1568  0.0135 -0.1163
45386W        W88298  30.918  17.529   6.598 -0.2353 -0.0742  0.0397
45387W        W88299  29.224  15.606   7.392 -0.1769 -0.1194  0.1508
45388W        W88300  31.457  13.892   7.778 -0.1085  0.0088 -0.1548
45389W        W88301  31.123  15.562   4.870  0.1243 -0.4247 -0.3569
45390W        W88302  30.347  15.194   4.550 -0.0736  0.0613 -0.0936
45391W        W88303  30.830  16.923   5.032 -0.0198 -0.0039  0.3376
45392W        W88304  28.590  17.290   7.618  0.0137  0.3218 -0.1983
45393W        W88305  30.861  16.001   7.463 -0.0803 -0.1812 -0.2027
45394W        W88306  29.385  17.875   4.904  0.0103  0.2977 -0.0535
45395W        W88307  30.995  16.566   4.688  0.1256 -0.0895 -0.2215
45396W        W88308  32.110  17.157   4.330 -0.2388 -0.1114 -0.5743
45397W        W88309  30.945  19.466   5.757  0.2600 -0.2471  0.1935
45398W        W88310  31.485  16.627   4.808  0.3135 -0.0896  0.2509
45399W        W88311  30.896  17.175   5.485 -0.0557  0.0282  0.2338
45400W        W88312  28.588  17.517   3.831 -0.1010 -0.0845 -0.0755
45401W        W88313  31.641  17.060   3.445  0.0066 -0.1456  0.0164
45402W        W88314  30.890  18.036   6.284 -0.0451  0.1397  0.2154
45403W        W88315  32.554  17.556   6.221 -0.0300  0.0379 -0.3452
45404W        W88316  31.751  14.127   4.648 -0.0331  0.0675 -0.0334
45405W        W88317  31.818  15.923   5.383  0.1168  0.1295  0.1952
45406W        W88318  32.130  14.102   5.045  0.2900 -0.1460 -0.1201
45407W        W88319  32.327  16.971   6.820 -0.2652  0.3116  0.2075
45408W        W88320  30.990  14.482   6.289 -0.1543 -0.1484 -0.2882
45409W        W88321  29.867  16.813   3.228 -0.1459  0.1693  0.2478
45410W        W88322  31.231  17.094   6.482  0.0497 -0.2283 -0.0578
45411W        W88323  32.910  13.808   8.103 -0.0292  0.1298  0.1054
45412W        W88324  29.001  17.341   7.284 -0.1340  0.0644 -0.0100
45413W        W88325  31.850  17.554   4.651 -0.2599  0.0581 -0.2138
45414W        W88326  28.555  16.174   5.545  0.4179 -0.0100  0.2563
45415W        W88327  30.432  16.901   5.406 -0.1877 -0.0273  0.2093
45416W        W88328  32.652  14.016   6.481 -0.0520  0.0935 -0.2611
45417W        W88329  31.236  16.839   2.974  0.1569  0.0545 -0.1985
45418W        W88330  30.924  15.140   4.770  0.0835 -0.2399  0.0558
45419W        W88331  30.293  17.817   5.603 -0.0872  0.1608  0.2346
45420W        W88332  31.158  17.888   5.859  0.2025 -0.0914 -0.1759
45421W        W88333  29.939  18.069   6.524  0.0520  0.0637 -0.1091
45422W        W88334  29.466  16.536   5.750  0.1945  0.3682 -0.1256
45423W        W88335  33.168  15.437   3.722  0.2646 -0.1945  0.1199
45424W        W88336  32.131  15.695   7.627  0.1209 -0.2529 -0.0059
45425W        W88337  32.315  15.513   6.202  0.0904 -0.2055 -0.2044
45426W        W88338  31.268  17.021   4.555  0.0050  0.1220 -0.1617
45427W        W88339  33.656  14.360   5.360 -0.3587  0.0532 -0.0099
45428W        W88340  31.324  16.127   5.671 -0.0244  0.2422 -0.2540
45429W        W88341  30.622  17.498   7.036 -0.1209  0.2726  0.2561
45430W        W88342  30.831  16.124   4.743 -0.1490  0.3472 -0.3624
45431W        W88343  32.090  15.688   5.755 -0.1026 -0.2625  0.2299
45432W        W88344  32.283  15.187   3.659 -0.1581  0.1900 -0.0360
45433W        W88345  31.073  18.534   7.014  0.1733 -0.1813  0.3326
45434W        W88346  28.467  15.627   5.563  0.0954 -0.1761 -0.0433
45435W        W88347  31.984  16.680   3.908  0.0128 -0.2390 -0.1132
45436W        W88348  30.133  16.520   5.084 -0.1516  0.1012  0.0212
45437W        W88349  30.811  17.045   6.877  0.3206 -0.0846  0.0006
45438W        W88350  32.702  18.303   6.664  0.3873 -0.0523  0.1475
45439W        W88351  28.713  15.058   5.236  0.0823 -0.0903 -0.0037
45440W        W88352  33.180  16.391   4.258  0.2199  0.0127  0.1029
45441W        W88353  31.904  16.545   6.576  0.1638 -0.1355  0.2350
45442W        W88354  32.316  18.595   4.372  0.0512  0.0422  0.1064
45443W        W88355  34.070  16.638   5.176 -0.0824  0.1840 -0.2054
45444W        W88356  33.572  16.273   5.733 -0.1827 -0.3059  0.1308
45445W        W88357  29.659  15.886   6.313 -0.0936  0.0661  0.1811
45446W        W88358  33.490  18.654   5.093  0.1921  0.0647 -0.1017
45447W        W88359  32.835  16.438   6.000  0.0835 -0.3539 -0.0915
45448W        W88360  32.573  14.262   4.884  0.1729 -0.1487  0.5102
45449W        W88361  30.484  16.240   6.604 -0.0403 -0.0983  0.1808
45450W        W88362  30.690  18.260   3.922 -0.0265  0.1706  0.2284
45451W        W88363  32.243  15.232   5.470  0.1269 -0.3210 -0.3175
45452W        W88364  32.702  15.018   6.860  0.3221  0.0442  0.4180
45453W        W88365  30.808  17.525   4.434  0.2999 -0.0935  0.1515
45454W        W88366  33.004  13.715   7.663  0.1917  0.1244 -0.1332
45455W        W88367  31.322  17.848   6.440 -0.0542 -0.3563 -0.1232
45456W        W88368  31.247  17.546   7.278 -0.1775  0.3615 -0.0490
45457W        W88369  31.378  15.942   5.167 -0.1199  0.1387  0.1898
45458W        W88370  31.787  18.120   6.445 -0.1116 -0.0848  0.3373
45459W        W88371  30.746  17.610   5.754  0.2694 -0.1399 -0.0688
45460W        W88372  32.945  17.776   5.297 -0.2581  0.2111 -0.1933
45461W        W88373  32.768  17.100   4.402  0.3082 -0.1488  0.1712
45462W        W88374  30.583  15.706   4.702  0.1951 -0.0886  0.1920
45463W        W88375  33.598  15.839   6.022  0.0036 -0.0769 -0.2918
45464W        W88376  29.931  15.203   4.815 -0.1846  0.0737  0.1520
45465W        W88377  32.969  13.503   4.758  0.1877 -0.2114  0.0050
45466W        W88378  32.472  13.728   5.050 -0.1464 -0.0014 -0.0722
45467W        W88379  30.508  16.935   7.378  0.4003 -0.1660 -0.0947
45468W        W88380  29.760  15.997   4.291 -0.1674 -0.3069  0.0228
45469W        W88381  29.793  16.923   4.063 -0.1083  0.0281  0.1119
45470W        W88382  30.841  16.231   5.739 -0.1144  0.1753  0.3511
45471W        W88383  31.011  14.643   7.367  0.2115  0.0171  0.1914
45472W        W88384  31.365  16.322   7.325 -0.2077  0.4229 -0.3677
45473W        W88385  30.100  17.195   5.207  0.2403 -0.1681  0.0596
45474W        W88386  29.492  15.704   5.495 -0.0077 -0.1654 -0.1505
45475W        W88387  32.609  17.912   4.865  0.2210 -0.1257  0.0447
45476W        W88388  30.138  14.683   7.932 -0.2593  0.0199 -0.2963
45477W        W88389  28.772  14.301   4.713  0.0326 -0.0266 -0.1504
45478W        W88390  33.271  17.065   5.162  0.0021  0.1626 -0.0658
45479W        W88391  31.327  17.032   5.156  0.0424 -0.0836 -0.0534
45480W        W88392  30.392  16.456   5.704  0.3063 -0.3115 -0.0237
45481W        W88393  32.101  17.400   7.049 -0.0078  0.0759 -0.0381
45482W        W88394  29.763  16.160   5.387 -0.1266 -0.0331  0.2131
45483W        W88395  31.441  16.642   7.966  0.4861  0.0995  0.1512
45484W        W88396  32.237  14.906   7.900  0.0008  0.1179  0.0776
45485W        W88397  28.965  15.997   2.867 -0.0562  0.0758  0.1202
45486W        W88398  30.413  15.192   6.551  0.2467 -0.2407 -0.0111
45487W        W88399  31.958  16.562   4.789 -0.0600 -0.1780 -0.0809
45488W        W88400  31.200  18.185   3.951  0.0872  0.0389 -0.1776
45489W        W88401  31.049  17.481   6.125 -0.1292 -0.1203  0.1373
45490W        W88402  30.092  20.205   7.011  0.0373  0.1334  0.0801
45491W        W88403  30.767  14.756   6.751  0.4670 -0.0106 -0.0210
45492W        W88404  31.261  14.858   3.797 -0.1120  0.1043  0.2629
45493W        W88405  31.650  17.171   7.334  0.4035 -0.1061 -0.0176
45494W        W88406  33.319  15.997   3.930 -0.3037  0.1894  0.1801
45495W        W88407  31.636  15.125   6.389  0.1641  0.0264  0.3170
45496W        W88408  31.117  16.389   3.813 -0.1253  0.0281 -0.3743
45497W        W88409  31.152  14.396   6.936  0.0060 -0.1435  0.1126
45498W        W88410  30.173  17.517   7.482  0.0872  0.1842 -0.0467
45499W        W88411  32.151  16.223   5.220 -0.2751  0.1035  0.0691
45500W        W88412  29.220  14.994   5.994 -0.0012 -0.0511  0.3606
45501W        W88413  33.039  14.965   5.017 -0.2063 -0.1354 -0.2507
45502W        W88414  32.371  16.822   3.553 -0.0905 -0.0555  0.1283
45503W        W88415  29.931  16.422   6.384  0.0253 -0.3065 -0.1454
45504W        W88416  30.610  15.996   6.133  0.1619 -0.1594  0.0053
45505W        W88417  30.238  17.142   7.756  0.0442 -0.0405  0.0853
45506W        W88418  31.907  17.657   6.645  0.1192 -0.0304  0.0181
45507W        W88419  32.517  17.245   5.797  0.1957 -0.0942 -0.0164
45508W        W88420  30.372  16.668   3.096 -0.1968  0.0673 -0.2094
45509W        W88421  32.645  15.780   4.555 -0.3630 -0.0699 -0.0168
45510W        W88422  31.695  18.677   6.443 -0.0779  0.2934  0.0898
45511W        W88423  32.341  17.803   7.782 -0.1703  0.1800  0.2043
45512W        W88424  31.142  19.582   6.631 -0.3387  0.0314  0.2724
45513W        W88425  32.083  16.628   6.064  0.2690 -0.0331  0.3621
45514W        W88426  29.103  15.309   5.456 -0.1347 -0.1208 -0.1711
45515W        W88427  30.390  16.130   4.917  0.2001  0.3542  0.0164
45516W        W88428  30.801  16.020   5.319  0.1222 -0.0403 -0.0295
45517W        W88429  31.686  14.943   5.903  0.0354 -0.2882  0.1566
45518W        W88430  30.388  15.487   5.588 -0.4141  0.0618 -0.0781
45519W        W88431  31.781  15.988   3.385 -0.0087  0.0507  0.0483
45520W        W88432  31.094  16.563   6.998 -0.1835  0.2020 -0.3060
45521W        W88433  31.133  17.002   5.986  0.0587 -0.2275 -0.2674
45522W        W88434  32.025  15.843  10.853  0.1320 -0.2288 -0.2583
45523W        W88435  31.017  16.362   7.987  0.0809  0.2018  0.0973
45524W        W88436  32.240  13.727   8.384 -0.2261 -0.1814 -0.2115
45525W        W88437  32.132  16.926   8.324 -0.3835  0.0387 -0.3190
45526W        W88438  28.944  14.774   9.717  0.0094  0.0667  0.0631
45527W        W88439  32.253  17.782   8.889 -0.0114  0.0540  0.1606
45528W        W88440  31.611  18.376   9.814 -0.1857  0.2384 -0.1777
45529W        W88441  31.936  17.140   9.756 -0.4517  0.0979  0.1054
45530W        W88442  31.839  16.658   7.603 -0.2033 -0.0859 -0.1381
45531W        W88443  31.765  15.096   8.958 -0.2877 -0.2270 -0.1403
45532W        W88444  30.978  15.263   8.759  0.3145 -0.4526 -0.0409
45533W        W88445  29.957  13.766   9.939 -0.4455  0.2148 -0.0256
45534W        W88446  32.140  14.384   8.818 -0.1035 -0.1879 -0.1441
45535W        W88447  30.435  15.887   7.864  0.0467  0.1332  0.1865
45536W        W88448  31.508  16.235   9.343  0.0616 -0.1184 -0.0248
45537W        W88449  30.467  15.971   8.424  0.1229  0.0350 -0.1709
45538W        W88450  31.678  18.416   8.207 -0.2663  0.1135 -0.0158
45539W        W88451  29.582  15.206  10.131 -0.1775 -0.1655  0.1289
45540W        W88452  31.223  16.743   8.391  0.4290  0.0116  0.0150
45541W        W88453  29.823  13.658   7.502  0.0354 -0.4836 -0.1568
45542W        W88454  30.963  14.924   9.584  0.1052  0.1271  0.0561
45543W        W88455  31.328  16.522  10.924 -0.3602  0.0088  0.0634
45544W        W88456  32.604  16.105   8.813  0.1373 -0.0272  0.0545
45545W        W88457  32.318  16.422   9.244  0.0560 -0.1883  0.0368
45546W        W88458  31.312  18.395   9.341  0.1359 -0.0193  0.0386
45547W        W88459  32.567  18.060   9.157  0.1280  0.1323 -0.1540
45548W        W88460  29.687  16.123  10.068  0.0369  0.1322 -0.3044
45549W        W88461  29.226  17.985   8.634  0.1802 -0.0184 -0.1788
45550W        W88462  30.847  17.741   8.912 -0.0997  0.0226 -0.2188
45551W        W88463  32.491  17.011   9.219  0.0631  0.2795  0.1689
45552W        W88464  31.275  17.631   8.460 -0.0926 -0.1431 -0.0914
45553W        W88465  31.462  16.702   9.588 -0.0259  0.2332  0.0670
45554W        W88466  31.619  17.221   9.315 -0.2256 -0.0133  0.0960
45555W        W88467  29.895  17.266   8.670 -0.0684  0.0066 -0.1322
45556W        W88468  32.134  17.354   9.199  0.4657  0.0683 -0.3976
45557W        W88469  32.869  17.000  10.143 -0.1248 -0.2629  0.3243
45558W        W88470  31.349  17.297   7.719  0.0264 -0.2845  0.0284
45559W        W88471  32.015  15.269   8.139 -0.3472 -0.0063  0.1837
45560W        W88472  32.047  14.675   7.461  0.3571  0.1398  0.1390
45561W        W88473  32.728  14.344   8.559 -0.2862 -0.0902 -0.0720
45562W        W88474  30.807  16.435   8.489  0.0010  0.0426 -0.3367
45563W        W88475  30.021  19.471   8.691  0.0767  0.0609 -0.3605
45564W        W88476  30.308  15.235  10.046  0.0909  0.0083 -0.3061
45565W        W88477  30.878  16.716   9.747  0.0667  0.2122  0.1041
45566W        W88478  31.603  14.346  10.009 -0.1440  0.0561 -0.1004
45567W        W88479  31.271  16.821  10.072 -0.2282 -0.0838 -0.1251
45568W        W88480  31.429  15.890  10.769  0.0305 -0.1481 -0.0863
45569W        W88481  31.683  17.615   8.040 -0.1429  0.0118 -0.2850
45570W        W88482  32.507  17.674   8.346 -0.2777  0.0518 -0.0607
45571W        W88483  31.528  18.571   8.892  0.1357 -0.0765 -0.0101
45572W        W88484  29.754  16.153   9.065  0.0610  0.1805 -0.0690
45573W        W88485  30.974  15.161   8.260  0.1836  0.0374 -0.0871
45574W        W88486  31.930  16.543   8.849 -0.1322  0.2018 -0.0163
45575W        W88487  30.172  16.369   9.713 -0.1150 -0.0977  0.3177
45576W        W88488  32.800  17.206   9.666 -0.0186 -0.1552  0.0378
45577W        W88489  31.764  16.688   7.028 -0.1635 -0.1929  0.0673
45578W        W88490  31.961  15.525   8.557 -0.0807  0.0237 -0.2279
45579W        W88491  32.155  15.331  10.643 -0.2013 -0.2113  0.0363
45580W        W88492  30.993  17.082   7.415 -0.0148  0.4296  0.0377
45581W        W88493  31.515  15.233   7.955 -0.1982 -0.2068 -0.0240
45582W        W88494  34.668  19.469  12.204 -0.2593  0.2459  0.1081
45583W        W88495  32.377  16.797   8.740 -0.0175  0.1011 -0.0171
45584W        W88496  30.048  19.095   9.179  0.2914  0.0330 -0.2480
45585W        W88497  30.515  18.455   7.698  0.0077  0.1699  0.0442
45586W        W88498  28.763  16.941   8.916 -0.1832  0.1197 -0.0699
45587W        W88499  30.485  16.781   8.748  0.1102 -0.0029  0.2273
45588W        W88500  27.664  13.626  10.109  0.1381 -0.2936 -0.1945
45589W        W88501  31.218  16.966  10.590  0.1342 -0.0268  0.0042
45590W        W88502  33.593  15.511   8.476 -0.2866 -0.1210 -0.0864
45591W        W88503  31.903  15.014   9.697  0.0478  0.2300 -0.1940
45592W        W88504  28.356  18.148  12.796  0.0334  0.0633 -0.0249
45593W        W88505  33.947  17.091   8.069 -0.1294  0.0195 -0.3620
45594W        W88506  31.979  16.521   8.108  0.0335 -0.1952 -0.0901
45595W        W88507  32.798  17.479   7.320 -0.0161 -0.0302  0.0276
45596W        W88508  27.741  16.753  10.426 -0.1040 -0.0074  0.1110
45597W        W88509  29.110  15.668   9.364 -0.0524  0.2665  0.3054
45598W        W88510  28.365  14.352   9.169  0.4843  0.1898  0.0007
45599W        W88511  30.007  14.210   8.749 -0.1169  0.2682 -0.1931
45600W        W88512  31.877  15.559   9.840 -0.2180  0.1475  0.0489
45601W        W88513  31.382  14.895   8.814 -0.0876  0.1549  0.0371
45602W        W88514  29.973  15.572  10.048  0.0666 -0.1562  0.4915
45603W        W88515  31.315  18.054   8.092 -0.1815  0.0924  0.3376
45604W        W88516  33.919  17.535   8.971  0.1205  0.1267  0.1365
45605W        W88517  32.457  17.337   7.662 -0.0876 -0.1749 -0.1152
45606W        W88518  30.034  13.266  10.889  0.1069  0.1660 -0.1523
45607W        W88519  29.177  15.532   8.503 -0.0042  0.1130  0.1220
45608W        W88520  30.766  18.982   8.355 -0.0785  0.2990 -0.0379
45609W        W88521  30.897  17.806  10.279 -0.2531  0.0777 -0.2665
45610W        W88522  30.575  15.854   8.965  0.0375 -0.2305  0.0994
45611W        W88523  32.796  18.295   9.552  0.0747  0.2010 -0.0982
45612W        W88524  30.782  17.283   8.959  0.0681  0.0779 -0.2690
45613W        W88525  32.308  15.661   9.611 -0.1494  0.2066  0.0860
45614W        W88526  31.972  16.861   9.336 -0.0555  0.0420 -0.2420
45615W        W88527  31.392  14.788   6.658  0.4026 -0.1952  0.3881
45616W        W88528  32.226  18.431   9.050  0.0929 -0.2370 -0.1624
45617W        W88529  28.800  17.941   8.861  0.0201  0.4629 -0.4064
45618W        W88530  30.074  16.927   8.205 -0.0326  0.1198 -0.1008
45619W        W88531  29.415  19.309   7.337  0.0706  0.1261 -0.0180
45620W        W88532  32.576  14.473   9.205 -0.3118  0.2150 -0.0644
45621W        W88533  30.128  15.991   8.719  0.1292 -0.4344  0.5938
45622W        W88534  31.119  15.757   9.693 -0.1674  0.0288  0.0056
45623W        W88535  32.378  15.306   7.605 -0.0041 -0.3008  0.0618
45624W        W88536  33.114  17.489   8.501  0.2147  0.0922  0.0636
45625W        W88537  32.780  14.518   8.081 -0.0690  0.3645 -0.1091
45626W        W88538  31.992  13.937   7.864  0.0445  0.0078  0.1217
45627W        W88539  31.635  16.387   8.471  0.0064  0.0050  0.1805
45628W        W88540  32.919  16.112   9.938  0.0279  0.3741 -0.2147
45629W        W88541  32.258  16.206   7.788  0.0690  0.1016 -0.3401
45630W        W88542  33.545  16.546   5.282 -0.0363  0.0513  0.1576
45631W        W88543  28.508  15.756  10.072 -0.2307  0.1046  0.1370
45632W        W88544  33.590  17.558   8.559  0.0158 -0.1123 -0.0353
45633W        W88545  30.905  15.143  10.977  0.2456 -0.3487 -0.0489
45634W        W88546  29.518  16.401   7.732 -0.2843  0.2072  0.0653
45635W        W88547  30.470  15.724   9.899 -0.0652  0.3573  0.1410
45636W        W88548  28.609  18.014   6.972 -0.1156  0.0323  0.1478
45637W        W88549  32.976  15.697   8.949 -0.0746 -0.2733  0.1887
45638W        W88550  32.677  16.525  10.163  0.1374  0.3089  0.1272
45639W        W88551  32.159  17.431   8.053 -0.0541  0.2004 -0.0977
45640W        W88552  32.011  16.020   9.982 -0.0132 -0.4156 -0.0500
45641W        W88553  30.110  16.026   6.156  0.0908 -0.1638 -0.1259
45642W        W88554  29.721  16.253  10.559 -0.4401  0.2809 -0.4944
45643W        W88555  30.488  18.954   9.395 -0.1355  0.0301  0.0351
45644W        W88556  32.854  17.762   8.865 -0.2202 -0.0400 -0.1063
45645W        W88557  31.040  15.411   7.830 -0.1656  0.0522 -0.1464
45646W        W88558  29.200  18.537   7.709  0.1608  0.1644  0.1627
45647W        W88559  31.599  18.006   8.583 -0.1140  0.0286 -0.0871
45648W        W88560  30.410  15.026   9.566 -0.0984  0.2731 -0.1494
45649W        W88561  30.827  18.024   9.375  0.0480  0.1093  0.1786
45650W        W88562  30.941  17.211   8.503  0.1115  0.1699 -0.3651
45651W        W88563  33.312  16.994   9.664  0.3017  0.2242  0.0541
45652W        W88564  29.228  18.131   8.063 -0.1681 -0.3707  0.2387
45653W        W88565  29.789  12.716  10.831 -0.1256  0.0459 -0.1415
45654W        W88566  31.374  17.174   9.768 -0.1182 -0.2803  0.0521
45655W        W88567  31.232  15.872   7.770 -0.0773 -0.0244 -0.1773
45656W        W88568  30.449  16.169  11.015  0.2060 -0.0216 -0.1204
45657W        W88569  32.358  16.582   7.504  0.0055 -0.0470  0.0348
45658W        W88570  33.011  17.167   7.953  0.1661 -0.0739 -0.0685
45659W        W88571  28.816  14.512  10.526  0.0733 -0.3620 -0.0271
45660W        W88572  30.956  15.923   8.678 -0.2383  0.2410 -0.2580
45661W        W88573  28.868  19.061   9.551 -0.0710  0.0248 -0.0433
45662W        W88574  32.164  14.844   9.187  0.0882 -0.3376  0.1800
45663W        W88575  30.570  15.490   8.523  0.0832  0.0631  0.1362
45664W        W88576  34.449  15.757   9.069 -0.1366 -0.0741 -0.1051
45665W        W88577  31.403  15.436   8.943  0.1848 -0.2177 -0.1271
45666W        W88578  30.303  17.174   9.102  0.2874 -0.2658  0.0617
45667W        W88579  31.895  16.867  10.146 -0.1038  0.0392 -0.2269
45668W        W88580  30.090  15.552   7.808 -0.2857 -0.1459 -0.0185
45669W        W88581  30.397  18.333   9.435  0.0626 -0.0583  0.0355
45670W        W88582  32.690  17.546   9.991 -0.0043 -0.1695  0.0573
45671W        W88583  30.900  15.398  10.071 -0.2161  0.0859  0.1259
45672W        W88584  30.658  15.119  10.450  0.1046 -0.0786  0.1812
45673W        W88585  31.540  16.054  10.304  0.1995  0.1947 -0.0879
45674W        W88586  32.737  16.552   9.542 -0.0090  0.4019 -0.0780
45675W        W88587  31.886  17.470  10.254  0.0130  0.1094 -0.1691
45676W        W88588  30.858  14.277  10.022  0.0741 -0.2769 -0.1720
45677W        W88589  33.475  17.720   7.620  0.0422 -0.2223 -0.0492
45678W        W88590  29.834  16.520   8.080 -0.3173  0.0763  0.3890
45679W        W88591  30.186  17.169  10.365  0.0041 -0.3029  0.1527
45680W        W88592  30.746  16.353   8.966 -0.2182  0.0435 -0.3497
45681W        W88593  32.049  15.318   9.344  0.1156 -0.0363 -0.1097
45682W        W88594  31.364  18.145  10.249 -0.3191  0.2112 -0.0353
45683W        W88595  30.339  17.645   8.904  0.0503  0.1487  0.0435
45684W        W88596  31.398  17.617  10.127  0.0372  0.1024  0.0599
45685W        W88597  32.854  13.816   8.699  0.0541 -0.3235 -0.1839
45686W        W88598  31.706  17.636   8.964  0.0360  0.1515 -0.0440
45687W        W88599  30.861  13.992   8.642 -0.0016  0.0152  0.1078
45688W        W88600  30.572  16.815   8.244 -0.1594 -0.0097  0.0703
45689W        W88601  31.401  13.623  10.650 -0.0333 -0.1245  0.1591
45690W        W88602  33.406  17.837   8.943  0.1531 -0.0406 -0.2443
45691W        W88603  30.659  15.626   9.475  0.3530  0.1113  0.0703
45692W        W88604  30.676  14.518   7.857 -0.2453  0.1151 -0.1516
45693W        W88605  31.840  19.146  10.070  0.3725  0.4171  0.1323
45694W        W88606  32.467  16.166   9.742 -0.5130  0.1503  0.1365
45695W        W88607  31.222  16.294   8.806 -0.1581 -0.3168 -0.0311
45696W        W88608  33.576  16.774   9.243  0.3360 -0.0825  0.1540
45697W        W88609  29.406  16.889  10.049  0.2799 -0.3112  0.1017
45698W        W88610  32.306  15.341   8.942  0.2098  0.3364  0.1461
45699W        W88611  31.661  16.867   8.415 -0.1538 -0.1443 -0.1322
45700W        W88612  31.121  16.393  10.350  0.0695 -0.1876 -0.2220
45701W        W88613  32.335  16.858   9.647  0.0197  0.1496  0.2946
45702W        W88614  32.108  14.260   9.299  0.1700  0.1727 -0.2655
45703W        W88615  33.097  17.734  10.286  0.0353  0.1818  0.2790
45704W        W88616  31.364  16.638   6.561  0.0310 -0.2155  0.1684
45705W        W88617  32.521  15.203   9.677  0.2018 -0.1642 -0.0624
45706W        W88618  32.722  17.271   8.801  0.0278  0.2281 -0.0198
45707W        W88619  30.833  16.570   7.499 -0.1116  0.0636  0.0653
45708W        W88620  29.532  16.085  12.923 -0.2207  0.0847 -0.0195
45709W        W88621  31.844  15.253   7.485 -0.0788  0.2172 -0.0846
45710W        W88622  31.901  18.089   7.887 -0.0989 -0.1660  0.1332
45711W        W88623  31.849  18.124   8.979 -0.4945  0.1261  0.2120
45712W        W88624  31.113  17.038   9.303  0.0988  0.3672  0.2157
45713W        W88625  28.927  13.172  10.542 -0.0776 -0.0608  0.0267
45714W        W88626  30.245  15.970   7.052 -0.1905  0.3044  0.0557
45715W        W88627  31.742  17.398   8.486 -0.0133  0.0883  0.0989
45716W        W88628  31.687  16.437  10.004 -0.0856  0.2424  0.1076
45717W        W88629  31.805  14.831   8.188  0.1570  0.1486 -0.1193
45718W        W88630  29.668  17.939   9.316  0.0501  0.2491  0.2209
45719W        W88631  31.650  14.840  10.114  0.1670 -0.1147 -0.0583
45720W        W88632  31.813  18.432   9.389 -0.2445 -0.0037  0.0456
45721W        W88633  30.684  17.163   9.675  0.2016  0.3058 -0.2268
45722W        W88634  32.093  14.413  10.369  0.1126 -0.0541 -0.0952
45723W        W88635  33.884  15.677   9.795 -0.0497  0.4644 -0.1205
45724W        W88636  30.518  16.722   9.298 -0.2500 -0.1759  0.4821
45725W        W88637  25.509  15.258  11.895 -0.0677 -0.0803 -0.1778
45726W        W88638  33.060  16.973   8.556  0.2471  0.1004 -0.0844
45727W        W88639  30.408  17.639  10.335 -0.0317 -0.0405  0.0661
45728W        W88640  32.348  17.415   9.692  0.2051  0.0906 -0.2444
45729W        W88641  29.920  15.045   9.279  0.1234  0.0356 -0.0118
45730W        W88642  31.022  18.103   8.478  0.1357 -0.2469  0.0967
45731W        W88643  30.714  16.055  10.572  0.1872 -0.3075 -0.1211
45732W        W88644  29.994  18.352   8.146 -0.0024  0.0657 -0.1250
45733W        W88645  32.165  17.225   6.381 -0.2775  0.2291  0.0577
45734W        W88646  31.706  15.676   7.977  0.0337  0.2076  0.2423
45735W        W88647  31.834  17.931  10.102 -0.0585 -0.0444  0.0406
45736W        W88648  30.507  15.633   7.440 -0.3553 -0.0395 -0.1066
45737W        W88649  30.831  16.594  10.717  0.0888 -0.0810  0.1844
45738W        W88650  30.496  17.793   6.686 -0.1243  0.3176 -0.1056
45739W        W88651  33.071  18.456   7.441  0.1429  0.2219  0.1460
45740W        W88652  30.445  18.533   9.945  0.1038  0.0605 -0.1461
45741W        W88653  31.952  13.650   8.762 -0.0764 -0.2357  0.2087
45742W        W88654  32.983  14.891   8.428  0.2819  0.2888 -0.0170
45743W        W88655  32.529  16.526   8.029  0.1513  0.2679  0.0628
45744W        W88656  31.390  15.996   8.229 -0.0924  0.1363  0.0885
45745W        W88657  32.571  13.251   8.227 -0.0307 -0.1203 -0.0473
45746W        W88658  33.189  17.170   7.397  0.2269 -0.0381  0.0279
45747W        W88659  29.623  15.667   9.212  0.1935 -0.2567 -0.3151
45748W        W88660  30.786  16.734  10.220 -0.1105  0.4812 -0.2361
45749W        W88661  30.684  14.829  10.029 -0.0962 -0.0975 -0.1329
45750W        W88662  30.969  16.766   8.842  0.0386  0.1681  0.0857
45751W        W88663  32.086  16.100   8.891  0.2620  0.0842  0.0114
45752W        W88664  31.181  18.618   8.580  0.1358  0.2511  0.2950
45753W        W88665  31.180  18.120   9.758  0.0200  0.0627 -0.1544
45754W        W88666  32.309  17.764  10.239 -0.1684 -0.0570 -0.0821
45755W        W88667  30.103  15.552   8.400 -0.1419 -0.4437  0.1526
45756W        W88668  32.493  15.198   8.371  0.2220  0.0827 -0.0749
45757W        W88669  28.957  15.698   9.829  0.1836 -0.1882  0.2499
45758W        W88670  29.189  16.383  10.339  0.0570 -0.4447  0.1240
45759W        W88671  31.573  15.220   8.453  0.1288  0.1499  0.0129
45760W        W88672  32.079  16.256  10.443 -0.2765  0.4393 -0.0539
45761W        W88673  29.753  16.862  10.519  0.1939  0.2062 -0.2426
45762W        W88674  30.054  16.195   7.695  0.2908 -0.0546  0.1199
45763W        W88675  31.575  16.198   6.321  0.2203  0.1664 -0.3401
45764W        W88676  28.342  14.323  10.402 -0.0487  0.0635 -0.0044
45765W        W88677  31.092  16.471   9.279  0.3265  0.0329  0.1989
45766W        W88678  30.779  16.156   9.568  0.0116  0.1379  0.2106
45767W        W88679  30.581  17.577   9.325 -0.0708 -0.0338 -0.1191
45768W        W88680  28.967  14.289   8.712 -0.0041  0.5970 -0.0428
45769W        W88681  32.739  16.858   7.695  0.1438 -0.0823  0.0165
45770W        W88682  32.710  16.088   9.311  0.0174 -0.0501  0.0013
45771W        W88683  30.167  19.644   7.806 -0.0158 -0.1728  0.1207
45772W        W88684  31.491  15.049   9.324  0.0964  0.1682  0.0904
45773W        W88685  32.626  19.085   9.090  0.0459  0.1464  0.1130
45774W        W88686  31.716  14.135  10.482  0.0685  0.0953 -0.0432
45775W        W88687  32.555  17.227  10.558  0.0954 -0.0738 -0.1879
45776W        W88688  33.545  17.737   9.562 -0.2946 -0.1427  0.2877
45777W        W88689  30.975  13.702   9.989  0.3510  0.1450  0.4314
45778W        W88690  30.024  16.573  10.164 -0.2123  0.3849  0.4482
45779W        W88691  29.965  17.572   9.160 -0.0603  0.1781 -0.1081
45780W        W88692  31.462  16.774   9.069 -0.2533  0.1978 -0.0732
45781W        W88693  31.246  18.057   8.912 -0.3195 -0.2751  0.2700
45782W        W88694  31.887  15.644   9.026  0.0361  0.2748  0.1524
45783W        W88695  30.523  16.306   8.057 -0.1182  0.1410  0.0175
45784W        W88696  31.990  17.456   7.578 -0.2520 -0.3143  0.1070
45785W        W88697  30.545  18.150   8.210 -0.0437  0.2559  0.0990
45786W        W88698  33.928  18.201  10.244  0.2896  0.0301 -0.0614
45787W        W88699  31.250  17.580   9.181  0.1017  0.4243  0.0300
45788W        W88700  31.858  17.050   8.841  0.0688  0.0127 -0.2116
45789W        W88701  30.668  16.267  10.032 -0.1663  0.0892  0.2931
45790W        W88702  31.646  13.650   8.404  0.0649  0.2649  0.0396
45791W        W88703  32.031  16.006   8.362 -0.0141 -0.0808 -0.0067
45792W        W88704  31.921  15.685  10.341 -0.1940 -0.0060  0.0608
45793W        W88705  29.684  16.183   7.214 -0.3713 -0.0107  0.4509
45794W        W88706  29.965  18.595   6.905  0.1028  0.0927 -0.1450
45795W        W88707  30.988  17.284  10.048 -0.0297 -0.0684 -0.1341
45796W        W88708  28.678  15.947   9.070  0.0309  0.2329 -0.1631
45797W        W88709  29.608  15.033   8.487 -0.0538  0.0093 -0.5020
45798W        W88710  32.723  16.036   8.302  0.1046 -0.2109  0.1004
45799W        W88711  29.289  14.552  10.844 -0.2042  0.2160 -0.3513
45800W        W88712  28.505  14.954   9.191  0.1486 -0.2621 -0.1909
45801W        W88713  31.595  15.904   8.664  0.1766 -0.0254 -0.0682
45802W        W88714  32.998  16.702   8.124  0.0630 -0.0407  0.0145
45803W        W88715  30.544  15.417   8.049 -0.3431 -0.0752  0.1757
45804W        W88716  29.821  17.747   6.902 -0.2567 -0.2344 -0.0756
45805W        W88717  30.917  15.858   8.161  0.0040  0.0266 -0.3611
45806W        W88718  32.362  15.537  10.101 -0.0369  0.0556 -0.1155
45807W        W88719  32.065  18.382   8.568 -0.1549  0.1760 -0.1600
45808W        W88720  31.458  18.262   6.835 -0.1762 -0.1096  0.1763
45809W        W88721  30.323  14.459   9.959 -0.0592 -0.0980 -0.3010
45810W        W88722  32.017  17.898   8.327 -0.3254 -0.2345 -0.0583
45811W        W88723  32.702  16.978   7.213 -0.2214 -0.3124 -0.1436
45812W        W88724  32.690  15.067  10.833  0.0934 -0.0851 -0.1868
45813W        W88725  31.171  15.584   8.403  0.0390  0.0638  0.0194
45814W        W88726  32.566  17.505   9.254 -0.0315  0.0426  0.3526
45815W        W88727  29.652  15.294   9.608  0.1885 -0.0780 -0.2607
45816W        W88728  32.141  14.964   8.630  0.4178 -0.2566  0.0677
45817W        W88729  32.388  17.631   6.715  0.0688 -0.0134 -0.0494
45818W        W88730  31.326  15.242   9.801 -0.1080 -0.0225 -0.1953
45819W        W88731  31.978  16.403   9.572 -0.1778  0.0520 -0.1255
45820W        W88732  32.219  18.272  10.307  0.0432 -0.1309  0.1100
45821W        W88733  31.054  15.916  10.240  0.2285  0.2281 -0.1856
45822W        W88734  32.806  17.241   6.555  0.2133 -0.2210  0.0865
45823W        W88735  32.206  16.524   9.968 -0.2286 -0.0898 -0.1319
45824W        W88736  31.611  16.528  10.475 -0.0808  0.0379 -0.0149
45825W        W88737  33.142  16.598   9.883 -0.1025 -0.0509 -0.0204
45826W        W88738  30.222  13.556  10.399  0.1670 -0.0317  0.0396
45827W        W88739  31.045  15.870   9.171  0.0752  0.0410 -0.1848
45828W        W88740  31.190  16.293   9.833 -0.0184  0.2273  0.0494
45829W        W88741  31.515  15.947   9.857 -0.3555 -0.1851  0.0760
45830W        W88742  30.034  15.243  10.485  0.1817  0.0011 -0.4174
45831W        W88743  31.301  14.733   8.330 -0.1354  0.0934 -0.0364
45832W        W88744  31.907  18.768   9.727  0.0944 -0.3083  0.0036
45833W        W88745  31.375  15.565  10.210 -0.2656  0.2040  0.2118
45834W        W88746  28.980  19.504   3.773 -0.5601 -0.1552 -0.0077
45835W        W88747  29.387  20.189   1.111  0.3167  0.1119 -0.3053
45836W        W88748  30.799  18.294  30.743  0.0181 -0.2439 -0.1714
45837W        W88749  30.318  20.131   1.105 -0.0020  0.0635 -0.0884
45838W        W88750  30.122  18.587   0.328  0.0849  0.0674  0.0801
45839W        W88751  32.000  22.279   0.114  0.0747 -0.0722 -0.0598
45840W        W88752  29.014  19.730   2.625  0.0122 -0.2264  0.2137
45841W        W88753  31.814  20.579   2.296 -0.1112  0.4380 -0.2120
45842W        W88754  32.020  22.594   2.125 -0.0378  0.0847 -0.2184
45843W        W88755  29.292  20.649   0.871  0.0091  0.1900  0.3668
45844W        W88756  31.214  19.310   1.640  0.0344  0.4053  0.0228
45845W        W88757  30.442  20.138   3.423  0.0929 -0.0745  0.1051
45846W        W88758  30.474  18.281   0.348  0.1121 -0.3519  0.3238
45847W        W88759  30.252  18.325   2.683  0.2032 -0.0455 -0.0028
45848W        W88760  32.473  18.546   2.430  0.0134 -0.1635  0.0557
45849W        W88761  26.525  19.557   1.808  0.0498 -0.0606  0.1244
45850W        W88762  29.497  19.439   2.597  0.2856 -0.0184 -0.4700
45851W        W88763  29.169  20.553   2.223 -0.2683 -0.1742  0.1404
45852W        W88764  31.915  21.129   1.464 -0.2807 -0.0244  0.0240
45853W        W88765  31.195  18.624   2.311  0.1403  0.2638  0.5126
45854W        W88766  31.102  18.283   2.852  0.0907 -0.2072 -0.1255
45855W        W88767  30.660  20.552   2.062 -0.0353 -0.2519 -0.0327
45856W        W88768  29.329  18.932  31.843  0.1609 -0.1129 -0.2754
45857W        W88769  30.226  19.078   0.705 -0.1580  0.0651 -0.0112
45858W        W88770  31.478  18.472   1.909  0.3350 -0.1546 -0.0302
45859W        W88771  32.833  19.728   1.947 -0.0607 -0.1031 -0.1842
45860W        W88772  33.017  19.618   1.318  0.1640  0.0845 -0.3486
45861W        W88773  30.827  21.587   1.155 -0.3645 -0.3871  0.2651
45862W        W88774  31.304  22.621   1.418 -0.1846  0.2934  0.1061
45863W        W88775  31.731  20.243   4.428 -0.2606  0.2360  0.1487
45864W        W88776  28.715  21.177   0.436  0.0802  0.0596 -0.1050
45865W        W88777  29.364  23.056   1.890  0.2087  0.0837  0.1143
45866W        W88778  30.755  21.338   0.715  0.0372 -0.1885 -0.0020
45867W        W88779  32.988  21.194   1.143 -0.1078 -0.0468  0.1159
45868W        W88780  31.415  21.477   2.188 -0.1598  0.2370 -0.1099
45869W        W88781  29.855  22.455   4.596 -0.0911  0.2808  0.1884
45870W        W88782  28.244  21.434   0.357  0.2808 -0.1538 -0.0543
45871W        W88783  31.797  21.760   3.342 -0.0598 -0.2041  0.1322
45872W        W88784  29.824  21.656   3.273 -0.4321 -0.1318 -0.0890
45873W        W88785  31.664  20.004   1.587 -0.1814  0.1354 -0.1498
45874W        W88786  30.125  20.174   2.000  0.2798  0.1072 -0.0640
45875W        W88787  31.835  20.583   0.234  0.2002  0.0807 -0.3157
45876W        W88788  30.552  21.217   1.660 -0.5160 -0.0923  0.0970
45877W        W88789  31.564  19.417   2.628  0.3768  0.2683 -0.1163
45878W        W88790  28.683  20.920   3.064 -0.0106  0.1115  0.0654
45879W        W88791  32.691  18.534   3.339  0.0874  0.2241  0.1213
45880W        W88792  30.885  21.284  30.476 -0.1470  0.0496  0.2009
45881W        W88793  30.897  19.071   0.084  0.0240 -0.3671 -0.0572
45882W        W88794  31.736  20.241   0.609  0.2189 -0.0701  0.0185
45883W        W88795  30.947  19.542   0.312  0.2709 -0.3464  0.1325
45884W        W88796  30.991  19.014   1.964 -0.0805  0.0306  0.2652
45885W        W88797  30.017  20.734   0.701  0.2478 -0.0288 -0.3696
45886W        W88798  31.904  17.340   0.798  0.0191  0.3012 -0.3638
45887W        W88799  30.788  22.624   3.324  0.0539  0.2626  0.1791
45888W        W88800  29.681  19.988   1.791  0.0614  0.0928 -0.2508
45889W        W88801  31.667  19.133   1.756  0.3570  0.0235 -0.1746
45890W        W88802  29.897  21.636   2.237 -0.0454  0.0771 -0.0836
45891W        W88803  29.303  21.164   0.288 -0.0271 -0.2531  0.0321
45892W        W88804  31.602  20.903   0.609 -0.2682  0.1031  0.6363
45893W        W88805  31.932  21.189   0.312 -0.2021  0.2244  0.2876
45894W        W88806  31.329  22.122   1.561 -0.0962 -0.1137  0.2795
45895W        W88807  27.902  20.380   1.438 -0.0529 -0.0068  0.2650
45896W        W88808  30.078  20.072   3.049 -0.2293 -0.0263 -0.2044
45897W        W88809  29.544  20.212   3.199 -0.2071 -0.2761  0.2372
45898W        W88810  30.307  17.714  31.248  0.1183  0.2084  0.2552
45899W        W88811  31.754  20.382   2.802  0.0837 -0.3227 -0.3010
45900W        W88812  27.992  20.954   2.999 -0.0297 -0.3850  0.4886
45901W        W88813  33.156  19.299   1.640  0.2665 -0.1990 -0.2908
45902W        W88814  29.990  21.131   2.367  0.0992  0.0478 -0.0059
45903W        W88815  32.080  19.537   1.456 -0.1002  0.1648  0.0191
45904W        W88816  29.996  19.597  31.839  0.1812 -0.0250 -0.2963
45905W        W88817  34.067  18.476   1.860  0.2320 -0.4568  0.0989
45906W        W88818  31.616  19.528   3.915 -0.1968  0.1922  0.2276
45907W        W88819  29.456  19.359   0.095 -0.2236  0.1757 -0.0730
45908W        W88820  30.216  20.847   1.458 -0.2695 -0.3285 -0.3074
45909W        W88821  31.440  20.780   2.645  0.1303  0.0100 -0.3579
45910W        W88822  31.872  19.170  31.578  0.2641  0.0295  0.1051
45911W        W88823  31.059  20.133   2.185  0.2424 -0.1114 -0.0615
45912W        W88824  31.899  18.884   2.582 -0.0058  0.1850  0.1364
45913W        W88825  31.853  21.173   2.413  0.0952 -0.0061 -0.1135
45914W        W88826  27.680  21.029   0.001  0.0508 -0.0975  0.0188
45915W        W88827  30.187  19.167   2.356 -0.0280 -0.0073  0.1859
45916W        W88828  29.459  21.828  31.833  0.1996 -0.1604 -0.1223
45917W        W88829  29.115  17.759   3.141  0.0856 -0.0515  0.1888
45918W        W88830  29.622  20.824   3.292  0.1014 -0.2363 -0.1787
45919W        W88831  31.876  19.116   1.184  0.1040 -0.0791 -0.0494
45920W        W88832  29.490  17.496   2.756 -0.1634 -0.3834 -0.0523
45921W        W88833  32.123  19.003   1.613 -0.1571  0.2421 -0.0770
45922W        W88834  30.035  21.162   1.859 -0.2352 -0.0796 -0.1438
45923W        W88835  32.607  23.287   1.992 -0.3396 -0.1465  0.1974
45924W        W88836  33.493  20.816   0.575 -0.0308 -0.0481 -0.2766
45925W        W88837  30.444  20.279   0.678  0.5284  0.2857 -0.1764
45926W        W88838  29.717  19.117   2.179  0.1588 -0.1061  0.0705
45927W        W88839  29.833  20.616   1.144 -0.2527  0.1736 -0.0021
45928W        W88840  30.506  19.439   2.684 -0.2283  0.1074 -0.1486
45929W        W88841  28.071  21.159   1.185  0.1283 -0.0342  0.4017
45930W        W88842  33.453  20.088   2.974  0.1509 -0.1263 -0.0371
45931W        W88843  28.052  18.473   0.867 -0.0634 -0.0246  0.1904
45932W        W88844  31.361  19.140   1.117  0.1292  0.1254 -0.2510
45933W        W88845  30.979  19.592   1.223 -0.2657  0.0928  0.1801
45934W        W88846  29.212  19.848   4.402 -0.1622 -0.1148 -0.1181
45935W        W88847  31.460  19.067   2.283 -0.0195 -0.1210  0.0421
45936W        W88848  31.590  22.051   0.575  0.0971  0.3479  0.0067
45937W        W88849  32.772  20.868   3.999 -0.0614  0.3437 -0.1262
45938W        W88850  31.127  22.780   0.975 -0.2928  0.1101  0.0823
45939W        W88851  31.296  18.833   1.678 -0.1247  0.0396  0.4071
45940W        W88852  28.605  17.543  30.404 -0.0947  0.0152 -0.0136
45941W        W88853  29.667  20.365   2.254  0.2026  0.0266  0.1432
45942W        W88854  29.139  21.028   1.264 -0.1440  0.0716 -0.0005
45943W        W88855  29.165  18.618   1.530 -0.2216  0.2270 -0.1020
45944W        W88856  31.980  20.934   1.942  0.0039 -0.2112  0.1777
45945W        W88857  30.414  20.703   1.025  0.1160 -0.2505  0.2040
45946W        W88858  29.260  21.448   3.265  0.0649 -0.3402 -0.2400
45947W        W88859  30.556  18.767   3.606  0.0219  0.3574 -0.1115
45948W        W88860  33.037  19.303   2.284 -0.1410 -0.3736 -0.0057
45949W        W88861  32.137  20.065   1.367 -0.0304 -0.0541  0.2204
45950W        W88862  29.541  19.521   1.893  0.0420 -0.1787 -0.0006
45951W        W88863  32.060  22.369   1.506 -0.0617 -0.2746 -0.2987
45952W        W88864  30.293  21.777  31.750 -0.1328  0.0669 -0.1639
45953W        W88865  30.723  18.641   2.200  0.1143  0.0427 -0.0435
45954W        W88866  29.823  21.585   0.818 -0.0916 -0.0881  0.0412
45955W        W88867  33.516  18.505   2.122  0.3972  0.0786 -0.2306
45956W        W88868  29.152  20.388   4.151  0.2993  0.1307 -0.1567
45957W        W88869  31.409  18.696   2.780  0.0502  0.0107  0.0162
45958W        W88870  28.911  20.123   1.357  0.0578  0.0614  0.2019
45959W        W88871  30.368  19.617   3.255 -0.2145 -0.1441  0.0546
45960W        W88872  31.815  19.751   0.386 -0.0150 -0.2870 -0.0921
45961W        W88873  32.149  19.980   0.814 -0.1123 -0.0814  0.0145
45962W        W88874  31.164  20.752   1.811  0.1148  0.2130  0.2082
45963W        W88875  31.787  21.749   0.166  0.2841  0.0861  0.0853
45964W        W88876  31.377  18.396  31.488  0.4213 -0.1741 -0.2613
45965W        W88877  32.095  18.220   0.751  0.1001  0.2577  0.0122
45966W        W88878  28.016  20.161   4.580  0.0296  0.0340 -0.2808
45967W        W88879  30.974  21.189   1.984  0.1793  0.2917  0.1100
45968W        W88880  31.227  19.982   1.127 -0.0396  0.0005  0.0983
45969W        W88881  32.484  18.611   1.494 -0.3873  0.2663  0.0069
45970W        W88882  32.693  22.037  31.584 -0.0178  0.0053 -0.0756
45971W        W88883  30.999  20.080   3.254  0.1104 -0.1934 -0.0980
45972W        W88884  31.885  21.452   2.944  0.0264  0.2600 -0.1152
45973W        W88885  30.254  19.471   1.898 -0.1353  0.2801 -0.0772
45974W        W88886  31.872  18.894   2.091  0.2021 -0.3192 -0.1809
45975W        W88887  29.761  19.572   0.505 -0.0420 -0.0387  0.0540
45976W        W88888  31.387  17.539   0.642 -0.0674 -0.0831  0.0797
45977W        W88889  30.943  21.599  31.840 -0.2494  0.0301  0.1043
45978W        W88890  32.552  19.336   2.063  0.1661  0.1168  0.1235
45979W        W88891  31.949  18.316   2.178 -0.3517  0.1310  0.2068
45980W        W88892  31.901  17.809   3.036 -0.0513 -0.2373  0.0177
45981W        W88893  32.731  20.704   2.959  0.1245  0.1448 -0.0847
45982W        W88894  32.084  19.370   1.923  0.1995  0.1008  0.3686
45983W        W88895  31.326  20.501   0.788 -0.0924 -0.1963  0.0237
45984W        W88896  29.140  20.721   0.172 -0.0505  0.0522 -0.1225
45985W        W88897  30.661  19.147   3.101  0.3755  0.1942  0.1482
45986W        W88898  30.071  18.824   3.555  0.0586  0.1859 -0.5207
45987W        W88899  28.618  21.452   3.819  0.2829  0.0655  0.3200
45988W        W88900  31.690  20.155   3.298  0.0241 -0.2881 -0.0749
45989W        W88901  30.620  19.903   1.976 -0.0200 -0.0371 -0.2030
45990W        W88902  32.012  18.288   3.329  0.2460 -0.0391  0.1835
45991W        W88903  30.854  19.122   1.295  0.0978 -0.0518  0.0712
45992W        W88904  30.657  22.188   0.866  0.1007  0.1979 -0.0197
45993W        W88905  31.029  22.339   0.538 -0.1013  0.0987  0.1287
45994W        W88906  30.425  17.939   3.659 -0.1065  0.0673  0.0757
45995W        W88907  30.387  21.531   3.404 -0.2691 -0.0289 -0.0523
45996W        W88908  29.270  20.790  31.193  0.0097 -0.0937 -0.0203
45997W        W88909  33.313  19.659   2.073  0.2185 -0.0405  0.1659
45998W        W88910  31.585  21.439   1.227 -0.0453 -0.1931  0.0760
45999W        W88911  32.879  18.807   2.197 -0.2781 -0.4428 -0.1716
46000W        W88912  29.233  22.501   2.235 -0.1108  0.3971  0.1056
46001W        W88913  30.442  19.309  30.147  0.1571  0.0837 -0.2966
46002W        W88914  28.685  21.124   1.895 -0.0799 -0.0904 -0.1531
46003W        W88915  31.209  19.522   0.765  0.2562 -0.1369  0.0464
46004W        W88916  31.804  20.021  31.517  0.0585  0.0654 -0.0795
46005W        W88917  31.390  19.146   3.049 -0.0308 -0.1886  0.5032
46006W        W88918  30.988  18.350   1.864 -0.0860 -0.2523 -0.2945
46007W        W88919  27.318  21.144   1.479 -0.0179  0.0203  0.0089
46008W        W88920  32.155  19.393   2.711  0.3085  0.0415  0.2771
46009W        W88921  31.055  18.868  31.569  0.1063 -0.0703  0.0458
46010W        W88922  30.627  20.592   3.308  0.1984 -0.0738  0.1506
46011W        W88923  30.278  20.490   2.809  0.2751  0.2614 -0.3056
46012W        W88924  28.398  20.303   1.511  0.0010  0.2699 -0.1150
46013W        W88925  32.936  20.005   3.824 -0.0185 -0.1885 -0.1509
46014W        W88926  29.499  19.340   1.292 -0.3004 -0.1775  0.1267
46015W        W88927  28.570  20.696   2.182  0.0289 -0.0519  0.0097
46016W        W88928  30.711  19.963   1.440  0.0434 -0.0683  0.2815
46017W        W88929  29.823  20.570   1.699  0.2477  0.1112  0.1166
46018W        W88930  30.363  21.735   0.792  0.1328 -0.2418  0.1738
46019W        W88931  30.351  19.777   2.363  0.2005 -0.0172  0.1576
46020W        W88932  31.085  21.086   2.530  0.1665 -0.3655 -0.0186
46021W        W88933  31.930  19.655   2.362 -0.3009  0.0347 -0.0303
46022W        W88934  29.382  19.772   1.474 -0.0809  0.2697 -0.1506
46023W        W88935  31.779  20.278   1.090 -0.1270  0.2366  0.1686
46024W        W88936  32.156  20.670   1.337 -0.2447 -0.1692  0.0335
46025W        W88937  32.617  19.387   2.596  0.1660 -0.0105  0.2116
46026W        W88938  28.810  21.371   3.385  0.3469 -0.0217  0.1905
46027W        W88939  31.876  18.639   3.074  0.2298  0.2279  0.1285
46028W        W88940  32.606  23.092   1.163 -0.0948  0.3144  0.3873
46029W        W88941  32.728  20.129   3.056  0.1243  0.4173  0.1079
46030W        W88942  29.170  22.223   0.978  0.1185 -0.0853 -0.0349
46031W        W88943  29.096  21.351   1.696 -0.2852  0.0392 -0.2440
46032W        W88944  28.926  20.686  31.618 -0.0790  0.1220 -0.1841
46033W        W88945  32.560  19.397   1.318  0.1888 -0.0192  0.1989
46034W        W88946  30.860  19.796   2.551  0.0818  0.4684 -0.1051
46035W        W88947  30.607  23.012   1.110 -0.0021 -0.0445  0.1137
46036W        W88948  30.473  21.032   2.108 -0.0554  0.1849 -0.2113
46037W        W88949  31.695  18.413   0.361 -0.0044  0.4653 -0.5015
46038W        W88950  30.285  20.866   0.072  0.1188 -0.5210  0.2777
46039W        W88951  31.315  18.317   1.434 -0.1194 -0.0386 -0.1002
46040W        W88952  32.766  18.342   2.750 -0.2068 -0.0443 -0.0250
46041W        W88953  31.040  19.006   0.631 -0.0706  0.2448 -0.1328
46042W        W88954  32.386  18.563   2.988  0.1494 -0.1344 -0.0670
46043W        W88955  31.023  19.258   2.753  0.3644 -0.3195  0.0733
46044W        W88956  32.028  21.567   1.057 -0.1210 -0.0924  0.4108
46045W        W88957  31.000  18.138   2.394  0.2436  0.2730  0.1475
46046W        W88958  29.425  20.684   4.380  0.1458 -0.3619 -0.1176
46047W        W88959  29.477  18.692   2.863  0.2566  0.1433  0.1888
46048W        W88960  30.641  20.101  31.647  0.1958 -0.1353  0.3195
46049W        W88961  31.655  18.084  31.889 -0.0086 -0.0101 -0.1670
46050W        W88962  28.798  20.620   1.104 -0.3632  0.0221 -0.2515
46051W        W88963  33.081  19.698   2.852  0.0348  0.3502  0.2567
46052W        W88964  31.334  20.380   0.257 -0.0384  0.1507 -0.1644
46053W        W88965  32.407  19.087   2.953  0.1058  0.0210 -0.3053
46054W        W88966  29.892  20.019   3.567 -0.1488 -0.1394 -0.1551
46055W        W88967  32.444  19.813   1.666  0.0291 -0.2674 -0.2381
46056W        W88968  29.547  21.056   1.009 -0.1001 -0.0855 -0.0644
46057W        W88969  29.737  20.469   2.797  0.3859 -0.0574 -0.3477
46058W        W88970  30.516  17.887   4.876 -0.1268  0.3441 -0.1503
46059W        W88971  32.299  19.032   2.395  0.0653  0.1346  0.0927
46060W        W88972  31.617  18.710   1.286  0.2589  0.1380  0.0933
46061W        W88973  30.675  18.294   3.424 -0.0601  0.3361 -0.2142
46062W        W88974  32.850  19.067   3.182  0.1650 -0.1229  0.3737
46063W        W88975  30.983  18.721   3.185  0.0139 -0.1715  0.1675
46064W        W88976  29.916  17.777   2.823 -0.0453 -0.0102  0.3263
46065W        W88977  30.900  22.378   2.397  0.0446  0.1443  0.0224
46066W        W88978  32.019  19.451  31.198 -0.1428  0.0090 -0.0436
46067W        W88979  33.954  18.366   2.342 -0.0189 -0.1200 -0.1506
46068W        W88980  31.655  19.805   0.890  0.2235 -0.3269 -0.1329
46069W        W88981  30.002  20.033   0.634  0.1434 -0.5536 -0.0531
46070W        W88982  29.576  19.162   3.303 -0.1007  0.0922  0.2147
46071W        W88983  33.127  19.669   4.210  0.4497  0.1304  0.3173
46072W        W88984  30.399  19.647   1.196 -0.1069 -0.1455  0.2982
46073W        W88985  31.656  19.561   3.177  0.0899  0.1701 -0.3186
46074W        W88986  31.336  21.852   1.146 -0.2419  0.0297  0.0986
46075W        W88987  32.613  19.898   1.219 -0.0334 -0.0686 -0.2724
46076W        W88988  31.524  19.599   1.286  0.1772  0.0355 -0.1971
46077W        W88989  29.260  17.583   0.702  0.2011 -0.0504  0.0224
46078W        W88990  29.253  21.030   3.046  0.3215 -0.1647 -0.2569
46079W        W88991  30.620  18.665   0.027  0.1380  0.2765  0.0203
46080W        W88992  29.599  20.341   0.584 -0.1999  0.1945 -0.1364
46081W        W88993  31.449  20.966   2.146  0.0077 -0.1851 -0.0041
46082W        W88994  32.038  20.462   4.073 -0.0370 -0.3636 -0.1994
46083W        W88995  31.396  18.458   0.814  0.2763 -0.0550 -0.3448
46084W        W88996  32.466  19.333   3.579 -0.2272 -0.0971  0.2311
46085W        W88997  29.574  22.624   1.826 -0.0589  0.0173 -0.2751
46086W        W88998  32.933  17.375   2.633 -0.1277 -0.3198 -0.3339
46087W        W88999  30.622  21.623   2.988  0.1451  0.1790  0.1220
46088W        W89000  28.406  21.017   2.523 -0.2602 -0.0492  0.2335
46089W        W89001  29.562  21.922   1.160  0.0536  0.1863  0.0760
46090W        W89002  30.726  19.418   1.706 -0.0148 -0.2029 -0.0283
46091W        W89003  32.859  19.830   2.426 -0.1561  0.2885  0.0218
46092W        W89004  30.126  20.654   2.173  0.0675  0.1170 -0.3324
46093W        W89005  32.736  19.508   3.130  0.0775 -0.3653  0.0758
46094W        W89006  31.501  21.264   2.723 -0.4029  0.2301  0.1261
46095W        W89007  29.184  19.179   1.628 -0.1702 -0.1537  0.1612
46096W        W89008  32.090  20.365   1.782 -0.2775  0.1484 -0.0610
46097W        W89009  32.334  20.364   2.191  0.2173 -0.1935 -0.1545
46098W        W89010  31.057  20.248   2.666  0.3501  0.0173 -0.5131
46099W        W89011  28.679  19.463   2.902 -0.0935  0.5476  0.1937
46100W        W89012  32.379  19.813   2.761  0.0959 -0.3140 -0.0955
46101W        W89013  31.119  21.170   1.330 -0.0930  0.3217 -0.1024
46102W        W89014  30.224  17.848   2.207  0.2506 -0.0532  0.0734
46103W        W89015  31.409  20.857  31.297  0.3087 -0.2968  0.1514
46104W        W89016  27.951  21.747   2.521 -0.2611  0.1282 -0.3686
46105W        W89017  29.980  18.569   3.022  0.0162 -0.0344 -0.1877
46106W        W89018  29.604  22.871   1.342 -0.0585  0.4728 -0.5167
46107W        W89019  32.865  21.676   1.360 -0.0114 -0.4290  0.1941
46108W        W89020  29.825  21.144   0.434 -0.2097  0.1897  0.3343
46109W        W89021  32.543  22.420   3.020 -0.1142 -0.0184 -0.0110
46110W        W89022  29.891  18.311  31.432 -0.0220 -0.1374  0.2518
46111W        W89023  29.720  22.254   2.158 -0.1417 -0.0676 -0.0737
46112W        W89024  30.815  21.227   0.203 -0.1798 -0.2848  0.0803
46113W        W89025  31.578  20.857   1.160  0.1717  0.1270 -0.2192
46114W        W89026  30.242  21.515   1.217 -0.2007  0.1011 -0.0057
46115W        W89027  30.701  21.359   3.747  0.1216 -0.0174  0.1017
46116W        W89028  32.887  17.608   1.073  0.2116 -0.1910 -0.0178
46117W        W89029  32.994  20.226   1.088 -0.0764 -0.0815 -0.1198
46118W        W89030  31.788  19.652  31.853 -0.1382 -0.1404  0.1674
46119W        W89031  31.593  22.551   1.852  0.2151 -0.0306  0.2107
46120W        W89032  30.518  20.300   2.472 -0.0076  0.0104 -0.3439
46121W        W89033  31.213  17.625  31.114  0.1947  0.1549 -0.0009
46122W        W89034  31.281  19.831   2.896  0.0748  0.4424 -0.1706
46123W        W89035  33.058  19.222   4.721  0.2858 -0.3363 -0.2201
46124W        W89036  28.594  22.312   4.311  0.0680  0.1538  0.1265
46125W        W89037  32.933  21.758  31.918  0.4866  0.0669  0.0742
46126W        W89038  30.855  18.032   0.696  0.0120 -0.1326 -0.1119
46127W        W89039  29.862  19.741   2.204  0.2054 -0.1095 -0.0202
46128W        W89040  32.739  17.757   3.704  0.3701  0.0577 -0.0780
46129W        W89041  30.581  20.446   0.163 -0.0341  0.0702 -0.1250
46130W        W89042  32.383  19.785   2.229  0.2016  0.0530 -0.0362
46131W        W89043  31.325  21.649   1.633  0.0920 -0.2185 -0.0351
46132W        W89044  30.404  21.567   2.053  0.0085  0.2167  0.0578
46133W        W89045  31.805  21.670   2.525  0.1246 -0.3736 -0.1736
46134W        W89046  30.793  17.584   1.335  0.1580  0.0582  0.0508
46135W        W89047  34.113  19.478   1.640  0.0032 -0.4006 -0.2114
46136W        W89048  31.009  19.526   2.141  0.0372  0.0836 -0.0755
46137W        W89049  32.002  18.404   2.672  0.1728 -0.2004 -0.1132
46138W        W89050  29.760  18.969   1.627 -0.2503 -0.0124 -0.2660
46139W        W89051  30.738  18.333   1.097  0.0681  0.1727 -0.1451
46140W        W89052  31.786  20.007   2.029  0.1653  0.0483 -0.0885
46141W        W89053  31.410  19.146   3.561 -0.1279 -0.1279 -0.2175
46142W        W89054  29.710  20.725   0.186  0.0052  0.0832  0.1089
46143W        W89055  33.225  19.183   2.823 -0.2753 -0.0026 -0.1628
46144W        W89056  31.523  19.554   1.923  0.0501  0.0582  0.2358
46145W        W89057  31.290  20.231   4.138  0.0186  0.1177 -0.0820
46146W        W89058  30.344  18.878   2.730  0.0773 -0.0313  0.1939
46147W        W89059  31.518  18.857  31.839  0.1110  0.0127  0.1669
46148W        W89060  30.636  21.155   1.206  0.2218 -0.4386  0.1261
46149W        W89061  31.528  20.024   2.425 -0.1091  0.1427  0.1261
46150W        W89062  32.661  21.371   3.014  0.0682  0.1327 -0.1100
46151W        W89063  26.882  18.711   0.965  0.1750  0.1053  0.0418
46152W        W89064  32.441  21.285   0.072  0.0032 -0.0670  0.4696
46153W        W89065  32.520  20.954   1.438 -0.0594 -0.2392  0.0518
46154W        W89066  31.482  22.512   0.725  0.0989 -0.0231  0.0877
46155W        W89067  30.398  20.398   1.552 -0.3919  0.0211 -0.0663
46156W        W89068  33.399  21.444   1.657  0.0032  0.1451  0.1219
46157W        W89069  28.839  19.522   2.022 -0.2961  0.1500 -0.1308
46158W        W89070  32.488  22.159   1.366 -0.1797 -0.3753 -0.3118
46159W        W89071  32.555  20.886   0.902 -0.3995 -0.3393 -0.0068
46160W        W89072  31.105  18.751  31.081 -0.0159  0.0238 -0.3605
46161W        W89073  29.788  20.212   1.379 -0.1189  0.3813 -0.1421
46162W        W89074  30.097  21.966   1.932 -0.0280 -0.0439 -0.0171
46163W        W89075  31.851  18.543   1.667 -0.3334 -0.1741 -0.1861
46164W        W89076  32.776  18.910   2.701  0.2778 -0.4587  0.0717
46165W        W89077  31.180  21.084  31.871  0.1894 -0.3404  0.1686
46166W        W89078  31.433  17.777   2.650 -0.2083  0.1464  0.1180
46167W        W89079  31.754  22.025   1.866  0.0083  0.1254  0.1430
46168W        W89080  29.118  21.440   3.959 -0.1209  0.1932  0.1529
46169W        W89081  29.952  18.828   1.140  0.0155  0.0965 -0.0090
46170W        W89082  32.372  18.792   1.964 -0.5715 -0.5090  0.0633
46171W        W89083  29.965  21.405  31.921  0.1947  0.0486 -0.0964
46172W        W89084  31.228  21.328   0.851  0.1067  0.2004 -0.0921
46173W        W89085  33.057  22.007   1.911 -0.2077 -0.2053  0.2757
46174W        W89086  30.339  18.528   0.742  0.0178 -0.2665  0.0608
46175W        W89087  32.220  20.215   0.347 -0.2408  0.0738  0.1888
46176W        W89088  30.230  19.102   1.456 -0.0230  0.2406  0.0645
46177W        W89089  33.289  18.849   1.455  0.1394  0.0127 -0.0260
46178W        W89090  32.495  17.946   2.227 -0.1129 -0.0766 -0.2252
46179W        W89091  29.561  19.937   2.774 -0.1762  0.0066 -0.0742
46180W        W89092  27.604  19.312   1.108 -0.3253  0.1543  0.0992
46181W        W89093  28.774  21.548  30.665  0.2428 -0.2511 -0.0163
46182W        W89094  31.094  20.640   2.279 -0.2610 -0.0829 -0.1656
46183W        W89095  31.546  17.642   3.809 -0.1980 -0.0958  0.2510
46184W        W89096  30.219  17.651   3.225 -0.1582  0.1263 -0.0628
46185W        W89097  30.666  18.832   0.962  0.3375 -0.1710  0.3666
46186W        W89098  29.414  18.377  31.867 -0.1578 -0.0188  0.0244
46187W        W89099  31.664  21.516   0.679 -0.1566 -0.2144  0.0568
46188W        W89100  31.382  17.970   2.019 -0.0142 -0.0667 -0.0134
46189W        W89101  28.748  16.670   3.603  0.2839 -0.1957  0.1098
46190W        W89102  29.887  21.125   1.315 -0.0548 -0.2342  0.0563
46191W        W89103  31.280  20.472   1.303  0.4971  0.1546  0.2838
46192W        W89104  30.822  18.305  31.680  0.2182  0.1470  0.0689
46193W        W89105  31.119  23.001   4.851 -0.0399 -0.4263  0.0273
46194W        W89106  29.201  18.572   0.584  0.1339  0.0347 -0.0624
46195W        W89107  29.831  19.612   3.174  0.0748 -0.1085  0.0708
46196W        W89108  30.701  17.410   3.398 -0.3560  0.1844  0.0587
46197W        W89109  29.683  18.722   0.080  0.1364 -0.1967  0.0095
46198W        W89110  31.166  19.845   1.754  0.0833 -0.3251  0.1728
46199W        W89111  30.796  20.724   1.487 -0.1428 -0.0531  0.1576
46200W        W89112  30.734  22.089  31.930  0.1834  0.2592 -0.2776
46201W        W89113  31.456  20.385   1.951 -0.0325 -0.2877 -0.1126
46202W        W89114  31.477  21.776   3.006 -0.1148  0.4165  0.1254
46203W        W89115  29.273  19.553   3.046 -0.2568 -0.0574  0.1134
46204W        W89116  32.062  21.039   0.955  0.1472 -0.3056 -0.4515
46205W        W89117  30.514  19.943   2.886 -0.1490  0.2850  0.1139
46206W        W89118  33.981  20.849   0.507 -0.1652 -0.0756 -0.0006
46207W        W89119  34.368  17.537   1.919 -0.2230  0.0629 -0.0261
46208W        W89120  30.398  18.888   1.867 -0.1424 -0.2348 -0.1451
46209W        W89121  29.150  18.564   4.359  0.0645  0.0918 -0.2679
46210W        W89122  30.841  19.631   3.044 -0.0434  0.1190 -0.1153
46211W        W89123  32.044  20.130   2.487 -0.1701 -0.0346  0.0902
46212W        W89124  30.801  18.609   1.511 -0.1315 -0.0529 -0.2991
46213W        W89125  30.735  19.385   0.842  0.0747 -0.3089 -0.3162
46214W        W89126  30.916  20.868   0.869 -0.2099 -0.0762  0.0876
46215W        W89127  31.523  18.251   2.480 -0.0513 -0.0096  0.1025
46216W        W89128  30.199  19.904   1.551  0.0363  0.2984  0.0240
46217W        W89129  30.731  18.051   1.485 -0.4180 -0.2161  0.0445
46218W        W89130  31.535  21.231   1.719 -0.0461  0.1192 -0.1009
46219W        W89131  31.841  19.839   2.851 -0.1370  0.1259  0.0484
46220W        W89132  29.085  21.177  31.794  0.0491  0.1373 -0.3135
46221W        W89133  31.867  20.109   0.044 -0.0512  0.1485 -0.0058
46222W        W89134  31.551  22.251   3.320  0.0835 -0.1451 -0.1059
46223W        W89135  32.791  22.101   4.846  0.2366 -0.1967 -0.3102
46224W        W89136  32.155  22.969   2.859 -0.0348  0.0863 -0.3646
46225W        W89137  33.991  20.114   2.457  0.0001  0.2012  0.1297
46226W        W89138  30.456  18.329   1.797 -0.2411 -0.0670  0.0532
46227W        W89139  28.711  19.329  31.240  0.2531 -0.0191 -0.2454
46228W        W89140  29.622  20.842   2.077 -0.3212  0.1739 -0.1191
46229W        W89141  33.105  20.246   0.584 -0.1972  0.2122 -0.0007
46230W        W89142  28.766  20.034   1.820 -0.1081  0.3461  0.0160
46231W        W89143  31.732  18.240   1.140  0.2023 -0.0589 -0.0900
46232W        W89144  29.564  22.207   3.848  0.1221 -0.0587 -0.0867
46233W        W89145  31.304  20.355   3.034 -0.2539  0.0302 -0.2818
46234W        W89146  31.211  21.650   6.391 -0.1138 -0.0356  0.3285
46235W        W89147  30.744  19.323   4.816 -0.2339 -0.0694  0.0014
46236W        W89148  31.454  18.720   3.287  0.1947  0.0753  0.1890
46237W        W89149  31.745  21.391   4.147 -0.0159 -0.3495  0.1942
46238W        W89150  29.310  19.418   4.917 -0.3461 -0.0294  0.1250
46239W        W89151  32.028  21.263   5.589  0.2254  0.1366  0.2553
46240W        W89152  30.113  18.516   6.311  0.2335  0.1028 -0.0503
46241W        W89153  31.667  21.555   6.166 -0.0958  0.0507  0.0565
46242W        W89154  33.006  22.220   5.820 -0.0556 -0.1261  0.1322
46243W        W89155  31.231  21.017   3.649  0.2739  0.2469 -0.2560
46244W        W89156  29.278  19.835   5.768  0.0284  0.0782 -0.1812
46245W        W89157  30.716  21.807   6.328  0.0367 -0.2986 -0.0890
46246W        W89158  31.029  17.913   4.919 -0.1438 -0.3523 -0.0794
46247W        W89159  30.918  19.276   5.278  0.0683  0.0140 -0.1976
46248W        W89160  32.487  21.279   6.515  0.0867  0.1154  0.0383
46249W        W89161  29.387  19.921   3.945 -0.2738 -0.0812 -0.2922
46250W        W89162  29.822  19.440   5.029  0.3463 -0.0068  0.2874
46251W        W89163  31.187  18.698   5.342  0.0157  0.1055  0.2272
46252W        W89164  31.172  22.313   4.660 -0.1099  0.2333 -0.1971
46253W        W89165  30.369  18.928   6.910 -0.0899 -0.2278  0.2895
46254W        W89166  30.993  19.416   8.518 -0.1490 -0.1357 -0.1430
46255W        W89167  31.088  21.474   2.810  0.0855 -0.0853 -0.2501
46256W        W89168  30.080  20.133   2.484  0.0770  0.0728 -0.0572
46257W        W89169  29.531  19.905   4.824 -0.0372  0.1654 -0.0917
46258W        W89170  30.150  19.733   5.424 -0.1880  0.0118  0.3429
46259W        W89171  33.136  18.748   6.066 -0.1455 -0.2628  0.0018
46260W        W89172  32.065  20.594   4.692 -0.0950  0.0306 -0.0397
46261W        W89173  30.764  22.244   6.075  0.4494  0.2435  0.0273
46262W        W89174  31.966  22.443   6.938  0.0036  0.0516 -0.0138
46263W        W89175  32.464  20.218   6.947  0.1038  0.0228 -0.0324
46264W        W89176  29.122  19.361   4.330  0.1237  0.1866  0.3462
46265W        W89177  29.189  21.734   4.741  0.0254 -0.1183 -0.0551
46266W        W89178  30.017  21.142   4.416  0.1387 -0.0358 -0.0630
46267W        W89179  32.117  21.305   4.453 -0.0941 -0.0587 -0.0655
46268W        W89180  32.105  21.875   6.167  0.0791 -0.0110 -0.0179
46269W        W89181  30.500  20.602   8.655  0.3532  0.1033 -0.3398
46270W        W89182  28.231  20.655   3.790  0.2666  0.2298 -0.1261
46271W        W89183  30.856  22.182   7.238 -0.1663  0.2537  0.0884
46272W        W89184  29.284  20.706   7.559 -0.3114  0.2446 -0.0483
46273W        W89185  31.240  20.384   6.078  0.1335 -0.0310 -0.3291
46274W        W89186  32.085  19.341   4.210 -0.0041  0.1403  0.2005
46275W        W89187  29.994  20.588   3.798 -0.0311 -0.0187 -0.0513
46276W        W89188  30.654  20.733   4.637  0.2289  0.0387 -0.1591
46277W        W89189  28.465  20.401   7.068  0.1777  0.0266  0.0008
46278W        W89190  29.629  21.639   5.824  0.1835 -0.2742 -0.0971
46279W        W89191  31.223  18.939   8.185  0.0110 -0.1729 -0.0002
46280W        W89192  30.327  21.041   3.651 -0.1054  0.2109  0.0122
46281W        W89193  32.033  20.317   3.633  0.0246  0.1102 -0.1458
46282W        W89194  31.262  18.361   4.953  0.2369 -0.0477 -0.2867
46283W        W89195  33.265  18.254   4.278  0.0290 -0.1594 -0.1425
46284W        W89196  33.115  17.941   4.665  0.1137 -0.0543 -0.0794
46285W        W89197  29.389  22.045   5.708  0.1721 -0.2707  0.2396
46286W        W89198  31.270  19.663   5.285 -0.2031 -0.0955  0.0793
46287W        W89199  32.412  21.696   5.812  0.1982 -0.0993 -0.1125
46288W        W89200  30.466  20.528   5.782 -0.1706 -0.0466 -0.0210
46289W        W89201  31.774  21.414   7.083 -0.0862 -0.0878 -0.0395
46290W        W89202  30.944  20.732   6.894  0.1588  0.0654 -0.3002
46291W        W89203  30.725  19.721   3.696  0.4194  0.2446  0.3602
46292W        W89204  30.896  21.718   4.987  0.0786 -0.1233 -0.0701
46293W        W89205  33.899  19.377   3.893 -0.1163  0.0372  0.1220
46294W        W89206  31.301  21.277   3.186 -0.3138  0.2913 -0.5044
46295W        W89207  30.887  20.613   5.112  0.1722 -0.2546  0.1274
46296W        W89208  29.597  19.814   5.317  0.0759  0.0659  0.1117
46297W        W89209  30.653  20.299   6.986 -0.0916 -0.2001 -0.1239
46298W        W89210  30.062  18.496   4.770 -0.0291  0.0431  0.0000
46299W        W89211  32.416  20.814   6.165 -0.1183  0.1134  0.1947
46300W        W89212  30.681  21.268   6.368 -0.0773 -0.0372 -0.1215
46301W        W89213  33.429  19.219   5.024 -0.2264  0.0877 -0.0802
46302W        W89214  30.167  19.676   3.936 -0.2121  0.1493 -0.0730
46303W        W89215  31.958  21.898   7.010  0.2921  0.0019 -0.0651
46304W        W89216  32.524  20.317   3.929  0.4112  0.2762 -0.0128
46305W        W89217  32.682  16.180   5.402  0.3803  0.1964 -0.2432
46306W        W89218  33.004  18.766   5.159 -0.0959 -0.3461  0.0752
46307W        W89219  30.595  20.791   2.500 -0.0140 -0.3200 -0.1088
46308W        W89220  30.828  20.427   4.232 -0.1157  0.1236 -0.2181
46309W        W89221  33.195  20.917   7.479  0.2000  0.2522  0.0969
46310W        W89222  32.541  20.445   4.869 -0.2355  0.2593  0.1773
46311W        W89223  30.589  22.149   6.730  0.1404 -0.2154 -0.0558
46312W        W89224  31.003  19.732   4.756  0.1252 -0.0239  0.1293
46313W        W89225  31.259  22.547   7.331 -0.1185 -0.0260 -0.2107
46314W        W89226  29.934  20.885   2.818 -0.1769 -0.0184  0.0374
46315W        W89227  29.711  19.447   4.472  0.2046 -0.1932 -0.0395
46316W        W89228  29.721  20.028   4.337  0.2386 -0.0139 -0.0699
46317W        W89229  29.773  19.713   5.790  0.0489  0.0557 -0.0567
46318W        W89230  30.761  21.640   6.857 -0.1461 -0.1329  0.0676
46319W        W89231  33.145  18.234   5.939 -0.0626  0.1201 -0.0445
46320W        W89232  29.985  19.220   6.896 -0.1804 -0.0519 -0.0875
46321W        W89233  32.489  17.620   5.422  0.2811  0.0124 -0.0843
46322W        W89234  30.711  19.417   4.202 -0.0365  0.3594  0.0687
46323W        W89235  32.134  22.238   4.592  0.1110 -0.1468 -0.2772
46324W        W89236  32.956  20.038   4.853  0.2319 -0.4019  0.1932
46325W        W89237  30.487  20.780   4.144  0.0994  0.4022 -0.1981
46326W        W89238  29.205  19.449   5.397  0.0654  0.0212 -0.1028
46327W        W89239  30.136  19.363   5.935 -0.0784  0.3000  0.2170
46328W        W89240  30.583  19.271   6.551  0.1860  0.3249 -0.3163
46329W        W89241  29.903  18.931   5.910 -0.1470 -0.0765  0.0886
46330W        W89242  31.973  20.875   7.154 -0.1028 -0.2243 -0.1148
46331W        W89243  28.304  18.479   5.477  0.1631 -0.4671 -0.0818
46332W        W89244  31.338  19.138   5.572 -0.2242 -0.2070 -0.2501
46333W        W89245  31.608  19.605   4.818 -0.0362  0.0586 -0.1586
46334W        W89246  29.171  20.136   3.552  0.0279 -0.4296 -0.1048
46335W        W89247  31.804  19.508   6.765 -0.1034 -0.2051  0.1079
46336W        W89248  30.235  21.956   3.681  0.0621  0.0805  0.0628
46337W        W89249  32.700  21.282   5.994 -0.1388 -0.2634 -0.0294
46338W        W89250  30.770  21.639   4.307 -0.0486  0.0128  0.0217
46339W        W89251  29.532  19.442   6.686  0.0080  0.0845  0.2273
46340W        W89252  30.724  18.540   2.698 -0.1307 -0.0330  0.0524
46341W        W89253  28.820  22.157   5.675 -0.1691 -0.1695  0.0231
46342W        W89254  30.877  21.062   5.376  0.0765 -0.0096  0.0072
46343W        W89255  30.321  18.281   5.171  0.0731 -0.1213 -0.0620
46344W        W89256  31.500  20.198   4.851  0.1127 -0.3733 -0.1087
46345W        W89257  31.566  21.024   6.141  0.3530 -0.2199  0.2330
46346W        W89258  29.821  20.117   6.173 -0.1068  0.3098 -0.0137
46347W        W89259  32.851  19.874   6.709  0.1360 -0.1639 -0.0172
46348W        W89260  31.596  20.966   5.456 -0.2448 -0.0843  0.0326
46349W        W89261  31.777  19.020   3.990  0.1480 -0.0010 -0.4066
46350W        W89262  31.154  18.260   3.432  0.4142 -0.3189  0.1477
46351W        W89263  32.302  21.067   3.230  0.1071  0.0657 -0.2320
46352W        W89264  30.461  21.034   2.992 -0.0927 -0.2730 -0.5435
46353W        W89265  29.294  19.080   3.821  0.3863  0.1143  0.2285
46354W        W89266  30.490  20.929   5.067  0.2580 -0.0052 -0.3947
46355W        W89267  33.331  19.081   5.779  0.1606  0.2992 -0.0523
46356W        W89268  30.280  20.061   8.741 -0.1868 -0.1382  0.0407
46357W        W89269  30.812  18.903   7.794  0.2345 -0.0271  0.0972
46358W        W89270  29.579  18.332   4.719 -0.0601  0.2404  0.0353
46359W        W89271  30.230  21.402   7.345 -0.0033 -0.3917  0.0603
46360W        W89272  33.810  18.253   5.148  0.5169 -0.0424  0.1804
46361W        W89273  30.829  18.572   4.488  0.2166 -0.1466  0.0883
46362W        W89274  31.535  22.176   7.042  0.0724  0.2236 -0.0070
46363W        W89275  32.282  21.799   5.347  0.3241 -0.3396 -0.0842
46364W        W89276  31.761  20.035   3.882  0.0210  0.1612 -0.1854
46365W        W89277  30.489  17.794   4.137  0.2726  0.0224  0.1153
46366W        W89278  29.281  20.954   8.058 -0.0558  0.2524 -0.2072
46367W        W89279  31.871  20.957   3.804  0.2851 -0.0108  0.1591
46368W        W89280  30.491  21.185   6.971  0.3238  0.0436  0.1867
46369W        W89281  31.348  20.133   3.644 -0.0845 -0.0482  0.0153
46370W        W89282  32.800  20.061   4.333  0.1046  0.2165 -0.3391
46371W        W89283  28.057  20.300   5.133  0.1694  0.1092  0.2103
46372W        W89284  33.024  19.986   7.717  0.0099  0.1608 -0.1418
46373W        W89285  31.027  20.757   6.340  0.1623  0.1341  0.0943
46374W        W89286  30.568  19.518   6.097 -0.1662  0.0933 -0.0913
46375W        W89287  30.143  18.255   3.392  0.0705 -0.2239 -0.0440
46376W        W89288  31.547  17.990   4.744  0.1806 -0.1617  0.0532
46377W        W89289  28.426  21.738   3.413  0.3731 -0.2485  0.2024
46378W        W89290  32.420  18.204   5.839  0.2283 -0.0309  0.0533
46379W        W89291  31.941  19.667   5.225  0.0893  0.1377  0.0442
46380W        W89292  31.925  17.219   5.910 -0.1572 -0.1389  0.3211
46381W        W89293  32.874  19.522   7.123  0.1639 -0.2064 -0.0739
46382W        W89294  32.191  19.523   3.208  0.1659  0.2490  0.2773
46383W        W89295  31.864  20.454   6.950  0.1605  0.2840  0.1498
46384W        W89296  28.682  19.675   4.511 -0.3725 -0.1520  0.2363
46385W        W89297  32.307  19.235   6.330  0.0592  0.0851 -0.1148
46386W        W89298  30.354  20.735   6.684  0.2746  0.1030  0.1756
46387W        W89299  29.901  22.119   5.816  0.0972  0.0621 -0.1842
46388W        W89300  32.067  21.555   6.562 -0.0348 -0.2622  0.2862
46389W        W89301  31.974  19.722   3.572 -0.2548  0.0766  0.0672
46390W        W89302  31.282  19.565   6.146  0.1669  0.3236 -0.2167
46391W        W89303  31.829  18.661   5.142  0.1288 -0.4643  0.2819
46392W        W89304  29.677  21.431   4.154  0.2706 -0.0065 -0.2145
46393W        W89305  30.857  21.972   2.755  0.0560  0.2105 -0.4119
46394W        W89306  30.099  19.605   6.387 -0.0538  0.1034  0.2823
46395W        W89307  30.640  21.843   5.741 -0.3134 -0.2238 -0.0055
46396W        W89308  30.113  20.644   3.291 -0.0840 -0.0712 -0.1358
46397W        W89309  32.042  21.041   6.486 -0.0440  0.1337  0.1067
46398W        W89310  29.231  21.324   5.141  0.0462 -0.1092 -0.0834
46399W        W89311  32.276  18.139   6.852 -0.2286  0.3112  0.1206
46400W        W89312  29.763  21.537   6.321 -0.1967 -0.1387  0.0949
46401W        W89313  31.128  18.712   3.662  0.2484  0.0697 -0.1846
46402W        W89314  27.328  18.799   4.399  0.0213 -0.1943 -0.3753
46403W        W89315  31.953  18.383   6.015  0.1066  0.1081 -0.0071
46404W        W89316  30.846  21.112   3.326 -0.0738  0.2948  0.1930
46405W        W89317  29.519  18.820   5.557 -0.3472  0.2513  0.1765
46406W        W89318  32.356  18.115   5.283 -0.2334  0.1678  0.1331
46407W        W89319  29.647  22.074   6.229  0.0153  0.1104  0.1723
46408W        W89320  30.893  20.664   7.432  0.2234 -0.2599  0.1267
46409W        W89321  31.704  18.509   4.233 -0.0263 -0.1401  0.1023
46410W        W89322  32.628  21.664   7.375 -0.0544  0.1731  0.2378
46411W        W89323  29.824  20.678   7.525  0.2266 -0.3130 -0.0848
46412W        W89324  29.569  17.831   4.458 -0.0202  0.0130  0.0524
46413W        W89325  31.639  20.533   5.677  0.1025  0.2521  0.2216
46414W        W89326  30.229  21.841   6.083  0.0411  0.0043 -0.0282
46415W        W89327  32.217  22.127   6.572 -0.2560  0.0104  0.0041
46416W        W89328  31.197  19.225   4.027 -0.0404  0.0042  0.2621
46417W        W89329  30.310  21.426   4.140  0.3508  0.2572 -0.1239
46418W        W89330  30.151  20.481   6.185  0.0709  0.0575 -0.0080
46419W        W89331  32.654  20.528   5.404  0.1864 -0.2930  0.1254
46420W        W89332  30.629  19.903   5.676 -0.2193  0.0216  0.1051
46421W        W89333  31.870  19.073   6.174 -0.1097  0.2554  0.2047
46422W        W89334  31.074  19.071   4.495 -0.0224  0.0570 -0.2479
46423W        W89335  31.151  20.576   3.457 -0.0663  0.1701 -0.3034
46424W        W89336  32.044  19.915   5.657  0.2012 -0.1756 -0.0420
46425W        W89337  29.951  21.876   7.341 -0.0079  0.1056  0.1223
46426W        W89338  32.130  19.463   4.822  0.0118 -0.0901  0.2514
46427W        W89339  33.012  21.620   3.359  0.0444  0.2902 -0.2964
46428W        W89340  31.050  20.028   6.334  0.1110 -0.0138  0.0228
46429W        W89341  30.262  18.630   4.001  0.0847  0.2459 -0.2459
46430W        W89342  28.045  20.570   4.294 -0.1981  0.0535 -0.0808
46431W        W89343  30.876  21.140   4.739  0.0762 -0.2831 -0.4729
46432W        W89344  31.928  18.894   5.708 -0.1420  0.0110  0.4677
46433W        W89345  30.011  21.123   6.825  0.0968 -0.2118  0.1624
46434W        W89346  29.172  20.258   4.648  0.0800 -0.1120  0.1377
46435W        W89347  29.585  21.218   4.784  0.0141  0.1579  0.0727
46436W        W89348  31.884  19.131   3.047  0.0200 -0.2085 -0.3029
46437W        W89349  31.904  20.871   2.869 -0.0050  0.0534 -0.0002
46438W        W89350  31.111  18.933   6.077  0.1984  0.0900 -0.0214
46439W        W89351  32.820  17.818   6.902  0.0527  0.1359 -0.1332
46440W        W89352  32.473  19.813   3.531  0.2185  0.0891 -0.0617
46441W        W89353  31.941  18.073   5.577  0.1159 -0.3257 -0.2514
46442W        W89354  29.691  18.872   6.504 -0.1077 -0.0445  0.2151
46443W        W89355  32.327  20.227   4.422  0.3027  0.3826  0.2405
46444W        W89356  29.703  19.269   5.503 -0.1272 -0.1497 -0.2814
46445W        W89357  31.269  22.733   7.968 -0.1384  0.1074 -0.0067
46446W        W89358  29.341  19.848   7.059  0.0745  0.0230 -0.3163
46447W        W89359  33.183  18.602   3.869  0.1130  0.1419 -0.1198
46448W        W89360  30.941  17.376   4.919  0.0835  0.0286  0.1220
46449W        W89361  30.485  20.946   7.410 -0.2328  0.0002  0.2170
46450W        W89362  32.905  20.974   5.617 -0.1615  0.1786 -0.0561
46451W        W89363  32.064  21.779   4.206 -0.0008  0.2471  0.0250
46452W        W89364  32.382  19.740   6.005 -0.0847  0.1879 -0.3167
46453W        W89365  30.307  20.100   6.555 -0.2438  0.1571 -0.0532
46454W        W89366  31.457  20.686   4.463 -0.1596  0.2992  0.4095
46455W        W89367  31.159  19.776   3.970 -0.3281 -0.2119 -0.3941
46456W        W89368  30.054  20.177   5.669  0.1260  0.0297 -0.3672
46457W        W89369  30.505  19.377   5.609 -0.0871  0.0904  0.0236
46458W        W89370  31.147  20.888   5.729  0.1622 -0.0775 -0.0013
46459W        W89371  32.325  19.262   5.820 -0.2061 -0.0770 -0.1415
46460W        W89372  32.496  18.747   5.251  0.2343 -0.0841 -0.5188
46461W        W89373  31.857  19.456   5.759  0.0969 -0.2834  0.0286
46462W        W89374  30.679  19.789   6.545  0.1033 -0.2358  0.0233
46463W        W89375  29.872  19.719   7.128 -0.0365  0.3986  0.0317
46464W        W89376  32.637  20.616   8.450 -0.0300  0.0232 -0.4617
46465W        W89377  32.780  18.698   4.127 -0.0081 -0.2613 -0.0113
46466W        W89378  33.641  19.328   6.618 -0.2764  0.2163 -0.1596
46467W        W89379  32.437  19.022   4.004  0.0696 -0.0687  0.2509
46468W        W89380  30.348  20.243   3.903  0.1700 -0.0947 -0.0694
46469W        W89381  30.857  19.936   4.285 -0.0489  0.0920  0.0519
46470W        W89382  32.833  20.036   7.252  0.2927 -0.0360 -0.1466
46471W        W89383  30.700  18.532   5.380 -0.2862 -0.2075  0.0535
46472W        W89384  32.687  18.834   6.466  0.2041 -0.1462  0.1000
46473W        W89385  30.182  20.713   4.580 -0.1706  0.1314  0.2736
46474W        W89386  31.248  20.914   5.007  0.1331 -0.4446  0.0085
46475W        W89387  32.440  20.441   3.346 -0.0623  0.1854 -0.3382
46476W        W89388  30.106  19.212   4.131 -0.2208 -0.3718  0.3880
46477W        W89389  28.382  21.196   7.639 -0.2057 -0.3410 -0.0606
46478W        W89390  29.328  18.052   3.694 -0.1161  0.0014 -0.0308
46479W        W89391  31.271  19.701   3.456 -0.3191 -0.1516 -0.2628
46480W        W89392  32.142  21.324   6.084  0.0433 -0.2084 -0.1091
46481W        W89393  31.155  21.144   6.630 -0.0583  0.1530 -0.2033
46482W        W89394  31.104  18.209   5.378  0.1412 -0.0075  0.2065
46483W        W89395  31.609  19.970   5.845  0.4323 -0.2164 -0.0706
46484W        W89396  29.706  20.954   4.090 -0.0717  0.4268 -0.1121
46485W        W89397  33.707  18.393   5.736  0.1644  0.0720 -0.0405
46486W        W89398  29.728  22.585   6.012  0.1654 -0.2834  0.1009
46487W        W89399  27.432  19.757   4.862 -0.0762  0.1206 -0.0578
46488W        W89400  31.390  19.854   4.431  0.3785  0.1014  0.2793
46489W        W89401  31.078  20.473   4.670  0.0018  0.0697 -0.0197
46490W        W89402  32.021  20.055   4.835 -0.2607  0.1329  0.0667
46491W        W89403  30.317  21.043   5.554  0.3132 -0.1141  0.4845
46492W        W89404  32.769  19.581   6.305 -0.1210  0.0427  0.0429
46493W        W89405  31.491  19.911   6.997 -0.2707 -0.1830  0.4751
46494W        W89406  28.741  21.381   5.434  0.1860 -0.1964 -0.1368
46495W        W89407  31.097  22.046   6.741  0.1150 -0.0193  0.0855
46496W        W89408  32.482  21.140   4.764 -0.0344  0.3144 -0.0710
46497W        W89409  30.058  19.876   4.852  0.1998 -0.2683 -0.3199
46498W        W89410  28.973  19.539   7.039  0.0644 -0.0844 -0.2258
46499W        W89411  31.324  20.372   6.708  0.1017 -0.0211 -0.0023
46500W        W89412  32.230  20.860   5.191  0.0142  0.1510  0.0541
46501W        W89413  29.846  18.099   5.078  0.5266 -0.0711 -0.0804
46502W        W89414  29.948  21.682   4.572 -0.1093 -0.1703 -0.0552
46503W        W89415  29.543  20.357   7.764 -0.2312 -0.0693  0.2878
46504W        W89416  29.179  20.003   5.263  0.0624  0.2364  0.2069
46505W        W89417  29.112  20.935   3.990  0.0947 -0.0736 -0.1221
46506W        W89418  32.009  20.607   3.246  0.1947 -0.2836 -0.0361
46507W        W89419  31.617  20.497   3.807 -0.0486  0.1968  0.3617
46508W        W89420  32.777  21.574   6.820  0.0925 -0.1711  0.2619
46509W        W89421  31.428  18.253   6.099 -0.0728 -0.1005  0.1358
46510W        W89422  29.852  21.176   5.358  0.0929 -0.0373 -0.0860
46511W        W89423  28.689  21.204   4.226 -0.0187 -0.0940 -0.2647
46512W        W89424  31.278  21.257   4.378 -0.1644  0.0845 -0.6752
46513W        W89425  29.167  21.220   4.573  0.1280  0.0551  0.1117
46514W        W89426  32.528  19.786   5.001 -0.2929 -0.0368 -0.0665
46515W        W89427  31.918  18.431   4.705  0.2436  0.2227  0.0972
46516W        W89428  32.205  19.899   4.033  0.1468 -0.1763  0.0211
46517W        W89429  32.679  18.270   4.457 -0.4022 -0.3203 -0.4204
46518W        W89430  32.080  21.224   7.953 -0.0885 -0.0261 -0.3094
46519W        W89431  29.564  20.577   6.222 -0.1731 -0.0576  0.2267
46520W        W89432  31.617  19.303   4.435  0.0869 -0.2362  0.3606
46521W        W89433  29.943  20.982   6.302  0.0715  0.0040 -0.0619
46522W        W89434  32.353  18.773   5.986 -0.0479  0.1219  0.1913
46523W        W89435  29.057  21.809   5.377  0.0512 -0.2856 -0.0133
46524W        W89436  32.461  21.875   4.521  0.0467 -0.1082 -0.0246
46525W        W89437  30.344  18.778   5.050 -0.0447 -0.2062 -0.0235
46526W        W89438  29.886  20.817   5.003 -0.3238  0.1921 -0.2857
46527W        W89439  33.066  16.519   5.066 -0.1963 -0.0313 -0.2138
46528W        W89440  30.859  20.185   3.739  0.2506  0.1529 -0.0590
46529W        W89441  33.034  18.393   4.790  0.0289 -0.3230  0.2815
46530W        W89442  29.245  23.293   4.756  0.3238  0.0779 -0.2740
46531W        W89443  30.928  20.373   5.566 -0.1850  0.2337  0.1010
46532W        W89444  31.124  21.899   5.938  0.2524 -0.1578 -0.1221
46533W        W89445  29.478  18.260   4.157 -0.0516  0.1891 -0.0113
46534W        W89446  32.729  18.783   4.747 -0.1573  0.1136  0.3305
46535W        W89447  30.548  18.980   6.113 -0.1413 -0.1522 -0.1315
46536W        W89448  32.992  17.306   5.524 -0.2703 -0.3199 -0.1225
46537W        W89449  31.536  18.727   5.999  0.1635 -0.1246 -0.4689
46538W        W89450  31.964  18.919   4.435  0.1621  0.0962 -0.2480
46539W        W89451  31.151  21.238   6.078  0.3352  0.2297 -0.1309
46540W        W89452  30.232  19.872   6.031 -0.2757  0.1908 -0.0079
46541W        W89453  30.835  21.155   4.203  0.2076  0.2670  0.0365
46542W        W89454  32.759  20.549   6.476  0.2727 -0.0166  0.0360
46543W        W89455  30.949  20.788   2.931 -0.0268  0.2273  0.1362
46544W        W89456  31.841  23.230   6.555  0.3119  0.0313  0.1192
46545W        W89457  31.578  18.349   5.577  0.3205 -0.0994  0.2156
46546W        W89458  31.967  19.228   3.604  0.2761  0.4165  0.1843
46547W        W89459  30.649  19.736   5.165  0.0929  0.1244 -0.0911
46548W        W89460  31.841  20.531   5.150 -0.0985  0.0555 -0.0076
46549W        W89461  32.553  22.523   6.442  0.2249 -0.1671 -0.1443
46550W        W89462  30.108  17.923   4.595  0.0033  0.4532  0.0539
46551W        W89463  31.182  20.786   4.054 -0.4162 -0.2429 -0.1501
46552W        W89464  31.736  20.521   6.237 -0.1034 -0.0685  0.0912
46553W        W89465  30.281  19.512   4.523 -0.1556  0.2781  0.1464
46554W        W89466  32.124  21.344   5.078 -0.3523  0.0225  0.1934
46555W        W89467  32.893  21.654   4.527 -0.0573  0.2618  0.1381
46556W        W89468  28.197  19.301   5.109  0.2368  0.5114 -0.1490
46557W        W89469  31.655  21.878   6.607  0.0622  0.3014 -0.0557
46558W        W89470  32.563  20.115   5.762 -0.0986  0.1684 -0.5517
46559W        W89471  32.433  18.366   4.888 -0.1361 -0.0119 -0.1287
46560W        W89472  30.332  19.304   5.094  0.0942  0.0539  0.0205
46561W        W89473  29.825  21.173   5.845 -0.1731  0.1825  0.3311
46562W        W89474  34.074  18.373   6.557  0.2098 -0.2581  0.1933
46563W        W89475  31.569  20.053   6.366 -0.1129  0.1242 -0.2189
46564W        W89476  31.552  20.815   3.259  0.1840 -0.1310 -0.2507
46565W        W89477  33.216  18.140   6.427 -0.2067  0.0096 -0.0263
46566W        W89478  31.638  21.287   6.589  0.2510 -0.0169 -0.1261
46567W        W89479  30.818  22.673   7.603  0.1300 -0.0937  0.0348
46568W        W89480  27.980  19.727   3.420 -0.0370  0.5095 -0.1064
46569W        W89481  30.696  20.421   6.499  0.0236  0.0022  0.1024
46570W        W89482  29.968  22.373   5.356  0.2862  0.0040 -0.0211
46571W        W89483  29.564  21.713   3.695  0.0018 -0.1695 -0.2362
46572W        W89484  32.102  20.390   5.696  0.0649 -0.1430 -0.0511
46573W        W89485  30.971  20.128   5.108 -0.1917  0.0315  0.2934
46574W        W89486  31.895  20.909   4.330 -0.2060 -0.1146  0.1326
46575W        W89487  30.421  17.959   7.346  0.0619  0.0411  0.0433
46576W        W89488  32.178  18.511   5.513 -0.1675  0.1062 -0.2550
46577W        W89489  30.923  18.884   4.937  0.0688  0.1276  0.3655
46578W        W89490  30.237  21.436   6.527  0.0366  0.0131  0.0929
46579W        W89491  27.992  18.785   3.979  0.1314 -0.1653 -0.1213
46580W        W89492  29.369  19.629   3.562 -0.2357  0.3112  0.0436
46581W        W89493  30.508  20.202   5.290  0.3235  0.0181  0.2478
46582W        W89494  30.942  17.924   7.259  0.2304 -0.2635  0.3456
46583W        W89495  29.290  20.331   6.768  0.0310  0.1450  0.1274
46584W        W89496  29.561  18.981   5.086  0.3526  0.1688 -0.0848
46585W        W89497  30.407  18.873   4.522 -0.1098 -0.4736 -0.1460
46586W        W89498  32.258  20.605   2.715  0.0756 -0.0241 -0.2304
46587W        W89499  31.599  17.439   6.280  0.2870 -0.5382  0.0128
46588W        W89500  30.728  18.904   4.117  0.3082  0.2892 -0.0779
46589W        W89501  32.397  20.824   3.660 -0.1095 -0.0860 -0.0845
46590W        W89502  30.553  21.331   2.533 -0.2550 -0.0794 -0.2778
46591W        W89503  31.247  18.761   4.123  0.0227 -0.0063  0.1064
46592W        W89504  32.557  21.359   5.443  0.2248 -0.2235 -0.0879
46593W        W89505  28.801  20.531   2.612 -0.3995 -0.2008  0.1376
46594W        W89506  31.114  19.965   5.833  0.0892  0.1848  0.0204
46595W        W89507  30.112  18.065   7.805 -0.3470  0.0748 -0.0850
46596W        W89508  28.637  17.958   5.525 -0.1697 -0.0424 -0.0376
46597W        W89509  32.219  18.041   4.532  0.0956  0.3023 -0.1452
46598W        W89510  31.372  21.376   4.956 -0.0127  0.1994 -0.2541
46599W        W89511  31.849  22.051   5.173 -0.0432 -0.1153 -0.2373
46600W        W89512  31.632  22.462   6.560  0.0785  0.2441 -0.2915
46601W        W89513  28.803  20.887   7.655  0.3332  0.0729 -0.1182
46602W        W89514  30.125  18.112   6.958  0.0079 -0.0460 -0.1064
46603W        W89515  32.565  19.219   5.048  0.4216 -0.0653 -0.1434
46604W        W89516  31.200  22.626   6.817 -0.1704  0.1414  0.0051
46605W        W89517  32.433  19.223   4.544 -0.0617 -0.0439 -0.0439
46606W        W89518  34.019  17.847   6.658  0.1717 -0.3780 -0.2583
46607W        W89519  32.635  19.636   4.013  0.3305  0.0756 -0.1434
46608W        W89520  30.502  18.405   6.630 -0.1116  0.0859  0.1135
46609W        W89521  29.609  21.078   7.713  0.0606  0.2981 -0.2077
46610W        W89522  33.573  21.715   6.517  0.1501 -0.0883 -0.0966
46611W        W89523  30.791  18.962   5.643  0.1721 -0.0040 -0.1714
46612W        W89524  32.207  18.912   4.875  0.3337  0.2214  0.0474
46613W        W89525  31.614  21.583   4.600 -0.1641 -0.1127 -0.0753
46614W        W89526  28.888  20.935   5.312 -0.0728 -0.0014  0.0509
46615W        W89527  30.946  19.281   3.525 -0.0427  0.0490  0.0568
46616W        W89528  31.318  20.532   5.290 -0.0895  0.3913 -0.1042
46617W        W89529  31.377  21.885   5.041 -0.2702 -0.2979 -0.0844
46618W        W89530  32.373  19.648   6.709  0.2205  0.1823  0.0647
46619W        W89531  31.282  19.229   4.984 -0.0461 -0.2101  0.3131
46620W        W89532  33.419  19.965   3.912 -0.0373 -0.0221  0.0680
46621W        W89533  32.252  22.807   5.999  0.3848  0.1329  0.0343
46622W        W89534  33.016  22.912   8.406  0.2122  0.2810 -0.0878
46623W        W89535  29.474  21.500   7.472 -0.1251  0.0165  0.1892
46624W        W89536  31.902  19.760   4.396  0.0309 -0.0350 -0.1125
46625W        W89537  29.913  18.203   5.618 -0.0469 -0.1213 -0.2167
46626W        W89538  30.788  20.724   3.750 -0.0054 -0.3422  0.0279
46627W        W89539  31.452  21.348   5.716 -0.1543  0.1004  0.3326
46628W        W89540  31.777  19.128   4.921  0.0012 -0.1872 -0.1225
46629W        W89541  31.137  18.519   5.794 -0.3819  0.0069  0.4104
46630W        W89542  31.495  18.807   4.722  0.0762 -0.1661  0.1813
46631W        W89543  29.152  22.012   6.183  0.1111 -0.2609 -0.3202
46632W        W89544  31.715  21.040   4.740 -0.2382 -0.2729 -0.1656
46633W        W89545  31.334  19.353  10.028 -0.2230  0.1143  0.2284
46634W        W89546  30.207  20.653   9.162 -0.0413  0.1444 -0.0361
46635W        W89547  32.778  19.144   6.034 -0.1180 -0.1364  0.0148
46636W        W89548  32.489  19.480   8.138  0.0909 -0.2378 -0.3583
46637W        W89549  30.869  19.387   7.995 -0.1032 -0.0601 -0.0243
46638W        W89550  32.252  22.489   7.762 -0.0087  0.1781  0.1196
46639W        W89551  31.520  22.003   9.204 -0.2586  0.1560  0.1825
46640W        W89552  32.335  21.863   9.157 -0.2538  0.0485  0.0248
46641W        W89553  31.427  21.131   8.655  0.2400  0.1902  0.0094
46642W        W89554  33.336  18.767   8.950  0.1757  0.0414 -0.0962
46643W        W89555  30.034  18.463   7.388  0.0946  0.0895 -0.1195
46644W        W89556  29.123  18.236   9.084  0.1929  0.0367 -0.1663
46645W        W89557  31.770  18.873   8.448  0.1973  0.2359 -0.1372
46646W        W89558  28.762  20.461   9.306  0.3260  0.2431 -0.0722
46647W        W89559  31.724  19.883   8.905 -0.3237  0.2388 -0.3074
46648W        W89560  29.685  18.345   7.808 -0.3097  0.2751  0.1131
46649W        W89561  31.377  21.947   8.670 -0.0475 -0.1252  0.2739
46650W        W89562  32.122  19.143   9.082 -0.1119  0.0149  0.0419
46651W        W89563  31.565  21.744   7.451 -0.0799 -0.1430 -0.1288
46652W        W89564  30.347  20.262   8.221  0.0793 -0.0399 -0.0883
46653W        W89565  28.024  19.219   9.897 -0.3063 -0.0534 -0.0209
46654W        W89566  31.831  19.698   7.798  0.1506  0.1167  0.0020
46655W        W89567  32.831  18.805   8.761  0.2833 -0.1377  0.1849
46656W        W89568  32.518  20.141   8.458  0.0570 -0.1501 -0.0883
46657W        W89569  31.721  21.566   7.978  0.0316 -0.0884 -0.2539
46658W        W89570  31.195  22.364   8.934 -0.0860 -0.1718  0.0866
46659W        W89571  28.881  19.133   7.709  0.1434 -0.0168 -0.1251
46660W        W89572  29.511  21.488   7.993  0.0451  0.0795 -0.2636
46661W        W89573  31.374  21.579   6.896  0.1745 -0.0221 -0.1736
46662W        W89574  32.390  21.503   8.721  0.0914 -0.3784  0.1129
46663W        W89575  29.678  21.481   9.237  0.1260 -0.0084 -0.0852
46664W        W89576  31.931  19.576   8.491 -0.0726  0.3269  0.1617
46665W        W89577  31.296  19.045   8.773  0.2507  0.0366  0.4501
46666W        W89578  30.868  21.490   8.134 -0.0111  0.1266  0.3123
46667W        W89579  31.169  20.395   9.075  0.1698  0.1819 -0.1334
46668W        W89580  29.465  20.628   9.466  0.3353  0.0598 -0.1304
46669W        W89581  28.756  21.105   8.108 -0.3077 -0.0959 -0.2411
46670W        W89582  30.935  18.094   6.797 -0.0533  0.0134 -0.2427
46671W        W89583  31.449  19.129   6.426  0.0161  0.1642  0.3271
46672W        W89584  30.879  19.059   7.158  0.1069 -0.3173 -0.3382
46673W        W89585  31.192  18.845   9.226  0.2131  0.1491 -0.0492
46674W        W89586  30.484  21.841   9.169 -0.1948 -0.0623 -0.1472
46675W        W89587  30.518  18.105   8.734 -0.2956  0.0218 -0.0512
46676W        W89588  30.764  19.524   7.023 -0.2040  0.0663 -0.0407
46677W        W89589  32.926  19.988   9.007 -0.2415 -0.1753 -0.1972
46678W        W89590  29.501  19.334   9.941 -0.0536  0.1190 -0.1295
46679W        W89591  32.623  19.579   9.114 -0.2526 -0.0897  0.0159
46680W        W89592  31.800  22.900   6.187  0.0071  0.1974 -0.2444
46681W        W89593  31.499  21.507   8.992  0.0749 -0.1516 -0.0018
46682W        W89594  31.256  22.125   7.593 -0.1855 -0.1791  0.0247
46683W        W89595  27.817  20.350   9.565 -0.1489 -0.0158  0.3827
46684W        W89596  30.708  17.526   7.548  0.2355  0.2310  0.2709
46685W        W89597  34.049  22.976  10.183 -0.2486  0.1005 -0.0795
46686W        W89598  30.604  20.298   9.157  0.0940  0.0286  0.2845
46687W        W89599  31.671  20.248   9.595  0.1468 -0.0697 -0.0931
46688W        W89600  32.637  20.298   7.586 -0.1250  0.1348 -0.2521
46689W        W89601  32.915  18.027   8.448  0.2578  0.2532  0.0003
46690W        W89602  33.153  19.557   9.136  0.1453  0.0922 -0.0170
46691W        W89603  30.264  21.264   6.031 -0.1173 -0.2989 -0.0647
46692W        W89604  31.015  20.030   6.871 -0.1307  0.0956  0.2824
46693W        W89605  30.946  21.102   9.605  0.3864  0.4327 -0.5232
46694W        W89606  32.426  19.720   7.196  0.1079  0.0066  0.2730
46695W        W89607  30.114  22.717   9.362 -0.4906  0.2481 -0.3758
46696W        W89608  29.942  21.262   8.245  0.1362  0.1487 -0.0917
46697W        W89609  29.317  18.356   9.523  0.0701 -0.0638 -0.0564
46698W        W89610  29.422  20.112   8.644 -0.0355  0.1965 -0.0043
46699W        W89611  30.374  18.608   9.031 -0.0596 -0.0251 -0.0103
46700W        W89612  32.278  23.853   9.435 -0.0072 -0.1243  0.1977
46701W        W89613  32.837  18.524   8.274  0.0109  0.1742 -0.2993
46702W        W89614  32.810  18.615   9.199 -0.0679  0.1316 -0.1326
46703W        W89615  28.860  20.949   9.826 -0.1563  0.1729 -0.1086
46704W        W89616  34.067  22.251   7.805  0.5271 -0.1078  0.0500
46705W        W89617  32.018  20.095   6.109 -0.0444  0.3174 -0.0671
46706W        W89618  32.835  20.529   7.149  0.0899 -0.2738 -0.0696
46707W        W89619  30.393  19.373   8.267  0.2283  0.0057  0.0204
46708W        W89620  29.444  19.114   9.459 -0.0988  0.0920  0.2474
46709W        W89621  30.848  18.369   8.987 -0.1577  0.1314 -0.1077
46710W        W89622  29.587  18.670   7.394  0.0248  0.3282  0.2449
46711W        W89623  32.989  19.440   8.215 -0.2429 -0.0223 -0.0334
46712W        W89624  31.328  19.668   8.809  0.0851 -0.1985 -0.0482
46713W        W89625  30.688  21.607   8.755 -0.2303  0.0559 -0.0420
46714W        W89626  31.336  20.837   7.555 -0.0224 -0.0383 -0.0678
46715W        W89627  32.140  21.063   9.788  0.0460 -0.2645  0.0509
46716W        W89628  32.573  21.156   7.956 -0.1442  0.2620 -0.1085
46717W        W89629  30.575  15.593  11.033 -0.2429  0.1352  0.1012
46718W        W89630  29.835  19.382   8.160 -0.1314  0.0695 -0.0957
46719W        W89631  30.600  22.412   8.759 -0.1428 -0.2251 -0.3240
46720W        W89632  30.473  19.326   9.063 -0.2228  0.0035 -0.0986
46721W        W89633  29.778  20.244   9.167  0.0322  0.1120  0.0148
46722W        W89634  32.764  22.137   9.237  0.3206  0.1268  0.1855
46723W        W89635  30.961  19.868   7.814 -0.1283 -0.4401  0.3398
46724W        W89636  32.883  19.831   9.498  0.2324 -0.1206  0.0067
46725W        W89637  30.892  18.504   9.584 -0.1983 -0.0884 -0.0150
46726W        W89638  30.469  18.881   7.394  0.1034  0.0610  0.1262
46727W        W89639  32.332  21.956   8.599 -0.1492 -0.1513 -0.0386
46728W        W89640  28.730  21.666   8.167 -0.0117 -0.0786 -0.1047
46729W        W89641  28.671  19.579   8.755 -0.0064 -0.0980  0.1707
46730W        W89642  31.667  21.556   8.519  0.3514 -0.0230 -0.3207
46731W        W89643  33.500  19.277   8.751  0.1722 -0.1138 -0.1409
46732W        W89644  30.348  18.700   8.124  0.2833  0.0283 -0.1000
46733W        W89645  32.401  17.755   7.250  0.1236  0.0831 -0.1547
46734W        W89646  32.570  18.691   7.438 -0.0686 -0.2455  0.2222
46735W        W89647  32.013  20.784   7.696  0.1802  0.0613 -0.0354
46736W        W89648  31.508  19.992   7.543 -0.0229 -0.1309 -0.1945
46737W        W89649  32.314  18.734   6.976  0.1607 -0.2657 -0.0580
46738W        W89650  31.878  21.796   8.859 -0.0771 -0.0297 -0.0966
46739W        W89651  31.349  19.557   7.942 -0.1892  0.1106  0.0488
46740W        W89652  31.196  19.728   7.316  0.2186 -0.2137 -0.0334
46741W        W89653  31.747  20.839   8.867 -0.1972 -0.1719  0.1608
46742W        W89654  30.426  19.811   9.158 -0.1802  0.0331 -0.1194
46743W        W89655  31.693  22.305   8.839 -0.0825  0.0169  0.0365
46744W        W89656  31.737  17.654   9.682 -0.1128 -0.0313  0.1181
46745W        W89657  29.496  20.699   7.103  0.2110 -0.2380 -0.0982
46746W        W89658  31.368  18.898   7.372 -0.2669 -0.1742 -0.0546
46747W        W89659  28.990  21.077   6.869 -0.0839  0.0570  0.2459
46748W        W89660  31.371  20.142   8.706  0.0074  0.1045  0.1494
46749W        W89661  33.180  18.220   7.880 -0.1015  0.0052 -0.3332
46750W        W89662  32.449  18.989   7.829 -0.1639  0.0418 -0.2002
46751W        W89663  31.048  19.309   7.574 -0.1719 -0.1504  0.0220
46752W        W89664  29.895  20.409   6.598 -0.2573  0.0187  0.3158
46753W        W89665  32.320  17.124  10.117 -0.3376  0.2225 -0.2695
46754W        W89666  30.108  18.950   9.773  0.1329  0.1565 -0.0283
46755W        W89667  31.707  20.440   8.485  0.2849 -0.1902 -0.0217
46756W        W89668  32.170  18.604   8.109  0.0143 -0.1819 -0.2537
46757W        W89669  30.814  20.090   7.394 -0.1284 -0.1066  0.3901
46758W        W89670  30.966  21.169   7.171  0.2743 -0.1584 -0.2349
46759W        W89671  32.315  18.752   9.375  0.1146  0.1597  0.2523
46760W        W89672  30.122  21.327   9.417 -0.1782 -0.0112  0.0642
46761W        W89673  30.139  21.073   7.745  0.1350  0.1977 -0.0707
46762W        W89674  32.188  19.417   7.653 -0.4477 -0.0388  0.3139
46763W        W89675  30.765  20.781   9.138  0.1122  0.0096 -0.0948
46764W        W89676  31.588  19.139   7.813 -0.0592 -0.1759 -0.2270
46765W        W89677  29.605  21.966   9.092  0.1614 -0.1979 -0.1729
46766W        W89678  30.618  19.615   7.552 -0.0190  0.1604 -0.1686
46767W        W89679  28.989  19.967   8.897 -0.0532 -0.0032  0.1464
46768W        W89680  32.165  19.353   7.056  0.3628  0.0874 -0.2367
46769W        W89681  33.624  19.936   7.409  0.0419  0.0548  0.0714
46770W        W89682  31.733  19.369   8.890  0.0379 -0.2565  0.1376
46771W        W89683  32.267  18.351   9.711 -0.3245 -0.0922 -0.2210
46772W        W89684  30.324  21.472   8.461  0.0388  0.2542 -0.0786
46773W        W89685  31.338  19.327   7.011  0.2648 -0.1456  0.1186
46774W        W89686  28.078  19.408   7.675 -0.1366 -0.2292 -0.0822
46775W        W89687   0.970  19.782   9.184  0.2527 -0.1810 -0.2379
46776W        W89688  30.862  18.092   7.713 -0.1338 -0.0390 -0.0475
46777W        W89689  30.486  20.620   7.852  0.0427  0.2649  0.2501
46778W        W89690  31.961  21.291   8.791  0.0506  0.0283 -0.1865
46779W        W89691  30.920  18.508   8.125 -0.0464 -0.2342 -0.5089
46780W        W89692  29.733  21.521   8.649  0.0410  0.1090 -0.1999
46781W        W89693  32.356  20.513   9.857  0.1576  0.0959  0.0026
46782W        W89694  31.960  19.018   6.679 -0.0445  0.1540 -0.1311
46783W        W89695  30.646  19.796   8.245 -0.0930  0.1871 -0.1419
46784W        W89696  32.121  20.287   7.744  0.2530  0.1697 -0.1000
46785W        W89697  31.025  21.361   9.140 -0.3051 -0.1371  0.0710
46786W        W89698  32.528  19.571   9.903 -0.0857 -0.1255  0.0357
46787W        W89699  31.837  18.701   7.737  0.1207  0.2396 -0.0379
46788W        W89700  32.098  21.570   7.481  0.0610 -0.1423 -0.0996
46789W        W89701  29.722  20.722   8.079 -0.0088  0.1246 -0.3056
46790W        W89702  31.407  19.394   9.415 -0.2141  0.5207  0.2569
46791W        W89703  30.721  21.355   7.577  0.1118 -0.1496 -0.2800
46792W        W89704  31.662  18.638  10.211 -0.1079  0.3904  0.0023
46793W        W89705  29.432  21.185   8.954  0.2376 -0.3341  0.1463
46794W        W89706  31.124  19.863   8.370  0.1828  0.0061  0.1815
46795W        W89707  30.479  21.550   9.645 -0.0854  0.3568  0.1249
46796W        W89708  32.801  16.727   6.768  0.0915  0.3446  0.0531
46797W        W89709  31.997  19.966   6.577  0.0383  0.2231  0.0443
46798W        W89710  31.426  18.849   6.837 -0.1500  0.0801  0.0449
46799W        W89711  31.730  19.096   7.173  0.0222  0.2240  0.1713
46800W        W89712  31.099  18.536  10.018 -0.0538  0.0562 -0.2048
46801W        W89713  32.155  20.376   8.220 -0.1460  0.4262  0.1175
46802W        W89714  32.683  18.380   7.772  0.3425 -0.0118 -0.0059
46803W        W89715  29.679  18.193   7.122  0.2741 -0.1433  0.1162
46804W        W89716  31.342  19.971   9.294  0.1875 -0.1746  0.0754
46805W        W89717  33.359  21.008   8.368 -0.1710  0.1334  0.1409
46806W        W89718  30.466  21.831   7.435 -0.1799  0.0704 -0.0922
46807W        W89719  33.336  20.068   8.200 -0.0997  0.2714 -0.0585
46808W        W89720  31.089  20.765   8.749 -0.0418  0.1368 -0.1248
46809W        W89721  32.180  19.896   8.108 -0.0910  0.0018 -0.2030
46810W        W89722  31.595  20.786   6.628 -0.0399  0.1242 -0.1272
46811W        W89723  29.749  20.921   9.230 -0.1154  0.0334  0.0216
46812W        W89724  31.432  19.375   8.394 -0.1446 -0.2654  0.0332
46813W        W89725  32.247  18.865   8.602 -0.1987 -0.1926  0.1195
46814W        W89726  33.045  22.141   9.765 -0.2546 -0.0627  0.0053
46815W        W89727  32.557  19.207   7.300  0.2934 -0.1173  0.0809
46816W        W89728  32.775  18.602  10.186  0.0188 -0.0676  0.4562
46817W        W89729  32.407  19.358   8.720  0.0571 -0.1026  0.0079
46818W        W89730  33.011  19.029   7.333 -0.3495 -0.0553  0.2217
46819W        W89731  28.583  17.828   9.616  0.1092 -0.2015 -0.0718
46820W        W89732  29.575  18.938   7.009  0.1497 -0.1480  0.2686
46821W        W89733  30.843  20.292   8.056  0.0935  0.0248  0.1066
46822W        W89734  31.561  20.828   8.021  0.1311 -0.1253 -0.0385
46823W        W89735  31.624  20.307   7.935 -0.0270 -0.3670  0.0420
46824W        W89736  30.677  18.087   9.895 -0.4315  0.1386 -0.4055
46825W        W89737  29.852  18.895   7.803 -0.2956  0.2054 -0.0811
46826W        W89738  29.176  21.126   7.294 -0.2639 -0.0250 -0.2452
46827W        W89739  32.681  21.671   8.312  0.0999 -0.0511 -0.0783
46828W        W89740  32.220  18.543   6.525  0.2107 -0.0901 -0.2895
46829W        W89741  28.225  21.968   8.050 -0.0936  0.1238  0.1477
46830W        W89742  32.661  19.022   8.321  0.2178  0.0611  0.0499
46831W        W89743  31.177  20.551   9.610  0.2191 -0.1854 -0.0914
46832W        W89744  29.036  19.430   9.221  0.1363  0.2371 -0.0131
46833W        W89745  32.146  18.760  10.154  0.3475  0.5314 -0.0528
46834W        W89746  31.261  20.392   8.285  0.2121  0.3175  0.1406
46835W        W89747  31.401  19.787   9.745  0.0796 -0.0095 -0.0630
46836W        W89748  29.614  17.921  10.402  0.1816 -0.1152 -0.2662
46837W        W89749  32.315  21.076   8.374  0.2071  0.0352  0.0009
46838W        W89750  30.412  22.740   9.742 -0.0156 -0.3230 -0.1866
46839W        W89751  32.075  19.106   8.187  0.1825  0.1539 -0.1159
46840W        W89752  30.125  17.964   8.466  0.0606 -0.3963 -0.0724
46841W        W89753  30.014  20.699   7.092 -0.3437 -0.1031 -0.2837
46842W        W89754  30.940  19.151   9.591 -0.0682  0.1896  0.0424
46843W        W89755  29.189  21.406   8.380  0.2886 -0.1195 -0.1259
46844W        W89756  31.900  20.033   7.329 -0.0884  0.0050 -0.1703
46845W        W89757  31.725  20.514   7.409  0.1185  0.0808 -0.3281
46846W        W89758  32.742  21.704   9.528  0.0346  0.1350 -0.0550
46847W        W89759  30.316  20.432   7.412  0.2027 -0.2135 -0.0204
46848W        W89760  29.475  20.661   8.911 -0.1050 -0.2146 -0.1556
46849W        W89761  29.903  21.525   7.681 -0.0547  0.2190 -0.0636
46850W        W89762  30.535  22.645   6.994  0.1275 -0.4700 -0.5339
46851W        W89763  29.990  21.995   9.388  0.1725 -0.1525 -0.0317
46852W        W89764  32.117  17.916   9.401  0.1482 -0.1019  0.0908
46853W        W89765  32.793  20.820   9.420 -0.1580 -0.1398 -0.1534
46854W        W89766  33.015  18.302   8.856  0.0218  0.2771 -0.1253
46855W        W89767  33.674  19.103   8.155  0.1007  0.0763  0.0521
46856W        W89768  30.673  20.173   6.071  0.0071 -0.0737 -0.1045
46857W        W89769  32.319  21.364   7.041 -0.0486 -0.1810  0.2542
46858W        W89770  30.546  19.664   8.715 -0.0747  0.2099  0.1372
46859W        W89771  30.949  19.950   8.940  0.2726 -0.0707 -0.0101
46860W        W89772  32.549  17.898   9.660  0.3664 -0.1306  0.1588
46861W        W89773  31.082  21.739   7.273  0.0263  0.0943  0.0141
46862W        W89774  31.837  19.243   9.562  0.3027 -0.0591  0.3007
46863W        W89775  30.064  21.160   8.763  0.1067  0.3462 -0.3334
46864W        W89776  30.802  20.220   8.528 -0.2509 -0.0694  0.0986
46865W        W89777  31.619  22.992   9.355 -0.1297  0.0738  0.1211
46866W        W89778  28.422  19.139   7.964 -0.1156  0.2187 -0.0881
46867W        W89779   0.245  19.532   8.599  0.3514  0.2916 -0.0229
46868W        W89780  30.557  19.161   9.905 -0.1109  0.0332 -0.1556
46869W        W89781  30.368  19.199   7.794 -0.0734  0.0435 -0.3943
46870W        W89782  34.033  20.107   6.363  0.1677  0.1849  0.1597
46871W        W89783  28.879  17.726  10.247  0.1345  0.0916  0.2654
46872W        W89784  31.144  17.613   9.670 -0.1674  0.1315  0.0551
46873W        W89785  30.390  19.894   7.232 -0.1986 -0.2804 -0.0840
46874W        W89786  32.209  20.480   6.506 -0.0011  0.1738  0.1209
46875W        W89787  28.504  20.505   8.824 -0.2736 -0.0415  0.0638
46876W        W89788  31.853  18.595   7.005  0.1767  0.2576  0.0189
46877W        W89789  30.092  20.552   9.881  0.1212 -0.0099 -0.1281
46878W        W89790  32.477  19.852  10.326 -0.0501  0.1041  0.0457
46879W        W89791  29.960  19.733   9.119  0.0888 -0.1561 -0.0403
46880W        W89792  32.884  21.093   6.688 -0.0850  0.0703 -0.1220
46881W        W89793  32.990  20.215   8.580  0.0033  0.0508 -0.0306
46882W        W89794  31.008  22.283   8.056 -0.4283  0.0706  0.0787
46883W        W89795  32.697  20.845   7.606 -0.0217 -0.1863 -0.0914
46884W        W89796  32.604  22.612   9.797 -0.2033  0.0443  0.0245
46885W        W89797  30.135  22.327   8.981 -0.2785 -0.0014 -0.0095
46886W        W89798  31.874  21.992   9.859 -0.1090 -0.1095 -0.0746
46887W        W89799  32.378  21.055   8.906 -0.1139 -0.1120  0.1013
46888W        W89800  32.565  18.327   8.679  0.0272  0.2145 -0.1301
46889W        W89801  31.628  19.911   8.283  0.3088  0.0777 -0.1944
46890W        W89802  30.509  21.145   8.090  0.0450 -0.2698 -0.2376
46891W        W89803  32.909  19.287   8.691  0.1051  0.0154  0.2499
46892W        W89804  30.877  21.859   7.735  0.0024 -0.0184 -0.0143
46893W        W89805  31.951  20.587   9.408 -0.0105  0.1206  0.0611
46894W        W89806  29.992  19.989   7.529 -0.0807  0.2936 -0.0628
46895W        W89807  29.020  20.462   8.826 -0.0337 -0.0623  0.1905
46896W        W89808  31.218  21.362   7.636 -0.0249  0.2169 -0.1623
46897W        W89809  32.454  22.511   9.333 -0.0474  0.1108  0.1762
46898W        W89810  32.535  19.191   6.802  0.0580 -0.0785  0.1033
46899W        W89811  32.808  20.500   8.967  0.0280  0.0972  0.2038
46900W        W89812  29.812  18.327   9.703  0.1964 -0.1709 -0.2158
46901W        W89813  34.692  18.120   9.616  0.0545  0.0136  0.1473
46902W        W89814  32.065  18.334   7.464  0.3418  0.3259  0.1889
46903W        W89815  30.395  21.552   7.869  0.1541  0.2895  0.0242
46904W        W89816  28.620  19.188   9.074  0.1003  0.1381 -0.1047
46905W        W89817  28.879  20.062   7.039 -0.0552  0.0441  0.1523
46906W        W89818  29.244  20.262   9.215  0.0505  0.1577 -0.0565
46907W        W89819  30.789  18.956   8.880 -0.0818 -0.0757 -0.0316
46908W        W89820  29.769  17.876   8.776 -0.0851 -0.2358  0.0394
46909W        W89821  31.458  20.975   7.058  0.3148 -0.0743  0.0369
46910W        W89822  31.025  19.359   9.092 -0.1537 -0.1851  0.2970
46911W        W89823  28.603  18.340   8.722  0.1789  0.2395 -0.1229
46912W        W89824  30.965  20.917   7.872 -0.0326 -0.4601 -0.0316
46913W        W89825  30.784  20.772   8.284 -0.1994 -0.1017 -0.0122
46914W        W89826  31.493  18.397   7.337 -0.0787 -0.1171  0.2783
46915W        W89827  29.813  21.162   7.250 -0.1649  0.0201 -0.0371
46916W        W89828  29.676  19.978   6.732 -0.0092  0.2668  0.3065
46917W        W89829  32.661  18.123  10.124 -0.2108 -0.1472  0.0989
46918W        W89830  31.799  22.194   7.482  0.1230  0.1057 -0.1063
46919W        W89831  32.128  22.726   7.313 -0.1133 -0.0957  0.0682
46920W        W89832  28.896  17.254  10.269 -0.4912  0.0896  0.1042
46921W        W89833  32.476  20.081   8.934  0.1811 -0.0186 -0.2108
46922W        W89834  32.302  20.550   7.295  0.0854 -0.1884 -0.4521
46923W        W89835  33.337  20.543   8.641  0.1704  0.0567 -0.6289
46924W        W89836  31.256  20.446   7.210  0.0170 -0.0047 -0.1758
46925W        W89837  34.014  19.721   9.438 -0.0726  0.2177 -0.0283
46926W        W89838  31.748  19.528   7.359 -0.0186  0.0111 -0.1216
46927W        W89839  33.002  19.326   6.680 -0.2681 -0.0801  0.0486
46928W        W89840  32.344  21.166   7.504  0.0240 -0.1934 -0.0765
46929W        W89841  31.539  17.939   9.354  0.0561 -0.0916  0.1215
46930W        W89842  31.032  18.498   7.476  0.0460  0.0530  0.0929
46931W        W89843  31.943  21.763   9.422  0.4631 -0.1413 -0.1496
46932W        W89844  30.284  19.635   6.833  0.0485 -0.0404  0.4197
46933W        W89845  32.491  20.646   7.988 -0.1210 -0.1330 -0.0166
46934W        W89846  32.240  19.560   9.427 -0.2178  0.2757  0.2286
46935W        W89847  30.363  20.938   9.686  0.1737  0.3267  0.1131
46936W        W89848  31.630  20.336   9.082 -0.4801 -0.2951  0.1736
46937W        W89849  30.571  18.551   8.550 -0.1228  0.1481 -0.1073
46938W        W89850  29.489  19.747   7.546  0.1669  0.0049  0.0640
46939W        W89851  29.805  19.929   7.951 -0.4323 -0.0441 -0.1378
46940W        W89852  32.019  20.101   8.610 -0.5157  0.0074 -0.1189
46941W        W89853  30.519  17.591   9.866  0.1675  0.0408  0.0283
46942W        W89854  31.388  18.565   7.837  0.4655 -0.2031 -0.0597
46943W        W89855  30.558  22.418   8.248 -0.0211 -0.0154 -0.1756
46944W        W89856  32.180  19.724   8.939 -0.2181  0.2055  0.0999
46945W        W89857  29.277  24.855   2.293 -0.0095  0.0160 -0.2644
46946W        W89858  29.568  22.000   0.650  0.4519 -0.0145 -0.0594
46947W        W89859  31.019  23.227   0.896  0.0209 -0.0691 -0.1888
46948W        W89860  32.676  25.176   0.475  0.2667  0.2268  0.2632
46949W        W89861  29.036  22.716   1.673  0.0837  0.3153  0.1138
46950W        W89862  32.073  25.546   0.117  0.2021  0.1410  0.1927
46951W        W89863  29.635  21.329   2.907 -0.2095 -0.0314 -0.0090
46952W        W89864  31.241  23.711   1.283 -0.1559  0.4087  0.1986
46953W        W89865  32.902  26.544   1.802  0.2894 -0.3410  0.0407
46954W        W89866  30.816  25.977  31.895 -0.0790  0.0182  0.1122
46955W        W89867  30.361  22.479   4.526 -0.1762  0.1763 -0.0108
46956W        W89868  29.705  24.060   1.904 -0.0430  0.1832 -0.3685
46957W        W89869  31.711  22.222   1.047  0.3715 -0.3416 -0.0746
46958W        W89870  28.092  21.728   1.129  0.0545 -0.0391 -0.4503
46959W        W89871  33.893  23.784   3.885  0.0091 -0.1279 -0.0867
46960W        W89872  29.371  23.070  31.643 -0.0893 -0.2676 -0.0497
46961W        W89873  29.936  22.163   3.339  0.1002  0.0759  0.0183
46962W        W89874  32.198  22.734   1.229 -0.0572  0.1051 -0.0966
46963W        W89875  30.090  25.225   0.561 -0.1086  0.3124  0.1547
46964W        W89876  29.759  22.806   4.185  0.2355 -0.0952 -0.0953
46965W        W89877  30.492  20.824   6.217 -0.4793 -0.2292 -0.2619
46966W        W89878  29.563  23.383   0.346  0.0544 -0.0605 -0.3301
46967W        W89879  27.749  22.820   1.842  0.0192 -0.2515  0.2325
46968W        W89880  29.018  23.545   2.241 -0.3758  0.1483 -0.0308
46969W        W89881  29.235  24.135   1.540  0.0178 -0.3693 -0.1785
46970W        W89882  31.399  21.981   2.506  0.2931 -0.0270 -0.1130
46971W        W89883  29.861  23.727   1.510  0.1706 -0.2660 -0.0810
46972W        W89884  30.504  24.161   1.908  0.1359  0.0692  0.1008
46973W        W89885  31.188  23.557   2.215 -0.0261 -0.2760  0.3491
46974W        W89886  31.858  23.015   3.904 -0.1829  0.0520 -0.1192
46975W        W89887  27.565  23.397   1.678  0.0661 -0.1160 -0.1476
46976W        W89888  29.567  26.177   1.251  0.1691 -0.0860 -0.2528
46977W        W89889  29.700  24.054   1.178 -0.0532 -0.4481  0.1717
46978W        W89890  32.046  23.848   0.661 -0.0971 -0.0242  0.1408
46979W        W89891  31.384  25.125   3.060 -0.2309 -0.0414 -0.1365
46980W        W89892  30.314  25.122   3.962 -0.0918  0.0599 -0.2320
46981W        W89893  29.794  24.908   0.166 -0.1538  0.0315 -0.2788
46982W        W89894  29.850  25.421   2.942  0.1687  0.2298  0.2048
46983W        W89895  29.043  22.586   3.505  0.1448 -0.1433 -0.2973
46984W        W89896  29.790  22.762   3.040 -0.0879  0.0200  0.2780
46985W        W89897  31.134  23.434   1.768  0.0277  0.0067 -0.2558
46986W        W89898  30.270  24.591  31.510 -0.1227 -0.0412 -0.3411
46987W        W89899  29.596  23.019   0.862 -0.1294  0.4211 -0.2126
46988W        W89900  30.575  23.861   4.002  0.1489 -0.1317  0.1362
46989W        W89901  26.879  23.593   3.148  0.1414  0.0762  0.3196
46990W        W89902  32.914  20.622   2.279  0.0018 -0.4395 -0.0382
46991W        W89903  29.627  24.982   1.913  0.1367  0.3209  0.1648
46992W        W89904  31.742  24.386  31.642  0.2915  0.1885  0.2241
46993W        W89905  29.785  22.687  31.928 -0.1464  0.0519 -0.0814
46994W        W89906  31.730  22.694   1.128  0.3044  0.0802 -0.1059
46995W        W89907  31.307  22.681   2.279  0.0433  0.0456 -0.1680
46996W        W89908  29.983  25.182   1.612 -0.3652  0.1818  0.2242
46997W        W89909  31.536  23.539   2.638 -0.0970  0.2961  0.0738
46998W        W89910  31.654  23.646   3.423  0.2157  0.3297  0.0761
46999W        W89911  29.717  24.159   0.633 -0.1313  0.0608  0.2147
47000W        W89912  32.205  24.019   4.105  0.0504 -0.0697  0.0394
47001W        W89913  30.280  24.414   2.834  0.2388 -0.4050 -0.2795
47002W        W89914  30.112  23.095   2.134 -0.1968 -0.1171  0.1959
47003W        W89915  31.288  24.649   0.360  0.1550 -0.3758 -0.0183
47004W        W89916  32.414  24.246   0.019  0.0995  0.1367 -0.0688
47005W        W89917  31.130  24.124   0.632 -0.0134 -0.1757 -0.2310
47006W        W89918  28.921  23.555   1.306  0.3644  0.0517 -0.3588
47007W        W89919  29.042  22.715   3.041 -0.1042 -0.1623  0.0047
47008W        W89920  29.507  22.365   3.258  0.1567  0.2377 -0.0939
47009W        W89921  30.296  23.045   0.653  0.2036 -0.1639  0.0001
47010W        W89922  32.674  24.665   3.574  0.1520 -0.1017 -0.0065
47011W        W89923  27.798  24.817   3.174  0.2095 -0.1582  0.1673
47012W        W89924  33.001  24.335   0.018 -0.1107 -0.0058  0.0319
47013W        W89925  30.605  23.253   3.345 -0.4492  0.1361 -0.2160
47014W        W89926  31.963  25.706   0.929  0.1463  0.1613 -0.2621
47015W        W89927  31.561  25.287  31.407  0.3602 -0.1200 -0.3227
47016W        W89928  30.924  22.538   1.840  0.0135 -0.2532 -0.0047
47017W        W89929  32.768  22.584   2.575  0.1271  0.2331 -0.2547
47018W        W89930  29.740  25.501  31.118  0.0883  0.0384 -0.1072
47019W        W89931  31.842  23.562   0.187 -0.0503 -0.0630 -0.0375
47020W        W89932  31.757  24.590   1.279 -0.2167  0.2396 -0.1498
47021W        W89933  32.114  24.678  31.891  0.3638  0.1564 -0.1485
47022W        W89934  29.322  25.382   2.114 -0.0839  0.0942 -0.1696
47023W        W89935  30.202  21.870   3.001 -0.1255  0.2357 -0.1116
47024W        W89936  32.372  25.557   3.234  0.0710  0.0675  0.0676
47025W        W89937  28.743  26.512   0.527  0.2059  0.1933  0.0877
47026W        W89938  29.238  23.954   2.085 -0.0105  0.1892 -0.0014
47027W        W89939  29.082  24.124  31.867 -0.0952 -0.0421  0.2349
47028W        W89940  28.549  21.790   2.684 -0.0161 -0.2831  0.0200
47029W        W89941  30.949  24.127   2.118 -0.3179  0.0543 -0.1315
47030W        W89942  32.064  22.931   0.813  0.0175 -0.0637  0.0175
47031W        W89943  29.441  21.910   3.226 -0.0454  0.0699  0.0115
47032W        W89944  32.499  22.455   2.178 -0.1541  0.1111  0.0536
47033W        W89945  28.788  24.036   0.645 -0.3464  0.3813 -0.0856
47034W        W89946  31.638  25.223  31.979 -0.0455 -0.1346  0.1385
47035W        W89947  31.753  23.662   1.151 -0.0482  0.1286  0.1784
47036W        W89948  32.865  25.663   0.543 -0.1364 -0.0064  0.0151
47037W        W89949  29.772  23.770   2.324  0.3653 -0.1564  0.1452
47038W        W89950  29.650  22.418   0.974  0.0434  0.1948 -0.2392
47039W        W89951  30.454  21.850   2.514  0.3007  0.1676 -0.0648
47040W        W89952  29.504  20.831   2.586  0.0755  0.1690  0.2542
47041W        W89953  33.437  23.601   3.716  0.1773  0.0878 -0.2746
47042W        W89954  28.566  21.863   1.153 -0.0692  0.1613  0.5756
47043W        W89955  32.132  23.052   2.020 -0.1762  0.2175  0.1379
47044W        W89956  30.412  22.385   1.615 -0.3669  0.0790 -0.2067
47045W        W89957  29.327  24.637   1.525 -0.2895  0.1022  0.2881
47046W        W89958  32.319  21.609   2.291 -0.0325  0.2006 -0.2596
47047W        W89959  30.143  24.901   1.079 -0.0275 -0.0469  0.1849
47048W        W89960  32.065  25.083   4.033  0.1625  0.2035  0.4059
47049W        W89961  31.873  23.352   2.977  0.3703  0.1215  0.0975
47050W        W89962  28.410  22.570   3.840 -0.0485 -0.2526  0.1540
47051W        W89963  30.790  23.019   0.060  0.2980 -0.0322  0.0653
47052W        W89964  29.773  24.539   1.206  0.1230  0.1713 -0.1483
47053W        W89965  30.574  22.649   2.140  0.2002 -0.1984  0.2447
47054W        W89966  30.092  23.735   1.043  0.0374  0.2600 -0.1011
47055W        W89967  31.893  26.264   0.833  0.0820  0.2186  0.1370
47056W        W89968  32.313  25.090   0.173 -0.1072  0.0956 -0.0701
47057W        W89969  28.616  23.946   2.184 -0.0540  0.1053 -0.0112
47058W        W89970  31.853  22.465   4.202  0.0282  0.1965 -0.0585
47059W        W89971  32.122  23.782   3.322  0.2219  0.2004  0.0976
47060W        W89972  32.230  23.653   1.985 -0.0305  0.3195  0.1527
47061W        W89973  30.123  21.955  29.976  0.0228 -0.1662  0.1397
47062W        W89974  31.051  24.270   1.107  0.0488  0.0600 -0.0348
47063W        W89975  29.356  25.162   1.529 -0.1360  0.0997 -0.0336
47064W        W89976  27.437  23.275   1.020  0.1704 -0.0435  0.0136
47065W        W89977  29.143  23.003   0.568 -0.0356  0.0079  0.0153
47066W        W89978  31.720  23.551   2.104 -0.0612 -0.3569  0.2557
47067W        W89979  28.959  22.073   2.420  0.0276  0.2822 -0.1193
47068W        W89980  30.979  21.843   3.226 -0.0842 -0.0870 -0.0177
47069W        W89981  28.871  22.082   0.004 -0.1603  0.0120  0.0780
47070W        W89982  29.005  24.607   2.821  0.0190  0.2872  0.1915
47071W        W89983  32.024  22.054   2.304 -0.0486 -0.1182  0.1284
47072W        W89984  32.843  23.029   1.667 -0.1900 -0.1336  0.3652
47073W        W89985  30.936  23.622   3.219  0.1911 -0.0290 -0.0581
47074W        W89986  32.108  24.428   0.379 -0.0503  0.1025 -0.3322
47075W        W89987  31.870  24.131   0.064  0.2449  0.3460 -0.2736
47076W        W89988  30.853  20.353   1.059 -0.6262 -0.1048 -0.0421
47077W        W89989  28.829  23.127   3.252 -0.1790  0.1121  0.1978
47078W        W89990  31.746  24.158   1.650  0.0330 -0.2414 -0.2905
47079W        W89991  30.192  25.306   3.418  0.0022  0.1797  0.0682
47080W        W89992  30.593  23.780   0.425  0.2306  0.0472  0.1426
47081W        W89993  33.996  26.413   0.309  0.2735  0.1406  0.4241
47082W        W89994  29.337  23.721   1.296  0.0224 -0.1156  0.0700
47083W        W89995  31.998  25.159   3.200 -0.0528  0.1195 -0.1893
47084W        W89996  30.822  24.951   0.825  0.0264 -0.2036  0.2588
47085W        W89997  30.079  22.593   2.010 -0.0645 -0.1536  0.2259
47086W        W89998  30.293  21.385   0.372 -0.1774  0.3946  0.2739
47087W        W89999  31.384  23.876   2.966  0.1096 -0.1859 -0.0948
47088W        W90000  27.471  25.981   0.570  0.1154  0.0234 -0.0119
47089W        W90001  31.281  24.043   3.442 -0.3093  0.0012  0.0642
47090W        W90002  32.435  22.924   2.399 -0.3108 -0.3943 -0.0726
47091W        W90003  31.449  21.890   3.668 -0.0620 -0.1556  0.2468
47092W        W90004  32.241  22.673   3.970  0.1817 -0.2841 -0.0163
47093W        W90005  31.883  23.346  30.857  0.1451 -0.0055 -0.1404
47094W        W90006  31.160  22.373   2.842  0.0719 -0.1933 -0.1600
47095W        W90007  29.097  21.625   0.083  0.0994 -0.1943 -0.1756
47096W        W90008  31.136  23.107   3.470 -0.1188  0.4019 -0.1032
47097W        W90009  30.115  23.736   4.629  0.1872 -0.2721 -0.0741
47098W        W90010  28.245  24.857   3.324 -0.0500 -0.0117 -0.3421
47099W        W90011  31.787  25.568   3.193 -0.0103 -0.2052 -0.2122
47100W        W90012  29.906  24.460   0.275  0.2162 -0.0654  0.1157
47101W        W90013  30.468  22.396   3.699 -0.1091 -0.3860 -0.1958
47102W        W90014  29.962  23.395   0.723  0.1898 -0.0386  0.1016
47103W        W90015  29.258  23.955   0.519 -0.1797 -0.3132  0.0581
47104W        W90016  30.055  23.912   0.377  0.0519  0.0403 -0.0250
47105W        W90017  29.958  21.607   1.587  0.2367  0.4068 -0.1821
47106W        W90018  32.039  24.348   2.605  0.0959 -0.0760  0.0637
47107W        W90019  29.554  25.056   1.081 -0.1445  0.2146  0.1661
47108W        W90020  31.684  23.020   3.358  0.1133 -0.1564  0.0928
47109W        W90021  29.041  24.458   0.641 -0.1790  0.2755 -0.1049
47110W        W90022  33.250  21.381   2.472 -0.1561  0.0763  0.2213
47111W        W90023  29.335  25.069   0.041  0.0977  0.1394  0.0906
47112W        W90024  30.578  23.466   2.834  0.1719  0.0815  0.0810
47113W        W90025  29.682  23.355   1.224 -0.1004  0.0183  0.0979
47114W        W90026  32.191  23.189   1.536  0.1279  0.0663 -0.0329
47115W        W90027  32.553  25.002  31.473  0.0087 -0.1371 -0.0927
47116W        W90028  29.593  23.272   2.300  0.1795  0.0166  0.3204
47117W        W90029  30.121  22.000   1.321 -0.1671  0.0774  0.3871
47118W        W90030  28.230  23.644   2.397 -0.3423 -0.3413  0.0081
47119W        W90031  30.890  24.187   4.274 -0.0350 -0.1481 -0.1470
47120W        W90032  31.481  21.479  31.751  0.2832 -0.1000  0.1444
47121W        W90033  32.330  24.123   2.990 -0.0528 -0.1870 -0.0345
47122W        W90034  29.705  23.929   2.852  0.1789 -0.2098  0.0467
47123W        W90035  30.155  22.764  31.600 -0.2705 -0.0682  0.0699
47124W        W90036  33.050  23.617   2.766  0.0091  0.0618  0.1094
47125W        W90037  28.784  23.093   1.074 -0.0920 -0.0918 -0.2952
47126W        W90038  29.673  25.572   1.820 -0.0305  0.0048 -0.4144
47127W        W90039  29.513  25.235   2.573  0.0475  0.1777  0.2278
47128W        W90040  29.601  24.063   0.082 -0.3583  0.2410  0.1041
47129W        W90041  29.553  23.725   0.832  0.4498 -0.1094 -0.0813
47130W        W90042  29.110  21.985   4.063 -0.1617 -0.1267  0.1174
47131W        W90043  32.228  24.560   2.226 -0.2275  0.1137  0.1436
47132W        W90044  29.659  22.726   2.315 -0.1323 -0.1155 -0.2333
47133W        W90045  30.744  22.571   1.257 -0.2173 -0.0378 -0.0250
47134W        W90046  31.056  24.750   3.127  0.0832  0.1354  0.1137
47135W        W90047  33.175  24.166   2.865 -0.2481 -0.0207  0.3259
47136W        W90048  31.237  22.230   2.076  0.0391  0.2227  0.2840
47137W        W90049  30.936  24.196   3.131 -0.1290 -0.0701 -0.0574
47138W        W90050  30.699  22.664   0.761  0.2133  0.1097 -0.1468
47139W        W90051  32.268  26.277   1.241  0.0783  0.1662  0.1464
47140W        W90052  33.766  23.374   3.223 -0.1377  0.0579  0.0069
47141W        W90053  27.696  24.137   0.323  0.0276  0.0513 -0.0494
47142W        W90054  28.768  23.757   2.680  0.0538 -0.0093 -0.2672
47143W        W90055  29.235  23.350   0.936 -0.3080 -0.2619  0.0540
47144W        W90056  30.150  22.279   2.442  0.1382  0.0778  0.3697
47145W        W90057  29.323  23.240   3.162  0.0649 -0.0623  0.3092
47146W        W90058  29.284  24.537  31.721  0.1284 -0.0103  0.2551
47147W        W90059  29.352  24.881   2.948  0.2484 -0.1305 -0.1875
47148W        W90060  31.582  22.552   0.210 -0.0587  0.1149  0.4398
47149W        W90061  31.259  25.085  31.742 -0.0739  0.0964  0.2109
47150W        W90062  30.942  23.026   2.018  0.2552  0.0248 -0.1428
47151W        W90063  32.234  21.773   2.797  0.2212 -0.1285  0.2588
47152W        W90064  30.947  23.982  31.758 -0.0851  0.2267 -0.0773
47153W        W90065  32.490  22.592   3.487  0.1563 -0.1703 -0.0038
47154W        W90066  30.373  22.714   4.075  0.3696 -0.2717 -0.1263
47155W        W90067  31.300  24.480   1.541  0.0907  0.1116 -0.0649
47156W        W90068  28.846  23.938   1.732  0.5031 -0.1672  0.0604
47157W        W90069  31.018  24.925   2.599  0.2964 -0.1209  0.0266
47158W        W90070  29.046  23.590   3.563  0.0954  0.2774  0.3114
47159W        W90071  32.351  22.325   0.916 -0.0713  0.0774  0.3374
47160W        W90072  30.003  22.874   1.069 -0.2435 -0.2536  0.0151
47161W        W90073  30.354  23.795   1.543  0.2346 -0.0510 -0.0697
47162W        W90074  32.672  24.047   2.593 -0.2170  0.0570 -0.3891
47163W        W90075  30.577  23.966   1.044  0.1069  0.4537  0.1738
47164W        W90076  32.075  23.680   1.515  0.0327  0.0334 -0.1790
47165W        W90077  28.639  21.911   3.968 -0.3472 -0.0103 -0.2126
47166W        W90078  32.608  24.632   0.352 -0.0616  0.0519  0.0233
47167W        W90079  29.860  22.969   0.379  0.0807 -0.1021 -0.1002
47168W        W90080  30.434  23.897  31.921 -0.0711 -0.3230 -0.2954
47169W        W90081  29.435  22.392   4.298 -0.3378  0.0475  0.2003
47170W        W90082  32.266  23.476   0.988  0.1893 -0.0756  0.2573
47171W        W90083  31.674  22.987   2.686 -0.5637 -0.0063  0.0022
47172W        W90084  31.350  23.337   3.043  0.0683  0.0207  0.0641
47173W        W90085  32.483  23.549   3.604  0.1182 -0.2357  0.2691
47174W        W90086  28.854  22.416   3.905 -0.0852  0.2267 -0.2247
47175W        W90087  28.254  23.066   3.090 -0.0384 -0.0210 -0.2292
47176W        W90088  31.292  25.235   0.289  0.3680 -0.1637 -0.3065
47177W        W90089  31.868  23.395   0.700  0.2053 -0.1967  0.0837
47178W        W90090  32.109  22.234   3.360  0.2631 -0.1699  0.2609
47179W        W90091  33.099  23.459   1.498 -0.1289 -0.0770  0.2440
47180W        W90092  30.664  22.595   0.274  0.4412  0.2306  0.1812
47181W        W90093  28.221  22.309   3.389  0.0204 -0.0964 -0.4153
47182W        W90094  33.190  24.208   2.103 -0.0601 -0.2875  0.2340
47183W        W90095  30.426  22.132   0.402 -0.1765 -0.4803 -0.1339
47184W        W90096  30.552  22.185   3.250 -0.1942  0.1742  0.1873
47185W        W90097  30.768  24.379  29.819  0.0385  0.1890 -0.0029
47186W        W90098  31.670  23.028   2.124  0.3842 -0.0060 -0.1381
47187W        W90099  30.691  24.666   0.351 -0.1739  0.0739  0.1120
47188W        W90100  29.641  23.456   2.739  0.0896  0.3971  0.4655
47189W        W90101  29.055  25.917   2.981  0.0550 -0.1187 -0.1158
47190W        W90102  29.859  21.734  31.473 -0.2249 -0.1517 -0.5131
47191W        W90103  30.969  23.694   0.770  0.1000 -0.1119  0.1590
47192W        W90104  31.321  24.601   0.857  0.2432  0.1228  0.0234
47193W        W90105  32.977  24.769   3.086 -0.0165 -0.1759  0.1372
47194W        W90106  30.455  23.460   0.874 -0.3347 -0.3171 -0.2693
47195W        W90107  32.474  21.974   3.579 -0.0286  0.1635  0.1482
47196W        W90108  28.431  24.943   2.060 -0.0100  0.2041  0.1813
47197W        W90109  30.164  22.733   2.606 -0.0020 -0.1246  0.1824
47198W        W90110  31.020  24.110   2.653 -0.0004  0.1880  0.0106
47199W        W90111  26.822  23.881   3.697 -0.0270 -0.0655 -0.1671
47200W        W90112  30.192  24.263   1.373 -0.0784 -0.0396  0.0560
47201W        W90113  30.519  22.157   4.194 -0.1188 -0.2165 -0.1662
47202W        W90114  30.932  21.583   2.369 -0.3336 -0.2280  0.0716
47203W        W90115  30.121  23.213   2.626  0.0983 -0.0862 -0.0478
47204W        W90116   0.697  24.222   4.341  0.0596 -0.1061 -0.0030
47205W        W90117  31.932  24.764   3.593 -0.0929  0.2715  0.0325
47206W        W90118  30.269  23.394   0.302 -0.0159 -0.3575  0.1980
47207W        W90119  30.460  24.274   3.295 -0.0928  0.2819  0.1555
47208W        W90120  33.380  24.795   0.840  0.3531 -0.2585 -0.2143
47209W        W90121  30.264  24.979   2.032  0.2714 -0.1897  0.2782
47210W        W90122  28.719  22.172   3.468  0.0074 -0.4177 -0.0245
47211W        W90123  30.060  24.076   2.575  0.3263  0.0810  0.1331
47212W        W90124  31.441  25.058   2.255 -0.3137 -0.2737  0.0579
47213W        W90125  30.859  22.043   1.332 -0.1616 -0.1422 -0.2243
47214W        W90126  30.764  23.543   1.313 -0.0970 -0.0903  0.0309
47215W        W90127  29.085  23.336   2.740  0.0398  0.2983  0.1281
47216W        W90128  28.028  23.608   1.632 -0.3064  0.0813 -0.1648
47217W        W90129  29.072  25.009   0.646 -0.2147  0.1014  0.1591
47218W        W90130  31.962  26.003  31.963 -0.2633  0.0633  0.0234
47219W        W90131  30.997  24.641  31.889  0.2014  0.0050 -0.2015
47220W        W90132  31.687  25.535   1.541  0.2566  0.2587 -0.3102
47221W        W90133  30.600  22.164   2.053 -0.0034  0.0330  0.0432
47222W        W90134  30.714  25.623   3.327  0.0372  0.0096  0.1186
47223W        W90135  27.881  24.708  31.587  0.0409  0.1247 -0.2532
47224W        W90136  30.792  24.016   1.539 -0.0994  0.0493 -0.0548
47225W        W90137  29.151  24.754   1.070  0.0548 -0.3305  0.0526
47226W        W90138  33.190  25.408   3.166  0.3006  0.1099 -0.1563
47227W        W90139  31.031  23.534  31.465 -0.3303 -0.2662  0.0229
47228W        W90140  32.916  23.944   1.801  0.4182  0.1867 -0.0755
47229W        W90141  32.281  22.768   0.287 -0.1305 -0.0162  0.3132
47230W        W90142  31.707  24.745   3.119 -0.2049 -0.0907  0.1998
47231W        W90143  29.567  24.230   2.375 -0.0843 -0.0921 -0.0696
47232W        W90144  30.032  22.939  31.098  0.1835  0.1115  0.1222
47233W        W90145  30.802  24.081   3.641 -0.1145 -0.0994 -0.0273
47234W        W90146  32.304  21.285   2.676  0.3347  0.1867 -0.0982
47235W        W90147  29.118  24.527   3.828 -0.0610  0.1855 -0.0158
47236W        W90148  31.982  23.726  31.692  0.0047 -0.3859  0.0231
47237W        W90149  28.798  23.527   0.780 -0.0996 -0.0299  0.0573
47238W        W90150  30.537  23.157   1.761 -0.0321  0.0219  0.0994
47239W        W90151  32.221  22.385   2.660  0.0572 -0.0209 -0.0679
47240W        W90152  30.109  24.112  31.564 -0.0633  0.1706  0.1530
47241W        W90153  31.882  23.920   2.884 -0.2144  0.2828 -0.0296
47242W        W90154  30.330  24.856   0.098 -0.3256  0.2081  0.1576
47243W        W90155  28.792  24.710   2.349  0.0637  0.1644 -0.3994
47244W        W90156  31.148  23.093   2.456  0.1227 -0.1627 -0.3195
47245W        W90157  30.070  21.870   0.208 -0.1344  0.0751  0.0745
47246W        W90158  33.782  25.125   0.712  0.1854 -0.0959  0.1216
47247W        W90159  32.603  21.897   3.109  0.0195 -0.0292  0.0546
47248W        W90160  29.385  22.384   1.405 -0.0922 -0.0401 -0.1653
47249W        W90161  30.623  24.295   0.697 -0.1163  0.0692 -0.1138
47250W        W90162  32.062  23.334   2.516 -0.0854  0.1111  0.1988
47251W        W90163  29.544  22.024   1.712  0.2474 -0.2545 -0.2614
47252W        W90164  30.572  22.663  31.195 -0.1623  0.1328 -0.2396
47253W        W90165  32.845  23.424   3.223 -0.0759  0.2507 -0.1861
47254W        W90166  31.177  22.841   0.445 -0.0769  0.0901 -0.3266
47255W        W90167  31.061  26.094   3.267 -0.1155  0.1360  0.0649
47256W        W90168  29.196  23.162   1.408 -0.1001  0.1231 -0.0228
47257W        W90169  31.243  22.962  31.792 -0.2971 -0.2164 -0.1863
47258W        W90170  30.077  23.613   1.940 -0.1686  0.2625 -0.0306
47259W        W90171  29.614  22.392   2.668 -0.2007 -0.0689  0.0822
47260W        W90172  32.520  26.275   4.098  0.2591  0.0432  0.4935
47261W        W90173  29.583  21.600   0.355  0.0386  0.0455 -0.1054
47262W        W90174  31.921  25.570  31.245  0.2394 -0.1653 -0.0364
47263W        W90175  32.719  23.005   3.481 -0.0343  0.1751  0.0117
47264W        W90176  30.775  25.453  30.927 -0.0103  0.0587 -0.1279
47265W        W90177  31.539  24.167   1.163 -0.1418  0.1118 -0.1748
47266W        W90178  30.584  24.534   1.115 -0.2901  0.0864 -0.0638
47267W        W90179  28.492  23.562   1.871 -0.0073 -0.1919 -0.0202
47268W        W90180  31.562  23.978   2.442  0.0155 -0.0829  0.0289
47269W        W90181  32.182  24.586   3.969 -0.4014  0.2851  0.0653
47270W        W90182  31.691  23.419   1.630  0.2194  0.0346 -0.2769
47271W        W90183  31.182  22.287   1.026  0.0465 -0.0516 -0.3395
47272W        W90184  29.833  24.803   0.717  0.1182  0.0162  0.4880
47273W        W90185  31.756  22.560   3.685 -0.2979 -0.2234 -0.3100
47274W        W90186  31.632  22.406   2.546 -0.0986  0.2620  0.1658
47275W        W90187  30.982  25.184  31.290  0.1805 -0.0704 -0.1117
47276W        W90188  31.332  22.717   3.126 -0.1044 -0.0183  0.1740
47277W        W90189  31.748  24.673   2.130  0.0984  0.5552  0.0148
47278W        W90190  30.168  24.689   3.667 -0.2981 -0.3257  0.0933
47279W        W90191  28.632  24.456   0.975  0.1799  0.1337 -0.0815
47280W        W90192  31.546  24.339   2.864  0.0011  0.0040 -0.0798
47281W        W90193  29.840  23.241   1.730 -0.0999  0.0506 -0.1473
47282W        W90194  30.612  24.899  31.640 -0.0534 -0.1907  0.1504
47283W        W90195  32.223  24.968   1.896  0.0054 -0.2426 -0.0650
47284W        W90196  30.350  24.748   1.543  0.0110  0.1237 -0.0892
47285W        W90197  33.369  24.586   1.267 -0.1500 -0.2938  0.0285
47286W        W90198  30.828  21.662   1.847  0.0510 -0.0715  0.1984
47287W        W90199  31.341  22.976   1.769 -0.0619  0.2292  0.4741
47288W        W90200  32.893  22.278   0.792  0.0695  0.0857  0.2689
47289W        W90201  30.129  23.411   3.387  0.1658 -0.1995  0.0087
47290W        W90202  28.435  23.062  31.825 -0.0786 -0.2253  0.1129
47291W        W90203  29.774  24.439  31.801  0.1127  0.1563  0.1723
47292W        W90204  29.205  24.221   1.055 -0.3115 -0.1339  0.1537
47293W        W90205  30.388  20.014   4.355 -0.0338  0.0894  0.1170
47294W        W90206  30.252  23.078   3.065  0.5463 -0.3218  0.0750
47295W        W90207  28.336  23.326   0.901 -0.1073 -0.1443 -0.4239
47296W        W90208  30.258  22.554   0.549  0.1165  0.0639  0.1515
47297W        W90209  32.554  25.468   0.978 -0.1980  0.0683  0.1895
47298W        W90210  28.815  21.338   2.694  0.4089 -0.2730  0.0278
47299W        W90211  29.462  21.290   2.288 -0.1740  0.0265 -0.0586
47300W        W90212  31.081  23.582   2.704 -0.1997 -0.1816 -0.0068
47301W        W90213  30.553  25.211   1.091  0.4124  0.1717  0.0665
47302W        W90214  30.613  22.939   2.623 -0.0556  0.4126  0.1830
47303W        W90215  34.257  24.935   3.499 -0.0198 -0.3541  0.2878
47304W        W90216  27.407  23.950  30.857 -0.3238 -0.1308 -0.1287
47305W        W90217  30.791  22.805   3.789  0.1479  0.0463 -0.0678
47306W        W90218  29.981  22.486   3.828  0.0570 -0.2975 -0.0501
47307W        W90219  30.652  22.663  31.732 -0.4186 -0.0602  0.0802
47308W        W90220  30.937  23.022   2.991  0.2091 -0.1672 -0.2282
47309W        W90221  32.647  22.914   3.023  0.0503 -0.1234  0.0606
47310W        W90222  31.242  25.689  31.687  0.1624 -0.1337 -0.0785
47311W        W90223  30.472  23.806   3.411 -0.2369  0.0793  0.0769
47312W        W90224  29.746  25.035   3.304 -0.0793 -0.3912  0.0417
47313W        W90225  28.609  22.259   2.937  0.1194 -0.0302 -0.0776
47314W        W90226  33.068  24.740  31.499  0.1939  0.0874 -0.2003
47315W        W90227  29.687  24.518   2.740 -0.0352 -0.0772  0.0802
47316W        W90228  32.429  26.250   0.011  0.0729  0.2343  0.2971
47317W        W90229  32.281  21.328   1.853 -0.0488 -0.1493 -0.1127
47318W        W90230  30.370  24.305   0.212 -0.1818  0.2187  0.2156
47319W        W90231  29.414  21.824   2.220  0.0543  0.0266 -0.6927
47320W        W90232  28.135  23.456   3.858 -0.0352 -0.0587  0.1218
47321W        W90233  32.286  24.660   3.205  0.0829 -0.1744 -0.0492
47322W        W90234  30.197  22.835   1.525 -0.1794  0.3084 -0.1177
47323W        W90235  31.851  22.614   3.083 -0.1311 -0.0906 -0.2752
47324W        W90236  30.325  24.739   0.668  0.3245  0.1466 -0.3099
47325W        W90237  30.719  23.335   2.379 -0.0243 -0.0902  0.1563
47326W        W90238  30.943  23.029   1.483  0.1176  0.1147  0.2738
47327W        W90239  30.418  23.729   2.414  0.1755  0.1350 -0.0641
47328W        W90240  29.916  25.343   2.207  0.1581 -0.0287 -0.0235
47329W        W90241  33.493  25.594   2.709  0.1263  0.0588 -0.0499
47330W        W90242  31.524  23.839   0.757  0.1410 -0.0047  0.3578
47331W        W90243  32.331  23.630   0.182  0.0837 -0.0948 -0.0593
47332W        W90244  31.960  25.083   2.351  0.1939  0.1112  0.2173
47333W        W90245  30.768  25.899   3.698 -0.1486  0.0641  0.2356
47334W        W90246  30.422  24.799   2.455  0.3098 -0.1008 -0.0382
47335W        W90247  31.874  24.288   3.237  0.1845 -0.0515 -0.1152
47336W        W90248  30.170  22.373   2.956 -0.0637 -0.0496  0.2396
47337W        W90249  30.315  22.961   0.034  0.1509 -0.1075 -0.1806
47338W        W90250  29.355  22.954   0.123  0.0391 -0.0284  0.2074
47339W        W90251  33.009  24.883   2.588 -0.1386  0.2080 -0.0639
47340W        W90252  30.675  22.453   2.849 -0.1465 -0.1576 -0.2437
47341W        W90253  30.135  23.301   1.351 -0.1040  0.0879  0.0463
47342W        W90254  30.832  25.194   3.119  0.1424  0.2218  0.1205
47343W        W90255  32.163  24.813   2.757  0.0861  0.1013 -0.1776
47344W        W90256  29.906  24.411   5.645  0.0972 -0.0205  0.0422
47345W        W90257  28.214  22.196   5.126 -0.3658 -0.0492  0.4037
47346W        W90258  32.800  22.410   3.857 -0.2624 -0.1271 -0.0633
47347W        W90259  32.597  23.497   5.230  0.1696  0.0226 -0.1871
47348W        W90260  28.537  22.770   4.306  0.0699  0.2172 -0.1543
47349W        W90261  30.780  24.749   5.341 -0.1739  0.2272  0.1340
47350W        W90262  30.292  21.716   6.953 -0.1221 -0.0124 -0.1091
47351W        W90263  31.000  24.352   4.730  0.3592  0.0705  0.1976
47352W        W90264  32.749  25.977   5.724  0.0632  0.1705  0.0122
47353W        W90265  30.995  22.310   3.643 -0.0582  0.1186 -0.1815
47354W        W90266  30.065  23.441   6.244  0.0590  0.0100  0.1779
47355W        W90267  30.323  24.203   5.947 -0.0186  0.0390  0.1102
47356W        W90268  30.498  21.455   5.288 -0.2768 -0.2486  0.1111
47357W        W90269  29.627  22.736   5.526 -0.1157  0.0072 -0.0178
47358W        W90270  31.570  24.345   5.526  0.1216  0.0282  0.0829
47359W        W90271  30.104  23.646   2.942 -0.1115 -0.2416 -0.2574
47360W        W90272  30.616  24.530   6.227  0.1889  0.0387 -0.3220
47361W        W90273  29.541  21.933   4.404  0.2204 -0.1860  0.1056
47362W        W90274  31.568  23.255   4.361 -0.1867 -0.0968  0.2077
47363W        W90275  30.105  22.818   6.229  0.2558 -0.3286 -0.3441
47364W        W90276  30.951  22.919   7.175 -0.0075  0.0994  0.1521
47365W        W90277  29.850  24.871   4.106  0.1791  0.1827 -0.0154
47366W        W90278  29.242  23.067   4.180  0.2361 -0.0381  0.2565
47367W        W90279  28.977  23.484   5.603 -0.0600  0.0759  0.1511
47368W        W90280  30.007  23.004   5.314  0.3388  0.0594 -0.1011
47369W        W90281  30.779  21.378   5.812  0.3629  0.2891  0.1721
47370W        W90282  31.675  23.131   4.968  0.0446  0.0073 -0.2730
47371W        W90283  30.398  23.640   5.704  0.1335 -0.1262 -0.0346
47372W        W90284  32.511  24.325   5.220  0.2586  0.0401  0.0410
47373W        W90285  30.992  22.782   6.106  0.2299 -0.1253  0.1921
47374W        W90286  27.839  23.188   4.765  0.1330 -0.2110  0.1921
47375W        W90287  27.880  23.169   5.410  0.1091 -0.0802  0.3989
47376W        W90288  30.096  24.006   4.172  0.2836 -0.0158  0.0075
47377W        W90289  32.821  24.475   4.829 -0.2065 -0.1124  0.0470
47378W        W90290  31.781  24.998   6.247 -0.1077  0.0913  0.0750
47379W        W90291  30.528  24.290   5.456 -0.0759  0.0507 -0.1489
47380W        W90292  29.345  24.976   4.010 -0.0478  0.0642  0.1011
47381W        W90293  31.336  25.009   7.140  0.1838  0.0477  0.1159
47382W        W90294  31.183  24.010   6.827  0.0709 -0.1026 -0.2473
47383W        W90295  32.194  23.046   5.178  0.3231  0.2579  0.0857
47384W        W90296  31.399  22.281   3.954  0.0992  0.2009 -0.3061
47385W        W90297  30.434  24.105   4.522  0.1732 -0.0088  0.0257
47386W        W90298  30.239  24.119   5.002 -0.3653 -0.1679  0.2383
47387W        W90299  29.266  23.447   6.686 -0.0747 -0.0837 -0.0215
47388W        W90300  29.627  26.089   4.631  0.1016 -0.0816 -0.1143
47389W        W90301  32.321  23.427   6.785  0.0759  0.0708  0.1649
47390W        W90302  30.684  24.715   3.464  0.0333 -0.4049  0.0185
47391W        W90303  32.221  23.093   3.571 -0.0152  0.1844  0.0627
47392W        W90304  29.800  23.042   3.473 -0.2427  0.1634  0.1700
47393W        W90305  32.414  24.221   4.468 -0.3781  0.0914 -0.0403
47394W        W90306  30.063  21.724   5.092  0.2478  0.0024 -0.4242
47395W        W90307  29.881  25.611   5.597 -0.0169 -0.0740  0.0014
47396W        W90308  29.077  22.486   5.919 -0.1515 -0.0343  0.1480
47397W        W90309  32.858  24.959   6.013  0.2428  0.0813  0.2240
47398W        W90310  30.765  22.055   4.633 -0.0517  0.0066  0.0003
47399W        W90311  31.511  22.061   5.560 -0.2011 -0.1910 -0.2714
47400W        W90312  30.459  24.601   7.146  0.0230  0.1553 -0.1300
47401W        W90313  29.416  23.842   5.542 -0.0848 -0.0894  0.1867
47402W        W90314  33.412  25.979   4.538  0.0273 -0.0753 -0.1326
47403W        W90315  32.917  26.031   3.897 -0.1836  0.1816 -0.2810
47404W        W90316  31.731  25.443   4.913 -0.1083  0.2378 -0.1635
47405W        W90317  28.107  22.724   4.722 -0.1322 -0.3969  0.0350
47406W        W90318  29.711  24.176   6.106  0.0638  0.0884  0.1627
47407W        W90319  29.474  22.123   6.739  0.2247  0.1186 -0.0192
47408W        W90320  30.095  21.424   2.797  0.0872 -0.0913  0.0983
47409W        W90321  33.533  24.336   6.035 -0.0120  0.0673 -0.3045
47410W        W90322  29.562  23.232   6.280 -0.2571  0.0607 -0.1230
47411W        W90323  33.286  24.151   4.686  0.3117 -0.3645 -0.0320
47412W        W90324  29.832  23.793   5.064  0.1718 -0.0160 -0.0595
47413W        W90325  30.912  25.410   5.730 -0.2445  0.0558 -0.2031
47414W        W90326  30.136  25.698   5.141  0.2829 -0.1033  0.1908
47415W        W90327  32.093  21.757   4.854  0.2426 -0.0536  0.1963
47416W        W90328  31.936  21.758   5.686 -0.0161  0.1704 -0.1152
47417W        W90329  30.342  22.907   3.593 -0.1059  0.0230 -0.0602
47418W        W90330  30.986  23.835   4.582  0.4506  0.0140 -0.1893
47419W        W90331  33.082  25.534   5.415  0.4452 -0.0041 -0.0921
47420W        W90332  33.147  24.577   3.584  0.0453 -0.0768 -0.0938
47421W        W90333  28.949  24.836   5.814 -0.0149  0.0354  0.0570
47422W        W90334  28.847  24.007   6.522  0.0654  0.0834  0.0667
47423W        W90335  32.352  24.759   6.470  0.2942 -0.1894  0.0815
47424W        W90336  29.635  25.258   4.341 -0.0606 -0.1559 -0.5004
47425W        W90337  28.420  24.835   4.798  0.1796  0.2340  0.0401
47426W        W90338  29.491  23.381   3.864  0.0200 -0.2701 -0.0550
47427W        W90339  28.716  22.595   6.412 -0.0522  0.0751  0.2244
47428W        W90340  29.356  24.643   4.884 -0.2192 -0.0635  0.0675
47429W        W90341  32.608  21.592   4.920  0.2033  0.1959 -0.1108
47430W        W90342  30.111  22.686   5.703  0.2519  0.0036 -0.1555
47431W        W90343  33.528  22.339   5.689 -0.1237 -0.2946 -0.0671
47432W        W90344  28.698  24.888   4.215 -0.0182 -0.0871  0.1864
47433W        W90345  33.534  25.686   3.615  0.0097  0.1783 -0.0034
47434W        W90346  31.942  22.885   4.401 -0.0055 -0.0382 -0.2980
47435W        W90347  33.283  25.680   4.081 -0.0034  0.1702 -0.0537
47436W        W90348  29.811  23.067   5.886  0.2132 -0.2113 -0.2636
47437W        W90349  29.026  22.635   4.332 -0.0904  0.0058  0.3481
47438W        W90350  30.276  22.209   7.161 -0.0006 -0.2558 -0.0658
47439W        W90351  29.345  22.883   5.931 -0.0640 -0.1109 -0.1333
47440W        W90352  32.601  24.291   6.519 -0.0696  0.0715 -0.1602
47441W        W90353  27.663  21.103   4.680 -0.0592 -0.0183 -0.2102
47442W        W90354  30.810  22.640   4.460 -0.0505 -0.0544 -0.0573
47443W        W90355  28.349  23.591   4.503 -0.1308  0.1917 -0.0926
47444W        W90356  28.498  23.829   4.007  0.0167  0.2395 -0.0230
47445W        W90357  32.717  23.120   6.640 -0.1380 -0.2002 -0.1675
47446W        W90358  31.483  25.793   2.023  0.1553  0.3739 -0.1875
47447W        W90359  33.447  26.190   6.366  0.1921 -0.1165  0.1493
47448W        W90360  31.200  24.983   5.690  0.0097 -0.1529 -0.2090
47449W        W90361  29.012  22.183   7.142  0.0728  0.2271  0.1696
47450W        W90362  27.815  23.432   4.309  0.1542 -0.0378 -0.1866
47451W        W90363  27.729  24.992   4.792  0.2262 -0.1910 -0.2286
47452W        W90364  28.781  24.038   4.890  0.1060 -0.0738 -0.0278
47453W        W90365  30.135  21.260   4.894 -0.2088 -0.1041 -0.0751
47454W        W90366  32.075  25.780   4.992  0.0921 -0.0020  0.2796
47455W        W90367  30.923  23.481   3.690  0.0446  0.0697  0.0908
47456W        W90368  30.287  22.346   6.268  0.1595 -0.1700 -0.0926
47457W        W90369  33.092  23.421   6.540  0.1087  0.1516 -0.0357
47458W        W90370  33.020  24.418   6.723 -0.0023 -0.2695 -0.0214
47459W        W90371  33.092  22.629   5.483 -0.1118  0.2293 -0.1562
47460W        W90372  28.612  21.043   4.894 -0.1864  0.3015  0.0439
47461W        W90373  31.419  26.713   5.349 -0.2011 -0.1039 -0.0334
47462W        W90374  30.481  25.235   4.417  0.0056 -0.0874  0.1135
47463W        W90375  28.782  22.922   3.885 -0.2466 -0.0900  0.0224
47464W        W90376  30.246  24.651   5.306  0.0100 -0.2084  0.1517
47465W        W90377  31.809  22.512   5.297 -0.3027 -0.2166 -0.0029
47466W        W90378  29.487  23.135   7.256  0.1275 -0.0320  0.1290
47467W        W90379  31.717  23.968   8.072  0.0307  0.6263 -0.0907
47468W        W90380  27.802  22.114   5.431  0.0435  0.0483  0.1492
47469W        W90381  29.985  24.008   7.749 -0.1783 -0.2826  0.3009
47470W        W90382  31.164  21.764   4.573  0.2204  0.1651 -0.1495
47471W        W90383  31.847  22.134   2.874 -0.2178 -0.0641  0.3643
47472W        W90384  29.986  21.981   6.544 -0.0928 -0.2463  0.3209
47473W        W90385  32.648  25.163   4.401  0.2033  0.3820  0.0409
47474W        W90386  31.672  23.878   4.130 -0.1369  0.1391 -0.2371
47475W        W90387  31.060  23.104   4.039  0.2064 -0.3581 -0.1963
47476W        W90388  29.388  26.090   7.576 -0.0890 -0.0306 -0.0131
47477W        W90389  31.047  23.366   4.459  0.1173  0.0387 -0.0879
47478W        W90390  30.446  23.330   3.814 -0.0925 -0.2373 -0.0422
47479W        W90391  29.116  23.788   4.510  0.1860 -0.1188  0.5140
47480W        W90392  33.410  25.040   3.383 -0.5708  0.1546 -0.0589
47481W        W90393  28.218  24.052   5.385  0.1934 -0.1020 -0.0546
47482W        W90394  31.002  24.793   6.463  0.2804  0.1311 -0.3272
47483W        W90395  31.811  24.451   5.133  0.1208  0.0121 -0.3994
47484W        W90396  29.747  21.553   6.918  0.4172  0.1833 -0.1493
47485W        W90397  29.982  23.119   3.920  0.0777 -0.2249  0.0071
47486W        W90398  30.121  21.599   5.666 -0.1510  0.5871 -0.1582
47487W        W90399  29.149  25.538   4.604 -0.1246 -0.0804 -0.0305
47488W        W90400  31.858  23.520   6.895 -0.1278  0.0250  0.3000
47489W        W90401  32.494  23.656   4.566 -0.0457  0.1485  0.2600
47490W        W90402  29.819  22.340   7.113  0.0450 -0.0545 -0.3889
47491W        W90403  32.905  24.222   7.780 -0.0798 -0.1455 -0.0937
47492W        W90404  33.186  23.688   4.163 -0.2735  0.1685  0.2930
47493W        W90405  30.759  23.208   5.824  0.2074  0.3694  0.0130
47494W        W90406  29.632  23.856   4.288  0.4297 -0.1325 -0.1198
47495W        W90407  32.210  22.865   6.829  0.3051  0.0392 -0.1051
47496W        W90408  30.265  23.160   6.685 -0.0479  0.1650  0.1142
47497W        W90409  29.614  24.546   6.425 -0.0593 -0.0171  0.2680
47498W        W90410  31.749  24.377   6.014  0.2161  0.2964 -0.3054
47499W        W90411  31.670  23.744   4.651 -0.0860  0.1440  0.1219
47500W        W90412  31.300  23.146   6.915  0.0006 -0.2847 -0.0232
47501W        W90413  30.439  21.948   5.308 -0.1008  0.0746  0.0221
47502W        W90414  32.038  24.738   4.396  0.0548  0.3665 -0.0976
47503W        W90415  29.867  24.525   3.250 -0.0777 -0.3530 -0.4393
47504W        W90416  31.166  22.307   6.331  0.2964  0.2155  0.1362
47505W        W90417  29.030  24.323   5.726  0.0357  0.1652 -0.1465
47506W        W90418  31.531  24.522   3.553  0.0203 -0.0469  0.1074
47507W        W90419  30.853  24.370   6.760 -0.3430  0.0299  0.1931
47508W        W90420  29.079  26.232   4.544  0.0095  0.2041  0.2688
47509W        W90421  32.470  22.214   6.030  0.0785 -0.1076 -0.0278
47510W        W90422  27.910  24.473   4.963 -0.1668 -0.0410 -0.1154
47511W        W90423  30.327  24.918   3.187 -0.1117  0.1843 -0.3976
47512W        W90424  28.529  23.609   5.004 -0.2493 -0.1099 -0.3269
47513W        W90425  33.069  21.366   5.382  0.1755  0.0345 -0.1335
47514W        W90426  31.914  24.185   4.534 -0.2089  0.0021 -0.0382
47515W        W90427  29.816  23.066   4.845  0.1070 -0.1616 -0.2035
47516W        W90428  31.074  21.639   5.514 -0.2330 -0.1307  0.0936
47517W        W90429  28.461  25.344   5.717 -0.0178 -0.3010  0.1840
47518W        W90430  30.370  22.734   7.436 -0.2257  0.1155 -0.0885
47519W        W90431  31.466  23.343   3.828 -0.1297  0.1206 -0.0843
47520W        W90432  31.150  23.288   5.492 -0.2198 -0.0225  0.0437
47521W        W90433  30.551  23.209   7.074 -0.1753  0.0163 -0.1390
47522W        W90434  28.139  22.162   4.123 -0.0959  0.3227  0.2904
47523W        W90435  32.415  23.316   5.813 -0.0347  0.0724  0.0399
47524W        W90436  30.517  22.498   5.376  0.0152 -0.4062  0.2116
47525W        W90437  29.478  24.373   4.141  0.0976  0.0509 -0.1295
47526W        W90438  30.616  22.925   4.802 -0.2685  0.0929  0.1245
47527W        W90439  29.456  22.801   4.601  0.0105  0.1119  0.0477
47528W        W90440  29.437  25.162   4.807 -0.2602  0.3792 -0.2112
47529W        W90441  31.072  24.346   5.285  0.1430  0.1397  0.0149
47530W        W90442  30.557  22.687   5.898  0.0570 -0.1022  0.1840
47531W        W90443  29.951  22.238   4.205  0.0755 -0.0639 -0.1053
47532W        W90444  30.821  23.441   4.896  0.0084 -0.0576 -0.1265
47533W        W90445  31.044  23.644   5.814  0.1649  0.2103 -0.3088
47534W        W90446  31.396  23.092   5.907  0.0872  0.3781 -0.1709
47535W        W90447  30.280  24.204   6.883 -0.2235  0.5938 -0.2658
47536W        W90448  31.575  22.032   6.123  0.0904  0.2677  0.2268
47537W        W90449  32.996  26.234   4.478  0.0258 -0.0436 -0.0883
47538W        W90450  32.152  24.727   5.979  0.0693 -0.0317 -0.2318
47539W        W90451  29.395  23.887   3.808  0.4365 -0.2867  0.2918
47540W        W90452  29.147  24.274   6.266 -0.0181  0.1026  0.0401
47541W        W90453  30.063  23.692   3.790 -0.1030  0.2134 -0.4764
47542W        W90454  31.328  23.811   5.388 -0.0468 -0.0794 -0.3717
47543W        W90455  28.562  24.445   5.572  0.0370  0.0608 -0.2485
47544W        W90456  30.570  23.937   2.901 -0.2915 -0.0597 -0.1935
47545W        W90457  29.223  24.968   5.287 -0.1234 -0.3451 -0.2356
47546W        W90458  32.433  22.108   4.040 -0.1092  0.2570  0.0573
47547W        W90459  32.661  24.276   3.994 -0.1148  0.2963 -0.0070
47548W        W90460  30.338  23.647   5.170 -0.0314  0.0725  0.4170
47549W        W90461  31.613  23.235   7.400 -0.2790 -0.0768  0.1870
47550W        W90462  31.601  25.205   3.494  0.3392 -0.0549 -0.4654
47551W        W90463  30.130  22.404   6.721  0.0969  0.1203 -0.1986
47552W        W90464  29.262  22.449   6.351  0.0720  0.4482  0.1024
47553W        W90465  32.462  25.185   3.615  0.2661 -0.0424 -0.1958
47554W        W90466  28.492  23.507   6.058  0.0855  0.3026  0.3582
47555W        W90467  31.284  24.149   7.280  0.0387  0.1499  0.2740
47556W        W90468  29.364  23.868   6.459 -0.1401  0.0191 -0.0373
47557W        W90469  30.855  21.825   3.715 -0.0860  0.3072 -0.4290
47558W        W90470  29.980  21.457   3.701 -0.0935 -0.2440 -0.2186
47559W        W90471  30.275  23.176   5.823  0.1786  0.0413  0.3029
47560W        W90472  30.798  23.699   5.395 -0.2060 -0.1479  0.0477
47561W        W90473  30.227  23.311   4.833 -0.0014  0.1733 -0.0188
47562W        W90474  33.385  23.926   5.539  0.0122 -0.1897 -0.2029
47563W        W90475  30.027  23.318   7.196  0.0078  0.1340  0.2705
47564W        W90476  32.323  23.316   4.017 -0.3864  0.0479 -0.0591
47565W        W90477  30.217  23.419   4.219  0.0722 -0.1483  0.1379
47566W        W90478  28.409  24.436   5.084  0.0571 -0.2927  0.1502
47567W        W90479  29.221  21.577   6.468 -0.3451  0.0796 -0.1389
47568W        W90480  33.013  24.773   4.018  0.1149  0.1550  0.1387
47569W        W90481  31.716  21.537   5.301  0.0506  0.0290  0.0298
47570W        W90482  31.088  23.296   6.284  0.2979  0.3463 -0.1610
47571W        W90483  31.460  23.609   6.152 -0.0576  0.1041 -0.1033
47572W        W90484  29.759  23.150   7.834 -0.4660  0.2021 -0.0985
47573W        W90485  27.807  23.350   7.031 -0.0823 -0.0395 -0.1985
47574W        W90486  32.356  26.318   5.059  0.1011 -0.0376  0.0402
47575W        W90487  32.715  22.899   4.025 -0.0432  0.0250 -0.3026
47576W        W90488  31.888  23.686   6.419 -0.0554  0.0987 -0.0389
47577W        W90489  32.318  22.623   5.361  0.0367  0.2164  0.0513
47578W        W90490  32.340  23.359   3.143 -0.1212  0.2412 -0.0417
47579W        W90491  30.354  22.233   5.762  0.2671  0.0353 -0.0853
47580W        W90492  32.956  24.374   7.288 -0.3309  0.1145  0.2018
47581W        W90493  30.721  24.579   2.774 -0.2172  0.0717 -0.1385
47582W        W90494  32.288  23.220   6.318 -0.1223 -0.0244  0.1038
47583W        W90495  31.187  24.981   3.547 -0.0334  0.2199 -0.0815
47584W        W90496  31.278  25.630   4.912 -0.1617  0.0366 -0.0450
47585W        W90497  32.639  23.042   5.474 -0.0127 -0.1603 -0.0700
47586W        W90498  28.588  22.576   5.857 -0.1633 -0.3707  0.3974
47587W        W90499  29.851  24.966   6.525  0.0481 -0.2997 -0.2676
47588W        W90500  27.481  22.536   4.100 -0.0699  0.0886  0.1952
47589W        W90501  31.958  22.068   3.794 -0.1737  0.0049  0.1555
47590W        W90502  31.819  23.887   5.242  0.0645 -0.4546  0.1754
47591W        W90503  32.536  24.524   7.453  0.0107 -0.2482 -0.3706
47592W        W90504  30.487  21.520   4.668 -0.1553 -0.3142  0.0052
47593W        W90505  31.398  23.546   6.681  0.0412  0.2280 -0.1503
47594W        W90506  30.668  23.089   4.296  0.1837 -0.1767  0.0529
47595W        W90507  31.447  22.886   5.448 -0.0708 -0.4190  0.4316
47596W        W90508  30.925  25.274   6.489  0.1565 -0.1106 -0.3630
47597W        W90509  30.107  24.001   5.478  0.2485 -0.2387  0.0663
47598W        W90510  30.529  24.515   4.935  0.0162  0.0708  0.2577
47599W        W90511  31.039  22.504   5.648 -0.1139  0.0197 -0.0687
47600W        W90512  32.117  23.566   5.524  0.2799  0.2082 -0.4263
47601W        W90513  29.153  23.064   3.615  0.1722 -0.0022 -0.1953
47602W        W90514  32.813  24.845   6.514  0.1371  0.1678  0.4141
47603W        W90515  30.097  23.930   6.289  0.1435 -0.0078 -0.1010
47604W        W90516  30.188  22.642   5.043 -0.1576 -0.3449  0.0165
47605W        W90517  31.633  24.518   7.184 -0.0602 -0.0891  0.0759
47606W        W90518  31.352  24.760   5.296  0.2443  0.0444  0.2031
47607W        W90519  29.368  22.955   5.131  0.1194  0.1493  0.0713
47608W        W90520  28.245  22.395   7.193  0.2001  0.0626 -0.0026
47609W        W90521  30.457  24.874   7.920  0.1933 -0.1481  0.2474
47610W        W90522  31.127  23.748   4.095  0.2052 -0.2876 -0.4422
47611W        W90523  29.719  22.049   4.894 -0.2650 -0.1025 -0.1257
47612W        W90524  29.829  24.818   2.341 -0.1405  0.0296 -0.2967
47613W        W90525  29.233  25.604   6.860  0.0215 -0.3783 -0.1306
47614W        W90526  28.573  24.024   6.033 -0.0968 -0.0019 -0.2261
47615W        W90527  30.621  25.568   4.969 -0.0863 -0.0774  0.0701
47616W        W90528  33.292  25.179   2.332  0.1042 -0.1599  0.2783
47617W        W90529  31.504  24.692   4.721 -0.0396 -0.0646  0.1662
47618W        W90530  31.051  25.201   5.286  0.2021  0.1902 -0.2038
47619W        W90531  29.525  22.694   3.736 -0.1356  0.3532  0.1313
47620W        W90532  29.379  24.383   5.406 -0.2829  0.2817 -0.1902
47621W        W90533  28.818  24.155   2.949  0.0106 -0.0204 -0.1589
47622W        W90534  31.262  25.605   5.434 -0.0431 -0.1537 -0.0797
47623W        W90535  30.114  24.476   4.132 -0.0170  0.1806 -0.2755
47624W        W90536  32.734  24.061   6.959 -0.0649  0.1095  0.3881
47625W        W90537  31.499  21.408   3.654  0.1526  0.0680 -0.2788
47626W        W90538  32.467  23.933   5.512 -0.0626 -0.2043 -0.0145
47627W        W90539  33.128  22.690   4.184  0.2743  0.1002 -0.2663
47628W        W90540  33.009  25.306   6.384  0.0917 -0.2548 -0.0900
47629W        W90541  30.968  22.138   5.328 -0.1539  0.0679 -0.0990
47630W        W90542  30.662  20.198   4.759  0.0853  0.0398  0.3490
47631W        W90543  30.031  22.824   7.052  0.2345  0.4551  0.2476
47632W        W90544  32.123  23.236   7.321 -0.2848  0.0094  0.2441
47633W        W90545  29.928  24.664   6.040  0.2512  0.0897 -0.1629
47634W        W90546  33.279  25.943   3.145  0.1650  0.1332 -0.1979
47635W        W90547  28.024  22.077   4.636 -0.0696  0.3552  0.0221
47636W        W90548  29.273  24.285   4.590 -0.0801 -0.2459  0.1319
47637W        W90549  33.179  21.614   7.212 -0.0157 -0.0550 -0.4068
47638W        W90550  31.073  24.505   3.617  0.2007 -0.1404  0.4236
47639W        W90551  32.011  23.490   4.981 -0.1060  0.1694 -0.1649
47640W        W90552  29.385  25.109   6.137  0.1598 -0.0443 -0.0656
47641W        W90553  30.007  25.004   5.668  0.1121 -0.2378  0.0194
47642W        W90554  29.001  25.527   6.437 -0.0175 -0.2005  0.0890
47643W        W90555  28.227  20.956   4.560 -0.0669  0.2082 -0.1663
47644W        W90556  34.004  23.799   4.451  0.0614 -0.1058  0.0911
47645W        W90557  30.521  23.237   5.295  0.1744  0.0660 -0.1432
47646W        W90558  33.196  22.027   6.218 -0.2574  0.0782 -0.0749
47647W        W90559  28.743  23.152   5.155 -0.0484  0.1636 -0.0066
47648W        W90560  31.553  21.845   4.178  0.1940 -0.2384 -0.0871
47649W        W90561  30.702  22.423   4.914 -0.3784 -0.0966 -0.0525
47650W        W90562  29.613  22.725   6.730  0.1936  0.1302  0.0198
47651W        W90563  31.979  23.545   3.770  0.1832 -0.0034 -0.0390
47652W        W90564  32.828  23.608   7.912  0.2830 -0.0368 -0.0395
47653W        W90565  32.334  24.253   3.475 -0.1316  0.0994  0.2923
47654W        W90566  31.451  25.111   6.619  0.2315  0.0509  0.1353
47655W        W90567  28.502  22.467   4.807  0.1260  0.0532  0.2677
47656W        W90568  31.659  22.550   4.772  0.0386 -0.4705 -0.0074
47657W        W90569  29.475  23.490   5.182 -0.2713 -0.1647 -0.2793
47658W        W90570  30.758  24.012   5.850 -0.0785 -0.1624  0.1347
47659W        W90571  32.399  25.158   6.126 -0.2128 -0.1049  0.0559
47660W        W90572  28.942  20.726   4.558  0.2000 -0.0641  0.1112
47661W        W90573  32.835  25.782   3.072  0.2013  0.3010  0.0486
47662W        W90574  32.608  24.472   6.056  0.1594 -0.0753  0.0494
47663W        W90575  31.211  25.275   3.911 -0.0509  0.0614  0.0873
47664W        W90576  32.482  24.716   5.596 -0.3004  0.1126 -0.2031
47665W        W90577  31.513  25.433   5.789  0.2107  0.5043 -0.2294
47666W        W90578  29.615  23.607   4.684  0.0388  0.2695 -0.0145
47667W        W90579  31.406  24.122   4.944  0.0684  0.2256 -0.1766
47668W        W90580  32.012  24.832   5.367 -0.4178 -0.0058  0.0575
47669W        W90581  30.893  22.842   5.290 -0.2337 -0.1821  0.2422
47670W        W90582  29.016  22.211   4.597 -0.1652 -0.1445 -0.0061
47671W        W90583  30.083  25.846   4.631 -0.0490  0.2008  0.0888
47672W        W90584  32.739  22.983   6.181 -0.3864  0.1796  0.0119
47673W        W90585  33.204  23.840   6.049  0.3523  0.1314  0.1546
47674W        W90586  30.326  24.177   3.769 -0.0233  0.1081 -0.2534
47675W        W90587  32.247  23.050   7.727  0.1452  0.0479  0.2619
47676W        W90588  30.129  24.406   6.458  0.1731  0.0124 -0.0618
47677W        W90589  30.729  24.595   8.342  0.3386  0.0532 -0.1850
47678W        W90590  29.663  23.572   3.277  0.1876 -0.1920 -0.2762
47679W        W90591  30.950  23.533   6.891  0.1197  0.0388 -0.0701
47680W        W90592  29.811  24.186   4.618 -0.0365  0.3045 -0.3065
47681W        W90593  30.923  25.704   4.524 -0.3132 -0.1191 -0.2478
47682W        W90594  31.844  24.935   4.947  0.5737 -0.2288 -0.1348
47683W        W90595  31.324  22.466   5.179  0.0590  0.0206 -0.2505
47684W        W90596  32.311  23.893   4.984  0.0450  0.2652 -0.2819
47685W        W90597  30.202  22.978   4.504 -0.2354  0.1976 -0.1105
47686W        W90598  31.301  22.726   3.763 -0.1405  0.1830 -0.2185
47687W        W90599  32.173  22.685   4.872  0.0903  0.0953 -0.1230
47688W        W90600  30.489  23.593   7.355 -0.1313  0.0378 -0.2801
47689W        W90601  28.061  23.914   4.269  0.1375 -0.0408  0.0433
47690W        W90602  30.017  23.999   3.253 -0.0302 -0.0646  0.0108
47691W        W90603  28.926  25.028   4.910 -0.0301  0.0061 -0.0964
47692W        W90604  30.012  21.751   8.204 -0.3423 -0.1126  0.1331
47693W        W90605  28.345  23.765   6.479  0.0641  0.0525 -0.0567
47694W        W90606  28.254  24.037   4.808  0.0339  0.4182  0.1895
47695W        W90607  28.325  22.961   3.580 -0.1504 -0.0715  0.1218
47696W        W90608  32.035  26.351   4.236  0.1736 -0.0567  0.2130
47697W        W90609  30.260  20.417   4.930  0.0558  0.2730 -0.2749
47698W        W90610  30.015  20.406   4.252  0.1092  0.3730  0.2639
47699W        W90611  32.581  24.909   3.991  0.0727 -0.3449  0.1752
47700W        W90612  32.391  25.420   4.061  0.0240  0.0784  0.1694
47701W        W90613  29.595  21.679   5.277 -0.2998 -0.3752  0.0863
47702W        W90614  33.190  25.253   7.206  0.0856 -0.0073 -0.0802
47703W        W90615  29.051  24.073   4.090 -0.1410  0.0587 -0.0968
47704W        W90616  31.367  23.576   7.718  0.2589  0.4198  0.0311
47705W        W90617  30.980  23.421   7.373 -0.0948  0.1161  0.0713
47706W        W90618  27.618  21.989   4.341  0.1292 -0.1108 -0.0247
47707W        W90619  31.983  22.404   6.105  0.0723  0.2869 -0.2569
47708W        W90620  30.136  26.235   3.662 -0.1780  0.1578  0.1040
47709W        W90621  32.054  25.512   3.656 -0.0248  0.2465  0.2488
47710W        W90622  29.921  23.513   5.539 -0.0757  0.1347 -0.1069
47711W        W90623  30.204  25.569   7.117 -0.6087  0.2275  0.2826
47712W        W90624  28.713  21.348   7.279  0.0348  0.0971  0.1170
47713W        W90625  30.732  24.018   4.983 -0.1525  0.2657 -0.2708
47714W        W90626  31.873  24.394   6.575 -0.0116  0.0286  0.1719
47715W        W90627  32.266  25.055   4.712 -0.2306 -0.3703 -0.1038
47716W        W90628  32.660  22.648   5.779 -0.2923 -0.3857 -0.2604
47717W        W90629  31.035  22.055   4.154 -0.1515 -0.3649  0.1100
47718W        W90630  28.848  21.600   6.843  0.1511 -0.0396  0.0317
47719W        W90631  30.034  23.629   6.776 -0.0505 -0.3506 -0.1809
47720W        W90632  31.588  23.454   5.574  0.2156  0.0472  0.0818
47721W        W90633  29.569  22.553   5.014 -0.2712 -0.1119 -0.0180
47722W        W90634  31.380  24.165   4.422  0.0791 -0.2110  0.0867
47723W        W90635  31.771  25.147   4.439 -0.0546 -0.1246  0.4646
47724W        W90636  28.702  23.930   5.440 -0.0325 -0.0614  0.3400
47725W        W90637  29.699  23.269   4.371 -0.0300  0.3636  0.1718
47726W        W90638  29.793  22.719   7.528 -0.2542 -0.0785  0.1049
47727W        W90639  29.760  24.316   5.084  0.2550 -0.1808  0.2523
47728W        W90640  32.017  24.758   7.349  0.0945  0.0204  0.2391
47729W        W90641  30.251  22.200   4.931  0.0969  0.2364 -0.0929
47730W        W90642  31.749  24.356   4.097  0.0421  0.0003  0.3605
47731W        W90643  30.947  24.530   5.837 -0.0683 -0.1930 -0.2930
47732W        W90644  32.026  25.481   6.256 -0.2140 -0.2338  0.1982
47733W        W90645  30.314  25.347   5.910  0.0249 -0.2379  0.0416
47734W        W90646  31.033  24.307   6.282  0.2159  0.0077  0.0572
47735W        W90647  30.547  23.090   6.265  0.0322  0.2388 -0.1036
47736W        W90648  28.838  23.101   4.554 -0.2144  0.1072  0.1768
47737W        W90649  31.145  24.555   4.062  0.0547  0.1974 -0.3543
47738W        W90650  32.176  22.212   5.654  0.0220 -0.0712  0.0263
47739W        W90651  29.196  22.432   5.387  0.1715 -0.2070  0.1483
47740W        W90652  29.782  21.863   2.665 -0.0811 -0.2956 -0.0828
47741W        W90653  30.500  24.742   6.676 -0.0648  0.0519  0.1987
47742W        W90654  31.898  23.388   5.989 -0.0898 -0.0215  0.0651
47743W        W90655  30.355  25.376   9.027  0.0811  0.2173  0.0602
47744W        W90656  29.415  22.572   7.240 -0.0056 -0.1272 -0.0770
47745W        W90657  31.481  22.548   6.024 -0.1482 -0.0101  0.0585
47746W        W90658  32.366  22.903   8.712 -0.2986 -0.0654 -0.0647
47747W        W90659  28.159  22.952   8.705 -0.1280 -0.1110  0.0233
47748W        W90660  31.049  25.561   7.432 -0.2574 -0.0308 -0.2406
47749W        W90661  31.784  24.860   9.236  0.0884  0.0974  0.0487
47750W        W90662  31.239  24.777   9.983  0.2482 -0.1475  0.0188
47751W        W90663  31.505  24.041   6.406 -0.2312 -0.1692  0.0395
47752W        W90664  30.388  22.801   8.979  0.1408 -0.2858 -0.2911
47753W        W90665  31.092  21.517   8.545 -0.0641 -0.0621  0.1880
47754W        W90666  29.309  19.792   9.443  0.2119  0.0606 -0.2066
47755W        W90667  32.803  23.766   9.159  0.1400  0.1969  0.0645
47756W        W90668  29.310  23.237   8.048  0.1515 -0.2786 -0.0952
47757W        W90669  29.171  24.073   8.506 -0.0194 -0.1242  0.0900
47758W        W90670  30.206  22.663   7.939 -0.1351 -0.2578  0.0327
47759W        W90671  31.714  25.862   8.535 -0.2829 -0.1236 -0.0694
47760W        W90672  29.931  22.986   8.302 -0.1712  0.3656  0.0616
47761W        W90673  30.124  23.525   7.663  0.0741  0.1063 -0.0254
47762W        W90674  29.178  23.961   6.953  0.2679  0.0368 -0.0756
47763W        W90675  29.294  21.656   8.881 -0.1656 -0.3489  0.1198
47764W        W90676  29.640  24.416   8.594  0.0964  0.0493 -0.0045
47765W        W90677  31.871  23.989   9.838  0.1603  0.3166 -0.1754
47766W        W90678  30.000  23.499  10.060 -0.2910 -0.0573 -0.1196
47767W        W90679  32.210  26.189   8.820  0.0849  0.0985 -0.0328
47768W        W90680  31.339  25.225   8.995 -0.1171  0.3839  0.0982
47769W        W90681  27.972  24.356   7.795 -0.0011  0.2839  0.0083
47770W        W90682  29.379  25.751   8.959  0.2483 -0.0732  0.0650
47771W        W90683  31.093  24.748   8.042  0.0752 -0.2773  0.1536
47772W        W90684  31.948  24.631   8.727 -0.1523  0.0465 -0.1501
47773W        W90685  29.678  24.964   7.065  0.0087  0.0817  0.4478
47774W        W90686  32.569  25.580   9.110 -0.0563  0.2908  0.1483
47775W        W90687  32.028  22.951   8.172  0.0727 -0.1533 -0.1100
47776W        W90688  31.337  24.568   7.630 -0.1830  0.1387 -0.1122
47777W        W90689  28.483  24.392   9.313  0.0035  0.0332  0.2829
47778W        W90690  29.126  22.087   9.268  0.2799  0.4057  0.0671
47779W        W90691  30.609  25.359   7.898 -0.2827 -0.1177  0.1152
47780W        W90692  30.746  22.548   6.519  0.1001  0.0020 -0.1848
47781W        W90693  30.873  23.039   6.661  0.0599  0.2273 -0.1272
47782W        W90694  31.437  23.456   8.292  0.2752  0.0271 -0.1129
47783W        W90695  31.524  20.964   9.773 -0.1092  0.1299 -0.1871
47784W        W90696  31.581  25.397   9.377  0.0480 -0.1009 -0.0011
47785W        W90697  31.485  22.959   8.357 -0.0758  0.3014 -0.1340
47786W        W90698  30.503  24.266   7.971 -0.3536 -0.1656  0.3581
47787W        W90699  32.012  22.248   9.239  0.2941 -0.0769 -0.1935
47788W        W90700  29.167  25.537   8.336 -0.4597  0.1201  0.0383
47789W        W90701  28.635  22.224   8.751 -0.1159  0.1290  0.1004
47790W        W90702  32.187  24.217   6.249 -0.1390  0.0326 -0.1416
47791W        W90703  32.052  25.433   9.245 -0.0319 -0.0854  0.0155
47792W        W90704  32.233  26.239   8.145 -0.2983 -0.1633  0.1107
47793W        W90705  28.674  22.246   7.528  0.4551 -0.2350 -0.1387
47794W        W90706  28.585  21.931   7.147 -0.0859  0.1192 -0.0454
47795W        W90707  32.713  23.337   8.901 -0.2009 -0.0135  0.1833
47796W        W90708  29.419  25.247   8.721 -0.3325  0.3003 -0.1271
47797W        W90709  32.625  24.636   9.608 -0.0845 -0.0085  0.1713
47798W        W90710  31.664  24.798   5.749 -0.2900  0.1122  0.0954
47799W        W90711  33.411  22.749   9.125 -0.2987 -0.0976 -0.0610
47800W        W90712  32.343  22.408   8.874 -0.3762 -0.3950  0.2422
47801W        W90713  31.542  24.540   8.192 -0.0632 -0.3988  0.1720
47802W        W90714  30.125  25.185   8.115 -0.1936 -0.2903  0.0622
47803W        W90715  32.132  24.164   8.978  0.0154  0.0974  0.0949
47804W        W90716  33.558  23.425   7.181  0.1957 -0.1308 -0.0409
47805W        W90717  29.831  25.372   9.132  0.1878  0.4148 -0.0940
47806W        W90718  30.156  25.014   6.984 -0.0437  0.2276 -0.2756
47807W        W90719  27.393  24.213   9.202 -0.1721 -0.0583  0.4439
47808W        W90720  30.228  24.735   8.370  0.3873 -0.1761  0.3272
47809W        W90721  31.332  22.580   9.380  0.1211  0.0691  0.1659
47810W        W90722  30.738  23.968   8.306 -0.0323  0.0331  0.2527
47811W        W90723  32.497  24.458   7.904 -0.0289  0.2492 -0.1184
47812W        W90724  32.664  22.505   8.506 -0.1176 -0.5070 -0.2329
47813W        W90725  29.264  24.430   8.892  0.3326 -0.1703  0.1426
47814W        W90726  32.174  25.233   8.025 -0.1392 -0.3164 -0.2214
47815W        W90727  31.931  23.515   7.706  0.0031 -0.0493 -0.1303
47816W        W90728  32.014  24.822   7.844 -0.2484 -0.3151 -0.0324
47817W        W90729  29.172  22.714   9.545  0.0486  0.0924 -0.1231
47818W        W90730  28.685  23.067   8.756  0.0216  0.3131 -0.2461
47819W        W90731  29.419  23.247   9.341 -0.1721 -0.0165  0.2214
47820W        W90732  28.883  22.101   6.623  0.2478 -0.2121  0.0085
47821W        W90733  33.165  23.634   8.763  0.2027  0.1298 -0.2089
47822W        W90734  29.542  23.683   8.561 -0.0332 -0.1609 -0.2468
47823W        W90735  29.184  23.323   8.516  0.1142  0.2437 -0.1234
47824W        W90736  29.680  25.448   8.270 -0.2296  0.2606  0.0963
47825W        W90737  34.135  24.096   8.489 -0.0692 -0.1953  0.0445
47826W        W90738  31.763  26.412   9.499  0.0006 -0.1428 -0.0387
47827W        W90739  30.869  21.750   9.561  0.3023 -0.0373  0.0744
47828W        W90740  28.767  22.678   7.830 -0.3140 -0.0757 -0.0153
47829W        W90741  27.213  24.909   9.192 -0.1983  0.0671  0.0227
47830W        W90742  31.763  25.192   8.768  0.0494  0.0551  0.1882
47831W        W90743  30.961  22.629   8.482  0.1598 -0.0547  0.0494
47832W        W90744  32.333  24.308   9.954 -0.0597 -0.4447  0.1558
47833W        W90745  30.472  23.730   8.705  0.2738 -0.0955 -0.3100
47834W        W90746  30.977  24.755   9.044  0.0772 -0.2882  0.3490
47835W        W90747  31.897  23.138   8.639  0.1872  0.0538 -0.0007
47836W        W90748  28.882  22.642   7.282 -0.1792 -0.2831  0.3848
47837W        W90749  27.909  24.009   9.122 -0.1006 -0.1749  0.0300
47838W        W90750  29.165  25.099   6.776  0.0253 -0.0192  0.0950
47839W        W90751  28.743  23.594   6.843  0.2142  0.0507  0.1025
47840W        W90752  31.466  24.760   8.704 -0.0303  0.1192 -0.3263
47841W        W90753  32.536  23.450   9.494 -0.0751 -0.0808 -0.3458
47842W        W90754  27.748  22.098   8.196 -0.2079  0.2461  0.0042
47843W        W90755  32.002  22.784   9.097 -0.1994 -0.2743 -0.1453
47844W        W90756  31.928  22.660   8.607  0.1181  0.1485  0.1435
47845W        W90757  32.398  24.635   9.148  0.0595 -0.0079 -0.0403
47846W        W90758  31.390  22.973   6.432  0.0890  0.1217 -0.1085
47847W        W90759  31.591  22.082   7.951  0.0452  0.2903  0.0648
47848W        W90760  31.094  24.430   8.619  0.2615 -0.0774  0.0596
47849W        W90761  31.020  24.214   7.973 -0.1385 -0.0941 -0.0156
47850W        W90762  30.510  21.924   8.124 -0.1192  0.0439 -0.1943
47851W        W90763  32.993  25.290   7.698 -0.0014  0.1067 -0.2152
47852W        W90764  28.707  23.614   8.596  0.4295  0.1058 -0.0375
47853W        W90765  30.561  25.129   8.355 -0.1769 -0.0649 -0.2313
47854W        W90766  30.903  22.812   8.948 -0.0074 -0.0651 -0.1091
47855W        W90767  30.039  23.816   7.305  0.4231  0.0735 -0.1261
47856W        W90768  32.365  23.460   7.996 -0.1209  0.1456  0.0365
47857W        W90769  29.447  24.587   5.868  0.2281 -0.0067  0.0611
47858W        W90770  32.743  25.121   9.997 -0.2412  0.0349 -0.2681
47859W        W90771  32.416  22.123   9.591  0.1770  0.1870 -0.0348
47860W        W90772  32.866  23.411   8.353  0.0526 -0.0583  0.1953
47861W        W90773  30.604  23.275   8.857  0.1786  0.0581  0.0417
47862W        W90774  29.290  22.895   7.675 -0.3073  0.1802 -0.0312
47863W        W90775  30.183  23.513   9.086  0.3195 -0.0540 -0.0691
47864W        W90776  30.122  24.374   9.358  0.1762  0.1645  0.0312
47865W        W90777  30.772  23.633   9.267 -0.1635  0.1424  0.0418
47866W        W90778  31.182  23.045   7.569  0.0002  0.1168 -0.0990
47867W        W90779  29.035  26.167   8.761  0.1119  0.0076 -0.1891
47868W        W90780  30.991  24.626   7.235 -0.2113  0.1482  0.0659
47869W        W90781  31.364  21.275   8.203  0.0661 -0.1800  0.1788
47870W        W90782  31.084  27.127   9.862 -0.0436 -0.4262 -0.2787
47871W        W90783  30.763  25.672   8.337  0.1090  0.0345  0.4364
47872W        W90784  30.198  23.329   9.626 -0.1901  0.0086 -0.0783
47873W        W90785  30.647  24.602   9.506  0.5080 -0.0760  0.1368
47874W        W90786  31.805  23.723   8.696 -0.1935 -0.0575  0.0262
47875W        W90787  27.260  24.315   9.783  0.0497 -0.3220 -0.0186
47876W        W90788  30.657  22.883   8.043 -0.0330 -0.0858  0.1108
47877W        W90789  28.857  23.255   7.642 -0.1149  0.1019  0.3570
47878W        W90790  31.799  22.511   8.059 -0.1459 -0.1004  0.2003
47879W        W90791  32.548  25.492   7.869 -0.0546 -0.1944  0.1870
47880W        W90792  30.180  21.353  10.018 -0.3845 -0.0324  0.3264
47881W        W90793  30.612  22.574   9.297  0.0431 -0.2170 -0.1415
47882W        W90794  30.724  23.425   9.815  0.0851 -0.0945 -0.1015
47883W        W90795  31.658  22.862   7.079  0.1085  0.0111 -0.0432
47884W        W90796  27.643  22.582   8.056  0.4908  0.0064  0.1138
47885W        W90797  32.660  24.088   9.706 -0.3255 -0.0864 -0.0896
47886W        W90798  29.611  22.427   7.939 -0.0859 -0.0257 -0.1892
47887W        W90799  29.557  25.053   7.853 -0.1030  0.0717  0.0320
47888W        W90800  31.016  24.953   8.552  0.0333  0.1122 -0.0633
47889W        W90801  29.500  24.069   7.655 -0.2203  0.0898 -0.2654
47890W        W90802  28.672  24.113   8.318  0.2438 -0.0805  0.1867
47891W        W90803  32.228  23.211   9.113  0.1393  0.0779  0.0374
47892W        W90804  31.837  23.572   9.210 -0.2487  0.0138  0.1608
47893W        W90805  29.276  22.737   8.120 -0.3870 -0.0735  0.1328
47894W        W90806  31.027  23.154   8.604 -0.1417 -0.0033 -0.0404
47895W        W90807  31.420  24.051   8.786 -0.4586  0.1497  0.0023
47896W        W90808  29.927  22.888   8.876  0.1163 -0.0909  0.4713
47897W        W90809  29.208  21.711   9.648 -0.1759 -0.1647  0.0501
47898W        W90810  32.694  24.777   8.661  0.1484  0.3258  0.0046
47899W        W90811  30.564  23.700   7.830 -0.1040  0.2047  0.2647
47900W        W90812  28.431  24.952   8.299 -0.0212  0.0819 -0.1312
47901W        W90813  30.141  25.724   8.051 -0.2442 -0.0880 -0.1941
47902W        W90814  31.303  23.711   9.160  0.1939 -0.0484  0.2073
47903W        W90815  30.012  25.024   8.744 -0.1527  0.0210 -0.5355
47904W        W90816  29.468  26.271   8.990 -0.0433  0.2855 -0.2970
47905W        W90817  27.799  23.982   8.119 -0.3818 -0.0790 -0.2417
47906W        W90818  31.806  22.016   8.418 -0.0630  0.0888 -0.0412
47907W        W90819  31.991  25.220   7.580  0.0790 -0.3025 -0.2298
47908W        W90820  31.459  22.354   8.401 -0.1490  0.3899  0.2556
47909W        W90821  30.597  23.582   6.167  0.3158 -0.0065  0.0484
47910W        W90822  27.834  23.166   9.638  0.1729  0.1053 -0.1517
47911W        W90823  33.012  25.009   8.310 -0.0688  0.2295  0.5607
47912W        W90824  31.270  21.799   8.187  0.0774 -0.4130  0.1186
47913W        W90825  29.671  21.944   7.802  0.2305  0.4582 -0.5258
47914W        W90826  29.495  24.365   8.034 -0.0538 -0.1538 -0.3123
47915W        W90827  32.435  25.737   9.563  0.0312  0.2065 -0.0516
47916W        W90828  29.835  24.072   8.260 -0.2041  0.2171  0.0231
47917W        W90829  32.334  24.831   9.894 -0.1261 -0.0239  0.2044
47918W        W90830  29.721  25.883   9.282 -0.1624  0.1906 -0.0690
47919W        W90831  32.008  24.362   8.118 -0.1205  0.1916  0.2520
47920W        W90832  31.051  23.200   8.045 -0.3970 -0.0407  0.1042
47921W        W90833  29.240  23.762   8.143 -0.1178  0.0898  0.3180
47922W        W90834  33.937  24.344   9.827  0.3894  0.3188  0.0302
47923W        W90835  32.273  23.383   8.553 -0.0714 -0.0772 -0.0491
47924W        W90836  32.987  25.485   9.666 -0.0171 -0.1684 -0.1853
47925W        W90837  31.700  23.998   6.942 -0.0060  0.0354 -0.0063
47926W        W90838  31.790  19.700   9.352  0.1366 -0.1344  0.1695
47927W        W90839  32.132  23.956   8.439  0.0169  0.1047 -0.0630
47928W        W90840  30.710  24.010   7.081 -0.0951  0.2100  0.0506
47929W        W90841  28.507  23.613   7.519  0.0803  0.1773  0.1410
47930W        W90842  29.450  22.067   7.310 -0.1253  0.0587  0.0505
47931W        W90843  31.819  24.349   7.629 -0.3803  0.0138  0.1600
47932W        W90844  32.530  24.941   8.158 -0.1328  0.0561 -0.2907
47933W        W90845  31.595  23.174   7.904  0.0453 -0.1588  0.0570
47934W        W90846  28.758  21.775   9.056  0.1355  0.0696 -0.1043
47935W        W90847  29.451  22.858   8.598 -0.1346  0.0268  0.1776
47936W        W90848  30.526  23.569   6.655 -0.0950  0.3440  0.0166
47937W        W90849  31.065  23.676   8.547 -0.1703 -0.2812  0.0949
47938W        W90850  32.146  21.583   8.333 -0.0507  0.0398 -0.1713
47939W        W90851  28.736  23.173   6.555  0.0690 -0.3416  0.0455
47940W        W90852  32.986  23.211  10.105 -0.0551 -0.0856 -0.0517
47941W        W90853  29.156  27.318   9.570  0.0429 -0.1191 -0.0046
47942W        W90854  30.670  25.817   9.303  0.0128 -0.1378 -0.2173
47943W        W90855  31.684  19.962  10.110 -0.0393 -0.0365 -0.2632
47944W        W90856  30.923  22.455   9.712  0.3087 -0.2600 -0.0276
47945W        W90857  29.960  23.980   8.733 -0.2276  0.2222 -0.0851
47946W        W90858  29.609  23.266   8.844  0.2825 -0.0439  0.4068
47947W        W90859  34.361  26.572   9.886  0.3090  0.4983  0.0495
47948W        W90860  29.723  24.295   9.076 -0.1556  0.2243 -0.0444
47949W        W90861  29.171  25.024   8.153 -0.1092  0.0867 -0.3212
47950W        W90862  30.353  22.011   8.571  0.1151 -0.1520 -0.0785
47951W        W90863  30.986  23.880   7.580  0.1846 -0.0018  0.2220
47952W        W90864  31.156  23.596   9.584 -0.1547 -0.1111 -0.3733
47953W        W90865  28.888  25.693   8.746  0.1885 -0.0767 -0.0207
47954W        W90866  31.797  24.946   8.311 -0.0014  0.0964  0.1223
47955W        W90867  31.716  23.898   7.474 -0.0864 -0.1890 -0.2542
47956W        W90868  31.403  24.046   9.695  0.0102 -0.1944  0.2125
47957W        W90869  30.075  22.314   7.601  0.1053 -0.0196  0.0770
47958W        W90870  29.776  23.601   8.098  0.1780 -0.0608  0.0624
47959W        W90871  28.278  25.255   6.151  0.2105 -0.0799  0.0745
47960W        W90872  31.303  25.456   6.944 -0.1165  0.4072 -0.1328
47961W        W90873  28.708  24.946   9.496 -0.0163  0.2815 -0.1903
47962W        W90874  32.742  23.125   7.789  0.2557 -0.3042 -0.0795
47963W        W90875  33.528  23.563   9.111 -0.0049 -0.1643  0.0046
47964W        W90876  32.314  23.668   8.968 -0.0906  0.0183  0.0625
47965W        W90877  30.488  22.166   9.557  0.1522  0.1821 -0.2475
47966W        W90878  30.089  22.180   8.099  0.0723  0.1138  0.1814
47967W        W90879  32.174  24.248   7.222  0.3033  0.1071  0.1059
47968W        W90880  28.405  23.004   7.907  0.0143 -0.0148  0.0303
47969W        W90881  28.678  23.429   9.130  0.1515  0.0696 -0.1238
47970W        W90882  33.344  20.468   9.987  0.1356  0.1963 -0.1329
47971W        W90883  30.544  24.076   6.437  0.0881 -0.0362 -0.0525
47972W        W90884  30.629  23.162   9.385  0.3029  0.0539  0.0722
47973W        W90885  31.159  25.343   9.693  0.0748  0.0695 -0.0721
47974W        W90886  30.566  24.936   8.822 -0.0715 -0.0395 -0.1681
47975W        W90887  30.811  25.163   9.343  0.0348 -0.1491 -0.1364
47976W        W90888  27.720  24.198   7.006 -0.0228 -0.0497 -0.0673
47977W        W90889  31.637  23.458   9.648  0.2522  0.0594 -0.0261
47978W        W90890  29.644  23.756   9.115  0.0277  0.0637  0.1916
47979W        W90891  29.160  22.265   8.167 -0.2370 -0.1855 -0.1296
47980W        W90892  32.486  25.005   7.615  0.0463 -0.1958  0.1829
47981W        W90893  30.387  24.197   8.560 -0.0173 -0.2503 -0.0170
47982W        W90894  31.147  23.208   9.199 -0.0614  0.1408 -0.0216
47983W        W90895  30.984  23.684   8.020 -0.0134  0.1095 -0.0662
47984W        W90896  31.013  23.784   6.421 -0.3139 -0.0389 -0.1527
47985W        W90897  30.269  23.207   8.019  0.0411  0.0221  0.2927
47986W        W90898  31.679  22.706   7.592  0.1764 -0.0164  0.0332
47987W        W90899  27.830  23.137   6.383  0.1795 -0.0155 -0.4129
47988W        W90900  30.640  23.422   8.312 -0.2596  0.2736  0.0536
47989W        W90901  29.522  21.906   8.320 -0.0353  0.2933 -0.1066
47990W        W90902  32.530  23.998   7.512  0.0107  0.0710  0.0105
47991W        W90903  33.188  23.185   7.989 -0.2422 -0.0667  0.0753
47992W        W90904  31.264  24.167   5.841  0.1171 -0.0651  0.0284
47993W        W90905  33.343  23.612   8.227  0.3835 -0.0234 -0.0924
47994W        W90906  32.240  25.396  10.018 -0.1081  0.0937  0.0159
47995W        W90907  31.172  23.028   9.711 -0.0955 -0.2656 -0.0533
47996W        W90908  30.840  25.391   8.771 -0.3355  0.1459  0.0096
47997W        W90909  33.017  24.558   9.115  0.2385  0.2861  0.0697
47998W        W90910  33.540  21.938   8.713  0.0005  0.2527 -0.0888
47999W        W90911  30.477  22.941   8.484 -0.0486  0.1826  0.0850
48000W        W90912  28.432  25.875   8.935  0.0240 -0.1903  0.0021
48001W        W90913  32.831  22.793   8.896 -0.4183  0.0589 -0.1049
48002W        W90914  30.882  24.977   6.893  0.0419 -0.2312 -0.0471
48003W        W90915  29.050  24.207   7.985 -0.0694 -0.1021 -0.3833
48004W        W90916  29.514  23.551   7.646  0.0814 -0.0044  0.0015
48005W        W90917  30.156  25.492   8.587 -0.1353 -0.0871  0.0246
48006W        W90918  31.605  25.675   8.987 -0.1366  0.0585  0.1529
48007W        W90919  31.327  24.972   9.435 -0.2726  0.1218  0.0655
48008W        W90920  30.869  21.997   8.453 -0.4327  0.2037 -0.0221
48009W        W90921  32.665  24.219   9.039 -0.0546 -0.3679  0.2487
48010W        W90922  30.966  22.179   9.343 -0.1518  0.1856 -0.2587
48011W        W90923  33.725  23.561   8.595 -0.3603  0.0094  0.1052
48012W        W90924  32.070  21.993   7.918 -0.3733  0.0115  0.2810
48013W        W90925  31.463  23.332   8.837  0.3184 -0.0383  0.1374
48014W        W90926  27.442  23.496   6.635  0.0422 -0.3296 -0.5239
48015W        W90927  31.411  24.418   6.721  0.2434 -0.1179  0.0288
48016W        W90928  29.039  23.553   9.444  0.0747 -0.0935 -0.2458
48017W        W90929  28.318  22.214   9.706 -0.3345  0.2185 -0.0892
48018W        W90930  30.697  23.194   7.684  0.3294  0.0578 -0.4669
48019W        W90931  32.423  25.640   6.914 -0.1146  0.5851 -0.0847
48020W        W90932  30.630  21.117   8.683  0.2045 -0.1138 -0.0051
48021W        W90933  29.283  22.180   8.777 -0.0007  0.1147 -0.2848
48022W        W90934  32.117  23.998   7.766  0.0821  0.2890  0.2871
48023W        W90935  31.733  25.415   8.204  0.1485 -0.1211 -0.0144
48024W        W90936  31.041  21.858   9.019 -0.0076  0.0191  0.4009
48025W        W90937  29.574  24.181   7.166 -0.0195  0.1208  0.1185
48026W        W90938  27.907  22.898   7.721 -0.0644  0.1726 -0.1761
48027W        W90939  31.483  22.807   8.818 -0.3250 -0.0732 -0.1403
48028W        W90940  31.353  25.335   8.506  0.0394 -0.1989 -0.2362
48029W        W90941  32.018  26.222   5.889  0.1550  0.2008 -0.4158
48030W        W90942  28.379  20.088   9.575  0.0237  0.0380 -0.0677
48031W        W90943  31.366  23.672   7.160  0.1316 -0.0653  0.1442
48032W        W90944  33.419  24.741   7.930 -0.0105  0.0360  0.2865
48033W        W90945  33.269  21.018   9.733  0.1080  0.0482 -0.0934
48034W        W90946  30.474  24.097   7.504  0.0625 -0.0114  0.0157
48035W        W90947  30.081  24.943   9.256 -0.0740  0.0307 -0.2030
48036W        W90948  30.100  22.537   8.512 -0.0738 -0.4249 -0.1285
48037W        W90949  32.514  23.027   8.257 -0.2335  0.2451 -0.1276
48038W        W90950  31.542  25.024   7.899  0.1401 -0.4925  0.0837
48039W        W90951  29.204  23.985   9.255 -0.1488  0.0716 -0.3520
48040W        W90952  31.956  23.558   8.248  0.0458  0.2473  0.0143
48041W        W90953  32.013  25.126   9.639 -0.0572  0.1732 -0.0397
48042W        W90954  30.017  24.502   7.982  0.1045 -0.0339  0.0321
48043W        W90955  33.711  24.627   7.095 -0.2461  0.1004  0.2047
48044W        W90956  33.058  25.872   9.050 -0.0011 -0.0395 -0.2090
48045W        W90957  30.328  27.075   8.781  0.2019  0.1637  0.0422
48046W        W90958  33.529  25.268   9.866  0.1987  0.1391 -0.0668
48047W        W90959  30.796  22.849  10.044  0.1662  0.0266 -0.0241
48048W        W90960  28.286  23.635   7.087 -0.2165  0.0059 -0.1370
48049W        W90961  30.287  23.849   8.228 -0.1602 -0.3062 -0.0082
48050W        W90962  30.047  23.783   9.599 -0.0305 -0.0153 -0.1081
48051W        W90963  28.959  21.928   8.510 -0.0637  0.0334  0.2847
48052W        W90964  33.206  21.772   9.092  0.0386 -0.0119 -0.0767
48053W        W90965  29.017  25.958   9.212  0.3259 -0.2839  0.2844
48054W        W90966  30.163  23.398   8.492  0.1216 -0.3629 -0.0169
48055W        W90967  30.491  27.845   3.194 -0.0851  0.0621 -0.0953
48056W        W90968  29.110  28.885   0.610  0.0844  0.1652 -0.0001
48057W        W90969  31.544  26.518  31.526 -0.1315  0.3144  0.2270
48058W        W90970  31.411  26.512   1.288  0.1030 -0.1329 -0.0791
48059W        W90971  29.584  27.854   0.271  0.0312  0.0933  0.2307
48060W        W90972  30.535  28.404   2.940 -0.2721 -0.1822  0.3747
48061W        W90973  28.765  25.783   2.078 -0.1308 -0.2739  0.0900
48062W        W90974  32.102  28.821   2.356 -0.0245  0.0120  0.0362
48063W        W90975  32.897  29.536   2.875  0.1197  0.0218  0.4050
48064W        W90976  30.611  25.945   0.357 -0.1975  0.0376 -0.2178
48065W        W90977  30.183  27.033   1.892  0.2390  0.1621  0.0729
48066W        W90978  29.824  28.687   3.430 -0.0459  0.1085  0.3367
48067W        W90979  30.127  24.316   0.869  0.1258 -0.0004 -0.1313
48068W        W90980  30.027  25.745   1.463  0.2753 -0.3699 -0.0594
48069W        W90981  31.109  27.576   1.839 -0.0513 -0.0393 -0.0986
48070W        W90982  29.506  27.060   2.349 -0.0421 -0.0756 -0.0036
48071W        W90983  30.896  25.915   2.385 -0.1586  0.2053 -0.0361
48072W        W90984  29.644  26.255   0.125 -0.1508  0.0689  0.0026
48073W        W90985  31.409  30.231   1.780 -0.3503  0.1523 -0.2065
48074W        W90986  30.664  25.232   3.591  0.0710 -0.0874 -0.4125
48075W        W90987  30.660  24.475   3.916 -0.0977 -0.3881 -0.1014
48076W        W90988  29.559  28.571   2.387 -0.1393  0.0206  0.3210
48077W        W90989  30.067  26.308  31.877  0.0268 -0.1882  0.0342
48078W        W90990  28.585  26.942   1.018  0.0315 -0.1219 -0.0495
48079W        W90991  30.140  27.513   2.771 -0.0506 -0.0789  0.1363
48080W        W90992  31.172  25.575   0.648 -0.0663 -0.0003 -0.0201
48081W        W90993  31.569  26.475   2.703 -0.4355  0.0534  0.0261
48082W        W90994  30.305  27.929   2.233 -0.0056 -0.1277 -0.0966
48083W        W90995  30.932  29.381   3.161 -0.0286  0.3688  0.0565
48084W        W90996  32.192  27.610   3.533  0.0052 -0.3478 -0.1739
48085W        W90997  28.224  28.297   1.888  0.2537 -0.0355 -0.0119
48086W        W90998  27.771  28.402   2.088  0.0371  0.1640  0.4945
48087W        W90999  29.106  28.784   1.471 -0.1629 -0.1689 -0.1229
48088W        W91000  31.517  28.118   0.713  0.1729  0.1319  0.0059
48089W        W91001  31.249  29.627   2.335  0.0582  0.1352  0.0233
48090W        W91002  30.537  29.326   3.979 -0.0268  0.2123  0.2255
48091W        W91003  28.611  28.776  31.256 -0.0670 -0.0118  0.1125
48092W        W91004  30.129  29.031   3.712 -0.1008 -0.2109  0.0041
48093W        W91005  30.055  26.773   3.532  0.0012 -0.1824  0.2643
48094W        W91006  30.808  27.205   2.881  0.3191 -0.1037 -0.1781
48095W        W91007  29.663  27.241   0.542  0.0767 -0.3098 -0.0827
48096W        W91008  30.620  30.646   0.875  0.1251 -0.0356  0.1613
48097W        W91009  31.965  26.961   1.852 -0.0241  0.0748 -0.1442
48098W        W91010  29.674  27.063   3.544 -0.1537 -0.1146  0.0027
48099W        W91011  29.021  28.756   2.407 -0.1315 -0.2525 -0.1624
48100W        W91012  33.920  24.906   3.124  0.0933  0.3685 -0.0483
48101W        W91013  29.089  28.767  31.311  0.0843 -0.0813  0.3943
48102W        W91014  30.310  28.952   2.072  0.1705 -0.0870  0.1217
48103W        W91015  30.608  27.227   0.546  0.1383  0.4170  0.3651
48104W        W91016  31.096  26.683   0.504 -0.2203  0.3740  0.0419
48105W        W91017  30.408  25.489   1.808  0.0956 -0.0306  0.0100
48106W        W91018  28.032  28.197   0.787 -0.1421  0.0799  0.0084
48107W        W91019  30.070  26.266   1.389  0.1771  0.0475 -0.3283
48108W        W91020  30.856  27.941   2.231  0.1587  0.2144 -0.1169
48109W        W91021  32.022  27.116   1.022 -0.1025  0.0291 -0.4264
48110W        W91022  32.446  26.259   3.554  0.0201  0.0643 -0.0640
48111W        W91023  31.106  26.815   2.152 -0.4528  0.1608 -0.0243
48112W        W91024  29.582  26.263   0.680 -0.0645  0.1084  0.1339
48113W        W91025  31.246  28.857  31.145  0.1210 -0.1383  0.0550
48114W        W91026  32.255  27.898   2.332  0.0079  0.0001  0.1079
48115W        W91027  30.164  26.550   0.364  0.1670 -0.1186 -0.4323
48116W        W91028  29.961  28.034   1.286 -0.1306 -0.1414 -0.2560
48117W        W91029  30.923  27.306   2.215  0.3582  0.0899  0.2571
48118W        W91030  28.681  26.599   3.984 -0.1263 -0.1387 -0.0517
48119W        W91031  30.037  25.080  31.121  0.1666 -0.0837 -0.1024
48120W        W91032  32.220  28.934   4.022  0.0468  0.1616 -0.0694
48121W        W91033  28.760  28.870   3.275  0.3001  0.1207  0.2446
48122W        W91034  31.656  26.998   1.454 -0.2097 -0.1435 -0.1149
48123W        W91035  30.015  27.310   1.501 -0.1640  0.0770 -0.2142
48124W        W91036  31.914  28.499   2.709 -0.1125  0.1593  0.2142
48125W        W91037  30.463  28.066   1.406 -0.0837  0.1032  0.2482
48126W        W91038  31.993  25.166   1.500  0.2013 -0.1123 -0.2045
48127W        W91039  31.225  24.801   1.929  0.2722 -0.1688 -0.1833
48128W        W91040  30.189  27.144   0.298  0.2332  0.1547  0.3137
48129W        W91041  28.106  27.127   0.955 -0.1435 -0.0759  0.1504
48130W        W91042  33.630  29.056   3.366  0.0677 -0.2984  0.0646
48131W        W91043  32.748  27.497   1.176 -0.2416 -0.1361 -0.0731
48132W        W91044  29.134  28.144   2.304 -0.1881  0.1224  0.1004
48133W        W91045  30.316  25.276   2.752  0.1050  0.2141 -0.2778
48134W        W91046  31.912  28.671   3.400  0.3591 -0.0773  0.2306
48135W        W91047  28.019  30.205  31.674  0.1657 -0.3076  0.4284
48136W        W91048  29.280  28.321   1.453 -0.1531 -0.1690 -0.3324
48137W        W91049  28.436  28.781  31.756 -0.0114  0.2718  0.0014
48138W        W91050  28.799  25.587   3.798  0.1386  0.0324  0.0760
48139W        W91051  29.876  26.821   2.209  0.3893 -0.1222  0.0994
48140W        W91052  31.507  26.216   1.682  0.1649 -0.0075  0.0075
48141W        W91053  29.178  25.661   2.571 -0.1234  0.0749  0.1254
48142W        W91054  32.934  25.396   1.369 -0.3051  0.0856 -0.2533
48143W        W91055  29.127  29.051   0.007  0.0829 -0.0067  0.0767
48144W        W91056  32.573  29.035   1.331 -0.0938 -0.2422 -0.1028
48145W        W91057  31.686  27.570   0.445  0.2231  0.0921  0.3156
48146W        W91058  31.136  27.078   1.737 -0.0344  0.0830  0.0533
48147W        W91059  28.854  26.979   3.042  0.1681 -0.1094  0.0903
48148W        W91060  29.586  25.230   0.475 -0.0486  0.1626  0.1872
48149W        W91061  30.082  24.418   2.200 -0.1017 -0.0894  0.1894
48150W        W91062  28.865  25.047   1.456  0.2235 -0.0233 -0.1419
48151W        W91063  31.877  27.449   3.183  0.0231  0.2514  0.0263
48152W        W91064  28.597  26.081   0.893 -0.1668 -0.5213 -0.2106
48153W        W91065  30.749  26.901   1.406  0.2226  0.0144  0.0894
48154W        W91066  30.174  27.451   0.703  0.1161 -0.1391  0.0341
48155W        W91067  28.722  28.817   1.079 -0.0466  0.0292  0.4571
48156W        W91068  31.266  25.602   2.921 -0.4334  0.1151  0.3992
48157W        W91069  30.483  30.355   1.265  0.2203 -0.1276 -0.2525
48158W        W91070  32.471  28.391   2.384  0.0464 -0.0805 -0.2384
48159W        W91071  30.350  29.284   1.681 -0.2321  0.3027 -0.0851
48160W        W91072  30.688  26.940   2.466 -0.1249 -0.1788  0.3892
48161W        W91073  29.662  26.435  31.646  0.0418  0.2662  0.2612
48162W        W91074  28.401  29.327   2.035  0.1164  0.1115  0.2842
48163W        W91075  30.469  26.528   1.653  0.3426  0.2904 -0.1788
48164W        W91076  29.826  25.898  31.637 -0.2351  0.0050  0.0094
48165W        W91077  31.611  28.866   1.528 -0.2707  0.0929 -0.2009
48166W        W91078  30.330  26.721   1.179 -0.0126 -0.2346  0.0496
48167W        W91079  28.660  27.537   3.867 -0.0377 -0.5073  0.1493
48168W        W91080  31.072  24.851   1.365  0.0590  0.2000  0.0219
48169W        W91081  31.642  27.861   2.242  0.0657 -0.2165 -0.1569
48170W        W91082  31.772  28.070   1.276 -0.1142  0.1707 -0.0840
48171W        W91083  29.017  27.994   0.436  0.0180  0.1774  0.1785
48172W        W91084  31.684  29.496   3.093 -0.0432 -0.3498  0.1213
48173W        W91085  28.345  28.516   0.260  0.0221 -0.1849 -0.1729
48174W        W91086  28.627  28.380   2.256 -0.1174  0.0479  0.0531
48175W        W91087  29.490  28.526   1.870 -0.0047 -0.1700 -0.1993
48176W        W91088  32.438  24.978   2.387  0.3735 -0.1080 -0.0566
48177W        W91089  30.601  27.775   2.606  0.1579  0.0320  0.0608
48178W        W91090  31.066  26.492   2.488  0.1158 -0.1332 -0.2744
48179W        W91091  29.162  27.051   0.783  0.1288 -0.1453 -0.3174
48180W        W91092  28.403  27.734   3.490 -0.2572  0.1467 -0.1447
48181W        W91093  31.271  24.539   2.476  0.0915 -0.0637  0.2027
48182W        W91094  31.995  27.145   0.306  0.1374 -0.0535 -0.0244
48183W        W91095  31.207  26.070   2.716  0.2331  0.0108  0.0177
48184W        W91096  31.390  28.114   1.923 -0.0246  0.3355 -0.0520
48185W        W91097  30.588  25.958  31.437  0.0639 -0.2369 -0.1955
48186W        W91098  31.102  26.727  31.772  0.0126  0.1158 -0.1997
48187W        W91099  28.455  28.093   3.821 -0.1489  0.2039 -0.2948
48188W        W91100  30.243  29.402   1.109  0.0550  0.2764  0.2606
48189W        W91101  29.645  27.793   1.594  0.4796  0.2084  0.2032
48190W        W91102  30.749  26.864   0.913  0.2627  0.0436  0.1296
48191W        W91103  32.412  28.606   0.896  0.0377 -0.1416  0.2320
48192W        W91104  29.199  27.941   2.805  0.0690 -0.1256 -0.1983
48193W        W91105  32.117  28.929   2.861 -0.0904 -0.0606  0.0276
48194W        W91106  31.795  29.029   1.998 -0.0318 -0.1401 -0.0574
48195W        W91107  31.916  25.064   0.917  0.1734  0.1098  0.1276
48196W        W91108  30.180  26.306   0.874 -0.4916  0.1049  0.0030
48197W        W91109  30.883  25.963   0.795  0.2966 -0.3912 -0.0602
48198W        W91110  28.798  29.441  31.919 -0.1827  0.0316 -0.1725
48199W        W91111  31.682  25.312   2.699  0.1992 -0.2082  0.0604
48200W        W91112  31.239  25.249   1.751  0.0835 -0.0182 -0.0528
48201W        W91113  30.796  25.048   2.126  0.0426  0.0361 -0.0994
48202W        W91114  31.476  28.318   3.809  0.0255  0.0309 -0.1592
48203W        W91115  32.679  27.894   1.442  0.0578 -0.3093  0.1289
48204W        W91116  31.036  27.280   0.839  0.4753 -0.2390 -0.2263
48205W        W91117  30.313  28.375   0.526 -0.1638 -0.0286 -0.0065
48206W        W91118  31.265  25.505   2.301 -0.0207  0.0229  0.2364
48207W        W91119  31.093  27.656   2.570 -0.0579  0.0717 -0.0206
48208W        W91120  30.027  28.196   3.506  0.2152 -0.2039  0.2564
48209W        W91121  32.309  29.340   4.919  0.1925  0.3083  0.2233
48210W        W91122  32.814  27.023   1.451  0.2295 -0.1439 -0.0597
48211W        W91123  31.592  24.850   3.975  0.1168 -0.0832 -0.3603
48212W        W91124  29.213  26.778   1.225 -0.1731  0.0370  0.0025
48213W        W91125  29.561  30.012   1.101 -0.0196 -0.3028  0.1153
48214W        W91126  28.915  26.940  31.463 -0.0867  0.0822 -0.0329
48215W        W91127  30.623  26.272   1.170  0.0916  0.0580  0.0781
48216W        W91128  30.934  28.601   3.165 -0.2147 -0.0423 -0.1529
48217W        W91129  28.761  28.347  31.483  0.1460 -0.0882 -0.1955
48218W        W91130  30.667  28.307   2.464  0.0522  0.0247  0.0010
48219W        W91131  29.001  28.053   0.908  0.2116  0.2052  0.0943
48220W        W91132  32.535  25.826   2.660 -0.3923  0.0095  0.0747
48221W        W91133  27.855  28.746   1.726 -0.1509 -0.2030 -0.2752
48222W        W91134  29.679  27.010  31.587  0.0841  0.1315  0.0448
48223W        W91135  28.205  26.945   1.404 -0.0630  0.1168  0.3155
48224W        W91136  30.635  25.322   0.546 -0.1525 -0.0093  0.2575
48225W        W91137  30.847  28.715   2.145  0.0342 -0.0455 -0.1282
48226W        W91138  30.086  25.880   1.990  0.5982  0.0991 -0.0806
48227W        W91139  29.834  25.409   0.954 -0.2157 -0.1074  0.0945
48228W        W91140  29.382  27.581   2.301 -0.0313  0.2321 -0.0464
48229W        W91141  30.992  26.262   1.505  0.1883  0.2935  0.1140
48230W        W91142  30.450  25.834   1.059  0.1115  0.0632 -0.3099
48231W        W91143  30.255  27.649   1.255  0.0529  0.0783  0.0990
48232W        W91144  30.423  26.275   2.764 -0.0714 -0.3061 -0.1204
48233W        W91145  27.928  27.538   0.085 -0.1642  0.1106 -0.0819
48234W        W91146  32.048  26.648   2.494  0.1233  0.1043 -0.0558
48235W        W91147  30.219  25.697   0.562 -0.3239  0.1051 -0.2446
48236W        W91148  27.637  29.121   1.494 -0.2227 -0.2206 -0.0737
48237W        W91149  30.498  28.698   3.426  0.2026 -0.0308 -0.0901
48238W        W91150  28.328  28.331  31.779 -0.2193  0.0647  0.0207
48239W        W91151  29.827  29.309   1.734  0.1559  0.0183 -0.0595
48240W        W91152  29.954  24.925   2.828  0.0789  0.1145  0.0733
48241W        W91153  31.709  27.063   2.682 -0.0500 -0.3095  0.2212
48242W        W91154  29.860  26.260   2.518  0.1412 -0.2069 -0.1284
48243W        W91155  29.104  25.938   1.044 -0.0036 -0.1782  0.1004
48244W        W91156  30.994  27.363   1.330 -0.0508 -0.0748  0.4049
48245W        W91157  31.212  29.012   2.233  0.1888 -0.2308 -0.0975
48246W        W91158  29.274  25.016   3.512 -0.1611 -0.3615  0.2731
48247W        W91159  28.314  27.285   4.104 -0.2682  0.1680 -0.2096
48248W        W91160  29.900  25.878   0.894 -0.1936  0.2092 -0.2731
48249W        W91161  33.000  30.401   0.103 -0.2164  0.1727  0.2440
48250W        W91162  31.902  27.982   2.797 -0.2047 -0.2024  0.0941
48251W        W91163  29.234  26.651  31.716  0.0052 -0.2895 -0.0128
48252W        W91164  29.261  28.474   2.774  0.3533  0.1640 -0.0559
48253W        W91165  30.027  29.735   1.491  0.2117  0.2217 -0.2774
48254W        W91166  30.766  24.563   2.190 -0.1644  0.1057  0.0013
48255W        W91167  28.781  28.420   1.324 -0.0931  0.0987  0.0851
48256W        W91168  27.701  28.333  31.920  0.0612  0.0605 -0.0799
48257W        W91169  29.396  29.472   1.843  0.1002 -0.0260 -0.0475
48258W        W91170  30.859  25.128   0.082  0.0369  0.1914 -0.2287
48259W        W91171  31.390  29.331   1.854 -0.0661  0.3847 -0.1872
48260W        W91172  30.741  25.616   1.416 -0.1232 -0.0216  0.2836
48261W        W91173  31.590  25.820   2.536  0.0443 -0.0053  0.0510
48262W        W91174  31.328  28.086   0.246 -0.0063  0.0202 -0.0036
48263W        W91175  30.838  24.962   4.092  0.2856 -0.2392  0.1676
48264W        W91176  29.321  25.483   3.111 -0.0944 -0.3869  0.1310
48265W        W91177  32.392  28.076   2.791  0.4041 -0.0956 -0.1600
48266W        W91178  30.104  25.612   4.151 -0.0380  0.1216 -0.1046
48267W        W91179  31.696  30.581   3.633 -0.1805 -0.0166  0.0088
48268W        W91180  29.076  26.232   3.828 -0.1399 -0.3537  0.3691
48269W        W91181  31.660  27.098   0.729  0.0150 -0.0918 -0.3935
48270W        W91182  29.053  27.400  31.588  0.1101 -0.0611  0.0770
48271W        W91183  29.970  26.398   1.894  0.2222 -0.1877  0.1614
48272W        W91184  31.429  28.610   1.999 -0.2161 -0.2572  0.1168
48273W        W91185  30.299  28.719   0.203  0.0679  0.0995 -0.0662
48274W        W91186  32.068  26.595   3.348  0.2919 -0.3736 -0.2619
48275W        W91187  28.309  29.310   2.972  0.1420 -0.1691  0.0837
48276W        W91188  30.872  28.045   0.609  0.0179  0.0425  0.2312
48277W        W91189  31.150  28.529   0.498  0.2690  0.2615 -0.0313
48278W        W91190  28.795  27.476   0.899  0.1401 -0.2974  0.2620
48279W        W91191  28.867  26.291   2.083  0.2419 -0.2487 -0.0067
48280W        W91192  31.663  26.799   2.238  0.1222  0.2370  0.1046
48281W        W91193  31.029  26.468   0.965 -0.0314 -0.1370 -0.0364
48282W        W91194  30.921  26.884   3.837 -0.1540 -0.1860  0.0442
48283W        W91195  31.359  27.311   3.003 -0.1264  0.0255 -0.1581
48284W        W91196  29.734  26.694   2.670 -0.3638 -0.3163  0.0352
48285W        W91197  29.548  25.726   4.243 -0.2473 -0.0235  0.0497
48286W        W91198  31.939  29.598   2.234  0.2067  0.0337  0.0192
48287W        W91199  31.910  28.029   0.190  0.0671  0.0871 -0.0793
48288W        W91200  32.078  26.918   2.943 -0.0543  0.1189 -0.0025
48289W        W91201  32.316  28.068   1.751 -0.1594  0.1831  0.0291
48290W        W91202  30.868  27.966   0.101  0.1741 -0.2225 -0.0113
48291W        W91203  28.642  26.013   0.412  0.2290  0.1697  0.2592
48292W        W91204  31.397  27.737   3.956  0.4879  0.0476  0.3134
48293W        W91205  29.494  25.696   0.720  0.1939  0.1974 -0.0278
48294W        W91206  31.776  25.253   1.937 -0.0361 -0.3859 -0.2770
48295W        W91207  30.120  30.082   0.005 -0.0982 -0.1638  0.0648
48296W        W91208  31.241  25.969   1.168  0.1662 -0.2311 -0.2412
48297W        W91209  30.591  28.810   1.628 -0.0313  0.0029 -0.1269
48298W        W91210  30.521  27.267   1.069  0.0539 -0.1481  0.2977
48299W        W91211  29.047  29.108   2.879  0.0657  0.2626  0.2846
48300W        W91212  29.742  27.426  30.960  0.0967  0.2168 -0.0904
48301W        W91213  30.175  27.251  31.310 -0.1268 -0.0963 -0.0810
48302W        W91214  30.120  27.739   1.708  0.0693 -0.2362  0.0646
48303W        W91215  31.687  28.246   3.255 -0.2143  0.0021  0.1416
48304W        W91216  31.136  26.225  31.414  0.3700  0.3098  0.1281
48305W        W91217  32.320  28.048   3.694 -0.2581  0.0955  0.2754
48306W        W91218  27.674  27.734   1.487 -0.3458  0.0774 -0.5046
48307W        W91219  30.851  24.475   1.710 -0.1557 -0.1027  0.2906
48308W        W91220  30.173  28.183   2.691 -0.0727  0.0899  0.4126
48309W        W91221  28.934  28.173   3.184  0.2462  0.0096  0.0578
48310W        W91222  29.951  28.370   2.223 -0.1802  0.0604  0.2665
48311W        W91223  31.524  25.062   1.263 -0.2931 -0.0789 -0.0497
48312W        W91224  31.450  26.710   1.804  0.0736  0.0198  0.0823
48313W        W91225  29.553  25.892   2.847  0.1337 -0.2525  0.1983
48314W        W91226  33.261  28.771   4.286 -0.3014  0.5180  0.1554
48315W        W91227  31.443  27.784   3.152  0.0006 -0.0556  0.0381
48316W        W91228  29.709  27.184   1.870  0.2085 -0.4255 -0.1098
48317W        W91229  32.025  29.214   3.404  0.0499  0.1256  0.0797
48318W        W91230  31.894  26.666   1.137 -0.1219  0.1153  0.3305
48319W        W91231  29.337  28.063   1.898 -0.2325  0.0290 -0.0966
48320W        W91232  28.780  26.514   2.881  0.2350  0.2279 -0.0421
48321W        W91233  30.147  25.754   3.183 -0.0122 -0.3050 -0.0094
48322W        W91234  30.711  27.739   1.071 -0.1132  0.0507  0.0547
48323W        W91235  29.458  24.547   0.347  0.2032 -0.0423 -0.0521
48324W        W91236  30.309  28.501   1.213  0.0224 -0.0792  0.0376
48325W        W91237  30.132  28.609   3.857 -0.0381  0.1550  0.0058
48326W        W91238  30.259  26.845   0.707  0.1888  0.0739 -0.2306
48327W        W91239  28.411  29.419   1.161 -0.0220  0.1814  0.2300
48328W        W91240  32.272  28.215   1.164  0.2383 -0.1855 -0.0583
48329W        W91241  30.954  27.972   1.412 -0.2145 -0.0661 -0.1458
48330W        W91242  30.008  30.266   1.334 -0.0870  0.0681  0.0348
48331W        W91243  30.114  28.838   0.874 -0.1007 -0.0803  0.0973
48332W        W91244  27.984  29.578   2.702 -0.1128  0.0389 -0.1228
48333W        W91245  28.400  29.211  31.552  0.0718  0.1925  0.1440
48334W        W91246  30.286  28.742   2.574 -0.0147 -0.2011 -0.0379
48335W        W91247  28.761  29.025   0.270 -0.0349  0.0698  0.0877
48336W        W91248  31.551  27.603   4.373  0.0512 -0.0923  0.0875
48337W        W91249  31.910  25.921   0.468 -0.1099 -0.1302 -0.1561
48338W        W91250  31.979  28.326   0.786 -0.0600  0.0156 -0.0914
48339W        W91251  31.908  27.562   0.894 -0.0562  0.1766  0.0508
48340W        W91252  30.656  27.852   1.805  0.2180  0.0961  0.2079
48341W        W91253  29.693  26.061   1.710  0.1224  0.1852 -0.0851
48342W        W91254  29.535  25.745   0.147  0.2642 -0.1812  0.1281
48343W        W91255  30.670  26.852   3.353  0.0296 -0.1491 -0.2494
48344W        W91256  33.727  25.503   3.193 -0.2478 -0.1614  0.1895
48345W        W91257  28.444  29.427   4.324 -0.2221  0.2727 -0.1951
48346W        W91258  32.928  28.885   1.686 -0.2310 -0.1655 -0.0722
48347W        W91259  29.849  26.848   0.044  0.0064  0.4390  0.1719
48348W        W91260  29.402  27.680   0.693 -0.0059 -0.2648  0.1243
48349W        W91261  32.887  26.099   2.114 -0.0416 -0.0802 -0.3800
48350W        W91262  30.074  28.684   1.717  0.2242 -0.0530  0.2517
48351W        W91263  30.839  25.551   2.025 -0.0535 -0.1282 -0.1795
48352W        W91264  29.199  28.922   1.969  0.2163 -0.1593  0.1583
48353W        W91265  29.884  27.966   0.750  0.1052 -0.0758 -0.2120
48354W        W91266  31.168  26.923   2.705 -0.0911 -0.4086 -0.1352
48355W        W91267  28.323  27.270   0.295 -0.0585 -0.2607  0.2040
48356W        W91268  32.909  27.124   3.193 -0.1962  0.0546 -0.3253
48357W        W91269  30.340  25.660   3.683 -0.0895 -0.2070 -0.0861
48358W        W91270  32.322  26.763   3.776  0.2823 -0.0028  0.1762
48359W        W91271  28.905  26.516   1.627  0.3188  0.0439  0.3951
48360W        W91272  31.050  25.331   1.172  0.1310  0.2045 -0.1405
48361W        W91273  31.630  26.847   3.149  0.0686 -0.0316  0.1184
48362W        W91274  30.222  26.968   2.800 -0.1153  0.0116 -0.3128
48363W        W91275  30.182  25.816   0.067  0.0121  0.1337  0.0166
48364W        W91276  31.876  26.837   3.981  0.1304  0.3839  0.1857
48365W        W91277  32.373  26.763   1.246 -0.1047  0.1871 -0.3962
48366W        W91278  31.166  28.310   2.330  0.0456  0.1449  0.0254
48367W        W91279  29.129  25.438   0.299 -0.0512  0.1667 -0.1659
48368W        W91280  30.787  26.543   0.140  0.3144 -0.4200  0.0480
48369W        W91281  29.756  28.466   1.365 -0.0892 -0.2267 -0.0049
48370W        W91282  29.917  26.774   1.552 -0.1486  0.1600  0.0849
48371W        W91283  31.296  30.131   2.573  0.1916 -0.2229 -0.3165
48372W        W91284  29.539  25.658   1.271  0.3207  0.0147 -0.0386
48373W        W91285  31.894  29.162   0.355 -0.1380 -0.0559 -0.1442
48374W        W91286  31.424  26.867   3.645 -0.2728  0.3558 -0.0168
48375W        W91287  29.350  29.502   0.772 -0.1494 -0.1313 -0.1779
48376W        W91288  31.559  28.858   0.593  0.1996 -0.0799  0.4510
48377W        W91289  31.373  27.295   2.279  0.3504 -0.1486  0.1521
48378W        W91290  29.210  26.057   0.373  0.3807  0.2111 -0.1703
48379W        W91291  32.265  28.511   3.067 -0.2735 -0.0880  0.0662
48380W        W91292  31.877  28.326   2.207 -0.0277 -0.0614  0.0145
48381W        W91293  30.435  25.364   0.142 -0.2988  0.2192  0.1170
48382W        W91294  30.518  27.391   1.596 -0.0895  0.0639  0.1231
48383W        W91295  28.719  28.546   2.875  0.3457 -0.4966 -0.0969
48384W        W91296  32.358  27.580   3.005 -0.0381  0.0919 -0.1853
48385W        W91297  30.576  26.372   3.907  0.0402 -0.3201  0.2189
48386W        W91298  30.241  28.239  31.507  0.4024  0.3169  0.3567
48387W        W91299  31.195  25.561   3.472 -0.1313 -0.3999 -0.1888
48388W        W91300  29.739  27.884   2.102 -0.1340 -0.2539 -0.0037
48389W        W91301  29.830  27.838   3.181 -0.1041  0.1024 -0.1818
48390W        W91302  27.910  28.161   1.395 -0.0153 -0.4056 -0.3923
48391W        W91303  29.122  25.859   3.479  0.3613 -0.0305 -0.2704
48392W        W91304  28.187  29.067   1.554  0.1817 -0.1509  0.2507
48393W        W91305  30.097  30.303  31.557  0.1002 -0.3600 -0.1577
48394W        W91306  30.777  29.195   1.932  0.2094  0.0776 -0.0652
48395W        W91307  31.606  27.424   1.886 -0.1406  0.0363 -0.1448
48396W        W91308  31.781  28.410   1.668 -0.1711  0.1270 -0.0703
48397W        W91309  30.787  25.395   2.623 -0.0457 -0.0069 -0.0143
48398W        W91310  32.460  25.061   1.289  0.0405  0.1515  0.0651
48399W        W91311  29.899  25.986   0.391 -0.1524  0.1124 -0.0489
48400W        W91312  30.261  27.183   2.392  0.1020  0.1499  0.1456
48401W        W91313  28.463  27.339   1.248 -0.1745 -0.0699 -0.2990
48402W        W91314  28.290  29.358   0.627  0.1518  0.1084 -0.3241
48403W        W91315  28.842  28.485   0.356 -0.0931  0.2671 -0.1662
48404W        W91316  31.225  24.943   4.391 -0.0545  0.1425 -0.0028
48405W        W91317  29.483  26.472   3.582  0.0801 -0.1520  0.1472
48406W        W91318  28.813  29.901   3.058 -0.0066 -0.0803  0.2033
48407W        W91319  29.853  27.414   2.322  0.5355 -0.1244 -0.1273
48408W        W91320  31.680  28.545   1.124  0.1125 -0.0666 -0.1649
48409W        W91321  29.572  26.043   3.304 -0.0086 -0.0118  0.1677
48410W        W91322  29.221  26.212   2.565 -0.3389 -0.3352  0.2322
48411W        W91323  31.888  27.464   1.444  0.2803 -0.2017  0.0032
48412W        W91324  31.174  29.133   0.529  0.3239 -0.0768  0.2935
48413W        W91325  29.743  26.757   0.536  0.0731 -0.1764 -0.2054
48414W        W91326  32.431  29.763   2.750  0.1026 -0.1423  0.1779
48415W        W91327  28.575  28.159   0.720 -0.1745 -0.3392  0.2130
48416W        W91328  29.933  26.293   3.035  0.3113 -0.1400  0.0691
48417W        W91329  31.444  24.327   2.026  0.1775 -0.2196  0.0770
48418W        W91330  28.540  25.581  31.635  0.0606  0.1246 -0.1999
48419W        W91331  30.371  25.595   2.279  0.2277  0.0595 -0.2020
48420W        W91332  31.506  29.022   1.033 -0.0689 -0.1526 -0.0070
48421W        W91333  30.798  29.475   1.010 -0.1118  0.2208 -0.1369
48422W        W91334  30.420  27.469   2.036  0.1222  0.0660  0.2759
48423W        W91335  31.397  28.034   2.698  0.0724 -0.0523 -0.2336
48424W        W91336  29.101  24.335   2.393  0.0325  0.2378 -0.2412
48425W        W91337  30.632  28.949   2.958 -0.2238  0.2179  0.2267
48426W        W91338  31.192  26.527   2.990  0.0514 -0.0349 -0.1867
48427W        W91339  32.461  28.499  31.298  0.0345  0.2181 -0.0235
48428W        W91340  32.084  25.980   3.363 -0.0911 -0.0764  0.1770
48429W        W91341  29.005  28.193   0.016 -0.1679  0.1438  0.0753
48430W        W91342  28.302  26.387   2.842 -0.0720 -0.1269 -0.2335
48431W        W91343  29.755  27.184   2.768  0.0275 -0.0698  0.1792
48432W        W91344  31.811  27.858   1.695 -0.3317 -0.3419 -0.0741
48433W        W91345  30.659  25.958   1.805  0.0019  0.2460 -0.0945
48434W        W91346  31.534  26.590   0.752 -0.4694  0.1600 -0.1216
48435W        W91347  30.945  28.314   1.826 -0.0195 -0.0307 -0.0387
48436W        W91348  30.386  26.678   2.212  0.1689  0.1262  0.2386
48437W        W91349  30.426  26.222   2.172  0.1308 -0.2276 -0.1249
48438W        W91350  30.764  25.814   2.885  0.0064  0.0873  0.1671
48439W        W91351  30.891  28.043   2.888 -0.0389 -0.0854 -0.0199
48440W        W91352  31.579  28.737   2.466  0.2855  0.0752  0.1396
48441W        W91353  29.083  27.794   1.375 -0.2173  0.0532 -0.0836
48442W        W91354  31.532  28.670  31.551  0.1160 -0.3029  0.0927
48443W        W91355  29.548  28.832   3.831  0.0265  0.2637  0.0869
48444W        W91356  31.647  29.981   3.053 -0.0806 -0.4145 -0.3560
48445W        W91357  29.572  28.258   3.122  0.3240  0.0117 -0.0966
48446W        W91358  32.435  26.475   2.060 -0.2652  0.2068 -0.2994
48447W        W91359  29.671  25.773   2.353  0.1782 -0.0437 -0.1575
48448W        W91360  30.737  25.154   1.645 -0.0435  0.1185  0.3072
48449W        W91361  30.613  26.465   0.680 -0.0360  0.2140 -0.0136
48450W        W91362  31.585  26.963   4.338  0.0259  0.0667 -0.0311
48451W        W91363  29.297  26.047   2.073 -0.0388 -0.1588  0.4004
48452W        W91364  31.052  26.178   0.334  0.0085 -0.2429  0.1496
48453W        W91365  29.897  29.925   3.829  0.0411  0.0040 -0.1097
48454W        W91366  30.703  26.930   1.917  0.1750 -0.0708  0.1464
48455W        W91367  29.425  27.615   6.087  0.1441  0.3135 -0.1012
48456W        W91368  30.566  26.946   5.142  0.0378 -0.1316 -0.0735
48457W        W91369  30.322  26.523   3.207  0.0639  0.0670  0.0047
48458W        W91370  31.052  26.779   4.300 -0.1767  0.0323 -0.4461
48459W        W91371  29.220  26.647   4.772  0.2140 -0.0144 -0.1777
48460W        W91372  29.871  28.587   4.296 -0.2418  0.1080  0.1202
48461W        W91373  29.116  24.330   7.326 -0.0983  0.1355  0.1041
48462W        W91374  31.821  28.452   5.610  0.0848 -0.2250 -0.2681
48463W        W91375  32.315  28.963   5.437 -0.2009  0.0334  0.1665
48464W        W91376  31.695  27.898   3.580  0.2373 -0.1664  0.0586
48465W        W91377  30.827  26.501   6.327 -0.1327  0.1849 -0.0800
48466W        W91378  28.926  28.311   5.785  0.1198  0.3229 -0.1665
48467W        W91379  30.087  25.312   4.728  0.0505 -0.1920 -0.3989
48468W        W91380  28.038  25.484   5.409 -0.1235  0.3233 -0.3713
48469W        W91381  30.904  26.577   5.401 -0.3513  0.0619  0.1012
48470W        W91382  28.546  26.519   3.347  0.0204  0.0536  0.0710
48471W        W91383  29.970  26.734   7.171  0.3678 -0.2095 -0.0143
48472W        W91384  30.452  24.656   5.812  0.0844  0.0053  0.1181
48473W        W91385  30.354  29.202   4.865  0.2852 -0.1894  0.3658
48474W        W91386  30.797  24.502   7.662 -0.0613  0.1983 -0.2925
48475W        W91387  31.647  26.272   6.244 -0.0366 -0.3381  0.0138
48476W        W91388  29.860  29.851   4.329  0.0279 -0.0764 -0.0339
48477W        W91389  28.291  25.213   3.708 -0.1863 -0.2591 -0.1810
48478W        W91390  29.182  25.905   4.962  0.1721  0.1068  0.2973
48479W        W91391  30.521  28.282   4.180  0.0366  0.1064 -0.0399
48480W        W91392  31.154  26.621   4.893 -0.1213  0.0251 -0.1231
48481W        W91393  31.962  27.220   4.986 -0.2636  0.2600 -0.0712
48482W        W91394  29.572  29.081   6.733  0.0074 -0.0359 -0.3273
48483W        W91395  31.618  29.574   5.557  0.0188 -0.1563  0.1289
48484W        W91396  31.113  27.453   6.447  0.0681 -0.0424 -0.0182
48485W        W91397  28.718  27.934   4.705 -0.2130 -0.2769 -0.1244
48486W        W91398  26.922  29.311   5.644 -0.1527 -0.4883  0.0706
48487W        W91399  29.689  28.209   3.913  0.0809 -0.2750  0.0568
48488W        W91400  32.397  27.467   6.263 -0.1194  0.1229 -0.2428
48489W        W91401  32.223  28.981   6.955  0.1620 -0.1046  0.3104
48490W        W91402  30.327  30.249   7.933 -0.0224 -0.0026 -0.1233
48491W        W91403  30.892  28.175   4.730  0.0302 -0.0054  0.0361
48492W        W91404  30.637  28.400   7.930 -0.0560  0.0644  0.1043
48493W        W91405  29.321  28.448   6.115  0.1451  0.1569  0.0419
48494W        W91406  30.523  27.147   5.924  0.0406 -0.0391  0.2035
48495W        W91407  30.448  27.162   3.685  0.0390  0.2420  0.0319
48496W        W91408  31.401  27.390   3.547 -0.0313 -0.2466 -0.1848
48497W        W91409  30.380  28.058   4.842 -0.1094 -0.1686 -0.1430
48498W        W91410  31.052  27.329   6.925 -0.0699  0.1340 -0.0917
48499W        W91411  29.192  27.547   5.087  0.0457  0.1128 -0.3279
48500W        W91412  32.938  26.757   6.570  0.0481 -0.0663 -0.0288
48501W        W91413  30.017  28.344   5.127 -0.1339  0.1177  0.0702
48502W        W91414  31.919  27.069   3.553 -0.3906  0.0475 -0.0611
48503W        W91415  30.508  26.108   3.289 -0.0890  0.1539 -0.1097
48504W        W91416  33.045  25.512   4.594 -0.0279  0.3111 -0.1346
48505W        W91417  30.169  24.811   4.492 -0.0463 -0.1988  0.0692
48506W        W91418  30.003  28.968   6.582 -0.1512 -0.0204 -0.2700
48507W        W91419  30.752  25.051   6.059  0.0216 -0.1487  0.1128
48508W        W91420  31.869  27.654   5.834 -0.0857 -0.0219  0.0875
48509W        W91421  31.474  26.316   3.572 -0.2450 -0.0281  0.0715
48510W        W91422  31.673  27.074   6.430 -0.1959  0.0405  0.0865
48511W        W91423  28.485  27.651   6.116  0.0151  0.2380  0.2218
48512W        W91424  27.930  25.978   6.113  0.2812 -0.0426  0.0448
48513W        W91425  31.837  29.009   4.362  0.0059  0.1467 -0.0166
48514W        W91426  31.378  28.643   4.177 -0.0582  0.0863  0.1270
48515W        W91427  30.117  27.898   4.144 -0.0694 -0.1263  0.2179
48516W        W91428  28.819  26.969   4.305  0.0710  0.0655 -0.1345
48517W        W91429  28.431  26.804   7.068 -0.2127 -0.1454  0.0746
48518W        W91430  28.119  26.123   7.783  0.2814 -0.1496 -0.0444
48519W        W91431  30.484  25.963   4.203  0.1546 -0.1667  0.2642
48520W        W91432  32.234  27.762   7.129  0.1967  0.0602  0.0854
48521W        W91433  27.239  26.425   7.267 -0.0761  0.2807  0.0129
48522W        W91434  32.781  27.365   5.888 -0.1927 -0.0415  0.0308
48523W        W91435  30.837  28.066   6.360 -0.1021 -0.2790 -0.3543
48524W        W91436  32.184  28.289   6.739 -0.0523 -0.0082  0.1101
48525W        W91437  31.653  28.899   3.016  0.2077  0.0354 -0.2117
48526W        W91438  31.355  24.643   6.120  0.1820 -0.1794 -0.0142
48527W        W91439  32.056  25.260   5.772  0.0207  0.3183 -0.2472
48528W        W91440  29.199  27.130   4.574  0.0789 -0.0567 -0.0196
48529W        W91441  30.449  27.296   3.233 -0.0087  0.4776  0.0757
48530W        W91442  31.567  29.064   5.273 -0.2672 -0.1582  0.1279
48531W        W91443  31.926  27.943   4.081  0.3372  0.3484  0.2629
48532W        W91444  28.644  27.630   5.194 -0.4079 -0.2060 -0.1219
48533W        W91445  31.031  25.757   6.620  0.1459 -0.0957 -0.1348
48534W        W91446  28.935  28.176   8.274  0.0192  0.0237 -0.4093
48535W        W91447  30.527  29.866   3.830 -0.0954 -0.0746  0.0119
48536W        W91448  27.745  27.753   4.911  0.1250  0.0307  0.2746
48537W        W91449  30.340  28.136   5.395 -0.0320 -0.0223 -0.0036
48538W        W91450  28.541  26.015   6.311  0.1506 -0.2824  0.1227
48539W        W91451  30.078  26.385   5.826 -0.1407  0.1441  0.0467
48540W        W91452  31.511  25.580   4.433  0.1055 -0.3324 -0.0277
48541W        W91453  29.891  24.471   6.901  0.3625 -0.1663  0.1223
48542W        W91454  32.176  25.995   5.464 -0.1003 -0.1756  0.2383
48543W        W91455  28.734  27.450   4.370 -0.1677 -0.3530  0.1198
48544W        W91456  31.035  28.534   5.902 -0.0636  0.3861 -0.1614
48545W        W91457  32.836  25.882   4.843 -0.0573 -0.2356  0.1528
48546W        W91458  30.963  28.972   3.510  0.2575 -0.2042  0.2908
48547W        W91459  29.682  26.407   6.281 -0.2132 -0.1422 -0.3453
48548W        W91460  29.644  25.841   5.178 -0.2192  0.2968 -0.0670
48549W        W91461  29.145  24.886   7.229 -0.2711 -0.1483 -0.2426
48550W        W91462  30.110  26.946   4.612  0.0017 -0.1144  0.2714
48551W        W91463  30.493  27.642   5.133 -0.0779  0.1757  0.0228
48552W        W91464  29.516  25.950   3.786 -0.3532  0.2659 -0.0662
48553W        W91465  31.005  28.076   4.044 -0.3297  0.0702 -0.0225
48554W        W91466  29.925  26.144   4.110 -0.0488 -0.0744 -0.0736
48555W        W91467  29.140  27.682   4.485 -0.0368 -0.0975  0.0000
48556W        W91468  32.165  26.669   6.072 -0.0978  0.1331  0.3139
48557W        W91469  30.601  28.523   4.967  0.0572 -0.2261 -0.1436
48558W        W91470  31.442  27.870   6.438  0.0359 -0.1084  0.0302
48559W        W91471  32.023  27.621   4.474  0.1142 -0.3747 -0.0107
48560W        W91472  28.932  26.733   6.957  0.1972  0.0865 -0.0607
48561W        W91473  28.623  25.328   4.618  0.4263 -0.0015 -0.1404
48562W        W91474  29.866  29.338   7.059  0.0346  0.1115 -0.0611
48563W        W91475  31.833  29.419   4.906 -0.1366 -0.2979 -0.1087
48564W        W91476  29.427  26.251   4.198  0.3576  0.1925  0.0066
48565W        W91477  32.076  28.779   6.025  0.4163  0.2550  0.1476
48566W        W91478  29.417  26.409   2.966  0.3877 -0.0254 -0.0679
48567W        W91479  28.140  26.935   6.588  0.1552  0.2743  0.1141
48568W        W91480  31.498  25.292   7.472  0.1758  0.3230 -0.1861
48569W        W91481  31.706  26.608   5.856  0.3227 -0.0453  0.2492
48570W        W91482  31.059  26.113   4.835 -0.2444  0.1261 -0.0697
48571W        W91483  29.314  24.224   2.919  0.2512  0.0218 -0.0781
48572W        W91484  30.249  28.234   5.915 -0.0283  0.2414  0.0905
48573W        W91485  28.654  28.496   4.782 -0.1496  0.3111  0.2290
48574W        W91486  29.065  26.773   3.801 -0.0314 -0.0464 -0.0747
48575W        W91487  30.151  28.721   5.641 -0.1305 -0.0537  0.1356
48576W        W91488  31.976  26.286   4.779  0.0687  0.0718  0.0705
48577W        W91489  27.381  26.910   6.835 -0.1593  0.1333 -0.2109
48578W        W91490  31.134  26.950   7.272  0.0887  0.4366  0.0610
48579W        W91491  29.604  25.609   4.761  0.2348  0.2575  0.0194
48580W        W91492  29.518  26.940   6.246  0.0772 -0.1710  0.2116
48581W        W91493  31.261  26.246   5.291  0.0568  0.0819  0.2760
48582W        W91494  31.985  26.224   3.759  0.0613  0.0278  0.0848
48583W        W91495  29.522  28.453   7.038 -0.1578  0.2709  0.1355
48584W        W91496  31.088  28.559   5.179  0.0858 -0.1943  0.1039
48585W        W91497  30.631  25.480   4.027  0.0146 -0.2097 -0.4203
48586W        W91498  31.664  24.782   2.616  0.0638 -0.0113 -0.1364
48587W        W91499  29.931  26.780   6.545 -0.2764  0.1178 -0.1648
48588W        W91500  31.394  29.439   4.012  0.0660 -0.0778 -0.0567
48589W        W91501  29.756  27.035   5.417 -0.0977 -0.2327  0.3842
48590W        W91502  31.027  24.829   4.916 -0.0817  0.0182 -0.1654
48591W        W91503  31.944  28.335   3.720 -0.0194 -0.0773  0.0187
48592W        W91504  28.646  26.292   7.036  0.0213  0.2465 -0.4330
48593W        W91505  29.839  27.940   7.269  0.0111  0.0605  0.1865
48594W        W91506  30.622  27.663   6.245  0.0061  0.0838  0.1499
48595W        W91507  30.661  25.980   6.322 -0.1944  0.0076  0.2387
48596W        W91508  29.799  25.319   3.865  0.0603 -0.1406 -0.1647
48597W        W91509  30.513  25.129   5.463 -0.2100 -0.2663  0.0575
48598W        W91510  29.398  28.426   3.571 -0.0486 -0.3821 -0.3048
48599W        W91511  31.735  26.291   5.457  0.0144 -0.3106  0.4891
48600W        W91512  31.885  25.744   5.766  0.4861 -0.0989  0.0436
48601W        W91513  31.191  26.075   7.001  0.1548 -0.5393 -0.1533
48602W        W91514  32.038  27.203   6.058 -0.0022  0.0517  0.2869
48603W        W91515  32.052  27.131   4.439 -0.0818  0.0464 -0.0027
48604W        W91516  30.963  25.950   5.726 -0.0487  0.1542 -0.1457
48605W        W91517  29.067  25.858   4.195  0.1198  0.0234  0.1527
48606W        W91518  30.538  25.126   7.416  0.1115 -0.0628 -0.0384
48607W        W91519  27.811  27.245   6.410 -0.2471  0.0082  0.1716
48608W        W91520  32.618  27.507   6.822  0.1713 -0.0974  0.0024
48609W        W91521  31.391  28.158   4.412 -0.1256 -0.1463  0.4891
48610W        W91522  31.203  26.114   6.299 -0.1870  0.0604 -0.2079
48611W        W91523  30.550  24.984   4.947 -0.4584 -0.1578  0.0207
48612W        W91524  27.872  28.047   5.464  0.0322  0.0163  0.2836
48613W        W91525  31.949  29.376   3.918  0.1920 -0.3068 -0.3235
48614W        W91526  31.395  25.106   4.898 -0.2188  0.0750  0.1339
48615W        W91527  29.586  28.949   7.225 -0.2255 -0.1555  0.0055
48616W        W91528  30.569  28.253   3.567 -0.0240 -0.0186 -0.2531
48617W        W91529  31.349  26.687   6.371  0.1482 -0.1377 -0.2087
48618W        W91530  29.551  27.568   4.228 -0.3002  0.1281  0.2358
48619W        W91531  32.662  26.523   5.809 -0.1934  0.0084 -0.2477
48620W        W91532  28.912  28.882   5.566 -0.0634  0.4508 -0.0760
48621W        W91533  30.018  26.631   3.989 -0.0866 -0.0774  0.1641
48622W        W91534  29.502  26.287   5.068  0.2119 -0.0754  0.1858
48623W        W91535  31.630  25.988   4.013 -0.0984 -0.0078  0.1086
48624W        W91536  31.412  28.632   3.454 -0.0798 -0.1012  0.2193
48625W        W91537  30.722  25.485   6.960 -0.0855  0.1375  0.0841
48626W        W91538  31.888  27.010   5.579  0.0125 -0.0533 -0.1901
48627W        W91539  28.256  28.208   5.770  0.2037  0.1729  0.0181
48628W        W91540  28.728  26.541   4.481  0.0509 -0.0212  0.1858
48629W        W91541  31.746  28.378   6.397  0.0825 -0.0682 -0.4251
48630W        W91542  29.728  27.784   6.455  0.0049 -0.1704  0.1064
48631W        W91543  28.294  25.747   3.708 -0.0830 -0.2218  0.0148
48632W        W91544  32.892  26.862   6.094 -0.1188 -0.2927  0.0439
48633W        W91545  30.489  25.634   5.485 -0.1340  0.1278 -0.0899
48634W        W91546  29.436  28.351   4.918 -0.1093  0.2492 -0.1807
48635W        W91547  31.001  27.804   6.805  0.0742 -0.2210 -0.1096
48636W        W91548  29.012  25.458   5.162  0.1212  0.3058 -0.2201
48637W        W91549  29.802  29.057   4.188  0.2032  0.1298  0.3099
48638W        W91550  29.888  26.034   8.299  0.0036  0.1060 -0.1048
48639W        W91551  31.720  27.532   6.275 -0.3498 -0.2092  0.0047
48640W        W91552  30.665  25.560   6.144 -0.5350  0.2666  0.0296
48641W        W91553  30.881  26.243   4.366 -0.3485  0.1542 -0.4489
48642W        W91554  30.009  26.266   4.950 -0.4718 -0.1301 -0.0732
48643W        W91555  31.524  28.276   5.969 -0.0630  0.4539  0.0575
48644W        W91556  30.422  26.456   5.227 -0.4818  0.1715 -0.1323
48645W        W91557  29.520  28.016   5.292  0.2440 -0.0901 -0.0574
48646W        W91558  30.281  24.963   6.250  0.0405  0.0624  0.0084
48647W        W91559  33.358  29.436   6.440  0.0432  0.7620 -0.0969
48648W        W91560  31.811  27.791   7.407  0.4254 -0.0740 -0.2901
48649W        W91561  28.736  25.846   5.366  0.1715 -0.0095  0.3176
48650W        W91562  28.937  27.255   7.120 -0.0231 -0.1068  0.0643
48651W        W91563  30.522  27.719   4.371 -0.2509  0.1165 -0.2621
48652W        W91564  31.503  25.590   6.429 -0.0664 -0.1365  0.1770
48653W        W91565  28.578  27.850   5.655 -0.0950  0.0458 -0.1103
48654W        W91566  30.956  27.597   3.115  0.0402  0.0640 -0.0546
48655W        W91567  29.532  27.529   5.606  0.0974  0.4395  0.2135
48656W        W91568  31.480  26.447   4.616 -0.0418  0.2785  0.1682
48657W        W91569  31.110  28.173   3.364  0.1407  0.1379  0.2280
48658W        W91570  30.845  27.481   4.022  0.3372  0.1385 -0.0148
48659W        W91571  31.952  26.652   5.159 -0.2256 -0.1091  0.0205
48660W        W91572  32.980  27.810   5.092 -0.0883 -0.1947  0.1967
48661W        W91573  30.851  26.232   6.726  0.2017 -0.0634  0.1246
48662W        W91574  30.334  25.892   5.877  0.2035 -0.1631 -0.1900
48663W        W91575  31.067  29.015   4.989 -0.0054  0.0330  0.0883
48664W        W91576  30.191  25.629   6.306  0.2015 -0.0159 -0.0162
48665W        W91577  30.873  28.500   7.507 -0.2675 -0.1061 -0.0159
48666W        W91578  28.745  26.823   7.543 -0.1228  0.0984 -0.0436
48667W        W91579  30.887  25.231   4.696 -0.5353 -0.1867 -0.0481
48668W        W91580  28.873  25.057   3.786  0.0054  0.1544 -0.0430
48669W        W91581  29.982  27.805   5.724  0.2736 -0.4412  0.2545
48670W        W91582  32.366  27.701   3.996  0.0223 -0.1994  0.0764
48671W        W91583  30.223  27.352   4.312  0.0037  0.2155  0.0750
48672W        W91584  31.237  27.200   4.069  0.0867  0.0465 -0.1997
48673W        W91585  29.389  26.552   6.638  0.0115 -0.1107  0.0661
48674W        W91586  31.034  27.757   4.451 -0.4093  0.2026  0.0634
48675W        W91587  31.199  25.853   1.625  0.1887 -0.1843  0.1198
48676W        W91588  28.995  28.081   5.217  0.0582  0.1479  0.1651
48677W        W91589  30.531  25.708   7.537 -0.0502  0.3065  0.1524
48678W        W91590  31.101  27.077   5.201  0.0482 -0.0815 -0.0339
48679W        W91591  30.069  26.088   5.429 -0.0493  0.1029 -0.0747
48680W        W91592  32.246  26.478   5.524  0.0713  0.2895 -0.0404
48681W        W91593  32.070  25.979   6.331 -0.1949  0.1656 -0.1126
48682W        W91594  30.202  27.080   6.902  0.0451  0.1890  0.1191
48683W        W91595  28.534  26.985   6.247  0.2120 -0.0142 -0.2132
48684W        W91596  32.615  28.076   6.965 -0.0056 -0.1330 -0.1009
48685W        W91597  31.433  26.531   4.077 -0.1319 -0.3307 -0.2220
48686W        W91598  31.465  25.978   5.855 -0.0516  0.0143  0.2069
48687W        W91599  31.528  27.260   5.318  0.3139 -0.1079  0.2611
48688W        W91600  32.568  25.712   3.675  0.0840  0.3575  0.3137
48689W        W91601  30.100  27.173   5.030  0.0445 -0.4933 -0.1120
48690W        W91602  31.429  28.388   7.482 -0.1728 -0.0362 -0.1926
48691W        W91603  30.889  26.467   3.510  0.0393 -0.1635 -0.1808
48692W        W91604  31.190  25.627   6.104 -0.1505  0.1788  0.2559
48693W        W91605  30.939  29.440   3.688 -0.2370  0.1432 -0.0207
48694W        W91606  30.503  26.777   4.213  0.0774 -0.1314 -0.3854
48695W        W91607  31.100  26.247   3.898 -0.1293  0.2574 -0.1329
48696W        W91608  29.099  26.248   6.030 -0.0700 -0.3381 -0.0751
48697W        W91609  30.329  29.596   7.136  0.1145  0.0968  0.4438
48698W        W91610  28.893  26.403   5.114  0.1394 -0.0518 -0.3692
48699W        W91611  29.764  26.790   3.141 -0.0029 -0.2690  0.4120
48700W        W91612  30.688  27.330   4.544 -0.0304  0.2758 -0.1903
48701W        W91613  31.417  28.252   6.783 -0.0805 -0.3001 -0.4459
48702W        W91614  31.703  25.433   3.974 -0.1124  0.2811  0.0110
48703W        W91615  31.471  26.540   7.229 -0.1504  0.1015  0.0704
48704W        W91616  28.746  26.287   5.648  0.2021  0.2571  0.1291
48705W        W91617  30.657  26.707   4.696 -0.1731 -0.3490 -0.1263
48706W        W91618  29.263  28.482   5.393 -0.0716  0.4074 -0.3346
48707W        W91619  29.039  26.755   6.320  0.2911 -0.0122  0.3619
48708W        W91620  30.204  29.254   5.550 -0.1114  0.0298 -0.4578
48709W        W91621  30.436  25.289   6.618  0.1260  0.3091  0.0867
48710W        W91622  31.609  26.896   4.885 -0.0241  0.4608  0.1412
48711W        W91623  29.574  28.192   4.446 -0.2347  0.1151 -0.0637
48712W        W91624  32.406  27.019   5.787 -0.2385  0.1464 -0.0695
48713W        W91625  30.076  27.429   6.129 -0.2480 -0.3892 -0.0032
48714W        W91626  29.401  27.501   3.664 -0.0970  0.3887  0.0562
48715W        W91627  31.336  27.905   7.196 -0.1170 -0.2080 -0.0438
48716W        W91628  31.095  27.727   5.511  0.1396  0.1574 -0.0935
48717W        W91629  29.667  27.298   6.577  0.0365 -0.0573 -0.1725
48718W        W91630  27.952  26.249   4.982 -0.2415  0.0036 -0.1246
48719W        W91631  31.369  27.818   5.979  0.0694  0.2134  0.0272
48720W        W91632  31.333  26.031   4.416  0.2407 -0.1611 -0.0046
48721W        W91633  29.905  24.910   4.944 -0.0712  0.1907  0.1811
48722W        W91634  31.620  27.583   2.671  0.4092  0.0395  0.0013
48723W        W91635  28.912  28.026   6.621  0.1647 -0.1014 -0.0242
48724W        W91636  29.354  25.577   6.015  0.0316  0.1088  0.0535
48725W        W91637  30.285  29.019   4.257  0.0730  0.1003  0.3023
48726W        W91638  32.366  28.001   4.503 -0.1672  0.1481 -0.2503
48727W        W91639  30.917  27.255   3.483 -0.1273 -0.4365 -0.2486
48728W        W91640  30.244  28.017   6.349 -0.3098 -0.2464 -0.1675
48729W        W91641  29.370  24.016   5.026  0.2115 -0.1486  0.2126
48730W        W91642  29.045  28.534   6.656 -0.0656 -0.0675  0.1110
48731W        W91643  27.313  29.259   5.224 -0.0906  0.1547 -0.1117
48732W        W91644  30.991  28.537   3.779 -0.1173  0.2059  0.1091
48733W        W91645  29.019  28.818   5.063  0.3081 -0.1975 -0.0899
48734W        W91646  31.910  27.336   7.118  0.0924 -0.1686  0.1001
48735W        W91647  32.623  26.275   2.482  0.1646  0.0489  0.2843
48736W        W91648  33.544  27.714   5.249 -0.1307  0.0079  0.1602
48737W        W91649  32.643  26.687   3.327  0.2269  0.2405  0.0215
48738W        W91650  30.860  29.188   6.890  0.1750 -0.2061 -0.1297
48739W        W91651  30.118  27.346   5.565  0.4154  0.1801 -0.1901
48740W        W91652  29.342  24.540   3.290 -0.1691 -0.1061  0.1515
48741W        W91653  30.641  27.255   6.612 -0.0368 -0.1047 -0.1100
48742W        W91654  32.048  26.018   7.086  0.0576 -0.0082  0.1325
48743W        W91655  29.215  27.689   6.536 -0.2670 -0.0225  0.0418
48744W        W91656  31.648  28.505   5.163 -0.0401 -0.0036 -0.3313
48745W        W91657  29.775  26.556   4.545 -0.0039 -0.0253 -0.1495
48746W        W91658  29.574  27.803   4.811  0.0319 -0.0350 -0.0820
48747W        W91659  32.536  26.752   5.161  0.1773  0.0390 -0.3013
48748W        W91660  30.885  26.350   1.972  0.1809  0.3333 -0.2756
48749W        W91661  31.102  26.936   5.725 -0.1701  0.1843  0.0838
48750W        W91662  30.332  28.550   4.561  0.1284  0.3488 -0.1337
48751W        W91663  28.945  27.820   6.125  0.1556  0.1259 -0.0422
48752W        W91664  29.323  28.904   5.848  0.3256  0.0262 -0.1458
48753W        W91665  28.998  25.315   4.211  0.1165  0.0474  0.1437
48754W        W91666  32.482  26.105   4.598  0.2194 -0.2393  0.2098
48755W        W91667  30.314  26.581   6.184 -0.1436 -0.0942  0.0694
48756W        W91668  33.387  26.875   6.256 -0.0407 -0.0682  0.0611
48757W        W91669  30.241  26.860   5.511  0.0062  0.1552 -0.0484
48758W        W91670  32.196  26.737   4.760  0.0302  0.3442 -0.0508
48759W        W91671  29.624  26.130   5.687  0.1454 -0.2140  0.1367
48760W        W91672  29.484  26.958   8.290  0.0761 -0.4960 -0.0059
48761W        W91673  31.632  25.805   3.580  0.3345 -0.1055  0.4980
48762W        W91674  31.959  26.830   6.773  0.1231 -0.0317  0.1348
48763W        W91675  31.783  27.420   3.994  0.2102  0.2088 -0.2607
48764W        W91676  31.198  28.394   6.339 -0.0094 -0.0582  0.0413
48765W        W91677  29.156  26.104   5.426  0.0568 -0.0325 -0.0455
48766W        W91678  31.128  25.776   4.029  0.1577  0.1314  0.0198
48767W        W91679  29.991  26.314   6.869 -0.0645  0.1367 -0.0079
48768W        W91680  29.578  26.617   5.858 -0.1868 -0.3521  0.0307
48769W        W91681  30.124  28.195   7.721 -0.2376 -0.0496  0.0296
48770W        W91682  30.059  25.258   5.276 -0.1635  0.5215  0.1471
48771W        W91683  32.755  28.798   4.060  0.1758 -0.2769 -0.0727
48772W        W91684  31.641  27.857   5.452 -0.2881 -0.1995 -0.0184
48773W        W91685  29.276  28.453   4.103  0.1390  0.2152  0.1552
48774W        W91686  31.175  27.108   4.674  0.0532  0.0200  0.0844
48775W        W91687  30.363  28.516   6.806 -0.2783 -0.1922 -0.1030
48776W        W91688  29.648  27.450   5.147 -0.0454 -0.1514  0.1514
48777W        W91689  31.781  28.672   6.896 -0.0909  0.1038  0.2978
48778W        W91690  31.860  28.078   5.019 -0.2422  0.1191  0.0413
48779W        W91691  30.553  23.595   4.482  0.4350  0.0687 -0.0133
48780W        W91692  29.844  25.271   6.093  0.0251 -0.1588  0.3020
48781W        W91693  29.855  29.658   6.587  0.0897 -0.1350  0.1054
48782W        W91694  32.353  27.201   5.326 -0.2029  0.2031  0.1278
48783W        W91695  30.677  26.634   5.852 -0.1026 -0.4050 -0.2053
48784W        W91696  31.169  26.921   3.259 -0.2629  0.0354 -0.1062
48785W        W91697  31.905  24.882   6.743  0.1636  0.0724  0.0295
48786W        W91698  29.764  28.626   5.890  0.3499  0.1915 -0.0743
48787W        W91699  28.153  26.274   8.764  0.0629  0.6068  0.0096
48788W        W91700  29.642  27.017   4.196 -0.0051 -0.0268 -0.0738
48789W        W91701  31.490  27.533   6.859 -0.2896  0.0367 -0.0306
48790W        W91702  29.837  28.263   5.579  0.2255 -0.1335 -0.1796
48791W        W91703  30.161  28.812   5.156 -0.0849 -0.4034  0.2184
48792W        W91704  30.877  28.105   5.282 -0.1502  0.2964 -0.0515
48793W        W91705  30.553  26.168   4.842 -0.2101  0.1927  0.1236
48794W        W91706  31.995  28.983   5.047 -0.0487  0.3263  0.0597
48795W        W91707  29.667  24.783   5.398  0.0869 -0.1933  0.2059
48796W        W91708  31.619  25.972   4.806  0.0485 -0.3176  0.0634
48797W        W91709  32.356  25.813   5.983 -0.1258  0.6469 -0.1643
48798W        W91710  30.199  26.155   6.444  0.2336  0.0244  0.0292
48799W        W91711  29.337  27.952   3.486 -0.2241  0.1177 -0.0634
48800W        W91712  28.988  29.083   3.669  0.1986 -0.3642  0.0425
48801W        W91713  30.769  27.294   5.512  0.0415  0.2163 -0.0133
48802W        W91714  30.521  26.086   8.082 -0.4147 -0.3974 -0.3642
48803W        W91715  30.613  26.021   7.115  0.2972  0.0777 -0.0167
48804W        W91716  29.371  27.046   5.761 -0.1994  0.2217 -0.0594
48805W        W91717  29.715  26.868   4.926  0.0373  0.1446 -0.2936
48806W        W91718  30.900  28.549   4.273 -0.0810 -0.0879 -0.0278
48807W        W91719  29.569  25.453   6.556 -0.1604 -0.1471  0.1099
48808W        W91720  27.995  26.478   5.557  0.0010 -0.0841  0.1479
48809W        W91721  31.949  27.501   5.410  0.0842 -0.1851 -0.2246
48810W        W91722  32.474  27.981   6.050  0.0194 -0.0548  0.1315
48811W        W91723  30.793  26.024   5.246 -0.0066  0.3129 -0.3193
48812W        W91724  31.798  28.576   7.746 -0.0209 -0.1930 -0.3623
48813W        W91725  29.955  27.361   3.226  0.2000  0.1657  0.0348
48814W        W91726  29.262  26.942   7.367  0.1291 -0.1962  0.0776
48815W        W91727  30.958  25.912   7.807  0.3124  0.0912  0.1149
48816W        W91728  29.078  26.310   3.320 -0.0750  0.2924  0.0491
48817W        W91729  30.968  27.481   5.954  0.1352  0.1212 -0.0732
48818W        W91730  30.584  28.493   6.194 -0.1077  0.5354 -0.3620
48819W        W91731  31.539  28.997   3.892 -0.3036 -0.0984  0.1027
48820W        W91732  30.937  26.969   6.175 -0.3247  0.0487 -0.2351
48821W        W91733  29.236  28.593   7.478  0.2705 -0.0626  0.0720
48822W        W91734  30.072  24.336   7.378 -0.4185 -0.2996 -0.1579
48823W        W91735  32.483  28.063   5.113  0.1175 -0.0587 -0.0496
48824W        W91736  29.993  26.944   5.906 -0.4731  0.0861  0.0182
48825W        W91737  33.224  28.066   5.603 -0.1607 -0.2198  0.0279
48826W        W91738  32.209  25.246   6.699  0.0128  0.1180  0.1202
48827W        W91739  31.057  27.737   3.578 -0.0621 -0.1056  0.0304
48828W        W91740  29.874  25.862   6.692 -0.1028  0.0439  0.1221
48829W        W91741  30.887  28.399   6.755 -0.1382 -0.0691 -0.2115
48830W        W91742  30.997  27.629   4.985 -0.1953 -0.0575  0.1514
48831W        W91743  29.670  24.656   4.506 -0.0127 -0.0612 -0.0128
48832W        W91744  32.482  25.565   4.719  0.3680  0.1193 -0.2383
48833W        W91745  31.366  28.121   4.992 -0.0439 -0.1658  0.0511
48834W        W91746  28.461  26.558   6.630 -0.1342  0.0777 -0.2603
48835W        W91747  30.317  26.398   4.505 -0.2305 -0.3589 -0.1480
48836W        W91748  29.993  27.755   5.237 -0.0450 -0.0090  0.0246
48837W        W91749  30.281  27.074   6.365 -0.2749  0.0859  0.0894
48838W        W91750  31.490  27.263   5.848 -0.5356 -0.2936  0.0865
48839W        W91751  30.121  25.873   2.654 -0.0725 -0.0513 -0.1648
48840W        W91752  32.643  28.156   3.295  0.0687 -0.0491 -0.1393
48841W        W91753  30.142  28.906   6.084  0.0527 -0.4051 -0.1846
48842W        W91754  31.710  29.526   7.236  0.1241 -0.2268 -0.0522
48843W        W91755  32.025  28.782   6.504 -0.5937 -0.0345  0.0050
48844W        W91756  32.343  27.525   5.746 -0.1641  0.1161 -0.0185
48845W        W91757  29.740  25.532   7.041 -0.2122  0.1655 -0.3162
48846W        W91758  30.007  27.180   3.910 -0.1949 -0.0186 -0.2299
48847W        W91759  29.709  27.292   4.639  0.0046 -0.1215 -0.0194
48848W        W91760  31.196  26.486   5.878  0.0341  0.1212  0.2000
48849W        W91761  30.146  27.608   4.737 -0.1535  0.0969 -0.0849
48850W        W91762  30.620  24.648   4.399  0.1769  0.0934 -0.2021
48851W        W91763  30.002  28.727   7.040 -0.0303  0.0041 -0.0012
48852W        W91764  30.491  27.683   5.747  0.2927  0.0579  0.0431
48853W        W91765  31.451  26.166   9.968  0.2340  0.0802  0.0329
48854W        W91766  29.036  27.760   7.147 -0.0405  0.0998 -0.1948
48855W        W91767  31.585  26.023   6.668 -0.3117  0.0785 -0.1284
48856W        W91768  31.673  27.361   8.239  0.1397  0.1365 -0.0080
48857W        W91769  29.269  24.757   8.538 -0.2502 -0.0678  0.3193
48858W        W91770  30.544  29.757   7.724  0.7867 -0.0742 -0.0238
48859W        W91771  31.522  26.897   9.596  0.0656 -0.2805 -0.0435
48860W        W91772  33.255  28.319   8.237 -0.2947 -0.0568  0.0036
48861W        W91773  32.055  27.334   7.624 -0.2771 -0.4297 -0.1630
48862W        W91774  30.811  26.018   8.858 -0.1028  0.3253  0.1194
48863W        W91775  30.334  25.987   8.570  0.2870  0.1563  0.3358
48864W        W91776  27.737  24.269   9.587 -0.0655  0.0126 -0.1228
48865W        W91777  32.215  27.461   9.411 -0.0043  0.0031 -0.0008
48866W        W91778  27.201  25.747   8.929 -0.0119  0.1613  0.2202
48867W        W91779  29.013  26.445   8.360  0.0895  0.2565 -0.0221
48868W        W91780  30.187  26.439   8.367 -0.0304 -0.2315 -0.2690
48869W        W91781  29.810  28.716   8.327  0.0928  0.0304  0.2153
48870W        W91782  30.169  27.377   8.381  0.1482  0.0051  0.1240
48871W        W91783  29.622  27.024   7.017 -0.2794 -0.4412 -0.0394
48872W        W91784  29.500  26.514   7.116 -0.2624 -0.0543 -0.2841
48873W        W91785  29.370  25.453   9.326 -0.2216 -0.0449  0.2627
48874W        W91786  29.933  26.829   9.756  0.0196 -0.0066  0.1413
48875W        W91787  32.098  26.870   9.565  0.0611 -0.1897 -0.2201
48876W        W91788  32.947  28.025   9.754  0.1597 -0.4394  0.0473
48877W        W91789  31.239  27.934   9.215  0.1669  0.0919  0.1712
48878W        W91790  31.509  29.048   7.215  0.1243  0.1552  0.1301
48879W        W91791  27.706  26.383   8.552  0.1605 -0.2100 -0.0609
48880W        W91792  27.884  28.880   8.885 -0.1748  0.3312  0.1481
48881W        W91793  29.504  27.692   6.935 -0.0062  0.2876  0.3124
48882W        W91794  31.529  26.990   7.962  0.4360 -0.3463  0.1329
48883W        W91795  28.606  28.041   7.039 -0.1154  0.1059  0.1058
48884W        W91796  29.139  25.497   9.870  0.2246 -0.2554 -0.1410
48885W        W91797  30.798  26.712   9.555  0.1220  0.0403  0.0171
48886W        W91798  28.174  28.247   8.296 -0.0232 -0.0105 -0.3641
48887W        W91799  30.302  27.879   8.081 -0.1044  0.0979  0.2711
48888W        W91800  28.543  28.174   8.625 -0.3040 -0.4140 -0.1163
48889W        W91801  28.502  27.180   8.552 -0.0957 -0.2864 -0.0218
48890W        W91802  31.554  25.828   7.225  0.3148 -0.0540  0.3324
48891W        W91803  30.990  26.472   7.179 -0.0855 -0.1074 -0.1390
48892W        W91804  32.538  26.031   7.202  0.0228 -0.1297  0.1665
48893W        W91805  31.459  25.717   7.754 -0.0357 -0.1833  0.3316
48894W        W91806  28.107  28.760   9.274  0.1600 -0.0279 -0.1324
48895W        W91807  30.287  26.725   9.252 -0.1094  0.0278 -0.3495
48896W        W91808  30.682  27.521   8.197  0.0807  0.1171 -0.2882
48897W        W91809  30.809  26.399   9.214  0.0396  0.0704 -0.1054
48898W        W91810  28.374  28.583   8.856 -0.3114 -0.0180  0.1347
48899W        W91811  27.485  26.275   8.063 -0.0829 -0.4130  0.2498
48900W        W91812  30.835  29.368   6.308 -0.2150 -0.1774  0.4429
48901W        W91813  32.212  28.078   8.195  0.0286 -0.0106  0.0820
48902W        W91814  29.834  28.463   7.442  0.1784  0.0334  0.1560
48903W        W91815  27.590  25.280   9.406 -0.0168 -0.1799  0.0879
48904W        W91816  30.109  25.378   7.655  0.2927 -0.0577 -0.1779
48905W        W91817  31.995  25.706   7.843 -0.0100 -0.0109 -0.0293
48906W        W91818  30.941  28.022   9.618 -0.1102  0.1257 -0.0970
48907W        W91819  31.073  27.019   9.341  0.1618  0.0370  0.1918
48908W        W91820  31.842  27.892   6.868 -0.0687  0.1426 -0.0872
48909W        W91821  32.153  25.655   8.820 -0.1577  0.3612 -0.1552
48910W        W91822  31.215  23.327  10.084  0.1305 -0.1144 -0.1474
48911W        W91823  28.844  27.382   6.410 -0.0918  0.1346 -0.4174
48912W        W91824  31.209  27.836   7.661  0.1897  0.0861 -0.1324
48913W        W91825  31.678  29.111   9.296  0.5118  0.0242 -0.1065
48914W        W91826  32.126  26.425   6.520 -0.0584  0.1537  0.3208
48915W        W91827  28.593  28.440   8.036  0.1064 -0.0396  0.1897
48916W        W91828  29.608  28.640   6.515 -0.1363 -0.2023 -0.0813
48917W        W91829  28.577  25.353   9.027  0.3057  0.2137  0.0122
48918W        W91830  29.428  27.738   7.792  0.1131  0.1616 -0.1723
48919W        W91831  27.792  24.787   8.529  0.0227 -0.1007 -0.2929
48920W        W91832  29.826  28.114   9.119  0.2220  0.1686 -0.0198
48921W        W91833  31.902  26.155   7.593 -0.0383  0.0767  0.1906
48922W        W91834  31.635  25.894   9.512  0.2452 -0.1174  0.2670
48923W        W91835  30.516  27.462   7.035  0.1422  0.0822  0.1805
48924W        W91836  31.493  28.622   8.686 -0.0866  0.0388  0.0532
48925W        W91837  31.160  26.621   7.680  0.0227  0.2579  0.1374
48926W        W91838  31.431  28.791   6.601 -0.0176  0.0084 -0.0040
48927W        W91839  28.361  27.792   9.556  0.0625 -0.0632 -0.3168
48928W        W91840  29.986  26.107   7.812 -0.1599  0.2100 -0.0791
48929W        W91841  29.356  26.006   9.602 -0.2094  0.0909 -0.3233
48930W        W91842  30.029  24.879   7.540 -0.2495 -0.3155  0.1394
48931W        W91843  32.623  27.765   9.467  0.0458  0.2089 -0.1252
48932W        W91844  30.768  27.158   8.612  0.3289 -0.4583 -0.0900
48933W        W91845  28.165  27.048   8.104  0.0282  0.1695  0.1558
48934W        W91846  29.364  29.049   8.239  0.0659 -0.2206  0.0622
48935W        W91847  33.082  28.420   9.457  0.2812 -0.1784 -0.1263
48936W        W91848  30.779  29.230   8.279 -0.0496  0.0532 -0.3459
48937W        W91849  30.262  27.159   7.910  0.1876 -0.0067  0.6271
48938W        W91850  29.236  26.151   6.922  0.0900 -0.1020 -0.1197
48939W        W91851  29.926  29.533   7.609  0.0220 -0.3651  0.0368
48940W        W91852  28.997  27.131   8.456  0.1142  0.0181  0.0725
48941W        W91853  30.503  26.584   6.735  0.2697 -0.1913  0.2206
48942W        W91854  31.251  30.115   9.153 -0.4036  0.2041  0.3046
48943W        W91855  31.057  27.630   8.597  0.1285  0.1418  0.0057
48944W        W91856  31.908  26.730   9.037  0.2257  0.5376 -0.0850
48945W        W91857  31.226  25.778   8.685 -0.0258  0.1157 -0.0470
48946W        W91858  29.735  25.743   7.598  0.0653  0.0995  0.2206
48947W        W91859  32.099  29.745   8.679 -0.1506 -0.0824 -0.1007
48948W        W91860  29.371  27.990   8.231  0.2361  0.2840 -0.1040
48949W        W91861  27.930  27.077   7.071 -0.2775 -0.2364  0.1045
48950W        W91862  29.606  28.352   8.706  0.1776  0.0973 -0.0758
48951W        W91863  31.545  27.544   8.735 -0.1500 -0.2561  0.0440
48952W        W91864  28.414  26.657   7.856 -0.1552 -0.1111 -0.3157
48953W        W91865  32.437  26.160  10.243  0.2837 -0.1537  0.0388
48954W        W91866  32.342  26.449   9.431  0.0942 -0.1981  0.4617
48955W        W91867  30.750  27.996   7.654  0.0312  0.1457 -0.2237
48956W        W91868  30.654  26.936   7.044  0.2586  0.0769 -0.0280
48957W        W91869  31.928  25.609   6.870 -0.2239  0.0339  0.3005
48958W        W91870  30.301  28.176   8.972 -0.2623 -0.0615 -0.1274
48959W        W91871  30.273  26.062   9.056  0.1482 -0.0874 -0.0609
48960W        W91872  29.442  25.983   8.476  0.0543 -0.2213  0.1908
48961W        W91873  31.421  28.699   8.212  0.4024  0.0323  0.0121
48962W        W91874  28.158  26.400   9.243  0.2798  0.0954 -0.2589
48963W        W91875  32.417  27.751  10.008 -0.1244 -0.3391  0.1148
48964W        W91876  30.525  27.716   8.653 -0.0853  0.1578  0.0671
48965W        W91877  29.391  27.416   7.369 -0.0656 -0.1077 -0.0791
48966W        W91878  31.590  27.945   9.726  0.1181  0.1375 -0.4467
48967W        W91879  27.925  28.094   6.746  0.0903  0.1328  0.2119
48968W        W91880  34.337  24.782   9.903  0.0991  0.1283  0.2617
48969W        W91881  31.297  27.590   9.564  0.2884  0.1001  0.4316
48970W        W91882  31.179  27.445   8.153 -0.1180 -0.2738 -0.0908
48971W        W91883  31.255  27.142   8.583  0.0866  0.1404  0.3437
48972W        W91884  29.681  26.498   7.538  0.1081 -0.0271  0.0921
48973W        W91885  30.319  25.607   9.576  0.3027  0.1212 -0.1150
48974W        W91886  28.006  27.566   9.263 -0.1401 -0.1338 -0.2949
48975W        W91887  31.625  27.895   8.216 -0.2175  0.2567 -0.0590
48976W        W91888  31.337  26.161   7.534  0.0354  0.0623 -0.2451
48977W        W91889  30.187  27.531   6.653  0.0745  0.0267 -0.0519
48978W        W91890  31.047  26.790   6.768  0.0495  0.1199 -0.0249
48979W        W91891  29.089  26.712   8.784  0.3229 -0.0916 -0.1749
48980W        W91892  30.170  27.488   9.024  0.0051  0.0171 -0.0137
48981W        W91893  29.412  28.025   5.788  0.2225 -0.2404 -0.0296
48982W        W91894  29.938  26.453   8.867 -0.1139  0.2830 -0.1647
48983W        W91895  29.942  27.453   7.180  0.2510 -0.1017 -0.1590
48984W        W91896  34.495  25.587   9.389  0.1759 -0.2041 -0.1597
48985W        W91897  28.980  27.718   8.055  0.0948 -0.0726  0.0780
48986W        W91898  30.644  26.241   7.582 -0.1642 -0.0346  0.0976
48987W        W91899  28.946  26.484   7.870  0.0029  0.4209  0.2283
48988W        W91900  31.919  26.647   8.122 -0.0507  0.1250  0.2118
48989W        W91901  30.785  28.101   7.146  0.2784  0.2393 -0.3523
48990W        W91902  28.971  24.544   9.326  0.2414 -0.1661  0.1943
48991W        W91903  29.866  27.127   9.131  0.0368  0.3170 -0.2511
48992W        W91904  28.906  26.532   9.810 -0.1700  0.1302 -0.2038
48993W        W91905  32.600  26.057   6.666 -0.0546  0.6910 -0.0016
48994W        W91906  28.291  26.440   7.347 -0.0154 -0.4909 -0.2178
48995W        W91907  30.032  27.887   8.647  0.1193  0.1412  0.0769
48996W        W91908  30.307  26.628   7.851  0.3350 -0.0922 -0.3859
48997W        W91909  28.795  28.863   8.396 -0.1346 -0.0114 -0.0080
48998W        W91910  31.681  28.637   9.204 -0.0437 -0.0379  0.1766
48999W        W91911  29.507  26.480   8.534 -0.2190 -0.2582 -0.1722
49000W        W91912  28.385  27.311   7.152  0.3838 -0.0679 -0.1668
49001W        W91913  32.518  27.527   9.042 -0.0819 -0.1940  0.1540
49002W        W91914  31.088  25.987   9.587  0.0834 -0.1210 -0.2803
49003W        W91915  31.580  25.175   9.985  0.1949 -0.0204  0.1425
49004W        W91916  31.278  26.105   9.125 -0.0315  0.1316 -0.3068
49005W        W91917  29.656  26.706   9.315  0.2714  0.0401  0.0600
49006W        W91918  31.810  26.584   9.939  0.1543  0.2547 -0.4520
49007W        W91919  31.200  26.434   9.512  0.2118  0.0527 -0.0345
49008W        W91920  32.769  29.846   8.496  0.0913 -0.0652  0.4498
49009W        W91921  29.364  27.183   9.176 -0.0215 -0.4767 -0.0437
49010W        W91922  29.672  27.620   9.170  0.0923 -0.0205  0.2544
49011W        W91923  30.825  28.081   8.777 -0.1611 -0.2651 -0.2047
49012W        W91924  33.810  26.142  10.301  0.3877  0.0488  0.2796
49013W        W91925  29.239  26.844   9.564  0.0285 -0.0085 -0.0218
49014W        W91926  29.864  28.245   8.171 -0.1649  0.1496  0.2071
49015W        W91927  29.056  26.451   9.226 -0.3834  0.0690 -0.3988
49016W        W91928  33.005  26.301   6.876 -0.2025 -0.3701  0.0559
49017W        W91929  30.683  28.748   7.074 -0.1239 -0.1733  0.0867
49018W        W91930  29.619  26.424   9.766  0.2314 -0.4056 -0.1205
49019W        W91931  31.568  27.523   7.753  0.0475 -0.2448  0.0326
49020W        W91932  27.751  26.739   9.516  0.2715 -0.0698 -0.0666
49021W        W91933  32.114  27.069   8.073 -0.0800  0.3260  0.2032
49022W        W91934  31.933  26.395   8.544  0.3081 -0.1285  0.0959
49023W        W91935  29.668  26.039   7.167  0.3900 -0.1402  0.2071
49024W        W91936  32.748  27.967   8.939 -0.1779 -0.1720 -0.0888
49025W        W91937  31.093  28.377   8.446 -0.1229  0.3798 -0.0594
49026W        W91938  29.343  28.460   8.291  0.0394  0.0719  0.1317
49027W        W91939  32.517  27.129   9.672  0.0588 -0.0606  0.2216
49028W        W91940  30.783  26.875   8.988  0.2347  0.1820 -0.1176
49029W        W91941  31.730  26.087   8.125  0.0157 -0.1484 -0.1869
49030W        W91942  30.840  27.048   8.097 -0.2981  0.0904  0.2105
49031W        W91943  30.130  26.032   7.319 -0.0674 -0.1385 -0.0944
49032W        W91944  32.266  27.028   9.087  0.0255  0.0236 -0.0584
49033W        W91945  32.889  25.361   8.797 -0.3109  0.4973 -0.1672
49034W        W91946  30.527  30.162   9.124 -0.3511  0.0301  0.0186
49035W        W91947  31.599  26.497   6.768 -0.2197  0.0849  0.1969
49036W        W91948  33.391  26.996   9.369 -0.4346  0.0908  0.3612
49037W        W91949  31.617  26.495   7.808 -0.1145 -0.2821 -0.0080
49038W        W91950  31.511  27.015   6.953  0.0107 -0.2760 -0.1664
49039W        W91951  28.226  25.384   7.968  0.2030  0.1012  0.0855
49040W        W91952  30.419  25.790   6.720  0.0737 -0.1548  0.1884
49041W        W91953  29.789  29.173   8.005  0.1731 -0.0256 -0.0921
49042W        W91954  31.155  27.673   9.982 -0.2138 -0.0269 -0.3242
49043W        W91955  31.824  25.187   7.105 -0.0996 -0.1316  0.0210
49044W        W91956  28.409  25.507   8.497  0.0419  0.2633  0.0506
49045W        W91957  28.850  25.692   5.984 -0.3500  0.3524  0.1892
49046W        W91958  30.725  26.792   7.593  0.0444  0.2008 -0.1388
49047W        W91959  29.795  27.004   7.588  0.0924  0.2252 -0.1761
49048W        W91960  30.987  25.039   7.601 -0.1542 -0.0345 -0.0314
49049W        W91961  27.909  28.384   7.640  0.2448  0.3555  0.0019
49050W        W91962  31.335  26.568   8.200 -0.2183 -0.2847 -0.2384
49051W        W91963  29.355  29.524   8.102 -0.0354  0.0956 -0.0081
49052W        W91964  28.756  26.988   9.581  0.1786 -0.0168  0.0587
49053W        W91965  31.744  26.166   9.014 -0.1870 -0.0598  0.2513
49054W        W91966  32.087  26.159   9.886  0.2779 -0.1032 -0.0066
49055W        W91967  30.517  26.251   9.585 -0.0170  0.0587 -0.2665
49056W        W91968  29.809  27.719   8.228  0.1930 -0.0057  0.2981
49057W        W91969  31.678  26.990   7.449  0.0311 -0.0263 -0.1156
49058W        W91970  28.578  27.368   8.127 -0.2020 -0.0051  0.2249
49059W        W91971  31.628  27.108   9.063 -0.2419  0.3246 -0.0209
49060W        W91972  29.152  25.583   7.821  0.2081 -0.1147 -0.0797
49061W        W91973  30.325  27.115   7.395  0.0323 -0.2652 -0.1303
49062W        W91974  29.335  28.132   9.164  0.1891  0.3170 -0.0866
49063W        W91975  29.089  29.765   7.698 -0.3093 -0.0248 -0.0527
49064W        W91976  30.634  28.524   8.749  0.3263  0.0656  0.0198
49065W        W91977  30.349  27.793   7.352  0.0056  0.0161 -0.2733
49066W        W91978  30.217  27.191   9.500 -0.0400 -0.4324  0.1919
49067W        W91979  29.533  26.884   8.835  0.1259  0.1521 -0.1117
49068W        W91980  29.130  29.438   9.121 -0.1763  0.2571  0.1351
49069W        W91981  27.738  28.248   8.104  0.0555  0.3386  0.2627
49070W        W91982  31.711  29.540   8.420 -0.1136  0.3820 -0.1606
49071W        W91983  28.639  29.455   9.201 -0.1625 -0.1526  0.2898
49072W        W91984  31.258  25.145   6.147 -0.2451  0.0699 -0.2735
49073W        W91985  32.781  27.020   9.179 -0.1251  0.0913  0.2806
49074W        W91986  32.613  26.079   9.196 -0.0491  0.1203 -0.1239
49075W        W91987  30.106  28.411   8.588  0.2428  0.0630 -0.2369
49076W        W91988  30.546  26.466   8.760  0.1337  0.3604 -0.0305
49077W        W91989  31.863  28.297   7.184 -0.0328 -0.0552 -0.1577
49078W        W91990  28.992  25.943   8.161  0.0754 -0.0984 -0.1068
49079W        W91991  28.606  26.697   8.454 -0.0432  0.3956 -0.3182
49080W        W91992  34.221  24.224   9.255 -0.1278 -0.1982  0.1307
49081W        W91993  30.853  27.620   7.308 -0.0214 -0.1572 -0.0384
49082W        W91994  30.536  28.839   9.457 -0.0851  0.2052 -0.2876
49083W        W91995  29.517  27.829   8.683  0.2157  0.0301 -0.0391
49084W        W91996  29.194  28.322   9.613 -0.0178 -0.2436  0.2780
49085W        W91997  30.173  28.187   9.472 -0.1258 -0.2677 -0.0888
49086W        W91998  28.043  25.948   7.308 -0.2213  0.4122  0.3081
49087W        W91999  32.554  27.094   7.755  0.0100 -0.3100  0.2669
49088W        W92000  27.227  26.483   9.477 -0.0183  0.1961  0.0120
49089W        W92001  28.833  27.245   9.007  0.0761 -0.1202 -0.1380
49090W        W92002  32.771  26.785   7.432  0.2812  0.2727  0.1220
49091W        W92003  30.552  28.208   8.363  0.1626 -0.1099  0.0866
49092W        W92004  28.654  24.733   8.689 -0.1395  0.2268  0.0801
49093W        W92005  31.007  27.229   7.673  0.0516  0.2199 -0.0614
49094W        W92006  31.365  27.353   7.328  0.1374 -0.0041 -0.0680
49095W        W92007  29.385  25.336   7.379  0.0040  0.0060  0.0043
49096W        W92008  32.182  25.611   7.358  0.0368 -0.0119  0.1817
49097W        W92009  28.860  26.948   8.010 -0.0683  0.2128 -0.2752
49098W        W92010  30.626  27.346   9.081  0.0082 -0.0013  0.0464
49099W        W92011  29.741  24.877   8.319  0.1365 -0.3370  0.1222
49100W        W92012  31.105  29.608   8.221  0.2838  0.0683  0.0269
49101W        W92013  30.955  26.711   8.520 -0.1016  0.1383 -0.1876
49102W        W92014  30.527  27.498   7.683  0.0211  0.1679 -0.2068
49103W        W92015  30.261  28.263   7.188 -0.0638  0.0766  0.0207
49104W        W92016  31.065  28.846   8.605 -0.4463  0.2497 -0.0880
49105W        W92017  27.968  24.845   9.522  0.1106  0.0243  0.1183
49106W        W92018  32.562  28.627   9.335 -0.0131 -0.3276 -0.1465
49107W        W92019  32.480  26.533   8.453 -0.0591  0.2681  0.0841
49108W        W92020  31.288  25.904   8.190  0.3075  0.0750 -0.3123
49109W        W92021  29.807  27.274   8.040 -0.2688  0.1679 -0.1642
49110W        W92022  27.751  28.504   8.539  0.2096  0.1264  0.0223
49111W        W92023  32.277  26.650  10.010  0.0064  0.2778  0.0677
49112W        W92024  29.077  28.234   7.030  0.0220  0.0083  0.4216
49113W        W92025  29.311  28.766   8.654  0.1394 -0.1944 -0.2483
49114W        W92026  29.297  27.273   7.903 -0.2634  0.0882  0.1405
49115W        W92027  29.946  27.672   7.719  0.3569 -0.0394 -0.1016
49116W        W92028  28.452  29.053   8.796  0.0911 -0.0092 -0.3196
49117W        W92029  32.893  28.520   8.974 -0.1930 -0.2890 -0.2319
49118W        W92030  30.731  26.534   8.041  0.0118  0.1316  0.0550
49119W        W92031  33.513  27.680   8.838  0.0426 -0.3323 -0.0432
49120W        W92032  31.122  25.585   9.249 -0.1942 -0.1678 -0.0416
49121W        W92033  32.507  24.309   8.472 -0.0371  0.1003 -0.0984
49122W        W92034  31.406  26.275   8.631  0.0698 -0.1216  0.0476
49123W        W92035  29.338  27.499   8.361  0.0198  0.1498  0.1234
49124W        W92036  27.390  26.706   7.823  0.2469 -0.1153 -0.2745
49125W        W92037  29.415  28.179   6.613  0.4136 -0.0557 -0.2977
49126W        W92038  28.641  26.089   8.482 -0.3203 -0.0567  0.2686
49127W        W92039  28.495  26.074   9.393 -0.0112 -0.2221  0.2657
49128W        W92040  29.842  25.897   8.792  0.2952  0.0885  0.0743
49129W        W92041  31.778  28.149   9.153 -0.1242 -0.1536  0.3559
49130W        W92042  28.845  25.146   8.544  0.4658  0.0801  0.3136
49131W        W92043  27.882  24.501   9.190  0.2418 -0.0895 -0.0599
49132W        W92044  30.962  28.730   8.082 -0.0050  0.1922 -0.1768
49133W        W92045  30.650  28.326   9.269  0.0142  0.0123  0.2880
49134W        W92046  30.923  26.216   8.429 -0.1914 -0.0597 -0.0683
49135W        W92047  29.342  26.729   7.867 -0.2003 -0.2179 -0.1205
49136W        W92048  29.020  25.886   7.259 -0.3113 -0.0057 -0.1159
49137W        W92049  31.653  26.816   8.550 -0.3705 -0.3476  0.0143
49138W        W92050  30.378  29.221   9.104  0.0788 -0.2023  0.3280
49139W        W92051  31.329  29.162   8.099  0.0406  0.1165  0.0795
49140W        W92052  27.494  24.573   8.835 -0.1382  0.2770  0.0712
49141W        W92053  32.019  27.352   8.812  0.2918  0.3119  0.0393
49142W        W92054  31.230  28.634   7.084  0.0557  0.3732  0.2701
49143W        W92055  33.247  25.365   9.229  0.1862  0.1650  0.1242
49144W        W92056  30.423  26.855   8.333 -0.0134 -0.1024  0.0970
49145W        W92057  31.167  28.400   9.039  0.1435 -0.0839 -0.0591
49146W        W92058  27.825  24.210   8.589 -0.0108 -0.0789 -0.1228
49147W        W92059  31.093  25.409   8.015 -0.1543 -0.1816  0.2772
49148W        W92060  29.975  29.025   7.496  0.0637 -0.1501  0.2444
49149W        W92061  29.603  25.063   9.494 -0.0883  0.1767 -0.0537
49150W        W92062  31.025  27.891   8.200  0.0687 -0.0458 -0.4838
49151W        W92063  31.358  28.007   8.711 -0.0257 -0.1389 -0.2177
49152W        W92064  29.775  26.625   8.079  0.0164 -0.0648 -0.1184
49153W        W92065  32.250  28.614   8.219 -0.1918  0.0532 -0.0473
49154W        W92066  32.231  27.927   9.102  0.1855  0.0790 -0.3317
49155W        W92067   0.001  26.895   7.771  0.0224  0.0780 -0.2477
49156W        W92068  32.697  26.971   8.276 -0.1536 -0.4033  0.0330
49157W        W92069  28.211  24.312   8.216  0.0583  0.1761 -0.1875
49158W        W92070  30.434  26.483   7.204  0.1048 -0.1067  0.0195
49159W        W92071  30.136  28.681   7.888 -0.0873  0.1640  0.1828
49160W        W92072  31.854  25.586   9.775 -0.3081  0.0225 -0.0188
49161W        W92073  29.001  24.983   9.043 -0.0431  0.0295  0.3145
49162W        W92074  32.165  23.733   7.275  0.0337  0.0136  0.2011
49163W        W92075  30.097  27.650   9.492  0.0988  0.0341 -0.1100
49164W        W92076  32.952  26.490   9.332 -0.1496 -0.0791  0.1125
49165W        W92077  29.680  32.065   3.967  0.1697 -0.1508  0.2558
49166W        W92078  29.689  30.629   1.695  0.2618  0.0333 -0.0390
49167W        W92079  31.590  30.672  31.805  0.1333  0.0130  0.0412
49168W        W92080  32.532  30.501  31.928  0.2878  0.1354  0.0911
49169W        W92081  29.462  30.170   1.566 -0.0018 -0.1157 -0.0565
49170W        W92082  32.344  32.622  31.514 -0.0841  0.0252 -0.1887
49171W        W92083  29.948  29.188   2.657  0.2570 -0.1824 -0.1338
49172W        W92084  32.351  32.055   1.866 -0.1241 -0.1716  0.0747
49173W        W92085  32.017  32.525   1.144 -0.2913  0.1153 -0.2710
49174W        W92086  31.884  31.224   0.703 -0.0497 -0.1862 -0.0791
49175W        W92087  28.441  29.823   1.959 -0.0839  0.1394 -0.4274
49176W        W92088  30.568  31.791   3.924  0.1080  0.3043  0.0999
49177W        W92089  28.828  29.352   0.783 -0.0322 -0.1313 -0.1942
49178W        W92090  28.511  28.861   0.635 -0.2220 -0.4696 -0.0209
49179W        W92091  30.799  29.177   2.515 -0.0773  0.2543 -0.2300
49180W        W92092  28.098  32.337   1.385  0.0985  0.0107 -0.2834
49181W        W92093  29.137  31.450   2.862 -0.0507 -0.2055  0.0224
49182W        W92094  28.987  29.877   1.736 -0.0487 -0.0562 -0.4250
49183W        W92095  30.411  31.999   2.197  0.1043 -0.1031 -0.0953
49184W        W92096  29.455  30.761   3.451 -0.0370  0.0927 -0.0667
49185W        W92097  30.986  28.693   2.647 -0.0176  0.2212 -0.0748
49186W        W92098  30.699  31.820   1.697  0.1766  0.0334 -0.0642
49187W        W92099  29.939  31.583  31.325  0.0242 -0.0574 -0.0294
49188W        W92100  28.949  31.506   2.335  0.0133  0.3591 -0.1300
49189W        W92101  28.379  30.839   1.978 -0.2867 -0.0513  0.0328
49190W        W92102  30.212  29.683   1.964  0.1815  0.0623  0.2287
49191W        W92103  31.048  31.276   2.778  0.2504  0.0557 -0.2777
49192W        W92104  29.715  33.222   0.861 -0.0929  0.0269  0.2413
49193W        W92105  29.626  31.769   0.660 -0.0954  0.1168  0.0651
49194W        W92106  30.685  30.405   3.959 -0.1334  0.0074  0.0767
49195W        W92107  29.032  32.022   2.308  0.3820  0.2507 -0.1192
49196W        W92108  30.257  33.141   0.152  0.0099 -0.1900 -0.1504
49197W        W92109  30.272  32.410   0.896 -0.2396 -0.0898  0.0440
49198W        W92110  32.603  31.561   1.910 -0.2764  0.3102  0.0507
49199W        W92111  31.941  32.600   3.366 -0.0751 -0.0108  0.0189
49200W        W92112  29.127  33.526   4.055 -0.0357 -0.3461 -0.2263
49201W        W92113  28.945  33.211  31.181 -0.4032  0.0579  0.2496
49202W        W92114  31.737  31.411   3.920 -0.0140  0.1678  0.1186
49203W        W92115  28.808  32.998   3.198  0.1118  0.0564  0.0704
49204W        W92116  30.743  30.908   3.752 -0.0447 -0.0995 -0.0246
49205W        W92117  30.470  30.860  31.735 -0.1610 -0.4744 -0.0257
49206W        W92118  30.935  33.503  31.839 -0.1703 -0.1020 -0.1090
49207W        W92119  30.862  30.991   0.541  0.3678 -0.4928 -0.0748
49208W        W92120  29.698  31.602   3.976 -0.2537  0.0839  0.0361
49209W        W92121  29.448  31.771   3.025  0.2384  0.5835  0.1128
49210W        W92122  32.522  29.702   2.277 -0.1387 -0.2024  0.0388
49211W        W92123  29.213  32.389   0.371  0.0069 -0.1084  0.0193
49212W        W92124  32.128  29.358  30.747  0.0854  0.2008  0.0542
49213W        W92125  28.681  30.723   0.128 -0.1776  0.0300 -0.1006
49214W        W92126  31.113  31.490   0.691 -0.2597 -0.2451  0.1280
49215W        W92127  29.913  28.184   1.766 -0.0629  0.0811 -0.1333
49216W        W92128  30.334  32.461   1.929 -0.3501 -0.0057  0.2595
49217W        W92129  29.581  30.209   4.132 -0.0188 -0.1119  0.3223
49218W        W92130  30.985  30.905   4.194 -0.0065 -0.1760  0.3097
49219W        W92131  30.540  31.351   1.469 -0.0252  0.0177 -0.2117
49220W        W92132  30.220  29.820   2.608  0.2650 -0.1224  0.1241
49221W        W92133  29.965  32.532   2.833 -0.0089  0.1460 -0.1684
49222W        W92134  29.338  30.958   1.018 -0.1107 -0.2086 -0.0964
49223W        W92135  32.981  32.212   0.168 -0.2363  0.0039 -0.1985
49224W        W92136  33.981  31.668   1.336 -0.0730 -0.1966 -0.1756
49225W        W92137  31.521  31.385   0.403  0.1126  0.5010  0.1442
49226W        W92138  30.406  32.526  31.384  0.1380  0.2647 -0.1593
49227W        W92139  29.806  29.485   2.277  0.2509 -0.2719 -0.1367
49228W        W92140  29.043  30.520   3.261  0.3456  0.1191 -0.1530
49229W        W92141  27.091  29.744   0.873 -0.0825  0.0626 -0.1335
49230W        W92142  32.103  32.132   3.443 -0.0260 -0.1858  0.0321
49231W        W92143  30.496  32.503   2.881 -0.0400  0.0780  0.1913
49232W        W92144  31.550  29.800   1.274  0.1574  0.2362  0.3235
49233W        W92145  30.269  31.426   1.984  0.3297 -0.1551  0.2555
49234W        W92146  31.961  32.384   1.992 -0.1031  0.1061  0.1178
49235W        W92147  31.751  30.015   0.003  0.0972 -0.0720  0.5482
49236W        W92148  30.927  30.353   1.653  0.2713  0.1490 -0.5175
49237W        W92149  31.281  29.644   2.846  0.1997  0.0019  0.1974
49238W        W92150  28.363  32.426   0.017  0.1613 -0.1871 -0.0420
49239W        W92151  29.810  32.748   0.074 -0.1889  0.4942  0.0551
49240W        W92152  32.038  33.288   1.983 -0.2169  0.0113 -0.1099
49241W        W92153  32.255  30.612   0.514 -0.0751 -0.0980  0.0821
49242W        W92154  29.801  32.728   1.844  0.1091 -0.1030 -0.0745
49243W        W92155  29.898  30.589   2.203 -0.0910 -0.0627  0.1980
49244W        W92156  30.759  31.676   5.465  0.0431  0.0075  0.3079
49245W        W92157  30.276  32.551   1.383  0.0588  0.0562 -0.3463
49246W        W92158  29.225  31.540   1.571  0.0108 -0.4449  0.2566
49247W        W92159  28.666  32.139   1.015  0.0592  0.0326 -0.1914
49248W        W92160  27.872  30.330   3.252 -0.2772  0.1168 -0.0333
49249W        W92161  29.479  31.470   1.059 -0.1674 -0.0320  0.1489
49250W        W92162  31.405  29.887   0.411  0.0983  0.0058 -0.0979
49251W        W92163  27.958  30.617   1.901  0.2609 -0.1147 -0.0031
49252W        W92164  31.686  29.241   2.559 -0.0286  0.0527 -0.1966
49253W        W92165  29.681  32.464   0.819  0.0628 -0.0930 -0.1684
49254W        W92166  30.265  31.086   2.385  0.0837 -0.0525  0.1791
49255W        W92167  32.424  29.898   0.126  0.2153  0.0523 -0.1898
49256W        W92168  32.017  32.103   0.863 -0.3234 -0.1800  0.0704
49257W        W92169  28.001  31.091   1.655 -0.2844  0.0895  0.1684
49258W        W92170  29.014  31.338   1.146  0.0158  0.0994 -0.0524
49259W        W92171  30.811  30.309   2.636  0.2389  0.2942 -0.0347
49260W        W92172  28.959  29.352   2.152 -0.0433 -0.2070 -0.0186
49261W        W92173  29.990  31.031   3.167  0.0076  0.2113  0.1484
49262W        W92174  28.757  29.929   0.077  0.0924 -0.1295  0.0548
49263W        W92175  30.724  29.755   2.826  0.4249  0.4493  0.0766
49264W        W92176  29.530  31.222   0.610 -0.0481 -0.1744 -0.1252
49265W        W92177  29.868  32.081   0.954  0.2087  0.0228  0.0762
49266W        W92178  30.995  30.092   2.084 -0.0332  0.1299 -0.1078
49267W        W92179  31.657  33.494   0.441 -0.1419 -0.0479 -0.0907
49268W        W92180  32.865  33.299   3.043 -0.1470  0.1303 -0.1642
49269W        W92181  32.256  31.989   2.440  0.1432  0.1202  0.1343
49270W        W92182  30.209  30.187   2.237  0.0121 -0.5117  0.2574
49271W        W92183  28.861  30.311   0.399 -0.1592 -0.0585  0.0063
49272W        W92184  29.745  33.144   1.472 -0.1265  0.3136  0.0583
49273W        W92185  31.336  31.612  31.902  0.0013 -0.1252  0.0695
49274W        W92186  30.954  30.748   0.002 -0.1272  0.0114  0.0362
49275W        W92187  33.501  31.832   1.456  0.1099  0.1689  0.2330
49276W        W92188  30.383  31.374   0.008  0.1850 -0.3512 -0.0455
49277W        W92189  28.603  30.526   4.020  0.0345  0.0744  0.1003
49278W        W92190  31.844  30.880   4.186 -0.0379  0.0759 -0.0977
49279W        W92191  30.917  31.111   3.242  0.1164  0.3331 -0.1417
49280W        W92192  31.002  31.679   1.211  0.0136  0.0170 -0.0678
49281W        W92193  30.476  30.155  31.261 -0.0390 -0.2828  0.1472
49282W        W92194  31.685  32.403   1.566  0.0611  0.3140 -0.2918
49283W        W92195  28.898  32.321  31.897 -0.1668  0.1677  0.0122
49284W        W92196  29.092  31.315   0.164  0.0434  0.0075 -0.0576
49285W        W92197  29.964  31.734   2.208  0.2009  0.1544 -0.2022
49286W        W92198  31.493  30.324   1.246  0.3267 -0.0673 -0.0362
49287W        W92199  29.130  30.448   4.345 -0.2330  0.2404  0.0000
49288W        W92200  30.522  30.182   3.022 -0.0266  0.1080  0.2486
49289W        W92201  29.152  31.033  31.654  0.0658  0.1740 -0.1675
49290W        W92202  29.659  31.448   3.371 -0.1667  0.3661  0.1132
49291W        W92203  31.348  29.372   1.351 -0.1137 -0.3905 -0.3266
49292W        W92204  32.159  29.800  31.738 -0.0233  0.0423  0.0792
49293W        W92205  30.448  32.907   4.815 -0.2529 -0.1588  0.0617
49294W        W92206  30.375  30.604   2.478  0.2016  0.0234  0.4279
49295W        W92207  30.941  30.459   0.508  0.2108 -0.2326 -0.0030
49296W        W92208  31.878  30.969   0.239 -0.3131  0.0067  0.4484
49297W        W92209  29.655  32.779   3.891  0.3780  0.0481 -0.0535
49298W        W92210  31.252  31.448   2.247 -0.0722 -0.1083 -0.1848
49299W        W92211  31.619  31.645   0.835  0.3734 -0.2959  0.2542
49300W        W92212  29.258  30.575   0.503 -0.1146  0.3982 -0.2771
49301W        W92213  31.157  30.693   1.045  0.2471  0.0728  0.0043
49302W        W92214  27.162  31.702   3.009 -0.3217 -0.1622  0.1297
49303W        W92215  31.305  31.637   3.935 -0.2635  0.2630  0.1416
49304W        W92216  31.565  33.014  31.837 -0.0780 -0.3067  0.1037
49305W        W92217  30.054  28.460   3.064  0.2310 -0.1296  0.3301
49306W        W92218  30.632  31.324  30.107 -0.0697  0.0205 -0.0324
49307W        W92219  30.353  29.413   2.377  0.1089 -0.0511 -0.1454
49308W        W92220  29.296  32.095   1.038  0.0009  0.2699 -0.0516
49309W        W92221  29.248  29.679   2.942 -0.1656  0.1686  0.3625
49310W        W92222  29.459  29.195   2.550  0.2346  0.0577 -0.0198
49311W        W92223  30.569  28.772   3.952 -0.0393 -0.0073 -0.0040
49312W        W92224  30.824  31.108   2.362 -0.0233 -0.2401  0.0435
49313W        W92225  31.863  30.194   0.489  0.0161  0.0855 -0.0538
49314W        W92226  30.239  30.809   3.523  0.2400 -0.0708  0.1028
49315W        W92227  28.063  32.248   0.409 -0.0814 -0.1218  0.0814
49316W        W92228  29.639  29.276   3.014 -0.2454 -0.2443 -0.1163
49317W        W92229  29.287  31.225   3.661 -0.2948 -0.2027  0.2883
49318W        W92230  29.764  32.158   1.951  0.0949  0.2478 -0.0656
49319W        W92231  31.852  31.920   4.012 -0.1119  0.3154 -0.0194
49320W        W92232  29.745  30.698   0.608 -0.1538 -0.1743  0.0820
49321W        W92233  31.326  28.484   2.923  0.0371 -0.0429  0.3299
49322W        W92234  30.512  29.726   1.433 -0.0816  0.2810 -0.0231
49323W        W92235  30.703  33.086   0.034  0.1328  0.1029  0.1231
49324W        W92236  30.305  32.046   0.609  0.1122  0.4991 -0.2342
49325W        W92237  28.814  30.654   1.713  0.1258  0.0446 -0.1069
49326W        W92238  29.843  31.743   2.718  0.2007  0.0172 -0.0585
49327W        W92239  30.083  31.643   0.343 -0.1148 -0.2373 -0.0023
49328W        W92240  30.892  31.544   3.641 -0.0654 -0.0405 -0.1685
49329W        W92241  31.153  32.268   0.194  0.1005 -0.1123 -0.0566
49330W        W92242  32.918  29.852   1.863  0.1529  0.1218  0.1100
49331W        W92243  29.972  32.783   1.114  0.2615 -0.1233 -0.0658
49332W        W92244  30.651  30.813   1.357 -0.1777 -0.4046  0.1826
49333W        W92245  28.690  30.048   0.947 -0.0063  0.2069 -0.4141
49334W        W92246  30.806  30.802   2.858  0.0992  0.0978 -0.1063
49335W        W92247  31.633  31.113   1.369 -0.0617  0.0326  0.0386
49336W        W92248  29.045  30.418   0.881 -0.2660 -0.2463  0.4083
49337W        W92249  29.950  30.204   1.802  0.1971  0.2427 -0.2046
49338W        W92250  28.331  33.127   3.109 -0.2892 -0.0690  0.0863
49339W        W92251  31.239  30.734   3.393  0.1670 -0.1682  0.1525
49340W        W92252  32.073  31.405  31.301  0.1513  0.1436 -0.1151
49341W        W92253  32.091  32.998   2.947  0.2105  0.0274  0.1698
49342W        W92254  30.435  31.117   5.068 -0.2313  0.0153  0.0752
49343W        W92255  28.709  30.728  31.530 -0.1484  0.1409  0.3942
49344W        W92256  30.090  32.137   4.222  0.2135  0.1936 -0.1391
49345W        W92257  30.507  30.215   0.588 -0.0848  0.0186 -0.0773
49346W        W92258  30.639  33.087   1.931 -0.2323 -0.1701 -0.0285
49347W        W92259  30.874  31.774   2.573  0.0052  0.2364 -0.1098
49348W        W92260  30.044  30.827  31.450 -0.0121 -0.0654 -0.0160
49349W        W92261  29.892  31.274  31.751 -0.2404 -0.0294 -0.0017
49350W        W92262  29.919  30.470   3.224 -0.0291  0.0589 -0.0036
49351W        W92263  31.785  31.881   2.886 -0.4288  0.0775 -0.2786
49352W        W92264  31.395  30.975   2.968 -0.1018 -0.4637  0.3413
49353W        W92265  30.022  29.897   0.449  0.1159  0.4418 -0.2241
49354W        W92266  29.698  30.355   0.110  0.2712  0.2245  0.1165
49355W        W92267  30.806  31.577   3.110 -0.1941  0.0858  0.0056
49356W        W92268  29.883  31.157   3.704  0.1357  0.0003  0.0013
49357W        W92269  29.610  32.265   3.061 -0.4220 -0.0188 -0.0676
49358W        W92270  31.251  29.088   2.801 -0.1406  0.0340 -0.0792
49359W        W92271  32.396  31.312   1.040  0.2137  0.2692  0.0260
49360W        W92272  31.235  30.615   2.523  0.4889  0.2431 -0.1135
49361W        W92273  28.650  31.165  31.794 -0.0425 -0.2708  0.0527
49362W        W92274  29.590  31.840   1.390  0.0963  0.2278 -0.1203
49363W        W92275  31.076  29.873   1.564 -0.0565  0.0470 -0.0294
49364W        W92276  29.763  30.010   2.385  0.1889  0.0291  0.0752
49365W        W92277  29.009  31.163   4.168  0.1055  0.0932  0.0253
49366W        W92278  31.496  31.187   1.824 -0.2898  0.1301 -0.0066
49367W        W92279  29.665  32.181   2.519 -0.0480 -0.0238  0.4019
49368W        W92280  30.486  29.233   0.189 -0.4442  0.2126  0.0380
49369W        W92281  31.548  32.045  31.689 -0.0516  0.3001  0.2195
49370W        W92282  29.941  31.490   1.326 -0.0753 -0.2134  0.0163
49371W        W92283  33.791  30.011   3.115  0.1281 -0.1290 -0.1296
49372W        W92284  31.361  30.273   0.749 -0.2431  0.0183 -0.2357
49373W        W92285  31.205  29.806   3.286  0.1715 -0.1919 -0.1668
49374W        W92286  28.671  28.857   1.647  0.3118  0.3191  0.1297
49375W        W92287  31.756  30.765   2.548  0.1477  0.0839  0.0113
49376W        W92288  28.451  31.599   2.270 -0.0353 -0.0416 -0.0845
49377W        W92289  30.231  32.542   3.810  0.2385 -0.4067  0.0538
49378W        W92290  28.509  30.296   4.403 -0.2590  0.0746 -0.0234
49379W        W92291  32.250  29.722   1.539 -0.0816  0.1265 -0.2816
49380W        W92292  29.738  30.620  31.094  0.3143  0.1035  0.2092
49381W        W92293  30.245  31.520   3.097 -0.0735 -0.2887  0.0351
49382W        W92294  31.343  31.930   2.490  0.1111  0.1557  0.1940
49383W        W92295  31.602  32.479   0.158 -0.0290 -0.1762 -0.0092
49384W        W92296  30.657  31.412   0.970  0.0120 -0.2876 -0.0611
49385W        W92297  29.687  31.260   2.304  0.0001 -0.1896  0.1996
49386W        W92298  32.572  30.125   1.561  0.1063 -0.0232 -0.1876
49387W        W92299  31.368  30.841   0.239 -0.4075  0.1596 -0.0355
49388W        W92300  30.346  32.045   0.084  0.0781  0.0112 -0.0675
49389W        W92301  31.043  29.066   3.992 -0.1188  0.0366  0.0053
49390W        W92302  31.781  32.278   2.459  0.0416  0.1119  0.0061
49391W        W92303  30.509  30.139   1.701 -0.2856 -0.0810  0.0192
49392W        W92304  30.131  28.960   3.181 -0.0709  0.1356  0.2967
49393W        W92305  30.534  30.780   4.284 -0.0273 -0.2065 -0.1877
49394W        W92306  30.604  30.288   4.536  0.2058  0.3405  0.0575
49395W        W92307  26.688  30.958   3.264  0.0315 -0.3832  0.2006
49396W        W92308  32.500  33.304   1.595  0.4435 -0.1792  0.2443
49397W        W92309  30.432  28.380   1.875 -0.0260 -0.0789 -0.0123
49398W        W92310  31.516  31.470   2.692 -0.3517  0.0962 -0.1813
49399W        W92311  31.276  29.740   0.923  0.0278 -0.1059  0.2282
49400W        W92312  31.609  31.188  31.817  0.1118 -0.0368 -0.1446
49401W        W92313  28.581  31.059   0.946 -0.1337 -0.3473  0.2445
49402W        W92314  31.383  31.053   2.466 -0.0582  0.0499  0.1212
49403W        W92315  28.323  30.247   0.640  0.1301  0.1535 -0.1744
49404W        W92316  30.504  29.254   3.419  0.1255  0.2162 -0.1210
49405W        W92317  31.682  33.003   0.320  0.0402 -0.0763  0.2085
49406W        W92318  31.422  32.595   1.093  0.0197  0.2653 -0.1919
49407W        W92319  30.284  30.603   1.673 -0.0192 -0.0681 -0.2634
49408W        W92320  27.397  29.903   2.066  0.1661  0.1704  0.1611
49409W        W92321  29.673  31.938   3.476 -0.2194 -0.1338 -0.0580
49410W        W92322  29.636  30.481   1.015  0.0713 -0.1107  0.1503
49411W        W92323  29.969  32.369  30.971 -0.2201  0.1234 -0.0047
49412W        W92324  31.625  31.713   3.522 -0.0510 -0.2354  0.1980
49413W        W92325  32.269  30.487   2.346  0.1126  0.1429 -0.0200
49414W        W92326  30.970  28.895   1.062  0.1787  0.0762  0.1082
49415W        W92327  31.105  30.408   3.077 -0.2515  0.0972  0.0459
49416W        W92328  29.638  31.070  31.328 -0.1589 -0.2567  0.0004
49417W        W92329  29.685  28.811   2.844  0.0097  0.1762 -0.0317
49418W        W92330  31.462  33.548   2.294  0.0143  0.3230 -0.1092
49419W        W92331  28.663  32.444   3.690 -0.0282  0.2658  0.2187
49420W        W92332  29.362  31.721   2.030 -0.0900  0.0045 -0.2136
49421W        W92333  28.785  27.982   4.222  0.2770 -0.2620 -0.1242
49422W        W92334  30.159  29.556   3.533 -0.0451 -0.1206  0.1499
49423W        W92335  29.660  31.170   2.797 -0.0746 -0.3718 -0.3622
49424W        W92336  32.029  31.489   2.794 -0.2119 -0.2870  0.1074
49425W        W92337  30.686  31.342   4.040 -0.5657  0.0964 -0.2036
49426W        W92338  29.396  31.642   2.507 -0.0634 -0.1952  0.2398
49427W        W92339  31.955  31.031   3.000 -0.1814  0.3797 -0.0539
49428W        W92340  31.509  31.614   1.373  0.1842 -0.0155  0.0809
49429W        W92341  29.222  31.152   1.916 -0.1144 -0.0532 -0.0044
49430W        W92342  30.223  30.221   3.598 -0.0227 -0.0179  0.2996
49431W        W92343  30.786  31.538   4.961  0.0156 -0.1954  0.2745
49432W        W92344  31.308  33.474   4.162 -0.1568  0.1367 -0.1947
49433W        W92345  28.954  29.387   1.578 -0.0618 -0.1262 -0.0332
49434W        W92346  31.270  31.825   0.402  0.2436 -0.3491  0.4153
49435W        W92347  30.029  31.610   3.655  0.1181 -0.0490  0.0032
49436W        W92348  27.116  30.616   1.690  0.0451 -0.3459  0.0754
49437W        W92349  30.237  32.829  31.039  0.0615 -0.1424 -0.2277
49438W        W92350  32.019  30.835   1.023  0.0269  0.0870 -0.1340
49439W        W92351  30.829  31.549  31.710  0.1873  0.2717  0.0152
49440W        W92352  30.501  33.288   3.037  0.0505  0.0388 -0.1810
49441W        W92353  31.621  30.831  31.337 -0.0358  0.0217  0.2188
49442W        W92354  31.026  32.206   1.071 -0.0806  0.0637  0.0848
49443W        W92355  28.646  32.663  31.616 -0.1398  0.1512 -0.1853
49444W        W92356  32.557  32.355   0.685 -0.2451  0.3143  0.1388
49445W        W92357  30.674  32.400   0.087 -0.2434  0.0023 -0.0654
49446W        W92358  31.732  32.283   3.739 -0.1346  0.4876 -0.0511
49447W        W92359  33.054  29.800  31.855  0.0479 -0.1108  0.0314
49448W        W92360  32.815  30.851   0.397  0.1689  0.1312  0.0648
49449W        W92361  32.936  31.424  31.649 -0.1739  0.0059  0.0567
49450W        W92362  30.441  31.910   5.161 -0.0752  0.1848  0.1138
49451W        W92363  30.125  31.019   1.426 -0.0955  0.2594 -0.0800
49452W        W92364  29.260  30.675  31.974  0.3984 -0.5354  0.0646
49453W        W92365  30.053  30.266   2.727 -0.2091 -0.3065 -0.0178
49454W        W92366  33.650  29.701   1.386  0.0434  0.3162  0.0875
49455W        W92367  29.247  33.119   3.726 -0.0878 -0.1282 -0.1089
49456W        W92368  32.004  33.014  31.634 -0.2095 -0.0051 -0.0142
49457W        W92369  29.137  31.554   0.613 -0.0042  0.0783 -0.3773
49458W        W92370  29.241  30.636   1.955  0.1284  0.0636  0.1621
49459W        W92371  32.845  30.131   2.608 -0.1382  0.4623  0.0686
49460W        W92372  32.102  32.271   0.390 -0.0789 -0.0037  0.2198
49461W        W92373  29.441  30.464   2.431 -0.1765 -0.1694 -0.0522
49462W        W92374  30.568  31.561   0.429  0.2335  0.1479  0.0983
49463W        W92375  30.161  32.109   2.654 -0.2695  0.0528 -0.0271
49464W        W92376  30.122  32.102   3.190 -0.1597 -0.0157  0.1187
49465W        W92377  29.835  29.570   0.724 -0.0414  0.1605 -0.0143
49466W        W92378  31.731  29.884   0.837  0.0461  0.1704  0.0009
49467W        W92379  29.932  30.761   2.648  0.1787 -0.1250 -0.0757
49468W        W92380  30.643  29.742   3.328  0.0879  0.1785 -0.1031
49469W        W92381  29.483  31.130   1.519 -0.1201 -0.0454  0.3271
49470W        W92382  30.992  30.115   1.100  0.3513  0.0029  0.1920
49471W        W92383  30.545  31.249   2.784  0.0503  0.2465 -0.2207
49472W        W92384  29.613  30.147   3.023 -0.0150  0.1389  0.1695
49473W        W92385  31.164  30.843   1.586  0.4022  0.0169 -0.1761
49474W        W92386  33.019  31.318   2.662  0.2157  0.3487 -0.0861
49475W        W92387  31.447  30.355   0.258  0.2088 -0.1869  0.0051
49476W        W92388  30.903  32.083   3.347  0.0455  0.0895  0.1124
49477W        W92389  28.297  28.550   1.496  0.1294  0.1571  0.2549
49478W        W92390  30.523  29.954   1.010  0.1024  0.2384 -0.1858
49479W        W92391  29.918  31.091   0.976 -0.1005  0.0170 -0.0537
49480W        W92392  30.001  31.039   1.885  0.4128 -0.2520  0.1426
49481W        W92393  31.671  33.026   3.278  0.0633  0.1803 -0.1048
49482W        W92394  27.788  30.005   0.932  0.2875  0.2035 -0.0149
49483W        W92395  31.854  31.607  31.743  0.3320  0.3970 -0.1020
49484W        W92396  31.154  30.637   3.840  0.0069 -0.0741  0.0961
49485W        W92397  30.179  32.625  30.574 -0.0981  0.0514 -0.0720
49486W        W92398  31.367  30.702   2.061  0.1063  0.1053 -0.2560
49487W        W92399  32.297  33.710   1.876  0.2182 -0.0025  0.2439
49488W        W92400  29.339  30.180   2.044 -0.0386 -0.1518 -0.2762
49489W        W92401  30.813  31.916   0.714  0.0036 -0.0743 -0.3046
49490W        W92402  32.836  31.664   3.131  0.0166 -0.0273  0.0672
49491W        W92403  30.732  28.500   0.285 -0.0685  0.1857  0.2167
49492W        W92404  29.186  30.921   2.424  0.2311  0.3209  0.0288
49493W        W92405  30.019  34.653   0.806 -0.1493 -0.0038 -0.0116
49494W        W92406  31.907  31.903   1.633  0.4588 -0.0032 -0.0817
49495W        W92407  30.645  31.033   1.856 -0.0269  0.0737  0.2716
49496W        W92408  30.393  32.539  30.116 -0.1674  0.0129  0.1586
49497W        W92409  32.554  28.873   2.639  0.1595  0.1399 -0.2162
49498W        W92410  30.844  32.228   2.407  0.1882  0.2176  0.1776
49499W        W92411  29.438  32.402   3.659 -0.0811  0.1863  0.0404
49500W        W92412  30.575  32.103  31.632 -0.0263 -0.1932 -0.1916
49501W        W92413  29.032  32.098   3.733 -0.2771  0.2402 -0.2921
49502W        W92414  30.975  31.290   0.141  0.2746 -0.1607 -0.1054
49503W        W92415  30.847  31.855   0.109 -0.3228 -0.1341  0.1137
49504W        W92416  30.345  31.882   1.225  0.0511 -0.2721  0.0593
49505W        W92417  30.117  29.929   3.165  0.1522  0.3604  0.3116
49506W        W92418  30.579  31.981   3.019 -0.1044 -0.2421 -0.2619
49507W        W92419  29.977  30.773  31.972 -0.1271 -0.0231 -0.3284
49508W        W92420  32.287  29.987   1.897  0.3669 -0.1402  0.0188
49509W        W92421  30.642  29.983  31.696  0.3183 -0.2257  0.1253
49510W        W92422  28.847  29.954   2.258  0.2404  0.1764 -0.2079
49511W        W92423  27.856  31.806   0.496 -0.2425 -0.0532  0.0476
49512W        W92424  29.348  32.443  31.248 -0.1917  0.3459 -0.2043
49513W        W92425  29.398  30.686   2.948 -0.1517 -0.0694  0.0231
49514W        W92426  30.088  29.508   4.031 -0.0294  0.0477  0.0967
49515W        W92427  29.735  29.704   2.749  0.0031  0.2782  0.0357
49516W        W92428  27.951  31.043   0.588 -0.0190 -0.0711 -0.2258
49517W        W92429  29.094  29.677   1.158  0.1874  0.0836 -0.0711
49518W        W92430  33.521  32.055   0.892  0.0834 -0.0928 -0.0045
49519W        W92431  28.358  28.745   2.622 -0.3267  0.2045 -0.1473
49520W        W92432  28.192  29.979   2.909  0.1138 -0.0069 -0.1632
49521W        W92433  31.837  31.197   2.368 -0.0222 -0.1471 -0.0449
49522W        W92434  31.064  31.477   1.776  0.1627 -0.1154  0.0778
49523W        W92435  29.806  28.935   2.142  0.2048  0.0256  0.0045
49524W        W92436  32.535  32.307   3.249  0.2445 -0.0229 -0.3049
49525W        W92437  28.346  32.470   1.956 -0.1917  0.1677  0.1317
49526W        W92438  31.233  31.805   2.971  0.2833  0.0985 -0.2450
49527W        W92439  30.317  30.649   3.016  0.0952 -0.1922 -0.1059
49528W        W92440  28.488  30.739   0.624 -0.2804 -0.2452 -0.0812
49529W        W92441  30.641  30.474   2.064  0.2887  0.1215  0.2530
49530W        W92442  31.146  32.601   0.686  0.0641 -0.0034 -0.2142
49531W        W92443  32.723  32.167   1.620  0.2447 -0.1910  0.2380
49532W        W92444  29.414  32.546   4.273  0.0096  0.0887  0.0082
49533W        W92445  31.025  33.366   2.074 -0.0590  0.1363 -0.1992
49534W        W92446  28.725  29.450   3.187  0.0395  0.1626  0.0544
49535W        W92447  31.249  31.703  31.286 -0.0117  0.2109 -0.0592
49536W        W92448  30.201  31.511   4.155 -0.3214 -0.1651 -0.2942
49537W        W92449  34.170  30.954  31.941  0.0952 -0.2519 -0.2765
49538W        W92450  31.865  30.434   2.089  0.2014 -0.0745  0.0936
49539W        W92451  30.688  29.688   1.889  0.2135  0.1702  0.0977
49540W        W92452  27.990  29.746   3.805 -0.3322 -0.0409  0.0927
49541W        W92453  29.086  31.680   3.381 -0.1145  0.1680  0.2934
49542W        W92454  31.900  30.907   1.938 -0.1804 -0.2427  0.1372
49543W        W92455  28.031  30.654   1.418 -0.1584  0.1308 -0.1339
49544W        W92456  30.631  29.875   2.353  0.2214  0.2324  0.1116
49545W        W92457  31.756  32.598   2.808  0.1003  0.3242 -0.4115
49546W        W92458  28.008  31.609   2.493  0.1824  0.2909  0.2793
49547W        W92459  31.163  31.210   1.235  0.3126  0.2508 -0.1004
49548W        W92460  30.748  30.583   3.380 -0.1695  0.0789 -0.0952
49549W        W92461  31.943  32.859   1.825 -0.4323  0.1393 -0.1019
49550W        W92462  32.863  31.166   3.184 -0.1333 -0.0967 -0.0740
49551W        W92463  30.363  31.032   0.748 -0.0349 -0.3424 -0.3023
49552W        W92464  31.586  32.902   1.527  0.0004  0.2528 -0.2144
49553W        W92465  30.669  32.910   3.261  0.1601  0.2059 -0.0640
49554W        W92466  32.615  32.971   3.891  0.0024  0.0338 -0.1590
49555W        W92467  29.725  31.472   1.815 -0.2117 -0.0839 -0.1757
49556W        W92468  31.585  29.947   2.195 -0.0756  0.0835  0.1132
49557W        W92469  28.114  29.642   1.606  0.0492  0.5276 -0.0957
49558W        W92470  30.032  31.098   0.390  0.1248 -0.0594 -0.0369
49559W        W92471  32.234  32.137   1.342  0.3657  0.0019 -0.2646
49560W        W92472  32.230  30.953   2.587  0.2088  0.4345 -0.1616
49561W        W92473  29.307  30.632   1.428  0.0083 -0.2040  0.0432
49562W        W92474  32.473  29.137   0.842 -0.0095  0.2104 -0.3758
49563W        W92475  30.718  31.527   2.135  0.1374 -0.1374 -0.1492
49564W        W92476  30.012  31.394   7.688 -0.1905  0.1642  0.0624
49565W        W92477  29.223  29.867   4.296 -0.0816 -0.1723  0.1585
49566W        W92478  31.090  29.877   3.902 -0.1925  0.1356  0.2324
49567W        W92479  32.961  30.330   3.475  0.2282 -0.0348 -0.2370
49568W        W92480  28.104  28.524   4.715  0.0271  0.1391 -0.1700
49569W        W92481  31.938  33.817   5.144 -0.1782 -0.2721 -0.0626
49570W        W92482  28.862  30.202   8.059  0.0798 -0.0388 -0.3165
49571W        W92483  30.633  32.933   6.703  0.0120 -0.0477 -0.1195
49572W        W92484  31.965  31.917   4.518 -0.4632 -0.0662 -0.1928
49573W        W92485  30.461  31.215   4.579  0.3122 -0.1196 -0.0782
49574W        W92486  31.592  29.863   6.010  0.0041  0.2875 -0.1087
49575W        W92487  30.056  32.249   6.665 -0.4236  0.0908  0.2299
49576W        W92488  29.223  28.679   4.612 -0.2112  0.0685 -0.1398
49577W        W92489  28.856  29.358   5.500  0.1709  0.2556  0.1247
49578W        W92490  30.891  30.965   4.664 -0.0636  0.2435  0.0803
49579W        W92491  29.678  32.246   4.582 -0.0970 -0.0802 -0.1265
49580W        W92492  29.924  29.476   6.120 -0.1922 -0.0106 -0.0860
49581W        W92493  31.142  29.521   5.328 -0.1923 -0.0565 -0.1029
49582W        W92494  31.314  34.140   5.673  0.0402 -0.1631  0.0693
49583W        W92495  29.428  29.547   6.866 -0.0304 -0.0593 -0.1876
49584W        W92496  30.474  28.950   6.500  0.2149 -0.2701 -0.1102
49585W        W92497  30.617  31.680   4.399 -0.1607  0.0836 -0.3583
49586W        W92498  29.888  30.655   3.961  0.0688 -0.4670  0.1973
49587W        W92499  29.619  30.128   4.800 -0.1087 -0.3912 -0.5743
49588W        W92500  30.500  32.141   6.447  0.1555  0.0729 -0.1524
49589W        W92501  30.711  28.863   4.634 -0.2025 -0.2928 -0.1899
49590W        W92502  30.776  29.879   4.767 -0.1621 -0.0377  0.1501
49591W        W92503  31.107  32.664   6.107  0.1802  0.0098  0.2099
49592W        W92504  31.564  34.212   6.461  0.0212 -0.0429  0.1026
49593W        W92505  32.032  30.007   6.292 -0.3032 -0.2741 -0.0998
49594W        W92506  29.432  31.364   6.557 -0.0826  0.0799  0.2420
49595W        W92507  28.669  32.317   5.946 -0.1059 -0.1433  0.3711
49596W        W92508  29.783  31.755   6.662  0.0922 -0.2606 -0.1955
49597W        W92509  32.585  31.910   3.488 -0.1470  0.1655 -0.0273
49598W        W92510  32.068  32.534   5.045  0.0639 -0.0157  0.3357
49599W        W92511  30.983  33.624   6.225  0.1680  0.1494 -0.2417
49600W        W92512  30.006  32.971   4.596  0.0366 -0.0323 -0.6162
49601W        W92513  31.322  32.361   7.015 -0.3041  0.4704  0.0105
49602W        W92514  30.710  32.418   7.342  0.0444 -0.2561  0.1330
49603W        W92515  30.630  29.048   5.250  0.0080 -0.4049  0.0313
49604W        W92516  29.527  31.685   5.467  0.1692  0.0685  0.0069
49605W        W92517  30.463  32.406   5.125  0.3335 -0.2813  0.2140
49606W        W92518  29.980  30.662   6.136  0.3221 -0.0670  0.0953
49607W        W92519  31.621  31.561   7.301 -0.3012  0.0161  0.0033
49608W        W92520  29.315  32.634   6.440 -0.2000 -0.3932  0.0615
49609W        W92521  31.101  29.969   7.006 -0.0656 -0.0126 -0.1506
49610W        W92522  30.586  32.211   4.302  0.2547 -0.0975 -0.3140
49611W        W92523  30.355  29.486   4.471  0.1442 -0.1281 -0.3201
49612W        W92524  30.343  29.777   5.211  0.2757 -0.1717  0.1656
49613W        W92525  31.331  29.416   4.789 -0.1073  0.1536  0.0249
49614W        W92526  29.702  28.674   5.317  0.2160  0.1762 -0.3254
49615W        W92527  30.025  32.193   5.274  0.0330  0.0269  0.1360
49616W        W92528  30.648  28.968   5.770 -0.1663 -0.0562 -0.2388
49617W        W92529  31.635  32.089   5.301  0.2815 -0.1820  0.0959
49618W        W92530  29.603  31.180   4.447 -0.2110  0.1712 -0.3481
49619W        W92531  31.955  28.890   7.398 -0.1603 -0.1105 -0.2393
49620W        W92532  29.436  32.613   7.269  0.3263 -0.0212  0.1380
49621W        W92533  29.705  29.034   6.258 -0.1843  0.0018  0.0572
49622W        W92534  32.143  31.489   4.254 -0.1405 -0.0159 -0.1332
49623W        W92535  31.078  31.928   4.347 -0.3959  0.0507  0.1559
49624W        W92536  30.628  33.363   3.982 -0.2414  0.0367  0.0370
49625W        W92537  30.540  30.203   5.091  0.0896  0.0553  0.0339
49626W        W92538  29.503  31.849   7.562 -0.1461  0.1003  0.2808
49627W        W92539  29.411  30.471   7.411  0.2769  0.1786 -0.1895
49628W        W92540  28.830  28.548   4.313  0.1724 -0.3151  0.3693
49629W        W92541  32.878  30.455   7.221  0.0263 -0.1953  0.0428
49630W        W92542  28.723  32.392   7.210  0.1370  0.0200  0.1047
49631W        W92543  32.471  30.072   4.335 -0.1453 -0.1685  0.0153
49632W        W92544  29.260  30.854   5.187  0.2192 -0.0162 -0.1983
49633W        W92545  31.439  30.742   5.022  0.1237  0.1955 -0.0023
49634W        W92546  33.324  31.373   3.152 -0.2112  0.1629  0.0751
49635W        W92547  30.684  28.520   5.536 -0.1871  0.1050  0.1690
49636W        W92548  31.915  29.174   5.705 -0.1478  0.1105 -0.0482
49637W        W92549  29.663  31.665   4.445  0.1267 -0.0085 -0.1509
49638W        W92550  30.158  32.059   3.713  0.0805  0.1894 -0.0175
49639W        W92551  31.738  32.046   5.860  0.2555  0.1225  0.0986
49640W        W92552  32.524  30.823   3.048  0.3216  0.0074  0.0038
49641W        W92553  30.202  32.243   6.012  0.0677 -0.0191 -0.1196
49642W        W92554  32.087  31.366   5.773  0.0976  0.0990 -0.0655
49643W        W92555  33.814  31.936   7.989 -0.0520 -0.1724  0.1375
49644W        W92556  28.598  33.750   4.063  0.3051 -0.3861 -0.0727
49645W        W92557  29.579  29.834   6.104 -0.0907 -0.0028 -0.0650
49646W        W92558  28.327  31.100   3.685  0.0182 -0.0983  0.0810
49647W        W92559  28.014  27.803   6.318 -0.3289 -0.4554 -0.1341
49648W        W92560  29.858  31.229   6.856  0.2159 -0.0924 -0.2691
49649W        W92561  31.584  30.495   3.092 -0.1342  0.1882 -0.1111
49650W        W92562  28.435  29.470   6.946 -0.1428 -0.2514  0.0636
49651W        W92563  32.800  28.724   4.516  0.1882 -0.0284  0.0837
49652W        W92564  29.379  31.306   4.887  0.0689  0.2023  0.2065
49653W        W92565  31.198  33.000   4.750  0.0335 -0.1244  0.0315
49654W        W92566  33.251  29.885   3.075 -0.4101  0.1423 -0.2483
49655W        W92567  32.215  30.595   3.874  0.2364 -0.0286 -0.0967
49656W        W92568  28.027  29.598   6.677 -0.1324 -0.1494  0.1322
49657W        W92569  28.310  28.085   4.938  0.1572 -0.3582 -0.1756
49658W        W92570  28.862  29.203   5.957  0.0907  0.2411 -0.4271
49659W        W92571  28.042  29.611   5.807  0.1065 -0.3249  0.1704
49660W        W92572  32.195  30.548   6.719 -0.0350 -0.2419  0.2154
49661W        W92573  29.276  28.734   3.232  0.0514  0.1501  0.0053
49662W        W92574  31.155  29.725   4.458 -0.1193 -0.1200  0.2814
49663W        W92575  30.801  29.848   5.905  0.1030  0.0903  0.2203
49664W        W92576  29.182  30.841   4.680  0.2179  0.1406  0.0497
49665W        W92577  32.942  30.828   6.196  0.0585 -0.0628 -0.0736
49666W        W92578  29.958  32.603   4.306  0.0251  0.1940 -0.2354
49667W        W92579  32.276  32.860   7.070  0.4472 -0.2782  0.2368
49668W        W92580  31.081  33.605   4.578 -0.0761 -0.2181  0.0043
49669W        W92581  29.314  29.612   5.524  0.0503  0.3740  0.3154
49670W        W92582  28.366  30.350   5.488 -0.1134  0.0347 -0.1549
49671W        W92583  29.810  33.525   6.751 -0.1448 -0.2075 -0.0511
49672W        W92584  29.420  31.377   5.927  0.1136 -0.1242  0.0884
49673W        W92585  29.530  29.414   3.964  0.1411  0.0764  0.1397
49674W        W92586  34.161  33.120   5.689 -0.1016 -0.3605 -0.1188
49675W        W92587  30.266  31.817   5.622 -0.1238 -0.0951 -0.3128
49676W        W92588  30.958  31.376   8.178 -0.1642 -0.1489 -0.1904
49677W        W92589  30.328  29.098   6.970 -0.1269  0.2692  0.1402
49678W        W92590  32.555  31.778   5.389  0.3805 -0.0043  0.2958
49679W        W92591  31.372  30.791   5.563 -0.0673 -0.1532 -0.1956
49680W        W92592  28.051  30.464   4.422  0.1861  0.2908 -0.1300
49681W        W92593  30.372  32.445   5.592  0.0868 -0.1076 -0.0694
49682W        W92594  30.392  32.805   4.206 -0.1789 -0.0804 -0.0690
49683W        W92595  29.615  31.256   5.384  0.1683 -0.1168  0.0449
49684W        W92596  30.080  33.129   6.478  0.0771  0.1437  0.2128
49685W        W92597  32.724  29.155   4.740  0.2731  0.0388 -0.1290
49686W        W92598  28.466  28.850   6.999 -0.0835  0.1789 -0.0266
49687W        W92599  31.737  29.616   6.407  0.1536 -0.2021  0.0903
49688W        W92600  28.883  29.674   4.637  0.0672 -0.1930  0.1136
49689W        W92601  31.074  30.940   8.007  0.1124 -0.0176  0.0900
49690W        W92602  31.994  30.153   3.816  0.1322  0.1178 -0.1444
49691W        W92603  32.449  29.367   3.660  0.0702 -0.0253  0.2314
49692W        W92604  30.718  30.263   6.672  0.1146 -0.0234  0.1674
49693W        W92605  32.644  30.795   3.537  0.1230  0.0575  0.1587
49694W        W92606  30.286  29.458   2.957  0.0247  0.1456  0.3217
49695W        W92607  31.755  30.279   2.555 -0.0373 -0.1574  0.1110
49696W        W92608  30.959  32.486   6.606  0.1667 -0.1855  0.1850
49697W        W92609  29.809  31.781   5.047  0.1094  0.1324 -0.1640
49698W        W92610  31.068  33.221   6.696 -0.2456 -0.4345 -0.2140
49699W        W92611  29.396  29.727   4.761  0.0568 -0.2125 -0.1311
49700W        W92612  32.088  31.105   3.819  0.1508  0.4215  0.3384
49701W        W92613  30.936  31.660   6.363 -0.0232  0.7961 -0.2519
49702W        W92614  29.918  31.362   6.336 -0.0674 -0.0352  0.0463
49703W        W92615  31.510  33.756   4.768  0.2430  0.2013 -0.0588
49704W        W92616  31.258  29.452   7.010 -0.2870 -0.0458 -0.2484
49705W        W92617  31.021  30.528   4.791 -0.1126  0.1596  0.0560
49706W        W92618  32.215  29.811   4.740 -0.0343 -0.2196 -0.2127
49707W        W92619  30.279  33.482   4.844 -0.0047  0.0281  0.0025
49708W        W92620  30.065  28.520   6.358  0.0788  0.2266 -0.0614
49709W        W92621  31.396  28.711   5.632 -0.1334 -0.1201 -0.2508
49710W        W92622  30.472  27.997   6.785 -0.1147 -0.0733 -0.0173
49711W        W92623  32.542  29.512   6.242 -0.2344 -0.1317 -0.2859
49712W        W92624  30.430  30.670   5.295  0.0871 -0.1549  0.1457
49713W        W92625  30.790  31.372   5.998 -0.1276  0.1423  0.1561
49714W        W92626  30.022  31.383   4.903  0.1628  0.3236 -0.2405
49715W        W92627  31.020  30.859   7.517 -0.1075  0.1898  0.0525
49716W        W92628  28.805  32.448   6.443 -0.3427 -0.0245  0.3619
49717W        W92629  29.209  32.075   7.251 -0.1373 -0.1959 -0.0120
49718W        W92630  31.272  31.316   6.152  0.1511  0.0838 -0.0498
49719W        W92631  31.219  31.115   3.721  0.0361  0.1645 -0.2753
49720W        W92632  30.947  30.120   8.133  0.1991 -0.0104  0.0527
49721W        W92633  31.090  29.060   5.505 -0.3341  0.0659 -0.1912
49722W        W92634  30.172   0.092   4.871 -0.2064  0.0044 -0.2296
49723W        W92635  28.749  30.692   5.524 -0.0670 -0.0617  0.0830
49724W        W92636  30.956  28.896   6.178  0.0314  0.2988 -0.1477
49725W        W92637  29.815  31.124   5.813 -0.0058  0.1234  0.0016
49726W        W92638  29.216  31.660   3.974  0.1706  0.0337 -0.1042
49727W        W92639  31.794  30.587   6.406  0.0903  0.0274  0.0238
49728W        W92640  29.074  32.170   6.182  0.0410 -0.0649  0.4634
49729W        W92641  31.332  28.194   5.529  0.0664  0.0915  0.0995
49730W        W92642  29.714  32.127   5.682  0.2960 -0.1086  0.2691
49731W        W92643  29.277  29.983   5.217 -0.0243 -0.1469  0.0280
49732W        W92644  30.074  30.215   5.345 -0.3372 -0.1652 -0.1158
49733W        W92645  32.306  28.892   4.581 -0.0357 -0.0943 -0.0236
49734W        W92646  32.371  29.705   4.024  0.1773  0.2156 -0.1413
49735W        W92647  29.080  27.721   5.579 -0.1337 -0.2911 -0.0035
49736W        W92648  31.086  29.443   5.867 -0.1926  0.0517 -0.1195
49737W        W92649  28.847  31.744   7.145 -0.0896  0.1384 -0.1439
49738W        W92650  30.454  29.447   6.037  0.0543 -0.1076 -0.3309
49739W        W92651  29.892  29.501   4.694 -0.1452 -0.1607 -0.0523
49740W        W92652  31.475  31.838   6.270  0.1258  0.0144  0.1950
49741W        W92653  30.161  30.947   7.195  0.4882 -0.0167  0.1450
49742W        W92654  30.126  31.349   5.420  0.1373 -0.1433  0.2035
49743W        W92655  32.010  29.892   4.263  0.1668 -0.0985 -0.2679
49744W        W92656  30.297  29.830   5.705 -0.1808 -0.0517 -0.0011
49745W        W92657  28.866  32.006   4.631 -0.1947  0.3717  0.0708
49746W        W92658  30.964  33.838   5.462 -0.1856  0.2628  0.0137
49747W        W92659  29.371  30.808   4.066  0.1468 -0.1041  0.0653
49748W        W92660  28.665  31.044   5.898  0.1597  0.0958  0.0049
49749W        W92661  30.775  29.647   6.811 -0.0985 -0.0574 -0.0099
49750W        W92662  32.483  29.973   6.071 -0.1404  0.0804  0.0663
49751W        W92663  30.757  29.448   4.956 -0.3789 -0.3798  0.2160
49752W        W92664  29.500  29.388   5.872  0.2553  0.2746  0.1309
49753W        W92665  31.296  29.918   5.653  0.2642 -0.4341 -0.1052
49754W        W92666  32.253  30.701   4.979 -0.1059 -0.0929  0.6190
49755W        W92667  31.591  30.392   5.859 -0.0610 -0.1057 -0.0651
49756W        W92668  31.230  31.827   7.089 -0.0585 -0.2099 -0.0286
49757W        W92669  30.292  30.455   6.998 -0.5732 -0.0939  0.2865
49758W        W92670  31.566  32.303   4.234  0.0272 -0.0925 -0.2943
49759W        W92671  30.672  31.074   7.119 -0.1360 -0.0259 -0.2657
49760W        W92672  28.808  31.017   5.067 -0.0463 -0.2829 -0.0696
49761W        W92673  29.088  30.164   4.754  0.2022 -0.3495 -0.5440
49762W        W92674  30.174  31.787   4.688  0.0562  0.4433 -0.2618
49763W        W92675  29.785  28.176   6.132 -0.0500 -0.2715 -0.1950
49764W        W92676  30.352  31.939   7.277  0.0517  0.0365  0.1038
49765W        W92677  30.312  29.963   6.722  0.0916 -0.2885  0.2115
49766W        W92678  29.596  32.238   6.984  0.0264 -0.3793  0.0577
49767W        W92679  32.989  30.329   1.795  0.2521  0.2197 -0.2421
49768W        W92680  31.977  30.282   3.304  0.3898  0.4444  0.0914
49769W        W92681  30.564  30.314   5.645  0.3393  0.3278  0.1124
49770W        W92682  32.132  31.178   7.388 -0.2015 -0.2302 -0.2260
49771W        W92683  30.888  30.115   3.541 -0.0150  0.0040 -0.0154
49772W        W92684  31.489  30.018   8.206  0.0391  0.1364  0.2002
49773W        W92685  29.109  29.721   6.007 -0.3762  0.2354 -0.1291
49774W        W92686  33.572  31.230   4.045 -0.0756  0.0987 -0.0327
49775W        W92687  29.123  31.459   7.497 -0.2463 -0.0942 -0.2444
49776W        W92688  31.612  31.614   5.805 -0.3027 -0.1511 -0.1212
49777W        W92689  30.316  31.257   6.768 -0.0152  0.1281 -0.2339
49778W        W92690  31.856  28.521   4.688  0.1421 -0.2959  0.0715
49779W        W92691  29.823  27.757   3.663 -0.0413  0.0837 -0.4303
49780W        W92692  29.384  29.953   6.627 -0.0787  0.2313  0.3149
49781W        W92693  32.191  31.692   3.653 -0.1031  0.0406 -0.3178
49782W        W92694  31.066  31.053   5.208 -0.0510  0.3082 -0.0491
49783W        W92695  32.092  30.304   4.606  0.1532 -0.3276  0.1936
49784W        W92696  30.072  31.863   6.264 -0.4667  0.1375 -0.0360
49785W        W92697  30.989  30.182   6.309 -0.1235 -0.2798 -0.1100
49786W        W92698  30.458  32.637   6.300 -0.0252 -0.0719 -0.3015
49787W        W92699  30.119  30.291   5.848 -0.0431  0.0601  0.0292
49788W        W92700  29.354  29.408   6.375  0.3690  0.3529 -0.0811
49789W        W92701  31.025  32.179   6.247  0.3154  0.1804 -0.0945
49790W        W92702  31.263  28.527   4.718 -0.2549 -0.0206 -0.3504
49791W        W92703  31.773  29.208   6.705 -0.0755  0.2598 -0.2575
49792W        W92704  31.788  30.593   5.451  0.2107 -0.3452  0.2661
49793W        W92705  29.008  30.439   6.487 -0.1489 -0.0120  0.0450
49794W        W92706  27.427  29.083   8.149 -0.4829 -0.1394  0.2266
49795W        W92707  32.432  33.250   6.799 -0.2882  0.1729 -0.0759
49796W        W92708  31.673  29.677   3.624  0.0485  0.1291 -0.1381
49797W        W92709  31.624  29.270   6.074  0.3943  0.0731  0.2529
49798W        W92710  31.662  30.065   4.531 -0.0360 -0.2853 -0.1614
49799W        W92711  30.697  29.819   4.264 -0.0389 -0.2311  0.1351
49800W        W92712  28.020  30.021   5.092 -0.1042  0.1060  0.0100
49801W        W92713  32.074  29.982   7.293 -0.0766  0.2743 -0.0006
49802W        W92714  29.384  29.816   3.784  0.1128  0.0217  0.0703
49803W        W92715  32.826  30.464   7.731  0.1090 -0.1645  0.2563
49804W        W92716  28.673  32.164   4.174  0.1188 -0.0155  0.1592
49805W        W92717  31.753  31.735   4.938 -0.0364  0.0620 -0.0075
49806W        W92718  31.460  30.540   4.536 -0.0179 -0.1711  0.1859
49807W        W92719  28.360  29.766   5.385  0.1042  0.1729  0.0590
49808W        W92720  30.649  33.302   7.138 -0.2109 -0.0504  0.0009
49809W        W92721  28.854  30.526   2.278  0.1084  0.1059  0.0462
49810W        W92722  30.035  30.999   4.396  0.4075 -0.3586  0.0781
49811W        W92723  30.232  33.250   5.847  0.0189  0.1052 -0.0436
49812W        W92724  31.778  31.136   5.090  0.0614  0.2047 -0.1339
49813W        W92725  31.239  29.097   4.447  0.0775  0.0766  0.1345
49814W        W92726  32.430  29.897   6.665  0.1156 -0.0552  0.1760
49815W        W92727  29.223  31.821   5.849 -0.1717  0.1584  0.1089
49816W        W92728  30.849  28.058   5.835  0.0189  0.1792  0.1452
49817W        W92729  30.380  33.486   6.667 -0.0756 -0.0840 -0.2013
49818W        W92730  28.320  32.294   6.363 -0.0930 -0.0768 -0.1807
49819W        W92731  31.135  31.802   5.892  0.1164 -0.3532  0.3574
49820W        W92732  29.370  28.049   7.374 -0.1510  0.0786 -0.0170
49821W        W92733  31.127  30.566   6.613 -0.1802 -0.1260 -0.1323
49822W        W92734  29.966  30.747   5.486  0.0497  0.2670  0.0624
49823W        W92735  31.983  30.758   5.949 -0.2762  0.2172 -0.0500
49824W        W92736  31.227  30.630   6.147  0.1793  0.2243 -0.0636
49825W        W92737  30.332  30.920   6.321  0.0612  0.1273 -0.1350
49826W        W92738  30.747  32.182   7.798 -0.1504  0.1651  0.0465
49827W        W92739  31.761  30.366   4.979 -0.2731 -0.1580  0.2820
49828W        W92740  29.566  30.653   5.781 -0.1089 -0.1147  0.1009
49829W        W92741  30.206  30.066   7.481  0.1523 -0.2293  0.1686
49830W        W92742  30.732  31.678   6.834 -0.1648 -0.0314  0.0229
49831W        W92743  31.133  31.289   7.239  0.0820  0.2658 -0.1856
49832W        W92744  28.571  29.610   5.900  0.0740 -0.0762  0.2901
49833W        W92745  30.819  32.172   5.477 -0.3614  0.0650 -0.0434
49834W        W92746  30.243  32.417   7.653  0.2662  0.1435  0.1937
49835W        W92747  29.864  30.222   6.781 -0.2021 -0.2753 -0.1384
49836W        W92748  29.798  33.645   5.824  0.0154  0.3951  0.2622
49837W        W92749  33.393  30.293   4.359 -0.1479  0.1382 -0.1181
49838W        W92750  31.210  31.881   4.864 -0.0178 -0.1440 -0.2339
49839W        W92751  32.006  32.603   6.120 -0.1181  0.1912  0.4339
49840W        W92752  30.248  30.189   4.107 -0.0107 -0.1063 -0.2621
49841W        W92753  29.160  33.300   5.695 -0.1557 -0.1064  0.4897
49842W        W92754  28.451  31.113   4.217 -0.2698  0.0870 -0.1010
49843W        W92755  30.013  33.096   4.053 -0.2651 -0.3259  0.1157
49844W        W92756  30.738  33.422   5.846 -0.2832 -0.0849 -0.0776
49845W        W92757  32.283  31.349   5.189  0.0083  0.0624 -0.0787
49846W        W92758  33.027  29.690   2.396  0.2240 -0.0592  0.2340
49847W        W92759  32.930  30.721   3.926 -0.2838 -0.2082 -0.1026
49848W        W92760  31.553  29.973   4.068 -0.0216  0.1369 -0.0117
49849W        W92761  32.165  32.027   6.841 -0.1626  0.0249 -0.2340
49850W        W92762  31.832  30.040   5.568 -0.0825 -0.0386 -0.0805
49851W        W92763  29.247  29.999   3.340  0.1999 -0.1143 -0.1976
49852W        W92764  29.637  30.821   7.102 -0.3101 -0.0310 -0.2362
49853W        W92765  31.411  28.880   7.661 -0.1361  0.0385  0.2383
49854W        W92766  29.074  32.475   7.554  0.1202 -0.1176 -0.0367
49855W        W92767  31.840  32.860   4.738  0.1777 -0.0641 -0.0191
49856W        W92768  28.823  30.040   5.778  0.0464 -0.3208  0.0429
49857W        W92769  29.750  30.859   4.961 -0.3082 -0.1998 -0.0308
49858W        W92770  32.064  29.656   5.878  0.2929  0.1992 -0.3275
49859W        W92771  30.502  31.234   3.502 -0.0151  0.1828 -0.1140
49860W        W92772  31.230  30.062   4.868 -0.0682 -0.3265  0.0661
49861W        W92773  30.500  33.540   5.414  0.0464 -0.1049  0.1454
49862W        W92774  30.857  32.167   6.949  0.3382 -0.0928  0.0782
49863W        W92775  29.580  33.468   6.331 -0.2818  0.1675  0.4119
49864W        W92776  28.150  29.917   4.262 -0.0123  0.1510  0.2214
49865W        W92777  33.045  30.016   4.616  0.0585 -0.1126 -0.0839
49866W        W92778  30.308  29.476   6.611  0.0210  0.0075 -0.1893
49867W        W92779  31.635  28.800   6.149  0.0586 -0.1630  0.0512
49868W        W92780  30.058  30.470   4.924 -0.0990 -0.1281  0.0221
49869W        W92781  30.675  29.482   5.563  0.0929 -0.0352  0.0312
49870W        W92782  31.371  31.051   4.679 -0.2828  0.3091  0.1613
49871W        W92783  29.158  30.691   6.058 -0.1259  0.0610  0.0853
49872W        W92784  29.624  30.565   4.555 -0.1800  0.2845 -0.0800
49873W        W92785  31.471  30.303   6.917  0.2718  0.1240 -0.3337
49874W        W92786  31.082  30.231   4.334 -0.1912 -0.2355 -0.1604
49875W        W92787  31.525  32.388   6.234  0.0250  0.0667  0.0840
49876W        W92788  29.965  28.970   4.667 -0.1273  0.0974 -0.0601
49877W        W92789  31.373  31.411   5.071  0.0087  0.2668  0.3314
49878W        W92790  29.590  30.500   5.291  0.0092 -0.2120 -0.0366
49879W        W92791  30.550  30.590   7.436 -0.1642  0.1926 -0.1504
49880W        W92792  31.284  31.288   5.587 -0.1411  0.1156 -0.2579
49881W        W92793  27.635  28.557   5.462 -0.0210  0.1663  0.0692
49882W        W92794  31.113  31.898   2.008 -0.2064  0.0683 -0.1492
49883W        W92795  31.650  29.839   5.099 -0.0373  0.1831  0.1945
49884W        W92796  30.726  32.348   3.753 -0.0253  0.0827 -0.0460
49885W        W92797  31.403  30.301   5.311 -0.1533  0.0592 -0.4022
49886W        W92798  31.608  32.508   5.546  0.0624 -0.2362  0.0720
49887W        W92799  28.365  29.166   5.932 -0.2912  0.1595 -0.1150
49888W        W92800  30.578  31.151   5.544 -0.5691  0.0660 -0.1577
49889W        W92801  31.264  31.747   5.372  0.4064 -0.1004 -0.3352
49890W        W92802  31.395  29.181   3.417 -0.0744  0.0932  0.0388
49891W        W92803  29.506  28.979   4.899  0.3539 -0.0988  0.0627
49892W        W92804  29.094  31.164   6.274 -0.1049 -0.0287 -0.1292
49893W        W92805  32.562  29.838   3.578 -0.5642 -0.0262 -0.2049
49894W        W92806  31.288  30.960   6.889  0.0796 -0.2379  0.0972
49895W        W92807  30.204  32.841   3.186  0.0877  0.1415 -0.2282
49896W        W92808  32.164  29.418   7.520 -0.0129 -0.2201 -0.3387
49897W        W92809  29.600  32.279   6.396 -0.0253 -0.0585  0.3009
49898W        W92810  30.566  33.310   8.045 -0.1277 -0.2059  0.1726
49899W        W92811  28.774  31.224   4.611 -0.4159 -0.0492 -0.2492
49900W        W92812  29.243  30.207   6.124  0.2996 -0.1239  0.0436
49901W        W92813  29.906  31.593   5.808  0.1953 -0.1235  0.2515
49902W        W92814  30.618  31.916   6.006  0.0635 -0.1230  0.1847
49903W        W92815  32.593  31.262   5.615 -0.0479  0.1308 -0.0949
49904W        W92816  30.896  29.985   5.414 -0.0903 -0.1021 -0.2055
49905W        W92817  31.420  32.775   5.188 -0.3914 -0.1698  0.1340
49906W        W92818  29.786  29.077   5.686  0.1653 -0.1169 -0.1609
49907W        W92819  32.188  29.415   4.443 -0.0490 -0.1548 -0.2997
49908W        W92820  32.371  28.408   4.753  0.2049 -0.4052 -0.1548
49909W        W92821  30.077  29.959   6.204 -0.0524  0.1659  0.0690
49910W        W92822  28.756  29.899   4.205 -0.0275  0.1797  0.2215
49911W        W92823  28.859  30.924   3.659  0.0387 -0.0006  0.2415
49912W        W92824  30.461  31.538   6.359  0.0428 -0.1045  0.1992
49913W        W92825  28.956  29.224   6.726 -0.0716  0.2099  0.1600
49914W        W92826  28.890  30.220   6.941  0.2135  0.5531 -0.2174
49915W        W92827  29.844  29.278   5.181 -0.4442  0.0308  0.1396
49916W        W92828  29.148  28.922   4.252 -0.0027  0.1780 -0.0936
49917W        W92829  33.955  30.625   1.764 -0.0163 -0.0729 -0.2271
49918W        W92830  28.574  29.375   7.502  0.0311  0.3119  0.1692
49919W        W92831  28.387  28.895   5.112 -0.3494  0.1941  0.1654
49920W        W92832  30.994  34.147   6.435  0.0252 -0.1998  0.2824
49921W        W92833  31.654  31.094   3.425  0.1211 -0.0378 -0.0740
49922W        W92834  29.952  28.196   6.792 -0.0242 -0.0833 -0.1471
49923W        W92835  32.145  32.610   6.598  0.0278  0.0572  0.1367
49924W        W92836  28.814  31.421   3.777  0.1937  0.1064 -0.0982
49925W        W92837  30.667  31.086   8.529  0.1542 -0.1104 -0.3346
49926W        W92838  29.410  30.376   6.867  0.0664  0.2286  0.0698
49927W        W92839  29.135  31.065   3.199  0.2811 -0.4488  0.0840
49928W        W92840  30.565  30.807   6.735 -0.4349  0.2537 -0.1621
49929W        W92841  31.020  32.713   5.547  0.0731  0.0737  0.0301
49930W        W92842  31.185  32.106   3.800 -0.0192 -0.1065 -0.3274
49931W        W92843  31.102  30.367   5.770 -0.3931  0.1306 -0.4102
49932W        W92844  31.346  33.935   6.106 -0.1148 -0.1382 -0.2235
49933W        W92845  28.480  28.683   5.908  0.0086 -0.3624  0.1558
49934W        W92846  30.708  32.155   4.787 -0.1449 -0.1473  0.1270
49935W        W92847  31.899  30.523   8.107  0.1436 -0.1330  0.1120
49936W        W92848  31.917  31.458   3.269 -0.0109 -0.1409  0.1752
49937W        W92849  32.586  29.672   5.106 -0.2378 -0.0995  0.2987
49938W        W92850  30.275  31.305   5.938 -0.3380  0.1027  0.1407
49939W        W92851  28.253  29.173   6.606  0.0929  0.0292  0.0378
49940W        W92852  30.514  30.255   6.117  0.0133 -0.0536  0.2169
49941W        W92853  32.057  32.278   5.519  0.0654 -0.0211  0.0561
49942W        W92854  29.342  29.144   5.408  0.2732  0.4517  0.1741
49943W        W92855  30.775  29.266   4.374  0.2913  0.2304 -0.1042
49944W        W92856  31.060  31.428   4.415  0.1955  0.0255 -0.0568
49945W        W92857  29.156  30.412   5.568  0.0485  0.4088 -0.3357
49946W        W92858  30.205  29.991   4.738  0.0249  0.0395 -0.1260
49947W        W92859  31.729  31.728   6.730 -0.0260 -0.0725 -0.0327
49948W        W92860  30.458  30.786   5.831 -0.0539  0.1928  0.1442
49949W        W92861  31.815  31.512   5.384  0.0661 -0.3663  0.0535
49950W        W92862  30.108  30.547   4.397  0.0538 -0.3704  0.5149
49951W        W92863  32.170  30.035   2.444 -0.1803 -0.1513  0.1130
49952W        W92864  31.996  34.012   6.546  0.0177  0.2955  0.0274
49953W        W92865  33.026  30.953   5.640 -0.0425  0.3592 -0.0833
49954W        W92866  31.765  32.239   6.644  0.2501 -0.1818  0.1271
49955W        W92867  30.921  30.515   5.256 -0.3640 -0.0971  0.1241
49956W        W92868  28.445  27.917   6.553  0.1302  0.1695 -0.0430
49957W        W92869  30.275  31.053   3.987  0.1054 -0.0602 -0.3017
49958W        W92870  30.416  30.739   4.767 -0.0697 -0.0107  0.0192
49959W        W92871  30.749  30.630   6.270 -0.0128 -0.2431 -0.0157
49960W        W92872  29.829  29.634   5.599  0.1020 -0.2187  0.1578
49961W        W92873  31.753  29.792   2.650 -0.2310 -0.0032 -0.1911
49962W        W92874  31.788  32.013   7.133  0.1999 -0.1279 -0.2573
49963W        W92875  30.924  31.084   6.432  0.0998 -0.0345  0.1463
49964W        W92876  29.286  31.274   9.763 -0.0446 -0.1680 -0.1699
49965W        W92877  30.701  30.529   8.823  0.1070  0.1579 -0.1228
49966W        W92878  30.987  29.103   7.377 -0.0908 -0.3529  0.1353
49967W        W92879  31.732  31.293   6.874  0.2106  0.2263 -0.2095
49968W        W92880  30.093  29.912   9.931  0.3830 -0.1598  0.0707
49969W        W92881  32.007  32.437   7.092  0.0294 -0.2299  0.1896
49970W        W92882  32.538  31.291   9.176 -0.0213  0.1574  0.1225
49971W        W92883  32.016  34.503  10.112 -0.0885  0.2163  0.3685
49972W        W92884  31.550  30.998   7.418  0.0245  0.1773  0.3118
49973W        W92885  33.135  29.396   9.623  0.1334  0.0325 -0.0337
49974W        W92886  30.067  29.939   8.599  0.2260  0.0285 -0.2980
49975W        W92887  28.940  28.489   9.202  0.1392 -0.3098  0.2517
49976W        W92888  31.310  30.977   9.810 -0.0601 -0.2275  0.3337
49977W        W92889  29.065  31.678   7.969 -0.0704 -0.0131  0.0496
49978W        W92890  30.234  30.560   9.283 -0.3082  0.1845  0.1317
49979W        W92891  30.943  30.606   8.366 -0.0678 -0.1872 -0.0122
49980W        W92892  30.332  32.528   7.047 -0.1069 -0.1355 -0.0915
49981W        W92893  32.374  31.372   9.876  0.0341 -0.0984 -0.1520
49982W        W92894  30.517  31.080   9.285 -0.0582  0.0452  0.1419
49983W        W92895  28.921  29.739   6.759  0.3841 -0.2127  0.3338
49984W        W92896  28.138  29.258   9.318 -0.1819  0.1631  0.3087
49985W        W92897  30.866  29.808   9.273 -0.1720 -0.0573 -0.1641
49986W        W92898  31.044  31.672   9.771 -0.1741 -0.0572 -0.3463
49987W        W92899  31.440  31.102   8.981 -0.0203 -0.1623  0.0683
49988W        W92900  30.481  31.387   8.868  0.0725 -0.1821 -0.0280
49989W        W92901  31.749  32.712   8.786  0.0516 -0.2210 -0.1204
49990W        W92902  29.257  30.906   7.533 -0.0018  0.3222 -0.0686
49991W        W92903  29.403  32.546   8.999  0.3151 -0.1465  0.1258
49992W        W92904  30.288  31.719   9.170 -0.3480  0.1498 -0.0768
49993W        W92905  32.277  31.615   8.850 -0.2028  0.0518  0.1847
49994W        W92906  30.810  31.728   7.397  0.0566  0.3061  0.0969
49995W        W92907  30.392  30.228   9.663 -0.1587  0.1913 -0.2479
49996W        W92908  31.835  31.396   7.735 -0.0185 -0.0357  0.1522
49997W        W92909  31.562  32.865   5.988  0.2228  0.3413  0.0532
49998W        W92910  31.885  31.336   8.988 -0.2528  0.1121 -0.0486
49999W        W92911  29.646  30.243   8.764 -0.0927 -0.3192 -0.6232
50000W        W92912  30.229  31.849   8.646 -0.0312 -0.1289  0.2173
50001W        W92913  31.655  31.177   8.562 -0.0324 -0.2803  0.4092
50002W        W92914  29.886  30.370   7.249 -0.0062 -0.1538  0.1260
50003W        W92915  31.450  30.538   8.389  0.1557 -0.0416  0.2326
50004W        W92916  29.602  28.737   7.852 -0.0509 -0.0204 -0.1453
50005W        W92917  30.997  33.117  10.386 -0.2777  0.3035 -0.3045
50006W        W92918  27.678  26.276   9.220 -0.4243 -0.0319 -0.2715
50007W        W92919  30.452  31.262   8.082  0.0242 -0.0013 -0.1496
50008W        W92920  30.866  31.156   9.631 -0.0153  0.2189 -0.1628
50009W        W92921  29.391  33.056  10.262  0.0264 -0.0659 -0.3436
50010W        W92922  27.312  28.443   8.350 -0.0406  0.1375  0.0921
50011W        W92923  33.183  32.087   8.363  0.1416  0.0549 -0.0452
50012W        W92924  32.728  32.723   9.076  0.2189 -0.0837 -0.0295
50013W        W92925  32.118  33.689   7.631 -0.4861  0.2806  0.1244
50014W        W92926  29.855  29.823   7.977  0.3539  0.2459 -0.0791
50015W        W92927  29.091  28.193   7.825  0.0185  0.1039 -0.0632
50016W        W92928  31.317  29.287   8.670 -0.0556 -0.1065  0.3185
50017W        W92929  31.269  30.482   7.926  0.0017  0.4109 -0.2322
50018W        W92930  32.538  30.582   8.706 -0.1325 -0.2906  0.1997
50019W        W92931  31.305  31.488   6.663 -0.2529  0.2295  0.0550
50020W        W92932  33.047  28.893   9.696  0.1973 -0.0800  0.1860
50021W        W92933  30.849  28.792   9.109  0.2041  0.0763 -0.3491
50022W        W92934  30.416  31.061   7.626  0.0259  0.0898 -0.1418
50023W        W92935  30.439  31.761   7.791 -0.0794 -0.0673 -0.1229
50024W        W92936  33.113  32.449   9.892  0.5383 -0.1666  0.0423
50025W        W92937  32.112  31.073   8.040  0.1733 -0.0325  0.1978
50026W        W92938  29.448  31.201   9.250  0.3555  0.0783 -0.0519
50027W        W92939  31.190  32.688   8.001 -0.1432  0.1283 -0.2673
50028W        W92940  29.177  30.422   8.941  0.0416  0.0836 -0.0974
50029W        W92941  29.067  30.602   7.864  0.4026  0.0914  0.0363
50030W        W92942  28.871  29.936   9.067  0.1218  0.0131  0.2422
50031W        W92943  32.169  32.114   8.742 -0.1478  0.0443 -0.2015
50032W        W92944  32.442  29.881   7.597  0.1269  0.0301 -0.0951
50033W        W92945  32.123  29.237   8.630 -0.0819  0.0126 -0.0088
50034W        W92946  30.107  31.638   8.136 -0.0766 -0.0474  0.2209
50035W        W92947  31.607  33.217   8.970  0.4255 -0.1770 -0.0598
50036W        W92948  32.302  30.718   7.232 -0.1477  0.3569  0.1608
50037W        W92949  32.625  31.220   6.540 -0.0646 -0.1671  0.0897
50038W        W92950  30.533  28.385   9.772  0.1475 -0.0225  0.0462
50039W        W92951  30.613  30.123   8.521 -0.2353  0.4297 -0.2419
50040W        W92952  29.567  28.578   9.216  0.3600 -0.1554 -0.0131
50041W        W92953  28.964  29.319   7.906 -0.1596  0.1742 -0.4715
50042W        W92954  29.488  29.081   9.299 -0.2332  0.2875 -0.0155
50043W        W92955  29.419  30.449   8.407 -0.1474  0.1100  0.0301
50044W        W92956  29.363  31.641   7.101  0.2842 -0.0160  0.0347
50045W        W92957  31.006  31.752   7.891  0.0470  0.0428  0.1073
50046W        W92958  32.407  33.723   9.234  0.1348 -0.1732  0.4549
50047W        W92959  32.694  31.838   8.655 -0.0122 -0.2288  0.4500
50048W        W92960  29.305  28.036  10.135  0.0185 -0.0122 -0.0898
50049W        W92961  30.669  30.158   7.176 -0.3332 -0.3702 -0.1827
50050W        W92962  30.288  32.883   9.332  0.0328 -0.1743 -0.0945
50051W        W92963  30.787  29.407   9.694 -0.1736  0.0079 -0.3018
50052W        W92964  28.650  29.697   8.706 -0.0904  0.3391 -0.4798
50053W        W92965  33.287  31.770   7.878  0.1411  0.0962 -0.1558
50054W        W92966  29.046  30.219   9.532 -0.1127 -0.3251  0.3368
50055W        W92967  32.997  30.822   9.887 -0.1688 -0.1141 -0.3807
50056W        W92968  31.324  31.369   9.371 -0.1132 -0.0388 -0.0515
50057W        W92969  28.743  28.442   7.488  0.0221  0.0273 -0.1396
50058W        W92970  32.444  32.449   9.412 -0.0503  0.0295  0.0281
50059W        W92971  29.975  31.901   7.649  0.0782 -0.0344  0.0516
50060W        W92972  28.393  29.859   8.199  0.0492  0.1304  0.2152
50061W        W92973  30.913  31.966   8.294 -0.1673  0.0974  0.0222
50062W        W92974  31.828  30.184   8.552  0.0284 -0.2905 -0.2119
50063W        W92975  29.285  29.969   7.192  0.0878  0.0806 -0.1220
50064W        W92976  31.145  30.122   8.579  0.0192 -0.0206 -0.0561
50065W        W92977  31.665  30.310   7.727 -0.1522  0.1248  0.1564
50066W        W92978  33.474  32.141   7.005 -0.0336  0.1887  0.0650
50067W        W92979  30.933  30.593   7.067 -0.1476  0.0932 -0.0815
50068W        W92980  30.857  29.586   7.354 -0.0859 -0.2315  0.1478
50069W        W92981  30.832  31.275   7.742 -0.0151  0.2512  0.1213
50070W        W92982  29.565  30.715   8.038  0.2536  0.2342  0.0502
50071W        W92983  31.206  29.762   6.424 -0.0562 -0.0825 -0.0430
50072W        W92984  33.544  31.897   7.491  0.1054 -0.2271  0.3812
50073W        W92985  29.964  30.582   9.774 -0.3760 -0.1702 -0.3371
50074W        W92986  32.200  31.579   6.556 -0.0570  0.1373 -0.0118
50075W        W92987  29.513  28.636   9.762 -0.3451  0.0660  0.1277
50076W        W92988  30.371  30.573   8.396 -0.0132 -0.0623  0.1326
50077W        W92989  30.567  28.940   7.860 -0.0162 -0.2661  0.2060
50078W        W92990  30.200  32.642   8.126 -0.1087 -0.0004  0.1877
50079W        W92991  29.047  27.994   8.715 -0.1847 -0.0156 -0.2674
50080W        W92992  31.649  30.643   8.793 -0.1555  0.0404 -0.2140
50081W        W92993  31.128  32.145   7.470 -0.0727  0.0426  0.2995
50082W        W92994  31.388  31.643   8.186  0.2474 -0.3056  0.0305
50083W        W92995  29.798  29.810   7.138  0.0807  0.2594 -0.2070
50084W        W92996  31.131  27.417   9.019 -0.1054  0.0956  0.0891
50085W        W92997  28.913  31.132   8.784 -0.0612 -0.3760 -0.2291
50086W        W92998  33.205  31.592   8.756 -0.0783  0.1621  0.1018
50087W        W92999  30.433  29.213   7.475  0.0273 -0.1217  0.0953
50088W        W93000  31.488  32.415   8.481  0.0206 -0.1026  0.0905
50089W        W93001  30.098  31.296   8.496  0.0069  0.2285  0.2296
50090W        W93002  29.714  29.615   9.771  0.1523  0.2176  0.2283
50091W        W93003  30.751  30.657   9.313  0.1139 -0.1379 -0.4027
50092W        W93004  30.722  32.402   5.940 -0.1447 -0.3185  0.1198
50093W        W93005  32.893  31.874   9.163  0.1939  0.0155  0.0007
50094W        W93006  29.771  32.790   8.364  0.0539 -0.1157  0.2811
50095W        W93007  34.036  28.313   9.590  0.1020  0.0071 -0.0327
50096W        W93008  29.288  31.935   8.333  0.1955  0.0444  0.0852
50097W        W93009  30.165  30.764   7.925 -0.0490  0.3836 -0.2711
50098W        W93010  29.346  30.070   7.995  0.0888  0.0871 -0.0257
50099W        W93011  31.227  29.105   9.525 -0.1399 -0.1660  0.1019
50100W        W93012  34.062  32.686   7.039 -0.0756 -0.0986 -0.0199
50101W        W93013  29.047  28.966   9.084  0.1455  0.1421  0.0278
50102W        W93014  30.568  29.052   8.679 -0.1347 -0.0880  0.0734
50103W        W93015  30.272  32.771   9.815 -0.3131 -0.3034 -0.1085
50104W        W93016  31.495  29.976   7.338 -0.1604 -0.3020  0.0480
50105W        W93017  28.828  28.971   7.536  0.2014  0.3740  0.1707
50106W        W93018  28.833  29.898  10.146  0.1921 -0.0605 -0.1546
50107W        W93019  29.752  31.429   9.633  0.6080 -0.1638 -0.0688
50108W        W93020  28.972  30.638   8.403 -0.0935  0.1210 -0.1476
50109W        W93021  31.614  32.428   7.953  0.2838 -0.2299  0.0124
50110W        W93022  29.837  30.242   8.253 -0.0009  0.0118  0.0215
50111W        W93023  29.412  30.918   8.585 -0.0338 -0.2157 -0.0302
50112W        W93024  33.510  33.888   9.360  0.2151 -0.0110  0.0514
50113W        W93025  29.433  30.390   9.926 -0.3249 -0.3014 -0.0574
50114W        W93026  28.807  29.339   9.905 -0.0439  0.2652  0.0653
50115W        W93027  30.652  29.837   9.810  0.3463  0.0015 -0.0659
50116W        W93028  33.159  31.746   9.746 -0.0220  0.2581 -0.0108
50117W        W93029  26.953  31.690   9.647  0.0252 -0.1312 -0.1854
50118W        W93030  29.088  28.959  10.137 -0.0964  0.0090 -0.2038
50119W        W93031  33.084  32.418   9.233  0.2007  0.0232 -0.1715
50120W        W93032  29.657  31.780   8.020 -0.3561 -0.1441 -0.1062
50121W        W93033  30.062  31.222   9.157  0.2552  0.1560  0.1508
50122W        W93034  28.366  31.026   9.110 -0.2421 -0.1154  0.0748
50123W        W93035  31.240  29.867   9.673 -0.1622  0.2575 -0.0555
50124W        W93036  28.621  30.439  10.262  0.3922  0.0642 -0.2175
50125W        W93037  30.686  31.898   8.795 -0.1006  0.0925  0.1031
50126W        W93038  28.518  30.249   9.799 -0.3981  0.0761  0.1810
50127W        W93039  31.892  28.856   8.806  0.0076 -0.1604  0.1595
50128W        W93040  32.127  30.950   6.384 -0.1715  0.1784  0.1219
50129W        W93041  30.954  31.086   9.060 -0.1574  0.2370 -0.1645
50130W        W93042  31.817  31.450   6.312  0.1589  0.1903  0.3075
50131W        W93043  29.704  27.270   9.574 -0.0556  0.1442  0.1869
50132W        W93044  32.541  32.438   7.427  0.2180 -0.2659 -0.1027
50133W        W93045  30.848  29.668   8.621  0.0719  0.0735  0.1891
50134W        W93046  30.646  30.671   7.917 -0.4310  0.3265 -0.2617
50135W        W93047  30.781  32.525   9.311  0.2478  0.1012 -0.0778
50136W        W93048  32.509  32.244   8.368 -0.1175  0.2338 -0.2971
50137W        W93049  30.583  31.601   8.396 -0.0778 -0.1162  0.3170
50138W        W93050  32.266  31.067   8.836 -0.2726 -0.0475 -0.1528
50139W        W93051  30.909  30.635   9.846 -0.0100  0.3454 -0.3109
50140W        W93052  32.190  31.327   8.440  0.0286 -0.0561 -0.1366
50141W        W93053  30.794  31.520   9.289 -0.2677 -0.4947  0.0032
50142W        W93054  30.482  30.784   9.734  0.1741 -0.0531 -0.2670
50143W        W93055  32.359  30.939   9.469  0.3787 -0.2094  0.0323
50144W        W93056  30.971  29.290   9.077 -0.2415  0.1155 -0.1996
50145W        W93057  30.027  33.257   9.155  0.0758 -0.1570  0.0564
50146W        W93058  31.469  30.196   6.406  0.7356 -0.0452  0.3491
50147W        W93059  29.736  30.956   9.528  0.1517  0.0272  0.1379
50148W        W93060  31.874  29.927   9.102  0.0285 -0.0691 -0.1563
50149W        W93061  31.848  31.648   8.555  0.4694  0.1167 -0.0955
50150W        W93062  28.948  29.318   8.481 -0.4013  0.1402 -0.0826
50151W        W93063  28.574  28.454   6.741 -0.0657 -0.1231 -0.0683
50152W        W93064  32.520  31.922   7.219  0.1341  0.0344 -0.0310
50153W        W93065  31.794  33.298   8.492  0.1508 -0.1385 -0.1556
50154W        W93066  30.387  29.663   8.961  0.1837 -0.2453  0.2471
50155W        W93067  28.148  28.280   9.539 -0.3303 -0.1951  0.0706
50156W        W93068  29.100  28.837   7.084  0.1465 -0.0638 -0.3110
50157W        W93069  30.226  31.274   9.720  0.0166  0.2979 -0.2532
50158W        W93070  32.808  33.475  10.018 -0.1709 -0.2590  0.0542
50159W        W93071  30.456  28.679   8.312 -0.0651  0.0249 -0.2689
50160W        W93072  29.740  31.609   9.141  0.0216  0.0172  0.0068
50161W        W93073  30.269  29.370   7.923 -0.0203 -0.3694 -0.1554
50162W        W93074  31.018  31.957   9.213  0.0915  0.4000 -0.0482
50163W        W93075  29.449  31.952  10.299  0.2758 -0.1153 -0.1809
50164W        W93076  29.864  32.271  10.293  0.0155 -0.1987 -0.2455
50165W        W93077  33.561  30.727   9.940  0.2643 -0.2404  0.1331
50166W        W93078  31.155  31.007   8.574 -0.0371 -0.2173 -0.4008
50167W        W93079  30.267  30.902   8.827 -0.1890 -0.0449  0.2133
50168W        W93080  32.487  31.067   7.706  0.0455  0.0674 -0.2921
50169W        W93081  29.861  31.113   8.093  0.0434  0.1642  0.1336
50170W        W93082  29.960  29.379   8.825  0.1134  0.2309  0.1984
50171W        W93083  28.649  27.728   8.949  0.2519  0.1337  0.1091
50172W        W93084  32.106  31.605   7.058 -0.0077  0.1348  0.0160
50173W        W93085  29.833  29.548   8.376 -0.3600 -0.1181  0.0437
50174W        W93086  29.891  32.231   8.067  0.1612 -0.0981 -0.1366
50175W        W93087  32.961  32.505   5.739 -0.0590  0.0339  0.2460
50176W        W93088  32.447  31.585   7.921 -0.1090 -0.0623 -0.1279
50177W        W93089  32.015  32.188   9.544  0.0533  0.0581 -0.0926
50178W        W93090  30.303  31.435   7.215  0.0516 -0.0742 -0.2305
50179W        W93091  30.028  29.152   9.697  0.2434  0.2000 -0.1753
50180W        W93092  28.917  32.384   8.043 -0.1509 -0.0548 -0.0804
50181W        W93093  32.984  33.379   8.571  0.3368  0.0469 -0.2782
50182W        W93094  31.568  31.778   9.581 -0.0482 -0.0330 -0.0037
50183W        W93095  31.670  29.711   7.739 -0.1645  0.1900  0.1780
50184W        W93096  33.098  29.884   9.252  0.0836  0.1578  0.0590
50185W        W93097  32.317  29.592   8.256  0.1033 -0.1353  0.0533
50186W        W93098  29.539  30.466   9.305  0.2168 -0.1029 -0.1664
50187W        W93099  30.383  28.694   7.462 -0.1669  0.1013  0.2090
50188W        W93100  31.724  33.114   7.401 -0.2856  0.0093  0.2754
50189W        W93101  28.502  30.158   8.815 -0.1763  0.0630  0.2251
50190W        W93102  29.887  30.753   8.485  0.1150  0.2226  0.1687
50191W        W93103  33.001  27.510   9.047 -0.0808  0.0092  0.2901
50192W        W93104  30.933  30.835   5.748  0.3573 -0.2229  0.1567
50193W        W93105  30.164  30.360   8.786  0.0834 -0.0730  0.0203
50194W        W93106  30.873  32.297   9.782 -0.1581  0.0910 -0.1018
50195W        W93107  29.249  31.470   8.905 -0.3009 -0.1456  0.0216
50196W        W93108  29.770  30.547  10.263 -0.0199  0.0001 -0.1813
50197W        W93109  28.881  29.742   8.226 -0.1690 -0.4103 -0.1613
50198W        W93110  31.938  30.769   7.634  0.1522 -0.1222  0.2302
50199W        W93111  31.516  31.713   9.065 -0.1716  0.2060 -0.0586
50200W        W93112  29.934  30.008   9.248  0.2947 -0.2627  0.2303
50201W        W93113  32.354  30.179   8.503  0.1052  0.0336  0.4260
50202W        W93114  32.398  31.949   9.378  0.0771  0.4053 -0.0097
50203W        W93115  27.647  28.414   9.579  0.0786  0.1433  0.0327
50204W        W93116  31.329  29.405   7.554  0.0278  0.1409 -0.1667
50205W        W93117  31.577  31.000   8.054  0.0843 -0.0854 -0.0300
50206W        W93118  30.928  30.253   9.544  0.0096  0.0025  0.0991
50207W        W93119  31.340  30.418   7.399 -0.1500 -0.1822  0.2064
50208W        W93120  29.578  30.046   7.575  0.0854  0.1042  0.0228
50209W        W93121  29.740  30.721   8.942 -0.3667  0.1177 -0.2790
50210W        W93122  29.271  29.091   7.624 -0.1304  0.2561 -0.0535
50211W        W93123  32.583  31.514   6.921  0.1093 -0.0924 -0.1319
50212W        W93124  31.763  30.636   9.618  0.1220 -0.0133 -0.5420
50213W        W93125  31.340  33.793   6.612 -0.1489 -0.2017  0.1500
50214W        W93126  32.712  31.319   8.665  0.0453  0.1843  0.1038
50215W        W93127  32.652  31.697   9.759  0.2021 -0.1204 -0.0405
50216W        W93128  30.239  28.711   9.070 -0.0397  0.2679 -0.3134
50217W        W93129  32.233  30.479   9.481 -0.1921  0.0546 -0.1860
50218W        W93130  32.911  31.250   9.555  0.1135  0.0435 -0.2369
50219W        W93131  31.195  30.538   8.873  0.0965  0.1842 -0.0715
50220W        W93132  29.765  28.894   8.799  0.2108  0.0406  0.2151
50221W        W93133  30.101  32.430   8.541 -0.2290 -0.0597  0.1372
50222W        W93134  30.853  29.333   7.769  0.2425  0.5603  0.1462
50223W        W93135  31.140  32.695   7.497  0.0728 -0.1784 -0.2195
50224W        W93136  29.254  33.037   9.717 -0.1079  0.2934 -0.1095
50225W        W93137  29.852  30.854   7.556  0.0149 -0.1133  0.1751
50226W        W93138  30.336  31.967  10.279  0.2087 -0.1857  0.0021
50227W        W93139  31.227  32.000   8.704  0.1017 -0.1140  0.1595
50228W        W93140  32.318  29.903   9.348 -0.3569  0.1142 -0.0132
50229W        W93141  29.629  29.532   9.196  0.5925 -0.3713 -0.1615
50230W        W93142  33.864  31.553   9.338 -0.5265  0.0012  0.1297
50231W        W93143  28.948  28.469   8.688  0.1670  0.0967  0.4101
50232W        W93144  32.561  29.468   8.724  0.2646 -0.0885  0.2244
50233W        W93145  32.096  30.036   8.008  0.1945 -0.1821  0.2728
50234W        W93146  27.890  29.707  10.366 -0.2096 -0.2760 -0.2093
50235W        W93147  28.942  30.224   7.476 -0.0383  0.4147 -0.0938
50236W        W93148  29.668  31.298   7.357 -0.0227  0.1820  0.1667
50237W        W93149  29.684  31.272  10.165  0.4129  0.2865 -0.3441
50238W        W93150  29.438  29.309   8.682  0.2057  0.3166 -0.0266
50239W        W93151  29.753  27.333   8.677 -0.1972 -0.2459  0.3653
50240W        W93152  32.840  30.359   6.063 -0.1936 -0.2912  0.2537
50241W        W93153  29.066  28.707   7.930  0.2402  0.2144  0.1017
50242W        W93154  28.286  28.786   8.419  0.3809  0.0270 -0.1342
50243W        W93155  32.575  32.415   6.961 -0.0736 -0.3043 -0.0261
50244W        W93156  32.295  31.818   8.341 -0.1726  0.1248 -0.0239
50245W        W93157  29.432  29.507   7.402  0.0958 -0.0664  0.0849
50246W        W93158  29.461  31.293   7.821  0.0405 -0.0664  0.1089
50247W        W93159  28.050  27.791   7.934  0.0112 -0.0695 -0.1242
50248W        W93160  31.438  32.472   9.766  0.2062  0.2110 -0.0661
50249W        W93161  31.985  32.349   8.336 -0.1982 -0.2308 -0.0877
50250W        W93162  32.585  33.250   7.274  0.0765  0.0812 -0.0102
50251W        W93163  26.889  31.689  10.246  0.2894 -0.0361 -0.1033
50252W        W93164  32.799  31.868   7.652  0.0901  0.0936  0.0829
50253W        W93165  31.827  30.824   6.950  0.0355  0.0331 -0.0774
50254W        W93166  32.674  29.515   9.297 -0.1789  0.1083 -0.2283
50255W        W93167  31.317  31.375   7.708 -0.1815  0.0881 -0.0719
50256W        W93168  32.723  30.448  10.227 -0.1181 -0.3272 -0.0527
50257W        W93169  29.713  28.146   9.609 -0.0511 -0.1661  0.2601
50258W        W93170  30.168  29.160   8.331  0.2383 -0.2640 -0.2838
50259W        W93171  31.328  32.936   7.049  0.0645 -0.1451  0.0988
50260W        W93172  29.958  28.668   9.539 -0.4860  0.0767 -0.2108
50261W        W93173  30.853  30.252   7.611  0.0894  0.1068  0.2028
50262W        W93174  31.654  32.172   8.842  0.1813 -0.3594  0.1042
50263W        W93175  29.891  30.411   7.792 -0.0690  0.2270 -0.2217
50264W        W93176  32.528  31.489   7.437  0.1367  0.1910 -0.3763
50265W        W93177  32.545  32.438   9.919 -0.1432  0.1522  0.2542
50266W        W93178  34.294   0.123   8.771 -0.2528  0.1535 -0.0165
50267W        W93179  32.891  31.406   7.808 -0.2715  0.2248  0.1312
50268W        W93180  28.157  28.948   9.716  0.1305 -0.0125  0.2311
50269W        W93181  30.315  29.755   9.481  0.1237  0.1608  0.1720
50270W        W93182  31.054  31.542   8.780 -0.1761  0.0336  0.1780
50271W        W93183  32.140  31.460   9.435 -0.1318 -0.0684  0.0956
50272W        W93184  30.457  29.671   8.302 -0.1301  0.0272 -0.0094
50273W        W93185  30.616  29.808   6.350  0.1283  0.2396 -0.1714
50274W        W93186  30.356  32.535  10.347 -0.0054 -0.0326  0.0125
50275W        W93187  31.277  30.590   9.438  0.1654  0.1747  0.0276
50276W        W93188  29.599  34.684   1.220  0.1259  0.2354 -0.1453
50277W        W93189  31.505  32.212   0.626 -0.1862 -0.1450  0.2764
50278W        W93190  32.164  34.022   0.807  0.1086  0.0313 -0.2379
50279W        W93191  28.613  31.545   0.411 -0.0187 -0.0885 -0.4708
50280W        W93192  29.380  33.595   2.305 -0.1264 -0.0600 -0.0157
50281W        W93193  31.504  33.927   0.724 -0.2198 -0.1380 -0.1082
50282W        W93194  30.605  33.812   3.185  0.1192 -0.1744 -0.1021
50283W        W93195  29.566  34.295  31.125 -0.1218 -0.3542  0.1192
50284W        W93196  30.207  32.914   2.130 -0.0215 -0.4467 -0.2907
50285W        W93197  32.020   0.246   2.484  0.2239  0.1575  0.3498
50286W        W93198  29.739   0.668   0.447  0.1503 -0.1257 -0.0460
50287W        W93199  30.668  33.182   1.281  0.1063 -0.2819  0.1908
50288W        W93200  31.522  33.883   0.129 -0.1853  0.0981  0.0734
50289W        W93201  30.300  32.973   2.696  0.3127  0.2789 -0.0987
50290W        W93202  30.496  33.674   2.631 -0.1567  0.2532 -0.0454
50291W        W93203  29.388  34.657   0.160  0.1734 -0.1106 -0.1095
50292W        W93204  29.474  34.644   2.066 -0.0611  0.0505 -0.0389
50293W        W93205  29.579  34.513   2.565  0.3729 -0.2275 -0.0680
50294W        W93206  32.331  33.364   0.976 -0.0601  0.1074  0.1292
50295W        W93207  31.803  32.993   1.035 -0.2485 -0.0007  0.0344
50296W        W93208  30.486  31.805   3.466  0.0489 -0.2037  0.1849
50297W        W93209  30.147  33.217   1.210 -0.1711  0.3227  0.0431
50298W        W93210  30.701  34.296   2.241  0.0635 -0.1118  0.0789
50299W        W93211  31.981  33.531   3.565 -0.0276  0.1811  0.0662
50300W        W93212  32.233  34.321   1.179  0.0585  0.0065 -0.2472
50301W        W93213  32.320  33.955  31.323  0.3646 -0.1409  0.1356
50302W        W93214  32.090  33.169   0.570  0.0647  0.0423 -0.0330
50303W        W93215  31.612  32.112   1.171  0.0478  0.1182 -0.2238
50304W        W93216  29.890  33.184   3.026 -0.2009  0.0567  0.1461
50305W        W93217  30.270   0.084   2.421 -0.1195 -0.0375  0.2061
50306W        W93218  30.721  32.456   0.611 -0.1665  0.0490 -0.0704
50307W        W93219  31.254  34.175   3.309 -0.1274  0.0048  0.0556
50308W        W93220  29.008   0.019   1.254 -0.1227 -0.3177  0.1835
50309W        W93221  28.342   1.070   3.428 -0.2004  0.1251  0.0412
50310W        W93222  27.799  33.905   3.550  0.1313  0.3515 -0.3170
50311W        W93223  30.645  33.535   0.315 -0.1352 -0.2101  0.1602
50312W        W93224  31.949   0.455  31.967 -0.2493 -0.0242  0.0201
50313W        W93225  32.611  32.517   1.263 -0.2369  0.0555 -0.0548
50314W        W93226  30.467  32.432   3.357 -0.1786  0.0994  0.0343
50315W        W93227  32.641  33.883   0.712  0.3038 -0.2707  0.0999
50316W        W93228  31.529  33.758   3.743  0.1733  0.1348 -0.0175
50317W        W93229  27.890  32.792   3.248 -0.0306 -0.2325 -0.1182
50318W        W93230  32.265  32.824   0.885  0.1905 -0.2906  0.1646
50319W        W93231  29.941  33.644   2.732  0.2855  0.2040 -0.0164
50320W        W93232  33.295  32.362   0.543 -0.1456  0.2445 -0.2469
50321W        W93233  33.070  33.668   0.751  0.2542  0.3567 -0.1395
50322W        W93234  29.900  33.818   3.647 -0.0689 -0.1776  0.0564
50323W        W93235  29.873  34.174   1.762  0.2995  0.0297  0.4125
50324W        W93236  29.475  32.610   2.606  0.2832 -0.2457  0.0771
50325W        W93237  29.095  32.663   3.370  0.0221  0.4957 -0.0118
50326W        W93238  30.827  32.899   3.786 -0.1219  0.4440 -0.3289
50327W        W93239  29.201  33.256   0.225 -0.2438 -0.0130 -0.0651
50328W        W93240  32.521  34.158   0.019 -0.1354  0.1256  0.2658
50329W        W93241  30.735   0.017   2.728  0.1965 -0.1615  0.2394
50330W        W93242  31.776  33.730   1.822  0.2891  0.1903 -0.0095
50331W        W93243  29.205   0.026   3.121 -0.0330 -0.2751 -0.2338
50332W        W93244  29.707  34.245   0.941  0.2468 -0.1378  0.2459
50333W        W93245  29.228  33.955   1.817 -0.0566  0.1446 -0.0226
50334W        W93246  31.867  32.844   2.355 -0.2091  0.0945  0.0518
50335W        W93247  31.933   2.092   3.235 -0.3929  0.1401  0.1492
50336W        W93248  28.938  31.800   1.284  0.3317 -0.2181  0.1151
50337W        W93249  28.803   0.189   0.695 -0.0604  0.0601  0.2577
50338W        W93250  32.731  32.852   1.685 -0.0495  0.4473  0.0180
50339W        W93251  28.830  33.637   4.907 -0.0429 -0.0162 -0.1363
50340W        W93252  31.206  34.342   1.986  0.0400 -0.0260 -0.1346
50341W        W93253  29.349  34.097   0.002 -0.2140 -0.0953  0.0219
50342W        W93254  30.391  32.761   0.414 -0.3998 -0.0684 -0.0621
50343W        W93255  32.722  33.703   0.233 -0.1856  0.1907 -0.1597
50344W        W93256  31.426  33.087   0.746 -0.0869  0.0043 -0.2529
50345W        W93257  32.960  33.417  31.649  0.3010 -0.2795  0.1339
50346W        W93258  31.272  33.256   0.132  0.0047  0.3137 -0.2410
50347W        W93259  29.553  32.766   3.056 -0.1243 -0.3393  0.1325
50348W        W93260  31.570  34.323   0.350 -0.0570 -0.0349 -0.2101
50349W        W93261  30.880  33.504   1.608 -0.0286 -0.1074  0.3754
50350W        W93262  32.163  32.406   2.943 -0.0676 -0.0550  0.0280
50351W        W93263  30.447  32.888   0.953  0.0106 -0.2248  0.1037
50352W        W93264  31.223  32.545   1.599  0.1635  0.3685  0.1957
50353W        W93265  32.293  34.219   1.884 -0.1993 -0.0168  0.2712
50354W        W93266  31.712  33.871  31.455 -0.1228 -0.3144 -0.0066
50355W        W93267  31.320   0.117   2.016 -0.0049 -0.0611 -0.0125
50356W        W93268  30.336  34.248  31.893  0.0021  0.0144 -0.0816
50357W        W93269  31.296  31.410   3.255  0.0825 -0.0675  0.0866
50358W        W93270  31.520  33.506   3.280 -0.0711 -0.0834 -0.0547
50359W        W93271  30.025  33.005  31.605  0.0540 -0.0767 -0.0057
50360W        W93272  31.156  33.000   1.260 -0.0174 -0.3082 -0.1424
50361W        W93273  31.435  32.269   2.016 -0.0726 -0.0906  0.1792
50362W        W93274  30.487   0.019   0.976 -0.1015  0.1982 -0.0772
50363W        W93275  29.188  34.233   1.161  0.2836 -0.3583 -0.0592
50364W        W93276  32.856  33.220   0.450  0.0111  0.0496 -0.0657
50365W        W93277  28.903  33.500   2.983 -0.1051  0.0784  0.0943
50366W        W93278  30.517  32.645   2.386 -0.0248 -0.0194 -0.1636
50367W        W93279  32.071  33.298   2.510  0.0227 -0.1408  0.0273
50368W        W93280  31.590  33.194  31.376  0.0399 -0.1850  0.0089
50369W        W93281  29.933   0.271   2.752  0.2486  0.0686 -0.0792
50370W        W93282  29.152   0.842  31.849 -0.2794  0.0581  0.0847
50371W        W93283  33.251  34.408   3.105 -0.0213 -0.0971 -0.2349
50372W        W93284  30.226  33.425   2.070 -0.0558 -0.0706  0.2094
50373W        W93285  29.594  33.874   0.528  0.1414 -0.0033  0.0899
50374W        W93286  29.506  33.889   4.206 -0.1529 -0.0196  0.0948
50375W        W93287  29.340  33.444   1.332 -0.1118  0.0805  0.0674
50376W        W93288  29.461  34.394   1.635  0.0198 -0.2249 -0.0713
50377W        W93289  31.483  32.755   2.026 -0.3174 -0.0037 -0.2829
50378W        W93290  31.314  32.644   2.947 -0.2988 -0.1601  0.4541
50379W        W93291  30.062  31.630   0.865 -0.2458  0.0121 -0.2641
50380W        W93292  31.439   0.968   3.531 -0.0900  0.6442  0.4702
50381W        W93293  32.513  33.084   2.574 -0.0582  0.1578 -0.1366
50382W        W93294  34.421  32.078   1.221  0.1799  0.3290 -0.2239
50383W        W93295  30.755  33.726   2.217 -0.3001  0.1924 -0.0038
50384W        W93296  33.192  34.565   3.666  0.1783  0.3536 -0.0821
50385W        W93297  32.009  33.468  31.343  0.1887  0.0370  0.2240
50386W        W93298  31.285  32.568   2.469 -0.0835  0.1544 -0.1705
50387W        W93299  30.153  31.865   1.749  0.0866 -0.0763 -0.0112
50388W        W93300  30.968  32.308   2.888 -0.0638 -0.1692 -0.3649
50389W        W93301  28.896  33.614   3.655 -0.1463  0.0896 -0.2699
50390W        W93302  30.901  33.050   0.514  0.1955 -0.1700 -0.0731
50391W        W93303  29.267  33.361   0.737 -0.1457  0.0676 -0.1948
50392W        W93304  31.229  34.387   2.827 -0.1596 -0.0779  0.2559
50393W        W93305  32.875   0.292   1.452  0.1632 -0.1006  0.1445
50394W        W93306  29.697  34.181   3.276  0.1819 -0.0185  0.1032
50395W        W93307  31.362   0.077   0.562  0.2238 -0.0472 -0.2519
50396W        W93308  30.142  33.493   3.310  0.0717 -0.1085 -0.0863
50397W        W93309  30.162  33.271   0.656  0.1625 -0.1192  0.1121
50398W        W93310  32.429  32.970   2.090  0.0344  0.0186 -0.6998
50399W        W93311  32.682  34.062   1.203  0.4261 -0.0534 -0.1844
50400W        W93312  30.951   0.739   3.730 -0.2902  0.1945 -0.3529
50401W        W93313  29.484  33.099   4.217 -0.0847  0.3042 -0.2646
50402W        W93314  33.967  31.162  30.580  0.2372 -0.0776 -0.0317
50403W        W93315  31.611  33.101   2.740 -0.0325 -0.0439 -0.0080
50404W        W93316  30.800  34.022   0.769  0.1313 -0.1898  0.1992
50405W        W93317  30.722  33.961   1.601  0.1259 -0.0347  0.0710
50406W        W93318  29.752  33.342   2.203 -0.2193 -0.0455  0.1913
50407W        W93319  30.552   0.081   3.496 -0.1360 -0.3057 -0.1198
50408W        W93320  28.136   0.298   0.072 -0.0236  0.3197 -0.0153
50409W        W93321  30.875  32.346   1.904 -0.0110 -0.3103 -0.0349
50410W        W93322  33.084  32.834   0.693 -0.3612 -0.0431 -0.0027
50411W        W93323  29.907  33.921   2.294  0.2353 -0.2206 -0.3436
50412W        W93324  30.771  34.175  31.681  0.0859  0.1197 -0.1086
50413W        W93325  29.690  34.344   0.443 -0.0901 -0.3636  0.1182
50414W        W93326  29.668  33.367   0.378 -0.2525  0.1532  0.0999
50415W        W93327  31.851  33.825   2.425  0.2824  0.0620  0.0126
50416W        W93328  30.360  31.660   2.576 -0.0652  0.0916 -0.3220
50417W        W93329  30.988  32.759   2.090 -0.0050 -0.0719 -0.0823
50418W        W93330  31.544  33.221   1.940 -0.1732  0.0292  0.0805
50419W        W93331  31.686  33.896   1.315  0.0801  0.0919 -0.0487
50420W        W93332  32.400  32.526   2.422  0.0120 -0.1783 -0.1506
50421W        W93333  28.765  33.990   2.769 -0.4258 -0.1989 -0.0648
50422W        W93334  30.700  34.311   3.761 -0.0100 -0.3688 -0.0600
50423W        W93335  30.695  32.270   1.450 -0.0916 -0.2343 -0.0203
50424W        W93336  29.853  33.714  30.349 -0.0155  0.0018 -0.1976
50425W        W93337  32.045  32.186  31.733  0.2247 -0.0042  0.0497
50426W        W93338  32.668   0.853   3.174  0.2132  0.2282 -0.2491
50427W        W93339  33.130   0.688   1.706 -0.1579 -0.2426  0.1495
50428W        W93340  29.870  33.648   1.739 -0.0489  0.0250  0.0437
50429W        W93341  30.356  33.716   1.041  0.0267  0.1501  0.0524
50430W        W93342  29.854  34.416   4.915 -0.1620  0.3225 -0.2925
50431W        W93343  31.510  32.907   4.338 -0.0243 -0.1366  0.4961
50432W        W93344  28.887  33.856   1.314 -0.3070  0.1390 -0.0484
50433W        W93345  30.252  34.027   1.489 -0.0937  0.0017  0.0677
50434W        W93346  33.765  33.810   2.014 -0.1924 -0.1143  0.0204
50435W        W93347  33.172  33.210   0.984 -0.1848  0.0306 -0.1297
50436W        W93348  28.846  33.513   0.939  0.0308  0.2000  0.2276
50437W        W93349  32.262  34.677   0.782 -0.2622  0.2221  0.3001
50438W        W93350  29.990  32.537   2.351  0.0463 -0.1189 -0.1253
50439W        W93351  33.106  33.121   2.060 -0.0297  0.2538  0.1920
50440W        W93352  30.285  34.097   2.540 -0.3634  0.0566  0.1260
50441W        W93353  31.774  34.352   0.874  0.2212 -0.0263  0.1112
50442W        W93354  29.234  33.285   3.273 -0.0724 -0.1332  0.0633
50443W        W93355  29.837  33.764   0.967  0.0679  0.2835  0.1453
50444W        W93356  33.500  33.922   3.092 -0.0759  0.2519  0.3162
50445W        W93357  30.230  34.174   0.848  0.1041  0.0223  0.1732
50446W        W93358  30.754  32.755   1.595  0.2344 -0.2731 -0.1102
50447W        W93359  30.813  32.631   1.142  0.0905  0.1502  0.2597
50448W        W93360  31.432  34.378   1.557 -0.1881 -0.1452  0.1096
50449W        W93361  30.130  34.457   2.817  0.3028  0.0965  0.2370
50450W        W93362  29.226  32.968   1.686  0.0240 -0.1138  0.2955
50451W        W93363  31.259  33.077   2.389  0.0473  0.1497  0.0417
50452W        W93364  31.951   1.418   1.601 -0.0033  0.2482 -0.3034
50453W        W93365  28.612  34.293   1.177  0.1862  0.1252 -0.2842
50454W        W93366  30.824  33.743   1.200  0.2333 -0.1048 -0.0491
50455W        W93367  30.729  34.184   2.712 -0.2530 -0.0065  0.0853
50456W        W93368  32.301  31.856   3.020 -0.0005 -0.0651 -0.0751
50457W        W93369  32.353  33.576   0.483  0.0738 -0.2554 -0.1401
50458W        W93370  31.015  33.406   2.746 -0.5135 -0.2485  0.0548
50459W        W93371  30.720  33.336   0.837  0.2106  0.1379 -0.0487
50460W        W93372  30.356  33.492   1.580  0.1691  0.1881 -0.1089
50461W        W93373  31.550  31.677   1.953  0.2497  0.0154 -0.1816
50462W        W93374  31.828  32.671   0.651  0.0066 -0.1647 -0.0467
50463W        W93375  29.715   0.631   3.056  0.2875  0.1951 -0.0229
50464W        W93376  29.431  33.592  31.964 -0.0138 -0.2042  0.3460
50465W        W93377  29.972  33.592   5.299  0.0232 -0.0102 -0.0739
50466W        W93378  29.413  33.523   2.830  0.2301  0.1653  0.2170
50467W        W93379  29.930  34.440   2.195  0.1412 -0.1314 -0.0840
50468W        W93380  29.409  32.880   1.039  0.2831  0.0304  0.0785
50469W        W93381  31.116  33.043   1.723 -0.0180 -0.0605  0.0256
50470W        W93382  28.835  34.312   1.684 -0.0217 -0.0428 -0.2878
50471W        W93383  31.275  34.330   0.771 -0.0273 -0.0352  0.1962
50472W        W93384  29.387   0.300   2.760  0.3264 -0.1087  0.0024
50473W        W93385  31.080  33.862   2.978 -0.0471 -0.2371  0.1093
50474W        W93386  29.926  33.584  31.694 -0.0059  0.0274  0.2266
50475W        W93387  31.189  34.033   2.415 -0.0395  0.2357  0.0320
50476W        W93388  28.161  34.362   0.939  0.1117  0.3383 -0.0024
50477W        W93389  33.500  33.431   1.757  0.1068  0.0780 -0.1474
50478W        W93390  31.703  34.627   2.221 -0.1435 -0.2119 -0.1270
50479W        W93391  29.382  33.810   3.650  0.0560 -0.2947  0.0736
50480W        W93392  30.019  32.379   0.398  0.1112  0.0657  0.1856
50481W        W93393  32.577  34.392   0.480 -0.2619  0.0194 -0.1093
50482W        W93394  28.483  33.903   1.595 -0.3049 -0.1344 -0.0197
50483W        W93395  31.027  34.524   1.145  0.1690 -0.1479  0.0560
50484W        W93396  31.194   1.383   3.314 -0.1985 -0.1043 -0.0291
50485W        W93397  29.606  33.991   1.408 -0.1201 -0.0879  0.1507
50486W        W93398  31.679  34.486  31.208  0.0654  0.1587  0.0398
50487W        W93399  30.660  33.238   2.401 -0.1941  0.2092 -0.3166
50488W        W93400  30.091   0.463   0.824 -0.4337  0.2491  0.2668
50489W        W93401  31.550   0.412   2.382 -0.0466 -0.2799 -0.1006
50490W        W93402  32.869  33.764   1.607  0.0144  0.0958 -0.2656
50491W        W93403  29.330  33.801   0.968 -0.0128 -0.1646  0.1723
50492W        W93404  32.228  32.943   1.374 -0.1963  0.2175  0.1728
50493W        W93405  30.354  34.681   3.926 -0.0291 -0.0383 -0.0569
50494W        W93406  32.430  33.556   3.825 -0.1171  0.4264 -0.0432
50495W        W93407  32.513   0.344   5.097 -0.1835 -0.2186  0.3010
50496W        W93408  29.227  33.382   4.541  0.2975  0.0609  0.1626
50497W        W93409  29.947  32.230   7.318  0.0005 -0.3561 -0.1700
50498W        W93410  32.130   0.134   5.583 -0.0724  0.0401 -0.0683
50499W        W93411  29.787  34.383   7.240 -0.1361  0.1753  0.0886
50500W        W93412  30.792  33.872   4.007 -0.2012 -0.1453  0.0924
50501W        W93413  29.608  32.528   5.962 -0.1271 -0.0401 -0.1987
50502W        W93414  32.299  34.562   4.723  0.0994 -0.0577 -0.0186
50503W        W93415  28.991  33.918   4.480 -0.0625 -0.0767  0.0874
50504W        W93416  30.115  33.163   6.978 -0.2107 -0.1840  0.0699
50505W        W93417  30.318  33.112   3.659  0.0049  0.0592 -0.0792
50506W        W93418  30.404  33.388   7.576 -0.0891 -0.0879 -0.1759
50507W        W93419  30.885  34.053   5.922  0.0985 -0.4950 -0.2455
50508W        W93420  30.381   1.923   3.125  0.2240  0.1396 -0.1055
50509W        W93421  28.847  33.474   6.261  0.3178  0.1314  0.2314
50510W        W93422  29.801   0.525   7.120  0.3565 -0.1555 -0.0870
50511W        W93423  30.725  34.590   6.674  0.0777 -0.0204 -0.0396
50512W        W93424  30.880   0.637   4.210 -0.1113 -0.0794 -0.1029
50513W        W93425  31.728  33.740   7.370 -0.1394 -0.0497 -0.3387
50514W        W93426  31.258   0.785   5.940 -0.0559 -0.4146  0.0660
50515W        W93427  31.854   0.004   5.154 -0.1295 -0.0277  0.0450
50516W        W93428  30.605  33.826   7.271  0.2761  0.2023 -0.1302
50517W        W93429  31.841   0.360   3.723 -0.3715 -0.0587 -0.0053
50518W        W93430  30.208  34.323   3.434  0.0373 -0.1393  0.1416
50519W        W93431  30.611  34.421   4.241  0.0622 -0.0616 -0.0450
50520W        W93432  30.346  34.234   5.030  0.1413  0.0126 -0.1927
50521W        W93433  30.674   0.325   6.404 -0.0681  0.0808  0.0760
50522W        W93434  30.289   0.587   4.741 -0.0746  0.2024  0.2710
50523W        W93435  31.396  34.455   6.104  0.1600  0.2584  0.2893
50524W        W93436  29.008  33.667   5.378 -0.2344  0.2882  0.3281
50525W        W93437  28.830  34.566   5.209 -0.3486  0.0886 -0.3172
50526W        W93438  29.388   0.831   7.268  0.0077  0.0067 -0.0280
50527W        W93439  29.176  33.759   7.114  0.3565 -0.1132  0.1565
50528W        W93440  29.735  33.246   4.900  0.0360  0.2122 -0.2228
50529W        W93441  31.589  33.325   4.576 -0.0462 -0.1264  0.1625
50530W        W93442  32.515  33.658   5.146  0.1298 -0.4051 -0.2422
50531W        W93443  32.368  33.656   6.518 -0.3410  0.2197 -0.0428
50532W        W93444  31.337   0.285   3.555  0.1960  0.0090  0.1160
50533W        W93445  30.858  33.741   8.553  0.1252 -0.2030 -0.1625
50534W        W93446  30.674  32.743   7.869 -0.5467 -0.2652 -0.4255
50535W        W93447  32.740  34.241   4.527  0.1805  0.0389  0.0265
50536W        W93448  29.910  32.741   7.324 -0.1044 -0.1758 -0.1096
50537W        W93449  32.367  31.671   4.695 -0.3669 -0.1669 -0.0527
50538W        W93450  31.721  33.327   3.961 -0.3105  0.0161 -0.3269
50539W        W93451  29.525  34.131   6.183  0.2097  0.0689 -0.0465
50540W        W93452  30.685  33.753   5.002 -0.1940 -0.0228 -0.1217
50541W        W93453  30.147   0.023   7.188  0.0495  0.2262  0.1806
50542W        W93454  29.844  32.662   6.851 -0.2235  0.0219 -0.3659
50543W        W93455  32.186  34.612   6.549  0.3546 -0.0224  0.2731
50544W        W93456  28.765  33.459   4.415 -0.1688  0.0244  0.1751
50545W        W93457  32.021  34.279   5.371 -0.0337 -0.1825  0.2137
50546W        W93458  29.956  34.220   5.951  0.2366  0.0350  0.2134
50547W        W93459  31.798  32.866   6.891 -0.2852 -0.3644 -0.1282
50548W        W93460  28.314  33.416   6.321  0.0108  0.1737 -0.2822
50549W        W93461  30.511  34.179   5.507 -0.0490  0.1342 -0.0436
50550W        W93462  30.418  33.814   4.519  0.0709 -0.0324 -0.1511
50551W        W93463  32.095  34.177   7.534 -0.1571 -0.0095 -0.2731
50552W        W93464  31.237  34.378   4.754  0.0738  0.0857 -0.0180
50553W        W93465  30.105  34.579   5.306  0.4761  0.0629  0.0227
50554W        W93466  27.807  33.201   6.498  0.3284 -0.1372  0.0072
50555W        W93467  33.288  33.090   5.130  0.1343  0.0513 -0.0125
50556W        W93468  27.938   0.273   7.569 -0.0238  0.2826  0.1896
50557W        W93469  31.592  34.324   8.353 -0.3005 -0.1396 -0.0039
50558W        W93470  30.330   0.874   4.332 -0.0196 -0.0746  0.2615
50559W        W93471  31.103  33.171   6.182  0.3358 -0.2110  0.0763
50560W        W93472  31.997  34.439   3.816  0.1271  0.0509 -0.0605
50561W        W93473  31.250  32.485   4.668 -0.0073  0.1461 -0.1376
50562W        W93474  30.741  33.349   3.428 -0.1114 -0.1628 -0.1610
50563W        W93475  30.881  32.873   2.730  0.0860 -0.1416 -0.2940
50564W        W93476  30.179  33.912   7.525  0.2581  0.4975 -0.1181
50565W        W93477  31.057  33.772   3.532 -0.0427 -0.2829 -0.4384
50566W        W93478  30.271  32.331   4.647 -0.0412 -0.1500 -0.0459
50567W        W93479  32.328  33.086   6.300 -0.4112  0.1397  0.0290
50568W        W93480  30.828  34.213   6.998 -0.1930  0.0045 -0.1065
50569W        W93481  31.193  33.841   7.080  0.3017 -0.2251 -0.1710
50570W        W93482  32.372  34.418   5.654 -0.1207  0.1424  0.1285
50571W        W93483  31.999   0.298   4.797 -0.1117 -0.1325  0.1428
50572W        W93484  32.170   0.158   6.096 -0.3031  0.1199  0.0766
50573W        W93485  29.919  33.979   4.460 -0.0395  0.1208  0.0176
50574W        W93486  31.752  34.010   7.862 -0.2559  0.1545  0.1524
50575W        W93487  31.445  32.743   6.571 -0.0704 -0.2167  0.2373
50576W        W93488  30.767  32.612   4.560 -0.1083 -0.0015  0.3391
50577W        W93489  30.696  32.929   5.939 -0.2077  0.0878 -0.3123
50578W        W93490  32.085  33.031   5.888  0.3402 -0.0273  0.0058
50579W        W93491  30.712  34.267   3.256 -0.2065  0.0887  0.0413
50580W        W93492  29.742  33.043   6.074  0.2822 -0.1652  0.0112
50581W        W93493  31.448  33.100   5.585 -0.1673  0.0288 -0.0645
50582W        W93494  30.092  33.537   6.232 -0.0787  0.1454 -0.4583
50583W        W93495  31.241  33.527   5.836  0.1224 -0.1608 -0.1686
50584W        W93496  31.254  34.632   6.520 -0.1686  0.2023 -0.1223
50585W        W93497  31.982  32.516   4.449 -0.5584  0.4325 -0.0166
50586W        W93498  29.233   0.540   6.364  0.0044 -0.0799 -0.1747
50587W        W93499  29.820  33.923   4.959  0.2189  0.0559 -0.1385
50588W        W93500  32.417   0.544   6.757 -0.1330 -0.1327 -0.1992
50589W        W93501  31.266  32.295   5.834 -0.2779 -0.0485 -0.2093
50590W        W93502  29.168   0.772   2.625  0.1372  0.3190  0.2691
50591W        W93503  30.031  34.370   7.708  0.1487 -0.1066  0.2033
50592W        W93504  29.287  33.981   4.872 -0.2385  0.1269  0.0640
50593W        W93505  29.381  34.354   5.315  0.0331  0.0268  0.0725
50594W        W93506  30.536  34.073   6.244  0.1041 -0.1340  0.3363
50595W        W93507  30.233   0.274   6.629 -0.0646  0.3313  0.0060
50596W        W93508  30.352  33.829   5.847  0.0554  0.0206 -0.3867
50597W        W93509  31.635  34.258   7.367 -0.0714 -0.2095 -0.2478
50598W        W93510  31.677  33.315   5.969 -0.1386 -0.4347 -0.2065
50599W        W93511  32.281  33.935   6.031 -0.0835  0.0994 -0.1905
50600W        W93512  31.169  34.592   7.002 -0.1499  0.2175 -0.0415
50601W        W93513  31.971  33.414   6.662 -0.2625 -0.2238 -0.0175
50602W        W93514  32.297   0.070   3.510 -0.0979  0.2243 -0.3064
50603W        W93515  32.096  32.825   7.563 -0.0793 -0.0007  0.0710
50604W        W93516  29.388  32.950   7.645 -0.0435 -0.2123 -0.2174
50605W        W93517  28.910  33.329   7.647  0.0500  0.0218 -0.1288
50606W        W93518  30.898  34.379   8.004  0.0062 -0.0836 -0.3773
50607W        W93519  31.914  33.374   5.491 -0.0062 -0.2431  0.0559
50608W        W93520  29.031  32.584   3.944 -0.1698 -0.1027 -0.0494
50609W        W93521  29.149   2.018   5.921 -0.1735 -0.0201 -0.4786
50610W        W93522  30.865  34.080   4.561 -0.2940  0.2064  0.1069
50611W        W93523  29.812   0.781   5.987 -0.0071  0.0682  0.2917
50612W        W93524  31.090   0.326   5.556 -0.4369 -0.3528  0.0132
50613W        W93525  30.615  33.878   7.799  0.0513 -0.0174 -0.0897
50614W        W93526  31.409  34.156   5.149 -0.4948  0.3532  0.1995
50615W        W93527  31.881  34.242   6.063 -0.0019 -0.0710 -0.2846
50616W        W93528  30.829  33.719   6.736 -0.0470  0.0965 -0.0399
50617W        W93529  30.350  34.271   7.158  0.2404  0.1116  0.1729
50618W        W93530  30.375  32.024   8.230  0.1235 -0.2338 -0.1552
50619W        W93531  32.348  33.631   4.296 -0.1072 -0.3353 -0.0268
50620W        W93532  32.314  33.908   5.529 -0.1820  0.4812  0.2817
50621W        W93533  31.678  33.794   4.274  0.1905  0.0785  0.2180
50622W        W93534  31.162  33.116   3.082  0.2320 -0.2039 -0.2914
50623W        W93535  29.315  34.202   7.137 -0.1795 -0.3207 -0.0409
50624W        W93536  31.830  34.601   7.742  0.1905  0.1203  0.1196
50625W        W93537  29.879  33.412   4.437 -0.0437 -0.2380  0.1429
50626W        W93538  31.246  32.032   6.651  0.0525  0.3085 -0.0208
50627W        W93539  30.919  34.257   5.169 -0.0064 -0.0017  0.0146
50628W        W93540  27.580  31.976   5.176 -0.0970 -0.1945 -0.0804
50629W        W93541  30.127  34.442   4.503  0.2887 -0.0079  0.1056
50630W        W93542  30.125   1.109   4.758  0.0753 -0.1740  0.1021
50631W        W93543  30.862  32.840   5.083 -0.0161  0.1134  0.2914
50632W        W93544  32.519  34.116   7.168 -0.0272  0.2971 -0.1642
50633W        W93545  31.092  34.575   4.216  0.2034  0.0773  0.1631
50634W        W93546  30.596  33.329   6.296  0.1895  0.0351  0.3189
50635W        W93547  32.406   0.323   4.499  0.2900 -0.1065  0.1482
50636W        W93548  29.708   0.102   6.848  0.0284 -0.0552 -0.0003
50637W        W93549  32.077  34.304   8.070  0.0454  0.2688  0.1639
50638W        W93550  29.669   0.123   5.143 -0.0522  0.3159  0.1898
50639W        W93551  29.739  34.287   8.075  0.1973  0.0082 -0.3053
50640W        W93552  30.143  33.146   5.198  0.2284  0.0826 -0.0375
50641W        W93553  31.596  34.334   4.384 -0.2658  0.1431  0.0281
50642W        W93554  31.782  34.203   2.003  0.0644 -0.1854  0.1584
50643W        W93555  32.538  34.612   4.265  0.0040  0.0638 -0.1620
50644W        W93556  32.055  33.077   4.349 -0.0312 -0.0906 -0.1898
50645W        W93557  30.442  33.967   6.786  0.3606 -0.0456  0.0401
50646W        W93558  30.188  33.641   4.110 -0.1824  0.1664 -0.0702
50647W        W93559  30.211   0.990   6.388 -0.0509  0.2117  0.0008
50648W        W93560  32.585  33.717   7.510  0.5717  0.0844 -0.1473
50649W        W93561  29.551  34.350   4.473 -0.2348 -0.0564 -0.1079
50650W        W93562  30.957  34.504   5.662  0.0159  0.2283 -0.2637
50651W        W93563  32.483  34.149   6.599 -0.1085 -0.1049  0.1366
50652W        W93564  30.127  34.466   6.705 -0.0909 -0.0942  0.2457
50653W        W93565  28.180  32.522   5.905 -0.0190 -0.1728 -0.0497
50654W        W93566  33.245  33.737   4.639 -0.0758  0.2989  0.1967
50655W        W93567  30.685   0.460   8.539 -0.1845 -0.0283 -0.0990
50656W        W93568  33.457  32.570   5.589  0.0768 -0.2977  0.1804
50657W        W93569  30.654   0.320   4.972  0.2127 -0.0248  0.1777
50658W        W93570  31.450  33.675   5.301 -0.2547 -0.0242 -0.1102
50659W        W93571  29.732  33.174   7.973  0.0601  0.2378 -0.0879
50660W        W93572  31.243  34.022   4.231 -0.0868 -0.0695 -0.2256
50661W        W93573  32.490   0.605   6.164 -0.1293  0.1190 -0.1700
50662W        W93574  31.613  34.586   3.303  0.3739  0.1579 -0.1136
50663W        W93575  29.214  33.144   5.041 -0.0137 -0.1153  0.0956
50664W        W93576  30.389  33.228   4.436 -0.1697  0.0340 -0.0327
50665W        W93577  30.604  34.678   5.309 -0.2022 -0.1681 -0.2875
50666W        W93578  30.410  34.583   6.238 -0.0925  0.1902  0.0407
50667W        W93579  28.745  33.110   4.868  0.0783 -0.2204 -0.2445
50668W        W93580  32.333  32.868   4.784 -0.3289 -0.0887  0.1105
50669W        W93581  31.613   0.464   5.118 -0.2142  0.0520 -0.1097
50670W        W93582  29.031  33.995   6.298  0.0730 -0.1247 -0.0906
50671W        W93583  31.248  32.314   5.151 -0.0445 -0.0695  0.0106
50672W        W93584  30.875  34.590   6.179 -0.1346 -0.1129  0.0905
50673W        W93585  32.798  34.595   4.971  0.2623 -0.0527 -0.1151
50674W        W93586  31.375   0.451   6.541 -0.0326  0.0374 -0.0190
50675W        W93587  32.041  31.971   6.249 -0.0172  0.4571  0.2655
50676W        W93588  30.734  33.317   4.814  0.1014  0.1329  0.0435
50677W        W93589  29.975  34.033   6.967 -0.0126 -0.2160  0.2904
50678W        W93590  31.933  32.905   5.444 -0.0153 -0.0093  0.2672
50679W        W93591  31.091  32.447   4.142 -0.0223  0.1141 -0.2090
50680W        W93592  29.673   0.355   6.047  0.4311  0.1253 -0.3429
50681W        W93593  30.016   0.322   3.325  0.0325 -0.0641  0.1794
50682W        W93594  30.255  31.800   6.771  0.1644 -0.0545 -0.0253
50683W        W93595  30.181  33.627   7.123 -0.1306  0.0070  0.2150
50684W        W93596  28.458  33.804   6.180  0.0099  0.4317  0.1884
50685W        W93597  29.214  34.669   4.869 -0.1260  0.1495  0.1511
50686W        W93598  29.162  32.917   6.908  0.3673 -0.0518  0.1976
50687W        W93599  29.925  32.605   5.483  0.2641 -0.2265  0.2416
50688W        W93600  30.533  32.918   5.491  0.3428 -0.3010  0.1192
50689W        W93601  30.635   0.401   7.221 -0.2316 -0.3931  0.0434
50690W        W93602  30.829  33.076   7.542  0.1946  0.0152  0.1465
50691W        W93603  27.051  33.369   4.479 -0.0951  0.1008  0.3084
50692W        W93604  29.462  33.541   5.374  0.0402 -0.0523  0.0128
50693W        W93605  29.772  33.116   8.749  0.0359  0.2920  0.1840
50694W        W93606  31.130  33.245   5.201 -0.1145  0.2080 -0.1227
50695W        W93607  31.552  34.688   4.039 -0.2414 -0.0537 -0.3443
50696W        W93608  30.465  33.702   8.302  0.1590 -0.0354  0.0021
50697W        W93609  29.295  33.680   6.012  0.1963  0.1835  0.3486
50698W        W93610  30.898  33.095   4.348 -0.2730 -0.2596 -0.4071
50699W        W93611  28.897   0.212   6.596  0.3619  0.0724 -0.0882
50700W        W93612  30.037  34.048   5.451 -0.0875  0.2545  0.0650
50701W        W93613  31.210   0.258   6.064 -0.1949 -0.2313  0.0854
50702W        W93614  32.082  34.163   4.301 -0.1742 -0.1895 -0.3990
50703W        W93615  32.852  33.769   3.664  0.1219  0.1770  0.0116
50704W        W93616  29.271  33.106   6.171 -0.1445  0.0547 -0.1038
50705W        W93617  29.189  34.201   4.045  0.0894  0.0742 -0.0785
50706W        W93618  29.715  34.589   3.579 -0.0762 -0.0969  0.1849
50707W        W93619  32.745  33.736   6.157 -0.0809 -0.0657 -0.1571
50708W        W93620  30.874  32.737   7.052  0.1283 -0.0733  0.1408
50709W        W93621  31.180  32.598   3.476 -0.2678 -0.2376 -0.1514
50710W        W93622  30.682  34.312   8.856 -0.1979 -0.1154 -0.0816
50711W        W93623  30.950  34.169   7.521 -0.4212  0.0158 -0.0515
50712W        W93624  33.226   0.378   7.940  0.1752  0.1704  0.2097
50713W        W93625  29.313  33.825   9.393  0.2228 -0.2310  0.0128
50714W        W93626  30.778   0.183   8.986 -0.0992 -0.0709 -0.2650
50715W        W93627  31.239  33.422   9.862  0.0731 -0.2060 -0.2284
50716W        W93628  31.895  31.885   8.050  0.0310 -0.0666  0.1226
50717W        W93629  27.967  31.883   9.386  0.0017  0.1444 -0.1731
50718W        W93630  31.609   0.061   9.311  0.2562  0.2004 -0.1338
50719W        W93631  28.823  33.651   9.138 -0.2082 -0.1984 -0.1476
50720W        W93632  30.653  34.223   8.361 -0.2675 -0.0022  0.1180
50721W        W93633  31.983  33.925   8.444  0.2545  0.1346 -0.1583
50722W        W93634  29.637  33.525   9.102  0.1278  0.1663  0.1266
50723W        W93635  29.742   0.069   7.781 -0.0665 -0.2922  0.3585
50724W        W93636  29.192  33.239   8.083  0.3711 -0.0460  0.1486
50725W        W93637  29.851  33.922   9.372 -0.2580 -0.0533  0.1874
50726W        W93638  32.828  32.144   9.639  0.1895  0.0739 -0.1548
50727W        W93639  31.118  34.267   8.617 -0.2116 -0.1728  0.0074
50728W        W93640  31.076   1.066   8.567 -0.3748  0.0323  0.0537
50729W        W93641  32.983   0.071   9.515  0.1286  0.2327  0.0644
50730W        W93642  32.506  33.981   8.468  0.1279  0.1187  0.1148
50731W        W93643  31.632  33.539   8.110 -0.2493 -0.0146 -0.0750
50732W        W93644  31.660  34.013   6.917 -0.0819 -0.3507 -0.0528
50733W        W93645  30.759  32.860   8.892  0.1248  0.1964  0.2197
50734W        W93646  30.610  33.263   9.231  0.1652 -0.0750  0.3698
50735W        W93647  31.081   1.035   7.549  0.1596  0.0274  0.0503
50736W        W93648  32.055  32.952  10.222  0.4098  0.1575  0.1315
50737W        W93649  31.055  33.253   8.894  0.1469 -0.0615  0.0734
50738W        W93650  30.598  33.279   8.590  0.3382 -0.1096 -0.3539
50739W        W93651  30.418  32.930   7.344 -0.0778 -0.1371 -0.0267
50740W        W93652  33.382  34.273  10.085  0.2482 -0.1899  0.1170
50741W        W93653  31.404  33.544   8.638 -0.0447 -0.0912  0.0452
50742W        W93654  32.263  32.580   8.015  0.0910 -0.0634 -0.2088
50743W        W93655  33.092  33.876   8.353 -0.2599 -0.4415  0.0219
50744W        W93656  29.891  31.821   9.989 -0.1157  0.4253  0.0777
50745W        W93657  32.277   0.455   7.714  0.0467  0.0587 -0.1358
50746W        W93658  31.407  32.913   8.446 -0.1482  0.4304  0.0986
50747W        W93659  31.714  34.177   8.820  0.1018 -0.0193 -0.0541
50748W        W93660  27.040  33.310   9.915 -0.1266  0.0422  0.3680
50749W        W93661  29.885  33.212  10.023 -0.1364 -0.5095  0.2369
50750W        W93662  30.407  32.416   8.944  0.0511 -0.0721 -0.2516
50751W        W93663  30.121  33.212   8.282  0.0356 -0.0506 -0.3594
50752W        W93664  32.600  34.225   9.422  0.1188  0.2594  0.0156
50753W        W93665  29.646  34.269   8.565 -0.2056  0.0244 -0.3469
50754W        W93666  29.333  34.540   9.573 -0.3903  0.1005 -0.0309
50755W        W93667  30.963  34.027  10.021 -0.0128  0.1614  0.2297
50756W        W93668  30.761  32.876   8.384 -0.1080 -0.1910 -0.0264
50757W        W93669  32.061  33.195   9.744  0.1074  0.1498  0.0338
50758W        W93670  29.335  32.898   8.612  0.0328 -0.0964  0.1171
50759W        W93671  29.299  33.865   8.812 -0.2145  0.2189  0.3336
50760W        W93672  31.666  32.920   9.388  0.0562 -0.5136  0.0315
50761W        W93673  30.111  33.496   8.659 -0.2475  0.0346  0.1697
50762W        W93674  31.011  32.413   8.854  0.1338 -0.0338  0.0561
50763W        W93675  32.432  33.312   7.805  0.1323  0.2291  0.0396
50764W        W93676  31.299  33.385   7.393 -0.4077  0.3520 -0.0764
50765W        W93677  31.607  33.432   6.977  0.0882  0.2091  0.1888
50766W        W93678  31.340  34.327   7.744 -0.0626  0.1124 -0.1028
50767W        W93679  29.612  32.190   9.842 -0.1148  0.0798  0.0566
50768W        W93680  29.889  34.564   8.896 -0.0065 -0.1775  0.3312
50769W        W93681  31.297  33.923   8.994  0.1027  0.2985  0.0384
50770W        W93682  32.124  33.685   9.704  0.0625  0.1579 -0.4532
50771W        W93683  31.134  32.921   9.707 -0.1605 -0.2947  0.1737
50772W        W93684  32.209  33.613   8.155 -0.1348  0.3179  0.5554
50773W        W93685  32.279   0.651   9.828 -0.0512  0.3661 -0.0594
50774W        W93686  30.914   0.365   8.131 -0.0533 -0.0085 -0.3289
50775W        W93687  31.835  32.217  10.091  0.2113  0.0352  0.4817
50776W        W93688  31.964  33.212   7.924  0.0202 -0.0037 -0.0865
50777W        W93689  31.913  31.734   9.917 -0.0027  0.1307  0.2208
50778W        W93690  31.592  32.891   7.770  0.0560 -0.1171 -0.0269
50779W        W93691  31.063  33.279   8.386 -0.2346  0.1362 -0.1737
50780W        W93692  28.404  33.514   8.796  0.0368 -0.1734  0.0305
50781W        W93693  32.959  33.757   9.379  0.2548  0.3176  0.1396
50782W        W93694  29.586  32.977   9.179 -0.1310 -0.1686  0.0291
50783W        W93695  31.507  32.258   9.312 -0.1017  0.0395 -0.1018
50784W        W93696  31.609  32.555   7.360  0.1138 -0.1354  0.1079
50785W        W93697  28.899  33.291   8.658 -0.0396 -0.1916  0.2639
50786W        W93698  31.279   0.817   9.656  0.1822  0.0856  0.1063
50787W        W93699  31.303  33.629  10.292 -0.0782  0.0059 -0.1637
50788W        W93700  29.316  33.890   8.228  0.1617  0.5661 -0.0984
50789W        W93701  32.639  33.884   9.774 -0.2063  0.0004  0.4986
50790W        W93702  30.184  33.376   9.584  0.0426  0.1684 -0.1085
50791W        W93703  30.398  33.079  10.275  0.0317 -0.1759  0.0984
50792W        W93704  31.195  33.896   9.485 -0.2552 -0.1627  0.0111
50793W        W93705  30.781  33.503  10.096 -0.1259  0.1110 -0.0811
50794W        W93706  30.396  31.763   9.689 -0.2358  0.3322 -0.1788
50795W        W93707  31.247  32.652  10.175  0.2249  0.1271  0.0048
50796W        W93708  32.219  34.029   8.913  0.1092  0.2427 -0.2110
50797W        W93709  32.144   0.125   8.094 -0.1739 -0.1690 -0.0537
50798W        W93710  31.544   0.275   6.979  0.0844  0.0835  0.0911
50799W        W93711  28.840  31.757   9.323  0.0137 -0.0789 -0.2419
50800W        W93712  31.873  32.825   8.234 -0.1082  0.0195  0.0061
50801W        W93713  29.848  32.976   9.603  0.0299 -0.1124  0.1584
50802W        W93714  29.809  33.910   8.875 -0.0146  0.0868 -0.3890
50803W        W93715  32.071  33.375   9.257  0.2659 -0.1631  0.0005
50804W        W93716  29.878  34.443   9.378  0.2201 -0.2526  0.2842
50805W        W93717  31.544  33.895   9.827  0.2995 -0.2074  0.1883
50806W        W93718  31.343  33.772   7.751  0.0534 -0.1201 -0.5042
50807W        W93719  32.449  33.975   7.897  0.1672  0.0808 -0.0160
50808W        W93720  33.439   0.082   9.242  0.0606 -0.2384 -0.0891
50809W        W93721  32.147   0.032   8.943 -0.0877  0.0608  0.0055
50810W        W93722  32.120   0.494   9.142 -0.0640 -0.1825 -0.1226
50811W        W93723  30.661  33.212   9.744 -0.2284 -0.0990  0.0996
50812W        W93724  31.226  32.169   8.017 -0.0457 -0.0792 -0.0123
50813W        W93725  31.165  33.318   9.361  0.3804  0.2180  0.0212
50814W        W93726  31.971  31.894   9.161  0.0877 -0.1740 -0.1626
50815W        W93727  28.979   0.008   7.046  0.0095 -0.1565  0.1631
50816W        W93728  30.017  33.979   8.427 -0.0288  0.2955 -0.2809
50817W        W93729  30.870  33.575   7.554 -0.1646  0.0774  0.2368
50818W        W93730  32.071  32.683   9.707  0.1565  0.2269 -0.3653
50819W        W93731  32.792  31.911  10.247  0.0588  0.0283 -0.1187
50820W        W93732  30.227  34.218   9.056 -0.0622 -0.1010  0.1894
50821W        W93733  32.978  34.347   9.721  0.2966  0.0501  0.1633
50822W        W93734  29.204  34.140   9.836 -0.1687  0.1457 -0.2544
50823W        W93735  30.755  33.666   9.557  0.1274  0.2797  0.1433
50824W        W93736  30.426  34.610   8.164 -0.3617 -0.1104 -0.3558
50825W        W93737  31.249  34.054   8.169  0.0178 -0.2226  0.1155
50826W        W93738  29.741   0.432  10.277 -0.1718  0.1214 -0.0316
50827W        W93739  32.723  33.621   8.091 -0.2917 -0.1336  0.3139
50828W        W93740  31.416  34.187  10.225  0.3315  0.0242  0.1813
50829W        W93741  29.867  33.310   7.510 -0.1850 -0.3655  0.0335
50830W        W93742  30.118  33.614   7.921  0.2548 -0.1900  0.1404
50831W        W93743  30.254   0.018   9.172 -0.3070  0.2429 -0.0890
50832W        W93744  30.749  32.772  10.023  0.1689 -0.0381  0.0338
50833W        W93745  31.070  34.406   9.164 -0.2137  0.2303  0.1078
50834W        W93746  29.709  32.585   7.751  0.1541 -0.2290  0.3251
50835W        W93747  33.289  33.891   8.907 -0.2916 -0.2651  0.3933
50836W        W93748  31.520  33.027  10.039  0.2836 -0.0081  0.0110
50837W        W93749  31.075  32.149  10.188 -0.0358  0.0422 -0.0962
50838W        W93750  34.174  33.858   8.731 -0.3400 -0.0202  0.0069
50839W        W93751  30.150  32.227   9.877 -0.3403  0.0678 -0.3037
50840W        W93752  31.315   0.923   6.862  0.0410 -0.0453 -0.2884
50841W        W93753  30.657  34.601   7.238  0.1940 -0.2335 -0.0122
50842W        W93754  30.280  33.689   9.156  0.0901 -0.0451 -0.0097
50843W        W93755  32.333  33.568   8.648 -0.0273 -0.0184 -0.2796
50844W        W93756  29.200  33.918   7.623 -0.0919 -0.2774  0.1178
50845W        W93757  29.708  34.170   9.825 -0.0653  0.0494  0.0592
50846W        W93758  30.124  34.316  10.032  0.0573  0.0660 -0.3078
50847W        W93759  31.715   0.648   9.470 -0.1282 -0.1447 -0.2050
50848W        W93760  33.033  34.376   8.149 -0.0138  0.4053 -0.1802
50849W        W93761  30.543  31.088  10.214 -0.0195  0.2684  0.3636
50850W        W93762  31.259  32.818   9.140  0.2523  0.3069 -0.1012
50851W        W93763  31.613  33.631   9.341 -0.1810  0.3089  0.3790
50852W        W93764  32.326  33.595  10.127  0.0840  0.1407 -0.4237
50853W        W93765  32.640  34.324   8.945 -0.1006 -0.1768 -0.0043
50854W        W93766  30.369  32.200   9.433 -0.3988 -0.2281 -0.2349
50855W        W93767  32.737  33.845   8.918  0.1251  0.1893 -0.2942
50856W        W93768  33.079  32.187   7.326  0.0157 -0.0925 -0.0901
50857W        W93769  34.499  32.510   9.362  0.2679  0.3719 -0.3864
50858W        W93770  29.559  33.432   8.357  0.0729  0.0286  0.1895
50859W        W93771  28.743   1.062  10.077  0.3505 -0.0423  0.0912
50860W        W93772  29.617  32.345   8.545  0.1408  0.1833  0.1287
50861W        W93773  28.566  33.561  10.063 -0.1145  0.1112 -0.2978
50862W        W93774  28.501  31.522   8.861 -0.2951  0.1528 -0.0923
50863W        W93775  30.967  33.670   8.074  0.6884  0.1846 -0.1229
50864W        W93776  29.876  32.577   9.006 -0.2007  0.4022 -0.5017
50865W        W93777  32.044  34.501   9.379 -0.2060  0.2684 -0.2998
50866W        W93778  32.189  30.963  10.046  0.0563  0.0500  0.1039
50867W        W93779  33.802  33.436   9.500 -0.1242 -0.0215 -0.0852
50868W        W93780  30.935   1.844   8.904  0.1820  0.0459 -0.2104
50869W        W93781  30.627  32.403   8.495 -0.0525 -0.0884 -0.2194
50870W        W93782  32.272  33.086   8.346 -0.5042 -0.0956 -0.0317
50871W        W93783  27.834  33.876  10.119 -0.0048 -0.2029  0.0644
50872W        W93784  30.969   0.090   7.640  0.1138 -0.0529  0.0999
50873W        W93785  31.171   0.541   8.769 -0.0889 -0.1768 -0.4225
50874W        W93786  32.475   0.809   7.962  0.0032 -0.4388  0.0399
50875W        W93787  29.963  31.897   9.515 -0.0386  0.0552  0.0395
50876W        W93788  28.581  34.003   8.144 -0.1278  0.2021  0.1440
50877W        W93789  30.576   0.960   8.696  0.2274  0.0709 -0.2743
50878W        W93790  32.326  31.998   9.928 -0.0965 -0.0590  0.0385
50879W        W93791  30.252  32.917   8.723 -0.0295  0.0631  0.0990
50880W        W93792  31.136  33.179   7.911  0.1094  0.1111  0.0552
50881W        W93793   0.132   3.127   2.646  0.1438  0.0704  0.3312
50882W        W93794  33.825   0.811   0.102  0.4183  0.0883  0.1261
50883W        W93795  34.476   0.207   2.031  0.2310  0.1289 -0.0237
50884W        W93796  34.438  34.471   1.735  0.1825  0.2880 -0.1543
50885W        W93797   0.367   2.382   2.082 -0.0895  0.1157 -0.0845
50886W        W93798  34.134   3.221   2.187  0.1521  0.0643  0.1661
50887W        W93799  34.015  34.509   0.541  0.2128  0.1372  0.1229
50888W        W93800  33.290  33.913   1.789  0.1240  0.0706  0.0947
50889W        W93801  31.926   1.168   0.147  0.0125  0.0558  0.0322
50890W        W93802  32.962   1.243   0.317  0.2802 -0.1407  0.0371
50891W        W93803  34.568   3.273   0.122 -0.0073 -0.2709 -0.4066
50892W        W93804  33.958   0.032   2.020  0.0288 -0.0816  0.3224
50893W        W93805   0.680   3.079   1.912 -0.2637  0.0290  0.7643
50894W        W93806  33.253   1.393  31.711  0.0446 -0.0803  0.0133
50895W        W93807  33.737   0.941   0.682 -0.0343 -0.1092  0.0081
50896W        W93808  33.987   0.538   0.560  0.1349 -0.1547  0.3438
50897W        W93809   1.280   3.126   1.370  0.2602 -0.0027 -0.2538
50898W        W93810   1.031   3.824   1.519 -0.1499  0.0921 -0.0888
50899W        W93811  33.239   1.094   0.681 -0.1807 -0.0583  0.0859
50900W        W93812  32.088   3.158   1.550  0.2487 -0.1134 -0.4569
50901W        W93813   0.974   3.358   0.951  0.3138 -0.0855  0.1887
50902W        W93814  32.650   3.709   3.564  0.2969  0.1095 -0.1747
50903W        W93815  32.478   4.058  31.915 -0.1634 -0.2957  0.0640
50904W        W93816  32.889   2.532   2.848  0.0511  0.0295  0.0348
50905W        W93817  33.479   4.234  30.499  0.1181 -0.2909 -0.2542
50906W        W93818   0.243   2.897   2.096 -0.1298 -0.3779 -0.1516
50907W        W93819  32.586   3.239   3.437  0.1245 -0.2529 -0.1351
50908W        W93820  31.405   1.977   2.490  0.1350  0.4655  0.1524
50909W        W93821  33.464   3.961   2.023  0.7460  0.4571 -0.0071
50910W        W93822  33.397   1.153   0.182 -0.3079 -0.3227  0.2137
50911W        W93823   0.186   1.991   2.398  0.2999  0.0165 -0.0381
50912W        W93824  33.618   3.838   2.530 -0.4175  0.2206  0.1587
50913W        W93825  33.998   1.547   3.183  0.0288  0.2009 -0.1714
50914W        W93826  34.380   3.066   3.198  0.3602  0.1234 -0.2511
50915W        W93827  33.225   0.224   0.398  0.0731  0.0401  0.1711
50916W        W93828  32.362   0.233   0.280  0.1491  0.2087  0.1222
50917W        W93829  31.866   3.315   2.584 -0.0867 -0.0333 -0.2152
50918W        W93830  34.256   2.824   1.834 -0.4261 -0.0778 -0.1139
50919W        W93831  33.734   0.230   0.314 -0.0660 -0.0819  0.0817
50920W        W93832  32.450   2.600   2.271  0.0703  0.1817  0.2822
50921W        W93833  34.185   2.206   1.732  0.2735  0.1441 -0.1410
50922W        W93834  33.342   1.880   1.045 -0.0132  0.0934  0.1075
50923W        W93835   1.751   1.838   1.273  0.3034  0.1734 -0.2872
50924W        W93836  32.830   3.066   2.702  0.1980 -0.0866  0.4095
50925W        W93837  34.138   0.492   3.787  0.0694  0.0050 -0.2085
50926W        W93838   0.715   3.720   3.351  0.1357  0.2006 -0.0993
50927W        W93839  33.332   3.214   0.801  0.1473  0.1174 -0.3954
50928W        W93840  33.815   2.191   2.195  0.0070 -0.2315  0.0202
50929W        W93841  31.207   1.442   0.759  0.0074  0.1793 -0.0587
50930W        W93842  33.780  33.408   1.288  0.0670 -0.2442  0.1380
50931W        W93843  33.863   3.880   1.692  0.3359  0.1935 -0.2242
50932W        W93844  33.299   0.766   2.378 -0.1306 -0.0431  0.1564
50933W        W93845  32.959   2.674   1.066 -0.0730 -0.0107 -0.2139
50934W        W93846  32.091   1.867   1.193  0.0565  0.2144 -0.2488
50935W        W93847  34.082   0.850   1.219  0.1444  0.0718  0.0561
50936W        W93848  34.431   0.735   2.789  0.0554  0.0440  0.3952
50937W        W93849  32.430   1.009   2.161 -0.1316  0.1810  0.0573
50938W        W93850  33.781  34.274   1.786 -0.1723  0.2372 -0.1932
50939W        W93851   0.120   1.921   0.954 -0.0316 -0.1299  0.2800
50940W        W93852  33.109   1.409   1.113  0.2355  0.1528 -0.0559
50941W        W93853  33.945   1.011   3.031 -0.1057 -0.1846 -0.1350
50942W        W93854  32.948   0.938  31.917 -0.0831 -0.0458 -0.4809
50943W        W93855  32.847   4.202   1.357 -0.0532  0.0205  0.1345
50944W        W93856  34.525   3.298   1.825  0.1134  0.1931 -0.1333
50945W        W93857  34.097   0.415   0.033  0.1890  0.1261 -0.0856
50946W        W93858  34.092   2.718   3.043  0.1528  0.0838 -0.1075
50947W        W93859  33.700   1.676  31.536  0.3321 -0.2929  0.0260
50948W        W93860  33.021   3.845  31.746  0.1149  0.0463 -0.2279
50949W        W93861  33.284   2.084   1.733  0.1214  0.1175  0.1903
50950W        W93862  33.756   3.568   0.813 -0.1477 -0.0206  0.3600
50951W        W93863  33.441   2.185   3.130  0.3078 -0.2781 -0.0073
50952W        W93864  32.307   3.256  31.798 -0.0628  0.2679 -0.5207
50953W        W93865  33.973   2.710   2.228  0.4899 -0.1976 -0.1580
50954W        W93866  31.591   3.044   2.305 -0.0821 -0.0608  0.4283
50955W        W93867   2.475   2.503   0.846 -0.2742  0.1986  0.0100
50956W        W93868  33.702   3.060   1.981  0.0098 -0.2098 -0.1996
50957W        W93869  33.099   2.135   2.664  0.0494 -0.0006  0.0229
50958W        W93870   0.237   0.140   1.803  0.0414  0.1316  0.0788
50959W        W93871  34.271   3.242  31.601 -0.0041  0.1496  0.2202
50960W        W93872  33.495   4.354   0.451  0.1571  0.0422 -0.1170
50961W        W93873  34.521  34.167   2.991  0.0154 -0.3732 -0.0957
50962W        W93874  32.962   2.064   0.547 -0.0587  0.2296 -0.1361
50963W        W93875   0.013  33.989   1.692 -0.0765 -0.2515 -0.2331
50964W        W93876  33.290   1.945   2.208  0.1544  0.3609 -0.0680
50965W        W93877  31.440   1.818   1.988  0.3657  0.0042  0.1434
50966W        W93878   1.254   1.147   4.097 -0.2858 -0.2248 -0.0981
50967W        W93879  33.927   2.483   1.211  0.1162 -0.0517 -0.1171
50968W        W93880   0.476   2.036   0.628  0.2189  0.1045 -0.0221
50969W        W93881  33.525   1.094   2.098  0.0297  0.0336 -0.1136
50970W        W93882   0.944   2.708   2.390 -0.0218 -0.0523 -0.2682
50971W        W93883   0.376   3.137   0.180  0.0587 -0.0985  0.1859
50972W        W93884   0.965   2.275   0.977 -0.3262  0.1242  0.3286
50973W        W93885  33.026   2.317   2.176  0.0148 -0.0434 -0.0324
50974W        W93886  34.216   0.972   0.412  0.1538 -0.1295  0.0556
50975W        W93887  33.521   2.025   0.597 -0.0464  0.1519  0.0075
50976W        W93888  32.687   1.448   2.121 -0.2416  0.1980  0.1645
50977W        W93889  33.666   0.525   2.078  0.0248 -0.0138  0.0969
50978W        W93890  32.372   2.888   1.855 -0.0482  0.0244  0.1434
50979W        W93891   0.405   2.696   2.523  0.6105 -0.1763  0.2482
50980W        W93892  32.470   1.358   0.071 -0.0693 -0.1511  0.0003
50981W        W93893  32.791   2.240   1.545 -0.2123  0.1324 -0.1027
50982W        W93894  32.471   2.871   1.130  0.1431  0.2647 -0.2874
50983W        W93895  34.210   1.709   0.780 -0.1247  0.2731  0.2116
50984W        W93896  32.574   2.398   0.750 -0.4184  0.1821 -0.2905
50985W        W93897  33.172   1.764   3.374 -0.1667 -0.2489 -0.2578
50986W        W93898   0.089   1.079   1.540  0.0898 -0.0806  0.1763
50987W        W93899  33.663   1.470   0.827  0.0665 -0.1364  0.1336
50988W        W93900   0.587   0.521   1.064 -0.2965 -0.1080  0.4397
50989W        W93901  34.139   2.412   2.607  0.2408  0.1635 -0.1617
50990W        W93902  31.713   3.440   4.017 -0.0679 -0.0667 -0.1135
50991W        W93903  34.459   2.394   0.005 -0.0757  0.1809  0.0979
50992W        W93904  32.902   1.568   0.691 -0.2702 -0.0650  0.0484
50993W        W93905   0.823   3.887   1.029 -0.0545 -0.1708  0.0840
50994W        W93906  34.128   1.659   1.719  0.0802 -0.2656  0.0027
50995W        W93907  33.767   1.987   1.531 -0.0379 -0.0760 -0.0602
50996W        W93908   0.472   3.631   0.539 -0.0810 -0.1881  0.0576
50997W        W93909   0.254   4.292   2.237  0.1551 -0.0164  0.5367
50998W        W93910  33.822   1.978   0.998  0.0190  0.1643 -0.1802
50999W        W93911  34.111   1.494   2.655  0.1437 -0.0371 -0.1458
51000W        W93912  33.778   1.151   1.667  0.0615  0.2174 -0.2460
51001W        W93913  33.957   2.059   2.956 -0.0109  0.3523  0.2745
51002W        W93914  32.692   0.198   2.009  0.0222 -0.0215 -0.1471
51003W        W93915  34.446   2.324   3.025  0.1499 -0.1983  0.4274
51004W        W93916   0.528   1.525   0.517 -0.1371 -0.1681  0.1867
51005W        W93917  32.338   3.124   2.435 -0.1122 -0.1717  0.1661
51006W        W93918   0.822   2.796  30.951 -0.1165  0.1765 -0.0565
51007W        W93919  32.895   2.189   1.051 -0.2692  0.0280 -0.1817
51008W        W93920  34.083   1.805   2.255  0.1953 -0.1643  0.1175
51009W        W93921  31.965   0.020   4.359 -0.3198  0.0454 -0.0286
51010W        W93922  34.135   0.718   1.714  0.0263 -0.3111 -0.1455
51011W        W93923  34.491   0.593   0.611  0.0634 -0.0440  0.1511
51012W        W93924   0.440   2.934   1.175  0.0745  0.3356  0.1963
51013W        W93925  32.553   0.312   1.068  0.0663 -0.0826 -0.1964
51014W        W93926  32.878   3.474   3.039 -0.1528 -0.2043 -0.2071
51015W        W93927  32.741   1.042   0.806 -0.2905 -0.2688  0.0255
51016W        W93928  33.578   2.247  30.928  0.3039  0.1613  0.2401
51017W        W93929  33.249   3.148   3.015 -0.0844 -0.1744 -0.0783
51018W        W93930   0.504  34.133   0.735 -0.0111  0.2533 -0.0572
51019W        W93931  31.881   2.454  31.870  0.2234 -0.0134 -0.1178
51020W        W93932  33.692   3.247   2.554  0.0699  0.1338  0.2650
51021W        W93933  33.359   3.629   2.900 -0.0368 -0.0072 -0.1936
51022W        W93934   0.029   3.100   1.058 -0.0158  0.1885  0.3189
51023W        W93935  34.509   1.996   2.064 -0.3556 -0.3015 -0.4044
51024W        W93936  33.523   1.563   1.427 -0.2222  0.0063 -0.1323
51025W        W93937   0.313   3.286   1.509 -0.3175 -0.0910  0.0680
51026W        W93938  34.018   1.500   3.707  0.0108  0.1590 -0.0410
51027W        W93939  32.895   0.566  31.533  0.0440 -0.1687  0.0747
51028W        W93940  32.100   2.218   3.751  0.1540 -0.1107  0.2373
51029W        W93941  33.657   1.544   2.418 -0.2958 -0.2298 -0.0386
51030W        W93942  33.830   2.850   1.522 -0.1891  0.1003 -0.2307
51031W        W93943  34.619   0.191  31.755  0.0467  0.1148 -0.1523
51032W        W93944  33.211   2.691   1.906 -0.1859 -0.1819  0.3057
51033W        W93945  32.902   4.084   0.811 -0.1321  0.0437  0.0849
51034W        W93946   0.417   2.537   1.513 -0.1794 -0.2269  0.1165
51035W        W93947  34.354   2.549   1.436  0.0613  0.0013 -0.0438
51036W        W93948  33.635   0.273  31.759 -0.0785  0.0795  0.0504
51037W        W93949  34.624   1.562   1.815 -0.2049  0.1825 -0.0538
51038W        W93950  32.584   3.674   2.621 -0.0314  0.1421  0.0613
51039W        W93951  32.151   2.369   1.023 -0.1030  0.1393 -0.3725
51040W        W93952   0.844   1.372   1.178 -0.2766 -0.2456 -0.2122
51041W        W93953   1.169   1.954   0.690 -0.0248  0.0857  0.3038
51042W        W93954   0.793   3.355   1.454 -0.2461  0.2539  0.2860
51043W        W93955   0.358   3.788   2.353 -0.0553 -0.1854  0.0485
51044W        W93956  32.849   2.967   2.153 -0.0453 -0.0322  0.0476
51045W        W93957  32.773   0.135   0.569 -0.0470 -0.1379  0.0628
51046W        W93958  34.023   1.510   1.207  0.0767  0.1565  0.0432
51047W        W93959  34.318   2.533   0.456  0.0655 -0.2970  0.0493
51048W        W93960  32.944   1.787   1.467 -0.3328  0.3202 -0.0338
51049W        W93961   0.006   1.491   0.686  0.1412  0.0395  0.0232
51050W        W93962   0.292  34.422   1.490  0.0515 -0.2193  0.0977
51051W        W93963  33.880   1.317   0.313  0.7415  0.0354  0.1534
51052W        W93964  34.613   2.430   1.885  0.0960 -0.1623  0.0737
51053W        W93965  32.767   0.664   2.371 -0.0400  0.4821 -0.1091
51054W        W93966   0.689   3.969   0.034 -0.0410  0.1497  0.1363
51055W        W93967  32.992   1.038   2.136 -0.2313  0.0707 -0.1151
51056W        W93968  33.517   0.475   0.731 -0.1649  0.1307  0.0730
51057W        W93969  33.665   2.484   1.774  0.0721 -0.0857  0.0387
51058W        W93970  34.230   2.866   0.959  0.0700  0.4963 -0.0307
51059W        W93971   0.668   3.084   0.605 -0.0920  0.1420  0.1564
51060W        W93972   0.372   2.917   4.027 -0.2666 -0.1695  0.0432
51061W        W93973  33.997   4.341   3.374 -0.0691  0.5156  0.0298
51062W        W93974  33.809   3.028   0.671  0.0413  0.0693  0.0709
51063W        W93975  34.113   3.031   2.633  0.0047  0.1994  0.1906
51064W        W93976   1.260   2.535   0.576 -0.1114 -0.0838  0.4611
51065W        W93977  34.364   4.204   1.846  0.0153 -0.0418  0.1391
51066W        W93978   1.208   1.844   1.178  0.3223  0.1564 -0.1100
51067W        W93979  34.447  34.313   0.270  0.1214  0.1662  0.0982
51068W        W93980  34.675   2.900   1.579  0.1081  0.3656  0.1153
51069W        W93981  30.972   1.330   0.349 -0.1942  0.3649 -0.1585
51070W        W93982  34.684   2.848  31.842  0.0272  0.2172 -0.1037
51071W        W93983  32.817   1.174   1.703 -0.1531 -0.1587 -0.5044
51072W        W93984  33.631   1.752   1.920  0.0401 -0.1109 -0.3750
51073W        W93985  32.017  33.958   0.267 -0.4307 -0.0339 -0.0298
51074W        W93986  33.307   1.144   1.577  0.0940  0.0249  0.0572
51075W        W93987  33.091   0.722   2.875  0.1985  0.1152 -0.2005
51076W        W93988  32.398   0.007   2.595 -0.0895 -0.0374 -0.0073
51077W        W93989   0.352   1.465   1.136 -0.1777 -0.1196 -0.2402
51078W        W93990  33.513   2.783   0.961  0.5068 -0.0533  0.0880
51079W        W93991   0.278   1.416   2.190 -0.1196 -0.0141 -0.0232
51080W        W93992  33.812   0.315   3.473  0.1533 -0.2224 -0.1148
51081W        W93993  33.551   0.428  30.296  0.1331 -0.3660 -0.0597
51082W        W93994  33.929   0.062   2.570 -0.4165 -0.2426 -0.1834
51083W        W93995   0.099   3.275   3.124 -0.0324  0.1135  0.1165
51084W        W93996  34.595   3.934   2.238 -0.3702 -0.0987  0.1920
51085W        W93997  33.388  34.164   2.280 -0.3073  0.2151  0.1217
51086W        W93998  34.559   2.391   2.400  0.1338  0.1019 -0.0969
51087W        W93999  31.413   1.830   3.269 -0.1424 -0.0096 -0.1272
51088W        W94000  32.755   2.835   3.213  0.0097  0.2264  0.2602
51089W        W94001  33.642   1.075   1.140  0.1183 -0.1511 -0.0412
51090W        W94002  33.480   2.525   2.273  0.1288  0.0209  0.0847
51091W        W94003  34.546   0.606   0.144 -0.1953  0.3763 -0.0559
51092W        W94004   0.551   1.877   2.907 -0.0715 -0.2726 -0.1652
51093W        W94005   0.987   0.671   0.107 -0.2353 -0.0841  0.1082
51094W        W94006   0.432   2.845   3.031  0.1538  0.2916 -0.0049
51095W        W94007  32.693  34.550   2.985 -0.0051 -0.3264 -0.3481
51096W        W94008   0.017   2.566   1.024  0.3933 -0.3517  0.1138
51097W        W94009   0.294   2.776   0.705  0.1201  0.4192  0.1164
51098W        W94010   0.434   2.359   1.034 -0.4469  0.1058 -0.2713
51099W        W94011  34.475   4.621   2.762  0.1010  0.0059  0.0582
51100W        W94012  33.495   2.697   4.757 -0.4264 -0.1596 -0.0227
51101W        W94013  34.140   1.972   3.463 -0.1681 -0.0828  0.3649
51102W        W94014  32.330  33.931   4.684 -0.0454  0.0578  0.0617
51103W        W94015  32.107  33.838   7.006 -0.1839  0.0767 -0.0290
51104W        W94016  32.972   1.356   5.834  0.2117  0.1195  0.1191
51105W        W94017  34.461   2.529   7.065 -0.2126  0.0648 -0.0424
51106W        W94018  33.741  34.592   4.491 -0.0323 -0.2168  0.1590
51107W        W94019  31.853  33.801   5.757 -0.1124 -0.0108 -0.2649
51108W        W94020  32.216   1.486   5.156 -0.0707  0.1641 -0.2728
51109W        W94021  33.094   1.583   5.246 -0.2749  0.3671  0.0323
51110W        W94022  32.459   0.725   4.100 -0.2018 -0.2139 -0.1123
51111W        W94023  34.506   0.593   5.154 -0.5497 -0.1836  0.0174
51112W        W94024  34.164   3.712   4.515  0.1421 -0.0663 -0.0977
51113W        W94025  33.164   1.380   2.460 -0.1578  0.0668  0.1949
51114W        W94026  30.620   2.748   4.648  0.0894 -0.1091 -0.2652
51115W        W94027  34.699   2.050   6.077  0.1505  0.0192  0.3134
51116W        W94028  34.541   4.362   4.946 -0.1062  0.2333  0.0313
51117W        W94029  34.315   2.829   6.281 -0.0449  0.0078  0.0513
51118W        W94030  32.187   1.959   4.224 -0.2045  0.1006  0.0705
51119W        W94031  33.016   4.542   4.722  0.1508  0.0975 -0.0342
51120W        W94032   0.874   3.015   2.793 -0.3713  0.1574 -0.3101
51121W        W94033   0.217   3.172   7.441 -0.1791 -0.4140 -0.2312
51122W        W94034  32.485   3.975   4.041 -0.0025  0.0049 -0.0186
51123W        W94035  32.834   2.958   6.475 -0.1447  0.0114  0.1481
51124W        W94036  33.834   3.335   3.059  0.0605  0.3229  0.1037
51125W        W94037   1.385   2.430   5.225 -0.0885 -0.2585 -0.1451
51126W        W94038  34.152   1.327   6.283  0.2773  0.2868 -0.2496
51127W        W94039  33.530   2.495   4.356  0.0582  0.3146 -0.4018
51128W        W94040  32.569   2.745   4.634 -0.2578 -0.0961 -0.0887
51129W        W94041   0.155   2.037   3.174  0.0812  0.2888  0.1863
51130W        W94042  34.629   0.730   3.927 -0.0666 -0.2662  0.0182
51131W        W94043  32.694   3.653   5.838  0.2808  0.0744  0.4033
51132W        W94044  33.061   1.251   6.307  0.1843 -0.3250  0.4515
51133W        W94045   0.632   3.165   7.063 -0.1444 -0.1750  0.1275
51134W        W94046  33.089   2.578   5.096 -0.0980 -0.1181  0.0922
51135W        W94047  32.770   1.249   3.948 -0.3091 -0.1855 -0.0449
51136W        W94048  32.410   3.349   7.007  0.2110  0.0599 -0.3694
51137W        W94049  30.930   1.594   7.501  0.1811  0.2001  0.3797
51138W        W94050  34.382   1.245   3.456  0.0701  0.2284  0.0250
51139W        W94051  31.494   2.050   7.641  0.0185 -0.0921 -0.1598
51140W        W94052  32.677   1.555   6.244  0.1171 -0.1401  0.1893
51141W        W94053  33.644   3.004   3.406  0.3191  0.3033  0.2903
51142W        W94054   0.140   2.254   3.737 -0.0297 -0.0954 -0.1870
51143W        W94055   0.291   2.434   6.664  0.3165 -0.1152 -0.2811
51144W        W94056  32.954   0.371   6.161  0.4737 -0.0915  0.1194
51145W        W94057  34.696   3.098   7.852 -0.1793  0.2338  0.0080
51146W        W94058  33.911   1.935   3.980  0.3251 -0.1966  0.0204
51147W        W94059  32.312   2.019   5.639 -0.2568 -0.3913 -0.4622
51148W        W94060  32.686   3.192   4.435 -0.0772  0.1191  0.1090
51149W        W94061  31.975  33.589   4.656  0.1569 -0.1440  0.2919
51150W        W94062  33.460   2.266   6.101 -0.0381 -0.2096 -0.0959
51151W        W94063  33.051   0.340   5.108 -0.1633 -0.0944 -0.3057
51152W        W94064  34.020   2.230   4.352  0.2447  0.2157 -0.3880
51153W        W94065  33.466   1.671   7.463 -0.2237  0.1064 -0.0093
51154W        W94066  33.834  34.698   3.884 -0.0119 -0.1902 -0.1305
51155W        W94067  32.561   0.635   5.447 -0.0592  0.0690  0.0116
51156W        W94068  33.144   0.991   4.635 -0.1637  0.0479  0.3202
51157W        W94069  33.200  33.873   2.651 -0.2098  0.3208  0.2338
51158W        W94070  34.282   1.683   5.864  0.2410  0.0219  0.0680
51159W        W94071  31.332   3.546   5.611 -0.1914  0.0351  0.0807
51160W        W94072  32.486   1.174   5.854 -0.1756  0.1712 -0.0724
51161W        W94073  33.297   1.022   4.060 -0.2611 -0.1581  0.2393
51162W        W94074  33.467   2.683   5.804  0.2177  0.0790  0.0172
51163W        W94075   0.465   2.702   5.310 -0.0360  0.0623  0.1462
51164W        W94076   0.214   0.489   3.298  0.0982  0.0729  0.4505
51165W        W94077  33.614   3.326   6.099 -0.0089  0.0818 -0.0128
51166W        W94078  34.562  33.372   3.346 -0.0479 -0.0416 -0.0126
51167W        W94079  32.206   3.595   3.732 -0.4021  0.0831 -0.0538
51168W        W94080  32.025   1.402   5.600 -0.0614 -0.0319  0.2912
51169W        W94081  34.192   3.800   4.038  0.3885 -0.1959  0.1284
51170W        W94082  32.543   1.634   8.518 -0.0673  0.1904  0.2906
51171W        W94083  32.112   1.790   4.774 -0.1943 -0.1512 -0.1946
51172W        W94084  32.510   2.568   6.406 -0.0928  0.1102  0.0800
51173W        W94085  32.666   1.855   7.087 -0.0328  0.1990 -0.1461
51174W        W94086  34.161   3.831   3.480  0.0411  0.1369 -0.2484
51175W        W94087   0.217   3.603   5.317  0.2222  0.0238 -0.0659
51176W        W94088  32.908   1.809   5.824 -0.0725 -0.1516 -0.0660
51177W        W94089  33.424   1.089   5.977  0.0527  0.1183  0.0008
51178W        W94090   0.267   2.409   2.883 -0.0949 -0.2977 -0.0975
51179W        W94091  33.094   3.945   2.476 -0.1016  0.0609  0.3454
51180W        W94092  34.385   1.316   4.861 -0.1480  0.0791 -0.1329
51181W        W94093  32.840   1.805   3.860  0.0913 -0.0352 -0.2260
51182W        W94094  33.876   0.837   6.074 -0.0730  0.1715  0.0208
51183W        W94095  33.101   2.287   5.702 -0.1394  0.3820  0.1088
51184W        W94096  32.570   2.331   6.859 -0.1068  0.2379  0.0433
51185W        W94097   0.153   1.007   5.043  0.1963 -0.4727 -0.1527
51186W        W94098  33.589   3.062   4.428 -0.2153  0.3752  0.3167
51187W        W94099  34.076   3.530   2.630 -0.0177  0.2375  0.0784
51188W        W94100  34.272  34.267   5.992 -0.3707 -0.1850  0.0851
51189W        W94101   0.144   2.910   4.954  0.1058 -0.2254  0.1196
51190W        W94102  31.828   3.453   3.076  0.0128 -0.1617  0.3305
51191W        W94103  33.040   2.918   4.662 -0.0177 -0.0964  0.0462
51192W        W94104  33.351   1.677   6.016  0.1343 -0.0102  0.0402
51193W        W94105  33.325   1.448   3.750  0.1954  0.2381  0.0180
51194W        W94106  32.245   1.475   3.903 -0.1258  0.0110  0.0723
51195W        W94107  33.831   1.669   6.364  0.3115 -0.1577 -0.4798
51196W        W94108  33.956   0.296   4.705 -0.1234  0.1797  0.0427
51197W        W94109  31.702   3.652   5.242  0.2571 -0.0794  0.1201
51198W        W94110   0.481   1.283   5.950 -0.1666  0.2155  0.1242
51199W        W94111  31.914   0.509   4.235  0.0984 -0.0999  0.2760
51200W        W94112  33.429   1.937   5.603  0.3047  0.3370 -0.2588
51201W        W94113  33.661   3.544   4.558 -0.1226 -0.2551  0.0055
51202W        W94114  31.726   1.435   4.798  0.1371  0.3941 -0.0805
51203W        W94115  34.125   3.117   4.544 -0.2911 -0.3982 -0.1645
51204W        W94116  33.794   1.422   5.922  0.1984  0.0538  0.2138
51205W        W94117  33.096   1.361   4.315  0.2144  0.2361  0.1212
51206W        W94118  33.555   0.078   5.123 -0.1314 -0.0060 -0.0184
51207W        W94119  34.370   2.426   5.090  0.0869 -0.0634 -0.0885
51208W        W94120  34.692   0.401   5.851 -0.3921  0.0585  0.0397
51209W        W94121  32.801   3.004   7.418 -0.1221 -0.0278  0.2530
51210W        W94122  32.188   2.618   4.170 -0.3392 -0.0809  0.0727
51211W        W94123  32.284   1.629   5.970 -0.1240 -0.0550 -0.3120
51212W        W94124  32.969   2.342   3.359 -0.4052 -0.1625 -0.2482
51213W        W94125  33.736   0.968   5.601 -0.1167 -0.0434 -0.1287
51214W        W94126  33.562   2.511   5.304 -0.0083  0.0658 -0.3678
51215W        W94127  32.250   3.654   3.234 -0.0350  0.0075 -0.1742
51216W        W94128  33.524   2.431   6.610 -0.5269  0.0392  0.0172
51217W        W94129   0.129   1.584   4.887  0.0398  0.2021  0.1179
51218W        W94130  33.536   0.490   5.889 -0.2086 -0.2750 -0.1946
51219W        W94131  32.135   0.959   6.193 -0.0112  0.0758 -0.1499
51220W        W94132  31.927   1.907   7.831 -0.3011 -0.2012 -0.0552
51221W        W94133  33.631   0.424   4.015  0.0390 -0.0487 -0.1436
51222W        W94134  33.966   1.637   5.485  0.3481  0.1869  0.0182
51223W        W94135  33.577   1.194   3.376 -0.0338 -0.0477  0.0831
51224W        W94136  32.471   1.927   6.593 -0.1624 -0.0117  0.2618
51225W        W94137  33.594   2.863   3.956  0.0557  0.2871 -0.1279
51226W        W94138  33.114   3.902   3.295 -0.2651  0.0537  0.1657
51227W        W94139  33.016   0.527   5.658  0.0135 -0.1839 -0.3275
51228W        W94140  33.425   1.949   6.543 -0.2325 -0.0840  0.0917
51229W        W94141  32.220   1.584   6.865  0.0219  0.1090 -0.1577
51230W        W94142  33.526   0.528   5.392  0.0242 -0.0060  0.1616
51231W        W94143   0.154   0.988   3.522  0.0215  0.1317 -0.0530
51232W        W94144  33.580   2.185   2.641 -0.0016 -0.1384 -0.3578
51233W        W94145  32.510   2.007   3.552 -0.0094 -0.0586  0.2814
51234W        W94146  34.178   4.388   6.802  0.2248  0.0055 -0.1532
51235W        W94147  32.866   2.816   3.701 -0.3316 -0.1579 -0.1490
51236W        W94148  32.528   2.279   4.343  0.0795  0.0746 -0.0557
51237W        W94149  34.674   2.833   6.700 -0.0885 -0.0969  0.1835
51238W        W94150  32.774   0.215   3.940  0.0645  0.0760 -0.1768
51239W        W94151  32.657   3.726   4.708 -0.0641  0.0419 -0.0812
51240W        W94152  33.341   3.446   6.640 -0.0877  0.1017  0.0409
51241W        W94153  32.313   1.699   7.366  0.3284 -0.2754 -0.0316
51242W        W94154  33.836   2.395   3.394 -0.1639  0.3271  0.0516
51243W        W94155  34.056   2.681   4.119 -0.0111  0.0673 -0.3190
51244W        W94156  32.697   1.067   4.374  0.0558 -0.1783  0.0591
51245W        W94157  33.074   2.392   4.645 -0.4819  0.2374 -0.0920
51246W        W94158  32.004   0.240   6.847 -0.0532  0.1021 -0.1879
51247W        W94159  34.146   0.691   4.260 -0.1220 -0.0981 -0.0602
51248W        W94160  33.915   3.380   7.604  0.0690  0.0029  0.1111
51249W        W94161  32.703   1.323   5.438 -0.1710 -0.2369 -0.3299
51250W        W94162  32.176   4.417   3.855 -0.1735 -0.0723 -0.4363
51251W        W94163  34.241   1.051   3.921 -0.1823  0.1847 -0.3275
51252W        W94164  33.872   1.964   5.892  0.0933 -0.2142  0.2892
51253W        W94165  31.991   2.936   3.038 -0.0937  0.0263  0.1683
51254W        W94166  34.647   2.690   5.404  0.2691 -0.0189 -0.0960
51255W        W94167  34.371   3.070   4.001 -0.1669 -0.1524  0.2330
51256W        W94168   0.295   0.858   2.998 -0.0067 -0.0637  0.0422
51257W        W94169  33.048   2.151   6.902  0.0692  0.1547 -0.0771
51258W        W94170  31.617   3.553   7.635  0.3122  0.1699 -0.0944
51259W        W94171  33.420   0.751   3.611  0.1032  0.2223  0.2237
51260W        W94172  33.593   1.966   4.440 -0.1751 -0.3011 -0.2003
51261W        W94173  34.392   1.974   2.608 -0.1328 -0.2045  0.0457
51262W        W94174  34.129   3.323   6.091 -0.3772 -0.0490  0.2309
51263W        W94175  33.843   2.632   6.225  0.1294  0.5103 -0.0758
51264W        W94176  33.187   3.517   5.618  0.1597  0.0492 -0.1278
51265W        W94177  32.858   0.281   2.859 -0.0830 -0.0649  0.3550
51266W        W94178  33.636   1.733   5.138 -0.2118 -0.1099  0.0738
51267W        W94179  32.347   2.403   3.133 -0.0831 -0.1848 -0.0987
51268W        W94180  32.229   0.973   5.414  0.0474  0.1348 -0.2298
51269W        W94181  34.427   1.092   2.072  0.6369  0.0525 -0.1725
51270W        W94182  34.499   2.017   4.659  0.2740  0.0414 -0.0101
51271W        W94183  32.608   2.810   4.131  0.0740 -0.2708 -0.0173
51272W        W94184  33.940   1.301   5.106 -0.1152 -0.4126 -0.2623
51273W        W94185  31.701   0.030   5.823  0.2317  0.0462 -0.2145
51274W        W94186  33.061   2.622   4.216 -0.3747  0.2029  0.1979
51275W        W94187  33.048   1.494   7.192 -0.1795  0.2289 -0.2294
51276W        W94188  34.323   0.035   3.949  0.1522 -0.0379 -0.0853
51277W        W94189  33.158   2.136   4.218 -0.1295  0.2529  0.1504
51278W        W94190  33.401   3.000   5.352  0.3763  0.2027  0.0700
51279W        W94191   0.038   2.625   3.254  0.2604  0.0708 -0.1542
51280W        W94192  33.089   3.257   6.136  0.1256  0.0138 -0.0534
51281W        W94193  33.894   3.447   6.947  0.1294 -0.2295  0.1198
51282W        W94194  33.512   3.357   3.868 -0.0350 -0.1431 -0.0787
51283W        W94195   0.313   2.759   7.093  0.0624  0.2569  0.0639
51284W        W94196   0.355   2.923   5.791 -0.0735 -0.1635 -0.0974
51285W        W94197  33.910   3.422   3.541  0.0526  0.0700 -0.0307
51286W        W94198  34.482   2.479   4.440  0.0868  0.0804  0.0257
51287W        W94199  33.552   0.714   4.842 -0.0506  0.2802 -0.0021
51288W        W94200  33.456   1.417   5.514  0.0997  0.0899  0.1750
51289W        W94201  32.136   1.070   4.229  0.1404  0.3228 -0.2987
51290W        W94202  32.584   2.418   3.815  0.2075 -0.3095 -0.3764
51291W        W94203  33.558   1.550   4.198  0.3164  0.6125 -0.0437
51292W        W94204  33.561   1.147   6.496 -0.1316 -0.1552 -0.2130
51293W        W94205  33.001   2.067   5.084  0.1126  0.1614  0.0835
51294W        W94206  31.793   0.931   5.063  0.0739  0.0983 -0.0004
51295W        W94207  32.581   1.536   4.303  0.1371 -0.2543 -0.2171
51296W        W94208  32.010  33.896   3.892 -0.0721  0.2125 -0.2751
51297W        W94209   0.662   2.032   5.124 -0.2153 -0.3498 -0.2141
51298W        W94210  31.997   2.807   4.605  0.0429  0.1905 -0.2166
51299W        W94211   0.897   0.862   7.408  0.0267  0.0460 -0.2212
51300W        W94212  34.175   0.968   7.027  0.1139 -0.2155  0.3940
51301W        W94213  32.317  34.368   3.276  0.3104  0.0554  0.0090
51302W        W94214  33.683   0.865   4.327  0.1637  0.1727  0.1053
51303W        W94215  33.532   2.181   4.906 -0.2070  0.1179 -0.2655
51304W        W94216  33.482   4.382   6.262 -0.4729 -0.0802  0.0118
51305W        W94217  32.846  34.579   5.959  0.0235 -0.2070 -0.3653
51306W        W94218  33.954   2.935   5.879 -0.1670  0.0025 -0.1326
51307W        W94219  33.362  34.346   5.864 -0.1091  0.2709 -0.2026
51308W        W94220  32.908   2.160   6.346 -0.0737 -0.0984  0.0189
51309W        W94221  33.972   0.940   4.771  0.0875 -0.0397 -0.1313
51310W        W94222  32.972   0.821   5.120 -0.1783  0.0482 -0.0373
51311W        W94223   0.449   1.741   3.578 -0.1249 -0.1211  0.1000
51312W        W94224  33.860   2.951   7.383  0.1534  0.1916  0.0724
51313W        W94225  33.745   1.094   3.907  0.0546 -0.2031  0.0122
51314W        W94226   0.396   3.244   6.267  0.0311  0.2133 -0.3417
51315W        W94227  33.222  34.427   4.830 -0.3009  0.1354  0.2572
51316W        W94228  34.122   1.243   4.370  0.0154  0.1687  0.1238
51317W        W94229   0.068   4.281   3.997 -0.2238 -0.0314  0.1815
51318W        W94230  32.797   1.947   4.610 -0.1269 -0.2677  0.0300
51319W        W94231  33.694   3.974   7.090  0.1017  0.1465  0.0046
51320W        W94232  33.349   2.273   9.962 -0.1636  0.1322  0.1403
51321W        W94233  32.521   1.206   7.640 -0.0803 -0.3287  0.0093
51322W        W94234  32.381   1.083   9.644  0.3020  0.1896 -0.4575
51323W        W94235  34.187   1.983   9.382  0.2584  0.0098  0.1098
51324W        W94236  33.817  34.100   6.749 -0.3286  0.1300  0.0999
51325W        W94237  32.470   0.060   9.692 -0.0103 -0.2455  0.1523
51326W        W94238  32.645   2.602   7.768  0.2703  0.2689 -0.0516
51327W        W94239  34.150   3.275   8.482 -0.1249 -0.1006  0.0862
51328W        W94240  33.017   1.312   7.606 -0.3188  0.1146  0.1783
51329W        W94241  32.613   0.072   8.611 -0.0927  0.1233  0.0923
51330W        W94242   1.331   1.885   9.819 -0.0475 -0.1672  0.0656
51331W        W94243  32.774   1.781   8.096 -0.0376  0.0831  0.1245
51332W        W94244  33.496   1.999   9.408  0.0426  0.0674 -0.1941
51333W        W94245  32.412   4.459   9.338 -0.1370 -0.1405 -0.3476
51334W        W94246  33.775   3.559   8.878 -0.2499  0.4181  0.2802
51335W        W94247  34.550   2.298   9.288  0.0284  0.2554 -0.0595
51336W        W94248  33.848   1.992   9.779  0.2458  0.0770  0.2404
51337W        W94249  32.407   3.392   9.571  0.0954  0.2528 -0.0229
51338W        W94250  32.651   2.853   6.940 -0.1316  0.3568  0.1291
51339W        W94251  32.366   2.109   7.858 -0.0429 -0.1520  0.0522
51340W        W94252  33.410   3.589   7.883 -0.0106 -0.0787 -0.2337
51341W        W94253   0.662   1.583   9.786  0.0200 -0.0440 -0.0377
51342W        W94254  33.641   3.167   9.132 -0.0268 -0.0790 -0.0196
51343W        W94255  32.519   3.464   7.483  0.1338  0.1160 -0.0056
51344W        W94256  33.324   0.636   6.875 -0.1561  0.1097  0.3203
51345W        W94257  34.330  34.310   8.537  0.2252  0.0912  0.0834
51346W        W94258  33.831   4.081   8.423  0.0929  0.0104  0.0634
51347W        W94259  33.710   0.728   9.547 -0.0591 -0.1739  0.2597
51348W        W94260  34.049   3.558   8.037  0.0001  0.0753 -0.0645
51349W        W94261  33.537   2.725   9.300  0.1722 -0.0433 -0.0915
51350W        W94262  32.891   2.253   8.001 -0.2441 -0.0293 -0.0455
51351W        W94263  33.409  34.299   7.208  0.1392  0.0969  0.0877
51352W        W94264  33.345   1.894   8.355  0.0440 -0.2597  0.0685
51353W        W94265  34.037   1.823   6.777  0.0227  0.2157  0.2475
51354W        W94266  34.010   2.185   7.834  0.2569 -0.4718 -0.0185
51355W        W94267  33.094   3.486   8.778  0.1374  0.1038 -0.0817
51356W        W94268  33.448   3.438   7.239 -0.1220 -0.0544  0.2251
51357W        W94269  33.147   2.521   9.502  0.0823 -0.0216  0.0492
51358W        W94270  32.472   4.010   8.312 -0.1441 -0.0589  0.4712
51359W        W94271  31.718  33.442   9.994 -0.1671 -0.0196  0.1416
51360W        W94272  33.802   2.319   9.154 -0.1537 -0.2192 -0.2816
51361W        W94273  32.889   2.996   8.621 -0.4002 -0.0035 -0.0781
51362W        W94274  32.345   5.889  10.324  0.1232 -0.1321 -0.0299
51363W        W94275  32.110   1.513   9.901 -0.2449 -0.3122  0.1304
51364W        W94276  33.303   0.515  10.467  0.1983 -0.0398 -0.0715
51365W        W94277  33.311   0.041   6.895 -0.0518 -0.0740  0.0742
51366W        W94278  33.813   1.264   8.180 -0.0832  0.0052 -0.1602
51367W        W94279  33.148   2.626  10.541  0.2427 -0.2185 -0.0747
51368W        W94280  32.633   3.548  10.220 -0.1584 -0.3246  0.2182
51369W        W94281  33.370   0.985   7.944 -0.1342 -0.1191 -0.1836
51370W        W94282  33.690   3.188   8.047 -0.0120 -0.3662  0.0293
51371W        W94283  33.016   3.385   7.740 -0.2376 -0.0854  0.1077
51372W        W94284  34.065   1.402   7.700  0.1683  0.1449 -0.0285
51373W        W94285  32.565  34.492   8.193  0.3669 -0.1933 -0.1090
51374W        W94286  31.852   2.718  10.341 -0.0312  0.0704  0.1623
51375W        W94287  32.652   2.353   9.683 -0.2555 -0.3511  0.3205
51376W        W94288  33.744   2.691   8.313 -0.1173  0.0230  0.2126
51377W        W94289  33.213   1.885   7.868  0.0335  0.0815 -0.2174
51378W        W94290  34.208   2.190   8.867 -0.1885  0.0556  0.0085
51379W        W94291  32.665   3.119   9.902 -0.2818  0.0267  0.1486
51380W        W94292  31.192   0.334   9.325 -0.0754  0.1109 -0.0848
51381W        W94293  33.152   1.741  10.396 -0.2491  0.0433  0.2379
51382W        W94294  33.499   1.589   6.876  0.1042  0.0879 -0.0985
51383W        W94295  31.383   3.011   8.502 -0.2313  0.2011  0.2090
51384W        W94296  33.040   1.704   6.618 -0.2737 -0.2614 -0.1050
51385W        W94297   0.605  32.839   9.061 -0.1920 -0.0614  0.2110
51386W        W94298   1.529   2.749   9.532  0.0488 -0.1669 -0.0718
51387W        W94299  33.081   4.181   8.341  0.1371  0.3077  0.0611
51388W        W94300  33.389   3.043   7.577  0.2439 -0.0909 -0.2451
51389W        W94301  33.506   0.621   9.136 -0.1039  0.0482  0.0121
51390W        W94302  34.506   5.017  11.119  0.1296  0.2125  0.0130
51391W        W94303  31.984   3.310   7.242 -0.2980  0.0690 -0.0178
51392W        W94304  33.033   3.876   7.885  0.0214  0.0109  0.3622
51393W        W94305  33.735   2.504   9.643  0.3590 -0.0336  0.0194
51394W        W94306  32.771   1.738   7.538 -0.0947 -0.0073 -0.4963
51395W        W94307  31.731   2.793   7.273 -0.0336 -0.0481 -0.1512
51396W        W94308   0.372   4.049   9.921 -0.2290  0.0922 -0.1605
51397W        W94309  33.907   1.772   8.355  0.0853 -0.1997 -0.2638
51398W        W94310   1.329   5.047  10.051 -0.2856  0.1896  0.2227
51399W        W94311  33.185   0.942   7.305 -0.0317  0.0836 -0.1257
51400W        W94312  33.987   1.300   9.005 -0.0171 -0.1899 -0.1257
51401W        W94313  32.704   3.034   8.181 -0.0211 -0.3152 -0.3203
51402W        W94314  34.042   2.265   8.391 -0.3577 -0.0626 -0.1014
51403W        W94315  34.141   2.705   9.124 -0.1800 -0.0299 -0.0804
51404W        W94316  34.384   1.921   8.496 -0.0140 -0.1276  0.1022
51405W        W94317  33.238   1.237  10.201  0.2346 -0.0443  0.1086
51406W        W94318  33.318   1.457   8.073 -0.2372 -0.2034 -0.1294
51407W        W94319  34.489  34.341   9.675  0.0120  0.1565 -0.5078
51408W        W94320  33.926   1.558   7.214 -0.0402 -0.1965  0.1802
51409W        W94321  32.706   2.766   9.431  0.0128  0.1319  0.1135
51410W        W94322  33.063   2.730   8.128  0.0789 -0.2054 -0.0299
51411W        W94323  34.267   2.702   9.699 -0.0196  0.0399 -0.0636
51412W        W94324  33.371   3.637   9.687  0.0480  0.0001 -0.0275
51413W        W94325  32.909   2.578   7.229 -0.0142  0.0970 -0.3303
51414W        W94326  33.580   3.198   9.668 -0.2051  0.1358  0.2542
51415W        W94327  33.775   0.896   8.764  0.0329 -0.0422 -0.2592
51416W        W94328  32.942   1.259   9.755  0.0113  0.1750  0.3168
51417W        W94329  32.925   0.852   6.010  0.0190  0.5041  0.0052
51418W        W94330   0.023   2.017   8.904 -0.1277 -0.1354  0.2485
51419W        W94331   0.039   1.280   7.732  0.2392 -0.3149  0.0358
51420W        W94332  33.076   2.805   9.093  0.0331 -0.4391 -0.0797
51421W        W94333   0.124   1.889   6.502  0.1301  0.2094  0.2932
51422W        W94334  32.744   3.298   9.049 -0.0012  0.1350 -0.0549
51423W        W94335   1.062  34.687  10.344 -0.0204 -0.0565 -0.3641
51424W        W94336  32.765   0.043   7.810  0.2701 -0.2431  0.3450
51425W        W94337   0.205   2.190   7.808 -0.0595  0.1245  0.3294
51426W        W94338  31.831   0.832   9.932 -0.1060  0.0847 -0.0436
51427W        W94339  32.622   1.392   6.708 -0.3043  0.1418 -0.1584
51428W        W94340  34.144   3.241   8.971  0.0657 -0.1910 -0.0381
51429W        W94341   1.029   0.801   9.467 -0.2513  0.2318  0.2945
51430W        W94342  33.609   0.680   7.372  0.0029 -0.0108  0.3251
51431W        W94343  31.822   3.041   8.205  0.0612 -0.1883  0.2422
51432W        W94344  33.171   2.489   8.564 -0.0381  0.0095  0.0336
51433W        W94345  33.903   3.545   9.323  0.0284  0.2567 -0.0172
51434W        W94346  33.997   2.505   7.408 -0.0740  0.0887  0.0229
51435W        W94347  33.861   1.605   9.395  0.0222  0.3769 -0.1726
51436W        W94348  32.999   2.696  10.016  0.0076  0.1022 -0.2766
51437W        W94349  33.901   0.925   7.821  0.2008  0.1040  0.1092
51438W        W94350  31.416   0.770  10.295  0.2556  0.1185 -0.0373
51439W        W94351  33.344   2.986   6.448  0.1267 -0.4117  0.0845
51440W        W94352   0.151   0.778   7.780 -0.3635  0.1798 -0.1340
51441W        W94353  33.902   3.615   9.864  0.1769 -0.0097  0.2704
51442W        W94354  32.048   3.451   7.970 -0.2236 -0.0283  0.0976
51443W        W94355   0.082   2.475   8.213 -0.1027 -0.1072 -0.0264
51444W        W94356  32.976   1.995   9.727 -0.2559  0.2140 -0.3911
51445W        W94357  33.375   0.280   7.470 -0.1206  0.0203 -0.2845
51446W        W94358  32.884   1.237   8.060 -0.1640  0.0161  0.0424
51447W        W94359   0.062   1.532   9.132 -0.1924 -0.0035 -0.1182
51448W        W94360  33.118   2.093   7.383 -0.0637  0.1251  0.2469
51449W        W94361  34.561   4.674  10.548 -0.2154  0.1291 -0.1156
51450W        W94362  33.511   2.794   9.994 -0.0606 -0.3803 -0.1632
51451W        W94363  33.581   3.461  10.212  0.0485  0.0605 -0.1969
51452W        W94364  33.066   0.945   9.311  0.0491  0.1750  0.0674
51453W        W94365  34.124   3.699  10.351 -0.0861  0.1332  0.2265
51454W        W94366  33.282   1.781   8.857  0.0955 -0.0297  0.1610
51455W        W94367  32.535   3.871   9.723 -0.1505 -0.1136  0.3287
51456W        W94368   0.358   1.441   6.420  0.3785  0.2012  0.0832
51457W        W94369  33.969   0.218   9.648  0.2052 -0.1023 -0.0777
51458W        W94370  33.287   2.309   9.081 -0.0319 -0.0693  0.3577
51459W        W94371  34.050   1.570   9.907 -0.2464  0.0930  0.0406
51460W        W94372  33.106   0.730   8.798 -0.1981 -0.0830 -0.0248
51461W        W94373  34.107   4.229   7.310  0.4318  0.0984  0.1189
51462W        W94374  33.605   1.469   8.655  0.0847 -0.1177  0.0848
51463W        W94375  34.383   0.961   7.529  0.1824 -0.1099  0.1253
51464W        W94376   0.308   0.323   9.992  0.0542  0.1523  0.1694
51465W        W94377  32.837   3.983   8.802 -0.2471 -0.1713  0.1329
51466W        W94378  34.442   3.317   7.127  0.2962 -0.0684 -0.0906
51467W        W94379   0.781   3.647  10.157 -0.0281  0.0848 -0.1345
51468W        W94380  33.160   2.499   7.663 -0.0336 -0.2911  0.2243
51469W        W94381  33.630   2.823   8.757  0.1071  0.0630 -0.0352
51470W        W94382  33.297   3.863   7.463 -0.0762  0.0360 -0.1421
51471W        W94383   0.517   0.865   8.206 -0.4110  0.1500 -0.0516
51472W        W94384  33.409   0.280   8.787 -0.3082 -0.2081 -0.1940
51473W        W94385   0.318   1.871  10.028  0.0023 -0.0190 -0.0764
51474W        W94386  33.141   1.207   6.789  0.1508  0.1462  0.1323
51475W        W94387  33.463   2.605   7.082 -0.2768 -0.0373  0.0482
51476W        W94388  33.154   3.271   8.215  0.0666  0.0019 -0.0771
51477W        W94389  33.651   2.302   8.623  0.0035 -0.2305 -0.1820
51478W        W94390  32.923   0.502   7.278 -0.4618 -0.0860  0.1212
51479W        W94391  34.699   0.224   9.202 -0.0732  0.0718  0.1867
51480W        W94392  33.471   1.145   9.762  0.1266  0.1063 -0.1032
51481W        W94393  34.303   0.626   7.903  0.0734  0.1969  0.0368
51482W        W94394  31.701   3.099   9.292  0.1326 -0.2339  0.1093
51483W        W94395  32.236   1.028   6.740 -0.0075 -0.1536 -0.2268
51484W        W94396  34.697   1.358  10.128  0.2331  0.2515  0.0127
51485W        W94397  33.995  33.959   9.377  0.1828  0.0062 -0.2510
51486W        W94398  33.065  34.254   9.279 -0.4024  0.2856 -0.0753
51487W        W94399  32.428   0.207  10.220 -0.2227 -0.1416 -0.1233
51488W        W94400  33.952   1.303   6.740  0.0785 -0.2812 -0.0488
51489W        W94401  34.047   0.807   8.373  0.0646  0.1149  0.1116
51490W        W94402   0.866   3.862   9.702 -0.1740 -0.0786 -0.1718
51491W        W94403  33.734   1.230  10.135 -0.5329  0.0701  0.0265
51492W        W94404  32.896   2.019   9.168 -0.2135  0.1412 -0.2682
51493W        W94405  34.241   1.339   8.556 -0.2683 -0.3011 -0.0715
51494W        W94406  32.802   2.135   8.531  0.1280  0.1414 -0.1135
51495W        W94407  32.513   1.998  10.563  0.2057  0.0632  0.1663
51496W        W94408   1.384   5.405   3.154  0.1055  0.2861 -0.1562
51497W        W94409  33.024   4.691   1.113  0.0803 -0.1619 -0.0890
51498W        W94410  33.837   4.509   1.496 -0.0963  0.3585  0.1364
51499W        W94411  33.258   3.242   2.022 -0.2554  0.0157  0.2823
51500W        W94412  33.425   5.577   1.327  0.1760 -0.1056 -0.2394
51501W        W94413   0.500   6.848   2.876  0.2077  0.0493 -0.2005
51502W        W94414  33.610   4.400   1.953  0.1565 -0.1676 -0.2394
51503W        W94415  32.890   4.710   1.565 -0.2237  0.1384  0.2137
51504W        W94416  33.478   6.105   2.425 -0.0959  0.2713 -0.2430
51505W        W94417  34.102   5.370   2.717  0.1213 -0.2371 -0.4302
51506W        W94418   0.443   5.801   1.072  0.0359  0.1735  0.0327
51507W        W94419   0.252   4.779   3.044 -0.0292  0.3100 -0.1120
51508W        W94420  34.117   5.754   0.140  0.0846 -0.0509  0.0367
51509W        W94421  32.921   5.920   0.781  0.2026 -0.1582  0.0972
51510W        W94422  34.001   6.298   2.401  0.0517  0.1873 -0.1971
51511W        W94423   1.226   4.650   3.317 -0.0351  0.4298 -0.0049
51512W        W94424   1.055   6.221   2.328 -0.0107 -0.1514 -0.0632
51513W        W94425   0.054   6.736   1.947  0.2194 -0.1633  0.2028
51514W        W94426  33.915   6.217   0.785 -0.0341 -0.1437 -0.0321
51515W        W94427  33.118   7.299   3.104  0.1849  0.1209 -0.1232
51516W        W94428   0.776   6.155   1.578  0.3883 -0.1130 -0.1140
51517W        W94429   0.974   6.971   2.540  0.0520  0.0524  0.0177
51518W        W94430  32.561   6.112   1.208 -0.2507  0.1732 -0.3469
51519W        W94431  34.325   5.954   4.375  0.1264  0.0039  0.0263
51520W        W94432  33.449   6.280  31.985 -0.1574 -0.4666  0.0744
51521W        W94433   0.038   5.712   3.215  0.1046  0.1099 -0.1297
51522W        W94434   1.479   6.026   4.285 -0.0690  0.1023 -0.1745
51523W        W94435  34.560   6.037   2.004  0.1375  0.0807 -0.0720
51524W        W94436  32.257   6.778   0.796 -0.0124  0.1984  0.0244
51525W        W94437   0.617   2.498  31.332  0.3118 -0.3276 -0.2943
51526W        W94438  33.450   4.855   1.657  0.0613  0.2563 -0.1490
51527W        W94439   0.823   5.853   2.558 -0.0027  0.1093 -0.0881
51528W        W94440  33.777   5.736   2.629  0.2980  0.2609  0.2108
51529W        W94441   0.282   6.070   1.645  0.2726  0.1645  0.1487
51530W        W94442  33.298   6.267   1.781  0.0272  0.1012  0.0041
51531W        W94443  32.572   3.997   1.823  0.0550  0.1350 -0.0304
51532W        W94444  32.291   6.391   3.717 -0.0255 -0.5181 -0.1976
51533W        W94445  34.413   5.081   2.944 -0.3294  0.1156 -0.1870
51534W        W94446  34.699   2.826   0.351 -0.0763 -0.2280 -0.0818
51535W        W94447  34.288   6.490   3.017  0.0587  0.2170  0.1271
51536W        W94448  33.508   5.689   2.179  0.0823  0.0421  0.1125
51537W        W94449  33.118   6.038   1.355  0.0760 -0.0017 -0.0615
51538W        W94450  33.813   6.733   0.538 -0.0833  0.0060 -0.0794
51539W        W94451  33.312   7.577   2.114  0.2210  0.1462  0.0973
51540W        W94452  34.558   4.066   4.459  0.1319 -0.3413  0.2374
51541W        W94453   2.144   5.614   3.875  0.1663 -0.0598  0.1331
51542W        W94454  32.806   7.424  30.870  0.3117  0.0890 -0.2192
51543W        W94455  33.675   5.975   3.443  0.1894  0.1364 -0.0144
51544W        W94456  33.207   5.680   1.782  0.0523 -0.2121  0.1857
51545W        W94457  33.014   5.774   2.355 -0.0074 -0.0526 -0.1923
51546W        W94458   0.052   6.215   3.075  0.1124 -0.0119  0.1136
51547W        W94459  34.133   4.753   3.115  0.1480 -0.0128  0.2245
51548W        W94460  32.585   6.093   2.420  0.0947  0.1360 -0.1989
51549W        W94461  33.043   6.726   1.909 -0.0709  0.0640 -0.2082
51550W        W94462  32.468   5.560   0.970 -0.0373 -0.1584  0.1869
51551W        W94463   0.708   4.699   3.232 -0.1802 -0.3378  0.0730
51552W        W94464  33.967   4.090   2.214  0.3759  0.0545 -0.0478
51553W        W94465  32.950   4.285   0.259  0.3028  0.0035  0.2239
51554W        W94466   0.444   6.032   0.627  0.1062 -0.2232 -0.2509
51555W        W94467  32.129   4.793   0.198  0.1494 -0.1442 -0.0507
51556W        W94468  34.303   6.070   2.798  0.0403 -0.1196 -0.1293
51557W        W94469  33.791   4.324  31.962  0.1564 -0.2029 -0.2499
51558W        W94470  33.395   6.713   1.423  0.1931  0.1192 -0.1648
51559W        W94471  34.436   6.921   2.376  0.0196  0.2393  0.0399
51560W        W94472  33.470   4.990   0.666  0.1302  0.1479  0.4774
51561W        W94473   0.140   6.165   3.542  0.0293  0.0188  0.0434
51562W        W94474  33.238   3.850   0.249  0.0532 -0.0770  0.4258
51563W        W94475  33.477   6.764   0.189 -0.1584 -0.0752  0.0691
51564W        W94476  32.237   6.409   1.994 -0.2476  0.1176 -0.0140
51565W        W94477  33.612   6.111   1.414  0.0366  0.0445  0.2021
51566W        W94478  33.589   5.084   3.404  0.1070 -0.1363  0.0439
51567W        W94479  32.594   5.385   0.533 -0.0473 -0.0798  0.1478
51568W        W94480  34.504   6.435   2.492  0.0216 -0.2476 -0.0216
51569W        W94481   0.148   7.052   3.220  0.0342 -0.2156 -0.3965
51570W        W94482   0.581   5.094   0.448 -0.2137  0.0638 -0.0914
51571W        W94483   0.276   5.095   0.933 -0.0022 -0.1817  0.0446
51572W        W94484  33.787   6.153   2.891 -0.0656  0.0181  0.2037
51573W        W94485  34.249   3.682   2.009  0.1175 -0.2152 -0.0450
51574W        W94486  34.310   5.306   0.042 -0.2987 -0.0618 -0.1374
51575W        W94487  31.913   7.418   0.678 -0.0717  0.0197 -0.2784
51576W        W94488   0.096   3.686   2.743  0.0770 -0.1478 -0.1738
51577W        W94489  32.632   6.127   0.406 -0.1282  0.2460  0.3886
51578W        W94490   0.761   3.153   3.296 -0.3454  0.2232  0.1461
51579W        W94491  34.073   4.893   2.490  0.1544  0.1049  0.1987
51580W        W94492  32.797   7.472   1.897 -0.0099  0.0212 -0.0490
51581W        W94493   0.386   3.274   3.624  0.0985  0.0482 -0.0839
51582W        W94494  32.865   6.900   0.991  0.1620  0.1363  0.1895
51583W        W94495  33.347   5.583  31.750  0.2954 -0.1028 -0.2699
51584W        W94496  34.266   4.002   2.586  0.0516 -0.1862  0.3989
51585W        W94497   0.608   5.544   2.874  0.1382 -0.2158  0.0150
51586W        W94498  34.294   5.942  31.460  0.1958 -0.0652 -0.1925
51587W        W94499  32.577   5.146  31.971  0.0780  0.1089 -0.1153
51588W        W94500  33.802   6.235   1.916  0.0055  0.0993  0.0747
51589W        W94501  33.167   5.497   0.832 -0.1754 -0.0801 -0.1162
51590W        W94502  32.249   5.791   0.601  0.2246 -0.1817 -0.2748
51591W        W94503  32.997   4.275   1.944  0.1378 -0.1951 -0.0815
51592W        W94504   0.822   4.269   2.414  0.1444  0.1172  0.3431
51593W        W94505  33.858   6.699   2.759  0.1358  0.3737  0.4089
51594W        W94506   1.359   4.968   2.844  0.0047 -0.0111  0.1711
51595W        W94507  31.991   5.382   0.728 -0.1681  0.0426  0.0910
51596W        W94508  33.852   5.758   1.689  0.2591  0.0333 -0.1173
51597W        W94509  34.500   5.828   1.370 -0.0664 -0.0328 -0.1454
51598W        W94510   0.530   4.764  29.855 -0.0854 -0.0313 -0.0199
51599W        W94511  34.009   5.818   1.188  0.0620 -0.0580 -0.1783
51600W        W94512   0.492   3.959   4.279  0.1606  0.0836 -0.1288
51601W        W94513  33.996   4.997   1.663  0.1830  0.2230  0.1582
51602W        W94514  33.517   5.225   2.492  0.0741  0.1273  0.1309
51603W        W94515   1.303   5.092   0.116 -0.0890 -0.3611 -0.2489
51604W        W94516   0.259   3.823   3.184 -0.0813  0.0283  0.1337
51605W        W94517  33.415   6.545   4.519 -0.2317  0.1094  0.1365
51606W        W94518  33.017   5.948  31.857  0.1569 -0.3663 -0.3216
51607W        W94519  33.090   5.988   3.654  0.0641  0.2278 -0.1349
51608W        W94520   0.472   7.316   1.075 -0.3048 -0.2390 -0.0858
51609W        W94521  33.227   4.726   2.152 -0.0828 -0.0610  0.1094
51610W        W94522   1.272   5.760   2.249  0.2143 -0.0676  0.0258
51611W        W94523  32.802   7.406   1.110 -0.1435 -0.0164  0.0712
51612W        W94524   0.272   6.827   2.445 -0.0206 -0.0605  0.1376
51613W        W94525  33.419   5.931   0.865  0.3061  0.0903 -0.1082
51614W        W94526  33.644   3.530   2.141 -0.1568 -0.0156  0.0871
51615W        W94527  34.073   5.883   3.912 -0.1472  0.2634  0.3000
51616W        W94528   0.328   6.735   4.333  0.1820 -0.0067 -0.1677
51617W        W94529  34.003   4.269   0.445  0.4743 -0.4523 -0.0863
51618W        W94530  34.513   5.010   2.348  0.1115  0.1802 -0.3004
51619W        W94531   0.024   6.347   0.074 -0.0358  0.2093  0.0242
51620W        W94532   0.248   5.528   3.634 -0.0569  0.1564  0.0905
51621W        W94533   0.934   7.590   1.143 -0.1280 -0.0206  0.2380
51622W        W94534  34.304   6.247   1.209  0.0939  0.2233 -0.1699
51623W        W94535   0.038   4.177   2.670 -0.0119  0.1401 -0.1922
51624W        W94536  34.460   5.585   3.689 -0.1764  0.2791 -0.0122
51625W        W94537  31.836   4.359   2.723  0.2838  0.2452 -0.2662
51626W        W94538  33.390   5.054   1.149  0.0265 -0.0044  0.1273
51627W        W94539  32.987   3.255   1.172  0.2902  0.0757  0.2143
51628W        W94540  34.333   6.111   0.540  0.1487 -0.0070  0.1683
51629W        W94541  34.095   5.271   2.125  0.0108  0.1304  0.1784
51630W        W94542   0.344   6.584   3.297  0.0264 -0.1525  0.0025
51631W        W94543   0.826   4.699  30.604 -0.4584 -0.2730  0.1000
51632W        W94544  32.668   4.500   0.744  0.0969 -0.0971 -0.0171
51633W        W94545   0.607   5.526   1.455 -0.1180 -0.0365 -0.0584
51634W        W94546   0.045   3.383   0.642  0.0192 -0.0757 -0.1661
51635W        W94547  32.196   6.262   0.748 -0.5180  0.1012 -0.1064
51636W        W94548  34.454   7.717   3.691  0.2448  0.0793  0.0478
51637W        W94549  34.304   5.515   3.196  0.0655  0.0606 -0.1910
51638W        W94550  32.573   5.686  31.931 -0.0463 -0.1067  0.0131
51639W        W94551   0.205   4.975   1.547  0.0159 -0.1995  0.1235
51640W        W94552  32.830   5.605   1.311 -0.0130 -0.4330 -0.0500
51641W        W94553   0.901   6.001   1.010  0.1261 -0.1297 -0.1874
51642W        W94554  33.712   4.923   2.132 -0.0599  0.0329 -0.2134
51643W        W94555  33.635   5.307   1.847  0.3452 -0.0108 -0.0206
51644W        W94556  34.453   8.088   4.021 -0.3497 -0.3089 -0.0476
51645W        W94557  32.828   4.941   3.847  0.0232 -0.2378 -0.2038
51646W        W94558  33.384   7.683   0.367  0.0241 -0.1600  0.1786
51647W        W94559  33.203   4.262  31.409 -0.1652 -0.0881  0.2255
51648W        W94560  34.175   6.155   1.661 -0.1024 -0.0359 -0.1902
51649W        W94561  32.563   7.225   0.723  0.3471 -0.0836 -0.2789
51650W        W94562  33.164   7.323   2.578 -0.0103 -0.1629  0.0054
51651W        W94563  32.423   5.591   1.560  0.1046  0.1530  0.1335
51652W        W94564  32.799   3.719   1.141 -0.2026  0.2292 -0.4250
51653W        W94565   1.001   4.537   2.838 -0.1168  0.0231  0.0166
51654W        W94566  34.368   6.361   3.906  0.0231 -0.1768 -0.2331
51655W        W94567  31.703   5.175   0.395  0.2189 -0.0324  0.4563
51656W        W94568  32.138   6.667   0.179  0.2476 -0.2286 -0.2782
51657W        W94569   0.850   6.356  31.664  0.1041 -0.0861  0.2317
51658W        W94570   0.230   6.352   2.220  0.0656  0.2525 -0.0130
51659W        W94571  34.584   6.385   1.613  0.0577  0.0985 -0.0163
51660W        W94572   0.035   6.697   2.870 -0.0683 -0.0089 -0.0129
51661W        W94573  32.437   4.936   0.700  0.1703 -0.1522  0.1385
51662W        W94574  34.395   3.646   3.036  0.4264 -0.1122  0.1021
51663W        W94575  33.584   5.084  31.918 -0.3297 -0.0322 -0.0574
51664W        W94576  33.333   5.122   2.964 -0.0238 -0.1635  0.2525
51665W        W94577  30.955   6.207  31.914 -0.2312 -0.0270 -0.0660
51666W        W94578  33.708   3.278   1.267  0.1091 -0.3451  0.1751
51667W        W94579  33.068   6.278   2.202  0.2150 -0.1351 -0.0826
51668W        W94580  34.407   4.164   3.030 -0.1405  0.2244 -0.0192
51669W        W94581  32.379   2.529   1.524 -0.2052  0.2331  0.0188
51670W        W94582  33.865   6.466   1.236  0.2113 -0.1574  0.0463
51671W        W94583  32.943   4.482   2.495  0.0986  0.0838 -0.3347
51672W        W94584   0.429   3.416   1.017 -0.1815  0.1428  0.0986
51673W        W94585  33.941   5.776   0.606  0.1513 -0.1499 -0.1668
51674W        W94586  32.960   6.298   2.690  0.2600  0.2294 -0.0046
51675W        W94587   0.365   5.285  31.133  0.0828  0.3347  0.0288
51676W        W94588   0.699   6.307   3.204 -0.0489 -0.0928 -0.1088
51677W        W94589  34.409   7.246   3.532 -0.0130  0.3773 -0.0823
51678W        W94590  32.543   6.404  31.907  0.1821 -0.2567  0.1196
51679W        W94591  34.324   5.571   1.789 -0.1994  0.1230 -0.4464
51680W        W94592  34.608   7.198   0.967  0.1058 -0.0824 -0.0187
51681W        W94593  34.180   6.631   1.589  0.0748 -0.1155 -0.1430
51682W        W94594  34.661   4.302   1.128  0.1503 -0.0058 -0.1571
51683W        W94595   0.572   4.633   1.708 -0.0120  0.0694 -0.0681
51684W        W94596   0.879   4.780   4.136  0.5590  0.1384 -0.1926
51685W        W94597  30.845   5.197  31.270  0.2862 -0.1729 -0.2624
51686W        W94598  33.498   6.995   2.260  0.0008 -0.0992  0.3145
51687W        W94599  33.740   6.816   1.781 -0.1803 -0.1074 -0.2953
51688W        W94600  33.325   1.974   3.787  0.1425  0.1604 -0.1598
51689W        W94601  33.101   3.282   3.454 -0.1252 -0.1984  0.3723
51690W        W94602  33.569   6.531   2.254  0.0358 -0.3718 -0.1508
51691W        W94603  32.226   5.159   1.138 -0.0804  0.1360 -0.0648
51692W        W94604  33.293   4.397   1.546  0.1922  0.0426 -0.0853
51693W        W94605  31.641   4.862   1.369 -0.0275 -0.0042 -0.2893
51694W        W94606  34.092   3.653   1.307 -0.1659  0.0511 -0.1877
51695W        W94607  32.094   6.120   0.232 -0.3851 -0.0991 -0.1634
51696W        W94608   1.280   5.189   3.595  0.0874 -0.0953  0.3937
51697W        W94609   0.746   3.625   3.917 -0.2944  0.0846  0.3261
51698W        W94610  32.993   3.534   1.557 -0.0660 -0.3228 -0.0073
51699W        W94611   0.526   4.450   2.721  0.0944 -0.0126  0.0980
51700W        W94612  34.576   5.639   2.748 -0.1502 -0.2912 -0.2052
51701W        W94613   0.319   7.091   4.688  0.0751  0.0729 -0.2590
51702W        W94614  32.631   4.366   3.116 -0.2747 -0.1092  0.0911
51703W        W94615  34.565   7.036   4.454 -0.2783 -0.0585  0.0608
51704W        W94616  33.046   3.653   2.072 -0.0503  0.2430 -0.0158
51705W        W94617  34.071   5.808   2.173  0.0646 -0.0991  0.3196
51706W        W94618  34.080   4.580   1.979  0.3399  0.0076 -0.1095
51707W        W94619  34.593   5.513   2.197 -0.4157 -0.1631  0.1005
51708W        W94620  33.675   4.569   0.858 -0.2972 -0.0020  0.0334
51709W        W94621  34.579   4.083   3.497  0.1787  0.1351 -0.0007
51710W        W94622  33.413   5.397   0.319 -0.2379  0.1365 -0.1501
51711W        W94623   0.494   5.897   3.374  0.0607  0.0421  0.1078
51712W        W94624  33.469   4.291   2.443  0.0085  0.2504 -0.2411
51713W        W94625  34.075   5.386   1.370 -0.1412 -0.0881 -0.1182
51714W        W94626  34.667   6.532   0.821  0.0398  0.1378 -0.1840
51715W        W94627   0.103   5.487   1.731 -0.1388 -0.0366 -0.0487
51716W        W94628   0.937   6.656   2.925 -0.0973 -0.2639 -0.3084
51717W        W94629   0.471   5.361   6.177  0.1754  0.5072  0.0946
51718W        W94630  33.983   4.853   5.470  0.2485 -0.2059  0.0823
51719W        W94631  33.168   5.531   3.254  0.2415  0.0070 -0.1816
51720W        W94632  34.173   2.900   6.968  0.2820  0.0978  0.0107
51721W        W94633  34.012   4.787   6.468  0.0029 -0.3132 -0.4411
51722W        W94634  33.775   6.110   6.494  0.0981  0.1899  0.1882
51723W        W94635  34.138   4.180   4.743 -0.3136 -0.0022  0.0007
51724W        W94636  31.537   4.001   5.619 -0.1973  0.0364 -0.1718
51725W        W94637  34.068   5.288   4.647 -0.2710 -0.0264  0.0529
51726W        W94638  33.547   4.663   5.324  0.0980 -0.0411 -0.2304
51727W        W94639  33.985   4.246   3.894 -0.0340 -0.2027  0.0202
51728W        W94640  32.403   4.615   5.939 -0.0326  0.0363  0.0857
51729W        W94641  34.140   7.306   4.219 -0.3010  0.0211  0.1069
51730W        W94642  33.810   5.062   2.932  0.0040  0.1389 -0.1889
51731W        W94643  33.011   6.450   5.943 -0.1776 -0.1057 -0.1672
51732W        W94644  33.693   5.691   5.055  0.1217 -0.3092 -0.0153
51733W        W94645   0.459   7.077   6.006 -0.0853 -0.1071  0.1604
51734W        W94646   0.254   6.068   6.051  0.0489 -0.1299  0.3056
51735W        W94647  32.946   5.157   4.838  0.1397 -0.1459  0.1473
51736W        W94648  33.133   8.097   4.937 -0.1916 -0.2710  0.4635
51737W        W94649   1.342   6.661   5.178  0.3632  0.3110 -0.0962
51738W        W94650   0.019   8.291   5.930 -0.1020 -0.0869  0.0399
51739W        W94651  33.098   6.248   4.171 -0.0315  0.1889 -0.0547
51740W        W94652   0.048   6.470   5.279  0.3001 -0.2278 -0.3451
51741W        W94653  33.595   7.204   4.451  0.0800 -0.0045  0.1792
51742W        W94654   1.689   6.986   5.248 -0.2060  0.0197  0.0398
51743W        W94655   0.264   6.021   6.597  0.3325  0.2932  0.2454
51744W        W94656  32.730   6.125   5.148 -0.0239  0.2147  0.1955
51745W        W94657   0.854   7.089   4.255 -0.1762  0.0364  0.2035
51746W        W94658  33.073   5.031   3.378 -0.4892 -0.2893 -0.0990
51747W        W94659  34.195   3.127   5.421  0.0704 -0.2339 -0.3425
51748W        W94660  34.478   7.775   5.880 -0.0038 -0.0203 -0.3031
51749W        W94661  33.761   4.184   5.520  0.2009 -0.0302  0.0343
51750W        W94662   0.181   5.943   4.497  0.0563  0.0223  0.1118
51751W        W94663  32.819   3.850   6.246  0.2482 -0.2313  0.1451
51752W        W94664  32.868   5.583   4.532 -0.0292  0.2725  0.1621
51753W        W94665  33.970   6.734   7.010  0.0514  0.1163 -0.0572
51754W        W94666  34.197   4.879   8.178  0.3265 -0.0812 -0.0247
51755W        W94667  33.023   4.098   3.975  0.2000 -0.2383  0.1420
51756W        W94668  33.678   6.806   7.797 -0.1498  0.0100 -0.0061
51757W        W94669  33.136   4.914   5.259  0.3853  0.1091 -0.1325
51758W        W94670  33.769   4.661   3.692  0.0118  0.3748  0.0717
51759W        W94671  34.453   4.868   5.159  0.0302 -0.2993 -0.2269
51760W        W94672  34.129   6.293   6.118 -0.1070 -0.2049  0.4934
51761W        W94673  33.914   4.480   5.902 -0.0748  0.2653  0.1138
51762W        W94674   0.158   6.979   6.428  0.0778 -0.1202  0.0374
51763W        W94675   0.178   6.525   3.912 -0.1508  0.1018 -0.0713
51764W        W94676  34.207   4.639   4.727  0.0106 -0.0277 -0.2686
51765W        W94677  33.553   5.999   3.905 -0.2156 -0.0519  0.0300
51766W        W94678  33.036   4.408   5.463  0.0544 -0.0678 -0.1442
51767W        W94679  34.569   5.689   6.840 -0.1969  0.1534 -0.2232
51768W        W94680  32.619   4.327   6.350  0.0022 -0.1563  0.0512
51769W        W94681  33.952   6.253   4.662 -0.0558  0.0808 -0.0470
51770W        W94682  33.867   5.333   5.822  0.1332  0.1763  0.2330
51771W        W94683  33.521   3.932   6.619 -0.3911 -0.0988  0.3028
51772W        W94684  33.994   4.738   7.560  0.0205 -0.2053  0.1519
51773W        W94685  33.229   4.944   5.756  0.2422 -0.1803  0.0574
51774W        W94686  32.898   4.104   4.536 -0.1722  0.3430 -0.1728
51775W        W94687  34.250   5.112   3.466 -0.1260 -0.3170  0.1521
51776W        W94688  32.994   6.019   4.676  0.1001  0.1536  0.2389
51777W        W94689  32.511   5.546   5.959 -0.3044 -0.1041 -0.0990
51778W        W94690  32.868   4.503   4.211  0.0356  0.0034 -0.0967
51779W        W94691  32.983   6.916   5.255 -0.0039  0.0067 -0.1076
51780W        W94692  32.532   5.721   4.892  0.0010 -0.0919  0.1719
51781W        W94693   0.865   4.422   3.665  0.0031  0.0623 -0.0570
51782W        W94694   0.563   4.939   6.888  0.0749 -0.0142  0.0063
51783W        W94695  33.859   4.075   4.367  0.3340  0.0282 -0.0697
51784W        W94696  33.620   6.596   3.199  0.0155 -0.0843 -0.0756
51785W        W94697  33.869   4.962   4.924 -0.0693 -0.1238  0.1264
51786W        W94698  34.126   7.203   5.919 -0.2807 -0.4196 -0.1663
51787W        W94699  32.258   4.264   7.382 -0.3185 -0.1502  0.0669
51788W        W94700  33.568   4.730   2.620  0.1494 -0.0343 -0.0743
51789W        W94701  33.777   5.555   6.810 -0.0529 -0.1036  0.0404
51790W        W94702  34.321   5.451   5.998  0.0037  0.1580  0.2373
51791W        W94703  34.624   7.768   5.254 -0.0292  0.4248  0.0234
51792W        W94704   0.959   5.101   6.242  0.2644  0.1733 -0.0809
51793W        W94705  33.663   5.737   5.565  0.0434  0.1310 -0.1194
51794W        W94706  33.881   3.046   6.412  0.0268  0.2444  0.0107
51795W        W94707   0.856   4.425   4.454  0.1460  0.0048  0.0873
51796W        W94708  34.293   6.598   4.423 -0.1596  0.0562 -0.1199
51797W        W94709   0.176   4.433   6.787  0.0539 -0.4387 -0.0266
51798W        W94710  33.367   6.483   5.151  0.1215  0.1143 -0.3493
51799W        W94711   0.082   5.036   6.935  0.2826  0.1571  0.0125
51800W        W94712   1.360   4.906   6.120  0.0189 -0.0781  0.5349
51801W        W94713  33.466   6.999   5.168 -0.0908  0.0680 -0.1274
51802W        W94714  34.690   3.792   7.462 -0.2121 -0.2449  0.0480
51803W        W94715   0.664   5.945   4.862 -0.3031 -0.0385  0.2810
51804W        W94716  34.626   5.244   3.955 -0.3136 -0.2281 -0.1098
51805W        W94717  33.213   3.353   4.511 -0.1223 -0.6468  0.0754
51806W        W94718  34.545   6.408   5.817 -0.2350 -0.1701  0.0035
51807W        W94719  33.433   6.421   3.613 -0.1749  0.2719  0.0830
51808W        W94720  34.286   5.487   4.208 -0.0144  0.1637  0.1011
51809W        W94721  32.092   6.924   5.102  0.2814  0.1642 -0.1282
51810W        W94722  34.613   4.597   3.362 -0.4025  0.0259  0.0968
51811W        W94723  32.505   6.141   4.469  0.2943  0.1644 -0.0905
51812W        W94724  33.883   3.677   6.344  0.0532 -0.0047  0.0044
51813W        W94725  34.086   3.859   5.217  0.4228 -0.1924 -0.2932
51814W        W94726  32.516   6.642   5.884  0.0241 -0.1514  0.2691
51815W        W94727   1.260   5.801   7.164 -0.1125 -0.1531 -0.1544
51816W        W94728  32.318   4.803   4.121  0.2919 -0.0936  0.1418
51817W        W94729  34.483   5.228   6.465  0.0856 -0.0435 -0.0178
51818W        W94730  33.710   7.661   4.200 -0.3964 -0.0358 -0.0994
51819W        W94731  33.600   5.187   5.336  0.0703  0.2455  0.0923
51820W        W94732  33.784   8.129   5.403 -0.1398  0.2926 -0.1304
51821W        W94733  32.635   5.033   7.661 -0.1727 -0.0374  0.3088
51822W        W94734  34.415   3.568   5.758  0.1680  0.3042 -0.2417
51823W        W94735  33.522   3.630   3.370 -0.1870  0.1837  0.0429
51824W        W94736  34.172   4.080   5.709  0.0084 -0.3239  0.0698
51825W        W94737  33.933   4.798   7.073  0.0761  0.1220  0.1932
51826W        W94738  32.667   5.054   8.734  0.3066 -0.1620  0.1462
51827W        W94739  33.900   6.449   3.723  0.0969 -0.0043  0.1672
51828W        W94740  32.709   4.818   5.545 -0.5064  0.0225  0.2114
51829W        W94741  32.790   5.789   3.992  0.0820  0.1264  0.0001
51830W        W94742  34.505   4.746   6.581 -0.2472  0.2772  0.0246
51831W        W94743  34.018   5.380   6.407 -0.0700 -0.0364 -0.0767
51832W        W94744  33.408   6.656   4.050  0.1082 -0.0042  0.0169
51833W        W94745   0.649   6.336   5.748  0.1124 -0.3133  0.0059
51834W        W94746   0.131   4.972   3.594  0.1995  0.0455  0.3330
51835W        W94747  32.898   4.483   7.986 -0.0347  0.2551  0.1442
51836W        W94748  33.239   5.126   6.222  0.5755 -0.0448  0.1772
51837W        W94749  33.415   4.826   7.041 -0.1082  0.1622  0.1053
51838W        W94750  33.213   3.692   3.750 -0.0909 -0.1273 -0.0331
51839W        W94751  34.429   4.428   6.041  0.3412  0.0661 -0.3506
51840W        W94752   0.578   7.243   5.241  0.1920 -0.2371 -0.0519
51841W        W94753  32.959   5.522   5.152 -0.1312  0.1285 -0.1004
51842W        W94754  34.591   5.542   4.672  0.0847  0.0778  0.0029
51843W        W94755  34.398   4.981   4.300 -0.4240  0.1425 -0.0057
51844W        W94756  33.607   5.054   6.612 -0.0997 -0.0117  0.0940
51845W        W94757  33.209   5.344   6.798 -0.1427 -0.1498 -0.4859
51846W        W94758  32.900   4.893   7.025 -0.0054 -0.0739 -0.0137
51847W        W94759  33.271   3.711   6.107 -0.0658  0.1654  0.2332
51848W        W94760  33.129   4.516   3.314 -0.0341 -0.3948 -0.2241
51849W        W94761  34.109   7.762   5.404 -0.0512  0.2494  0.1710
51850W        W94762  32.715   4.664   5.089  0.1736  0.1700 -0.2911
51851W        W94763  34.558   6.265   6.446 -0.0046 -0.4421 -0.1739
51852W        W94764  33.642   4.623   3.139 -0.5001  0.1009 -0.0405
51853W        W94765   0.744   5.326   4.376 -0.0523  0.3246 -0.1530
51854W        W94766   1.247   6.870   6.372  0.0436 -0.1262 -0.1493
51855W        W94767  34.120   2.805   3.582 -0.3319  0.4109  0.0178
51856W        W94768  33.832   6.777   4.251  0.1498 -0.0131 -0.0482
51857W        W94769   1.051   5.873   5.970  0.1772  0.0224 -0.2072
51858W        W94770  34.206   6.730   7.510  0.2027 -0.1266  0.1879
51859W        W94771  34.291   6.147   5.291  0.0574  0.1846  0.2960
51860W        W94772   0.562   4.831   6.064 -0.1652 -0.0635 -0.0058
51861W        W94773  34.232   4.906   5.948  0.0664 -0.3961  0.1598
51862W        W94774  33.864   5.840   6.051  0.1502 -0.2062  0.2836
51863W        W94775  33.197   3.786   6.953  0.2434 -0.3163  0.0757
51864W        W94776  34.089   3.426   4.954 -0.2028  0.4587  0.0204
51865W        W94777  33.352   5.820   7.689  0.2839 -0.0899  0.1109
51866W        W94778  33.291   5.907   5.172 -0.2451  0.1003  0.1238
51867W        W94779   0.265   6.324   4.805 -0.1141  0.0426  0.0736
51868W        W94780  34.669   5.012   4.694  0.1085 -0.2762 -0.2956
51869W        W94781  32.900   6.482   4.902  0.0564 -0.2056 -0.2715
51870W        W94782  32.668   6.778   4.547 -0.0824  0.3010  0.0434
51871W        W94783   0.059   7.666   6.631 -0.1138 -0.1331  0.1075
51872W        W94784   0.629   5.289   5.727 -0.3772  0.0111  0.1528
51873W        W94785  32.851   4.858   3.005  0.0559 -0.0642  0.2494
51874W        W94786  33.688   4.511   6.716 -0.0286 -0.0821 -0.0889
51875W        W94787  33.346   5.809   6.812 -0.0556  0.3161 -0.0282
51876W        W94788  33.571   5.037   3.918  0.0359 -0.4392  0.1179
51877W        W94789  34.172   5.676   5.555 -0.0504 -0.1568  0.0137
51878W        W94790   0.137   4.786   4.085 -0.0227 -0.1681 -0.2573
51879W        W94791  34.269   6.667   5.517  0.0864  0.0455 -0.1984
51880W        W94792  34.280   5.851   6.427  0.0749  0.0436  0.1385
51881W        W94793   0.206   6.617   6.113  0.0773 -0.0722 -0.0954
51882W        W94794  33.412   5.525   3.677  0.0776  0.1517 -0.1760
51883W        W94795  32.740   5.007   6.045  0.2550 -0.3612 -0.1395
51884W        W94796  33.371   4.247   4.558  0.1211 -0.1228 -0.1475
51885W        W94797   0.162   5.554   5.808 -0.1846  0.0340  0.3221
51886W        W94798   0.348   4.309   3.175  0.0547 -0.1248  0.1749
51887W        W94799  33.929   3.612   5.681 -0.1136 -0.0262  0.0935
51888W        W94800  34.454   6.236   4.782  0.1323 -0.1559  0.0803
51889W        W94801  34.086   5.380   8.078 -0.1187 -0.1446 -0.0416
51890W        W94802  33.693   3.817   3.876 -0.3275  0.1212  0.0116
51891W        W94803  34.175   6.855   3.919  0.1321  0.0735 -0.0946
51892W        W94804  33.188   3.043   7.031  0.0071 -0.0611 -0.0662
51893W        W94805  33.238   3.783   4.818 -0.1736 -0.3520 -0.1414
51894W        W94806  34.208   4.523   4.246 -0.2088  0.1086 -0.0457
51895W        W94807  32.983   6.436   5.474  0.3046 -0.3657  0.1828
51896W        W94808   0.851   6.579   4.359  0.2406  0.1648 -0.2437
51897W        W94809  34.480   5.941   5.902  0.1955 -0.0448 -0.2411
51898W        W94810  34.626   7.326   8.002  0.3451  0.1222 -0.1235
51899W        W94811  33.951   6.316   4.162  0.2114 -0.2487 -0.0800
51900W        W94812   0.537   7.191   7.249 -0.1219  0.0091 -0.2067
51901W        W94813   1.872   6.149   5.927 -0.1405 -0.0222  0.2266
51902W        W94814  34.229   6.628   4.964  0.4180 -0.1802 -0.0575
51903W        W94815   0.250   4.676   4.923 -0.2926 -0.4477 -0.2676
51904W        W94816  34.392   5.178   5.582  0.2471 -0.0401  0.1282
51905W        W94817  33.789   5.223   7.302 -0.0343 -0.5183  0.0179
51906W        W94818  32.977   4.987   2.533  0.0280  0.0548 -0.0026
51907W        W94819   0.490   6.254   4.298  0.0518  0.1748  0.2417
51908W        W94820  32.549   5.663   5.433  0.0162 -0.0029 -0.2872
51909W        W94821  34.506   4.170   6.494  0.1154  0.1503  0.0793
51910W        W94822  33.791   5.595   7.615  0.1600 -0.0052 -0.2490
51911W        W94823  33.652   5.326   4.428  0.2542  0.0991  0.1279
51912W        W94824  33.354   3.926   5.332  0.0566  0.1585 -0.2538
51913W        W94825  34.362   3.812   6.223  0.0361 -0.0961 -0.1132
51914W        W94826  33.490   6.065   4.757 -0.1130 -0.0500 -0.0452
51915W        W94827  34.384   4.751   3.830  0.1635 -0.0526  0.1466
51916W        W94828  32.372   6.048   4.039 -0.0792  0.1285  0.2517
51917W        W94829   0.276   5.929   7.090  0.2607 -0.0331  0.0170
51918W        W94830   0.272   4.152   7.249 -0.1122  0.0484  0.3067
51919W        W94831  32.734   4.462   3.679 -0.1409 -0.1070  0.1605
51920W        W94832   0.048   4.837   5.928 -0.2877  0.1399  0.1494
51921W        W94833   0.592   5.843   6.297 -0.2091  0.0769 -0.2914
51922W        W94834   0.964   6.554   6.629  0.1845 -0.0340 -0.1187
51923W        W94835  33.699   2.999   6.929  0.1638 -0.0274 -0.0047
51924W        W94836   0.186   6.639   7.734  0.1132  0.2974 -0.2332
51925W        W94837  32.707   4.436   6.962 -0.1097  0.1577  0.0792
51926W        W94838   0.113   7.142   7.578  0.3772  0.2146 -0.0248
51927W        W94839  33.077   3.084   4.078  0.2782  0.0867  0.0164
51928W        W94840  32.985   4.071   5.799 -0.1791  0.2314  0.0949
51929W        W94841  33.833   4.864   4.331 -0.1792  0.2294  0.3378
51930W        W94842   0.597   6.279   6.941  0.0190  0.0616 -0.1851
51931W        W94843  33.914   5.507   3.582 -0.0053  0.5116 -0.3368
51932W        W94844   0.803   8.141   7.913  0.2412  0.2195 -0.0751
51933W        W94845  33.215   4.671   6.627  0.1216  0.1207  0.0298
51934W        W94846  34.024   7.100   5.316  0.0501 -0.0024  0.0703
51935W        W94847   0.547   6.192   5.263 -0.2544 -0.1403  0.0210
51936W        W94848  33.751   4.474   4.818  0.3707  0.2179 -0.0406
51937W        W94849   0.191   7.771   6.188  0.2129  0.1756 -0.2911
51938W        W94850   1.459   8.603  10.205 -0.0802 -0.0298  0.0358
51939W        W94851  33.459   4.480   8.376 -0.0254 -0.0422  0.1661
51940W        W94852  32.174   3.306   9.011 -0.2156  0.0264  0.1149
51941W        W94853   0.763   5.342   9.516 -0.4561  0.0364 -0.3098
51942W        W94854  33.450   4.129   8.017 -0.2910  0.1375 -0.0258
51943W        W94855  33.148   4.299   7.626 -0.1333  0.2000 -0.1813
51944W        W94856  33.836   5.590   8.477 -0.1668  0.1023  0.1863
51945W        W94857  33.335   4.327   9.972 -0.0033 -0.0101  0.0383
51946W        W94858   0.175   5.639   8.887 -0.2732 -0.1976 -0.0658
51947W        W94859   1.054   3.936   9.223  0.1811 -0.1022 -0.1127
51948W        W94860   2.072   6.012   9.428  0.1900  0.2427  0.0119
51949W        W94861  32.425   4.677   7.914  0.0913 -0.0162 -0.2383
51950W        W94862  32.585   4.409   8.619  0.0259 -0.0512 -0.2623
51951W        W94863   0.494   6.222  10.384 -0.1750 -0.2237 -0.2697
51952W        W94864  33.965   9.561  10.371  0.0543  0.1222  0.1149
51953W        W94865   1.967   7.796   9.737  0.0363  0.1442 -0.0106
51954W        W94866  33.242   5.549   9.072  0.1592  0.0013 -0.2570
51955W        W94867  33.241   6.269   8.893 -0.0850 -0.0729 -0.1222
51956W        W94868  34.246   6.874   8.916  0.1441  0.0084 -0.0847
51957W        W94869   0.150   6.741   8.271  0.1256  0.2658 -0.3002
51958W        W94870  34.225   6.071   8.536 -0.1214  0.0247  0.2325
51959W        W94871   0.207   5.927   9.345 -0.2211 -0.3592  0.1048
51960W        W94872  32.973   5.956  10.213  0.1119  0.0976 -0.3010
51961W        W94873   0.448   6.625   7.328  0.1036 -0.0170  0.1152
51962W        W94874  34.386   4.934   7.283 -0.0849 -0.4506  0.2316
51963W        W94875  33.418   3.702   9.188  0.2749  0.1350 -0.1685
51964W        W94876   1.129   7.714  10.374 -0.0423  0.0661  0.1396
51965W        W94877   0.158   5.265   9.875 -0.2665 -0.2661 -0.0004
51966W        W94878  33.745   4.631  10.065 -0.0008 -0.0459  0.2124
51967W        W94879  33.153   4.681   9.465  0.1084 -0.2550 -0.2195
51968W        W94880  33.449   5.030   9.275 -0.0419 -0.0469  0.1555
51969W        W94881  33.167   4.860   7.467  0.2393 -0.1571  0.0239
51970W        W94882   0.266   5.460   9.457  0.2156  0.1536 -0.3586
51971W        W94883  32.268   4.166   8.962 -0.0905 -0.2011  0.2960
51972W        W94884   0.112   6.442   8.708  0.1487 -0.1387 -0.0660
51973W        W94885  34.172   4.878   9.520  0.0108 -0.0604  0.0291
51974W        W94886  34.104   7.086   7.898  0.0007  0.1150  0.3736
51975W        W94887  31.604   6.377  10.232 -0.1857 -0.0753 -0.1438
51976W        W94888  33.004   5.657   8.180 -0.1825  0.0425 -0.0379
51977W        W94889   0.452   5.262  10.275  0.0791 -0.0569 -0.1639
51978W        W94890   3.619   5.333  10.067 -0.1396  0.0397  0.1856
51979W        W94891  32.920   5.107   9.218  0.0732 -0.0366  0.0222
51980W        W94892  33.948   5.246   9.185  0.0979  0.0434 -0.2356
51981W        W94893  33.390   3.922   8.679 -0.3091  0.2586  0.1226
51982W        W94894  33.714   5.528   9.987 -0.1021  0.3498  0.0133
51983W        W94895  32.315   4.837   8.530  0.3118  0.2568 -0.3035
51984W        W94896  32.979   4.725   8.517  0.0084  0.4020 -0.1503
51985W        W94897  33.595   5.586   9.453 -0.2102 -0.1239  0.1799
51986W        W94898   0.680   6.013   9.460  0.1792  0.0444 -0.2226
51987W        W94899  33.705   5.115   7.817  0.2092  0.2204  0.3769
51988W        W94900  33.673   6.528  10.240 -0.0320  0.0308  0.1972
51989W        W94901   2.159   7.308  10.440 -0.1280 -0.1680  0.0567
51990W        W94902  34.358   4.857   9.052  0.2598 -0.2388 -0.0826
51991W        W94903  33.231   4.343   7.019 -0.3015  0.3700  0.3163
51992W        W94904  32.726   6.163   7.332  0.1819 -0.1112 -0.1490
51993W        W94905  34.639   5.768   9.735 -0.1628  0.0132 -0.1618
51994W        W94906  34.609   6.568   9.718  0.1980  0.0142  0.3813
51995W        W94907  34.437   5.907   8.110 -0.1330 -0.4387  0.3599
51996W        W94908   1.130   6.281   9.544  0.1053 -0.0658  0.0943
51997W        W94909  34.134   8.968   9.951  0.2787  0.0948  0.2721
51998W        W94910  32.102   6.296  10.110 -0.2357 -0.1831 -0.1264
51999W        W94911   0.164   3.747   8.450 -0.1705  0.0539 -0.1483
52000W        W94912  34.402   3.445   7.659 -0.0332 -0.1335  0.0822
52001W        W94913  33.277   6.293   6.459 -0.2012  0.0189 -0.1007
52002W        W94914  32.831   4.071   7.270  0.1833 -0.0103 -0.0192
52003W        W94915   0.065   4.554   8.979  0.0952 -0.0607 -0.1447
52004W        W94916  33.638   5.036   9.764  0.0570 -0.0372 -0.0140
52005W        W94917  33.615   5.809   7.233  0.1187  0.0623  0.4769
52006W        W94918   0.028   3.816   9.484  0.2399 -0.3276 -0.2087
52007W        W94919   1.145   8.028   9.916  0.2425  0.0011  0.0236
52008W        W94920  34.475   6.784   7.961  0.1312 -0.0571 -0.0952
52009W        W94921  33.885   5.690   9.038  0.1361  0.2258 -0.0714
52010W        W94922  34.681   7.404  10.029  0.0980  0.1826 -0.1307
52011W        W94923  34.623   4.174   8.654  0.0598 -0.0356  0.1043
52012W        W94924  32.196   6.257   9.467  0.0956 -0.0226 -0.0176
52013W        W94925   0.918   5.214   8.938  0.0307 -0.2484  0.2876
52014W        W94926  34.448   4.644   8.599 -0.0175  0.0105 -0.2353
52015W        W94927  33.446   6.236   9.728 -0.0983  0.0388  0.0582
52016W        W94928  33.186   5.241   8.534  0.2627 -0.2418 -0.4308
52017W        W94929  34.315   3.883   8.304 -0.0150  0.2027  0.4036
52018W        W94930  32.757   6.837   9.023  0.2156  0.0554 -0.0931
52019W        W94931   0.949   4.712   7.880 -0.1414  0.1170  0.0889
52020W        W94932  32.986   6.068   9.648  0.1888  0.0299 -0.0978
52021W        W94933   0.723   4.615   8.289  0.2229  0.3008 -0.1826
52022W        W94934  34.174   4.505   9.825  0.0222  0.0889  0.0432
52023W        W94935   0.434   5.148   7.907 -0.2311 -0.0305 -0.2653
52024W        W94936   0.397   6.605  10.010 -0.0472 -0.1592  0.0642
52025W        W94937  33.628   5.273   8.799  0.0436  0.0259 -0.1661
52026W        W94938  34.301   5.570  10.047  0.0714  0.0806 -0.2490
52027W        W94939  34.133   5.163   8.635 -0.0948 -0.0299 -0.3659
52028W        W94940  33.911   6.931  10.602 -0.0077 -0.2529 -0.1333
52029W        W94941  32.931   5.597   9.459  0.1427 -0.1606  0.4232
52030W        W94942  33.851   6.292   7.814 -0.2526  0.0703  0.1292
52031W        W94943  32.847   7.299   9.264 -0.0400  0.0030 -0.1255
52032W        W94944   0.523   5.691   9.815 -0.1359 -0.0907  0.0971
52033W        W94945  33.554   5.138  10.274 -0.3133  0.0107 -0.2822
52034W        W94946  34.481   4.364   8.125 -0.1110 -0.0561 -0.2877
52035W        W94947   1.519   5.307   9.229 -0.0496  0.1904  0.0175
52036W        W94948  33.466   5.488   8.062 -0.3947 -0.6358 -0.0859
52037W        W94949   2.471   6.023  10.583 -0.0651 -0.0594  0.0502
52038W        W94950  34.687   5.675   6.293 -0.0922 -0.2608  0.1811
52039W        W94951  34.326   6.245   9.377  0.1877  0.0240 -0.0031
52040W        W94952   1.803   4.674  12.006  0.0814 -0.1840  0.0280
52041W        W94953  34.167   5.236   7.619  0.2646 -0.0923  0.3362
52042W        W94954  34.228   6.381   8.131 -0.2042 -0.1421 -0.0948
52043W        W94955  32.842   3.601   9.449  0.3315  0.0281  0.0042
52044W        W94956  33.096   5.041   7.965  0.2273  0.0438 -0.0149
52045W        W94957   0.017   6.002   8.483  0.0287  0.0687 -0.1816
52046W        W94958   2.229   5.306   8.898 -0.0895  0.1470 -0.1744
52047W        W94959  33.662   3.982  10.210 -0.0119  0.0042  0.0506
52048W        W94960  33.800   6.242   8.328  0.0366 -0.0942 -0.4164
52049W        W94961  32.780   5.602  10.476 -0.0531  0.2059 -0.1607
52050W        W94962   0.333   9.241  10.097 -0.0318  0.2203 -0.2798
52051W        W94963  33.778   6.256   9.276  0.0878  0.1916 -0.2149
52052W        W94964   0.250   6.154   9.820  0.3334  0.3996 -0.1088
52053W        W94965  33.989   6.401   9.843  0.2533  0.0749  0.0138
52054W        W94966  33.647   4.939   8.469  0.2092 -0.2770 -0.2244
52055W        W94967  33.905   5.924   9.638 -0.0309  0.2711 -0.1637
52056W        W94968  32.478   7.297   8.931 -0.1469  0.0177 -0.1987
52057W        W94969  34.168   5.615   7.206  0.4151  0.1223  0.0062
52058W        W94970  34.456   6.226  10.016  0.1490 -0.0700  0.2320
52059W        W94971  33.285   5.933   6.138  0.0417 -0.0086  0.0003
52060W        W94972  33.468   5.969  10.157  0.0830 -0.0953 -0.2520
52061W        W94973   0.224   4.645   8.466 -0.0345 -0.1698 -0.2843
52062W        W94974  34.496   3.417   8.178  0.1129 -0.2018  0.5789
52063W        W94975  33.215   5.355   7.462  0.1587  0.1947 -0.0286
52064W        W94976   0.210   5.703   7.659 -0.1458  0.0851 -0.0129
52065W        W94977   0.268   5.510   8.170  0.1142  0.2458  0.0000
52066W        W94978  34.405   6.604   8.502  0.0163  0.1924  0.1891
52067W        W94979   1.450   8.163  10.378  0.2138 -0.0226 -0.1115
52068W        W94980   0.232   8.200  10.127 -0.1197  0.0052  0.2374
52069W        W94981  32.466   4.941   9.234 -0.3010 -0.1229  0.1898
52070W        W94982  34.075   6.278  10.455  0.1427 -0.1483  0.1714
52071W        W94983  32.548   6.162   9.896  0.0514  0.1677  0.1806
52072W        W94984  34.473   7.114  10.512 -0.0758 -0.2970 -0.1210
52073W        W94985   0.023   6.333   8.096 -0.0165  0.4022 -0.0486
52074W        W94986  32.927   3.417   7.193  0.1669 -0.3971  0.1094
52075W        W94987   0.293   6.883  10.603 -0.0459  0.0217  0.4603
52076W        W94988   1.748   1.684   9.513 -0.0411 -0.0809  0.0663
52077W        W94989  33.690   4.573   9.508 -0.0360  0.4207 -0.1057
52078W        W94990   0.103   6.924   7.117 -0.0156 -0.1422  0.3383
52079W        W94991  31.756   7.663   9.805  0.0128 -0.1138  0.3094
52080W        W94992  33.461   4.700   7.844 -0.0969  0.0058 -0.4365
52081W        W94993  33.825   4.824   8.965 -0.0083 -0.2030 -0.0259
52082W        W94994  32.783   6.862  10.195 -0.2423 -0.2852 -0.3164
52083W        W94995   0.533   6.851   6.862  0.1177 -0.0048 -0.1589
52084W        W94996   1.243   6.097   9.974 -0.0373 -0.0874 -0.3652
52085W        W94997  33.311   4.861   8.852  0.1472  0.1298  0.0379
52086W        W94998   0.052   6.928  10.151  0.0091 -0.1376  0.1563
52087W        W94999   0.433   6.721   9.035  0.0944  0.1175  0.3847
52088W        W95000   0.110   5.061   7.589 -0.1034  0.1452 -0.3757
52089W        W95001  34.584   4.592   9.410  0.2153 -0.0905  0.2630
52090W        W95002   1.262   7.275   9.878  0.0127  0.2245 -0.1796
52091W        W95003  32.782   5.560   8.687  0.0953  0.0474  0.0335
52092W        W95004  33.341   4.162   9.494  0.0395  0.3057  0.1535
52093W        W95005   2.262   4.915   9.742  0.1214  0.2393 -0.3500
52094W        W95006  32.352   7.144  10.115  0.0957  0.2783 -0.0228
52095W        W95007  31.968   5.084   8.307 -0.3255 -0.3724 -0.0142
52096W        W95008  33.965   4.324   8.022 -0.2587  0.2376  0.0456
52097W        W95009  32.086   3.630  10.069  0.0332 -0.0539  0.0202
52098W        W95010  34.540   5.219   9.407  0.0039 -0.0720 -0.4674
52099W        W95011  33.349   6.352   7.770  0.2461 -0.2826  0.0618
52100W        W95012  31.930   4.020   9.456 -0.0166  0.1136 -0.5259
52101W        W95013   1.003   2.653   9.871 -0.0642  0.0350  0.4144
52102W        W95014   0.009   9.394  10.425  0.2333 -0.1594  0.0629
52103W        W95015  33.972   4.559   8.515  0.0055  0.2325 -0.0468
52104W        W95016  33.326   5.976   9.293 -0.2146 -0.0909 -0.0768
52105W        W95017   0.993   6.051   8.417  0.3608  0.0250 -0.0511
52106W        W95018   0.757   5.459   8.178  0.0243 -0.0654  0.3582
52107W        W95019   2.863   7.826  10.083 -0.4675 -0.2131 -0.0941
52108W        W95020  34.033   5.360   9.671  0.1014 -0.3303  0.0767
52109W        W95021  34.553   6.120   8.931  0.2113 -0.4646  0.3049
52110W        W95022   0.097   6.410   9.237 -0.1003  0.1327 -0.0730
52111W        W95023  34.149   4.343   8.909  0.1382  0.1588  0.0140
52112W        W95024   0.332   7.773   9.367  0.0314 -0.0033  0.1518
52113W        W95025   0.608  10.073   2.243 -0.2040 -0.1013  0.1711
52114W        W95026  32.584   6.721   0.393  0.3622  0.1538  0.1720
52115W        W95027  34.370   9.708   2.262 -0.1682  0.2835  0.0469
52116W        W95028  34.314   7.019   1.888 -0.0951  0.0419 -0.2875
52117W        W95029  33.972   8.211   1.927 -0.0760 -0.1483  0.1315
52118W        W95030  34.383  11.835   2.398  0.2575  0.1012  0.0504
52119W        W95031   0.361   6.811   0.953  0.0313 -0.1548 -0.0488
52120W        W95032  33.310   8.476   2.312 -0.1368  0.0676 -0.0212
52121W        W95033  34.277   9.091   1.388 -0.0613 -0.1565 -0.1406
52122W        W95034   0.002   9.122   1.615  0.2074 -0.1417  0.1936
52123W        W95035   0.820   7.615   2.091  0.2949  0.1928  0.1345
52124W        W95036   0.266   7.744   3.856  0.3050 -0.2327 -0.2633
52125W        W95037   0.815   9.279   1.562  0.0323  0.1686  0.2784
52126W        W95038  32.724   7.639   0.472 -0.1281  0.1326 -0.0889
52127W        W95039  32.880   8.717   2.527 -0.0371  0.0862 -0.0762
52128W        W95040  33.977   8.657   2.191 -0.0010 -0.1623  0.1009
52129W        W95041   0.103  10.575   1.052 -0.1744  0.0441  0.1988
52130W        W95042   2.087   9.409   1.758 -0.3481  0.4092  0.1476
52131W        W95043  31.729   8.485   1.421 -0.1184 -0.0899  0.0877
52132W        W95044  30.789  10.623   1.843 -0.4992  0.0389 -0.1000
52133W        W95045  33.748   9.785   1.092 -0.1609 -0.3124 -0.5010
52134W        W95046   0.451  10.631   4.159  0.1087 -0.0486  0.3158
52135W        W95047  33.589   9.796  31.592 -0.0262 -0.1885  0.4100
52136W        W95048  33.984   9.296   2.938  0.0436  0.0048 -0.3673
52137W        W95049  32.894  10.786   0.760  0.4680  0.0203 -0.0115
52138W        W95050   1.414   8.197   1.146  0.2368  0.1677  0.0349
52139W        W95051  33.853   9.712   4.762 -0.0889  0.0036  0.2354
52140W        W95052  31.963  10.691   2.451 -0.0843  0.0216 -0.1764
52141W        W95053  33.676  11.218   0.895 -0.1260  0.2999 -0.2855
52142W        W95054  34.533   8.083  31.815 -0.2687  0.1985  0.1761
52143W        W95055  33.237   7.522   1.550  0.1263  0.1543 -0.0700
52144W        W95056  33.393   8.534   1.265 -0.1180  0.1007 -0.4902
52145W        W95057  34.219   7.977   2.425  0.4178 -0.0831 -0.3554
52146W        W95058  32.320  11.272   2.723  0.2096  0.0311 -0.2234
52147W        W95059   0.984   7.162   2.045  0.3201 -0.1328 -0.1694
52148W        W95060  33.661   7.211   0.572  0.0745  0.2616  0.4314
52149W        W95061  31.862   9.608   1.894  0.0347  0.0256 -0.3475
52150W        W95062  34.055   9.805   3.914 -0.0186  0.1424  0.0333
52151W        W95063  34.673   5.773   0.120 -0.3420  0.0888  0.0452
52152W        W95064  33.401  12.376   2.987  0.1436 -0.1008 -0.0551
52153W        W95065  33.856   9.364   1.380 -0.3199 -0.0222 -0.2817
52154W        W95066  33.823   8.185   0.566 -0.0153  0.1082  0.2284
52155W        W95067   1.544   8.766   0.991 -0.1135  0.0192 -0.1480
52156W        W95068  32.558  10.133   1.368  0.2566  0.5060  0.0178
52157W        W95069   0.345   7.704   2.209 -0.1276  0.0469 -0.0817
52158W        W95070  34.280  10.443   2.642 -0.2416  0.0712  0.0321
52159W        W95071  34.258  10.737   1.020 -0.2088  0.0635 -0.0386
52160W        W95072  33.673   9.433   0.642 -0.2247  0.0267  0.2051
52161W        W95073  32.767   8.598   0.141 -0.1964  0.0711  0.1635
52162W        W95074  33.507   8.571   3.283 -0.0528 -0.0413 -0.1010
52163W        W95075   0.640  10.278   1.741  0.2880  0.1147  0.1159
52164W        W95076  33.958   7.739   3.324 -0.2078 -0.0525  0.4363
52165W        W95077   0.124   7.914   0.255  0.2980 -0.0823  0.1129
52166W        W95078  33.437   9.408   2.785  0.3421  0.1046  0.1149
52167W        W95079  33.152   8.057   1.322 -0.0872  0.2748  0.0876
52168W        W95080  34.643   7.983   2.121  0.1019  0.1906  0.2122
52169W        W95081  33.580   7.357   3.370  0.1574 -0.0086 -0.1827
52170W        W95082  33.465   6.796  31.683 -0.1331  0.2138 -0.1057
52171W        W95083  34.266   7.967   3.014  0.1907  0.1675 -0.0587
52172W        W95084  32.021   9.545   1.406  0.3157  0.0434  0.2462
52173W        W95085  33.344   8.871   2.791  0.3663  0.2360 -0.0262
52174W        W95086  32.399   8.385  31.820 -0.0224  0.2125  0.0181
52175W        W95087  32.880  12.149   1.130 -0.0091 -0.2734  0.1525
52176W        W95088  34.689   8.947   2.099 -0.1838 -0.5385  0.1270
52177W        W95089  32.644   8.081   0.612  0.0315  0.0687 -0.1785
52178W        W95090  32.205   8.917   2.118  0.1634 -0.2924 -0.1546
52179W        W95091  32.095   7.488  31.716  0.0300  0.1479  0.0630
52180W        W95092  34.092   9.336   0.971 -0.0563  0.2365  0.0641
52181W        W95093   0.739   8.352   1.244 -0.2166  0.0874 -0.1202
52182W        W95094  34.530  10.344   0.453 -0.1060 -0.0433  0.0649
52183W        W95095  33.359   9.324   1.135 -0.0897  0.0837 -0.0231
52184W        W95096  33.623   7.689   1.338  0.1897 -0.2653  0.0022
52185W        W95097  33.461   9.565   3.295  0.1148 -0.0107 -0.0217
52186W        W95098  31.735  10.523   3.667  0.3992  0.3182  0.0579
52187W        W95099  34.512   8.497   0.103 -0.0106 -0.0731 -0.0171
52188W        W95100   0.083  10.434   3.049  0.2236 -0.0058  0.0881
52189W        W95101  31.083  10.082   1.886 -0.2283 -0.2930 -0.1113
52190W        W95102   1.827   6.811   2.752  0.2324  0.1986  0.0340
52191W        W95103  33.036   8.557  30.851 -0.1343 -0.2532 -0.4055
52192W        W95104  33.593  10.507   0.241  0.3432  0.0140 -0.0910
52193W        W95105  34.590   6.705   3.559 -0.0897  0.1691  0.0227
52194W        W95106  33.719   8.391  31.674  0.2854  0.1299 -0.0777
52195W        W95107   0.150   7.434   3.497 -0.3207 -0.0057 -0.0364
52196W        W95108  33.888   9.606   2.469  0.1169  0.3624 -0.1300
52197W        W95109  33.891  10.450   3.483  0.0752 -0.1855  0.1709
52198W        W95110   1.838   7.217   3.989 -0.1927 -0.0732  0.1689
52199W        W95111  32.909  10.382   1.024 -0.0755 -0.3703 -0.0382
52200W        W95112  34.210   9.806   1.243  0.1098 -0.0125  0.3007
52201W        W95113   0.561   7.304   2.465 -0.2784  0.0240 -0.3937
52202W        W95114  34.653  10.902   2.999  0.0360 -0.0087  0.3314
52203W        W95115  32.231   9.074  31.371 -0.0236 -0.1821  0.0731
52204W        W95116  33.187  10.816   1.753 -0.0248 -0.0211 -0.2688
52205W        W95117  34.178  10.907   2.262 -0.0277  0.0958  0.2822
52206W        W95118  34.077   8.165   0.081  0.0655  0.2587 -0.2071
52207W        W95119  33.132   7.939   1.843 -0.1316 -0.2242  0.2460
52208W        W95120  33.800   8.794   2.917 -0.0170 -0.0381 -0.0454
52209W        W95121  34.587   8.459   3.043 -0.2265 -0.1790 -0.0300
52210W        W95122  33.028  10.596   3.132  0.0520  0.4477 -0.2731
52211W        W95123  34.369   9.396   3.951 -0.1875 -0.0327 -0.2451
52212W        W95124  31.433   8.649   2.182 -0.2386 -0.1617 -0.2139
52213W        W95125   0.076   7.117   1.566 -0.0895 -0.1969  0.2376
52214W        W95126  33.660  10.641   2.023  0.1934  0.3658 -0.1662
52215W        W95127  34.130   7.428   1.555  0.0207 -0.0502  0.0493
52216W        W95128   0.256   9.919   1.904  0.0100 -0.1826 -0.1488
52217W        W95129  33.868   9.237   3.858 -0.3915 -0.1725 -0.0949
52218W        W95130  34.082   9.066   2.498  0.1406  0.1406  0.2190
52219W        W95131  33.565   7.638   0.815  0.4732  0.0717 -0.3014
52220W        W95132   0.380   7.511   3.034  0.1596  0.3704  0.0709
52221W        W95133   0.712   8.402   2.690 -0.2093 -0.2776 -0.0952
52222W        W95134  32.789  10.064   2.548  0.1445 -0.0699  0.0203
52223W        W95135  33.522   8.110   0.971 -0.3629  0.0397  0.1253
52224W        W95136  31.980   9.821   3.094 -0.0801  0.0324  0.4622
52225W        W95137   0.780  10.565   1.378 -0.3785 -0.0630 -0.3053
52226W        W95138   0.057   8.250   3.659  0.0022 -0.1671 -0.1947
52227W        W95139  34.233   9.913   2.780  0.3883  0.0408  0.3991
52228W        W95140  34.035   9.660   0.343 -0.1395 -0.4200  0.3208
52229W        W95141  33.437   9.451   1.681 -0.1888 -0.0779  0.2027
52230W        W95142   1.257   8.151   1.746  0.1548  0.1072  0.2470
52231W        W95143  34.562   7.504   3.051 -0.1878 -0.2134 -0.0760
52232W        W95144  34.206   7.387   2.246 -0.2206 -0.1427  0.2050
52233W        W95145  32.473   9.736   2.795  0.0008  0.1790  0.3080
52234W        W95146  34.068   6.408  31.360 -0.0547 -0.0175 -0.2539
52235W        W95147   1.197  10.391   2.702 -0.1525  0.0704  0.2300
52236W        W95148  34.429   8.137   0.584  0.1890 -0.0177  0.0241
52237W        W95149   1.175  10.810   2.293  0.1114 -0.3947 -0.1039
52238W        W95150   0.611   8.682   0.211  0.4058 -0.0459 -0.1952
52239W        W95151  33.620   8.593   0.760  0.1232  0.0693  0.2577
52240W        W95152  34.564   7.628   2.548  0.0910  0.0119  0.1153
52241W        W95153  34.419   9.265   4.562 -0.2426  0.1562 -0.2639
52242W        W95154  33.759   8.444   3.717 -0.1619 -0.3701  0.0370
52243W        W95155   0.404   7.787   1.321 -0.1617  0.0393 -0.1521
52244W        W95156  32.271   7.346  31.253 -0.1710 -0.1182 -0.0487
52245W        W95157   0.765  10.636   0.294 -0.0131  0.3984 -0.2711
52246W        W95158  34.573   8.693   3.468 -0.1733 -0.2241 -0.3542
52247W        W95159  34.062  10.687   3.118  0.0566  0.0411  0.3480
52248W        W95160  32.678   6.445   0.831  0.3154 -0.0898 -0.0468
52249W        W95161  33.964   8.307   1.108  0.3642 -0.0479  0.1114
52250W        W95162   0.647   8.495   1.796 -0.0557  0.0226 -0.1716
52251W        W95163  34.528   6.787   1.247  0.1335  0.1597  0.0005
52252W        W95164  33.269   9.866   1.458  0.0026  0.0621 -0.5111
52253W        W95165  34.616  10.734   2.439  0.2437 -0.0953 -0.2203
52254W        W95166  33.884   9.554   1.956  0.3053 -0.2000 -0.3272
52255W        W95167   0.798  11.131   1.487 -0.1242  0.0821 -0.1906
52256W        W95168   0.559   8.705   2.243  0.1728  0.0980 -0.1388
52257W        W95169  33.752   9.091   1.905  0.2044 -0.1736 -0.1965
52258W        W95170  33.408  10.222   3.310  0.0669  0.0764 -0.1343
52259W        W95171  34.125   8.622   3.248 -0.1709 -0.0254 -0.0332
52260W        W95172  31.738   7.988   0.790  0.1631 -0.0484  0.0054
52261W        W95173  33.591  10.739   3.237 -0.0031 -0.1064 -0.0921
52262W        W95174  33.535   8.562   1.786  0.0165 -0.2437  0.1831
52263W        W95175  34.470  11.637   0.783  0.0395  0.3106  0.0623
52264W        W95176  33.220   6.794   0.617 -0.4743 -0.1469  0.3695
52265W        W95177  33.962  10.324   1.664  0.0928 -0.1292  0.0147
52266W        W95178  33.114   9.291   0.716 -0.2130 -0.1836  0.0185
52267W        W95179  33.677  10.052   0.685  0.1643  0.2314  0.1036
52268W        W95180  34.290   9.545   1.679  0.0555 -0.0265 -0.2779
52269W        W95181  33.421   6.289   0.558 -0.1021  0.1207  0.0038
52270W        W95182  33.204   9.867   2.946  0.1503  0.0019 -0.3962
52271W        W95183  33.891  10.281   2.896  0.1144 -0.0771 -0.3158
52272W        W95184  32.867   8.307   1.640  0.0759  0.1324 -0.0590
52273W        W95185   0.196   8.358   1.445 -0.2610 -0.1480  0.4503
52274W        W95186  34.311  10.264  31.508  0.1147  0.1455 -0.2368
52275W        W95187   0.397   9.426   1.747  0.2036 -0.1935 -0.1912
52276W        W95188  34.368  10.118   3.225 -0.0270  0.0923  0.0453
52277W        W95189  34.677   9.446   1.974 -0.2451  0.2419  0.1512
52278W        W95190  34.025   7.850   0.889  0.0203  0.1979 -0.1030
52279W        W95191  33.667   9.823   2.862  0.1410 -0.1267 -0.0482
52280W        W95192   0.098   9.786   1.357  0.0734  0.0489 -0.2193
52281W        W95193  33.797   8.264   2.436 -0.0232 -0.0846  0.0007
52282W        W95194   2.031   7.065  31.678  0.3028  0.0171  0.2005
52283W        W95195  32.593   8.044   3.286 -0.1935 -0.0637  0.2555
52284W        W95196  34.634  10.184   2.323 -0.0358  0.1776 -0.3550
52285W        W95197  34.399   8.755   1.737  0.0559  0.1169 -0.2370
52286W        W95198  34.284   6.999   2.842  0.3396 -0.1404  0.2621
52287W        W95199  32.747   9.490   0.445 -0.2299  0.0708  0.1801
52288W        W95200  33.641   8.153   1.543 -0.0224  0.1695 -0.0611
52289W        W95201   1.688   7.972   1.962 -0.0999  0.3026 -0.2112
52290W        W95202  33.754   7.304   1.917  0.0943 -0.1039 -0.1618
52291W        W95203  33.340  10.985   2.597  0.0843 -0.1694 -0.0645
52292W        W95204   0.258   9.992   0.155  0.1115 -0.1851 -0.2360
52293W        W95205   1.257  11.048   3.781  0.1935 -0.2488 -0.0394
52294W        W95206  33.241  11.085   3.073 -0.1887 -0.0267  0.0041
52295W        W95207  33.965   9.001   0.623 -0.0356 -0.2313  0.0142
52296W        W95208  34.222   9.185   2.050 -0.0075 -0.1497 -0.0077
52297W        W95209  34.362  10.848   0.502 -0.4241  0.3175  0.1003
52298W        W95210  32.752  10.173   0.267  0.2804 -0.3213  0.1554
52299W        W95211   1.751   8.886   0.576 -0.2494 -0.1953  0.0665
52300W        W95212   0.021   7.189   2.689 -0.0465 -0.2151  0.1950
52301W        W95213  32.322  10.341   2.632 -0.2492 -0.2233 -0.1430
52302W        W95214  33.530   8.573   0.145  0.1605  0.2185  0.1695
52303W        W95215  33.761   7.547  31.962 -0.3153 -0.2340 -0.1213
52304W        W95216  33.445   9.486   2.215 -0.0596 -0.0584  0.1678
52305W        W95217   1.665   6.709   3.994  0.0489  0.1049  0.0841
52306W        W95218   0.123   8.535   4.561  0.1656  0.4476  0.0825
52307W        W95219  33.779   9.869   1.610 -0.2163 -0.1441 -0.6156
52308W        W95220  33.038   7.820   0.880  0.3019  0.1983 -0.1892
52309W        W95221  33.816   7.674   2.354  0.0340 -0.4032 -0.0681
52310W        W95222  33.965   8.815   1.098  0.1768  0.0581 -0.0128
52311W        W95223   1.124   6.411   0.706  0.1700 -0.4015  0.1360
52312W        W95224  32.075   8.682   1.705  0.0813  0.0475  0.0258
52313W        W95225   0.207   8.828   3.094  0.0890 -0.1512  0.0176
52314W        W95226   0.159   8.058   4.277  0.0028 -0.0975  0.1768
52315W        W95227  33.241   7.262  31.140 -0.0265  0.0743  0.1666
52316W        W95228   0.113   9.578   3.029 -0.2270  0.0270 -0.0625
52317W        W95229  33.574   8.948   1.439 -0.0956 -0.0592 -0.1265
52318W        W95230   0.939  10.747   1.845 -0.1858 -0.1923 -0.3704
52319W        W95231  33.254   6.922   3.361  0.1499  0.1013 -0.1422
52320W        W95232  34.496   9.433   2.702  0.1006 -0.0960  0.2265
52321W        W95233  33.320   7.126   1.831 -0.0011 -0.2451 -0.1858
52322W        W95234   0.949   9.133   2.467  0.0287 -0.0764  0.2612
52323W        W95235  33.832   7.174   2.562  0.3064  0.2430 -0.1929
52324W        W95236  32.934   9.550   2.654 -0.2476 -0.2242  0.2666
52325W        W95237  33.965   7.367   0.955  0.2652  0.2668 -0.3503
52326W        W95238   0.227   8.587   2.599  0.0501  0.1430 -0.0041
52327W        W95239  34.603   8.072   1.131 -0.0163  0.0049 -0.0338
52328W        W95240  33.188  10.513   2.141 -0.2177 -0.1259  0.0097
52329W        W95241  33.727   7.754   1.785 -0.0731 -0.1212 -0.0042
52330W        W95242  34.393  10.024   1.650  0.1692 -0.1759  0.1851
52331W        W95243  34.540   9.432   1.089  0.1447  0.1594 -0.0493
52332W        W95244   0.461   7.513   1.711 -0.0903 -0.1212  0.0329
52333W        W95245  34.592  10.971   1.908  0.0337  0.0739  0.5069
52334W        W95246  33.164   9.974   6.961 -0.2640  0.0139  0.1934
52335W        W95247  33.357   8.201   3.560  0.3360  0.1052 -0.1183
52336W        W95248  33.248   7.833   5.332 -0.0851 -0.1368  0.2443
52337W        W95249  33.862   6.762   5.914 -0.0102 -0.1663  0.2606
52338W        W95250  34.384   7.950   6.363 -0.0551  0.0092  0.1781
52339W        W95251  34.034  10.162   6.626  0.1240 -0.1869  0.2616
52340W        W95252   0.420   8.122   4.684 -0.1273 -0.0493 -0.3241
52341W        W95253  33.621   6.675   6.419  0.2091 -0.0926 -0.1161
52342W        W95254  32.829   9.417   4.987  0.1896 -0.2037 -0.0308
52343W        W95255  32.800   8.274   6.115 -0.3059 -0.1198 -0.0559
52344W        W95256   0.685   8.015   5.869 -0.1394 -0.0545  0.2916
52345W        W95257   0.247   7.977   7.044  0.1655  0.0840  0.2079
52346W        W95258  33.939  11.199   4.012  0.0888 -0.0531  0.1929
52347W        W95259  32.538   8.849   3.833 -0.2092 -0.0329 -0.2850
52348W        W95260  32.830   8.781   4.334  0.0508  0.3220 -0.0887
52349W        W95261  33.515   8.693   5.287  0.0051 -0.1221  0.0159
52350W        W95262  34.065   9.183   5.728  0.0301 -0.0477  0.0009
52351W        W95263   0.538  11.095   5.548 -0.1891 -0.0071  0.0861
52352W        W95264  31.818  10.107   6.166 -0.3231 -0.3724  0.3909
52353W        W95265  31.352  11.016   5.534 -0.0451  0.2606 -0.0465
52354W        W95266  33.068   9.236   5.686  0.0956  0.1797  0.2958
52355W        W95267  33.040  10.645   6.317 -0.5188  0.0048 -0.0328
52356W        W95268  31.954  10.870   3.950  0.1119 -0.1709  0.0367
52357W        W95269   0.065   9.575   6.479 -0.0632  0.0057  0.1028
52358W        W95270   0.809  10.176   4.107 -0.1717  0.1217 -0.0556
52359W        W95271   0.066   9.646   4.490 -0.0108  0.0163  0.0461
52360W        W95272   0.599   9.526   7.482  0.0713 -0.1068 -0.0488
52361W        W95273  32.493   8.624   5.145  0.1469  0.0923 -0.0440
52362W        W95274  34.376   8.364   2.168  0.0936  0.2908  0.1155
52363W        W95275  34.227   7.731   1.937  0.1963 -0.0916 -0.4139
52364W        W95276  34.169   8.426   4.670  0.4300 -0.0977 -0.2494
52365W        W95277  33.041  10.694   4.117 -0.1497 -0.2394  0.3582
52366W        W95278  33.853   7.713   6.702 -0.0803  0.0112 -0.0655
52367W        W95279  34.678   9.686   5.026 -0.0373  0.2234 -0.1210
52368W        W95280  31.845   7.770   4.951  0.1717 -0.0050  0.1804
52369W        W95281  33.529  10.869   3.999 -0.1747 -0.1361  0.1233
52370W        W95282  32.943  10.421   6.754 -0.1253  0.1202 -0.1358
52371W        W95283  33.036   8.296   6.965  0.1859 -0.1163  0.1749
52372W        W95284  34.574   7.546   4.133  0.1606 -0.1768  0.1351
52373W        W95285  33.892   9.228   6.356 -0.0320 -0.1348 -0.1089
52374W        W95286  33.278   9.157   5.271  0.3788  0.0376 -0.1321
52375W        W95287  33.951   9.518   3.461  0.1654  0.3909  0.0294
52376W        W95288  33.750   8.747   4.172  0.0486 -0.2124 -0.0386
52377W        W95289  32.749   9.592   5.494  0.2057  0.2628 -0.1934
52378W        W95290  33.808   7.867   7.626  0.4086  0.1473  0.1217
52379W        W95291   0.615   9.070   7.560  0.1126  0.1067 -0.0930
52380W        W95292  31.989  10.416   4.575  0.2562 -0.3926  0.0075
52381W        W95293  31.546   8.631   4.741  0.0531  0.0895  0.1290
52382W        W95294  32.757  11.046   2.871 -0.1461 -0.0337  0.0066
52383W        W95295  34.279   8.460   6.193 -0.0167  0.3111 -0.2188
52384W        W95296   0.874   9.998   6.360 -0.3179  0.0425  0.0937
52385W        W95297  33.805   6.259   5.165 -0.1154 -0.2839 -0.2144
52386W        W95298  32.920  10.281   4.424  0.0526  0.1364  0.0378
52387W        W95299  32.114   8.403   4.989  0.0673 -0.2502  0.1351
52388W        W95300  32.696   9.120   3.420  0.1605 -0.0460 -0.1392
52389W        W95301  33.601   7.213   6.261 -0.2632 -0.1366 -0.3877
52390W        W95302  32.260   7.468   4.507  0.0690 -0.0702 -0.0655
52391W        W95303  33.695   6.654   4.869 -0.2759  0.0238  0.2525
52392W        W95304  34.699   8.542   4.059  0.1503 -0.3577 -0.1765
52393W        W95305  31.892   9.982   4.242  0.0906 -0.1302  0.0882
52394W        W95306  33.224   7.341   5.470  0.0921  0.0355 -0.2233
52395W        W95307  34.563   8.105   4.764  0.0687 -0.0239 -0.0794
52396W        W95308  33.403   9.179   4.239  0.0028 -0.2126 -0.3574
52397W        W95309   1.243  10.072   5.515 -0.1073  0.1786  0.1021
52398W        W95310  33.684   8.411   4.835 -0.0074  0.1280 -0.0663
52399W        W95311  33.943   8.219   6.617 -0.2247 -0.0440 -0.2204
52400W        W95312   0.479   7.794   5.077  0.2874  0.3102  0.1270
52401W        W95313  33.986  10.630   3.941  0.2318  0.4043  0.0810
52402W        W95314  32.636   8.985   4.849 -0.0563 -0.0474 -0.0853
52403W        W95315   0.186   9.773   5.498  0.0726 -0.0718 -0.0435
52404W        W95316  34.005   8.614   7.080  0.0228 -0.0190 -0.1820
52405W        W95317  34.117   8.388   4.149  0.1405 -0.1463 -0.1355
52406W        W95318  34.075   9.835   5.147 -0.1627  0.1736 -0.2870
52407W        W95319  32.476  10.744   6.525  0.0248 -0.0375 -0.0340
52408W        W95320  34.692  10.705   5.185  0.1636  0.1729 -0.1549
52409W        W95321   0.963  10.548   6.683  0.0706  0.0038  0.1119
52410W        W95322  32.637   9.033   5.881 -0.1892  0.1001 -0.1409
52411W        W95323   1.338   7.277   6.703  0.3736  0.0098  0.0623
52412W        W95324  33.431   7.686   3.711  0.0769  0.3651 -0.2637
52413W        W95325  32.451  11.082   3.383  0.2265  0.0574 -0.0163
52414W        W95326   1.155   6.678   7.687  0.1766 -0.0149 -0.1183
52415W        W95327  34.437   9.095   3.061 -0.0357  0.3686 -0.2275
52416W        W95328   1.192   8.787   7.367 -0.0442  0.2408 -0.1873
52417W        W95329  33.547   8.232   7.229  0.2404  0.1704 -0.0226
52418W        W95330  32.698  10.171   5.231  0.2048  0.2383 -0.0453
52419W        W95331   2.063   7.547   6.903  0.2897  0.0072 -0.0123
52420W        W95332  34.536  10.641   4.008 -0.0471  0.1495 -0.1236
52421W        W95333  33.759   8.996   3.333  0.2158  0.0681  0.2289
52422W        W95334   0.532   7.793   6.603 -0.0585  0.1341  0.2402
52423W        W95335   0.755   9.205   4.996  0.1213 -0.1204  0.1253
52424W        W95336  34.287  10.209   3.757  0.0196  0.1445 -0.0527
52425W        W95337  33.953  10.872   4.401 -0.3610  0.3355 -0.0815
52426W        W95338  33.472  11.477   3.990  0.0180 -0.2955  0.1527
52427W        W95339  33.072   8.761   5.769 -0.0165  0.0782  0.1010
52428W        W95340  33.947   7.917   3.825  0.3321 -0.1057 -0.2142
52429W        W95341  34.101   8.575   5.484  0.1064  0.0817 -0.2367
52430W        W95342   0.049   8.762   6.208  0.0138  0.0225  0.1283
52431W        W95343  32.332   9.870   6.052 -0.1473  0.0959 -0.1357
52432W        W95344   0.288   9.606   7.097 -0.1157 -0.1038 -0.1508
52433W        W95345  32.686   8.745   3.093  0.2334 -0.0713 -0.1188
52434W        W95346   0.118   9.228   4.805 -0.1264 -0.0527 -0.3542
52435W        W95347  32.556  10.548   4.078 -0.0986 -0.0063 -0.2356
52436W        W95348  34.296   8.831   4.346  0.0797  0.0930  0.0276
52437W        W95349  32.927   8.621   3.557 -0.0602  0.2719  0.3194
52438W        W95350  32.568   8.570   5.734  0.0371  0.0883  0.3300
52439W        W95351  33.656   8.453   5.740 -0.1361 -0.2220  0.1115
52440W        W95352  33.364   8.823   4.619 -0.0025 -0.0699  0.1953
52441W        W95353  33.630   9.263   4.751  0.1499 -0.0423  0.1877
52442W        W95354   1.837   9.819   5.973 -0.2623  0.0970 -0.0213
52443W        W95355  34.451   9.972   6.371  0.1061  0.1074 -0.3210
52444W        W95356  32.943   9.498   3.189  0.2113 -0.1295 -0.0172
52445W        W95357  31.616   8.897   6.302  0.2121 -0.1777 -0.2130
52446W        W95358  34.517  10.024   4.710  0.1190  0.3342  0.0152
52447W        W95359   0.632   7.653   7.163  0.0680 -0.4769  0.1259
52448W        W95360  34.559   9.229   6.007  0.0181  0.5551 -0.2691
52449W        W95361  33.513  10.346   3.854  0.1096  0.0699  0.0435
52450W        W95362  33.643   9.411   5.986 -0.3077 -0.1733 -0.1495
52451W        W95363  33.522   8.972   5.700 -0.1411  0.1960 -0.1350
52452W        W95364   0.903   6.739   5.977  0.3070 -0.0597  0.1716
52453W        W95365  33.485   7.828   6.287  0.4089 -0.0486 -0.2887
52454W        W95366  33.717   8.308   6.221  0.0283  0.0278  0.1827
52455W        W95367  33.274   8.586   4.020  0.0224 -0.0455  0.3282
52456W        W95368  34.659   8.587   5.504  0.0772 -0.0392  0.1384
52457W        W95369  32.596   9.349   4.050 -0.0099  0.0319 -0.0510
52458W        W95370  33.281   9.064   6.143 -0.2921 -0.0510  0.1434
52459W        W95371  34.143   8.753   3.791  0.2646  0.0230 -0.0933
52460W        W95372  32.620  10.612   5.643 -0.2434  0.0061  0.2599
52461W        W95373  34.256   7.356   6.423 -0.3595 -0.1810  0.5183
52462W        W95374  32.870   8.768   6.243 -0.0490  0.1076  0.1178
52463W        W95375  34.443   7.822   7.347  0.2460 -0.0229 -0.1243
52464W        W95376  33.616   7.148   5.671 -0.0435  0.1058  0.1544
52465W        W95377  34.137   6.829   3.378  0.1964  0.2412 -0.3425
52466W        W95378   0.595  10.552   3.656 -0.1865 -0.1196 -0.1158
52467W        W95379  32.800   7.682   4.570 -0.3200  0.0415  0.2237
52468W        W95380  33.718   9.794   6.421  0.1875 -0.0711  0.2427
52469W        W95381  33.974   6.854   2.227  0.0561 -0.4354  0.1515
52470W        W95382  33.533  10.152   5.208 -0.3332 -0.1542 -0.3375
52471W        W95383   1.122  10.765   5.158 -0.2132  0.0341  0.2427
52472W        W95384   0.905   8.041   4.613  0.0452 -0.1496 -0.0108
52473W        W95385  32.968  10.193   3.891  0.1414 -0.1061 -0.1227
52474W        W95386  33.643  10.347   5.643 -0.1118 -0.2310 -0.1533
52475W        W95387  32.882   9.829   5.920  0.2023  0.1317  0.0655
52476W        W95388  33.568   9.858   3.734  0.1133 -0.3107 -0.0126
52477W        W95389  33.326   8.049   5.818  0.2087  0.0907  0.0962
52478W        W95390  32.626   8.135   4.839 -0.4180  0.1023  0.1799
52479W        W95391  33.111  10.211   4.907 -0.5353 -0.2724 -0.2337
52480W        W95392  33.379   7.754   7.770 -0.0905  0.0825 -0.0891
52481W        W95393  33.836   8.049   4.522  0.1165  0.1840  0.2862
52482W        W95394  32.854  11.122   7.448 -0.1070 -0.0778 -0.1946
52483W        W95395  33.490   8.058   6.780 -0.0817 -0.0113  0.0674
52484W        W95396  33.354   9.687   4.716 -0.0000  0.1064 -0.4498
52485W        W95397  33.499   8.322   2.844  0.3303 -0.0300  0.1393
52486W        W95398  33.347   9.681   5.682  0.1233  0.0889 -0.2771
52487W        W95399  31.828  10.205   5.117 -0.2672  0.4135  0.0369
52488W        W95400  33.892  10.932   3.553 -0.1136 -0.3159 -0.1955
52489W        W95401  32.970   9.222   6.481 -0.0447 -0.0057 -0.1873
52490W        W95402   1.301   8.379   4.515 -0.1024 -0.0022  0.1000
52491W        W95403  34.425   8.899   6.983 -0.2446 -0.2538  0.2565
52492W        W95404  32.728  10.367   6.072  0.3747  0.0281  0.3416
52493W        W95405  33.906   9.195   4.331  0.2538  0.0044  0.3198
52494W        W95406  31.849   8.425   3.791 -0.2436  0.6403 -0.1940
52495W        W95407   0.487   8.483   4.250  0.0332 -0.5314 -0.2990
52496W        W95408  33.633   9.632   4.304  0.2137  0.1439  0.0404
52497W        W95409  33.795   9.484   5.364 -0.0412  0.2092 -0.0871
52498W        W95410  34.123  10.267   4.853 -0.2046 -0.0778 -0.1416
52499W        W95411  33.900   9.024   5.230  0.0790 -0.2062  0.1794
52500W        W95412   0.174   8.675   6.888 -0.2823 -0.2053 -0.0338
52501W        W95413  34.092   9.621   6.065  0.2713  0.1157 -0.1595
52502W        W95414  33.226   8.345   6.384  0.0247 -0.0442  0.0210
52503W        W95415   0.109   9.117   4.290  0.1582  0.2022  0.0491
52504W        W95416  33.732   7.484   5.201  0.0242  0.0287  0.0739
52505W        W95417  33.426   8.354   4.430 -0.0842  0.2019  0.1802
52506W        W95418  33.214   8.346   5.442  0.1017  0.1225 -0.1531
52507W        W95419  33.927   7.415   3.731  0.0341 -0.2410 -0.1295
52508W        W95420  34.658  11.050   4.299 -0.0079 -0.0711 -0.4177
52509W        W95421  33.992   8.009   5.860 -0.0419  0.0603  0.4450
52510W        W95422   0.615   7.501   4.660 -0.0709  0.0377 -0.1107
52511W        W95423  34.387   8.144   5.505 -0.1723 -0.0450  0.2415
52512W        W95424  33.454  10.558   4.413 -0.0645 -0.0012 -0.3257
52513W        W95425   0.325  10.879   2.666 -0.1312 -0.0203  0.1863
52514W        W95426  34.487  10.045   5.344 -0.1394 -0.1319 -0.0690
52515W        W95427  34.049  10.623   6.840 -0.0053  0.0700  0.0942
52516W        W95428  32.793   9.885   1.720  0.1183 -0.0143  0.0504
52517W        W95429   0.757   9.198   6.561 -0.2265  0.2290 -0.1681
52518W        W95430  33.915   8.727   6.551  0.0518 -0.1448  0.0383
52519W        W95431  34.240  11.273   4.388 -0.2237  0.1938  0.0960
52520W        W95432   0.500   8.877   4.659  0.2104  0.3228 -0.2709
52521W        W95433   0.641   8.256   6.689  0.1290  0.2335 -0.0816
52522W        W95434  33.189   9.549   6.179 -0.1426 -0.2139 -0.2362
52523W        W95435  33.367   9.425   3.760 -0.1766  0.0166  0.1080
52524W        W95436  33.050   9.239   4.572 -0.1722 -0.1457 -0.3956
52525W        W95437  32.779   7.616   5.077 -0.3084  0.2291  0.0814
52526W        W95438  34.437   6.816   6.218 -0.2645 -0.1838 -0.1405
52527W        W95439   0.011   7.335   6.124 -0.0384  0.2640 -0.0225
52528W        W95440  32.169   7.957   4.598  0.0504 -0.3009 -0.1129
52529W        W95441  33.369   7.907   3.075  0.3474  0.2213 -0.0716
52530W        W95442  33.933   7.519   4.726  0.2886 -0.2574 -0.2629
52531W        W95443  32.974   8.721   5.246  0.1609 -0.1290  0.0767
52532W        W95444   0.799   8.113   5.394 -0.3298  0.1606 -0.0354
52533W        W95445  33.896   9.947   3.315  0.3753 -0.4269  0.2407
52534W        W95446   1.003   8.368   7.516 -0.3401 -0.1664 -0.1800
52535W        W95447   0.470   7.978   7.545 -0.2560  0.0390  0.1285
52536W        W95448  33.805   8.200   3.250 -0.1171  0.0978  0.0894
52537W        W95449   0.363   9.805   6.126 -0.1806 -0.0301 -0.3458
52538W        W95450  34.606   9.941   6.829  0.0036  0.1142  0.2413
52539W        W95451  33.696  10.354   7.060  0.0674  0.0948 -0.0360
52540W        W95452  33.192   7.912   7.184  0.0412 -0.0676  0.3349
52541W        W95453   0.244  10.075   6.529 -0.0424  0.0395  0.0707
52542W        W95454  34.526   6.517   7.125 -0.0721 -0.1609 -0.4203
52543W        W95455  34.284  10.111   5.795 -0.1050 -0.0953  0.0325
52544W        W95456   1.316   6.824   5.692 -0.0535  0.1583 -0.3139
52545W        W95457  32.947   8.171   4.468  0.0187  0.1992 -0.0774
52546W        W95458  33.822   7.932   2.812  0.1384  0.0452  0.0667
52547W        W95459   0.650   8.714   7.182  0.1176 -0.0786 -0.2348
52548W        W95460  33.897   8.837   4.628 -0.0498 -0.0063 -0.0965
52549W        W95461   0.396  10.692   6.700  0.1449 -0.2916 -0.1020
52550W        W95462  33.185   7.340   5.988  0.1201  0.2628  0.1600
52551W        W95463  33.112   9.594   4.139  0.2879  0.2377  0.1483
52552W        W95464  34.245  10.455   4.357 -0.1923  0.0349 -0.4528
52553W        W95465  34.427   9.004   5.381 -0.1036  0.0458  0.1197
52554W        W95466   0.158  10.719   6.153 -0.1848 -0.1594 -0.1773
52555W        W95467  31.855  10.692  12.319  0.1571 -0.2773 -0.2962
52556W        W95468   0.399   7.953   8.869  0.0193  0.0606  0.0225
52557W        W95469  33.338   7.108   9.319 -0.2338 -0.0447  0.2113
52558W        W95470  34.295   8.597   9.066  0.0555  0.0371  0.0281
52559W        W95471   0.024   7.256   8.508 -0.2106  0.3506 -0.0386
52560W        W95472  34.220   7.514   9.756  0.0991  0.3365 -0.0575
52561W        W95473  31.967   9.026   7.593  0.1540 -0.3088 -0.0438
52562W        W95474  34.270   7.626   9.174  0.4076 -0.2410 -0.1247
52563W        W95475  34.066   8.719   9.540 -0.1189  0.2985 -0.2516
52564W        W95476  32.538   9.243   9.665 -0.0205  0.1939 -0.1647
52565W        W95477   0.133  10.356   7.548  0.3710  0.0917  0.0262
52566W        W95478  33.109   8.403   8.848 -0.2221  0.0361  0.2159
52567W        W95479   0.781   9.472  10.297 -0.0812  0.2867 -0.3865
52568W        W95480  32.640   8.659   9.237  0.1707 -0.2291  0.3104
52569W        W95481  33.437  10.058   7.421  0.0785 -0.1819 -0.0645
52570W        W95482   0.180   9.968   8.383 -0.1451  0.1606 -0.1037
52571W        W95483  33.521   8.030   8.201 -0.0527 -0.0408 -0.4115
52572W        W95484  32.771   9.271   8.636  0.2032  0.0457 -0.0710
52573W        W95485  33.955  10.025   7.337 -0.2212 -0.0326  0.0504
52574W        W95486  32.899   9.884   6.444 -0.0814 -0.0050  0.2085
52575W        W95487  33.665  10.388   7.703  0.0324 -0.0744  0.2370
52576W        W95488  33.148   9.936   8.409  0.1109  0.2111  0.2693
52577W        W95489  32.369   8.808   9.615  0.7027  0.2488 -0.0973
52578W        W95490  33.185   8.701   7.716  0.0155  0.0875 -0.0081
52579W        W95491   0.099   7.447   7.186  0.1396 -0.2265 -0.1387
52580W        W95492  34.226   6.729  10.197  0.1429 -0.0076 -0.3051
52581W        W95493  32.229  10.826   9.161 -0.0113 -0.1584 -0.1773
52582W        W95494  34.505   8.600   9.740 -0.1001  0.0579  0.0617
52583W        W95495   0.530  10.323  12.300 -0.2995  0.0134  0.1343
52584W        W95496  32.840   9.225  10.440 -0.0688  0.1046 -0.1598
52585W        W95497  33.651   7.367   7.672  0.0494 -0.5366 -0.0177
52586W        W95498  34.411   8.027   6.863  0.4601 -0.1890 -0.1928
52587W        W95499  33.160   9.350   8.960 -0.0903 -0.0753  0.0014
52588W        W95500  34.692   8.188   7.544 -0.0487  0.0208 -0.1086
52589W        W95501   1.686   9.436   6.381 -0.0628  0.0213  0.0639
52590W        W95502  33.423   8.644   9.855 -0.0110  0.3374  0.0918
52591W        W95503  33.214   9.093   7.979  0.1182 -0.0788  0.4182
52592W        W95504  31.239   9.012   9.802 -0.2753 -0.0037 -0.0106
52593W        W95505  34.286   9.703   7.151  0.1783  0.1310 -0.1969
52594W        W95506   1.181   9.784  10.113 -0.0640 -0.2128  0.1231
52595W        W95507  34.374   9.921   8.238  0.4352 -0.0341 -0.0435
52596W        W95508  34.165   8.115   8.556  0.2135  0.0535  0.2381
52597W        W95509  33.153   8.268  10.018 -0.1746  0.2508  0.0572
52598W        W95510  34.598   8.519   7.998  0.0971  0.0459 -0.2095
52599W        W95511  33.429   6.806   9.661 -0.0878 -0.1587 -0.3605
52600W        W95512  33.794   6.913   9.137  0.0931  0.0052 -0.0971
52601W        W95513  32.763   8.810   8.746 -0.2017  0.1189 -0.0800
52602W        W95514  32.909  10.055   7.414  0.1770  0.1002  0.1423
52603W        W95515  33.542   8.558   8.976  0.1361  0.1794 -0.4090
52604W        W95516  33.696   8.342   9.474 -0.0222 -0.0550  0.1151
52605W        W95517  32.691   9.732   8.465  0.1234  0.1092 -0.5507
52606W        W95518  34.031   8.463   7.948 -0.1387 -0.0449 -0.1157
52607W        W95519  33.863   7.379   9.369 -0.3923 -0.0002  0.1238
52608W        W95520  34.020   8.085   7.171 -0.1193 -0.0628  0.4977
52609W        W95521  32.656  10.012   7.976 -0.1361  0.3208  0.1364
52610W        W95522  33.497   9.832  10.257 -0.0674 -0.0819 -0.0896
52611W        W95523  34.692   9.913   7.357  0.2097  0.2801 -0.1634
52612W        W95524  33.378   6.858   7.403  0.1533  0.0801 -0.2219
52613W        W95525   0.449   8.974   8.588 -0.1135  0.1913  0.0377
52614W        W95526  33.337  10.243   8.756 -0.0718 -0.0306 -0.0095
52615W        W95527  34.386   9.446   9.159 -0.2476  0.2028  0.1070
52616W        W95528   2.311   7.838  10.379  0.2235  0.3611 -0.0836
52617W        W95529  34.352   8.502   6.688 -0.0231  0.3247  0.1219
52618W        W95530  32.383  11.024   7.109  0.0604  0.1709  0.2778
52619W        W95531  33.926   8.832   6.023  0.0850  0.0067 -0.1828
52620W        W95532   0.706   9.308   9.271  0.0527 -0.1140 -0.0731
52621W        W95533  32.839   9.597   9.324 -0.1172  0.3828  0.1297
52622W        W95534  32.843  10.872   8.377  0.0308 -0.2088 -0.2788
52623W        W95535  33.643   9.847   6.908 -0.0572  0.0378  0.1519
52624W        W95536   1.718   6.032  10.111  0.0169  0.0687 -0.3413
52625W        W95537   0.666   9.860   9.096 -0.4286  0.1063  0.1144
52626W        W95538   1.228   8.558   8.114 -0.2214 -0.2836  0.0897
52627W        W95539  32.923   9.877   8.927 -0.2091  0.0109 -0.4684
52628W        W95540  32.260  10.875  10.029  0.0846  0.0798  0.3750
52629W        W95541   0.836   7.261   8.374  0.2333  0.0553 -0.1251
52630W        W95542  32.477   8.999   8.365  0.2596 -0.1464 -0.2072
52631W        W95543   0.023   7.098   9.055 -0.0524  0.0356 -0.1111
52632W        W95544   0.670   8.704  10.166 -0.1763  0.1410 -0.1652
52633W        W95545   0.375   7.651  10.179  0.2022 -0.1464 -0.1481
52634W        W95546  33.434   8.277   7.768  0.0745  0.0681 -0.2349
52635W        W95547  33.621   8.104   9.938 -0.1611  0.0771  0.0854
52636W        W95548  31.954   7.711   9.322  0.3960  0.0339 -0.2627
52637W        W95549  34.225   8.141   7.653  0.2508  0.0476  0.0259
52638W        W95550  31.486   7.921   9.488 -0.0826 -0.1542  0.1203
52639W        W95551  34.540   8.973   9.252  0.1509 -0.1887 -0.0384
52640W        W95552  34.589   7.724   8.578 -0.1106 -0.2261  0.1854
52641W        W95553  34.372   8.550   8.458  0.0578 -0.0795 -0.0159
52642W        W95554   1.210   8.924   8.439  0.0032  0.1713 -0.0515
52643W        W95555   0.199   9.098   7.228 -0.0358 -0.1227 -0.3854
52644W        W95556  33.386   9.264  10.087  0.1646  0.4022  0.0248
52645W        W95557  32.118   9.652   9.286 -0.1849 -0.2581 -0.2974
52646W        W95558  34.407   8.998  10.392 -0.5099 -0.1462 -0.4269
52647W        W95559  32.108   8.548   9.937  0.0385 -0.0350 -0.1963
52648W        W95560  33.284  10.152   7.987  0.1769  0.0946 -0.1867
52649W        W95561  32.012  10.726  10.463 -0.0271  0.2737 -0.0337
52650W        W95562   0.479   7.524   8.639 -0.0810 -0.1447  0.0848
52651W        W95563  33.689  10.451   9.331  0.0091 -0.0672 -0.0294
52652W        W95564  34.098   6.395   8.871  0.0059 -0.1323  0.2633
52653W        W95565  34.632   9.190   9.742 -0.2183 -0.1061  0.1208
52654W        W95566  34.425  10.282   7.109 -0.1828  0.1155 -0.1457
52655W        W95567  34.679   7.453   9.469  0.2448 -0.1633  0.0186
52656W        W95568  33.563   9.350   7.766  0.2183 -0.2167  0.0715
52657W        W95569  32.468   9.456  10.106 -0.0835  0.1715 -0.1668
52658W        W95570  33.850   8.175  10.379  0.1626  0.1192 -0.2633
52659W        W95571   0.586   8.093   8.404 -0.4078  0.0293  0.0888
52660W        W95572  33.150  10.476   7.264 -0.0433  0.0328 -0.0977
52661W        W95573  33.140   7.923  10.516 -0.2560 -0.1500 -0.2293
52662W        W95574  33.305   7.847   8.647  0.2662  0.1564  0.2377
52663W        W95575  34.509   8.457   7.142  0.0737 -0.2107  0.0531
52664W        W95576   0.897   9.165   9.887 -0.0127  0.0295  0.2112
52665W        W95577   0.807   6.804   8.148 -0.3781 -0.0003 -0.1176
52666W        W95578  31.809   9.368   8.358  0.2660  0.3374 -0.3157
52667W        W95579  32.921   8.702   9.668 -0.2925  0.1813 -0.0434
52668W        W95580  32.455  10.269   7.552  0.0597  0.1421  0.0814
52669W        W95581  33.121   8.875   9.092  0.0026 -0.3438  0.0604
52670W        W95582  33.242   8.817   8.580  0.0591 -0.2475 -0.0332
52671W        W95583  33.152   9.148   9.558  0.0723  0.0955  0.0658
52672W        W95584   0.076   8.228   8.560  0.3334  0.4405  0.0499
52673W        W95585  31.147   9.397   9.447 -0.0600 -0.1079  0.0414
52674W        W95586  32.558  11.250   8.390  0.1862  0.0210  0.2996
52675W        W95587  33.896   8.962   7.784 -0.1044 -0.3567 -0.0276
52676W        W95588  32.127  10.178   9.075 -0.0535  0.1359 -0.0043
52677W        W95589  31.726  10.123   6.920 -0.0622 -0.1863  0.0473
52678W        W95590  32.003  11.135   8.671  0.1594 -0.0660 -0.2919
52679W        W95591  34.089   7.631  10.532  0.4623 -0.1016  0.1463
52680W        W95592   1.405   7.090   8.204 -0.0835  0.1795 -0.1276
52681W        W95593  33.955   9.163   6.989  0.1410  0.0517  0.2081
52682W        W95594  31.695   8.805   9.594 -0.1947 -0.2535  0.1145
52683W        W95595  34.370   8.952   6.444  0.0065  0.4428  0.4368
52684W        W95596  32.869  10.512   8.815 -0.1050 -0.0284  0.1201
52685W        W95597  33.711  10.207   8.350 -0.0723 -0.1733 -0.1954
52686W        W95598   0.051   9.704   9.815  0.1415  0.2405 -0.1067
52687W        W95599  34.296   7.632   7.783 -0.2086  0.0200 -0.0976
52688W        W95600  33.853   7.117  12.223  0.1053 -0.1954  0.2278
52689W        W95601  33.728   9.838   7.781 -0.3898  0.3811  0.2251
52690W        W95602  32.744   7.957   9.997 -0.0251 -0.0507 -0.2298
52691W        W95603   0.510   8.422   8.771  0.0271 -0.0564  0.0707
52692W        W95604  33.875   6.730   8.260 -0.1966 -0.2037  0.1608
52693W        W95605  34.434   7.053   9.772 -0.0380  0.0350  0.1136
52694W        W95606  34.180   9.791   8.873 -0.2447  0.1174  0.2781
52695W        W95607  33.709   6.088   8.772  0.2193 -0.4646  0.0659
52696W        W95608  34.174  11.075   8.585  0.1796  0.1701 -0.1449
52697W        W95609  32.272   8.063   9.725 -0.1064  0.1685 -0.1818
52698W        W95610   0.575   8.364   9.261 -0.0129 -0.3323  0.0473
52699W        W95611  33.257   8.051   9.581  0.1944 -0.4915  0.2760
52700W        W95612  32.052   9.803   8.107 -0.3095  0.0462 -0.0424
52701W        W95613  33.901  10.237   6.119  0.0046  0.0513  0.3822
52702W        W95614  33.460  10.194   9.691  0.1187 -0.0769 -0.1435
52703W        W95615  33.176   7.326   7.279  0.2513 -0.5439  0.1702
52704W        W95616  33.720   8.668   8.293  0.0743  0.3216 -0.0053
52705W        W95617  32.633  10.608   7.157  0.0836 -0.0130  0.0094
52706W        W95618  34.615   8.064   8.998 -0.1546 -0.0131  0.2991
52707W        W95619  34.148   7.944  10.037 -0.0166  0.1500  0.5159
52708W        W95620   0.025  11.440  12.304  0.2942  0.4077 -0.0401
52709W        W95621  32.111   8.248   8.275  0.3248 -0.0443  0.2402
52710W        W95622  33.130   9.735   7.827  0.0316 -0.2855 -0.0648
52711W        W95623   0.388   8.993   9.668 -0.0327 -0.0895 -0.1083
52712W        W95624  32.041   7.960   7.836  0.1833  0.0759 -0.3949
52713W        W95625   0.421   7.218   8.202 -0.2300  0.3873  0.1045
52714W        W95626  30.284   7.370  10.089  0.0550 -0.1200 -0.0219
52715W        W95627  32.892   6.045   7.811  0.1498  0.1088 -0.3071
52716W        W95628   1.396   7.333   8.622  0.3159 -0.0997 -0.1209
52717W        W95629  33.636   8.650   7.507 -0.2066 -0.0133 -0.0567
52718W        W95630  33.851   7.047   7.385  0.1479  0.0222  0.3975
52719W        W95631   0.072   8.468   9.351 -0.1224  0.1963 -0.1464
52720W        W95632  30.185   8.071  10.466  0.3544  0.0781  0.0472
52721W        W95633  33.182   6.470   9.341 -0.0782  0.1808 -0.0298
52722W        W95634  33.696   9.032   9.721  0.0322  0.1274  0.2643
52723W        W95635   1.277   8.494   8.672 -0.0127  0.0845 -0.1590
52724W        W95636   1.107   8.079   8.322  0.0465 -0.1004  0.0086
52725W        W95637  33.537   9.066   9.258  0.1716 -0.0389  0.0685
52726W        W95638  34.119   6.716   9.470  0.1406  0.2860  0.2414
52727W        W95639  33.618   8.301   8.592 -0.1979  0.2626 -0.2996
52728W        W95640  33.529   9.177   8.711  0.0997  0.2200  0.0926
52729W        W95641  33.436   7.378   8.889 -0.0330  0.1110  0.1690
52730W        W95642  34.363  10.388  10.049  0.0695  0.1028  0.4521
52731W        W95643  34.587  13.241   2.844 -0.0236  0.1587  0.2876
52732W        W95644  34.685  12.202   2.426 -0.1078  0.1945  0.0728
52733W        W95645   0.685  11.106   0.502  0.0084  0.1814 -0.0576
52734W        W95646  32.321  11.965   1.964  0.0369  0.0547  0.0915
52735W        W95647   1.685  11.263   2.572 -0.0477 -0.1115  0.4305
52736W        W95648  34.112  14.922   2.203  0.1662 -0.0149  0.1952
52737W        W95649  33.973  10.484   0.638 -0.0587  0.0821  0.1207
52738W        W95650  33.114  11.752   1.961 -0.2491 -0.1577  0.0465
52739W        W95651  34.145  13.802   0.829  0.2207  0.1359  0.0656
52740W        W95652  32.726  11.770   1.688  0.0541 -0.0521 -0.0018
52741W        W95653   0.413  11.041   1.053 -0.1455 -0.0116  0.0752
52742W        W95654  34.134  11.360   1.844 -0.3743  0.2714  0.3898
52743W        W95655   1.293  14.921  31.352 -0.0479 -0.3250  0.1192
52744W        W95656  33.138  12.268  31.001  0.1350  0.0316  0.2162
52745W        W95657  33.170  12.138   2.379  0.1358 -0.1466  0.2212
52746W        W95658  34.402  11.921   1.866 -0.0314  0.0389 -0.0718
52747W        W95659   0.284  13.178   2.508 -0.0919 -0.2236 -0.2107
52748W        W95660   0.414  13.688   1.465 -0.3189  0.0303  0.0263
52749W        W95661  33.496  14.218   0.625  0.0156 -0.0749  0.1889
52750W        W95662  32.760  14.554   2.005  0.0913  0.2192  0.2039
52751W        W95663  34.616  14.173   1.447 -0.1701 -0.4483 -0.1981
52752W        W95664   0.390  15.756   1.588  0.1102  0.1688 -0.1241
52753W        W95665  34.001  14.282  31.013 -0.4203 -0.0993  0.0451
52754W        W95666  33.356  13.661   3.211 -0.1946  0.0944 -0.0704
52755W        W95667  34.395  14.184   0.517 -0.2500 -0.3013  0.0094
52756W        W95668   0.073  12.303   1.549  0.0856  0.0326  0.1081
52757W        W95669  34.120  13.911   2.145 -0.1211 -0.2348  0.0830
52758W        W95670  31.411  13.695   1.620 -0.1770  0.2278 -0.4464
52759W        W95671  33.612  13.969   1.819 -0.0715  0.2876  0.4485
52760W        W95672  34.098  10.644   0.130 -0.0305 -0.0005 -0.1545
52761W        W95673  33.814  10.662   2.549  0.5091 -0.1571 -0.0229
52762W        W95674   0.554  13.914   1.050  0.2245  0.2149  0.1024
52763W        W95675  33.643  14.116   2.928  0.1285 -0.3221 -0.2094
52764W        W95676   0.049  14.676   2.276  0.1035  0.1800  0.0676
52765W        W95677  32.910  12.479   3.224 -0.3003  0.0934 -0.0120
52766W        W95678  33.335  13.256   2.341 -0.1381 -0.2052  0.0791
52767W        W95679  33.154  13.253   3.442  0.1238 -0.1095 -0.0417
52768W        W95680  33.321  12.827   3.275 -0.3102  0.0366 -0.1984
52769W        W95681  33.722  10.948  31.914 -0.0433  0.1450  0.0144
52770W        W95682  31.789  14.291   3.627  0.0434  0.0843  0.3251
52771W        W95683   0.086  13.250   1.506  0.5296 -0.1516 -0.0150
52772W        W95684  32.447  13.248   0.821 -0.0132 -0.2097  0.1244
52773W        W95685  33.748  13.137   2.023  0.1018 -0.0818  0.1244
52774W        W95686  34.143  15.161   2.676 -0.2607 -0.2426 -0.1749
52775W        W95687  32.556  14.213   3.511  0.2457  0.0247  0.2340
52776W        W95688  33.982  13.599   3.620 -0.0924  0.0835 -0.2125
52777W        W95689  34.219  15.211   0.843  0.1936 -0.0323  0.1144
52778W        W95690  33.410  14.692   1.675 -0.2824 -0.1838 -0.0759
52779W        W95691   0.356  15.066   0.666  0.2194  0.1817 -0.0485
52780W        W95692  33.281  13.727   1.486  0.3452  0.1893 -0.0960
52781W        W95693   0.447  13.744   2.475 -0.0383 -0.1814  0.1071
52782W        W95694  32.901  13.119   2.557  0.4657 -0.4278 -0.3924
52783W        W95695  33.800  12.682   0.777  0.4573 -0.0892 -0.0075
52784W        W95696  33.590  13.523   2.753  0.2455  0.0824  0.0258
52785W        W95697  33.598  12.092   2.062  0.0886 -0.0528  0.2635
52786W        W95698  33.746  13.115   3.137  0.0696 -0.0920  0.1513
52787W        W95699  32.903  11.529   2.685  0.0575  0.3549 -0.0460
52788W        W95700  33.050  10.603   0.274 -0.4822 -0.1405  0.3358
52789W        W95701  34.461  12.125   0.644  0.0555  0.1059  0.1113
52790W        W95702  32.873  13.562   1.016  0.1783 -0.1458 -0.0604
52791W        W95703  32.717  12.249   2.141  0.1485  0.1068 -0.0045
52792W        W95704  34.128  10.876   1.702  0.0026  0.3731 -0.0070
52793W        W95705  33.782  15.398   0.848 -0.4451 -0.1080 -0.0552
52794W        W95706  34.315  13.200   1.911  0.2447 -0.0996 -0.0107
52795W        W95707  34.168  11.595   1.190 -0.0869  0.1730 -0.2313
52796W        W95708  32.511  14.668   3.795 -0.1334  0.0800 -0.0931
52797W        W95709  33.161  12.783   0.470 -0.0304  0.4161 -0.0260
52798W        W95710  33.127  13.425   0.494 -0.4316 -0.3136 -0.0011
52799W        W95711  33.880  12.395   2.985 -0.1449  0.1379  0.2980
52800W        W95712   0.519  14.522   0.533 -0.3148 -0.1091 -0.0488
52801W        W95713  32.008  12.772   3.704 -0.3074  0.0581  0.3292
52802W        W95714  34.286  12.893   1.158  0.0945 -0.3114 -0.0192
52803W        W95715  33.563  16.133   1.880 -0.0101 -0.1120  0.1466
52804W        W95716  32.479  13.520   5.551  0.1552  0.0704  0.2134
52805W        W95717   0.684  13.041   0.848 -0.1390 -0.0077 -0.2287
52806W        W95718   0.208  13.164   0.570 -0.2659 -0.1958  0.0570
52807W        W95719  32.844  13.374   1.960  0.1816 -0.1591  0.0659
52808W        W95720  34.385  12.282   3.277  0.3516 -0.1555  0.4233
52809W        W95721  33.552  13.561  31.572 -0.0164 -0.3330 -0.3994
52810W        W95722  33.442  13.654   0.102 -0.3531 -0.0514  0.1843
52811W        W95723   0.531  10.273   3.221  0.1413  0.2028  0.0289
52812W        W95724  33.914  13.802  31.338  0.0157 -0.1137 -0.0073
52813W        W95725  33.988  12.774   2.320  0.2678 -0.1398 -0.1530
52814W        W95726   0.135  13.228   3.320 -0.0462  0.0023 -0.1164
52815W        W95727  34.623  15.010   3.634 -0.1565  0.1941  0.0486
52816W        W95728   0.187  12.339   2.909  0.1639 -0.3203  0.2221
52817W        W95729  34.687  14.659   1.394  0.0484 -0.1835 -0.1609
52818W        W95730   0.107  13.032   1.028  0.1365 -0.2564  0.0676
52819W        W95731  34.283  12.420   2.666  0.1624 -0.1282  0.1130
52820W        W95732  34.317  13.371   0.925 -0.1614  0.0935  0.1836
52821W        W95733  34.122  11.938   0.354 -0.2752 -0.3962  0.2981
52822W        W95734  33.044  14.786  31.949  0.1527 -0.0199  0.0574
52823W        W95735  32.703  15.626   3.794  0.0254 -0.1767  0.2065
52824W        W95736  33.424  10.377   1.694 -0.2509 -0.3175 -0.1197
52825W        W95737  33.964  11.462   0.359 -0.1909 -0.0401  0.2312
52826W        W95738  33.145  12.297   1.908 -0.0140 -0.0232  0.0567
52827W        W95739  33.546  12.081   1.514 -0.6924 -0.0346 -0.3448
52828W        W95740  32.521  13.300   3.421 -0.3680  0.1485  0.2649
52829W        W95741   1.049  14.488   3.420 -0.0099  0.0191  0.1327
52830W        W95742  34.257  12.465   0.915  0.0461  0.1607  0.1243
52831W        W95743  34.129  12.799   1.671 -0.1596 -0.3188 -0.3376
52832W        W95744  33.863  14.560   1.496 -0.2737 -0.1718 -0.3348
52833W        W95745  32.846  11.375   0.597 -0.4710  0.0531 -0.0142
52834W        W95746  33.820  13.987   0.355 -0.1596  0.0414 -0.3010
52835W        W95747  34.412  11.030   3.735  0.0086 -0.3849  0.0328
52836W        W95748   0.662  10.600   2.341  0.2976 -0.0032 -0.2163
52837W        W95749  33.081  11.944   2.875 -0.3160 -0.0471 -0.2821
52838W        W95750  34.476  11.034   1.404 -0.2301 -0.1426 -0.0521
52839W        W95751   0.926  11.849   3.199  0.2965 -0.2017 -0.4596
52840W        W95752  32.074  14.494   4.773 -0.4166 -0.0150 -0.2544
52841W        W95753  33.888  14.516   0.379 -0.0021  0.0341 -0.1900
52842W        W95754  33.168  14.248   1.415 -0.0439 -0.5725 -0.3218
52843W        W95755  34.049  15.017   0.366 -0.2335  0.1922  0.0400
52844W        W95756  33.628  11.578   1.832  0.0216 -0.4184  0.0128
52845W        W95757  33.720  14.254   2.390 -0.0002  0.1090 -0.3724
52846W        W95758   0.280  13.357  31.550 -0.1427  0.2289  0.1648
52847W        W95759  33.567  14.978   1.308  0.0720  0.0762  0.2451
52848W        W95760  34.535  11.519   1.581  0.0788  0.1075  0.4885
52849W        W95761  33.933  11.698   2.223 -0.3389  0.1614 -0.2507
52850W        W95762  33.979  13.393   2.341  0.0523  0.1481  0.3473
52851W        W95763  33.852  13.628   3.167 -0.2565 -0.1570  0.0949
52852W        W95764  33.665  11.523   1.337 -0.2325 -0.0691  0.1498
52853W        W95765  33.536  13.740   2.353  0.0639  0.0645 -0.1346
52854W        W95766  33.417  13.377   0.918  0.1078  0.0680  0.1483
52855W        W95767  31.924  11.572   2.041  0.2966  0.2118  0.1290
52856W        W95768  33.888  13.150   0.961  0.0723  0.0673 -0.3176
52857W        W95769  33.660  13.068   1.516  0.2004 -0.0782  0.1171
52858W        W95770  33.408  10.427   2.737  0.0942  0.0283  0.0359
52859W        W95771  34.303  14.690   1.811 -0.2063 -0.0549 -0.0217
52860W        W95772  33.336  11.657   2.418 -0.0711  0.0408  0.0629
52861W        W95773  33.254  12.473   1.425 -0.0343 -0.1095  0.2022
52862W        W95774  33.809  10.994   0.384 -0.3650  0.2293 -0.3673
52863W        W95775   0.723  14.644  31.424 -0.0039 -0.2815 -0.2104
52864W        W95776  32.691  11.335   1.348  0.3839 -0.1639  0.0780
52865W        W95777  34.222  14.383   2.327 -0.3768 -0.1396 -0.0158
52866W        W95778  33.902  11.747   0.785 -0.0653 -0.0362 -0.1263
52867W        W95779   0.155  10.964  30.878  0.0309 -0.0721  0.0729
52868W        W95780   1.278  13.828   2.354 -0.1369  0.1455  0.0974
52869W        W95781   0.287  10.491   0.110  0.0629  0.0969 -0.4096
52870W        W95782  33.508  14.311   0.109 -0.2191 -0.1938 -0.2422
52871W        W95783  34.253  15.676   0.976  0.0166 -0.0820  0.0537
52872W        W95784  33.155  14.034   2.956  0.2439  0.3809 -0.3716
52873W        W95785  33.930  13.536   1.831 -0.1908  0.0256 -0.2128
52874W        W95786   0.546  13.852  31.767  0.1658  0.0886 -0.0976
52875W        W95787  33.205  13.706   1.972  0.0449 -0.0840 -0.3059
52876W        W95788  34.595  13.766   1.704  0.0788  0.3069  0.2238
52877W        W95789  31.564  12.796   5.033  0.1261 -0.0141  0.0313
52878W        W95790   0.334  11.955   0.812 -0.0201 -0.2200 -0.0121
52879W        W95791  33.362  14.405   3.355  0.0312 -0.2323  0.0554
52880W        W95792  33.548  12.456   2.406  0.1460 -0.0973 -0.3090
52881W        W95793  32.462  15.196   1.111  0.3838 -0.0808  0.2541
52882W        W95794  34.577  11.981   1.182 -0.0215 -0.3036 -0.2466
52883W        W95795  33.659  15.136   2.121 -0.2318 -0.2652 -0.0525
52884W        W95796  33.423  14.637  31.729  0.0837  0.2809 -0.1002
52885W        W95797  34.266  14.705   0.653 -0.1500  0.0644 -0.1473
52886W        W95798  34.238  13.235   3.334 -0.1542  0.1374  0.0358
52887W        W95799   1.092  10.366   0.975  0.1180  0.2359 -0.1835
52888W        W95800  31.656  12.465   4.638  0.0337  0.3635 -0.2841
52889W        W95801  32.302  14.214   3.085 -0.0253  0.0367  0.3210
52890W        W95802  34.055  11.804   1.591 -0.0674 -0.2501  0.1037
52891W        W95803  34.310  12.438   1.385 -0.0864  0.2844 -0.0748
52892W        W95804   0.689  11.377   0.117 -0.3943 -0.0887 -0.1485
52893W        W95805   0.123  14.156   0.960 -0.0881  0.0238 -0.2504
52894W        W95806   0.403  14.229   1.412 -0.2341  0.0473 -0.1140
52895W        W95807   0.201  14.884   1.844  0.0147  0.0378 -0.1628
52896W        W95808  34.084  10.049   2.066  0.1498 -0.0927  0.1757
52897W        W95809  32.446  12.766   3.942  0.0564 -0.1272 -0.0651
52898W        W95810   0.340  11.811   1.395  0.0066 -0.1141 -0.1204
52899W        W95811  34.151  11.839   3.322  0.3249  0.0172 -0.0871
52900W        W95812   1.802  11.253   0.780  0.3196  0.2545 -0.0721
52901W        W95813  34.151  11.229   0.805  0.0179 -0.0763 -0.1695
52902W        W95814  32.864  13.334  31.961  0.0222  0.0815 -0.1140
52903W        W95815   0.533  12.673   3.619  0.0842  0.0127  0.0678
52904W        W95816  33.151  11.807   1.467  0.1748  0.3542  0.1099
52905W        W95817  34.398  14.432   1.006 -0.0296  0.0943  0.0695
52906W        W95818  32.906  11.155   2.376 -0.1594 -0.0705  0.0842
52907W        W95819   0.739  11.607   0.566 -0.1615  0.0610 -0.0796
52908W        W95820  32.117  12.269   1.279  0.3171  0.0130 -0.2919
52909W        W95821  34.239  14.153   0.054 -0.2790 -0.2045 -0.1131
52910W        W95822  33.433  14.835  28.769 -0.3268 -0.2992  0.1185
52911W        W95823   0.507  12.803   2.226  0.1995  0.2563  0.2791
52912W        W95824  33.686  13.910   3.974 -0.0900  0.0617  0.2165
52913W        W95825  32.677  13.408  31.528  0.1926 -0.0907  0.0816
52914W        W95826  34.077  13.595   4.106 -0.1388 -0.1198 -0.3231
52915W        W95827  34.448  13.237   0.290  0.2418 -0.1497  0.1302
52916W        W95828  33.742  13.490   1.279 -0.0460 -0.5274  0.2477
52917W        W95829   1.036  11.857   1.001 -0.1366 -0.1724 -0.1153
52918W        W95830  34.533  13.651   2.397  0.0622 -0.0224 -0.0533
52919W        W95831   0.156  13.657   3.020 -0.2685  0.2907  0.1783
52920W        W95832  33.342  13.273   1.827  0.3234 -0.1916 -0.2234
52921W        W95833  33.993  12.983   0.388 -0.3061  0.1791 -0.2869
52922W        W95834  32.703  13.973   2.789 -0.0039  0.1704  0.4432
52923W        W95835  33.333  13.582   3.795  0.2558  0.1236  0.1178
52924W        W95836  32.509  13.434   2.745 -0.0528 -0.0746 -0.2904
52925W        W95837  32.808  13.705   1.536  0.1507  0.0629 -0.0265
52926W        W95838  34.009  11.130   1.265  0.2418  0.1174  0.0975
52927W        W95839  33.757  10.127   2.454 -0.0365 -0.1899 -0.0378
52928W        W95840  33.833  12.219   0.677  0.1211  0.0929 -0.4823
52929W        W95841   0.521   9.970  31.618 -0.0756 -0.0453 -0.0032
52930W        W95842  33.401  12.878   1.120 -0.0128 -0.2139 -0.1332
52931W        W95843  33.652  11.967   2.651  0.0677 -0.1353  0.4783
52932W        W95844  34.212  11.174   3.290  0.4561  0.1438 -0.0744
52933W        W95845  32.759  11.002  31.836 -0.0482  0.0229 -0.0419
52934W        W95846   0.098  11.378   1.993  0.0722  0.0946 -0.1825
52935W        W95847   0.121  14.136   3.268  0.1293 -0.0838  0.0263
52936W        W95848  33.944  14.594   3.663  0.2139  0.2943 -0.3217
52937W        W95849  33.649  13.037   2.621 -0.1570  0.0412  0.1045
52938W        W95850   0.579  14.353   3.031 -0.1231  0.1845  0.1043
52939W        W95851  33.240   9.886   2.454 -0.1432  0.1276 -0.0042
52940W        W95852  33.028  13.908   3.434  0.0190 -0.1563  0.0283
52941W        W95853   0.246  10.461   2.011 -0.1548  0.3919 -0.2784
52942W        W95854  34.109  12.922   2.897  0.1015  0.0017 -0.2182
52943W        W95855   1.467  10.031   0.999 -0.0766 -0.2200  0.0567
52944W        W95856   0.815  13.030   2.594  0.0201  0.0835  0.1279
52945W        W95857  33.497  12.083   1.007 -0.0526  0.4103  0.0131
52946W        W95858   0.990  15.418   2.725 -0.4034 -0.1576 -0.2134
52947W        W95859  33.524  10.010   1.974  0.1468 -0.2028  0.0016
52948W        W95860  33.159  13.259   1.325  0.0088  0.1556  0.1508
52949W        W95861   1.914  12.543   1.197 -0.1713 -0.1037  0.0387
52950W        W95862  31.852  12.200   1.928  0.3085 -0.0727 -0.1944
52951W        W95863  34.168  14.242   1.778 -0.1877 -0.1467 -0.1594
52952W        W95864  32.750  12.696   7.777  0.1775 -0.0269 -0.3396
52953W        W95865  32.799  11.880   4.839  0.1582 -0.5570  0.2635
52954W        W95866  31.965  11.394   5.809 -0.0818 -0.1621 -0.0992
52955W        W95867  33.188  10.680   5.707  0.1307  0.0882  0.0369
52956W        W95868  34.627  11.301   4.722  0.0540  0.0279 -0.1452
52957W        W95869  33.031  13.856   6.194  0.1948  0.0910 -0.0154
52958W        W95870  34.116  11.495   3.716 -0.1926  0.0027  0.2678
52959W        W95871  32.957  10.621   5.277  0.0894 -0.0365  0.0701
52960W        W95872  34.072  12.762   4.944  0.1470 -0.3126  0.0758
52961W        W95873  33.510  11.939   4.687  0.0021 -0.0108 -0.2922
52962W        W95874   0.109  12.177   4.801  0.3225  0.3203 -0.2072
52963W        W95875  34.194  12.717   5.921 -0.1425 -0.0083 -0.1343
52964W        W95876  34.252  14.934   4.602 -0.2461 -0.2394  0.1216
52965W        W95877  32.626  12.206   3.582 -0.2477 -0.0809  0.0110
52966W        W95878  31.291  12.366   5.096 -0.0803 -0.2044 -0.3528
52967W        W95879  33.232  11.668   6.278 -0.0619  0.1204 -0.0650
52968W        W95880  33.272  12.632   4.729  0.3959 -0.1839  0.0898
52969W        W95881   0.193  14.031   5.771  0.2353  0.1280  0.0880
52970W        W95882  32.722  13.044   5.812 -0.2980  0.2256  0.3473
52971W        W95883  31.197  14.925   5.656 -0.0195  0.1615 -0.1134
52972W        W95884  33.835  14.713   2.561  0.0279  0.0328 -0.1033
52973W        W95885  33.508  14.709   5.745 -0.0565 -0.0091  0.1431
52974W        W95886  34.424  13.722   3.413 -0.2108  0.0862 -0.1698
52975W        W95887  33.772  13.934   7.624 -0.0863 -0.1546 -0.1824
52976W        W95888  33.699  14.105   3.517  0.3109  0.2928  0.1686
52977W        W95889  34.488  12.484   5.479 -0.1839 -0.2559  0.0986
52978W        W95890  33.450  12.797   6.949  0.1161  0.0009 -0.1329
52979W        W95891  32.704  14.149   3.994 -0.0422 -0.0323  0.0472
52980W        W95892   0.642  15.214   1.820  0.1138 -0.1395 -0.0237
52981W        W95893  34.557  11.527   3.295  0.0883 -0.1490 -0.1772
52982W        W95894  33.820  10.622   4.776 -0.3529  0.2914 -0.6788
52983W        W95895  33.456  13.504   4.696 -0.2530 -0.0891 -0.3339
52984W        W95896  33.432  10.483   6.080 -0.4394  0.0780  0.0235
52985W        W95897  32.696  16.021   6.818  0.1731  0.0448 -0.3603
52986W        W95898  31.924  11.638   4.978  0.1483  0.1249  0.2336
52987W        W95899  34.193  12.123   4.446  0.4035 -0.3866 -0.0182
52988W        W95900  32.080  12.476   6.655  0.3049  0.1804 -0.1516
52989W        W95901  32.917  11.974   7.634  0.0584 -0.3310 -0.1653
52990W        W95902  34.677  11.795   4.478 -0.0571 -0.4569  0.5253
52991W        W95903  32.061  13.485   6.814 -0.1349  0.1071 -0.3942
52992W        W95904   0.215  12.589   5.642  0.0304  0.3987 -0.2658
52993W        W95905  32.826  12.913   4.784 -0.0911 -0.0981  0.0571
52994W        W95906  34.292  14.201   3.726  0.1913 -0.0936 -0.1213
52995W        W95907  31.837  13.073   5.935 -0.3548  0.1317 -0.1548
52996W        W95908  33.438   9.997   6.055 -0.2084 -0.2919  0.1500
52997W        W95909  34.661  14.085   6.299 -0.1527 -0.0376 -0.1276
52998W        W95910  34.404  15.416   3.283 -0.0427  0.3979  0.0427
52999W        W95911  32.266  12.727   6.239 -0.1152  0.1744 -0.4063
53000W        W95912  32.811  13.254   4.351  0.0616  0.0609  0.0146
53001W        W95913  31.971  12.185   5.710 -0.2061  0.2353  0.3337
53002W        W95914  33.839  12.523   6.684 -0.1291  0.0219  0.0531
53003W        W95915  33.205  11.173   5.956  0.3545  0.0163  0.3752
53004W        W95916  32.535  14.475   4.401 -0.3995 -0.1102  0.0842
53005W        W95917  31.948  12.032   6.936 -0.5781  0.0830 -0.0978
53006W        W95918  32.868  11.653   4.381 -0.1447 -0.3077  0.0803
53007W        W95919  32.736  11.430   6.977  0.0084 -0.0465  0.1495
53008W        W95920  31.535  10.432   5.828  0.3482  0.0284  0.0456
53009W        W95921  33.801  11.047   2.888 -0.4415 -0.1062 -0.3438
53010W        W95922  33.258  11.484   4.657 -0.2781 -0.0212  0.2823
53011W        W95923  32.281  13.298   3.897  0.1133  0.1045  0.0282
53012W        W95924  34.575  11.986   6.500 -0.1556  0.0467 -0.1395
53013W        W95925  33.227  10.665   3.615  0.2006 -0.0342 -0.0952
53014W        W95926  32.775  14.400   5.912 -0.2570  0.0437 -0.1987
53015W        W95927  33.881  12.858   5.540 -0.1635  0.1719  0.0232
53016W        W95928  34.519  12.595   4.705  0.1012  0.3250 -0.4184
53017W        W95929  32.327  13.196   6.102  0.0219  0.2436  0.3393
53018W        W95930  32.787  11.297   4.761 -0.0501  0.2226 -0.2230
53019W        W95931  33.655  13.928   4.507 -0.2038  0.4649 -0.1012
53020W        W95932  32.554  11.253   4.144  0.2275 -0.0399 -0.0532
53021W        W95933  34.221  13.153   3.814 -0.0120 -0.1887  0.0794
53022W        W95934  32.667  11.748   8.255  0.1900 -0.0905  0.1134
53023W        W95935  32.395  11.649   4.864 -0.1147 -0.2255 -0.1935
53024W        W95936  32.450  13.644   7.899 -0.1257  0.1425  0.0426
53025W        W95937  31.485  13.050   6.702 -0.1332 -0.2042  0.2833
53026W        W95938  33.885  12.843   3.986 -0.2416  0.1425  0.1263
53027W        W95939  33.871  14.186   5.811  0.0080 -0.0618 -0.0757
53028W        W95940  31.863  13.171   6.392  0.0470 -0.0649 -0.0235
53029W        W95941   0.340  10.284   5.644 -0.3380 -0.3775  0.2080
53030W        W95942  34.572  12.861   3.527 -0.0938  0.2520  0.0549
53031W        W95943  33.254  14.222   2.000  0.3619  0.1549 -0.1766
53032W        W95944  33.795  11.884   7.638 -0.0411  0.3058 -0.4244
53033W        W95945  33.310  13.149   3.974  0.3798 -0.0024  0.3690
53034W        W95946   0.733  10.802   6.314 -0.0290  0.0971  0.0340
53035W        W95947  33.206  12.396   6.151 -0.2203  0.0614  0.0335
53036W        W95948  31.961  14.691   6.349  0.0543  0.1459 -0.0936
53037W        W95949   1.013  11.074   5.802 -0.0174 -0.2547 -0.4150
53038W        W95950  34.143  14.983   3.310  0.1884 -0.2277 -0.0107
53039W        W95951  32.943  12.794   4.254  0.0618  0.0417 -0.1398
53040W        W95952  34.415  11.093   5.122  0.1944  0.2645  0.1939
53041W        W95953  33.819  13.657   5.559 -0.2149 -0.0288 -0.3290
53042W        W95954  32.826  13.684   3.863 -0.2685 -0.0497  0.2379
53043W        W95955  33.258  13.948   4.746 -0.0998 -0.0271  0.0116
53044W        W95956  32.270  12.992   5.642 -0.1500 -0.0939 -0.2170
53045W        W95957  32.661  12.778   2.219  0.0948  0.0675  0.0441
53046W        W95958  32.633  12.338   4.125 -0.2499 -0.1792 -0.0121
53047W        W95959  33.470  10.274   6.546 -0.0980  0.3633 -0.2080
53048W        W95960   0.323  11.499   4.233  0.0888 -0.1178  0.2343
53049W        W95961  33.308  13.872   7.351 -0.2949  0.2772 -0.2352
53050W        W95962  33.159  13.011   6.095 -0.1503  0.3515 -0.0650
53051W        W95963  33.307  11.633   3.477 -0.2668 -0.0228  0.1246
53052W        W95964  33.079  11.166   4.324  0.1011  0.1950  0.1056
53053W        W95965  32.779  13.326   5.181 -0.2056 -0.2266 -0.4481
53054W        W95966  33.503  12.273   5.151 -0.0958  0.1272  0.0087
53055W        W95967  33.003  12.485   5.199 -0.2887  0.0243  0.1404
53056W        W95968  34.243  12.261   6.222  0.0577 -0.0431  0.1633
53057W        W95969  33.730  11.398   6.643 -0.0358 -0.4716  0.2666
53058W        W95970  33.441  10.999   4.668  0.1570 -0.4934 -0.0630
53059W        W95971  34.004  11.667   4.739  0.1494 -0.0995  0.3433
53060W        W95972   0.379  12.772   7.175 -0.0922 -0.0053  0.0682
53061W        W95973  34.464  12.627   6.586  0.0307 -0.0655  0.1028
53062W        W95974  33.726  13.263   4.251 -0.1217  0.0958  0.0925
53063W        W95975  31.273  12.676   7.004 -0.0563  0.2806  0.1378
53064W        W95976  33.491  13.480   5.859  0.0537 -0.1094 -0.1227
53065W        W95977  34.322  10.824   5.568 -0.1421 -0.1732  0.0434
53066W        W95978  33.510  11.183   5.452 -0.1763 -0.0151  0.2546
53067W        W95979  34.420  13.832   2.813  0.2579 -0.2689 -0.0650
53068W        W95980  32.734  13.048   6.941  0.2955  0.0501  0.1254
53069W        W95981   0.266  11.639   5.376  0.1165 -0.3088 -0.2416
53070W        W95982  33.586  11.501   5.919 -0.0935 -0.1323  0.0147
53071W        W95983  33.609  11.385   7.502  0.2210  0.0290  0.0262
53072W        W95984  32.896  13.593   6.556  0.0529  0.3799  0.1419
53073W        W95985  34.304  12.154   4.916 -0.1955 -0.1156  0.2361
53074W        W95986  33.446  10.669   5.105 -0.0381  0.1305 -0.1079
53075W        W95987  34.615  13.371   4.320  0.1715  0.1203  0.0148
53076W        W95988  33.205  11.616   5.639 -0.1855 -0.0433 -0.0930
53077W        W95989  33.987  15.065   3.840  0.1247  0.0488  0.2553
53078W        W95990  33.101  12.746   6.552 -0.3322 -0.0878  0.0930
53079W        W95991  32.460  10.593   8.189  0.0844  0.2665 -0.0320
53080W        W95992  34.317  11.045   7.295  0.1062  0.0019 -0.1934
53081W        W95993  31.249  11.398   8.428 -0.0109 -0.0343  0.0947
53082W        W95994  32.796  11.491   6.149  0.2535 -0.3537 -0.0373
53083W        W95995  33.071  11.832   3.872  0.0947 -0.2762 -0.4134
53084W        W95996   1.174  15.068   3.250  0.1897  0.0860  0.0116
53085W        W95997  33.190  11.704   5.152 -0.3182  0.1243 -0.0065
53086W        W95998  33.074  12.986   7.356 -0.2666  0.1535  0.1728
53087W        W95999  32.600  12.146   5.277 -0.0609  0.4549 -0.1238
53088W        W96000  33.713  13.157   3.658 -0.1256  0.0225 -0.0619
53089W        W96001  34.396  13.595   4.722  0.0965  0.0385  0.1497
53090W        W96002   0.476  10.647   5.311 -0.0485  0.1623  0.2075
53091W        W96003  32.503  14.101   5.385 -0.0123  0.0384 -0.1768
53092W        W96004  32.540  13.623   6.911  0.2119  0.0825  0.1329
53093W        W96005  31.347  13.372   7.595 -0.2834  0.0853 -0.0067
53094W        W96006  33.170  13.700   4.257 -0.1842  0.3522  0.1523
53095W        W96007  33.339  13.008   5.580 -0.3112 -0.0061 -0.2701
53096W        W96008  32.254  12.649   5.223  0.4760  0.4602  0.0913
53097W        W96009  33.005  12.111   4.402  0.1981 -0.1184 -0.0325
53098W        W96010  33.764  11.867   9.063  0.1456  0.1662 -0.1617
53099W        W96011  33.726  11.843   3.714 -0.3625  0.1510 -0.2188
53100W        W96012  33.049  13.340   8.099  0.2141 -0.0481 -0.0369
53101W        W96013  32.989  11.384   8.243 -0.0282  0.0686 -0.2299
53102W        W96014  33.883  15.495   3.303  0.0123 -0.1394  0.0185
53103W        W96015  33.713  11.354   4.439 -0.0785  0.1455 -0.1697
53104W        W96016  33.619  14.395   6.373 -0.3047  0.1075  0.2626
53105W        W96017  32.829  13.190   3.843  0.1340 -0.1052 -0.0036
53106W        W96018  33.467  15.436   4.716  0.0882 -0.1096  0.0650
53107W        W96019  34.546  11.551   6.848  0.3062 -0.0966  0.3221
53108W        W96020   0.075  11.472   3.726 -0.1254 -0.3128 -0.2802
53109W        W96021  33.433  10.709   6.880 -0.2079  0.3293 -0.2152
53110W        W96022  32.931  11.979   6.007 -0.3885  0.2989 -0.1192
53111W        W96023  32.750  12.973   3.007  0.1235 -0.1457  0.2788
53112W        W96024  33.100  10.720   4.766  0.3355  0.0381  0.4275
53113W        W96025  34.115  13.379   2.837 -0.1205 -0.1930 -0.1478
53114W        W96026  34.179  13.969   4.448 -0.1547 -0.0380 -0.1542
53115W        W96027  33.422  13.942   5.574 -0.4426  0.0291 -0.1167
53116W        W96028  33.825  13.848   6.609  0.0394  0.1865  0.0239
53117W        W96029  32.079  11.274   5.277  0.0950  0.0112 -0.0420
53118W        W96030  33.822  11.005   7.122  0.3525 -0.0027 -0.0334
53119W        W96031  32.680  12.834   5.373  0.0031  0.0510 -0.3074
53120W        W96032  32.546  12.293   6.319  0.1874  0.0935 -0.2022
53121W        W96033  33.915  11.521   2.823 -0.2785  0.2732 -0.3074
53122W        W96034  32.882  11.056   5.505  0.0919  0.1654 -0.0161
53123W        W96035  33.133  11.128   5.065 -0.0640 -0.3505 -0.0266
53124W        W96036  34.332  11.453   6.420  0.1529 -0.0539  0.0862
53125W        W96037  33.421  11.164   3.562  0.0299 -0.0004  0.3142
53126W        W96038   1.042  15.566   3.256 -0.0433 -0.3584  0.1474
53127W        W96039  33.097  11.224   6.450  0.3455  0.3885  0.2426
53128W        W96040  34.417  10.816   4.715 -0.0179 -0.1217 -0.2744
53129W        W96041  33.454  12.041   5.879  0.2483  0.0447  0.3498
53130W        W96042  33.240  14.094   3.945  0.3959 -0.0543 -0.1974
53131W        W96043  34.666  14.108   2.208 -0.3155  0.3172 -0.0732
53132W        W96044  33.562  12.956   6.407 -0.1276 -0.0860 -0.0402
53133W        W96045  33.023  14.415   6.338 -0.0284  0.0626  0.3051
53134W        W96046  32.499  12.822   4.430 -0.0085 -0.0418  0.1084
53135W        W96047  33.879  12.952   7.065 -0.2883 -0.0068 -0.1662
53136W        W96048  33.981  11.739   4.199 -0.2588 -0.2354  0.2332
53137W        W96049  33.722  13.333   5.175  0.0975 -0.1269 -0.0689
53138W        W96050   0.709  11.454   5.213  0.1036 -0.2510 -0.0479
53139W        W96051  32.700  11.000   6.021  0.1034  0.0723  0.0026
53140W        W96052  32.490  12.213   6.875 -0.0317 -0.3176  0.2949
53141W        W96053  32.199  12.420   4.464  0.1129 -0.2897 -0.2380
53142W        W96054  32.440  13.613   4.250 -0.1140  0.0186 -0.0696
53143W        W96055  33.777  12.390   4.722  0.1703  0.0817  0.0037
53144W        W96056  34.527  10.764   6.959  0.0381  0.0859 -0.0841
53145W        W96057  32.049  11.117   7.919  0.1949  0.1906 -0.1336
53146W        W96058  32.572  12.701   6.656 -0.1968  0.2530  0.3382
53147W        W96059  33.207  12.433   4.023 -0.1178  0.2166  0.2215
53148W        W96060  32.928  11.128   3.778  0.1001  0.1592  0.3530
53149W        W96061  32.238  10.488   5.294 -0.0613 -0.1955  0.0976
53150W        W96062  34.520  11.674   4.964 -0.1113  0.1507  0.0433
53151W        W96063  32.376  12.521   5.699 -0.0424  0.0175 -0.4168
53152W        W96064  32.992  12.168   6.582 -0.4153 -0.0745 -0.2799
53153W        W96065  32.159  10.711   7.630 -0.2727  0.3578 -0.1740
53154W        W96066  32.515  11.594   3.017 -0.0366 -0.1759  0.3313
53155W        W96067  32.855  12.407   5.696  0.0950 -0.0133 -0.0795
53156W        W96068  32.726  12.694   6.151 -0.0700  0.1185  0.0076
53157W        W96069  32.928  14.214   7.489 -0.2272  0.0670 -0.0565
53158W        W96070  31.123  11.330   7.891 -0.0518 -0.1435 -0.2377
53159W        W96071  33.643  12.076   8.135 -0.1382  0.1480  0.2188
53160W        W96072  33.828   9.911   5.655  0.2749  0.3948  0.0656
53161W        W96073  33.580  12.787   7.455 -0.1163  0.2823 -0.0272
53162W        W96074  33.890  10.783   5.859  0.0075  0.0593 -0.0845
53163W        W96075  32.434  11.911   5.949  0.0326 -0.0339  0.2960
53164W        W96076  33.960  11.263   5.583  0.1954  0.0639  0.2375
53165W        W96077  32.920  13.985   7.002  0.0925  0.3110 -0.3042
53166W        W96078  33.665  11.950   3.175  0.0603 -0.1909 -0.2761
53167W        W96079  33.290  14.267   5.965  0.0630 -0.1808 -0.1040
53168W        W96080  34.014  11.155   4.847 -0.1061 -0.1165  0.0026
53169W        W96081  33.878  11.979   5.055 -0.3467 -0.0683 -0.3580
53170W        W96082  32.683  12.381   4.841 -0.1192 -0.0621  0.1945
53171W        W96083  34.244  11.582   5.874  0.2798  0.1526 -0.1346
53172W        W96084  34.182  13.744   5.990 -0.1327  0.1004  0.0367
53173W        W96085  33.585  11.901   9.767 -0.1136  0.4339 -0.0110
53174W        W96086  33.819  12.797   9.525  0.1146 -0.0211  0.0419
53175W        W96087  32.227  11.631   8.567 -0.3330  0.0162 -0.1689
53176W        W96088   0.204  11.063   9.517 -0.1941 -0.0834  0.1194
53177W        W96089  32.889  11.583   9.109 -0.0066  0.0571 -0.0458
53178W        W96090  32.927   9.574   9.790 -0.0124  0.0181  0.2927
53179W        W96091  33.626  12.216   8.643  0.1857  0.0928 -0.0999
53180W        W96092  33.719  11.497  10.206 -0.2170 -0.0122 -0.2609
53181W        W96093  34.101  12.215   8.084  0.1231 -0.1807 -0.0408
53182W        W96094  34.068  10.851  10.167  0.2127 -0.0530  0.0819
53183W        W96095  33.191  12.917   8.577  0.3059 -0.1704 -0.1043
53184W        W96096  33.156  12.435   7.454 -0.4698  0.0958 -0.2123
53185W        W96097  32.107  12.236   9.441  0.0300 -0.2968 -0.1269
53186W        W96098  34.377  12.810  10.041 -0.0147  0.1004 -0.2528
53187W        W96099  33.469  15.061   9.822 -0.1263  0.0231  0.2711
53188W        W96100   0.889  13.921   9.443 -0.0820  0.2112 -0.4408
53189W        W96101  31.944  12.790   9.411 -0.1098  0.1561 -0.4460
53190W        W96102  32.004  14.146   8.374  0.0840 -0.3747 -0.1677
53191W        W96103  33.797  13.723   9.162  0.1257 -0.3205 -0.0579
53192W        W96104  33.426  13.357   8.782  0.0859  0.2653 -0.1206
53193W        W96105  33.425  13.725   8.015 -0.0453  0.1554 -0.1955
53194W        W96106  34.254  13.690   9.173  0.0122 -0.0888 -0.2568
53195W        W96107  32.072  14.012  10.070 -0.0685  0.0928  0.3006
53196W        W96108  33.948  13.202   9.297 -0.0951  0.0870  0.0662
53197W        W96109  33.804  13.253   7.494 -0.1028  0.0906 -0.3192
53198W        W96110  33.274  10.663   7.927  0.0598  0.1004  0.0522
53199W        W96111  32.892  14.225   9.568 -0.1165  0.0805  0.0748
53200W        W96112  33.643  12.354   9.502 -0.1049  0.1693  0.1438
53201W        W96113  32.935  14.206  10.519 -0.1918 -0.1546  0.3414
53202W        W96114  32.955  10.930   9.210  0.1186 -0.2427  0.2827
53203W        W96115  32.322  13.195   9.564  0.1393 -0.0724  0.0662
53204W        W96116  33.130  11.579   7.358 -0.2536  0.2515 -0.1673
53205W        W96117  34.009  12.525   8.446  0.0310 -0.1937 -0.2095
53206W        W96118  34.198  12.061   8.582  0.0850  0.1338  0.0164
53207W        W96119  33.335  11.579   8.563 -0.0177 -0.1538 -0.0434
53208W        W96120  32.342  14.054  10.526  0.2266  0.0233  0.1034
53209W        W96121  32.521  12.839   7.351  0.1931  0.1967  0.6615
53210W        W96122  32.569  12.288   9.782  0.0659 -0.2468 -0.0243
53211W        W96123  32.449  11.884   7.795  0.0726 -0.0190 -0.3129
53212W        W96124  32.083   9.122   9.894 -0.0628 -0.1862 -0.2346
53213W        W96125  32.686  14.087  10.975 -0.0525  0.1863  0.1485
53214W        W96126  33.067  13.050   9.062 -0.1118  0.1479  0.3888
53215W        W96127  32.599  11.276   9.396  0.2663 -0.0594  0.0205
53216W        W96128  33.379  12.413   9.030  0.0316  0.1536  0.2119
53217W        W96129  33.055   8.829  10.179  0.2102  0.1597  0.2440
53218W        W96130  32.647  11.848   8.766 -0.2270 -0.4456  0.0422
53219W        W96131  33.581  12.905   9.102  0.1235  0.1085 -0.1445
53220W        W96132  31.431  12.366   8.676 -0.0835 -0.1687 -0.1930
53221W        W96133  32.401  10.673   8.660  0.0259 -0.0062 -0.1857
53222W        W96134  33.281  11.802   6.859 -0.2635  0.1895  0.0309
53223W        W96135  32.483  12.802   8.519  0.0553  0.1579  0.2837
53224W        W96136   0.178  12.157  10.274  0.0918 -0.1097 -0.0798
53225W        W96137  33.866  11.749   8.484 -0.0442 -0.1843 -0.0556
53226W        W96138  32.855   9.564   6.851  0.1593  0.0687 -0.5002
53227W        W96139  31.809  12.880   8.376 -0.2487 -0.2244 -0.0468
53228W        W96140  31.697  12.957   7.835  0.1528 -0.1924  0.1251
53229W        W96141  33.404  14.933   8.699  0.0744 -0.2200  0.1760
53230W        W96142  32.502  11.815   7.191 -0.0023 -0.2514 -0.0676
53231W        W96143  33.468  13.928   8.891 -0.2622 -0.0195  0.2415
53232W        W96144  33.506  15.472   9.480 -0.1596  0.0042 -0.3597
53233W        W96145  34.494  11.887  10.534  0.0983 -0.2013 -0.1902
53234W        W96146  31.829   9.837  10.460  0.2184 -0.2039 -0.1129
53235W        W96147  33.732  12.972   7.910  0.2165 -0.0448  0.1405
53236W        W96148  33.108  15.330   6.542 -0.0549 -0.1712  0.0930
53237W        W96149  33.107  12.334   8.570 -0.0852 -0.4498  0.1901
53238W        W96150   0.255  12.635   9.857 -0.0856  0.0334 -0.6833
53239W        W96151  33.448  13.358   9.352  0.3867  0.2326  0.1569
53240W        W96152  33.657  12.838   8.637 -0.3835  0.5064  0.0661
53241W        W96153  32.598  12.323   7.469  0.0789 -0.1812  0.2077
53242W        W96154  33.407  11.432   9.877 -0.2118 -0.0827  0.0950
53243W        W96155  31.196  15.031  10.332 -0.3161 -0.0605 -0.0529
53244W        W96156  34.536  12.577   8.331 -0.0490  0.0261 -0.2199
53245W        W96157  32.312  12.682   8.090  0.4006  0.0018 -0.0811
53246W        W96158  32.007  12.849   8.877  0.0660 -0.0464 -0.2322
53247W        W96159  34.148  11.381   7.624  0.0531 -0.2171  0.2514
53248W        W96160  32.614  12.309   8.525  0.0536  0.2849 -0.1546
53249W        W96161   1.355  10.359  10.204  0.1668  0.0668  0.0382
53250W        W96162  33.654  13.677  10.094  0.1192  0.1695  0.1537
53251W        W96163  32.543  14.417  10.138  0.1167 -0.0224 -0.2495
53252W        W96164  31.749  10.579   8.782 -0.0817  0.3707  0.3671
53253W        W96165   0.086  12.696   9.390 -0.1526  0.0692  0.0009
53254W        W96166  32.724  13.978  10.035 -0.0327 -0.2195 -0.0502
53255W        W96167  33.545  10.899   6.428  0.3269 -0.0467 -0.0904
53256W        W96168  33.162  11.907   8.230 -0.0017  0.0309  0.1650
53257W        W96169  33.867  12.408   9.079  0.1574  0.2599  0.0753
53258W        W96170  32.601  11.103   8.878 -0.1748 -0.3347  0.1593
53259W        W96171  34.484  13.169   9.178  0.3294  0.0923 -0.0410
53260W        W96172  34.277  14.257  10.082  0.1194 -0.1129  0.1758
53261W        W96173  32.429  14.134   7.045 -0.1100 -0.2575  0.0280
53262W        W96174  32.073  10.596   9.585 -0.1465  0.0833 -0.0074
53263W        W96175  34.295  11.894   7.773 -0.0140  0.2594 -0.5830
53264W        W96176  33.689  11.222   8.594 -0.0689 -0.0529  0.1403
53265W        W96177  31.828  14.756  10.617  0.2210 -0.0590  0.0071
53266W        W96178  33.067  13.586   9.105  0.0646  0.0891 -0.2693
53267W        W96179  31.142  14.650   9.959 -0.1036 -0.1517  0.1274
53268W        W96180  33.760  10.902   7.713 -0.0749  0.0749  0.2233
53269W        W96181  33.359   9.802   9.206 -0.1524 -0.0302  0.3712
53270W        W96182  33.279  10.911   7.350 -0.0165  0.4339  0.3114
53271W        W96183   0.066  12.604   8.783 -0.1390 -0.0105 -0.2151
53272W        W96184  34.467  11.611   8.710  0.2058  0.1771  0.0008
53273W        W96185  33.372  11.532   9.139  0.1510  0.0549 -0.1388
53274W        W96186  34.261  13.255   7.800  0.4928  0.0528 -0.0232
53275W        W96187  32.422  12.491   9.076 -0.3979  0.2546 -0.2944
53276W        W96188  30.857   8.707   9.974 -0.0341  0.0478 -0.0813
53277W        W96189  32.245  11.576   6.810  0.0102  0.4089  0.1647
53278W        W96190  34.650  13.681   7.327 -0.3819  0.1309  0.1292
53279W        W96191  32.352  11.567   9.062  0.0652  0.0457  0.3145
53280W        W96192  32.397  10.214   6.417  0.2152 -0.0598  0.0085
53281W        W96193  33.350  13.343   7.708  0.2366 -0.1925  0.4260
53282W        W96194   0.243  15.123  10.289  0.1911 -0.1824  0.2003
53283W        W96195  34.081  10.183   7.931  0.1272  0.0351  0.1926
53284W        W96196  31.956  13.223   9.166 -0.3472  0.0123  0.1969
53285W        W96197  32.547  14.681   9.706  0.0487  0.1164  0.0211
53286W        W96198  33.123  13.660   9.887  0.0309 -0.0699 -0.1664
53287W        W96199   0.068  14.751   9.455  0.0494 -0.0337 -0.3452
53288W        W96200  32.614  13.509  10.290  0.0184 -0.0309  0.0726
53289W        W96201  33.036  10.434  10.068 -0.3622  0.0725  0.1437
53290W        W96202  32.166   9.837   8.662  0.2858  0.0736  0.2893
53291W        W96203  32.361  12.278  10.248  0.1190  0.1614 -0.1276
53292W        W96204  33.066  14.642   7.689  0.0726  0.1496  0.2576
53293W        W96205  33.281  11.264   6.949 -0.0416 -0.0314 -0.3334
53294W        W96206  32.539  13.052   8.997  0.0022 -0.0283  0.1335
53295W        W96207  32.307  14.168   7.501  0.3746  0.2935  0.0598
53296W        W96208  33.612  14.478   8.637 -0.0372 -0.4958 -0.0534
53297W        W96209  33.830  13.593   9.688 -0.1739 -0.0078 -0.0569
53298W        W96210  33.422  11.074   8.209  0.1790  0.0213  0.1720
53299W        W96211  33.273  11.967   9.391  0.0633  0.1286 -0.1789
53300W        W96212  32.929  12.370   9.422  0.2907 -0.1121  0.0978
53301W        W96213  34.135  11.829   6.729 -0.0600  0.0430 -0.0354
53302W        W96214  33.523  13.278   8.249  0.2353  0.1145  0.1268
53303W        W96215  33.348  13.915   9.401 -0.0795  0.0988 -0.0176
53304W        W96216  33.105  15.423  10.908  0.0131 -0.0731 -0.0367
53305W        W96217  32.701   9.584   7.336  0.0242  0.1972  0.0840
53306W        W96218  33.930  11.141   9.660  0.1909 -0.1439  0.0663
53307W        W96219  32.165  12.050   8.925 -0.1453  0.2130 -0.3697
53308W        W96220  32.095  10.372  10.054 -0.0510 -0.0856 -0.1590
53309W        W96221   0.177  11.594   6.329 -0.2835 -0.2558 -0.2949
53310W        W96222  30.433  10.430  10.553  0.2127 -0.3041  0.3577
53311W        W96223  32.804  12.677   8.827 -0.0844 -0.0794  0.0526
53312W        W96224  33.953  13.135   9.905  0.1414  0.1657 -0.1033
53313W        W96225  32.087  10.314   7.975  0.0629  0.2882  0.1365
53314W        W96226  32.275  14.292   6.575  0.0721 -0.0029  0.1071
53315W        W96227  31.053  12.402   9.636  0.0562  0.0361 -0.2296
53316W        W96228   0.073  11.675   7.727  0.0198 -0.1969 -0.1174
53317W        W96229  31.117  10.237  10.051  0.0744  0.2262  0.1159
53318W        W96230  33.208  14.217   8.626  0.0449 -0.2545  0.0600
53319W        W96231  33.771  13.726   7.174  0.1112 -0.2070 -0.0895
53320W        W96232  34.016  14.757  10.409 -0.1595 -0.3296  0.0761
53321W        W96233  33.339  11.660   7.815 -0.2263 -0.0661  0.0705
53322W        W96234  32.855  12.628   9.970  0.0989 -0.0912  0.0144
53323W        W96235  33.739  13.658   8.459  0.0345  0.2094  0.1228
53324W        W96236   0.522  11.762   9.473 -0.2190  0.1978 -0.0480
53325W        W96237  33.996  11.370   9.010  0.0916  0.1396 -0.1216
53326W        W96238  33.416  10.738   8.988 -0.0864 -0.1183 -0.0059
53327W        W96239  32.336  11.380   7.562 -0.1495 -0.0081  0.3752
53328W        W96240  33.261  12.895   7.958 -0.4283 -0.1387 -0.1082
53329W        W96241  32.584  12.776   9.468 -0.1515 -0.0149 -0.1238
53330W        W96242  32.144  12.309   7.647  0.0456 -0.1474  0.0265
53331W        W96243  31.632  12.038   9.558  0.1013 -0.1275  0.1847
53332W        W96244  32.415  11.806   9.623  0.1830 -0.0558 -0.0555
53333W        W96245  31.472  11.950   8.950  0.0943  0.0257  0.0942
53334W        W96246  33.838  10.614   8.670 -0.0925 -0.0954 -0.3176
53335W        W96247  32.201  12.514   7.159  0.0990 -0.0444 -0.1259
53336W        W96248  31.544  10.124   7.876  0.3382 -0.1286 -0.0070
53337W        W96249  33.034  11.152   9.685  0.0194  0.3962 -0.0393
53338W        W96250  33.713  10.240  10.174  0.0019 -0.0225 -0.2672
53339W        W96251  33.817  10.669   8.149  0.1300  0.1687 -0.1776
53340W        W96252  32.545   9.995   9.201  0.3196  0.1014 -0.2355
53341W        W96253  33.218  12.354   7.947 -0.0109 -0.0524 -0.2568
53342W        W96254  33.705  11.818   7.093  0.0267 -0.2142 -0.2302
53343W        W96255   1.377   9.968  10.546  0.3317  0.2673 -0.0648
53344W        W96256  32.675   9.163   9.146  0.2919  0.2405 -0.0134
53345W        W96257  32.043  12.411   8.667  0.0988 -0.0308  0.1753
53346W        W96258  33.948  13.290   8.775 -0.3830 -0.0052 -0.1745
53347W        W96259  33.863   9.778   9.923  0.0200 -0.0709 -0.0800
53348W        W96260  33.259  12.367   9.808 -0.2246  0.0659 -0.0894
53349W        W96261  32.920  17.033   3.017 -0.1964  0.0410  0.1978
53350W        W96262  33.268  15.579   1.139 -0.1223 -0.0240 -0.3138
53351W        W96263  32.913  15.978  31.405  0.0976 -0.1286 -0.0613
53352W        W96264  33.742  15.566   1.627 -0.0848  0.1286  0.1349
53353W        W96265  34.018  16.456   1.580  0.0437  0.0588  0.1733
53354W        W96266  33.763  18.847   1.672 -0.2575 -0.1890 -0.0858
53355W        W96267   0.244  14.138   0.369 -0.1439  0.5293  0.1045
53356W        W96268  32.847  14.773   2.611 -0.2278 -0.0986  0.0717
53357W        W96269  33.363  17.916   0.462  0.2160  0.1270  0.0623
53358W        W96270  33.932  16.722   1.218 -0.1621 -0.0033 -0.3745
53359W        W96271  33.704  16.245   0.035 -0.3579  0.0595 -0.4135
53360W        W96272  33.670  15.698   2.127 -0.2232 -0.1657  0.0426
53361W        W96273   0.411  17.784   0.578  0.1521 -0.0349  0.3048
53362W        W96274  30.894  15.339  31.114  0.0047 -0.1951  0.1119
53363W        W96275  32.631  15.907   1.774  0.1404 -0.2413 -0.1694
53364W        W96276  33.815  16.220   2.368  0.1255 -0.1733 -0.1127
53365W        W96277   0.065  17.792   1.757 -0.1362 -0.0547  0.0932
53366W        W96278   0.974  17.858   2.157  0.2419 -0.1747 -0.1182
53367W        W96279  32.308  15.603   0.774  0.1302 -0.1776 -0.0402
53368W        W96280  33.225  16.901   0.610  0.2820 -0.0731  0.0016
53369W        W96281   0.573  17.619  31.920  0.1910  0.0152 -0.2256
53370W        W96282  32.768  18.042   3.153 -0.2084 -0.0676 -0.2041
53371W        W96283  34.544  17.120  31.631 -0.0907  0.0465 -0.4487
53372W        W96284  33.387  17.451   2.912  0.1077  0.0182  0.1721
53373W        W96285  34.605  16.705  31.346 -0.1041  0.0995  0.1185
53374W        W96286  34.647  16.959   0.694 -0.1500 -0.2752  0.3264
53375W        W96287  33.590  17.493   1.582 -0.0408  0.5191 -0.1121
53376W        W96288  34.239  18.245   0.356  0.1069 -0.2386 -0.4011
53377W        W96289  32.610  18.117   0.890 -0.0371  0.2813  0.1653
53378W        W96290  34.678  14.290  31.212 -0.0225 -0.0571  0.4129
53379W        W96291   0.032  14.584   0.621 -0.0445  0.0806  0.2148
53380W        W96292  34.646  18.621   1.435  0.0755  0.0963  0.3163
53381W        W96293   0.462  15.668   2.618 -0.0121 -0.2721  0.2797
53382W        W96294  34.544  18.251   2.586 -0.4081  0.1809 -0.1412
53383W        W96295  33.317  15.856   1.561  0.1425 -0.0554  0.2096
53384W        W96296  34.104  15.541   0.482  0.0238 -0.0336  0.0495
53385W        W96297  33.119  16.424   3.739  0.2077  0.1756 -0.4447
53386W        W96298  33.743  16.548   3.097  0.2421  0.1895 -0.2867
53387W        W96299   0.872  14.173  31.573 -0.0663  0.1259 -0.1100
53388W        W96300  32.748  17.525   3.069 -0.0803 -0.0984 -0.0333
53389W        W96301   1.149  17.480   1.929  0.1386 -0.1728 -0.0275
53390W        W96302  34.616  16.575  31.807  0.1228 -0.3111  0.0546
53391W        W96303  33.736  18.021  31.320  0.1438  0.1129  0.0998
53392W        W96304  32.297  16.094   2.068  0.4769 -0.2547 -0.1674
53393W        W96305  34.148  15.712   2.391 -0.2959  0.1810 -0.2353
53394W        W96306  33.594  16.977   2.917  0.0033  0.2473  0.1193
53395W        W96307  33.540  17.294  30.341  0.0915 -0.2784 -0.1799
53396W        W96308  33.842  17.506   0.536 -0.4512  0.1200  0.0888
53397W        W96309  33.904  16.722   0.285  0.0737  0.0813  0.1861
53398W        W96310  32.885  15.567   1.568  0.3199  0.0982 -0.3404
53399W        W96311   0.365  17.668   1.265  0.1969  0.2070 -0.0473
53400W        W96312  33.557  15.804   2.927  0.1391  0.0457 -0.0010
53401W        W96313   0.193  17.378   0.069 -0.1679  0.0108  0.1242
53402W        W96314  33.144  15.809   1.987 -0.2359  0.0203 -0.1026
53403W        W96315  32.616  14.586   0.139 -0.1440  0.0590  0.0597
53404W        W96316  32.115  14.627   3.411  0.3152 -0.1027  0.0075
53405W        W96317  32.871  14.993   0.722 -0.2260  0.0088 -0.0338
53406W        W96318  33.774  12.953  30.823 -0.1423 -0.2405 -0.1323
53407W        W96319  34.196  16.562   0.761 -0.2020 -0.0289 -0.1498
53408W        W96320  33.420  16.189  31.613  0.0189 -0.2912  0.2509
53409W        W96321  33.937  16.243   1.037 -0.1664  0.1027 -0.4572
53410W        W96322   0.040  15.449  31.606  0.0657  0.0082  0.0700
53411W        W96323  33.889  17.796   1.331  0.0184 -0.0435 -0.1484
53412W        W96324  34.489  17.692   1.338 -0.2064  0.1301  0.0415
53413W        W96325  33.306  15.218   0.786  0.0329 -0.2044  0.1739
53414W        W96326  31.957  16.416   2.016 -0.3973  0.0189  0.2667
53415W        W96327  34.302  15.291  31.477 -0.2302 -0.0069  0.0273
53416W        W96328  33.434  18.218   1.123 -0.2432 -0.2415 -0.0319
53417W        W96329  32.896  15.981   0.354 -0.2268  0.0444 -0.4151
53418W        W96330  34.268  18.949   1.607  0.2625 -0.0848 -0.0985
53419W        W96331  33.489  16.455   2.682 -0.2886 -0.3269  0.1823
53420W        W96332  32.889  13.916  31.554 -0.1056 -0.1180  0.1675
53421W        W96333  33.737  16.958   1.615  0.0690  0.3236  0.2768
53422W        W96334  32.343  17.595   2.805  0.1081  0.3832  0.2026
53423W        W96335   0.537  16.855   2.012 -0.0173 -0.1609 -0.1449
53424W        W96336   0.383  17.353   1.631  0.2327 -0.3540 -0.1549
53425W        W96337  33.550  16.497   1.502 -0.0446 -0.0426 -0.1037
53426W        W96338   0.343  15.126   2.313 -0.1691 -0.0615 -0.0369
53427W        W96339   1.007  16.267  31.567  0.1468 -0.2339 -0.0349
53428W        W96340  31.493  18.921  31.311 -0.1126 -0.3064  0.0667
53429W        W96341   0.540  16.002   1.098 -0.1826 -0.0049 -0.0059
53430W        W96342  32.168  15.314   1.494 -0.3643 -0.0482 -0.0967
53431W        W96343   0.491  14.350   3.880  0.0567  0.2233  0.0974
53432W        W96344  32.030  17.701   3.692  0.0866 -0.0389 -0.1413
53433W        W96345  32.165  16.911   2.636  0.0157 -0.1947  0.1482
53434W        W96346   0.138  16.377   3.164 -0.1447  0.3038 -0.0558
53435W        W96347  34.333  17.030   1.071 -0.1956  0.1230 -0.2277
53436W        W96348  34.122  17.986   1.768 -0.2800 -0.0945  0.2353
53437W        W96349   1.394  13.695   2.947  0.0768 -0.1448  0.1937
53438W        W96350  33.465  18.206   1.574 -0.1001  0.1639 -0.1813
53439W        W96351  34.096  17.231  31.517 -0.0851 -0.2424 -0.4121
53440W        W96352  33.721  17.536   2.114 -0.2508 -0.1097  0.0182
53441W        W96353  33.813  16.355   0.542  0.2582 -0.0603 -0.1530
53442W        W96354  33.765  14.889   0.740 -0.2035  0.1812 -0.0174
53443W        W96355  31.879  16.346   0.015 -0.0223  0.0101 -0.0865
53444W        W96356  32.734  15.679   2.272  0.1621 -0.0864  0.0621
53445W        W96357   0.221  15.241   0.110 -0.0511 -0.0504 -0.0426
53446W        W96358  34.073  17.288   1.469 -0.0449 -0.1454 -0.0793
53447W        W96359  34.387  16.167   2.313 -0.0725 -0.0863 -0.0109
53448W        W96360  32.733  15.225   0.051 -0.1653 -0.3200 -0.0575
53449W        W96361  34.177  15.902   1.464 -0.1840  0.0871  0.3324
53450W        W96362  34.093  17.506   0.970  0.0785  0.2503  0.1404
53451W        W96363   0.602  16.491  31.837 -0.0087 -0.1335 -0.0274
53452W        W96364  33.759  18.389   0.231 -0.2135  0.1365  0.0686
53453W        W96365  34.535  15.158   2.081  0.1112 -0.0892 -0.0303
53454W        W96366   0.281  15.201   1.434 -0.1060 -0.0037  0.0094
53455W        W96367   1.478  15.766   0.830 -0.0828  0.0280 -0.1884
53456W        W96368  34.080  17.168   2.053 -0.2421 -0.2652  0.0144
53457W        W96369   0.289  16.059   2.297 -0.3029 -0.2157  0.1571
53458W        W96370   0.517  16.168   3.394  0.3448  0.2629 -0.0384
53459W        W96371   0.916  17.169  31.926  0.0164  0.0870 -0.3138
53460W        W96372  32.610  16.457   1.273  0.1557  0.0002 -0.2507
53461W        W96373  34.612  17.205   1.492  0.2643 -0.0725 -0.1453
53462W        W96374   0.186  15.436   1.867 -0.0279 -0.1070 -0.0673
53463W        W96375  32.882  17.217   2.057 -0.1721  0.2741 -0.0295
53464W        W96376  33.660  17.589   0.008  0.4189  0.0611  0.0377
53465W        W96377  33.379  17.701   1.124  0.2987  0.1773  0.1252
53466W        W96378   0.193  17.095   1.109 -0.1634  0.2599 -0.0407
53467W        W96379  34.077  15.342   1.314 -0.1312 -0.1084  0.2204
53468W        W96380  32.075  15.148   2.047  0.1098 -0.1232 -0.0278
53469W        W96381  33.686  15.620   3.768 -0.2167  0.0150 -0.1656
53470W        W96382  32.232  14.915   0.017  0.2659  0.4948 -0.0732
53471W        W96383  34.245  18.004   1.038 -0.1358 -0.0416 -0.0935
53472W        W96384   1.242  17.191   1.421  0.0480  0.0877 -0.0628
53473W        W96385  33.730  16.608   2.003 -0.0545 -0.2248 -0.0229
53474W        W96386   1.176  17.130   0.927  0.1475 -0.1709 -0.5123
53475W        W96387  34.083  17.786   0.160  0.0388  0.0798 -0.1722
53476W        W96388  34.611  15.855   1.863 -0.1093 -0.2181 -0.0984
53477W        W96389  34.215  15.494   1.851 -0.1342 -0.3170 -0.1754
53478W        W96390  33.806  14.480   1.988 -0.0861  0.1277 -0.0515
53479W        W96391   0.002  15.957   0.913 -0.0756 -0.1063 -0.3019
53480W        W96392  33.180  14.702   0.439  0.0574  0.0240  0.1325
53481W        W96393  34.194  18.787  30.270 -0.0262  0.0203  0.5164
53482W        W96394  32.506  15.305   1.888  0.0969  0.0573  0.0817
53483W        W96395  32.504  17.395   4.000 -0.1505  0.2611 -0.1349
53484W        W96396  33.814  15.632  31.109  0.0856  0.2658 -0.0390
53485W        W96397  34.548  16.175  31.409 -0.1894 -0.0830  0.1104
53486W        W96398   0.167  19.175   1.798  0.0434  0.3597  0.3249
53487W        W96399   0.525  14.705   1.505  0.1751  0.1970 -0.0003
53488W        W96400  33.698  16.962   0.719  0.0178  0.3514  0.1684
53489W        W96401  34.507  18.186   2.050 -0.2135  0.1916 -0.2343
53490W        W96402  33.046  17.829   1.581  0.1672  0.1951  0.1487
53491W        W96403  33.450  18.397   0.635 -0.1093 -0.1278 -0.2583
53492W        W96404   0.465  16.574   2.442  0.0019  0.0248  0.4852
53493W        W96405  32.909  16.039   1.239  0.4996 -0.2015 -0.0859
53494W        W96406   0.698  17.558   2.583  0.0195 -0.0896  0.0110
53495W        W96407  33.090  14.947   3.068 -0.1902  0.2261  0.1612
53496W        W96408  34.449  15.140   1.593 -0.0045  0.3212 -0.0442
53497W        W96409  33.618  18.354   4.562  0.0036  0.0538  0.1754
53498W        W96410  33.771  16.869   2.503  0.0120  0.3054  0.1134
53499W        W96411  32.907  17.717   0.572 -0.0604 -0.1201 -0.2158
53500W        W96412  33.628  15.711  31.831  0.3867  0.0838 -0.3921
53501W        W96413  32.206  18.661   0.587 -0.2262 -0.1392  0.2017
53502W        W96414  32.143  18.378  30.959  0.6082 -0.2029  0.0779
53503W        W96415  33.669  18.931   2.338 -0.1318 -0.0662 -0.3027
53504W        W96416  34.444  16.468   1.247 -0.2293  0.1864 -0.2131
53505W        W96417  33.896  14.602  31.904 -0.0095 -0.0069  0.1225
53506W        W96418  32.063  16.764   3.141  0.0052 -0.0391  0.1045
53507W        W96419  32.547  17.274   3.535 -0.0621  0.0526 -0.2745
53508W        W96420  33.773  15.860   0.634 -0.1162 -0.1183 -0.2697
53509W        W96421   1.251  17.825   2.828 -0.0510 -0.1778  0.0316
53510W        W96422   0.086  18.828   0.094 -0.2352  0.0740 -0.2652
53511W        W96423   0.674  18.025   1.071  0.2875 -0.0459  0.1124
53512W        W96424   0.107  18.135   1.246 -0.0433  0.0391  0.0496
53513W        W96425  33.980  18.732   2.713  0.1393 -0.1344 -0.1932
53514W        W96426  31.068  14.824  31.072 -0.0607 -0.0739  0.0903
53515W        W96427  34.047  16.036   1.941  0.2272  0.1518  0.0062
53516W        W96428  34.628  15.942   0.392 -0.2384  0.1653  0.3107
53517W        W96429  33.724  15.469   2.569 -0.2230 -0.0010  0.4046
53518W        W96430   0.276  16.102  31.689  0.0906  0.0089  0.1246
53519W        W96431   0.507  16.362   0.616  0.2292  0.2981  0.2079
53520W        W96432  33.360  16.084   0.971  0.1954 -0.1360  0.3507
53521W        W96433  34.367  16.876   2.439  0.1872  0.0127 -0.2936
53522W        W96434  32.786  15.497   0.483  0.3106  0.2619  0.3541
53523W        W96435  33.954  18.462   0.786  0.1809 -0.0421  0.0391
53524W        W96436  34.107  14.805   1.184  0.2253 -0.2123  0.3399
53525W        W96437   1.463  14.842   0.824 -0.0822 -0.0896  0.0108
53526W        W96438  31.629  15.392   1.412 -0.2008  0.0605 -0.0622
53527W        W96439  34.246  18.053  31.373  0.0680  0.1135  0.0737
53528W        W96440  33.985  17.687  31.617  0.0972  0.1055 -0.2430
53529W        W96441  33.870  17.554   2.960 -0.0429  0.2196  0.2013
53530W        W96442  33.074  17.374   4.083  0.0323  0.0504 -0.0437
53531W        W96443  33.577  17.105  31.346  0.0074 -0.0273 -0.1098
53532W        W96444  33.210  16.923   2.520  0.0445  0.2340 -0.0047
53533W        W96445  34.461  18.495  31.834 -0.0673  0.2357  0.1153
53534W        W96446  33.600  18.984   0.230 -0.0324  0.1096 -0.0460
53535W        W96447  34.293  16.887   1.588 -0.0509 -0.0929 -0.0793
53536W        W96448   0.331  15.553   0.989  0.2715 -0.2386  0.0358
53537W        W96449  34.347  17.047   3.726  0.2086 -0.0309 -0.0538
53538W        W96450  34.046  15.843   0.080  0.1576 -0.0964 -0.2578
53539W        W96451  34.086  17.238   0.119 -0.0726  0.0161  0.1342
53540W        W96452  32.700  15.999   0.824 -0.0384 -0.2031 -0.0216
53541W        W96453   0.432  15.185   3.455 -0.1734  0.2961 -0.0486
53542W        W96454  33.920  16.124   2.924  0.3657 -0.1318  0.1588
53543W        W96455  33.528  17.076   2.094  0.2800  0.1375 -0.2229
53544W        W96456  32.879  14.506   1.098  0.1976  0.1623  0.2225
53545W        W96457  33.169  15.492   3.037  0.1339 -0.0653 -0.1637
53546W        W96458  33.144  15.721  31.932 -0.0623 -0.0397 -0.1569
53547W        W96459   0.595  15.890   0.532 -0.1258  0.1190 -0.5036
53548W        W96460  33.577  17.172   0.251 -0.0844  0.2674 -0.0875
53549W        W96461  34.603  15.582   1.393  0.0235  0.1616 -0.1011
53550W        W96462   0.058  15.501   3.699 -0.2164  0.1440 -0.0261
53551W        W96463  32.858  15.021  31.545 -0.0453 -0.1399 -0.0853
53552W        W96464  34.542  16.421   1.712 -0.3363 -0.0533 -0.4634
53553W        W96465  34.103  17.017   2.844 -0.0942  0.4623 -0.0086
53554W        W96466  33.589  18.402   2.672 -0.0246  0.1700 -0.0208
53555W        W96467  34.080  14.045   3.110 -0.3276  0.2849  0.1788
53556W        W96468  33.705  18.036   2.045 -0.1142  0.2744 -0.2458
53557W        W96469  33.106  15.188   4.315  0.3659  0.0123 -0.2461
53558W        W96470  34.473  16.164   4.295  0.2100 -0.1701  0.1169
53559W        W96471  33.927  14.317   0.861 -0.0366 -0.0769 -0.2395
53560W        W96472  34.265  16.596   2.072  0.1580 -0.0971  0.0087
53561W        W96473  33.738  15.789   1.162  0.1252  0.1431 -0.0651
53562W        W96474   1.779  17.307   1.170  0.0793 -0.2823  0.0774
53563W        W96475   0.525  15.513  31.759  0.0518  0.0003 -0.0184
53564W        W96476   0.934  18.280   1.393 -0.0280  0.0403  0.1567
53565W        W96477   0.019  14.468   3.683  0.5177  0.2269  0.0307
53566W        W96478  34.247  16.068   0.695  0.0806  0.0697 -0.3615
53567W        W96479   0.208  17.345   0.619 -0.0046  0.2391 -0.2175
53568W        W96480  34.605  14.990   2.587  0.1879  0.1346  0.0289
53569W        W96481  34.473  18.805   2.842  0.0259 -0.1156 -0.1993
53570W        W96482  34.377  17.717   5.193 -0.1184 -0.1018 -0.0164
53571W        W96483  33.774  15.576   5.136  0.0352  0.3546  0.2012
53572W        W96484  32.926  13.947   5.739  0.0710 -0.0773 -0.0878
53573W        W96485  33.207  13.184   6.775 -0.0009  0.0879 -0.2244
53574W        W96486  31.940  15.639   6.500  0.3348 -0.1348 -0.2232
53575W        W96487   0.493  17.520   6.450  0.2023  0.4265 -0.0246
53576W        W96488  34.246  15.510   3.785 -0.2429  0.0079  0.0135
53577W        W96489  33.735  13.288   6.757 -0.2388 -0.3555 -0.1878
53578W        W96490  32.979  15.456   4.764  0.4452  0.3412 -0.1825
53579W        W96491  32.567  15.886   5.837  0.2705  0.1690  0.1078
53580W        W96492  32.674  15.128   5.364 -0.1226  0.1228 -0.2586
53581W        W96493   0.048  14.996   6.345 -0.2873 -0.0793  0.0237
53582W        W96494   0.986  17.224   4.546 -0.3760 -0.2044 -0.0033
53583W        W96495  33.319  16.235   3.347  0.0791 -0.0994  0.1390
53584W        W96496  32.616  15.604   5.355 -0.0173  0.1257 -0.3773
53585W        W96497  34.381  16.469   6.490 -0.2938  0.0644 -0.2165
53586W        W96498  34.430  17.364   2.408 -0.1251 -0.1114 -0.2627
53587W        W96499   1.845  17.727   4.790  0.0155  0.2433  0.1839
53588W        W96500   0.710  16.231   5.090 -0.1774  0.0503 -0.3326
53589W        W96501  34.416  17.063   6.372 -0.0145  0.1055 -0.3674
53590W        W96502  33.549  18.256   3.803 -0.0131 -0.1906  0.0545
53591W        W96503   0.179  18.056   5.985  0.0190  0.0139  0.1307
53592W        W96504  32.746  16.620   4.334 -0.0983  0.0387 -0.1199
53593W        W96505   0.473  16.360   6.284 -0.0678  0.0712 -0.2364
53594W        W96506  34.612  17.929   3.085 -0.2677 -0.0683 -0.0752
53595W        W96507   0.661  17.565   5.336 -0.3505  0.1388 -0.2918
53596W        W96508   0.298  16.190   7.662 -0.0363 -0.1944 -0.0730
53597W        W96509  34.572  18.634   5.836 -0.2790 -0.1547  0.1406
53598W        W96510  33.401  17.716   4.348 -0.0863  0.0747  0.1538
53599W        W96511  34.462  15.262   4.209  0.0730 -0.1085  0.0279
53600W        W96512  33.937  13.576   4.755  0.0549  0.1385 -0.0056
53601W        W96513  34.044  18.686   5.118 -0.0317 -0.0388 -0.3988
53602W        W96514  33.229  14.034   6.564 -0.0902  0.1574 -0.2248
53603W        W96515  34.258  17.326   5.926  0.1127  0.1043 -0.0582
53604W        W96516  33.009  15.655   4.175  0.1845  0.0806  0.0302
53605W        W96517  34.261  16.032   3.826 -0.1832  0.1424 -0.1028
53606W        W96518  33.215  16.707   7.642 -0.0669 -0.3379 -0.1560
53607W        W96519  32.177  15.089   6.058  0.0680  0.0702  0.1922
53608W        W96520   0.179  15.383   4.576 -0.0541  0.0618 -0.0959
53609W        W96521  32.250  17.958   6.347 -0.2889  0.0721 -0.0571
53610W        W96522  33.785  17.631   5.907 -0.2029 -0.1784  0.0177
53611W        W96523   0.176  17.592   3.335 -0.1042  0.1380  0.0334
53612W        W96524   0.116  16.652   4.258  0.0523 -0.1892 -0.1589
53613W        W96525  33.974  16.811   6.254  0.3838 -0.0250 -0.2473
53614W        W96526  34.338  15.798   6.645 -0.0156  0.3971  0.1951
53615W        W96527   0.374  17.619   5.828 -0.2072 -0.1571 -0.0499
53616W        W96528  33.617  17.254   4.776  0.2573 -0.1197 -0.0190
53617W        W96529  32.984  17.356   6.016  0.2482 -0.0442  0.0399
53618W        W96530  33.645  16.590   4.263 -0.2899  0.2111 -0.0863
53619W        W96531  32.291  14.433   5.984 -0.0887 -0.0243  0.1658
53620W        W96532  34.310  16.990   5.516 -0.1732 -0.1649  0.1798
53621W        W96533  32.141  14.415   7.936 -0.5477 -0.3888  0.1092
53622W        W96534  33.315  15.876   4.595 -0.1608 -0.0548 -0.0763
53623W        W96535  31.675  15.890   5.910  0.0761 -0.1380 -0.1880
53624W        W96536  33.440  15.127   3.955 -0.0549  0.1955 -0.0097
53625W        W96537  33.063  15.326   7.067 -0.3075 -0.0267  0.2187
53626W        W96538  33.207  16.192   6.990  0.0501  0.2397  0.0534
53627W        W96539  32.508  14.380   2.629 -0.0581 -0.3222 -0.1328
53628W        W96540  33.062  15.721   6.281 -0.0551  0.0633 -0.1415
53629W        W96541  34.053  17.967   5.566  0.1083  0.0957 -0.2031
53630W        W96542  33.327  14.914   7.345 -0.2759 -0.1722 -0.2861
53631W        W96543  33.787  14.779   4.213 -0.0091 -0.2091 -0.1070
53632W        W96544  33.260  18.497   5.549 -0.3295 -0.2766 -0.0580
53633W        W96545  34.636  17.670   4.150 -0.1262  0.0683 -0.0704
53634W        W96546  33.064  14.616   4.138  0.0214 -0.1028 -0.0037
53635W        W96547  33.115  15.987   5.909  0.2437 -0.1184  0.1472
53636W        W96548  32.529  15.217   2.394  0.0920  0.0031  0.2810
53637W        W96549  33.576  18.455   6.221  0.0717 -0.3281 -0.0272
53638W        W96550  33.396  16.081   6.409  0.0315  0.2885  0.1029
53639W        W96551   0.475  17.257   3.582 -0.3373 -0.2118 -0.0113
53640W        W96552  32.971  15.861   7.293 -0.0440 -0.1274 -0.2592
53641W        W96553  32.861  16.194   3.123  0.0055 -0.0052  0.0028
53642W        W96554  33.188  16.954   6.296 -0.2984 -0.4053 -0.0653
53643W        W96555  34.534  17.675   5.704  0.1410  0.0360  0.1406
53644W        W96556  33.847  17.521   4.490 -0.1672 -0.1090 -0.1705
53645W        W96557  34.561  17.268   5.109 -0.2202  0.0700  0.2098
53646W        W96558  34.120  16.332   6.105  0.0974  0.0851  0.2336
53647W        W96559  34.177  13.518   6.938 -0.2221  0.0963  0.1939
53648W        W96560  34.046  16.488   3.505  0.1779 -0.0794 -0.0833
53649W        W96561  32.395  18.580   3.789 -0.0179  0.1680  0.1578
53650W        W96562  34.647  14.437   6.633 -0.2254  0.1272  0.0509
53651W        W96563  33.405  15.755   3.396  0.1099  0.2571 -0.1496
53652W        W96564   0.960  15.074   7.386 -0.0409 -0.1088 -0.3757
53653W        W96565  31.619  15.607   4.912  0.1934 -0.2166 -0.4861
53654W        W96566  32.227  15.978   6.804 -0.1854 -0.0472 -0.1581
53655W        W96567   0.940  15.463   6.425  0.1123 -0.3005 -0.0474
53656W        W96568  34.360  17.477   4.652 -0.0679 -0.1502  0.1754
53657W        W96569  33.211  16.863   3.986 -0.2881  0.2041 -0.3273
53658W        W96570  34.220  14.298   5.426  0.1012 -0.1423 -0.0136
53659W        W96571  33.780  16.984   5.437  0.2139 -0.1393 -0.0391
53660W        W96572  33.294  17.934   2.944  0.0484 -0.0755  0.1915
53661W        W96573  33.618  17.299   3.316  0.4023 -0.0409  0.1905
53662W        W96574  33.585  17.453   6.691 -0.1737 -0.1519 -0.1197
53663W        W96575   0.036  15.961   3.593  0.2500 -0.3652  0.1614
53664W        W96576  32.164  15.153   4.539 -0.0352 -0.1368 -0.1643
53665W        W96577  33.528  14.982   6.431 -0.3165  0.3359 -0.2065
53666W        W96578  33.823  14.964   5.398 -0.0803 -0.1444  0.2051
53667W        W96579  33.992  17.289   6.399 -0.1939  0.0994 -0.2199
53668W        W96580  33.757  15.895   6.986  0.1357 -0.3310  0.2093
53669W        W96581  31.806  15.207   3.126  0.2655  0.0410 -0.1161
53670W        W96582  33.259  13.529   5.267  0.1625  0.0132 -0.1880
53671W        W96583  33.537  17.176   4.287  0.2298  0.1048 -0.2620
53672W        W96584  34.034  16.051   5.468  0.1353 -0.1096  0.1366
53673W        W96585  33.225  16.778   4.562  0.4341 -0.0784 -0.3230
53674W        W96586  32.610  15.560   7.117 -0.5750  0.0381 -0.0893
53675W        W96587  33.970  15.919   6.343 -0.0448  0.0315 -0.0180
53676W        W96588  32.771  15.042   3.957 -0.0982  0.0732 -0.1666
53677W        W96589  33.517  15.631   4.220 -0.3528 -0.1655 -0.0221
53678W        W96590   0.488  15.468   6.141 -0.0182 -0.3228 -0.3155
53679W        W96591  34.001  17.256   6.893  0.1411 -0.1812  0.1895
53680W        W96592  33.598  16.495   3.783  0.1039 -0.1653  0.1722
53681W        W96593  32.927  16.897   5.794 -0.2539 -0.0455  0.3011
53682W        W96594  33.748  16.760   4.752  0.0240 -0.2238  0.1645
53683W        W96595  34.439  14.646   6.229 -0.1356  0.1544 -0.3242
53684W        W96596  34.324  17.752   6.222  0.0477  0.0788  0.1017
53685W        W96597  33.506  16.824   3.415 -0.3789 -0.0743  0.2106
53686W        W96598  34.404  17.218   7.104 -0.2460  0.2590  0.1974
53687W        W96599  34.458  15.881   5.741  0.0270  0.0065 -0.1042
53688W        W96600  33.439  14.362   7.506  0.2143 -0.1575 -0.1671
53689W        W96601  33.958  14.757   6.288 -0.2169 -0.0281 -0.1968
53690W        W96602  33.875  16.350   6.563 -0.1877  0.0535 -0.2861
53691W        W96603  34.135  15.704   4.233  0.2904  0.2429  0.1174
53692W        W96604  34.620  16.046   6.237  0.1653 -0.3146  0.1199
53693W        W96605  34.639  16.335   4.722 -0.1646 -0.0714  0.1828
53694W        W96606  33.416  16.496   6.705  0.2435 -0.0441  0.0293
53695W        W96607  34.460  16.539   3.810 -0.2274 -0.1690  0.0431
53696W        W96608  34.656  15.066   4.906  0.0135  0.2169 -0.0755
53697W        W96609  33.986  14.331   6.759 -0.0589  0.2470  0.0478
53698W        W96610  34.095  16.775   6.788  0.1446  0.0189 -0.2683
53699W        W96611  32.487  14.090   8.173 -0.0333  0.1956  0.2840
53700W        W96612  32.133  15.679   4.632  0.2852  0.0633  0.0961
53701W        W96613  32.991  14.410   3.723 -0.1921  0.0374  0.0259
53702W        W96614  34.055  18.341   3.549 -0.0296 -0.1194  0.0601
53703W        W96615  32.042  14.813   5.648 -0.2714  0.2202 -0.0907
53704W        W96616   0.084  17.851   6.476 -0.3068 -0.0409 -0.0496
53705W        W96617  34.592  15.508   2.796  0.2325 -0.1211 -0.0452
53706W        W96618  34.177  15.733   2.887  0.1047  0.3155  0.0296
53707W        W96619   1.129  16.797   3.782 -0.0315  0.1258  0.1688
53708W        W96620   0.854  14.978   4.018 -0.2489 -0.1810 -0.3147
53709W        W96621  33.565  17.393   3.823  0.0516 -0.1664  0.1945
53710W        W96622   0.569  18.088   5.636 -0.1310 -0.1811  0.1032
53711W        W96623  33.248  16.716   7.119  0.2601 -0.1373 -0.2250
53712W        W96624   1.332  16.732   4.982 -0.1662  0.1133 -0.0348
53713W        W96625  34.598  14.810   5.759 -0.4054  0.2291  0.3617
53714W        W96626  33.636  15.459   6.357 -0.2676 -0.0154  0.1280
53715W        W96627  34.044  17.434   5.500  0.0726 -0.1225  0.0245
53716W        W96628  32.527  14.645   7.667  0.0069  0.0280  0.0428
53717W        W96629  34.664  15.797   4.625 -0.0335 -0.1346 -0.4802
53718W        W96630  33.780  17.685   7.128  0.1399  0.1209  0.1576
53719W        W96631  32.520  14.592   7.201  0.0152  0.0253  0.0504
53720W        W96632  33.674  18.847   5.557  0.0149 -0.2230 -0.1593
53721W        W96633  34.608  15.006   3.066  0.0029  0.1596 -0.0637
53722W        W96634  34.287  18.240   5.098  0.1967  0.1432  0.2784
53723W        W96635  31.635  17.278   4.252 -0.2526 -0.0970  0.1025
53724W        W96636  34.367  16.372   5.622 -0.3332  0.0121 -0.0285
53725W        W96637  33.293  15.388   5.962  0.1411 -0.1130  0.1028
53726W        W96638   0.465  15.816   3.760  0.2511  0.0031 -0.1758
53727W        W96639   0.078  16.716   6.224 -0.0926  0.0272 -0.0422
53728W        W96640  31.289  16.997   7.046 -0.3236 -0.0633 -0.0813
53729W        W96641  33.464  14.577   3.836  0.0725  0.0484  0.0042
53730W        W96642   0.069  16.249   6.657  0.1400 -0.1311  0.0632
53731W        W96643  33.144  17.679   3.362 -0.0374  0.1194  0.0714
53732W        W96644  34.193  17.859   4.310  0.0711  0.0894  0.2930
53733W        W96645  34.132  19.027   5.560  0.3538 -0.2024  0.2291
53734W        W96646   0.976  17.490   6.684  0.0314 -0.1212 -0.3625
53735W        W96647  33.383  15.064   2.559  0.1624 -0.1839 -0.0864
53736W        W96648  32.441  15.352   4.885  0.0176  0.4148 -0.1583
53737W        W96649  34.196  16.646   4.659  0.1407  0.1681  0.0435
53738W        W96650  32.628  15.957   6.329 -0.0963 -0.3670 -0.0533
53739W        W96651  34.683  15.639   2.297 -0.1754  0.0672  0.0387
53740W        W96652  33.547  14.427   4.824 -0.1449 -0.1886 -0.3412
53741W        W96653  34.044  15.212   6.482 -0.0660 -0.1851 -0.1017
53742W        W96654  33.119  15.764   6.790 -0.2953  0.2806  0.0492
53743W        W96655  32.997  14.267   4.465 -0.2538 -0.2695 -0.0096
53744W        W96656   0.110  17.582   2.202 -0.0793 -0.1624 -0.3516
53745W        W96657  32.788  15.423   5.784  0.0399  0.1553 -0.3372
53746W        W96658   1.731  16.592   4.430  0.1279  0.2388 -0.1778
53747W        W96659  33.617  15.092   3.506  0.0972 -0.3633  0.3907
53748W        W96660  33.433  16.304   4.810  0.1248 -0.0232 -0.2037
53749W        W96661  33.287  18.890   1.945 -0.1282  0.0445 -0.1969
53750W        W96662   1.483  17.274   6.867 -0.0270  0.0379 -0.1667
53751W        W96663   0.066  17.397   6.207  0.0285  0.1876 -0.1061
53752W        W96664  33.788  15.037   2.942  0.0591  0.0272 -0.1347
53753W        W96665   0.184  17.643   4.888 -0.0267 -0.2545  0.2417
53754W        W96666   0.279  16.132   4.416 -0.2461  0.0213 -0.0070
53755W        W96667  34.065  18.176   4.651 -0.0896  0.0669  0.0298
53756W        W96668  33.836  15.778   4.675 -0.7263 -0.0669  0.0177
53757W        W96669  33.759  14.927   4.879  0.2967  0.0202  0.2690
53758W        W96670  34.035  17.173   5.005 -0.0631 -0.0286 -0.0695
53759W        W96671  32.003  14.488   4.250 -0.0401 -0.2866  0.2144
53760W        W96672  32.419  17.142   3.005  0.1011  0.1749  0.0309
53761W        W96673   0.189  15.845   5.431 -0.2205 -0.1299  0.2514
53762W        W96674  34.551  14.427   8.582 -0.0813  0.3158 -0.3637
53763W        W96675  33.114  14.849   6.126  0.1083  0.2124  0.0750
53764W        W96676  34.360  16.094   5.039  0.2010  0.0967  0.1160
53765W        W96677  33.016  14.472   4.899 -0.0889 -0.1341  0.2253
53766W        W96678  33.685  15.582   5.632  0.2027  0.5029  0.1233
53767W        W96679  31.664  14.955   5.389 -0.0416  0.2061 -0.4344
53768W        W96680  34.306  14.753   4.094 -0.0537 -0.0443  0.1276
53769W        W96681  32.996  15.954   3.558 -0.3092  0.0076 -0.0889
53770W        W96682   1.597  15.799   6.085 -0.1913  0.0505  0.1829
53771W        W96683  33.131  14.542   7.107  0.1364 -0.0999  0.0328
53772W        W96684  32.265  13.204   5.203 -0.0658  0.0572  0.0676
53773W        W96685   0.409  15.333   5.665 -0.0858  0.2266 -0.0706
53774W        W96686   0.111  16.522   5.732  0.3131  0.4219 -0.0105
53775W        W96687   0.559  17.971   6.711 -0.2597  0.0656 -0.1310
53776W        W96688  33.804  14.015   4.975  0.0974 -0.0094 -0.4198
53777W        W96689  34.548  16.938   4.750  0.0784  0.0887  0.0853
53778W        W96690  34.188  15.387   5.634 -0.2170  0.1953  0.1710
53779W        W96691  34.001  15.527   6.036 -0.0465  0.1563  0.1438
53780W        W96692  32.892  13.954   5.087  0.1626  0.0742  0.0620
53781W        W96693  32.040  16.196   5.736 -0.0049 -0.1265  0.1546
53782W        W96694   0.795  17.199   3.977 -0.0308  0.0525 -0.1851
53783W        W96695   0.268  15.965   5.887 -0.2548 -0.1751  0.2416
53784W        W96696  34.014  16.944   3.319  0.0369 -0.3524  0.0735
53785W        W96697   0.628  17.079   6.706  0.2996 -0.0029 -0.0690
53786W        W96698  33.098  15.035   5.630 -0.0022 -0.2228  0.2773
53787W        W96699   0.371  16.647   4.789 -0.4220  0.0543 -0.0523
53788W        W96700   0.342  15.968   4.921  0.2297 -0.0049  0.0282
53789W        W96701  34.187  15.210   5.110  0.1667  0.1573 -0.0158
53790W        W96702   0.600  17.968   6.214  0.1965 -0.0038  0.1358
53791W        W96703  32.011  19.621   9.905  0.0606  0.0735 -0.1259
53792W        W96704  33.113  16.179   9.032 -0.0279 -0.1040 -0.2452
53793W        W96705  33.166  15.217   9.125  0.1202 -0.0381  0.2174
53794W        W96706   0.192  15.283   9.557 -0.0050  0.1252 -0.0283
53795W        W96707  32.739  14.436   6.774  0.1443 -0.3727  0.1039
53796W        W96708  33.026  15.176   9.662  0.0877 -0.0149  0.0803
53797W        W96709  32.903  15.403   7.547  0.1365 -0.2983 -0.1395
53798W        W96710   1.068  14.778   9.387  0.0112  0.2220  0.4228
53799W        W96711  34.268  14.758   6.719  0.1653 -0.0903 -0.0051
53800W        W96712   0.257  16.055   9.805 -0.2136 -0.1603 -0.0352
53801W        W96713   0.662  17.490   8.021 -0.1400  0.2054 -0.2608
53802W        W96714  33.217  17.188   6.826 -0.4253 -0.0095  0.0377
53803W        W96715  32.791  15.525   9.373  0.1526  0.2205 -0.0580
53804W        W96716  34.240  17.264   9.853  0.0109 -0.1312  0.0916
53805W        W96717   0.117  18.152   8.976  0.0024 -0.0850 -0.2526
53806W        W96718   0.074  16.971   8.217 -0.1351  0.0231  0.0768
53807W        W96719  33.689  17.273   9.333  0.0160 -0.0217 -0.1517
53808W        W96720   1.046  15.547   9.747 -0.1284 -0.2030 -0.1982
53809W        W96721  33.203  15.854   7.746 -0.3401  0.0247 -0.1371
53810W        W96722  32.950  17.708   7.841  0.3588  0.1240 -0.1358
53811W        W96723   0.254  17.069   7.731  0.1237  0.1106  0.1562
53812W        W96724   0.397  17.559   9.771 -0.0637  0.1525  0.1913
53813W        W96725  33.997  17.242   8.551 -0.2984 -0.0399 -0.1768
53814W        W96726  33.870  17.958   9.313  0.3445 -0.2000  0.3773
53815W        W96727  34.233  16.287   6.900  0.0633  0.0947 -0.0351
53816W        W96728  34.373  14.759   8.158  0.0146  0.0120 -0.0136
53817W        W96729  34.608  18.704   7.439 -0.0957  0.3789 -0.2194
53818W        W96730  33.555  15.915  10.230 -0.2239  0.0086  0.0757
53819W        W96731   1.079  17.534   9.898 -0.0338 -0.0980  0.0487
53820W        W96732  34.496  15.531  10.451 -0.1923  0.2401  0.0355
53821W        W96733  33.045  16.924   9.221 -0.2458 -0.2686 -0.0083
53822W        W96734  33.503  14.326   6.865 -0.0117  0.0432 -0.1413
53823W        W96735  32.567  18.030  10.601 -0.0853  0.0309 -0.3141
53824W        W96736  32.921  16.288   7.577 -0.0633  0.1934 -0.1256
53825W        W96737  33.493  15.649   7.293 -0.1382 -0.0691 -0.2960
53826W        W96738  33.142  17.974   9.830  0.0547  0.0100 -0.1325
53827W        W96739  33.591  18.433   6.751  0.1951  0.1991  0.0644
53828W        W96740  33.100  17.955   9.319 -0.0214  0.0765  0.0339
53829W        W96741  33.714  16.621   7.954 -0.1914 -0.0015 -0.0032
53830W        W96742  33.395  15.940  10.777 -0.0151  0.0804 -0.0263
53831W        W96743   1.550  15.603  10.071 -0.2141  0.0552 -0.0158
53832W        W96744  34.313  15.444   7.818 -0.0913  0.1271  0.1626
53833W        W96745  32.747  16.586   9.028 -0.1829  0.0411 -0.1034
53834W        W96746  33.202  15.947   8.383  0.2775 -0.0785  0.5643
53835W        W96747  32.999  14.110   9.103 -0.1937 -0.1191  0.1060
53836W        W96748  32.385  13.959   8.886  0.1285  0.0887 -0.0552
53837W        W96749  33.701  16.391   7.107  0.1751 -0.0565 -0.3067
53838W        W96750  32.902  16.443   8.554 -0.2092  0.1887  0.0304
53839W        W96751  31.613  15.288  10.616 -0.2084  0.4528  0.3998
53840W        W96752  32.348  15.802   9.166  0.1479  0.0400  0.0905
53841W        W96753  33.727  18.804   8.557  0.0723  0.1117 -0.1217
53842W        W96754  34.542  16.401   9.803 -0.1733  0.0172 -0.0287
53843W        W96755  33.545  14.805   7.780  0.0892  0.2947  0.0437
53844W        W96756  32.448  14.722   6.416 -0.1619 -0.1263  0.2387
53845W        W96757  33.809  17.647   7.965 -0.3308 -0.1168  0.1512
53846W        W96758  31.925  15.955   9.437 -0.0785  0.0512  0.2214
53847W        W96759  34.509  16.918   8.794 -0.2853 -0.2113 -0.2534
53848W        W96760  33.345  15.286   7.753 -0.1526 -0.1130  0.0599
53849W        W96761  34.616  16.516   8.433 -0.0583  0.4616  0.2037
53850W        W96762  34.580  17.121   9.300 -0.1233  0.1863 -0.2401
53851W        W96763  33.246  18.462   9.941  0.1171  0.1385 -0.3367
53852W        W96764  33.074  14.720  10.583 -0.2121 -0.0146 -0.1161
53853W        W96765  34.295  15.113   6.028  0.0918 -0.0235  0.1558
53854W        W96766  33.895  18.144   7.052 -0.0679  0.1424 -0.0595
53855W        W96767  33.150  16.443   5.586  0.0715  0.2851  0.3617
53856W        W96768  34.118  15.729  10.226  0.0988 -0.2544 -0.1536
53857W        W96769   0.042  17.185   9.740  0.3317 -0.1242 -0.1649
53858W        W96770  34.063  18.430   8.742  0.1055 -0.1081  0.1857
53859W        W96771  34.198  15.926   7.783 -0.0789 -0.0190 -0.3882
53860W        W96772  34.032  16.192   9.920  0.1494  0.2000 -0.2876
53861W        W96773  34.538  17.211  10.293 -0.0074 -0.3985 -0.2765
53862W        W96774  33.923  16.275   7.523  0.1152 -0.1869  0.1236
53863W        W96775  32.443  18.193   8.208  0.1582  0.0286 -0.1952
53864W        W96776  33.138  20.080   9.803 -0.0706 -0.2443 -0.0110
53865W        W96777  34.156  15.035   7.184 -0.0387  0.2305  0.1637
53866W        W96778  32.301  14.555   8.372 -0.0342 -0.1496  0.0056
53867W        W96779  33.960  15.094   8.577  0.1608 -0.1829  0.1846
53868W        W96780  34.509  14.964   8.708  0.1974  0.2442  0.0164
53869W        W96781  34.600  17.405   8.495 -0.2138  0.0425  0.1776
53870W        W96782  32.433  16.019   7.262 -0.1152  0.1870 -0.0282
53871W        W96783  33.198  15.857   9.513 -0.1131 -0.1934 -0.1514
53872W        W96784  33.430  17.046   8.222  0.0782  0.1423  0.3194
53873W        W96785  32.774  15.254   8.770  0.0574  0.5363 -0.2742
53874W        W96786   0.396  16.741   8.525  0.4032  0.1365 -0.0939
53875W        W96787   0.056  15.711   9.446  0.0906 -0.0920 -0.2410
53876W        W96788   0.009  15.623   8.095  0.6036  0.1164 -0.2921
53877W        W96789  34.337  15.291   8.373 -0.2680 -0.0806 -0.3476
53878W        W96790  33.615  16.329   8.918 -0.1684  0.0252  0.0716
53879W        W96791  32.604  17.091   8.242  0.0454 -0.4861 -0.1351
53880W        W96792  33.234  16.640   8.864 -0.0329 -0.0496 -0.0044
53881W        W96793  34.293  17.447   8.011  0.0517 -0.1431 -0.0578
53882W        W96794  32.478  13.673   9.764  0.0272  0.0044 -0.2545
53883W        W96795  33.147  17.434   9.376 -0.2476  0.0562 -0.1295
53884W        W96796  33.517  17.244   7.725 -0.2647 -0.0404 -0.1660
53885W        W96797   0.470  17.242  10.168  0.1239  0.0063 -0.3591
53886W        W96798  34.313  15.438   9.607 -0.1135 -0.0709 -0.4131
53887W        W96799  33.346  12.723  10.143  0.1647 -0.1516 -0.0705
53888W        W96800  33.788  15.251   7.492  0.0505 -0.0271  0.2084
53889W        W96801   1.974  15.752   9.287  0.0620 -0.4036  0.0323
53890W        W96802   0.601  16.917   8.047  0.1702  0.3429 -0.0807
53891W        W96803  33.123  16.763  10.665  0.0346  0.1562  0.0185
53892W        W96804  34.526  17.804   7.674  0.3708 -0.2151  0.0139
53893W        W96805  33.661  16.887   8.689 -0.1170 -0.0615 -0.0592
53894W        W96806  32.627  14.995   9.264  0.0708 -0.0021 -0.0009
53895W        W96807  34.430  14.689   7.622 -0.3003 -0.0000  0.2564
53896W        W96808   0.263  17.604   7.586 -0.2391 -0.0693 -0.3749
53897W        W96809  30.934  14.916   7.776 -0.3027 -0.0661 -0.2083
53898W        W96810  32.134  16.971   7.321  0.0243  0.1831 -0.0186
53899W        W96811  34.170  15.844   7.270 -0.1332 -0.0774 -0.2615
53900W        W96812  33.224  16.468   9.421 -0.1944  0.2214  0.2092
53901W        W96813  34.572  13.980   8.284  0.1079 -0.0522 -0.1124
53902W        W96814  34.451  17.443   8.978 -0.5328 -0.1177 -0.0055
53903W        W96815   0.639  16.473   9.781 -0.0754  0.0194 -0.0323
53904W        W96816  33.898  18.004   8.842  0.0796  0.1674 -0.2393
53905W        W96817  34.503  16.572   9.147  0.1870  0.2596 -0.1163
53906W        W96818  33.878  16.514   8.399 -0.3016  0.1288 -0.0333
53907W        W96819  33.621  16.076   8.010  0.1162  0.1873  0.1225
53908W        W96820  33.695  15.291   8.996  0.2403 -0.4275 -0.2456
53909W        W96821  32.135  19.507  10.445 -0.2966  0.2105  0.1192
53910W        W96822  33.328  17.523   8.075  0.2584 -0.1093  0.2041
53911W        W96823  33.537  15.272   6.858  0.1306  0.0405  0.2483
53912W        W96824  33.515  18.870   9.447 -0.0992 -0.0448  0.0679
53913W        W96825  33.626  16.956   6.619 -0.1654 -0.0723 -0.0577
53914W        W96826  33.296  18.417   9.326 -0.1703 -0.0998  0.0666
53915W        W96827   0.218  15.870   8.875  0.1354 -0.1452 -0.0658
53916W        W96828  33.241  13.710   8.475  0.0566 -0.1334  0.0453
53917W        W96829  33.715  15.639   7.746 -0.1294 -0.0383 -0.1957
53918W        W96830  34.536  15.994  10.057 -0.1447  0.3653 -0.1242
53919W        W96831   0.062  16.880   7.317 -0.1791 -0.6445 -0.1678
53920W        W96832  34.249  18.849   8.325 -0.1545  0.0389 -0.0269
53921W        W96833   0.514  18.358   9.221  0.2523 -0.2885  0.2738
53922W        W96834  33.425  16.791  10.238 -0.1387  0.2365 -0.0869
53923W        W96835  33.025  14.596   8.931  0.1486 -0.0875  0.0036
53924W        W96836   0.988  14.817   8.905  0.2412  0.0744  0.3023
53925W        W96837  33.379  16.473   8.401  0.0365  0.2979 -0.0208
53926W        W96838   2.139  18.982   9.262 -0.2661 -0.2149 -0.0158
53927W        W96839  33.432  16.259   7.566  0.0979  0.1098  0.1096
53928W        W96840  34.023  15.716   8.237  0.3426 -0.0824 -0.1284
53929W        W96841  31.598  15.567   9.392  0.2586 -0.0610  0.2170
53930W        W96842  33.725  18.502   9.131 -0.3800 -0.0769  0.1770
53931W        W96843  32.773  13.344   9.427 -0.1475 -0.1693 -0.1615
53932W        W96844  33.606  17.220   7.192 -0.0094 -0.0517 -0.1758
53933W        W96845  33.281  15.500   9.996 -0.2546 -0.7043 -0.1451
53934W        W96846   0.503  14.946   7.702 -0.0157  0.2330  0.0983
53935W        W96847  34.304  16.855   8.302  0.0548  0.0603 -0.0379
53936W        W96848  33.491  18.358   8.702 -0.1035  0.3299 -0.4673
53937W        W96849   0.119  17.452   8.059  0.0146  0.3248 -0.1177
53938W        W96850   0.478  16.198  10.312 -0.0204 -0.0959  0.0105
53939W        W96851  33.377  15.136   8.238  0.0583  0.0184  0.2221
53940W        W96852  34.134  16.515   8.801 -0.0239  0.0376 -0.2187
53941W        W96853  34.224  17.542   9.438 -0.3204  0.2445 -0.2085
53942W        W96854  33.801  14.699   7.390 -0.0204  0.1384 -0.6212
53943W        W96855  33.453  14.892   9.276  0.0440  0.0646  0.3834
53944W        W96856  33.451  16.224   9.841 -0.1832 -0.2085 -0.0566
53945W        W96857  32.792  14.981   7.386  0.1030  0.0424  0.0464
53946W        W96858  32.323  16.386   8.462 -0.0844 -0.1268  0.1661
53947W        W96859  34.365  17.918   9.158  0.1413 -0.0056 -0.1667
53948W        W96860  33.187  16.338  10.332 -0.1771 -0.2725  0.1550
53949W        W96861  33.879  15.136   9.451 -0.1438 -0.1363  0.0824
53950W        W96862  32.377  14.238   9.691 -0.1941  0.2130  0.1493
53951W        W96863  31.635  14.143   9.378  0.1241  0.2163 -0.1281
53952W        W96864  33.213  14.198   7.889 -0.1888 -0.0014 -0.3018
53953W        W96865  32.429  16.450   6.385 -0.0411  0.1054 -0.0181
53954W        W96866  33.130  15.465   8.513 -0.0149 -0.1938 -0.0590
53955W        W96867  34.664  15.233   9.080  0.3464 -0.0941  0.0100
53956W        W96868  32.064  15.157  10.167  0.2010  0.0390 -0.1487
53957W        W96869  33.969  14.386   7.745  0.0885  0.2105  0.0920
53958W        W96870  33.734  16.775   9.820 -0.0860  0.1031 -0.0947
53959W        W96871  33.075  16.275   8.015 -0.0966  0.0989 -0.0500
53960W        W96872  32.664  15.821   7.744 -0.2143  0.3012  0.0427
53961W        W96873   0.241  18.781   9.261 -0.1511  0.1043  0.1181
53962W        W96874  32.499  15.657   8.605  0.0192  0.0902  0.1614
53963W        W96875  33.369  17.318   8.939  0.1304  0.3980 -0.1639
53964W        W96876  34.559  17.701   9.864  0.0456  0.0177  0.0103
53965W        W96877  34.119  15.161   9.973 -0.0720  0.0007  0.0433
53966W        W96878  34.234  16.790   9.608  0.2561  0.3727 -0.0255
53967W        W96879  32.974  20.668   1.350 -0.0773  0.0086 -0.0539
53968W        W96880  34.508  19.322   1.402 -0.4477 -0.2363 -0.0809
53969W        W96881  32.703  19.006   1.657 -0.0908 -0.1043 -0.0097
53970W        W96882  32.057  18.237   4.078  0.1100  0.0799  0.0647
53971W        W96883   1.043  18.861   4.263  0.0948 -0.2159  0.3285
53972W        W96884   0.312  21.670   1.720 -0.3359 -0.0630 -0.3139
53973W        W96885  33.318  19.811   0.936  0.0188  0.2540  0.0861
53974W        W96886  32.077  18.633   1.184 -0.1266  0.1802 -0.0804
53975W        W96887   0.425  19.629   1.931  0.1378  0.0682  0.1712
53976W        W96888  33.822  19.214   2.808  0.2474 -0.2396  0.0515
53977W        W96889  34.270  19.503   0.963  0.0807  0.1743  0.0935
53978W        W96890  34.408  18.279   4.342  0.2029 -0.0347  0.4014
53979W        W96891  33.757  20.937   2.334  0.0147 -0.0106  0.0421
53980W        W96892  32.997  19.259   0.320 -0.0022  0.1746  0.1350
53981W        W96893  34.244  19.905   1.827 -0.0555 -0.2815  0.0832
53982W        W96894  34.430  20.158   2.637 -0.0306 -0.0035  0.0376
53983W        W96895  33.407  20.424   1.443 -0.3964 -0.0086 -0.0722
53984W        W96896   1.761  22.724   0.907  0.3755  0.2955 -0.1291
53985W        W96897  33.271  21.266   0.703  0.1340 -0.0089 -0.0704
53986W        W96898  32.644  21.758   1.924 -0.1397  0.1286  0.2412
53987W        W96899  33.787  22.075   1.778  0.2844 -0.1775 -0.0437
53988W        W96900  33.047  22.330   2.285 -0.0987  0.3148 -0.1723
53989W        W96901  32.508  21.871   0.946  0.1191 -0.0912  0.3064
53990W        W96902  33.410  21.310   3.506  0.0379  0.0440 -0.1194
53991W        W96903  33.541  21.412   1.138  0.2348 -0.1349 -0.0667
53992W        W96904   0.195  21.238   0.564 -0.2466 -0.3009  0.2712
53993W        W96905  34.103  20.505   4.135 -0.0123 -0.1373 -0.1130
53994W        W96906  33.078  20.288   2.700 -0.2192 -0.0852 -0.0116
53995W        W96907  33.165  23.054   1.196 -0.2256 -0.0500  0.0248
53996W        W96908   0.358  18.125  30.428 -0.2305  0.1353 -0.1210
53997W        W96909  33.779  19.446   0.854 -0.0467 -0.0976 -0.0154
53998W        W96910  31.778  22.916   1.554  0.1777 -0.0383  0.0425
53999W        W96911  33.651  18.690   1.137 -0.0000 -0.0337 -0.3757
54000W        W96912  33.528  21.952   2.685 -0.0584 -0.0157  0.3387
54001W        W96913   0.019  19.741   1.145  0.1943  0.2651  0.1235
54002W        W96914  32.193  21.018  31.530 -0.2317 -0.0814  0.2844
54003W        W96915  33.466  20.171   1.859  0.0837  0.0720  0.1308
54004W        W96916  33.745  20.968   2.833  0.1568 -0.0770  0.6495
54005W        W96917  34.602  18.172  30.103  0.0923 -0.0320 -0.1040
54006W        W96918  30.939  20.273   1.704 -0.2219 -0.0600 -0.0250
54007W        W96919  34.172  20.570   2.689 -0.0294 -0.2112 -0.1863
54008W        W96920   0.405  20.571   0.591  0.2410 -0.0210 -0.3458
54009W        W96921  32.699  20.556   0.513 -0.1480 -0.0171  0.0237
54010W        W96922  34.208  20.733   2.246 -0.2796  0.0650  0.1169
54011W        W96923  33.197  18.757   4.414  0.1393 -0.0785 -0.2432
54012W        W96924  34.189  21.658   2.714  0.2480 -0.1128 -0.2487
54013W        W96925  32.370  22.382  31.683  0.6247  0.1786 -0.1669
54014W        W96926  33.256  21.062   2.077  0.1787 -0.2013  0.0596
54015W        W96927  33.831  19.809   2.090  0.0558  0.0652 -0.1466
54016W        W96928  34.588  18.710   1.899  0.0335  0.0851  0.0725
54017W        W96929   0.029  21.806   3.366 -0.2800 -0.1069 -0.0271
54018W        W96930  31.790  18.719   3.618 -0.0933 -0.2320 -0.1717
54019W        W96931  32.262  21.435   0.584 -0.3075  0.1273  0.1907
54020W        W96932  33.535  18.823   2.970  0.0151  0.0416  0.0969
54021W        W96933  33.058  18.202   3.588  0.1572 -0.1239 -0.1179
54022W        W96934  34.096  18.279   2.945  0.1575 -0.4341 -0.2288
54023W        W96935  34.165  16.821  31.872 -0.0068  0.2097 -0.4018
54024W        W96936   0.526  20.059   3.495 -0.1022  0.0471  0.3743
54025W        W96937  32.273  20.919   2.303 -0.0268 -0.3167 -0.1829
54026W        W96938  33.269  18.750   2.527  0.1666 -0.1588 -0.1399
54027W        W96939   0.182  19.565   0.148 -0.1326  0.1275  0.0222
54028W        W96940  32.779  21.486   2.441  0.1796  0.2843 -0.2384
54029W        W96941   0.243  21.604   0.898  0.1301  0.0236 -0.3339
54030W        W96942  32.666  18.245  31.777  0.0894 -0.0708  0.1923
54031W        W96943  32.827  20.189   2.054 -0.2885 -0.0370  0.1366
54032W        W96944  32.746  18.355  31.261  0.0552 -0.1200 -0.0791
54033W        W96945  33.880  22.167  31.731 -0.0350  0.0648 -0.1013
54034W        W96946  33.513  19.971   2.483 -0.2058 -0.0836 -0.3101
54035W        W96947   0.187  22.638   1.631 -0.2351 -0.2383 -0.2944
54036W        W96948  32.786  19.019   3.635 -0.1992  0.0691  0.0462
54037W        W96949  33.006  20.060   1.564  0.2143 -0.1086 -0.0579
54038W        W96950  34.200  21.144   2.738  0.0190  0.1998  0.2146
54039W        W96951  34.001  20.497   3.638 -0.2302 -0.0898  0.2447
54040W        W96952  34.572  21.481   1.994 -0.0530 -0.0546  0.1496
54041W        W96953   0.508  21.590   2.969 -0.0175  0.4027  0.0999
54042W        W96954  32.159  20.018   3.176  0.1621  0.4038  0.0707
54043W        W96955   0.409  18.032   2.140 -0.0986 -0.0051 -0.1864
54044W        W96956  32.498  19.385  30.310  0.2129 -0.0953 -0.0029
54045W        W96957  31.963  22.800  31.732 -0.0174  0.0332  0.1024
54046W        W96958  33.628  18.472   3.339  0.0469  0.2073 -0.0754
54047W        W96959  33.132  18.783   0.392 -0.0576  0.0047 -0.1663
54048W        W96960  34.009  19.661   2.603  0.1798  0.1986 -0.2553
54049W        W96961  32.573  20.290   2.602 -0.2231 -0.2116 -0.1186
54050W        W96962  32.622  21.997   2.519  0.1446  0.3736 -0.0383
54051W        W96963   0.382  19.727   5.225 -0.6236  0.0758 -0.0342
54052W        W96964  34.376  21.705   0.864 -0.0742 -0.1984 -0.1756
54053W        W96965  33.924  21.739   0.023  0.0836  0.1053 -0.0091
54054W        W96966  34.285  19.242   2.515  0.0255  0.3629 -0.1024
54055W        W96967  34.689  22.168   1.060 -0.1552  0.1697 -0.3065
54056W        W96968  32.732  21.059   0.426 -0.0746  0.1174  0.0537
54057W        W96969  32.584  22.712   0.740 -0.1130 -0.1113  0.1927
54058W        W96970  31.709  20.622   1.597 -0.2665 -0.1504 -0.0084
54059W        W96971  34.043  20.109  31.556 -0.2393  0.0012  0.0804
54060W        W96972  32.605  20.313   1.628  0.2844 -0.0022  0.0336
54061W        W96973  34.149  17.895   3.298  0.0041  0.1700 -0.1318
54062W        W96974   0.622  19.363   3.538  0.2863  0.0307  0.1142
54063W        W96975  32.857  21.279   1.601 -0.2865 -0.0304  0.3039
54064W        W96976  33.569  21.054   3.955  0.1241  0.0280 -0.0043
54065W        W96977  32.952  19.567   0.822  0.0702 -0.1178 -0.2545
54066W        W96978  34.693  19.780   1.708  0.1451 -0.0428 -0.2834
54067W        W96979  32.457  21.339   1.120  0.1967 -0.3808 -0.1440
54068W        W96980  33.155  20.951   0.229  0.2477 -0.0567  0.1132
54069W        W96981  33.033  21.410   0.275 -0.0863  0.0051  0.1970
54070W        W96982  33.793  19.252   3.263  0.1309  0.2309 -0.0183
54071W        W96983  33.591  19.472   2.474  0.2035  0.3137 -0.1506
54072W        W96984  34.370  20.687   0.786 -0.0144  0.1067 -0.5068
54073W        W96985  34.255  18.781   2.261  0.4063 -0.1158  0.1490
54074W        W96986   0.093  19.931   3.831 -0.1453  0.2181 -0.1279
54075W        W96987  34.379  20.153   3.821 -0.3398 -0.0138  0.1910
54076W        W96988  33.523  19.820   0.012 -0.1808  0.1053  0.0580
54077W        W96989  33.467  19.796   1.461 -0.2188 -0.0893 -0.1721
54078W        W96990  34.583  21.387   2.482  0.0057 -0.1099 -0.0567
54079W        W96991   0.351  21.581   2.283  0.1091  0.1140 -0.0511
54080W        W96992  33.784  21.089   1.455  0.2219 -0.2842 -0.2116
54081W        W96993  33.837  20.943   3.477 -0.0105  0.0555 -0.0401
54082W        W96994  33.289  20.300   0.149 -0.0282  0.0184  0.0039
54083W        W96995  34.638  18.363   3.703  0.1224 -0.2921  0.1777
54084W        W96996  33.248  18.778   3.406  0.0319 -0.2194  0.1164
54085W        W96997  33.661  20.289   4.271  0.2615  0.0078 -0.1654
54086W        W96998  32.363  19.552   0.871  0.1586 -0.3179 -0.1574
54087W        W96999   0.021  20.092   3.122  0.3158  0.1928  0.1154
54088W        W97000   0.952  20.610   0.580  0.2123  0.2784  0.4686
54089W        W97001  34.459  20.303   2.124  0.1461 -0.0009 -0.0255
54090W        W97002   0.134  19.417   2.256 -0.3568  0.0670  0.0481
54091W        W97003  34.658  20.530   2.890 -0.0536 -0.2769  0.2301
54092W        W97004  34.145  17.782   2.250  0.2405  0.0579  0.1285
54093W        W97005  33.229  19.734   3.296 -0.1487  0.0823  0.0826
54094W        W97006  33.283  19.137   3.805 -0.1121  0.2374 -0.1274
54095W        W97007  32.477  20.382   1.036  0.1754 -0.1848  0.0526
54096W        W97008   0.027  18.675  30.507 -0.1280 -0.1131  0.1417
54097W        W97009  33.616  21.231   0.262  0.2362 -0.0479 -0.3491
54098W        W97010  33.618  19.371   1.794 -0.1479 -0.1112  0.0832
54099W        W97011  34.492  20.407   4.717  0.0955 -0.1277  0.3187
54100W        W97012  33.774  19.374  31.878  0.2642  0.3352 -0.2213
54101W        W97013  33.874  20.176   0.058  0.0426 -0.2289  0.1538
54102W        W97014   0.373  21.135   2.624 -0.2788 -0.2450 -0.0994
54103W        W97015  33.718  20.361   0.512 -0.3134  0.0252  0.1080
54104W        W97016  32.243  23.221   0.452  0.1614  0.1582  0.1143
54105W        W97017  33.780  21.336   1.947 -0.1425 -0.0759  0.1912
54106W        W97018  34.408  20.660   3.789  0.2485  0.1034  0.1420
54107W        W97019  33.038  21.485   2.016 -0.2647 -0.2076  0.1310
54108W        W97020  34.618  20.824   1.895 -0.3368  0.1157  0.2141
54109W        W97021  33.906  20.122   1.542  0.0983  0.0723 -0.3334
54110W        W97022  33.039  20.676   1.835 -0.2359  0.3044 -0.1980
54111W        W97023  32.230  18.847   3.381 -0.0354  0.0422  0.1407
54112W        W97024  33.536  19.444   0.389 -0.0966 -0.3173  0.0809
54113W        W97025  32.456  20.711   1.881 -0.0153  0.0011 -0.0748
54114W        W97026  33.652  20.470   2.721  0.1300 -0.1066  0.1070
54115W        W97027  33.303  20.979   1.588 -0.3162  0.2139 -0.2434
54116W        W97028  34.520  20.075   0.829  0.1459  0.0941 -0.3381
54117W        W97029  32.317  22.117   1.833 -0.0078 -0.4368 -0.0281
54118W        W97030  32.061  21.931   0.737 -0.0683  0.2622 -0.1704
54119W        W97031  33.299  21.882   1.520  0.1940  0.0243  0.0736
54120W        W97032   1.087  20.399   2.748 -0.0356  0.0368 -0.0797
54121W        W97033  34.279  18.824   1.020  0.0303  0.1498 -0.0691
54122W        W97034  34.634  20.855   2.424 -0.1692 -0.0393 -0.1829
54123W        W97035  33.486  20.449   3.735  0.1885 -0.0548 -0.1205
54124W        W97036  32.649  19.614   0.378  0.0634 -0.1804 -0.2032
54125W        W97037  33.610  19.599   2.982  0.6143  0.2157  0.1988
54126W        W97038  34.310  22.430  30.986  0.0173  0.3972 -0.2212
54127W        W97039  34.552  20.477   1.202 -0.1868 -0.0973 -0.1357
54128W        W97040  32.749  21.057   2.029  0.0805 -0.2297  0.2120
54129W        W97041  33.599  20.711   1.859 -0.0696 -0.1262  0.4224
54130W        W97042  33.252  19.157   0.776 -0.3258  0.1824 -0.1519
54131W        W97043  33.921  20.059   3.901 -0.1701 -0.3186 -0.1801
54132W        W97044  32.767  19.022   0.745  0.0079 -0.1947 -0.0792
54133W        W97045  33.311  19.253   3.305 -0.0532 -0.2224 -0.2593
54134W        W97046   1.219  17.533  31.684 -0.0440 -0.1348 -0.0183
54135W        W97047  32.963  19.135   1.199 -0.0891 -0.0400 -0.0268
54136W        W97048  33.444  20.806   1.109 -0.2309 -0.1957  0.0960
54137W        W97049  34.654  20.460   4.168  0.2424 -0.0656  0.0439
54138W        W97050  32.844  18.321   1.296 -0.1197  0.2189  0.0942
54139W        W97051  33.684  22.622   0.496 -0.0054  0.0253  0.2674
54140W        W97052  32.953  18.616   1.729 -0.2406 -0.0403  0.1942
54141W        W97053  34.678  19.593   0.595  0.3347  0.0876 -0.0425
54142W        W97054   0.107  19.297   2.766 -0.1212 -0.2791 -0.3633
54143W        W97055  31.828  21.828   1.438  0.0982 -0.0060  0.0450
54144W        W97056  33.523  21.674   0.417 -0.1710 -0.0102 -0.0762
54145W        W97057   0.942  20.910   2.723  0.1648  0.0907 -0.1149
54146W        W97058  33.892  21.327   3.151 -0.1342  0.0397  0.1766
54147W        W97059  32.297  20.819   0.247  0.0933  0.0923  0.2454
54148W        W97060  34.572  19.710   3.394  0.0098  0.0714  0.2785
54149W        W97061  34.293  21.831   1.745 -0.1804 -0.0746  0.0689
54150W        W97062  34.003  21.735   0.485 -0.4504  0.0271  0.2355
54151W        W97063   0.873  19.716   2.392 -0.0075  0.0651 -0.0837
54152W        W97064  34.467  19.822   2.276  0.3384 -0.0819 -0.1425
54153W        W97065  34.005  20.036   2.930 -0.2888  0.0320 -0.2188
54154W        W97066  32.152  20.583   0.709 -0.2331  0.0453 -0.0329
54155W        W97067  31.934  20.497  31.399  0.1480 -0.0245  0.2532
54156W        W97068  33.928  20.636   1.484  0.0461 -0.0714 -0.0379
54157W        W97069  33.219  17.798   3.815 -0.0823  0.2200 -0.2393
54158W        W97070  32.438  18.157   3.527 -0.2434  0.0156 -0.3421
54159W        W97071  34.126  20.932   1.837 -0.2257 -0.0568  0.1155
54160W        W97072  32.366  19.068   1.066  0.0896  0.3261 -0.1517
54161W        W97073  34.454  19.417   1.942  0.0310  0.1805 -0.2086
54162W        W97074  31.665  16.906   1.010 -0.0375 -0.3002  0.1698
54163W        W97075  34.043  18.437   1.296 -0.0685 -0.2832  0.0163
54164W        W97076  32.159  19.418   0.042 -0.1598 -0.2133 -0.0694
54165W        W97077  34.443  19.170   3.989  0.0777  0.1430  0.0707
54166W        W97078   0.306  18.019   3.664 -0.2364  0.0496  0.0925
54167W        W97079  31.560  20.453  31.790 -0.5083 -0.0442  0.0973
54168W        W97080   0.381  20.410   3.068 -0.0537  0.1913 -0.1405
54169W        W97081   0.019  21.955   2.142 -0.2423  0.0165 -0.0174
54170W        W97082  34.359  21.480   3.201  0.1392 -0.2506  0.1100
54171W        W97083  32.693  17.280   5.136  0.1800 -0.1446  0.0099
54172W        W97084   0.285  19.662   3.068 -0.0330 -0.0583 -0.0265
54173W        W97085  32.312  18.101   2.945  0.3462  0.1190  0.0511
54174W        W97086  33.361  20.535   3.134  0.1113 -0.1442  0.1147
54175W        W97087  33.097  18.654   0.917 -0.1051 -0.0581 -0.3229
54176W        W97088  33.867  20.561   3.173 -0.2548  0.2919 -0.1269
54177W        W97089  34.453  19.967   0.238 -0.0213  0.0047 -0.0496
54178W        W97090   0.179  19.795   2.575 -0.1613 -0.0881  0.0175
54179W        W97091  34.641  19.099  30.294  0.2189 -0.0874  0.0022
54180W        W97092  34.091  21.786   2.218 -0.0067  0.1478  0.2105
54181W        W97093  32.989  18.231   0.630 -0.1329 -0.2600  0.0845
54182W        W97094  34.650  19.230  30.773 -0.1099  0.2959 -0.1500
54183W        W97095   0.730  21.002   1.557  0.1638  0.3001  0.0551
54184W        W97096  34.024  19.170   2.051 -0.1591 -0.1921 -0.1404
54185W        W97097  34.153  21.238   2.220  0.2946  0.0162 -0.0661
54186W        W97098  34.236  22.717   6.118 -0.0516  0.2485 -0.0315
54187W        W97099  33.907  17.708   5.061 -0.0002  0.0461  0.1111
54188W        W97100  32.805  18.298   5.258  0.2389  0.0421 -0.2621
54189W        W97101  33.463  17.918   6.845  0.2873 -0.0728  0.0742
54190W        W97102   0.330  18.903   5.985 -0.1014  0.2262 -0.1653
54191W        W97103  33.664  21.817   5.989  0.0017  0.2213 -0.0483
54192W        W97104  34.040  19.004   4.235  0.0139  0.2162  0.3317
54193W        W97105  33.152  17.576   6.433 -0.1595  0.0487 -0.2483
54194W        W97106  34.296  20.217   3.261  0.2065 -0.2443  0.0897
54195W        W97107  34.200  20.421   5.638 -0.0516 -0.1830 -0.0332
54196W        W97108  33.632  18.679   4.121 -0.0564 -0.2159  0.1837
54197W        W97109   0.923  18.278   6.371 -0.1509  0.4898 -0.0024
54198W        W97110   0.674  20.774   4.938  0.0378  0.1161 -0.2420
54199W        W97111  33.652  19.668   3.558 -0.1698 -0.0321  0.2895
54200W        W97112  31.671  20.130   5.352  0.1749  0.1992  0.0957
54201W        W97113  33.740  19.865   6.658 -0.1116 -0.0523 -0.3104
54202W        W97114  33.549  22.388   4.310  0.0559 -0.1071 -0.1153
54203W        W97115  34.155  21.412   4.584  0.3416 -0.1418  0.0764
54204W        W97116  33.804  19.988   4.761 -0.2262 -0.1834 -0.0851
54205W        W97117  32.903  21.752   5.933  0.1508  0.0467  0.2746
54206W        W97118  34.197  20.939   4.463 -0.0707 -0.0779 -0.0432
54207W        W97119   0.595  21.774   7.216  0.3484  0.1503 -0.2206
54208W        W97120  32.904  20.533   3.695 -0.0963  0.3373  0.0940
54209W        W97121  33.530  21.214   7.931 -0.2265  0.1073  0.0343
54210W        W97122  34.445  21.335   4.154  0.0727  0.1871  0.1591
54211W        W97123   0.065  21.490   4.500  0.0589 -0.1240 -0.2151
54212W        W97124  33.338  19.615   6.950  0.0276  0.5069 -0.0663
54213W        W97125  32.376  19.709   4.468  0.1370  0.1968  0.4510
54214W        W97126  33.169  21.218   4.295 -0.0371 -0.2747  0.0393
54215W        W97127  34.528  18.841   3.356 -0.0274  0.2736  0.1284
54216W        W97128  33.476  17.948   5.539 -0.2502  0.1639  0.0227
54217W        W97129  34.024  21.800   4.916 -0.1873  0.1154  0.4441
54218W        W97130  33.736  19.452   4.652  0.0444 -0.1219 -0.1577
54219W        W97131  34.611  20.619   6.866  0.1218 -0.1322 -0.0885
54220W        W97132  34.413  20.263   6.086 -0.3192 -0.2266  0.3661
54221W        W97133  33.534  19.127   4.271  0.3391  0.0885  0.0605
54222W        W97134  33.003  19.972   6.022  0.0875  0.1867 -0.0306
54223W        W97135  32.789  18.810   6.948 -0.1713 -0.2587 -0.1127
54224W        W97136  34.303  18.002   3.846  0.0944 -0.2149 -0.1433
54225W        W97137  33.047  21.594   6.397 -0.0791  0.1123  0.1177
54226W        W97138  34.075  20.562   5.110 -0.3816 -0.0546  0.0273
54227W        W97139  34.692  19.792   4.755  0.0349 -0.1985 -0.0936
54228W        W97140  34.390  21.094   3.519  0.0225 -0.1329 -0.1524
54229W        W97141  33.325  21.921   5.493  0.1778 -0.0942 -0.0221
54230W        W97142  33.858  18.565   7.485 -0.0580 -0.2358 -0.2071
54231W        W97143   0.295  21.719   7.704  0.0415 -0.3446 -0.3498
54232W        W97144  32.401  20.741   4.320 -0.2273  0.0881 -0.2566
54233W        W97145  32.291  20.169   5.272  0.1908  0.0655  0.0841
54234W        W97146  33.724  20.792   4.377 -0.0637  0.0761  0.1472
54235W        W97147  33.239  19.586   7.490 -0.1174 -0.2210 -0.0792
54236W        W97148  34.600  21.181   5.912  0.0680  0.0984  0.0894
54237W        W97149  33.455  18.683   7.206  0.4633 -0.1782  0.0044
54238W        W97150  32.873  20.810   4.634 -0.1775  0.3443 -0.0463
54239W        W97151  33.424  19.542   6.022 -0.1046 -0.0095 -0.1048
54240W        W97152  34.154  18.635   4.566 -0.0858  0.2676 -0.1005
54241W        W97153  33.674  18.147   7.874 -0.1734 -0.2247  0.0004
54242W        W97154  33.329  19.031   6.896  0.1392 -0.0013  0.0674
54243W        W97155  32.724  16.942   3.897 -0.2174 -0.1366  0.2489
54244W        W97156   0.565  20.164   4.861  0.1853 -0.1741 -0.1081
54245W        W97157  34.173  20.044   4.431 -0.1588  0.1613 -0.1431
54246W        W97158  34.618  19.423   6.891 -0.2412  0.0045 -0.0629
54247W        W97159  33.210  18.433   2.994  0.3813 -0.1053  0.2317
54248W        W97160  33.625  23.476   6.397 -0.0866  0.1342  0.3263
54249W        W97161  33.555  22.751   4.727 -0.0147  0.1954 -0.0560
54250W        W97162  31.910  17.991   5.047 -0.0585 -0.4269 -0.0773
54251W        W97163  33.125  21.359   8.094  0.1151  0.1930 -0.1260
54252W        W97164  33.171  18.265   2.470 -0.3956  0.1669 -0.3526
54253W        W97165  33.298  20.845   5.216  0.1750  0.1463  0.1021
54254W        W97166  33.231  20.329   4.517 -0.0427 -0.0283  0.0657
54255W        W97167   0.429  20.713   5.359 -0.4167  0.1201 -0.1184
54256W        W97168  33.120  20.194   6.426  0.1720 -0.1453 -0.1941
54257W        W97169  32.926  19.144   4.213  0.1823 -0.1566 -0.1456
54258W        W97170  33.444  22.354   6.593  0.0349  0.2359 -0.0303
54259W        W97171  34.483  21.631   6.776 -0.0821  0.0415 -0.0392
54260W        W97172  33.945  21.635   4.150 -0.3420 -0.0382 -0.1007
54261W        W97173   0.829  20.068   5.352  0.0015  0.1624  0.0216
54262W        W97174  33.227  20.693   6.646  0.0489  0.1257 -0.2136
54263W        W97175  33.942  19.520   6.306  0.0439 -0.6161  0.0908
54264W        W97176  33.723  19.773   4.247 -0.1798 -0.0523 -0.0781
54265W        W97177  31.843  21.233   3.388  0.0647 -0.2314 -0.0842
54266W        W97178  34.611  19.355   6.342  0.2424 -0.0477 -0.0011
54267W        W97179  32.801  19.589   4.621 -0.1220 -0.2168  0.1155
54268W        W97180   0.341  18.835   7.020 -0.1087  0.1328  0.2922
54269W        W97181  32.417  20.810   6.852 -0.2471 -0.1517 -0.0358
54270W        W97182  33.382  22.395   7.099 -0.0526 -0.1392 -0.1602
54271W        W97183   1.513  18.050   7.118 -0.4137  0.0130 -0.0242
54272W        W97184  32.659  21.242   4.341  0.3657  0.1965 -0.1221
54273W        W97185  34.282  21.712   3.698 -0.2591 -0.3489 -0.0978
54274W        W97186  33.877  19.460   5.791 -0.2341 -0.1591 -0.1703
54275W        W97187   1.388  20.852   5.498  0.0501  0.0246  0.1800
54276W        W97188   0.861  21.724   3.255 -0.1368 -0.1328  0.0897
54277W        W97189   0.028  20.987   4.398 -0.0290 -0.0836  0.1703
54278W        W97190  33.599  21.472   5.562  0.1599  0.0563 -0.0061
54279W        W97191  33.895  18.905   3.708 -0.0441 -0.1202 -0.0277
54280W        W97192  33.001  20.474   5.012 -0.1597  0.1608 -0.1462
54281W        W97193  33.610  19.971   6.179  0.2142  0.1783 -0.3660
54282W        W97194   1.008  18.226   5.817  0.2177  0.1109  0.1198
54283W        W97195  33.640  21.341   6.156 -0.0624 -0.0147  0.1675
54284W        W97196  34.241  20.195   6.830  0.0142 -0.0859  0.2630
54285W        W97197  32.804  17.846   2.613 -0.1072  0.0510 -0.0612
54286W        W97198  34.043  19.664   5.349 -0.1803 -0.1243 -0.3025
54287W        W97199  33.326  20.090   5.142  0.1691  0.3362  0.2596
54288W        W97200   0.606  19.743   4.555  0.0600 -0.1541  0.3557
54289W        W97201  33.011  20.876   6.204 -0.0877  0.0832 -0.0378
54290W        W97202   0.283  18.957   6.490 -0.0842  0.0503  0.1495
54291W        W97203  34.388  19.072   4.670  0.0253  0.0461 -0.0384
54292W        W97204  34.153  19.467   4.332 -0.0205  0.0173 -0.0218
54293W        W97205   0.363  19.526   5.727  0.0908  0.2033 -0.1324
54294W        W97206   0.660  19.817   6.005 -0.2608  0.0678 -0.2828
54295W        W97207  32.785  21.078   7.198 -0.1830 -0.0839  0.0678
54296W        W97208  33.750  20.128   3.400  0.0515 -0.2503  0.1003
54297W        W97209  32.554  19.538   5.501 -0.1214 -0.0110  0.1414
54298W        W97210  33.581  20.471   5.027  0.2316 -0.0172  0.0925
54299W        W97211  34.464  19.228   5.193 -0.3652 -0.0619 -0.1833
54300W        W97212  33.157  20.452   5.512 -0.1232  0.1930 -0.0406
54301W        W97213  34.081  21.040   3.967 -0.2985  0.0627 -0.0378
54302W        W97214  32.510  20.055   6.406  0.0989  0.2008  0.1998
54303W        W97215   1.234  17.390   5.658 -0.0157 -0.0891 -0.0443
54304W        W97216  33.927  18.109   6.093 -0.0667  0.0655 -0.3035
54305W        W97217  33.139  18.686   6.572 -0.0881 -0.0952 -0.0962
54306W        W97218  34.671  20.151   6.500  0.1070 -0.2036 -0.1662
54307W        W97219  34.003  17.456   3.590 -0.0365  0.0125 -0.0304
54308W        W97220  34.309  19.715   6.590 -0.1016 -0.0667 -0.1489
54309W        W97221   0.844  20.694   3.995 -0.1206  0.3763  0.0462
54310W        W97222  33.820  20.407   6.015 -0.1462  0.0113  0.1773
54311W        W97223   0.408  20.418   3.987  0.2403 -0.2385 -0.0820
54312W        W97224  33.007  21.258   3.847 -0.1048 -0.2056 -0.0403
54313W        W97225  34.039  17.331   7.469  0.1828  0.2754 -0.1668
54314W        W97226   0.475  18.425   6.128  0.1727 -0.0101 -0.0106
54315W        W97227  32.800  19.120   5.456  0.1990  0.2690 -0.0968
54316W        W97228  32.844  20.026   5.353 -0.0226 -0.0203 -0.1692
54317W        W97229  33.658  17.865   3.406  0.2205 -0.0548  0.0939
54318W        W97230   0.034  21.379   5.068  0.3174  0.0791  0.2983
54319W        W97231  33.788  19.061   6.043 -0.1871 -0.1326 -0.2216
54320W        W97232  34.589  22.625   6.472 -0.0279 -0.2039 -0.1886
54321W        W97233  33.953  19.165   5.105 -0.2472 -0.1765 -0.3019
54322W        W97234  34.183  19.542   4.831 -0.1384 -0.1489  0.0648
54323W        W97235   0.822  21.724   5.157 -0.2424 -0.0286 -0.0480
54324W        W97236   0.027  18.801   4.355  0.0108 -0.0971 -0.0080
54325W        W97237  33.105  20.210   3.410 -0.0146  0.0687 -0.2142
54326W        W97238  34.067  21.799   5.576 -0.0764 -0.0398 -0.3871
54327W        W97239  32.752  20.544   5.938 -0.3751 -0.0442 -0.0412
54328W        W97240  32.967  21.228   4.793  0.2107  0.1397  0.1585
54329W        W97241  34.598  19.837   4.264 -0.0632 -0.0086  0.0198
54330W        W97242   0.193  18.950   4.819 -0.0641  0.0475  0.1346
54331W        W97243  34.029  20.466   4.653 -0.1197  0.0315 -0.0913
54332W        W97244  34.057  21.280   5.634 -0.1117  0.2787  0.2910
54333W        W97245  34.052  18.801   3.219  0.0149 -0.0545 -0.1312
54334W        W97246  33.502  21.355   7.484 -0.1607 -0.2104  0.1854
54335W        W97247  33.365  19.991   5.664 -0.1492  0.1032 -0.2382
54336W        W97248  33.196  21.359   5.861  0.1494  0.0745 -0.0022
54337W        W97249  34.285  19.277   3.534  0.1796 -0.3031 -0.2713
54338W        W97250  33.326  21.156   6.491  0.1260  0.0871  0.2472
54339W        W97251  32.622  21.632   4.076  0.0099 -0.1233 -0.1617
54340W        W97252  33.645  20.431   5.584 -0.5979  0.0236  0.0161
54341W        W97253  33.621  19.679   5.069  0.0280 -0.1609 -0.0332
54342W        W97254   0.233  18.370   3.201 -0.2993  0.1455  0.0421
54343W        W97255  33.593  20.370   6.513  0.0782 -0.1697 -0.3814
54344W        W97256  33.176  22.648   5.988 -0.1431  0.1918 -0.2196
54345W        W97257  32.967  19.514   3.652 -0.0634 -0.2906 -0.2456
54346W        W97258   1.222  19.534   5.090 -0.1328  0.2859  0.0703
54347W        W97259   0.257  20.549   4.872  0.1950 -0.0822  0.0963
54348W        W97260  34.238  21.919   4.466  0.3353  0.0815  0.0622
54349W        W97261  33.302  20.453   6.046  0.2523  0.2232  0.1216
54350W        W97262  33.666  20.841   6.193 -0.1408  0.0437  0.0540
54351W        W97263  33.812  18.847   6.490  0.1981  0.0458  0.5725
54352W        W97264  34.496  20.247   7.408 -0.2631 -0.2507 -0.2051
54353W        W97265   1.950  20.327   5.396 -0.1167  0.0112 -0.0361
54354W        W97266  33.285  19.708   6.478  0.1207  0.0758  0.0448
54355W        W97267  34.655  19.102   5.640  0.0017  0.1835  0.1088
54356W        W97268  34.476  18.820   6.479  0.1397  0.2885  0.0450
54357W        W97269  33.872  19.940   5.744  0.4824 -0.0802 -0.1407
54358W        W97270  34.537  18.988   7.030  0.1389 -0.1313 -0.2075
54359W        W97271  33.930  16.592   5.661  0.1152  0.1024 -0.0235
54360W        W97272  33.872  21.983   3.184 -0.4841 -0.4438 -0.1173
54361W        W97273  34.158  19.238   6.850  0.0789  0.0830  0.2566
54362W        W97274   0.649  18.678   5.139 -0.0300 -0.0260  0.1840
54363W        W97275  33.070  19.587   5.099 -0.2993 -0.3520 -0.0161
54364W        W97276  33.001  21.726   2.788  0.0814 -0.1547 -0.1338
54365W        W97277  34.690  21.607   2.908 -0.0788 -0.0500 -0.1973
54366W        W97278  33.749  20.853   6.791 -0.0884  0.0905  0.0518
54367W        W97279  34.269  20.273   7.835 -0.2267 -0.3489 -0.0325
54368W        W97280  33.343  17.831   2.399  0.4361  0.1985  0.0022
54369W        W97281  34.062  21.757   6.523  0.1238  0.1794  0.0076
54370W        W97282  33.903  20.964   4.863 -0.1325  0.0139 -0.0600
54371W        W97283  33.374  20.873   4.739  0.2878 -0.2206 -0.2304
54372W        W97284   0.790  19.282   5.216  0.3748  0.1785  0.0549
54373W        W97285  34.603  18.554   4.809  0.1476  0.2612  0.0453
54374W        W97286  34.669  19.268   7.368  0.0350  0.0376 -0.1411
54375W        W97287  33.297  19.745   4.674  0.2492 -0.0745 -0.0883
54376W        W97288  33.251  20.676   4.143  0.4488 -0.1062 -0.0681
54377W        W97289  34.116  21.159   6.236 -0.2141 -0.0542 -0.0227
54378W        W97290   0.119  17.169   6.704 -0.1472 -0.2247 -0.3157
54379W        W97291  32.137  18.970   7.390  0.0857 -0.0344  0.1481
54380W        W97292  32.154  19.191   5.349 -0.0746  0.0259 -0.1451
54381W        W97293  34.545  18.119   5.498  0.4782 -0.1640  0.3212
54382W        W97294  34.344  19.060   6.046 -0.0330  0.0115  0.1253
54383W        W97295  34.412  18.208   5.946 -0.3279  0.0385  0.0693
54384W        W97296  33.817  17.851   3.913  0.4034 -0.0476 -0.1112
54385W        W97297  32.304  21.174   3.997 -0.3599 -0.0270 -0.0326
54386W        W97298   0.935  19.245   6.060 -0.1751 -0.1072 -0.0044
54387W        W97299  33.821  19.039   7.708  0.0402 -0.2027  0.2347
54388W        W97300  33.741  18.862   4.659 -0.1728 -0.1595 -0.1015
54389W        W97301  34.659  20.083   5.693 -0.1748 -0.1038 -0.0412
54390W        W97302  33.865  20.128   5.257  0.2274  0.0262 -0.0016
54391W        W97303   0.781  20.439   6.656 -0.1831 -0.2246 -0.5408
54392W        W97304  33.041  19.599   5.639 -0.0899 -0.1977  0.0241
54393W        W97305  34.543  21.515   5.546 -0.0151  0.2118 -0.2256
54394W        W97306  34.333  18.551   6.928 -0.1940 -0.3971 -0.1218
54395W        W97307  33.487  19.482   5.494 -0.0987 -0.0627 -0.2427
54396W        W97308  34.571  19.747   5.351 -0.0700  0.2367 -0.2655
54397W        W97309   0.079  19.848   6.118  0.1088 -0.0030 -0.1445
54398W        W97310   1.230  19.656   3.569 -0.0021 -0.3980 -0.0722
54399W        W97311   0.196  20.244   6.990 -0.2577  0.1672 -0.2928
54400W        W97312   0.095  19.420   4.457  0.0011 -0.1036  0.1411
54401W        W97313  34.158  21.301   5.154 -0.1283 -0.1284  0.0026
54402W        W97314  33.600  17.791   6.360 -0.1427 -0.0493 -0.0215
54403W        W97315   0.325  19.104   5.255  0.0903 -0.3823  0.0260
54404W        W97316   0.248  20.175   4.471 -0.0371  0.1636 -0.3173
54405W        W97317  34.093  18.634   6.080  0.1837  0.1550 -0.4565
54406W        W97318  34.562  21.840   5.055  0.4345  0.1153 -0.1345
54407W        W97319  32.874  21.012   8.966  0.1569  0.1761  0.0576
54408W        W97320  33.714  19.499   7.625  0.1257  0.0092 -0.1136
54409W        W97321  33.209  18.997   8.366  0.0290  0.3158 -0.3067
54410W        W97322  34.512  20.601   9.691  0.1892  0.1851 -0.2689
54411W        W97323  33.282  19.159   7.740 -0.1608 -0.1629  0.2353
54412W        W97324  32.290  19.121   9.769  0.1800  0.0109  0.1095
54413W        W97325  33.932  19.746   7.076 -0.3379  0.1184 -0.1908
54414W        W97326  34.260  20.177   9.607 -0.2019  0.2179 -0.2553
54415W        W97327   0.139  18.997   7.771 -0.1146  0.0200  0.1360
54416W        W97328  31.348  21.594   9.453  0.0684 -0.1222 -0.0214
54417W        W97329   0.490  22.107   8.000  0.1239 -0.0320 -0.0385
54418W        W97330  33.380  20.890   5.761  0.1690 -0.3330  0.1598
54419W        W97331  34.472  18.690   9.580 -0.0799 -0.2528 -0.2273
54420W        W97332   0.267  19.203   9.523  0.1975  0.1779 -0.1558
54421W        W97333  34.573  21.559   8.258  0.3966  0.0709  0.1212
54422W        W97334  34.391  19.812   8.025  0.2108 -0.1495  0.0249
54423W        W97335  32.816  22.066   8.712  0.1471  0.4340 -0.0420
54424W        W97336  33.773  20.235   6.957 -0.1689  0.0301 -0.0784
54425W        W97337  32.485  21.641   7.838 -0.3196  0.0742  0.0896
54426W        W97338  33.820  21.774   7.572  0.0907 -0.0773 -0.0384
54427W        W97339   0.542  20.974   9.148 -0.2095  0.0932  0.1538
54428W        W97340   0.088  20.683   7.940 -0.1039 -0.1358 -0.0045
54429W        W97341  33.622  20.756   7.668  0.1310  0.2657  0.2591
54430W        W97342  33.363  18.533   8.245 -0.0682 -0.1851 -0.2509
54431W        W97343  33.979  19.228   8.591  0.3497 -0.0172 -0.0038
54432W        W97344  33.477  21.743   7.888 -0.1029  0.2009  0.2011
54433W        W97345  33.791  19.012   9.050 -0.1831 -0.1943 -0.1688
54434W        W97346   0.549  19.667   9.397  0.1278 -0.2686 -0.0279
54435W        W97347  33.673  19.767   8.999 -0.1237  0.2355 -0.2790
54436W        W97348  32.796  19.906   8.144  0.0409  0.0204  0.1164
54437W        W97349   0.773  19.551   6.468  0.1457 -0.0541  0.1140
54438W        W97350   0.077  20.635   7.452  0.0628  0.0086  0.2286
54439W        W97351   0.228  19.673   7.172  0.2376  0.1481  0.0052
54440W        W97352  34.667  19.762   7.583  0.0664 -0.3240 -0.0453
54441W        W97353  33.240  20.748   9.150 -0.0948 -0.3651 -0.1099
54442W        W97354  33.367  22.028   7.439 -0.0940 -0.1473  0.0191
54443W        W97355  32.158  20.039   9.711 -0.5571 -0.1235  0.2002
54444W        W97356  33.151  20.446   7.576  0.2867  0.1508  0.3932
54445W        W97357  32.902  18.742   9.691 -0.3030 -0.2364  0.8296
54446W        W97358   0.239  20.017   9.156 -0.2415 -0.0906  0.0726
54447W        W97359  33.249  20.190   6.915  0.0510 -0.0728  0.0901
54448W        W97360  31.461  20.816   9.235  0.0279 -0.0691 -0.2805
54449W        W97361  33.238  19.037   9.823  0.1148  0.0531  0.1597
54450W        W97362   1.373  19.413   9.198 -0.3165  0.0056  0.4381
54451W        W97363  34.387  18.315   8.375 -0.1256 -0.0966 -0.0160
54452W        W97364  34.549  19.334   7.969 -0.1065 -0.0297  0.0648
54453W        W97365  33.954  20.333   7.463 -0.3831 -0.0175  0.0274
54454W        W97366  32.066  20.139   9.225 -0.4033 -0.2848  0.1672
54455W        W97367  33.564  20.217   7.819  0.2570 -0.1776  0.0429
54456W        W97368  34.075  21.243   8.421  0.2659  0.0613 -0.4789
54457W        W97369   0.078  21.967   9.839  0.2707 -0.2099 -0.0728
54458W        W97370  34.052  19.379   7.964 -0.1111 -0.0603  0.0512
54459W        W97371  33.121  18.227   6.997  0.0217  0.1545 -0.3661
54460W        W97372  32.972  20.862   8.012  0.1549 -0.0252  0.1065
54461W        W97373  33.270  19.772   8.713 -0.0138 -0.0058 -0.1056
54462W        W97374  34.552  21.938   8.709 -0.1138 -0.0778  0.2476
54463W        W97375  34.482  18.052   6.810  0.1074  0.0441 -0.2919
54464W        W97376  34.622  22.065   8.090  0.1801  0.2786 -0.1045
54465W        W97377   1.022  21.531   9.932  0.0150 -0.0137 -0.1371
54466W        W97378  31.515  20.483  10.053  0.2062  0.0363 -0.0538
54467W        W97379  34.126  18.279   9.534 -0.1263  0.2154  0.1617
54468W        W97380   0.393  20.763   7.097 -0.2860  0.1549  0.1207
54469W        W97381  33.490  22.281   7.904 -0.0546  0.0399 -0.2015
54470W        W97382  34.354  18.195   7.291  0.1008 -0.0261 -0.2507
54471W        W97383   1.439  20.860   8.814  0.0601  0.0000 -0.2562
54472W        W97384  32.831  21.766  10.004  0.0190 -0.3410  0.1364
54473W        W97385  34.335  22.220   7.419 -0.2754 -0.0219  0.2100
54474W        W97386  34.511  21.040   8.096 -0.0761  0.1918  0.0665
54475W        W97387  33.591  17.734  10.169  0.1914 -0.2480  0.3107
54476W        W97388  33.083  22.678   9.950  0.1074 -0.1002 -0.1649
54477W        W97389   0.294  21.063   7.675  0.1702  0.0391  0.0601
54478W        W97390  34.257  20.546   9.015 -0.3201 -0.0400  0.2290
54479W        W97391  32.256  22.041   7.384 -0.2401  0.1250 -0.0152
54480W        W97392  33.426  18.661   7.743 -0.3011  0.2507  0.1807
54481W        W97393  33.250  17.567   7.118  0.0742  0.0047 -0.0100
54482W        W97394  34.656  18.684   8.662  0.1730 -0.2020 -0.1063
54483W        W97395   0.049  19.166   8.823 -0.1133 -0.0025 -0.0877
54484W        W97396  32.528  20.351   9.416 -0.2428 -0.0786 -0.2207
54485W        W97397  32.682  18.243   7.205 -0.0981  0.2042 -0.0196
54486W        W97398  33.712  20.211   8.680 -0.1356 -0.1153 -0.0091
54487W        W97399  34.271  20.805   8.600 -0.0040  0.2917 -0.2387
54488W        W97400  32.510  19.824   7.659  0.0056  0.3800 -0.2036
54489W        W97401  32.775  21.192   8.437 -0.2755  0.2364  0.1765
54490W        W97402   0.597  19.381   8.187 -0.0535 -0.0072  0.0141
54491W        W97403  33.392  20.201   9.032  0.1009  0.2471 -0.0677
54492W        W97404   0.193  19.738   8.154  0.3284 -0.2194  0.0874
54493W        W97405   0.930  19.234   8.962  0.0715 -0.1875  0.1873
54494W        W97406  34.144  19.865   7.582  0.0531 -0.1173 -0.0012
54495W        W97407  31.555  23.513  12.348  0.2972 -0.0318  0.0583
54496W        W97408   0.347  19.453   7.762 -0.1369 -0.0242  0.2179
54497W        W97409  33.969  16.603  10.296  0.0660 -0.1849  0.0791
54498W        W97410  32.135  20.579   8.796  0.1668 -0.0628 -0.0608
54499W        W97411  33.438  20.607   7.139 -0.2831  0.0352 -0.3003
54500W        W97412  32.772  19.302   9.542 -0.2852 -0.0181 -0.0349
54501W        W97413  34.365  19.492   8.390  0.3555  0.1162  0.1679
54502W        W97414  34.030  18.806   9.504 -0.0187 -0.2915 -0.1813
54503W        W97415  34.398  17.484   6.651  0.3106  0.2734  0.1685
54504W        W97416  33.542  20.544   9.530 -0.2283  0.0570  0.0735
54505W        W97417   1.231  20.957   7.355 -0.1302  0.0943 -0.1920
54506W        W97418  32.743  21.609   9.061  0.0128 -0.1792 -0.0277
54507W        W97419   1.131  20.515   7.568  0.2766 -0.2179 -0.0861
54508W        W97420  34.126  19.382   7.425  0.0801  0.3447  0.3176
54509W        W97421  33.091  19.075   9.234 -0.0689  0.0346 -0.0661
54510W        W97422  32.780  19.374   7.724 -0.2725  0.0180  0.1576
54511W        W97423   0.737  21.151   8.001  0.0115 -0.4035 -0.1457
54512W        W97424  32.358  20.459  10.437 -0.0282 -0.3828 -0.1938
54513W        W97425  32.911  18.789   7.894  0.1737  0.1689 -0.1506
54514W        W97426   1.238  19.773   6.171  0.1281  0.1257 -0.1318
54515W        W97427   1.383  20.825   9.868  0.1011 -0.0926  0.0308
54516W        W97428  34.277  18.859   8.939  0.3091 -0.0222  0.0800
54517W        W97429  33.541  20.042  10.146  0.0831 -0.0090  0.0506
54518W        W97430  33.843  21.527   8.852  0.1890  0.0510  0.0865
54519W        W97431   0.255  21.216   8.228 -0.0191 -0.4371  0.0546
54520W        W97432  33.720  20.928   9.793  0.1091 -0.0944  0.1864
54521W        W97433  34.528  20.287   8.233  0.1193 -0.1210  0.0601
54522W        W97434  33.787  20.816   8.473  0.1883 -0.0943  0.0639
54523W        W97435  33.406  17.976   8.431  0.0023  0.0153  0.1674
54524W        W97436   0.083  21.060   9.590  0.0622  0.3291  0.1956
54525W        W97437  33.212  21.865   8.313 -0.0774  0.2525 -0.3937
54526W        W97438   0.882  19.109   6.691  0.0140 -0.1846  0.0709
54527W        W97439  34.010  21.070   8.926  0.1683 -0.0606  0.1859
54528W        W97440  33.214  21.876   6.771  0.0611 -0.0009 -0.2375
54529W        W97441  33.998  20.827   7.981  0.0772 -0.1106 -0.3214
54530W        W97442  34.171  20.278   8.618 -0.1456 -0.4020 -0.1507
54531W        W97443   0.113  18.279   7.119 -0.2977 -0.1799  0.2843
54532W        W97444  33.373  20.605   8.103 -0.2543  0.2762  0.0448
54533W        W97445   0.762  19.845   8.331 -0.0447 -0.2643 -0.0623
54534W        W97446  33.912  21.398   6.776  0.1438  0.1999 -0.0643
54535W        W97447   0.624  21.843   8.780  0.0065  0.0706 -0.4201
54536W        W97448   0.228  21.514   8.649  0.0807  0.1046 -0.0040
54537W        W97449  32.370  20.908  10.246 -0.2040 -0.0698 -0.0009
54538W        W97450  33.353  19.662   7.959 -0.0343 -0.0104  0.0914
54539W        W97451  33.567  23.000   9.956  0.0553  0.0993 -0.0400
54540W        W97452  34.593  19.922   8.575  0.1161 -0.2439 -0.2467
54541W        W97453   0.094  20.144   9.679 -0.0869 -0.1064 -0.3535
54542W        W97454  34.274  20.842   7.585 -0.1475 -0.1415  0.0112
54543W        W97455  33.626  19.367   9.381  0.0989  0.1866 -0.0869
54544W        W97456   0.096  20.149   7.849  0.2806  0.0617  0.0655
54545W        W97457   2.281  19.919   9.402 -0.0497  0.0341 -0.2398
54546W        W97458  33.833  19.813   8.031 -0.3130 -0.1227  0.2449
54547W        W97459   0.180  21.311   9.130  0.1003  0.1120  0.1597
54548W        W97460  32.724  19.111  10.024 -0.3843  0.3812 -0.0847
54549W        W97461  34.430  18.431   9.137 -0.2204 -0.0782 -0.2657
54550W        W97462  34.070  19.787   8.708  0.0474  0.0178 -0.2436
54551W        W97463  32.583  22.324   6.981 -0.0988 -0.3110 -0.1248
54552W        W97464  34.699  22.905   6.044 -0.3464 -0.1531  0.0952
54553W        W97465   2.213  20.676   9.217  0.2141  0.2862  0.1933
54554W        W97466  33.468  21.250   7.013  0.1285 -0.0513  0.1390
54555W        W97467   0.467  21.689   8.257  0.0473  0.2180  0.0774
54556W        W97468   1.117  21.707   8.321  0.1122 -0.0091 -0.1824
54557W        W97469   1.225  18.906   9.107  0.2679  0.2964  0.1661
54558W        W97470  33.988  17.795   9.790 -0.0826 -0.0031  0.1440
54559W        W97471  33.048  21.298   9.349 -0.2746  0.1463  0.2178
54560W        W97472  34.291  18.898   7.797  0.2995  0.0615 -0.0093
54561W        W97473  34.188  20.634   7.115 -0.4858 -0.3671  0.0537
54562W        W97474  33.056  20.373   9.417 -0.0400  0.1633 -0.2168
54563W        W97475  32.729  19.702   8.625  0.0075  0.0870 -0.2998
54564W        W97476  33.641  19.286   7.184 -0.0565 -0.0679 -0.1594
54565W        W97477  34.127  19.416   9.766  0.0754  0.2844  0.3012
54566W        W97478  33.569  19.996   9.516 -0.4934  0.1864 -0.0791
54567W        W97479   0.769  19.160   7.768 -0.2032 -0.1812  0.1214
54568W        W97480  31.764  21.212   7.568 -0.0166 -0.0809 -0.1602
54569W        W97481  33.446  18.122   7.339  0.0181 -0.2909 -0.0797
54570W        W97482  34.104  21.892   9.749  0.1525 -0.0237 -0.2827
54571W        W97483  33.595  18.207   9.638 -0.3618 -0.1594 -0.3418
54572W        W97484  33.685  19.587   8.407  0.2020 -0.0469 -0.2608
54573W        W97485  32.622  20.047   9.875  0.0189 -0.4102 -0.2706
54574W        W97486   0.006  19.065   8.362  0.0465  0.0471  0.0701
54575W        W97487   0.990  19.621   7.971 -0.0865  0.1637 -0.3303
54576W        W97488  33.954  22.752   9.167  0.2074 -0.0526  0.2497
54577W        W97489  34.550  19.604   8.935  0.2418 -0.2964 -0.0429
54578W        W97490  32.899  20.364   8.050 -0.0529 -0.1095  0.3219
54579W        W97491   0.335  20.207   8.316  0.0164 -0.1185  0.1202
54580W        W97492   0.038  19.688   9.506  0.1661  0.0461  0.0543
54581W        W97493  34.391  21.003   9.276  0.0692  0.2088  0.0199
54582W        W97494  33.402  25.067   2.908 -0.0384  0.1168 -0.1862
54583W        W97495  33.455  24.320   0.317 -0.1277 -0.2542 -0.2917
54584W        W97496  32.326  21.677   1.469 -0.2180  0.3358  0.2383
54585W        W97497  33.421  20.448   2.257  0.1146 -0.1320  0.1464
54586W        W97498   0.107  23.297   3.441  0.1102 -0.2607 -0.0924
54587W        W97499  33.929  25.378   2.665  0.1840  0.3010  0.0402
54588W        W97500  33.753  21.851   0.988 -0.0140  0.1548  0.0215
54589W        W97501  32.878  23.156   2.450  0.3000 -0.2381 -0.0210
54590W        W97502  32.422  24.000   1.648 -0.0108 -0.1840 -0.1892
54591W        W97503  33.301  22.561   2.712 -0.1223  0.0488 -0.0636
54592W        W97504  33.757  24.038   0.595 -0.2835 -0.0577 -0.2856
54593W        W97505  33.458  22.159   0.706 -0.1457  0.1291 -0.1687
54594W        W97506   1.074  24.298   0.267 -0.0148 -0.0270 -0.2230
54595W        W97507  34.007  24.442   0.224  0.0044 -0.4226  0.1863
54596W        W97508  32.805  24.295   3.223  0.2913  0.1600  0.0940
54597W        W97509  33.541  22.588   3.210 -0.3996 -0.0856  0.1889
54598W        W97510  34.395  25.621   2.748  0.0125  0.3036 -0.0363
54599W        W97511   1.067  26.001   2.511  0.1324  0.0635 -0.1482
54600W        W97512  33.690  26.249   1.460  0.2172 -0.0760  0.2083
54601W        W97513  31.738  26.037   1.247  0.0219 -0.0282  0.1289
54602W        W97514   0.179  25.744   0.786  0.1017  0.0353  0.0258
54603W        W97515  34.094  24.726   4.474  0.0881 -0.1162  0.1504
54604W        W97516  32.915  25.749   1.733  0.0546 -0.1995  0.1884
54605W        W97517  34.045  25.300   4.553  0.0855  0.1062 -0.1033
54606W        W97518   0.460  23.714   0.381 -0.1087 -0.1583 -0.1426
54607W        W97519  34.583  24.564   1.624 -0.2057 -0.1714 -0.1446
54608W        W97520  34.038  23.596   2.903 -0.0959  0.0425 -0.0668
54609W        W97521  33.676  25.011   1.987  0.0113  0.1406 -0.0755
54610W        W97522  32.547  23.859  31.376  0.0053  0.2732 -0.0545
54611W        W97523   0.208  22.472  31.034  0.2003 -0.1769 -0.0162
54612W        W97524  33.114  21.973   0.391  0.1317 -0.2248 -0.1106
54613W        W97525  34.473  25.506   1.532  0.1720  0.0432 -0.1606
54614W        W97526  33.597  22.303   2.271  0.1981 -0.0916  0.1581
54615W        W97527  32.615  25.459   2.139 -0.0995  0.1402  0.0697
54616W        W97528  32.558  23.565   1.472  0.3614  0.0108 -0.1853
54617W        W97529  33.504  23.823  31.740  0.1982  0.2804 -0.0348
54618W        W97530  33.690  23.959   2.898 -0.0097 -0.0384 -0.2790
54619W        W97531  33.795  23.850   3.406  0.1233  0.0148 -0.0382
54620W        W97532  32.620  20.494  30.621  0.2022  0.0073  0.2047
54621W        W97533  32.665  23.847   3.207  0.0072 -0.0137 -0.0636
54622W        W97534  33.395  25.619   1.629  0.0622 -0.0416 -0.1031
54623W        W97535  33.873  24.557   0.733 -0.2324 -0.0755  0.1187
54624W        W97536  34.485  25.370   0.679  0.1209  0.1244 -0.1234
54625W        W97537  34.052  25.437   1.103 -0.0742 -0.0921 -0.1485
54626W        W97538  34.278  22.711   3.594 -0.0436  0.0901  0.0033
54627W        W97539  33.728  24.073   1.871 -0.0134 -0.1725  0.2229
54628W        W97540  30.958  25.613   0.179  0.0975  0.4987  0.0423
54629W        W97541  32.397  24.537   1.151  0.1385 -0.1915 -0.0031
54630W        W97542  32.382  25.931   0.822 -0.1855 -0.1439  0.1220
54631W        W97543  33.191  20.841   2.693  0.0484 -0.0614 -0.3095
54632W        W97544  33.700  25.492   2.200 -0.0226 -0.2886  0.2365
54633W        W97545  31.842  21.539   1.943 -0.3952 -0.0827  0.3150
54634W        W97546  33.669  24.849   0.320  0.1626 -0.1084  0.1049
54635W        W97547  32.977  23.437   3.764  0.1218 -0.2917  0.0821
54636W        W97548  34.151  24.075   3.130  0.0769 -0.2081 -0.2430
54637W        W97549  34.560  22.875   3.219 -0.1244  0.1425 -0.2232
54638W        W97550  34.111  22.487   3.163  0.1265 -0.0863  0.1622
54639W        W97551  33.354  22.759  30.847 -0.0055  0.0294 -0.1232
54640W        W97552   0.039  23.749   0.736 -0.1381  0.0421 -0.0740
54641W        W97553  33.150  23.438   0.503  0.2112  0.1888  0.2274
54642W        W97554  34.419  23.684   3.350  0.3871  0.3131 -0.1143
54643W        W97555  33.266  23.856   0.220 -0.0472 -0.2342  0.1148
54644W        W97556  33.199  27.199   1.151  0.1930  0.0706  0.4206
54645W        W97557  34.289  24.314   2.006 -0.2367 -0.0578 -0.1533
54646W        W97558  33.893  22.337   0.915 -0.0683 -0.0886  0.1693
54647W        W97559  32.643  24.531   2.743 -0.1033  0.1432  0.0392
54648W        W97560  33.267  22.457   0.276 -0.0401 -0.2230 -0.0336
54649W        W97561  32.006  26.473  31.210  0.0345 -0.1506  0.1549
54650W        W97562  32.022  22.437   0.586 -0.1080  0.2233  0.0849
54651W        W97563   0.047  25.028   1.617 -0.1319 -0.0078 -0.1219
54652W        W97564  33.058  22.515   4.670  0.0897 -0.0141  0.0695
54653W        W97565  34.475  23.894  31.224 -0.0320 -0.2229  0.4499
54654W        W97566  32.981  23.893   1.300  0.4151 -0.0881 -0.4615
54655W        W97567  33.529  24.239   2.520  0.0070 -0.0293 -0.0079
54656W        W97568   0.515  24.663   0.533  0.2725 -0.1087 -0.0653
54657W        W97569  34.291  25.158   1.871 -0.1402  0.0222  0.3073
54658W        W97570  32.541  24.244   0.669  0.0344 -0.0984 -0.1599
54659W        W97571   0.357  22.462   2.855 -0.1612 -0.0411  0.0160
54660W        W97572  34.596  24.678  31.571 -0.2183 -0.1836 -0.0504
54661W        W97573  31.863  24.975   0.395  0.1961 -0.0861  0.0410
54662W        W97574  33.354  21.945   4.195  0.0092 -0.0129 -0.0948
54663W        W97575  34.573  22.977   0.051  0.2277 -0.0625  0.0915
54664W        W97576   0.924  23.059   2.467  0.0675 -0.1118 -0.0575
54665W        W97577  33.400  22.785   2.241 -0.1384 -0.0356  0.0028
54666W        W97578  32.086  24.159   1.279 -0.2524  0.2026 -0.0963
54667W        W97579   0.105  22.805   4.223 -0.2630 -0.2296  0.0010
54668W        W97580   0.606  25.209  31.859  0.0726 -0.2170 -0.0195
54669W        W97581   1.894  24.236  31.744  0.0878  0.0220 -0.1235
54670W        W97582  33.534  22.746   1.040  0.4716  0.0251 -0.0008
54671W        W97583  32.965  24.699   1.949  0.1904  0.0928  0.1152
54672W        W97584  33.935  27.008   1.055 -0.1050 -0.1830 -0.0979
54673W        W97585  33.718  25.776   1.158  0.0061 -0.0190  0.1826
54674W        W97586  31.361  26.292   2.164 -0.3367  0.2509 -0.2580
54675W        W97587   0.093  21.564  31.584 -0.0763 -0.0987 -0.0973
54676W        W97588  32.204  24.248  31.510 -0.1134  0.0815 -0.3138
54677W        W97589  33.076  21.860   3.780 -0.3402  0.0635 -0.0365
54678W        W97590  33.382  22.386   1.826 -0.0684  0.0573 -0.2095
54679W        W97591  32.197  24.509   1.707 -0.0091 -0.1799 -0.4682
54680W        W97592   0.561  24.759   3.282  0.0323  0.2798 -0.2552
54681W        W97593  32.426  22.731   1.685  0.0292  0.0634 -0.0780
54682W        W97594  32.829  22.404   1.725  0.1852  0.0005  0.0873
54683W        W97595  32.201  26.295   0.476 -0.0174 -0.4005  0.1298
54684W        W97596  33.752  24.254  31.793 -0.0164 -0.2062 -0.0210
54685W        W97597  32.573  23.727   0.686 -0.0475  0.5194 -0.0090
54686W        W97598  34.084  24.218   4.143  0.0072 -0.1684  0.2447
54687W        W97599  33.882  23.144   2.456 -0.0263 -0.1580 -0.1744
54688W        W97600  32.836  21.517   0.770  0.0685 -0.3210 -0.2477
54689W        W97601  33.563  23.246   1.372 -0.1196  0.1944  0.3231
54690W        W97602   0.672  22.901   3.671 -0.3435 -0.0247 -0.0106
54691W        W97603  33.836  23.664   2.466 -0.1525 -0.0513 -0.2811
54692W        W97604  33.251  24.286  31.557  0.1713 -0.2167  0.0566
54693W        W97605  32.491  23.554   2.614 -0.0718 -0.2653 -0.3898
54694W        W97606  33.005  24.223   0.472 -0.1308  0.2551  0.0237
54695W        W97607  34.469  22.320   1.587  0.1641  0.0407 -0.0740
54696W        W97608  32.753  25.106   1.752  0.0081 -0.1855 -0.2585
54697W        W97609  32.704  24.245   2.142  0.1549  0.2347 -0.2227
54698W        W97610  31.686  24.851   1.678 -0.3254 -0.1514 -0.1050
54699W        W97611  32.918  22.780   2.084 -0.1342 -0.0461 -0.2694
54700W        W97612  33.836  22.720   1.986  0.2333  0.0569  0.0135
54701W        W97613  33.200  21.844   2.346  0.1617  0.2360 -0.2533
54702W        W97614  33.374  24.087   1.575  0.0488 -0.0743  0.0203
54703W        W97615  33.736  22.235  30.896 -0.3839  0.1706 -0.1793
54704W        W97616  32.918  24.357   1.049 -0.2603  0.3236 -0.0968
54705W        W97617  34.197  25.483   0.050 -0.2114 -0.5624 -0.2697
54706W        W97618  33.156  23.403   2.067  0.3072 -0.1169  0.3361
54707W        W97619   1.828  24.452   0.261 -0.1636  0.2690  0.0357
54708W        W97620  32.757  23.718   2.185  0.1619 -0.1320 -0.0642
54709W        W97621  34.270  21.383   1.505 -0.1732 -0.1159 -0.2866
54710W        W97622   0.252  22.307   3.900  0.1691 -0.0633 -0.3729
54711W        W97623  33.415  21.318   3.013 -0.1398  0.1363 -0.1317
54712W        W97624  34.439  25.826   1.068  0.2175 -0.0725  0.2621
54713W        W97625  33.713  23.415   0.249  0.1066 -0.1009 -0.1015
54714W        W97626   0.127  25.099  31.727 -0.2446 -0.3025  0.1842
54715W        W97627  32.998  22.614   3.115 -0.1819 -0.2864  0.2759
54716W        W97628  33.501  24.549   1.787  0.0110 -0.0672 -0.0016
54717W        W97629  33.558  23.334   0.786 -0.0696 -0.1148 -0.1437
54718W        W97630   0.998  23.328  31.967 -0.1389 -0.1366 -0.1503
54719W        W97631   1.168  24.392   2.499  0.2202  0.3633  0.1399
54720W        W97632  34.254  22.048   0.173  0.1640 -0.1092  0.2469
54721W        W97633  31.849  24.428   0.811 -0.0262 -0.0425  0.1148
54722W        W97634  33.156  27.005   1.851 -0.1331  0.1114 -0.0624
54723W        W97635  32.056  25.793   2.863 -0.1895 -0.2255  0.4246
54724W        W97636  34.636  26.274   0.606 -0.0646 -0.0393  0.2438
54725W        W97637  33.431  23.694   1.109  0.2394  0.0614  0.0451
54726W        W97638  33.077  23.896   0.802 -0.0256  0.3633 -0.2633
54727W        W97639  32.026  24.163   2.093  0.1608 -0.1746  0.0515
54728W        W97640  32.281  21.605   3.290 -0.2795  0.1376  0.2283
54729W        W97641  33.538  21.756   2.014 -0.4022 -0.1660 -0.1908
54730W        W97642  34.100  24.652   3.904 -0.2105  0.1834 -0.2140
54731W        W97643  33.321  23.830   2.383  0.1198 -0.1082 -0.1119
54732W        W97644  33.916  25.661   1.779 -0.1283 -0.1153  0.1979
54733W        W97645   0.151  23.777   1.448  0.1322 -0.2339  0.0201
54734W        W97646  32.147  25.761   1.449 -0.0791  0.1151 -0.3572
54735W        W97647  32.373  25.815   0.303  0.0801  0.2988 -0.1312
54736W        W97648  32.659  25.854   1.281 -0.1341 -0.2103  0.0414
54737W        W97649  34.177  24.144   1.486  0.0249  0.1245 -0.1921
54738W        W97650  34.232  24.078   0.818  0.0451  0.0166 -0.0088
54739W        W97651  34.349  22.895   2.032  0.1048 -0.2097  0.3159
54740W        W97652  33.554  26.013   2.454  0.1677  0.0036 -0.0759
54741W        W97653  32.814  22.353  31.971  0.0538 -0.1353 -0.2421
54742W        W97654   0.788  24.634   2.627 -0.0299  0.1428 -0.1285
54743W        W97655  33.763  24.225  31.309 -0.3436 -0.0434  0.1668
54744W        W97656  34.359  26.733   1.970  0.1812 -0.3027  0.1297
54745W        W97657  32.959  25.468   2.647 -0.0655  0.1689 -0.0405
54746W        W97658  33.837  25.237   3.604  0.1923  0.2325 -0.0447
54747W        W97659  32.627  21.820   0.363  0.1728 -0.1706 -0.3345
54748W        W97660  34.546  22.551   2.848 -0.0806 -0.3181  0.0759
54749W        W97661  32.533  23.991   1.132 -0.1940 -0.0237 -0.0597
54750W        W97662  33.657  22.984   3.551  0.0316 -0.5536  0.1219
54751W        W97663   0.570  23.994  31.794  0.0636 -0.0570  0.0858
54752W        W97664  32.715  22.587   1.226 -0.0299 -0.1666 -0.1725
54753W        W97665  31.518  25.567   1.079  0.0451  0.1615 -0.2158
54754W        W97666  34.323  23.328   2.528  0.1714 -0.0865  0.0790
54755W        W97667  32.708  23.259   0.594  0.0396  0.0786 -0.0620
54756W        W97668  32.468  25.539   1.688 -0.3362 -0.2834  0.3477
54757W        W97669  33.327  23.659   3.215 -0.1222  0.1744 -0.1391
54758W        W97670  33.169  22.701   0.707  0.0989  0.2126  0.0363
54759W        W97671  34.137  23.768   1.901  0.1509 -0.0799 -0.1182
54760W        W97672  32.489  26.514   0.849 -0.2675  0.0361 -0.2707
54761W        W97673   0.445  25.540   0.244  0.3075  0.0781 -0.1163
54762W        W97674  32.932  26.294   3.470  0.1334 -0.2071 -0.1422
54763W        W97675  34.484  26.144   4.363 -0.0378 -0.1854 -0.0295
54764W        W97676   0.114  24.568  30.637 -0.3752 -0.0641 -0.1940
54765W        W97677  34.489  23.805   2.318 -0.1264 -0.2941  0.1866
54766W        W97678  33.819  24.817   1.265 -0.1630  0.1054 -0.0277
54767W        W97679  34.686  24.772   1.127 -0.2164  0.3870 -0.2744
54768W        W97680  34.398  23.310   0.724 -0.1508  0.0788 -0.0268
54769W        W97681  33.821  21.648   1.480  0.0280  0.1654 -0.1109
54770W        W97682  33.251  25.098   1.748 -0.3136 -0.0440  0.2777
54771W        W97683  33.344  23.473  31.427  0.0295  0.2480 -0.0117
54772W        W97684   0.193  25.946   0.327  0.1537  0.0929 -0.0540
54773W        W97685  33.327  24.666   2.259 -0.1711  0.0941 -0.1458
54774W        W97686  34.352  20.729   3.222  0.1113  0.0194  0.1495
54775W        W97687  33.345  22.015   3.128 -0.4441 -0.3534  0.2165
54776W        W97688  32.957  22.122   3.391 -0.3361 -0.1047  0.1343
54777W        W97689  33.495  22.251   1.218 -0.1051 -0.2079 -0.0135
54778W        W97690  33.788  21.428   2.517  0.1019 -0.1325  0.0757
54779W        W97691  32.970  22.202   2.860  0.0275  0.0143 -0.2400
54780W        W97692  33.935  22.472   1.471 -0.0772 -0.0914  0.3849
54781W        W97693  32.800  24.894  31.935 -0.4179 -0.0936  0.1584
54782W        W97694  34.211  23.205   3.505  0.1985  0.0349 -0.1993
54783W        W97695  33.633  22.947   2.924 -0.4719  0.3012 -0.2094
54784W        W97696  31.906  23.208   1.166  0.1938 -0.1842  0.0515
54785W        W97697   0.826  23.299   2.024  0.1423  0.2395  0.0278
54786W        W97698  33.556  23.431   2.772  0.1377 -0.1803 -0.1601
54787W        W97699  33.431  24.566   3.081  0.2094 -0.0675 -0.5217
54788W        W97700  32.731  20.978   2.529  0.0036  0.0854  0.0578
54789W        W97701  34.681  24.127   3.814 -0.0458 -0.2249 -0.0796
54790W        W97702  33.913  21.404   3.594 -0.0547 -0.0387 -0.1564
54791W        W97703  33.544  24.006   4.315 -0.0810 -0.0599  0.1425
54792W        W97704  34.101  21.990   1.332 -0.0228 -0.2887 -0.1843
54793W        W97705  32.054  23.798   2.433 -0.3671 -0.3409 -0.2794
54794W        W97706   0.552  23.236   0.271 -0.0322  0.1197  0.0883
54795W        W97707   0.397  24.292   3.381 -0.0623  0.1898 -0.1360
54796W        W97708  33.996  22.991   0.677  0.0950  0.1101 -0.0136
54797W        W97709  33.847  24.458   2.821  0.0552  0.0159 -0.1960
54798W        W97710  33.170  23.078   2.940 -0.2507 -0.1236  0.1829
54799W        W97711  34.338  24.488   0.582  0.0515 -0.2450 -0.2098
54800W        W97712   0.224  24.435   1.966  0.0975 -0.0400  0.0990
54801W        W97713  33.917  22.958   1.504 -0.0474  0.3396  0.0257
54802W        W97714  34.094  25.863   2.428 -0.0876  0.1506 -0.0849
54803W        W97715   0.090  24.761   6.770 -0.1690 -0.2034 -0.0380
54804W        W97716  33.221  24.159   3.934 -0.1008 -0.2273 -0.1153
54805W        W97717  32.310  22.185   5.058 -0.3027 -0.3924  0.0127
54806W        W97718  34.005  22.412   6.786  0.1687 -0.0182 -0.2226
54807W        W97719  34.282  24.156   5.329  0.2504  0.1828 -0.1161
54808W        W97720  33.695  23.895   5.992 -0.0508 -0.0692  0.0758
54809W        W97721  33.148  22.272   5.092 -0.0978  0.0380 -0.3414
54810W        W97722  32.422  20.871   5.685 -0.2731  0.2239  0.0631
54811W        W97723  31.179  21.538   3.996  0.2638  0.0516  0.1658
54812W        W97724  32.888  23.596   5.630  0.2800  0.1228 -0.2338
54813W        W97725  34.425  25.023   4.831 -0.3876  0.1287  0.0226
54814W        W97726  33.684  21.734   7.064 -0.0764  0.0653 -0.2175
54815W        W97727  34.432  25.829   3.214  0.1812  0.3613  0.1003
54816W        W97728  32.930  23.950   3.638  0.3376  0.1338 -0.0028
54817W        W97729  32.226  23.786   5.956 -0.1363 -0.0917  0.3254
54818W        W97730  34.059  23.541   6.019  0.1059 -0.2514 -0.0733
54819W        W97731  32.898  25.351   3.966 -0.1275  0.0663 -0.1657
54820W        W97732  34.564  24.521   5.493  0.0814 -0.0331  0.1797
54821W        W97733  33.365  24.626   4.913  0.3776  0.3336  0.0300
54822W        W97734  33.572  25.484   4.545  0.2081  0.1205 -0.2474
54823W        W97735  33.087  24.615   4.454 -0.1595 -0.1856 -0.0233
54824W        W97736  34.660  26.116   6.978  0.0376 -0.4514  0.0376
54825W        W97737  32.505  24.830   5.098  0.0573 -0.0963  0.0422
54826W        W97738  34.010  24.976   7.158 -0.0826 -0.0674  0.1017
54827W        W97739   0.526  25.131   2.992 -0.2340  0.0776 -0.2606
54828W        W97740   0.996  24.601   4.947 -0.0561 -0.0377 -0.2211
54829W        W97741  33.800  24.676   7.622 -0.0720 -0.2103  0.3127
54830W        W97742  32.833  25.491   5.925  0.2166 -0.0993 -0.0004
54831W        W97743  34.174  25.134   3.951  0.2292  0.0526 -0.2255
54832W        W97744   0.391  23.303   2.873 -0.0146 -0.1337 -0.1930
54833W        W97745  33.676  22.804   3.973  0.1071 -0.1082  0.1026
54834W        W97746  31.609  25.220   5.320  0.1155  0.2570 -0.0989
54835W        W97747  33.569  22.509   5.224  0.1861 -0.1277 -0.0175
54836W        W97748  33.827  24.892   6.688  0.3215 -0.2054 -0.0227
54837W        W97749  32.844  23.405   4.746  0.0113  0.1425 -0.0859
54838W        W97750  32.274  23.179   4.688 -0.0896  0.0085  0.0223
54839W        W97751  34.366  25.346   6.767 -0.1485  0.0594 -0.0603
54840W        W97752  33.091  24.311   6.242 -0.2044  0.2266  0.3652
54841W        W97753  33.724  21.864   3.741 -0.0203  0.1673 -0.1052
54842W        W97754  33.567  23.899   7.294  0.2291 -0.0756 -0.1308
54843W        W97755  33.779  22.995   5.151 -0.0779  0.0229  0.0676
54844W        W97756  32.615  23.739   4.016 -0.0627 -0.0000  0.1733
54845W        W97757   0.289  24.496   4.055 -0.1176  0.1639 -0.1053
54846W        W97758   0.348  23.754   5.870  0.0639 -0.0972  0.0419
54847W        W97759  33.909  23.812   5.491  0.1991  0.3487 -0.3735
54848W        W97760   1.295  25.817   5.006  0.2259 -0.2473 -0.0617
54849W        W97761  33.965  26.187   3.508  0.0592  0.0534 -0.0481
54850W        W97762  31.328  23.504   5.003  0.1317  0.0437 -0.0935
54851W        W97763  32.608  24.687   4.433 -0.0247  0.1841  0.1663
54852W        W97764  31.874  22.912   5.679  0.0421  0.0761 -0.0528
54853W        W97765  33.233  24.669   5.823  0.1648  0.1141  0.0455
54854W        W97766  34.132  21.677   6.089 -0.2697  0.0840  0.1237
54855W        W97767  33.321  23.614   4.653 -0.0907 -0.0519  0.0473
54856W        W97768  32.158  24.034   6.742 -0.0165 -0.0456 -0.0755
54857W        W97769  34.485  22.547   5.125 -0.0952  0.3100  0.1813
54858W        W97770  32.576  23.119   7.147  0.0541 -0.0747  0.0111
54859W        W97771  34.570  23.246   3.864 -0.0058 -0.2549  0.1108
54860W        W97772  33.436  21.527   4.004 -0.2499 -0.0309 -0.0433
54861W        W97773   0.365  24.260   5.457  0.1079  0.4040 -0.5903
54862W        W97774  31.886  24.054   3.685 -0.0276 -0.1986 -0.0740
54863W        W97775  32.709  23.588   7.044  0.0920 -0.0361 -0.3684
54864W        W97776  32.040  21.512   3.788  0.1139 -0.1843  0.2143
54865W        W97777  32.948  25.075   3.565  0.3905  0.0784 -0.1726
54866W        W97778  34.112  24.809   5.311  0.3305 -0.2546  0.2263
54867W        W97779  32.863  22.126   4.375  0.2227 -0.1932  0.1738
54868W        W97780  34.293  24.667   6.876  0.1621 -0.0342  0.2435
54869W        W97781  32.917  21.108   3.298  0.2773 -0.2794 -0.2453
54870W        W97782  34.668  24.891   3.872  0.1377  0.2189 -0.3417
54871W        W97783  33.126  23.630   5.187 -0.0665  0.1352 -0.0363
54872W        W97784  33.466  24.530   4.135 -0.1715  0.0575  0.1439
54873W        W97785  33.748  23.943   8.142 -0.2337  0.1354 -0.0719
54874W        W97786  33.929  23.269   3.884 -0.2938  0.0692  0.1887
54875W        W97787  33.856  24.298   6.713 -0.1532 -0.1899  0.1083
54876W        W97788  32.592  23.817   8.576  0.0943 -0.0088 -0.2598
54877W        W97789  33.669  24.918   4.720  0.0934 -0.1855 -0.4354
54878W        W97790  33.589  24.822   5.254 -0.1515 -0.0038 -0.1578
54879W        W97791  32.078  24.235   5.482  0.0052 -0.0226  0.0214
54880W        W97792   0.390  21.194   4.686  0.0737  0.1040  0.1446
54881W        W97793   0.003  23.338   4.317 -0.1777 -0.0821  0.0802
54882W        W97794  33.775  25.238   1.533 -0.3861  0.4278  0.0052
54883W        W97795  33.577  21.942   5.090 -0.1180  0.1126 -0.0014
54884W        W97796  32.474  22.539   4.365  0.1361  0.0525  0.0872
54885W        W97797   0.344  21.588   6.379  0.0668  0.3863 -0.2910
54886W        W97798  34.516  24.041   7.074 -0.2370  0.2569 -0.1826
54887W        W97799  32.931  25.678   7.016  0.2222  0.0781  0.0081
54888W        W97800  34.376  23.581   5.521  0.2020 -0.1822  0.0446
54889W        W97801  32.769  26.220   5.337  0.0227  0.3009  0.4295
54890W        W97802  34.209  24.127   3.637  0.1342  0.0505  0.1010
54891W        W97803  33.780  22.228   4.750  0.0750 -0.2563 -0.2721
54892W        W97804   0.415  25.228   5.799  0.0609  0.0492 -0.0260
54893W        W97805  33.681  24.224   3.776 -0.0567 -0.4799 -0.0410
54894W        W97806  33.006  24.962   4.827 -0.0849  0.0934  0.1162
54895W        W97807  32.138  25.313   5.125  0.0645 -0.1737  0.1204
54896W        W97808  33.146  22.691   3.593 -0.0207 -0.1040 -0.0673
54897W        W97809  32.216  24.506   4.842 -0.0095  0.1693 -0.0557
54898W        W97810  32.557  21.737   6.336  0.2902  0.1286  0.0279
54899W        W97811  34.148  22.169   5.248 -0.2813  0.0951 -0.0299
54900W        W97812  33.370  25.115   6.069  0.0242 -0.2261 -0.1898
54901W        W97813   0.218  23.813   7.374  0.0676  0.3566 -0.3662
54902W        W97814  33.198  23.147   3.458 -0.0566 -0.0745 -0.3203
54903W        W97815  33.338  23.192   4.945  0.2246 -0.0310  0.1769
54904W        W97816  33.048  25.630   3.560 -0.1778  0.0245 -0.3699
54905W        W97817  33.790  23.064   4.352 -0.1129 -0.1319 -0.1136
54906W        W97818  33.131  24.221   5.159  0.3157  0.1847 -0.2286
54907W        W97819  33.326  23.023   6.307 -0.2355 -0.0775 -0.0040
54908W        W97820  33.126  23.162   5.375  0.0369 -0.2085  0.0152
54909W        W97821  33.275  23.112   3.969 -0.2380 -0.0281 -0.0690
54910W        W97822   0.704  23.464   5.661 -0.0145 -0.3992  0.1412
54911W        W97823  34.013  22.782   5.624  0.2326  0.3915 -0.0407
54912W        W97824  33.298  23.903   7.792 -0.2099  0.1803 -0.0139
54913W        W97825  32.838  24.005   4.397 -0.0555  0.3537  0.2713
54914W        W97826  31.712  23.883   5.819 -0.3003  0.1096  0.2288
54915W        W97827  33.617  24.783   3.708  0.2047  0.0892 -0.1673
54916W        W97828  34.132  20.849   5.888 -0.0352 -0.0813  0.2159
54917W        W97829  32.944  24.343   5.606  0.0110  0.1217  0.1990
54918W        W97830  33.258  25.069   4.284 -0.3691 -0.2452  0.4020
54919W        W97831  32.808  23.496   6.140  0.1808 -0.3646 -0.5033
54920W        W97832   0.558  23.154   5.252 -0.1755  0.0905 -0.1377
54921W        W97833  33.945  23.288   5.609  0.1164 -0.1232 -0.1810
54922W        W97834  32.510  23.487   7.508 -0.0624  0.0512 -0.0701
54923W        W97835  34.496  23.531   6.988 -0.1350  0.1467  0.2641
54924W        W97836  32.783  20.982   5.154  0.0247  0.0233  0.2161
54925W        W97837  33.736  23.354   4.717  0.1592 -0.0534  0.1502
54926W        W97838   0.553  23.771   5.306 -0.2854 -0.0794  0.0268
54927W        W97839  32.789  24.024   5.947 -0.1026 -0.0634  0.1665
54928W        W97840   0.633  24.127   3.883 -0.1237 -0.0530 -0.0735
54929W        W97841  33.774  24.255   4.691  0.1730  0.0235 -0.2905
54930W        W97842  34.337  22.650   7.797 -0.1150 -0.1667 -0.2833
54931W        W97843   0.189  24.692   7.226  0.0592  0.0551  0.0848
54932W        W97844  32.924  22.268   7.558 -0.2826  0.1047 -0.0722
54933W        W97845  32.980  22.895   5.029  0.1282  0.0241 -0.1816
54934W        W97846  33.257  20.876   3.632 -0.0969 -0.3843 -0.0752
54935W        W97847   0.131  24.694   2.964  0.0159  0.1173 -0.0516
54936W        W97848  32.706  22.288   5.393  0.3271  0.1994  0.1292
54937W        W97849  33.426  25.150   6.610  0.1434 -0.2949 -0.0388
54938W        W97850  34.276  22.868   4.096  0.0445 -0.1031  0.1042
54939W        W97851   0.204  23.690   3.749  0.0061  0.1726  0.1190
54940W        W97852   0.199  25.034   4.682 -0.2026  0.0456 -0.2173
54941W        W97853  33.632  21.751   4.567  0.0707  0.0250 -0.0701
54942W        W97854  32.733  25.770   4.337  0.2473  0.2426 -0.2210
54943W        W97855  33.878  26.509   5.517 -0.0483 -0.1181  0.0055
54944W        W97856  32.389  25.010   7.068 -0.1801  0.3062 -0.0102
54945W        W97857  34.402  23.894   4.882 -0.1554 -0.0685  0.0764
54946W        W97858   0.343  24.260   6.049 -0.4266 -0.2240 -0.0897
54947W        W97859  33.494  22.890   5.645  0.2236 -0.0380  0.1433
54948W        W97860  32.943  24.818   5.286 -0.0141  0.0590 -0.5686
54949W        W97861  32.534  23.974   8.094 -0.0597  0.1117 -0.0736
54950W        W97862  33.271  22.081   4.674  0.1567 -0.1233 -0.0808
54951W        W97863  33.377  24.370   7.575  0.1383  0.1141 -0.0397
54952W        W97864   0.092  23.913   5.194  0.2040 -0.1611 -0.0505
54953W        W97865  34.217  25.378   3.219  0.0034 -0.0845 -0.1813
54954W        W97866  34.068  22.153   4.037 -0.1011 -0.1221 -0.0003
54955W        W97867  33.383  24.259   6.990  0.1393 -0.1374  0.2158
54956W        W97868  33.816  24.448   3.324  0.1768 -0.0468 -0.2056
54957W        W97869  33.632  25.626   5.339  0.0321 -0.2041 -0.2933
54958W        W97870  33.470  24.409   5.491  0.1289  0.0875 -0.2528
54959W        W97871  33.324  22.298   3.855  0.0279 -0.1669 -0.1395
54960W        W97872   0.283  23.724   6.855  0.0395 -0.0276 -0.0834
54961W        W97873  32.537  24.536   6.932 -0.3546 -0.0965  0.1032
54962W        W97874  32.639  22.557   4.989 -0.0080 -0.0445 -0.1989
54963W        W97875  32.768  23.364   4.272  0.1775 -0.2658 -0.3030
54964W        W97876  34.599  24.272   2.515  0.1327 -0.1469 -0.0945
54965W        W97877  34.236  24.259   4.580 -0.0122 -0.7329 -0.3109
54966W        W97878  33.181  24.840   6.925 -0.5181  0.1292 -0.2284
54967W        W97879  32.738  25.285   5.105 -0.1088  0.4402 -0.0895
54968W        W97880  31.651  22.080   4.652  0.2741  0.1782 -0.0724
54969W        W97881  34.025  23.686   7.253 -0.2643 -0.0990 -0.5141
54970W        W97882  33.626  23.498   4.244  0.2572 -0.2551  0.1631
54971W        W97883  33.092  23.316   7.473 -0.2439 -0.1006 -0.0880
54972W        W97884   0.703  23.665   3.950 -0.3738  0.0313  0.0568
54973W        W97885  33.107  21.726   4.974 -0.2256 -0.0902  0.0747
54974W        W97886  32.825  23.938   4.904 -0.0814 -0.2155 -0.2448
54975W        W97887  33.743  23.761   6.776  0.1459 -0.2434  0.1002
54976W        W97888  32.797  22.107   6.651  0.1925 -0.3763 -0.3256
54977W        W97889  33.404  25.246   3.829  0.2301  0.3031 -0.0146
54978W        W97890  33.457  24.622   6.543 -0.0422 -0.0145 -0.0643
54979W        W97891  34.588  21.941   4.021  0.1651 -0.0076 -0.1684
54980W        W97892  33.512  23.460   5.813  0.1277  0.2687  0.3016
54981W        W97893  33.416  25.260   5.029 -0.0731 -0.2338 -0.2743
54982W        W97894  34.356  24.607   3.084 -0.0036 -0.0146 -0.0108
54983W        W97895  34.214  23.967   5.862  0.2445 -0.2164  0.0342
54984W        W97896   0.208  24.334   7.562 -0.1166 -0.1812  0.0824
54985W        W97897  32.019  23.554   4.349 -0.2644  0.0634 -0.0335
54986W        W97898  34.479  23.679   6.530 -0.1128  0.0559  0.0249
54987W        W97899   0.348  24.716   5.745  0.0091 -0.1415 -0.1281
54988W        W97900  34.680  25.896   3.774  0.3311  0.1758  0.0690
54989W        W97901   0.805  23.269   4.820  0.1582  0.0219 -0.2009
54990W        W97902   0.221  23.661   4.716 -0.1355  0.2007  0.0802
54991W        W97903  32.433  23.763   6.439 -0.0772  0.0321  0.0718
54992W        W97904  31.392  22.757   4.381  0.0519 -0.1241 -0.1738
54993W        W97905  34.394  23.693   3.898  0.0507  0.1515 -0.0844
54994W        W97906  33.529  23.881   5.015  0.3216  0.0114 -0.0570
54995W        W97907   0.142  21.058   6.754  0.0338  0.1383 -0.1470
54996W        W97908  34.063  23.386   6.621 -0.2257 -0.2067 -0.1465
54997W        W97909  32.508  25.230   5.578 -0.1508 -0.1393  0.3834
54998W        W97910  32.576  21.406   3.586 -0.3898  0.0241 -0.1664
54999W        W97911  34.632  22.300   6.037  0.1975 -0.1399  0.2406
55000W        W97912  32.839  21.797   5.394  0.2649  0.1184 -0.4837
55001W        W97913  34.539  23.830   4.405 -0.2941 -0.0606  0.1466
55002W        W97914  34.051  24.081   2.531  0.0067 -0.2108  0.0735
55003W        W97915  34.546  23.543   5.958 -0.1766  0.0146 -0.2186
55004W        W97916   0.213  21.809   6.805  0.0562 -0.2817  0.1893
55005W        W97917  32.000  20.854   5.924  0.0828  0.0190 -0.1383
55006W        W97918  34.021  24.401   6.167 -0.0363  0.0081  0.2107
55007W        W97919  33.924  24.345   5.642  0.0997 -0.1399 -0.1789
55008W        W97920  34.655  25.174   6.430  0.1327  0.1480 -0.2075
55009W        W97921  33.074  23.188   6.991 -0.2175  0.0010 -0.2586
55010W        W97922   0.122  24.152   6.576 -0.2075  0.2085  0.2960
55011W        W97923  34.635  21.765   6.051  0.1725  0.0441 -0.4541
55012W        W97924   0.280  23.288   7.127  0.3012 -0.0489 -0.2874
55013W        W97925  33.487  21.368   4.968  0.0273 -0.2965  0.2313
55014W        W97926  33.458  24.041   6.487 -0.3352 -0.2205  0.1023
55015W        W97927   1.135  23.566   4.631 -0.1993  0.0308  0.0060
55016W        W97928   0.174  23.305   5.661  0.1099 -0.1364  0.0088
55017W        W97929   0.880  23.973   3.431  0.0600 -0.1859 -0.0797
55018W        W97930   0.069  24.898   7.777  0.0174  0.0122  0.3933
55019W        W97931  33.073  23.151   5.851  0.3324 -0.1767  0.2877
55020W        W97932  32.724  22.911   4.561 -0.0027 -0.0369  0.0229
55021W        W97933  33.950  25.225   5.073  0.2706  0.2209  0.0081
55022W        W97934  33.608  23.432   5.303 -0.0198  0.4392  0.1912
55023W        W97935  33.756  24.801   6.181 -0.1967  0.0798 -0.0633
55024W        W97936  32.407  25.130   9.048  0.0089  0.3466  0.0897
55025W        W97937  32.287  22.329   8.286  0.0641 -0.1710 -0.0078
55026W        W97938  32.598  22.135   7.903 -0.0027 -0.2478 -0.3923
55027W        W97939  33.738  21.530   9.745 -0.0800  0.0607 -0.1540
55028W        W97940  33.010  21.848   7.842 -0.1737  0.3050  0.1814
55029W        W97941  32.298  21.641   9.803  0.1576 -0.1074 -0.3078
55030W        W97942  34.039  23.217   7.505  0.0357  0.1125 -0.1327
55031W        W97943  32.805  20.486  10.079  0.0102  0.2643 -0.1435
55032W        W97944  34.366  23.302   7.902 -0.3019 -0.0855 -0.0976
55033W        W97945  34.230  23.389  10.022 -0.3153 -0.1054  0.0716
55034W        W97946   0.574  25.545   8.308 -0.0594 -0.0936  0.1152
55035W        W97947  33.393  22.919   7.233  0.0388 -0.0032 -0.0863
55036W        W97948  31.713  24.085   9.271 -0.1150 -0.2126 -0.0811
55037W        W97949  34.566  24.352   8.866 -0.1688 -0.3000 -0.2502
55038W        W97950  33.779  24.403   8.416 -0.0522  0.0159 -0.0238
55039W        W97951   1.314  24.894   8.366 -0.1888  0.0225  0.2030
55040W        W97952  34.252  24.601   8.341  0.1682 -0.0617 -0.1616
55041W        W97953  33.363  24.872   7.418 -0.0416 -0.0913 -0.1774
55042W        W97954   0.039  23.895   7.831 -0.0927  0.1698 -0.1447
55043W        W97955  34.400  24.135   7.603 -0.0734 -0.0027 -0.0632
55044W        W97956  34.672  24.813   8.554 -0.0314  0.0067  0.1443
55045W        W97957   0.940  24.099   9.662 -0.0752  0.0958  0.0944
55046W        W97958  31.721  24.488   9.976  0.0920  0.2734  0.0293
55047W        W97959  34.361  24.614   7.615 -0.1307 -0.1505  0.2368
55048W        W97960  33.893  22.916   6.562 -0.1607 -0.3296 -0.0407
55049W        W97961  33.956  21.806   8.102 -0.0324  0.1818 -0.0426
55050W        W97962  33.356  25.512   8.673 -0.1384 -0.1105 -0.0178
55051W        W97963   0.645  22.885   9.992  0.4765 -0.1916 -0.1436
55052W        W97964  33.263  24.951   9.562 -0.3667 -0.1359  0.0354
55053W        W97965  33.159  22.972   9.554  0.0399 -0.0367 -0.2858
55054W        W97966  33.505  24.008   8.597  0.1490 -0.1865 -0.1722
55055W        W97967  33.550  21.489   8.367 -0.0823  0.3161 -0.2278
55056W        W97968   0.175  24.832   9.026 -0.0068  0.5586  0.0638
55057W        W97969  34.083  24.191   7.231 -0.0360 -0.0694 -0.2700
55058W        W97970  34.131  24.267   8.006 -0.2934 -0.1904  0.0511
55059W        W97971  33.889  24.898   8.585  0.1848  0.2438 -0.0122
55060W        W97972  33.905  25.425   8.617 -0.2242 -0.2257 -0.0309
55061W        W97973  33.256  24.077   9.109 -0.0673 -0.2366 -0.1785
55062W        W97974  33.105  22.403   8.257 -0.6110 -0.0123 -0.1189
55063W        W97975  31.829  21.251   9.330  0.1299  0.0756 -0.1753
55064W        W97976  33.723  25.031   9.039 -0.3151  0.1118 -0.2735
55065W        W97977  33.748  23.568   7.679 -0.1204 -0.0288  0.0689
55066W        W97978  33.577  23.455   9.802  0.0696  0.3925 -0.3179
55067W        W97979  33.001  22.640   6.546 -0.0075 -0.2576 -0.0621
55068W        W97980  33.590  22.691   9.601  0.1961  0.4286 -0.4976
55069W        W97981  33.612  22.583   7.529 -0.0261 -0.2124  0.1828
55070W        W97982   0.157  23.899   8.765  0.1311  0.2746  0.0482
55071W        W97983  32.897  24.498   8.213 -0.2067  0.0605  0.0897
55072W        W97984  32.073  23.218   9.592 -0.1088  0.0820  0.2952
55073W        W97985  33.664  22.645   6.230  0.0940  0.0559 -0.2223
55074W        W97986  33.493  25.155   8.259 -0.1617 -0.0260 -0.1183
55075W        W97987  34.034  24.412   8.860  0.2032 -0.0902 -0.1427
55076W        W97988  33.214  23.752   6.886 -0.1133 -0.1410 -0.2362
55077W        W97989  33.733  22.294   8.457  0.2855  0.1468 -0.0566
55078W        W97990  33.368  24.653   8.453 -0.0754 -0.1519  0.0159
55079W        W97991  33.042  24.002   8.275  0.0036  0.3404 -0.0433
55080W        W97992   0.522  24.870   8.552  0.2331 -0.3688 -0.0191
55081W        W97993  32.968  22.658   7.155  0.3283 -0.0889 -0.1724
55082W        W97994   1.080  24.484   7.393  0.3644 -0.0342  0.3978
55083W        W97995  34.330  25.140   8.551 -0.1749 -0.2717 -0.0599
55084W        W97996  30.818  24.071   8.813  0.2024 -0.1325 -0.0254
55085W        W97997  34.642  21.535   9.525 -0.0058 -0.3898 -0.1638
55086W        W97998  34.051  23.491   5.100 -0.2985  0.0726  0.0688
55087W        W97999  34.113  25.114   7.637  0.2892 -0.0338 -0.3348
55088W        W98000  34.523  23.131   7.267  0.2461 -0.0017 -0.0515
55089W        W98001   0.326  24.394   8.545  0.1864 -0.4688  0.0341
55090W        W98002  33.907  26.527   9.536  0.1715  0.0961 -0.2454
55091W        W98003   0.441  25.297   8.770  0.0129 -0.0205 -0.3496
55092W        W98004   0.298  24.716   8.166 -0.3570  0.0034  0.0439
55093W        W98005  34.035  21.939   8.708  0.2312 -0.0147 -0.0378
55094W        W98006  34.600  24.528   9.451 -0.2897 -0.1693  0.0857
55095W        W98007  34.529  24.985   7.214 -0.0970 -0.0143 -0.1295
55096W        W98008  34.371  23.904   8.862 -0.1749  0.4081  0.3084
55097W        W98009  33.504  24.481   8.904 -0.2068  0.2420  0.0760
55098W        W98010  33.375  22.816   6.787 -0.0756 -0.1239 -0.2361
55099W        W98011  32.657  22.966   9.335  0.0811  0.2355  0.1017
55100W        W98012  33.295  23.808   9.532  0.1777 -0.0804 -0.0092
55101W        W98013  33.365  23.771  10.220 -0.0333 -0.0204 -0.0014
55102W        W98014  32.861  25.004   9.250 -0.2999  0.0922  0.0400
55103W        W98015  33.821  23.973   8.969  0.0943 -0.0021  0.0529
55104W        W98016  33.957  22.941   7.880  0.1578  0.1570  0.1978
55105W        W98017  34.416  25.015   8.086  0.0252 -0.1019 -0.3626
55106W        W98018  34.237  23.775   8.082  0.1260 -0.0731 -0.0283
55107W        W98019  32.487  25.239   9.504  0.0959  0.2345 -0.1348
55108W        W98020  33.817  22.790   8.491 -0.0695  0.0218 -0.0692
55109W        W98021  34.287  22.857   8.301 -0.0951 -0.0417 -0.0788
55110W        W98022  34.644  23.484   8.276  0.1829 -0.0611 -0.1217
55111W        W98023   0.311  23.442   8.714 -0.1884  0.2603 -0.0061
55112W        W98024   0.152  25.254   8.328  0.0556 -0.1585 -0.2639
55113W        W98025  33.012  22.528   9.403 -0.2873 -0.3712  0.0643
55114W        W98026  34.070  25.800   8.994 -0.1140  0.0774 -0.2167
55115W        W98027  33.467  21.095   8.864  0.2556  0.0529  0.0036
55116W        W98028  32.993  26.061   9.578  0.1648  0.0654  0.1423
55117W        W98029   0.654  26.004   8.724 -0.2405 -0.0839 -0.2602
55118W        W98030  30.104  24.516   8.898  0.0548 -0.0018  0.1484
55119W        W98031  34.586  22.273   6.937 -0.0334  0.1913 -0.2046
55120W        W98032  32.346  21.347   9.356  0.1351 -0.0035  0.0250
55121W        W98033  34.116  22.739   7.368 -0.2229 -0.2322  0.1726
55122W        W98034  34.578  23.447   9.027  0.1963  0.3742 -0.0967
55123W        W98035  34.651  22.615   7.310 -0.1104  0.0563 -0.0938
55124W        W98036  32.183  24.313   9.489  0.1231  0.1068  0.0807
55125W        W98037  34.655  24.021   8.342  0.0713 -0.0781 -0.0067
55126W        W98038  34.288  23.961   9.639  0.1717 -0.1046  0.0900
55127W        W98039  33.069  23.363   9.285 -0.0773  0.0089  0.1574
55128W        W98040  33.033  22.698   7.853 -0.0699 -0.1772  0.1084
55129W        W98041   0.384  25.185   7.469  0.0862  0.2682 -0.0229
55130W        W98042  32.725  21.284   9.847 -0.2582 -0.3250 -0.2211
55131W        W98043  33.783  24.131   7.692 -0.0419 -0.3318 -0.4733
55132W        W98044   0.728  23.778   7.057  0.2026 -0.0181  0.3547
55133W        W98045  33.950  25.566   9.535  0.0845 -0.1099  0.1136
55134W        W98046   0.693  21.040   6.848  0.0216  0.1056 -0.5825
55135W        W98047  32.990  23.800   7.410  0.0070  0.4537  0.0767
55136W        W98048  33.393  26.140   8.864  0.0820  0.2475  0.3839
55137W        W98049  33.252  25.978   8.404  0.0028  0.0888  0.0964
55138W        W98050  33.916  25.814   9.979  0.5175 -0.0468 -0.2032
55139W        W98051  33.147  21.428   8.667 -0.0158 -0.1365 -0.2396
55140W        W98052  33.567  24.743   9.919  0.1963  0.1459 -0.0894
55141W        W98053   0.378  22.786   8.706  0.0490  0.2289  0.1737
55142W        W98054  33.695  23.112   8.900 -0.1326  0.1121  0.2267
55143W        W98055  34.474  25.610   8.542 -0.3470 -0.2948 -0.1684
55144W        W98056  34.372  22.144   6.447  0.0447 -0.1028  0.1715
55145W        W98057  33.898  24.831   8.106 -0.1565  0.0569  0.0473
55146W        W98058  32.664  25.394   7.340 -0.4010 -0.1669 -0.0741
55147W        W98059  32.879  24.731   7.768  0.2247  0.0450 -0.0717
55148W        W98060  33.592  23.144   9.392  0.1193  0.0245 -0.2811
55149W        W98061  32.950  23.907   6.482  0.0107 -0.2233 -0.2286
55150W        W98062  32.643  22.714   7.535  0.0397  0.1192 -0.1063
55151W        W98063  33.685  22.272   9.019 -0.0640  0.1434 -0.0563
55152W        W98064   0.402  24.328   6.949  0.1493 -0.4874  0.2925
55153W        W98065  33.331  26.355   8.011  0.2355  0.1359 -0.4688
55154W        W98066   0.057  24.187   9.772 -0.0878 -0.1071  0.4923
55155W        W98067   0.295  26.377   9.768  0.0639  0.1165 -0.1016
55156W        W98068  33.814  22.212   7.283  0.0387 -0.2226  0.3059
55157W        W98069  33.450  24.177   9.858  0.0960 -0.0514  0.3145
55158W        W98070  33.547  23.106   7.685  0.0297  0.0154  0.2085
55159W        W98071  33.392  21.887  10.090 -0.0355 -0.1952  0.2132
55160W        W98072  34.031  22.260   5.869 -0.0506 -0.1848 -0.2001
55161W        W98073  33.481  23.140   8.435  0.2939 -0.0864  0.1877
55162W        W98074  33.200  23.128   8.839  0.0195  0.2619 -0.0208
55163W        W98075  33.092  24.377   9.611  0.0244 -0.0848  0.1161
55164W        W98076  32.947  21.329   7.630 -0.0097  0.0857  0.0969
55165W        W98077  34.661  25.525   7.192 -0.1345 -0.1770  0.0374
55166W        W98078  34.227  21.385   9.832  0.0310 -0.0078  0.0977
55167W        W98079   0.219  23.065   9.094 -0.2252 -0.2928  0.0583
55168W        W98080  33.196  22.298   8.907  0.2527  0.1529  0.0028
55169W        W98081  32.224  25.080   8.555 -0.3453  0.0320 -0.1792
55170W        W98082   0.888  24.394   6.910  0.1493  0.1013 -0.4056
55171W        W98083   0.000  23.901   9.271 -0.2660  0.1274 -0.1698
55172W        W98084  34.217  23.566   8.546 -0.1573  0.0034 -0.2351
55173W        W98085  34.625  24.375   7.994  0.0954 -0.0464  0.0537
55174W        W98086  34.672  25.311   8.901  0.0899 -0.1288 -0.1709
55175W        W98087  34.395  23.617   7.530 -0.3251  0.1559  0.0698
55176W        W98088   0.220  22.757   9.541  0.3552 -0.1226  0.0980
55177W        W98089  33.585  24.526   9.412  0.0050 -0.2276  0.1184
55178W        W98090  33.005  24.263   8.720 -0.0550 -0.4115 -0.0398
55179W        W98091  33.412  24.291   8.102 -0.0455  0.0278  0.0725
55180W        W98092  32.574  23.654   9.993  0.0840 -0.1398  0.0858
55181W        W98093  33.247  21.738   9.620 -0.0210 -0.2007  0.2659
55182W        W98094  33.529  22.760   8.083 -0.0074 -0.1761  0.0527
55183W        W98095  34.096  21.327   7.689 -0.0460  0.2251 -0.4155
55184W        W98096  33.531  21.415   9.297 -0.0565  0.0524 -0.0681
55185W        W98097  34.199  22.289   8.304 -0.0542  0.1834 -0.4658
55186W        W98098  33.707  25.667   7.715  0.3054 -0.1290  0.2581
55187W        W98099  32.403  21.842   6.959 -0.0535 -0.0352 -0.2658
55188W        W98100  34.299  22.226   9.036  0.2845  0.0186  0.0504
55189W        W98101  33.838  20.340   9.862 -0.0085  0.1358 -0.0736
55190W        W98102   0.156  22.890   7.659 -0.0989  0.0210  0.2001
55191W        W98103  33.370  22.651   8.657 -0.0078 -0.2789 -0.1519
55192W        W98104   0.962  22.456   7.955 -0.0652  0.3609  0.4469
55193W        W98105   0.805  23.704   6.177  0.0770  0.0394  0.4725
55194W        W98106   0.759  27.255   9.742  0.0472  0.0962 -0.0810
55195W        W98107  33.922  23.530   9.455  0.0412 -0.0728  0.5425
55196W        W98108  34.159  25.318   9.084  0.1878  0.2358  0.2056
55197W        W98109  33.765  24.066   9.456  0.4477  0.0480 -0.0064
55198W        W98110  33.991  22.320   9.501 -0.0240 -0.2842 -0.1000
55199W        W98111   0.498  23.853   9.686  0.0223 -0.1188 -0.0021
55200W        W98112  34.543  29.667   1.266  0.2478  0.0763 -0.1685
55201W        W98113  32.075  26.409  31.697  0.2599  0.1582 -0.0871
55202W        W98114  33.364  26.061   1.915  0.0017  0.0620 -0.1847
55203W        W98115  33.355  26.244   1.001 -0.0037 -0.1966 -0.0133
55204W        W98116  34.275  26.840   1.492 -0.0502 -0.0734  0.1038
55205W        W98117  33.792  29.018   2.109 -0.1392  0.1447  0.2281
55206W        W98118  33.828  24.537   2.242 -0.0337 -0.1219 -0.2998
55207W        W98119  32.825  26.141   0.919 -0.2957 -0.0155  0.0010
55208W        W98120  33.972  27.296   1.482 -0.1402  0.1504 -0.1120
55209W        W98121  34.145  27.061   0.225  0.2634  0.0405 -0.1109
55210W        W98122  34.347  26.766   2.961  0.0023  0.2174  0.0458
55211W        W98123  34.267  27.437  30.592  0.1344 -0.0878  0.1382
55212W        W98124  33.094  27.246  31.821 -0.1507 -0.1032  0.3226
55213W        W98125  32.004  26.468   1.564  0.2759 -0.3680  0.1299
55214W        W98126  33.267  26.600   2.301  0.3841  0.1276 -0.0072
55215W        W98127  34.303  29.013  31.509  0.0509 -0.4002 -0.0293
55216W        W98128   0.738  29.971   0.398  0.0842  0.2775  0.3953
55217W        W98129  32.608  27.257   1.857 -0.0531 -0.0345 -0.1870
55218W        W98130  32.296  29.327   1.882 -0.2989  0.1733 -0.0527
55219W        W98131  34.262  28.523   0.971  0.4167  0.0832 -0.0437
55220W        W98132  34.662  28.774   2.030 -0.0640 -0.2655  0.1151
55221W        W98133  33.778  28.599   0.135  0.0988 -0.1417 -0.1456
55222W        W98134  33.494  29.037   2.548 -0.0582  0.1475 -0.1260
55223W        W98135  33.759  28.408  30.937 -0.3058 -0.1942 -0.2624
55224W        W98136  34.466  27.279   1.274  0.1095  0.1365 -0.2210
55225W        W98137  34.016  28.442   2.976 -0.3950 -0.0757  0.2426
55226W        W98138  33.153  28.409   1.891  0.0001  0.0144 -0.3411
55227W        W98139  32.626  28.493  31.850  0.0628 -0.1152 -0.3057
55228W        W98140  34.470  26.920  31.821  0.2138 -0.0825 -0.3624
55229W        W98141  34.652  26.300   1.099 -0.0128  0.0746 -0.2070
55230W        W98142  32.463  29.588   0.581 -0.2355  0.2467 -0.1825
55231W        W98143   0.054  26.920   1.507 -0.0926  0.1475  0.0494
55232W        W98144  33.544  28.088   2.267  0.2036  0.1295 -0.1368
55233W        W98145  32.977  26.887   2.647  0.0769 -0.0137  0.0076
55234W        W98146  33.178  27.906   1.693  0.0048 -0.1786  0.3256
55235W        W98147  32.796  28.124   4.756  0.3185 -0.1676 -0.0007
55236W        W98148  33.338  27.712   2.563 -0.2521  0.2941 -0.1782
55237W        W98149  34.095  27.653  31.558  0.0866 -0.1305  0.0816
55238W        W98150  33.147  28.432   3.122  0.0379 -0.2426 -0.0389
55239W        W98151  34.194  26.219   0.857  0.0876  0.1430 -0.1844
55240W        W98152  34.239  28.439   0.472  0.1318  0.1273  0.0935
55241W        W98153  34.254  28.763   0.094 -0.1716  0.0815  0.4143
55242W        W98154  32.522  28.910   2.019  0.1331  0.0732 -0.1241
55243W        W98155  34.114  27.187   2.246  0.2093  0.1356  0.1081
55244W        W98156  34.511  28.331   3.907 -0.1081  0.1826 -0.1243
55245W        W98157  32.514  28.333   0.484  0.2117  0.1408  0.0790
55246W        W98158  32.480  27.159   2.757 -0.1558 -0.0371 -0.2252
55247W        W98159  32.335  27.273   1.389  0.0982  0.3003 -0.0401
55248W        W98160  31.911  26.329   2.057  0.1032  0.2498  0.0018
55249W        W98161  34.403  28.485   3.374 -0.1323 -0.4198  0.0994
55250W        W98162  32.864  27.431   4.045  0.1162  0.1037 -0.2948
55251W        W98163  33.800  28.495   0.662  0.1239 -0.0321 -0.0361
55252W        W98164  33.447  27.261   2.481 -0.1370  0.2005  0.0560
55253W        W98165  32.294  27.050   2.259 -0.3748  0.0093  0.1671
55254W        W98166  33.953  25.848   2.958  0.3216  0.1613 -0.0534
55255W        W98167  32.102  25.569   2.385 -0.0080  0.0142 -0.2213
55256W        W98168  32.051  26.754   0.661  0.3426 -0.0789 -0.2324
55257W        W98169  34.511  26.841   1.033  0.0404  0.3139 -0.0532
55258W        W98170  32.574  28.567   1.379  0.1063  0.0397 -0.2338
55259W        W98171  32.507  26.668   2.802 -0.0966 -0.2924 -0.1631
55260W        W98172  32.500  26.988   0.605 -0.0413  0.0735 -0.0267
55261W        W98173  32.861  28.849   0.531 -0.1588 -0.0826  0.0236
55262W        W98174  33.501  28.050   0.795 -0.2720  0.1714  0.1575
55263W        W98175  33.701  27.548   0.905  0.4503  0.2743 -0.2247
55264W        W98176  33.556  28.294   1.376 -0.0284  0.0046  0.0287
55265W        W98177  32.539  26.560  31.230  0.4604  0.2680  0.0419
55266W        W98178  32.984  28.345   1.304 -0.3411 -0.1055 -0.4463
55267W        W98179  31.234  27.783   0.923 -0.2311  0.1157  0.2848
55268W        W98180   0.030  27.906   1.617  0.0866  0.0368  0.0845
55269W        W98181  32.296  27.241   3.894 -0.1331 -0.0115 -0.2249
55270W        W98182  32.212  26.697   0.146 -0.1841  0.3141 -0.0922
55271W        W98183  32.260  29.268   2.432  0.0648  0.0022 -0.1755
55272W        W98184  32.534  29.131   3.180 -0.1044 -0.1559  0.0257
55273W        W98185  34.603  28.524   1.514 -0.0546 -0.1319 -0.0118
55274W        W98186   0.941  29.433   3.273 -0.4021  0.0135 -0.0695
55275W        W98187  32.832  27.688   3.148 -0.0063  0.1204 -0.2481
55276W        W98188  33.729  24.878   2.590 -0.2312  0.1006  0.0940
55277W        W98189  33.508  27.508   1.464 -0.3009 -0.1303  0.5057
55278W        W98190  33.356  28.585   0.942  0.1090  0.3687 -0.0261
55279W        W98191  34.524  26.285   3.433 -0.0552  0.0801 -0.1866
55280W        W98192  32.637  27.212  31.595  0.1924 -0.1083  0.4751
55281W        W98193  33.949  26.990   3.161  0.0206  0.1804 -0.1255
55282W        W98194  32.802  28.093   3.893 -0.1120 -0.0091  0.0108
55283W        W98195  33.496  29.635   2.618  0.0806  0.1610 -0.0485
55284W        W98196   0.742  25.841   4.484  0.0162 -0.1274 -0.1576
55285W        W98197   0.561  29.483   0.718  0.0303  0.1548  0.0410
55286W        W98198  33.678  28.106  31.382  0.0889 -0.2304 -0.3652
55287W        W98199   0.068  26.477   1.963  0.0579  0.0364  0.1107
55288W        W98200  34.216  28.934   1.254 -0.0703 -0.3050  0.4164
55289W        W98201  32.908  27.239   0.587 -0.0090 -0.0728 -0.0913
55290W        W98202  32.950  29.375   0.727 -0.0941 -0.3577  0.1548
55291W        W98203  32.804  27.767   2.052 -0.0881 -0.0414  0.2096
55292W        W98204  32.429  27.366   0.307  0.2656  0.1197 -0.0227
55293W        W98205  32.665  27.968   0.936  0.2289  0.0509 -0.0140
55294W        W98206  33.735  27.451   2.966  0.0358  0.0804 -0.0997
55295W        W98207  34.304  26.276   2.198 -0.1344 -0.1341 -0.0903
55296W        W98208  34.130  29.506   1.424  0.3103  0.1470 -0.3231
55297W        W98209  34.001  28.479   3.720  0.3600  0.0196  0.0686
55298W        W98210  32.418  28.172  30.742  0.0420 -0.1468 -0.2045
55299W        W98211  33.717  26.064   0.720  0.1233  0.1415  0.1939
55300W        W98212  33.792  28.484   1.945 -0.0142  0.1986 -0.2693
55301W        W98213  32.851  26.916   0.966  0.0712 -0.0095 -0.0175
55302W        W98214  32.058  28.941   1.338  0.3580  0.1018 -0.0111
55303W        W98215  33.164  28.137   3.564 -0.1389 -0.1184  0.0131
55304W        W98216  32.758  26.875   2.127  0.2005  0.2574  0.0169
55305W        W98217  33.842  26.628   2.180  0.0989  0.0949 -0.0008
55306W        W98218  33.843  27.591   2.485 -0.0342  0.0801  0.1356
55307W        W98219  33.836  28.459   2.469  0.1713  0.0577  0.1980
55308W        W98220  34.089  28.970   4.162 -0.0654  0.0763  0.2688
55309W        W98221  33.173  27.888   1.103  0.1271 -0.1353  0.2920
55310W        W98222  32.437  26.147   1.720  0.2742  0.2842  0.1373
55311W        W98223   0.283  27.867   0.810 -0.1163  0.2433 -0.1271
55312W        W98224  34.341  28.134   1.780  0.0460 -0.1038 -0.1356
55313W        W98225  32.863  28.295   2.719  0.1023 -0.0178  0.0680
55314W        W98226  34.025  26.679   0.693  0.4141 -0.0464 -0.0184
55315W        W98227  32.853  28.631   2.300 -0.0396  0.0507  0.0715
55316W        W98228   0.009  25.330   2.063  0.2098  0.4382  0.0922
55317W        W98229  33.720  26.870   1.577 -0.1666  0.1858 -0.3029
55318W        W98230  32.787  26.646   3.908  0.0483 -0.0786 -0.3168
55319W        W98231  32.387  28.784   3.541  0.2201  0.2255  0.1203
55320W        W98232  34.304  25.316   2.346  0.2098 -0.1215  0.5340
55321W        W98233  33.866  28.021   1.696  0.1193  0.0979 -0.3926
55322W        W98234   0.783  27.914  31.094  0.0013 -0.2789 -0.2982
55323W        W98235  32.918  27.374   2.758 -0.3059  0.0731 -0.0842
55324W        W98236  33.775  28.118   0.282  0.0584  0.0375  0.2875
55325W        W98237  32.730  26.426   1.294  0.3935 -0.1775  0.0196
55326W        W98238  33.447  27.569   2.090  0.0893 -0.0103  0.0607
55327W        W98239  34.160  26.380   3.088  0.3310 -0.0975 -0.0552
55328W        W98240  31.992  26.312   2.955  0.2598  0.0576  0.3894
55329W        W98241  32.076  26.163   2.494 -0.3776 -0.0849  0.1839
55330W        W98242   0.775  26.458   0.931 -0.2758 -0.2936 -0.0426
55331W        W98243  32.791  29.018  31.866  0.0078  0.2421 -0.1096
55332W        W98244  33.119  26.207   1.511 -0.1007  0.3171  0.2132
55333W        W98245  32.754  28.710   3.105 -0.0838 -0.1166 -0.2859
55334W        W98246  33.424  26.890   0.799 -0.0555 -0.2020 -0.1400
55335W        W98247   0.515  27.387   0.759 -0.1646  0.1421 -0.2176
55336W        W98248   1.175  28.861   2.091  0.0915 -0.3775  0.3717
55337W        W98249   0.432  25.203   0.736 -0.0709 -0.2332 -0.1176
55338W        W98250  31.617  28.458   0.232  0.1354 -0.0999  0.0151
55339W        W98251   0.382  28.754   2.847 -0.0158 -0.0741  0.1500
55340W        W98252  32.833  29.506   3.326  0.0254  0.2250 -0.0823
55341W        W98253   0.484  28.649   0.421 -0.3513 -0.2151 -0.0926
55342W        W98254  34.241  28.957   2.276 -0.2870 -0.0099  0.0629
55343W        W98255  34.009  26.471   1.739 -0.1216  0.1772 -0.3730
55344W        W98256  33.355  28.746   1.447 -0.2368  0.2002  0.3361
55345W        W98257  32.442  25.354   2.673 -0.1522 -0.0594 -0.0428
55346W        W98258  34.111  25.955   1.406 -0.1159  0.0305 -0.1264
55347W        W98259  32.392  28.464   3.928 -0.0192 -0.0236  0.0903
55348W        W98260  32.163  28.016   3.213  0.5620  0.0689  0.0015
55349W        W98261  33.063  29.677   1.422  0.0803 -0.1629  0.0314
55350W        W98262  33.094  27.643   0.303 -0.0182 -0.0170  0.0589
55351W        W98263  31.778  29.852   1.741 -0.2228 -0.2714  0.2631
55352W        W98264  31.415  29.406   0.173  0.1911 -0.3707 -0.1396
55353W        W98265  34.374  27.705  31.019  0.1928  0.0928  0.0833
55354W        W98266  32.139  28.681   1.818  0.0263  0.3067  0.1508
55355W        W98267   0.911  26.531  31.685 -0.0908  0.1338  0.0227
55356W        W98268  33.140  28.232   4.231 -0.1459  0.2199 -0.0501
55357W        W98269  33.647  29.418   3.787  0.0927 -0.0947  0.0324
55358W        W98270  32.491  27.472   0.802  0.0528  0.0256 -0.1574
55359W        W98271  33.362  28.578   2.420 -0.2361  0.0145  0.0969
55360W        W98272   0.401  27.428   0.232  0.0394  0.0421 -0.1522
55361W        W98273  34.498  28.067   0.640 -0.2840 -0.3267 -0.0300
55362W        W98274  32.642  28.471   1.913  0.3910  0.2115  0.0449
55363W        W98275  33.048  29.168   1.207  0.0802  0.1534 -0.1294
55364W        W98276  32.403  25.915   2.182  0.3358 -0.0991 -0.0843
55365W        W98277  32.696  27.707   3.648  0.0596  0.0979 -0.1194
55366W        W98278  32.049  27.346   2.610 -0.2400 -0.1744  0.2358
55367W        W98279  32.841  28.523   3.635  0.3064 -0.2318 -0.2012
55368W        W98280   1.683  27.651   0.084  0.2144  0.1152 -0.1925
55369W        W98281  32.436  27.182   3.284  0.1935  0.2955 -0.2570
55370W        W98282  33.022  27.442   1.625  0.2961 -0.5848 -0.0649
55371W        W98283  33.736  26.916   2.664  0.1247  0.0088  0.1060
55372W        W98284   0.173  26.467  31.139 -0.2942 -0.2256 -0.2021
55373W        W98285  34.668  28.729   0.411  0.1596 -0.1688  0.1315
55374W        W98286  34.371  27.254   1.799  0.1145  0.1157 -0.1015
55375W        W98287   1.187  24.702   1.663 -0.0819  0.0904  0.3072
55376W        W98288  33.655  26.603   1.150  0.0492 -0.0554  0.0649
55377W        W98289  32.081  30.327   0.961  0.0945 -0.1877 -0.1300
55378W        W98290  34.097  27.664   0.375  0.0058  0.0242 -0.1364
55379W        W98291  34.461  28.875   3.811 -0.1344  0.2655 -0.1132
55380W        W98292  34.563  28.217   4.468 -0.0828 -0.1498 -0.0928
55381W        W98293  33.262  28.137   0.368 -0.0727 -0.1265  0.0659
55382W        W98294   0.101  29.228   2.838  0.3695 -0.3177 -0.1184
55383W        W98295  34.290  27.690   1.504  0.2067  0.1218  0.0072
55384W        W98296  33.332  27.786  31.794 -0.0150 -0.0375  0.2109
55385W        W98297  34.050  26.643  31.800  0.0121 -0.2132 -0.2062
55386W        W98298  34.553  24.772   2.091 -0.0148 -0.1967  0.2138
55387W        W98299  34.225  26.766   2.445  0.0723  0.1192 -0.0530
55388W        W98300  32.704  27.063   0.089 -0.1226 -0.0716  0.1263
55389W        W98301  33.421  28.985  31.681 -0.0991  0.2914  0.1021
55390W        W98302  32.997  27.317   2.246 -0.0078  0.0098  0.2920
55391W        W98303  34.176  26.084   3.973  0.1079  0.0243 -0.1321
55392W        W98304  32.883  26.926   4.377  0.1437 -0.1872  0.1665
55393W        W98305  32.448  26.806   1.713  0.1708 -0.1596  0.0656
55394W        W98306  33.494  25.246   1.124  0.0617  0.2919  0.2157
55395W        W98307  33.020  26.567   0.684  0.0155 -0.3134  0.2775
55396W        W98308  31.994  25.802   1.948  0.2132  0.4688  0.2985
55397W        W98309  34.665  25.208   0.252 -0.1327 -0.0533  0.1960
55398W        W98310  32.268  27.724   1.194  0.0514 -0.1114  0.2384
55399W        W98311   0.024  27.166   3.667  0.1639  0.3508 -0.4986
55400W        W98312  33.688  26.549   3.232 -0.0746 -0.3014 -0.0273
55401W        W98313  31.377  27.761   1.476  0.1870  0.1013  0.0433
55402W        W98314  32.771  27.804   2.585  0.2545  0.0946 -0.5153
55403W        W98315  33.276  28.877   2.046  0.3026  0.1403 -0.1798
55404W        W98316  33.891  29.077   2.955  0.0053  0.1274  0.0454
55405W        W98317  33.149  25.648   2.183  0.2901 -0.0503 -0.2196
55406W        W98318  33.325  28.649   3.569 -0.1935 -0.0777  0.1240
55407W        W98319  32.892  26.359   2.937 -0.1213 -0.2088  0.1658
55408W        W98320  33.078  28.845   2.739 -0.1438  0.0260  0.2590
55409W        W98321  33.448  26.543   1.820  0.1646 -0.1542 -0.2783
55410W        W98322  32.115  27.498   1.940 -0.3721 -0.1420  0.0055
55411W        W98323   0.311  26.624   1.155 -0.2346 -0.3199 -0.0896
55412W        W98324  33.023  28.157   2.257 -0.1300 -0.1814 -0.0777
55413W        W98325  34.670  27.190   0.266  0.2345  0.0970 -0.0964
55414W        W98326  34.299  28.459   2.159  0.2919  0.1096 -0.0438
55415W        W98327  33.027  25.966   2.625 -0.2457  0.3996 -0.1031
55416W        W98328  32.522  27.470   2.370  0.1199 -0.0235  0.1660
55417W        W98329  33.945  27.913   1.250 -0.3814  0.0479 -0.2351
55418W        W98330  33.620  27.109   1.998  0.1847 -0.2157 -0.1065
55419W        W98331  32.798  30.698   2.098 -0.1346  0.0695 -0.1429
55420W        W98332  33.876  27.201   7.068 -0.3488 -0.0242 -0.1522
55421W        W98333  33.489  27.607   5.801 -0.0136 -0.2136 -0.1145
55422W        W98334  31.703  25.820   5.307 -0.0498 -0.1934  0.1721
55423W        W98335  33.728  24.760   5.720 -0.2303 -0.4526  0.1581
55424W        W98336  33.302  27.123   6.745  0.0418 -0.1870  0.1450
55425W        W98337  32.915  29.195   6.490 -0.0704  0.3641  0.0175
55426W        W98338  33.744  25.481   4.101  0.0275  0.2746  0.0208
55427W        W98339  32.038  25.570   4.485 -0.0344  0.1196  0.2131
55428W        W98340  33.531  27.540   4.826  0.5060 -0.1346 -0.0764
55429W        W98341  33.193  26.430   5.853  0.2739  0.0008  0.0131
55430W        W98342  34.374  26.465   4.853  0.2380 -0.3124  0.0622
55431W        W98343  32.964  26.290   6.325 -0.0848 -0.0660 -0.0721
55432W        W98344  34.432  27.841   4.053 -0.1127 -0.0922  0.1985
55433W        W98345  32.631  27.661   4.772  0.1133  0.0823 -0.2623
55434W        W98346  32.178  27.705   4.964 -0.2909  0.0708 -0.1833
55435W        W98347  32.628  26.998   6.928 -0.3498  0.0363  0.2977
55436W        W98348  34.274  29.781   4.524  0.0028  0.3984 -0.1007
55437W        W98349  33.389  29.823   6.740  0.0539 -0.3301 -0.0353
55438W        W98350  32.130  28.033   5.531  0.1967 -0.0140  0.3580
55439W        W98351  32.730  29.203   5.448  0.0388 -0.0165 -0.2029
55440W        W98352  34.030  27.709   4.615 -0.0998 -0.2101  0.4938
55441W        W98353  33.998  29.150   6.913 -0.0495 -0.0785  0.1156
55442W        W98354  32.185  29.403   2.962  0.2990 -0.0038  0.2068
55443W        W98355  34.375  27.879   7.148  0.1776  0.2462  0.1805
55444W        W98356  33.742  29.542   3.265 -0.0856  0.4380  0.1078
55445W        W98357  33.899  26.967   4.194  0.2646 -0.1946  0.2409
55446W        W98358  33.290  27.240   7.612  0.0697  0.0766 -0.1271
55447W        W98359  32.918  28.263   6.098  0.0206 -0.0365  0.0131
55448W        W98360  34.194  28.519   4.390 -0.0544  0.1429  0.0451
55449W        W98361  34.339  27.520   3.684 -0.2371  0.0019 -0.3323
55450W        W98362   0.363  25.782   5.286 -0.1692 -0.1152 -0.2400
55451W        W98363  32.900  29.742   6.548 -0.4846 -0.2396 -0.2376
55452W        W98364  34.587  26.471   6.054 -0.0409 -0.0051  0.1470
55453W        W98365  32.734  28.765   6.037  0.0843 -0.3065 -0.0251
55454W        W98366  33.384  25.750   4.960  0.2260  0.2243 -0.3469
55455W        W98367  32.498  27.185   4.833  0.0174 -0.0411  0.0958
55456W        W98368  33.651  28.999   7.252 -0.2650  0.2698  0.2580
55457W        W98369  32.156  27.308   6.654  0.1094 -0.1653 -0.0491
55458W        W98370  33.885  26.103   2.028 -0.0797  0.1600  0.1778
55459W        W98371  32.529  29.321   6.876  0.4603 -0.2131  0.1519
55460W        W98372  33.575  27.057   4.761 -0.1510  0.0760 -0.3204
55461W        W98373  33.556  28.709   2.924 -0.0692 -0.1336 -0.1358
55462W        W98374  32.661  28.321   4.311  0.1243 -0.2044 -0.2109
55463W        W98375  32.929  29.282   5.955 -0.3055  0.1387 -0.2325
55464W        W98376  34.243  26.809   6.365  0.0455  0.0260 -0.2843
55465W        W98377   0.890  27.992   6.813 -0.0537  0.0396  0.2566
55466W        W98378  32.611  29.207   4.247 -0.4248 -0.1507 -0.0016
55467W        W98379  33.732  27.362   4.425 -0.1982 -0.2360 -0.1313
55468W        W98380  33.368  28.251   5.167 -0.1592 -0.1811  0.2305
55469W        W98381  32.538  25.716   5.283  0.2849 -0.1879  0.4002
55470W        W98382  33.230  28.898   6.203 -0.1048 -0.1929  0.1949
55471W        W98383  33.818  25.604   5.938 -0.1738  0.0742 -0.0597
55472W        W98384  33.347  29.139   4.822  0.3059 -0.2170  0.1461
55473W        W98385  33.173  26.759   4.958  0.3999  0.1877 -0.0865
55474W        W98386  32.426  26.790   4.295  0.1320  0.1184 -0.1022
55475W        W98387  33.385  25.972   6.923  0.0135  0.0860 -0.2988
55476W        W98388  32.699  26.536   4.705  0.2076  0.1313 -0.3683
55477W        W98389   0.216  25.915   4.748 -0.0775  0.0221  0.1505
55478W        W98390  33.347  26.608   5.381 -0.1096 -0.0214 -0.1381
55479W        W98391  32.160  28.518   5.219 -0.0740 -0.2340  0.0252
55480W        W98392  33.783  28.176   6.534 -0.0124  0.0437  0.1092
55481W        W98393  33.435  26.189   3.521  0.2672  0.1998 -0.0643
55482W        W98394  33.686  29.021   5.901  0.1392  0.0863 -0.1098
55483W        W98395   0.269  28.930   4.671 -0.2278 -0.1758  0.0749
55484W        W98396  34.521  25.120   4.335  0.2972 -0.1347 -0.2110
55485W        W98397  32.918  27.678   7.186 -0.1717  0.1504  0.0900
55486W        W98398  31.566  26.069   3.147 -0.2368  0.0987 -0.2054
55487W        W98399  32.905  28.594   5.586 -0.0859 -0.0992 -0.2051
55488W        W98400  33.174  26.254   4.963  0.0568 -0.1805 -0.1420
55489W        W98401   0.110  28.801   3.263 -0.0543 -0.0217  0.3309
55490W        W98402  33.166  27.654   6.726  0.1554 -0.2333  0.0926
55491W        W98403  33.495  26.509   4.669 -0.0078 -0.1805 -0.0351
55492W        W98404  33.369  28.642   6.700  0.1832  0.2953  0.0461
55493W        W98405  34.053  28.715   7.225 -0.0156  0.0388 -0.0226
55494W        W98406   0.368  29.310   3.224 -0.1207 -0.2653 -0.1072
55495W        W98407   0.292  27.268   6.287  0.1047 -0.1436  0.0800
55496W        W98408  32.062  28.224   6.032  0.0786  0.0564 -0.0170
55497W        W98409  33.982  25.947   5.584  0.1697 -0.0871  0.2872
55498W        W98410  33.790  27.745   3.657  0.3284  0.2569 -0.2128
55499W        W98411  33.447  30.417   3.112  0.0534  0.0123 -0.0436
55500W        W98412  34.187  24.872   5.844  0.1006 -0.2268  0.4578
55501W        W98413  33.551  27.347   3.934  0.0210  0.1450 -0.0396
55502W        W98414  34.192  25.570   6.388 -0.0329 -0.2867 -0.1276
55503W        W98415  32.996  27.779   6.096 -0.3768 -0.1267  0.2214
55504W        W98416  32.444  28.471   6.252 -0.2537  0.3101 -0.0550
55505W        W98417   0.327  26.225   6.659 -0.0003  0.1426 -0.1704
55506W        W98418  34.001  29.792   3.704 -0.1630 -0.3962 -0.4425
55507W        W98419  33.590  28.229   3.883 -0.1111 -0.0273 -0.2161
55508W        W98420   0.175  26.378   4.524 -0.0662 -0.2996  0.1129
55509W        W98421   0.199  28.090   5.827  0.2231  0.0112  0.1045
55510W        W98422  33.985  28.126   4.194 -0.2615 -0.1199 -0.0291
55511W        W98423  32.452  29.146   5.887  0.0900  0.0203  0.1629
55512W        W98424   0.140  29.426   5.864  0.3925  0.0223 -0.0505
55513W        W98425  34.214  25.661   3.708 -0.0982 -0.0833 -0.2921
55514W        W98426  32.517  27.389   4.376  0.2289  0.0342  0.1799
55515W        W98427  33.141  25.914   6.019  0.0422  0.3599 -0.2061
55516W        W98428  33.716  27.735   6.311  0.0657 -0.1672 -0.1396
55517W        W98429  33.243  27.999   4.647  0.0742  0.1020 -0.2988
55518W        W98430  33.404  27.512   7.162 -0.0292 -0.1807  0.0963
55519W        W98431  33.647  26.025   3.938 -0.0030  0.1206 -0.0501
55520W        W98432  33.966  26.177   4.707  0.0501 -0.0842 -0.0084
55521W        W98433  33.425  29.698   4.450  0.2595  0.0238 -0.5779
55522W        W98434  34.225  25.583   5.307 -0.1014  0.0896  0.2897
55523W        W98435  33.724  28.033   5.574 -0.0192 -0.3679 -0.0002
55524W        W98436   0.493  25.625   7.098  0.2037 -0.0392 -0.0189
55525W        W98437  33.801  27.249   6.085  0.1389 -0.0519  0.0657
55526W        W98438  33.901  25.836   4.366 -0.1079  0.5229 -0.2197
55527W        W98439  34.072  26.885   4.650 -0.3025  0.0967  0.0246
55528W        W98440  33.146  28.164   6.568 -0.2365  0.0312 -0.1772
55529W        W98441  33.329  28.767   7.707 -0.0004 -0.1117  0.2135
55530W        W98442  33.198  27.404   4.374  0.1548 -0.0155 -0.3000
55531W        W98443  32.887  28.353   5.161  0.0736 -0.1303 -0.0511
55532W        W98444  33.131  28.835   5.198 -0.6166 -0.0275  0.2644
55533W        W98445  33.586  26.064   5.837  0.0497  0.2218 -0.0236
55534W        W98446  33.890  29.499   7.356  0.0603  0.3542 -0.0650
55535W        W98447  33.904  29.536   4.223 -0.1574  0.0528 -0.3183
55536W        W98448  33.599  27.891   6.842 -0.0748 -0.2453  0.2093
55537W        W98449  34.071  27.870   5.255  0.0899 -0.0034 -0.4409
55538W        W98450  33.469  25.567   6.271 -0.0860 -0.0422  0.0380
55539W        W98451  33.268  27.121   5.781 -0.1162  0.1131 -0.0664
55540W        W98452  32.267  26.961   7.276 -0.1261 -0.0186  0.0354
55541W        W98453  33.202  26.679   3.286 -0.0986  0.2121  0.1734
55542W        W98454  34.391  28.134   5.820  0.0880 -0.1160 -0.1116
55543W        W98455  33.678  26.624   3.792  0.0915 -0.4055  0.0632
55544W        W98456  32.938  28.627   6.484 -0.3718  0.2698  0.3192
55545W        W98457  34.284  27.295   4.421  0.0114 -0.1105  0.0412
55546W        W98458  33.807  29.440   4.760 -0.0333  0.5043  0.2436
55547W        W98459  33.615  25.641   8.238 -0.0241  0.3084  0.0867
55548W        W98460  34.386  27.902   6.272  0.0669 -0.0383 -0.3500
55549W        W98461  32.565  25.604   6.422 -0.1642 -0.1272  0.1418
55550W        W98462  33.628  26.133   5.205  0.2120 -0.0571 -0.2408
55551W        W98463  32.450  26.118   3.073  0.1474  0.1015  0.0930
55552W        W98464   0.014  27.596   3.259 -0.1693  0.0698  0.2368
55553W        W98465  32.896  27.288   6.466 -0.0219  0.1437  0.0169
55554W        W98466  32.987  28.875   6.898  0.1131  0.0215 -0.1909
55555W        W98467  33.155  27.461   3.443  0.1710 -0.0545  0.1533
55556W        W98468  34.218  28.018   3.601  0.4810 -0.1043 -0.4246
55557W        W98469  34.310  28.310   5.270 -0.0308  0.0831 -0.1180
55558W        W98470   0.973  25.776   4.046 -0.0612  0.3796  0.0372
55559W        W98471  31.461  27.529   4.819 -0.1443 -0.2183 -0.3782
55560W        W98472  32.372  30.553   6.204  0.0001 -0.1178  0.0351
55561W        W98473  32.677  27.868   6.520 -0.0363  0.1427 -0.0150
55562W        W98474  33.809  28.421   5.246  0.1734 -0.1943 -0.4089
55563W        W98475  34.028  29.590   5.759 -0.0646 -0.0488 -0.1664
55564W        W98476  33.767  29.326   5.403  0.0006 -0.3641 -0.3388
55565W        W98477   0.182  29.033   4.079 -0.2476 -0.0249  0.0379
55566W        W98478  33.158  28.125   7.061  0.3080  0.0450  0.1549
55567W        W98479  34.671  25.489   4.983  0.0133  0.3084  0.1343
55568W        W98480  32.659  28.285   7.971  0.1218 -0.0594 -0.0194
55569W        W98481  32.592  27.595   5.291 -0.1440  0.0777  0.2758
55570W        W98482  33.058  29.540   4.865  0.0654 -0.0108 -0.1368
55571W        W98483   0.338  26.001   4.248  0.1697  0.3871 -0.1777
55572W        W98484  33.275  28.939   5.670  0.0047  0.0333 -0.1965
55573W        W98485  33.585  29.198   4.323 -0.2189  0.0168 -0.0767
55574W        W98486  32.983  29.815   6.048 -0.0204  0.0928  0.0074
55575W        W98487  33.673  26.962   5.444  0.1399  0.1387 -0.2426
55576W        W98488   0.102  25.378   3.074 -0.2420  0.4240 -0.0132
55577W        W98489  34.062  27.845   7.829  0.0002  0.0492 -0.2489
55578W        W98490  31.155  29.807   7.726  0.0538 -0.0237  0.2133
55579W        W98491  33.194  26.042   5.471 -0.1640  0.0831 -0.1008
55580W        W98492  32.755  28.082   5.561 -0.0287  0.0152  0.0948
55581W        W98493  32.813  27.834   4.368 -0.0275 -0.3076 -0.1057
55582W        W98494  33.607  28.855   5.309 -0.0549 -0.2031 -0.2298
55583W        W98495  32.412  28.482   5.671 -0.1870  0.2786 -0.1878
55584W        W98496  34.096  28.777   5.091 -0.0055 -0.0830  0.0669
55585W        W98497  32.113  25.830   4.038  0.1538 -0.2183  0.1121
55586W        W98498  33.300  27.370   6.236  0.1609 -0.3140 -0.1776
55587W        W98499  33.589  27.824   4.314  0.1270 -0.2748  0.1240
55588W        W98500  32.966  27.263   4.803 -0.1992 -0.2010  0.0765
55589W        W98501  33.733  28.786   4.688 -0.2083 -0.1373 -0.1234
55590W        W98502  34.149  26.159   5.177 -0.2186  0.0573  0.1380
55591W        W98503  33.733  28.598   4.176 -0.1778 -0.0257 -0.0699
55592W        W98504  33.977  28.517   5.682  0.1093 -0.2859 -0.2009
55593W        W98505  33.388  26.374   4.158 -0.3655 -0.3793  0.2375
55594W        W98506  34.360  29.355   3.224 -0.1101  0.0079  0.0775
55595W        W98507  33.383  25.553   5.771 -0.0001  0.5029 -0.1115
55596W        W98508   0.847  25.243   4.291 -0.2675  0.1885  0.1737
55597W        W98509  33.318  27.248   5.192  0.0634  0.1284 -0.2170
55598W        W98510  32.655  29.665   4.560 -0.0395 -0.0901 -0.0155
55599W        W98511  33.710  28.938   3.811  0.1456  0.0906  0.1512
55600W        W98512  34.107  29.023   5.585 -0.3982 -0.1147  0.1875
55601W        W98513  33.317  29.741   7.271  0.1405  0.0566  0.0966
55602W        W98514  33.215  27.774   3.985 -0.0532  0.1909 -0.2897
55603W        W98515   0.485  29.101   7.691  0.2202  0.2836 -0.2134
55604W        W98516   0.351  28.529   4.228 -0.0875  0.2024 -0.2525
55605W        W98517  34.197  28.149   4.818  0.4828 -0.2368  0.0546
55606W        W98518   0.166  26.736   4.927 -0.2070 -0.1234  0.0913
55607W        W98519  33.826  25.205   5.572  0.4926  0.2734 -0.0846
55608W        W98520  33.678  28.364   7.012 -0.2213  0.0487  0.1070
55609W        W98521  33.362  26.375   2.838 -0.3182 -0.2340 -0.1311
55610W        W98522  34.581  28.565   4.895  0.2145 -0.0942 -0.1712
55611W        W98523  33.864  27.713   7.227 -0.0498 -0.1359  0.0625
55612W        W98524  33.638  25.383   7.298 -0.0348 -0.0251 -0.0614
55613W        W98525  33.838  26.974   6.568 -0.0436 -0.4203  0.1392
55614W        W98526  33.069  27.592   5.547  0.0751 -0.0142 -0.0220
55615W        W98527  32.753  27.063   3.673 -0.0909 -0.0471 -0.3075
55616W        W98528  32.723  25.245   6.786  0.0776  0.3786 -0.2456
55617W        W98529  32.856  27.140   5.336  0.2375  0.1730 -0.0430
55618W        W98530   0.819  24.302   3.088 -0.1435 -0.1386 -0.1039
55619W        W98531  32.063  28.366   4.267  0.0711  0.0401 -0.0640
55620W        W98532   0.088  25.704   6.575 -0.2131  0.0326 -0.2420
55621W        W98533  33.818  25.882   6.463  0.0692 -0.2237 -0.1409
55622W        W98534  32.691  25.160   3.139  0.0121  0.1294 -0.1679
55623W        W98535  33.394  28.094   6.070  0.0834  0.1645  0.0073
55624W        W98536   0.622  27.555   6.590 -0.1338  0.1677  0.1546
55625W        W98537  33.985  28.775   6.225  0.0533  0.1459  0.0558
55626W        W98538  33.744  26.680   5.039 -0.2539 -0.2375  0.0439
55627W        W98539  33.582  28.517   6.237  0.1720  0.0857  0.1676
55628W        W98540  33.804  25.389   6.842 -0.0464 -0.0357 -0.1054
55629W        W98541  33.877  26.709   7.005 -0.0182  0.3239 -0.2325
55630W        W98542  33.890  25.724   4.901 -0.0086 -0.2354  0.3043
55631W        W98543  33.662  27.424   6.676  0.2390 -0.1000 -0.1317
55632W        W98544   0.290  25.130   4.165 -0.2464 -0.2286 -0.1101
55633W        W98545  34.197  26.952   5.786 -0.2368  0.0438 -0.3305
55634W        W98546  34.342  25.633   4.217  0.0152 -0.0484 -0.0511
55635W        W98547  34.582  30.508   5.045  0.0287 -0.0520  0.1441
55636W        W98548  34.029  26.066   6.079 -0.3487 -0.1093  0.0325
55637W        W98549  32.658  28.795   5.087  0.0405 -0.0937 -0.0845
55638W        W98550  34.047  27.502   4.047 -0.0119 -0.1095  0.1225
55639W        W98551  33.918  28.201   6.036  0.1003 -0.4944  0.1452
55640W        W98552  32.898  30.035   7.496 -0.0767 -0.0048 -0.0660
55641W        W98553  34.691  27.812   8.573  0.0464  0.1386  0.0805
55642W        W98554  33.862  26.364   8.111  0.2140 -0.3597 -0.3192
55643W        W98555  32.851  26.263   7.802 -0.0791  0.1562 -0.1282
55644W        W98556  33.828  25.043   9.493 -0.1168 -0.3731 -0.1266
55645W        W98557  34.059  25.870   8.215 -0.0775 -0.0460  0.2042
55646W        W98558  34.126  24.648   9.475 -0.1056 -0.3127  0.1961
55647W        W98559  33.323  26.619   7.526  0.1192 -0.0203  0.0455
55648W        W98560  32.550  29.037   9.577  0.0812 -0.1056 -0.0612
55649W        W98561  32.912  27.335   8.005  0.0641  0.0084  0.3020
55650W        W98562  33.405  25.725   9.564  0.3859  0.1380  0.0545
55651W        W98563  34.141  28.861   8.284  0.0179 -0.1972 -0.0335
55652W        W98564  32.426  26.878   6.501  0.0950  0.0432  0.2307
55653W        W98565  30.549  27.822   9.240 -0.0315  0.2971 -0.2701
55654W        W98566  30.833  27.498   9.551  0.0483  0.0916 -0.3185
55655W        W98567  33.351  29.174   8.719  0.4199 -0.0906  0.3043
55656W        W98568  34.094  28.365   7.939  0.1415  0.0740 -0.1116
55657W        W98569  32.187  25.717   8.327  0.2349  0.2589  0.1521
55658W        W98570  31.871  28.339   8.669 -0.2099  0.1994 -0.2016
55659W        W98571  33.610  28.125   7.907  0.2924 -0.2348 -0.4700
55660W        W98572  33.454  27.969   7.401  0.2146  0.2529 -0.0348
55661W        W98573  32.510  27.400   7.337 -0.0140 -0.0921 -0.2774
55662W        W98574   0.650  29.915   9.933  0.1074  0.3427  0.1097
55663W        W98575  31.835  30.159   9.590 -0.0702 -0.0259 -0.1518
55664W        W98576  32.178  28.194   7.636  0.1865 -0.0863  0.0760
55665W        W98577  34.153  25.804   6.848  0.0675 -0.1850 -0.0591
55666W        W98578   0.044  25.090   9.732  0.1477 -0.1156 -0.0700
55667W        W98579   0.043  30.130   8.966 -0.0997  0.1361  0.0474
55668W        W98580  33.612  25.684   9.106 -0.2384  0.1378  0.1552
55669W        W98581  31.378  29.583   9.181 -0.0533 -0.3081  0.1158
55670W        W98582  33.495  26.128   9.828 -0.0250  0.0461  0.1430
55671W        W98583  32.050  26.759   7.673  0.0766 -0.2666 -0.2600
55672W        W98584  33.009  26.307   7.350  0.0456  0.0176 -0.2680
55673W        W98585   0.111  26.252   8.440  0.0157 -0.1073  0.0571
55674W        W98586  33.584  29.408   6.945  0.2984 -0.1201 -0.1491
55675W        W98587  32.990  27.188   7.223 -0.0199 -0.3112 -0.2222
55676W        W98588  33.783  28.861   8.571  0.2350 -0.0642 -0.0848
55677W        W98589  31.822  29.016   7.975 -0.0093  0.0170  0.1953
55678W        W98590  31.919  27.847   8.693  0.0627  0.2197  0.0467
55679W        W98591  31.645  28.101   7.786 -0.2338 -0.1350  0.2982
55680W        W98592  34.469  25.043   9.374  0.1060 -0.0167  0.0909
55681W        W98593  34.600  26.969   8.478 -0.1599 -0.2191  0.0997
55682W        W98594  32.816  28.656   7.543 -0.1523 -0.1666 -0.0215
55683W        W98595  33.060  25.498   8.221  0.1099 -0.2521  0.0095
55684W        W98596  33.201  26.929   8.404  0.2156  0.1410  0.0378
55685W        W98597  33.295  26.674   8.991  0.1670  0.0857 -0.1300
55686W        W98598  32.883  25.832   7.552 -0.1417  0.0125  0.1296
55687W        W98599  33.588  27.093   8.073  0.1655 -0.0487  0.0055
55688W        W98600  31.176  28.282   7.876  0.2537 -0.0617 -0.1194
55689W        W98601  34.364  27.391   8.626  0.0627 -0.0981  0.0447
55690W        W98602  33.595  26.219   7.605  0.3991  0.2856 -0.0898
55691W        W98603  32.936  28.951   9.198 -0.1741 -0.0788 -0.0401
55692W        W98604  34.441  28.236   8.653  0.0645 -0.2867 -0.0562
55693W        W98605  34.050  26.068   7.741  0.0353  0.1733 -0.1136
55694W        W98606  33.031  25.795   6.521  0.1309  0.0038  0.1153
55695W        W98607  32.929  28.691   8.005  0.2787  0.3776  0.0977
55696W        W98608  31.234  26.623   9.053 -0.2676  0.4187  0.2650
55697W        W98609   1.260  29.524   7.825 -0.0782  0.1385 -0.0520
55698W        W98610  32.399  26.401   7.541  0.0749  0.3226  0.0496
55699W        W98611  33.431  29.009   8.181  0.0813  0.0317 -0.1408
55700W        W98612  32.842  27.540   8.510 -0.1402 -0.0505 -0.1986
55701W        W98613  33.499  26.613   9.797  0.0310 -0.0764 -0.1205
55702W        W98614  33.838  26.037   9.438 -0.0583 -0.1546  0.0622
55703W        W98615  33.476  26.361   7.159 -0.2513 -0.4588 -0.2631
55704W        W98616  33.276  28.578   7.257 -0.0321 -0.1661 -0.4841
55705W        W98617  33.092  26.720   7.057 -0.0224 -0.0461 -0.3831
55706W        W98618  33.436  27.589   9.795  0.0258 -0.0799 -0.1278
55707W        W98619  33.159  30.304   9.537  0.1860 -0.0941  0.3015
55708W        W98620  34.468  28.709   6.800 -0.0558 -0.1415 -0.2016
55709W        W98621  33.583  27.589   7.817  0.0377 -0.2113 -0.1268
55710W        W98622   0.624  26.712   9.680 -0.2631  0.2652  0.1503
55711W        W98623  34.687  27.018   9.111 -0.0554 -0.0767 -0.0737
55712W        W98624  34.186  28.285   6.841  0.0086  0.1255 -0.1505
55713W        W98625  33.077  29.215   7.956  0.0392 -0.0137  0.0545
55714W        W98626  32.685  28.492   8.517  0.1189  0.0445  0.2363
55715W        W98627  33.829  26.005   7.208  0.2048  0.2763  0.2431
55716W        W98628  32.895  27.608   7.640 -0.1425 -0.1289  0.2249
55717W        W98629  31.358  25.693   9.918 -0.1694  0.3100 -0.2545
55718W        W98630   2.876  25.942   9.542  0.2060 -0.1618 -0.2556
55719W        W98631  33.293  27.482   8.296 -0.2827 -0.0815 -0.2313
55720W        W98632  32.021  26.485   7.241  0.0641 -0.0927 -0.2846
55721W        W98633  34.461  26.033   8.032 -0.1442 -0.1614  0.0961
55722W        W98634  33.609  27.904   8.366 -0.2687  0.1127 -0.1464
55723W        W98635  32.583  27.194   8.712  0.0649  0.1454 -0.0675
55724W        W98636  33.709  27.950   9.358  0.0402 -0.0068 -0.1022
55725W        W98637  34.278  26.084   9.716 -0.0653 -0.0335  0.1310
55726W        W98638   0.204  25.745   7.981 -0.1992  0.1166 -0.2540
55727W        W98639  34.302  27.126   7.880 -0.2380  0.0015  0.1673
55728W        W98640  34.265  26.786   9.289  0.0585 -0.1274  0.0232
55729W        W98641  32.046  27.641   8.057  0.1063 -0.1512  0.0469
55730W        W98642   0.499  24.378   9.544 -0.1366 -0.3857  0.0508
55731W        W98643  34.473  28.579   8.162 -0.1460  0.0542 -0.2951
55732W        W98644   1.483  24.539   9.460  0.2715  0.1284 -0.2846
55733W        W98645  33.335  28.711   8.972 -0.1866  0.0458  0.1436
55734W        W98646  34.281  28.708   7.653 -0.0630 -0.2801  0.1752
55735W        W98647  34.572  29.702   8.093  0.0113 -0.0263 -0.0882
55736W        W98648  34.661  26.027   8.960 -0.0396  0.2447  0.1812
55737W        W98649  31.804  28.391   8.183  0.2212 -0.1557  0.0372
55738W        W98650  33.062  26.795   7.887  0.2609 -0.1963  0.1276
55739W        W98651  34.073  25.624  10.391 -0.2034  0.2197  0.0811
55740W        W98652  33.192  28.307   7.692 -0.2677 -0.0936  0.3082
55741W        W98653  32.341  27.677   8.606 -0.2486 -0.0580 -0.0273
55742W        W98654   0.037  27.107   7.309  0.0430  0.0548  0.0722
55743W        W98655  33.084  27.900   8.046 -0.3344 -0.5164  0.1289
55744W        W98656  32.851  26.315   8.796 -0.0563 -0.2077  0.1115
55745W        W98657  33.611  25.158   7.745 -0.1480 -0.1081 -0.0621
55746W        W98658  34.667  29.393   7.538  0.2447  0.1097 -0.2374
55747W        W98659  32.587  25.952   8.598  0.2488 -0.0549  0.1536
55748W        W98660  33.461  26.608   6.681 -0.1018 -0.1087  0.1284
55749W        W98661  33.851  27.235   7.649  0.2743  0.2297  0.0139
55750W        W98662  34.322  28.711   8.797  0.0392  0.0733 -0.3397
55751W        W98663   1.262  24.443   8.567 -0.1169  0.0363  0.0942
55752W        W98664  32.361  28.680   7.762 -0.0817  0.1245  0.0746
55753W        W98665  34.465  28.170   9.392 -0.0189 -0.1850  0.0736
55754W        W98666   0.791  29.485   8.060 -0.1716 -0.0613  0.0995
55755W        W98667  33.992  27.447   8.265 -0.1596 -0.0015 -0.3478
55756W        W98668  32.904  26.403   8.259 -0.0228  0.4408 -0.3866
55757W        W98669  33.611  28.541   9.393 -0.1083 -0.2934  0.2589
55758W        W98670  32.730  25.844   8.140 -0.0463  0.0403  0.1366
55759W        W98671  32.669  27.980   8.387  0.1085 -0.0048  0.0261
55760W        W98672  32.595  29.130   7.762  0.4294 -0.2271  0.0394
55761W        W98673  34.575  26.457   7.393 -0.0912  0.0039  0.0538
55762W        W98674  33.437  29.556   8.189 -0.1380  0.1633 -0.2800
55763W        W98675  32.431  27.750   7.718 -0.0222 -0.3199  0.1668
55764W        W98676  33.073  28.996   7.353 -0.0622 -0.1272  0.3484
55765W        W98677  33.669  27.011   8.582  0.3698  0.0782 -0.1736
55766W        W98678  34.390  25.984   7.367  0.0173  0.1568 -0.1899
55767W        W98679  32.502  26.277   6.208 -0.0158  0.1764 -0.0985
55768W        W98680  32.851  26.818   8.709 -0.0692  0.4188 -0.1303
55769W        W98681   0.777  28.589   6.835 -0.2101  0.2429 -0.0663
55770W        W98682   0.273  29.638   7.802 -0.2753 -0.1409 -0.1649
55771W        W98683  32.782  28.075   7.482 -0.1180 -0.0724 -0.1668
55772W        W98684  33.959  28.358   8.994 -0.3527  0.0479 -0.2330
55773W        W98685  32.524  26.508   6.968 -0.0631  0.0131  0.1281
55774W        W98686  31.751  27.564   9.256  0.1065 -0.0621 -0.1097
55775W        W98687  33.825  26.721   7.704 -0.0710  0.1769 -0.1593
55776W        W98688  31.404  28.400   9.491  0.0391  0.2547 -0.1753
55777W        W98689  34.573  28.003   6.682  0.0612 -0.2583 -0.0384
55778W        W98690  33.335  26.471   8.507  0.0641 -0.3713 -0.3892
55779W        W98691  32.473  26.602   8.976  0.0777  0.0049 -0.1666
55780W        W98692   0.284  27.380   9.257 -0.2171 -0.0069 -0.1918
55781W        W98693  33.959  25.312   8.039  0.1608 -0.1534 -0.0784
55782W        W98694  33.839  28.956   7.786 -0.0055  0.6595 -0.3980
55783W        W98695  32.144  25.968   9.266 -0.1950 -0.0063  0.0435
55784W        W98696   1.086  26.417   6.697 -0.0666 -0.0382  0.0133
55785W        W98697  34.173  26.891   8.720 -0.2489 -0.2094  0.0220
55786W        W98698  32.614  28.967   8.250  0.0393  0.1947  0.1189
55787W        W98699   0.147  28.719   7.230  0.1409 -0.0754 -0.0610
55788W        W98700   1.219  29.437   8.914  0.0905 -0.3045 -0.0841
55789W        W98701  32.462  27.379   8.251 -0.0371 -0.2668 -0.0809
55790W        W98702  34.102  27.917   8.414 -0.3327 -0.3934 -0.1172
55791W        W98703  34.086  31.068   7.930 -0.1516 -0.1416 -0.2106
55792W        W98704  34.248  25.647   7.789 -0.1190  0.1696  0.0312
55793W        W98705  33.821  26.318   8.999  0.0205 -0.1372 -0.0890
55794W        W98706  33.059  26.834   9.703 -0.1087  0.0156 -0.1726
55795W        W98707  33.475  26.949   7.216 -0.0476 -0.1144 -0.1041
55796W        W98708  32.146  26.920   8.546  0.3174 -0.0844 -0.2887
55797W        W98709  32.632  25.740  10.069  0.4800  0.0495 -0.0602
55798W        W98710  33.389  26.324   9.375 -0.2095 -0.1261  0.1548
55799W        W98711  32.426  25.973   7.764 -0.1553 -0.4673  0.0627
55800W        W98712  33.774  25.911   8.617 -0.0396 -0.1866 -0.0354
55801W        W98713  32.584  25.401   8.386  0.2035 -0.0478  0.0162
55802W        W98714  34.272  26.096   8.635 -0.2509  0.1234  0.2436
55803W        W98715  32.074  27.866   6.399  0.2906  0.0762  0.4519
55804W        W98716  32.837  24.892   7.230 -0.2250 -0.2677  0.1418
55805W        W98717  33.357  27.183   8.932 -0.0529 -0.1259  0.0668
55806W        W98718  34.096  25.247   9.955 -0.0630  0.2084  0.0569
55807W        W98719  33.277  25.875   7.891  0.0923  0.0534  0.0934
55808W        W98720  34.302  26.124  10.260  0.4052 -0.2704 -0.2048
55809W        W98721   0.853  26.760   7.595 -0.0525 -0.0141 -0.2105
55810W        W98722  34.263  26.593   7.869  0.1361  0.0523 -0.2623
55811W        W98723  33.878  28.835   9.053 -0.1161 -0.4683  0.1419
55812W        W98724  33.274  24.998   8.826  0.1361  0.0440 -0.3491
55813W        W98725  32.453  26.635   7.978 -0.0858  0.0110 -0.3336
55814W        W98726  33.139  27.987   8.587 -0.2479  0.0191  0.0091
55815W        W98727  34.257  26.303   9.241 -0.0114  0.2061  0.1748
55816W        W98728  33.665  29.495   9.602 -0.1865 -0.0474  0.2010
55817W        W98729  34.057  30.615   2.574 -0.0172  0.0398 -0.1488
55818W        W98730  33.308  30.730   0.462 -0.1515 -0.1550 -0.1746
55819W        W98731  31.952  30.095   1.362 -0.1362  0.4221 -0.0560
55820W        W98732  33.871  29.407   2.397  0.2184 -0.0042 -0.2636
55821W        W98733  33.653  31.465   2.263  0.2090  0.0128 -0.2718
55822W        W98734  34.233  30.835   2.093  0.0377  0.0676  0.3566
55823W        W98735   0.226  27.868  31.290  0.0835 -0.0368 -0.2259
55824W        W98736  33.261  29.252   1.621  0.1566  0.0112 -0.1644
55825W        W98737  32.366  31.204   0.523  0.1739  0.2770 -0.0319
55826W        W98738   0.351  30.607   2.609  0.5197  0.0541 -0.0445
55827W        W98739  33.752  30.354   0.499 -0.0545 -0.0955  0.0068
55828W        W98740   0.239  30.193   2.317  0.1521 -0.1559 -0.1114
55829W        W98741   0.510  32.645   0.346  0.0080  0.2083  0.1921
55830W        W98742  33.892  29.728  31.135 -0.4039  0.1770 -0.1352
55831W        W98743  32.776  31.259   2.240 -0.0329 -0.1588  0.1117
55832W        W98744  33.085  30.954   1.699  0.1139 -0.2950 -0.2486
55833W        W98745   1.018  34.074   1.575  0.0561 -0.0522 -0.0075
55834W        W98746  33.935  33.377   2.705 -0.0946  0.1514 -0.1647
55835W        W98747  32.961  31.454   1.420  0.2112  0.1173 -0.1401
55836W        W98748  31.945  31.504   1.247 -0.3092  0.0853  0.0195
55837W        W98749   0.162  32.274   1.142 -0.2453  0.0958  0.0325
55838W        W98750  33.332  31.930   3.144  0.1772 -0.0416  0.0557
55839W        W98751  33.113  31.209   0.461  0.1511 -0.0772 -0.0861
55840W        W98752  33.794  32.710   2.614  0.0779 -0.0061 -0.0262
55841W        W98753  34.314  32.543   1.307  0.1004  0.0458  0.0678
55842W        W98754   1.377  30.957   0.920  0.1392  0.0783 -0.1424
55843W        W98755  33.575  31.254   2.738  0.0067  0.1532  0.0946
55844W        W98756  31.837  31.837   2.322  0.0598  0.2495 -0.2027
55845W        W98757  34.068  32.054   0.793 -0.1166 -0.0037 -0.0390
55846W        W98758   0.657  28.769  30.474 -0.0861 -0.0493 -0.0010
55847W        W98759  34.537  30.058   0.941  0.0007  0.0419  0.0546
55848W        W98760   0.048  33.288   1.052 -0.1462  0.0381 -0.0115
55849W        W98761   0.581  30.638   2.071 -0.2202  0.0373  0.1340
55850W        W98762  32.862  31.278   0.897  0.1731  0.1781 -0.0640
55851W        W98763  33.353  30.621   1.497  0.1056 -0.4161  0.1793
55852W        W98764  33.032  30.718   0.888 -0.1365 -0.0135 -0.1280
55853W        W98765  31.519  32.243   3.184 -0.5409  0.3435  0.1661
55854W        W98766  32.683  31.666   2.566  0.2650  0.1206  0.0838
55855W        W98767  33.146  29.372  31.649  0.3611  0.1808 -0.0569
55856W        W98768  33.061  32.347   3.004 -0.0740 -0.0994 -0.0747
55857W        W98769  34.543  30.289   1.845 -0.1100 -0.0908  0.0014
55858W        W98770  34.278  29.681   0.569 -0.3857 -0.2571  0.0326
55859W        W98771  33.536  30.027   0.965  0.2033  0.1212  0.3613
55860W        W98772  33.397  32.371   1.410 -0.0726 -0.1591 -0.3560
55861W        W98773  33.585  30.627   2.689  0.2306  0.0530 -0.0694
55862W        W98774  34.440  31.743   2.959 -0.1501 -0.1593  0.0682
55863W        W98775  32.224  31.645   0.706 -0.1813  0.0558  0.1204
55864W        W98776  31.952  33.334   1.437 -0.2106 -0.3771 -0.5851
55865W        W98777  33.177  30.946   0.033  0.1686 -0.0737 -0.1706
55866W        W98778  34.115  31.205   2.796  0.1047  0.1537 -0.1572
55867W        W98779  32.588  31.160   1.645 -0.2966 -0.0191  0.2310
55868W        W98780  33.734  29.246   1.135  0.0938  0.4528 -0.0093
55869W        W98781   0.318  30.566   1.611 -0.0085 -0.1327 -0.0752
55870W        W98782  32.047  30.534   2.901  0.2262 -0.1811 -0.1885
55871W        W98783  33.982  29.856   1.010  0.1833  0.1429 -0.2085
55872W        W98784  34.624  31.208   2.002  0.0332 -0.1535 -0.0250
55873W        W98785  31.289  28.415   1.499  0.1272 -0.0501 -0.0705
55874W        W98786  33.168  28.960   3.228 -0.0193 -0.4659 -0.0663
55875W        W98787  33.815  29.380   0.637  0.1198 -0.2730 -0.1867
55876W        W98788  33.056  32.444   1.830  0.2034 -0.1386  0.0576
55877W        W98789  33.302  30.661   2.006  0.3536 -0.1485 -0.0068
55878W        W98790  31.698  30.685   0.629 -0.0261 -0.0663 -0.0799
55879W        W98791  33.040  32.996   2.730 -0.2571  0.1067  0.0055
55880W        W98792  32.539  30.126   1.022 -0.0908  0.2754  0.0235
55881W        W98793  32.709  30.537  31.296  0.0082 -0.0977 -0.3714
55882W        W98794  32.550  31.323   2.832  0.0801  0.0681 -0.2591
55883W        W98795   0.037  30.849   0.034  0.0170 -0.2857 -0.1002
55884W        W98796  33.133  31.674   0.177  0.1498  0.0088  0.1662
55885W        W98797  32.443  31.681   1.438 -0.1092  0.0359  0.0133
55886W        W98798   0.119  31.727   1.044 -0.0236  0.2020 -0.0318
55887W        W98799  32.829  31.232   4.214 -0.1857 -0.1895  0.0162
55888W        W98800  32.740  30.961  31.705  0.1729  0.1613  0.1024
55889W        W98801  32.076  30.803   3.423 -0.1144  0.2614 -0.0785
55890W        W98802  33.075  31.816   1.771 -0.1718 -0.3507  0.0661
55891W        W98803  33.641  31.301   1.455  0.0352 -0.2022 -0.2038
55892W        W98804   0.391  31.762   2.407 -0.1267 -0.0136 -0.0513
55893W        W98805  33.460  32.734   2.167 -0.0113  0.1764 -0.1078
55894W        W98806  33.343  29.373   2.098 -0.1042 -0.0979  0.2864
55895W        W98807   0.993  29.520   0.292  0.2575 -0.1550  0.2712
55896W        W98808  33.532  31.593  31.922  0.3053  0.0385 -0.0957
55897W        W98809  34.635  29.262   2.084 -0.1075  0.2641 -0.0573
55898W        W98810  34.135  30.260   2.108  0.0490 -0.1673 -0.1308
55899W        W98811   1.213  29.630   2.332  0.1573 -0.2294 -0.0483
55900W        W98812  32.254  31.461   2.311 -0.0491  0.2370  0.0588
55901W        W98813  34.150  32.669   2.211  0.2590  0.0111 -0.0523
55902W        W98814  34.140  29.230   3.727 -0.0803  0.0060  0.1104
55903W        W98815  33.869  32.219   1.224  0.0244  0.0712  0.0806
55904W        W98816  33.752  30.233   1.353 -0.1490 -0.0525  0.2380
55905W        W98817  33.875  29.863   1.814  0.0190  0.3837 -0.1773
55906W        W98818   0.466  34.097   1.818  0.1753 -0.0576  0.0810
55907W        W98819  34.471  30.724   1.707 -0.2824  0.0969  0.0025
55908W        W98820  32.136  31.045   1.481  0.3906  0.3305  0.1580
55909W        W98821  32.680  33.471   2.049  0.1258  0.0006 -0.1836
55910W        W98822   1.566  31.075   2.004  0.0686 -0.2974  0.1245
55911W        W98823  32.900  29.967   0.337  0.0427 -0.1096  0.4120
55912W        W98824  32.911  29.153   2.321 -0.2136  0.0055  0.2437
55913W        W98825   0.896  29.318   2.094  0.0234  0.0256 -0.1587
55914W        W98826  31.191  32.065   1.533 -0.0415  0.2777 -0.1569
55915W        W98827  34.183  31.339   2.289  0.1021 -0.0871  0.2664
55916W        W98828  33.291  30.109   2.166  0.3928 -0.2098  0.0016
55917W        W98829   0.887  31.020   2.239 -0.0229 -0.0111  0.1429
55918W        W98830  33.328  31.478   1.043  0.1053 -0.1532  0.1472
55919W        W98831  33.709  30.836   1.279  0.0617  0.0127  0.2102
55920W        W98832  32.816  32.176   2.253  0.2124  0.1537  0.1000
55921W        W98833  33.211  30.898   4.286 -0.0243  0.0153 -0.3143
55922W        W98834  34.392  29.786   1.767  0.1314  0.0645  0.0108
55923W        W98835  33.244  29.062   0.230 -0.1097  0.3440 -0.0051
55924W        W98836   0.229  29.544   1.697  0.2422  0.2018  0.0457
55925W        W98837  34.541  31.798   2.097 -0.2978  0.0218  0.0375
55926W        W98838  33.139  30.794   3.439  0.0360  0.1093 -0.0084
55927W        W98839  33.727  31.122  31.768  0.1000  0.3043 -0.1829
55928W        W98840  32.325  31.029   2.087 -0.2605 -0.1692  0.1709
55929W        W98841   0.545  31.965   1.356  0.0770  0.1040 -0.5140
55930W        W98842  33.640  31.020   1.928 -0.3837 -0.2312  0.1696
55931W        W98843  32.664  32.638   2.837 -0.0603  0.1606 -0.1969
55932W        W98844  33.974  31.272   0.612 -0.1912  0.0754  0.0289
55933W        W98845  31.535  32.740   3.784 -0.1340  0.3108  0.5687
55934W        W98846  33.789  28.692   1.117  0.0715  0.0037  0.0136
55935W        W98847   0.417  29.339   2.243  0.0834  0.0036 -0.1910
55936W        W98848  32.915  30.507   3.012  0.1219 -0.0915  0.1595
55937W        W98849  32.625  32.150   2.758  0.0160 -0.2758  0.0656
55938W        W98850  34.071  28.969   0.741 -0.2279  0.2688 -0.0558
55939W        W98851  34.008  31.642   2.705  0.0496  0.1598  0.0653
55940W        W98852   0.206  31.024   1.626 -0.2631 -0.3514  0.2956
55941W        W98853  33.824  30.966   2.400 -0.0698 -0.0150  0.0508
55942W        W98854   0.881  30.380   1.717 -0.1467 -0.0615 -0.0834
55943W        W98855   0.120  30.647   2.053 -0.0350 -0.0432 -0.0139
55944W        W98856  33.677  29.893   2.283 -0.1930 -0.3805 -0.0269
55945W        W98857  34.567  30.984   2.459  0.1248  0.4247 -0.3078
55946W        W98858  32.811  29.015   3.605 -0.1313 -0.0879  0.2089
55947W        W98859  33.077  30.521   2.449 -0.0980  0.2277 -0.2230
55948W        W98860  32.893  28.757   0.978  0.0590  0.3180  0.0589
55949W        W98861   0.515  31.925   0.153  0.2019  0.0857  0.0756
55950W        W98862  31.793  30.582   1.529 -0.2141 -0.1976  0.1899
55951W        W98863  33.615  32.444   2.965  0.3174  0.0444 -0.0273
55952W        W98864  33.420  31.627   0.580  0.1417  0.1543  0.1276
55953W        W98865   0.768  29.439  30.850 -0.0339 -0.1696 -0.1018
55954W        W98866  33.800  31.736   1.840  0.0519 -0.1421 -0.1106
55955W        W98867  34.392  28.471  31.641  0.1535  0.2154  0.1625
55956W        W98868  32.354  32.511   1.730  0.0092  0.1992  0.0219
55957W        W98869  33.331  32.115   2.150  0.3391 -0.0151  0.0264
55958W        W98870  31.274  33.168   3.683 -0.2222  0.0131 -0.1792
55959W        W98871  33.549  32.615   0.978  0.2223  0.0093  0.1253
55960W        W98872   1.323  31.792   2.536  0.1013 -0.0789  0.2999
55961W        W98873   0.000  30.712   1.249  0.3858  0.2444  0.3268
55962W        W98874  33.339  29.546   1.014  0.1913 -0.0559 -0.0061
55963W        W98875  33.217  30.162   1.321  0.0379  0.1901 -0.2088
55964W        W98876   0.072  29.604   0.719 -0.1169 -0.0452  0.2413
55965W        W98877  33.540  31.804   2.615 -0.1144  0.0038  0.0394
55966W        W98878  32.656  30.180   2.143  0.0028 -0.0867  0.0425
55967W        W98879   0.154  32.804   1.131  0.1291 -0.0473 -0.0912
55968W        W98880   0.031  30.213   1.391 -0.2391 -0.3914  0.0097
55969W        W98881  33.037  33.161   1.487  0.1375 -0.0743 -0.0648
55970W        W98882  31.717  31.975   0.173 -0.0633 -0.0597 -0.1423
55971W        W98883   0.009  32.809   0.635  0.0170 -0.1359  0.1675
55972W        W98884  33.558  31.269   0.267  0.0605  0.1485 -0.0749
55973W        W98885  34.674  29.649  31.574 -0.1287 -0.0290  0.1111
55974W        W98886  33.835  31.473   3.183 -0.0270 -0.3015 -0.0759
55975W        W98887  33.838  32.461   1.668  0.0048  0.0712 -0.0433
55976W        W98888  32.341  30.945   0.063 -0.1790 -0.0918 -0.0398
55977W        W98889   0.084  32.069   1.685  0.0577  0.5412 -0.2383
55978W        W98890  33.214  31.051   1.250 -0.1434 -0.0858  0.1386
55979W        W98891  33.773  31.655   0.924  0.0366  0.2306 -0.3644
55980W        W98892  34.195  30.695   1.284  0.4422  0.4302  0.3069
55981W        W98893  33.797  33.010   1.937  0.2859  0.1914 -0.1134
55982W        W98894  32.004  28.710   0.335  0.2256  0.1158  0.0942
55983W        W98895  32.746  29.982   3.095 -0.0683  0.2440 -0.3886
55984W        W98896  32.335  30.505   1.851  0.0159  0.0109  0.1012
55985W        W98897  34.009  30.142   2.665  0.1779  0.0016  0.0993
55986W        W98898   2.826  30.829  31.320  0.2774  0.1521  0.1689
55987W        W98899  32.863  29.433   0.183 -0.2433 -0.1440 -0.0689
55988W        W98900  32.522  30.869   0.869  0.1627  0.0303 -0.0920
55989W        W98901   0.594  31.414   3.059 -0.3604 -0.4530 -0.2179
55990W        W98902  32.307  30.536   1.349 -0.0346 -0.1852 -0.1148
55991W        W98903  34.367  31.773  31.771 -0.1535  0.1956  0.1755
55992W        W98904  34.161  29.772   2.302 -0.2683 -0.1735 -0.0063
55993W        W98905   1.129  28.368   0.786  0.2822 -0.2916 -0.2339
55994W        W98906  33.293  31.400   1.936 -0.1218  0.2871 -0.1557
55995W        W98907  33.050  31.902   0.751 -0.1646 -0.1724  0.2816
55996W        W98908  34.682  32.191  31.757 -0.0001 -0.1591 -0.0672
55997W        W98909  33.065  31.917   2.705  0.0824  0.0084 -0.4558
55998W        W98910  33.905  32.200   2.661  0.1834  0.1830  0.1806
55999W        W98911  34.288  30.203   0.503 -0.0171  0.2851 -0.0045
56000W        W98912   0.317  31.026   2.372  0.2405 -0.0283  0.0339
56001W        W98913  34.206  32.143   1.732  0.0846  0.0967  0.0555
56002W        W98914   1.014  31.804   1.179 -0.0512  0.2771 -0.1470
56003W        W98915   0.283  30.100   1.873  0.0919 -0.1076  0.2109
56004W        W98916   1.221  30.901   2.619  0.3630  0.4529 -0.3192
56005W        W98917  34.009  30.563   3.116 -0.0126  0.1190  0.0065
56006W        W98918  33.104  30.137  31.243  0.0971  0.3740 -0.0649
56007W        W98919  33.700  30.464   2.236  0.0201 -0.1344 -0.0215
56008W        W98920  33.063  31.677   2.260  0.0889  0.0245 -0.1604
56009W        W98921   0.554  29.794   3.016 -0.1761 -0.1644  0.1403
56010W        W98922  33.230  31.029   2.327 -0.0284  0.1935 -0.0658
56011W        W98923  32.080  31.432   1.772 -0.0742 -0.1177 -0.0192
56012W        W98924  34.558  28.936   0.844 -0.0272 -0.4102  0.0022
56013W        W98925  33.566  30.240   1.795  0.0636  0.2673  0.0608
56014W        W98926  31.842  29.372   1.102 -0.1876 -0.2432  0.0402
56015W        W98927  32.172  29.722   0.938 -0.0180  0.0357  0.1654
56016W        W98928   0.627  30.457   0.479 -0.0741  0.0145  0.1890
56017W        W98929  33.999  30.344   0.923  0.2237  0.1994  0.3732
56018W        W98930  34.511  30.439   2.499 -0.3807 -0.2061 -0.0494
56019W        W98931  31.869  29.383   1.621 -0.0872  0.3733  0.1020
56020W        W98932  34.270  31.550   1.766  0.6428  0.1886 -0.2900
56021W        W98933  33.221  30.272   0.554 -0.0356  0.0214  0.0678
56022W        W98934   0.311  32.775   1.937 -0.1102  0.0396 -0.0924
56023W        W98935  32.066  29.733   3.324  0.3394 -0.2701  0.1463
56024W        W98936  34.215  32.794   1.732  0.2220 -0.0620 -0.0989
56025W        W98937  34.079  28.875   3.408  0.1926  0.0136  0.1802
56026W        W98938  34.299  33.160   2.129  0.2674  0.0597 -0.1080
56027W        W98939   0.064  29.744   2.154  0.1236 -0.2216 -0.0011
56028W        W98940  32.845  29.815   0.891 -0.0723 -0.0180 -0.0814
56029W        W98941  34.019  31.236   1.113 -0.1835 -0.2344  0.0321
56030W        W98942   0.176  30.978   3.415 -0.0728 -0.1370  0.2044
56031W        W98943   0.311  29.900   1.048 -0.0045  0.0814  0.1820
56032W        W98944  34.405  33.670   2.792  0.0805  0.0109  0.0307
56033W        W98945  32.836  29.358   1.866  0.1066  0.0851 -0.0431
56034W        W98946  33.472  30.512   0.954  0.1057  0.1342 -0.0130
56035W        W98947  34.071  31.078   1.600 -0.0084  0.1006 -0.2150
56036W        W98948   0.160  29.199   0.338 -0.0626  0.1867 -0.3735
56037W        W98949  33.506  33.161   2.413  0.0768  0.3274  0.1344
56038W        W98950  33.903  31.710   5.611 -0.0117 -0.1506  0.1758
56039W        W98951   0.233  30.577   3.137  0.1047 -0.1166 -0.0662
56040W        W98952  31.680  29.544   4.453  0.2856  0.0816 -0.1213
56041W        W98953  32.583  28.994   7.258  0.3249  0.4534  0.0155
56042W        W98954  33.013  29.644   5.517 -0.3343 -0.2534 -0.1790
56043W        W98955  34.251  31.986   5.820  0.0587 -0.1660  0.0501
56044W        W98956  33.917  30.031   4.214  0.0555  0.0980  0.2101
56045W        W98957  33.370  29.398   5.779 -0.1760  0.0232  0.2929
56046W        W98958  31.808  31.256   4.530 -0.2066 -0.3669  0.0079
56047W        W98959  33.366  30.764   5.331 -0.1178  0.3107 -0.0331
56048W        W98960  33.713  30.705   4.307  0.0055 -0.2106  0.0229
56049W        W98961  33.885  29.379   6.220  0.0215  0.2210 -0.0116
56050W        W98962   0.592  32.261   4.579  0.1268  0.0616  0.0380
56051W        W98963  32.747  30.855   2.589 -0.0824  0.1711 -0.0856
56052W        W98964  32.369  30.411   5.368  0.1062 -0.1343  0.1546
56053W        W98965  33.504  30.584   6.290 -0.1451 -0.1482 -0.0261
56054W        W98966  34.266  32.199   3.589  0.0627 -0.0433  0.0831
56055W        W98967   1.439  32.662   4.714 -0.2601  0.2308 -0.1338
56056W        W98968  33.192  30.851   2.849  0.0585 -0.0973  0.3138
56057W        W98969  33.097  33.717   6.537  0.1363 -0.1038 -0.1849
56058W        W98970  32.354  32.618   5.740  0.0571  0.2051  0.1681
56059W        W98971  33.703  32.178   5.856 -0.0497  0.2564  0.1203
56060W        W98972  33.899  32.026   4.509 -0.2867  0.1804 -0.1755
56061W        W98973  31.844  33.003   6.370  0.0923 -0.1099 -0.1083
56062W        W98974  33.654  31.623   4.728 -0.2179  0.0225  0.0781
56063W        W98975   0.070  33.122   4.240 -0.2012 -0.1160  0.1310
56064W        W98976  33.277  31.215   5.057  0.2603  0.2213 -0.1126
56065W        W98977  31.483  33.331   6.413 -0.1524  0.0140  0.0326
56066W        W98978  33.003  32.254   3.506  0.0813 -0.0734  0.0412
56067W        W98979  33.296  29.482   3.450 -0.3346 -0.0912 -0.2947
56068W        W98980  34.023  29.756   5.045  0.0139  0.0567 -0.1463
56069W        W98981  33.605  32.724   4.982  0.2530  0.2474  0.1720
56070W        W98982  33.050  30.045   5.184  0.5084  0.1686  0.1448
56071W        W98983  31.658  31.099   5.868  0.1016 -0.0274 -0.4360
56072W        W98984  33.658  30.374   5.648 -0.2501 -0.0311  0.2910
56073W        W98985  34.290  30.125   4.907  0.1895  0.1052 -0.0627
56074W        W98986  32.712  31.447   4.952  0.0801  0.2044 -0.0049
56075W        W98987  31.588  28.997   4.805 -0.1892  0.0922 -0.0406
56076W        W98988  34.617  28.733   4.322 -0.0717 -0.1970 -0.2718
56077W        W98989  33.111  32.594   5.213 -0.2105  0.3494 -0.1457
56078W        W98990  34.041  30.433   6.316  0.1372 -0.0457  0.0694
56079W        W98991  34.488  30.649   3.409  0.2552 -0.1166  0.1467
56080W        W98992  33.272  31.347   4.576 -0.3108 -0.0204  0.1499
56081W        W98993  33.084  32.881   6.327  0.1572 -0.1562 -0.0769
56082W        W98994  34.495  29.433   5.527 -0.2514 -0.0522  0.0463
56083W        W98995  33.318  32.103   6.477 -0.2031 -0.0063  0.1743
56084W        W98996  32.483  33.314   4.702  0.1921 -0.3245  0.1662
56085W        W98997  32.365  31.125   4.721 -0.0681  0.1978 -0.1759
56086W        W98998  33.577  31.552   3.647 -0.0759 -0.0890 -0.3233
56087W        W98999  32.131  29.478   5.357  0.1529 -0.1791 -0.0156
56088W        W99000  34.025  31.764   5.033 -0.0270 -0.1303  0.1333
56089W        W99001  32.084  29.312   6.251  0.1306  0.1004  0.3616
56090W        W99002  31.517  31.679   4.450 -0.3297  0.1006  0.0782
56091W        W99003  32.538  30.616   4.532 -0.3547  0.5203 -0.0980
56092W        W99004  33.112  29.304   4.400  0.1813  0.1312  0.1262
56093W        W99005  32.670  30.051   5.536  0.0449 -0.1587  0.1183
56094W        W99006  32.620  30.682   5.801 -0.3098 -0.0956  0.1450
56095W        W99007  33.475  29.842   4.941 -0.3291 -0.1811  0.2310
56096W        W99008  34.674  30.833   4.167  0.2290 -0.1216 -0.0798
56097W        W99009  32.848  31.047   4.693 -0.0952  0.1367 -0.1004
56098W        W99010  32.956  29.992   6.986  0.1572  0.1164  0.0373
56099W        W99011  33.204  30.313   3.917 -0.1297 -0.1058 -0.0786
56100W        W99012  32.542  32.090   5.823  0.1024 -0.0855  0.2282
56101W        W99013  33.202  31.543   4.041  0.0972 -0.3939 -0.2284
56102W        W99014  34.220  29.837   3.257 -0.0063  0.1301 -0.1031
56103W        W99015  33.211  30.095   5.665 -0.1130 -0.1094 -0.0983
56104W        W99016  33.416  29.294   2.970 -0.2785 -0.1249  0.3995
56105W        W99017  32.807  33.342   4.261  0.0721 -0.0644 -0.1618
56106W        W99018  32.456  30.320   3.338 -0.1527  0.0872 -0.2139
56107W        W99019  33.171  33.009   4.101  0.0547 -0.1766 -0.0992
56108W        W99020  32.948  31.649   6.541 -0.0069  0.2878 -0.2210
56109W        W99021  32.725  30.901   5.174 -0.0562 -0.2387 -0.0280
56110W        W99022  33.231  31.722   4.953  0.1450 -0.2814 -0.3637
56111W        W99023  31.928  30.094   6.815 -0.1355  0.1336  0.2413
56112W        W99024   0.700  31.479   4.844 -0.0574 -0.0956  0.4425
56113W        W99025   0.327  31.255   4.564  0.2032  0.2202 -0.1148
56114W        W99026  33.237  31.897   4.420  0.4215  0.0678  0.1766
56115W        W99027  33.643  29.036   6.497 -0.1205  0.2200 -0.2053
56116W        W99028  34.038  31.024   3.342 -0.0161 -0.1458 -0.3748
56117W        W99029  32.385  32.229   3.783  0.0232 -0.1442 -0.1962
56118W        W99030  34.681  29.369   6.337  0.0420 -0.1051 -0.4002
56119W        W99031  33.052  31.175   3.713 -0.3795 -0.2241 -0.0774
56120W        W99032  34.612  29.889   7.549  0.2483 -0.1409 -0.0173
56121W        W99033  33.041  31.526   5.350  0.1321 -0.0121  0.2589
56122W        W99034  32.640  32.852   6.616  0.0374  0.0426  0.0491
56123W        W99035   1.059  30.008   6.810 -0.2932 -0.1336  0.1453
56124W        W99036  33.709  33.799   3.653  0.1179  0.0336  0.2353
56125W        W99037   0.071  31.961   3.271  0.1062  0.2769 -0.1591
56126W        W99038  32.717  30.288   6.549 -0.0890  0.0460  0.1302
56127W        W99039   0.121  32.649   4.655  0.0859 -0.1142  0.2505
56128W        W99040  34.044  32.540   4.355  0.0117 -0.3226 -0.1582
56129W        W99041  33.592  33.339   4.803 -0.0616  0.1343 -0.2021
56130W        W99042  32.564  32.273   5.264 -0.1898 -0.0076  0.1383
56131W        W99043  33.404  30.798   3.857  0.2952 -0.2708 -0.1114
56132W        W99044  33.784  30.118   4.720  0.0607  0.0007  0.0116
56133W        W99045  32.605  30.111   4.854  0.2824 -0.0964  0.0669
56134W        W99046  32.309  33.458   6.021 -0.2883  0.4715  0.2444
56135W        W99047   0.246  31.704   5.361 -0.1757 -0.1352  0.0288
56136W        W99048  32.452  30.304   2.778 -0.1330 -0.4337 -0.2137
56137W        W99049  33.287  29.292   5.299 -0.1439 -0.0558 -0.1032
56138W        W99050  31.714  32.261   4.799  0.1272 -0.0787 -0.1391
56139W        W99051  33.554  30.109   3.508 -0.1347  0.0570 -0.0058
56140W        W99052  33.669  31.672   4.253 -0.0244  0.0449  0.0575
56141W        W99053  32.471  29.011   6.460 -0.0486  0.3230 -0.1756
56142W        W99054  33.994  30.118   5.957  0.0733 -0.0240 -0.0143
56143W        W99055  34.431  30.260   3.063  0.1805  0.1223 -0.3237
56144W        W99056  33.657  29.853   5.426  0.1789 -0.2068  0.2321
56145W        W99057   0.408  30.696   5.164  0.0834 -0.1955 -0.5439
56146W        W99058  33.365  31.647   5.734 -0.0150  0.1516 -0.1008
56147W        W99059  33.682  30.901   3.094  0.2041  0.0634 -0.0859
56148W        W99060  31.408  31.185   4.196  0.2452  0.1088 -0.1488
56149W        W99061  32.900  31.983   4.005  0.0469  0.0220  0.0950
56150W        W99062  33.495  29.857   5.979  0.1810  0.2442 -0.0093
56151W        W99063  33.438  30.312   5.197 -0.0933 -0.0855  0.1152
56152W        W99064  33.688  33.283   3.736  0.1930 -0.1786 -0.3957
56153W        W99065  32.393  32.225   4.759 -0.0364 -0.3306  0.0534
56154W        W99066  34.382  30.924   4.612 -0.0325 -0.0815  0.5132
56155W        W99067  33.920  28.700   6.703 -0.0262  0.0949 -0.0939
56156W        W99068  32.081  29.612   6.971 -0.2502 -0.0640 -0.0878
56157W        W99069  33.276  31.157   6.618 -0.3269  0.2988 -0.1701
56158W        W99070  34.079  30.304   3.600  0.2562  0.3468 -0.0155
56159W        W99071  34.386  32.361   4.599  0.3280  0.2126 -0.2711
56160W        W99072  34.160  31.612   4.207  0.0434  0.0135 -0.0807
56161W        W99073  33.846  31.965   6.697  0.0962  0.2891  0.1897
56162W        W99074  34.534  31.641   3.832 -0.4054 -0.0285 -0.1830
56163W        W99075  32.102  32.602   3.897  0.2476 -0.1369 -0.0002
56164W        W99076  34.242  29.103   7.396  0.0421  0.0770 -0.4483
56165W        W99077  33.872  30.794   5.498  0.3783  0.4126 -0.1268
56166W        W99078  32.902  30.469   5.395 -0.1411 -0.0963  0.0500
56167W        W99079  34.146  30.197   5.479  0.1715  0.1303  0.3141
56168W        W99080  33.038  29.895   3.646 -0.3011  0.1438  0.1140
56169W        W99081  34.074  34.303   3.674  0.4141  0.1211 -0.4617
56170W        W99082  32.873  29.927   4.142 -0.0818  0.1742 -0.3237
56171W        W99083  33.430  32.898   7.266 -0.1352 -0.1824 -0.1236
56172W        W99084  33.393  29.747   1.784  0.1284 -0.0434 -0.1063
56173W        W99085  33.943  31.811   3.804  0.0023 -0.2916  0.1515
56174W        W99086   1.178  31.439   5.144  0.1582 -0.0781  0.0543
56175W        W99087   0.897  29.953   4.883 -0.2434  0.1996  0.0940
56176W        W99088  32.173  31.935   5.115  0.2885  0.1598  0.5849
56177W        W99089  34.629  33.525   5.618 -0.1651 -0.1470  0.0320
56178W        W99090  33.151  32.133   5.441  0.1897  0.0504  0.1642
56179W        W99091  32.712  31.539   3.850 -0.2044 -0.0511  0.1344
56180W        W99092   0.041  32.119   5.689  0.5168  0.1272 -0.2209
56181W        W99093  33.874  31.815   6.162 -0.1902  0.1402  0.1164
56182W        W99094  32.432  31.653   6.061  0.0527  0.0824  0.0849
56183W        W99095  31.547  29.778   6.810  0.0540 -0.1480  0.1247
56184W        W99096  33.422  30.150   2.651  0.0565  0.0990 -0.0736
56185W        W99097  33.741  33.436   5.911  0.2182  0.0509 -0.1699
56186W        W99098  31.849  30.817   4.736 -0.0906 -0.0338  0.1115
56187W        W99099   0.286  32.940   5.357 -0.0460 -0.2145  0.1894
56188W        W99100  34.439  29.817   2.818  0.1068 -0.0052  0.1667
56189W        W99101  32.875  31.737   5.787 -0.1291 -0.2987  0.0662
56190W        W99102  32.428  31.888   4.157 -0.0566  0.1467 -0.3689
56191W        W99103  34.629  34.062   4.721  0.0980 -0.2429 -0.0055
56192W        W99104  33.962  30.760   4.685 -0.0104 -0.1955 -0.3164
56193W        W99105  33.984  29.589   2.843  0.1865  0.2268  0.1313
56194W        W99106  33.577  30.836   6.860  0.0850 -0.0183 -0.0717
56195W        W99107  33.452  32.525   6.194  0.1466 -0.0383  0.1876
56196W        W99108  33.682  30.559   3.508 -0.0179 -0.0504  0.3117
56197W        W99109   0.262  29.885   4.564 -0.0629 -0.0044  0.1654
56198W        W99110  34.186  31.063   4.148 -0.3094 -0.0128 -0.1352
56199W        W99111  32.783  31.638   4.434 -0.0564 -0.0491 -0.1459
56200W        W99112  32.739  32.574   3.656  0.0353 -0.0569  0.0900
56201W        W99113  32.931  30.526   4.885  0.1778 -0.1469 -0.0986
56202W        W99114  31.416  30.223   3.567 -0.4514  0.1709 -0.1752
56203W        W99115  33.241  30.554   5.794  0.1004 -0.4707  0.0651
56204W        W99116  32.881  30.378   4.310  0.2234  0.1092 -0.1657
56205W        W99117  32.207  30.306   5.850  0.3135 -0.1325 -0.0855
56206W        W99118  34.695  29.435   4.510  0.1243  0.2485  0.2453
56207W        W99119  33.445  29.861   3.980 -0.0795 -0.0044  0.0363
56208W        W99120  32.855  32.018   4.940 -0.0509 -0.1610 -0.4445
56209W        W99121  34.450  30.188   6.184 -0.3573 -0.2215  0.1560
56210W        W99122  33.250  28.564   4.772  0.1115 -0.1649 -0.3113
56211W        W99123  34.183  32.680   3.752  0.0828 -0.1937 -0.1422
56212W        W99124  31.259  29.248   6.564 -0.4116 -0.0134  0.2198
56213W        W99125   0.622  30.320   3.879  0.1054 -0.4757  0.0004
56214W        W99126  34.644  29.193   5.019 -0.1308  0.0973 -0.3349
56215W        W99127  31.662  33.231   5.138  0.2345  0.0302  0.0192
56216W        W99128  34.665  33.195   2.857 -0.1787 -0.1587  0.2964
56217W        W99129  34.323  31.391   4.854 -0.1098  0.0915  0.1234
56218W        W99130  32.920  32.727   7.288  0.1728  0.0523  0.0024
56219W        W99131  33.118  31.724   3.583  0.0724  0.0884 -0.2299
56220W        W99132  33.333  32.263   4.815  0.0105  0.3558 -0.1526
56221W        W99133  34.027  32.318   4.940 -0.0064  0.0824  0.2603
56222W        W99134  33.671  32.766   3.981 -0.0425 -0.1464 -0.1019
56223W        W99135   0.308  30.321   4.331 -0.0865 -0.0144  0.6510
56224W        W99136   0.400  29.731   3.532 -0.0611  0.2775  0.1669
56225W        W99137  33.804  29.890   6.413  0.0291  0.1865 -0.1568
56226W        W99138  31.683  30.423   4.133 -0.0384  0.0394 -0.0226
56227W        W99139  33.792  31.199   4.477  0.1999 -0.1635  0.0482
56228W        W99140  32.603  30.316   3.882  0.1903  0.0163 -0.1648
56229W        W99141  34.486  29.301   6.848 -0.2076  0.3805 -0.0797
56230W        W99142  32.228  30.885   5.486 -0.2298  0.0268 -0.2105
56231W        W99143  33.446  30.826   4.745 -0.4227 -0.3757  0.0938
56232W        W99144  32.925  29.481   3.903 -0.0079  0.1735 -0.1863
56233W        W99145  33.187  30.169   6.421  0.1110 -0.1333  0.0631
56234W        W99146  32.171  29.997   5.223 -0.0060  0.0635  0.2150
56235W        W99147  34.396  29.245   5.969  0.1458 -0.2639 -0.1076
56236W        W99148  32.459  31.382   3.403 -0.5281 -0.0079 -0.3033
56237W        W99149  33.702  31.507   6.576 -0.1835 -0.0982  0.1121
56238W        W99150  33.897  30.605   7.737  0.1654 -0.0287 -0.0411
56239W        W99151  33.204  29.092   3.887 -0.2609  0.1170  0.2026
56240W        W99152  34.200  30.073   6.687  0.0990 -0.2397 -0.0301
56241W        W99153  33.652  32.168   5.253  0.4346 -0.4115 -0.1650
56242W        W99154  33.186  31.739   6.967  0.0160  0.1283 -0.4236
56243W        W99155  32.535  29.597   5.669  0.0778  0.0708  0.0700
56244W        W99156  34.472  32.377   6.049  0.0372  0.1380  0.1085
56245W        W99157  32.934  29.442   7.506 -0.4083  0.2310 -0.1297
56246W        W99158  33.213  32.108   5.952  0.0131  0.0050 -0.0266
56247W        W99159  34.294  29.061   4.599 -0.1981 -0.0024  0.0508
56248W        W99160  32.376  30.996   4.209 -0.0638 -0.1969 -0.2984
56249W        W99161  34.567  30.106   3.571  0.0655  0.1531 -0.0884
56250W        W99162   0.100  32.392   5.087  0.2077 -0.2032 -0.1746
56251W        W99163  33.800  32.273   2.128  0.0616  0.0660  0.1765
56252W        W99164   0.031  33.669   5.163 -0.2696  0.0996 -0.2988
56253W        W99165  32.612  28.582   6.819  0.0561  0.2372  0.0716
56254W        W99166  32.814  32.193   4.471 -0.3292  0.1118 -0.1449
56255W        W99167  33.918  30.432   5.126 -0.0260  0.0732 -0.2057
56256W        W99168  33.720  30.377   3.973 -0.1769 -0.0983 -0.0801
56257W        W99169  32.929  32.958   5.511  0.0003  0.0125  0.1140
56258W        W99170   0.738  30.368  12.641  0.0296  0.1529  0.1637
56259W        W99171  34.600  30.191   7.932  0.0529  0.1628 -0.0981
56260W        W99172  31.309  30.313   9.892 -0.1220 -0.2812  0.4635
56261W        W99173  33.128  30.787   9.429  0.2008  0.0133 -0.1960
56262W        W99174   0.397  30.123   8.039  0.4655 -0.2185 -0.3433
56263W        W99175  30.972  28.645   9.732 -0.2979  0.3792  0.1147
56264W        W99176  32.635  31.065   7.183 -0.0610  0.1087 -0.2750
56265W        W99177  32.498  29.945   8.924 -0.1222  0.0480  0.1988
56266W        W99178  33.187  29.956   8.281 -0.0225 -0.1951 -0.1272
56267W        W99179  33.633  27.417   9.292 -0.2206  0.3365 -0.4080
56268W        W99180  34.374  32.869   7.733 -0.0096 -0.3065  0.0005
56269W        W99181  33.176  30.901   7.093  0.4253 -0.0569 -0.4175
56270W        W99182  33.267  29.710   8.716  0.0594  0.2193 -0.2769
56271W        W99183  34.443  30.985   8.877 -0.1919 -0.0541 -0.2084
56272W        W99184  31.936  32.503   9.183  0.0582  0.1936 -0.0173
56273W        W99185  34.059  31.580   8.354  0.0476  0.2779  0.0742
56274W        W99186  33.376  31.374   7.583 -0.2632 -0.1945 -0.0734
56275W        W99187  31.977  32.276   7.588  0.1635  0.0631  0.2334
56276W        W99188  33.375  32.304   7.976  0.3699  0.1760 -0.1385
56277W        W99189  34.533  32.116   7.938  0.1804  0.3901  0.0358
56278W        W99190  33.909  32.940   7.507 -0.2633 -0.2011  0.1106
56279W        W99191  33.803  32.207   8.766  0.2085  0.3292 -0.0902
56280W        W99192  33.625  31.824   8.439 -0.1591 -0.2768  0.0269
56281W        W99193  32.821  31.695   8.226  0.0244  0.1268  0.2004
56282W        W99194  33.604  30.995   7.344  0.3286  0.0880 -0.1542
56283W        W99195   0.071  28.922   7.941  0.0848  0.1365  0.0964
56284W        W99196  32.580  32.236   9.006  0.1206 -0.0679  0.0209
56285W        W99197  33.736  29.533   8.593  0.0354  0.0197 -0.2479
56286W        W99198   0.024  32.926   9.920 -0.0439  0.1651 -0.0851
56287W        W99199  33.023  30.185   8.764 -0.1281  0.4414  0.2398
56288W        W99200  32.168  30.342   8.986 -0.1443  0.1350  0.1210
56289W        W99201  31.854  30.394   7.230  0.2574 -0.1630  0.3237
56290W        W99202  34.009  31.286   8.868 -0.1009  0.0476 -0.1880
56291W        W99203  33.391  30.391   8.480 -0.6301 -0.0815  0.0534
56292W        W99204  33.212  32.652   6.871 -0.0146  0.0155  0.2553
56293W        W99205  33.536  33.106   9.155 -0.1051 -0.1120  0.0193
56294W        W99206  33.771  32.417   8.286  0.1523  0.0257 -0.1296
56295W        W99207  32.694  30.778   9.163 -0.1796 -0.0268  0.2327
56296W        W99208  33.533  32.461   7.513  0.2550  0.1522 -0.0093
56297W        W99209  33.007  27.370   9.580  0.0052 -0.1470  0.2159
56298W        W99210  33.043  32.967  10.002 -0.0870  0.1286 -0.1285
56299W        W99211  32.892  30.424   8.379 -0.1840  0.0680  0.0246
56300W        W99212  34.185  30.523   8.640 -0.1478  0.1003  0.1258
56301W        W99213  33.209  30.576   9.007  0.1282  0.0687 -0.0505
56302W        W99214  32.724  29.974   9.612 -0.1262 -0.3406  0.2190
56303W        W99215  31.546  31.026   6.444  0.3513  0.0141 -0.1692
56304W        W99216  33.184  31.197   8.254 -0.2836  0.0259 -0.0137
56305W        W99217  32.223  31.074   6.864  0.0998 -0.1084  0.0306
56306W        W99218  31.813  29.417   8.929  0.1632 -0.0989  0.1088
56307W        W99219  33.688  29.972   8.295 -0.0611  0.0266 -0.1497
56308W        W99220  31.840  33.696   8.865  0.2443 -0.0249  0.0492
56309W        W99221  34.641  31.814   7.535  0.3528  0.1850  0.1781
56310W        W99222  32.808  29.685   7.899 -0.1445  0.1394  0.3060
56311W        W99223  32.657  30.739   6.732  0.0932  0.0608 -0.0806
56312W        W99224  32.830  32.416   7.816 -0.0886 -0.0817  0.0418
56313W        W99225  32.077  31.804   7.555  0.3002 -0.2777  0.2375
56314W        W99226   0.821  33.165   7.893 -0.0991 -0.0208 -0.0265
56315W        W99227  32.447  30.527   8.164 -0.0228 -0.2161  0.0445
56316W        W99228   0.185  31.261   8.045 -0.2571 -0.1943 -0.1036
56317W        W99229  34.356  31.469   9.258 -0.0690  0.0401 -0.1809
56318W        W99230  34.181  33.502  10.049  0.2037 -0.0794 -0.0215
56319W        W99231  32.310  28.169   8.683 -0.0125 -0.1612  0.2625
56320W        W99232  32.445  30.238   7.042  0.1000  0.1756  0.1404
56321W        W99233  32.934  32.358   6.262  0.1303  0.1805  0.1822
56322W        W99234  33.306  30.483   7.507  0.1329 -0.0630  0.0636
56323W        W99235  34.202  30.471   9.630 -0.2445  0.0923 -0.0886
56324W        W99236  32.641  32.834   8.571  0.0996  0.0773 -0.4142
56325W        W99237  33.939  32.208   7.197  0.2032  0.0138  0.0730
56326W        W99238  33.342  31.099   6.068  0.2111 -0.0367  0.2416
56327W        W99239   0.042  28.188   9.823  0.0294 -0.0035  0.1479
56328W        W99240  34.029  31.001   8.423 -0.2618  0.1657  0.1382
56329W        W99241  33.881  33.134   6.951  0.0809  0.0598 -0.0804
56330W        W99242  34.357  33.239   8.716  0.3832 -0.1535 -0.0496
56331W        W99243  32.522  33.078  10.039 -0.2095 -0.2229 -0.0881
56332W        W99244   0.017  29.944   6.554 -0.3523 -0.1153  0.0079
56333W        W99245  31.801  31.124   9.650 -0.2594  0.2420  0.2526
56334W        W99246  31.940  30.838   9.165  0.1371  0.0845 -0.0819
56335W        W99247  34.403  30.505   7.529 -0.1327 -0.0816  0.0347
56336W        W99248  33.427  32.109   9.364  0.0386  0.4270 -0.1263
56337W        W99249  31.509  31.882   7.688 -0.4650 -0.2370 -0.1873
56338W        W99250  33.616  30.843   8.272 -0.3385  0.1114  0.0855
56339W        W99251  32.746  30.934   8.294 -0.0421  0.3291 -0.0393
56340W        W99252  33.476  31.331   7.005 -0.1253 -0.1030 -0.1659
56341W        W99253  33.632  31.707   8.942  0.1890  0.0322 -0.4052
56342W        W99254  34.030  30.812   9.163 -0.3516 -0.0143  0.1678
56343W        W99255  32.740  28.968   8.754 -0.1181 -0.1191  0.0793
56344W        W99256  33.667  31.439   8.027 -0.0136 -0.0312 -0.0340
56345W        W99257  34.171  29.239   8.688  0.2988  0.2801  0.2611
56346W        W99258  34.091  31.865   7.595 -0.3558  0.1843  0.0207
56347W        W99259  33.969  29.829   9.328  0.2560  0.0451 -0.3983
56348W        W99260  34.126  30.071   7.483 -0.1594  0.0278 -0.2319
56349W        W99261  34.486  30.191   8.419  0.1408  0.3364  0.1347
56350W        W99262  32.309  30.120  10.055  0.2778 -0.0484 -0.1152
56351W        W99263  33.054  30.971   7.637  0.1289  0.1476 -0.1604
56352W        W99264  32.775  31.296  10.150 -0.0988 -0.1000 -0.0337
56353W        W99265   0.105  30.668   7.828 -0.0059  0.2773 -0.3342
56354W        W99266  33.305  28.198   9.029 -0.2048  0.0305 -0.0357
56355W        W99267  32.336  28.502   7.239 -0.0135 -0.0257  0.1330
56356W        W99268  33.249  27.806   9.373 -0.0750 -0.1823 -0.0417
56357W        W99269   0.287  31.895   7.934  0.3838  0.1145 -0.0186
56358W        W99270  33.422  29.896   9.594  0.2836  0.2481 -0.0484
56359W        W99271  34.095  30.694   6.759 -0.1243 -0.1918  0.2262
56360W        W99272  33.279  31.224  10.013  0.2156  0.2988  0.0709
56361W        W99273  33.443  29.075   9.342  0.1300 -0.2534  0.0422
56362W        W99274  32.260  30.389   7.696 -0.3787  0.1902  0.1441
56363W        W99275   0.165  34.165   8.254 -0.3835  0.1774  0.0320
56364W        W99276  33.502  28.186   9.735  0.1234 -0.0512 -0.0303
56365W        W99277  32.575  29.664   7.204  0.2256 -0.3038  0.1050
56366W        W99278  33.560  31.155   5.582 -0.0879 -0.0301 -0.3763
56367W        W99279  34.083  29.798   9.819 -0.2394  0.0548  0.2598
56368W        W99280   0.387  28.106   8.597 -0.0369 -0.0386  0.0666
56369W        W99281  33.357  32.600   8.535 -0.2035  0.0624  0.2396
56370W        W99282  33.135  31.125   9.065  0.3643 -0.0443 -0.1435
56371W        W99283  33.722  32.539   9.533 -0.1811  0.3408  0.2500
56372W        W99284  33.157  30.844   8.575 -0.0504  0.0609  0.1820
56373W        W99285  34.490  31.024   9.417  0.0451  0.1085 -0.0421
56374W        W99286  34.602  31.108   7.627  0.2965  0.0452  0.3830
56375W        W99287  33.469  29.310   7.623  0.0609 -0.0460 -0.1658
56376W        W99288  33.257  31.546   9.277 -0.1208 -0.3065 -0.0186
56377W        W99289  33.202  33.002   8.311 -0.2481  0.4397 -0.0348
56378W        W99290  33.264  29.813   7.732  0.0970  0.0183 -0.1952
56379W        W99291  33.815  33.000   8.679 -0.1717  0.2050 -0.1203
56380W        W99292  32.569  32.017   6.350 -0.0492  0.1790 -0.4495
56381W        W99293  34.514  32.805   8.921 -0.0312  0.0292  0.1615
56382W        W99294  32.954  29.415   8.429 -0.0268  0.1096  0.1188
56383W        W99295  34.244  29.610   7.769  0.0735 -0.1007  0.0628
56384W        W99296  32.569  30.051   8.081  0.0192 -0.4207 -0.2106
56385W        W99297  33.154  30.685   8.027 -0.0567 -0.5147 -0.1358
56386W        W99298  32.893  32.108   6.741  0.1900  0.1304 -0.1908
56387W        W99299  34.086  33.083   9.094  0.0377  0.3144  0.0661
56388W        W99300  34.127  32.949   9.582  0.1835 -0.3012  0.1630
56389W        W99301  34.068  32.561   9.145  0.0179 -0.0455  0.0196
56390W        W99302  32.089  30.686   8.591  0.0324  0.1859  0.0656
56391W        W99303  31.438  29.766   8.756 -0.0727 -0.1803 -0.2497
56392W        W99304  33.892  29.989   8.790  0.2288 -0.3007  0.2260
56393W        W99305  32.639  28.556   9.846  0.2349 -0.1655 -0.2168
56394W        W99306  33.636  30.131   7.514  0.0444  0.2978 -0.2072
56395W        W99307  32.345  29.069   9.036  0.1910  0.0863 -0.1026
56396W        W99308  33.536  30.998   7.845  0.3368 -0.0716  0.3208
56397W        W99309   0.047  30.608   8.874  0.0506 -0.0235 -0.0477
56398W        W99310  33.530  28.358   8.615  0.0334  0.3482 -0.1729
56399W        W99311  33.700  32.495   6.765 -0.0065  0.0991 -0.2114
56400W        W99312  31.772  29.680   9.572 -0.0982 -0.3585 -0.0686
56401W        W99313   0.156  30.567   7.290 -0.0100  0.0731  0.0962
56402W        W99314  33.137  29.412   9.130 -0.1481  0.0584  0.0341
56403W        W99315  33.538  32.558   8.982 -0.2313 -0.1541  0.0073
56404W        W99316   0.028  31.731   6.633  0.0701  0.4335 -0.2248
56405W        W99317   0.977  31.510   9.693 -0.1473 -0.3076  0.0787
56406W        W99318  33.202  28.724   8.476  0.1620  0.0082  0.0477
56407W        W99319  34.415  33.872   8.298 -0.0545 -0.0705 -0.0822
56408W        W99320  34.444  33.340   8.102 -0.3540  0.2317  0.0584
56409W        W99321   0.825  30.546   8.117  0.1255  0.0452  0.0632
56410W        W99322   0.280  30.415   8.487  0.0631 -0.2228  0.1414
56411W        W99323  33.855  28.952   9.630 -0.3665 -0.4404 -0.2724
56412W        W99324  32.920  31.319   6.128  0.0435  0.0260 -0.1121
56413W        W99325  33.118  30.561   6.718 -0.0624 -0.2768 -0.0795
56414W        W99326  33.108  32.916   8.834  0.2949 -0.0955  0.1569
56415W        W99327  32.316  29.676   9.792  0.0605  0.1358  0.0383
56416W        W99328  33.899  29.314   8.122 -0.2282  0.1717 -0.3080
56417W        W99329  32.126  29.377   9.390  0.0645  0.4153 -0.3812
56418W        W99330  32.305  28.283   9.575  0.0359  0.1150  0.1860
56419W        W99331   0.422  30.245   6.989 -0.1463  0.0847  0.0988
56420W        W99332  32.458  31.089   6.031  0.0425 -0.0793  0.3289
56421W        W99333  31.679  29.060   8.444 -0.1322  0.2675 -0.0595
56422W        W99334  34.178  29.724   8.363 -0.0741  0.1514  0.0290
56423W        W99335  34.444  29.408   9.136  0.0827  0.1544 -0.0754
56424W        W99336  32.320  28.624   8.787 -0.1151 -0.0226  0.0539
56425W        W99337  31.658  30.384   9.234 -0.1224 -0.3483  0.1239
56426W        W99338   0.795  30.324   8.621  0.2658 -0.0731 -0.3253
56427W        W99339  33.817  30.570   7.229  0.1381  0.0280  0.2139
56428W        W99340  34.148  32.577   8.647  0.1317  0.3184 -0.2869
56429W        W99341  34.215  29.356   9.601  0.2300 -0.0769  0.1113
56430W        W99342  33.875  31.360   7.574 -0.3170  0.1214 -0.3532
56431W        W99343  34.681  31.053   6.294 -0.0128  0.1119  0.0331
56432W        W99344  33.475  30.302   7.952 -0.0113  0.2997  0.0183
56433W        W99345  33.640  31.531   9.862 -0.2537  0.0696  0.1852
56434W        W99346  33.770  34.593   1.379 -0.2911  0.0486 -0.0459
56435W        W99347  32.790  33.495   1.144  0.1709  0.2028  0.3523
56436W        W99348  33.236  33.623   2.212  0.0052  0.1142  0.0805
56437W        W99349  33.643  34.234   2.761  0.0580 -0.1910 -0.0450
56438W        W99350  33.340  32.818   1.687 -0.1196  0.1320  0.2770
56439W        W99351  33.092  32.734   1.250 -0.1373  0.1741 -0.0950
56440W        W99352  33.518   0.210   1.725  0.2372  0.2014 -0.3049
56441W        W99353   0.813  33.567   2.584  0.1351 -0.0300  0.1665
56442W        W99354  33.215  34.546   1.945  0.0269  0.1046  0.1421
56443W        W99355  33.889  32.866   1.297  0.2506  0.1874 -0.0652
56444W        W99356  33.742  34.097   0.046 -0.0008  0.0068  0.0052
56445W        W99357  32.259   0.495   2.141 -0.1514 -0.1278 -0.1261
56446W        W99358   0.098  34.435   2.035 -0.0650  0.0005 -0.0914
56447W        W99359   1.000  34.226   2.075  0.3237  0.1520 -0.1540
56448W        W99360  34.447  34.000  31.801 -0.0219  0.0253  0.3025
56449W        W99361   1.128  34.005   3.068 -0.0330 -0.0413  0.3600
56450W        W99362  34.247  34.604   2.883 -0.0723  0.3204  0.0294
56451W        W99363  34.323  34.524   2.315  0.2104 -0.0232  0.0510
56452W        W99364  32.934   0.133   2.410  0.1854  0.0076 -0.0246
56453W        W99365  31.760   0.713   2.721  0.3032 -0.3433  0.4781
56454W        W99366  33.017  34.278   4.112 -0.0641  0.0485 -0.1280
56455W        W99367   0.865  31.340   0.356  0.2788 -0.1213  0.2129
56456W        W99368  32.847  33.457   2.558  0.0181  0.1269  0.2280
56457W        W99369  32.446  33.523   2.796  0.0118  0.0015 -0.0568
56458W        W99370  33.213  33.396   3.811 -0.0017  0.1547 -0.1933
56459W        W99371  34.387  34.083   1.257  0.3784 -0.2288 -0.0829
56460W        W99372  33.054  31.971   1.287 -0.1102  0.2202  0.0137
56461W        W99373  32.498  34.204   2.723  0.1043 -0.0503  0.4323
56462W        W99374  33.337  33.599   1.323  0.2323  0.1284  0.0232
56463W        W99375  33.801  32.369   0.461 -0.0749 -0.3406 -0.2687
56464W        W99376   0.097  34.334   1.036  0.0530 -0.3152 -0.0845
56465W        W99377  32.359  33.788   2.357  0.1703  0.1574 -0.0628
56466W        W99378  34.357  33.690   0.275 -0.0006  0.1395  0.0558
56467W        W99379  33.614  32.564  30.890  0.3169 -0.0391  0.3866
56468W        W99380  34.015  33.707  31.836  0.1203 -0.1034  0.0027
56469W        W99381  31.413  33.470   1.471 -0.3831  0.1079 -0.0115
56470W        W99382  33.324   0.232   3.286  0.2382 -0.3598 -0.1294
56471W        W99383  33.121  34.567   1.337 -0.1215 -0.1411  0.1953
56472W        W99384   0.107  33.272   1.896 -0.2364  0.1079  0.0842
56473W        W99385   1.173  33.466   0.165  0.0831  0.0879  0.3804
56474W        W99386  33.378  32.806   3.046  0.0887 -0.2944  0.4447
56475W        W99387  33.090  34.049  31.953  0.0449 -0.0792  0.2312
56476W        W99388   0.629  32.273   1.909  0.0490  0.1355 -0.2420
56477W        W99389   0.841  34.250   2.561  0.0517  0.1436 -0.0623
56478W        W99390  34.647  33.262   0.322  0.2834 -0.1520 -0.1792
56479W        W99391  33.356  32.636  31.494 -0.0703 -0.0666 -0.1991
56480W        W99392  32.915  34.265   1.691  0.1122 -0.0076  0.0887
56481W        W99393  32.115  34.304   2.365 -0.0744  0.0366 -0.3317
56482W        W99394   1.439  33.416   1.983 -0.1404  0.0526  0.2196
56483W        W99395  34.314   1.591   4.087 -0.1221 -0.1184  0.0071
56484W        W99396  32.117  33.968  31.770  0.1985 -0.0624 -0.0618
56485W        W99397   0.652  33.889   2.235 -0.2285 -0.2579  0.1334
56486W        W99398  34.148  34.626   0.043  0.2667  0.2824  0.0128
56487W        W99399  32.888  33.818   4.250  0.1263 -0.1492  0.1488
56488W        W99400  34.379  34.122   0.733  0.0353 -0.1650 -0.1783
56489W        W99401  34.337  32.955   1.028 -0.2826  0.0993  0.0136
56490W        W99402   0.508   0.549   1.641  0.1100 -0.3006  0.1235
56491W        W99403   0.442  33.619   1.809 -0.2527 -0.0129 -0.1629
56492W        W99404   1.062  34.625   0.989 -0.1285  0.1552 -0.0005
56493W        W99405   0.640   0.154   1.420  0.1531 -0.1386  0.0427
56494W        W99406  32.993  33.807   3.095 -0.0323 -0.0900 -0.0345
56495W        W99407  32.701  32.995   1.082 -0.0540  0.0385 -0.2270
56496W        W99408  33.621  34.220   3.917 -0.2397 -0.1330 -0.1354
56497W        W99409   0.224  31.421   0.620 -0.0346  0.2156  0.0482
56498W        W99410  33.118  34.422   2.625 -0.0741  0.0815  0.0727
56499W        W99411  32.778   0.118   3.424  0.1161  0.0084 -0.1681
56500W        W99412  32.908  32.836   3.189  0.1808 -0.1412 -0.0063
56501W        W99413   1.157  34.167   3.598 -0.0006 -0.0436  0.1003
56502W        W99414  32.440  32.442   4.281 -0.2219  0.1614  0.1978
56503W        W99415  33.909  34.312   0.958 -0.0313 -0.1855  0.2711
56504W        W99416  33.582  34.119  31.192 -0.1003 -0.0487  0.2249
56505W        W99417  33.985  33.865   1.512  0.0812 -0.0869 -0.3268
56506W        W99418  33.879  33.288  31.651  0.2399 -0.0522  0.1177
56507W        W99419  32.794   0.896   1.302  0.0101 -0.0116  0.1921
56508W        W99420   0.124  32.340   0.501 -0.3091 -0.3168 -0.0226
56509W        W99421  34.471  34.071   2.389  0.2266  0.2657 -0.0151
56510W        W99422  34.274   2.271   0.929  0.0265 -0.2117  0.0904
56511W        W99423  32.806  34.232   3.373 -0.3121 -0.1556  0.0739
56512W        W99424  34.036  33.743   0.951 -0.1133 -0.2278  0.1282
56513W        W99425  33.670  33.277   0.111 -0.2311  0.1234  0.4588
56514W        W99426  34.161  33.678   2.282  0.3261 -0.1213 -0.0596
56515W        W99427  34.005  32.651   0.846  0.4406 -0.0749 -0.3642
56516W        W99428  34.028   0.403   2.975 -0.1833 -0.0105 -0.1269
56517W        W99429  34.119   0.209   1.560  0.0697 -0.1974 -0.1294
56518W        W99430  33.521  34.650   2.317  0.0553 -0.0783  0.2620
56519W        W99431  32.304  32.817   0.365 -0.1969 -0.0105 -0.0098
56520W        W99432  33.663  33.747   2.530  0.0853  0.4046 -0.1837
56521W        W99433  34.147   0.599   2.248  0.0132  0.1723  0.2741
56522W        W99434  34.377  33.383   0.725  0.2513  0.0717  0.4799
56523W        W99435   0.717  34.388   1.284  0.1886 -0.1181 -0.1385
56524W        W99436  33.333  34.128   0.857 -0.2509 -0.3633  0.1020
56525W        W99437   0.062   0.167   1.314  0.0294 -0.1932  0.0719
56526W        W99438  33.673   0.046   3.003  0.0432  0.1210  0.2516
56527W        W99439  33.003  32.371   0.967  0.1049 -0.2686 -0.2047
56528W        W99440  34.364  33.589   1.300 -0.0764  0.0684 -0.3238
56529W        W99441  34.144  33.129   0.353  0.0738  0.1827 -0.1220
56530W        W99442  34.082  33.253   1.605  0.0691  0.2982  0.1185
56531W        W99443   0.282   0.740   0.635  0.0445 -0.0307  0.1141
56532W        W99444  34.235  34.070   1.956  0.3096  0.1641  0.0703
56533W        W99445  34.416   0.253   2.562  0.0892  0.0817 -0.0723
56534W        W99446  33.049   0.343   0.882 -0.1118  0.0788  0.2007
56535W        W99447  34.258  33.023   2.638 -0.0326  0.1381 -0.0169
56536W        W99448  33.404  33.216   3.319 -0.2333 -0.1515 -0.0705
56537W        W99449  34.300   1.149   1.583  0.0291 -0.0808  0.0749
56538W        W99450  32.580  31.984   0.361  0.0350 -0.0771 -0.1978
56539W        W99451  33.288  32.494   2.573 -0.0291 -0.2509  0.0797
56540W        W99452  33.550  34.147   1.299 -0.0408  0.1971 -0.0234
56541W        W99453   0.424  33.574   0.925 -0.0181 -0.2167  0.1043
56542W        W99454  34.681  34.438   2.640  0.0403  0.0697  0.2716
56543W        W99455  33.874  34.342   2.301  0.0473 -0.1880  0.1469
56544W        W99456  32.024  32.635  31.921 -0.0840 -0.0935  0.1202
56545W        W99457  34.344  34.561   1.154  0.0431  0.0154  0.0315
56546W        W99458  31.997  33.460   3.049  0.1126  0.0282  0.1069
56547W        W99459  33.643  32.221   3.435  0.1345  0.3830 -0.0235
56548W        W99460   0.653  34.117   0.254 -0.1411  0.0024  0.1606
56549W        W99461   0.142  33.889   0.372 -0.0623 -0.2809 -0.3886
56550W        W99462  34.318  33.303  31.935 -0.2101  0.1015  0.1697
56551W        W99463   1.443   0.786   3.135 -0.1076 -0.3481 -0.1739
56552W        W99464  33.577  34.388   0.434 -0.0181 -0.0464  0.0169
56553W        W99465  32.880  32.740   2.320  0.0394  0.1004 -0.0265
56554W        W99466  33.677   0.668   1.452  0.1463  0.0286 -0.1683
56555W        W99467  34.417   0.467   1.098 -0.1195 -0.0106 -0.2161
56556W        W99468  33.843  33.153   0.793  0.2778 -0.0153  0.4972
56557W        W99469  33.888  34.211   4.804  0.0949 -0.0218 -0.0186
56558W        W99470  33.474  33.959   5.025 -0.1042  0.1240  0.1103
56559W        W99471  34.133  32.181   5.369 -0.0963 -0.1398 -0.0929
56560W        W99472  34.213  33.852   4.511  0.1761  0.0267 -0.4020
56561W        W99473  33.694  33.834   4.492 -0.1521  0.1030 -0.2228
56562W        W99474  33.687  33.064   5.550  0.2856  0.0291 -0.3706
56563W        W99475  32.981   0.550   3.338 -0.2012 -0.1890 -0.1077
56564W        W99476  33.392   0.203   4.698  0.0639  0.0257 -0.1352
56565W        W99477  33.937  34.453   5.203 -0.3607  0.1473 -0.2743
56566W        W99478  34.300  33.346   6.213 -0.1424  0.1052 -0.1639
56567W        W99479  32.920  33.951   2.139 -0.2853  0.3660  0.0858
56568W        W99480  33.107  33.559   5.101 -0.3412 -0.0119  0.0148
56569W        W99481  32.583  34.538   6.910  0.0292 -0.1656 -0.1618
56570W        W99482  34.311   0.071   5.732 -0.0740  0.0968  0.1559
56571W        W99483  33.977  34.211   3.211 -0.1089 -0.0174 -0.0806
56572W        W99484  32.758  32.575   4.881  0.6099  0.2942 -0.1050
56573W        W99485  33.827  33.984   5.962  0.0771  0.2347 -0.0353
56574W        W99486  33.337  34.383   5.369  0.1590  0.3789  0.0632
56575W        W99487  33.676   1.770   3.491 -0.0704 -0.0841 -0.3781
56576W        W99488  32.883   0.631   6.570 -0.2069  0.0368 -0.1518
56577W        W99489  33.899  34.582   6.579  0.0928  0.1026 -0.3601
56578W        W99490  33.370  32.408   3.773  0.0128  0.0230  0.2537
56579W        W99491  33.808  32.854   6.059 -0.0530  0.1828  0.0655
56580W        W99492  32.713  33.712   6.919  0.2087  0.2158  0.1303
56581W        W99493  32.820  33.324   6.449  0.0246 -0.2036  0.1357
56582W        W99494  31.736  33.695   6.281 -0.1317 -0.0056  0.1746
56583W        W99495  33.354  33.423   2.861 -0.2386  0.0270  0.0149
56584W        W99496  32.467  32.500   6.288  0.0509  0.0413  0.0608
56585W        W99497  32.463  32.818   5.285 -0.0783  0.1905  0.2039
56586W        W99498  32.408  33.310   3.232 -0.1637 -0.0465 -0.1153
56587W        W99499  33.237   0.570   4.290 -0.1540  0.1792 -0.3463
56588W        W99500  33.633  34.313   6.287 -0.2131  0.1701 -0.0119
56589W        W99501  33.882  33.708   4.930  0.1479 -0.6144  0.1630
56590W        W99502  33.609  33.520   5.307 -0.1442 -0.1527  0.0470
56591W        W99503  33.642  32.747   3.445  0.0543 -0.1640 -0.0768
56592W        W99504  32.673  34.451   3.780  0.1585  0.0585 -0.0041
56593W        W99505  32.111  34.300   6.969 -0.3277  0.1444  0.0123
56594W        W99506  33.640  34.528   3.449  0.0106 -0.1443  0.0374
56595W        W99507  33.101  33.263   4.640 -0.1035  0.1024 -0.0039
56596W        W99508  34.444  33.978   3.545  0.1161  0.0430 -0.2450
56597W        W99509   0.944  34.307   5.478  0.0151 -0.0540  0.0052
56598W        W99510  33.216   0.337   3.720  0.1124 -0.0091 -0.1767
56599W        W99511  34.651  33.748   6.186  0.0207 -0.0525 -0.4028
56600W        W99512  34.426  34.287   6.548 -0.0891  0.0136 -0.2109
56601W        W99513  33.601  32.958   4.460  0.2819  0.0496  0.1457
56602W        W99514  34.381  32.924   3.248  0.1697  0.1260 -0.2350
56603W        W99515  34.320  34.488   4.766 -0.0186  0.1318 -0.1756
56604W        W99516  33.371  33.300   6.257  0.0643 -0.2013 -0.1450
56605W        W99517  33.940  33.203   5.096 -0.0787 -0.0717  0.0084
56606W        W99518  33.833  34.408   5.703 -0.0763 -0.4049  0.2127
56607W        W99519  32.774  33.735   4.717  0.1810 -0.2888  0.0167
56608W        W99520   0.394   0.536   3.913 -0.1034 -0.0750  0.2014
56609W        W99521  34.419   0.301   4.360 -0.0611 -0.1356 -0.2343
56610W        W99522  34.364  33.314   6.781  0.0705  0.3898  0.2329
56611W        W99523  33.325  33.920   5.572 -0.2405  0.1155 -0.1019
56612W        W99524  32.694  32.866   4.440 -0.0412  0.0914 -0.2202
56613W        W99525  34.685  34.578   3.221 -0.2505  0.0212 -0.0701
56614W        W99526   0.019   0.288   4.826  0.1293  0.3036  0.1361
56615W        W99527   0.436  33.849   6.323  0.1788 -0.3700 -0.0176
56616W        W99528   0.611   0.199   3.167 -0.0581  0.0543 -0.0950
56617W        W99529  33.179  32.763   4.641  0.0962 -0.3645  0.0621
56618W        W99530  33.260  33.698   6.024 -0.2390 -0.0480  0.1486
56619W        W99531  32.948  34.638   7.267 -0.2009  0.1736  0.1462
56620W        W99532  33.389  31.970   3.962  0.3036 -0.0002 -0.6020
56621W        W99533  33.275   1.618   4.675  0.0060  0.0676 -0.0056
56622W        W99534  32.942  34.135   6.759  0.1522  0.1356  0.1039
56623W        W99535  34.541  33.161   5.304  0.1460  0.1176 -0.0230
56624W        W99536  34.423  34.668   6.237 -0.1750  0.0362  0.0427
56625W        W99537  32.135  31.818   5.650 -0.0912  0.1540  0.1383
56626W        W99538  32.926  34.058   5.108 -0.0316 -0.5083 -0.0724
56627W        W99539   0.117  33.725   3.088 -0.2860  0.2992 -0.1016
56628W        W99540  32.945  33.308   5.987  0.0509  0.0948  0.0908
56629W        W99541  32.805  33.273   3.549 -0.2258 -0.0577 -0.2312
56630W        W99542  34.419   0.722   3.274 -0.3429  0.0773 -0.3293
56631W        W99543  34.488  32.437   3.056 -0.3224  0.1989 -0.4139
56632W        W99544  33.688   0.413   6.497  0.0070  0.2889 -0.1764
56633W        W99545  33.404   0.089   5.694  0.0674 -0.1348  0.2247
56634W        W99546  32.103  33.316   7.243 -0.2029  0.2036 -0.0991
56635W        W99547  32.513  34.056   4.103 -0.0063 -0.2790  0.1714
56636W        W99548   0.907  34.529   4.593  0.1873  0.0202  0.1223
56637W        W99549  33.070  34.167   6.236  0.2755 -0.0249 -0.3225
56638W        W99550  33.075  32.494   4.138  0.0936 -0.2739  0.3317
56639W        W99551  32.787   0.871   6.995 -0.0675  0.2667  0.4636
56640W        W99552  34.365  33.410   4.936  0.1497 -0.0690 -0.1017
56641W        W99553  33.385  34.674   4.118  0.2672  0.1042  0.2061
56642W        W99554  32.637   1.530   3.554 -0.0736 -0.0790 -0.1630
56643W        W99555  33.362   0.020   6.357  0.0988 -0.1677 -0.3270
56644W        W99556  32.883  34.209   5.657 -0.1228 -0.2204 -0.3369
56645W        W99557  32.152  33.264   5.103  0.2695 -0.0414  0.0360
56646W        W99558   0.490  34.526   2.880 -0.1326 -0.0416 -0.0392
56647W        W99559  33.220  33.374   5.620 -0.3771  0.1933 -0.0343
56648W        W99560  33.333  33.865   3.986 -0.0349  0.0382 -0.0728
56649W        W99561  34.645  34.017   5.697 -0.0151  0.0008 -0.0066
56650W        W99562  32.457  34.245   5.120  0.1175 -0.1120  0.2583
56651W        W99563  31.887  34.273   4.875  0.2666 -0.1101  0.3124
56652W        W99564   0.341  32.405   3.285 -0.0405  0.2095  0.0311
56653W        W99565  32.246   0.256   3.974 -0.2062  0.2331  0.1029
56654W        W99566  32.957  34.662   5.476  0.0580  0.2002  0.0835
56655W        W99567   1.309  33.617   4.449  0.0636 -0.0001 -0.2472
56656W        W99568  34.260   0.214   5.091  0.2539  0.0038 -0.0787
56657W        W99569  32.499  33.855   3.152  0.1358 -0.0000 -0.4083
56658W        W99570  34.049  32.762   5.212  0.2272 -0.1005  0.2600
56659W        W99571  33.915  33.594   6.743 -0.0670 -0.4232  0.1761
56660W        W99572  32.740   0.677   4.703  0.0486 -0.1040 -0.1325
56661W        W99573  33.211  32.852   3.610  0.4989 -0.0313  0.0545
56662W        W99574  32.791  33.068   5.048  0.0559  0.0989  0.0753
56663W        W99575  32.509  33.248   5.606 -0.0418  0.0000 -0.0203
56664W        W99576  32.767  33.669   5.567  0.1220 -0.0534  0.2331
56665W        W99577  33.544  33.794   6.415 -0.2205 -0.1104  0.1077
56666W        W99578   0.141  33.340   6.642  0.2378  0.1084 -0.1457
56667W        W99579  32.362  32.828   3.464 -0.1886 -0.1909  0.0717
56668W        W99580  34.322  33.947   5.079  0.0139 -0.1771 -0.0786
56669W        W99581  32.972  33.141   6.932 -0.0570 -0.0407  0.2015
56670W        W99582  32.918  33.256   7.725  0.1521 -0.0779  0.1798
56671W        W99583   0.233  34.132   3.354  0.2763 -0.1826 -0.1993
56672W        W99584  33.382  34.218   4.421 -0.1733  0.0639  0.2158
56673W        W99585   0.727  33.930   3.541 -0.0973  0.1100 -0.1332
56674W        W99586   0.424   0.642   4.840  0.0155  0.0157 -0.1589
56675W        W99587   0.342  34.277   3.921  0.0015  0.1017  0.1442
56676W        W99588  33.400  33.375   6.799 -0.2171  0.1087 -0.2127
56677W        W99589  33.178   0.987   5.560 -0.0981 -0.1718  0.1811
56678W        W99590  33.955   0.594   5.154 -0.0104 -0.1143  0.0220
56679W        W99591  34.163  33.552   5.364  0.0123  0.0229  0.1800
56680W        W99592  33.024  33.248   9.272  0.0142  0.0709 -0.0801
56681W        W99593  33.476  33.381   8.680 -0.0877 -0.1347 -0.1180
56682W        W99594  33.300  32.116   8.866 -0.1560  0.3066  0.1682
56683W        W99595  33.254  32.911   5.889  0.1490 -0.3282 -0.0180
56684W        W99596  33.544  32.159   9.841  0.2178  0.4982  0.2117
56685W        W99597  32.860   0.247   6.865  0.2284  0.0269  0.3216
56686W        W99598  32.961  33.955  10.231 -0.3273 -0.0908  0.0586
56687W        W99599  34.035  33.469   8.408  0.0868 -0.0160  0.4721
56688W        W99600  34.336  29.864   9.003  0.2162 -0.4156 -0.1776
56689W        W99601  33.389  33.882   6.913  0.1100  0.1092  0.1993
56690W        W99602  33.701  33.897   9.866  0.0399  0.3477 -0.0876
56691W        W99603  32.579   0.147   9.152 -0.0559 -0.2015 -0.2189
56692W        W99604  33.864  34.480   9.258 -0.2282 -0.1406 -0.0481
56693W        W99605  33.580  32.927   6.540 -0.1479  0.1592  0.1446
56694W        W99606  32.410  32.122   7.889 -0.1525 -0.2128  0.0895
56695W        W99607   0.555  33.671   9.550 -0.2467  0.0736 -0.2365
56696W        W99608  33.456  34.368   9.622  0.0658 -0.0255  0.0781
56697W        W99609  33.592   0.601   8.283  0.1744 -0.0523 -0.1056
56698W        W99610  33.146  32.781   7.826 -0.0408 -0.0787  0.0645
56699W        W99611  32.268  32.607   8.782 -0.0303  0.0464 -0.4610
56700W        W99612  34.302   0.018   9.359 -0.0881  0.0581  0.4933
56701W        W99613  34.315  34.090   7.451  0.0084  0.3192 -0.2877
56702W        W99614  34.270  34.283   9.050 -0.0141 -0.2572 -0.6147
56703W        W99615  32.875  32.558   8.243  0.0548  0.1132  0.1772
56704W        W99616  34.322   0.388   8.356 -0.1390  0.3141  0.0737
56705W        W99617  33.777  30.246   9.606  0.0354  0.0419  0.4292
56706W        W99618  33.401  33.748   7.603  0.3493  0.2257 -0.2769
56707W        W99619  34.054  32.857   6.566  0.3599  0.0361 -0.2755
56708W        W99620  33.207  33.468   8.129 -0.0960  0.3243 -0.2278
56709W        W99621  33.406  34.410   8.983 -0.0890 -0.1222 -0.0545
56710W        W99622  33.042  34.248   8.665  0.1959  0.0600  0.3212
56711W        W99623  32.536  33.345   9.568 -0.2464  0.2597  0.0939
56712W        W99624  33.126  33.430   7.298 -0.0196  0.0738 -0.0718
56713W        W99625  33.718  34.512   7.885  0.3684  0.1025  0.0908
56714W        W99626   0.584  32.734   7.787  0.1117  0.1301  0.0479
56715W        W99627   0.492  32.348   9.706 -0.0932  0.1641  0.1096
56716W        W99628  33.352  34.280   6.678 -0.0199  0.0707  0.0047
56717W        W99629  32.261   1.316   8.732  0.2104 -0.2479 -0.0425
56718W        W99630  34.395  33.548   9.620  0.1330 -0.0690  0.0090
56719W        W99631  34.198  33.953   9.812 -0.0633 -0.1998 -0.1868
56720W        W99632  32.611  32.861   7.752  0.1555 -0.0068 -0.3211
56721W        W99633   0.982  33.702   8.706 -0.2030 -0.3081  0.2089
56722W        W99634  33.457  34.073   7.983  0.0982 -0.4603  0.1508
56723W        W99635   0.582  31.856   9.391 -0.0999 -0.2438  0.0282
56724W        W99636  32.089  33.070   8.852 -0.3896 -0.3516 -0.1861
56725W        W99637  33.925  34.360   9.782 -0.0899 -0.1615 -0.3376
56726W        W99638   0.132  34.547   8.820  0.3766  0.2714 -0.0396
56727W        W99639   1.117  33.118   9.100 -0.0471 -0.1704 -0.2389
56728W        W99640  33.649  33.232   8.187  0.0317 -0.0365 -0.1270
56729W        W99641  32.755  32.860   9.537  0.1823  0.0238  0.0443
56730W        W99642  34.057  32.985   8.275  0.2138 -0.0048  0.1615
56731W        W99643  32.677   1.661  10.035 -0.2679 -0.0653 -0.1038
56732W        W99644  33.989   1.122   9.674  0.0233 -0.0411  0.0251
56733W        W99645   0.090  33.902   9.769 -0.0466 -0.1790 -0.1586
56734W        W99646  33.624  33.451   7.261 -0.1027  0.1456  0.0568
56735W        W99647  33.655  33.016   9.795  0.0464 -0.2466  0.1076
56736W        W99648  32.953  34.574   6.547  0.1651  0.0943 -0.0014
56737W        W99649  34.102   0.510   7.435  0.2241  0.2602 -0.2260
56738W        W99650  34.634  33.429   7.642 -0.1048  0.0257 -0.1269
56739W        W99651  33.386   1.062   8.468  0.2878 -0.2148 -0.2730
56740W        W99652  33.826  34.090   8.946  0.2086 -0.1087 -0.4355
56741W        W99653  33.423  33.278   7.735 -0.0736 -0.0421  0.3262
56742W        W99654  34.193  33.458   7.321 -0.0125  0.1319  0.2999
56743W        W99655  33.917  34.536   8.750  0.1680 -0.1036 -0.3427
56744W        W99656  32.707  32.883   5.985 -0.2270  0.2127  0.1466
56745W        W99657  33.042  33.928   7.835  0.0954 -0.0753  0.2643
56746W        W99658  34.045  34.671   8.251  0.1879 -0.0626  0.0363
56747W        W99659  33.307  32.811   9.494 -0.0755  0.0438 -0.0836
56748W        W99660  34.006  34.116  10.280 -0.2359  0.0888 -0.0177
56749W        W99661  33.274  34.449   7.631  0.0698 -0.1630  0.0989
56750W        W99662  31.926   0.385  10.266  0.0931  0.1139 -0.3434
56751W        W99663  34.642  33.738   7.210  0.0035  0.4328  0.0660
56752W        W99664  33.174  33.887   9.789  0.1118  0.0428 -0.0013
56753W        W99665  33.003   0.437   9.167 -0.1547 -0.0813  0.2082
56754W        W99666  33.307   0.402   9.598  0.1335  0.1488  0.3421
56755W        W99667  33.865  33.575   9.022  0.5233  0.0408  0.0999
56756W        W99668   0.179  33.568   9.301  0.1074 -0.0769  0.0783
56757W        W99669   0.037  32.571   8.004 -0.2748 -0.0871 -0.1660
56758W        W99670  34.486  33.575   9.033 -0.0542  0.0351 -0.1817
56759W        W99671  34.226   0.148   7.097 -0.0027  0.1751  0.0425
56760W        W99672  33.673  33.811   8.535 -0.1544 -0.3486 -0.2980
56761W        W99673  34.268   1.033  10.090  0.0325 -0.1873  0.1047
56762W        W99674  33.032   0.222   8.396 -0.1932 -0.0467 -0.1603
56763W        W99675  33.379   1.650   9.806  0.0478 -0.2120  0.1165
56764W        W99676  33.666  32.838   7.930  0.0219  0.1390  0.2630
56765W        W99677  34.575  33.098   9.337  0.0462 -0.2180 -0.2643
56766W        W99678  32.561  33.270   8.985  0.2267  0.0347  0.2366
56767W        W99679  32.758  33.128   8.192  0.0169 -0.4196 -0.1973
56768W        W99680  32.967  33.998   7.286 -0.3176  0.1334 -0.2544
56769W        W99681  33.546   0.116   8.253 -0.0388  0.2257  0.0544
56770W        W99682  32.200  34.209   9.780  0.0006 -0.3175  0.1014
56771W        W99683  34.412  31.998   9.439 -0.1754  0.3261 -0.1596
56772W        W99684  33.557   1.207   9.318 -0.0844 -0.1752 -0.3048
56773W        W99685   0.212  33.334   7.210  0.1364 -0.0179  0.2152
56774W        W99686  34.146   0.049   7.766 -0.1696  0.0188  0.1579
56775W        W99687  32.305  32.917   9.253 -0.1394 -0.6804 -0.2525
56776W        W99688  33.733   0.432   7.786  0.0513 -0.0797  0.3114
56777W        W99689  32.912   0.817   7.711  0.2492  0.0200 -0.1064
56778W        W99690  33.516  34.337   8.501 -0.0339 -0.0884  0.1809
  34.69979  34.69979  31.98577
